Protein in water t=   0.00000 step= 0
325731
    1DC5    H5T    1  10.156   6.309   2.326
    1DC5    O5'    2  10.100   6.232   2.347
    1DC5    C5'    3  10.092   6.218   2.485
    1DC5   H5'1    4  10.192   6.202   2.535
    1DC5   H5'2    5  10.014   6.135   2.505
    1DC5    C4'    6  10.040   6.350   2.543
    1DC5    H4'    7  10.125   6.416   2.533
    1DC5    O4'    8   9.921   6.395   2.492
    1DC5    C1'    9   9.836   6.434   2.593
    1DC5    H1'   10   9.867   6.531   2.633
    1DC5     N1   11   9.699   6.446   2.544
    1DC5     C6   12   9.603   6.346   2.562
    1DC5     H6   13   9.629   6.246   2.588
    1DC5     C5   14   9.474   6.374   2.529
    1DC5     H5   15   9.393   6.300   2.534
    1DC5     C4   16   9.443   6.511   2.484
    1DC5     N4   17   9.323   6.535   2.447
    1DC5    H41   18   9.291   6.622   2.412
    1DC5    H42   19   9.259   6.465   2.462
    1DC5     N3   20   9.534   6.600   2.458
    1DC5     C2   21   9.661   6.570   2.496
    1DC5     O2   22   9.737   6.665   2.487
    1DC5    C3'   23  10.018   6.342   2.692
    1DC5    H3'   24  10.072   6.254   2.720
    1DC5    C2'   25   9.870   6.321   2.690
    1DC5   H2'1   26   9.837   6.220   2.653
    1DC5   H2'2   27   9.833   6.340   2.792
    1DC5    O3'   28  10.056   6.457   2.765
    2DG       P   29  10.155   6.438   2.891
    2DG     O1P   30  10.284   6.380   2.839
    2DG     O2P   31  10.075   6.360   2.989
    2DG     O5'   32  10.168   6.589   2.953
    2DG     C5'   33  10.219   6.694   2.874
    2DG    H5'1   34  10.192   6.669   2.772
    2DG    H5'2   35  10.327   6.697   2.876
    2DG     C4'   36  10.169   6.835   2.911
    2DG     H4'   37  10.247   6.900   2.871
    2DG     O4'   38  10.047   6.859   2.843
    2DG     C1'   39   9.939   6.874   2.938
    2DG     H1'   40   9.913   6.980   2.946
    2DG      N9   41   9.826   6.790   2.903
    2DG      C8   42   9.823   6.651   2.902
    2DG      H8   43   9.909   6.594   2.924
    2DG      N7   44   9.712   6.596   2.861
    2DG      C5   45   9.631   6.708   2.834
    2DG      C6   46   9.491   6.720   2.790
    2DG      O6   47   9.419   6.627   2.763
    2DG      N1   48   9.441   6.846   2.781
    2DG      H1   49   9.341   6.863   2.761
    2DG      C2   50   9.520   6.955   2.806
    2DG      N2   51   9.465   7.072   2.788
    2DG     H21   52   9.367   7.085   2.764
    2DG     H22   53   9.524   7.154   2.816
    2DG      N3   54   9.646   6.954   2.843
    2DG      C4   55   9.698   6.826   2.855
    2DG     C3'   56  10.150   6.870   3.059
    2DG     H3'   57  10.205   6.807   3.124
    2DG     C2'   58  10.003   6.832   3.073
    2DG    H2'1   59   9.983   6.725   3.092
    2DG    H2'2   60   9.964   6.879   3.165
    2DG     O3'   61  10.173   7.013   3.081
    3DC       P   62  10.164   7.088   3.215
    3DC     O1P   63  10.207   7.223   3.189
    3DC     O2P   64  10.233   7.014   3.317
    3DC     O5'   65  10.012   7.089   3.260
    3DC     C5'   66   9.918   7.161   3.187
    3DC    H5'1   67   9.939   7.148   3.077
    3DC    H5'2   68   9.942   7.264   3.200
    3DC     C4'   69   9.772   7.135   3.219
    3DC     H4'   70   9.708   7.215   3.175
    3DC     O4'   71   9.740   7.005   3.165
    3DC     C1'   72   9.660   6.945   3.266
    3DC     H1'   73   9.578   7.007   3.272
    3DC      N1   74   9.596   6.816   3.235
    3DC      C6   75   9.637   6.698   3.290
    3DC      H6   76   9.707   6.695   3.371
    3DC      C5   77   9.592   6.573   3.240
    3DC      H5   78   9.627   6.483   3.282
    3DC      C4   79   9.490   6.584   3.142
    3DC      N4   80   9.424   6.478   3.104
    3DC     H41   81   9.341   6.503   3.053
    3DC     H42   82   9.463   6.388   3.126
    3DC      N3   83   9.437   6.698   3.101
    3DC      C2   84   9.486   6.814   3.144
    3DC      O2   85   9.418   6.916   3.113
    3DC     C3'   86   9.751   7.125   3.373
    3DC     H3'   87   9.845   7.156   3.418
    3DC     C2'   88   9.735   6.975   3.397
    3DC    H2'1   89   9.831   6.920   3.405
    3DC    H2'2   90   9.661   6.951   3.473
    3DC     O3'   91   9.642   7.205   3.413
    4DA       P   92   9.662   7.352   3.475
    4DA     O1P   93   9.720   7.433   3.367
    4DA     O2P   94   9.742   7.339   3.599
    4DA     O5'   95   9.511   7.404   3.502
    4DA     C5'   96   9.431   7.442   3.394
    4DA    H5'1   97   9.461   7.384   3.302
    4DA    H5'2   98   9.445   7.541   3.369
    4DA     C4'   99   9.277   7.427   3.416
    4DA     H4'  100   9.225   7.503   3.354
    4DA     O4'  101   9.237   7.299   3.368
    4DA     C1'  102   9.191   7.229   3.488
    4DA     H1'  103   9.088   7.226   3.490
    4DA      N9  104   9.241   7.088   3.461
    4DA      C8  105   9.360   7.031   3.495
    4DA      H8  106   9.440   7.093   3.531
    4DA      N7  107   9.361   6.897   3.466
    4DA      C5  108   9.232   6.871   3.414
    4DA      C6  109   9.165   6.758   3.370
    4DA      N6  110   9.224   6.641   3.369
    4DA     H61  111   9.173   6.562   3.344
    4DA     H62  112   9.321   6.642   3.400
    4DA      N1  113   9.045   6.770   3.313
    4DA      C2  114   8.991   6.891   3.313
    4DA      H2  115   8.909   6.905   3.254
    4DA      N3  116   9.040   7.005   3.352
    4DA      C4  117   9.162   6.989   3.405
    4DA     C3'  118   9.224   7.440   3.563
    4DA     H3'  119   9.290   7.513   3.621
    4DA     C2'  120   9.249   7.297   3.615
    4DA    H2'1  121   9.355   7.272   3.633
    4DA    H2'2  122   9.195   7.285   3.714
    4DA     O3'  123   9.089   7.475   3.577
    5DT       P  124   9.030   7.553   3.707
    5DT     O1P  125   9.022   7.692   3.659
    5DT     O2P  126   9.109   7.521   3.830
    5DT     O5'  127   8.882   7.500   3.732
    5DT     C5'  128   8.786   7.500   3.627
    5DT    H5'1  129   8.838   7.518   3.526
    5DT    H5'2  130   8.712   7.580   3.638
    5DT     C4'  131   8.692   7.375   3.626
    5DT     H4'  132   8.612   7.403   3.556
    5DT     O4'  133   8.764   7.259   3.592
    5DT     C1'  134   8.739   7.164   3.689
    5DT     H1'  135   8.644   7.114   3.662
    5DT      N1  136   8.850   7.055   3.696
    5DT      C6  137   8.977   7.081   3.757
    5DT      H6  138   8.997   7.173   3.812
    5DT      C5  139   9.069   6.988   3.772
    5DT      C7  140   9.203   7.019   3.841
    5DT     H71  141   9.187   7.094   3.915
    5DT     H72  142   9.240   6.934   3.904
    5DT     H73  143   9.278   7.045   3.768
    5DT      C4  144   9.052   6.857   3.710
    5DT      O4  145   9.139   6.774   3.697
    5DT      N3  146   8.935   6.840   3.648
    5DT      H3  147   8.916   6.748   3.606
    5DT      C2  148   8.832   6.927   3.636
    5DT      O2  149   8.729   6.896   3.578
    5DT     C3'  150   8.639   7.361   3.770
    5DT     H3'  151   8.648   7.452   3.828
    5DT     C2'  152   8.707   7.236   3.817
    5DT    H2'1  153   8.794   7.273   3.869
    5DT    H2'2  154   8.637   7.190   3.877
    5DT     O3'  155   8.499   7.353   3.756
    6DG       P  156   8.400   7.368   3.887
    6DG     O1P  157   8.275   7.447   3.842
    6DG     O2P  158   8.483   7.429   3.994
    6DG     O5'  159   8.357   7.220   3.946
    6DG     C5'  160   8.292   7.115   3.866
    6DG    H5'1  161   8.305   7.135   3.767
    6DG    H5'2  162   8.179   7.122   3.890
    6DG     C4'  163   8.348   6.980   3.908
    6DG     H4'  164   8.295   6.900   3.870
    6DG     O4'  165   8.489   6.970   3.881
    6DG     C1'  166   8.530   6.877   3.975
    6DG     H1'  167   8.502   6.780   3.930
    6DG      N9  168   8.673   6.869   3.995
    6DG      C8  169   8.764   6.958   4.042
    6DG      H8  170   8.733   7.064   4.066
    6DG      N7  171   8.885   6.915   4.065
    6DG      C5  172   8.872   6.789   4.014
    6DG      C6  173   8.969   6.681   3.994
    6DG      O6  174   9.084   6.680   4.023
    6DG      N1  175   8.918   6.563   3.945
    6DG      H1  176   8.980   6.483   3.929
    6DG      C2  177   8.789   6.547   3.913
    6DG      N2  178   8.749   6.430   3.877
    6DG     H21  179   8.814   6.349   3.898
    6DG     H22  180   8.653   6.416   3.864
    6DG      N3  181   8.696   6.641   3.930
    6DG      C4  182   8.745   6.760   3.972
    6DG     C3'  183   8.324   6.957   4.056
    6DG     H3'  184   8.308   7.058   4.105
    6DG     C2'  185   8.451   6.885   4.099
    6DG    H2'1  186   8.507   6.936   4.175
    6DG    H2'2  187   8.436   6.783   4.145
    6DG     O3'  188   8.207   6.885   4.076
    7DT       P  189   8.158   6.830   4.216
    7DT     O1P  190   8.007   6.829   4.211
    7DT     O2P  191   8.224   6.901   4.328
    7DT     O5'  192   8.213   6.682   4.212
    7DT     C5'  193   8.172   6.589   4.111
    7DT    H5'1  194   8.186   6.635   4.011
    7DT    H5'2  195   8.066   6.578   4.131
    7DT     C4'  196   8.238   6.451   4.121
    7DT     H4'  197   8.193   6.390   4.041
    7DT     O4'  198   8.378   6.453   4.109
    7DT     C1'  199   8.428   6.407   4.234
    7DT     H1'  200   8.452   6.302   4.228
    7DT      N1  201   8.555   6.475   4.275
    7DT      C6  202   8.554   6.599   4.332
    7DT      H6  203   8.456   6.643   4.338
    7DT      C5  204   8.670   6.661   4.355
    7DT      C7  205   8.664   6.806   4.400
    7DT     H71  206   8.566   6.858   4.406
    7DT     H72  207   8.712   6.816   4.506
    7DT     H73  208   8.726   6.865   4.332
    7DT      C4  209   8.798   6.593   4.347
    7DT      O4  210   8.916   6.637   4.372
    7DT      N3  211   8.790   6.464   4.302
    7DT      H3  212   8.878   6.418   4.287
    7DT      C2  213   8.678   6.404   4.248
    7DT      O2  214   8.690   6.289   4.204
    7DT     C3'  215   8.192   6.383   4.252
    7DT     H3'  216   8.107   6.433   4.297
    7DT     C2'  217   8.320   6.407   4.338
    7DT    H2'1  218   8.317   6.504   4.386
    7DT    H2'2  219   8.321   6.343   4.424
    7DT     O3'  220   8.162   6.248   4.237
    8DG       P  221   8.091   6.162   4.348
    8DG     O1P  222   8.015   6.050   4.281
    8DG     O2P  223   8.014   6.246   4.439
    8DG     O5'  224   8.212   6.100   4.439
    8DG     C5'  225   8.299   5.995   4.390
    8DG    H5'1  226   8.326   6.016   4.289
    8DG    H5'2  227   8.244   5.899   4.383
    8DG     C4'  228   8.432   5.984   4.477
    8DG     H4'  229   8.473   5.888   4.455
    8DG     O4'  230   8.521   6.089   4.446
    8DG     C1'  231   8.598   6.109   4.570
    8DG     H1'  232   8.663   6.021   4.586
    8DG      N9  233   8.673   6.228   4.575
    8DG      C8  234   8.641   6.359   4.608
    8DG      H8  235   8.544   6.392   4.613
    8DG      N7  236   8.740   6.436   4.634
    8DG      C5  237   8.854   6.352   4.617
    8DG      C6  238   8.990   6.381   4.644
    8DG      O6  239   9.035   6.483   4.696
    8DG      N1  240   9.073   6.279   4.616
    8DG      H1  241   9.171   6.288   4.637
    8DG      C2  242   9.033   6.159   4.569
    8DG      N2  243   9.124   6.069   4.569
    8DG     H21  244   9.221   6.097   4.591
    8DG     H22  245   9.102   5.989   4.520
    8DG      N3  246   8.903   6.127   4.546
    8DG      C4  247   8.812   6.227   4.573
    8DG     C3'  248   8.420   5.983   4.629
    8DG     H3'  249   8.310   5.987   4.666
    8DG     C2'  250   8.487   6.108   4.674
    8DG    H2'1  251   8.409   6.186   4.658
    8DG    H2'2  252   8.530   6.108   4.773
    8DG     O3'  253   8.482   5.872   4.680
    9DC       P  254   8.398   5.744   4.702
    9DC     O1P  255   8.321   5.701   4.583
    9DC     O2P  256   8.336   5.757   4.836
    9DC     O5'  257   8.534   5.659   4.723
    9DC     C5'  258   8.621   5.628   4.616
    9DC    H5'1  259   8.610   5.701   4.538
    9DC    H5'2  260   8.602   5.533   4.567
    9DC     C4'  261   8.767   5.639   4.658
    9DC     H4'  262   8.825   5.588   4.577
    9DC     O4'  263   8.817   5.767   4.672
    9DC     C1'  264   8.875   5.772   4.803
    9DC     H1'  265   8.976   5.737   4.775
    9DC      N1  266   8.881   5.916   4.857
    9DC      C6  267   8.764   5.974   4.893
    9DC      H6  268   8.667   5.926   4.883
    9DC      C5  269   8.767   6.100   4.955
    9DC      H5  270   8.679   6.146   5.000
    9DC      C4  271   8.891   6.162   4.972
    9DC      N4  272   8.901   6.280   5.023
    9DC     H41  273   8.993   6.309   5.023
    9DC     H42  274   8.824   6.333   5.057
    9DC      N3  275   9.006   6.101   4.941
    9DC      C2  276   9.000   5.979   4.884
    9DC      O2  277   9.108   5.927   4.858
    9DC     C3'  278   8.789   5.554   4.791
    9DC     H3'  279   8.694   5.497   4.810
    9DC     C2'  280   8.809   5.669   4.890
    9DC    H2'1  281   8.712   5.700   4.917
    9DC    H2'2  282   8.874   5.646   4.972
    9DC     O3'  283   8.900   5.472   4.793
   10DG       P  284   8.927   5.365   4.914
   10DG     O1P  285   8.947   5.241   4.839
   10DG     O2P  286   8.814   5.361   5.016
   10DG     O5'  287   9.064   5.401   4.989
   10DG     C5'  288   9.179   5.365   4.918
   10DG    H5'1  289   9.193   5.256   4.918
   10DG    H5'2  290   9.162   5.407   4.817
   10DG     C4'  291   9.295   5.439   4.984
   10DG     H4'  292   9.380   5.441   4.917
   10DG     O4'  293   9.260   5.575   5.013
   10DG     C1'  294   9.283   5.607   5.151
   10DG     H1'  295   9.373   5.673   5.156
   10DG      N9  296   9.171   5.697   5.193
   10DG      C8  297   9.032   5.673   5.182
   10DG      H8  298   8.990   5.584   5.140
   10DG      N7  299   8.963   5.779   5.216
   10DG      C5  300   9.057   5.873   5.260
   10DG      C6  301   9.041   6.012   5.296
   10DG      O6  302   8.942   6.078   5.316
   10DG      N1  303   9.167   6.076   5.304
   10DG      H1  304   9.170   6.172   5.337
   10DG      C2  305   9.287   6.014   5.290
   10DG      N2  306   9.387   6.095   5.255
   10DG     H21  307   9.389   6.196   5.267
   10DG     H22  308   9.477   6.052   5.237
   10DG      N3  309   9.302   5.886   5.257
   10DG      C4  310   9.182   5.820   5.240
   10DG     C3'  311   9.337   5.370   5.111
   10DG     H3'  312   9.296   5.275   5.118
   10DG     C2'  313   9.281   5.473   5.218
   10DG    H2'1  314   9.172   5.447   5.236
   10DG    H2'2  315   9.314   5.469   5.321
   10DG     O3'  316   9.477   5.379   5.130
   11DT       P  317   9.561   5.269   5.223
   11DT     O1P  318   9.662   5.215   5.129
   11DT     O2P  319   9.475   5.174   5.289
   11DT     O5'  320   9.633   5.362   5.329
   11DT     C5'  321   9.721   5.459   5.285
   11DT    H5'1  322   9.682   5.501   5.194
   11DT    H5'2  323   9.820   5.414   5.260
   11DT     C4'  324   9.721   5.580   5.382
   11DT     H4'  325   9.795   5.650   5.346
   11DT     O4'  326   9.605   5.651   5.391
   11DT     C1'  327   9.603   5.726   5.512
   11DT     H1'  328   9.665   5.816   5.500
   11DT      N1  329   9.466   5.764   5.554
   11DT      C6  330   9.374   5.661   5.565
   11DT      H6  331   9.419   5.560   5.569
   11DT      C5  332   9.243   5.686   5.568
   11DT      C7  333   9.152   5.570   5.569
   11DT     H71  334   9.086   5.558   5.484
   11DT     H72  335   9.199   5.478   5.581
   11DT     H73  336   9.101   5.576   5.664
   11DT      C4  337   9.196   5.823   5.574
   11DT      O4  338   9.078   5.857   5.582
   11DT      N3  339   9.294   5.920   5.571
   11DT      H3  340   9.264   6.012   5.575
   11DT      C2  341   9.432   5.898   5.552
   11DT      O2  342   9.512   5.993   5.550
   11DT     C3'  343   9.765   5.552   5.530
   11DT     H3'  344   9.753   5.453   5.563
   11DT     C2'  345   9.677   5.643   5.614
   11DT    H2'1  346   9.608   5.581   5.669
   11DT    H2'2  347   9.728   5.707   5.680
   11DT     O3'  348   9.897   5.593   5.546
   12DA       P  349   9.985   5.579   5.680
   12DA     O1P  350  10.124   5.599   5.649
   12DA     O2P  351   9.951   5.449   5.743
   12DA     O5'  352   9.933   5.697   5.770
   12DA     C5'  353   9.965   5.832   5.747
   12DA    H5'1  354   9.953   5.854   5.642
   12DA    H5'2  355  10.070   5.844   5.766
   12DA     C4'  356   9.891   5.936   5.836
   12DA     H4'  357   9.944   6.040   5.823
   12DA     O4'  358   9.749   5.945   5.804
   12DA     C1'  359   9.686   5.971   5.933
   12DA     H1'  360   9.706   6.066   5.958
   12DA      N9  361   9.538   5.939   5.932
   12DA      C8  362   9.477   5.818   5.906
   12DA      H8  363   9.529   5.725   5.882
   12DA      N7  364   9.348   5.815   5.913
   12DA      C5  365   9.319   5.950   5.934
   12DA      C6  366   9.199   6.021   5.943
   12DA      N6  367   9.082   5.973   5.928
   12DA     H61  368   9.002   6.032   5.947
   12DA     H62  369   9.067   5.871   5.918
   12DA      N1  370   9.194   6.148   5.970
   12DA      C2  371   9.309   6.206   5.980
   12DA      H2  372   9.314   6.314   6.006
   12DA      N3  373   9.433   6.158   5.955
   12DA      C4  374   9.434   6.022   5.943
   12DA     C3'  375   9.901   5.901   5.981
   12DA     H3'  376   9.963   5.812   6.001
   12DA     C2'  377   9.764   5.873   6.026
   12DA    H2'1  378   9.747   5.767   6.013
   12DA    H2'2  379   9.746   5.890   6.129
   12DA     O3'  380   9.969   6.014   6.045
   13DT       P  381  10.016   6.016   6.193
   13DT     O1P  382  10.160   6.050   6.194
   13DT     O2P  383   9.973   5.893   6.255
   13DT     O5'  384   9.935   6.134   6.255
   13DT     C5'  385   9.936   6.265   6.209
   13DT    H5'1  386   9.918   6.264   6.104
   13DT    H5'2  387  10.024   6.318   6.235
   13DT     C4'  388   9.820   6.354   6.270
   13DT     H4'  389   9.839   6.457   6.239
   13DT     O4'  390   9.693   6.312   6.225
   13DT     C1'  391   9.602   6.313   6.323
   13DT     H1'  392   9.551   6.413   6.315
   13DT      N1  393   9.506   6.196   6.304
   13DT      C6  394   9.554   6.063   6.293
   13DT      H6  395   9.664   6.051   6.286
   13DT      C5  396   9.464   5.962   6.291
   13DT      C7  397   9.517   5.823   6.288
   13DT     H71  398   9.478   5.772   6.380
   13DT     H72  399   9.473   5.757   6.217
   13DT     H73  400   9.625   5.817   6.293
   13DT      C4  401   9.318   5.989   6.296
   13DT      O4  402   9.227   5.909   6.290
   13DT      N3  403   9.281   6.124   6.295
   13DT      H3  404   9.186   6.141   6.316
   13DT      C2  405   9.372   6.228   6.309
   13DT      O2  406   9.327   6.345   6.321
   13DT     C3'  407   9.822   6.361   6.428
   13DT     H3'  408   9.893   6.299   6.478
   13DT     C2'  409   9.687   6.307   6.452
   13DT    H2'1  410   9.697   6.199   6.470
   13DT    H2'2  411   9.637   6.363   6.533
   13DT     O3'  412   9.827   6.499   6.453
   14DT       P  413   9.846   6.548   6.599
   14DT     O1P  414   9.916   6.682   6.585
   14DT     O2P  415   9.914   6.446   6.680
   14DT     O5'  416   9.696   6.569   6.652
   14DT     C5'  417   9.609   6.665   6.599
   14DT    H5'1  418   9.619   6.658   6.484
   14DT    H5'2  419   9.650   6.759   6.635
   14DT     C4'  420   9.463   6.652   6.648
   14DT     H4'  421   9.409   6.736   6.605
   14DT     O4'  422   9.418   6.526   6.595
   14DT     C1'  423   9.339   6.466   6.691
   14DT     H1'  424   9.246   6.520   6.689
   14DT      N1  425   9.307   6.322   6.667
   14DT      C6  426   9.405   6.229   6.683
   14DT      H6  427   9.504   6.255   6.716
   14DT      C5  428   9.383   6.100   6.650
   14DT      C7  429   9.493   6.001   6.688
   14DT     H71  430   9.580   6.055   6.724
   14DT     H72  431   9.445   5.959   6.772
   14DT     H73  432   9.507   5.933   6.609
   14DT      C4  433   9.251   6.052   6.613
   14DT      O4  434   9.222   5.933   6.592
   14DT      N3  435   9.156   6.154   6.614
   14DT      H3  436   9.059   6.112   6.595
   14DT      C2  437   9.178   6.288   6.633
   14DT      O2  438   9.083   6.366   6.611
   14DT     C3'  439   9.451   6.644   6.801
   14DT     H3'  440   9.542   6.669   6.861
   14DT     C2'  441   9.411   6.494   6.819
   14DT    H2'1  442   9.504   6.443   6.830
   14DT    H2'2  443   9.355   6.478   6.905
   14DT     O3'  444   9.343   6.724   6.828
   15DA       P  445   9.287   6.749   6.973
   15DA     O1P  446   9.223   6.883   6.970
   15DA     O2P  447   9.390   6.706   7.070
   15DA     O5'  448   9.175   6.643   6.983
   15DA     C5'  449   9.058   6.637   6.900
   15DA    H5'1  450   9.093   6.611   6.797
   15DA    H5'2  451   8.996   6.732   6.916
   15DA     C4'  452   8.958   6.529   6.955
   15DA     H4'  453   8.856   6.557   6.925
   15DA     O4'  454   8.998   6.402   6.910
   15DA     C1'  455   9.004   6.320   7.022
   15DA     H1'  456   8.903   6.291   7.037
   15DA      N9  457   9.091   6.201   7.000
   15DA      C8  458   9.233   6.188   7.015
   15DA      H8  459   9.285   6.284   7.030
   15DA      N7  460   9.275   6.066   6.989
   15DA      C5  461   9.157   6.000   6.955
   15DA      C6  462   9.125   5.864   6.925
   15DA      N6  463   9.206   5.764   6.919
   15DA     H61  464   9.167   5.675   6.887
   15DA     H62  465   9.304   5.775   6.943
   15DA      N1  466   9.002   5.826   6.897
   15DA      C2  467   8.904   5.918   6.902
   15DA      H2  468   8.808   5.887   6.869
   15DA      N3  469   8.915   6.045   6.941
   15DA      C4  470   9.043   6.076   6.968
   15DA     C3'  471   8.960   6.528   7.106
   15DA     H3'  472   9.003   6.617   7.157
   15DA     C2'  473   9.039   6.407   7.141
   15DA    H2'1  474   9.149   6.423   7.134
   15DA    H2'2  475   9.013   6.369   7.239
   15DA     O3'  476   8.832   6.517   7.167
   16DT       P  477   8.749   6.638   7.227
   16DT     O1P  478   8.709   6.722   7.112
   16DT     O2P  479   8.809   6.708   7.340
   16DT     O5'  480   8.607   6.575   7.270
   16DT     C5'  481   8.602   6.493   7.385
   16DT    H5'1  482   8.515   6.518   7.449
   16DT    H5'2  483   8.692   6.499   7.436
   16DT     C4'  484   8.577   6.351   7.350
   16DT     H4'  485   8.493   6.340   7.277
   16DT     O4'  486   8.702   6.287   7.307
   16DT     C1'  487   8.691   6.152   7.342
   16DT     H1'  488   8.615   6.115   7.266
   16DT      N1  489   8.813   6.078   7.333
   16DT      C6  490   8.931   6.140   7.367
   16DT      H6  491   8.936   6.239   7.413
   16DT      C5  492   9.051   6.068   7.340
   16DT      C7  493   9.184   6.137   7.379
   16DT     H71  494   9.220   6.067   7.457
   16DT     H72  495   9.259   6.132   7.294
   16DT     H73  496   9.171   6.243   7.405
   16DT      C4  497   9.054   5.935   7.285
   16DT      O4  498   9.153   5.873   7.249
   16DT      N3  499   8.929   5.887   7.253
   16DT      H3  500   8.928   5.791   7.212
   16DT      C2  501   8.808   5.949   7.281
   16DT      O2  502   8.696   5.894   7.253
   16DT     C3'  503   8.536   6.267   7.478
   16DT     H3'  504   8.567   6.330   7.567
   16DT     C2'  505   8.619   6.142   7.480
   16DT    H2'1  506   8.693   6.132   7.560
   16DT    H2'2  507   8.555   6.057   7.481
   16DT     O3'  508   8.398   6.235   7.466
   17DA       P  509   8.299   6.214   7.596
   17DA     O1P  510   8.163   6.218   7.544
   17DA     O2P  511   8.338   6.303   7.707
   17DA     O5'  512   8.324   6.068   7.658
   17DA     C5'  513   8.314   5.950   7.579
   17DA    H5'1  514   8.341   5.979   7.479
   17DA    H5'2  515   8.208   5.926   7.566
   17DA     C4'  516   8.389   5.827   7.626
   17DA     H4'  517   8.329   5.740   7.602
   17DA     O4'  518   8.509   5.811   7.555
   17DA     C1'  519   8.591   5.764   7.655
   17DA     H1'  520   8.562   5.661   7.671
   17DA      N9  521   8.731   5.773   7.612
   17DA      C8  522   8.822   5.870   7.623
   17DA      H8  523   8.796   5.970   7.661
   17DA      N7  524   8.947   5.839   7.588
   17DA      C5  525   8.935   5.705   7.551
   17DA      C6  526   9.013   5.599   7.495
   17DA      N6  527   9.132   5.624   7.440
   17DA     H61  528   9.194   5.543   7.421
   17DA     H62  529   9.175   5.719   7.446
   17DA      N1  530   8.969   5.476   7.479
   17DA      C2  531   8.846   5.449   7.516
   17DA      H2  532   8.810   5.346   7.511
   17DA      N3  533   8.751   5.536   7.551
   17DA      C4  534   8.803   5.662   7.563
   17DA     C3'  535   8.407   5.810   7.781
   17DA     H3'  536   8.352   5.886   7.838
   17DA     C2'  537   8.557   5.834   7.784
   17DA    H2'1  538   8.580   5.938   7.780
   17DA    H2'2  539   8.592   5.781   7.873
   17DA     O3'  540   8.375   5.680   7.824
   18DC       P  541   8.263   5.643   7.939
   18DC     O1P  542   8.126   5.696   7.906
   18DC     O2P  543   8.329   5.670   8.070
   18DC     O5'  544   8.264   5.478   7.933
   18DC     C5'  545   8.222   5.422   7.810
   18DC    H5'1  546   8.257   5.491   7.731
   18DC    H5'2  547   8.111   5.422   7.818
   18DC     C4'  548   8.286   5.287   7.781
   18DC     H4'  549   8.236   5.235   7.706
   18DC     O4'  550   8.424   5.314   7.748
   18DC     C1'  551   8.514   5.254   7.838
   18DC     H1'  552   8.543   5.156   7.789
   18DC      N1  553   8.629   5.345   7.857
   18DC      C6  554   8.618   5.463   7.929
   18DC      H6  555   8.524   5.499   7.969
   18DC      C5  556   8.731   5.531   7.960
   18DC      H5  557   8.736   5.622   8.022
   18DC      C4  558   8.853   5.477   7.906
   18DC      N4  559   8.970   5.534   7.927
   18DC     H41  560   9.048   5.494   7.879
   18DC     H42  561   8.983   5.608   7.994
   18DC      N3  562   8.861   5.369   7.837
   18DC      C2  563   8.755   5.301   7.805
   18DC      O2  564   8.762   5.199   7.735
   18DC     C3'  565   8.304   5.191   7.903
   18DC     H3'  566   8.225   5.204   7.973
   18DC     C2'  567   8.437   5.225   7.970
   18DC    H2'1  568   8.439   5.323   8.024
   18DC    H2'2  569   8.485   5.150   8.031
   18DC     O3'  570   8.281   5.054   7.866
   19DA       P  571   8.338   4.927   7.944
   19DA     O1P  572   8.278   4.810   7.882
   19DA     O2P  573   8.315   4.945   8.089
   19DA     O5'  574   8.499   4.933   7.916
   19DA     C5'  575   8.562   4.863   7.809
   19DA    H5'1  576   8.594   4.929   7.727
   19DA    H5'2  577   8.498   4.790   7.762
   19DA     C4'  578   8.675   4.766   7.853
   19DA     H4'  579   8.683   4.687   7.777
   19DA     O4'  580   8.794   4.849   7.871
   19DA     C1'  581   8.834   4.847   8.004
   19DA     H1'  582   8.928   4.800   8.009
   19DA      N9  583   8.858   4.992   8.039
   19DA      C8  584   8.767   5.080   8.095
   19DA      H8  585   8.667   5.065   8.113
   19DA      N7  586   8.828   5.196   8.124
   19DA      C5  587   8.965   5.175   8.094
   19DA      C6  588   9.084   5.252   8.110
   19DA      N6  589   9.100   5.375   8.156
   19DA     H61  590   9.188   5.422   8.150
   19DA     H62  591   9.014   5.408   8.185
   19DA      N1  592   9.205   5.209   8.076
   19DA      C2  593   9.213   5.081   8.036
   19DA      H2  594   9.307   5.049   8.008
   19DA      N3  595   9.112   4.991   8.018
   19DA      C4  596   8.988   5.050   8.045
   19DA     C3'  597   8.654   4.688   7.986
   19DA     H3'  598   8.545   4.684   8.005
   19DA     C2'  599   8.721   4.787   8.086
   19DA    H2'1  600   8.637   4.856   8.107
   19DA    H2'2  601   8.758   4.753   8.183
   19DA     O3'  602   8.710   4.556   7.969
   20DD       P  603   8.753   4.472   8.092
   20DD     O1P  604   8.789   4.332   8.060
   20DD     O2P  605   8.651   4.496   8.200
   20DD     O5'  606   8.896   4.535   8.132
   20DD     C5'  607   9.008   4.522   8.043
   20DD    H5'1  608   8.995   4.610   7.983
   20DD    H5'2  609   9.010   4.435   7.971
   20DD     C4'  610   9.137   4.517   8.123
   20DD     H4'  611   9.202   4.467   8.065
   20DD     O4'  612   9.170   4.658   8.156
   20DD     C1'  613   9.219   4.653   8.288
   20DD     H1'  614   9.324   4.612   8.284
   20DD      N1  615   9.230   4.785   8.358
   20DD      C6  616   9.179   4.808   8.494
   20DD      H6  617   9.093   4.736   8.514
   20DD      C5  618   9.118   4.942   8.515
   20DD      C7  619   8.966   4.949   8.482
   20DD     H71  620   8.954   4.923   8.374
   20DD     H72  621   8.903   4.873   8.542
   20DD     H73  622   8.928   5.049   8.507
   20DD      C4  623   9.180   5.051   8.429
   20DD      O4  624   9.149   5.169   8.449
   20DD      N3  625   9.274   5.015   8.336
   20DD      H3  626   9.349   5.083   8.316
   20DD      C2  627   9.311   4.885   8.317
   20DD      O2  628   9.425   4.868   8.272
   20DD     C3'  629   9.127   4.435   8.258
   20DD     H3'  630   9.034   4.382   8.257
   20DD     C2'  631   9.124   4.554   8.358
   20DD    H2'1  632   9.017   4.601   8.347
   20DD    H2'2  633   9.162   4.528   8.454
   20DD     O3'  634   9.244   4.350   8.263
   21DD       P  635   9.276   4.257   8.389
   21DD     O1P  636   9.352   4.145   8.338
   21DD     O2P  637   9.153   4.232   8.466
   21DD     O5'  638   9.380   4.349   8.480
   21DD     C5'  639   9.497   4.408   8.423
   21DD    H5'1  640   9.475   4.418   8.318
   21DD    H5'2  641   9.572   4.332   8.427
   21DD     C4'  642   9.553   4.539   8.488
   21DD     H4'  643   9.630   4.581   8.420
   21DD     O4'  644   9.449   4.629   8.502
   21DD     C1'  645   9.501   4.738   8.567
   21DD     H1'  646   9.571   4.786   8.507
   21DD      N1  647   9.406   4.847   8.599
   21DD      C6  648   9.269   4.806   8.621
   21DD      H6  649   9.259   4.713   8.679
   21DD      C5  650   9.178   4.929   8.668
   21DD      C7  651   9.060   4.890   8.768
   21DD     H71  652   8.986   4.966   8.775
   21DD     H72  653   9.011   4.790   8.738
   21DD     H73  654   9.100   4.868   8.871
   21DD      C4  655   9.256   5.057   8.714
   21DD      O4  656   9.194   5.146   8.776
   21DD      N3  657   9.382   5.070   8.675
   21DD      H3  658   9.429   5.153   8.699
   21DD      C2  659   9.459   4.970   8.635
   21DD      O2  660   9.579   4.989   8.634
   21DD     C3'  661   9.613   4.530   8.631
   21DD     H3'  662   9.555   4.450   8.683
   21DD     C2'  663   9.569   4.663   8.686
   21DD    H2'1  664   9.483   4.657   8.762
   21DD    H2'2  665   9.654   4.722   8.724
   21DD     O3'  666   9.755   4.509   8.641
   22DG       P  667   9.827   4.462   8.779
   22DG     O1P  668   9.902   4.339   8.753
   22DG     O2P  669   9.728   4.454   8.887
   22DG     O5'  670   9.925   4.579   8.811
   22DG     C5'  671  10.006   4.650   8.721
   22DG    H5'1  672   9.942   4.695   8.648
   22DG    H5'2  673  10.074   4.587   8.669
   22DG     C4'  674  10.103   4.755   8.772
   22DG     H4'  675  10.166   4.789   8.692
   22DG     O4'  676  10.021   4.863   8.814
   22DG     C1'  677  10.009   4.872   8.956
   22DG     H1'  678  10.054   4.965   8.987
   22DG      N9  679   9.864   4.870   8.996
   22DG      C8  680   9.779   4.762   9.011
   22DG      H8  681   9.803   4.659   9.022
   22DG      N7  682   9.656   4.799   9.019
   22DG      C5  683   9.655   4.941   9.013
   22DG      C6  684   9.556   5.043   9.031
   22DG      O6  685   9.439   5.027   9.062
   22DG      N1  686   9.602   5.173   9.032
   22DG      H1  687   9.530   5.248   9.037
   22DG      C2  688   9.739   5.203   9.026
   22DG      N2  689   9.786   5.323   9.027
   22DG     H21  690   9.722   5.401   9.039
   22DG     H22  691   9.885   5.329   9.032
   22DG      N3  692   9.834   5.105   9.022
   22DG      C4  693   9.785   4.979   9.013
   22DG     C3'  694  10.192   4.729   8.893
   22DG     H3'  695  10.227   4.626   8.903
   22DG     C2'  696  10.096   4.755   9.005
   22DG    H2'1  697  10.045   4.665   9.025
   22DG    H2'2  698  10.135   4.800   9.099
   22DG     O3'  699  10.303   4.821   8.877
   23DT       P  700  10.427   4.828   8.976
   23DT     O1P  701  10.547   4.851   8.892
   23DT     O2P  702  10.419   4.715   9.070
   23DT     O5'  703  10.403   4.964   9.062
   23DT     C5'  704  10.428   4.970   9.202
   23DT    H5'1  705  10.524   5.012   9.213
   23DT    H5'2  706  10.432   4.871   9.249
   23DT     C4'  707  10.327   5.065   9.266
   23DT     H4'  708  10.346   5.167   9.228
   23DT     O4'  709  10.194   5.027   9.238
   23DT     C1'  710  10.108   5.091   9.328
   23DT     H1'  711  10.107   5.197   9.306
   23DT      N1  712   9.963   5.051   9.323
   23DT      C6  713   9.928   4.917   9.327
   23DT      H6  714  10.008   4.842   9.322
   23DT      C5  715   9.800   4.881   9.351
   23DT      C7  716   9.771   4.741   9.386
   23DT     H71  717   9.863   4.689   9.379
   23DT     H72  718   9.726   4.727   9.487
   23DT     H73  719   9.695   4.709   9.316
   23DT      C4  720   9.693   4.985   9.364
   23DT      O4  721   9.570   4.967   9.384
   23DT      N3  722   9.736   5.116   9.346
   23DT      H3  723   9.665   5.192   9.351
   23DT      C2  724   9.868   5.153   9.344
   23DT      O2  725   9.898   5.270   9.362
   23DT     C3'  726  10.329   5.075   9.420
   23DT     H3'  727  10.401   5.003   9.459
   23DT     C2'  728  10.186   5.053   9.456
   23DT    H2'1  729  10.163   4.947   9.481
   23DT    H2'2  730  10.159   5.128   9.528
   23DT     O3'  731  10.379   5.203   9.458
   24DA       P  732  10.443   5.228   9.598
   24DA     O1P  733  10.589   5.222   9.580
   24DA     O2P  734  10.387   5.140   9.702
   24DA     O5'  735  10.397   5.372   9.647
   24DA     C5'  736  10.256   5.395   9.669
   24DA    H5'1  737  10.206   5.308   9.702
   24DA    H5'2  738  10.209   5.421   9.573
   24DA     C4'  739  10.217   5.515   9.757
   24DA     H4'  740  10.248   5.610   9.711
   24DA     O4'  741  10.081   5.503   9.776
   24DA     C1'  742  10.041   5.447   9.904
   24DA     H1'  743   9.983   5.530   9.958
   24DA      N9  744   9.955   5.327   9.879
   24DA      C8  745   9.989   5.192   9.883
   24DA      H8  746  10.090   5.154   9.879
   24DA      N7  747   9.884   5.112   9.883
   24DA      C5  748   9.768   5.206   9.879
   24DA      C6  749   9.632   5.197   9.858
   24DA      N6  750   9.558   5.084   9.854
   24DA     H61  751   9.465   5.097   9.837
   24DA     H62  752   9.590   4.993   9.855
   24DA      N1  753   9.557   5.306   9.853
   24DA      C2  754   9.617   5.421   9.862
   24DA      H2  755   9.558   5.508   9.852
   24DA      N3  756   9.745   5.449   9.875
   24DA      C4  757   9.818   5.332   9.877
   24DA     C3'  758  10.277   5.511   9.902
   24DA     H3'  759  10.376   5.468   9.901
   24DA     C2'  760  10.171   5.429   9.980
   24DA    H2'1  761  10.190   5.328   9.979
   24DA    H2'2  762  10.148   5.469  10.078
   24DA     O3'  763  10.279   5.650   9.931
   25DC       P  764  10.277   5.712  10.074
   25DC     O1P  765  10.318   5.850  10.051
   25DC     O2P  766  10.356   5.629  10.165
   25DC     O5'  767  10.129   5.719  10.133
   25DC     C5'  768  10.028   5.791  10.071
   25DC    H5'1  769  10.033   5.747   9.968
   25DC    H5'2  770  10.057   5.892  10.053
   25DC     C4'  771   9.887   5.785  10.123
   25DC     H4'  772   9.829   5.849  10.057
   25DC     O4'  773   9.836   5.654  10.094
   25DC     C1'  774   9.781   5.600  10.212
   25DC     H1'  775   9.676   5.647  10.214
   25DC      N1  776   9.763   5.452  10.210
   25DC      C6  777   9.868   5.361  10.224
   25DC      H6  778   9.970   5.402  10.239
   25DC      C5  779   9.849   5.230  10.227
   25DC      H5  780   9.940   5.166  10.238
   25DC      C4  781   9.711   5.184  10.221
   25DC      N4  782   9.679   5.058  10.231
   25DC     H41  783   9.585   5.033  10.230
   25DC     H42  784   9.749   4.989  10.221
   25DC      N3  785   9.605   5.269  10.219
   25DC      C2  786   9.631   5.401  10.210
   25DC      O2  787   9.536   5.476  10.201
   25DC     C3'  788   9.884   5.804  10.274
   25DC     H3'  789   9.973   5.853  10.318
   25DC     C2'  790   9.874   5.653  10.314
   25DC    H2'1  791   9.975   5.611  10.310
   25DC    H2'2  792   9.834   5.638  10.409
   25DC     O3'  793   9.761   5.865  10.309
   26DG       P  794   9.745   6.002  10.381
   26DG     O1P  795   9.690   6.098  10.284
   26DG     O2P  796   9.875   6.034  10.437
   26DG     O5'  797   9.642   5.971  10.491
   26DG     C5'  798   9.500   5.967  10.459
   26DG    H5'1  799   9.493   5.937  10.355
   26DG    H5'2  800   9.463   6.066  10.466
   26DG     C4'  801   9.407   5.877  10.540
   26DG     H4'  802   9.304   5.897  10.512
   26DG     O4'  803   9.431   5.745  10.516
   26DG     C1'  804   9.449   5.680  10.640
   26DG     H1'  805   9.357   5.637  10.683
   26DG      N9  806   9.532   5.566  10.612
   26DG      C8  807   9.672   5.565  10.599
   26DG      H8  808   9.737   5.657  10.598
   26DG      N7  809   9.717   5.449  10.565
   26DG      C5  810   9.593   5.369  10.561
   26DG      C6  811   9.564   5.227  10.547
   26DG      O6  812   9.640   5.139  10.518
   26DG      N1  813   9.430   5.196  10.555
   26DG      H1  814   9.401   5.102  10.546
   26DG      C2  815   9.330   5.287  10.564
   26DG      N2  816   9.208   5.244  10.568
   26DG     H21  817   9.196   5.145  10.559
   26DG     H22  818   9.126   5.302  10.596
   26DG      N3  819   9.349   5.416  10.584
   26DG      C4  820   9.481   5.446  10.579
   26DG     C3'  821   9.433   5.907  10.695
   26DG     H3'  822   9.502   5.989  10.705
   26DG     C2'  823   9.512   5.783  10.737
   26DG    H2'1  824   9.614   5.793  10.715
   26DG    H2'2  825   9.484   5.755  10.840
   26DG     O3'  826   9.311   5.939  10.759
   27DC       P  827   9.300   5.990  10.913
   27DC     O1P  828   9.199   6.093  10.918
   27DC     O2P  829   9.437   6.025  10.958
   27DC     O5'  830   9.253   5.850  10.994
   27DC     C5'  831   9.140   5.784  10.950
   27DC    H5'1  832   9.146   5.771  10.839
   27DC    H5'2  833   9.052   5.842  10.972
   27DC     C4'  834   9.126   5.646  11.016
   27DC     H4'  835   9.022   5.614  11.001
   27DC     O4'  836   9.213   5.550  10.953
   27DC     C1'  837   9.278   5.484  11.059
   27DC     H1'  838   9.198   5.406  11.093
   27DC      N1  839   9.393   5.406  11.010
   27DC      C6  840   9.521   5.460  11.032
   27DC      H6  841   9.536   5.539  11.096
   27DC      C5  842   9.627   5.409  10.965
   27DC      H5  843   9.725   5.453  10.974
   27DC      C4  844   9.606   5.286  10.898
   27DC      N4  845   9.703   5.227  10.841
   27DC     H41  846   9.679   5.144  10.785
   27DC     H42  847   9.787   5.277  10.822
   27DC      N3  848   9.489   5.225  10.882
   27DC      C2  849   9.380   5.281  10.944
   27DC      O2  850   9.269   5.231  10.935
   27DC     C3'  851   9.164   5.650  11.171
   27DC     H3'  852   9.179   5.747  11.213
   27DC     C2'  853   9.302   5.593  11.169
   27DC    H2'1  854   9.381   5.663  11.149
   27DC    H2'2  855   9.325   5.555  11.265
   27DC     O3'  856   9.085   5.571  11.256
   28DA       P  857   8.958   5.622  11.328
   28DA     O1P  858   8.885   5.719  11.238
   28DA     O2P  859   9.002   5.671  11.461
   28DA     O5'  860   8.867   5.494  11.344
   28DA     C5'  861   8.799   5.445  11.235
   28DA    H5'1  862   8.873   5.440  11.157
   28DA    H5'2  863   8.709   5.497  11.193
   28DA     C4'  864   8.763   5.293  11.258
   28DA     H4'  865   8.668   5.270  11.205
   28DA     O4'  866   8.864   5.203  11.209
   28DA     C1'  867   8.919   5.131  11.315
   28DA     H1'  868   8.879   5.028  11.310
   28DA      N9  869   9.061   5.141  11.286
   28DA      C8  870   9.139   5.247  11.306
   28DA      H8  871   9.097   5.338  11.340
   28DA      N7  872   9.267   5.232  11.278
   28DA      C5  873   9.268   5.103  11.229
   28DA      C6  874   9.369   5.012  11.174
   28DA      N6  875   9.500   5.033  11.166
   28DA     H61  876   9.568   4.959  11.143
   28DA     H62  877   9.533   5.124  11.205
   28DA      N1  878   9.338   4.887  11.141
   28DA      C2  879   9.217   4.844  11.158
   28DA      H2  880   9.206   4.745  11.130
   28DA      N3  881   9.118   4.912  11.206
   28DA      C4  882   9.146   5.040  11.243
   28DA     C3'  883   8.727   5.253  11.402
   28DA     H3'  884   8.699   5.334  11.456
   28DA     C2'  885   8.868   5.192  11.449
   28DA    H2'1  886   8.926   5.275  11.481
   28DA    H2'2  887   8.863   5.126  11.539
   28DA     O3'  888   8.617   5.153  11.409
   29DT       P  889   8.578   5.069  11.539
   29DT     O1P  890   8.437   5.048  11.551
   29DT     O2P  891   8.650   5.125  11.654
   29DT     O5'  892   8.652   4.933  11.522
   29DT     C5'  893   8.629   4.848  11.413
   29DT    H5'1  894   8.647   4.887  11.309
   29DT    H5'2  895   8.524   4.813  11.426
   29DT     C4'  896   8.710   4.716  11.418
   29DT     H4'  897   8.680   4.652  11.340
   29DT     O4'  898   8.847   4.755  11.397
   29DT     C1'  899   8.923   4.692  11.494
   29DT     H1'  900   8.935   4.590  11.450
   29DT      N1  901   9.052   4.763  11.506
   29DT      C6  902   9.059   4.887  11.561
   29DT      H6  903   8.965   4.927  11.605
   29DT      C5  904   9.181   4.955  11.564
   29DT      C7  905   9.177   5.081  11.643
   29DT     H71  906   9.238   5.159  11.596
   29DT     H72  907   9.076   5.123  11.650
   29DT     H73  908   9.217   5.050  11.739
   29DT      C4  909   9.300   4.897  11.506
   29DT      O4  910   9.412   4.939  11.501
   29DT      N3  911   9.282   4.770  11.456
   29DT      H3  912   9.366   4.713  11.434
   29DT      C2  913   9.168   4.701  11.459
   29DT      O2  914   9.175   4.589  11.406
   29DT     C3'  915   8.701   4.647  11.556
   29DT     H3'  916   8.615   4.679  11.611
   29DT     C2'  917   8.840   4.679  11.617
   29DT    H2'1  918   8.843   4.768  11.674
   29DT    H2'2  919   8.887   4.599  11.669
   29DT     O3'  920   8.692   4.505  11.527
   30DA       P  921   8.665   4.406  11.641
   30DA     O1P  922   8.585   4.291  11.588
   30DA     O2P  923   8.621   4.475  11.766
   30DA     O5'  924   8.813   4.347  11.668
   30DA     C5'  925   8.886   4.277  11.567
   30DA    H5'1  926   8.899   4.337  11.477
   30DA    H5'2  927   8.831   4.183  11.555
   30DA     C4'  928   9.023   4.231  11.622
   30DA     H4'  929   9.057   4.159  11.556
   30DA     O4'  930   9.108   4.348  11.610
   30DA     C1'  931   9.202   4.335  11.716
   30DA     H1'  932   9.276   4.265  11.684
   30DA      N9  933   9.267   4.465  11.728
   30DA      C8  934   9.208   4.586  11.749
   30DA      H8  935   9.109   4.600  11.765
   30DA      N7  936   9.285   4.688  11.768
   30DA      C5  937   9.415   4.626  11.757
   30DA      C6  938   9.553   4.669  11.758
   30DA      N6  939   9.595   4.797  11.763
   30DA     H61  940   9.688   4.830  11.737
   30DA     H62  941   9.521   4.868  11.776
   30DA      N1  942   9.655   4.586  11.771
   30DA      C2  943   9.629   4.460  11.748
   30DA      H2  944   9.720   4.399  11.758
   30DA      N3  945   9.510   4.400  11.723
   30DA      C4  946   9.405   4.493  11.729
   30DA     C3'  947   9.035   4.174  11.756
   30DA     H3'  948   8.938   4.181  11.810
   30DA     C2'  949   9.121   4.283  11.831
   30DA    H2'1  950   9.059   4.359  11.875
   30DA    H2'2  951   9.178   4.236  11.908
   30DA     O3'  952   9.083   4.043  11.758
   31DT       P  953   9.078   3.956  11.894
   31DT     O1P  954   9.036   3.812  11.859
   31DT     O2P  955   9.012   4.027  12.004
   31DT     O5'  956   9.232   3.938  11.947
   31DT     C5'  957   9.332   3.862  11.881
   31DT    H5'1  958   9.332   3.881  11.772
   31DT    H5'2  959   9.318   3.757  11.902
   31DT     C4'  960   9.473   3.901  11.930
   31DT     H4'  961   9.544   3.833  11.874
   31DT     O4'  962   9.501   4.042  11.908
   31DT     C1'  963   9.576   4.098  12.018
   31DT     H1'  964   9.682   4.070  12.013
   31DT      N1  965   9.556   4.244  12.023
   31DT      C6  966   9.430   4.297  12.054
   31DT      H6  967   9.354   4.225  12.049
   31DT      C5  968   9.408   4.425  12.081
   31DT      C7  969   9.268   4.488  12.106
   31DT     H71  970   9.184   4.423  12.081
   31DT     H72  971   9.270   4.516  12.206
   31DT     H73  972   9.249   4.580  12.045
   31DT      C4  973   9.518   4.520  12.082
   31DT      O4  974   9.506   4.638  12.114
   31DT      N3  975   9.633   4.460  12.049
   31DT      H3  976   9.716   4.520  12.054
   31DT      C2  977   9.667   4.328  12.025
   31DT      O2  978   9.783   4.291  12.000
   31DT     C3'  979   9.495   3.872  12.078
   31DT     H3'  980   9.414   3.825  12.123
   31DT     C2'  981   9.507   4.020  12.127
   31DT    H2'1  982   9.403   4.058  12.131
   31DT    H2'2  983   9.560   4.025  12.222
   31DT     O3'  984   9.612   3.792  12.091
   32DG       P  985   9.699   3.784  12.226
   32DG     O1P  986   9.752   3.651  12.226
   32DG     O2P  987   9.621   3.829  12.344
   32DG     O5'  988   9.808   3.891  12.192
   32DG     C5'  989   9.901   3.874  12.085
   32DG    H5'1  990   9.845   3.889  11.996
   32DG    H5'2  991   9.944   3.775  12.084
   32DG     C4'  992  10.011   3.979  12.095
   32DG     H4'  993  10.055   3.976  11.999
   32DG     O4'  994   9.959   4.110  12.121
   32DG     C1'  995  10.009   4.146  12.256
   32DG     H1'  996  10.096   4.212  12.249
   32DG      N9  997   9.894   4.224  12.320
   32DG      C8  998   9.756   4.193  12.320
   32DG      H8  999   9.722   4.088  12.305
   32DG      N7 1000   9.680   4.296  12.342
   32DG      C5 1001   9.771   4.402  12.367
   32DG      C6 1002   9.754   4.539  12.393
   32DG      O6 1003   9.648   4.597  12.405
   32DG      N1 1004   9.868   4.605  12.416
   32DG      H1 1005   9.872   4.708  12.440
   32DG      C2 1006   9.994   4.554  12.399
   32DG      N2 1007  10.096   4.628  12.426
   32DG     H21 1008  10.069   4.722  12.440
   32DG     H22 1009  10.189   4.606  12.400
   32DG      N3 1010  10.015   4.426  12.361
   32DG      C4 1011   9.903   4.356  12.353
   32DG     C3' 1012  10.104   3.938  12.203
   32DG     H3' 1013  10.091   3.835  12.227
   32DG     C2' 1014  10.056   4.018  12.322
   32DG    H2'1 1015   9.986   3.962  12.377
   32DG    H2'2 1016  10.132   4.037  12.390
   32DG     O3' 1017  10.238   3.959  12.158
   33DC3      P 1018  10.358   3.903  12.248
   33DC3    O1P 1019  10.474   3.908  12.157
   33DC3    O2P 1020  10.335   3.765  12.300
   33DC3    O5' 1021  10.375   4.018  12.361
   33DC3    C5' 1022  10.432   4.144  12.332
   33DC3   H5'1 1023  10.381   4.181  12.241
   33DC3   H5'2 1024  10.538   4.134  12.305
   33DC3    C4' 1025  10.414   4.236  12.453
   33DC3    H4' 1026  10.465   4.327  12.424
   33DC3    O4' 1027  10.282   4.261  12.476
   33DC3    C1' 1028  10.276   4.309  12.609
   33DC3    H1' 1029  10.322   4.408  12.612
   33DC3     N1 1030  10.145   4.314  12.669
   33DC3     C6 1031  10.070   4.204  12.683
   33DC3     H6 1032  10.115   4.106  12.673
   33DC3     C5 1033   9.937   4.205  12.703
   33DC3     H5 1034   9.890   4.106  12.704
   33DC3     C4 1035   9.879   4.339  12.730
   33DC3     N4 1036   9.750   4.357  12.744
   33DC3    H41 1037   9.715   4.448  12.754
   33DC3    H42 1038   9.696   4.277  12.753
   33DC3     N3 1039   9.955   4.446  12.747
   33DC3     C2 1040  10.092   4.434  12.724
   33DC3     O2 1041  10.154   4.530  12.757
   33DC3    C3' 1042  10.485   4.186  12.589
   33DC3    H3' 1043  10.485   4.080  12.586
   33DC3    C2' 1044  10.376   4.224  12.689
   33DC3   H2'1 1045  10.332   4.136  12.738
   33DC3   H2'2 1046  10.425   4.285  12.759
   33DC3    O3' 1047  10.607   4.234  12.638
   33DC3    H3T 1048  10.631   4.184  12.720
   34DG5    H5T 1049   9.911   5.466  13.005
   34DG5    O5' 1050   9.816   5.458  13.001
   34DG5    C5' 1051   9.775   5.495  12.873
   34DG5   H5'1 1052   9.789   5.600  12.874
   34DG5   H5'2 1053   9.671   5.488  12.855
   34DG5    C4' 1054   9.847   5.418  12.757
   34DG5    H4' 1055   9.955   5.435  12.752
   34DG5    O4' 1056   9.843   5.280  12.776
   34DG5    C1' 1057   9.787   5.220  12.661
   34DG5    H1' 1058   9.876   5.203  12.602
   34DG5     N9 1059   9.722   5.089  12.688
   34DG5     C8 1060   9.585   5.062  12.701
   34DG5     H8 1061   9.503   5.132  12.715
   34DG5     N7 1062   9.570   4.935  12.722
   34DG5     C5 1063   9.699   4.878  12.720
   34DG5     C6 1064   9.741   4.735  12.717
   34DG5     O6 1065   9.673   4.636  12.740
   34DG5     N1 1066   9.880   4.717  12.691
   34DG5     H1 1067   9.922   4.629  12.721
   34DG5     C2 1068   9.963   4.821  12.687
   34DG5     N2 1069  10.092   4.797  12.672
   34DG5    H21 1070  10.132   4.706  12.674
   34DG5    H22 1071  10.158   4.875  12.663
   34DG5     N3 1072   9.926   4.950  12.688
   34DG5     C4 1073   9.790   4.973  12.693
   34DG5    C3' 1074   9.785   5.444  12.620
   34DG5    H3' 1075   9.715   5.524  12.629
   34DG5    C2' 1076   9.698   5.321  12.593
   34DG5   H2'1 1077   9.607   5.325  12.651
   34DG5   H2'2 1078   9.690   5.310  12.490
   34DG5    O3' 1079   9.881   5.457  12.519
   35DC       P 1080   9.966   5.588  12.494
   35DC     O1P 1081  10.006   5.653  12.622
   35DC     O2P 1082   9.895   5.666  12.396
   35DC     O5' 1083  10.096   5.524  12.424
   35DC     C5' 1084  10.195   5.457  12.500
   35DC    H5'1 1085  10.152   5.433  12.600
   35DC    H5'2 1086  10.283   5.517  12.524
   35DC     C4' 1087  10.242   5.328  12.432
   35DC     H4' 1088  10.338   5.294  12.486
   35DC     O4' 1089  10.138   5.227  12.441
   35DC     C1' 1090  10.119   5.169  12.324
   35DC     H1' 1091  10.194   5.093  12.301
   35DC      N1 1092   9.988   5.100  12.331
   35DC      C6 1093   9.867   5.161  12.310
   35DC      H6 1094   9.865   5.269  12.292
   35DC      C5 1095   9.753   5.097  12.330
   35DC      H5 1096   9.653   5.150  12.317
   35DC      C4 1097   9.759   4.958  12.365
   35DC      N4 1098   9.647   4.889  12.384
   35DC     H41 1099   9.656   4.783  12.398
   35DC     H42 1100   9.557   4.933  12.365
   35DC      N3 1101   9.870   4.892  12.377
   35DC      C2 1102   9.984   4.959  12.356
   35DC      O2 1103  10.080   4.888  12.364
   35DC     C3' 1104  10.268   5.338  12.283
   35DC     H3' 1105  10.285   5.438  12.251
   35DC     C2' 1106  10.141   5.278  12.224
   35DC    H2'1 1107  10.059   5.352  12.228
   35DC    H2'2 1108  10.161   5.242  12.125
   35DC     O3' 1109  10.387   5.264  12.265
   36DA       P 1110  10.461   5.252  12.119
   36DA     O1P 1111  10.599   5.296  12.149
   36DA     O2P 1112  10.378   5.319  12.012
   36DA     O5' 1113  10.462   5.096  12.095
   36DA     C5' 1114  10.531   5.003  12.178
   36DA    H5'1 1115  10.498   4.993  12.279
   36DA    H5'2 1116  10.632   5.047  12.186
   36DA     C4' 1117  10.556   4.862  12.118
   36DA     H4' 1118  10.633   4.824  12.179
   36DA     O4' 1119  10.439   4.779  12.136
   36DA     C1' 1120  10.368   4.766  12.015
   36DA     H1' 1121  10.375   4.660  11.981
   36DA      N9 1122  10.221   4.810  12.033
   36DA      C8 1123  10.166   4.936  12.025
   36DA      H8 1124  10.232   5.025  12.024
   36DA      N7 1125  10.036   4.943  12.025
   36DA      C5 1126  10.006   4.814  12.047
   36DA      C6 1127   9.885   4.741  12.055
   36DA      N6 1128   9.768   4.790  12.063
   36DA     H61 1129   9.694   4.722  12.054
   36DA     H62 1130   9.750   4.886  12.090
   36DA      N1 1131   9.879   4.607  12.057
   36DA      C2 1132   9.992   4.548  12.049
   36DA      H2 1133   9.987   4.444  12.027
   36DA      N3 1134  10.113   4.597  12.041
   36DA      C4 1135  10.115   4.730  12.049
   36DA     C3' 1136  10.593   4.864  11.966
   36DA     H3' 1137  10.637   4.960  11.944
   36DA     C2' 1138  10.447   4.853  11.912
   36DA    H2'1 1139  10.408   4.947  11.920
   36DA    H2'2 1140  10.438   4.805  11.817
   36DA     O3' 1141  10.676   4.760  11.934
   37DT       P 1142  10.709   4.721  11.781
   37DT     O1P 1143  10.842   4.659  11.788
   37DT     O2P 1144  10.692   4.839  11.691
   37DT     O5' 1145  10.595   4.611  11.757
   37DT     C5' 1146  10.602   4.479  11.819
   37DT    H5'1 1147  10.594   4.495  11.918
   37DT    H5'2 1148  10.700   4.427  11.794
   37DT     C4' 1149  10.485   4.390  11.770
   37DT     H4' 1150  10.507   4.293  11.817
   37DT     O4' 1151  10.365   4.454  11.806
   37DT     C1' 1152  10.270   4.448  11.703
   37DT     H1' 1153  10.221   4.352  11.704
   37DT      N1 1154  10.171   4.562  11.719
   37DT      C6 1155  10.202   4.692  11.691
   37DT      H6 1156  10.300   4.732  11.670
   37DT      C5 1157  10.106   4.790  11.684
   37DT      C7 1158  10.140   4.930  11.638
   37DT     H71 1159  10.068   4.999  11.666
   37DT     H72 1160  10.240   4.963  11.660
   37DT     H73 1161  10.122   4.936  11.527
   37DT      C4 1162   9.963   4.758  11.710
   37DT      O4 1163   9.875   4.840  11.710
   37DT      N3 1164   9.943   4.620  11.731
   37DT      H3 1165   9.850   4.597  11.757
   37DT      C2 1166  10.041   4.523  11.743
   37DT      O2 1167  10.010   4.405  11.768
   37DT     C3' 1168  10.478   4.366  11.615
   37DT     H3' 1169  10.577   4.394  11.573
   37DT     C2' 1170  10.361   4.457  11.577
   37DT    H2'1 1171  10.397   4.558  11.559
   37DT    H2'2 1172  10.310   4.418  11.487
   37DT     O3' 1173  10.442   4.233  11.595
   38DA       P 1174  10.413   4.161  11.460
   38DA     O1P 1175  10.432   4.019  11.484
   38DA     O2P 1176  10.476   4.224  11.348
   38DA     O5' 1177  10.253   4.189  11.439
   38DA     C5' 1178  10.156   4.120  11.514
   38DA    H5'1 1179  10.160   4.160  11.619
   38DA    H5'2 1180  10.205   4.020  11.525
   38DA     C4' 1181  10.017   4.107  11.455
   38DA     H4' 1182   9.962   4.021  11.505
   38DA     O4' 1183   9.952   4.223  11.479
   38DA     C1' 1184   9.893   4.269  11.359
   38DA     H1' 1185   9.796   4.213  11.345
   38DA      N9 1186   9.875   4.414  11.381
   38DA      C8 1187   9.966   4.515  11.398
   38DA      H8 1188  10.069   4.497  11.413
   38DA      N7 1189   9.910   4.636  11.411
   38DA      C5 1190   9.771   4.608  11.416
   38DA      C6 1191   9.654   4.682  11.435
   38DA      N6 1192   9.651   4.813  11.441
   38DA     H61 1193   9.559   4.854  11.450
   38DA     H62 1194   9.740   4.866  11.432
   38DA      N1 1195   9.535   4.621  11.438
   38DA      C2 1196   9.533   4.490  11.423
   38DA      H2 1197   9.437   4.440  11.426
   38DA      N3 1198   9.633   4.403  11.403
   38DA      C4 1199   9.750   4.473  11.402
   38DA     C3' 1200  10.023   4.089  11.300
   38DA     H3' 1201  10.121   4.052  11.265
   38DA     C2' 1202   9.990   4.232  11.251
   38DA    H2'1 1203  10.075   4.295  11.259
   38DA    H2'2 1204   9.949   4.235  11.145
   38DA     O3' 1205   9.923   3.997  11.259
   39DT       P 1206   9.902   3.951  11.105
   39DT     O1P 1207   9.879   3.807  11.081
   39DT     O2P 1208  10.016   4.007  11.032
   39DT     O5' 1209   9.767   4.030  11.072
   39DT     C5' 1210   9.657   4.009  11.160
   39DT    H5'1 1211   9.677   4.040  11.263
   39DT    H5'2 1212   9.638   3.899  11.161
   39DT     C4' 1213   9.525   4.080  11.123
   39DT     H4' 1214   9.438   4.054  11.187
   39DT     O4' 1215   9.538   4.223  11.146
   39DT     C1' 1216   9.490   4.292  11.038
   39DT     H1' 1217   9.379   4.308  11.040
   39DT      N1 1218   9.553   4.423  11.032
   39DT      C6 1219   9.688   4.442  11.010
   39DT      H6 1220   9.753   4.353  10.999
   39DT      C5 1221   9.746   4.562  11.031
   39DT      C7 1222   9.894   4.578  11.027
   39DT     H71 1223   9.932   4.607  11.125
   39DT     H72 1224   9.949   4.487  10.996
   39DT     H73 1225   9.922   4.665  10.960
   39DT      C4 1226   9.667   4.674  11.074
   39DT      O4 1227   9.692   4.791  11.099
   39DT      N3 1228   9.532   4.647  11.080
   39DT      H3 1229   9.469   4.721  11.095
   39DT      C2 1230   9.470   4.530  11.063
   39DT      O2 1231   9.348   4.512  11.082
   39DT     C3' 1232   9.477   4.059  10.980
   39DT     H3' 1233   9.549   3.989  10.941
   39DT     C2' 1234   9.516   4.197  10.927
   39DT    H2'1 1235   9.617   4.193  10.893
   39DT    H2'2 1236   9.461   4.234  10.839
   39DT     O3' 1237   9.341   4.022  10.960
   40DG       P 1238   9.297   3.961  10.823
   40DG     O1P 1239   9.169   3.889  10.841
   40DG     O2P 1240   9.414   3.898  10.757
   40DG     O5' 1241   9.262   4.089  10.737
   40DG     C5' 1242   9.155   4.170  10.775
   40DG    H5'1 1243   9.160   4.188  10.883
   40DG    H5'2 1244   9.059   4.124  10.750
   40DG     C4' 1245   9.171   4.305  10.712
   40DG     H4' 1246   9.075   4.347  10.708
   40DG     O4' 1247   9.262   4.392  10.781
   40DG     C1' 1248   9.322   4.470  10.685
   40DG     H1' 1249   9.247   4.547  10.648
   40DG      N9 1250   9.441   4.553  10.720
   40DG      C8 1251   9.580   4.538  10.700
   40DG      H8 1252   9.627   4.449  10.661
   40DG      N7 1253   9.653   4.642  10.721
   40DG      C5 1254   9.561   4.739  10.753
   40DG      C6 1255   9.579   4.878  10.786
   40DG      O6 1256   9.679   4.952  10.784
   40DG      N1 1257   9.463   4.940  10.820
   40DG      H1 1258   9.476   5.029  10.867
   40DG      C2 1259   9.340   4.880  10.810
   40DG      N2 1260   9.231   4.954  10.816
   40DG     H21 1261   9.238   5.047  10.849
   40DG     H22 1262   9.152   4.910  10.786
   40DG      N3 1263   9.320   4.753  10.785
   40DG      C4 1264   9.435   4.682  10.756
   40DG     C3' 1265   9.216   4.298  10.564
   40DG     H3' 1266   9.238   4.191  10.521
   40DG     C2' 1267   9.344   4.374  10.573
   40DG    H2'1 1268   9.427   4.307  10.589
   40DG    H2'2 1269   9.353   4.429  10.481
   40DG     O3' 1270   9.114   4.366  10.491
   41DC       P 1271   9.007   4.278  10.417
   41DC     O1P 1272   8.951   4.177  10.510
   41DC     O2P 1273   9.066   4.244  10.292
   41DC     O5' 1274   8.894   4.387  10.398
   41DC     C5' 1275   8.830   4.447  10.504
   41DC    H5'1 1276   8.876   4.417  10.602
   41DC    H5'2 1277   8.730   4.408  10.527
   41DC     C4' 1278   8.837   4.600  10.505
   41DC     H4' 1279   8.772   4.638  10.578
   41DC     O4' 1280   8.959   4.656  10.545
   41DC     C1' 1281   8.998   4.756  10.454
   41DC     H1' 1282   8.940   4.845  10.480
   41DC      N1 1283   9.143   4.776  10.449
   41DC      C6 1284   9.229   4.683  10.394
   41DC      H6 1285   9.185   4.593  10.352
   41DC      C5 1286   9.360   4.707  10.391
   41DC      H5 1287   9.422   4.630  10.356
   41DC      C4 1288   9.407   4.831  10.440
   41DC      N4 1289   9.537   4.857  10.438
   41DC     H41 1290   9.576   4.943  10.472
   41DC     H42 1291   9.592   4.784  10.396
   41DC      N3 1292   9.325   4.926  10.497
   41DC      C2 1293   9.192   4.895  10.491
   41DC      O2 1294   9.118   4.985  10.523
   41DC     C3' 1295   8.804   4.666  10.372
   41DC     H3' 1296   8.761   4.590  10.301
   41DC     C2' 1297   8.938   4.713  10.321
   41DC    H2'1 1298   8.994   4.629  10.280
   41DC    H2'2 1299   8.927   4.805  10.257
   41DC     O3' 1300   8.712   4.777  10.396
   42DG       P 1301   8.563   4.784  10.335
   42DG     O1P 1302   8.471   4.797  10.448
   42DG     O2P 1303   8.547   4.674  10.237
   42DG     O5' 1304   8.552   4.912  10.241
   42DG     C5' 1305   8.552   5.037  10.300
   42DG    H5'1 1306   8.597   5.020  10.395
   42DG    H5'2 1307   8.451   5.077  10.306
   42DG     C4' 1308   8.629   5.142  10.222
   42DG     H4' 1309   8.617   5.236  10.269
   42DG     O4' 1310   8.772   5.125  10.226
   42DG     C1' 1311   8.826   5.152  10.093
   42DG     H1' 1312   8.851   5.260  10.084
   42DG      N9 1313   8.948   5.079  10.087
   42DG      C8 1314   8.975   4.952  10.050
   42DG      H8 1315   8.894   4.887  10.014
   42DG      N7 1316   9.101   4.912  10.055
   42DG      C5 1317   9.166   5.024  10.105
   42DG      C6 1318   9.306   5.049  10.132
   42DG      O6 1319   9.405   4.973  10.121
   42DG      N1 1320   9.332   5.176  10.164
   42DG      H1 1321   9.427   5.204  10.186
   42DG      C2 1322   9.234   5.264  10.197
   42DG      N2 1323   9.261   5.384  10.226
   42DG     H21 1324   9.357   5.419  10.226
   42DG     H22 1325   9.184   5.450  10.234
   42DG      N3 1326   9.105   5.245  10.170
   42DG      C4 1327   9.075   5.126  10.132
   42DG     C3' 1328   8.582   5.151  10.073
   42DG     H3' 1329   8.499   5.078  10.050
   42DG     C2' 1330   8.710   5.113   9.997
   42DG    H2'1 1331   8.717   5.008   9.975
   42DG    H2'2 1332   8.719   5.166   9.909
   42DG     O3' 1333   8.525   5.275  10.064
   43DT       P 1334   8.529   5.369   9.937
   43DT     O1P 1335   8.409   5.454   9.944
   43DT     O2P 1336   8.546   5.286   9.819
   43DT     O5' 1337   8.658   5.459   9.942
   43DT     C5' 1338   8.699   5.521  10.062
   43DT    H5'1 1339   8.740   5.445  10.131
   43DT    H5'2 1340   8.628   5.578  10.112
   43DT     C4' 1341   8.822   5.608  10.035
   43DT     H4' 1342   8.826   5.682  10.119
   43DT     O4' 1343   8.935   5.528  10.030
   43DT     C1' 1344   9.000   5.557   9.908
   43DT     H1' 1345   9.068   5.647   9.922
   43DT      N1 1346   9.066   5.435   9.867
   43DT      C6 1347   8.994   5.329   9.815
   43DT      H6 1348   8.886   5.336   9.809
   43DT      C5 1349   9.058   5.212   9.775
   43DT      C7 1350   8.985   5.092   9.718
   43DT     H71 1351   8.881   5.125   9.700
   43DT     H72 1352   9.027   5.067   9.620
   43DT     H73 1353   8.992   5.011   9.780
   43DT      C4 1354   9.201   5.203   9.795
   43DT      O4 1355   9.268   5.101   9.773
   43DT      N3 1356   9.265   5.310   9.849
   43DT      H3 1357   9.364   5.306   9.841
   43DT      C2 1358   9.206   5.425   9.887
   43DT      O2 1359   9.277   5.518   9.916
   43DT     C3' 1360   8.808   5.696   9.903
   43DT     H3' 1361   8.701   5.688   9.865
   43DT     C2' 1362   8.892   5.604   9.817
   43DT    H2'1 1363   8.817   5.528   9.783
   43DT    H2'2 1364   8.934   5.657   9.728
   43DT     O3' 1365   8.849   5.837   9.925
   44DA       P 1366   8.880   5.930   9.801
   44DA     O1P 1367   8.880   6.067   9.848
   44DA     O2P 1368   8.793   5.892   9.687
   44DA     O5' 1369   9.031   5.892   9.765
   44DA     C5' 1370   9.142   5.935   9.842
   44DA    H5'1 1371   9.132   6.039   9.873
   44DA    H5'2 1372   9.139   5.864   9.928
   44DA     C4' 1373   9.278   5.916   9.772
   44DA     H4' 1374   9.355   5.956   9.830
   44DA     O4' 1375   9.315   5.775   9.757
   44DA     C1' 1376   9.358   5.754   9.623
   44DA     H1' 1377   9.467   5.765   9.613
   44DA      N9 1378   9.323   5.611   9.589
   44DA      C8 1379   9.202   5.552   9.571
   44DA      H8 1380   9.114   5.607   9.598
   44DA      N7 1381   9.200   5.430   9.541
   44DA      C5 1382   9.338   5.406   9.522
   44DA      C6 1383   9.416   5.295   9.488
   44DA      N6 1384   9.363   5.176   9.455
   44DA     H61 1385   9.434   5.104   9.428
   44DA     H62 1386   9.266   5.164   9.436
   44DA      N1 1387   9.551   5.299   9.483
   44DA      C2 1388   9.608   5.411   9.524
   44DA      H2 1389   9.714   5.417   9.531
   44DA      N3 1390   9.550   5.527   9.558
   44DA      C4 1391   9.413   5.513   9.557
   44DA     C3' 1392   9.285   5.977   9.631
   44DA     H3' 1393   9.194   6.035   9.616
   44DA     C2' 1394   9.291   5.859   9.536
   44DA    H2'1 1395   9.188   5.827   9.521
   44DA    H2'2 1396   9.354   5.874   9.440
   44DA     O3' 1397   9.399   6.053   9.617
   45DC       P 1398   9.425   6.177   9.524
   45DC     O1P 1399   9.544   6.252   9.565
   45DC     O2P 1400   9.303   6.255   9.514
   45DC     O5' 1401   9.457   6.123   9.379
   45DC     C5' 1402   9.579   6.055   9.350
   45DC    H5'1 1403   9.588   5.990   9.441
   45DC    H5'2 1404   9.661   6.120   9.350
   45DC     C4' 1405   9.573   5.976   9.217
   45DC     H4' 1406   9.676   5.977   9.176
   45DC     O4' 1407   9.540   5.845   9.250
   45DC     C1' 1408   9.489   5.789   9.136
   45DC     H1' 1409   9.577   5.786   9.058
   45DC      N1 1410   9.430   5.655   9.159
   45DC      C6 1411   9.307   5.643   9.211
   45DC      H6 1412   9.258   5.737   9.247
   45DC      C5 1413   9.247   5.522   9.203
   45DC      H5 1414   9.149   5.514   9.249
   45DC      C4 1415   9.321   5.410   9.159
   45DC      N4 1416   9.274   5.290   9.163
   45DC     H41 1417   9.332   5.208   9.134
   45DC     H42 1418   9.175   5.278   9.194
   45DC      N3 1419   9.447   5.417   9.123
   45DC      C2 1420   9.504   5.542   9.123
   45DC      O2 1421   9.621   5.548   9.088
   45DC     C3' 1422   9.480   6.024   9.107
   45DC     H3' 1423   9.413   6.105   9.138
   45DC     C2' 1424   9.398   5.897   9.083
   45DC    H2'1 1425   9.312   5.907   9.142
   45DC    H2'2 1426   9.384   5.878   8.979
   45DC     O3' 1427   9.553   6.043   8.986
   46DA       P 1428   9.642   6.166   8.970
   46DA     O1P 1429   9.711   6.204   9.095
   46DA     O2P 1430   9.552   6.266   8.909
   46DA     O5' 1431   9.754   6.126   8.869
   46DA     C5' 1432   9.867   6.054   8.909
   46DA    H5'1 1433   9.952   6.133   8.911
   46DA    H5'2 1434   9.846   6.019   9.005
   46DA     C4' 1435   9.885   5.939   8.811
   46DA     H4' 1436   9.982   5.901   8.824
   46DA     O4' 1437   9.785   5.842   8.838
   46DA     C1' 1438   9.744   5.793   8.709
   46DA     H1' 1439   9.824   5.721   8.682
   46DA      N9 1440   9.603   5.736   8.717
   46DA      C8 1441   9.485   5.799   8.731
   46DA      H8 1442   9.473   5.908   8.733
   46DA      N7 1443   9.381   5.717   8.737
   46DA      C5 1444   9.443   5.594   8.746
   46DA      C6 1445   9.401   5.457   8.753
   46DA      N6 1446   9.273   5.421   8.745
   46DA     H61 1447   9.259   5.321   8.763
   46DA     H62 1448   9.196   5.487   8.737
   46DA      N1 1449   9.489   5.354   8.743
   46DA      C2 1450   9.614   5.386   8.735
   46DA      H2 1451   9.683   5.306   8.741
   46DA      N3 1452   9.672   5.510   8.730
   46DA      C4 1453   9.577   5.603   8.728
   46DA     C3' 1454   9.886   5.983   8.665
   46DA     H3' 1455   9.872   6.091   8.653
   46DA     C2' 1456   9.763   5.917   8.615
   46DA    H2'1 1457   9.679   5.978   8.628
   46DA    H2'2 1458   9.762   5.879   8.510
   46DA     O3' 1459  10.020   5.946   8.616
   47DA       P 1460  10.055   5.897   8.464
   47DA     O1P 1461  10.199   5.926   8.454
   47DA     O2P 1462   9.971   5.967   8.367
   47DA     O5' 1463  10.031   5.745   8.460
   47DA     C5' 1464  10.101   5.662   8.554
   47DA    H5'1 1465  10.037   5.658   8.645
   47DA    H5'2 1466  10.212   5.693   8.581
   47DA     C4' 1467  10.111   5.510   8.500
   47DA     H4' 1468  10.178   5.454   8.573
   47DA     O4' 1469   9.985   5.444   8.501
   47DA     C1' 1470   9.930   5.434   8.370
   47DA     H1' 1471   9.934   5.329   8.333
   47DA      N9 1472   9.792   5.479   8.376
   47DA      C8 1473   9.732   5.599   8.371
   47DA      H8 1474   9.783   5.696   8.359
   47DA      N7 1475   9.602   5.593   8.385
   47DA      C5 1476   9.574   5.461   8.398
   47DA      C6 1477   9.464   5.374   8.427
   47DA      N6 1478   9.336   5.408   8.446
   47DA     H61 1479   9.284   5.330   8.472
   47DA     H62 1480   9.309   5.498   8.475
   47DA      N1 1481   9.474   5.241   8.432
   47DA      C2 1482   9.593   5.187   8.410
   47DA      H2 1483   9.596   5.084   8.420
   47DA      N3 1484   9.706   5.249   8.398
   47DA      C4 1485   9.688   5.386   8.388
   47DA     C3' 1486  10.159   5.515   8.355
   47DA     H3' 1487  10.208   5.609   8.331
   47DA     C2' 1488  10.025   5.510   8.278
   47DA    H2'1 1489   9.991   5.615   8.272
   47DA    H2'2 1490  10.026   5.478   8.169
   47DA     O3' 1491  10.247   5.406   8.334
   48DT       P 1492  10.297   5.370   8.189
   48DT     O1P 1493  10.415   5.289   8.203
   48DT     O2P 1494  10.318   5.502   8.113
   48DT     O5' 1495  10.183   5.290   8.108
   48DT     C5' 1496  10.151   5.153   8.134
   48DT    H5'1 1497  10.149   5.142   8.245
   48DT    H5'2 1498  10.229   5.090   8.098
   48DT     C4' 1499  10.017   5.103   8.083
   48DT     H4' 1500  10.021   5.003   8.116
   48DT     O4' 1501   9.905   5.171   8.140
   48DT     C1' 1502   9.799   5.159   8.047
   48DT     H1' 1503   9.749   5.065   8.075
   48DT      N1 1504   9.693   5.269   8.056
   48DT      C6 1505   9.722   5.400   8.034
   48DT      H6 1506   9.829   5.423   8.010
   48DT      C5 1507   9.628   5.494   8.031
   48DT      C7 1508   9.676   5.632   7.993
   48DT     H71 1509   9.781   5.636   7.969
   48DT     H72 1510   9.614   5.673   7.913
   48DT     H73 1511   9.667   5.702   8.084
   48DT      C4 1512   9.493   5.471   8.064
   48DT      O4 1513   9.397   5.553   8.055
   48DT      N3 1514   9.464   5.336   8.091
   48DT      H3 1515   9.376   5.303   8.123
   48DT      C2 1516   9.561   5.233   8.087
   48DT      O2 1517   9.530   5.113   8.111
   48DT     C3' 1518   9.999   5.107   7.938
   48DT     H3' 1519  10.062   5.179   7.900
   48DT     C2' 1520   9.854   5.142   7.908
   48DT    H2'1 1521   9.839   5.228   7.836
   48DT    H2'2 1522   9.803   5.058   7.867
   48DT     O3' 1523  10.026   4.977   7.893
   49DG       P 1524  10.049   4.951   7.744
   49DG     O1P 1525  10.136   4.832   7.728
   49DG     O2P 1526  10.082   5.073   7.676
   49DG     O5' 1527   9.905   4.912   7.696
   49DG     C5' 1528   9.848   4.785   7.724
   49DG    H5'1 1529   9.860   4.776   7.834
   49DG    H5'2 1530   9.902   4.713   7.674
   49DG     C4' 1531   9.699   4.775   7.683
   49DG     H4' 1532   9.661   4.677   7.718
   49DG     O4' 1533   9.620   4.873   7.748
   49DG     C1' 1534   9.528   4.918   7.656
   49DG     H1' 1535   9.451   4.845   7.664
   49DG      N9 1536   9.475   5.046   7.705
   49DG      C8 1537   9.549   5.160   7.710
   49DG      H8 1538   9.654   5.153   7.693
   49DG      N7 1539   9.482   5.262   7.739
   49DG      C5 1540   9.348   5.226   7.726
   49DG      C6 1541   9.223   5.298   7.742
   49DG      O6 1542   9.212   5.416   7.769
   49DG      N1 1543   9.109   5.219   7.739
   49DG      H1 1544   9.026   5.260   7.773
   49DG      C2 1545   9.114   5.089   7.709
   49DG      N2 1546   9.003   5.022   7.719
   49DG     H21 1547   8.920   5.076   7.747
   49DG     H22 1548   9.006   4.925   7.726
   49DG      N3 1549   9.228   5.017   7.707
   49DG      C4 1550   9.341   5.089   7.708
   49DG     C3' 1551   9.680   4.794   7.531
   49DG     H3' 1552   9.777   4.808   7.482
   49DG     C2' 1553   9.592   4.918   7.518
   49DG    H2'1 1554   9.655   5.001   7.505
   49DG    H2'2 1555   9.520   4.905   7.441
   49DG     O3' 1556   9.618   4.671   7.492
   50DT       P 1557   9.554   4.640   7.354
   50DT     O1P 1558   9.556   4.491   7.340
   50DT     O2P 1559   9.633   4.709   7.251
   50DT     O5' 1560   9.404   4.692   7.354
   50DT     C5' 1561   9.305   4.660   7.452
   50DT    H5'1 1562   9.332   4.723   7.536
   50DT    H5'2 1563   9.312   4.553   7.475
   50DT     C4' 1564   9.156   4.683   7.419
   50DT     H4' 1565   9.096   4.621   7.483
   50DT     O4' 1566   9.120   4.817   7.449
   50DT     C1' 1567   9.091   4.888   7.331
   50DT     H1' 1568   8.982   4.904   7.324
   50DT      N1 1569   9.152   5.027   7.339
   50DT      C6 1570   9.288   5.048   7.321
   50DT      H6 1571   9.355   4.973   7.303
   50DT      C5 1572   9.338   5.172   7.336
   50DT      C7 1573   9.484   5.192   7.300
   50DT     H71 1574   9.540   5.235   7.383
   50DT     H72 1575   9.527   5.101   7.262
   50DT     H73 1576   9.495   5.269   7.224
   50DT      C4 1577   9.257   5.286   7.370
   50DT      O4 1578   9.297   5.402   7.380
   50DT      N3 1579   9.122   5.252   7.390
   50DT      H3 1580   9.065   5.324   7.429
   50DT      C2 1581   9.066   5.129   7.378
   50DT      O2 1582   8.948   5.112   7.411
   50DT     C3' 1583   9.123   4.661   7.271
   50DT     H3' 1584   9.203   4.595   7.223
   50DT     C2' 1585   9.136   4.800   7.209
   50DT    H2'1 1586   9.236   4.815   7.171
   50DT    H2'2 1587   9.070   4.825   7.123
   50DT     O3' 1588   8.995   4.601   7.262
   51DA       P 1589   8.905   4.578   7.128
   51DA     O1P 1590   8.801   4.481   7.169
   51DA     O2P 1591   8.995   4.539   7.019
   51DA     O5' 1592   8.838   4.721   7.087
   51DA     C5' 1593   8.719   4.760   7.147
   51DA    H5'1 1594   8.721   4.737   7.259
   51DA    H5'2 1595   8.638   4.697   7.119
   51DA     C4' 1596   8.672   4.902   7.125
   51DA     H4' 1597   8.581   4.919   7.179
   51DA     O4' 1598   8.768   4.995   7.164
   51DA     C1' 1599   8.753   5.111   7.096
   51DA     H1' 1600   8.665   5.155   7.146
   51DA      N9 1601   8.872   5.198   7.099
   51DA      C8 1602   8.999   5.165   7.069
   51DA      H8 1603   9.024   5.066   7.030
   51DA      N7 1604   9.087   5.259   7.085
   51DA      C5 1605   9.006   5.368   7.125
   51DA      C6 1606   9.031   5.502   7.161
   51DA      N6 1607   9.146   5.566   7.141
   51DA     H61 1608   9.158   5.660   7.175
   51DA     H62 1609   9.219   5.503   7.130
   51DA      N1 1610   8.932   5.586   7.182
   51DA      C2 1611   8.810   5.533   7.189
   51DA      H2 1612   8.734   5.603   7.208
   51DA      N3 1613   8.769   5.407   7.163
   51DA      C4 1614   8.878   5.329   7.130
   51DA     C3' 1615   8.636   4.935   6.981
   51DA     H3' 1616   8.702   4.867   6.922
   51DA     C2' 1617   8.709   5.066   6.958
   51DA    H2'1 1618   8.796   5.058   6.886
   51DA    H2'2 1619   8.639   5.135   6.923
   51DA     O3' 1620   8.496   4.937   6.960
   52DT       P 1621   8.437   4.930   6.815
   52DT     O1P 1622   8.300   4.884   6.817
   52DT     O2P 1623   8.527   4.852   6.731
   52DT     O5' 1624   8.438   5.087   6.757
   52DT     C5' 1625   8.340   5.181   6.810
   52DT    H5'1 1626   8.338   5.158   6.917
   52DT    H5'2 1627   8.235   5.160   6.778
   52DT     C4' 1628   8.384   5.323   6.774
   52DT     H4' 1629   8.301   5.390   6.803
   52DT     O4' 1630   8.498   5.368   6.841
   52DT     C1' 1631   8.569   5.435   6.744
   52DT     H1' 1632   8.522   5.534   6.731
   52DT      N1 1633   8.708   5.445   6.790
   52DT      C6 1634   8.793   5.334   6.765
   52DT      H6 1635   8.754   5.240   6.730
   52DT      C5 1636   8.932   5.359   6.766
   52DT      C7 1637   9.018   5.246   6.719
   52DT     H71 1638   9.090   5.214   6.787
   52DT     H72 1639   8.956   5.167   6.676
   52DT     H73 1640   9.080   5.271   6.631
   52DT      C4 1641   8.982   5.487   6.819
   52DT      O4 1642   9.099   5.521   6.832
   52DT      N3 1643   8.887   5.574   6.865
   52DT      H3 1644   8.917   5.660   6.913
   52DT      C2 1645   8.754   5.566   6.841
   52DT      O2 1646   8.679   5.656   6.880
   52DT     C3' 1647   8.406   5.340   6.622
   52DT     H3' 1648   8.368   5.259   6.566
   52DT     C2' 1649   8.556   5.359   6.612
   52DT    H2'1 1650   8.596   5.256   6.608
   52DT    H2'2 1651   8.586   5.420   6.519
   52DT     O3' 1652   8.343   5.460   6.588
   53DA       P 1653   8.232   5.454   6.475
   53DA     O1P 1654   8.117   5.374   6.531
   53DA     O2P 1655   8.303   5.406   6.357
   53DA     O5' 1656   8.187   5.598   6.448
   53DA     C5' 1657   8.112   5.671   6.545
   53DA    H5'1 1658   8.132   5.627   6.647
   53DA    H5'2 1659   8.003   5.661   6.518
   53DA     C4' 1660   8.165   5.823   6.552
   53DA     H4' 1661   8.105   5.882   6.628
   53DA     O4' 1662   8.300   5.827   6.592
   53DA     C1' 1663   8.376   5.893   6.493
   53DA     H1' 1664   8.370   5.996   6.520
   53DA      N9 1665   8.520   5.849   6.497
   53DA      C8 1666   8.567   5.734   6.442
   53DA      H8 1667   8.502   5.651   6.402
   53DA      N7 1668   8.698   5.725   6.433
   53DA      C5 1669   8.736   5.839   6.502
   53DA      C6 1670   8.865   5.884   6.548
   53DA      N6 1671   8.973   5.814   6.537
   53DA     H61 1672   9.058   5.857   6.577
   53DA     H62 1673   8.966   5.724   6.497
   53DA      N1 1674   8.874   6.007   6.605
   53DA      C2 1675   8.770   6.085   6.623
   53DA      H2 1676   8.782   6.176   6.672
   53DA      N3 1677   8.645   6.046   6.592
   53DA      C4 1678   8.633   5.922   6.538
   53DA     C3' 1679   8.153   5.886   6.411
   53DA     H3' 1680   8.076   5.834   6.341
   53DA     C2' 1681   8.299   5.870   6.365
   53DA    H2'1 1682   8.313   5.776   6.330
   53DA    H2'2 1683   8.315   5.943   6.288
   53DA     O3' 1684   8.113   6.018   6.430
   54DA       P 1685   8.089   6.122   6.312
   54DA     O1P 1686   7.960   6.193   6.345
   54DA     O2P 1687   8.093   6.051   6.183
   54DA     O5' 1688   8.203   6.234   6.315
   54DA     C5' 1689   8.209   6.328   6.430
   54DA    H5'1 1690   8.231   6.272   6.523
   54DA    H5'2 1691   8.111   6.377   6.435
   54DA     C4' 1692   8.317   6.434   6.422
   54DA     H4' 1693   8.302   6.508   6.502
   54DA     O4' 1694   8.445   6.370   6.431
   54DA     C1' 1695   8.524   6.389   6.316
   54DA     H1' 1696   8.599   6.468   6.326
   54DA      N9 1697   8.596   6.261   6.287
   54DA      C8 1698   8.547   6.142   6.248
   54DA      H8 1699   8.443   6.127   6.230
   54DA      N7 1700   8.634   6.051   6.217
   54DA      C5 1701   8.756   6.111   6.254
   54DA      C6 1702   8.892   6.083   6.251
   54DA      N6 1703   8.945   5.965   6.220
   54DA     H61 1704   9.042   5.967   6.245
   54DA     H62 1705   8.900   5.884   6.174
   54DA      N1 1706   8.991   6.167   6.290
   54DA      C2 1707   8.955   6.293   6.326
   54DA      H2 1708   9.035   6.371   6.345
   54DA      N3 1709   8.832   6.339   6.332
   54DA      C4 1710   8.735   6.244   6.293
   54DA     C3' 1711   8.326   6.502   6.289
   54DA     H3' 1712   8.221   6.494   6.246
   54DA     C2' 1713   8.428   6.419   6.205
   54DA    H2'1 1714   8.384   6.323   6.173
   54DA    H2'2 1715   8.479   6.480   6.133
   54DA     O3' 1716   8.355   6.639   6.304
   55DT       P 1717   8.381   6.736   6.177
   55DT     O1P 1718   8.336   6.873   6.204
   55DT     O2P 1719   8.326   6.671   6.058
   55DT     O5' 1720   8.538   6.739   6.150
   55DT     C5' 1721   8.634   6.782   6.249
   55DT    H5'1 1722   8.628   6.706   6.329
   55DT    H5'2 1723   8.600   6.874   6.294
   55DT     C4' 1724   8.783   6.797   6.209
   55DT     H4' 1725   8.845   6.854   6.283
   55DT     O4' 1726   8.843   6.664   6.183
   55DT     C1' 1727   8.880   6.655   6.047
   55DT     H1' 1728   8.985   6.686   6.036
   55DT      N1 1729   8.863   6.522   5.996
   55DT      C6 1730   8.739   6.471   5.959
   55DT      H6 1731   8.649   6.538   5.951
   55DT      C5 1732   8.719   6.341   5.936
   55DT      C7 1733   8.581   6.299   5.899
   55DT     H71 1734   8.527   6.381   5.857
   55DT     H72 1735   8.586   6.207   5.843
   55DT     H73 1736   8.527   6.268   5.985
   55DT      C4 1737   8.830   6.248   5.928
   55DT      O4 1738   8.822   6.130   5.898
   55DT      N3 1739   8.955   6.305   5.967
   55DT      H3 1740   9.037   6.246   5.960
   55DT      C2 1741   8.975   6.436   6.000
   55DT      O2 1742   9.087   6.474   6.037
   55DT     C3' 1743   8.793   6.882   6.084
   55DT     H3' 1744   8.700   6.940   6.066
   55DT     C2' 1745   8.816   6.773   5.977
   55DT    H2'1 1746   8.709   6.746   5.944
   55DT    H2'2 1747   8.875   6.794   5.888
   55DT     O3' 1748   8.895   6.979   6.096
   56DA       P 1749   8.943   7.062   5.970
   56DA     O1P 1750   9.007   7.179   6.034
   56DA     O2P 1751   8.831   7.081   5.870
   56DA     O5' 1752   9.058   6.979   5.901
   56DA     C5' 1753   9.178   6.952   5.973
   56DA    H5'1 1754   9.151   6.907   6.068
   56DA    H5'2 1755   9.226   7.042   5.997
   56DA     C4' 1756   9.274   6.852   5.909
   56DA     H4' 1757   9.360   6.826   5.966
   56DA     O4' 1758   9.202   6.727   5.902
   56DA     C1' 1759   9.247   6.671   5.779
   56DA     H1' 1760   9.348   6.631   5.799
   56DA      N9 1761   9.158   6.567   5.732
   56DA      C8 1762   9.022   6.578   5.718
   56DA      H8 1763   8.970   6.673   5.734
   56DA      N7 1764   8.966   6.464   5.674
   56DA      C5 1765   9.074   6.374   5.669
   56DA      C6 1766   9.092   6.236   5.628
   56DA      N6 1767   8.998   6.149   5.593
   56DA     H61 1768   9.017   6.047   5.590
   56DA     H62 1769   8.904   6.182   5.581
   56DA      N1 1770   9.215   6.188   5.625
   56DA      C2 1771   9.317   6.261   5.663
   56DA      H2 1772   9.406   6.212   5.654
   56DA      N3 1773   9.317   6.386   5.705
   56DA      C4 1774   9.192   6.440   5.698
   56DA     C3' 1775   9.306   6.904   5.765
   56DA     H3' 1776   9.231   6.988   5.760
   56DA     C2' 1777   9.260   6.787   5.681
   56DA    H2'1 1778   9.164   6.806   5.632
   56DA    H2'2 1779   9.326   6.765   5.606
   56DA     O3' 1780   9.444   6.939   5.754
   57DC       P 1781   9.501   7.039   5.641
   57DC     O1P 1782   9.634   7.083   5.702
   57DC     O2P 1783   9.405   7.142   5.612
   57DC     O5' 1784   9.518   6.946   5.512
   57DC     C5' 1785   9.608   6.840   5.513
   57DC    H5'1 1786   9.587   6.776   5.598
   57DC    H5'2 1787   9.706   6.889   5.524
   57DC     C4' 1788   9.600   6.754   5.387
   57DC     H4' 1789   9.699   6.712   5.385
   57DC     O4' 1790   9.507   6.655   5.411
   57DC     C1' 1791   9.419   6.649   5.296
   57DC     H1' 1792   9.470   6.580   5.220
   57DC      N1 1793   9.295   6.580   5.322
   57DC      C6 1794   9.162   6.640   5.338
   57DC      H6 1795   9.160   6.745   5.336
   57DC      C5 1796   9.050   6.568   5.338
   57DC      H5 1797   8.952   6.629   5.341
   57DC      C4 1798   9.067   6.430   5.327
   57DC      N4 1799   8.954   6.363   5.332
   57DC     H41 1800   8.948   6.272   5.314
   57DC     H42 1801   8.870   6.413   5.334
   57DC      N3 1802   9.181   6.366   5.309
   57DC      C2 1803   9.297   6.438   5.308
   57DC      O2 1804   9.396   6.373   5.274
   57DC     C3' 1805   9.564   6.828   5.255
   57DC     H3' 1806   9.581   6.938   5.260
   57DC     C2' 1807   9.422   6.797   5.241
   57DC    H2'1 1808   9.364   6.864   5.302
   57DC    H2'2 1809   9.384   6.796   5.139
   57DC     O3' 1810   9.632   6.775   5.140
   58DG       P 1811   9.765   6.839   5.085
   58DG     O1P 1812   9.858   6.876   5.193
   58DG     O2P 1813   9.736   6.937   4.981
   58DG     O5' 1814   9.846   6.723   5.018
   58DG     C5' 1815   9.898   6.616   5.093
   58DG    H5'1 1816   9.828   6.598   5.176
   58DG    H5'2 1817   9.985   6.651   5.147
   58DG     C4' 1818   9.928   6.484   5.023
   58DG     H4' 1819  10.006   6.449   5.085
   58DG     O4' 1820   9.808   6.400   5.030
   58DG     C1' 1821   9.741   6.404   4.911
   58DG     H1' 1822   9.738   6.303   4.870
   58DG      N9 1823   9.602   6.452   4.931
   58DG      C8 1824   9.548   6.579   4.924
   58DG      H8 1825   9.616   6.662   4.902
   58DG      N7 1826   9.418   6.591   4.934
   58DG      C5 1827   9.379   6.460   4.948
   58DG      C6 1828   9.246   6.399   4.949
   58DG      O6 1829   9.138   6.460   4.975
   58DG      N1 1830   9.248   6.262   4.938
   58DG      H1 1831   9.164   6.207   4.951
   58DG      C2 1832   9.362   6.190   4.940
   58DG      N2 1833   9.339   6.062   4.939
   58DG     H21 1834   9.243   6.030   4.951
   58DG     H22 1835   9.423   6.000   4.934
   58DG      N3 1836   9.486   6.237   4.936
   58DG      C4 1837   9.489   6.372   4.940
   58DG     C3' 1838   9.968   6.500   4.876
   58DG     H3' 1839  10.017   6.597   4.860
   58DG     C2' 1840   9.832   6.478   4.808
   58DG    H2'1 1841   9.782   6.579   4.785
   58DG    H2'2 1842   9.844   6.410   4.723
   58DG     O3' 1843  10.060   6.400   4.843
   59DC       P 1844  10.110   6.395   4.687
   59DC     O1P 1845  10.239   6.321   4.686
   59DC     O2P 1846  10.103   6.533   4.629
   59DC     O5' 1847  10.004   6.302   4.611
   59DC     C5' 1848   9.969   6.172   4.667
   59DC    H5'1 1849   9.933   6.199   4.767
   59DC    H5'2 1850  10.053   6.109   4.662
   59DC     C4' 1851   9.844   6.122   4.592
   59DC     H4' 1852   9.838   6.012   4.624
   59DC     O4' 1853   9.737   6.197   4.641
   59DC     C1' 1854   9.653   6.223   4.533
   59DC     H1' 1855   9.593   6.134   4.508
   59DC      N1 1856   9.556   6.333   4.562
   59DC      C6 1857   9.588   6.469   4.568
   59DC      H6 1858   9.693   6.492   4.573
   59DC      C5 1859   9.493   6.566   4.573
   59DC      H5 1860   9.519   6.667   4.573
   59DC      C4 1861   9.361   6.520   4.571
   59DC      N4 1862   9.268   6.605   4.583
   59DC     H41 1863   9.173   6.574   4.608
   59DC     H42 1864   9.286   6.702   4.605
   59DC      N3 1865   9.326   6.395   4.580
   59DC      C2 1866   9.421   6.295   4.580
   59DC      O2 1867   9.390   6.175   4.595
   59DC     C3' 1868   9.852   6.146   4.444
   59DC     H3' 1869   9.950   6.179   4.403
   59DC     C2' 1870   9.750   6.256   4.423
   59DC    H2'1 1871   9.799   6.355   4.426
   59DC    H2'2 1872   9.701   6.238   4.329
   59DC     O3' 1873   9.815   6.020   4.384
   60DA       P 1874   9.819   5.976   4.230
   60DA     O1P 1875   9.917   5.873   4.217
   60DA     O2P 1876   9.822   6.090   4.140
   60DA     O5' 1877   9.677   5.915   4.222
   60DA     C5' 1878   9.646   5.803   4.292
   60DA    H5'1 1879   9.632   5.834   4.396
   60DA    H5'2 1880   9.703   5.724   4.271
   60DA     C4' 1881   9.507   5.774   4.251
   60DA     H4' 1882   9.475   5.676   4.293
   60DA     O4' 1883   9.410   5.869   4.294
   60DA     C1' 1884   9.344   5.931   4.189
   60DA     H1' 1885   9.242   5.884   4.178
   60DA      N9 1886   9.336   6.078   4.209
   60DA      C8 1887   9.439   6.161   4.212
   60DA      H8 1888   9.546   6.125   4.208
   60DA      N7 1889   9.409   6.288   4.242
   60DA      C5 1890   9.267   6.284   4.240
   60DA      C6 1891   9.158   6.374   4.261
   60DA      N6 1892   9.172   6.499   4.288
   60DA     H61 1893   9.092   6.556   4.323
   60DA     H62 1894   9.265   6.533   4.281
   60DA      N1 1895   9.034   6.334   4.269
   60DA      C2 1896   9.009   6.208   4.252
   60DA      H2 1897   8.905   6.176   4.261
   60DA      N3 1898   9.091   6.113   4.225
   60DA      C4 1899   9.223   6.156   4.224
   60DA     C3' 1900   9.488   5.756   4.097
   60DA     H3' 1901   9.589   5.733   4.050
   60DA     C2' 1902   9.418   5.894   4.064
   60DA    H2'1 1903   9.491   5.967   4.053
   60DA    H2'2 1904   9.350   5.891   3.979
   60DA     O3' 1905   9.393   5.649   4.074
   61DC       P 1906   9.382   5.577   3.939
   61DC     O1P 1907   9.317   5.444   3.967
   61DC     O2P 1908   9.506   5.575   3.858
   61DC     O5' 1909   9.271   5.675   3.867
   61DC     C5' 1910   9.134   5.667   3.906
   61DC    H5'1 1911   9.134   5.671   4.019
   61DC    H5'2 1912   9.085   5.568   3.882
   61DC     C4' 1913   9.052   5.775   3.839
   61DC     H4' 1914   8.953   5.748   3.833
   61DC     O4' 1915   9.083   5.895   3.898
   61DC     C1' 1916   9.095   5.997   3.806
   61DC     H1' 1917   8.990   6.020   3.775
   61DC      N1 1918   9.143   6.129   3.859
   61DC      C6 1919   9.275   6.149   3.869
   61DC      H6 1920   9.338   6.071   3.825
   61DC      C5 1921   9.330   6.266   3.909
   61DC      H5 1922   9.436   6.296   3.917
   61DC      C4 1923   9.233   6.372   3.924
   61DC      N4 1924   9.282   6.489   3.929
   61DC     H41 1925   9.216   6.566   3.935
   61DC     H42 1926   9.378   6.507   3.947
   61DC      N3 1927   9.103   6.358   3.911
   61DC      C2 1928   9.056   6.232   3.886
   61DC      O2 1929   8.928   6.211   3.884
   61DC     C3' 1930   9.087   5.799   3.685
   61DC     H3' 1931   9.145   5.712   3.646
   61DC     C2' 1932   9.169   5.926   3.693
   61DC    H2'1 1933   9.272   5.900   3.729
   61DC    H2'2 1934   9.167   5.985   3.596
   61DC     O3' 1935   8.964   5.822   3.620
   62DA       P 1936   8.904   5.733   3.504
   62DA     O1P 1937   8.850   5.614   3.573
   62DA     O2P 1938   9.000   5.723   3.391
   62DA     O5' 1939   8.773   5.819   3.465
   62DA     C5' 1940   8.645   5.813   3.531
   62DA    H5'1 1941   8.671   5.823   3.637
   62DA    H5'2 1942   8.604   5.710   3.515
   62DA     C4' 1943   8.547   5.914   3.480
   62DA     H4' 1944   8.452   5.893   3.530
   62DA     O4' 1945   8.590   6.035   3.535
   62DA     C1' 1946   8.625   6.122   3.431
   62DA     H1' 1947   8.543   6.195   3.417
   62DA      N9 1948   8.751   6.183   3.481
   62DA      C8 1949   8.879   6.126   3.485
   62DA      H8 1950   8.891   6.020   3.465
   62DA      N7 1951   8.976   6.203   3.518
   62DA      C5 1952   8.908   6.324   3.527
   62DA      C6 1953   8.949   6.458   3.564
   62DA      N6 1954   9.069   6.502   3.592
   62DA     H61 1955   9.078   6.602   3.619
   62DA     H62 1956   9.149   6.439   3.590
   62DA      N1 1957   8.868   6.563   3.561
   62DA      C2 1958   8.743   6.541   3.535
   62DA      H2 1959   8.682   6.627   3.548
   62DA      N3 1960   8.680   6.422   3.513
   62DA      C4 1961   8.774   6.315   3.513
   62DA     C3' 1962   8.534   5.928   3.331
   62DA     H3' 1963   8.566   5.842   3.274
   62DA     C2' 1964   8.630   6.046   3.306
   62DA    H2'1 1965   8.733   6.001   3.286
   62DA    H2'2 1966   8.605   6.110   3.222
   62DA     O3' 1967   8.405   5.969   3.295
   63DT       P 1968   8.356   5.977   3.139
   63DT     O1P 1969   8.211   5.938   3.139
   63DT     O2P 1970   8.444   5.904   3.044
   63DT     O5' 1971   8.369   6.130   3.105
   63DT     C5' 1972   8.295   6.231   3.176
   63DT    H5'1 1973   8.307   6.222   3.282
   63DT    H5'2 1974   8.187   6.217   3.159
   63DT     C4' 1975   8.333   6.376   3.131
   63DT     H4' 1976   8.264   6.451   3.164
   63DT     O4' 1977   8.458   6.410   3.175
   63DT     C1' 1978   8.528   6.484   3.075
   63DT     H1' 1979   8.506   6.592   3.093
   63DT      N1 1980   8.674   6.473   3.104
   63DT      C6 1981   8.733   6.350   3.102
   63DT      H6 1982   8.673   6.258   3.074
   63DT      C5 1983   8.858   6.326   3.145
   63DT      C7 1984   8.922   6.186   3.144
   63DT     H71 1985   8.953   6.149   3.244
   63DT     H72 1986   8.857   6.115   3.095
   63DT     H73 1987   9.013   6.198   3.085
   63DT      C4 1988   8.937   6.438   3.196
   63DT      O4 1989   9.047   6.437   3.246
   63DT      N3 1990   8.871   6.559   3.207
   63DT      H3 1991   8.920   6.639   3.248
   63DT      C2 1992   8.745   6.578   3.158
   63DT      O2 1993   8.701   6.691   3.167
   63DT     C3' 1994   8.338   6.402   2.979
   63DT     H3' 1995   8.322   6.307   2.925
   63DT     C2' 1996   8.480   6.430   2.945
   63DT    H2'1 1997   8.527   6.334   2.929
   63DT    H2'2 1998   8.489   6.492   2.861
   63DT     O3' 1999   8.243   6.498   2.943
   64DG       P 2000   8.201   6.527   2.791
   64DG     O1P 2001   8.068   6.587   2.809
   64DG     O2P 2002   8.222   6.400   2.710
   64DG     O5' 2003   8.301   6.638   2.729
   64DG     C5' 2004   8.296   6.773   2.767
   64DG    H5'1 2005   8.261   6.787   2.870
   64DG    H5'2 2006   8.222   6.817   2.698
   64DG     C4' 2007   8.436   6.851   2.777
   64DG     H4' 2008   8.428   6.943   2.837
   64DG     O4' 2009   8.531   6.764   2.837
   64DG     C1' 2010   8.657   6.827   2.832
   64DG     H1' 2011   8.665   6.907   2.905
   64DG      N9 2012   8.764   6.723   2.845
   64DG      C8 2013   8.764   6.596   2.808
   64DG      H8 2014   8.675   6.558   2.757
   64DG      N7 2015   8.867   6.524   2.838
   64DG      C5 2016   8.950   6.616   2.896
   64DG      C6 2017   9.083   6.604   2.949
   64DG      O6 2018   9.163   6.508   2.949
   64DG      N1 2019   9.137   6.728   2.989
   64DG      H1 2020   9.231   6.720   3.018
   64DG      C2 2021   9.072   6.847   2.989
   64DG      N2 2022   9.128   6.948   3.039
   64DG     H21 2023   9.222   6.942   3.072
   64DG     H22 2024   9.069   7.025   3.048
   64DG      N3 2025   8.946   6.868   2.940
   64DG      C4 2026   8.892   6.746   2.891
   64DG     C3' 2027   8.503   6.887   2.647
   64DG     H3' 2028   8.475   6.814   2.569
   64DG     C2' 2029   8.650   6.885   2.685
   64DG    H2'1 2030   8.709   6.818   2.623
   64DG    H2'2 2031   8.700   6.979   2.669
   64DG     O3' 2032   8.450   7.018   2.617
   65DC       P 2033   8.484   7.097   2.480
   65DC     O1P 2034   8.392   7.209   2.469
   65DC     O2P 2035   8.478   7.000   2.369
   65DC     O5' 2036   8.633   7.157   2.512
   65DC     C5' 2037   8.648   7.273   2.596
   65DC    H5'1 2038   8.640   7.243   2.694
   65DC    H5'2 2039   8.575   7.344   2.551
   65DC     C4' 2040   8.789   7.331   2.581
   65DC     H4' 2041   8.783   7.424   2.641
   65DC     O4' 2042   8.871   7.236   2.651
   65DC     C1' 2043   8.977   7.197   2.569
   65DC     H1' 2044   9.061   7.259   2.591
   65DC      N1 2045   9.022   7.051   2.586
   65DC      C6 2046   8.957   6.940   2.539
   65DC      H6 2047   8.867   6.962   2.481
   65DC      C5 2048   8.999   6.818   2.569
   65DC      H5 2049   8.944   6.738   2.530
   65DC      C4 2050   9.119   6.803   2.629
   65DC      N4 2051   9.158   6.681   2.653
   65DC     H41 2052   9.250   6.669   2.679
   65DC     H42 2053   9.095   6.606   2.642
   65DC      N3 2054   9.191   6.905   2.663
   65DC      C2 2055   9.145   7.026   2.646
   65DC      O2 2056   9.217   7.117   2.696
   65DC     C3' 2057   8.852   7.360   2.440
   65DC     H3' 2058   8.784   7.357   2.357
   65DC     C2' 2059   8.942   7.235   2.421
   65DC    H2'1 2060   8.897   7.161   2.361
   65DC    H2'2 2061   9.034   7.267   2.377
   65DC     O3' 2062   8.933   7.474   2.454
   66DG3      P 2063   9.017   7.549   2.332
   66DG3    O1P 2064   8.981   7.690   2.331
   66DG3    O2P 2065   9.007   7.472   2.204
   66DG3    O5' 2066   9.175   7.539   2.370
   66DG3    C5' 2067   9.212   7.600   2.495
   66DG3   H5'1 2068   9.150   7.552   2.572
   66DG3   H5'2 2069   9.196   7.707   2.486
   66DG3    C4' 2070   9.362   7.572   2.541
   66DG3    H4' 2071   9.390   7.612   2.637
   66DG3    O4' 2072   9.375   7.426   2.533
   66DG3    C1' 2073   9.455   7.386   2.424
   66DG3    H1' 2074   9.563   7.360   2.455
   66DG3     N9 2075   9.394   7.256   2.379
   66DG3     C8 2076   9.280   7.242   2.308
   66DG3     H8 2077   9.235   7.330   2.258
   66DG3     N7 2078   9.243   7.116   2.302
   66DG3     C5 2079   9.349   7.048   2.368
   66DG3     C6 2080   9.377   6.910   2.381
   66DG3     O6 2081   9.319   6.811   2.335
   66DG3     N1 2082   9.492   6.886   2.448
   66DG3     H1 2083   9.526   6.786   2.452
   66DG3     C2 2084   9.585   6.978   2.484
   66DG3     N2 2085   9.700   6.942   2.531
   66DG3    H21 2086   9.727   6.847   2.528
   66DG3    H22 2087   9.761   7.017   2.544
   66DG3     N3 2088   9.559   7.106   2.480
   66DG3     C4 2089   9.441   7.136   2.414
   66DG3    C3' 2090   9.462   7.622   2.435
   66DG3    H3' 2091   9.415   7.708   2.382
   66DG3    C2' 2092   9.473   7.508   2.336
   66DG3   H2'1 2093   9.397   7.511   2.258
   66DG3   H2'2 2094   9.575   7.506   2.292
   66DG3    O3' 2095   9.587   7.659   2.491
   66DG3    H3T 2096   9.590   7.754   2.520
   67SOL     OW 2097   2.456  11.707   2.265
   67SOL    HW1 2098   2.480  11.614   2.273
   67SOL    HW2 2099   2.463  11.725   2.172
   68SOL     OW 2100   3.619   1.692   4.864
   68SOL    HW1 2101   3.654   1.622   4.808
   68SOL    HW2 2102   3.644   1.666   4.953
   69SOL     OW 2103   7.097  14.431  11.572
   69SOL    HW1 2104   7.008  14.446  11.603
   69SOL    HW2 2105   7.095  14.343  11.535
   70SOL     OW 2106  13.934  10.903   3.160
   70SOL    HW1 2107  13.869  10.844   3.198
   70SOL    HW2 2108  14.019  10.865   3.184
   71SOL     OW 2109   3.345  11.102  12.715
   71SOL    HW1 2110   3.285  11.113  12.789
   71SOL    HW2 2111   3.432  11.102  12.755
   72SOL     OW 2112   4.803  11.217   7.574
   72SOL    HW1 2113   4.869  11.268   7.528
   72SOL    HW2 2114   4.852  11.158   7.630
   73SOL     OW 2115   9.354  12.111  13.902
   73SOL    HW1 2116   9.267  12.113  13.863
   73SOL    HW2 2117   9.346  12.164  13.981
   74SOL     OW 2118   6.979   9.335   2.020
   74SOL    HW1 2119   7.012   9.350   1.932
   74SOL    HW2 2120   7.029   9.260   2.052
   75SOL     OW 2121   5.790   9.399   0.993
   75SOL    HW1 2122   5.789   9.392   0.898
   75SOL    HW2 2123   5.790   9.494   1.010
   76SOL     OW 2124   1.037   2.254  10.030
   76SOL    HW1 2125   1.105   2.321  10.028
   76SOL    HW2 2126   1.057   2.197   9.955
   77SOL     OW 2127   8.145   2.743   9.322
   77SOL    HW1 2128   8.144   2.648   9.310
   77SOL    HW2 2129   8.193   2.757   9.403
   78SOL     OW 2130   7.600  10.718   7.773
   78SOL    HW1 2131   7.590  10.649   7.708
   78SOL    HW2 2132   7.661  10.780   7.733
   79SOL     OW 2133   3.332  13.528   8.177
   79SOL    HW1 2134   3.402  13.592   8.189
   79SOL    HW2 2135   3.259  13.578   8.141
   80SOL     OW 2136   9.759   5.508   2.692
   80SOL    HW1 2137   9.689   5.573   2.684
   80SOL    HW2 2138   9.743   5.447   2.620
   81SOL     OW 2139   1.700   8.501   3.571
   81SOL    HW1 2140   1.735   8.413   3.580
   81SOL    HW2 2141   1.667   8.523   3.658
   82SOL     OW 2142   0.649   1.596  11.125
   82SOL    HW1 2143   0.643   1.634  11.213
   82SOL    HW2 2144   0.576   1.635  11.077
   83SOL     OW 2145  10.732   6.100  14.528
   83SOL    HW1 2146  10.813   6.091  14.478
   83SOL    HW2 2147  10.665   6.063  14.470
   84SOL     OW 2148   7.118   4.941  10.159
   84SOL    HW1 2149   7.145   4.885  10.232
   84SOL    HW2 2150   7.090   4.880  10.091
   85SOL     OW 2151   8.350   6.906   1.325
   85SOL    HW1 2152   8.329   6.843   1.393
   85SOL    HW2 2153   8.265   6.939   1.296
   86SOL     OW 2154   0.779  10.845   8.353
   86SOL    HW1 2155   0.870  10.843   8.324
   86SOL    HW2 2156   0.743  10.761   8.325
   87SOL     OW 2157  12.174   7.934  10.501
   87SOL    HW1 2158  12.221   7.912  10.420
   87SOL    HW2 2159  12.089   7.891  10.492
   88SOL     OW 2160   5.643   9.097   5.806
   88SOL    HW1 2161   5.604   9.064   5.886
   88SOL    HW2 2162   5.599   9.181   5.790
   89SOL     OW 2163  14.458  14.392   1.871
   89SOL    HW1 2164  14.371  14.407   1.908
   89SOL    HW2 2165  14.462  14.298   1.856
   90SOL     OW 2166   0.297  14.205   8.450
   90SOL    HW1 2167   0.323  14.278   8.506
   90SOL    HW2 2168   0.203  14.196   8.464
   91SOL     OW 2169  12.754   7.778   7.744
   91SOL    HW1 2170  12.730   7.801   7.655
   91SOL    HW2 2171  12.706   7.839   7.800
   92SOL     OW 2172  11.769  12.827   6.649
   92SOL    HW1 2173  11.807  12.840   6.562
   92SOL    HW2 2174  11.708  12.899   6.660
   93SOL     OW 2175   0.745   7.292  14.632
   93SOL    HW1 2176   0.712   7.334  14.552
   93SOL    HW2 2177   0.788   7.213  14.601
   94SOL     OW 2178  13.811   4.246   5.639
   94SOL    HW1 2179  13.746   4.207   5.581
   94SOL    HW2 2180  13.762   4.277   5.715
   95SOL     OW 2181   7.442   2.270   3.702
   95SOL    HW1 2182   7.441   2.273   3.606
   95SOL    HW2 2183   7.487   2.350   3.729
   96SOL     OW 2184  10.745   3.049  10.926
   96SOL    HW1 2185  10.813   3.008  10.872
   96SOL    HW2 2186  10.787   3.127  10.962
   97SOL     OW 2187   3.194   4.702  11.786
   97SOL    HW1 2188   3.130   4.669  11.849
   97SOL    HW2 2189   3.204   4.794  11.807
   98SOL     OW 2190   7.194   1.548   7.368
   98SOL    HW1 2191   7.272   1.495   7.349
   98SOL    HW2 2192   7.226   1.619   7.424
   99SOL     OW 2193   7.388  14.562  14.669
   99SOL    HW1 2194   7.376  14.472  14.698
   99SOL    HW2 2195   7.402  14.611  14.750
  100SOL     OW 2196  13.386   5.472   9.382
  100SOL    HW1 2197  13.462   5.440   9.334
  100SOL    HW2 2198  13.364   5.401   9.442
  101SOL     OW 2199   3.100  12.926   0.583
  101SOL    HW1 2200   3.109  13.020   0.599
  101SOL    HW2 2201   3.121  12.885   0.667
  102SOL     OW 2202   4.331  10.448   6.890
  102SOL    HW1 2203   4.393  10.417   6.824
  102SOL    HW2 2204   4.386  10.481   6.960
  103SOL     OW 2205  13.873   3.211   6.916
  103SOL    HW1 2206  13.890   3.224   6.823
  103SOL    HW2 2207  13.958   3.187   6.953
  104SOL     OW 2208   1.346  12.409   1.483
  104SOL    HW1 2209   1.399  12.406   1.563
  104SOL    HW2 2210   1.270  12.355   1.503
  105SOL     OW 2211   7.403   3.328  11.866
  105SOL    HW1 2212   7.340   3.399  11.859
  105SOL    HW2 2213   7.484   3.370  11.895
  106SOL     OW 2214   2.145  14.810  11.977
  106SOL    HW1 2215   2.202   0.017  11.983
  106SOL    HW2 2216   2.186  14.745  12.034
  107SOL     OW 2217   5.646   4.416   5.571
  107SOL    HW1 2218   5.650   4.324   5.596
  107SOL    HW2 2219   5.667   4.417   5.478
  108SOL     OW 2220   9.879   7.090   2.700
  108SOL    HW1 2221   9.796   7.047   2.721
  108SOL    HW2 2222   9.926   7.091   2.783
  109SOL     OW 2223   1.874   1.897  14.079
  109SOL    HW1 2224   1.832   1.889  14.165
  109SOL    HW2 2225   1.835   1.975  14.040
  110SOL     OW 2226   9.479   0.980   6.447
  110SOL    HW1 2227   9.565   0.951   6.477
  110SOL    HW2 2228   9.469   0.943   6.360
  111SOL     OW 2229  11.456   1.417  13.819
  111SOL    HW1 2230  11.389   1.382  13.877
  111SOL    HW2 2231  11.460   1.511  13.840
  112SOL     OW 2232  12.139   6.801   9.435
  112SOL    HW1 2233  12.151   6.728   9.373
  112SOL    HW2 2234  12.225   6.844   9.437
  113SOL     OW 2235  12.133   2.765  14.693
  113SOL    HW1 2236  12.217   2.807  14.677
  113SOL    HW2 2237  12.077   2.795  14.621
  114SOL     OW 2238  11.711  10.217   9.432
  114SOL    HW1 2239  11.762  10.237   9.511
  114SOL    HW2 2240  11.689  10.303   9.395
  115SOL     OW 2241   8.376  10.519   1.897
  115SOL    HW1 2242   8.367  10.602   1.850
  115SOL    HW2 2243   8.288  10.501   1.930
  116SOL     OW 2244   7.105  12.496   4.166
  116SOL    HW1 2245   7.027  12.518   4.217
  116SOL    HW2 2246   7.141  12.581   4.140
  117SOL     OW 2247   1.876   9.983   0.536
  117SOL    HW1 2248   1.914   9.937   0.461
  117SOL    HW2 2249   1.907  10.073   0.527
  118SOL     OW 2250   9.776   7.809   1.254
  118SOL    HW1 2251   9.810   7.792   1.342
  118SOL    HW2 2252   9.710   7.742   1.241
  119SOL     OW 2253   9.099   2.088   4.038
  119SOL    HW1 2254   9.087   2.059   3.948
  119SOL    HW2 2255   9.024   2.144   4.056
  120SOL     OW 2256   3.012   0.044   6.657
  120SOL    HW1 2257   3.014   0.117   6.719
  120SOL    HW2 2258   2.919   0.032   6.638
  121SOL     OW 2259  13.257   9.652   3.833
  121SOL    HW1 2260  13.313   9.706   3.890
  121SOL    HW2 2261  13.182   9.630   3.888
  122SOL     OW 2262  10.112   5.499  11.228
  122SOL    HW1 2263  10.111   5.404  11.223
  122SOL    HW2 2264  10.204   5.523  11.217
  123SOL     OW 2265  13.031  10.582   6.758
  123SOL    HW1 2266  13.117  10.624   6.770
  123SOL    HW2 2267  13.042  10.527   6.681
  124SOL     OW 2268   8.940  12.240  11.672
  124SOL    HW1 2269   8.908  12.328  11.693
  124SOL    HW2 2270   8.895  12.183  11.734
  125SOL     OW 2271  11.027   9.320  10.621
  125SOL    HW1 2272  11.018   9.265  10.699
  125SOL    HW2 2273  11.069   9.263  10.557
  126SOL     OW 2274  12.092  10.848  13.858
  126SOL    HW1 2275  12.135  10.777  13.905
  126SOL    HW2 2276  12.046  10.898  13.925
  127SOL     OW 2277   7.847   2.273  14.377
  127SOL    HW1 2278   7.835   2.256  14.470
  127SOL    HW2 2279   7.896   2.355  14.373
  128SOL     OW 2280   6.012   8.422  12.288
  128SOL    HW1 2281   5.976   8.399  12.202
  128SOL    HW2 2282   5.959   8.371  12.350
  129SOL     OW 2283   9.914  11.362   0.828
  129SOL    HW1 2284   9.971  11.350   0.751
  129SOL    HW2 2285   9.936  11.450   0.859
  130SOL     OW 2286   3.631   2.708   6.367
  130SOL    HW1 2287   3.654   2.639   6.429
  130SOL    HW2 2288   3.613   2.784   6.422
  131SOL     OW 2289   0.631   0.424  10.206
  131SOL    HW1 2290   0.675   0.350  10.248
  131SOL    HW2 2291   0.667   0.501  10.250
  132SOL     OW 2292   9.563   0.175   4.766
  132SOL    HW1 2293   9.601   0.088   4.755
  132SOL    HW2 2294   9.553   0.208   4.677
  133SOL     OW 2295   8.546   6.568   8.828
  133SOL    HW1 2296   8.633   6.599   8.850
  133SOL    HW2 2297   8.487   6.639   8.855
  134SOL     OW 2298   3.910   0.192   8.467
  134SOL    HW1 2299   3.818   0.195   8.441
  134SOL    HW2 2300   3.913   0.236   8.552
  135SOL     OW 2301   3.527  14.831   8.246
  135SOL    HW1 2302   3.572   0.030   8.197
  135SOL    HW2 2303   3.587  14.809   8.317
  136SOL     OW 2304   1.568   1.992  14.073
  136SOL    HW1 2305   1.625   2.001  13.996
  136SOL    HW2 2306   1.581   2.074  14.122
  137SOL     OW 2307  10.354   8.680   1.492
  137SOL    HW1 2308  10.316   8.592   1.500
  137SOL    HW2 2309  10.447   8.668   1.511
  138SOL     OW 2310  10.354   2.492  12.541
  138SOL    HW1 2311  10.308   2.440  12.606
  138SOL    HW2 2312  10.285   2.525  12.483
  139SOL     OW 2313   4.898   1.208   5.859
  139SOL    HW1 2314   4.935   1.195   5.772
  139SOL    HW2 2315   4.864   1.123   5.884
  140SOL     OW 2316   3.051   1.843   6.916
  140SOL    HW1 2317   3.112   1.916   6.923
  140SOL    HW2 2318   3.104   1.765   6.934
  141SOL     OW 2319  12.229   5.661   6.876
  141SOL    HW1 2320  12.206   5.604   6.949
  141SOL    HW2 2321  12.171   5.634   6.805
  142SOL     OW 2322  13.043   0.434   2.498
  142SOL    HW1 2323  13.005   0.386   2.572
  142SOL    HW2 2324  13.045   0.525   2.528
  143SOL     OW 2325   1.084  14.775  11.178
  143SOL    HW1 2326   1.176  14.784  11.153
  143SOL    HW2 2327   1.036  14.813  11.105
  144SOL     OW 2328   4.653   1.431  13.741
  144SOL    HW1 2329   4.690   1.507  13.696
  144SOL    HW2 2330   4.684   1.356  13.690
  145SOL     OW 2331  11.331   7.692   4.349
  145SOL    HW1 2332  11.420   7.727   4.356
  145SOL    HW2 2333  11.306   7.670   4.438
  146SOL     OW 2334   0.696   9.420  13.444
  146SOL    HW1 2335   0.768   9.482  13.450
  146SOL    HW2 2336   0.732   9.338  13.478
  147SOL     OW 2337   9.423  14.665   8.101
  147SOL    HW1 2338   9.456  14.605   8.035
  147SOL    HW2 2339   9.454  14.751   8.074
  148SOL     OW 2340   5.842   3.457   5.806
  148SOL    HW1 2341   5.821   3.464   5.899
  148SOL    HW2 2342   5.924   3.507   5.796
  149SOL     OW 2343   0.141   5.129  11.715
  149SOL    HW1 2344   0.151   5.035  11.698
  149SOL    HW2 2345   0.193   5.145  11.794
  150SOL     OW 2346   2.532  12.349  13.064
  150SOL    HW1 2347   2.452  12.296  13.063
  150SOL    HW2 2348   2.509  12.427  13.013
  151SOL     OW 2349  11.475   0.295   8.456
  151SOL    HW1 2350  11.511   0.212   8.487
  151SOL    HW2 2351  11.486   0.291   8.361
  152SOL     OW 2352  14.168   8.698   0.778
  152SOL    HW1 2353  14.232   8.639   0.819
  152SOL    HW2 2354  14.186   8.783   0.817
  153SOL     OW 2355  13.546   6.825   5.560
  153SOL    HW1 2356  13.596   6.851   5.483
  153SOL    HW2 2357  13.548   6.901   5.618
  154SOL     OW 2358   3.854  10.899   8.174
  154SOL    HW1 2359   3.800  10.929   8.101
  154SOL    HW2 2360   3.861  10.976   8.231
  155SOL     OW 2361   6.564   7.468   4.949
  155SOL    HW1 2362   6.586   7.540   5.008
  155SOL    HW2 2363   6.600   7.390   4.992
  156SOL     OW 2364   2.991   4.925   8.588
  156SOL    HW1 2365   2.920   4.866   8.561
  156SOL    HW2 2366   2.948   4.990   8.644
  157SOL     OW 2367  10.289   5.733  12.609
  157SOL    HW1 2368  10.293   5.770  12.520
  157SOL    HW2 2369  10.201   5.697  12.616
  158SOL     OW 2370   7.648   2.524   2.157
  158SOL    HW1 2371   7.723   2.466   2.152
  158SOL    HW2 2372   7.638   2.542   2.251
  159SOL     OW 2373  14.514   2.461  14.288
  159SOL    HW1 2374  14.582   2.493  14.229
  159SOL    HW2 2375  14.462   2.401  14.234
  160SOL     OW 2376   2.929   3.359   3.238
  160SOL    HW1 2377   2.852   3.400   3.277
  160SOL    HW2 2378   2.995   3.360   3.308
  161SOL     OW 2379   7.189  12.826  11.707
  161SOL    HW1 2380   7.219  12.907  11.667
  161SOL    HW2 2381   7.159  12.852  11.795
  162SOL     OW 2382  10.513  11.945   3.242
  162SOL    HW1 2383  10.555  11.999   3.175
  162SOL    HW2 2384  10.420  11.967   3.236
  163SOL     OW 2385  12.959  13.851   2.343
  163SOL    HW1 2386  12.902  13.922   2.372
  163SOL    HW2 2387  13.015  13.833   2.418
  164SOL     OW 2388   5.063   3.568   1.023
  164SOL    HW1 2389   5.148   3.564   1.067
  164SOL    HW2 2390   5.069   3.646   0.966
  165SOL     OW 2391   3.313   2.436  10.785
  165SOL    HW1 2392   3.300   2.424  10.691
  165SOL    HW2 2393   3.257   2.510  10.808
  166SOL     OW 2394  14.425   0.198  13.767
  166SOL    HW1 2395  14.407   0.292  13.771
  166SOL    HW2 2396  14.497   0.191  13.704
  167SOL     OW 2397   3.339   1.562   3.646
  167SOL    HW1 2398   3.378   1.583   3.561
  167SOL    HW2 2399   3.259   1.614   3.649
  168SOL     OW 2400   0.639   4.135   6.591
  168SOL    HW1 2401   0.646   4.079   6.669
  168SOL    HW2 2402   0.720   4.118   6.542
  169SOL     OW 2403  13.158  14.472  12.936
  169SOL    HW1 2404  13.084  14.496  12.881
  169SOL    HW2 2405  13.230  14.458  12.874
  170SOL     OW 2406   3.176   4.526  11.585
  170SOL    HW1 2407   3.196   4.440  11.621
  170SOL    HW2 2408   3.175   4.584  11.661
  171SOL     OW 2409  13.369  10.413   1.415
  171SOL    HW1 2410  13.314  10.490   1.407
  171SOL    HW2 2411  13.321  10.355   1.475
  172SOL     OW 2412   5.781   2.219  12.137
  172SOL    HW1 2413   5.792   2.197  12.044
  172SOL    HW2 2414   5.856   2.275  12.157
  173SOL     OW 2415   2.402  12.665  13.213
  173SOL    HW1 2416   2.379  12.758  13.213
  173SOL    HW2 2417   2.452  12.653  13.132
  174SOL     OW 2418  11.891   1.467  10.614
  174SOL    HW1 2419  11.963   1.524  10.589
  174SOL    HW2 2420  11.828   1.525  10.657
  175SOL     OW 2421   5.824  10.592   5.322
  175SOL    HW1 2422   5.753  10.653   5.303
  175SOL    HW2 2423   5.867  10.627   5.399
  176SOL     OW 2424  11.129   4.606   0.578
  176SOL    HW1 2425  11.056   4.582   0.635
  176SOL    HW2 2426  11.092   4.608   0.490
  177SOL     OW 2427   6.504   0.298   0.562
  177SOL    HW1 2428   6.540   0.223   0.514
  177SOL    HW2 2429   6.527   0.374   0.509
  178SOL     OW 2430  11.117   4.608  11.242
  178SOL    HW1 2431  11.193   4.608  11.301
  178SOL    HW2 2432  11.088   4.517  11.241
  179SOL     OW 2433   5.306  11.875   3.673
  179SOL    HW1 2434   5.284  11.845   3.585
  179SOL    HW2 2435   5.225  11.916   3.705
  180SOL     OW 2436   3.536   5.928  10.992
  180SOL    HW1 2437   3.541   6.002  11.052
  180SOL    HW2 2438   3.590   5.954  10.918
  181SOL     OW 2439  11.608   8.461  12.355
  181SOL    HW1 2440  11.542   8.529  12.363
  181SOL    HW2 2441  11.660   8.486  12.279
  182SOL     OW 2442   6.835   3.910  12.316
  182SOL    HW1 2443   6.887   3.990  12.318
  182SOL    HW2 2444   6.826   3.884  12.407
  183SOL     OW 2445   6.350  13.456   6.533
  183SOL    HW1 2446   6.268  13.467   6.485
  183SOL    HW2 2447   6.336  13.501   6.616
  184SOL     OW 2448   8.364   3.501   2.307
  184SOL    HW1 2449   8.446   3.504   2.357
  184SOL    HW2 2450   8.312   3.435   2.352
  185SOL     OW 2451   6.634   8.390   4.843
  185SOL    HW1 2452   6.553   8.419   4.885
  185SOL    HW2 2453   6.687   8.468   4.836
  186SOL     OW 2454   2.813   7.549   3.455
  186SOL    HW1 2455   2.802   7.641   3.475
  186SOL    HW2 2456   2.901   7.543   3.418
  187SOL     OW 2457  11.347  11.654  10.379
  187SOL    HW1 2458  11.388  11.595  10.316
  187SOL    HW2 2459  11.329  11.599  10.455
  188SOL     OW 2460   2.310  10.246   0.377
  188SOL    HW1 2461   2.262  10.235   0.294
  188SOL    HW2 2462   2.381  10.306   0.355
  189SOL     OW 2463  11.898   0.072   0.681
  189SOL    HW1 2464  11.818   0.081   0.734
  189SOL    HW2 2465  11.883  14.863   0.628
  190SOL     OW 2466   4.106   8.253  10.144
  190SOL    HW1 2467   4.031   8.279  10.090
  190SOL    HW2 2468   4.121   8.327  10.203
  191SOL     OW 2469   6.276  12.341   4.741
  191SOL    HW1 2470   6.196  12.379   4.777
  191SOL    HW2 2471   6.271  12.248   4.765
  192SOL     OW 2472  12.318  12.321   7.257
  192SOL    HW1 2473  12.402  12.363   7.272
  192SOL    HW2 2474  12.330  12.231   7.288
  193SOL     OW 2475  14.639   8.854   9.100
  193SOL    HW1 2476  14.583   8.887   9.030
  193SOL    HW2 2477  14.710   8.809   9.054
  194SOL     OW 2478   8.678  14.788   4.651
  194SOL    HW1 2479   8.599  14.733   4.656
  194SOL    HW2 2480   8.651   0.003   4.685
  195SOL     OW 2481   0.634  13.182  13.819
  195SOL    HW1 2482   0.713  13.233  13.799
  195SOL    HW2 2483   0.664  13.117  13.882
  196SOL     OW 2484   6.436  12.195   1.879
  196SOL    HW1 2485   6.436  12.251   1.801
  196SOL    HW2 2486   6.397  12.249   1.947
  197SOL     OW 2487  14.173   5.119   1.798
  197SOL    HW1 2488  14.198   5.107   1.890
  197SOL    HW2 2489  14.250   5.157   1.757
  198SOL     OW 2490   1.534   7.429   8.261
  198SOL    HW1 2491   1.605   7.464   8.314
  198SOL    HW2 2492   1.455   7.447   8.312
  199SOL     OW 2493   1.857   8.972  12.888
  199SOL    HW1 2494   1.932   9.031  12.879
  199SOL    HW2 2495   1.789   9.011  12.832
  200SOL     OW 2496   2.853  10.548  14.689
  200SOL    HW1 2497   2.797  10.484  14.645
  200SOL    HW2 2498   2.909  10.582  14.619
  201SOL     OW 2499  13.189   1.966   3.491
  201SOL    HW1 2500  13.113   1.996   3.541
  201SOL    HW2 2501  13.205   1.878   3.523
  202SOL     OW 2502  11.316   2.026  10.030
  202SOL    HW1 2503  11.269   2.083  10.092
  202SOL    HW2 2504  11.395   2.000  10.077
  203SOL     OW 2505   6.201   8.445  10.550
  203SOL    HW1 2506   6.176   8.368  10.500
  203SOL    HW2 2507   6.296   8.435  10.564
  204SOL     OW 2508   7.693  13.584   3.873
  204SOL    HW1 2509   7.608  13.619   3.899
  204SOL    HW2 2510   7.755  13.654   3.892
  205SOL     OW 2511   8.223   1.167   2.213
  205SOL    HW1 2512   8.234   1.250   2.259
  205SOL    HW2 2513   8.129   1.148   2.218
  206SOL     OW 2514   5.746  10.887  12.505
  206SOL    HW1 2515   5.796  10.929  12.435
  206SOL    HW2 2516   5.786  10.919  12.586
  207SOL     OW 2517   0.186   9.975   9.858
  207SOL    HW1 2518   0.144   9.956   9.774
  207SOL    HW2 2519   0.202  10.069   9.856
  208SOL     OW 2520   2.445  11.469   9.855
  208SOL    HW1 2521   2.381  11.539   9.863
  208SOL    HW2 2522   2.442  11.424   9.940
  209SOL     OW 2523   4.302  11.832   1.006
  209SOL    HW1 2524   4.276  11.751   0.962
  209SOL    HW2 2525   4.324  11.892   0.934
  210SOL     OW 2526   6.882   8.769   4.083
  210SOL    HW1 2527   6.823   8.733   4.149
  210SOL    HW2 2528   6.829   8.835   4.037
  211SOL     OW 2529   1.541   5.002   1.910
  211SOL    HW1 2530   1.549   5.035   1.999
  211SOL    HW2 2531   1.631   4.999   1.877
  212SOL     OW 2532   9.060   8.359   2.245
  212SOL    HW1 2533   9.063   8.448   2.209
  212SOL    HW2 2534   9.060   8.372   2.340
  213SOL     OW 2535   0.823   7.378   5.126
  213SOL    HW1 2536   0.834   7.368   5.032
  213SOL    HW2 2537   0.765   7.306   5.152
  214SOL     OW 2538   3.902   7.316  13.815
  214SOL    HW1 2539   3.884   7.379  13.885
  214SOL    HW2 2540   3.815   7.282  13.792
  215SOL     OW 2541   2.101  11.525   3.159
  215SOL    HW1 2542   2.133  11.475   3.084
  215SOL    HW2 2543   2.054  11.461   3.213
  216SOL     OW 2544  11.555   6.649   6.358
  216SOL    HW1 2545  11.593   6.695   6.433
  216SOL    HW2 2546  11.480   6.703   6.332
  217SOL     OW 2547   1.005  11.992   6.426
  217SOL    HW1 2548   1.086  12.027   6.389
  217SOL    HW2 2549   0.944  12.066   6.425
  218SOL     OW 2550  13.876   5.303   2.982
  218SOL    HW1 2551  13.834   5.257   3.054
  218SOL    HW2 2552  13.820   5.380   2.967
  219SOL     OW 2553   0.889   8.659  11.106
  219SOL    HW1 2554   0.967   8.603  11.106
  219SOL    HW2 2555   0.907   8.725  11.173
  220SOL     OW 2556  14.641   0.848   4.785
  220SOL    HW1 2557  14.605   0.920   4.735
  220SOL    HW2 2558  14.594   0.851   4.868
  221SOL     OW 2559  11.218  12.605   9.847
  221SOL    HW1 2560  11.127  12.580   9.828
  221SOL    HW2 2561  11.267  12.523   9.838
  222SOL     OW 2562   6.258  11.586   5.754
  222SOL    HW1 2563   6.331  11.529   5.780
  222SOL    HW2 2564   6.230  11.628   5.835
  223SOL     OW 2565   8.997   1.795   2.695
  223SOL    HW1 2566   8.998   1.726   2.762
  223SOL    HW2 2567   9.089   1.820   2.686
  224SOL     OW 2568   7.972   1.726   9.857
  224SOL    HW1 2569   7.940   1.738   9.768
  224SOL    HW2 2570   7.945   1.804   9.903
  225SOL     OW 2571   6.020   7.585  11.416
  225SOL    HW1 2572   6.082   7.578  11.344
  225SOL    HW2 2573   5.985   7.674  11.408
  226SOL     OW 2574   6.757   5.617  10.664
  226SOL    HW1 2575   6.708   5.587  10.588
  226SOL    HW2 2576   6.754   5.713  10.657
  227SOL     OW 2577   4.507   4.573  12.753
  227SOL    HW1 2578   4.537   4.503  12.810
  227SOL    HW2 2579   4.411   4.565  12.753
  228SOL     OW 2580   8.646  13.403  10.740
  228SOL    HW1 2581   8.720  13.462  10.728
  228SOL    HW2 2582   8.598  13.406  10.657
  229SOL     OW 2583   2.528  14.602   8.340
  229SOL    HW1 2584   2.531  14.614   8.435
  229SOL    HW2 2585   2.541  14.691   8.305
  230SOL     OW 2586  10.838  11.047  10.805
  230SOL    HW1 2587  10.852  11.037  10.711
  230SOL    HW2 2588  10.878  10.969  10.844
  231SOL     OW 2589   8.413   9.590   8.229
  231SOL    HW1 2590   8.320   9.598   8.205
  231SOL    HW2 2591   8.427   9.496   8.238
  232SOL     OW 2592   0.336   9.220   9.796
  232SOL    HW1 2593   0.306   9.213   9.887
  232SOL    HW2 2594   0.409   9.159   9.789
  233SOL     OW 2595  10.579   8.598   2.724
  233SOL    HW1 2596  10.626   8.570   2.802
  233SOL    HW2 2597  10.544   8.684   2.746
  234SOL     OW 2598   8.235   4.278  10.453
  234SOL    HW1 2599   8.218   4.364  10.415
  234SOL    HW2 2600   8.329   4.265  10.442
  235SOL     OW 2601  12.269   7.512   8.252
  235SOL    HW1 2602  12.335   7.468   8.305
  235SOL    HW2 2603  12.187   7.467   8.271
  236SOL     OW 2604  14.388   4.972  13.284
  236SOL    HW1 2605  14.406   4.912  13.211
  236SOL    HW2 2606  14.312   4.934  13.328
  237SOL     OW 2607  12.373   9.872   0.361
  237SOL    HW1 2608  12.361   9.952   0.310
  237SOL    HW2 2609  12.384   9.803   0.296
  238SOL     OW 2610  10.820   1.428   1.642
  238SOL    HW1 2611  10.859   1.348   1.608
  238SOL    HW2 2612  10.884   1.496   1.621
  239SOL     OW 2613   8.894   1.176  11.556
  239SOL    HW1 2614   8.875   1.092  11.515
  239SOL    HW2 2615   8.886   1.159  11.650
  240SOL     OW 2616   5.262   3.720   6.763
  240SOL    HW1 2617   5.239   3.726   6.856
  240SOL    HW2 2618   5.350   3.757   6.758
  241SOL     OW 2619   3.776   1.925   1.082
  241SOL    HW1 2620   3.757   1.932   1.176
  241SOL    HW2 2621   3.829   2.002   1.062
  242SOL     OW 2622  11.613  13.017   6.440
  242SOL    HW1 2623  11.523  13.032   6.411
  242SOL    HW2 2624  11.647  12.952   6.379
  243SOL     OW 2625  10.020   3.762  14.209
  243SOL    HW1 2626  10.093   3.772  14.148
  243SOL    HW2 2627  10.031   3.834  14.271
  244SOL     OW 2628   3.152   9.942   1.147
  244SOL    HW1 2629   3.238   9.977   1.125
  244SOL    HW2 2630   3.120   9.999   1.217
  245SOL     OW 2631   7.199   6.689   7.522
  245SOL    HW1 2632   7.257   6.762   7.541
  245SOL    HW2 2633   7.215   6.669   7.430
  246SOL     OW 2634  11.101   4.265   5.371
  246SOL    HW1 2635  11.149   4.333   5.420
  246SOL    HW2 2636  11.019   4.254   5.419
  247SOL     OW 2637   4.445  14.340   3.372
  247SOL    HW1 2638   4.510  14.410   3.369
  247SOL    HW2 2639   4.458  14.297   3.456
  248SOL     OW 2640   4.092   9.551   5.558
  248SOL    HW1 2641   4.138   9.468   5.572
  248SOL    HW2 2642   4.004   9.536   5.593
  249SOL     OW 2643   3.286   5.108  10.662
  249SOL    HW1 2644   3.323   5.098  10.750
  249SOL    HW2 2645   3.362   5.108  10.604
  250SOL     OW 2646  11.580  10.741   0.544
  250SOL    HW1 2647  11.529  10.818   0.517
  250SOL    HW2 2648  11.543  10.717   0.629
  251SOL     OW 2649  14.763   4.611   0.167
  251SOL    HW1 2650  14.795   4.548   0.231
  251SOL    HW2 2651  14.694   4.564   0.120
  252SOL     OW 2652   8.688   0.433   1.266
  252SOL    HW1 2653   8.600   0.445   1.302
  252SOL    HW2 2654   8.680   0.357   1.209
  253SOL     OW 2655  11.501  11.853   8.898
  253SOL    HW1 2656  11.546  11.848   8.983
  253SOL    HW2 2657  11.521  11.940   8.865
  254SOL     OW 2658   9.836   0.945  12.932
  254SOL    HW1 2659   9.848   0.854  12.959
  254SOL    HW2 2660   9.884   0.996  12.997
  255SOL     OW 2661   3.453   4.504  11.568
  255SOL    HW1 2662   3.483   4.572  11.628
  255SOL    HW2 2663   3.367   4.535  11.537
  256SOL     OW 2664   0.442  13.016  13.921
  256SOL    HW1 2665   0.491  13.095  13.899
  256SOL    HW2 2666   0.351  13.038  13.901
  257SOL     OW 2667   8.383   7.205  13.251
  257SOL    HW1 2668   8.363   7.279  13.193
  257SOL    HW2 2669   8.446   7.241  13.313
  258SOL     OW 2670   8.217   5.787   0.129
  258SOL    HW1 2671   8.268   5.706   0.130
  258SOL    HW2 2672   8.129   5.760   0.103
  259SOL     OW 2673   2.254  12.633   7.846
  259SOL    HW1 2674   2.307  12.577   7.788
  259SOL    HW2 2675   2.283  12.722   7.826
  260SOL     OW 2676  13.757  14.661   3.771
  260SOL    HW1 2677  13.786  14.732   3.714
  260SOL    HW2 2678  13.705  14.704   3.839
  261SOL     OW 2679   4.729   4.821   9.600
  261SOL    HW1 2680   4.791   4.749   9.591
  261SOL    HW2 2681   4.683   4.803   9.682
  262SOL     OW 2682   6.429  14.048   8.715
  262SOL    HW1 2683   6.426  13.953   8.712
  262SOL    HW2 2684   6.380  14.071   8.794
  263SOL     OW 2685  11.945   5.480  14.398
  263SOL    HW1 2686  11.869   5.464  14.454
  263SOL    HW2 2687  11.923   5.437  14.315
  264SOL     OW 2688   0.869  12.868   5.083
  264SOL    HW1 2689   0.871  12.825   5.169
  264SOL    HW2 2690   0.777  12.870   5.059
  265SOL     OW 2691   9.700   6.626   7.956
  265SOL    HW1 2692   9.764   6.692   7.928
  265SOL    HW2 2693   9.689   6.569   7.880
  266SOL     OW 2694   3.810   3.655   1.497
  266SOL    HW1 2695   3.825   3.562   1.481
  266SOL    HW2 2696   3.854   3.700   1.425
  267SOL     OW 2697  13.798   1.838   1.607
  267SOL    HW1 2698  13.715   1.880   1.629
  267SOL    HW2 2699  13.848   1.840   1.689
  268SOL     OW 2700  10.413  14.343   2.181
  268SOL    HW1 2701  10.381  14.425   2.143
  268SOL    HW2 2702  10.382  14.345   2.272
  269SOL     OW 2703   2.712   4.039   6.329
  269SOL    HW1 2704   2.670   4.003   6.251
  269SOL    HW2 2705   2.763   3.966   6.363
  270SOL     OW 2706   6.319   7.011   8.957
  270SOL    HW1 2707   6.323   6.953   8.881
  270SOL    HW2 2708   6.345   7.097   8.924
  271SOL     OW 2709   4.891   9.215   2.121
  271SOL    HW1 2710   4.961   9.247   2.178
  271SOL    HW2 2711   4.825   9.285   2.121
  272SOL     OW 2712   0.531   2.145  13.639
  272SOL    HW1 2713   0.514   2.238  13.625
  272SOL    HW2 2714   0.556   2.139  13.732
  273SOL     OW 2715   7.336  14.033  11.884
  273SOL    HW1 2716   7.272  14.049  11.954
  273SOL    HW2 2717   7.316  14.099  11.818
  274SOL     OW 2718  10.031   3.203  14.418
  274SOL    HW1 2719  10.085   3.194  14.339
  274SOL    HW2 2720   9.942   3.189  14.388
  275SOL     OW 2721   1.096   6.461  11.790
  275SOL    HW1 2722   1.050   6.458  11.874
  275SOL    HW2 2723   1.189   6.464  11.813
  276SOL     OW 2724   8.307   4.205   8.419
  276SOL    HW1 2725   8.338   4.293   8.437
  276SOL    HW2 2726   8.382   4.161   8.379
  277SOL     OW 2727   2.995  10.206  13.570
  277SOL    HW1 2728   3.042  10.146  13.627
  277SOL    HW2 2729   2.928  10.152  13.527
  278SOL     OW 2730   6.441   5.147   8.502
  278SOL    HW1 2731   6.461   5.198   8.424
  278SOL    HW2 2732   6.409   5.212   8.565
  279SOL     OW 2733   2.393   7.061   3.500
  279SOL    HW1 2734   2.406   7.095   3.588
  279SOL    HW2 2735   2.365   6.970   3.513
  280SOL     OW 2736   5.435   7.468   1.538
  280SOL    HW1 2737   5.357   7.415   1.553
  280SOL    HW2 2738   5.495   7.410   1.491
  281SOL     OW 2739  10.973  13.591   2.313
  281SOL    HW1 2740  10.942  13.632   2.232
  281SOL    HW2 2741  11.059  13.555   2.291
  282SOL     OW 2742   6.078  11.272   2.417
  282SOL    HW1 2743   6.039  11.291   2.331
  282SOL    HW2 2744   6.164  11.235   2.397
  283SOL     OW 2745  12.002   0.983   3.111
  283SOL    HW1 2746  11.981   0.928   3.186
  283SOL    HW2 2747  11.965   1.069   3.133
  284SOL     OW 2748   5.463   4.367   1.143
  284SOL    HW1 2749   5.550   4.333   1.124
  284SOL    HW2 2750   5.420   4.376   1.058
  285SOL     OW 2751  10.148  12.469  11.821
  285SOL    HW1 2752  10.184  12.404  11.880
  285SOL    HW2 2753  10.104  12.417  11.753
  286SOL     OW 2754   9.875   9.715   8.991
  286SOL    HW1 2755   9.828   9.753   9.066
  286SOL    HW2 2756   9.820   9.735   8.916
  287SOL     OW 2757  14.220   3.826   2.452
  287SOL    HW1 2758  14.141   3.860   2.411
  287SOL    HW2 2759  14.189   3.782   2.532
  288SOL     OW 2760   0.441   7.024   0.459
  288SOL    HW1 2761   0.405   7.044   0.546
  288SOL    HW2 2762   0.437   7.107   0.412
  289SOL     OW 2763   4.872  13.124   0.210
  289SOL    HW1 2764   4.912  13.050   0.255
  289SOL    HW2 2765   4.807  13.159   0.272
  290SOL     OW 2766  13.891   7.042  10.681
  290SOL    HW1 2767  13.855   6.958  10.654
  290SOL    HW2 2768  13.817   7.103  10.676
  291SOL     OW 2769   5.510   9.300  14.601
  291SOL    HW1 2770   5.522   9.228  14.663
  291SOL    HW2 2771   5.572   9.282  14.531
  292SOL     OW 2772  12.738  13.443   6.654
  292SOL    HW1 2773  12.644  13.423   6.657
  292SOL    HW2 2774  12.742  13.532   6.619
  293SOL     OW 2775   2.226   7.598   4.434
  293SOL    HW1 2776   2.258   7.665   4.374
  293SOL    HW2 2777   2.291   7.595   4.504
  294SOL     OW 2778   1.535   2.503   4.874
  294SOL    HW1 2779   1.541   2.550   4.790
  294SOL    HW2 2780   1.588   2.425   4.861
  295SOL     OW 2781  13.337  11.471  12.112
  295SOL    HW1 2782  13.257  11.492  12.160
  295SOL    HW2 2783  13.403  11.459  12.180
  296SOL     OW 2784   0.747   0.580  14.057
  296SOL    HW1 2785   0.837   0.555  14.037
  296SOL    HW2 2786   0.747   0.595  14.152
  297SOL     OW 2787   6.623   1.767   4.311
  297SOL    HW1 2788   6.591   1.679   4.329
  297SOL    HW2 2789   6.718   1.760   4.320
  298SOL     OW 2790  13.112  10.948   6.153
  298SOL    HW1 2791  13.039  10.956   6.214
  298SOL    HW2 2792  13.164  10.875   6.187
  299SOL     OW 2793   8.865   0.371  10.865
  299SOL    HW1 2794   8.857   0.339  10.955
  299SOL    HW2 2795   8.890   0.464  10.875
  300SOL     OW 2796   7.823  10.845  11.087
  300SOL    HW1 2797   7.835  10.836  10.993
  300SOL    HW2 2798   7.905  10.884  11.118
  301SOL     OW 2799  11.802   5.759   8.188
  301SOL    HW1 2800  11.802   5.772   8.093
  301SOL    HW2 2801  11.760   5.837   8.223
  302SOL     OW 2802   6.353  11.400   6.460
  302SOL    HW1 2803   6.300  11.479   6.468
  302SOL    HW2 2804   6.381  11.399   6.369
  303SOL     OW 2805   0.077   4.311   5.844
  303SOL    HW1 2806   0.051   4.243   5.781
  303SOL    HW2 2807   0.065   4.393   5.796
  304SOL     OW 2808  14.272   5.315  14.623
  304SOL    HW1 2809  14.247   5.373  14.695
  304SOL    HW2 2810  14.325   5.370  14.566
  305SOL     OW 2811   6.557   6.150   6.083
  305SOL    HW1 2812   6.629   6.090   6.101
  305SOL    HW2 2813   6.480   6.108   6.122
  306SOL     OW 2814   3.592   8.770  13.393
  306SOL    HW1 2815   3.677   8.747  13.432
  306SOL    HW2 2816   3.529   8.714  13.437
  307SOL     OW 2817   6.329  11.493   8.807
  307SOL    HW1 2818   6.280  11.440   8.743
  307SOL    HW2 2819   6.354  11.571   8.758
  308SOL     OW 2820  14.628   9.488   1.313
  308SOL    HW1 2821  14.673   9.450   1.237
  308SOL    HW2 2822  14.587   9.413   1.356
  309SOL     OW 2823   2.663   4.301   9.566
  309SOL    HW1 2824   2.693   4.295   9.476
  309SOL    HW2 2825   2.664   4.211   9.598
  310SOL     OW 2826   4.396   7.609  11.024
  310SOL    HW1 2827   4.487   7.587  11.040
  310SOL    HW2 2828   4.394   7.705  11.029
  311SOL     OW 2829   5.873   0.634   2.452
  311SOL    HW1 2830   5.853   0.688   2.375
  311SOL    HW2 2831   5.845   0.546   2.428
  312SOL     OW 2832   9.524   9.014  14.740
  312SOL    HW1 2833   9.593   9.044  14.681
  312SOL    HW2 2834   9.454   9.079  14.732
  313SOL     OW 2835  12.337   6.663   7.109
  313SOL    HW1 2836  12.374   6.750   7.122
  313SOL    HW2 2837  12.252   6.665   7.153
  314SOL     OW 2838  12.023   2.056  12.333
  314SOL    HW1 2839  12.070   1.975  12.311
  314SOL    HW2 2840  11.938   2.046  12.290
  315SOL     OW 2841   4.941   5.863  12.120
  315SOL    HW1 2842   4.987   5.938  12.081
  315SOL    HW2 2843   4.918   5.893  12.208
  316SOL     OW 2844   5.235   7.196   9.485
  316SOL    HW1 2845   5.268   7.280   9.453
  316SOL    HW2 2846   5.151   7.217   9.526
  317SOL     OW 2847  11.795  14.033   3.549
  317SOL    HW1 2848  11.712  14.065   3.583
  317SOL    HW2 2849  11.775  14.002   3.461
  318SOL     OW 2850  10.510   8.499   7.291
  318SOL    HW1 2851  10.606   8.501   7.289
  318SOL    HW2 2852  10.488   8.506   7.384
  319SOL     OW 2853  11.558   9.578   9.188
  319SOL    HW1 2854  11.492   9.646   9.178
  319SOL    HW2 2855  11.637   9.623   9.216
  320SOL     OW 2856  14.449  11.028   0.133
  320SOL    HW1 2857  14.486  11.094   0.191
  320SOL    HW2 2858  14.524  10.974   0.107
  321SOL     OW 2859   0.245  14.459   0.609
  321SOL    HW1 2860   0.336  14.440   0.585
  321SOL    HW2 2861   0.196  14.450   0.528
  322SOL     OW 2862   1.604   7.222  14.710
  322SOL    HW1 2863   1.510   7.229  14.690
  322SOL    HW2 2864   1.622   7.128  14.708
  323SOL     OW 2865  10.999   0.677   8.767
  323SOL    HW1 2866  10.913   0.671   8.809
  323SOL    HW2 2867  11.045   0.746   8.815
  324SOL     OW 2868  10.384  13.850   3.305
  324SOL    HW1 2869  10.339  13.907   3.243
  324SOL    HW2 2870  10.421  13.780   3.250
  325SOL     OW 2871   0.864   7.411   3.714
  325SOL    HW1 2872   0.853   7.323   3.678
  325SOL    HW2 2873   0.800   7.465   3.667
  326SOL     OW 2874   2.793   4.008   0.501
  326SOL    HW1 2875   2.754   3.961   0.575
  326SOL    HW2 2876   2.858   4.066   0.541
  327SOL     OW 2877   6.419   3.647   8.695
  327SOL    HW1 2878   6.454   3.622   8.780
  327SOL    HW2 2879   6.492   3.690   8.651
  328SOL     OW 2880   6.211   9.789   7.709
  328SOL    HW1 2881   6.161   9.819   7.633
  328SOL    HW2 2882   6.257   9.867   7.741
  329SOL     OW 2883  12.021   4.187   5.191
  329SOL    HW1 2884  12.011   4.092   5.177
  329SOL    HW2 2885  12.023   4.196   5.286
  330SOL     OW 2886   6.224   9.910  11.920
  330SOL    HW1 2887   6.180   9.833  11.956
  330SOL    HW2 2888   6.154   9.961  11.880
  331SOL     OW 2889  13.676   0.958   6.525
  331SOL    HW1 2890  13.684   0.957   6.621
  331SOL    HW2 2891  13.698   1.048   6.500
  332SOL     OW 2892  10.253   0.195  13.595
  332SOL    HW1 2893  10.248   0.100  13.607
  332SOL    HW2 2894  10.186   0.230  13.655
  333SOL     OW 2895  12.321   6.885   9.115
  333SOL    HW1 2896  12.237   6.927   9.098
  333SOL    HW2 2897  12.350   6.854   9.029
  334SOL     OW 2898   5.559   8.179   7.296
  334SOL    HW1 2899   5.574   8.135   7.212
  334SOL    HW2 2900   5.488   8.131   7.337
  335SOL     OW 2901   0.687   0.748   9.353
  335SOL    HW1 2902   0.749   0.733   9.424
  335SOL    HW2 2903   0.620   0.805   9.392
  336SOL     OW 2904   7.659  10.885  14.864
  336SOL    HW1 2905   7.610  10.964   0.017
  336SOL    HW2 2906   7.726  10.878   0.063
  337SOL     OW 2907   1.690   9.157   3.824
  337SOL    HW1 2908   1.664   9.184   3.736
  337SOL    HW2 2909   1.777   9.195   3.836
  338SOL     OW 2910   1.735  10.795  12.904
  338SOL    HW1 2911   1.812  10.797  12.961
  338SOL    HW2 2912   1.661  10.811  12.963
  339SOL     OW 2913   0.765  10.849   4.713
  339SOL    HW1 2914   0.843  10.822   4.761
  339SOL    HW2 2915   0.747  10.777   4.653
  340SOL     OW 2916   9.445   7.225   4.524
  340SOL    HW1 2917   9.407   7.277   4.453
  340SOL    HW2 2918   9.418   7.135   4.504
  341SOL     OW 2919   5.547   9.702  14.469
  341SOL    HW1 2920   5.559   9.635  14.536
  341SOL    HW2 2921   5.497   9.771  14.513
  342SOL     OW 2922  10.971   6.076   2.933
  342SOL    HW1 2923  10.969   6.165   2.900
  342SOL    HW2 2924  10.888   6.038   2.906
  343SOL     OW 2925   4.099   9.968   5.691
  343SOL    HW1 2926   4.162   9.958   5.762
  343SOL    HW2 2927   4.030  10.024   5.728
  344SOL     OW 2928  10.595   3.965   2.530
  344SOL    HW1 2929  10.688   3.988   2.536
  344SOL    HW2 2930  10.556   4.034   2.476
  345SOL     OW 2931  14.307   7.926   3.916
  345SOL    HW1 2932  14.226   7.876   3.910
  345SOL    HW2 2933  14.373   7.863   3.942
  346SOL     OW 2934  11.506  11.948   1.341
  346SOL    HW1 2935  11.438  11.968   1.406
  346SOL    HW2 2936  11.457  11.926   1.261
  347SOL     OW 2937  13.904   9.195   1.593
  347SOL    HW1 2938  13.827   9.213   1.647
  347SOL    HW2 2939  13.869   9.146   1.518
  348SOL     OW 2940   9.716   0.928  14.099
  348SOL    HW1 2941   9.756   0.848  14.132
  348SOL    HW2 2942   9.789   0.980  14.065
  349SOL     OW 2943   5.991  10.140   2.729
  349SOL    HW1 2944   5.902  10.111   2.708
  349SOL    HW2 2945   5.979  10.210   2.793
  350SOL     OW 2946   6.408   4.834  12.335
  350SOL    HW1 2947   6.352   4.793  12.400
  350SOL    HW2 2948   6.421   4.923  12.367
  351SOL     OW 2949  11.073   8.550   5.183
  351SOL    HW1 2950  11.067   8.460   5.153
  351SOL    HW2 2951  10.984   8.574   5.207
  352SOL     OW 2952  14.467  12.615   3.162
  352SOL    HW1 2953  14.442  12.662   3.242
  352SOL    HW2 2954  14.450  12.676   3.091
  353SOL     OW 2955   3.444  12.464   7.234
  353SOL    HW1 2956   3.510  12.497   7.173
  353SOL    HW2 2957   3.362  12.465   7.184
  354SOL     OW 2958  10.296   2.912   4.463
  354SOL    HW1 2959  10.316   2.909   4.370
  354SOL    HW2 2960  10.260   2.826   4.483
  355SOL     OW 2961   3.165   8.013   6.599
  355SOL    HW1 2962   3.233   8.057   6.548
  355SOL    HW2 2963   3.212   7.948   6.652
  356SOL     OW 2964   9.310   3.518   9.511
  356SOL    HW1 2965   9.391   3.467   9.518
  356SOL    HW2 2966   9.338   3.608   9.529
  357SOL     OW 2967  13.193  12.426  13.451
  357SOL    HW1 2968  13.227  12.516  13.453
  357SOL    HW2 2969  13.134  12.425  13.375
  358SOL     OW 2970  13.947  14.805   6.270
  358SOL    HW1 2971  13.891  14.728   6.263
  358SOL    HW2 2972  13.893   0.007   6.238
  359SOL     OW 2973   4.484   3.085   4.075
  359SOL    HW1 2974   4.540   3.147   4.121
  359SOL    HW2 2975   4.404   3.134   4.057
  360SOL     OW 2976   2.024  11.763   7.343
  360SOL    HW1 2977   2.023  11.852   7.309
  360SOL    HW2 2978   1.965  11.714   7.285
  361SOL     OW 2979   5.866   9.569   7.684
  361SOL    HW1 2980   5.890   9.633   7.616
  361SOL    HW2 2981   5.796   9.611   7.734
  362SOL     OW 2982  11.924   0.430  12.045
  362SOL    HW1 2983  11.978   0.491  12.095
  362SOL    HW2 2984  11.932   0.460  11.954
  363SOL     OW 2985   2.064  11.638   6.636
  363SOL    HW1 2986   2.159  11.631   6.629
  363SOL    HW2 2987   2.050  11.708   6.700
  364SOL     OW 2988  10.122   9.135  10.629
  364SOL    HW1 2989  10.093   9.099  10.713
  364SOL    HW2 2990  10.212   9.164  10.645
  365SOL     OW 2991   2.507   3.593  10.925
  365SOL    HW1 2992   2.457   3.522  10.966
  365SOL    HW2 2993   2.446   3.631  10.862
  366SOL     OW 2994   7.859  12.088   1.542
  366SOL    HW1 2995   7.844  12.117   1.631
  366SOL    HW2 2996   7.784  12.032   1.521
  367SOL     OW 2997  13.693  13.239   2.987
  367SOL    HW1 2998  13.662  13.205   2.903
  367SOL    HW2 2999  13.667  13.331   2.987
  368SOL     OW 3000  14.305   0.295   7.900
  368SOL    HW1 3001  14.232   0.244   7.935
  368SOL    HW2 3002  14.383   0.246   7.926
  369SOL     OW 3003   3.019   1.823   7.922
  369SOL    HW1 3004   3.101   1.838   7.969
  369SOL    HW2 3005   2.951   1.841   7.987
  370SOL     OW 3006   6.219  13.375   5.770
  370SOL    HW1 3007   6.180  13.358   5.856
  370SOL    HW2 3008   6.168  13.447   5.734
  371SOL     OW 3009   1.215   9.825   1.702
  371SOL    HW1 3010   1.283   9.830   1.769
  371SOL    HW2 3011   1.220   9.735   1.669
  372SOL     OW 3012   2.567   5.673  12.372
  372SOL    HW1 3013   2.636   5.687  12.307
  372SOL    HW2 3014   2.605   5.705  12.454
  373SOL     OW 3015   2.175  11.947   9.314
  373SOL    HW1 3016   2.098  11.925   9.367
  373SOL    HW2 3017   2.191  11.869   9.261
  374SOL     OW 3018   6.850   9.079  12.612
  374SOL    HW1 3019   6.804   8.998  12.632
  374SOL    HW2 3020   6.876   9.114  12.697
  375SOL     OW 3021  12.478  13.896  14.339
  375SOL    HW1 3022  12.491  13.985  14.307
  375SOL    HW2 3023  12.458  13.845  14.261
  376SOL     OW 3024   4.422  12.525   2.291
  376SOL    HW1 3025   4.346  12.490   2.243
  376SOL    HW2 3026   4.491  12.460   2.277
  377SOL     OW 3027   8.326   7.121   0.750
  377SOL    HW1 3028   8.309   7.117   0.844
  377SOL    HW2 3029   8.400   7.182   0.742
  378SOL     OW 3030  14.499   3.437   4.399
  378SOL    HW1 3031  14.548   3.399   4.326
  378SOL    HW2 3032  14.529   3.528   4.404
  379SOL     OW 3033  11.264   4.587  10.557
  379SOL    HW1 3034  11.265   4.649  10.483
  379SOL    HW2 3035  11.320   4.628  10.623
  380SOL     OW 3036   8.559   4.078   4.227
  380SOL    HW1 3037   8.512   4.039   4.301
  380SOL    HW2 3038   8.517   4.162   4.212
  381SOL     OW 3039  14.635   4.641   6.441
  381SOL    HW1 3040  14.602   4.698   6.510
  381SOL    HW2 3041  14.573   4.568   6.439
  382SOL     OW 3042  14.582   7.384   9.633
  382SOL    HW1 3043  14.663   7.370   9.681
  382SOL    HW2 3044  14.562   7.298   9.595
  383SOL     OW 3045   7.981   8.586   8.287
  383SOL    HW1 3046   8.049   8.652   8.301
  383SOL    HW2 3047   7.985   8.566   8.194
  384SOL     OW 3048   2.484  10.186  14.488
  384SOL    HW1 3049   2.454  10.152  14.403
  384SOL    HW2 3050   2.405  10.219  14.530
  385SOL     OW 3051   3.352  13.981   2.186
  385SOL    HW1 3052   3.395  13.896   2.191
  385SOL    HW2 3053   3.269  13.968   2.231
  386SOL     OW 3054   2.706   2.431   6.442
  386SOL    HW1 3055   2.653   2.387   6.376
  386SOL    HW2 3056   2.795   2.428   6.406
  387SOL     OW 3057   5.715   5.349   4.712
  387SOL    HW1 3058   5.749   5.417   4.770
  387SOL    HW2 3059   5.655   5.396   4.653
  388SOL     OW 3060  11.381   0.926  11.860
  388SOL    HW1 3061  11.369   0.839  11.900
  388SOL    HW2 3062  11.474   0.930  11.840
  389SOL     OW 3063  12.512   3.528   3.377
  389SOL    HW1 3064  12.580   3.466   3.348
  389SOL    HW2 3065  12.559   3.610   3.391
  390SOL     OW 3066   0.158   5.317   4.109
  390SOL    HW1 3067   0.110   5.398   4.127
  390SOL    HW2 3068   0.238   5.325   4.161
  391SOL     OW 3069  14.615  12.574   6.282
  391SOL    HW1 3070  14.691  12.547   6.230
  391SOL    HW2 3071  14.619  12.670   6.282
  392SOL     OW 3072   2.687   5.425   8.793
  392SOL    HW1 3073   2.772   5.469   8.802
  392SOL    HW2 3074   2.624   5.486   8.830
  393SOL     OW 3075   3.543   9.382   9.945
  393SOL    HW1 3076   3.483   9.413  10.012
  393SOL    HW2 3077   3.593   9.459   9.919
  394SOL     OW 3078   0.889   7.058  14.568
  394SOL    HW1 3079   0.963   7.004  14.595
  394SOL    HW2 3080   0.867   7.027  14.480
  395SOL     OW 3081  11.422  13.972   6.408
  395SOL    HW1 3082  11.386  14.047   6.454
  395SOL    HW2 3083  11.400  13.897   6.463
  396SOL     OW 3084   1.756   5.534  12.956
  396SOL    HW1 3085   1.691   5.471  12.926
  396SOL    HW2 3086   1.799   5.563  12.875
  397SOL     OW 3087  10.171   4.223   5.744
  397SOL    HW1 3088  10.136   4.312   5.739
  397SOL    HW2 3089  10.100   4.167   5.711
  398SOL     OW 3090  11.067   2.028  13.936
  398SOL    HW1 3091  11.130   2.002  13.869
  398SOL    HW2 3092  11.013   2.094  13.894
  399SOL     OW 3093  13.147   7.939   4.203
  399SOL    HW1 3094  13.084   7.995   4.249
  399SOL    HW2 3095  13.232   7.983   4.216
  400SOL     OW 3096   0.506   2.134   1.311
  400SOL    HW1 3097   0.415   2.143   1.338
  400SOL    HW2 3098   0.505   2.147   1.216
  401SOL     OW 3099   5.458  14.304   0.068
  401SOL    HW1 3100   5.373  14.288   0.026
  401SOL    HW2 3101   5.438  14.312   0.161
  402SOL     OW 3102  11.853   6.837   6.888
  402SOL    HW1 3103  11.816   6.907   6.833
  402SOL    HW2 3104  11.830   6.756   6.842
  403SOL     OW 3105   1.559   2.017  14.551
  403SOL    HW1 3106   1.523   1.982  14.470
  403SOL    HW2 3107   1.488   2.070  14.588
  404SOL     OW 3108  14.645   5.033  12.476
  404SOL    HW1 3109  14.582   4.989  12.534
  404SOL    HW2 3110  14.718   5.056  12.533
  405SOL     OW 3111   8.437   3.551   3.689
  405SOL    HW1 3112   8.364   3.491   3.672
  405SOL    HW2 3113   8.429   3.618   3.621
  406SOL     OW 3114  14.510   4.693  12.248
  406SOL    HW1 3115  14.450   4.618  12.235
  406SOL    HW2 3116  14.586   4.655  12.291
  407SOL     OW 3117   8.553   6.458   2.053
  407SOL    HW1 3118   8.519   6.409   2.127
  407SOL    HW2 3119   8.558   6.549   2.085
  408SOL     OW 3120   5.517  10.957   3.641
  408SOL    HW1 3121   5.555  11.020   3.703
  408SOL    HW2 3122   5.501  10.879   3.693
  409SOL     OW 3123  11.564  13.372   9.014
  409SOL    HW1 3124  11.621  13.371   8.937
  409SOL    HW2 3125  11.535  13.281   9.023
  410SOL     OW 3126   7.200   5.981   0.380
  410SOL    HW1 3127   7.280   6.027   0.405
  410SOL    HW2 3128   7.201   5.980   0.284
  411SOL     OW 3129  12.326   0.066  14.849
  411SOL    HW1 3130  12.391   0.050   0.048
  411SOL    HW2 3131  12.289   0.152   0.002
  412SOL     OW 3132   9.491  10.576   8.013
  412SOL    HW1 3133   9.509  10.485   7.987
  412SOL    HW2 3134   9.461  10.619   7.932
  413SOL     OW 3135  11.009   8.158   4.240
  413SOL    HW1 3136  10.924   8.124   4.268
  413SOL    HW2 3137  11.064   8.150   4.318
  414SOL     OW 3138   5.195   3.398  11.854
  414SOL    HW1 3139   5.224   3.478  11.811
  414SOL    HW2 3140   5.207   3.330  11.787
  415SOL     OW 3141   0.863  12.146   8.162
  415SOL    HW1 3142   0.830  12.165   8.250
  415SOL    HW2 3143   0.894  12.056   8.167
  416SOL     OW 3144   1.693  14.135   3.496
  416SOL    HW1 3145   1.702  14.199   3.425
  416SOL    HW2 3146   1.602  14.107   3.491
  417SOL     OW 3147   4.203   4.479   3.376
  417SOL    HW1 3148   4.272   4.522   3.426
  417SOL    HW2 3149   4.248   4.443   3.299
  418SOL     OW 3150   3.804   1.038   5.561
  418SOL    HW1 3151   3.787   1.102   5.630
  418SOL    HW2 3152   3.879   1.074   5.514
  419SOL     OW 3153   7.973  12.301   4.924
  419SOL    HW1 3154   7.964  12.386   4.881
  419SOL    HW2 3155   8.051  12.263   4.883
  420SOL     OW 3156  12.775   7.732   8.782
  420SOL    HW1 3157  12.801   7.823   8.797
  420SOL    HW2 3158  12.757   7.697   8.870
  421SOL     OW 3159  11.612   5.754  11.626
  421SOL    HW1 3160  11.700   5.760  11.590
  421SOL    HW2 3161  11.606   5.666  11.661
  422SOL     OW 3162   6.219   5.214   0.033
  422SOL    HW1 3163   6.170   5.295   0.020
  422SOL    HW2 3164   6.152   5.146   0.032
  423SOL     OW 3165  10.627   4.444  13.515
  423SOL    HW1 3166  10.544   4.469  13.556
  423SOL    HW2 3167  10.601   4.398  13.435
  424SOL     OW 3168  13.058   0.555  12.372
  424SOL    HW1 3169  13.098   0.616  12.433
  424SOL    HW2 3170  13.098   0.575  12.288
  425SOL     OW 3171  11.831   9.898   6.452
  425SOL    HW1 3172  11.807   9.957   6.380
  425SOL    HW2 3173  11.924   9.881   6.438
  426SOL     OW 3174   3.349  11.373   1.900
  426SOL    HW1 3175   3.347  11.334   1.813
  426SOL    HW2 3176   3.328  11.465   1.885
  427SOL     OW 3177   6.711   6.863   3.614
  427SOL    HW1 3178   6.669   6.785   3.649
  427SOL    HW2 3179   6.776   6.830   3.553
  428SOL     OW 3180  11.143  14.347   4.709
  428SOL    HW1 3181  11.147  14.418   4.645
  428SOL    HW2 3182  11.199  14.278   4.672
  429SOL     OW 3183  10.347  11.186   3.405
  429SOL    HW1 3184  10.379  11.273   3.430
  429SOL    HW2 3185  10.376  11.128   3.475
  430SOL     OW 3186   4.147   2.117   3.551
  430SOL    HW1 3187   4.128   2.196   3.502
  430SOL    HW2 3188   4.141   2.046   3.487
  431SOL     OW 3189   9.679   0.851   8.312
  431SOL    HW1 3190   9.643   0.879   8.397
  431SOL    HW2 3191   9.761   0.898   8.304
  432SOL     OW 3192   1.332   8.626   5.555
  432SOL    HW1 3193   1.286   8.546   5.582
  432SOL    HW2 3194   1.350   8.613   5.462
  433SOL     OW 3195   9.984   1.781  11.837
  433SOL    HW1 3196  10.026   1.863  11.864
  433SOL    HW2 3197   9.915   1.766  11.902
  434SOL     OW 3198   2.372   2.250   2.525
  434SOL    HW1 3199   2.441   2.224   2.465
  434SOL    HW2 3200   2.362   2.344   2.510
  435SOL     OW 3201   2.285   4.130  14.038
  435SOL    HW1 3202   2.196   4.096  14.035
  435SOL    HW2 3203   2.275   4.224  14.048
  436SOL     OW 3204   4.573  10.522   1.939
  436SOL    HW1 3205   4.510  10.450   1.932
  436SOL    HW2 3206   4.613  10.511   2.025
  437SOL     OW 3207   6.849   0.566  11.826
  437SOL    HW1 3208   6.791   0.627  11.780
  437SOL    HW2 3209   6.906   0.531  11.757
  438SOL     OW 3210  11.835   7.663  11.409
  438SOL    HW1 3211  11.758   7.719  11.410
  438SOL    HW2 3212  11.819   7.601  11.338
  439SOL     OW 3213   8.189   0.921   2.577
  439SOL    HW1 3214   8.204   0.894   2.668
  439SOL    HW2 3215   8.137   0.849   2.540
  440SOL     OW 3216  13.456  11.089   2.681
  440SOL    HW1 3217  13.526  11.086   2.746
  440SOL    HW2 3218  13.489  11.035   2.609
  441SOL     OW 3219   7.086   4.457   3.618
  441SOL    HW1 3220   7.124   4.373   3.593
  441SOL    HW2 3221   7.138   4.521   3.570
  442SOL     OW 3222   0.504   7.012   1.339
  442SOL    HW1 3223   0.529   7.101   1.312
  442SOL    HW2 3224   0.486   6.966   1.257
  443SOL     OW 3225   6.442   3.607  11.801
  443SOL    HW1 3226   6.351   3.597  11.773
  443SOL    HW2 3227   6.457   3.702  11.800
  444SOL     OW 3228  14.299   9.139   1.101
  444SOL    HW1 3229  14.375   9.145   1.159
  444SOL    HW2 3230  14.305   9.217   1.046
  445SOL     OW 3231   4.999   9.336   6.341
  445SOL    HW1 3232   4.954   9.273   6.284
  445SOL    HW2 3233   5.048   9.282   6.403
  446SOL     OW 3234   7.063   2.565   8.461
  446SOL    HW1 3235   7.046   2.581   8.368
  446SOL    HW2 3236   7.074   2.652   8.499
  447SOL     OW 3237   0.517   1.717   0.213
  447SOL    HW1 3238   0.579   1.673   0.271
  447SOL    HW2 3239   0.537   1.680   0.126
  448SOL     OW 3240   1.209   6.164   7.517
  448SOL    HW1 3241   1.301   6.141   7.510
  448SOL    HW2 3242   1.184   6.140   7.606
  449SOL     OW 3243  11.095   1.390  11.234
  449SOL    HW1 3244  11.003   1.401  11.258
  449SOL    HW2 3245  11.117   1.470  11.185
  450SOL     OW 3246  14.524  14.593   7.950
  450SOL    HW1 3247  14.464  14.642   7.894
  450SOL    HW2 3248  14.495  14.502   7.941
  451SOL     OW 3249  11.345  13.009  12.503
  451SOL    HW1 3250  11.251  13.025  12.498
  451SOL    HW2 3251  11.377  13.074  12.565
  452SOL     OW 3252   7.539   5.818   4.677
  452SOL    HW1 3253   7.468   5.757   4.658
  452SOL    HW2 3254   7.503   5.905   4.656
  453SOL     OW 3255   4.348   2.701   8.075
  453SOL    HW1 3256   4.312   2.635   8.135
  453SOL    HW2 3257   4.443   2.692   8.085
  454SOL     OW 3258   4.114   4.486  11.309
  454SOL    HW1 3259   4.021   4.497  11.328
  454SOL    HW2 3260   4.152   4.453  11.390
  455SOL     OW 3261   4.891   5.699   3.172
  455SOL    HW1 3262   4.907   5.697   3.077
  455SOL    HW2 3263   4.957   5.639   3.208
  456SOL     OW 3264   0.050   7.728   0.670
  456SOL    HW1 3265   0.107   7.793   0.711
  456SOL    HW2 3266   0.037   7.661   0.737
  457SOL     OW 3267   5.089   6.434  13.225
  457SOL    HW1 3268   5.036   6.364  13.187
  457SOL    HW2 3269   5.145   6.462  13.153
  458SOL     OW 3270   5.229  13.890  13.063
  458SOL    HW1 3271   5.309  13.840  13.078
  458SOL    HW2 3272   5.259  13.978  13.040
  459SOL     OW 3273   2.407  14.438   9.595
  459SOL    HW1 3274   2.331  14.490   9.621
  459SOL    HW2 3275   2.438  14.397   9.675
  460SOL     OW 3276   9.328   9.882  11.072
  460SOL    HW1 3277   9.270   9.807  11.060
  460SOL    HW2 3278   9.406   9.859  11.022
  461SOL     OW 3279  11.648  12.571   0.974
  461SOL    HW1 3280  11.642  12.602   1.064
  461SOL    HW2 3281  11.591  12.495   0.970
  462SOL     OW 3282  14.718   9.543   0.898
  462SOL    HW1 3283  14.665   9.490   0.957
  462SOL    HW2 3284  14.658   9.610   0.866
  463SOL     OW 3285   7.946  12.254  11.012
  463SOL    HW1 3286   7.997  12.292  10.940
  463SOL    HW2 3287   7.900  12.328  11.051
  464SOL     OW 3288   9.250   9.745   5.068
  464SOL    HW1 3289   9.235   9.840   5.063
  464SOL    HW2 3290   9.282   9.721   4.981
  465SOL     OW 3291   9.548   2.475   3.279
  465SOL    HW1 3292   9.458   2.443   3.271
  465SOL    HW2 3293   9.541   2.552   3.335
  466SOL     OW 3294  10.160   2.227  12.030
  466SOL    HW1 3295  10.145   2.164  12.100
  466SOL    HW2 3296  10.113   2.191  11.955
  467SOL     OW 3297   2.372  13.585  10.601
  467SOL    HW1 3298   2.380  13.591  10.696
  467SOL    HW2 3299   2.348  13.494  10.584
  468SOL     OW 3300   6.385  12.856   5.537
  468SOL    HW1 3301   6.447  12.787   5.513
  468SOL    HW2 3302   6.351  12.886   5.453
  469SOL     OW 3303   6.624   4.003   8.057
  469SOL    HW1 3304   6.602   4.089   8.092
  469SOL    HW2 3305   6.550   3.947   8.083
  470SOL     OW 3306   6.443   8.779   8.246
  470SOL    HW1 3307   6.511   8.810   8.186
  470SOL    HW2 3308   6.368   8.837   8.229
  471SOL     OW 3309   3.537  13.212  11.591
  471SOL    HW1 3310   3.538  13.307  11.583
  471SOL    HW2 3311   3.623  13.184  11.562
  472SOL     OW 3312   7.479   0.120   9.517
  472SOL    HW1 3313   7.530   0.196   9.543
  472SOL    HW2 3314   7.520   0.047   9.564
  473SOL     OW 3315   5.305   2.067   6.572
  473SOL    HW1 3316   5.247   2.138   6.600
  473SOL    HW2 3317   5.367   2.058   6.645
  474SOL     OW 3318   6.562  11.625   0.636
  474SOL    HW1 3319   6.600  11.712   0.650
  474SOL    HW2 3320   6.483  11.642   0.585
  475SOL     OW 3321   1.967   1.604   3.993
  475SOL    HW1 3322   1.885   1.654   3.995
  475SOL    HW2 3323   2.016   1.641   3.920
  476SOL     OW 3324  10.178   4.334  13.413
  476SOL    HW1 3325  10.182   4.395  13.339
  476SOL    HW2 3326  10.245   4.366  13.474
  477SOL     OW 3327   2.445   2.779  12.355
  477SOL    HW1 3328   2.372   2.756  12.298
  477SOL    HW2 3329   2.436   2.722  12.431
  478SOL     OW 3330   3.673  12.673   8.190
  478SOL    HW1 3331   3.744  12.669   8.125
  478SOL    HW2 3332   3.710  12.631   8.268
  479SOL     OW 3333   5.137  12.866   7.749
  479SOL    HW1 3334   5.056  12.837   7.707
  479SOL    HW2 3335   5.108  12.934   7.810
  480SOL     OW 3336   7.119   0.405   6.792
  480SOL    HW1 3337   7.099   0.336   6.855
  480SOL    HW2 3338   7.091   0.486   6.835
  481SOL     OW 3339   7.658   0.903   0.947
  481SOL    HW1 3340   7.709   0.822   0.948
  481SOL    HW2 3341   7.635   0.917   1.039
  482SOL     OW 3342   1.301   5.513   6.873
  482SOL    HW1 3343   1.333   5.454   6.941
  482SOL    HW2 3344   1.354   5.592   6.883
  483SOL     OW 3345   7.519   6.289   2.655
  483SOL    HW1 3346   7.553   6.318   2.740
  483SOL    HW2 3347   7.440   6.240   2.676
  484SOL     OW 3348  14.860   8.784   0.670
  484SOL    HW1 3349  14.854   8.788   0.574
  484SOL    HW2 3350   0.023   8.870   0.696
  485SOL     OW 3351  11.647  10.087  10.262
  485SOL    HW1 3352  11.568  10.089  10.208
  485SOL    HW2 3353  11.647  10.000  10.302
  486SOL     OW 3354   6.538  11.221  12.791
  486SOL    HW1 3355   6.611  11.278  12.815
  486SOL    HW2 3356   6.547  11.209  12.697
  487SOL     OW 3357  14.458  12.172   5.392
  487SOL    HW1 3358  14.493  12.190   5.305
  487SOL    HW2 3359  14.527  12.123   5.436
  488SOL     OW 3360   8.056  14.038   3.967
  488SOL    HW1 3361   7.980  14.092   3.987
  488SOL    HW2 3362   8.104  14.087   3.900
  489SOL     OW 3363   5.508  10.258   9.119
  489SOL    HW1 3364   5.566  10.200   9.168
  489SOL    HW2 3365   5.560  10.337   9.105
  490SOL     OW 3366   0.409   3.430   7.954
  490SOL    HW1 3367   0.385   3.521   7.938
  490SOL    HW2 3368   0.498   3.434   7.988
  491SOL     OW 3369   4.168   1.051  13.554
  491SOL    HW1 3370   4.118   0.991  13.499
  491SOL    HW2 3371   4.230   1.093  13.494
  492SOL     OW 3372  14.159   8.831   6.635
  492SOL    HW1 3373  14.232   8.770   6.636
  492SOL    HW2 3374  14.110   8.811   6.555
  493SOL     OW 3375  10.020   1.725   1.527
  493SOL    HW1 3376  10.098   1.717   1.583
  493SOL    HW2 3377   9.974   1.802   1.560
  494SOL     OW 3378  12.974   3.558   1.704
  494SOL    HW1 3379  13.027   3.533   1.779
  494SOL    HW2 3380  12.919   3.481   1.687
  495SOL     OW 3381   1.542  10.701   2.965
  495SOL    HW1 3382   1.596  10.778   2.977
  495SOL    HW2 3383   1.453  10.735   2.953
  496SOL     OW 3384  11.897   9.481   2.434
  496SOL    HW1 3385  11.943   9.411   2.481
  496SOL    HW2 3386  11.861   9.438   2.356
  497SOL     OW 3387   8.312  13.767  12.035
  497SOL    HW1 3388   8.336  13.858  12.050
  497SOL    HW2 3389   8.365  13.740  11.960
  498SOL     OW 3390   3.365   9.420  10.626
  498SOL    HW1 3391   3.303   9.463  10.568
  498SOL    HW2 3392   3.313   9.355  10.673
  499SOL     OW 3393   1.072   2.840   4.680
  499SOL    HW1 3394   1.156   2.810   4.715
  499SOL    HW2 3395   1.045   2.909   4.741
  500SOL     OW 3396   8.508   7.945   8.801
  500SOL    HW1 3397   8.516   7.995   8.882
  500SOL    HW2 3398   8.590   7.960   8.756
  501SOL     OW 3399   5.879  12.396  11.058
  501SOL    HW1 3400   5.886  12.307  11.023
  501SOL    HW2 3401   5.838  12.446  10.987
  502SOL     OW 3402  14.667   0.905  11.323
  502SOL    HW1 3403  14.648   0.933  11.412
  502SOL    HW2 3404  14.641   0.813  11.321
  503SOL     OW 3405  14.827   5.139   4.425
  503SOL    HW1 3406  14.803   5.072   4.489
  503SOL    HW2 3407   0.050   5.123   4.407
  504SOL     OW 3408   8.388  10.866   1.502
  504SOL    HW1 3409   8.425  10.946   1.465
  504SOL    HW2 3410   8.357  10.817   1.425
  505SOL     OW 3411   8.069  14.120  14.012
  505SOL    HW1 3412   8.020  14.190  14.055
  505SOL    HW2 3413   8.006  14.049  14.003
  506SOL     OW 3414   2.423  13.069   8.528
  506SOL    HW1 3415   2.343  13.101   8.570
  506SOL    HW2 3416   2.417  13.100   8.438
  507SOL     OW 3417   8.479   1.657   7.311
  507SOL    HW1 3418   8.554   1.716   7.305
  507SOL    HW2 3419   8.403   1.715   7.310
  508SOL     OW 3420   5.453  13.116  10.807
  508SOL    HW1 3421   5.442  13.183  10.739
  508SOL    HW2 3422   5.451  13.166  10.889
  509SOL     OW 3423  10.941  11.386   8.249
  509SOL    HW1 3424  10.932  11.365   8.156
  509SOL    HW2 3425  10.895  11.470   8.258
  510SOL     OW 3426  13.548   5.566  13.231
  510SOL    HW1 3427  13.580   5.485  13.191
  510SOL    HW2 3428  13.499   5.538  13.308
  511SOL     OW 3429  12.888   7.220   0.523
  511SOL    HW1 3430  12.861   7.149   0.465
  511SOL    HW2 3431  12.883   7.299   0.468
  512SOL     OW 3432   9.193  11.632   1.321
  512SOL    HW1 3433   9.249  11.585   1.259
  512SOL    HW2 3434   9.104  11.603   1.300
  513SOL     OW 3435   6.788   2.458  12.140
  513SOL    HW1 3436   6.754   2.508  12.066
  513SOL    HW2 3437   6.748   2.500  12.217
  514SOL     OW 3438  11.774  11.518   8.054
  514SOL    HW1 3439  11.739  11.568   7.981
  514SOL    HW2 3440  11.864  11.551   8.065
  515SOL     OW 3441  12.975   8.666   2.821
  515SOL    HW1 3442  12.993   8.578   2.790
  515SOL    HW2 3443  13.024   8.723   2.762
  516SOL     OW 3444  12.894   7.522  13.247
  516SOL    HW1 3445  12.891   7.611  13.213
  516SOL    HW2 3446  12.803   7.499  13.264
  517SOL     OW 3447   0.027  13.185   9.845
  517SOL    HW1 3448   0.056  13.131   9.772
  517SOL    HW2 3449  14.809  13.214   9.821
  518SOL     OW 3450   1.563   5.332   6.716
  518SOL    HW1 3451   1.646   5.285   6.727
  518SOL    HW2 3452   1.574   5.413   6.765
  519SOL     OW 3453   3.176   7.226  12.795
  519SOL    HW1 3454   3.238   7.157  12.815
  519SOL    HW2 3455   3.225   7.307  12.808
  520SOL     OW 3456   7.742   2.942  11.667
  520SOL    HW1 3457   7.681   2.883  11.624
  520SOL    HW2 3458   7.825   2.930  11.620
  521SOL     OW 3459   2.074  12.731   9.765
  521SOL    HW1 3460   2.078  12.811   9.817
  521SOL    HW2 3461   2.109  12.663   9.822
  522SOL     OW 3462   3.041   7.433   3.918
  522SOL    HW1 3463   3.119   7.396   3.960
  522SOL    HW2 3464   3.073   7.465   3.834
  523SOL     OW 3465   6.448  13.277  10.335
  523SOL    HW1 3466   6.364  13.317  10.312
  523SOL    HW2 3467   6.432  13.183  10.332
  524SOL     OW 3468   1.306  14.294   6.297
  524SOL    HW1 3469   1.227  14.261   6.255
  524SOL    HW2 3470   1.377  14.241   6.260
  525SOL     OW 3471   0.414   1.809  14.333
  525SOL    HW1 3472   0.398   1.714  14.339
  525SOL    HW2 3473   0.481   1.826  14.399
  526SOL     OW 3474   2.506   3.351  13.033
  526SOL    HW1 3475   2.486   3.348  12.939
  526SOL    HW2 3476   2.590   3.397  13.038
  527SOL     OW 3477   6.505   0.880   0.021
  527SOL    HW1 3478   6.589   0.884   0.067
  527SOL    HW2 3479   6.440   0.902   0.088
  528SOL     OW 3480   3.313   6.380   1.329
  528SOL    HW1 3481   3.327   6.473   1.347
  528SOL    HW2 3482   3.347   6.367   1.240
  529SOL     OW 3483   1.561   3.140   1.511
  529SOL    HW1 3484   1.633   3.161   1.571
  529SOL    HW2 3485   1.533   3.225   1.477
  530SOL     OW 3486  13.361   7.790  11.761
  530SOL    HW1 3487  13.401   7.781  11.848
  530SOL    HW2 3488  13.309   7.870  11.767
  531SOL     OW 3489   3.743  12.035   3.127
  531SOL    HW1 3490   3.701  12.097   3.067
  531SOL    HW2 3491   3.798  12.090   3.183
  532SOL     OW 3492   5.483   1.705  10.766
  532SOL    HW1 3493   5.492   1.668  10.853
  532SOL    HW2 3494   5.489   1.800  10.779
  533SOL     OW 3495   8.309   5.197   5.222
  533SOL    HW1 3496   8.313   5.178   5.129
  533SOL    HW2 3497   8.215   5.195   5.243
  534SOL     OW 3498  14.382   9.154   5.145
  534SOL    HW1 3499  14.329   9.081   5.113
  534SOL    HW2 3500  14.337   9.184   5.224
  535SOL     OW 3501   8.528   5.353   8.851
  535SOL    HW1 3502   8.462   5.387   8.790
  535SOL    HW2 3503   8.603   5.332   8.796
  536SOL     OW 3504   5.942   3.651   1.313
  536SOL    HW1 3505   5.908   3.679   1.398
  536SOL    HW2 3506   6.006   3.719   1.290
  537SOL     OW 3507   1.717  13.766   9.500
  537SOL    HW1 3508   1.762  13.847   9.522
  537SOL    HW2 3509   1.625  13.784   9.516
  538SOL     OW 3510  10.627   5.633   4.349
  538SOL    HW1 3511  10.641   5.712   4.401
  538SOL    HW2 3512  10.621   5.664   4.258
  539SOL     OW 3513  11.602  10.820  13.714
  539SOL    HW1 3514  11.545  10.776  13.779
  539SOL    HW2 3515  11.567  10.792  13.630
  540SOL     OW 3516   8.021  12.958  12.304
  540SOL    HW1 3517   7.996  12.930  12.216
  540SOL    HW2 3518   8.116  12.967  12.300
  541SOL     OW 3519  13.828  13.206  13.944
  541SOL    HW1 3520  13.830  13.186  14.038
  541SOL    HW2 3521  13.888  13.143  13.905
  542SOL     OW 3522   2.656  13.041  14.297
  542SOL    HW1 3523   2.580  13.023  14.242
  542SOL    HW2 3524   2.697  13.117  14.256
  543SOL     OW 3525   1.752  14.077   0.911
  543SOL    HW1 3526   1.762  14.068   1.005
  543SOL    HW2 3527   1.658  14.088   0.898
  544SOL     OW 3528   0.249  12.735  13.216
  544SOL    HW1 3529   0.341  12.762  13.212
  544SOL    HW2 3530   0.222  12.754  13.306
  545SOL     OW 3531   3.836   0.630  10.123
  545SOL    HW1 3532   3.931   0.621  10.118
  545SOL    HW2 3533   3.807   0.634  10.032
  546SOL     OW 3534  10.856   0.770  14.576
  546SOL    HW1 3535  10.939   0.730  14.550
  546SOL    HW2 3536  10.800   0.696  14.600
  547SOL     OW 3537   9.401  13.120   5.948
  547SOL    HW1 3538   9.456  13.198   5.936
  547SOL    HW2 3539   9.316  13.145   5.913
  548SOL     OW 3540  10.389   9.789  12.813
  548SOL    HW1 3541  10.301   9.769  12.845
  548SOL    HW2 3542  10.447   9.741  12.871
  549SOL     OW 3543   1.794   8.012   9.538
  549SOL    HW1 3544   1.821   8.042   9.451
  549SOL    HW2 3545   1.865   8.039   9.596
  550SOL     OW 3546   2.600   2.360   9.686
  550SOL    HW1 3547   2.604   2.381   9.779
  550SOL    HW2 3548   2.523   2.303   9.677
  551SOL     OW 3549  14.494   5.947   5.799
  551SOL    HW1 3550  14.428   5.968   5.865
  551SOL    HW2 3551  14.577   5.975   5.838
  552SOL     OW 3552   3.291   7.887  11.711
  552SOL    HW1 3553   3.200   7.880  11.681
  552SOL    HW2 3554   3.288   7.946  11.786
  553SOL     OW 3555  11.669  14.593   2.501
  553SOL    HW1 3556  11.665  14.580   2.406
  553SOL    HW2 3557  11.615  14.670   2.517
  554SOL     OW 3558   6.306   5.953   8.478
  554SOL    HW1 3559   6.267   5.935   8.393
  554SOL    HW2 3560   6.345   5.870   8.505
  555SOL     OW 3561   6.291   0.069   8.917
  555SOL    HW1 3562   6.221   0.079   8.853
  555SOL    HW2 3563   6.303  14.844   8.926
  556SOL     OW 3564  11.758  10.377  11.117
  556SOL    HW1 3565  11.755  10.312  11.187
  556SOL    HW2 3566  11.705  10.339  11.046
  557SOL     OW 3567   4.806   9.091  12.588
  557SOL    HW1 3568   4.777   9.181  12.571
  557SOL    HW2 3569   4.817   9.087  12.683
  558SOL     OW 3570  12.955   3.001  12.101
  558SOL    HW1 3571  12.935   3.082  12.054
  558SOL    HW2 3572  12.918   2.932  12.046
  559SOL     OW 3573   5.997   9.133  13.328
  559SOL    HW1 3574   5.945   9.069  13.280
  559SOL    HW2 3575   5.967   9.218  13.295
  560SOL     OW 3576   0.718  14.137   0.094
  560SOL    HW1 3577   0.793  14.085   0.124
  560SOL    HW2 3578   0.669  14.078   0.037
  561SOL     OW 3579  11.506   8.760   8.643
  561SOL    HW1 3580  11.448   8.685   8.657
  561SOL    HW2 3581  11.547   8.774   8.728
  562SOL     OW 3582   0.171   7.065   1.916
  562SOL    HW1 3583   0.142   7.080   1.826
  562SOL    HW2 3584   0.108   7.004   1.953
  563SOL     OW 3585   1.699  10.019   2.512
  563SOL    HW1 3586   1.685   9.953   2.444
  563SOL    HW2 3587   1.791  10.007   2.538
  564SOL     OW 3588   2.384  10.905   2.886
  564SOL    HW1 3589   2.440  10.854   2.828
  564SOL    HW2 3590   2.304  10.854   2.894
  565SOL     OW 3591  13.503   6.528   9.323
  565SOL    HW1 3592  13.597   6.543   9.335
  565SOL    HW2 3593  13.467   6.615   9.305
  566SOL     OW 3594   2.547   5.494  13.989
  566SOL    HW1 3595   2.479   5.549  13.950
  566SOL    HW2 3596   2.501   5.414  14.015
  567SOL     OW 3597  11.063   5.953   4.856
  567SOL    HW1 3598  11.134   6.011   4.884
  567SOL    HW2 3599  11.107   5.876   4.822
  568SOL     OW 3600  14.358   4.581   4.657
  568SOL    HW1 3601  14.297   4.516   4.623
  568SOL    HW2 3602  14.384   4.547   4.743
  569SOL     OW 3603   8.862   6.124   0.735
  569SOL    HW1 3604   8.906   6.199   0.695
  569SOL    HW2 3605   8.931   6.080   0.785
  570SOL     OW 3606   5.831  10.851   0.034
  570SOL    HW1 3607   5.809  10.819   0.122
  570SOL    HW2 3608   5.915  10.809   0.014
  571SOL     OW 3609   5.561  12.700   5.764
  571SOL    HW1 3610   5.470  12.713   5.737
  571SOL    HW2 3611   5.558  12.623   5.820
  572SOL     OW 3612   0.834   4.436  11.538
  572SOL    HW1 3613   0.800   4.368  11.480
  572SOL    HW2 3614   0.869   4.503  11.480
  573SOL     OW 3615   7.218   5.204  10.006
  573SOL    HW1 3616   7.131   5.220  10.044
  573SOL    HW2 3617   7.247   5.290   9.976
  574SOL     OW 3618  11.395   6.509   3.609
  574SOL    HW1 3619  11.336   6.491   3.536
  574SOL    HW2 3620  11.342   6.492   3.687
  575SOL     OW 3621   2.147   8.817  11.184
  575SOL    HW1 3622   2.194   8.854  11.109
  575SOL    HW2 3623   2.189   8.857  11.260
  576SOL     OW 3624   2.148   3.536   3.431
  576SOL    HW1 3625   2.140   3.457   3.377
  576SOL    HW2 3626   2.083   3.597   3.396
  577SOL     OW 3627   8.919   7.374   1.534
  577SOL    HW1 3628   8.933   7.298   1.591
  577SOL    HW2 3629   8.980   7.360   1.461
  578SOL     OW 3630   3.400   4.239  14.299
  578SOL    HW1 3631   3.398   4.143  14.296
  578SOL    HW2 3632   3.493   4.260  14.300
  579SOL     OW 3633   7.069   1.749   9.051
  579SOL    HW1 3634   6.979   1.722   9.032
  579SOL    HW2 3635   7.101   1.784   8.968
  580SOL     OW 3636   6.103   4.611   9.086
  580SOL    HW1 3637   6.050   4.690   9.078
  580SOL    HW2 3638   6.052   4.553   9.142
  581SOL     OW 3639  14.277  13.429   3.303
  581SOL    HW1 3640  14.274  13.516   3.264
  581SOL    HW2 3641  14.224  13.436   3.383
  582SOL     OW 3642   7.577   3.936   6.153
  582SOL    HW1 3643   7.556   3.868   6.217
  582SOL    HW2 3644   7.670   3.954   6.168
  583SOL     OW 3645   1.066   8.619   0.451
  583SOL    HW1 3646   1.130   8.584   0.512
  583SOL    HW2 3647   1.118   8.654   0.379
  584SOL     OW 3648   0.156   7.444   1.183
  584SOL    HW1 3649   0.182   7.404   1.266
  584SOL    HW2 3650   0.072   7.404   1.162
  585SOL     OW 3651   5.932   3.741  10.598
  585SOL    HW1 3652   6.006   3.751  10.538
  585SOL    HW2 3653   5.973   3.732  10.685
  586SOL     OW 3654   2.133  14.748   7.678
  586SOL    HW1 3655   2.177  14.801   7.745
  586SOL    HW2 3656   2.086  14.812   7.624
  587SOL     OW 3657   1.755   4.287  10.013
  587SOL    HW1 3658   1.725   4.378  10.012
  587SOL    HW2 3659   1.841   4.289   9.971
  588SOL     OW 3660   9.154   4.167   3.111
  588SOL    HW1 3661   9.183   4.094   3.166
  588SOL    HW2 3662   9.225   4.177   3.047
  589SOL     OW 3663  10.953   9.302  11.271
  589SOL    HW1 3664  10.908   9.370  11.322
  589SOL    HW2 3665  11.029   9.347  11.234
  590SOL     OW 3666  11.657   0.650   3.565
  590SOL    HW1 3667  11.565   0.671   3.584
  590SOL    HW2 3668  11.706   0.721   3.606
  591SOL     OW 3669   9.519   7.188   9.115
  591SOL    HW1 3670   9.485   7.265   9.072
  591SOL    HW2 3671   9.606   7.176   9.077
  592SOL     OW 3672   6.401   9.898   3.738
  592SOL    HW1 3673   6.444   9.891   3.653
  592SOL    HW2 3674   6.314   9.860   3.725
  593SOL     OW 3675   8.901  12.098   8.452
  593SOL    HW1 3676   8.812  12.131   8.437
  593SOL    HW2 3677   8.949  12.175   8.483
  594SOL     OW 3678  11.316  11.214  14.193
  594SOL    HW1 3679  11.408  11.190  14.190
  594SOL    HW2 3680  11.276  11.146  14.248
  595SOL     OW 3681   0.142   7.354   9.710
  595SOL    HW1 3682   0.147   7.259   9.715
  595SOL    HW2 3683   0.053   7.375   9.740
  596SOL     OW 3684  12.214   9.791   0.891
  596SOL    HW1 3685  12.202   9.849   0.815
  596SOL    HW2 3686  12.272   9.840   0.949
  597SOL     OW 3687   2.282   0.861   6.788
  597SOL    HW1 3688   2.202   0.818   6.820
  597SOL    HW2 3689   2.317   0.907   6.864
  598SOL     OW 3690   6.543  12.915   8.065
  598SOL    HW1 3691   6.485  12.974   8.017
  598SOL    HW2 3692   6.606  12.886   7.999
  599SOL     OW 3693  10.350   8.229   1.186
  599SOL    HW1 3694  10.408   8.266   1.253
  599SOL    HW2 3695  10.268   8.213   1.233
  600SOL     OW 3696   9.543  14.340  14.203
  600SOL    HW1 3697   9.625  14.381  14.173
  600SOL    HW2 3698   9.535  14.366  14.294
  601SOL     OW 3699   6.355   0.081   8.105
  601SOL    HW1 3700   6.328  14.860   8.120
  601SOL    HW2 3701   6.306   0.132   8.168
  602SOL     OW 3702   7.875  10.802  11.827
  602SOL    HW1 3703   7.879  10.842  11.739
  602SOL    HW2 3704   7.935  10.728  11.823
  603SOL     OW 3705   4.237  14.333  11.787
  603SOL    HW1 3706   4.245  14.317  11.693
  603SOL    HW2 3707   4.216  14.247  11.824
  604SOL     OW 3708   1.132  13.457  14.445
  604SOL    HW1 3709   1.145  13.362  14.453
  604SOL    HW2 3710   1.180  13.481  14.366
  605SOL     OW 3711   1.137   0.436   3.297
  605SOL    HW1 3712   1.231   0.454   3.304
  605SOL    HW2 3713   1.095   0.521   3.313
  606SOL     OW 3714   5.378  13.468  14.620
  606SOL    HW1 3715   5.288  13.495  14.600
  606SOL    HW2 3716   5.367  13.393  14.679
  607SOL     OW 3717  13.326   1.252   7.797
  607SOL    HW1 3718  13.320   1.159   7.820
  607SOL    HW2 3719  13.420   1.270   7.795
  608SOL     OW 3720   7.562  11.327  10.811
  608SOL    HW1 3721   7.548  11.236  10.787
  608SOL    HW2 3722   7.616  11.363  10.740
  609SOL     OW 3723  13.980  14.766   3.268
  609SOL    HW1 3724  14.030  14.840   3.234
  609SOL    HW2 3725  14.021  14.689   3.229
  610SOL     OW 3726   4.380   6.016  10.049
  610SOL    HW1 3727   4.466   6.039  10.084
  610SOL    HW2 3728   4.348   5.947  10.107
  611SOL     OW 3729   4.149   7.402   5.629
  611SOL    HW1 3730   4.084   7.336   5.652
  611SOL    HW2 3731   4.221   7.353   5.591
  612SOL     OW 3732  14.696   1.761  11.169
  612SOL    HW1 3733  14.703   1.837  11.227
  612SOL    HW2 3734  14.752   1.694  11.210
  613SOL     OW 3735   1.839  12.207   3.490
  613SOL    HW1 3736   1.848  12.168   3.404
  613SOL    HW2 3737   1.873  12.296   3.480
  614SOL     OW 3738   6.258  10.675   0.885
  614SOL    HW1 3739   6.332  10.615   0.896
  614SOL    HW2 3740   6.291  10.743   0.825
  615SOL     OW 3741   5.952   9.098   2.476
  615SOL    HW1 3742   5.868   9.073   2.515
  615SOL    HW2 3743   5.995   9.149   2.545
  616SOL     OW 3744   8.711  12.262   3.327
  616SOL    HW1 3745   8.784  12.236   3.382
  616SOL    HW2 3746   8.654  12.313   3.385
  617SOL     OW 3747   2.998  12.434  11.913
  617SOL    HW1 3748   2.942  12.504  11.946
  617SOL    HW2 3749   3.065  12.479  11.861
  618SOL     OW 3750  12.425   6.841  13.209
  618SOL    HW1 3751  12.343   6.856  13.163
  618SOL    HW2 3752  12.413   6.758  13.254
  619SOL     OW 3753   4.782   6.878  10.909
  619SOL    HW1 3754   4.823   6.793  10.927
  619SOL    HW2 3755   4.774   6.920  10.994
  620SOL     OW 3756   3.023   6.837   5.064
  620SOL    HW1 3757   2.998   6.882   5.145
  620SOL    HW2 3758   2.941   6.805   5.028
  621SOL     OW 3759  11.581   7.493   0.582
  621SOL    HW1 3760  11.635   7.458   0.511
  621SOL    HW2 3761  11.494   7.504   0.543
  622SOL     OW 3762   1.864   6.807   2.515
  622SOL    HW1 3763   1.893   6.717   2.499
  622SOL    HW2 3764   1.774   6.798   2.547
  623SOL     OW 3765   6.065   1.947  14.193
  623SOL    HW1 3766   6.029   1.986  14.114
  623SOL    HW2 3767   6.136   2.005  14.220
  624SOL     OW 3768   9.902   7.155   6.032
  624SOL    HW1 3769   9.822   7.203   6.010
  624SOL    HW2 3770   9.882   7.114   6.117
  625SOL     OW 3771   8.394   5.120  12.913
  625SOL    HW1 3772   8.386   5.068  12.833
  625SOL    HW2 3773   8.306   5.156  12.927
  626SOL     OW 3774   0.751  14.370  11.850
  626SOL    HW1 3775   0.700  14.437  11.806
  626SOL    HW2 3776   0.803  14.329  11.781
  627SOL     OW 3777   8.321   9.633   7.640
  627SOL    HW1 3778   8.266   9.696   7.593
  627SOL    HW2 3779   8.411   9.656   7.614
  628SOL     OW 3780   2.551   8.281   2.704
  628SOL    HW1 3781   2.600   8.364   2.701
  628SOL    HW2 3782   2.460   8.307   2.715
  629SOL     OW 3783   2.122   5.410  10.391
  629SOL    HW1 3784   2.035   5.372  10.388
  629SOL    HW2 3785   2.114   5.485  10.451
  630SOL     OW 3786  11.830  14.201   2.878
  630SOL    HW1 3787  11.923  14.223   2.874
  630SOL    HW2 3788  11.815  14.147   2.800
  631SOL     OW 3789  10.674  14.238   5.802
  631SOL    HW1 3790  10.686  14.282   5.886
  631SOL    HW2 3791  10.722  14.292   5.740
  632SOL     OW 3792   0.880   2.288   9.382
  632SOL    HW1 3793   0.896   2.194   9.367
  632SOL    HW2 3794   0.812   2.290   9.449
  633SOL     OW 3795  12.282   8.968  13.081
  633SOL    HW1 3796  12.377   8.967  13.078
  633SOL    HW2 3797  12.256   8.880  13.051
  634SOL     OW 3798   6.658   9.396  11.173
  634SOL    HW1 3799   6.704   9.470  11.213
  634SOL    HW2 3800   6.600   9.435  11.108
  635SOL     OW 3801  11.219   5.199   5.630
  635SOL    HW1 3802  11.192   5.235   5.714
  635SOL    HW2 3803  11.141   5.155   5.597
  636SOL     OW 3804   6.809  10.154   4.833
  636SOL    HW1 3805   6.811  10.172   4.739
  636SOL    HW2 3806   6.825  10.060   4.840
  637SOL     OW 3807   4.733   7.953  13.959
  637SOL    HW1 3808   4.683   7.967  14.039
  637SOL    HW2 3809   4.770   7.865  13.969
  638SOL     OW 3810   0.267  11.164  11.386
  638SOL    HW1 3811   0.270  11.197  11.476
  638SOL    HW2 3812   0.242  11.072  11.395
  639SOL     OW 3813   6.870   4.465  10.290
  639SOL    HW1 3814   6.963   4.486  10.301
  639SOL    HW2 3815   6.867   4.370  10.299
  640SOL     OW 3816   3.849  10.909  13.462
  640SOL    HW1 3817   3.756  10.920  13.479
  640SOL    HW2 3818   3.881  10.998  13.445
  641SOL     OW 3819   3.762   4.355   7.365
  641SOL    HW1 3820   3.704   4.281   7.349
  641SOL    HW2 3821   3.835   4.342   7.305
  642SOL     OW 3822  12.567   2.631  13.919
  642SOL    HW1 3823  12.643   2.620  13.976
  642SOL    HW2 3824  12.532   2.543  13.908
  643SOL     OW 3825   8.393   4.670  14.648
  643SOL    HW1 3826   8.420   4.606  14.582
  643SOL    HW2 3827   8.335   4.731  14.601
  644SOL     OW 3828  14.578   3.678   7.516
  644SOL    HW1 3829  14.566   3.729   7.597
  644SOL    HW2 3830  14.670   3.653   7.516
  645SOL     OW 3831   0.124   0.858   3.600
  645SOL    HW1 3832   0.173   0.868   3.518
  645SOL    HW2 3833   0.053   0.798   3.579
  646SOL     OW 3834   5.120   4.542   5.070
  646SOL    HW1 3835   5.163   4.462   5.102
  646SOL    HW2 3836   5.190   4.607   5.066
  647SOL     OW 3837   9.077  12.857   3.122
  647SOL    HW1 3838   9.124  12.842   3.204
  647SOL    HW2 3839   9.144  12.842   3.054
  648SOL     OW 3840   5.507   9.511  13.791
  648SOL    HW1 3841   5.487   9.605  13.796
  648SOL    HW2 3842   5.426   9.468  13.818
  649SOL     OW 3843  14.749  14.503   7.802
  649SOL    HW1 3844  14.705  14.552   7.872
  649SOL    HW2 3845  14.713  14.540   7.721
  650SOL     OW 3846   4.840  13.127   5.450
  650SOL    HW1 3847   4.869  13.037   5.463
  650SOL    HW2 3848   4.751  13.129   5.484
  651SOL     OW 3849   6.937  14.553   0.665
  651SOL    HW1 3850   6.852  14.514   0.687
  651SOL    HW2 3851   6.915  14.626   0.607
  652SOL     OW 3852   2.383   8.599  11.993
  652SOL    HW1 3853   2.379   8.505  11.979
  652SOL    HW2 3854   2.432   8.633  11.918
  653SOL     OW 3855   7.193  14.828  11.280
  653SOL    HW1 3856   7.235   0.042  11.300
  653SOL    HW2 3857   7.197  14.822  11.184
  654SOL     OW 3858  12.578   3.663   0.467
  654SOL    HW1 3859  12.597   3.570   0.453
  654SOL    HW2 3860  12.560   3.670   0.561
  655SOL     OW 3861   1.028   6.976   6.829
  655SOL    HW1 3862   1.086   6.983   6.753
  655SOL    HW2 3863   1.054   6.893   6.870
  656SOL     OW 3864   1.352  11.901   9.914
  656SOL    HW1 3865   1.260  11.916   9.938
  656SOL    HW2 3866   1.348  11.832   9.848
  657SOL     OW 3867   9.128  12.886  12.124
  657SOL    HW1 3868   9.057  12.868  12.186
  657SOL    HW2 3869   9.190  12.814  12.136
  658SOL     OW 3870   8.140   1.218   8.212
  658SOL    HW1 3871   8.187   1.261   8.140
  658SOL    HW2 3872   8.061   1.184   8.172
  659SOL     OW 3873  14.733   4.550  13.282
  659SOL    HW1 3874  14.739   4.500  13.200
  659SOL    HW2 3875  14.640   4.545  13.305
  660SOL     OW 3876   8.394   2.830   1.474
  660SOL    HW1 3877   8.362   2.833   1.384
  660SOL    HW2 3878   8.456   2.902   1.480
  661SOL     OW 3879   1.909  12.270  11.172
  661SOL    HW1 3880   2.003  12.251  11.171
  661SOL    HW2 3881   1.899  12.338  11.239
  662SOL     OW 3882   8.152   8.574   0.062
  662SOL    HW1 3883   8.226   8.531   0.019
  662SOL    HW2 3884   8.107   8.621  14.861
  663SOL     OW 3885  11.336  10.668  14.722
  663SOL    HW1 3886  11.315  10.575  14.731
  663SOL    HW2 3887  11.344  10.682  14.627
  664SOL     OW 3888   4.794   5.878  14.823
  664SOL    HW1 3889   4.744   5.797  14.827
  664SOL    HW2 3890   4.883   5.850  14.802
  665SOL     OW 3891   7.291  13.187   7.780
  665SOL    HW1 3892   7.297  13.169   7.686
  665SOL    HW2 3893   7.197  13.189   7.798
  666SOL     OW 3894  11.542   2.375   1.638
  666SOL    HW1 3895  11.510   2.302   1.692
  666SOL    HW2 3896  11.465   2.432   1.628
  667SOL     OW 3897  14.074  10.867   8.374
  667SOL    HW1 3898  14.104  10.875   8.465
  667SOL    HW2 3899  13.990  10.823   8.380
  668SOL     OW 3900  11.886   3.801   6.903
  668SOL    HW1 3901  11.971   3.781   6.864
  668SOL    HW2 3902  11.870   3.892   6.881
  669SOL     OW 3903  10.997   2.985  10.704
  669SOL    HW1 3904  10.989   2.896  10.670
  669SOL    HW2 3905  11.088   2.991  10.733
  670SOL     OW 3906   0.916   1.817  11.834
  670SOL    HW1 3907   0.922   1.744  11.895
  670SOL    HW2 3908   1.000   1.818  11.789
  671SOL     OW 3909   8.365   5.440   5.363
  671SOL    HW1 3910   8.347   5.372   5.297
  671SOL    HW2 3911   8.460   5.451   5.362
  672SOL     OW 3912   6.324  10.675  11.649
  672SOL    HW1 3913   6.350  10.586  11.671
  672SOL    HW2 3914   6.403  10.714  11.610
  673SOL     OW 3915   5.471   9.190   7.179
  673SOL    HW1 3916   5.438   9.221   7.263
  673SOL    HW2 3917   5.565   9.176   7.193
  674SOL     OW 3918   5.259   0.334   4.846
  674SOL    HW1 3919   5.223   0.414   4.884
  674SOL    HW2 3920   5.252   0.270   4.917
  675SOL     OW 3921   5.223  11.324   6.821
  675SOL    HW1 3922   5.292  11.391   6.819
  675SOL    HW2 3923   5.208  11.303   6.729
  676SOL     OW 3924   2.821   4.674  11.554
  676SOL    HW1 3925   2.785   4.751  11.598
  676SOL    HW2 3926   2.884   4.638  11.616
  677SOL     OW 3927  14.158   5.887   0.967
  677SOL    HW1 3928  14.165   5.794   0.986
  677SOL    HW2 3929  14.166   5.892   0.872
  678SOL     OW 3930  12.252   3.121  12.321
  678SOL    HW1 3931  12.176   3.069  12.344
  678SOL    HW2 3932  12.285   3.156  12.404
  679SOL     OW 3933  10.130   0.926   0.442
  679SOL    HW1 3934  10.185   0.868   0.390
  679SOL    HW2 3935  10.189   0.964   0.507
  680SOL     OW 3936   5.071  11.132   5.560
  680SOL    HW1 3937   5.165  11.124   5.546
  680SOL    HW2 3938   5.062  11.200   5.627
  681SOL     OW 3939   3.312   7.868  13.650
  681SOL    HW1 3940   3.336   7.961  13.646
  681SOL    HW2 3941   3.370   7.831  13.717
  682SOL     OW 3942   4.529   5.499   0.887
  682SOL    HW1 3943   4.503   5.410   0.910
  682SOL    HW2 3944   4.617   5.509   0.923
  683SOL     OW 3945   0.260   0.002  10.739
  683SOL    HW1 3946   0.347   0.017  10.777
  683SOL    HW2 3947   0.199   0.023  10.811
  684SOL     OW 3948   5.065  10.347  11.009
  684SOL    HW1 3949   5.154  10.367  11.038
  684SOL    HW2 3950   5.070  10.258  10.975
  685SOL     OW 3951   4.158   4.431   8.037
  685SOL    HW1 3952   4.109   4.351   8.057
  685SOL    HW2 3953   4.143   4.445   7.944
  686SOL     OW 3954  12.101  12.464   1.335
  686SOL    HW1 3955  12.039  12.409   1.382
  686SOL    HW2 3956  12.058  12.549   1.328
  687SOL     OW 3957   5.440   0.470  11.838
  687SOL    HW1 3958   5.505   0.404  11.816
  687SOL    HW2 3959   5.406   0.443  11.923
  688SOL     OW 3960  12.713  13.482   7.407
  688SOL    HW1 3961  12.732  13.420   7.337
  688SOL    HW2 3962  12.798  13.501   7.447
  689SOL     OW 3963  13.033  12.430   7.813
  689SOL    HW1 3964  12.986  12.350   7.790
  689SOL    HW2 3965  13.075  12.410   7.897
  690SOL     OW 3966   7.557   0.013   5.288
  690SOL    HW1 3967   7.518   0.013   5.375
  690SOL    HW2 3968   7.564  14.790   5.265
  691SOL     OW 3969   7.623  13.489   8.560
  691SOL    HW1 3970   7.632  13.495   8.465
  691SOL    HW2 3971   7.601  13.397   8.576
  692SOL     OW 3972   2.881  14.142   4.354
  692SOL    HW1 3973   2.830  14.103   4.283
  692SOL    HW2 3974   2.829  14.127   4.433
  693SOL     OW 3975   2.703   7.600   2.350
  693SOL    HW1 3976   2.623   7.597   2.402
  693SOL    HW2 3977   2.772   7.625   2.412
  694SOL     OW 3978  10.670   4.720  13.334
  694SOL    HW1 3979  10.596   4.714  13.394
  694SOL    HW2 3980  10.679   4.814  13.317
  695SOL     OW 3981   5.816  11.600   6.902
  695SOL    HW1 3982   5.840  11.674   6.847
  695SOL    HW2 3983   5.759  11.546   6.847
  696SOL     OW 3984   0.122   7.075   5.141
  696SOL    HW1 3985   0.216   7.063   5.131
  696SOL    HW2 3986   0.100   7.145   5.079
  697SOL     OW 3987   0.133   0.665  13.245
  697SOL    HW1 3988   0.050   0.658  13.292
  697SOL    HW2 3989   0.199   0.680  13.313
  698SOL     OW 3990   4.349  14.750   5.570
  698SOL    HW1 3991   4.289  14.781   5.638
  698SOL    HW2 3992   4.308  14.670   5.537
  699SOL     OW 3993   3.825   1.256   7.743
  699SOL    HW1 3994   3.810   1.226   7.832
  699SOL    HW2 3995   3.737   1.277   7.710
  700SOL     OW 3996   5.265  13.380   5.348
  700SOL    HW1 3997   5.232  13.296   5.315
  700SOL    HW2 3998   5.247  13.442   5.277
  701SOL     OW 3999   2.277  10.461   9.714
  701SOL    HW1 4000   2.272  10.538   9.770
  701SOL    HW2 4001   2.278  10.497   9.625
  702SOL     OW 4002  10.826  13.164   5.516
  702SOL    HW1 4003  10.814  13.244   5.566
  702SOL    HW2 4004  10.742  13.119   5.522
  703SOL     OW 4005   8.930   7.242   2.049
  703SOL    HW1 4006   8.840   7.209   2.058
  703SOL    HW2 4007   8.934   7.316   2.110
  704SOL     OW 4008   1.104  13.247  14.832
  704SOL    HW1 4009   1.072  13.233   0.051
  704SOL    HW2 4010   1.185  13.196  14.828
  705SOL     OW 4011   5.192  13.522   1.225
  705SOL    HW1 4012   5.103  13.515   1.192
  705SOL    HW2 4013   5.226  13.603   1.188
  706SOL     OW 4014   5.625   8.645   6.210
  706SOL    HW1 4015   5.612   8.626   6.117
  706SOL    HW2 4016   5.715   8.615   6.228
  707SOL     OW 4017   0.814   6.468  12.435
  707SOL    HW1 4018   0.833   6.383  12.476
  707SOL    HW2 4019   0.804   6.448  12.342
  708SOL     OW 4020   5.717   8.892   6.313
  708SOL    HW1 4021   5.812   8.899   6.306
  708SOL    HW2 4022   5.694   8.820   6.254
  709SOL     OW 4023   6.940  13.092  10.662
  709SOL    HW1 4024   7.007  13.161  10.668
  709SOL    HW2 4025   6.981  13.021  10.614
  710SOL     OW 4026   2.134   1.646   6.168
  710SOL    HW1 4027   2.045   1.681   6.170
  710SOL    HW2 4028   2.130   1.573   6.105
  711SOL     OW 4029   1.207   5.919   9.254
  711SOL    HW1 4030   1.266   5.892   9.183
  711SOL    HW2 4031   1.129   5.952   9.209
  712SOL     OW 4032  12.777  13.344  12.677
  712SOL    HW1 4033  12.857  13.306  12.712
  712SOL    HW2 4034  12.801  13.376  12.590
  713SOL     OW 4035   5.204  10.486   4.295
  713SOL    HW1 4036   5.121  10.438   4.295
  713SOL    HW2 4037   5.197  10.546   4.220
  714SOL     OW 4038   6.145   7.485  12.047
  714SOL    HW1 4039   6.230   7.499  12.090
  714SOL    HW2 4040   6.127   7.566  12.001
  715SOL     OW 4041   3.443   5.929   2.955
  715SOL    HW1 4042   3.388   5.869   3.005
  715SOL    HW2 4043   3.395   5.942   2.873
  716SOL     OW 4044   0.985  11.938   1.344
  716SOL    HW1 4045   1.006  11.897   1.427
  716SOL    HW2 4046   0.889  11.937   1.340
  717SOL     OW 4047   1.489  10.722   0.974
  717SOL    HW1 4048   1.566  10.774   0.995
  717SOL    HW2 4049   1.438  10.778   0.915
  718SOL     OW 4050  14.724   5.135   0.889
  718SOL    HW1 4051  14.802   5.099   0.930
  718SOL    HW2 4052  14.651   5.098   0.938
  719SOL     OW 4053  13.717   0.993   4.405
  719SOL    HW1 4054  13.800   1.035   4.385
  719SOL    HW2 4055  13.651   1.048   4.363
  720SOL     OW 4056   5.606  11.073   4.156
  720SOL    HW1 4057   5.691  11.108   4.180
  720SOL    HW2 4058   5.584  11.011   4.226
  721SOL     OW 4059  12.656   3.277   8.045
  721SOL    HW1 4060  12.659   3.340   8.117
  721SOL    HW2 4061  12.566   3.244   8.045
  722SOL     OW 4062  12.451   7.787  14.260
  722SOL    HW1 4063  12.432   7.881  14.265
  722SOL    HW2 4064  12.403   7.757  14.182
  723SOL     OW 4065   1.125   2.748   6.882
  723SOL    HW1 4066   1.065   2.674   6.878
  723SOL    HW2 4067   1.096   2.805   6.810
  724SOL     OW 4068  13.325   2.275   4.084
  724SOL    HW1 4069  13.292   2.194   4.122
  724SOL    HW2 4070  13.352   2.327   4.160
  725SOL     OW 4071  10.017   6.531  13.519
  725SOL    HW1 4072   9.962   6.608  13.505
  725SOL    HW2 4073  10.088   6.542  13.455
  726SOL     OW 4074   4.860   8.512   3.248
  726SOL    HW1 4075   4.916   8.568   3.302
  726SOL    HW2 4076   4.921   8.465   3.191
  727SOL     OW 4077  12.721   4.331   1.982
  727SOL    HW1 4078  12.682   4.413   2.013
  727SOL    HW2 4079  12.814   4.351   1.975
  728SOL     OW 4080  14.116   0.015   4.080
  728SOL    HW1 4081  14.149   0.091   4.127
  728SOL    HW2 4082  14.166  14.811   4.116
  729SOL     OW 4083   0.857   5.305   1.910
  729SOL    HW1 4084   0.817   5.348   1.985
  729SOL    HW2 4085   0.888   5.377   1.855
  730SOL     OW 4086   6.594  11.412   0.810
  730SOL    HW1 4087   6.680  11.421   0.853
  730SOL    HW2 4088   6.582  11.494   0.763
  731SOL     OW 4089   8.254   1.030  11.539
  731SOL    HW1 4090   8.340   1.000  11.507
  731SOL    HW2 4091   8.211   0.951  11.570
  732SOL     OW 4092   9.184  11.373   1.628
  732SOL    HW1 4093   9.212  11.296   1.678
  732SOL    HW2 4094   9.244  11.443   1.656
  733SOL     OW 4095   9.651  13.943   5.506
  733SOL    HW1 4096   9.661  13.999   5.582
  733SOL    HW2 4097   9.600  13.995   5.443
  734SOL     OW 4098  13.083   7.441   4.355
  734SOL    HW1 4099  13.113   7.427   4.265
  734SOL    HW2 4100  13.082   7.536   4.365
  735SOL     OW 4101  10.421  13.827   0.408
  735SOL    HW1 4102  10.335  13.846   0.371
  735SOL    HW2 4103  10.462  13.913   0.417
  736SOL     OW 4104  13.224  11.420   5.543
  736SOL    HW1 4105  13.167  11.414   5.620
  736SOL    HW2 4106  13.249  11.330   5.524
  737SOL     OW 4107   7.561   2.322   7.639
  737SOL    HW1 4108   7.520   2.311   7.553
  737SOL    HW2 4109   7.637   2.264   7.636
  738SOL     OW 4110  14.446  11.842   1.474
  738SOL    HW1 4111  14.452  11.763   1.421
  738SOL    HW2 4112  14.522  11.837   1.533
  739SOL     OW 4113   8.023  11.835   1.045
  739SOL    HW1 4114   7.956  11.873   1.101
  739SOL    HW2 4115   8.046  11.752   1.088
  740SOL     OW 4116   9.626  14.068  10.732
  740SOL    HW1 4117   9.669  14.057  10.647
  740SOL    HW2 4118   9.635  13.983  10.775
  741SOL     OW 4119   7.881   6.151   1.120
  741SOL    HW1 4120   7.976   6.137   1.119
  741SOL    HW2 4121   7.869   6.232   1.170
  742SOL     OW 4122  12.810  13.946   6.461
  742SOL    HW1 4123  12.805  13.884   6.534
  742SOL    HW2 4124  12.785  13.895   6.384
  743SOL     OW 4125   1.927  14.440  10.710
  743SOL    HW1 4126   1.973  14.373  10.761
  743SOL    HW2 4127   1.851  14.463  10.764
  744SOL     OW 4128  14.240  10.763  13.031
  744SOL    HW1 4129  14.162  10.813  13.058
  744SOL    HW2 4130  14.253  10.700  13.102
  745SOL     OW 4131  14.305   6.849  12.346
  745SOL    HW1 4132  14.307   6.811  12.434
  745SOL    HW2 4133  14.260   6.783  12.292
  746SOL     OW 4134   8.487  13.668   9.333
  746SOL    HW1 4135   8.442  13.738   9.380
  746SOL    HW2 4136   8.529  13.616   9.402
  747SOL     OW 4137  12.598   0.134   4.726
  747SOL    HW1 4138  12.672   0.180   4.686
  747SOL    HW2 4139  12.639   0.073   4.788
  748SOL     OW 4140  13.153  13.584   5.085
  748SOL    HW1 4141  13.161  13.522   5.013
  748SOL    HW2 4142  13.126  13.666   5.043
  749SOL     OW 4143  14.756   4.657   5.530
  749SOL    HW1 4144  14.753   4.718   5.456
  749SOL    HW2 4145  14.724   4.574   5.495
  750SOL     OW 4146  10.909   5.835   7.510
  750SOL    HW1 4147  10.845   5.902   7.487
  750SOL    HW2 4148  10.860   5.753   7.502
  751SOL     OW 4149   5.917   2.514  13.741
  751SOL    HW1 4150   5.858   2.483  13.672
  751SOL    HW2 4151   5.902   2.608  13.745
  752SOL     OW 4152   7.935   9.370  10.976
  752SOL    HW1 4153   7.942   9.455  10.931
  752SOL    HW2 4154   8.012   9.321  10.946
  753SOL     OW 4155   6.563   2.454  11.527
  753SOL    HW1 4156   6.602   2.541  11.520
  753SOL    HW2 4157   6.560   2.438  11.621
  754SOL     OW 4158   2.695  14.140  13.461
  754SOL    HW1 4159   2.631  14.070  13.455
  754SOL    HW2 4160   2.717  14.145  13.554
  755SOL     OW 4161   6.197   6.030   7.980
  755SOL    HW1 4162   6.134   5.998   8.045
  755SOL    HW2 4163   6.153   6.014   7.896
  756SOL     OW 4164   2.120  12.990   9.403
  756SOL    HW1 4165   2.109  13.084   9.391
  756SOL    HW2 4166   2.145  12.958   9.316
  757SOL     OW 4167   3.285   7.280  12.534
  757SOL    HW1 4168   3.274   7.331  12.453
  757SOL    HW2 4169   3.294   7.346  12.602
  758SOL     OW 4170   8.789   0.741   8.187
  758SOL    HW1 4171   8.816   0.710   8.273
  758SOL    HW2 4172   8.724   0.808   8.205
  759SOL     OW 4173  13.446  10.069   8.293
  759SOL    HW1 4174  13.412  10.139   8.347
  759SOL    HW2 4175  13.453   9.994   8.352
  760SOL     OW 4176   9.111   3.320   9.519
  760SOL    HW1 4177   9.018   3.342   9.525
  760SOL    HW2 4178   9.156   3.402   9.538
  761SOL     OW 4179   3.336   5.419   0.864
  761SOL    HW1 4180   3.264   5.375   0.818
  761SOL    HW2 4181   3.307   5.510   0.871
  762SOL     OW 4182   9.649   9.975   0.024
  762SOL    HW1 4183   9.670   9.996  14.802
  762SOL    HW2 4184   9.731   9.939   0.059
  763SOL     OW 4185   7.395   8.681   9.967
  763SOL    HW1 4186   7.347   8.715   9.891
  763SOL    HW2 4187   7.385   8.749  10.034
  764SOL     OW 4188  12.042  10.974   5.315
  764SOL    HW1 4189  12.136  10.963   5.329
  764SOL    HW2 4190  12.030  10.959   5.221
  765SOL     OW 4191  10.121  10.122   6.175
  765SOL    HW1 4192  10.197  10.160   6.130
  765SOL    HW2 4193  10.147  10.031   6.193
  766SOL     OW 4194   3.329   7.340   7.549
  766SOL    HW1 4195   3.415   7.306   7.573
  766SOL    HW2 4196   3.319   7.419   7.602
  767SOL     OW 4197  12.733  10.791   3.678
  767SOL    HW1 4198  12.751  10.753   3.592
  767SOL    HW2 4199  12.818  10.794   3.721
  768SOL     OW 4200   7.286   4.799  10.709
  768SOL    HW1 4201   7.318   4.725  10.658
  768SOL    HW2 4202   7.335   4.795  10.791
  769SOL     OW 4203  14.590   6.588  14.216
  769SOL    HW1 4204  14.615   6.678  14.194
  769SOL    HW2 4205  14.496   6.584  14.198
  770SOL     OW 4206  10.198  12.052   6.575
  770SOL    HW1 4207  10.156  12.112   6.637
  770SOL    HW2 4208  10.291  12.073   6.579
  771SOL     OW 4209   8.960   9.903   4.850
  771SOL    HW1 4210   9.044   9.934   4.818
  771SOL    HW2 4211   8.899   9.920   4.778
  772SOL     OW 4212   0.700  10.393   9.158
  772SOL    HW1 4213   0.629  10.417   9.218
  772SOL    HW2 4214   0.774  10.373   9.215
  773SOL     OW 4215  14.543   7.167   7.943
  773SOL    HW1 4216  14.631   7.165   7.980
  773SOL    HW2 4217  14.506   7.081   7.963
  774SOL     OW 4218   3.840   7.433   5.471
  774SOL    HW1 4219   3.876   7.424   5.559
  774SOL    HW2 4220   3.866   7.352   5.426
  775SOL     OW 4221   4.833  11.403   6.699
  775SOL    HW1 4222   4.823  11.492   6.731
  775SOL    HW2 4223   4.857  11.413   6.607
  776SOL     OW 4224   1.851   5.554  11.187
  776SOL    HW1 4225   1.861   5.464  11.156
  776SOL    HW2 4226   1.909   5.560  11.264
  777SOL     OW 4227  13.512   9.822   5.499
  777SOL    HW1 4228  13.533   9.869   5.580
  777SOL    HW2 4229  13.416   9.820   5.497
  778SOL     OW 4230   3.645   1.211   2.111
  778SOL    HW1 4231   3.741   1.221   2.106
  778SOL    HW2 4232   3.611   1.279   2.053
  779SOL     OW 4233   8.057   5.936   3.366
  779SOL    HW1 4234   8.127   5.948   3.302
  779SOL    HW2 4235   8.024   6.024   3.382
  780SOL     OW 4236  12.680   4.011   0.411
  780SOL    HW1 4237  12.738   3.937   0.430
  780SOL    HW2 4238  12.719   4.052   0.334
  781SOL     OW 4239  12.711   1.048   8.560
  781SOL    HW1 4240  12.706   0.953   8.551
  781SOL    HW2 4241  12.639   1.081   8.505
  782SOL     OW 4242   2.073   3.688   4.517
  782SOL    HW1 4243   2.070   3.597   4.488
  782SOL    HW2 4244   2.046   3.738   4.440
  783SOL     OW 4245   7.652   5.214   2.153
  783SOL    HW1 4246   7.645   5.273   2.228
  783SOL    HW2 4247   7.710   5.143   2.184
  784SOL     OW 4248  14.496   2.280   0.367
  784SOL    HW1 4249  14.468   2.363   0.405
  784SOL    HW2 4250  14.525   2.302   0.278
  785SOL     OW 4251  14.418   0.916   7.741
  785SOL    HW1 4252  14.445   0.851   7.676
  785SOL    HW2 4253  14.494   0.927   7.797
  786SOL     OW 4254   0.797   6.471  11.150
  786SOL    HW1 4255   0.867   6.420  11.190
  786SOL    HW2 4256   0.726   6.408  11.136
  787SOL     OW 4257   1.862  13.410   0.596
  787SOL    HW1 4258   1.798  13.471   0.633
  787SOL    HW2 4259   1.849  13.329   0.645
  788SOL     OW 4260  13.147  11.183   6.599
  788SOL    HW1 4261  13.091  11.125   6.547
  788SOL    HW2 4262  13.145  11.266   6.553
  789SOL     OW 4263  11.151  13.567   4.990
  789SOL    HW1 4264  11.081  13.613   5.035
  789SOL    HW2 4265  11.112  13.484   4.962
  790SOL     OW 4266   6.740   4.938   9.813
  790SOL    HW1 4267   6.761   5.016   9.865
  790SOL    HW2 4268   6.783   4.866   9.860
  791SOL     OW 4269   1.199   1.554   7.566
  791SOL    HW1 4270   1.111   1.518   7.560
  791SOL    HW2 4271   1.204   1.591   7.655
  792SOL     OW 4272   4.819  11.696  13.120
  792SOL    HW1 4273   4.784  11.616  13.080
  792SOL    HW2 4274   4.774  11.767  13.075
  793SOL     OW 4275  14.529   4.069   4.275
  793SOL    HW1 4276  14.540   4.128   4.350
  793SOL    HW2 4277  14.434   4.056   4.269
  794SOL     OW 4278   2.351   7.987  11.554
  794SOL    HW1 4279   2.317   7.912  11.505
  794SOL    HW2 4280   2.435   7.956  11.589
  795SOL     OW 4281   3.457   5.111   2.467
  795SOL    HW1 4282   3.553   5.116   2.471
  795SOL    HW2 4283   3.433   5.172   2.397
  796SOL     OW 4284   4.183   9.901   9.821
  796SOL    HW1 4285   4.201   9.832   9.885
  796SOL    HW2 4286   4.266   9.911   9.773
  797SOL     OW 4287  11.827   5.070  13.931
  797SOL    HW1 4288  11.915   5.082  13.969
  797SOL    HW2 4289  11.840   5.004  13.862
  798SOL     OW 4290   9.202   1.070  13.933
  798SOL    HW1 4291   9.204   1.092  13.839
  798SOL    HW2 4292   9.221   0.976  13.936
  799SOL     OW 4293   2.363   5.982   2.377
  799SOL    HW1 4294   2.448   5.943   2.357
  799SOL    HW2 4295   2.300   5.913   2.356
  800SOL     OW 4296   8.286   6.181   7.950
  800SOL    HW1 4297   8.251   6.095   7.925
  800SOL    HW2 4298   8.293   6.229   7.868
  801SOL     OW 4299   2.385  14.465   5.677
  801SOL    HW1 4300   2.404  14.496   5.766
  801SOL    HW2 4301   2.437  14.385   5.668
  802SOL     OW 4302  13.745   8.552  14.045
  802SOL    HW1 4303  13.791   8.626  14.006
  802SOL    HW2 4304  13.812   8.505  14.094
  803SOL     OW 4305   7.572  12.165   2.038
  803SOL    HW1 4306   7.615  12.113   1.970
  803SOL    HW2 4307   7.480  12.168   2.011
  804SOL     OW 4308   9.420   6.464  12.348
  804SOL    HW1 4309   9.329   6.491  12.361
  804SOL    HW2 4310   9.415   6.386  12.293
  805SOL     OW 4311   1.918  13.578   9.536
  805SOL    HW1 4312   1.989  13.580   9.472
  805SOL    HW2 4313   1.861  13.651   9.511
  806SOL     OW 4314  14.176   5.532   7.980
  806SOL    HW1 4315  14.261   5.571   8.001
  806SOL    HW2 4316  14.190   5.488   7.896
  807SOL     OW 4317  14.708  14.614   6.985
  807SOL    HW1 4318  14.751  14.597   6.901
  807SOL    HW2 4319  14.760  14.568   7.050
  808SOL     OW 4320   9.632  14.755  14.334
  808SOL    HW1 4321   9.642  14.665  14.365
  808SOL    HW2 4322   9.632  14.747  14.238
  809SOL     OW 4323   1.125   7.786  10.389
  809SOL    HW1 4324   1.135   7.787  10.294
  809SOL    HW2 4325   1.030   7.792  10.403
  810SOL     OW 4326   0.194  11.896  14.546
  810SOL    HW1 4327   0.112  11.869  14.587
  810SOL    HW2 4328   0.205  11.988  14.572
  811SOL     OW 4329  11.582  10.793  14.511
  811SOL    HW1 4330  11.607  10.883  14.531
  811SOL    HW2 4331  11.488  10.790  14.529
  812SOL     OW 4332   6.811  14.520   2.728
  812SOL    HW1 4333   6.870  14.570   2.672
  812SOL    HW2 4334   6.798  14.575   2.806
  813SOL     OW 4335  13.172   3.522   1.449
  813SOL    HW1 4336  13.138   3.541   1.536
  813SOL    HW2 4337  13.097   3.532   1.391
  814SOL     OW 4338  13.783   7.984  11.667
  814SOL    HW1 4339  13.710   8.041  11.692
  814SOL    HW2 4340  13.745   7.896  11.663
  815SOL     OW 4341  10.944   8.300   1.890
  815SOL    HW1 4342  11.023   8.348   1.914
  815SOL    HW2 4343  10.952   8.286   1.796
  816SOL     OW 4344  14.190  13.727   5.531
  816SOL    HW1 4345  14.203  13.633   5.521
  816SOL    HW2 4346  14.205  13.743   5.624
  817SOL     OW 4347  13.102   7.692   9.689
  817SOL    HW1 4348  13.111   7.689   9.593
  817SOL    HW2 4349  13.088   7.785   9.709
  818SOL     OW 4350   9.011   1.620  13.021
  818SOL    HW1 4351   9.098   1.582  13.039
  818SOL    HW2 4352   9.009   1.631  12.926
  819SOL     OW 4353  12.319  12.735   0.414
  819SOL    HW1 4354  12.300  12.799   0.483
  819SOL    HW2 4355  12.285  12.652   0.449
  820SOL     OW 4356   7.435   6.984  13.702
  820SOL    HW1 4357   7.477   6.902  13.727
  820SOL    HW2 4358   7.505   7.048  13.703
  821SOL     OW 4359   3.347   6.039   6.564
  821SOL    HW1 4360   3.404   5.965   6.587
  821SOL    HW2 4361   3.313   6.017   6.477
  822SOL     OW 4362   0.372  13.734  12.473
  822SOL    HW1 4363   0.399  13.656  12.522
  822SOL    HW2 4364   0.424  13.805  12.511
  823SOL     OW 4365  11.990   8.745   1.406
  823SOL    HW1 4366  12.006   8.675   1.470
  823SOL    HW2 4367  12.077   8.772   1.379
  824SOL     OW 4368   9.669   3.018  14.086
  824SOL    HW1 4369   9.736   2.956  14.112
  824SOL    HW2 4370   9.605   2.967  14.036
  825SOL     OW 4371   3.284  14.191   3.585
  825SOL    HW1 4372   3.335  14.170   3.507
  825SOL    HW2 4373   3.197  14.213   3.552
  826SOL     OW 4374   7.840  13.884   3.510
  826SOL    HW1 4375   7.889  13.945   3.566
  826SOL    HW2 4376   7.749  13.913   3.518
  827SOL     OW 4377   0.247   0.194   7.862
  827SOL    HW1 4378   0.174   0.142   7.898
  827SOL    HW2 4379   0.252   0.270   7.920
  828SOL     OW 4380   3.558  11.673   6.323
  828SOL    HW1 4381   3.575  11.748   6.265
  828SOL    HW2 4382   3.533  11.602   6.263
  829SOL     OW 4383   2.701  13.539   4.786
  829SOL    HW1 4384   2.762  13.585   4.844
  829SOL    HW2 4385   2.670  13.465   4.839
  830SOL     OW 4386   1.031   7.653  13.067
  830SOL    HW1 4387   0.976   7.622  13.140
  830SOL    HW2 4388   1.106   7.595  13.067
  831SOL     OW 4389  14.166  11.061   5.404
  831SOL    HW1 4390  14.180  11.073   5.498
  831SOL    HW2 4391  14.072  11.077   5.392
  832SOL     OW 4392  10.823  13.534  12.100
  832SOL    HW1 4393  10.823  13.622  12.136
  832SOL    HW2 4394  10.822  13.476  12.176
  833SOL     OW 4395   1.204   1.687   7.856
  833SOL    HW1 4396   1.214   1.616   7.920
  833SOL    HW2 4397   1.180   1.763   7.909
  834SOL     OW 4398   0.979   4.746  10.299
  834SOL    HW1 4399   1.049   4.745  10.363
  834SOL    HW2 4400   0.957   4.654  10.285
  835SOL     OW 4401   4.829  12.409  11.002
  835SOL    HW1 4402   4.752  12.379  10.954
  835SOL    HW2 4403   4.891  12.434  10.933
  836SOL     OW 4404   3.289   7.143  10.808
  836SOL    HW1 4405   3.243   7.084  10.748
  836SOL    HW2 4406   3.358   7.182  10.754
  837SOL     OW 4407   9.834  13.401   0.836
  837SOL    HW1 4408   9.925  13.420   0.857
  837SOL    HW2 4409   9.838  13.319   0.787
  838SOL     OW 4410   2.799   7.998   4.276
  838SOL    HW1 4411   2.799   8.086   4.239
  838SOL    HW2 4412   2.883   7.991   4.322
  839SOL     OW 4413   0.201   4.673   9.561
  839SOL    HW1 4414   0.233   4.687   9.651
  839SOL    HW2 4415   0.261   4.725   9.507
  840SOL     OW 4416   4.775   0.863   8.297
  840SOL    HW1 4417   4.714   0.932   8.272
  840SOL    HW2 4418   4.835   0.905   8.358
  841SOL     OW 4419   0.289   7.572   9.842
  841SOL    HW1 4420   0.246   7.657   9.837
  841SOL    HW2 4421   0.220   7.509   9.820
  842SOL     OW 4422   3.428   8.885   6.248
  842SOL    HW1 4423   3.454   8.962   6.198
  842SOL    HW2 4424   3.510   8.839   6.266
  843SOL     OW 4425   8.114   7.172  14.717
  843SOL    HW1 4426   8.187   7.110  14.708
  843SOL    HW2 4427   8.111   7.218  14.633
  844SOL     OW 4428   4.095   1.635   3.813
  844SOL    HW1 4429   4.104   1.706   3.749
  844SOL    HW2 4430   4.184   1.600   3.823
  845SOL     OW 4431   7.118  11.726   2.819
  845SOL    HW1 4432   7.091  11.689   2.735
  845SOL    HW2 4433   7.093  11.660   2.883
  846SOL     OW 4434  11.889   0.730   1.477
  846SOL    HW1 4435  11.862   0.756   1.565
  846SOL    HW2 4436  11.965   0.674   1.490
  847SOL     OW 4437   0.388  12.067   2.307
  847SOL    HW1 4438   0.465  12.053   2.362
  847SOL    HW2 4439   0.415  12.132   2.242
  848SOL     OW 4440   9.394   3.188   0.391
  848SOL    HW1 4441   9.350   3.158   0.470
  848SOL    HW2 4442   9.330   3.246   0.349
  849SOL     OW 4443   9.929  13.243   9.801
  849SOL    HW1 4444   9.999  13.305   9.823
  849SOL    HW2 4445   9.945  13.220   9.710
  850SOL     OW 4446  11.637  13.418   0.916
  850SOL    HW1 4447  11.703  13.426   0.847
  850SOL    HW2 4448  11.688  13.422   0.998
  851SOL     OW 4449   8.699  14.768  10.937
  851SOL    HW1 4450   8.618  14.726  10.908
  851SOL    HW2 4451   8.672  14.856  10.963
  852SOL     OW 4452   7.275   7.779   9.503
  852SOL    HW1 4453   7.193   7.751   9.545
  852SOL    HW2 4454   7.307   7.701   9.458
  853SOL     OW 4455   6.722   3.786   4.280
  853SOL    HW1 4456   6.643   3.768   4.227
  853SOL    HW2 4457   6.691   3.845   4.349
  854SOL     OW 4458   6.956  12.085   9.127
  854SOL    HW1 4459   6.980  12.175   9.103
  854SOL    HW2 4460   7.029  12.032   9.097
  855SOL     OW 4461   1.323   2.309   2.204
  855SOL    HW1 4462   1.371   2.388   2.180
  855SOL    HW2 4463   1.382   2.237   2.181
  856SOL     OW 4464  12.320   3.056   3.865
  856SOL    HW1 4465  12.339   2.986   3.927
  856SOL    HW2 4466  12.251   3.020   3.809
  857SOL     OW 4467   3.224   2.444   9.353
  857SOL    HW1 4468   3.243   2.502   9.427
  857SOL    HW2 4469   3.131   2.426   9.359
  858SOL     OW 4470  13.096   4.291  10.356
  858SOL    HW1 4471  13.128   4.257  10.439
  858SOL    HW2 4472  13.003   4.265  10.354
  859SOL     OW 4473   1.296   0.558   7.541
  859SOL    HW1 4474   1.367   0.506   7.502
  859SOL    HW2 4475   1.244   0.587   7.466
  860SOL     OW 4476  14.561  11.869   7.322
  860SOL    HW1 4477  14.466  11.874   7.318
  860SOL    HW2 4478  14.578  11.800   7.386
  861SOL     OW 4479  11.819  12.506   6.969
  861SOL    HW1 4480  11.865  12.568   7.026
  861SOL    HW2 4481  11.808  12.553   6.887
  862SOL     OW 4482  11.013  14.512   2.779
  862SOL    HW1 4483  10.987  14.521   2.870
  862SOL    HW2 4484  11.082  14.446   2.779
  863SOL     OW 4485  10.686   4.588   3.625
  863SOL    HW1 4486  10.650   4.507   3.589
  863SOL    HW2 4487  10.652   4.657   3.568
  864SOL     OW 4488   4.816   2.141   8.504
  864SOL    HW1 4489   4.906   2.148   8.472
  864SOL    HW2 4490   4.809   2.210   8.570
  865SOL     OW 4491   6.179   4.467   4.663
  865SOL    HW1 4492   6.208   4.533   4.726
  865SOL    HW2 4493   6.230   4.485   4.584
  866SOL     OW 4494   4.430   7.791   5.358
  866SOL    HW1 4495   4.446   7.720   5.296
  866SOL    HW2 4496   4.345   7.771   5.397
  867SOL     OW 4497   5.370   0.612   6.748
  867SOL    HW1 4498   5.346   0.628   6.839
  867SOL    HW2 4499   5.384   0.517   6.744
  868SOL     OW 4500   0.472  12.144   4.905
  868SOL    HW1 4501   0.394  12.146   4.850
  868SOL    HW2 4502   0.494  12.051   4.911
  869SOL     OW 4503  11.184   1.981   7.770
  869SOL    HW1 4504  11.105   1.953   7.723
  869SOL    HW2 4505  11.236   2.027   7.705
  870SOL     OW 4506   2.024   9.146   3.502
  870SOL    HW1 4507   2.058   9.115   3.586
  870SOL    HW2 4508   2.005   9.239   3.516
  871SOL     OW 4509  14.377   3.545   1.616
  871SOL    HW1 4510  14.398   3.452   1.609
  871SOL    HW2 4511  14.374   3.561   1.711
  872SOL     OW 4512   7.442   5.599  14.710
  872SOL    HW1 4513   7.458   5.525  14.769
  872SOL    HW2 4514   7.348   5.598  14.694
  873SOL     OW 4515   9.208   8.300   6.045
  873SOL    HW1 4516   9.217   8.356   5.968
  873SOL    HW2 4517   9.196   8.212   6.009
  874SOL     OW 4518  14.803   7.335   7.233
  874SOL    HW1 4519  14.721   7.286   7.235
  874SOL    HW2 4520  14.780   7.418   7.190
  875SOL     OW 4521  13.976  11.777  14.830
  875SOL    HW1 4522  14.033  11.797   0.035
  875SOL    HW2 4523  13.971  11.681  14.828
  876SOL     OW 4524   8.859   2.803  12.672
  876SOL    HW1 4525   8.925   2.859  12.714
  876SOL    HW2 4526   8.777   2.852  12.680
  877SOL     OW 4527   8.508  14.667   2.555
  877SOL    HW1 4528   8.429  14.681   2.502
  877SOL    HW2 4529   8.571  14.629   2.494
  878SOL     OW 4530   8.028  11.381   5.711
  878SOL    HW1 4531   8.052  11.324   5.639
  878SOL    HW2 4532   7.939  11.409   5.691
  879SOL     OW 4533   7.795   8.601   1.216
  879SOL    HW1 4534   7.701   8.584   1.226
  879SOL    HW2 4535   7.835   8.565   1.294
  880SOL     OW 4536   2.548   1.065   2.734
  880SOL    HW1 4537   2.461   1.089   2.766
  880SOL    HW2 4538   2.586   1.148   2.705
  881SOL     OW 4539   5.552   4.486  12.536
  881SOL    HW1 4540   5.629   4.441  12.571
  881SOL    HW2 4541   5.506   4.519  12.613
  882SOL     OW 4542   6.150   1.224   0.281
  882SOL    HW1 4543   6.217   1.289   0.256
  882SOL    HW2 4544   6.172   1.201   0.371
  883SOL     OW 4545   1.935  13.553   8.963
  883SOL    HW1 4546   2.014  13.498   8.963
  883SOL    HW2 4547   1.902  13.546   9.053
  884SOL     OW 4548   4.479   1.968   3.389
  884SOL    HW1 4549   4.485   2.057   3.423
  884SOL    HW2 4550   4.531   1.916   3.450
  885SOL     OW 4551   1.152   7.996  12.167
  885SOL    HW1 4552   1.145   8.030  12.078
  885SOL    HW2 4553   1.086   7.927  12.172
  886SOL     OW 4554   9.629  14.727   4.546
  886SOL    HW1 4555   9.691  14.758   4.612
  886SOL    HW2 4556   9.665  14.643   4.518
  887SOL     OW 4557  11.859   3.562   0.259
  887SOL    HW1 4558  11.796   3.567   0.187
  887SOL    HW2 4559  11.831   3.487   0.311
  888SOL     OW 4560   0.306  12.916   3.993
  888SOL    HW1 4561   0.230  12.909   3.935
  888SOL    HW2 4562   0.310  13.008   4.017
  889SOL     OW 4563   3.209   0.826   6.468
  889SOL    HW1 4564   3.130   0.773   6.464
  889SOL    HW2 4565   3.279   0.765   6.489
  890SOL     OW 4566   9.391  11.097   5.411
  890SOL    HW1 4567   9.352  11.019   5.370
  890SOL    HW2 4568   9.472  11.065   5.450
  891SOL     OW 4569   2.513   9.842   9.867
  891SOL    HW1 4570   2.502   9.934   9.892
  891SOL    HW2 4571   2.436   9.798   9.904
  892SOL     OW 4572   6.067  12.318   9.769
  892SOL    HW1 4573   6.118  12.258   9.715
  892SOL    HW2 4574   6.040  12.265   9.844
  893SOL     OW 4575  13.554   7.329   5.763
  893SOL    HW1 4576  13.636   7.378   5.752
  893SOL    HW2 4577  13.490   7.378   5.711
  894SOL     OW 4578  11.894   5.166  12.462
  894SOL    HW1 4579  11.860   5.253  12.442
  894SOL    HW2 4580  11.816   5.111  12.471
  895SOL     OW 4581   3.539  14.603  11.836
  895SOL    HW1 4582   3.592  14.523  11.839
  895SOL    HW2 4583   3.551  14.637  11.748
  896SOL     OW 4584  14.690   1.329   7.240
  896SOL    HW1 4585  14.603   1.344   7.204
  896SOL    HW2 4586  14.706   1.404   7.296
  897SOL     OW 4587   3.017  13.420   3.651
  897SOL    HW1 4588   2.989  13.403   3.741
  897SOL    HW2 4589   3.051  13.336   3.620
  898SOL     OW 4590  13.480   6.089   5.589
  898SOL    HW1 4591  13.455   6.097   5.681
  898SOL    HW2 4592  13.559   6.035   5.590
  899SOL     OW 4593   7.789   4.824  12.185
  899SOL    HW1 4594   7.871   4.784  12.156
  899SOL    HW2 4595   7.794   4.914  12.154
  900SOL     OW 4596   7.207  10.969   5.639
  900SOL    HW1 4597   7.130  10.957   5.583
  900SOL    HW2 4598   7.277  10.996   5.580
  901SOL     OW 4599   2.073   7.875   0.627
  901SOL    HW1 4600   2.128   7.797   0.615
  901SOL    HW2 4601   1.983   7.842   0.624
  902SOL     OW 4602  11.406   2.970  14.273
  902SOL    HW1 4603  11.445   3.033  14.212
  902SOL    HW2 4604  11.344   3.022  14.325
  903SOL     OW 4605   5.596   9.617   6.853
  903SOL    HW1 4606   5.646   9.547   6.811
  903SOL    HW2 4607   5.509   9.611   6.814
  904SOL     OW 4608   0.001   4.426   4.446
  904SOL    HW1 4609   0.081   4.456   4.403
  904SOL    HW2 4610   0.014   4.448   4.538
  905SOL     OW 4611   8.677  14.329  13.691
  905SOL    HW1 4612   8.747  14.394  13.702
  905SOL    HW2 4613   8.713  14.265  13.629
  906SOL     OW 4614  13.139  10.393   2.640
  906SOL    HW1 4615  13.222  10.437   2.626
  906SOL    HW2 4616  13.113  10.418   2.729
  907SOL     OW 4617   9.801   0.287   0.444
  907SOL    HW1 4618   9.777   0.377   0.463
  907SOL    HW2 4619   9.818   0.248   0.529
  908SOL     OW 4620   1.801   5.195   6.752
  908SOL    HW1 4621   1.812   5.137   6.828
  908SOL    HW2 4622   1.851   5.152   6.682
  909SOL     OW 4623  12.050   1.244  14.508
  909SOL    HW1 4624  12.053   1.263  14.414
  909SOL    HW2 4625  12.139   1.214  14.529
  910SOL     OW 4626   3.249   0.187   9.464
  910SOL    HW1 4627   3.216   0.098   9.461
  910SOL    HW2 4628   3.280   0.205   9.375
  911SOL     OW 4629   2.868   1.794   4.029
  911SOL    HW1 4630   2.827   1.769   4.111
  911SOL    HW2 4631   2.951   1.835   4.055
  912SOL     OW 4632  14.469  12.888   6.790
  912SOL    HW1 4633  14.462  12.829   6.865
  912SOL    HW2 4634  14.466  12.829   6.714
  913SOL     OW 4635   2.578  12.299  11.106
  913SOL    HW1 4636   2.520  12.364  11.066
  913SOL    HW2 4637   2.593  12.330  11.195
  914SOL     OW 4638   0.011   5.126   2.867
  914SOL    HW1 4639  14.848   5.103   2.780
  914SOL    HW2 4640   0.087   5.070   2.881
  915SOL     OW 4641   5.287   8.120   4.103
  915SOL    HW1 4642   5.341   8.105   4.181
  915SOL    HW2 4643   5.197   8.107   4.133
  916SOL     OW 4644   8.689   9.573   2.055
  916SOL    HW1 4645   8.711   9.490   2.014
  916SOL    HW2 4646   8.636   9.619   1.990
  917SOL     OW 4647   8.396   2.701  10.520
  917SOL    HW1 4648   8.356   2.783  10.490
  917SOL    HW2 4649   8.372   2.696  10.613
  918SOL     OW 4650  14.247  11.882   3.730
  918SOL    HW1 4651  14.203  11.925   3.656
  918SOL    HW2 4652  14.185  11.889   3.802
  919SOL     OW 4653  11.816   1.539   1.118
  919SOL    HW1 4654  11.840   1.564   1.208
  919SOL    HW2 4655  11.847   1.612   1.064
  920SOL     OW 4656   8.274   7.391   0.537
  920SOL    HW1 4657   8.354   7.344   0.515
  920SOL    HW2 4658   8.244   7.428   0.454
  921SOL     OW 4659   6.987  12.433  11.156
  921SOL    HW1 4660   7.074  12.402  11.182
  921SOL    HW2 4661   6.934  12.353  11.152
  922SOL     OW 4662  12.430   3.647   1.598
  922SOL    HW1 4663  12.499   3.580   1.597
  922SOL    HW2 4664  12.358   3.606   1.646
  923SOL     OW 4665  11.210   2.443   6.319
  923SOL    HW1 4666  11.231   2.426   6.227
  923SOL    HW2 4667  11.115   2.431   6.325
  924SOL     OW 4668   7.136   9.612  13.057
  924SOL    HW1 4669   7.174   9.685  13.106
  924SOL    HW2 4670   7.048   9.601  13.096
  925SOL     OW 4671   3.780   1.021   8.927
  925SOL    HW1 4672   3.738   1.009   9.012
  925SOL    HW2 4673   3.709   1.053   8.870
  926SOL     OW 4674   2.724   0.911  14.504
  926SOL    HW1 4675   2.659   0.843  14.485
  926SOL    HW2 4676   2.753   0.892  14.593
  927SOL     OW 4677  11.572   5.130  14.096
  927SOL    HW1 4678  11.490   5.104  14.053
  927SOL    HW2 4679  11.638   5.127  14.027
  928SOL     OW 4680  13.725   6.450  13.782
  928SOL    HW1 4681  13.664   6.495  13.722
  928SOL    HW2 4682  13.702   6.485  13.869
  929SOL     OW 4683  12.408  11.528   4.702
  929SOL    HW1 4684  12.345  11.505   4.771
  929SOL    HW2 4685  12.398  11.459   4.636
  930SOL     OW 4686  12.064   4.543  14.050
  930SOL    HW1 4687  12.142   4.506  14.010
  930SOL    HW2 4688  12.072   4.637  14.037
  931SOL     OW 4689   2.590   0.326  11.447
  931SOL    HW1 4690   2.619   0.396  11.388
  931SOL    HW2 4691   2.643   0.338  11.526
  932SOL     OW 4692  10.914  14.768   8.269
  932SOL    HW1 4693  11.003  14.732   8.278
  932SOL    HW2 4694  10.866  14.730   8.343
  933SOL     OW 4695  13.429  13.587   8.397
  933SOL    HW1 4696  13.459  13.624   8.314
  933SOL    HW2 4697  13.452  13.652   8.463
  934SOL     OW 4698   7.975   8.561   8.003
  934SOL    HW1 4699   7.966   8.646   7.960
  934SOL    HW2 4700   7.983   8.499   7.932
  935SOL     OW 4701   0.091  13.083  12.319
  935SOL    HW1 4702   0.030  13.156  12.325
  935SOL    HW2 4703   0.039  13.010  12.286
  936SOL     OW 4704  12.403  12.718   4.743
  936SOL    HW1 4705  12.362  12.716   4.830
  936SOL    HW2 4706  12.405  12.811   4.720
  937SOL     OW 4707  12.014  10.516  13.840
  937SOL    HW1 4708  11.955  10.476  13.904
  937SOL    HW2 4709  11.960  10.579  13.794
  938SOL     OW 4710  14.573   4.499  14.023
  938SOL    HW1 4711  14.545   4.566  14.087
  938SOL    HW2 4712  14.554   4.416  14.066
  939SOL     OW 4713  13.220   5.408   9.888
  939SOL    HW1 4714  13.243   5.454   9.807
  939SOL    HW2 4715  13.126   5.424   9.899
  940SOL     OW 4716   7.203   6.580   6.117
  940SOL    HW1 4717   7.153   6.557   6.196
  940SOL    HW2 4718   7.221   6.496   6.076
  941SOL     OW 4719   4.895   1.888  12.224
  941SOL    HW1 4720   4.984   1.862  12.198
  941SOL    HW2 4721   4.908   1.957  12.289
  942SOL     OW 4722   4.009  14.015   5.789
  942SOL    HW1 4723   4.045  14.086   5.735
  942SOL    HW2 4724   3.992  13.944   5.727
  943SOL     OW 4725   8.319  12.719  10.287
  943SOL    HW1 4726   8.331  12.707  10.381
  943SOL    HW2 4727   8.228  12.693  10.271
  944SOL     OW 4728   6.320   6.610   1.120
  944SOL    HW1 4729   6.318   6.700   1.087
  944SOL    HW2 4730   6.360   6.617   1.206
  945SOL     OW 4731  11.900   9.488   5.001
  945SOL    HW1 4732  11.898   9.551   4.929
  945SOL    HW2 4733  11.942   9.410   4.965
  946SOL     OW 4734   3.262   8.394   1.293
  946SOL    HW1 4735   3.278   8.482   1.327
  946SOL    HW2 4736   3.335   8.379   1.232
  947SOL     OW 4737   3.105   6.509   0.290
  947SOL    HW1 4738   3.134   6.577   0.351
  947SOL    HW2 4739   3.115   6.549   0.204
  948SOL     OW 4740  13.934   8.884  12.237
  948SOL    HW1 4741  13.864   8.922  12.183
  948SOL    HW2 4742  13.930   8.932  12.319
  949SOL     OW 4743  14.738  10.584   3.225
  949SOL    HW1 4744  14.735  10.595   3.320
  949SOL    HW2 4745  14.799  10.651   3.194
  950SOL     OW 4746  14.083   7.826   5.327
  950SOL    HW1 4747  14.160   7.770   5.339
  950SOL    HW2 4748  14.031   7.814   5.407
  951SOL     OW 4749   6.039  14.749   0.644
  951SOL    HW1 4750   6.078  14.679   0.592
  951SOL    HW2 4751   6.113  14.801   0.674
  952SOL     OW 4752   5.347   9.743   9.631
  952SOL    HW1 4753   5.324   9.662   9.678
  952SOL    HW2 4754   5.383   9.800   9.699
  953SOL     OW 4755   1.859   8.081   8.613
  953SOL    HW1 4756   1.925   8.078   8.683
  953SOL    HW2 4757   1.879   8.162   8.566
  954SOL     OW 4758   5.476   9.889   9.208
  954SOL    HW1 4759   5.501   9.866   9.119
  954SOL    HW2 4760   5.443   9.807   9.246
  955SOL     OW 4761   9.304  12.138   3.006
  955SOL    HW1 4762   9.362  12.162   3.079
  955SOL    HW2 4763   9.241  12.210   3.002
  956SOL     OW 4764   8.202   2.282   3.090
  956SOL    HW1 4765   8.198   2.375   3.112
  956SOL    HW2 4766   8.114   2.249   3.108
  957SOL     OW 4767   2.120   2.299   7.072
  957SOL    HW1 4768   2.027   2.321   7.077
  957SOL    HW2 4769   2.149   2.339   6.990
  958SOL     OW 4770   3.621   2.007  12.444
  958SOL    HW1 4771   3.619   2.008  12.539
  958SOL    HW2 4772   3.712   2.028  12.421
  959SOL     OW 4773   5.594  13.837   5.895
  959SOL    HW1 4774   5.591  13.835   5.991
  959SOL    HW2 4775   5.559  13.923   5.872
  960SOL     OW 4776   8.115   5.595   6.983
  960SOL    HW1 4777   8.092   5.524   6.924
  960SOL    HW2 4778   8.078   5.569   7.068
  961SOL     OW 4779   2.543   1.863   6.214
  961SOL    HW1 4780   2.603   1.835   6.283
  961SOL    HW2 4781   2.513   1.949   6.242
  962SOL     OW 4782   2.673   0.620   6.251
  962SOL    HW1 4783   2.589   0.665   6.264
  962SOL    HW2 4784   2.694   0.583   6.337
  963SOL     OW 4785   2.604   8.127   4.034
  963SOL    HW1 4786   2.626   8.218   4.015
  963SOL    HW2 4787   2.584   8.126   4.127
  964SOL     OW 4788   1.139   2.188  11.911
  964SOL    HW1 4789   1.087   2.189  11.831
  964SOL    HW2 4790   1.095   2.250  11.969
  965SOL     OW 4791  13.285  10.918   4.766
  965SOL    HW1 4792  13.211  10.865   4.796
  965SOL    HW2 4793  13.362  10.863   4.784
  966SOL     OW 4794   4.085   2.059   5.067
  966SOL    HW1 4795   4.142   2.040   5.141
  966SOL    HW2 4796   4.099   2.152   5.049
  967SOL     OW 4797   6.009   3.809  14.217
  967SOL    HW1 4798   6.074   3.740  14.234
  967SOL    HW2 4799   6.056   3.891  14.233
  968SOL     OW 4800   7.829   9.066   3.442
  968SOL    HW1 4801   7.788   8.982   3.423
  968SOL    HW2 4802   7.756   9.124   3.466
  969SOL     OW 4803   7.814  11.667  13.256
  969SOL    HW1 4804   7.749  11.736  13.242
  969SOL    HW2 4805   7.850  11.650  13.169
  970SOL     OW 4806   1.636   9.505   0.602
  970SOL    HW1 4807   1.613   9.456   0.523
  970SOL    HW2 4808   1.702   9.568   0.572
  971SOL     OW 4809   4.464   2.324   6.384
  971SOL    HW1 4810   4.433   2.352   6.298
  971SOL    HW2 4811   4.385   2.299   6.432
  972SOL     OW 4812   6.899   1.187  11.483
  972SOL    HW1 4813   6.835   1.256  11.470
  972SOL    HW2 4814   6.973   1.212  11.426
  973SOL     OW 4815   6.302  12.883  12.110
  973SOL    HW1 4816   6.314  12.895  12.016
  973SOL    HW2 4817   6.210  12.860  12.120
  974SOL     OW 4818   6.609   2.538  12.904
  974SOL    HW1 4819   6.658   2.550  12.985
  974SOL    HW2 4820   6.518   2.528  12.932
  975SOL     OW 4821   6.337   7.016  13.508
  975SOL    HW1 4822   6.396   6.943  13.488
  975SOL    HW2 4823   6.303   7.044  13.423
  976SOL     OW 4824   0.672  12.968  13.265
  976SOL    HW1 4825   0.676  12.994  13.358
  976SOL    HW2 4826   0.763  12.971  13.236
  977SOL     OW 4827   1.192   6.337  13.353
  977SOL    HW1 4828   1.260   6.346  13.287
  977SOL    HW2 4829   1.236   6.354  13.436
  978SOL     OW 4830   4.788  13.614  11.115
  978SOL    HW1 4831   4.774  13.706  11.096
  978SOL    HW2 4832   4.707  13.571  11.086
  979SOL     OW 4833   5.462  10.156   8.815
  979SOL    HW1 4834   5.451  10.204   8.897
  979SOL    HW2 4835   5.446  10.221   8.747
  980SOL     OW 4836   2.678   1.174   8.500
  980SOL    HW1 4837   2.739   1.105   8.473
  980SOL    HW2 4838   2.595   1.149   8.459
  981SOL     OW 4839   6.614   0.529   1.207
  981SOL    HW1 4840   6.598   0.521   1.113
  981SOL    HW2 4841   6.686   0.591   1.214
  982SOL     OW 4842   9.500  11.903   2.828
  982SOL    HW1 4843   9.574  11.863   2.874
  982SOL    HW2 4844   9.527  11.903   2.736
  983SOL     OW 4845   0.110   3.007   4.231
  983SOL    HW1 4846   0.136   2.915   4.240
  983SOL    HW2 4847   0.126   3.045   4.318
  984SOL     OW 4848   2.771  13.282   2.208
  984SOL    HW1 4849   2.725  13.363   2.184
  984SOL    HW2 4850   2.758  13.274   2.302
  985SOL     OW 4851   9.218  13.788   7.599
  985SOL    HW1 4852   9.312  13.773   7.584
  985SOL    HW2 4853   9.191  13.714   7.655
  986SOL     OW 4854   1.623   4.022  10.461
  986SOL    HW1 4855   1.598   4.096  10.405
  986SOL    HW2 4856   1.704   3.989  10.421
  987SOL     OW 4857   4.294  12.706  11.695
  987SOL    HW1 4858   4.247  12.785  11.670
  987SOL    HW2 4859   4.309  12.660  11.612
  988SOL     OW 4860   5.935   3.403   0.993
  988SOL    HW1 4861   5.960   3.483   0.948
  988SOL    HW2 4862   5.926   3.338   0.923
  989SOL     OW 4863   2.175  13.341  12.616
  989SOL    HW1 4864   2.264  13.374  12.603
  989SOL    HW2 4865   2.136  13.399  12.680
  990SOL     OW 4866   4.602  12.115   4.150
  990SOL    HW1 4867   4.647  12.167   4.084
  990SOL    HW2 4868   4.531  12.171   4.182
  991SOL     OW 4869  10.098  11.364  13.677
  991SOL    HW1 4870  10.053  11.337  13.757
  991SOL    HW2 4871  10.057  11.311  13.608
  992SOL     OW 4872   6.020   7.925   1.781
  992SOL    HW1 4873   5.930   7.959   1.788
  992SOL    HW2 4874   6.060   7.947   1.865
  993SOL     OW 4875  11.009   9.758   6.791
  993SOL    HW1 4876  10.978   9.794   6.875
  993SOL    HW2 4877  10.929   9.742   6.741
  994SOL     OW 4878   1.020  13.729  10.204
  994SOL    HW1 4879   1.032  13.802  10.144
  994SOL    HW2 4880   1.016  13.770  10.291
  995SOL     OW 4881  10.799   3.416  13.688
  995SOL    HW1 4882  10.809   3.335  13.738
  995SOL    HW2 4883  10.847   3.400  13.607
  996SOL     OW 4884   0.482   5.476   5.172
  996SOL    HW1 4885   0.441   5.547   5.123
  996SOL    HW2 4886   0.476   5.504   5.264
  997SOL     OW 4887   7.021   4.923   3.400
  997SOL    HW1 4888   6.996   4.991   3.463
  997SOL    HW2 4889   7.116   4.915   3.409
  998SOL     OW 4890  13.623  13.055  13.019
  998SOL    HW1 4891  13.673  13.126  12.979
  998SOL    HW2 4892  13.532  13.081  13.008
  999SOL     OW 4893  10.327   2.510   8.266
  999SOL    HW1 4894  10.255   2.501   8.204
  999SOL    HW2 4895  10.285   2.510   8.352
 1000SOL     OW 4896   1.117   2.588  12.406
 1000SOL    HW1 4897   1.169   2.618  12.480
 1000SOL    HW2 4898   1.029   2.574  12.443
 1001SOL     OW 4899   6.899   3.337   0.962
 1001SOL    HW1 4900   6.951   3.401   0.913
 1001SOL    HW2 4901   6.962   3.292   1.017
 1002SOL     OW 4902   4.898  12.744  10.809
 1002SOL    HW1 4903   4.935  12.655  10.813
 1002SOL    HW2 4904   4.954  12.790  10.748
 1003SOL     OW 4905  14.115   6.499  12.932
 1003SOL    HW1 4906  14.124   6.509  13.026
 1003SOL    HW2 4907  14.031   6.538  12.911
 1004SOL     OW 4908   7.576   8.963  13.568
 1004SOL    HW1 4909   7.647   9.020  13.598
 1004SOL    HW2 4910   7.598   8.943  13.477
 1005SOL     OW 4911  13.598   9.884   8.776
 1005SOL    HW1 4912  13.586   9.810   8.836
 1005SOL    HW2 4913  13.512   9.899   8.738
 1006SOL     OW 4914   8.608  10.547  13.115
 1006SOL    HW1 4915   8.515  10.566  13.131
 1006SOL    HW2 4916   8.609  10.506  13.028
 1007SOL     OW 4917  14.824  11.085   5.557
 1007SOL    HW1 4918  14.810  11.167   5.511
 1007SOL    HW2 4919   0.003  11.031   5.495
 1008SOL     OW 4920  10.949   8.092   3.614
 1008SOL    HW1 4921  10.970   8.145   3.537
 1008SOL    HW2 4922  10.884   8.143   3.661
 1009SOL     OW 4923   4.473   0.766  12.460
 1009SOL    HW1 4924   4.527   0.776  12.539
 1009SOL    HW2 4925   4.495   0.841  12.406
 1010SOL     OW 4926  10.176  14.661  14.513
 1010SOL    HW1 4927  10.169  14.576  14.556
 1010SOL    HW2 4928  10.086  14.694  14.509
 1011SOL     OW 4929   7.395   1.697  10.454
 1011SOL    HW1 4930   7.301   1.682  10.457
 1011SOL    HW2 4931   7.415   1.713  10.362
 1012SOL     OW 4932   7.273   4.025  13.030
 1012SOL    HW1 4933   7.223   4.038  12.949
 1012SOL    HW2 4934   7.301   3.933  13.026
 1013SOL     OW 4935   0.381  14.683   6.162
 1013SOL    HW1 4936   0.296  14.663   6.201
 1013SOL    HW2 4937   0.434  14.716   6.234
 1014SOL     OW 4938  13.210  11.735   5.174
 1014SOL    HW1 4939  13.211  11.724   5.079
 1014SOL    HW2 4940  13.285  11.792   5.192
 1015SOL     OW 4941   4.767   3.353   3.092
 1015SOL    HW1 4942   4.808   3.296   3.028
 1015SOL    HW2 4943   4.676   3.359   3.065
 1016SOL     OW 4944   2.665   5.912   1.296
 1016SOL    HW1 4945   2.592   5.854   1.278
 1016SOL    HW2 4946   2.664   5.925   1.390
 1017SOL     OW 4947   0.911   4.110   9.576
 1017SOL    HW1 4948   0.859   4.040   9.538
 1017SOL    HW2 4949   0.889   4.109   9.670
 1018SOL     OW 4950  14.729  13.031   6.794
 1018SOL    HW1 4951  14.709  13.114   6.751
 1018SOL    HW2 4952  14.649  12.979   6.784
 1019SOL     OW 4953   3.801  11.235   8.669
 1019SOL    HW1 4954   3.753  11.174   8.614
 1019SOL    HW2 4955   3.769  11.218   8.757
 1020SOL     OW 4956   9.061   1.173   6.702
 1020SOL    HW1 4957   9.071   1.120   6.622
 1020SOL    HW2 4958   9.151   1.198   6.725
 1021SOL     OW 4959   2.237   8.836   5.422
 1021SOL    HW1 4960   2.229   8.748   5.460
 1021SOL    HW2 4961   2.246   8.820   5.328
 1022SOL     OW 4962   6.565   5.301   2.032
 1022SOL    HW1 4963   6.619   5.380   2.028
 1022SOL    HW2 4964   6.476   5.332   2.043
 1023SOL     OW 4965  12.042   0.576  14.365
 1023SOL    HW1 4966  12.023   0.590  14.272
 1023SOL    HW2 4967  11.984   0.505  14.391
 1024SOL     OW 4968  14.090   2.231   9.373
 1024SOL    HW1 4969  14.027   2.292   9.335
 1024SOL    HW2 4970  14.109   2.169   9.303
 1025SOL     OW 4971   1.872   6.830   5.089
 1025SOL    HW1 4972   1.957   6.809   5.127
 1025SOL    HW2 4973   1.852   6.753   5.035
 1026SOL     OW 4974  12.957   2.960   3.261
 1026SOL    HW1 4975  12.901   2.954   3.339
 1026SOL    HW2 4976  12.898   2.989   3.192
 1027SOL     OW 4977   1.373   9.544   3.167
 1027SOL    HW1 4978   1.278   9.544   3.181
 1027SOL    HW2 4979   1.409   9.518   3.251
 1028SOL     OW 4980   0.262   2.934   3.993
 1028SOL    HW1 4981   0.178   2.959   4.032
 1028SOL    HW2 4982   0.284   2.850   4.035
 1029SOL     OW 4983  11.212  11.216   3.468
 1029SOL    HW1 4984  11.119  11.221   3.447
 1029SOL    HW2 4985  11.253  11.281   3.410
 1030SOL     OW 4986   0.870   5.526   4.197
 1030SOL    HW1 4987   0.805   5.482   4.143
 1030SOL    HW2 4988   0.826   5.604   4.230
 1031SOL     OW 4989  13.473   6.994   3.159
 1031SOL    HW1 4990  13.494   6.984   3.066
 1031SOL    HW2 4991  13.423   7.075   3.164
 1032SOL     OW 4992   7.859   0.761  14.203
 1032SOL    HW1 4993   7.847   0.736  14.112
 1032SOL    HW2 4994   7.894   0.682  14.246
 1033SOL     OW 4995   2.147  12.194   5.415
 1033SOL    HW1 4996   2.075  12.255   5.433
 1033SOL    HW2 4997   2.121  12.113   5.459
 1034SOL     OW 4998   6.829   4.129   4.909
 1034SOL    HW1 4999   6.748   4.168   4.875
 1034SOL    HW2 5000   6.800   4.070   4.979
 1035SOL     OW 5001  12.350   1.795   9.495
 1035SOL    HW1 5002  12.398   1.877   9.495
 1035SOL    HW2 5003  12.263   1.818   9.462
 1036SOL     OW 5004  14.723   4.127   3.575
 1036SOL    HW1 5005  14.719   4.034   3.597
 1036SOL    HW2 5006  14.813   4.153   3.598
 1037SOL     OW 5007   4.199  10.890   6.839
 1037SOL    HW1 5008   4.190  10.986   6.837
 1037SOL    HW2 5009   4.265  10.874   6.907
 1038SOL     OW 5010   4.310   8.228   2.918
 1038SOL    HW1 5011   4.258   8.172   2.974
 1038SOL    HW2 5012   4.305   8.315   2.959
 1039SOL     OW 5013   9.242   4.212  13.086
 1039SOL    HW1 5014   9.304   4.144  13.116
 1039SOL    HW2 5015   9.173   4.163  13.042
 1040SOL     OW 5016  12.566   0.781   3.149
 1040SOL    HW1 5017  12.533   0.801   3.237
 1040SOL    HW2 5018  12.660   0.793   3.156
 1041SOL     OW 5019   3.484   0.588   0.713
 1041SOL    HW1 5020   3.561   0.642   0.731
 1041SOL    HW2 5021   3.414   0.631   0.761
 1042SOL     OW 5022  14.253  12.127   0.389
 1042SOL    HW1 5023  14.264  12.176   0.308
 1042SOL    HW2 5024  14.177  12.167   0.431
 1043SOL     OW 5025   7.485   3.919  10.604
 1043SOL    HW1 5026   7.512   3.996  10.554
 1043SOL    HW2 5027   7.567   3.877  10.629
 1044SOL     OW 5028   2.518  11.747   2.959
 1044SOL    HW1 5029   2.462  11.748   3.037
 1044SOL    HW2 5030   2.543  11.655   2.950
 1045SOL     OW 5031   9.150   1.100   3.826
 1045SOL    HW1 5032   9.142   1.090   3.731
 1045SOL    HW2 5033   9.219   1.038   3.851
 1046SOL     OW 5034   8.154   5.053   8.916
 1046SOL    HW1 5035   8.090   5.081   8.981
 1046SOL    HW2 5036   8.108   4.987   8.864
 1047SOL     OW 5037  10.234  12.059   6.111
 1047SOL    HW1 5038  10.226  11.979   6.162
 1047SOL    HW2 5039  10.164  12.116   6.144
 1048SOL     OW 5040   5.280  14.634   6.436
 1048SOL    HW1 5041   5.332  14.576   6.493
 1048SOL    HW2 5042   5.328  14.717   6.437
 1049SOL     OW 5043   3.727   8.225  14.098
 1049SOL    HW1 5044   3.751   8.317  14.096
 1049SOL    HW2 5045   3.632   8.225  14.111
 1050SOL     OW 5046  10.827   2.660  11.131
 1050SOL    HW1 5047  10.877   2.709  11.066
 1050SOL    HW2 5048  10.839   2.568  11.107
 1051SOL     OW 5049   9.067   4.733   3.965
 1051SOL    HW1 5050   9.021   4.719   3.882
 1051SOL    HW2 5051   9.048   4.824   3.988
 1052SOL     OW 5052  10.845   1.910   8.648
 1052SOL    HW1 5053  10.819   1.828   8.606
 1052SOL    HW2 5054  10.866   1.968   8.575
 1053SOL     OW 5055   1.399   5.920  13.052
 1053SOL    HW1 5056   1.413   6.000  13.001
 1053SOL    HW2 5057   1.309   5.928  13.085
 1054SOL     OW 5058  11.903   8.255  14.114
 1054SOL    HW1 5059  11.853   8.217  14.186
 1054SOL    HW2 5060  11.887   8.198  14.040
 1055SOL     OW 5061  10.427   6.617   8.460
 1055SOL    HW1 5062  10.477   6.637   8.539
 1055SOL    HW2 5063  10.346   6.666   8.469
 1056SOL     OW 5064  13.280   1.454  10.495
 1056SOL    HW1 5065  13.371   1.483  10.499
 1056SOL    HW2 5066  13.276   1.400  10.416
 1057SOL     OW 5067   0.356   0.372  10.213
 1057SOL    HW1 5068   0.322   0.384  10.124
 1057SOL    HW2 5069   0.448   0.399  10.207
 1058SOL     OW 5070   4.585  12.799  12.383
 1058SOL    HW1 5071   4.640  12.771  12.457
 1058SOL    HW2 5072   4.583  12.894  12.389
 1059SOL     OW 5073  11.743  12.433   7.934
 1059SOL    HW1 5074  11.737  12.529   7.933
 1059SOL    HW2 5075  11.725  12.408   7.843
 1060SOL     OW 5076  13.920   0.368   4.972
 1060SOL    HW1 5077  13.876   0.418   4.903
 1060SOL    HW2 5078  13.913   0.424   5.050
 1061SOL     OW 5079   8.673   6.799   2.340
 1061SOL    HW1 5080   8.596   6.848   2.367
 1061SOL    HW2 5081   8.687   6.825   2.248
 1062SOL     OW 5082  14.592   3.153   4.723
 1062SOL    HW1 5083  14.561   3.152   4.632
 1062SOL    HW2 5084  14.539   3.221   4.765
 1063SOL     OW 5085   5.201   3.538   1.431
 1063SOL    HW1 5086   5.126   3.524   1.372
 1063SOL    HW2 5087   5.220   3.632   1.423
 1064SOL     OW 5088  12.212   9.191   5.088
 1064SOL    HW1 5089  12.251   9.108   5.061
 1064SOL    HW2 5090  12.139   9.165   5.146
 1065SOL     OW 5091  11.755  11.962   5.149
 1065SOL    HW1 5092  11.664  11.989   5.137
 1065SOL    HW2 5093  11.777  11.991   5.237
 1066SOL     OW 5094   0.652   6.977   4.443
 1066SOL    HW1 5095   0.604   6.934   4.372
 1066SOL    HW2 5096   0.613   7.065   4.448
 1067SOL     OW 5097   2.554  12.688   6.421
 1067SOL    HW1 5098   2.567  12.593   6.429
 1067SOL    HW2 5099   2.632  12.720   6.377
 1068SOL     OW 5100  10.738   1.067   2.228
 1068SOL    HW1 5101  10.651   1.047   2.195
 1068SOL    HW2 5102  10.762   0.991   2.281
 1069SOL     OW 5103   0.360   6.717   8.950
 1069SOL    HW1 5104   0.410   6.690   8.873
 1069SOL    HW2 5105   0.269   6.714   8.921
 1070SOL     OW 5106  13.837   8.611   9.541
 1070SOL    HW1 5107  13.886   8.529   9.535
 1070SOL    HW2 5108  13.791   8.619   9.458
 1071SOL     OW 5109  11.821   5.327   3.273
 1071SOL    HW1 5110  11.882   5.261   3.307
 1071SOL    HW2 5111  11.828   5.400   3.334
 1072SOL     OW 5112   2.464   0.338   3.250
 1072SOL    HW1 5113   2.496   0.419   3.289
 1072SOL    HW2 5114   2.461   0.276   3.322
 1073SOL     OW 5115   9.768   3.951  13.941
 1073SOL    HW1 5116   9.801   4.000  14.017
 1073SOL    HW2 5117   9.786   4.007  13.866
 1074SOL     OW 5118  10.893   0.583   5.903
 1074SOL    HW1 5119  10.882   0.489   5.888
 1074SOL    HW2 5120  10.816   0.609   5.954
 1075SOL     OW 5121   0.622  12.151   5.408
 1075SOL    HW1 5122   0.545  12.146   5.351
 1075SOL    HW2 5123   0.637  12.244   5.420
 1076SOL     OW 5124  12.677   4.570   2.073
 1076SOL    HW1 5125  12.718   4.609   2.150
 1076SOL    HW2 5126  12.597   4.622   2.059
 1077SOL     OW 5127   7.342   0.293   0.675
 1077SOL    HW1 5128   7.309   0.219   0.726
 1077SOL    HW2 5129   7.429   0.266   0.646
 1078SOL     OW 5130   8.196   0.920   4.295
 1078SOL    HW1 5131   8.155   0.851   4.345
 1078SOL    HW2 5132   8.124   0.966   4.252
 1079SOL     OW 5133   8.707  11.723  14.232
 1079SOL    HW1 5134   8.714  11.628  14.222
 1079SOL    HW2 5135   8.760  11.743  14.310
 1080SOL     OW 5136  11.243   1.632  10.940
 1080SOL    HW1 5137  11.314   1.583  10.983
 1080SOL    HW2 5138  11.231   1.709  10.995
 1081SOL     OW 5139   6.060   7.866   6.186
 1081SOL    HW1 5140   6.082   7.957   6.207
 1081SOL    HW2 5141   6.031   7.868   6.095
 1082SOL     OW 5142   1.887   1.085   5.222
 1082SOL    HW1 5143   1.862   1.023   5.153
 1082SOL    HW2 5144   1.855   1.043   5.303
 1083SOL     OW 5145   8.753  12.078  11.864
 1083SOL    HW1 5146   8.719  11.990  11.850
 1083SOL    HW2 5147   8.821  12.068  11.931
 1084SOL     OW 5148   9.750   7.440  13.038
 1084SOL    HW1 5149   9.736   7.352  13.073
 1084SOL    HW2 5150   9.807   7.426  12.962
 1085SOL     OW 5151   8.692   7.335   1.160
 1085SOL    HW1 5152   8.779   7.312   1.127
 1085SOL    HW2 5153   8.651   7.382   1.087
 1086SOL     OW 5154   8.039  10.863   1.129
 1086SOL    HW1 5155   7.951  10.899   1.116
 1086SOL    HW2 5156   8.062  10.824   1.045
 1087SOL     OW 5157   2.788  10.203   8.626
 1087SOL    HW1 5158   2.826  10.285   8.594
 1087SOL    HW2 5159   2.700  10.201   8.589
 1088SOL     OW 5160  10.580   3.565   0.586
 1088SOL    HW1 5161  10.579   3.659   0.598
 1088SOL    HW2 5162  10.640   3.550   0.513
 1089SOL     OW 5163   9.303   5.789   8.141
 1089SOL    HW1 5164   9.368   5.727   8.106
 1089SOL    HW2 5165   9.269   5.747   8.219
 1090SOL     OW 5166  10.818   3.860   4.952
 1090SOL    HW1 5167  10.875   3.888   5.024
 1090SOL    HW2 5168  10.878   3.836   4.881
 1091SOL     OW 5169  13.533   9.614  12.647
 1091SOL    HW1 5170  13.484   9.688  12.681
 1091SOL    HW2 5171  13.474   9.539  12.657
 1092SOL     OW 5172  10.896   4.558  10.928
 1092SOL    HW1 5173  10.808   4.582  10.898
 1092SOL    HW2 5174  10.936   4.517  10.851
 1093SOL     OW 5175   9.071   1.737  11.372
 1093SOL    HW1 5176   9.107   1.756  11.459
 1093SOL    HW2 5177   9.147   1.717  11.318
 1094SOL     OW 5178   1.876  14.174   5.061
 1094SOL    HW1 5179   1.921  14.254   5.087
 1094SOL    HW2 5180   1.939  14.127   5.006
 1095SOL     OW 5181   1.205   9.419   8.958
 1095SOL    HW1 5182   1.186   9.410   8.864
 1095SOL    HW2 5183   1.173   9.506   8.980
 1096SOL     OW 5184   0.492  14.206   9.747
 1096SOL    HW1 5185   0.455  14.273   9.689
 1096SOL    HW2 5186   0.437  14.129   9.731
 1097SOL     OW 5187   2.398   8.335  11.819
 1097SOL    HW1 5188   2.439   8.250  11.834
 1097SOL    HW2 5189   2.382   8.338  11.725
 1098SOL     OW 5190   8.339   3.067  14.357
 1098SOL    HW1 5191   8.304   2.987  14.316
 1098SOL    HW2 5192   8.267   3.129  14.354
 1099SOL     OW 5193  14.646  12.907   4.839
 1099SOL    HW1 5194  14.577  12.864   4.889
 1099SOL    HW2 5195  14.670  12.983   4.892
 1100SOL     OW 5196   3.138   4.841   2.936
 1100SOL    HW1 5197   3.058   4.832   2.884
 1100SOL    HW2 5198   3.141   4.934   2.960
 1101SOL     OW 5199   5.749   3.795  12.219
 1101SOL    HW1 5200   5.720   3.754  12.137
 1101SOL    HW2 5201   5.774   3.721  12.274
 1102SOL     OW 5202   6.406   3.861  10.807
 1102SOL    HW1 5203   6.312   3.872  10.800
 1102SOL    HW2 5204   6.432   3.916  10.881
 1103SOL     OW 5205  14.773  12.002   7.555
 1103SOL    HW1 5206  14.752  12.089   7.520
 1103SOL    HW2 5207  14.733  11.941   7.493
 1104SOL     OW 5208   0.715   0.214   7.515
 1104SOL    HW1 5209   0.707   0.176   7.602
 1104SOL    HW2 5210   0.796   0.264   7.518
 1105SOL     OW 5211   5.947   7.913  12.558
 1105SOL    HW1 5212   6.017   7.969  12.591
 1105SOL    HW2 5213   5.924   7.951  12.473
 1106SOL     OW 5214   1.336   6.427   6.388
 1106SOL    HW1 5215   1.313   6.503   6.334
 1106SOL    HW2 5216   1.348   6.463   6.476
 1107SOL     OW 5217   4.516   6.684  12.239
 1107SOL    HW1 5218   4.467   6.636  12.306
 1107SOL    HW2 5219   4.455   6.695  12.167
 1108SOL     OW 5220  11.851   9.562   0.719
 1108SOL    HW1 5221  11.866   9.631   0.783
 1108SOL    HW2 5222  11.938   9.541   0.685
 1109SOL     OW 5223   2.264   8.358   2.742
 1109SOL    HW1 5224   2.256   8.376   2.836
 1109SOL    HW2 5225   2.179   8.321   2.718
 1110SOL     OW 5226   9.018   2.202   0.762
 1110SOL    HW1 5227   9.072   2.202   0.683
 1110SOL    HW2 5228   8.939   2.155   0.738
 1111SOL     OW 5229  13.501  12.724   1.701
 1111SOL    HW1 5230  13.594  12.702   1.712
 1111SOL    HW2 5231  13.483  12.789   1.769
 1112SOL     OW 5232  13.916   2.622  10.971
 1112SOL    HW1 5233  13.931   2.531  10.947
 1112SOL    HW2 5234  13.989   2.670  10.932
 1113SOL     OW 5235   4.781   5.419   0.977
 1113SOL    HW1 5236   4.771   5.325   0.993
 1113SOL    HW2 5237   4.766   5.430   0.883
 1114SOL     OW 5238   8.850  13.105   5.030
 1114SOL    HW1 5239   8.821  13.193   5.009
 1114SOL    HW2 5240   8.874  13.067   4.945
 1115SOL     OW 5241  14.169  14.818   6.101
 1115SOL    HW1 5242  14.146  14.812   6.008
 1115SOL    HW2 5243  14.085  14.822   6.146
 1116SOL     OW 5244   1.557  13.120   6.645
 1116SOL    HW1 5245   1.498  13.079   6.708
 1116SOL    HW2 5246   1.643  13.083   6.665
 1117SOL     OW 5247  12.697  11.855   4.987
 1117SOL    HW1 5248  12.750  11.931   5.009
 1117SOL    HW2 5249  12.633  11.887   4.923
 1118SOL     OW 5250   2.966  10.738  14.100
 1118SOL    HW1 5251   2.975  10.715  14.007
 1118SOL    HW2 5252   2.887  10.692  14.128
 1119SOL     OW 5253   8.770  13.309   2.595
 1119SOL    HW1 5254   8.780  13.236   2.534
 1119SOL    HW2 5255   8.858  13.325   2.628
 1120SOL     OW 5256   3.095   9.410   1.827
 1120SOL    HW1 5257   3.152   9.449   1.892
 1120SOL    HW2 5258   3.153   9.357   1.772
 1121SOL     OW 5259   5.830   6.056   8.285
 1121SOL    HW1 5260   5.824   5.976   8.233
 1121SOL    HW2 5261   5.825   6.127   8.221
 1122SOL     OW 5262   8.031  12.458  11.413
 1122SOL    HW1 5263   7.987  12.541  11.426
 1122SOL    HW2 5264   8.058  12.430  11.500
 1123SOL     OW 5265   2.922   7.453  11.705
 1123SOL    HW1 5266   2.898   7.417  11.790
 1123SOL    HW2 5267   3.004   7.499  11.720
 1124SOL     OW 5268   4.907  10.491  11.200
 1124SOL    HW1 5269   4.982  10.542  11.231
 1124SOL    HW2 5270   4.942  10.438  11.128
 1125SOL     OW 5271   3.335   5.083   7.615
 1125SOL    HW1 5272   3.377   5.082   7.701
 1125SOL    HW2 5273   3.243   5.102   7.634
 1126SOL     OW 5274   6.485   2.771   8.209
 1126SOL    HW1 5275   6.450   2.807   8.128
 1126SOL    HW2 5276   6.408   2.738   8.256
 1127SOL     OW 5277  12.056   3.273   8.601
 1127SOL    HW1 5278  12.115   3.237   8.534
 1127SOL    HW2 5279  12.013   3.347   8.557
 1128SOL     OW 5280   7.473   4.022  10.852
 1128SOL    HW1 5281   7.476   4.005  10.758
 1128SOL    HW2 5282   7.385   4.056  10.868
 1129SOL     OW 5283   6.939  12.930   2.995
 1129SOL    HW1 5284   6.980  12.843   2.991
 1129SOL    HW2 5285   6.979  12.972   3.071
 1130SOL     OW 5286  12.660   1.535   3.978
 1130SOL    HW1 5287  12.636   1.475   4.048
 1130SOL    HW2 5288  12.579   1.547   3.928
 1131SOL     OW 5289  10.566   0.202   3.986
 1131SOL    HW1 5290  10.661   0.211   3.990
 1131SOL    HW2 5291  10.535   0.286   3.953
 1132SOL     OW 5292  10.381  14.818  12.983
 1132SOL    HW1 5293  10.312  14.808  12.917
 1132SOL    HW2 5294  10.400   0.042  12.985
 1133SOL     OW 5295  13.376  14.604   3.906
 1133SOL    HW1 5296  13.351  14.647   3.987
 1133SOL    HW2 5297  13.334  14.518   3.911
 1134SOL     OW 5298   9.078  10.054   0.904
 1134SOL    HW1 5299   9.050  10.084   0.818
 1134SOL    HW2 5300   9.031  10.111   0.966
 1135SOL     OW 5301  10.102   4.580   7.826
 1135SOL    HW1 5302  10.151   4.587   7.908
 1135SOL    HW2 5303  10.117   4.664   7.782
 1136SOL     OW 5304   1.669   8.568   3.312
 1136SOL    HW1 5305   1.577   8.548   3.296
 1136SOL    HW2 5306   1.689   8.528   3.397
 1137SOL     OW 5307  12.200   6.416   5.521
 1137SOL    HW1 5308  12.172   6.376   5.603
 1137SOL    HW2 5309  12.126   6.471   5.495
 1138SOL     OW 5310   1.977   8.271  12.895
 1138SOL    HW1 5311   1.888   8.236  12.903
 1138SOL    HW2 5312   2.033   8.194  12.901
 1139SOL     OW 5313   3.794   6.966  11.977
 1139SOL    HW1 5314   3.745   6.934  12.053
 1139SOL    HW2 5315   3.730   6.965  11.906
 1140SOL     OW 5316  13.258   4.339   7.577
 1140SOL    HW1 5317  13.259   4.251   7.541
 1140SOL    HW2 5318  13.165   4.360   7.588
 1141SOL     OW 5319   8.600   3.648  11.779
 1141SOL    HW1 5320   8.522   3.677  11.731
 1141SOL    HW2 5321   8.567   3.623  11.865
 1142SOL     OW 5322  12.258  14.831   7.065
 1142SOL    HW1 5323  12.307  14.772   7.123
 1142SOL    HW2 5324  12.224   0.029   7.124
 1143SOL     OW 5325  10.988   1.146   3.809
 1143SOL    HW1 5326  10.967   1.066   3.761
 1143SOL    HW2 5327  10.947   1.216   3.757
 1144SOL     OW 5328  14.218   6.720   6.520
 1144SOL    HW1 5329  14.234   6.627   6.510
 1144SOL    HW2 5330  14.300   6.755   6.556
 1145SOL     OW 5331   2.719   0.898   1.940
 1145SOL    HW1 5332   2.736   0.969   1.878
 1145SOL    HW2 5333   2.680   0.941   2.016
 1146SOL     OW 5334  11.443   9.902   9.198
 1146SOL    HW1 5335  11.444   9.857   9.282
 1146SOL    HW2 5336  11.453   9.995   9.220
 1147SOL     OW 5337   6.650  11.203  14.524
 1147SOL    HW1 5338   6.693  11.195  14.439
 1147SOL    HW2 5339   6.718  11.181  14.588
 1148SOL     OW 5340  13.945   3.203  14.615
 1148SOL    HW1 5341  14.037   3.216  14.592
 1148SOL    HW2 5342  13.906   3.290  14.611
 1149SOL     OW 5343   9.675   8.435  12.369
 1149SOL    HW1 5344   9.609   8.467  12.307
 1149SOL    HW2 5345   9.674   8.499  12.440
 1150SOL     OW 5346   8.247  14.386   2.248
 1150SOL    HW1 5347   8.282  14.433   2.173
 1150SOL    HW2 5348   8.314  14.320   2.268
 1151SOL     OW 5349  12.422  14.524   3.542
 1151SOL    HW1 5350  12.332  14.494   3.529
 1151SOL    HW2 5351  12.458  14.465   3.608
 1152SOL     OW 5352  13.307  14.123   5.440
 1152SOL    HW1 5353  13.287  14.140   5.533
 1152SOL    HW2 5354  13.221  14.115   5.399
 1153SOL     OW 5355   9.674  13.875   1.238
 1153SOL    HW1 5356   9.762  13.858   1.270
 1153SOL    HW2 5357   9.670  13.831   1.153
 1154SOL     OW 5358   4.305  12.701   9.137
 1154SOL    HW1 5359   4.388  12.733   9.103
 1154SOL    HW2 5360   4.309  12.606   9.125
 1155SOL     OW 5361   4.581   9.205  10.149
 1155SOL    HW1 5362   4.535   9.241  10.225
 1155SOL    HW2 5363   4.563   9.111  10.153
 1156SOL     OW 5364   5.760   6.338   5.803
 1156SOL    HW1 5365   5.709   6.318   5.882
 1156SOL    HW2 5366   5.697   6.382   5.745
 1157SOL     OW 5367   4.061   5.939  10.491
 1157SOL    HW1 5368   4.010   5.858  10.495
 1157SOL    HW2 5369   4.152   5.911  10.499
 1158SOL     OW 5370  14.052   0.384   8.036
 1158SOL    HW1 5371  14.031   0.474   8.009
 1158SOL    HW2 5372  14.032   0.382   8.129
 1159SOL     OW 5373   2.561   3.850  10.070
 1159SOL    HW1 5374   2.497   3.829  10.138
 1159SOL    HW2 5375   2.543   3.941  10.047
 1160SOL     OW 5376   4.086   3.671  14.169
 1160SOL    HW1 5377   4.005   3.668  14.221
 1160SOL    HW2 5378   4.101   3.581  14.143
 1161SOL     OW 5379   2.683   6.003   0.325
 1161SOL    HW1 5380   2.755   5.941   0.335
 1161SOL    HW2 5381   2.676   6.046   0.411
 1162SOL     OW 5382  12.976   9.660  14.729
 1162SOL    HW1 5383  12.925   9.671  14.649
 1162SOL    HW2 5384  13.055   9.712  14.714
 1163SOL     OW 5385  11.967   8.763   9.714
 1163SOL    HW1 5386  11.970   8.720   9.628
 1163SOL    HW2 5387  12.025   8.710   9.769
 1164SOL     OW 5388  14.123   0.531  11.344
 1164SOL    HW1 5389  14.137   0.614  11.389
 1164SOL    HW2 5390  14.046   0.493  11.386
 1165SOL     OW 5391   3.427   0.382   0.555
 1165SOL    HW1 5392   3.483   0.400   0.479
 1165SOL    HW2 5393   3.448   0.451   0.617
 1166SOL     OW 5394  12.243  11.093  13.161
 1166SOL    HW1 5395  12.307  11.159  13.189
 1166SOL    HW2 5396  12.256  11.087  13.066
 1167SOL     OW 5397  13.091  11.804   0.600
 1167SOL    HW1 5398  13.127  11.729   0.646
 1167SOL    HW2 5399  13.047  11.855   0.668
 1168SOL     OW 5400   1.049   7.915  13.003
 1168SOL    HW1 5401   1.032   7.822  13.018
 1168SOL    HW2 5402   1.042   7.927  12.908
 1169SOL     OW 5403   7.603   8.347   3.511
 1169SOL    HW1 5404   7.526   8.326   3.564
 1169SOL    HW2 5405   7.672   8.365   3.575
 1170SOL     OW 5406  10.959   9.680  10.401
 1170SOL    HW1 5407  11.009   9.754  10.437
 1170SOL    HW2 5408  10.867   9.707  10.412
 1171SOL     OW 5409   5.679  12.121  13.181
 1171SOL    HW1 5410   5.705  12.031  13.163
 1171SOL    HW2 5411   5.735  12.149  13.253
 1172SOL     OW 5412  14.308  10.950  12.167
 1172SOL    HW1 5413  14.326  10.857  12.177
 1172SOL    HW2 5414  14.332  10.988  12.252
 1173SOL     OW 5415   4.413   0.469   7.585
 1173SOL    HW1 5416   4.344   0.435   7.642
 1173SOL    HW2 5417   4.493   0.457   7.635
 1174SOL     OW 5418   3.427  10.839   9.226
 1174SOL    HW1 5419   3.415  10.810   9.317
 1174SOL    HW2 5420   3.350  10.891   9.207
 1175SOL     OW 5421   6.383  11.716   2.622
 1175SOL    HW1 5422   6.290  11.700   2.639
 1175SOL    HW2 5423   6.418  11.743   2.707
 1176SOL     OW 5424   6.717   9.253   6.123
 1176SOL    HW1 5425   6.801   9.208   6.121
 1176SOL    HW2 5426   6.656   9.190   6.161
 1177SOL     OW 5427   9.055  11.683   0.530
 1177SOL    HW1 5428   9.102  11.657   0.609
 1177SOL    HW2 5429   9.059  11.606   0.473
 1178SOL     OW 5430   7.402   5.636   0.167
 1178SOL    HW1 5431   7.436   5.692   0.238
 1178SOL    HW2 5432   7.383   5.697   0.096
 1179SOL     OW 5433   7.548   2.605   4.797
 1179SOL    HW1 5434   7.628   2.642   4.760
 1179SOL    HW2 5435   7.529   2.660   4.873
 1180SOL     OW 5436   8.731   3.545   1.471
 1180SOL    HW1 5437   8.809   3.599   1.479
 1180SOL    HW2 5438   8.701   3.533   1.561
 1181SOL     OW 5439   4.753  12.510   2.631
 1181SOL    HW1 5440   4.841  12.532   2.600
 1181SOL    HW2 5441   4.768  12.455   2.708
 1182SOL     OW 5442   5.537   5.229  12.667
 1182SOL    HW1 5443   5.523   5.297  12.601
 1182SOL    HW2 5444   5.557   5.150  12.616
 1183SOL     OW 5445   5.858   8.333   0.379
 1183SOL    HW1 5446   5.937   8.279   0.376
 1183SOL    HW2 5447   5.885   8.414   0.421
 1184SOL     OW 5448   2.938   1.784   9.383
 1184SOL    HW1 5449   2.951   1.771   9.477
 1184SOL    HW2 5450   2.955   1.698   9.345
 1185SOL     OW 5451   0.399  10.613   9.090
 1185SOL    HW1 5452   0.440  10.610   9.004
 1185SOL    HW2 5453   0.400  10.523   9.121
 1186SOL     OW 5454   5.905  14.032   1.918
 1186SOL    HW1 5455   5.911  13.995   1.830
 1186SOL    HW2 5456   5.894  14.126   1.903
 1187SOL     OW 5457  12.625   8.043  14.378
 1187SOL    HW1 5458  12.591   8.034  14.467
 1187SOL    HW2 5459  12.720   8.047  14.388
 1188SOL     OW 5460  14.849   2.061   2.304
 1188SOL    HW1 5461  14.825   2.051   2.396
 1188SOL    HW2 5462   0.022   1.978   2.281
 1189SOL     OW 5463  14.347   0.877   9.691
 1189SOL    HW1 5464  14.392   0.933   9.628
 1189SOL    HW2 5465  14.269   0.927   9.716
 1190SOL     OW 5466   6.849   4.403   0.029
 1190SOL    HW1 5467   6.866   4.459   0.104
 1190SOL    HW2 5468   6.856   4.313   0.063
 1191SOL     OW 5469   0.731  11.012   1.996
 1191SOL    HW1 5470   0.822  11.028   2.021
 1191SOL    HW2 5471   0.722  10.916   1.996
 1192SOL     OW 5472   0.116   6.289   9.847
 1192SOL    HW1 5473   0.093   6.218   9.908
 1192SOL    HW2 5474   0.049   6.355   9.860
 1193SOL     OW 5475  10.371   7.960   2.232
 1193SOL    HW1 5476  10.379   8.049   2.264
 1193SOL    HW2 5477  10.367   7.968   2.137
 1194SOL     OW 5478   5.812   0.213   2.406
 1194SOL    HW1 5479   5.741   0.269   2.375
 1194SOL    HW2 5480   5.882   0.273   2.429
 1195SOL     OW 5481  11.330   2.065   7.206
 1195SOL    HW1 5482  11.404   2.005   7.199
 1195SOL    HW2 5483  11.370   2.148   7.234
 1196SOL     OW 5484   0.206  10.635  13.242
 1196SOL    HW1 5485   0.259  10.669  13.314
 1196SOL    HW2 5486   0.192  10.710  13.185
 1197SOL     OW 5487   7.160   8.692  14.307
 1197SOL    HW1 5488   7.181   8.603  14.279
 1197SOL    HW2 5489   7.188   8.696  14.398
 1198SOL     OW 5490   6.502  11.049   4.650
 1198SOL    HW1 5491   6.466  11.137   4.639
 1198SOL    HW2 5492   6.450  10.995   4.591
 1199SOL     OW 5493   3.300  10.921   2.776
 1199SOL    HW1 5494   3.307  10.940   2.682
 1199SOL    HW2 5495   3.308  11.007   2.817
 1200SOL     OW 5496  12.425  11.193  13.949
 1200SOL    HW1 5497  12.477  11.203  14.029
 1200SOL    HW2 5498  12.335  11.181  13.980
 1201SOL     OW 5499   8.006  11.274  13.722
 1201SOL    HW1 5500   8.051  11.247  13.802
 1201SOL    HW2 5501   8.072  11.270  13.654
 1202SOL     OW 5502  11.957  12.180   7.695
 1202SOL    HW1 5503  12.026  12.228   7.739
 1202SOL    HW2 5504  11.932  12.235   7.620
 1203SOL     OW 5505   3.505   0.988   4.732
 1203SOL    HW1 5506   3.436   1.047   4.700
 1203SOL    HW2 5507   3.462   0.936   4.799
 1204SOL     OW 5508   1.327   9.559   0.712
 1204SOL    HW1 5509   1.281   9.537   0.631
 1204SOL    HW2 5510   1.263   9.610   0.762
 1205SOL     OW 5511  11.536   2.016   3.172
 1205SOL    HW1 5512  11.579   2.073   3.235
 1205SOL    HW2 5513  11.591   1.937   3.171
 1206SOL     OW 5514   6.338   8.359  13.615
 1206SOL    HW1 5515   6.402   8.369  13.545
 1206SOL    HW2 5516   6.260   8.323  13.571
 1207SOL     OW 5517  10.636  10.076   4.503
 1207SOL    HW1 5518  10.668  10.154   4.548
 1207SOL    HW2 5519  10.567  10.042   4.561
 1208SOL     OW 5520   1.786   1.630   5.826
 1208SOL    HW1 5521   1.738   1.579   5.892
 1208SOL    HW2 5522   1.863   1.577   5.806
 1209SOL     OW 5523   2.104   4.997  13.441
 1209SOL    HW1 5524   2.023   5.010  13.391
 1209SOL    HW2 5525   2.165   4.960  13.377
 1210SOL     OW 5526   2.795   8.296  14.473
 1210SOL    HW1 5527   2.841   8.358  14.416
 1210SOL    HW2 5528   2.777   8.346  14.553
 1211SOL     OW 5529   7.508  12.900  13.505
 1211SOL    HW1 5530   7.490  12.993  13.516
 1211SOL    HW2 5531   7.423  12.858  13.517
 1212SOL     OW 5532  12.776  14.508  10.031
 1212SOL    HW1 5533  12.773  14.481   9.939
 1212SOL    HW2 5534  12.754  14.601  10.029
 1213SOL     OW 5535  11.727   7.287   1.799
 1213SOL    HW1 5536  11.635   7.276   1.775
 1213SOL    HW2 5537  11.725   7.316   1.891
 1214SOL     OW 5538   7.240   1.797   9.907
 1214SOL    HW1 5539   7.188   1.764   9.980
 1214SOL    HW2 5540   7.309   1.732   9.896
 1215SOL     OW 5541   5.155  10.774  12.011
 1215SOL    HW1 5542   5.210  10.697  11.995
 1215SOL    HW2 5543   5.146  10.816  11.926
 1216SOL     OW 5544   3.482  12.640   9.977
 1216SOL    HW1 5545   3.439  12.561  10.010
 1216SOL    HW2 5546   3.410  12.700   9.958
 1217SOL     OW 5547   8.533  13.625   1.446
 1217SOL    HW1 5548   8.581  13.569   1.385
 1217SOL    HW2 5549   8.478  13.680   1.390
 1218SOL     OW 5550   5.502  12.982  12.485
 1218SOL    HW1 5551   5.513  13.041  12.560
 1218SOL    HW2 5552   5.509  12.894  12.523
 1219SOL     OW 5553   5.093   1.701   4.928
 1219SOL    HW1 5554   5.141   1.737   5.002
 1219SOL    HW2 5555   5.030   1.769   4.905
 1220SOL     OW 5556  12.576   3.098  12.703
 1220SOL    HW1 5557  12.489   3.059  12.697
 1220SOL    HW2 5558  12.613   3.061  12.783
 1221SOL     OW 5559   3.622   4.969  13.548
 1221SOL    HW1 5560   3.527   4.971  13.539
 1221SOL    HW2 5561   3.640   5.024  13.624
 1222SOL     OW 5562   4.241   1.741  11.732
 1222SOL    HW1 5563   4.294   1.708  11.804
 1222SOL    HW2 5564   4.188   1.667  11.704
 1223SOL     OW 5565   6.598   1.857   9.907
 1223SOL    HW1 5566   6.693   1.869   9.904
 1223SOL    HW2 5567   6.585   1.763   9.899
 1224SOL     OW 5568  12.853  12.643   1.580
 1224SOL    HW1 5569  12.783  12.676   1.637
 1224SOL    HW2 5570  12.808  12.621   1.498
 1225SOL     OW 5571   8.463   1.927   1.742
 1225SOL    HW1 5572   8.370   1.928   1.721
 1225SOL    HW2 5573   8.507   1.942   1.659
 1226SOL     OW 5574   3.735   5.670   8.546
 1226SOL    HW1 5575   3.717   5.675   8.639
 1226SOL    HW2 5576   3.651   5.686   8.504
 1227SOL     OW 5577   2.202   5.674   5.621
 1227SOL    HW1 5578   2.130   5.723   5.661
 1227SOL    HW2 5579   2.240   5.735   5.558
 1228SOL     OW 5580   1.768   8.298   6.587
 1228SOL    HW1 5581   1.764   8.206   6.559
 1228SOL    HW2 5582   1.839   8.300   6.651
 1229SOL     OW 5583   0.237  12.989   5.504
 1229SOL    HW1 5584   0.157  13.039   5.493
 1229SOL    HW2 5585   0.275  13.023   5.585
 1230SOL     OW 5586   9.759  12.921   2.959
 1230SOL    HW1 5587   9.771  13.016   2.957
 1230SOL    HW2 5588   9.692  12.903   2.893
 1231SOL     OW 5589  10.796   4.440   9.291
 1231SOL    HW1 5590  10.715   4.488   9.309
 1231SOL    HW2 5591  10.832   4.482   9.212
 1232SOL     OW 5592   8.614   9.234   3.409
 1232SOL    HW1 5593   8.547   9.301   3.425
 1232SOL    HW2 5594   8.628   9.237   3.314
 1233SOL     OW 5595  10.993  10.436  13.420
 1233SOL    HW1 5596  11.027  10.506  13.365
 1233SOL    HW2 5597  11.066  10.374  13.427
 1234SOL     OW 5598   6.280   3.434  12.096
 1234SOL    HW1 5599   6.329   3.478  12.164
 1234SOL    HW2 5600   6.206   3.491  12.078
 1235SOL     OW 5601  13.140   6.859   0.436
 1235SOL    HW1 5602  13.132   6.764   0.448
 1235SOL    HW2 5603  13.166   6.869   0.344
 1236SOL     OW 5604   9.446   6.716  10.557
 1236SOL    HW1 5605   9.397   6.635  10.564
 1236SOL    HW2 5606   9.439   6.741  10.465
 1237SOL     OW 5607   4.616  11.778   1.867
 1237SOL    HW1 5608   4.709  11.760   1.881
 1237SOL    HW2 5609   4.576  11.765   1.953
 1238SOL     OW 5610   0.276   2.223  10.785
 1238SOL    HW1 5611   0.356   2.217  10.733
 1238SOL    HW2 5612   0.221   2.151  10.755
 1239SOL     OW 5613  11.992   9.845  12.273
 1239SOL    HW1 5614  11.951   9.923  12.237
 1239SOL    HW2 5615  12.059   9.879  12.333
 1240SOL     OW 5616   8.255  12.680  11.522
 1240SOL    HW1 5617   8.309  12.692  11.444
 1240SOL    HW2 5618   8.276  12.592  11.553
 1241SOL     OW 5619   5.845   2.732   7.323
 1241SOL    HW1 5620   5.794   2.813   7.320
 1241SOL    HW2 5621   5.915   2.750   7.385
 1242SOL     OW 5622  11.844  11.240   7.362
 1242SOL    HW1 5623  11.789  11.200   7.430
 1242SOL    HW2 5624  11.802  11.324   7.345
 1243SOL     OW 5625   9.158   7.974  12.710
 1243SOL    HW1 5626   9.117   7.895  12.678
 1243SOL    HW2 5627   9.246   7.947  12.736
 1244SOL     OW 5628  12.212   0.816  11.917
 1244SOL    HW1 5629  12.129   0.807  11.965
 1244SOL    HW2 5630  12.186   0.819  11.825
 1245SOL     OW 5631   7.514  11.191   2.539
 1245SOL    HW1 5632   7.480  11.232   2.460
 1245SOL    HW2 5633   7.538  11.102   2.512
 1246SOL     OW 5634   5.850   1.397   1.858
 1246SOL    HW1 5635   5.876   1.484   1.828
 1246SOL    HW2 5636   5.763   1.383   1.820
 1247SOL     OW 5637   8.524  10.056   0.950
 1247SOL    HW1 5638   8.525  10.079   1.043
 1247SOL    HW2 5639   8.539   9.961   0.949
 1248SOL     OW 5640   4.029   5.533   1.689
 1248SOL    HW1 5641   4.091   5.511   1.620
 1248SOL    HW2 5642   3.956   5.473   1.675
 1249SOL     OW 5643   3.554   6.551   1.034
 1249SOL    HW1 5644   3.465   6.526   1.059
 1249SOL    HW2 5645   3.585   6.478   0.980
 1250SOL     OW 5646   0.877  10.538   7.448
 1250SOL    HW1 5647   0.939  10.581   7.389
 1250SOL    HW2 5648   0.915  10.550   7.535
 1251SOL     OW 5649   4.379  12.298   1.391
 1251SOL    HW1 5650   4.329  12.271   1.314
 1251SOL    HW2 5651   4.319  12.353   1.441
 1252SOL     OW 5652   6.765   3.122   5.855
 1252SOL    HW1 5653   6.817   3.095   5.930
 1252SOL    HW2 5654   6.738   3.212   5.876
 1253SOL     OW 5655   3.907   5.625   8.051
 1253SOL    HW1 5656   3.917   5.593   7.962
 1253SOL    HW2 5657   3.903   5.720   8.042
 1254SOL     OW 5658  11.571   9.698  12.587
 1254SOL    HW1 5659  11.533   9.614  12.564
 1254SOL    HW2 5660  11.602   9.734  12.504
 1255SOL     OW 5661   2.571  10.425   4.431
 1255SOL    HW1 5662   2.619  10.479   4.368
 1255SOL    HW2 5663   2.487  10.409   4.388
 1256SOL     OW 5664   8.405   1.510  12.833
 1256SOL    HW1 5665   8.394   1.441  12.767
 1256SOL    HW2 5666   8.377   1.590  12.790
 1257SOL     OW 5667   5.228   5.282   6.986
 1257SOL    HW1 5668   5.187   5.204   7.023
 1257SOL    HW2 5669   5.219   5.349   7.054
 1258SOL     OW 5670  12.070  13.625   0.932
 1258SOL    HW1 5671  12.081  13.605   1.025
 1258SOL    HW2 5672  12.033  13.713   0.930
 1259SOL     OW 5673   4.336   8.848  10.259
 1259SOL    HW1 5674   4.295   8.934  10.259
 1259SOL    HW2 5675   4.338   8.822  10.351
 1260SOL     OW 5676   9.259  14.121   9.085
 1260SOL    HW1 5677   9.334  14.127   9.145
 1260SOL    HW2 5678   9.199  14.188   9.115
 1261SOL     OW 5679   0.732   3.191  13.428
 1261SOL    HW1 5680   0.765   3.280  13.440
 1261SOL    HW2 5681   0.674   3.177  13.503
 1262SOL     OW 5682   7.829  13.288  13.712
 1262SOL    HW1 5683   7.796  13.253  13.795
 1262SOL    HW2 5684   7.751  13.317  13.665
 1263SOL     OW 5685  10.534   0.386  10.755
 1263SOL    HW1 5686  10.482   0.442  10.697
 1263SOL    HW2 5687  10.521   0.424  10.842
 1264SOL     OW 5688   9.273   6.499   9.650
 1264SOL    HW1 5689   9.183   6.531   9.656
 1264SOL    HW2 5690   9.266   6.417   9.601
 1265SOL     OW 5691   6.433  12.385  11.334
 1265SOL    HW1 5692   6.474  12.470  11.317
 1265SOL    HW2 5693   6.412  12.386  11.428
 1266SOL     OW 5694   7.529   6.298   6.630
 1266SOL    HW1 5695   7.472   6.355   6.681
 1266SOL    HW2 5696   7.486   6.293   6.544
 1267SOL     OW 5697   2.166  10.693   3.010
 1267SOL    HW1 5698   2.224  10.642   3.066
 1267SOL    HW2 5699   2.087  10.706   3.062
 1268SOL     OW 5700   9.859   4.934   2.315
 1268SOL    HW1 5701   9.813   4.907   2.236
 1268SOL    HW2 5702   9.790   4.947   2.380
 1269SOL     OW 5703  10.628   2.614   4.952
 1269SOL    HW1 5704  10.583   2.643   4.873
 1269SOL    HW2 5705  10.714   2.587   4.922
 1270SOL     OW 5706  13.197   2.527   6.107
 1270SOL    HW1 5707  13.178   2.468   6.181
 1270SOL    HW2 5708  13.288   2.506   6.084
 1271SOL     OW 5709   6.569   1.907  10.797
 1271SOL    HW1 5710   6.492   1.883  10.746
 1271SOL    HW2 5711   6.550   1.995  10.829
 1272SOL     OW 5712  10.418   0.991   4.078
 1272SOL    HW1 5713  10.332   1.026   4.099
 1272SOL    HW2 5714  10.429   1.009   3.984
 1273SOL     OW 5715   8.986  13.042  10.380
 1273SOL    HW1 5716   8.903  13.078  10.413
 1273SOL    HW2 5717   9.040  13.118  10.361
 1274SOL     OW 5718  14.217  10.147   3.622
 1274SOL    HW1 5719  14.166  10.198   3.560
 1274SOL    HW2 5720  14.286  10.107   3.570
 1275SOL     OW 5721  12.645  13.843   7.938
 1275SOL    HW1 5722  12.730  13.800   7.925
 1275SOL    HW2 5723  12.616  13.812   8.024
 1276SOL     OW 5724  11.685   4.610  13.697
 1276SOL    HW1 5725  11.590   4.601  13.688
 1276SOL    HW2 5726  11.721   4.531  13.655
 1277SOL     OW 5727   7.399   8.171   8.186
 1277SOL    HW1 5728   7.457   8.180   8.111
 1277SOL    HW2 5729   7.356   8.257   8.194
 1278SOL     OW 5730  11.195   9.954   9.764
 1278SOL    HW1 5731  11.186   9.859   9.754
 1278SOL    HW2 5732  11.270   9.977   9.709
 1279SOL     OW 5733  13.913   1.195   4.823
 1279SOL    HW1 5734  13.902   1.264   4.757
 1279SOL    HW2 5735  13.978   1.136   4.785
 1280SOL     OW 5736  10.628  10.059  13.801
 1280SOL    HW1 5737  10.557  10.090  13.857
 1280SOL    HW2 5738  10.608  10.094  13.715
 1281SOL     OW 5739   6.116  11.008   8.318
 1281SOL    HW1 5740   6.028  11.016   8.353
 1281SOL    HW2 5741   6.125  11.080   8.256
 1282SOL     OW 5742   8.768   5.532  11.988
 1282SOL    HW1 5743   8.790   5.508  11.898
 1282SOL    HW2 5744   8.692   5.590  11.980
 1283SOL     OW 5745   1.656   8.089  10.082
 1283SOL    HW1 5746   1.694   8.065  10.167
 1283SOL    HW2 5747   1.577   8.036  10.076
 1284SOL     OW 5748  12.197   2.165  14.319
 1284SOL    HW1 5749  12.191   2.151  14.225
 1284SOL    HW2 5750  12.113   2.136  14.354
 1285SOL     OW 5751   9.254  13.827  14.409
 1285SOL    HW1 5752   9.308  13.838  14.487
 1285SOL    HW2 5753   9.317  13.822  14.337
 1286SOL     OW 5754   0.817  13.492   4.351
 1286SOL    HW1 5755   0.802  13.586   4.348
 1286SOL    HW2 5756   0.904  13.483   4.390
 1287SOL     OW 5757  12.004   4.456   5.621
 1287SOL    HW1 5758  12.027   4.427   5.709
 1287SOL    HW2 5759  11.939   4.525   5.634
 1288SOL     OW 5760   4.615   7.649  10.284
 1288SOL    HW1 5761   4.663   7.657  10.366
 1288SOL    HW2 5762   4.524   7.666  10.306
 1289SOL     OW 5763   2.588   4.319  13.340
 1289SOL    HW1 5764   2.631   4.327  13.255
 1289SOL    HW2 5765   2.524   4.249  13.327
 1290SOL     OW 5766   9.085   0.462  14.815
 1290SOL    HW1 5767   9.058   0.500  14.732
 1290SOL    HW2 5768   9.174   0.431  14.800
 1291SOL     OW 5769   1.663   0.954   2.056
 1291SOL    HW1 5770   1.611   0.970   1.977
 1291SOL    HW2 5771   1.643   1.028   2.113
 1292SOL     OW 5772  10.161  10.652   7.768
 1292SOL    HW1 5773  10.191  10.563   7.786
 1292SOL    HW2 5774  10.242  10.701   7.751
 1293SOL     OW 5775   9.462  10.592  14.144
 1293SOL    HW1 5776   9.547  10.555  14.122
 1293SOL    HW2 5777   9.409  10.517  14.170
 1294SOL     OW 5778  13.122  12.818   9.716
 1294SOL    HW1 5779  13.200  12.872   9.716
 1294SOL    HW2 5780  13.050  12.878   9.694
 1295SOL     OW 5781   6.483   2.569   7.111
 1295SOL    HW1 5782   6.446   2.640   7.164
 1295SOL    HW2 5783   6.415   2.551   7.046
 1296SOL     OW 5784   4.452  10.755   8.795
 1296SOL    HW1 5785   4.459  10.769   8.700
 1296SOL    HW2 5786   4.542  10.742   8.824
 1297SOL     OW 5787  12.942   8.302   1.321
 1297SOL    HW1 5788  13.009   8.260   1.267
 1297SOL    HW2 5789  12.864   8.248   1.308
 1298SOL     OW 5790   4.400  13.332   0.717
 1298SOL    HW1 5791   4.377  13.391   0.645
 1298SOL    HW2 5792   4.374  13.245   0.686
 1299SOL     OW 5793   1.715   6.443   6.654
 1299SOL    HW1 5794   1.658   6.517   6.635
 1299SOL    HW2 5795   1.703   6.383   6.581
 1300SOL     OW 5796   2.453  14.341  13.739
 1300SOL    HW1 5797   2.381  14.400  13.715
 1300SOL    HW2 5798   2.430  14.310  13.826
 1301SOL     OW 5799   2.224   9.834   2.389
 1301SOL    HW1 5800   2.252   9.885   2.464
 1301SOL    HW2 5801   2.260   9.881   2.313
 1302SOL     OW 5802   3.153   6.681   9.919
 1302SOL    HW1 5803   3.172   6.740   9.846
 1302SOL    HW2 5804   3.120   6.738   9.989
 1303SOL     OW 5805   3.162   3.264   9.627
 1303SOL    HW1 5806   3.216   3.211   9.568
 1303SOL    HW2 5807   3.109   3.201   9.676
 1304SOL     OW 5808  10.575   2.120   4.320
 1304SOL    HW1 5809  10.588   2.039   4.369
 1304SOL    HW2 5810  10.662   2.160   4.317
 1305SOL     OW 5811  13.943   1.620   0.934
 1305SOL    HW1 5812  13.934   1.664   1.018
 1305SOL    HW2 5813  13.913   1.685   0.870
 1306SOL     OW 5814   0.006  12.139   2.293
 1306SOL    HW1 5815   0.004  12.073   2.223
 1306SOL    HW2 5816  14.837  12.095   2.369
 1307SOL     OW 5817   8.873  13.462   0.017
 1307SOL    HW1 5818   8.826  13.458  14.803
 1307SOL    HW2 5819   8.852  13.548   0.053
 1308SOL     OW 5820   5.193   1.118   6.501
 1308SOL    HW1 5821   5.167   1.110   6.593
 1308SOL    HW2 5822   5.288   1.103   6.502
 1309SOL     OW 5823   0.126   4.381   1.234
 1309SOL    HW1 5824   0.198   4.319   1.229
 1309SOL    HW2 5825   0.081   4.361   1.316
 1310SOL     OW 5826  11.390   2.362   9.549
 1310SOL    HW1 5827  11.306   2.407   9.557
 1310SOL    HW2 5828  11.455   2.428   9.571
 1311SOL     OW 5829  11.924   5.130   9.726
 1311SOL    HW1 5830  11.949   5.143   9.817
 1311SOL    HW2 5831  11.905   5.218   9.694
 1312SOL     OW 5832  14.038   9.362   7.909
 1312SOL    HW1 5833  14.106   9.382   7.973
 1312SOL    HW2 5834  14.063   9.277   7.873
 1313SOL     OW 5835  11.032   0.101  14.215
 1313SOL    HW1 5836  10.944   0.113  14.177
 1313SOL    HW2 5837  11.058   0.013  14.188
 1314SOL     OW 5838  14.444   8.748   3.781
 1314SOL    HW1 5839  14.484   8.674   3.828
 1314SOL    HW2 5840  14.438   8.817   3.847
 1315SOL     OW 5841   3.171   0.307   8.624
 1315SOL    HW1 5842   3.231   0.258   8.568
 1315SOL    HW2 5843   3.171   0.259   8.707
 1316SOL     OW 5844  12.134  14.334  11.332
 1316SOL    HW1 5845  12.039  14.327  11.326
 1316SOL    HW2 5846  12.166  14.294  11.250
 1317SOL     OW 5847   1.192  12.207   9.467
 1317SOL    HW1 5848   1.141  12.211   9.386
 1317SOL    HW2 5849   1.150  12.138   9.519
 1318SOL     OW 5850   9.438   0.140   4.108
 1318SOL    HW1 5851   9.505   0.079   4.079
 1318SOL    HW2 5852   9.457   0.221   4.061
 1319SOL     OW 5853   1.806   2.963   6.316
 1319SOL    HW1 5854   1.732   2.995   6.367
 1319SOL    HW2 5855   1.775   2.881   6.278
 1320SOL     OW 5856   4.999  12.509   2.323
 1320SOL    HW1 5857   5.057  12.577   2.289
 1320SOL    HW2 5858   4.913  12.529   2.286
 1321SOL     OW 5859  13.677   6.944   5.102
 1321SOL    HW1 5860  13.763   6.902   5.096
 1321SOL    HW2 5861  13.627   6.889   5.162
 1322SOL     OW 5862   4.870  13.055   2.609
 1322SOL    HW1 5863   4.868  13.027   2.700
 1322SOL    HW2 5864   4.817  13.135   2.607
 1323SOL     OW 5865  11.861   9.810   0.831
 1323SOL    HW1 5866  11.878   9.865   0.907
 1323SOL    HW2 5867  11.791   9.855   0.784
 1324SOL     OW 5868   7.643   8.819   2.520
 1324SOL    HW1 5869   7.576   8.779   2.465
 1324SOL    HW2 5870   7.726   8.793   2.479
 1325SOL     OW 5871   6.140   1.248   1.360
 1325SOL    HW1 5872   6.088   1.328   1.350
 1325SOL    HW2 5873   6.156   1.219   1.270
 1326SOL     OW 5874  10.412   0.128  10.467
 1326SOL    HW1 5875  10.348   0.132  10.538
 1326SOL    HW2 5876  10.416   0.217  10.433
 1327SOL     OW 5877  11.407  13.954   6.033
 1327SOL    HW1 5878  11.441  13.865   6.024
 1327SOL    HW2 5879  11.328  13.944   6.087
 1328SOL     OW 5880   1.426   8.063   1.535
 1328SOL    HW1 5881   1.340   8.093   1.565
 1328SOL    HW2 5882   1.408   7.978   1.494
 1329SOL     OW 5883  13.460  13.717  12.325
 1329SOL    HW1 5884  13.489  13.793  12.275
 1329SOL    HW2 5885  13.506  13.643  12.284
 1330SOL     OW 5886  14.162   0.526   4.386
 1330SOL    HW1 5887  14.221   0.512   4.311
 1330SOL    HW2 5888  14.077   0.495   4.356
 1331SOL     OW 5889   4.496   3.522   9.515
 1331SOL    HW1 5890   4.452   3.534   9.599
 1331SOL    HW2 5891   4.563   3.455   9.532
 1332SOL     OW 5892  10.101   6.595  11.263
 1332SOL    HW1 5893  10.144   6.634  11.187
 1332SOL    HW2 5894  10.132   6.645  11.338
 1333SOL     OW 5895   9.914   0.214   5.066
 1333SOL    HW1 5896   9.986   0.258   5.110
 1333SOL    HW2 5897   9.950   0.130   5.039
 1334SOL     OW 5898  13.074  11.501   8.779
 1334SOL    HW1 5899  13.067  11.411   8.811
 1334SOL    HW2 5900  13.113  11.549   8.851
 1335SOL     OW 5901  10.138   5.738   7.049
 1335SOL    HW1 5902  10.099   5.768   6.967
 1335SOL    HW2 5903  10.232   5.741   7.034
 1336SOL     OW 5904   1.367   2.429   9.868
 1336SOL    HW1 5905   1.289   2.470   9.905
 1336SOL    HW2 5906   1.414   2.501   9.825
 1337SOL     OW 5907   6.012   3.620   8.307
 1337SOL    HW1 5908   6.029   3.552   8.372
 1337SOL    HW2 5909   6.093   3.670   8.301
 1338SOL     OW 5910   2.768   5.529  10.780
 1338SOL    HW1 5911   2.763   5.490  10.867
 1338SOL    HW2 5912   2.798   5.619  10.797
 1339SOL     OW 5913   3.139   1.668   7.385
 1339SOL    HW1 5914   3.188   1.749   7.403
 1339SOL    HW2 5915   3.049   1.696   7.372
 1340SOL     OW 5916   9.635   0.966   3.766
 1340SOL    HW1 5917   9.622   0.974   3.672
 1340SOL    HW2 5918   9.656   0.874   3.780
 1341SOL     OW 5919   7.236   4.589  11.869
 1341SOL    HW1 5920   7.219   4.650  11.797
 1341SOL    HW2 5921   7.210   4.504  11.834
 1342SOL     OW 5922  10.303   3.783   5.067
 1342SOL    HW1 5923  10.284   3.777   4.974
 1342SOL    HW2 5924  10.263   3.866   5.095
 1343SOL     OW 5925  12.724   1.974  11.787
 1343SOL    HW1 5926  12.710   1.881  11.768
 1343SOL    HW2 5927  12.639   2.005  11.818
 1344SOL     OW 5928   1.785   9.459   1.590
 1344SOL    HW1 5929   1.795   9.464   1.495
 1344SOL    HW2 5930   1.690   9.449   1.604
 1345SOL     OW 5931  14.256   7.439   6.146
 1345SOL    HW1 5932  14.263   7.357   6.195
 1345SOL    HW2 5933  14.255   7.507   6.213
 1346SOL     OW 5934  12.901   8.577   5.077
 1346SOL    HW1 5935  12.968   8.645   5.063
 1346SOL    HW2 5936  12.840   8.589   5.004
 1347SOL     OW 5937   9.181   5.503   6.450
 1347SOL    HW1 5938   9.086   5.502   6.466
 1347SOL    HW2 5939   9.191   5.557   6.372
 1348SOL     OW 5940   6.232   5.058  13.481
 1348SOL    HW1 5941   6.228   5.085  13.389
 1348SOL    HW2 5942   6.252   4.965  13.478
 1349SOL     OW 5943   0.626  10.174   5.918
 1349SOL    HW1 5944   0.687  10.115   5.963
 1349SOL    HW2 5945   0.683  10.239   5.876
 1350SOL     OW 5946   4.461  13.314   8.111
 1350SOL    HW1 5947   4.526  13.294   8.179
 1350SOL    HW2 5948   4.465  13.239   8.051
 1351SOL     OW 5949   3.039   8.759  14.393
 1351SOL    HW1 5950   3.045   8.852  14.417
 1351SOL    HW2 5951   3.071   8.712  14.469
 1352SOL     OW 5952  10.629  13.651   3.398
 1352SOL    HW1 5953  10.652  13.685   3.311
 1352SOL    HW2 5954  10.708  13.664   3.450
 1353SOL     OW 5955   0.775  10.084   4.656
 1353SOL    HW1 5956   0.708  10.024   4.622
 1353SOL    HW2 5957   0.753  10.094   4.749
 1354SOL     OW 5958  13.048   1.372  13.089
 1354SOL    HW1 5959  12.991   1.340  13.159
 1354SOL    HW2 5960  13.020   1.462  13.074
 1355SOL     OW 5961  12.421   1.163   8.741
 1355SOL    HW1 5962  12.331   1.193   8.725
 1355SOL    HW2 5963  12.462   1.234   8.789
 1356SOL     OW 5964   6.823   7.728  12.056
 1356SOL    HW1 5965   6.904   7.679  12.067
 1356SOL    HW2 5966   6.754   7.662  12.059
 1357SOL     OW 5967   9.938  12.989   1.798
 1357SOL    HW1 5968   9.875  13.017   1.731
 1357SOL    HW2 5969  10.021  13.026   1.769
 1358SOL     OW 5970  10.748   9.215   6.815
 1358SOL    HW1 5971  10.822   9.204   6.875
 1358SOL    HW2 5972  10.708   9.128   6.810
 1359SOL     OW 5973   4.382   3.145  14.243
 1359SOL    HW1 5974   4.431   3.223  14.219
 1359SOL    HW2 5975   4.450   3.082  14.269
 1360SOL     OW 5976   4.699   2.072   1.498
 1360SOL    HW1 5977   4.666   2.051   1.586
 1360SOL    HW2 5978   4.662   2.158   1.478
 1361SOL     OW 5979   8.443   9.206   3.639
 1361SOL    HW1 5980   8.381   9.274   3.665
 1361SOL    HW2 5981   8.502   9.249   3.578
 1362SOL     OW 5982   6.941   6.530   8.649
 1362SOL    HW1 5983   6.847   6.527   8.627
 1362SOL    HW2 5984   6.982   6.475   8.583
 1363SOL     OW 5985   8.935  13.979   9.887
 1363SOL    HW1 5986   8.883  14.033   9.947
 1363SOL    HW2 5987   9.016  13.962   9.934
 1364SOL     OW 5988  12.992  11.393   1.877
 1364SOL    HW1 5989  12.981  11.301   1.899
 1364SOL    HW2 5990  12.905  11.431   1.887
 1365SOL     OW 5991  11.342   0.713   3.520
 1365SOL    HW1 5992  11.352   0.632   3.570
 1365SOL    HW2 5993  11.367   0.690   3.431
 1366SOL     OW 5994   8.759   3.322   1.096
 1366SOL    HW1 5995   8.679   3.279   1.125
 1366SOL    HW2 5996   8.744   3.415   1.112
 1367SOL     OW 5997   2.119   7.065  13.604
 1367SOL    HW1 5998   2.214   7.063  13.616
 1367SOL    HW2 5999   2.097   7.158  13.604
 1368SOL     OW 6000   7.929   5.175   7.729
 1368SOL    HW1 6001   7.903   5.263   7.754
 1368SOL    HW2 6002   7.920   5.124   7.809
 1369SOL     OW 6003   3.278  11.334   7.169
 1369SOL    HW1 6004   3.204  11.294   7.122
 1369SOL    HW2 6005   3.259  11.427   7.168
 1370SOL     OW 6006   8.775   0.830  10.965
 1370SOL    HW1 6007   8.684   0.854  10.949
 1370SOL    HW2 6008   8.826   0.901  10.925
 1371SOL     OW 6009   7.456  10.264  12.312
 1371SOL    HW1 6010   7.514  10.317  12.256
 1371SOL    HW2 6011   7.515  10.202  12.355
 1372SOL     OW 6012   7.136   8.820   0.315
 1372SOL    HW1 6013   7.132   8.734   0.356
 1372SOL    HW2 6014   7.045   8.842   0.296
 1373SOL     OW 6015  14.770   0.820   0.608
 1373SOL    HW1 6016  14.675   0.814   0.598
 1373SOL    HW2 6017  14.791   0.756   0.677
 1374SOL     OW 6018   6.552  13.915   0.208
 1374SOL    HW1 6019   6.536  13.930   0.115
 1374SOL    HW2 6020   6.522  13.995   0.251
 1375SOL     OW 6021   2.032   3.326  11.781
 1375SOL    HW1 6022   1.948   3.348  11.822
 1375SOL    HW2 6023   2.068   3.410  11.753
 1376SOL     OW 6024  14.639   3.124   7.970
 1376SOL    HW1 6025  14.667   3.209   7.937
 1376SOL    HW2 6026  14.706   3.062   7.938
 1377SOL     OW 6027   3.943   9.239   1.026
 1377SOL    HW1 6028   3.907   9.299   0.961
 1377SOL    HW2 6029   3.896   9.260   1.107
 1378SOL     OW 6030   7.591  12.867  11.584
 1378SOL    HW1 6031   7.635  12.808  11.522
 1378SOL    HW2 6032   7.516  12.817  11.615
 1379SOL     OW 6033   5.099   6.542  14.820
 1379SOL    HW1 6034   5.124   6.514   0.038
 1379SOL    HW2 6035   5.120   6.636  14.817
 1380SOL     OW 6036   7.037   5.356   9.162
 1380SOL    HW1 6037   7.073   5.268   9.154
 1380SOL    HW2 6038   6.950   5.350   9.124
 1381SOL     OW 6039   6.830   5.651   5.230
 1381SOL    HW1 6040   6.907   5.684   5.183
 1381SOL    HW2 6041   6.863   5.627   5.317
 1382SOL     OW 6042  12.352   2.752   3.940
 1382SOL    HW1 6043  12.263   2.720   3.957
 1382SOL    HW2 6044  12.376   2.799   4.020
 1383SOL     OW 6045  12.437  14.030  11.214
 1383SOL    HW1 6046  12.498  14.044  11.141
 1383SOL    HW2 6047  12.443  13.936  11.232
 1384SOL     OW 6048   9.134   0.451  14.070
 1384SOL    HW1 6049   9.127   0.545  14.085
 1384SOL    HW2 6050   9.043   0.422  14.059
 1385SOL     OW 6051   1.999   9.076   8.801
 1385SOL    HW1 6052   1.981   9.170   8.801
 1385SOL    HW2 6053   1.988   9.050   8.892
 1386SOL     OW 6054   7.192   9.567  10.447
 1386SOL    HW1 6055   7.207   9.567  10.541
 1386SOL    HW2 6056   7.146   9.484  10.430
 1387SOL     OW 6057   5.057  13.990   4.659
 1387SOL    HW1 6058   5.034  14.068   4.710
 1387SOL    HW2 6059   5.017  13.918   4.707
 1388SOL     OW 6060  11.681   5.487  14.079
 1388SOL    HW1 6061  11.661   5.420  14.015
 1388SOL    HW2 6062  11.754   5.452  14.129
 1389SOL     OW 6063   3.384   6.482   5.018
 1389SOL    HW1 6064   3.405   6.389   5.030
 1389SOL    HW2 6065   3.443   6.512   4.950
 1390SOL     OW 6066  11.301   2.185  12.371
 1390SOL    HW1 6067  11.222   2.230  12.404
 1390SOL    HW2 6068  11.372   2.219  12.425
 1391SOL     OW 6069   1.192  10.906  12.494
 1391SOL    HW1 6070   1.217  10.884  12.584
 1391SOL    HW2 6071   1.273  10.899  12.444
 1392SOL     OW 6072   1.345  12.585  11.085
 1392SOL    HW1 6073   1.298  12.606  11.165
 1392SOL    HW2 6074   1.361  12.491  11.091
 1393SOL     OW 6075  12.431   5.908   1.077
 1393SOL    HW1 6076  12.514   5.957   1.079
 1393SOL    HW2 6077  12.450   5.831   1.022
 1394SOL     OW 6078   3.727  11.499   8.118
 1394SOL    HW1 6079   3.754  11.564   8.053
 1394SOL    HW2 6080   3.666  11.545   8.174
 1395SOL     OW 6081  10.548   6.158   4.761
 1395SOL    HW1 6082  10.575   6.245   4.790
 1395SOL    HW2 6083  10.493   6.173   4.684
 1396SOL     OW 6084  10.309   0.413   0.794
 1396SOL    HW1 6085  10.371   0.363   0.741
 1396SOL    HW2 6086  10.326   0.385   0.884
 1397SOL     OW 6087   1.033   1.667  13.091
 1397SOL    HW1 6088   1.103   1.653  13.155
 1397SOL    HW2 6089   0.985   1.742  13.125
 1398SOL     OW 6090  12.253   9.593   2.716
 1398SOL    HW1 6091  12.297   9.640   2.787
 1398SOL    HW2 6092  12.257   9.501   2.742
 1399SOL     OW 6093  11.944  11.479  13.820
 1399SOL    HW1 6094  11.903  11.518  13.743
 1399SOL    HW2 6095  12.026  11.527  13.830
 1400SOL     OW 6096   9.361  11.804   9.342
 1400SOL    HW1 6097   9.281  11.756   9.363
 1400SOL    HW2 6098   9.420  11.738   9.305
 1401SOL     OW 6099   2.350   9.942  10.668
 1401SOL    HW1 6100   2.301   9.895  10.736
 1401SOL    HW2 6101   2.338   9.889  10.589
 1402SOL     OW 6102  12.531   3.376  13.344
 1402SOL    HW1 6103  12.596   3.442  13.370
 1402SOL    HW2 6104  12.581   3.312  13.293
 1403SOL     OW 6105   5.907   0.496   6.812
 1403SOL    HW1 6106   5.816   0.520   6.827
 1403SOL    HW2 6107   5.908   0.458   6.724
 1404SOL     OW 6108   0.086  14.284   9.839
 1404SOL    HW1 6109   0.147  14.357   9.826
 1404SOL    HW2 6110   0.056  14.261   9.751
 1405SOL     OW 6111   6.360   7.658   4.777
 1405SOL    HW1 6112   6.348   7.577   4.728
 1405SOL    HW2 6113   6.320   7.642   4.862
 1406SOL     OW 6114   8.767   0.324   1.542
 1406SOL    HW1 6115   8.770   0.231   1.521
 1406SOL    HW2 6116   8.763   0.368   1.457
 1407SOL     OW 6117  13.370  13.709   1.361
 1407SOL    HW1 6118  13.347  13.632   1.413
 1407SOL    HW2 6119  13.380  13.676   1.272
 1408SOL     OW 6120   7.916  10.234   3.495
 1408SOL    HW1 6121   7.883  10.146   3.480
 1408SOL    HW2 6122   7.934  10.237   3.589
 1409SOL     OW 6123  10.758  13.241   0.389
 1409SOL    HW1 6124  10.831  13.226   0.329
 1409SOL    HW2 6125  10.707  13.160   0.386
 1410SOL     OW 6126  12.766  12.373   6.375
 1410SOL    HW1 6127  12.836  12.373   6.310
 1410SOL    HW2 6128  12.787  12.300   6.433
 1411SOL     OW 6129   1.171   2.674   1.673
 1411SOL    HW1 6130   1.185   2.730   1.749
 1411SOL    HW2 6131   1.209   2.721   1.600
 1412SOL     OW 6132   4.937  11.205  14.578
 1412SOL    HW1 6133   4.947  11.292  14.617
 1412SOL    HW2 6134   4.969  11.214  14.489
 1413SOL     OW 6135   6.012   9.089  13.594
 1413SOL    HW1 6136   5.923   9.063  13.617
 1413SOL    HW2 6137   6.010   9.100  13.499
 1414SOL     OW 6138   4.107  10.829   4.523
 1414SOL    HW1 6139   4.078  10.827   4.432
 1414SOL    HW2 6140   4.026  10.823   4.574
 1415SOL     OW 6141   4.009  12.571  13.863
 1415SOL    HW1 6142   4.063  12.649  13.878
 1415SOL    HW2 6143   3.927  12.590  13.908
 1416SOL     OW 6144   0.369   5.002   1.856
 1416SOL    HW1 6145   0.293   5.006   1.798
 1416SOL    HW2 6146   0.409   4.917   1.837
 1417SOL     OW 6147   1.950   5.169  12.810
 1417SOL    HW1 6148   1.962   5.108  12.737
 1417SOL    HW2 6149   1.861   5.201  12.800
 1418SOL     OW 6150   1.954   2.191   3.289
 1418SOL    HW1 6151   1.971   2.233   3.373
 1418SOL    HW2 6152   2.003   2.243   3.226
 1419SOL     OW 6153   6.728   4.895   8.012
 1419SOL    HW1 6154   6.699   4.940   8.091
 1419SOL    HW2 6155   6.689   4.808   8.019
 1420SOL     OW 6156   4.455   0.587   7.191
 1420SOL    HW1 6157   4.466   0.650   7.119
 1420SOL    HW2 6158   4.437   0.642   7.268
 1421SOL     OW 6159   9.687   9.094  14.539
 1421SOL    HW1 6160   9.676   9.177  14.492
 1421SOL    HW2 6161   9.641   9.029  14.485
 1422SOL     OW 6162   0.415   9.555   7.079
 1422SOL    HW1 6163   0.398   9.489   7.146
 1422SOL    HW2 6164   0.507   9.541   7.055
 1423SOL     OW 6165   3.922  12.333   2.146
 1423SOL    HW1 6166   3.855  12.271   2.118
 1423SOL    HW2 6167   3.943  12.384   2.067
 1424SOL     OW 6168  10.554   8.766   3.827
 1424SOL    HW1 6169  10.527   8.685   3.870
 1424SOL    HW2 6170  10.555   8.744   3.733
 1425SOL     OW 6171  12.158   4.573   7.834
 1425SOL    HW1 6172  12.124   4.500   7.884
 1425SOL    HW2 6173  12.112   4.650   7.867
 1426SOL     OW 6174   9.692   5.602  13.844
 1426SOL    HW1 6175   9.642   5.522  13.826
 1426SOL    HW2 6176   9.732   5.587  13.930
 1427SOL     OW 6177  14.348  11.863  14.731
 1427SOL    HW1 6178  14.279  11.830  14.790
 1427SOL    HW2 6179  14.424  11.809  14.752
 1428SOL     OW 6180   3.495   6.545  13.633
 1428SOL    HW1 6181   3.578   6.510  13.664
 1428SOL    HW2 6182   3.481   6.625  13.684
 1429SOL     OW 6183   4.690   0.653   9.647
 1429SOL    HW1 6184   4.670   0.561   9.629
 1429SOL    HW2 6185   4.627   0.679   9.714
 1430SOL     OW 6186   9.044   8.102   3.505
 1430SOL    HW1 6187   9.006   8.016   3.490
 1430SOL    HW2 6188   8.978   8.163   3.470
 1431SOL     OW 6189  10.050   7.226   2.871
 1431SOL    HW1 6190  10.093   7.176   2.802
 1431SOL    HW2 6191  10.121   7.274   2.913
 1432SOL     OW 6192   7.978   4.275   2.177
 1432SOL    HW1 6193   7.910   4.335   2.208
 1432SOL    HW2 6194   8.007   4.312   2.094
 1433SOL     OW 6195  10.251  10.568  12.006
 1433SOL    HW1 6196  10.294  10.566  11.920
 1433SOL    HW2 6197  10.270  10.656  12.040
 1434SOL     OW 6198   9.779  14.413  13.294
 1434SOL    HW1 6199   9.730  14.344  13.249
 1434SOL    HW2 6200   9.776  14.389  13.386
 1435SOL     OW 6201  11.226  10.530   4.457
 1435SOL    HW1 6202  11.250  10.622   4.442
 1435SOL    HW2 6203  11.254  10.512   4.547
 1436SOL     OW 6204   9.428   6.845  11.579
 1436SOL    HW1 6205   9.494   6.874  11.515
 1436SOL    HW2 6206   9.380   6.775  11.534
 1437SOL     OW 6207   2.632   0.150   7.751
 1437SOL    HW1 6208   2.659   0.059   7.736
 1437SOL    HW2 6209   2.549   0.158   7.703
 1438SOL     OW 6210  11.851   5.928  10.220
 1438SOL    HW1 6211  11.882   5.976  10.297
 1438SOL    HW2 6212  11.767   5.969  10.199
 1439SOL     OW 6213   4.470  12.700   4.045
 1439SOL    HW1 6214   4.492  12.636   4.113
 1439SOL    HW2 6215   4.377  12.688   4.030
 1440SOL     OW 6216   5.369   2.139   9.347
 1440SOL    HW1 6217   5.382   2.221   9.300
 1440SOL    HW2 6218   5.289   2.153   9.399
 1441SOL     OW 6219   3.823  14.753  10.674
 1441SOL    HW1 6220   3.778  14.809  10.611
 1441SOL    HW2 6221   3.801  14.789  10.759
 1442SOL     OW 6222   0.779   4.845   5.176
 1442SOL    HW1 6223   0.714   4.863   5.243
 1442SOL    HW2 6224   0.731   4.799   5.107
 1443SOL     OW 6225   0.719   4.423   4.430
 1443SOL    HW1 6226   0.772   4.406   4.352
 1443SOL    HW2 6227   0.775   4.476   4.486
 1444SOL     OW 6228   2.983  13.699   1.037
 1444SOL    HW1 6229   2.925  13.769   1.067
 1444SOL    HW2 6230   3.018  13.661   1.117
 1445SOL     OW 6231   7.789   2.742   5.479
 1445SOL    HW1 6232   7.835   2.817   5.517
 1445SOL    HW2 6233   7.719   2.781   5.426
 1446SOL     OW 6234   1.810   0.498   0.503
 1446SOL    HW1 6235   1.854   0.573   0.543
 1446SOL    HW2 6236   1.867   0.423   0.523
 1447SOL     OW 6237   7.232   5.930   1.965
 1447SOL    HW1 6238   7.149   5.891   1.992
 1447SOL    HW2 6239   7.218   6.024   1.975
 1448SOL     OW 6240   3.525  12.432  10.906
 1448SOL    HW1 6241   3.537  12.338  10.918
 1448SOL    HW2 6242   3.550  12.449  10.816
 1449SOL     OW 6243  13.587  10.503   9.737
 1449SOL    HW1 6244  13.604  10.413   9.764
 1449SOL    HW2 6245  13.670  10.549   9.750
 1450SOL     OW 6246   6.046   5.945   3.164
 1450SOL    HW1 6247   6.036   5.956   3.070
 1450SOL    HW2 6248   6.021   5.854   3.180
 1451SOL     OW 6249   3.834   6.527   4.226
 1451SOL    HW1 6250   3.823   6.600   4.165
 1451SOL    HW2 6251   3.750   6.521   4.272
 1452SOL     OW 6252   8.361  14.616   5.616
 1452SOL    HW1 6253   8.394  14.538   5.570
 1452SOL    HW2 6254   8.374  14.596   5.709
 1453SOL     OW 6255   5.942  13.858   5.922
 1453SOL    HW1 6256   5.901  13.933   5.966
 1453SOL    HW2 6257   6.034  13.883   5.912
 1454SOL     OW 6258   3.201  12.992   7.257
 1454SOL    HW1 6259   3.165  13.075   7.226
 1454SOL    HW2 6260   3.295  13.000   7.245
 1455SOL     OW 6261  14.051   9.839   9.053
 1455SOL    HW1 6262  14.100   9.762   9.082
 1455SOL    HW2 6263  13.998   9.807   8.980
 1456SOL     OW 6264   4.054  12.775   6.053
 1456SOL    HW1 6265   3.992  12.826   6.000
 1456SOL    HW2 6266   4.027  12.684   6.041
 1457SOL     OW 6267   2.398   1.082  12.962
 1457SOL    HW1 6268   2.340   1.019  13.005
 1457SOL    HW2 6269   2.377   1.075  12.869
 1458SOL     OW 6270  11.713   2.919   6.420
 1458SOL    HW1 6271  11.739   2.878   6.503
 1458SOL    HW2 6272  11.792   2.914   6.366
 1459SOL     OW 6273   2.129   5.573   1.701
 1459SOL    HW1 6274   2.176   5.628   1.638
 1459SOL    HW2 6275   2.038   5.577   1.672
 1460SOL     OW 6276  14.859   4.703  10.333
 1460SOL    HW1 6277  14.819   4.789  10.344
 1460SOL    HW2 6278   0.078   4.712  10.369
 1461SOL     OW 6279   5.856   2.530   2.681
 1461SOL    HW1 6280   5.809   2.593   2.736
 1461SOL    HW2 6281   5.869   2.454   2.738
 1462SOL     OW 6282  13.007   6.581   9.633
 1462SOL    HW1 6283  13.046   6.628   9.707
 1462SOL    HW2 6284  13.072   6.516   9.609
 1463SOL     OW 6285   7.359   6.717   0.922
 1463SOL    HW1 6286   7.439   6.746   0.965
 1463SOL    HW2 6287   7.295   6.706   0.993
 1464SOL     OW 6288   0.195   4.563   4.008
 1464SOL    HW1 6289   0.149   4.618   4.071
 1464SOL    HW2 6290   0.162   4.593   3.923
 1465SOL     OW 6291   5.355  12.189   1.687
 1465SOL    HW1 6292   5.263  12.214   1.688
 1465SOL    HW2 6293   5.401  12.264   1.648
 1466SOL     OW 6294   5.419   2.035   6.798
 1466SOL    HW1 6295   5.416   1.945   6.831
 1466SOL    HW2 6296   5.508   2.065   6.818
 1467SOL     OW 6297   3.839   4.055  13.370
 1467SOL    HW1 6298   3.780   4.048  13.295
 1467SOL    HW2 6299   3.868   3.965  13.386
 1468SOL     OW 6300   7.594  13.897   1.670
 1468SOL    HW1 6301   7.665  13.836   1.690
 1468SOL    HW2 6302   7.538  13.850   1.609
 1469SOL     OW 6303  14.516   9.231  10.698
 1469SOL    HW1 6304  14.571   9.281  10.758
 1469SOL    HW2 6305  14.565   9.150  10.683
 1470SOL     OW 6306   5.567   3.124  10.119
 1470SOL    HW1 6307   5.571   3.204  10.172
 1470SOL    HW2 6308   5.655   3.089  10.121
 1471SOL     OW 6309   1.153  12.853   7.793
 1471SOL    HW1 6310   1.148  12.945   7.767
 1471SOL    HW2 6311   1.165  12.805   7.711
 1472SOL     OW 6312  11.442   5.472  14.454
 1472SOL    HW1 6313  11.363   5.478  14.400
 1472SOL    HW2 6314  11.481   5.388  14.430
 1473SOL     OW 6315   9.055   4.467   8.883
 1473SOL    HW1 6316   9.114   4.491   8.954
 1473SOL    HW2 6317   9.106   4.484   8.803
 1474SOL     OW 6318   4.621  11.881  12.420
 1474SOL    HW1 6319   4.568  11.883  12.341
 1474SOL    HW2 6320   4.711  11.871  12.388
 1475SOL     OW 6321  14.592  12.561  11.003
 1475SOL    HW1 6322  14.678  12.520  11.002
 1475SOL    HW2 6323  14.567  12.567  10.911
 1476SOL     OW 6324   8.422   8.440   9.267
 1476SOL    HW1 6325   8.370   8.509   9.226
 1476SOL    HW2 6326   8.469   8.484   9.337
 1477SOL     OW 6327  14.391   5.838   8.844
 1477SOL    HW1 6328  14.365   5.819   8.753
 1477SOL    HW2 6329  14.481   5.805   8.850
 1478SOL     OW 6330  11.796   8.921   0.659
 1478SOL    HW1 6331  11.763   8.882   0.739
 1478SOL    HW2 6332  11.755   8.870   0.589
 1479SOL     OW 6333   5.385   2.928  14.045
 1479SOL    HW1 6334   5.399   2.836  14.070
 1479SOL    HW2 6335   5.377   2.974  14.128
 1480SOL     OW 6336   6.013   9.979  10.319
 1480SOL    HW1 6337   5.987  10.071  10.327
 1480SOL    HW2 6338   5.987   9.954  10.231
 1481SOL     OW 6339   9.602  11.269   1.959
 1481SOL    HW1 6340   9.538  11.316   2.013
 1481SOL    HW2 6341   9.657  11.337   1.921
 1482SOL     OW 6342  14.135   6.928  14.108
 1482SOL    HW1 6343  14.108   6.999  14.167
 1482SOL    HW2 6344  14.221   6.902  14.139
 1483SOL     OW 6345   3.637   6.028   7.822
 1483SOL    HW1 6346   3.692   5.988   7.889
 1483SOL    HW2 6347   3.646   6.122   7.837
 1484SOL     OW 6348  11.265   4.326  10.586
 1484SOL    HW1 6349  11.257   4.333  10.681
 1484SOL    HW2 6350  11.252   4.416  10.554
 1485SOL     OW 6351  10.568   8.463  14.624
 1485SOL    HW1 6352  10.507   8.484  14.553
 1485SOL    HW2 6353  10.514   8.466  14.703
 1486SOL     OW 6354   3.971   4.322  10.904
 1486SOL    HW1 6355   3.914   4.396  10.887
 1486SOL    HW2 6356   4.060   4.358  10.897
 1487SOL     OW 6357   5.812   1.805  12.468
 1487SOL    HW1 6358   5.742   1.792  12.403
 1487SOL    HW2 6359   5.821   1.720  12.510
 1488SOL     OW 6360   5.084   4.830   8.219
 1488SOL    HW1 6361   5.114   4.762   8.278
 1488SOL    HW2 6362   5.152   4.835   8.152
 1489SOL     OW 6363   1.331  13.974  14.129
 1489SOL    HW1 6364   1.395  13.911  14.097
 1489SOL    HW2 6365   1.270  13.985  14.056
 1490SOL     OW 6366   8.245   9.931  12.669
 1490SOL    HW1 6367   8.269   9.998  12.733
 1490SOL    HW2 6368   8.259   9.971  12.584
 1491SOL     OW 6369  12.255   1.735   5.758
 1491SOL    HW1 6370  12.171   1.753   5.717
 1491SOL    HW2 6371  12.234   1.684   5.836
 1492SOL     OW 6372   4.286   2.232   2.941
 1492SOL    HW1 6373   4.245   2.315   2.919
 1492SOL    HW2 6374   4.302   2.237   3.035
 1493SOL     OW 6375   0.724   5.159   7.222
 1493SOL    HW1 6376   0.664   5.116   7.162
 1493SOL    HW2 6377   0.775   5.088   7.261
 1494SOL     OW 6378   5.683   9.456   5.496
 1494SOL    HW1 6379   5.591   9.478   5.503
 1494SOL    HW2 6380   5.684   9.367   5.459
 1495SOL     OW 6381   0.069   3.258   2.424
 1495SOL    HW1 6382   0.046   3.264   2.331
 1495SOL    HW2 6383   0.018   3.327   2.466
 1496SOL     OW 6384  13.649   0.654  10.571
 1496SOL    HW1 6385  13.729   0.694  10.538
 1496SOL    HW2 6386  13.670   0.560  10.577
 1497SOL     OW 6387   7.936  13.754   9.537
 1497SOL    HW1 6388   8.005  13.708   9.584
 1497SOL    HW2 6389   7.913  13.695   9.465
 1498SOL     OW 6390   4.256  13.795   0.781
 1498SOL    HW1 6391   4.195  13.724   0.800
 1498SOL    HW2 6392   4.203  13.862   0.737
 1499SOL     OW 6393  12.730  10.513   6.523
 1499SOL    HW1 6394  12.699  10.586   6.576
 1499SOL    HW2 6395  12.736  10.440   6.585
 1500SOL     OW 6396   0.627  14.219   8.941
 1500SOL    HW1 6397   0.625  14.312   8.960
 1500SOL    HW2 6398   0.676  14.181   9.014
 1501SOL     OW 6399  10.931   7.799   2.422
 1501SOL    HW1 6400  10.967   7.801   2.511
 1501SOL    HW2 6401  11.006   7.779   2.366
 1502SOL     OW 6402   3.883   2.972   7.987
 1502SOL    HW1 6403   3.806   2.973   7.931
 1502SOL    HW2 6404   3.888   2.883   8.020
 1503SOL     OW 6405  14.085   2.970   1.122
 1503SOL    HW1 6406  13.995   2.972   1.091
 1503SOL    HW2 6407  14.105   2.877   1.134
 1504SOL     OW 6408   7.643   0.656   5.581
 1504SOL    HW1 6409   7.691   0.573   5.573
 1504SOL    HW2 6410   7.557   0.631   5.615
 1505SOL     OW 6411  13.658  12.052   3.514
 1505SOL    HW1 6412  13.577  12.076   3.470
 1505SOL    HW2 6413  13.636  11.974   3.564
 1506SOL     OW 6414  11.063  11.505   6.695
 1506SOL    HW1 6415  11.005  11.556   6.752
 1506SOL    HW2 6416  11.058  11.416   6.730
 1507SOL     OW 6417  10.913   1.798  13.711
 1507SOL    HW1 6418  10.978   1.743  13.755
 1507SOL    HW2 6419  10.947   1.811  13.623
 1508SOL     OW 6420   8.813   7.631   7.228
 1508SOL    HW1 6421   8.854   7.547   7.249
 1508SOL    HW2 6422   8.792   7.624   7.135
 1509SOL     OW 6423   2.786   1.938   8.590
 1509SOL    HW1 6424   2.872   1.933   8.632
 1509SOL    HW2 6425   2.796   2.002   8.520
 1510SOL     OW 6426   3.466   5.810  14.457
 1510SOL    HW1 6427   3.513   5.874  14.405
 1510SOL    HW2 6428   3.475   5.840  14.547
 1511SOL     OW 6429  13.882   0.273   5.888
 1511SOL    HW1 6430  13.916   0.250   5.801
 1511SOL    HW2 6431  13.944   0.338   5.921
 1512SOL     OW 6432   2.415  13.945  14.815
 1512SOL    HW1 6433   2.503  13.947  14.854
 1512SOL    HW2 6434   2.400  14.035  14.785
 1513SOL     OW 6435   2.218   7.508   0.166
 1513SOL    HW1 6436   2.204   7.456   0.087
 1513SOL    HW2 6437   2.313   7.516   0.174
 1514SOL     OW 6438   5.774   4.557   2.419
 1514SOL    HW1 6439   5.688   4.537   2.457
 1514SOL    HW2 6440   5.769   4.524   2.329
 1515SOL     OW 6441   3.770   4.784   5.767
 1515SOL    HW1 6442   3.712   4.856   5.791
 1515SOL    HW2 6443   3.712   4.718   5.729
 1516SOL     OW 6444   4.105  13.012   8.775
 1516SOL    HW1 6445   4.151  13.030   8.857
 1516SOL    HW2 6446   4.162  12.950   8.728
 1517SOL     OW 6447   4.838   2.704   0.345
 1517SOL    HW1 6448   4.817   2.691   0.252
 1517SOL    HW2 6449   4.753   2.708   0.388
 1518SOL     OW 6450   0.061   2.852   0.271
 1518SOL    HW1 6451   0.114   2.777   0.298
 1518SOL    HW2 6452   0.090   2.869   0.181
 1519SOL     OW 6453   3.784   3.581   8.658
 1519SOL    HW1 6454   3.733   3.587   8.739
 1519SOL    HW2 6455   3.730   3.625   8.593
 1520SOL     OW 6456   0.837  13.729   5.028
 1520SOL    HW1 6457   0.874  13.660   4.973
 1520SOL    HW2 6458   0.745  13.706   5.037
 1521SOL     OW 6459   2.838   7.711  14.116
 1521SOL    HW1 6460   2.765   7.693  14.057
 1521SOL    HW2 6461   2.859   7.803  14.100
 1522SOL     OW 6462  12.507   3.773   6.701
 1522SOL    HW1 6463  12.466   3.812   6.625
 1522SOL    HW2 6464  12.571   3.838   6.730
 1523SOL     OW 6465   0.220  12.617  14.442
 1523SOL    HW1 6466   0.302  12.632  14.488
 1523SOL    HW2 6467   0.198  12.702  14.403
 1524SOL     OW 6468  13.611   4.383   8.094
 1524SOL    HW1 6469  13.527   4.419   8.122
 1524SOL    HW2 6470  13.602   4.288   8.107
 1525SOL     OW 6471   9.779  12.843   8.277
 1525SOL    HW1 6472   9.725  12.914   8.242
 1525SOL    HW2 6473   9.868  12.877   8.276
 1526SOL     OW 6474   5.785   4.665  13.070
 1526SOL    HW1 6475   5.815   4.632  13.155
 1526SOL    HW2 6476   5.731   4.595  13.035
 1527SOL     OW 6477  10.482   4.688  13.097
 1527SOL    HW1 6478  10.574   4.664  13.091
 1527SOL    HW2 6479  10.466   4.741  13.019
 1528SOL     OW 6480  10.003   9.022   5.033
 1528SOL    HW1 6481   9.927   9.009   5.090
 1528SOL    HW2 6482  10.032   9.111   5.052
 1529SOL     OW 6483  10.278   8.390   8.535
 1529SOL    HW1 6484  10.365   8.418   8.560
 1529SOL    HW2 6485  10.283   8.294   8.531
 1530SOL     OW 6486   9.882  12.532   3.546
 1530SOL    HW1 6487   9.929  12.557   3.626
 1530SOL    HW2 6488   9.898  12.605   3.486
 1531SOL     OW 6489   9.205   0.175   4.274
 1531SOL    HW1 6490   9.274   0.135   4.221
 1531SOL    HW2 6491   9.223   0.144   4.363
 1532SOL     OW 6492   4.169   1.977   3.048
 1532SOL    HW1 6493   4.215   2.015   2.973
 1532SOL    HW2 6494   4.082   1.955   3.015
 1533SOL     OW 6495  10.262  14.470  10.963
 1533SOL    HW1 6496  10.172  14.480  10.994
 1533SOL    HW2 6497  10.273  14.375  10.953
 1534SOL     OW 6498   0.581   7.305  14.391
 1534SOL    HW1 6499   0.574   7.243  14.319
 1534SOL    HW2 6500   0.658   7.358  14.371
 1535SOL     OW 6501   3.416   3.420   3.318
 1535SOL    HW1 6502   3.367   3.483   3.371
 1535SOL    HW2 6503   3.474   3.474   3.265
 1536SOL     OW 6504   4.838   3.577  14.772
 1536SOL    HW1 6505   4.792   3.540  14.847
 1536SOL    HW2 6506   4.901   3.638  14.810
 1537SOL     OW 6507   8.672   6.034   5.313
 1537SOL    HW1 6508   8.650   6.040   5.406
 1537SOL    HW2 6509   8.761   6.066   5.308
 1538SOL     OW 6510   4.229   8.061  10.303
 1538SOL    HW1 6511   4.248   7.994  10.238
 1538SOL    HW2 6512   4.190   8.133  10.253
 1539SOL     OW 6513   2.400   2.562   7.426
 1539SOL    HW1 6514   2.431   2.575   7.516
 1539SOL    HW2 6515   2.463   2.501   7.387
 1540SOL     OW 6516  12.673   6.410   9.297
 1540SOL    HW1 6517  12.714   6.383   9.214
 1540SOL    HW2 6518  12.673   6.506   9.293
 1541SOL     OW 6519   0.098  13.796   2.711
 1541SOL    HW1 6520   0.123  13.704   2.703
 1541SOL    HW2 6521   0.005  13.798   2.689
 1542SOL     OW 6522   8.086   9.107  14.522
 1542SOL    HW1 6523   8.073   9.121  14.615
 1542SOL    HW2 6524   8.041   9.179  14.479
 1543SOL     OW 6525  11.826  14.827   2.688
 1543SOL    HW1 6526  11.842   0.044   2.726
 1543SOL    HW2 6527  11.741  14.800   2.725
 1544SOL     OW 6528   1.722   2.213  11.227
 1544SOL    HW1 6529   1.659   2.281  11.203
 1544SOL    HW2 6530   1.808   2.252  11.209
 1545SOL     OW 6531   1.886   8.956   1.437
 1545SOL    HW1 6532   1.918   8.915   1.356
 1545SOL    HW2 6533   1.889   8.886   1.502
 1546SOL     OW 6534   0.454   4.538  11.279
 1546SOL    HW1 6535   0.520   4.596  11.316
 1546SOL    HW2 6536   0.372   4.566  11.320
 1547SOL     OW 6537   4.218   8.959   3.756
 1547SOL    HW1 6538   4.293   8.956   3.816
 1547SOL    HW2 6539   4.243   8.901   3.683
 1548SOL     OW 6540  10.528  13.406  13.220
 1548SOL    HW1 6541  10.500  13.395  13.129
 1548SOL    HW2 6542  10.491  13.490  13.246
 1549SOL     OW 6543   4.528   8.820   9.671
 1549SOL    HW1 6544   4.500   8.904   9.707
 1549SOL    HW2 6545   4.488   8.754   9.728
 1550SOL     OW 6546   2.779   1.178   5.129
 1550SOL    HW1 6547   2.735   1.217   5.205
 1550SOL    HW2 6548   2.839   1.114   5.167
 1551SOL     OW 6549  11.637   8.004   3.186
 1551SOL    HW1 6550  11.616   7.930   3.130
 1551SOL    HW2 6551  11.686   7.967   3.259
 1552SOL     OW 6552  10.628  11.711   9.435
 1552SOL    HW1 6553  10.649  11.796   9.475
 1552SOL    HW2 6554  10.556  11.677   9.489
 1553SOL     OW 6555   0.898   8.680   2.291
 1553SOL    HW1 6556   0.920   8.708   2.380
 1553SOL    HW2 6557   0.884   8.762   2.244
 1554SOL     OW 6558   1.439  10.116  13.918
 1554SOL    HW1 6559   1.528  10.148  13.903
 1554SOL    HW2 6560   1.384  10.194  13.909
 1555SOL     OW 6561  11.245   9.878   2.258
 1555SOL    HW1 6562  11.327   9.829   2.259
 1555SOL    HW2 6563  11.179   9.815   2.287
 1556SOL     OW 6564   5.543  12.571   9.460
 1556SOL    HW1 6565   5.592  12.504   9.508
 1556SOL    HW2 6566   5.505  12.627   9.528
 1557SOL     OW 6567   3.017  10.092  12.886
 1557SOL    HW1 6568   2.986  10.180  12.911
 1557SOL    HW2 6569   3.090  10.075  12.945
 1558SOL     OW 6570   4.321   4.526   9.123
 1558SOL    HW1 6571   4.328   4.620   9.138
 1558SOL    HW2 6572   4.233   4.503   9.153
 1559SOL     OW 6573  10.732  12.734  11.029
 1559SOL    HW1 6574  10.714  12.812  11.082
 1559SOL    HW2 6575  10.723  12.661  11.090
 1560SOL     OW 6576   0.174  11.759   7.377
 1560SOL    HW1 6577   0.162  11.854   7.374
 1560SOL    HW2 6578   0.254  11.743   7.326
 1561SOL     OW 6579   4.501   3.496   4.557
 1561SOL    HW1 6580   4.407   3.501   4.543
 1561SOL    HW2 6581   4.511   3.426   4.622
 1562SOL     OW 6582   9.895  10.867  13.540
 1562SOL    HW1 6583   9.972  10.890  13.487
 1562SOL    HW2 6584   9.843  10.947  13.542
 1563SOL     OW 6585   1.759  12.097   8.797
 1563SOL    HW1 6586   1.816  12.160   8.841
 1563SOL    HW2 6587   1.817  12.052   8.735
 1564SOL     OW 6588   2.413   6.275   0.917
 1564SOL    HW1 6589   2.377   6.362   0.900
 1564SOL    HW2 6590   2.410   6.267   1.012
 1565SOL     OW 6591   7.723   0.885   1.602
 1565SOL    HW1 6592   7.657   0.954   1.612
 1565SOL    HW2 6593   7.772   0.909   1.524
 1566SOL     OW 6594   5.159   3.629   4.667
 1566SOL    HW1 6595   5.152   3.713   4.622
 1566SOL    HW2 6596   5.119   3.645   4.753
 1567SOL     OW 6597   3.115   0.771   7.167
 1567SOL    HW1 6598   3.114   0.784   7.261
 1567SOL    HW2 6599   3.160   0.687   7.155
 1568SOL     OW 6600  11.856   3.419  10.148
 1568SOL    HW1 6601  11.810   3.410  10.231
 1568SOL    HW2 6602  11.868   3.514  10.138
 1569SOL     OW 6603  10.245   0.750  10.965
 1569SOL    HW1 6604  10.336   0.760  10.993
 1569SOL    HW2 6605  10.211   0.678  11.019
 1570SOL     OW 6606   5.051   4.080   4.979
 1570SOL    HW1 6607   4.979   4.054   4.922
 1570SOL    HW2 6608   5.072   4.001   5.028
 1571SOL     OW 6609   2.138   7.360   2.187
 1571SOL    HW1 6610   2.199   7.428   2.217
 1571SOL    HW2 6611   2.178   7.326   2.106
 1572SOL     OW 6612  10.444   2.749   6.762
 1572SOL    HW1 6613  10.463   2.710   6.847
 1572SOL    HW2 6614  10.530   2.770   6.725
 1573SOL     OW 6615   1.801   0.698  13.188
 1573SOL    HW1 6616   1.848   0.672  13.267
 1573SOL    HW2 6617   1.715   0.726  13.218
 1574SOL     OW 6618  12.059   9.997   2.766
 1574SOL    HW1 6619  12.020  10.060   2.826
 1574SOL    HW2 6620  12.119   9.945   2.821
 1575SOL     OW 6621  13.311   8.106   7.343
 1575SOL    HW1 6622  13.250   8.160   7.393
 1575SOL    HW2 6623  13.290   8.016   7.369
 1576SOL     OW 6624  13.797   7.657   2.911
 1576SOL    HW1 6625  13.865   7.724   2.898
 1576SOL    HW2 6626  13.795   7.643   3.005
 1577SOL     OW 6627   4.788  10.493   8.789
 1577SOL    HW1 6628   4.716  10.531   8.840
 1577SOL    HW2 6629   4.790  10.401   8.817
 1578SOL     OW 6630   5.674   7.129   5.425
 1578SOL    HW1 6631   5.624   7.210   5.425
 1578SOL    HW2 6632   5.623   7.069   5.370
 1579SOL     OW 6633  14.426   0.094   8.759
 1579SOL    HW1 6634  14.501   0.141   8.795
 1579SOL    HW2 6635  14.423   0.121   8.667
 1580SOL     OW 6636   2.609   6.238   4.318
 1580SOL    HW1 6637   2.525   6.221   4.360
 1580SOL    HW2 6638   2.633   6.326   4.347
 1581SOL     OW 6639  12.815   9.089  10.935
 1581SOL    HW1 6640  12.743   9.027  10.938
 1581SOL    HW2 6641  12.779   9.165  10.889
 1582SOL     OW 6642  12.605  13.429   4.501
 1582SOL    HW1 6643  12.520  13.412   4.542
 1582SOL    HW2 6644  12.584  13.448   4.409
 1583SOL     OW 6645  11.068   1.902   4.281
 1583SOL    HW1 6646  11.074   1.808   4.297
 1583SOL    HW2 6647  11.105   1.914   4.193
 1584SOL     OW 6648   7.638   5.113   2.807
 1584SOL    HW1 6649   7.589   5.067   2.875
 1584SOL    HW2 6650   7.729   5.089   2.821
 1585SOL     OW 6651   4.531   5.055   6.641
 1585SOL    HW1 6652   4.471   5.084   6.573
 1585SOL    HW2 6653   4.613   5.102   6.623
 1586SOL     OW 6654  10.761  12.207  10.713
 1586SOL    HW1 6655  10.685  12.182  10.765
 1586SOL    HW2 6656  10.800  12.124  10.687
 1587SOL     OW 6657   2.919   8.923   3.503
 1587SOL    HW1 6658   2.964   8.853   3.551
 1587SOL    HW2 6659   2.834   8.930   3.546
 1588SOL     OW 6660   9.032   6.171   8.151
 1588SOL    HW1 6661   9.110   6.212   8.113
 1588SOL    HW2 6662   9.041   6.078   8.130
 1589SOL     OW 6663  13.285  13.252  14.062
 1589SOL    HW1 6664  13.288  13.347  14.059
 1589SOL    HW2 6665  13.376  13.225  14.072
 1590SOL     OW 6666   5.721  12.755  11.298
 1590SOL    HW1 6667   5.751  12.664  11.302
 1590SOL    HW2 6668   5.626  12.749  11.310
 1591SOL     OW 6669   7.384   8.832   9.160
 1591SOL    HW1 6670   7.306   8.853   9.109
 1591SOL    HW2 6671   7.409   8.744   9.132
 1592SOL     OW 6672   4.963  11.254   8.950
 1592SOL    HW1 6673   5.025  11.193   8.989
 1592SOL    HW2 6674   4.953  11.323   9.016
 1593SOL     OW 6675   7.821   4.306  14.193
 1593SOL    HW1 6676   7.853   4.386  14.236
 1593SOL    HW2 6677   7.727   4.320  14.185
 1594SOL     OW 6678   7.794  10.720  14.293
 1594SOL    HW1 6679   7.755  10.708  14.207
 1594SOL    HW2 6680   7.803  10.631  14.328
 1595SOL     OW 6681   6.147  10.532   6.993
 1595SOL    HW1 6682   6.097  10.467   7.043
 1595SOL    HW2 6683   6.203  10.480   6.936
 1596SOL     OW 6684   2.699  10.247   1.000
 1596SOL    HW1 6685   2.669  10.338   1.005
 1596SOL    HW2 6686   2.767  10.240   1.066
 1597SOL     OW 6687  10.790  14.408   3.489
 1597SOL    HW1 6688  10.797  14.339   3.554
 1597SOL    HW2 6689  10.877  14.411   3.448
 1598SOL     OW 6690   6.480  14.349   9.567
 1598SOL    HW1 6691   6.560  14.299   9.581
 1598SOL    HW2 6692   6.460  14.338   9.474
 1599SOL     OW 6693   7.837   9.493  10.026
 1599SOL    HW1 6694   7.785   9.546   9.966
 1599SOL    HW2 6695   7.810   9.403  10.007
 1600SOL     OW 6696   5.181  10.025   7.278
 1600SOL    HW1 6697   5.267  10.007   7.316
 1600SOL    HW2 6698   5.196  10.096   7.215
 1601SOL     OW 6699   3.169  13.681   2.306
 1601SOL    HW1 6700   3.089  13.734   2.311
 1601SOL    HW2 6701   3.229  13.722   2.368
 1602SOL     OW 6702   1.433   6.836   2.747
 1602SOL    HW1 6703   1.503   6.896   2.773
 1602SOL    HW2 6704   1.352   6.878   2.778
 1603SOL     OW 6705   3.081  12.047   9.454
 1603SOL    HW1 6706   3.117  12.135   9.467
 1603SOL    HW2 6707   3.039  12.026   9.537
 1604SOL     OW 6708   5.371   0.374   9.418
 1604SOL    HW1 6709   5.464   0.395   9.405
 1604SOL    HW2 6710   5.344   0.333   9.336
 1605SOL     OW 6711   1.053   3.530   3.825
 1605SOL    HW1 6712   1.124   3.474   3.857
 1605SOL    HW2 6713   0.973   3.480   3.843
 1606SOL     OW 6714  12.623   6.667   9.464
 1606SOL    HW1 6715  12.597   6.736   9.402
 1606SOL    HW2 6716  12.544   6.615   9.475
 1607SOL     OW 6717   1.424   8.049   6.650
 1607SOL    HW1 6718   1.383   8.132   6.624
 1607SOL    HW2 6719   1.351   7.996   6.682
 1608SOL     OW 6720   8.268   7.408   2.597
 1608SOL    HW1 6721   8.226   7.426   2.513
 1608SOL    HW2 6722   8.331   7.338   2.578
 1609SOL     OW 6723   6.304   7.802   2.983
 1609SOL    HW1 6724   6.320   7.770   3.072
 1609SOL    HW2 6725   6.384   7.779   2.935
 1610SOL     OW 6726   7.338   5.656   7.513
 1610SOL    HW1 6727   7.303   5.734   7.557
 1610SOL    HW2 6728   7.432   5.669   7.513
 1611SOL     OW 6729   6.523   0.130  13.572
 1611SOL    HW1 6730   6.521   0.096  13.661
 1611SOL    HW2 6731   6.432   0.150  13.552
 1612SOL     OW 6732   5.086   4.023   5.859
 1612SOL    HW1 6733   5.170   4.005   5.902
 1612SOL    HW2 6734   5.108   4.083   5.787
 1613SOL     OW 6735   6.163   1.288   9.587
 1613SOL    HW1 6736   6.068   1.297   9.576
 1613SOL    HW2 6737   6.173   1.211   9.644
 1614SOL     OW 6738   6.179   8.024  12.896
 1614SOL    HW1 6739   6.110   8.060  12.953
 1614SOL    HW2 6740   6.248   8.090  12.896
 1615SOL     OW 6741  10.147   9.242  14.262
 1615SOL    HW1 6742  10.109   9.174  14.206
 1615SOL    HW2 6743  10.161   9.198  14.346
 1616SOL     OW 6744   6.004   0.835   8.766
 1616SOL    HW1 6745   5.985   0.861   8.856
 1616SOL    HW2 6746   6.059   0.905   8.732
 1617SOL     OW 6747  14.069  10.939   7.042
 1617SOL    HW1 6748  14.006  10.893   7.097
 1617SOL    HW2 6749  14.153  10.928   7.086
 1618SOL     OW 6750   8.711   9.638  13.582
 1618SOL    HW1 6751   8.684   9.638  13.674
 1618SOL    HW2 6752   8.797   9.597  13.583
 1619SOL     OW 6753   2.207   0.207  10.188
 1619SOL    HW1 6754   2.283   0.165  10.148
 1619SOL    HW2 6755   2.213   0.299  10.161
 1620SOL     OW 6756   3.976   7.035   4.615
 1620SOL    HW1 6757   3.957   7.128   4.604
 1620SOL    HW2 6758   3.950   6.996   4.532
 1621SOL     OW 6759   5.426   9.669   7.736
 1621SOL    HW1 6760   5.429   9.736   7.805
 1621SOL    HW2 6761   5.350   9.693   7.683
 1622SOL     OW 6762   7.251   1.875   5.090
 1622SOL    HW1 6763   7.274   1.861   5.182
 1622SOL    HW2 6764   7.159   1.850   5.083
 1623SOL     OW 6765  12.980   6.554   1.790
 1623SOL    HW1 6766  12.950   6.514   1.871
 1623SOL    HW2 6767  13.075   6.554   1.796
 1624SOL     OW 6768   4.151  12.825  13.861
 1624SOL    HW1 6769   4.170  12.848  13.770
 1624SOL    HW2 6770   4.162  12.907  13.909
 1625SOL     OW 6771   9.612   1.472  14.368
 1625SOL    HW1 6772   9.555   1.471  14.445
 1625SOL    HW2 6773   9.564   1.524  14.303
 1626SOL     OW 6774  12.792   7.673   1.148
 1626SOL    HW1 6775  12.797   7.600   1.210
 1626SOL    HW2 6776  12.721   7.728   1.180
 1627SOL     OW 6777   5.577   0.085   8.239
 1627SOL    HW1 6778   5.501   0.088   8.181
 1627SOL    HW2 6779   5.556   0.145   8.311
 1628SOL     OW 6780  13.650  14.027   5.833
 1628SOL    HW1 6781  13.621  13.986   5.752
 1628SOL    HW2 6782  13.686  14.111   5.806
 1629SOL     OW 6783  10.398   3.426  14.229
 1629SOL    HW1 6784  10.357   3.422  14.142
 1629SOL    HW2 6785  10.375   3.513  14.262
 1630SOL     OW 6786  10.974   9.237   5.403
 1630SOL    HW1 6787  11.042   9.226   5.470
 1630SOL    HW2 6788  10.912   9.166   5.421
 1631SOL     OW 6789   1.062   9.422   6.555
 1631SOL    HW1 6790   1.148   9.382   6.559
 1631SOL    HW2 6791   1.018   9.394   6.635
 1632SOL     OW 6792   6.515   1.271   3.556
 1632SOL    HW1 6793   6.529   1.280   3.462
 1632SOL    HW2 6794   6.456   1.196   3.564
 1633SOL     OW 6795   3.979  10.729   6.015
 1633SOL    HW1 6796   4.059  10.760   6.056
 1633SOL    HW2 6797   3.969  10.785   5.937
 1634SOL     OW 6798   8.026  13.655   3.199
 1634SOL    HW1 6799   8.074  13.655   3.116
 1634SOL    HW2 6800   8.094  13.652   3.266
 1635SOL     OW 6801  11.707   4.634   8.328
 1635SOL    HW1 6802  11.637   4.665   8.270
 1635SOL    HW2 6803  11.737   4.712   8.374
 1636SOL     OW 6804   9.381   1.186  10.887
 1636SOL    HW1 6805   9.301   1.191  10.938
 1636SOL    HW2 6806   9.360   1.228  10.804
 1637SOL     OW 6807   9.400  12.026  14.238
 1637SOL    HW1 6808   9.479  12.050  14.287
 1637SOL    HW2 6809   9.359  12.110  14.217
 1638SOL     OW 6810  11.211   2.024   8.562
 1638SOL    HW1 6811  11.207   2.069   8.646
 1638SOL    HW2 6812  11.272   2.076   8.509
 1639SOL     OW 6813   5.152  10.421   2.814
 1639SOL    HW1 6814   5.190  10.380   2.736
 1639SOL    HW2 6815   5.124  10.347   2.868
 1640SOL     OW 6816  13.395   4.058  13.038
 1640SOL    HW1 6817  13.308   4.036  13.072
 1640SOL    HW2 6818  13.440   3.975  13.029
 1641SOL     OW 6819   7.566  11.115  10.648
 1641SOL    HW1 6820   7.532  11.036  10.690
 1641SOL    HW2 6821   7.659  11.116  10.669
 1642SOL     OW 6822   8.104   5.901   6.933
 1642SOL    HW1 6823   8.091   5.970   6.998
 1642SOL    HW2 6824   8.120   5.822   6.984
 1643SOL     OW 6825   3.547   6.854   1.357
 1643SOL    HW1 6826   3.628   6.862   1.408
 1643SOL    HW2 6827   3.534   6.940   1.318
 1644SOL     OW 6828  13.623   7.517   9.849
 1644SOL    HW1 6829  13.656   7.584   9.790
 1644SOL    HW2 6830  13.626   7.436   9.798
 1645SOL     OW 6831   9.133  10.961   5.004
 1645SOL    HW1 6832   9.206  10.904   5.026
 1645SOL    HW2 6833   9.108  11.002   5.087
 1646SOL     OW 6834   4.701  12.902  12.989
 1646SOL    HW1 6835   4.654  12.971  13.035
 1646SOL    HW2 6836   4.652  12.822  13.007
 1647SOL     OW 6837   9.169   4.356   3.842
 1647SOL    HW1 6838   9.129   4.414   3.778
 1647SOL    HW2 6839   9.109   4.282   3.848
 1648SOL     OW 6840   3.570   8.253  12.468
 1648SOL    HW1 6841   3.511   8.274  12.540
 1648SOL    HW2 6842   3.603   8.337  12.438
 1649SOL     OW 6843   3.624  11.777   8.265
 1649SOL    HW1 6844   3.646  11.708   8.328
 1649SOL    HW2 6845   3.528  11.785   8.272
 1650SOL     OW 6846  12.938  14.492   6.363
 1650SOL    HW1 6847  12.891  14.497   6.279
 1650SOL    HW2 6848  12.956  14.399   6.375
 1651SOL     OW 6849   6.896   0.165  12.382
 1651SOL    HW1 6850   6.837   0.157  12.306
 1651SOL    HW2 6851   6.839   0.151  12.458
 1652SOL     OW 6852   3.552  10.217   5.555
 1652SOL    HW1 6853   3.558  10.308   5.528
 1652SOL    HW2 6854   3.566  10.218   5.649
 1653SOL     OW 6855  12.319   0.568   3.633
 1653SOL    HW1 6856  12.375   0.609   3.699
 1653SOL    HW2 6857  12.242   0.538   3.682
 1654SOL     OW 6858   2.159  13.756  12.809
 1654SOL    HW1 6859   2.232  13.773  12.868
 1654SOL    HW2 6860   2.090  13.816  12.837
 1655SOL     OW 6861   0.328   5.584   1.315
 1655SOL    HW1 6862   0.315   5.618   1.227
 1655SOL    HW2 6863   0.422   5.572   1.323
 1656SOL     OW 6864  13.491   0.068  10.975
 1656SOL    HW1 6865  13.582   0.042  10.989
 1656SOL    HW2 6866  13.443  14.854  10.969
 1657SOL     OW 6867   7.721  12.068   9.846
 1657SOL    HW1 6868   7.800  12.086   9.897
 1657SOL    HW2 6869   7.671  12.150   9.850
 1658SOL     OW 6870   8.968  13.594   4.224
 1658SOL    HW1 6871   8.966  13.689   4.216
 1658SOL    HW2 6872   8.877  13.567   4.220
 1659SOL     OW 6873   7.251   3.067   9.353
 1659SOL    HW1 6874   7.310   3.075   9.278
 1659SOL    HW2 6875   7.309   3.075   9.429
 1660SOL     OW 6876  12.159   8.014  12.041
 1660SOL    HW1 6877  12.094   8.084  12.040
 1660SOL    HW2 6878  12.200   8.020  12.127
 1661SOL     OW 6879   8.893   7.809   0.995
 1661SOL    HW1 6880   8.798   7.799   0.989
 1661SOL    HW2 6881   8.906   7.904   0.994
 1662SOL     OW 6882   2.719   6.633   1.062
 1662SOL    HW1 6883   2.721   6.553   1.115
 1662SOL    HW2 6884   2.628   6.642   1.035
 1663SOL     OW 6885   2.597   4.943   1.688
 1663SOL    HW1 6886   2.627   5.028   1.717
 1663SOL    HW2 6887   2.537   4.962   1.616
 1664SOL     OW 6888  12.683  14.015  10.627
 1664SOL    HW1 6889  12.680  14.065  10.545
 1664SOL    HW2 6890  12.661  13.926  10.601
 1665SOL     OW 6891   0.014  11.258   5.787
 1665SOL    HW1 6892  14.864  11.194   5.718
 1665SOL    HW2 6893  14.868  11.210   5.869
 1666SOL     OW 6894  13.902   0.534   3.681
 1666SOL    HW1 6895  13.856   0.504   3.759
 1666SOL    HW2 6896  13.841   0.594   3.638
 1667SOL     OW 6897   2.969  11.634   4.195
 1667SOL    HW1 6898   3.014  11.592   4.121
 1667SOL    HW2 6899   2.888  11.668   4.158
 1668SOL     OW 6900   2.850   4.003   6.812
 1668SOL    HW1 6901   2.923   4.035   6.759
 1668SOL    HW2 6902   2.849   4.060   6.889
 1669SOL     OW 6903  12.281   3.135   9.791
 1669SOL    HW1 6904  12.362   3.084   9.783
 1669SOL    HW2 6905  12.300   3.198   9.861
 1670SOL     OW 6906   5.612   7.087   3.251
 1670SOL    HW1 6907   5.666   7.156   3.211
 1670SOL    HW2 6908   5.556   7.134   3.313
 1671SOL     OW 6909  13.874   2.068  12.570
 1671SOL    HW1 6910  13.910   2.031  12.489
 1671SOL    HW2 6911  13.845   2.156  12.545
 1672SOL     OW 6912   7.847  12.930   0.262
 1672SOL    HW1 6913   7.820  12.916   0.171
 1672SOL    HW2 6914   7.778  12.986   0.299
 1673SOL     OW 6915  13.788   1.012   1.975
 1673SOL    HW1 6916  13.820   1.085   2.028
 1673SOL    HW2 6917  13.719   0.972   2.029
 1674SOL     OW 6918   7.631  12.087  13.669
 1674SOL    HW1 6919   7.576  12.157  13.704
 1674SOL    HW2 6920   7.614  12.087  13.575
 1675SOL     OW 6921  10.437  12.066  10.950
 1675SOL    HW1 6922  10.436  12.159  10.930
 1675SOL    HW2 6923  10.529  12.047  10.971
 1676SOL     OW 6924  14.733  10.074   4.872
 1676SOL    HW1 6925  14.807  10.135   4.877
 1676SOL    HW2 6926  14.720  10.061   4.778
 1677SOL     OW 6927   6.388  11.277  13.560
 1677SOL    HW1 6928   6.304  11.319  13.580
 1677SOL    HW2 6929   6.381  11.250  13.469
 1678SOL     OW 6930   7.800  10.092   0.170
 1678SOL    HW1 6931   7.786  10.129   0.083
 1678SOL    HW2 6932   7.895  10.098   0.184
 1679SOL     OW 6933  10.451   4.106   6.702
 1679SOL    HW1 6934  10.475   4.055   6.779
 1679SOL    HW2 6935  10.380   4.163   6.731
 1680SOL     OW 6936  14.116   9.432   0.714
 1680SOL    HW1 6937  14.066   9.488   0.774
 1680SOL    HW2 6938  14.129   9.487   0.636
 1681SOL     OW 6939   2.164   8.224   1.362
 1681SOL    HW1 6940   2.244   8.184   1.327
 1681SOL    HW2 6941   2.143   8.171   1.439
 1682SOL     OW 6942  10.851   9.264  10.944
 1682SOL    HW1 6943  10.827   9.258  11.037
 1682SOL    HW2 6944  10.810   9.345  10.914
 1683SOL     OW 6945   0.262  12.210   9.468
 1683SOL    HW1 6946   0.202  12.177   9.536
 1683SOL    HW2 6947   0.313  12.277   9.512
 1684SOL     OW 6948   0.519   9.089   2.872
 1684SOL    HW1 6949   0.586   9.123   2.931
 1684SOL    HW2 6950   0.438   9.093   2.922
 1685SOL     OW 6951  12.202   3.173  13.255
 1685SOL    HW1 6952  12.146   3.164  13.332
 1685SOL    HW2 6953  12.277   3.116  13.273
 1686SOL     OW 6954   0.596   1.460   6.973
 1686SOL    HW1 6955   0.519   1.501   6.933
 1686SOL    HW2 6956   0.669   1.491   6.920
 1687SOL     OW 6957   5.703   7.291  14.052
 1687SOL    HW1 6958   5.798   7.287  14.041
 1687SOL    HW2 6959   5.669   7.222  13.995
 1688SOL     OW 6960   3.500   2.989   7.516
 1688SOL    HW1 6961   3.526   3.018   7.604
 1688SOL    HW2 6962   3.542   3.051   7.457
 1689SOL     OW 6963  14.048   4.862   6.511
 1689SOL    HW1 6964  14.114   4.926   6.537
 1689SOL    HW2 6965  14.040   4.872   6.416
 1690SOL     OW 6966  10.904   8.624   1.528
 1690SOL    HW1 6967  10.941   8.712   1.525
 1690SOL    HW2 6968  10.893   8.599   1.436
 1691SOL     OW 6969   1.834  14.054  11.034
 1691SOL    HW1 6970   1.857  13.963  11.052
 1691SOL    HW2 6971   1.795  14.086  11.115
 1692SOL     OW 6972   9.209   3.619   0.167
 1692SOL    HW1 6973   9.293   3.586   0.199
 1692SOL    HW2 6974   9.230   3.703   0.125
 1693SOL     OW 6975   9.456  14.408   0.603
 1693SOL    HW1 6976   9.488  14.333   0.653
 1693SOL    HW2 6977   9.456  14.480   0.666
 1694SOL     OW 6978   7.975   6.604   9.666
 1694SOL    HW1 6979   7.974   6.529   9.726
 1694SOL    HW2 6980   7.891   6.648   9.682
 1695SOL     OW 6981   3.934   1.394   6.339
 1695SOL    HW1 6982   3.850   1.363   6.305
 1695SOL    HW2 6983   3.970   1.448   6.269
 1696SOL     OW 6984  10.232   4.487   6.743
 1696SOL    HW1 6985  10.143   4.524   6.739
 1696SOL    HW2 6986  10.219   4.393   6.734
 1697SOL     OW 6987   3.531   4.940   4.553
 1697SOL    HW1 6988   3.466   4.916   4.620
 1697SOL    HW2 6989   3.601   4.982   4.602
 1698SOL     OW 6990   1.300   0.365  12.163
 1698SOL    HW1 6991   1.256   0.392  12.243
 1698SOL    HW2 6992   1.278   0.272  12.153
 1699SOL     OW 6993  13.889   0.555  10.298
 1699SOL    HW1 6994  13.895   0.649  10.317
 1699SOL    HW2 6995  13.800   0.543  10.267
 1700SOL     OW 6996   8.438   1.763   9.896
 1700SOL    HW1 6997   8.377   1.831   9.925
 1700SOL    HW2 6998   8.491   1.744   9.973
 1701SOL     OW 6999   5.728   2.242  12.837
 1701SOL    HW1 7000   5.673   2.314  12.869
 1701SOL    HW2 7001   5.667   2.173  12.815
 1702SOL     OW 7002   8.209  11.212   9.127
 1702SOL    HW1 7003   8.145  11.277   9.154
 1702SOL    HW2 7004   8.293  11.257   9.131
 1703SOL     OW 7005   6.767  12.842   8.206
 1703SOL    HW1 7006   6.733  12.767   8.254
 1703SOL    HW2 7007   6.689  12.893   8.184
 1704SOL     OW 7008   7.761  10.083   2.287
 1704SOL    HW1 7009   7.808  10.080   2.370
 1704SOL    HW2 7010   7.720  10.170   2.285
 1705SOL     OW 7011  12.149  13.189   9.029
 1705SOL    HW1 7012  12.143  13.094   9.035
 1705SOL    HW2 7013  12.058  13.219   9.032
 1706SOL     OW 7014   5.848  11.851   1.310
 1706SOL    HW1 7015   5.885  11.826   1.395
 1706SOL    HW2 7016   5.871  11.943   1.300
 1707SOL     OW 7017   6.096   1.627   6.422
 1707SOL    HW1 7018   6.092   1.561   6.490
 1707SOL    HW2 7019   6.166   1.597   6.363
 1708SOL     OW 7020   6.873   6.913   6.093
 1708SOL    HW1 7021   6.961   6.887   6.067
 1708SOL    HW2 7022   6.862   6.878   6.181
 1709SOL     OW 7023   8.720   7.266   7.876
 1709SOL    HW1 7024   8.707   7.348   7.924
 1709SOL    HW2 7025   8.634   7.225   7.876
 1710SOL     OW 7026   8.376  10.886   0.854
 1710SOL    HW1 7027   8.468  10.862   0.853
 1710SOL    HW2 7028   8.334  10.824   0.795
 1711SOL     OW 7029   6.006  12.077   9.296
 1711SOL    HW1 7030   5.944  12.147   9.315
 1711SOL    HW2 7031   5.994  12.058   9.203
 1712SOL     OW 7032   6.830   1.352   4.342
 1712SOL    HW1 7033   6.825   1.263   4.307
 1712SOL    HW2 7034   6.883   1.399   4.278
 1713SOL     OW 7035   0.183   6.385   2.189
 1713SOL    HW1 7036   0.204   6.463   2.242
 1713SOL    HW2 7037   0.088   6.375   2.198
 1714SOL     OW 7038  13.839   6.819   5.815
 1714SOL    HW1 7039  13.802   6.879   5.751
 1714SOL    HW2 7040  13.775   6.816   5.886
 1715SOL     OW 7041   2.842  10.619   9.604
 1715SOL    HW1 7042   2.911  10.576   9.552
 1715SOL    HW2 7043   2.889  10.669   9.670
 1716SOL     OW 7044   7.205   7.972  10.529
 1716SOL    HW1 7045   7.277   8.026  10.498
 1716SOL    HW2 7046   7.216   7.889  10.482
 1717SOL     OW 7047   9.659  10.239   4.311
 1717SOL    HW1 7048   9.705  10.264   4.391
 1717SOL    HW2 7049   9.644  10.321   4.265
 1718SOL     OW 7050  12.247   2.115   1.864
 1718SOL    HW1 7051  12.167   2.071   1.836
 1718SOL    HW2 7052  12.316   2.076   1.809
 1719SOL     OW 7053   1.334  10.373   8.094
 1719SOL    HW1 7054   1.357  10.321   8.171
 1719SOL    HW2 7055   1.400  10.350   8.029
 1720SOL     OW 7056   3.023  10.389   8.396
 1720SOL    HW1 7057   2.997  10.315   8.340
 1720SOL    HW2 7058   3.115  10.372   8.417
 1721SOL     OW 7059   7.944   3.423   1.325
 1721SOL    HW1 7060   8.012   3.481   1.360
 1721SOL    HW2 7061   7.879   3.418   1.395
 1722SOL     OW 7062   6.634   7.565  14.843
 1722SOL    HW1 7063   6.643   7.470  14.854
 1722SOL    HW2 7064   6.642   7.600   0.063
 1723SOL     OW 7065  11.449   3.654   5.486
 1723SOL    HW1 7066  11.409   3.567   5.483
 1723SOL    HW2 7067  11.521   3.646   5.548
 1724SOL     OW 7068   5.887   3.461   1.804
 1724SOL    HW1 7069   5.896   3.390   1.741
 1724SOL    HW2 7070   5.824   3.429   1.868
 1725SOL     OW 7071   1.363  13.682  13.206
 1725SOL    HW1 7072   1.337  13.610  13.264
 1725SOL    HW2 7073   1.415  13.640  13.138
 1726SOL     OW 7074   0.934   9.776   8.202
 1726SOL    HW1 7075   1.020   9.806   8.175
 1726SOL    HW2 7076   0.874   9.846   8.175
 1727SOL     OW 7077   8.644   7.378   6.329
 1727SOL    HW1 7078   8.715   7.433   6.363
 1727SOL    HW2 7079   8.685   7.294   6.310
 1728SOL     OW 7080  13.778   2.650   7.246
 1728SOL    HW1 7081  13.827   2.623   7.169
 1728SOL    HW2 7082  13.822   2.606   7.319
 1729SOL     OW 7083   1.886  10.064   5.840
 1729SOL    HW1 7084   1.900   9.984   5.889
 1729SOL    HW2 7085   1.848  10.125   5.904
 1730SOL     OW 7086   1.457  12.094   8.217
 1730SOL    HW1 7087   1.510  12.171   8.241
 1730SOL    HW2 7088   1.508  12.020   8.249
 1731SOL     OW 7089  11.850  10.720  13.763
 1731SOL    HW1 7090  11.769  10.767  13.784
 1731SOL    HW2 7091  11.920  10.779  13.791
 1732SOL     OW 7092   6.938   2.233  12.932
 1732SOL    HW1 7093   7.030   2.217  12.912
 1732SOL    HW2 7094   6.889   2.180  12.870
 1733SOL     OW 7095   4.482   0.580   8.043
 1733SOL    HW1 7096   4.398   0.535   8.031
 1733SOL    HW2 7097   4.470   0.664   7.999
 1734SOL     OW 7098  12.546   4.823   2.099
 1734SOL    HW1 7099  12.553   4.915   2.126
 1734SOL    HW2 7100  12.480   4.786   2.158
 1735SOL     OW 7101   9.945   5.153   3.820
 1735SOL    HW1 7102   9.958   5.092   3.748
 1735SOL    HW2 7103   9.947   5.239   3.780
 1736SOL     OW 7104   8.776  12.087   5.934
 1736SOL    HW1 7105   8.764  12.140   5.855
 1736SOL    HW2 7106   8.816  12.006   5.902
 1737SOL     OW 7107   2.921   0.289  11.689
 1737SOL    HW1 7108   2.910   0.223  11.619
 1737SOL    HW2 7109   2.986   0.251  11.747
 1738SOL     OW 7110   3.806   9.108   2.521
 1738SOL    HW1 7111   3.726   9.066   2.489
 1738SOL    HW2 7112   3.829   9.170   2.452
 1739SOL     OW 7113   0.013   7.793  11.110
 1739SOL    HW1 7114   0.044   7.867  11.163
 1739SOL    HW2 7115   0.044   7.715  11.156
 1740SOL     OW 7116   9.494   8.393   9.929
 1740SOL    HW1 7117   9.486   8.298   9.915
 1740SOL    HW2 7118   9.563   8.402   9.995
 1741SOL     OW 7119   0.338  12.554  14.755
 1741SOL    HW1 7120   0.403  12.622  14.768
 1741SOL    HW2 7121   0.334  12.508  14.840
 1742SOL     OW 7122   6.844   1.031  12.520
 1742SOL    HW1 7123   6.846   1.029  12.424
 1742SOL    HW2 7124   6.865   1.122  12.543
 1743SOL     OW 7125   3.551   2.251  14.469
 1743SOL    HW1 7126   3.515   2.220  14.553
 1743SOL    HW2 7127   3.616   2.317  14.494
 1744SOL     OW 7128   4.432  12.180  13.331
 1744SOL    HW1 7129   4.407  12.272  13.335
 1744SOL    HW2 7130   4.388  12.140  13.407
 1745SOL     OW 7131   4.813   7.700   1.861
 1745SOL    HW1 7132   4.870   7.767   1.824
 1745SOL    HW2 7133   4.796   7.730   1.951
 1746SOL     OW 7134   4.883  14.351   3.274
 1746SOL    HW1 7135   4.842  14.300   3.204
 1746SOL    HW2 7136   4.972  14.315   3.280
 1747SOL     OW 7137   0.624   9.018   5.832
 1747SOL    HW1 7138   0.681   9.095   5.820
 1747SOL    HW2 7139   0.550   9.034   5.773
 1748SOL     OW 7140   7.483  12.356   6.752
 1748SOL    HW1 7141   7.471  12.325   6.842
 1748SOL    HW2 7142   7.554  12.420   6.758
 1749SOL     OW 7143  13.822   8.724  13.767
 1749SOL    HW1 7144  13.731   8.696  13.759
 1749SOL    HW2 7145  13.817   8.810  13.810
 1750SOL     OW 7146   6.993   3.413   3.881
 1750SOL    HW1 7147   7.056   3.456   3.823
 1750SOL    HW2 7148   6.917   3.471   3.881
 1751SOL     OW 7149   4.094   7.672   5.252
 1751SOL    HW1 7150   4.094   7.669   5.348
 1751SOL    HW2 7151   4.156   7.604   5.226
 1752SOL     OW 7152  13.860  12.751  14.164
 1752SOL    HW1 7153  13.931  12.767  14.226
 1752SOL    HW2 7154  13.791  12.709  14.216
 1753SOL     OW 7155   7.259   0.706  10.394
 1753SOL    HW1 7156   7.175   0.688  10.352
 1753SOL    HW2 7157   7.320   0.719  10.321
 1754SOL     OW 7158   6.062  13.714  12.220
 1754SOL    HW1 7159   6.095  13.638  12.268
 1754SOL    HW2 7160   6.123  13.725  12.147
 1755SOL     OW 7161   4.720  10.217   9.828
 1755SOL    HW1 7162   4.699  10.196   9.737
 1755SOL    HW2 7163   4.753  10.307   9.825
 1756SOL     OW 7164  14.282   1.149  14.421
 1756SOL    HW1 7165  14.269   1.230  14.469
 1756SOL    HW2 7166  14.225   1.155  14.345
 1757SOL     OW 7167  12.121   5.527   2.227
 1757SOL    HW1 7168  12.215   5.543   2.240
 1757SOL    HW2 7169  12.086   5.518   2.316
 1758SOL     OW 7170   7.275  13.712   1.627
 1758SOL    HW1 7171   7.306  13.640   1.683
 1758SOL    HW2 7172   7.216  13.669   1.564
 1759SOL     OW 7173  13.235   1.945   4.461
 1759SOL    HW1 7174  13.254   1.859   4.424
 1759SOL    HW2 7175  13.315   1.969   4.509
 1760SOL     OW 7176  11.595  10.285  12.781
 1760SOL    HW1 7177  11.560  10.233  12.709
 1760SOL    HW2 7178  11.575  10.234  12.860
 1761SOL     OW 7179  12.330  14.024   5.009
 1761SOL    HW1 7180  12.293  13.939   5.032
 1761SOL    HW2 7181  12.254  14.079   4.989
 1762SOL     OW 7182  12.535   2.929  12.439
 1762SOL    HW1 7183  12.597   2.864  12.405
 1762SOL    HW2 7184  12.496   2.968  12.360
 1763SOL     OW 7185  12.266   0.265   3.095
 1763SOL    HW1 7186  12.334   0.199   3.096
 1763SOL    HW2 7187  12.312   0.348   3.111
 1764SOL     OW 7188  13.250   2.206   2.202
 1764SOL    HW1 7189  13.226   2.180   2.112
 1764SOL    HW2 7190  13.172   2.185   2.254
 1765SOL     OW 7191   2.294   4.560   3.108
 1765SOL    HW1 7192   2.359   4.588   3.043
 1765SOL    HW2 7193   2.325   4.475   3.138
 1766SOL     OW 7194   0.384   3.411   4.696
 1766SOL    HW1 7195   0.420   3.437   4.611
 1766SOL    HW2 7196   0.296   3.448   4.698
 1767SOL     OW 7197  10.547   3.254   7.160
 1767SOL    HW1 7198  10.456   3.264   7.188
 1767SOL    HW2 7199  10.544   3.183   7.096
 1768SOL     OW 7200   8.597   2.425   4.964
 1768SOL    HW1 7201   8.621   2.470   4.883
 1768SOL    HW2 7202   8.666   2.450   5.026
 1769SOL     OW 7203   4.665  11.953  10.586
 1769SOL    HW1 7204   4.717  11.900  10.647
 1769SOL    HW2 7205   4.730  12.005  10.539
 1770SOL     OW 7206   2.801  11.298   4.914
 1770SOL    HW1 7207   2.866  11.248   4.965
 1770SOL    HW2 7208   2.753  11.348   4.980
 1771SOL     OW 7209   0.555   0.955  14.690
 1771SOL    HW1 7210   0.548   1.028  14.629
 1771SOL    HW2 7211   0.648   0.935  14.693
 1772SOL     OW 7212   9.292   7.724  10.298
 1772SOL    HW1 7213   9.340   7.735  10.216
 1772SOL    HW2 7214   9.322   7.640  10.332
 1773SOL     OW 7215   4.225  12.328   5.918
 1773SOL    HW1 7216   4.285  12.340   5.845
 1773SOL    HW2 7217   4.273  12.272   5.980
 1774SOL     OW 7218   4.607  12.838  10.018
 1774SOL    HW1 7219   4.586  12.747  10.038
 1774SOL    HW2 7220   4.660  12.868  10.093
 1775SOL     OW 7221   2.726  10.292  13.152
 1775SOL    HW1 7222   2.769  10.308  13.236
 1775SOL    HW2 7223   2.796  10.297  13.088
 1776SOL     OW 7224   0.562   4.192  13.761
 1776SOL    HW1 7225   0.622   4.219  13.692
 1776SOL    HW2 7226   0.510   4.122  13.722
 1777SOL     OW 7227   5.767   3.924   9.035
 1777SOL    HW1 7228   5.710   3.850   9.055
 1777SOL    HW2 7229   5.841   3.885   8.988
 1778SOL     OW 7230   1.658   6.672   5.854
 1778SOL    HW1 7231   1.746   6.640   5.833
 1778SOL    HW2 7232   1.605   6.647   5.778
 1779SOL     OW 7233  12.499   0.137   6.639
 1779SOL    HW1 7234  12.433   0.154   6.706
 1779SOL    HW2 7235  12.539   0.054   6.665
 1780SOL     OW 7236  12.419   4.713  12.492
 1780SOL    HW1 7237  12.477   4.637  12.494
 1780SOL    HW2 7238  12.465   4.779  12.545
 1781SOL     OW 7239   4.943   6.396   9.813
 1781SOL    HW1 7240   4.908   6.375   9.727
 1781SOL    HW2 7241   5.000   6.472   9.799
 1782SOL     OW 7242   6.577   7.129  12.622
 1782SOL    HW1 7243   6.626   7.076  12.559
 1782SOL    HW2 7244   6.564   7.070  12.697
 1783SOL     OW 7245   9.380   2.902   8.557
 1783SOL    HW1 7246   9.411   2.926   8.470
 1783SOL    HW2 7247   9.439   2.948   8.618
 1784SOL     OW 7248   7.806  11.074  13.335
 1784SOL    HW1 7249   7.743  11.019  13.381
 1784SOL    HW2 7250   7.776  11.074  13.244
 1785SOL     OW 7251   2.134  10.093   9.423
 1785SOL    HW1 7252   2.135  10.063   9.513
 1785SOL    HW2 7253   2.217  10.139   9.411
 1786SOL     OW 7254   7.329   6.933   2.992
 1786SOL    HW1 7255   7.268   6.945   2.919
 1786SOL    HW2 7256   7.298   6.994   3.060
 1787SOL     OW 7257   4.155  10.278  11.058
 1787SOL    HW1 7258   4.226  10.237  11.008
 1787SOL    HW2 7259   4.087  10.210  11.061
 1788SOL     OW 7260   3.699  10.155   1.200
 1788SOL    HW1 7261   3.727  10.067   1.225
 1788SOL    HW2 7262   3.769  10.212   1.231
 1789SOL     OW 7263   3.200  10.831   4.069
 1789SOL    HW1 7264   3.281  10.854   4.115
 1789SOL    HW2 7265   3.148  10.912   4.071
 1790SOL     OW 7266  12.372   4.606   2.178
 1790SOL    HW1 7267  12.379   4.519   2.140
 1790SOL    HW2 7268  12.296   4.645   2.135
 1791SOL     OW 7269  12.734   5.495  11.927
 1791SOL    HW1 7270  12.641   5.514  11.919
 1791SOL    HW2 7271  12.746   5.414  11.877
 1792SOL     OW 7272  12.752   1.120   7.441
 1792SOL    HW1 7273  12.746   1.121   7.536
 1792SOL    HW2 7274  12.744   1.027   7.418
 1793SOL     OW 7275  10.421  11.513  12.116
 1793SOL    HW1 7276  10.442  11.531  12.208
 1793SOL    HW2 7277  10.471  11.434  12.096
 1794SOL     OW 7278   6.560   7.602  12.548
 1794SOL    HW1 7279   6.476   7.644  12.526
 1794SOL    HW2 7280   6.536   7.524  12.597
 1795SOL     OW 7281   5.671  13.940   6.759
 1795SOL    HW1 7282   5.702  13.850   6.747
 1795SOL    HW2 7283   5.720  13.971   6.835
 1796SOL     OW 7284   1.673  14.796   3.334
 1796SOL    HW1 7285   1.697   0.019   3.330
 1796SOL    HW2 7286   1.630  14.779   3.250
 1797SOL     OW 7287   5.022   1.147  14.138
 1797SOL    HW1 7288   5.041   1.240  14.135
 1797SOL    HW2 7289   4.976   1.129  14.056
 1798SOL     OW 7290   0.513   3.702  10.966
 1798SOL    HW1 7291   0.455   3.754  11.022
 1798SOL    HW2 7292   0.594   3.694  11.015
 1799SOL     OW 7293   4.120   0.172   9.843
 1799SOL    HW1 7294   4.196   0.189   9.899
 1799SOL    HW2 7295   4.134   0.084   9.808
 1800SOL     OW 7296  10.935   7.211   8.964
 1800SOL    HW1 7297  10.857   7.156   8.972
 1800SOL    HW2 7298  11.008   7.152   8.981
 1801SOL     OW 7299   6.379   9.012   4.762
 1801SOL    HW1 7300   6.394   9.058   4.844
 1801SOL    HW2 7301   6.284   9.014   4.750
 1802SOL     OW 7302   9.958   2.815  11.302
 1802SOL    HW1 7303   9.905   2.790  11.378
 1802SOL    HW2 7304  10.048   2.808  11.333
 1803SOL     OW 7305  13.029  11.932  13.895
 1803SOL    HW1 7306  12.958  11.993  13.875
 1803SOL    HW2 7307  13.018  11.913  13.988
 1804SOL     OW 7308  11.202  11.468  13.624
 1804SOL    HW1 7309  11.130  11.414  13.594
 1804SOL    HW2 7310  11.178  11.494  13.713
 1805SOL     OW 7311  12.986  11.928  14.162
 1805SOL    HW1 7312  12.934  11.878  14.225
 1805SOL    HW2 7313  12.951  12.016  14.165
 1806SOL     OW 7314   1.925  12.813   0.473
 1806SOL    HW1 7315   1.922  12.718   0.479
 1806SOL    HW2 7316   1.971  12.831   0.391
 1807SOL     OW 7317  11.940   8.489   2.528
 1807SOL    HW1 7318  12.010   8.535   2.575
 1807SOL    HW2 7319  11.983   8.410   2.494
 1808SOL     OW 7320  10.313  10.329  13.091
 1808SOL    HW1 7321  10.356  10.413  13.107
 1808SOL    HW2 7322  10.301  10.292  13.179
 1809SOL     OW 7323   3.155  13.728  13.893
 1809SOL    HW1 7324   3.070  13.685  13.879
 1809SOL    HW2 7325   3.219  13.658  13.883
 1810SOL     OW 7326   3.469  12.167   0.204
 1810SOL    HW1 7327   3.534  12.098   0.196
 1810SOL    HW2 7328   3.408  12.152   0.132
 1811SOL     OW 7329   9.248   8.415  14.210
 1811SOL    HW1 7330   9.293   8.330  14.217
 1811SOL    HW2 7331   9.287   8.457  14.133
 1812SOL     OW 7332  10.417   7.064   8.822
 1812SOL    HW1 7333  10.336   7.013   8.813
 1812SOL    HW2 7334  10.473   7.032   8.751
 1813SOL     OW 7335   1.837   7.274  12.227
 1813SOL    HW1 7336   1.775   7.201  12.233
 1813SOL    HW2 7337   1.843   7.309  12.316
 1814SOL     OW 7338  14.104   1.483   3.881
 1814SOL    HW1 7339  14.065   1.558   3.926
 1814SOL    HW2 7340  14.151   1.436   3.950
 1815SOL     OW 7341   5.751   7.256  11.064
 1815SOL    HW1 7342   5.836   7.288  11.096
 1815SOL    HW2 7343   5.692   7.330  11.072
 1816SOL     OW 7344  10.048  11.161   0.661
 1816SOL    HW1 7345  10.138  11.171   0.631
 1816SOL    HW2 7346  10.039  11.068   0.680
 1817SOL     OW 7347   9.868   9.586   4.419
 1817SOL    HW1 7348   9.871   9.588   4.515
 1817SOL    HW2 7349   9.807   9.656   4.396
 1818SOL     OW 7350  14.599   0.749   6.032
 1818SOL    HW1 7351  14.594   0.802   6.111
 1818SOL    HW2 7352  14.516   0.763   5.986
 1819SOL     OW 7353  10.783   6.781   0.900
 1819SOL    HW1 7354  10.871   6.771   0.864
 1819SOL    HW2 7355  10.793   6.842   0.973
 1820SOL     OW 7356  13.770  12.385  10.928
 1820SOL    HW1 7357  13.722  12.468  10.931
 1820SOL    HW2 7358  13.743  12.345  10.846
 1821SOL     OW 7359  12.213   7.489  14.795
 1821SOL    HW1 7360  12.133   7.543  14.790
 1821SOL    HW2 7361  12.213   7.456   0.015
 1822SOL     OW 7362   6.484  14.178   7.748
 1822SOL    HW1 7363   6.427  14.129   7.808
 1822SOL    HW2 7364   6.537  14.234   7.805
 1823SOL     OW 7365   2.310  13.335  10.015
 1823SOL    HW1 7366   2.363  13.376   9.947
 1823SOL    HW2 7367   2.252  13.275   9.967
 1824SOL     OW 7368   5.936   1.403   8.922
 1824SOL    HW1 7369   5.871   1.414   8.853
 1824SOL    HW2 7370   5.930   1.311   8.947
 1825SOL     OW 7371   0.225   2.581   0.134
 1825SOL    HW1 7372   0.182   2.520   0.074
 1825SOL    HW2 7373   0.217   2.666   0.091
 1826SOL     OW 7374   1.026   6.844  12.284
 1826SOL    HW1 7375   1.084   6.899  12.232
 1826SOL    HW2 7376   1.009   6.768  12.229
 1827SOL     OW 7377   8.757   1.791   6.885
 1827SOL    HW1 7378   8.777   1.708   6.928
 1827SOL    HW2 7379   8.815   1.854   6.928
 1828SOL     OW 7380  14.055   7.270   1.598
 1828SOL    HW1 7381  13.979   7.276   1.540
 1828SOL    HW2 7382  14.065   7.359   1.632
 1829SOL     OW 7383   1.100   7.290  14.408
 1829SOL    HW1 7384   1.162   7.332  14.349
 1829SOL    HW2 7385   1.073   7.211  14.363
 1830SOL     OW 7386  11.691   9.255  12.734
 1830SOL    HW1 7387  11.742   9.335  12.743
 1830SOL    HW2 7388  11.603   9.284  12.708
 1831SOL     OW 7389   5.086   7.210   2.543
 1831SOL    HW1 7390   5.083   7.268   2.467
 1831SOL    HW2 7391   5.087   7.269   2.618
 1832SOL     OW 7392  14.555  11.617   3.094
 1832SOL    HW1 7393  14.490  11.561   3.051
 1832SOL    HW2 7394  14.504  11.667   3.158
 1833SOL     OW 7395  14.032  11.389   1.536
 1833SOL    HW1 7396  14.004  11.379   1.445
 1833SOL    HW2 7397  14.066  11.304   1.560
 1834SOL     OW 7398   7.132   5.625  13.504
 1834SOL    HW1 7399   7.123   5.718  13.484
 1834SOL    HW2 7400   7.086   5.613  13.587
 1835SOL     OW 7401  14.686   0.552  14.393
 1835SOL    HW1 7402  14.675   0.638  14.353
 1835SOL    HW2 7403  14.598   0.516  14.398
 1836SOL     OW 7404  12.720   1.180   5.249
 1836SOL    HW1 7405  12.794   1.149   5.196
 1836SOL    HW2 7406  12.732   1.138   5.334
 1837SOL     OW 7407   1.869  12.785   1.599
 1837SOL    HW1 7408   1.869  12.811   1.507
 1837SOL    HW2 7409   1.877  12.689   1.597
 1838SOL     OW 7410  13.776  11.540   0.669
 1838SOL    HW1 7411  13.761  11.449   0.643
 1838SOL    HW2 7412  13.741  11.546   0.757
 1839SOL     OW 7413   5.600   5.311  13.211
 1839SOL    HW1 7414   5.575   5.392  13.255
 1839SOL    HW2 7415   5.661   5.269  13.271
 1840SOL     OW 7416   3.941  10.327   3.271
 1840SOL    HW1 7417   3.880  10.386   3.316
 1840SOL    HW2 7418   3.918  10.335   3.178
 1841SOL     OW 7419   5.722   9.440   4.274
 1841SOL    HW1 7420   5.635   9.470   4.300
 1841SOL    HW2 7421   5.780   9.514   4.296
 1842SOL     OW 7422  12.108   9.097   1.031
 1842SOL    HW1 7423  12.017   9.071   1.046
 1842SOL    HW2 7424  12.157   9.015   1.031
 1843SOL     OW 7425  14.255   5.149   8.102
 1843SOL    HW1 7426  14.322   5.215   8.118
 1843SOL    HW2 7427  14.172   5.193   8.122
 1844SOL     OW 7428  11.177   8.112  13.103
 1844SOL    HW1 7429  11.171   8.105  13.199
 1844SOL    HW2 7430  11.182   8.206  13.087
 1845SOL     OW 7431  12.151  10.558   7.300
 1845SOL    HW1 7432  12.181  10.637   7.345
 1845SOL    HW2 7433  12.064  10.541   7.337
 1846SOL     OW 7434   6.491  12.356   7.634
 1846SOL    HW1 7435   6.558  12.357   7.566
 1846SOL    HW2 7436   6.499  12.440   7.678
 1847SOL     OW 7437   2.116   1.686  10.913
 1847SOL    HW1 7438   2.197   1.637  10.902
 1847SOL    HW2 7439   2.137   1.755  10.976
 1848SOL     OW 7440  12.428   8.899   6.315
 1848SOL    HW1 7441  12.425   8.839   6.389
 1848SOL    HW2 7442  12.406   8.844   6.239
 1849SOL     OW 7443   7.375   3.687   5.694
 1849SOL    HW1 7444   7.434   3.659   5.764
 1849SOL    HW2 7445   7.326   3.761   5.731
 1850SOL     OW 7446   8.207  12.494   3.919
 1850SOL    HW1 7447   8.236  12.521   4.006
 1850SOL    HW2 7448   8.185  12.576   3.875
 1851SOL     OW 7449   6.518  12.610  11.814
 1851SOL    HW1 7450   6.491  12.701  11.803
 1851SOL    HW2 7451   6.476  12.583  11.895
 1852SOL     OW 7452   2.237  11.869   2.234
 1852SOL    HW1 7453   2.312  11.813   2.255
 1852SOL    HW2 7454   2.199  11.831   2.155
 1853SOL     OW 7455   4.518  14.503   4.117
 1853SOL    HW1 7456   4.536  14.555   4.040
 1853SOL    HW2 7457   4.439  14.541   4.155
 1854SOL     OW 7458   6.282   2.018   8.120
 1854SOL    HW1 7459   6.243   2.048   8.037
 1854SOL    HW2 7460   6.309   1.928   8.103
 1855SOL     OW 7461  13.165   8.885   4.291
 1855SOL    HW1 7462  13.233   8.837   4.338
 1855SOL    HW2 7463  13.103   8.817   4.263
 1856SOL     OW 7464   6.650   5.405  13.711
 1856SOL    HW1 7465   6.562   5.388  13.745
 1856SOL    HW2 7466   6.640   5.482  13.656
 1857SOL     OW 7467   8.305   1.197   9.714
 1857SOL    HW1 7468   8.247   1.228   9.783
 1857SOL    HW2 7469   8.270   1.111   9.689
 1858SOL     OW 7470   3.557   6.875  14.593
 1858SOL    HW1 7471   3.632   6.890  14.535
 1858SOL    HW2 7472   3.489   6.838  14.536
 1859SOL     OW 7473  10.028  13.136   5.917
 1859SOL    HW1 7474  10.065  13.051   5.894
 1859SOL    HW2 7475   9.937  13.117   5.942
 1860SOL     OW 7476  11.496   1.532   5.867
 1860SOL    HW1 7477  11.530   1.450   5.831
 1860SOL    HW2 7478  11.403   1.514   5.883
 1861SOL     OW 7479  12.706   1.328   6.745
 1861SOL    HW1 7480  12.742   1.289   6.666
 1861SOL    HW2 7481  12.613   1.305   6.743
 1862SOL     OW 7482   0.124  13.400   1.900
 1862SOL    HW1 7483   0.186  13.365   1.964
 1862SOL    HW2 7484   0.156  13.488   1.882
 1863SOL     OW 7485   4.460   0.118   7.084
 1863SOL    HW1 7486   4.432   0.202   7.120
 1863SOL    HW2 7487   4.555   0.116   7.099
 1864SOL     OW 7488  10.635  11.808   0.319
 1864SOL    HW1 7489  10.724  11.834   0.343
 1864SOL    HW2 7490  10.623  11.722   0.359
 1865SOL     OW 7491  14.812   9.590   4.661
 1865SOL    HW1 7492  14.749   9.624   4.723
 1865SOL    HW2 7493  14.855   9.667   4.625
 1866SOL     OW 7494   1.974   1.569   0.232
 1866SOL    HW1 7495   1.945   1.638   0.173
 1866SOL    HW2 7496   1.914   1.497   0.216
 1867SOL     OW 7497   2.450  10.722   9.007
 1867SOL    HW1 7498   2.411  10.636   8.991
 1867SOL    HW2 7499   2.468  10.723   9.101
 1868SOL     OW 7500   5.133  11.146   0.016
 1868SOL    HW1 7501   5.202  11.089  14.853
 1868SOL    HW2 7502   5.167  11.234   0.006
 1869SOL     OW 7503   1.301   4.160   9.359
 1869SOL    HW1 7504   1.298   4.253   9.336
 1869SOL    HW2 7505   1.366   4.122   9.300
 1870SOL     OW 7506   7.579  10.561  13.911
 1870SOL    HW1 7507   7.573  10.568  13.816
 1870SOL    HW2 7508   7.500  10.603  13.944
 1871SOL     OW 7509  14.361   5.059  11.803
 1871SOL    HW1 7510  14.314   5.072  11.885
 1871SOL    HW2 7511  14.443   5.017  11.829
 1872SOL     OW 7512   8.491  14.820   8.448
 1872SOL    HW1 7513   8.424   0.009   8.413
 1872SOL    HW2 7514   8.523  14.865   8.526
 1873SOL     OW 7515  14.311   2.811   3.118
 1873SOL    HW1 7516  14.381   2.782   3.060
 1873SOL    HW2 7517  14.246   2.740   3.116
 1874SOL     OW 7518   4.047  10.570  14.778
 1874SOL    HW1 7519   4.005  10.488  14.803
 1874SOL    HW2 7520   4.140  10.556  14.792
 1875SOL     OW 7521   7.578  11.527   7.357
 1875SOL    HW1 7522   7.659  11.515   7.407
 1875SOL    HW2 7523   7.576  11.621   7.338
 1876SOL     OW 7524   9.332   9.278   6.154
 1876SOL    HW1 7525   9.280   9.352   6.187
 1876SOL    HW2 7526   9.368   9.310   6.071
 1877SOL     OW 7527   1.401   3.313   4.945
 1877SOL    HW1 7528   1.407   3.234   4.891
 1877SOL    HW2 7529   1.348   3.374   4.893
 1878SOL     OW 7530   4.816  14.863   2.524
 1878SOL    HW1 7531   4.814   0.054   2.450
 1878SOL    HW2 7532   4.882   0.029   2.583
 1879SOL     OW 7533   2.682   7.100   1.830
 1879SOL    HW1 7534   2.652   7.173   1.884
 1879SOL    HW2 7535   2.658   7.022   1.880
 1880SOL     OW 7536  12.111  10.293   7.068
 1880SOL    HW1 7537  12.078  10.247   6.991
 1880SOL    HW2 7538  12.036  10.298   7.127
 1881SOL     OW 7539   9.319   2.429   7.254
 1881SOL    HW1 7540   9.260   2.459   7.184
 1881SOL    HW2 7541   9.384   2.376   7.208
 1882SOL     OW 7542   8.055  12.135   2.033
 1882SOL    HW1 7543   7.984  12.106   1.976
 1882SOL    HW2 7544   8.099  12.204   1.983
 1883SOL     OW 7545   7.438  12.235  10.588
 1883SOL    HW1 7546   7.375  12.171  10.622
 1883SOL    HW2 7547   7.412  12.317  10.629
 1884SOL     OW 7548  10.107   7.392   7.914
 1884SOL    HW1 7549  10.070   7.415   7.999
 1884SOL    HW2 7550  10.136   7.475   7.876
 1885SOL     OW 7551  12.777  13.569  14.379
 1885SOL    HW1 7552  12.812  13.627  14.447
 1885SOL    HW2 7553  12.813  13.603  14.297
 1886SOL     OW 7554  10.832   3.231  11.463
 1886SOL    HW1 7555  10.802   3.318  11.437
 1886SOL    HW2 7556  10.923   3.227  11.435
 1887SOL     OW 7557   8.497  11.070   9.885
 1887SOL    HW1 7558   8.430  11.020   9.839
 1887SOL    HW2 7559   8.460  11.086   9.972
 1888SOL     OW 7560   6.797   1.760   9.648
 1888SOL    HW1 7561   6.851   1.741   9.571
 1888SOL    HW2 7562   6.817   1.689   9.710
 1889SOL     OW 7563   6.511   7.533   7.241
 1889SOL    HW1 7564   6.447   7.561   7.307
 1889SOL    HW2 7565   6.492   7.588   7.165
 1890SOL     OW 7566  12.834   3.664   2.050
 1890SOL    HW1 7567  12.919   3.706   2.063
 1890SOL    HW2 7568  12.825   3.654   1.956
 1891SOL     OW 7569   8.163  14.307   0.543
 1891SOL    HW1 7570   8.176  14.293   0.450
 1891SOL    HW2 7571   8.073  14.278   0.560
 1892SOL     OW 7572   1.583   0.470   9.524
 1892SOL    HW1 7573   1.599   0.475   9.618
 1892SOL    HW2 7574   1.561   0.378   9.509
 1893SOL     OW 7575   2.312  10.408  11.062
 1893SOL    HW1 7576   2.286  10.327  11.105
 1893SOL    HW2 7577   2.364  10.454  11.128
 1894SOL     OW 7578   3.766   9.947   5.502
 1894SOL    HW1 7579   3.795   9.948   5.593
 1894SOL    HW2 7580   3.701   9.876   5.499
 1895SOL     OW 7581  12.218   3.272   7.199
 1895SOL    HW1 7582  12.158   3.226   7.257
 1895SOL    HW2 7583  12.192   3.243   7.111
 1896SOL     OW 7584   4.756   8.929  13.888
 1896SOL    HW1 7585   4.762   8.949  13.795
 1896SOL    HW2 7586   4.827   8.867  13.904
 1897SOL     OW 7587   3.779   7.648   7.301
 1897SOL    HW1 7588   3.696   7.652   7.253
 1897SOL    HW2 7589   3.813   7.561   7.280
 1898SOL     OW 7590   1.048   5.953   4.256
 1898SOL    HW1 7591   1.106   5.900   4.310
 1898SOL    HW2 7592   1.106   6.016   4.212
 1899SOL     OW 7593  10.200   3.211   0.463
 1899SOL    HW1 7594  10.214   3.289   0.516
 1899SOL    HW2 7595  10.209   3.241   0.373
 1900SOL     OW 7596  11.758  14.616  14.134
 1900SOL    HW1 7597  11.799  14.701  14.116
 1900SOL    HW2 7598  11.781  14.562  14.058
 1901SOL     OW 7599   0.694  12.713   3.794
 1901SOL    HW1 7600   0.673  12.726   3.886
 1901SOL    HW2 7601   0.763  12.777   3.776
 1902SOL     OW 7602   6.289   2.252   4.558
 1902SOL    HW1 7603   6.245   2.336   4.547
 1902SOL    HW2 7604   6.362   2.255   4.497
 1903SOL     OW 7605   8.888  12.223   7.682
 1903SOL    HW1 7606   8.901  12.317   7.680
 1903SOL    HW2 7607   8.904  12.197   7.773
 1904SOL     OW 7608   6.204   3.076   6.561
 1904SOL    HW1 7609   6.217   3.041   6.473
 1904SOL    HW2 7610   6.163   3.161   6.548
 1905SOL     OW 7611  11.649  13.245   0.432
 1905SOL    HW1 7612  11.676  13.257   0.524
 1905SOL    HW2 7613  11.613  13.330   0.407
 1906SOL     OW 7614   4.686   5.663   2.386
 1906SOL    HW1 7615   4.749   5.596   2.361
 1906SOL    HW2 7616   4.738   5.743   2.395
 1907SOL     OW 7617   6.185   6.803  12.637
 1907SOL    HW1 7618   6.133   6.868  12.589
 1907SOL    HW2 7619   6.260   6.786  12.580
 1908SOL     OW 7620  10.272   1.088   9.256
 1908SOL    HW1 7621  10.260   1.010   9.202
 1908SOL    HW2 7622  10.338   1.064   9.320
 1909SOL     OW 7623  11.285   6.204   7.967
 1909SOL    HW1 7624  11.237   6.126   7.938
 1909SOL    HW2 7625  11.293   6.193   8.061
 1910SOL     OW 7626   7.023   5.773   8.568
 1910SOL    HW1 7627   7.058   5.771   8.657
 1910SOL    HW2 7628   7.080   5.835   8.522
 1911SOL     OW 7629  14.133   7.719   0.919
 1911SOL    HW1 7630  14.058   7.751   0.970
 1911SOL    HW2 7631  14.182   7.665   0.981
 1912SOL     OW 7632   3.506  10.853   0.460
 1912SOL    HW1 7633   3.542  10.941   0.445
 1912SOL    HW2 7634   3.500  10.815   0.372
 1913SOL     OW 7635   6.185  12.597   6.119
 1913SOL    HW1 7636   6.129  12.650   6.176
 1913SOL    HW2 7637   6.246  12.660   6.080
 1914SOL     OW 7638   9.939   8.875  13.485
 1914SOL    HW1 7639   9.935   8.780  13.497
 1914SOL    HW2 7640  10.018   8.901  13.532
 1915SOL     OW 7641   1.289  12.945  12.436
 1915SOL    HW1 7642   1.299  12.960  12.343
 1915SOL    HW2 7643   1.361  12.993  12.477
 1916SOL     OW 7644   5.181   2.951   2.761
 1916SOL    HW1 7645   5.180   2.916   2.850
 1916SOL    HW2 7646   5.256   3.011   2.760
 1917SOL     OW 7647   8.383   9.426   2.064
 1917SOL    HW1 7648   8.435   9.416   1.984
 1917SOL    HW2 7649   8.405   9.349   2.117
 1918SOL     OW 7650  10.307   3.354   8.532
 1918SOL    HW1 7651  10.273   3.402   8.457
 1918SOL    HW2 7652  10.344   3.422   8.589
 1919SOL     OW 7653   4.743   9.734   7.095
 1919SOL    HW1 7654   4.656   9.745   7.058
 1919SOL    HW2 7655   4.751   9.804   7.160
 1920SOL     OW 7656   6.925   9.733   4.053
 1920SOL    HW1 7657   6.873   9.718   4.132
 1920SOL    HW2 7658   6.997   9.670   4.060
 1921SOL     OW 7659  14.552   3.434   0.123
 1921SOL    HW1 7660  14.530   3.378   0.197
 1921SOL    HW2 7661  14.643   3.413   0.102
 1922SOL     OW 7662  11.899  14.793   3.165
 1922SOL    HW1 7663  11.927   0.014   3.150
 1922SOL    HW2 7664  11.819  14.785   3.113
 1923SOL     OW 7665   6.786   7.326   2.223
 1923SOL    HW1 7666   6.871   7.291   2.250
 1923SOL    HW2 7667   6.749   7.364   2.303
 1924SOL     OW 7668   0.755   5.702   2.171
 1924SOL    HW1 7669   0.746   5.638   2.101
 1924SOL    HW2 7670   0.713   5.660   2.247
 1925SOL     OW 7671   3.720  10.012  10.425
 1925SOL    HW1 7672   3.718  10.060  10.342
 1925SOL    HW2 7673   3.801   9.961  10.421
 1926SOL     OW 7674  12.408   6.374   7.606
 1926SOL    HW1 7675  12.371   6.299   7.653
 1926SOL    HW2 7676  12.483   6.401   7.658
 1927SOL     OW 7677  14.267  10.550   8.796
 1927SOL    HW1 7678  14.321  10.629   8.794
 1927SOL    HW2 7679  14.260  10.524   8.704
 1928SOL     OW 7680   1.937  12.643  14.501
 1928SOL    HW1 7681   1.907  12.597  14.423
 1928SOL    HW2 7682   1.858  12.685  14.536
 1929SOL     OW 7683  11.939  10.639   1.838
 1929SOL    HW1 7684  11.978  10.562   1.880
 1929SOL    HW2 7685  11.871  10.668   1.899
 1930SOL     OW 7686   0.208   6.907  10.680
 1930SOL    HW1 7687   0.146   6.912  10.752
 1930SOL    HW2 7688   0.259   6.988  10.686
 1931SOL     OW 7689  12.325   9.448  10.380
 1931SOL    HW1 7690  12.291   9.414  10.463
 1931SOL    HW2 7691  12.386   9.517  10.405
 1932SOL     OW 7692   7.596  11.123   3.926
 1932SOL    HW1 7693   7.654  11.099   3.854
 1932SOL    HW2 7694   7.606  11.052   3.990
 1933SOL     OW 7695   4.421  10.707  11.276
 1933SOL    HW1 7696   4.502  10.720  11.226
 1933SOL    HW2 7697   4.361  10.665  11.213
 1934SOL     OW 7698   4.916   8.875   0.683
 1934SOL    HW1 7699   4.938   8.936   0.613
 1934SOL    HW2 7700   4.980   8.891   0.751
 1935SOL     OW 7701   1.074   6.910   8.977
 1935SOL    HW1 7702   1.089   6.990   8.927
 1935SOL    HW2 7703   1.156   6.894   9.023
 1936SOL     OW 7704  14.343   6.043   5.582
 1936SOL    HW1 7705  14.331   5.983   5.508
 1936SOL    HW2 7706  14.395   5.993   5.645
 1937SOL     OW 7707  14.728  12.608  13.302
 1937SOL    HW1 7708  14.744  12.573  13.215
 1937SOL    HW2 7709  14.676  12.541  13.346
 1938SOL     OW 7710   6.861  13.278  10.342
 1938SOL    HW1 7711   6.887  13.192  10.311
 1938SOL    HW2 7712   6.903  13.339  10.281
 1939SOL     OW 7713  14.280   1.206   5.836
 1939SOL    HW1 7714  14.327   1.227   5.755
 1939SOL    HW2 7715  14.213   1.143   5.809
 1940SOL     OW 7716   7.254  12.639   3.870
 1940SOL    HW1 7717   7.279  12.552   3.901
 1940SOL    HW2 7718   7.233  12.626   3.777
 1941SOL     OW 7719   6.979   0.542   2.584
 1941SOL    HW1 7720   7.039   0.553   2.657
 1941SOL    HW2 7721   6.910   0.607   2.598
 1942SOL     OW 7722   6.392   7.385   8.286
 1942SOL    HW1 7723   6.399   7.320   8.217
 1942SOL    HW2 7724   6.414   7.338   8.367
 1943SOL     OW 7725   5.357   7.152   4.571
 1943SOL    HW1 7726   5.399   7.110   4.497
 1943SOL    HW2 7727   5.412   7.226   4.592
 1944SOL     OW 7728   0.329   2.982  10.910
 1944SOL    HW1 7729   0.415   2.983  10.953
 1944SOL    HW2 7730   0.270   3.021  10.974
 1945SOL     OW 7731  11.371   3.810   6.341
 1945SOL    HW1 7732  11.430   3.802   6.416
 1945SOL    HW2 7733  11.357   3.720   6.312
 1946SOL     OW 7734   7.885   4.517   5.715
 1946SOL    HW1 7735   7.896   4.500   5.808
 1946SOL    HW2 7736   7.973   4.539   5.684
 1947SOL     OW 7737  13.868   8.756   2.995
 1947SOL    HW1 7738  13.906   8.669   3.009
 1947SOL    HW2 7739  13.787   8.755   3.045
 1948SOL     OW 7740   6.021  11.353  11.518
 1948SOL    HW1 7741   6.115  11.369  11.526
 1948SOL    HW2 7742   6.009  11.265  11.554
 1949SOL     OW 7743  14.032   3.517   1.810
 1949SOL    HW1 7744  13.997   3.524   1.899
 1949SOL    HW2 7745  14.030   3.424   1.791
 1950SOL     OW 7746   5.447   3.494  10.497
 1950SOL    HW1 7747   5.500   3.426  10.454
 1950SOL    HW2 7748   5.484   3.576  10.466
 1951SOL     OW 7749   9.501  14.781   5.322
 1951SOL    HW1 7750   9.553  14.709   5.284
 1951SOL    HW2 7751   9.559  14.857   5.316
 1952SOL     OW 7752   9.422   1.766   5.492
 1952SOL    HW1 7753   9.403   1.694   5.552
 1952SOL    HW2 7754   9.479   1.727   5.426
 1953SOL     OW 7755  13.911   8.122   5.635
 1953SOL    HW1 7756  13.997   8.166   5.629
 1953SOL    HW2 7757  13.878   8.124   5.545
 1954SOL     OW 7758   1.473  14.518   8.425
 1954SOL    HW1 7759   1.387  14.520   8.468
 1954SOL    HW2 7760   1.531  14.480   8.490
 1955SOL     OW 7761   5.616   9.901  14.089
 1955SOL    HW1 7762   5.527   9.915  14.057
 1955SOL    HW2 7763   5.664   9.978  14.059
 1956SOL     OW 7764   1.047   6.859  10.685
 1956SOL    HW1 7765   1.096   6.833  10.606
 1956SOL    HW2 7766   1.051   6.955  10.685
 1957SOL     OW 7767  14.404   5.410  11.726
 1957SOL    HW1 7768  14.381   5.438  11.815
 1957SOL    HW2 7769  14.499   5.403  11.727
 1958SOL     OW 7770  11.738   5.650   5.869
 1958SOL    HW1 7771  11.672   5.696   5.817
 1958SOL    HW2 7772  11.742   5.699   5.951
 1959SOL     OW 7773  11.450   3.298  12.082
 1959SOL    HW1 7774  11.386   3.303  12.011
 1959SOL    HW2 7775  11.455   3.387  12.116
 1960SOL     OW 7776  14.426   1.737   6.230
 1960SOL    HW1 7777  14.358   1.794   6.266
 1960SOL    HW2 7778  14.422   1.753   6.135
 1961SOL     OW 7779   4.069   0.747  11.447
 1961SOL    HW1 7780   3.996   0.701  11.489
 1961SOL    HW2 7781   4.147   0.703  11.482
 1962SOL     OW 7782  13.883  13.076   4.893
 1962SOL    HW1 7783  13.961  13.027   4.918
 1962SOL    HW2 7784  13.837  13.092   4.976
 1963SOL     OW 7785   1.726  11.675   8.174
 1963SOL    HW1 7786   1.662  11.676   8.103
 1963SOL    HW2 7787   1.796  11.618   8.143
 1964SOL     OW 7788   4.869   0.836   1.481
 1964SOL    HW1 7789   4.850   0.865   1.570
 1964SOL    HW2 7790   4.956   0.797   1.487
 1965SOL     OW 7791   4.762   2.773   7.496
 1965SOL    HW1 7792   4.772   2.685   7.461
 1965SOL    HW2 7793   4.834   2.823   7.458
 1966SOL     OW 7794  13.964   9.624   0.249
 1966SOL    HW1 7795  13.904   9.633   0.323
 1966SOL    HW2 7796  13.922   9.672   0.178
 1967SOL     OW 7797  12.326   5.067   1.371
 1967SOL    HW1 7798  12.357   5.003   1.307
 1967SOL    HW2 7799  12.315   5.148   1.321
 1968SOL     OW 7800   8.290   2.903   5.001
 1968SOL    HW1 7801   8.258   2.821   5.039
 1968SOL    HW2 7802   8.327   2.951   5.075
 1969SOL     OW 7803   7.060   4.718   9.533
 1969SOL    HW1 7804   7.151   4.736   9.554
 1969SOL    HW2 7805   7.020   4.693   9.616
 1970SOL     OW 7806  12.316   0.657   4.599
 1970SOL    HW1 7807  12.397   0.664   4.648
 1970SOL    HW2 7808  12.295   0.564   4.598
 1971SOL     OW 7809   1.006   1.837  11.359
 1971SOL    HW1 7810   1.064   1.900  11.401
 1971SOL    HW2 7811   0.932   1.890  11.328
 1972SOL     OW 7812  14.598   8.438  11.239
 1972SOL    HW1 7813  14.512   8.477  11.252
 1972SOL    HW2 7814  14.582   8.360  11.186
 1973SOL     OW 7815  13.198  13.033   1.155
 1973SOL    HW1 7816  13.274  13.047   1.099
 1973SOL    HW2 7817  13.223  12.959   1.211
 1974SOL     OW 7818   5.430   9.271   6.916
 1974SOL    HW1 7819   5.501   9.329   6.888
 1974SOL    HW2 7820   5.460   9.234   6.998
 1975SOL     OW 7821   7.050   7.408  12.872
 1975SOL    HW1 7822   7.120   7.454  12.918
 1975SOL    HW2 7823   6.978   7.471  12.869
 1976SOL     OW 7824   2.121   8.728   0.703
 1976SOL    HW1 7825   2.147   8.738   0.612
 1976SOL    HW2 7826   2.138   8.636   0.723
 1977SOL     OW 7827   8.654   4.245  13.167
 1977SOL    HW1 7828   8.723   4.308  13.188
 1977SOL    HW2 7829   8.700   4.163  13.152
 1978SOL     OW 7830   4.647   2.330   1.389
 1978SOL    HW1 7831   4.665   2.374   1.472
 1978SOL    HW2 7832   4.693   2.382   1.323
 1979SOL     OW 7833  12.441   4.405   8.057
 1979SOL    HW1 7834  12.531   4.376   8.039
 1979SOL    HW2 7835  12.427   4.381   8.149
 1980SOL     OW 7836  11.692   2.803   5.385
 1980SOL    HW1 7837  11.746   2.839   5.315
 1980SOL    HW2 7838  11.607   2.844   5.373
 1981SOL     OW 7839   8.982  10.832  10.167
 1981SOL    HW1 7840   9.000  10.816  10.074
 1981SOL    HW2 7841   8.994  10.927  10.177
 1982SOL     OW 7842  10.392   1.661   4.603
 1982SOL    HW1 7843  10.357   1.573   4.616
 1982SOL    HW2 7844  10.349   1.693   4.524
 1983SOL     OW 7845  14.024  11.932   6.923
 1983SOL    HW1 7846  13.956  11.925   6.856
 1983SOL    HW2 7847  14.102  11.961   6.876
 1984SOL     OW 7848  11.762  12.378   8.348
 1984SOL    HW1 7849  11.797  12.360   8.261
 1984SOL    HW2 7850  11.834  12.417   8.396
 1985SOL     OW 7851  14.809   3.556   6.050
 1985SOL    HW1 7852   0.001   3.495   6.010
 1985SOL    HW2 7853  14.744   3.500   6.093
 1986SOL     OW 7854   9.099   1.128   2.554
 1986SOL    HW1 7855   9.137   1.053   2.600
 1986SOL    HW2 7856   9.052   1.090   2.480
 1987SOL     OW 7857   0.707   0.504  11.853
 1987SOL    HW1 7858   0.622   0.464  11.872
 1987SOL    HW2 7859   0.745   0.522  11.938
 1988SOL     OW 7860   9.181  10.730   4.400
 1988SOL    HW1 7861   9.252  10.698   4.344
 1988SOL    HW2 7862   9.196  10.688   4.484
 1989SOL     OW 7863   4.821   7.079  11.837
 1989SOL    HW1 7864   4.899   7.107  11.885
 1989SOL    HW2 7865   4.795   7.157  11.787
 1990SOL     OW 7866   2.072   4.693   8.989
 1990SOL    HW1 7867   2.073   4.773   8.937
 1990SOL    HW2 7868   2.088   4.623   8.926
 1991SOL     OW 7869  12.113  13.484  11.644
 1991SOL    HW1 7870  12.107  13.529  11.560
 1991SOL    HW2 7871  12.050  13.413  11.638
 1992SOL     OW 7872  13.396  12.061   6.945
 1992SOL    HW1 7873  13.451  12.139   6.949
 1992SOL    HW2 7874  13.400  12.033   6.853
 1993SOL     OW 7875   3.624   9.766   1.128
 1993SOL    HW1 7876   3.608   9.721   1.210
 1993SOL    HW2 7877   3.700   9.822   1.145
 1994SOL     OW 7878   2.344   2.785   4.508
 1994SOL    HW1 7879   2.432   2.747   4.507
 1994SOL    HW2 7880   2.331   2.818   4.418
 1995SOL     OW 7881   8.215   5.328   8.511
 1995SOL    HW1 7882   8.298   5.292   8.479
 1995SOL    HW2 7883   8.174   5.255   8.557
 1996SOL     OW 7884   2.001   7.184   4.554
 1996SOL    HW1 7885   2.065   7.253   4.570
 1996SOL    HW2 7886   2.019   7.117   4.620
 1997SOL     OW 7887   1.773  13.756   3.120
 1997SOL    HW1 7888   1.863  13.759   3.088
 1997SOL    HW2 7889   1.721  13.733   3.042
 1998SOL     OW 7890   7.996  11.361   4.432
 1998SOL    HW1 7891   7.963  11.447   4.456
 1998SOL    HW2 7892   8.008  11.366   4.337
 1999SOL     OW 7893  14.235   2.342   7.384
 1999SOL    HW1 7894  14.292   2.415   7.360
 1999SOL    HW2 7895  14.276   2.305   7.462
 2000SOL     OW 7896  14.600  10.041  13.822
 2000SOL    HW1 7897  14.617  10.006  13.735
 2000SOL    HW2 7898  14.674  10.100  13.839
 2001SOL     OW 7899   8.575   7.914  10.268
 2001SOL    HW1 7900   8.634   7.887  10.197
 2001SOL    HW2 7901   8.626   7.977  10.318
 2002SOL     OW 7902   1.372   3.385   3.594
 2002SOL    HW1 7903   1.426   3.347   3.663
 2002SOL    HW2 7904   1.295   3.328   3.591
 2003SOL     OW 7905  12.782  13.120   3.631
 2003SOL    HW1 7906  12.839  13.183   3.675
 2003SOL    HW2 7907  12.734  13.078   3.701
 2004SOL     OW 7908   9.245  11.479   6.550
 2004SOL    HW1 7909   9.158  11.515   6.566
 2004SOL    HW2 7910   9.242  11.391   6.586
 2005SOL     OW 7911   4.704  13.073  10.699
 2005SOL    HW1 7912   4.716  13.040  10.610
 2005SOL    HW2 7913   4.791  13.107  10.724
 2006SOL     OW 7914   0.191  14.339   2.873
 2006SOL    HW1 7915   0.195  14.247   2.899
 2006SOL    HW2 7916   0.273  14.376   2.908
 2007SOL     OW 7917  10.592   1.840  10.973
 2007SOL    HW1 7918  10.547   1.922  10.953
 2007SOL    HW2 7919  10.526   1.772  10.958
 2008SOL     OW 7920   3.933   4.099   0.410
 2008SOL    HW1 7921   3.987   4.108   0.489
 2008SOL    HW2 7922   3.843   4.099   0.442
 2009SOL     OW 7923   0.792   1.022   4.915
 2009SOL    HW1 7924   0.709   1.062   4.942
 2009SOL    HW2 7925   0.831   1.087   4.857
 2010SOL     OW 7926   8.880   6.529   8.043
 2010SOL    HW1 7927   8.876   6.617   8.005
 2010SOL    HW2 7928   8.971   6.518   8.071
 2011SOL     OW 7929   4.886   8.586   0.665
 2011SOL    HW1 7930   4.910   8.595   0.572
 2011SOL    HW2 7931   4.876   8.677   0.695
 2012SOL     OW 7932   2.430   6.068   7.251
 2012SOL    HW1 7933   2.455   6.069   7.159
 2012SOL    HW2 7934   2.489   6.130   7.293
 2013SOL     OW 7935  12.940   6.613  12.591
 2013SOL    HW1 7936  12.907   6.526  12.615
 2013SOL    HW2 7937  13.035   6.604  12.589
 2014SOL     OW 7938   4.546   5.334   8.239
 2014SOL    HW1 7939   4.629   5.300   8.272
 2014SOL    HW2 7940   4.567   5.423   8.210
 2015SOL     OW 7941  10.662  10.367   2.906
 2015SOL    HW1 7942  10.729  10.393   2.843
 2015SOL    HW2 7943  10.686  10.412   2.987
 2016SOL     OW 7944   6.054   6.025   4.098
 2016SOL    HW1 7945   6.037   6.111   4.136
 2016SOL    HW2 7946   5.969   5.981   4.097
 2017SOL     OW 7947   9.476   8.206   7.510
 2017SOL    HW1 7948   9.401   8.150   7.490
 2017SOL    HW2 7949   9.439   8.280   7.558
 2018SOL     OW 7950   1.115   9.630   0.869
 2018SOL    HW1 7951   1.022   9.610   0.884
 2018SOL    HW2 7952   1.148   9.653   0.956
 2019SOL     OW 7953   1.283   7.805  10.718
 2019SOL    HW1 7954   1.349   7.796  10.649
 2019SOL    HW2 7955   1.296   7.894  10.752
 2020SOL     OW 7956   5.659   5.296  13.633
 2020SOL    HW1 7957   5.742   5.341  13.653
 2020SOL    HW2 7958   5.683   5.230  13.568
 2021SOL     OW 7959   0.282  12.460  13.003
 2021SOL    HW1 7960   0.369  12.483  12.969
 2021SOL    HW2 7961   0.296  12.378  13.052
 2022SOL     OW 7962   2.801   7.241   9.331
 2022SOL    HW1 7963   2.857   7.319   9.337
 2022SOL    HW2 7964   2.713   7.276   9.317
 2023SOL     OW 7965   7.726  10.636   9.475
 2023SOL    HW1 7966   7.803  10.592   9.511
 2023SOL    HW2 7967   7.744  10.641   9.381
 2024SOL     OW 7968   0.618   5.853  12.777
 2024SOL    HW1 7969   0.542   5.911  12.774
 2024SOL    HW2 7970   0.655   5.857  12.689
 2025SOL     OW 7971  14.282   2.141   9.082
 2025SOL    HW1 7972  14.319   2.082   9.016
 2025SOL    HW2 7973  14.188   2.122   9.080
 2026SOL     OW 7974   5.201   9.946  11.514
 2026SOL    HW1 7975   5.121   9.998  11.522
 2026SOL    HW2 7976   5.185   9.870  11.570
 2027SOL     OW 7977   3.113   0.678  12.650
 2027SOL    HW1 7978   3.087   0.646  12.563
 2027SOL    HW2 7979   3.049   0.640  12.709
 2028SOL     OW 7980   3.741  12.157   2.074
 2028SOL    HW1 7981   3.776  12.102   2.145
 2028SOL    HW2 7982   3.688  12.097   2.021
 2029SOL     OW 7983   6.607   7.555   9.943
 2029SOL    HW1 7984   6.589   7.622  10.009
 2029SOL    HW2 7985   6.702   7.546   9.943
 2030SOL     OW 7986   0.352   6.407   1.001
 2030SOL    HW1 7987   0.427   6.429   0.946
 2030SOL    HW2 7988   0.300   6.348   0.948
 2031SOL     OW 7989   7.801   6.143   0.327
 2031SOL    HW1 7990   7.781   6.152   0.234
 2031SOL    HW2 7991   7.828   6.231   0.354
 2032SOL     OW 7992   6.541   7.066   6.084
 2032SOL    HW1 7993   6.600   7.097   6.152
 2032SOL    HW2 7994   6.500   6.987   6.121
 2033SOL     OW 7995  11.003   9.558   1.032
 2033SOL    HW1 7996  11.042   9.645   1.017
 2033SOL    HW2 7997  11.075   9.505   1.064
 2034SOL     OW 7998   9.315   1.111   4.287
 2034SOL    HW1 7999   9.278   1.050   4.223
 2034SOL    HW2 8000   9.263   1.191   4.277
 2035SOL     OW 8001   1.891  12.773   5.013
 2035SOL    HW1 8002   1.890  12.701   5.076
 2035SOL    HW2 8003   1.888  12.731   4.927
 2036SOL     OW 8004  12.008   2.042   1.711
 2036SOL    HW1 8005  11.922   2.041   1.755
 2036SOL    HW2 8006  12.003   2.118   1.652
 2037SOL     OW 8007  10.188  12.317   1.439
 2037SOL    HW1 8008  10.111  12.356   1.396
 2037SOL    HW2 8009  10.153  12.244   1.489
 2038SOL     OW 8010   4.459   1.139   4.752
 2038SOL    HW1 8011   4.505   1.058   4.728
 2038SOL    HW2 8012   4.367   1.113   4.758
 2039SOL     OW 8013  12.519   0.361  13.723
 2039SOL    HW1 8014  12.493   0.411  13.645
 2039SOL    HW2 8015  12.572   0.422  13.774
 2040SOL     OW 8016   4.169  14.156   5.638
 2040SOL    HW1 8017   4.252  14.194   5.667
 2040SOL    HW2 8018   4.134  14.220   5.575
 2041SOL     OW 8019   2.459   6.021   6.959
 2041SOL    HW1 8020   2.482   6.087   6.893
 2041SOL    HW2 8021   2.438   5.943   6.909
 2042SOL     OW 8022  12.706   4.560   5.800
 2042SOL    HW1 8023  12.773   4.492   5.796
 2042SOL    HW2 8024  12.672   4.556   5.890
 2043SOL     OW 8025  13.158   7.943  12.579
 2043SOL    HW1 8026  13.063   7.940  12.588
 2043SOL    HW2 8027  13.177   8.032  12.550
 2044SOL     OW 8028  11.981  12.790  12.650
 2044SOL    HW1 8029  11.934  12.711  12.626
 2044SOL    HW2 8030  12.022  12.770  12.734
 2045SOL     OW 8031   1.589   3.164   8.815
 2045SOL    HW1 8032   1.548   3.098   8.871
 2045SOL    HW2 8033   1.682   3.139   8.814
 2046SOL     OW 8034  14.314   0.755   9.188
 2046SOL    HW1 8035  14.232   0.710   9.167
 2046SOL    HW2 8036  14.287   0.839   9.226
 2047SOL     OW 8037   3.384   4.877  10.188
 2047SOL    HW1 8038   3.454   4.871  10.253
 2047SOL    HW2 8039   3.315   4.928  10.231
 2048SOL     OW 8040   8.221  11.141   9.456
 2048SOL    HW1 8041   8.229  11.236   9.462
 2048SOL    HW2 8042   8.127  11.124   9.457
 2049SOL     OW 8043   0.488   2.964   2.884
 2049SOL    HW1 8044   0.458   2.887   2.836
 2049SOL    HW2 8045   0.583   2.964   2.873
 2050SOL     OW 8046   0.282   7.777   4.675
 2050SOL    HW1 8047   0.341   7.743   4.608
 2050SOL    HW2 8048   0.340   7.815   4.741
 2051SOL     OW 8049   3.013   0.032   5.030
 2051SOL    HW1 8050   2.983   0.028   4.940
 2051SOL    HW2 8051   3.107   0.051   5.023
 2052SOL     OW 8052   7.846   5.797   3.201
 2052SOL    HW1 8053   7.924   5.750   3.171
 2052SOL    HW2 8054   7.866   5.820   3.292
 2053SOL     OW 8055   9.276  13.239  14.310
 2053SOL    HW1 8056   9.309  13.322  14.345
 2053SOL    HW2 8057   9.301  13.174  14.375
 2054SOL     OW 8058   9.245  12.633   5.868
 2054SOL    HW1 8059   9.299  12.555   5.850
 2054SOL    HW2 8060   9.308  12.699   5.897
 2055SOL     OW 8061  13.584   4.321   4.010
 2055SOL    HW1 8062  13.567   4.408   3.975
 2055SOL    HW2 8063  13.670   4.298   3.975
 2056SOL     OW 8064   6.978   0.636   5.904
 2056SOL    HW1 8065   6.963   0.700   5.973
 2056SOL    HW2 8066   6.984   0.687   5.824
 2057SOL     OW 8067  14.473   9.509  10.456
 2057SOL    HW1 8068  14.503   9.451  10.386
 2057SOL    HW2 8069  14.398   9.463  10.494
 2058SOL     OW 8070   3.947   2.043   6.297
 2058SOL    HW1 8071   3.998   1.967   6.269
 2058SOL    HW2 8072   4.012   2.110   6.314
 2059SOL     OW 8073   6.385   1.851  10.607
 2059SOL    HW1 8074   6.372   1.942  10.581
 2059SOL    HW2 8075   6.319   1.802  10.559
 2060SOL     OW 8076   6.578  11.237   6.326
 2060SOL    HW1 8077   6.548  11.148   6.345
 2060SOL    HW2 8078   6.569  11.284   6.408
 2061SOL     OW 8079   9.819   2.681   6.726
 2061SOL    HW1 8080   9.866   2.730   6.659
 2061SOL    HW2 8081   9.838   2.728   6.807
 2062SOL     OW 8082   6.167  14.636   8.610
 2062SOL    HW1 8083   6.238  14.595   8.560
 2062SOL    HW2 8084   6.144  14.713   8.560
 2063SOL     OW 8085   6.495   3.374   2.533
 2063SOL    HW1 8086   6.567   3.437   2.538
 2063SOL    HW2 8087   6.417   3.425   2.557
 2064SOL     OW 8088  12.273  10.126   5.854
 2064SOL    HW1 8089  12.198  10.091   5.902
 2064SOL    HW2 8090  12.250  10.218   5.837
 2065SOL     OW 8091   2.944  10.719  14.453
 2065SOL    HW1 8092   2.854  10.705  14.424
 2065SOL    HW2 8093   2.944  10.809  14.486
 2066SOL     OW 8094   5.650   7.415   6.106
 2066SOL    HW1 8095   5.617   7.438   6.193
 2066SOL    HW2 8096   5.581   7.363   6.067
 2067SOL     OW 8097   4.309  13.582   9.094
 2067SOL    HW1 8098   4.318  13.595   8.999
 2067SOL    HW2 8099   4.253  13.505   9.102
 2068SOL     OW 8100  10.944   5.418  14.332
 2068SOL    HW1 8101  10.931   5.442  14.240
 2068SOL    HW2 8102  11.013   5.351  14.331
 2069SOL     OW 8103  11.987   3.599  14.593
 2069SOL    HW1 8104  11.983   3.695  14.587
 2069SOL    HW2 8105  11.991   3.582  14.687
 2070SOL     OW 8106   2.696   3.772   1.116
 2070SOL    HW1 8107   2.654   3.701   1.068
 2070SOL    HW2 8108   2.782   3.737   1.139
 2071SOL     OW 8109   3.490  11.044   1.632
 2071SOL    HW1 8110   3.491  11.039   1.728
 2071SOL    HW2 8111   3.551  11.115   1.611
 2072SOL     OW 8112   5.787   1.562   4.491
 2072SOL    HW1 8113   5.806   1.544   4.584
 2072SOL    HW2 8114   5.694   1.540   4.481
 2073SOL     OW 8115  13.799   4.303   0.983
 2073SOL    HW1 8116  13.764   4.330   1.068
 2073SOL    HW2 8117  13.882   4.259   1.003
 2074SOL     OW 8118  11.766  14.219  14.648
 2074SOL    HW1 8119  11.804  14.150  14.594
 2074SOL    HW2 8120  11.818  14.297  14.626
 2075SOL     OW 8121   0.350  10.284  13.894
 2075SOL    HW1 8122   0.338  10.244  13.808
 2075SOL    HW2 8123   0.366  10.211  13.953
 2076SOL     OW 8124   2.201  12.285  14.410
 2076SOL    HW1 8125   2.229  12.348  14.344
 2076SOL    HW2 8126   2.239  12.201  14.382
 2077SOL     OW 8127   2.495   8.995  10.439
 2077SOL    HW1 8128   2.432   9.063  10.415
 2077SOL    HW2 8129   2.442   8.915  10.446
 2078SOL     OW 8130   9.023   5.285   6.212
 2078SOL    HW1 8131   9.097   5.269   6.153
 2078SOL    HW2 8132   9.012   5.380   6.212
 2079SOL     OW 8133   0.816  10.830  11.424
 2079SOL    HW1 8134   0.725  10.857  11.430
 2079SOL    HW2 8135   0.865  10.912  11.416
 2080SOL     OW 8136   4.480   5.086   5.798
 2080SOL    HW1 8137   4.452   5.041   5.878
 2080SOL    HW2 8138   4.419   5.056   5.731
 2081SOL     OW 8139  11.784   3.705   1.299
 2081SOL    HW1 8140  11.809   3.651   1.225
 2081SOL    HW2 8141  11.812   3.655   1.376
 2082SOL     OW 8142  13.158   2.221   9.051
 2082SOL    HW1 8143  13.084   2.242   8.993
 2082SOL    HW2 8144  13.201   2.305   9.065
 2083SOL     OW 8145   8.803   3.871  11.651
 2083SOL    HW1 8146   8.796   3.896  11.559
 2083SOL    HW2 8147   8.734   3.921  11.695
 2084SOL     OW 8148   4.009  14.185   3.254
 2084SOL    HW1 8149   3.977  14.097   3.275
 2084SOL    HW2 8150   4.003  14.233   3.336
 2085SOL     OW 8151  14.815  13.602   3.983
 2085SOL    HW1 8152  14.724  13.600   3.954
 2085SOL    HW2 8153  14.856  13.670   3.929
 2086SOL     OW 8154  11.861  10.801   5.157
 2086SOL    HW1 8155  11.922  10.832   5.090
 2086SOL    HW2 8156  11.823  10.882   5.192
 2087SOL     OW 8157   2.321  11.471  13.211
 2087SOL    HW1 8158   2.266  11.514  13.146
 2087SOL    HW2 8159   2.261  11.417  13.262
 2088SOL     OW 8160   7.475   3.088   6.013
 2088SOL    HW1 8161   7.520   3.066   5.931
 2088SOL    HW2 8162   7.406   3.022   6.021
 2089SOL     OW 8163   9.938  12.416   8.889
 2089SOL    HW1 8164   9.906  12.330   8.919
 2089SOL    HW2 8165   9.934  12.471   8.967
 2090SOL     OW 8166   7.380   4.530   4.967
 2090SOL    HW1 8167   7.432   4.582   5.028
 2090SOL    HW2 8168   7.345   4.459   5.020
 2091SOL     OW 8169   8.258   7.128  11.213
 2091SOL    HW1 8170   8.311   7.173  11.147
 2091SOL    HW2 8171   8.310   7.051  11.236
 2092SOL     OW 8172  14.018   5.446  13.305
 2092SOL    HW1 8173  13.979   5.523  13.264
 2092SOL    HW2 8174  14.027   5.468  13.397
 2093SOL     OW 8175   1.434   3.038   7.229
 2093SOL    HW1 8176   1.487   2.959   7.219
 2093SOL    HW2 8177   1.353   3.007   7.269
 2094SOL     OW 8178   6.121   9.209  11.768
 2094SOL    HW1 8179   6.145   9.116  11.768
 2094SOL    HW2 8180   6.061   9.219  11.695
 2095SOL     OW 8181   1.810  13.334  11.425
 2095SOL    HW1 8182   1.869  13.372  11.491
 2095SOL    HW2 8183   1.737  13.396  11.420
 2096SOL     OW 8184  14.370   9.171   8.429
 2096SOL    HW1 8185  14.433   9.109   8.392
 2096SOL    HW2 8186  14.400   9.256   8.398
 2097SOL     OW 8187  14.796   0.086  14.480
 2097SOL    HW1 8188  14.822   0.023  14.413
 2097SOL    HW2 8189  14.780   0.168  14.433
 2098SOL     OW 8190  10.246   1.049  14.338
 2098SOL    HW1 8191  10.278   0.980  14.396
 2098SOL    HW2 8192  10.315   1.116  14.341
 2099SOL     OW 8193   1.683   5.198   9.077
 2099SOL    HW1 8194   1.699   5.131   9.144
 2099SOL    HW2 8195   1.770   5.229   9.052
 2100SOL     OW 8196   6.102   2.068   9.824
 2100SOL    HW1 8197   6.175   2.030   9.774
 2100SOL    HW2 8198   6.143   2.134   9.880
 2101SOL     OW 8199   9.103   7.734   6.028
 2101SOL    HW1 8200   9.075   7.662   6.084
 2101SOL    HW2 8201   9.187   7.705   5.992
 2102SOL     OW 8202   1.103   6.314   6.273
 2102SOL    HW1 8203   1.185   6.324   6.322
 2102SOL    HW2 8204   1.035   6.315   6.339
 2103SOL     OW 8205   9.748  12.553  11.768
 2103SOL    HW1 8206   9.766  12.643  11.795
 2103SOL    HW2 8207   9.774  12.500  11.843
 2104SOL     OW 8208   1.162   0.987   6.795
 2104SOL    HW1 8209   1.135   1.078   6.778
 2104SOL    HW2 8210   1.083   0.935   6.779
 2105SOL     OW 8211  12.749   6.869   4.070
 2105SOL    HW1 8212  12.712   6.818   3.998
 2105SOL    HW2 8213  12.725   6.960   4.051
 2106SOL     OW 8214  11.018   1.162   1.059
 2106SOL    HW1 8215  10.967   1.133   0.984
 2106SOL    HW2 8216  11.064   1.240   1.029
 2107SOL     OW 8217   2.642  14.058  14.541
 2107SOL    HW1 8218   2.682  14.008  14.612
 2107SOL    HW2 8219   2.621  13.992  14.474
 2108SOL     OW 8220  11.511   1.259  14.139
 2108SOL    HW1 8221  11.483   1.176  14.178
 2108SOL    HW2 8222  11.455   1.270  14.062
 2109SOL     OW 8223   3.231  13.143   9.842
 2109SOL    HW1 8224   3.169  13.170   9.775
 2109SOL    HW2 8225   3.316  13.143   9.798
 2110SOL     OW 8226   2.245   1.887   5.330
 2110SOL    HW1 8227   2.178   1.885   5.399
 2110SOL    HW2 8228   2.281   1.798   5.329
 2111SOL     OW 8229   5.502   5.719  12.842
 2111SOL    HW1 8230   5.575   5.717  12.905
 2111SOL    HW2 8231   5.433   5.668  12.885
 2112SOL     OW 8232  11.253   0.211   9.810
 2112SOL    HW1 8233  11.203   0.144   9.764
 2112SOL    HW2 8234  11.340   0.171   9.823
 2113SOL     OW 8235   1.444   5.627  11.686
 2113SOL    HW1 8236   1.446   5.563  11.614
 2113SOL    HW2 8237   1.350   5.639  11.704
 2114SOL     OW 8238   0.423  13.505  12.622
 2114SOL    HW1 8239   0.492  13.449  12.587
 2114SOL    HW2 8240   0.426  13.490  12.716
 2115SOL     OW 8241   8.573   6.761  11.815
 2115SOL    HW1 8242   8.520   6.767  11.894
 2115SOL    HW2 8243   8.607   6.671  11.816
 2116SOL     OW 8244   2.582   6.083  14.431
 2116SOL    HW1 8245   2.595   6.034  14.512
 2116SOL    HW2 8246   2.518   6.031  14.382
 2117SOL     OW 8247   0.449  12.849   5.953
 2117SOL    HW1 8248   0.434  12.754   5.944
 2117SOL    HW2 8249   0.542  12.856   5.977
 2118SOL     OW 8250   7.629   7.239   8.729
 2118SOL    HW1 8251   7.551   7.184   8.731
 2118SOL    HW2 8252   7.672   7.218   8.647
 2119SOL     OW 8253  10.971  11.265  10.027
 2119SOL    HW1 8254  10.906  11.249  10.096
 2119SOL    HW2 8255  10.920  11.300   9.954
 2120SOL     OW 8256  12.523   8.764   7.330
 2120SOL    HW1 8257  12.593   8.745   7.392
 2120SOL    HW2 8258  12.481   8.680   7.313
 2121SOL     OW 8259   3.792   5.343   7.680
 2121SOL    HW1 8260   3.730   5.388   7.623
 2121SOL    HW2 8261   3.758   5.254   7.687
 2122SOL     OW 8262   7.483   7.989   2.402
 2122SOL    HW1 8263   7.567   7.977   2.446
 2122SOL    HW2 8264   7.435   8.052   2.457
 2123SOL     OW 8265  12.260  11.794   7.295
 2123SOL    HW1 8266  12.189  11.853   7.322
 2123SOL    HW2 8267  12.215  11.723   7.248
 2124SOL     OW 8268   6.609   9.261   6.823
 2124SOL    HW1 8269   6.673   9.201   6.784
 2124SOL    HW2 8270   6.525   9.233   6.787
 2125SOL     OW 8271   0.239   3.287   5.602
 2125SOL    HW1 8272   0.181   3.238   5.545
 2125SOL    HW2 8273   0.325   3.249   5.587
 2126SOL     OW 8274   2.938   7.417   7.188
 2126SOL    HW1 8275   2.908   7.403   7.098
 2126SOL    HW2 8276   2.932   7.511   7.201
 2127SOL     OW 8277   3.711  14.128   9.685
 2127SOL    HW1 8278   3.790  14.151   9.636
 2127SOL    HW2 8279   3.722  14.170   9.770
 2128SOL     OW 8280   5.263  11.250   4.854
 2128SOL    HW1 8281   5.263  11.182   4.922
 2128SOL    HW2 8282   5.170  11.268   4.838
 2129SOL     OW 8283  11.369  12.219   4.259
 2129SOL    HW1 8284  11.444  12.163   4.278
 2129SOL    HW2 8285  11.332  12.184   4.178
 2130SOL     OW 8286   9.361   0.937  11.611
 2130SOL    HW1 8287   9.435   0.993  11.590
 2130SOL    HW2 8288   9.376   0.908  11.701
 2131SOL     OW 8289   3.396   5.566   2.123
 2131SOL    HW1 8290   3.391   5.502   2.052
 2131SOL    HW2 8291   3.433   5.644   2.082
 2132SOL     OW 8292   0.503   8.786  10.811
 2132SOL    HW1 8293   0.572   8.744  10.863
 2132SOL    HW2 8294   0.531   8.877  10.802
 2133SOL     OW 8295  10.606   5.400   6.016
 2133SOL    HW1 8296  10.578   5.387   6.107
 2133SOL    HW2 8297  10.669   5.472   6.021
 2134SOL     OW 8298   0.529  10.577  14.091
 2134SOL    HW1 8299   0.526  10.672  14.101
 2134SOL    HW2 8300   0.538  10.544  14.181
 2135SOL     OW 8301   4.290   1.023   8.698
 2135SOL    HW1 8302   4.365   1.010   8.640
 2135SOL    HW2 8303   4.244   0.939   8.696
 2136SOL     OW 8304   6.967   3.460  14.724
 2136SOL    HW1 8305   7.039   3.423  14.775
 2136SOL    HW2 8306   6.894   3.464  14.785
 2137SOL     OW 8307  11.551   7.147   0.321
 2137SOL    HW1 8308  11.642   7.152   0.350
 2137SOL    HW2 8309  11.499   7.152   0.401
 2138SOL     OW 8310   3.237   6.936   5.665
 2138SOL    HW1 8311   3.162   6.991   5.640
 2138SOL    HW2 8312   3.283   6.920   5.582
 2139SOL     OW 8313  14.761   8.033   5.135
 2139SOL    HW1 8314  14.850   8.026   5.101
 2139SOL    HW2 8315  14.715   8.086   5.070
 2140SOL     OW 8316   9.813  10.352   6.023
 2140SOL    HW1 8317   9.806  10.395   5.938
 2140SOL    HW2 8318   9.765  10.270   6.012
 2141SOL     OW 8319  13.556   6.777   4.115
 2141SOL    HW1 8320  13.563   6.819   4.029
 2141SOL    HW2 8321  13.622   6.820   4.169
 2142SOL     OW 8322   5.013   8.302   5.374
 2142SOL    HW1 8323   5.006   8.394   5.398
 2142SOL    HW2 8324   4.935   8.261   5.411
 2143SOL     OW 8325   0.494  12.234  14.840
 2143SOL    HW1 8326   0.446  12.270   0.044
 2143SOL    HW2 8327   0.586  12.246  14.863
 2144SOL     OW 8328   9.911   9.004  10.834
 2144SOL    HW1 8329   9.890   8.928  10.779
 2144SOL    HW2 8330   9.836   9.062  10.825
 2145SOL     OW 8331   4.115  14.318   1.718
 2145SOL    HW1 8332   4.195  14.298   1.767
 2145SOL    HW2 8333   4.088  14.404   1.750
 2146SOL     OW 8334  11.199   6.101   9.678
 2146SOL    HW1 8335  11.142   6.093   9.602
 2146SOL    HW2 8336  11.199   6.015   9.718
 2147SOL     OW 8337   9.007  12.198  14.079
 2147SOL    HW1 8338   8.914  12.221  14.078
 2147SOL    HW2 8339   9.025  12.170  14.168
 2148SOL     OW 8340   0.032  11.544   9.125
 2148SOL    HW1 8341   0.030  11.504   9.038
 2148SOL    HW2 8342   0.046  11.637   9.108
 2149SOL     OW 8343   2.245   4.434   8.849
 2149SOL    HW1 8344   2.305   4.456   8.778
 2149SOL    HW2 8345   2.297   4.383   8.910
 2150SOL     OW 8346   8.278   1.003   8.333
 2150SOL    HW1 8347   8.297   1.026   8.424
 2150SOL    HW2 8348   8.228   1.078   8.300
 2151SOL     OW 8349   1.561  14.779   6.913
 2151SOL    HW1 8350   1.598  14.705   6.864
 2151SOL    HW2 8351   1.573  14.855   6.856
 2152SOL     OW 8352   2.177  11.005  10.867
 2152SOL    HW1 8353   2.221  10.932  10.912
 2152SOL    HW2 8354   2.198  10.993  10.775
 2153SOL     OW 8355   7.879   2.221   7.935
 2153SOL    HW1 8356   7.814   2.200   7.868
 2153SOL    HW2 8357   7.961   2.186   7.901
 2154SOL     OW 8358   9.422   4.422   5.608
 2154SOL    HW1 8359   9.513   4.450   5.613
 2154SOL    HW2 8360   9.397   4.437   5.517
 2155SOL     OW 8361   6.705   3.380  14.115
 2155SOL    HW1 8362   6.726   3.295  14.076
 2155SOL    HW2 8363   6.677   3.434  14.041
 2156SOL     OW 8364   5.326   5.244   3.455
 2156SOL    HW1 8365   5.255   5.300   3.423
 2156SOL    HW2 8366   5.405   5.295   3.441
 2157SOL     OW 8367   9.959  13.992   5.782
 2157SOL    HW1 8368   9.951  14.085   5.806
 2157SOL    HW2 8369   9.913  13.945   5.851
 2158SOL     OW 8370  12.459   2.171   4.018
 2158SOL    HW1 8371  12.489   2.215   4.097
 2158SOL    HW2 8372  12.511   2.209   3.947
 2159SOL     OW 8373  14.596   7.283   1.708
 2159SOL    HW1 8374  14.505   7.305   1.685
 2159SOL    HW2 8375  14.647   7.314   1.634
 2160SOL     OW 8376   9.626   8.957   1.550
 2160SOL    HW1 8377   9.647   8.865   1.540
 2160SOL    HW2 8378   9.582   8.963   1.635
 2161SOL     OW 8379  10.215   1.700   4.921
 2161SOL    HW1 8380  10.148   1.661   4.977
 2161SOL    HW2 8381  10.197   1.664   4.834
 2162SOL     OW 8382   8.833   9.927  10.994
 2162SOL    HW1 8383   8.806   9.929  10.903
 2162SOL    HW2 8384   8.776   9.990  11.038
 2163SOL     OW 8385   1.589   0.771   9.584
 2163SOL    HW1 8386   1.506   0.724   9.576
 2163SOL    HW2 8387   1.653   0.715   9.540
 2164SOL     OW 8388   5.872  12.077  14.657
 2164SOL    HW1 8389   5.892  12.112  14.571
 2164SOL    HW2 8390   5.795  12.126  14.686
 2165SOL     OW 8391   2.938   8.865   8.324
 2165SOL    HW1 8392   2.952   8.941   8.266
 2165SOL    HW2 8393   2.873   8.895   8.387
 2166SOL     OW 8394   6.529  13.463   0.806
 2166SOL    HW1 8395   6.556  13.471   0.715
 2166SOL    HW2 8396   6.443  13.420   0.802
 2167SOL     OW 8397   6.284   2.633   6.587
 2167SOL    HW1 8398   6.283   2.625   6.491
 2167SOL    HW2 8399   6.343   2.564   6.616
 2168SOL     OW 8400   9.153   5.859  12.100
 2168SOL    HW1 8401   9.100   5.827  12.173
 2168SOL    HW2 8402   9.104   5.934  12.066
 2169SOL     OW 8403  12.675  10.487   4.383
 2169SOL    HW1 8404  12.617  10.490   4.307
 2169SOL    HW2 8405  12.654  10.404   4.426
 2170SOL     OW 8406   9.272   2.900   5.130
 2170SOL    HW1 8407   9.287   2.811   5.163
 2170SOL    HW2 8408   9.359   2.932   5.105
 2171SOL     OW 8409   8.649  14.668  12.302
 2171SOL    HW1 8410   8.629  14.590  12.251
 2171SOL    HW2 8411   8.727  14.645  12.352
 2172SOL     OW 8412   2.632   5.916   1.567
 2172SOL    HW1 8413   2.633   5.890   1.659
 2172SOL    HW2 8414   2.539   5.930   1.548
 2173SOL     OW 8415   3.626  13.823   5.448
 2173SOL    HW1 8416   3.540  13.790   5.423
 2173SOL    HW2 8417   3.688  13.769   5.399
 2174SOL     OW 8418   1.250   7.735  14.000
 2174SOL    HW1 8419   1.224   7.765  13.913
 2174SOL    HW2 8420   1.197   7.789  14.060
 2175SOL     OW 8421   1.615  10.611   8.230
 2175SOL    HW1 8422   1.552  10.657   8.175
 2175SOL    HW2 8423   1.622  10.524   8.192
 2176SOL     OW 8424  14.138  11.485   5.850
 2176SOL    HW1 8425  14.055  11.531   5.861
 2176SOL    HW2 8426  14.128  11.404   5.900
 2177SOL     OW 8427  11.542   4.394  14.730
 2177SOL    HW1 8428  11.479   4.460  14.761
 2177SOL    HW2 8429  11.615   4.400  14.792
 2178SOL     OW 8430   6.197   5.628  12.658
 2178SOL    HW1 8431   6.204   5.540  12.622
 2178SOL    HW2 8432   6.267   5.632  12.724
 2179SOL     OW 8433  10.135  13.136   6.218
 2179SOL    HW1 8434  10.132  13.053   6.170
 2179SOL    HW2 8435  10.222  13.137   6.258
 2180SOL     OW 8436   6.509   4.694   3.641
 2180SOL    HW1 8437   6.553   4.731   3.718
 2180SOL    HW2 8438   6.549   4.739   3.567
 2181SOL     OW 8439   1.914   8.908   3.009
 2181SOL    HW1 8440   1.896   8.824   3.052
 2181SOL    HW2 8441   1.964   8.885   2.931
 2182SOL     OW 8442   8.472  12.190   1.679
 2182SOL    HW1 8443   8.463  12.285   1.684
 2182SOL    HW2 8444   8.441  12.159   1.765
 2183SOL     OW 8445  11.223  10.639   7.594
 2183SOL    HW1 8446  11.299  10.696   7.584
 2183SOL    HW2 8447  11.219  10.620   7.688
 2184SOL     OW 8448   5.690   5.383  14.520
 2184SOL    HW1 8449   5.597   5.368  14.534
 2184SOL    HW2 8450   5.706   5.353  14.431
 2185SOL     OW 8451   5.487   8.281  10.139
 2185SOL    HW1 8452   5.419   8.341  10.171
 2185SOL    HW2 8453   5.441   8.201  10.118
 2186SOL     OW 8454   5.467  11.197  10.659
 2186SOL    HW1 8455   5.527  11.264  10.692
 2186SOL    HW2 8456   5.390  11.202  10.716
 2187SOL     OW 8457   7.678   9.188  14.615
 2187SOL    HW1 8458   7.609   9.216  14.554
 2187SOL    HW2 8459   7.667   9.094  14.623
 2188SOL     OW 8460  12.101   2.700   0.085
 2188SOL    HW1 8461  12.124   2.708  14.862
 2188SOL    HW2 8462  12.047   2.776   0.103
 2189SOL     OW 8463   0.863   9.562   3.445
 2189SOL    HW1 8464   0.831   9.633   3.389
 2189SOL    HW2 8465   0.958   9.575   3.448
 2190SOL     OW 8466  11.178   8.799  13.322
 2190SOL    HW1 8467  11.087   8.828  13.313
 2190SOL    HW2 8468  11.186   8.772  13.413
 2191SOL     OW 8469   0.021   7.597   5.548
 2191SOL    HW1 8470   0.032   7.664   5.481
 2191SOL    HW2 8471  14.806   7.617   5.588
 2192SOL     OW 8472   8.797   1.455   7.922
 2192SOL    HW1 8473   8.716   1.506   7.921
 2192SOL    HW2 8474   8.770   1.366   7.945
 2193SOL     OW 8475   3.610   6.672   7.397
 2193SOL    HW1 8476   3.543   6.657   7.331
 2193SOL    HW2 8477   3.693   6.660   7.351
 2194SOL     OW 8478  13.856   6.676   5.004
 2194SOL    HW1 8479  13.846   6.648   4.913
 2194SOL    HW2 8480  13.939   6.639   5.032
 2195SOL     OW 8481   9.574   2.057   7.025
 2195SOL    HW1 8482   9.644   2.016   7.077
 2195SOL    HW2 8483   9.620   2.120   6.969
 2196SOL     OW 8484   2.367   7.571   4.664
 2196SOL    HW1 8485   2.440   7.548   4.607
 2196SOL    HW2 8486   2.409   7.608   4.742
 2197SOL     OW 8487   5.058   7.621  12.914
 2197SOL    HW1 8488   5.008   7.616  12.833
 2197SOL    HW2 8489   5.076   7.529  12.937
 2198SOL     OW 8490   9.619   0.438  10.527
 2198SOL    HW1 8491   9.637   0.363  10.471
 2198SOL    HW2 8492   9.531   0.423  10.561
 2199SOL     OW 8493  13.999   5.146   3.719
 2199SOL    HW1 8494  14.094   5.148   3.720
 2199SOL    HW2 8495  13.977   5.134   3.626
 2200SOL     OW 8496   0.413  11.718   7.221
 2200SOL    HW1 8497   0.470  11.641   7.223
 2200SOL    HW2 8498   0.405  11.739   7.127
 2201SOL     OW 8499   1.515   9.561   1.608
 2201SOL    HW1 8500   1.484   9.489   1.553
 2201SOL    HW2 8501   1.448   9.569   1.676
 2202SOL     OW 8502   9.550   3.213   6.948
 2202SOL    HW1 8503   9.588   3.170   6.872
 2202SOL    HW2 8504   9.504   3.143   6.995
 2203SOL     OW 8505   1.506   6.872  11.705
 2203SOL    HW1 8506   1.480   6.816  11.778
 2203SOL    HW2 8507   1.601   6.880  11.714
 2204SOL     OW 8508  13.616   2.275  10.952
 2204SOL    HW1 8509  13.579   2.363  10.959
 2204SOL    HW2 8510  13.571   2.236  10.877
 2205SOL     OW 8511   8.644  14.028   8.455
 2205SOL    HW1 8512   8.645  13.939   8.489
 2205SOL    HW2 8513   8.589  14.023   8.376
 2206SOL     OW 8514   8.652   2.269   2.572
 2206SOL    HW1 8515   8.692   2.356   2.565
 2206SOL    HW2 8516   8.573   2.275   2.520
 2207SOL     OW 8517  12.509   8.816  10.256
 2207SOL    HW1 8518  12.559   8.818  10.338
 2207SOL    HW2 8519  12.573   8.840  10.189
 2208SOL     OW 8520  10.669   7.150  10.263
 2208SOL    HW1 8521  10.596   7.140  10.324
 2208SOL    HW2 8522  10.714   7.065  10.266
 2209SOL     OW 8523   9.612   8.535  10.153
 2209SOL    HW1 8524   9.603   8.587  10.233
 2209SOL    HW2 8525   9.635   8.598  10.085
 2210SOL     OW 8526  14.622   5.712   8.855
 2210SOL    HW1 8527  14.711   5.699   8.885
 2210SOL    HW2 8528  14.588   5.624   8.838
 2211SOL     OW 8529   7.314   7.502   9.395
 2211SOL    HW1 8530   7.307   7.507   9.300
 2211SOL    HW2 8531   7.233   7.459   9.423
 2212SOL     OW 8532   4.921   1.052   9.121
 2212SOL    HW1 8533   5.006   1.028   9.157
 2212SOL    HW2 8534   4.937   1.134   9.074
 2213SOL     OW 8535  13.413  14.069   1.681
 2213SOL    HW1 8536  13.482  14.132   1.701
 2213SOL    HW2 8537  13.439  14.033   1.596
 2214SOL     OW 8538  11.241  13.179  12.897
 2214SOL    HW1 8539  11.159  13.131  12.909
 2214SOL    HW2 8540  11.309  13.118  12.928
 2215SOL     OW 8541   8.760  14.341   5.061
 2215SOL    HW1 8542   8.809  14.419   5.085
 2215SOL    HW2 8543   8.723  14.362   4.974
 2216SOL     OW 8544   1.401   0.259   6.309
 2216SOL    HW1 8545   1.492   0.233   6.324
 2216SOL    HW2 8546   1.358   0.178   6.281
 2217SOL     OW 8547   7.067   1.599   8.656
 2217SOL    HW1 8548   6.979   1.622   8.687
 2217SOL    HW2 8549   7.082   1.511   8.689
 2218SOL     OW 8550   9.621   2.812  13.908
 2218SOL    HW1 8551   9.653   2.745  13.968
 2218SOL    HW2 8552   9.639   2.777  13.821
 2219SOL     OW 8553   0.391   5.488   0.869
 2219SOL    HW1 8554   0.411   5.421   0.934
 2219SOL    HW2 8555   0.465   5.485   0.808
 2220SOL     OW 8556  12.789  13.000   1.773
 2220SOL    HW1 8557  12.736  12.921   1.773
 2220SOL    HW2 8558  12.763  13.046   1.693
 2221SOL     OW 8559   7.400  11.237   1.941
 2221SOL    HW1 8560   7.442  11.164   1.987
 2221SOL    HW2 8561   7.307  11.212   1.937
 2222SOL     OW 8562   7.310   7.043   9.313
 2222SOL    HW1 8563   7.270   6.975   9.259
 2222SOL    HW2 8564   7.309   7.008   9.401
 2223SOL     OW 8565   5.180  11.500   2.155
 2223SOL    HW1 8566   5.193  11.423   2.099
 2223SOL    HW2 8567   5.259  11.505   2.208
 2224SOL     OW 8568   1.030   9.372   9.560
 2224SOL    HW1 8569   0.955   9.312   9.560
 2224SOL    HW2 8570   1.000   9.448   9.609
 2225SOL     OW 8571   2.309  10.491   8.982
 2225SOL    HW1 8572   2.353  10.408   8.964
 2225SOL    HW2 8573   2.263  10.477   9.065
 2226SOL     OW 8574  12.308   4.493   3.669
 2226SOL    HW1 8575  12.358   4.442   3.606
 2226SOL    HW2 8576  12.340   4.582   3.659
 2227SOL     OW 8577  11.364  11.847  12.971
 2227SOL    HW1 8578  11.354  11.779  12.905
 2227SOL    HW2 8579  11.339  11.928  12.926
 2228SOL     OW 8580  12.742   3.773  13.958
 2228SOL    HW1 8581  12.792   3.705  14.003
 2228SOL    HW2 8582  12.804   3.811  13.896
 2229SOL     OW 8583   6.796  11.297   1.086
 2229SOL    HW1 8584   6.719  11.240   1.082
 2229SOL    HW2 8585   6.785  11.347   1.167
 2230SOL     OW 8586   6.733  12.904  14.160
 2230SOL    HW1 8587   6.828  12.894  14.156
 2230SOL    HW2 8588   6.706  12.919  14.069
 2231SOL     OW 8589  13.943  12.265   4.049
 2231SOL    HW1 8590  13.882  12.335   4.030
 2231SOL    HW2 8591  13.949  12.215   3.968
 2232SOL     OW 8592  10.861   3.760   4.346
 2232SOL    HW1 8593  10.774   3.786   4.315
 2232SOL    HW2 8594  10.921   3.794   4.280
 2233SOL     OW 8595   6.235   2.312   9.873
 2233SOL    HW1 8596   6.298   2.280   9.809
 2233SOL    HW2 8597   6.190   2.384   9.829
 2234SOL     OW 8598   9.722   7.642   6.559
 2234SOL    HW1 8599   9.711   7.653   6.465
 2234SOL    HW2 8600   9.637   7.667   6.596
 2235SOL     OW 8601   7.548   3.083   6.975
 2235SOL    HW1 8602   7.509   2.996   6.977
 2235SOL    HW2 8603   7.547   3.108   6.883
 2236SOL     OW 8604   9.168  13.632   1.793
 2236SOL    HW1 8605   9.233  13.702   1.783
 2236SOL    HW2 8606   9.151  13.602   1.704
 2237SOL     OW 8607   7.977   7.734  11.031
 2237SOL    HW1 8608   7.929   7.808  11.067
 2237SOL    HW2 8609   7.997   7.759  10.941
 2238SOL     OW 8610   4.453   0.260   6.695
 2238SOL    HW1 8611   4.505   0.282   6.618
 2238SOL    HW2 8612   4.443   0.343   6.742
 2239SOL     OW 8613  14.776  13.625  14.804
 2239SOL    HW1 8614  14.759  13.650   0.025
 2239SOL    HW2 8615  14.793  13.708  14.759
 2240SOL     OW 8616   1.589   3.731   7.067
 2240SOL    HW1 8617   1.670   3.782   7.062
 2240SOL    HW2 8618   1.613   3.645   7.033
 2241SOL     OW 8619  12.443   0.192   3.907
 2241SOL    HW1 8620  12.429   0.136   3.830
 2241SOL    HW2 8621  12.537   0.187   3.923
 2242SOL     OW 8622   6.812  10.533   1.716
 2242SOL    HW1 8623   6.845  10.443   1.721
 2242SOL    HW2 8624   6.799  10.549   1.623
 2243SOL     OW 8625  13.525  12.700   7.114
 2243SOL    HW1 8626  13.518  12.790   7.082
 2243SOL    HW2 8627  13.509  12.646   7.036
 2244SOL     OW 8628  10.555  14.868   8.954
 2244SOL    HW1 8629  10.629  14.819   8.919
 2244SOL    HW2 8630  10.584   0.089   8.954
 2245SOL     OW 8631   8.901   0.561   8.914
 2245SOL    HW1 8632   8.880   0.531   9.003
 2245SOL    HW2 8633   8.823   0.540   8.863
 2246SOL     OW 8634   5.839   3.814   4.584
 2246SOL    HW1 8635   5.816   3.842   4.673
 2246SOL    HW2 8636   5.808   3.723   4.579
 2247SOL     OW 8637   3.666  10.572   5.165
 2247SOL    HW1 8638   3.712  10.652   5.142
 2247SOL    HW2 8639   3.709  10.503   5.114
 2248SOL     OW 8640  14.607   0.425  12.660
 2248SOL    HW1 8641  14.555   0.370  12.602
 2248SOL    HW2 8642  14.642   0.494  12.603
 2249SOL     OW 8643  11.471   4.466  11.535
 2249SOL    HW1 8644  11.382   4.447  11.565
 2249SOL    HW2 8645  11.484   4.559  11.554
 2250SOL     OW 8646   4.981   8.468   9.968
 2250SOL    HW1 8647   4.913   8.505   9.912
 2250SOL    HW2 8648   5.062   8.478   9.918
 2251SOL     OW 8649   5.727   0.089  10.975
 2251SOL    HW1 8650   5.673   0.033  11.031
 2251SOL    HW2 8651   5.665   0.150  10.937
 2252SOL     OW 8652   2.683   8.952   3.652
 2252SOL    HW1 8653   2.671   8.862   3.621
 2252SOL    HW2 8654   2.603   8.997   3.623
 2253SOL     OW 8655   5.795   3.331   3.605
 2253SOL    HW1 8656   5.703   3.341   3.632
 2253SOL    HW2 8657   5.813   3.411   3.555
 2254SOL     OW 8658  12.855   3.397   0.186
 2254SOL    HW1 8659  12.950   3.406   0.174
 2254SOL    HW2 8660  12.844   3.308   0.219
 2255SOL     OW 8661   7.313   0.646  14.197
 2255SOL    HW1 8662   7.265   0.704  14.137
 2255SOL    HW2 8663   7.318   0.696  14.278
 2256SOL     OW 8664  12.454   5.436   2.874
 2256SOL    HW1 8665  12.498   5.432   2.959
 2256SOL    HW2 8666  12.525   5.430   2.810
 2257SOL     OW 8667   8.196  13.647  10.095
 2257SOL    HW1 8668   8.192  13.705  10.019
 2257SOL    HW2 8669   8.185  13.705  10.170
 2258SOL     OW 8670  11.678   5.223  12.186
 2258SOL    HW1 8671  11.683   5.281  12.262
 2258SOL    HW2 8672  11.770   5.210  12.160
 2259SOL     OW 8673   8.505  12.991  12.793
 2259SOL    HW1 8674   8.535  13.069  12.746
 2259SOL    HW2 8675   8.540  13.002  12.881
 2260SOL     OW 8676   6.841   8.488   7.630
 2260SOL    HW1 8677   6.781   8.439   7.686
 2260SOL    HW2 8678   6.827   8.580   7.654
 2261SOL     OW 8679  12.453  10.852   4.677
 2261SOL    HW1 8680  12.422  10.775   4.629
 2261SOL    HW2 8681  12.545  10.860   4.654
 2262SOL     OW 8682   9.324  13.652   5.469
 2262SOL    HW1 8683   9.231  13.630   5.470
 2262SOL    HW2 8684   9.326  13.748   5.471
 2263SOL     OW 8685   6.051   9.611   4.398
 2263SOL    HW1 8686   5.987   9.647   4.337
 2263SOL    HW2 8687   6.032   9.654   4.481
 2264SOL     OW 8688   2.308  11.479   5.728
 2264SOL    HW1 8689   2.318  11.401   5.783
 2264SOL    HW2 8690   2.338  11.452   5.642
 2265SOL     OW 8691   6.208   4.988   9.163
 2265SOL    HW1 8692   6.259   4.939   9.098
 2265SOL    HW2 8693   6.133   5.021   9.114
 2266SOL     OW 8694   2.876  12.903   7.319
 2266SOL    HW1 8695   2.842  12.841   7.383
 2266SOL    HW2 8696   2.971  12.896   7.326
 2267SOL     OW 8697  14.773   7.379  14.702
 2267SOL    HW1 8698  14.806   7.430  14.628
 2267SOL    HW2 8699  14.679   7.377  14.689
 2268SOL     OW 8700  10.514   4.989   5.840
 2268SOL    HW1 8701  10.562   5.010   5.760
 2268SOL    HW2 8702  10.506   4.893   5.838
 2269SOL     OW 8703   3.006   3.405   2.967
 2269SOL    HW1 8704   2.988   3.416   3.061
 2269SOL    HW2 8705   3.101   3.410   2.961
 2270SOL     OW 8706  13.506   0.451   3.771
 2270SOL    HW1 8707  13.416   0.439   3.739
 2270SOL    HW2 8708  13.559   0.457   3.692
 2271SOL     OW 8709   9.412  12.379  11.767
 2271SOL    HW1 8710   9.454  12.398  11.683
 2271SOL    HW2 8711   9.337  12.325  11.745
 2272SOL     OW 8712   8.531   5.683   5.468
 2272SOL    HW1 8713   8.620   5.670   5.498
 2272SOL    HW2 8714   8.537   5.753   5.403
 2273SOL     OW 8715   9.489   0.279   5.589
 2273SOL    HW1 8716   9.431   0.209   5.559
 2273SOL    HW2 8717   9.521   0.319   5.508
 2274SOL     OW 8718   5.756  10.444  14.106
 2274SOL    HW1 8719   5.698  10.462  14.032
 2274SOL    HW2 8720   5.697  10.432  14.180
 2275SOL     OW 8721  14.536   9.309  13.350
 2275SOL    HW1 8722  14.531   9.402  13.330
 2275SOL    HW2 8723  14.624   9.283  13.322
 2276SOL     OW 8724  14.604   1.106  12.695
 2276SOL    HW1 8725  14.606   1.183  12.751
 2276SOL    HW2 8726  14.514   1.075  12.699
 2277SOL     OW 8727   1.260   8.734   4.466
 2277SOL    HW1 8728   1.329   8.671   4.446
 2277SOL    HW2 8729   1.299   8.819   4.446
 2278SOL     OW 8730   6.051   3.206  13.236
 2278SOL    HW1 8731   6.026   3.233  13.325
 2278SOL    HW2 8732   6.083   3.117  13.247
 2279SOL     OW 8733   4.345   0.741   5.049
 2279SOL    HW1 8734   4.359   0.738   4.954
 2279SOL    HW2 8735   4.402   0.813   5.079
 2280SOL     OW 8736  10.861   6.141   7.842
 2280SOL    HW1 8737  10.786   6.167   7.789
 2280SOL    HW2 8738  10.890   6.058   7.803
 2281SOL     OW 8739   0.179  12.955   9.701
 2281SOL    HW1 8740   0.190  12.974   9.608
 2281SOL    HW2 8741   0.259  12.988   9.742
 2282SOL     OW 8742  13.344   9.574   4.221
 2282SOL    HW1 8743  13.348   9.666   4.249
 2282SOL    HW2 8744  13.435   9.544   4.223
 2283SOL     OW 8745   4.072   7.810   0.488
 2283SOL    HW1 8746   4.027   7.775   0.410
 2283SOL    HW2 8747   4.043   7.753   0.559
 2284SOL     OW 8748   4.387   3.591   9.078
 2284SOL    HW1 8749   4.325   3.526   9.112
 2284SOL    HW2 8750   4.398   3.568   8.986
 2285SOL     OW 8751   3.825   5.725  12.592
 2285SOL    HW1 8752   3.736   5.698  12.615
 2285SOL    HW2 8753   3.880   5.650  12.616
 2286SOL     OW 8754   6.683   6.186  12.328
 2286SOL    HW1 8755   6.752   6.123  12.308
 2286SOL    HW2 8756   6.644   6.155  12.410
 2287SOL     OW 8757  14.299  14.669   4.078
 2287SOL    HW1 8758  14.240  14.663   4.004
 2287SOL    HW2 8759  14.327  14.579   4.095
 2288SOL     OW 8760  10.670  13.118  11.928
 2288SOL    HW1 8761  10.606  13.074  11.872
 2288SOL    HW2 8762  10.671  13.067  12.009
 2289SOL     OW 8763  13.797   1.959   4.757
 2289SOL    HW1 8764  13.703   1.974   4.763
 2289SOL    HW2 8765  13.831   2.038   4.715
 2290SOL     OW 8766  12.652   5.831   8.587
 2290SOL    HW1 8767  12.671   5.819   8.494
 2290SOL    HW2 8768  12.565   5.872   8.589
 2291SOL     OW 8769   5.902  14.354  14.704
 2291SOL    HW1 8770   5.907  14.362  14.800
 2291SOL    HW2 8771   5.808  14.348  14.687
 2292SOL     OW 8772   0.193  10.896  13.151
 2292SOL    HW1 8773   0.232  10.942  13.225
 2292SOL    HW2 8774   0.225  10.942  13.074
 2293SOL     OW 8775   9.718   1.768  10.605
 2293SOL    HW1 8776   9.715   1.840  10.668
 2293SOL    HW2 8777   9.749   1.808  10.524
 2294SOL     OW 8778  10.287   3.013  13.564
 2294SOL    HW1 8779  10.333   3.004  13.647
 2294SOL    HW2 8780  10.293   2.926  13.524
 2295SOL     OW 8781   1.723   4.107   2.613
 2295SOL    HW1 8782   1.627   4.109   2.613
 2295SOL    HW2 8783   1.747   4.090   2.522
 2296SOL     OW 8784   4.247   1.810   1.935
 2296SOL    HW1 8785   4.155   1.820   1.962
 2296SOL    HW2 8786   4.248   1.730   1.883
 2297SOL     OW 8787   2.537  10.331   3.776
 2297SOL    HW1 8788   2.609  10.393   3.761
 2297SOL    HW2 8789   2.500  10.357   3.861
 2298SOL     OW 8790  14.126   0.715   8.240
 2298SOL    HW1 8791  14.050   0.724   8.298
 2298SOL    HW2 8792  14.169   0.800   8.244
 2299SOL     OW 8793   3.832   8.712   6.817
 2299SOL    HW1 8794   3.841   8.758   6.900
 2299SOL    HW2 8795   3.819   8.621   6.841
 2300SOL     OW 8796  12.137  14.821  14.112
 2300SOL    HW1 8797  12.190   0.007  14.169
 2300SOL    HW2 8798  12.182  14.736  14.114
 2301SOL     OW 8799   3.986   9.758   1.035
 2301SOL    HW1 8800   4.059   9.698   1.019
 2301SOL    HW2 8801   4.001   9.831   0.975
 2302SOL     OW 8802  13.478   7.352   1.391
 2302SOL    HW1 8803  13.394   7.338   1.346
 2302SOL    HW2 8804  13.471   7.300   1.471
 2303SOL     OW 8805   0.080   7.403   6.223
 2303SOL    HW1 8806   0.035   7.455   6.290
 2303SOL    HW2 8807   0.160   7.373   6.266
 2304SOL     OW 8808  12.050   6.955  14.697
 2304SOL    HW1 8809  11.982   6.976  14.633
 2304SOL    HW2 8810  12.099   6.883  14.657
 2305SOL     OW 8811   8.573  10.417  12.842
 2305SOL    HW1 8812   8.639  10.394  12.777
 2305SOL    HW2 8813   8.505  10.462  12.791
 2306SOL     OW 8814   3.415  12.282   3.371
 2306SOL    HW1 8815   3.462  12.303   3.452
 2306SOL    HW2 8816   3.352  12.215   3.397
 2307SOL     OW 8817   8.530  12.481   7.241
 2307SOL    HW1 8818   8.465  12.535   7.285
 2307SOL    HW2 8819   8.520  12.503   7.148
 2308SOL     OW 8820   0.064   0.340   9.489
 2308SOL    HW1 8821   0.087   0.259   9.443
 2308SOL    HW2 8822  14.841   0.353   9.471
 2309SOL     OW 8823   0.438   4.280   9.980
 2309SOL    HW1 8824   0.497   4.317  10.045
 2309SOL    HW2 8825   0.396   4.356   9.939
 2310SOL     OW 8826  14.746   9.060   5.817
 2310SOL    HW1 8827  14.658   9.028   5.835
 2310SOL    HW2 8828  14.736   9.154   5.804
 2311SOL     OW 8829   7.109   0.307   0.100
 2311SOL    HW1 8830   7.132   0.350   0.017
 2311SOL    HW2 8831   7.018   0.279   0.088
 2312SOL     OW 8832   7.078  10.710   5.559
 2312SOL    HW1 8833   7.020  10.633   5.557
 2312SOL    HW2 8834   7.092  10.731   5.467
 2313SOL     OW 8835  13.031  12.544   9.698
 2313SOL    HW1 8836  13.111  12.573   9.741
 2313SOL    HW2 8837  12.975  12.621   9.697
 2314SOL     OW 8838  14.163   2.812   5.648
 2314SOL    HW1 8839  14.207   2.752   5.708
 2314SOL    HW2 8840  14.227   2.827   5.578
 2315SOL     OW 8841   0.418   2.200   8.698
 2315SOL    HW1 8842   0.499   2.148   8.702
 2315SOL    HW2 8843   0.442   2.278   8.649
 2316SOL     OW 8844  13.661   0.823  10.799
 2316SOL    HW1 8845  13.586   0.826  10.858
 2316SOL    HW2 8846  13.630   0.771  10.725
 2317SOL     OW 8847  10.482   3.647   4.779
 2317SOL    HW1 8848  10.461   3.554   4.780
 2317SOL    HW2 8849  10.541   3.659   4.854
 2318SOL     OW 8850   6.011   4.103   1.588
 2318SOL    HW1 8851   5.961   4.121   1.668
 2318SOL    HW2 8852   5.953   4.128   1.517
 2319SOL     OW 8853   1.296  14.224   3.936
 2319SOL    HW1 8854   1.334  14.241   4.022
 2319SOL    HW2 8855   1.348  14.279   3.876
 2320SOL     OW 8856   1.604   7.774   7.746
 2320SOL    HW1 8857   1.552   7.694   7.737
 2320SOL    HW2 8858   1.582   7.806   7.834
 2321SOL     OW 8859   8.202   5.698   5.376
 2321SOL    HW1 8860   8.136   5.662   5.435
 2321SOL    HW2 8861   8.276   5.637   5.382
 2322SOL     OW 8862  12.116  12.419   4.863
 2322SOL    HW1 8863  12.040  12.426   4.806
 2322SOL    HW2 8864  12.133  12.509   4.891
 2323SOL     OW 8865   6.676   2.975   1.446
 2323SOL    HW1 8866   6.727   2.903   1.484
 2323SOL    HW2 8867   6.696   2.972   1.353
 2324SOL     OW 8868   5.583   8.396  12.155
 2324SOL    HW1 8869   5.565   8.383  12.248
 2324SOL    HW2 8870   5.643   8.325  12.132
 2325SOL     OW 8871   6.029  14.804   9.594
 2325SOL    HW1 8872   6.099  14.749   9.630
 2325SOL    HW2 8873   6.024   0.009   9.653
 2326SOL     OW 8874   5.618   9.049   2.124
 2326SOL    HW1 8875   5.702   9.058   2.080
 2326SOL    HW2 8876   5.635   8.988   2.196
 2327SOL     OW 8877   8.617   1.692  12.212
 2327SOL    HW1 8878   8.665   1.733  12.140
 2327SOL    HW2 8879   8.673   1.707  12.289
 2328SOL     OW 8880  11.549   7.703   3.478
 2328SOL    HW1 8881  11.581   7.624   3.434
 2328SOL    HW2 8882  11.514   7.671   3.561
 2329SOL     OW 8883   4.602   5.705   8.190
 2329SOL    HW1 8884   4.655   5.627   8.176
 2329SOL    HW2 8885   4.659   5.778   8.168
 2330SOL     OW 8886  14.789   6.022   0.582
 2330SOL    HW1 8887  14.733   6.099   0.585
 2330SOL    HW2 8888  14.857   6.039   0.647
 2331SOL     OW 8889   4.088   8.015   3.470
 2331SOL    HW1 8890   4.038   8.039   3.548
 2331SOL    HW2 8891   4.022   8.014   3.400
 2332SOL     OW 8892   3.624   1.845   5.869
 2332SOL    HW1 8893   3.536   1.881   5.860
 2332SOL    HW2 8894   3.612   1.751   5.869
 2333SOL     OW 8895  11.055  13.892   8.298
 2333SOL    HW1 8896  11.112  13.966   8.280
 2333SOL    HW2 8897  10.989  13.894   8.229
 2334SOL     OW 8898   2.758  13.172   5.651
 2334SOL    HW1 8899   2.754  13.200   5.560
 2334SOL    HW2 8900   2.757  13.253   5.702
 2335SOL     OW 8901   5.224  10.230  11.671
 2335SOL    HW1 8902   5.253  10.174  11.600
 2335SOL    HW2 8903   5.197  10.312  11.629
 2336SOL     OW 8904   3.777   5.251   5.207
 2336SOL    HW1 8905   3.856   5.209   5.174
 2336SOL    HW2 8906   3.783   5.342   5.177
 2337SOL     OW 8907  13.013   9.957   6.054
 2337SOL    HW1 8908  12.982  10.034   6.101
 2337SOL    HW2 8909  12.945   9.891   6.069
 2338SOL     OW 8910   0.806   8.245  13.959
 2338SOL    HW1 8911   0.757   8.162  13.962
 2338SOL    HW2 8912   0.870   8.238  14.029
 2339SOL     OW 8913   3.574   8.477   3.207
 2339SOL    HW1 8914   3.509   8.542   3.180
 2339SOL    HW2 8915   3.524   8.396   3.219
 2340SOL     OW 8916   7.387   3.555   6.611
 2340SOL    HW1 8917   7.365   3.615   6.682
 2340SOL    HW2 8918   7.327   3.577   6.541
 2341SOL     OW 8919   7.332   6.475   4.856
 2341SOL    HW1 8920   7.372   6.389   4.873
 2341SOL    HW2 8921   7.251   6.473   4.906
 2342SOL     OW 8922  13.579   8.362   9.810
 2342SOL    HW1 8923  13.508   8.379   9.748
 2342SOL    HW2 8924  13.605   8.448   9.841
 2343SOL     OW 8925   8.087   8.594   2.454
 2343SOL    HW1 8926   8.145   8.643   2.514
 2343SOL    HW2 8927   8.116   8.503   2.461
 2344SOL     OW 8928   8.651  12.542   5.012
 2344SOL    HW1 8929   8.642  12.454   4.976
 2344SOL    HW2 8930   8.617  12.534   5.102
 2345SOL     OW 8931   6.534   3.466   3.102
 2345SOL    HW1 8932   6.502   3.470   3.012
 2345SOL    HW2 8933   6.493   3.389   3.139
 2346SOL     OW 8934   9.760   9.424  14.017
 2346SOL    HW1 8935   9.806   9.363  13.960
 2346SOL    HW2 8936   9.821   9.442  14.088
 2347SOL     OW 8937   3.615   2.105  11.387
 2347SOL    HW1 8938   3.576   2.020  11.406
 2347SOL    HW2 8939   3.551   2.148  11.330
 2348SOL     OW 8940  14.761   7.093   7.379
 2348SOL    HW1 8941  14.841   7.139   7.403
 2348SOL    HW2 8942  14.728   7.058   7.462
 2349SOL     OW 8943   7.050   2.364   3.196
 2349SOL    HW1 8944   7.009   2.356   3.110
 2349SOL    HW2 8945   7.137   2.400   3.178
 2350SOL     OW 8946   3.134   9.608  10.335
 2350SOL    HW1 8947   3.216   9.655  10.321
 2350SOL    HW2 8948   3.160   9.517  10.346
 2351SOL     OW 8949   2.752   1.432  13.713
 2351SOL    HW1 8950   2.757   1.414  13.619
 2351SOL    HW2 8951   2.717   1.351  13.750
 2352SOL     OW 8952   4.506   6.584   3.620
 2352SOL    HW1 8953   4.586   6.629   3.595
 2352SOL    HW2 8954   4.452   6.652   3.661
 2353SOL     OW 8955   3.902   5.109   5.862
 2353SOL    HW1 8956   3.933   5.135   5.949
 2353SOL    HW2 8957   3.971   5.053   5.828
 2354SOL     OW 8958   0.304   3.436   7.031
 2354SOL    HW1 8959   0.225   3.385   7.012
 2354SOL    HW2 8960   0.272   3.526   7.043
 2355SOL     OW 8961   8.403   9.284   8.106
 2355SOL    HW1 8962   8.440   9.196   8.104
 2355SOL    HW2 8963   8.442   9.328   8.031
 2356SOL     OW 8964  11.329   3.879   1.053
 2356SOL    HW1 8965  11.326   3.820   1.128
 2356SOL    HW2 8966  11.295   3.962   1.086
 2357SOL     OW 8967   9.240  13.189   8.877
 2357SOL    HW1 8968   9.154  13.186   8.834
 2357SOL    HW2 8969   9.301  13.158   8.811
 2358SOL     OW 8970   7.264   9.787   9.793
 2358SOL    HW1 8971   7.192   9.728   9.814
 2358SOL    HW2 8972   7.252   9.863   9.850
 2359SOL     OW 8973   6.815   7.485   1.746
 2359SOL    HW1 8974   6.755   7.442   1.807
 2359SOL    HW2 8975   6.822   7.575   1.778
 2360SOL     OW 8976   3.969  13.019   6.905
 2360SOL    HW1 8977   3.960  13.101   6.857
 2360SOL    HW2 8978   3.905  12.961   6.865
 2361SOL     OW 8979  13.163   8.396   8.616
 2361SOL    HW1 8980  13.213   8.368   8.539
 2361SOL    HW2 8981  13.189   8.334   8.685
 2362SOL     OW 8982   6.103  10.377  11.665
 2362SOL    HW1 8983   6.172  10.382  11.600
 2362SOL    HW2 8984   6.140  10.418  11.743
 2363SOL     OW 8985   2.792   2.011  12.209
 2363SOL    HW1 8986   2.850   2.083  12.236
 2363SOL    HW2 8987   2.721   2.013  12.273
 2364SOL     OW 8988   6.121   8.182   5.690
 2364SOL    HW1 8989   6.091   8.093   5.711
 2364SOL    HW2 8990   6.211   8.185   5.723
 2365SOL     OW 8991  12.028   3.903   3.316
 2365SOL    HW1 8992  12.048   3.910   3.223
 2365SOL    HW2 8993  12.108   3.866   3.354
 2366SOL     OW 8994   2.145   9.265   1.063
 2366SOL    HW1 8995   2.189   9.284   0.980
 2366SOL    HW2 8996   2.192   9.318   1.128
 2367SOL     OW 8997  10.869  10.301   9.975
 2367SOL    HW1 8998  10.866  10.214   9.935
 2367SOL    HW2 8999  10.817  10.292  10.055
 2368SOL     OW 9000   2.144  13.990   7.540
 2368SOL    HW1 9001   2.226  13.941   7.542
 2368SOL    HW2 9002   2.099  13.963   7.620
 2369SOL     OW 9003  12.530   4.099   6.346
 2369SOL    HW1 9004  12.569   4.022   6.305
 2369SOL    HW2 9005  12.576   4.108   6.429
 2370SOL     OW 9006  10.846  11.428   9.216
 2370SOL    HW1 9007  10.808  11.421   9.303
 2370SOL    HW2 9008  10.776  11.465   9.162
 2371SOL     OW 9009  10.516   5.431   3.668
 2371SOL    HW1 9010  10.457   5.359   3.649
 2371SOL    HW2 9011  10.536   5.422   3.761
 2372SOL     OW 9012  10.726  12.756   7.792
 2372SOL    HW1 9013  10.761  12.809   7.720
 2372SOL    HW2 9014  10.658  12.703   7.752
 2373SOL     OW 9015   1.459   8.952   2.789
 2373SOL    HW1 9016   1.364   8.957   2.773
 2373SOL    HW2 9017   1.468   8.962   2.883
 2374SOL     OW 9018   0.548   1.286   0.417
 2374SOL    HW1 9019   0.471   1.248   0.376
 2374SOL    HW2 9020   0.589   1.338   0.348
 2375SOL     OW 9021   2.525   1.424  12.088
 2375SOL    HW1 9022   2.566   1.476  12.156
 2375SOL    HW2 9023   2.431   1.425  12.110
 2376SOL     OW 9024   2.346   3.767   6.517
 2376SOL    HW1 9025   2.287   3.826   6.564
 2376SOL    HW2 9026   2.289   3.716   6.460
 2377SOL     OW 9027   7.494   2.090   9.834
 2377SOL    HW1 9028   7.504   2.005   9.791
 2377SOL    HW2 9029   7.584   2.118   9.854
 2378SOL     OW 9030  10.330  12.499   1.582
 2378SOL    HW1 9031  10.264  12.568   1.586
 2378SOL    HW2 9032  10.295  12.436   1.519
 2379SOL     OW 9033  10.431  13.234   0.083
 2379SOL    HW1 9034  10.423  13.327   0.106
 2379SOL    HW2 9035  10.403  13.188   0.162
 2380SOL     OW 9036   1.099   4.858  12.839
 2380SOL    HW1 9037   1.169   4.820  12.892
 2380SOL    HW2 9038   1.079   4.941  12.882
 2381SOL     OW 9039  13.508   3.085   9.862
 2381SOL    HW1 9040  13.554   3.051   9.785
 2381SOL    HW2 9041  13.578   3.113   9.921
 2382SOL     OW 9042   5.959   0.671  13.371
 2382SOL    HW1 9043   6.033   0.730  13.368
 2382SOL    HW2 9044   5.904   0.698  13.298
 2383SOL     OW 9045   1.234   6.305   6.796
 2383SOL    HW1 9046   1.322   6.282   6.766
 2383SOL    HW2 9047   1.203   6.227   6.842
 2384SOL     OW 9048   2.850   0.654   0.016
 2384SOL    HW1 9049   2.924   0.600   0.046
 2384SOL    HW2 9050   2.785   0.590  14.855
 2385SOL     OW 9051   0.548   6.659   4.167
 2385SOL    HW1 9052   0.481   6.661   4.099
 2385SOL    HW2 9053   0.546   6.747   4.205
 2386SOL     OW 9054   8.364  12.608   7.809
 2386SOL    HW1 9055   8.413  12.526   7.813
 2386SOL    HW2 9056   8.273  12.581   7.795
 2387SOL     OW 9057   3.707   0.089   2.662
 2387SOL    HW1 9058   3.647   0.064   2.733
 2387SOL    HW2 9059   3.778   0.135   2.706
 2388SOL     OW 9060  11.694  13.766   0.365
 2388SOL    HW1 9061  11.622  13.829   0.367
 2388SOL    HW2 9062  11.715  13.750   0.457
 2389SOL     OW 9063   7.812  14.455  13.909
 2389SOL    HW1 9064   7.841  14.501  13.830
 2389SOL    HW2 9065   7.893  14.422  13.949
 2390SOL     OW 9066   9.336   8.381   7.940
 2390SOL    HW1 9067   9.342   8.286   7.948
 2390SOL    HW2 9068   9.244   8.400   7.961
 2391SOL     OW 9069   4.930   4.150   0.843
 2391SOL    HW1 9070   4.857   4.089   0.854
 2391SOL    HW2 9071   4.901   4.208   0.772
 2392SOL     OW 9072   4.769   3.382   6.445
 2392SOL    HW1 9073   4.743   3.302   6.399
 2392SOL    HW2 9074   4.812   3.351   6.524
 2393SOL     OW 9075   7.427   4.329   3.614
 2393SOL    HW1 9076   7.521   4.340   3.603
 2393SOL    HW2 9077   7.408   4.364   3.701
 2394SOL     OW 9078   5.559   0.244   3.861
 2394SOL    HW1 9079   5.488   0.182   3.844
 2394SOL    HW2 9080   5.543   0.274   3.951
 2395SOL     OW 9081  13.116  13.146   4.951
 2395SOL    HW1 9082  13.199  13.186   4.977
 2395SOL    HW2 9083  13.142  13.070   4.899
 2396SOL     OW 9084   3.909   0.464   6.775
 2396SOL    HW1 9085   3.999   0.452   6.804
 2396SOL    HW2 9086   3.912   0.544   6.721
 2397SOL     OW 9087  14.435   7.684   8.329
 2397SOL    HW1 9088  14.406   7.632   8.255
 2397SOL    HW2 9089  14.529   7.694   8.316
 2398SOL     OW 9090   3.879   3.902   9.581
 2398SOL    HW1 9091   3.830   3.974   9.623
 2398SOL    HW2 9092   3.922   3.857   9.654
 2399SOL     OW 9093   7.702  13.872   5.402
 2399SOL    HW1 9094   7.735  13.933   5.336
 2399SOL    HW2 9095   7.703  13.787   5.360
 2400SOL     OW 9096   2.152   1.353   1.804
 2400SOL    HW1 9097   2.244   1.365   1.778
 2400SOL    HW2 9098   2.113   1.439   1.792
 2401SOL     OW 9099  10.783  11.653  12.197
 2401SOL    HW1 9100  10.729  11.675  12.122
 2401SOL    HW2 9101  10.807  11.737  12.236
 2402SOL     OW 9102  11.761  12.122   5.941
 2402SOL    HW1 9103  11.697  12.076   5.996
 2402SOL    HW2 9104  11.805  12.053   5.892
 2403SOL     OW 9105  11.327  12.489  12.947
 2403SOL    HW1 9106  11.282  12.404  12.943
 2403SOL    HW2 9107  11.381  12.490  12.868
 2404SOL     OW 9108  11.072   4.099  11.437
 2404SOL    HW1 9109  11.102   4.054  11.358
 2404SOL    HW2 9110  10.988   4.059  11.457
 2405SOL     OW 9111   4.750   0.280  10.885
 2405SOL    HW1 9112   4.799   0.233  10.817
 2405SOL    HW2 9113   4.661   0.247  10.878
 2406SOL     OW 9114   5.746   5.406  11.968
 2406SOL    HW1 9115   5.806   5.462  12.017
 2406SOL    HW2 9116   5.691   5.466  11.919
 2407SOL     OW 9117   3.834   6.388  14.400
 2407SOL    HW1 9118   3.784   6.364  14.479
 2407SOL    HW2 9119   3.892   6.314  14.385
 2408SOL     OW 9120  10.284   1.455  14.138
 2408SOL    HW1 9121  10.203   1.505  14.128
 2408SOL    HW2 9122  10.312   1.436  14.048
 2409SOL     OW 9123   8.471   7.306  10.691
 2409SOL    HW1 9124   8.409   7.239  10.719
 2409SOL    HW2 9125   8.416   7.377  10.655
 2410SOL     OW 9126  13.609  10.383   6.883
 2410SOL    HW1 9127  13.638  10.353   6.796
 2410SOL    HW2 9128  13.563  10.307   6.919
 2411SOL     OW 9129   4.271   6.453   7.147
 2411SOL    HW1 9130   4.304   6.456   7.057
 2411SOL    HW2 9131   4.176   6.465   7.138
 2412SOL     OW 9132   4.353   1.572  11.935
 2412SOL    HW1 9133   4.417   1.501  11.922
 2412SOL    HW2 9134   4.272   1.527  11.957
 2413SOL     OW 9135  14.556   5.399   0.102
 2413SOL    HW1 9136  14.572   5.479   0.152
 2413SOL    HW2 9137  14.644   5.366   0.080
 2414SOL     OW 9138   4.745   7.887   5.196
 2414SOL    HW1 9139   4.819   7.891   5.135
 2414SOL    HW2 9140   4.670   7.866   5.141
 2415SOL     OW 9141  12.032  12.032   3.944
 2415SOL    HW1 9142  12.112  11.981   3.932
 2415SOL    HW2 9143  12.054  12.120   3.913
 2416SOL     OW 9144   0.674  13.888  12.757
 2416SOL    HW1 9145   0.718  13.811  12.791
 2416SOL    HW2 9146   0.610  13.911  12.824
 2417SOL     OW 9147  10.564   6.452  10.766
 2417SOL    HW1 9148  10.492   6.398  10.797
 2417SOL    HW2 9149  10.603   6.402  10.694
 2418SOL     OW 9150   9.901   5.271  11.056
 2418SOL    HW1 9151   9.860   5.192  11.020
 2418SOL    HW2 9152   9.828   5.320  11.094
 2419SOL     OW 9153  11.919   1.238   7.085
 2419SOL    HW1 9154  12.013   1.256   7.091
 2419SOL    HW2 9155  11.884   1.262   7.170
 2420SOL     OW 9156   0.440   2.941   0.213
 2420SOL    HW1 9157   0.439   2.947   0.309
 2420SOL    HW2 9158   0.507   2.875   0.195
 2421SOL     OW 9159  12.745   5.557   1.816
 2421SOL    HW1 9160  12.787   5.643   1.810
 2421SOL    HW2 9161  12.685   5.554   1.742
 2422SOL     OW 9162   6.213   8.991  12.704
 2422SOL    HW1 9163   6.270   8.929  12.657
 2422SOL    HW2 9164   6.263   9.072  12.708
 2423SOL     OW 9165  11.849   0.249   0.335
 2423SOL    HW1 9166  11.911   0.194   0.288
 2423SOL    HW2 9167  11.786   0.188   0.374
 2424SOL     OW 9168   3.578   2.459  13.231
 2424SOL    HW1 9169   3.650   2.401  13.205
 2424SOL    HW2 9170   3.573   2.450  13.326
 2425SOL     OW 9171   1.218  11.396   2.109
 2425SOL    HW1 9172   1.258  11.311   2.128
 2425SOL    HW2 9173   1.129  11.389   2.144
 2426SOL     OW 9174   5.103   1.321   7.976
 2426SOL    HW1 9175   5.024   1.356   7.935
 2426SOL    HW2 9176   5.159   1.397   7.989
 2427SOL     OW 9177   1.861  11.827   2.214
 2427SOL    HW1 9178   1.836  11.786   2.131
 2427SOL    HW2 9179   1.868  11.754   2.275
 2428SOL     OW 9180   4.320  14.666   8.499
 2428SOL    HW1 9181   4.291  14.636   8.585
 2428SOL    HW2 9182   4.265  14.742   8.480
 2429SOL     OW 9183   3.683   2.468   5.853
 2429SOL    HW1 9184   3.610   2.513   5.811
 2429SOL    HW2 9185   3.745   2.538   5.875
 2430SOL     OW 9186  14.249  11.806   4.388
 2430SOL    HW1 9187  14.242  11.719   4.348
 2430SOL    HW2 9188  14.196  11.800   4.467
 2431SOL     OW 9189   4.793   6.733   1.584
 2431SOL    HW1 9190   4.759   6.699   1.667
 2431SOL    HW2 9191   4.880   6.767   1.606
 2432SOL     OW 9192   1.884  11.390  12.825
 2432SOL    HW1 9193   1.795  11.415  12.847
 2432SOL    HW2 9194   1.895  11.417  12.733
 2433SOL     OW 9195   8.018  11.228   4.707
 2433SOL    HW1 9196   7.943  11.286   4.692
 2433SOL    HW2 9197   8.080  11.250   4.637
 2434SOL     OW 9198  14.014   4.502   8.765
 2434SOL    HW1 9199  14.105   4.529   8.778
 2434SOL    HW2 9200  13.965   4.583   8.758
 2435SOL     OW 9201   6.169  10.931   2.324
 2435SOL    HW1 9202   6.264  10.946   2.326
 2435SOL    HW2 9203   6.157  10.868   2.253
 2436SOL     OW 9204   1.177   8.715  14.845
 2436SOL    HW1 9205   1.138   8.648  14.789
 2436SOL    HW2 9206   1.271   8.711  14.823
 2437SOL     OW 9207   0.700   0.791  12.168
 2437SOL    HW1 9208   0.747   0.724  12.118
 2437SOL    HW2 9209   0.727   0.874  12.129
 2438SOL     OW 9210   2.290   8.350   6.091
 2438SOL    HW1 9211   2.281   8.298   6.171
 2438SOL    HW2 9212   2.375   8.393   6.100
 2439SOL     OW 9213   7.917  11.169   9.213
 2439SOL    HW1 9214   7.958  11.149   9.129
 2439SOL    HW2 9215   7.949  11.257   9.236
 2440SOL     OW 9216   5.933  14.834   6.424
 2440SOL    HW1 9217   5.920  14.767   6.491
 2440SOL    HW2 9218   5.846  14.849   6.388
 2441SOL     OW 9219  14.007   2.628  11.937
 2441SOL    HW1 9220  14.043   2.695  11.994
 2441SOL    HW2 9221  13.923   2.605  11.976
 2442SOL     OW 9222   0.812   3.213  11.272
 2442SOL    HW1 9223   0.829   3.298  11.312
 2442SOL    HW2 9224   0.720   3.216  11.247
 2443SOL     OW 9225  12.127   5.135   1.955
 2443SOL    HW1 9226  12.117   5.205   1.890
 2443SOL    HW2 9227  12.117   5.054   1.905
 2444SOL     OW 9228   6.118   9.833   3.046
 2444SOL    HW1 9229   6.058   9.759   3.030
 2444SOL    HW2 9230   6.205   9.797   3.030
 2445SOL     OW 9231  11.728  10.567  12.081
 2445SOL    HW1 9232  11.784  10.595  12.009
 2445SOL    HW2 9233  11.639  10.583  12.051
 2446SOL     OW 9234   7.699   6.562   3.858
 2446SOL    HW1 9235   7.691   6.578   3.765
 2446SOL    HW2 9236   7.622   6.510   3.881
 2447SOL     OW 9237   2.747   5.143  14.617
 2447SOL    HW1 9238   2.669   5.120  14.565
 2447SOL    HW2 9239   2.791   5.059  14.633
 2448SOL     OW 9240   6.844   0.836  14.576
 2448SOL    HW1 9241   6.868   0.833  14.669
 2448SOL    HW2 9242   6.872   0.922  14.547
 2449SOL     OW 9243   5.625  14.648   9.753
 2449SOL    HW1 9244   5.566  14.610   9.688
 2449SOL    HW2 9245   5.581  14.634   9.836
 2450SOL     OW 9246   1.086   0.722   3.408
 2450SOL    HW1 9247   1.098   0.816   3.425
 2450SOL    HW2 9248   1.101   0.681   3.493
 2451SOL     OW 9249  11.077   0.572   0.301
 2451SOL    HW1 9250  11.146   0.505   0.305
 2451SOL    HW2 9251  11.034   0.557   0.216
 2452SOL     OW 9252  11.291   5.668   8.977
 2452SOL    HW1 9253  11.321   5.678   8.886
 2452SOL    HW2 9254  11.277   5.574   8.987
 2453SOL     OW 9255  14.082   5.366   6.825
 2453SOL    HW1 9256  14.130   5.337   6.747
 2453SOL    HW2 9257  14.057   5.285   6.869
 2454SOL     OW 9258   0.695   2.300   5.084
 2454SOL    HW1 9259   0.621   2.360   5.090
 2454SOL    HW2 9260   0.770   2.350   5.115
 2455SOL     OW 9261   4.928  10.935   5.692
 2455SOL    HW1 9262   4.837  10.931   5.660
 2455SOL    HW2 9263   4.969  11.004   5.640
 2456SOL     OW 9264   2.675   0.837  10.011
 2456SOL    HW1 9265   2.680   0.756  10.062
 2456SOL    HW2 9266   2.651   0.904  10.075
 2457SOL     OW 9267   4.909  12.616  11.823
 2457SOL    HW1 9268   4.909  12.521  11.830
 2457SOL    HW2 9269   4.976  12.645  11.885
 2458SOL     OW 9270   0.382  11.557   7.839
 2458SOL    HW1 9271   0.427  11.513   7.767
 2458SOL    HW2 9272   0.296  11.581   7.802
 2459SOL     OW 9273  13.465  10.410   0.453
 2459SOL    HW1 9274  13.548  10.447   0.424
 2459SOL    HW2 9275  13.456  10.329   0.404
 2460SOL     OW 9276  11.781   1.615   1.386
 2460SOL    HW1 9277  11.689   1.600   1.364
 2460SOL    HW2 9278  11.785   1.708   1.409
 2461SOL     OW 9279  11.878  12.855   9.134
 2461SOL    HW1 9280  11.854  12.885   9.221
 2461SOL    HW2 9281  11.861  12.761   9.135
 2462SOL     OW 9282  12.124   2.267   2.929
 2462SOL    HW1 9283  12.088   2.229   2.849
 2462SOL    HW2 9284  12.126   2.194   2.991
 2463SOL     OW 9285   9.648   1.668   7.829
 2463SOL    HW1 9286   9.647   1.752   7.875
 2463SOL    HW2 9287   9.633   1.603   7.897
 2464SOL     OW 9288   7.074  10.738   5.291
 2464SOL    HW1 9289   7.135  10.803   5.256
 2464SOL    HW2 9290   7.017  10.717   5.217
 2465SOL     OW 9291   5.804   9.037   5.096
 2465SOL    HW1 9292   5.748   9.105   5.135
 2465SOL    HW2 9293   5.835   8.986   5.170
 2466SOL     OW 9294   2.711   1.719  10.374
 2466SOL    HW1 9295   2.798   1.685  10.396
 2466SOL    HW2 9296   2.715   1.812  10.397
 2467SOL     OW 9297  14.529   9.944  11.273
 2467SOL    HW1 9298  14.565   9.909  11.354
 2467SOL    HW2 9299  14.516   9.868  11.217
 2468SOL     OW 9300  14.335   0.487   5.373
 2468SOL    HW1 9301  14.253   0.437   5.379
 2468SOL    HW2 9302  14.382   0.447   5.300
 2469SOL     OW 9303   8.157   4.879   2.498
 2469SOL    HW1 9304   8.166   4.890   2.592
 2469SOL    HW2 9305   8.155   4.785   2.484
 2470SOL     OW 9306   1.730   1.228   3.100
 2470SOL    HW1 9307   1.733   1.256   3.191
 2470SOL    HW2 9308   1.783   1.149   3.097
 2471SOL     OW 9309   3.269  11.221  10.247
 2471SOL    HW1 9310   3.359  11.246  10.265
 2471SOL    HW2 9311   3.247  11.157  10.314
 2472SOL     OW 9312   1.292   7.264   3.191
 2472SOL    HW1 9313   1.351   7.337   3.209
 2472SOL    HW2 9314   1.305   7.204   3.265
 2473SOL     OW 9315  11.707   4.799  14.868
 2473SOL    HW1 9316  11.612   4.784  14.869
 2473SOL    HW2 9317  11.720   4.865  14.800
 2474SOL     OW 9318   4.998  11.791  10.878
 2474SOL    HW1 9319   4.977  11.882  10.895
 2474SOL    HW2 9320   4.937  11.763  10.810
 2475SOL     OW 9321  13.098   2.865   5.627
 2475SOL    HW1 9322  13.139   2.860   5.541
 2475SOL    HW2 9323  13.166   2.900   5.684
 2476SOL     OW 9324   7.226  10.006  14.503
 2476SOL    HW1 9325   7.213   9.930  14.446
 2476SOL    HW2 9326   7.318  10.030  14.490
 2477SOL     OW 9327   4.217  11.769   3.876
 2477SOL    HW1 9328   4.259  11.688   3.847
 2477SOL    HW2 9329   4.123  11.753   3.863
 2478SOL     OW 9330  14.252   0.456  13.081
 2478SOL    HW1 9331  14.310   0.392  13.121
 2478SOL    HW2 9332  14.251   0.433  12.988
 2479SOL     OW 9333   3.429   4.464   6.135
 2479SOL    HW1 9334   3.387   4.532   6.083
 2479SOL    HW2 9335   3.384   4.467   6.220
 2480SOL     OW 9336   9.926   1.106  14.099
 2480SOL    HW1 9337   9.901   1.163  14.172
 2480SOL    HW2 9338   9.985   1.159  14.046
 2481SOL     OW 9339   7.950  10.473   8.448
 2481SOL    HW1 9340   8.019  10.419   8.409
 2481SOL    HW2 9341   7.868  10.437   8.413
 2482SOL     OW 9342   8.983   5.079  12.394
 2482SOL    HW1 9343   9.052   5.142  12.373
 2482SOL    HW2 9344   9.007   5.000  12.346
 2483SOL     OW 9345  11.479   1.127  12.199
 2483SOL    HW1 9346  11.448   1.101  12.286
 2483SOL    HW2 9347  11.408   1.099  12.140
 2484SOL     OW 9348   2.716   9.162  12.180
 2484SOL    HW1 9349   2.715   9.114  12.264
 2484SOL    HW2 9350   2.671   9.104  12.119
 2485SOL     OW 9351   9.831   0.059  12.842
 2485SOL    HW1 9352   9.843   0.101  12.927
 2485SOL    HW2 9353   9.751   0.099  12.807
 2486SOL     OW 9354   1.269   2.864   0.899
 2486SOL    HW1 9355   1.263   2.954   0.932
 2486SOL    HW2 9356   1.246   2.809   0.974
 2487SOL     OW 9357   0.379   4.862   2.673
 2487SOL    HW1 9358   0.428   4.923   2.729
 2487SOL    HW2 9359   0.432   4.782   2.672
 2488SOL     OW 9360   5.640   5.203   8.704
 2488SOL    HW1 9361   5.599   5.208   8.790
 2488SOL    HW2 9362   5.581   5.148   8.652
 2489SOL     OW 9363   3.965   5.573   8.313
 2489SOL    HW1 9364   3.929   5.600   8.228
 2489SOL    HW2 9365   3.899   5.515   8.350
 2490SOL     OW 9366   2.044   9.894   5.430
 2490SOL    HW1 9367   1.959   9.911   5.470
 2490SOL    HW2 9368   2.107   9.904   5.502
 2491SOL     OW 9369   4.397  13.886   0.444
 2491SOL    HW1 9370   4.339  13.962   0.439
 2491SOL    HW2 9371   4.473  13.917   0.492
 2492SOL     OW 9372  12.704  14.026   0.155
 2492SOL    HW1 9373  12.724  13.938   0.124
 2492SOL    HW2 9374  12.669  14.071   0.078
 2493SOL     OW 9375   9.622   9.757  10.645
 2493SOL    HW1 9376   9.699   9.812  10.638
 2493SOL    HW2 9377   9.594   9.742  10.554
 2494SOL     OW 9378  10.142  10.297  11.776
 2494SOL    HW1 9379  10.077  10.309  11.844
 2494SOL    HW2 9380  10.093  10.304  11.694
 2495SOL     OW 9381  10.043  10.128   9.031
 2495SOL    HW1 9382   9.959  10.128   9.077
 2495SOL    HW2 9383  10.022  10.163   8.944
 2496SOL     OW 9384  11.119   2.837   2.133
 2496SOL    HW1 9385  11.144   2.856   2.042
 2496SOL    HW2 9386  11.163   2.904   2.184
 2497SOL     OW 9387  12.718   5.046  14.230
 2497SOL    HW1 9388  12.775   5.123  14.220
 2497SOL    HW2 9389  12.659   5.051  14.155
 2498SOL     OW 9390   2.370  11.100  11.702
 2498SOL    HW1 9391   2.283  11.063  11.689
 2498SOL    HW2 9392   2.423  11.062  11.631
 2499SOL     OW 9393   9.520   7.447   2.912
 2499SOL    HW1 9394   9.592   7.467   2.973
 2499SOL    HW2 9395   9.560   7.391   2.846
 2500SOL     OW 9396   5.055   6.285  10.316
 2500SOL    HW1 9397   5.067   6.326  10.230
 2500SOL    HW2 9398   5.117   6.329  10.373
 2501SOL     OW 9399  13.646   2.236   0.731
 2501SOL    HW1 9400  13.686   2.310   0.685
 2501SOL    HW2 9401  13.553   2.258   0.737
 2502SOL     OW 9402   5.824   8.103   4.476
 2502SOL    HW1 9403   5.731   8.120   4.462
 2502SOL    HW2 9404   5.858   8.186   4.509
 2503SOL     OW 9405  14.336  13.086  10.874
 2503SOL    HW1 9406  14.397  13.143  10.921
 2503SOL    HW2 9407  14.368  12.997  10.891
 2504SOL     OW 9408   7.472   6.768  12.630
 2504SOL    HW1 9409   7.544   6.793  12.688
 2504SOL    HW2 9410   7.434   6.851  12.602
 2505SOL     OW 9411  13.239   3.756  13.941
 2505SOL    HW1 9412  13.211   3.769  14.032
 2505SOL    HW2 9413  13.182   3.813  13.890
 2506SOL     OW 9414   3.248   2.424   2.218
 2506SOL    HW1 9415   3.264   2.513   2.188
 2506SOL    HW2 9416   3.335   2.387   2.234
 2507SOL     OW 9417  12.740   1.466   6.996
 2507SOL    HW1 9418  12.683   1.416   7.055
 2507SOL    HW2 9419  12.737   1.418   6.914
 2508SOL     OW 9420   8.597   4.104  14.203
 2508SOL    HW1 9421   8.598   4.196  14.177
 2508SOL    HW2 9422   8.686   4.086  14.233
 2509SOL     OW 9423   1.153   0.821   1.216
 2509SOL    HW1 9424   1.141   0.915   1.210
 2509SOL    HW2 9425   1.064   0.785   1.212
 2510SOL     OW 9426  11.123   1.123  10.313
 2510SOL    HW1 9427  11.031   1.097  10.320
 2510SOL    HW2 9428  11.145   1.109  10.221
 2511SOL     OW 9429   3.696   2.530  11.352
 2511SOL    HW1 9430   3.724   2.450  11.396
 2511SOL    HW2 9431   3.725   2.519  11.262
 2512SOL     OW 9432   5.307   5.333   1.550
 2512SOL    HW1 9433   5.263   5.364   1.471
 2512SOL    HW2 9434   5.277   5.243   1.560
 2513SOL     OW 9435   0.080  10.858   1.261
 2513SOL    HW1 9436   0.157  10.912   1.276
 2513SOL    HW2 9437   0.079  10.844   1.166
 2514SOL     OW 9438  10.524   2.607   2.578
 2514SOL    HW1 9439  10.466   2.536   2.551
 2514SOL    HW2 9440  10.480   2.686   2.547
 2515SOL     OW 9441   3.010   7.147   5.953
 2515SOL    HW1 9442   3.023   7.052   5.956
 2515SOL    HW2 9443   3.098   7.182   5.935
 2516SOL     OW 9444  10.069  12.621   7.933
 2516SOL    HW1 9445  10.129  12.600   8.005
 2516SOL    HW2 9446  10.025  12.701   7.961
 2517SOL     OW 9447   3.575   2.937   6.498
 2517SOL    HW1 9448   3.525   2.990   6.560
 2517SOL    HW2 9449   3.644   2.996   6.466
 2518SOL     OW 9450   5.927   5.813   1.476
 2518SOL    HW1 9451   5.872   5.815   1.398
 2518SOL    HW2 9452   5.868   5.788   1.547
 2519SOL     OW 9453  11.852   6.930   2.969
 2519SOL    HW1 9454  11.799   6.850   2.971
 2519SOL    HW2 9455  11.809   6.986   2.904
 2520SOL     OW 9456   9.523  11.575   6.782
 2520SOL    HW1 9457   9.441  11.546   6.823
 2520SOL    HW2 9458   9.499  11.656   6.737
 2521SOL     OW 9459   7.371   5.845   2.787
 2521SOL    HW1 9460   7.398   5.773   2.730
 2521SOL    HW2 9461   7.281   5.823   2.811
 2522SOL     OW 9462   1.370  14.317   6.567
 2522SOL    HW1 9463   1.459  14.350   6.577
 2522SOL    HW2 9464   1.360  14.301   6.473
 2523SOL     OW 9465   9.703  12.357   1.022
 2523SOL    HW1 9466   9.646  12.290   1.061
 2523SOL    HW2 9467   9.782  12.354   1.075
 2524SOL     OW 9468  11.638   9.209  13.072
 2524SOL    HW1 9469  11.715   9.253  13.036
 2524SOL    HW2 9470  11.584   9.280  13.106
 2525SOL     OW 9471   1.854   2.783   0.629
 2525SOL    HW1 9472   1.922   2.722   0.600
 2525SOL    HW2 9473   1.772   2.735   0.620
 2526SOL     OW 9474  11.222   3.457  14.572
 2526SOL    HW1 9475  11.272   3.391  14.524
 2526SOL    HW2 9476  11.158   3.406  14.622
 2527SOL     OW 9477   5.238   1.203  10.541
 2527SOL    HW1 9478   5.198   1.142  10.604
 2527SOL    HW2 9479   5.238   1.155  10.458
 2528SOL     OW 9480  12.178   9.718   1.281
 2528SOL    HW1 9481  12.121   9.774   1.228
 2528SOL    HW2 9482  12.260   9.713   1.231
 2529SOL     OW 9483   0.445  11.662   6.076
 2529SOL    HW1 9484   0.426  11.720   6.150
 2529SOL    HW2 9485   0.371  11.674   6.017
 2530SOL     OW 9486   6.265   0.763   9.545
 2530SOL    HW1 9487   6.313   0.845   9.529
 2530SOL    HW2 9488   6.214   0.781   9.624
 2531SOL     OW 9489   2.272   5.640  14.766
 2531SOL    HW1 9490   2.285   5.730  14.798
 2531SOL    HW2 9491   2.262   5.650  14.671
 2532SOL     OW 9492  11.343  10.409   5.209
 2532SOL    HW1 9493  11.422  10.428   5.158
 2532SOL    HW2 9494  11.371  10.342   5.272
 2533SOL     OW 9495  14.425   0.426   2.913
 2533SOL    HW1 9496  14.479   0.348   2.918
 2533SOL    HW2 9497  14.443   0.472   2.996
 2534SOL     OW 9498  12.835  11.747  14.321
 2534SOL    HW1 9499  12.778  11.824  14.325
 2534SOL    HW2 9500  12.774  11.673  14.321
 2535SOL     OW 9501   7.973  10.968   4.904
 2535SOL    HW1 9502   7.912  10.981   4.977
 2535SOL    HW2 9503   8.058  10.952   4.947
 2536SOL     OW 9504   4.275   6.361   9.443
 2536SOL    HW1 9505   4.302   6.276   9.477
 2536SOL    HW2 9506   4.292   6.356   9.349
 2537SOL     OW 9507   9.195   8.637   5.337
 2537SOL    HW1 9508   9.153   8.722   5.347
 2537SOL    HW2 9509   9.122   8.576   5.319
 2538SOL     OW 9510   2.563   1.511   4.522
 2538SOL    HW1 9511   2.562   1.530   4.429
 2538SOL    HW2 9512   2.615   1.431   4.530
 2539SOL     OW 9513   2.367  10.249   9.403
 2539SOL    HW1 9514   2.458  10.222   9.414
 2539SOL    HW2 9515   2.333  10.259   9.492
 2540SOL     OW 9516   9.467   0.301  13.508
 2540SOL    HW1 9517   9.423   0.228  13.551
 2540SOL    HW2 9518   9.410   0.323  13.434
 2541SOL     OW 9519   0.794   4.763  13.338
 2541SOL    HW1 9520   0.718   4.820  13.325
 2541SOL    HW2 9521   0.854   4.786  13.267
 2542SOL     OW 9522  14.822   7.144   8.441
 2542SOL    HW1 9523  14.814   7.125   8.535
 2542SOL    HW2 9524   0.018   7.082   8.409
 2543SOL     OW 9525  11.894   1.106   8.762
 2543SOL    HW1 9526  11.957   1.043   8.798
 2543SOL    HW2 9527  11.836   1.127   8.836
 2544SOL     OW 9528  11.395   5.935   1.001
 2544SOL    HW1 9529  11.308   5.941   1.041
 2544SOL    HW2 9530  11.454   5.966   1.070
 2545SOL     OW 9531   8.177  11.384  11.900
 2545SOL    HW1 9532   8.126  11.315  11.859
 2545SOL    HW2 9533   8.129  11.404  11.981
 2546SOL     OW 9534  13.116  14.094  14.269
 2546SOL    HW1 9535  13.135  14.007  14.235
 2546SOL    HW2 9536  13.170  14.101  14.348
 2547SOL     OW 9537   0.248   9.842   9.537
 2547SOL    HW1 9538   0.314   9.844   9.606
 2547SOL    HW2 9539   0.295   9.812   9.459
 2548SOL     OW 9540  14.781   9.265   2.996
 2548SOL    HW1 9541  14.752   9.286   2.907
 2548SOL    HW2 9542  14.822   9.346   3.027
 2549SOL     OW 9543   8.158   4.043  14.235
 2549SOL    HW1 9544   8.147   3.949  14.223
 2549SOL    HW2 9545   8.070   4.075  14.255
 2550SOL     OW 9546   1.550   8.241   9.549
 2550SOL    HW1 9547   1.576   8.149   9.540
 2550SOL    HW2 9548   1.633   8.288   9.555
 2551SOL     OW 9549   3.224  10.382   3.810
 2551SOL    HW1 9550   3.226  10.440   3.887
 2551SOL    HW2 9551   3.285  10.312   3.831
 2552SOL     OW 9552   1.164   4.136   1.855
 2552SOL    HW1 9553   1.102   4.173   1.917
 2552SOL    HW2 9554   1.172   4.044   1.880
 2553SOL     OW 9555  14.178   9.946   0.564
 2553SOL    HW1 9556  14.257   9.904   0.529
 2553SOL    HW2 9557  14.188   9.943   0.659
 2554SOL     OW 9558   4.767  14.745   6.821
 2554SOL    HW1 9559   4.811  14.827   6.798
 2554SOL    HW2 9560   4.835  14.692   6.861
 2555SOL     OW 9561  12.152   1.062  13.577
 2555SOL    HW1 9562  12.231   1.115  13.562
 2555SOL    HW2 9563  12.117   1.096  13.659
 2556SOL     OW 9564  14.651  11.148  11.937
 2556SOL    HW1 9565  14.617  11.070  11.981
 2556SOL    HW2 9566  14.657  11.124  11.845
 2557SOL     OW 9567   9.867   1.684   1.923
 2557SOL    HW1 9568   9.803   1.706   1.856
 2557SOL    HW2 9569   9.855   1.751   1.990
 2558SOL     OW 9570   4.751  14.859   5.336
 2558SOL    HW1 9571   4.722   0.049   5.406
 2558SOL    HW2 9572   4.769  14.776   5.380
 2559SOL     OW 9573   9.338   7.640  10.031
 2559SOL    HW1 9574   9.410   7.692   9.995
 2559SOL    HW2 9575   9.338   7.560   9.980
 2560SOL     OW 9576   2.896   6.071   4.663
 2560SOL    HW1 9577   2.874   6.153   4.618
 2560SOL    HW2 9578   2.988   6.055   4.640
 2561SOL     OW 9579  13.090   5.819  10.456
 2561SOL    HW1 9580  13.123   5.866  10.379
 2561SOL    HW2 9581  13.043   5.744  10.420
 2562SOL     OW 9582   1.942  12.087   3.706
 2562SOL    HW1 9583   1.878  12.016   3.719
 2562SOL    HW2 9584   1.899  12.147   3.646
 2563SOL     OW 9585  14.631   9.754   1.219
 2563SOL    HW1 9586  14.598   9.665   1.231
 2563SOL    HW2 9587  14.630   9.792   1.307
 2564SOL     OW 9588   4.209  14.107   6.612
 2564SOL    HW1 9589   4.292  14.097   6.659
 2564SOL    HW2 9590   4.217  14.191   6.567
 2565SOL     OW 9591  12.951   0.154   3.965
 2565SOL    HW1 9592  12.995   0.237   3.943
 2565SOL    HW2 9593  12.894   0.137   3.891
 2566SOL     OW 9594   2.487   1.611   6.130
 2566SOL    HW1 9595   2.443   1.560   6.199
 2566SOL    HW2 9596   2.491   1.700   6.165
 2567SOL     OW 9597  10.115   1.622   0.986
 2567SOL    HW1 9598  10.082   1.576   0.909
 2567SOL    HW2 9599  10.136   1.553   1.048
 2568SOL     OW 9600   8.313   4.607   5.124
 2568SOL    HW1 9601   8.395   4.567   5.095
 2568SOL    HW2 9602   8.273   4.542   5.180
 2569SOL     OW 9603   8.560   8.465   1.829
 2569SOL    HW1 9604   8.543   8.550   1.787
 2569SOL    HW2 9605   8.505   8.466   1.907
 2570SOL     OW 9606   1.159   2.159   1.513
 2570SOL    HW1 9607   1.234   2.211   1.485
 2570SOL    HW2 9608   1.197   2.085   1.560
 2571SOL     OW 9609   5.758   2.908   8.001
 2571SOL    HW1 9610   5.846   2.944   7.988
 2571SOL    HW2 9611   5.704   2.983   8.022
 2572SOL     OW 9612  11.487   2.523   8.729
 2572SOL    HW1 9613  11.511   2.435   8.703
 2572SOL    HW2 9614  11.419   2.510   8.796
 2573SOL     OW 9615   5.640   9.548  14.690
 2573SOL    HW1 9616   5.581   9.472  14.685
 2573SOL    HW2 9617   5.723   9.511  14.719
 2574SOL     OW 9618   9.312   5.134  14.174
 2574SOL    HW1 9619   9.359   5.173  14.248
 2574SOL    HW2 9620   9.341   5.043  14.173
 2575SOL     OW 9621  12.987   8.335   8.216
 2575SOL    HW1 9622  13.052   8.370   8.276
 2575SOL    HW2 9623  13.027   8.343   8.130
 2576SOL     OW 9624  10.850  14.612   3.022
 2576SOL    HW1 9625  10.823  14.536   2.970
 2576SOL    HW2 9626  10.924  14.580   3.075
 2577SOL     OW 9627   9.705   5.083   4.035
 2577SOL    HW1 9628   9.747   5.124   3.960
 2577SOL    HW2 9629   9.630   5.037   3.999
 2578SOL     OW 9630   8.927  12.985   0.177
 2578SOL    HW1 9631   9.001  13.022   0.227
 2578SOL    HW2 9632   8.867  13.058   0.165
 2579SOL     OW 9633  10.578  13.725  11.254
 2579SOL    HW1 9634  10.650  13.661  11.254
 2579SOL    HW2 9635  10.582  13.765  11.340
 2580SOL     OW 9636   1.215   2.691   9.811
 2580SOL    HW1 9637   1.176   2.632   9.747
 2580SOL    HW2 9638   1.147   2.707   9.876
 2581SOL     OW 9639   2.220   2.002   0.933
 2581SOL    HW1 9640   2.226   2.020   0.839
 2581SOL    HW2 9641   2.223   2.089   0.974
 2582SOL     OW 9642   4.564   2.672  14.086
 2582SOL    HW1 9643   4.566   2.718  14.002
 2582SOL    HW2 9644   4.597   2.585  14.067
 2583SOL     OW 9645   7.533   5.293  12.200
 2583SOL    HW1 9646   7.506   5.266  12.288
 2583SOL    HW2 9647   7.455   5.332  12.161
 2584SOL     OW 9648  13.515   3.160   3.613
 2584SOL    HW1 9649  13.540   3.191   3.700
 2584SOL    HW2 9650  13.468   3.233   3.573
 2585SOL     OW 9651  11.641  10.968   8.171
 2585SOL    HW1 9652  11.563  10.912   8.173
 2585SOL    HW2 9653  11.657  10.984   8.078
 2586SOL     OW 9654   1.962  14.035   0.247
 2586SOL    HW1 9655   1.970  14.130   0.246
 2586SOL    HW2 9656   1.873  14.019   0.278
 2587SOL     OW 9657   5.599  13.683  14.119
 2587SOL    HW1 9658   5.551  13.600  14.112
 2587SOL    HW2 9659   5.666  13.666  14.185
 2588SOL     OW 9660   5.914  14.805   0.394
 2588SOL    HW1 9661   5.913  14.834   0.485
 2588SOL    HW2 9662   5.908   0.016   0.343
 2589SOL     OW 9663   1.602   7.907  12.754
 2589SOL    HW1 9664   1.527   7.955  12.719
 2589SOL    HW2 9665   1.587   7.905  12.849
 2590SOL     OW 9666  13.021  12.435   4.798
 2590SOL    HW1 9667  13.029  12.483   4.715
 2590SOL    HW2 9668  13.053  12.496   4.864
 2591SOL     OW 9669   8.110   0.467   0.991
 2591SOL    HW1 9670   8.177   0.502   1.051
 2591SOL    HW2 9671   8.144   0.487   0.904
 2592SOL     OW 9672   1.610   1.839  11.251
 2592SOL    HW1 9673   1.669   1.794  11.191
 2592SOL    HW2 9674   1.522   1.808  11.226
 2593SOL     OW 9675  11.190  10.617   0.357
 2593SOL    HW1 9676  11.124  10.566   0.310
 2593SOL    HW2 9677  11.258  10.554   0.379
 2594SOL     OW 9678   8.099   3.927   6.089
 2594SOL    HW1 9679   8.180   3.949   6.136
 2594SOL    HW2 9680   8.129   3.894   6.004
 2595SOL     OW 9681   4.743   6.863  14.144
 2595SOL    HW1 9682   4.652   6.848  14.167
 2595SOL    HW2 9683   4.779   6.912  14.218
 2596SOL     OW 9684   7.588   8.428   5.521
 2596SOL    HW1 9685   7.505   8.382   5.529
 2596SOL    HW2 9686   7.612   8.418   5.429
 2597SOL     OW 9687  11.312  11.103   7.596
 2597SOL    HW1 9688  11.223  11.110   7.563
 2597SOL    HW2 9689  11.303  11.105   7.691
 2598SOL     OW 9690  11.959   2.869   0.939
 2598SOL    HW1 9691  12.048   2.850   0.910
 2598SOL    HW2 9692  11.914   2.897   0.859
 2599SOL     OW 9693   0.938   5.796   0.710
 2599SOL    HW1 9694   0.937   5.835   0.622
 2599SOL    HW2 9695   0.917   5.869   0.768
 2600SOL     OW 9696  12.917  10.108   7.483
 2600SOL    HW1 9697  12.828  10.121   7.449
 2600SOL    HW2 9698  12.962  10.191   7.464
 2601SOL     OW 9699   7.275   9.185  13.204
 2601SOL    HW1 9700   7.264   9.174  13.298
 2601SOL    HW2 9701   7.366   9.160  13.187
 2602SOL     OW 9702   1.995   5.798   5.733
 2602SOL    HW1 9703   1.932   5.775   5.664
 2602SOL    HW2 9704   1.942   5.844   5.799
 2603SOL     OW 9705  13.664   4.899   1.595
 2603SOL    HW1 9706  13.716   4.818   1.596
 2603SOL    HW2 9707  13.608   4.892   1.672
 2604SOL     OW 9708  14.432  10.357   6.414
 2604SOL    HW1 9709  14.417  10.266   6.442
 2604SOL    HW2 9710  14.344  10.392   6.401
 2605SOL     OW 9711   2.254   5.792  11.642
 2605SOL    HW1 9712   2.324   5.840  11.598
 2605SOL    HW2 9713   2.174   5.820  11.599
 2606SOL     OW 9714  12.713  12.662   2.864
 2606SOL    HW1 9715  12.742  12.754   2.864
 2606SOL    HW2 9716  12.749  12.626   2.944
 2607SOL     OW 9717   6.893   9.002  12.339
 2607SOL    HW1 9718   6.866   9.009  12.431
 2607SOL    HW2 9719   6.946   9.079  12.324
 2608SOL     OW 9720  11.235   5.396   8.047
 2608SOL    HW1 9721  11.143   5.389   8.023
 2608SOL    HW2 9722  11.234   5.440   8.132
 2609SOL     OW 9723  10.250  14.522   9.449
 2609SOL    HW1 9724  10.185  14.537   9.381
 2609SOL    HW2 9725  10.305  14.600   9.447
 2610SOL     OW 9726   0.772  10.163   0.357
 2610SOL    HW1 9727   0.707  10.233   0.356
 2610SOL    HW2 9728   0.818  10.171   0.274
 2611SOL     OW 9729  10.629  13.617   8.794
 2611SOL    HW1 9730  10.655  13.530   8.764
 2611SOL    HW2 9731  10.654  13.675   8.722
 2612SOL     OW 9732   6.647   0.600   9.293
 2612SOL    HW1 9733   6.705   0.649   9.234
 2612SOL    HW2 9734   6.645   0.512   9.256
 2613SOL     OW 9735   2.542  11.345   0.491
 2613SOL    HW1 9736   2.466  11.394   0.461
 2613SOL    HW2 9737   2.509  11.285   0.558
 2614SOL     OW 9738  10.068   9.864   4.437
 2614SOL    HW1 9739  10.151   9.824   4.463
 2614SOL    HW2 9740  10.002   9.820   4.492
 2615SOL     OW 9741   7.600   2.520  11.022
 2615SOL    HW1 9742   7.533   2.542  10.957
 2615SOL    HW2 9743   7.679   2.564  10.990
 2616SOL     OW 9744   8.044  12.009   9.791
 2616SOL    HW1 9745   8.022  12.000   9.699
 2616SOL    HW2 9746   7.992  12.083   9.822
 2617SOL     OW 9747   1.309  12.338   6.090
 2617SOL    HW1 9748   1.347  12.423   6.115
 2617SOL    HW2 9749   1.321  12.333   5.996
 2618SOL     OW 9750   8.172   4.339   7.949
 2618SOL    HW1 9751   8.100   4.323   8.009
 2618SOL    HW2 9752   8.194   4.432   7.961
 2619SOL     OW 9753   1.297   2.680   5.646
 2619SOL    HW1 9754   1.283   2.619   5.574
 2619SOL    HW2 9755   1.294   2.767   5.606
 2620SOL     OW 9756   9.943   0.920  14.781
 2620SOL    HW1 9757  10.010   0.948  14.842
 2620SOL    HW2 9758   9.892   0.999  14.763
 2621SOL     OW 9759   5.206   0.404  12.312
 2621SOL    HW1 9760   5.142   0.367  12.373
 2621SOL    HW2 9761   5.247   0.475  12.361
 2622SOL     OW 9762  14.323   8.090   7.987
 2622SOL    HW1 9763  14.374   8.064   8.064
 2622SOL    HW2 9764  14.247   8.032   7.989
 2623SOL     OW 9765   0.453  12.150   4.426
 2623SOL    HW1 9766   0.412  12.166   4.511
 2623SOL    HW2 9767   0.381  12.155   4.364
 2624SOL     OW 9768   1.519   9.889  11.869
 2624SOL    HW1 9769   1.605   9.851  11.849
 2624SOL    HW2 9770   1.535   9.983  11.874
 2625SOL     OW 9771   3.097   1.200   2.201
 2625SOL    HW1 9772   3.036   1.220   2.129
 2625SOL    HW2 9773   3.181   1.186   2.158
 2626SOL     OW 9774   0.974   2.037   3.771
 2626SOL    HW1 9775   0.908   1.968   3.775
 2626SOL    HW2 9776   0.948   2.091   3.696
 2627SOL     OW 9777  13.921  13.710   8.162
 2627SOL    HW1 9778  13.875  13.627   8.172
 2627SOL    HW2 9779  13.864  13.775   8.203
 2628SOL     OW 9780   5.338  10.178   8.410
 2628SOL    HW1 9781   5.297  10.260   8.440
 2628SOL    HW2 9782   5.428  10.184   8.442
 2629SOL     OW 9783  10.485   6.573   3.468
 2629SOL    HW1 9784  10.435   6.538   3.541
 2629SOL    HW2 9785  10.439   6.653   3.442
 2630SOL     OW 9786  11.081  10.389   5.200
 2630SOL    HW1 9787  11.079  10.297   5.226
 2630SOL    HW2 9788  11.173  10.414   5.204
 2631SOL     OW 9789  10.551  11.746   8.736
 2631SOL    HW1 9790  10.476  11.726   8.791
 2631SOL    HW2 9791  10.527  11.828   8.692
 2632SOL     OW 9792   5.727  12.179   3.920
 2632SOL    HW1 9793   5.755  12.264   3.955
 2632SOL    HW2 9794   5.632  12.179   3.930
 2633SOL     OW 9795   2.057   9.015   1.118
 2633SOL    HW1 9796   2.107   8.956   1.061
 2633SOL    HW2 9797   2.104   9.098   1.114
 2634SOL     OW 9798   4.271   9.005   3.382
 2634SOL    HW1 9799   4.312   9.052   3.454
 2634SOL    HW2 9800   4.329   9.022   3.307
 2635SOL     OW 9801  10.389   8.512  14.411
 2635SOL    HW1 9802  10.397   8.547  14.322
 2635SOL    HW2 9803  10.385   8.418  14.399
 2636SOL     OW 9804   5.234   9.040  11.465
 2636SOL    HW1 9805   5.261   8.967  11.520
 2636SOL    HW2 9806   5.236   9.005  11.376
 2637SOL     OW 9807   4.532   6.664   2.583
 2637SOL    HW1 9808   4.482   6.642   2.661
 2637SOL    HW2 9809   4.623   6.663   2.613
 2638SOL     OW 9810  13.293   7.521   2.077
 2638SOL    HW1 9811  13.215   7.524   2.021
 2638SOL    HW2 9812  13.307   7.428   2.093
 2639SOL     OW 9813   6.853   5.006   0.452
 2639SOL    HW1 9814   6.945   5.033   0.452
 2639SOL    HW2 9815   6.839   4.970   0.365
 2640SOL     OW 9816   8.422   7.719   1.854
 2640SOL    HW1 9817   8.365   7.790   1.881
 2640SOL    HW2 9818   8.404   7.649   1.917
 2641SOL     OW 9819   2.837   7.312   0.339
 2641SOL    HW1 9820   2.774   7.243   0.360
 2641SOL    HW2 9821   2.783   7.383   0.304
 2642SOL     OW 9822   6.482   3.145   2.009
 2642SOL    HW1 9823   6.536   3.192   1.946
 2642SOL    HW2 9824   6.414   3.207   2.034
 2643SOL     OW 9825   9.514   0.883  12.261
 2643SOL    HW1 9826   9.609   0.875  12.252
 2643SOL    HW2 9827   9.497   0.977  12.251
 2644SOL     OW 9828   1.683   2.628  10.341
 2644SOL    HW1 9829   1.657   2.558  10.282
 2644SOL    HW2 9830   1.604   2.647  10.392
 2645SOL     OW 9831   5.658   1.927  11.558
 2645SOL    HW1 9832   5.619   2.002  11.513
 2645SOL    HW2 9833   5.586   1.865  11.568
 2646SOL     OW 9834  10.699   2.428   3.177
 2646SOL    HW1 9835  10.693   2.332   3.186
 2646SOL    HW2 9836  10.621   2.452   3.127
 2647SOL     OW 9837   8.391   5.486   5.855
 2647SOL    HW1 9838   8.454   5.440   5.912
 2647SOL    HW2 9839   8.309   5.437   5.866
 2648SOL     OW 9840   3.581   0.196   8.699
 2648SOL    HW1 9841   3.590   0.119   8.642
 2648SOL    HW2 9842   3.554   0.160   8.783
 2649SOL     OW 9843  13.451  10.256   4.820
 2649SOL    HW1 9844  13.417  10.167   4.830
 2649SOL    HW2 9845  13.546  10.247   4.832
 2650SOL     OW 9846   1.814  13.186   0.782
 2650SOL    HW1 9847   1.877  13.115   0.776
 2650SOL    HW2 9848   1.763  13.167   0.860
 2651SOL     OW 9849   0.856   7.610  10.205
 2651SOL    HW1 9850   0.786   7.674  10.216
 2651SOL    HW2 9851   0.848   7.552  10.281
 2652SOL     OW 9852  13.474  14.011   7.463
 2652SOL    HW1 9853  13.405  13.972   7.410
 2652SOL    HW2 9854  13.538  14.043   7.400
 2653SOL     OW 9855   9.588  12.506   1.816
 2653SOL    HW1 9856   9.559  12.455   1.891
 2653SOL    HW2 9857   9.508  12.526   1.768
 2654SOL     OW 9858   0.350   0.524  14.483
 2654SOL    HW1 9859   0.395   0.607  14.465
 2654SOL    HW2 9860   0.257   0.548  14.488
 2655SOL     OW 9861  14.821  13.307  14.007
 2655SOL    HW1 9862  14.767  13.320  13.928
 2655SOL    HW2 9863  14.777  13.238  14.055
 2656SOL     OW 9864   3.459   7.476   9.333
 2656SOL    HW1 9865   3.368   7.504   9.324
 2656SOL    HW2 9866   3.510   7.553   9.306
 2657SOL     OW 9867   1.046  14.045   7.652
 2657SOL    HW1 9868   1.109  13.974   7.655
 2657SOL    HW2 9869   1.026  14.064   7.743
 2658SOL     OW 9870   2.181   1.199   3.867
 2658SOL    HW1 9871   2.154   1.163   3.951
 2658SOL    HW2 9872   2.197   1.122   3.812
 2659SOL     OW 9873   7.259   2.060  11.568
 2659SOL    HW1 9874   7.257   1.981  11.513
 2659SOL    HW2 9875   7.300   2.126  11.514
 2660SOL     OW 9876   7.957   2.039   0.240
 2660SOL    HW1 9877   8.038   2.002   0.275
 2660SOL    HW2 9878   7.904   1.963   0.217
 2661SOL     OW 9879   4.250   3.913  10.176
 2661SOL    HW1 9880   4.161   3.881  10.160
 2661SOL    HW2 9881   4.255   3.995  10.127
 2662SOL     OW 9882   2.896   3.982   8.103
 2662SOL    HW1 9883   2.859   4.070   8.110
 2662SOL    HW2 9884   2.990   3.997   8.093
 2663SOL     OW 9885   8.259   2.834   7.652
 2663SOL    HW1 9886   8.335   2.887   7.628
 2663SOL    HW2 9887   8.277   2.805   7.741
 2664SOL     OW 9888  14.552   4.076  10.784
 2664SOL    HW1 9889  14.613   4.093  10.856
 2664SOL    HW2 9890  14.581   3.993  10.748
 2665SOL     OW 9891   9.129  12.186   0.479
 2665SOL    HW1 9892   9.155  12.099   0.510
 2665SOL    HW2 9893   9.160  12.189   0.388
 2666SOL     OW 9894  12.592   3.035   1.043
 2666SOL    HW1 9895  12.508   3.080   1.048
 2666SOL    HW2 9896  12.588   2.970   1.113
 2667SOL     OW 9897  14.223   4.338  10.411
 2667SOL    HW1 9898  14.256   4.359  10.324
 2667SOL    HW2 9899  14.301   4.311  10.460
 2668SOL     OW 9900  10.881   9.429   5.610
 2668SOL    HW1 9901  10.793   9.404   5.585
 2668SOL    HW2 9902  10.920   9.348   5.645
 2669SOL     OW 9903  14.044   0.495   8.975
 2669SOL    HW1 9904  14.105   0.473   8.905
 2669SOL    HW2 9905  13.979   0.424   8.973
 2670SOL     OW 9906   3.471  14.055  11.306
 2670SOL    HW1 9907   3.561  14.070  11.337
 2670SOL    HW2 9908   3.467  13.961  11.288
 2671SOL     OW 9909  13.503  13.566   0.850
 2671SOL    HW1 9910  13.469  13.478   0.864
 2671SOL    HW2 9911  13.579  13.554   0.793
 2672SOL     OW 9912   9.353  11.625  11.177
 2672SOL    HW1 9913   9.372  11.628  11.083
 2672SOL    HW2 9914   9.408  11.693  11.215
 2673SOL     OW 9915   0.407   0.977   5.778
 2673SOL    HW1 9916   0.324   0.998   5.736
 2673SOL    HW2 9917   0.400   0.885   5.801
 2674SOL     OW 9918   8.675  12.943   1.734
 2674SOL    HW1 9919   8.641  13.005   1.799
 2674SOL    HW2 9920   8.768  12.937   1.754
 2675SOL     OW 9921   0.240   0.678   8.825
 2675SOL    HW1 9922   0.263   0.651   8.736
 2675SOL    HW2 9923   0.160   0.629   8.844
 2676SOL     OW 9924  10.847  12.886   7.568
 2676SOL    HW1 9925  10.931  12.873   7.613
 2676SOL    HW2 9926  10.839  12.981   7.561
 2677SOL     OW 9927  14.248   0.681   6.246
 2677SOL    HW1 9928  14.181   0.729   6.197
 2677SOL    HW2 9929  14.264   0.735   6.324
 2678SOL     OW 9930   9.010   3.811   8.161
 2678SOL    HW1 9931   8.916   3.826   8.168
 2678SOL    HW2 9932   9.047   3.860   8.234
 2679SOL     OW 9933   2.742   9.398   3.071
 2679SOL    HW1 9934   2.672   9.360   3.019
 2679SOL    HW2 9935   2.815   9.408   3.010
 2680SOL     OW 9936   1.440   5.877  13.763
 2680SOL    HW1 9937   1.456   5.965  13.727
 2680SOL    HW2 9938   1.372   5.840  13.706
 2681SOL     OW 9939   9.274   1.671  10.382
 2681SOL    HW1 9940   9.226   1.595  10.415
 2681SOL    HW2 9941   9.221   1.703  10.309
 2682SOL     OW 9942   6.785  12.326   2.797
 2682SOL    HW1 9943   6.877  12.298   2.796
 2682SOL    HW2 9944   6.785  12.408   2.747
 2683SOL     OW 9945   8.459   7.711   7.030
 2683SOL    HW1 9946   8.490   7.665   7.108
 2683SOL    HW2 9947   8.530   7.772   7.008
 2684SOL     OW 9948   5.805   8.621  12.625
 2684SOL    HW1 9949   5.722   8.641  12.668
 2684SOL    HW2 9950   5.788   8.640  12.532
 2685SOL     OW 9951  14.648   8.468   6.136
 2685SOL    HW1 9952  14.621   8.381   6.108
 2685SOL    HW2 9953  14.739   8.475   6.109
 2686SOL     OW 9954   4.506  10.836   4.734
 2686SOL    HW1 9955   4.457  10.866   4.657
 2686SOL    HW2 9956   4.460  10.757   4.762
 2687SOL     OW 9957  10.332  13.476   1.654
 2687SOL    HW1 9958  10.334  13.443   1.743
 2687SOL    HW2 9959  10.403  13.540   1.650
 2688SOL     OW 9960   4.628   9.381  11.625
 2688SOL    HW1 9961   4.708   9.340  11.591
 2688SOL    HW2 9962   4.632   9.471  11.594
 2689SOL     OW 9963   9.876   0.697   6.328
 2689SOL    HW1 9964   9.920   0.678   6.245
 2689SOL    HW2 9965   9.784   0.705   6.304
 2690SOL     OW 9966   8.604   6.426  12.626
 2690SOL    HW1 9967   8.639   6.501  12.579
 2690SOL    HW2 9968   8.673   6.401  12.687
 2691SOL     OW 9969  11.883   0.950   0.531
 2691SOL    HW1 9970  11.907   0.981   0.444
 2691SOL    HW2 9971  11.818   0.881   0.515
 2692SOL     OW 9972  10.463   3.996   8.219
 2692SOL    HW1 9973  10.521   4.072   8.220
 2692SOL    HW2 9974  10.503   3.938   8.154
 2693SOL     OW 9975   5.128   2.308   4.638
 2693SOL    HW1 9976   5.204   2.307   4.580
 2693SOL    HW2 9977   5.159   2.266   4.719
 2694SOL     OW 9978   5.647   1.867   5.194
 2694SOL    HW1 9979   5.604   1.799   5.142
 2694SOL    HW2 9980   5.715   1.821   5.242
 2695SOL     OW 9981   6.772   4.448   5.911
 2695SOL    HW1 9982   6.706   4.387   5.878
 2695SOL    HW2 9983   6.817   4.478   5.832
 2696SOL     OW 9984   2.833   3.296   7.474
 2696SOL    HW1 9985   2.918   3.263   7.502
 2696SOL    HW2 9986   2.836   3.390   7.491
 2697SOL     OW 9987   8.932   0.179   5.108
 2697SOL    HW1 9988   8.888   0.260   5.080
 2697SOL    HW2 9989   8.896   0.162   5.195
 2698SOL     OW 9990   4.453   2.488   0.020
 2698SOL    HW1 9991   4.468   2.577   0.050
 2698SOL    HW2 9992   4.520   2.436   0.065
 2699SOL     OW 9993   6.062   9.102   6.134
 2699SOL    HW1 9994   5.985   9.158   6.138
 2699SOL    HW2 9995   6.055   9.045   6.210
 2700SOL     OW 9996  12.688  11.214   1.160
 2700SOL    HW1 9997  12.721  11.157   1.229
 2700SOL    HW2 9998  12.621  11.163   1.116
 2701SOL     OW 9999   9.894  12.334   7.755
 2701SOL    HW110000   9.852  12.294   7.678
 2701SOL    HW210001   9.866  12.279   7.828
 2702SOL     OW10002   4.123   0.065   5.363
 2702SOL    HW110003   4.114   0.049   5.457
 2702SOL    HW210004   4.124   0.161   5.355
 2703SOL     OW10005   9.135  14.498   0.923
 2703SOL    HW110006   9.126  14.588   0.956
 2703SOL    HW210007   9.110  14.504   0.831
 2704SOL     OW10008  10.956   7.618  11.072
 2704SOL    HW110009  10.884   7.679  11.058
 2704SOL    HW210010  10.914   7.540  11.109
 2705SOL     OW10011   4.107  13.194   0.907
 2705SOL    HW110012   4.170  13.175   0.837
 2705SOL    HW210013   4.162  13.216   0.983
 2706SOL     OW10014   5.018   9.316  12.837
 2706SOL    HW110015   5.036   9.356  12.752
 2706SOL    HW210016   4.991   9.389  12.892
 2707SOL     OW10017   5.881  11.657   3.019
 2707SOL    HW110018   5.826  11.606   2.960
 2707SOL    HW210019   5.925  11.593   3.074
 2708SOL     OW10020   0.021   8.013   3.354
 2708SOL    HW110021   0.043   8.105   3.371
 2708SOL    HW210022  14.848   7.983   3.434
 2709SOL     OW10023   8.953   7.688   1.262
 2709SOL    HW110024   8.878   7.630   1.276
 2709SOL    HW210025   8.939   7.725   1.175
 2710SOL     OW10026   6.982   1.875  12.808
 2710SOL    HW110027   7.035   1.802  12.838
 2710SOL    HW210028   7.044   1.946  12.793
 2711SOL     OW10029   8.110   1.596   4.012
 2711SOL    HW110030   8.088   1.555   4.095
 2711SOL    HW210031   8.053   1.673   4.007
 2712SOL     OW10032   1.324  14.869   6.208
 2712SOL    HW110033   1.230   0.007   6.224
 2712SOL    HW210034   1.342  14.775   6.215
 2713SOL     OW10035   0.597  11.452  10.892
 2713SOL    HW110036   0.587  11.361  10.866
 2713SOL    HW210037   0.508  11.487  10.896
 2714SOL     OW10038   5.964  10.023  11.798
 2714SOL    HW110039   5.912  10.092  11.757
 2714SOL    HW210040   5.916  10.002  11.878
 2715SOL     OW10041   5.639   9.632   6.462
 2715SOL    HW110042   5.717   9.659   6.414
 2715SOL    HW210043   5.621   9.704   6.523
 2716SOL     OW10044  13.225   5.696   0.825
 2716SOL    HW110045  13.202   5.636   0.755
 2716SOL    HW210046  13.317   5.676   0.844
 2717SOL     OW10047  12.775   6.442   1.145
 2717SOL    HW110048  12.733   6.525   1.119
 2717SOL    HW210049  12.786   6.395   1.063
 2718SOL     OW10050  11.816   4.914   0.875
 2718SOL    HW110051  11.866   4.896   0.955
 2718SOL    HW210052  11.881   4.949   0.813
 2719SOL     OW10053  10.539   1.594  13.280
 2719SOL    HW110054  10.630   1.582  13.307
 2719SOL    HW210055  10.496   1.630  13.357
 2720SOL     OW10056   3.401   0.044  10.141
 2720SOL    HW110057   3.319   0.074  10.181
 2720SOL    HW210058   3.377  14.831  10.098
 2721SOL     OW10059   1.377   9.870   2.382
 2721SOL    HW110060   1.328   9.827   2.312
 2721SOL    HW210061   1.466   9.876   2.347
 2722SOL     OW10062   5.465  10.219  13.729
 2722SOL    HW110063   5.437  10.180  13.646
 2722SOL    HW210064   5.560  10.216  13.726
 2723SOL     OW10065  11.513   0.858  10.656
 2723SOL    HW110066  11.572   0.864  10.731
 2723SOL    HW210067  11.470   0.773  10.665
 2724SOL     OW10068  10.345   2.621   0.994
 2724SOL    HW110069  10.371   2.712   0.974
 2724SOL    HW210070  10.367   2.573   0.914
 2725SOL     OW10071   5.140  14.492   9.997
 2725SOL    HW110072   5.201  14.441   9.942
 2725SOL    HW210073   5.125  14.437  10.073
 2726SOL     OW10074   1.693   6.019  10.448
 2726SOL    HW110075   1.678   5.943  10.392
 2726SOL    HW210076   1.707   5.982  10.535
 2727SOL     OW10077  10.560   0.289   7.056
 2727SOL    HW110078  10.645   0.245   7.051
 2727SOL    HW210079  10.502   0.234   7.004
 2728SOL     OW10080   0.415   9.347  11.343
 2728SOL    HW110081   0.478   9.420  11.342
 2728SOL    HW210082   0.356   9.367  11.270
 2729SOL     OW10083   8.829  14.316   9.363
 2729SOL    HW110084   8.813  14.327   9.457
 2729SOL    HW210085   8.812  14.403   9.326
 2730SOL     OW10086  10.317   8.383  10.064
 2730SOL    HW110087  10.279   8.374  10.152
 2730SOL    HW210088  10.365   8.302  10.049
 2731SOL     OW10089   3.060   8.799   3.782
 2731SOL    HW110090   3.012   8.718   3.799
 2731SOL    HW210091   3.113   8.812   3.860
 2732SOL     OW10092   5.536  10.217  14.144
 2732SOL    HW110093   5.467  10.230  14.080
 2732SOL    HW210094   5.617  10.217  14.093
 2733SOL     OW10095   4.914   0.284  14.305
 2733SOL    HW110096   4.825   0.319  14.314
 2733SOL    HW210097   4.961   0.351  14.256
 2734SOL     OW10098   9.959   4.962  14.717
 2734SOL    HW110099  10.022   5.030  14.695
 2734SOL    HW210100   9.995   4.882  14.678
 2735SOL     OW10101   6.229  12.732   0.004
 2735SOL    HW110102   6.226  12.700  14.783
 2735SOL    HW210103   6.304  12.792   0.006
 2736SOL     OW10104   6.115   0.344  13.331
 2736SOL    HW110105   6.170   0.419  13.355
 2736SOL    HW210106   6.106   0.350  13.236
 2737SOL     OW10107  11.313   5.280  12.781
 2737SOL    HW110108  11.336   5.370  12.759
 2737SOL    HW210109  11.219   5.274  12.766
 2738SOL     OW10110   8.369   5.141   1.013
 2738SOL    HW110111   8.371   5.131   0.918
 2738SOL    HW210112   8.429   5.074   1.046
 2739SOL     OW10113  12.131   3.456   1.382
 2739SOL    HW110114  12.116   3.550   1.393
 2739SOL    HW210115  12.054   3.415   1.423
 2740SOL     OW10116   3.458  12.431   8.018
 2740SOL    HW110117   3.413  12.507   7.981
 2740SOL    HW210118   3.440  12.437   8.112
 2741SOL     OW10119   8.508   1.073   9.023
 2741SOL    HW110120   8.511   1.150   8.966
 2741SOL    HW210121   8.585   1.081   9.079
 2742SOL     OW10122   9.002   3.875   7.327
 2742SOL    HW110123   8.957   3.806   7.375
 2742SOL    HW210124   8.980   3.859   7.235
 2743SOL     OW10125   5.084   4.628  14.093
 2743SOL    HW110126   5.158   4.686  14.072
 2743SOL    HW210127   5.007   4.685  14.087
 2744SOL     OW10128   1.018   3.084   3.466
 2744SOL    HW110129   1.017   2.991   3.489
 2744SOL    HW210130   1.102   3.097   3.422
 2745SOL     OW10131  11.852   3.302  14.578
 2745SOL    HW110132  11.860   3.365  14.507
 2745SOL    HW210133  11.833   3.356  14.655
 2746SOL     OW10134   8.102  12.650  13.356
 2746SOL    HW110135   8.018  12.689  13.331
 2746SOL    HW210136   8.152  12.645  13.275
 2747SOL     OW10137   0.033  12.654   1.049
 2747SOL    HW110138   0.110  12.610   1.013
 2747SOL    HW210139  14.829  12.619   0.999
 2748SOL     OW10140  14.770   3.272  14.116
 2748SOL    HW110141  14.695   3.274  14.057
 2748SOL    HW210142  14.776   3.362  14.150
 2749SOL     OW10143  14.000   5.487  12.121
 2749SOL    HW110144  14.076   5.494  12.179
 2749SOL    HW210145  14.027   5.428  12.051
 2750SOL     OW10146   7.412   4.572  13.738
 2750SOL    HW110147   7.486   4.613  13.692
 2750SOL    HW210148   7.444   4.559  13.828
 2751SOL     OW10149   5.052  12.967  10.308
 2751SOL    HW110150   5.112  12.964  10.233
 2751SOL    HW210151   5.104  12.931  10.381
 2752SOL     OW10152   8.882  12.344  13.390
 2752SOL    HW110153   8.930  12.276  13.437
 2752SOL    HW210154   8.790  12.326  13.406
 2753SOL     OW10155  11.413   7.919  11.445
 2753SOL    HW110156  11.327   7.919  11.403
 2753SOL    HW210157  11.409   7.992  11.507
 2754SOL     OW10158  12.523   2.422   9.356
 2754SOL    HW110159  12.603   2.467   9.384
 2754SOL    HW210160  12.554   2.345   9.309
 2755SOL     OW10161  12.779   3.943   7.386
 2755SOL    HW110162  12.781   4.018   7.327
 2755SOL    HW210163  12.740   3.873   7.334
 2756SOL     OW10164  14.265   1.042  12.621
 2756SOL    HW110165  14.286   1.070  12.710
 2756SOL    HW210166  14.169   1.048  12.616
 2757SOL     OW10167   0.441   8.230  14.567
 2757SOL    HW110168   0.451   8.149  14.517
 2757SOL    HW210169   0.359   8.218  14.616
 2758SOL     OW10170   5.763   2.174   0.028
 2758SOL    HW110171   5.763   2.108  14.829
 2758SOL    HW210172   5.851   2.212   0.026
 2759SOL     OW10173   5.325   8.741   4.557
 2759SOL    HW110174   5.256   8.688   4.516
 2759SOL    HW210175   5.332   8.706   4.645
 2760SOL     OW10176   8.204   7.729   4.323
 2760SOL    HW110177   8.249   7.708   4.242
 2760SOL    HW210178   8.271   7.770   4.378
 2761SOL     OW10179  13.983  10.702  10.955
 2761SOL    HW110180  13.973  10.684  11.049
 2761SOL    HW210181  14.076  10.690  10.937
 2762SOL     OW10182  11.136   3.757   5.833
 2762SOL    HW110183  11.169   3.672   5.804
 2762SOL    HW210184  11.171   3.819   5.769
 2763SOL     OW10185  14.149   5.497   1.738
 2763SOL    HW110186  14.090   5.509   1.812
 2763SOL    HW210187  14.102   5.532   1.663
 2764SOL     OW10188   5.144   1.459  14.214
 2764SOL    HW110189   5.228   1.415  14.205
 2764SOL    HW210190   5.123   1.452  14.307
 2765SOL     OW10191  14.126   9.401  11.022
 2765SOL    HW110192  14.201   9.343  11.034
 2765SOL    HW210193  14.066   9.378  11.092
 2766SOL     OW10194   9.383   3.114  12.313
 2766SOL    HW110195   9.426   3.030  12.330
 2766SOL    HW210196   9.452   3.169  12.274
 2767SOL     OW10197  12.356   5.937   0.776
 2767SOL    HW110198  12.394   5.851   0.792
 2767SOL    HW210199  12.286   5.921   0.713
 2768SOL     OW10200  11.937   1.684  12.601
 2768SOL    HW110201  12.008   1.658  12.543
 2768SOL    HW210202  11.916   1.605  12.651
 2769SOL     OW10203   8.793   8.014   2.063
 2769SOL    HW110204   8.793   7.941   2.125
 2769SOL    HW210205   8.844   8.083   2.107
 2770SOL     OW10206  11.313  10.247   3.754
 2770SOL    HW110207  11.266  10.314   3.803
 2770SOL    HW210208  11.379  10.296   3.705
 2771SOL     OW10209  10.863   9.774   4.754
 2771SOL    HW110210  10.906   9.754   4.671
 2771SOL    HW210211  10.769   9.773   4.734
 2772SOL     OW10212  10.981  11.704   5.663
 2772SOL    HW110213  10.985  11.611   5.642
 2772SOL    HW210214  11.067  11.724   5.701
 2773SOL     OW10215   0.016   5.771  13.162
 2773SOL    HW110216   0.089   5.796  13.105
 2773SOL    HW210217  14.834   5.710  13.109
 2774SOL     OW10218   8.970   2.648   5.691
 2774SOL    HW110219   9.062   2.666   5.710
 2774SOL    HW210220   8.938   2.728   5.649
 2775SOL     OW10221  10.068  10.073  12.627
 2775SOL    HW110222  10.092  10.166  12.622
 2775SOL    HW210223  10.091  10.047  12.717
 2776SOL     OW10224   7.611   7.237   6.213
 2776SOL    HW110225   7.597   7.244   6.308
 2776SOL    HW210226   7.693   7.189   6.205
 2777SOL     OW10227   3.086   1.096   7.439
 2777SOL    HW110228   3.125   1.184   7.444
 2777SOL    HW210229   2.992   1.111   7.441
 2778SOL     OW10230  12.085  14.134   0.421
 2778SOL    HW110231  12.158  14.080   0.452
 2778SOL    HW210232  12.011  14.106   0.474
 2779SOL     OW10233   8.468   3.260  11.722
 2779SOL    HW110234   8.421   3.185  11.759
 2779SOL    HW210235   8.433   3.336  11.769
 2780SOL     OW10236  12.209   3.001  10.857
 2780SOL    HW110237  12.246   2.924  10.814
 2780SOL    HW210238  12.252   3.004  10.943
 2781SOL     OW10239   9.135   2.445   5.912
 2781SOL    HW110240   9.224   2.447   5.947
 2781SOL    HW210241   9.137   2.377   5.844
 2782SOL     OW10242   0.033   9.523  13.039
 2782SOL    HW110243  14.836   9.538  13.105
 2782SOL    HW210244   0.009   9.439  12.999
 2783SOL     OW10245  10.736   2.874   1.264
 2783SOL    HW110246  10.767   2.912   1.182
 2783SOL    HW210247  10.759   2.782   1.258
 2784SOL     OW10248  11.140   5.837  11.761
 2784SOL    HW110249  11.227   5.876  11.751
 2784SOL    HW210250  11.092   5.864  11.684
 2785SOL     OW10251  12.785   7.710   4.245
 2785SOL    HW110252  12.767   7.712   4.339
 2785SOL    HW210253  12.703   7.738   4.204
 2786SOL     OW10254  11.536   8.821  11.898
 2786SOL    HW110255  11.490   8.883  11.841
 2786SOL    HW210256  11.592   8.771  11.838
 2787SOL     OW10257   4.071   0.767  10.381
 2787SOL    HW110258   4.113   0.717  10.311
 2787SOL    HW210259   4.143   0.807  10.429
 2788SOL     OW10260   2.662   4.321   4.736
 2788SOL    HW110261   2.607   4.367   4.800
 2788SOL    HW210262   2.601   4.297   4.666
 2789SOL     OW10263   0.058   1.244  12.125
 2789SOL    HW110264   0.116   1.316  12.100
 2789SOL    HW210265   0.115   1.169  12.138
 2790SOL     OW10266  13.572   8.922   6.116
 2790SOL    HW110267  13.650   8.960   6.075
 2790SOL    HW210268  13.584   8.827   6.107
 2791SOL     OW10269  13.900  13.340  13.647
 2791SOL    HW110270  13.926  13.304  13.732
 2791SOL    HW210271  13.828  13.400  13.668
 2792SOL     OW10272  10.516  13.289   5.087
 2792SOL    HW110273  10.484  13.274   4.998
 2792SOL    HW210274  10.564  13.210   5.110
 2793SOL     OW10275   4.086  14.148   7.037
 2793SOL    HW110276   4.128  14.078   6.986
 2793SOL    HW210277   4.133  14.227   7.012
 2794SOL     OW10278   3.409   0.389   1.449
 2794SOL    HW110279   3.420   0.483   1.439
 2794SOL    HW210280   3.358   0.363   1.372
 2795SOL     OW10281   1.666  11.036   0.436
 2795SOL    HW110282   1.601  11.021   0.368
 2795SOL    HW210283   1.620  11.086   0.503
 2796SOL     OW10284  12.278   8.734  13.749
 2796SOL    HW110285  12.255   8.671  13.817
 2796SOL    HW210286  12.371   8.718  13.733
 2797SOL     OW10287   7.845   4.295   7.133
 2797SOL    HW110288   7.917   4.293   7.070
 2797SOL    HW210289   7.809   4.383   7.127
 2798SOL     OW10290  11.157  14.088  13.729
 2798SOL    HW110291  11.078  14.104  13.677
 2798SOL    HW210292  11.202  14.016  13.683
 2799SOL     OW10293   3.180   5.837  10.697
 2799SOL    HW110294   3.236   5.798  10.764
 2799SOL    HW210295   3.221   5.921  10.678
 2800SOL     OW10296   5.251   1.458   1.369
 2800SOL    HW110297   5.201   1.539   1.365
 2800SOL    HW210298   5.207   1.406   1.436
 2801SOL     OW10299   1.618   6.514   5.231
 2801SOL    HW110300   1.577   6.434   5.198
 2801SOL    HW210301   1.553   6.551   5.291
 2802SOL     OW10302   5.707   2.550   6.538
 2802SOL    HW110303   5.800   2.545   6.518
 2802SOL    HW210304   5.690   2.472   6.592
 2803SOL     OW10305   6.622   0.685   3.643
 2803SOL    HW110306   6.714   0.674   3.617
 2803SOL    HW210307   6.627   0.718   3.733
 2804SOL     OW10308   5.968  14.044   1.613
 2804SOL    HW110309   6.011  14.106   1.553
 2804SOL    HW210310   5.875  14.054   1.594
 2805SOL     OW10311  13.391   9.320   4.577
 2805SOL    HW110312  13.439   9.365   4.507
 2805SOL    HW210313  13.444   9.335   4.655
 2806SOL     OW10314  10.249   3.046   9.249
 2806SOL    HW110315  10.328   2.995   9.267
 2806SOL    HW210316  10.280   3.123   9.202
 2807SOL     OW10317  11.098  10.407  11.302
 2807SOL    HW110318  11.025  10.453  11.343
 2807SOL    HW210319  11.170  10.469  11.304
 2808SOL     OW10320   4.096   9.508  10.939
 2808SOL    HW110321   4.001   9.505  10.939
 2808SOL    HW210322   4.123   9.426  10.897
 2809SOL     OW10323   6.122   1.571   4.260
 2809SOL    HW110324   6.179   1.647   4.254
 2809SOL    HW210325   6.035   1.607   4.275
 2810SOL     OW10326   4.988   8.752  13.923
 2810SOL    HW110327   5.072   8.781  13.957
 2810SOL    HW210328   5.010   8.685  13.858
 2811SOL     OW10329   9.617  13.363  12.828
 2811SOL    HW110330   9.581  13.301  12.765
 2811SOL    HW210331   9.647  13.309  12.901
 2812SOL     OW10332  13.912  14.529  11.749
 2812SOL    HW110333  13.994  14.579  11.748
 2812SOL    HW210334  13.929  14.455  11.691
 2813SOL     OW10335   3.951   3.550   0.198
 2813SOL    HW110336   3.916   3.617   0.257
 2813SOL    HW210337   3.981   3.599   0.121
 2814SOL     OW10338  14.250  14.474  12.545
 2814SOL    HW110339  14.236  14.427  12.463
 2814SOL    HW210340  14.345  14.473  12.558
 2815SOL     OW10341   9.276   0.908  10.169
 2815SOL    HW110342   9.287   0.837  10.232
 2815SOL    HW210343   9.319   0.983  10.208
 2816SOL     OW10344   0.456   7.574   8.620
 2816SOL    HW110345   0.488   7.618   8.541
 2816SOL    HW210346   0.477   7.636   8.691
 2817SOL     OW10347   4.714   1.052   1.005
 2817SOL    HW110348   4.790   1.106   1.026
 2817SOL    HW210349   4.673   1.034   1.090
 2818SOL     OW10350   5.931   0.766   0.559
 2818SOL    HW110351   5.929   0.778   0.464
 2818SOL    HW210352   5.842   0.788   0.588
 2819SOL     OW10353  11.510   4.247   8.212
 2819SOL    HW110354  11.472   4.334   8.199
 2819SOL    HW210355  11.455   4.207   8.279
 2820SOL     OW10356  10.285   6.415   9.694
 2820SOL    HW110357  10.307   6.509   9.694
 2820SOL    HW210358  10.254   6.398   9.605
 2821SOL     OW10359  11.228  11.135   6.280
 2821SOL    HW110360  11.284  11.057   6.285
 2821SOL    HW210361  11.146  11.108   6.321
 2822SOL     OW10362   5.744   9.118  10.704
 2822SOL    HW110363   5.660   9.128  10.750
 2822SOL    HW210364   5.733   9.170  10.624
 2823SOL     OW10365   2.580  11.379  13.517
 2823SOL    HW110366   2.496  11.424  13.511
 2823SOL    HW210367   2.578  11.315  13.446
 2824SOL     OW10368   5.706   0.252   0.529
 2824SOL    HW110369   5.649   0.276   0.602
 2824SOL    HW210370   5.646   0.237   0.455
 2825SOL     OW10371   0.427   8.800  12.233
 2825SOL    HW110372   0.441   8.885  12.191
 2825SOL    HW210373   0.379   8.821  12.313
 2826SOL     OW10374   2.754  10.700   4.581
 2826SOL    HW110375   2.820  10.765   4.606
 2826SOL    HW210376   2.683  10.752   4.543
 2827SOL     OW10377  14.246   1.303   0.957
 2827SOL    HW110378  14.154   1.278   0.963
 2827SOL    HW210379  14.285   1.239   0.897
 2828SOL     OW10380  12.787   5.792   1.467
 2828SOL    HW110381  12.788   5.828   1.556
 2828SOL    HW210382  12.696   5.800   1.439
 2829SOL     OW10383  11.453   4.433   6.000
 2829SOL    HW110384  11.378   4.429   6.060
 2829SOL    HW210385  11.506   4.356   6.023
 2830SOL     OW10386  10.772   5.589   0.299
 2830SOL    HW110387  10.831   5.632   0.361
 2830SOL    HW210388  10.686   5.627   0.317
 2831SOL     OW10389  10.577   6.751  13.091
 2831SOL    HW110390  10.614   6.703  13.166
 2831SOL    HW210391  10.653   6.783  13.043
 2832SOL     OW10392  11.223   0.847  10.950
 2832SOL    HW110393  11.279   0.882  11.020
 2832SOL    HW210394  11.240   0.905  10.875
 2833SOL     OW10395   6.050   3.788   0.163
 2833SOL    HW110396   6.111   3.715   0.149
 2833SOL    HW210397   6.089   3.861   0.115
 2834SOL     OW10398   7.800   0.503   2.581
 2834SOL    HW110399   7.799   0.550   2.498
 2834SOL    HW210400   7.711   0.516   2.616
 2835SOL     OW10401   8.204  13.757  12.385
 2835SOL    HW110402   8.109  13.763  12.373
 2835SOL    HW210403   8.231  13.846  12.408
 2836SOL     OW10404   8.646   9.936  14.070
 2836SOL    HW110405   8.714   9.868  14.068
 2836SOL    HW210406   8.638   9.965  13.980
 2837SOL     OW10407   6.581   6.181   1.272
 2837SOL    HW110408   6.524   6.165   1.196
 2837SOL    HW210409   6.643   6.247   1.241
 2838SOL     OW10410  12.022   5.659   5.798
 2838SOL    HW110411  11.955   5.651   5.730
 2838SOL    HW210412  11.981   5.710   5.868
 2839SOL     OW10413   0.763  11.063  10.622
 2839SOL    HW110414   0.728  11.008  10.692
 2839SOL    HW210415   0.764  11.151  10.660
 2840SOL     OW10416   1.776  12.151  10.861
 2840SOL    HW110417   1.716  12.215  10.823
 2840SOL    HW210418   1.862  12.189  10.850
 2841SOL     OW10419  13.426   2.013   9.048
 2841SOL    HW110420  13.342   2.058   9.050
 2841SOL    HW210421  13.476   2.052   9.120
 2842SOL     OW10422   6.606   7.692  10.438
 2842SOL    HW110423   6.594   7.685  10.344
 2842SOL    HW210424   6.558   7.771  10.463
 2843SOL     OW10425   8.169   7.449   1.052
 2843SOL    HW110426   8.123   7.378   1.097
 2843SOL    HW210427   8.169   7.421   0.960
 2844SOL     OW10428   0.879  10.588  10.737
 2844SOL    HW110429   0.802  10.537  10.711
 2844SOL    HW210430   0.859  10.618  10.826
 2845SOL     OW10431   2.046   5.296  12.289
 2845SOL    HW110432   2.026   5.339  12.206
 2845SOL    HW210433   2.131   5.254  12.274
 2846SOL     OW10434  10.600   7.944  12.037
 2846SOL    HW110435  10.506   7.946  12.051
 2846SOL    HW210436  10.627   8.036  12.035
 2847SOL     OW10437   0.004   6.343   1.232
 2847SOL    HW110438  14.815   6.297   1.172
 2847SOL    HW210439   0.081   6.364   1.179
 2848SOL     OW10440   2.327  14.805   3.243
 2848SOL    HW110441   2.421  14.790   3.256
 2848SOL    HW210442   2.287  14.722   3.268
 2849SOL     OW10443   6.871   1.413   1.574
 2849SOL    HW110444   6.800   1.351   1.594
 2849SOL    HW210445   6.865   1.479   1.644
 2850SOL     OW10446   0.702   1.519   1.259
 2850SOL    HW110447   0.657   1.523   1.343
 2850SOL    HW210448   0.654   1.454   1.209
 2851SOL     OW10449   4.736  12.218   8.739
 2851SOL    HW110450   4.747  12.130   8.777
 2851SOL    HW210451   4.643  12.236   8.747
 2852SOL     OW10452  14.330  13.519   9.559
 2852SOL    HW110453  14.333  13.453   9.490
 2852SOL    HW210454  14.310  13.470   9.638
 2853SOL     OW10455   7.082   8.740  10.141
 2853SOL    HW110456   7.165   8.742  10.188
 2853SOL    HW210457   7.069   8.647  10.120
 2854SOL     OW10458   4.048   9.957   0.868
 2854SOL    HW110459   4.109  10.021   0.905
 2854SOL    HW210460   4.042   9.980   0.775
 2855SOL     OW10461   1.025   5.938   8.254
 2855SOL    HW110462   0.952   5.999   8.264
 2855SOL    HW210463   1.102   5.995   8.247
 2856SOL     OW10464   7.080   2.635  12.541
 2856SOL    HW110465   7.079   2.664  12.450
 2856SOL    HW210466   7.104   2.542  12.536
 2857SOL     OW10467   1.182  11.874   2.144
 2857SOL    HW110468   1.225  11.797   2.181
 2857SOL    HW210469   1.249  11.942   2.149
 2858SOL     OW10470   5.621  11.498   6.712
 2858SOL    HW110471   5.610  11.569   6.648
 2858SOL    HW210472   5.651  11.423   6.661
 2859SOL     OW10473   7.848   2.976   5.859
 2859SOL    HW110474   7.911   2.917   5.899
 2859SOL    HW210475   7.842   3.050   5.920
 2860SOL     OW10476  14.618   0.852   5.234
 2860SOL    HW110477  14.549   0.816   5.289
 2860SOL    HW210478  14.590   0.834   5.144
 2861SOL     OW10479   9.900  10.713   1.016
 2861SOL    HW110480   9.941  10.741   1.098
 2861SOL    HW210481   9.948  10.634   0.991
 2862SOL     OW10482  12.294   6.696  13.715
 2862SOL    HW110483  12.357   6.751  13.670
 2862SOL    HW210484  12.213   6.706  13.665
 2863SOL     OW10485  11.759   8.360  13.402
 2863SOL    HW110486  11.815   8.289  13.431
 2863SOL    HW210487  11.814   8.438  13.410
 2864SOL     OW10488   3.867   7.691   3.159
 2864SOL    HW110489   3.862   7.617   3.219
 2864SOL    HW210490   3.781   7.693   3.116
 2865SOL     OW10491  12.585   8.980   4.358
 2865SOL    HW110492  12.505   9.012   4.316
 2865SOL    HW210493  12.604   9.044   4.426
 2866SOL     OW10494  13.302  14.199   0.110
 2866SOL    HW110495  13.254  14.165   0.186
 2866SOL    HW210496  13.392  14.206   0.140
 2867SOL     OW10497  13.328   7.591  13.636
 2867SOL    HW110498  13.313   7.569  13.729
 2867SOL    HW210499  13.382   7.519  13.603
 2868SOL     OW10500  10.498  12.797   7.132
 2868SOL    HW110501  10.555  12.785   7.209
 2868SOL    HW210502  10.482  12.708   7.101
 2869SOL     OW10503   4.177  10.734   5.711
 2869SOL    HW110504   4.192  10.642   5.733
 2869SOL    HW210505   4.205  10.741   5.620
 2870SOL     OW10506  10.407   7.815   7.950
 2870SOL    HW110507  10.402   7.903   7.913
 2870SOL    HW210508  10.468   7.824   8.024
 2871SOL     OW10509  13.399  10.898   3.572
 2871SOL    HW110510  13.459  10.865   3.506
 2871SOL    HW210511  13.452  10.955   3.627
 2872SOL     OW10512   1.245   9.437  13.437
 2872SOL    HW110513   1.314   9.387  13.394
 2872SOL    HW210514   1.165   9.386  13.422
 2873SOL     OW10515   3.369   7.849   4.227
 2873SOL    HW110516   3.312   7.926   4.231
 2873SOL    HW210517   3.356   7.804   4.310
 2874SOL     OW10518  13.572   0.461  10.920
 2874SOL    HW110519  13.497   0.517  10.902
 2874SOL    HW210520  13.557   0.382  10.869
 2875SOL     OW10521  10.476   4.110  11.986
 2875SOL    HW110522  10.550   4.157  12.024
 2875SOL    HW210523  10.469   4.030  12.038
 2876SOL     OW10524   6.111   9.310   4.979
 2876SOL    HW110525   6.033   9.270   4.941
 2876SOL    HW210526   6.157   9.348   4.903
 2877SOL     OW10527   6.709   5.955  11.528
 2877SOL    HW110528   6.742   5.972  11.616
 2877SOL    HW210529   6.618   5.986  11.530
 2878SOL     OW10530   8.414   9.124   0.838
 2878SOL    HW110531   8.379   9.111   0.750
 2878SOL    HW210532   8.346   9.175   0.883
 2879SOL     OW10533  14.057   8.159   1.879
 2879SOL    HW110534  14.133   8.197   1.836
 2879SOL    HW210535  14.057   8.198   1.967
 2880SOL     OW10536   1.716   6.891   8.972
 2880SOL    HW110537   1.689   6.799   8.971
 2880SOL    HW210538   1.808   6.889   9.001
 2881SOL     OW10539   3.277   7.599   3.371
 2881SOL    HW110540   3.315   7.647   3.444
 2881SOL    HW210541   3.235   7.666   3.317
 2882SOL     OW10542  10.463   5.155   8.861
 2882SOL    HW110543  10.551   5.191   8.869
 2882SOL    HW210544  10.469   5.067   8.897
 2883SOL     OW10545  10.792   5.448   0.841
 2883SOL    HW110546  10.881   5.480   0.855
 2883SOL    HW210547  10.776   5.387   0.913
 2884SOL     OW10548   4.990   9.051   6.654
 2884SOL    HW110549   4.981   8.958   6.675
 2884SOL    HW210550   5.076   9.058   6.612
 2885SOL     OW10551   8.973   5.508  13.966
 2885SOL    HW110552   8.926   5.523  13.884
 2885SOL    HW210553   8.924   5.437  14.009
 2886SOL     OW10554   6.062  14.065   4.632
 2886SOL    HW110555   6.056  14.062   4.727
 2886SOL    HW210556   5.988  14.119   4.605
 2887SOL     OW10557  12.462  13.472  10.073
 2887SOL    HW110558  12.450  13.559  10.110
 2887SOL    HW210559  12.405  13.470   9.996
 2888SOL     OW10560   7.874   8.490   1.901
 2888SOL    HW110561   7.965   8.460   1.899
 2888SOL    HW210562   7.824   8.417   1.864
 2889SOL     OW10563   3.428  12.886   6.964
 2889SOL    HW110564   3.380  12.811   7.000
 2889SOL    HW210565   3.517  12.853   6.951
 2890SOL     OW10566  10.055  13.015  11.901
 2890SOL    HW110567  10.000  13.067  11.842
 2890SOL    HW210568  10.060  12.929  11.859
 2891SOL     OW10569  10.366  13.475  11.157
 2891SOL    HW110570  10.324  13.548  11.203
 2891SOL    HW210571  10.331  13.479  11.068
 2892SOL     OW10572  14.222   7.366   9.172
 2892SOL    HW110573  14.180   7.406   9.096
 2892SOL    HW210574  14.243   7.440   9.230
 2893SOL     OW10575   0.378   3.123  14.135
 2893SOL    HW110576   0.458   3.141  14.086
 2893SOL    HW210577   0.318   3.193  14.109
 2894SOL     OW10578   5.855  10.096  11.398
 2894SOL    HW110579   5.813  10.018  11.363
 2894SOL    HW210580   5.935  10.106  11.346
 2895SOL     OW10581  11.688   8.294   3.105
 2895SOL    HW110582  11.673   8.209   3.144
 2895SOL    HW210583  11.727   8.347   3.175
 2896SOL     OW10584  13.791  10.166  14.323
 2896SOL    HW110585  13.697  10.153  14.331
 2896SOL    HW210586  13.805  10.257  14.347
 2897SOL     OW10587   9.756   3.742  14.141
 2897SOL    HW110588   9.724   3.822  14.099
 2897SOL    HW210589   9.847   3.762  14.163
 2898SOL     OW10590  13.919   3.602   0.424
 2898SOL    HW110591  13.917   3.647   0.339
 2898SOL    HW210592  13.982   3.531   0.412
 2899SOL     OW10593   6.907   1.111   3.326
 2899SOL    HW110594   6.979   1.058   3.293
 2899SOL    HW210595   6.851   1.127   3.250
 2900SOL     OW10596   6.916   3.984   6.735
 2900SOL    HW110597   6.951   3.920   6.673
 2900SOL    HW210598   6.921   4.068   6.688
 2901SOL     OW10599   5.608   1.272   8.958
 2901SOL    HW110600   5.675   1.303   9.020
 2901SOL    HW210601   5.658   1.240   8.883
 2902SOL     OW10602   3.848   4.367  13.746
 2902SOL    HW110603   3.911   4.405  13.685
 2902SOL    HW210604   3.814   4.290  13.701
 2903SOL     OW10605   1.613  12.763   3.294
 2903SOL    HW110606   1.637  12.711   3.371
 2903SOL    HW210607   1.518  12.757   3.291
 2904SOL     OW10608   7.069   3.262  11.549
 2904SOL    HW110609   7.117   3.193  11.503
 2904SOL    HW210610   7.038   3.321  11.481
 2905SOL     OW10611   8.798   9.915  10.707
 2905SOL    HW110612   8.883   9.879  10.681
 2905SOL    HW210613   8.792   9.999  10.661
 2906SOL     OW10614  14.255  13.739  10.525
 2906SOL    HW110615  14.210  13.680  10.465
 2906SOL    HW210616  14.224  13.826  10.502
 2907SOL     OW10617   5.560   1.801   0.523
 2907SOL    HW110618   5.618   1.820   0.597
 2907SOL    HW210619   5.492   1.745   0.560
 2908SOL     OW10620   1.848  12.755   2.006
 2908SOL    HW110621   1.894  12.681   1.965
 2908SOL    HW210622   1.845  12.733   2.099
 2909SOL     OW10623   3.442   9.330   6.463
 2909SOL    HW110624   3.451   9.410   6.514
 2909SOL    HW210625   3.365   9.286   6.500
 2910SOL     OW10626  11.475   6.834  10.515
 2910SOL    HW110627  11.559   6.792  10.534
 2910SOL    HW210628  11.445   6.792  10.434
 2911SOL     OW10629   6.515  12.712   6.719
 2911SOL    HW110630   6.507  12.639   6.781
 2911SOL    HW210631   6.608  12.716   6.699
 2912SOL     OW10632   4.081   6.110   7.922
 2912SOL    HW110633   4.074   6.205   7.930
 2912SOL    HW210634   4.093   6.095   7.828
 2913SOL     OW10635   2.433   6.391   7.403
 2913SOL    HW110636   2.349   6.356   7.433
 2913SOL    HW210637   2.418   6.412   7.310
 2914SOL     OW10638  11.705  14.113   8.169
 2914SOL    HW110639  11.758  14.187   8.195
 2914SOL    HW210640  11.765  14.038   8.172
 2915SOL     OW10641   2.676   7.295   2.509
 2915SOL    HW110642   2.770   7.295   2.492
 2915SOL    HW210643   2.659   7.211   2.552
 2916SOL     OW10644  10.986   1.750   2.508
 2916SOL    HW110645  10.945   1.746   2.594
 2916SOL    HW210646  10.963   1.667   2.466
 2917SOL     OW10647   5.072  13.250  13.194
 2917SOL    HW110648   5.085  13.195  13.117
 2917SOL    HW210649   5.028  13.328  13.161
 2918SOL     OW10650   8.044   1.473  13.708
 2918SOL    HW110651   8.116   1.511  13.656
 2918SOL    HW210652   7.992   1.549  13.735
 2919SOL     OW10653   7.816   3.751  12.212
 2919SOL    HW110654   7.901   3.795  12.224
 2919SOL    HW210655   7.826   3.667  12.257
 2920SOL     OW10656  14.073  10.933  12.415
 2920SOL    HW110657  14.149  10.989  12.429
 2920SOL    HW210658  14.063  10.884  12.496
 2921SOL     OW10659   0.489   8.726  13.737
 2921SOL    HW110660   0.576   8.711  13.699
 2921SOL    HW210661   0.434   8.657  13.702
 2922SOL     OW10662   7.191   1.730   4.303
 2922SOL    HW110663   7.217   1.743   4.394
 2922SOL    HW210664   7.237   1.650   4.276
 2923SOL     OW10665  11.125  10.298   5.863
 2923SOL    HW110666  11.097  10.385   5.833
 2923SOL    HW210667  11.054  10.240   5.836
 2924SOL     OW10668  10.197   3.128   4.987
 2924SOL    HW110669  10.114   3.129   4.940
 2924SOL    HW210670  10.175   3.158   5.075
 2925SOL     OW10671   8.539   9.432   5.072
 2925SOL    HW110672   8.581   9.449   5.157
 2925SOL    HW210673   8.554   9.512   5.022
 2926SOL     OW10674  10.666   2.380  14.468
 2926SOL    HW110675  10.720   2.308  14.502
 2926SOL    HW210676  10.711   2.407  14.388
 2927SOL     OW10677  13.565   1.852  13.875
 2927SOL    HW110678  13.503   1.809  13.932
 2927SOL    HW210679  13.588   1.933  13.920
 2928SOL     OW10680  10.087  12.880  12.558
 2928SOL    HW110681  10.076  12.927  12.641
 2928SOL    HW210682  10.129  12.944  12.500
 2929SOL     OW10683   8.920   8.420  11.614
 2929SOL    HW110684   8.905   8.430  11.520
 2929SOL    HW210685   8.984   8.488  11.635
 2930SOL     OW10686  13.604   1.090  13.577
 2930SOL    HW110687  13.512   1.118  13.576
 2930SOL    HW210688  13.628   1.085  13.484
 2931SOL     OW10689   1.517   0.261   9.188
 2931SOL    HW110690   1.544   0.241   9.099
 2931SOL    HW210691   1.521   0.357   9.193
 2932SOL     OW10692   2.661  10.932  12.346
 2932SOL    HW110693   2.571  10.962  12.343
 2932SOL    HW210694   2.713  11.008  12.320
 2933SOL     OW10695   2.013   8.228   3.648
 2933SOL    HW110696   1.940   8.182   3.606
 2933SOL    HW210697   2.091   8.183   3.616
 2934SOL     OW10698  13.486   1.862   8.721
 2934SOL    HW110699  13.398   1.876   8.687
 2934SOL    HW210700  13.489   1.769   8.744
 2935SOL     OW10701   2.632   3.335  13.462
 2935SOL    HW110702   2.566   3.293  13.407
 2935SOL    HW210703   2.697   3.367  13.401
 2936SOL     OW10704   8.546   1.099   5.039
 2936SOL    HW110705   8.511   1.010   5.030
 2936SOL    HW210706   8.627   1.088   5.089
 2937SOL     OW10707   6.249   1.230   0.812
 2937SOL    HW110708   6.345   1.229   0.806
 2937SOL    HW210709   6.219   1.230   0.721
 2938SOL     OW10710   6.465  14.330  14.176
 2938SOL    HW110711   6.519  14.407  14.197
 2938SOL    HW210712   6.453  14.334  14.082
 2939SOL     OW10713   0.294  12.714   0.548
 2939SOL    HW110714   0.382  12.675   0.544
 2939SOL    HW210715   0.238  12.642   0.578
 2940SOL     OW10716  10.333  12.362  14.404
 2940SOL    HW110717  10.390  12.425  14.447
 2940SOL    HW210718  10.392  12.304  14.356
 2941SOL     OW10719  14.004   7.129  14.257
 2941SOL    HW110720  14.045   7.214  14.242
 2941SOL    HW210721  13.911   7.149  14.267
 2942SOL     OW10722   6.369   2.132  10.534
 2942SOL    HW110723   6.278   2.150  10.554
 2942SOL    HW210724   6.415   2.213  10.553
 2943SOL     OW10725  10.297  11.950  13.642
 2943SOL    HW110726  10.221  11.990  13.683
 2943SOL    HW210727  10.321  11.879  13.701
 2944SOL     OW10728   5.517   9.277   2.875
 2944SOL    HW110729   5.506   9.303   2.783
 2944SOL    HW210730   5.469   9.195   2.883
 2945SOL     OW10731   7.191   5.569   9.049
 2945SOL    HW110732   7.138   5.504   9.096
 2945SOL    HW210733   7.279   5.531   9.046
 2946SOL     OW10734   2.450   8.791  14.217
 2946SOL    HW110735   2.517   8.841  14.264
 2946SOL    HW210736   2.376   8.787  14.278
 2947SOL     OW10737   8.503   0.151   4.621
 2947SOL    HW110738   8.563   0.225   4.624
 2947SOL    HW210739   8.420   0.186   4.651
 2948SOL     OW10740  11.153  10.187   0.469
 2948SOL    HW110741  11.081  10.209   0.409
 2948SOL    HW210742  11.209  10.264   0.468
 2949SOL     OW10743   6.421  11.909   9.247
 2949SOL    HW110744   6.465  11.830   9.215
 2949SOL    HW210745   6.405  11.961   9.169
 2950SOL     OW10746  10.160   7.703   1.401
 2950SOL    HW110747  10.175   7.766   1.331
 2950SOL    HW210748  10.234   7.716   1.461
 2951SOL     OW10749   5.562   2.458   2.496
 2951SOL    HW110750   5.516   2.437   2.414
 2951SOL    HW210751   5.652   2.429   2.481
 2952SOL     OW10752   0.148   4.063   8.962
 2952SOL    HW110753   0.101   3.980   8.961
 2952SOL    HW210754   0.111   4.113   8.890
 2953SOL     OW10755  14.151   2.249   5.076
 2953SOL    HW110756  14.213   2.315   5.043
 2953SOL    HW210757  14.196   2.207   5.149
 2954SOL     OW10758   6.752  12.136   0.761
 2954SOL    HW110759   6.688  12.204   0.781
 2954SOL    HW210760   6.777  12.100   0.846
 2955SOL     OW10761   5.784   9.771   6.707
 2955SOL    HW110762   5.800   9.858   6.671
 2955SOL    HW210763   5.734   9.787   6.788
 2956SOL     OW10764  14.637   9.079   1.186
 2956SOL    HW110765  14.592   8.996   1.173
 2956SOL    HW210766  14.730   9.056   1.190
 2957SOL     OW10767   8.683  13.084   0.927
 2957SOL    HW110768   8.704  13.004   0.974
 2957SOL    HW210769   8.607  13.120   0.974
 2958SOL     OW10770   6.266   9.846  14.576
 2958SOL    HW110771   6.346   9.797  14.556
 2958SOL    HW210772   6.242   9.818  14.664
 2959SOL     OW10773   0.506  12.515  12.885
 2959SOL    HW110774   0.508  12.480  12.796
 2959SOL    HW210775   0.518  12.609  12.875
 2960SOL     OW10776   9.016   0.114  11.821
 2960SOL    HW110777   8.947   0.067  11.773
 2960SOL    HW210778   9.014   0.202  11.784
 2961SOL     OW10779   9.252   2.987   6.318
 2961SOL    HW110780   9.278   3.063   6.266
 2961SOL    HW210781   9.328   2.929   6.317
 2962SOL     OW10782   4.217   6.255   1.316
 2962SOL    HW110783   4.183   6.337   1.278
 2962SOL    HW210784   4.276   6.221   1.249
 2963SOL     OW10785   0.095   0.336  12.607
 2963SOL    HW110786   0.004   0.341  12.576
 2963SOL    HW210787   0.147   0.326  12.527
 2964SOL     OW10788   3.299  11.312   4.674
 2964SOL    HW110789   3.218  11.362   4.661
 2964SOL    HW210790   3.270  11.232   4.719
 2965SOL     OW10791  14.691   2.653   4.935
 2965SOL    HW110792  14.681   2.564   4.901
 2965SOL    HW210793  14.653   2.649   5.023
 2966SOL     OW10794   9.524   9.565   2.531
 2966SOL    HW110795   9.585   9.565   2.605
 2966SOL    HW210796   9.559   9.633   2.473
 2967SOL     OW10797   8.077   6.065   2.364
 2967SOL    HW110798   8.161   6.024   2.387
 2967SOL    HW210799   8.092   6.159   2.376
 2968SOL     OW10800   9.491   2.046   8.837
 2968SOL    HW110801   9.515   2.139   8.845
 2968SOL    HW210802   9.413   2.037   8.892
 2969SOL     OW10803   6.843   0.438   3.202
 2969SOL    HW110804   6.908   0.463   3.137
 2969SOL    HW210805   6.771   0.500   3.189
 2970SOL     OW10806  12.413   3.813   0.200
 2970SOL    HW110807  12.489   3.791   0.253
 2970SOL    HW210808  12.370   3.729   0.184
 2971SOL     OW10809  11.052   1.339  13.857
 2971SOL    HW110810  11.035   1.303  13.770
 2971SOL    HW210811  10.969   1.331  13.903
 2972SOL     OW10812   8.907   2.497   2.898
 2972SOL    HW110813   8.965   2.570   2.876
 2972SOL    HW210814   8.864   2.525   2.978
 2973SOL     OW10815  10.164   1.714  11.606
 2973SOL    HW110816  10.230   1.753  11.662
 2973SOL    HW210817  10.090   1.695  11.664
 2974SOL     OW10818   3.260   3.168   7.523
 2974SOL    HW110819   3.204   3.190   7.597
 2974SOL    HW210820   3.311   3.092   7.553
 2975SOL     OW10821   3.676   7.043   2.169
 2975SOL    HW110822   3.726   7.122   2.192
 2975SOL    HW210823   3.584   7.072   2.172
 2976SOL     OW10824  14.037  12.974   7.244
 2976SOL    HW110825  14.090  13.025   7.305
 2976SOL    HW210826  13.962  12.944   7.296
 2977SOL     OW10827   9.489   4.047   4.237
 2977SOL    HW110828   9.583   4.064   4.227
 2977SOL    HW210829   9.485   3.978   4.304
 2978SOL     OW10830  12.334   4.104   9.582
 2978SOL    HW110831  12.342   4.040   9.653
 2978SOL    HW210832  12.423   4.133   9.566
 2979SOL     OW10833   6.881   2.906   0.569
 2979SOL    HW110834   6.787   2.893   0.578
 2979SOL    HW210835   6.912   2.919   0.659
 2980SOL     OW10836  10.780   7.440   1.974
 2980SOL    HW110837  10.802   7.506   2.039
 2980SOL    HW210838  10.703   7.474   1.930
 2981SOL     OW10839  12.266   6.040   4.222
 2981SOL    HW110840  12.197   6.107   4.226
 2981SOL    HW210841  12.324   6.060   4.295
 2982SOL     OW10842  11.447  10.309  12.000
 2982SOL    HW110843  11.461  10.215  12.013
 2982SOL    HW210844  11.408  10.316  11.913
 2983SOL     OW10845  11.719   3.306   8.341
 2983SOL    HW110846  11.791   3.270   8.289
 2983SOL    HW210847  11.753   3.389   8.373
 2984SOL     OW10848   3.617   5.441   9.657
 2984SOL    HW110849   3.579   5.509   9.713
 2984SOL    HW210850   3.663   5.383   9.717
 2985SOL     OW10851  13.415   8.549   6.464
 2985SOL    HW110852  13.475   8.518   6.532
 2985SOL    HW210853  13.340   8.584   6.513
 2986SOL     OW10854  10.198   9.825  10.002
 2986SOL    HW110855  10.188   9.742  10.049
 2986SOL    HW210856  10.206   9.799   9.910
 2987SOL     OW10857   7.587   3.677  11.565
 2987SOL    HW110858   7.634   3.744  11.515
 2987SOL    HW210859   7.503   3.718  11.586
 2988SOL     OW10860   1.606   6.614   6.974
 2988SOL    HW110861   1.531   6.637   7.029
 2988SOL    HW210862   1.592   6.523   6.951
 2989SOL     OW10863  11.980  10.008   1.615
 2989SOL    HW110864  11.927   9.997   1.694
 2989SOL    HW210865  11.916  10.026   1.546
 2990SOL     OW10866   4.736   2.190  12.622
 2990SOL    HW110867   4.680   2.146  12.685
 2990SOL    HW210868   4.764   2.270  12.667
 2991SOL     OW10869   3.203   1.813   6.514
 2991SOL    HW110870   3.271   1.783   6.574
 2991SOL    HW210871   3.217   1.908   6.508
 2992SOL     OW10872   2.481   8.695   7.920
 2992SOL    HW110873   2.393   8.704   7.955
 2992SOL    HW210874   2.533   8.666   7.994
 2993SOL     OW10875   1.730   4.422   0.099
 2993SOL    HW110876   1.635   4.426   0.095
 2993SOL    HW210877   1.758   4.513   0.099
 2994SOL     OW10878   1.020   6.836   0.730
 2994SOL    HW110879   0.976   6.803   0.651
 2994SOL    HW210880   1.035   6.928   0.712
 2995SOL     OW10881   8.601  12.728   9.897
 2995SOL    HW110882   8.609  12.689   9.984
 2995SOL    HW210883   8.651  12.670   9.840
 2996SOL     OW10884   6.552   5.988   8.113
 2996SOL    HW110885   6.626   5.959   8.058
 2996SOL    HW210886   6.519   5.907   8.152
 2997SOL     OW10887  10.176   0.606  13.372
 2997SOL    HW110888  10.125   0.655  13.437
 2997SOL    HW210889  10.165   0.655  13.291
 2998SOL     OW10890   4.160  13.944   2.561
 2998SOL    HW110891   4.128  13.990   2.483
 2998SOL    HW210892   4.193  14.014   2.618
 2999SOL     OW10893  14.550   2.314   2.376
 2999SOL    HW110894  14.489   2.353   2.438
 2999SOL    HW210895  14.627   2.371   2.379
 3000SOL     OW10896   6.871   3.687   5.941
 3000SOL    HW110897   6.897   3.769   5.900
 3000SOL    HW210898   6.782   3.671   5.910
 3001SOL     OW10899   7.857   6.945   4.914
 3001SOL    HW110900   7.906   6.912   4.839
 3001SOL    HW210901   7.767   6.912   4.901
 3002SOL     OW10902   2.966   6.257  10.138
 3002SOL    HW110903   2.891   6.306  10.103
 3002SOL    HW210904   2.928   6.200  10.205
 3003SOL     OW10905   3.613  11.020  11.263
 3003SOL    HW110906   3.624  11.093  11.325
 3003SOL    HW210907   3.560  10.957  11.310
 3004SOL     OW10908  12.505   3.340  11.324
 3004SOL    HW110909  12.452   3.364  11.248
 3004SOL    HW210910  12.552   3.261  11.296
 3005SOL     OW10911   3.454   6.430   9.588
 3005SOL    HW110912   3.388   6.459   9.651
 3005SOL    HW210913   3.471   6.338   9.610
 3006SOL     OW10914   7.878   1.939   5.195
 3006SOL    HW110915   7.952   1.915   5.250
 3006SOL    HW210916   7.850   2.025   5.228
 3007SOL     OW10917  10.502   7.743   7.089
 3007SOL    HW110918  10.431   7.679   7.092
 3007SOL    HW210919  10.483   7.797   7.012
 3008SOL     OW10920  10.061   9.931   4.159
 3008SOL    HW110921  10.007   9.941   4.238
 3008SOL    HW210922  10.151   9.932   4.192
 3009SOL     OW10923  12.844   7.507   5.607
 3009SOL    HW110924  12.759   7.519   5.649
 3009SOL    HW210925  12.830   7.434   5.546
 3010SOL     OW10926   5.392   8.278   2.137
 3010SOL    HW110927   5.368   8.256   2.047
 3010SOL    HW210928   5.313   8.316   2.175
 3011SOL     OW10929  13.323   5.768  10.945
 3011SOL    HW110930  13.327   5.770  10.850
 3011SOL    HW210931  13.251   5.827  10.967
 3012SOL     OW10932  13.747  12.197   9.792
 3012SOL    HW110933  13.671  12.226   9.842
 3012SOL    HW210934  13.747  12.102   9.802
 3013SOL     OW10935  11.829   1.806   7.281
 3013SOL    HW110936  11.903   1.745   7.285
 3013SOL    HW210937  11.790   1.789   7.195
 3014SOL     OW10938  14.713   4.181   8.947
 3014SOL    HW110939  14.736   4.200   8.856
 3014SOL    HW210940  14.772   4.236   8.998
 3015SOL     OW10941   0.901  10.247   5.624
 3015SOL    HW110942   0.958  10.171   5.637
 3015SOL    HW210943   0.826  10.212   5.575
 3016SOL     OW10944   5.527  11.309   5.099
 3016SOL    HW110945   5.512  11.236   5.039
 3016SOL    HW210946   5.518  11.270   5.186
 3017SOL     OW10947  10.428   0.529  14.465
 3017SOL    HW110948  10.350   0.495  14.509
 3017SOL    HW210949  10.501   0.487  14.511
 3018SOL     OW10950  12.731   1.811  13.446
 3018SOL    HW110951  12.818   1.847  13.430
 3018SOL    HW210952  12.689   1.874  13.504
 3019SOL     OW10953   3.087   7.569   0.430
 3019SOL    HW110954   3.003   7.612   0.447
 3019SOL    HW210955   3.105   7.587   0.338
 3020SOL     OW10956   5.897  14.589   8.324
 3020SOL    HW110957   5.917  14.540   8.244
 3020SOL    HW210958   5.802  14.594   8.326
 3021SOL     OW10959   8.414  14.754   3.517
 3021SOL    HW110960   8.319  14.764   3.526
 3021SOL    HW210961   8.449  14.839   3.540
 3022SOL     OW10962  11.412   0.088  10.916
 3022SOL    HW110963  11.341   0.028  10.890
 3022SOL    HW210964  11.368   0.172  10.926
 3023SOL     OW10965   1.791   5.178   2.021
 3023SOL    HW110966   1.781   5.261   1.976
 3023SOL    HW210967   1.792   5.200   2.114
 3024SOL     OW10968   5.763   3.154   5.112
 3024SOL    HW110969   5.744   3.135   5.204
 3024SOL    HW210970   5.728   3.079   5.064
 3025SOL     OW10971   5.759  12.162  13.443
 3025SOL    HW110972   5.706  12.082  13.442
 3025SOL    HW210973   5.710  12.222  13.499
 3026SOL     OW10974  10.508   7.777   8.998
 3026SOL    HW110975  10.489   7.824   9.079
 3026SOL    HW210976  10.602   7.792   8.983
 3027SOL     OW10977   0.498  13.920   7.686
 3027SOL    HW110978   0.421  13.975   7.675
 3027SOL    HW210979   0.482  13.843   7.631
 3028SOL     OW10980   1.462  10.891  13.927
 3028SOL    HW110981   1.412  10.886  13.846
 3028SOL    HW210982   1.426  10.967  13.973
 3029SOL     OW10983   0.998  10.850   2.627
 3029SOL    HW110984   1.045  10.933   2.615
 3029SOL    HW210985   0.941  10.865   2.703
 3030SOL     OW10986  13.675  14.418  13.141
 3030SOL    HW110987  13.739  14.348  13.131
 3030SOL    HW210988  13.721  14.487  13.188
 3031SOL     OW10989   8.057   3.048   1.833
 3031SOL    HW110990   8.008   2.970   1.859
 3031SOL    HW210991   8.107   3.020   1.756
 3032SOL     OW10992  14.584   7.013   9.774
 3032SOL    HW110993  14.561   7.091   9.825
 3032SOL    HW210994  14.500   6.974   9.751
 3033SOL     OW10995   3.530   7.758  10.854
 3033SOL    HW110996   3.447   7.803  10.848
 3033SOL    HW210997   3.551   7.758  10.947
 3034SOL     OW10998   5.587  11.736   9.733
 3034SOL    HW110999   5.544  11.770   9.811
 3034SOL    HW211000   5.621  11.813   9.688
 3035SOL     OW11001   4.937   8.247  14.803
 3035SOL    HW111002   5.017   8.254  14.751
 3035SOL    HW211003   4.938   8.324  14.860
 3036SOL     OW11004   5.932  13.375   4.181
 3036SOL    HW111005   5.956  13.457   4.223
 3036SOL    HW211006   5.904  13.400   4.093
 3037SOL     OW11007   7.898   9.783  11.797
 3037SOL    HW111008   7.922   9.702  11.842
 3037SOL    HW211009   7.965   9.846  11.822
 3038SOL     OW11010  12.708   5.166   0.396
 3038SOL    HW111011  12.732   5.074   0.389
 3038SOL    HW211012  12.706   5.197   0.305
 3039SOL     OW11013   4.366   6.446  13.191
 3039SOL    HW111014   4.274   6.422  13.188
 3039SOL    HW211015   4.376   6.497  13.272
 3040SOL     OW11016   1.920  13.127  11.083
 3040SOL    HW111017   1.986  13.176  11.132
 3040SOL    HW211018   1.838  13.144  11.129
 3041SOL     OW11019   5.858  10.966   5.294
 3041SOL    HW111020   5.912  11.011   5.229
 3041SOL    HW211021   5.813  10.898   5.244
 3042SOL     OW11022   3.128  14.367   5.589
 3042SOL    HW111023   3.186  14.392   5.661
 3042SOL    HW211024   3.070  14.301   5.628
 3043SOL     OW11025   2.087   8.723  10.295
 3043SOL    HW111026   2.119   8.655  10.236
 3043SOL    HW211027   2.037   8.783  10.239
 3044SOL     OW11028   2.939   2.208  14.208
 3044SOL    HW111029   2.844   2.211  14.222
 3044SOL    HW211030   2.959   2.115  14.201
 3045SOL     OW11031   5.611   2.206   0.408
 3045SOL    HW111032   5.564   2.134   0.365
 3045SOL    HW211033   5.704   2.183   0.398
 3046SOL     OW11034   8.130  13.520   9.334
 3046SOL    HW111035   8.159  13.567   9.255
 3046SOL    HW211036   8.158  13.576   9.406
 3047SOL     OW11037   2.212   0.473  13.653
 3047SOL    HW111038   2.302   0.449  13.676
 3047SOL    HW211039   2.221   0.534  13.580
 3048SOL     OW11040  14.246  13.755  11.384
 3048SOL    HW111041  14.220  13.731  11.473
 3048SOL    HW211042  14.170  13.801  11.348
 3049SOL     OW11043   2.142   0.815   8.626
 3049SOL    HW111044   2.107   0.773   8.547
 3049SOL    HW211045   2.070   0.813   8.689
 3050SOL     OW11046   6.633  11.443   2.156
 3050SOL    HW111047   6.578  11.522   2.149
 3050SOL    HW211048   6.674  11.436   2.070
 3051SOL     OW11049  12.856   9.833   1.944
 3051SOL    HW111050  12.866   9.739   1.931
 3051SOL    HW211051  12.782   9.858   1.888
 3052SOL     OW11052  13.995   4.467  13.252
 3052SOL    HW111053  14.034   4.551  13.229
 3052SOL    HW211054  13.927   4.489  13.315
 3053SOL     OW11055  13.675   5.181   8.448
 3053SOL    HW111056  13.683   5.232   8.528
 3053SOL    HW211057  13.631   5.100   8.474
 3054SOL     OW11058  12.639  12.460   5.735
 3054SOL    HW111059  12.716  12.497   5.691
 3054SOL    HW211060  12.583  12.536   5.751
 3055SOL     OW11061  10.495   3.142   8.532
 3055SOL    HW111062  10.412   3.179   8.560
 3055SOL    HW211063  10.516   3.075   8.597
 3056SOL     OW11064   2.725   2.783  14.496
 3056SOL    HW111065   2.656   2.719  14.478
 3056SOL    HW211066   2.787   2.773  14.424
 3057SOL     OW11067   8.064   6.719   6.391
 3057SOL    HW111068   8.155   6.703   6.368
 3057SOL    HW211069   8.062   6.713   6.487
 3058SOL     OW11070   6.418  14.484   2.811
 3058SOL    HW111071   6.354  14.415   2.793
 3058SOL    HW211072   6.471  14.489   2.732
 3059SOL     OW11073   2.098  13.870   8.422
 3059SOL    HW111074   2.066  13.924   8.350
 3059SOL    HW211075   2.136  13.932   8.484
 3060SOL     OW11076   3.105   4.102  11.128
 3060SOL    HW111077   3.080   4.134  11.041
 3060SOL    HW211078   3.184   4.151  11.150
 3061SOL     OW11079   6.134  10.124   1.602
 3061SOL    HW111080   6.102  10.214   1.595
 3061SOL    HW211081   6.106  10.083   1.520
 3062SOL     OW11082   4.576  10.040   2.173
 3062SOL    HW111083   4.649   9.980   2.185
 3062SOL    HW211084   4.503   9.985   2.147
 3063SOL     OW11085   8.648   3.466   6.850
 3063SOL    HW111086   8.665   3.426   6.765
 3063SOL    HW211087   8.707   3.420   6.910
 3064SOL     OW11088   1.377   1.714   7.170
 3064SOL    HW111089   1.393   1.730   7.263
 3064SOL    HW211090   1.325   1.790   7.142
 3065SOL     OW11091   1.325   6.183   4.564
 3065SOL    HW111092   1.333   6.191   4.469
 3065SOL    HW211093   1.248   6.235   4.587
 3066SOL     OW11094   8.224   3.254   0.748
 3066SOL    HW111095   8.184   3.168   0.762
 3066SOL    HW211096   8.182   3.287   0.669
 3067SOL     OW11097   8.619   9.228   7.472
 3067SOL    HW111098   8.601   9.266   7.386
 3067SOL    HW211099   8.609   9.301   7.533
 3068SOL     OW11100   4.436   6.409  14.028
 3068SOL    HW111101   4.399   6.441  14.110
 3068SOL    HW211102   4.406   6.318  14.021
 3069SOL     OW11103   2.596   5.336  12.798
 3069SOL    HW111104   2.569   5.409  12.854
 3069SOL    HW211105   2.584   5.368  12.709
 3070SOL     OW11106   7.345   9.034  10.318
 3070SOL    HW111107   7.421   9.084  10.350
 3070SOL    HW211108   7.305   8.999  10.397
 3071SOL     OW11109   9.205  12.207   6.783
 3071SOL    HW111110   9.179  12.139   6.720
 3071SOL    HW211111   9.144  12.195   6.856
 3072SOL     OW11112  14.093   5.382   4.818
 3072SOL    HW111113  14.119   5.426   4.899
 3072SOL    HW211114  14.152   5.416   4.752
 3073SOL     OW11115   8.622  14.047   9.586
 3073SOL    HW111116   8.679  14.119   9.558
 3073SOL    HW211117   8.535  14.073   9.556
 3074SOL     OW11118   3.684   8.940  12.346
 3074SOL    HW111119   3.676   8.886  12.424
 3074SOL    HW211120   3.629   8.896  12.281
 3075SOL     OW11121  12.475   0.070   3.183
 3075SOL    HW111122  12.524   0.145   3.218
 3075SOL    HW211123  12.447   0.022   3.260
 3076SOL     OW11124   3.480  11.074  12.113
 3076SOL    HW111125   3.477  11.134  12.039
 3076SOL    HW211126   3.476  11.131  12.190
 3077SOL     OW11127   1.203   3.911   0.925
 3077SOL    HW111128   1.222   4.001   0.949
 3077SOL    HW211129   1.234   3.903   0.835
 3078SOL     OW11130   5.582   4.367  14.618
 3078SOL    HW111131   5.486   4.373  14.625
 3078SOL    HW211132   5.597   4.349  14.525
 3079SOL     OW11133  10.067  13.911  14.357
 3079SOL    HW111134  10.156  13.898  14.390
 3079SOL    HW211135  10.076  13.983  14.294
 3080SOL     OW11136   0.635  11.449   8.743
 3080SOL    HW111137   0.572  11.495   8.798
 3080SOL    HW211138   0.669  11.516   8.684
 3081SOL     OW11139   8.697   6.217  13.097
 3081SOL    HW111140   8.614   6.258  13.072
 3081SOL    HW211141   8.713   6.246  13.187
 3082SOL     OW11142  13.143  12.653   3.684
 3082SOL    HW111143  13.128  12.722   3.620
 3082SOL    HW211144  13.131  12.571   3.636
 3083SOL     OW11145   9.572   7.651   0.192
 3083SOL    HW111146   9.528   7.565   0.191
 3083SOL    HW211147   9.505   7.712   0.161
 3084SOL     OW11148  14.222  13.494  10.292
 3084SOL    HW111149  14.228  13.414  10.242
 3084SOL    HW211150  14.147  13.481  10.350
 3085SOL     OW11151   1.395   3.059  14.591
 3085SOL    HW111152   1.330   3.090  14.654
 3085SOL    HW211153   1.461   3.015  14.645
 3086SOL     OW11154   6.835   8.033   9.157
 3086SOL    HW111155   6.831   8.083   9.076
 3086SOL    HW211156   6.837   8.099   9.227
 3087SOL     OW11157  10.451   8.497  14.081
 3087SOL    HW111158  10.466   8.477  13.989
 3087SOL    HW211159  10.522   8.452  14.127
 3088SOL     OW11160   1.024   6.615  14.043
 3088SOL    HW111161   1.095   6.650  14.096
 3088SOL    HW211162   0.985   6.546  14.096
 3089SOL     OW11163   8.748   9.710  12.982
 3089SOL    HW111164   8.827   9.714  13.036
 3089SOL    HW211165   8.773   9.753  12.900
 3090SOL     OW11166  11.297  12.779  13.412
 3090SOL    HW111167  11.351  12.857  13.402
 3090SOL    HW211168  11.349  12.708  13.375
 3091SOL     OW11169   0.875   9.646   3.175
 3091SOL    HW111170   0.851   9.626   3.084
 3091SOL    HW211171   0.792   9.669   3.217
 3092SOL     OW11172   1.223   5.594   0.684
 3092SOL    HW111173   1.213   5.654   0.757
 3092SOL    HW211174   1.316   5.571   0.684
 3093SOL     OW11175   4.899   4.364  14.659
 3093SOL    HW111176   4.876   4.307  14.586
 3093SOL    HW211177   4.847   4.331  14.732
 3094SOL     OW11178   2.894  14.034   3.674
 3094SOL    HW111179   2.916  14.065   3.762
 3094SOL    HW211180   2.802  14.059   3.663
 3095SOL     OW11181   7.073  10.165   7.141
 3095SOL    HW111182   7.125  10.155   7.061
 3095SOL    HW211183   7.109  10.243   7.184
 3096SOL     OW11184   5.590  11.979   7.130
 3096SOL    HW111185   5.643  12.003   7.206
 3096SOL    HW211186   5.507  11.949   7.166
 3097SOL     OW11187  10.202   6.897   5.795
 3097SOL    HW111188  10.183   6.804   5.782
 3097SOL    HW211189  10.201   6.908   5.890
 3098SOL     OW11190  13.959   5.031   7.435
 3098SOL    HW111191  13.926   5.030   7.346
 3098SOL    HW211192  14.053   5.012   7.426
 3099SOL     OW11193   3.455   1.804  14.101
 3099SOL    HW111194   3.444   1.851  14.018
 3099SOL    HW211195   3.525   1.851  14.146
 3100SOL     OW11196  12.476   1.613  11.684
 3100SOL    HW111197  12.459   1.520  11.704
 3100SOL    HW211198  12.392   1.656  11.698
 3101SOL     OW11199  11.577   6.795  12.804
 3101SOL    HW111200  11.595   6.842  12.722
 3101SOL    HW211201  11.650   6.733  12.812
 3102SOL     OW11202   3.710   3.803   4.761
 3102SOL    HW111203   3.733   3.733   4.823
 3102SOL    HW211204   3.665   3.758   4.690
 3103SOL     OW11205  14.083  12.170   1.098
 3103SOL    HW111206  14.026  12.114   1.151
 3103SOL    HW211207  14.138  12.215   1.161
 3104SOL     OW11208   9.292   0.026  13.184
 3104SOL    HW111209   9.325   0.003  13.097
 3104SOL    HW211210   9.365   0.008  13.243
 3105SOL     OW11211   0.873  13.270   5.280
 3105SOL    HW111212   0.949  13.223   5.247
 3105SOL    HW211213   0.799  13.214   5.259
 3106SOL     OW11214  10.245  10.511   9.747
 3106SOL    HW111215  10.280  10.422   9.753
 3106SOL    HW211216  10.155  10.504   9.776
 3107SOL     OW11217   9.310   8.830  10.322
 3107SOL    HW111218   9.347   8.815  10.235
 3107SOL    HW211219   9.219   8.856  10.306
 3108SOL     OW11220   8.319  14.187   4.463
 3108SOL    HW111221   8.250  14.251   4.479
 3108SOL    HW211222   8.297  14.148   4.379
 3109SOL     OW11223   1.546  10.427   0.161
 3109SOL    HW111224   1.516  10.336   0.156
 3109SOL    HW211225   1.641  10.421   0.145
 3110SOL     OW11226  11.305   4.135   4.736
 3110SOL    HW111227  11.224   4.083   4.745
 3110SOL    HW211228  11.299   4.173   4.649
 3111SOL     OW11229   0.589   6.339   8.399
 3111SOL    HW111230   0.551   6.391   8.469
 3111SOL    HW211231   0.571   6.248   8.423
 3112SOL     OW11232  13.363   6.148   4.583
 3112SOL    HW111233  13.400   6.139   4.671
 3112SOL    HW211234  13.435   6.181   4.530
 3113SOL     OW11235   3.169   0.157  11.288
 3113SOL    HW111236   3.228   0.108  11.345
 3113SOL    HW211237   3.162   0.105  11.208
 3114SOL     OW11238   7.209   3.690   6.914
 3114SOL    HW111239   7.183   3.680   7.006
 3114SOL    HW211240   7.186   3.780   6.892
 3115SOL     OW11241   8.736   9.644  11.022
 3115SOL    HW111242   8.724   9.673  11.112
 3115SOL    HW211243   8.760   9.724  10.974
 3116SOL     OW11244   6.497   1.539   8.597
 3116SOL    HW111245   6.507   1.571   8.687
 3116SOL    HW211246   6.575   1.571   8.552
 3117SOL     OW11247   7.223   1.785  13.474
 3117SOL    HW111248   7.314   1.766  13.497
 3117SOL    HW211249   7.203   1.726  13.401
 3118SOL     OW11250   8.572  11.215  13.480
 3118SOL    HW111251   8.532  11.274  13.544
 3118SOL    HW211252   8.666  11.227  13.492
 3119SOL     OW11253   2.570   2.890   5.051
 3119SOL    HW111254   2.579   2.833   4.975
 3119SOL    HW211255   2.571   2.831   5.126
 3120SOL     OW11256   4.185   3.459   4.270
 3120SOL    HW111257   4.258   3.444   4.210
 3120SOL    HW211258   4.124   3.387   4.253
 3121SOL     OW11259  11.563  11.166   0.187
 3121SOL    HW111260  11.477  11.161   0.145
 3121SOL    HW211261  11.619  11.210   0.122
 3122SOL     OW11262   7.631   4.432   0.597
 3122SOL    HW111263   7.600   4.501   0.538
 3122SOL    HW211264   7.596   4.457   0.683
 3123SOL     OW11265   0.087   1.589   3.219
 3123SOL    HW111266   0.111   1.594   3.311
 3123SOL    HW211267  14.861   1.595   3.218
 3124SOL     OW11268   1.774   7.595   6.234
 3124SOL    HW111269   1.838   7.653   6.192
 3124SOL    HW211270   1.823   7.517   6.258
 3125SOL     OW11271   2.541   4.484   6.372
 3125SOL    HW111272   2.594   4.477   6.452
 3125SOL    HW211273   2.471   4.421   6.383
 3126SOL     OW11274   2.923  10.359   7.418
 3126SOL    HW111275   2.948  10.450   7.401
 3126SOL    HW211276   2.857  10.364   7.486
 3127SOL     OW11277  12.669  10.416   7.839
 3127SOL    HW111278  12.676  10.450   7.750
 3127SOL    HW211279  12.632  10.328   7.829
 3128SOL     OW11280   4.158   3.025   3.994
 3128SOL    HW111281   4.153   3.028   4.089
 3128SOL    HW211282   4.070   3.049   3.964
 3129SOL     OW11283   6.579   7.113   5.604
 3129SOL    HW111284   6.609   7.179   5.667
 3129SOL    HW211285   6.652   7.051   5.597
 3130SOL     OW11286  11.056  10.801  12.540
 3130SOL    HW111287  11.113  10.726  12.554
 3130SOL    HW211288  11.001  10.805  12.619
 3131SOL     OW11289   3.178   3.168   2.431
 3131SOL    HW111290   3.178   3.205   2.343
 3131SOL    HW211291   3.256   3.112   2.433
 3132SOL     OW11292   8.573  10.757   0.620
 3132SOL    HW111293   8.631  10.767   0.695
 3132SOL    HW211294   8.542  10.667   0.625
 3133SOL     OW11295   9.723  13.344  14.770
 3133SOL    HW111296   9.744  13.313  14.858
 3133SOL    HW211297   9.803  13.386  14.740
 3134SOL     OW11298   4.982  10.040   9.871
 3134SOL    HW111299   4.904  10.088   9.842
 3134SOL    HW211300   4.958   9.947   9.861
 3135SOL     OW11301   1.663   4.064   1.140
 3135SOL    HW111302   1.641   4.152   1.171
 3135SOL    HW211303   1.707   4.022   1.213
 3136SOL     OW11304   5.973   5.966   6.112
 3136SOL    HW111305   6.035   6.034   6.139
 3136SOL    HW211306   5.911   6.011   6.055
 3137SOL     OW11307  11.051  13.524  12.789
 3137SOL    HW111308  11.120  13.470  12.751
 3137SOL    HW211309  11.082  13.614  12.778
 3138SOL     OW11310   1.581   6.949  14.628
 3138SOL    HW111311   1.565   6.925  14.537
 3138SOL    HW211312   1.534   6.883  14.679
 3139SOL     OW11313   8.490   3.657   0.281
 3139SOL    HW111314   8.554   3.697   0.221
 3139SOL    HW211315   8.508   3.699   0.365
 3140SOL     OW11316  12.139  13.173  10.409
 3140SOL    HW111317  12.091  13.155  10.490
 3140SOL    HW211318  12.073  13.212  10.351
 3141SOL     OW11319   7.081   0.180  10.794
 3141SOL    HW111320   7.080   0.252  10.730
 3141SOL    HW211321   7.174   0.167  10.814
 3142SOL     OW11322   2.207   7.271  13.324
 3142SOL    HW111323   2.152   7.291  13.248
 3142SOL    HW211324   2.146   7.240  13.390
 3143SOL     OW11325   3.894  14.441   1.368
 3143SOL    HW111326   3.936  14.476   1.447
 3143SOL    HW211327   3.800  14.449   1.385
 3144SOL     OW11328   6.684   5.884  10.612
 3144SOL    HW111329   6.701   5.958  10.553
 3144SOL    HW211330   6.592   5.863  10.597
 3145SOL     OW11331   7.073   7.826   1.891
 3145SOL    HW111332   6.995   7.790   1.850
 3145SOL    HW211333   7.041   7.866   1.973
 3146SOL     OW11334  10.484   1.178   6.376
 3146SOL    HW111335  10.497   1.105   6.437
 3146SOL    HW211336  10.531   1.251   6.416
 3147SOL     OW11337   6.233   5.896  11.641
 3147SOL    HW111338   6.313   5.926  11.596
 3147SOL    HW211339   6.162   5.944  11.597
 3148SOL     OW11340   1.637  13.349   5.234
 3148SOL    HW111341   1.672  13.390   5.155
 3148SOL    HW211342   1.686  13.267   5.242
 3149SOL     OW11343  14.329  13.587   4.855
 3149SOL    HW111344  14.282  13.540   4.786
 3149SOL    HW211345  14.417  13.549   4.855
 3150SOL     OW11346   9.767   2.980   0.088
 3150SOL    HW111347   9.794   3.007   0.000
 3150SOL    HW211348   9.724   2.896   0.076
 3151SOL     OW11349  14.212   4.476   6.317
 3151SOL    HW111350  14.180   4.434   6.397
 3151SOL    HW211351  14.158   4.438   6.247
 3152SOL     OW11352   5.032   2.921   0.920
 3152SOL    HW111353   5.103   2.860   0.900
 3152SOL    HW211354   4.952   2.870   0.910
 3153SOL     OW11355  10.069   1.464   1.475
 3153SOL    HW111356  10.027   1.401   1.535
 3153SOL    HW211357  10.033   1.549   1.500
 3154SOL     OW11358   6.541  13.257   8.615
 3154SOL    HW111359   6.627  13.285   8.583
 3154SOL    HW211360   6.520  13.179   8.564
 3155SOL     OW11361   0.288  13.358   9.098
 3155SOL    HW111362   0.329  13.274   9.078
 3155SOL    HW211363   0.264  13.352   9.191
 3156SOL     OW11364   4.780  10.374   7.253
 3156SOL    HW111365   4.818  10.308   7.195
 3156SOL    HW211366   4.846  10.386   7.321
 3157SOL     OW11367   0.707  13.404   0.030
 3157SOL    HW111368   0.798  13.417   0.004
 3157SOL    HW211369   0.711  13.343   0.103
 3158SOL     OW11370   8.605  12.007   8.461
 3158SOL    HW111371   8.668  11.942   8.428
 3158SOL    HW211372   8.622  12.010   8.555
 3159SOL     OW11373   9.948   1.496   6.943
 3159SOL    HW111374   9.966   1.487   6.849
 3159SOL    HW211375   9.882   1.566   6.948
 3160SOL     OW11376  11.122   7.208  13.184
 3160SOL    HW111377  11.083   7.271  13.244
 3160SOL    HW211378  11.060   7.202  13.111
 3161SOL     OW11379  10.337   3.824   8.410
 3161SOL    HW111380  10.289   3.883   8.468
 3161SOL    HW211381  10.384   3.882   8.351
 3162SOL     OW11382  14.707   6.328  10.285
 3162SOL    HW111383  14.725   6.421  10.296
 3162SOL    HW211384  14.619   6.325  10.246
 3163SOL     OW11385   8.822  14.051  10.883
 3163SOL    HW111386   8.893  14.022  10.826
 3163SOL    HW211387   8.765  13.975  10.890
 3164SOL     OW11388  11.736   8.030   7.335
 3164SOL    HW111389  11.768   8.101   7.279
 3164SOL    HW211390  11.729   8.069   7.422
 3165SOL     OW11391  14.595  12.303  13.143
 3165SOL    HW111392  14.584  12.208  13.139
 3165SOL    HW211393  14.659  12.323  13.075
 3166SOL     OW11394  12.554   5.720   8.860
 3166SOL    HW111395  12.542   5.813   8.880
 3166SOL    HW211396  12.595   5.719   8.774
 3167SOL     OW11397   5.094   3.794   0.899
 3167SOL    HW111398   5.018   3.780   0.843
 3167SOL    HW211399   5.070   3.869   0.954
 3168SOL     OW11400  13.122  14.021   4.559
 3168SOL    HW111401  13.203  14.029   4.611
 3168SOL    HW211402  13.058  14.074   4.607
 3169SOL     OW11403  12.845   1.182   2.091
 3169SOL    HW111404  12.762   1.202   2.134
 3169SOL    HW211405  12.908   1.174   2.163
 3170SOL     OW11406  12.931  13.971  14.033
 3170SOL    HW111407  12.982  14.048  14.060
 3170SOL    HW211408  12.841  14.003  14.029
 3171SOL     OW11409   7.797   9.146  11.583
 3171SOL    HW111410   7.743   9.081  11.536
 3171SOL    HW211411   7.779   9.229  11.538
 3172SOL     OW11412   2.253   3.050   4.034
 3172SOL    HW111413   2.160   3.028   4.033
 3172SOL    HW211414   2.263   3.112   3.962
 3173SOL     OW11415   7.134   4.808   9.882
 3173SOL    HW111416   7.107   4.806   9.791
 3173SOL    HW211417   7.068   4.757   9.928
 3174SOL     OW11418   3.392   8.081   8.383
 3174SOL    HW111419   3.317   8.037   8.344
 3174SOL    HW211420   3.354   8.138   8.451
 3175SOL     OW11421   1.868   9.946  14.109
 3175SOL    HW111422   1.783   9.928  14.067
 3175SOL    HW211423   1.892   9.863  14.150
 3176SOL     OW11424   9.155   7.724   7.011
 3176SOL    HW111425   9.101   7.645   7.001
 3176SOL    HW211426   9.234   7.693   7.055
 3177SOL     OW11427   8.307   3.106   5.211
 3177SOL    HW111428   8.249   3.099   5.287
 3177SOL    HW211429   8.395   3.108   5.248
 3178SOL     OW11430  13.444   9.920   0.774
 3178SOL    HW111431  13.520   9.939   0.718
 3178SOL    HW211432  13.389   9.863   0.720
 3179SOL     OW11433   9.243   0.132   9.370
 3179SOL    HW111434   9.158   0.090   9.357
 3179SOL    HW211435   9.244   0.204   9.306
 3180SOL     OW11436  10.550   4.066   6.939
 3180SOL    HW111437  10.476   4.035   6.991
 3180SOL    HW211438  10.626   4.053   6.997
 3181SOL     OW11439   6.229   0.184   5.471
 3181SOL    HW111440   6.186   0.100   5.453
 3181SOL    HW211441   6.180   0.248   5.419
 3182SOL     OW11442   8.190  11.384  14.518
 3182SOL    HW111443   8.179  11.398  14.424
 3182SOL    HW211444   8.129  11.314  14.540
 3183SOL     OW11445  14.637  13.612  12.529
 3183SOL    HW111446  14.594  13.697  12.535
 3183SOL    HW211447  14.604  13.563  12.604
 3184SOL     OW11448  12.032   4.611  11.316
 3184SOL    HW111449  11.947   4.654  11.308
 3184SOL    HW211450  12.057   4.588  11.226
 3185SOL     OW11451   2.125   2.285   2.862
 3185SOL    HW111452   2.041   2.242   2.877
 3185SOL    HW211453   2.131   2.294   2.767
 3186SOL     OW11454   1.068  14.744   8.581
 3186SOL    HW111455   1.097  14.705   8.664
 3186SOL    HW211456   1.021  14.674   8.536
 3187SOL     OW11457   2.369  11.624   4.910
 3187SOL    HW111458   2.378  11.717   4.933
 3187SOL    HW211459   2.427  11.579   4.972
 3188SOL     OW11460  13.251   8.488   5.278
 3188SOL    HW111461  13.256   8.408   5.330
 3188SOL    HW211462  13.310   8.550   5.322
 3189SOL     OW11463   5.224   9.431   4.843
 3189SOL    HW111464   5.133   9.449   4.865
 3189SOL    HW211465   5.224   9.419   4.748
 3190SOL     OW11466   2.934   3.266   7.199
 3190SOL    HW111467   2.894   3.256   7.286
 3190SOL    HW211468   2.871   3.320   7.150
 3191SOL     OW11469   4.704   7.021  13.875
 3191SOL    HW111470   4.653   7.068  13.809
 3191SOL    HW211471   4.655   7.033  13.956
 3192SOL     OW11472   0.905  14.535  13.883
 3192SOL    HW111473   0.850  14.541  13.961
 3192SOL    HW211474   0.907  14.442  13.862
 3193SOL     OW11475   4.972   8.527   1.111
 3193SOL    HW111476   5.014   8.564   1.033
 3193SOL    HW211477   4.972   8.599   1.174
 3194SOL     OW11478  13.477   8.473  14.058
 3194SOL    HW111479  13.434   8.416  13.995
 3194SOL    HW211480  13.568   8.476  14.029
 3195SOL     OW11481   6.785  10.126   6.046
 3195SOL    HW111482   6.768  10.209   6.002
 3195SOL    HW211483   6.705  10.074   6.032
 3196SOL     OW11484   6.217   3.017   2.897
 3196SOL    HW111485   6.160   2.983   2.967
 3196SOL    HW211486   6.180   2.981   2.817
 3197SOL     OW11487   7.707   0.708  13.920
 3197SOL    HW111488   7.656   0.627  13.917
 3197SOL    HW211489   7.747   0.714  13.833
 3198SOL     OW11490   3.822   1.863   5.293
 3198SOL    HW111491   3.746   1.807   5.289
 3198SOL    HW211492   3.841   1.886   5.201
 3199SOL     OW11493   0.387   5.092  10.905
 3199SOL    HW111494   0.395   5.169  10.848
 3199SOL    HW211495   0.425   5.020  10.855
 3200SOL     OW11496  10.006  10.914   0.842
 3200SOL    HW111497   9.946  10.969   0.893
 3200SOL    HW211498  10.006  10.830   0.887
 3201SOL     OW11499   4.726   2.164  12.036
 3201SOL    HW111500   4.753   2.198  12.121
 3201SOL    HW211501   4.808   2.149  11.988
 3202SOL     OW11502   5.463  11.358   2.205
 3202SOL    HW111503   5.453  11.324   2.294
 3202SOL    HW211504   5.429  11.288   2.148
 3203SOL     OW11505  13.295  12.500   6.208
 3203SOL    HW111506  13.319  12.477   6.297
 3203SOL    HW211507  13.250  12.422   6.174
 3204SOL     OW11508  11.892   9.584  10.300
 3204SOL    HW111509  11.814   9.536  10.275
 3204SOL    HW211510  11.951   9.576  10.225
 3205SOL     OW11511  10.023   5.846   6.817
 3205SOL    HW111512  10.082   5.921   6.806
 3205SOL    HW211513   9.943   5.872   6.772
 3206SOL     OW11514   5.675   9.174   9.053
 3206SOL    HW111515   5.695   9.266   9.073
 3206SOL    HW211516   5.743   9.147   8.992
 3207SOL     OW11517   7.135  14.272   4.543
 3207SOL    HW111518   7.158  14.323   4.620
 3207SOL    HW211519   7.040  14.260   4.550
 3208SOL     OW11520  12.831  11.643   9.969
 3208SOL    HW111521  12.854  11.622   9.878
 3208SOL    HW211522  12.757  11.586   9.989
 3209SOL     OW11523   9.509   3.459   0.487
 3209SOL    HW111524   9.506   3.382   0.430
 3209SOL    HW211525   9.483   3.531   0.430
 3210SOL     OW11526  11.998  12.197   6.144
 3210SOL    HW111527  11.958  12.168   6.062
 3210SOL    HW211528  11.936  12.170   6.211
 3211SOL     OW11529   7.802   4.455   2.288
 3211SOL    HW111530   7.818   4.549   2.285
 3211SOL    HW211531   7.712   4.445   2.257
 3212SOL     OW11532   8.720  14.653  10.561
 3212SOL    HW111533   8.780  14.728  10.553
 3212SOL    HW211534   8.726  14.628  10.653
 3213SOL     OW11535   4.100   0.881  10.900
 3213SOL    HW111536   4.111   0.961  10.952
 3213SOL    HW211537   4.171   0.824  10.928
 3214SOL     OW11538  10.962  13.271   5.085
 3214SOL    HW111539  10.998  13.239   5.167
 3214SOL    HW211540  11.001  13.214   5.018
 3215SOL     OW11541  12.063   0.862   9.928
 3215SOL    HW111542  12.044   0.840   9.837
 3215SOL    HW211543  12.107   0.785   9.962
 3216SOL     OW11544  13.821  11.321  12.267
 3216SOL    HW111545  13.851  11.232  12.252
 3216SOL    HW211546  13.875  11.353  12.340
 3217SOL     OW11547   3.556   4.504  14.610
 3217SOL    HW111548   3.552   4.411  14.633
 3217SOL    HW211549   3.649   4.521  14.595
 3218SOL     OW11550  11.807   2.725   3.716
 3218SOL    HW111551  11.790   2.740   3.809
 3218SOL    HW211552  11.834   2.810   3.683
 3219SOL     OW11553   2.533   6.545   4.764
 3219SOL    HW111554   2.623   6.516   4.776
 3219SOL    HW211555   2.500   6.559   4.853
 3220SOL     OW11556   3.701  13.682  11.260
 3220SOL    HW111557   3.736  13.771  11.258
 3220SOL    HW211558   3.766  13.633  11.311
 3221SOL     OW11559  12.545   9.790  12.826
 3221SOL    HW111560  12.602   9.866  12.822
 3221SOL    HW211561  12.520   9.773  12.735
 3222SOL     OW11562   3.160  11.123   4.877
 3222SOL    HW111563   3.165  11.035   4.839
 3222SOL    HW211564   3.086  11.118   4.938
 3223SOL     OW11565   2.096   7.199   4.110
 3223SOL    HW111566   2.157   7.192   4.036
 3223SOL    HW211567   2.138   7.261   4.170
 3224SOL     OW11568   6.090   9.655   2.312
 3224SOL    HW111569   6.045   9.698   2.240
 3224SOL    HW211570   6.072   9.710   2.388
 3225SOL     OW11571  12.163   2.473   2.232
 3225SOL    HW111572  12.087   2.494   2.178
 3225SOL    HW211573  12.202   2.397   2.189
 3226SOL     OW11574   8.877   1.293   4.928
 3226SOL    HW111575   8.948   1.270   4.987
 3226SOL    HW211576   8.840   1.209   4.900
 3227SOL     OW11577   2.230   4.370   3.944
 3227SOL    HW111578   2.316   4.407   3.927
 3227SOL    HW211579   2.233   4.282   3.907
 3228SOL     OW11580   9.582   5.836  13.769
 3228SOL    HW111581   9.493   5.808  13.751
 3228SOL    HW211582   9.625   5.757  13.803
 3229SOL     OW11583  11.650  10.748   8.601
 3229SOL    HW111584  11.691  10.670   8.563
 3229SOL    HW211585  11.570  10.715   8.642
 3230SOL     OW11586  12.084   7.679   1.738
 3230SOL    HW111587  12.033   7.736   1.795
 3230SOL    HW211588  12.133   7.623   1.798
 3231SOL     OW11589   8.930   2.945   1.188
 3231SOL    HW111590   8.930   3.035   1.155
 3231SOL    HW211591   9.001   2.943   1.252
 3232SOL     OW11592   2.938   7.481   1.684
 3232SOL    HW111593   3.012   7.537   1.706
 3232SOL    HW211594   2.867   7.513   1.741
 3233SOL     OW11595   2.336   6.799   6.943
 3233SOL    HW111596   2.320   6.887   6.907
 3233SOL    HW211597   2.288   6.740   6.884
 3234SOL     OW11598   9.746  13.356   2.717
 3234SOL    HW111599   9.689  13.430   2.696
 3234SOL    HW211600   9.786  13.331   2.634
 3235SOL     OW11601   2.345   2.572  12.851
 3235SOL    HW111602   2.381   2.500  12.903
 3235SOL    HW211603   2.371   2.651  12.899
 3236SOL     OW11604  14.110   6.814   6.292
 3236SOL    HW111605  14.199   6.826   6.260
 3236SOL    HW211606  14.120   6.766   6.375
 3237SOL     OW11607  11.090  14.850   9.820
 3237SOL    HW111608  11.005   0.023   9.828
 3237SOL    HW211609  11.084  14.799   9.739
 3238SOL     OW11610  12.682  11.036   9.904
 3238SOL    HW111611  12.699  10.992   9.820
 3238SOL    HW211612  12.768  11.069   9.931
 3239SOL     OW11613   8.524  11.523   9.336
 3239SOL    HW111614   8.565  11.609   9.341
 3239SOL    HW211615   8.572  11.478   9.266
 3240SOL     OW11616   9.131  13.905   3.254
 3240SOL    HW111617   9.109  13.815   3.276
 3240SOL    HW211618   9.223  13.901   3.227
 3241SOL     OW11619  13.669   2.347  13.337
 3241SOL    HW111620  13.708   2.311  13.417
 3241SOL    HW211621  13.612   2.417  13.368
 3242SOL     OW11622   8.933  12.765   1.145
 3242SOL    HW111623   8.974  12.801   1.067
 3242SOL    HW211624   9.005  12.727   1.195
 3243SOL     OW11625   2.577   2.670   7.158
 3243SOL    HW111626   2.656   2.674   7.211
 3243SOL    HW211627   2.533   2.590   7.187
 3244SOL     OW11628   9.715  10.137  13.062
 3244SOL    HW111629   9.749  10.215  13.106
 3244SOL    HW211630   9.699  10.165  12.972
 3245SOL     OW11631  11.613   7.905   8.161
 3245SOL    HW111632  11.564   7.917   8.243
 3245SOL    HW211633  11.548   7.918   8.092
 3246SOL     OW11634   2.571   5.852   1.854
 3246SOL    HW111635   2.570   5.878   1.946
 3246SOL    HW211636   2.513   5.776   1.849
 3247SOL     OW11637   4.102  11.352   4.986
 3247SOL    HW111638   4.103  11.355   5.082
 3247SOL    HW211639   4.116  11.443   4.959
 3248SOL     OW11640   3.369   0.250   4.335
 3248SOL    HW111641   3.306   0.304   4.287
 3248SOL    HW211642   3.321   0.172   4.360
 3249SOL     OW11643   4.789   3.817   7.402
 3249SOL    HW111644   4.834   3.855   7.327
 3249SOL    HW211645   4.852   3.824   7.474
 3250SOL     OW11646  14.637   7.269   9.309
 3250SOL    HW111647  14.565   7.224   9.354
 3250SOL    HW211648  14.703   7.280   9.377
 3251SOL     OW11649   1.621  12.971  13.780
 3251SOL    HW111650   1.529  12.989  13.763
 3251SOL    HW211651   1.626  12.875  13.786
 3252SOL     OW11652  10.973   0.222  12.744
 3252SOL    HW111653  10.964   0.130  12.771
 3252SOL    HW211654  11.066   0.241  12.756
 3253SOL     OW11655   3.268  13.339   7.647
 3253SOL    HW111656   3.270  13.414   7.587
 3253SOL    HW211657   3.188  13.352   7.698
 3254SOL     OW11658  12.464   1.282   7.923
 3254SOL    HW111659  12.409   1.214   7.883
 3254SOL    HW211660  12.509   1.237   7.995
 3255SOL     OW11661   9.109   3.842   4.497
 3255SOL    HW111662   9.079   3.752   4.488
 3255SOL    HW211663   9.068   3.889   4.425
 3256SOL     OW11664   4.397   0.588   3.322
 3256SOL    HW111665   4.339   0.663   3.329
 3256SOL    HW211666   4.485   0.626   3.317
 3257SOL     OW11667   3.150   1.997   4.476
 3257SOL    HW111668   3.161   2.012   4.570
 3257SOL    HW211669   3.233   1.959   4.447
 3258SOL     OW11670  11.434  11.980   2.418
 3258SOL    HW111671  11.485  11.905   2.387
 3258SOL    HW211672  11.347  11.945   2.435
 3259SOL     OW11673  13.941   8.498   7.020
 3259SOL    HW111674  13.925   8.551   7.097
 3259SOL    HW211675  13.973   8.560   6.954
 3260SOL     OW11676  12.393   6.240   2.588
 3260SOL    HW111677  12.392   6.280   2.502
 3260SOL    HW211678  12.323   6.285   2.636
 3261SOL     OW11679   9.200  13.921  11.391
 3261SOL    HW111680   9.123  13.893  11.440
 3261SOL    HW211681   9.204  14.015  11.404
 3262SOL     OW11682   3.870   6.398   5.514
 3262SOL    HW111683   3.792   6.396   5.459
 3262SOL    HW211684   3.846   6.349   5.593
 3263SOL     OW11685   9.614   8.502   3.346
 3263SOL    HW111686   9.564   8.452   3.410
 3263SOL    HW211687   9.557   8.506   3.269
 3264SOL     OW11688  12.592   2.321  13.434
 3264SOL    HW111689  12.664   2.352  13.380
 3264SOL    HW211690  12.580   2.390  13.499
 3265SOL     OW11691   4.070   9.445   9.325
 3265SOL    HW111692   4.105   9.454   9.414
 3265SOL    HW211693   4.136   9.487   9.269
 3266SOL     OW11694   0.293  14.547   3.528
 3266SOL    HW111695   0.224  14.496   3.486
 3266SOL    HW211696   0.310  14.620   3.469
 3267SOL     OW11697   9.009   6.015   7.881
 3267SOL    HW111698   8.938   5.953   7.903
 3267SOL    HW211699   9.078   5.959   7.845
 3268SOL     OW11700   2.909   4.599   9.278
 3268SOL    HW111701   2.813   4.598   9.268
 3268SOL    HW211702   2.942   4.581   9.190
 3269SOL     OW11703   2.719   1.876   5.471
 3269SOL    HW111704   2.773   1.909   5.399
 3269SOL    HW211705   2.739   1.933   5.544
 3270SOL     OW11706  10.836  14.463   5.091
 3270SOL    HW111707  10.886  14.432   5.016
 3270SOL    HW211708  10.748  14.480   5.057
 3271SOL     OW11709   0.441   8.513  12.270
 3271SOL    HW111710   0.488   8.592  12.244
 3271SOL    HW211711   0.449   8.455  12.194
 3272SOL     OW11712  13.690   6.598  10.731
 3272SOL    HW111713  13.709   6.632  10.643
 3272SOL    HW211714  13.595   6.589  10.733
 3273SOL     OW11715   6.397   9.353   6.028
 3273SOL    HW111716   6.425   9.440   5.998
 3273SOL    HW211717   6.311   9.369   6.068
 3274SOL     OW11718   1.976  14.296  13.984
 3274SOL    HW111719   2.011  14.278  14.072
 3274SOL    HW211720   1.981  14.212  13.939
 3275SOL     OW11721  13.490   0.779  14.193
 3275SOL    HW111722  13.507   0.763  14.285
 3275SOL    HW211723  13.549   0.720  14.146
 3276SOL     OW11724   6.843   1.790   9.968
 3276SOL    HW111725   6.919   1.780   9.912
 3276SOL    HW211726   6.878   1.787  10.057
 3277SOL     OW11727   7.398  14.674   9.658
 3277SOL    HW111728   7.452  14.622   9.598
 3277SOL    HW211729   7.320  14.696   9.606
 3278SOL     OW11730   5.162  12.465   4.168
 3278SOL    HW111731   5.186  12.373   4.170
 3278SOL    HW211732   5.214  12.505   4.238
 3279SOL     OW11733   0.091   1.278   7.235
 3279SOL    HW111734   0.002   1.311   7.248
 3279SOL    HW211735   0.105   1.283   7.140
 3280SOL     OW11736  14.121   6.876   1.254
 3280SOL    HW111737  14.104   6.804   1.315
 3280SOL    HW211738  14.084   6.847   1.171
 3281SOL     OW11739  11.279   2.136   8.191
 3281SOL    HW111740  11.354   2.186   8.159
 3281SOL    HW211741  11.211   2.203   8.205
 3282SOL     OW11742  14.125  13.770   3.864
 3282SOL    HW111743  14.071  13.723   3.928
 3282SOL    HW211744  14.124  13.861   3.894
 3283SOL     OW11745  12.908   1.033   5.965
 3283SOL    HW111746  12.869   1.118   5.983
 3283SOL    HW211747  12.985   1.030   6.023
 3284SOL     OW11748  10.095   8.328  12.022
 3284SOL    HW111749  10.152   8.309  11.947
 3284SOL    HW211750  10.115   8.418  12.045
 3285SOL     OW11751  10.080   2.923  14.412
 3285SOL    HW111752  10.135   2.948  14.338
 3285SOL    HW211753  10.069   3.004  14.462
 3286SOL     OW11754   7.533  12.725   1.229
 3286SOL    HW111755   7.626  12.738   1.246
 3286SOL    HW211756   7.529  12.700   1.137
 3287SOL     OW11757   8.860  10.126   1.337
 3287SOL    HW111758   8.901  10.197   1.287
 3287SOL    HW211759   8.849  10.162   1.425
 3288SOL     OW11760   7.452   1.595   6.630
 3288SOL    HW111761   7.363   1.561   6.640
 3288SOL    HW211762   7.508   1.527   6.666
 3289SOL     OW11763   6.281   1.577   7.743
 3289SOL    HW111764   6.321   1.607   7.661
 3289SOL    HW211765   6.215   1.514   7.715
 3290SOL     OW11766  13.029   7.862  12.298
 3290SOL    HW111767  13.031   7.906  12.384
 3290SOL    HW211768  12.938   7.868  12.270
 3291SOL     OW11769  10.135   5.772   2.152
 3291SOL    HW111770  10.173   5.691   2.185
 3291SOL    HW211771  10.123   5.826   2.231
 3292SOL     OW11772   3.807   2.938   6.066
 3292SOL    HW111773   3.754   2.989   6.127
 3292SOL    HW211774   3.897   2.963   6.085
 3293SOL     OW11775  11.715   1.681   9.276
 3293SOL    HW111776  11.793   1.644   9.317
 3293SOL    HW211777  11.738   1.772   9.257
 3294SOL     OW11778  12.796   5.041   6.376
 3294SOL    HW111779  12.816   5.073   6.288
 3294SOL    HW211780  12.870   5.071   6.430
 3295SOL     OW11781  10.070  11.968   0.050
 3295SOL    HW111782  10.073  12.033  14.850
 3295SOL    HW211783  10.161  11.947   0.069
 3296SOL     OW11784  14.509   0.549   0.835
 3296SOL    HW111785  14.501   0.456   0.855
 3296SOL    HW211786  14.588   0.577   0.883
 3297SOL     OW11787   8.087  10.670   6.726
 3297SOL    HW111788   8.083  10.765   6.737
 3297SOL    HW211789   8.100  10.658   6.632
 3298SOL     OW11790  13.261   6.664   3.578
 3298SOL    HW111791  13.283   6.580   3.536
 3298SOL    HW211792  13.189   6.698   3.526
 3299SOL     OW11793   9.187  13.016   4.910
 3299SOL    HW111794   9.122  12.976   4.852
 3299SOL    HW211795   9.201  13.103   4.873
 3300SOL     OW11796   1.653  14.555   6.799
 3300SOL    HW111797   1.655  14.494   6.873
 3300SOL    HW211798   1.632  14.499   6.723
 3301SOL     OW11799   8.937   0.864   4.896
 3301SOL    HW111800   9.028   0.861   4.868
 3301SOL    HW211801   8.916   0.774   4.921
 3302SOL     OW11802   1.152   4.592   4.631
 3302SOL    HW111803   1.243   4.621   4.643
 3302SOL    HW211804   1.125   4.562   4.718
 3303SOL     OW11805   5.391   8.439   6.617
 3303SOL    HW111806   5.403   8.456   6.524
 3303SOL    HW211807   5.437   8.511   6.661
 3304SOL     OW11808   0.048   3.406  12.944
 3304SOL    HW111809  14.847   3.406  13.008
 3304SOL    HW211810   0.125   3.433  12.994
 3305SOL     OW11811  10.778   9.192   1.874
 3305SOL    HW111812  10.738   9.279   1.877
 3305SOL    HW211813  10.851   9.202   1.813
 3306SOL     OW11814   4.873   0.998  14.451
 3306SOL    HW111815   4.834   0.990  14.538
 3306SOL    HW211816   4.967   1.002  14.466
 3307SOL     OW11817   8.983  11.031   0.773
 3307SOL    HW111818   8.962  10.957   0.716
 3307SOL    HW211819   8.924  11.021   0.848
 3308SOL     OW11820   0.322   0.445   8.183
 3308SOL    HW111821   0.305   0.482   8.096
 3308SOL    HW211822   0.284   0.357   8.179
 3309SOL     OW11823   5.122   6.398   1.427
 3309SOL    HW111824   5.052   6.433   1.372
 3309SOL    HW211825   5.143   6.469   1.487
 3310SOL     OW11826   1.533   6.826   2.436
 3310SOL    HW111827   1.498   6.813   2.524
 3310SOL    HW211828   1.462   6.867   2.388
 3311SOL     OW11829   2.090   8.839  14.215
 3311SOL    HW111830   2.126   8.790  14.289
 3311SOL    HW211831   2.050   8.772  14.158
 3312SOL     OW11832   7.807   3.878   7.221
 3312SOL    HW111833   7.816   3.806   7.283
 3312SOL    HW211834   7.745   3.938   7.262
 3313SOL     OW11835  10.179   4.117   7.663
 3313SOL    HW111836  10.085   4.099   7.662
 3313SOL    HW211837  10.190   4.187   7.727
 3314SOL     OW11838   5.512  14.012   0.065
 3314SOL    HW111839   5.517  14.107   0.073
 3314SOL    HW211840   5.580  13.979   0.122
 3315SOL     OW11841   1.418  10.145   5.197
 3315SOL    HW111842   1.336  10.163   5.243
 3315SOL    HW211843   1.486  10.177   5.256
 3316SOL     OW11844   1.076   8.886   1.106
 3316SOL    HW111845   1.056   8.880   1.013
 3316SOL    HW211846   0.995   8.917   1.146
 3317SOL     OW11847   5.661   7.074   6.194
 3317SOL    HW111848   5.756   7.088   6.194
 3317SOL    HW211849   5.648   7.004   6.130
 3318SOL     OW11850  12.998   5.265  13.563
 3318SOL    HW111851  12.943   5.187  13.569
 3318SOL    HW211852  13.073   5.237  13.511
 3319SOL     OW11853   0.900   5.570   1.481
 3319SOL    HW111854   0.929   5.527   1.400
 3319SOL    HW211855   0.968   5.549   1.545
 3320SOL     OW11856   6.678   3.047  13.783
 3320SOL    HW111857   6.749   2.990  13.755
 3320SOL    HW211858   6.598   2.997  13.766
 3321SOL     OW11859   5.342   7.629  12.888
 3321SOL    HW111860   5.251   7.625  12.858
 3321SOL    HW211861   5.353   7.551  12.942
 3322SOL     OW11862  11.989  10.088   6.817
 3322SOL    HW111863  11.906  10.094   6.771
 3322SOL    HW211864  11.968  10.045   6.899
 3323SOL     OW11865   2.687   9.695  14.258
 3323SOL    HW111866   2.638   9.757  14.311
 3323SOL    HW211867   2.625   9.625  14.238
 3324SOL     OW11868   4.835   2.758   9.438
 3324SOL    HW111869   4.852   2.768   9.345
 3324SOL    HW211870   4.867   2.670   9.459
 3325SOL     OW11871  10.265   4.868  14.781
 3325SOL    HW111872  10.323   4.933  14.741
 3325SOL    HW211873  10.202   4.846  14.712
 3326SOL     OW11874  14.588   8.476   6.537
 3326SOL    HW111875  14.683   8.484   6.547
 3326SOL    HW211876  14.570   8.383   6.551
 3327SOL     OW11877   6.422   5.313  11.976
 3327SOL    HW111878   6.419   5.349  12.065
 3327SOL    HW211879   6.331   5.304  11.950
 3328SOL     OW11880  12.387  12.373   4.236
 3328SOL    HW111881  12.381  12.387   4.330
 3328SOL    HW211882  12.302  12.401   4.202
 3329SOL     OW11883  10.944  12.199   2.815
 3329SOL    HW111884  11.020  12.189   2.757
 3329SOL    HW211885  10.981  12.199   2.903
 3330SOL     OW11886   4.253   7.582  13.065
 3330SOL    HW111887   4.274   7.675  13.074
 3330SOL    HW211888   4.205   7.562  13.146
 3331SOL     OW11889   5.691  13.170  13.341
 3331SOL    HW111890   5.681  13.104  13.408
 3331SOL    HW211891   5.740  13.241  13.383
 3332SOL     OW11892   6.625   1.665   0.917
 3332SOL    HW111893   6.709   1.641   0.955
 3332SOL    HW211894   6.644   1.681   0.825
 3333SOL     OW11895  14.777  13.268   0.101
 3333SOL    HW111896  14.737  13.209   0.037
 3333SOL    HW211897  14.755  13.231   0.186
 3334SOL     OW11898  13.387   7.190   8.161
 3334SOL    HW111899  13.396   7.111   8.213
 3334SOL    HW211900  13.403   7.162   8.071
 3335SOL     OW11901   0.834   5.197  12.588
 3335SOL    HW111902   0.896   5.146  12.640
 3335SOL    HW211903   0.803   5.135  12.521
 3336SOL     OW11904  13.261  11.248   7.615
 3336SOL    HW111905  13.347  11.274   7.583
 3336SOL    HW211906  13.222  11.330   7.647
 3337SOL     OW11907  11.948   2.027   7.000
 3337SOL    HW111908  12.040   2.013   7.023
 3337SOL    HW211909  11.937   2.122   7.002
 3338SOL     OW11910   4.177   2.494  10.792
 3338SOL    HW111911   4.236   2.425  10.823
 3338SOL    HW211912   4.183   2.490  10.696
 3339SOL     OW11913   7.695  14.082   2.616
 3339SOL    HW111914   7.756  14.156   2.614
 3339SOL    HW211915   7.630  14.107   2.682
 3340SOL     OW11916   3.194   3.397   6.272
 3340SOL    HW111917   3.228   3.314   6.308
 3340SOL    HW211918   3.234   3.404   6.186
 3341SOL     OW11919  11.541   1.229   4.066
 3341SOL    HW111920  11.511   1.291   4.000
 3341SOL    HW211921  11.620   1.269   4.103
 3342SOL     OW11922   0.501   3.122   5.580
 3342SOL    HW111923   0.531   3.140   5.669
 3342SOL    HW211924   0.475   3.030   5.582
 3343SOL     OW11925   3.359  11.166   8.705
 3343SOL    HW111926   3.364  11.206   8.792
 3343SOL    HW211927   3.371  11.072   8.721
 3344SOL     OW11928  10.943   3.977   8.847
 3344SOL    HW111929  11.036   3.996   8.859
 3344SOL    HW211930  10.920   4.020   8.765
 3345SOL     OW11931  10.421  10.729   4.147
 3345SOL    HW111932  10.437  10.686   4.063
 3345SOL    HW211933  10.373  10.664   4.198
 3346SOL     OW11934   3.368  12.907   5.815
 3346SOL    HW111935   3.275  12.887   5.823
 3346SOL    HW211936   3.373  12.974   5.747
 3347SOL     OW11937   7.060   1.210  11.254
 3347SOL    HW111938   6.990   1.240  11.196
 3347SOL    HW211939   7.130   1.274  11.242
 3348SOL     OW11940  13.088  13.040   3.708
 3348SOL    HW111941  13.124  13.027   3.795
 3348SOL    HW211942  13.017  12.976   3.701
 3349SOL     OW11943  10.454  14.202   0.040
 3349SOL    HW111944  10.456  14.293   0.009
 3349SOL    HW211945  10.368  14.193   0.079
 3350SOL     OW11946   8.977  11.729   1.884
 3350SOL    HW111947   8.967  11.646   1.837
 3350SOL    HW211948   9.034  11.709   1.958
 3351SOL     OW11949  10.107   8.810   4.855
 3351SOL    HW111950  10.195   8.799   4.892
 3351SOL    HW211951  10.064   8.871   4.915
 3352SOL     OW11952   6.889   2.639   9.392
 3352SOL    HW111953   6.899   2.675   9.304
 3352SOL    HW211954   6.806   2.675   9.424
 3353SOL     OW11955  13.356  11.367  12.647
 3353SOL    HW111956  13.352  11.320  12.730
 3353SOL    HW211957  13.296  11.320  12.589
 3354SOL     OW11958   4.872   3.891   2.502
 3354SOL    HW111959   4.894   3.897   2.595
 3354SOL    HW211960   4.815   3.966   2.486
 3355SOL     OW11961  14.221   8.383   9.666
 3355SOL    HW111962  14.251   8.459   9.617
 3355SOL    HW211963  14.289   8.368   9.732
 3356SOL     OW11964  14.416  13.486   2.867
 3356SOL    HW111965  14.394  13.555   2.929
 3356SOL    HW211966  14.390  13.405   2.911
 3357SOL     OW11967   2.122   1.146   6.146
 3357SOL    HW111968   2.167   1.121   6.066
 3357SOL    HW211969   2.122   1.241   6.145
 3358SOL     OW11970  13.321  13.997   9.234
 3358SOL    HW111971  13.360  13.914   9.207
 3358SOL    HW211972  13.386  14.063   9.209
 3359SOL     OW11973   4.713   2.470  11.797
 3359SOL    HW111974   4.667   2.412  11.858
 3359SOL    HW211975   4.802   2.476  11.831
 3360SOL     OW11976   6.041   6.271   7.908
 3360SOL    HW111977   6.043   6.175   7.910
 3360SOL    HW211978   6.012   6.297   7.995
 3361SOL     OW11979   7.351   2.663   7.656
 3361SOL    HW111980   7.415   2.678   7.587
 3361SOL    HW211981   7.278   2.619   7.612
 3362SOL     OW11982  13.709  10.095  12.826
 3362SOL    HW111983  13.774  10.026  12.817
 3362SOL    HW211984  13.728  10.156  12.754
 3363SOL     OW11985   0.560   8.884  13.340
 3363SOL    HW111986   0.498   8.935  13.288
 3363SOL    HW211987   0.579   8.940  13.416
 3364SOL     OW11988   6.054   3.616   5.785
 3364SOL    HW111989   6.115   3.657   5.724
 3364SOL    HW211990   6.098   3.622   5.870
 3365SOL     OW11991  13.134   3.179   0.485
 3365SOL    HW111992  13.188   3.158   0.562
 3365SOL    HW211993  13.141   3.102   0.429
 3366SOL     OW11994   0.267   6.532   9.278
 3366SOL    HW111995   0.294   6.466   9.342
 3366SOL    HW211996   0.230   6.603   9.332
 3367SOL     OW11997  13.210   6.909   2.772
 3367SOL    HW111998  13.178   6.841   2.832
 3367SOL    HW211999  13.229   6.984   2.829
 3368SOL     OW12000   7.527  12.651   3.516
 3368SOL    HW112001   7.505  12.706   3.440
 3368SOL    HW212002   7.445  12.646   3.566
 3369SOL     OW12003  12.303   7.755   7.259
 3369SOL    HW112004  12.286   7.711   7.342
 3369SOL    HW212005  12.220   7.750   7.211
 3370SOL     OW12006   3.199  12.572   3.625
 3370SOL    HW112007   3.235  12.611   3.704
 3370SOL    HW212008   3.269  12.582   3.560
 3371SOL     OW12009   1.825  11.558  13.212
 3371SOL    HW112010   1.742  11.604  13.203
 3371SOL    HW212011   1.845  11.560  13.305
 3372SOL     OW12012  10.420   9.154   0.037
 3372SOL    HW112013  10.497   9.186  14.860
 3372SOL    HW212014  10.379   9.233   0.073
 3373SOL     OW12015   2.311  12.310   5.250
 3373SOL    HW112016   2.258  12.321   5.171
 3373SOL    HW212017   2.252  12.266   5.311
 3374SOL     OW12018   6.727   7.446   3.836
 3374SOL    HW112019   6.798   7.461   3.773
 3374SOL    HW212020   6.648   7.476   3.791
 3375SOL     OW12021   3.324   4.558   6.698
 3375SOL    HW112022   3.347   4.549   6.605
 3375SOL    HW212023   3.384   4.499   6.743
 3376SOL     OW12024   6.597  12.502  12.893
 3376SOL    HW112025   6.503  12.519  12.885
 3376SOL    HW212026   6.619  12.450  12.816
 3377SOL     OW12027   2.125   1.473   3.722
 3377SOL    HW112028   2.056   1.436   3.666
 3377SOL    HW212029   2.142   1.405   3.787
 3378SOL     OW12030   2.211  13.112  13.190
 3378SOL    HW112031   2.215  13.091  13.097
 3378SOL    HW212032   2.240  13.033  13.234
 3379SOL     OW12033  13.332   9.159   4.160
 3379SOL    HW112034  13.318   9.082   4.106
 3379SOL    HW212035  13.352   9.125   4.247
 3380SOL     OW12036   4.417   9.820   3.927
 3380SOL    HW112037   4.507   9.795   3.908
 3380SOL    HW212038   4.420   9.915   3.936
 3381SOL     OW12039   9.873   5.597   6.992
 3381SOL    HW112040   9.954   5.640   7.020
 3381SOL    HW212041   9.829   5.661   6.938
 3382SOL     OW12042   4.532  13.246  10.178
 3382SOL    HW112043   4.575  13.260  10.094
 3382SOL    HW212044   4.498  13.332  10.202
 3383SOL     OW12045   4.459  11.084   7.152
 3383SOL    HW112046   4.364  11.068   7.155
 3383SOL    HW212047   4.482  11.109   7.241
 3384SOL     OW12048   9.142   3.368   7.641
 3384SOL    HW112049   9.217   3.344   7.695
 3384SOL    HW212050   9.136   3.463   7.649
 3385SOL     OW12051   0.028  11.835   8.061
 3385SOL    HW112052  14.862  11.862   7.976
 3385SOL    HW212053   0.117  11.807   8.042
 3386SOL     OW12054   1.470  11.061  13.603
 3386SOL    HW112055   1.414  11.023  13.535
 3386SOL    HW212056   1.472  11.154  13.582
 3387SOL     OW12057  10.582  14.026  11.185
 3387SOL    HW112058  10.578  13.934  11.212
 3387SOL    HW212059  10.627  14.025  11.101
 3388SOL     OW12060  13.802   6.942   8.751
 3388SOL    HW112061  13.747   6.866   8.769
 3388SOL    HW212062  13.740   7.009   8.721
 3389SOL     OW12063   8.470   6.411  10.774
 3389SOL    HW112064   8.397   6.433  10.832
 3389SOL    HW212065   8.548   6.437  10.824
 3390SOL     OW12066   0.844   4.167   7.816
 3390SOL    HW112067   0.835   4.112   7.737
 3390SOL    HW212068   0.929   4.142   7.852
 3391SOL     OW12069  11.508   1.798   3.420
 3391SOL    HW112070  11.564   1.787   3.343
 3391SOL    HW212071  11.547   1.871   3.468
 3392SOL     OW12072  11.777   7.431   8.707
 3392SOL    HW112073  11.772   7.350   8.757
 3392SOL    HW212074  11.815   7.405   8.623
 3393SOL     OW12075   3.805   9.000   9.409
 3393SOL    HW112076   3.846   9.083   9.433
 3393SOL    HW212077   3.875   8.948   9.371
 3394SOL     OW12078   3.496   0.910   0.642
 3394SOL    HW112079   3.521   1.002   0.642
 3394SOL    HW212080   3.567   0.865   0.688
 3395SOL     OW12081   1.491   7.994   4.193
 3395SOL    HW112082   1.478   8.030   4.281
 3395SOL    HW212083   1.586   7.998   4.180
 3396SOL     OW12084   1.343  10.668  13.592
 3396SOL    HW112085   1.303  10.683  13.506
 3396SOL    HW212086   1.309  10.739  13.646
 3397SOL     OW12087   4.514   1.946  13.696
 3397SOL    HW112088   4.478   1.870  13.650
 3397SOL    HW212089   4.608   1.930  13.698
 3398SOL     OW12090   2.749  13.918  13.782
 3398SOL    HW112091   2.731  14.005  13.745
 3398SOL    HW212092   2.798  13.873  13.714
 3399SOL     OW12093  11.008  10.930   8.787
 3399SOL    HW112094  10.945  10.865   8.816
 3399SOL    HW212095  11.007  10.997   8.855
 3400SOL     OW12096  10.505   3.062   6.992
 3400SOL    HW112097  10.567   3.038   6.923
 3400SOL    HW212098  10.440   3.115   6.947
 3401SOL     OW12099   6.842   4.208   3.988
 3401SOL    HW112100   6.848   4.303   3.973
 3401SOL    HW212101   6.790   4.199   4.067
 3402SOL     OW12102   5.655   5.967   6.640
 3402SOL    HW112103   5.640   5.873   6.645
 3402SOL    HW212104   5.584   6.006   6.691
 3403SOL     OW12105  13.783   1.403  14.859
 3403SOL    HW112106  13.719   1.334   0.004
 3403SOL    HW212107  13.831   1.376  14.780
 3404SOL     OW12108   9.089   5.210   9.409
 3404SOL    HW112109   9.104   5.273   9.480
 3404SOL    HW212110   9.006   5.238   9.370
 3405SOL     OW12111  14.092  11.442  13.084
 3405SOL    HW112112  13.998  11.443  13.069
 3405SOL    HW212113  14.112  11.353  13.111
 3406SOL     OW12114  13.578   2.734   7.663
 3406SOL    HW112115  13.667   2.764   7.642
 3406SOL    HW212116  13.575   2.733   7.758
 3407SOL     OW12117   3.864  13.192   8.525
 3407SOL    HW112118   3.927  13.248   8.571
 3407SOL    HW212119   3.850  13.118   8.584
 3408SOL     OW12120  13.506   2.411   1.039
 3408SOL    HW112121  13.489   2.338   1.099
 3408SOL    HW212122  13.464   2.385   0.957
 3409SOL     OW12123  13.275  10.643  10.343
 3409SOL    HW112124  13.206  10.647  10.409
 3409SOL    HW212125  13.268  10.726  10.296
 3410SOL     OW12126  10.655   1.292  11.120
 3410SOL    HW112127  10.699   1.360  11.069
 3410SOL    HW212128  10.601   1.339  11.183
 3411SOL     OW12129  12.903  11.998  12.966
 3411SOL    HW112130  12.983  11.946  12.962
 3411SOL    HW212131  12.850  11.967  12.893
 3412SOL     OW12132   6.318  10.464  14.666
 3412SOL    HW112133   6.230  10.428  14.676
 3412SOL    HW212134   6.355  10.416  14.592
 3413SOL     OW12135   2.274  11.752   5.850
 3413SOL    HW112136   2.301  11.680   5.793
 3413SOL    HW212137   2.178  11.753   5.844
 3414SOL     OW12138   3.122  11.177  11.318
 3414SOL    HW112139   3.179  11.140  11.385
 3414SOL    HW212140   3.176  11.241  11.272
 3415SOL     OW12141  13.584  12.106   1.413
 3415SOL    HW112142  13.520  12.158   1.462
 3415SOL    HW212143  13.532  12.059   1.348
 3416SOL     OW12144   0.211  13.323  13.931
 3416SOL    HW112145   0.123  13.311  13.969
 3416SOL    HW212146   0.218  13.253  13.866
 3417SOL     OW12147   3.678  14.710   6.603
 3417SOL    HW112148   3.774  14.707   6.600
 3417SOL    HW212149   3.655  14.661   6.683
 3418SOL     OW12150  12.514  11.803   5.655
 3418SOL    HW112151  12.568  11.750   5.596
 3418SOL    HW212152  12.427  11.762   5.650
 3419SOL     OW12153  12.215   1.616   1.037
 3419SOL    HW112154  12.276   1.680   0.998
 3419SOL    HW212155  12.129   1.642   1.005
 3420SOL     OW12156   2.334  10.551  12.885
 3420SOL    HW112157   2.381  10.520  12.962
 3420SOL    HW212158   2.390  10.527  12.811
 3421SOL     OW12159  11.667   7.449   5.729
 3421SOL    HW112160  11.716   7.411   5.801
 3421SOL    HW212161  11.656   7.541   5.753
 3422SOL     OW12162   9.077   8.991   5.004
 3422SOL    HW112163   9.134   8.982   5.081
 3422SOL    HW212164   9.042   8.903   4.989
 3423SOL     OW12165   2.516   5.567   1.534
 3423SOL    HW112166   2.492   5.584   1.625
 3423SOL    HW212167   2.451   5.614   1.482
 3424SOL     OW12168   0.044   4.053   5.539
 3424SOL    HW112169   0.110   4.005   5.589
 3424SOL    HW212170   0.091   4.129   5.504
 3425SOL     OW12171   6.366   5.564   9.775
 3425SOL    HW112172   6.418   5.573   9.695
 3425SOL    HW212173   6.340   5.472   9.777
 3426SOL     OW12174   7.115  10.299  12.806
 3426SOL    HW112175   7.021  10.310  12.817
 3426SOL    HW212176   7.124  10.214  12.763
 3427SOL     OW12177   5.450   5.981   0.523
 3427SOL    HW112178   5.426   6.072   0.542
 3427SOL    HW212179   5.537   5.987   0.484
 3428SOL     OW12180  13.151   9.512   1.463
 3428SOL    HW112181  13.086   9.494   1.395
 3428SOL    HW212182  13.201   9.430   1.471
 3429SOL     OW12183  11.450   8.172  10.945
 3429SOL    HW112184  11.482   8.146  11.031
 3429SOL    HW212185  11.522   8.152  10.886
 3430SOL     OW12186  10.843  11.270  13.007
 3430SOL    HW112187  10.884  11.238  13.087
 3430SOL    HW212188  10.767  11.214  12.995
 3431SOL     OW12189   0.307   9.967  11.473
 3431SOL    HW112190   0.359   9.914  11.413
 3431SOL    HW212191   0.260  10.028  11.417
 3432SOL     OW12192   8.182  14.407   2.745
 3432SOL    HW112193   8.106  14.442   2.791
 3432SOL    HW212194   8.194  14.467   2.670
 3433SOL     OW12195  11.516   8.373   4.888
 3433SOL    HW112196  11.517   8.459   4.845
 3433SOL    HW212197  11.591   8.327   4.850
 3434SOL     OW12198   0.455   3.434  10.964
 3434SOL    HW112199   0.361   3.448  10.971
 3434SOL    HW212200   0.493   3.522  10.961
 3435SOL     OW12201   0.508   0.285  14.270
 3435SOL    HW112202   0.502   0.282  14.175
 3435SOL    HW212203   0.417   0.287  14.300
 3436SOL     OW12204   5.795  12.117   6.681
 3436SOL    HW112205   5.800  12.198   6.733
 3436SOL    HW212206   5.743  12.057   6.735
 3437SOL     OW12207   9.665  12.392   7.316
 3437SOL    HW112208   9.725  12.446   7.264
 3437SOL    HW212209   9.578  12.419   7.287
 3438SOL     OW12210   0.648   5.459  12.645
 3438SOL    HW112211   0.620   5.544  12.611
 3438SOL    HW212212   0.638   5.399  12.571
 3439SOL     OW12213   5.084  12.522   8.605
 3439SOL    HW112214   5.021  12.455   8.633
 3439SOL    HW212215   5.121  12.487   8.524
 3440SOL     OW12216  11.647   2.485   9.381
 3440SOL    HW112217  11.651   2.393   9.358
 3440SOL    HW212218  11.601   2.527   9.308
 3441SOL     OW12219   8.946  10.806   7.289
 3441SOL    HW112220   8.931  10.901   7.287
 3441SOL    HW212221   8.859  10.769   7.307
 3442SOL     OW12222   1.097   5.454  14.425
 3442SOL    HW112223   1.058   5.378  14.468
 3442SOL    HW212224   1.160   5.417  14.363
 3443SOL     OW12225  14.733   2.470   1.415
 3443SOL    HW112226  14.750   2.452   1.507
 3443SOL    HW212227  14.695   2.559   1.414
 3444SOL     OW12228   1.760   5.948  11.013
 3444SOL    HW112229   1.679   5.927  11.060
 3444SOL    HW212230   1.828   5.942  11.080
 3445SOL     OW12231   5.136   7.257  13.516
 3445SOL    HW112232   5.073   7.188  13.496
 3445SOL    HW212233   5.171   7.234  13.602
 3446SOL     OW12234   5.576   6.757  10.813
 3446SOL    HW112235   5.592   6.825  10.747
 3446SOL    HW212236   5.568   6.676  10.762
 3447SOL     OW12237   0.562   7.369   0.405
 3447SOL    HW112238   0.482   7.331   0.369
 3447SOL    HW212239   0.532   7.421   0.479
 3448SOL     OW12240   8.036  11.417   6.089
 3448SOL    HW112241   7.954  11.398   6.043
 3448SOL    HW212242   8.104  11.407   6.023
 3449SOL     OW12243   1.399  12.872   5.993
 3449SOL    HW112244   1.441  12.914   6.068
 3449SOL    HW212245   1.464  12.879   5.923
 3450SOL     OW12246  11.873   5.659   5.574
 3450SOL    HW112247  11.797   5.716   5.562
 3450SOL    HW212248  11.842   5.573   5.547
 3451SOL     OW12249   3.377   1.656   3.158
 3451SOL    HW112250   3.327   1.627   3.082
 3451SOL    HW212251   3.468   1.658   3.128
 3452SOL     OW12252   2.740   6.853   1.248
 3452SOL    HW112253   2.692   6.790   1.195
 3452SOL    HW212254   2.801   6.801   1.300
 3453SOL     OW12255  13.705   6.370   1.263
 3453SOL    HW112256  13.723   6.410   1.348
 3453SOL    HW212257  13.735   6.280   1.273
 3454SOL     OW12258   1.956  10.155  10.746
 3454SOL    HW112259   2.009  10.142  10.667
 3454SOL    HW212260   1.871  10.185  10.713
 3455SOL     OW12261   2.718   4.467   1.429
 3455SOL    HW112262   2.635   4.466   1.477
 3455SOL    HW212263   2.705   4.404   1.358
 3456SOL     OW12264   1.635  12.953   4.862
 3456SOL    HW112265   1.561  13.002   4.826
 3456SOL    HW212266   1.617  12.862   4.839
 3457SOL     OW12267   5.701   7.885   9.507
 3457SOL    HW112268   5.614   7.915   9.534
 3457SOL    HW212269   5.744   7.858   9.589
 3458SOL     OW12270   6.286   3.248   1.469
 3458SOL    HW112271   6.316   3.326   1.424
 3458SOL    HW212272   6.225   3.207   1.407
 3459SOL     OW12273   8.359   7.290   9.281
 3459SOL    HW112274   8.454   7.278   9.280
 3459SOL    HW212275   8.345   7.374   9.325
 3460SOL     OW12276  13.554   4.942   3.536
 3460SOL    HW112277  13.618   4.883   3.574
 3460SOL    HW212278  13.483   4.885   3.507
 3461SOL     OW12279   5.630   3.096  14.219
 3461SOL    HW112280   5.620   3.154  14.144
 3461SOL    HW212281   5.552   3.111  14.272
 3462SOL     OW12282   5.702   0.652  12.414
 3462SOL    HW112283   5.688   0.725  12.474
 3462SOL    HW212284   5.649   0.674  12.338
 3463SOL     OW12285  14.673  11.737  10.429
 3463SOL    HW112286  14.767  11.742  10.443
 3463SOL    HW212287  14.648  11.824  10.398
 3464SOL     OW12288   1.608  12.546   1.383
 3464SOL    HW112289   1.648  12.464   1.411
 3464SOL    HW212290   1.540  12.563   1.447
 3465SOL     OW12291   2.758   9.475   6.682
 3465SOL    HW112292   2.683   9.500   6.628
 3465SOL    HW212293   2.726   9.401   6.734
 3466SOL     OW12294   1.068   5.821   9.000
 3466SOL    HW112295   1.055   5.916   9.009
 3466SOL    HW212296   1.064   5.805   8.906
 3467SOL     OW12297   1.710   8.655   5.173
 3467SOL    HW112298   1.661   8.574   5.189
 3467SOL    HW212299   1.661   8.722   5.220
 3468SOL     OW12300  13.196   1.265   9.369
 3468SOL    HW112301  13.185   1.308   9.284
 3468SOL    HW212302  13.237   1.181   9.348
 3469SOL     OW12303  13.006   0.821   1.584
 3469SOL    HW112304  13.078   0.883   1.597
 3469SOL    HW212305  13.024   0.781   1.499
 3470SOL     OW12306   1.035  13.422  11.854
 3470SOL    HW112307   0.968  13.484  11.883
 3470SOL    HW212308   0.995  13.376  11.780
 3471SOL     OW12309  13.665   5.087   3.969
 3471SOL    HW112310  13.760   5.080   3.961
 3471SOL    HW212311  13.639   5.008   4.015
 3472SOL     OW12312   1.218   1.653   6.878
 3472SOL    HW112313   1.312   1.643   6.891
 3472SOL    HW212314   1.179   1.590   6.939
 3473SOL     OW12315   5.721  10.446   8.433
 3473SOL    HW112316   5.663  10.373   8.410
 3473SOL    HW212317   5.749  10.482   8.349
 3474SOL     OW12318   4.368   7.424   2.689
 3474SOL    HW112319   4.410   7.473   2.760
 3474SOL    HW212320   4.415   7.341   2.686
 3475SOL     OW12321  14.717   9.892  13.301
 3475SOL    HW112322  14.720   9.813  13.248
 3475SOL    HW212323  14.626   9.921  13.296
 3476SOL     OW12324  14.632  13.403   0.981
 3476SOL    HW112325  14.724  13.422   1.000
 3476SOL    HW212326  14.586  13.424   1.062
 3477SOL     OW12327  10.336   5.241   3.657
 3477SOL    HW112328  10.408   5.194   3.615
 3477SOL    HW212329  10.284   5.172   3.698
 3478SOL     OW12330   5.504  14.663  10.008
 3478SOL    HW112331   5.439  14.607  10.051
 3478SOL    HW212332   5.580  14.659  10.066
 3479SOL     OW12333  10.403  10.533   7.559
 3479SOL    HW112334  10.406  10.618   7.604
 3479SOL    HW212335  10.455  10.475   7.613
 3480SOL     OW12336   9.084  12.549  13.342
 3480SOL    HW112337   9.082  12.584  13.431
 3480SOL    HW212338   9.028  12.472  13.345
 3481SOL     OW12339   5.220   3.403   8.223
 3481SOL    HW112340   5.305   3.399   8.268
 3481SOL    HW212341   5.230   3.344   8.148
 3482SOL     OW12342  13.222  14.391   9.508
 3482SOL    HW112343  13.207  14.421   9.598
 3482SOL    HW212344  13.134  14.392   9.468
 3483SOL     OW12345  13.359   4.168   7.973
 3483SOL    HW112346  13.444   4.128   7.993
 3483SOL    HW212347  13.325   4.118   7.900
 3484SOL     OW12348   3.278   6.127   7.571
 3484SOL    HW112349   3.369   6.103   7.588
 3484SOL    HW212350   3.259   6.091   7.485
 3485SOL     OW12351   5.855   2.355  13.272
 3485SOL    HW112352   5.848   2.296  13.198
 3485SOL    HW212353   5.915   2.424  13.243
 3486SOL     OW12354   8.849  11.194   9.142
 3486SOL    HW112355   8.777  11.136   9.168
 3486SOL    HW212356   8.845  11.195   9.047
 3487SOL     OW12357  11.874  11.745   0.804
 3487SOL    HW112358  11.803  11.683   0.785
 3487SOL    HW212359  11.954  11.692   0.799
 3488SOL     OW12360   4.570   4.182   3.951
 3488SOL    HW112361   4.649   4.195   4.004
 3488SOL    HW212362   4.601   4.135   3.873
 3489SOL     OW12363   8.586   5.629  14.743
 3489SOL    HW112364   8.615   5.683  14.817
 3489SOL    HW212365   8.502   5.666  14.717
 3490SOL     OW12366   6.032  12.597   4.037
 3490SOL    HW112367   6.026  12.673   3.979
 3490SOL    HW212368   6.097  12.622   4.103
 3491SOL     OW12369   8.478   5.469   7.504
 3491SOL    HW112370   8.477   5.431   7.592
 3491SOL    HW212371   8.562   5.516   7.500
 3492SOL     OW12372  12.132   7.843   2.696
 3492SOL    HW112373  12.042   7.822   2.671
 3492SOL    HW212374  12.136   7.938   2.694
 3493SOL     OW12375   2.618   5.310   1.534
 3493SOL    HW112376   2.545   5.258   1.568
 3493SOL    HW212377   2.583   5.398   1.525
 3494SOL     OW12378  10.970  14.596   5.719
 3494SOL    HW112379  10.990  14.673   5.772
 3494SOL    HW212380  10.984  14.521   5.777
 3495SOL     OW12381   5.566   3.629   2.175
 3495SOL    HW112382   5.567   3.724   2.176
 3495SOL    HW212383   5.642   3.604   2.123
 3496SOL     OW12384   2.761  13.202  13.440
 3496SOL    HW112385   2.817  13.149  13.384
 3496SOL    HW212386   2.731  13.274  13.384
 3497SOL     OW12387   7.892   7.941   9.922
 3497SOL    HW112388   7.949   7.953   9.998
 3497SOL    HW212389   7.858   8.029   9.904
 3498SOL     OW12390   5.807   1.482  12.372
 3498SOL    HW112391   5.792   1.513  12.283
 3498SOL    HW212392   5.787   1.389  12.368
 3499SOL     OW12393  12.814  14.502  11.983
 3499SOL    HW112394  12.772  14.588  11.980
 3499SOL    HW212395  12.765  14.449  11.919
 3500SOL     OW12396   9.396  11.325   9.544
 3500SOL    HW112397   9.304  11.347   9.558
 3500SOL    HW212398   9.394  11.236   9.508
 3501SOL     OW12399  13.356   7.326  10.993
 3501SOL    HW112400  13.427   7.359  10.939
 3501SOL    HW212401  13.399   7.290  11.070
 3502SOL     OW12402  11.843   9.838   2.645
 3502SOL    HW112403  11.885   9.821   2.561
 3502SOL    HW212404  11.901   9.900   2.689
 3503SOL     OW12405   3.493  14.808   8.620
 3503SOL    HW112406   3.529  14.777   8.703
 3503SOL    HW212407   3.497  14.732   8.562
 3504SOL     OW12408   1.181  10.322   5.782
 3504SOL    HW112409   1.146  10.406   5.812
 3504SOL    HW212410   1.103  10.269   5.766
 3505SOL     OW12411   0.003   2.322   3.043
 3505SOL    HW112412  14.863   2.417   3.041
 3505SOL    HW212413  14.845   2.298   3.132
 3506SOL     OW12414   2.805   0.985   4.820
 3506SOL    HW112415   2.770   1.073   4.834
 3506SOL    HW212416   2.744   0.927   4.867
 3507SOL     OW12417  14.672   2.989   8.240
 3507SOL    HW112418  14.638   3.010   8.152
 3507SOL    HW212419  14.736   3.058   8.257
 3508SOL     OW12420   6.819   2.911   7.005
 3508SOL    HW112421   6.909   2.879   7.015
 3508SOL    HW212422   6.774   2.842   6.957
 3509SOL     OW12423  10.924  11.573   4.648
 3509SOL    HW112424  10.895  11.557   4.559
 3509SOL    HW212425  11.017  11.550   4.648
 3510SOL     OW12426   9.821  14.474   4.142
 3510SOL    HW112427   9.771  14.453   4.221
 3510SOL    HW212428   9.802  14.403   4.082
 3511SOL     OW12429   6.020  12.355   6.632
 3511SOL    HW112430   5.977  12.404   6.562
 3511SOL    HW212431   6.100  12.404   6.650
 3512SOL     OW12432   9.962  12.058   5.279
 3512SOL    HW112433   9.937  11.985   5.336
 3512SOL    HW212434  10.021  12.018   5.215
 3513SOL     OW12435  10.842  12.530   5.602
 3513SOL    HW112436  10.900  12.604   5.620
 3513SOL    HW212437  10.871  12.461   5.662
 3514SOL     OW12438  10.009  14.356  13.976
 3514SOL    HW112439  10.032  14.442  13.941
 3514SOL    HW212440  10.083  14.300  13.952
 3515SOL     OW12441   6.063  10.342   5.482
 3515SOL    HW112442   6.011  10.393   5.544
 3515SOL    HW212443   6.082  10.403   5.411
 3516SOL     OW12444   2.578   1.721   4.717
 3516SOL    HW112445   2.506   1.782   4.704
 3516SOL    HW212446   2.571   1.659   4.644
 3517SOL     OW12447   5.716   7.284  12.241
 3517SOL    HW112448   5.649   7.261  12.176
 3517SOL    HW212449   5.701   7.378  12.256
 3518SOL     OW12450   7.080  13.983   3.943
 3518SOL    HW112451   7.080  14.079   3.945
 3518SOL    HW212452   7.028  13.958   4.020
 3519SOL     OW12453   5.573   9.542  12.110
 3519SOL    HW112454   5.481   9.545  12.084
 3519SOL    HW212455   5.604   9.456  12.080
 3520SOL     OW12456   8.055  13.279  13.891
 3520SOL    HW112457   8.020  13.328  13.966
 3520SOL    HW212458   7.996  13.299  13.819
 3521SOL     OW12459   8.684  12.833   7.710
 3521SOL    HW112460   8.734  12.909   7.740
 3521SOL    HW212461   8.621  12.870   7.647
 3522SOL     OW12462   3.841   6.555   0.811
 3522SOL    HW112463   3.766   6.503   0.784
 3522SOL    HW212464   3.834   6.636   0.760
 3523SOL     OW12465  11.654   4.757   9.617
 3523SOL    HW112466  11.650   4.794   9.706
 3523SOL    HW212467  11.717   4.812   9.571
 3524SOL     OW12468   1.231  14.215   2.118
 3524SOL    HW112469   1.237  14.264   2.036
 3524SOL    HW212470   1.176  14.140   2.097
 3525SOL     OW12471   9.381   7.656  13.097
 3525SOL    HW112472   9.420   7.640  13.011
 3525SOL    HW212473   9.300   7.703  13.078
 3526SOL     OW12474  12.056   4.593   5.967
 3526SOL    HW112475  12.063   4.497   5.959
 3526SOL    HW212476  12.048   4.624   5.877
 3527SOL     OW12477  11.004   9.679   4.533
 3527SOL    HW112478  11.068   9.646   4.596
 3527SOL    HW212479  10.933   9.615   4.535
 3528SOL     OW12480   1.726   7.486   8.443
 3528SOL    HW112481   1.680   7.516   8.521
 3528SOL    HW212482   1.814   7.524   8.452
 3529SOL     OW12483  12.240  11.441  10.154
 3529SOL    HW112484  12.273  11.481  10.074
 3529SOL    HW212485  12.317  11.404  10.197
 3530SOL     OW12486   6.825  11.618   7.895
 3530SOL    HW112487   6.866  11.687   7.948
 3530SOL    HW212488   6.881  11.541   7.907
 3531SOL     OW12489   6.392   3.974   4.340
 3531SOL    HW112490   6.461   3.971   4.406
 3531SOL    HW212491   6.401   3.892   4.291
 3532SOL     OW12492   0.857   6.349  11.600
 3532SOL    HW112493   0.856   6.437  11.638
 3532SOL    HW212494   0.925   6.302  11.649
 3533SOL     OW12495  13.634   9.047  11.660
 3533SOL    HW112496  13.540   9.029  11.654
 3533SOL    HW212497  13.671   8.999  11.586
 3534SOL     OW12498   4.214   0.334  12.713
 3534SOL    HW112499   4.306   0.321  12.734
 3534SOL    HW212500   4.176   0.372  12.792
 3535SOL     OW12501   1.777  13.634   9.770
 3535SOL    HW112502   1.844  13.620   9.703
 3535SOL    HW212503   1.825  13.634   9.853
 3536SOL     OW12504  10.512  11.239   9.513
 3536SOL    HW112505  10.504  11.217   9.421
 3536SOL    HW212506  10.434  11.292   9.532
 3537SOL     OW12507  13.965   0.348  12.235
 3537SOL    HW112508  13.920   0.290  12.174
 3537SOL    HW212509  13.896   0.403  12.271
 3538SOL     OW12510  14.058   7.942  12.805
 3538SOL    HW112511  13.993   8.001  12.845
 3538SOL    HW212512  14.134   7.947  12.863
 3539SOL     OW12513   9.056  14.033   7.594
 3539SOL    HW112514   9.065  14.036   7.689
 3539SOL    HW212515   9.102  13.953   7.568
 3540SOL     OW12516  14.268   5.281   5.670
 3540SOL    HW112517  14.274   5.341   5.745
 3540SOL    HW212518  14.349   5.297   5.621
 3541SOL     OW12519   1.869   2.027   1.013
 3541SOL    HW112520   1.880   1.934   0.994
 3541SOL    HW212521   1.776   2.044   0.995
 3542SOL     OW12522   9.713   9.481  10.486
 3542SOL    HW112523   9.784   9.527  10.442
 3542SOL    HW212524   9.756   9.425  10.550
 3543SOL     OW12525   9.162  13.851   9.052
 3543SOL    HW112526   9.132  13.834   9.141
 3543SOL    HW212527   9.220  13.927   9.061
 3544SOL     OW12528   1.743  13.811   8.083
 3544SOL    HW112529   1.698  13.769   8.010
 3544SOL    HW212530   1.688  13.886   8.105
 3545SOL     OW12531   7.904   5.838   3.776
 3545SOL    HW112532   7.876   5.760   3.825
 3545SOL    HW212533   7.998   5.825   3.763
 3546SOL     OW12534   7.921   8.795   6.421
 3546SOL    HW112535   7.921   8.717   6.476
 3546SOL    HW212536   8.013   8.816   6.409
 3547SOL     OW12537   2.836  14.080   8.782
 3547SOL    HW112538   2.859  14.152   8.840
 3547SOL    HW212539   2.765  14.034   8.828
 3548SOL     OW12540   5.735   5.810   1.967
 3548SOL    HW112541   5.777   5.891   1.936
 3548SOL    HW212542   5.745   5.812   2.062
 3549SOL     OW12543  10.300  12.476   9.842
 3549SOL    HW112544  10.391  12.464   9.815
 3549SOL    HW212545  10.264  12.538   9.778
 3550SOL     OW12546   7.816   5.854   4.134
 3550SOL    HW112547   7.859   5.923   4.085
 3550SOL    HW212548   7.733   5.840   4.088
 3551SOL     OW12549   8.324  11.990   5.632
 3551SOL    HW112550   8.264  11.951   5.568
 3551SOL    HW212551   8.361  12.066   5.586
 3552SOL     OW12552   1.248   6.887  11.338
 3552SOL    HW112553   1.178   6.894  11.403
 3552SOL    HW212554   1.322   6.933  11.377
 3553SOL     OW12555  11.759  11.923  14.054
 3553SOL    HW112556  11.842  11.895  14.016
 3553SOL    HW212557  11.718  11.976  13.986
 3554SOL     OW12558   9.473   2.471   9.332
 3554SOL    HW112559   9.443   2.520   9.256
 3554SOL    HW212560   9.503   2.387   9.297
 3555SOL     OW12561   8.121   8.626   4.269
 3555SOL    HW112562   8.215   8.609   4.267
 3555SOL    HW212563   8.113   8.716   4.302
 3556SOL     OW12564   3.286   4.459   2.504
 3556SOL    HW112565   3.308   4.486   2.594
 3556SOL    HW212566   3.211   4.513   2.480
 3557SOL     OW12567  10.720   6.646   5.852
 3557SOL    HW112568  10.784   6.630   5.922
 3557SOL    HW212569  10.733   6.738   5.829
 3558SOL     OW12570   2.836   4.587   6.227
 3558SOL    HW112571   2.761   4.568   6.284
 3558SOL    HW212572   2.798   4.615   6.144
 3559SOL     OW12573  11.190  10.919  12.060
 3559SOL    HW112574  11.140  10.921  11.979
 3559SOL    HW212575  11.140  10.862  12.118
 3560SOL     OW12576  12.932   9.812  13.798
 3560SOL    HW112577  12.925   9.770  13.713
 3560SOL    HW212578  12.871   9.885  13.794
 3561SOL     OW12579   7.557  13.690  11.029
 3561SOL    HW112580   7.563  13.730  11.116
 3561SOL    HW212581   7.585  13.760  10.969
 3562SOL     OW12582  12.148   9.433   7.419
 3562SOL    HW112583  12.169   9.378   7.343
 3562SOL    HW212584  12.139   9.521   7.383
 3563SOL     OW12585   9.676   5.388   2.015
 3563SOL    HW112586   9.669   5.482   2.031
 3563SOL    HW212587   9.759   5.362   2.056
 3564SOL     OW12588  11.346   0.815  13.656
 3564SOL    HW112589  11.276   0.880  13.646
 3564SOL    HW212590  11.340   0.787  13.747
 3565SOL     OW12591   4.108  10.065  10.044
 3565SOL    HW112592   4.051  10.010  10.098
 3565SOL    HW212593   4.123  10.013   9.965
 3566SOL     OW12594  11.361   5.049  13.951
 3566SOL    HW112595  11.274   5.073  13.919
 3566SOL    HW212596  11.347   4.965  13.996
 3567SOL     OW12597   8.868   3.114   9.917
 3567SOL    HW112598   8.921   3.102   9.838
 3567SOL    HW212599   8.878   3.031   9.965
 3568SOL     OW12600   6.411   6.849   5.623
 3568SOL    HW112601   6.392   6.941   5.642
 3568SOL    HW212602   6.492   6.851   5.573
 3569SOL     OW12603   1.175   9.243   0.490
 3569SOL    HW112604   1.250   9.253   0.549
 3569SOL    HW212605   1.139   9.157   0.510
 3570SOL     OW12606  14.670   5.312   1.647
 3570SOL    HW112607  14.606   5.378   1.675
 3570SOL    HW212608  14.748   5.330   1.700
 3571SOL     OW12609   2.230   2.051  10.871
 3571SOL    HW112610   2.237   1.990  10.799
 3571SOL    HW212611   2.287   2.016  10.939
 3572SOL     OW12612   1.049   6.569   2.397
 3572SOL    HW112613   1.144   6.555   2.395
 3572SOL    HW212614   1.023   6.571   2.305
 3573SOL     OW12615   9.940   9.468  14.261
 3573SOL    HW112616   9.995   9.544  14.278
 3573SOL    HW212617  10.001   9.394  14.259
 3574SOL     OW12618   6.341   9.785   9.262
 3574SOL    HW112619   6.269   9.723   9.275
 3574SOL    HW212620   6.338   9.842   9.339
 3575SOL     OW12621  12.272   4.356   8.442
 3575SOL    HW112622  12.192   4.322   8.402
 3575SOL    HW212623  12.244   4.435   8.488
 3576SOL     OW12624  13.956   0.789   4.219
 3576SOL    HW112625  13.978   0.732   4.146
 3576SOL    HW212626  13.860   0.785   4.224
 3577SOL     OW12627   4.453  12.139  10.913
 3577SOL    HW112628   4.369  12.181  10.891
 3577SOL    HW212629   4.430  12.075  10.980
 3578SOL     OW12630  14.822  11.923  12.452
 3578SOL    HW112631  14.821  11.850  12.514
 3578SOL    HW212632   0.004  11.991  12.494
 3579SOL     OW12633   7.993   4.971   5.295
 3579SOL    HW112634   8.011   5.062   5.272
 3579SOL    HW212635   8.047   4.919   5.236
 3580SOL     OW12636   1.317   6.135   6.127
 3580SOL    HW112637   1.311   6.069   6.197
 3580SOL    HW212638   1.249   6.198   6.149
 3581SOL     OW12639   8.182   6.858  11.889
 3581SOL    HW112640   8.111   6.870  11.826
 3581SOL    HW212641   8.223   6.944  11.895
 3582SOL     OW12642   9.344   4.316   7.329
 3582SOL    HW112643   9.391   4.240   7.296
 3582SOL    HW212644   9.404   4.390   7.316
 3583SOL     OW12645   4.827  10.497   1.742
 3583SOL    HW112646   4.855  10.526   1.829
 3583SOL    HW212647   4.787  10.412   1.756
 3584SOL     OW12648  11.271   8.176   9.315
 3584SOL    HW112649  11.235   8.218   9.393
 3584SOL    HW212650  11.279   8.247   9.252
 3585SOL     OW12651   4.536  12.019   9.960
 3585SOL    HW112652   4.528  12.095  10.018
 3585SOL    HW212653   4.557  11.946  10.018
 3586SOL     OW12654   1.862   1.115   2.808
 3586SOL    HW112655   1.956   1.118   2.824
 3586SOL    HW212656   1.826   1.184   2.863
 3587SOL     OW12657   9.918  10.584  10.782
 3587SOL    HW112658   9.938  10.502  10.827
 3587SOL    HW212659   9.833  10.568  10.740
 3588SOL     OW12660   5.883   2.149   0.416
 3588SOL    HW112661   5.869   2.056   0.399
 3588SOL    HW212662   5.943   2.151   0.491
 3589SOL     OW12663   3.856  13.597   3.450
 3589SOL    HW112664   3.933  13.624   3.401
 3589SOL    HW212665   3.789  13.661   3.426
 3590SOL     OW12666   0.494  11.230   6.506
 3590SOL    HW112667   0.580  11.265   6.486
 3590SOL    HW212668   0.448  11.228   6.422
 3591SOL     OW12669   8.463   0.024   9.079
 3591SOL    HW112670   8.450   0.110   9.040
 3591SOL    HW212671   8.375  14.866   9.106
 3592SOL     OW12672   9.953   3.076  12.693
 3592SOL    HW112673   9.885   3.015  12.722
 3592SOL    HW212674  10.012   3.084  12.768
 3593SOL     OW12675  14.784   6.963   9.135
 3593SOL    HW112676   0.008   6.947   9.118
 3593SOL    HW212677  14.782   7.001   9.223
 3594SOL     OW12678  13.766   5.742   1.356
 3594SOL    HW112679  13.686   5.699   1.328
 3594SOL    HW212680  13.819   5.750   1.277
 3595SOL     OW12681  14.326  10.964   5.187
 3595SOL    HW112682  14.267  11.003   5.251
 3595SOL    HW212683  14.407  11.016   5.194
 3596SOL     OW12684   8.886   0.259  11.119
 3596SOL    HW112685   8.859   0.303  11.200
 3596SOL    HW212686   8.858   0.168  11.132
 3597SOL     OW12687  10.071   6.976   9.745
 3597SOL    HW112688   9.977   6.995   9.738
 3597SOL    HW212689  10.113   7.060   9.728
 3598SOL     OW12690   9.321  12.773   2.923
 3598SOL    HW112691   9.283  12.709   2.983
 3598SOL    HW212692   9.259  12.776   2.849
 3599SOL     OW12693  12.472   1.502  12.414
 3599SOL    HW112694  12.493   1.536  12.501
 3599SOL    HW212695  12.524   1.422  12.406
 3600SOL     OW12696  10.893   3.247   3.480
 3600SOL    HW112697  10.893   3.328   3.531
 3600SOL    HW212698  10.813   3.202   3.506
 3601SOL     OW12699   7.420   8.188   5.177
 3601SOL    HW112700   7.438   8.096   5.155
 3601SOL    HW212701   7.417   8.233   5.093
 3602SOL     OW12702  13.898  11.133   6.525
 3602SOL    HW112703  13.821  11.151   6.579
 3602SOL    HW212704  13.894  11.198   6.455
 3603SOL     OW12705   8.036  13.291   8.390
 3603SOL    HW112706   8.127  13.306   8.417
 3603SOL    HW212707   8.018  13.361   8.327
 3604SOL     OW12708   3.390   5.180   8.309
 3604SOL    HW112709   3.341   5.122   8.367
 3604SOL    HW212710   3.353   5.267   8.325
 3605SOL     OW12711   5.822   2.847   6.006
 3605SOL    HW112712   5.788   2.762   5.978
 3605SOL    HW212713   5.913   2.847   5.977
 3606SOL     OW12714  11.286   7.535   5.671
 3606SOL    HW112715  11.294   7.513   5.764
 3606SOL    HW212716  11.323   7.459   5.626
 3607SOL     OW12717   6.815  14.139   0.707
 3607SOL    HW112718   6.857  14.103   0.628
 3607SOL    HW212719   6.785  14.062   0.755
 3608SOL     OW12720   5.648   9.648   2.735
 3608SOL    HW112721   5.597   9.573   2.706
 3608SOL    HW212722   5.738   9.627   2.710
 3609SOL     OW12723   8.157   2.210   9.270
 3609SOL    HW112724   8.076   2.179   9.228
 3609SOL    HW212725   8.227   2.178   9.214
 3610SOL     OW12726  10.461   7.423  13.587
 3610SOL    HW112727  10.396   7.395  13.523
 3610SOL    HW212728  10.532   7.359  13.578
 3611SOL     OW12729  13.382   2.276   0.822
 3611SOL    HW112730  13.308   2.310   0.773
 3611SOL    HW212731  13.367   2.181   0.825
 3612SOL     OW12732   4.306   4.078   6.585
 3612SOL    HW112733   4.336   3.991   6.612
 3612SOL    HW212734   4.379   4.114   6.534
 3613SOL     OW12735  10.705   9.958   6.081
 3613SOL    HW112736  10.698   9.881   6.024
 3613SOL    HW212737  10.796   9.986   6.071
 3614SOL     OW12738   4.932   3.273  10.222
 3614SOL    HW112739   4.940   3.233  10.135
 3614SOL    HW212740   4.838   3.272  10.240
 3615SOL     OW12741  11.683   2.265   2.054
 3615SOL    HW112742  11.675   2.348   2.101
 3615SOL    HW212743  11.597   2.224   2.065
 3616SOL     OW12744   8.827  12.990   3.135
 3616SOL    HW112745   8.918  12.982   3.107
 3616SOL    HW212746   8.776  12.971   3.056
 3617SOL     OW12747   9.004   4.980   4.028
 3617SOL    HW112748   8.914   4.976   3.997
 3617SOL    HW212749   9.027   5.073   4.020
 3618SOL     OW12750  11.625   5.816   1.613
 3618SOL    HW112751  11.704   5.765   1.630
 3618SOL    HW212752  11.555   5.751   1.611
 3619SOL     OW12753  11.939   5.703   0.724
 3619SOL    HW112754  11.880   5.636   0.759
 3619SOL    HW212755  11.994   5.728   0.798
 3620SOL     OW12756   0.949   5.359  10.096
 3620SOL    HW112757   0.878   5.326  10.040
 3620SOL    HW212758   0.997   5.420  10.040
 3621SOL     OW12759   4.748   1.077   7.674
 3621SOL    HW112760   4.748   1.082   7.770
 3621SOL    HW212761   4.660   1.105   7.650
 3622SOL     OW12762   8.012   7.786  12.088
 3622SOL    HW112763   7.969   7.701  12.097
 3622SOL    HW212764   8.048   7.805  12.175
 3623SOL     OW12765   4.815   2.262   3.218
 3623SOL    HW112766   4.846   2.243   3.129
 3623SOL    HW212767   4.721   2.273   3.209
 3624SOL     OW12768  13.648  12.841   9.255
 3624SOL    HW112769  13.707  12.873   9.188
 3624SOL    HW212770  13.705  12.804   9.322
 3625SOL     OW12771   1.226  10.689   4.906
 3625SOL    HW112772   1.200  10.599   4.887
 3625SOL    HW212773   1.300  10.705   4.848
 3626SOL     OW12774  14.601   6.317   3.858
 3626SOL    HW112775  14.570   6.236   3.817
 3626SOL    HW212776  14.524   6.373   3.863
 3627SOL     OW12777   0.735  13.745  10.226
 3627SOL    HW112778   0.827  13.720  10.222
 3627SOL    HW212779   0.718  13.788  10.142
 3628SOL     OW12780   7.945   3.494  11.112
 3628SOL    HW112781   7.862   3.475  11.156
 3628SOL    HW212782   7.935   3.582  11.077
 3629SOL     OW12783   7.644   0.388   2.863
 3629SOL    HW112784   7.651   0.309   2.917
 3629SOL    HW212785   7.550   0.399   2.851
 3630SOL     OW12786   8.624  14.703   6.259
 3630SOL    HW112787   8.568  14.745   6.326
 3630SOL    HW212788   8.563  14.680   6.189
 3631SOL     OW12789   3.240   2.038  14.357
 3631SOL    HW112790   3.253   1.978  14.284
 3631SOL    HW212791   3.280   1.993  14.432
 3632SOL     OW12792   8.975  14.461  10.462
 3632SOL    HW112793   8.974  14.366  10.448
 3632SOL    HW212794   9.067  14.485  10.457
 3633SOL     OW12795   7.861  11.479   1.251
 3633SOL    HW112796   7.950  11.490   1.218
 3633SOL    HW212797   7.845  11.385   1.247
 3634SOL     OW12798  13.214   1.096   7.122
 3634SOL    HW112799  13.235   1.185   7.095
 3634SOL    HW212800  13.136   1.074   7.070
 3635SOL     OW12801   7.880   5.072  13.703
 3635SOL    HW112802   7.812   5.068  13.770
 3635SOL    HW212803   7.962   5.065  13.753
 3636SOL     OW12804   3.142  12.235   1.927
 3636SOL    HW112805   3.231  12.269   1.921
 3636SOL    HW212806   3.086  12.312   1.919
 3637SOL     OW12807   6.315  14.150  11.809
 3637SOL    HW112808   6.410  14.142  11.820
 3637SOL    HW212809   6.295  14.240  11.835
 3638SOL     OW12810  14.083  11.267   6.007
 3638SOL    HW112811  14.151  11.280   6.074
 3638SOL    HW212812  14.093  11.176   5.980
 3639SOL     OW12813   7.131   9.485   2.909
 3639SOL    HW112814   7.090   9.429   2.974
 3639SOL    HW212815   7.219   9.503   2.944
 3640SOL     OW12816   8.568   2.262  14.150
 3640SOL    HW112817   8.518   2.245  14.069
 3640SOL    HW212818   8.502   2.261  14.219
 3641SOL     OW12819   6.385   8.768   2.601
 3641SOL    HW112820   6.314   8.821   2.637
 3641SOL    HW212821   6.363   8.758   2.508
 3642SOL     OW12822   8.734   8.365  11.356
 3642SOL    HW112823   8.716   8.325  11.441
 3642SOL    HW212824   8.698   8.304  11.292
 3643SOL     OW12825   5.920  10.172   7.727
 3643SOL    HW112826   5.922  10.080   7.701
 3643SOL    HW212827   5.938  10.221   7.647
 3644SOL     OW12828   1.436   6.622   8.008
 3644SOL    HW112829   1.428   6.716   8.024
 3644SOL    HW212830   1.379   6.606   7.933
 3645SOL     OW12831  11.394   0.440   7.511
 3645SOL    HW112832  11.315   0.405   7.552
 3645SOL    HW212833  11.362   0.503   7.446
 3646SOL     OW12834   8.561   4.375   2.202
 3646SOL    HW112835   8.534   4.315   2.271
 3646SOL    HW212836   8.656   4.376   2.206
 3647SOL     OW12837   3.244   2.338   5.086
 3647SOL    HW112838   3.250   2.406   5.018
 3647SOL    HW212839   3.299   2.267   5.054
 3648SOL     OW12840   9.416   9.547  10.524
 3648SOL    HW112841   9.511   9.543  10.514
 3648SOL    HW212842   9.402   9.600  10.602
 3649SOL     OW12843  13.126   5.794   9.505
 3649SOL    HW112844  13.215   5.765   9.522
 3649SOL    HW212845  13.116   5.873   9.558
 3650SOL     OW12846  11.498   0.794   1.536
 3650SOL    HW112847  11.566   0.772   1.472
 3650SOL    HW212848  11.429   0.834   1.484
 3651SOL     OW12849   6.159  10.386   0.560
 3651SOL    HW112850   6.213  10.319   0.600
 3651SOL    HW212851   6.185  10.467   0.604
 3652SOL     OW12852   7.964   8.383  14.269
 3652SOL    HW112853   8.001   8.472  14.276
 3652SOL    HW212854   7.966   8.350  14.358
 3653SOL     OW12855   5.050   2.254   4.121
 3653SOL    HW112856   5.076   2.166   4.148
 3653SOL    HW212857   5.022   2.244   4.030
 3654SOL     OW12858   7.228  13.702  12.804
 3654SOL    HW112859   7.144  13.737  12.775
 3654SOL    HW212860   7.206  13.639  12.872
 3655SOL     OW12861   4.888   3.798   9.283
 3655SOL    HW112862   4.855   3.839   9.363
 3655SOL    HW212863   4.868   3.862   9.214
 3656SOL     OW12864   5.977   9.998   6.963
 3656SOL    HW112865   5.968   9.959   6.876
 3656SOL    HW212866   5.906   9.960   7.014
 3657SOL     OW12867  12.943   2.772  10.078
 3657SOL    HW112868  12.869   2.782  10.018
 3657SOL    HW212869  12.986   2.858  10.077
 3658SOL     OW12870   8.356   7.389   3.515
 3658SOL    HW112871   8.263   7.409   3.530
 3658SOL    HW212872   8.393   7.380   3.603
 3659SOL     OW12873   9.552   8.962   3.713
 3659SOL    HW112874   9.637   8.960   3.757
 3659SOL    HW212875   9.518   8.873   3.724
 3660SOL     OW12876   9.887  13.519   1.282
 3660SOL    HW112877   9.810  13.463   1.269
 3660SOL    HW212878   9.931  13.483   1.358
 3661SOL     OW12879  12.294  11.942   0.096
 3661SOL    HW112880  12.204  11.911   0.082
 3661SOL    HW212881  12.307  12.009   0.029
 3662SOL     OW12882  11.936  13.132   6.707
 3662SOL    HW112883  11.926  13.082   6.788
 3662SOL    HW212884  11.980  13.072   6.647
 3663SOL     OW12885  10.883  10.670   7.910
 3663SOL    HW112886  10.972  10.669   7.945
 3663SOL    HW212887  10.837  10.603   7.960
 3664SOL     OW12888   3.244   0.589   3.669
 3664SOL    HW112889   3.171   0.576   3.729
 3664SOL    HW212890   3.320   0.557   3.716
 3665SOL     OW12891   6.132   5.202   3.000
 3665SOL    HW112892   6.112   5.224   3.091
 3665SOL    HW212893   6.226   5.219   2.992
 3666SOL     OW12894  10.503   4.008   3.416
 3666SOL    HW112895  10.473   4.059   3.491
 3666SOL    HW212896  10.538   3.928   3.454
 3667SOL     OW12897  14.579   4.287   3.411
 3667SOL    HW112898  14.491   4.260   3.439
 3667SOL    HW212899  14.639   4.233   3.463
 3668SOL     OW12900   1.415   9.907   1.217
 3668SOL    HW112901   1.347   9.926   1.282
 3668SOL    HW212902   1.496   9.902   1.267
 3669SOL     OW12903   7.341   3.525   2.907
 3669SOL    HW112904   7.396   3.461   2.862
 3669SOL    HW212905   7.275   3.472   2.951
 3670SOL     OW12906   1.427  10.789   6.511
 3670SOL    HW112907   1.482  10.836   6.449
 3670SOL    HW212908   1.419  10.849   6.585
 3671SOL     OW12909   7.432   5.393   8.678
 3671SOL    HW112910   7.442   5.458   8.747
 3671SOL    HW212911   7.512   5.340   8.684
 3672SOL     OW12912   7.141   7.290   2.450
 3672SOL    HW112913   7.140   7.382   2.477
 3672SOL    HW212914   7.232   7.271   2.430
 3673SOL     OW12915   6.092  11.114  11.732
 3673SOL    HW112916   6.163  11.087  11.674
 3673SOL    HW212917   6.013  11.096  11.681
 3674SOL     OW12918   4.234  13.972   5.369
 3674SOL    HW112919   4.292  14.028   5.318
 3674SOL    HW212920   4.150  14.018   5.369
 3675SOL     OW12921  13.925   7.877   6.719
 3675SOL    HW112922  13.864   7.872   6.791
 3675SOL    HW212923  13.958   7.788   6.708
 3676SOL     OW12924   0.509  12.616   0.237
 3676SOL    HW112925   0.475  12.551   0.298
 3676SOL    HW212926   0.598  12.586   0.218
 3677SOL     OW12927   4.737   0.904   4.785
 3677SOL    HW112928   4.762   0.903   4.877
 3677SOL    HW212929   4.748   0.814   4.756
 3678SOL     OW12930  13.507  11.124   1.700
 3678SOL    HW112931  13.506  11.193   1.634
 3678SOL    HW212932  13.599  11.112   1.721
 3679SOL     OW12933   2.948   7.162   9.755
 3679SOL    HW112934   2.982   7.161   9.666
 3679SOL    HW212935   2.944   7.255   9.778
 3680SOL     OW12936   1.034  10.925   3.812
 3680SOL    HW112937   0.978  10.901   3.886
 3680SOL    HW212938   1.011  10.864   3.743
 3681SOL     OW12939   6.881   8.792   5.231
 3681SOL    HW112940   6.850   8.703   5.214
 3681SOL    HW212941   6.810   8.833   5.280
 3682SOL     OW12942  13.916  11.129   5.356
 3682SOL    HW112943  13.840  11.077   5.379
 3682SOL    HW212944  13.892  11.219   5.381
 3683SOL     OW12945   8.308  11.131   1.402
 3683SOL    HW112946   8.282  11.193   1.470
 3683SOL    HW212947   8.235  11.069   1.398
 3684SOL     OW12948   2.563   5.678  14.304
 3684SOL    HW112949   2.535   5.695  14.394
 3684SOL    HW212950   2.535   5.588  14.286
 3685SOL     OW12951   0.318  13.152  13.256
 3685SOL    HW112952   0.359  13.149  13.342
 3685SOL    HW212953   0.242  13.209  13.267
 3686SOL     OW12954   2.275   2.314   9.713
 3686SOL    HW112955   2.193   2.326   9.666
 3686SOL    HW212956   2.249   2.280   9.799
 3687SOL     OW12957  12.701   4.748   8.961
 3687SOL    HW112958  12.665   4.810   8.897
 3687SOL    HW212959  12.658   4.665   8.940
 3688SOL     OW12960   2.342   0.028   6.143
 3688SOL    HW112961   2.307   0.032   6.232
 3688SOL    HW212962   2.415   0.090   6.143
 3689SOL     OW12963  12.524   2.376  10.615
 3689SOL    HW112964  12.596   2.413  10.666
 3689SOL    HW212965  12.494   2.449  10.561
 3690SOL     OW12966   8.410   8.580  12.078
 3690SOL    HW112967   8.418   8.535  12.162
 3690SOL    HW212968   8.402   8.672  12.100
 3691SOL     OW12969  14.013   0.871   2.900
 3691SOL    HW112970  13.930   0.892   2.943
 3691SOL    HW212971  14.080   0.905   2.959
 3692SOL     OW12972  12.336   3.966  10.397
 3692SOL    HW112973  12.417   3.961  10.347
 3692SOL    HW212974  12.365   3.979  10.488
 3693SOL     OW12975  11.938   3.282   1.500
 3693SOL    HW112976  11.967   3.202   1.456
 3693SOL    HW212977  11.978   3.278   1.586
 3694SOL     OW12978   2.015   5.770  12.521
 3694SOL    HW112979   2.026   5.686  12.565
 3694SOL    HW212980   1.987   5.748  12.432
 3695SOL     OW12981   2.145   7.836  12.719
 3695SOL    HW112982   2.127   7.826  12.812
 3695SOL    HW212983   2.169   7.928  12.708
 3696SOL     OW12984  12.296   0.924   2.503
 3696SOL    HW112985  12.273   0.852   2.444
 3696SOL    HW212986  12.323   0.882   2.584
 3697SOL     OW12987   0.033   6.178  14.133
 3697SOL    HW112988   0.057   6.103  14.188
 3697SOL    HW212989   0.103   6.242  14.147
 3698SOL     OW12990  11.819   7.779   8.314
 3698SOL    HW112991  11.867   7.725   8.251
 3698SOL    HW212992  11.762   7.834   8.261
 3699SOL     OW12993   7.759  10.131   6.786
 3699SOL    HW112994   7.836  10.171   6.745
 3699SOL    HW212995   7.786  10.115   6.876
 3700SOL     OW12996   0.231   9.534  12.351
 3700SOL    HW112997   0.277   9.610  12.387
 3700SOL    HW212998   0.291   9.499  12.285
 3701SOL     OW12999  13.596   8.650   6.065
 3701SOL    HW113000  13.521   8.590   6.060
 3701SOL    HW213001  13.661   8.602   6.115
 3702SOL     OW13002   8.025  14.046  11.904
 3702SOL    HW113003   7.981  13.992  11.838
 3702SOL    HW213004   7.955  14.068  11.966
 3703SOL     OW13005   7.096   6.975   3.458
 3703SOL    HW113006   7.106   6.995   3.551
 3703SOL    HW213007   7.009   6.935   3.452
 3704SOL     OW13008   6.305   6.241   4.038
 3704SOL    HW113009   6.360   6.170   4.004
 3704SOL    HW213010   6.368   6.308   4.064
 3705SOL     OW13011  12.098  11.191  11.288
 3705SOL    HW113012  12.139  11.250  11.352
 3705SOL    HW213013  12.134  11.220  11.204
 3706SOL     OW13014   1.404   3.600   7.435
 3706SOL    HW113015   1.381   3.543   7.362
 3706SOL    HW213016   1.349   3.569   7.507
 3707SOL     OW13017  12.901   1.818  10.116
 3707SOL    HW113018  12.957   1.792  10.042
 3707SOL    HW213019  12.863   1.736  10.147
 3708SOL     OW13020  12.728   0.191   2.237
 3708SOL    HW113021  12.689   0.164   2.320
 3708SOL    HW213022  12.705   0.120   2.176
 3709SOL     OW13023  13.780  12.487   9.360
 3709SOL    HW113024  13.715  12.466   9.427
 3709SOL    HW213025  13.801  12.580   9.375
 3710SOL     OW13026   0.161   8.320  14.208
 3710SOL    HW113027   0.097   8.373  14.256
 3710SOL    HW213028   0.179   8.245  14.265
 3711SOL     OW13029   8.964  12.373   8.499
 3711SOL    HW113030   9.011  12.391   8.418
 3711SOL    HW213031   8.872  12.395   8.480
 3712SOL     OW13032   9.759   7.237   8.478
 3712SOL    HW113033   9.726   7.155   8.440
 3712SOL    HW213034   9.854   7.224   8.483
 3713SOL     OW13035   2.227   1.749   2.003
 3713SOL    HW113036   2.239   1.736   1.909
 3713SOL    HW213037   2.263   1.836   2.020
 3714SOL     OW13038   9.600  13.951  10.457
 3714SOL    HW113039   9.661  13.902  10.512
 3714SOL    HW213040   9.563  13.884  10.399
 3715SOL     OW13041   6.839   8.168   2.828
 3715SOL    HW113042   6.760   8.117   2.845
 3715SOL    HW213043   6.824   8.207   2.741
 3716SOL     OW13044   0.009   3.097   4.753
 3716SOL    HW113045  14.789   3.115   4.724
 3716SOL    HW213046   0.024   3.006   4.728
 3717SOL     OW13047   5.927   8.323  12.051
 3717SOL    HW113048   5.871   8.251  12.021
 3717SOL    HW213049   5.896   8.399  12.001
 3718SOL     OW13050  10.669   1.663   6.749
 3718SOL    HW113051  10.745   1.659   6.690
 3718SOL    HW213052  10.698   1.619   6.829
 3719SOL     OW13053   8.830   5.697   5.517
 3719SOL    HW113054   8.873   5.657   5.442
 3719SOL    HW213055   8.881   5.776   5.535
 3720SOL     OW13056   4.125   8.024   1.818
 3720SOL    HW113057   4.118   7.953   1.881
 3720SOL    HW213058   4.095   8.102   1.865
 3721SOL     OW13059   2.293   7.540   8.938
 3721SOL    HW113060   2.333   7.468   8.986
 3721SOL    HW213061   2.211   7.504   8.903
 3722SOL     OW13062   8.190   5.616  12.086
 3722SOL    HW113063   8.177   5.710  12.073
 3722SOL    HW213064   8.114   5.575  12.043
 3723SOL     OW13065   7.189  11.984   8.598
 3723SOL    HW113066   7.279  11.991   8.567
 3723SOL    HW213067   7.177  11.891   8.615
 3724SOL     OW13068   8.285   1.865  11.232
 3724SOL    HW113069   8.366   1.814  11.240
 3724SOL    HW213070   8.313   1.956  11.241
 3725SOL     OW13071   0.493  11.846  13.499
 3725SOL    HW113072   0.409  11.856  13.453
 3725SOL    HW213073   0.494  11.918  13.563
 3726SOL     OW13074  11.822  13.798  11.642
 3726SOL    HW113075  11.913  13.820  11.620
 3726SOL    HW213076  11.815  13.704  11.625
 3727SOL     OW13077   9.767   2.182  13.408
 3727SOL    HW113078   9.813   2.118  13.354
 3727SOL    HW213079   9.812   2.265  13.390
 3728SOL     OW13080   8.752   9.847   7.292
 3728SOL    HW113081   8.709   9.932   7.302
 3728SOL    HW213082   8.716   9.811   7.211
 3729SOL     OW13083  13.879   8.070   6.992
 3729SOL    HW113084  13.858   7.977   6.988
 3729SOL    HW213085  13.821   8.110   6.927
 3730SOL     OW13086  11.160   1.331   2.195
 3730SOL    HW113087  11.200   1.294   2.274
 3730SOL    HW213088  11.199   1.281   2.124
 3731SOL     OW13089  14.305  14.302  11.385
 3731SOL    HW113090  14.213  14.299  11.358
 3731SOL    HW213091  14.335  14.389  11.356
 3732SOL     OW13092   0.819   7.857   7.568
 3732SOL    HW113093   0.755   7.785   7.570
 3732SOL    HW213094   0.898   7.817   7.533
 3733SOL     OW13095  11.184  14.800   2.208
 3733SOL    HW113096  11.201  14.858   2.282
 3733SOL    HW213097  11.185  14.857   2.132
 3734SOL     OW13098   9.488  10.894   6.045
 3734SOL    HW113099   9.460  10.984   6.057
 3734SOL    HW213100   9.518  10.866   6.132
 3735SOL     OW13101   1.669   1.997   0.331
 3735SOL    HW113102   1.606   1.928   0.312
 3735SOL    HW213103   1.702   1.976   0.419
 3736SOL     OW13104  14.478   1.978  12.411
 3736SOL    HW113105  14.553   1.981  12.352
 3736SOL    HW213106  14.462   1.884  12.425
 3737SOL     OW13107   2.414   0.572  11.131
 3737SOL    HW113108   2.334   0.617  11.156
 3737SOL    HW213109   2.390   0.479  11.130
 3738SOL     OW13110  10.244   6.385  11.357
 3738SOL    HW113111  10.192   6.452  11.311
 3738SOL    HW213112  10.335   6.404  11.332
 3739SOL     OW13113   2.624  13.476   3.144
 3739SOL    HW113114   2.695  13.455   3.084
 3739SOL    HW213115   2.668  13.508   3.223
 3740SOL     OW13116   7.114  10.129   5.839
 3740SOL    HW113117   7.124  10.126   5.744
 3740SOL    HW213118   7.195  10.168   5.870
 3741SOL     OW13119  12.905   4.281  14.794
 3741SOL    HW113120  12.943   4.324   0.002
 3741SOL    HW213121  12.866   4.353  14.744
 3742SOL     OW13122  11.944  12.522  11.373
 3742SOL    HW113123  11.974  12.591  11.313
 3742SOL    HW213124  11.921  12.570  11.453
 3743SOL     OW13125  11.919   0.628  11.277
 3743SOL    HW113126  11.946   0.539  11.253
 3743SOL    HW213127  11.930   0.679  11.196
 3744SOL     OW13128   0.315   5.554   8.372
 3744SOL    HW113129   0.231   5.542   8.416
 3744SOL    HW213130   0.350   5.635   8.410
 3745SOL     OW13131  12.237   3.449  13.235
 3745SOL    HW113132  12.328   3.454  13.263
 3745SOL    HW213133  12.217   3.356  13.234
 3746SOL     OW13134   9.985  12.006   9.414
 3746SOL    HW113135  10.059  11.978   9.361
 3746SOL    HW213136  10.009  12.094   9.444
 3747SOL     OW13137   3.824   3.081  11.816
 3747SOL    HW113138   3.829   3.096  11.722
 3747SOL    HW213139   3.731   3.092  11.837
 3748SOL     OW13140  11.582   7.952   4.801
 3748SOL    HW113141  11.589   8.047   4.802
 3748SOL    HW213142  11.666   7.922   4.765
 3749SOL     OW13143  10.630   2.136   3.130
 3749SOL    HW113144  10.697   2.076   3.162
 3749SOL    HW213145  10.609   2.105   3.042
 3750SOL     OW13146  13.103   9.450   2.664
 3750SOL    HW113147  13.195   9.447   2.689
 3750SOL    HW213148  13.105   9.473   2.571
 3751SOL     OW13149   2.531  13.125  13.554
 3751SOL    HW113150   2.619  13.159  13.567
 3751SOL    HW213151   2.542  13.054  13.491
 3752SOL     OW13152   8.782   3.377   0.206
 3752SOL    HW113153   8.830   3.458   0.190
 3752SOL    HW213154   8.700   3.389   0.157
 3753SOL     OW13155  12.547   2.419  14.540
 3753SOL    HW113156  12.497   2.480  14.594
 3753SOL    HW213157  12.486   2.348  14.522
 3754SOL     OW13158  14.843   3.186   1.067
 3754SOL    HW113159  14.812   3.276   1.075
 3754SOL    HW213160   0.064   3.195   1.037
 3755SOL     OW13161   3.553   2.368   4.597
 3755SOL    HW113162   3.519   2.453   4.570
 3755SOL    HW213163   3.615   2.343   4.528
 3756SOL     OW13164   1.446   5.509   9.325
 3756SOL    HW113165   1.488   5.512   9.239
 3756SOL    HW213166   1.352   5.516   9.306
 3757SOL     OW13167   4.657  11.132  14.503
 3757SOL    HW113168   4.591  11.129  14.572
 3757SOL    HW213169   4.733  11.172  14.545
 3758SOL     OW13170   6.165  13.186   1.908
 3758SOL    HW113171   6.201  13.268   1.943
 3758SOL    HW213172   6.092  13.214   1.853
 3759SOL     OW13173  10.208   9.437   7.093
 3759SOL    HW113174  10.250   9.482   7.166
 3759SOL    HW213175  10.214   9.344   7.116
 3760SOL     OW13176  14.746   0.920   5.463
 3760SOL    HW113177  14.838   0.896   5.461
 3760SOL    HW213178  14.716   0.910   5.373
 3761SOL     OW13179  12.315   0.155   5.825
 3761SOL    HW113180  12.291   0.091   5.758
 3761SOL    HW213181  12.410   0.142   5.837
 3762SOL     OW13182   1.423  14.653   5.070
 3762SOL    HW113183   1.351  14.595   5.045
 3762SOL    HW213184   1.380  14.723   5.120
 3763SOL     OW13185   5.154   0.414  10.319
 3763SOL    HW113186   5.140   0.323  10.346
 3763SOL    HW213187   5.240   0.413  10.277
 3764SOL     OW13188   9.824  14.666  10.962
 3764SOL    HW113189   9.862  14.666  10.874
 3764SOL    HW213190   9.760  14.595  10.960
 3765SOL     OW13191  12.824   6.345   5.770
 3765SOL    HW113192  12.837   6.341   5.865
 3765SOL    HW213193  12.840   6.255   5.741
 3766SOL     OW13194   6.511   9.778   6.183
 3766SOL    HW113195   6.486   9.775   6.276
 3766SOL    HW213196   6.427   9.771   6.136
 3767SOL     OW13197  13.061   8.278   7.287
 3767SOL    HW113198  13.070   8.372   7.273
 3767SOL    HW213199  13.032   8.243   7.202
 3768SOL     OW13200   6.610  10.275  12.902
 3768SOL    HW113201   6.592  10.349  12.959
 3768SOL    HW213202   6.524  10.249  12.869
 3769SOL     OW13203  13.413   2.516   8.003
 3769SOL    HW113204  13.410   2.603   8.042
 3769SOL    HW213205  13.329   2.507   7.959
 3770SOL     OW13206  10.112   8.720   8.633
 3770SOL    HW113207  10.122   8.671   8.715
 3770SOL    HW213208  10.095   8.654   8.567
 3771SOL     OW13209   4.139  12.263   9.995
 3771SOL    HW113210   4.060  12.209   9.986
 3771SOL    HW213211   4.164  12.283   9.905
 3772SOL     OW13212  11.228  12.020   6.537
 3772SOL    HW113213  11.196  12.076   6.466
 3772SOL    HW213214  11.293  11.964   6.496
 3773SOL     OW13215  14.549   5.629   4.830
 3773SOL    HW113216  14.500   5.656   4.908
 3773SOL    HW213217  14.528   5.696   4.765
 3774SOL     OW13218   4.830   7.825  12.151
 3774SOL    HW113219   4.870   7.874  12.080
 3774SOL    HW213220   4.848   7.733  12.131
 3775SOL     OW13221  13.415   0.777   4.637
 3775SOL    HW113222  13.500   0.758   4.597
 3775SOL    HW213223  13.354   0.785   4.564
 3776SOL     OW13224  11.775   6.575  10.110
 3776SOL    HW113225  11.742   6.639  10.173
 3776SOL    HW213226  11.713   6.578  10.037
 3777SOL     OW13227  12.313   8.456   2.290
 3777SOL    HW113228  12.296   8.429   2.381
 3777SOL    HW213229  12.294   8.550   2.290
 3778SOL     OW13230   5.009   1.405   9.715
 3778SOL    HW113231   5.027   1.499   9.719
 3778SOL    HW213232   4.946   1.390   9.786
 3779SOL     OW13233   1.596   7.858  14.269
 3779SOL    HW113234   1.526   7.923  14.266
 3779SOL    HW213235   1.570   7.791  14.206
 3780SOL     OW13236  13.819   0.841   6.332
 3780SOL    HW113237  13.834   0.885   6.416
 3780SOL    HW213238  13.850   0.752   6.346
 3781SOL     OW13239  14.586   0.782  12.698
 3781SOL    HW113240  14.659   0.842  12.714
 3781SOL    HW213241  14.548   0.768  12.785
 3782SOL     OW13242   0.548  14.521   7.355
 3782SOL    HW113243   0.628  14.540   7.305
 3782SOL    HW213244   0.482  14.579   7.317
 3783SOL     OW13245   1.586  12.301   0.285
 3783SOL    HW113246   1.534  12.381   0.278
 3783SOL    HW213247   1.556  12.261   0.367
 3784SOL     OW13248  13.326   3.206   7.652
 3784SOL    HW113249  13.339   3.230   7.560
 3784SOL    HW213250  13.341   3.111   7.654
 3785SOL     OW13251   6.706  14.603  13.497
 3785SOL    HW113252   6.660  14.636  13.419
 3785SOL    HW213253   6.743  14.681  13.537
 3786SOL     OW13254  12.639   3.824   6.252
 3786SOL    HW113255  12.555   3.784   6.275
 3786SOL    HW213256  12.686   3.756   6.204
 3787SOL     OW13257  12.024   8.569   1.602
 3787SOL    HW113258  12.020   8.479   1.570
 3787SOL    HW213259  12.019   8.561   1.698
 3788SOL     OW13260   6.147   3.493  13.869
 3788SOL    HW113261   6.069   3.547  13.857
 3788SOL    HW213262   6.204   3.516  13.795
 3789SOL     OW13263  13.291  14.657   5.809
 3789SOL    HW113264  13.338  14.602   5.747
 3789SOL    HW213265  13.322  14.630   5.895
 3790SOL     OW13266   4.969   2.552   1.460
 3790SOL    HW113267   4.972   2.645   1.486
 3790SOL    HW213268   5.061   2.526   1.455
 3791SOL     OW13269   1.153   0.475  14.419
 3791SOL    HW113270   1.138   0.558  14.464
 3791SOL    HW213271   1.247   0.461  14.425
 3792SOL     OW13272   3.824   9.894   1.227
 3792SOL    HW113273   3.869   9.871   1.308
 3792SOL    HW213274   3.878   9.858   1.157
 3793SOL     OW13275  12.004   1.037   4.060
 3793SOL    HW113276  11.986   1.096   3.987
 3793SOL    HW213277  12.072   1.082   4.110
 3794SOL     OW13278  13.016   0.188   2.782
 3794SOL    HW113279  12.965   0.110   2.803
 3794SOL    HW213280  13.107   0.158   2.782
 3795SOL     OW13281   9.042   2.362  11.550
 3795SOL    HW113282   9.135   2.383  11.561
 3795SOL    HW213283   9.030   2.357  11.455
 3796SOL     OW13284  14.663   8.826   7.516
 3796SOL    HW113285  14.744   8.869   7.541
 3796SOL    HW213286  14.632   8.875   7.440
 3797SOL     OW13287   7.251   1.764   7.511
 3797SOL    HW113288   7.219   1.854   7.512
 3797SOL    HW213289   7.346   1.772   7.513
 3798SOL     OW13290   2.733   2.294   7.346
 3798SOL    HW113291   2.765   2.246   7.269
 3798SOL    HW213292   2.767   2.244   7.420
 3799SOL     OW13293  10.388   6.514   2.619
 3799SOL    HW113294  10.339   6.467   2.686
 3799SOL    HW213295  10.478   6.481   2.628
 3800SOL     OW13296   7.582  11.648  12.129
 3800SOL    HW113297   7.581  11.571  12.072
 3800SOL    HW213298   7.633  11.620  12.205
 3801SOL     OW13299   1.181   0.985   4.120
 3801SOL    HW113300   1.114   1.004   4.053
 3801SOL    HW213301   1.257   0.957   4.069
 3802SOL     OW13302   2.282  10.779   5.072
 3802SOL    HW113303   2.337  10.857   5.065
 3802SOL    HW213304   2.256  10.760   4.982
 3803SOL     OW13305   5.271  12.822  10.418
 3803SOL    HW113306   5.270  12.761  10.345
 3803SOL    HW213307   5.335  12.786  10.479
 3804SOL     OW13308  14.487  10.482  14.647
 3804SOL    HW113309  14.531  10.434  14.717
 3804SOL    HW213310  14.534  10.566  14.642
 3805SOL     OW13311   6.280   9.273   5.514
 3805SOL    HW113312   6.260   9.264   5.420
 3805SOL    HW213313   6.230   9.350   5.541
 3806SOL     OW13314   1.614  10.632  13.250
 3806SOL    HW113315   1.666  10.552  13.247
 3806SOL    HW213316   1.613  10.657  13.343
 3807SOL     OW13317   2.929  14.411   9.863
 3807SOL    HW113318   2.971  14.385   9.945
 3807SOL    HW213319   2.845  14.448   9.890
 3808SOL     OW13320  11.085   4.564   4.480
 3808SOL    HW113321  11.097   4.584   4.573
 3808SOL    HW213322  11.062   4.472   4.478
 3809SOL     OW13323   6.750   4.999  11.532
 3809SOL    HW113324   6.717   4.997  11.622
 3809SOL    HW213325   6.699   4.932  11.487
 3810SOL     OW13326  12.314  12.084   6.314
 3810SOL    HW113327  12.373  12.141   6.364
 3810SOL    HW213328  12.245  12.142   6.283
 3811SOL     OW13329   2.373   0.832  14.776
 3811SOL    HW113330   2.286   0.810  14.810
 3811SOL    HW213331   2.357   0.880  14.696
 3812SOL     OW13332   2.044   7.671  12.258
 3812SOL    HW113333   2.012   7.755  12.227
 3812SOL    HW213334   2.022   7.670  12.351
 3813SOL     OW13335  13.221   3.417  10.606
 3813SOL    HW113336  13.283   3.381  10.669
 3813SOL    HW213337  13.160   3.345  10.588
 3814SOL     OW13338  14.702   6.556   9.225
 3814SOL    HW113339  14.638   6.486   9.216
 3814SOL    HW213340  14.710   6.569   9.319
 3815SOL     OW13341  14.844  10.959   8.792
 3815SOL    HW113342  14.764  10.907   8.800
 3815SOL    HW213343   0.013  10.931   8.710
 3816SOL     OW13344   2.814   0.959   8.407
 3816SOL    HW113345   2.895   0.941   8.360
 3816SOL    HW213346   2.746   0.915   8.355
 3817SOL     OW13347  10.755   1.731  10.152
 3817SOL    HW113348  10.815   1.682  10.208
 3817SOL    HW213349  10.690   1.768  10.212
 3818SOL     OW13350   4.783  10.968  10.888
 3818SOL    HW113351   4.826  10.917  10.819
 3818SOL    HW213352   4.692  10.938  10.887
 3819SOL     OW13353   1.384   5.510   4.114
 3819SOL    HW113354   1.308   5.453   4.108
 3819SOL    HW213355   1.404   5.533   4.023
 3820SOL     OW13356  10.570   4.978   0.692
 3820SOL    HW113357  10.608   4.950   0.608
 3820SOL    HW213358  10.547   4.896   0.735
 3821SOL     OW13359  14.244   2.031  10.608
 3821SOL    HW113360  14.249   1.948  10.560
 3821SOL    HW213361  14.161   2.070  10.581
 3822SOL     OW13362   9.691   3.212   3.310
 3822SOL    HW113363   9.671   3.305   3.305
 3822SOL    HW213364   9.712   3.187   3.220
 3823SOL     OW13365  10.535   9.801   8.471
 3823SOL    HW113366  10.468   9.786   8.537
 3823SOL    HW213367  10.528   9.894   8.449
 3824SOL     OW13368   4.697  10.195  14.554
 3824SOL    HW113369   4.662  10.166  14.470
 3824SOL    HW213370   4.769  10.253  14.531
 3825SOL     OW13371   1.139   0.730   4.281
 3825SOL    HW113372   1.105   0.805   4.231
 3825SOL    HW213373   1.172   0.670   4.215
 3826SOL     OW13374   5.300   4.242  13.739
 3826SOL    HW113375   5.308   4.197  13.823
 3826SOL    HW213376   5.232   4.194  13.692
 3827SOL     OW13377   4.745   4.403   0.963
 3827SOL    HW113378   4.745   4.492   0.926
 3827SOL    HW213379   4.718   4.347   0.890
 3828SOL     OW13380  11.457   6.889   6.739
 3828SOL    HW113381  11.512   6.930   6.805
 3828SOL    HW213382  11.440   6.958   6.675
 3829SOL     OW13383  14.100  14.784  14.211
 3829SOL    HW113384  14.090  14.744  14.124
 3829SOL    HW213385  14.105   0.009  14.193
 3830SOL     OW13386   2.669   7.335   2.237
 3830SOL    HW113387   2.666   7.430   2.229
 3830SOL    HW213388   2.688   7.319   2.330
 3831SOL     OW13389  11.726   0.264   7.077
 3831SOL    HW113390  11.676   0.332   7.122
 3831SOL    HW213391  11.759   0.307   6.998
 3832SOL     OW13392   0.665   8.497  12.854
 3832SOL    HW113393   0.657   8.413  12.809
 3832SOL    HW213394   0.753   8.495  12.893
 3833SOL     OW13395   1.101   5.712   0.918
 3833SOL    HW113396   1.037   5.730   0.987
 3833SOL    HW213397   1.048   5.703   0.838
 3834SOL     OW13398   2.102  13.742  10.555
 3834SOL    HW113399   2.176  13.742  10.494
 3834SOL    HW213400   2.121  13.671  10.616
 3835SOL     OW13401  10.651   4.464   6.438
 3835SOL    HW113402  10.718   4.402   6.409
 3835SOL    HW213403  10.639   4.522   6.363
 3836SOL     OW13404   5.257  14.030   5.593
 3836SOL    HW113405   5.302  13.947   5.602
 3836SOL    HW213406   5.291  14.067   5.511
 3837SOL     OW13407   0.299   0.005  13.686
 3837SOL    HW113408   0.392   0.014  13.706
 3837SOL    HW213409   0.297  14.859  13.592
 3838SOL     OW13410   5.289  10.465   9.185
 3838SOL    HW113411   5.206  10.418   9.181
 3838SOL    HW213412   5.325  10.456   9.096
 3839SOL     OW13413   2.809   3.842  11.692
 3839SOL    HW113414   2.806   3.762  11.640
 3839SOL    HW213415   2.894   3.839  11.736
 3840SOL     OW13416  12.852   5.762   4.660
 3840SOL    HW113417  12.936   5.718   4.644
 3840SOL    HW213418  12.870   5.823   4.731
 3841SOL     OW13419  10.189  11.020   1.414
 3841SOL    HW113420  10.265  10.977   1.375
 3841SOL    HW213421  10.131  11.036   1.340
 3842SOL     OW13422   4.947   4.641   6.075
 3842SOL    HW113423   4.929   4.700   6.148
 3842SOL    HW213424   4.862   4.604   6.052
 3843SOL     OW13425   4.418   4.609   6.798
 3843SOL    HW113426   4.436   4.587   6.706
 3843SOL    HW213427   4.344   4.554   6.822
 3844SOL     OW13428   3.654   8.727   3.414
 3844SOL    HW113429   3.634   8.750   3.505
 3844SOL    HW213430   3.602   8.787   3.362
 3845SOL     OW13431   0.633   9.129  10.112
 3845SOL    HW113432   0.675   9.086  10.187
 3845SOL    HW213433   0.688   9.106  10.037
 3846SOL     OW13434   1.165   0.462   5.521
 3846SOL    HW113435   1.078   0.426   5.536
 3846SOL    HW213436   1.212   0.446   5.602
 3847SOL     OW13437   8.384   8.983   4.982
 3847SOL    HW113438   8.374   9.068   5.026
 3847SOL    HW213439   8.479   8.972   4.974
 3848SOL     OW13440   1.535   5.432   9.088
 3848SOL    HW113441   1.599   5.361   9.101
 3848SOL    HW213442   1.526   5.440   8.993
 3849SOL     OW13443   3.198   7.915   8.177
 3849SOL    HW113444   3.278   7.863   8.180
 3849SOL    HW213445   3.205   7.967   8.097
 3850SOL     OW13446   6.325   5.666   0.760
 3850SOL    HW113447   6.421   5.658   0.765
 3850SOL    HW213448   6.295   5.632   0.844
 3851SOL     OW13449   5.970  13.584   5.457
 3851SOL    HW113450   5.980  13.537   5.374
 3851SOL    HW213451   6.058  13.591   5.492
 3852SOL     OW13452   8.862  11.735   2.802
 3852SOL    HW113453   8.943  11.709   2.847
 3852SOL    HW213454   8.888  11.812   2.750
 3853SOL     OW13455   6.855   1.771  13.164
 3853SOL    HW113456   6.841   1.838  13.232
 3853SOL    HW213457   6.826   1.813  13.083
 3854SOL     OW13458  13.249   5.630   4.972
 3854SOL    HW113459  13.212   5.551   5.011
 3854SOL    HW213460  13.323   5.600   4.921
 3855SOL     OW13461   3.308  13.807   5.699
 3855SOL    HW113462   3.272  13.878   5.751
 3855SOL    HW213463   3.372  13.849   5.641
 3856SOL     OW13464   6.064  13.119   8.905
 3856SOL    HW113465   6.009  13.070   8.965
 3856SOL    HW213466   6.019  13.203   8.894
 3857SOL     OW13467   8.356   4.597   2.219
 3857SOL    HW113468   8.329   4.587   2.310
 3857SOL    HW213469   8.408   4.519   2.200
 3858SOL     OW13470  13.011  12.807   3.420
 3858SOL    HW113471  12.994  12.891   3.377
 3858SOL    HW213472  12.957  12.810   3.499
 3859SOL     OW13473  12.841   7.691   9.382
 3859SOL    HW113474  12.886   7.636   9.446
 3859SOL    HW213475  12.896   7.686   9.304
 3860SOL     OW13476   0.806   0.482   8.445
 3860SOL    HW113477   0.876   0.547   8.449
 3860SOL    HW213478   0.839   0.408   8.495
 3861SOL     OW13479   3.434   7.097   3.302
 3861SOL    HW113480   3.366   7.121   3.239
 3861SOL    HW213481   3.446   7.003   3.289
 3862SOL     OW13482   0.213   8.669  12.011
 3862SOL    HW113483   0.254   8.604  12.068
 3862SOL    HW213484   0.138   8.623  11.973
 3863SOL     OW13485   2.349   6.507   2.561
 3863SOL    HW113486   2.354   6.602   2.575
 3863SOL    HW213487   2.434   6.483   2.524
 3864SOL     OW13488   5.616   8.549   1.127
 3864SOL    HW113489   5.607   8.556   1.032
 3864SOL    HW213490   5.616   8.455   1.145
 3865SOL     OW13491   5.206   6.334   2.756
 3865SOL    HW113492   5.195   6.243   2.731
 3865SOL    HW213493   5.236   6.331   2.847
 3866SOL     OW13494   4.657   3.792  11.270
 3866SOL    HW113495   4.667   3.884  11.293
 3866SOL    HW213496   4.636   3.793  11.177
 3867SOL     OW13497   3.758   9.464   6.894
 3867SOL    HW113498   3.752   9.559   6.891
 3867SOL    HW213499   3.852   9.445   6.898
 3868SOL     OW13500   0.052  12.387   4.381
 3868SOL    HW113501   0.050  12.296   4.409
 3868SOL    HW213502   0.051  12.437   4.463
 3869SOL     OW13503  14.046   4.194   7.848
 3869SOL    HW113504  13.971   4.244   7.879
 3869SOL    HW213505  14.044   4.113   7.900
 3870SOL     OW13506   5.604   5.086   3.347
 3870SOL    HW113507   5.648   5.064   3.265
 3870SOL    HW213508   5.553   5.009   3.369
 3871SOL     OW13509  12.870   6.871  12.705
 3871SOL    HW113510  12.818   6.855  12.784
 3871SOL    HW213511  12.894   6.784  12.674
 3872SOL     OW13512   8.777   4.377   0.251
 3872SOL    HW113513   8.713   4.307   0.249
 3872SOL    HW213514   8.725   4.458   0.253
 3873SOL     OW13515   8.919   9.216   2.114
 3873SOL    HW113516   8.978   9.192   2.043
 3873SOL    HW213517   8.970   9.278   2.167
 3874SOL     OW13518  13.471  11.966  11.400
 3874SOL    HW113519  13.457  11.923  11.315
 3874SOL    HW213520  13.515  12.048  11.378
 3875SOL     OW13521   3.544   1.949   4.187
 3875SOL    HW113522   3.565   1.993   4.269
 3875SOL    HW213523   3.626   1.951   4.137
 3876SOL     OW13524   2.514  14.583   2.358
 3876SOL    HW113525   2.569  14.658   2.378
 3876SOL    HW213526   2.551  14.511   2.410
 3877SOL     OW13527   3.411  10.823  10.209
 3877SOL    HW113528   3.337  10.876  10.181
 3877SOL    HW213529   3.476  10.887  10.241
 3878SOL     OW13530   3.795  11.270   2.289
 3878SOL    HW113531   3.710  11.313   2.299
 3878SOL    HW213532   3.844  11.327   2.230
 3879SOL     OW13533   2.344   6.138  11.017
 3879SOL    HW113534   2.306   6.076  10.956
 3879SOL    HW213535   2.431   6.156  10.981
 3880SOL     OW13536  12.907   1.628   7.569
 3880SOL    HW113537  12.849   1.557   7.541
 3880SOL    HW213538  12.902   1.626   7.665
 3881SOL     OW13539  14.205   5.702   5.690
 3881SOL    HW113540  14.239   5.745   5.612
 3881SOL    HW213541  14.281   5.658   5.729
 3882SOL     OW13542   1.260  10.336   9.584
 3882SOL    HW113543   1.254  10.392   9.661
 3882SOL    HW213544   1.313  10.386   9.522
 3883SOL     OW13545   6.715   3.748   8.701
 3883SOL    HW113546   6.780   3.703   8.754
 3883SOL    HW213547   6.723   3.841   8.725
 3884SOL     OW13548   8.901  13.450  13.250
 3884SOL    HW113549   8.823  13.404  13.219
 3884SOL    HW213550   8.952  13.466  13.171
 3885SOL     OW13551  10.802   2.354  13.953
 3885SOL    HW113552  10.786   2.298  14.030
 3885SOL    HW213553  10.799   2.294  13.879
 3886SOL     OW13554   1.003   1.006   7.265
 3886SOL    HW113555   1.092   0.972   7.263
 3886SOL    HW213556   1.013   1.101   7.268
 3887SOL     OW13557   1.890  14.784   1.996
 3887SOL    HW113558   1.969  14.729   1.994
 3887SOL    HW213559   1.820  14.726   1.965
 3888SOL     OW13560   7.763   7.976   6.545
 3888SOL    HW113561   7.700   8.048   6.552
 3888SOL    HW213562   7.724   7.905   6.596
 3889SOL     OW13563  13.986   4.721   9.762
 3889SOL    HW113564  13.941   4.741   9.844
 3889SOL    HW213565  13.976   4.626   9.751
 3890SOL     OW13566   0.184   3.285   7.569
 3890SOL    HW113567   0.164   3.294   7.662
 3890SOL    HW213568   0.099   3.289   7.526
 3891SOL     OW13569  12.719  12.673   3.311
 3891SOL    HW113570  12.782  12.630   3.369
 3891SOL    HW213571  12.647  12.699   3.368
 3892SOL     OW13572   4.948   0.074  13.158
 3892SOL    HW113573   4.904   0.052  13.240
 3892SOL    HW213574   4.892   0.037  13.090
 3893SOL     OW13575   4.204   2.260  11.279
 3893SOL    HW113576   4.283   2.282  11.327
 3893SOL    HW213577   4.179   2.173  11.310
 3894SOL     OW13578   5.733  10.127  13.955
 3894SOL    HW113579   5.806  10.160  14.007
 3894SOL    HW213580   5.740  10.173  13.871
 3895SOL     OW13581   0.233  10.034   5.104
 3895SOL    HW113582   0.197  10.109   5.057
 3895SOL    HW213583   0.158   9.976   5.120
 3896SOL     OW13584   9.017  10.541   2.705
 3896SOL    HW113585   9.019  10.503   2.793
 3896SOL    HW213586   9.048  10.471   2.648
 3897SOL     OW13587   4.467  11.408  11.391
 3897SOL    HW113588   4.552  11.452  11.387
 3897SOL    HW213589   4.480  11.327  11.342
 3898SOL     OW13590  14.822   2.937  11.875
 3898SOL    HW113591  14.801   2.964  11.964
 3898SOL    HW213592  14.862   2.850  11.886
 3899SOL     OW13593  10.123   6.901   8.288
 3899SOL    HW113594  10.201   6.871   8.242
 3899SOL    HW213595  10.050   6.872   8.233
 3900SOL     OW13596   9.941  11.424   4.547
 3900SOL    HW113597   9.846  11.435   4.548
 3900SOL    HW213598   9.967  11.433   4.639
 3901SOL     OW13599  13.000   1.534  11.166
 3901SOL    HW113600  13.070   1.526  11.101
 3901SOL    HW213601  13.037   1.590  11.234
 3902SOL     OW13602   5.611   8.676   6.760
 3902SOL    HW113603   5.621   8.725   6.678
 3902SOL    HW213604   5.551   8.729   6.812
 3903SOL     OW13605   4.363   4.118   6.029
 3903SOL    HW113606   4.314   4.039   6.005
 3903SOL    HW213607   4.297   4.184   6.046
 3904SOL     OW13608  14.159   3.980   9.440
 3904SOL    HW113609  14.162   4.016   9.352
 3904SOL    HW213610  14.250   3.958   9.460
 3905SOL     OW13611   5.027   0.217   3.094
 3905SOL    HW113612   5.081   0.156   3.044
 3905SOL    HW213613   5.087   0.256   3.158
 3906SOL     OW13614   3.949   9.888   4.813
 3906SOL    HW113615   4.002   9.944   4.757
 3906SOL    HW213616   4.006   9.864   4.886
 3907SOL     OW13617  12.031  11.002  10.170
 3907SOL    HW113618  12.090  10.930  10.146
 3907SOL    HW213619  12.068  11.079  10.126
 3908SOL     OW13620   8.344   6.451  13.682
 3908SOL    HW113621   8.400   6.523  13.712
 3908SOL    HW213622   8.329   6.399  13.761
 3909SOL     OW13623   4.448   6.961   9.834
 3909SOL    HW113624   4.377   6.992   9.777
 3909SOL    HW213625   4.411   6.885   9.879
 3910SOL     OW13626   0.035   8.954  10.840
 3910SOL    HW113627   0.117   8.928  10.882
 3910SOL    HW213628   0.062   8.998  10.759
 3911SOL     OW13629   9.030  13.390   2.592
 3911SOL    HW113630   8.992  13.477   2.607
 3911SOL    HW213631   9.063  13.394   2.502
 3912SOL     OW13632  14.152  11.447   8.065
 3912SOL    HW113633  14.222  11.474   8.124
 3912SOL    HW213634  14.157  11.508   7.992
 3913SOL     OW13635   1.914  13.885   7.011
 3913SOL    HW113636   1.990  13.937   7.036
 3913SOL    HW213637   1.850  13.949   6.981
 3914SOL     OW13638  14.623   9.610   2.396
 3914SOL    HW113639  14.529   9.595   2.385
 3914SOL    HW213640  14.659   9.524   2.417
 3915SOL     OW13641   2.708   7.001   3.948
 3915SOL    HW113642   2.667   6.934   3.893
 3915SOL    HW213643   2.790   6.962   3.975
 3916SOL     OW13644   7.482   3.061  11.729
 3916SOL    HW113645   7.471   3.151  11.758
 3916SOL    HW213646   7.576   3.052  11.712
 3917SOL     OW13647   8.339   3.986  10.981
 3917SOL    HW113648   8.363   4.070  10.942
 3917SOL    HW213649   8.243   3.985  10.978
 3918SOL     OW13650   3.835   3.360   9.963
 3918SOL    HW113651   3.809   3.410  10.041
 3918SOL    HW213652   3.802   3.272   9.980
 3919SOL     OW13653   5.701   1.277   3.409
 3919SOL    HW113654   5.640   1.350   3.396
 3919SOL    HW213655   5.781   1.318   3.441
 3920SOL     OW13656   0.170  13.022  13.872
 3920SOL    HW113657   0.177  12.977  13.788
 3920SOL    HW213658   0.127  12.959  13.930
 3921SOL     OW13659   2.701  11.342   5.522
 3921SOL    HW113660   2.667  11.429   5.544
 3921SOL    HW213661   2.711  11.298   5.607
 3922SOL     OW13662   2.924   4.131   4.764
 3922SOL    HW113663   2.840   4.166   4.735
 3922SOL    HW213664   2.908   4.101   4.853
 3923SOL     OW13665   9.321   9.098  11.922
 3923SOL    HW113666   9.231   9.086  11.891
 3923SOL    HW213667   9.354   9.173  11.872
 3924SOL     OW13668   8.437  11.848   0.522
 3924SOL    HW113669   8.380  11.909   0.474
 3924SOL    HW213670   8.445  11.772   0.464
 3925SOL     OW13671  10.610   1.889  14.861
 3925SOL    HW113672  10.583   1.966  14.810
 3925SOL    HW213673  10.703   1.879  14.840
 3926SOL     OW13674  10.737  10.714   6.509
 3926SOL    HW113675  10.682  10.636   6.511
 3926SOL    HW213676  10.691  10.774   6.450
 3927SOL     OW13677   2.371   3.209   5.557
 3927SOL    HW113678   2.339   3.132   5.511
 3927SOL    HW213679   2.292   3.255   5.586
 3928SOL     OW13680   8.452   7.142   8.983
 3928SOL    HW113681   8.482   7.225   9.019
 3928SOL    HW213682   8.526   7.082   8.997
 3929SOL     OW13683   0.591   6.155   8.747
 3929SOL    HW113684   0.559   6.154   8.837
 3929SOL    HW213685   0.680   6.120   8.754
 3930SOL     OW13686   5.263   1.113   7.140
 3930SOL    HW113687   5.282   1.023   7.165
 3930SOL    HW213688   5.330   1.135   7.075
 3931SOL     OW13689   7.971   0.680  12.672
 3931SOL    HW113690   8.005   0.629  12.746
 3931SOL    HW213691   7.878   0.657  12.669
 3932SOL     OW13692  10.754  14.516   4.313
 3932SOL    HW113693  10.773  14.586   4.251
 3932SOL    HW213694  10.783  14.436   4.269
 3933SOL     OW13695   8.160   8.631   5.806
 3933SOL    HW113696   8.115   8.698   5.857
 3933SOL    HW213697   8.122   8.548   5.837
 3934SOL     OW13698   2.715  11.219   5.759
 3934SOL    HW113699   2.811  11.214   5.760
 3934SOL    HW213700   2.693  11.264   5.841
 3935SOL     OW13701   3.052   5.158   4.554
 3935SOL    HW113702   3.005   5.082   4.588
 3935SOL    HW213703   3.144   5.141   4.575
 3936SOL     OW13704   2.644   7.658   3.085
 3936SOL    HW113705   2.585   7.692   3.018
 3936SOL    HW213706   2.719   7.624   3.036
 3937SOL     OW13707  14.344   5.771   0.623
 3937SOL    HW113708  14.359   5.859   0.589
 3937SOL    HW213709  14.363   5.713   0.549
 3938SOL     OW13710  11.633  11.495  11.950
 3938SOL    HW113711  11.598  11.428  11.891
 3938SOL    HW213712  11.727  11.496  11.932
 3939SOL     OW13713   2.387   3.901   0.335
 3939SOL    HW113714   2.432   3.985   0.349
 3939SOL    HW213715   2.296   3.925   0.318
 3940SOL     OW13716   3.593   7.610  13.624
 3940SOL    HW113717   3.652   7.553  13.575
 3940SOL    HW213718   3.558   7.554  13.694
 3941SOL     OW13719   7.263   6.212   3.846
 3941SOL    HW113720   7.318   6.275   3.798
 3941SOL    HW213721   7.321   6.176   3.913
 3942SOL     OW13722   2.194   0.739  11.140
 3942SOL    HW113723   2.106   0.774  11.147
 3942SOL    HW213724   2.249   0.804  11.184
 3943SOL     OW13725   2.697   8.558   4.772
 3943SOL    HW113726   2.768   8.612   4.738
 3943SOL    HW213727   2.741   8.494   4.828
 3944SOL     OW13728   7.936   0.966   7.636
 3944SOL    HW113729   7.888   0.885   7.619
 3944SOL    HW213730   8.027   0.943   7.619
 3945SOL     OW13731   3.393  11.292  12.288
 3945SOL    HW113732   3.368  11.365  12.232
 3945SOL    HW213733   3.325  11.288  12.356
 3946SOL     OW13734   4.902   9.507   8.882
 3946SOL    HW113735   4.989   9.477   8.908
 3946SOL    HW213736   4.905   9.602   8.892
 3947SOL     OW13737  10.100   5.583   3.354
 3947SOL    HW113738  10.085   5.678   3.353
 3947SOL    HW213739  10.187   5.573   3.394
 3948SOL     OW13740  14.649   0.113   9.330
 3948SOL    HW113741  14.634   0.069   9.247
 3948SOL    HW213742  14.694   0.048   9.384
 3949SOL     OW13743   2.563   2.973  13.979
 3949SOL    HW113744   2.564   2.901  14.042
 3949SOL    HW213745   2.642   3.023  13.999
 3950SOL     OW13746  12.102   3.250   6.945
 3950SOL    HW113747  12.028   3.209   6.901
 3950SOL    HW213748  12.151   3.293   6.874
 3951SOL     OW13749  13.976   0.738   9.091
 3951SOL    HW113750  14.002   0.655   9.050
 3951SOL    HW213751  13.965   0.716   9.184
 3952SOL     OW13752   9.387  14.573   6.836
 3952SOL    HW113753   9.427  14.644   6.786
 3952SOL    HW213754   9.411  14.592   6.927
 3953SOL     OW13755  13.656  12.449   5.216
 3953SOL    HW113756  13.661  12.511   5.143
 3953SOL    HW213757  13.746  12.419   5.228
 3954SOL     OW13758   9.603   1.953   3.591
 3954SOL    HW113759   9.681   1.996   3.626
 3954SOL    HW213760   9.530   1.997   3.634
 3955SOL     OW13761   0.475   9.583  13.378
 3955SOL    HW113762   0.420   9.542  13.312
 3955SOL    HW213763   0.552   9.527  13.384
 3956SOL     OW13764   3.145  14.235   8.671
 3956SOL    HW113765   3.133  14.141   8.657
 3956SOL    HW213766   3.233  14.243   8.707
 3957SOL     OW13767  12.303   8.478   7.996
 3957SOL    HW113768  12.273   8.546   8.056
 3957SOL    HW213769  12.238   8.477   7.925
 3958SOL     OW13770   8.304   2.380   7.701
 3958SOL    HW113771   8.373   2.414   7.644
 3958SOL    HW213772   8.322   2.420   7.787
 3959SOL     OW13773   9.628   3.394   5.681
 3959SOL    HW113774   9.588   3.463   5.734
 3959SOL    HW213775   9.722   3.408   5.690
 3960SOL     OW13776  13.369   8.751   2.713
 3960SOL    HW113777  13.348   8.763   2.806
 3960SOL    HW213778  13.460   8.779   2.705
 3961SOL     OW13779   4.002   3.553  11.262
 3961SOL    HW113780   3.993   3.481  11.200
 3961SOL    HW213781   3.917   3.598  11.260
 3962SOL     OW13782   5.801   5.854   7.573
 3962SOL    HW113783   5.828   5.779   7.520
 3962SOL    HW213784   5.796   5.819   7.662
 3963SOL     OW13785   8.124   3.276  13.375
 3963SOL    HW113786   8.196   3.216  13.390
 3963SOL    HW213787   8.150   3.357  13.419
 3964SOL     OW13788   9.986  13.197  14.447
 3964SOL    HW113789   9.990  13.286  14.483
 3964SOL    HW213790  10.053  13.197  14.378
 3965SOL     OW13791   1.310   0.582   6.064
 3965SOL    HW113792   1.385   0.641   6.052
 3965SOL    HW213793   1.327   0.509   6.005
 3966SOL     OW13794   9.424   3.901  12.514
 3966SOL    HW113795   9.454   3.858  12.594
 3966SOL    HW213796   9.494   3.884  12.451
 3967SOL     OW13797  11.994   0.411   5.052
 3967SOL    HW113798  12.047   0.395   4.973
 3967SOL    HW213799  12.015   0.337   5.109
 3968SOL     OW13800  11.358   9.251   8.185
 3968SOL    HW113801  11.315   9.285   8.263
 3968SOL    HW213802  11.421   9.319   8.161
 3969SOL     OW13803  10.347   2.170  11.182
 3969SOL    HW113804  10.264   2.183  11.226
 3969SOL    HW213805  10.406   2.234  11.221
 3970SOL     OW13806   9.211   8.623  12.500
 3970SOL    HW113807   9.212   8.695  12.564
 3970SOL    HW213808   9.303   8.597  12.494
 3971SOL     OW13809  10.483  13.523   5.262
 3971SOL    HW113810  10.503  13.431   5.242
 3971SOL    HW213811  10.529  13.540   5.344
 3972SOL     OW13812   2.753   1.270   7.195
 3972SOL    HW113813   2.752   1.200   7.261
 3972SOL    HW213814   2.817   1.240   7.130
 3973SOL     OW13815   0.344  10.401  11.223
 3973SOL    HW113816   0.352  10.366  11.311
 3973SOL    HW213817   0.371  10.330  11.165
 3974SOL     OW13818   4.785   7.786   4.827
 3974SOL    HW113819   4.755   7.855   4.768
 3974SOL    HW213820   4.845   7.830   4.887
 3975SOL     OW13821  10.008   9.454   6.892
 3975SOL    HW113822   9.923   9.456   6.936
 3975SOL    HW213823  10.072   9.450   6.963
 3976SOL     OW13824   9.388   9.889   5.701
 3976SOL    HW113825   9.471   9.901   5.655
 3976SOL    HW213826   9.343   9.819   5.653
 3977SOL     OW13827  14.804  13.114   7.811
 3977SOL    HW113828  14.825  13.057   7.737
 3977SOL    HW213829  14.715  13.144   7.792
 3978SOL     OW13830  11.079   7.680   5.531
 3978SOL    HW113831  11.148   7.651   5.591
 3978SOL    HW213832  11.065   7.772   5.553
 3979SOL     OW13833   5.632   4.282  11.525
 3979SOL    HW113834   5.710   4.253  11.478
 3979SOL    HW213835   5.655   4.275  11.618
 3980SOL     OW13836   4.626   7.565   8.381
 3980SOL    HW113837   4.721   7.565   8.394
 3980SOL    HW213838   4.615   7.539   8.290
 3981SOL     OW13839   1.354   9.337   6.249
 3981SOL    HW113840   1.266   9.311   6.275
 3981SOL    HW213841   1.352   9.433   6.249
 3982SOL     OW13842   7.547  10.432  12.645
 3982SOL    HW113843   7.517  10.352  12.602
 3982SOL    HW213844   7.467  10.469  12.684
 3983SOL     OW13845   9.766  13.510   3.069
 3983SOL    HW113846   9.722  13.425   3.058
 3983SOL    HW213847   9.803  13.506   3.157
 3984SOL     OW13848  11.580   2.408   3.456
 3984SOL    HW113849  11.601   2.487   3.505
 3984SOL    HW213850  11.517   2.362   3.512
 3985SOL     OW13851  12.646  13.158   5.578
 3985SOL    HW113852  12.600  13.140   5.660
 3985SOL    HW213853  12.577  13.172   5.514
 3986SOL     OW13854  11.694   9.039   9.529
 3986SOL    HW113855  11.744   9.033   9.610
 3986SOL    HW213856  11.631   8.967   9.534
 3987SOL     OW13857   1.290  11.871  10.282
 3987SOL    HW113858   1.384  11.870  10.263
 3987SOL    HW213859   1.250  11.898  10.199
 3988SOL     OW13860  14.590   6.718   5.696
 3988SOL    HW113861  14.572   6.735   5.789
 3988SOL    HW213862  14.652   6.786   5.671
 3989SOL     OW13863   5.475  13.251   1.834
 3989SOL    HW113864   5.404  13.218   1.888
 3989SOL    HW213865   5.432  13.294   1.760
 3990SOL     OW13866   9.622   0.384   1.244
 3990SOL    HW113867   9.596   0.456   1.187
 3990SOL    HW213868   9.596   0.412   1.332
 3991SOL     OW13869  10.771   6.804  13.401
 3991SOL    HW113870  10.706   6.737  13.422
 3991SOL    HW213871  10.840   6.793  13.466
 3992SOL     OW13872  13.367   8.716   4.431
 3992SOL    HW113873  13.316   8.689   4.507
 3992SOL    HW213874  13.423   8.786   4.463
 3993SOL     OW13875   7.455   6.638  13.578
 3993SOL    HW113876   7.407   6.558  13.555
 3993SOL    HW213877   7.401   6.709  13.542
 3994SOL     OW13878   7.078  14.813  12.476
 3994SOL    HW113879   7.142  14.801  12.405
 3994SOL    HW213880   7.008  14.865  12.437
 3995SOL     OW13881   8.072   0.495   5.204
 3995SOL    HW113882   8.086   0.582   5.166
 3995SOL    HW213883   8.064   0.512   5.298
 3996SOL     OW13884  10.765  13.089   2.835
 3996SOL    HW113885  10.680  13.077   2.794
 3996SOL    HW213886  10.818  13.132   2.768
 3997SOL     OW13887  14.362   7.355   3.439
 3997SOL    HW113888  14.328   7.291   3.376
 3997SOL    HW213889  14.456   7.338   3.441
 3998SOL     OW13890  12.129  14.509   3.871
 3998SOL    HW113891  12.091  14.596   3.883
 3998SOL    HW213892  12.086  14.454   3.937
 3999SOL     OW13893   2.745  14.448   3.864
 3999SOL    HW113894   2.735  14.483   3.953
 3999SOL    HW213895   2.840  14.439   3.853
 4000SOL     OW13896  13.849   1.337  11.832
 4000SOL    HW113897  13.847   1.265  11.895
 4000SOL    HW213898  13.876   1.296  11.750
 4001SOL     OW13899   0.578   0.752  12.951
 4001SOL    HW113900   0.489   0.780  12.972
 4001SOL    HW213901   0.633   0.796  13.015
 4002SOL     OW13902   4.075   9.440   3.152
 4002SOL    HW113903   4.104   9.522   3.191
 4002SOL    HW213904   4.096   9.373   3.217
 4003SOL     OW13905   4.072   6.135  10.249
 4003SOL    HW113906   4.131   6.201  10.213
 4003SOL    HW213907   4.126   6.085  10.310
 4004SOL     OW13908  13.179   9.260   0.417
 4004SOL    HW113909  13.152   9.285   0.505
 4004SOL    HW213910  13.185   9.164   0.420
 4005SOL     OW13911  11.244   9.526  13.254
 4005SOL    HW113912  11.276   9.530  13.344
 4005SOL    HW213913  11.164   9.578  13.254
 4006SOL     OW13914  11.881   7.830   9.431
 4006SOL    HW113915  11.912   7.748   9.469
 4006SOL    HW213916  11.956   7.865   9.383
 4007SOL     OW13917   5.613   0.599   3.154
 4007SOL    HW113918   5.539   0.538   3.156
 4007SOL    HW213919   5.690   0.544   3.140
 4008SOL     OW13920   7.347   6.117   5.406
 4008SOL    HW113921   7.317   6.186   5.466
 4008SOL    HW213922   7.277   6.052   5.408
 4009SOL     OW13923   1.911   0.710   1.360
 4009SOL    HW113924   1.852   0.758   1.418
 4009SOL    HW213925   1.854   0.657   1.305
 4010SOL     OW13926   7.252  13.369   0.431
 4010SOL    HW113927   7.340  13.402   0.441
 4010SOL    HW213928   7.221  13.353   0.520
 4011SOL     OW13929   5.710   7.584   8.875
 4011SOL    HW113930   5.763   7.653   8.915
 4011SOL    HW213931   5.707   7.607   8.782
 4012SOL     OW13932   1.823   7.763   0.611
 4012SOL    HW113933   1.762   7.835   0.628
 4012SOL    HW213934   1.768   7.684   0.612
 4013SOL     OW13935   2.239  10.573   7.925
 4013SOL    HW113936   2.305  10.642   7.935
 4013SOL    HW213937   2.252  10.539   7.837
 4014SOL     OW13938   1.147   8.359   3.373
 4014SOL    HW113939   1.082   8.325   3.312
 4014SOL    HW213940   1.228   8.313   3.352
 4015SOL     OW13941   4.240  13.296   9.778
 4015SOL    HW113942   4.279  13.244   9.848
 4015SOL    HW213943   4.238  13.385   9.812
 4016SOL     OW13944   1.125   8.325  11.866
 4016SOL    HW113945   1.115   8.398  11.804
 4016SOL    HW213946   1.210   8.340  11.906
 4017SOL     OW13947  12.536   7.448  10.887
 4017SOL    HW113948  12.519   7.467  10.979
 4017SOL    HW213949  12.602   7.512  10.861
 4018SOL     OW13950  12.401  14.557   9.922
 4018SOL    HW113951  12.320  14.605   9.937
 4018SOL    HW213952  12.466  14.602   9.976
 4019SOL     OW13953  10.438   5.084  14.756
 4019SOL    HW113954  10.494   5.161  14.747
 4019SOL    HW213955  10.449   5.058  14.847
 4020SOL     OW13956   2.804  11.049   4.802
 4020SOL    HW113957   2.775  11.074   4.713
 4020SOL    HW213958   2.807  11.132   4.849
 4021SOL     OW13959   2.070  12.627  14.097
 4021SOL    HW113960   2.007  12.647  14.167
 4021SOL    HW213961   2.072  12.707  14.045
 4022SOL     OW13962  14.758   7.907   8.542
 4022SOL    HW113963  14.813   7.890   8.466
 4022SOL    HW213964  14.819   7.938   8.609
 4023SOL     OW13965   6.786   0.870   0.652
 4023SOL    HW113966   6.826   0.850   0.567
 4023SOL    HW213967   6.844   0.830   0.716
 4024SOL     OW13968   1.581   7.786   1.508
 4024SOL    HW113969   1.617   7.729   1.576
 4024SOL    HW213970   1.486   7.771   1.514
 4025SOL     OW13971   8.991   1.375   7.052
 4025SOL    HW113972   8.963   1.303   7.110
 4025SOL    HW213973   9.069   1.409   7.094
 4026SOL     OW13974   2.387   0.710   1.690
 4026SOL    HW113975   2.333   0.786   1.667
 4026SOL    HW213976   2.434   0.688   1.610
 4027SOL     OW13977  12.816   8.297   3.309
 4027SOL    HW113978  12.784   8.257   3.390
 4027SOL    HW213979  12.905   8.325   3.330
 4028SOL     OW13980   8.147   2.367   1.832
 4028SOL    HW113981   8.095   2.402   1.760
 4028SOL    HW213982   8.215   2.315   1.790
 4029SOL     OW13983  11.986  10.331   8.921
 4029SOL    HW113984  12.081  10.334   8.926
 4029SOL    HW213985  11.959  10.277   8.995
 4030SOL     OW13986   4.630  11.841  10.914
 4030SOL    HW113987   4.667  11.929  10.918
 4030SOL    HW213988   4.566  11.845  10.843
 4031SOL     OW13989   5.001  10.107  14.197
 4031SOL    HW113990   5.045  10.191  14.184
 4031SOL    HW213991   5.068  10.052  14.238
 4032SOL     OW13992   8.991   8.868   6.153
 4032SOL    HW113993   8.986   8.847   6.060
 4032SOL    HW213994   8.953   8.955   6.160
 4033SOL     OW13995   9.789   7.494   4.325
 4033SOL    HW113996   9.727   7.515   4.395
 4033SOL    HW213997   9.872   7.532   4.355
 4034SOL     OW13998   0.645   8.623   9.850
 4034SOL    HW113999   0.586   8.550   9.867
 4034SOL    HW214000   0.728   8.596   9.889
 4035SOL     OW14001  13.596   0.737   7.162
 4035SOL    HW114002  13.584   0.709   7.072
 4035SOL    HW214003  13.540   0.813   7.172
 4036SOL     OW14004   7.347   1.677   0.556
 4036SOL    HW114005   7.347   1.596   0.606
 4036SOL    HW214006   7.293   1.738   0.607
 4037SOL     OW14007   0.511  13.588   9.713
 4037SOL    HW114008   0.576  13.655   9.693
 4037SOL    HW214009   0.447  13.594   9.642
 4038SOL     OW14010  10.030  13.140   7.540
 4038SOL    HW114011  10.016  13.109   7.450
 4038SOL    HW214012  10.104  13.090   7.571
 4039SOL     OW14013   5.531   6.478   5.452
 4039SOL    HW114014   5.521   6.467   5.546
 4039SOL    HW214015   5.620   6.512   5.441
 4040SOL     OW14016   2.146   7.898  13.325
 4040SOL    HW114017   2.083   7.969  13.338
 4040SOL    HW214018   2.092   7.823  13.298
 4041SOL     OW14019   5.822  10.624  10.272
 4041SOL    HW114020   5.871  10.594  10.196
 4041SOL    HW214021   5.824  10.720  10.265
 4042SOL     OW14022   2.434  11.357   1.068
 4042SOL    HW114023   2.409  11.423   1.003
 4042SOL    HW214024   2.355  11.306   1.083
 4043SOL     OW14025   1.760  11.901   6.690
 4043SOL    HW114026   1.670  11.884   6.719
 4043SOL    HW214027   1.777  11.833   6.624
 4044SOL     OW14028   1.090   3.114   0.095
 4044SOL    HW114029   1.085   3.114   0.190
 4044SOL    HW214030   1.176   3.154   0.076
 4045SOL     OW14031   2.552  13.618   5.155
 4045SOL    HW114032   2.561  13.700   5.205
 4045SOL    HW214033   2.506  13.644   5.075
 4046SOL     OW14034   9.107  12.607   1.310
 4046SOL    HW114035   9.022  12.564   1.301
 4046SOL    HW214036   9.163  12.542   1.353
 4047SOL     OW14037  14.030   4.778  11.900
 4047SOL    HW114038  14.078   4.827  11.833
 4047SOL    HW214039  14.075   4.694  11.905
 4048SOL     OW14040  10.016   6.117   1.642
 4048SOL    HW114041   9.957   6.133   1.568
 4048SOL    HW214042  10.077   6.051   1.609
 4049SOL     OW14043   2.184  14.363  13.144
 4049SOL    HW114044   2.200  14.457  13.135
 4049SOL    HW214045   2.271  14.324  13.152
 4050SOL     OW14046  12.365   0.016   6.363
 4050SOL    HW114047  12.316   0.004   6.444
 4050SOL    HW214048  12.356  14.801   6.318
 4051SOL     OW14049   1.749   6.147   2.887
 4051SOL    HW114050   1.775   6.204   2.815
 4051SOL    HW214051   1.685   6.087   2.849
 4052SOL     OW14052  14.238   2.877   0.826
 4052SOL    HW114053  14.222   2.837   0.741
 4052SOL    HW214054  14.207   2.811   0.889
 4053SOL     OW14055   0.664   5.672   6.115
 4053SOL    HW114056   0.574   5.666   6.085
 4053SOL    HW214057   0.717   5.668   6.035
 4054SOL     OW14058  12.091   6.543   1.236
 4054SOL    HW114059  12.098   6.552   1.331
 4054SOL    HW214060  12.105   6.449   1.220
 4055SOL     OW14061   4.770   6.907   5.106
 4055SOL    HW114062   4.730   6.930   5.189
 4055SOL    HW214063   4.830   6.979   5.086
 4056SOL     OW14064   8.468  10.818  12.796
 4056SOL    HW114065   8.430  10.905  12.789
 4056SOL    HW214066   8.554  10.833  12.837
 4057SOL     OW14067   4.019   6.743   3.066
 4057SOL    HW114068   4.052   6.774   3.150
 4057SOL    HW214069   3.937   6.791   3.054
 4058SOL     OW14070  13.365   9.943   4.086
 4058SOL    HW114071  13.350   9.911   4.174
 4058SOL    HW214072  13.343  10.036   4.090
 4059SOL     OW14073  11.680   7.826   7.715
 4059SOL    HW114074  11.628   7.747   7.730
 4059SOL    HW214075  11.619   7.887   7.674
 4060SOL     OW14076   3.750   1.567   6.051
 4060SOL    HW114077   3.705   1.515   6.118
 4060SOL    HW214078   3.737   1.519   5.970
 4061SOL     OW14079   6.597   4.764   3.087
 4061SOL    HW114080   6.580   4.707   3.161
 4061SOL    HW214081   6.647   4.710   3.025
 4062SOL     OW14082   0.853   8.523  10.020
 4062SOL    HW114083   0.878   8.433  10.039
 4062SOL    HW214084   0.924   8.576  10.058
 4063SOL     OW14085  12.855   7.124  11.321
 4063SOL    HW114086  12.913   7.197  11.343
 4063SOL    HW214087  12.911   7.046  11.326
 4064SOL     OW14088  11.349  12.112  13.931
 4064SOL    HW114089  11.291  12.036  13.935
 4064SOL    HW214090  11.318  12.162  13.855
 4065SOL     OW14091   2.643  10.716  13.198
 4065SOL    HW114092   2.641  10.806  13.231
 4065SOL    HW214093   2.666  10.663  13.275
 4066SOL     OW14094   6.991   0.547   9.331
 4066SOL    HW114095   6.922   0.554   9.397
 4066SOL    HW214096   6.989   0.455   9.304
 4067SOL     OW14097  13.479  12.126   2.235
 4067SOL    HW114098  13.487  12.197   2.299
 4067SOL    HW214099  13.526  12.158   2.158
 4068SOL     OW14100  10.367   8.604  10.617
 4068SOL    HW114101  10.457   8.604  10.585
 4068SOL    HW214102  10.322   8.538  10.563
 4069SOL     OW14103  10.818   5.833   1.736
 4069SOL    HW114104  10.799   5.900   1.670
 4069SOL    HW214105  10.743   5.837   1.796
 4070SOL     OW14106   6.223  11.537   2.921
 4070SOL    HW114107   6.268  11.471   2.868
 4070SOL    HW214108   6.245  11.513   3.012
 4071SOL     OW14109   2.207   8.932  11.442
 4071SOL    HW114110   2.134   8.951  11.501
 4071SOL    HW214111   2.251   8.857  11.483
 4072SOL     OW14112   9.162   9.963  12.910
 4072SOL    HW114113   9.141   9.993  12.999
 4072SOL    HW214114   9.238   9.906  12.922
 4073SOL     OW14115   9.871   0.525   1.857
 4073SOL    HW114116   9.859   0.619   1.874
 4073SOL    HW214117   9.892   0.488   1.943
 4074SOL     OW14118   7.911  13.379   1.990
 4074SOL    HW114119   7.948  13.364   1.903
 4074SOL    HW214120   7.817  13.364   1.978
 4075SOL     OW14121   7.740   6.179  10.529
 4075SOL    HW114122   7.805   6.109  10.530
 4075SOL    HW214123   7.777   6.248  10.584
 4076SOL     OW14124   6.691  12.493  10.308
 4076SOL    HW114125   6.785  12.512  10.306
 4076SOL    HW214126   6.659  12.534  10.388
 4077SOL     OW14127   5.444   0.178   4.154
 4077SOL    HW114128   5.353   0.149   4.145
 4077SOL    HW214129   5.479   0.127   4.226
 4078SOL     OW14130   6.987   8.933  11.173
 4078SOL    HW114131   6.916   8.905  11.231
 4078SOL    HW214132   6.962   9.022  11.146
 4079SOL     OW14133   1.693   2.830   7.616
 4079SOL    HW114134   1.726   2.872   7.536
 4079SOL    HW214135   1.611   2.875   7.635
 4080SOL     OW14136   5.200   7.524  14.451
 4080SOL    HW114137   5.193   7.553  14.542
 4080SOL    HW214138   5.288   7.487  14.444
 4081SOL     OW14139   1.565   1.222   7.191
 4081SOL    HW114140   1.645   1.170   7.203
 4081SOL    HW214141   1.520   1.179   7.118
 4082SOL     OW14142   8.720  11.529   9.993
 4082SOL    HW114143   8.644  11.471   9.995
 4082SOL    HW214144   8.716  11.577  10.075
 4083SOL     OW14145   9.515  10.319  10.533
 4083SOL    HW114146   9.427  10.287  10.551
 4083SOL    HW214147   9.570  10.280  10.600
 4084SOL     OW14148  12.593  10.821  10.025
 4084SOL    HW114149  12.681  10.790  10.047
 4084SOL    HW214150  12.607  10.904   9.980
 4085SOL     OW14151   0.815   3.840   6.389
 4085SOL    HW114152   0.734   3.797   6.417
 4085SOL    HW214153   0.880   3.811   6.453
 4086SOL     OW14154   8.760  12.207   7.366
 4086SOL    HW114155   8.853  12.207   7.388
 4086SOL    HW214156   8.725  12.284   7.411
 4087SOL     OW14157   9.072   1.671   9.763
 4087SOL    HW114158   8.993   1.638   9.805
 4087SOL    HW214159   9.041   1.721   9.688
 4088SOL     OW14160   0.972   1.194  11.753
 4088SOL    HW114161   0.946   1.267  11.696
 4088SOL    HW214162   0.983   1.120  11.694
 4089SOL     OW14163   6.104   5.079   3.390
 4089SOL    HW114164   6.194   5.047   3.389
 4089SOL    HW214165   6.050   5.000   3.395
 4090SOL     OW14166   8.784   9.266   9.058
 4090SOL    HW114167   8.835   9.252   8.978
 4090SOL    HW214168   8.741   9.182   9.074
 4091SOL     OW14169   6.282  13.844   9.654
 4091SOL    HW114170   6.195  13.873   9.628
 4091SOL    HW214171   6.337  13.861   9.577
 4092SOL     OW14172   4.580   0.783   1.636
 4092SOL    HW114173   4.647   0.748   1.577
 4092SOL    HW214174   4.576   0.877   1.616
 4093SOL     OW14175   0.506   6.399  13.968
 4093SOL    HW114176   0.545   6.483  13.991
 4093SOL    HW214177   0.580   6.340  13.957
 4094SOL     OW14178   8.184  11.202   0.230
 4094SOL    HW114179   8.092  11.212   0.254
 4094SOL    HW214180   8.233  11.241   0.302
 4095SOL     OW14181   6.368   5.108   4.820
 4095SOL    HW114182   6.280   5.096   4.855
 4095SOL    HW214183   6.356   5.161   4.741
 4096SOL     OW14184   6.856  11.161   8.012
 4096SOL    HW114185   6.765  11.134   8.025
 4096SOL    HW214186   6.893  11.163   8.100
 4097SOL     OW14187   2.510   7.483   4.095
 4097SOL    HW114188   2.546   7.454   4.179
 4097SOL    HW214189   2.560   7.435   4.029
 4098SOL     OW14190  12.265   8.076  11.643
 4098SOL    HW114191  12.294   7.998  11.691
 4098SOL    HW214192  12.294   8.150  11.696
 4099SOL     OW14193   2.253   3.576  10.554
 4099SOL    HW114194   2.317   3.620  10.610
 4099SOL    HW214195   2.234   3.494  10.599
 4100SOL     OW14196   1.577  12.700   5.062
 4100SOL    HW114197   1.507  12.761   5.086
 4100SOL    HW214198   1.600  12.724   4.973
 4101SOL     OW14199   9.756   6.172   0.273
 4101SOL    HW114200   9.666   6.203   0.285
 4101SOL    HW214201   9.770   6.112   0.347
 4102SOL     OW14202   1.736   5.474   5.445
 4102SOL    HW114203   1.663   5.522   5.406
 4102SOL    HW214204   1.799   5.462   5.373
 4103SOL     OW14205   8.421   9.396   2.444
 4103SOL    HW114206   8.446   9.479   2.402
 4103SOL    HW214207   8.429   9.331   2.374
 4104SOL     OW14208  11.658   1.752  12.884
 4104SOL    HW114209  11.641   1.742  12.790
 4104SOL    HW214210  11.615   1.676  12.924
 4105SOL     OW14211   9.139   4.589   4.195
 4105SOL    HW114212   9.122   4.650   4.122
 4105SOL    HW214213   9.055   4.546   4.210
 4106SOL     OW14214   1.168   3.274   9.805
 4106SOL    HW114215   1.121   3.351   9.835
 4106SOL    HW214216   1.259   3.304   9.795
 4107SOL     OW14217   6.939  12.364   1.938
 4107SOL    HW114218   6.909  12.319   1.858
 4107SOL    HW214219   6.870  12.348   2.002
 4108SOL     OW14220   6.178   3.411  14.458
 4108SOL    HW114221   6.135   3.326  14.458
 4108SOL    HW214222   6.271   3.390  14.470
 4109SOL     OW14223   9.408   2.727   7.266
 4109SOL    HW114224   9.383   2.651   7.320
 4109SOL    HW214225   9.461   2.781   7.324
 4110SOL     OW14226   0.471   5.700   7.869
 4110SOL    HW114227   0.529   5.775   7.882
 4110SOL    HW214228   0.495   5.665   7.783
 4111SOL     OW14229   0.366   0.247   3.253
 4111SOL    HW114230   0.355   0.328   3.203
 4111SOL    HW214231   0.461   0.239   3.264
 4112SOL     OW14232   7.199   0.359  13.069
 4112SOL    HW114233   7.105   0.372  13.059
 4112SOL    HW214234   7.213   0.358  13.163
 4113SOL     OW14235  13.726   0.254   2.692
 4113SOL    HW114236  13.717   0.310   2.615
 4113SOL    HW214237  13.737   0.166   2.657
 4114SOL     OW14238  10.318  13.088   3.424
 4114SOL    HW114239  10.309  13.102   3.518
 4114SOL    HW214240  10.267  13.158   3.384
 4115SOL     OW14241   8.998   7.879   2.765
 4115SOL    HW114242   9.092   7.864   2.761
 4115SOL    HW214243   8.959   7.793   2.750
 4116SOL     OW14244   8.683   9.320   1.959
 4116SOL    HW114245   8.640   9.234   1.956
 4116SOL    HW214246   8.768   9.302   1.999
 4117SOL     OW14247   7.164   3.454   5.093
 4117SOL    HW114248   7.083   3.502   5.073
 4117SOL    HW214249   7.185   3.478   5.183
 4118SOL     OW14250   7.048   1.116   8.512
 4118SOL    HW114251   6.953   1.122   8.508
 4118SOL    HW214252   7.069   1.032   8.471
 4119SOL     OW14253   4.290   9.439   8.930
 4119SOL    HW114254   4.299   9.533   8.944
 4119SOL    HW214255   4.278   9.431   8.835
 4120SOL     OW14256  10.328   6.622   4.188
 4120SOL    HW114257  10.265   6.570   4.139
 4120SOL    HW214258  10.320   6.590   4.278
 4121SOL     OW14259   4.406   3.084   5.319
 4121SOL    HW114260   4.435   3.111   5.232
 4121SOL    HW214261   4.469   3.016   5.345
 4122SOL     OW14262   0.502   0.656   1.508
 4122SOL    HW114263   0.525   0.565   1.525
 4122SOL    HW214264   0.506   0.698   1.594
 4123SOL     OW14265   4.069  14.623   0.513
 4123SOL    HW114266   4.032  14.570   0.584
 4123SOL    HW214267   3.994  14.672   0.478
 4124SOL     OW14268   6.298   7.728   8.103
 4124SOL    HW114269   6.385   7.702   8.072
 4124SOL    HW214270   6.300   7.824   8.101
 4125SOL     OW14271  12.044  13.173   7.310
 4125SOL    HW114272  12.060  13.214   7.395
 4125SOL    HW214273  11.952  13.149   7.313
 4126SOL     OW14274   5.418  12.751  14.618
 4126SOL    HW114275   5.499  12.740  14.569
 4126SOL    HW214276   5.410  12.671  14.671
 4127SOL     OW14277   4.360   1.789   4.273
 4127SOL    HW114278   4.313   1.705   4.273
 4127SOL    HW214279   4.345   1.824   4.185
 4128SOL     OW14280   9.207   8.834  14.205
 4128SOL    HW114281   9.295   8.835  14.169
 4128SOL    HW214282   9.213   8.777  14.282
 4129SOL     OW14283  12.475   9.998  14.416
 4129SOL    HW114284  12.380  10.008  14.408
 4129SOL    HW214285  12.498   9.933  14.350
 4130SOL     OW14286  12.954  11.627   7.153
 4130SOL    HW114287  12.961  11.693   7.085
 4130SOL    HW214288  12.880  11.572   7.126
 4131SOL     OW14289   2.349   4.142   4.301
 4131SOL    HW114290   2.326   4.059   4.260
 4131SOL    HW214291   2.434   4.164   4.264
 4132SOL     OW14292   1.470  14.716   9.322
 4132SOL    HW114293   1.395  14.704   9.263
 4132SOL    HW214294   1.475  14.811   9.334
 4133SOL     OW14295  12.583  12.203   5.828
 4133SOL    HW114296  12.549  12.151   5.755
 4133SOL    HW214297  12.585  12.292   5.795
 4134SOL     OW14298   6.353   4.662   6.553
 4134SOL    HW114299   6.350   4.566   6.559
 4134SOL    HW214300   6.262   4.688   6.541
 4135SOL     OW14301   7.079   6.536   3.801
 4135SOL    HW114302   7.012   6.604   3.800
 4135SOL    HW214303   7.142   6.563   3.735
 4136SOL     OW14304   3.094   0.876   9.352
 4136SOL    HW114305   3.158   0.874   9.280
 4136SOL    HW214306   3.147   0.888   9.430
 4137SOL     OW14307   4.935   7.103   6.769
 4137SOL    HW114308   4.906   7.097   6.860
 4137SOL    HW214309   5.031   7.095   6.774
 4138SOL     OW14310   8.182   0.593  14.598
 4138SOL    HW114311   8.188   0.571  14.505
 4138SOL    HW214312   8.256   0.547  14.638
 4139SOL     OW14313   1.206   5.161   8.560
 4139SOL    HW114314   1.223   5.210   8.480
 4139SOL    HW214315   1.252   5.210   8.628
 4140SOL     OW14316  10.248   7.730  10.610
 4140SOL    HW114317  10.259   7.638  10.586
 4140SOL    HW214318  10.231   7.727  10.704
 4141SOL     OW14319  10.318  10.340  13.606
 4141SOL    HW114320  10.229  10.303  13.602
 4141SOL    HW214321  10.304  10.433  13.622
 4142SOL     OW14322   7.520   3.956   3.100
 4142SOL    HW114323   7.521   3.903   3.019
 4142SOL    HW214324   7.432   3.942   3.136
 4143SOL     OW14325   2.525  11.310  12.360
 4143SOL    HW114326   2.479  11.227  12.351
 4143SOL    HW214327   2.560  11.327  12.272
 4144SOL     OW14328  12.726  10.598  11.609
 4144SOL    HW114329  12.729  10.661  11.538
 4144SOL    HW214330  12.786  10.632  11.675
 4145SOL     OW14331  10.349   5.294   0.726
 4145SOL    HW114332  10.385   5.240   0.796
 4145SOL    HW214333  10.409   5.280   0.652
 4146SOL     OW14334   6.665   4.599   6.691
 4146SOL    HW114335   6.669   4.604   6.595
 4146SOL    HW214336   6.589   4.652   6.714
 4147SOL     OW14337   7.694   4.839   3.405
 4147SOL    HW114338   7.624   4.874   3.349
 4147SOL    HW214339   7.775   4.863   3.359
 4148SOL     OW14340  12.874  10.186   7.098
 4148SOL    HW114341  12.883  10.229   7.013
 4148SOL    HW214342  12.848  10.256   7.158
 4149SOL     OW14343  12.128  10.788   0.547
 4149SOL    HW114344  12.154  10.835   0.468
 4149SOL    HW214345  12.034  10.772   0.535
 4150SOL     OW14346   8.595   4.042  11.728
 4150SOL    HW114347   8.586   4.131  11.696
 4150SOL    HW214348   8.526   3.993  11.682
 4151SOL     OW14349   7.460   2.920   3.956
 4151SOL    HW114350   7.473   2.929   3.862
 4151SOL    HW214351   7.459   3.010   3.989
 4152SOL     OW14352   7.544  11.718   8.556
 4152SOL    HW114353   7.561  11.666   8.634
 4152SOL    HW214354   7.538  11.808   8.589
 4153SOL     OW14355  10.254   6.373   5.696
 4153SOL    HW114356  10.185   6.312   5.671
 4153SOL    HW214357  10.290   6.337   5.777
 4154SOL     OW14358   9.762   9.548   3.578
 4154SOL    HW114359   9.825   9.565   3.648
 4154SOL    HW214360   9.738   9.456   3.588
 4155SOL     OW14361  13.916  12.897  11.136
 4155SOL    HW114362  14.002  12.936  11.152
 4155SOL    HW214363  13.922  12.863  11.046
 4156SOL     OW14364   2.641  12.925  10.744
 4156SOL    HW114365   2.675  12.847  10.787
 4156SOL    HW214366   2.696  12.935  10.666
 4157SOL     OW14367   0.241  10.441  13.559
 4157SOL    HW114368   0.284  10.359  13.582
 4157SOL    HW214369   0.156  10.437  13.604
 4158SOL     OW14370   0.402   8.668  14.354
 4158SOL    HW114371   0.329   8.730  14.345
 4158SOL    HW214372   0.467   8.699  14.291
 4159SOL     OW14373  14.258   9.207   5.390
 4159SOL    HW114374  14.264   9.157   5.472
 4159SOL    HW214375  14.199   9.279   5.409
 4160SOL     OW14376  11.171  14.125   7.406
 4160SOL    HW114377  11.203  14.046   7.451
 4160SOL    HW214378  11.174  14.193   7.473
 4161SOL     OW14379   5.653   2.741   6.357
 4161SOL    HW114380   5.591   2.699   6.297
 4161SOL    HW214381   5.676   2.673   6.419
 4162SOL     OW14382   7.035  11.713   6.424
 4162SOL    HW114383   7.060  11.726   6.332
 4162SOL    HW214384   7.112  11.737   6.474
 4163SOL     OW14385  14.590   4.960   6.105
 4163SOL    HW114386  14.641   4.882   6.128
 4163SOL    HW214387  14.499   4.929   6.102
 4164SOL     OW14388   1.931  11.030   2.167
 4164SOL    HW114389   1.938  11.126   2.166
 4164SOL    HW214390   1.844  11.012   2.132
 4165SOL     OW14391   1.257  12.918  13.046
 4165SOL    HW114392   1.242  12.993  12.988
 4165SOL    HW214393   1.241  12.841  12.991
 4166SOL     OW14394  14.353   8.531   9.282
 4166SOL    HW114395  14.378   8.441   9.265
 4166SOL    HW214396  14.281   8.548   9.221
 4167SOL     OW14397   0.267  10.748   5.217
 4167SOL    HW114398   0.181  10.775   5.184
 4167SOL    HW214399   0.296  10.822   5.271
 4168SOL     OW14400  11.693  13.143  13.258
 4168SOL    HW114401  11.730  13.106  13.178
 4168SOL    HW214402  11.616  13.192  13.228
 4169SOL     OW14403   8.332   8.788  11.781
 4169SOL    HW114404   8.319   8.696  11.804
 4169SOL    HW214405   8.272   8.803  11.708
 4170SOL     OW14406  14.192  14.469  13.398
 4170SOL    HW114407  14.135  14.399  13.430
 4170SOL    HW214408  14.136  14.546  13.397
 4171SOL     OW14409  13.036  10.602  13.103
 4171SOL    HW114410  12.965  10.588  13.041
 4171SOL    HW214411  12.993  10.635  13.182
 4172SOL     OW14412   7.476   5.171   1.521
 4172SOL    HW114413   7.568   5.189   1.501
 4172SOL    HW214414   7.442   5.253   1.557
 4173SOL     OW14415   2.935   1.441   8.483
 4173SOL    HW114416   2.844   1.468   8.494
 4173SOL    HW214417   2.986   1.520   8.504
 4174SOL     OW14418  11.576  10.754  13.453
 4174SOL    HW114419  11.560  10.794  13.368
 4174SOL    HW214420  11.671  10.757  13.463
 4175SOL     OW14421  11.009  10.147   0.909
 4175SOL    HW114422  10.964  10.158   0.825
 4175SOL    HW214423  11.027  10.053   0.914
 4176SOL     OW14424   3.173  10.228  10.484
 4176SOL    HW114425   3.113  10.302  10.496
 4176SOL    HW214426   3.259  10.268  10.472
 4177SOL     OW14427  11.731   8.290  12.009
 4177SOL    HW114428  11.711   8.374  12.051
 4177SOL    HW214429  11.668   8.284  11.937
 4178SOL     OW14430   7.750   3.458   4.238
 4178SOL    HW114431   7.725   3.550   4.225
 4178SOL    HW214432   7.676   3.420   4.286
 4179SOL     OW14433   9.518   5.454  11.719
 4179SOL    HW114434   9.598   5.504  11.705
 4179SOL    HW214435   9.483   5.440  11.631
 4180SOL     OW14436   2.602   9.303  11.202
 4180SOL    HW114437   2.537   9.360  11.160
 4180SOL    HW214438   2.557   9.218  11.209
 4181SOL     OW14439  14.428  10.714  14.238
 4181SOL    HW114440  14.362  10.752  14.180
 4181SOL    HW214441  14.377  10.663  14.301
 4182SOL     OW14442   2.081  10.019  12.760
 4182SOL    HW114443   2.004   9.977  12.798
 4182SOL    HW214444   2.155   9.967  12.791
 4183SOL     OW14445   8.702   8.514  10.831
 4183SOL    HW114446   8.689   8.575  10.759
 4183SOL    HW214447   8.630   8.533  10.892
 4184SOL     OW14448  12.713   9.476  14.653
 4184SOL    HW114449  12.763   9.527  14.590
 4184SOL    HW214450  12.740   9.386  14.639
 4185SOL     OW14451   2.768   2.955  10.034
 4185SOL    HW114452   2.697   3.005   9.993
 4185SOL    HW214453   2.754   2.865  10.005
 4186SOL     OW14454   6.328  13.525  14.297
 4186SOL    HW114455   6.404  13.498  14.348
 4186SOL    HW214456   6.270  13.448  14.297
 4187SOL     OW14457  12.086   2.740   8.585
 4187SOL    HW114458  12.144   2.694   8.524
 4187SOL    HW214459  11.999   2.731   8.545
 4188SOL     OW14460  13.995  11.816  14.512
 4188SOL    HW114461  13.906  11.850  14.515
 4188SOL    HW214462  14.018  11.800  14.603
 4189SOL     OW14463   0.314   3.607  10.450
 4189SOL    HW114464   0.251   3.643  10.388
 4189SOL    HW214465   0.289   3.515  10.458
 4190SOL     OW14466   9.990   9.552   2.956
 4190SOL    HW114467  10.043   9.537   2.878
 4190SOL    HW214468  10.042   9.515   3.027
 4191SOL     OW14469   3.224  12.605   6.109
 4191SOL    HW114470   3.143  12.608   6.159
 4191SOL    HW214471   3.290  12.575   6.171
 4192SOL     OW14472   4.063  10.077   3.050
 4192SOL    HW114473   4.127  10.118   2.992
 4192SOL    HW214474   4.113  10.046   3.125
 4193SOL     OW14475  10.612   1.513   3.911
 4193SOL    HW114476  10.586   1.605   3.911
 4193SOL    HW214477  10.690   1.510   3.968
 4194SOL     OW14478   1.947   7.172  14.659
 4194SOL    HW114479   1.949   7.159  14.753
 4194SOL    HW214480   1.922   7.087  14.623
 4195SOL     OW14481   1.695  13.146   8.096
 4195SOL    HW114482   1.607  13.106   8.096
 4195SOL    HW214483   1.739  13.106   8.171
 4196SOL     OW14484   4.319   5.695  14.201
 4196SOL    HW114485   4.316   5.600  14.191
 4196SOL    HW214486   4.394   5.710  14.259
 4197SOL     OW14487  12.306   9.255   4.045
 4197SOL    HW114488  12.237   9.301   3.996
 4197SOL    HW214489  12.341   9.192   3.983
 4198SOL     OW14490   7.260   1.394  11.877
 4198SOL    HW114491   7.292   1.477  11.914
 4198SOL    HW214492   7.276   1.402  11.783
 4199SOL     OW14493   0.278   4.079   3.942
 4199SOL    HW114494   0.251   4.114   4.027
 4199SOL    HW214495   0.248   4.145   3.878
 4200SOL     OW14496   0.023   1.234  13.350
 4200SOL    HW114497  14.833   1.260  13.420
 4200SOL    HW214498   0.083   1.308  13.340
 4201SOL     OW14499   5.033   5.593  13.939
 4201SOL    HW114500   5.121   5.572  13.908
 4201SOL    HW214501   5.046   5.627  14.027
 4202SOL     OW14502   2.671  10.807   6.061
 4202SOL    HW114503   2.733  10.855   6.005
 4202SOL    HW214504   2.712  10.722   6.074
 4203SOL     OW14505  10.339   5.952   7.045
 4203SOL    HW114506  10.290   5.947   7.127
 4203SOL    HW214507  10.429   5.974   7.072
 4204SOL     OW14508   6.935   3.770   4.100
 4204SOL    HW114509   6.940   3.865   4.099
 4204SOL    HW214510   6.876   3.750   4.172
 4205SOL     OW14511   7.967   5.466   1.546
 4205SOL    HW114512   8.015   5.386   1.567
 4205SOL    HW214513   7.875   5.440   1.544
 4206SOL     OW14514  12.993  10.534  11.858
 4206SOL    HW114515  13.042  10.611  11.887
 4206SOL    HW214516  12.910  10.539  11.904
 4207SOL     OW14517   8.325   3.878   3.045
 4207SOL    HW114518   8.388   3.950   3.042
 4207SOL    HW214519   8.263   3.898   2.975
 4208SOL     OW14520   2.599   1.920   1.737
 4208SOL    HW114521   2.568   1.939   1.649
 4208SOL    HW214522   2.571   1.995   1.790
 4209SOL     OW14523   7.613  11.453  10.509
 4209SOL    HW114524   7.702  11.421  10.492
 4209SOL    HW214525   7.566  11.435  10.428
 4210SOL     OW14526   4.808   2.634  10.573
 4210SOL    HW114527   4.875   2.590  10.625
 4210SOL    HW214528   4.854   2.707  10.532
 4211SOL     OW14529   1.067   5.960   9.506
 4211SOL    HW114530   1.101   5.905   9.575
 4211SOL    HW214531   1.116   5.934   9.428
 4212SOL     OW14532   8.525   2.694   3.969
 4212SOL    HW114533   8.498   2.606   3.944
 4212SOL    HW214534   8.611   2.705   3.928
 4213SOL     OW14535   4.731  14.801   6.162
 4213SOL    HW114536   4.659  14.861   6.183
 4213SOL    HW214537   4.789  14.852   6.106
 4214SOL     OW14538  11.003   2.938   5.367
 4214SOL    HW114539  10.986   2.878   5.295
 4214SOL    HW214540  10.934   3.004   5.362
 4215SOL     OW14541   3.414   1.829   2.165
 4215SOL    HW114542   3.378   1.873   2.242
 4215SOL    HW214543   3.407   1.736   2.185
 4216SOL     OW14544  10.824   3.768   3.443
 4216SOL    HW114545  10.779   3.800   3.522
 4216SOL    HW214546  10.864   3.846   3.406
 4217SOL     OW14547   9.209   1.285   0.936
 4217SOL    HW114548   9.284   1.321   0.888
 4217SOL    HW214549   9.247   1.246   1.015
 4218SOL     OW14550   1.578  11.434   8.994
 4218SOL    HW114551   1.579  11.530   9.002
 4218SOL    HW214552   1.498  11.415   8.945
 4219SOL     OW14553  13.639   9.445  13.452
 4219SOL    HW114554  13.694   9.421  13.527
 4219SOL    HW214555  13.685   9.519  13.412
 4220SOL     OW14556  13.223   5.436  12.879
 4220SOL    HW114557  13.196   5.527  12.861
 4220SOL    HW214558  13.304   5.425  12.830
 4221SOL     OW14559   9.028   7.910   8.572
 4221SOL    HW114560   9.079   7.869   8.502
 4221SOL    HW214561   9.092   7.953   8.628
 4222SOL     OW14562  11.903   9.698  10.563
 4222SOL    HW114563  11.838   9.759  10.529
 4222SOL    HW214564  11.931   9.648  10.486
 4223SOL     OW14565   4.020   0.967  12.305
 4223SOL    HW114566   3.947   1.000  12.358
 4223SOL    HW214567   4.090   0.952  12.367
 4224SOL     OW14568   1.601   1.792  10.875
 4224SOL    HW114569   1.604   1.886  10.889
 4224SOL    HW214570   1.665   1.756  10.937
 4225SOL     OW14571  13.788   5.929   6.210
 4225SOL    HW114572  13.820   5.966   6.127
 4225SOL    HW214573  13.761   5.840   6.187
 4226SOL     OW14574  13.489  11.336   7.550
 4226SOL    HW114575  13.511  11.426   7.575
 4226SOL    HW214576  13.546  11.317   7.476
 4227SOL     OW14577   4.580  10.546   4.073
 4227SOL    HW114578   4.622  10.479   4.126
 4227SOL    HW214579   4.536  10.603   4.137
 4228SOL     OW14580  12.505   8.421   3.583
 4228SOL    HW114581  12.523   8.334   3.619
 4228SOL    HW214582  12.543   8.418   3.495
 4229SOL     OW14583   3.480  11.871   3.527
 4229SOL    HW114584   3.437  11.879   3.442
 4229SOL    HW214585   3.440  11.938   3.582
 4230SOL     OW14586  10.808   0.762   4.382
 4230SOL    HW114587  10.820   0.855   4.365
 4230SOL    HW214588  10.845   0.748   4.469
 4231SOL     OW14589   6.889   8.662   8.114
 4231SOL    HW114590   6.795   8.678   8.117
 4231SOL    HW214591   6.929   8.745   8.139
 4232SOL     OW14592  10.109  12.927  10.923
 4232SOL    HW114593  10.033  12.953  10.872
 4232SOL    HW214594  10.181  12.980  10.888
 4233SOL     OW14595   3.142   8.301   8.631
 4233SOL    HW114596   3.204   8.349   8.685
 4233SOL    HW214597   3.141   8.350   8.548
 4234SOL     OW14598   0.946   7.916   3.274
 4234SOL    HW114599   0.993   7.931   3.356
 4234SOL    HW214600   1.010   7.937   3.206
 4235SOL     OW14601   2.260  13.379  13.156
 4235SOL    HW114602   2.307  13.369  13.073
 4235SOL    HW214603   2.206  13.301  13.163
 4236SOL     OW14604   0.499   5.854   9.270
 4236SOL    HW114605   0.407   5.839   9.248
 4236SOL    HW214606   0.497   5.924   9.335
 4237SOL     OW14607   7.891   2.238   8.216
 4237SOL    HW114608   7.903   2.327   8.249
 4237SOL    HW214609   7.854   2.249   8.129
 4238SOL     OW14610   4.633  11.155  12.204
 4238SOL    HW114611   4.629  11.060  12.214
 4238SOL    HW214612   4.721  11.179  12.234
 4239SOL     OW14613  14.658   6.414   6.812
 4239SOL    HW114614  14.666   6.334   6.864
 4239SOL    HW214615  14.722   6.403   6.742
 4240SOL     OW14616   5.698  12.022   0.313
 4240SOL    HW114617   5.670  12.107   0.279
 4240SOL    HW214618   5.776  12.041   0.366
 4241SOL     OW14619   0.465  14.341  12.073
 4241SOL    HW114620   0.551  14.370  12.102
 4241SOL    HW214621   0.483  14.265  12.017
 4242SOL     OW14622  12.365  14.322   2.318
 4242SOL    HW114623  12.389  14.251   2.378
 4242SOL    HW214624  12.446  14.344   2.273
 4243SOL     OW14625   7.997  12.331   1.444
 4243SOL    HW114626   8.010  12.242   1.477
 4243SOL    HW214627   7.902  12.338   1.432
 4244SOL     OW14628   0.199   3.765  10.845
 4244SOL    HW114629   0.139   3.796  10.913
 4244SOL    HW214630   0.285   3.799  10.872
 4245SOL     OW14631   1.048   4.728   3.021
 4245SOL    HW114632   1.047   4.688   3.108
 4245SOL    HW214633   1.140   4.747   3.004
 4246SOL     OW14634   0.429   2.587  13.231
 4246SOL    HW114635   0.374   2.512  13.211
 4246SOL    HW214636   0.518   2.554  13.224
 4247SOL     OW14637  12.930   3.703   7.829
 4247SOL    HW114638  12.871   3.633   7.858
 4247SOL    HW214639  12.967   3.738   7.909
 4248SOL     OW14640   4.093   6.300   5.418
 4248SOL    HW114641   4.011   6.342   5.444
 4248SOL    HW214642   4.135   6.276   5.500
 4249SOL     OW14643  12.628  11.615   5.478
 4249SOL    HW114644  12.658  11.665   5.402
 4249SOL    HW214645  12.708  11.579   5.516
 4250SOL     OW14646   5.844  10.655  10.559
 4250SOL    HW114647   5.916  10.711  10.590
 4250SOL    HW214648   5.842  10.670  10.464
 4251SOL     OW14649   9.410  12.888   1.511
 4251SOL    HW114650   9.346  12.890   1.440
 4251SOL    HW214651   9.391  12.966   1.563
 4252SOL     OW14652  11.194   8.050  13.383
 4252SOL    HW114653  11.218   8.064  13.474
 4252SOL    HW214654  11.175   7.956  13.377
 4253SOL     OW14655  10.107   1.991   3.632
 4253SOL    HW114656  10.018   2.020   3.612
 4253SOL    HW214657  10.161   2.069   3.618
 4254SOL     OW14658   1.730   2.567   8.054
 4254SOL    HW114659   1.814   2.585   8.010
 4254SOL    HW214660   1.667   2.623   8.008
 4255SOL     OW14661  11.622   3.857   1.507
 4255SOL    HW114662  11.678   3.785   1.535
 4255SOL    HW214663  11.612   3.845   1.413
 4256SOL     OW14664  13.395  12.168  14.111
 4256SOL    HW114665  13.416  12.099  14.048
 4256SOL    HW214666  13.367  12.242  14.057
 4257SOL     OW14667   8.076  12.913   8.880
 4257SOL    HW114668   8.156  12.961   8.903
 4257SOL    HW214669   8.017  12.981   8.847
 4258SOL     OW14670   5.726  14.759   4.933
 4258SOL    HW114671   5.784  14.784   4.861
 4258SOL    HW214672   5.784  14.739   5.006
 4259SOL     OW14673   4.714   4.838   2.594
 4259SOL    HW114674   4.639   4.827   2.535
 4259SOL    HW214675   4.791   4.820   2.540
 4260SOL     OW14676   3.355   0.478  14.307
 4260SOL    HW114677   3.426   0.469  14.370
 4260SOL    HW214678   3.346   0.573  14.294
 4261SOL     OW14679   6.728  11.681   8.220
 4261SOL    HW114680   6.788  11.749   8.190
 4261SOL    HW214681   6.777  11.600   8.210
 4262SOL     OW14682   1.659  10.431   9.756
 4262SOL    HW114683   1.596  10.487   9.710
 4262SOL    HW214684   1.737  10.485   9.766
 4263SOL     OW14685   7.350  13.738   4.388
 4263SOL    HW114686   7.376  13.686   4.465
 4263SOL    HW214687   7.433  13.767   4.350
 4264SOL     OW14688   3.126   8.010   8.480
 4264SOL    HW114689   3.079   8.034   8.560
 4264SOL    HW214690   3.093   7.923   8.458
 4265SOL     OW14691   7.869   5.148   8.062
 4265SOL    HW114692   7.801   5.139   8.129
 4265SOL    HW214693   7.946   5.108   8.100
 4266SOL     OW14694   7.944  11.118   1.726
 4266SOL    HW114695   7.867  11.077   1.687
 4266SOL    HW214696   7.962  11.193   1.669
 4267SOL     OW14697   5.066   8.564   5.441
 4267SOL    HW114698   5.153   8.555   5.402
 4267SOL    HW214699   5.011   8.599   5.371
 4268SOL     OW14700   6.578   4.021   9.870
 4268SOL    HW114701   6.564   3.937   9.826
 4268SOL    HW214702   6.511   4.079   9.832
 4269SOL     OW14703   9.870   0.718   7.094
 4269SOL    HW114704   9.896   0.676   7.012
 4269SOL    HW214705   9.777   0.698   7.104
 4270SOL     OW14706  13.059  10.740   8.969
 4270SOL    HW114707  13.148  10.769   8.985
 4270SOL    HW214708  13.014  10.818   8.935
 4271SOL     OW14709   9.995   6.142  10.212
 4271SOL    HW114710   9.915   6.103  10.246
 4271SOL    HW214711   9.991   6.126  10.118
 4272SOL     OW14712   1.305  10.398   3.512
 4272SOL    HW114713   1.343  10.313   3.535
 4272SOL    HW214714   1.373  10.442   3.461
 4273SOL     OW14715   9.218   7.639   7.866
 4273SOL    HW114716   9.291   7.578   7.856
 4273SOL    HW214717   9.140   7.584   7.862
 4274SOL     OW14718  14.429   4.298   7.039
 4274SOL    HW114719  14.381   4.219   7.064
 4274SOL    HW214720  14.499   4.304   7.104
 4275SOL     OW14721  14.562   5.081   6.354
 4275SOL    HW114722  14.620   5.039   6.291
 4275SOL    HW214723  14.620   5.136   6.407
 4276SOL     OW14724   5.535   7.381   7.794
 4276SOL    HW114725   5.545   7.374   7.699
 4276SOL    HW214726   5.481   7.307   7.819
 4277SOL     OW14727   7.978  14.139  14.406
 4277SOL    HW114728   7.894  14.159  14.448
 4277SOL    HW214729   8.030  14.098  14.476
 4278SOL     OW14730   3.862  12.556   0.573
 4278SOL    HW114731   3.879  12.493   0.503
 4278SOL    HW214732   3.778  12.595   0.550
 4279SOL     OW14733   3.687   4.710  13.592
 4279SOL    HW114734   3.770   4.716  13.640
 4279SOL    HW214735   3.670   4.800  13.564
 4280SOL     OW14736   2.373  10.684   6.307
 4280SOL    HW114737   2.437  10.668   6.377
 4280SOL    HW214738   2.340  10.772   6.325
 4281SOL     OW14739   6.148  10.295   3.760
 4281SOL    HW114740   6.188  10.356   3.698
 4281SOL    HW214741   6.119  10.221   3.706
 4282SOL     OW14742  14.135   2.243   7.762
 4282SOL    HW114743  14.153   2.324   7.810
 4282SOL    HW214744  14.206   2.236   7.699
 4283SOL     OW14745   0.522   8.438   5.300
 4283SOL    HW114746   0.542   8.525   5.265
 4283SOL    HW214747   0.455   8.403   5.241
 4284SOL     OW14748   7.420   3.782   2.922
 4284SOL    HW114749   7.353   3.844   2.894
 4284SOL    HW214750   7.374   3.697   2.924
 4285SOL     OW14751  10.577   4.257  13.299
 4285SOL    HW114752  10.572   4.168  13.264
 4285SOL    HW214753  10.670   4.271  13.316
 4286SOL     OW14754  10.503   0.462  11.019
 4286SOL    HW114755  10.514   0.541  11.072
 4286SOL    HW214756  10.561   0.398  11.060
 4287SOL     OW14757   0.788   6.834  10.907
 4287SOL    HW114758   0.841   6.803  10.980
 4287SOL    HW214759   0.766   6.755  10.858
 4288SOL     OW14760  10.695  11.131   6.483
 4288SOL    HW114761  10.701  11.120   6.578
 4288SOL    HW214762  10.669  11.222   6.472
 4289SOL     OW14763   6.403   1.130   5.563
 4289SOL    HW114764   6.387   1.139   5.657
 4289SOL    HW214765   6.498   1.121   5.556
 4290SOL     OW14766   3.643   9.132   9.829
 4290SOL    HW114767   3.680   9.075   9.897
 4290SOL    HW214768   3.640   9.219   9.870
 4291SOL     OW14769   1.830  12.427   3.784
 4291SOL    HW114770   1.920  12.395   3.784
 4291SOL    HW214771   1.778  12.351   3.808
 4292SOL     OW14772  12.617   4.016   3.030
 4292SOL    HW114773  12.639   4.039   3.120
 4292SOL    HW214774  12.702   4.003   2.987
 4293SOL     OW14775  12.505   9.742   0.720
 4293SOL    HW114776  12.534   9.691   0.645
 4293SOL    HW214777  12.487   9.677   0.788
 4294SOL     OW14778   2.295   1.004   1.076
 4294SOL    HW114779   2.222   1.032   1.022
 4294SOL    HW214780   2.289   0.909   1.078
 4295SOL     OW14781   4.023   6.864   6.456
 4295SOL    HW114782   3.977   6.944   6.432
 4295SOL    HW214783   4.030   6.815   6.374
 4296SOL     OW14784   8.628  13.264   7.455
 4296SOL    HW114785   8.577  13.316   7.516
 4296SOL    HW214786   8.682  13.328   7.409
 4297SOL     OW14787   7.962   4.230   4.250
 4297SOL    HW114788   8.013   4.273   4.320
 4297SOL    HW214789   7.874   4.222   4.287
 4298SOL     OW14790   6.127   2.322  13.712
 4298SOL    HW114791   6.054   2.382  13.729
 4298SOL    HW214792   6.124   2.306  13.618
 4299SOL     OW14793  13.929  12.252   1.948
 4299SOL    HW114794  13.893  12.230   1.863
 4299SOL    HW214795  13.942  12.347   1.945
 4300SOL     OW14796  12.953   2.120   8.415
 4300SOL    HW114797  12.895   2.105   8.341
 4300SOL    HW214798  12.948   2.215   8.430
 4301SOL     OW14799   6.542   5.708   8.145
 4301SOL    HW114800   6.551   5.649   8.070
 4301SOL    HW214801   6.620   5.693   8.198
 4302SOL     OW14802  11.134   4.761  11.684
 4302SOL    HW114803  11.094   4.842  11.715
 4302SOL    HW214804  11.093   4.693  11.737
 4303SOL     OW14805   6.023   1.025   8.454
 4303SOL    HW114806   5.950   1.053   8.399
 4303SOL    HW214807   5.998   0.938   8.485
 4304SOL     OW14808  13.583  10.892  14.569
 4304SOL    HW114809  13.670  10.884  14.531
 4304SOL    HW214810  13.587  10.970  14.624
 4305SOL     OW14811  12.864   5.917   4.869
 4305SOL    HW114812  12.926   5.984   4.899
 4305SOL    HW214813  12.788   5.928   4.925
 4306SOL     OW14814   7.952   8.712   1.051
 4306SOL    HW114815   8.016   8.641   1.045
 4306SOL    HW214816   7.891   8.684   1.120
 4307SOL     OW14817   8.941   7.349  11.065
 4307SOL    HW114818   8.928   7.436  11.105
 4307SOL    HW214819   9.019   7.315  11.108
 4308SOL     OW14820   3.808   3.678   3.811
 4308SOL    HW114821   3.791   3.629   3.892
 4308SOL    HW214822   3.744   3.749   3.812
 4309SOL     OW14823  10.760   6.535   4.631
 4309SOL    HW114824  10.689   6.497   4.684
 4309SOL    HW214825  10.721   6.613   4.593
 4310SOL     OW14826  12.880   6.968   4.594
 4310SOL    HW114827  12.815   6.927   4.538
 4310SOL    HW214828  12.897   7.053   4.553
 4311SOL     OW14829   5.875   4.375   8.764
 4311SOL    HW114830   5.855   4.303   8.704
 4311SOL    HW214831   5.966   4.398   8.745
 4312SOL     OW14832  12.982   3.536  14.400
 4312SOL    HW114833  12.948   3.538  14.489
 4312SOL    HW214834  13.027   3.620  14.389
 4313SOL     OW14835  13.224   5.337   6.035
 4313SOL    HW114836  13.223   5.386   5.953
 4313SOL    HW214837  13.143   5.287   6.034
 4314SOL     OW14838   9.744  13.718   5.685
 4314SOL    HW114839   9.728  13.742   5.594
 4314SOL    HW214840   9.748  13.801   5.732
 4315SOL     OW14841   4.546   9.227  14.010
 4315SOL    HW114842   4.556   9.214  13.916
 4315SOL    HW214843   4.566   9.320  14.024
 4316SOL     OW14844   2.262  13.774  13.861
 4316SOL    HW114845   2.345  13.727  13.854
 4316SOL    HW214846   2.230  13.780  13.771
 4317SOL     OW14847   3.716  10.793  13.850
 4317SOL    HW114848   3.761  10.713  13.824
 4317SOL    HW214849   3.624  10.767  13.859
 4318SOL     OW14850  14.338   2.368  14.104
 4318SOL    HW114851  14.347   2.430  14.032
 4318SOL    HW214852  14.249   2.383  14.137
 4319SOL     OW14853   3.251   7.298   1.897
 4319SOL    HW114854   3.236   7.373   1.954
 4319SOL    HW214855   3.205   7.320   1.816
 4320SOL     OW14856  14.140  12.076  14.500
 4320SOL    HW114857  14.169  12.071  14.409
 4320SOL    HW214858  14.111  11.987  14.521
 4321SOL     OW14859  11.569   6.817  11.078
 4321SOL    HW114860  11.594   6.876  11.149
 4321SOL    HW214861  11.629   6.743  11.086
 4322SOL     OW14862   3.819   3.765   0.294
 4322SOL    HW114863   3.830   3.767   0.389
 4322SOL    HW214864   3.873   3.837   0.262
 4323SOL     OW14865  14.431   1.870   2.304
 4323SOL    HW114866  14.402   1.896   2.216
 4323SOL    HW214867  14.409   1.778   2.310
 4324SOL     OW14868   9.128   0.555   4.121
 4324SOL    HW114869   9.042   0.532   4.084
 4324SOL    HW214870   9.134   0.650   4.109
 4325SOL     OW14871   3.445  12.611  12.915
 4325SOL    HW114872   3.471  12.691  12.871
 4325SOL    HW214873   3.397  12.562  12.848
 4326SOL     OW14874  13.750   5.893   8.972
 4326SOL    HW114875  13.683   5.835   9.009
 4326SOL    HW214876  13.775   5.850   8.890
 4327SOL     OW14877   7.869   5.088  11.009
 4327SOL    HW114878   7.931   5.034  11.058
 4327SOL    HW214879   7.910   5.175  11.006
 4328SOL     OW14880   5.263  10.409   0.415
 4328SOL    HW114881   5.255  10.314   0.422
 4328SOL    HW214882   5.253  10.428   0.322
 4329SOL     OW14883   6.905   4.855   6.417
 4329SOL    HW114884   6.906   4.788   6.486
 4329SOL    HW214885   6.970   4.825   6.353
 4330SOL     OW14886   5.479  11.807   9.041
 4330SOL    HW114887   5.420  11.787   9.114
 4330SOL    HW214888   5.567  11.788   9.075
 4331SOL     OW14889   0.562   2.462  14.211
 4331SOL    HW114890   0.476   2.503  14.198
 4331SOL    HW214891   0.624   2.523  14.171
 4332SOL     OW14892   1.178   0.216  10.950
 4332SOL    HW114893   1.123   0.137  10.943
 4332SOL    HW214894   1.221   0.208  11.035
 4333SOL     OW14895   8.043  14.716   0.953
 4333SOL    HW114896   8.005  14.630   0.970
 4333SOL    HW214897   7.972  14.767   0.914
 4334SOL     OW14898   8.104   5.619  10.099
 4334SOL    HW114899   8.042   5.554  10.131
 4334SOL    HW214900   8.057   5.665  10.029
 4335SOL     OW14901   2.320  13.175   2.261
 4335SOL    HW114902   2.306  13.085   2.233
 4335SOL    HW214903   2.323  13.226   2.180
 4336SOL     OW14904   2.213  13.616  11.502
 4336SOL    HW114905   2.308  13.628  11.492
 4336SOL    HW214906   2.201  13.593  11.594
 4337SOL     OW14907  13.512   0.901   4.098
 4337SOL    HW114908  13.441   0.915   4.161
 4337SOL    HW214909  13.565   0.831   4.137
 4338SOL     OW14910  10.626   9.725   9.830
 4338SOL    HW114911  10.555   9.760   9.777
 4338SOL    HW214912  10.691   9.694   9.766
 4339SOL     OW14913  12.827  12.009   9.516
 4339SOL    HW114914  12.871  11.975   9.439
 4339SOL    HW214915  12.819  12.103   9.500
 4340SOL     OW14916   7.329   5.905   3.118
 4340SOL    HW114917   7.306   5.841   3.185
 4340SOL    HW214918   7.421   5.888   3.098
 4341SOL     OW14919   7.066   9.242   6.606
 4341SOL    HW114920   7.059   9.228   6.512
 4341SOL    HW214921   7.146   9.196   6.631
 4342SOL     OW14922  11.022   7.755   8.744
 4342SOL    HW114923  11.019   7.722   8.654
 4342SOL    HW214924  11.099   7.812   8.746
 4343SOL     OW14925   6.181   9.633   0.351
 4343SOL    HW114926   6.146   9.717   0.380
 4343SOL    HW214927   6.272   9.633   0.380
 4344SOL     OW14928  12.693  12.798   2.436
 4344SOL    HW114929  12.719  12.890   2.425
 4344SOL    HW214930  12.764  12.760   2.488
 4345SOL     OW14931   5.610   3.277   0.642
 4345SOL    HW114932   5.566   3.297   0.560
 4345SOL    HW214933   5.556   3.319   0.709
 4346SOL     OW14934  11.859  12.884   1.444
 4346SOL    HW114935  11.800  12.907   1.372
 4346SOL    HW214936  11.905  12.965   1.465
 4347SOL     OW14937  13.760   7.319   2.264
 4347SOL    HW114938  13.676   7.295   2.304
 4347SOL    HW214939  13.798   7.235   2.237
 4348SOL     OW14940  12.526  14.493   8.007
 4348SOL    HW114941  12.490  14.484   8.095
 4348SOL    HW214942  12.607  14.542   8.019
 4349SOL     OW14943   1.126  11.717   7.475
 4349SOL    HW114944   1.159  11.635   7.439
 4349SOL    HW214945   1.113  11.773   7.398
 4350SOL     OW14946  10.763  14.257   0.585
 4350SOL    HW114947  10.849  14.219   0.602
 4350SOL    HW214948  10.781  14.350   0.570
 4351SOL     OW14949   0.716   4.811  12.698
 4351SOL    HW114950   0.644   4.798  12.760
 4351SOL    HW214951   0.676   4.802  12.612
 4352SOL     OW14952   7.328  14.362   1.883
 4352SOL    HW114953   7.368  14.416   1.815
 4352SOL    HW214954   7.395  14.298   1.905
 4353SOL     OW14955   4.814   7.192   8.395
 4353SOL    HW114956   4.853   7.251   8.460
 4353SOL    HW214957   4.840   7.104   8.423
 4354SOL     OW14958   2.641   6.511   4.361
 4354SOL    HW114959   2.558   6.504   4.314
 4354SOL    HW214960   2.641   6.601   4.395
 4355SOL     OW14961   6.839   8.188   9.404
 4355SOL    HW114962   6.830   8.262   9.465
 4355SOL    HW214963   6.753   8.146   9.404
 4356SOL     OW14964  11.806  11.320  14.211
 4356SOL    HW114965  11.731  11.380  14.214
 4356SOL    HW214966  11.799  11.276  14.126
 4357SOL     OW14967   5.908   2.605  11.599
 4357SOL    HW114968   5.829   2.618  11.651
 4357SOL    HW214969   5.980   2.620  11.661
 4358SOL     OW14970   4.563  11.259   0.702
 4358SOL    HW114971   4.531  11.236   0.615
 4358SOL    HW214972   4.491  11.233   0.761
 4359SOL     OW14973  10.377   6.113  12.352
 4359SOL    HW114974  10.309   6.062  12.309
 4359SOL    HW214975  10.459   6.081  12.313
 4360SOL     OW14976   5.210   8.770   6.274
 4360SOL    HW114977   5.196   8.853   6.229
 4360SOL    HW214978   5.234   8.795   6.363
 4361SOL     OW14979   4.416   1.588   8.432
 4361SOL    HW114980   4.451   1.501   8.411
 4361SOL    HW214981   4.429   1.598   8.526
 4362SOL     OW14982   9.480  14.437   8.302
 4362SOL    HW114983   9.424  14.508   8.271
 4362SOL    HW214984   9.537  14.478   8.367
 4363SOL     OW14985  13.240  12.422   6.744
 4363SOL    HW114986  13.179  12.480   6.697
 4363SOL    HW214987  13.184  12.369   6.800
 4364SOL     OW14988   4.545   9.884  13.663
 4364SOL    HW114989   4.464   9.849  13.702
 4364SOL    HW214990   4.609   9.814  13.675
 4365SOL     OW14991   0.674   5.763  11.588
 4365SOL    HW114992   0.667   5.779  11.494
 4365SOL    HW214993   0.709   5.845  11.624
 4366SOL     OW14994   5.058   7.134  14.465
 4366SOL    HW114995   5.102   7.085  14.534
 4366SOL    HW214996   5.110   7.118  14.387
 4367SOL     OW14997  13.798   3.993   7.044
 4367SOL    HW114998  13.772   4.067   7.099
 4367SOL    HW214999  13.730   3.927   7.059
 4368SOL     OW15000  12.314   4.977   6.300
 4368SOL    HW115001  12.332   4.883   6.298
 4368SOL    HW215002  12.393   5.016   6.339
 4369SOL     OW15003   4.295   7.619  12.284
 4369SOL    HW115004   4.248   7.649  12.362
 4369SOL    HW215005   4.380   7.662  12.289
 4370SOL     OW15006  10.289   9.210  11.910
 4370SOL    HW115007  10.347   9.277  11.946
 4370SOL    HW215008  10.268   9.154  11.985
 4371SOL     OW15009   4.308  10.645  10.556
 4371SOL    HW115010   4.365  10.569  10.573
 4371SOL    HW215011   4.277  10.632  10.467
 4372SOL     OW15012   6.124   3.211   1.817
 4372SOL    HW115013   6.047   3.182   1.768
 4372SOL    HW215014   6.146   3.296   1.780
 4373SOL     OW15015  12.397   0.323   4.244
 4373SOL    HW115016  12.482   0.280   4.236
 4373SOL    HW215017  12.378   0.320   4.338
 4374SOL     OW15018   5.539  12.743   4.946
 4374SOL    HW115019   5.616  12.722   4.894
 4374SOL    HW215020   5.466  12.704   4.898
 4375SOL     OW15021   0.134   0.813   5.434
 4375SOL    HW115022   0.173   0.727   5.453
 4375SOL    HW215023   0.123   0.813   5.339
 4376SOL     OW15024   7.905   2.220   4.925
 4376SOL    HW115025   7.986   2.270   4.930
 4376SOL    HW215026   7.932   2.130   4.945
 4377SOL     OW15027  11.652   5.539  10.717
 4377SOL    HW115028  11.610   5.557  10.800
 4377SOL    HW215029  11.613   5.458  10.686
 4378SOL     OW15030   5.722   6.612  12.496
 4378SOL    HW115031   5.687   6.527  12.520
 4378SOL    HW215032   5.817   6.600  12.493
 4379SOL     OW15033   1.968   6.119   6.083
 4379SOL    HW115034   1.942   6.027   6.087
 4379SOL    HW215035   2.031   6.123   6.011
 4380SOL     OW15036  11.593  12.290   5.222
 4380SOL    HW115037  11.635  12.329   5.146
 4380SOL    HW215038  11.499  12.292   5.201
 4381SOL     OW15039   1.290   7.752   2.624
 4381SOL    HW115040   1.324   7.706   2.547
 4381SOL    HW215041   1.278   7.842   2.595
 4382SOL     OW15042  11.743   0.626  10.164
 4382SOL    HW115043  11.801   0.582  10.227
 4382SOL    HW215044  11.716   0.706  10.209
 4383SOL     OW15045   9.994   2.153  10.643
 4383SOL    HW115046   9.932   2.180  10.575
 4383SOL    HW215047  10.027   2.235  10.680
 4384SOL     OW15048  13.561   1.145  11.393
 4384SOL    HW115049  13.551   1.210  11.323
 4384SOL    HW215050  13.514   1.184  11.468
 4385SOL     OW15051   6.756  10.492   4.967
 4385SOL    HW115052   6.829  10.491   5.029
 4385SOL    HW215053   6.679  10.468   5.020
 4386SOL     OW15054  10.878  14.196   6.331
 4386SOL    HW115055  10.828  14.198   6.413
 4386SOL    HW215056  10.911  14.106   6.326
 4387SOL     OW15057   6.821   8.739  11.284
 4387SOL    HW115058   6.868   8.698  11.210
 4387SOL    HW215059   6.736   8.763  11.248
 4388SOL     OW15060  13.648  10.029   1.881
 4388SOL    HW115061  13.727   9.991   1.844
 4388SOL    HW215062  13.576   9.986   1.835
 4389SOL     OW15063   1.984   7.145  12.055
 4389SOL    HW115064   1.962   7.186  12.138
 4389SOL    HW215065   2.042   7.073  12.079
 4390SOL     OW15066  13.113   7.601   3.639
 4390SOL    HW115067  13.186   7.661   3.627
 4390SOL    HW215068  13.062   7.609   3.559
 4391SOL     OW15069  13.693   1.420   5.799
 4391SOL    HW115070  13.650   1.486   5.744
 4391SOL    HW215071  13.701   1.343   5.743
 4392SOL     OW15072   3.445   9.557   6.665
 4392SOL    HW115073   3.350   9.562   6.653
 4392SOL    HW215074   3.477   9.641   6.632
 4393SOL     OW15075  13.328  10.213   2.414
 4393SOL    HW115076  13.235  10.234   2.408
 4393SOL    HW215077  13.332  10.138   2.474
 4394SOL     OW15078   9.193   3.105   0.886
 4394SOL    HW115079   9.243   3.157   0.949
 4394SOL    HW215080   9.200   3.015   0.918
 4395SOL     OW15081  12.749   9.163   1.379
 4395SOL    HW115082  12.840   9.191   1.370
 4395SOL    HW215083  12.719   9.202   1.462
 4396SOL     OW15084  13.051   6.147   5.970
 4396SOL    HW115085  13.102   6.074   5.934
 4396SOL    HW215086  13.048   6.130   6.064
 4397SOL     OW15087   6.711   2.449   1.697
 4397SOL    HW115088   6.781   2.472   1.636
 4397SOL    HW215089   6.642   2.412   1.641
 4398SOL     OW15090   9.520   5.825  13.408
 4398SOL    HW115091   9.551   5.872  13.331
 4398SOL    HW215092   9.581   5.752  13.418
 4399SOL     OW15093   0.526   0.062   2.002
 4399SOL    HW115094   0.477   0.074   1.921
 4399SOL    HW215095   0.603   0.012   1.977
 4400SOL     OW15096  12.051  13.433   2.095
 4400SOL    HW115097  12.143  13.421   2.118
 4400SOL    HW215098  12.009  13.457   2.177
 4401SOL     OW15099   7.089   4.188   4.873
 4401SOL    HW115100   7.134   4.109   4.902
 4401SOL    HW215101   6.996   4.165   4.876
 4402SOL     OW15102   4.469  13.225  13.742
 4402SOL    HW115103   4.455  13.133  13.720
 4402SOL    HW215104   4.478  13.269  13.657
 4403SOL     OW15105   7.819   8.411   2.543
 4403SOL    HW115106   7.877   8.335   2.558
 4403SOL    HW215107   7.873   8.487   2.564
 4404SOL     OW15108   6.884   7.370  13.553
 4404SOL    HW115109   6.905   7.295  13.498
 4404SOL    HW215110   6.943   7.362  13.628
 4405SOL     OW15111  10.979  11.055   6.415
 4405SOL    HW115112  10.884  11.053   6.429
 4405SOL    HW215113  11.015  11.003   6.486
 4406SOL     OW15114  13.116  14.133  11.259
 4406SOL    HW115115  13.111  14.042  11.230
 4406SOL    HW215116  13.209  14.155  11.254
 4407SOL     OW15117  11.773  14.426   4.457
 4407SOL    HW115118  11.780  14.512   4.498
 4407SOL    HW215119  11.863  14.403   4.434
 4408SOL     OW15120  12.057   4.407   9.630
 4408SOL    HW115121  12.052   4.342   9.701
 4408SOL    HW215122  11.971   4.449   9.630
 4409SOL     OW15123   3.597   4.677   6.727
 4409SOL    HW115124   3.524   4.678   6.788
 4409SOL    HW215125   3.663   4.622   6.770
 4410SOL     OW15126   7.385   2.756   4.181
 4410SOL    HW115127   7.376   2.772   4.087
 4410SOL    HW215128   7.476   2.777   4.201
 4411SOL     OW15129   8.243   6.770   5.734
 4411SOL    HW115130   8.179   6.841   5.738
 4411SOL    HW215131   8.232   6.723   5.816
 4412SOL     OW15132   1.172   7.140   9.485
 4412SOL    HW115133   1.107   7.209   9.490
 4412SOL    HW215134   1.243   7.177   9.433
 4413SOL     OW15135  11.897  10.622   2.324
 4413SOL    HW115136  11.971  10.602   2.382
 4413SOL    HW215137  11.933  10.680   2.257
 4414SOL     OW15138   4.682   1.997   4.775
 4414SOL    HW115139   4.705   2.060   4.706
 4414SOL    HW215140   4.619   2.043   4.830
 4415SOL     OW15141   2.322  13.052   5.683
 4415SOL    HW115142   2.389  12.984   5.682
 4415SOL    HW215143   2.358  13.122   5.627
 4416SOL     OW15144   1.693   3.656   4.034
 4416SOL    HW115145   1.692   3.700   3.949
 4416SOL    HW215146   1.647   3.574   4.020
 4417SOL     OW15147   8.993   9.690   5.114
 4417SOL    HW115148   8.930   9.757   5.087
 4417SOL    HW215149   9.078   9.722   5.083
 4418SOL     OW15150  12.490  12.903  11.211
 4418SOL    HW115151  12.466  12.965  11.142
 4418SOL    HW215152  12.579  12.928  11.236
 4419SOL     OW15153   3.764   6.324   1.427
 4419SOL    HW115154   3.762   6.368   1.512
 4419SOL    HW215155   3.857   6.320   1.404
 4420SOL     OW15156   0.688   9.908  12.504
 4420SOL    HW115157   0.665   9.911  12.596
 4420SOL    HW215158   0.784   9.906  12.503
 4421SOL     OW15159  13.019   2.235  13.289
 4421SOL    HW115160  13.036   2.147  13.321
 4421SOL    HW215161  13.105   2.268  13.261
 4422SOL     OW15162  11.041  13.283   0.124
 4422SOL    HW115163  11.028  13.337   0.202
 4422SOL    HW215164  10.973  13.215   0.131
 4423SOL     OW15165   9.935  12.744   3.395
 4423SOL    HW115166  10.019  12.784   3.373
 4423SOL    HW215167   9.888  12.740   3.312
 4424SOL     OW15168   3.522  12.134  11.330
 4424SOL    HW115169   3.439  12.150  11.374
 4424SOL    HW215170   3.527  12.038  11.323
 4425SOL     OW15171   0.454  12.045   7.359
 4425SOL    HW115172   0.488  11.959   7.383
 4425SOL    HW215173   0.432  12.037   7.266
 4426SOL     OW15174  12.299   8.981  10.328
 4426SOL    HW115175  12.360   8.911  10.306
 4426SOL    HW215176  12.346   9.036  10.390
 4427SOL     OW15177   6.815  10.233   4.565
 4427SOL    HW115178   6.763  10.308   4.536
 4427SOL    HW215179   6.906  10.262   4.556
 4428SOL     OW15180  11.436   2.063  11.561
 4428SOL    HW115181  11.509   2.124  11.549
 4428SOL    HW215182  11.358   2.118  11.558
 4429SOL     OW15183  12.426  13.612  11.955
 4429SOL    HW115184  12.385  13.687  11.911
 4429SOL    HW215185  12.363  13.585  12.021
 4430SOL     OW15186  13.497   4.567   3.934
 4430SOL    HW115187  13.408   4.590   3.908
 4430SOL    HW215188  13.506   4.600   4.023
 4431SOL     OW15189  11.159   2.514   2.828
 4431SOL    HW115190  11.117   2.467   2.900
 4431SOL    HW215191  11.243   2.542   2.864
 4432SOL     OW15192   6.327   9.941  13.297
 4432SOL    HW115193   6.368   9.895  13.223
 4432SOL    HW215194   6.322   9.875  13.366
 4433SOL     OW15195  14.190   0.608   0.900
 4433SOL    HW115196  14.148   0.528   0.872
 4433SOL    HW215197  14.263   0.620   0.840
 4434SOL     OW15198  11.615   0.360   2.275
 4434SOL    HW115199  11.647   0.317   2.354
 4434SOL    HW215200  11.661   0.317   2.204
 4435SOL     OW15201   0.464  11.571   8.104
 4435SOL    HW115202   0.499  11.656   8.133
 4435SOL    HW215203   0.443  11.585   8.012
 4436SOL     OW15204   0.957  13.017  14.493
 4436SOL    HW115205   0.935  13.002  14.585
 4436SOL    HW215206   0.878  13.053  14.454
 4437SOL     OW15207  14.357   3.059   8.013
 4437SOL    HW115208  14.340   2.987   7.953
 4437SOL    HW215209  14.452   3.073   8.007
 4438SOL     OW15210  10.537   5.505   1.623
 4438SOL    HW115211  10.632   5.518   1.631
 4438SOL    HW215212  10.508   5.579   1.569
 4439SOL     OW15213  14.420   8.726   0.561
 4439SOL    HW115214  14.463   8.642   0.545
 4439SOL    HW215215  14.326   8.705   0.561
 4440SOL     OW15216   6.729   2.450   7.416
 4440SOL    HW115217   6.805   2.501   7.441
 4440SOL    HW215218   6.656   2.489   7.465
 4441SOL     OW15219   5.244  13.686   5.940
 4441SOL    HW115220   5.235  13.699   6.034
 4441SOL    HW215221   5.319  13.740   5.915
 4442SOL     OW15222   0.933   0.554   3.032
 4442SOL    HW115223   0.867   0.622   3.016
 4442SOL    HW215224   0.885   0.472   3.019
 4443SOL     OW15225   2.550  14.407  14.705
 4443SOL    HW115226   2.638  14.374  14.686
 4443SOL    HW215227   2.559  14.452  14.788
 4444SOL     OW15228  11.582   8.388   6.531
 4444SOL    HW115229  11.627   8.312   6.568
 4444SOL    HW215230  11.650   8.435   6.482
 4445SOL     OW15231   6.163  14.462   6.511
 4445SOL    HW115232   6.093  14.492   6.453
 4445SOL    HW215233   6.236  14.442   6.453
 4446SOL     OW15234   6.001   5.996   7.396
 4446SOL    HW115235   5.917   5.982   7.440
 4446SOL    HW215236   5.977   6.024   7.307
 4447SOL     OW15237   9.925   9.083  12.393
 4447SOL    HW115238   9.895   9.036  12.315
 4447SOL    HW215239  10.015   9.107  12.372
 4448SOL     OW15240   9.801   8.517   4.193
 4448SOL    HW115241   9.763   8.532   4.107
 4448SOL    HW215242   9.842   8.431   4.187
 4449SOL     OW15243  12.286   4.980  12.037
 4449SOL    HW115244  12.251   4.920  12.102
 4449SOL    HW215245  12.316   5.056  12.087
 4450SOL     OW15246   7.585   2.419  10.085
 4450SOL    HW115247   7.516   2.400  10.022
 4450SOL    HW215248   7.559   2.374  10.165
 4451SOL     OW15249  13.869   2.608   8.417
 4451SOL    HW115250  13.949   2.612   8.470
 4451SOL    HW215251  13.866   2.517   8.387
 4452SOL     OW15252  11.921   9.426   9.186
 4452SOL    HW115253  11.859   9.487   9.226
 4452SOL    HW215254  11.867   9.370   9.130
 4453SOL     OW15255   4.962   3.470   1.284
 4453SOL    HW115256   4.882   3.464   1.232
 4453SOL    HW215257   4.980   3.380   1.311
 4454SOL     OW15258  14.093   9.661   7.944
 4454SOL    HW115259  14.063   9.576   7.912
 4454SOL    HW215260  14.036   9.679   8.019
 4455SOL     OW15261   8.416   8.191   2.576
 4455SOL    HW115262   8.378   8.218   2.660
 4455SOL    HW215263   8.498   8.147   2.600
 4456SOL     OW15264   9.670   0.663   8.693
 4456SOL    HW115265   9.589   0.613   8.691
 4456SOL    HW215266   9.680   0.688   8.785
 4457SOL     OW15267   4.728  14.526   3.695
 4457SOL    HW115268   4.740  14.446   3.643
 4457SOL    HW215269   4.813  14.569   3.692
 4458SOL     OW15270   2.994   0.159  14.354
 4458SOL    HW115271   3.078   0.166  14.310
 4458SOL    HW215272   2.987   0.067  14.379
 4459SOL     OW15273   9.938  14.640   2.198
 4459SOL    HW115274   9.851  14.673   2.220
 4459SOL    HW215275   9.924  14.546   2.181
 4460SOL     OW15276   7.445   7.686  11.675
 4460SOL    HW115277   7.528   7.642  11.693
 4460SOL    HW215278   7.378   7.621  11.697
 4461SOL     OW15279  11.115   9.486   9.264
 4461SOL    HW115280  11.056   9.412   9.250
 4461SOL    HW215281  11.156   9.469   9.349
 4462SOL     OW15282  10.992  14.451   7.239
 4462SOL    HW115283  10.973  14.415   7.153
 4462SOL    HW215284  10.967  14.382   7.301
 4463SOL     OW15285  12.960   7.751   2.888
 4463SOL    HW115286  12.865   7.745   2.904
 4463SOL    HW215287  12.999   7.730   2.973
 4464SOL     OW15288  14.321   3.518   3.635
 4464SOL    HW115289  14.236   3.475   3.645
 4464SOL    HW215290  14.325   3.541   3.542
 4465SOL     OW15291   5.680   5.048   3.789
 4465SOL    HW115292   5.703   5.132   3.748
 4465SOL    HW215293   5.722   5.051   3.875
 4466SOL     OW15294  13.239   3.514   4.635
 4466SOL    HW115295  13.295   3.534   4.559
 4466SOL    HW215296  13.173   3.583   4.634
 4467SOL     OW15297   4.401   6.483   6.281
 4467SOL    HW115298   4.386   6.569   6.242
 4467SOL    HW215299   4.318   6.462   6.325
 4468SOL     OW15300   8.425   3.663   7.238
 4468SOL    HW115301   8.441   3.718   7.161
 4468SOL    HW215302   8.366   3.595   7.207
 4469SOL     OW15303   0.258   1.591  14.137
 4469SOL    HW115304   0.308   1.659  14.092
 4469SOL    HW215305   0.322   1.526  14.163
 4470SOL     OW15306   7.521   2.441   1.884
 4470SOL    HW115307   7.563   2.472   1.964
 4470SOL    HW215308   7.462   2.512   1.859
 4471SOL     OW15309   0.929  13.415   3.346
 4471SOL    HW115310   0.892  13.503   3.348
 4471SOL    HW215311   0.852  13.357   3.344
 4472SOL     OW15312   0.484  11.274   8.098
 4472SOL    HW115313   0.438  11.350   8.135
 4472SOL    HW215314   0.575  11.303   8.089
 4473SOL     OW15315  12.470  13.562   1.411
 4473SOL    HW115316  12.533  13.615   1.459
 4473SOL    HW215317  12.462  13.481   1.462
 4474SOL     OW15318   4.518  10.857   6.764
 4474SOL    HW115319   4.590  10.907   6.805
 4474SOL    HW215320   4.496  10.790   6.828
 4475SOL     OW15321   2.721   7.310  10.355
 4475SOL    HW115322   2.676   7.352  10.281
 4475SOL    HW215323   2.774   7.379  10.394
 4476SOL     OW15324   7.510   6.813  14.072
 4476SOL    HW115325   7.602   6.792  14.089
 4476SOL    HW215326   7.492   6.776  13.986
 4477SOL     OW15327   6.543   3.027   7.725
 4477SOL    HW115328   6.607   3.039   7.796
 4477SOL    HW215329   6.484   3.102   7.734
 4478SOL     OW15330   6.208   8.434   1.777
 4478SOL    HW115331   6.211   8.341   1.801
 4478SOL    HW215332   6.123   8.445   1.735
 4479SOL     OW15333  14.826  11.272  11.529
 4479SOL    HW115334  14.786  11.358  11.545
 4479SOL    HW215335  14.806  11.253  11.438
 4480SOL     OW15336  12.155   3.727   3.797
 4480SOL    HW115337  12.109   3.645   3.781
 4480SOL    HW215338  12.236   3.720   3.746
 4481SOL     OW15339  14.362   2.228   6.639
 4481SOL    HW115340  14.354   2.321   6.660
 4481SOL    HW215341  14.404   2.190   6.716
 4482SOL     OW15342  13.041  11.087  14.062
 4482SOL    HW115343  13.129  11.124  14.055
 4482SOL    HW215344  13.041  11.012  14.003
 4483SOL     OW15345   9.464  13.031  13.861
 4483SOL    HW115346   9.519  13.008  13.936
 4483SOL    HW215347   9.434  13.120  13.878
 4484SOL     OW15348  14.114  10.461   6.563
 4484SOL    HW115349  14.126  10.556   6.564
 4484SOL    HW215350  14.021  10.449   6.541
 4485SOL     OW15351   0.135  14.389   0.359
 4485SOL    HW115352   0.111  14.470   0.312
 4485SOL    HW215353   0.083  14.321   0.317
 4486SOL     OW15354   8.868   2.175  12.836
 4486SOL    HW115355   8.793   2.233  12.845
 4486SOL    HW215356   8.853   2.130  12.753
 4487SOL     OW15357   7.533   3.831   8.877
 4487SOL    HW115358   7.451   3.811   8.834
 4487SOL    HW215359   7.593   3.762   8.849
 4488SOL     OW15360   9.578   6.189  13.571
 4488SOL    HW115361   9.619   6.242  13.503
 4488SOL    HW215362   9.642   6.121  13.591
 4489SOL     OW15363  12.467   3.162   0.292
 4489SOL    HW115364  12.492   3.083   0.340
 4489SOL    HW215365  12.481   3.141   0.200
 4490SOL     OW15366   3.319  14.546   9.551
 4490SOL    HW115367   3.223  14.540   9.549
 4490SOL    HW215368   3.349  14.457   9.537
 4491SOL     OW15369  12.571  13.194   7.826
 4491SOL    HW115370  12.609  13.281   7.834
 4491SOL    HW215371  12.477  13.211   7.812
 4492SOL     OW15372   6.005  13.581   7.619
 4492SOL    HW115373   6.084  13.624   7.651
 4492SOL    HW215374   6.036  13.501   7.578
 4493SOL     OW15375  10.583  12.284   6.027
 4493SOL    HW115376  10.583  12.206   6.082
 4493SOL    HW215377  10.518  12.265   5.959
 4494SOL     OW15378  11.823  12.473   1.201
 4494SOL    HW115379  11.873  12.548   1.235
 4494SOL    HW215380  11.748  12.466   1.260
 4495SOL     OW15381   6.234   5.933  13.036
 4495SOL    HW115382   6.325   5.956  13.051
 4495SOL    HW215383   6.207   5.986  12.961
 4496SOL     OW15384   1.441  12.765   1.032
 4496SOL    HW115385   1.509  12.830   1.016
 4496SOL    HW215386   1.472  12.686   0.989
 4497SOL     OW15387   1.520   5.147   5.700
 4497SOL    HW115388   1.453   5.215   5.699
 4497SOL    HW215389   1.558   5.149   5.612
 4498SOL     OW15390   5.464  12.265   8.648
 4498SOL    HW115391   5.542  12.211   8.659
 4498SOL    HW215392   5.402  12.208   8.602
 4499SOL     OW15393  12.886   8.424  13.931
 4499SOL    HW115394  12.943   8.444  14.005
 4499SOL    HW215395  12.837   8.347  13.959
 4500SOL     OW15396  11.258  12.395   3.798
 4500SOL    HW115397  11.224  12.406   3.886
 4500SOL    HW215398  11.188  12.427   3.741
 4501SOL     OW15399   0.054  13.239   4.416
 4501SOL    HW115400   0.064  13.333   4.427
 4501SOL    HW215401  14.866  13.212   4.488
 4502SOL     OW15402   1.368   4.507  13.295
 4502SOL    HW115403   1.275   4.507  13.316
 4502SOL    HW215404   1.391   4.414  13.290
 4503SOL     OW15405  12.575   6.020   9.266
 4503SOL    HW115406  12.553   6.112   9.279
 4503SOL    HW215407  12.625   5.996   9.344
 4504SOL     OW15408  11.375  14.094   8.877
 4504SOL    HW115409  11.315  14.020   8.877
 4504SOL    HW215410  11.326  14.164   8.922
 4505SOL     OW15411   1.045   1.016   8.534
 4505SOL    HW115412   1.083   0.980   8.613
 4505SOL    HW215413   1.005   1.099   8.561
 4506SOL     OW15414   0.232   9.123   9.018
 4506SOL    HW115415   0.316   9.161   9.046
 4506SOL    HW215416   0.255   9.068   8.943
 4507SOL     OW15417   7.914  13.701  12.333
 4507SOL    HW115418   7.940  13.733  12.247
 4507SOL    HW215419   7.832  13.746  12.352
 4508SOL     OW15420   4.780   8.770   0.442
 4508SOL    HW115421   4.697   8.795   0.401
 4508SOL    HW215422   4.784   8.822   0.523
 4509SOL     OW15423   8.212   7.326   2.312
 4509SOL    HW115424   8.292   7.292   2.352
 4509SOL    HW215425   8.141   7.285   2.361
 4510SOL     OW15426   8.290   7.145  12.799
 4510SOL    HW115427   8.342   7.220  12.829
 4510SOL    HW215428   8.353   7.074  12.793
 4511SOL     OW15429   5.696  14.810  12.743
 4511SOL    HW115430   5.772  14.756  12.764
 4511SOL    HW215431   5.702  14.823  12.648
 4512SOL     OW15432   4.921   6.831   7.998
 4512SOL    HW115433   4.882   6.890   8.063
 4512SOL    HW215434   4.847   6.807   7.942
 4513SOL     OW15435  12.314  11.127   5.405
 4513SOL    HW115436  12.408  11.125   5.391
 4513SOL    HW215437  12.303  11.151   5.497
 4514SOL     OW15438   2.018   7.290  13.129
 4514SOL    HW115439   1.963   7.226  13.084
 4514SOL    HW215440   1.958   7.363  13.148
 4515SOL     OW15441  10.266   1.188   9.580
 4515SOL    HW115442  10.231   1.242   9.651
 4515SOL    HW215443  10.286   1.250   9.510
 4516SOL     OW15444   1.265   0.187   8.691
 4516SOL    HW115445   1.289   0.155   8.777
 4516SOL    HW215446   1.169   0.184   8.689
 4517SOL     OW15447   1.486   0.650   4.924
 4517SOL    HW115448   1.436   0.618   4.848
 4517SOL    HW215449   1.572   0.673   4.888
 4518SOL     OW15450   4.617  13.986  10.923
 4518SOL    HW115451   4.603  13.892  10.933
 4518SOL    HW215452   4.556  14.026  10.985
 4519SOL     OW15453   5.575   2.185   3.702
 4519SOL    HW115454   5.658   2.192   3.656
 4519SOL    HW215455   5.594   2.131   3.779
 4520SOL     OW15456   1.222   2.839  14.739
 4520SOL    HW115457   1.177   2.792  14.810
 4520SOL    HW215458   1.297   2.880  14.782
 4521SOL     OW15459   0.931   5.565   4.636
 4521SOL    HW115460   0.969   5.541   4.552
 4521SOL    HW215461   0.888   5.649   4.620
 4522SOL     OW15462   6.088   8.604   4.919
 4522SOL    HW115463   6.093   8.616   4.824
 4522SOL    HW215464   6.014   8.544   4.932
 4523SOL     OW15465   1.261   3.634  14.096
 4523SOL    HW115466   1.180   3.637  14.147
 4523SOL    HW215467   1.235   3.597  14.012
 4524SOL     OW15468   1.466   7.252   1.438
 4524SOL    HW115469   1.425   7.214   1.360
 4524SOL    HW215470   1.417   7.214   1.511
 4525SOL     OW15471   7.957  12.050  11.247
 4525SOL    HW115472   7.902  12.108  11.300
 4525SOL    HW215473   8.013  12.109  11.196
 4526SOL     OW15474   0.587   0.218  14.519
 4526SOL    HW115475   0.502   0.182  14.542
 4526SOL    HW215476   0.580   0.238  14.425
 4527SOL     OW15477   1.440  11.081   7.673
 4527SOL    HW115478   1.441  11.013   7.740
 4527SOL    HW215479   1.362  11.062   7.621
 4528SOL     OW15480  14.059   4.105  11.291
 4528SOL    HW115481  14.059   4.062  11.205
 4528SOL    HW215482  14.114   4.183  11.279
 4529SOL     OW15483  11.755   6.157  10.045
 4529SOL    HW115484  11.691   6.211   9.998
 4529SOL    HW215485  11.768   6.202  10.128
 4530SOL     OW15486  14.397  12.568  14.127
 4530SOL    HW115487  14.337  12.642  14.122
 4530SOL    HW215488  14.341  12.492  14.139
 4531SOL     OW15489  13.803   7.674   4.818
 4531SOL    HW115490  13.709   7.689   4.804
 4531SOL    HW215491  13.815   7.582   4.795
 4532SOL     OW15492   5.776   9.742   3.295
 4532SOL    HW115493   5.726   9.712   3.220
 4532SOL    HW215494   5.820   9.664   3.328
 4533SOL     OW15495   4.080  14.056   4.678
 4533SOL    HW115496   4.085  14.054   4.774
 4533SOL    HW215497   4.014  13.990   4.656
 4534SOL     OW15498   3.707   1.020  12.068
 4534SOL    HW115499   3.704   0.985  11.979
 4534SOL    HW215500   3.729   1.112  12.056
 4535SOL     OW15501  12.529  12.942   4.597
 4535SOL    HW115502  12.520  12.904   4.509
 4535SOL    HW215503  12.619  12.973   4.600
 4536SOL     OW15504   9.658   9.136   9.851
 4536SOL    HW115505   9.616   9.223   9.854
 4536SOL    HW215506   9.656   9.105   9.941
 4537SOL     OW15507   7.621  12.523   6.481
 4537SOL    HW115508   7.655  12.435   6.466
 4537SOL    HW215509   7.556  12.513   6.550
 4538SOL     OW15510   3.924   1.231  10.338
 4538SOL    HW115511   3.937   1.155  10.282
 4538SOL    HW215512   4.004   1.283  10.327
 4539SOL     OW15513   6.866   1.822   1.559
 4539SOL    HW115514   6.806   1.896   1.562
 4539SOL    HW215515   6.941   1.851   1.611
 4540SOL     OW15516  10.817  13.411  14.282
 4540SOL    HW115517  10.839  13.335  14.336
 4540SOL    HW215518  10.825  13.379  14.192
 4541SOL     OW15519   3.632   9.877   7.305
 4541SOL    HW115520   3.668   9.854   7.391
 4541SOL    HW215521   3.666   9.965   7.288
 4542SOL     OW15522  10.226  12.991   4.120
 4542SOL    HW115523  10.207  12.928   4.051
 4542SOL    HW215524  10.293  12.948   4.174
 4543SOL     OW15525   1.391   5.524   3.831
 4543SOL    HW115526   1.321   5.578   3.794
 4543SOL    HW215527   1.425   5.476   3.757
 4544SOL     OW15528   7.734  12.105   0.489
 4544SOL    HW115529   7.769  12.177   0.437
 4544SOL    HW215530   7.686  12.147   0.560
 4545SOL     OW15531   7.003   8.140   0.556
 4545SOL    HW115532   6.973   8.221   0.597
 4545SOL    HW215533   7.054   8.169   0.480
 4546SOL     OW15534   5.709   0.231  14.460
 4546SOL    HW115535   5.689   0.181  14.540
 4546SOL    HW215536   5.623   0.261  14.429
 4547SOL     OW15537   2.446   5.727   5.000
 4547SOL    HW115538   2.498   5.682   4.933
 4547SOL    HW215539   2.498   5.803   5.025
 4548SOL     OW15540  10.478  12.718   3.115
 4548SOL    HW115541  10.394  12.700   3.073
 4548SOL    HW215542  10.542  12.720   3.044
 4549SOL     OW15543   0.810   5.881  14.212
 4549SOL    HW115544   0.830   5.807  14.269
 4549SOL    HW215545   0.813   5.845  14.124
 4550SOL     OW15546  13.562   2.435   6.674
 4550SOL    HW115547  13.582   2.455   6.766
 4550SOL    HW215548  13.621   2.363   6.652
 4551SOL     OW15549   0.102   6.892  11.916
 4551SOL    HW115550   0.110   6.985  11.895
 4551SOL    HW215551   0.144   6.848  11.842
 4552SOL     OW15552   4.359   0.510   9.207
 4552SOL    HW115553   4.286   0.517   9.268
 4552SOL    HW215554   4.414   0.587   9.227
 4553SOL     OW15555   7.857   2.885  11.304
 4553SOL    HW115556   7.787   2.826  11.332
 4553SOL    HW215557   7.934   2.829  11.298
 4554SOL     OW15558   6.606  11.274   9.361
 4554SOL    HW115559   6.577  11.365   9.360
 4554SOL    HW215560   6.700  11.279   9.381
 4555SOL     OW15561  12.939  11.097   3.625
 4555SOL    HW115562  12.979  11.056   3.701
 4555SOL    HW215563  12.965  11.042   3.551
 4556SOL     OW15564  13.470   5.240   5.320
 4556SOL    HW115565  13.425   5.178   5.378
 4556SOL    HW215566  13.411   5.316   5.317
 4557SOL     OW15567  10.918   9.854   2.791
 4557SOL    HW115568  11.002   9.893   2.813
 4557SOL    HW215569  10.879   9.831   2.876
 4558SOL     OW15570   6.889  11.347   2.850
 4558SOL    HW115571   6.836  11.421   2.822
 4558SOL    HW215572   6.838  11.305   2.919
 4559SOL     OW15573   4.337   7.266  10.868
 4559SOL    HW115574   4.425   7.279  10.904
 4559SOL    HW215575   4.350   7.207  10.794
 4560SOL     OW15576  13.397  14.760   8.906
 4560SOL    HW115577  13.441  14.810   8.975
 4560SOL    HW215578  13.309  14.796   8.902
 4561SOL     OW15579  12.126  11.556  10.359
 4561SOL    HW115580  12.136  11.517  10.272
 4561SOL    HW215581  12.174  11.499  10.418
 4562SOL     OW15582   6.245   9.007   2.674
 4562SOL    HW115583   6.153   9.007   2.650
 4562SOL    HW215584   6.254   9.083   2.732
 4563SOL     OW15585   1.386   3.301   5.456
 4563SOL    HW115586   1.360   3.266   5.371
 4563SOL    HW215587   1.328   3.258   5.519
 4564SOL     OW15588   4.829   8.763   5.012
 4564SOL    HW115589   4.909   8.785   4.965
 4564SOL    HW215590   4.790   8.847   5.035
 4565SOL     OW15591   2.745   9.163   0.638
 4565SOL    HW115592   2.663   9.116   0.626
 4565SOL    HW215593   2.730   9.249   0.598
 4566SOL     OW15594  12.531  11.949   8.416
 4566SOL    HW115595  12.514  11.951   8.322
 4566SOL    HW215596  12.521  11.857   8.440
 4567SOL     OW15597   6.691   5.190   2.723
 4567SOL    HW115598   6.696   5.285   2.735
 4567SOL    HW215599   6.747   5.172   2.647
 4568SOL     OW15600   0.915   0.135   1.895
 4568SOL    HW115601   0.932   0.089   1.813
 4568SOL    HW215602   0.890   0.065   1.956
 4569SOL     OW15603   9.475   2.538  12.022
 4569SOL    HW115604   9.551   2.547  11.963
 4569SOL    HW215605   9.498   2.589  12.099
 4570SOL     OW15606   1.520  13.053   2.488
 4570SOL    HW115607   1.579  12.994   2.534
 4570SOL    HW215608   1.514  13.130   2.544
 4571SOL     OW15609   8.355   6.331   9.119
 4571SOL    HW115610   8.397   6.407   9.159
 4571SOL    HW215611   8.384   6.332   9.028
 4572SOL     OW15612   8.363  12.885   0.344
 4572SOL    HW115613   8.329  12.904   0.256
 4572SOL    HW215614   8.423  12.957   0.362
 4573SOL     OW15615  12.229  14.499   8.972
 4573SOL    HW115616  12.160  14.561   8.948
 4573SOL    HW215617  12.308  14.533   8.931
 4574SOL     OW15618   7.674   5.738   5.442
 4574SOL    HW115619   7.754   5.715   5.396
 4574SOL    HW215620   7.698   5.813   5.496
 4575SOL     OW15621  10.917   4.821   0.161
 4575SOL    HW115622  10.893   4.899   0.111
 4575SOL    HW215623  10.923   4.751   0.096
 4576SOL     OW15624   8.924   0.123   0.538
 4576SOL    HW115625   8.944   0.216   0.530
 4576SOL    HW215626   8.869   0.116   0.615
 4577SOL     OW15627   2.334   9.448  10.643
 4577SOL    HW115628   2.364   9.397  10.718
 4577SOL    HW215629   2.239   9.442  10.646
 4578SOL     OW15630  13.525   8.719  12.491
 4578SOL    HW115631  13.576   8.709  12.571
 4578SOL    HW215632  13.591   8.732  12.422
 4579SOL     OW15633   9.183  10.433   8.281
 4579SOL    HW115634   9.142  10.449   8.196
 4579SOL    HW215635   9.211  10.342   8.278
 4580SOL     OW15636  11.395   4.022   6.761
 4580SOL    HW115637  11.312   4.009   6.808
 4580SOL    HW215638  11.410   3.938   6.717
 4581SOL     OW15639   5.906   8.771  14.821
 4581SOL    HW115640   5.970   8.789  14.752
 4581SOL    HW215641   5.957   8.735   0.023
 4582SOL     OW15642  14.633  13.681  14.579
 4582SOL    HW115643  14.641  13.634  14.662
 4582SOL    HW215644  14.541  13.671  14.555
 4583SOL     OW15645   7.987   6.497   3.835
 4583SOL    HW115646   7.899   6.532   3.823
 4583SOL    HW215647   8.043   6.552   3.781
 4584SOL     OW15648   5.930  12.188   7.406
 4584SOL    HW115649   5.937  12.213   7.498
 4584SOL    HW215650   5.998  12.122   7.394
 4585SOL     OW15651   0.387   4.122   2.487
 4585SOL    HW115652   0.325   4.127   2.414
 4585SOL    HW215653   0.333   4.100   2.563
 4586SOL     OW15654  11.800   3.403   5.276
 4586SOL    HW115655  11.881   3.435   5.236
 4586SOL    HW215656  11.765   3.478   5.323
 4587SOL     OW15657   1.556  14.135   3.050
 4587SOL    HW115658   1.619  14.105   2.985
 4587SOL    HW215659   1.473  14.096   3.021
 4588SOL     OW15660  14.075   3.458   8.406
 4588SOL    HW115661  14.015   3.395   8.365
 4588SOL    HW215662  14.056   3.451   8.499
 4589SOL     OW15663   3.647   7.927   0.470
 4589SOL    HW115664   3.615   7.985   0.400
 4589SOL    HW215665   3.606   7.843   0.450
 4590SOL     OW15666   2.895   7.463   8.579
 4590SOL    HW115667   2.824   7.412   8.539
 4590SOL    HW215668   2.975   7.422   8.548
 4591SOL     OW15669  14.838  10.809  13.459
 4591SOL    HW115670  14.835  10.717  13.432
 4591SOL    HW215671  14.791  10.855  13.390
 4592SOL     OW15672   3.833   4.780   0.721
 4592SOL    HW115673   3.770   4.729   0.772
 4592SOL    HW215674   3.915   4.731   0.728
 4593SOL     OW15675  13.264  13.443   5.732
 4593SOL    HW115676  13.261  13.464   5.638
 4593SOL    HW215677  13.348  13.478   5.761
 4594SOL     OW15678   1.398  14.546   4.049
 4594SOL    HW115679   1.437  14.615   4.103
 4594SOL    HW215680   1.463  14.528   3.981
 4595SOL     OW15681   0.490   6.693   5.766
 4595SOL    HW115682   0.585   6.705   5.758
 4595SOL    HW215683   0.452   6.766   5.717
 4596SOL     OW15684  11.295   5.983   9.227
 4596SOL    HW115685  11.367   5.955   9.171
 4596SOL    HW215686  11.313   5.941   9.312
 4597SOL     OW15687   6.963  14.150   7.309
 4597SOL    HW115688   6.962  14.242   7.335
 4597SOL    HW215689   7.054  14.132   7.287
 4598SOL     OW15690   4.579  11.952   5.938
 4598SOL    HW115691   4.508  11.937   5.876
 4598SOL    HW215692   4.603  12.044   5.926
 4599SOL     OW15693   2.402   9.687   8.263
 4599SOL    HW115694   2.325   9.702   8.317
 4599SOL    HW215695   2.368   9.677   8.174
 4600SOL     OW15696   6.113   7.043   7.579
 4600SOL    HW115697   6.107   7.136   7.598
 4600SOL    HW215698   6.109   7.000   7.664
 4601SOL     OW15699   5.047   3.605  11.217
 4601SOL    HW115700   4.989   3.558  11.157
 4601SOL    HW215701   5.074   3.683  11.168
 4602SOL     OW15702   7.256  11.595  11.193
 4602SOL    HW115703   7.338  11.609  11.144
 4602SOL    HW215704   7.188  11.597  11.125
 4603SOL     OW15705  10.752   6.425   8.552
 4603SOL    HW115706  10.725   6.354   8.494
 4603SOL    HW215707  10.840   6.400   8.581
 4604SOL     OW15708  10.137   7.682  11.708
 4604SOL    HW115709  10.083   7.741  11.655
 4604SOL    HW215710  10.225   7.692  11.672
 4605SOL     OW15711   8.703   9.631   3.625
 4605SOL    HW115712   8.637   9.625   3.557
 4605SOL    HW215713   8.661   9.682   3.695
 4606SOL     OW15714  13.533   0.588   8.804
 4606SOL    HW115715  13.543   0.542   8.887
 4606SOL    HW215716  13.622   0.596   8.770
 4607SOL     OW15717   4.117  12.772   9.331
 4607SOL    HW115718   4.115  12.867   9.315
 4607SOL    HW215719   4.179  12.739   9.266
 4608SOL     OW15720   4.647   5.245   7.517
 4608SOL    HW115721   4.640   5.301   7.595
 4608SOL    HW215722   4.598   5.165   7.541
 4609SOL     OW15723   4.176   5.700   4.991
 4609SOL    HW115724   4.214   5.671   5.073
 4609SOL    HW215725   4.123   5.777   5.014
 4610SOL     OW15726   7.353   9.170   9.713
 4610SOL    HW115727   7.406   9.134   9.784
 4610SOL    HW215728   7.412   9.172   9.637
 4611SOL     OW15729   9.062  12.196   4.050
 4611SOL    HW115730   9.033  12.276   4.007
 4611SOL    HW215731   9.153  12.186   4.022
 4612SOL     OW15732   6.055  10.607   8.869
 4612SOL    HW115733   6.024  10.629   8.956
 4612SOL    HW215734   6.024  10.678   8.813
 4613SOL     OW15735   5.500   2.344   4.080
 4613SOL    HW115736   5.466   2.255   4.087
 4613SOL    HW215737   5.592   2.337   4.102
 4614SOL     OW15738   9.969  14.389   2.082
 4614SOL    HW115739  10.056  14.386   2.041
 4614SOL    HW215740   9.909  14.362   2.013
 4615SOL     OW15741  14.838   7.837   4.776
 4615SOL    HW115742   0.049   7.805   4.817
 4615SOL    HW215743  14.782   7.860   4.850
 4616SOL     OW15744  10.971   5.579  11.006
 4616SOL    HW115745  10.956   5.486  10.993
 4616SOL    HW215746  11.066   5.588  11.011
 4617SOL     OW15747   7.359   1.198   0.632
 4617SOL    HW115748   7.405   1.136   0.688
 4617SOL    HW215749   7.266   1.175   0.642
 4618SOL     OW15750   0.975   7.862   1.772
 4618SOL    HW115751   1.019   7.785   1.806
 4618SOL    HW215752   0.986   7.928   1.840
 4619SOL     OW15753   0.018  12.186  10.884
 4619SOL    HW115754  14.841  12.228  10.812
 4619SOL    HW215755   0.071  12.118  10.841
 4620SOL     OW15756  11.853   9.108   2.677
 4620SOL    HW115757  11.804   9.042   2.629
 4620SOL    HW215758  11.796   9.131   2.751
 4621SOL     OW15759   4.841   0.247   2.377
 4621SOL    HW115760   4.932   0.258   2.407
 4621SOL    HW215761   4.788   0.289   2.445
 4622SOL     OW15762  14.810   0.596   5.011
 4622SOL    HW115763  14.809   0.651   4.932
 4622SOL    HW215764  14.823   0.507   4.979
 4623SOL     OW15765   7.161  12.383   6.290
 4623SOL    HW115766   7.207  12.358   6.371
 4623SOL    HW215767   7.208  12.337   6.221
 4624SOL     OW15768   8.912   9.969  13.935
 4624SOL    HW115769   8.912  10.050  13.883
 4624SOL    HW215770   8.914   9.998  14.026
 4625SOL     OW15771   6.452  10.923   6.034
 4625SOL    HW115772   6.529  10.980   6.023
 4625SOL    HW215773   6.488  10.835   6.042
 4626SOL     OW15774  14.749  13.563   0.461
 4626SOL    HW115775  14.765  13.655   0.440
 4626SOL    HW215776  14.835  13.529   0.485
 4627SOL     OW15777  10.565   2.353  10.098
 4627SOL    HW115778  10.577   2.258  10.104
 4627SOL    HW215779  10.497   2.372  10.162
 4628SOL     OW15780  10.195   7.934   4.720
 4628SOL    HW115781  10.220   7.842   4.727
 4628SOL    HW215782  10.150   7.952   4.802
 4629SOL     OW15783   1.276  10.819  12.929
 4629SOL    HW115784   1.193  10.841  12.969
 4629SOL    HW215785   1.342  10.837  12.996
 4630SOL     OW15786   7.709   5.707  14.757
 4630SOL    HW115787   7.655   5.640  14.715
 4630SOL    HW215788   7.688   5.787  14.709
 4631SOL     OW15789   7.536  11.334  11.740
 4631SOL    HW115790   7.538  11.269  11.810
 4631SOL    HW215791   7.586  11.407  11.774
 4632SOL     OW15792   7.928   6.478   1.094
 4632SOL    HW115793   7.916   6.471   0.999
 4632SOL    HW215794   8.022   6.465   1.108
 4633SOL     OW15795   1.861   7.836  14.374
 4633SOL    HW115796   1.847   7.749  14.338
 4633SOL    HW215797   1.797   7.891  14.328
 4634SOL     OW15798   9.191  14.492  12.545
 4634SOL    HW115799   9.207  14.515  12.453
 4634SOL    HW215800   9.189  14.396  12.545
 4635SOL     OW15801   9.993   3.271   7.256
 4635SOL    HW115802   9.962   3.283   7.346
 4635SOL    HW215803   9.916   3.291   7.202
 4636SOL     OW15804  13.900  14.035   7.840
 4636SOL    HW115805  13.937  13.946   7.844
 4636SOL    HW215806  13.847  14.035   7.760
 4637SOL     OW15807   1.685  14.039   7.037
 4637SOL    HW115808   1.685  14.096   7.115
 4637SOL    HW215809   1.595  14.043   7.004
 4638SOL     OW15810   5.518   3.576   4.331
 4638SOL    HW115811   5.515   3.480   4.338
 4638SOL    HW215812   5.516   3.593   4.237
 4639SOL     OW15813   0.319  14.812  11.649
 4639SOL    HW115814   0.366  14.729  11.641
 4639SOL    HW215815   0.318  14.848  11.560
 4640SOL     OW15816  14.392   2.665   2.182
 4640SOL    HW115817  14.373   2.752   2.146
 4640SOL    HW215818  14.462   2.631   2.127
 4641SOL     OW15819  13.959   0.808   0.708
 4641SOL    HW115820  13.875   0.766   0.728
 4641SOL    HW215821  13.955   0.828   0.615
 4642SOL     OW15822   9.630   3.173   9.869
 4642SOL    HW115823   9.706   3.190   9.926
 4642SOL    HW215824   9.602   3.084   9.892
 4643SOL     OW15825  11.644   0.488   2.622
 4643SOL    HW115826  11.672   0.403   2.587
 4643SOL    HW215827  11.663   0.483   2.716
 4644SOL     OW15828   2.102   7.677   3.112
 4644SOL    HW115829   2.059   7.746   3.162
 4644SOL    HW215830   2.153   7.628   3.177
 4645SOL     OW15831  14.554  10.706   1.558
 4645SOL    HW115832  14.638  10.750   1.571
 4645SOL    HW215833  14.497  10.742   1.626
 4646SOL     OW15834  14.848  13.868   0.726
 4646SOL    HW115835  14.801  13.804   0.780
 4646SOL    HW215836   0.069  13.863   0.755
 4647SOL     OW15837   8.831   2.764   0.021
 4647SOL    HW115838   8.838   2.680   0.066
 4647SOL    HW215839   8.747   2.799   0.049
 4648SOL     OW15840   6.197   3.039  11.653
 4648SOL    HW115841   6.225   3.130  11.661
 4648SOL    HW215842   6.277   2.987  11.665
 4649SOL     OW15843   0.464   5.714  10.537
 4649SOL    HW115844   0.477   5.648  10.604
 4649SOL    HW215845   0.373   5.741  10.547
 4650SOL     OW15846  10.671   2.208   1.364
 4650SOL    HW115847  10.760   2.237   1.386
 4650SOL    HW215848  10.639   2.168   1.445
 4651SOL     OW15849   7.158   5.370   4.645
 4651SOL    HW115850   7.197   5.421   4.573
 4651SOL    HW215851   7.167   5.279   4.617
 4652SOL     OW15852   0.830   3.950   2.033
 4652SOL    HW115853   0.908   3.920   2.079
 4652SOL    HW215854   0.856   3.956   1.941
 4653SOL     OW15855   2.112   1.743   1.404
 4653SOL    HW115856   2.019   1.766   1.409
 4653SOL    HW215857   2.140   1.773   1.318
 4654SOL     OW15858   9.024   6.870   4.465
 4654SOL    HW115859   9.009   6.775   4.460
 4654SOL    HW215860   9.090   6.887   4.399
 4655SOL     OW15861   2.769  12.247  14.469
 4655SOL    HW115862   2.687  12.200  14.453
 4655SOL    HW215863   2.794  12.221  14.557
 4656SOL     OW15864  13.081  10.006   1.108
 4656SOL    HW115865  13.154   9.962   1.065
 4656SOL    HW215866  13.067  10.085   1.055
 4657SOL     OW15867   2.394   7.084   7.684
 4657SOL    HW115868   2.400   7.166   7.636
 4657SOL    HW215869   2.345   7.107   7.764
 4658SOL     OW15870   2.698   8.613   8.120
 4658SOL    HW115871   2.791   8.636   8.111
 4658SOL    HW215872   2.681   8.618   8.214
 4659SOL     OW15873   0.499  12.779   7.629
 4659SOL    HW115874   0.510  12.828   7.548
 4659SOL    HW215875   0.422  12.818   7.670
 4660SOL     OW15876   7.750   3.699   6.779
 4660SOL    HW115877   7.687   3.635   6.812
 4660SOL    HW215878   7.721   3.717   6.689
 4661SOL     OW15879   7.052  10.057   6.109
 4661SOL    HW115880   7.083  10.078   6.021
 4661SOL    HW215881   6.957  10.068   6.104
 4662SOL     OW15882   7.958  13.070   4.708
 4662SOL    HW115883   8.032  13.124   4.680
 4662SOL    HW215884   7.914  13.045   4.626
 4663SOL     OW15885   8.258  12.562  12.660
 4663SOL    HW115886   8.339  12.611  12.676
 4663SOL    HW215887   8.289  12.477  12.627
 4664SOL     OW15888   5.533   2.463   1.592
 4664SOL    HW115889   5.556   2.372   1.571
 4664SOL    HW215890   5.528   2.506   1.507
 4665SOL     OW15891  11.343   7.806  14.452
 4665SOL    HW115892  11.322   7.859  14.529
 4665SOL    HW215893  11.281   7.835  14.385
 4666SOL     OW15894   9.556  12.051   6.153
 4666SOL    HW115895   9.555  12.000   6.072
 4666SOL    HW215896   9.627  12.012   6.205
 4667SOL     OW15897   0.718   9.551   9.184
 4667SOL    HW115898   0.632   9.567   9.224
 4667SOL    HW215899   0.758   9.637   9.178
 4668SOL     OW15900   6.943   2.049  10.847
 4668SOL    HW115901   6.879   2.025  10.914
 4668SOL    HW215902   7.011   2.096  10.895
 4669SOL     OW15903   5.217  13.219   9.562
 4669SOL    HW115904   5.180  13.209   9.650
 4669SOL    HW215905   5.284  13.150   9.557
 4670SOL     OW15906  14.215   4.735  14.298
 4670SOL    HW115907  14.205   4.722  14.204
 4670SOL    HW215908  14.237   4.648  14.332
 4671SOL     OW15909  13.764  11.389   2.450
 4671SOL    HW115910  13.787  11.338   2.528
 4671SOL    HW215911  13.672  11.366   2.433
 4672SOL     OW15912  12.111   3.107   5.564
 4672SOL    HW115913  12.026   3.062   5.567
 4672SOL    HW215914  12.144   3.088   5.476
 4673SOL     OW15915   4.311   2.843  13.162
 4673SOL    HW115916   4.283   2.934  13.168
 4673SOL    HW215917   4.232   2.795  13.140
 4674SOL     OW15918  11.127   2.493   5.105
 4674SOL    HW115919  11.053   2.498   5.166
 4674SOL    HW215920  11.159   2.403   5.113
 4675SOL     OW15921   7.920   1.688   1.783
 4675SOL    HW115922   7.918   1.677   1.878
 4675SOL    HW215923   8.013   1.689   1.760
 4676SOL     OW15924  12.018  13.429   9.799
 4676SOL    HW115925  11.945  13.416   9.739
 4676SOL    HW215926  12.095  13.432   9.743
 4677SOL     OW15927   6.112   5.966   5.802
 4677SOL    HW115928   6.031   6.016   5.815
 4677SOL    HW215929   6.095   5.882   5.845
 4678SOL     OW15930   0.356   0.352   9.900
 4678SOL    HW115931   0.329   0.443   9.910
 4678SOL    HW215932   0.276   0.306   9.871
 4679SOL     OW15933  11.296   3.097  10.579
 4679SOL    HW115934  11.313   3.027  10.515
 4679SOL    HW215935  11.270   3.172  10.526
 4680SOL     OW15936   1.798   1.018   0.892
 4680SOL    HW115937   1.718   1.005   0.944
 4680SOL    HW215938   1.868   0.983   0.947
 4681SOL     OW15939   3.192   6.499  12.098
 4681SOL    HW115940   3.259   6.495  12.029
 4681SOL    HW215941   3.172   6.592  12.105
 4682SOL     OW15942   2.577   2.439   2.096
 4682SOL    HW115943   2.496   2.445   2.147
 4682SOL    HW215944   2.600   2.530   2.076
 4683SOL     OW15945  10.576   2.897   1.471
 4683SOL    HW115946  10.612   2.877   1.385
 4683SOL    HW215947  10.600   2.821   1.525
 4684SOL     OW15948   3.603   1.883   1.295
 4684SOL    HW115949   3.510   1.860   1.293
 4684SOL    HW215950   3.631   1.862   1.384
 4685SOL     OW15951   9.296  10.184   4.822
 4685SOL    HW115952   9.338  10.152   4.742
 4685SOL    HW215953   9.202  10.170   4.808
 4686SOL     OW15954   3.349   3.483  13.616
 4686SOL    HW115955   3.298   3.540  13.674
 4686SOL    HW215956   3.373   3.539  13.543
 4687SOL     OW15957   7.185  13.149   1.944
 4687SOL    HW115958   7.247  13.191   2.004
 4687SOL    HW215959   7.178  13.059   1.976
 4688SOL     OW15960   0.239  10.954  12.374
 4688SOL    HW115961   0.245  11.049  12.386
 4688SOL    HW215962   0.147  10.938  12.353
 4689SOL     OW15963   6.114   4.945   4.313
 4689SOL    HW115964   6.059   4.892   4.255
 4689SOL    HW215965   6.138   4.887   4.384
 4690SOL     OW15966   5.455   4.557   5.699
 4690SOL    HW115967   5.461   4.514   5.784
 4690SOL    HW215968   5.534   4.529   5.652
 4691SOL     OW15969   8.310   5.113   4.600
 4691SOL    HW115970   8.358   5.139   4.521
 4691SOL    HW215971   8.350   5.164   4.670
 4692SOL     OW15972  12.529   7.435   0.498
 4692SOL    HW115973  12.469   7.380   0.447
 4692SOL    HW215974  12.532   7.518   0.450
 4693SOL     OW15975  10.419   5.455  13.665
 4693SOL    HW115976  10.331   5.432  13.634
 4693SOL    HW215977  10.470   5.375  13.654
 4694SOL     OW15978   0.970   4.170  14.135
 4694SOL    HW115979   0.959   4.087  14.182
 4694SOL    HW215980   0.888   4.217  14.149
 4695SOL     OW15981   6.638   0.801   9.486
 4695SOL    HW115982   6.567   0.860   9.509
 4695SOL    HW215983   6.599   0.738   9.425
 4696SOL     OW15984   3.062   7.636   0.986
 4696SOL    HW115985   3.106   7.716   0.957
 4696SOL    HW215986   3.132   7.572   0.993
 4697SOL     OW15987   4.801   9.288  14.516
 4697SOL    HW115988   4.855   9.324  14.586
 4697SOL    HW215989   4.858   9.226  14.471
 4698SOL     OW15990   5.335  10.604   1.336
 4698SOL    HW115991   5.393  10.634   1.406
 4698SOL    HW215992   5.387  10.615   1.256
 4699SOL     OW15993   1.262   9.722  12.668
 4699SOL    HW115994   1.339   9.692  12.620
 4699SOL    HW215995   1.248   9.811  12.635
 4700SOL     OW15996   5.958   2.758   1.218
 4700SOL    HW115997   6.015   2.761   1.295
 4700SOL    HW215998   5.943   2.851   1.197
 4701SOL     OW15999   0.707   8.853   6.704
 4701SOL    HW116000   0.672   8.766   6.687
 4701SOL    HW216001   0.631   8.911   6.704
 4702SOL     OW16002   3.708  10.481   6.416
 4702SOL    HW116003   3.731  10.398   6.458
 4702SOL    HW216004   3.774  10.543   6.447
 4703SOL     OW16005   2.951   5.458  10.588
 4703SOL    HW116006   2.911   5.458  10.501
 4703SOL    HW216007   2.882   5.492  10.645
 4704SOL     OW16008  13.263   0.635   5.927
 4704SOL    HW116009  13.219   0.550   5.916
 4704SOL    HW216010  13.307   0.628   6.012
 4705SOL     OW16011   9.988  13.091   4.806
 4705SOL    HW116012  10.019  13.168   4.757
 4705SOL    HW216013  10.065  13.060   4.853
 4706SOL     OW16014  10.122   7.695   5.268
 4706SOL    HW116015  10.212   7.722   5.285
 4706SOL    HW216016  10.125   7.650   5.184
 4707SOL     OW16017   3.831   1.499   4.760
 4707SOL    HW116018   3.859   1.435   4.694
 4707SOL    HW216019   3.870   1.581   4.731
 4708SOL     OW16020  14.689   1.551   3.199
 4708SOL    HW116021  14.599   1.523   3.181
 4708SOL    HW216022  14.694   1.555   3.294
 4709SOL     OW16023   7.215   4.041   9.899
 4709SOL    HW116024   7.228   3.993   9.817
 4709SOL    HW216025   7.244   4.130   9.879
 4710SOL     OW16026   9.263   1.913   4.458
 4710SOL    HW116027   9.280   1.819   4.458
 4710SOL    HW216028   9.294   1.943   4.372
 4711SOL     OW16029   0.840  11.238   2.783
 4711SOL    HW116030   0.866  11.330   2.784
 4711SOL    HW216031   0.804  11.225   2.695
 4712SOL     OW16032   3.427   8.813  13.952
 4712SOL    HW116033   3.387   8.747  14.009
 4712SOL    HW216034   3.508   8.837  13.997
 4713SOL     OW16035   5.046  12.128   5.201
 4713SOL    HW116036   5.104  12.105   5.129
 4713SOL    HW216037   4.960  12.093   5.175
 4714SOL     OW16038  11.882   2.253   4.576
 4714SOL    HW116039  11.841   2.183   4.525
 4714SOL    HW216040  11.810   2.314   4.594
 4715SOL     OW16041  14.727   9.914  10.669
 4715SOL    HW116042  14.659   9.866  10.621
 4715SOL    HW216043  14.755   9.983  10.609
 4716SOL     OW16044  12.763  12.882   7.169
 4716SOL    HW116045  12.689  12.822   7.171
 4716SOL    HW216046  12.726  12.965   7.139
 4717SOL     OW16047   5.545   4.256   6.400
 4717SOL    HW116048   5.585   4.290   6.480
 4717SOL    HW216049   5.619   4.234   6.344
 4718SOL     OW16050   5.707   5.696   5.657
 4718SOL    HW116051   5.684   5.603   5.658
 4718SOL    HW216052   5.626   5.740   5.633
 4719SOL     OW16053   2.808   9.006   5.663
 4719SOL    HW116054   2.901   9.004   5.637
 4719SOL    HW216055   2.797   8.930   5.720
 4720SOL     OW16056  12.891   9.009   2.804
 4720SOL    HW116057  12.921   9.026   2.714
 4720SOL    HW216058  12.876   9.096   2.841
 4721SOL     OW16059  10.596   6.198  14.203
 4721SOL    HW116060  10.523   6.250  14.169
 4721SOL    HW216061  10.557   6.144  14.272
 4722SOL     OW16062   5.102   4.768  10.383
 4722SOL    HW116063   5.147   4.745  10.464
 4722SOL    HW216064   5.168   4.755  10.314
 4723SOL     OW16065  13.390   2.796  14.730
 4723SOL    HW116066  13.333   2.719  14.726
 4723SOL    HW216067  13.435   2.788  14.814
 4724SOL     OW16068   8.780  10.429   0.761
 4724SOL    HW116069   8.778  10.339   0.793
 4724SOL    HW216070   8.692  10.443   0.725
 4725SOL     OW16071   3.408   5.494   2.399
 4725SOL    HW116072   3.446   5.541   2.325
 4725SOL    HW216073   3.384   5.408   2.363
 4726SOL     OW16074   4.458  10.519   8.532
 4726SOL    HW116075   4.499  10.561   8.457
 4726SOL    HW216076   4.484  10.573   8.607
 4727SOL     OW16077  14.735   2.578   6.506
 4727SOL    HW116078  14.697   2.518   6.570
 4727SOL    HW216079  14.815   2.610   6.548
 4728SOL     OW16080   0.618   5.477  13.290
 4728SOL    HW116081   0.601   5.405  13.351
 4728SOL    HW216082   0.646   5.434  13.209
 4729SOL     OW16083  10.482  14.389   3.632
 4729SOL    HW116084  10.415  14.430   3.578
 4729SOL    HW216085  10.470  14.426   3.719
 4730SOL     OW16086   8.435   3.489   8.957
 4730SOL    HW116087   8.344   3.517   8.972
 4730SOL    HW216088   8.469   3.551   8.893
 4731SOL     OW16089  12.365   6.431   2.062
 4731SOL    HW116090  12.276   6.458   2.039
 4731SOL    HW216091  12.388   6.368   1.994
 4732SOL     OW16092  12.358   1.530   7.677
 4732SOL    HW116093  12.321   1.467   7.615
 4732SOL    HW216094  12.441   1.492   7.704
 4733SOL     OW16095   7.535   2.960   3.438
 4733SOL    HW116096   7.555   2.874   3.475
 4733SOL    HW216097   7.449   2.981   3.472
 4734SOL     OW16098   9.906   0.389  12.726
 4734SOL    HW116099   9.984   0.443  12.714
 4734SOL    HW216100   9.868   0.419  12.808
 4735SOL     OW16101   2.751   0.288   0.528
 4735SOL    HW116102   2.672   0.334   0.502
 4735SOL    HW216103   2.721   0.202   0.558
 4736SOL     OW16104   1.550  10.252   3.534
 4736SOL    HW116105   1.560  10.158   3.521
 4736SOL    HW216106   1.622  10.291   3.484
 4737SOL     OW16107   8.715   4.022   7.344
 4737SOL    HW116108   8.641   4.078   7.320
 4737SOL    HW216109   8.790   4.061   7.299
 4738SOL     OW16110   6.105   1.528   1.347
 4738SOL    HW116111   6.055   1.550   1.426
 4738SOL    HW216112   6.166   1.600   1.336
 4739SOL     OW16113   4.801  12.273   9.798
 4739SOL    HW116114   4.750  12.309   9.726
 4739SOL    HW216115   4.843  12.195   9.762
 4740SOL     OW16116   8.120   9.210   9.060
 4740SOL    HW116117   8.074   9.190   8.979
 4740SOL    HW216118   8.200   9.159   9.056
 4741SOL     OW16119   0.437   1.730   6.141
 4741SOL    HW116120   0.522   1.709   6.101
 4741SOL    HW216121   0.377   1.664   6.106
 4742SOL     OW16122   9.880   8.542  11.456
 4742SOL    HW116123   9.862   8.491  11.377
 4742SOL    HW216124   9.795   8.576  11.483
 4743SOL     OW16125   1.380  11.513   4.131
 4743SOL    HW116126   1.363  11.565   4.052
 4743SOL    HW216127   1.475  11.513   4.140
 4744SOL     OW16128  13.275   0.202   2.015
 4744SOL    HW116129  13.244   0.151   2.090
 4744SOL    HW216130  13.245   0.291   2.032
 4745SOL     OW16131  12.205   8.616  11.353
 4745SOL    HW116132  12.161   8.699  11.373
 4745SOL    HW216133  12.214   8.573  11.438
 4746SOL     OW16134   3.380   6.373   0.060
 4746SOL    HW116135   3.370   6.313  14.856
 4746SOL    HW216136   3.365   6.320   0.138
 4747SOL     OW16137  13.274   1.003  11.473
 4747SOL    HW116138  13.234   1.081  11.434
 4747SOL    HW216139  13.204   0.938  11.474
 4748SOL     OW16140  14.699   8.654   2.889
 4748SOL    HW116141  14.738   8.577   2.847
 4748SOL    HW216142  14.635   8.686   2.825
 4749SOL     OW16143  11.515  10.882   2.511
 4749SOL    HW116144  11.557  10.932   2.440
 4749SOL    HW216145  11.588  10.851   2.564
 4750SOL     OW16146  14.015   0.068  12.609
 4750SOL    HW116147  14.105   0.086  12.583
 4750SOL    HW216148  14.010   0.098  12.700
 4751SOL     OW16149   8.847   1.937   3.560
 4751SOL    HW116150   8.764   1.983   3.545
 4751SOL    HW216151   8.821   1.857   3.606
 4752SOL     OW16152   6.787  11.899   3.476
 4752SOL    HW116153   6.753  11.956   3.407
 4752SOL    HW216154   6.711  11.881   3.531
 4753SOL     OW16155  13.341   1.565   6.287
 4753SOL    HW116156  13.278   1.586   6.218
 4753SOL    HW216157  13.356   1.471   6.277
 4754SOL     OW16158  14.224  12.850   7.547
 4754SOL    HW116159  14.234  12.932   7.499
 4754SOL    HW216160  14.220  12.876   7.639
 4755SOL     OW16161   7.305   3.765  11.332
 4755SOL    HW116162   7.256   3.828  11.279
 4755SOL    HW216163   7.283   3.789  11.423
 4756SOL     OW16164  12.717   2.780  12.890
 4756SOL    HW116165  12.768   2.860  12.899
 4756SOL    HW216166  12.634   2.808  12.853
 4757SOL     OW16167   2.068  14.011  14.643
 4757SOL    HW116168   2.105  13.992  14.729
 4757SOL    HW216169   2.084  13.932  14.592
 4758SOL     OW16170   9.849   6.587   6.990
 4758SOL    HW116171   9.908   6.532   7.041
 4758SOL    HW216172   9.790   6.526   6.947
 4759SOL     OW16173   4.042   3.360  11.066
 4759SOL    HW116174   4.035   3.329  10.976
 4759SOL    HW216175   4.021   3.283  11.120
 4760SOL     OW16176   7.555  12.388  11.762
 4760SOL    HW116177   7.504  12.309  11.780
 4760SOL    HW216178   7.576  12.423  11.848
 4761SOL     OW16179   3.061   1.963   3.294
 4761SOL    HW116180   3.034   1.873   3.310
 4761SOL    HW216181   3.106   1.961   3.210
 4762SOL     OW16182   4.041  11.146  12.325
 4762SOL    HW116183   4.104  11.212  12.296
 4762SOL    HW216184   3.995  11.187  12.399
 4763SOL     OW16185  13.758  11.105   6.953
 4763SOL    HW116186  13.711  11.022   6.953
 4763SOL    HW216187  13.820  11.097   7.025
 4764SOL     OW16188   5.325   5.180   9.656
 4764SOL    HW116189   5.300   5.258   9.706
 4764SOL    HW216190   5.362   5.120   9.722
 4765SOL     OW16191   0.604  12.104  10.843
 4765SOL    HW116192   0.686  12.133  10.884
 4765SOL    HW216193   0.592  12.014  10.876
 4766SOL     OW16194   8.636   4.213   3.362
 4766SOL    HW116195   8.720   4.256   3.346
 4766SOL    HW216196   8.572   4.270   3.320
 4767SOL     OW16197   9.167  14.475   8.202
 4767SOL    HW116198   9.158  14.570   8.203
 4767SOL    HW216199   9.087  14.443   8.159
 4768SOL     OW16200   3.109   5.650   5.275
 4768SOL    HW116201   3.161   5.633   5.353
 4768SOL    HW216202   3.144   5.589   5.209
 4769SOL     OW16203   0.597  10.088  12.210
 4769SOL    HW116204   0.567  10.081  12.119
 4769SOL    HW216205   0.602   9.998  12.241
 4770SOL     OW16206   2.571   5.100   1.261
 4770SOL    HW116207   2.518   5.144   1.195
 4770SOL    HW216208   2.657   5.141   1.256
 4771SOL     OW16209  12.415  14.019  13.143
 4771SOL    HW116210  12.379  14.099  13.104
 4771SOL    HW216211  12.461  14.048  13.221
 4772SOL     OW16212   4.019  13.917   9.711
 4772SOL    HW116213   4.017  14.008   9.681
 4772SOL    HW216214   3.995  13.866   9.634
 4773SOL     OW16215   6.699  12.957   7.477
 4773SOL    HW116216   6.768  12.947   7.543
 4773SOL    HW216217   6.637  12.887   7.495
 4774SOL     OW16218   1.228   7.756   3.703
 4774SOL    HW116219   1.226   7.784   3.794
 4774SOL    HW216220   1.306   7.701   3.696
 4775SOL     OW16221  11.256   6.749  11.199
 4775SOL    HW116222  11.195   6.676  11.199
 4775SOL    HW216223  11.335   6.715  11.157
 4776SOL     OW16224   6.163   8.911  10.996
 4776SOL    HW116225   6.247   8.950  10.972
 4776SOL    HW216226   6.118   8.979  11.046
 4777SOL     OW16227   1.236   6.704  14.211
 4777SOL    HW116228   1.312   6.685  14.267
 4777SOL    HW216229   1.199   6.784  14.247
 4778SOL     OW16230   3.849  12.164   3.373
 4778SOL    HW116231   3.838  12.219   3.450
 4778SOL    HW216232   3.816  12.078   3.400
 4779SOL     OW16233   0.177  13.719   6.470
 4779SOL    HW116234   0.098  13.675   6.439
 4779SOL    HW216235   0.214  13.657   6.534
 4780SOL     OW16236   6.865   1.226   3.082
 4780SOL    HW116237   6.875   1.309   3.129
 4780SOL    HW216238   6.924   1.234   3.007
 4781SOL     OW16239  13.223  11.884   2.526
 4781SOL    HW116240  13.218  11.809   2.466
 4781SOL    HW216241  13.242  11.959   2.470
 4782SOL     OW16242   3.032   8.377   2.215
 4782SOL    HW116243   3.021   8.421   2.131
 4782SOL    HW216244   3.124   8.393   2.238
 4783SOL     OW16245   7.282   2.907   0.617
 4783SOL    HW116246   7.235   2.899   0.533
 4783SOL    HW216247   7.313   2.998   0.618
 4784SOL     OW16248   6.805   2.675   7.594
 4784SOL    HW116249   6.739   2.689   7.661
 4784SOL    HW216250   6.806   2.756   7.543
 4785SOL     OW16251   2.390   3.861   3.349
 4785SOL    HW116252   2.378   3.956   3.336
 4785SOL    HW216253   2.347   3.821   3.273
 4786SOL     OW16254   5.352  14.433   2.688
 4786SOL    HW116255   5.358  14.379   2.767
 4786SOL    HW216256   5.258  14.440   2.672
 4787SOL     OW16257   4.061   2.852   8.969
 4787SOL    HW116258   3.967   2.855   8.984
 4787SOL    HW216259   4.075   2.913   8.896
 4788SOL     OW16260  13.549   2.243   3.060
 4788SOL    HW116261  13.563   2.332   3.093
 4788SOL    HW216262  13.522   2.254   2.969
 4789SOL     OW16263   2.927  13.696   6.655
 4789SOL    HW116264   2.995  13.651   6.707
 4789SOL    HW216265   2.920  13.782   6.694
 4790SOL     OW16266   1.386   9.063  11.413
 4790SOL    HW116267   1.412   9.111  11.491
 4790SOL    HW216268   1.458   9.076  11.351
 4791SOL     OW16269   6.956   6.164   0.825
 4791SOL    HW116270   6.918   6.241   0.868
 4791SOL    HW216271   6.986   6.197   0.740
 4792SOL     OW16272   2.154   2.575   5.039
 4792SOL    HW116273   2.160   2.627   5.119
 4792SOL    HW216274   2.225   2.608   4.983
 4793SOL     OW16275   7.748  14.500   4.367
 4793SOL    HW116276   7.660  14.475   4.337
 4793SOL    HW216277   7.757  14.457   4.452
 4794SOL     OW16278   6.898  10.983   4.429
 4794SOL    HW116279   6.813  10.963   4.388
 4794SOL    HW216280   6.880  10.980   4.523
 4795SOL     OW16281   3.725  13.473   5.631
 4795SOL    HW116282   3.717  13.430   5.716
 4795SOL    HW216283   3.688  13.560   5.645
 4796SOL     OW16284   4.282   9.511   1.609
 4796SOL    HW116285   4.209   9.573   1.620
 4796SOL    HW216286   4.251   9.431   1.650
 4797SOL     OW16287   1.615   6.466   9.579
 4797SOL    HW116288   1.616   6.475   9.674
 4797SOL    HW216289   1.673   6.392   9.562
 4798SOL     OW16290  14.108   6.766   7.486
 4798SOL    HW116291  14.181   6.741   7.543
 4798SOL    HW216292  14.100   6.861   7.498
 4799SOL     OW16293   1.512   7.679  14.055
 4799SOL    HW116294   1.524   7.589  14.087
 4799SOL    HW216295   1.422   7.681  14.022
 4800SOL     OW16296   2.499  13.781  12.374
 4800SOL    HW116297   2.570  13.733  12.331
 4800SOL    HW216298   2.423  13.724  12.366
 4801SOL     OW16299  10.832   3.090   7.099
 4801SOL    HW116300  10.765   3.149   7.133
 4801SOL    HW216301  10.893   3.148   7.052
 4802SOL     OW16302   4.202  12.217   5.400
 4802SOL    HW116303   4.148  12.247   5.328
 4802SOL    HW216304   4.210  12.123   5.387
 4803SOL     OW16305   9.863   8.807  14.793
 4803SOL    HW116306   9.885   8.786   0.015
 4803SOL    HW216307   9.779   8.764  14.779
 4804SOL     OW16308   4.538  13.738  10.956
 4804SOL    HW116309   4.447  13.747  10.982
 4804SOL    HW216310   4.552  13.644  10.945
 4805SOL     OW16311   7.005   9.763   6.304
 4805SOL    HW116312   6.988   9.670   6.290
 4805SOL    HW216313   6.963   9.807   6.230
 4806SOL     OW16314   8.776  14.073   3.622
 4806SOL    HW116315   8.749  14.162   3.645
 4806SOL    HW216316   8.733  14.056   3.538
 4807SOL     OW16317   8.597   8.038   4.705
 4807SOL    HW116318   8.544   8.118   4.705
 4807SOL    HW216319   8.533   7.967   4.699
 4808SOL     OW16320   3.377  14.221   8.232
 4808SOL    HW116321   3.466  14.254   8.247
 4808SOL    HW216322   3.374  14.138   8.279
 4809SOL     OW16323   9.266  10.340   1.149
 4809SOL    HW116324   9.274  10.253   1.111
 4809SOL    HW216325   9.355  10.374   1.150
 4810SOL     OW16326   9.145   4.859  14.773
 4810SOL    HW116327   9.178   4.889  14.689
 4810SOL    HW216328   9.218   4.810  14.811
 4811SOL     OW16329   2.396  13.009   0.160
 4811SOL    HW116330   2.476  12.975   0.120
 4811SOL    HW216331   2.336  13.020   0.087
 4812SOL     OW16332   0.176  14.488   2.583
 4812SOL    HW116333   0.209  14.451   2.664
 4812SOL    HW216334   0.091  14.447   2.570
 4813SOL     OW16335   7.636  10.714  12.108
 4813SOL    HW116336   7.570  10.717  12.177
 4813SOL    HW216337   7.675  10.801  12.107
 4814SOL     OW16338   8.072   9.085  11.658
 4814SOL    HW116339   8.041   9.023  11.724
 4814SOL    HW216340   7.994   9.130  11.629
 4815SOL     OW16341  10.510  11.060   3.642
 4815SOL    HW116342  10.500  10.968   3.669
 4815SOL    HW216343  10.528  11.107   3.723
 4816SOL     OW16344   8.494   6.658   6.559
 4816SOL    HW116345   8.452   6.743   6.550
 4816SOL    HW216346   8.473   6.612   6.477
 4817SOL     OW16347   6.860  13.614   5.918
 4817SOL    HW116348   6.910  13.542   5.955
 4817SOL    HW216349   6.862  13.599   5.824
 4818SOL     OW16350  13.407   4.953   3.896
 4818SOL    HW116351  13.448   5.038   3.910
 4818SOL    HW216352  13.472   4.901   3.849
 4819SOL     OW16353  10.844   3.749   7.093
 4819SOL    HW116354  10.772   3.686   7.100
 4819SOL    HW216355  10.858   3.758   6.999
 4820SOL     OW16356   5.141   7.479   3.993
 4820SOL    HW116357   5.147   7.574   3.986
 4820SOL    HW216358   5.209   7.455   4.055
 4821SOL     OW16359  11.911   9.737   9.566
 4821SOL    HW116360  11.991   9.690   9.545
 4821SOL    HW216361  11.935   9.829   9.561
 4822SOL     OW16362  10.355   1.869   9.256
 4822SOL    HW116363  10.400   1.953   9.268
 4822SOL    HW216364  10.406   1.825   9.187
 4823SOL     OW16365  14.759   7.474  11.094
 4823SOL    HW116366  14.815   7.499  11.168
 4823SOL    HW216367  14.817   7.477  11.018
 4824SOL     OW16368  11.991   3.453   1.151
 4824SOL    HW116369  12.062   3.477   1.211
 4824SOL    HW216370  11.963   3.536   1.113
 4825SOL     OW16371  14.501   3.089  11.103
 4825SOL    HW116372  14.495   2.999  11.072
 4825SOL    HW216373  14.468   3.142  11.031
 4826SOL     OW16374   9.101   7.344   5.800
 4826SOL    HW116375   9.060   7.322   5.883
 4826SOL    HW216376   9.195   7.335   5.817
 4827SOL     OW16377  10.588   0.352  13.364
 4827SOL    HW116378  10.559   0.427  13.416
 4827SOL    HW216379  10.682   0.346  13.381
 4828SOL     OW16380   4.263  10.490  14.569
 4828SOL    HW116381   4.176  10.495  14.527
 4828SOL    HW216382   4.291  10.581  14.575
 4829SOL     OW16383   7.952   3.289   7.747
 4829SOL    HW116384   7.924   3.359   7.688
 4829SOL    HW216385   7.957   3.211   7.692
 4830SOL     OW16386   1.989   7.325  13.586
 4830SOL    HW116387   1.907   7.278  13.577
 4830SOL    HW216388   1.975   7.408  13.542
 4831SOL     OW16389   1.150   9.742   6.029
 4831SOL    HW116390   1.131   9.762   5.937
 4831SOL    HW216391   1.146   9.647   6.034
 4832SOL     OW16392   2.897   0.169   6.915
 4832SOL    HW116393   2.859   0.146   6.999
 4832SOL    HW216394   2.836   0.233   6.877
 4833SOL     OW16395   5.903   9.487  12.096
 4833SOL    HW116396   5.874   9.487  12.004
 4833SOL    HW216397   5.971   9.420  12.100
 4834SOL     OW16398   9.352  13.917   5.520
 4834SOL    HW116399   9.258  13.933   5.521
 4834SOL    HW216400   9.388  13.980   5.583
 4835SOL     OW16401   2.393   9.896   3.847
 4835SOL    HW116402   2.343   9.975   3.865
 4835SOL    HW216403   2.450   9.920   3.773
 4836SOL     OW16404   2.393  11.979   8.380
 4836SOL    HW116405   2.323  12.035   8.346
 4836SOL    HW216406   2.449  12.038   8.431
 4837SOL     OW16407   3.831  13.324   3.511
 4837SOL    HW116408   3.844  13.408   3.466
 4837SOL    HW216409   3.880  13.333   3.594
 4838SOL     OW16410   1.512   1.889  13.239
 4838SOL    HW116411   1.548   1.812  13.283
 4838SOL    HW216412   1.485   1.856  13.153
 4839SOL     OW16413   8.465   9.251   6.934
 4839SOL    HW116414   8.542   9.241   6.878
 4839SOL    HW216415   8.417   9.169   6.924
 4840SOL     OW16416   2.993   3.826  13.678
 4840SOL    HW116417   2.914   3.774  13.667
 4840SOL    HW216418   2.996   3.845  13.772
 4841SOL     OW16419   5.552  13.837   7.637
 4841SOL    HW116420   5.604  13.844   7.557
 4841SOL    HW216421   5.486  13.907   7.628
 4842SOL     OW16422   4.971   1.753  11.005
 4842SOL    HW116423   4.999   1.821  11.066
 4842SOL    HW216424   4.959   1.798  10.922
 4843SOL     OW16425   1.006   0.448   2.775
 4843SOL    HW116426   1.040   0.358   2.778
 4843SOL    HW216427   1.010   0.479   2.865
 4844SOL     OW16428  14.039  13.657  11.015
 4844SOL    HW116429  14.073  13.733  10.970
 4844SOL    HW216430  14.067  13.582  10.962
 4845SOL     OW16431   5.265  10.406   4.562
 4845SOL    HW116432   5.359  10.416   4.547
 4845SOL    HW216433   5.225  10.450   4.487
 4846SOL     OW16434   4.789   1.432  10.158
 4846SOL    HW116435   4.779   1.524  10.134
 4846SOL    HW216436   4.804   1.434  10.253
 4847SOL     OW16437  10.333   9.391   0.189
 4847SOL    HW116438  10.290   9.476   0.195
 4847SOL    HW216439  10.342   9.362   0.280
 4848SOL     OW16440  14.500  12.695   1.052
 4848SOL    HW116441  14.474  12.713   1.142
 4848SOL    HW216442  14.486  12.777   1.005
 4849SOL     OW16443   9.389   9.921  12.327
 4849SOL    HW116444   9.423   9.840  12.366
 4849SOL    HW216445   9.431   9.925  12.241
 4850SOL     OW16446  14.111   7.144  12.786
 4850SOL    HW116447  14.018   7.148  12.762
 4850SOL    HW216448  14.155   7.203  12.725
 4851SOL     OW16449  12.405  14.467  12.657
 4851SOL    HW116450  12.316  14.460  12.622
 4851SOL    HW216451  12.454  14.514  12.589
 4852SOL     OW16452   4.190   1.911   0.593
 4852SOL    HW116453   4.194   1.989   0.537
 4852SOL    HW216454   4.117   1.860   0.559
 4853SOL     OW16455   7.632  13.440  13.605
 4853SOL    HW116456   7.554  13.396  13.571
 4853SOL    HW216457   7.661  13.496  13.534
 4854SOL     OW16458  12.071  13.983   7.745
 4854SOL    HW116459  12.149  13.938   7.714
 4854SOL    HW216460  12.031  14.019   7.665
 4855SOL     OW16461   5.642   8.615   3.168
 4855SOL    HW116462   5.672   8.694   3.215
 4855SOL    HW216463   5.723   8.576   3.135
 4856SOL     OW16464  11.471  14.605   3.832
 4856SOL    HW116465  11.425  14.548   3.770
 4856SOL    HW216466  11.416  14.605   3.910
 4857SOL     OW16467  12.715  13.038   8.000
 4857SOL    HW116468  12.803  13.039   7.963
 4857SOL    HW216469  12.661  13.082   7.934
 4858SOL     OW16470   3.859   5.757   6.415
 4858SOL    HW116471   3.912   5.689   6.456
 4858SOL    HW216472   3.808   5.710   6.349
 4859SOL     OW16473  13.096  13.543  10.512
 4859SOL    HW116474  13.173  13.581  10.553
 4859SOL    HW216475  13.130  13.473  10.456
 4860SOL     OW16476   3.101   3.697   2.988
 4860SOL    HW116477   3.177   3.700   3.047
 4860SOL    HW216478   3.123   3.628   2.926
 4861SOL     OW16479  13.977   1.168  13.927
 4861SOL    HW116480  13.958   1.092  13.982
 4861SOL    HW216481  13.895   1.217  13.925
 4862SOL     OW16482  12.437  13.735  11.292
 4862SOL    HW116483  12.359  13.693  11.329
 4862SOL    HW216484  12.497  13.741  11.366
 4863SOL     OW16485  12.681  12.982   3.823
 4863SOL    HW116486  12.648  13.033   3.897
 4863SOL    HW216487  12.676  12.891   3.852
 4864SOL     OW16488   5.482  10.441   9.405
 4864SOL    HW116489   5.493  10.354   9.442
 4864SOL    HW216490   5.419  10.430   9.334
 4865SOL     OW16491   5.851   6.139  10.579
 4865SOL    HW116492   5.893   6.082  10.515
 4865SOL    HW216493   5.894   6.117  10.662
 4866SOL     OW16494  14.343  10.485   3.786
 4866SOL    HW116495  14.410  10.488   3.717
 4866SOL    HW216496  14.335  10.392   3.807
 4867SOL     OW16497   2.455   3.817   4.008
 4867SOL    HW116498   2.526   3.753   4.004
 4867SOL    HW216499   2.498   3.902   4.007
 4868SOL     OW16500   3.709   4.640  11.485
 4868SOL    HW116501   3.683   4.731  11.498
 4868SOL    HW216502   3.644   4.605  11.426
 4869SOL     OW16503  10.699   9.124   4.973
 4869SOL    HW116504  10.676   9.173   4.894
 4869SOL    HW216505  10.618   9.119   5.023
 4870SOL     OW16506   1.217  10.204  12.441
 4870SOL    HW116507   1.179  10.160  12.365
 4870SOL    HW216508   1.249  10.133  12.496
 4871SOL     OW16509   3.328  14.853   5.937
 4871SOL    HW116510   3.340  14.820   5.848
 4871SOL    HW216511   3.387  14.800   5.990
 4872SOL     OW16512  10.300  14.421   6.058
 4872SOL    HW116513  10.331  14.480   6.126
 4872SOL    HW216514  10.246  14.476   6.001
 4873SOL     OW16515   8.760   0.653   5.522
 4873SOL    HW116516   8.805   0.597   5.586
 4873SOL    HW216517   8.777   0.610   5.438
 4874SOL     OW16518   2.674   2.575   0.027
 4874SOL    HW116519   2.756   2.620   0.008
 4874SOL    HW216520   2.636   2.557  14.810
 4875SOL     OW16521  11.898   2.950   3.554
 4875SOL    HW116522  11.866   2.910   3.473
 4875SOL    HW216523  11.908   3.042   3.532
 4876SOL     OW16524   2.424  14.699  12.811
 4876SOL    HW116525   2.341  14.659  12.784
 4876SOL    HW216526   2.486  14.626  12.815
 4877SOL     OW16527   4.767  10.470   7.766
 4877SOL    HW116528   4.692  10.420   7.800
 4877SOL    HW216529   4.825  10.480   7.842
 4878SOL     OW16530   2.990   8.176   0.580
 4878SOL    HW116531   3.084   8.171   0.594
 4878SOL    HW216532   2.969   8.269   0.590
 4879SOL     OW16533   8.092  10.112  13.755
 4879SOL    HW116534   8.053  10.158  13.681
 4879SOL    HW216535   8.083  10.019  13.734
 4880SOL     OW16536  14.014   1.861   7.255
 4880SOL    HW116537  13.989   1.904   7.337
 4880SOL    HW216538  14.001   1.768   7.271
 4881SOL     OW16539   7.484   3.536  13.251
 4881SOL    HW116540   7.512   3.480  13.178
 4881SOL    HW216541   7.562   3.585  13.274
 4882SOL     OW16542   7.762   7.851  14.031
 4882SOL    HW116543   7.681   7.840  14.081
 4882SOL    HW216544   7.732   7.863  13.941
 4883SOL     OW16545   2.795  12.021   7.279
 4883SOL    HW116546   2.830  12.107   7.299
 4883SOL    HW216547   2.734  12.002   7.350
 4884SOL     OW16548  13.169  11.771   9.361
 4884SOL    HW116549  13.167  11.679   9.332
 4884SOL    HW216550  13.218  11.816   9.293
 4885SOL     OW16551  11.545   3.894   8.720
 4885SOL    HW116552  11.499   3.938   8.791
 4885SOL    HW216553  11.478   3.883   8.652
 4886SOL     OW16554  11.999   9.714   5.409
 4886SOL    HW116555  11.995   9.645   5.475
 4886SOL    HW216556  12.042   9.673   5.333
 4887SOL     OW16557   6.972  10.837   6.451
 4887SOL    HW116558   7.009  10.768   6.505
 4887SOL    HW216559   6.971  10.915   6.508
 4888SOL     OW16560  14.484   3.823  13.908
 4888SOL    HW116561  14.476   3.785  13.821
 4888SOL    HW216562  14.404   3.794  13.953
 4889SOL     OW16563   2.736  12.819   1.533
 4889SOL    HW116564   2.706  12.900   1.492
 4889SOL    HW216565   2.689  12.814   1.615
 4890SOL     OW16566  13.062  13.002   7.635
 4890SOL    HW116567  13.115  12.947   7.578
 4890SOL    HW216568  13.041  12.947   7.710
 4891SOL     OW16569   1.659  13.205   4.593
 4891SOL    HW116570   1.568  13.177   4.598
 4891SOL    HW216571   1.655  13.301   4.588
 4892SOL     OW16572   0.943   6.333   2.547
 4892SOL    HW116573   0.994   6.411   2.526
 4892SOL    HW216574   0.861   6.344   2.499
 4893SOL     OW16575   7.479  13.316   6.263
 4893SOL    HW116576   7.560  13.356   6.233
 4893SOL    HW216577   7.465  13.354   6.350
 4894SOL     OW16578   7.516  12.545   0.207
 4894SOL    HW116579   7.586  12.523   0.145
 4894SOL    HW216580   7.459  12.468   0.208
 4895SOL     OW16581   5.779   0.667   9.750
 4895SOL    HW116582   5.743   0.635   9.833
 4895SOL    HW216583   5.720   0.631   9.683
 4896SOL     OW16584   7.426   9.623   1.739
 4896SOL    HW116585   7.388   9.535   1.737
 4896SOL    HW216586   7.521   9.608   1.737
 4897SOL     OW16587   1.551   3.821  12.025
 4897SOL    HW116588   1.586   3.735  12.046
 4897SOL    HW216589   1.537   3.864  12.109
 4898SOL     OW16590   6.203   2.855   0.679
 4898SOL    HW116591   6.199   2.892   0.767
 4898SOL    HW216592   6.132   2.791   0.676
 4899SOL     OW16593   8.782   6.425   8.358
 4899SOL    HW116594   8.764   6.407   8.450
 4899SOL    HW216595   8.862   6.479   8.360
 4900SOL     OW16596   1.129   5.418   7.333
 4900SOL    HW116597   1.219   5.408   7.365
 4900SOL    HW216598   1.078   5.439   7.411
 4901SOL     OW16599   4.105   6.366   9.111
 4901SOL    HW116600   4.158   6.330   9.041
 4901SOL    HW216601   4.129   6.315   9.188
 4902SOL     OW16602   4.337   3.343  14.569
 4902SOL    HW116603   4.328   3.438  14.561
 4902SOL    HW216604   4.430   3.329  14.582
 4903SOL     OW16605   5.224  10.546   9.529
 4903SOL    HW116606   5.281  10.606   9.482
 4903SOL    HW216607   5.143  10.595   9.543
 4904SOL     OW16608  12.505  10.462   1.764
 4904SOL    HW116609  12.498  10.537   1.822
 4904SOL    HW216610  12.571  10.405   1.804
 4905SOL     OW16611   0.950   8.833   7.075
 4905SOL    HW116612   0.901   8.837   7.156
 4905SOL    HW216613   0.956   8.740   7.054
 4906SOL     OW16614  14.435   4.362  14.688
 4906SOL    HW116615  14.485   4.301  14.633
 4906SOL    HW216616  14.358   4.312  14.715
 4907SOL     OW16617   3.500   4.072   5.317
 4907SOL    HW116618   3.455   4.124   5.383
 4907SOL    HW216619   3.440   4.070   5.243
 4908SOL     OW16620   0.246   7.650   0.351
 4908SOL    HW116621   0.244   7.573   0.407
 4908SOL    HW216622   0.166   7.698   0.373
 4909SOL     OW16623   0.008   3.849  10.120
 4909SOL    HW116624   0.081   3.837  10.059
 4909SOL    HW216625   0.050   3.864  10.205
 4910SOL     OW16626  12.785  11.406   4.619
 4910SOL    HW116627  12.721  11.474   4.598
 4910SOL    HW216628  12.820  11.379   4.534
 4911SOL     OW16629  14.642   5.370   4.660
 4911SOL    HW116630  14.651   5.362   4.565
 4911SOL    HW216631  14.639   5.464   4.675
 4912SOL     OW16632  12.804   6.449   0.287
 4912SOL    HW116633  12.719   6.425   0.323
 4912SOL    HW216634  12.830   6.526   0.337
 4913SOL     OW16635  13.919   8.697   7.710
 4913SOL    HW116636  14.013   8.715   7.721
 4913SOL    HW216637  13.898   8.636   7.780
 4914SOL     OW16638   4.328   9.077  14.795
 4914SOL    HW116639   4.254   9.040  14.842
 4914SOL    HW216640   4.334   9.026  14.714
 4915SOL     OW16641  12.055  14.496   6.213
 4915SOL    HW116642  12.049  14.418   6.158
 4915SOL    HW216643  12.021  14.468   6.298
 4916SOL     OW16644   6.038   8.009   9.956
 4916SOL    HW116645   6.133   8.010   9.947
 4916SOL    HW216646   6.005   8.015   9.866
 4917SOL     OW16647   1.630  11.123   0.067
 4917SOL    HW116648   1.717  11.104   0.100
 4917SOL    HW216649   1.571  11.075   0.125
 4918SOL     OW16650   3.629   3.121   4.817
 4918SOL    HW116651   3.569   3.071   4.763
 4918SOL    HW216652   3.596   3.111   4.906
 4919SOL     OW16653   9.916   3.889   6.827
 4919SOL    HW116654   9.896   3.795   6.833
 4919SOL    HW216655   9.832   3.930   6.808
 4920SOL     OW16656   4.067   0.901   1.647
 4920SOL    HW116657   4.047   0.873   1.737
 4920SOL    HW216658   4.093   0.993   1.656
 4921SOL     OW16659   2.542   8.145  11.926
 4921SOL    HW116660   2.631   8.128  11.894
 4921SOL    HW216661   2.500   8.059  11.927
 4922SOL     OW16662  14.654  12.006  10.326
 4922SOL    HW116663  14.616  12.093  10.315
 4922SOL    HW216664  14.744  12.014  10.295
 4923SOL     OW16665   9.228   5.427   1.922
 4923SOL    HW116666   9.293   5.391   1.983
 4923SOL    HW216667   9.143   5.406   1.961
 4924SOL     OW16668   8.125   5.261  12.053
 4924SOL    HW116669   8.078   5.211  12.119
 4924SOL    HW216670   8.162   5.195  11.994
 4925SOL     OW16671   8.260   1.936   8.607
 4925SOL    HW116672   8.302   1.945   8.693
 4925SOL    HW216673   8.308   1.866   8.564
 4926SOL     OW16674   3.037  12.257   4.278
 4926SOL    HW116675   2.986  12.246   4.358
 4926SOL    HW216676   3.120  12.294   4.307
 4927SOL     OW16677  11.563  12.015   6.633
 4927SOL    HW116678  11.620  11.954   6.679
 4927SOL    HW216679  11.538  12.080   6.699
 4928SOL     OW16680   9.460   7.027   6.974
 4928SOL    HW116681   9.492   7.019   7.064
 4928SOL    HW216682   9.369   6.998   6.977
 4929SOL     OW16683   5.748   2.227  11.239
 4929SOL    HW116684   5.800   2.188  11.310
 4929SOL    HW216685   5.750   2.321  11.256
 4930SOL     OW16686  10.939   3.792   6.833
 4930SOL    HW116687  10.957   3.799   6.739
 4930SOL    HW216688  11.021   3.762   6.871
 4931SOL     OW16689   5.276   3.547   7.002
 4931SOL    HW116690   5.270   3.529   7.096
 4931SOL    HW216691   5.356   3.504   6.974
 4932SOL     OW16692  13.351   9.987   3.770
 4932SOL    HW116693  13.374   9.970   3.861
 4932SOL    HW216694  13.328   9.901   3.734
 4933SOL     OW16695  13.716   4.555   2.810
 4933SOL    HW116696  13.661   4.596   2.877
 4933SOL    HW216697  13.654   4.514   2.750
 4934SOL     OW16698  10.968   4.989  12.702
 4934SOL    HW116699  10.932   4.901  12.715
 4934SOL    HW216700  10.891   5.046  12.705
 4935SOL     OW16701   9.664  11.473   8.770
 4935SOL    HW116702   9.583  11.428   8.794
 4935SOL    HW216703   9.672  11.460   8.676
 4936SOL     OW16704   9.265  14.082   0.403
 4936SOL    HW116705   9.246  14.174   0.420
 4936SOL    HW216706   9.191  14.035   0.441
 4937SOL     OW16707   9.580   0.871  12.813
 4937SOL    HW116708   9.647   0.922  12.858
 4937SOL    HW216709   9.553   0.927  12.740
 4938SOL     OW16710  11.902   6.486   7.206
 4938SOL    HW116711  11.944   6.507   7.122
 4938SOL    HW216712  11.837   6.556   7.218
 4939SOL     OW16713   5.966  14.769   8.829
 4939SOL    HW116714   6.053  14.804   8.850
 4939SOL    HW216715   5.931  14.828   8.762
 4940SOL     OW16716   5.838   9.478   9.153
 4940SOL    HW116717   5.788   9.559   9.157
 4940SOL    HW216718   5.890   9.486   9.072
 4941SOL     OW16719   0.884   6.768   5.116
 4941SOL    HW116720   0.889   6.830   5.188
 4941SOL    HW216721   0.923   6.814   5.042
 4942SOL     OW16722  11.458   6.346   0.227
 4942SOL    HW116723  11.544   6.360   0.267
 4942SOL    HW216724  11.404   6.310   0.297
 4943SOL     OW16725  12.383   2.309   6.803
 4943SOL    HW116726  12.405   2.348   6.888
 4943SOL    HW216727  12.339   2.379   6.756
 4944SOL     OW16728   9.348   0.435   6.855
 4944SOL    HW116729   9.287   0.489   6.905
 4944SOL    HW216730   9.401   0.390   6.921
 4945SOL     OW16731   7.577  11.329   1.267
 4945SOL    HW116732   7.547  11.417   1.294
 4945SOL    HW216733   7.622  11.344   1.184
 4946SOL     OW16734   0.645   6.533  13.555
 4946SOL    HW116735   0.627   6.440  13.568
 4946SOL    HW216736   0.560   6.571  13.529
 4947SOL     OW16737   0.794   0.713   4.172
 4947SOL    HW116738   0.743   0.703   4.252
 4947SOL    HW216739   0.821   0.625   4.148
 4948SOL     OW16740  14.766   7.680   8.291
 4948SOL    HW116741  14.847   7.710   8.331
 4948SOL    HW216742  14.716   7.642   8.363
 4949SOL     OW16743   8.740   9.432  10.699
 4949SOL    HW116744   8.691   9.494  10.754
 4949SOL    HW216745   8.831   9.460  10.706
 4950SOL     OW16746   3.862  12.116  11.060
 4950SOL    HW116747   3.774  12.121  11.025
 4950SOL    HW216748   3.888  12.207  11.077
 4951SOL     OW16749   0.255  11.440  10.583
 4951SOL    HW116750   0.169  11.402  10.565
 4951SOL    HW216751   0.312  11.365  10.600
 4952SOL     OW16752   6.062   6.884   9.564
 4952SOL    HW116753   6.014   6.965   9.550
 4952SOL    HW216754   6.004   6.830   9.618
 4953SOL     OW16755  14.554  13.044  14.638
 4953SOL    HW116756  14.545  13.137  14.617
 4953SOL    HW216757  14.489  13.028  14.706
 4954SOL     OW16758   5.923  13.638  14.175
 4954SOL    HW116759   5.934  13.726  14.140
 4954SOL    HW216760   5.961  13.580  14.109
 4955SOL     OW16761  12.264   9.322   9.560
 4955SOL    HW116762  12.312   9.404   9.550
 4955SOL    HW216763  12.250   9.291   9.470
 4956SOL     OW16764   2.507   9.990   7.258
 4956SOL    HW116765   2.453   9.999   7.336
 4956SOL    HW216766   2.582   9.937   7.286
 4957SOL     OW16767   5.553   8.590  11.960
 4957SOL    HW116768   5.637   8.567  11.920
 4957SOL    HW216769   5.552   8.543  12.043
 4958SOL     OW16770   1.253  11.837   1.338
 4958SOL    HW116771   1.301  11.919   1.343
 4958SOL    HW216772   1.166  11.862   1.307
 4959SOL     OW16773   9.903   7.429  14.387
 4959SOL    HW116774   9.875   7.338  14.373
 4959SOL    HW216775   9.996   7.422  14.409
 4960SOL     OW16776   4.382  12.384   3.633
 4960SOL    HW116777   4.296  12.344   3.622
 4960SOL    HW216778   4.427  12.328   3.695
 4961SOL     OW16779  14.373   4.029  13.355
 4961SOL    HW116780  14.442   4.038  13.290
 4961SOL    HW216781  14.395   4.092  13.423
 4962SOL     OW16782   4.865   9.423   4.824
 4962SOL    HW116783   4.934   9.402   4.761
 4962SOL    HW216784   4.809   9.486   4.779
 4963SOL     OW16785   2.231  13.670   8.298
 4963SOL    HW116786   2.166  13.652   8.230
 4963SOL    HW216787   2.203  13.753   8.336
 4964SOL     OW16788   6.709  13.166   5.680
 4964SOL    HW116789   6.788  13.172   5.733
 4964SOL    HW216790   6.683  13.074   5.686
 4965SOL     OW16791  10.493   4.985   2.470
 4965SOL    HW116792  10.509   5.014   2.560
 4965SOL    HW216793  10.550   5.040   2.416
 4966SOL     OW16794   5.990  12.918   8.256
 4966SOL    HW116795   5.910  12.927   8.309
 4966SOL    HW216796   6.017  13.008   8.238
 4967SOL     OW16797  13.922  11.925  11.321
 4967SOL    HW116798  13.972  12.002  11.294
 4967SOL    HW216799  13.986  11.867  11.362
 4968SOL     OW16800  10.305   9.255  13.806
 4968SOL    HW116801  10.366   9.215  13.867
 4968SOL    HW216802  10.347   9.338  13.781
 4969SOL     OW16803  12.112   0.477   8.480
 4969SOL    HW116804  12.203   0.448   8.481
 4969SOL    HW216805  12.080   0.463   8.569
 4970SOL     OW16806  13.789   1.531   4.498
 4970SOL    HW116807  13.716   1.478   4.530
 4970SOL    HW216808  13.856   1.522   4.565
 4971SOL     OW16809   6.747  11.458  10.813
 4971SOL    HW116810   6.747  11.546  10.776
 4971SOL    HW216811   6.722  11.471  10.905
 4972SOL     OW16812   3.995   3.686   8.961
 4972SOL    HW116813   3.908   3.699   8.999
 4972SOL    HW216814   4.054   3.686   9.036
 4973SOL     OW16815   1.268   2.537   4.365
 4973SOL    HW116816   1.189   2.590   4.370
 4973SOL    HW216817   1.241   2.457   4.321
 4974SOL     OW16818  13.683   4.871   6.658
 4974SOL    HW116819  13.718   4.841   6.742
 4974SOL    HW216820  13.600   4.826   6.648
 4975SOL     OW16821   4.410   2.331  13.739
 4975SOL    HW116822   4.486   2.386  13.720
 4975SOL    HW216823   4.408   2.268  13.667
 4976SOL     OW16824   1.029   2.404   8.665
 4976SOL    HW116825   1.118   2.393   8.699
 4976SOL    HW216826   1.026   2.495   8.635
 4977SOL     OW16827  11.725   7.579  12.989
 4977SOL    HW116828  11.708   7.601  12.898
 4977SOL    HW216829  11.675   7.644  13.039
 4978SOL     OW16830   0.813   0.350   7.255
 4978SOL    HW116831   0.809   0.275   7.314
 4978SOL    HW216832   0.906   0.367   7.242
 4979SOL     OW16833   5.121   3.944   4.717
 4979SOL    HW116834   5.039   3.903   4.746
 4979SOL    HW216835   5.144   4.005   4.786
 4980SOL     OW16836   9.273   8.949   9.535
 4980SOL    HW116837   9.209   8.928   9.466
 4980SOL    HW216838   9.326   8.870   9.543
 4981SOL     OW16839   2.185  12.042  10.996
 4981SOL    HW116840   2.182  12.096  11.075
 4981SOL    HW216841   2.152  12.100  10.926
 4982SOL     OW16842   6.808   4.189   7.898
 4982SOL    HW116843   6.752   4.114   7.878
 4982SOL    HW216844   6.767   4.230   7.974
 4983SOL     OW16845   3.738   2.687   4.156
 4983SOL    HW116846   3.829   2.671   4.132
 4983SOL    HW216847   3.717   2.772   4.117
 4984SOL     OW16848  10.515  14.778   1.082
 4984SOL    HW116849  10.568  14.718   1.134
 4984SOL    HW216850  10.440  14.798   1.138
 4985SOL     OW16851   8.770   4.477  12.596
 4985SOL    HW116852   8.833   4.521  12.539
 4985SOL    HW216853   8.823   4.434  12.663
 4986SOL     OW16854   7.577  13.073   2.638
 4986SOL    HW116855   7.546  13.156   2.602
 4986SOL    HW216856   7.535  13.007   2.582
 4987SOL     OW16857   1.702   5.433   1.936
 4987SOL    HW116858   1.651   5.360   1.899
 4987SOL    HW216859   1.742   5.475   1.860
 4988SOL     OW16860  13.183   8.214  10.773
 4988SOL    HW116861  13.239   8.288  10.798
 4988SOL    HW216862  13.093   8.246  10.788
 4989SOL     OW16863   2.942   6.212   9.549
 4989SOL    HW116864   2.972   6.215   9.640
 4989SOL    HW216865   3.015   6.246   9.498
 4990SOL     OW16866  14.778  10.732   6.906
 4990SOL    HW116867  14.867  10.702   6.929
 4990SOL    HW216868  14.781  10.826   6.921
 4991SOL     OW16869  13.882   8.971  10.068
 4991SOL    HW116870  13.956   9.030  10.052
 4991SOL    HW216871  13.913   8.911  10.136
 4992SOL     OW16872  12.294   6.838   8.018
 4992SOL    HW116873  12.203   6.862   8.002
 4992SOL    HW216874  12.344   6.911   7.981
 4993SOL     OW16875   1.354   0.818  10.274
 4993SOL    HW116876   1.269   0.858  10.256
 4993SOL    HW216877   1.357   0.741  10.217
 4994SOL     OW16878   4.303   8.433   7.880
 4994SOL    HW116879   4.291   8.526   7.899
 4994SOL    HW216880   4.220   8.405   7.841
 4995SOL     OW16881  10.877   6.938   5.648
 4995SOL    HW116882  10.812   6.971   5.585
 4995SOL    HW216883  10.843   6.965   5.733
 4996SOL     OW16884  10.305   0.166  11.293
 4996SOL    HW116885  10.355   0.211  11.361
 4996SOL    HW216886  10.291   0.232  11.226
 4997SOL     OW16887  10.904  12.726   9.420
 4997SOL    HW116888  10.896  12.789   9.492
 4997SOL    HW216889  10.998  12.721   9.403
 4998SOL     OW16890   8.583   3.023  10.194
 4998SOL    HW116891   8.531   2.970  10.256
 4998SOL    HW216892   8.662   3.045  10.243
 4999SOL     OW16893   5.096  13.176   2.995
 4999SOL    HW116894   5.010  13.137   2.980
 4999SOL    HW216895   5.102  13.185   3.090
 5000SOL     OW16896   6.666   6.220   4.004
 5000SOL    HW116897   6.615   6.153   3.958
 5000SOL    HW216898   6.757   6.200   3.982
 5001SOL     OW16899   0.229  11.911   1.214
 5001SOL    HW116900   0.320  11.914   1.245
 5001SOL    HW216901   0.183  11.976   1.266
 5002SOL     OW16902  11.506   3.206  13.968
 5002SOL    HW116903  11.410   3.206  13.965
 5002SOL    HW216904  11.529   3.117  13.993
 5003SOL     OW16905   4.180   8.856   7.443
 5003SOL    HW116906   4.218   8.791   7.384
 5003SOL    HW216907   4.128   8.805   7.505
 5004SOL     OW16908  10.641   1.857   4.435
 5004SOL    HW116909  10.734   1.838   4.445
 5004SOL    HW216910  10.615   1.892   4.521
 5005SOL     OW16911   8.223   3.480  13.519
 5005SOL    HW116912   8.282   3.469  13.594
 5005SOL    HW216913   8.264   3.548  13.466
 5006SOL     OW16914  14.328   5.923   6.502
 5006SOL    HW116915  14.295   5.862   6.436
 5006SOL    HW216916  14.398   5.876   6.547
 5007SOL     OW16917   0.077   3.028  13.990
 5007SOL    HW116918   0.092   3.110  14.037
 5007SOL    HW216919  14.851   3.016  13.994
 5008SOL     OW16920   6.223   1.307  11.927
 5008SOL    HW116921   6.302   1.291  11.980
 5008SOL    HW216922   6.151   1.290  11.988
 5009SOL     OW16923   2.889  10.079   9.291
 5009SOL    HW116924   2.953  10.016   9.258
 5009SOL    HW216925   2.942  10.151   9.326
 5010SOL     OW16926  14.655   4.106   9.882
 5010SOL    HW116927  14.698   4.047   9.820
 5010SOL    HW216928  14.656   4.059   9.965
 5011SOL     OW16929   1.455  13.229  13.091
 5011SOL    HW116930   1.492  13.267  13.011
 5011SOL    HW216931   1.488  13.140  13.093
 5012SOL     OW16932   0.279   5.878  11.880
 5012SOL    HW116933   0.326   5.835  11.809
 5012SOL    HW216934   0.298   5.825  11.957
 5013SOL     OW16935   1.016   0.359  12.915
 5013SOL    HW116936   0.973   0.334  12.996
 5013SOL    HW216937   1.098   0.311  12.915
 5014SOL     OW16938   6.134  12.980   9.635
 5014SOL    HW116939   6.224  12.958   9.659
 5014SOL    HW216940   6.080  12.927   9.693
 5015SOL     OW16941  14.056  12.645   7.540
 5015SOL    HW116942  14.114  12.721   7.543
 5015SOL    HW216943  14.084  12.590   7.613
 5016SOL     OW16944  11.468   0.995   6.696
 5016SOL    HW116945  11.501   0.905   6.695
 5016SOL    HW216946  11.420   1.002   6.778
 5017SOL     OW16947   7.492   4.043  13.351
 5017SOL    HW116948   7.517   4.046  13.444
 5017SOL    HW216949   7.530   3.962  13.319
 5018SOL     OW16950  11.316   2.539   1.600
 5018SOL    HW116951  11.334   2.625   1.638
 5018SOL    HW216952  11.281   2.558   1.512
 5019SOL     OW16953  13.456   5.111   3.088
 5019SOL    HW116954  13.408   5.164   3.151
 5019SOL    HW216955  13.513   5.055   3.141
 5020SOL     OW16956   9.811   0.669   9.733
 5020SOL    HW116957   9.736   0.615   9.759
 5020SOL    HW216958   9.780   0.759   9.738
 5021SOL     OW16959   2.286   9.103   8.551
 5021SOL    HW116960   2.332   9.036   8.502
 5021SOL    HW216961   2.355   9.156   8.591
 5022SOL     OW16962   6.023   6.822   3.321
 5022SOL    HW116963   6.051   6.897   3.269
 5022SOL    HW216964   5.927   6.825   3.319
 5023SOL     OW16965   7.025   2.948  12.830
 5023SOL    HW116966   7.072   3.009  12.887
 5023SOL    HW216967   7.014   2.995  12.748
 5024SOL     OW16968   6.806   8.038   1.440
 5024SOL    HW116969   6.834   8.062   1.352
 5024SOL    HW216970   6.728   7.985   1.426
 5025SOL     OW16971  11.736   2.848   1.615
 5025SOL    HW116972  11.720   2.754   1.623
 5025SOL    HW216973  11.659   2.881   1.568
 5026SOL     OW16974   8.811   4.341   6.381
 5026SOL    HW116975   8.888   4.341   6.324
 5026SOL    HW216976   8.779   4.432   6.378
 5027SOL     OW16977   5.481  10.311   9.825
 5027SOL    HW116978   5.536  10.253   9.878
 5027SOL    HW216979   5.544  10.357   9.768
 5028SOL     OW16980  12.555   5.471  12.769
 5028SOL    HW116981  12.494   5.483  12.696
 5028SOL    HW216982  12.629   5.528  12.747
 5029SOL     OW16983   7.284   0.181   0.263
 5029SOL    HW116984   7.241   0.236   0.199
 5029SOL    HW216985   7.218   0.165   0.330
 5030SOL     OW16986  10.871   3.324   0.714
 5030SOL    HW116987  10.789   3.285   0.744
 5030SOL    HW216988  10.880   3.404   0.766
 5031SOL     OW16989   5.306  12.762  13.127
 5031SOL    HW116990   5.294  12.667  13.123
 5031SOL    HW216991   5.247  12.791  13.196
 5032SOL     OW16992   4.224  14.316  14.124
 5032SOL    HW116993   4.193  14.311  14.214
 5032SOL    HW216994   4.183  14.241  14.081
 5033SOL     OW16995  11.245  11.075  13.377
 5033SOL    HW116996  11.323  11.127  13.395
 5033SOL    HW216997  11.271  11.016  13.307
 5034SOL     OW16998   7.585   6.027   1.813
 5034SOL    HW116999   7.598   5.940   1.850
 5034SOL    HW217000   7.600   6.087   1.887
 5035SOL     OW17001  12.644   2.233  10.205
 5035SOL    HW117002  12.720   2.282  10.238
 5035SOL    HW217003  12.680   2.148  10.178
 5036SOL     OW17004   6.568  13.182   9.699
 5036SOL    HW117005   6.494  13.241   9.687
 5036SOL    HW217006   6.543  13.129   9.775
 5037SOL     OW17007  11.473   2.265   8.418
 5037SOL    HW117008  11.487   2.258   8.323
 5037SOL    HW217009  11.378   2.274   8.427
 5038SOL     OW17010   7.421  12.205   4.969
 5038SOL    HW117011   7.497  12.214   5.025
 5038SOL    HW217012   7.386  12.118   4.990
 5039SOL     OW17013   9.109   0.794  12.563
 5039SOL    HW117014   9.070   0.868  12.518
 5039SOL    HW217015   9.120   0.823  12.654
 5040SOL     OW17016  10.267   6.593  10.895
 5040SOL    HW117017  10.210   6.625  10.825
 5040SOL    HW217018  10.302   6.510  10.861
 5041SOL     OW17019  11.666   3.279   5.611
 5041SOL    HW117020  11.725   3.354   5.617
 5041SOL    HW217021  11.689   3.223   5.684
 5042SOL     OW17022  13.979   3.783   9.370
 5042SOL    HW117023  14.026   3.861   9.400
 5042SOL    HW217024  14.035   3.745   9.302
 5043SOL     OW17025   8.600   1.872   4.016
 5043SOL    HW117026   8.523   1.832   4.055
 5043SOL    HW217027   8.654   1.899   4.091
 5044SOL     OW17028  10.475   6.577   5.961
 5044SOL    HW117029  10.553   6.609   5.917
 5044SOL    HW217030  10.500   6.491   5.996
 5045SOL     OW17031  13.980   3.713  10.649
 5045SOL    HW117032  13.945   3.801  10.659
 5045SOL    HW217033  13.903   3.658  10.629
 5046SOL     OW17034   8.783   4.709   1.338
 5046SOL    HW117035   8.704   4.674   1.297
 5046SOL    HW217036   8.850   4.643   1.319
 5047SOL     OW17037   6.600  11.504   3.086
 5047SOL    HW117038   6.629  11.421   3.124
 5047SOL    HW217039   6.570  11.556   3.160
 5048SOL     OW17040   9.631   1.049   8.856
 5048SOL    HW117041   9.658   0.964   8.892
 5048SOL    HW217042   9.685   1.113   8.903
 5049SOL     OW17043   5.583   9.127  10.978
 5049SOL    HW117044   5.568   9.034  10.998
 5049SOL    HW217045   5.633   9.159  11.053
 5050SOL     OW17046  11.130  12.981  13.305
 5050SOL    HW117047  11.168  12.904  13.265
 5050SOL    HW217048  11.115  12.957  13.396
 5051SOL     OW17049  14.288  10.008   2.016
 5051SOL    HW117050  14.265   9.921   2.047
 5051SOL    HW217051  14.335  10.049   2.089
 5052SOL     OW17052   3.027  12.987   8.295
 5052SOL    HW117053   2.995  12.897   8.304
 5052SOL    HW217054   2.960  13.031   8.243
 5053SOL     OW17055  14.176   7.456   8.090
 5053SOL    HW117056  14.091   7.433   8.127
 5053SOL    HW217057  14.188   7.548   8.114
 5054SOL     OW17058   4.091  11.225   3.556
 5054SOL    HW117059   4.038  11.293   3.514
 5054SOL    HW217060   4.051  11.143   3.527
 5055SOL     OW17061   1.888   4.472   6.897
 5055SOL    HW117062   1.879   4.379   6.875
 5055SOL    HW217063   1.982   4.485   6.908
 5056SOL     OW17064  12.596   9.257  13.640
 5056SOL    HW117065  12.641   9.230  13.559
 5056SOL    HW217066  12.524   9.311  13.609
 5057SOL     OW17067   3.690   2.255   6.055
 5057SOL    HW117068   3.658   2.262   6.145
 5057SOL    HW217069   3.671   2.340   6.016
 5058SOL     OW17070  12.478   3.103  14.064
 5058SOL    HW117071  12.408   3.039  14.047
 5058SOL    HW217072  12.434   3.188  14.054
 5059SOL     OW17073   4.317   8.213   7.553
 5059SOL    HW117074   4.255   8.145   7.580
 5059SOL    HW217075   4.402   8.179   7.580
 5060SOL     OW17076  13.211  13.019   6.668
 5060SOL    HW117077  13.159  13.099   6.675
 5060SOL    HW217078  13.266  13.033   6.591
 5061SOL     OW17079  11.736  11.303   2.679
 5061SOL    HW117080  11.692  11.227   2.717
 5061SOL    HW217081  11.814  11.267   2.636
 5062SOL     OW17082   9.401   0.738  10.366
 5062SOL    HW117083   9.378   0.764  10.455
 5062SOL    HW217084   9.491   0.707  10.373
 5063SOL     OW17085   8.440   4.603  13.905
 5063SOL    HW117086   8.466   4.581  13.816
 5063SOL    HW217087   8.507   4.664  13.935
 5064SOL     OW17088   1.700   3.892  10.707
 5064SOL    HW117089   1.685   3.809  10.660
 5064SOL    HW217090   1.651   3.957  10.657
 5065SOL     OW17091   0.852   9.578   0.907
 5065SOL    HW117092   0.800   9.560   0.985
 5065SOL    HW217093   0.841   9.672   0.892
 5066SOL     OW17094   4.689  11.557  12.059
 5066SOL    HW117095   4.716  11.535  12.148
 5066SOL    HW217096   4.742  11.500  12.003
 5067SOL     OW17097  14.784   3.331   0.073
 5067SOL    HW117098  14.832   3.323  14.861
 5067SOL    HW217099  14.830   3.273   0.134
 5068SOL     OW17100   4.661   3.525   8.091
 5068SOL    HW117101   4.623   3.446   8.053
 5068SOL    HW217102   4.586   3.575   8.123
 5069SOL     OW17103   7.760  13.510   2.817
 5069SOL    HW117104   7.768  13.605   2.828
 5069SOL    HW217105   7.737  13.499   2.725
 5070SOL     OW17106   4.730   5.323   7.263
 5070SOL    HW117107   4.764   5.252   7.208
 5070SOL    HW217108   4.688   5.278   7.336
 5071SOL     OW17109   8.412   6.482   3.446
 5071SOL    HW117110   8.487   6.468   3.504
 5071SOL    HW217111   8.437   6.443   3.363
 5072SOL     OW17112   8.835   7.417  12.591
 5072SOL    HW117113   8.742   7.422  12.614
 5072SOL    HW217114   8.880   7.455  12.667
 5073SOL     OW17115  11.860   8.912  10.158
 5073SOL    HW117116  11.901   8.998  10.142
 5073SOL    HW217117  11.888   8.888  10.246
 5074SOL     OW17118   4.105   6.424   1.151
 5074SOL    HW117119   4.041   6.490   1.174
 5074SOL    HW217120   4.055   6.358   1.102
 5075SOL     OW17121   6.038   1.137   0.020
 5075SOL    HW117122   5.963   1.079   0.036
 5075SOL    HW217123   6.065   1.166   0.107
 5076SOL     OW17124   0.775   9.319  12.681
 5076SOL    HW117125   0.818   9.333  12.766
 5076SOL    HW217126   0.724   9.399  12.667
 5077SOL     OW17127   9.946   1.365   8.075
 5077SOL    HW117128   9.939   1.455   8.108
 5077SOL    HW217129  10.007   1.323   8.136
 5078SOL     OW17130   9.612   3.190   3.660
 5078SOL    HW117131   9.566   3.274   3.665
 5078SOL    HW217132   9.567   3.142   3.591
 5079SOL     OW17133  10.511   6.810   0.092
 5079SOL    HW117134  10.508   6.798  14.866
 5079SOL    HW217135  10.605   6.810   0.113
 5080SOL     OW17136   3.658   6.869  12.925
 5080SOL    HW117137   3.611   6.885  13.007
 5080SOL    HW217138   3.624   6.936  12.865
 5081SOL     OW17139   0.298   7.845  14.785
 5081SOL    HW117140   0.219   7.794  14.768
 5081SOL    HW217141   0.340   7.801  14.859
 5082SOL     OW17142   9.579   4.188   7.513
 5082SOL    HW117143   9.507   4.202   7.575
 5082SOL    HW217144   9.625   4.112   7.547
 5083SOL     OW17145   1.433  13.972   3.505
 5083SOL    HW117146   1.454  13.932   3.421
 5083SOL    HW217147   1.415  13.899   3.563
 5084SOL     OW17148   8.807  12.366   7.148
 5084SOL    HW117149   8.734  12.420   7.117
 5084SOL    HW217150   8.771  12.319   7.224
 5085SOL     OW17151   0.592   8.452  14.600
 5085SOL    HW117152   0.654   8.460  14.527
 5085SOL    HW217153   0.542   8.373  14.580
 5086SOL     OW17154   4.944   0.735   3.489
 5086SOL    HW117155   4.866   0.743   3.544
 5086SOL    HW217156   4.960   0.825   3.458
 5087SOL     OW17157  10.525   5.129   5.360
 5087SOL    HW117158  10.554   5.166   5.277
 5087SOL    HW217159  10.431   5.115   5.349
 5088SOL     OW17160   5.559   0.414   9.121
 5088SOL    HW117161   5.566   0.360   9.042
 5088SOL    HW217162   5.487   0.475   9.102
 5089SOL     OW17163  11.465   4.815   5.839
 5089SOL    HW117164  11.514   4.882   5.887
 5089SOL    HW217165  11.381   4.857   5.819
 5090SOL     OW17166   0.989   1.830  10.763
 5090SOL    HW117167   1.005   1.739  10.736
 5090SOL    HW217168   0.946   1.869  10.687
 5091SOL     OW17169   3.225   2.864   2.406
 5091SOL    HW117170   3.202   2.826   2.322
 5091SOL    HW217171   3.144   2.858   2.458
 5092SOL     OW17172   0.470   3.662  12.843
 5092SOL    HW117173   0.499   3.639  12.931
 5092SOL    HW217174   0.528   3.734  12.817
 5093SOL     OW17175   5.081   1.989   1.297
 5093SOL    HW117176   5.133   2.067   1.319
 5093SOL    HW217177   5.139   1.916   1.318
 5094SOL     OW17178   8.340   3.187  12.927
 5094SOL    HW117179   8.356   3.244  13.003
 5094SOL    HW217180   8.425   3.148  12.910
 5095SOL     OW17181   6.952   3.355   1.579
 5095SOL    HW117182   6.909   3.287   1.527
 5095SOL    HW217183   6.979   3.421   1.515
 5096SOL     OW17184  10.351   4.286   5.462
 5096SOL    HW117185  10.311   4.267   5.547
 5096SOL    HW217186  10.351   4.382   5.457
 5097SOL     OW17187  14.053   3.204   8.687
 5097SOL    HW117188  13.967   3.187   8.724
 5097SOL    HW217189  14.054   3.155   8.605
 5098SOL     OW17190   0.757   6.363  12.187
 5098SOL    HW117191   0.682   6.320  12.229
 5098SOL    HW217192   0.723   6.392  12.102
 5099SOL     OW17193  12.852   3.304  10.070
 5099SOL    HW117194  12.850   3.243   9.996
 5099SOL    HW217195  12.849   3.391  10.030
 5100SOL     OW17196   9.529   6.500  10.882
 5100SOL    HW117197   9.525   6.478  10.975
 5100SOL    HW217198   9.536   6.416  10.837
 5101SOL     OW17199   9.778   3.154  10.984
 5101SOL    HW117200   9.868   3.171  11.011
 5101SOL    HW217201   9.750   3.082  11.041
 5102SOL     OW17202   8.515  12.758   3.568
 5102SOL    HW117203   8.517  12.687   3.633
 5102SOL    HW217204   8.451  12.729   3.503
 5103SOL     OW17205   8.514   1.409   7.601
 5103SOL    HW117206   8.494   1.479   7.662
 5103SOL    HW217207   8.593   1.439   7.556
 5104SOL     OW17208   4.464  10.314   2.083
 5104SOL    HW117209   4.514  10.242   2.120
 5104SOL    HW217210   4.392  10.271   2.036
 5105SOL     OW17211   6.132   9.344   7.043
 5105SOL    HW117212   6.140   9.439   7.054
 5105SOL    HW217213   6.217   9.309   7.071
 5106SOL     OW17214   0.383  10.133   1.759
 5106SOL    HW117215   0.460  10.189   1.751
 5106SOL    HW217216   0.417  10.043   1.756
 5107SOL     OW17217   2.977   1.334  11.430
 5107SOL    HW117218   3.061   1.364  11.396
 5107SOL    HW217219   2.978   1.240  11.414
 5108SOL     OW17220   8.886   2.722   6.670
 5108SOL    HW117221   8.871   2.807   6.713
 5108SOL    HW217222   8.811   2.669   6.696
 5109SOL     OW17223   0.199   0.932   9.921
 5109SOL    HW117224   0.206   0.893   9.834
 5109SOL    HW217225   0.211   1.026   9.906
 5110SOL     OW17226   5.438  10.830  11.820
 5110SOL    HW117227   5.400  10.918  11.818
 5110SOL    HW217228   5.471  10.821  11.910
 5111SOL     OW17229   0.033   9.432   0.659
 5111SOL    HW117230   0.056   9.360   0.600
 5111SOL    HW217231  14.827   9.399   0.708
 5112SOL     OW17232  14.060   9.659  10.996
 5112SOL    HW117233  14.058   9.564  11.005
 5112SOL    HW217234  13.970   9.682  10.973
 5113SOL     OW17235   5.950   5.514  11.726
 5113SOL    HW117236   5.988   5.482  11.644
 5113SOL    HW217237   5.867   5.468  11.735
 5114SOL     OW17238   4.105   2.134   0.438
 5114SOL    HW117239   4.014   2.158   0.457
 5114SOL    HW217240   4.110   2.133   0.342
 5115SOL     OW17241   5.291  10.896   1.926
 5115SOL    HW117242   5.274  10.931   1.839
 5115SOL    HW217243   5.231  10.822   1.935
 5116SOL     OW17244   1.321  12.461   8.292
 5116SOL    HW117245   1.274  12.410   8.226
 5116SOL    HW217246   1.355  12.396   8.353
 5117SOL     OW17247   0.564  11.784   0.272
 5117SOL    HW117248   0.602  11.785   0.184
 5117SOL    HW217249   0.469  11.786   0.257
 5118SOL     OW17250   1.559  13.899  12.058
 5118SOL    HW117251   1.611  13.928  12.133
 5118SOL    HW217252   1.621  13.851  12.003
 5119SOL     OW17253  13.389   1.881   0.369
 5119SOL    HW117254  13.431   1.948   0.315
 5119SOL    HW217255  13.311   1.924   0.404
 5120SOL     OW17256   7.959  14.328   3.209
 5120SOL    HW117257   7.943  14.300   3.299
 5120SOL    HW217258   8.053  14.317   3.197
 5121SOL     OW17259   8.891  10.566  13.575
 5121SOL    HW117260   8.971  10.515  13.590
 5121SOL    HW217261   8.824  10.500  13.556
 5122SOL     OW17262  14.674   1.708   3.761
 5122SOL    HW117263  14.648   1.778   3.821
 5122SOL    HW217264  14.749   1.744   3.713
 5123SOL     OW17265   4.612  13.940  12.733
 5123SOL    HW117266   4.621  13.851  12.700
 5123SOL    HW217267   4.688  13.952  12.790
 5124SOL     OW17268   0.562   9.852   4.281
 5124SOL    HW117269   0.570   9.780   4.344
 5124SOL    HW217270   0.490   9.825   4.223
 5125SOL     OW17271  10.211   7.290   3.759
 5125SOL    HW117272  10.292   7.252   3.724
 5125SOL    HW217273  10.142   7.256   3.701
 5126SOL     OW17274   7.006   8.475   9.505
 5126SOL    HW117275   6.911   8.475   9.515
 5126SOL    HW217276   7.020   8.503   9.415
 5127SOL     OW17277   0.931  11.122  13.782
 5127SOL    HW117278   1.025  11.133  13.770
 5127SOL    HW217279   0.893  11.153  13.700
 5128SOL     OW17280   7.669  12.710   2.420
 5128SOL    HW117281   7.703  12.624   2.396
 5128SOL    HW217282   7.611  12.693   2.494
 5129SOL     OW17283   6.488  14.830   3.587
 5129SOL    HW117284   6.566  14.776   3.599
 5129SOL    HW217285   6.517   0.030   3.528
 5130SOL     OW17286   1.984  14.586  12.260
 5130SOL    HW117287   2.037  14.512  12.289
 5130SOL    HW217288   1.935  14.613  12.337
 5131SOL     OW17289   0.877  10.046  11.417
 5131SOL    HW117290   0.932  10.121  11.396
 5131SOL    HW217291   0.888  10.034  11.511
 5132SOL     OW17292   0.369   1.161   6.536
 5132SOL    HW117293   0.308   1.146   6.608
 5132SOL    HW217294   0.371   1.077   6.489
 5133SOL     OW17295   6.140   1.266   6.629
 5133SOL    HW117296   6.194   1.253   6.707
 5133SOL    HW217297   6.109   1.356   6.635
 5134SOL     OW17298   7.687   2.973   3.075
 5134SOL    HW117299   7.763   2.978   3.132
 5134SOL    HW217300   7.617   2.939   3.130
 5135SOL     OW17301   2.560   3.733   5.652
 5135SOL    HW117302   2.522   3.645   5.660
 5135SOL    HW217303   2.652   3.718   5.632
 5136SOL     OW17304   8.418   0.413   1.265
 5136SOL    HW117305   8.395   0.342   1.205
 5136SOL    HW217306   8.358   0.484   1.241
 5137SOL     OW17307  13.726   6.519   2.533
 5137SOL    HW117308  13.756   6.571   2.458
 5137SOL    HW217309  13.778   6.551   2.607
 5138SOL     OW17310   8.001   7.729  13.099
 5138SOL    HW117311   7.982   7.678  13.178
 5138SOL    HW217312   8.096   7.742  13.101
 5139SOL     OW17313   8.139   2.392  11.581
 5139SOL    HW117314   8.204   2.446  11.537
 5139SOL    HW217315   8.077   2.455  11.619
 5140SOL     OW17316   6.653   3.097   9.332
 5140SOL    HW117317   6.608   3.032   9.385
 5140SOL    HW217318   6.723   3.048   9.289
 5141SOL     OW17319   7.497   1.332   3.013
 5141SOL    HW117320   7.535   1.311   3.098
 5141SOL    HW217321   7.432   1.264   2.997
 5142SOL     OW17322  12.838   0.534   9.351
 5142SOL    HW117323  12.832   0.527   9.256
 5142SOL    HW217324  12.828   0.443   9.382
 5143SOL     OW17325   4.978   6.033  10.256
 5143SOL    HW117326   4.994   6.127  10.245
 5143SOL    HW217327   5.041   6.006  10.323
 5144SOL     OW17328   1.663   1.633  10.430
 5144SOL    HW117329   1.677   1.573  10.504
 5144SOL    HW217330   1.721   1.600  10.361
 5145SOL     OW17331   1.030   8.617   9.296
 5145SOL    HW117332   1.100   8.558   9.269
 5145SOL    HW217333   1.055   8.702   9.258
 5146SOL     OW17334   9.086   4.209   0.470
 5146SOL    HW117335   9.048   4.224   0.384
 5146SOL    HW217336   9.107   4.296   0.503
 5147SOL     OW17337  12.747  12.201  12.311
 5147SOL    HW117338  12.775  12.292  12.319
 5147SOL    HW217339  12.757  12.165  12.400
 5148SOL     OW17340  11.924  13.093  10.962
 5148SOL    HW117341  11.854  13.111  11.024
 5148SOL    HW217342  12.003  13.087  11.016
 5149SOL     OW17343  11.565   0.694   8.421
 5149SOL    HW117344  11.625   0.679   8.495
 5149SOL    HW217345  11.478   0.679   8.458
 5150SOL     OW17346   2.142   8.189   8.405
 5150SOL    HW117347   2.175   8.100   8.393
 5150SOL    HW217348   2.117   8.217   8.317
 5151SOL     OW17349   1.715  14.760   6.059
 5151SOL    HW117350   1.744  14.791   5.973
 5151SOL    HW217351   1.795  14.755   6.111
 5152SOL     OW17352  12.081  12.977   6.491
 5152SOL    HW117353  12.174  12.966   6.512
 5152SOL    HW217354  12.057  12.894   6.449
 5153SOL     OW17355  12.458   6.627   8.058
 5153SOL    HW117356  12.401   6.704   8.056
 5153SOL    HW217357  12.407   6.560   8.103
 5154SOL     OW17358  10.843   9.511   8.821
 5154SOL    HW117359  10.747   9.506   8.817
 5154SOL    HW217360  10.872   9.421   8.833
 5155SOL     OW17361  11.376   2.714  13.649
 5155SOL    HW117362  11.297   2.670  13.680
 5155SOL    HW217363  11.399   2.668  13.569
 5156SOL     OW17364   4.974  10.608   7.133
 5156SOL    HW117365   5.011  10.662   7.203
 5156SOL    HW217366   4.955  10.524   7.174
 5157SOL     OW17367   1.390  14.650   8.954
 5157SOL    HW117368   1.385  14.571   8.901
 5157SOL    HW217369   1.349  14.626   9.037
 5158SOL     OW17370   0.403   6.047   2.709
 5158SOL    HW117371   0.397   6.112   2.638
 5158SOL    HW217372   0.319   6.054   2.755
 5159SOL     OW17373   5.811  10.969   4.741
 5159SOL    HW117374   5.744  11.034   4.720
 5159SOL    HW217375   5.893  11.018   4.740
 5160SOL     OW17376  12.279   7.418   8.902
 5160SOL    HW117377  12.229   7.493   8.934
 5160SOL    HW217378  12.231   7.388   8.825
 5161SOL     OW17379   3.175   8.726   0.601
 5161SOL    HW117380   3.230   8.749   0.676
 5161SOL    HW217381   3.223   8.759   0.525
 5162SOL     OW17382   8.247   7.762   2.254
 5162SOL    HW117383   8.275   7.808   2.333
 5162SOL    HW217384   8.268   7.822   2.182
 5163SOL     OW17385   4.400   4.072   3.400
 5163SOL    HW117386   4.335   4.040   3.462
 5163SOL    HW217387   4.454   3.996   3.380
 5164SOL     OW17388   7.973   0.057   1.686
 5164SOL    HW117389   8.029  14.866   1.735
 5164SOL    HW217390   7.903   0.001   1.651
 5165SOL     OW17391   8.297   9.437  13.823
 5165SOL    HW117392   8.264   9.414  13.910
 5165SOL    HW217393   8.266   9.526  13.807
 5166SOL     OW17394  12.517   1.065   1.020
 5166SOL    HW117395  12.509   1.158   1.040
 5166SOL    HW217396  12.519   1.060   0.925
 5167SOL     OW17397  11.211   7.805   1.891
 5167SOL    HW117398  11.148   7.739   1.919
 5167SOL    HW217399  11.294   7.759   1.885
 5168SOL     OW17400  13.358   1.676   8.506
 5168SOL    HW117401  13.305   1.642   8.435
 5168SOL    HW217402  13.431   1.720   8.462
 5169SOL     OW17403   9.383  12.501   8.572
 5169SOL    HW117404   9.435  12.496   8.652
 5169SOL    HW217405   9.362  12.593   8.561
 5170SOL     OW17406  14.309   5.777  13.468
 5170SOL    HW117407  14.404   5.779  13.476
 5170SOL    HW217408  14.280   5.859  13.508
 5171SOL     OW17409   3.190   9.118   9.531
 5171SOL    HW117410   3.119   9.145   9.473
 5171SOL    HW217411   3.270   9.135   9.480
 5172SOL     OW17412  14.840   2.089   3.805
 5172SOL    HW117413  14.778   2.161   3.808
 5172SOL    HW217414   0.057   2.131   3.798
 5173SOL     OW17415   7.030   0.954  10.791
 5173SOL    HW117416   7.080   0.981  10.868
 5173SOL    HW217417   7.097   0.920  10.731
 5174SOL     OW17418   7.118   5.930   4.965
 5174SOL    HW117419   7.115   5.854   5.024
 5174SOL    HW217420   7.029   5.965   4.967
 5175SOL     OW17421  14.766   9.999   6.340
 5175SOL    HW117422  14.817  10.054   6.281
 5175SOL    HW217423  14.785  10.033   6.427
 5176SOL     OW17424   4.274   9.601   4.030
 5176SOL    HW117425   4.186   9.607   3.994
 5176SOL    HW217426   4.318   9.681   4.000
 5177SOL     OW17427   7.610  10.991  14.592
 5177SOL    HW117428   7.617  10.977  14.687
 5177SOL    HW217429   7.678  10.936  14.554
 5178SOL     OW17430   8.344   7.942   8.112
 5178SOL    HW117431   8.338   7.887   8.190
 5178SOL    HW217432   8.381   7.884   8.045
 5179SOL     OW17433  13.181   2.808   9.819
 5179SOL    HW117434  13.234   2.801   9.898
 5179SOL    HW217435  13.182   2.719   9.781
 5180SOL     OW17436  13.851  10.680  12.079
 5180SOL    HW117437  13.934  10.712  12.114
 5180SOL    HW217438  13.791  10.685  12.154
 5181SOL     OW17439   5.997   2.113   7.224
 5181SOL    HW117440   6.040   2.075   7.147
 5181SOL    HW217441   6.043   2.197   7.237
 5182SOL     OW17442   6.352   2.520  14.757
 5182SOL    HW117443   6.328   2.575  14.682
 5182SOL    HW217444   6.391   2.580  14.820
 5183SOL     OW17445  11.447  10.669   9.792
 5183SOL    HW117446  11.412  10.754   9.822
 5183SOL    HW217447  11.397  10.605   9.843
 5184SOL     OW17448   3.501   5.347   0.467
 5184SOL    HW117449   3.453   5.283   0.519
 5184SOL    HW217450   3.559   5.391   0.530
 5185SOL     OW17451   4.035  11.876  14.792
 5185SOL    HW117452   4.019  11.836   0.008
 5185SOL    HW217453   3.948  11.881  14.752
 5186SOL     OW17454  11.246   3.886   3.643
 5186SOL    HW117455  11.270   3.945   3.572
 5186SOL    HW217456  11.307   3.907   3.714
 5187SOL     OW17457   8.394   0.526  11.284
 5187SOL    HW117458   8.426   0.557  11.200
 5187SOL    HW217459   8.373   0.434  11.270
 5188SOL     OW17460   0.386  10.989   0.258
 5188SOL    HW117461   0.391  10.896   0.282
 5188SOL    HW217462   0.375  10.989   0.163
 5189SOL     OW17463   0.053   8.376   9.841
 5189SOL    HW117464  14.845   8.373   9.785
 5189SOL    HW217465   0.065   8.468   9.862
 5190SOL     OW17466   6.464   9.065   6.467
 5190SOL    HW117467   6.470   9.090   6.375
 5190SOL    HW217468   6.554   9.044   6.492
 5191SOL     OW17469  13.784   5.428   0.115
 5191SOL    HW117470  13.739   5.503   0.076
 5191SOL    HW217471  13.762   5.431   0.208
 5192SOL     OW17472  14.069   6.859   0.942
 5192SOL    HW117473  14.026   6.940   0.914
 5192SOL    HW217474  14.011   6.790   0.912
 5193SOL     OW17475   8.801   0.807  10.398
 5193SOL    HW117476   8.777   0.802  10.305
 5193SOL    HW217477   8.785   0.719  10.432
 5194SOL     OW17478  11.166  14.024   5.163
 5194SOL    HW117479  11.093  14.012   5.102
 5194SOL    HW217480  11.238  14.057   5.109
 5195SOL     OW17481   4.752   5.053   2.740
 5195SOL    HW117482   4.790   5.107   2.670
 5195SOL    HW217483   4.730   4.970   2.698
 5196SOL     OW17484   6.609  10.060   0.718
 5196SOL    HW117485   6.651  10.132   0.765
 5196SOL    HW217486   6.626   9.983   0.773
 5197SOL     OW17487  10.467   3.550  12.298
 5197SOL    HW117488  10.558   3.565  12.273
 5197SOL    HW217489  10.424   3.635  12.285
 5198SOL     OW17490  11.132  12.286   6.017
 5198SOL    HW117491  11.175  12.371   6.029
 5198SOL    HW217492  11.082  12.273   6.097
 5199SOL     OW17493  14.814  12.557   8.717
 5199SOL    HW117494   0.029  12.583   8.754
 5199SOL    HW217495  14.761  12.637   8.722
 5200SOL     OW17496  14.586   5.840   7.117
 5200SOL    HW117497  14.521   5.901   7.153
 5200SOL    HW217498  14.564   5.756   7.157
 5201SOL     OW17499  13.868   0.835   5.846
 5201SOL    HW117500  13.889   0.810   5.756
 5201SOL    HW217501  13.801   0.903   5.837
 5202SOL     OW17502  10.551   8.814   0.903
 5202SOL    HW117503  10.581   8.725   0.886
 5202SOL    HW217504  10.501   8.808   0.984
 5203SOL     OW17505  12.351  11.644  13.385
 5203SOL    HW117506  12.315  11.732  13.378
 5203SOL    HW217507  12.442  11.657  13.410
 5204SOL     OW17508  10.081   2.759   3.397
 5204SOL    HW117509  10.139   2.713   3.459
 5204SOL    HW217510  10.099   2.851   3.412
 5205SOL     OW17511  11.496  11.669   3.493
 5205SOL    HW117512  11.504  11.646   3.586
 5205SOL    HW217513  11.416  11.721   3.488
 5206SOL     OW17514   1.555  13.624  13.534
 5206SOL    HW117515   1.481  13.667  13.576
 5206SOL    HW217516   1.542  13.531  13.551
 5207SOL     OW17517   9.068   0.236   7.262
 5207SOL    HW117518   9.074   0.322   7.304
 5207SOL    HW217519   9.095   0.251   7.172
 5208SOL     OW17520   1.221   5.268   1.384
 5208SOL    HW117521   1.154   5.229   1.328
 5208SOL    HW217522   1.235   5.355   1.347
 5209SOL     OW17523   3.113   2.115   9.463
 5209SOL    HW117524   3.146   2.035   9.503
 5209SOL    HW217525   3.025   2.126   9.500
 5210SOL     OW17526  14.127   9.804  12.506
 5210SOL    HW117527  14.111   9.835  12.417
 5210SOL    HW217528  14.115   9.709  12.501
 5211SOL     OW17529   9.528   3.354   0.003
 5211SOL    HW117530   9.614   3.349  14.831
 5211SOL    HW217531   9.494   3.439  14.845
 5212SOL     OW17532   8.609   1.109   0.655
 5212SOL    HW117533   8.581   1.029   0.611
 5212SOL    HW217534   8.532   1.166   0.653
 5213SOL     OW17535  14.067  14.480  10.811
 5213SOL    HW117536  14.138  14.522  10.763
 5213SOL    HW217537  14.098  14.392  10.829
 5214SOL     OW17538   5.669   7.389   2.274
 5214SOL    HW117539   5.660   7.446   2.197
 5214SOL    HW217540   5.681   7.301   2.238
 5215SOL     OW17541  10.180   9.150  14.558
 5215SOL    HW117542  10.220   9.066  14.581
 5215SOL    HW217543  10.103   9.156  14.615
 5216SOL     OW17544   5.437   3.981   0.573
 5216SOL    HW117545   5.399   3.902   0.610
 5216SOL    HW217546   5.398   3.987   0.485
 5217SOL     OW17547   6.588   5.662  11.662
 5217SOL    HW117548   6.653   5.592  11.656
 5217SOL    HW217549   6.640   5.743  11.663
 5218SOL     OW17550   7.715  12.503  14.138
 5218SOL    HW117551   7.675  12.416  14.138
 5218SOL    HW217552   7.651  12.559  14.181
 5219SOL     OW17553   7.361   5.307  14.253
 5219SOL    HW117554   7.321   5.337  14.172
 5219SOL    HW217555   7.308   5.345  14.322
 5220SOL     OW17556  13.521  12.733  12.692
 5220SOL    HW117557  13.536  12.810  12.636
 5220SOL    HW217558  13.557  12.758  12.777
 5221SOL     OW17559  10.750   8.093   2.692
 5221SOL    HW117560  10.749   8.043   2.774
 5221SOL    HW217561  10.777   8.181   2.718
 5222SOL     OW17562  13.078   5.079   4.030
 5222SOL    HW117563  13.143   5.012   4.049
 5222SOL    HW217564  13.046   5.059   3.942
 5223SOL     OW17565  10.701   1.573   2.959
 5223SOL    HW117566  10.794   1.580   2.978
 5223SOL    HW217567  10.697   1.524   2.877
 5224SOL     OW17568   2.995   0.853  13.592
 5224SOL    HW117569   3.053   0.822  13.522
 5224SOL    HW217570   2.950   0.929  13.554
 5225SOL     OW17571   2.624  10.737  10.087
 5225SOL    HW117572   2.658  10.804  10.146
 5225SOL    HW217573   2.529  10.743  10.095
 5226SOL     OW17574   3.993   5.436   9.053
 5226SOL    HW117575   3.910   5.424   9.099
 5226SOL    HW217576   3.996   5.364   8.989
 5227SOL     OW17577   1.757  14.489   2.553
 5227SOL    HW117578   1.814  14.545   2.501
 5227SOL    HW217579   1.717  14.430   2.488
 5228SOL     OW17580   6.093  13.508  12.457
 5228SOL    HW117581   6.067  13.559  12.533
 5228SOL    HW217582   6.012  13.469  12.425
 5229SOL     OW17583   7.660   2.648   9.463
 5229SOL    HW117584   7.660   2.558   9.496
 5229SOL    HW217585   7.743   2.685   9.493
 5230SOL     OW17586   5.540   4.612  14.743
 5230SOL    HW117587   5.561   4.524  14.712
 5230SOL    HW217588   5.509   4.658  14.665
 5231SOL     OW17589   7.733   6.721   8.911
 5231SOL    HW117590   7.777   6.777   8.975
 5231SOL    HW217591   7.707   6.780   8.841
 5232SOL     OW17592   4.845   7.437   7.045
 5232SOL    HW117593   4.887   7.515   7.081
 5232SOL    HW217594   4.782   7.471   6.982
 5233SOL     OW17595   0.229   6.423   6.536
 5233SOL    HW117596   0.313   6.389   6.507
 5233SOL    HW217597   0.225   6.512   6.501
 5234SOL     OW17598   7.729   7.572   1.635
 5234SOL    HW117599   7.760   7.638   1.572
 5234SOL    HW217600   7.776   7.493   1.611
 5235SOL     OW17601  12.535   1.897   6.065
 5235SOL    HW117602  12.548   1.991   6.069
 5235SOL    HW217603  12.559   1.865   6.152
 5236SOL     OW17604   7.128   1.246  13.119
 5236SOL    HW117605   7.056   1.191  13.088
 5236SOL    HW217606   7.135   1.227  13.212
 5237SOL     OW17607   1.066   3.895  11.643
 5237SOL    HW117608   0.975   3.880  11.670
 5237SOL    HW217609   1.115   3.822  11.681
 5238SOL     OW17610  12.178   2.022   4.097
 5238SOL    HW117611  12.216   2.033   4.184
 5238SOL    HW217612  12.229   1.953   4.056
 5239SOL     OW17613   9.317   9.785  10.166
 5239SOL    HW117614   9.391   9.764  10.108
 5239SOL    HW217615   9.310   9.881  10.161
 5240SOL     OW17616  11.453   0.835   4.087
 5240SOL    HW117617  11.412   0.906   4.136
 5240SOL    HW217618  11.546   0.844   4.105
 5241SOL     OW17619   8.501   8.624   0.375
 5241SOL    HW117620   8.494   8.616   0.470
 5241SOL    HW217621   8.410   8.619   0.344
 5242SOL     OW17622  13.975  12.009   9.403
 5242SOL    HW117623  13.973  12.080   9.467
 5242SOL    HW217624  13.891  12.017   9.356
 5243SOL     OW17625   8.704  14.404   3.235
 5243SOL    HW117626   8.688  14.480   3.180
 5243SOL    HW217627   8.648  14.416   3.311
 5244SOL     OW17628   6.889   9.764   1.009
 5244SOL    HW117629   6.898   9.823   1.084
 5244SOL    HW217630   6.845   9.686   1.044
 5245SOL     OW17631   6.788  13.693   7.432
 5245SOL    HW117632   6.868  13.662   7.475
 5245SOL    HW217633   6.819  13.753   7.365
 5246SOL     OW17634   2.570   8.365   6.902
 5246SOL    HW117635   2.636   8.320   6.954
 5246SOL    HW217636   2.619   8.407   6.831
 5247SOL     OW17637   5.539  10.360   6.362
 5247SOL    HW117638   5.571  10.394   6.278
 5247SOL    HW217639   5.448  10.335   6.345
 5248SOL     OW17640  11.963  13.829  13.503
 5248SOL    HW117641  11.993  13.890  13.435
 5248SOL    HW217642  12.034  13.766  13.512
 5249SOL     OW17643   1.453  13.862   8.219
 5249SOL    HW117644   1.500  13.926   8.166
 5249SOL    HW217645   1.372  13.906   8.245
 5250SOL     OW17646   8.323   6.386   5.579
 5250SOL    HW117647   8.283   6.358   5.497
 5250SOL    HW217648   8.408   6.342   5.581
 5251SOL     OW17649  10.243   3.196   7.983
 5251SOL    HW117650  10.303   3.124   8.005
 5251SOL    HW217651  10.300   3.265   7.949
 5252SOL     OW17652  13.310  12.835   1.347
 5252SOL    HW117653  13.393  12.874   1.373
 5252SOL    HW217654  13.257  12.838   1.427
 5253SOL     OW17655  10.320   7.247   7.095
 5253SOL    HW117656  10.410   7.227   7.072
 5253SOL    HW217657  10.271   7.236   7.013
 5254SOL     OW17658   4.880   7.296  10.456
 5254SOL    HW117659   4.874   7.325  10.365
 5254SOL    HW217660   4.969   7.260  10.463
 5255SOL     OW17661  13.613  11.661   8.384
 5255SOL    HW117662  13.634  11.715   8.308
 5255SOL    HW217663  13.592  11.575   8.347
 5256SOL     OW17664   5.472  11.969   0.098
 5256SOL    HW117665   5.410  11.896   0.102
 5256SOL    HW217666   5.542  11.945   0.158
 5257SOL     OW17667   4.394   1.266   2.251
 5257SOL    HW117668   4.481   1.241   2.281
 5257SOL    HW217669   4.352   1.303   2.329
 5258SOL     OW17670   4.182   2.659   5.871
 5258SOL    HW117671   4.111   2.693   5.818
 5258SOL    HW217672   4.142   2.637   5.955
 5259SOL     OW17673  12.714   7.950   2.726
 5259SOL    HW117674  12.806   7.971   2.739
 5259SOL    HW217675  12.708   7.856   2.738
 5260SOL     OW17676   1.106   5.897   5.842
 5260SOL    HW117677   1.163   5.840   5.790
 5260SOL    HW217678   1.107   5.858   5.930
 5261SOL     OW17679  13.846   2.709   1.865
 5261SOL    HW117680  13.857   2.669   1.952
 5261SOL    HW217681  13.754   2.734   1.861
 5262SOL     OW17682   0.286   0.745   5.850
 5262SOL    HW117683   0.208   0.743   5.906
 5262SOL    HW217684   0.265   0.687   5.777
 5263SOL     OW17685   0.417   8.257  12.542
 5263SOL    HW117686   0.472   8.319  12.590
 5263SOL    HW217687   0.331   8.265  12.583
 5264SOL     OW17688   1.384  13.248   4.574
 5264SOL    HW117689   1.336  13.220   4.496
 5264SOL    HW217690   1.388  13.343   4.567
 5265SOL     OW17691   7.122   6.589   9.893
 5265SOL    HW117692   7.200   6.547   9.930
 5265SOL    HW217693   7.091   6.528   9.826
 5266SOL     OW17694  11.103   5.837   9.061
 5266SOL    HW117695  11.126   5.881   9.143
 5266SOL    HW217696  11.169   5.769   9.052
 5267SOL     OW17697   0.623   7.863   4.343
 5267SOL    HW117698   0.651   7.952   4.365
 5267SOL    HW217699   0.614   7.864   4.247
 5268SOL     OW17700   5.261   4.063   1.992
 5268SOL    HW117701   5.167   4.062   1.975
 5268SOL    HW217702   5.295   3.987   1.945
 5269SOL     OW17703  13.440   7.693  10.192
 5269SOL    HW117704  13.495   7.624  10.155
 5269SOL    HW217705  13.459   7.690  10.286
 5270SOL     OW17706  10.211   3.702   1.980
 5270SOL    HW117707  10.263   3.676   2.056
 5270SOL    HW217708  10.250   3.654   1.907
 5271SOL     OW17709   3.022  12.499   5.644
 5271SOL    HW117710   2.935  12.510   5.682
 5271SOL    HW217711   3.076  12.563   5.690
 5272SOL     OW17712  11.685   9.105   1.021
 5272SOL    HW117713  11.638   9.175   1.065
 5272SOL    HW217714  11.688   9.132   0.929
 5273SOL     OW17715  11.248   5.654   0.976
 5273SOL    HW117716  11.264   5.686   0.887
 5273SOL    HW217717  11.269   5.729   1.032
 5274SOL     OW17718  12.830  11.922   0.917
 5274SOL    HW117719  12.735  11.910   0.914
 5274SOL    HW217720  12.856  11.928   0.825
 5275SOL     OW17721  11.455   6.038  11.145
 5275SOL    HW117722  11.528   6.098  11.134
 5275SOL    HW217723  11.417   6.061  11.229
 5276SOL     OW17724  12.877   6.934   8.675
 5276SOL    HW117725  12.921   7.019   8.671
 5276SOL    HW217726  12.857   6.922   8.768
 5277SOL     OW17727   1.946   7.111   0.060
 5277SOL    HW117728   1.991   7.049   0.118
 5277SOL    HW217729   1.948   7.194   0.107
 5278SOL     OW17730   1.400   8.968  13.158
 5278SOL    HW117731   1.419   9.038  13.095
 5278SOL    HW217732   1.484   8.923  13.168
 5279SOL     OW17733  11.490   2.465  11.539
 5279SOL    HW117734  11.467   2.538  11.596
 5279SOL    HW217735  11.448   2.485  11.455
 5280SOL     OW17736   0.199   8.090   8.187
 5280SOL    HW117737   0.291   8.109   8.209
 5280SOL    HW217738   0.173   8.021   8.248
 5281SOL     OW17739   7.334  12.521  12.608
 5281SOL    HW117740   7.427  12.544  12.609
 5281SOL    HW217741   7.297  12.573  12.537
 5282SOL     OW17742   8.528   7.456  14.464
 5282SOL    HW117743   8.505   7.401  14.539
 5282SOL    HW217744   8.493   7.543  14.486
 5283SOL     OW17745   6.309  12.301  13.311
 5283SOL    HW117746   6.380  12.346  13.356
 5283SOL    HW217747   6.289  12.356  13.236
 5284SOL     OW17748   8.704   7.237  13.162
 5284SOL    HW117749   8.791   7.277  13.163
 5284SOL    HW217750   8.720   7.146  13.138
 5285SOL     OW17751   2.693   5.376   7.757
 5285SOL    HW117752   2.612   5.418   7.786
 5285SOL    HW217753   2.677   5.282   7.768
 5286SOL     OW17754   0.692  12.468   9.969
 5286SOL    HW117755   0.764  12.489  10.028
 5286SOL    HW217756   0.721  12.500   9.883
 5287SOL     OW17757   8.741   6.868  11.630
 5287SOL    HW117758   8.807   6.913  11.682
 5287SOL    HW217759   8.690   6.818  11.694
 5288SOL     OW17760  12.019  14.682   8.880
 5288SOL    HW117761  11.959  14.698   8.807
 5288SOL    HW217762  12.096  14.734   8.860
 5289SOL     OW17763   5.672   3.299  11.549
 5289SOL    HW117764   5.744   3.362  11.556
 5289SOL    HW217765   5.713   3.220  11.513
 5290SOL     OW17766   6.299   1.525  12.386
 5290SOL    HW117767   6.312   1.592  12.453
 5290SOL    HW217768   6.352   1.555  12.312
 5291SOL     OW17769   6.785   6.343   1.271
 5291SOL    HW117770   6.819   6.254   1.285
 5291SOL    HW217771   6.810   6.391   1.350
 5292SOL     OW17772   5.828  11.914  11.776
 5292SOL    HW117773   5.912  11.931  11.735
 5292SOL    HW217774   5.764  11.956  11.718
 5293SOL     OW17775   0.636   2.540   0.835
 5293SOL    HW117776   0.693   2.527   0.759
 5293SOL    HW217777   0.691   2.518   0.910
 5294SOL     OW17778   3.475  11.118  10.631
 5294SOL    HW117779   3.538  11.053  10.663
 5294SOL    HW217780   3.509  11.202  10.662
 5295SOL     OW17781   9.612   5.103   4.539
 5295SOL    HW117782   9.559   5.023   4.544
 5295SOL    HW217783   9.588   5.142   4.455
 5296SOL     OW17784   3.367  13.312   8.897
 5296SOL    HW117785   3.452  13.320   8.853
 5296SOL    HW217786   3.387  13.280   8.984
 5297SOL     OW17787   0.012   0.736   8.278
 5297SOL    HW117788   0.013   0.761   8.186
 5297SOL    HW217789   0.104   0.742   8.306
 5298SOL     OW17790   5.654   4.405   4.647
 5298SOL    HW117791   5.744   4.430   4.671
 5298SOL    HW217792   5.659   4.389   4.553
 5299SOL     OW17793  12.442   5.055   3.653
 5299SOL    HW117794  12.414   5.139   3.615
 5299SOL    HW217795  12.465   5.076   3.743
 5300SOL     OW17796   1.479  13.087  10.899
 5300SOL    HW117797   1.426  13.160  10.868
 5300SOL    HW217798   1.520  13.051  10.820
 5301SOL     OW17799  14.176   8.546  11.663
 5301SOL    HW117800  14.238   8.541  11.736
 5301SOL    HW217801  14.169   8.457  11.630
 5302SOL     OW17802  10.880   5.558   7.218
 5302SOL    HW117803  10.942   5.537   7.148
 5302SOL    HW217804  10.816   5.616   7.177
 5303SOL     OW17805   5.880   1.624   7.299
 5303SOL    HW117806   5.860   1.681   7.225
 5303SOL    HW217807   5.916   1.682   7.366
 5304SOL     OW17808   1.765  14.150   7.696
 5304SOL    HW117809   1.775  14.152   7.601
 5304SOL    HW217810   1.703  14.220   7.715
 5305SOL     OW17811   5.235  13.192   8.076
 5305SOL    HW117812   5.312  13.167   8.024
 5305SOL    HW217813   5.232  13.127   8.146
 5306SOL     OW17814  10.729   5.266   8.860
 5306SOL    HW117815  10.805   5.218   8.893
 5306SOL    HW217816  10.714   5.333   8.926
 5307SOL     OW17817   2.438   0.777  12.005
 5307SOL    HW117818   2.473   0.796  11.918
 5307SOL    HW217819   2.375   0.847  12.022
 5308SOL     OW17820   6.775  10.276  10.829
 5308SOL    HW117821   6.774  10.358  10.877
 5308SOL    HW217822   6.799  10.301  10.739
 5309SOL     OW17823  12.069   9.088   8.739
 5309SOL    HW117824  12.046   9.148   8.668
 5309SOL    HW217825  12.007   9.016   8.730
 5310SOL     OW17826  13.369   5.574   3.321
 5310SOL    HW117827  13.416   5.556   3.403
 5310SOL    HW217828  13.300   5.636   3.346
 5311SOL     OW17829   4.541  12.205  12.775
 5311SOL    HW117830   4.536  12.299  12.789
 5311SOL    HW217831   4.567  12.195  12.684
 5312SOL     OW17832  10.071  10.081   5.276
 5312SOL    HW117833  10.119  10.031   5.342
 5312SOL    HW217834   9.982  10.087   5.310
 5313SOL     OW17835   1.146   6.309  12.660
 5313SOL    HW117836   1.238   6.321  12.682
 5313SOL    HW217837   1.116   6.241  12.720
 5314SOL     OW17838   3.522   7.798   1.685
 5314SOL    HW117839   3.495   7.799   1.777
 5314SOL    HW217840   3.609   7.837   1.686
 5315SOL     OW17841   2.788   3.894   4.614
 5315SOL    HW117842   2.717   3.856   4.561
 5315SOL    HW217843   2.743   3.935   4.688
 5316SOL     OW17844   5.424   0.152   5.910
 5316SOL    HW117845   5.437   0.058   5.895
 5316SOL    HW217846   5.429   0.163   6.005
 5317SOL     OW17847  14.256   0.439   9.744
 5317SOL    HW117848  14.161   0.449   9.738
 5317SOL    HW217849  14.291   0.512   9.692
 5318SOL     OW17850  12.473   7.583   3.288
 5318SOL    HW117851  12.506   7.495   3.306
 5318SOL    HW217852  12.531   7.641   3.337
 5319SOL     OW17853   0.430  12.623   2.730
 5319SOL    HW117854   0.391  12.696   2.682
 5319SOL    HW217855   0.494  12.586   2.669
 5320SOL     OW17856   0.559   1.778  12.924
 5320SOL    HW117857   0.483   1.835  12.937
 5320SOL    HW217858   0.633   1.829  12.956
 5321SOL     OW17859  10.206  14.189  12.839
 5321SOL    HW117860  10.177  14.122  12.900
 5321SOL    HW217861  10.225  14.142  12.758
 5322SOL     OW17862   4.661   1.393   7.954
 5322SOL    HW117863   4.703   1.477   7.973
 5322SOL    HW217864   4.624   1.404   7.866
 5323SOL     OW17865   5.266   5.602  12.957
 5323SOL    HW117866   5.263   5.654  13.037
 5323SOL    HW217867   5.176   5.571  12.946
 5324SOL     OW17868  14.809   5.157   8.558
 5324SOL    HW117869  14.853   5.207   8.627
 5324SOL    HW217870  14.809   5.215   8.482
 5325SOL     OW17871   8.643   3.012   0.757
 5325SOL    HW117872   8.599   2.927   0.752
 5325SOL    HW217873   8.711   3.007   0.690
 5326SOL     OW17874   8.857   9.209  13.808
 5326SOL    HW117875   8.925   9.144  13.791
 5326SOL    HW217876   8.776   9.158  13.813
 5327SOL     OW17877  13.723   1.380   7.159
 5327SOL    HW117878  13.745   1.312   7.095
 5327SOL    HW217879  13.773   1.357   7.237
 5328SOL     OW17880  11.192  14.374  13.787
 5328SOL    HW117881  11.191  14.280  13.773
 5328SOL    HW217882  11.266  14.406  13.736
 5329SOL     OW17883   4.161   0.337   4.415
 5329SOL    HW117884   4.074   0.298   4.430
 5329SOL    HW217885   4.222   0.266   4.434
 5330SOL     OW17886   3.645   2.695   4.421
 5330SOL    HW117887   3.664   2.680   4.328
 5330SOL    HW217888   3.551   2.677   4.430
 5331SOL     OW17889   6.540   9.221   2.926
 5331SOL    HW117890   6.509   9.202   3.014
 5331SOL    HW217891   6.635   9.221   2.934
 5332SOL     OW17892   9.079   5.053  14.481
 5332SOL    HW117893   9.069   5.127  14.421
 5332SOL    HW217894   8.992   5.043  14.521
 5333SOL     OW17895  14.736   0.551   8.747
 5333SOL    HW117896  14.718   0.593   8.662
 5333SOL    HW217897  14.735   0.623   8.810
 5334SOL     OW17898  10.118   4.429  10.508
 5334SOL    HW117899  10.123   4.519  10.476
 5334SOL    HW217900  10.088   4.438  10.598
 5335SOL     OW17901   6.556   0.153   6.104
 5335SOL    HW117902   6.639   0.118   6.137
 5335SOL    HW217903   6.542   0.107   6.021
 5336SOL     OW17904   1.076  10.770   0.829
 5336SOL    HW117905   1.082  10.675   0.839
 5336SOL    HW217906   0.994  10.785   0.782
 5337SOL     OW17907   9.302  12.764   8.780
 5337SOL    HW117908   9.347  12.735   8.859
 5337SOL    HW217909   9.211  12.737   8.793
 5338SOL     OW17910   5.541   6.918   4.858
 5338SOL    HW117911   5.514   6.877   4.776
 5338SOL    HW217912   5.629   6.951   4.841
 5339SOL     OW17913   1.407  14.725   0.165
 5339SOL    HW117914   1.334  14.664   0.181
 5339SOL    HW217915   1.406  14.739   0.071
 5340SOL     OW17916   7.405  11.815   3.691
 5340SOL    HW117917   7.357  11.817   3.609
 5340SOL    HW217918   7.488  11.859   3.671
 5341SOL     OW17919   6.471  11.637   8.568
 5341SOL    HW117920   6.504  11.668   8.484
 5341SOL    HW217921   6.391  11.688   8.582
 5342SOL     OW17922  13.669  12.064   8.722
 5342SOL    HW117923  13.748  12.100   8.761
 5342SOL    HW217924  13.696  12.032   8.636
 5343SOL     OW17925  10.164  13.364   1.083
 5343SOL    HW117926  10.103  13.292   1.071
 5343SOL    HW217927  10.249  13.322   1.094
 5344SOL     OW17928   2.161   0.941  13.666
 5344SOL    HW117929   2.085   0.930  13.609
 5344SOL    HW217930   2.236   0.944  13.606
 5345SOL     OW17931   9.172   9.922  11.438
 5345SOL    HW117932   9.094   9.919  11.382
 5345SOL    HW217933   9.138   9.906  11.526
 5346SOL     OW17934  10.308   2.567   5.051
 5346SOL    HW117935  10.370   2.591   4.982
 5346SOL    HW217936  10.306   2.643   5.109
 5347SOL     OW17937  11.359   7.711   8.074
 5347SOL    HW117938  11.370   7.806   8.078
 5347SOL    HW217939  11.352   7.684   8.165
 5348SOL     OW17940   2.386   0.895   2.394
 5348SOL    HW117941   2.369   0.989   2.394
 5348SOL    HW217942   2.358   0.866   2.307
 5349SOL     OW17943   2.392  11.256   2.348
 5349SOL    HW117944   2.430  11.172   2.375
 5349SOL    HW217945   2.346  11.235   2.266
 5350SOL     OW17946   0.672  10.674   1.680
 5350SOL    HW117947   0.743  10.619   1.713
 5350SOL    HW217948   0.704  10.763   1.688
 5351SOL     OW17949   7.709  10.398  14.118
 5351SOL    HW117950   7.772  10.398  14.046
 5351SOL    HW217951   7.633  10.443  14.083
 5352SOL     OW17952   1.911   2.369   9.951
 5352SOL    HW117953   1.942   2.457   9.927
 5352SOL    HW217954   1.840   2.351   9.890
 5353SOL     OW17955  14.674   3.308  10.449
 5353SOL    HW117956  14.752   3.339  10.495
 5353SOL    HW217957  14.700   3.225  10.409
 5354SOL     OW17958   1.995   3.769   3.306
 5354SOL    HW117959   1.912   3.815   3.294
 5354SOL    HW217960   2.045   3.824   3.365
 5355SOL     OW17961  10.699  12.278  12.594
 5355SOL    HW117962  10.696  12.327  12.511
 5355SOL    HW217963  10.610  12.281  12.627
 5356SOL     OW17964   6.141  11.180   6.828
 5356SOL    HW117965   6.184  11.106   6.871
 5356SOL    HW217966   6.165  11.171   6.735
 5357SOL     OW17967   7.122  14.496   0.323
 5357SOL    HW117968   7.050  14.455   0.276
 5357SOL    HW217969   7.129  14.584   0.287
 5358SOL     OW17970  10.050   2.919   4.748
 5358SOL    HW117971  10.141   2.891   4.747
 5358SOL    HW217972  10.037   2.962   4.663
 5359SOL     OW17973   6.561   8.582   2.060
 5359SOL    HW117974   6.642   8.558   2.016
 5359SOL    HW217975   6.590   8.625   2.141
 5360SOL     OW17976   6.231   3.088   4.609
 5360SOL    HW117977   6.248   3.000   4.641
 5360SOL    HW217978   6.211   3.139   4.688
 5361SOL     OW17979   5.824  14.790  10.439
 5361SOL    HW117980   5.860  14.742  10.365
 5361SOL    HW217981   5.819  14.726  10.510
 5362SOL     OW17982  12.660   9.313   2.522
 5362SOL    HW117983  12.750   9.296   2.550
 5362SOL    HW217984  12.606   9.287   2.597
 5363SOL     OW17985   8.871   2.165   1.044
 5363SOL    HW117986   8.791   2.217   1.056
 5363SOL    HW217987   8.916   2.207   0.971
 5364SOL     OW17988   6.753   2.328   2.835
 5364SOL    HW117989   6.762   2.350   2.743
 5364SOL    HW217990   6.748   2.412   2.880
 5365SOL     OW17991  14.310  10.574   9.624
 5365SOL    HW117992  14.368  10.645   9.596
 5365SOL    HW217993  14.361  10.525   9.688
 5366SOL     OW17994  10.270   6.151  11.459
 5366SOL    HW117995  10.273   6.223  11.397
 5366SOL    HW217996  10.272   6.072  11.405
 5367SOL     OW17997   4.727   3.478   7.408
 5367SOL    HW117998   4.815   3.511   7.424
 5367SOL    HW217999   4.669   3.545   7.445
 5368SOL     OW18000   1.211   0.940  11.173
 5368SOL    HW118001   1.190   0.872  11.238
 5368SOL    HW218002   1.235   1.016  11.225
 5369SOL     OW18003  11.045   6.633   4.357
 5369SOL    HW118004  11.043   6.728   4.367
 5369SOL    HW218005  11.046   6.618   4.262
 5370SOL     OW18006  12.473   5.734   7.449
 5370SOL    HW118007  12.454   5.641   7.437
 5370SOL    HW218008  12.502   5.765   7.363
 5371SOL     OW18009   1.901   9.743   8.258
 5371SOL    HW118010   1.837   9.792   8.207
 5371SOL    HW218011   1.858   9.659   8.276
 5372SOL     OW18012  14.237  12.068   6.742
 5372SOL    HW118013  14.234  11.979   6.709
 5372SOL    HW218014  14.324  12.076   6.781
 5373SOL     OW18015   0.357  12.989   1.542
 5373SOL    HW118016   0.311  12.971   1.460
 5373SOL    HW218017   0.371  12.903   1.581
 5374SOL     OW18018   3.065  14.812   4.562
 5374SOL    HW118019   3.045  14.864   4.640
 5374SOL    HW218020   3.138  14.757   4.589
 5375SOL     OW18021  10.572   5.142   3.562
 5375SOL    HW118022  10.589   5.066   3.617
 5375SOL    HW218023  10.660   5.176   3.540
 5376SOL     OW18024   2.358   4.936  14.731
 5376SOL    HW118025   2.424   4.946  14.663
 5376SOL    HW218026   2.374   5.008  14.792
 5377SOL     OW18027   7.718   7.949   0.289
 5377SOL    HW118028   7.772   7.957   0.211
 5377SOL    HW218029   7.756   7.875   0.337
 5378SOL     OW18030  12.528   9.064   7.463
 5378SOL    HW118031  12.551   9.027   7.378
 5378SOL    HW218032  12.562   9.001   7.527
 5379SOL     OW18033   2.607   2.689   1.967
 5379SOL    HW118034   2.572   2.778   1.961
 5379SOL    HW218035   2.690   2.692   1.920
 5380SOL     OW18036  10.997   6.899   1.262
 5380SOL    HW118037  11.047   6.817   1.258
 5380SOL    HW218038  10.976   6.910   1.354
 5381SOL     OW18039   9.895   3.273   9.384
 5381SOL    HW118040   9.909   3.178   9.395
 5381SOL    HW218041   9.971   3.303   9.336
 5382SOL     OW18042  13.382  14.007  12.717
 5382SOL    HW118043  13.392  13.948  12.792
 5382SOL    HW218044  13.317  14.071  12.745
 5383SOL     OW18045   0.965   9.530   2.368
 5383SOL    HW118046   0.998   9.484   2.445
 5383SOL    HW218047   0.922   9.608   2.404
 5384SOL     OW18048   2.055   1.372   4.757
 5384SOL    HW118049   2.131   1.429   4.769
 5384SOL    HW218050   2.073   1.324   4.677
 5385SOL     OW18051  10.105  14.395   0.735
 5385SOL    HW118052  10.158  14.328   0.778
 5385SOL    HW218053  10.104  14.468   0.797
 5386SOL     OW18054  12.311   6.603   4.276
 5386SOL    HW118055  12.374   6.531   4.283
 5386SOL    HW218056  12.364   6.680   4.257
 5387SOL     OW18057  10.419   2.565   3.396
 5387SOL    HW118058  10.498   2.607   3.364
 5387SOL    HW218059  10.405   2.490   3.339
 5388SOL     OW18060   7.325   4.475   6.064
 5388SOL    HW118061   7.399   4.428   6.024
 5388SOL    HW218062   7.252   4.459   6.005
 5389SOL     OW18063  10.152  14.690   2.657
 5389SOL    HW118064  10.162  14.597   2.679
 5389SOL    HW218065  10.058  14.703   2.649
 5390SOL     OW18066   1.104  12.186   4.791
 5390SOL    HW118067   1.054  12.267   4.788
 5390SOL    HW218068   1.170  12.201   4.859
 5391SOL     OW18069   7.494   2.118  12.689
 5391SOL    HW118070   7.425   2.138  12.626
 5391SOL    HW218071   7.551   2.056  12.643
 5392SOL     OW18072  11.509   2.938   6.864
 5392SOL    HW118073  11.458   2.945   6.945
 5392SOL    HW218074  11.459   2.878   6.809
 5393SOL     OW18075  12.992   0.750   5.796
 5393SOL    HW118076  12.947   0.834   5.807
 5393SOL    HW218077  13.058   0.748   5.865
 5394SOL     OW18078   5.949   5.530  10.112
 5394SOL    HW118079   5.895   5.599  10.074
 5394SOL    HW218080   5.992   5.571  10.187
 5395SOL     OW18081   3.599  13.033   0.634
 5395SOL    HW118082   3.628  13.124   0.646
 5395SOL    HW218083   3.582  13.002   0.723
 5396SOL     OW18084   5.616   3.011  13.466
 5396SOL    HW118085   5.673   2.955  13.414
 5396SOL    HW218086   5.653   3.008  13.555
 5397SOL     OW18087   8.368   6.901   6.590
 5397SOL    HW118088   8.327   6.988   6.598
 5397SOL    HW218089   8.429   6.897   6.664
 5398SOL     OW18090  14.270   4.960   7.073
 5398SOL    HW118091  14.328   4.984   7.146
 5398SOL    HW218092  14.276   4.865   7.068
 5399SOL     OW18093   7.879   0.495   7.399
 5399SOL    HW118094   7.842   0.555   7.334
 5399SOL    HW218095   7.967   0.528   7.415
 5400SOL     OW18096   4.127   5.539   1.941
 5400SOL    HW118097   4.085   5.557   1.857
 5400SOL    HW218098   4.094   5.453   1.967
 5401SOL     OW18099  10.868  10.029  10.145
 5401SOL    HW118100  10.936  10.096  10.140
 5401SOL    HW218101  10.900   9.958  10.089
 5402SOL     OW18102   3.963   2.426   4.981
 5402SOL    HW118103   3.943   2.497   4.920
 5402SOL    HW218104   3.931   2.347   4.938
 5403SOL     OW18105   3.649  12.593   2.840
 5403SOL    HW118106   3.690  12.675   2.868
 5403SOL    HW218107   3.703  12.525   2.880
 5404SOL     OW18108   9.003   0.755   3.730
 5404SOL    HW118109   8.916   0.742   3.768
 5404SOL    HW218110   8.986   0.795   3.644
 5405SOL     OW18111   7.200   5.001   2.863
 5405SOL    HW118112   7.194   4.912   2.898
 5405SOL    HW218113   7.173   5.057   2.936
 5406SOL     OW18114   9.619  10.884  12.703
 5406SOL    HW118115   9.699  10.835  12.685
 5406SOL    HW218116   9.550  10.817  12.707
 5407SOL     OW18117   4.661  12.472   1.700
 5407SOL    HW118118   4.753  12.498   1.710
 5407SOL    HW218119   4.665  12.381   1.670
 5408SOL     OW18120  12.955   0.131   8.391
 5408SOL    HW118121  12.935   0.203   8.331
 5408SOL    HW218122  13.047   0.142   8.412
 5409SOL     OW18123   8.551   7.089   8.676
 5409SOL    HW118124   8.459   7.067   8.660
 5409SOL    HW218125   8.559   7.094   8.771
 5410SOL     OW18126   3.922   6.959   4.124
 5410SOL    HW118127   3.847   6.921   4.080
 5410SOL    HW218128   3.993   6.896   4.109
 5411SOL     OW18129  13.564  14.318   4.703
 5411SOL    HW118130  13.484  14.368   4.687
 5411SOL    HW218131  13.624  14.382   4.742
 5412SOL     OW18132   2.843   9.168  10.156
 5412SOL    HW118133   2.757   9.202  10.131
 5412SOL    HW218134   2.903   9.209  10.094
 5413SOL     OW18135   9.639   1.587  11.343
 5413SOL    HW118136   9.630   1.492  11.336
 5413SOL    HW218137   9.575   1.622  11.281
 5414SOL     OW18138   6.087  10.364   1.086
 5414SOL    HW118139   6.078  10.395   0.995
 5414SOL    HW218140   6.073  10.442   1.139
 5415SOL     OW18141  11.110  10.658   5.099
 5415SOL    HW118142  11.160  10.695   5.171
 5415SOL    HW218143  11.061  10.585   5.137
 5416SOL     OW18144  11.383   2.647   0.173
 5416SOL    HW118145  11.473   2.613   0.170
 5416SOL    HW218146  11.332   2.583   0.122
 5417SOL     OW18147   4.761  13.835   0.308
 5417SOL    HW118148   4.671  13.857   0.283
 5417SOL    HW218149   4.811  13.914   0.289
 5418SOL     OW18150  10.620  13.957   2.909
 5418SOL    HW118151  10.590  14.043   2.940
 5418SOL    HW218152  10.715  13.966   2.904
 5419SOL     OW18153   6.332   9.100   2.007
 5419SOL    HW118154   6.383   9.020   2.019
 5419SOL    HW218155   6.381   9.150   1.942
 5420SOL     OW18156  11.530   3.739  13.640
 5420SOL    HW118157  11.565   3.816  13.595
 5420SOL    HW218158  11.583   3.733  13.720
 5421SOL     OW18159   3.978   2.662   9.173
 5421SOL    HW118160   4.042   2.607   9.218
 5421SOL    HW218161   4.031   2.726   9.125
 5422SOL     OW18162   3.434   5.800   0.663
 5422SOL    HW118163   3.515   5.846   0.685
 5422SOL    HW218164   3.461   5.730   0.604
 5423SOL     OW18165   6.233   4.129   7.751
 5423SOL    HW118166   6.298   4.134   7.681
 5423SOL    HW218167   6.245   4.043   7.789
 5424SOL     OW18168   0.336   6.841   3.424
 5424SOL    HW118169   0.393   6.867   3.496
 5424SOL    HW218170   0.368   6.892   3.349
 5425SOL     OW18171  14.082   9.114  13.635
 5425SOL    HW118172  14.069   9.118  13.540
 5425SOL    HW218173  14.104   9.023  13.652
 5426SOL     OW18174   4.597   4.086   2.911
 5426SOL    HW118175   4.686   4.055   2.926
 5426SOL    HW218176   4.603   4.182   2.918
 5427SOL     OW18177   8.790  10.307   3.336
 5427SOL    HW118178   8.752  10.280   3.252
 5427SOL    HW218179   8.789  10.402   3.333
 5428SOL     OW18180  11.461   9.801   3.117
 5428SOL    HW118181  11.501   9.719   3.146
 5428SOL    HW218182  11.462   9.856   3.195
 5429SOL     OW18183  11.358   0.640  12.609
 5429SOL    HW118184  11.299   0.648  12.533
 5429SOL    HW218185  11.416   0.716  12.602
 5430SOL     OW18186  11.038   0.978   8.696
 5430SOL    HW118187  11.054   0.964   8.789
 5430SOL    HW218188  10.981   1.056   8.693
 5431SOL     OW18189  10.011  10.603   2.298
 5431SOL    HW118190  10.023  10.664   2.371
 5431SOL    HW218191   9.981  10.658   2.226
 5432SOL     OW18192   9.743   8.366   7.114
 5432SOL    HW118193   9.660   8.338   7.074
 5432SOL    HW218194   9.809   8.346   7.048
 5433SOL     OW18195   4.996  11.544   2.440
 5433SOL    HW118196   4.986  11.601   2.364
 5433SOL    HW218197   4.922  11.565   2.496
 5434SOL     OW18198   4.283   4.276  14.300
 5434SOL    HW118199   4.197   4.312  14.321
 5434SOL    HW218200   4.275   4.251  14.208
 5435SOL     OW18201   2.045   5.011  12.610
 5435SOL    HW118202   2.078   4.922  12.627
 5435SOL    HW218203   2.124   5.063  12.593
 5436SOL     OW18204   7.399   0.326  13.572
 5436SOL    HW118205   7.376   0.406  13.620
 5436SOL    HW218206   7.487   0.342  13.538
 5437SOL     OW18207   6.062   1.503   0.082
 5437SOL    HW118208   6.147   1.543   0.063
 5437SOL    HW218209   6.064   1.487   0.176
 5438SOL     OW18210   5.717  11.857  13.146
 5438SOL    HW118211   5.701  11.822  13.058
 5438SOL    HW218212   5.791  11.806  13.179
 5439SOL     OW18213  14.041  11.533   3.208
 5439SOL    HW118214  13.982  11.608   3.218
 5439SOL    HW218215  14.102  11.542   3.281
 5440SOL     OW18216   1.900   8.615   2.601
 5440SOL    HW118217   1.864   8.559   2.669
 5440SOL    HW218218   1.991   8.588   2.592
 5441SOL     OW18219  13.758   5.624   7.735
 5441SOL    HW118220  13.748   5.551   7.796
 5441SOL    HW218221  13.778   5.699   7.790
 5442SOL     OW18222   3.239  12.210  14.356
 5442SOL    HW118223   3.333  12.202  14.373
 5442SOL    HW218224   3.233  12.222  14.262
 5443SOL     OW18225  11.905   3.588  14.001
 5443SOL    HW118226  11.919   3.628  13.915
 5443SOL    HW218227  11.824   3.538  13.992
 5444SOL     OW18228   1.628  14.028   4.983
 5444SOL    HW118229   1.705  14.084   4.974
 5444SOL    HW218230   1.654  13.944   4.945
 5445SOL     OW18231   8.437   9.315   2.938
 5445SOL    HW118232   8.410   9.297   2.847
 5445SOL    HW218233   8.366   9.279   2.991
 5446SOL     OW18234   5.211   6.999   4.250
 5446SOL    HW118235   5.124   6.963   4.267
 5446SOL    HW218236   5.269   6.923   4.248
 5447SOL     OW18237   0.098   0.585  14.484
 5447SOL    HW118238   0.064   0.623  14.566
 5447SOL    HW218239   0.021   0.548  14.442
 5448SOL     OW18240   1.189  12.555  11.306
 5448SOL    HW118241   1.120  12.620  11.318
 5448SOL    HW218242   1.150  12.473  11.335
 5449SOL     OW18243   7.780   0.065  13.637
 5449SOL    HW118244   7.764  14.842  13.618
 5449SOL    HW218245   7.726   0.083  13.714
 5450SOL     OW18246   6.284  11.587  13.197
 5450SOL    HW118247   6.235  11.663  13.166
 5450SOL    HW218248   6.299  11.535  13.118
 5451SOL     OW18249  10.803  11.593   2.291
 5451SOL    HW118250  10.763  11.520   2.244
 5451SOL    HW218251  10.821  11.559   2.378
 5452SOL     OW18252   1.312   5.508   6.297
 5452SOL    HW118253   1.368   5.531   6.371
 5452SOL    HW218254   1.224   5.502   6.334
 5453SOL     OW18255   7.783  14.232   5.337
 5453SOL    HW118256   7.832  14.150   5.328
 5453SOL    HW218257   7.771  14.262   5.246
 5454SOL     OW18258   8.431  11.449  11.307
 5454SOL    HW118259   8.418  11.388  11.380
 5454SOL    HW218260   8.445  11.534  11.349
 5455SOL     OW18261   4.917   6.699  10.204
 5455SOL    HW118262   4.853   6.720  10.272
 5455SOL    HW218263   4.882   6.738  10.124
 5456SOL     OW18264   7.815   1.786   1.554
 5456SOL    HW118265   7.865   1.743   1.623
 5456SOL    HW218266   7.832   1.879   1.566
 5457SOL     OW18267   0.590   3.567  10.223
 5457SOL    HW118268   0.584   3.624  10.300
 5457SOL    HW218269   0.508   3.518  10.223
 5458SOL     OW18270   5.909   8.959   7.762
 5458SOL    HW118271   5.823   9.000   7.761
 5458SOL    HW218272   5.902   8.888   7.698
 5459SOL     OW18273  12.790  11.456   5.905
 5459SOL    HW118274  12.820  11.547   5.912
 5459SOL    HW218275  12.870  11.404   5.910
 5460SOL     OW18276  14.262  14.743   6.960
 5460SOL    HW118277  14.300  14.791   7.034
 5460SOL    HW218278  14.333  14.686   6.930
 5461SOL     OW18279  12.011   6.712   2.474
 5461SOL    HW118280  12.072   6.639   2.468
 5461SOL    HW218281  11.967   6.699   2.558
 5462SOL     OW18282   8.385   3.153   1.099
 5462SOL    HW118283   8.466   3.134   1.051
 5462SOL    HW218284   8.339   3.217   1.044
 5463SOL     OW18285   4.057   3.788   1.819
 5463SOL    HW118286   4.005   3.709   1.807
 5463SOL    HW218287   4.131   3.777   1.759
 5464SOL     OW18288   6.854   3.641   3.861
 5464SOL    HW118289   6.803   3.712   3.822
 5464SOL    HW218290   6.915   3.685   3.921
 5465SOL     OW18291   1.237   9.848  11.853
 5465SOL    HW118292   1.198   9.760  11.855
 5465SOL    HW218293   1.330   9.833  11.868
 5466SOL     OW18294  11.166   4.600  10.968
 5466SOL    HW118295  11.079   4.620  10.934
 5466SOL    HW218296  11.162   4.629  11.060
 5467SOL     OW18297   3.132   6.869  11.700
 5467SOL    HW118298   3.189   6.938  11.667
 5467SOL    HW218299   3.060   6.864  11.638
 5468SOL     OW18300  10.770  12.153   3.836
 5468SOL    HW118301  10.851  12.112   3.864
 5468SOL    HW218302  10.703  12.117   3.893
 5469SOL     OW18303   1.267  13.482   0.993
 5469SOL    HW118304   1.293  13.395   1.024
 5469SOL    HW218305   1.254  13.470   0.899
 5470SOL     OW18306   9.268   9.399  14.124
 5470SOL    HW118307   9.308   9.376  14.040
 5470SOL    HW218308   9.224   9.319  14.153
 5471SOL     OW18309  14.291  10.256  12.466
 5471SOL    HW118310  14.292  10.177  12.412
 5471SOL    HW218311  14.334  10.231  12.548
 5472SOL     OW18312   7.062   5.543   7.207
 5472SOL    HW118313   6.996   5.499   7.154
 5472SOL    HW218314   7.136   5.556   7.148
 5473SOL     OW18315   2.024   4.114   9.350
 5473SOL    HW118316   2.014   4.143   9.259
 5473SOL    HW218317   1.939   4.076   9.373
 5474SOL     OW18318   3.973   9.615  12.497
 5474SOL    HW118319   4.051   9.576  12.458
 5474SOL    HW218320   3.945   9.681  12.434
 5475SOL     OW18321  11.035   7.322   8.683
 5475SOL    HW118322  11.003   7.280   8.763
 5475SOL    HW218323  11.128   7.335   8.698
 5476SOL     OW18324   5.563   6.269   4.028
 5476SOL    HW118325   5.564   6.344   3.968
 5476SOL    HW218326   5.639   6.282   4.085
 5477SOL     OW18327   9.171   0.540   9.173
 5477SOL    HW118328   9.227   0.463   9.172
 5477SOL    HW218329   9.125   0.535   9.256
 5478SOL     OW18330  11.837   5.873   3.700
 5478SOL    HW118331  11.834   5.790   3.653
 5478SOL    HW218332  11.771   5.927   3.657
 5479SOL     OW18333   1.121   4.793   5.125
 5479SOL    HW118334   1.157   4.821   5.209
 5479SOL    HW218335   1.043   4.742   5.148
 5480SOL     OW18336   1.744   2.744   9.952
 5480SOL    HW118337   1.794   2.759   9.872
 5480SOL    HW218338   1.807   2.752  10.023
 5481SOL     OW18339   0.510   1.159   2.443
 5481SOL    HW118340   0.516   1.157   2.539
 5481SOL    HW218341   0.499   1.251   2.422
 5482SOL     OW18342  14.798   2.735   8.256
 5482SOL    HW118343  14.751   2.813   8.284
 5482SOL    HW218344  14.839   2.760   8.173
 5483SOL     OW18345   5.979   5.177   4.196
 5483SOL    HW118346   6.022   5.261   4.182
 5483SOL    HW218347   6.023   5.140   4.272
 5484SOL     OW18348  11.284   3.009   1.929
 5484SOL    HW118349  11.259   3.100   1.944
 5484SOL    HW218350  11.313   3.007   1.838
 5485SOL     OW18351   7.784   8.933   0.751
 5485SOL    HW118352   7.879   8.946   0.750
 5485SOL    HW218353   7.771   8.851   0.799
 5486SOL     OW18354   3.723  13.128   2.290
 5486SOL    HW118355   3.751  13.140   2.200
 5486SOL    HW218356   3.755  13.205   2.336
 5487SOL     OW18357   7.835  12.762   1.860
 5487SOL    HW118358   7.874  12.832   1.913
 5487SOL    HW218359   7.868  12.779   1.771
 5488SOL     OW18360  13.254   5.222   9.109
 5488SOL    HW118361  13.263   5.200   9.016
 5488SOL    HW218362  13.333   5.186   9.150
 5489SOL     OW18363  14.854   3.794  14.018
 5489SOL    HW118364   0.006   3.865  13.958
 5489SOL    HW218365   0.034   3.812  14.097
 5490SOL     OW18366   4.686   8.150  12.948
 5490SOL    HW118367   4.635   8.090  13.003
 5490SOL    HW218368   4.774   8.148  12.987
 5491SOL     OW18369   0.314  13.388   1.214
 5491SOL    HW118370   0.368  13.396   1.293
 5491SOL    HW218371   0.229  13.425   1.240
 5492SOL     OW18372  12.528  13.358  14.106
 5492SOL    HW118373  12.615  13.345  14.142
 5492SOL    HW218374  12.470  13.356  14.182
 5493SOL     OW18375   2.994   0.708  10.862
 5493SOL    HW118376   3.024   0.651  10.933
 5493SOL    HW218377   2.912   0.745  10.893
 5494SOL     OW18378  13.474  12.913   3.312
 5494SOL    HW118379  13.431  12.961   3.241
 5494SOL    HW218380  13.408  12.851   3.342
 5495SOL     OW18381   7.222  14.550   3.821
 5495SOL    HW118382   7.151  14.566   3.883
 5495SOL    HW218383   7.286  14.618   3.840
 5496SOL     OW18384  13.077   5.058   9.335
 5496SOL    HW118385  13.120   5.010   9.264
 5496SOL    HW218386  13.000   5.097   9.294
 5497SOL     OW18387   7.603  11.482   0.570
 5497SOL    HW118388   7.626  11.541   0.498
 5497SOL    HW218389   7.595  11.540   0.646
 5498SOL     OW18390  10.296   2.779  12.662
 5498SOL    HW118391  10.319   2.686  12.674
 5498SOL    HW218392  10.342   2.804  12.582
 5499SOL     OW18393   7.759  12.123  11.870
 5499SOL    HW118394   7.802  12.074  11.799
 5499SOL    HW218395   7.666  12.104  11.859
 5500SOL     OW18396  11.939   1.066  12.124
 5500SOL    HW118397  11.920   1.141  12.181
 5500SOL    HW218398  12.033   1.050  12.136
 5501SOL     OW18399   7.498   2.997   1.548
 5501SOL    HW118400   7.560   3.036   1.485
 5501SOL    HW218401   7.467   3.070   1.600
 5502SOL     OW18402  14.316  12.600   0.282
 5502SOL    HW118403  14.301  12.647   0.364
 5502SOL    HW218404  14.237  12.548   0.270
 5503SOL     OW18405   2.702  12.565  11.634
 5503SOL    HW118406   2.771  12.616  11.677
 5503SOL    HW218407   2.675  12.501  11.699
 5504SOL     OW18408  13.267  14.160   8.730
 5504SOL    HW118409  13.362  14.161   8.713
 5504SOL    HW218410  13.259  14.196   8.819
 5505SOL     OW18411   1.430   6.819   2.151
 5505SOL    HW118412   1.454   6.746   2.093
 5505SOL    HW218413   1.492   6.888   2.129
 5506SOL     OW18414   3.248   2.852   7.440
 5506SOL    HW118415   3.340   2.878   7.431
 5506SOL    HW218416   3.200   2.914   7.386
 5507SOL     OW18417  13.188  13.609   1.799
 5507SOL    HW118418  13.223  13.537   1.852
 5507SOL    HW218419  13.119  13.647   1.852
 5508SOL     OW18420   7.871  12.369   8.134
 5508SOL    HW118421   7.966  12.364   8.126
 5508SOL    HW218422   7.838  12.343   8.048
 5509SOL     OW18423   1.768   8.469  14.252
 5509SOL    HW118424   1.739   8.560  14.245
 5509SOL    HW218425   1.750   8.445  14.343
 5510SOL     OW18426  12.458  10.963  10.795
 5510SOL    HW118427  12.469  11.037  10.735
 5510SOL    HW218428  12.546  10.935  10.816
 5511SOL     OW18429   2.219   8.091   5.395
 5511SOL    HW118430   2.303   8.052   5.414
 5511SOL    HW218431   2.197   8.061   5.307
 5512SOL     OW18432   8.288  10.677  11.053
 5512SOL    HW118433   8.334  10.667  11.136
 5512SOL    HW218434   8.205  10.633  11.066
 5513SOL     OW18435   7.946   8.544   4.875
 5513SOL    HW118436   8.033   8.514   4.849
 5513SOL    HW218437   7.913   8.590   4.798
 5514SOL     OW18438   2.876   8.681   3.005
 5514SOL    HW118439   2.821   8.603   3.001
 5514SOL    HW218440   2.878   8.704   3.098
 5515SOL     OW18441   8.152   7.015  13.235
 5515SOL    HW118442   8.229   7.067  13.213
 5515SOL    HW218443   8.083   7.080  13.250
 5516SOL     OW18444  11.924   6.257   5.851
 5516SOL    HW118445  11.858   6.218   5.794
 5516SOL    HW218446  11.999   6.198   5.844
 5517SOL     OW18447   5.086  13.469   2.877
 5517SOL    HW118448   5.116  13.513   2.956
 5517SOL    HW218449   5.059  13.383   2.907
 5518SOL     OW18450  14.666   5.133   9.772
 5518SOL    HW118451  14.692   5.158   9.683
 5518SOL    HW218452  14.634   5.043   9.763
 5519SOL     OW18453   3.274   9.807   9.026
 5519SOL    HW118454   3.274   9.865   9.102
 5519SOL    HW218455   3.283   9.865   8.951
 5520SOL     OW18456  13.428   8.644  11.512
 5520SOL    HW118457  13.404   8.552  11.512
 5520SOL    HW218458  13.402   8.676  11.599
 5521SOL     OW18459   1.169  13.678   4.563
 5521SOL    HW118460   1.209  13.715   4.642
 5521SOL    HW218461   1.239  13.627   4.522
 5522SOL     OW18462  11.424  12.553   5.014
 5522SOL    HW118463  11.373  12.474   5.028
 5522SOL    HW218464  11.428  12.562   4.918
 5523SOL     OW18465   1.350  12.698   2.360
 5523SOL    HW118466   1.279  12.640   2.388
 5523SOL    HW218467   1.326  12.784   2.395
 5524SOL     OW18468  14.045   7.935  12.540
 5524SOL    HW118469  14.051   7.940  12.636
 5524SOL    HW218470  14.018   7.845  12.523
 5525SOL     OW18471   4.605   1.252   2.438
 5525SOL    HW118472   4.700   1.253   2.428
 5525SOL    HW218473   4.584   1.337   2.478
 5526SOL     OW18474   4.351   7.203  11.510
 5526SOL    HW118475   4.406   7.254  11.451
 5526SOL    HW218476   4.409   7.135  11.545
 5527SOL     OW18477  12.071  10.500   7.660
 5527SOL    HW118478  12.071  10.482   7.754
 5527SOL    HW218479  11.998  10.447   7.626
 5528SOL     OW18480   6.125  13.242  10.581
 5528SOL    HW118481   6.150  13.155  10.550
 5528SOL    HW218482   6.118  13.295  10.501
 5529SOL     OW18483   5.091  12.175   2.333
 5529SOL    HW118484   5.114  12.094   2.378
 5529SOL    HW218485   5.175  12.219   2.319
 5530SOL     OW18486   8.026  11.318  13.032
 5530SOL    HW118487   8.027  11.275  13.118
 5530SOL    HW218488   8.108  11.367  13.029
 5531SOL     OW18489  13.722  11.273  12.579
 5531SOL    HW118490  13.684  11.193  12.614
 5531SOL    HW218491  13.815  11.269  12.603
 5532SOL     OW18492   1.503  12.414  11.981
 5532SOL    HW118493   1.502  12.492  11.926
 5532SOL    HW218494   1.425  12.365  11.956
 5533SOL     OW18495   0.441   0.510   6.920
 5533SOL    HW118496   0.451   0.433   6.976
 5533SOL    HW218497   0.515   0.566   6.943
 5534SOL     OW18498   2.946   0.101   0.894
 5534SOL    HW118499   2.954   0.085   0.800
 5534SOL    HW218500   3.008   0.172   0.911
 5535SOL     OW18501   4.599  13.436  11.402
 5535SOL    HW118502   4.582  13.517  11.355
 5535SOL    HW218503   4.547  13.370  11.357
 5536SOL     OW18504   0.538   5.235   6.624
 5536SOL    HW118505   0.446   5.209   6.623
 5536SOL    HW218506   0.537   5.325   6.658
 5537SOL     OW18507  12.964   2.435   0.486
 5537SOL    HW118508  12.869   2.435   0.472
 5537SOL    HW218509  12.997   2.500   0.424
 5538SOL     OW18510   9.703  11.962   8.973
 5538SOL    HW118511   9.618  11.965   9.017
 5538SOL    HW218512   9.722  11.868   8.964
 5539SOL     OW18513  14.614   9.360   1.066
 5539SOL    HW118514  14.643   9.279   1.108
 5539SOL    HW218515  14.537   9.334   1.015
 5540SOL     OW18516   2.700   9.578   2.071
 5540SOL    HW118517   2.713   9.621   1.987
 5540SOL    HW218518   2.769   9.511   2.075
 5541SOL     OW18519   9.752  10.898   7.656
 5541SOL    HW118520   9.774  10.972   7.600
 5541SOL    HW218521   9.800  10.913   7.737
 5542SOL     OW18522   1.266   4.452   1.345
 5542SOL    HW118523   1.245   4.495   1.262
 5542SOL    HW218524   1.222   4.505   1.412
 5543SOL     OW18525   3.226   4.510   8.814
 5543SOL    HW118526   3.301   4.452   8.826
 5543SOL    HW218527   3.265   4.596   8.798
 5544SOL     OW18528   3.055   0.661   4.065
 5544SOL    HW118529   3.034   0.718   4.139
 5544SOL    HW218530   3.101   0.718   4.003
 5545SOL     OW18531   3.482   7.621   0.246
 5545SOL    HW118532   3.550   7.673   0.203
 5545SOL    HW218533   3.419   7.601   0.177
 5546SOL     OW18534  10.609  13.703  10.435
 5546SOL    HW118535  10.600  13.672  10.345
 5546SOL    HW218536  10.532  13.669  10.480
 5547SOL     OW18537   8.424   2.523  13.683
 5547SOL    HW118538   8.389   2.609  13.707
 5547SOL    HW218539   8.507   2.517  13.731
 5548SOL     OW18540  14.393   3.278   0.322
 5548SOL    HW118541  14.324   3.247   0.264
 5548SOL    HW218542  14.352   3.283   0.408
 5549SOL     OW18543   9.103   5.323  12.302
 5549SOL    HW118544   9.014   5.348  12.275
 5549SOL    HW218545   9.145   5.295  12.221
 5550SOL     OW18546   5.561   2.546   8.844
 5550SOL    HW118547   5.584   2.638   8.855
 5550SOL    HW218548   5.634   2.498   8.883
 5551SOL     OW18549   7.752   4.339  13.260
 5551SOL    HW118550   7.786   4.377  13.179
 5551SOL    HW218551   7.783   4.397  13.329
 5552SOL     OW18552   2.935   1.930   8.191
 5552SOL    HW118553   3.017   1.976   8.177
 5552SOL    HW218554   2.886   1.986   8.252
 5553SOL     OW18555  14.795   7.999   1.615
 5553SOL    HW118556   0.021   8.001   1.619
 5553SOL    HW218557  14.770   7.938   1.685
 5554SOL     OW18558   3.613   7.728   5.122
 5554SOL    HW118559   3.595   7.821   5.133
 5554SOL    HW218560   3.670   7.706   5.196
 5555SOL     OW18561   3.534   4.111   2.652
 5555SOL    HW118562   3.447   4.152   2.644
 5555SOL    HW218563   3.525   4.027   2.607
 5556SOL     OW18564  13.820   9.234   7.053
 5556SOL    HW118565  13.777   9.241   7.139
 5556SOL    HW218566  13.781   9.157   7.013
 5557SOL     OW18567   9.367   6.191  10.123
 5557SOL    HW118568   9.322   6.206  10.040
 5557SOL    HW218569   9.423   6.115  10.106
 5558SOL     OW18570   8.175   2.777  11.920
 5558SOL    HW118571   8.128   2.693  11.922
 5558SOL    HW218572   8.106   2.842  11.906
 5559SOL     OW18573  12.809  12.940  14.136
 5559SOL    HW118574  12.875  12.890  14.184
 5559SOL    HW218575  12.730  12.886  14.141
 5560SOL     OW18576   7.380  11.426  13.074
 5560SOL    HW118577   7.409  11.483  13.146
 5560SOL    HW218578   7.304  11.472  13.038
 5561SOL     OW18579   0.834   5.684   5.334
 5561SOL    HW118580   0.909   5.667   5.391
 5561SOL    HW218581   0.871   5.686   5.246
 5562SOL     OW18582  12.637  11.094   4.158
 5562SOL    HW118583  12.732  11.086   4.172
 5562SOL    HW218584  12.625  11.186   4.132
 5563SOL     OW18585  11.603  11.265   1.414
 5563SOL    HW118586  11.546  11.196   1.449
 5563SOL    HW218587  11.544  11.328   1.375
 5564SOL     OW18588  14.192   9.422  12.819
 5564SOL    HW118589  14.213   9.444  12.729
 5564SOL    HW218590  14.225   9.496  12.870
 5565SOL     OW18591  10.503  14.170   9.443
 5565SOL    HW118592  10.510  14.128   9.358
 5565SOL    HW218593  10.567  14.241   9.440
 5566SOL     OW18594  10.888   8.948   7.728
 5566SOL    HW118595  10.856   9.018   7.671
 5566SOL    HW218596  10.828   8.875   7.713
 5567SOL     OW18597   8.788   3.921  12.496
 5567SOL    HW118598   8.718   3.859  12.517
 5567SOL    HW218599   8.781   3.934  12.402
 5568SOL     OW18600   1.066   7.104  14.827
 5568SOL    HW118601   1.062   7.189  14.784
 5568SOL    HW218602   0.975   7.077  14.836
 5569SOL     OW18603   0.716  12.028   5.161
 5569SOL    HW118604   0.693  12.109   5.116
 5569SOL    HW218605   0.692  12.043   5.253
 5570SOL     OW18606   5.902   7.384   6.664
 5570SOL    HW118607   5.980   7.384   6.609
 5570SOL    HW218608   5.904   7.469   6.708
 5571SOL     OW18609   2.163   7.565  11.960
 5571SOL    HW118610   2.202   7.480  11.937
 5571SOL    HW218611   2.207   7.590  12.041
 5572SOL     OW18612  14.030   0.607  12.121
 5572SOL    HW118613  14.001   0.527  12.163
 5572SOL    HW218614  14.125   0.602  12.121
 5573SOL     OW18615   7.456   4.482   7.389
 5573SOL    HW118616   7.485   4.553   7.447
 5573SOL    HW218617   7.374   4.514   7.351
 5574SOL     OW18618  12.153   4.875   9.736
 5574SOL    HW118619  12.077   4.835   9.778
 5574SOL    HW218620  12.214   4.893   9.807
 5575SOL     OW18621   8.985  13.116   2.331
 5575SOL    HW118622   9.045  13.043   2.316
 5575SOL    HW218623   9.035  13.194   2.308
 5576SOL     OW18624  14.845   4.227  13.725
 5576SOL    HW118625  14.768   4.183  13.761
 5576SOL    HW218626  14.847   4.202  13.633
 5577SOL     OW18627  13.118   5.385  11.650
 5577SOL    HW118628  13.099   5.312  11.592
 5577SOL    HW218629  13.072   5.460  11.611
 5578SOL     OW18630  11.415   6.395  14.556
 5578SOL    HW118631  11.399   6.485  14.585
 5578SOL    HW218632  11.489   6.403  14.495
 5579SOL     OW18633   4.665   8.323   0.215
 5579SOL    HW118634   4.713   8.392   0.262
 5579SOL    HW218635   4.643   8.364   0.131
 5580SOL     OW18636   4.360  11.900   9.321
 5580SOL    HW118637   4.301  11.907   9.245
 5580SOL    HW218638   4.312  11.845   9.383
 5581SOL     OW18639  13.050   8.908  11.811
 5581SOL    HW118640  12.969   8.871  11.775
 5581SOL    HW218641  13.028   8.999  11.829
 5582SOL     OW18642  12.935  14.356  13.576
 5582SOL    HW118643  12.976  14.364  13.662
 5582SOL    HW218644  12.895  14.269  13.575
 5583SOL     OW18645   5.236   6.561   5.150
 5583SOL    HW118646   5.185   6.604   5.218
 5583SOL    HW218647   5.225   6.616   5.072
 5584SOL     OW18648  10.301   6.905  13.610
 5584SOL    HW118649  10.206   6.900  13.620
 5584SOL    HW218650  10.315   6.899  13.515
 5585SOL     OW18651   2.544  10.221  11.855
 5585SOL    HW118652   2.579  10.231  11.943
 5585SOL    HW218653   2.449  10.221  11.868
 5586SOL     OW18654  11.817   8.503   0.223
 5586SOL    HW118655  11.873   8.551   0.283
 5586SOL    HW218656  11.740   8.478   0.276
 5587SOL     OW18657  14.857   1.160   1.942
 5587SOL    HW118658   0.032   1.145   2.025
 5587SOL    HW218659  14.798   1.233   1.959
 5588SOL     OW18660   6.476   2.692   4.445
 5588SOL    HW118661   6.512   2.625   4.387
 5588SOL    HW218662   6.539   2.698   4.517
 5589SOL     OW18663   1.200   3.346   3.944
 5589SOL    HW118664   1.188   3.340   4.039
 5589SOL    HW218665   1.178   3.259   3.912
 5590SOL     OW18666  10.986  12.417  11.862
 5590SOL    HW118667  10.919  12.356  11.893
 5590SOL    HW218668  10.938  12.481  11.809
 5591SOL     OW18669  13.493   2.304   2.242
 5591SOL    HW118670  13.414   2.251   2.232
 5591SOL    HW218671  13.540   2.294   2.159
 5592SOL     OW18672   3.946  11.112   7.638
 5592SOL    HW118673   4.014  11.163   7.681
 5592SOL    HW218674   3.867  11.128   7.690
 5593SOL     OW18675   0.960   3.711   2.776
 5593SOL    HW118676   0.934   3.703   2.684
 5593SOL    HW218677   0.907   3.782   2.810
 5594SOL     OW18678  14.310   1.631   8.847
 5594SOL    HW118679  14.315   1.714   8.895
 5594SOL    HW218680  14.332   1.654   8.757
 5595SOL     OW18681   8.322  11.198   0.488
 5595SOL    HW118682   8.280  11.260   0.546
 5595SOL    HW218683   8.390  11.248   0.444
 5596SOL     OW18684  12.294  13.143   4.630
 5596SOL    HW118685  12.349  13.067   4.612
 5596SOL    HW218686  12.266  13.131   4.721
 5597SOL     OW18687  13.696   8.060   8.537
 5597SOL    HW118688  13.694   8.031   8.446
 5597SOL    HW218689  13.628   8.127   8.543
 5598SOL     OW18690   9.269  12.994   3.999
 5598SOL    HW118691   9.241  12.906   3.973
 5598SOL    HW218692   9.190  13.034   4.036
 5599SOL     OW18693   4.125   5.114  13.477
 5599SOL    HW118694   4.172   5.186  13.435
 5599SOL    HW218695   4.032   5.138  13.469
 5600SOL     OW18696   4.959   1.189   6.383
 5600SOL    HW118697   5.040   1.162   6.426
 5600SOL    HW218698   4.965   1.150   6.295
 5601SOL     OW18699   1.091   0.598  10.561
 5601SOL    HW118700   1.107   0.525  10.501
 5601SOL    HW218701   1.146   0.581  10.636
 5602SOL     OW18702   8.141  14.858   9.669
 5602SOL    HW118703   8.165   0.054   9.735
 5602SOL    HW218704   8.166  14.774   9.709
 5603SOL     OW18705  10.370   0.592  12.212
 5603SOL    HW118706  10.381   0.533  12.286
 5603SOL    HW218707  10.456   0.596  12.171
 5604SOL     OW18708  12.918   6.821   1.815
 5604SOL    HW118709  12.951   6.737   1.784
 5604SOL    HW218710  12.906   6.808   1.909
 5605SOL     OW18711  13.970  12.243  11.034
 5605SOL    HW118712  13.889  12.294  11.035
 5605SOL    HW218713  14.019  12.277  10.959
 5606SOL     OW18714  14.281   6.221   3.938
 5606SOL    HW118715  14.344   6.218   3.866
 5606SOL    HW218716  14.292   6.308   3.976
 5607SOL     OW18717   8.923   3.115   9.347
 5607SOL    HW118718   8.949   3.040   9.400
 5607SOL    HW218719   9.005   3.152   9.316
 5608SOL     OW18720  10.056   8.356   5.663
 5608SOL    HW118721  10.062   8.430   5.724
 5608SOL    HW218722   9.970   8.319   5.681
 5609SOL     OW18723   9.280   9.775   3.498
 5609SOL    HW118724   9.282   9.722   3.578
 5609SOL    HW218725   9.372   9.792   3.478
 5610SOL     OW18726   4.436   8.493   3.807
 5610SOL    HW118727   4.458   8.566   3.749
 5610SOL    HW218728   4.446   8.415   3.753
 5611SOL     OW18729  10.142  11.720  13.966
 5611SOL    HW118730  10.213  11.777  13.995
 5611SOL    HW218731  10.070  11.781  13.947
 5612SOL     OW18732   3.536   8.731  10.134
 5612SOL    HW118733   3.443   8.724  10.155
 5612SOL    HW218734   3.560   8.819  10.163
 5613SOL     OW18735   6.775   7.701   6.917
 5613SOL    HW118736   6.827   7.769   6.874
 5613SOL    HW218737   6.729   7.747   6.988
 5614SOL     OW18738   2.878   0.430   3.641
 5614SOL    HW118739   2.819   0.355   3.632
 5614SOL    HW218740   2.910   0.424   3.731
 5615SOL     OW18741  12.138  13.285   3.046
 5615SOL    HW118742  12.131  13.325   2.959
 5615SOL    HW218743  12.061  13.230   3.053
 5616SOL     OW18744  11.412   1.986   9.779
 5616SOL    HW118745  11.320   1.959   9.779
 5616SOL    HW218746  11.419   2.045   9.854
 5617SOL     OW18747  14.484  11.538   6.649
 5617SOL    HW118748  14.571  11.548   6.611
 5617SOL    HW218749  14.500  11.500   6.736
 5618SOL     OW18750  11.886   2.306  11.736
 5618SOL    HW118751  11.962   2.342  11.780
 5618SOL    HW218752  11.859   2.373  11.674
 5619SOL     OW18753   3.227   0.446  13.819
 5619SOL    HW118754   3.168   0.521  13.809
 5619SOL    HW218755   3.169   0.372  13.834
 5620SOL     OW18756   3.146   0.745   9.720
 5620SOL    HW118757   3.069   0.768   9.773
 5620SOL    HW218758   3.142   0.649   9.713
 5621SOL     OW18759  12.156   7.219  10.010
 5621SOL    HW118760  12.165   7.189  10.101
 5621SOL    HW218761  12.164   7.314  10.015
 5622SOL     OW18762   5.589   0.116  13.828
 5622SOL    HW118763   5.556   0.167  13.902
 5622SOL    HW218764   5.542   0.151  13.752
 5623SOL     OW18765  10.879   9.854  13.144
 5623SOL    HW118766  10.920   9.770  13.167
 5623SOL    HW218767  10.921   9.880  13.063
 5624SOL     OW18768  13.993   1.669  11.276
 5624SOL    HW118769  13.927   1.600  11.285
 5624SOL    HW218770  13.942   1.749  11.263
 5625SOL     OW18771  11.150   1.332  10.485
 5625SOL    HW118772  11.138   1.266  10.417
 5625SOL    HW218773  11.164   1.281  10.565
 5626SOL     OW18774   7.996   8.443   3.484
 5626SOL    HW118775   8.064   8.497   3.525
 5626SOL    HW218776   7.979   8.485   3.400
 5627SOL     OW18777   7.728  12.014  14.174
 5627SOL    HW118778   7.726  12.095  14.122
 5627SOL    HW218779   7.780  11.953  14.121
 5628SOL     OW18780  11.076  10.967   4.905
 5628SOL    HW118781  11.117  10.885   4.876
 5628SOL    HW218782  11.148  11.021   4.935
 5629SOL     OW18783   3.149  10.617   8.312
 5629SOL    HW118784   3.115  10.639   8.225
 5629SOL    HW218785   3.084  10.556   8.347
 5630SOL     OW18786  13.124   5.670   8.779
 5630SOL    HW118787  13.053   5.622   8.737
 5630SOL    HW218788  13.087   5.700   8.862
 5631SOL     OW18789   5.424   5.567   9.713
 5631SOL    HW118790   5.497   5.547   9.771
 5631SOL    HW218791   5.369   5.627   9.763
 5632SOL     OW18792   6.206   4.421  13.600
 5632SOL    HW118793   6.281   4.412  13.542
 5632SOL    HW218794   6.243   4.447  13.684
 5633SOL     OW18795   0.171  11.494   9.572
 5633SOL    HW118796   0.077  11.515   9.577
 5633SOL    HW218797   0.181  11.420   9.632
 5634SOL     OW18798   7.015   7.416   1.439
 5634SOL    HW118799   6.933   7.391   1.397
 5634SOL    HW218800   7.062   7.465   1.372
 5635SOL     OW18801   6.984   2.685   7.085
 5635SOL    HW118802   7.025   2.694   7.171
 5635SOL    HW218803   6.965   2.591   7.077
 5636SOL     OW18804   0.719   8.029   4.793
 5636SOL    HW118805   0.772   8.076   4.858
 5636SOL    HW218806   0.713   8.089   4.719
 5637SOL     OW18807  10.893   9.309   7.135
 5637SOL    HW118808  10.881   9.247   7.207
 5637SOL    HW218809  10.986   9.304   7.114
 5638SOL     OW18810   9.770  13.566   1.943
 5638SOL    HW118811   9.763  13.482   1.897
 5638SOL    HW218812   9.786  13.542   2.034
 5639SOL     OW18813   2.124   2.404   6.824
 5639SOL    HW118814   2.082   2.345   6.762
 5639SOL    HW218815   2.091   2.491   6.801
 5640SOL     OW18816   7.127   1.856  13.069
 5640SOL    HW118817   7.169   1.778  13.034
 5640SOL    HW218818   7.052   1.823  13.119
 5641SOL     OW18819   6.797   2.866  14.065
 5641SOL    HW118820   6.833   2.792  14.114
 5641SOL    HW218821   6.731   2.827  14.008
 5642SOL     OW18822   3.139   2.470   6.537
 5642SOL    HW118823   3.092   2.439   6.460
 5642SOL    HW218824   3.111   2.561   6.547
 5643SOL     OW18825   5.940   0.580  11.247
 5643SOL    HW118826   5.972   0.663  11.281
 5643SOL    HW218827   5.964   0.580  11.155
 5644SOL     OW18828  14.489   2.427   9.403
 5644SOL    HW118829  14.415   2.479   9.372
 5644SOL    HW218830  14.552   2.430   9.330
 5645SOL     OW18831   0.727   3.773  14.586
 5645SOL    HW118832   0.794   3.717  14.548
 5645SOL    HW218833   0.648   3.719  14.586
 5646SOL     OW18834   7.194   5.765   8.808
 5646SOL    HW118835   7.243   5.757   8.890
 5646SOL    HW218836   7.262   5.776   8.741
 5647SOL     OW18837   0.043   8.626   7.416
 5647SOL    HW118838   0.094   8.633   7.497
 5647SOL    HW218839   0.049   8.713   7.377
 5648SOL     OW18840  13.339  12.902  11.402
 5648SOL    HW118841  13.308  12.852  11.477
 5648SOL    HW218842  13.333  12.842  11.329
 5649SOL     OW18843   6.516   9.789   4.162
 5649SOL    HW118844   6.536   9.883   4.160
 5649SOL    HW218845   6.546   9.757   4.077
 5650SOL     OW18846   3.518  13.967   2.501
 5650SOL    HW118847   3.428  13.981   2.470
 5650SOL    HW218848   3.514  13.987   2.595
 5651SOL     OW18849  11.407   5.897  11.737
 5651SOL    HW118850  11.485   5.846  11.717
 5651SOL    HW218851  11.428   5.940  11.820
 5652SOL     OW18852  11.230   1.445   5.933
 5652SOL    HW118853  11.161   1.492   5.980
 5652SOL    HW218854  11.190   1.422   5.849
 5653SOL     OW18855   7.636   9.996  13.679
 5653SOL    HW118856   7.707  10.019  13.619
 5653SOL    HW218857   7.618  10.077  13.727
 5654SOL     OW18858   0.952  11.221  10.483
 5654SOL    HW118859   0.880  11.167  10.516
 5654SOL    HW218860   0.908  11.292  10.436
 5655SOL     OW18861  10.991   5.301  11.968
 5655SOL    HW118862  11.004   5.394  11.987
 5655SOL    HW218863  11.071   5.273  11.924
 5656SOL     OW18864   7.090   1.163   4.561
 5656SOL    HW118865   7.142   1.199   4.632
 5656SOL    HW218866   7.044   1.239   4.524
 5657SOL     OW18867  14.342   2.518   3.961
 5657SOL    HW118868  14.360   2.549   3.873
 5657SOL    HW218869  14.313   2.596   4.009
 5658SOL     OW18870  11.203   8.688   5.959
 5658SOL    HW118871  11.195   8.683   5.863
 5658SOL    HW218872  11.265   8.618   5.981
 5659SOL     OW18873   2.753   5.489   0.610
 5659SOL    HW118874   2.830   5.546   0.614
 5659SOL    HW218875   2.731   5.485   0.517
 5660SOL     OW18876   5.984   0.890   5.410
 5660SOL    HW118877   6.050   0.959   5.415
 5660SOL    HW218878   5.904   0.935   5.383
 5661SOL     OW18879   2.655   2.055   4.682
 5661SOL    HW118880   2.606   2.028   4.605
 5661SOL    HW218881   2.738   2.007   4.676
 5662SOL     OW18882   5.066   0.190  13.977
 5662SOL    HW118883   5.003   0.154  13.914
 5662SOL    HW218884   5.029   0.274  14.003
 5663SOL     OW18885   1.185   6.982   8.451
 5663SOL    HW118886   1.262   7.037   8.463
 5663SOL    HW218887   1.184   6.926   8.529
 5664SOL     OW18888   8.557   5.660  12.287
 5664SOL    HW118889   8.517   5.642  12.202
 5664SOL    HW218890   8.497   5.620  12.350
 5665SOL     OW18891   1.356   3.198   2.167
 5665SOL    HW118892   1.341   3.289   2.139
 5665SOL    HW218893   1.438   3.174   2.124
 5666SOL     OW18894   6.829   7.470   7.087
 5666SOL    HW118895   6.823   7.533   7.015
 5666SOL    HW218896   6.855   7.523   7.163
 5667SOL     OW18897   3.486  11.794  13.169
 5667SOL    HW118898   3.411  11.774  13.226
 5667SOL    HW218899   3.562  11.779  13.224
 5668SOL     OW18900   5.361  10.847   7.095
 5668SOL    HW118901   5.286  10.870   7.149
 5668SOL    HW218902   5.400  10.931   7.071
 5669SOL     OW18903   7.063   5.599  11.285
 5669SOL    HW118904   7.012   5.665  11.237
 5669SOL    HW218905   6.998   5.534  11.313
 5670SOL     OW18906  11.056  11.915  12.160
 5670SOL    HW118907  11.072  11.826  12.128
 5670SOL    HW218908  11.101  11.971  12.097
 5671SOL     OW18909  12.420   3.252   9.983
 5671SOL    HW118910  12.470   3.230  10.061
 5671SOL    HW218911  12.486   3.273   9.917
 5672SOL     OW18912   3.710   2.212   5.769
 5672SOL    HW118913   3.672   2.179   5.851
 5672SOL    HW218914   3.704   2.307   5.776
 5673SOL     OW18915   9.093  11.323  14.599
 5673SOL    HW118916   9.050  11.241  14.574
 5673SOL    HW218917   9.181  11.297  14.627
 5674SOL     OW18918  11.746   6.445  10.687
 5674SOL    HW118919  11.720   6.360  10.652
 5674SOL    HW218920  11.831   6.463  10.645
 5675SOL     OW18921   4.324  12.834   5.029
 5675SOL    HW118922   4.395  12.877   5.077
 5675SOL    HW218923   4.301  12.758   5.082
 5676SOL     OW18924   9.790  10.645  10.349
 5676SOL    HW118925   9.732  10.686  10.285
 5676SOL    HW218926   9.859  10.604  10.296
 5677SOL     OW18927   0.108   6.690   6.530
 5677SOL    HW118928   0.055   6.758   6.572
 5677SOL    HW218929   0.195   6.730   6.520
 5678SOL     OW18930  13.705   6.706   8.611
 5678SOL    HW118931  13.622   6.726   8.569
 5678SOL    HW218932  13.703   6.611   8.625
 5679SOL     OW18933   0.034   1.003   1.136
 5679SOL    HW118934   0.108   0.972   1.188
 5679SOL    HW218935  14.833   1.015   1.199
 5680SOL     OW18936   1.659  13.977  10.053
 5680SOL    HW118937   1.652  14.071  10.037
 5680SOL    HW218938   1.671  13.939   9.966
 5681SOL     OW18939  14.592  10.506   3.623
 5681SOL    HW118940  14.663  10.527   3.563
 5681SOL    HW218941  14.603  10.566   3.697
 5682SOL     OW18942   4.091  14.114   2.339
 5682SOL    HW118943   4.170  14.154   2.302
 5682SOL    HW218944   4.022  14.178   2.323
 5683SOL     OW18945   3.400  11.784   3.186
 5683SOL    HW118946   3.357  11.846   3.127
 5683SOL    HW218947   3.331  11.721   3.209
 5684SOL     OW18948   1.684   9.595  13.387
 5684SOL    HW118949   1.743   9.655  13.434
 5684SOL    HW218950   1.713   9.508  13.413
 5685SOL     OW18951   9.684   9.442  12.857
 5685SOL    HW118952   9.698   9.533  12.884
 5685SOL    HW218953   9.754   9.424  12.795
 5686SOL     OW18954  11.057   2.150   9.841
 5686SOL    HW118955  11.067   2.134   9.747
 5686SOL    HW218956  11.130   2.207   9.864
 5687SOL     OW18957   1.772   9.964  12.397
 5687SOL    HW118958   1.744  10.050  12.365
 5687SOL    HW218959   1.867   9.972  12.408
 5688SOL     OW18960   2.336  10.747  12.124
 5688SOL    HW118961   2.355  10.691  12.199
 5688SOL    HW218962   2.418  10.748  12.073
 5689SOL     OW18963  11.060   6.111   6.292
 5689SOL    HW118964  11.063   6.205   6.309
 5689SOL    HW218965  11.103   6.101   6.207
 5690SOL     OW18966   9.417   3.884   6.076
 5690SOL    HW118967   9.499   3.848   6.041
 5690SOL    HW218968   9.444   3.949   6.140
 5691SOL     OW18969   7.023   1.213   1.218
 5691SOL    HW118970   7.034   1.305   1.242
 5691SOL    HW218971   6.976   1.174   1.292
 5692SOL     OW18972   2.813   9.709  10.983
 5692SOL    HW118973   2.824   9.628  11.033
 5692SOL    HW218974   2.761   9.766  11.039
 5693SOL     OW18975  10.813   6.212  13.169
 5693SOL    HW118976  10.760   6.149  13.218
 5693SOL    HW218977  10.752   6.280  13.142
 5694SOL     OW18978   2.033   3.673   7.020
 5694SOL    HW118979   2.094   3.700   7.089
 5694SOL    HW218980   2.087   3.625   6.958
 5695SOL     OW18981   3.345   8.144   6.459
 5695SOL    HW118982   3.425   8.196   6.452
 5695SOL    HW218983   3.312   8.138   6.370
 5696SOL     OW18984   0.159   7.685  14.387
 5696SOL    HW118985   0.189   7.694  14.297
 5696SOL    HW218986   0.233   7.647  14.434
 5697SOL     OW18987   5.680   4.799   9.863
 5697SOL    HW118988   5.681   4.773   9.770
 5697SOL    HW218989   5.765   4.770   9.896
 5698SOL     OW18990   3.177   4.716  14.430
 5698SOL    HW118991   3.173   4.662  14.351
 5698SOL    HW218992   3.173   4.653  14.502
 5699SOL     OW18993   7.947  10.032   6.977
 5699SOL    HW118994   7.977  10.121   6.994
 5699SOL    HW218995   7.939   9.992   7.064
 5700SOL     OW18996  10.295   0.082   9.028
 5700SOL    HW118997  10.336   0.166   9.045
 5700SOL    HW218998  10.364   0.028   8.990
 5701SOL     OW18999   4.297   1.278  14.019
 5701SOL    HW119000   4.329   1.359  13.979
 5701SOL    HW219001   4.344   1.272  14.102
 5702SOL     OW19002   3.783   1.034   0.459
 5702SOL    HW119003   3.832   1.015   0.539
 5702SOL    HW219004   3.751   0.949   0.429
 5703SOL     OW19005   3.459  10.652  10.874
 5703SOL    HW119006   3.525  10.595  10.836
 5703SOL    HW219007   3.493  10.676  10.960
 5704SOL     OW19008   5.231  11.090   5.959
 5704SOL    HW119009   5.317  11.064   5.989
 5704SOL    HW219010   5.245  11.124   5.871
 5705SOL     OW19011   5.572   4.983   7.859
 5705SOL    HW119012   5.576   5.067   7.905
 5705SOL    HW219013   5.633   4.993   7.785
 5706SOL     OW19014  13.044  13.228  10.494
 5706SOL    HW119015  13.007  13.145  10.524
 5706SOL    HW219016  13.029  13.289  10.567
 5707SOL     OW19017   3.863   8.858   1.131
 5707SOL    HW119018   3.877   8.887   1.221
 5707SOL    HW219019   3.936   8.896   1.082
 5708SOL     OW19020   4.490   8.310   6.754
 5708SOL    HW119021   4.421   8.251   6.723
 5708SOL    HW219022   4.563   8.296   6.694
 5709SOL     OW19023   3.144   2.021   2.435
 5709SOL    HW119024   3.185   1.936   2.418
 5709SOL    HW219025   3.151   2.068   2.351
 5710SOL     OW19026   9.907   8.652   5.068
 5710SOL    HW119027   9.927   8.681   4.979
 5710SOL    HW219028   9.942   8.563   5.073
 5711SOL     OW19029   1.771  10.718  13.807
 5711SOL    HW119030   1.746  10.793  13.754
 5711SOL    HW219031   1.863  10.702  13.785
 5712SOL     OW19032  13.094   1.812   0.175
 5712SOL    HW119033  13.139   1.732   0.202
 5712SOL    HW219034  13.082   1.861   0.256
 5713SOL     OW19035   3.688  11.360   0.953
 5713SOL    HW119036   3.649  11.308   1.023
 5713SOL    HW219037   3.643  11.331   0.874
 5714SOL     OW19038   7.199  14.135   3.562
 5714SOL    HW119039   7.225  14.106   3.649
 5714SOL    HW219040   7.104  14.143   3.566
 5715SOL     OW19041   1.947   8.815   6.547
 5715SOL    HW119042   2.033   8.780   6.569
 5715SOL    HW219043   1.936   8.794   6.454
 5716SOL     OW19044   5.372   5.400  11.286
 5716SOL    HW119045   5.355   5.306  11.273
 5716SOL    HW219046   5.430   5.423  11.214
 5717SOL     OW19047   6.904  14.564  10.644
 5717SOL    HW119048   6.814  14.597  10.639
 5717SOL    HW219049   6.952  14.632  10.691
 5718SOL     OW19050   8.397   0.849   8.647
 5718SOL    HW119051   8.480   0.845   8.695
 5718SOL    HW219052   8.362   0.936   8.667
 5719SOL     OW19053   9.017   1.506   5.278
 5719SOL    HW119054   9.017   1.437   5.212
 5719SOL    HW219055   9.020   1.587   5.229
 5720SOL     OW19056   8.614   0.769   7.369
 5720SOL    HW119057   8.665   0.849   7.362
 5720SOL    HW219058   8.527   0.793   7.337
 5721SOL     OW19059   1.039   3.382  14.516
 5721SOL    HW119060   1.006   3.293  14.531
 5721SOL    HW219061   1.051   3.388  14.421
 5722SOL     OW19062   8.698   2.963  13.108
 5722SOL    HW119063   8.644   2.954  13.186
 5722SOL    HW219064   8.728   2.874  13.088
 5723SOL     OW19065   9.291  12.269   2.021
 5723SOL    HW119066   9.289  12.341   1.959
 5723SOL    HW219067   9.225  12.291   2.086
 5724SOL     OW19068   1.590   7.792   4.706
 5724SOL    HW119069   1.575   7.880   4.672
 5724SOL    HW219070   1.528   7.737   4.658
 5725SOL     OW19071   7.069   0.835   2.435
 5725SOL    HW119072   7.137   0.854   2.370
 5725SOL    HW219073   6.992   0.882   2.403
 5726SOL     OW19074  10.167   2.613   9.265
 5726SOL    HW119075  10.194   2.623   9.357
 5726SOL    HW219076  10.139   2.701   9.240
 5727SOL     OW19077  12.505  11.015   5.612
 5727SOL    HW119078  12.480  11.065   5.690
 5727SOL    HW219079  12.431  10.958   5.595
 5728SOL     OW19080  10.901  10.494  13.689
 5728SOL    HW119081  10.913  10.505  13.594
 5728SOL    HW219082  10.807  10.484  13.700
 5729SOL     OW19083   3.957  11.743  10.951
 5729SOL    HW119084   3.862  11.740  10.966
 5729SOL    HW219085   3.991  11.666  10.997
 5730SOL     OW19086   5.276   9.639   3.386
 5730SOL    HW119087   5.344   9.597   3.334
 5730SOL    HW219088   5.318   9.660   3.469
 5731SOL     OW19089   3.754   9.633  13.623
 5731SOL    HW119090   3.806   9.692  13.568
 5731SOL    HW219091   3.665   9.640  13.588
 5732SOL     OW19092   7.017  14.528   9.499
 5732SOL    HW119093   7.030  14.622   9.512
 5732SOL    HW219094   7.049  14.488   9.580
 5733SOL     OW19095   0.958   9.432   1.976
 5733SOL    HW119096   1.048   9.437   2.007
 5733SOL    HW219097   0.926   9.523   1.982
 5734SOL     OW19098   6.127  13.992  11.182
 5734SOL    HW119099   6.086  13.916  11.225
 5734SOL    HW219100   6.147  13.961  11.093
 5735SOL     OW19101   4.819  13.493  14.515
 5735SOL    HW119102   4.873  13.442  14.455
 5735SOL    HW219103   4.747  13.525  14.460
 5736SOL     OW19104   5.166   0.842   8.502
 5736SOL    HW119105   5.233   0.828   8.569
 5736SOL    HW219106   5.096   0.781   8.526
 5737SOL     OW19107   5.586   8.106  11.141
 5737SOL    HW119108   5.608   8.049  11.067
 5737SOL    HW219109   5.583   8.048  11.217
 5738SOL     OW19110   4.900  12.132  14.234
 5738SOL    HW119111   4.882  12.187  14.158
 5738SOL    HW219112   4.994  12.142  14.249
 5739SOL     OW19113   9.180   1.545   1.314
 5739SOL    HW119114   9.156   1.528   1.223
 5739SOL    HW219115   9.201   1.638   1.317
 5740SOL     OW19116   3.399   0.985   8.897
 5740SOL    HW119117   3.482   1.020   8.865
 5740SOL    HW219118   3.333   1.047   8.866
 5741SOL     OW19119  13.743  10.412   3.923
 5741SOL    HW119120  13.825  10.364   3.910
 5741SOL    HW219121  13.685  10.349   3.965
 5742SOL     OW19122   9.865   6.631   7.723
 5742SOL    HW119123   9.805   6.560   7.697
 5742SOL    HW219124   9.846   6.701   7.661
 5743SOL     OW19125   0.213  14.423   4.147
 5743SOL    HW119126   0.265  14.503   4.145
 5743SOL    HW219127   0.139  14.441   4.089
 5744SOL     OW19128  14.162  11.007   1.038
 5744SOL    HW119129  14.216  11.043   0.966
 5744SOL    HW219130  14.220  11.009   1.114
 5745SOL     OW19131   6.850   5.960   1.011
 5745SOL    HW119132   6.758   5.957   0.985
 5745SOL    HW219133   6.881   6.044   0.980
 5746SOL     OW19134   8.812  12.588   9.773
 5746SOL    HW119135   8.853  12.546   9.698
 5746SOL    HW219136   8.879  12.584   9.842
 5747SOL     OW19137  12.683   9.964   8.764
 5747SOL    HW119138  12.738   9.973   8.686
 5747SOL    HW219139  12.641  10.050   8.774
 5748SOL     OW19140   3.127   0.844   5.145
 5748SOL    HW119141   3.168   0.900   5.211
 5748SOL    HW219142   3.097   0.905   5.077
 5749SOL     OW19143   3.309   5.369   8.084
 5749SOL    HW119144   3.324   5.446   8.139
 5749SOL    HW219145   3.394   5.326   8.080
 5750SOL     OW19146   7.287   8.933  13.495
 5750SOL    HW119147   7.294   9.028  13.505
 5750SOL    HW219148   7.373   8.900  13.519
 5751SOL     OW19149  11.179   9.360   7.084
 5751SOL    HW119150  11.227   9.431   7.126
 5751SOL    HW219151  11.191   9.285   7.142
 5752SOL     OW19152   0.857   4.510   8.682
 5752SOL    HW119153   0.769   4.482   8.655
 5752SOL    HW219154   0.899   4.539   8.601
 5753SOL     OW19155  11.896   8.136  10.379
 5753SOL    HW119156  11.878   8.048  10.345
 5753SOL    HW219157  11.954   8.176  10.313
 5754SOL     OW19158   3.662   6.347   7.565
 5754SOL    HW119159   3.723   6.348   7.639
 5754SOL    HW219160   3.591   6.406   7.591
 5755SOL     OW19161   5.599   0.536  10.642
 5755SOL    HW119162   5.542   0.479  10.591
 5755SOL    HW219163   5.668   0.477  10.674
 5756SOL     OW19164   1.916  14.333  12.493
 5756SOL    HW119165   1.986  14.351  12.555
 5756SOL    HW219166   1.886  14.419  12.464
 5757SOL     OW19167   9.285  11.718   1.968
 5757SOL    HW119168   9.272  11.810   1.990
 5757SOL    HW219169   9.343  11.685   2.037
 5758SOL     OW19170   3.997  14.335   8.763
 5758SOL    HW119171   3.959  14.308   8.680
 5758SOL    HW219172   4.039  14.256   8.798
 5759SOL     OW19173   7.195   2.338   7.875
 5759SOL    HW119174   7.290   2.344   7.883
 5759SOL    HW219175   7.161   2.351   7.963
 5760SOL     OW19176  13.502   7.489   4.373
 5760SOL    HW119177  13.431   7.458   4.430
 5760SOL    HW219178  13.557   7.542   4.430
 5761SOL     OW19179  10.641   2.025  12.335
 5761SOL    HW119180  10.563   2.040  12.283
 5761SOL    HW219181  10.682   2.111  12.344
 5762SOL     OW19182   7.202  12.114   3.989
 5762SOL    HW119183   7.114  12.090   4.017
 5762SOL    HW219184   7.245  12.030   3.970
 5763SOL     OW19185  12.114   2.809  13.548
 5763SOL    HW119186  12.089   2.898  13.523
 5763SOL    HW219187  12.156   2.773  13.470
 5764SOL     OW19188   8.758  14.208   8.613
 5764SOL    HW119189   8.736  14.145   8.545
 5764SOL    HW219190   8.759  14.158   8.694
 5765SOL     OW19191  13.243   2.027   3.832
 5765SOL    HW119192  13.326   2.071   3.811
 5765SOL    HW219193  13.183   2.098   3.853
 5766SOL     OW19194  10.665   7.790   3.700
 5766SOL    HW119195  10.585   7.740   3.681
 5766SOL    HW219196  10.708   7.799   3.616
 5767SOL     OW19197   3.370   3.945   1.698
 5767SOL    HW119198   3.441   3.977   1.754
 5767SOL    HW219199   3.368   4.007   1.625
 5768SOL     OW19200   2.863   6.085  14.281
 5768SOL    HW119201   2.775   6.059  14.306
 5768SOL    HW219202   2.903   6.117  14.362
 5769SOL     OW19203   3.887  10.728  13.248
 5769SOL    HW119204   3.869  10.753  13.339
 5769SOL    HW219205   3.861  10.805  13.197
 5770SOL     OW19206   1.470   7.529  12.367
 5770SOL    HW119207   1.546   7.540  12.309
 5770SOL    HW219208   1.475   7.605  12.426
 5771SOL     OW19209   6.922   4.681   3.732
 5771SOL    HW119210   6.852   4.726   3.779
 5771SOL    HW219211   6.938   4.736   3.655
 5772SOL     OW19212   3.583  14.796   3.774
 5772SOL    HW119213   3.651  14.733   3.799
 5772SOL    HW219214   3.622  14.846   3.702
 5773SOL     OW19215  13.136   1.889   5.446
 5773SOL    HW119216  13.187   1.940   5.383
 5773SOL    HW219217  13.045   1.908   5.424
 5774SOL     OW19218   6.807  14.665   7.967
 5774SOL    HW119219   6.894  14.673   7.929
 5774SOL    HW219220   6.756  14.735   7.927
 5775SOL     OW19221   4.178  11.011   7.168
 5775SOL    HW119222   4.111  10.948   7.193
 5775SOL    HW219223   4.139  11.096   7.185
 5776SOL     OW19224   7.399   0.150  14.190
 5776SOL    HW119225   7.488   0.183  14.174
 5776SOL    HW219226   7.353   0.225  14.228
 5777SOL     OW19227   6.191   8.378   7.142
 5777SOL    HW119228   6.133   8.367   7.217
 5777SOL    HW219229   6.279   8.384   7.180
 5778SOL     OW19230   6.982   3.053   6.018
 5778SOL    HW119231   6.959   2.966   6.051
 5778SOL    HW219232   6.992   3.107   6.096
 5779SOL     OW19233  12.992   7.458  10.157
 5779SOL    HW119234  12.906   7.499  10.158
 5779SOL    HW219235  13.044   7.511  10.097
 5780SOL     OW19236  13.595   6.156   6.645
 5780SOL    HW119237  13.664   6.108   6.691
 5780SOL    HW219238  13.602   6.126   6.554
 5781SOL     OW19239   4.357   1.329   1.167
 5781SOL    HW119240   4.373   1.375   1.084
 5781SOL    HW219241   4.444   1.311   1.201
 5782SOL     OW19242   8.042   1.969   8.836
 5782SOL    HW119243   8.039   1.876   8.810
 5782SOL    HW219244   7.973   2.010   8.783
 5783SOL     OW19245   7.488  10.455   9.585
 5783SOL    HW119246   7.404  10.472   9.628
 5783SOL    HW219247   7.515  10.541   9.552
 5784SOL     OW19248  13.257  12.921   4.466
 5784SOL    HW119249  13.306  12.963   4.537
 5784SOL    HW219250  13.169  12.959   4.472
 5785SOL     OW19251  13.178  10.433   5.533
 5785SOL    HW119252  13.174  10.395   5.445
 5785SOL    HW219253  13.225  10.516   5.521
 5786SOL     OW19254   9.819   3.669   5.367
 5786SOL    HW119255   9.908   3.635   5.354
 5786SOL    HW219256   9.773   3.647   5.287
 5787SOL     OW19257  10.269  14.210   3.730
 5787SOL    HW119258  10.301  14.262   3.804
 5787SOL    HW219259  10.340  14.148   3.712
 5788SOL     OW19260   9.976   8.516   6.595
 5788SOL    HW119261  10.000   8.424   6.610
 5788SOL    HW219262  10.052   8.565   6.626
 5789SOL     OW19263  13.178   1.934   7.990
 5789SOL    HW119264  13.170   1.846   7.953
 5789SOL    HW219265  13.227   1.922   8.071
 5790SOL     OW19266   3.585   0.219   3.319
 5790SOL    HW119267   3.579   0.315   3.320
 5790SOL    HW219268   3.563   0.194   3.229
 5791SOL     OW19269   8.603   5.877  10.556
 5791SOL    HW119270   8.563   5.927  10.627
 5791SOL    HW219271   8.665   5.819  10.599
 5792SOL     OW19272  11.010  11.205   1.249
 5792SOL    HW119273  10.952  11.206   1.326
 5792SOL    HW219274  10.954  11.172   1.178
 5793SOL     OW19275  14.129  11.196   1.697
 5793SOL    HW119276  14.211  11.147   1.708
 5793SOL    HW219277  14.150  11.284   1.730
 5794SOL     OW19278  11.225   8.925   7.124
 5794SOL    HW119279  11.195   8.834   7.136
 5794SOL    HW219280  11.319   8.921   7.138
 5795SOL     OW19281   6.680   3.093   1.690
 5795SOL    HW119282   6.689   3.059   1.601
 5795SOL    HW219283   6.587   3.114   1.698
 5796SOL     OW19284   6.384   9.219   7.489
 5796SOL    HW119285   6.311   9.263   7.445
 5796SOL    HW219286   6.380   9.129   7.458
 5797SOL     OW19287   8.721   0.586   3.257
 5797SOL    HW119288   8.696   0.552   3.171
 5797SOL    HW219289   8.707   0.681   3.250
 5798SOL     OW19290  13.469   4.066  14.211
 5798SOL    HW119291  13.508   4.105  14.133
 5798SOL    HW219292  13.375   4.072  14.197
 5799SOL     OW19293  13.560   5.851  10.352
 5799SOL    HW119294  13.503   5.892  10.287
 5799SOL    HW219295  13.510   5.856  10.434
 5800SOL     OW19296   9.192  10.164   4.051
 5800SOL    HW119297   9.106  10.176   4.091
 5800SOL    HW219298   9.193  10.073   4.022
 5801SOL     OW19299  12.885   3.834   1.051
 5801SOL    HW119300  12.927   3.879   0.977
 5801SOL    HW219301  12.808   3.791   1.013
 5802SOL     OW19302   8.983  12.738   1.587
 5802SOL    HW119303   9.033  12.656   1.581
 5802SOL    HW219304   8.913  12.729   1.523
 5803SOL     OW19305   4.194   7.871   5.752
 5803SOL    HW119306   4.223   7.940   5.693
 5803SOL    HW219307   4.099   7.882   5.758
 5804SOL     OW19308   6.656   8.133  13.124
 5804SOL    HW119309   6.666   8.080  13.204
 5804SOL    HW219310   6.678   8.073  13.053
 5805SOL     OW19311   0.705  13.229   1.065
 5805SOL    HW119312   0.702  13.197   0.974
 5805SOL    HW219313   0.707  13.324   1.057
 5806SOL     OW19314  10.416   8.485  10.882
 5806SOL    HW119315  10.383   8.536  10.808
 5806SOL    HW219316  10.381   8.397  10.868
 5807SOL     OW19317   1.200   9.287   3.539
 5807SOL    HW119318   1.272   9.242   3.584
 5807SOL    HW219319   1.192   9.241   3.455
 5808SOL     OW19320   3.854   4.407  11.252
 5808SOL    HW119321   3.876   4.325  11.208
 5808SOL    HW219322   3.816   4.462  11.183
 5809SOL     OW19323   2.131   0.208   4.993
 5809SOL    HW119324   2.122   0.294   5.035
 5809SOL    HW219325   2.114   0.224   4.900
 5810SOL     OW19326  14.801   4.808   5.310
 5810SOL    HW119327   0.024   4.819   5.287
 5810SOL    HW219328  14.756   4.878   5.263
 5811SOL     OW19329   7.901   4.428  13.032
 5811SOL    HW119330   7.996   4.432  13.045
 5811SOL    HW219331   7.891   4.395  12.943
 5812SOL     OW19332   5.140  11.786   9.648
 5812SOL    HW119333   5.210  11.792   9.582
 5812SOL    HW219334   5.081  11.858   9.626
 5813SOL     OW19335   7.973  13.743   5.935
 5813SOL    HW119336   7.903  13.750   6.000
 5813SOL    HW219337   8.017  13.828   5.938
 5814SOL     OW19338   9.229  10.845   5.388
 5814SOL    HW119339   9.178  10.779   5.342
 5814SOL    HW219340   9.171  10.920   5.395
 5815SOL     OW19341  11.804  13.954   7.615
 5815SOL    HW119342  11.714  13.982   7.632
 5815SOL    HW219343  11.824  13.988   7.529
 5816SOL     OW19344   0.148  13.289   8.724
 5816SOL    HW119345   0.087  13.359   8.749
 5816SOL    HW219346   0.120  13.262   8.637
 5817SOL     OW19347   6.550  10.419  12.522
 5817SOL    HW119348   6.497  10.404  12.600
 5817SOL    HW219349   6.596  10.336  12.508
 5818SOL     OW19350  12.510  13.514   3.973
 5818SOL    HW119351  12.468  13.597   3.947
 5818SOL    HW219352  12.440  13.466   4.019
 5819SOL     OW19353  13.162   4.487  13.585
 5819SOL    HW119354  13.161   4.552  13.515
 5819SOL    HW219355  13.165   4.403  13.540
 5820SOL     OW19356   4.623  13.976  13.071
 5820SOL    HW119357   4.716  13.983  13.096
 5820SOL    HW219358   4.578  14.036  13.130
 5821SOL     OW19359   9.217  10.883  14.714
 5821SOL    HW119360   9.145  10.895  14.653
 5821SOL    HW219361   9.293  10.864  14.658
 5822SOL     OW19362  12.365   1.525   2.799
 5822SOL    HW119363  12.351   1.467   2.724
 5822SOL    HW219364  12.453   1.503   2.829
 5823SOL     OW19365   0.737  11.344   6.457
 5823SOL    HW119366   0.741  11.426   6.505
 5823SOL    HW219367   0.816  11.343   6.404
 5824SOL     OW19368  13.023   2.486   7.641
 5824SOL    HW119369  13.062   2.436   7.569
 5824SOL    HW219370  12.959   2.426   7.679
 5825SOL     OW19371   1.973   6.091   1.454
 5825SOL    HW119372   1.913   6.155   1.416
 5825SOL    HW219373   1.969   6.105   1.548
 5826SOL     OW19374  14.445   5.225   4.242
 5826SOL    HW119375  14.372   5.231   4.181
 5826SOL    HW219376  14.404   5.208   4.327
 5827SOL     OW19377   3.533   4.594   8.922
 5827SOL    HW119378   3.546   4.515   8.868
 5827SOL    HW219379   3.604   4.653   8.897
 5828SOL     OW19380  11.318  13.558  13.474
 5828SOL    HW119381  11.262  13.532  13.401
 5828SOL    HW219382  11.265  13.542  13.552
 5829SOL     OW19383   4.381   1.819   3.213
 5829SOL    HW119384   4.320   1.883   3.177
 5829SOL    HW219385   4.426   1.866   3.284
 5830SOL     OW19386   3.218   3.622   5.167
 5830SOL    HW119387   3.175   3.592   5.087
 5830SOL    HW219388   3.310   3.633   5.142
 5831SOL     OW19389   5.587   1.287   8.502
 5831SOL    HW119390   5.560   1.371   8.464
 5831SOL    HW219391   5.505   1.249   8.535
 5832SOL     OW19392   7.975  13.010   2.625
 5832SOL    HW119393   7.941  12.964   2.549
 5832SOL    HW219394   7.918  12.984   2.697
 5833SOL     OW19395   1.412   0.838   3.388
 5833SOL    HW119396   1.438   0.798   3.304
 5833SOL    HW219397   1.495   0.860   3.429
 5834SOL     OW19398   8.413   4.221   5.183
 5834SOL    HW119399   8.379   4.141   5.223
 5834SOL    HW219400   8.474   4.191   5.116
 5835SOL     OW19401  14.502  12.039  13.074
 5835SOL    HW119402  14.581  11.995  13.105
 5835SOL    HW219403  14.432  11.975  13.088
 5836SOL     OW19404  11.775   9.646   7.356
 5836SOL    HW119405  11.841   9.697   7.402
 5836SOL    HW219406  11.746   9.581   7.420
 5837SOL     OW19407   2.867  10.445  10.790
 5837SOL    HW119408   2.914  10.366  10.817
 5837SOL    HW219409   2.881  10.451  10.695
 5838SOL     OW19410   4.269  13.656   6.267
 5838SOL    HW119411   4.262  13.745   6.304
 5838SOL    HW219412   4.265  13.669   6.173
 5839SOL     OW19413   4.766   1.828  14.051
 5839SOL    HW119414   4.833   1.760  14.051
 5839SOL    HW219415   4.773   1.867  14.138
 5840SOL     OW19416   4.725  12.697   1.378
 5840SOL    HW119417   4.817  12.708   1.403
 5840SOL    HW219418   4.676  12.743   1.447
 5841SOL     OW19419   8.909  13.668   1.908
 5841SOL    HW119420   8.996  13.641   1.879
 5841SOL    HW219421   8.899  13.757   1.875
 5842SOL     OW19422   0.863   5.709  13.978
 5842SOL    HW119423   0.820   5.673  13.900
 5842SOL    HW219424   0.912   5.784  13.945
 5843SOL     OW19425   9.635  11.364  12.836
 5843SOL    HW119426   9.692  11.398  12.905
 5843SOL    HW219427   9.625  11.271  12.858
 5844SOL     OW19428   1.604   6.618   5.561
 5844SOL    HW119429   1.696   6.600   5.541
 5844SOL    HW219430   1.589   6.707   5.529
 5845SOL     OW19431   6.026   6.832   6.432
 5845SOL    HW119432   5.993   6.922   6.432
 5845SOL    HW219433   6.021   6.804   6.341
 5846SOL     OW19434   6.188  14.457  11.666
 5846SOL    HW119435   6.134  14.525  11.706
 5846SOL    HW219436   6.147  14.440  11.582
 5847SOL     OW19437   7.324  14.550   2.928
 5847SOL    HW119438   7.366  14.558   3.013
 5847SOL    HW219439   7.321  14.456   2.911
 5848SOL     OW19440   0.707   2.705  12.329
 5848SOL    HW119441   0.711   2.627  12.272
 5848SOL    HW219442   0.631   2.753  12.298
 5849SOL     OW19443   7.712   3.657   7.795
 5849SOL    HW119444   7.782   3.593   7.775
 5849SOL    HW219445   7.650   3.647   7.723
 5850SOL     OW19446   4.343  11.007  12.291
 5850SOL    HW119447   4.399  11.010  12.369
 5850SOL    HW219448   4.379  11.075  12.234
 5851SOL     OW19449  10.913   7.067   2.855
 5851SOL    HW119450  10.902   6.971   2.852
 5851SOL    HW219451  10.960   7.088   2.775
 5852SOL     OW19452  11.672  11.696  10.977
 5852SOL    HW119453  11.665  11.766  10.912
 5852SOL    HW219454  11.613  11.628  10.945
 5853SOL     OW19455  13.726   8.809   6.393
 5853SOL    HW119456  13.634   8.783   6.395
 5853SOL    HW219457  13.768   8.745   6.335
 5854SOL     OW19458   5.620   0.867   4.893
 5854SOL    HW119459   5.598   0.953   4.858
 5854SOL    HW219460   5.616   0.878   4.988
 5855SOL     OW19461  14.594   8.095  13.289
 5855SOL    HW119462  14.676   8.140  13.271
 5855SOL    HW219463  14.619   8.010  13.326
 5856SOL     OW19464   7.856   0.816   2.669
 5856SOL    HW119465   7.933   0.765   2.693
 5856SOL    HW219466   7.812   0.763   2.603
 5857SOL     OW19467   9.384  11.347   4.285
 5857SOL    HW119468   9.407  11.372   4.195
 5857SOL    HW219469   9.439  11.271   4.302
 5858SOL     OW19470   6.411   7.759   7.069
 5858SOL    HW119471   6.361   7.678   7.077
 5858SOL    HW219472   6.402   7.785   6.978
 5859SOL     OW19473  12.298  14.073  14.837
 5859SOL    HW119474  12.239  14.010   0.008
 5859SOL    HW219475  12.244  14.151  14.822
 5860SOL     OW19476  14.422   3.981   8.528
 5860SOL    HW119477  14.458   3.934   8.453
 5860SOL    HW219478  14.382   3.913   8.582
 5861SOL     OW19479   0.263   4.219  13.281
 5861SOL    HW119480   0.258   4.314  13.275
 5861SOL    HW219481   0.196   4.195  13.344
 5862SOL     OW19482   8.169   3.600   8.955
 5862SOL    HW119483   8.145   3.693   8.950
 5862SOL    HW219484   8.152   3.576   9.046
 5863SOL     OW19485   9.891   7.169   7.196
 5863SOL    HW119486   9.927   7.098   7.249
 5863SOL    HW219487   9.917   7.148   7.107
 5864SOL     OW19488   7.248   1.074   3.727
 5864SOL    HW119489   7.196   1.036   3.798
 5864SOL    HW219490   7.247   1.007   3.658
 5865SOL     OW19491   7.561   4.954   8.519
 5865SOL    HW119492   7.479   4.950   8.471
 5865SOL    HW219493   7.578   4.864   8.547
 5866SOL     OW19494   2.280   5.092   2.653
 5866SOL    HW119495   2.347   5.027   2.629
 5866SOL    HW219496   2.198   5.053   2.623
 5867SOL     OW19497  10.784   4.601   8.442
 5867SOL    HW119498  10.689   4.586   8.438
 5867SOL    HW219499  10.816   4.534   8.503
 5868SOL     OW19500  13.299   6.519   6.884
 5868SOL    HW119501  13.327   6.428   6.879
 5868SOL    HW219502  13.296   6.538   6.978
 5869SOL     OW19503   1.383   2.629   3.226
 5869SOL    HW119504   1.429   2.554   3.264
 5869SOL    HW219505   1.298   2.595   3.200
 5870SOL     OW19506   7.216   2.673   1.235
 5870SOL    HW119507   7.204   2.622   1.154
 5870SOL    HW219508   7.286   2.627   1.281
 5871SOL     OW19509   1.997   0.447  14.850
 5871SOL    HW119510   2.075   0.501  14.857
 5871SOL    HW219511   1.984   0.413   0.070
 5872SOL     OW19512   3.607  12.904  11.273
 5872SOL    HW119513   3.612  12.886  11.366
 5872SOL    HW219514   3.681  12.858  11.235
 5873SOL     OW19515   1.936  12.180  12.047
 5873SOL    HW119516   1.901  12.124  11.978
 5873SOL    HW219517   2.026  12.198  12.020
 5874SOL     OW19518   7.202  10.936  12.908
 5874SOL    HW119519   7.108  10.921  12.921
 5874SOL    HW219520   7.209  11.029  12.887
 5875SOL     OW19521   4.638   6.364   9.265
 5875SOL    HW119522   4.731   6.387   9.269
 5875SOL    HW219523   4.636   6.271   9.289
 5876SOL     OW19524   5.216   1.181  13.517
 5876SOL    HW119525   5.157   1.106  13.518
 5876SOL    HW219526   5.181   1.240  13.583
 5877SOL     OW19527  13.343   6.637   2.320
 5877SOL    HW119528  13.341   6.542   2.307
 5877SOL    HW219529  13.261   6.658   2.364
 5878SOL     OW19530   3.134  11.488  10.654
 5878SOL    HW119531   3.080  11.566  10.644
 5878SOL    HW219532   3.181  11.501  10.737
 5879SOL     OW19533   6.553  14.537   9.929
 5879SOL    HW119534   6.478  14.505   9.878
 5879SOL    HW219535   6.531  14.628   9.949
 5880SOL     OW19536  10.349   0.877  14.521
 5880SOL    HW119537  10.370   0.791  14.485
 5880SOL    HW219538  10.381   0.874  14.611
 5881SOL     OW19539   6.610   5.500   1.278
 5881SOL    HW119540   6.564   5.579   1.248
 5881SOL    HW219541   6.652   5.465   1.200
 5882SOL     OW19542   5.221   2.109   5.630
 5882SOL    HW119543   5.196   2.198   5.655
 5882SOL    HW219544   5.302   2.093   5.679
 5883SOL     OW19545   5.129   2.726   7.581
 5883SOL    HW119546   5.095   2.677   7.506
 5883SOL    HW219547   5.093   2.681   7.658
 5884SOL     OW19548   4.021   6.662   3.624
 5884SOL    HW119549   4.101   6.661   3.677
 5884SOL    HW219550   3.950   6.660   3.688
 5885SOL     OW19551   9.884   3.267  11.389
 5885SOL    HW119552   9.952   3.274  11.456
 5885SOL    HW219553   9.833   3.190  11.414
 5886SOL     OW19554  14.544   0.628  14.082
 5886SOL    HW119555  14.528   0.632  13.987
 5886SOL    HW219556  14.638   0.640  14.090
 5887SOL     OW19557   5.058   1.028  10.199
 5887SOL    HW119558   5.147   1.011  10.169
 5887SOL    HW219559   5.061   1.118  10.232
 5888SOL     OW19560  14.736   5.465   3.736
 5888SOL    HW119561  14.796   5.400   3.699
 5888SOL    HW219562  14.793   5.535   3.767
 5889SOL     OW19563   9.744   9.322   6.045
 5889SOL    HW119564   9.707   9.321   6.133
 5889SOL    HW219565   9.760   9.415   6.027
 5890SOL     OW19566   2.791  13.064   0.494
 5890SOL    HW119567   2.866  13.123   0.488
 5890SOL    HW219568   2.818  12.986   0.445
 5891SOL     OW19569  13.455   4.628  14.771
 5891SOL    HW119570  13.365   4.594  14.778
 5891SOL    HW219571  13.472   4.668  14.857
 5892SOL     OW19572   5.330   7.832  14.618
 5892SOL    HW119573   5.360   7.897  14.555
 5892SOL    HW219574   5.371   7.858  14.701
 5893SOL     OW19575   7.221   6.097  14.597
 5893SOL    HW119576   7.226   6.180  14.548
 5893SOL    HW219577   7.307   6.089  14.640
 5894SOL     OW19578  14.551   8.481   0.559
 5894SOL    HW119579  14.536   8.390   0.536
 5894SOL    HW219580  14.646   8.489   0.570
 5895SOL     OW19581  10.604   7.561   6.108
 5895SOL    HW119582  10.552   7.641   6.108
 5895SOL    HW219583  10.577   7.514   6.029
 5896SOL     OW19584  10.268  11.733  12.072
 5896SOL    HW119585  10.254  11.711  11.980
 5896SOL    HW219586  10.303  11.652  12.111
 5897SOL     OW19587   1.213   0.218   2.750
 5897SOL    HW119588   1.175   0.147   2.698
 5897SOL    HW219589   1.277   0.259   2.692
 5898SOL     OW19590   8.817   2.513   1.116
 5898SOL    HW119591   8.805   2.585   1.178
 5898SOL    HW219592   8.790   2.549   1.032
 5899SOL     OW19593   2.271   3.378   5.211
 5899SOL    HW119594   2.280   3.424   5.127
 5899SOL    HW219595   2.341   3.313   5.211
 5900SOL     OW19596   2.249   1.130   7.913
 5900SOL    HW119597   2.284   1.216   7.891
 5900SOL    HW219598   2.293   1.107   7.995
 5901SOL     OW19599   4.455   8.509  12.703
 5901SOL    HW119600   4.450   8.552  12.789
 5901SOL    HW219601   4.364   8.490  12.681
 5902SOL     OW19602  10.509   0.206   0.856
 5902SOL    HW119603  10.454   0.192   0.933
 5902SOL    HW219604  10.571   0.133   0.858
 5903SOL     OW19605  12.878   4.843   8.265
 5903SOL    HW119606  12.856   4.774   8.328
 5903SOL    HW219607  12.801   4.847   8.207
 5904SOL     OW19608   3.433   0.304   7.258
 5904SOL    HW119609   3.398   0.347   7.336
 5904SOL    HW219610   3.464   0.376   7.203
 5905SOL     OW19611   7.874   6.215   1.928
 5905SOL    HW119612   7.899   6.139   1.980
 5905SOL    HW219613   7.790   6.243   1.965
 5906SOL     OW19614   7.809   8.536  10.005
 5906SOL    HW119615   7.840   8.618  10.043
 5906SOL    HW219616   7.860   8.525   9.925
 5907SOL     OW19617  11.527   6.188   5.389
 5907SOL    HW119618  11.480   6.271   5.396
 5907SOL    HW219619  11.541   6.176   5.295
 5908SOL     OW19620   1.498  12.094   8.657
 5908SOL    HW119621   1.542  12.108   8.741
 5908SOL    HW219622   1.431  12.162   8.653
 5909SOL     OW19623   7.860   7.281  14.463
 5909SOL    HW119624   7.884   7.287  14.555
 5909SOL    HW219625   7.792   7.347  14.451
 5910SOL     OW19626   5.222  10.265   7.514
 5910SOL    HW119627   5.291  10.317   7.556
 5910SOL    HW219628   5.191  10.207   7.583
 5911SOL     OW19629   2.093  10.128   8.913
 5911SOL    HW119630   2.186  10.119   8.890
 5911SOL    HW219631   2.094  10.164   9.002
 5912SOL     OW19632  13.168   5.569   0.301
 5912SOL    HW119633  13.206   5.629   0.366
 5912SOL    HW219634  13.152   5.624   0.224
 5913SOL     OW19635  12.115   5.899   8.389
 5913SOL    HW119636  12.058   5.970   8.416
 5913SOL    HW219637  12.158   5.870   8.469
 5914SOL     OW19638  11.590   7.824  11.263
 5914SOL    HW119639  11.653   7.881  11.308
 5914SOL    HW219640  11.510   7.831  11.315
 5915SOL     OW19641   4.161  13.300  14.548
 5915SOL    HW119642   4.080  13.268  14.589
 5915SOL    HW219643   4.226  13.296  14.618
 5916SOL     OW19644   9.133   0.404  13.461
 5916SOL    HW119645   9.177   0.462  13.399
 5916SOL    HW219646   9.120   0.322  13.413
 5917SOL     OW19647  10.038   3.645   5.662
 5917SOL    HW119648  10.060   3.654   5.569
 5917SOL    HW219649  10.120   3.663   5.707
 5918SOL     OW19650   0.291   6.434   9.691
 5918SOL    HW119651   0.230   6.373   9.733
 5918SOL    HW219652   0.368   6.435   9.748
 5919SOL     OW19653   7.969   6.594   4.998
 5919SOL    HW119654   7.972   6.513   5.048
 5919SOL    HW219655   8.015   6.658   5.053
 5920SOL     OW19656   2.827   5.924   6.465
 5920SOL    HW119657   2.743   5.878   6.462
 5920SOL    HW219658   2.891   5.856   6.488
 5921SOL     OW19659   3.630   0.461   8.816
 5921SOL    HW119660   3.615   0.390   8.754
 5921SOL    HW219661   3.681   0.526   8.768
 5922SOL     OW19662   9.718  14.194   7.494
 5922SOL    HW119663   9.646  14.130   7.497
 5922SOL    HW219664   9.761  14.185   7.579
 5923SOL     OW19665  11.151   4.115   6.457
 5923SOL    HW119666  11.212   4.178   6.420
 5923SOL    HW219667  11.126   4.153   6.541
 5924SOL     OW19668   7.253   3.472  13.108
 5924SOL    HW119669   7.218   3.410  13.173
 5924SOL    HW219670   7.312   3.528  13.158
 5925SOL     OW19671  11.430   4.010   0.776
 5925SOL    HW119672  11.463   4.013   0.866
 5925SOL    HW219673  11.373   3.933   0.773
 5926SOL     OW19674  12.181  12.311   6.491
 5926SOL    HW119675  12.108  12.370   6.514
 5926SOL    HW219676  12.160  12.229   6.536
 5927SOL     OW19677   9.036  14.327   5.223
 5927SOL    HW119678   9.019  14.248   5.172
 5927SOL    HW219679   9.123  14.356   5.195
 5928SOL     OW19680   0.918   4.412   6.687
 5928SOL    HW119681   0.965   4.481   6.641
 5928SOL    HW219682   0.829   4.446   6.697
 5929SOL     OW19683   7.825   9.611  13.073
 5929SOL    HW119684   7.863   9.534  13.032
 5929SOL    HW219685   7.742   9.624  13.027
 5930SOL     OW19686   3.086  13.849   3.825
 5930SOL    HW119687   3.118  13.759   3.815
 5930SOL    HW219688   3.011  13.854   3.766
 5931SOL     OW19689   3.027   0.151   7.507
 5931SOL    HW119690   3.118   0.136   7.529
 5931SOL    HW219691   3.006   0.083   7.443
 5932SOL     OW19692   1.379   9.579  13.042
 5932SOL    HW119693   1.329   9.511  12.996
 5932SOL    HW219694   1.321   9.655  13.042
 5933SOL     OW19695   1.693   1.435   7.792
 5933SOL    HW119696   1.665   1.522   7.822
 5933SOL    HW219697   1.612   1.391   7.766
 5934SOL     OW19698  11.337   7.512   0.995
 5934SOL    HW119699  11.394   7.573   1.041
 5934SOL    HW219700  11.390   7.433   0.983
 5935SOL     OW19701  13.240   6.987   0.656
 5935SOL    HW119702  13.201   6.962   0.572
 5935SOL    HW219703  13.307   6.920   0.672
 5936SOL     OW19704  13.804   2.714  14.121
 5936SOL    HW119705  13.884   2.760  14.095
 5936SOL    HW219706  13.834   2.634  14.163
 5937SOL     OW19707   4.443  14.451  12.071
 5937SOL    HW119708   4.419  14.359  12.079
 5937SOL    HW219709   4.373  14.498  12.116
 5938SOL     OW19710   3.279   9.167  14.105
 5938SOL    HW119711   3.373   9.182  14.096
 5938SOL    HW219712   3.254   9.122  14.024
 5939SOL     OW19713  10.952   9.214   3.594
 5939SOL    HW119714  10.867   9.242   3.627
 5939SOL    HW219715  11.004   9.294   3.589
 5940SOL     OW19716   9.637   7.989   5.883
 5940SOL    HW119717   9.616   8.082   5.894
 5940SOL    HW219718   9.567   7.943   5.929
 5941SOL     OW19719   8.937  14.841   4.616
 5941SOL    HW119720   8.958  14.869   4.704
 5941SOL    HW219721   8.853  14.796   4.624
 5942SOL     OW19722   3.707   0.894  13.422
 5942SOL    HW119723   3.755   0.823  13.464
 5942SOL    HW219724   3.691   0.958  13.492
 5943SOL     OW19725   2.749   0.153   3.372
 5943SOL    HW119726   2.771   0.061   3.357
 5943SOL    HW219727   2.815   0.202   3.324
 5944SOL     OW19728  12.481  13.121  12.084
 5944SOL    HW119729  12.444  13.035  12.102
 5944SOL    HW219730  12.475  13.168  12.168
 5945SOL     OW19731  10.866  12.652   5.919
 5945SOL    HW119732  10.775  12.682   5.917
 5945SOL    HW219733  10.917  12.730   5.896
 5946SOL     OW19734   0.685   0.552  10.623
 5946SOL    HW119735   0.774   0.520  10.641
 5946SOL    HW219736   0.661   0.600  10.703
 5947SOL     OW19737   1.866   8.194   7.940
 5947SOL    HW119738   1.819   8.196   7.856
 5947SOL    HW219739   1.939   8.254   7.927
 5948SOL     OW19740   0.317   8.359   9.126
 5948SOL    HW119741   0.272   8.415   9.062
 5948SOL    HW219742   0.246   8.322   9.179
 5949SOL     OW19743   5.095  10.958   1.310
 5949SOL    HW119744   5.128  10.955   1.400
 5949SOL    HW219745   5.026  11.025   1.313
 5950SOL     OW19746  11.779   2.083   4.411
 5950SOL    HW119747  11.686   2.062   4.408
 5950SOL    HW219748  11.794   2.138   4.334
 5951SOL     OW19749   2.369   0.216   5.171
 5951SOL    HW119750   2.428   0.248   5.239
 5951SOL    HW219751   2.286   0.200   5.216
 5952SOL     OW19752   7.337  14.183   0.305
 5952SOL    HW119753   7.252  14.156   0.271
 5952SOL    HW219754   7.366  14.109   0.358
 5953SOL     OW19755  10.606   5.606   9.714
 5953SOL    HW119756  10.518   5.570   9.710
 5953SOL    HW219757  10.636   5.608   9.623
 5954SOL     OW19758   3.453   6.333   6.560
 5954SOL    HW119759   3.403   6.255   6.586
 5954SOL    HW219760   3.401   6.373   6.491
 5955SOL     OW19761   2.371   4.364   7.328
 5955SOL    HW119762   2.455   4.369   7.373
 5955SOL    HW219763   2.351   4.455   7.303
 5956SOL     OW19764   1.381   3.935   5.574
 5956SOL    HW119765   1.473   3.932   5.546
 5956SOL    HW219766   1.333   3.896   5.501
 5957SOL     OW19767  11.912   5.502   2.424
 5957SOL    HW119768  11.850   5.477   2.356
 5957SOL    HW219769  11.867   5.570   2.473
 5958SOL     OW19770   9.969   4.017   1.357
 5958SOL    HW119771  10.042   4.031   1.297
 5958SOL    HW219772   9.917   3.949   1.315
 5959SOL     OW19773   4.285  13.776  11.047
 5959SOL    HW119774   4.203  13.780  10.997
 5959SOL    HW219775   4.260  13.732  11.129
 5960SOL     OW19776  14.053  14.390   9.783
 5960SOL    HW119777  14.136  14.388   9.736
 5960SOL    HW219778  14.077  14.409   9.874
 5961SOL     OW19779   7.361   4.998   9.922
 5961SOL    HW119780   7.300   5.069   9.943
 5961SOL    HW219781   7.305   4.923   9.906
 5962SOL     OW19782   0.510   0.308   6.049
 5962SOL    HW119783   0.434   0.365   6.038
 5962SOL    HW219784   0.475   0.219   6.046
 5963SOL     OW19785   1.223   0.641  11.921
 5963SOL    HW119786   1.186   0.704  11.983
 5963SOL    HW219787   1.290   0.595  11.971
 5964SOL     OW19788   3.757  14.669   4.327
 5964SOL    HW119789   3.787  14.697   4.414
 5964SOL    HW219790   3.718  14.747   4.289
 5965SOL     OW19791   8.360   1.703  13.487
 5965SOL    HW119792   8.362   1.796  13.509
 5965SOL    HW219793   8.442   1.688  13.440
 5966SOL     OW19794   9.586   8.695   2.167
 5966SOL    HW119795   9.586   8.677   2.073
 5966SOL    HW219796   9.674   8.728   2.186
 5967SOL     OW19797   0.984   3.904   8.627
 5967SOL    HW119798   1.051   3.851   8.585
 5967SOL    HW219799   0.984   3.987   8.579
 5968SOL     OW19800  11.353   0.922  10.442
 5968SOL    HW119801  11.442   0.886  10.445
 5968SOL    HW219802  11.348   0.964  10.356
 5969SOL     OW19803   1.189  11.789  14.255
 5969SOL    HW119804   1.187  11.882  14.278
 5969SOL    HW219805   1.213  11.745  14.336
 5970SOL     OW19806  14.372   8.598  12.804
 5970SOL    HW119807  14.312   8.528  12.777
 5970SOL    HW219808  14.420   8.620  12.724
 5971SOL     OW19809   6.691   5.092   0.657
 5971SOL    HW119810   6.755   5.073   0.588
 5971SOL    HW219811   6.744   5.125   0.730
 5972SOL     OW19812   3.602  11.868   6.100
 5972SOL    HW119813   3.655  11.947   6.104
 5972SOL    HW219814   3.519  11.895   6.061
 5973SOL     OW19815   3.461   5.523  14.003
 5973SOL    HW119816   3.406   5.600  13.989
 5973SOL    HW219817   3.477   5.522  14.097
 5974SOL     OW19818  12.429   6.350   5.394
 5974SOL    HW119819  12.355   6.390   5.440
 5974SOL    HW219820  12.503   6.407   5.414
 5975SOL     OW19821  13.798  12.263  14.395
 5975SOL    HW119822  13.702  12.254  14.398
 5975SOL    HW219823  13.814  12.356  14.410
 5976SOL     OW19824   8.470   5.023   6.434
 5976SOL    HW119825   8.563   5.000   6.436
 5976SOL    HW219826   8.435   4.989   6.516
 5977SOL     OW19827   5.532   0.899   4.046
 5977SOL    HW119828   5.441   0.924   4.030
 5977SOL    HW219829   5.540   0.900   4.141
 5978SOL     OW19830  10.716  14.850  13.556
 5978SOL    HW119831  10.638   0.033  13.536
 5978SOL    HW219832  10.719  14.848  13.652
 5979SOL     OW19833   9.346   9.081   2.297
 5979SOL    HW119834   9.370   9.108   2.385
 5979SOL    HW219835   9.328   8.987   2.304
 5980SOL     OW19836   7.497  10.824  10.721
 5980SOL    HW119837   7.585  10.791  10.738
 5980SOL    HW219838   7.438  10.760  10.761
 5981SOL     OW19839   9.997  10.964   6.540
 5981SOL    HW119840   9.981  10.983   6.633
 5981SOL    HW219841   9.931  11.015   6.494
 5982SOL     OW19842   3.133   8.638   0.235
 5982SOL    HW119843   3.164   8.715   0.283
 5982SOL    HW219844   3.174   8.564   0.279
 5983SOL     OW19845   6.740  11.527   0.087
 5983SOL    HW119846   6.763  11.507  14.866
 5983SOL    HW219847   6.745  11.623   0.093
 5984SOL     OW19848   4.728  12.393   3.279
 5984SOL    HW119849   4.654  12.353   3.232
 5984SOL    HW219850   4.716  12.364   3.370
 5985SOL     OW19851   5.682   9.192   4.369
 5985SOL    HW119852   5.664   9.189   4.463
 5985SOL    HW219853   5.715   9.280   4.354
 5986SOL     OW19854  10.647   1.192   5.026
 5986SOL    HW119855  10.561   1.233   5.011
 5986SOL    HW219856  10.644   1.164   5.118
 5987SOL     OW19857   6.411   4.240  11.640
 5987SOL    HW119858   6.392   4.228  11.733
 5987SOL    HW219859   6.402   4.152  11.602
 5988SOL     OW19860   6.869   4.219   3.131
 5988SOL    HW119861   6.930   4.150   3.158
 5988SOL    HW219862   6.924   4.286   3.091
 5989SOL     OW19863   0.629  13.547   1.788
 5989SOL    HW119864   0.641  13.475   1.850
 5989SOL    HW219865   0.540  13.537   1.756
 5990SOL     OW19866  13.054  14.226   3.695
 5990SOL    HW119867  13.117  14.171   3.740
 5990SOL    HW219868  13.096  14.312   3.689
 5991SOL     OW19869   2.678   5.763   7.753
 5991SOL    HW119870   2.627   5.687   7.780
 5991SOL    HW219871   2.717   5.738   7.669
 5992SOL     OW19872  11.122   4.762  10.360
 5992SOL    HW119873  11.044   4.713  10.386
 5992SOL    HW219874  11.102   4.852  10.385
 5993SOL     OW19875   3.457   4.447   1.046
 5993SOL    HW119876   3.493   4.403   1.123
 5993SOL    HW219877   3.380   4.395   1.022
 5994SOL     OW19878   9.753   3.662   8.280
 5994SOL    HW119879   9.771   3.752   8.308
 5994SOL    HW219880   9.748   3.612   8.361
 5995SOL     OW19881   1.594  11.756  11.757
 5995SOL    HW119882   1.617  11.772  11.848
 5995SOL    HW219883   1.672  11.715  11.719
 5996SOL     OW19884  14.674   5.762   6.218
 5996SOL    HW119885  14.691   5.688   6.278
 5996SOL    HW219886  14.748   5.760   6.157
 5997SOL     OW19887  11.736   6.395  11.358
 5997SOL    HW119888  11.646   6.402  11.390
 5997SOL    HW219889  11.758   6.303  11.370
 5998SOL     OW19890   3.859  12.203  12.580
 5998SOL    HW119891   3.787  12.166  12.631
 5998SOL    HW219892   3.885  12.132  12.521
 5999SOL     OW19893  11.143   2.661   3.491
 5999SOL    HW119894  11.078   2.730   3.506
 5999SOL    HW219895  11.099   2.580   3.518
 6000SOL     OW19896   1.637   1.059  11.836
 6000SOL    HW119897   1.654   1.153  11.844
 6000SOL    HW219898   1.660   1.023  11.921
 6001SOL     OW19899  11.695  14.336  14.247
 6001SOL    HW119900  11.661  14.297  14.166
 6001SOL    HW219901  11.789  14.319  14.243
 6002SOL     OW19902  14.067   8.139   9.165
 6002SOL    HW119903  14.104   8.212   9.214
 6002SOL    HW219904  14.138   8.075   9.158
 6003SOL     OW19905  13.699   8.172   6.792
 6003SOL    HW119906  13.647   8.103   6.751
 6003SOL    HW219907  13.736   8.220   6.718
 6004SOL     OW19908   7.629   1.132   4.765
 6004SOL    HW119909   7.634   1.080   4.845
 6004SOL    HW219910   7.699   1.098   4.710
 6005SOL     OW19911   4.999   0.249   9.970
 6005SOL    HW119912   5.092   0.269   9.980
 6005SOL    HW219913   4.959   0.333   9.946
 6006SOL     OW19914   8.725   0.028   3.211
 6006SOL    HW119915   8.804   0.070   3.244
 6006SOL    HW219916   8.698   0.083   3.137
 6007SOL     OW19917   2.942   1.192   7.010
 6007SOL    HW119918   2.909   1.135   6.940
 6007SOL    HW219919   3.019   1.147   7.044
 6008SOL     OW19920   9.371  13.398  10.039
 6008SOL    HW119921   9.457  13.392   9.997
 6008SOL    HW219922   9.317  13.447   9.977
 6009SOL     OW19923  12.325   6.350   6.753
 6009SOL    HW119924  12.236   6.317   6.766
 6009SOL    HW219925  12.366   6.344   6.840
 6010SOL     OW19926  11.389   6.391   1.049
 6010SOL    HW119927  11.469   6.443   1.055
 6010SOL    HW219928  11.380   6.350   1.135
 6011SOL     OW19929  12.883  10.858   2.298
 6011SOL    HW119930  12.854  10.776   2.338
 6011SOL    HW219931  12.923  10.907   2.370
 6012SOL     OW19932   9.545   8.925  14.345
 6012SOL    HW119933   9.473   8.934  14.283
 6012SOL    HW219934   9.545   8.833  14.369
 6013SOL     OW19935  13.338   8.458   0.802
 6013SOL    HW119936  13.430   8.477   0.822
 6013SOL    HW219937  13.330   8.476   0.708
 6014SOL     OW19938   1.702  13.274  10.675
 6014SOL    HW119939   1.729  13.328  10.749
 6014SOL    HW219940   1.646  13.331  10.622
 6015SOL     OW19941   5.473   9.301   7.470
 6015SOL    HW119942   5.429   9.368   7.523
 6015SOL    HW219943   5.562   9.333   7.460
 6016SOL     OW19944  11.053   1.736   5.061
 6016SOL    HW119945  11.007   1.733   5.145
 6016SOL    HW219946  11.124   1.672   5.070
 6017SOL     OW19947  13.509   4.588   0.938
 6017SOL    HW119948  13.426   4.633   0.919
 6017SOL    HW219949  13.545   4.635   1.013
 6018SOL     OW19950   4.593   7.754   0.716
 6018SOL    HW119951   4.591   7.843   0.681
 6018SOL    HW219952   4.547   7.701   0.650
 6019SOL     OW19953   0.326  13.630   0.696
 6019SOL    HW119954   0.397  13.571   0.723
 6019SOL    HW219955   0.295  13.594   0.613
 6020SOL     OW19956  11.538  13.449   0.265
 6020SOL    HW119957  11.455  13.403   0.256
 6020SOL    HW219958  11.527  13.505   0.342
 6021SOL     OW19959  10.569   5.250   5.119
 6021SOL    HW119960  10.502   5.319   5.108
 6021SOL    HW219961  10.648   5.288   5.082
 6022SOL     OW19962   9.545   1.988  11.553
 6022SOL    HW119963   9.530   2.068  11.603
 6022SOL    HW219964   9.619   1.946  11.597
 6023SOL     OW19965  11.988  14.549   1.746
 6023SOL    HW119966  11.967  14.578   1.835
 6023SOL    HW219967  11.907  14.562   1.697
 6024SOL     OW19968   8.081   8.976  13.090
 6024SOL    HW119969   8.013   8.911  13.069
 6024SOL    HW219970   8.036   9.060  13.082
 6025SOL     OW19971   8.983   1.144  14.073
 6025SOL    HW119972   8.969   1.237  14.090
 6025SOL    HW219973   9.068   1.140  14.029
 6026SOL     OW19974  13.391  12.650   7.356
 6026SOL    HW119975  13.364  12.563   7.326
 6026SOL    HW219976  13.452  12.680   7.289
 6027SOL     OW19977   0.963   1.670   3.453
 6027SOL    HW119978   1.040   1.629   3.491
 6027SOL    HW219979   0.917   1.710   3.527
 6028SOL     OW19980  10.479   1.085  11.025
 6028SOL    HW119981  10.391   1.121  11.039
 6028SOL    HW219982  10.538   1.158  11.044
 6029SOL     OW19983   2.328  14.201  13.526
 6029SOL    HW119984   2.309  14.290  13.498
 6029SOL    HW219985   2.391  14.211  13.598
 6030SOL     OW19986   2.597   3.724  14.735
 6030SOL    HW119987   2.692   3.723  14.723
 6030SOL    HW219988   2.573   3.816  14.733
 6031SOL     OW19989  11.043  14.714   3.430
 6031SOL    HW119990  10.956  14.747   3.454
 6031SOL    HW219991  11.061  14.755   3.345
 6032SOL     OW19992   0.741   8.454   3.149
 6032SOL    HW119993   0.660   8.476   3.102
 6032SOL    HW219994   0.768   8.536   3.190
 6033SOL     OW19995   5.979   4.965  10.481
 6033SOL    HW119996   6.040   4.970  10.408
 6033SOL    HW219997   5.954   5.056  10.497
 6034SOL     OW19998   7.015  11.130   1.071
 6034SOL    HW119999   7.064  11.177   1.139
 6034SOL    HW220000   6.932  11.177   1.065
 6035SOL     OW20001   9.915   0.472   1.598
 6035SOL    HW120002  10.000   0.512   1.584
 6035SOL    HW220003   9.901   0.476   1.692
 6036SOL     OW20004   8.614   6.836   7.974
 6036SOL    HW120005   8.660   6.842   7.891
 6036SOL    HW220006   8.643   6.913   8.023
 6037SOL     OW20007  14.259   9.952  12.749
 6037SOL    HW120008  14.299   9.881  12.799
 6037SOL    HW220009  14.221   9.909  12.672
 6038SOL     OW20010   5.195   7.997   1.641
 6038SOL    HW120011   5.275   8.049   1.635
 6038SOL    HW220012   5.225   7.906   1.645
 6039SOL     OW20013   6.332   6.757   4.580
 6039SOL    HW120014   6.412   6.706   4.595
 6039SOL    HW220015   6.261   6.699   4.609
 6040SOL     OW20016  10.913   5.446   2.990
 6040SOL    HW120017  10.835   5.465   3.042
 6040SOL    HW220018  10.972   5.401   3.050
 6041SOL     OW20019   6.657   2.041   0.306
 6041SOL    HW120020   6.604   1.961   0.305
 6041SOL    HW220021   6.618   2.095   0.374
 6042SOL     OW20022   1.064   8.287   1.115
 6042SOL    HW120023   1.134   8.352   1.105
 6042SOL    HW220024   1.108   8.208   1.144
 6043SOL     OW20025  13.178  14.315  10.299
 6043SOL    HW120026  13.260  14.274  10.272
 6043SOL    HW220027  13.195  14.409  10.289
 6044SOL     OW20028   9.735   8.384   3.674
 6044SOL    HW120029   9.774   8.322   3.735
 6044SOL    HW220030   9.679   8.330   3.617
 6045SOL     OW20031  10.402  13.908   3.575
 6045SOL    HW120032  10.396  13.877   3.485
 6045SOL    HW220033  10.464  13.981   3.571
 6046SOL     OW20034  10.645   3.846   1.474
 6046SOL    HW120035  10.684   3.918   1.423
 6046SOL    HW220036  10.555   3.874   1.489
 6047SOL     OW20037  14.659  12.346   0.916
 6047SOL    HW120038  14.595  12.329   0.848
 6047SOL    HW220039  14.694  12.433   0.895
 6048SOL     OW20040   6.161  13.111  11.011
 6048SOL    HW120041   6.178  13.180  10.947
 6048SOL    HW220042   6.080  13.138  11.054
 6049SOL     OW20043   8.442  14.407  13.370
 6049SOL    HW120044   8.444  14.376  13.461
 6049SOL    HW220045   8.434  14.327  13.318
 6050SOL     OW20046   7.444   2.707   6.241
 6050SOL    HW120047   7.364   2.739   6.199
 6050SOL    HW220048   7.428   2.721   6.335
 6051SOL     OW20049  14.728  10.895  11.352
 6051SOL    HW120050  14.664  10.952  11.394
 6051SOL    HW220051  14.782  10.862  11.425
 6052SOL     OW20052   3.783  13.023   2.610
 6052SOL    HW120053   3.723  12.962   2.653
 6052SOL    HW220054   3.816  12.975   2.534
 6053SOL     OW20055  13.546   2.218   9.200
 6053SOL    HW120056  13.595   2.299   9.215
 6053SOL    HW220057  13.488   2.211   9.275
 6054SOL     OW20058  10.538  10.507   5.678
 6054SOL    HW120059  10.554  10.428   5.730
 6054SOL    HW220060  10.453  10.539   5.710
 6055SOL     OW20061   7.021   1.413  14.582
 6055SOL    HW120062   7.036   1.353  14.655
 6055SOL    HW220063   7.074   1.490  14.603
 6056SOL     OW20064   4.805  14.354  12.718
 6056SOL    HW120065   4.768  14.290  12.779
 6056SOL    HW220066   4.730  14.389  12.670
 6057SOL     OW20067  14.215   2.759   8.325
 6057SOL    HW120068  14.301   2.718   8.317
 6057SOL    HW220069  14.233   2.853   8.325
 6058SOL     OW20070   6.794  14.634   2.404
 6058SOL    HW120071   6.861  14.659   2.467
 6058SOL    HW220072   6.839  14.635   2.319
 6059SOL     OW20073  14.219  12.277   6.132
 6059SOL    HW120074  14.260  12.361   6.149
 6059SOL    HW220075  14.185  12.285   6.043
 6060SOL     OW20076   2.187   5.745   4.674
 6060SOL    HW120077   2.239   5.704   4.605
 6060SOL    HW220078   2.229   5.830   4.688
 6061SOL     OW20079   7.168   9.141   9.271
 6061SOL    HW120080   7.212   9.077   9.215
 6061SOL    HW220081   7.079   9.147   9.237
 6062SOL     OW20082   2.554   4.106   6.072
 6062SOL    HW120083   2.562   4.200   6.058
 6062SOL    HW220084   2.486   4.098   6.139
 6063SOL     OW20085  13.813   6.585  11.993
 6063SOL    HW120086  13.826   6.663  11.940
 6063SOL    HW220087  13.882   6.525  11.966
 6064SOL     OW20088   4.985  10.839   1.072
 6064SOL    HW120089   4.903  10.888   1.068
 6064SOL    HW220090   5.014  10.848   1.163
 6065SOL     OW20091   3.603  10.795  14.325
 6065SOL    HW120092   3.650  10.849  14.389
 6065SOL    HW220093   3.515  10.785  14.363
 6066SOL     OW20094   7.407   8.416   7.939
 6066SOL    HW120095   7.472   8.347   7.950
 6066SOL    HW220096   7.458   8.497   7.937
 6067SOL     OW20097   5.912   2.203   9.631
 6067SOL    HW120098   5.956   2.135   9.681
 6067SOL    HW220099   5.902   2.275   9.693
 6068SOL     OW20100   8.225  11.703  12.980
 6068SOL    HW120101   8.249  11.795  12.992
 6068SOL    HW220102   8.246  11.661  13.063
 6069SOL     OW20103   0.909  12.992  11.907
 6069SOL    HW120104   0.949  12.921  11.857
 6069SOL    HW220105   0.982  13.038  11.947
 6070SOL     OW20106   0.714  12.255  11.655
 6070SOL    HW120107   0.629  12.295  11.674
 6070SOL    HW220108   0.724  12.188  11.722
 6071SOL     OW20109   3.843  12.825   0.671
 6071SOL    HW120110   3.833  12.735   0.702
 6071SOL    HW220111   3.759  12.866   0.691
 6072SOL     OW20112   5.021   2.438   5.485
 6072SOL    HW120113   5.097   2.454   5.429
 6072SOL    HW220114   4.979   2.523   5.494
 6073SOL     OW20115   4.565  13.025  12.731
 6073SOL    HW120116   4.645  12.984  12.764
 6073SOL    HW220117   4.551  13.100  12.788
 6074SOL     OW20118   9.851   5.941   6.491
 6074SOL    HW120119   9.907   6.002   6.539
 6074SOL    HW220120   9.900   5.920   6.412
 6075SOL     OW20121   8.095   4.992   5.671
 6075SOL    HW120122   8.149   4.932   5.619
 6075SOL    HW220123   8.093   4.953   5.758
 6076SOL     OW20124  10.883   8.214   2.132
 6076SOL    HW120125  10.886   8.258   2.047
 6076SOL    HW220126  10.877   8.121   2.110
 6077SOL     OW20127   9.826  11.126   0.999
 6077SOL    HW120128   9.838  11.201   0.942
 6077SOL    HW220129   9.743  11.087   0.971
 6078SOL     OW20130  12.069  14.867   1.286
 6078SOL    HW120131  12.136  14.838   1.224
 6078SOL    HW220132  12.107   0.073   1.330
 6079SOL     OW20133   9.415   4.395  14.174
 6079SOL    HW120134   9.418   4.300  14.163
 6079SOL    HW220135   9.506   4.423  14.169
 6080SOL     OW20136   0.877  12.238   6.481
 6080SOL    HW120137   0.824  12.259   6.405
 6080SOL    HW220138   0.815  12.234   6.553
 6081SOL     OW20139  13.273   0.326  10.971
 6081SOL    HW120140  13.217   0.381  11.026
 6081SOL    HW220141  13.223   0.246  10.956
 6082SOL     OW20142   4.770   9.159   3.552
 6082SOL    HW120143   4.828   9.190   3.482
 6082SOL    HW220144   4.826   9.155   3.629
 6083SOL     OW20145   3.016  13.866  14.139
 6083SOL    HW120146   3.001  13.947  14.186
 6083SOL    HW220147   3.111  13.864  14.124
 6084SOL     OW20148  13.304   1.239  13.822
 6084SOL    HW120149  13.229   1.201  13.866
 6084SOL    HW220150  13.374   1.238  13.887
 6085SOL     OW20151  14.831   8.873   1.159
 6085SOL    HW120152  14.849   8.846   1.068
 6085SOL    HW220153   0.046   8.898   1.194
 6086SOL     OW20154  12.421  14.723   8.351
 6086SOL    HW120155  12.511  14.721   8.320
 6086SOL    HW220156  12.379  14.648   8.310
 6087SOL     OW20157  14.061  14.623   5.918
 6087SOL    HW120158  14.038  14.580   5.835
 6087SOL    HW220159  14.152  14.601   5.932
 6088SOL     OW20160  11.020   2.997  13.887
 6088SOL    HW120161  10.967   3.032  13.958
 6088SOL    HW220162  10.958   2.985  13.815
 6089SOL     OW20163  13.636   2.176   7.112
 6089SOL    HW120164  13.639   2.231   7.190
 6089SOL    HW220165  13.722   2.186   7.072
 6090SOL     OW20166   2.182   6.716   8.791
 6090SOL    HW120167   2.231   6.658   8.732
 6090SOL    HW220168   2.235   6.795   8.795
 6091SOL     OW20169  11.406  10.789  14.175
 6091SOL    HW120170  11.426  10.812  14.266
 6091SOL    HW220171  11.317  10.754  14.179
 6092SOL     OW20172   3.334   0.928   6.207
 6092SOL    HW120173   3.363   0.850   6.159
 6092SOL    HW220174   3.285   0.893   6.281
 6093SOL     OW20175  10.994   1.647  12.645
 6093SOL    HW120176  10.911   1.674  12.684
 6093SOL    HW220177  10.972   1.628  12.554
 6094SOL     OW20178   8.380  12.212   7.313
 6094SOL    HW120179   8.391  12.307   7.301
 6094SOL    HW220180   8.313  12.188   7.248
 6095SOL     OW20181   3.407   2.695  11.321
 6095SOL    HW120182   3.398   2.682  11.415
 6095SOL    HW220183   3.350   2.770  11.302
 6096SOL     OW20184   1.418   7.505   6.668
 6096SOL    HW120185   1.420   7.435   6.734
 6096SOL    HW220186   1.510   7.526   6.653
 6097SOL     OW20187   5.562   2.730  12.813
 6097SOL    HW120188   5.501   2.793  12.852
 6097SOL    HW220189   5.508   2.677  12.755
 6098SOL     OW20190   1.425  11.925   5.579
 6098SOL    HW120191   1.460  12.013   5.564
 6098SOL    HW220192   1.428  11.915   5.674
 6099SOL     OW20193   2.914   9.785   0.389
 6099SOL    HW120194   2.924   9.800   0.483
 6099SOL    HW220195   2.932   9.870   0.348
 6100SOL     OW20196  14.618  11.877  11.470
 6100SOL    HW120197  14.580  11.960  11.440
 6100SOL    HW220198  14.627  11.825  11.390
 6101SOL     OW20199  14.530  12.485  14.439
 6101SOL    HW120200  14.603  12.521  14.490
 6101SOL    HW220201  14.508  12.554  14.377
 6102SOL     OW20202  14.522  11.709   9.770
 6102SOL    HW120203  14.460  11.776   9.800
 6102SOL    HW220204  14.580  11.696   9.845
 6103SOL     OW20205   2.232   8.634  10.726
 6103SOL    HW120206   2.277   8.595  10.801
 6103SOL    HW220207   2.175   8.701  10.764
 6104SOL     OW20208   8.121  10.020   0.913
 6104SOL    HW120209   8.117   9.979   0.826
 6104SOL    HW220210   8.075   9.958   0.970
 6105SOL     OW20211   0.576  14.286  12.420
 6105SOL    HW120212   0.494  14.322  12.454
 6105SOL    HW220213   0.550  14.212  12.365
 6106SOL     OW20214   6.586   1.501   7.399
 6106SOL    HW120215   6.674   1.535   7.383
 6106SOL    HW220216   6.600   1.422   7.451
 6107SOL     OW20217  13.174  13.040   7.897
 6107SOL    HW120218  13.243  13.071   7.838
 6107SOL    HW220219  13.210  13.053   7.985
 6108SOL     OW20220  13.460   0.038  11.509
 6108SOL    HW120221  13.407  14.830  11.529
 6108SOL    HW220222  13.461   0.042  11.414
 6109SOL     OW20223   5.403  11.812   3.911
 6109SOL    HW120224   5.490  11.777   3.888
 6109SOL    HW220225   5.366  11.840   3.828
 6110SOL     OW20226   9.364   6.112   0.774
 6110SOL    HW120227   9.368   6.148   0.863
 6110SOL    HW220228   9.282   6.064   0.772
 6111SOL     OW20229  13.475  12.473   1.360
 6111SOL    HW120230  13.405  12.502   1.418
 6111SOL    HW220231  13.471  12.532   1.285
 6112SOL     OW20232   2.737   4.509   8.897
 6112SOL    HW120233   2.700   4.427   8.931
 6112SOL    HW220234   2.808   4.480   8.839
 6113SOL     OW20235   4.643   2.225   3.911
 6113SOL    HW120236   4.645   2.303   3.966
 6113SOL    HW220237   4.561   2.182   3.934
 6114SOL     OW20238  10.606  11.529   9.156
 6114SOL    HW120239  10.608  11.600   9.092
 6114SOL    HW220240  10.515  11.498   9.155
 6115SOL     OW20241  12.561  12.008   0.542
 6115SOL    HW120242  12.523  11.969   0.621
 6115SOL    HW220243  12.569  11.934   0.481
 6116SOL     OW20244   3.723   3.859   1.648
 6116SOL    HW120245   3.661   3.834   1.716
 6116SOL    HW220246   3.751   3.776   1.609
 6117SOL     OW20247   1.566  10.127   4.527
 6117SOL    HW120248   1.614  10.052   4.561
 6117SOL    HW220249   1.483  10.126   4.575
 6118SOL     OW20250   5.819   0.106   6.679
 6118SOL    HW120251   5.834   0.015   6.653
 6118SOL    HW220252   5.884   0.156   6.628
 6119SOL     OW20253   3.013  11.724   1.343
 6119SOL    HW120254   2.934  11.672   1.360
 6119SOL    HW220255   2.985  11.815   1.357
 6120SOL     OW20256   5.366   5.065   8.297
 6120SOL    HW120257   5.305   5.117   8.245
 6120SOL    HW220258   5.436   5.126   8.319
 6121SOL     OW20259  11.068   1.738  10.087
 6121SOL    HW120260  11.100   1.769  10.171
 6121SOL    HW220261  11.038   1.817  10.042
 6122SOL     OW20262  10.961  12.320   1.803
 6122SOL    HW120263  10.929  12.367   1.880
 6122SOL    HW220264  11.034  12.373   1.770
 6123SOL     OW20265   1.032  10.214   6.720
 6123SOL    HW120266   0.988  10.168   6.649
 6123SOL    HW220267   1.122  10.227   6.689
 6124SOL     OW20268  11.222   8.427   0.663
 6124SOL    HW120269  11.306   8.407   0.704
 6124SOL    HW220270  11.244   8.450   0.572
 6125SOL     OW20271   2.137  13.242  11.187
 6125SOL    HW120272   2.146  13.201  11.273
 6125SOL    HW220273   2.199  13.314  11.188
 6126SOL     OW20274   7.043  11.747   8.039
 6126SOL    HW120275   7.132  11.780   8.054
 6126SOL    HW220276   6.995  11.821   8.003
 6127SOL     OW20277  11.611   4.873   4.351
 6127SOL    HW120278  11.588   4.782   4.369
 6127SOL    HW220279  11.552   4.900   4.281
 6128SOL     OW20280   0.748   3.785  11.115
 6128SOL    HW120281   0.812   3.856  11.115
 6128SOL    HW220282   0.692   3.802  11.190
 6129SOL     OW20283   6.668   6.553   1.645
 6129SOL    HW120284   6.708   6.594   1.722
 6129SOL    HW220285   6.741   6.540   1.584
 6130SOL     OW20286  10.269  13.004   5.774
 6130SOL    HW120287  10.309  13.081   5.733
 6130SOL    HW220288  10.186  12.993   5.726
 6131SOL     OW20289  11.593   2.544   9.079
 6131SOL    HW120290  11.684   2.518   9.074
 6131SOL    HW220291  11.544   2.464   9.059
 6132SOL     OW20292  10.352   6.786   6.716
 6132SOL    HW120293  10.350   6.851   6.786
 6132SOL    HW220294  10.334   6.702   6.759
 6133SOL     OW20295   6.429   6.420  11.237
 6133SOL    HW120296   6.339   6.388  11.236
 6133SOL    HW220297   6.481   6.349  11.199
 6134SOL     OW20298   3.723   3.627  10.003
 6134SOL    HW120299   3.676   3.705   9.975
 6134SOL    HW220300   3.684   3.556   9.953
 6135SOL     OW20301   4.001   0.181  12.012
 6135SOL    HW120302   4.045   0.098  12.027
 6135SOL    HW220303   3.919   0.157  11.968
 6136SOL     OW20304   8.363   9.656  12.680
 6136SOL    HW120305   8.312   9.735  12.698
 6136SOL    HW220306   8.443   9.689  12.637
 6137SOL     OW20307   1.230  11.542   6.990
 6137SOL    HW120308   1.297  11.602   7.021
 6137SOL    HW220309   1.147  11.579   7.022
 6138SOL     OW20310  11.947  12.803  13.495
 6138SOL    HW120311  11.966  12.718  13.455
 6138SOL    HW220312  12.032  12.846  13.502
 6139SOL     OW20313   7.284   2.379  14.834
 6139SOL    HW120314   7.326   2.303   0.004
 6139SOL    HW220315   7.209   2.343  14.786
 6140SOL     OW20316   7.867   0.320   2.353
 6140SOL    HW120317   7.838   0.288   2.438
 6140SOL    HW220318   7.796   0.376   2.323
 6141SOL     OW20319   8.421   3.700   1.194
 6141SOL    HW120320   8.365   3.633   1.154
 6141SOL    HW220321   8.369   3.733   1.268
 6142SOL     OW20322   8.029   9.219   6.076
 6142SOL    HW120323   8.020   9.134   6.033
 6142SOL    HW220324   8.040   9.199   6.168
 6143SOL     OW20325   4.900  14.687   4.117
 6143SOL    HW120326   4.947  14.636   4.051
 6143SOL    HW220327   4.841  14.624   4.158
 6144SOL     OW20328  11.113  13.070   4.986
 6144SOL    HW120329  11.146  13.094   5.073
 6144SOL    HW220330  11.097  12.976   4.992
 6145SOL     OW20331   7.507  11.819   2.689
 6145SOL    HW120332   7.479  11.830   2.599
 6145SOL    HW220333   7.546  11.731   2.691
 6146SOL     OW20334   1.198   0.997   3.448
 6146SOL    HW120335   1.283   0.955   3.432
 6146SOL    HW220336   1.192   1.065   3.382
 6147SOL     OW20337  12.382   5.339   5.201
 6147SOL    HW120338  12.462   5.291   5.218
 6147SOL    HW220339  12.410   5.421   5.161
 6148SOL     OW20340   7.857   2.550  12.957
 6148SOL    HW120341   7.804   2.564  12.878
 6148SOL    HW220342   7.886   2.638  12.983
 6149SOL     OW20343  14.238   6.068  10.317
 6149SOL    HW120344  14.267   6.153  10.349
 6149SOL    HW220345  14.161   6.047  10.371
 6150SOL     OW20346   2.840   0.641   4.479
 6150SOL    HW120347   2.815   0.570   4.420
 6150SOL    HW220348   2.775   0.709   4.465
 6151SOL     OW20349   1.221  13.134  12.875
 6151SOL    HW120350   1.286  13.200  12.898
 6151SOL    HW220351   1.162  13.178  12.813
 6152SOL     OW20352  13.105   7.816   3.413
 6152SOL    HW120353  13.064   7.892   3.453
 6152SOL    HW220354  13.120   7.841   3.322
 6153SOL     OW20355   5.110   3.980  12.873
 6153SOL    HW120356   5.172   4.008  12.805
 6153SOL    HW220357   5.025   3.982  12.831
 6154SOL     OW20358  10.116   0.280   6.788
 6154SOL    HW120359  10.058   0.230   6.731
 6154SOL    HW220360  10.158   0.344   6.730
 6155SOL     OW20361   6.816   0.338   7.407
 6155SOL    HW120362   6.821   0.355   7.313
 6155SOL    HW220363   6.866   0.409   7.447
 6156SOL     OW20364   7.830   4.788  11.009
 6156SOL    HW120365   7.808   4.772  11.101
 6156SOL    HW220366   7.854   4.881  11.007
 6157SOL     OW20367   4.279   7.932  12.524
 6157SOL    HW120368   4.299   7.955  12.433
 6157SOL    HW220369   4.326   7.996  12.577
 6158SOL     OW20370   8.324   9.427   7.422
 6158SOL    HW120371   8.265   9.473   7.363
 6158SOL    HW220372   8.379   9.496   7.460
 6159SOL     OW20373  12.016   3.617  13.337
 6159SOL    HW120374  12.070   3.697  13.345
 6159SOL    HW220375  12.067   3.561  13.278
 6160SOL     OW20376  11.075   9.637   8.266
 6160SOL    HW120377  11.062   9.548   8.234
 6160SOL    HW220378  11.056   9.632   8.360
 6161SOL     OW20379   0.790   3.982   8.247
 6161SOL    HW120380   0.777   3.897   8.290
 6161SOL    HW220381   0.770   3.964   8.155
 6162SOL     OW20382   1.343   2.329   6.655
 6162SOL    HW120383   1.250   2.327   6.633
 6162SOL    HW220384   1.364   2.239   6.679
 6163SOL     OW20385   4.935   5.256   6.909
 6163SOL    HW120386   5.020   5.294   6.928
 6163SOL    HW220387   4.878   5.331   6.893
 6164SOL     OW20388   4.441   4.583   9.815
 6164SOL    HW120389   4.502   4.646   9.855
 6164SOL    HW220390   4.476   4.568   9.727
 6165SOL     OW20391   6.672   0.071  14.588
 6165SOL    HW120392   6.608   0.046  14.522
 6165SOL    HW220393   6.676   0.166  14.583
 6166SOL     OW20394   9.591   1.173  13.041
 6166SOL    HW120395   9.629   1.124  13.114
 6166SOL    HW220396   9.507   1.130  13.024
 6167SOL     OW20397   0.308  11.795   0.244
 6167SOL    HW120398   0.239  11.823   0.303
 6167SOL    HW220399   0.320  11.869   0.184
 6168SOL     OW20400  13.332   2.781   6.559
 6168SOL    HW120401  13.305   2.706   6.613
 6168SOL    HW220402  13.270   2.782   6.486
 6169SOL     OW20403  10.200  11.338   3.576
 6169SOL    HW120404  10.206  11.403   3.506
 6169SOL    HW220405  10.119  11.290   3.557
 6170SOL     OW20406   0.093   3.562  12.440
 6170SOL    HW120407   0.060   3.598  12.358
 6170SOL    HW220408   0.023   3.505  12.472
 6171SOL     OW20409  12.141  11.228  11.022
 6171SOL    HW120410  12.224  11.227  10.975
 6171SOL    HW220411  12.098  11.310  10.996
 6172SOL     OW20412   9.897   2.885   3.665
 6172SOL    HW120413   9.963   2.878   3.597
 6172SOL    HW220414   9.905   2.975   3.698
 6173SOL     OW20415   7.499   3.037   4.295
 6173SOL    HW120416   7.585   3.014   4.329
 6173SOL    HW220417   7.512   3.052   4.202
 6174SOL     OW20418   6.649   9.742  13.079
 6174SOL    HW120419   6.708   9.817  13.079
 6174SOL    HW220420   6.588   9.759  13.007
 6175SOL     OW20421   6.134  11.882   7.030
 6175SOL    HW120422   6.125  11.826   6.952
 6175SOL    HW220423   6.070  11.952   7.016
 6176SOL     OW20424   6.872  11.024  10.025
 6176SOL    HW120425   6.936  11.001   9.958
 6176SOL    HW220426   6.812  11.084   9.981
 6177SOL     OW20427   4.398   7.345   5.514
 6177SOL    HW120428   4.466   7.311   5.456
 6177SOL    HW220429   4.445   7.380   5.590
 6178SOL     OW20430   8.047   6.274   0.139
 6178SOL    HW120431   8.070   6.291   0.048
 6178SOL    HW220432   8.069   6.182   0.153
 6179SOL     OW20433  14.529   1.310  13.242
 6179SOL    HW120434  14.517   1.356  13.325
 6179SOL    HW220435  14.444   1.313  13.200
 6180SOL     OW20436   2.522   5.312   0.370
 6180SOL    HW120437   2.492   5.314   0.461
 6180SOL    HW220438   2.501   5.399   0.336
 6181SOL     OW20439   1.849  13.690   8.472
 6181SOL    HW120440   1.862  13.691   8.567
 6181SOL    HW220441   1.924  13.738   8.437
 6182SOL     OW20442  10.524  13.422   1.411
 6182SOL    HW120443  10.523  13.487   1.341
 6182SOL    HW220444  10.580  13.461   1.478
 6183SOL     OW20445   9.232   7.913  12.275
 6183SOL    HW120446   9.263   7.915  12.365
 6183SOL    HW220447   9.137   7.899  12.283
 6184SOL     OW20448  10.286   6.561   6.194
 6184SOL    HW120449  10.346   6.572   6.120
 6184SOL    HW220450  10.264   6.650   6.221
 6185SOL     OW20451   0.085  14.463   4.536
 6185SOL    HW120452   0.164  14.506   4.503
 6185SOL    HW220453   0.096  14.463   4.631
 6186SOL     OW20454   1.859  13.449   4.382
 6186SOL    HW120455   1.919  13.441   4.457
 6186SOL    HW220456   1.775  13.473   4.422
 6187SOL     OW20457   0.224   6.484   0.154
 6187SOL    HW120458   0.306   6.467   0.200
 6187SOL    HW220459   0.170   6.532   0.218
 6188SOL     OW20460   0.310   2.139   2.714
 6188SOL    HW120461   0.382   2.155   2.652
 6188SOL    HW220462   0.267   2.060   2.681
 6189SOL     OW20463   1.949   6.935  13.435
 6189SOL    HW120464   1.880   6.995  13.465
 6189SOL    HW220465   2.026   6.959  13.486
 6190SOL     OW20466   5.954   5.688   4.446
 6190SOL    HW120467   5.918   5.633   4.376
 6190SOL    HW220468   5.879   5.713   4.498
 6191SOL     OW20469   1.898   4.276  14.510
 6191SOL    HW120470   1.940   4.362  14.502
 6191SOL    HW220471   1.848   4.282  14.591
 6192SOL     OW20472   4.266   9.962   9.353
 6192SOL    HW120473   4.219   9.899   9.407
 6192SOL    HW220474   4.207   9.978   9.279
 6193SOL     OW20475   0.429   1.506  11.565
 6193SOL    HW120476   0.408   1.413  11.568
 6193SOL    HW220477   0.369   1.542  11.500
 6194SOL     OW20478   2.208  12.414  13.522
 6194SOL    HW120479   2.266  12.354  13.570
 6194SOL    HW220480   2.262  12.492  13.506
 6195SOL     OW20481  11.317   3.902   3.146
 6195SOL    HW120482  11.374   3.839   3.189
 6195SOL    HW220483  11.238   3.903   3.199
 6196SOL     OW20484  13.585   9.377   1.088
 6196SOL    HW120485  13.540   9.392   1.171
 6196SOL    HW220486  13.552   9.446   1.030
 6197SOL     OW20487   4.979   2.586   0.539
 6197SOL    HW120488   4.982   2.644   0.463
 6197SOL    HW220489   4.901   2.613   0.587
 6198SOL     OW20490   2.404   2.085   6.565
 6198SOL    HW120491   2.454   2.008   6.591
 6198SOL    HW220492   2.442   2.111   6.481
 6199SOL     OW20493   9.972   8.211  13.085
 6199SOL    HW120494   9.925   8.139  13.128
 6199SOL    HW220495  10.018   8.255  13.156
 6200SOL     OW20496   4.336   1.002   1.426
 6200SOL    HW120497   4.304   1.031   1.340
 6200SOL    HW220498   4.268   0.945   1.459
 6201SOL     OW20499   6.019  11.447   3.130
 6201SOL    HW120500   5.976  11.365   3.152
 6201SOL    HW220501   6.112  11.425   3.125
 6202SOL     OW20502   1.959   9.930   3.301
 6202SOL    HW120503   1.960   9.906   3.394
 6202SOL    HW220504   2.045   9.904   3.269
 6203SOL     OW20505   3.447   3.061   6.705
 6203SOL    HW120506   3.451   3.152   6.733
 6203SOL    HW220507   3.354   3.040   6.702
 6204SOL     OW20508   5.048   2.099   0.193
 6204SOL    HW120509   4.967   2.125   0.237
 6204SOL    HW220510   5.117   2.146   0.240
 6205SOL     OW20511   3.013  13.631   1.324
 6205SOL    HW120512   2.992  13.716   1.364
 6205SOL    HW220513   3.087  13.599   1.375
 6206SOL     OW20514  10.716   8.742   7.688
 6206SOL    HW120515  10.730   8.647   7.690
 6206SOL    HW220516  10.644   8.758   7.749
 6207SOL     OW20517   7.682  10.169   1.131
 6207SOL    HW120518   7.689  10.075   1.110
 6207SOL    HW220519   7.726  10.178   1.215
 6208SOL     OW20520   0.041  10.700   6.570
 6208SOL    HW120521  14.815  10.699   6.568
 6208SOL    HW220522   0.065  10.792   6.576
 6209SOL     OW20523   5.073  13.764   2.770
 6209SOL    HW120524   5.049  13.737   2.859
 6209SOL    HW220525   5.053  13.687   2.716
 6210SOL     OW20526   4.468   3.313  11.604
 6210SOL    HW120527   4.481   3.364  11.524
 6210SOL    HW220528   4.431   3.376  11.666
 6211SOL     OW20529   3.614   7.739  13.244
 6211SOL    HW120530   3.571   7.731  13.159
 6211SOL    HW220531   3.548   7.711  13.307
 6212SOL     OW20532   6.540  13.553   8.826
 6212SOL    HW120533   6.453  13.583   8.797
 6212SOL    HW220534   6.590  13.544   8.745
 6213SOL     OW20535  10.539   4.680  11.074
 6213SOL    HW120536  10.551   4.772  11.099
 6213SOL    HW220537  10.527   4.635  11.158
 6214SOL     OW20538   3.128   8.416   2.534
 6214SOL    HW120539   3.086   8.330   2.533
 6214SOL    HW220540   3.147   8.434   2.442
 6215SOL     OW20541  12.448  12.744   2.553
 6215SOL    HW120542  12.535  12.772   2.524
 6215SOL    HW220543  12.422  12.809   2.619
 6216SOL     OW20544  14.144  14.708  11.733
 6216SOL    HW120545  14.213  14.742  11.676
 6216SOL    HW220546  14.127  14.779  11.794
 6217SOL     OW20547   3.728  13.880   0.691
 6217SOL    HW120548   3.774  13.872   0.607
 6217SOL    HW220549   3.753  13.802   0.739
 6218SOL     OW20550   3.118  12.944  13.867
 6218SOL    HW120551   3.046  12.997  13.901
 6218SOL    HW220552   3.147  12.990  13.788
 6219SOL     OW20553   7.582   9.859  11.798
 6219SOL    HW120554   7.639   9.868  11.722
 6219SOL    HW220555   7.624   9.910  11.867
 6220SOL     OW20556   7.482  14.834   1.637
 6220SOL    HW120557   7.504   0.045   1.683
 6220SOL    HW220558   7.435  14.863   1.559
 6221SOL     OW20559   2.271   1.395  12.187
 6221SOL    HW120560   2.307   1.379  12.274
 6221SOL    HW220561   2.198   1.456  12.202
 6222SOL     OW20562   4.815   4.555   3.445
 6222SOL    HW120563   4.891   4.536   3.391
 6222SOL    HW220564   4.762   4.615   3.392
 6223SOL     OW20565   0.603   7.673  11.298
 6223SOL    HW120566   0.535   7.611  11.323
 6223SOL    HW220567   0.644   7.699  11.380
 6224SOL     OW20568   4.567  12.219   4.830
 6224SOL    HW120569   4.619  12.147   4.866
 6224SOL    HW220570   4.511  12.178   4.764
 6225SOL     OW20571  13.166   7.738  14.416
 6225SOL    HW120572  13.158   7.646  14.444
 6225SOL    HW220573  13.183   7.733  14.322
 6226SOL     OW20574  10.481   8.162   8.704
 6226SOL    HW120575  10.510   8.080   8.664
 6226SOL    HW220576  10.557   8.191   8.755
 6227SOL     OW20577   1.224  13.199   9.187
 6227SOL    HW120578   1.189  13.254   9.256
 6227SOL    HW220579   1.301  13.245   9.155
 6228SOL     OW20580   7.848   7.885  13.484
 6228SOL    HW120581   7.828   7.906  13.575
 6228SOL    HW220582   7.922   7.942  13.462
 6229SOL     OW20583  13.032   3.856   5.828
 6229SOL    HW120584  12.938   3.849   5.843
 6229SOL    HW220585  13.040   3.892   5.739
 6230SOL     OW20586  12.655  12.566   7.658
 6230SOL    HW120587  12.561  12.580   7.646
 6230SOL    HW220588  12.693  12.654   7.652
 6231SOL     OW20589   6.446   7.096   3.920
 6231SOL    HW120590   6.426   7.003   3.922
 6231SOL    HW220591   6.523   7.103   3.863
 6232SOL     OW20592  10.086   6.772   2.352
 6232SOL    HW120593  10.022   6.706   2.377
 6232SOL    HW220594  10.086   6.835   2.424
 6233SOL     OW20595   2.794   0.663   1.442
 6233SOL    HW120596   2.844   0.662   1.361
 6233SOL    HW220597   2.828   0.589   1.492
 6234SOL     OW20598  12.724   8.873   4.941
 6234SOL    HW120599  12.742   8.957   4.897
 6234SOL    HW220600  12.639   8.847   4.906
 6235SOL     OW20601  10.017   8.033   9.265
 6235SOL    HW120602   9.962   8.059   9.191
 6235SOL    HW220603  10.022   7.938   9.260
 6236SOL     OW20604   6.936   2.954   1.635
 6236SOL    HW120605   6.960   3.033   1.586
 6236SOL    HW220606   6.863   2.982   1.690
 6237SOL     OW20607   2.889   1.740   6.748
 6237SOL    HW120608   2.958   1.786   6.794
 6237SOL    HW220609   2.859   1.801   6.681
 6238SOL     OW20610   7.352  12.897   9.336
 6238SOL    HW120611   7.383  12.819   9.382
 6238SOL    HW220612   7.322  12.864   9.251
 6239SOL     OW20613   4.156   1.012   2.843
 6239SOL    HW120614   4.205   1.077   2.792
 6239SOL    HW220615   4.221   0.947   2.870
 6240SOL     OW20616   3.654   3.096   9.403
 6240SOL    HW120617   3.631   3.133   9.318
 6240SOL    HW220618   3.604   3.014   9.408
 6241SOL     OW20619   2.820   2.295  12.481
 6241SOL    HW120620   2.848   2.369  12.535
 6241SOL    HW220621   2.732   2.320  12.451
 6242SOL     OW20622  10.669   3.532   3.379
 6242SOL    HW120623  10.704   3.449   3.348
 6242SOL    HW220624  10.741   3.594   3.367
 6243SOL     OW20625   8.118   3.371  10.553
 6243SOL    HW120626   8.093   3.446  10.607
 6243SOL    HW220627   8.043   3.357  10.495
 6244SOL     OW20628  13.909  12.238   6.236
 6244SOL    HW120629  14.003  12.244   6.251
 6244SOL    HW220630  13.871  12.305   6.293
 6245SOL     OW20631  13.029   5.332  10.364
 6245SOL    HW120632  13.115   5.293  10.347
 6245SOL    HW220633  13.044   5.392  10.437
 6246SOL     OW20634   5.748   4.186  13.773
 6246SOL    HW120635   5.670   4.199  13.719
 6246SOL    HW220636   5.805   4.130  13.721
 6247SOL     OW20637  14.215   5.013  13.598
 6247SOL    HW120638  14.297   4.966  13.584
 6247SOL    HW220639  14.243   5.101  13.626
 6248SOL     OW20640   8.573  12.993   3.702
 6248SOL    HW120641   8.520  13.047   3.643
 6248SOL    HW220642   8.548  12.903   3.682
 6249SOL     OW20643   6.258  12.556   1.242
 6249SOL    HW120644   6.269  12.651   1.247
 6249SOL    HW220645   6.163  12.543   1.235
 6250SOL     OW20646   8.548   1.267   8.829
 6250SOL    HW120647   8.631   1.302   8.796
 6250SOL    HW220648   8.481   1.309   8.774
 6251SOL     OW20649   0.056  13.725   2.979
 6251SOL    HW120650   0.030  13.704   3.069
 6251SOL    HW220651  14.868  13.797   2.953
 6252SOL     OW20652  13.869   4.846  10.392
 6252SOL    HW120653  13.783   4.873  10.362
 6252SOL    HW220654  13.861   4.840  10.487
 6253SOL     OW20655   5.846   0.043   7.286
 6253SOL    HW120656   5.879   0.121   7.242
 6253SOL    HW220657   5.813   0.076   7.370
 6254SOL     OW20658  10.465   6.855   1.404
 6254SOL    HW120659  10.452   6.876   1.496
 6254SOL    HW220660  10.432   6.766   1.394
 6255SOL     OW20661   5.507  14.631   2.613
 6255SOL    HW120662   5.437  14.568   2.627
 6255SOL    HW220663   5.513  14.641   2.518
 6256SOL     OW20664  11.662   1.804   0.206
 6256SOL    HW120665  11.666   1.871   0.138
 6256SOL    HW220666  11.582   1.825   0.256
 6257SOL     OW20667  14.438   1.242   6.069
 6257SOL    HW120668  14.383   1.213   6.142
 6257SOL    HW220669  14.381   1.234   5.992
 6258SOL     OW20670   8.703   1.884   9.485
 6258SOL    HW120671   8.714   1.970   9.445
 6258SOL    HW220672   8.628   1.895   9.544
 6259SOL     OW20673  13.708   0.646  11.092
 6259SOL    HW120674  13.763   0.697  11.033
 6259SOL    HW220675  13.659   0.586  11.036
 6260SOL     OW20676  10.774   1.214   5.701
 6260SOL    HW120677  10.754   1.127   5.667
 6260SOL    HW220678  10.759   1.208   5.795
 6261SOL     OW20679   3.056   4.759  11.331
 6261SOL    HW120680   3.045   4.674  11.373
 6261SOL    HW220681   2.967   4.787  11.311
 6262SOL     OW20682   6.642   3.778   3.716
 6262SOL    HW120683   6.616   3.869   3.731
 6262SOL    HW220684   6.559   3.732   3.704
 6263SOL     OW20685  14.218  12.998   1.220
 6263SOL    HW120686  14.132  12.955   1.215
 6263SOL    HW220687  14.200  13.081   1.264
 6264SOL     OW20688  13.268   7.414  12.262
 6264SOL    HW120689  13.266   7.427  12.167
 6264SOL    HW220690  13.209   7.481  12.296
 6265SOL     OW20691   5.749   6.092   1.850
 6265SOL    HW120692   5.806   6.085   1.773
 6265SOL    HW220693   5.803   6.136   1.916
 6266SOL     OW20694   0.967   5.463   3.133
 6266SOL    HW120695   1.012   5.403   3.192
 6266SOL    HW220696   0.874   5.443   3.145
 6267SOL     OW20697  14.681  13.728   4.694
 6267SOL    HW120698  14.677  13.823   4.695
 6267SOL    HW220699  14.619  13.702   4.625
 6268SOL     OW20700   8.516   1.486  11.494
 6268SOL    HW120701   8.608   1.457  11.499
 6268SOL    HW220702   8.487   1.488  11.585
 6269SOL     OW20703   6.555   3.770  14.787
 6269SOL    HW120704   6.501   3.698  14.752
 6269SOL    HW220705   6.496   3.846  14.787
 6270SOL     OW20706   5.232   0.906   1.964
 6270SOL    HW120707   5.201   0.991   1.995
 6270SOL    HW220708   5.239   0.853   2.043
 6271SOL     OW20709  13.907  14.357   6.348
 6271SOL    HW120710  13.963  14.432   6.368
 6271SOL    HW220711  13.865  14.335   6.431
 6272SOL     OW20712   9.003  10.644   9.086
 6272SOL    HW120713   8.943  10.711   9.052
 6272SOL    HW220714   8.980  10.566   9.036
 6273SOL     OW20715   1.371   9.742   9.291
 6273SOL    HW120716   1.447   9.717   9.238
 6273SOL    HW220717   1.320   9.662   9.299
 6274SOL     OW20718   4.002   4.399   9.682
 6274SOL    HW120719   4.086   4.430   9.648
 6274SOL    HW220720   3.974   4.333   9.619
 6275SOL     OW20721   8.086  13.066  11.012
 6275SOL    HW120722   8.107  13.016  11.091
 6275SOL    HW220723   7.991  13.073  11.012
 6276SOL     OW20724  12.261   4.418   3.926
 6276SOL    HW120725  12.263   4.440   3.833
 6276SOL    HW220726  12.195   4.350   3.933
 6277SOL     OW20727   0.106  12.290  10.013
 6277SOL    HW120728   0.100  12.333   9.928
 6277SOL    HW220729   0.180  12.333  10.057
 6278SOL     OW20730   7.914   6.940   7.323
 6278SOL    HW120731   8.008   6.950   7.332
 6278SOL    HW220732   7.886   7.018   7.275
 6279SOL     OW20733  11.474  14.265  14.039
 6279SOL    HW120734  11.418  14.189  14.025
 6279SOL    HW220735  11.413  14.339  14.041
 6280SOL     OW20736   4.651  12.491   9.393
 6280SOL    HW120737   4.658  12.408   9.346
 6280SOL    HW220738   4.667  12.558   9.326
 6281SOL     OW20739   3.243   3.543  14.006
 6281SOL    HW120740   3.327   3.580  13.981
 6281SOL    HW220741   3.207   3.605  14.069
 6282SOL     OW20742  14.558   8.620   1.077
 6282SOL    HW120743  14.548   8.537   1.124
 6282SOL    HW220744  14.620   8.671   1.130
 6283SOL     OW20745   0.468   1.528   9.927
 6283SOL    HW120746   0.445   1.615   9.895
 6283SOL    HW220747   0.437   1.468   9.859
 6284SOL     OW20748   7.417   7.792   2.707
 6284SOL    HW120749   7.457   7.865   2.660
 6284SOL    HW220750   7.472   7.781   2.784
 6285SOL     OW20751   4.887   5.670   1.987
 6285SOL    HW120752   4.854   5.702   1.904
 6285SOL    HW220753   4.846   5.585   1.999
 6286SOL     OW20754   9.898   9.832   3.662
 6286SOL    HW120755   9.881   9.829   3.756
 6286SOL    HW220756   9.814   9.858   3.623
 6287SOL     OW20757  14.156  12.433   4.287
 6287SOL    HW120758  14.219  12.451   4.356
 6287SOL    HW220759  14.176  12.344   4.258
 6288SOL     OW20760   4.508   5.093   7.111
 6288SOL    HW120761   4.600   5.107   7.090
 6288SOL    HW220762   4.484   5.014   7.062
 6289SOL     OW20763   6.906   3.999   2.703
 6289SOL    HW120764   6.950   4.015   2.619
 6289SOL    HW220765   6.816   4.028   2.689
 6290SOL     OW20766   6.288  11.517   8.116
 6290SOL    HW120767   6.272  11.422   8.110
 6290SOL    HW220768   6.347  11.527   8.190
 6291SOL     OW20769   7.032   7.677  12.613
 6291SOL    HW120770   7.020   7.639  12.525
 6291SOL    HW220771   6.987   7.761  12.609
 6292SOL     OW20772  10.881   3.009  12.556
 6292SOL    HW120773  10.786   3.001  12.566
 6292SOL    HW220774  10.910   3.046  12.640
 6293SOL     OW20775   1.592   3.258   7.287
 6293SOL    HW120776   1.560   3.169   7.304
 6293SOL    HW220777   1.641   3.251   7.205
 6294SOL     OW20778  10.915   5.552  11.747
 6294SOL    HW120779  10.876   5.581  11.830
 6294SOL    HW220780  10.846   5.566  11.682
 6295SOL     OW20781   3.221   2.347   7.649
 6295SOL    HW120782   3.238   2.277   7.586
 6295SOL    HW220783   3.296   2.406   7.641
 6296SOL     OW20784  10.568   7.758  13.253
 6296SOL    HW120785  10.533   7.754  13.165
 6296SOL    HW220786  10.555   7.670  13.288
 6297SOL     OW20787   8.974  12.117  11.442
 6297SOL    HW120788   8.952  12.162  11.523
 6297SOL    HW220789   9.069  12.108  11.444
 6298SOL     OW20790   5.714   4.327  10.852
 6298SOL    HW120791   5.622   4.341  10.874
 6298SOL    HW220792   5.713   4.306  10.758
 6299SOL     OW20793   3.125   1.102  11.279
 6299SOL    HW120794   3.181   1.040  11.325
 6299SOL    HW220795   3.178   1.131  11.205
 6300SOL     OW20796  10.729   6.375   6.711
 6300SOL    HW120797  10.813   6.374   6.757
 6300SOL    HW220798  10.704   6.282   6.705
 6301SOL     OW20799   3.877   1.301   8.311
 6301SOL    HW120800   3.852   1.209   8.323
 6301SOL    HW220801   3.796   1.350   8.319
 6302SOL     OW20802  13.891   1.311   8.563
 6302SOL    HW120803  13.897   1.290   8.656
 6302SOL    HW220804  13.953   1.251   8.521
 6303SOL     OW20805   4.369   2.341  12.436
 6303SOL    HW120806   4.437   2.274  12.440
 6303SOL    HW220807   4.332   2.334  12.348
 6304SOL     OW20808   5.293  11.967   3.011
 6304SOL    HW120809   5.377  11.947   2.971
 6304SOL    HW220810   5.310  12.048   3.060
 6305SOL     OW20811   3.820   1.387  13.567
 6305SOL    HW120812   3.816   1.419  13.476
 6305SOL    HW220813   3.913   1.390  13.589
 6306SOL     OW20814   5.905   6.205   2.017
 6306SOL    HW120815   5.968   6.142   2.052
 6306SOL    HW220816   5.936   6.290   2.046
 6307SOL     OW20817  11.576   6.050   1.184
 6307SOL    HW120818  11.609   6.132   1.149
 6307SOL    HW220819  11.630   6.032   1.261
 6308SOL     OW20820   7.144   5.172  11.119
 6308SOL    HW120821   7.188   5.088  11.105
 6308SOL    HW220822   7.175   5.228  11.047
 6309SOL     OW20823  12.848   8.531   4.014
 6309SOL    HW120824  12.834   8.497   3.925
 6309SOL    HW220825  12.937   8.504   4.036
 6310SOL     OW20826   8.145   9.821   4.103
 6310SOL    HW120827   8.055   9.818   4.135
 6310SOL    HW220828   8.194   9.766   4.164
 6311SOL     OW20829  11.239   5.189   7.809
 6311SOL    HW120830  11.173   5.219   7.746
 6311SOL    HW220831  11.238   5.256   7.877
 6312SOL     OW20832   2.150   5.039   8.956
 6312SOL    HW120833   2.119   5.055   9.045
 6312SOL    HW220834   2.071   5.042   8.902
 6313SOL     OW20835  11.381   1.430  13.244
 6313SOL    HW120836  11.393   1.524  13.230
 6313SOL    HW220837  11.449   1.405  13.306
 6314SOL     OW20838   2.533   6.323   2.759
 6314SOL    HW120839   2.455   6.347   2.808
 6314SOL    HW220840   2.570   6.249   2.807
 6315SOL     OW20841   4.016   4.882  14.209
 6315SOL    HW120842   3.932   4.891  14.163
 6315SOL    HW220843   4.044   4.971  14.226
 6316SOL     OW20844   0.502  13.151   8.147
 6316SOL    HW120845   0.531  13.149   8.238
 6316SOL    HW220846   0.570  13.199   8.100
 6317SOL     OW20847   0.660   5.901  10.479
 6317SOL    HW120848   0.579   5.877  10.523
 6317SOL    HW220849   0.696   5.973  10.531
 6318SOL     OW20850  14.426  10.537   5.373
 6318SOL    HW120851  14.402  10.560   5.462
 6318SOL    HW220852  14.356  10.480   5.343
 6319SOL     OW20853   5.120   1.806   0.302
 6319SOL    HW120854   5.154   1.847   0.381
 6319SOL    HW220855   5.026   1.823   0.304
 6320SOL     OW20856   8.894   4.432  10.090
 6320SOL    HW120857   8.928   4.413  10.178
 6320SOL    HW220858   8.801   4.408  10.095
 6321SOL     OW20859  10.447   7.054   3.025
 6321SOL    HW120860  10.358   7.035   3.055
 6321SOL    HW220861  10.503   6.995   3.076
 6322SOL     OW20862  12.277   3.737  10.882
 6322SOL    HW120863  12.290   3.785  10.964
 6322SOL    HW220864  12.215   3.790  10.832
 6323SOL     OW20865   2.710   8.590   9.658
 6323SOL    HW120866   2.673   8.555   9.577
 6323SOL    HW220867   2.803   8.569   9.654
 6324SOL     OW20868   9.113   9.712   4.537
 6324SOL    HW120869   9.125   9.620   4.560
 6324SOL    HW220870   9.162   9.723   4.456
 6325SOL     OW20871   8.454  12.381  12.292
 6325SOL    HW120872   8.541  12.385  12.330
 6325SOL    HW220873   8.436  12.470  12.262
 6326SOL     OW20874  14.655   9.377  11.259
 6326SOL    HW120875  14.701   9.314  11.314
 6326SOL    HW220876  14.703   9.459  11.271
 6327SOL     OW20877  14.623   8.153   7.384
 6327SOL    HW120878  14.624   8.248   7.372
 6327SOL    HW220879  14.531   8.131   7.397
 6328SOL     OW20880   7.198   3.611   0.085
 6328SOL    HW120881   7.264   3.558   0.039
 6328SOL    HW220882   7.132   3.629   0.019
 6329SOL     OW20883  14.157   5.387  12.493
 6329SOL    HW120884  14.167   5.470  12.540
 6329SOL    HW220885  14.076   5.350  12.526
 6330SOL     OW20886   9.383   2.192  14.692
 6330SOL    HW120887   9.291   2.170  14.709
 6330SOL    HW220888   9.396   2.172  14.599
 6331SOL     OW20889  10.093   5.664   4.107
 6331SOL    HW120890  10.022   5.718   4.142
 6331SOL    HW220891  10.059   5.630   4.025
 6332SOL     OW20892   4.545   9.222   2.528
 6332SOL    HW120893   4.544   9.174   2.444
 6332SOL    HW220894   4.522   9.311   2.505
 6333SOL     OW20895   7.575  10.444  11.706
 6333SOL    HW120896   7.544  10.455  11.616
 6333SOL    HW220897   7.562  10.351  11.725
 6334SOL     OW20898  11.431   4.719   9.469
 6334SOL    HW120899  11.406   4.634   9.505
 6334SOL    HW220900  11.510   4.743   9.518
 6335SOL     OW20901  11.136   9.391   4.075
 6335SOL    HW120902  11.202   9.432   4.020
 6335SOL    HW220903  11.117   9.307   4.032
 6336SOL     OW20904   4.834  10.583  14.000
 6336SOL    HW120905   4.818  10.517  14.068
 6336SOL    HW220906   4.782  10.659  14.028
 6337SOL     OW20907   8.096   8.726   1.819
 6337SOL    HW120908   8.038   8.718   1.895
 6337SOL    HW220909   8.130   8.815   1.824
 6338SOL     OW20910  13.085   8.998   4.917
 6338SOL    HW120911  13.144   9.047   4.859
 6338SOL    HW220912  12.999   9.037   4.902
 6339SOL     OW20913  13.582   2.503   0.218
 6339SOL    HW120914  13.663   2.479   0.263
 6339SOL    HW220915  13.611   2.539   0.134
 6340SOL     OW20916  11.805   2.684   5.602
 6340SOL    HW120917  11.876   2.623   5.581
 6340SOL    HW220918  11.767   2.706   5.517
 6341SOL     OW20919   9.552   3.905  14.447
 6341SOL    HW120920   9.481   3.880  14.388
 6341SOL    HW220921   9.590   3.984  14.407
 6342SOL     OW20922  14.664  13.289   5.606
 6342SOL    HW120923  14.618  13.365   5.569
 6342SOL    HW220924  14.725  13.326   5.670
 6343SOL     OW20925  13.515   2.518   5.657
 6343SOL    HW120926  13.481   2.576   5.726
 6343SOL    HW220927  13.545   2.578   5.588
 6344SOL     OW20928   3.418   5.796  10.489
 6344SOL    HW120929   3.509   5.801  10.458
 6344SOL    HW220930   3.367   5.832  10.417
 6345SOL     OW20931  12.649  13.053   9.898
 6345SOL    HW120932  12.557  13.077   9.888
 6345SOL    HW220933  12.648  12.960   9.921
 6346SOL     OW20934  14.509   3.249  14.010
 6346SOL    HW120935  14.502   3.269  13.917
 6346SOL    HW220936  14.483   3.157  14.017
 6347SOL     OW20937  11.663   5.009  12.802
 6347SOL    HW120938  11.662   5.052  12.717
 6347SOL    HW220939  11.756   4.996  12.822
 6348SOL     OW20940   2.397   2.733   9.606
 6348SOL    HW120941   2.381   2.807   9.548
 6348SOL    HW220942   2.490   2.737   9.625
 6349SOL     OW20943   8.294   8.721   8.336
 6349SOL    HW120944   8.293   8.785   8.407
 6349SOL    HW220945   8.276   8.637   8.379
 6350SOL     OW20946   6.992  13.330   0.908
 6350SOL    HW120947   6.975  13.421   0.931
 6350SOL    HW220948   6.915  13.283   0.941
 6351SOL     OW20949  13.171   7.291   7.676
 6351SOL    HW120950  13.209   7.379   7.681
 6351SOL    HW220951  13.088   7.304   7.631
 6352SOL     OW20952  12.588   9.704  10.276
 6352SOL    HW120953  12.502   9.746  10.286
 6352SOL    HW220954  12.600   9.655  10.357
 6353SOL     OW20955   1.813   9.709   0.536
 6353SOL    HW120956   1.811   9.803   0.514
 6353SOL    HW220957   1.876   9.703   0.608
 6354SOL     OW20958   5.567  14.227   3.322
 6354SOL    HW120959   5.589  14.154   3.380
 6354SOL    HW220960   5.627  14.297   3.347
 6355SOL     OW20961  11.119   7.786   9.207
 6355SOL    HW120962  11.103   7.729   9.132
 6355SOL    HW220963  11.128   7.874   9.169
 6356SOL     OW20964   7.552   9.290   6.855
 6356SOL    HW120965   7.479   9.291   6.793
 6356SOL    HW220966   7.518   9.335   6.932
 6357SOL     OW20967   7.748   8.799  13.219
 6357SOL    HW120968   7.778   8.718  13.259
 6357SOL    HW220969   7.762   8.786  13.125
 6358SOL     OW20970   5.288   6.690  10.942
 6358SOL    HW120971   5.239   6.702  10.861
 6358SOL    HW220972   5.380   6.694  10.915
 6359SOL     OW20973  12.683   2.728   4.873
 6359SOL    HW120974  12.652   2.681   4.951
 6359SOL    HW220975  12.677   2.663   4.803
 6360SOL     OW20976   0.770   2.085   4.083
 6360SOL    HW120977   0.812   2.171   4.088
 6360SOL    HW220978   0.713   2.082   4.160
 6361SOL     OW20979   5.713  13.570   1.940
 6361SOL    HW120980   5.702  13.484   1.980
 6361SOL    HW220981   5.790  13.608   1.982
 6362SOL     OW20982  10.853   6.452  12.902
 6362SOL    HW120983  10.928   6.476  12.848
 6362SOL    HW220984  10.779   6.498  12.862
 6363SOL     OW20985  13.808   8.771   4.381
 6363SOL    HW120986  13.764   8.854   4.363
 6363SOL    HW220987  13.841   8.743   4.296
 6364SOL     OW20988   8.362   4.760  14.252
 6364SOL    HW120989   8.448   4.734  14.285
 6364SOL    HW220990   8.302   4.693  14.284
 6365SOL     OW20991  12.368   2.126  14.772
 6365SOL    HW120992  12.297   2.186  14.747
 6365SOL    HW220993  12.401   2.093  14.689
 6366SOL     OW20994   6.771   8.544   1.919
 6366SOL    HW120995   6.751   8.490   1.843
 6366SOL    HW220996   6.847   8.595   1.893
 6367SOL     OW20997   7.714   6.236   6.272
 6367SOL    HW120998   7.710   6.319   6.225
 6367SOL    HW220999   7.808   6.223   6.288
 6368SOL     OW21000  12.846   2.809   5.273
 6368SOL    HW121001  12.818   2.892   5.311
 6368SOL    HW221002  12.940   2.821   5.256
 6369SOL     OW21003  13.063   6.303   7.579
 6369SOL    HW121004  13.146   6.279   7.620
 6369SOL    HW221005  12.997   6.255   7.628
 6370SOL     OW21006   2.474  11.881   1.021
 6370SOL    HW121007   2.391  11.925   1.002
 6370SOL    HW221008   2.523  11.887   0.939
 6371SOL     OW21009   6.962   5.547  14.261
 6371SOL    HW121010   6.867   5.540  14.262
 6371SOL    HW221011   6.981   5.630  14.306
 6372SOL     OW21012   3.171   7.334  11.902
 6372SOL    HW121013   3.196   7.338  11.994
 6372SOL    HW221014   3.093   7.279  11.901
 6373SOL     OW21015   0.168   5.711   6.885
 6373SOL    HW121016   0.101   5.746   6.944
 6373SOL    HW221017   0.180   5.778   6.819
 6374SOL     OW21018  12.146   3.325   2.010
 6374SOL    HW121019  12.156   3.346   2.103
 6374SOL    HW221020  12.075   3.260   2.008
 6375SOL     OW21021  14.403   8.108   2.582
 6375SOL    HW121022  14.423   8.054   2.658
 6375SOL    HW221023  14.469   8.083   2.517
 6376SOL     OW21024   4.298   3.087   9.294
 6376SOL    HW121025   4.319   2.998   9.266
 6376SOL    HW221026   4.208   3.100   9.264
 6377SOL     OW21027  11.470   2.774  13.919
 6377SOL    HW121028  11.461   2.740  13.829
 6377SOL    HW221029  11.487   2.867  13.907
 6378SOL     OW21030   8.700   3.793   8.486
 6378SOL    HW121031   8.710   3.774   8.393
 6378SOL    HW221032   8.605   3.804   8.499
 6379SOL     OW21033   8.201   0.378  14.450
 6379SOL    HW121034   8.163   0.310  14.505
 6379SOL    HW221035   8.256   0.331  14.387
 6380SOL     OW21036  11.049  13.377   0.408
 6380SOL    HW121037  11.027  13.414   0.494
 6380SOL    HW221038  11.024  13.285   0.414
 6381SOL     OW21039  14.773   6.683   5.192
 6381SOL    HW121040  14.750   6.605   5.142
 6381SOL    HW221041  14.689   6.716   5.223
 6382SOL     OW21042   8.500   5.606   9.616
 6382SOL    HW121043   8.511   5.609   9.711
 6382SOL    HW221044   8.405   5.602   9.602
 6383SOL     OW21045  11.639   7.682   6.286
 6383SOL    HW121046  11.728   7.652   6.305
 6383SOL    HW221047  11.618   7.741   6.358
 6384SOL     OW21048  12.009   9.662   6.189
 6384SOL    HW121049  12.022   9.712   6.269
 6384SOL    HW221050  12.083   9.601   6.187
 6385SOL     OW21051  10.988   1.000  11.988
 6385SOL    HW121052  11.070   1.017  12.035
 6385SOL    HW221053  11.011   1.005  11.896
 6386SOL     OW21054   5.004   9.951  12.626
 6386SOL    HW121055   5.020  10.030  12.677
 6386SOL    HW221056   4.999   9.981  12.535
 6387SOL     OW21057   5.808   1.967  11.762
 6387SOL    HW121058   5.826   1.881  11.800
 6387SOL    HW221059   5.754   1.947  11.685
 6388SOL     OW21060  12.891  10.664  13.343
 6388SOL    HW121061  12.816  10.615  13.377
 6388SOL    HW221062  12.878  10.753  13.375
 6389SOL     OW21063  12.913   7.409  14.342
 6389SOL    HW121064  12.958   7.372  14.266
 6389SOL    HW221065  12.822   7.418  14.313
 6390SOL     OW21066   9.445   9.201   0.995
 6390SOL    HW121067   9.434   9.212   0.900
 6390SOL    HW221068   9.388   9.127   1.017
 6391SOL     OW21069   7.425   8.788   8.681
 6391SOL    HW121070   7.334   8.766   8.702
 6391SOL    HW221071   7.443   8.867   8.733
 6392SOL     OW21072   9.168   3.488   9.808
 6392SOL    HW121073   9.105   3.503   9.738
 6392SOL    HW221074   9.120   3.507   9.888
 6393SOL     OW21075   5.866  14.617   7.947
 6393SOL    HW121076   5.803  14.681   7.980
 6393SOL    HW221077   5.831  14.532   7.972
 6394SOL     OW21078   5.846   9.702   4.246
 6394SOL    HW121079   5.847   9.720   4.153
 6394SOL    HW221080   5.820   9.784   4.287
 6395SOL     OW21081   1.184   5.535   5.989
 6395SOL    HW121082   1.250   5.487   6.039
 6395SOL    HW221083   1.127   5.467   5.954
 6396SOL     OW21084   7.337  11.910   5.320
 6396SOL    HW121085   7.329  11.880   5.230
 6396SOL    HW221086   7.356  12.003   5.313
 6397SOL     OW21087  12.933   7.093   8.117
 6397SOL    HW121088  13.008   7.151   8.105
 6397SOL    HW221089  12.915   7.058   8.029
 6398SOL     OW21090   6.737  13.970  14.365
 6398SOL    HW121091   6.723  13.965  14.271
 6398SOL    HW221092   6.664  14.023  14.398
 6399SOL     OW21093  12.525   3.052  12.104
 6399SOL    HW121094  12.539   3.084  12.014
 6399SOL    HW221095  12.561   3.120  12.160
 6400SOL     OW21096  12.306   4.280  11.590
 6400SOL    HW121097  12.223   4.319  11.617
 6400SOL    HW221098  12.366   4.353  11.582
 6401SOL     OW21099   3.659   6.228   0.003
 6401SOL    HW121100   3.750   6.203  14.857
 6401SOL    HW221101   3.626   6.253  14.786
 6402SOL     OW21102   6.213   2.558   2.781
 6402SOL    HW121103   6.147   2.491   2.801
 6402SOL    HW221104   6.176   2.605   2.707
 6403SOL     OW21105   5.106   3.154   7.113
 6403SOL    HW121106   5.124   3.197   7.197
 6403SOL    HW221107   5.013   3.172   7.097
 6404SOL     OW21108   9.614  14.403   7.355
 6404SOL    HW121109   9.659  14.333   7.402
 6404SOL    HW221110   9.563  14.358   7.288
 6405SOL     OW21111  13.258   9.824   5.483
 6405SOL    HW121112  13.229   9.916   5.485
 6405SOL    HW221113  13.219   9.789   5.404
 6406SOL     OW21114   3.162   2.170   0.387
 6406SOL    HW121115   3.257   2.168   0.382
 6406SOL    HW221116   3.132   2.135   0.303
 6407SOL     OW21117  14.016   7.896   2.112
 6407SOL    HW121118  13.991   7.834   2.181
 6407SOL    HW221119  14.057   7.969   2.159
 6408SOL     OW21120   1.593  10.429   7.385
 6408SOL    HW121121   1.599  10.508   7.330
 6408SOL    HW221122   1.500  10.422   7.407
 6409SOL     OW21123  11.230  12.462   8.509
 6409SOL    HW121124  11.224  12.498   8.597
 6409SOL    HW221125  11.268  12.533   8.457
 6410SOL     OW21126   6.450   5.843   6.634
 6410SOL    HW121127   6.395   5.858   6.558
 6410SOL    HW221128   6.536   5.822   6.598
 6411SOL     OW21129  13.224  10.603   0.617
 6411SOL    HW121130  13.288  10.672   0.634
 6411SOL    HW221131  13.267  10.522   0.645
 6412SOL     OW21132   0.624   7.152   2.834
 6412SOL    HW121133   0.616   7.244   2.812
 6412SOL    HW221134   0.703   7.123   2.789
 6413SOL     OW21135   5.917   2.685   8.084
 6413SOL    HW121136   5.973   2.741   8.138
 6413SOL    HW221137   5.837   2.735   8.073
 6414SOL     OW21138  14.575  12.885   5.314
 6414SOL    HW121139  14.533  12.962   5.276
 6414SOL    HW221140  14.599  12.912   5.403
 6415SOL     OW21141   4.767   1.407   5.632
 6415SOL    HW121142   4.803   1.352   5.702
 6415SOL    HW221143   4.797   1.365   5.551
 6416SOL     OW21144  14.102  11.264   4.303
 6416SOL    HW121145  14.147  11.328   4.247
 6416SOL    HW221146  14.028  11.235   4.250
 6417SOL     OW21147   8.966   0.530   6.272
 6417SOL    HW121148   9.006   0.582   6.202
 6417SOL    HW221149   9.024   0.455   6.283
 6418SOL     OW21150   1.305   7.624  13.598
 6418SOL    HW121151   1.343   7.662  13.518
 6418SOL    HW221152   1.225   7.581  13.568
 6419SOL     OW21153   4.106  11.826   8.871
 6419SOL    HW121154   4.058  11.828   8.788
 6419SOL    HW221155   4.066  11.754   8.920
 6420SOL     OW21156   5.537  14.170  10.789
 6420SOL    HW121157   5.533  14.154  10.884
 6420SOL    HW221158   5.450  14.202  10.766
 6421SOL     OW21159   9.943   8.628   9.100
 6421SOL    HW121160   9.939   8.723   9.083
 6421SOL    HW221161   9.975   8.591   9.018
 6422SOL     OW21162  10.810   9.475  11.498
 6422SOL    HW121163  10.856   9.402  11.539
 6422SOL    HW221164  10.794   9.536  11.571
 6423SOL     OW21165   3.749   0.492   4.159
 6423SOL    HW121166   3.820   0.432   4.184
 6423SOL    HW221167   3.692   0.440   4.103
 6424SOL     OW21168   5.678  12.823  14.638
 6424SOL    HW121169   5.728  12.905  14.650
 6424SOL    HW221170   5.611  12.827  14.706
 6425SOL     OW21171   5.127   7.545   5.221
 6425SOL    HW121172   5.033   7.556   5.206
 6425SOL    HW221173   5.148   7.460   5.182
 6426SOL     OW21174  14.032  12.179   3.795
 6426SOL    HW121175  14.036  12.110   3.730
 6426SOL    HW221176  14.122  12.209   3.804
 6427SOL     OW21177  10.533   3.605   8.373
 6427SOL    HW121178  10.468   3.663   8.413
 6427SOL    HW221179  10.488   3.568   8.297
 6428SOL     OW21180   2.401   1.010   8.710
 6428SOL    HW121181   2.312   0.981   8.691
 6428SOL    HW221182   2.399   1.104   8.695
 6429SOL     OW21183   3.484   2.294   5.354
 6429SOL    HW121184   3.532   2.222   5.313
 6429SOL    HW221185   3.393   2.266   5.355
 6430SOL     OW21186   9.215   5.409   3.538
 6430SOL    HW121187   9.184   5.432   3.450
 6430SOL    HW221188   9.256   5.489   3.570
 6431SOL     OW21189  14.642   9.406   3.959
 6431SOL    HW121190  14.642   9.336   3.893
 6431SOL    HW221191  14.616   9.362   4.040
 6432SOL     OW21192   7.337  12.998   9.065
 6432SOL    HW121193   7.431  13.010   9.081
 6432SOL    HW221194   7.296  13.075   9.103
 6433SOL     OW21195   9.110   7.473  10.210
 6433SOL    HW121196   9.188   7.529  10.207
 6433SOL    HW221197   9.137   7.399  10.265
 6434SOL     OW21198   5.330   3.954  12.586
 6434SOL    HW121199   5.390   4.019  12.549
 6434SOL    HW221200   5.244   3.996  12.582
 6435SOL     OW21201   0.219  13.642   1.834
 6435SOL    HW121202   0.272  13.672   1.760
 6435SOL    HW221203   0.251  13.694   1.908
 6436SOL     OW21204   4.595   0.971   1.245
 6436SOL    HW121205   4.528   0.904   1.243
 6436SOL    HW221206   4.566   1.032   1.313
 6437SOL     OW21207   4.368   1.380  13.578
 6437SOL    HW121208   4.377   1.316  13.649
 6437SOL    HW221209   4.441   1.359  13.519
 6438SOL     OW21210   3.646   6.964   7.206
 6438SOL    HW121211   3.589   7.041   7.210
 6438SOL    HW221212   3.717   6.984   7.267
 6439SOL     OW21213   0.530  12.443   3.023
 6439SOL    HW121214   0.480  12.421   2.945
 6439SOL    HW221215   0.468  12.430   3.095
 6440SOL     OW21216   8.656   3.732   5.257
 6440SOL    HW121217   8.611   3.816   5.243
 6440SOL    HW221218   8.714   3.748   5.332
 6441SOL     OW21219   3.517  14.574  10.390
 6441SOL    HW121220   3.599  14.538  10.426
 6441SOL    HW221221   3.521  14.667  10.412
 6442SOL     OW21222   4.337  10.724  13.344
 6442SOL    HW121223   4.329  10.715  13.439
 6442SOL    HW221224   4.418  10.774  13.332
 6443SOL     OW21225   5.888  13.706   4.150
 6443SOL    HW121226   5.796  13.694   4.175
 6443SOL    HW221227   5.884  13.744   4.062
 6444SOL     OW21228   7.658   5.153   3.778
 6444SOL    HW121229   7.618   5.234   3.809
 6444SOL    HW221230   7.657   5.159   3.683
 6445SOL     OW21231   2.912   9.556   7.725
 6445SOL    HW121232   2.966   9.583   7.650
 6445SOL    HW221233   2.967   9.494   7.773
 6446SOL     OW21234   3.837   9.768  11.209
 6446SOL    HW121235   3.753   9.724  11.193
 6446SOL    HW221236   3.903   9.705  11.181
 6447SOL     OW21237  12.904   5.448   0.201
 6447SOL    HW121238  12.825   5.503   0.200
 6447SOL    HW221239  12.976   5.510   0.193
 6448SOL     OW21240   4.025  11.680   8.284
 6448SOL    HW121241   4.069  11.669   8.200
 6448SOL    HW221242   3.977  11.598   8.297
 6449SOL     OW21243  11.451  10.071   3.298
 6449SOL    HW121244  11.435  10.164   3.318
 6449SOL    HW221245  11.546  10.065   3.289
 6450SOL     OW21246   6.632   6.735   9.674
 6450SOL    HW121247   6.664   6.647   9.697
 6450SOL    HW221248   6.632   6.783   9.757
 6451SOL     OW21249   0.120   5.324   7.796
 6451SOL    HW121250   0.209   5.358   7.801
 6451SOL    HW221251   0.100   5.323   7.702
 6452SOL     OW21252   8.321  13.930   7.278
 6452SOL    HW121253   8.417  13.932   7.275
 6452SOL    HW221254   8.300  13.934   7.371
 6453SOL     OW21255  11.413   0.736  13.211
 6453SOL    HW121256  11.427   0.819  13.164
 6453SOL    HW221257  11.319   0.719  13.202
 6454SOL     OW21258   4.910   1.113   2.818
 6454SOL    HW121259   4.978   1.085   2.878
 6454SOL    HW221260   4.907   1.044   2.751
 6455SOL     OW21261  11.857  11.883   8.677
 6455SOL    HW121262  11.877  11.790   8.662
 6455SOL    HW221263  11.834  11.917   8.591
 6456SOL     OW21264   5.814   5.218   2.836
 6456SOL    HW121265   5.870   5.216   2.758
 6456SOL    HW221266   5.747   5.152   2.819
 6457SOL     OW21267  10.506  12.030   1.405
 6457SOL    HW121268  10.511  11.956   1.467
 6457SOL    HW221269  10.447  12.092   1.447
 6458SOL     OW21270   3.948   8.626   4.436
 6458SOL    HW121271   4.011   8.555   4.439
 6458SOL    HW221272   3.962   8.667   4.351
 6459SOL     OW21273   7.041  13.229   2.843
 6459SOL    HW121274   6.966  13.235   2.902
 6459SOL    HW221275   7.068  13.320   2.829
 6460SOL     OW21276  13.873  10.744  11.337
 6460SOL    HW121277  13.969  10.744  11.335
 6460SOL    HW221278  13.851  10.748  11.430
 6461SOL     OW21279  13.624  12.799  12.957
 6461SOL    HW121280  13.547  12.780  13.011
 6461SOL    HW221281  13.643  12.891  12.976
 6462SOL     OW21282  14.688   1.961  12.236
 6462SOL    HW121283  14.669   1.889  12.176
 6462SOL    HW221284  14.713   2.034  12.178
 6463SOL     OW21285   3.778   5.501  13.589
 6463SOL    HW121286   3.772   5.537  13.677
 6463SOL    HW221287   3.733   5.565  13.534
 6464SOL     OW21288  11.067   4.602   8.694
 6464SOL    HW121289  11.037   4.640   8.611
 6464SOL    HW221290  11.101   4.677   8.743
 6465SOL     OW21291   8.182   1.332   9.217
 6465SOL    HW121292   8.278   1.331   9.220
 6465SOL    HW221293   8.156   1.255   9.268
 6466SOL     OW21294   2.241   6.465  10.749
 6466SOL    HW121295   2.336   6.457  10.755
 6466SOL    HW221296   2.225   6.498  10.661
 6467SOL     OW21297   3.364   2.441   2.604
 6467SOL    HW121298   3.277   2.481   2.592
 6467SOL    HW221299   3.421   2.514   2.626
 6468SOL     OW21300   3.463   7.659  11.685
 6468SOL    HW121301   3.416   7.742  11.695
 6468SOL    HW221302   3.410   7.610  11.622
 6469SOL     OW21303  10.401   0.021   7.477
 6469SOL    HW121304  10.437   0.102   7.442
 6469SOL    HW221305  10.437  14.822   7.421
 6470SOL     OW21306  12.673   6.778   1.579
 6470SOL    HW121307  12.660   6.766   1.674
 6470SOL    HW221308  12.589   6.753   1.540
 6471SOL     OW21309  12.701  10.090   3.692
 6471SOL    HW121310  12.718  10.168   3.744
 6471SOL    HW221311  12.640  10.038   3.745
 6472SOL     OW21312   5.375   8.486   1.841
 6472SOL    HW121313   5.451   8.464   1.895
 6472SOL    HW221314   5.312   8.416   1.858
 6473SOL     OW21315   4.445   5.415   2.238
 6473SOL    HW121316   4.475   5.500   2.270
 6473SOL    HW221317   4.476   5.410   2.148
 6474SOL     OW21318   9.705  13.749  11.168
 6474SOL    HW121319   9.651  13.828  11.161
 6474SOL    HW221320   9.645  13.682  11.200
 6475SOL     OW21321   8.632   1.584  14.384
 6475SOL    HW121322   8.565   1.593  14.317
 6475SOL    HW221323   8.615   1.498  14.424
 6476SOL     OW21324   9.880   9.905  13.096
 6476SOL    HW121325   9.834   9.986  13.074
 6476SOL    HW221326   9.966   9.933  13.127
 6477SOL     OW21327   9.961  14.528   9.983
 6477SOL    HW121328   9.969  14.571  10.068
 6477SOL    HW221329   9.923  14.442  10.002
 6478SOL     OW21330  14.269  10.214  14.437
 6478SOL    HW121331  14.305  10.153  14.502
 6478SOL    HW221332  14.200  10.165  14.393
 6479SOL     OW21333   5.510   3.543   3.110
 6479SOL    HW121334   5.484   3.567   3.199
 6479SOL    HW221335   5.600   3.574   3.102
 6480SOL     OW21336   4.119  11.847  10.194
 6480SOL    HW121337   4.067  11.905  10.139
 6480SOL    HW221338   4.161  11.905  10.258
 6481SOL     OW21339   4.730   3.114  10.789
 6481SOL    HW121340   4.824   3.122  10.777
 6481SOL    HW221341   4.713   3.150  10.876
 6482SOL     OW21342  10.137  10.992   7.486
 6482SOL    HW121343  10.182  11.036   7.414
 6482SOL    HW221344  10.159  10.899   7.475
 6483SOL     OW21345   2.526   1.076  10.731
 6483SOL    HW121346   2.599   1.079  10.794
 6483SOL    HW221347   2.456   1.032  10.779
 6484SOL     OW21348  12.751   9.198  11.356
 6484SOL    HW121349  12.671   9.228  11.314
 6484SOL    HW221350  12.724   9.125  11.412
 6485SOL     OW21351   4.808   4.401   4.452
 6485SOL    HW121352   4.733   4.442   4.494
 6485SOL    HW221353   4.861   4.368   4.525
 6486SOL     OW21354  12.809  14.296   3.789
 6486SOL    HW121355  12.888  14.275   3.739
 6486SOL    HW221356  12.821  14.251   3.872
 6487SOL     OW21357   2.543   2.189   8.525
 6487SOL    HW121358   2.637   2.184   8.545
 6487SOL    HW221359   2.525   2.111   8.473
 6488SOL     OW21360  12.216   2.051   0.645
 6488SOL    HW121361  12.151   1.983   0.664
 6488SOL    HW221362  12.165   2.132   0.642
 6489SOL     OW21363   0.198   8.767  12.751
 6489SOL    HW121364   0.146   8.700  12.706
 6489SOL    HW221365   0.135   8.811  12.809
 6490SOL     OW21366   4.631   6.526   9.950
 6490SOL    HW121367   4.653   6.606   9.902
 6490SOL    HW221368   4.592   6.558  10.032
 6491SOL     OW21369   6.559  11.224   0.027
 6491SOL    HW121370   6.637  11.279   0.025
 6491SOL    HW221371   6.568  11.173   0.107
 6492SOL     OW21372  12.161  10.017  14.014
 6492SOL    HW121373  12.103  10.063  13.954
 6492SOL    HW221374  12.240  10.070  14.017
 6493SOL     OW21375   0.568   9.245   7.795
 6493SOL    HW121376   0.486   9.293   7.807
 6493SOL    HW221377   0.608   9.244   7.882
 6494SOL     OW21378   2.096  13.539   3.425
 6494SOL    HW121379   2.032  13.469   3.431
 6494SOL    HW221380   2.180  13.497   3.440
 6495SOL     OW21381   2.616  10.783  11.696
 6495SOL    HW121382   2.675  10.754  11.766
 6495SOL    HW221383   2.652  10.867  11.669
 6496SOL     OW21384  11.780   8.667   3.720
 6496SOL    HW121385  11.699   8.718   3.715
 6496SOL    HW221386  11.766   8.607   3.794
 6497SOL     OW21387  14.868   9.735  10.471
 6497SOL    HW121388  14.812   9.813  10.471
 6497SOL    HW221389  14.847   9.690  10.553
 6498SOL     OW21390   9.151  13.857   6.135
 6498SOL    HW121391   9.071  13.900   6.104
 6498SOL    HW221392   9.209  13.930   6.159
 6499SOL     OW21393  14.064  10.660  14.120
 6499SOL    HW121394  14.068  10.565  14.117
 6499SOL    HW221395  14.136  10.690  14.064
 6500SOL     OW21396   7.903  10.590  12.097
 6500SOL    HW121397   7.819  10.630  12.121
 6500SOL    HW221398   7.963  10.663  12.089
 6501SOL     OW21399   2.314   7.944   9.152
 6501SOL    HW121400   2.293   7.856   9.184
 6501SOL    HW221401   2.349   7.990   9.228
 6502SOL     OW21402  10.942   2.136   2.713
 6502SOL    HW121403  10.926   2.230   2.715
 6502SOL    HW221404  10.856   2.098   2.730
 6503SOL     OW21405  10.144   8.152   1.317
 6503SOL    HW121406  10.074   8.215   1.303
 6503SOL    HW221407  10.132   8.123   1.408
 6504SOL     OW21408  12.912  11.386   4.109
 6504SOL    HW121409  12.959  11.422   4.034
 6504SOL    HW221410  12.824  11.367   4.076
 6505SOL     OW21411   1.345   8.579   7.242
 6505SOL    HW121412   1.417   8.582   7.305
 6505SOL    HW221413   1.267   8.600   7.295
 6506SOL     OW21414  11.113   1.032  12.605
 6506SOL    HW121415  11.055   1.089  12.655
 6506SOL    HW221416  11.056   0.991  12.540
 6507SOL     OW21417   6.249   9.257   7.733
 6507SOL    HW121418   6.270   9.250   7.639
 6507SOL    HW221419   6.260   9.350   7.753
 6508SOL     OW21420  12.606   7.760  14.480
 6508SOL    HW121421  12.629   7.851  14.499
 6508SOL    HW221422  12.540   7.766  14.411
 6509SOL     OW21423   3.413  14.059  14.840
 6509SOL    HW121424   3.372  14.133   0.015
 6509SOL    HW221425   3.341  14.012  14.798
 6510SOL     OW21426   6.774   6.320  11.678
 6510SOL    HW121427   6.854   6.372  11.665
 6510SOL    HW221428   6.703   6.383  11.667
 6511SOL     OW21429  11.522   1.430  12.142
 6511SOL    HW121430  11.515   1.336  12.160
 6511SOL    HW221431  11.464   1.471  12.206
 6512SOL     OW21432   0.211   9.386  13.647
 6512SOL    HW121433   0.225   9.470  13.604
 6512SOL    HW221434   0.291   9.372  13.698
 6513SOL     OW21435   7.503   7.262  13.566
 6513SOL    HW121436   7.534   7.340  13.521
 6513SOL    HW221437   7.410   7.257  13.544
 6514SOL     OW21438   8.743  11.842   5.032
 6514SOL    HW121439   8.805  11.773   5.056
 6514SOL    HW221440   8.777  11.877   4.950
 6515SOL     OW21441   4.949   3.677   5.362
 6515SOL    HW121442   5.007   3.752   5.373
 6515SOL    HW221443   5.001   3.602   5.393
 6516SOL     OW21444   3.072  10.191   0.830
 6516SOL    HW121445   3.129  10.115   0.842
 6516SOL    HW221446   3.122  10.249   0.773
 6517SOL     OW21447   9.914   4.738   7.266
 6517SOL    HW121448   9.819   4.733   7.278
 6517SOL    HW221449   9.939   4.823   7.301
 6518SOL     OW21450   2.354   3.011  12.658
 6518SOL    HW121451   2.290   2.969  12.600
 6518SOL    HW221452   2.305   3.029  12.739
 6519SOL     OW21453  11.734  14.334   8.638
 6519SOL    HW121454  11.726  14.238   8.641
 6519SOL    HW221455  11.811  14.353   8.692
 6520SOL     OW21456  14.701  11.455   5.755
 6520SOL    HW121457  14.642  11.406   5.698
 6520SOL    HW221458  14.775  11.396   5.769
 6521SOL     OW21459   2.945   4.349   0.740
 6521SOL    HW121460   2.954   4.433   0.695
 6521SOL    HW221461   2.853   4.347   0.766
 6522SOL     OW21462  13.703  10.692  13.998
 6522SOL    HW121463  13.608  10.706  13.993
 6522SOL    HW221464  13.721  10.626  13.931
 6523SOL     OW21465   8.345   2.488   2.876
 6523SOL    HW121466   8.420   2.474   2.934
 6523SOL    HW221467   8.334   2.583   2.874
 6524SOL     OW21468   6.872  14.815   3.937
 6524SOL    HW121469   6.886  14.840   4.029
 6524SOL    HW221470   6.911   0.018   3.887
 6525SOL     OW21471   1.885   3.733   0.088
 6525SOL    HW121472   1.932   3.815   0.073
 6525SOL    HW221473   1.920   3.673   0.023
 6526SOL     OW21474  14.523   7.473   7.286
 6526SOL    HW121475  14.564   7.551   7.323
 6526SOL    HW221476  14.519   7.410   7.358
 6527SOL     OW21477   2.643   6.027  14.690
 6527SOL    HW121478   2.707   5.972  14.736
 6527SOL    HW221479   2.606   6.082  14.759
 6528SOL     OW21480   7.828  10.173   8.840
 6528SOL    HW121481   7.845  10.084   8.872
 6528SOL    HW221482   7.903  10.193   8.784
 6529SOL     OW21483   1.211   4.841  10.680
 6529SOL    HW121484   1.215   4.755  10.722
 6529SOL    HW221485   1.144   4.889  10.730
 6530SOL     OW21486   2.330   0.359   2.090
 6530SOL    HW121487   2.260   0.355   2.155
 6530SOL    HW221488   2.338   0.452   2.069
 6531SOL     OW21489   8.425  14.186   2.293
 6531SOL    HW121490   8.507  14.198   2.247
 6531SOL    HW221491   8.421  14.092   2.310
 6532SOL     OW21492  10.780   0.820   0.834
 6532SOL    HW121493  10.703   0.764   0.828
 6532SOL    HW221494  10.851   0.761   0.859
 6533SOL     OW21495  12.016   4.253   3.595
 6533SOL    HW121496  11.994   4.167   3.558
 6533SOL    HW221497  12.025   4.236   3.689
 6534SOL     OW21498   7.085   6.664  10.875
 6534SOL    HW121499   7.082   6.661  10.779
 6534SOL    HW221500   6.994   6.672  10.902
 6535SOL     OW21501   7.059  13.528   1.197
 6535SOL    HW121502   7.062  13.513   1.291
 6535SOL    HW221503   7.150  13.520   1.168
 6536SOL     OW21504  12.047   2.642   9.561
 6536SOL    HW121505  12.035   2.715   9.622
 6536SOL    HW221506  12.142   2.629   9.558
 6537SOL     OW21507  11.242   2.745  14.122
 6537SOL    HW121508  11.213   2.664  14.082
 6537SOL    HW221509  11.317   2.773  14.069
 6538SOL     OW21510   3.844  14.717   2.889
 6538SOL    HW121511   3.888  14.660   2.951
 6538SOL    HW221512   3.842  14.803   2.933
 6539SOL     OW21513   3.769  14.427   0.470
 6539SOL    HW121514   3.839  14.414   0.534
 6539SOL    HW221515   3.699  14.369   0.498
 6540SOL     OW21516   5.692  10.085   9.233
 6540SOL    HW121517   5.696  10.011   9.172
 6540SOL    HW221518   5.760  10.144   9.202
 6541SOL     OW21519  10.301  13.617  14.447
 6541SOL    HW121520  10.341  13.704  14.442
 6541SOL    HW221521  10.368  13.558  14.412
 6542SOL     OW21522  12.739   0.812   1.529
 6542SOL    HW121523  12.828   0.813   1.564
 6542SOL    HW221524  12.733   0.891   1.475
 6543SOL     OW21525  14.455   6.184   5.250
 6543SOL    HW121526  14.484   6.217   5.165
 6543SOL    HW221527  14.459   6.261   5.308
 6544SOL     OW21528   0.139   2.808  14.841
 6544SOL    HW121529   0.189   2.792  14.761
 6544SOL    HW221530   0.048   2.803  14.814
 6545SOL     OW21531  10.784   3.124   1.148
 6545SOL    HW121532  10.747   3.119   1.236
 6545SOL    HW221533  10.709   3.140   1.091
 6546SOL     OW21534   9.646  12.168   6.515
 6546SOL    HW121535   9.602  12.204   6.591
 6546SOL    HW221536   9.624  12.228   6.443
 6547SOL     OW21537   3.206   0.412   2.006
 6547SOL    HW121538   3.244   0.410   2.094
 6547SOL    HW221539   3.259   0.476   1.959
 6548SOL     OW21540   7.477   0.629  12.489
 6548SOL    HW121541   7.537   0.558  12.511
 6548SOL    HW221542   7.483   0.689  12.564
 6549SOL     OW21543   1.932  14.074   4.063
 6549SOL    HW121544   1.919  13.981   4.047
 6549SOL    HW221545   1.953  14.111   3.977
 6550SOL     OW21546  12.206   6.919  10.300
 6550SOL    HW121547  12.289   6.872  10.307
 6550SOL    HW221548  12.160   6.876  10.228
 6551SOL     OW21549   4.978   9.739  14.403
 6551SOL    HW121550   4.924   9.784  14.467
 6551SOL    HW221551   4.919   9.674  14.364
 6552SOL     OW21552  13.977   6.042   5.281
 6552SOL    HW121553  14.067   6.037   5.250
 6552SOL    HW221554  13.974   6.124   5.332
 6553SOL     OW21555  10.349   6.909   9.903
 6553SOL    HW121556  10.393   6.881   9.983
 6553SOL    HW221557  10.414   6.963   9.857
 6554SOL     OW21558   6.571   5.869   5.930
 6554SOL    HW121559   6.536   5.926   5.861
 6554SOL    HW221560   6.623   5.927   5.985
 6555SOL     OW21561   9.949   8.113  12.413
 6555SOL    HW121562  10.013   8.184  12.424
 6555SOL    HW221563   9.910   8.128  12.327
 6556SOL     OW21564   8.401  10.180   9.043
 6556SOL    HW121565   8.482  10.179   9.093
 6556SOL    HW221566   8.368  10.269   9.052
 6557SOL     OW21567  12.427   6.380  11.540
 6557SOL    HW121568  12.362   6.447  11.563
 6557SOL    HW221569  12.498   6.393  11.603
 6558SOL     OW21570  12.941   2.995   6.464
 6558SOL    HW121571  12.921   2.905   6.437
 6558SOL    HW221572  12.868   3.047   6.430
 6559SOL     OW21573   2.790  14.450   1.584
 6559SOL    HW121574   2.794  14.531   1.635
 6559SOL    HW221575   2.874  14.446   1.538
 6560SOL     OW21576   8.129   7.213  13.498
 6560SOL    HW121577   8.212   7.196  13.453
 6560SOL    HW221578   8.154   7.266  13.574
 6561SOL     OW21579   6.633   2.096   5.542
 6561SOL    HW121580   6.612   2.175   5.491
 6561SOL    HW221581   6.719   2.116   5.580
 6562SOL     OW21582  14.181   5.236   2.220
 6562SOL    HW121583  14.216   5.280   2.297
 6562SOL    HW221584  14.210   5.146   2.228
 6563SOL     OW21585   1.128   1.897   2.088
 6563SOL    HW121586   1.151   1.972   2.143
 6563SOL    HW221587   1.133   1.822   2.147
 6564SOL     OW21588  10.536   9.428   4.301
 6564SOL    HW121589  10.486   9.479   4.237
 6564SOL    HW221590  10.620   9.410   4.258
 6565SOL     OW21591   0.083   4.660   7.132
 6565SOL    HW121592   0.085   4.565   7.132
 6565SOL    HW221593   0.096   4.684   7.040
 6566SOL     OW21594  10.879   9.442  10.055
 6566SOL    HW121595  10.908   9.432  10.146
 6566SOL    HW221596  10.863   9.352  10.026
 6567SOL     OW21597   0.542   5.198   3.078
 6567SOL    HW121598   0.629   5.180   3.113
 6567SOL    HW221599   0.558   5.244   2.996
 6568SOL     OW21600   2.044   1.774  14.378
 6568SOL    HW121601   2.093   1.706  14.332
 6568SOL    HW221602   1.987   1.727  14.438
 6569SOL     OW21603   2.321   2.840  12.951
 6569SOL    HW121604   2.299   2.916  12.898
 6569SOL    HW221605   2.237   2.805  12.980
 6570SOL     OW21606  11.830   5.313  11.224
 6570SOL    HW121607  11.754   5.283  11.175
 6570SOL    HW221608  11.885   5.235  11.233
 6571SOL     OW21609   0.079   8.438   7.607
 6571SOL    HW121610   0.009   8.486   7.651
 6571SOL    HW221611   0.057   8.443   7.514
 6572SOL     OW21612  13.500   1.469  11.235
 6572SOL    HW121613  13.440   1.511  11.174
 6572SOL    HW221614  13.457   1.475  11.320
 6573SOL     OW21615   8.253  13.919  14.312
 6573SOL    HW121616   8.303  14.000  14.326
 6573SOL    HW221617   8.195  13.914  14.387
 6574SOL     OW21618   3.516  11.805   8.545
 6574SOL    HW121619   3.584  11.737   8.548
 6574SOL    HW221620   3.536  11.862   8.619
 6575SOL     OW21621   3.494   9.305   5.651
 6575SOL    HW121622   3.551   9.228   5.657
 6575SOL    HW221623   3.541   9.364   5.592
 6576SOL     OW21624  14.836   1.160  12.536
 6576SOL    HW121625  14.788   1.212  12.600
 6576SOL    HW221626  14.770   1.103  12.495
 6577SOL     OW21627   1.754   3.417   3.002
 6577SOL    HW121628   1.791   3.441   3.087
 6577SOL    HW221629   1.829   3.414   2.943
 6578SOL     OW21630   8.474   3.144  10.814
 6578SOL    HW121631   8.384   3.172  10.824
 6578SOL    HW221632   8.485   3.130  10.720
 6579SOL     OW21633  13.935   2.203   0.378
 6579SOL    HW121634  13.870   2.133   0.371
 6579SOL    HW221635  13.984   2.182   0.457
 6580SOL     OW21636   0.538  11.406   7.681
 6580SOL    HW121637   0.600  11.392   7.609
 6580SOL    HW221638   0.564  11.342   7.747
 6581SOL     OW21639   2.672   8.908   2.982
 6581SOL    HW121640   2.759   8.946   2.993
 6581SOL    HW221641   2.649   8.875   3.069
 6582SOL     OW21642   4.464   9.632  14.317
 6582SOL    HW121643   4.497   9.573  14.249
 6582SOL    HW221644   4.403   9.689  14.271
 6583SOL     OW21645   3.200   1.192   4.522
 6583SOL    HW121646   3.277   1.209   4.468
 6583SOL    HW221647   3.213   1.104   4.556
 6584SOL     OW21648   2.505   8.053  12.250
 6584SOL    HW121649   2.510   7.997  12.327
 6584SOL    HW221650   2.411   8.067  12.236
 6585SOL     OW21651   3.944   0.818  13.864
 6585SOL    HW121652   3.950   0.769  13.782
 6585SOL    HW221653   3.854   0.804  13.893
 6586SOL     OW21654   1.874  12.541   0.497
 6586SOL    HW121655   1.784  12.520   0.520
 6586SOL    HW221656   1.924  12.524   0.576
 6587SOL     OW21657   7.844   0.026  12.478
 6587SOL    HW121658   7.791   0.073  12.542
 6587SOL    HW221659   7.816   0.060  12.393
 6588SOL     OW21660   8.758   6.960  12.789
 6588SOL    HW121661   8.833   6.900  12.784
 6588SOL    HW221662   8.767   7.016  12.711
 6589SOL     OW21663  10.696   1.284  13.130
 6589SOL    HW121664  10.704   1.191  13.110
 6589SOL    HW221665  10.652   1.321  13.054
 6590SOL     OW21666   8.124   2.927   8.719
 6590SOL    HW121667   8.145   2.893   8.806
 6590SOL    HW221668   8.135   3.022   8.726
 6591SOL     OW21669  10.886   2.696   2.146
 6591SOL    HW121670  10.974   2.735   2.151
 6591SOL    HW221671  10.873   2.656   2.232
 6592SOL     OW21672   2.612  10.106   1.839
 6592SOL    HW121673   2.695  10.058   1.842
 6592SOL    HW221674   2.554  10.051   1.786
 6593SOL     OW21675  12.157   7.400  13.320
 6593SOL    HW121676  12.095   7.472  13.309
 6593SOL    HW221677  12.111   7.322  13.289
 6594SOL     OW21678   9.819  10.323  11.327
 6594SOL    HW121679   9.759  10.253  11.352
 6594SOL    HW221680   9.893  10.313  11.386
 6595SOL     OW21681   1.329  10.863   2.224
 6595SOL    HW121682   1.260  10.803   2.196
 6595SOL    HW221683   1.357  10.829   2.309
 6596SOL     OW21684   8.943   0.779   4.591
 6596SOL    HW121685   8.974   0.740   4.509
 6596SOL    HW221686   8.935   0.872   4.572
 6597SOL     OW21687   4.156   3.355  13.217
 6597SOL    HW121688   4.123   3.442  13.242
 6597SOL    HW221689   4.086   3.317  13.165
 6598SOL     OW21690   7.882   4.300   0.220
 6598SOL    HW121691   7.875   4.225   0.279
 6598SOL    HW221692   7.907   4.373   0.277
 6599SOL     OW21693   6.349  10.206   6.134
 6599SOL    HW121694   6.403  10.162   6.068
 6599SOL    HW221695   6.338  10.295   6.101
 6600SOL     OW21696   4.969   7.085  11.383
 6600SOL    HW121697   4.923   7.043  11.455
 6600SOL    HW221698   5.059   7.094  11.414
 6601SOL     OW21699  13.943   3.588   7.860
 6601SOL    HW121700  14.033   3.619   7.872
 6601SOL    HW221701  13.940   3.559   7.769
 6602SOL     OW21702  10.774   0.233   0.094
 6602SOL    HW121703  10.794   0.159   0.036
 6602SOL    HW221704  10.747   0.192   0.176
 6603SOL     OW21705  14.224   2.048  12.395
 6603SOL    HW121706  14.312   2.017  12.416
 6603SOL    HW221707  14.237   2.110  12.324
 6604SOL     OW21708  11.330   1.431   9.216
 6604SOL    HW121709  11.255   1.458   9.163
 6604SOL    HW221710  11.338   1.498   9.284
 6605SOL     OW21711   4.917  11.187  10.379
 6605SOL    HW121712   4.885  11.097  10.380
 6605SOL    HW221713   4.882  11.227  10.458
 6606SOL     OW21714  14.303   8.963   6.972
 6606SOL    HW121715  14.386   8.996   6.939
 6606SOL    HW221716  14.240   8.983   6.902
 6607SOL     OW21717  12.482  13.725   5.100
 6607SOL    HW121718  12.388  13.724   5.081
 6607SOL    HW221719  12.521  13.770   5.025
 6608SOL     OW21720   0.522  12.980   5.457
 6608SOL    HW121721   0.576  13.009   5.530
 6608SOL    HW221722   0.433  12.978   5.493
 6609SOL     OW21723   5.956   2.405  13.976
 6609SOL    HW121724   6.037   2.429  14.019
 6609SOL    HW221725   5.959   2.450  13.891
 6610SOL     OW21726   4.944  12.540   6.759
 6610SOL    HW121727   4.896  12.611   6.717
 6610SOL    HW221728   4.974  12.485   6.687
 6611SOL     OW21729   5.158   7.935   6.815
 6611SOL    HW121730   5.230   7.996   6.802
 6611SOL    HW221731   5.151   7.925   6.910
 6612SOL     OW21732  12.706   2.700   7.043
 6612SOL    HW121733  12.749   2.768   7.095
 6612SOL    HW221734  12.697   2.626   7.102
 6613SOL     OW21735   1.688   4.121   9.776
 6613SOL    HW121736   1.759   4.063   9.749
 6613SOL    HW221737   1.725   4.176   9.845
 6614SOL     OW21738   7.813   2.939  12.197
 6614SOL    HW121739   7.731   2.891  12.192
 6614SOL    HW221740   7.852   2.911  12.280
 6615SOL     OW21741   1.397  11.963  11.744
 6615SOL    HW121742   1.461  11.900  11.776
 6615SOL    HW221743   1.367  11.927  11.660
 6616SOL     OW21744  12.850   8.336  13.464
 6616SOL    HW121745  12.829   8.244  13.478
 6616SOL    HW221746  12.944   8.341  13.477
 6617SOL     OW21747  14.727   7.123  13.642
 6617SOL    HW121748  14.752   7.150  13.554
 6617SOL    HW221749  14.802   7.072  13.673
 6618SOL     OW21750   3.242   8.035   5.966
 6618SOL    HW121751   3.249   8.002   5.876
 6618SOL    HW221752   3.158   8.001   5.998
 6619SOL     OW21753   1.011  13.850   0.709
 6619SOL    HW121754   1.046  13.935   0.737
 6619SOL    HW221755   1.084  13.807   0.666
 6620SOL     OW21756   2.379   7.245   3.313
 6620SOL    HW121757   2.472   7.263   3.294
 6620SOL    HW221758   2.380   7.197   3.396
 6621SOL     OW21759   6.407   1.670   0.152
 6621SOL    HW121760   6.429   1.739   0.214
 6621SOL    HW221761   6.322   1.697   0.116
 6622SOL     OW21762  11.292   0.296   2.585
 6622SOL    HW121763  11.294   0.204   2.558
 6622SOL    HW221764  11.338   0.297   2.669
 6623SOL     OW21765   8.583   7.950   8.377
 6623SOL    HW121766   8.512   7.892   8.348
 6623SOL    HW221767   8.610   7.914   8.462
 6624SOL     OW21768   3.808   9.944  11.411
 6624SOL    HW121769   3.852   9.904  11.336
 6624SOL    HW221770   3.805  10.037  11.390
 6625SOL     OW21771  12.002   0.199   8.462
 6625SOL    HW121772  12.039   0.211   8.374
 6625SOL    HW221773  11.934   0.267   8.469
 6626SOL     OW21774   5.764   3.299  10.675
 6626SOL    HW121775   5.843   3.295  10.728
 6626SOL    HW221776   5.759   3.213  10.634
 6627SOL     OW21777   4.037   4.106   2.023
 6627SOL    HW121778   4.070   4.084   2.110
 6627SOL    HW221779   3.963   4.047   2.009
 6628SOL     OW21780   2.132  10.748   1.979
 6628SOL    HW121781   2.057  10.807   1.980
 6628SOL    HW221782   2.177  10.765   2.062
 6629SOL     OW21783  14.480   9.150   6.280
 6629SOL    HW121784  14.484   9.089   6.354
 6629SOL    HW221785  14.567   9.145   6.240
 6630SOL     OW21786   4.911   6.107  11.058
 6630SOL    HW121787   4.910   6.030  11.115
 6630SOL    HW221788   4.851   6.084  10.986
 6631SOL     OW21789   5.514  10.429   2.756
 6631SOL    HW121790   5.576  10.501   2.763
 6631SOL    HW221791   5.525  10.381   2.838
 6632SOL     OW21792   6.895  10.194  10.141
 6632SOL    HW121793   6.914  10.110  10.181
 6632SOL    HW221794   6.806  10.185  10.106
 6633SOL     OW21795   6.328   4.312   8.193
 6633SOL    HW121796   6.328   4.238   8.253
 6633SOL    HW221797   6.268   4.287   8.124
 6634SOL     OW21798   2.989  13.295  12.458
 6634SOL    HW121799   2.937  13.254  12.390
 6634SOL    HW221800   2.995  13.387  12.431
 6635SOL     OW21801   7.443   9.288  14.123
 6635SOL    HW121802   7.440   9.248  14.036
 6635SOL    HW221803   7.530   9.325  14.129
 6636SOL     OW21804   6.955  11.607   4.496
 6636SOL    HW121805   6.902  11.655   4.560
 6636SOL    HW221806   6.906  11.616   4.414
 6637SOL     OW21807  11.549   1.127  14.504
 6637SOL    HW121808  11.473   1.127  14.446
 6637SOL    HW221809  11.596   1.208  14.483
 6638SOL     OW21810   8.808   9.207   4.418
 6638SOL    HW121811   8.843   9.144   4.481
 6638SOL    HW221812   8.752   9.155   4.361
 6639SOL     OW21813  10.538  10.775   7.419
 6639SOL    HW121814  10.577  10.862   7.416
 6639SOL    HW221815  10.574  10.735   7.499
 6640SOL     OW21816   7.740   7.908   2.504
 6640SOL    HW121817   7.812   7.906   2.441
 6640SOL    HW221818   7.750   7.828   2.555
 6641SOL     OW21819  14.160   5.321  10.578
 6641SOL    HW121820  14.125   5.316  10.667
 6641SOL    HW221821  14.119   5.247  10.532
 6642SOL     OW21822   8.227   1.762   1.984
 6642SOL    HW121823   8.190   1.794   2.066
 6642SOL    HW221824   8.311   1.806   1.976
 6643SOL     OW21825   6.417  10.983   8.253
 6643SOL    HW121826   6.465  10.914   8.298
 6643SOL    HW221827   6.343  10.937   8.213
 6644SOL     OW21828   0.851  10.937   9.074
 6644SOL    HW121829   0.944  10.915   9.061
 6644SOL    HW221830   0.812  10.927   8.987
 6645SOL     OW21831  14.027   4.952   6.255
 6645SOL    HW121832  13.968   4.996   6.194
 6645SOL    HW221833  14.110   4.946   6.207
 6646SOL     OW21834   5.846   7.114  10.112
 6646SOL    HW121835   5.891   7.146  10.190
 6646SOL    HW221836   5.842   7.019  10.123
 6647SOL     OW21837   0.360   1.250   1.320
 6647SOL    HW121838   0.421   1.309   1.364
 6647SOL    HW221839   0.321   1.304   1.250
 6648SOL     OW21840   1.654  10.234  10.788
 6648SOL    HW121841   1.678  10.181  10.864
 6648SOL    HW221842   1.618  10.315  10.826
 6649SOL     OW21843   9.269   7.049   2.017
 6649SOL    HW121844   9.349   6.996   2.015
 6649SOL    HW221845   9.263   7.081   2.107
 6650SOL     OW21846   2.846  14.867   4.774
 6650SOL    HW121847   2.797   0.046   4.707
 6650SOL    HW221848   2.804  14.781   4.776
 6651SOL     OW21849   9.080  11.321  11.495
 6651SOL    HW121850   9.030  11.278  11.426
 6651SOL    HW221851   9.142  11.377  11.449
 6652SOL     OW21852   6.627  12.682   7.685
 6652SOL    HW121853   6.683  12.728   7.748
 6652SOL    HW221854   6.540  12.683   7.725
 6653SOL     OW21855   3.365   3.861   2.264
 6653SOL    HW121856   3.359   3.927   2.195
 6653SOL    HW221857   3.275   3.850   2.294
 6654SOL     OW21858  11.749  14.618   4.958
 6654SOL    HW121859  11.734  14.699   4.908
 6654SOL    HW221860  11.743  14.645   5.050
 6655SOL     OW21861   1.788   5.900   3.288
 6655SOL    HW121862   1.767   5.923   3.378
 6655SOL    HW221863   1.777   5.982   3.239
 6656SOL     OW21864   1.752   7.784  12.550
 6656SOL    HW121865   1.847   7.777  12.562
 6656SOL    HW221866   1.721   7.829  12.629
 6657SOL     OW21867  12.659   7.406   1.010
 6657SOL    HW121868  12.580   7.440   1.052
 6657SOL    HW221869  12.722   7.477   1.016
 6658SOL     OW21870   9.326   1.409  14.052
 6658SOL    HW121871   9.336   1.478  14.118
 6658SOL    HW221872   9.392   1.344  14.075
 6659SOL     OW21873   0.877   6.545  10.442
 6659SOL    HW121874   0.818   6.500  10.381
 6659SOL    HW221875   0.940   6.590  10.386
 6660SOL     OW21876   0.318   5.506  14.459
 6660SOL    HW121877   0.339   5.589  14.418
 6660SOL    HW221878   0.339   5.440  14.393
 6661SOL     OW21879   3.718   6.107  14.075
 6661SOL    HW121880   3.777   6.056  14.019
 6661SOL    HW221881   3.764   6.189  14.091
 6662SOL     OW21882   9.349  13.805   6.976
 6662SOL    HW121883   9.390  13.805   6.890
 6662SOL    HW221884   9.335  13.898   6.996
 6663SOL     OW21885  11.173   5.226  13.849
 6663SOL    HW121886  11.081   5.202  13.841
 6663SOL    HW221887  11.204   5.233  13.758
 6664SOL     OW21888   9.410  14.418   0.153
 6664SOL    HW121889   9.488  14.447   0.201
 6664SOL    HW221890   9.351  14.493   0.155
 6665SOL     OW21891   7.391  14.433   0.333
 6665SOL    HW121892   7.397  14.337   0.337
 6665SOL    HW221893   7.298  14.452   0.343
 6666SOL     OW21894   8.633   0.037  12.189
 6666SOL    HW121895   8.643   0.088  12.269
 6666SOL    HW221896   8.643  14.816  12.217
 6667SOL     OW21897  12.670  10.194  14.331
 6667SOL    HW121898  12.704  10.247  14.403
 6667SOL    HW221899  12.592  10.152  14.367
 6668SOL     OW21900  12.129  12.597   2.148
 6668SOL    HW121901  12.193  12.596   2.077
 6668SOL    HW221902  12.174  12.641   2.220
 6669SOL     OW21903   3.728   5.408  10.921
 6669SOL    HW121904   3.797   5.471  10.901
 6669SOL    HW221905   3.661   5.424  10.854
 6670SOL     OW21906   7.666  14.355   6.534
 6670SOL    HW121907   7.738  14.382   6.590
 6670SOL    HW221908   7.674  14.410   6.456
 6671SOL     OW21909   8.449  11.604  14.306
 6671SOL    HW121910   8.519  11.640  14.361
 6671SOL    HW221911   8.399  11.680  14.278
 6672SOL     OW21912  14.722  10.973   0.052
 6672SOL    HW121913  14.708  11.046  14.861
 6672SOL    HW221914  14.809  10.987   0.087
 6673SOL     OW21915   9.484   6.883  10.329
 6673SOL    HW121916   9.547   6.811  10.332
 6673SOL    HW221917   9.537   6.962  10.337
 6674SOL     OW21918  11.474   6.212  11.723
 6674SOL    HW121919  11.477   6.193  11.629
 6674SOL    HW221920  11.382   6.199  11.747
 6675SOL     OW21921   6.132   1.212  14.596
 6675SOL    HW121922   6.200   1.163  14.642
 6675SOL    HW221923   6.050   1.181  14.634
 6676SOL     OW21924   3.208   9.347  10.385
 6676SOL    HW121925   3.121   9.308  10.395
 6676SOL    HW221926   3.260   9.279  10.341
 6677SOL     OW21927   7.298   0.524  12.708
 6677SOL    HW121928   7.333   0.456  12.765
 6677SOL    HW221929   7.363   0.594  12.712
 6678SOL     OW21930  12.273  14.410   7.650
 6678SOL    HW121931  12.207  14.478   7.651
 6678SOL    HW221932  12.355  14.455   7.668
 6679SOL     OW21933  13.171   7.418   0.315
 6679SOL    HW121934  13.197   7.367   0.391
 6679SOL    HW221935  13.082   7.449   0.336
 6680SOL     OW21936   7.052   5.108   9.062
 6680SOL    HW121937   6.982   5.059   9.106
 6680SOL    HW221938   7.010   5.142   8.983
 6681SOL     OW21939   4.843   6.099   8.812
 6681SOL    HW121940   4.936   6.119   8.821
 6681SOL    HW221941   4.801   6.144   8.885
 6682SOL     OW21942   9.345  11.598   1.713
 6682SOL    HW121943   9.331  11.669   1.652
 6682SOL    HW221944   9.306  11.628   1.795
 6683SOL     OW21945  11.743   0.925  11.569
 6683SOL    HW121946  11.689   0.980  11.512
 6683SOL    HW221947  11.736   0.837  11.531
 6684SOL     OW21948   3.183   7.179   5.097
 6684SOL    HW121949   3.177   7.272   5.122
 6684SOL    HW221950   3.236   7.139   5.165
 6685SOL     OW21951  12.346   1.329   3.628
 6685SOL    HW121952  12.337   1.424   3.637
 6685SOL    HW221953  12.422   1.307   3.682
 6686SOL     OW21954  12.061   6.577  10.797
 6686SOL    HW121955  12.117   6.607  10.869
 6686SOL    HW221956  12.012   6.504  10.835
 6687SOL     OW21957  12.142  14.585  11.176
 6687SOL    HW121958  12.101  14.595  11.262
 6687SOL    HW221959  12.164  14.492  11.171
 6688SOL     OW21960   4.820   9.802   5.869
 6688SOL    HW121961   4.877   9.858   5.817
 6688SOL    HW221962   4.838   9.827   5.960
 6689SOL     OW21963   8.922  13.567  13.928
 6689SOL    HW121964   8.924  13.644  13.985
 6689SOL    HW221965   8.886  13.498  13.984
 6690SOL     OW21966  14.675   4.922   7.056
 6690SOL    HW121967  14.679   5.017   7.068
 6690SOL    HW221968  14.604   4.894   7.115
 6691SOL     OW21969   0.315   1.172   3.486
 6691SOL    HW121970   0.290   1.194   3.576
 6691SOL    HW221971   0.409   1.192   3.482
 6692SOL     OW21972  11.341   9.365   5.856
 6692SOL    HW121973  11.315   9.448   5.816
 6692SOL    HW221974  11.259   9.317   5.868
 6693SOL     OW21975   4.605  10.748  10.593
 6693SOL    HW121976   4.696  10.735  10.567
 6693SOL    HW221977   4.556  10.687  10.538
 6694SOL     OW21978  12.172   8.075   9.494
 6694SOL    HW121979  12.155   8.033   9.578
 6694SOL    HW221980  12.203   8.162   9.516
 6695SOL     OW21981   8.927   1.412   1.161
 6695SOL    HW121982   8.840   1.448   1.177
 6695SOL    HW221983   8.929   1.330   1.210
 6696SOL     OW21984   5.971  14.683   0.020
 6696SOL    HW121985   5.970  14.762  14.835
 6696SOL    HW221986   5.884  14.646   0.011
 6697SOL     OW21987  14.793   6.947   4.645
 6697SOL    HW121988  14.749   6.994   4.716
 6697SOL    HW221989  14.740   6.868   4.632
 6698SOL     OW21990  13.868   3.913   4.396
 6698SOL    HW121991  13.941   3.876   4.345
 6698SOL    HW221992  13.801   3.932   4.330
 6699SOL     OW21993  12.967  12.933   2.244
 6699SOL    HW121994  13.013  12.850   2.251
 6699SOL    HW221995  12.969  12.955   2.151
 6700SOL     OW21996   8.708  12.730   7.383
 6700SOL    HW121997   8.750  12.762   7.463
 6700SOL    HW221998   8.620  12.768   7.384
 6701SOL     OW21999  14.148  10.060   1.316
 6701SOL    HW122000  14.164   9.968   1.293
 6701SOL    HW222001  14.117  10.057   1.406
 6702SOL     OW22002   2.439  13.067  11.877
 6702SOL    HW122003   2.519  13.019  11.895
 6702SOL    HW222004   2.369  13.007  11.903
 6703SOL     OW22005  11.588  14.696   2.801
 6703SOL    HW122006  11.493  14.698   2.817
 6703SOL    HW222007  11.609  14.603   2.792
 6704SOL     OW22008   3.036   6.021  11.197
 6704SOL    HW122009   3.027   5.926  11.191
 6704SOL    HW222010   3.111   6.041  11.142
 6705SOL     OW22011  14.518   0.772   8.522
 6705SOL    HW122012  14.606   0.767   8.560
 6705SOL    HW222013  14.484   0.683   8.528
 6706SOL     OW22014  10.537   0.061   3.759
 6706SOL    HW122015  10.451   0.072   3.718
 6706SOL    HW222016  10.530   0.108   3.842
 6707SOL     OW22017  14.155   3.673  14.360
 6707SOL    HW122018  14.184   3.662  14.451
 6707SOL    HW222019  14.221   3.729  14.321
 6708SOL     OW22020   1.366   5.140   4.420
 6708SOL    HW122021   1.309   5.217   4.425
 6708SOL    HW222022   1.310   5.067   4.448
 6709SOL     OW22023  10.405   4.506  12.855
 6709SOL    HW122024  10.372   4.576  12.912
 6709SOL    HW222025  10.406   4.545  12.768
 6710SOL     OW22026   2.947   7.467   6.454
 6710SOL    HW122027   2.915   7.399   6.514
 6710SOL    HW222028   3.041   7.455   6.452
 6711SOL     OW22029   6.194  11.113   9.583
 6711SOL    HW122030   6.131  11.117   9.655
 6711SOL    HW222031   6.196  11.202   9.548
 6712SOL     OW22032   3.492   1.004  10.335
 6712SOL    HW122033   3.561   0.958  10.287
 6712SOL    HW222034   3.539   1.069  10.388
 6713SOL     OW22035   1.363   8.806   7.688
 6713SOL    HW122036   1.429   8.839   7.627
 6713SOL    HW222037   1.364   8.869   7.760
 6714SOL     OW22038   8.068   9.421   6.390
 6714SOL    HW122039   8.050   9.446   6.481
 6714SOL    HW222040   8.014   9.480   6.338
 6715SOL     OW22041   6.889   6.355   3.381
 6715SOL    HW122042   6.965   6.299   3.400
 6715SOL    HW222043   6.885   6.415   3.455
 6716SOL     OW22044   5.994   1.124  14.178
 6716SOL    HW122045   6.065   1.062  14.195
 6716SOL    HW222046   5.916   1.070  14.171
 6717SOL     OW22047   6.441   7.440   5.676
 6717SOL    HW122048   6.464   7.347   5.674
 6717SOL    HW222049   6.346   7.441   5.671
 6718SOL     OW22050   2.205   7.586   8.136
 6718SOL    HW122051   2.132   7.638   8.102
 6718SOL    HW222052   2.220   7.519   8.069
 6719SOL     OW22053   3.076   7.199  10.289
 6719SOL    HW122054   3.045   7.152  10.211
 6719SOL    HW222055   3.172   7.196  10.282
 6720SOL     OW22056   0.617  12.656  14.782
 6720SOL    HW122057   0.621  12.628  14.691
 6720SOL    HW222058   0.708  12.652  14.813
 6721SOL     OW22059   0.901   3.100   5.033
 6721SOL    HW122060   0.813   3.134   5.018
 6721SOL    HW222061   0.944   3.169   5.084
 6722SOL     OW22062   4.823   7.465   6.010
 6722SOL    HW122063   4.836   7.473   5.916
 6722SOL    HW222064   4.836   7.372   6.028
 6723SOL     OW22065   9.960   0.411   6.558
 6723SOL    HW122066   9.943   0.469   6.484
 6723SOL    HW222067  10.055   0.412   6.568
 6724SOL     OW22068   9.556   1.323   7.738
 6724SOL    HW122069   9.615   1.380   7.788
 6724SOL    HW222070   9.469   1.342   7.774
 6725SOL     OW22071   4.111  11.019   6.206
 6725SOL    HW122072   4.157  10.935   6.205
 6725SOL    HW222073   4.105  11.041   6.299
 6726SOL     OW22074   3.881  10.831  11.544
 6726SOL    HW122075   3.884  10.811  11.450
 6726SOL    HW222076   3.927  10.915  11.552
 6727SOL     OW22077   1.945   5.789   5.189
 6727SOL    HW122078   2.023   5.840   5.212
 6727SOL    HW222079   1.966   5.751   5.104
 6728SOL     OW22080   8.095   7.383   5.730
 6728SOL    HW122081   8.137   7.465   5.756
 6728SOL    HW222082   8.167   7.319   5.727
 6729SOL     OW22083   3.032   7.946   4.013
 6729SOL    HW122084   3.121   7.962   3.980
 6729SOL    HW222085   3.010   7.858   3.983
 6730SOL     OW22086  13.044  12.372  13.680
 6730SOL    HW122087  12.978  12.304  13.666
 6730SOL    HW222088  13.080  12.388  13.593
 6731SOL     OW22089   0.934   5.979   1.500
 6731SOL    HW122090   0.943   5.961   1.406
 6731SOL    HW222091   0.860   5.925   1.527
 6732SOL     OW22092   7.524  10.935   5.589
 6732SOL    HW122093   7.551  10.850   5.555
 6732SOL    HW222094   7.527  10.925   5.684
 6733SOL     OW22095   2.694   8.471   4.492
 6733SOL    HW122096   2.774   8.419   4.504
 6733SOL    HW222097   2.667   8.494   4.580
 6734SOL     OW22098  10.846   8.689   4.601
 6734SOL    HW122099  10.767   8.639   4.621
 6734SOL    HW222100  10.855   8.681   4.506
 6735SOL     OW22101  14.191  13.282  10.123
 6735SOL    HW122102  14.117  13.338  10.097
 6735SOL    HW222103  14.161  13.193  10.102
 6736SOL     OW22104  14.713   5.389   4.421
 6736SOL    HW122105  14.764   5.311   4.399
 6736SOL    HW222106  14.717   5.444   4.342
 6737SOL     OW22107   2.730   1.740   7.761
 6737SOL    HW122108   2.781   1.675   7.713
 6737SOL    HW222109   2.784   1.762   7.837
 6738SOL     OW22110   2.945  14.176   0.905
 6738SOL    HW122111   2.974  14.265   0.884
 6738SOL    HW222112   2.857  14.188   0.941
 6739SOL     OW22113  10.965  12.020   4.819
 6739SOL    HW122114  11.034  11.954   4.823
 6739SOL    HW222115  11.004  12.095   4.775
 6740SOL     OW22116   7.783  10.038   2.810
 6740SOL    HW122117   7.800  10.092   2.886
 6740SOL    HW222118   7.743   9.958   2.845
 6741SOL     OW22119   3.847   1.642   1.555
 6741SOL    HW122120   3.902   1.618   1.480
 6741SOL    HW222121   3.886   1.596   1.629
 6742SOL     OW22122  13.938  12.688   4.665
 6742SOL    HW122123  14.028  12.675   4.694
 6742SOL    HW222124  13.939  12.666   4.572
 6743SOL     OW22125   0.929   8.373   4.073
 6743SOL    HW122126   0.936   8.390   3.979
 6743SOL    HW222127   0.913   8.279   4.080
 6744SOL     OW22128   9.318  11.623   4.359
 6744SOL    HW122129   9.358  11.683   4.296
 6744SOL    HW222130   9.363  11.540   4.344
 6745SOL     OW22131  10.533  12.215  14.614
 6745SOL    HW122132  10.624  12.187  14.602
 6745SOL    HW222133  10.538  12.311  14.612
 6746SOL     OW22134  10.382   7.130   7.682
 6746SOL    HW122135  10.318   7.062   7.703
 6746SOL    HW222136  10.460   7.105   7.731
 6747SOL     OW22137  13.478   8.149   1.838
 6747SOL    HW122138  13.465   8.067   1.887
 6747SOL    HW222139  13.391   8.188   1.833
 6748SOL     OW22140  12.466   9.270  14.847
 6748SOL    HW122141  12.402   9.243  14.782
 6748SOL    HW222142  12.492   9.358  14.820
 6749SOL     OW22143  11.742   1.863   7.008
 6749SOL    HW122144  11.826   1.902   6.985
 6749SOL    HW222145  11.694   1.933   7.052
 6750SOL     OW22146   3.145   1.514  12.776
 6750SOL    HW122147   3.167   1.605  12.755
 6750SOL    HW222148   3.227   1.467  12.767
 6751SOL     OW22149   7.609  13.238   2.880
 6751SOL    HW122150   7.690  13.281   2.910
 6751SOL    HW222151   7.638  13.181   2.809
 6752SOL     OW22152   0.469   9.402   2.727
 6752SOL    HW122153   0.528   9.343   2.774
 6752SOL    HW222154   0.513   9.487   2.730
 6753SOL     OW22155   6.721   6.000   2.215
 6753SOL    HW122156   6.780   6.056   2.164
 6753SOL    HW222157   6.693   6.055   2.288
 6754SOL     OW22158  12.889   7.004   7.092
 6754SOL    HW122159  12.960   6.939   7.092
 6754SOL    HW222160  12.913   7.065   7.021
 6755SOL     OW22161   5.287   2.504  11.734
 6755SOL    HW122162   5.277   2.413  11.708
 6755SOL    HW222163   5.367   2.533  11.689
 6756SOL     OW22164   4.790   2.031  13.557
 6756SOL    HW122165   4.809   2.052  13.648
 6756SOL    HW222166   4.748   2.110  13.522
 6757SOL     OW22167   1.981   9.221   3.967
 6757SOL    HW122168   1.956   9.306   4.002
 6757SOL    HW222169   2.070   9.207   3.999
 6758SOL     OW22170  12.623   4.523   8.610
 6758SOL    HW122171  12.676   4.597   8.582
 6758SOL    HW222172  12.594   4.545   8.698
 6759SOL     OW22173   2.883  13.943   7.982
 6759SOL    HW122174   2.893  13.977   8.071
 6759SOL    HW222175   2.846  13.856   7.993
 6760SOL     OW22176  11.609   4.843  11.845
 6760SOL    HW122177  11.596   4.938  11.852
 6760SOL    HW222178  11.703   4.831  11.852
 6761SOL     OW22179   2.123  13.805   5.390
 6761SOL    HW122180   2.109  13.895   5.360
 6761SOL    HW222181   2.194  13.812   5.454
 6762SOL     OW22182   2.715   1.282  10.476
 6762SOL    HW122183   2.734   1.374  10.494
 6762SOL    HW222184   2.631   1.266  10.517
 6763SOL     OW22185   4.923   2.519   3.668
 6763SOL    HW122186   5.005   2.472   3.657
 6763SOL    HW222187   4.939   2.582   3.738
 6764SOL     OW22188  11.890   0.914  11.274
 6764SOL    HW122189  11.962   0.925  11.211
 6764SOL    HW222190  11.842   0.996  11.270
 6765SOL     OW22191   6.564   0.664   1.460
 6765SOL    HW122192   6.557   0.608   1.383
 6765SOL    HW222193   6.482   0.712   1.463
 6766SOL     OW22194   5.521   1.464  13.683
 6766SOL    HW122195   5.548   1.553  13.659
 6766SOL    HW222196   5.426   1.471  13.695
 6767SOL     OW22197   2.333   2.056   0.701
 6767SOL    HW122198   2.299   2.007   0.626
 6767SOL    HW222199   2.316   2.147   0.680
 6768SOL     OW22200  11.141   7.848   7.185
 6768SOL    HW122201  11.113   7.936   7.159
 6768SOL    HW222202  11.088   7.789   7.131
 6769SOL     OW22203   9.385   0.951   3.961
 6769SOL    HW122204   9.438   0.910   3.893
 6769SOL    HW222205   9.447   0.978   4.028
 6770SOL     OW22206  10.955   0.193   5.221
 6770SOL    HW122207  11.013   0.118   5.225
 6770SOL    HW222208  10.997   0.260   5.276
 6771SOL     OW22209  12.025  12.503   6.673
 6771SOL    HW122210  11.943  12.454   6.678
 6771SOL    HW222211  12.000  12.593   6.694
 6772SOL     OW22212   0.844   4.260   1.935
 6772SOL    HW122213   0.803   4.346   1.940
 6772SOL    HW222214   0.854   4.243   1.841
 6773SOL     OW22215  11.862   7.812   7.521
 6773SOL    HW122216  11.812   7.815   7.604
 6773SOL    HW222217  11.795   7.816   7.453
 6774SOL     OW22218  13.593  14.811   0.256
 6774SOL    HW122219  13.582  14.801   0.161
 6774SOL    HW222220  13.576  14.724   0.292
 6775SOL     OW22221  12.078   9.268  12.801
 6775SOL    HW122222  12.088   9.363  12.789
 6775SOL    HW222223  12.147   9.245  12.864
 6776SOL     OW22224  14.297  11.271  12.224
 6776SOL    HW122225  14.218  11.272  12.169
 6776SOL    HW222226  14.355  11.334  12.181
 6777SOL     OW22227  14.385   3.827   9.030
 6777SOL    HW122228  14.477   3.851   9.021
 6777SOL    HW222229  14.370   3.764   8.960
 6778SOL     OW22230   9.383   9.161   1.652
 6778SOL    HW122231   9.471   9.195   1.635
 6778SOL    HW222232   9.324   9.229   1.619
 6779SOL     OW22233   0.849   9.298   9.237
 6779SOL    HW122234   0.896   9.273   9.157
 6779SOL    HW222235   0.785   9.362   9.208
 6780SOL     OW22236   8.596   4.675  10.807
 6780SOL    HW122237   8.645   4.674  10.890
 6780SOL    HW222238   8.615   4.760  10.769
 6781SOL     OW22239  13.083  12.063   3.293
 6781SOL    HW122240  13.056  12.104   3.375
 6781SOL    HW222241  13.015  11.998   3.275
 6782SOL     OW22242   3.555   7.015   8.262
 6782SOL    HW122243   3.632   7.018   8.204
 6782SOL    HW222244   3.583   7.063   8.340
 6783SOL     OW22245   4.770  12.570   5.736
 6783SOL    HW122246   4.829  12.612   5.798
 6783SOL    HW222247   4.789  12.477   5.742
 6784SOL     OW22248   7.925   2.457   8.607
 6784SOL    HW122249   7.948   2.542   8.644
 6784SOL    HW222250   7.838   2.470   8.569
 6785SOL     OW22251   8.423   3.277   7.069
 6785SOL    HW122252   8.389   3.295   7.157
 6785SOL    HW222253   8.359   3.316   7.010
 6786SOL     OW22254   2.100  11.063   0.295
 6786SOL    HW122255   2.139  11.125   0.233
 6786SOL    HW222256   2.093  11.112   0.377
 6787SOL     OW22257   3.956  14.469   0.685
 6787SOL    HW122258   3.989  14.386   0.720
 6787SOL    HW222259   3.936  14.521   0.763
 6788SOL     OW22260   3.482   6.330  14.250
 6788SOL    HW122261   3.545   6.401  14.243
 6788SOL    HW222262   3.396   6.372  14.239
 6789SOL     OW22263   5.984   1.017   4.372
 6789SOL    HW122264   5.948   1.095   4.416
 6789SOL    HW222265   6.075   1.012   4.402
 6790SOL     OW22266   0.585   2.614   4.542
 6790SOL    HW122267   0.631   2.638   4.461
 6790SOL    HW222268   0.557   2.698   4.579
 6791SOL     OW22269   2.286   9.300  12.956
 6791SOL    HW122270   2.328   9.293  13.043
 6791SOL    HW222271   2.207   9.246  12.963
 6792SOL     OW22272   5.494   8.946   6.014
 6792SOL    HW122273   5.441   8.873   5.984
 6792SOL    HW222274   5.507   8.929   6.108
 6793SOL     OW22275  13.747   5.594  11.305
 6793SOL    HW122276  13.736   5.646  11.225
 6793SOL    HW222277  13.781   5.510  11.275
 6794SOL     OW22278   4.328   0.125  14.524
 6794SOL    HW122279   4.381   0.091  14.597
 6794SOL    HW222280   4.337   0.220  14.531
 6795SOL     OW22281   4.431   6.545   8.850
 6795SOL    HW122282   4.486   6.496   8.911
 6795SOL    HW222283   4.449   6.506   8.765
 6796SOL     OW22284  11.883   2.958  13.952
 6796SOL    HW122285  11.917   3.035  13.906
 6796SOL    HW222286  11.838   2.907  13.885
 6797SOL     OW22287   5.708  14.381  10.772
 6797SOL    HW122288   5.640  14.314  10.760
 6797SOL    HW222289   5.788  14.338  10.742
 6798SOL     OW22290   1.074   2.557   9.613
 6798SOL    HW122291   1.072   2.631   9.553
 6798SOL    HW222292   1.123   2.489   9.567
 6799SOL     OW22293  10.679   7.870   1.122
 6799SOL    HW122294  10.710   7.887   1.034
 6799SOL    HW222295  10.642   7.782   1.118
 6800SOL     OW22296  11.045   6.348  11.716
 6800SOL    HW122297  11.106   6.401  11.768
 6800SOL    HW222298  10.976   6.325  11.777
 6801SOL     OW22299   3.827   7.479   3.321
 6801SOL    HW122300   3.892   7.508   3.385
 6801SOL    HW222301   3.851   7.388   3.302
 6802SOL     OW22302   1.178   4.104   2.152
 6802SOL    HW122303   1.258   4.147   2.122
 6802SOL    HW222304   1.131   4.172   2.201
 6803SOL     OW22305  12.301  13.894  13.578
 6803SOL    HW122306  12.320  13.805  13.550
 6803SOL    HW222307  12.253  13.932  13.505
 6804SOL     OW22308  14.690   2.889   6.217
 6804SOL    HW122309  14.651   2.829   6.281
 6804SOL    HW222310  14.770   2.920   6.260
 6805SOL     OW22311  13.158   6.449   1.096
 6805SOL    HW122312  13.068   6.428   1.070
 6805SOL    HW222313  13.212   6.405   1.030
 6806SOL     OW22314  14.703  12.426  12.046
 6806SOL    HW122315  14.630  12.365  12.038
 6806SOL    HW222316  14.661  12.512  12.055
 6807SOL     OW22317   7.561   3.178  13.652
 6807SOL    HW122318   7.521   3.092  13.637
 6807SOL    HW222319   7.528   3.205  13.738
 6808SOL     OW22320   9.101   9.263   3.736
 6808SOL    HW122321   9.067   9.249   3.824
 6808SOL    HW222322   9.036   9.226   3.678
 6809SOL     OW22323   5.692  11.787   1.749
 6809SOL    HW122324   5.719  11.875   1.776
 6809SOL    HW222325   5.603  11.799   1.714
 6810SOL     OW22326   0.856  12.178  10.987
 6810SOL    HW122327   0.949  12.179  10.967
 6810SOL    HW222328   0.851  12.150  11.078
 6811SOL     OW22329  13.403   0.365   5.760
 6811SOL    HW122330  13.477   0.419   5.786
 6811SOL    HW222331  13.348   0.360   5.837
 6812SOL     OW22332   5.333   4.641   8.220
 6812SOL    HW122333   5.403   4.579   8.241
 6812SOL    HW222334   5.379   4.720   8.190
 6813SOL     OW22335  14.221   1.248   9.106
 6813SOL    HW122336  14.244   1.315   9.171
 6813SOL    HW222337  14.261   1.168   9.139
 6814SOL     OW22338   4.821   5.082   9.551
 6814SOL    HW122339   4.764   5.007   9.570
 6814SOL    HW222340   4.899   5.043   9.512
 6815SOL     OW22341   8.791  13.366   4.481
 6815SOL    HW122342   8.783  13.371   4.386
 6815SOL    HW222343   8.821  13.453   4.507
 6816SOL     OW22344   6.684   3.067   8.599
 6816SOL    HW122345   6.642   3.038   8.518
 6816SOL    HW222346   6.619   3.123   8.641
 6817SOL     OW22347  12.409   1.435  12.016
 6817SOL    HW122348  12.499   1.409  11.997
 6817SOL    HW222349  12.369   1.359  12.057
 6818SOL     OW22350  11.193  10.776   1.618
 6818SOL    HW122351  11.236  10.714   1.677
 6818SOL    HW222352  11.100  10.771   1.641
 6819SOL     OW22353   2.907  12.522  10.290
 6819SOL    HW122354   2.846  12.573  10.343
 6819SOL    HW222355   2.863  12.438  10.276
 6820SOL     OW22356   8.399   5.007   1.732
 6820SOL    HW122357   8.389   5.078   1.668
 6820SOL    HW222358   8.494   5.000   1.744
 6821SOL     OW22359   7.230   7.315   7.285
 6821SOL    HW122360   7.287   7.322   7.208
 6821SOL    HW222361   7.142   7.305   7.249
 6822SOL     OW22362   8.543   3.914  11.338
 6822SOL    HW122363   8.450   3.923  11.319
 6822SOL    HW222364   8.578   4.003  11.330
 6823SOL     OW22365  10.546   3.679  11.224
 6823SOL    HW122366  10.556   3.641  11.311
 6823SOL    HW222367  10.548   3.773  11.238
 6824SOL     OW22368   6.935  11.939   2.866
 6824SOL    HW122369   7.015  11.887   2.857
 6824SOL    HW222370   6.920  11.943   2.960
 6825SOL     OW22371   1.106   1.213   4.835
 6825SOL    HW122372   1.192   1.202   4.875
 6825SOL    HW222373   1.116   1.176   4.747
 6826SOL     OW22374  11.187  10.400  12.106
 6826SOL    HW122375  11.181  10.448  12.189
 6826SOL    HW222376  11.281  10.384  12.094
 6827SOL     OW22377   5.548   6.671   1.291
 6827SOL    HW122378   5.600   6.670   1.372
 6827SOL    HW222379   5.579   6.748   1.244
 6828SOL     OW22380  12.711  13.189  11.069
 6828SOL    HW122381  12.742  13.279  11.060
 6828SOL    HW222382  12.790  13.138  11.085
 6829SOL     OW22383   5.826  12.776   5.833
 6829SOL    HW122384   5.856  12.794   5.744
 6829SOL    HW222385   5.731  12.766   5.826
 6830SOL     OW22386   5.311  11.282   3.683
 6830SOL    HW122387   5.352  11.351   3.735
 6830SOL    HW222388   5.377  11.257   3.619
 6831SOL     OW22389   2.075   1.077   8.528
 6831SOL    HW122390   2.050   1.029   8.448
 6831SOL    HW222391   2.113   1.010   8.585
 6832SOL     OW22392  11.888   5.654   0.462
 6832SOL    HW122393  11.932   5.666   0.547
 6832SOL    HW222394  11.834   5.732   0.452
 6833SOL     OW22395  14.058   5.727  14.727
 6833SOL    HW122396  14.104   5.804  14.693
 6833SOL    HW222397  13.978   5.721  14.674
 6834SOL     OW22398   4.127   0.043   6.579
 6834SOL    HW122399   4.191   0.043   6.650
 6834SOL    HW222400   4.053  14.863   6.614
 6835SOL     OW22401   2.141   1.165  12.526
 6835SOL    HW122402   2.048   1.180  12.512
 6835SOL    HW222403   2.163   1.092  12.468
 6836SOL     OW22404   3.439   1.189  14.291
 6836SOL    HW122405   3.365   1.145  14.331
 6836SOL    HW222406   3.399   1.256  14.235
 6837SOL     OW22407   8.261   7.401   1.749
 6837SOL    HW122408   8.330   7.377   1.688
 6837SOL    HW222409   8.307   7.446   1.820
 6838SOL     OW22410   6.953   8.002   0.875
 6838SOL    HW122411   6.902   7.922   0.883
 6838SOL    HW222412   7.040   7.973   0.848
 6839SOL     OW22413   9.535   1.310   2.168
 6839SOL    HW122414   9.531   1.340   2.259
 6839SOL    HW222415   9.509   1.387   2.117
 6840SOL     OW22416   8.099  11.843  14.525
 6840SOL    HW122417   8.069  11.755  14.502
 6840SOL    HW222418   8.094  11.892  14.443
 6841SOL     OW22419   5.001  14.572  14.462
 6841SOL    HW122420   4.925  14.547  14.515
 6841SOL    HW222421   5.004  14.667  14.469
 6842SOL     OW22422  11.856   0.115  13.110
 6842SOL    HW122423  11.951   0.118  13.097
 6842SOL    HW222424  11.843   0.045  13.174
 6843SOL     OW22425  13.291   7.293  12.553
 6843SOL    HW122426  13.254   7.308  12.466
 6843SOL    HW222427  13.360   7.360  12.561
 6844SOL     OW22428   9.127   1.517   1.042
 6844SOL    HW122429   9.048   1.468   1.065
 6844SOL    HW222430   9.174   1.460   0.981
 6845SOL     OW22431  11.565  14.457  11.863
 6845SOL    HW122432  11.552  14.363  11.873
 6845SOL    HW222433  11.520  14.496  11.938
 6846SOL     OW22434  13.396   8.202  12.380
 6846SOL    HW122435  13.396   8.283  12.432
 6846SOL    HW222436  13.303   8.179  12.373
 6847SOL     OW22437   6.555  10.485   1.641
 6847SOL    HW122438   6.638  10.459   1.682
 6847SOL    HW222439   6.515  10.402   1.613
 6848SOL     OW22440   9.081   1.682  11.658
 6848SOL    HW122441   9.106   1.773  11.673
 6848SOL    HW222442   9.162   1.632  11.669
 6849SOL     OW22443  12.194   0.863   0.193
 6849SOL    HW122444  12.184   0.858   0.098
 6849SOL    HW222445  12.288   0.854   0.208
 6850SOL     OW22446  11.854   1.472   3.785
 6850SOL    HW122447  11.858   1.562   3.816
 6850SOL    HW222448  11.896   1.474   3.699
 6851SOL     OW22449  12.302   2.301   9.459
 6851SOL    HW122450  12.325   2.208   9.463
 6851SOL    HW222451  12.367   2.339   9.401
 6852SOL     OW22452  10.757   4.192  14.539
 6852SOL    HW122453  10.757   4.172  14.633
 6852SOL    HW222454  10.716   4.278  14.533
 6853SOL     OW22455  11.988   4.048   9.996
 6853SOL    HW122456  11.905   4.083  10.027
 6853SOL    HW222457  12.020   3.995  10.070
 6854SOL     OW22458   7.559   4.911  12.919
 6854SOL    HW122459   7.530   4.844  12.857
 6854SOL    HW222460   7.572   4.865  13.001
 6855SOL     OW22461   1.222   1.026  10.487
 6855SOL    HW122462   1.220   0.936  10.457
 6855SOL    HW222463   1.199   1.078  10.410
 6856SOL     OW22464   6.051  13.072  11.607
 6856SOL    HW122465   6.087  13.012  11.542
 6856SOL    HW222466   6.122  13.135  11.624
 6857SOL     OW22467  11.253  12.167   8.647
 6857SOL    HW122468  11.258  12.229   8.575
 6857SOL    HW222469  11.162  12.167   8.674
 6858SOL     OW22470   6.454   7.755   2.282
 6858SOL    HW122471   6.450   7.663   2.259
 6858SOL    HW222472   6.368   7.775   2.317
 6859SOL     OW22473   1.574   4.844  11.221
 6859SOL    HW122474   1.648   4.866  11.277
 6859SOL    HW222475   1.502   4.829  11.282
 6860SOL     OW22476  10.870  14.190   1.132
 6860SOL    HW122477  10.961  14.167   1.144
 6860SOL    HW222478  10.872  14.281   1.100
 6861SOL     OW22479   4.999   3.825   0.492
 6861SOL    HW122480   5.056   3.890   0.533
 6861SOL    HW222481   4.923   3.875   0.462
 6862SOL     OW22482  13.923  12.873   0.002
 6862SOL    HW122483  13.829  12.875   0.022
 6862SOL    HW222484  13.940  12.783  14.843
 6863SOL     OW22485   2.274   3.336   7.547
 6863SOL    HW122486   2.313   3.267   7.493
 6863SOL    HW222487   2.342   3.403   7.552
 6864SOL     OW22488  10.162   7.685   2.119
 6864SOL    HW122489  10.074   7.648   2.121
 6864SOL    HW222490  10.183   7.704   2.211
 6865SOL     OW22491   8.719   6.059   1.344
 6865SOL    HW122492   8.748   6.009   1.267
 6865SOL    HW222493   8.718   6.150   1.315
 6866SOL     OW22494  12.404   1.248   7.596
 6866SOL    HW122495  12.386   1.179   7.660
 6866SOL    HW222496  12.326   1.251   7.541
 6867SOL     OW22497   6.011   5.351   0.154
 6867SOL    HW122498   5.976   5.438   0.171
 6867SOL    HW222499   6.062   5.330   0.232
 6868SOL     OW22500   2.372   1.732   1.717
 6868SOL    HW122501   2.411   1.771   1.796
 6868SOL    HW222502   2.425   1.765   1.645
 6869SOL     OW22503   4.537   6.718   1.885
 6869SOL    HW122504   4.506   6.681   1.802
 6869SOL    HW222505   4.499   6.661   1.952
 6870SOL     OW22506  11.112   9.666   9.049
 6870SOL    HW122507  11.062   9.745   9.072
 6870SOL    HW222508  11.104   9.610   9.126
 6871SOL     OW22509   1.968   0.286   2.040
 6871SOL    HW122510   1.974   0.380   2.027
 6871SOL    HW222511   1.963   0.250   1.951
 6872SOL     OW22512  13.849  14.427  12.509
 6872SOL    HW122513  13.862  14.375  12.588
 6872SOL    HW222514  13.830  14.515  12.541
 6873SOL     OW22515   1.927  12.450   3.396
 6873SOL    HW122516   1.957  12.484   3.311
 6873SOL    HW222517   1.955  12.517   3.459
 6874SOL     OW22518   2.855  13.374  10.235
 6874SOL    HW122519   2.772  13.419  10.217
 6874SOL    HW222520   2.847  13.345  10.326
 6875SOL     OW22521   3.659  12.761   9.447
 6875SOL    HW122522   3.744  12.744   9.488
 6875SOL    HW222523   3.607  12.803   9.514
 6876SOL     OW22524  12.011   0.712  12.083
 6876SOL    HW122525  11.928   0.760  12.074
 6876SOL    HW222526  12.034   0.721  12.176
 6877SOL     OW22527  13.051  10.972   7.940
 6877SOL    HW122528  13.102  10.955   8.019
 6877SOL    HW222529  13.116  10.998   7.875
 6878SOL     OW22530   4.551   9.556   5.134
 6878SOL    HW122531   4.531   9.471   5.174
 6878SOL    HW222532   4.474   9.577   5.081
 6879SOL     OW22533  10.027   0.109   6.585
 6879SOL    HW122534  10.084   0.123   6.509
 6879SOL    HW222535   9.956   0.054   6.552
 6880SOL     OW22536   1.085  12.991   2.087
 6880SOL    HW122537   1.092  12.941   2.006
 6880SOL    HW222538   1.072  12.926   2.155
 6881SOL     OW22539  11.068   8.138  14.796
 6881SOL    HW122540  11.063   8.234  14.788
 6881SOL    HW222541  11.118   8.123   0.006
 6882SOL     OW22542   9.649  13.668  14.523
 6882SOL    HW122543   9.672  13.743  14.578
 6882SOL    HW222544   9.593  13.614  14.578
 6883SOL     OW22545   2.373   7.067  10.609
 6883SOL    HW122546   2.460   7.088  10.572
 6883SOL    HW222547   2.378   6.974  10.631
 6884SOL     OW22548   6.668  12.875   0.005
 6884SOL    HW122549   6.635  12.963  14.860
 6884SOL    HW222550   6.671  12.836  14.787
 6885SOL     OW22551   0.266   9.036   2.087
 6885SOL    HW122552   0.224   8.986   2.157
 6885SOL    HW222553   0.350   9.063   2.122
 6886SOL     OW22554   3.637  11.907   5.455
 6886SOL    HW122555   3.542  11.918   5.452
 6886SOL    HW222556   3.664  11.955   5.533
 6887SOL     OW22557   9.499   5.749  11.903
 6887SOL    HW122558   9.570   5.685  11.894
 6887SOL    HW222559   9.544   5.831  11.926
 6888SOL     OW22560   8.039   3.466  10.229
 6888SOL    HW122561   8.020   3.534  10.293
 6888SOL    HW222562   7.973   3.398  10.245
 6889SOL     OW22563  14.416  12.211   8.689
 6889SOL    HW122564  14.462  12.185   8.610
 6889SOL    HW222565  14.481  12.260   8.740
 6890SOL     OW22566   0.745   6.851   3.394
 6890SOL    HW122567   0.708   6.842   3.306
 6890SOL    HW222568   0.779   6.940   3.397
 6891SOL     OW22569  11.638   7.790  13.329
 6891SOL    HW122570  11.571   7.758  13.389
 6891SOL    HW222571  11.697   7.842  13.385
 6892SOL     OW22572  10.154   3.124   8.614
 6892SOL    HW122573  10.179   3.217   8.604
 6892SOL    HW222574  10.097   3.123   8.691
 6893SOL     OW22575  13.104  12.160   2.911
 6893SOL    HW122576  13.158  12.222   2.962
 6893SOL    HW222577  13.025  12.148   2.963
 6894SOL     OW22578   3.012  10.151   3.379
 6894SOL    HW122579   2.973  10.119   3.298
 6894SOL    HW222580   2.958  10.226   3.403
 6895SOL     OW22581  11.740   8.958  13.161
 6895SOL    HW122582  11.730   8.893  13.091
 6895SOL    HW222583  11.705   9.039  13.124
 6896SOL     OW22584   6.781   5.935   7.974
 6896SOL    HW122585   6.819   5.885   8.047
 6896SOL    HW222586   6.852   5.992   7.944
 6897SOL     OW22587   2.794   9.689   5.002
 6897SOL    HW122588   2.762   9.702   5.091
 6897SOL    HW222589   2.721   9.713   4.946
 6898SOL     OW22590  12.477  14.592   8.899
 6898SOL    HW122591  12.520  14.653   8.838
 6898SOL    HW222592  12.548  14.561   8.955
 6899SOL     OW22593   6.798   8.162   0.270
 6899SOL    HW122594   6.775   8.246   0.231
 6899SOL    HW222595   6.892   8.153   0.253
 6900SOL     OW22596  14.756   5.880   0.041
 6900SOL    HW122597  14.833   5.871  14.855
 6900SOL    HW222598  14.762   5.969   0.076
 6901SOL     OW22599   6.151   3.803   8.117
 6901SOL    HW122600   6.164   3.813   8.023
 6901SOL    HW222601   6.240   3.791   8.152
 6902SOL     OW22602   1.813   2.533   9.225
 6902SOL    HW122603   1.788   2.474   9.154
 6902SOL    HW222604   1.731   2.554   9.269
 6903SOL     OW22605  14.643  12.846  14.379
 6903SOL    HW122606  14.550  12.861  14.363
 6903SOL    HW222607  14.671  12.919  14.434
 6904SOL     OW22608   2.313  12.621   8.937
 6904SOL    HW122609   2.242  12.598   8.997
 6904SOL    HW222610   2.372  12.546   8.939
 6905SOL     OW22611   6.905   1.368   0.391
 6905SOL    HW122612   6.947   1.405   0.469
 6905SOL    HW222613   6.815   1.400   0.394
 6906SOL     OW22614   4.148   8.192  14.147
 6906SOL    HW122615   4.239   8.213  14.129
 6906SOL    HW222616   4.114   8.270  14.192
 6907SOL     OW22617  14.744   8.700  14.136
 6907SOL    HW122618  14.663   8.749  14.123
 6907SOL    HW222619  14.782   8.737  14.215
 6908SOL     OW22620  10.185  10.694  14.027
 6908SOL    HW122621  10.270  10.686  14.071
 6908SOL    HW222622  10.133  10.622  14.064
 6909SOL     OW22623   3.722   4.949   5.511
 6909SOL    HW122624   3.692   4.859   5.517
 6909SOL    HW222625   3.692   4.989   5.593
 6910SOL     OW22626   2.250   4.604  11.890
 6910SOL    HW122627   2.229   4.614  11.983
 6910SOL    HW222628   2.165   4.606  11.846
 6911SOL     OW22629   9.457   0.489   7.565
 6911SOL    HW122630   9.433   0.568   7.614
 6911SOL    HW222631   9.390   0.425   7.587
 6912SOL     OW22632  13.913  11.924   0.798
 6912SOL    HW122633  13.889  12.015   0.814
 6912SOL    HW222634  13.918  11.885   0.886
 6913SOL     OW22635  11.765   0.436   0.138
 6913SOL    HW122636  11.814   0.359   0.167
 6913SOL    HW222637  11.831   0.500   0.113
 6914SOL     OW22638   1.344   2.475   7.043
 6914SOL    HW122639   1.415   2.430   7.088
 6914SOL    HW222640   1.326   2.553   7.096
 6915SOL     OW22641   0.903   0.815   1.342
 6915SOL    HW122642   0.820   0.772   1.319
 6915SOL    HW222643   0.933   0.769   1.420
 6916SOL     OW22644   7.147   0.577  14.516
 6916SOL    HW122645   7.201   0.654  14.500
 6916SOL    HW222646   7.070   0.590  14.460
 6917SOL     OW22647  14.263   4.983   5.735
 6917SOL    HW122648  14.186   4.981   5.792
 6917SOL    HW222649  14.275   5.076   5.714
 6918SOL     OW22650   3.067   4.578   2.431
 6918SOL    HW122651   3.055   4.659   2.481
 6918SOL    HW222652   3.006   4.516   2.472
 6919SOL     OW22653   7.634  10.275  10.292
 6919SOL    HW122654   7.689  10.262  10.214
 6919SOL    HW222655   7.666  10.210  10.355
 6920SOL     OW22656  12.420   5.162   7.330
 6920SOL    HW122657  12.331   5.127   7.324
 6920SOL    HW222658  12.441   5.190   7.241
 6921SOL     OW22659   9.631   7.758   8.929
 6921SOL    HW122660   9.679   7.683   8.894
 6921SOL    HW222661   9.606   7.731   9.017
 6922SOL     OW22662  11.798   6.567   3.077
 6922SOL    HW122663  11.776   6.608   3.160
 6922SOL    HW222664  11.892   6.580   3.067
 6923SOL     OW22665   9.283   9.795   2.162
 6923SOL    HW122666   9.261   9.825   2.074
 6923SOL    HW222667   9.323   9.871   2.204
 6924SOL     OW22668   2.660   7.510   1.779
 6924SOL    HW122669   2.624   7.589   1.820
 6924SOL    HW222670   2.672   7.534   1.687
 6925SOL     OW22671   9.933  14.531   3.774
 6925SOL    HW122672   9.853  14.531   3.721
 6925SOL    HW222673   9.927  14.450   3.826
 6926SOL     OW22674  10.878   5.805   2.823
 6926SOL    HW122675  10.791   5.816   2.785
 6926SOL    HW222676  10.915   5.728   2.779
 6927SOL     OW22677   6.496   5.650   0.030
 6927SOL    HW122678   6.508   5.648  14.804
 6927SOL    HW222679   6.482   5.743   0.049
 6928SOL     OW22680  11.109  13.998   1.717
 6928SOL    HW122681  11.143  14.062   1.780
 6928SOL    HW222682  11.170  13.925   1.722
 6929SOL     OW22683   7.897  14.144  13.356
 6929SOL    HW122684   7.945  14.227  13.347
 6929SOL    HW222685   7.844  14.156  13.435
 6930SOL     OW22686   6.607  10.592   1.388
 6930SOL    HW122687   6.694  10.627   1.406
 6930SOL    HW222688   6.584  10.541   1.465
 6931SOL     OW22689  10.748   0.140   6.913
 6931SOL    HW122690  10.790   0.083   6.977
 6931SOL    HW222691  10.697   0.081   6.858
 6932SOL     OW22692   7.623   1.577  13.586
 6932SOL    HW122693   7.578   1.661  13.581
 6932SOL    HW222694   7.561   1.514  13.549
 6933SOL     OW22695   9.856   8.114   4.479
 6933SOL    HW122696   9.831   8.197   4.438
 6933SOL    HW222697   9.934   8.136   4.530
 6934SOL     OW22698  10.128   3.345  11.543
 6934SOL    HW122699  10.138   3.423  11.597
 6934SOL    HW222700  10.212   3.337  11.498
 6935SOL     OW22701  11.596   3.965   6.254
 6935SOL    HW122702  11.550   4.039   6.294
 6935SOL    HW222703  11.527   3.904   6.229
 6936SOL     OW22704  14.236  13.280   1.814
 6936SOL    HW122705  14.268  13.306   1.728
 6936SOL    HW222706  14.252  13.356   1.870
 6937SOL     OW22707   2.164   4.201   5.384
 6937SOL    HW122708   2.114   4.132   5.341
 6937SOL    HW222709   2.166   4.176   5.476
 6938SOL     OW22710  14.445   0.255   6.445
 6938SOL    HW122711  14.432   0.167   6.410
 6938SOL    HW222712  14.425   0.314   6.372
 6939SOL     OW22713  12.012   4.998   0.712
 6939SOL    HW122714  11.988   4.946   0.635
 6939SOL    HW222715  12.099   5.031   0.694
 6940SOL     OW22716  10.997   2.292   4.831
 6940SOL    HW122717  11.010   2.383   4.859
 6940SOL    HW222718  10.909   2.292   4.792
 6941SOL     OW22719  14.298   4.714   1.960
 6941SOL    HW122720  14.318   4.671   2.043
 6941SOL    HW222721  14.296   4.644   1.895
 6942SOL     OW22722  10.371   1.489   6.594
 6942SOL    HW122723  10.346   1.440   6.672
 6942SOL    HW222724  10.301   1.471   6.531
 6943SOL     OW22725  10.649  12.518   7.238
 6943SOL    HW122726  10.574  12.485   7.287
 6943SOL    HW222727  10.692  12.579   7.299
 6944SOL     OW22728   5.286   3.057   5.801
 6944SOL    HW122729   5.381   3.070   5.795
 6944SOL    HW222730   5.269   2.985   5.740
 6945SOL     OW22731   0.802  10.370   5.231
 6945SOL    HW122732   0.767  10.444   5.181
 6945SOL    HW222733   0.725  10.317   5.251
 6946SOL     OW22734   0.709   7.640  12.281
 6946SOL    HW122735   0.709   7.553  12.241
 6946SOL    HW222736   0.676   7.698  12.213
 6947SOL     OW22737  14.043   6.343   9.910
 6947SOL    HW122738  13.996   6.282   9.967
 6947SOL    HW222739  14.088   6.403   9.970
 6948SOL     OW22740   0.167   4.140   9.559
 6948SOL    HW122741   0.163   4.049   9.528
 6948SOL    HW222742   0.122   4.190   9.491
 6949SOL     OW22743   5.401   8.715   1.148
 6949SOL    HW122744   5.487   8.677   1.165
 6949SOL    HW222745   5.419   8.794   1.097
 6950SOL     OW22746  10.490   8.489   7.555
 6950SOL    HW122747  10.485   8.394   7.542
 6950SOL    HW222748  10.573   8.503   7.600
 6951SOL     OW22749   9.313   9.742  10.733
 6951SOL    HW122750   9.278   9.691  10.806
 6951SOL    HW222751   9.395   9.779  10.766
 6952SOL     OW22752  14.755  10.256  12.315
 6952SOL    HW122753  14.746  10.162  12.299
 6952SOL    HW222754  14.843  10.277  12.283
 6953SOL     OW22755   3.363  12.003  13.739
 6953SOL    HW122756   3.275  12.040  13.741
 6953SOL    HW222757   3.420  12.075  13.769
 6954SOL     OW22758  14.334  14.310   6.028
 6954SOL    HW122759  14.328  14.277   6.117
 6954SOL    HW222760  14.243  14.324   6.002
 6955SOL     OW22761   5.996   4.414  12.580
 6955SOL    HW122762   6.009   4.499  12.623
 6955SOL    HW222763   5.990   4.351  12.652
 6956SOL     OW22764  14.457   1.065   9.180
 6956SOL    HW122765  14.493   1.093   9.096
 6956SOL    HW222766  14.533   1.055   9.237
 6957SOL     OW22767   9.146   8.256  13.358
 6957SOL    HW122768   9.191   8.286  13.279
 6957SOL    HW222769   9.167   8.322  13.424
 6958SOL     OW22770  11.185   1.232   8.449
 6958SOL    HW122771  11.272   1.270   8.435
 6958SOL    HW222772  11.201   1.138   8.459
 6959SOL     OW22773  14.230   4.979  10.239
 6959SOL    HW122774  14.303   5.033  10.271
 6959SOL    HW222775  14.269   4.894  10.220
 6960SOL     OW22776   3.728  11.182   7.759
 6960SOL    HW122777   3.684  11.203   7.677
 6960SOL    HW222778   3.688  11.239   7.824
 6961SOL     OW22779  12.225  12.345   6.997
 6961SOL    HW122780  12.245  12.337   7.090
 6961SOL    HW222781  12.223  12.439   6.980
 6962SOL     OW22782  11.080   4.634   6.898
 6962SOL    HW122783  11.163   4.621   6.854
 6962SOL    HW222784  11.055   4.724   6.877
 6963SOL     OW22785  13.851  14.279   5.297
 6963SOL    HW122786  13.912  14.240   5.359
 6963SOL    HW222787  13.776  14.305   5.351
 6964SOL     OW22788   4.824   9.178   2.542
 6964SOL    HW122789   4.736   9.215   2.536
 6964SOL    HW222790   4.809   9.085   2.558
 6965SOL     OW22791   8.842   4.230   7.188
 6965SOL    HW122792   8.833   4.197   7.098
 6965SOL    HW222793   8.821   4.323   7.182
 6966SOL     OW22794   4.286   9.247  10.062
 6966SOL    HW122795   4.360   9.208  10.016
 6966SOL    HW222796   4.319   9.332  10.093
 6967SOL     OW22797   4.990  11.781  11.933
 6967SOL    HW122798   5.083  11.766  11.951
 6967SOL    HW222799   4.988  11.821  11.846
 6968SOL     OW22800   9.170   1.728  10.147
 6968SOL    HW122801   9.224   1.725  10.068
 6968SOL    HW222802   9.163   1.821  10.167
 6969SOL     OW22803   5.202   3.849  13.347
 6969SOL    HW122804   5.235   3.875  13.261
 6969SOL    HW222805   5.107   3.858  13.340
 6970SOL     OW22806  13.693  11.952   6.241
 6970SOL    HW122807  13.650  11.998   6.169
 6970SOL    HW222808  13.623  11.941   6.306
 6971SOL     OW22809   6.999  14.385   1.257
 6971SOL    HW122810   7.095  14.390   1.255
 6971SOL    HW222811   6.973  14.460   1.311
 6972SOL     OW22812   5.080  14.627   3.112
 6972SOL    HW122813   5.166  14.619   3.071
 6972SOL    HW222814   5.025  14.565   3.064
 6973SOL     OW22815   0.554   8.814   3.523
 6973SOL    HW122816   0.566   8.814   3.618
 6973SOL    HW222817   0.469   8.857   3.510
 6974SOL     OW22818  12.031  10.955  10.956
 6974SOL    HW122819  12.044  11.050  10.955
 6974SOL    HW222820  11.980  10.937  10.877
 6975SOL     OW22821   3.513   8.296  11.442
 6975SOL    HW122822   3.475   8.367  11.494
 6975SOL    HW222823   3.524   8.224  11.505
 6976SOL     OW22824   6.647  11.537   6.245
 6976SOL    HW122825   6.686  11.552   6.159
 6976SOL    HW222826   6.685  11.454   6.275
 6977SOL     OW22827   1.386  10.668   0.580
 6977SOL    HW122828   1.296  10.635   0.585
 6977SOL    HW222829   1.394  10.726   0.656
 6978SOL     OW22830  10.613  13.203   8.254
 6978SOL    HW122831  10.576  13.119   8.282
 6978SOL    HW222832  10.565  13.269   8.303
 6979SOL     OW22833   6.823   2.320   4.143
 6979SOL    HW122834   6.900   2.336   4.197
 6979SOL    HW222835   6.798   2.405   4.109
 6980SOL     OW22836  14.444  12.225   9.309
 6980SOL    HW122837  14.536  12.237   9.331
 6980SOL    HW222838  14.421  12.301   9.255
 6981SOL     OW22839   1.938   8.915   9.539
 6981SOL    HW122840   1.961   8.892   9.629
 6981SOL    HW222841   1.993   8.990   9.518
 6982SOL     OW22842  11.527   7.225  10.394
 6982SOL    HW122843  11.481   7.233  10.478
 6982SOL    HW222844  11.560   7.313  10.377
 6983SOL     OW22845  13.608   8.506   0.179
 6983SOL    HW122846  13.591   8.499   0.272
 6983SOL    HW222847  13.701   8.483   0.169
 6984SOL     OW22848  14.738  11.895  13.108
 6984SOL    HW122849  14.722  11.802  13.121
 6984SOL    HW222850  14.825  11.910  13.143
 6985SOL     OW22851   6.609  13.668   4.653
 6985SOL    HW122852   6.644  13.600   4.595
 6985SOL    HW222853   6.520  13.684   4.621
 6986SOL     OW22854  13.220   9.967   6.856
 6986SOL    HW122855  13.240  10.057   6.833
 6986SOL    HW222856  13.166   9.974   6.935
 6987SOL     OW22857  12.935  13.624   9.337
 6987SOL    HW122858  12.879  13.643   9.413
 6987SOL    HW222859  12.925  13.529   9.324
 6988SOL     OW22860   1.561   7.157   1.032
 6988SOL    HW122861   1.497   7.088   1.048
 6988SOL    HW222862   1.634   7.136   1.091
 6989SOL     OW22863  12.358  12.889  10.062
 6989SOL    HW122864  12.263  12.894  10.052
 6989SOL    HW222865  12.377  12.939  10.141
 6990SOL     OW22866  14.511   4.541   0.362
 6990SOL    HW122867  14.577   4.608   0.380
 6990SOL    HW222868  14.443   4.587   0.312
 6991SOL     OW22869   0.064  13.269   7.994
 6991SOL    HW122870   0.000  13.223   7.940
 6991SOL    HW222871   0.031  13.359   7.998
 6992SOL     OW22872   4.404   0.122   4.744
 6992SOL    HW122873   4.387   0.188   4.811
 6992SOL    HW222874   4.466   0.062   4.785
 6993SOL     OW22875   8.762  12.052  14.480
 6993SOL    HW122876   8.775  11.958  14.489
 6993SOL    HW222877   8.668  12.062  14.461
 6994SOL     OW22878  11.957  11.403   5.057
 6994SOL    HW122879  11.905  11.337   5.102
 6994SOL    HW222880  12.038  11.408   5.108
 6995SOL     OW22881   7.230  10.659  10.691
 6995SOL    HW122882   7.198  10.709  10.615
 6995SOL    HW222883   7.267  10.580  10.652
 6996SOL     OW22884   2.493   7.817   4.933
 6996SOL    HW122885   2.407   7.811   4.891
 6996SOL    HW222886   2.515   7.726   4.954
 6997SOL     OW22887   5.626   9.464  10.318
 6997SOL    HW122888   5.573   9.385  10.327
 6997SOL    HW222889   5.567   9.528  10.276
 6998SOL     OW22890   0.901  12.569   7.700
 6998SOL    HW122891   0.823  12.613   7.735
 6998SOL    HW222892   0.951  12.544   7.777
 6999SOL     OW22893  13.385  14.125  11.307
 6999SOL    HW122894  13.419  14.162  11.388
 6999SOL    HW222895  13.460  14.126  11.247
 7000SOL     OW22896   6.108   2.494   4.600
 7000SOL    HW122897   6.134   2.439   4.673
 7000SOL    HW222898   6.059   2.566   4.640
 7001SOL     OW22899  10.903   5.511   3.625
 7001SOL    HW122900  10.912   5.462   3.707
 7001SOL    HW222901  10.948   5.594   3.641
 7002SOL     OW22902  12.267   7.240   0.591
 7002SOL    HW122903  12.195   7.177   0.595
 7002SOL    HW222904  12.296   7.238   0.499
 7003SOL     OW22905   4.667   4.601  13.069
 7003SOL    HW122906   4.656   4.561  13.156
 7003SOL    HW222907   4.598   4.667  13.064
 7004SOL     OW22908  12.692   2.297  12.151
 7004SOL    HW122909  12.763   2.236  12.132
 7004SOL    HW222910  12.642   2.302  12.069
 7005SOL     OW22911   9.822   4.481   1.793
 7005SOL    HW122912   9.739   4.514   1.828
 7005SOL    HW222913   9.801   4.393   1.760
 7006SOL     OW22914  12.086   8.462   3.608
 7006SOL    HW122915  12.080   8.414   3.526
 7006SOL    HW222916  12.039   8.543   3.592
 7007SOL     OW22917   2.903  14.497   9.217
 7007SOL    HW122918   2.917  14.526   9.127
 7007SOL    HW222919   2.809  14.502   9.229
 7008SOL     OW22920  11.485  13.517   6.360
 7008SOL    HW122921  11.514  13.456   6.292
 7008SOL    HW222922  11.566  13.556   6.393
 7009SOL     OW22923  13.151   5.850   4.424
 7009SOL    HW122924  13.234   5.832   4.379
 7009SOL    HW222925  13.112   5.764   4.438
 7010SOL     OW22926  12.684   9.517   3.861
 7010SOL    HW122927  12.744   9.591   3.849
 7010SOL    HW222928  12.681   9.475   3.775
 7011SOL     OW22929  11.296   1.477   4.158
 7011SOL    HW122930  11.261   1.432   4.082
 7011SOL    HW222931  11.389   1.489   4.139
 7012SOL     OW22932  13.244   5.234   4.220
 7012SOL    HW122933  13.307   5.162   4.221
 7012SOL    HW222934  13.181   5.210   4.153
 7013SOL     OW22935   6.911   0.966   4.639
 7013SOL    HW122936   6.974   1.034   4.616
 7013SOL    HW222937   6.826   1.010   4.637
 7014SOL     OW22938   0.543   0.336   8.794
 7014SOL    HW122939   0.517   0.338   8.702
 7014SOL    HW222940   0.470   0.378   8.840
 7015SOL     OW22941   4.066   7.417  14.388
 7015SOL    HW122942   4.127   7.407  14.461
 7015SOL    HW222943   4.101   7.489  14.337
 7016SOL     OW22944   0.446   3.019   8.105
 7016SOL    HW122945   0.473   2.996   8.016
 7016SOL    HW222946   0.518   3.073   8.138
 7017SOL     OW22947   2.251  11.802  11.050
 7017SOL    HW122948   2.175  11.790  11.107
 7017SOL    HW222949   2.252  11.895  11.031
 7018SOL     OW22950   6.609  10.086  13.235
 7018SOL    HW122951   6.644  10.051  13.153
 7018SOL    HW222952   6.592  10.008  13.288
 7019SOL     OW22953   9.237   5.781   2.775
 7019SOL    HW122954   9.228   5.690   2.803
 7019SOL    HW222955   9.260   5.776   2.683
 7020SOL     OW22956   5.766  11.209   3.440
 7020SOL    HW122957   5.802  11.124   3.413
 7020SOL    HW222958   5.671  11.199   3.435
 7021SOL     OW22959   1.671   4.016   8.317
 7021SOL    HW122960   1.629   4.041   8.234
 7021SOL    HW222961   1.749   3.967   8.291
 7022SOL     OW22962  13.348   3.274   6.776
 7022SOL    HW122963  13.352   3.248   6.869
 7022SOL    HW222964  13.322   3.194   6.731
 7023SOL     OW22965   8.334   2.364   3.606
 7023SOL    HW122966   8.284   2.294   3.564
 7023SOL    HW222967   8.316   2.441   3.553
 7024SOL     OW22968  13.524  10.978   7.968
 7024SOL    HW122969  13.560  11.020   7.890
 7024SOL    HW222970  13.512  11.050   8.030
 7025SOL     OW22971   7.090  12.372  12.315
 7025SOL    HW122972   7.012  12.377  12.260
 7025SOL    HW222973   7.100  12.460  12.350
 7026SOL     OW22974   8.029   0.771   4.496
 7026SOL    HW122975   8.033   0.851   4.548
 7026SOL    HW222976   8.111   0.726   4.516
 7027SOL     OW22977   2.184  10.784   9.188
 7027SOL    HW122978   2.190  10.689   9.190
 7027SOL    HW222979   2.134  10.804   9.109
 7028SOL     OW22980   3.526   0.832   6.924
 7028SOL    HW122981   3.596   0.840   6.989
 7028SOL    HW222982   3.560   0.771   6.859
 7029SOL     OW22983  11.083   3.221   2.273
 7029SOL    HW122984  11.146   3.149   2.286
 7029SOL    HW222985  11.033   3.196   2.196
 7030SOL     OW22986  12.881   3.632  11.397
 7030SOL    HW122987  12.970   3.632  11.364
 7030SOL    HW222988  12.855   3.540  11.398
 7031SOL     OW22989   4.502   3.631   3.858
 7031SOL    HW122990   4.560   3.606   3.785
 7031SOL    HW222991   4.457   3.709   3.827
 7032SOL     OW22992  11.525  11.117   8.833
 7032SOL    HW122993  11.510  11.171   8.911
 7032SOL    HW222994  11.439  11.081   8.812
 7033SOL     OW22995  14.662  11.280   3.028
 7033SOL    HW122996  14.744  11.324   3.052
 7033SOL    HW222997  14.627  11.246   3.111
 7034SOL     OW22998   3.501   9.752   2.672
 7034SOL    HW122999   3.505   9.833   2.722
 7034SOL    HW223000   3.512   9.780   2.581
 7035SOL     OW23001  13.531  10.586  13.636
 7035SOL    HW123002  13.606  10.582  13.577
 7035SOL    HW223003  13.569  10.585  13.724
 7036SOL     OW23004   0.294  11.965   3.249
 7036SOL    HW123005   0.306  12.059   3.237
 7036SOL    HW223006   0.347  11.942   3.325
 7037SOL     OW23007  10.298  12.095   0.428
 7037SOL    HW123008  10.248  12.078   0.507
 7037SOL    HW223009  10.328  12.009   0.399
 7038SOL     OW23010   4.151   7.639  14.233
 7038SOL    HW123011   4.188   7.682  14.311
 7038SOL    HW223012   4.225   7.593  14.194
 7039SOL     OW23013  11.950  13.860  12.028
 7039SOL    HW123014  11.858  13.863  12.004
 7039SOL    HW223015  11.967  13.769  12.050
 7040SOL     OW23016  12.659   4.429   9.498
 7040SOL    HW123017  12.648   4.347   9.545
 7040SOL    HW223018  12.747   4.425   9.462
 7041SOL     OW23019   2.076   2.071  11.917
 7041SOL    HW123020   2.016   2.088  11.844
 7041SOL    HW223021   2.153   2.032  11.875
 7042SOL     OW23022   3.861   5.995   3.570
 7042SOL    HW123023   3.886   5.904   3.555
 7042SOL    HW223024   3.766   5.992   3.583
 7043SOL     OW23025  11.337  12.221   1.694
 7043SOL    HW123026  11.301  12.135   1.674
 7043SOL    HW223027  11.275  12.259   1.756
 7044SOL     OW23028   4.408   6.292   5.378
 7044SOL    HW123029   4.467   6.318   5.449
 7044SOL    HW223030   4.354   6.369   5.362
 7045SOL     OW23031   4.953   9.545  10.992
 7045SOL    HW123032   4.882   9.587  10.944
 7045SOL    HW223033   5.033   9.581  10.953
 7046SOL     OW23034   7.046   6.506   7.657
 7046SOL    HW123035   7.097   6.586   7.641
 7046SOL    HW223036   7.054   6.491   7.751
 7047SOL     OW23037   9.226   4.451  12.458
 7047SOL    HW123038   9.318   4.440  12.482
 7047SOL    HW223039   9.194   4.519  12.517
 7048SOL     OW23040  10.970   6.926   7.459
 7048SOL    HW123041  10.925   6.875   7.526
 7048SOL    HW223042  11.031   6.863   7.419
 7049SOL     OW23043  10.361   0.020   0.293
 7049SOL    HW123044  10.349   0.099   0.345
 7049SOL    HW223045  10.400  14.827   0.354
 7050SOL     OW23046   1.911   1.699   9.105
 7050SOL    HW123047   1.857   1.649   9.043
 7050SOL    HW223048   1.880   1.672   9.191
 7051SOL     OW23049   2.799  12.113   9.120
 7051SOL    HW123050   2.815  12.189   9.175
 7051SOL    HW223051   2.812  12.038   9.178
 7052SOL     OW23052   9.359  13.838   1.805
 7052SOL    HW123053   9.395  13.802   1.887
 7052SOL    HW223054   9.397  13.925   1.799
 7053SOL     OW23055  10.331   2.769  14.244
 7053SOL    HW123056  10.410   2.739  14.290
 7053SOL    HW223057  10.337   2.864  14.246
 7054SOL     OW23058  12.997  14.631  10.211
 7054SOL    HW123059  13.083  14.594  10.232
 7054SOL    HW223060  12.949  14.559  10.170
 7055SOL     OW23061   7.354   9.342   3.680
 7055SOL    HW123062   7.314   9.258   3.704
 7055SOL    HW223063   7.337   9.398   3.756
 7056SOL     OW23064   3.703   5.864   9.740
 7056SOL    HW123065   3.640   5.793   9.754
 7056SOL    HW223066   3.673   5.907   9.660
 7057SOL     OW23067   1.694   2.279   0.531
 7057SOL    HW123068   1.715   2.345   0.597
 7057SOL    HW223069   1.763   2.213   0.539
 7058SOL     OW23070   5.986  10.560   0.789
 7058SOL    HW123071   5.895  10.541   0.814
 7058SOL    HW223072   6.002  10.504   0.713
 7059SOL     OW23073  11.763  14.655  11.834
 7059SOL    HW123074  11.725  14.707  11.905
 7059SOL    HW223075  11.712  14.574  11.833
 7060SOL     OW23076   7.856   5.716   8.699
 7060SOL    HW123077   7.801   5.788   8.669
 7060SOL    HW223078   7.859   5.726   8.794
 7061SOL     OW23079  13.238   9.551   4.616
 7061SOL    HW123080  13.291   9.483   4.573
 7061SOL    HW223081  13.148   9.525   4.599
 7062SOL     OW23082  10.047   5.648   9.552
 7062SOL    HW123083   9.990   5.719   9.582
 7062SOL    HW223084  10.033   5.577   9.615
 7063SOL     OW23085   7.533   6.187   1.272
 7063SOL    HW123086   7.623   6.166   1.298
 7063SOL    HW223087   7.517   6.134   1.194
 7064SOL     OW23088  13.949   9.076  14.168
 7064SOL    HW123089  14.015   9.100  14.233
 7064SOL    HW223090  13.905   9.158  14.147
 7065SOL     OW23091   6.586   3.066  12.044
 7065SOL    HW123092   6.637   3.069  12.124
 7065SOL    HW223093   6.629   3.129  11.986
 7066SOL     OW23094  11.574  14.755   9.102
 7066SOL    HW123095  11.664  14.743   9.071
 7066SOL    HW223096  11.574  14.719   9.190
 7067SOL     OW23097   7.853  11.222  11.590
 7067SOL    HW123098   7.793  11.292  11.564
 7067SOL    HW223099   7.799  11.162  11.640
 7068SOL     OW23100   1.076   7.743   9.403
 7068SOL    HW123101   0.990   7.741   9.444
 7068SOL    HW223102   1.061   7.714   9.313
 7069SOL     OW23103   9.531   2.127  13.517
 7069SOL    HW123104   9.549   2.063  13.586
 7069SOL    HW223105   9.617   2.146  13.479
 7070SOL     OW23106   0.703  10.812   7.500
 7070SOL    HW123107   0.720  10.895   7.546
 7070SOL    HW223108   0.772  10.754   7.529
 7071SOL     OW23109  14.429  11.592   6.188
 7071SOL    HW123110  14.469  11.561   6.107
 7071SOL    HW223111  14.338  11.611   6.165
 7072SOL     OW23112   8.420   5.287   9.524
 7072SOL    HW123113   8.417   5.350   9.596
 7072SOL    HW223114   8.350   5.225   9.545
 7073SOL     OW23115   7.343  12.433   1.734
 7073SOL    HW123116   7.360  12.521   1.769
 7073SOL    HW223117   7.422  12.411   1.686
 7074SOL     OW23118   6.858   1.509   4.573
 7074SOL    HW123119   6.812   1.465   4.501
 7074SOL    HW223120   6.805   1.492   4.650
 7075SOL     OW23121   2.516   9.972   4.308
 7075SOL    HW123122   2.485  10.023   4.383
 7075SOL    HW223123   2.442   9.973   4.247
 7076SOL     OW23124   7.326   7.627   5.829
 7076SOL    HW123125   7.361   7.576   5.902
 7076SOL    HW223126   7.231   7.621   5.839
 7077SOL     OW23127   3.403  12.275   5.247
 7077SOL    HW123128   3.317  12.296   5.283
 7077SOL    HW223129   3.449  12.358   5.243
 7078SOL     OW23130  14.085   5.280  13.829
 7078SOL    HW123131  14.111   5.371  13.840
 7078SOL    HW223132  14.139   5.232  13.891
 7079SOL     OW23133   2.401   4.663   0.852
 7079SOL    HW123134   2.421   4.570   0.865
 7079SOL    HW223135   2.314   4.674   0.892
 7080SOL     OW23136   2.918   7.680   2.946
 7080SOL    HW123137   2.997   7.722   2.911
 7080SOL    HW223138   2.846   7.733   2.912
 7081SOL     OW23139   7.385   2.130   2.384
 7081SOL    HW123140   7.344   2.149   2.300
 7081SOL    HW223141   7.478   2.145   2.370
 7082SOL     OW23142   7.852   5.040  11.416
 7082SOL    HW123143   7.797   5.074  11.345
 7082SOL    HW223144   7.941   5.063  11.390
 7083SOL     OW23145  11.453   6.817   4.301
 7083SOL    HW123146  11.417   6.782   4.383
 7083SOL    HW223147  11.406   6.770   4.232
 7084SOL     OW23148   4.759   0.482   6.240
 7084SOL    HW123149   4.795   0.529   6.165
 7084SOL    HW223150   4.775   0.540   6.314
 7085SOL     OW23151   0.186   9.591   7.575
 7085SOL    HW123152   0.130   9.637   7.512
 7085SOL    HW223153   0.270   9.638   7.571
 7086SOL     OW23154  11.603  12.563   2.518
 7086SOL    HW123155  11.669  12.584   2.452
 7086SOL    HW223156  11.528  12.530   2.467
 7087SOL     OW23157   0.331  11.646  11.511
 7087SOL    HW123158   0.303  11.648  11.602
 7087SOL    HW223159   0.426  11.658  11.514
 7088SOL     OW23160   7.017   8.010  14.063
 7088SOL    HW123161   6.942   8.043  14.113
 7088SOL    HW223162   7.017   8.063  13.983
 7089SOL     OW23163   1.277   4.738  12.393
 7089SOL    HW123164   1.367   4.724  12.363
 7089SOL    HW223165   1.284   4.807  12.459
 7090SOL     OW23166  11.335  13.706   4.300
 7090SOL    HW123167  11.354  13.618   4.332
 7090SOL    HW223168  11.292  13.691   4.216
 7091SOL     OW23169   7.195  12.770  14.162
 7091SOL    HW123170   7.264  12.708  14.136
 7091SOL    HW223171   7.134  12.718  14.214
 7092SOL     OW23172   6.029   7.118  13.771
 7092SOL    HW123173   5.985   7.131  13.687
 7092SOL    HW223174   5.997   7.033  13.802
 7093SOL     OW23175   1.874   4.271   0.278
 7093SOL    HW123176   1.795   4.323   0.270
 7093SOL    HW223177   1.886   4.260   0.372
 7094SOL     OW23178   7.947   6.330   6.063
 7094SOL    HW123179   8.013   6.399   6.049
 7094SOL    HW223180   7.985   6.273   6.130
 7095SOL     OW23181  12.248   4.632   3.345
 7095SOL    HW123182  12.216   4.623   3.255
 7095SOL    HW223183  12.203   4.563   3.394
 7096SOL     OW23184  11.574   5.952   7.406
 7096SOL    HW123185  11.524   5.895   7.347
 7096SOL    HW223186  11.664   5.919   7.402
 7097SOL     OW23187   7.635  14.142  12.530
 7097SOL    HW123188   7.720  14.145  12.485
 7097SOL    HW223189   7.655  14.157  12.622
 7098SOL     OW23190   5.198  10.291   8.151
 7098SOL    HW123191   5.281  10.312   8.193
 7098SOL    HW223192   5.221  10.272   8.060
 7099SOL     OW23193  10.206   5.443   1.375
 7099SOL    HW123194  10.268   5.403   1.436
 7099SOL    HW223195  10.206   5.385   1.299
 7100SOL     OW23196  12.518   0.531  14.226
 7100SOL    HW123197  12.432   0.496  14.249
 7100SOL    HW223198  12.555   0.467  14.165
 7101SOL     OW23199  12.866   1.147  12.027
 7101SOL    HW123200  12.867   1.066  11.975
 7101SOL    HW223201  12.944   1.140  12.083
 7102SOL     OW23202  11.043   1.454   7.002
 7102SOL    HW123203  10.996   1.428   6.923
 7102SOL    HW223204  11.023   1.385   7.065
 7103SOL     OW23205   8.926   6.943   7.358
 7103SOL    HW123206   9.005   6.945   7.304
 7103SOL    HW223207   8.893   6.853   7.350
 7104SOL     OW23208   9.593   7.951  10.388
 7104SOL    HW123209   9.645   8.017  10.435
 7104SOL    HW223210   9.626   7.867  10.419
 7105SOL     OW23211  14.710   3.985   0.296
 7105SOL    HW123212  14.788   4.035   0.319
 7105SOL    HW223213  14.707   3.914   0.360
 7106SOL     OW23214   4.519   1.279   5.117
 7106SOL    HW123215   4.527   1.319   5.031
 7106SOL    HW223216   4.544   1.348   5.178
 7107SOL     OW23217   2.297   5.834  13.028
 7107SOL    HW123218   2.331   5.883  12.953
 7107SOL    HW223219   2.202   5.846  13.023
 7108SOL     OW23220   4.957   0.089   3.900
 7108SOL    HW123221   5.019   0.016   3.907
 7108SOL    HW223222   4.986   0.138   3.823
 7109SOL     OW23223   3.498   3.278   4.045
 7109SOL    HW123224   3.475   3.190   4.015
 7109SOL    HW223225   3.461   3.284   4.133
 7110SOL     OW23226   9.316   1.686   9.458
 7110SOL    HW123227   9.240   1.631   9.441
 7110SOL    HW223228   9.362   1.642   9.530
 7111SOL     OW23229  11.381   0.671   9.114
 7111SOL    HW123230  11.464   0.718   9.121
 7111SOL    HW223231  11.333   0.696   9.193
 7112SOL     OW23232  14.843   5.047   3.749
 7112SOL    HW123233  14.807   5.129   3.715
 7112SOL    HW223234  14.855   5.063   3.843
 7113SOL     OW23235   2.103   2.953   0.654
 7113SOL    HW123236   2.067   2.969   0.567
 7113SOL    HW223237   2.034   2.906   0.701
 7114SOL     OW23238   6.710   5.291   6.350
 7114SOL    HW123239   6.637   5.340   6.386
 7114SOL    HW223240   6.787   5.328   6.393
 7115SOL     OW23241  13.805   1.504   2.072
 7115SOL    HW123242  13.875   1.569   2.074
 7115SOL    HW223243  13.851   1.420   2.072
 7116SOL     OW23244   7.882   4.704  13.680
 7116SOL    HW123245   7.873   4.658  13.763
 7116SOL    HW223246   7.810   4.767  13.679
 7117SOL     OW23247  13.043   3.248  10.874
 7117SOL    HW123248  13.090   3.263  10.792
 7117SOL    HW223249  13.040   3.334  10.916
 7118SOL     OW23250   5.153  14.317   3.960
 7118SOL    HW123251   5.231  14.334   3.908
 7118SOL    HW223252   5.118  14.234   3.926
 7119SOL     OW23253  13.570   2.461   4.512
 7119SOL    HW123254  13.607   2.493   4.430
 7119SOL    HW223255  13.554   2.368   4.497
 7120SOL     OW23256  13.620   3.234   0.460
 7120SOL    HW123257  13.689   3.175   0.429
 7120SOL    HW223258  13.665   3.293   0.520
 7121SOL     OW23259   9.638   3.456   7.799
 7121SOL    HW123260   9.722   3.485   7.836
 7121SOL    HW223261   9.631   3.364   7.826
 7122SOL     OW23262   4.816  11.477   5.882
 7122SOL    HW123263   4.760  11.554   5.893
 7122SOL    HW223264   4.809  11.431   5.965
 7123SOL     OW23265   5.733   6.585   1.952
 7123SOL    HW123266   5.732   6.495   1.921
 7123SOL    HW223267   5.779   6.582   2.036
 7124SOL     OW23268   3.410   8.676   3.135
 7124SOL    HW123269   3.392   8.710   3.047
 7124SOL    HW223270   3.442   8.752   3.184
 7125SOL     OW23271  14.656   4.417   8.777
 7125SOL    HW123272  14.732   4.459   8.818
 7125SOL    HW223273  14.651   4.457   8.691
 7126SOL     OW23274  14.617  10.311   5.401
 7126SOL    HW123275  14.575  10.385   5.357
 7126SOL    HW223276  14.570  10.302   5.484
 7127SOL     OW23277   0.812   8.422   4.473
 7127SOL    HW123278   0.907   8.406   4.476
 7127SOL    HW223279   0.801   8.507   4.515
 7128SOL     OW23280   5.887   3.214  12.319
 7128SOL    HW123281   5.897   3.239  12.411
 7128SOL    HW223282   5.976   3.188  12.292
 7129SOL     OW23283   7.802   9.839   7.737
 7129SOL    HW123284   7.738   9.907   7.757
 7129SOL    HW223285   7.842   9.819   7.822
 7130SOL     OW23286  13.614  10.730   6.238
 7130SOL    HW123287  13.575  10.810   6.273
 7130SOL    HW223288  13.614  10.669   6.312
 7131SOL     OW23289  11.119  14.453   3.434
 7131SOL    HW123290  11.121  14.465   3.529
 7131SOL    HW223291  11.099  14.540   3.400
 7132SOL     OW23292   4.046   6.382   7.987
 7132SOL    HW123293   4.092   6.465   7.971
 7132SOL    HW223294   4.013   6.390   8.077
 7133SOL     OW23295   1.064  13.018   9.341
 7133SOL    HW123296   1.075  13.093   9.281
 7133SOL    HW223297   1.060  13.058   9.428
 7134SOL     OW23298   5.417   0.677   7.022
 7134SOL    HW123299   5.421   0.762   7.065
 7134SOL    HW223300   5.389   0.617   7.091
 7135SOL     OW23301  10.840   3.799   4.673
 7135SOL    HW123302  10.883   3.724   4.632
 7135SOL    HW223303  10.746   3.781   4.663
 7136SOL     OW23304   1.806  10.390  10.315
 7136SOL    HW123305   1.804  10.383  10.219
 7136SOL    HW223306   1.722  10.431  10.337
 7137SOL     OW23307   9.027  12.824  10.548
 7137SOL    HW123308   9.011  12.901  10.493
 7137SOL    HW223309   8.979  12.753  10.505
 7138SOL     OW23310   5.620  11.126   3.811
 7138SOL    HW123311   5.671  11.202   3.782
 7138SOL    HW223312   5.645  11.114   3.902
 7139SOL     OW23313   3.095   0.665  11.545
 7139SOL    HW123314   3.032   0.631  11.481
 7139SOL    HW223315   3.175   0.614  11.529
 7140SOL     OW23316   8.159  12.166  13.514
 7140SOL    HW123317   8.079  12.116  13.529
 7140SOL    HW223318   8.128  12.250  13.478
 7141SOL     OW23319   3.378  10.106   3.189
 7141SOL    HW123320   3.323  10.075   3.261
 7141SOL    HW223321   3.455  10.050   3.191
 7142SOL     OW23322   2.176   0.985   5.891
 7142SOL    HW123323   2.204   0.927   5.821
 7142SOL    HW223324   2.154   0.927   5.964
 7143SOL     OW23325   3.745   3.293  13.779
 7143SOL    HW123326   3.705   3.230  13.839
 7143SOL    HW223327   3.806   3.240  13.727
 7144SOL     OW23328  13.594  11.529  11.223
 7144SOL    HW123329  13.608  11.623  11.234
 7144SOL    HW223330  13.682  11.491  11.224
 7145SOL     OW23331  13.682  12.969  14.644
 7145SOL    HW123332  13.595  12.941  14.615
 7145SOL    HW223333  13.679  12.960  14.740
 7146SOL     OW23334   5.078  13.979  11.367
 7146SOL    HW123335   5.022  13.903  11.383
 7146SOL    HW223336   5.166  13.948  11.389
 7147SOL     OW23337  12.370  13.724  11.031
 7147SOL    HW123338  12.450  13.694  10.988
 7147SOL    HW223339  12.394  13.732  11.123
 7148SOL     OW23340  14.807  14.707   6.095
 7148SOL    HW123341  14.750  14.782   6.114
 7148SOL    HW223342  14.844  14.683   6.180
 7149SOL     OW23343   9.211   3.584   4.916
 7149SOL    HW123344   9.181   3.635   4.840
 7149SOL    HW223345   9.130   3.564   4.964
 7150SOL     OW23346   3.324   9.472   8.076
 7150SOL    HW123347   3.274   9.507   8.150
 7150SOL    HW223348   3.414   9.466   8.109
 7151SOL     OW23349   1.829   0.568   7.691
 7151SOL    HW123350   1.908   0.519   7.667
 7151SOL    HW223351   1.858   0.627   7.761
 7152SOL     OW23352  12.063  14.332  10.649
 7152SOL    HW123353  12.003  14.339  10.723
 7152SOL    HW223354  12.013  14.287  10.582
 7153SOL     OW23355   6.245  13.560   0.518
 7153SOL    HW123356   6.282  13.642   0.486
 7153SOL    HW223357   6.228  13.509   0.438
 7154SOL     OW23358   3.877   7.887   4.434
 7154SOL    HW123359   3.884   7.880   4.339
 7154SOL    HW223360   3.926   7.967   4.456
 7155SOL     OW23361  12.728  10.517   3.355
 7155SOL    HW123362  12.750  10.439   3.303
 7155SOL    HW223363  12.681  10.574   3.294
 7156SOL     OW23364   9.028   9.118   1.883
 7156SOL    HW123365   9.050   9.026   1.871
 7156SOL    HW223366   8.955   9.133   1.824
 7157SOL     OW23367  10.368   0.800   1.370
 7157SOL    HW123368  10.448   0.821   1.321
 7157SOL    HW223369  10.331   0.885   1.392
 7158SOL     OW23370  11.041   6.593   1.573
 7158SOL    HW123371  11.132   6.583   1.546
 7158SOL    HW223372  11.046   6.617   1.665
 7159SOL     OW23373   9.267   3.179   0.627
 7159SOL    HW123374   9.242   3.148   0.713
 7159SOL    HW223375   9.267   3.275   0.635
 7160SOL     OW23376  10.369   0.808   8.516
 7160SOL    HW123377  10.287   0.758   8.510
 7160SOL    HW223378  10.376   0.851   8.430
 7161SOL     OW23379   2.984  14.324   9.424
 7161SOL    HW123380   3.008  14.395   9.364
 7161SOL    HW223381   3.005  14.357   9.511
 7162SOL     OW23382   3.922   8.013  14.156
 7162SOL    HW123383   3.846   8.067  14.134
 7162SOL    HW223384   3.996   8.074  14.155
 7163SOL     OW23385  13.391  12.187   1.593
 7163SOL    HW123386  13.381  12.271   1.637
 7163SOL    HW223387  13.315  12.136   1.620
 7164SOL     OW23388  12.038  12.342  12.933
 7164SOL    HW123389  11.982  12.409  12.895
 7164SOL    HW223390  12.099  12.319  12.864
 7165SOL     OW23391   4.094   5.957  12.750
 7165SOL    HW123392   4.085   5.870  12.789
 7165SOL    HW223393   4.004   5.990  12.743
 7166SOL     OW23394  10.719   8.899  10.307
 7166SOL    HW123395  10.682   8.927  10.224
 7166SOL    HW223396  10.785   8.965  10.328
 7167SOL     OW23397  11.327   4.192   7.382
 7167SOL    HW123398  11.300   4.271   7.336
 7167SOL    HW223399  11.330   4.125   7.313
 7168SOL     OW23400   4.172   3.795   9.213
 7168SOL    HW123401   4.163   3.710   9.257
 7168SOL    HW223402   4.172   3.858   9.285
 7169SOL     OW23403   6.079   9.261   1.213
 7169SOL    HW123404   6.043   9.326   1.273
 7169SOL    HW223405   6.018   9.261   1.139
 7170SOL     OW23406   6.373   6.466  10.422
 7170SOL    HW123407   6.341   6.538  10.368
 7170SOL    HW223408   6.397   6.398  10.360
 7171SOL     OW23409  12.435   5.178  14.805
 7171SOL    HW123410  12.509   5.118  14.814
 7171SOL    HW223411  12.430   5.196  14.711
 7172SOL     OW23412   6.184   4.831   9.389
 7172SOL    HW123413   6.191   4.888   9.312
 7172SOL    HW223414   6.190   4.890   9.464
 7173SOL     OW23415  11.806  13.275   1.508
 7173SOL    HW123416  11.785  13.368   1.523
 7173SOL    HW223417  11.743  13.247   1.441
 7174SOL     OW23418  12.268   9.846   9.885
 7174SOL    HW123419  12.191   9.837   9.941
 7174SOL    HW223420  12.274   9.763   9.838
 7175SOL     OW23421   4.339   9.358   3.656
 7175SOL    HW123422   4.276   9.427   3.634
 7175SOL    HW223423   4.335   9.352   3.752
 7176SOL     OW23424   9.459   3.481   1.917
 7176SOL    HW123425   9.402   3.501   1.842
 7176SOL    HW223426   9.430   3.540   1.986
 7177SOL     OW23427   0.668   6.354   2.260
 7177SOL    HW123428   0.640   6.371   2.350
 7177SOL    HW223429   0.646   6.262   2.245
 7178SOL     OW23430   8.585   1.653  10.612
 7178SOL    HW123431   8.570   1.679  10.703
 7178SOL    HW223432   8.502   1.615  10.583
 7179SOL     OW23433   3.351   3.136   1.750
 7179SOL    HW123434   3.378   3.219   1.710
 7179SOL    HW223435   3.284   3.102   1.691
 7180SOL     OW23436  12.620   0.488  11.015
 7180SOL    HW123437  12.640   0.504  11.107
 7180SOL    HW223438  12.685   0.424  10.987
 7181SOL     OW23439  10.597   9.552  10.365
 7181SOL    HW123440  10.630   9.545  10.275
 7181SOL    HW223441  10.638   9.479  10.411
 7182SOL     OW23442  10.694  14.788   0.845
 7182SOL    HW123443  10.780  14.776   0.886
 7182SOL    HW223444  10.632  14.776   0.916
 7183SOL     OW23445   9.880  11.137   2.042
 7183SOL    HW123446   9.846  11.137   2.132
 7183SOL    HW223447   9.808  11.168   1.989
 7184SOL     OW23448   9.973   7.155  11.011
 7184SOL    HW123449   9.975   7.147  10.916
 7184SOL    HW223450   9.976   7.250  11.027
 7185SOL     OW23451   1.849  10.827   0.795
 7185SOL    HW123452   1.790  10.824   0.719
 7185SOL    HW223453   1.894  10.743   0.793
 7186SOL     OW23454   8.845   9.810   9.178
 7186SOL    HW123455   8.915   9.751   9.150
 7186SOL    HW223456   8.791   9.757   9.237
 7187SOL     OW23457   4.269   7.792   3.450
 7187SOL    HW123458   4.326   7.788   3.526
 7187SOL    HW223459   4.217   7.871   3.462
 7188SOL     OW23460   4.536   3.738  11.509
 7188SOL    HW123461   4.585   3.786  11.442
 7188SOL    HW223462   4.466   3.798  11.535
 7189SOL     OW23463  11.448   3.098   1.046
 7189SOL    HW123464  11.508   3.045   0.995
 7189SOL    HW223465  11.429   3.174   0.991
 7190SOL     OW23466  12.988   7.570  10.498
 7190SOL    HW123467  13.046   7.609  10.433
 7190SOL    HW223468  13.016   7.606  10.581
 7191SOL     OW23469   2.122   5.569   3.305
 7191SOL    HW123470   2.156   5.648   3.346
 7191SOL    HW223471   2.175   5.558   3.226
 7192SOL     OW23472  14.723   5.831   7.630
 7192SOL    HW123473  14.722   5.901   7.694
 7192SOL    HW223474  14.785   5.767   7.666
 7193SOL     OW23475   1.721   2.981   2.886
 7193SOL    HW123476   1.793   2.940   2.934
 7193SOL    HW223477   1.673   3.030   2.953
 7194SOL     OW23478   3.200   4.827   6.817
 7194SOL    HW123479   3.212   4.776   6.736
 7194SOL    HW223480   3.279   4.810   6.868
 7195SOL     OW23481   9.346   8.482  13.264
 7195SOL    HW123482   9.315   8.549  13.325
 7195SOL    HW223483   9.272   8.469  13.204
 7196SOL     OW23484   8.708   5.354   9.643
 7196SOL    HW123485   8.679   5.316   9.726
 7196SOL    HW223486   8.629   5.395   9.608
 7197SOL     OW23487  11.050   5.897  14.702
 7197SOL    HW123488  11.101   5.849  14.636
 7197SOL    HW223489  11.115   5.925  14.766
 7198SOL     OW23490  13.878   5.105  12.353
 7198SOL    HW123491  13.875   5.051  12.274
 7198SOL    HW223492  13.950   5.068  12.404
 7199SOL     OW23493   8.403  14.557   5.881
 7199SOL    HW123494   8.471  14.519   5.937
 7199SOL    HW223495   8.321  14.517   5.911
 7200SOL     OW23496   7.432   5.616   2.653
 7200SOL    HW123497   7.480   5.540   2.685
 7200SOL    HW223498   7.358   5.579   2.604
 7201SOL     OW23499   2.994   3.552   6.380
 7201SOL    HW123500   3.007   3.574   6.472
 7201SOL    HW223501   3.075   3.506   6.354
 7202SOL     OW23502   8.742  14.270  10.027
 7202SOL    HW123503   8.813  14.298   9.970
 7202SOL    HW223504   8.672  14.333  10.011
 7203SOL     OW23505   9.586  13.742   3.015
 7203SOL    HW123506   9.492  13.730   3.028
 7203SOL    HW223507   9.624  13.656   3.029
 7204SOL     OW23508   2.425  13.483   9.815
 7204SOL    HW123509   2.455  13.413   9.757
 7204SOL    HW223510   2.412  13.558   9.758
 7205SOL     OW23511  13.082  13.822   0.743
 7205SOL    HW123512  13.002  13.772   0.760
 7205SOL    HW223513  13.150  13.755   0.736
 7206SOL     OW23514   8.868   2.177   5.437
 7206SOL    HW123515   8.783   2.138   5.459
 7206SOL    HW223516   8.917   2.106   5.394
 7207SOL     OW23517   0.988  10.486   4.400
 7207SOL    HW123518   1.006  10.428   4.474
 7207SOL    HW223519   0.989  10.428   4.324
 7208SOL     OW23520  13.570   5.706   5.831
 7208SOL    HW123521  13.505   5.765   5.869
 7208SOL    HW223522  13.555   5.711   5.737
 7209SOL     OW23523   8.269   9.039  10.080
 7209SOL    HW123524   8.298   9.046  10.171
 7209SOL    HW223525   8.330   9.095  10.031
 7210SOL     OW23526   0.155   7.800   9.400
 7210SOL    HW123527   0.236   7.751   9.416
 7210SOL    HW223528   0.184   7.882   9.361
 7211SOL     OW23529   4.932   1.705   9.766
 7211SOL    HW123530   4.845   1.737   9.740
 7211SOL    HW223531   4.985   1.716   9.687
 7212SOL     OW23532   7.068   1.058  11.673
 7212SOL    HW123533   7.015   1.120  11.624
 7212SOL    HW223534   7.082   1.100  11.758
 7213SOL     OW23535   6.124  13.583   4.170
 7213SOL    HW123536   6.052  13.647   4.174
 7213SOL    HW223537   6.158  13.592   4.081
 7214SOL     OW23538   8.512   2.364   9.030
 7214SOL    HW123539   8.436   2.350   8.973
 7214SOL    HW223540   8.585   2.375   8.970
 7215SOL     OW23541   1.324   5.041   6.108
 7215SOL    HW123542   1.362   5.127   6.124
 7215SOL    HW223543   1.335   5.027   6.014
 7216SOL     OW23544  14.790  14.349   2.611
 7216SOL    HW123545  14.808  14.258   2.632
 7216SOL    HW223546  14.772  14.390   2.696
 7217SOL     OW23547  11.884  12.039   9.040
 7217SOL    HW123548  11.935  12.112   9.075
 7217SOL    HW223549  11.948  11.973   9.017
 7218SOL     OW23550   6.857   6.997  13.807
 7218SOL    HW123551   6.786   7.008  13.744
 7218SOL    HW223552   6.845   7.069  13.869
 7219SOL     OW23553  13.143   0.542  14.009
 7219SOL    HW123554  13.196   0.518  14.085
 7219SOL    HW223555  13.206   0.554  13.938
 7220SOL     OW23556   6.755  10.641   3.245
 7220SOL    HW123557   6.840  10.639   3.290
 7220SOL    HW223558   6.765  10.710   3.179
 7221SOL     OW23559   7.942  11.123   6.550
 7221SOL    HW123560   7.997  11.189   6.593
 7221SOL    HW223561   7.972  11.122   6.459
 7222SOL     OW23562   8.173   3.700   2.065
 7222SOL    HW123563   8.229   3.663   2.133
 7222SOL    HW223564   8.138   3.623   2.019
 7223SOL     OW23565  10.252  14.314   3.230
 7223SOL    HW123566  10.205  14.383   3.278
 7223SOL    HW223567  10.343  14.342   3.231
 7224SOL     OW23568   5.960  11.842  14.321
 7224SOL    HW123569   5.935  11.828  14.413
 7224SOL    HW223570   6.052  11.866  14.325
 7225SOL     OW23571   0.173  10.365   0.958
 7225SOL    HW123572   0.094  10.346   0.908
 7225SOL    HW223573   0.230  10.412   0.898
 7226SOL     OW23574   7.252  11.352   7.819
 7226SOL    HW123575   7.335  11.384   7.784
 7226SOL    HW223576   7.275  11.313   7.904
 7227SOL     OW23577   7.655   7.377  10.044
 7227SOL    HW123578   7.714   7.449  10.023
 7227SOL    HW223579   7.567   7.415  10.037
 7228SOL     OW23580   9.297  14.752   4.643
 7228SOL    HW123581   9.304  14.846   4.624
 7228SOL    HW223582   9.317  14.709   4.560
 7229SOL     OW23583   6.470  13.663   3.917
 7229SOL    HW123584   6.381  13.664   3.882
 7229SOL    HW223585   6.462  13.706   4.002
 7230SOL     OW23586  13.962   4.467  12.864
 7230SOL    HW123587  13.962   4.391  12.806
 7230SOL    HW223588  13.904   4.444  12.936
 7231SOL     OW23589   1.634  11.804   9.997
 7231SOL    HW123590   1.543  11.815   9.972
 7231SOL    HW223591   1.640  11.844  10.084
 7232SOL     OW23592   8.412   9.930  10.750
 7232SOL    HW123593   8.399  10.025  10.752
 7232SOL    HW223594   8.438   9.911  10.660
 7233SOL     OW23595  11.688  10.519   6.765
 7233SOL    HW123596  11.757  10.534   6.829
 7233SOL    HW223597  11.733  10.508   6.681
 7234SOL     OW23598  12.275   6.237  14.486
 7234SOL    HW123599  12.261   6.172  14.554
 7234SOL    HW223600  12.211   6.216  14.418
 7235SOL     OW23601   9.951  10.614   8.983
 7235SOL    HW123602  10.045  10.604   8.964
 7235SOL    HW223603   9.946  10.693   9.037
 7236SOL     OW23604   2.159   3.545   1.175
 7236SOL    HW123605   2.222   3.525   1.106
 7236SOL    HW223606   2.169   3.639   1.189
 7237SOL     OW23607   2.793  11.183   4.290
 7237SOL    HW123608   2.781  11.105   4.236
 7237SOL    HW223609   2.886  11.203   4.283
 7238SOL     OW23610   7.596  11.981   6.499
 7238SOL    HW123611   7.679  11.974   6.451
 7238SOL    HW223612   7.542  11.911   6.462
 7239SOL     OW23613   0.122   5.098   5.764
 7239SOL    HW123614   0.062   5.030   5.732
 7239SOL    HW223615   0.209   5.063   5.745
 7240SOL     OW23616  10.809   3.861  14.700
 7240SOL    HW123617  10.903   3.881  14.697
 7240SOL    HW223618  10.803   3.771  14.670
 7241SOL     OW23619   1.282   5.192   5.072
 7241SOL    HW123620   1.329   5.109   5.079
 7241SOL    HW223621   1.301   5.238   5.154
 7242SOL     OW23622   0.577  13.486   4.186
 7242SOL    HW123623   0.655  13.488   4.242
 7242SOL    HW223624   0.606  13.525   4.103
 7243SOL     OW23625   9.598   1.370  13.362
 7243SOL    HW123626   9.646   1.390  13.442
 7243SOL    HW223627   9.518   1.327  13.391
 7244SOL     OW23628   1.945   2.148   8.394
 7244SOL    HW123629   1.919   2.240   8.388
 7244SOL    HW223630   1.887   2.110   8.460
 7245SOL     OW23631  13.944   4.633  10.274
 7245SOL    HW123632  13.923   4.716  10.318
 7245SOL    HW223633  13.886   4.631  10.198
 7246SOL     OW23634   3.569  10.706  10.541
 7246SOL    HW123635   3.474  10.715  10.533
 7246SOL    HW223636   3.581  10.630  10.596
 7247SOL     OW23637   6.788   3.898  14.821
 7247SOL    HW123638   6.784   3.969  14.757
 7247SOL    HW223639   6.705   3.851  14.809
 7248SOL     OW23640   3.872   8.745   9.034
 7248SOL    HW123641   3.872   8.838   9.010
 7248SOL    HW223642   3.829   8.743   9.120
 7249SOL     OW23643   9.918  11.552   2.481
 7249SOL    HW123644   9.918  11.637   2.524
 7249SOL    HW223645   9.976  11.563   2.406
 7250SOL     OW23646   9.933   7.415   7.336
 7250SOL    HW123647   9.887   7.485   7.289
 7250SOL    HW223648   9.923   7.338   7.281
 7251SOL     OW23649  12.455   4.080  11.149
 7251SOL    HW123650  12.444   4.174  11.139
 7251SOL    HW223651  12.522   4.069  11.216
 7252SOL     OW23652   9.865   6.833   7.535
 7252SOL    HW123653   9.921   6.784   7.475
 7252SOL    HW223654   9.925   6.886   7.587
 7253SOL     OW23655   2.911   8.741  11.055
 7253SOL    HW123656   2.852   8.719  10.983
 7253SOL    HW223657   2.900   8.835  11.068
 7254SOL     OW23658  14.318   0.960  10.545
 7254SOL    HW123659  14.354   0.951  10.633
 7254SOL    HW223660  14.368   0.898  10.492
 7255SOL     OW23661   1.810  11.188   3.587
 7255SOL    HW123662   1.786  11.183   3.495
 7255SOL    HW223663   1.738  11.236   3.628
 7256SOL     OW23664   5.407   7.093  10.712
 7256SOL    HW123665   5.325   7.071  10.755
 7256SOL    HW223666   5.433   7.176  10.751
 7257SOL     OW23667   5.031   8.713   7.091
 7257SOL    HW123668   5.011   8.804   7.073
 7257SOL    HW223669   4.976   8.690   7.166
 7258SOL     OW23670   5.368   5.258  13.577
 7258SOL    HW123671   5.434   5.326  13.590
 7258SOL    HW223672   5.289   5.305  13.551
 7259SOL     OW23673  13.010  10.677   4.633
 7259SOL    HW123674  12.957  10.695   4.555
 7259SOL    HW223675  13.099  10.663   4.598
 7260SOL     OW23676  10.429   6.422  13.871
 7260SOL    HW123677  10.433   6.515  13.890
 7260SOL    HW223678  10.490   6.409  13.799
 7261SOL     OW23679  12.492   8.602  12.713
 7261SOL    HW123680  12.550   8.647  12.651
 7261SOL    HW223681  12.527   8.513  12.717
 7262SOL     OW23682   2.152   2.983   0.314
 7262SOL    HW123683   2.158   2.917   0.246
 7262SOL    HW223684   2.087   3.045   0.281
 7263SOL     OW23685   6.246   7.964  12.292
 7263SOL    HW123686   6.245   8.060  12.299
 7263SOL    HW223687   6.295   7.947  12.211
 7264SOL     OW23688   9.351  13.704   6.001
 7264SOL    HW123689   9.283  13.755   6.045
 7264SOL    HW223690   9.413  13.770   5.968
 7265SOL     OW23691   1.662   9.786   8.875
 7265SOL    HW123692   1.715   9.729   8.820
 7265SOL    HW223693   1.721   9.856   8.902
 7266SOL     OW23694  11.304   2.080   9.160
 7266SOL    HW123695  11.384   2.127   9.133
 7266SOL    HW223696  11.336   2.000   9.201
 7267SOL     OW23697   2.790  14.718   6.048
 7267SOL    HW123698   2.876  14.759   6.056
 7267SOL    HW223699   2.807  14.624   6.060
 7268SOL     OW23700  14.096  10.631   6.258
 7268SOL    HW123701  14.124  10.547   6.220
 7268SOL    HW223702  14.177  10.671   6.290
 7269SOL     OW23703  14.704   4.189  12.124
 7269SOL    HW123704  14.661   4.181  12.209
 7269SOL    HW223705  14.635   4.221  12.065
 7270SOL     OW23706   6.476   4.382   3.214
 7270SOL    HW123707   6.393   4.361   3.257
 7270SOL    HW223708   6.543   4.342   3.271
 7271SOL     OW23709   3.579   7.237   7.667
 7271SOL    HW123710   3.551   7.290   7.741
 7271SOL    HW223711   3.602   7.152   7.705
 7272SOL     OW23712   9.386  11.906  14.534
 7272SOL    HW123713   9.471  11.897  14.491
 7272SOL    HW223714   9.403  11.963  14.609
 7273SOL     OW23715  13.341  14.768   9.670
 7273SOL    HW123716  13.389  14.838   9.714
 7273SOL    HW223717  13.253  14.804   9.657
 7274SOL     OW23718   2.687  10.489  11.158
 7274SOL    HW123719   2.697  10.426  11.087
 7274SOL    HW223720   2.745  10.561  11.133
 7275SOL     OW23721   3.091   5.935  12.556
 7275SOL    HW123722   3.083   5.863  12.495
 7275SOL    HW223723   3.047   5.905  12.635
 7276SOL     OW23724  10.007  14.479  13.630
 7276SOL    HW123725  10.079  14.502  13.688
 7276SOL    HW223726  10.005  14.549  13.565
 7277SOL     OW23727   4.078  11.310   9.823
 7277SOL    HW123728   3.995  11.354   9.844
 7277SOL    HW223729   4.139  11.344   9.889
 7278SOL     OW23730   0.365   0.057   7.168
 7278SOL    HW123731   0.289   0.012   7.205
 7278SOL    HW223732   0.422   0.073   7.244
 7279SOL     OW23733   1.794   0.629   2.586
 7279SOL    HW123734   1.801   0.722   2.566
 7279SOL    HW223735   1.750   0.626   2.671
 7280SOL     OW23736   6.496   4.939   1.112
 7280SOL    HW123737   6.428   4.928   1.178
 7280SOL    HW223738   6.452   4.917   1.030
 7281SOL     OW23739   4.065  10.138  12.744
 7281SOL    HW123740   4.084  10.055  12.701
 7281SOL    HW223741   3.973  10.154  12.724
 7282SOL     OW23742  12.296  11.073   2.728
 7282SOL    HW123743  12.223  11.133   2.744
 7282SOL    HW223744  12.320  11.040   2.814
 7283SOL     OW23745  11.493  12.361  10.298
 7283SOL    HW123746  11.546  12.284  10.317
 7283SOL    HW223747  11.498  12.370  10.203
 7284SOL     OW23748   7.309  10.391   1.217
 7284SOL    HW123749   7.292  10.484   1.231
 7284SOL    HW223750   7.400  10.387   1.187
 7285SOL     OW23751   4.164  14.172   8.534
 7285SOL    HW123752   4.069  14.176   8.523
 7285SOL    HW223753   4.199  14.190   8.446
 7286SOL     OW23754   2.822  11.539   7.334
 7286SOL    HW123755   2.804  11.560   7.426
 7286SOL    HW223756   2.916  11.553   7.325
 7287SOL     OW23757  13.330   8.955   1.576
 7287SOL    HW123758  13.295   8.866   1.582
 7287SOL    HW223759  13.259   9.011   1.606
 7288SOL     OW23760  10.221   8.416   1.810
 7288SOL    HW123761  10.132   8.387   1.827
 7288SOL    HW223762  10.215   8.512   1.805
 7289SOL     OW23763  13.212   6.561   5.353
 7289SOL    HW123764  13.173   6.500   5.290
 7289SOL    HW223765  13.233   6.639   5.301
 7290SOL     OW23766   8.273   5.539  13.301
 7290SOL    HW123767   8.306   5.486  13.228
 7290SOL    HW223768   8.284   5.629  13.272
 7291SOL     OW23769   5.015  12.518   8.977
 7291SOL    HW123770   4.998  12.612   8.984
 7291SOL    HW223771   4.938  12.484   8.931
 7292SOL     OW23772   0.423   0.867   4.371
 7292SOL    HW123773   0.494   0.804   4.384
 7292SOL    HW223774   0.395   0.853   4.281
 7293SOL     OW23775   0.670   2.447  12.751
 7293SOL    HW123776   0.602   2.477  12.811
 7293SOL    HW223777   0.709   2.371  12.795
 7294SOL     OW23778   2.308   7.510  13.694
 7294SOL    HW123779   2.226   7.541  13.731
 7294SOL    HW223780   2.292   7.508  13.599
 7295SOL     OW23781   7.216   3.885  10.297
 7295SOL    HW123782   7.221   3.845  10.384
 7295SOL    HW223783   7.267   3.826  10.241
 7296SOL     OW23784   5.163   0.361   5.597
 7296SOL    HW123785   5.137   0.364   5.689
 7296SOL    HW223786   5.099   0.304   5.555
 7297SOL     OW23787  13.962   1.646  12.020
 7297SOL    HW123788  14.045   1.672  12.060
 7297SOL    HW223789  13.985   1.572  11.964
 7298SOL     OW23790   0.389   7.597  14.561
 7298SOL    HW123791   0.450   7.651  14.612
 7298SOL    HW223792   0.434   7.581  14.478
 7299SOL     OW23793  14.501   5.347   5.534
 7299SOL    HW123794  14.520   5.441   5.530
 7299SOL    HW223795  14.514   5.316   5.444
 7300SOL     OW23796  11.743   9.285   8.607
 7300SOL    HW123797  11.736   9.205   8.555
 7300SOL    HW223798  11.837   9.298   8.619
 7301SOL     OW23799   0.893  11.525   3.320
 7301SOL    HW123800   0.878  11.615   3.346
 7301SOL    HW223801   0.853  11.517   3.234
 7302SOL     OW23802  13.853   5.104   1.226
 7302SOL    HW123803  13.768   5.081   1.187
 7302SOL    HW223804  13.833   5.176   1.286
 7303SOL     OW23805   2.829  10.183  10.993
 7303SOL    HW123806   2.741  10.193  10.957
 7303SOL    HW223807   2.865  10.107  10.947
 7304SOL     OW23808   1.512  12.869   5.720
 7304SOL    HW123809   1.597  12.842   5.686
 7304SOL    HW223810   1.450  12.845   5.651
 7305SOL     OW23811  13.998   7.821  10.208
 7305SOL    HW123812  13.935   7.836  10.138
 7305SOL    HW223813  13.945   7.797  10.284
 7306SOL     OW23814   0.949   1.448   1.173
 7306SOL    HW123815   1.043   1.455   1.193
 7306SOL    HW223816   0.906   1.489   1.248
 7307SOL     OW23817   0.729   6.703   7.888
 7307SOL    HW123818   0.796   6.662   7.943
 7307SOL    HW223819   0.690   6.631   7.839
 7308SOL     OW23820   7.987   8.459   8.898
 7308SOL    HW123821   8.065   8.405   8.912
 7308SOL    HW223822   7.930   8.439   8.972
 7309SOL     OW23823   9.523  14.764  12.357
 7309SOL    HW123824   9.594  14.701  12.373
 7309SOL    HW223825   9.482  14.734  12.276
 7310SOL     OW23826  13.423   8.499  10.165
 7310SOL    HW123827  13.487   8.558  10.126
 7310SOL    HW223828  13.383   8.454  10.091
 7311SOL     OW23829   3.488   3.814   5.990
 7311SOL    HW123830   3.547   3.755   6.037
 7311SOL    HW223831   3.439   3.859   6.059
 7312SOL     OW23832   2.926  13.913  14.463
 7312SOL    HW123833   2.855  13.851  14.482
 7312SOL    HW223834   2.885  13.980  14.409
 7313SOL     OW23835   2.931   4.490  12.819
 7313SOL    HW123836   2.982   4.431  12.874
 7313SOL    HW223837   2.882   4.545  12.881
 7314SOL     OW23838  11.989   6.703   0.393
 7314SOL    HW123839  11.919   6.644   0.422
 7314SOL    HW223840  11.989   6.774   0.458
 7315SOL     OW23841   4.339   5.097   4.253
 7315SOL    HW123842   4.336   5.147   4.334
 7315SOL    HW223843   4.302   5.012   4.276
 7316SOL     OW23844   1.642   7.131   8.630
 7316SOL    HW123845   1.696   7.204   8.661
 7316SOL    HW223846   1.554   7.150   8.665
 7317SOL     OW23847   6.816  13.980   3.146
 7317SOL    HW123848   6.861  13.907   3.190
 7317SOL    HW223849   6.883  14.018   3.090
 7318SOL     OW23850  14.101   7.924  11.827
 7318SOL    HW123851  14.116   7.903  11.919
 7318SOL    HW223852  14.189   7.930  11.789
 7319SOL     OW23853   7.689   2.318   6.722
 7319SOL    HW123854   7.691   2.329   6.627
 7319SOL    HW223855   7.621   2.252   6.736
 7320SOL     OW23856   4.139   6.710   6.626
 7320SOL    HW123857   4.091   6.772   6.571
 7320SOL    HW223858   4.151   6.633   6.570
 7321SOL     OW23859   8.694   8.798   5.228
 7321SOL    HW123860   8.605   8.764   5.232
 7321SOL    HW223861   8.695   8.854   5.150
 7322SOL     OW23862   1.119   9.107   8.660
 7322SOL    HW123863   1.154   9.058   8.734
 7322SOL    HW223864   1.024   9.097   8.667
 7323SOL     OW23865  13.558   4.721  12.181
 7323SOL    HW123866  13.570   4.804  12.135
 7323SOL    HW223867  13.628   4.664  12.149
 7324SOL     OW23868   8.432  13.424  10.952
 7324SOL    HW123869   8.349  13.379  10.939
 7324SOL    HW223870   8.489  13.390  10.883
 7325SOL     OW23871   1.645   4.451   7.575
 7325SOL    HW123872   1.619   4.543   7.577
 7325SOL    HW223873   1.605   4.416   7.496
 7326SOL     OW23874   8.788  10.511   8.083
 7326SOL    HW123875   8.764  10.593   8.039
 7326SOL    HW223876   8.747  10.443   8.030
 7327SOL     OW23877   9.155  12.824   2.706
 7327SOL    HW123878   9.080  12.882   2.695
 7327SOL    HW223879   9.170  12.788   2.619
 7328SOL     OW23880   8.872  14.636  10.143
 7328SOL    HW123881   8.785  14.623  10.181
 7328SOL    HW223882   8.896  14.725  10.170
 7329SOL     OW23883  11.180   1.299   7.813
 7329SOL    HW123884  11.130   1.341   7.884
 7329SOL    HW223885  11.120   1.300   7.738
 7330SOL     OW23886  12.301   5.863   4.663
 7330SOL    HW123887  12.374   5.908   4.705
 7330SOL    HW223888  12.337   5.779   4.635
 7331SOL     OW23889  14.698   3.795   0.491
 7331SOL    HW123890  14.678   3.704   0.469
 7331SOL    HW223891  14.792   3.795   0.507
 7332SOL     OW23892   5.965   2.317  12.680
 7332SOL    HW123893   5.874   2.321  12.709
 7332SOL    HW223894   5.968   2.246  12.616
 7333SOL     OW23895   4.602  14.600   7.647
 7333SOL    HW123896   4.634  14.690   7.648
 7333SOL    HW223897   4.678  14.546   7.667
 7334SOL     OW23898  11.759   0.236   2.084
 7334SOL    HW123899  11.841   0.271   2.119
 7334SOL    HW223900  11.748   0.151   2.126
 7335SOL     OW23901  14.815  13.850  14.455
 7335SOL    HW123902  14.758  13.773  14.458
 7335SOL    HW223903  14.799  13.894  14.539
 7336SOL     OW23904  12.946   4.463   2.414
 7336SOL    HW123905  12.855   4.439   2.399
 7336SOL    HW223906  12.986   4.385   2.451
 7337SOL     OW23907   5.011   7.840   0.213
 7337SOL    HW123908   4.993   7.886   0.132
 7337SOL    HW223909   5.105   7.821   0.210
 7338SOL     OW23910   7.910  12.242   8.455
 7338SOL    HW123911   7.938  12.213   8.368
 7338SOL    HW223912   7.954  12.325   8.469
 7339SOL     OW23913   4.283   8.707   7.882
 7339SOL    HW123914   4.261   8.724   7.974
 7339SOL    HW223915   4.379   8.716   7.879
 7340SOL     OW23916   9.151   3.560   9.258
 7340SOL    HW123917   9.191   3.621   9.197
 7340SOL    HW223918   9.218   3.543   9.324
 7341SOL     OW23919   4.623   9.699   1.864
 7341SOL    HW123920   4.561   9.627   1.849
 7341SOL    HW223921   4.642   9.733   1.777
 7342SOL     OW23922   0.137   0.150  10.524
 7342SOL    HW123923   0.052   0.115  10.499
 7342SOL    HW223924   0.174   0.084  10.582
 7343SOL     OW23925   5.230  13.746   3.957
 7343SOL    HW123926   5.295  13.798   4.006
 7343SOL    HW223927   5.223  13.791   3.873
 7344SOL     OW23928  11.445  13.469  12.529
 7344SOL    HW123929  11.527  13.519  12.518
 7344SOL    HW223930  11.468  13.380  12.504
 7345SOL     OW23931   8.625   6.698   5.357
 7345SOL    HW123932   8.536   6.696   5.392
 7345SOL    HW223933   8.680   6.718   5.432
 7346SOL     OW23934   2.210   0.854   4.101
 7346SOL    HW123935   2.245   0.783   4.048
 7346SOL    HW223936   2.115   0.846   4.094
 7347SOL     OW23937   5.623  11.925   8.193
 7347SOL    HW123938   5.549  11.876   8.156
 7347SOL    HW223939   5.628  11.895   8.284
 7348SOL     OW23940   6.258  12.577  10.092
 7348SOL    HW123941   6.223  12.620  10.170
 7348SOL    HW223942   6.316  12.643  10.053
 7349SOL     OW23943  10.757   3.864  11.893
 7349SOL    HW123944  10.729   3.945  11.851
 7349SOL    HW223945  10.846   3.882  11.922
 7350SOL     OW23946   5.167   5.405  14.795
 7350SOL    HW123947   5.072   5.413  14.785
 7350SOL    HW223948   5.183   5.311  14.798
 7351SOL     OW23949   2.240   4.590  12.572
 7351SOL    HW123950   2.274   4.655  12.511
 7351SOL    HW223951   2.194   4.640  12.639
 7352SOL     OW23952   4.783  11.187  12.985
 7352SOL    HW123953   4.851  11.197  13.051
 7352SOL    HW223954   4.821  11.128  12.920
 7353SOL     OW23955   9.545   0.025   6.065
 7353SOL    HW123956   9.590   0.059   5.988
 7353SOL    HW223957   9.582  14.808   6.079
 7354SOL     OW23958   6.306   5.497   6.982
 7354SOL    HW123959   6.280   5.420   6.932
 7354SOL    HW223960   6.297   5.570   6.920
 7355SOL     OW23961   5.478  12.926   1.439
 7355SOL    HW123962   5.466  12.934   1.534
 7355SOL    HW223963   5.424  12.995   1.402
 7356SOL     OW23964   8.437  10.214  11.334
 7356SOL    HW123965   8.451  10.286  11.273
 7356SOL    HW223966   8.405  10.142  11.279
 7357SOL     OW23967   3.518   1.437   3.866
 7357SOL    HW123968   3.503   1.347   3.838
 7357SOL    HW223969   3.553   1.481   3.788
 7358SOL     OW23970  11.692   2.635   1.916
 7358SOL    HW123971  11.721   2.574   1.848
 7358SOL    HW223972  11.597   2.635   1.908
 7359SOL     OW23973   1.723   6.198   7.961
 7359SOL    HW123974   1.785   6.129   7.936
 7359SOL    HW223975   1.675   6.163   8.035
 7360SOL     OW23976   6.854  12.432  10.595
 7360SOL    HW123977   6.775  12.446  10.646
 7360SOL    HW223978   6.890  12.520  10.582
 7361SOL     OW23979   9.011   8.457  11.342
 7361SOL    HW123980   9.035   8.364  11.350
 7361SOL    HW223981   8.920   8.456  11.314
 7362SOL     OW23982   1.285   3.687   7.847
 7362SOL    HW123983   1.315   3.624   7.782
 7362SOL    HW223984   1.320   3.655   7.930
 7363SOL     OW23985  12.584   9.331   2.019
 7363SOL    HW123986  12.552   9.346   2.108
 7363SOL    HW223987  12.599   9.236   2.015
 7364SOL     OW23988   6.552   8.583   4.108
 7364SOL    HW123989   6.589   8.511   4.057
 7364SOL    HW223990   6.539   8.547   4.195
 7365SOL     OW23991   9.210   4.846   1.323
 7365SOL    HW123992   9.268   4.776   1.293
 7365SOL    HW223993   9.205   4.907   1.249
 7366SOL     OW23994  10.915   4.904   6.480
 7366SOL    HW123995  10.847   4.841   6.504
 7366SOL    HW223996  10.869   4.987   6.470
 7367SOL     OW23997  14.848   3.576   0.218
 7367SOL    HW123998  14.852   3.483   0.195
 7367SOL    HW223999   0.014   3.579   0.307
 7368SOL     OW24000  10.809  12.146  14.813
 7368SOL    HW124001  10.809  12.234  14.775
 7368SOL    HW224002  10.848  12.091  14.745
 7369SOL     OW24003  10.588   4.691   3.291
 7369SOL    HW124004  10.677   4.669   3.262
 7369SOL    HW224005  10.584   4.786   3.284
 7370SOL     OW24006   7.034   0.055  10.421
 7370SOL    HW124007   6.981   0.100  10.486
 7370SOL    HW224008   6.977  14.856  10.387
 7371SOL     OW24009   1.940   7.878   9.283
 7371SOL    HW124010   1.992   7.823   9.340
 7371SOL    HW224011   1.930   7.827   9.202
 7372SOL     OW24012   0.803   2.517   6.723
 7372SOL    HW124013   0.894   2.492   6.737
 7372SOL    HW224014   0.782   2.484   6.635
 7373SOL     OW24015   7.357  10.219   6.533
 7373SOL    HW124016   7.375  10.137   6.488
 7373SOL    HW224017   7.442  10.260   6.543
 7374SOL     OW24018   6.007  12.196  11.896
 7374SOL    HW124019   5.927  12.209  11.946
 7374SOL    HW224020   6.063  12.269  11.922
 7375SOL     OW24021   3.458  13.322  11.937
 7375SOL    HW124022   3.491  13.396  11.989
 7375SOL    HW224023   3.537  13.272  11.915
 7376SOL     OW24024  11.181   5.799   9.616
 7376SOL    HW124025  11.253   5.788   9.678
 7376SOL    HW224026  11.120   5.729   9.637
 7377SOL     OW24027   4.907  10.099   4.052
 7377SOL    HW124028   4.927  10.014   4.011
 7377SOL    HW224029   4.910  10.081   4.146
 7378SOL     OW24030  13.690   6.483  13.069
 7378SOL    HW124031  13.622   6.542  13.101
 7378SOL    HW224032  13.709   6.516  12.981
 7379SOL     OW24033   0.095  13.156   8.299
 7379SOL    HW124034   0.083  13.250   8.312
 7379SOL    HW224035   0.066  13.141   8.208
 7380SOL     OW24036  11.131   9.872   1.888
 7380SOL    HW124037  11.121   9.786   1.930
 7380SOL    HW224038  11.045   9.890   1.851
 7381SOL     OW24039  13.960   8.521  13.659
 7381SOL    HW124040  13.913   8.587  13.710
 7381SOL    HW224041  13.913   8.439  13.675
 7382SOL     OW24042   6.494   8.783  12.789
 7382SOL    HW124043   6.456   8.740  12.712
 7382SOL    HW224044   6.545   8.715  12.832
 7383SOL     OW24045   6.770  13.530   8.174
 7383SOL    HW124046   6.693  13.480   8.144
 7383SOL    HW224047   6.780  13.505   8.265
 7384SOL     OW24048   8.261   3.320   2.888
 7384SOL    HW124049   8.335   3.261   2.872
 7384SOL    HW224050   8.278   3.395   2.831
 7385SOL     OW24051  13.489  14.316  11.466
 7385SOL    HW124052  13.455  14.401  11.437
 7385SOL    HW224053  13.583  14.331  11.476
 7386SOL     OW24054  11.899   9.765   8.537
 7386SOL    HW124055  11.808   9.754   8.512
 7386SOL    HW224056  11.896   9.793   8.629
 7387SOL     OW24057   8.464  10.071  12.300
 7387SOL    HW124058   8.381  10.055  12.344
 7387SOL    HW224059   8.455  10.157  12.260
 7388SOL     OW24060   3.862   7.029   9.972
 7388SOL    HW124061   3.792   7.073  10.020
 7388SOL    HW224062   3.828   7.021   9.883
 7389SOL     OW24063   0.760  11.890   0.418
 7389SOL    HW124064   0.679  11.856   0.379
 7389SOL    HW224065   0.732  11.928   0.501
 7390SOL     OW24066   6.220   7.966   7.185
 7390SOL    HW124067   6.249   7.880   7.155
 7390SOL    HW224068   6.246   7.970   7.277
 7391SOL     OW24069   3.837   8.723  11.565
 7391SOL    HW124070   3.756   8.736  11.517
 7391SOL    HW224071   3.818   8.651  11.625
 7392SOL     OW24072   3.549   9.222  14.053
 7392SOL    HW124073   3.544   9.192  13.962
 7392SOL    HW224074   3.499   9.304  14.054
 7393SOL     OW24075   0.637   2.537   6.967
 7393SOL    HW124076   0.719   2.555   6.921
 7393SOL    HW224077   0.598   2.464   6.919
 7394SOL     OW24078   0.359   2.356  13.564
 7394SOL    HW124079   0.317   2.272  13.581
 7394SOL    HW224080   0.295   2.406  13.513
 7395SOL     OW24081   4.568   3.833   8.493
 7395SOL    HW124082   4.530   3.920   8.497
 7395SOL    HW224083   4.622   3.826   8.572
 7396SOL     OW24084   4.325   0.740   8.308
 7396SOL    HW124085   4.402   0.794   8.323
 7396SOL    HW224086   4.270   0.793   8.249
 7397SOL     OW24087   4.020   4.323   2.722
 7397SOL    HW124088   4.005   4.272   2.801
 7397SOL    HW224089   3.955   4.290   2.659
 7398SOL     OW24090   2.871   8.622  12.170
 7398SOL    HW124091   2.778   8.641  12.170
 7398SOL    HW224092   2.909   8.683  12.234
 7399SOL     OW24093  11.793   4.598   3.159
 7399SOL    HW124094  11.765   4.656   3.089
 7399SOL    HW224095  11.716   4.545   3.178
 7400SOL     OW24096  13.221   4.893   4.126
 7400SOL    HW124097  13.271   4.882   4.045
 7400SOL    HW224098  13.287   4.907   4.193
 7401SOL     OW24099   8.701   7.839   6.982
 7401SOL    HW124100   8.772   7.860   7.042
 7401SOL    HW224101   8.742   7.783   6.916
 7402SOL     OW24102   2.116   2.252   8.739
 7402SOL    HW124103   2.187   2.299   8.783
 7402SOL    HW224104   2.153   2.229   8.654
 7403SOL     OW24105   8.694  11.913   7.030
 7403SOL    HW124106   8.695  11.970   6.953
 7403SOL    HW224107   8.646  11.963   7.096
 7404SOL     OW24108  13.144  10.892   3.134
 7404SOL    HW124109  13.225  10.904   3.085
 7404SOL    HW224110  13.135  10.973   3.186
 7405SOL     OW24111   4.022   4.995   0.074
 7405SOL    HW124112   4.020   4.905   0.041
 7405SOL    HW224113   3.946   5.001   0.132
 7406SOL     OW24114   5.690   7.766   3.251
 7406SOL    HW124115   5.724   7.846   3.210
 7406SOL    HW224116   5.764   7.705   3.250
 7407SOL     OW24117   2.507   0.788   5.854
 7407SOL    HW124118   2.444   0.837   5.800
 7407SOL    HW224119   2.577   0.765   5.793
 7408SOL     OW24120   5.665   3.380   7.304
 7408SOL    HW124121   5.715   3.441   7.250
 7408SOL    HW224122   5.727   3.351   7.371
 7409SOL     OW24123  12.159   6.032   8.672
 7409SOL    HW124124  12.087   6.056   8.731
 7409SOL    HW224125  12.237   6.032   8.727
 7410SOL     OW24126   1.192  10.408   4.855
 7410SOL    HW124127   1.281  10.374   4.845
 7410SOL    HW224128   1.161  10.370   4.937
 7411SOL     OW24129  14.800   4.378   1.408
 7411SOL    HW124130  14.817   4.468   1.380
 7411SOL    HW224131  14.718   4.355   1.364
 7412SOL     OW24132  12.774   4.222   9.771
 7412SOL    HW124133  12.720   4.276   9.830
 7412SOL    HW224134  12.863   4.230   9.806
 7413SOL     OW24135   3.000   1.387   3.551
 7413SOL    HW124136   3.061   1.323   3.587
 7413SOL    HW224137   3.052   1.467   3.542
 7414SOL     OW24138  10.200   9.339   1.887
 7414SOL    HW124139  10.278   9.379   1.926
 7414SOL    HW224140  10.225   9.321   1.796
 7415SOL     OW24141   4.353  10.077   4.931
 7415SOL    HW124142   4.263  10.104   4.952
 7415SOL    HW224143   4.387  10.042   5.013
 7416SOL     OW24144   3.932  10.476   0.286
 7416SOL    HW124145   3.988  10.552   0.303
 7416SOL    HW224146   3.854  10.512   0.244
 7417SOL     OW24147   7.416   3.825   7.902
 7417SOL    HW124148   7.349   3.762   7.874
 7417SOL    HW224149   7.422   3.887   7.829
 7418SOL     OW24150   7.919   1.982   2.124
 7418SOL    HW124151   7.942   1.979   2.217
 7418SOL    HW224152   8.000   1.960   2.078
 7419SOL     OW24153   5.336   7.137   3.492
 7419SOL    HW124154   5.312   7.160   3.582
 7419SOL    HW224155   5.431   7.148   3.489
 7420SOL     OW24156   1.027   9.780  10.407
 7420SOL    HW124157   0.971   9.771  10.330
 7420SOL    HW224158   1.023   9.873  10.429
 7421SOL     OW24159   9.219  12.809   5.061
 7421SOL    HW124160   9.282  12.834   5.128
 7421SOL    HW224161   9.201  12.890   5.013
 7422SOL     OW24162   6.217   9.825  10.454
 7422SOL    HW124163   6.271   9.880  10.511
 7422SOL    HW224164   6.147   9.882  10.424
 7423SOL     OW24165   9.883   2.617   3.298
 7423SOL    HW124166   9.972   2.644   3.320
 7423SOL    HW224167   9.832   2.698   3.297
 7424SOL     OW24168   8.430  12.107   4.546
 7424SOL    HW124169   8.492  12.124   4.476
 7424SOL    HW224170   8.472  12.142   4.625
 7425SOL     OW24171  10.493   1.225   8.212
 7425SOL    HW124172  10.424   1.292   8.211
 7425SOL    HW224173  10.558   1.257   8.150
 7426SOL     OW24174   1.628  13.113   3.071
 7426SOL    HW124175   1.572  13.098   3.147
 7426SOL    HW224176   1.679  13.032   3.062
 7427SOL     OW24177  12.118   4.170   8.729
 7427SOL    HW124178  12.150   4.242   8.675
 7427SOL    HW224179  12.086   4.105   8.667
 7428SOL     OW24180   2.919   1.675  11.499
 7428SOL    HW124181   3.004   1.704  11.466
 7428SOL    HW224182   2.861   1.681  11.424
 7429SOL     OW24183  14.475   2.886   7.802
 7429SOL    HW124184  14.387   2.875   7.766
 7429SOL    HW224185  14.509   2.797   7.808
 7430SOL     OW24186   8.968   3.387  11.251
 7430SOL    HW124187   8.977   3.344  11.166
 7430SOL    HW224188   8.888   3.440  11.241
 7431SOL     OW24189  13.237   7.047   2.315
 7431SOL    HW124190  13.260   6.954   2.310
 7431SOL    HW224191  13.193   7.057   2.399
 7432SOL     OW24192  10.091   9.836   5.085
 7432SOL    HW124193  10.106   9.828   5.179
 7432SOL    HW224194  10.155   9.776   5.045
 7433SOL     OW24195   9.226   1.658   8.521
 7433SOL    HW124196   9.320   1.649   8.506
 7433SOL    HW224197   9.187   1.658   8.433
 7434SOL     OW24198   5.675   6.862  14.199
 7434SOL    HW124199   5.713   6.799  14.260
 7434SOL    HW224200   5.599   6.898  14.245
 7435SOL     OW24201   8.973  13.676   5.896
 7435SOL    HW124202   9.006  13.766   5.899
 7435SOL    HW224203   9.052  13.622   5.901
 7436SOL     OW24204   2.224   8.102   4.953
 7436SOL    HW124205   2.159   8.075   4.888
 7436SOL    HW224206   2.237   8.025   5.008
 7437SOL     OW24207   0.336   5.145  11.386
 7437SOL    HW124208   0.362   5.144  11.478
 7437SOL    HW224209   0.329   5.052  11.363
 7438SOL     OW24210   9.861  13.092   1.054
 7438SOL    HW124211   9.789  13.032   1.035
 7438SOL    HW224212   9.823  13.158   1.112
 7439SOL     OW24213   8.184  13.309   6.330
 7439SOL    HW124214   8.279  13.311   6.344
 7439SOL    HW224215   8.163  13.216   6.327
 7440SOL     OW24216   0.544   7.301   0.836
 7440SOL    HW124217   0.473   7.324   0.896
 7440SOL    HW224218   0.624   7.316   0.887
 7441SOL     OW24219   8.116  14.660   6.862
 7441SOL    HW124220   8.094  14.568   6.872
 7441SOL    HW224221   8.211  14.664   6.876
 7442SOL     OW24222  11.711  10.691   2.850
 7442SOL    HW124223  11.649  10.745   2.899
 7442SOL    HW224224  11.778  10.668   2.915
 7443SOL     OW24225   8.400  13.174   4.140
 7443SOL    HW124226   8.467  13.166   4.072
 7443SOL    HW224227   8.378  13.084   4.163
 7444SOL     OW24228  10.523  12.941   9.706
 7444SOL    HW124229  10.496  12.880   9.638
 7444SOL    HW224230  10.591  12.894   9.755
 7445SOL     OW24231   3.606   0.195   0.667
 7445SOL    HW124232   3.642   0.158   0.586
 7445SOL    HW224233   3.526   0.238   0.640
 7446SOL     OW24234  10.106  12.925  10.004
 7446SOL    HW124235  10.028  12.927  10.059
 7446SOL    HW224236  10.154  12.847  10.032
 7447SOL     OW24237   1.800   5.961  13.882
 7447SOL    HW124238   1.796   5.956  13.977
 7447SOL    HW224239   1.841   5.878  13.855
 7448SOL     OW24240   2.180  12.732   8.524
 7448SOL    HW124241   2.258  12.759   8.573
 7448SOL    HW224242   2.188  12.775   8.439
 7449SOL     OW24243   3.105   4.060   3.921
 7449SOL    HW124244   3.063   4.071   4.007
 7449SOL    HW224245   3.056   4.119   3.863
 7450SOL     OW24246   2.401   2.868  14.413
 7450SOL    HW124247   2.473   2.925  14.387
 7450SOL    HW224248   2.414   2.854  14.507
 7451SOL     OW24249  14.857  10.543  13.381
 7451SOL    HW124250   0.065  10.555  13.326
 7451SOL    HW224251  14.841  10.448  13.379
 7452SOL     OW24252  13.587   8.895  11.973
 7452SOL    HW124253  13.658   8.917  11.913
 7452SOL    HW224254  13.510   8.886  11.917
 7453SOL     OW24255   2.190   8.541   2.565
 7453SOL    HW124256   2.238   8.504   2.639
 7453SOL    HW224257   2.227   8.499   2.488
 7454SOL     OW24258   2.241  14.060  12.447
 7454SOL    HW124259   2.238  13.967  12.472
 7454SOL    HW224260   2.308  14.097  12.504
 7455SOL     OW24261   0.552   5.139  14.321
 7455SOL    HW124262   0.599   5.167  14.400
 7455SOL    HW224263   0.494   5.212  14.300
 7456SOL     OW24264   6.675   0.238  14.329
 7456SOL    HW124265   6.599   0.271  14.282
 7456SOL    HW224266   6.739   0.309  14.325
 7457SOL     OW24267   5.798  13.404   7.243
 7457SOL    HW124268   5.706  13.430   7.240
 7457SOL    HW224269   5.812  13.353   7.163
 7458SOL     OW24270   5.387   9.552   8.524
 7458SOL    HW124271   5.450   9.486   8.497
 7458SOL    HW224272   5.342   9.576   8.442
 7459SOL     OW24273   3.697   5.127  14.690
 7459SOL    HW124274   3.685   5.045  14.642
 7459SOL    HW224275   3.727   5.100  14.777
 7460SOL     OW24276   3.530   3.127   3.780
 7460SOL    HW124277   3.539   3.077   3.861
 7460SOL    HW224278   3.619   3.140   3.749
 7461SOL     OW24279   0.850  11.368  11.430
 7461SOL    HW124280   0.755  11.365  11.420
 7461SOL    HW224281   0.884  11.339  11.345
 7462SOL     OW24282   1.757  10.203   9.104
 7462SOL    HW124283   1.714  10.274   9.057
 7462SOL    HW224284   1.760  10.234   9.195
 7463SOL     OW24285   2.580   1.188   7.954
 7463SOL    HW124286   2.566   1.170   8.047
 7463SOL    HW224287   2.554   1.279   7.942
 7464SOL     OW24288   4.772   3.112  11.288
 7464SOL    HW124289   4.726   3.056  11.351
 7464SOL    HW224290   4.768   3.200  11.326
 7465SOL     OW24291   6.314  11.687   7.199
 7465SOL    HW124292   6.242  11.746   7.177
 7465SOL    HW224293   6.271  11.611   7.238
 7466SOL     OW24294  11.403   6.443   5.414
 7466SOL    HW124295  11.354   6.446   5.496
 7466SOL    HW224296  11.486   6.486   5.434
 7467SOL     OW24297   6.438   1.197   6.302
 7467SOL    HW124298   6.499   1.166   6.235
 7467SOL    HW224299   6.494   1.217   6.377
 7468SOL     OW24300  12.532   5.141   7.593
 7468SOL    HW124301  12.485   5.158   7.511
 7468SOL    HW224302  12.604   5.204   7.593
 7469SOL     OW24303  13.600   5.952   5.967
 7469SOL    HW124304  13.586   6.043   5.942
 7469SOL    HW224305  13.686   5.930   5.932
 7470SOL     OW24306   4.826   1.765  10.335
 7470SOL    HW124307   4.865   1.757  10.248
 7470SOL    HW224308   4.742   1.808  10.319
 7471SOL     OW24309  10.435  14.024   7.486
 7471SOL    HW124310  10.387  13.949   7.522
 7471SOL    HW224311  10.492  14.052   7.557
 7472SOL     OW24312  13.798  10.054   5.670
 7472SOL    HW124313  13.705  10.063   5.690
 7472SOL    HW224314  13.828   9.984   5.728
 7473SOL     OW24315   4.881   6.633  14.096
 7473SOL    HW124316   4.833   6.715  14.080
 7473SOL    HW224317   4.853   6.606  14.183
 7474SOL     OW24318   5.184  10.073  14.589
 7474SOL    HW124319   5.102  10.024  14.592
 7474SOL    HW224320   5.203  10.096  14.680
 7475SOL     OW24321   5.682   8.134  13.706
 7475SOL    HW124322   5.594   8.133  13.744
 7475SOL    HW224323   5.694   8.045  13.673
 7476SOL     OW24324   0.074  11.259   6.442
 7476SOL    HW124325   0.168  11.264   6.428
 7476SOL    HW224326   0.061  11.300   6.528
 7477SOL     OW24327  14.816   8.225   5.763
 7477SOL    HW124328  14.745   8.183   5.813
 7477SOL    HW224329  14.819   8.315   5.796
 7478SOL     OW24330  10.374   4.102  13.512
 7478SOL    HW124331  10.412   4.147  13.436
 7478SOL    HW224332  10.363   4.011  13.483
 7479SOL     OW24333   3.794   1.716   2.794
 7479SOL    HW124334   3.832   1.635   2.758
 7479SOL    HW224335   3.750   1.689   2.874
 7480SOL     OW24336   9.864  10.353  12.334
 7480SOL    HW124337   9.950  10.390  12.311
 7480SOL    HW224338   9.849  10.383  12.424
 7481SOL     OW24339  14.393  12.797   0.095
 7481SOL    HW124340  14.323  12.778   0.032
 7481SOL    HW224341  14.371  12.743   0.171
 7482SOL     OW24342   6.523   2.363   2.115
 7482SOL    HW124343   6.496   2.280   2.153
 7482SOL    HW224344   6.607   2.383   2.157
 7483SOL     OW24345   5.953  14.364  13.244
 7483SOL    HW124346   5.876  14.312  13.267
 7483SOL    HW224347   6.026  14.321  13.290
 7484SOL     OW24348  13.509   6.048   1.453
 7484SOL    HW124349  13.460   6.109   1.396
 7484SOL    HW224350  13.581   6.100   1.487
 7485SOL     OW24351   1.825  13.854   1.563
 7485SOL    HW124352   1.893  13.903   1.518
 7485SOL    HW224353   1.797  13.787   1.501
 7486SOL     OW24354   8.200  13.731   3.745
 7486SOL    HW124355   8.232  13.649   3.783
 7486SOL    HW224356   8.113  13.709   3.711
 7487SOL     OW24357  13.912  10.510   7.180
 7487SOL    HW124358  13.877  10.434   7.227
 7487SOL    HW224359  13.846  10.578   7.191
 7488SOL     OW24360   7.843   1.076  11.444
 7488SOL    HW124361   7.916   1.134  11.466
 7488SOL    HW224362   7.841   1.013  11.516
 7489SOL     OW24363   8.325   4.462   8.906
 7489SOL    HW124364   8.327   4.557   8.908
 7489SOL    HW224365   8.406   4.437   8.861
 7490SOL     OW24366  13.893   0.917   1.705
 7490SOL    HW124367  13.856   0.965   1.779
 7490SOL    HW224368  13.869   0.825   1.722
 7491SOL     OW24369   2.091   1.885   3.214
 7491SOL    HW124370   2.140   1.818   3.168
 7491SOL    HW224371   2.009   1.893   3.164
 7492SOL     OW24372   5.971   7.470   2.235
 7492SOL    HW124373   5.943   7.540   2.176
 7492SOL    HW224374   5.955   7.389   2.186
 7493SOL     OW24375  11.650   2.121   2.756
 7493SOL    HW124376  11.591   2.096   2.827
 7493SOL    HW224377  11.594   2.129   2.679
 7494SOL     OW24378  10.570   4.267   8.468
 7494SOL    HW124379  10.650   4.262   8.416
 7494SOL    HW224380  10.593   4.322   8.542
 7495SOL     OW24381  13.435  14.579   0.286
 7495SOL    HW124382  13.449  14.486   0.303
 7495SOL    HW224383  13.340  14.586   0.272
 7496SOL     OW24384   3.173   5.036  10.252
 7496SOL    HW124385   3.173   5.093  10.175
 7496SOL    HW224386   3.129   5.088  10.319
 7497SOL     OW24387  13.719   3.615  12.382
 7497SOL    HW124388  13.680   3.529  12.398
 7497SOL    HW224389  13.671   3.674  12.439
 7498SOL     OW24390   0.161  13.869   7.299
 7498SOL    HW124391   0.066  13.881   7.286
 7498SOL    HW224392   0.189  13.818   7.223
 7499SOL     OW24393  11.566  14.654   6.999
 7499SOL    HW124394  11.591  14.746   7.010
 7499SOL    HW224395  11.470  14.655   6.997
 7500SOL     OW24396  11.018   7.359  13.386
 7500SOL    HW124397  11.023   7.392  13.475
 7500SOL    HW224398  10.925   7.361  13.365
 7501SOL     OW24399   4.803   3.992   9.905
 7501SOL    HW124400   4.835   3.907   9.935
 7501SOL    HW224401   4.881   4.047   9.899
 7502SOL     OW24402  12.206   9.627  13.158
 7502SOL    HW124403  12.270   9.628  13.087
 7502SOL    HW224404  12.204   9.535  13.187
 7503SOL     OW24405   1.246   6.166  14.405
 7503SOL    HW124406   1.249   6.142  14.498
 7503SOL    HW224407   1.180   6.108  14.368
 7504SOL     OW24408   8.247   1.871  10.116
 7504SOL    HW124409   8.198   1.789  10.129
 7504SOL    HW224410   8.192   1.923  10.057
 7505SOL     OW24411  11.984   5.139   0.287
 7505SOL    HW124412  11.930   5.070   0.325
 7505SOL    HW224413  12.043   5.166   0.358
 7506SOL     OW24414   3.988  12.319   5.566
 7506SOL    HW124415   3.920  12.296   5.503
 7506SOL    HW224416   4.066  12.335   5.512
 7507SOL     OW24417   7.386   7.001  12.525
 7507SOL    HW124418   7.342   7.012  12.440
 7507SOL    HW224419   7.429   7.085  12.540
 7508SOL     OW24420   3.524   2.374   2.389
 7508SOL    HW124421   3.597   2.434   2.405
 7508SOL    HW224422   3.469   2.381   2.468
 7509SOL     OW24423   1.527   5.097  11.422
 7509SOL    HW124424   1.590   5.163  11.392
 7509SOL    HW224425   1.578   5.039  11.479
 7510SOL     OW24426   2.979   5.983   3.957
 7510SOL    HW124427   2.927   5.943   3.888
 7510SOL    HW224428   2.916   6.028   4.013
 7511SOL     OW24429   1.046  10.722  10.552
 7511SOL    HW124430   0.977  10.690  10.609
 7511SOL    HW224431   1.006  10.794  10.503
 7512SOL     OW24432   2.883   1.681   8.361
 7512SOL    HW124433   2.959   1.672   8.419
 7512SOL    HW224434   2.871   1.776   8.353
 7513SOL     OW24435  10.886   2.781   4.412
 7513SOL    HW124436  10.862   2.797   4.503
 7513SOL    HW224437  10.872   2.865   4.368
 7514SOL     OW24438  11.758   0.986   1.943
 7514SOL    HW124439  11.705   1.013   1.868
 7514SOL    HW224440  11.711   1.018   2.020
 7515SOL     OW24441  13.727  13.937   0.337
 7515SOL    HW124442  13.744  14.029   0.358
 7515SOL    HW224443  13.633  13.933   0.322
 7516SOL     OW24444   4.283   3.696   4.023
 7516SOL    HW124445   4.312   3.773   4.072
 7516SOL    HW224446   4.360   3.670   3.973
 7517SOL     OW24447  13.636   6.590  12.601
 7517SOL    HW124448  13.697   6.627  12.537
 7517SOL    HW224449  13.612   6.505  12.564
 7518SOL     OW24450   6.063   4.432   3.984
 7518SOL    HW124451   6.040   4.490   4.057
 7518SOL    HW224452   6.065   4.344   4.023
 7519SOL     OW24453   1.963   7.163   2.828
 7519SOL    HW124454   2.010   7.246   2.834
 7519SOL    HW224455   1.993   7.113   2.904
 7520SOL     OW24456   0.443  12.773   8.870
 7520SOL    HW124457   0.419  12.865   8.856
 7520SOL    HW224458   0.503  12.775   8.945
 7521SOL     OW24459   4.269  13.273   1.139
 7521SOL    HW124460   4.319  13.215   1.197
 7521SOL    HW224461   4.311  13.359   1.149
 7522SOL     OW24462   3.781  12.843  10.312
 7522SOL    HW124463   3.826  12.796  10.382
 7522SOL    HW224464   3.785  12.935  10.338
 7523SOL     OW24465  11.146   7.948   0.599
 7523SOL    HW124466  11.150   7.919   0.508
 7523SOL    HW224467  11.088   8.024   0.597
 7524SOL     OW24468   8.237   3.323  10.121
 7524SOL    HW124469   8.167   3.383  10.147
 7524SOL    HW224470   8.317   3.365  10.150
 7525SOL     OW24471   3.465   1.700   3.443
 7525SOL    HW124472   3.461   1.786   3.484
 7525SOL    HW224473   3.485   1.718   3.351
 7526SOL     OW24474   9.350   0.720  10.715
 7526SOL    HW124475   9.433   0.697  10.755
 7526SOL    HW224476   9.314   0.637  10.683
 7527SOL     OW24477  12.075   5.231   9.199
 7527SOL    HW124478  12.159   5.187   9.211
 7527SOL    HW224479  12.072   5.252   9.106
 7528SOL     OW24480   9.057   3.759   8.830
 7528SOL    HW124481   8.990   3.815   8.792
 7528SOL    HW224482   9.045   3.674   8.787
 7529SOL     OW24483   4.529   4.961  12.547
 7529SOL    HW124484   4.547   4.873  12.513
 7529SOL    HW224485   4.451   4.990  12.501
 7530SOL     OW24486  12.296   8.317   1.821
 7530SOL    HW124487  12.206   8.315   1.854
 7530SOL    HW224488  12.337   8.388   1.871
 7531SOL     OW24489   7.278   5.738   6.870
 7531SOL    HW124490   7.197   5.691   6.853
 7531SOL    HW224491   7.327   5.681   6.931
 7532SOL     OW24492  12.514   4.552   0.968
 7532SOL    HW124493  12.488   4.592   0.885
 7532SOL    HW224494  12.473   4.465   0.966
 7533SOL     OW24495   2.269   1.025   8.170
 7533SOL    HW124496   2.200   1.091   8.182
 7533SOL    HW224497   2.249   0.958   8.235
 7534SOL     OW24498   3.607   9.501   4.621
 7534SOL    HW124499   3.636   9.565   4.685
 7534SOL    HW224500   3.564   9.553   4.553
 7535SOL     OW24501   8.730   9.988  13.122
 7535SOL    HW124502   8.786  10.004  13.046
 7535SOL    HW224503   8.693  10.073  13.144
 7536SOL     OW24504   4.253   1.670  12.791
 7536SOL    HW124505   4.190   1.644  12.724
 7536SOL    HW224506   4.323   1.714  12.743
 7537SOL     OW24507  14.417   7.015   5.665
 7537SOL    HW124508  14.472   7.091   5.681
 7537SOL    HW224509  14.354   7.015   5.737
 7538SOL     OW24510  13.445   7.514   0.588
 7538SOL    HW124511  13.416   7.559   0.508
 7538SOL    HW224512  13.364   7.478   0.625
 7539SOL     OW24513   0.359   7.337   3.603
 7539SOL    HW124514   0.406   7.288   3.671
 7539SOL    HW224515   0.279   7.367   3.647
 7540SOL     OW24516   1.407  10.739   3.769
 7540SOL    HW124517   1.387  10.769   3.681
 7540SOL    HW224518   1.448  10.653   3.758
 7541SOL     OW24519   5.341  12.436   6.361
 7541SOL    HW124520   5.253  12.435   6.322
 7541SOL    HW224521   5.366  12.344   6.365
 7542SOL     OW24522   6.477   6.373  14.719
 7542SOL    HW124523   6.543   6.330  14.665
 7542SOL    HW224524   6.415   6.412  14.657
 7543SOL     OW24525  13.543  10.900   9.146
 7543SOL    HW124526  13.582  10.972   9.095
 7543SOL    HW224527  13.599  10.892   9.223
 7544SOL     OW24528   0.469  11.344  13.619
 7544SOL    HW124529   0.531  11.288  13.666
 7544SOL    HW224530   0.457  11.420  13.676
 7545SOL     OW24531   2.954   8.876   1.706
 7545SOL    HW124532   2.886   8.901   1.769
 7545SOL    HW224533   2.905   8.839   1.632
 7546SOL     OW24534  10.829  10.086   5.221
 7546SOL    HW124535  10.794  10.156   5.276
 7546SOL    HW224536  10.885  10.132   5.157
 7547SOL     OW24537   5.542   5.704   2.651
 7547SOL    HW124538   5.462   5.664   2.685
 7547SOL    HW224539   5.604   5.698   2.724
 7548SOL     OW24540  10.046   3.754   9.468
 7548SOL    HW124541  10.070   3.766   9.560
 7548SOL    HW224542   9.984   3.825   9.450
 7549SOL     OW24543   0.584  13.503   6.294
 7549SOL    HW124544   0.618  13.590   6.271
 7549SOL    HW224545   0.656  13.443   6.274
 7550SOL     OW24546   0.706   5.663   6.899
 7550SOL    HW124547   0.775   5.617   6.852
 7550SOL    HW224548   0.696   5.746   6.852
 7551SOL     OW24549   3.251  13.813   8.713
 7551SOL    HW124550   3.267  13.748   8.644
 7551SOL    HW224551   3.186  13.872   8.676
 7552SOL     OW24552   9.799   6.535   1.280
 7552SOL    HW124553   9.758   6.592   1.344
 7552SOL    HW224554   9.728   6.480   1.247
 7553SOL     OW24555   1.976   2.917  12.767
 7553SOL    HW124556   2.047   2.857  12.745
 7553SOL    HW224557   1.950   2.956  12.684
 7554SOL     OW24558  11.751   4.933   1.859
 7554SOL    HW124559  11.814   5.005   1.862
 7554SOL    HW224560  11.677   4.967   1.809
 7555SOL     OW24561  13.343  12.568   2.168
 7555SOL    HW124562  13.347  12.477   2.139
 7555SOL    HW224563  13.416  12.611   2.122
 7556SOL     OW24564  10.453   8.413   9.589
 7556SOL    HW124565  10.387   8.346   9.571
 7556SOL    HW224566  10.483   8.394   9.677
 7557SOL     OW24567   3.318   1.197   2.864
 7557SOL    HW124568   3.226   1.176   2.881
 7557SOL    HW224569   3.329   1.185   2.770
 7558SOL     OW24570   9.594  13.051   7.247
 7558SOL    HW124571   9.664  13.113   7.226
 7558SOL    HW224572   9.548  13.038   7.165
 7559SOL     OW24573  11.102  12.463  10.958
 7559SOL    HW124574  11.059  12.389  10.915
 7559SOL    HW224575  11.108  12.531  10.891
 7560SOL     OW24576   1.598   0.968  11.564
 7560SOL    HW124577   1.606   0.979  11.659
 7560SOL    HW224578   1.654   0.893  11.544
 7561SOL     OW24579   2.123   0.894   4.664
 7561SOL    HW124580   2.083   0.980   4.678
 7561SOL    HW224581   2.160   0.900   4.576
 7562SOL     OW24582   1.339   3.948   7.763
 7562SOL    HW124583   1.338   3.854   7.785
 7562SOL    HW224584   1.428   3.976   7.786
 7563SOL     OW24585   5.967  12.145  12.772
 7563SOL    HW124586   5.924  12.229  12.787
 7563SOL    HW224587   6.060  12.164  12.779
 7564SOL     OW24588   5.667  14.729  13.521
 7564SOL    HW124589   5.667  14.815  13.481
 7564SOL    HW224590   5.644  14.745  13.613
 7565SOL     OW24591  12.073  13.855   6.035
 7565SOL    HW124592  12.009  13.784   6.031
 7565SOL    HW224593  12.147  13.819   6.085
 7566SOL     OW24594   9.608   2.649   5.031
 7566SOL    HW124595   9.589   2.683   5.118
 7566SOL    HW224596   9.615   2.554   5.044
 7567SOL     OW24597  10.418   2.986  13.811
 7567SOL    HW124598  10.481   2.964  13.880
 7567SOL    HW224599  10.333   2.961  13.846
 7568SOL     OW24600   5.321   2.864   6.884
 7568SOL    HW124601   5.234   2.829   6.900
 7568SOL    HW224602   5.327   2.874   6.789
 7569SOL     OW24603   3.909  10.972  13.088
 7569SOL    HW124604   3.937  11.064  13.089
 7569SOL    HW224605   3.951  10.935  13.011
 7570SOL     OW24606  10.112   1.882  14.262
 7570SOL    HW124607  10.175   1.814  14.238
 7570SOL    HW224608  10.154   1.931  14.332
 7571SOL     OW24609  11.419   3.192   7.284
 7571SOL    HW124610  11.436   3.146   7.367
 7571SOL    HW224611  11.402   3.282   7.310
 7572SOL     OW24612   5.198   7.675  11.017
 7572SOL    HW124613   5.114   7.715  10.995
 7572SOL    HW224614   5.238   7.738  11.078
 7573SOL     OW24615   5.506   0.317   4.717
 7573SOL    HW124616   5.425   0.331   4.766
 7573SOL    HW224617   5.571   0.370   4.764
 7574SOL     OW24618  14.243   9.811   8.426
 7574SOL    HW124619  14.329   9.773   8.445
 7574SOL    HW224620  14.187   9.735   8.410
 7575SOL     OW24621   4.425  12.216   0.986
 7575SOL    HW124622   4.390  12.208   1.075
 7575SOL    HW224623   4.347  12.228   0.931
 7576SOL     OW24624  13.617   8.171   0.717
 7576SOL    HW124625  13.681   8.238   0.742
 7576SOL    HW224626  13.591   8.195   0.628
 7577SOL     OW24627   4.418   3.776   8.048
 7577SOL    HW124628   4.401   3.866   8.077
 7577SOL    HW224629   4.405   3.723   8.126
 7578SOL     OW24630   7.129  13.914   4.403
 7578SOL    HW124631   7.187  13.838   4.413
 7578SOL    HW224632   7.041  13.878   4.416
 7579SOL     OW24633  14.740   7.033  13.347
 7579SOL    HW124634  14.664   6.982  13.318
 7579SOL    HW224635  14.810   7.007  13.288
 7580SOL     OW24636   0.030   7.485  12.366
 7580SOL    HW124637  14.817   7.530  12.383
 7580SOL    HW224638   0.020   7.450  12.278
 7581SOL     OW24639   0.761   5.384  14.388
 7581SOL    HW124640   0.739   5.421  14.302
 7581SOL    HW224641   0.694   5.421  14.447
 7582SOL     OW24642   3.660   1.835   1.592
 7582SOL    HW124643   3.660   1.850   1.687
 7582SOL    HW224644   3.730   1.772   1.578
 7583SOL     OW24645   9.790  12.700   0.445
 7583SOL    HW124646   9.765  12.791   0.430
 7583SOL    HW224647   9.707  12.654   0.460
 7584SOL     OW24648   1.129   9.077   7.668
 7584SOL    HW124649   1.107   9.045   7.755
 7584SOL    HW224650   1.188   9.152   7.684
 7585SOL     OW24651  11.303   6.819   3.686
 7585SOL    HW124652  11.231   6.841   3.627
 7585SOL    HW224653  11.263   6.764   3.754
 7586SOL     OW24654   2.352   9.378   3.338
 7586SOL    HW124655   2.410   9.320   3.388
 7586SOL    HW224656   2.335   9.331   3.257
 7587SOL     OW24657   0.938   4.547   2.321
 7587SOL    HW124658   0.928   4.498   2.403
 7587SOL    HW224659   0.965   4.481   2.257
 7588SOL     OW24660   7.807   8.031   5.045
 7588SOL    HW124661   7.868   7.959   5.032
 7588SOL    HW224662   7.844   8.081   5.118
 7589SOL     OW24663   3.912   0.831   0.156
 7589SOL    HW124664   3.976   0.836   0.226
 7589SOL    HW224665   3.964   0.818   0.077
 7590SOL     OW24666   2.896  10.449  14.081
 7590SOL    HW124667   2.942  10.438  13.997
 7590SOL    HW224668   2.810  10.410  14.066
 7591SOL     OW24669  12.957   7.592  11.955
 7591SOL    HW124670  12.875   7.632  11.925
 7591SOL    HW224671  13.002   7.663  12.002
 7592SOL     OW24672   4.942   7.023  13.179
 7592SOL    HW124673   4.989   6.971  13.113
 7592SOL    HW224674   4.875   7.070  13.129
 7593SOL     OW24675   4.714  14.390  10.768
 7593SOL    HW124676   4.638  14.439  10.800
 7593SOL    HW224677   4.679  14.304  10.747
 7594SOL     OW24678  11.657   1.258   7.642
 7594SOL    HW124679  11.576   1.242   7.690
 7594SOL    HW224680  11.682   1.348   7.666
 7595SOL     OW24681   5.512  10.020   7.516
 7595SOL    HW124682   5.494  10.024   7.422
 7595SOL    HW224683   5.587  10.078   7.529
 7596SOL     OW24684   2.455   9.161   2.166
 7596SOL    HW124685   2.470   9.160   2.261
 7596SOL    HW224686   2.424   9.249   2.148
 7597SOL     OW24687   5.210  13.439   6.563
 7597SOL    HW124688   5.210  13.480   6.649
 7597SOL    HW224689   5.122  13.403   6.553
 7598SOL     OW24690  11.614   8.106  10.047
 7598SOL    HW124691  11.562   8.121   9.968
 7598SOL    HW224692  11.550   8.113  10.118
 7599SOL     OW24693   4.712   5.972  10.902
 7599SOL    HW124694   4.710   5.877  10.886
 7599SOL    HW224695   4.637   5.988  10.959
 7600SOL     OW24696   7.943   4.135  10.179
 7600SOL    HW124697   8.019   4.166  10.129
 7600SOL    HW224698   7.881   4.105  10.113
 7601SOL     OW24699   6.594   6.346  10.667
 7601SOL    HW124700   6.526   6.316  10.606
 7601SOL    HW224701   6.674   6.301  10.638
 7602SOL     OW24702   3.323  10.918   7.494
 7602SOL    HW124703   3.343  10.885   7.581
 7602SOL    HW224704   3.229  10.901   7.482
 7603SOL     OW24705   4.790  13.573   7.435
 7603SOL    HW124706   4.884  13.577   7.417
 7603SOL    HW224707   4.768  13.660   7.467
 7604SOL     OW24708  11.736  13.371  13.450
 7604SOL    HW124709  11.671  13.407  13.510
 7604SOL    HW224710  11.695  13.293  13.413
 7605SOL     OW24711   4.763  14.811   2.188
 7605SOL    HW124712   4.743  14.767   2.271
 7605SOL    HW224713   4.692   0.006   2.179
 7606SOL     OW24714  12.316   8.671  10.462
 7606SOL    HW124715  12.357   8.703  10.382
 7606SOL    HW224716  12.366   8.593  10.485
 7607SOL     OW24717  12.555   6.854   2.097
 7607SOL    HW124718  12.461   6.838   2.107
 7607SOL    HW224719  12.593   6.824   2.180
 7608SOL     OW24720   8.473   9.775   5.674
 7608SOL    HW124721   8.515   9.767   5.759
 7608SOL    HW224722   8.530   9.835   5.626
 7609SOL     OW24723   2.084  10.213  13.667
 7609SOL    HW124724   2.143  10.183  13.598
 7609SOL    HW224725   2.063  10.303  13.642
 7610SOL     OW24726   4.319  14.324   7.954
 7610SOL    HW124727   4.254  14.370   7.902
 7610SOL    HW224728   4.342  14.247   7.902
 7611SOL     OW24729  11.441  13.676   5.338
 7611SOL    HW124730  11.427  13.613   5.408
 7611SOL    HW224731  11.389  13.643   5.265
 7612SOL     OW24732   4.401  13.557   8.317
 7612SOL    HW124733   4.342  13.492   8.356
 7612SOL    HW224734   4.402  13.534   8.224
 7613SOL     OW24735   8.817   2.035   1.534
 7613SOL    HW124736   8.814   2.034   1.438
 7613SOL    HW224737   8.910   2.033   1.555
 7614SOL     OW24738   8.351   9.441   5.778
 7614SOL    HW124739   8.360   9.521   5.725
 7614SOL    HW224740   8.257   9.428   5.786
 7615SOL     OW24741   1.151  12.928   6.018
 7615SOL    HW124742   1.246  12.917   6.019
 7615SOL    HW224743   1.117  12.838   6.021
 7616SOL     OW24744   9.013  12.849  12.397
 7616SOL    HW124745   8.985  12.840  12.488
 7616SOL    HW224746   9.036  12.941  12.388
 7617SOL     OW24747  12.274  12.572   5.851
 7617SOL    HW124748  12.222  12.534   5.922
 7617SOL    HW224749  12.218  12.568   5.774
 7618SOL     OW24750   6.620   3.840   4.733
 7618SOL    HW124751   6.583   3.857   4.820
 7618SOL    HW224752   6.711   3.816   4.750
 7619SOL     OW24753   9.030  11.538  11.213
 7619SOL    HW124754   8.993  11.468  11.158
 7619SOL    HW224755   9.123  11.536  11.194
 7620SOL     OW24756   3.046  10.610   7.408
 7620SOL    HW124757   3.039  10.706   7.409
 7620SOL    HW224758   3.134  10.592   7.439
 7621SOL     OW24759   0.883   6.387   1.501
 7621SOL    HW124760   0.830   6.465   1.487
 7621SOL    HW224761   0.973   6.416   1.488
 7622SOL     OW24762   9.919   9.840   7.413
 7622SOL    HW124763  10.003   9.847   7.459
 7622SOL    HW224764   9.939   9.868   7.324
 7623SOL     OW24765   2.649   4.087   0.871
 7623SOL    HW124766   2.665   4.000   0.833
 7623SOL    HW224767   2.690   4.083   0.957
 7624SOL     OW24768   1.015   7.138  10.709
 7624SOL    HW124769   1.052   7.224  10.689
 7624SOL    HW224770   1.019   7.133  10.805
 7625SOL     OW24771   1.929   0.344   0.218
 7625SOL    HW124772   1.883   0.261   0.205
 7625SOL    HW224773   1.976   0.332   0.301
 7626SOL     OW24774   2.644   2.026   7.035
 7626SOL    HW124775   2.715   2.090   7.038
 7626SOL    HW224776   2.603   2.031   7.121
 7627SOL     OW24777  13.591   4.058  10.676
 7627SOL    HW124778  13.512   4.036  10.726
 7627SOL    HW224779  13.598   4.154  10.683
 7628SOL     OW24780   8.201   4.910  10.924
 7628SOL    HW124781   8.147   4.879  10.851
 7628SOL    HW224782   8.286   4.931  10.884
 7629SOL     OW24783  14.661  12.071   5.537
 7629SOL    HW124784  14.698  12.004   5.595
 7629SOL    HW224785  14.727  12.141   5.537
 7630SOL     OW24786   9.443   8.618   6.277
 7630SOL    HW124787   9.474   8.537   6.237
 7630SOL    HW224788   9.369   8.645   6.222
 7631SOL     OW24789   4.190  11.005  10.890
 7631SOL    HW124790   4.240  11.076  10.850
 7631SOL    HW224791   4.234  10.925  10.861
 7632SOL     OW24792   9.754   0.252   6.446
 7632SOL    HW124793   9.762   0.157   6.435
 7632SOL    HW224794   9.828   0.275   6.503
 7633SOL     OW24795  11.074   0.615   7.083
 7633SOL    HW124796  11.168   0.599   7.092
 7633SOL    HW224797  11.033   0.556   7.145
 7634SOL     OW24798   4.043   5.336   7.297
 7634SOL    HW124799   4.061   5.354   7.205
 7634SOL    HW224800   4.129   5.323   7.337
 7635SOL     OW24801   6.515   3.635  10.270
 7635SOL    HW124802   6.552   3.560  10.317
 7635SOL    HW224803   6.588   3.671  10.221
 7636SOL     OW24804   8.951  10.703  14.325
 7636SOL    HW124805   8.895  10.662  14.391
 7636SOL    HW224806   8.978  10.630  14.269
 7637SOL     OW24807   7.702   1.536  13.869
 7637SOL    HW124808   7.718   1.620  13.913
 7637SOL    HW224809   7.688   1.559  13.778
 7638SOL     OW24810  13.778   6.982   7.383
 7638SOL    HW124811  13.865   6.965   7.348
 7638SOL    HW224812  13.727   6.904   7.360
 7639SOL     OW24813   9.269   0.893   6.073
 7639SOL    HW124814   9.350   0.904   6.123
 7639SOL    HW224815   9.203   0.941   6.122
 7640SOL     OW24816   0.825  13.256   1.297
 7640SOL    HW124817   0.813  13.176   1.348
 7640SOL    HW224818   0.785  13.237   1.212
 7641SOL     OW24819   3.437  14.843  13.431
 7641SOL    HW124820   3.439  14.771  13.493
 7641SOL    HW224821   3.427  14.802  13.345
 7642SOL     OW24822   5.121  13.341  13.578
 7642SOL    HW124823   5.141  13.415  13.520
 7642SOL    HW224824   5.184  13.350  13.650
 7643SOL     OW24825  11.712   6.367   1.510
 7643SOL    HW124826  11.736   6.353   1.601
 7643SOL    HW224827  11.786   6.333   1.460
 7644SOL     OW24828  14.371  10.660  12.145
 7644SOL    HW124829  14.428  10.583  12.143
 7644SOL    HW224830  14.328  10.661  12.060
 7645SOL     OW24831  12.553   5.941   6.983
 7645SOL    HW124832  12.570   6.003   6.912
 7645SOL    HW224833  12.465   5.909   6.968
 7646SOL     OW24834  13.055  14.866  10.558
 7646SOL    HW124835  13.044   0.091  10.567
 7646SOL    HW224836  12.984  14.838  10.501
 7647SOL     OW24837   4.629   6.917  12.116
 7647SOL    HW124838   4.603   6.836  12.161
 7647SOL    HW224839   4.707   6.946  12.163
 7648SOL     OW24840   1.823  10.718   8.838
 7648SOL    HW124841   1.898  10.736   8.895
 7648SOL    HW224842   1.860  10.719   8.750
 7649SOL     OW24843  14.169   5.077   4.200
 7649SOL    HW124844  14.206   5.016   4.264
 7649SOL    HW224845  14.126   5.143   4.253
 7650SOL     OW24846  13.680   6.549   4.319
 7650SOL    HW124847  13.721   6.493   4.253
 7650SOL    HW224848  13.658   6.629   4.271
 7651SOL     OW24849  10.916   4.379  10.372
 7651SOL    HW124850  11.003   4.341  10.358
 7651SOL    HW224851  10.858   4.330  10.314
 7652SOL     OW24852  11.872   1.568   0.410
 7652SOL    HW124853  11.837   1.481   0.389
 7652SOL    HW224854  11.924   1.592   0.333
 7653SOL     OW24855  14.503  11.783   0.798
 7653SOL    HW124856  14.484  11.803   0.890
 7653SOL    HW224857  14.421  11.801   0.752
 7654SOL     OW24858   1.039   1.644   2.459
 7654SOL    HW124859   1.072   1.724   2.499
 7654SOL    HW224860   0.944   1.648   2.470
 7655SOL     OW24861   8.853   0.995   7.978
 7655SOL    HW124862   8.920   0.964   7.918
 7655SOL    HW224863   8.891   0.985   8.065
 7656SOL     OW24864   5.224  14.829   5.407
 7656SOL    HW124865   5.165   0.030   5.433
 7656SOL    HW224866   5.172  14.773   5.351
 7657SOL     OW24867   0.025  12.550   4.154
 7657SOL    HW124868  14.829  12.597   4.205
 7657SOL    HW224869   0.055  12.479   4.212
 7658SOL     OW24870   4.939  13.776  14.618
 7658SOL    HW124871   4.932  13.727  14.536
 7658SOL    HW224872   4.853  13.768  14.658
 7659SOL     OW24873   3.129   1.682  14.622
 7659SOL    HW124874   3.145   1.642  14.707
 7659SOL    HW224875   3.149   1.775  14.635
 7660SOL     OW24876   2.336   4.576   4.104
 7660SOL    HW124877   2.356   4.485   4.125
 7660SOL    HW224878   2.310   4.575   4.012
 7661SOL     OW24879   0.936   9.168   3.110
 7661SOL    HW124880   0.910   9.206   3.195
 7661SOL    HW224881   1.017   9.122   3.129
 7662SOL     OW24882   5.152  10.603  13.677
 7662SOL    HW124883   5.233  10.566  13.712
 7662SOL    HW224884   5.088  10.532  13.688
 7663SOL     OW24885   6.267   5.192   7.358
 7663SOL    HW124886   6.321   5.139   7.300
 7663SOL    HW224887   6.292   5.282   7.339
 7664SOL     OW24888   5.106   7.348   8.078
 7664SOL    HW124889   5.138   7.322   7.992
 7664SOL    HW224890   5.038   7.283   8.099
 7665SOL     OW24891  14.612  12.404  14.180
 7665SOL    HW124892  14.552  12.474  14.156
 7665SOL    HW224893  14.647  12.373  14.096
 7666SOL     OW24894   1.376   3.446  13.175
 7666SOL    HW124895   1.446   3.488  13.225
 7666SOL    HW224896   1.422   3.384  13.118
 7667SOL     OW24897   2.471  13.970  13.711
 7667SOL    HW124898   2.403  13.956  13.645
 7667SOL    HW224899   2.545  14.005  13.662
 7668SOL     OW24900   0.498   0.234   7.011
 7668SOL    HW124901   0.458   0.198   7.090
 7668SOL    HW224902   0.430   0.228   6.945
 7669SOL     OW24903   7.987   3.630   1.121
 7669SOL    HW124904   8.015   3.699   1.061
 7669SOL    HW224905   8.032   3.552   1.090
 7670SOL     OW24906   5.240   8.818   3.433
 7670SOL    HW124907   5.270   8.867   3.510
 7670SOL    HW224908   5.186   8.881   3.385
 7671SOL     OW24909  13.250   1.021   4.678
 7671SOL    HW124910  13.227   1.114   4.676
 7671SOL    HW224911  13.344   1.020   4.661
 7672SOL     OW24912  13.767  10.940   8.336
 7672SOL    HW124913  13.683  10.943   8.381
 7672SOL    HW224914  13.791  11.031   8.323
 7673SOL     OW24915  12.142  12.672   7.958
 7673SOL    HW124916  12.084  12.724   8.014
 7673SOL    HW224917  12.154  12.590   8.007
 7674SOL     OW24918  12.426   9.934  14.695
 7674SOL    HW124919  12.458   9.951  14.606
 7674SOL    HW224920  12.494   9.970  14.752
 7675SOL     OW24921   9.589   3.877   5.198
 7675SOL    HW124922   9.497   3.878   5.171
 7675SOL    HW224923   9.612   3.784   5.200
 7676SOL     OW24924   2.289   6.766   8.082
 7676SOL    HW124925   2.293   6.712   8.003
 7676SOL    HW224926   2.195   6.773   8.101
 7677SOL     OW24927  10.862   3.227  14.500
 7677SOL    HW124928  10.800   3.165  14.463
 7677SOL    HW224929  10.874   3.292  14.430
 7678SOL     OW24930   7.209   3.657   7.786
 7678SOL    HW124931   7.143   3.590   7.765
 7678SOL    HW224932   7.248   3.679   7.701
 7679SOL     OW24933  14.021   5.612   4.169
 7679SOL    HW124934  14.007   5.518   4.167
 7679SOL    HW224935  14.057   5.629   4.257
 7680SOL     OW24936   2.269   4.512   7.937
 7680SOL    HW124937   2.231   4.425   7.924
 7680SOL    HW224938   2.305   4.536   7.851
 7681SOL     OW24939  10.210   6.255   0.036
 7681SOL    HW124940  10.256   6.242   0.120
 7681SOL    HW224941  10.180   6.168   0.011
 7682SOL     OW24942  12.338   5.335   3.647
 7682SOL    HW124943  12.350   5.430   3.640
 7682SOL    HW224944  12.293   5.322   3.731
 7683SOL     OW24945   5.252   9.752   2.123
 7683SOL    HW124946   5.338   9.734   2.161
 7683SOL    HW224947   5.234   9.676   2.067
 7684SOL     OW24948   5.743   2.461   0.142
 7684SOL    HW124949   5.736   2.532   0.078
 7684SOL    HW224950   5.723   2.382   0.091
 7685SOL     OW24951   0.386   6.712   6.639
 7685SOL    HW124952   0.431   6.629   6.657
 7685SOL    HW224953   0.299   6.701   6.678
 7686SOL     OW24954   0.514   1.071  12.125
 7686SOL    HW124955   0.608   1.092  12.122
 7686SOL    HW224956   0.501   1.032  12.212
 7687SOL     OW24957  10.059  11.697  10.586
 7687SOL    HW124958  10.061  11.648  10.668
 7687SOL    HW224959  10.089  11.785  10.610
 7688SOL     OW24960  12.588   3.640   0.735
 7688SOL    HW124961  12.621   3.676   0.818
 7688SOL    HW224962  12.568   3.548   0.756
 7689SOL     OW24963   4.569   4.261  13.042
 7689SOL    HW124964   4.626   4.190  13.073
 7689SOL    HW224965   4.603   4.340  13.084
 7690SOL     OW24966   0.782   5.102  14.820
 7690SOL    HW124967   0.863   5.063  14.789
 7690SOL    HW224968   0.810   5.175   0.006
 7691SOL     OW24969   2.418  10.587   5.811
 7691SOL    HW124970   2.417  10.559   5.903
 7691SOL    HW224971   2.325  10.594   5.788
 7692SOL     OW24972   4.742  14.304   0.097
 7692SOL    HW124973   4.719  14.214   0.076
 7692SOL    HW224974   4.771  14.301   0.188
 7693SOL     OW24975   2.198   1.157   9.541
 7693SOL    HW124976   2.274   1.162   9.598
 7693SOL    HW224977   2.123   1.165   9.601
 7694SOL     OW24978   9.578   3.113   3.931
 7694SOL    HW124979   9.588   3.124   3.836
 7694SOL    HW224980   9.656   3.154   3.968
 7695SOL     OW24981   3.279  11.365  14.700
 7695SOL    HW124982   3.197  11.358  14.748
 7695SOL    HW224983   3.254  11.397  14.613
 7696SOL     OW24984   4.118  10.267   6.966
 7696SOL    HW124985   4.104  10.292   7.058
 7696SOL    HW224986   4.183  10.330   6.935
 7697SOL     OW24987  14.067  10.512   1.340
 7697SOL    HW124988  14.007  10.545   1.407
 7697SOL    HW224989  14.082  10.420   1.365
 7698SOL     OW24990   4.316   6.256  14.370
 7698SOL    HW124991   4.405   6.256  14.405
 7698SOL    HW224992   4.295   6.349  14.357
 7699SOL     OW24993  11.647   3.269   7.047
 7699SOL    HW124994  11.580   3.257   6.980
 7699SOL    HW224995  11.609   3.230   7.126
 7700SOL     OW24996   9.577   3.330  10.605
 7700SOL    HW124997   9.487   3.299  10.597
 7700SOL    HW224998   9.585   3.360  10.696
 7701SOL     OW24999   1.349   4.713  11.387
 7701SOL    HW125000   1.325   4.700  11.479
 7701SOL    HW225001   1.309   4.796  11.363
 7702SOL     OW25002   8.399   2.363  14.616
 7702SOL    HW125003   8.358   2.327  14.694
 7702SOL    HW225004   8.485   2.321  14.613
 7703SOL     OW25005   6.339  14.002   4.584
 7703SOL    HW125006   6.353  13.916   4.544
 7703SOL    HW225007   6.246  14.004   4.604
 7704SOL     OW25008  12.830   4.225  10.334
 7704SOL    HW125009  12.747   4.272  10.336
 7704SOL    HW225010  12.837   4.184  10.420
 7705SOL     OW25011  12.814  14.303  10.201
 7705SOL    HW125012  12.761  14.349  10.136
 7705SOL    HW225013  12.900  14.292  10.160
 7706SOL     OW25014   9.324  10.405   4.115
 7706SOL    HW125015   9.297  10.317   4.089
 7706SOL    HW225016   9.416  10.411   4.087
 7707SOL     OW25017   7.940   4.730   6.732
 7707SOL    HW125018   8.017   4.783   6.707
 7707SOL    HW225019   7.867   4.792   6.732
 7708SOL     OW25020   3.797   9.874   0.338
 7708SOL    HW125021   3.820   9.893   0.429
 7708SOL    HW225022   3.788   9.961   0.297
 7709SOL     OW25023   3.811   4.531  10.694
 7709SOL    HW125024   3.832   4.561  10.783
 7709SOL    HW225025   3.808   4.611  10.642
 7710SOL     OW25026   1.364   6.316   5.781
 7710SOL    HW125027   1.455   6.291   5.799
 7710SOL    HW225028   1.342   6.378   5.850
 7711SOL     OW25029  14.840   2.497  14.373
 7711SOL    HW125030  14.820   2.427  14.311
 7711SOL    HW225031  14.789   2.475  14.451
 7712SOL     OW25032   5.838  11.249   3.958
 7712SOL    HW125033   5.848  11.267   3.865
 7712SOL    HW225034   5.902  11.307   4.000
 7713SOL     OW25035  14.700   5.386   7.672
 7713SOL    HW125036  14.656   5.456   7.625
 7713SOL    HW225037  14.700   5.312   7.611
 7714SOL     OW25038   3.127   3.311  13.853
 7714SOL    HW125039   3.179   3.384  13.885
 7714SOL    HW225040   3.140   3.242  13.918
 7715SOL     OW25041  10.347   3.535   9.509
 7715SOL    HW125042  10.287   3.554   9.581
 7715SOL    HW225043  10.323   3.599   9.441
 7716SOL     OW25044   8.152  14.392   5.180
 7716SOL    HW125045   8.095  14.412   5.254
 7716SOL    HW225046   8.213  14.465   5.176
 7717SOL     OW25047   8.733   4.601   8.423
 7717SOL    HW125048   8.803   4.539   8.440
 7717SOL    HW225049   8.710   4.587   8.331
 7718SOL     OW25050   6.788   2.379   0.994
 7718SOL    HW125051   6.840   2.406   1.070
 7718SOL    HW225052   6.788   2.456   0.937
 7719SOL     OW25053   3.417  13.506   5.032
 7719SOL    HW125054   3.401  13.587   4.982
 7719SOL    HW225055   3.347  13.504   5.097
 7720SOL     OW25056   6.768   5.506   9.517
 7720SOL    HW125057   6.820   5.484   9.594
 7720SOL    HW225058   6.815   5.465   9.444
 7721SOL     OW25059   6.720   2.142   6.207
 7721SOL    HW125060   6.662   2.094   6.147
 7721SOL    HW225061   6.799   2.088   6.212
 7722SOL     OW25062  11.005  10.522  12.958
 7722SOL    HW125063  10.935  10.458  12.942
 7722SOL    HW225064  11.067  10.508  12.887
 7723SOL     OW25065   1.344   3.840  11.054
 7723SOL    HW125066   1.420   3.866  11.001
 7723SOL    HW225067   1.378   3.774  11.114
 7724SOL     OW25068   5.287   4.318   0.611
 7724SOL    HW125069   5.268   4.335   0.704
 7724SOL    HW225070   5.264   4.399   0.566
 7725SOL     OW25071   0.154  10.263   5.925
 7725SOL    HW125072   0.091  10.333   5.910
 7725SOL    HW225073   0.210  10.264   5.847
 7726SOL     OW25074   2.202  14.767   0.630
 7726SOL    HW125075   2.253  14.771   0.711
 7726SOL    HW225076   2.150  14.687   0.638
 7727SOL     OW25077  14.203   3.036   7.395
 7727SOL    HW125078  14.166   3.100   7.334
 7727SOL    HW225079  14.264   3.087   7.449
 7728SOL     OW25080   5.593  13.574   6.769
 7728SOL    HW125081   5.546  13.509   6.820
 7728SOL    HW225082   5.529  13.643   6.752
 7729SOL     OW25083  13.936   6.490  12.645
 7729SOL    HW125084  13.881   6.419  12.612
 7729SOL    HW225085  14.018   6.448  12.672
 7730SOL     OW25086   7.467   8.829  14.768
 7730SOL    HW125087   7.483   8.874  14.851
 7730SOL    HW225088   7.447   8.738  14.794
 7731SOL     OW25089  10.183  14.446  10.600
 7731SOL    HW125090  10.138  14.498  10.533
 7731SOL    HW225091  10.197  14.361  10.559
 7732SOL     OW25092   2.749   2.966   3.258
 7732SOL    HW125093   2.767   3.036   3.196
 7732SOL    HW225094   2.829   2.913   3.257
 7733SOL     OW25095   9.225   1.931  11.706
 7733SOL    HW125096   9.225   1.994  11.778
 7733SOL    HW225097   9.201   1.983  11.629
 7734SOL     OW25098  11.483  14.410  10.902
 7734SOL    HW125099  11.481  14.505  10.911
 7734SOL    HW225100  11.396  14.381  10.930
 7735SOL     OW25101   1.676  11.212   9.207
 7735SOL    HW125102   1.666  11.288   9.150
 7735SOL    HW225103   1.762  11.176   9.184
 7736SOL     OW25104  12.923   7.024   0.189
 7736SOL    HW125105  12.853   6.962   0.209
 7736SOL    HW225106  12.899   7.059   0.103
 7737SOL     OW25107   6.266   5.049   6.612
 7737SOL    HW125108   6.231   5.088   6.532
 7737SOL    HW225109   6.198   4.989   6.641
 7738SOL     OW25110  14.489  12.203  10.844
 7738SOL    HW125111  14.423  12.226  10.778
 7738SOL    HW225112  14.565  12.174  10.793
 7739SOL     OW25113   9.551   3.732   8.523
 7739SOL    HW125114   9.561   3.823   8.552
 7739SOL    HW225115   9.458   3.712   8.537
 7740SOL     OW25116   1.244   2.377   2.465
 7740SOL    HW125117   1.248   2.363   2.370
 7740SOL    HW225118   1.155   2.353   2.489
 7741SOL     OW25119   2.828   8.187  11.558
 7741SOL    HW125120   2.922   8.205  11.555
 7741SOL    HW225121   2.796   8.213  11.471
 7742SOL     OW25122  10.292   9.381   6.738
 7742SOL    HW125123  10.333   9.373   6.824
 7742SOL    HW225124  10.218   9.320   6.741
 7743SOL     OW25125  11.720  11.832   8.274
 7743SOL    HW125126  11.662  11.786   8.334
 7743SOL    HW225127  11.808  11.801   8.297
 7744SOL     OW25128   5.721   5.723  13.186
 7744SOL    HW125129   5.812   5.747  13.171
 7744SOL    HW225130   5.725   5.648  13.245
 7745SOL     OW25131  11.256   8.409   7.056
 7745SOL    HW125132  11.306   8.337   7.017
 7745SOL    HW225133  11.250   8.475   6.986
 7746SOL     OW25134  10.626   6.382   2.706
 7746SOL    HW125135  10.690   6.312   2.691
 7746SOL    HW225136  10.562   6.343   2.766
 7747SOL     OW25137   2.593  11.838   8.562
 7747SOL    HW125138   2.629  11.749   8.567
 7747SOL    HW225139   2.529  11.833   8.491
 7748SOL     OW25140   9.116  14.850   8.737
 7748SOL    HW125141   9.192   0.019   8.693
 7748SOL    HW225142   9.153  14.781   8.793
 7749SOL     OW25143   2.283   7.521   8.527
 7749SOL    HW125144   2.362   7.560   8.564
 7749SOL    HW225145   2.313   7.479   8.446
 7750SOL     OW25146   7.932  13.288  10.691
 7750SOL    HW125147   7.984  13.312  10.615
 7750SOL    HW225148   7.875  13.363  10.705
 7751SOL     OW25149   6.628   1.376  12.146
 7751SOL    HW125150   6.533   1.375  12.160
 7751SOL    HW225151   6.651   1.285  12.129
 7752SOL     OW25152   7.484   5.007   0.603
 7752SOL    HW125153   7.506   4.989   0.695
 7752SOL    HW225154   7.396   4.970   0.592
 7753SOL     OW25155   8.686   7.130   1.371
 7753SOL    HW125156   8.636   7.196   1.419
 7753SOL    HW225157   8.714   7.176   1.291
 7754SOL     OW25158   9.691   6.361  13.389
 7754SOL    HW125159   9.712   6.359  13.296
 7754SOL    HW225160   9.617   6.421  13.396
 7755SOL     OW25161   3.027  13.115   5.888
 7755SOL    HW125162   3.054  13.087   5.800
 7755SOL    HW225163   3.048  13.208   5.891
 7756SOL     OW25164   2.035  10.357  12.203
 7756SOL    HW125165   2.089  10.428  12.169
 7756SOL    HW225166   2.066  10.279  12.156
 7757SOL     OW25167   5.578   4.177  11.778
 7757SOL    HW125168   5.625   4.125  11.844
 7757SOL    HW225169   5.528   4.113  11.728
 7758SOL     OW25170   2.118  14.352   1.337
 7758SOL    HW125171   2.213  14.350   1.346
 7758SOL    HW225172   2.103  14.370   1.244
 7759SOL     OW25173   1.232  14.485   3.341
 7759SOL    HW125174   1.263  14.415   3.399
 7759SOL    HW225175   1.283  14.473   3.261
 7760SOL     OW25176  12.041  12.657   3.556
 7760SOL    HW125177  12.126  12.639   3.597
 7760SOL    HW225178  11.982  12.591   3.593
 7761SOL     OW25179  12.602   7.981   7.812
 7761SOL    HW125180  12.652   8.061   7.796
 7761SOL    HW225181  12.536   8.007   7.876
 7762SOL     OW25182   7.544   0.558   4.883
 7762SOL    HW125183   7.592   0.640   4.869
 7762SOL    HW225184   7.477   0.580   4.948
 7763SOL     OW25185   9.493   8.795   0.218
 7763SOL    HW125186   9.456   8.813   0.131
 7763SOL    HW225187   9.576   8.842   0.218
 7764SOL     OW25188  14.847  10.757   5.146
 7764SOL    HW125189  14.864  10.703   5.069
 7764SOL    HW225190  14.771  10.715   5.187
 7765SOL     OW25191   2.097  13.788  13.332
 7765SOL    HW125192   2.011  13.828  13.341
 7765SOL    HW225193   2.080  13.700  13.298
 7766SOL     OW25194  11.073   9.809   4.910
 7766SOL    HW125195  11.080   9.771   4.998
 7766SOL    HW225196  10.984   9.789   4.882
 7767SOL     OW25197   4.775  12.056   0.849
 7767SOL    HW125198   4.739  11.983   0.900
 7767SOL    HW225199   4.702  12.118   0.841
 7768SOL     OW25200   8.002  11.232   2.250
 7768SOL    HW125201   7.965  11.265   2.331
 7768SOL    HW225202   8.002  11.308   2.191
 7769SOL     OW25203   4.854   4.253  14.207
 7769SOL    HW125204   4.948   4.236  14.203
 7769SOL    HW225205   4.847   4.341  14.244
 7770SOL     OW25206  11.601   0.476  11.162
 7770SOL    HW125207  11.659   0.536  11.115
 7770SOL    HW225208  11.527   0.530  11.190
 7771SOL     OW25209  11.449  10.211   6.320
 7771SOL    HW125210  11.463  10.121   6.290
 7771SOL    HW225211  11.400  10.252   6.249
 7772SOL     OW25212  14.000  10.249  10.982
 7772SOL    HW125213  13.988  10.277  11.073
 7772SOL    HW225214  13.986  10.154  10.984
 7773SOL     OW25215  10.902  12.298   6.186
 7773SOL    HW125216  10.898  12.280   6.092
 7773SOL    HW225217  10.818  12.266   6.220
 7774SOL     OW25218   5.239  14.282   6.001
 7774SOL    HW125219   5.255  14.376   5.990
 7774SOL    HW225220   5.148  14.276   6.030
 7775SOL     OW25221   0.318  12.391   8.605
 7775SOL    HW125222   0.285  12.329   8.670
 7775SOL    HW225223   0.239  12.422   8.559
 7776SOL     OW25224   6.390   8.744   4.729
 7776SOL    HW125225   6.310   8.719   4.682
 7776SOL    HW225226   6.385   8.839   4.735
 7777SOL     OW25227   3.855  10.801   9.861
 7777SOL    HW125228   3.879  10.893   9.848
 7777SOL    HW225229   3.766  10.794   9.826
 7778SOL     OW25230   9.071  13.185   6.694
 7778SOL    HW125231   9.028  13.263   6.657
 7778SOL    HW225232   9.071  13.122   6.622
 7779SOL     OW25233   1.301  10.846   3.520
 7779SOL    HW125234   1.209  10.830   3.498
 7779SOL    HW225235   1.349  10.826   3.440
 7780SOL     OW25236  13.379   1.658  11.870
 7780SOL    HW125237  13.450   1.596  11.889
 7780SOL    HW225238  13.423   1.732  11.827
 7781SOL     OW25239   4.460  12.385  12.523
 7781SOL    HW125240   4.377  12.428  12.503
 7781SOL    HW225241   4.525  12.435  12.474
 7782SOL     OW25242   1.535   3.892   0.431
 7782SOL    HW125243   1.456   3.947   0.425
 7782SOL    HW225244   1.593   3.927   0.364
 7783SOL     OW25245   3.601   9.056   3.065
 7783SOL    HW125246   3.692   9.084   3.062
 7783SOL    HW225247   3.594   9.006   3.146
 7784SOL     OW25248  10.954   8.363   6.712
 7784SOL    HW125249  10.880   8.320   6.754
 7784SOL    HW225250  11.013   8.291   6.689
 7785SOL     OW25251  13.505  10.655   7.325
 7785SOL    HW125252  13.473  10.602   7.252
 7785SOL    HW225253  13.459  10.738   7.317
 7786SOL     OW25254   5.705   6.544   7.960
 7786SOL    HW125255   5.665   6.507   8.039
 7786SOL    HW225256   5.656   6.505   7.888
 7787SOL     OW25257   2.882   5.619  11.358
 7787SOL    HW125258   2.913   5.534  11.389
 7787SOL    HW225259   2.804   5.636  11.410
 7788SOL     OW25260  11.132  11.826   8.231
 7788SOL    HW125261  11.194  11.756   8.211
 7788SOL    HW225262  11.084  11.794   8.308
 7789SOL     OW25263   1.168   4.493   0.207
 7789SOL    HW125264   1.109   4.533   0.272
 7789SOL    HW225265   1.112   4.475   0.132
 7790SOL     OW25266   5.650  12.043   2.167
 7790SOL    HW125267   5.645  11.963   2.219
 7790SOL    HW225268   5.604  12.022   2.085
 7791SOL     OW25269  14.454  11.027   4.609
 7791SOL    HW125270  14.511  11.060   4.539
 7791SOL    HW225271  14.448  11.100   4.671
 7792SOL     OW25272   9.054   9.055   9.711
 7792SOL    HW125273   9.146   9.070   9.685
 7792SOL    HW225274   9.053   8.965   9.743
 7793SOL     OW25275   9.079  14.309   6.830
 7793SOL    HW125276   9.032  14.234   6.866
 7793SOL    HW225277   9.013  14.357   6.779
 7794SOL     OW25278   1.797   8.504   4.922
 7794SOL    HW125279   1.762   8.591   4.937
 7794SOL    HW225280   1.721   8.446   4.929
 7795SOL     OW25281   8.318   6.696  10.313
 7795SOL    HW125282   8.247   6.756  10.335
 7795SOL    HW225283   8.348   6.662  10.398
 7796SOL     OW25284   1.042   4.553  12.434
 7796SOL    HW125285   1.019   4.610  12.507
 7796SOL    HW225286   1.129   4.582  12.408
 7797SOL     OW25287  12.827  11.901   0.650
 7797SOL    HW125288  12.771  11.966   0.609
 7797SOL    HW225289  12.835  11.831   0.585
 7798SOL     OW25290   8.576  12.614   2.777
 7798SOL    HW125291   8.532  12.668   2.711
 7798SOL    HW225292   8.658  12.659   2.795
 7799SOL     OW25293  13.033   2.172  11.523
 7799SOL    HW125294  13.127   2.182  11.510
 7799SOL    HW225295  13.025   2.104  11.590
 7800SOL     OW25296   4.378  10.454   3.057
 7800SOL    HW125297   4.433  10.392   3.105
 7800SOL    HW225298   4.418  10.540   3.074
 7801SOL     OW25299  11.213  11.846  10.161
 7801SOL    HW125300  11.168  11.764  10.182
 7801SOL    HW225301  11.176  11.909  10.223
 7802SOL     OW25302  14.849   7.191   5.789
 7802SOL    HW125303   0.008   7.103   5.764
 7802SOL    HW225304   0.029   7.210   5.870
 7803SOL     OW25305   1.772   1.501   8.966
 7803SOL    HW125306   1.753   1.412   8.994
 7803SOL    HW225307   1.823   1.491   8.886
 7804SOL     OW25308  10.719   9.167   2.673
 7804SOL    HW125309  10.662   9.217   2.731
 7804SOL    HW225310  10.793   9.226   2.656
 7805SOL     OW25311   8.630  12.228  14.859
 7805SOL    HW125312   8.705  12.212  14.802
 7805SOL    HW225313   8.668  12.248   0.075
 7806SOL     OW25314   7.937  10.491   1.109
 7806SOL    HW125315   7.936  10.444   1.026
 7806SOL    HW225316   7.905  10.579   1.088
 7807SOL     OW25317   5.567   7.372   0.068
 7807SOL    HW125318   5.499   7.403   0.127
 7807SOL    HW225319   5.539   7.400  14.850
 7808SOL     OW25320   6.247   3.882   7.833
 7808SOL    HW125321   6.297   3.801   7.827
 7808SOL    HW225322   6.159   3.858   7.803
 7809SOL     OW25323   1.652   2.992  14.474
 7809SOL    HW125324   1.582   3.039  14.520
 7809SOL    HW225325   1.620   2.987  14.383
 7810SOL     OW25326   5.252  14.522   7.634
 7810SOL    HW125327   5.274  14.560   7.719
 7810SOL    HW225328   5.161  14.549   7.619
 7811SOL     OW25329  10.344   0.053   5.625
 7811SOL    HW125330  10.335   0.039   5.719
 7811SOL    HW225331  10.255   0.051   5.591
 7812SOL     OW25332   5.715  11.769   9.163
 7812SOL    HW125333   5.809  11.752   9.151
 7812SOL    HW225334   5.711  11.859   9.195
 7813SOL     OW25335   9.876  13.135   0.708
 7813SOL    HW125336   9.792  13.105   0.674
 7813SOL    HW225337   9.885  13.093   0.793
 7814SOL     OW25338   2.939   9.092   4.096
 7814SOL    HW125339   2.900   9.024   4.151
 7814SOL    HW225340   2.898   9.173   4.125
 7815SOL     OW25341   1.112   6.888   4.541
 7815SOL    HW125342   1.159   6.919   4.464
 7815SOL    HW225343   1.066   6.966   4.574
 7816SOL     OW25344  14.410   1.979   5.565
 7816SOL    HW125345  14.429   1.969   5.472
 7816SOL    HW225346  14.337   1.919   5.581
 7817SOL     OW25347  14.280   3.695   4.031
 7817SOL    HW125348  14.296   3.603   4.051
 7817SOL    HW225349  14.347   3.743   4.079
 7818SOL     OW25350   9.415   3.579  14.525
 7818SOL    HW125351   9.487   3.592  14.462
 7818SOL    HW225352   9.419   3.485  14.546
 7819SOL     OW25353   7.285   0.849   6.709
 7819SOL    HW125354   7.198   0.814   6.728
 7819SOL    HW225355   7.340   0.816   6.781
 7820SOL     OW25356   1.085   9.066   4.252
 7820SOL    HW125357   1.000   9.052   4.294
 7820SOL    HW225358   1.115   9.150   4.286
 7821SOL     OW25359  14.342  11.743   5.091
 7821SOL    HW125360  14.334  11.794   5.171
 7821SOL    HW225361  14.265  11.685   5.091
 7822SOL     OW25362   2.104   7.101   8.895
 7822SOL    HW125363   2.137   7.107   8.985
 7822SOL    HW225364   2.087   7.191   8.869
 7823SOL     OW25365   3.738  10.641  14.645
 7823SOL    HW125366   3.832  10.645  14.664
 7823SOL    HW225367   3.729  10.679  14.558
 7824SOL     OW25368   7.034   4.457   3.040
 7824SOL    HW125369   7.068   4.480   3.126
 7824SOL    HW225370   6.985   4.535   3.012
 7825SOL     OW25371  12.784  12.174  14.769
 7825SOL    HW125372  12.722  12.244  14.746
 7825SOL    HW225373  12.843  12.214  14.833
 7826SOL     OW25374   3.477   0.526  10.621
 7826SOL    HW125375   3.391   0.514  10.581
 7826SOL    HW225376   3.514   0.603  10.578
 7827SOL     OW25377   7.877  13.171   7.351
 7827SOL    HW125378   7.920  13.242   7.400
 7827SOL    HW225379   7.904  13.185   7.260
 7828SOL     OW25380  11.999   2.793   2.610
 7828SOL    HW125381  12.041   2.870   2.649
 7828SOL    HW225382  11.984   2.734   2.683
 7829SOL     OW25383   8.836   3.622   3.222
 7829SOL    HW125384   8.802   3.643   3.135
 7829SOL    HW225385   8.759   3.616   3.278
 7830SOL     OW25386   9.400  13.887  14.628
 7830SOL    HW125387   9.364  13.933  14.704
 7830SOL    HW225388   9.494  13.880  14.646
 7831SOL     OW25389   7.853   7.429   2.242
 7831SOL    HW125390   7.918   7.499   2.235
 7831SOL    HW225391   7.769   7.474   2.243
 7832SOL     OW25392   3.279  10.873   5.149
 7832SOL    HW125393   3.194  10.839   5.177
 7832SOL    HW225394   3.337  10.855   5.222
 7833SOL     OW25395   7.642   8.033   4.820
 7833SOL    HW125396   7.702   8.012   4.892
 7833SOL    HW225397   7.600   7.950   4.798
 7834SOL     OW25398   1.620   0.618   4.447
 7834SOL    HW125399   1.615   0.537   4.497
 7834SOL    HW225400   1.580   0.684   4.505
 7835SOL     OW25401   4.944   8.887   3.558
 7835SOL    HW125402   4.986   8.876   3.644
 7835SOL    HW225403   4.961   8.804   3.513
 7836SOL     OW25404  12.654   6.040   6.752
 7836SOL    HW125405  12.579   6.043   6.693
 7836SOL    HW225406  12.713   6.107   6.720
 7837SOL     OW25407   1.996   8.422  10.091
 7837SOL    HW125408   1.973   8.343  10.043
 7837SOL    HW225409   1.912   8.459  10.119
 7838SOL     OW25410  10.457   0.544   9.467
 7838SOL    HW125411  10.392   0.565   9.534
 7838SOL    HW225412  10.408   0.543   9.385
 7839SOL     OW25413   7.008   4.357   0.800
 7839SOL    HW125414   7.091   4.326   0.837
 7839SOL    HW225415   7.030   4.442   0.761
 7840SOL     OW25416   5.041  11.384   7.030
 7840SOL    HW125417   5.102  11.371   6.957
 7840SOL    HW225418   4.969  11.435   6.993
 7841SOL     OW25419   4.899   5.700   0.388
 7841SOL    HW125420   4.930   5.663   0.471
 7841SOL    HW225421   4.911   5.630   0.324
 7842SOL     OW25422   0.868  13.312  14.344
 7842SOL    HW125423   0.930  13.278  14.280
 7842SOL    HW225424   0.920  13.369  14.401
 7843SOL     OW25425   5.462   0.659   2.415
 7843SOL    HW125426   5.430   0.735   2.463
 7843SOL    HW225427   5.483   0.595   2.483
 7844SOL     OW25428  10.091   1.280   8.628
 7844SOL    HW125429  10.159   1.253   8.691
 7844SOL    HW225430  10.069   1.370   8.653
 7845SOL     OW25431  11.041   2.959   7.965
 7845SOL    HW125432  10.965   2.904   7.945
 7845SOL    HW225433  11.074   2.924   8.048
 7846SOL     OW25434   6.587   1.366  10.163
 7846SOL    HW125435   6.496   1.343  10.180
 7846SOL    HW225436   6.587   1.462  10.156
 7847SOL     OW25437   1.151   6.152   1.866
 7847SOL    HW125438   1.109   6.127   1.784
 7847SOL    HW225439   1.079   6.166   1.927
 7848SOL     OW25440   4.912   4.435   1.219
 7848SOL    HW125441   4.881   4.402   1.135
 7848SOL    HW225442   5.000   4.468   1.201
 7849SOL     OW25443   5.948   5.423   6.328
 7849SOL    HW125444   6.023   5.404   6.272
 7849SOL    HW225445   5.886   5.352   6.311
 7850SOL     OW25446   3.677   7.174   2.997
 7850SOL    HW125447   3.705   7.230   2.925
 7850SOL    HW225448   3.618   7.228   3.049
 7851SOL     OW25449   0.015  14.232  13.887
 7851SOL    HW125450   0.029  14.324  13.907
 7851SOL    HW225451   0.102  14.199  13.863
 7852SOL     OW25452   5.152   9.548   1.955
 7852SOL    HW125453   5.152   9.490   1.878
 7852SOL    HW225454   5.061   9.577   1.962
 7853SOL     OW25455   3.198   0.157  13.677
 7853SOL    HW125456   3.153   0.194  13.752
 7853SOL    HW225457   3.130   0.149  13.610
 7854SOL     OW25458   5.779   6.034  10.007
 7854SOL    HW125459   5.744   6.110  10.053
 7854SOL    HW225460   5.832   6.072   9.936
 7855SOL     OW25461  10.647   9.430   0.819
 7855SOL    HW125462  10.582   9.472   0.763
 7855SOL    HW225463  10.679   9.356   0.768
 7856SOL     OW25464   9.893   4.915  10.053
 7856SOL    HW125465   9.867   4.998  10.012
 7856SOL    HW225466   9.913   4.857   9.980
 7857SOL     OW25467   9.937   0.404   2.203
 7857SOL    HW125468   9.902   0.353   2.130
 7857SOL    HW225469   9.891   0.372   2.280
 7858SOL     OW25470  12.865   5.540   3.853
 7858SOL    HW125471  12.871   5.550   3.758
 7858SOL    HW225472  12.859   5.629   3.887
 7859SOL     OW25473   8.074  13.422   0.352
 7859SOL    HW125474   8.104  13.347   0.299
 7859SOL    HW225475   8.064  13.387   0.440
 7860SOL     OW25476  10.827  12.684   4.219
 7860SOL    HW125477  10.912  12.644   4.201
 7860SOL    HW225478  10.764  12.614   4.204
 7861SOL     OW25479   5.901   1.450   3.496
 7861SOL    HW125480   5.955   1.436   3.418
 7861SOL    HW225481   5.865   1.538   3.485
 7862SOL     OW25482   1.557   2.500   4.157
 7862SOL    HW125483   1.646   2.473   4.135
 7862SOL    HW225484   1.509   2.418   4.166
 7863SOL     OW25485   9.010  13.363   1.703
 7863SOL    HW125486   8.939  13.401   1.652
 7863SOL    HW225487   9.068  13.322   1.639
 7864SOL     OW25488  14.641   9.711   9.714
 7864SOL    HW125489  14.683   9.796   9.728
 7864SOL    HW225490  14.626   9.677   9.802
 7865SOL     OW25491   9.703   6.431   3.867
 7865SOL    HW125492   9.733   6.448   3.956
 7865SOL    HW225493   9.652   6.508   3.843
 7866SOL     OW25494  12.410  10.992   2.457
 7866SOL    HW125495  12.501  10.968   2.474
 7866SOL    HW225496  12.372  11.006   2.544
 7867SOL     OW25497   1.194   7.509  12.236
 7867SOL    HW125498   1.119   7.450  12.235
 7867SOL    HW225499   1.238   7.491  12.319
 7868SOL     OW25500  11.095  12.278   9.775
 7868SOL    HW125501  11.157  12.307   9.842
 7868SOL    HW225502  11.033  12.351   9.766
 7869SOL     OW25503  12.728  12.971  11.351
 7869SOL    HW125504  12.739  13.054  11.398
 7869SOL    HW225505  12.812  12.956  11.309
 7870SOL     OW25506   0.767   2.801   9.226
 7870SOL    HW125507   0.784   2.715   9.266
 7870SOL    HW225508   0.703   2.842   9.285
 7871SOL     OW25509  11.050  10.763   6.485
 7871SOL    HW125510  10.957  10.767   6.464
 7871SOL    HW225511  11.062  10.676   6.523
 7872SOL     OW25512   8.849   3.212  12.417
 7872SOL    HW125513   8.840   3.122  12.386
 7872SOL    HW225514   8.941   3.219  12.441
 7873SOL     OW25515   3.429   2.269   0.096
 7873SOL    HW125516   3.359   2.334   0.092
 7873SOL    HW225517   3.485   2.298   0.168
 7874SOL     OW25518   4.829   2.768  12.523
 7874SOL    HW125519   4.740   2.803  12.531
 7874SOL    HW225520   4.817   2.673  12.530
 7875SOL     OW25521   5.711  13.013  10.229
 7875SOL    HW125522   5.718  13.103  10.196
 7875SOL    HW225523   5.749  12.959  10.159
 7876SOL     OW25524  14.219   7.974  13.024
 7876SOL    HW125525  14.267   7.946  13.102
 7876SOL    HW225526  14.237   8.068  13.018
 7877SOL     OW25527   5.463  10.164  13.425
 7877SOL    HW125528   5.457  10.083  13.375
 7877SOL    HW225529   5.383  10.212  13.404
 7878SOL     OW25530   8.211   5.324   5.976
 7878SOL    HW125531   8.155   5.397   6.000
 7878SOL    HW225532   8.200   5.261   6.048
 7879SOL     OW25533   5.911  14.835   5.968
 7879SOL    HW125534   5.854  14.800   6.036
 7879SOL    HW225535   5.995  14.848   6.011
 7880SOL     OW25536   0.677   3.411  10.505
 7880SOL    HW125537   0.614   3.380  10.570
 7880SOL    HW225538   0.622   3.442  10.432
 7881SOL     OW25539  10.601   1.372   6.762
 7881SOL    HW125540  10.515   1.394   6.800
 7881SOL    HW225541  10.600   1.414   6.675
 7882SOL     OW25542   7.692   1.260  12.226
 7882SOL    HW125543   7.636   1.336  12.210
 7882SOL    HW225544   7.737   1.245  12.143
 7883SOL     OW25545   9.555   8.150   3.300
 7883SOL    HW125546   9.557   8.103   3.217
 7883SOL    HW225547   9.462   8.150   3.325
 7884SOL     OW25548   9.315   2.492   8.356
 7884SOL    HW125549   9.386   2.497   8.292
 7884SOL    HW225550   9.258   2.566   8.335
 7885SOL     OW25551   4.282   7.785   8.915
 7885SOL    HW125552   4.368   7.789   8.873
 7885SOL    HW225553   4.280   7.698   8.957
 7886SOL     OW25554   8.954   7.917  12.361
 7886SOL    HW125555   8.898   7.924  12.438
 7886SOL    HW225556   8.893   7.915  12.287
 7887SOL     OW25557   8.316  13.147   0.637
 7887SOL    HW125558   8.358  13.221   0.594
 7887SOL    HW225559   8.388  13.096   0.672
 7888SOL     OW25560  10.777   0.901   4.750
 7888SOL    HW125561  10.805   0.812   4.726
 7888SOL    HW225562  10.710   0.923   4.686
 7889SOL     OW25563   7.889   1.703   8.063
 7889SOL    HW125564   7.953   1.632   8.063
 7889SOL    HW225565   7.910   1.753   7.984
 7890SOL     OW25566   8.427  14.225  13.774
 7890SOL    HW125567   8.523  14.228  13.773
 7890SOL    HW225568   8.405  14.138  13.742
 7891SOL     OW25569   4.640   3.152   6.357
 7891SOL    HW125570   4.621   3.100   6.435
 7891SOL    HW225571   4.555   3.178   6.323
 7892SOL     OW25572   7.589   7.461  14.043
 7892SOL    HW125573   7.609   7.448  13.951
 7892SOL    HW225574   7.495   7.443  14.051
 7893SOL     OW25575   7.156  13.158   6.374
 7893SOL    HW125576   7.235  13.112   6.345
 7893SOL    HW225577   7.100  13.090   6.410
 7894SOL     OW25578   5.577   4.216   3.466
 7894SOL    HW125579   5.591   4.294   3.412
 7894SOL    HW225580   5.602   4.143   3.409
 7895SOL     OW25581   8.214  11.086   5.779
 7895SOL    HW125582   8.264  11.033   5.717
 7895SOL    HW225583   8.128  11.097   5.738
 7896SOL     OW25584   6.328  12.325   5.848
 7896SOL    HW125585   6.260  12.376   5.891
 7896SOL    HW225586   6.393  12.389   5.819
 7897SOL     OW25587  10.125   1.720   6.717
 7897SOL    HW125588  10.097   1.629   6.711
 7897SOL    HW225589  10.122   1.753   6.626
 7898SOL     OW25590   4.514  11.996   8.547
 7898SOL    HW125591   4.540  11.991   8.639
 7898SOL    HW225592   4.596  11.986   8.498
 7899SOL     OW25593   7.414   3.596   6.153
 7899SOL    HW125594   7.415   3.524   6.090
 7899SOL    HW225595   7.347   3.656   6.119
 7900SOL     OW25596   4.287  14.746   3.889
 7900SOL    HW125597   4.228  14.694   3.945
 7900SOL    HW225598   4.373  14.706   3.902
 7901SOL     OW25599   0.668   7.782  13.238
 7901SOL    HW125600   0.664   7.834  13.158
 7901SOL    HW225601   0.673   7.847  13.308
 7902SOL     OW25602  10.861   8.841   1.994
 7902SOL    HW125603  10.868   8.802   1.907
 7902SOL    HW225604  10.779   8.890   1.992
 7903SOL     OW25605  14.195   1.701   0.071
 7903SOL    HW125606  14.104   1.726   0.082
 7903SOL    HW225607  14.233   1.706   0.159
 7904SOL     OW25608  10.230   5.125  10.790
 7904SOL    HW125609  10.224   5.034  10.818
 7904SOL    HW225610  10.194   5.176  10.863
 7905SOL     OW25611   3.996   1.914   2.563
 7905SOL    HW125612   3.982   1.855   2.637
 7905SOL    HW225613   3.983   2.001   2.600
 7906SOL     OW25614   5.390   2.093   0.704
 7906SOL    HW125615   5.481   2.084   0.732
 7906SOL    HW225616   5.341   2.035   0.763
 7907SOL     OW25617  12.742  14.108   7.489
 7907SOL    HW125618  12.757  14.073   7.577
 7907SOL    HW225619  12.647  14.125   7.486
 7908SOL     OW25620   0.886   7.147  10.461
 7908SOL    HW125621   0.894   7.142  10.556
 7908SOL    HW225622   0.813   7.088  10.440
 7909SOL     OW25623   7.545  14.536   9.456
 7909SOL    HW125624   7.531  14.564   9.365
 7909SOL    HW225625   7.511  14.446   9.458
 7910SOL     OW25626  13.438   9.976   5.750
 7910SOL    HW125627  13.355   9.964   5.797
 7910SOL    HW225628  13.426  10.057   5.700
 7911SOL     OW25629  11.237   3.180   3.537
 7911SOL    HW125630  11.172   3.143   3.478
 7911SOL    HW225631  11.303   3.218   3.479
 7912SOL     OW25632   0.100   5.245   8.770
 7912SOL    HW125633   0.083   5.242   8.864
 7912SOL    HW225634   0.193   5.266   8.764
 7913SOL     OW25635   4.736  10.518   6.000
 7913SOL    HW125636   4.647  10.552   5.992
 7913SOL    HW225637   4.765  10.546   6.087
 7914SOL     OW25638   1.312   7.780   7.286
 7914SOL    HW125639   1.355   7.827   7.358
 7914SOL    HW225640   1.234   7.742   7.325
 7915SOL     OW25641  12.063  11.790   8.386
 7915SOL    HW125642  12.100  11.877   8.405
 7915SOL    HW225643  12.102  11.732   8.452
 7916SOL     OW25644   0.465  14.401   2.899
 7916SOL    HW125645   0.457  14.414   2.993
 7916SOL    HW225646   0.512  14.478   2.867
 7917SOL     OW25647   2.644   5.636   9.631
 7917SOL    HW125648   2.589   5.620   9.554
 7917SOL    HW225649   2.654   5.731   9.633
 7918SOL     OW25650   8.949   7.577  12.340
 7918SOL    HW125651   8.915   7.561  12.428
 7918SOL    HW225652   8.977   7.669  12.342
 7919SOL     OW25653   1.943   3.589   4.145
 7919SOL    HW125654   1.868   3.619   4.094
 7919SOL    HW225655   1.905   3.558   4.227
 7920SOL     OW25656  13.673   9.929   0.961
 7920SOL    HW125657  13.751   9.906   0.910
 7920SOL    HW225658  13.600   9.919   0.900
 7921SOL     OW25659  12.847   1.083  14.059
 7921SOL    HW125660  12.799   1.012  14.018
 7921SOL    HW225661  12.819   1.162  14.013
 7922SOL     OW25662   1.017   9.302   1.481
 7922SOL    HW125663   1.110   9.323   1.473
 7922SOL    HW225664   1.001   9.303   1.576
 7923SOL     OW25665   4.527   2.442   5.162
 7923SOL    HW125666   4.434   2.462   5.156
 7923SOL    HW225667   4.536   2.353   5.129
 7924SOL     OW25668   4.547   4.135   4.613
 7924SOL    HW125669   4.571   4.074   4.543
 7924SOL    HW225670   4.535   4.079   4.690
 7925SOL     OW25671   0.542  13.163   4.323
 7925SOL    HW125672   0.482  13.219   4.372
 7925SOL    HW225673   0.612  13.222   4.294
 7926SOL     OW25674   0.981  12.466   6.399
 7926SOL    HW125675   0.908  12.526   6.414
 7926SOL    HW225676   0.954  12.385   6.444
 7927SOL     OW25677   8.403  14.704  14.308
 7927SOL    HW125678   8.340  14.705  14.236
 7927SOL    HW225679   8.453  14.785  14.298
 7928SOL     OW25680  11.881  13.107   9.393
 7928SOL    HW125681  11.865  13.013   9.402
 7928SOL    HW225682  11.795  13.145   9.375
 7929SOL     OW25683   2.228   9.566   2.332
 7929SOL    HW125684   2.251   9.658   2.344
 7929SOL    HW225685   2.222   9.530   2.420
 7930SOL     OW25686   5.257   3.282  10.391
 7930SOL    HW125687   5.273   3.373  10.364
 7930SOL    HW225688   5.288   3.230  10.317
 7931SOL     OW25689   5.872   1.040   8.197
 7931SOL    HW125690   5.842   1.124   8.232
 7931SOL    HW225691   5.902   1.060   8.108
 7932SOL     OW25692   0.203   7.485  10.149
 7932SOL    HW125693   0.295   7.492  10.123
 7932SOL    HW225694   0.166   7.571  10.128
 7933SOL     OW25695   1.506   4.551   1.693
 7933SOL    HW125696   1.465   4.602   1.763
 7933SOL    HW225697   1.570   4.610   1.654
 7934SOL     OW25698  13.381   1.517   8.076
 7934SOL    HW125699  13.318   1.519   8.004
 7934SOL    HW225700  13.446   1.584   8.053
 7935SOL     OW25701  11.140   2.745   6.195
 7935SOL    HW125702  11.168   2.816   6.252
 7935SOL    HW225703  11.045   2.755   6.190
 7936SOL     OW25704   3.091  14.255   7.309
 7936SOL    HW125705   3.049  14.169   7.315
 7936SOL    HW225706   3.023  14.313   7.275
 7937SOL     OW25707   7.766   1.338   2.370
 7937SOL    HW125708   7.856   1.363   2.391
 7937SOL    HW225709   7.724   1.329   2.456
 7938SOL     OW25710   6.118  13.808  10.969
 7938SOL    HW125711   6.134  13.772  10.882
 7938SOL    HW225712   6.023  13.800  10.981
 7939SOL     OW25713  11.311   6.253   2.680
 7939SOL    HW125714  11.240   6.233   2.741
 7939SOL    HW225715  11.304   6.348   2.666
 7940SOL     OW25716  10.032   7.867   4.945
 7940SOL    HW125717  10.105   7.835   4.998
 7940SOL    HW225718   9.954   7.834   4.990
 7941SOL     OW25719   5.871   0.744   4.791
 7941SOL    HW125720   5.787   0.768   4.830
 7941SOL    HW225721   5.918   0.827   4.780
 7942SOL     OW25722   7.826  13.953  10.117
 7942SOL    HW125723   7.737  13.989  10.109
 7942SOL    HW225724   7.882  14.031  10.124
 7943SOL     OW25725   4.646  13.177   6.470
 7943SOL    HW125726   4.638  13.248   6.534
 7943SOL    HW225727   4.559  13.138   6.466
 7944SOL     OW25728   3.030   6.496  10.584
 7944SOL    HW125729   3.066   6.456  10.504
 7944SOL    HW225730   2.993   6.579  10.554
 7945SOL     OW25731  10.443   3.731   7.599
 7945SOL    HW125732  10.350   3.709   7.601
 7945SOL    HW225733  10.446   3.826   7.610
 7946SOL     OW25734  11.983   6.071  12.885
 7946SOL    HW125735  12.022   6.060  12.971
 7946SOL    HW225736  12.058   6.069  12.825
 7947SOL     OW25737   9.968  12.472   9.983
 7947SOL    HW125738   9.989  12.508  10.069
 7947SOL    HW225739   9.919  12.392  10.001
 7948SOL     OW25740   4.292   2.645  10.591
 7948SOL    HW125741   4.377   2.608  10.567
 7948SOL    HW225742   4.287   2.634  10.686
 7949SOL     OW25743   5.956   6.330   4.653
 7949SOL    HW125744   5.934   6.294   4.738
 7949SOL    HW225745   5.968   6.254   4.596
 7950SOL     OW25746  12.234  13.232  11.886
 7950SOL    HW125747  12.223  13.327  11.892
 7950SOL    HW225748  12.202  13.198  11.970
 7951SOL     OW25749   5.273   6.129   9.088
 7951SOL    HW125750   5.362   6.162   9.071
 7951SOL    HW225751   5.229   6.134   9.003
 7952SOL     OW25752   0.336   1.889   8.648
 7952SOL    HW125753   0.341   1.930   8.562
 7952SOL    HW225754   0.426   1.861   8.666
 7953SOL     OW25755  10.984   1.462   4.775
 7953SOL    HW125756  11.052   1.527   4.792
 7953SOL    HW225757  10.931   1.461   4.855
 7954SOL     OW25758  10.735   1.887   7.112
 7954SOL    HW125759  10.791   1.842   7.049
 7954SOL    HW225760  10.648   1.849   7.099
 7955SOL     OW25761  10.217   9.740   5.322
 7955SOL    HW125762  10.295   9.793   5.334
 7955SOL    HW225763  10.178   9.734   5.410
 7956SOL     OW25764  13.716   6.384  13.325
 7956SOL    HW125765  13.699   6.454  13.262
 7956SOL    HW225766  13.703   6.303  13.275
 7957SOL     OW25767  11.457   1.237   2.410
 7957SOL    HW125768  11.518   1.302   2.445
 7957SOL    HW225769  11.483   1.228   2.318
 7958SOL     OW25770  14.632  13.543   9.556
 7958SOL    HW125771  14.537  13.528   9.550
 7958SOL    HW225772  14.640  13.624   9.607
 7959SOL     OW25773   5.599   4.269   1.892
 7959SOL    HW125774   5.522   4.293   1.841
 7959SOL    HW225775   5.566   4.253   1.980
 7960SOL     OW25776   4.920   1.728   1.743
 7960SOL    HW125777   4.989   1.686   1.692
 7960SOL    HW225778   4.860   1.763   1.677
 7961SOL     OW25779   0.683   5.726   9.145
 7961SOL    HW125780   0.672   5.750   9.053
 7961SOL    HW225781   0.618   5.778   9.192
 7962SOL     OW25782  11.985  10.018   8.629
 7962SOL    HW125783  12.020   9.965   8.558
 7962SOL    HW225784  12.057  10.026   8.691
 7963SOL     OW25785   0.692   1.111   9.180
 7963SOL    HW125786   0.619   1.143   9.128
 7963SOL    HW225787   0.678   1.016   9.185
 7964SOL     OW25788  14.012  14.513   5.664
 7964SOL    HW125789  14.099  14.475   5.657
 7964SOL    HW225790  14.009  14.579   5.594
 7965SOL     OW25791  10.546   2.762   9.449
 7965SOL    HW125792  10.630   2.769   9.494
 7965SOL    HW225793  10.486   2.817   9.500
 7966SOL     OW25794  11.263   4.740   2.901
 7966SOL    HW125795  11.257   4.720   2.994
 7966SOL    HW225796  11.180   4.708   2.864
 7967SOL     OW25797  10.707   0.743   5.277
 7967SOL    HW125798  10.612   0.748   5.262
 7967SOL    HW225799  10.729   0.828   5.316
 7968SOL     OW25800  13.019   9.997   3.550
 7968SOL    HW125801  12.926   9.973   3.557
 7968SOL    HW225802  13.065   9.915   3.566
 7969SOL     OW25803   6.430   6.545  13.272
 7969SOL    HW125804   6.377   6.624  13.264
 7969SOL    HW225805   6.519   6.577  13.287
 7970SOL     OW25806  12.018   7.782   7.215
 7970SOL    HW125807  11.991   7.728   7.141
 7970SOL    HW225808  11.941   7.835   7.235
 7971SOL     OW25809   9.503   7.158  12.865
 7971SOL    HW125810   9.563   7.154  12.940
 7971SOL    HW225811   9.535   7.231  12.812
 7972SOL     OW25812   3.013   9.207  11.589
 7972SOL    HW125813   2.954   9.241  11.656
 7972SOL    HW225814   2.978   9.240  11.506
 7973SOL     OW25815  10.897  13.427   8.402
 7973SOL    HW125816  10.947  13.396   8.326
 7973SOL    HW225817  10.954  13.493   8.442
 7974SOL     OW25818  12.371  11.709   0.222
 7974SOL    HW125819  12.327  11.788   0.192
 7974SOL    HW225820  12.444  11.741   0.275
 7975SOL     OW25821   6.912   3.378   2.101
 7975SOL    HW125822   6.985   3.416   2.053
 7975SOL    HW225823   6.896   3.439   2.174
 7976SOL     OW25824  12.366   2.270   1.607
 7976SOL    HW125825  12.314   2.323   1.548
 7976SOL    HW225826  12.318   2.273   1.690
 7977SOL     OW25827   3.725   1.964   2.410
 7977SOL    HW125828   3.812   1.931   2.432
 7977SOL    HW225829   3.741   2.054   2.381
 7978SOL     OW25830  14.603  10.407   6.159
 7978SOL    HW125831  14.573  10.330   6.110
 7978SOL    HW225832  14.550  10.406   6.239
 7979SOL     OW25833   5.662   1.426  14.607
 7979SOL    HW125834   5.624   1.503  14.649
 7979SOL    HW225835   5.751   1.421  14.643
 7980SOL     OW25836  12.924  12.725   2.551
 7980SOL    HW125837  12.962  12.638   2.561
 7980SOL    HW225838  12.994  12.785   2.574
 7981SOL     OW25839   7.948  10.521   0.014
 7981SOL    HW125840   8.026  10.498   0.065
 7981SOL    HW225841   7.878  10.526   0.078
 7982SOL     OW25842   3.312   3.638  11.075
 7982SOL    HW125843   3.377   3.575  11.044
 7982SOL    HW225844   3.346   3.666  11.160
 7983SOL     OW25845   8.640   7.082   3.073
 7983SOL    HW125846   8.728   7.117   3.085
 7983SOL    HW225847   8.615   7.051   3.160
 7984SOL     OW25848   2.491   4.546   9.864
 7984SOL    HW125849   2.474   4.590   9.947
 7984SOL    HW225850   2.481   4.614   9.797
 7985SOL     OW25851   3.909   8.007  13.279
 7985SOL    HW125852   3.960   8.086  13.262
 7985SOL    HW225853   3.929   7.984  13.370
 7986SOL     OW25854  12.269   3.784   5.995
 7986SOL    HW125855  12.253   3.879   5.993
 7986SOL    HW225856  12.182   3.745   5.982
 7987SOL     OW25857   6.135   6.412   8.914
 7987SOL    HW125858   6.187   6.488   8.940
 7987SOL    HW225859   6.113   6.369   8.996
 7988SOL     OW25860   9.645  10.739   0.206
 7988SOL    HW125861   9.591  10.747   0.285
 7988SOL    HW225862   9.584  10.707   0.139
 7989SOL     OW25863   1.613   0.995  12.108
 7989SOL    HW125864   1.537   1.049  12.085
 7989SOL    HW225865   1.615   0.998  12.204
 7990SOL     OW25866   0.729   7.123  13.772
 7990SOL    HW125867   0.702   7.214  13.778
 7990SOL    HW225868   0.669   7.084  13.708
 7991SOL     OW25869   6.710   7.513   3.456
 7991SOL    HW125870   6.764   7.462   3.517
 7991SOL    HW225871   6.668   7.447   3.400
 7992SOL     OW25872  14.762   4.339   6.456
 7992SOL    HW125873  14.832   4.390   6.497
 7992SOL    HW225874  14.773   4.355   6.362
 7993SOL     OW25875   1.734   3.142  10.676
 7993SOL    HW125876   1.719   3.223  10.627
 7993SOL    HW225877   1.800   3.095  10.624
 7994SOL     OW25878  12.759  13.892   0.478
 7994SOL    HW125879  12.822  13.822   0.463
 7994SOL    HW225880  12.809  13.973   0.465
 7995SOL     OW25881   4.741   8.125   8.527
 7995SOL    HW125882   4.671   8.147   8.588
 7995SOL    HW225883   4.801   8.199   8.532
 7996SOL     OW25884   4.791   5.056  10.385
 7996SOL    HW125885   4.773   5.088  10.474
 7996SOL    HW225886   4.729   5.103  10.330
 7997SOL     OW25887   7.315  10.012  12.025
 7997SOL    HW125888   7.254   9.977  11.959
 7997SOL    HW225889   7.363   9.935  12.055
 7998SOL     OW25890   8.643  14.628  13.191
 7998SOL    HW125891   8.642  14.591  13.280
 7998SOL    HW225892   8.735  14.634  13.169
 7999SOL     OW25893   5.416   6.840   4.151
 7999SOL    HW125894   5.364   6.835   4.070
 7999SOL    HW225895   5.438   6.748   4.170
 8000SOL     OW25896   4.924   6.143   5.750
 8000SOL    HW125897   4.928   6.142   5.654
 8000SOL    HW225898   4.935   6.235   5.774
 8001SOL     OW25899   4.135   1.580   2.812
 8001SOL    HW125900   4.177   1.520   2.873
 8001SOL    HW225901   4.081   1.524   2.756
 8002SOL     OW25902   6.721   1.456   3.676
 8002SOL    HW125903   6.638   1.410   3.661
 8002SOL    HW225904   6.701   1.548   3.658
 8003SOL     OW25905   6.063   6.212   9.114
 8003SOL    HW125906   6.021   6.238   9.196
 8003SOL    HW225907   6.113   6.133   9.137
 8004SOL     OW25908   5.145   4.159   0.228
 8004SOL    HW125909   5.173   4.082   0.278
 8004SOL    HW225910   5.224   4.187   0.181
 8005SOL     OW25911   2.266  12.575  12.659
 8005SOL    HW125912   2.247  12.505  12.597
 8005SOL    HW225913   2.187  12.629  12.660
 8006SOL     OW25914   6.652   5.689  13.007
 8006SOL    HW125915   6.729   5.706  12.953
 8006SOL    HW225916   6.598   5.768  12.999
 8007SOL     OW25917   7.618   5.159   8.725
 8007SOL    HW125918   7.712   5.164   8.744
 8007SOL    HW225919   7.611   5.096   8.654
 8008SOL     OW25920   0.590   2.548  10.389
 8008SOL    HW125921   0.556   2.634  10.412
 8008SOL    HW225922   0.512   2.492  10.386
 8009SOL     OW25923  11.110   3.718   4.860
 8009SOL    HW125924  11.142   3.629   4.873
 8009SOL    HW225925  11.153   3.748   4.780
 8010SOL     OW25926   4.759   8.182  14.598
 8010SOL    HW125927   4.793   8.234  14.525
 8010SOL    HW225928   4.813   8.206  14.673
 8011SOL     OW25929  10.859  14.172   1.838
 8011SOL    HW125930  10.829  14.244   1.783
 8011SOL    HW225931  10.936  14.207   1.883
 8012SOL     OW25932   5.643   3.584  14.262
 8012SOL    HW125933   5.603   3.665  14.296
 8012SOL    HW225934   5.585   3.514  14.292
 8013SOL     OW25935  13.577  13.751  13.326
 8013SOL    HW125936  13.595  13.708  13.242
 8013SOL    HW225937  13.612  13.839  13.315
 8014SOL     OW25938   9.472   1.482   1.892
 8014SOL    HW125939   9.513   1.414   1.838
 8014SOL    HW225940   9.379   1.463   1.889
 8015SOL     OW25941  14.860   5.377   1.015
 8015SOL    HW125942   0.052   5.417   0.954
 8015SOL    HW225943  14.794   5.335   0.959
 8016SOL     OW25944   3.313   5.978  14.074
 8016SOL    HW125945   3.361   6.026  14.141
 8016SOL    HW225946   3.245   5.931  14.123
 8017SOL     OW25947   9.348   1.648   8.079
 8017SOL    HW125948   9.332   1.581   8.147
 8017SOL    HW225949   9.410   1.708   8.120
 8018SOL     OW25950   5.450   3.776   1.398
 8018SOL    HW125951   5.362   3.801   1.369
 8018SOL    HW225952   5.509   3.824   1.340
 8019SOL     OW25953   4.691   2.795   2.569
 8019SOL    HW125954   4.760   2.771   2.507
 8019SOL    HW225955   4.658   2.880   2.537
 8020SOL     OW25956  10.437   2.056  10.941
 8020SOL    HW125957  10.417   2.072  11.033
 8020SOL    HW225958  10.353   2.033  10.901
 8021SOL     OW25959   2.522  12.510  14.394
 8021SOL    HW125960   2.515  12.435  14.335
 8021SOL    HW225961   2.565  12.578  14.341
 8022SOL     OW25962   1.484   2.338  10.431
 8022SOL    HW125963   1.488   2.434  10.441
 8022SOL    HW225964   1.519   2.304  10.513
 8023SOL     OW25965  14.212  12.392   2.532
 8023SOL    HW125966  14.142  12.422   2.591
 8023SOL    HW225967  14.227  12.467   2.474
 8024SOL     OW25968   5.843   3.306   6.130
 8024SOL    HW125969   5.928   3.294   6.172
 8024SOL    HW225970   5.844   3.397   6.101
 8025SOL     OW25971   1.638  11.603  12.509
 8025SOL    HW125972   1.689  11.622  12.588
 8025SOL    HW225973   1.572  11.539  12.538
 8026SOL     OW25974  10.353  13.705   7.211
 8026SOL    HW125975  10.272  13.654   7.210
 8026SOL    HW225976  10.380  13.706   7.302
 8027SOL     OW25977   2.402   9.251  13.198
 8027SOL    HW125978   2.437   9.251  13.287
 8027SOL    HW225979   2.421   9.164  13.164
 8028SOL     OW25980   6.464  10.111   9.265
 8028SOL    HW125981   6.558  10.102   9.274
 8028SOL    HW225982   6.427  10.052   9.331
 8029SOL     OW25983  13.061  11.939   5.322
 8029SOL    HW125984  13.041  11.884   5.246
 8029SOL    HW225985  13.092  11.877   5.389
 8030SOL     OW25986   3.331   5.656   7.897
 8030SOL    HW125987   3.308   5.653   7.990
 8030SOL    HW225988   3.348   5.565   7.874
 8031SOL     OW25989  11.192  10.435  14.752
 8031SOL    HW125990  11.105  10.472  14.764
 8031SOL    HW225991  11.183  10.377  14.676
 8032SOL     OW25992  10.738   7.660   5.388
 8032SOL    HW125993  10.694   7.730   5.436
 8032SOL    HW225994  10.778   7.705   5.314
 8033SOL     OW25995   8.454  13.362   0.532
 8033SOL    HW125996   8.432  13.396   0.446
 8033SOL    HW225997   8.537  13.404   0.555
 8034SOL     OW25998   9.013  13.517   9.166
 8034SOL    HW125999   8.993  13.425   9.182
 8034SOL    HW226000   9.070  13.515   9.089
 8035SOL     OW26001  14.289   4.580   8.474
 8035SOL    HW126002  14.371   4.532   8.481
 8035SOL    HW226003  14.231   4.523   8.424
 8036SOL     OW26004   7.299   0.418   3.547
 8036SOL    HW126005   7.348   0.406   3.466
 8036SOL    HW226006   7.351   0.372   3.613
 8037SOL     OW26007  13.407   1.465  10.840
 8037SOL    HW126008  13.387   1.515  10.919
 8037SOL    HW226009  13.374   1.519  10.768
 8038SOL     OW26010   3.386   4.963  10.875
 8038SOL    HW126011   3.338   4.886  10.906
 8038SOL    HW226012   3.459   4.973  10.937
 8039SOL     OW26013  13.743   2.042   5.332
 8039SOL    HW126014  13.783   2.053   5.419
 8039SOL    HW226015  13.717   2.130   5.306
 8040SOL     OW26016   3.665  13.311   5.837
 8040SOL    HW126017   3.744  13.264   5.812
 8040SOL    HW226018   3.632  13.264   5.914
 8041SOL     OW26019  10.040   5.280   4.063
 8041SOL    HW126020   9.958   5.294   4.109
 8041SOL    HW226021  10.015   5.236   3.982
 8042SOL     OW26022  12.713   4.533   3.989
 8042SOL    HW126023  12.682   4.525   4.079
 8042SOL    HW226024  12.704   4.626   3.969
 8043SOL     OW26025  13.713  13.817  14.367
 8043SOL    HW126026  13.737  13.910  14.364
 8043SOL    HW226027  13.793  13.773  14.398
 8044SOL     OW26028  13.802  10.053  10.658
 8044SOL    HW126029  13.880  10.022  10.704
 8044SOL    HW226030  13.737   9.984  10.672
 8045SOL     OW26031   7.485   2.986   7.502
 8045SOL    HW126032   7.519   2.900   7.480
 8045SOL    HW226033   7.556   3.028   7.550
 8046SOL     OW26034   9.056   5.303  14.340
 8046SOL    HW126035   9.005   5.323  14.262
 8046SOL    HW226036   9.138   5.351  14.328
 8047SOL     OW26037  10.836   0.445   3.529
 8047SOL    HW126038  10.858   0.359   3.565
 8047SOL    HW226039  10.844   0.505   3.604
 8048SOL     OW26040  14.419  11.365  10.664
 8048SOL    HW126041  14.350  11.380  10.600
 8048SOL    HW226042  14.416  11.441  10.721
 8049SOL     OW26043  10.463   5.691  10.647
 8049SOL    HW126044  10.550   5.652  10.642
 8049SOL    HW226045  10.449   5.730  10.560
 8050SOL     OW26046   2.789   2.787   1.742
 8050SOL    HW126047   2.818   2.794   1.651
 8050SOL    HW226048   2.722   2.854   1.751
 8051SOL     OW26049   6.586   0.420  13.071
 8051SOL    HW126050   6.541   0.492  13.115
 8051SOL    HW226051   6.610   0.359  13.141
 8052SOL     OW26052   0.035   6.105  12.834
 8052SOL    HW126053  14.865   6.147  12.911
 8052SOL    HW226054   0.069   6.178  12.782
 8053SOL     OW26055   5.803   1.576   3.899
 8053SOL    HW126056   5.793   1.484   3.872
 8053SOL    HW226057   5.876   1.608   3.846
 8054SOL     OW26058   2.349   9.811   0.252
 8054SOL    HW126059   2.394   9.882   0.205
 8054SOL    HW226060   2.293   9.857   0.315
 8055SOL     OW26061   9.935   5.333  14.448
 8055SOL    HW126062   9.850   5.321  14.490
 8055SOL    HW226063   9.995   5.353  14.520
 8056SOL     OW26064   3.388   1.627   7.345
 8056SOL    HW126065   3.293   1.622   7.354
 8056SOL    HW226066   3.402   1.659   7.256
 8057SOL     OW26067  11.746   4.750   4.818
 8057SOL    HW126068  11.719   4.663   4.790
 8057SOL    HW226069  11.664   4.798   4.832
 8058SOL     OW26070  13.741  13.183  10.136
 8058SOL    HW126071  13.660  13.230  10.116
 8058SOL    HW226072  13.806  13.251  10.151
 8059SOL     OW26073   6.979   0.375   1.469
 8059SOL    HW126074   7.031   0.432   1.412
 8059SOL    HW226075   6.900   0.426   1.489
 8060SOL     OW26076   6.332  11.966  14.622
 8060SOL    HW126077   6.325  11.914  14.701
 8060SOL    HW226078   6.424  11.960  14.597
 8061SOL     OW26079  12.267  13.542   2.346
 8061SOL    HW126080  12.272  13.613   2.282
 8061SOL    HW226081  12.267  13.462   2.294
 8062SOL     OW26082   5.472   3.409   4.872
 8062SOL    HW126083   5.429   3.343   4.927
 8062SOL    HW226084   5.561   3.415   4.907
 8063SOL     OW26085   7.811  13.028  12.500
 8063SOL    HW126086   7.887  13.022  12.442
 8063SOL    HW226087   7.751  12.961  12.467
 8064SOL     OW26088  10.042  10.249  11.490
 8064SOL    HW126089  10.106  10.196  11.443
 8064SOL    HW226090   9.983  10.186  11.531
 8065SOL     OW26091   0.479   6.240   6.800
 8065SOL    HW126092   0.469   6.276   6.888
 8065SOL    HW226093   0.390   6.228   6.769
 8066SOL     OW26094   2.665  12.638   6.000
 8066SOL    HW126095   2.569  12.637   5.998
 8066SOL    HW226096   2.687  12.717   6.050
 8067SOL     OW26097   7.066  10.808   9.570
 8067SOL    HW126098   7.123  10.756   9.513
 8067SOL    HW226099   7.103  10.896   9.568
 8068SOL     OW26100   4.876   4.797   5.492
 8068SOL    HW126101   4.794   4.800   5.540
 8068SOL    HW226102   4.865   4.725   5.429
 8069SOL     OW26103   4.451   5.813   7.898
 8069SOL    HW126104   4.477   5.809   7.990
 8069SOL    HW226105   4.465   5.905   7.874
 8070SOL     OW26106  14.791   3.514   2.411
 8070SOL    HW126107  14.703   3.476   2.404
 8070SOL    HW226108  14.789   3.566   2.491
 8071SOL     OW26109  11.273   7.281  13.937
 8071SOL    HW126110  11.183   7.263  13.911
 8071SOL    HW226111  11.269   7.293  14.032
 8072SOL     OW26112   2.014   7.727   8.029
 8072SOL    HW126113   1.945   7.725   8.095
 8072SOL    HW226114   2.052   7.814   8.037
 8073SOL     OW26115   4.530  10.029  11.795
 8073SOL    HW126116   4.526   9.987  11.709
 8073SOL    HW226117   4.513  10.121  11.778
 8074SOL     OW26118  11.308   6.777   6.944
 8074SOL    HW126119  11.289   6.853   6.999
 8074SOL    HW226120  11.376   6.807   6.884
 8075SOL     OW26121  10.978   5.760  10.761
 8075SOL    HW126122  11.012   5.699  10.827
 8075SOL    HW226123  10.912   5.709  10.714
 8076SOL     OW26124  13.733  13.441   0.703
 8076SOL    HW126125  13.770  13.387   0.773
 8076SOL    HW226126  13.794  13.514   0.695
 8077SOL     OW26127   8.378   5.615  10.154
 8077SOL    HW126128   8.406   5.568  10.076
 8077SOL    HW226129   8.286   5.638  10.136
 8078SOL     OW26130   9.050   1.714   3.588
 8078SOL    HW126131   9.123   1.753   3.636
 8078SOL    HW226132   9.007   1.789   3.546
 8079SOL     OW26133   7.039   5.897   0.786
 8079SOL    HW126134   7.014   5.989   0.793
 8079SOL    HW226135   7.013   5.858   0.870
 8080SOL     OW26136  13.794  14.721  12.317
 8080SOL    HW126137  13.729  14.753  12.379
 8080SOL    HW226138  13.771  14.762  12.234
 8081SOL     OW26139   5.129  13.220   9.171
 8081SOL    HW126140   5.184  13.159   9.220
 8081SOL    HW226141   5.109  13.290   9.233
 8082SOL     OW26142   2.579  11.467   2.982
 8082SOL    HW126143   2.667  11.459   2.947
 8082SOL    HW226144   2.540  11.380   2.969
 8083SOL     OW26145   1.809  14.025   1.196
 8083SOL    HW126146   1.852  14.007   1.280
 8083SOL    HW226147   1.763  13.944   1.175
 8084SOL     OW26148   4.897  12.670  12.335
 8084SOL    HW126149   4.991  12.684  12.326
 8084SOL    HW226150   4.859  12.709  12.257
 8085SOL     OW26151   9.592  14.823   3.984
 8085SOL    HW126152   9.687  14.831   3.978
 8085SOL    HW226153   9.565  14.788   3.899
 8086SOL     OW26154   6.550   8.965   3.443
 8086SOL    HW126155   6.515   8.930   3.361
 8086SOL    HW226156   6.644   8.947   3.439
 8087SOL     OW26157   4.417  10.030   8.300
 8087SOL    HW126158   4.348  10.065   8.244
 8087SOL    HW226159   4.391   9.939   8.315
 8088SOL     OW26160  10.109   5.137  12.859
 8088SOL    HW126161  10.086   5.083  12.784
 8088SOL    HW226162  10.027   5.181  12.882
 8089SOL     OW26163   8.402   7.469   1.992
 8089SOL    HW126164   8.495   7.460   2.014
 8089SOL    HW226165   8.356   7.441   2.071
 8090SOL     OW26166  13.129   8.191  13.651
 8090SOL    HW126167  13.082   8.252  13.594
 8090SOL    HW226168  13.061   8.135  13.688
 8091SOL     OW26169  14.790  13.081   9.609
 8091SOL    HW126170  14.823  13.063   9.521
 8091SOL    HW226171  14.746  13.001   9.635
 8092SOL     OW26172   1.999   8.761  12.786
 8092SOL    HW126173   2.039   8.828  12.731
 8092SOL    HW226174   1.924   8.805  12.826
 8093SOL     OW26175   2.420  13.763   1.640
 8093SOL    HW126176   2.438  13.852   1.671
 8093SOL    HW226177   2.488  13.709   1.679
 8094SOL     OW26178  11.182   3.573   8.081
 8094SOL    HW126179  11.223   3.501   8.128
 8094SOL    HW226180  11.160   3.637   8.148
 8095SOL     OW26181   7.995  13.157   6.578
 8095SOL    HW126182   7.904  13.153   6.551
 8095SOL    HW226183   8.040  13.095   6.520
 8096SOL     OW26184  12.603  14.510   2.885
 8096SOL    HW126185  12.544  14.466   2.824
 8096SOL    HW226186  12.549  14.575   2.929
 8097SOL     OW26187   0.360   7.094   8.914
 8097SOL    HW126188   0.441   7.056   8.880
 8097SOL    HW226189   0.389   7.152   8.985
 8098SOL     OW26190   7.412   9.034   6.840
 8098SOL    HW126191   7.385   9.071   6.923
 8098SOL    HW226192   7.382   9.097   6.774
 8099SOL     OW26193   1.087   1.984  13.552
 8099SOL    HW126194   1.146   1.982  13.477
 8099SOL    HW226195   1.040   2.067  13.544
 8100SOL     OW26196  12.236  12.062  13.857
 8100SOL    HW126197  12.245  12.055  13.762
 8100SOL    HW226198  12.307  12.121  13.883
 8101SOL     OW26199   0.603   7.140   6.820
 8101SOL    HW126200   0.676   7.112   6.876
 8101SOL    HW226201   0.601   7.075   6.749
 8102SOL     OW26202  14.769  11.018   7.198
 8102SOL    HW126203  14.764  10.992   7.106
 8102SOL    HW226204  14.727  10.945   7.245
 8103SOL     OW26205  11.720   9.008   8.070
 8103SOL    HW126206  11.642   8.954   8.087
 8103SOL    HW226207  11.776   8.995   8.147
 8104SOL     OW26208   2.509   2.904   9.010
 8104SOL    HW126209   2.452   2.856   8.949
 8104SOL    HW226210   2.491   2.996   8.991
 8105SOL     OW26211   9.864   3.694   3.481
 8105SOL    HW126212   9.770   3.687   3.467
 8105SOL    HW226213   9.886   3.785   3.460
 8106SOL     OW26214   9.516   1.928  13.192
 8106SOL    HW126215   9.451   1.996  13.209
 8106SOL    HW226216   9.466   1.846  13.197
 8107SOL     OW26217   8.551   5.769   5.169
 8107SOL    HW126218   8.641   5.738   5.172
 8107SOL    HW226219   8.501   5.697   5.132
 8108SOL     OW26220   5.730   3.326  12.575
 8108SOL    HW126221   5.659   3.362  12.627
 8108SOL    HW226222   5.707   3.233  12.565
 8109SOL     OW26223   8.877   3.963  11.372
 8109SOL    HW126224   8.885   3.888  11.313
 8109SOL    HW226225   8.963   4.006  11.368
 8110SOL     OW26226   3.328   8.847   0.793
 8110SOL    HW126227   3.368   8.767   0.826
 8110SOL    HW226228   3.307   8.898   0.872
 8111SOL     OW26229  11.522   8.983   0.185
 8111SOL    HW126230  11.513   9.051   0.119
 8111SOL    HW226231  11.607   8.943   0.167
 8112SOL     OW26232   7.709   8.229  14.586
 8112SOL    HW126233   7.667   8.208  14.502
 8112SOL    HW226234   7.666   8.310  14.614
 8113SOL     OW26235   8.252   7.954   2.760
 8113SOL    HW126236   8.326   7.999   2.801
 8113SOL    HW226237   8.212   7.906   2.832
 8114SOL     OW26238   8.355   9.062   1.428
 8114SOL    HW126239   8.440   9.068   1.471
 8114SOL    HW226240   8.345   9.146   1.383
 8115SOL     OW26241  10.740   0.623   6.408
 8115SOL    HW126242  10.810   0.672   6.365
 8115SOL    HW226243  10.682   0.690   6.444
 8116SOL     OW26244   7.570  13.661   1.210
 8116SOL    HW126245   7.636  13.719   1.172
 8116SOL    HW226246   7.558  13.694   1.299
 8117SOL     OW26247   1.868  12.375   0.263
 8117SOL    HW126248   1.785  12.327   0.255
 8117SOL    HW226249   1.865  12.415   0.349
 8118SOL     OW26250   3.013  14.579  13.958
 8118SOL    HW126251   3.040  14.653  14.013
 8118SOL    HW226252   3.011  14.614  13.869
 8119SOL     OW26253   5.401   4.278   9.604
 8119SOL    HW126254   5.442   4.203   9.561
 8119SOL    HW226255   5.445   4.354   9.567
 8120SOL     OW26256   6.390   2.768   9.977
 8120SOL    HW126257   6.357   2.711   9.908
 8120SOL    HW226258   6.483   2.776   9.959
 8121SOL     OW26259   2.279  12.727   0.851
 8121SOL    HW126260   2.370  12.757   0.862
 8121SOL    HW226261   2.282  12.672   0.773
 8122SOL     OW26262   8.058   6.290  12.368
 8122SOL    HW126263   8.066   6.344  12.290
 8122SOL    HW226264   8.120   6.218  12.353
 8123SOL     OW26265  11.781  11.870   9.992
 8123SOL    HW126266  11.813  11.949   9.950
 8123SOL    HW226267  11.848  11.848  10.056
 8124SOL     OW26268   6.853   6.400  14.466
 8124SOL    HW126269   6.927   6.394  14.527
 8124SOL    HW226270   6.894   6.407  14.379
 8125SOL     OW26271   6.604  12.498   9.983
 8125SOL    HW126272   6.671  12.550   9.940
 8125SOL    HW226273   6.639  12.481  10.071
 8126SOL     OW26274   4.412   1.020   5.082
 8126SOL    HW126275   4.498   1.018   5.041
 8126SOL    HW226276   4.415   1.092   5.145
 8127SOL     OW26277   7.596  10.644   2.228
 8127SOL    HW126278   7.635  10.589   2.161
 8127SOL    HW226279   7.666  10.657   2.292
 8128SOL     OW26280   8.612   1.017   4.085
 8128SOL    HW126281   8.607   0.936   4.135
 8128SOL    HW226282   8.520   1.041   4.069
 8129SOL     OW26283   9.954   6.748  13.852
 8129SOL    HW126284   9.922   6.670  13.896
 8129SOL    HW226285  10.050   6.741  13.857
 8130SOL     OW26286   0.031   9.194  12.281
 8130SOL    HW126287  14.854   9.232  12.355
 8130SOL    HW226288   0.082   9.122  12.318
 8131SOL     OW26289  10.277   7.947  10.003
 8131SOL    HW126290  10.332   8.025   9.998
 8131SOL    HW226291  10.281   7.910   9.914
 8132SOL     OW26292   4.789   0.863   0.204
 8132SOL    HW126293   4.793   0.792   0.268
 8132SOL    HW226294   4.877   0.867   0.166
 8133SOL     OW26295  14.112   3.959  11.043
 8133SOL    HW126296  14.174   3.984  10.975
 8133SOL    HW226297  14.060   3.888  11.004
 8134SOL     OW26298   4.482   6.462   7.358
 8134SOL    HW126299   4.472   6.403   7.433
 8134SOL    HW226300   4.397   6.462   7.315
 8135SOL     OW26301   5.428  12.243  11.755
 8135SOL    HW126302   5.437  12.192  11.835
 8135SOL    HW226303   5.369  12.315  11.779
 8136SOL     OW26304  14.322   6.087  13.715
 8136SOL    HW126305  14.360   6.166  13.677
 8136SOL    HW226306  14.359   6.081  13.803
 8137SOL     OW26307  11.201   2.867   1.449
 8137SOL    HW126308  11.189   2.772   1.441
 8137SOL    HW226309  11.216   2.896   1.359
 8138SOL     OW26310   2.739   5.141   1.802
 8138SOL    HW126311   2.825   5.100   1.796
 8138SOL    HW226312   2.757   5.234   1.809
 8139SOL     OW26313   4.318  13.380   3.619
 8139SOL    HW126314   4.286  13.353   3.533
 8139SOL    HW226315   4.390  13.319   3.637
 8140SOL     OW26316   3.158   8.393  11.162
 8140SOL    HW126317   3.080   8.339  11.149
 8140SOL    HW226318   3.156   8.456  11.090
 8141SOL     OW26319  11.312   4.674   7.799
 8141SOL    HW126320  11.232   4.649   7.753
 8141SOL    HW226321  11.302   4.767   7.815
 8142SOL     OW26322   6.927  10.217   0.153
 8142SOL    HW126323   6.880  10.133   0.153
 8142SOL    HW226324   6.947  10.233   0.246
 8143SOL     OW26325   7.314   1.940   7.135
 8143SOL    HW126326   7.239   1.950   7.076
 8143SOL    HW226327   7.285   1.878   7.201
 8144SOL     OW26328  11.565  12.546   5.745
 8144SOL    HW126329  11.554  12.483   5.674
 8144SOL    HW226330  11.635  12.510   5.799
 8145SOL     OW26331   1.188  14.476   8.490
 8145SOL    HW126332   1.125  14.427   8.437
 8145SOL    HW226333   1.176  14.442   8.579
 8146SOL     OW26334   9.300  11.366   4.768
 8146SOL    HW126335   9.338  11.453   4.754
 8146SOL    HW226336   9.282  11.333   4.680
 8147SOL     OW26337   6.638  13.271  13.053
 8147SOL    HW126338   6.600  13.206  12.993
 8147SOL    HW226339   6.603  13.355  13.024
 8148SOL     OW26340   2.997   3.234  14.399
 8148SOL    HW126341   2.984   3.320  14.359
 8148SOL    HW226342   2.999   3.250  14.493
 8149SOL     OW26343  14.221   6.592   5.223
 8149SOL    HW126344  14.191   6.617   5.310
 8149SOL    HW226345  14.257   6.672   5.186
 8150SOL     OW26346   5.676  13.829   8.970
 8150SOL    HW126347   5.670  13.790   9.057
 8150SOL    HW226348   5.715  13.915   8.985
 8151SOL     OW26349  11.688   8.398   8.546
 8151SOL    HW126350  11.751   8.346   8.495
 8151SOL    HW226351  11.611   8.342   8.553
 8152SOL     OW26352   4.062   4.508   7.772
 8152SOL    HW126353   4.064   4.458   7.690
 8152SOL    HW226354   4.110   4.588   7.753
 8153SOL     OW26355   1.390   3.748   1.431
 8153SOL    HW126356   1.301   3.761   1.397
 8153SOL    HW226357   1.414   3.834   1.467
 8154SOL     OW26358   4.496   6.178   7.530
 8154SOL    HW126359   4.432   6.157   7.598
 8154SOL    HW226360   4.445   6.182   7.449
 8155SOL     OW26361  10.909  12.686  12.826
 8155SOL    HW126362  10.962  12.698  12.748
 8155SOL    HW226363  10.950  12.613  12.872
 8156SOL     OW26364  12.488   2.586   2.753
 8156SOL    HW126365  12.455   2.647   2.687
 8156SOL    HW226366  12.413   2.529   2.771
 8157SOL     OW26367  14.580   3.447   2.818
 8157SOL    HW126368  14.634   3.416   2.746
 8157SOL    HW226369  14.557   3.368   2.867
 8158SOL     OW26370   0.841   9.650   5.939
 8158SOL    HW126371   0.779   9.633   6.010
 8158SOL    HW226372   0.908   9.582   5.950
 8159SOL     OW26373  12.188   4.745  14.368
 8159SOL    HW126374  12.136   4.723  14.291
 8159SOL    HW226375  12.155   4.687  14.437
 8160SOL     OW26376  14.378  11.247   7.463
 8160SOL    HW126377  14.308  11.182   7.457
 8160SOL    HW226378  14.454  11.205   7.424
 8161SOL     OW26379   2.795  11.206   3.746
 8161SOL    HW126380   2.722  11.260   3.776
 8161SOL    HW226381   2.812  11.237   3.656
 8162SOL     OW26382  14.660   6.105   1.421
 8162SOL    HW126383  14.611   6.070   1.347
 8162SOL    HW226384  14.647   6.200   1.416
 8163SOL     OW26385   2.384  12.686   3.722
 8163SOL    HW126386   2.433  12.610   3.755
 8163SOL    HW226387   2.326  12.710   3.795
 8164SOL     OW26388   2.657   7.020   2.111
 8164SOL    HW126389   2.615   6.998   2.194
 8164SOL    HW226390   2.700   7.104   2.128
 8165SOL     OW26391   3.400  11.541  13.033
 8165SOL    HW126392   3.425  11.632  13.050
 8165SOL    HW226393   3.326  11.547  12.973
 8166SOL     OW26394  10.128   3.271  13.283
 8166SOL    HW126395  10.095   3.322  13.209
 8166SOL    HW226396  10.068   3.197  13.290
 8167SOL     OW26397   5.363  14.702   0.233
 8167SOL    HW126398   5.382  14.695   0.140
 8167SOL    HW226399   5.291  14.640   0.247
 8168SOL     OW26400  12.554   8.743   4.514
 8168SOL    HW126401  12.614   8.686   4.468
 8168SOL    HW226402  12.542   8.819   4.456
 8169SOL     OW26403   1.618   2.576  14.067
 8169SOL    HW126404   1.531   2.561  14.031
 8169SOL    HW226405   1.665   2.621  13.997
 8170SOL     OW26406  12.215   7.666   3.393
 8170SOL    HW126407  12.293   7.634   3.348
 8170SOL    HW226408  12.215   7.619   3.476
 8171SOL     OW26409   2.283  10.706   7.326
 8171SOL    HW126410   2.292  10.617   7.361
 8171SOL    HW226411   2.343  10.708   7.251
 8172SOL     OW26412  13.081   7.675   7.220
 8172SOL    HW126413  13.137   7.599   7.206
 8172SOL    HW226414  12.995   7.638   7.241
 8173SOL     OW26415   8.213  13.062   5.876
 8173SOL    HW126416   8.192  13.138   5.930
 8173SOL    HW226417   8.296  13.029   5.911
 8174SOL     OW26418   8.394  11.772  11.803
 8174SOL    HW126419   8.342  11.691  11.797
 8174SOL    HW226420   8.354  11.831  11.739
 8175SOL     OW26421  12.613   2.106  10.638
 8175SOL    HW126422  12.691   2.125  10.586
 8175SOL    HW226423  12.577   2.192  10.659
 8176SOL     OW26424   7.058   1.508   2.221
 8176SOL    HW126425   6.963   1.521   2.213
 8176SOL    HW226426   7.091   1.520   2.132
 8177SOL     OW26427   1.661   0.337  11.571
 8177SOL    HW126428   1.646   0.243  11.562
 8177SOL    HW226429   1.615   0.361  11.652
 8178SOL     OW26430   0.269  12.768  13.712
 8178SOL    HW126431   0.259  12.701  13.644
 8178SOL    HW226432   0.362  12.770  13.731
 8179SOL     OW26433  12.001   1.529   6.931
 8179SOL    HW126434  12.006   1.437   6.906
 8179SOL    HW226435  11.960   1.529   7.017
 8180SOL     OW26436  14.187   4.644  10.549
 8180SOL    HW126437  14.186   4.554  10.517
 8180SOL    HW226438  14.260   4.686  10.504
 8181SOL     OW26439   1.509  12.864   8.643
 8181SOL    HW126440   1.492  12.949   8.683
 8181SOL    HW226441   1.594  12.838   8.677
 8182SOL     OW26442  12.718   4.091  13.452
 8182SOL    HW126443  12.672   4.166  13.414
 8182SOL    HW226444  12.748   4.122  13.537
 8183SOL     OW26445   9.404   5.420   4.540
 8183SOL    HW126446   9.415   5.513   4.563
 8183SOL    HW226447   9.381   5.422   4.447
 8184SOL     OW26448   7.394   6.109   8.343
 8184SOL    HW126449   7.458   6.101   8.414
 8184SOL    HW226450   7.388   6.204   8.327
 8185SOL     OW26451   7.693  13.552   3.200
 8185SOL    HW126452   7.598  13.550   3.210
 8185SOL    HW226453   7.712  13.640   3.167
 8186SOL     OW26454   9.498   7.011   1.568
 8186SOL    HW126455   9.540   7.092   1.542
 8186SOL    HW226456   9.465   7.029   1.656
 8187SOL     OW26457  14.690   2.961   3.609
 8187SOL    HW126458  14.705   3.053   3.631
 8187SOL    HW226459  14.734   2.912   3.679
 8188SOL     OW26460   8.711  11.017  12.426
 8188SOL    HW126461   8.620  11.027  12.455
 8188SOL    HW226462   8.731  11.099  12.382
 8189SOL     OW26463   2.264   2.004  10.102
 8189SOL    HW126464   2.192   2.049  10.145
 8189SOL    HW226465   2.342   2.030  10.151
 8190SOL     OW26466  10.689  13.238   9.393
 8190SOL    HW126467  10.596  13.221   9.381
 8190SOL    HW226468  10.693  13.320   9.441
 8191SOL     OW26469  12.571  13.984   1.779
 8191SOL    HW126470  12.539  13.986   1.869
 8191SOL    HW226471  12.522  14.053   1.734
 8192SOL     OW26472   9.393   4.806   3.245
 8192SOL    HW126473   9.370   4.773   3.332
 8192SOL    HW226474   9.343   4.750   3.185
 8193SOL     OW26475  14.231  13.188   3.744
 8193SOL    HW126476  14.245  13.096   3.765
 8193SOL    HW226477  14.186  13.225   3.820
 8194SOL     OW26478   7.605   3.474  11.993
 8194SOL    HW126479   7.698   3.466  12.016
 8194SOL    HW226480   7.563   3.505  12.074
 8195SOL     OW26481   0.601   2.910   1.971
 8195SOL    HW126482   0.531   2.924   2.035
 8195SOL    HW226483   0.655   2.989   1.976
 8196SOL     OW26484   9.302  10.653  13.042
 8196SOL    HW126485   9.324  10.610  13.125
 8196SOL    HW226486   9.285  10.580  12.981
 8197SOL     OW26487  12.064   9.019   7.158
 8197SOL    HW126488  12.125   8.975   7.218
 8197SOL    HW226489  12.027   9.090   7.210
 8198SOL     OW26490   8.482  13.717  11.835
 8198SOL    HW126491   8.512  13.627  11.835
 8198SOL    HW226492   8.562  13.770  11.836
 8199SOL     OW26493   2.474  14.689   4.234
 8199SOL    HW126494   2.508  14.644   4.156
 8199SOL    HW226495   2.406  14.747   4.199
 8200SOL     OW26496   1.062   0.826  13.470
 8200SOL    HW126497   1.099   0.873  13.545
 8200SOL    HW226498   0.969   0.847  13.472
 8201SOL     OW26499   9.971   0.483  12.449
 8201SOL    HW126500  10.015   0.515  12.528
 8201SOL    HW226501   9.958   0.562  12.396
 8202SOL     OW26502  13.405   6.703   6.235
 8202SOL    HW126503  13.406   6.798   6.223
 8202SOL    HW226504  13.365   6.669   6.155
 8203SOL     OW26505   7.629   6.322   5.607
 8203SOL    HW126506   7.623   6.342   5.701
 8203SOL    HW226507   7.639   6.227   5.603
 8204SOL     OW26508   3.829  11.277  12.067
 8204SOL    HW126509   3.771  11.324  12.127
 8204SOL    HW226510   3.857  11.199  12.116
 8205SOL     OW26511  11.780   9.552  12.303
 8205SOL    HW126512  11.825   9.486  12.250
 8205SOL    HW226513  11.710   9.503  12.348
 8206SOL     OW26514   2.020   9.316   1.723
 8206SOL    HW126515   1.937   9.360   1.706
 8206SOL    HW226516   1.995   9.227   1.748
 8207SOL     OW26517   1.872  13.586  10.027
 8207SOL    HW126518   1.934  13.630  10.085
 8207SOL    HW226519   1.881  13.493  10.050
 8208SOL     OW26520   9.815  13.089  14.820
 8208SOL    HW126521   9.765  13.076  14.739
 8208SOL    HW226522   9.883  13.152  14.795
 8209SOL     OW26523   1.248  12.175   4.039
 8209SOL    HW126524   1.271  12.155   4.130
 8209SOL    HW226525   1.304  12.119   3.986
 8210SOL     OW26526   5.344   6.052   7.417
 8210SOL    HW126527   5.375   6.127   7.469
 8210SOL    HW226528   5.255   6.037   7.448
 8211SOL     OW26529  11.069  12.715  12.608
 8211SOL    HW126530  11.163  12.701  12.606
 8211SOL    HW226531  11.059  12.810  12.605
 8212SOL     OW26532   7.328   9.258   2.798
 8212SOL    HW126533   7.319   9.270   2.893
 8212SOL    HW226534   7.367   9.171   2.789
 8213SOL     OW26535  13.688   6.801  10.254
 8213SOL    HW126536  13.655   6.750  10.328
 8213SOL    HW226537  13.768   6.756  10.227
 8214SOL     OW26538   2.347   3.377  11.026
 8214SOL    HW126539   2.314   3.339  11.107
 8214SOL    HW226540   2.280   3.441  11.001
 8215SOL     OW26541  10.225   7.614  14.518
 8215SOL    HW126542  10.188   7.552  14.581
 8215SOL    HW226543  10.176   7.695  14.532
 8216SOL     OW26544   6.431  12.915  10.964
 8216SOL    HW126545   6.419  12.824  10.939
 8216SOL    HW226546   6.345  12.955  10.951
 8217SOL     OW26547  11.853   5.948  10.702
 8217SOL    HW126548  11.857   6.043  10.699
 8217SOL    HW226549  11.935   5.919  10.662
 8218SOL     OW26550  10.971   9.091  10.776
 8218SOL    HW126551  10.935   9.003  10.785
 8218SOL    HW226552  10.922   9.144  10.839
 8219SOL     OW26553   6.095   4.415  14.805
 8219SOL    HW126554   6.134   4.500  14.823
 8219SOL    HW226555   6.007   4.435  14.773
 8220SOL     OW26556   4.853  14.691  10.256
 8220SOL    HW126557   4.907  14.756  10.210
 8220SOL    HW226558   4.801  14.650  10.186
 8221SOL     OW26559   1.709   5.494  14.831
 8221SOL    HW126560   1.785   5.540  14.867
 8221SOL    HW226561   1.734   5.402  14.834
 8222SOL     OW26562  12.785   9.963   0.750
 8222SOL    HW126563  12.855   9.898   0.745
 8222SOL    HW226564  12.744   9.961   0.663
 8223SOL     OW26565   3.743  13.984   4.967
 8223SOL    HW126566   3.654  13.974   4.931
 8223SOL    HW226567   3.760  14.078   4.964
 8224SOL     OW26568  13.138   6.300   2.246
 8224SOL    HW126569  13.171   6.293   2.156
 8224SOL    HW226570  13.216   6.287   2.301
 8225SOL     OW26571   9.432  12.835   7.597
 8225SOL    HW126572   9.429  12.929   7.577
 8225SOL    HW226573   9.515  12.805   7.560
 8226SOL     OW26574  14.293  11.340   5.674
 8226SOL    HW126575  14.236  11.264   5.666
 8226SOL    HW226576  14.235  11.411   5.703
 8227SOL     OW26577   7.614   0.545  10.100
 8227SOL    HW126578   7.550   0.489  10.056
 8227SOL    HW226579   7.684   0.556  10.036
 8228SOL     OW26580   0.066  10.717  10.259
 8228SOL    HW126581   0.142  10.765  10.224
 8228SOL    HW226582   0.006  10.710  10.184
 8229SOL     OW26583  13.983   8.156  13.583
 8229SOL    HW126584  13.931   8.160  13.502
 8229SOL    HW226585  14.011   8.064  13.589
 8230SOL     OW26586  13.339   2.901   6.173
 8230SOL    HW126587  13.292   2.863   6.099
 8230SOL    HW226588  13.301   2.858   6.250
 8231SOL     OW26589   8.234   0.735   6.619
 8231SOL    HW126590   8.286   0.760   6.695
 8231SOL    HW226591   8.203   0.646   6.639
 8232SOL     OW26592   6.204   0.283   1.232
 8232SOL    HW126593   6.200   0.368   1.274
 8232SOL    HW226594   6.226   0.301   1.140
 8233SOL     OW26595  12.844  14.320   1.743
 8233SOL    HW126596  12.823  14.272   1.663
 8233SOL    HW226597  12.933  14.353   1.729
 8234SOL     OW26598   9.813   9.433  13.263
 8234SOL    HW126599   9.877   9.363  13.255
 8234SOL    HW226600   9.760   9.427  13.184
 8235SOL     OW26601   9.144   9.245   3.159
 8235SOL    HW126602   9.117   9.160   3.126
 8235SOL    HW226603   9.113   9.246   3.250
 8236SOL     OW26604   8.808   5.676   0.617
 8236SOL    HW126605   8.767   5.722   0.690
 8236SOL    HW226606   8.766   5.589   0.618
 8237SOL     OW26607  11.199  13.092   3.553
 8237SOL    HW126608  11.187  13.002   3.582
 8237SOL    HW226609  11.224  13.085   3.461
 8238SOL     OW26610   5.316   5.675   6.307
 8238SOL    HW126611   5.403   5.657   6.342
 8238SOL    HW226612   5.296   5.764   6.336
 8239SOL     OW26613   3.250   2.517   3.354
 8239SOL    HW126614   3.282   2.458   3.422
 8239SOL    HW226615   3.321   2.521   3.289
 8240SOL     OW26616  10.832   5.156   8.525
 8240SOL    HW126617  10.857   5.169   8.616
 8240SOL    HW226618  10.802   5.065   8.522
 8241SOL     OW26619   3.863   6.397   8.212
 8241SOL    HW126620   3.845   6.303   8.210
 8241SOL    HW226621   3.776   6.437   8.219
 8242SOL     OW26622  10.203  14.342   4.373
 8242SOL    HW126623  10.283  14.380   4.336
 8242SOL    HW226624  10.143  14.416   4.380
 8243SOL     OW26625  11.221   7.328  12.180
 8243SOL    HW126626  11.149   7.339  12.119
 8243SOL    HW226627  11.298   7.362  12.133
 8244SOL     OW26628  11.333  12.784   6.934
 8244SOL    HW126629  11.320  12.874   6.964
 8244SOL    HW226630  11.359  12.792   6.842
 8245SOL     OW26631  11.793  13.190   5.647
 8245SOL    HW126632  11.840  13.201   5.730
 8245SOL    HW226633  11.755  13.102   5.653
 8246SOL     OW26634   3.308  13.950  10.972
 8246SOL    HW126635   3.398  13.919  10.975
 8246SOL    HW226636   3.271  13.912  10.892
 8247SOL     OW26637   7.506   2.921  14.209
 8247SOL    HW126638   7.522   2.979  14.283
 8247SOL    HW226639   7.554   2.841  14.231
 8248SOL     OW26640  13.035  13.772   9.972
 8248SOL    HW126641  12.982  13.732  10.042
 8248SOL    HW226642  12.970  13.814   9.915
 8249SOL     OW26643  14.799  11.236  10.851
 8249SOL    HW126644  14.728  11.184  10.814
 8249SOL    HW226645  14.771  11.327  10.838
 8250SOL     OW26646   7.722  12.419   9.630
 8250SOL    HW126647   7.695  12.364   9.703
 8250SOL    HW226648   7.780  12.363   9.578
 8251SOL     OW26649   4.428   7.614   6.239
 8251SOL    HW126650   4.514   7.655   6.239
 8251SOL    HW226651   4.389   7.639   6.155
 8252SOL     OW26652  11.850  14.857   9.042
 8252SOL    HW126653  11.937   0.002   9.003
 8252SOL    HW226654  11.833   0.066   9.093
 8253SOL     OW26655  13.361   1.824  14.359
 8253SOL    HW126656  13.389   1.737  14.388
 8253SOL    HW226657  13.268   1.827  14.382
 8254SOL     OW26658   3.189  10.435   3.208
 8254SOL    HW126659   3.142  10.419   3.289
 8254SOL    HW226660   3.265  10.488   3.234
 8255SOL     OW26661   7.240   1.422   7.009
 8255SOL    HW126662   7.272   1.402   7.097
 8255SOL    HW226663   7.306   1.481   6.973
 8256SOL     OW26664   2.321   2.013   4.713
 8256SOL    HW126665   2.367   2.051   4.787
 8256SOL    HW226666   2.228   2.019   4.736
 8257SOL     OW26667   7.316  11.172  11.664
 8257SOL    HW126668   7.289  11.166  11.756
 8257SOL    HW226669   7.388  11.234  11.663
 8258SOL     OW26670  12.265   8.404   6.085
 8258SOL    HW126671  12.190   8.358   6.123
 8258SOL    HW226672  12.289   8.469   6.150
 8259SOL     OW26673   4.831   0.093   5.981
 8259SOL    HW126674   4.902   0.141   5.939
 8259SOL    HW226675   4.821   0.014   5.929
 8260SOL     OW26676   4.029  14.303  13.158
 8260SOL    HW126677   3.976  14.226  13.138
 8260SOL    HW226678   4.084  14.316  13.081
 8261SOL     OW26679   2.003   7.946   9.912
 8261SOL    HW126680   1.950   7.901   9.978
 8261SOL    HW226681   2.091   7.949   9.951
 8262SOL     OW26682   7.191   0.107   2.274
 8262SOL    HW126683   7.253   0.079   2.206
 8262SOL    HW226684   7.146   0.027   2.299
 8263SOL     OW26685   9.355  13.488  13.737
 8263SOL    HW126686   9.436  13.469  13.691
 8263SOL    HW226687   9.291  13.506  13.668
 8264SOL     OW26688  10.134   0.915  10.752
 8264SOL    HW126689  10.180   0.910  10.835
 8264SOL    HW226690  10.102   0.826  10.736
 8265SOL     OW26691  13.957   8.634  13.022
 8265SOL    HW126692  14.010   8.571  13.072
 8265SOL    HW226693  13.909   8.682  13.088
 8266SOL     OW26694   5.187   3.677   2.401
 8266SOL    HW126695   5.177   3.647   2.491
 8266SOL    HW226696   5.099   3.676   2.365
 8267SOL     OW26697   3.430  13.318   8.321
 8267SOL    HW126698   3.344  13.279   8.331
 8267SOL    HW226699   3.413  13.407   8.291
 8268SOL     OW26700  12.402  13.252  10.793
 8268SOL    HW126701  12.483  13.245  10.742
 8268SOL    HW226702  12.389  13.346  10.805
 8269SOL     OW26703   7.226  10.409   9.318
 8269SOL    HW126704   7.312  10.373   9.338
 8269SOL    HW226705   7.239  10.504   9.319
 8270SOL     OW26706   7.222   7.687  12.030
 8270SOL    HW126707   7.178   7.755  12.082
 8270SOL    HW226708   7.313   7.690  12.059
 8271SOL     OW26709   0.081   3.824  12.565
 8271SOL    HW126710   0.108   3.749  12.513
 8271SOL    HW226711   0.149   3.890  12.548
 8272SOL     OW26712   7.413   9.929  14.146
 8272SOL    HW126713   7.472   9.854  14.139
 8272SOL    HW226714   7.384   9.928  14.237
 8273SOL     OW26715  11.886   2.376  11.105
 8273SOL    HW126716  11.963   2.421  11.072
 8273SOL    HW226717  11.864   2.313  11.036
 8274SOL     OW26718   0.224  10.251   4.699
 8274SOL    HW126719   0.256  10.279   4.613
 8274SOL    HW226720   0.274  10.172   4.718
 8275SOL     OW26721   0.668   7.998   2.899
 8275SOL    HW126722   0.577   8.023   2.912
 8275SOL    HW226723   0.665   7.922   2.842
 8276SOL     OW26724  13.549  11.400   4.950
 8276SOL    HW126725  13.503  11.431   5.028
 8276SOL    HW226726  13.495  11.327   4.918
 8277SOL     OW26727   0.938   8.398   5.372
 8277SOL    HW126728   0.932   8.474   5.315
 8277SOL    HW226729   0.872   8.413   5.440
 8278SOL     OW26730   8.363   2.609   4.317
 8278SOL    HW126731   8.295   2.607   4.385
 8278SOL    HW226732   8.314   2.603   4.235
 8279SOL     OW26733   8.332   8.223  13.872
 8279SOL    HW126734   8.350   8.131  13.892
 8279SOL    HW226735   8.237   8.227  13.863
 8280SOL     OW26736   2.798  13.429   4.161
 8280SOL    HW126737   2.870  13.445   4.100
 8280SOL    HW226738   2.720  13.425   4.106
 8281SOL     OW26739  12.007   9.649  12.508
 8281SOL    HW126740  11.976   9.661  12.419
 8281SOL    HW226741  11.940   9.692  12.562
 8282SOL     OW26742   4.993   9.861   3.948
 8282SOL    HW126743   5.053   9.889   3.878
 8282SOL    HW226744   5.051   9.836   4.020
 8283SOL     OW26745   0.533   3.502  11.272
 8283SOL    HW126746   0.442   3.481  11.251
 8283SOL    HW226747   0.557   3.441  11.342
 8284SOL     OW26748  11.585   9.294   0.302
 8284SOL    HW126749  11.611   9.266   0.215
 8284SOL    HW226750  11.635   9.238   0.361
 8285SOL     OW26751  12.237   7.402   0.175
 8285SOL    HW126752  12.187   7.410   0.257
 8285SOL    HW226753  12.276   7.315   0.179
 8286SOL     OW26754   2.690  10.162   0.192
 8286SOL    HW126755   2.626  10.093   0.178
 8286SOL    HW226756   2.770  10.128   0.152
 8287SOL     OW26757  13.051   8.088   0.973
 8287SOL    HW126758  13.086   8.177   0.976
 8287SOL    HW226759  13.074   8.050   1.058
 8288SOL     OW26760  10.093   1.675   4.148
 8288SOL    HW126761  10.099   1.697   4.055
 8288SOL    HW226762  10.028   1.605   4.153
 8289SOL     OW26763  12.020   6.889   7.940
 8289SOL    HW126764  11.964   6.936   8.002
 8289SOL    HW226765  11.967   6.815   7.910
 8290SOL     OW26766  13.016   9.769  11.021
 8290SOL    HW126767  13.105   9.742  11.000
 8290SOL    HW226768  12.964   9.743  10.945
 8291SOL     OW26769  12.732   6.659   9.731
 8291SOL    HW126770  12.661   6.665   9.667
 8291SOL    HW226771  12.768   6.748   9.736
 8292SOL     OW26772   1.803   4.673   0.175
 8292SOL    HW126773   1.779   4.756   0.217
 8292SOL    HW226774   1.875   4.639   0.227
 8293SOL     OW26775  10.806   1.560   2.344
 8293SOL    HW126776  10.813   1.465   2.345
 8293SOL    HW226777  10.866   1.588   2.274
 8294SOL     OW26778   7.029  14.037  13.671
 8294SOL    HW126779   7.021  14.016  13.764
 8294SOL    HW226780   6.944  14.012  13.634
 8295SOL     OW26781   3.205  13.590   6.624
 8295SOL    HW126782   3.235  13.647   6.695
 8295SOL    HW226783   3.247  13.506   6.641
 8296SOL     OW26784  11.392  13.511   5.534
 8296SOL    HW126785  11.455  13.451   5.574
 8296SOL    HW226786  11.321  13.455   5.502
 8297SOL     OW26787   0.333   8.414  10.948
 8297SOL    HW126788   0.377   8.335  10.916
 8297SOL    HW226789   0.367   8.485  10.892
 8298SOL     OW26790  10.014  12.908   8.355
 8298SOL    HW126791  10.063  12.883   8.433
 8298SOL    HW226792  10.053  12.991   8.328
 8299SOL     OW26793   0.765   4.478   1.505
 8299SOL    HW126794   0.718   4.537   1.445
 8299SOL    HW226795   0.741   4.508   1.592
 8300SOL     OW26796   7.256  12.924  12.486
 8300SOL    HW126797   7.164  12.943  12.474
 8300SOL    HW226798   7.274  12.947  12.577
 8301SOL     OW26799  12.482  10.307   0.062
 8301SOL    HW126800  12.479  10.333  14.839
 8301SOL    HW226801  12.488  10.390   0.110
 8302SOL     OW26802  14.503  14.409  10.774
 8302SOL    HW126803  14.449  14.438  10.700
 8302SOL    HW226804  14.458  14.443  10.851
 8303SOL     OW26805   6.627  11.256   6.722
 8303SOL    HW126806   6.678  11.258   6.803
 8303SOL    HW226807   6.683  11.298   6.657
 8304SOL     OW26808   3.172   1.532   9.429
 8304SOL    HW126809   3.218   1.616   9.426
 8304SOL    HW226810   3.141   1.519   9.340
 8305SOL     OW26811   1.713   2.207   8.773
 8305SOL    HW126812   1.751   2.121   8.756
 8305SOL    HW226813   1.720   2.253   8.689
 8306SOL     OW26814   4.773  11.970   8.433
 8306SOL    HW126815   4.863  11.995   8.455
 8306SOL    HW226816   4.741  12.042   8.378
 8307SOL     OW26817   6.048   2.627  14.476
 8307SOL    HW126818   6.139   2.622  14.506
 8307SOL    HW226819   6.038   2.715  14.442
 8308SOL     OW26820   0.427   4.385  11.053
 8308SOL    HW126821   0.416   4.457  11.115
 8308SOL    HW226822   0.503   4.337  11.086
 8309SOL     OW26823   0.483   1.849  13.282
 8309SOL    HW126824   0.518   1.763  13.305
 8309SOL    HW226825   0.417   1.830  13.215
 8310SOL     OW26826  12.528  10.466  12.392
 8310SOL    HW126827  12.571  10.533  12.445
 8310SOL    HW226828  12.508  10.509  12.309
 8311SOL     OW26829   6.482   9.506  10.466
 8311SOL    HW126830   6.544   9.553  10.410
 8311SOL    HW226831   6.537   9.446  10.517
 8312SOL     OW26832   6.540  11.743  10.498
 8312SOL    HW126833   6.478  11.689  10.548
 8312SOL    HW226834   6.502  11.750  10.411
 8313SOL     OW26835   3.232   9.504   2.043
 8313SOL    HW126836   3.235   9.526   2.136
 8313SOL    HW226837   3.322   9.477   2.022
 8314SOL     OW26838   7.292   0.391   9.356
 8314SOL    HW126839   7.282   0.331   9.282
 8314SOL    HW226840   7.322   0.473   9.317
 8315SOL     OW26841   7.076  12.581   8.872
 8315SOL    HW126842   7.113  12.571   8.784
 8315SOL    HW226843   7.057  12.675   8.879
 8316SOL     OW26844  14.062  10.937  13.160
 8316SOL    HW126845  14.141  10.962  13.208
 8316SOL    HW226846  14.009  10.890  13.224
 8317SOL     OW26847   5.976   7.160   2.204
 8317SOL    HW126848   6.036   7.088   2.182
 8317SOL    HW226849   5.898   7.142   2.152
 8318SOL     OW26850  11.513   5.661   8.761
 8318SOL    HW126851  11.521   5.595   8.830
 8318SOL    HW226852  11.531   5.614   8.680
 8319SOL     OW26853  11.558  12.486   6.241
 8319SOL    HW126854  11.539  12.428   6.167
 8319SOL    HW226855  11.542  12.432   6.318
 8320SOL     OW26856   0.828   9.575  10.655
 8320SOL    HW126857   0.762   9.607  10.593
 8320SOL    HW226858   0.885   9.650  10.670
 8321SOL     OW26859   2.638   8.109   0.994
 8321SOL    HW126860   2.586   8.178   1.037
 8321SOL    HW226861   2.682   8.064   1.066
 8322SOL     OW26862  12.826  10.754  12.139
 8322SOL    HW126863  12.780  10.709  12.067
 8322SOL    HW226864  12.856  10.836  12.100
 8323SOL     OW26865   0.576   4.754   8.497
 8323SOL    HW126866   0.551   4.801   8.576
 8323SOL    HW226867   0.646   4.806   8.458
 8324SOL     OW26868   2.913   6.863  11.506
 8324SOL    HW126869   2.954   6.948  11.489
 8324SOL    HW226870   2.957   6.803  11.445
 8325SOL     OW26871  14.434   1.684   3.484
 8325SOL    HW126872  14.380   1.696   3.562
 8325SOL    HW226873  14.448   1.773   3.451
 8326SOL     OW26874  13.475   9.896  11.698
 8326SOL    HW126875  13.452   9.850  11.617
 8326SOL    HW226876  13.406   9.962  11.707
 8327SOL     OW26877  11.966  10.152  13.061
 8327SOL    HW126878  11.891  10.199  13.098
 8327SOL    HW226879  11.997  10.207  12.989
 8328SOL     OW26880   4.036   2.164  13.867
 8328SOL    HW126881   4.101   2.235  13.867
 8328SOL    HW226882   3.971   2.192  13.931
 8329SOL     OW26883   1.699   7.538   9.336
 8329SOL    HW126884   1.715   7.448   9.363
 8329SOL    HW226885   1.747   7.592   9.400
 8330SOL     OW26886  11.543   2.360  11.821
 8330SOL    HW126887  11.468   2.373  11.762
 8330SOL    HW226888  11.608   2.315  11.768
 8331SOL     OW26889  10.541   7.176   2.796
 8331SOL    HW126890  10.492   7.149   2.874
 8331SOL    HW226891  10.547   7.096   2.743
 8332SOL     OW26892   6.549  10.652  12.120
 8332SOL    HW126893   6.592  10.594  12.058
 8332SOL    HW226894   6.600  10.733  12.117
 8333SOL     OW26895  13.412   7.709   0.045
 8333SOL    HW126896  13.500   7.672   0.051
 8333SOL    HW226897  13.393   7.739   0.134
 8334SOL     OW26898   5.378  13.870   9.214
 8334SOL    HW126899   5.295  13.822   9.209
 8334SOL    HW226900   5.363  13.949   9.162
 8335SOL     OW26901   9.284   3.429   8.086
 8335SOL    HW126902   9.234   3.483   8.023
 8335SOL    HW226903   9.314   3.492   8.151
 8336SOL     OW26904  13.469  13.797  11.858
 8336SOL    HW126905  13.519  13.856  11.803
 8336SOL    HW226906  13.381  13.798  11.821
 8337SOL     OW26907   9.501  10.903  11.257
 8337SOL    HW126908   9.530  10.842  11.325
 8337SOL    HW226909   9.445  10.851  11.200
 8338SOL     OW26910  12.235   7.713   4.688
 8338SOL    HW126911  12.260   7.805   4.703
 8338SOL    HW226912  12.196   7.686   4.771
 8339SOL     OW26913   3.277  13.908  10.259
 8339SOL    HW126914   3.355  13.909  10.203
 8339SOL    HW226915   3.301  13.850  10.331
 8340SOL     OW26916  14.333   6.565  12.787
 8340SOL    HW126917  14.356   6.499  12.723
 8340SOL    HW226918  14.256   6.530  12.832
 8341SOL     OW26919   1.911  13.731   0.502
 8341SOL    HW126920   1.986  13.743   0.444
 8341SOL    HW226921   1.837  13.768   0.454
 8342SOL     OW26922   5.256   4.949  11.004
 8342SOL    HW126923   5.323   4.905  11.057
 8342SOL    HW226924   5.183   4.887  11.003
 8343SOL     OW26925   9.540   1.710   6.757
 8343SOL    HW126926   9.611   1.714   6.822
 8343SOL    HW226927   9.521   1.801   6.736
 8344SOL     OW26928   6.267  10.676  11.128
 8344SOL    HW126929   6.243  10.740  11.195
 8344SOL    HW226930   6.325  10.724  11.069
 8345SOL     OW26931   4.230   5.835   9.138
 8345SOL    HW126932   4.206   5.802   9.051
 8345SOL    HW226933   4.151   5.821   9.191
 8346SOL     OW26934   9.279  11.413  11.339
 8346SOL    HW126935   9.297  11.490  11.284
 8346SOL    HW226936   9.343  11.348  11.309
 8347SOL     OW26937   7.204   8.194   0.364
 8347SOL    HW126938   7.256   8.259   0.411
 8347SOL    HW226939   7.244   8.111   0.386
 8348SOL     OW26940   8.423  11.031  13.655
 8348SOL    HW126941   8.469  11.018  13.738
 8348SOL    HW226942   8.493  11.034  13.589
 8349SOL     OW26943  12.015   1.917   2.659
 8349SOL    HW126944  11.948   1.867   2.706
 8349SOL    HW226945  12.098   1.885   2.694
 8350SOL     OW26946  12.491   5.177   6.866
 8350SOL    HW126947  12.484   5.103   6.926
 8350SOL    HW226948  12.568   5.157   6.812
 8351SOL     OW26949   1.254  12.229  14.304
 8351SOL    HW126950   1.273  12.258  14.394
 8351SOL    HW226951   1.173  12.179  14.311
 8352SOL     OW26952  14.202   1.503   4.689
 8352SOL    HW126953  14.293   1.477   4.704
 8352SOL    HW226954  14.209   1.585   4.641
 8353SOL     OW26955   2.020   6.616   0.981
 8353SOL    HW126956   2.079   6.568   1.038
 8353SOL    HW226957   2.077   6.661   0.918
 8354SOL     OW26958   3.370   1.431   1.141
 8354SOL    HW126959   3.379   1.449   1.235
 8354SOL    HW226960   3.317   1.504   1.108
 8355SOL     OW26961   4.744   4.650   0.838
 8355SOL    HW126962   4.736   4.720   0.903
 8355SOL    HW226963   4.764   4.695   0.756
 8356SOL     OW26964  10.563   5.927  10.169
 8356SOL    HW126965  10.469   5.927  10.150
 8356SOL    HW226966  10.597   5.853  10.119
 8357SOL     OW26967   3.016   7.759   7.352
 8357SOL    HW126968   2.930   7.718   7.350
 8357SOL    HW226969   3.016   7.818   7.276
 8358SOL     OW26970   6.757   3.413   4.742
 8358SOL    HW126971   6.703   3.470   4.797
 8358SOL    HW226972   6.802   3.355   4.804
 8359SOL     OW26973   4.451  12.104  10.500
 8359SOL    HW126974   4.396  12.037  10.459
 8359SOL    HW226975   4.517  12.055  10.548
 8360SOL     OW26976  11.492   8.299   0.636
 8360SOL    HW126977  11.443   8.313   0.555
 8360SOL    HW226978  11.566   8.245   0.610
 8361SOL     OW26979   4.698  13.640  13.575
 8361SOL    HW126980   4.616  13.639  13.625
 8361SOL    HW226981   4.724  13.732  13.573
 8362SOL     OW26982   2.022  13.068  10.152
 8362SOL    HW126983   2.096  13.113  10.193
 8362SOL    HW226984   1.957  13.058  10.222
 8363SOL     OW26985  10.817  13.184   3.700
 8363SOL    HW126986  10.792  13.276   3.714
 8363SOL    HW226987  10.802  13.169   3.607
 8364SOL     OW26988   2.334   4.390   5.445
 8364SOL    HW126989   2.284   4.314   5.416
 8364SOL    HW226990   2.269   4.449   5.483
 8365SOL     OW26991   1.176   6.774   5.881
 8365SOL    HW126992   1.209   6.843   5.823
 8365SOL    HW226993   1.086   6.802   5.901
 8366SOL     OW26994  10.772   8.212  11.339
 8366SOL    HW126995  10.835   8.267  11.291
 8366SOL    HW226996  10.687   8.237  11.304
 8367SOL     OW26997   5.139   4.453   8.864
 8367SOL    HW126998   5.203   4.497   8.808
 8367SOL    HW226999   5.115   4.374   8.816
 8368SOL     OW27000  10.292   8.848  13.892
 8368SOL    HW127001  10.382   8.876  13.907
 8368SOL    HW227002  10.256   8.832  13.979
 8369SOL     OW27003   6.309   9.362   3.870
 8369SOL    HW127004   6.381   9.391   3.926
 8369SOL    HW227005   6.236   9.420   3.892
 8370SOL     OW27006   0.293   5.129  13.367
 8370SOL    HW127007   0.277   5.155  13.276
 8370SOL    HW227008   0.230   5.059  13.384
 8371SOL     OW27009   7.130   5.637   6.651
 8371SOL    HW127010   7.220   5.668   6.644
 8371SOL    HW227011   7.127   5.559   6.596
 8372SOL     OW27012   6.673   4.955  11.771
 8372SOL    HW127013   6.739   4.954  11.840
 8372SOL    HW227014   6.603   4.898  11.804
 8373SOL     OW27015   9.826   3.205  10.053
 8373SOL    HW127016   9.819   3.167  10.141
 8373SOL    HW227017   9.886   3.147  10.006
 8374SOL     OW27018   6.452   3.634   4.587
 8374SOL    HW127019   6.515   3.690   4.632
 8374SOL    HW227020   6.504   3.591   4.519
 8375SOL     OW27021  11.018   8.382  14.647
 8375SOL    HW127022  11.026   8.471  14.681
 8375SOL    HW227023  10.938   8.383  14.595
 8376SOL     OW27024  14.415   4.808   9.888
 8376SOL    HW127025  14.470   4.880   9.918
 8376SOL    HW227026  14.348   4.798   9.955
 8377SOL     OW27027   3.946   9.459  13.506
 8377SOL    HW127028   3.918   9.369  13.486
 8377SOL    HW227029   3.865   9.504  13.530
 8378SOL     OW27030   1.363  10.943   4.747
 8378SOL    HW127031   1.408  10.874   4.697
 8378SOL    HW227032   1.426  11.014   4.752
 8379SOL     OW27033  14.424   6.182   4.312
 8379SOL    HW127034  14.487   6.198   4.242
 8379SOL    HW227035  14.470   6.125   4.374
 8380SOL     OW27036  10.434  11.324  10.628
 8380SOL    HW127037  10.379  11.367  10.562
 8380SOL    HW227038  10.373  11.272  10.680
 8381SOL     OW27039   8.920  11.857   3.131
 8381SOL    HW127040   8.890  11.923   3.194
 8381SOL    HW227041   8.934  11.907   3.050
 8382SOL     OW27042   7.159   6.238  11.102
 8382SOL    HW127043   7.249   6.207  11.108
 8382SOL    HW227044   7.140   6.236  11.008
 8383SOL     OW27045   9.544  14.793   3.550
 8383SOL    HW127046   9.522  14.722   3.611
 8383SOL    HW227047   9.541   0.003   3.604
 8384SOL     OW27048   9.228   3.740   2.688
 8384SOL    HW127049   9.213   3.835   2.686
 8384SOL    HW227050   9.270   3.724   2.772
 8385SOL     OW27051   9.821   3.732   0.063
 8385SOL    HW127052   9.799   3.659   0.122
 8385SOL    HW227053   9.849   3.689  14.851
 8386SOL     OW27054  14.467   5.801  13.750
 8386SOL    HW127055  14.526   5.749  13.695
 8386SOL    HW227056  14.517   5.880  13.771
 8387SOL     OW27057   8.555   1.535   4.368
 8387SOL    HW127058   8.634   1.508   4.415
 8387SOL    HW227059   8.573   1.515   4.276
 8388SOL     OW27060   5.780  13.563  14.853
 8388SOL    HW127061   5.788  13.487  14.796
 8388SOL    HW227062   5.853  13.620  14.828
 8389SOL     OW27063   6.717   2.986   7.449
 8389SOL    HW127064   6.679   3.070   7.475
 8389SOL    HW227065   6.811   3.000   7.454
 8390SOL     OW27066   7.623  10.651  12.556
 8390SOL    HW127067   7.614  10.562  12.589
 8390SOL    HW227068   7.597  10.707  12.629
 8391SOL     OW27069  14.276  12.999   1.737
 8391SOL    HW127070  14.260  13.091   1.760
 8391SOL    HW227071  14.263  12.951   1.819
 8392SOL     OW27072  14.157   6.182  11.113
 8392SOL    HW127073  14.162   6.137  11.198
 8392SOL    HW227074  14.248   6.193  11.087
 8393SOL     OW27075   2.707  14.028  11.409
 8393SOL    HW127076   2.713  13.992  11.321
 8393SOL    HW227077   2.786  14.081  11.419
 8394SOL     OW27078   5.875   7.923   7.092
 8394SOL    HW127079   5.947   7.937   7.031
 8394SOL    HW227080   5.900   7.971   7.171
 8395SOL     OW27081  12.169  12.265  11.625
 8395SOL    HW127082  12.148  12.346  11.578
 8395SOL    HW227083  12.219  12.213  11.561
 8396SOL     OW27084  12.022  10.218   1.135
 8396SOL    HW127085  11.997  10.251   1.049
 8396SOL    HW227086  12.002  10.290   1.195
 8397SOL     OW27087   8.490   8.570  14.183
 8397SOL    HW127088   8.503   8.616  14.266
 8397SOL    HW227089   8.442   8.632  14.128
 8398SOL     OW27090   9.284  13.372   9.135
 8398SOL    HW127091   9.282  13.347   9.043
 8398SOL    HW227092   9.308  13.465   9.134
 8399SOL     OW27093  11.411   6.180   3.684
 8399SOL    HW127094  11.383   6.260   3.727
 8399SOL    HW227095  11.500   6.198   3.654
 8400SOL     OW27096   2.080   5.391   2.706
 8400SOL    HW127097   2.063   5.298   2.724
 8400SOL    HW227098   2.061   5.434   2.790
 8401SOL     OW27099   9.421   4.222   1.250
 8401SOL    HW127100   9.404   4.156   1.318
 8401SOL    HW227101   9.466   4.293   1.296
 8402SOL     OW27102  14.371   2.840   4.623
 8402SOL    HW127103  14.451   2.857   4.672
 8402SOL    HW227104  14.392   2.866   4.533
 8403SOL     OW27105  11.042   2.938  10.231
 8403SOL    HW127106  11.099   2.872  10.269
 8403SOL    HW227107  10.967   2.889  10.197
 8404SOL     OW27108   4.379   9.474   3.105
 8404SOL    HW127109   4.358   9.381   3.093
 8404SOL    HW227110   4.392   9.483   3.199
 8405SOL     OW27111   0.136   5.371   5.732
 8405SOL    HW127112   0.140   5.276   5.737
 8405SOL    HW227113   0.115   5.399   5.822
 8406SOL     OW27114   3.822   4.615   5.284
 8406SOL    HW127115   3.767   4.688   5.255
 8406SOL    HW227116   3.794   4.541   5.230
 8407SOL     OW27117  11.929  14.835   7.089
 8407SOL    HW127118  11.986   0.024   7.140
 8407SOL    HW227119  11.910  14.763   7.149
 8408SOL     OW27120   4.872   0.518   2.593
 8408SOL    HW127121   4.824   0.437   2.575
 8408SOL    HW227122   4.910   0.543   2.509
 8409SOL     OW27123   3.996   6.069  12.234
 8409SOL    HW127124   3.963   6.100  12.318
 8409SOL    HW227125   4.090   6.057  12.247
 8410SOL     OW27126   9.397   6.863   8.111
 8410SOL    HW127127   9.413   6.924   8.039
 8410SOL    HW227128   9.311   6.825   8.093
 8411SOL     OW27129   1.538   1.833  14.758
 8411SOL    HW127130   1.565   1.899  14.694
 8411SOL    HW227131   1.456   1.797  14.722
 8412SOL     OW27132   3.795  13.015   0.102
 8412SOL    HW127133   3.816  13.030   0.194
 8412SOL    HW227134   3.821  12.925   0.085
 8413SOL     OW27135  14.844   9.399   3.443
 8413SOL    HW127136  14.793   9.465   3.395
 8413SOL    HW227137   0.014   9.447   3.515
 8414SOL     OW27138  10.678   0.721   3.135
 8414SOL    HW127139  10.633   0.646   3.096
 8414SOL    HW227140  10.737   0.681   3.200
 8415SOL     OW27141  12.280   0.433  12.889
 8415SOL    HW127142  12.246   0.517  12.858
 8415SOL    HW227143  12.355   0.457  12.944
 8416SOL     OW27144   3.013   8.628   7.432
 8416SOL    HW127145   2.926   8.648   7.396
 8416SOL    HW227146   3.044   8.554   7.381
 8417SOL     OW27147   5.587  11.236   6.581
 8417SOL    HW127148   5.512  11.180   6.603
 8417SOL    HW227149   5.641  11.237   6.660
 8418SOL     OW27150  11.658  14.037   5.769
 8418SOL    HW127151  11.675  14.117   5.718
 8418SOL    HW227152  11.632  14.069   5.855
 8419SOL     OW27153   1.094   8.684   5.872
 8419SOL    HW127154   1.147   8.701   5.950
 8419SOL    HW227155   1.022   8.630   5.902
 8420SOL     OW27156  14.811   0.720  11.624
 8420SOL    HW127157  14.737   0.711  11.565
 8420SOL    HW227158  14.779   0.687  11.708
 8421SOL     OW27159   8.803  13.140   6.380
 8421SOL    HW127160   8.868  13.187   6.327
 8421SOL    HW227161   8.790  13.057   6.333
 8422SOL     OW27162   6.984  10.766   1.780
 8422SOL    HW127163   7.055  10.739   1.838
 8422SOL    HW227164   6.929  10.688   1.770
 8423SOL     OW27165   7.563   4.147  10.456
 8423SOL    HW127166   7.566   4.240  10.436
 8423SOL    HW227167   7.566   4.103  10.371
 8424SOL     OW27168   5.179  13.754   7.717
 8424SOL    HW127169   5.246  13.698   7.756
 8424SOL    HW227170   5.116  13.769   7.788
 8425SOL     OW27171   9.492  10.488   7.358
 8425SOL    HW127172   9.431  10.459   7.289
 8425SOL    HW227173   9.578  10.465   7.323
 8426SOL     OW27174   5.391   7.948   2.600
 8426SOL    HW127175   5.347   7.991   2.527
 8426SOL    HW227176   5.447   7.882   2.558
 8427SOL     OW27177   8.148   6.825   0.203
 8427SOL    HW127178   8.226   6.771   0.217
 8427SOL    HW227179   8.100   6.819   0.285
 8428SOL     OW27180   6.364   8.019  14.203
 8428SOL    HW127181   6.289   7.986  14.154
 8428SOL    HW227182   6.400   8.088  14.148
 8429SOL     OW27183   0.709  12.117  12.430
 8429SOL    HW127184   0.675  12.195  12.474
 8429SOL    HW227185   0.800  12.112  12.458
 8430SOL     OW27186   7.912   3.782   5.817
 8430SOL    HW127187   7.953   3.697   5.838
 8430SOL    HW227188   7.831   3.759   5.772
 8431SOL     OW27189  12.779   5.309   4.334
 8431SOL    HW127190  12.791   5.381   4.272
 8431SOL    HW227191  12.694   5.272   4.310
 8432SOL     OW27192   6.533   4.086  12.127
 8432SOL    HW127193   6.625   4.111  12.120
 8432SOL    HW227194   6.533   4.015  12.192
 8433SOL     OW27195   4.145  13.254   3.948
 8433SOL    HW127196   4.226  13.202   3.950
 8433SOL    HW227197   4.082  13.201   3.997
 8434SOL     OW27198   6.535   2.282   4.409
 8434SOL    HW127199   6.588   2.336   4.467
 8434SOL    HW227200   6.586   2.202   4.396
 8435SOL     OW27201   7.461   5.044   3.000
 8435SOL    HW127202   7.426   5.132   2.984
 8435SOL    HW227203   7.413   4.988   2.939
 8436SOL     OW27204   3.745   3.060  14.255
 8436SOL    HW127205   3.718   2.976  14.217
 8436SOL    HW227206   3.731   3.050  14.349
 8437SOL     OW27207   5.262   6.325   1.177
 8437SOL    HW127208   5.327   6.361   1.238
 8437SOL    HW227209   5.195   6.286   1.233
 8438SOL     OW27210  11.046   2.273  11.144
 8438SOL    HW127211  11.009   2.235  11.223
 8438SOL    HW227212  11.082   2.198  11.096
 8439SOL     OW27213   7.734   1.622   9.120
 8439SOL    HW127214   7.789   1.544   9.130
 8439SOL    HW227215   7.645   1.589   9.126
 8440SOL     OW27216  12.313   0.718   2.324
 8440SOL    HW127217  12.375   0.648   2.344
 8440SOL    HW227218  12.327   0.737   2.232
 8441SOL     OW27219   9.979  12.611   8.397
 8441SOL    HW127220  10.017  12.684   8.446
 8441SOL    HW227221   9.912  12.652   8.342
 8442SOL     OW27222   0.072  10.437   6.896
 8442SOL    HW127223  14.847  10.430   6.905
 8442SOL    HW227224   0.107  10.373   6.958
 8443SOL     OW27225   7.912   0.884  14.549
 8443SOL    HW127226   7.995   0.882  14.501
 8443SOL    HW227227   7.905   0.974  14.581
 8444SOL     OW27228  11.303   1.520   8.773
 8444SOL    HW127229  11.394   1.492   8.763
 8444SOL    HW227230  11.260   1.447   8.817
 8445SOL     OW27231   7.331  11.715  11.427
 8445SOL    HW127232   7.299  11.695  11.339
 8445SOL    HW227233   7.374  11.635  11.455
 8446SOL     OW27234   0.287   0.200   7.565
 8446SOL    HW127235   0.359   0.262   7.579
 8446SOL    HW227236   0.260   0.174   7.653
 8447SOL     OW27237  14.143   3.907   6.220
 8447SOL    HW127238  14.168   3.967   6.150
 8447SOL    HW227239  14.065   3.947   6.259
 8448SOL     OW27240   0.093  14.798   7.000
 8448SOL    HW127241   0.039  14.741   6.946
 8448SOL    HW227242   0.181  14.792   6.961
 8449SOL     OW27243   3.380  11.720   2.380
 8449SOL    HW127244   3.335  11.789   2.427
 8449SOL    HW227245   3.381  11.646   2.441
 8450SOL     OW27246   2.386   6.810  10.684
 8450SOL    HW127247   2.438   6.777  10.757
 8450SOL    HW227248   2.400   6.748  10.613
 8451SOL     OW27249   1.373  10.368  11.873
 8451SOL    HW127250   1.317  10.361  11.950
 8451SOL    HW227251   1.411  10.456  11.880
 8452SOL     OW27252   4.704   4.482  10.614
 8452SOL    HW127253   4.673   4.478  10.524
 8452SOL    HW227254   4.738   4.571  10.624
 8453SOL     OW27255   2.653  13.217   0.670
 8453SOL    HW127256   2.680  13.161   0.598
 8453SOL    HW227257   2.604  13.159   0.728
 8454SOL     OW27258  13.860   2.677   9.521
 8454SOL    HW127259  13.804   2.711   9.451
 8454SOL    HW227260  13.943   2.725   9.510
 8455SOL     OW27261   8.133   8.467   3.797
 8455SOL    HW127262   8.094   8.449   3.882
 8455SOL    HW227263   8.143   8.380   3.757
 8456SOL     OW27264   1.026  10.260   2.027
 8456SOL    HW127265   0.936  10.282   2.005
 8456SOL    HW227266   1.078  10.295   1.954
 8457SOL     OW27267   7.037   7.673   9.637
 8457SOL    HW127268   6.970   7.612   9.605
 8457SOL    HW227269   7.002   7.760   9.616
 8458SOL     OW27270   0.213   6.720   2.861
 8458SOL    HW127271   0.155   6.779   2.910
 8458SOL    HW227272   0.208   6.637   2.908
 8459SOL     OW27273   2.575   2.420  12.428
 8459SOL    HW127274   2.502   2.414  12.366
 8459SOL    HW227275   2.543   2.476  12.498
 8460SOL     OW27276  10.249   5.201   5.450
 8460SOL    HW127277  10.241   5.125   5.509
 8460SOL    HW227278  10.171   5.198   5.396
 8461SOL     OW27279   5.521  14.414   1.114
 8461SOL    HW127280   5.467  14.338   1.134
 8461SOL    HW227281   5.473  14.460   1.045
 8462SOL     OW27282  13.057   2.908  10.457
 8462SOL    HW127283  13.083   2.817  10.444
 8462SOL    HW227284  12.963   2.909  10.440
 8463SOL     OW27285   6.900  12.339   5.086
 8463SOL    HW127286   6.829  12.354   5.149
 8463SOL    HW227287   6.980  12.348   5.138
 8464SOL     OW27288  13.361  13.724   7.811
 8464SOL    HW127289  13.370  13.819   7.805
 8464SOL    HW227290  13.280  13.711   7.862
 8465SOL     OW27291  13.613   6.974   1.203
 8465SOL    HW127292  13.676   6.907   1.230
 8465SOL    HW227293  13.667   7.044   1.165
 8466SOL     OW27294   7.037   2.077   8.801
 8466SOL    HW127295   7.024   1.983   8.809
 8466SOL    HW227296   7.110   2.096   8.860
 8467SOL     OW27297   6.561   5.019   9.387
 8467SOL    HW127298   6.630   5.009   9.453
 8467SOL    HW227299   6.564   4.938   9.336
 8468SOL     OW27300   3.880   4.084  10.803
 8468SOL    HW127301   3.923   4.164  10.835
 8468SOL    HW227302   3.789   4.109  10.791
 8469SOL     OW27303   4.991  10.992   8.060
 8469SOL    HW127304   4.904  11.029   8.075
 8469SOL    HW227305   5.000  10.925   8.128
 8470SOL     OW27306   3.665   8.719  14.655
 8470SOL    HW127307   3.579   8.683  14.674
 8470SOL    HW227308   3.713   8.648  14.612
 8471SOL     OW27309  10.445   5.007  10.069
 8471SOL    HW127310  10.472   4.942  10.134
 8471SOL    HW227311  10.499   4.989   9.992
 8472SOL     OW27312   9.754   6.187   7.775
 8472SOL    HW127313   9.789   6.231   7.852
 8472SOL    HW227314   9.752   6.094   7.799
 8473SOL     OW27315   6.132   0.905   4.925
 8473SOL    HW127316   6.181   0.823   4.933
 8473SOL    HW227317   6.190   0.963   4.875
 8474SOL     OW27318   7.488   4.549  10.606
 8474SOL    HW127319   7.483   4.486  10.534
 8474SOL    HW227320   7.582   4.552  10.628
 8475SOL     OW27321   8.750   1.752  11.979
 8475SOL    HW127322   8.776   1.666  12.011
 8475SOL    HW227323   8.774   1.752  11.886
 8476SOL     OW27324  12.689   4.571   2.851
 8476SOL    HW127325  12.600   4.595   2.879
 8476SOL    HW227326  12.681   4.561   2.756
 8477SOL     OW27327  13.661   6.257  10.783
 8477SOL    HW127328  13.575   6.294  10.802
 8477SOL    HW227329  13.722   6.312  10.833
 8478SOL     OW27330   1.606   7.681   7.156
 8478SOL    HW127331   1.605   7.652   7.065
 8478SOL    HW227332   1.516   7.708   7.174
 8479SOL     OW27333   7.952   8.042   9.027
 8479SOL    HW127334   7.922   7.953   9.012
 8479SOL    HW227335   7.876   8.088   9.062
 8480SOL     OW27336   5.539   3.040   8.199
 8480SOL    HW127337   5.611   3.079   8.250
 8480SOL    HW227338   5.474   3.015   8.265
 8481SOL     OW27339   2.880   5.701   5.011
 8481SOL    HW127340   2.873   5.610   5.041
 8481SOL    HW227341   2.801   5.716   4.959
 8482SOL     OW27342   1.881   2.846  14.509
 8482SOL    HW127343   1.910   2.844  14.417
 8482SOL    HW227344   1.802   2.901  14.508
 8483SOL     OW27345   9.784   9.921   9.549
 8483SOL    HW127346   9.752   9.837   9.516
 8483SOL    HW227347   9.875   9.924   9.520
 8484SOL     OW27348   5.072  11.032   1.777
 8484SOL    HW127349   5.126  11.090   1.831
 8484SOL    HW227350   5.000  11.006   1.834
 8485SOL     OW27351   1.363  11.667   9.297
 8485SOL    HW127352   1.336  11.755   9.322
 8485SOL    HW227353   1.356  11.665   9.202
 8486SOL     OW27354   3.874   9.113   0.238
 8486SOL    HW127355   3.870   9.085   0.330
 8486SOL    HW227356   3.938   9.184   0.239
 8487SOL     OW27357  12.173   9.736   3.453
 8487SOL    HW127358  12.190   9.750   3.360
 8487SOL    HW227359  12.173   9.641   3.464
 8488SOL     OW27360   1.568  13.118   2.203
 8488SOL    HW127361   1.535  13.103   2.292
 8488SOL    HW227362   1.661  13.095   2.207
 8489SOL     OW27363   7.609   0.396   2.288
 8489SOL    HW127364   7.553   0.319   2.299
 8489SOL    HW227365   7.549   0.470   2.298
 8490SOL     OW27366   9.884   8.994   0.793
 8490SOL    HW127367   9.847   8.944   0.721
 8490SOL    HW227368   9.949   9.051   0.751
 8491SOL     OW27369  14.864  12.453   9.097
 8491SOL    HW127370   0.010  12.382   9.158
 8491SOL    HW227371   0.049  12.432   9.021
 8492SOL     OW27372   7.767   4.942   0.912
 8492SOL    HW127373   7.775   5.009   0.979
 8492SOL    HW227374   7.832   4.966   0.846
 8493SOL     OW27375   4.436  10.407   4.983
 8493SOL    HW127376   4.419  10.350   5.058
 8493SOL    HW227377   4.410  10.354   4.907
 8494SOL     OW27378   5.981  13.572  10.118
 8494SOL    HW127379   6.055  13.585  10.059
 8494SOL    HW227380   5.955  13.660  10.144
 8495SOL     OW27381   3.488  14.116   9.103
 8495SOL    HW127382   3.409  14.138   9.053
 8495SOL    HW227383   3.483  14.171   9.181
 8496SOL     OW27384   5.927   3.359   6.825
 8496SOL    HW127385   5.948   3.451   6.810
 8496SOL    HW227386   5.839   3.349   6.789
 8497SOL     OW27387  10.330   5.552   6.222
 8497SOL    HW127388  10.389   5.613   6.266
 8497SOL    HW227389  10.337   5.576   6.129
 8498SOL     OW27390   4.000   3.754   2.622
 8498SOL    HW127391   4.039   3.691   2.684
 8498SOL    HW227392   4.074   3.806   2.592
 8499SOL     OW27393   1.204  12.886  13.323
 8499SOL    HW127394   1.250  12.889  13.239
 8499SOL    HW227395   1.233  12.805  13.363
 8500SOL     OW27396   2.709  12.734  12.563
 8500SOL    HW127397   2.779  12.697  12.509
 8500SOL    HW227398   2.745  12.734  12.652
 8501SOL     OW27399   6.910   9.533   7.669
 8501SOL    HW127400   6.941   9.570   7.586
 8501SOL    HW227401   6.844   9.468   7.642
 8502SOL     OW27402   9.432   6.861  12.045
 8502SOL    HW127403   9.482   6.887  11.967
 8502SOL    HW227404   9.357   6.813  12.010
 8503SOL     OW27405   6.278  11.356   3.119
 8503SOL    HW127406   6.356  11.357   3.175
 8503SOL    HW227407   6.248  11.265   3.120
 8504SOL     OW27408   9.150   0.608   2.115
 8504SOL    HW127409   9.142   0.513   2.121
 8504SOL    HW227410   9.160   0.638   2.205
 8505SOL     OW27411   4.309   7.338   7.311
 8505SOL    HW127412   4.327   7.428   7.284
 8505SOL    HW227413   4.251   7.304   7.243
 8506SOL     OW27414   0.661   4.264   5.769
 8506SOL    HW127415   0.569   4.269   5.795
 8506SOL    HW227416   0.708   4.255   5.852
 8507SOL     OW27417  10.141   0.444  11.320
 8507SOL    HW127418  10.186   0.525  11.296
 8507SOL    HW227419  10.090   0.466  11.397
 8508SOL     OW27420   9.831   0.422  14.453
 8508SOL    HW127421   9.838   0.518  14.456
 8508SOL    HW227422   9.790   0.403  14.369
 8509SOL     OW27423   5.151   2.327   7.308
 8509SOL    HW127424   5.202   2.354   7.232
 8509SOL    HW227425   5.122   2.238   7.288
 8510SOL     OW27426   0.795   7.089   8.048
 8510SOL    HW127427   0.737   7.116   8.119
 8510SOL    HW227428   0.768   7.000   8.027
 8511SOL     OW27429   9.096  11.862  12.486
 8511SOL    HW127430   9.016  11.897  12.448
 8511SOL    HW227431   9.156  11.937  12.488
 8512SOL     OW27432   3.569   4.878  11.506
 8512SOL    HW127433   3.589   4.941  11.436
 8512SOL    HW227434   3.476   4.892  11.525
 8513SOL     OW27435   8.421   1.175   1.062
 8513SOL    HW127436   8.340   1.125   1.059
 8513SOL    HW227437   8.469   1.138   1.136
 8514SOL     OW27438  12.840   8.081   3.742
 8514SOL    HW127439  12.906   8.013   3.756
 8514SOL    HW227440  12.787   8.081   3.821
 8515SOL     OW27441   3.008  12.045   7.005
 8515SOL    HW127442   3.020  12.137   7.027
 8515SOL    HW227443   2.939  12.014   7.064
 8516SOL     OW27444   3.721   6.819   4.600
 8516SOL    HW127445   3.784   6.827   4.528
 8516SOL    HW227446   3.774   6.789   4.674
 8517SOL     OW27447   0.223  10.139   8.753
 8517SOL    HW127448   0.250  10.060   8.707
 8517SOL    HW227449   0.156  10.178   8.698
 8518SOL     OW27450  14.404   0.836  13.207
 8518SOL    HW127451  14.427   0.865  13.296
 8518SOL    HW227452  14.346   0.904  13.173
 8519SOL     OW27453   6.045  10.429   6.057
 8519SOL    HW127454   5.974  10.372   6.087
 8519SOL    HW227455   6.095  10.374   5.997
 8520SOL     OW27456   0.903  11.924   7.545
 8520SOL    HW127457   0.920  12.012   7.578
 8520SOL    HW227458   0.990  11.889   7.523
 8521SOL     OW27459   1.654   5.728  13.719
 8521SOL    HW127460   1.651   5.791  13.791
 8521SOL    HW227461   1.563   5.711  13.698
 8522SOL     OW27462   1.948  11.920   2.755
 8522SOL    HW127463   1.967  11.849   2.816
 8522SOL    HW227464   1.894  11.881   2.687
 8523SOL     OW27465   7.126   8.092   3.639
 8523SOL    HW127466   7.031   8.102   3.634
 8523SOL    HW227467   7.139   8.006   3.678
 8524SOL     OW27468   3.920   1.128   4.555
 8524SOL    HW127469   3.887   1.105   4.641
 8524SOL    HW227470   3.849   1.107   4.495
 8525SOL     OW27471   0.365  11.297   7.273
 8525SOL    HW127472   0.380  11.264   7.362
 8525SOL    HW227473   0.274  11.276   7.255
 8526SOL     OW27474  14.069   5.034  10.009
 8526SOL    HW127475  14.132   5.057   9.941
 8526SOL    HW227476  14.122   4.997  10.080
 8527SOL     OW27477   6.468   0.955   1.937
 8527SOL    HW127478   6.506   0.868   1.949
 8527SOL    HW227479   6.457   0.989   2.026
 8528SOL     OW27480   0.568   3.944   5.680
 8528SOL    HW127481   0.574   4.035   5.709
 8528SOL    HW227482   0.653   3.926   5.641
 8529SOL     OW27483   0.799   6.896  11.438
 8529SOL    HW127484   0.809   6.981  11.397
 8529SOL    HW227485   0.849   6.836  11.383
 8530SOL     OW27486  10.587   0.975   8.798
 8530SOL    HW127487  10.572   0.941   8.710
 8530SOL    HW227488  10.624   1.062   8.784
 8531SOL     OW27489  13.446   4.391   2.873
 8531SOL    HW127490  13.395   4.471   2.887
 8531SOL    HW227491  13.441   4.376   2.779
 8532SOL     OW27492   8.403   5.163   5.851
 8532SOL    HW127493   8.484   5.194   5.891
 8532SOL    HW227494   8.334   5.197   5.907
 8533SOL     OW27495   1.544  10.528   3.634
 8533SOL    HW127496   1.565  10.570   3.550
 8533SOL    HW227497   1.568  10.436   3.621
 8534SOL     OW27498   0.998   0.470   2.103
 8534SOL    HW127499   1.063   0.433   2.042
 8534SOL    HW227500   1.050   0.511   2.172
 8535SOL     OW27501   6.016  13.598   5.777
 8535SOL    HW127502   5.943  13.541   5.798
 8535SOL    HW227503   6.017  13.663   5.848
 8536SOL     OW27504  12.266   5.577   1.164
 8536SOL    HW127505  12.348   5.583   1.213
 8536SOL    HW227506  12.259   5.661   1.119
 8537SOL     OW27507   5.524  10.516   4.861
 8537SOL    HW127508   5.455  10.539   4.923
 8537SOL    HW227509   5.574  10.597   4.849
 8538SOL     OW27510   4.831   4.054   5.512
 8538SOL    HW127511   4.924   4.042   5.528
 8538SOL    HW227512   4.791   3.971   5.538
 8539SOL     OW27513  10.553  13.836   3.945
 8539SOL    HW127514  10.540  13.741   3.942
 8539SOL    HW227515  10.620  13.853   3.880
 8540SOL     OW27516  10.492   8.128   5.749
 8540SOL    HW127517  10.557   8.058   5.755
 8540SOL    HW227518  10.414   8.085   5.715
 8541SOL     OW27519  12.724  13.206   8.229
 8541SOL    HW127520  12.707  13.128   8.176
 8541SOL    HW227521  12.819  13.204   8.244
 8542SOL     OW27522   7.368   0.779   9.001
 8542SOL    HW127523   7.291   0.816   8.959
 8542SOL    HW227524   7.437   0.787   8.935
 8543SOL     OW27525   2.617   2.596   7.962
 8543SOL    HW127526   2.684   2.605   8.030
 8543SOL    HW227527   2.569   2.517   7.986
 8544SOL     OW27528  12.246   0.706  10.038
 8544SOL    HW127529  12.224   0.613  10.040
 8544SOL    HW227530  12.315   0.713   9.972
 8545SOL     OW27531  10.647  14.665   1.325
 8545SOL    HW127532  10.639  14.733   1.392
 8545SOL    HW227533  10.719  14.610   1.355
 8546SOL     OW27534  11.866   8.354   6.073
 8546SOL    HW127535  11.893   8.394   6.156
 8546SOL    HW227536  11.843   8.429   6.018
 8547SOL     OW27537   6.718  10.203   1.134
 8547SOL    HW127538   6.623  10.207   1.134
 8547SOL    HW227539   6.744  10.251   1.055
 8548SOL     OW27540   8.345   4.462  11.774
 8548SOL    HW127541   8.432   4.441  11.806
 8548SOL    HW227542   8.303   4.378  11.757
 8549SOL     OW27543   5.154   1.953   0.006
 8549SOL    HW127544   5.112   1.874  14.842
 8549SOL    HW227545   5.106   1.974   0.086
 8550SOL     OW27546  11.072   1.836  14.140
 8550SOL    HW127547  11.154   1.788  14.130
 8550SOL    HW227548  11.065   1.887  14.059
 8551SOL     OW27549  14.288   4.167   0.537
 8551SOL    HW127550  14.290   4.228   0.610
 8551SOL    HW227551  14.352   4.202   0.474
 8552SOL     OW27552   3.205  12.683   7.016
 8552SOL    HW127553   3.217  12.588   7.017
 8552SOL    HW227554   3.213  12.708   6.924
 8553SOL     OW27555   7.541   7.417   9.527
 8553SOL    HW127556   7.454   7.453   9.508
 8553SOL    HW227557   7.524   7.325   9.550
 8554SOL     OW27558  14.200   3.064  14.226
 8554SOL    HW127559  14.203   3.151  14.267
 8554SOL    HW227560  14.200   3.003  14.300
 8555SOL     OW27561   4.523  12.277   3.105
 8555SOL    HW127562   4.528  12.196   3.053
 8555SOL    HW227563   4.466  12.255   3.179
 8556SOL     OW27564   1.379   0.712   1.992
 8556SOL    HW127565   1.445   0.717   1.923
 8556SOL    HW227566   1.308   0.769   1.961
 8557SOL     OW27567   0.062   3.732   3.653
 8557SOL    HW127568   0.070   3.728   3.748
 8557SOL    HW227569  14.860   3.672   3.632
 8558SOL     OW27570   3.756   8.414   6.881
 8558SOL    HW127571   3.721   8.328   6.903
 8558SOL    HW227572   3.773   8.455   6.966
 8559SOL     OW27573   6.009   9.661   1.913
 8559SOL    HW127574   5.969   9.638   1.828
 8559SOL    HW227575   6.074   9.593   1.927
 8560SOL     OW27576   8.998   7.505   6.599
 8560SOL    HW127577   8.942   7.438   6.639
 8560SOL    HW227578   9.055   7.456   6.540
 8561SOL     OW27579   0.352  14.147   6.844
 8561SOL    HW127580   0.441  14.121   6.817
 8561SOL    HW227581   0.362  14.175   6.935
 8562SOL     OW27582   6.994   7.591  12.336
 8562SOL    HW127583   6.955   7.507  12.360
 8562SOL    HW227584   6.920   7.645  12.308
 8563SOL     OW27585   3.020  12.101   0.697
 8563SOL    HW127586   3.105  12.091   0.653
 8563SOL    HW227587   3.009  12.196   0.707
 8564SOL     OW27588  11.035   9.898   0.554
 8564SOL    HW127589  11.088   9.897   0.474
 8564SOL    HW227590  11.025   9.805   0.578
 8565SOL     OW27591   6.610  12.368   6.576
 8565SOL    HW127592   6.632  12.286   6.619
 8565SOL    HW227593   6.564  12.343   6.496
 8566SOL     OW27594   8.545  12.394  10.694
 8566SOL    HW127595   8.555  12.426  10.784
 8566SOL    HW227596   8.463  12.433  10.663
 8567SOL     OW27597  10.226  13.896  13.520
 8567SOL    HW127598  10.178  13.973  13.552
 8567SOL    HW227599  10.205  13.828  13.584
 8568SOL     OW27600   7.737   6.985   9.633
 8568SOL    HW127601   7.816   7.031   9.661
 8568SOL    HW227602   7.665   7.046   9.652
 8569SOL     OW27603   6.174   2.954   2.348
 8569SOL    HW127604   6.231   2.931   2.422
 8569SOL    HW227605   6.228   3.010   2.292
 8570SOL     OW27606  12.648   5.419   7.275
 8570SOL    HW127607  12.711   5.477   7.318
 8570SOL    HW227608  12.703   5.354   7.231
 8571SOL     OW27609   9.508   1.049   9.388
 8571SOL    HW127610   9.454   1.093   9.323
 8571SOL    HW227611   9.541   1.119   9.444
 8572SOL     OW27612   9.804  11.208   2.592
 8572SOL    HW127613   9.869  11.149   2.628
 8572SOL    HW227614   9.741  11.220   2.663
 8573SOL     OW27615   5.863  10.657   6.874
 8573SOL    HW127616   5.925  10.585   6.858
 8573SOL    HW227617   5.880  10.683   6.964
 8574SOL     OW27618   1.338  12.271   5.788
 8574SOL    HW127619   1.250  12.232   5.797
 8574SOL    HW227620   1.397  12.196   5.781
 8575SOL     OW27621   7.347   1.167   5.044
 8575SOL    HW127622   7.377   1.239   4.989
 8575SOL    HW227623   7.268   1.135   5.001
 8576SOL     OW27624  10.045   1.451   6.686
 8576SOL    HW127625  10.077   1.453   6.596
 8576SOL    HW227626  10.041   1.358   6.708
 8577SOL     OW27627   2.630   9.863   6.162
 8577SOL    HW127628   2.622   9.768   6.161
 8577SOL    HW227629   2.683   9.884   6.085
 8578SOL     OW27630   4.186   4.214  10.145
 8578SOL    HW127631   4.181   4.173  10.232
 8578SOL    HW227632   4.196   4.307  10.163
 8579SOL     OW27633   2.259   6.594  12.482
 8579SOL    HW127634   2.186   6.655  12.476
 8579SOL    HW227635   2.334   6.650  12.504
 8580SOL     OW27636   6.382   0.249   7.476
 8580SOL    HW127637   6.305   0.248   7.420
 8580SOL    HW227638   6.455   0.229   7.417
 8581SOL     OW27639  12.248   4.961  12.518
 8581SOL    HW127640  12.317   4.901  12.547
 8581SOL    HW227641  12.170   4.933  12.565
 8582SOL     OW27642   6.142   9.070  11.468
 8582SOL    HW127643   6.230   9.097  11.495
 8582SOL    HW227644   6.103   9.150  11.430
 8583SOL     OW27645  13.897   9.378   3.287
 8583SOL    HW127646  13.883   9.405   3.378
 8583SOL    HW227647  13.815   9.401   3.243
 8584SOL     OW27648   9.773   8.417   6.751
 8584SOL    HW127649   9.819   8.375   6.824
 8584SOL    HW227650   9.842   8.457   6.699
 8585SOL     OW27651   3.009   6.236  13.155
 8585SOL    HW127652   3.017   6.315  13.101
 8585SOL    HW227653   3.086   6.238  13.212
 8586SOL     OW27654  11.141   0.725  13.205
 8586SOL    HW127655  11.159   0.817  13.225
 8586SOL    HW227656  11.058   0.727  13.156
 8587SOL     OW27657   7.793  10.526   0.689
 8587SOL    HW127658   7.771  10.598   0.629
 8587SOL    HW227659   7.712  10.477   0.699
 8588SOL     OW27660   5.242   4.155   9.768
 8588SOL    HW127661   5.311   4.182   9.708
 8588SOL    HW227662   5.203   4.078   9.726
 8589SOL     OW27663   8.182   0.796   3.283
 8589SOL    HW127664   8.269   0.763   3.305
 8589SOL    HW227665   8.136   0.802   3.367
 8590SOL     OW27666  11.894   9.653  13.313
 8590SOL    HW127667  11.918   9.715  13.244
 8590SOL    HW227668  11.921   9.568  13.279
 8591SOL     OW27669   7.976   2.475   4.738
 8591SOL    HW127670   7.972   2.529   4.659
 8591SOL    HW227671   7.990   2.386   4.706
 8592SOL     OW27672   3.409   9.894   2.446
 8592SOL    HW127673   3.437   9.985   2.439
 8592SOL    HW227674   3.324   9.898   2.490
 8593SOL     OW27675   2.737   2.878   8.389
 8593SOL    HW127676   2.698   2.805   8.341
 8593SOL    HW227677   2.808   2.909   8.333
 8594SOL     OW27678   9.674   9.718   7.260
 8594SOL    HW127679   9.768   9.723   7.276
 8594SOL    HW227680   9.637   9.692   7.344
 8595SOL     OW27681   1.035   3.717   5.542
 8595SOL    HW127682   0.954   3.720   5.491
 8595SOL    HW227683   1.043   3.625   5.569
 8596SOL     OW27684   7.991   8.317  14.540
 8596SOL    HW127685   8.053   8.302  14.611
 8596SOL    HW227686   7.910   8.274  14.570
 8597SOL     OW27687  10.235   3.467   4.996
 8597SOL    HW127688  10.292   3.402   4.955
 8597SOL    HW227689  10.221   3.533   4.928
 8598SOL     OW27690   7.944   1.225   2.021
 8598SOL    HW127691   7.868   1.186   1.977
 8598SOL    HW227692   7.989   1.273   1.951
 8599SOL     OW27693   8.579  12.442   5.834
 8599SOL    HW127694   8.635  12.397   5.897
 8599SOL    HW227695   8.640  12.490   5.778
 8600SOL     OW27696   8.950   0.039   3.390
 8600SOL    HW127697   8.914   0.015   3.475
 8600SOL    HW227698   9.042   0.057   3.407
 8601SOL     OW27699   3.762   7.860  10.755
 8601SOL    HW127700   3.702   7.808  10.807
 8601SOL    HW227701   3.847   7.847  10.796
 8602SOL     OW27702  11.685  10.271  10.433
 8602SOL    HW127703  11.682  10.193  10.378
 8602SOL    HW227704  11.637  10.337  10.383
 8603SOL     OW27705  10.601  12.617   2.888
 8603SOL    HW127706  10.644  12.646   2.808
 8603SOL    HW227707  10.509  12.605   2.864
 8604SOL     OW27708   9.779   0.881  12.197
 8604SOL    HW127709   9.853   0.827  12.226
 8604SOL    HW227710   9.767   0.857  12.105
 8605SOL     OW27711  14.739   0.098   3.149
 8605SOL    HW127712  14.826   0.118   3.116
 8605SOL    HW227713  14.741   0.126   3.240
 8606SOL     OW27714   0.370  13.398   1.707
 8606SOL    HW127715   0.371  13.307   1.737
 8606SOL    HW227716   0.296  13.437   1.752
 8607SOL     OW27717   1.837  13.373   2.298
 8607SOL    HW127718   1.808  13.282   2.296
 8607SOL    HW227719   1.864  13.391   2.208
 8608SOL     OW27720   5.094   8.644   0.871
 8608SOL    HW127721   5.186   8.641   0.846
 8608SOL    HW227722   5.051   8.581   0.812
 8609SOL     OW27723   1.672   8.028   6.512
 8609SOL    HW127724   1.673   7.933   6.523
 8609SOL    HW227725   1.605   8.058   6.572
 8610SOL     OW27726   3.740   8.770   1.850
 8610SOL    HW127727   3.648   8.780   1.824
 8610SOL    HW227728   3.739   8.699   1.914
 8611SOL     OW27729  13.567  14.477  10.010
 8611SOL    HW127730  13.560  14.510  10.100
 8611SOL    HW227731  13.641  14.525   9.972
 8612SOL     OW27732  12.160  14.271   4.223
 8612SOL    HW127733  12.233  14.209   4.223
 8612SOL    HW227734  12.107  14.244   4.148
 8613SOL     OW27735  14.245  10.776   9.357
 8613SOL    HW127736  14.246  10.870   9.342
 8613SOL    HW227737  14.333  10.756   9.388
 8614SOL     OW27738   9.073   5.651   0.644
 8614SOL    HW127739   8.977   5.643   0.639
 8614SOL    HW227740   9.094   5.722   0.583
 8615SOL     OW27741  13.496   8.113  14.839
 8615SOL    HW127742  13.453   8.030  14.820
 8615SOL    HW227743  13.566   8.120  14.774
 8616SOL     OW27744   4.710   0.520   5.817
 8616SOL    HW127745   4.756   0.549   5.738
 8616SOL    HW227746   4.699   0.426   5.806
 8617SOL     OW27747   9.943   0.102   7.499
 8617SOL    HW127748   9.859   0.061   7.518
 8617SOL    HW227749   9.922   0.195   7.485
 8618SOL     OW27750   3.566  14.086   1.471
 8618SOL    HW127751   3.642  14.145   1.471
 8618SOL    HW227752   3.520  14.108   1.553
 8619SOL     OW27753   9.653   3.669   6.270
 8619SOL    HW127754   9.658   3.762   6.293
 8619SOL    HW227755   9.681   3.665   6.178
 8620SOL     OW27756  11.541  10.966  11.938
 8620SOL    HW127757  11.621  10.933  11.979
 8620SOL    HW227758  11.472  10.908  11.971
 8621SOL     OW27759  13.300  10.802   3.822
 8621SOL    HW127760  13.248  10.722   3.816
 8621SOL    HW227761  13.331  10.817   3.733
 8622SOL     OW27762   0.835   5.752  13.530
 8622SOL    HW127763   0.765   5.734  13.467
 8622SOL    HW227764   0.907   5.695  13.502
 8623SOL     OW27765   6.822   4.656  11.945
 8623SOL    HW127766   6.908   4.638  11.983
 8623SOL    HW227767   6.788   4.729  11.998
 8624SOL     OW27768   8.911  11.571   7.496
 8624SOL    HW127769   8.880  11.595   7.409
 8624SOL    HW227770   8.874  11.484   7.512
 8625SOL     OW27771  14.325   5.657  14.500
 8625SOL    HW127772  14.308   5.745  14.533
 8625SOL    HW227773  14.415   5.639  14.523
 8626SOL     OW27774  11.767  14.763   7.372
 8626SOL    HW127775  11.854  14.729   7.390
 8626SOL    HW227776  11.737  14.714   7.295
 8627SOL     OW27777  14.213   5.386   0.680
 8627SOL    HW127778  14.294   5.401   0.631
 8627SOL    HW227779  14.244   5.364   0.769
 8628SOL     OW27780   0.775  10.866   6.468
 8628SOL    HW127781   0.825  10.840   6.545
 8628SOL    HW227782   0.840  10.897   6.406
 8629SOL     OW27783   2.698   4.580  13.728
 8629SOL    HW127784   2.785   4.575  13.768
 8629SOL    HW227785   2.692   4.502  13.673
 8630SOL     OW27786   5.860  12.358   4.104
 8630SOL    HW127787   5.785  12.413   4.127
 8630SOL    HW227788   5.931  12.420   4.089
 8631SOL     OW27789   9.746   8.258   2.563
 8631SOL    HW127790   9.720   8.327   2.503
 8631SOL    HW227791   9.781   8.189   2.506
 8632SOL     OW27792  14.721  10.385   5.136
 8632SOL    HW127793  14.726  10.357   5.228
 8632SOL    HW227794  14.627  10.385   5.117
 8633SOL     OW27795  12.940  13.943  10.278
 8633SOL    HW127796  12.976  13.900  10.356
 8633SOL    HW227797  12.868  13.996  10.312
 8634SOL     OW27798  13.118   0.740   6.606
 8634SOL    HW127799  13.031   0.776   6.621
 8634SOL    HW227800  13.117   0.655   6.651
 8635SOL     OW27801   9.984   9.530   8.333
 8635SOL    HW127802   9.960   9.443   8.365
 8635SOL    HW227803   9.915   9.588   8.367
 8636SOL     OW27804   6.257  13.567   8.793
 8636SOL    HW127805   6.176  13.598   8.752
 8636SOL    HW227806   6.229  13.522   8.873
 8637SOL     OW27807  11.784   5.745   9.347
 8637SOL    HW127808  11.872   5.722   9.377
 8637SOL    HW227809  11.783   5.841   9.343
 8638SOL     OW27810  14.719  12.514   1.929
 8638SOL    HW127811  14.682  12.482   2.011
 8638SOL    HW227812  14.807  12.545   1.952
 8639SOL     OW27813  13.178  11.529  10.531
 8639SOL    HW127814  13.089  11.506  10.557
 8639SOL    HW227815  13.227  11.447  10.540
 8640SOL     OW27816   3.358   4.720   5.862
 8640SOL    HW127817   3.440   4.749   5.904
 8640SOL    HW227818   3.360   4.762   5.776
 8641SOL     OW27819   1.959   4.486  11.336
 8641SOL    HW127820   2.041   4.456  11.297
 8641SOL    HW227821   1.899   4.496  11.262
 8642SOL     OW27822  11.431   4.459  13.752
 8642SOL    HW127823  11.383   4.415  13.681
 8642SOL    HW227824  11.401   4.415  13.832
 8643SOL     OW27825   0.650  10.506  10.999
 8643SOL    HW127826   0.658  10.526  11.093
 8643SOL    HW227827   0.679  10.416  10.992
 8644SOL     OW27828  12.722  13.567   5.807
 8644SOL    HW127829  12.719  13.559   5.712
 8644SOL    HW227830  12.777  13.493   5.835
 8645SOL     OW27831   7.362  11.309   4.872
 8645SOL    HW127832   7.419  11.372   4.916
 8645SOL    HW227833   7.326  11.358   4.798
 8646SOL     OW27834  11.262  12.311   3.250
 8646SOL    HW127835  11.167  12.316   3.237
 8646SOL    HW227836  11.274  12.266   3.333
 8647SOL     OW27837   9.343   6.535   6.111
 8647SOL    HW127838   9.261   6.532   6.060
 8647SOL    HW227839   9.336   6.460   6.171
 8648SOL     OW27840   4.289  12.747   2.567
 8648SOL    HW127841   4.231  12.791   2.505
 8648SOL    HW227842   4.307  12.814   2.633
 8649SOL     OW27843   5.523   7.918  12.350
 8649SOL    HW127844   5.554   7.833  12.381
 8649SOL    HW227845   5.513   7.970  12.429
 8650SOL     OW27846   7.844   2.290   9.570
 8650SOL    HW127847   7.798   2.270   9.488
 8650SOL    HW227848   7.774   2.306   9.633
 8651SOL     OW27849  12.106   6.941   5.619
 8651SOL    HW127850  12.106   6.853   5.580
 8651SOL    HW227851  12.119   6.926   5.713
 8652SOL     OW27852  10.491   8.470  12.613
 8652SOL    HW127853  10.404   8.461  12.652
 8652SOL    HW227854  10.535   8.535  12.669
 8653SOL     OW27855  13.247   8.504   9.938
 8653SOL    HW127856  13.209   8.479   9.853
 8653SOL    HW227857  13.257   8.599   9.933
 8654SOL     OW27858  10.565  12.398   9.749
 8654SOL    HW127859  10.592  12.306   9.744
 8654SOL    HW227860  10.573  12.430   9.659
 8655SOL     OW27861   1.815  11.445   9.623
 8655SOL    HW127862   1.870  11.516   9.591
 8655SOL    HW227863   1.790  11.471   9.711
 8656SOL     OW27864  11.175   9.310   3.217
 8656SOL    HW127865  11.246   9.323   3.280
 8656SOL    HW227866  11.126   9.236   3.252
 8657SOL     OW27867  13.919   1.961   7.499
 8657SOL    HW127868  13.911   2.050   7.532
 8657SOL    HW227869  13.981   1.918   7.558
 8658SOL     OW27870   5.141  13.783   9.159
 8658SOL    HW127871   5.117  13.801   9.068
 8658SOL    HW227872   5.124  13.689   9.169
 8659SOL     OW27873   2.209   9.410   8.601
 8659SOL    HW127874   2.166   9.453   8.527
 8659SOL    HW227875   2.198   9.317   8.585
 8660SOL     OW27876  10.354   8.049  11.064
 8660SOL    HW127877  10.362   7.975  11.004
 8660SOL    HW227878  10.440   8.091  11.062
 8661SOL     OW27879   4.451   2.133   2.492
 8661SOL    HW127880   4.405   2.215   2.474
 8661SOL    HW227881   4.541   2.160   2.512
 8662SOL     OW27882   8.587   0.969  10.230
 8662SOL    HW127883   8.649   0.909  10.190
 8662SOL    HW227884   8.507   0.959  10.178
 8663SOL     OW27885   5.489  11.025   6.067
 8663SOL    HW127886   5.472  11.048   6.158
 8663SOL    HW227887   5.583  11.005   6.064
 8664SOL     OW27888   3.310  10.730  14.519
 8664SOL    HW127889   3.307  10.774  14.433
 8664SOL    HW227890   3.283  10.640  14.501
 8665SOL     OW27891   6.322   7.963   3.557
 8665SOL    HW127892   6.244   7.981   3.610
 8665SOL    HW227893   6.394   7.961   3.620
 8666SOL     OW27894   9.965   5.617   3.075
 8666SOL    HW127895   9.954   5.712   3.080
 8666SOL    HW227896   9.942   5.585   3.162
 8667SOL     OW27897   5.799  12.364  13.881
 8667SOL    HW127898   5.717  12.414  13.880
 8667SOL    HW227899   5.777  12.281  13.839
 8668SOL     OW27900  12.477   0.796   0.187
 8668SOL    HW127901  12.562   0.839   0.189
 8668SOL    HW227902  12.458   0.776   0.279
 8669SOL     OW27903  13.392  10.102   7.682
 8669SOL    HW127904  13.374  10.016   7.719
 8669SOL    HW227905  13.487  10.112   7.688
 8670SOL     OW27906  14.366  11.703   7.574
 8670SOL    HW127907  14.457  11.684   7.596
 8670SOL    HW227908  14.353  11.795   7.598
 8671SOL     OW27909   1.100   4.555   4.912
 8671SOL    HW127910   1.174   4.559   4.973
 8671SOL    HW227911   1.027   4.521   4.965
 8672SOL     OW27912   1.765   7.417  13.165
 8672SOL    HW127913   1.715   7.440  13.243
 8672SOL    HW227914   1.699   7.413  13.095
 8673SOL     OW27915   6.582   1.090   6.885
 8673SOL    HW127916   6.511   1.092   6.821
 8673SOL    HW227917   6.541   1.117   6.967
 8674SOL     OW27918   2.677   3.409   4.001
 8674SOL    HW127919   2.614   3.343   3.975
 8674SOL    HW227920   2.657   3.426   4.093
 8675SOL     OW27921   4.809  10.946   4.347
 8675SOL    HW127922   4.845  11.028   4.380
 8675SOL    HW227923   4.885  10.901   4.309
 8676SOL     OW27924   2.309   7.248   5.924
 8676SOL    HW127925   2.395   7.211   5.908
 8676SOL    HW227926   2.254   7.214   5.854
 8677SOL     OW27927  11.392   6.761   5.460
 8677SOL    HW127928  11.321   6.820   5.485
 8677SOL    HW227929  11.357   6.673   5.476
 8678SOL     OW27930   8.699   6.957   7.002
 8678SOL    HW127931   8.759   7.014   7.051
 8678SOL    HW227932   8.704   6.873   7.047
 8679SOL     OW27933  13.407   9.274   3.077
 8679SOL    HW127934  13.489   9.282   3.125
 8679SOL    HW227935  13.344   9.242   3.141
 8680SOL     OW27936   6.871   1.891   5.615
 8680SOL    HW127937   6.885   1.928   5.702
 8680SOL    HW227938   6.911   1.804   5.619
 8681SOL     OW27939  14.103  11.617   7.802
 8681SOL    HW127940  14.088  11.710   7.788
 8681SOL    HW227941  14.105  11.579   7.714
 8682SOL     OW27942  10.809   5.274   8.295
 8682SOL    HW127943  10.893   5.247   8.255
 8682SOL    HW227944  10.817   5.248   8.386
 8683SOL     OW27945   2.809   2.012   2.050
 8683SOL    HW127946   2.841   1.988   1.963
 8683SOL    HW227947   2.886   2.006   2.106
 8684SOL     OW27948   4.199   2.338   0.599
 8684SOL    HW127949   4.172   2.265   0.542
 8684SOL    HW227950   4.272   2.379   0.552
 8685SOL     OW27951  10.596  14.071   1.892
 8685SOL    HW127952  10.564  14.094   1.979
 8685SOL    HW227953  10.691  14.069   1.902
 8686SOL     OW27954   0.447   9.210   3.640
 8686SOL    HW127955   0.421   9.130   3.596
 8686SOL    HW227956   0.367   9.240   3.684
 8687SOL     OW27957  10.024   5.849   7.784
 8687SOL    HW127958  10.074   5.929   7.802
 8687SOL    HW227959   9.934   5.871   7.808
 8688SOL     OW27960  12.265   6.083   5.448
 8688SOL    HW127961  12.355   6.080   5.414
 8688SOL    HW227962  12.224   6.156   5.401
 8689SOL     OW27963   1.644   9.443  14.034
 8689SOL    HW127964   1.715   9.380  14.045
 8689SOL    HW227965   1.688   9.521  13.998
 8690SOL     OW27966   1.191   6.071  11.356
 8690SOL    HW127967   1.248   6.103  11.286
 8690SOL    HW227968   1.227   6.111  11.435
 8691SOL     OW27969  10.192  11.038  11.935
 8691SOL    HW127970  10.131  11.109  11.953
 8691SOL    HW227971  10.236  11.064  11.854
 8692SOL     OW27972  11.087   1.836  12.216
 8692SOL    HW127973  11.129   1.915  12.181
 8692SOL    HW227974  11.135   1.763  12.177
 8693SOL     OW27975  13.689   3.656   1.437
 8693SOL    HW127976  13.745   3.578   1.438
 8693SOL    HW227977  13.601   3.622   1.451
 8694SOL     OW27978   6.837   5.827   9.923
 8694SOL    HW127979   6.821   5.804   9.831
 8694SOL    HW227980   6.878   5.913   9.919
 8695SOL     OW27981   2.264  14.517  10.998
 8695SOL    HW127982   2.358  14.535  11.002
 8695SOL    HW227983   2.257  14.423  11.012
 8696SOL     OW27984   5.543  13.527   0.484
 8696SOL    HW127985   5.574  13.483   0.405
 8696SOL    HW227986   5.618  13.578   0.514
 8697SOL     OW27987   4.922   7.154   7.664
 8697SOL    HW127988   4.887   7.065   7.673
 8697SOL    HW227989   4.973   7.151   7.583
 8698SOL     OW27990  13.440   3.979   0.110
 8698SOL    HW127991  13.400   4.030   0.039
 8698SOL    HW227992  13.394   3.895   0.107
 8699SOL     OW27993  13.672   4.819  14.281
 8699SOL    HW127994  13.652   4.910  14.304
 8699SOL    HW227995  13.754   4.801  14.327
 8700SOL     OW27996   9.674  12.094   5.329
 8700SOL    HW127997   9.632  12.008   5.340
 8700SOL    HW227998   9.752  12.075   5.276
 8701SOL     OW27999  14.729   3.399   1.200
 8701SOL    HW128000  14.705   3.413   1.109
 8701SOL    HW228001  14.658   3.346   1.236
 8702SOL     OW28002   2.615   1.172   3.140
 8702SOL    HW128003   2.603   1.218   3.223
 8702SOL    HW228004   2.648   1.239   3.080
 8703SOL     OW28005   1.660   5.515   7.488
 8703SOL    HW128006   1.730   5.467   7.444
 8703SOL    HW228007   1.662   5.602   7.448
 8704SOL     OW28008   9.778   8.595   3.080
 8704SOL    HW128009   9.693   8.555   3.063
 8704SOL    HW228010   9.831   8.525   3.118
 8705SOL     OW28011   9.748  11.016   5.802
 8705SOL    HW128012   9.743  10.981   5.891
 8705SOL    HW228013   9.839  11.000   5.775
 8706SOL     OW28014   5.559  10.178   7.056
 8706SOL    HW128015   5.523  10.131   6.981
 8706SOL    HW228016   5.648  10.202   7.029
 8707SOL     OW28017   9.118  14.000   7.185
 8707SOL    HW128018   9.212  13.985   7.185
 8707SOL    HW228019   9.099  14.035   7.272
 8708SOL     OW28020   2.097  13.923   9.194
 8708SOL    HW128021   2.113  13.945   9.286
 8708SOL    HW228022   2.003  13.940   9.181
 8709SOL     OW28023  10.425  13.195   5.962
 8709SOL    HW128024  10.433  13.276   6.013
 8709SOL    HW228025  10.331  13.188   5.944
 8710SOL     OW28026   3.864   7.070   6.310
 8710SOL    HW128027   3.809   7.032   6.379
 8710SOL    HW228028   3.813   7.144   6.277
 8711SOL     OW28029  12.592   7.184  13.654
 8711SOL    HW128030  12.663   7.122  13.638
 8711SOL    HW228031  12.614   7.223  13.740
 8712SOL     OW28032   5.861   0.475   3.149
 8712SOL    HW128033   5.871   0.388   3.109
 8712SOL    HW228034   5.899   0.465   3.237
 8713SOL     OW28035  13.358   2.933   3.750
 8713SOL    HW128036  13.452   2.920   3.739
 8713SOL    HW228037  13.349   3.018   3.792
 8714SOL     OW28038  13.438   6.114   4.849
 8714SOL    HW128039  13.467   6.041   4.795
 8714SOL    HW228040  13.392   6.073   4.922
 8715SOL     OW28041   9.059  14.199   1.218
 8715SOL    HW128042   9.120  14.222   1.288
 8715SOL    HW228043   9.091  14.115   1.185
 8716SOL     OW28044   8.229  10.059  12.936
 8716SOL    HW128045   8.259  10.025  13.020
 8716SOL    HW228046   8.278  10.140  12.923
 8717SOL     OW28047  12.596   0.179   8.554
 8717SOL    HW128048  12.574   0.176   8.460
 8717SOL    HW228049  12.641   0.263   8.565
 8718SOL     OW28050   9.533   9.727  12.741
 8718SOL    HW128051   9.551   9.821  12.748
 8718SOL    HW228052   9.542   9.694  12.831
 8719SOL     OW28053   5.348  10.600   2.931
 8719SOL    HW128054   5.281  10.539   2.903
 8719SOL    HW228055   5.370  10.650   2.852
 8720SOL     OW28056  12.756   5.281  14.588
 8720SOL    HW128057  12.848   5.259  14.575
 8720SOL    HW228058  12.745   5.283  14.683
 8721SOL     OW28059  10.695   4.331   1.489
 8721SOL    HW128060  10.602   4.308   1.489
 8721SOL    HW228061  10.699   4.409   1.434
 8722SOL     OW28062  14.272  14.656  10.704
 8722SOL    HW128063  14.314  14.649  10.790
 8722SOL    HW228064  14.312  14.734  10.665
 8723SOL     OW28065   8.201   8.977   6.058
 8723SOL    HW128066   8.224   9.068   6.039
 8723SOL    HW228067   8.279   8.942   6.101
 8724SOL     OW28068  14.493  14.321   0.419
 8724SOL    HW128069  14.582  14.293   0.398
 8724SOL    HW228070  14.502  14.412   0.447
 8725SOL     OW28071   3.302   2.272  10.100
 8725SOL    HW128072   3.389   2.232  10.101
 8725SOL    HW228073   3.288   2.298  10.009
 8726SOL     OW28074  12.335   7.594  14.562
 8726SOL    HW128075  12.405   7.597  14.626
 8726SOL    HW228076  12.260   7.557  14.610
 8727SOL     OW28077   3.793  12.188   5.853
 8727SOL    HW128078   3.865  12.224   5.802
 8727SOL    HW228079   3.835  12.142   5.926
 8728SOL     OW28080  13.434   5.828   1.303
 8728SOL    HW128081  13.445   5.865   1.391
 8728SOL    HW228082  13.505   5.867   1.252
 8729SOL     OW28083   0.096   9.197  10.674
 8729SOL    HW128084   0.131   9.190  10.763
 8729SOL    HW228085   0.131   9.279  10.641
 8730SOL     OW28086  13.507   3.417  10.548
 8730SOL    HW128087  13.424   3.403  10.502
 8730SOL    HW228088  13.484   3.478  10.619
 8731SOL     OW28089  11.276   3.657  11.247
 8731SOL    HW128090  11.305   3.730  11.303
 8731SOL    HW228091  11.226   3.699  11.177
 8732SOL     OW28092  10.086  14.846   3.703
 8732SOL    HW128093  10.148   0.046   3.680
 8732SOL    HW228094  10.071  14.858   3.797
 8733SOL     OW28095  12.879   8.284   9.145
 8733SOL    HW128096  12.829   8.366   9.148
 8733SOL    HW228097  12.839   8.230   9.213
 8734SOL     OW28098   0.101   4.402  11.134
 8734SOL    HW128099   0.157   4.324  11.139
 8734SOL    HW228100   0.035   4.389  11.201
 8735SOL     OW28101   2.794   7.065   6.146
 8735SOL    HW128102   2.847   7.083   6.069
 8735SOL    HW228103   2.757   6.978   6.130
 8736SOL     OW28104   1.084   7.061  12.707
 8736SOL    HW128105   1.058   6.991  12.768
 8736SOL    HW228106   1.171   7.087  12.736
 8737SOL     OW28107   8.282  11.405   9.433
 8737SOL    HW128108   8.225  11.443   9.366
 8737SOL    HW228109   8.368  11.444   9.416
 8738SOL     OW28110   5.010   1.961   8.704
 8738SOL    HW128111   4.988   1.959   8.797
 8738SOL    HW228112   5.083   2.024   8.698
 8739SOL     OW28113   6.244  13.998   1.473
 8739SOL    HW128114   6.288  13.952   1.545
 8739SOL    HW228115   6.195  13.929   1.427
 8740SOL     OW28116   0.102   6.157   1.721
 8740SOL    HW128117   0.038   6.224   1.701
 8740SOL    HW228118   0.161   6.156   1.646
 8741SOL     OW28119  10.486  14.269  14.040
 8741SOL    HW128120  10.543  14.344  14.056
 8741SOL    HW228121  10.545  14.195  14.032
 8742SOL     OW28122   9.550   5.968   4.694
 8742SOL    HW128123   9.587   6.002   4.775
 8742SOL    HW228124   9.493   6.039   4.662
 8743SOL     OW28125  10.106   5.956   2.339
 8743SOL    HW128126  10.111   6.051   2.347
 8743SOL    HW228127  10.163   5.923   2.408
 8744SOL     OW28128   3.537   2.901   5.337
 8744SOL    HW128129   3.474   2.873   5.271
 8744SOL    HW228130   3.601   2.830   5.341
 8745SOL     OW28131   2.036   5.438   8.722
 8745SOL    HW128132   2.095   5.492   8.773
 8745SOL    HW228133   2.071   5.349   8.730
 8746SOL     OW28134   4.583   4.012   4.324
 8746SOL    HW128135   4.674   4.044   4.322
 8746SOL    HW228136   4.576   3.965   4.407
 8747SOL     OW28137  14.292  11.483   0.182
 8747SOL    HW128138  14.337  11.534   0.249
 8747SOL    HW228139  14.228  11.431   0.230
 8748SOL     OW28140   1.629   6.064  10.789
 8748SOL    HW128141   1.698   6.039  10.851
 8748SOL    HW228142   1.593   5.980  10.760
 8749SOL     OW28143  12.817  14.853   8.577
 8749SOL    HW128144  12.753   0.046   8.611
 8749SOL    HW228145  12.860   0.029   8.505
 8750SOL     OW28146   8.504   9.029  14.639
 8750SOL    HW128147   8.493   9.124  14.637
 8750SOL    HW228148   8.425   8.995  14.596
 8751SOL     OW28149   7.805   5.573   1.029
 8751SOL    HW128150   7.762   5.497   0.989
 8751SOL    HW228151   7.872   5.535   1.086
 8752SOL     OW28152   1.253  10.147   2.432
 8752SOL    HW128153   1.332  10.095   2.418
 8752SOL    HW228154   1.222  10.122   2.519
 8753SOL     OW28155   7.071  13.111   8.678
 8753SOL    HW128156   7.158  13.120   8.716
 8753SOL    HW228157   7.085  13.103   8.584
 8754SOL     OW28158   2.343   1.815   9.107
 8754SOL    HW128159   2.353   1.742   9.046
 8754SOL    HW228160   2.330   1.773   9.193
 8755SOL     OW28161   8.448  13.554  10.167
 8755SOL    HW128162   8.528  13.546  10.114
 8755SOL    HW228163   8.400  13.626  10.127
 8756SOL     OW28164  11.611   9.294   5.695
 8756SOL    HW128165  11.653   9.380   5.695
 8756SOL    HW228166  11.590   9.278   5.787
 8757SOL     OW28167   7.951   5.464   9.751
 8757SOL    HW128168   7.950   5.387   9.694
 8757SOL    HW228169   8.043   5.486   9.761
 8758SOL     OW28170  13.379   1.844   1.981
 8758SOL    HW128171  13.419   1.858   2.067
 8758SOL    HW228172  13.357   1.751   1.978
 8759SOL     OW28173   2.870   5.820   7.489
 8759SOL    HW128174   2.869   5.916   7.482
 8759SOL    HW228175   2.963   5.797   7.481
 8760SOL     OW28176   4.138  12.891   8.289
 8760SOL    HW128177   4.134  12.986   8.284
 8760SOL    HW228178   4.213  12.867   8.235
 8761SOL     OW28179   3.248   7.935   5.707
 8761SOL    HW128180   3.230   7.851   5.749
 8761SOL    HW228181   3.313   7.914   5.639
 8762SOL     OW28182   0.283  13.118   7.423
 8762SOL    HW128183   0.331  13.141   7.502
 8762SOL    HW228184   0.307  13.186   7.360
 8763SOL     OW28185  13.349   0.036  14.682
 8763SOL    HW128186  13.354  14.810  14.670
 8763SOL    HW228187  13.311   0.068  14.600
 8764SOL     OW28188  10.460   4.252   3.863
 8764SOL    HW128189  10.556   4.255   3.854
 8764SOL    HW228190  10.432   4.189   3.797
 8765SOL     OW28191   4.952  14.412   2.990
 8765SOL    HW128192   5.013  14.339   2.998
 8765SOL    HW228193   4.868  14.378   3.022
 8766SOL     OW28194   8.386   1.334   6.347
 8766SOL    HW128195   8.315   1.299   6.402
 8766SOL    HW228196   8.347   1.343   6.260
 8767SOL     OW28197  13.025  14.060   7.468
 8767SOL    HW128198  12.929  14.059   7.458
 8767SOL    HW228199  13.047  14.153   7.477
 8768SOL     OW28200   4.447   8.260   3.650
 8768SOL    HW128201   4.423   8.217   3.568
 8768SOL    HW228202   4.543   8.255   3.653
 8769SOL     OW28203   2.924  14.730  14.345
 8769SOL    HW128204   2.897  14.714  14.435
 8769SOL    HW228205   2.852  14.696  14.292
 8770SOL     OW28206  12.743  14.458   7.013
 8770SOL    HW128207  12.740  14.371   7.052
 8770SOL    HW228208  12.768  14.442   6.922
 8771SOL     OW28209  13.433   8.321   3.575
 8771SOL    HW128210  13.528   8.316   3.566
 8771SOL    HW228211  13.402   8.348   3.489
 8772SOL     OW28212   6.360   0.130  14.258
 8772SOL    HW128213   6.346   0.199  14.323
 8772SOL    HW228214   6.272   0.102  14.232
 8773SOL     OW28215   6.195   7.080  11.111
 8773SOL    HW128216   6.120   7.107  11.058
 8773SOL    HW228217   6.270   7.084  11.051
 8774SOL     OW28218   8.313   8.493  11.548
 8774SOL    HW128219   8.304   8.524  11.638
 8774SOL    HW228220   8.259   8.414  11.544
 8775SOL     OW28221   0.253   2.802   8.112
 8775SOL    HW128222   0.256   2.764   8.024
 8775SOL    HW228223   0.275   2.894   8.100
 8776SOL     OW28224   9.024   3.810   5.196
 8776SOL    HW128225   9.105   3.827   5.148
 8776SOL    HW228226   9.005   3.718   5.180
 8777SOL     OW28227   9.633  13.307   7.028
 8777SOL    HW128228   9.656  13.223   6.988
 8777SOL    HW228229   9.641  13.370   6.956
 8778SOL     OW28230  10.580   2.391   6.947
 8778SOL    HW128231  10.656   2.428   6.992
 8778SOL    HW228232  10.601   2.298   6.939
 8779SOL     OW28233  11.842   0.161   7.333
 8779SOL    HW128234  11.772   0.204   7.283
 8779SOL    HW228235  11.810   0.072   7.346
 8780SOL     OW28236  10.515   7.049   5.956
 8780SOL    HW128237  10.522   7.073   6.048
 8780SOL    HW228238  10.422   7.030   5.943
 8781SOL     OW28239   4.076  12.114   1.355
 8781SOL    HW128240   4.036  12.169   1.422
 8781SOL    HW228241   4.006  12.055   1.327
 8782SOL     OW28242  14.674   6.648  11.691
 8782SOL    HW128243  14.624   6.632  11.770
 8782SOL    HW228244  14.668   6.743  11.677
 8783SOL     OW28245   4.494   2.135   0.029
 8783SOL    HW128246   4.528   2.214   0.071
 8783SOL    HW228247   4.572   2.085   0.005
 8784SOL     OW28248  11.905   3.170  12.231
 8784SOL    HW128249  11.985   3.216  12.208
 8784SOL    HW228250  11.835   3.224  12.196
 8785SOL     OW28251   2.294  11.006   1.436
 8785SOL    HW128252   2.288  10.943   1.508
 8785SOL    HW228253   2.258  10.959   1.361
 8786SOL     OW28254   0.519   3.293  13.624
 8786SOL    HW128255   0.467   3.250  13.692
 8786SOL    HW228256   0.567   3.361  13.671
 8787SOL     OW28257  10.766  11.096  12.774
 8787SOL    HW128258  10.709  11.172  12.791
 8787SOL    HW228259  10.852  11.134  12.760
 8788SOL     OW28260   2.969   3.196  12.730
 8788SOL    HW128261   2.918   3.204  12.650
 8788SOL    HW228262   2.925   3.126  12.779
 8789SOL     OW28263  10.098   8.154   7.552
 8789SOL    HW128264  10.153   8.215   7.601
 8789SOL    HW228265  10.070   8.089   7.617
 8790SOL     OW28266   5.710   9.337   3.036
 8790SOL    HW128267   5.783   9.292   2.992
 8790SOL    HW228268   5.636   9.327   2.976
 8791SOL     OW28269   2.984  10.080   2.670
 8791SOL    HW128270   2.906  10.124   2.635
 8791SOL    HW228271   2.953  10.034   2.748
 8792SOL     OW28272  10.476   5.043   7.730
 8792SOL    HW128273  10.486   4.949   7.712
 8792SOL    HW228274  10.518   5.056   7.815
 8793SOL     OW28275   0.025   7.183   6.047
 8793SOL    HW128276   0.099   7.130   6.076
 8793SOL    HW228277   0.018   7.253   6.112
 8794SOL     OW28278   9.045  10.800   1.097
 8794SOL    HW128279   9.117  10.737   1.095
 8794SOL    HW228280   9.087  10.883   1.122
 8795SOL     OW28281  10.223   3.904   0.382
 8795SOL    HW128282  10.286   3.857   0.328
 8795SOL    HW228283  10.138   3.883   0.344
 8796SOL     OW28284   7.658   3.418  14.582
 8796SOL    HW128285   7.693   3.427  14.493
 8796SOL    HW228286   7.580   3.474  14.583
 8797SOL     OW28287   6.424   9.471   4.933
 8797SOL    HW128288   6.430   9.451   5.027
 8797SOL    HW228289   6.507   9.514   4.912
 8798SOL     OW28290  13.180   2.758   6.344
 8798SOL    HW128291  13.200   2.679   6.295
 8798SOL    HW228292  13.084   2.758   6.352
 8799SOL     OW28293   0.042   6.489   9.085
 8799SOL    HW128294  14.837   6.528   9.131
 8799SOL    HW228295   0.115   6.497   9.147
 8800SOL     OW28296   3.265   8.630   1.608
 8800SOL    HW128297   3.188   8.597   1.561
 8800SOL    HW228298   3.292   8.707   1.558
 8801SOL     OW28299   7.362   4.212   5.041
 8801SOL    HW128300   7.278   4.251   5.016
 8801SOL    HW228301   7.358   4.122   5.008
 8802SOL     OW28302  10.924   6.794   4.683
 8802SOL    HW128303  10.980   6.716   4.675
 8802SOL    HW228304  10.963   6.844   4.754
 8803SOL     OW28305  13.328  11.050   9.382
 8803SOL    HW128306  13.265  11.022   9.314
 8803SOL    HW228307  13.397  11.095   9.333
 8804SOL     OW28308   3.997   6.413   7.139
 8804SOL    HW128309   3.919   6.376   7.178
 8804SOL    HW228310   4.039   6.339   7.095
 8805SOL     OW28311  14.117  12.042  11.145
 8805SOL    HW128312  14.162  12.021  11.063
 8805SOL    HW228313  14.059  12.114  11.121
 8806SOL     OW28314   0.227  12.772  11.479
 8806SOL    HW128315   0.146  12.783  11.528
 8806SOL    HW228316   0.199  12.757  11.389
 8807SOL     OW28317  10.911   8.124   2.996
 8807SOL    HW128318  10.875   8.041   2.964
 8807SOL    HW228319  10.858   8.146   3.073
 8808SOL     OW28320  14.230   3.296  14.335
 8808SOL    HW128321  14.164   3.358  14.304
 8808SOL    HW228322  14.312   3.329  14.299
 8809SOL     OW28323  12.967   7.207   2.927
 8809SOL    HW128324  12.915   7.273   2.975
 8809SOL    HW228325  12.926   7.203   2.841
 8810SOL     OW28326  13.451  10.279   3.334
 8810SOL    HW128327  13.378  10.219   3.351
 8810SOL    HW228328  13.492  10.245   3.255
 8811SOL     OW28329  12.642   6.919  13.996
 8811SOL    HW128330  12.648   6.930  14.091
 8811SOL    HW228331  12.555   6.951  13.974
 8812SOL     OW28332   1.421   0.426  14.513
 8812SOL    HW128333   1.456   0.337  14.517
 8812SOL    HW228334   1.486   0.476  14.463
 8813SOL     OW28335   0.509   5.509   9.406
 8813SOL    HW128336   0.475   5.444   9.346
 8813SOL    HW228337   0.598   5.527   9.375
 8814SOL     OW28338   5.070  13.595   9.662
 8814SOL    HW128339   5.116  13.669   9.701
 8814SOL    HW228340   4.977  13.612   9.679
 8815SOL     OW28341   0.619   3.180   5.088
 8815SOL    HW128342   0.574   3.260   5.060
 8815SOL    HW228343   0.637   3.193   5.181
 8816SOL     OW28344   8.480  14.563   4.667
 8816SOL    HW128345   8.467  14.485   4.721
 8816SOL    HW228346   8.397  14.576   4.622
 8817SOL     OW28347   8.591   5.425   5.627
 8817SOL    HW128348   8.677   5.393   5.655
 8817SOL    HW228349   8.538   5.345   5.619
 8818SOL     OW28350   1.646   0.686  12.074
 8818SOL    HW128351   1.688   0.755  12.024
 8818SOL    HW228352   1.674   0.701  12.164
 8819SOL     OW28353  12.926   5.534   5.236
 8819SOL    HW128354  12.994   5.528   5.169
 8819SOL    HW228355  12.851   5.486   5.199
 8820SOL     OW28356  10.536   5.420   3.946
 8820SOL    HW128357  10.526   5.327   3.967
 8820SOL    HW228358  10.494   5.466   4.019
 8821SOL     OW28359   8.537   2.569   9.499
 8821SOL    HW128360   8.521   2.631   9.429
 8821SOL    HW228361   8.526   2.619   9.580
 8822SOL     OW28362   3.572   1.945  14.700
 8822SOL    HW128363   3.643   1.962  14.638
 8822SOL    HW228364   3.579   1.852  14.721
 8823SOL     OW28365   1.377   7.257   2.784
 8823SOL    HW128366   1.471   7.240   2.784
 8823SOL    HW228367   1.365   7.324   2.851
 8824SOL     OW28368  10.210   2.383   6.743
 8824SOL    HW128369  10.298   2.373   6.706
 8824SOL    HW228370  10.224   2.389   6.837
 8825SOL     OW28371   0.352  12.256   5.933
 8825SOL    HW128372   0.344  12.279   6.025
 8825SOL    HW228373   0.364  12.161   5.933
 8826SOL     OW28374   2.078  10.785  12.622
 8826SOL    HW128375   2.062  10.733  12.544
 8826SOL    HW228376   2.080  10.721  12.694
 8827SOL     OW28377  10.708   6.258  12.069
 8827SOL    HW128378  10.644   6.239  12.000
 8827SOL    HW228379  10.792   6.259  12.025
 8828SOL     OW28380   7.919   4.525  14.343
 8828SOL    HW128381   7.843   4.529  14.400
 8828SOL    HW228382   7.917   4.607  14.294
 8829SOL     OW28383   2.212   9.178   4.085
 8829SOL    HW128384   2.239   9.164   4.176
 8829SOL    HW228385   2.252   9.106   4.037
 8830SOL     OW28386  10.544   0.465   3.298
 8830SOL    HW128387  10.580   0.390   3.251
 8830SOL    HW228388  10.526   0.530   3.230
 8831SOL     OW28389   6.964   7.228   8.312
 8831SOL    HW128390   6.983   7.140   8.344
 8831SOL    HW228391   6.973   7.285   8.389
 8832SOL     OW28392   6.753   2.322  13.485
 8832SOL    HW128393   6.671   2.371  13.472
 8832SOL    HW228394   6.725   2.230  13.487
 8833SOL     OW28395   2.871   7.066  13.956
 8833SOL    HW128396   2.802   7.031  14.013
 8833SOL    HW228397   2.883   7.156  13.985
 8834SOL     OW28398   2.371   8.359   3.017
 8834SOL    HW128399   2.310   8.285   3.021
 8834SOL    HW228400   2.424   8.352   3.097
 8835SOL     OW28401   3.056   6.770   0.695
 8835SOL    HW128402   3.009   6.854   0.700
 8835SOL    HW228403   2.999   6.708   0.739
 8836SOL     OW28404  14.507  14.280   6.724
 8836SOL    HW128405  14.482  14.202   6.674
 8836SOL    HW228406  14.602  14.275   6.728
 8837SOL     OW28407   0.843   3.676   7.536
 8837SOL    HW128408   0.801   3.590   7.538
 8837SOL    HW228409   0.882   3.681   7.448
 8838SOL     OW28410   8.406   9.615  11.251
 8838SOL    HW128411   8.385   9.663  11.170
 8838SOL    HW228412   8.353   9.535  11.245
 8839SOL     OW28413   4.301  11.218  14.453
 8839SOL    HW128414   4.348  11.204  14.536
 8839SOL    HW228415   4.333  11.148  14.396
 8840SOL     OW28416  14.470  13.153   7.743
 8840SOL    HW128417  14.503  13.242   7.729
 8840SOL    HW228418  14.425  13.157   7.827
 8841SOL     OW28419  11.636   4.747   7.176
 8841SOL    HW128420  11.542   4.766   7.177
 8841SOL    HW228421  11.657   4.733   7.084
 8842SOL     OW28422  12.240   0.367   4.881
 8842SOL    HW128423  12.329   0.345   4.909
 8842SOL    HW228424  12.219   0.301   4.814
 8843SOL     OW28425   8.528   7.085   1.756
 8843SOL    HW128426   8.564   7.103   1.843
 8843SOL    HW228427   8.479   7.004   1.766
 8844SOL     OW28428   6.954   6.402   9.750
 8844SOL    HW128429   6.864   6.434   9.745
 8844SOL    HW228430   6.977   6.379   9.660
 8845SOL     OW28431   7.715   2.614   7.777
 8845SOL    HW128432   7.653   2.581   7.842
 8845SOL    HW228433   7.801   2.602   7.819
 8846SOL     OW28434   5.637   8.008   7.860
 8846SOL    HW128435   5.544   8.004   7.879
 8846SOL    HW228436   5.662   8.098   7.881
 8847SOL     OW28437   7.139   2.064   0.208
 8847SOL    HW128438   7.063   2.113   0.238
 8847SOL    HW228439   7.102   1.984   0.170
 8848SOL     OW28440   6.380  13.106   7.661
 8848SOL    HW128441   6.309  13.058   7.617
 8848SOL    HW228442   6.413  13.166   7.594
 8849SOL     OW28443   5.760   4.107   8.721
 8849SOL    HW128444   5.731   4.097   8.812
 8849SOL    HW228445   5.693   4.063   8.669
 8850SOL     OW28446   4.572   2.189   0.632
 8850SOL    HW128447   4.562   2.249   0.706
 8850SOL    HW228448   4.610   2.110   0.671
 8851SOL     OW28449   7.030   6.962   4.794
 8851SOL    HW128450   7.118   6.937   4.824
 8851SOL    HW228451   6.972   6.896   4.831
 8852SOL     OW28452  13.554   8.704   8.381
 8852SOL    HW128453  13.571   8.645   8.454
 8852SOL    HW228454  13.486   8.660   8.330
 8853SOL     OW28455  11.393   5.655   9.973
 8853SOL    HW128456  11.445   5.659  10.053
 8853SOL    HW228457  11.396   5.563   9.946
 8854SOL     OW28458   3.794  11.594  10.512
 8854SOL    HW128459   3.840  11.584  10.429
 8854SOL    HW228460   3.706  11.562  10.495
 8855SOL     OW28461   9.018  11.698   2.237
 8855SOL    HW128462   8.968  11.692   2.318
 8855SOL    HW228463   9.044  11.790   2.231
 8856SOL     OW28464  10.253  13.139   3.689
 8856SOL    HW128465  10.227  13.068   3.748
 8856SOL    HW228466  10.260  13.216   3.746
 8857SOL     OW28467  14.643   0.655   2.843
 8857SOL    HW128468  14.693   0.708   2.904
 8857SOL    HW228469  14.570   0.620   2.895
 8858SOL     OW28470   7.056   5.596   9.945
 8858SOL    HW128471   6.992   5.667   9.949
 8858SOL    HW228472   7.053   5.556  10.032
 8859SOL     OW28473   4.441   7.380   7.683
 8859SOL    HW128474   4.401   7.462   7.655
 8859SOL    HW228475   4.478   7.399   7.769
 8860SOL     OW28476   2.816  10.041  11.303
 8860SOL    HW128477   2.882  10.110  11.308
 8860SOL    HW228478   2.758  10.058  11.377
 8861SOL     OW28479  11.412  12.146   8.383
 8861SOL    HW128480  11.344  12.172   8.321
 8861SOL    HW228481  11.402  12.051   8.392
 8862SOL     OW28482   0.503  12.488   7.598
 8862SOL    HW128483   0.514  12.582   7.614
 8862SOL    HW228484   0.424  12.482   7.544
 8863SOL     OW28485   4.107  14.155  14.344
 8863SOL    HW128486   4.057  14.176  14.422
 8863SOL    HW228487   4.198  14.161  14.371
 8864SOL     OW28488   5.608   5.843   6.322
 8864SOL    HW128489   5.631   5.895   6.399
 8864SOL    HW228490   5.666   5.767   6.326
 8865SOL     OW28491   1.213   1.416   4.299
 8865SOL    HW128492   1.264   1.470   4.360
 8865SOL    HW228493   1.128   1.459   4.294
 8866SOL     OW28494  11.149   3.780  13.869
 8866SOL    HW128495  11.190   3.717  13.928
 8866SOL    HW228496  11.099   3.726  13.807
 8867SOL     OW28497  11.595   9.121   4.138
 8867SOL    HW128498  11.601   9.194   4.200
 8867SOL    HW228499  11.543   9.156   4.065
 8868SOL     OW28500  13.155   8.746  14.267
 8868SOL    HW128501  13.092   8.698  14.214
 8868SOL    HW228502  13.144   8.710  14.355
 8869SOL     OW28503   2.812  11.358   6.754
 8869SOL    HW128504   2.798  11.293   6.685
 8869SOL    HW228505   2.727  11.365   6.797
 8870SOL     OW28506  14.727   2.386  10.634
 8870SOL    HW128507  14.791   2.372  10.565
 8870SOL    HW228508  14.664   2.314  10.624
 8871SOL     OW28509   9.452   9.007  13.151
 8871SOL    HW128510   9.450   8.945  13.078
 8871SOL    HW228511   9.521   9.069  13.128
 8872SOL     OW28512  10.346   1.680   1.644
 8872SOL    HW128513  10.361   1.587   1.630
 8872SOL    HW228514  10.408   1.723   1.585
 8873SOL     OW28515   5.858   3.578   3.493
 8873SOL    HW128516   5.803   3.656   3.502
 8873SOL    HW228517   5.878   3.574   3.399
 8874SOL     OW28518   0.492   6.945   1.061
 8874SOL    HW128519   0.564   7.006   1.047
 8874SOL    HW228520   0.413   6.994   1.039
 8875SOL     OW28521  11.771   9.429   9.484
 8875SOL    HW128522  11.844   9.374   9.511
 8875SOL    HW228523  11.800   9.518   9.505
 8876SOL     OW28524   3.923   6.232  14.662
 8876SOL    HW128525   3.894   6.152  14.619
 8876SOL    HW228526   3.943   6.206  14.752
 8877SOL     OW28527  10.762   5.361   0.523
 8877SOL    HW128528  10.775   5.454   0.538
 8877SOL    HW228529  10.681   5.340   0.569
 8878SOL     OW28530  11.461   9.427  10.819
 8878SOL    HW128531  11.553   9.405  10.834
 8878SOL    HW228532  11.423   9.347  10.785
 8879SOL     OW28533  10.691   9.552   7.837
 8879SOL    HW128534  10.632   9.488   7.797
 8879SOL    HW228535  10.726   9.507   7.914
 8880SOL     OW28536   5.501   5.357   0.673
 8880SOL    HW128537   5.521   5.386   0.762
 8880SOL    HW228538   5.562   5.406   0.618
 8881SOL     OW28539   5.150  10.935  10.217
 8881SOL    HW128540   5.205  10.995  10.167
 8881SOL    HW228541   5.208  10.863  10.242
 8882SOL     OW28542   8.660   9.925   0.191
 8882SOL    HW128543   8.697   9.838   0.206
 8882SOL    HW228544   8.678   9.943   0.098
 8883SOL     OW28545   2.519   5.625   3.381
 8883SOL    HW128546   2.439   5.675   3.392
 8883SOL    HW228547   2.590   5.687   3.401
 8884SOL     OW28548   5.983   2.945  10.318
 8884SOL    HW128549   6.002   2.852  10.305
 8884SOL    HW228550   5.954   2.976  10.232
 8885SOL     OW28551   7.262   6.565   4.039
 8885SOL    HW128552   7.338   6.510   4.019
 8885SOL    HW228553   7.194   6.535   3.978
 8886SOL     OW28554   3.953  11.463   9.516
 8886SOL    HW128555   4.003  11.529   9.468
 8886SOL    HW228556   4.018  11.418   9.570
 8887SOL     OW28557   0.304   6.604   3.283
 8887SOL    HW128558   0.211   6.582   3.278
 8887SOL    HW228559   0.306   6.685   3.335
 8888SOL     OW28560   6.365   2.222   5.972
 8888SOL    HW128561   6.424   2.147   5.978
 8888SOL    HW228562   6.394   2.270   5.894
 8889SOL     OW28563  11.078   6.262  10.724
 8889SOL    HW128564  11.077   6.175  10.763
 8889SOL    HW228565  11.017   6.256  10.650
 8890SOL     OW28566   6.188   6.639   3.977
 8890SOL    HW128567   6.139   6.577   3.923
 8890SOL    HW228568   6.130   6.658   4.051
 8891SOL     OW28569   6.452  11.781  11.204
 8891SOL    HW128570   6.536  11.752  11.170
 8891SOL    HW228571   6.411  11.828  11.131
 8892SOL     OW28572   7.868   3.723  12.987
 8892SOL    HW128573   7.932   3.793  12.976
 8892SOL    HW228574   7.850   3.691  12.899
 8893SOL     OW28575   0.311   6.494  12.933
 8893SOL    HW128576   0.319   6.574  12.984
 8893SOL    HW228577   0.395   6.484  12.889
 8894SOL     OW28578   3.317   8.566   6.536
 8894SOL    HW128579   3.382   8.618   6.582
 8894SOL    HW228580   3.356   8.550   6.449
 8895SOL     OW28581   5.421  11.734  14.160
 8895SOL    HW128582   5.506  11.772  14.179
 8895SOL    HW228583   5.423  11.717  14.065
 8896SOL     OW28584   5.700  14.837   7.991
 8896SOL    HW128585   5.765   0.037   7.978
 8896SOL    HW228586   5.651  14.864   8.069
 8897SOL     OW28587   8.723   8.897  13.139
 8897SOL    HW128588   8.804   8.946  13.129
 8897SOL    HW228589   8.657   8.963  13.163
 8898SOL     OW28590  10.546  14.555  14.105
 8898SOL    HW128591  10.572  14.534  14.195
 8898SOL    HW228592  10.616  14.611  14.072
 8899SOL     OW28593   7.797   1.350   8.930
 8899SOL    HW128594   7.834   1.328   8.844
 8899SOL    HW228595   7.873   1.371   8.984
 8900SOL     OW28596   2.507   6.430   8.051
 8900SOL    HW128597   2.556   6.351   8.074
 8900SOL    HW228598   2.418   6.400   8.037
 8901SOL     OW28599   2.184   0.102   5.568
 8901SOL    HW128600   2.190   0.181   5.621
 8901SOL    HW228601   2.270   0.060   5.577
 8902SOL     OW28602  13.144   4.848   3.277
 8902SOL    HW128603  13.193   4.899   3.341
 8902SOL    HW228604  13.161   4.892   3.193
 8903SOL     OW28605   2.611   1.763   8.487
 8903SOL    HW128606   2.671   1.723   8.424
 8903SOL    HW228607   2.667   1.812   8.546
 8904SOL     OW28608  13.567  14.099   6.338
 8904SOL    HW128609  13.582  14.167   6.273
 8904SOL    HW228610  13.471  14.090   6.342
 8905SOL     OW28611   0.999   3.372   8.667
 8905SOL    HW128612   1.070   3.329   8.715
 8905SOL    HW228613   0.963   3.435   8.729
 8906SOL     OW28614   9.919  13.153   4.015
 8906SOL    HW128615   9.879  13.145   4.102
 8906SOL    HW228616   9.847  13.175   3.957
 8907SOL     OW28617  12.893   3.015   2.414
 8907SOL    HW128618  12.806   2.987   2.442
 8907SOL    HW228619  12.889   3.111   2.412
 8908SOL     OW28620  12.184   0.528   9.649
 8908SOL    HW128621  12.128   0.451   9.657
 8908SOL    HW228622  12.235   0.512   9.569
 8909SOL     OW28623   9.404   1.309   7.277
 8909SOL    HW128624   9.361   1.267   7.352
 8909SOL    HW228625   9.486   1.262   7.267
 8910SOL     OW28626   6.457   7.837  11.085
 8910SOL    HW128627   6.513   7.874  11.017
 8910SOL    HW228628   6.487   7.746  11.095
 8911SOL     OW28629   9.908   5.944   0.815
 8911SOL    HW128630   9.838   5.881   0.836
 8911SOL    HW228631   9.864   6.029   0.814
 8912SOL     OW28632   0.049  10.972   9.964
 8912SOL    HW128633   0.016  10.890  10.001
 8912SOL    HW228634   0.092  10.946   9.883
 8913SOL     OW28635   9.122   9.823   3.258
 8913SOL    HW128636   9.177   9.833   3.336
 8913SOL    HW228637   9.034   9.842   3.289
 8914SOL     OW28638   5.583   4.870  11.817
 8914SOL    HW128639   5.676   4.890  11.818
 8914SOL    HW228640   5.571   4.805  11.886
 8915SOL     OW28641   4.190  11.713  12.833
 8915SOL    HW128642   4.136  11.635  12.841
 8915SOL    HW228643   4.132  11.780  12.798
 8916SOL     OW28644  11.621   2.091   0.333
 8916SOL    HW128645  11.605   2.156   0.402
 8916SOL    HW228646  11.714   2.069   0.341
 8917SOL     OW28647   6.163   3.239   4.856
 8917SOL    HW128648   6.120   3.296   4.793
 8917SOL    HW228649   6.162   3.289   4.938
 8918SOL     OW28650   3.340   5.295  12.223
 8918SOL    HW128651   3.344   5.382  12.264
 8918SOL    HW228652   3.346   5.234  12.296
 8919SOL     OW28653   5.377   3.470   7.720
 8919SOL    HW128654   5.422   3.515   7.649
 8919SOL    HW228655   5.411   3.380   7.717
 8920SOL     OW28656   2.618   0.747   7.836
 8920SOL    HW128657   2.701   0.794   7.825
 8920SOL    HW228658   2.570   0.797   7.902
 8921SOL     OW28659  11.101  12.470  14.776
 8921SOL    HW128660  11.056  12.535  14.830
 8921SOL    HW228661  11.166  12.520  14.727
 8922SOL     OW28662   2.347   8.862  12.107
 8922SOL    HW128663   2.340   8.812  12.026
 8922SOL    HW228664   2.404   8.810  12.163
 8923SOL     OW28665  10.700   4.230  11.132
 8923SOL    HW128666  10.652   4.237  11.214
 8923SOL    HW228667  10.740   4.316  11.120
 8924SOL     OW28668   5.455  12.985   0.069
 8924SOL    HW128669   5.482  13.044   0.140
 8924SOL    HW228670   5.503  13.016  14.862
 8925SOL     OW28671   8.157  14.721   1.798
 8925SOL    HW128672   8.150  14.628   1.777
 8925SOL    HW228673   8.112  14.730   1.882
 8926SOL     OW28674  13.563   4.294   9.008
 8926SOL    HW128675  13.612   4.234   8.952
 8926SOL    HW228676  13.627   4.322   9.074
 8927SOL     OW28677   0.266   1.342  14.551
 8927SOL    HW128678   0.201   1.320  14.484
 8927SOL    HW228679   0.239   1.292  14.628
 8928SOL     OW28680   6.387   2.527   2.344
 8928SOL    HW128681   6.446   2.511   2.417
 8928SOL    HW228682   6.301   2.536   2.384
 8929SOL     OW28683  10.020  13.484  12.813
 8929SOL    HW128684  10.072  13.515  12.739
 8929SOL    HW228685  10.019  13.389  12.804
 8930SOL     OW28686   0.666   1.279  11.988
 8930SOL    HW128687   0.593   1.276  12.048
 8930SOL    HW228688   0.626   1.283  11.901
 8931SOL     OW28689  13.531  12.372   2.368
 8931SOL    HW128690  13.541  12.345   2.459
 8931SOL    HW228691  13.597  12.440   2.355
 8932SOL     OW28692   2.508   4.146   4.536
 8932SOL    HW128693   2.429   4.154   4.484
 8932SOL    HW228694   2.579   4.141   4.471
 8933SOL     OW28695   6.791   1.604   8.744
 8933SOL    HW128696   6.718   1.642   8.695
 8933SOL    HW228697   6.770   1.623   8.836
 8934SOL     OW28698   5.609   0.548   8.778
 8934SOL    HW128699   5.697   0.512   8.771
 8934SOL    HW228700   5.622   0.640   8.798
 8935SOL     OW28701   4.521  10.462  10.655
 8935SOL    HW128702   4.603  10.503  10.681
 8935SOL    HW228703   4.522  10.467  10.559
 8936SOL     OW28704   5.764  10.487   3.419
 8936SOL    HW128705   5.804  10.523   3.341
 8936SOL    HW228706   5.708  10.416   3.387
 8937SOL     OW28707   8.096   1.171  14.840
 8937SOL    HW128708   8.119   1.154  14.749
 8937SOL    HW228709   8.075   1.264  14.842
 8938SOL     OW28710   0.958  10.396   8.795
 8938SOL    HW128711   0.992  10.309   8.817
 8938SOL    HW228712   1.036  10.449   8.778
 8939SOL     OW28713   2.984  12.676  10.059
 8939SOL    HW128714   2.981  12.659  10.153
 8939SOL    HW228715   2.898  12.648  10.027
 8940SOL     OW28716   2.020   3.346   1.503
 8940SOL    HW128717   2.097   3.375   1.454
 8940SOL    HW228718   1.976   3.284   1.445
 8941SOL     OW28719   8.212   4.096   3.831
 8941SOL    HW128720   8.155   4.035   3.876
 8941SOL    HW228721   8.238   4.050   3.751
 8942SOL     OW28722   2.125   3.870  13.826
 8942SOL    HW128723   2.175   3.917  13.760
 8942SOL    HW228724   2.148   3.778  13.813
 8943SOL     OW28725   7.311   2.456   1.488
 8943SOL    HW128726   7.376   2.470   1.419
 8943SOL    HW228727   7.288   2.544   1.518
 8944SOL     OW28728   6.654  14.597   5.331
 8944SOL    HW128729   6.728  14.584   5.272
 8944SOL    HW228730   6.680  14.554   5.413
 8945SOL     OW28731  11.244   5.876   3.312
 8945SOL    HW128732  11.338   5.894   3.309
 8945SOL    HW228733  11.213   5.892   3.223
 8946SOL     OW28734  14.149  12.199   8.610
 8946SOL    HW128735  14.242  12.204   8.633
 8946SOL    HW228736  14.148  12.177   8.517
 8947SOL     OW28737   1.714   9.371   3.397
 8947SOL    HW128738   1.783   9.395   3.460
 8947SOL    HW228739   1.635   9.413   3.432
 8948SOL     OW28740  13.130   1.590   2.307
 8948SOL    HW128741  13.101   1.645   2.379
 8948SOL    HW228742  13.210   1.631   2.275
 8949SOL     OW28743  11.800   1.949  12.236
 8949SOL    HW128744  11.776   1.860  12.261
 8949SOL    HW228745  11.716   1.994  12.222
 8950SOL     OW28746   3.491  11.698   4.073
 8950SOL    HW128747   3.515  11.688   4.165
 8950SOL    HW228748   3.527  11.783   4.048
 8951SOL     OW28749   6.192  12.992   7.514
 8951SOL    HW128750   6.221  12.998   7.423
 8951SOL    HW228751   6.200  12.899   7.535
 8952SOL     OW28752   9.781  10.693  14.228
 8952SOL    HW128753   9.805  10.611  14.271
 8952SOL    HW228754   9.685  10.695  14.231
 8953SOL     OW28755   4.983   7.985  11.971
 8953SOL    HW128756   5.070   7.946  11.966
 8953SOL    HW228757   4.996   8.078  11.951
 8954SOL     OW28758   5.238   1.064  13.779
 8954SOL    HW128759   5.314   1.114  13.749
 8954SOL    HW228760   5.243   0.981  13.730
 8955SOL     OW28761  11.359   1.109   8.109
 8955SOL    HW128762  11.273   1.151   8.115
 8955SOL    HW228763  11.399   1.123   8.195
 8956SOL     OW28764  10.222  10.108   1.930
 8956SOL    HW128765  10.132  10.133   1.910
 8956SOL    HW228766  10.259  10.185   1.973
 8957SOL     OW28767   5.016   2.895  11.525
 8957SOL    HW128768   5.086   2.958  11.509
 8957SOL    HW228769   5.015   2.841  11.447
 8958SOL     OW28770   3.305   6.993   7.411
 8958SOL    HW128771   3.335   7.070   7.362
 8958SOL    HW228772   3.221   7.019   7.448
 8959SOL     OW28773   3.994   1.017  12.783
 8959SOL    HW128774   3.975   0.926  12.760
 8959SOL    HW228775   3.948   1.030  12.866
 8960SOL     OW28776   7.738  10.693   5.828
 8960SOL    HW128777   7.701  10.638   5.759
 8960SOL    HW228778   7.663  10.712   5.885
 8961SOL     OW28779   5.470   9.294   5.721
 8961SOL    HW128780   5.463   9.317   5.814
 8961SOL    HW228781   5.394   9.237   5.705
 8962SOL     OW28782   6.791   7.118  12.230
 8962SOL    HW128783   6.711   7.133  12.281
 8962SOL    HW228784   6.831   7.041  12.270
 8963SOL     OW28785   4.438   5.023  10.385
 8963SOL    HW128786   4.462   5.090  10.449
 8963SOL    HW228787   4.344   5.008  10.401
 8964SOL     OW28788   6.753   0.813  13.943
 8964SOL    HW128789   6.701   0.885  13.978
 8964SOL    HW228790   6.704   0.784  13.866
 8965SOL     OW28791  10.675  13.462   0.530
 8965SOL    HW128792  10.684  13.442   0.623
 8965SOL    HW228793  10.677  13.377   0.487
 8966SOL     OW28794   8.196   9.736  13.893
 8966SOL    HW128795   8.166   9.802  13.956
 8966SOL    HW228796   8.291   9.751  13.886
 8967SOL     OW28797  10.336   0.201   3.663
 8967SOL    HW128798  10.357   0.262   3.592
 8967SOL    HW228799  10.276   0.251   3.719
 8968SOL     OW28800   5.487   0.618   3.966
 8968SOL    HW128801   5.530   0.561   4.030
 8968SOL    HW228802   5.454   0.691   4.018
 8969SOL     OW28803  12.209   1.322   0.923
 8969SOL    HW128804  12.163   1.400   0.893
 8969SOL    HW228805  12.141   1.266   0.960
 8970SOL     OW28806   7.414   3.726  12.477
 8970SOL    HW128807   7.490   3.670  12.460
 8970SOL    HW228808   7.446   3.815  12.464
 8971SOL     OW28809   7.977   5.525   8.089
 8971SOL    HW128810   8.043   5.575   8.042
 8971SOL    HW228811   8.027   5.469   8.149
 8972SOL     OW28812   9.746   0.529  10.237
 8972SOL    HW128813   9.735   0.472  10.313
 8972SOL    HW228814   9.680   0.498  10.174
 8973SOL     OW28815   1.134   7.427  10.620
 8973SOL    HW128816   1.198   7.457  10.684
 8973SOL    HW228817   1.061   7.488  10.629
 8974SOL     OW28818  14.587   6.009   8.083
 8974SOL    HW128819  14.638   5.956   8.144
 8974SOL    HW228820  14.560   6.085   8.134
 8975SOL     OW28821  11.402   1.821   0.010
 8975SOL    HW128822  11.327   1.829  14.821
 8975SOL    HW228823  11.449   1.744  14.849
 8976SOL     OW28824  13.142   1.196   1.881
 8976SOL    HW128825  13.086   1.148   1.820
 8976SOL    HW228826  13.180   1.267   1.829
 8977SOL     OW28827   1.948   5.100   5.076
 8977SOL    HW128828   1.945   5.007   5.053
 8977SOL    HW228829   1.900   5.144   5.006
 8978SOL     OW28830   8.496   1.657   0.139
 8978SOL    HW128831   8.528   1.722   0.077
 8978SOL    HW228832   8.573   1.604   0.160
 8979SOL     OW28833  10.288  10.967   9.372
 8979SOL    HW128834  10.277  10.880   9.332
 8979SOL    HW228835  10.349  10.953   9.444
 8980SOL     OW28836  10.553   0.900   7.960
 8980SOL    HW128837  10.565   0.994   7.950
 8980SOL    HW228838  10.609   0.876   8.034
 8981SOL     OW28839  10.198   2.935  11.997
 8981SOL    HW128840  10.235   3.023  11.990
 8981SOL    HW228841  10.118   2.946  12.047
 8982SOL     OW28842   5.627   0.600   7.530
 8982SOL    HW128843   5.624   0.690   7.561
 8982SOL    HW228844   5.710   0.566   7.563
 8983SOL     OW28845   0.091   2.022   3.204
 8983SOL    HW128846   0.055   2.036   3.116
 8983SOL    HW228847   0.030   1.962   3.246
 8984SOL     OW28848   9.738   7.746   0.368
 8984SOL    HW128849   9.683   7.698   0.307
 8984SOL    HW228850   9.730   7.698   0.451
 8985SOL     OW28851  11.981   9.313   3.663
 8985SOL    HW128852  11.925   9.268   3.726
 8985SOL    HW228853  11.976   9.259   3.584
 8986SOL     OW28854   1.831   1.740   0.896
 8986SOL    HW128855   1.881   1.664   0.867
 8986SOL    HW228856   1.814   1.790   0.815
 8987SOL     OW28857  13.155   9.993  13.298
 8987SOL    HW128858  13.228  10.004  13.358
 8987SOL    HW228859  13.190   9.942  13.226
 8988SOL     OW28860  13.841   8.268   4.850
 8988SOL    HW128861  13.857   8.174   4.850
 8988SOL    HW228862  13.804   8.287   4.764
 8989SOL     OW28863  12.245   4.376   0.117
 8989SOL    HW128864  12.302   4.397   0.191
 8989SOL    HW228865  12.277   4.432   0.046
 8990SOL     OW28866  11.188   2.352  13.383
 8990SOL    HW128867  11.119   2.404  13.427
 8990SOL    HW228868  11.237   2.416  13.332
 8991SOL     OW28869   1.235   8.184  12.879
 8991SOL    HW128870   1.206   8.095  12.860
 8991SOL    HW228871   1.155   8.237  12.871
 8992SOL     OW28872   4.518   7.612  13.757
 8992SOL    HW128873   4.509   7.638  13.666
 8992SOL    HW228874   4.475   7.682  13.807
 8993SOL     OW28875   7.191  11.809   9.082
 8993SOL    HW128876   7.112  11.802   9.136
 8993SOL    HW228877   7.255  11.754   9.127
 8994SOL     OW28878   8.801  10.385  13.225
 8994SOL    HW128879   8.748  10.460  13.195
 8994SOL    HW228880   8.889  10.404  13.193
 8995SOL     OW28881  11.761   5.242   3.023
 8995SOL    HW128882  11.797   5.325   2.993
 8995SOL    HW228883  11.806   5.225   3.106
 8996SOL     OW28884  11.737  13.348   8.782
 8996SOL    HW128885  11.780  13.272   8.745
 8996SOL    HW228886  11.696  13.391   8.708
 8997SOL     OW28887  10.301  11.914   1.929
 8997SOL    HW128888  10.228  11.950   1.979
 8997SOL    HW228889  10.305  11.822   1.954
 8998SOL     OW28890  10.464  13.169   7.004
 8998SOL    HW128891  10.490  13.096   6.948
 8998SOL    HW228892  10.543  13.192   7.051
 8999SOL     OW28893   9.865   1.419   3.025
 8999SOL    HW128894   9.798   1.455   3.083
 8999SOL    HW228895   9.937   1.482   3.028
 9000SOL     OW28896   5.492   0.317  10.883
 9000SOL    HW128897   5.430   0.300  10.954
 9000SOL    HW228898   5.437   0.331  10.806
 9001SOL     OW28899   5.948  14.286   3.940
 9001SOL    HW128900   5.899  14.364   3.969
 9001SOL    HW228901   5.912  14.215   3.994
 9002SOL     OW28902   5.471   2.711   8.098
 9002SOL    HW128903   5.519   2.671   8.171
 9002SOL    HW228904   5.381   2.720   8.131
 9003SOL     OW28905   6.191   5.086  13.194
 9003SOL    HW128906   6.170   5.033  13.117
 9003SOL    HW228907   6.241   5.160  13.160
 9004SOL     OW28908  13.813  10.340   6.676
 9004SOL    HW128909  13.742  10.286   6.642
 9004SOL    HW228910  13.881  10.276   6.700
 9005SOL     OW28911   3.070  10.141   5.024
 9005SOL    HW128912   3.111  10.055   5.035
 9005SOL    HW228913   3.010  10.131   4.950
 9006SOL     OW28914   5.046   0.954  11.613
 9006SOL    HW128915   5.077   1.044  11.627
 9006SOL    HW228916   4.994   0.959  11.532
 9007SOL     OW28917   7.539   9.171  13.181
 9007SOL    HW128918   7.606   9.216  13.233
 9007SOL    HW228919   7.585   9.141  13.103
 9008SOL     OW28920  10.545  11.080   0.756
 9008SOL    HW128921  10.532  11.170   0.787
 9008SOL    HW228922  10.639  11.064   0.768
 9009SOL     OW28923  10.621   4.082   9.588
 9009SOL    HW128924  10.655   4.118   9.670
 9009SOL    HW228925  10.692   4.096   9.525
 9010SOL     OW28926   9.253   1.104  13.224
 9010SOL    HW128927   9.317   1.164  13.263
 9010SOL    HW228928   9.304   1.025  13.203
 9011SOL     OW28929   1.562  14.331   5.323
 9011SOL    HW128930   1.552  14.298   5.233
 9011SOL    HW228931   1.619  14.407   5.314
 9012SOL     OW28932   3.657  11.955   1.894
 9012SOL    HW128933   3.742  11.927   1.928
 9012SOL    HW228934   3.627  11.881   1.841
 9013SOL     OW28935   2.294  13.817  13.075
 9013SOL    HW128936   2.243  13.878  13.127
 9013SOL    HW228937   2.346  13.872  13.017
 9014SOL     OW28938  13.006   0.055   6.790
 9014SOL    HW128939  13.073   0.101   6.740
 9014SOL    HW228940  12.937   0.121   6.803
 9015SOL     OW28941   3.941  12.638   3.939
 9015SOL    HW128942   3.852  12.672   3.948
 9015SOL    HW228943   3.929  12.543   3.929
 9016SOL     OW28944   1.954   3.221   0.537
 9016SOL    HW128945   2.040   3.260   0.549
 9016SOL    HW228946   1.940   3.221   0.442
 9017SOL     OW28947   6.834  12.331  11.799
 9017SOL    HW128948   6.838  12.426  11.804
 9017SOL    HW228949   6.758  12.313  11.744
 9018SOL     OW28950  12.693   6.348   5.084
 9018SOL    HW128951  12.753   6.355   5.158
 9018SOL    HW228952  12.713   6.425   5.030
 9019SOL     OW28953  13.815  13.188  11.742
 9019SOL    HW128954  13.798  13.212  11.833
 9019SOL    HW228955  13.771  13.104  11.730
 9020SOL     OW28956  10.835   6.376  11.191
 9020SOL    HW128957  10.884   6.377  11.274
 9020SOL    HW228958  10.870   6.450  11.141
 9021SOL     OW28959   5.960   7.926   0.334
 9021SOL    HW128960   5.865   7.916   0.320
 9021SOL    HW228961   5.975   7.888   0.420
 9022SOL     OW28962  13.109  13.690   1.212
 9022SOL    HW128963  13.198  13.655   1.210
 9022SOL    HW228964  13.118  13.782   1.187
 9023SOL     OW28965  10.994  12.876   5.868
 9023SOL    HW128966  10.986  12.934   5.792
 9023SOL    HW228967  11.088  12.865   5.880
 9024SOL     OW28968  10.616   1.456  12.272
 9024SOL    HW128969  10.535   1.423  12.311
 9024SOL    HW228970  10.592   1.477  12.182
 9025SOL     OW28971   1.727   7.521   6.911
 9025SOL    HW128972   1.814   7.540   6.946
 9025SOL    HW228973   1.722   7.425   6.910
 9026SOL     OW28974   4.000   1.024  10.184
 9026SOL    HW128975   4.079   0.970  10.184
 9026SOL    HW228976   3.955   1.002  10.103
 9027SOL     OW28977   1.086   9.023   5.348
 9027SOL    HW128978   1.051   9.111   5.334
 9027SOL    HW228979   1.072   9.006   5.442
 9028SOL     OW28980   3.238   5.874   2.171
 9028SOL    HW128981   3.260   5.891   2.079
 9028SOL    HW228982   3.289   5.938   2.220
 9029SOL     OW28983  13.983   6.589  13.331
 9029SOL    HW128984  13.933   6.664  13.362
 9029SOL    HW228985  13.917   6.529  13.295
 9030SOL     OW28986  13.965  11.522  13.994
 9030SOL    HW128987  14.057  11.507  14.017
 9030SOL    HW228988  13.964  11.611  13.959
 9031SOL     OW28989  14.669  14.156   2.436
 9031SOL    HW128990  14.754  14.171   2.395
 9031SOL    HW228991  14.690  14.140   2.529
 9032SOL     OW28992   5.214   7.343   3.665
 9032SOL    HW128993   5.140   7.340   3.724
 9032SOL    HW228994   5.290   7.354   3.722
 9033SOL     OW28995   6.836   5.018  11.137
 9033SOL    HW128996   6.827   4.996  11.044
 9033SOL    HW228997   6.893   4.949  11.171
 9034SOL     OW28998   0.349   0.583  10.407
 9034SOL    HW128999   0.386   0.508  10.360
 9034SOL    HW229000   0.353   0.655  10.343
 9035SOL     OW29001   9.154   8.661   5.861
 9035SOL    HW129002   9.178   8.751   5.840
 9035SOL    HW229003   9.078   8.643   5.806
 9036SOL     OW29004   9.108  12.957   5.731
 9036SOL    HW129005   9.128  13.036   5.681
 9036SOL    HW229006   9.140  12.976   5.820
 9037SOL     OW29007  13.365  14.557  11.408
 9037SOL    HW129008  13.304  14.523  11.343
 9037SOL    HW229009  13.314  14.623  11.456
 9038SOL     OW29010  14.169   6.479   8.527
 9038SOL    HW129011  14.103   6.414   8.551
 9038SOL    HW229012  14.162   6.547   8.594
 9039SOL     OW29013  12.201   9.708  12.822
 9039SOL    HW129014  12.181   9.802  12.820
 9039SOL    HW229015  12.293   9.704  12.845
 9040SOL     OW29016   5.932   8.100  11.271
 9040SOL    HW129017   5.943   8.174  11.330
 9040SOL    HW229018   5.964   8.131  11.186
 9041SOL     OW29019   1.663   5.894   0.113
 9041SOL    HW129020   1.752   5.911   0.142
 9041SOL    HW229021   1.611   5.965   0.149
 9042SOL     OW29022   5.603   3.017   6.309
 9042SOL    HW129023   5.513   3.013   6.277
 9042SOL    HW229024   5.620   2.929   6.342
 9043SOL     OW29025   9.490   7.375   5.540
 9043SOL    HW129026   9.586   7.371   5.540
 9043SOL    HW229027   9.463   7.294   5.583
 9044SOL     OW29028  14.206   7.274   3.707
 9044SOL    HW129029  14.179   7.354   3.752
 9044SOL    HW229030  14.129   7.218   3.711
 9045SOL     OW29031  13.949  10.298   3.107
 9045SOL    HW129032  13.973  10.345   3.027
 9045SOL    HW229033  13.891  10.358   3.154
 9046SOL     OW29034   6.661  11.170  13.316
 9046SOL    HW129035   6.606  11.248  13.305
 9046SOL    HW229036   6.683  11.144  13.227
 9047SOL     OW29037   9.629   1.948  11.278
 9047SOL    HW129038   9.707   2.000  11.261
 9047SOL    HW229039   9.607   1.967  11.370
 9048SOL     OW29040   5.477  14.502   9.547
 9048SOL    HW129041   5.529  14.497   9.466
 9048SOL    HW229042   5.457  14.411   9.567
 9049SOL     OW29043  12.514   9.063   2.517
 9049SOL    HW129044  12.524   9.093   2.426
 9049SOL    HW229045  12.579   8.993   2.526
 9050SOL     OW29046   0.305  11.357   1.430
 9050SOL    HW129047   0.349  11.429   1.384
 9050SOL    HW229048   0.361  11.339   1.505
 9051SOL     OW29049  10.577  12.534   7.634
 9051SOL    HW129050  10.533  12.524   7.550
 9051SOL    HW229051  10.592  12.445   7.664
 9052SOL     OW29052  13.674   0.758   4.552
 9052SOL    HW129053  13.709   0.687   4.498
 9052SOL    HW229054  13.692   0.838   4.503
 9053SOL     OW29055   9.050   5.052   3.448
 9053SOL    HW129056   9.129   5.105   3.456
 9053SOL    HW229057   9.015   5.076   3.362
 9054SOL     OW29058   8.469  14.804   3.999
 9054SOL    HW129059   8.381  14.819   3.967
 9054SOL    HW229060   8.479  14.708   3.999
 9055SOL     OW29061   3.631   6.398  14.628
 9055SOL    HW129062   3.554   6.443  14.594
 9055SOL    HW229063   3.662   6.455  14.699
 9056SOL     OW29064  12.907   7.868   5.119
 9056SOL    HW129065  12.822   7.901   5.091
 9056SOL    HW229066  12.888   7.817   5.198
 9057SOL     OW29067   4.911   8.574   5.202
 9057SOL    HW129068   4.830   8.554   5.249
 9057SOL    HW229069   4.883   8.627   5.128
 9058SOL     OW29070  11.871   4.130   4.322
 9058SOL    HW129071  11.880   4.093   4.409
 9058SOL    HW229072  11.892   4.058   4.263
 9059SOL     OW29073   4.973  12.731   4.709
 9059SOL    HW129074   4.904  12.726   4.774
 9059SOL    HW229075   4.935  12.695   4.630
 9060SOL     OW29076   6.514  11.794   8.320
 9060SOL    HW129077   6.567  11.744   8.258
 9060SOL    HW229078   6.576  11.855   8.360
 9061SOL     OW29079   7.649  13.571   2.306
 9061SOL    HW129080   7.681  13.482   2.321
 9061SOL    HW229081   7.716  13.612   2.251
 9062SOL     OW29082  13.428   8.496   2.595
 9062SOL    HW129083  13.430   8.591   2.583
 9062SOL    HW229084  13.519   8.472   2.611
 9063SOL     OW29085  10.260  13.769   1.029
 9063SOL    HW129086  10.249  13.806   0.941
 9063SOL    HW229087  10.341  13.808   1.061
 9064SOL     OW29088  11.199  10.387   7.455
 9064SOL    HW129089  11.211  10.482   7.459
 9064SOL    HW229090  11.106  10.376   7.435
 9065SOL     OW29091  13.401   7.122  11.761
 9065SOL    HW129092  13.373   7.071  11.836
 9065SOL    HW229093  13.478   7.170  11.792
 9066SOL     OW29094  14.791  14.191  11.386
 9066SOL    HW129095  14.706  14.147  11.386
 9066SOL    HW229096  14.791  14.244  11.307
 9067SOL     OW29097   6.616  10.760   5.078
 9067SOL    HW129098   6.536  10.736   5.125
 9067SOL    HW229099   6.586  10.789   4.992
 9068SOL     OW29100   7.717   0.486   9.342
 9068SOL    HW129101   7.646   0.451   9.394
 9068SOL    HW229102   7.796   0.465   9.392
 9069SOL     OW29103   6.264   3.942  14.834
 9069SOL    HW129104   6.289   3.975   0.051
 9069SOL    HW229105   6.239   4.021  14.785
 9070SOL     OW29106   2.053   4.221   1.182
 9070SOL    HW129107   2.124   4.174   1.139
 9070SOL    HW229108   2.092   4.303   1.212
 9071SOL     OW29109  13.555   6.031  12.696
 9071SOL    HW129110  13.581   6.092  12.765
 9071SOL    HW229111  13.515   5.958  12.742
 9072SOL     OW29112  12.269   3.333   8.006
 9072SOL    HW129113  12.251   3.427   8.011
 9072SOL    HW229114  12.228   3.305   7.924
 9073SOL     OW29115   4.844  13.561   2.210
 9073SOL    HW129116   4.905  13.549   2.283
 9073SOL    HW229117   4.860  13.651   2.180
 9074SOL     OW29118   9.508   9.799   9.271
 9074SOL    HW129119   9.528   9.708   9.247
 9074SOL    HW229120   9.593   9.840   9.281
 9075SOL     OW29121   5.805  13.406   5.880
 9075SOL    HW129122   5.753  13.484   5.862
 9075SOL    HW229123   5.778  13.343   5.814
 9076SOL     OW29124   2.904  11.313  11.852
 9076SOL    HW129125   2.927  11.223  11.832
 9076SOL    HW229126   2.825  11.330  11.800
 9077SOL     OW29127   7.435  10.386  11.479
 9077SOL    HW129128   7.396  10.301  11.502
 9077SOL    HW229129   7.490  10.367  11.403
 9078SOL     OW29130   8.631  11.676   2.681
 9078SOL    HW129131   8.632  11.581   2.690
 9078SOL    HW229132   8.709  11.706   2.728
 9079SOL     OW29133   9.475  11.535   9.292
 9079SOL    HW129134   9.443  11.453   9.255
 9079SOL    HW229135   9.536  11.508   9.361
 9080SOL     OW29136  12.540   0.024   0.148
 9080SOL    HW129137  12.553   0.116   0.172
 9080SOL    HW229138  12.578  14.845   0.222
 9081SOL     OW29139  14.754   0.305   1.355
 9081SOL    HW129140  14.806   0.301   1.274
 9081SOL    HW229141  14.789   0.379   1.403
 9082SOL     OW29142   2.686   5.794   0.582
 9082SOL    HW129143   2.777   5.801   0.610
 9082SOL    HW229144   2.682   5.710   0.536
 9083SOL     OW29145   5.738  10.651   6.304
 9083SOL    HW129146   5.780  10.596   6.370
 9083SOL    HW229147   5.701  10.589   6.242
 9084SOL     OW29148   1.481   1.965   2.497
 9084SOL    HW129149   1.485   1.873   2.524
 9084SOL    HW229150   1.501   1.963   2.403
 9085SOL     OW29151   7.442   3.250   3.583
 9085SOL    HW129152   7.386   3.172   3.586
 9085SOL    HW229153   7.405   3.304   3.514
 9086SOL     OW29154   6.993  13.388  12.500
 9086SOL    HW129155   6.910  13.390  12.548
 9086SOL    HW229156   7.041  13.314  12.537
 9087SOL     OW29157   7.812   9.126  10.945
 9087SOL    HW129158   7.857   9.125  10.861
 9087SOL    HW229159   7.850   9.201  10.992
 9088SOL     OW29160   7.501  10.329   9.342
 9088SOL    HW129161   7.587  10.287   9.337
 9088SOL    HW229162   7.503  10.379   9.423
 9089SOL     OW29163   8.810  10.607   8.367
 9089SOL    HW129164   8.897  10.601   8.406
 9089SOL    HW229165   8.818  10.560   8.284
 9090SOL     OW29166   0.896  14.061   5.563
 9090SOL    HW129167   0.962  14.129   5.549
 9090SOL    HW229168   0.813  14.109   5.565
 9091SOL     OW29169   7.148  13.324   1.657
 9091SOL    HW129170   7.167  13.239   1.617
 9091SOL    HW229171   7.233  13.365   1.668
 9092SOL     OW29172   2.280  13.164   1.008
 9092SOL    HW129173   2.369  13.160   1.044
 9092SOL    HW229174   2.227  13.197   1.079
 9093SOL     OW29175  10.762  11.733   3.655
 9093SOL    HW129176  10.788  11.774   3.572
 9093SOL    HW229177  10.729  11.647   3.630
 9094SOL     OW29178   9.437   2.654  14.810
 9094SOL    HW129179   9.485   2.571  14.801
 9094SOL    HW229180   9.501   2.716  14.842
 9095SOL     OW29181   5.130   7.196   8.900
 9095SOL    HW129182   5.167   7.149   8.975
 9095SOL    HW229183   5.036   7.176   8.904
 9096SOL     OW29184   3.285   5.840   5.243
 9096SOL    HW129185   3.265   5.907   5.178
 9096SOL    HW229186   3.200   5.816   5.279
 9097SOL     OW29187   6.713   1.610  14.483
 9097SOL    HW129188   6.777   1.539  14.476
 9097SOL    HW229189   6.669   1.612  14.399
 9098SOL     OW29190   0.846   8.829   3.918
 9098SOL    HW129191   0.837   8.901   3.981
 9098SOL    HW229192   0.869   8.753   3.971
 9099SOL     OW29193  11.639  12.792  13.599
 9099SOL    HW129194  11.735  12.786  13.597
 9099SOL    HW229195  11.618  12.845  13.521
 9100SOL     OW29196  14.071   2.166  13.866
 9100SOL    HW129197  14.145   2.214  13.829
 9100SOL    HW229198  14.066   2.198  13.957
 9101SOL     OW29199   2.654   9.316   5.713
 9101SOL    HW129200   2.690   9.243   5.663
 9101SOL    HW229201   2.629   9.381   5.647
 9102SOL     OW29202   2.040  14.606   6.498
 9102SOL    HW129203   2.117  14.554   6.477
 9102SOL    HW229204   1.966  14.554   6.468
 9103SOL     OW29205   9.580   9.332   8.779
 9103SOL    HW129206   9.515   9.262   8.783
 9103SOL    HW229207   9.541   9.399   8.724
 9104SOL     OW29208   9.846   2.833   8.433
 9104SOL    HW129209   9.834   2.928   8.440
 9104SOL    HW229210   9.761   2.797   8.454
 9105SOL     OW29211   6.551   6.509   9.309
 9105SOL    HW129212   6.533   6.602   9.328
 9105SOL    HW229213   6.630   6.490   9.359
 9106SOL     OW29214  12.438  12.512   9.431
 9106SOL    HW129215  12.385  12.591   9.433
 9106SOL    HW229216  12.494  12.518   9.508
 9107SOL     OW29217   8.730  11.121   9.395
 9107SOL    HW129218   8.709  11.045   9.342
 9107SOL    HW229219   8.824  11.111   9.415
 9108SOL     OW29220   9.657   1.908   7.960
 9108SOL    HW129221   9.706   1.966   8.019
 9108SOL    HW229222   9.625   1.966   7.891
 9109SOL     OW29223   2.217   5.376   9.016
 9109SOL    HW129224   2.218   5.309   9.084
 9109SOL    HW229225   2.288   5.351   8.957
 9110SOL     OW29226  14.384  13.643   9.231
 9110SOL    HW129227  14.421  13.595   9.305
 9110SOL    HW229228  14.456  13.650   9.168
 9111SOL     OW29229   4.698   4.069  11.298
 9111SOL    HW129230   4.750   4.149  11.287
 9111SOL    HW229231   4.608   4.100  11.302
 9112SOL     OW29232   2.337  13.326  10.519
 9112SOL    HW129233   2.372  13.243  10.553
 9112SOL    HW229234   2.288  13.301  10.441
 9113SOL     OW29235   2.486  11.718  14.332
 9113SOL    HW129236   2.539  11.778  14.385
 9113SOL    HW229237   2.431  11.673  14.395
 9114SOL     OW29238   3.720   5.537  13.871
 9114SOL    HW129239   3.641   5.561  13.920
 9114SOL    HW229240   3.751   5.457  13.913
 9115SOL     OW29241   2.767   1.406  13.401
 9115SOL    HW129242   2.822   1.479  13.370
 9115SOL    HW229243   2.708   1.388  13.327
 9116SOL     OW29244  10.530   4.800   5.062
 9116SOL    HW129245  10.497   4.799   5.151
 9116SOL    HW229246  10.456   4.772   5.008
 9117SOL     OW29247  13.857  13.434   7.151
 9117SOL    HW129248  13.762  13.440   7.139
 9117SOL    HW229249  13.890  13.519   7.123
 9118SOL     OW29250  11.043   9.643   7.369
 9118SOL    HW129251  11.070   9.735   7.377
 9118SOL    HW229252  10.983   9.643   7.294
 9119SOL     OW29253   3.687   9.677  11.800
 9119SOL    HW129254   3.616   9.664  11.863
 9119SOL    HW229255   3.644   9.713  11.722
 9120SOL     OW29256  10.106  10.752   6.814
 9120SOL    HW129257  10.124  10.658   6.814
 9120SOL    HW229258  10.011  10.757   6.825
 9121SOL     OW29259   6.713   3.967   5.080
 9121SOL    HW129260   6.627   3.965   5.038
 9121SOL    HW229261   6.698   3.931   5.168
 9122SOL     OW29262  10.996   1.326   2.801
 9122SOL    HW129263  11.074   1.305   2.750
 9122SOL    HW229264  10.923   1.319   2.739
 9123SOL     OW29265  14.036  12.906   3.501
 9123SOL    HW129266  13.968  12.972   3.485
 9123SOL    HW229267  13.989  12.831   3.536
 9124SOL     OW29268   6.112   8.944   4.354
 9124SOL    HW129269   6.186   8.894   4.319
 9124SOL    HW229270   6.062   8.881   4.406
 9125SOL     OW29271  10.881   3.989   8.127
 9125SOL    HW129272  10.814   4.053   8.104
 9125SOL    HW229273  10.911   3.953   8.043
 9126SOL     OW29274   3.586   7.815  12.594
 9126SOL    HW129275   3.645   7.849  12.527
 9126SOL    HW229276   3.517   7.881  12.601
 9127SOL     OW29277   4.068  13.418   1.235
 9127SOL    HW129278   4.128  13.473   1.286
 9127SOL    HW229279   4.126  13.367   1.178
 9128SOL     OW29280   0.592   5.985  13.438
 9128SOL    HW129281   0.622   5.907  13.392
 9128SOL    HW229282   0.534   6.029  13.376
 9129SOL     OW29283   8.367   8.254   4.715
 9129SOL    HW129284   8.369   8.319   4.645
 9129SOL    HW229285   8.379   8.305   4.795
 9130SOL     OW29286   2.464  11.407   3.291
 9130SOL    HW129287   2.450  11.356   3.211
 9130SOL    HW229288   2.532  11.470   3.268
 9131SOL     OW29289   0.183   2.728   7.769
 9131SOL    HW129290   0.275   2.709   7.789
 9131SOL    HW229291   0.181   2.744   7.675
 9132SOL     OW29292   1.338  14.256  10.012
 9132SOL    HW129293   1.392  14.235   9.935
 9132SOL    HW229294   1.401  14.278  10.080
 9133SOL     OW29295  12.329   7.145   8.262
 9133SOL    HW129296  12.263   7.164   8.195
 9133SOL    HW229297  12.293   7.069   8.309
 9134SOL     OW29298   2.432   2.750  13.847
 9134SOL    HW129299   2.477   2.717  13.924
 9134SOL    HW229300   2.344   2.713  13.853
 9135SOL     OW29301   2.958   3.918   1.656
 9135SOL    HW129302   2.986   3.885   1.741
 9135SOL    HW229303   2.960   4.013   1.665
 9136SOL     OW29304   2.973   6.395   0.610
 9136SOL    HW129305   2.946   6.368   0.522
 9136SOL    HW229306   2.928   6.479   0.624
 9137SOL     OW29307  12.342   1.986   4.332
 9137SOL    HW129308  12.406   2.057   4.327
 9137SOL    HW229309  12.320   1.981   4.425
 9138SOL     OW29310  11.015   0.656   8.009
 9138SOL    HW129311  10.923   0.675   8.024
 9138SOL    HW229312  11.060   0.738   8.033
 9139SOL     OW29313  10.861   9.382   9.628
 9139SOL    HW129314  10.864   9.292   9.659
 9139SOL    HW229315  10.951   9.414   9.638
 9140SOL     OW29316   6.792   1.172   8.397
 9140SOL    HW129317   6.719   1.234   8.392
 9140SOL    HW229318   6.825   1.165   8.307
 9141SOL     OW29319  12.606  14.542   0.322
 9141SOL    HW129320  12.545  14.502   0.383
 9141SOL    HW229321  12.615  14.632   0.351
 9142SOL     OW29322   1.589  12.881   9.088
 9142SOL    HW129323   1.587  12.786   9.103
 9142SOL    HW229324   1.516  12.915   9.139
 9143SOL     OW29325  10.044   2.124  11.765
 9143SOL    HW129326  10.132   2.121  11.729
 9143SOL    HW229327   9.991   2.164  11.696
 9144SOL     OW29328   6.370  11.925   2.183
 9144SOL    HW129329   6.464  11.910   2.180
 9144SOL    HW229330   6.334  11.844   2.220
 9145SOL     OW29331   4.044   3.254  12.658
 9145SOL    HW129332   4.131   3.266  12.696
 9145SOL    HW229333   4.045   3.308  12.579
 9146SOL     OW29334   5.137   3.184   3.155
 9146SOL    HW129335   5.069   3.117   3.157
 9146SOL    HW229336   5.218   3.138   3.177
 9147SOL     OW29337   1.265   4.412   6.766
 9147SOL    HW129338   1.208   4.384   6.695
 9147SOL    HW229339   1.207   4.459   6.826
 9148SOL     OW29340  14.206   7.903  12.148
 9148SOL    HW129341  14.199   7.981  12.204
 9148SOL    HW229342  14.130   7.850  12.173
 9149SOL     OW29343   9.186  11.033   1.129
 9149SOL    HW129344   9.153  11.101   1.187
 9149SOL    HW229345   9.263  10.999   1.173
 9150SOL     OW29346   8.263   6.818  14.009
 9150SOL    HW129347   8.223   6.738  13.975
 9150SOL    HW229348   8.233   6.887  13.949
 9151SOL     OW29349   9.008   8.375   3.459
 9151SOL    HW129350   9.075   8.412   3.516
 9151SOL    HW229351   9.033   8.404   3.371
 9152SOL     OW29352   9.132  13.403   9.705
 9152SOL    HW129353   9.193  13.342   9.746
 9152SOL    HW229354   9.117  13.471   9.771
 9153SOL     OW29355   1.745   4.627  11.485
 9153SOL    HW129356   1.705   4.554  11.531
 9153SOL    HW229357   1.817   4.588  11.435
 9154SOL     OW29358   6.351   2.776  14.333
 9154SOL    HW129359   6.359   2.829  14.412
 9154SOL    HW229360   6.407   2.700  14.351
 9155SOL     OW29361   2.390   7.825   5.428
 9155SOL    HW129362   2.469   7.800   5.382
 9155SOL    HW229363   2.396   7.780   5.512
 9156SOL     OW29364   5.456  10.427   8.193
 9156SOL    HW129365   5.498  10.344   8.218
 9156SOL    HW229366   5.528  10.482   8.162
 9157SOL     OW29367  14.530   5.488   0.968
 9157SOL    HW129368  14.564   5.482   1.058
 9157SOL    HW229369  14.595   5.539   0.921
 9158SOL     OW29370   5.190  11.867   2.169
 9158SOL    HW129371   5.208  11.961   2.173
 9158SOL    HW229372   5.271  11.828   2.136
 9159SOL     OW29373   3.720  14.235   5.483
 9159SOL    HW129374   3.762  14.167   5.537
 9159SOL    HW229375   3.733  14.316   5.531
 9160SOL     OW29376  10.177   4.281   7.897
 9160SOL    HW129377  10.214   4.332   7.969
 9160SOL    HW229378  10.176   4.191   7.930
 9161SOL     OW29379  13.462   5.190   7.350
 9161SOL    HW129380  13.487   5.282   7.354
 9161SOL    HW229381  13.428   5.170   7.438
 9162SOL     OW29382   4.399  11.808  10.751
 9162SOL    HW129383   4.322  11.841  10.798
 9162SOL    HW229384   4.364  11.764  10.674
 9163SOL     OW29385  11.574   4.805   0.882
 9163SOL    HW129386  11.516   4.880   0.891
 9163SOL    HW229387  11.655   4.842   0.845
 9164SOL     OW29388   6.959   2.374   6.172
 9164SOL    HW129389   6.929   2.385   6.263
 9164SOL    HW229390   6.946   2.460   6.132
 9165SOL     OW29391   6.664   1.523  10.562
 9165SOL    HW129392   6.608   1.446  10.564
 9165SOL    HW229393   6.675   1.548  10.654
 9166SOL     OW29394   5.918  11.728   5.110
 9166SOL    HW129395   5.849  11.712   5.046
 9166SOL    HW229396   5.870  11.743   5.192
 9167SOL     OW29397  11.236   7.615  12.950
 9167SOL    HW129398  11.191   7.629  12.867
 9167SOL    HW229399  11.174   7.564  13.002
 9168SOL     OW29400   3.178  13.904   0.649
 9168SOL    HW129401   3.273  13.910   0.640
 9168SOL    HW229402   3.147  13.882   0.561
 9169SOL     OW29403   5.678  10.680   2.754
 9169SOL    HW129404   5.732  10.756   2.733
 9169SOL    HW229405   5.588  10.707   2.732
 9170SOL     OW29406   4.964   3.812  12.084
 9170SOL    HW129407   4.974   3.729  12.038
 9170SOL    HW229408   4.948   3.877  12.015
 9171SOL     OW29409   2.530  10.210  10.912
 9171SOL    HW129410   2.446  10.242  10.879
 9171SOL    HW229411   2.508  10.159  10.989
 9172SOL     OW29412   1.409   3.184  12.227
 9172SOL    HW129413   1.383   3.096  12.252
 9172SOL    HW229414   1.349   3.208  12.156
 9173SOL     OW29415  14.396  13.930   2.131
 9173SOL    HW129416  14.488  13.903   2.122
 9173SOL    HW229417  14.398  13.997   2.200
 9174SOL     OW29418   2.521   6.401  10.752
 9174SOL    HW129419   2.531   6.447  10.668
 9174SOL    HW229420   2.462   6.328  10.732
 9175SOL     OW29421  11.350  13.301  11.829
 9175SOL    HW129422  11.285  13.253  11.881
 9175SOL    HW229423  11.299  13.346  11.763
 9176SOL     OW29424   6.929  11.493   5.991
 9176SOL    HW129425   7.015  11.528   5.967
 9176SOL    HW229426   6.915  11.420   5.931
 9177SOL     OW29427  14.127   7.405  13.378
 9177SOL    HW129428  14.061   7.470  13.356
 9177SOL    HW229429  14.111   7.385  13.470
 9178SOL     OW29430   4.406   3.758   3.240
 9178SOL    HW129431   4.460   3.756   3.160
 9178SOL    HW229432   4.467   3.783   3.309
 9179SOL     OW29433   9.543  10.576   5.686
 9179SOL    HW129434   9.509  10.498   5.729
 9179SOL    HW229435   9.565  10.636   5.758
 9180SOL     OW29436   8.063   9.273   9.321
 9180SOL    HW129437   7.970   9.296   9.314
 9180SOL    HW229438   8.089   9.254   9.231
 9181SOL     OW29439   6.812   5.204   4.058
 9181SOL    HW129440   6.734   5.217   4.004
 9181SOL    HW229441   6.800   5.118   4.098
 9182SOL     OW29442  13.687   5.041   9.892
 9182SOL    HW129443  13.606   5.067   9.848
 9182SOL    HW229444  13.683   5.084   9.978
 9183SOL     OW29445  12.617   4.932   1.058
 9183SOL    HW129446  12.649   4.996   1.121
 9183SOL    HW229447  12.690   4.919   0.998
 9184SOL     OW29448  14.468  13.241   3.443
 9184SOL    HW129449  14.427  13.155   3.441
 9184SOL    HW229450  14.408  13.297   3.393
 9185SOL     OW29451  13.143   1.312  10.031
 9185SOL    HW129452  13.164   1.363   9.953
 9185SOL    HW229453  13.063   1.266  10.009
 9186SOL     OW29454   2.378  13.935  10.525
 9186SOL    HW129455   2.370  13.845  10.494
 9186SOL    HW229456   2.294  13.975  10.505
 9187SOL     OW29457   7.524  10.476   0.464
 9187SOL    HW129458   7.551  10.567   0.448
 9187SOL    HW229459   7.435  10.484   0.499
 9188SOL     OW29460   5.413  13.896   4.080
 9188SOL    HW129461   5.509  13.898   4.080
 9188SOL    HW229462   5.388  13.967   4.138
 9189SOL     OW29463  11.059   7.549  12.076
 9189SOL    HW129464  10.979   7.577  12.119
 9189SOL    HW229465  11.030   7.510  11.993
 9190SOL     OW29466   8.862   5.878   8.657
 9190SOL    HW129467   8.796   5.811   8.673
 9190SOL    HW229468   8.877   5.919   8.742
 9191SOL     OW29469   3.197   6.871   4.200
 9191SOL    HW129470   3.207   6.789   4.151
 9191SOL    HW229471   3.194   6.843   4.292
 9192SOL     OW29472   0.521  12.295  14.005
 9192SOL    HW129473   0.576  12.264  14.077
 9192SOL    HW229474   0.568  12.370  13.970
 9193SOL     OW29475   4.176   5.424   8.174
 9193SOL    HW129476   4.119   5.471   8.235
 9193SOL    HW229477   4.263   5.458   8.193
 9194SOL     OW29478  12.914  10.077   5.699
 9194SOL    HW129479  12.832  10.106   5.738
 9194SOL    HW229480  12.889  10.032   5.619
 9195SOL     OW29481  14.563  10.454  14.122
 9195SOL    HW129482  14.604  10.530  14.164
 9195SOL    HW229483  14.503  10.419  14.187
 9196SOL     OW29484   0.892  10.173  14.685
 9196SOL    HW129485   0.951  10.113  14.639
 9196SOL    HW229486   0.916  10.259  14.653
 9197SOL     OW29487  12.732  10.780   9.725
 9197SOL    HW129488  12.735  10.848   9.659
 9197SOL    HW229489  12.788  10.710   9.691
 9198SOL     OW29490   7.424   1.986   8.651
 9198SOL    HW129491   7.469   1.945   8.577
 9198SOL    HW229492   7.367   2.051   8.612
 9199SOL     OW29493   2.290  11.142   2.745
 9199SOL    HW129494   2.305  11.075   2.812
 9199SOL    HW229495   2.237  11.208   2.789
 9200SOL     OW29496  14.689   1.662   8.716
 9200SOL    HW129497  14.640   1.684   8.637
 9200SOL    HW229498  14.673   1.736   8.775
 9201SOL     OW29499   2.884   2.689   7.698
 9201SOL    HW129500   2.884   2.781   7.727
 9201SOL    HW229501   2.799   2.678   7.654
 9202SOL     OW29502   4.348  13.516   1.936
 9202SOL    HW129503   4.403  13.577   1.887
 9202SOL    HW229504   4.356  13.544   2.027
 9203SOL     OW29505   9.344   1.264  13.770
 9203SOL    HW129506   9.257   1.261  13.730
 9203SOL    HW229507   9.339   1.202  13.843
 9204SOL     OW29508   0.562   5.189   1.902
 9204SOL    HW129509   0.574   5.234   1.819
 9204SOL    HW229510   0.503   5.116   1.882
 9205SOL     OW29511   0.701   2.014   5.029
 9205SOL    HW129512   0.649   1.945   5.072
 9205SOL    HW229513   0.655   2.095   5.049
 9206SOL     OW29514  12.381  13.114   8.537
 9206SOL    HW129515  12.375  13.209   8.534
 9206SOL    HW229516  12.448  13.096   8.603
 9207SOL     OW29517  13.491  10.015   7.075
 9207SOL    HW129518  13.469   9.939   7.129
 9207SOL    HW229519  13.452  10.089   7.122
 9208SOL     OW29520  11.106   7.355   9.237
 9208SOL    HW129521  11.061   7.270   9.246
 9208SOL    HW229522  11.047   7.417   9.280
 9209SOL     OW29523   7.839   8.095  14.226
 9209SOL    HW129524   7.767   8.120  14.169
 9209SOL    HW229525   7.914   8.146  14.195
 9210SOL     OW29526   5.536   9.991   6.847
 9210SOL    HW129527   5.508  10.077   6.816
 9210SOL    HW229528   5.495   9.929   6.786
 9211SOL     OW29529   4.185   5.766  12.175
 9211SOL    HW129530   4.133   5.695  12.213
 9211SOL    HW229531   4.213   5.819  12.250
 9212SOL     OW29532  12.921   2.536  11.972
 9212SOL    HW129533  12.931   2.459  11.917
 9212SOL    HW229534  12.945   2.507  12.060
 9213SOL     OW29535   7.756  12.436   1.380
 9213SOL    HW129536   7.723  12.511   1.429
 9213SOL    HW229537   7.683  12.373   1.379
 9214SOL     OW29538  14.277   4.633   3.906
 9214SOL    HW129539  14.263   4.545   3.870
 9214SOL    HW229540  14.310   4.617   3.995
 9215SOL     OW29541   6.598   0.238   0.109
 9215SOL    HW129542   6.547   0.165   0.075
 9215SOL    HW229543   6.542   0.314   0.096
 9216SOL     OW29544   0.319   5.633  13.947
 9216SOL    HW129545   0.305   5.541  13.968
 9216SOL    HW229546   0.309   5.637  13.852
 9217SOL     OW29547   6.853   9.952   1.611
 9217SOL    HW129548   6.923   9.889   1.628
 9217SOL    HW229549   6.811   9.920   1.531
 9218SOL     OW29550   2.527   2.906   6.862
 9218SOL    HW129551   2.569   2.951   6.935
 9218SOL    HW229552   2.586   2.920   6.788
 9219SOL     OW29553  13.042   5.477   2.935
 9219SOL    HW129554  12.974   5.537   2.964
 9219SOL    HW229555  12.997   5.394   2.919
 9220SOL     OW29556   0.182   7.934   1.603
 9220SOL    HW129557   0.271   7.902   1.590
 9220SOL    HW229558   0.136   7.862   1.647
 9221SOL     OW29559  13.220  13.342   1.941
 9221SOL    HW129560  13.129  13.334   1.972
 9221SOL    HW229561  13.248  13.252   1.926
 9222SOL     OW29562   2.565   8.083   4.877
 9222SOL    HW129563   2.544   8.077   4.784
 9222SOL    HW229564   2.520   8.009   4.917
 9223SOL     OW29565  11.424   2.513   9.869
 9223SOL    HW129566  11.386   2.592   9.831
 9223SOL    HW229567  11.517   2.519   9.846
 9224SOL     OW29568   5.151   2.174  12.260
 9224SOL    HW129569   5.190   2.260  12.279
 9224SOL    HW229570   5.085   2.162  12.328
 9225SOL     OW29571  10.523   3.779  10.931
 9225SOL    HW129572  10.532   3.783  11.027
 9225SOL    HW229573  10.611   3.796  10.898
 9226SOL     OW29574  11.375   1.596   9.464
 9226SOL    HW129575  11.464   1.631   9.467
 9226SOL    HW229576  11.364   1.553   9.549
 9227SOL     OW29577   6.319  10.829   3.295
 9227SOL    HW129578   6.247  10.823   3.233
 9227SOL    HW229579   6.360  10.742   3.293
 9228SOL     OW29580  11.713   7.338   3.174
 9228SOL    HW129581  11.706   7.359   3.267
 9228SOL    HW229582  11.622   7.323   3.146
 9229SOL     OW29583  11.980  14.142  12.055
 9229SOL    HW129584  11.953  14.056  12.024
 9229SOL    HW229585  12.074  14.147  12.037
 9230SOL     OW29586   5.213  10.750  12.736
 9230SOL    HW129587   5.234  10.814  12.668
 9230SOL    HW229588   5.143  10.697  12.698
 9231SOL     OW29589  13.700   1.226   7.753
 9231SOL    HW129590  13.690   1.287   7.679
 9231SOL    HW229591  13.771   1.168   7.725
 9232SOL     OW29592   9.410  14.705   0.909
 9232SOL    HW129593   9.449  14.772   0.964
 9232SOL    HW229594   9.315  14.718   0.919
 9233SOL     OW29595  11.740  11.302   0.037
 9233SOL    HW129596  11.786  11.342   0.111
 9233SOL    HW229597  11.808  11.290  14.840
 9234SOL     OW29598  12.206  11.425  13.360
 9234SOL    HW129599  12.237  11.514  13.374
 9234SOL    HW229600  12.261  11.371  13.417
 9235SOL     OW29601  11.253  12.765   8.761
 9235SOL    HW129602  11.201  12.814   8.697
 9235SOL    HW229603  11.229  12.674   8.747
 9236SOL     OW29604   0.278  14.479   6.405
 9236SOL    HW129605   0.369  14.504   6.393
 9236SOL    HW229606   0.268  14.468   6.499
 9237SOL     OW29607  10.327  14.769   4.890
 9237SOL    HW129608  10.415  14.744   4.919
 9237SOL    HW229609  10.297  14.695   4.838
 9238SOL     OW29610   6.799   4.472   3.991
 9238SOL    HW129611   6.711   4.497   3.961
 9238SOL    HW229612   6.824   4.542   4.052
 9239SOL     OW29613   0.466   4.448   6.837
 9239SOL    HW129614   0.425   4.514   6.781
 9239SOL    HW229615   0.436   4.364   6.801
 9240SOL     OW29616   0.249   8.984  14.119
 9240SOL    HW129617   0.234   8.897  14.082
 9240SOL    HW229618   0.217   9.045  14.052
 9241SOL     OW29619  12.110   3.105   5.095
 9241SOL    HW129620  12.092   3.035   5.032
 9241SOL    HW229621  12.068   3.182   5.057
 9242SOL     OW29622   9.451   6.888   8.982
 9242SOL    HW129623   9.547   6.880   8.983
 9242SOL    HW229624   9.435   6.982   8.987
 9243SOL     OW29625  11.153  14.249   4.143
 9243SOL    HW129626  11.118  14.161   4.134
 9243SOL    HW229627  11.076  14.304   4.158
 9244SOL     OW29628   3.939  12.407  12.052
 9244SOL    HW129629   3.975  12.389  11.965
 9244SOL    HW229630   4.000  12.364  12.113
 9245SOL     OW29631  11.266   7.225   4.598
 9245SOL    HW129632  11.198   7.167   4.565
 9245SOL    HW229633  11.332   7.227   4.528
 9246SOL     OW29634  11.589   4.750   5.496
 9246SOL    HW129635  11.635   4.712   5.571
 9246SOL    HW229636  11.631   4.709   5.420
 9247SOL     OW29637  11.804   4.759   5.286
 9247SOL    HW129638  11.870   4.775   5.218
 9247SOL    HW229639  11.772   4.670   5.267
 9248SOL     OW29640   2.459  12.044  11.612
 9248SOL    HW129641   2.452  11.949  11.626
 9248SOL    HW229642   2.373  12.078  11.639
 9249SOL     OW29643   0.915  13.382  14.708
 9249SOL    HW129644   0.970  13.457  14.728
 9249SOL    HW229645   0.969  13.305  14.729
 9250SOL     OW29646  11.617  11.977   7.150
 9250SOL    HW129647  11.598  12.065   7.116
 9250SOL    HW229648  11.687  11.991   7.214
 9251SOL     OW29649  13.707   8.654  12.018
 9251SOL    HW129650  13.763   8.669  11.942
 9251SOL    HW229651  13.639   8.721  12.011
 9252SOL     OW29652   7.242   1.868   4.060
 9252SOL    HW129653   7.283   1.808   3.998
 9252SOL    HW229654   7.246   1.821   4.144
 9253SOL     OW29655   2.130   4.822   5.628
 9253SOL    HW129656   2.104   4.912   5.646
 9253SOL    HW229657   2.223   4.819   5.653
 9254SOL     OW29658   1.517  11.041   1.677
 9254SOL    HW129659   1.449  11.047   1.610
 9254SOL    HW229660   1.469  11.050   1.760
 9255SOL     OW29661   3.033  10.182  14.261
 9255SOL    HW129662   3.017  10.257  14.318
 9255SOL    HW229663   3.063  10.221  14.179
 9256SOL     OW29664   9.013   1.480  10.216
 9256SOL    HW129665   9.051   1.567  10.232
 9256SOL    HW229666   8.997   1.445  10.304
 9257SOL     OW29667   2.237   2.283  12.015
 9257SOL    HW129668   2.202   2.200  11.983
 9257SOL    HW229669   2.251   2.336  11.937
 9258SOL     OW29670   1.963   7.478   7.801
 9258SOL    HW129671   1.909   7.459   7.878
 9258SOL    HW229672   1.976   7.573   7.803
 9259SOL     OW29673   1.289   1.414   8.583
 9259SOL    HW129674   1.301   1.503   8.549
 9259SOL    HW229675   1.291   1.425   8.678
 9260SOL     OW29676   8.890  12.035   1.534
 9260SOL    HW129677   8.847  12.056   1.617
 9260SOL    HW229678   8.838  11.963   1.498
 9261SOL     OW29679   4.741  11.684   9.249
 9261SOL    HW129680   4.738  11.640   9.334
 9261SOL    HW229681   4.662  11.654   9.203
 9262SOL     OW29682  11.544  11.947   6.072
 9262SOL    HW129683  11.552  11.946   6.168
 9262SOL    HW229684  11.576  11.861   6.045
 9263SOL     OW29685   3.966   1.844   2.057
 9263SOL    HW129686   3.961   1.921   2.112
 9263SOL    HW229687   3.893   1.789   2.086
 9264SOL     OW29688  13.335   3.336   9.348
 9264SOL    HW129689  13.398   3.360   9.416
 9264SOL    HW229690  13.298   3.253   9.378
 9265SOL     OW29691   3.848   5.439   0.326
 9265SOL    HW129692   3.842   5.363   0.383
 9265SOL    HW229693   3.818   5.408   0.241
 9266SOL     OW29694   3.148   3.205   0.139
 9266SOL    HW129695   3.084   3.247   0.081
 9266SOL    HW229696   3.233   3.237   0.107
 9267SOL     OW29697   4.594   6.266   5.799
 9267SOL    HW129698   4.685   6.294   5.786
 9267SOL    HW229699   4.599   6.199   5.868
 9268SOL     OW29700   2.181   3.853   6.813
 9268SOL    HW129701   2.246   3.787   6.836
 9268SOL    HW229702   2.097   3.813   6.835
 9269SOL     OW29703  14.738   5.617   0.826
 9269SOL    HW129704  14.769   5.699   0.864
 9269SOL    HW229705  14.814   5.559   0.826
 9270SOL     OW29706   9.683   1.720  13.677
 9270SOL    HW129707   9.770   1.742  13.712
 9270SOL    HW229708   9.652   1.649  13.734
 9271SOL     OW29709   7.574   7.233  14.258
 9271SOL    HW129710   7.661   7.227  14.219
 9271SOL    HW229711   7.532   7.306  14.212
 9272SOL     OW29712   9.490   8.771   3.420
 9272SOL    HW129713   9.431   8.836   3.458
 9272SOL    HW229714   9.520   8.718   3.494
 9273SOL     OW29715   2.832   4.891  14.649
 9273SOL    HW129716   2.797   4.805  14.626
 9273SOL    HW229717   2.859   4.883  14.740
 9274SOL     OW29718   7.313  12.459   7.553
 9274SOL    HW129719   7.288  12.477   7.644
 9274SOL    HW229720   7.249  12.506   7.501
 9275SOL     OW29721   2.031  12.793  10.704
 9275SOL    HW129722   1.978  12.766  10.629
 9275SOL    HW229723   1.972  12.844  10.759
 9276SOL     OW29724   0.510   2.896  13.874
 9276SOL    HW129725   0.597   2.876  13.908
 9276SOL    HW229726   0.450   2.866  13.943
 9277SOL     OW29727   6.143   1.776   9.553
 9277SOL    HW129728   6.173   1.687   9.535
 9277SOL    HW229729   6.159   1.789   9.646
 9278SOL     OW29730   4.343  13.174  12.087
 9278SOL    HW129731   4.381  13.260  12.103
 9278SOL    HW229732   4.273  13.166  12.152
 9279SOL     OW29733   5.685  11.319  11.663
 9279SOL    HW129734   5.626  11.322  11.738
 9279SOL    HW229735   5.653  11.387  11.604
 9280SOL     OW29736   4.735   2.652  13.479
 9280SOL    HW129737   4.820   2.665  13.520
 9280SOL    HW229738   4.710   2.738  13.445
 9281SOL     OW29739  11.040   2.689   9.890
 9281SOL    HW129740  11.106   2.653   9.830
 9281SOL    HW229741  11.028   2.780   9.861
 9282SOL     OW29742  10.041   8.299   9.913
 9282SOL    HW129743  10.073   8.230   9.854
 9282SOL    HW229744  10.119   8.329   9.959
 9283SOL     OW29745  12.533   9.516   7.286
 9283SOL    HW129746  12.623   9.514   7.319
 9283SOL    HW229747  12.482   9.467   7.350
 9284SOL     OW29748   9.352  13.785  12.052
 9284SOL    HW129749   9.377  13.693  12.043
 9284SOL    HW229750   9.302  13.804  11.973
 9285SOL     OW29751  10.292   5.569  13.925
 9285SOL    HW129752  10.381   5.536  13.918
 9285SOL    HW229753  10.298   5.661  13.900
 9286SOL     OW29754  10.580  10.801   0.425
 9286SOL    HW129755  10.554  10.779   0.515
 9286SOL    HW229756  10.543  10.731   0.372
 9287SOL     OW29757   0.236  12.827  10.437
 9287SOL    HW129758   0.167  12.876  10.483
 9287SOL    HW229759   0.303  12.810  10.503
 9288SOL     OW29760   1.557  12.988   1.335
 9288SOL    HW129761   1.579  12.963   1.424
 9288SOL    HW229762   1.461  12.979   1.331
 9289SOL     OW29763  11.885   9.316   6.087
 9289SOL    HW129764  11.980   9.315   6.099
 9289SOL    HW229765  11.872   9.333   5.994
 9290SOL     OW29766   8.728  10.865  12.926
 9290SOL    HW129767   8.693  10.855  13.014
 9290SOL    HW229768   8.802  10.925  12.937
 9291SOL     OW29769   0.494  14.358   0.561
 9291SOL    HW129770   0.588  14.349   0.574
 9291SOL    HW229771   0.458  14.273   0.587
 9292SOL     OW29772   6.368   4.683  10.295
 9292SOL    HW129773   6.302   4.691  10.226
 9292SOL    HW229774   6.418   4.605  10.270
 9293SOL     OW29775   3.891   2.250   7.149
 9293SOL    HW129776   3.829   2.187   7.185
 9293SOL    HW229777   3.975   2.227   7.190
 9294SOL     OW29778   4.663   0.606   4.308
 9294SOL    HW129779   4.675   0.543   4.378
 9294SOL    HW229780   4.737   0.591   4.249
 9295SOL     OW29781   0.357  11.233   9.900
 9295SOL    HW129782   0.430  11.263   9.846
 9295SOL    HW229783   0.381  11.259   9.989
 9296SOL     OW29784   5.477   0.632  14.139
 9296SOL    HW129785   5.422   0.657  14.064
 9296SOL    HW229786   5.566   0.656  14.113
 9297SOL     OW29787   8.769   7.162   6.261
 9297SOL    HW129788   8.818   7.160   6.343
 9297SOL    HW229789   8.820   7.108   6.201
 9298SOL     OW29790   7.918   4.339   4.746
 9298SOL    HW129791   8.005   4.366   4.776
 9298SOL    HW229792   7.858   4.375   4.811
 9299SOL     OW29793  10.450   5.098   4.584
 9299SOL    HW129794  10.529   5.128   4.628
 9299SOL    HW229795  10.441   5.006   4.610
 9300SOL     OW29796   2.569   5.320   5.310
 9300SOL    HW129797   2.502   5.297   5.374
 9300SOL    HW229798   2.524   5.378   5.248
 9301SOL     OW29799  12.969   6.099  13.107
 9301SOL    HW129800  12.891   6.154  13.116
 9301SOL    HW229801  13.007   6.095  13.194
 9302SOL     OW29802   1.743  10.862   7.686
 9302SOL    HW129803   1.796  10.940   7.671
 9302SOL    HW229804   1.742  10.817   7.602
 9303SOL     OW29805  13.618   6.412   4.022
 9303SOL    HW129806  13.574   6.384   4.102
 9303SOL    HW229807  13.550   6.455   3.971
 9304SOL     OW29808   2.799   2.929   3.766
 9304SOL    HW129809   2.828   2.952   3.677
 9304SOL    HW229810   2.881   2.912   3.813
 9305SOL     OW29811   3.391  10.227  11.057
 9305SOL    HW129812   3.357  10.151  11.011
 9305SOL    HW229813   3.325  10.246  11.124
 9306SOL     OW29814   4.821   5.438   5.093
 9306SOL    HW129815   4.821   5.393   5.008
 9306SOL    HW229816   4.889   5.393   5.143
 9307SOL     OW29817   5.529  13.550   4.718
 9307SOL    HW129818   5.463  13.581   4.780
 9307SOL    HW229819   5.509  13.457   4.706
 9308SOL     OW29820   0.991  12.928   2.765
 9308SOL    HW129821   0.985  12.902   2.857
 9308SOL    HW229822   0.906  12.966   2.744
 9309SOL     OW29823  12.553   0.389   3.542
 9309SOL    HW129824  12.624   0.450   3.564
 9309SOL    HW229825  12.477   0.424   3.590
 9310SOL     OW29826  13.258   9.591   1.809
 9310SOL    HW129827  13.199   9.622   1.740
 9310SOL    HW229828  13.221   9.507   1.836
 9311SOL     OW29829   6.666   9.304   5.029
 9311SOL    HW129830   6.690   9.394   5.010
 9311SOL    HW229831   6.737   9.271   5.084
 9312SOL     OW29832  10.779  14.091   8.352
 9312SOL    HW129833  10.846  14.030   8.384
 9312SOL    HW229834  10.696  14.043   8.362
 9313SOL     OW29835  14.231   7.706   7.517
 9313SOL    HW129836  14.164   7.717   7.585
 9313SOL    HW229837  14.265   7.618   7.532
 9314SOL     OW29838   7.624   7.667   5.086
 9314SOL    HW129839   7.632   7.611   5.163
 9314SOL    HW229840   7.709   7.660   5.041
 9315SOL     OW29841   0.816  13.990   7.501
 9315SOL    HW129842   0.734  14.011   7.547
 9315SOL    HW229843   0.884  14.007   7.566
 9316SOL     OW29844  14.787  14.177   2.044
 9316SOL    HW129845  14.744  14.098   2.076
 9316SOL    HW229846  14.796  14.163   1.950
 9317SOL     OW29847   1.018  14.577   0.479
 9317SOL    HW129848   1.006  14.598   0.572
 9317SOL    HW229849   1.086  14.510   0.478
 9318SOL     OW29850   1.013   2.412   3.473
 9318SOL    HW129851   0.950   2.456   3.416
 9318SOL    HW229852   1.095   2.460   3.460
 9319SOL     OW29853  13.622  10.022  14.521
 9319SOL    HW129854  13.634   9.948  14.461
 9319SOL    HW229855  13.703  10.026  14.571
 9320SOL     OW29856   2.584   3.702  13.288
 9320SOL    HW129857   2.580   3.787  13.243
 9320SOL    HW229858   2.675   3.674  13.277
 9321SOL     OW29859   1.811  14.128   5.347
 9321SOL    HW129860   1.728  14.175   5.358
 9321SOL    HW229861   1.823  14.125   5.252
 9322SOL     OW29862  14.086   0.737   2.452
 9322SOL    HW129863  14.004   0.735   2.404
 9322SOL    HW229864  14.073   0.804   2.520
 9323SOL     OW29865  14.033   8.187  13.102
 9323SOL    HW129866  13.989   8.128  13.163
 9323SOL    HW229867  13.983   8.179  13.021
 9324SOL     OW29868  10.076   6.813  14.575
 9324SOL    HW129869  10.120   6.799  14.659
 9324SOL    HW229870  10.145   6.841  14.515
 9325SOL     OW29871   9.022   8.410  12.621
 9325SOL    HW129872   9.060   8.353  12.554
 9325SOL    HW229873   9.067   8.494  12.609
 9326SOL     OW29874   4.488  12.922   8.459
 9326SOL    HW129875   4.487  12.832   8.491
 9326SOL    HW229876   4.576  12.953   8.478
 9327SOL     OW29877   1.501   8.439   2.281
 9327SOL    HW129878   1.590   8.405   2.291
 9327SOL    HW229879   1.495   8.508   2.347
 9328SOL     OW29880   9.725  12.303   5.820
 9328SOL    HW129881   9.725  12.280   5.727
 9328SOL    HW229882   9.817  12.300   5.846
 9329SOL     OW29883   7.636   1.944   8.861
 9329SOL    HW129884   7.589   1.971   8.782
 9329SOL    HW229885   7.568   1.921   8.924
 9330SOL     OW29886  10.337   9.187   8.277
 9330SOL    HW129887  10.317   9.278   8.252
 9330SOL    HW229888  10.411   9.163   8.222
 9331SOL     OW29889   7.368  11.444   0.267
 9331SOL    HW129890   7.354  11.447   0.361
 9331SOL    HW229891   7.281  11.453   0.229
 9332SOL     OW29892   0.483   0.792   3.581
 9332SOL    HW129893   0.426   0.810   3.656
 9332SOL    HW229894   0.569   0.773   3.620
 9333SOL     OW29895   0.953  11.174   1.099
 9333SOL    HW129896   0.926  11.264   1.079
 9333SOL    HW229897   0.880  11.137   1.149
 9334SOL     OW29898   4.548  14.843   4.956
 9334SOL    HW129899   4.466  14.797   4.975
 9334SOL    HW229900   4.616  14.779   4.976
 9335SOL     OW29901   9.178   3.443   0.846
 9335SOL    HW129902   9.084   3.449   0.859
 9335SOL    HW229903   9.191   3.469   0.755
 9336SOL     OW29904  12.153   6.385   6.036
 9336SOL    HW129905  12.206   6.439   6.093
 9336SOL    HW229906  12.066   6.424   6.039
 9337SOL     OW29907  13.099   4.179   0.172
 9337SOL    HW129908  13.090   4.273   0.160
 9337SOL    HW229909  13.186   4.168   0.211
 9338SOL     OW29910  10.663   4.004   2.898
 9338SOL    HW129911  10.615   4.005   2.981
 9338SOL    HW229912  10.728   3.934   2.909
 9339SOL     OW29913   8.313  13.850   7.537
 9339SOL    HW129914   8.388  13.891   7.581
 9339SOL    HW229915   8.326  13.756   7.550
 9340SOL     OW29916  14.864   5.812   4.771
 9340SOL    HW129917   0.090   5.808   4.764
 9340SOL    HW229918  14.833   5.736   4.723
 9341SOL     OW29919   2.952  11.449  11.507
 9341SOL    HW129920   3.040  11.424  11.479
 9341SOL    HW229921   2.961  11.541  11.534
 9342SOL     OW29922   0.527  13.770  14.328
 9342SOL    HW129923   0.433  13.757  14.311
 9342SOL    HW229924   0.530  13.817  14.411
 9343SOL     OW29925  13.298   2.396   1.728
 9343SOL    HW129926  13.241   2.370   1.800
 9343SOL    HW229927  13.242   2.450   1.672
 9344SOL     OW29928  11.700   0.061  10.903
 9344SOL    HW129929  11.726   0.151  10.919
 9344SOL    HW229930  11.605   0.062  10.915
 9345SOL     OW29931   5.694   6.121   5.571
 9345SOL    HW129932   5.672   6.205   5.531
 9345SOL    HW229933   5.705   6.061   5.497
 9346SOL     OW29934   3.541   9.384   3.550
 9346SOL    HW129935   3.501   9.470   3.545
 9346SOL    HW229936   3.468   9.323   3.536
 9347SOL     OW29937   7.145   5.097  14.700
 9347SOL    HW129938   7.191   5.056  14.774
 9347SOL    HW229939   7.074   5.146  14.741
 9348SOL     OW29940   4.703   4.775   7.215
 9348SOL    HW129941   4.678   4.777   7.123
 9348SOL    HW229942   4.737   4.687   7.229
 9349SOL     OW29943  11.210   8.210   3.806
 9349SOL    HW129944  11.256   8.222   3.723
 9349SOL    HW229945  11.209   8.115   3.820
 9350SOL     OW29946  14.807  14.095   0.569
 9350SOL    HW129947  14.831  14.040   0.644
 9350SOL    HW229948  14.713  14.110   0.579
 9351SOL     OW29949   5.327  14.028   7.696
 9351SOL    HW129950   5.259  13.966   7.720
 9351SOL    HW229951   5.280  14.101   7.656
 9352SOL     OW29952   7.952  10.391   0.865
 9352SOL    HW129953   7.914  10.436   0.789
 9352SOL    HW229954   7.904  10.308   0.869
 9353SOL     OW29955   8.280   6.795   9.900
 9353SOL    HW129956   8.361   6.844   9.913
 9353SOL    HW229957   8.228   6.850   9.842
 9354SOL     OW29958   5.257  11.044   7.437
 9354SOL    HW129959   5.275  10.992   7.516
 9354SOL    HW229960   5.290  11.132   7.459
 9355SOL     OW29961   9.757   0.144  11.368
 9355SOL    HW129962   9.748   0.058  11.327
 9355SOL    HW229963   9.845   0.144  11.404
 9356SOL     OW29964  14.258   3.489   8.198
 9356SOL    HW129965  14.328   3.522   8.255
 9356SOL    HW229966  14.186   3.468   8.258
 9357SOL     OW29967   0.158   0.917   8.049
 9357SOL    HW129968   0.229   0.881   7.996
 9357SOL    HW229969   0.080   0.907   7.995
 9358SOL     OW29970   2.160  13.395   0.035
 9358SOL    HW129971   2.143  13.307   0.004
 9358SOL    HW229972   2.073  13.434   0.045
 9359SOL     OW29973   7.466   8.764   2.965
 9359SOL    HW129974   7.517   8.808   3.033
 9359SOL    HW229975   7.531   8.733   2.902
 9360SOL     OW29976   2.973   0.899   8.667
 9360SOL    HW129977   2.940   0.892   8.578
 9360SOL    HW229978   2.897   0.926   8.719
 9361SOL     OW29979  12.316  14.755   5.216
 9361SOL    HW129980  12.274  14.683   5.263
 9361SOL    HW229981  12.389  14.780   5.273
 9362SOL     OW29982   9.963   4.536   6.808
 9362SOL    HW129983   9.926   4.564   6.724
 9362SOL    HW229984   9.916   4.587   6.874
 9363SOL     OW29985   5.028  11.984  10.377
 9363SOL    HW129986   5.062  11.975  10.288
 9363SOL    HW229987   5.106  11.980  10.433
 9364SOL     OW29988   8.071   2.324   0.197
 9364SOL    HW129989   8.019   2.244   0.195
 9364SOL    HW229990   8.032   2.380   0.130
 9365SOL     OW29991   3.690  13.187  14.453
 9365SOL    HW129992   3.669  13.197  14.546
 9365SOL    HW229993   3.612  13.218  14.408
 9366SOL     OW29994   2.426   1.046   7.440
 9366SOL    HW129995   2.425   0.957   7.406
 9366SOL    HW229996   2.497   1.047   7.504
 9367SOL     OW29997  10.022  14.241  12.257
 9367SOL    HW129998  10.061  14.217  12.172
 9367SOL    HW229999  10.075  14.193  12.321
 9368SOL     OW30000   9.189   9.042   7.939
 9368SOL    HW130001   9.175   9.061   7.846
 9368SOL    HW230002   9.142   9.112   7.985
 9369SOL     OW30003   5.495  13.508  13.151
 9369SOL    HW130004   5.552  13.530  13.225
 9369SOL    HW230005   5.457  13.423  13.175
 9370SOL     OW30006   9.121   4.364   3.311
 9370SOL    HW130007   9.150   4.304   3.243
 9370SOL    HW230008   9.179   4.440   3.302
 9371SOL     OW30009   2.547   1.904  14.303
 9371SOL    HW130010   2.468   1.958  14.302
 9371SOL    HW230011   2.572   1.895  14.211
 9372SOL     OW30012  10.106  14.851   9.546
 9372SOL    HW130013  10.071  14.789   9.610
 9372SOL    HW230014  10.190  14.814   9.521
 9373SOL     OW30015   2.259   3.334   1.287
 9373SOL    HW130016   2.295   3.274   1.222
 9373SOL    HW230017   2.227   3.408   1.236
 9374SOL     OW30018   2.697  13.624  13.570
 9374SOL    HW130019   2.701  13.582  13.484
 9374SOL    HW230020   2.609  13.604  13.602
 9375SOL     OW30021   1.395  13.855   4.333
 9375SOL    HW130022   1.404  13.900   4.250
 9375SOL    HW230023   1.302  13.863   4.355
 9376SOL     OW30024  13.566  12.569   4.201
 9376SOL    HW130025  13.478  12.577   4.239
 9376SOL    HW230026  13.566  12.482   4.159
 9377SOL     OW30027   5.325   0.701  13.897
 9377SOL    HW130028   5.390   0.728  13.832
 9377SOL    HW230029   5.243   0.740  13.866
 9378SOL     OW30030  14.093   2.437   9.835
 9378SOL    HW130031  14.174   2.446   9.885
 9378SOL    HW230032  14.043   2.371   9.883
 9379SOL     OW30033   4.223   8.459   6.907
 9379SOL    HW130034   4.236   8.365   6.913
 9379SOL    HW230035   4.252   8.493   6.992
 9380SOL     OW30036  11.637   9.261  13.607
 9380SOL    HW130037  11.684   9.299  13.681
 9380SOL    HW230038  11.658   9.168  13.611
 9381SOL     OW30039  11.460   0.482  11.477
 9381SOL    HW130040  11.433   0.401  11.432
 9381SOL    HW230041  11.470   0.457  11.569
 9382SOL     OW30042   8.596   0.440   0.565
 9382SOL    HW130043   8.569   0.408   0.479
 9382SOL    HW230044   8.536   0.511   0.584
 9383SOL     OW30045   5.902   3.797   9.712
 9383SOL    HW130046   5.943   3.710   9.714
 9383SOL    HW230047   5.815   3.783   9.750
 9384SOL     OW30048  14.741  11.573   0.366
 9384SOL    HW130049  14.653  11.588   0.399
 9384SOL    HW230050  14.781  11.513   0.430
 9385SOL     OW30051  10.954  13.428   0.644
 9385SOL    HW130052  10.873  13.377   0.650
 9385SOL    HW230053  10.936  13.508   0.693
 9386SOL     OW30054   1.995   8.694   1.794
 9386SOL    HW130055   1.937   8.729   1.727
 9386SOL    HW230056   1.994   8.758   1.864
 9387SOL     OW30057   6.043   3.249   5.713
 9387SOL    HW130058   6.127   3.286   5.741
 9387SOL    HW230059   5.978   3.314   5.740
 9388SOL     OW30060   7.945  10.298   7.623
 9388SOL    HW130061   7.874  10.236   7.642
 9388SOL    HW230062   7.925  10.332   7.536
 9389SOL     OW30063   8.659   2.340  12.854
 9389SOL    HW130064   8.653   2.433  12.831
 9389SOL    HW230065   8.569   2.313  12.870
 9390SOL     OW30066  11.286   5.597  11.836
 9390SOL    HW130067  11.221   5.658  11.801
 9390SOL    HW230068  11.357   5.654  11.866
 9391SOL     OW30069  11.099   9.567   1.684
 9391SOL    HW130070  11.022   9.510   1.689
 9391SOL    HW230071  11.066   9.649   1.646
 9392SOL     OW30072   8.481   7.114  13.764
 9392SOL    HW130073   8.445   7.040  13.812
 9392SOL    HW230074   8.461   7.095  13.672
 9393SOL     OW30075   4.253  14.537   9.901
 9393SOL    HW130076   4.218  14.450   9.923
 9393SOL    HW230077   4.320  14.552   9.968
 9394SOL     OW30078   5.152  10.967  12.267
 9394SOL    HW130079   5.144  11.043  12.209
 9394SOL    HW230080   5.189  10.898  12.211
 9395SOL     OW30081  10.843   7.684  12.208
 9395SOL    HW130082  10.895   7.763  12.201
 9395SOL    HW230083  10.831   7.670  12.302
 9396SOL     OW30084   3.627   2.148   9.570
 9396SOL    HW130085   3.563   2.124   9.637
 9396SOL    HW230086   3.707   2.104   9.595
 9397SOL     OW30087   4.931   4.501  10.120
 9397SOL    HW130088   5.011   4.511  10.067
 9397SOL    HW230089   4.864   4.477  10.056
 9398SOL     OW30090   1.973  11.618  13.423
 9398SOL    HW130091   2.026  11.657  13.353
 9398SOL    HW230092   2.037  11.596  13.491
 9399SOL     OW30093   5.719  10.484   1.117
 9399SOL    HW130094   5.759  10.431   1.187
 9399SOL    HW230095   5.671  10.552   1.164
 9400SOL     OW30096   9.163   7.276   3.033
 9400SOL    HW130097   9.238   7.247   3.085
 9400SOL    HW230098   9.200   7.337   2.970
 9401SOL     OW30099   6.044   4.155  10.191
 9401SOL    HW130100   6.039   4.078  10.134
 9401SOL    HW230101   6.137   4.175  10.197
 9402SOL     OW30102   8.817   4.462  14.144
 9402SOL    HW130103   8.749   4.429  14.203
 9402SOL    HW230104   8.773   4.531  14.094
 9403SOL     OW30105  13.687  11.833   4.847
 9403SOL    HW130106  13.740  11.872   4.778
 9403SOL    HW230107  13.609  11.800   4.803
 9404SOL     OW30108   9.227   7.369   8.216
 9404SOL    HW130109   9.305   7.376   8.160
 9404SOL    HW230110   9.250   7.417   8.295
 9405SOL     OW30111   4.241   1.078  14.548
 9405SOL    HW130112   4.319   1.117  14.510
 9405SOL    HW230113   4.186   1.056  14.472
 9406SOL     OW30114   4.669   5.461   5.323
 9406SOL    HW130115   4.742   5.440   5.265
 9406SOL    HW230116   4.638   5.547   5.292
 9407SOL     OW30117   8.764   5.727  11.621
 9407SOL    HW130118   8.837   5.673  11.590
 9407SOL    HW230119   8.793   5.817  11.606
 9408SOL     OW30120   5.135   4.782   2.878
 9408SOL    HW130121   5.072   4.853   2.864
 9408SOL    HW230122   5.179   4.803   2.960
 9409SOL     OW30123   7.940   5.382   2.204
 9409SOL    HW130124   7.929   5.455   2.143
 9409SOL    HW230125   7.957   5.306   2.149
 9410SOL     OW30126  12.464  12.025   4.175
 9410SOL    HW130127  12.371  12.041   4.191
 9410SOL    HW230128  12.506  12.109   4.192
 9411SOL     OW30129   4.041  10.988  12.059
 9411SOL    HW130130   4.042  10.969  12.152
 9411SOL    HW230131   4.008  10.909  12.018
 9412SOL     OW30132   0.039  12.582  13.083
 9412SOL    HW130133   0.118  12.532  13.061
 9412SOL    HW230134   0.070  12.649  13.143
 9413SOL     OW30135   2.502  11.921  10.612
 9413SOL    HW130136   2.430  11.979  10.587
 9413SOL    HW230137   2.464  11.833  10.605
 9414SOL     OW30138   4.031   2.749  12.049
 9414SOL    HW130139   4.065   2.720  11.964
 9414SOL    HW230140   4.033   2.845  12.044
 9415SOL     OW30141  10.835   7.702   5.135
 9415SOL    HW130142  10.904   7.638   5.154
 9415SOL    HW230143  10.765   7.649   5.096
 9416SOL     OW30144   6.646   8.527   8.846
 9416SOL    HW130145   6.649   8.562   8.935
 9416SOL    HW230146   6.557   8.545   8.817
 9417SOL     OW30147   0.090  10.496   3.831
 9417SOL    HW130148   0.028  10.562   3.799
 9417SOL    HW230149   0.081  10.423   3.770
 9418SOL     OW30150   7.876   9.255  12.192
 9418SOL    HW130151   7.848   9.345  12.205
 9418SOL    HW230152   7.860   9.213  12.277
 9419SOL     OW30153  12.283  12.655   3.666
 9419SOL    HW130154  12.314  12.743   3.688
 9419SOL    HW230155  12.360  12.611   3.628
 9420SOL     OW30156   2.951   3.150  10.165
 9420SOL    HW130157   3.046   3.154  10.156
 9420SOL    HW230158   2.928   3.062  10.135
 9421SOL     OW30159  12.302   2.708   2.496
 9421SOL    HW130160  12.242   2.640   2.525
 9421SOL    HW230161  12.370   2.662   2.447
 9422SOL     OW30162   7.806   0.477   3.190
 9422SOL    HW130163   7.900   0.470   3.207
 9422SOL    HW230164   7.795   0.563   3.150
 9423SOL     OW30165   6.663   2.182   7.499
 9423SOL    HW130166   6.658   2.176   7.403
 9423SOL    HW230167   6.738   2.240   7.515
 9424SOL     OW30168   2.742  11.768   3.169
 9424SOL    HW130169   2.670  11.771   3.106
 9424SOL    HW230170   2.733  11.848   3.221
 9425SOL     OW30171   4.643   9.450   6.941
 9425SOL    HW130172   4.693   9.422   7.017
 9425SOL    HW230173   4.585   9.519   6.975
 9426SOL     OW30174  13.208  13.721  12.086
 9426SOL    HW130175  13.281  13.669  12.053
 9426SOL    HW230176  13.148  13.657  12.123
 9427SOL     OW30177   1.681  12.623   3.559
 9427SOL    HW130178   1.671  12.696   3.620
 9427SOL    HW230179   1.776  12.617   3.545
 9428SOL     OW30180  10.488  10.064  14.594
 9428SOL    HW130181  10.446  10.007  14.659
 9428SOL    HW230182  10.520  10.139  14.645
 9429SOL     OW30183  14.166   6.713   1.532
 9429SOL    HW130184  14.160   6.648   1.602
 9429SOL    HW230185  14.076   6.743   1.520
 9430SOL     OW30186  13.040   3.239   8.250
 9430SOL    HW130187  12.957   3.193   8.250
 9430SOL    HW230188  13.017   3.330   8.229
 9431SOL     OW30189   8.453   2.318  13.889
 9431SOL    HW130190   8.543   2.331  13.859
 9431SOL    HW230191   8.404   2.390  13.851
 9432SOL     OW30192   7.172   3.282   7.510
 9432SOL    HW130193   7.181   3.363   7.461
 9432SOL    HW230194   7.245   3.282   7.571
 9433SOL     OW30195   4.788   9.658  12.444
 9433SOL    HW130196   4.765   9.718  12.374
 9433SOL    HW230197   4.879   9.680  12.466
 9434SOL     OW30198  14.229   7.328  10.938
 9434SOL    HW130199  14.240   7.374  11.021
 9434SOL    HW230200  14.318   7.302  10.913
 9435SOL     OW30201  11.788   2.883   6.815
 9435SOL    HW130202  11.700   2.899   6.780
 9435SOL    HW230203  11.818   2.969   6.845
 9436SOL     OW30204  10.934  13.183   9.219
 9436SOL    HW130205  11.003  13.147   9.275
 9436SOL    HW230206  10.855  13.182   9.275
 9437SOL     OW30207   9.875   2.408   1.486
 9437SOL    HW130208   9.907   2.383   1.400
 9437SOL    HW230209   9.841   2.497   1.474
 9438SOL     OW30210   8.436   9.519   3.117
 9438SOL    HW130211   8.460   9.589   3.057
 9438SOL    HW230212   8.429   9.441   3.063
 9439SOL     OW30213   4.874   7.662  12.683
 9439SOL    HW130214   4.921   7.742  12.661
 9439SOL    HW230215   4.881   7.607  12.605
 9440SOL     OW30216  11.351   0.054  12.284
 9440SOL    HW130217  11.343  14.868  12.207
 9440SOL    HW230218  11.294   0.129  12.267
 9441SOL     OW30219   7.888  10.837   5.148
 9441SOL    HW130220   7.935  10.920   5.140
 9441SOL    HW230221   7.801  10.862   5.178
 9442SOL     OW30222   2.439   7.171   4.434
 9442SOL    HW130223   2.476   7.094   4.478
 9442SOL    HW230224   2.414   7.138   4.347
 9443SOL     OW30225   6.385   0.871  11.208
 9443SOL    HW130226   6.341   0.939  11.157
 9443SOL    HW230227   6.354   0.788  11.171
 9444SOL     OW30228   3.741   2.289   1.992
 9444SOL    HW130229   3.815   2.324   1.943
 9444SOL    HW230230   3.728   2.201   1.955
 9445SOL     OW30231   4.659   2.545   1.584
 9445SOL    HW130232   4.576   2.557   1.537
 9445SOL    HW230233   4.708   2.626   1.568
 9446SOL     OW30234   4.319   1.975  10.264
 9446SOL    HW130235   4.302   2.064  10.234
 9446SOL    HW230236   4.259   1.963  10.338
 9447SOL     OW30237  14.068  11.603  12.728
 9447SOL    HW130238  13.984  11.571  12.762
 9447SOL    HW230239  14.085  11.549  12.651
 9448SOL     OW30240   3.689   3.648   2.766
 9448SOL    HW130241   3.729   3.660   2.679
 9448SOL    HW230242   3.662   3.736   2.792
 9449SOL     OW30243   2.542   9.144   4.479
 9449SOL    HW130244   2.497   9.151   4.563
 9449SOL    HW230245   2.612   9.081   4.495
 9450SOL     OW30246  10.349   7.035   8.513
 9450SOL    HW130247  10.319   6.955   8.556
 9450SOL    HW230248  10.428   7.009   8.466
 9451SOL     OW30249   2.359   3.714   4.961
 9451SOL    HW130250   2.399   3.711   5.048
 9451SOL    HW230251   2.358   3.623   4.932
 9452SOL     OW30252   2.844  11.018  12.025
 9452SOL    HW130253   2.925  10.974  12.050
 9452SOL    HW230254   2.814  11.060  12.106
 9453SOL     OW30255   6.438  10.804   3.574
 9453SOL    HW130256   6.377  10.808   3.501
 9453SOL    HW230257   6.385  10.782   3.650
 9454SOL     OW30258   1.481   5.473   3.215
 9454SOL    HW130259   1.556   5.527   3.239
 9454SOL    HW230260   1.511   5.422   3.140
 9455SOL     OW30261  12.517   1.026  10.288
 9455SOL    HW130262  12.447   0.961  10.284
 9455SOL    HW230263  12.512   1.061  10.377
 9456SOL     OW30264   7.732  14.333   5.104
 9456SOL    HW130265   7.775  14.298   5.026
 9456SOL    HW230266   7.759  14.425   5.107
 9457SOL     OW30267   8.971   6.841   1.090
 9457SOL    HW130268   8.982   6.775   1.022
 9457SOL    HW230269   8.886   6.822   1.129
 9458SOL     OW30270  10.041  12.010  13.681
 9458SOL    HW130271  10.022  12.082  13.621
 9458SOL    HW230272   9.955  11.984  13.715
 9459SOL     OW30273  12.576  12.977  12.928
 9459SOL    HW130274  12.571  13.027  12.847
 9459SOL    HW230275  12.484  12.957  12.948
 9460SOL     OW30276   0.510  12.077  13.654
 9460SOL    HW130277   0.439  12.134  13.683
 9460SOL    HW230278   0.562  12.131  13.595
 9461SOL     OW30279   1.667  11.104  14.122
 9461SOL    HW130280   1.662  11.033  14.186
 9461SOL    HW230281   1.692  11.180  14.173
 9462SOL     OW30282  13.605  14.456   5.351
 9462SOL    HW130283  13.553  14.500   5.283
 9462SOL    HW230284  13.649  14.527   5.398
 9463SOL     OW30285   3.794  11.201  13.415
 9463SOL    HW130286   3.749  11.267  13.467
 9463SOL    HW230287   3.822  11.247  13.336
 9464SOL     OW30288  10.273  14.021  11.082
 9464SOL    HW130289  10.231  13.981  11.158
 9464SOL    HW230290  10.294  14.110  11.111
 9465SOL     OW30291   2.414   8.364  11.157
 9465SOL    HW130292   2.453   8.276  11.165
 9465SOL    HW230293   2.323   8.351  11.183
 9466SOL     OW30294   5.397   9.889  13.233
 9466SOL    HW130295   5.332   9.821  13.247
 9466SOL    HW230296   5.462   9.875  13.302
 9467SOL     OW30297   2.382   0.877   2.104
 9467SOL    HW130298   2.461   0.917   2.141
 9467SOL    HW230299   2.339   0.949   2.057
 9468SOL     OW30300   0.485   5.499   6.779
 9468SOL    HW130301   0.434   5.469   6.854
 9468SOL    HW230302   0.563   5.540   6.818
 9469SOL     OW30303   1.454   5.127  12.843
 9469SOL    HW130304   1.439   5.219  12.865
 9469SOL    HW230305   1.393   5.109  12.771
 9470SOL     OW30306   5.137   9.244   8.444
 9470SOL    HW130307   5.093   9.205   8.519
 9470SOL    HW230308   5.078   9.314   8.415
 9471SOL     OW30309   6.916   1.510  12.431
 9471SOL    HW130310   6.858   1.547  12.365
 9471SOL    HW230311   6.916   1.575  12.501
 9472SOL     OW30312   0.774   5.822   4.583
 9472SOL    HW130313   0.682   5.841   4.567
 9472SOL    HW230314   0.799   5.878   4.656
 9473SOL     OW30315  11.918   5.667   3.512
 9473SOL    HW130316  11.895   5.671   3.419
 9473SOL    HW230317  11.906   5.575   3.536
 9474SOL     OW30318  11.128   2.359   8.155
 9474SOL    HW130319  11.177   2.375   8.075
 9474SOL    HW230320  11.139   2.439   8.207
 9475SOL     OW30321   2.539   5.157   7.417
 9475SOL    HW130322   2.552   5.205   7.335
 9475SOL    HW230323   2.460   5.105   7.402
 9476SOL     OW30324   7.885   4.141   6.783
 9476SOL    HW130325   7.921   4.209   6.840
 9476SOL    HW230326   7.870   4.067   6.842
 9477SOL     OW30327  14.658   4.646   2.265
 9477SOL    HW130328  14.672   4.587   2.339
 9477SOL    HW230329  14.737   4.700   2.262
 9478SOL     OW30330   9.205   5.775   4.497
 9478SOL    HW130331   9.223   5.733   4.581
 9478SOL    HW230332   9.290   5.808   4.468
 9479SOL     OW30333  12.770   8.574   3.250
 9479SOL    HW130334  12.750   8.485   3.282
 9479SOL    HW230335  12.804   8.620   3.327
 9480SOL     OW30336   7.301   7.212   5.125
 9480SOL    HW130337   7.286   7.185   5.216
 9480SOL    HW230338   7.390   7.181   5.106
 9481SOL     OW30339   0.685   1.852  13.670
 9481SOL    HW130340   0.716   1.929  13.623
 9481SOL    HW230341   0.705   1.779  13.610
 9482SOL     OW30342   4.189  11.528   2.794
 9482SOL    HW130343   4.127  11.461   2.765
 9482SOL    HW230344   4.215  11.572   2.713
 9483SOL     OW30345   4.876   5.115   5.189
 9483SOL    HW130346   4.869   5.127   5.284
 9483SOL    HW230347   4.789   5.088   5.162
 9484SOL     OW30348  11.875   1.887   5.324
 9484SOL    HW130349  11.964   1.881   5.287
 9484SOL    HW230350  11.822   1.920   5.251
 9485SOL     OW30351   7.457   0.741  12.735
 9485SOL    HW130352   7.498   0.716  12.818
 9485SOL    HW230353   7.420   0.828  12.751
 9486SOL     OW30354   9.106   8.541  10.296
 9486SOL    HW130355   9.122   8.547  10.202
 9486SOL    HW230356   9.167   8.475  10.327
 9487SOL     OW30357   9.122  11.622   0.777
 9487SOL    HW130358   9.072  11.622   0.859
 9487SOL    HW230359   9.147  11.530   0.765
 9488SOL     OW30360   6.321   4.298   0.937
 9488SOL    HW130361   6.343   4.214   0.897
 9488SOL    HW230362   6.317   4.280   1.031
 9489SOL     OW30363  13.668   8.192   5.731
 9489SOL    HW130364  13.630   8.136   5.663
 9489SOL    HW230365  13.759   8.163   5.739
 9490SOL     OW30366   6.305  12.568   3.437
 9490SOL    HW130367   6.394  12.541   3.413
 9490SOL    HW230368   6.265  12.488   3.472
 9491SOL     OW30369   2.422  13.012   7.543
 9491SOL    HW130370   2.382  13.027   7.457
 9491SOL    HW230371   2.515  12.998   7.524
 9492SOL     OW30372  14.237   8.621  10.985
 9492SOL    HW130373  14.205   8.711  10.996
 9492SOL    HW230374  14.231   8.605  10.891
 9493SOL     OW30375   2.260   0.558  12.877
 9493SOL    HW130376   2.265   0.617  12.802
 9493SOL    HW230377   2.350   0.549  12.908
 9494SOL     OW30378   6.787   3.228  10.878
 9494SOL    HW130379   6.822   3.304  10.831
 9494SOL    HW230380   6.775   3.161  10.811
 9495SOL     OW30381   4.730  13.745   6.676
 9495SOL    HW130382   4.739  13.666   6.728
 9495SOL    HW230383   4.685  13.808   6.733
 9496SOL     OW30384   1.277  10.836   6.101
 9496SOL    HW130385   1.257  10.839   6.007
 9496SOL    HW230386   1.330  10.915   6.117
 9497SOL     OW30387  14.625   8.558  10.810
 9497SOL    HW130388  14.669   8.622  10.866
 9497SOL    HW230389  14.615   8.603  10.726
 9498SOL     OW30390   4.591  14.225  14.222
 9498SOL    HW130391   4.627  14.151  14.271
 9498SOL    HW230392   4.636  14.302  14.257
 9499SOL     OW30393   9.967   0.472  10.969
 9499SOL    HW130394   9.949   0.514  11.054
 9499SOL    HW230395   9.887   0.487  10.918
 9500SOL     OW30396   3.966   2.815   3.350
 9500SOL    HW130397   3.881   2.774   3.363
 9500SOL    HW230398   3.980   2.867   3.430
 9501SOL     OW30399   9.738  12.791   2.354
 9501SOL    HW130400   9.791  12.818   2.429
 9501SOL    HW230401   9.727  12.871   2.302
 9502SOL     OW30402   3.526   8.909   2.673
 9502SOL    HW130403   3.522   8.818   2.643
 9502SOL    HW230404   3.521   8.961   2.592
 9503SOL     OW30405   7.510  13.954  13.622
 9503SOL    HW130406   7.427  13.906  13.618
 9503SOL    HW230407   7.516  13.984  13.713
 9504SOL     OW30408   6.529   4.101  12.535
 9504SOL    HW130409   6.536   4.056  12.451
 9504SOL    HW230410   6.611   4.150  12.543
 9505SOL     OW30411  13.643  12.934   6.495
 9505SOL    HW130412  13.657  12.960   6.404
 9505SOL    HW230413  13.718  12.969   6.542
 9506SOL     OW30414   0.248  12.719   9.455
 9506SOL    HW130415   0.185  12.783   9.422
 9506SOL    HW230416   0.324  12.771   9.482
 9507SOL     OW30417  14.098   4.993  14.304
 9507SOL    HW130418  14.138   4.906  14.305
 9507SOL    HW230419  14.157   5.047  14.251
 9508SOL     OW30420   3.153  13.178  10.509
 9508SOL    HW130421   3.091  13.236  10.554
 9508SOL    HW230422   3.195  13.129  10.580
 9509SOL     OW30423  14.292   1.620   8.052
 9509SOL    HW130424  14.372   1.570   8.037
 9509SOL    HW230425  14.237   1.601   7.976
 9510SOL     OW30426   9.729  13.669   6.361
 9510SOL    HW130427   9.822  13.677   6.337
 9510SOL    HW230428   9.701  13.586   6.323
 9511SOL     OW30429   8.617  10.452   8.936
 9511SOL    HW130430   8.669  10.400   8.875
 9511SOL    HW230431   8.536  10.403   8.948
 9512SOL     OW30432   0.945   3.943   1.767
 9512SOL    HW130433   0.873   4.000   1.737
 9512SOL    HW230434   1.001   3.934   1.690
 9513SOL     OW30435   7.541   8.470   9.998
 9513SOL    HW130436   7.484   8.547   9.993
 9513SOL    HW230437   7.629   8.506   9.991
 9514SOL     OW30438   9.867  12.626   9.737
 9514SOL    HW130439   9.938  12.588   9.789
 9514SOL    HW230440   9.812  12.551   9.714
 9515SOL     OW30441   4.093   3.268   5.179
 9515SOL    HW130442   4.164   3.307   5.229
 9515SOL    HW230443   4.042   3.219   5.243
 9516SOL     OW30444  13.013   0.807   0.815
 9516SOL    HW130445  12.917   0.810   0.810
 9516SOL    HW230446  13.035   0.719   0.784
 9517SOL     OW30447  14.141   6.498  10.151
 9517SOL    HW130448  14.229   6.489  10.115
 9517SOL    HW230449  14.147   6.461  10.239
 9518SOL     OW30450  13.597   9.215  14.713
 9518SOL    HW130451  13.655   9.144  14.740
 9518SOL    HW230452  13.509   9.181  14.728
 9519SOL     OW30453  10.322  12.104   7.208
 9519SOL    HW130454  10.414  12.131   7.204
 9519SOL    HW230455  10.324  12.009   7.197
 9520SOL     OW30456  12.929   7.338   2.470
 9520SOL    HW130457  12.866   7.315   2.402
 9520SOL    HW230458  12.896   7.293   2.548
 9521SOL     OW30459  11.262   2.308   9.954
 9521SOL    HW130460  11.332   2.245   9.969
 9521SOL    HW230461  11.303   2.378   9.903
 9522SOL     OW30462   6.154   8.815   3.534
 9522SOL    HW130463   6.188   8.823   3.445
 9522SOL    HW230464   6.098   8.737   3.531
 9523SOL     OW30465   5.856   7.564   3.059
 9523SOL    HW130466   5.945   7.599   3.060
 9523SOL    HW230467   5.815   7.607   2.984
 9524SOL     OW30468   0.210   2.792   2.578
 9524SOL    HW130469   0.259   2.710   2.577
 9524SOL    HW230470   0.118   2.765   2.585
 9525SOL     OW30471   6.218  13.695  10.353
 9525SOL    HW130472   6.256  13.676  10.267
 9525SOL    HW230473   6.135  13.738  10.334
 9526SOL     OW30474  12.909  12.889  13.702
 9526SOL    HW130475  12.820  12.922  13.712
 9526SOL    HW230476  12.913  12.857  13.612
 9527SOL     OW30477   7.314  11.672  12.646
 9527SOL    HW130478   7.370  11.622  12.706
 9527SOL    HW230479   7.354  11.660  12.560
 9528SOL     OW30480   8.756   6.188   8.107
 9528SOL    HW130481   8.745   6.094   8.092
 9528SOL    HW230482   8.847   6.197   8.133
 9529SOL     OW30483  14.645  12.647  13.918
 9529SOL    HW130484  14.578  12.581  13.936
 9529SOL    HW230485  14.719  12.621  13.973
 9530SOL     OW30486  12.582  11.785   0.380
 9530SOL    HW130487  12.614  11.836   0.305
 9530SOL    HW230488  12.661  11.741   0.413
 9531SOL     OW30489   3.600   2.158   1.267
 9531SOL    HW130490   3.575   2.074   1.304
 9531SOL    HW230491   3.521   2.212   1.277
 9532SOL     OW30492  12.488   1.056   7.015
 9532SOL    HW130493  12.552   0.995   6.978
 9532SOL    HW230494  12.410   1.002   7.030
 9533SOL     OW30495   4.241   4.896  13.074
 9533SOL    HW130496   4.241   4.990  13.092
 9533SOL    HW230497   4.312   4.862  13.128
 9534SOL     OW30498   9.981   9.672   9.778
 9534SOL    HW130499   9.926   9.619   9.719
 9534SOL    HW230500  10.071   9.651   9.751
 9535SOL     OW30501   2.559   4.694   3.250
 9535SOL    HW130502   2.495   4.623   3.261
 9535SOL    HW230503   2.570   4.702   3.156
 9536SOL     OW30504  13.280   7.895   0.527
 9536SOL    HW130505  13.348   7.959   0.508
 9536SOL    HW230506  13.264   7.904   0.621
 9537SOL     OW30507   0.711  13.448  13.052
 9537SOL    HW130508   0.695  13.396  12.974
 9537SOL    HW230509   0.623  13.468  13.086
 9538SOL     OW30510  12.707   0.487   3.132
 9538SOL    HW130511  12.729   0.523   3.046
 9538SOL    HW230512  12.791   0.480   3.177
 9539SOL     OW30513  12.431   0.246   8.790
 9539SOL    HW130514  12.347   0.232   8.747
 9539SOL    HW230515  12.496   0.226   8.723
 9540SOL     OW30516   0.147  11.453   0.813
 9540SOL    HW130517   0.193  11.392   0.755
 9540SOL    HW230518   0.150  11.411   0.899
 9541SOL     OW30519   4.716  13.992   2.597
 9541SOL    HW130520   4.811  13.983   2.600
 9541SOL    HW230521   4.690  13.994   2.689
 9542SOL     OW30522   7.094   5.676   5.093
 9542SOL    HW130523   7.099   5.621   5.015
 9542SOL    HW230524   7.153   5.634   5.156
 9543SOL     OW30525   1.748   7.024   1.158
 9543SOL    HW130526   1.744   6.940   1.111
 9543SOL    HW230527   1.740   7.000   1.250
 9544SOL     OW30528   1.525  12.443   6.273
 9544SOL    HW130529   1.546  12.362   6.226
 9544SOL    HW230530   1.553  12.513   6.213
 9545SOL     OW30531   3.609  12.165  10.974
 9545SOL    HW130532   3.516  12.169  10.997
 9545SOL    HW230533   3.613  12.101  10.903
 9546SOL     OW30534   0.305   1.357  12.060
 9546SOL    HW130535   0.372   1.404  12.110
 9546SOL    HW230536   0.305   1.399  11.974
 9547SOL     OW30537   0.950   8.872  11.259
 9547SOL    HW130538   0.867   8.913  11.283
 9547SOL    HW230539   1.015   8.941  11.270
 9548SOL     OW30540  13.819   3.654   9.776
 9548SOL    HW130541  13.837   3.726   9.837
 9548SOL    HW230542  13.878   3.584   9.803
 9549SOL     OW30543   2.252  11.453   6.221
 9549SOL    HW130544   2.176  11.456   6.279
 9549SOL    HW230545   2.255  11.539   6.180
 9550SOL     OW30546  10.731   2.631   4.187
 9550SOL    HW130547  10.803   2.680   4.226
 9550SOL    HW230548  10.736   2.653   4.094
 9551SOL     OW30549   5.489   1.979   8.798
 9551SOL    HW130550   5.566   1.968   8.742
 9551SOL    HW230551   5.479   1.895   8.842
 9552SOL     OW30552   0.894   2.953   6.215
 9552SOL    HW130553   0.881   2.997   6.131
 9552SOL    HW230554   0.806   2.933   6.246
 9553SOL     OW30555  10.980  11.597   6.021
 9553SOL    HW130556  11.039  11.578   5.948
 9553SOL    HW230557  10.984  11.692   6.031
 9554SOL     OW30558   2.201   1.858  14.825
 9554SOL    HW130559   2.249   1.798  14.768
 9554SOL    HW230560   2.109   1.847  14.800
 9555SOL     OW30561   8.792   7.966   4.970
 9555SOL    HW130562   8.779   8.060   4.986
 9555SOL    HW230563   8.858   7.940   5.034
 9556SOL     OW30564  14.140  11.039  11.781
 9556SOL    HW130565  14.221  11.091  11.779
 9556SOL    HW230566  14.074  11.097  11.743
 9557SOL     OW30567   0.560   4.954   7.955
 9557SOL    HW130568   0.650   4.983   7.973
 9557SOL    HW230569   0.505   5.021   7.997
 9558SOL     OW30570  14.135   9.184   1.729
 9558SOL    HW130571  14.143   9.116   1.796
 9558SOL    HW230572  14.042   9.184   1.706
 9559SOL     OW30573   5.505  14.368   7.111
 9559SOL    HW130574   5.487  14.404   7.024
 9559SOL    HW230575   5.574  14.424   7.146
 9560SOL     OW30576  14.571   2.766   6.397
 9560SOL    HW130577  14.617   2.827   6.455
 9560SOL    HW230578  14.596   2.679   6.429
 9561SOL     OW30579  13.918   1.312   3.140
 9561SOL    HW130580  13.905   1.397   3.181
 9561SOL    HW230581  13.829   1.277   3.129
 9562SOL     OW30582   0.055   6.201  10.142
 9562SOL    HW130583   0.032   6.284  10.101
 9562SOL    HW230584  14.860   6.190  10.212
 9563SOL     OW30585  14.451  13.866   5.486
 9563SOL    HW130586  14.364  13.887   5.454
 9563SOL    HW230587  14.449  13.888   5.579
 9564SOL     OW30588  11.666   3.199  11.794
 9564SOL    HW130589  11.711   3.219  11.876
 9564SOL    HW230590  11.588   3.255  11.795
 9565SOL     OW30591   3.272   5.409   9.866
 9565SOL    HW130592   3.295   5.498   9.893
 9565SOL    HW230593   3.350   5.357   9.889
 9566SOL     OW30594  13.401  13.853  11.133
 9566SOL    HW130595  13.400  13.812  11.220
 9566SOL    HW230596  13.330  13.917  11.136
 9567SOL     OW30597   8.518  11.003  13.906
 9567SOL    HW130598   8.483  11.013  13.995
 9567SOL    HW230599   8.589  11.066  13.901
 9568SOL     OW30600   9.873  13.109  11.299
 9568SOL    HW130601   9.807  13.039  11.303
 9568SOL    HW230602   9.953  13.064  11.273
 9569SOL     OW30603   5.421   6.498   7.671
 9569SOL    HW130604   5.455   6.584   7.695
 9569SOL    HW230605   5.373   6.514   7.590
 9570SOL     OW30606   4.646   0.703   8.588
 9570SOL    HW130607   4.649   0.677   8.496
 9570SOL    HW230608   4.592   0.782   8.590
 9571SOL     OW30609  12.991  11.728   9.567
 9571SOL    HW130610  13.023  11.715   9.478
 9571SOL    HW230611  12.963  11.820   9.569
 9572SOL     OW30612  12.464   9.624  14.486
 9572SOL    HW130613  12.522   9.676  14.428
 9572SOL    HW230614  12.511   9.542  14.498
 9573SOL     OW30615  11.835  11.966  10.257
 9573SOL    HW130616  11.880  11.890  10.219
 9573SOL    HW230617  11.802  11.935  10.341
 9574SOL     OW30618  13.219   1.895   6.754
 9574SOL    HW130619  13.252   1.892   6.844
 9574SOL    HW230620  13.144   1.836   6.755
 9575SOL     OW30621   2.629   6.085   0.608
 9575SOL    HW130622   2.631   5.990   0.607
 9575SOL    HW230623   2.666   6.109   0.693
 9576SOL     OW30624   7.182   5.387   0.047
 9576SOL    HW130625   7.132   5.332   0.107
 9576SOL    HW230626   7.138   5.472   0.051
 9577SOL     OW30627   5.964   8.344  11.377
 9577SOL    HW130628   5.878   8.382  11.397
 9577SOL    HW230629   6.022   8.420  11.370
 9578SOL     OW30630  13.541  13.436  10.288
 9578SOL    HW130631  13.536  13.513  10.345
 9578SOL    HW230632  13.486  13.371  10.331
 9579SOL     OW30633   1.722  11.157   9.970
 9579SOL    HW130634   1.773  11.114   9.901
 9579SOL    HW230635   1.631  11.133   9.952
 9580SOL     OW30636   1.785   9.141   8.527
 9580SOL    HW130637   1.751   9.062   8.484
 9580SOL    HW230638   1.708   9.188   8.556
 9581SOL     OW30639   8.012   8.329  12.129
 9581SOL    HW130640   8.106   8.324  12.113
 9581SOL    HW230641   7.983   8.238  12.132
 9582SOL     OW30642  10.469   5.073   4.286
 9582SOL    HW130643  10.481   5.166   4.305
 9582SOL    HW230644  10.545   5.031   4.326
 9583SOL     OW30645  11.830   7.425   8.152
 9583SOL    HW130646  11.874   7.507   8.130
 9583SOL    HW230647  11.847   7.368   8.077
 9584SOL     OW30648   5.412   8.946  14.211
 9584SOL    HW130649   5.420   8.940  14.306
 9584SOL    HW230650   5.398   9.040  14.195
 9585SOL     OW30651   8.760   7.273   8.209
 9585SOL    HW130652   8.685   7.237   8.255
 9585SOL    HW230653   8.723   7.336   8.147
 9586SOL     OW30654   8.543  14.504  12.485
 9586SOL    HW130655   8.583  14.589  12.466
 9586SOL    HW230656   8.510  14.512  12.574
 9587SOL     OW30657   6.448  13.141   6.168
 9587SOL    HW130658   6.526  13.107   6.211
 9587SOL    HW230659   6.479  13.173   6.083
 9588SOL     OW30660   3.704   9.532  12.496
 9588SOL    HW130661   3.797   9.555  12.505
 9588SOL    HW230662   3.705   9.441  12.464
 9589SOL     OW30663   8.189   2.032  13.039
 9589SOL    HW130664   8.275   2.010  13.075
 9589SOL    HW230665   8.146   2.083  13.108
 9590SOL     OW30666  11.402  11.848  14.343
 9590SOL    HW130667  11.446  11.922  14.385
 9590SOL    HW230668  11.440  11.843  14.256
 9591SOL     OW30669   9.768   5.019   6.548
 9591SOL    HW130670   9.710   5.016   6.624
 9591SOL    HW230671   9.777   5.112   6.528
 9592SOL     OW30672  11.670   1.321  10.543
 9592SOL    HW130673  11.745   1.374  10.570
 9592SOL    HW230674  11.643   1.359  10.459
 9593SOL     OW30675  10.359   9.601  10.910
 9593SOL    HW130676  10.393   9.631  10.994
 9593SOL    HW230677  10.304   9.673  10.879
 9594SOL     OW30678  11.883   9.598   3.677
 9594SOL    HW130679  11.965   9.551   3.662
 9594SOL    HW230680  11.895   9.640   3.761
 9595SOL     OW30681   4.899  10.464   0.165
 9595SOL    HW130682   4.863  10.448   0.078
 9595SOL    HW230683   4.964  10.394   0.176
 9596SOL     OW30684  12.076   6.822   9.835
 9596SOL    HW130685  12.034   6.759   9.777
 9596SOL    HW230686  12.163   6.786   9.852
 9597SOL     OW30687   5.219  13.179   2.021
 9597SOL    HW130688   5.199  13.146   2.108
 9597SOL    HW230689   5.193  13.271   2.023
 9598SOL     OW30690   2.257   0.597  11.426
 9598SOL    HW130691   2.178   0.563  11.383
 9598SOL    HW230692   2.262   0.550  11.509
 9599SOL     OW30693  12.160   0.437  10.074
 9599SOL    HW130694  12.203   0.362  10.117
 9599SOL    HW230695  12.068   0.429  10.097
 9600SOL     OW30696   8.381   5.360  10.359
 9600SOL    HW130697   8.452   5.411  10.320
 9600SOL    HW230698   8.345   5.309  10.286
 9601SOL     OW30699   7.199  12.091  10.612
 9601SOL    HW130700   7.195  12.070  10.519
 9601SOL    HW230701   7.158  12.178  10.619
 9602SOL     OW30702   2.200   3.425   2.181
 9602SOL    HW130703   2.150   3.388   2.253
 9602SOL    HW230704   2.212   3.352   2.120
 9603SOL     OW30705  11.164   5.016   5.036
 9603SOL    HW130706  11.183   5.072   5.111
 9603SOL    HW230707  11.235   4.952   5.035
 9604SOL     OW30708  11.061   1.607  13.841
 9604SOL    HW130709  11.114   1.630  13.917
 9604SOL    HW230710  11.059   1.511  13.841
 9605SOL     OW30711   9.455  12.187   5.179
 9605SOL    HW130712   9.527  12.146   5.228
 9605SOL    HW230713   9.392  12.116   5.166
 9606SOL     OW30714   6.075   4.590   3.760
 9606SOL    HW130715   6.076   4.543   3.843
 9606SOL    HW230716   6.153   4.559   3.714
 9607SOL     OW30717   9.785   2.583   0.600
 9607SOL    HW130718   9.751   2.546   0.519
 9607SOL    HW230719   9.820   2.507   0.647
 9608SOL     OW30720   7.326  13.310  10.182
 9608SOL    HW130721   7.266  13.296  10.256
 9608SOL    HW230722   7.386  13.377  10.212
 9609SOL     OW30723  14.752   7.261  14.350
 9609SOL    HW130724  14.787   7.173  14.335
 9609SOL    HW230725  14.830   7.316  14.360
 9610SOL     OW30726  11.954   9.858   7.756
 9610SOL    HW130727  11.894   9.928   7.782
 9610SOL    HW230728  11.911   9.777   7.785
 9611SOL     OW30729   2.097  12.858   8.859
 9611SOL    HW130730   2.044  12.782   8.835
 9611SOL    HW230731   2.070  12.880   8.948
 9612SOL     OW30732   7.482   3.135   8.176
 9612SOL    HW130733   7.556   3.074   8.174
 9612SOL    HW230734   7.510   3.204   8.237
 9613SOL     OW30735   5.714  11.382  13.900
 9613SOL    HW130736   5.632  11.407  13.856
 9613SOL    HW230737   5.732  11.456  13.959
 9614SOL     OW30738   1.774   4.735  13.386
 9614SOL    HW130739   1.746   4.686  13.309
 9614SOL    HW230740   1.699   4.734  13.445
 9615SOL     OW30741   2.012   3.377   7.455
 9615SOL    HW130742   2.078   3.373   7.525
 9615SOL    HW230743   2.063   3.371   7.374
 9616SOL     OW30744  12.464   0.383   2.690
 9616SOL    HW130745  12.480   0.473   2.718
 9616SOL    HW230746  12.543   0.335   2.716
 9617SOL     OW30747   7.061   7.657   3.613
 9617SOL    HW130748   7.125   7.721   3.582
 9617SOL    HW230749   7.112   7.592   3.660
 9618SOL     OW30750   6.720   7.189   9.686
 9618SOL    HW130751   6.803   7.182   9.734
 9618SOL    HW230752   6.728   7.124   9.617
 9619SOL     OW30753   3.827  10.138   8.004
 9619SOL    HW130754   3.758  10.075   8.024
 9619SOL    HW230755   3.801  10.218   8.049
 9620SOL     OW30756   9.363   1.445   6.083
 9620SOL    HW130757   9.327   1.534   6.080
 9620SOL    HW230758   9.311   1.401   6.150
 9621SOL     OW30759   4.383  11.393  12.806
 9621SOL    HW130760   4.469  11.358  12.784
 9621SOL    HW230761   4.397  11.443  12.887
 9622SOL     OW30762  13.693   6.058  11.201
 9622SOL    HW130763  13.691   6.073  11.295
 9622SOL    HW230764  13.748   6.128  11.166
 9623SOL     OW30765  14.737  11.734   4.862
 9623SOL    HW130766  14.668  11.741   4.795
 9623SOL    HW230767  14.692  11.754   4.944
 9624SOL     OW30768  14.034  10.298   1.474
 9624SOL    HW130769  13.978  10.339   1.539
 9624SOL    HW230770  14.118  10.285   1.518
 9625SOL     OW30771  14.393   2.169   5.791
 9625SOL    HW130772  14.392   2.087   5.742
 9625SOL    HW230773  14.332   2.226   5.744
 9626SOL     OW30774  14.554   7.198   4.523
 9626SOL    HW130775  14.603   7.169   4.600
 9626SOL    HW230776  14.594   7.283   4.500
 9627SOL     OW30777   6.418  12.082   1.279
 9627SOL    HW130778   6.399  12.137   1.355
 9627SOL    HW230779   6.333  12.068   1.237
 9628SOL     OW30780   7.231   0.425  14.727
 9628SOL    HW130781   7.226   0.471  14.644
 9628SOL    HW230782   7.280   0.345  14.708
 9629SOL     OW30783   7.724  12.086  10.204
 9629SOL    HW130784   7.663  12.042  10.263
 9629SOL    HW230785   7.718  12.179  10.228
 9630SOL     OW30786   6.769   7.555  11.860
 9630SOL    HW130787   6.750   7.601  11.779
 9630SOL    HW230788   6.860   7.578  11.880
 9631SOL     OW30789   2.909  13.941   6.749
 9631SOL    HW130790   2.906  13.962   6.843
 9631SOL    HW230791   2.914  14.026   6.705
 9632SOL     OW30792   3.892  12.213   4.676
 9632SOL    HW130793   3.937  12.132   4.700
 9632SOL    HW230794   3.799  12.195   4.695
 9633SOL     OW30795   9.452   9.943   6.295
 9633SOL    HW130796   9.397  10.008   6.251
 9633SOL    HW230797   9.522   9.995   6.336
 9634SOL     OW30798   5.448   7.281   1.931
 9634SOL    HW130799   5.406   7.200   1.901
 9634SOL    HW230800   5.489   7.258   2.014
 9635SOL     OW30801   1.484   8.152  11.395
 9635SOL    HW130802   1.439   8.076  11.358
 9635SOL    HW230803   1.577   8.133  11.384
 9636SOL     OW30804   4.589   3.374   7.722
 9636SOL    HW130805   4.634   3.426   7.656
 9636SOL    HW230806   4.504   3.416   7.733
 9637SOL     OW30807   0.823   8.706   7.945
 9637SOL    HW130808   0.814   8.635   7.882
 9637SOL    HW230809   0.916   8.729   7.942
 9638SOL     OW30810   0.951   9.812   7.332
 9638SOL    HW130811   0.879   9.873   7.349
 9638SOL    HW230812   1.022   9.867   7.300
 9639SOL     OW30813  11.948  12.209  10.193
 9639SOL    HW130814  11.896  12.131  10.213
 9639SOL    HW230815  12.036  12.188  10.225
 9640SOL     OW30816  10.816   2.349   1.988
 9640SOL    HW130817  10.745   2.322   2.047
 9640SOL    HW230818  10.895   2.316   2.030
 9641SOL     OW30819  14.188  12.054   5.335
 9641SOL    HW130820  14.276  12.083   5.358
 9641SOL    HW230821  14.190  11.959   5.347
 9642SOL     OW30822   0.664   4.032   8.896
 9642SOL    HW130823   0.679   4.082   8.816
 9642SOL    HW230824   0.713   3.950   8.881
 9643SOL     OW30825   9.081   7.381   4.274
 9643SOL    HW130826   9.153   7.325   4.245
 9643SOL    HW230827   9.035   7.404   4.193
 9644SOL     OW30828   8.554  13.154   2.891
 9644SOL    HW130829   8.485  13.089   2.905
 9644SOL    HW230830   8.631  13.103   2.866
 9645SOL     OW30831   9.810   8.530   5.746
 9645SOL    HW130832   9.729   8.568   5.779
 9645SOL    HW230833   9.788   8.438   5.728
 9646SOL     OW30834  11.210  13.844   3.040
 9646SOL    HW130835  11.211  13.759   2.998
 9646SOL    HW230836  11.296  13.881   3.023
 9647SOL     OW30837   1.918   5.489   9.431
 9647SOL    HW130838   1.894   5.564   9.485
 9647SOL    HW230839   1.970   5.434   9.490
 9648SOL     OW30840   7.635   3.109   9.930
 9648SOL    HW130841   7.663   3.197   9.953
 9648SOL    HW230842   7.624   3.112   9.835
 9649SOL     OW30843   0.330   7.064  11.554
 9649SOL    HW130844   0.416   7.034  11.583
 9649SOL    HW230845   0.334   7.059  11.458
 9650SOL     OW30846   7.066  13.953  13.963
 9650SOL    HW130847   7.048  13.871  14.009
 9650SOL    HW230848   7.102  14.011  14.030
 9651SOL     OW30849  10.179   8.314   5.064
 9651SOL    HW130850  10.189   8.323   4.969
 9651SOL    HW230851  10.091   8.347   5.082
 9652SOL     OW30852  14.797  10.462   1.529
 9652SOL    HW130853  14.838  10.376   1.520
 9652SOL    HW230854  14.711  10.451   1.488
 9653SOL     OW30855   3.117  11.983   5.396
 9653SOL    HW130856   3.148  12.023   5.476
 9653SOL    HW230857   3.052  12.044   5.361
 9654SOL     OW30858   2.947   1.336  11.713
 9654SOL    HW130859   3.002   1.349  11.636
 9654SOL    HW230860   2.883   1.407  11.709
 9655SOL     OW30861   4.548   3.145   6.853
 9655SOL    HW130862   4.469   3.172   6.900
 9655SOL    HW230863   4.573   3.063   6.895
 9656SOL     OW30864   5.653   8.219   2.088
 9656SOL    HW130865   5.648   8.123   2.083
 9656SOL    HW230866   5.567   8.246   2.120
 9657SOL     OW30867   9.757  12.974   7.821
 9657SOL    HW130868   9.799  12.933   7.745
 9657SOL    HW230869   9.681  12.918   7.839
 9658SOL     OW30870   4.453  13.419   2.368
 9658SOL    HW130871   4.517  13.447   2.433
 9658SOL    HW230872   4.498  13.351   2.318
 9659SOL     OW30873  12.958   2.483   6.579
 9659SOL    HW130874  12.940   2.491   6.672
 9659SOL    HW230875  12.893   2.420   6.547
 9660SOL     OW30876   3.641  10.932  10.695
 9660SOL    HW130877   3.735  10.932  10.715
 9660SOL    HW230878   3.622  10.842  10.671
 9661SOL     OW30879  11.537   8.561  13.322
 9661SOL    HW130880  11.462   8.505  13.340
 9661SOL    HW230881  11.611   8.517  13.363
 9662SOL     OW30882   1.994   9.058  13.807
 9662SOL    HW130883   2.070   9.002  13.791
 9662SOL    HW230884   1.931   9.031  13.740
 9663SOL     OW30885   0.462   2.363   9.771
 9663SOL    HW130886   0.478   2.394   9.860
 9663SOL    HW230887   0.373   2.328   9.773
 9664SOL     OW30888  13.639   5.922   0.162
 9664SOL    HW130889  13.644   5.826   0.161
 9664SOL    HW230890  13.546   5.941   0.162
 9665SOL     OW30891  11.591   5.329   2.023
 9665SOL    HW130892  11.586   5.302   1.931
 9665SOL    HW230893  11.535   5.267   2.069
 9666SOL     OW30894  10.226   3.019   2.951
 9666SOL    HW130895  10.214   2.960   3.025
 9666SOL    HW230896  10.285   2.972   2.892
 9667SOL     OW30897  12.553   6.999  12.148
 9667SOL    HW130898  12.589   6.913  12.127
 9667SOL    HW230899  12.581   7.016  12.237
 9668SOL     OW30900   7.256   8.064   1.971
 9668SOL    HW130901   7.345   8.030   1.981
 9668SOL    HW230902   7.206   7.990   1.937
 9669SOL     OW30903   4.241   9.276   1.103
 9669SOL    HW130904   4.245   9.314   1.191
 9669SOL    HW230905   4.148   9.259   1.089
 9670SOL     OW30906  13.010  14.765  11.413
 9670SOL    HW130907  13.014  14.811  11.330
 9670SOL    HW230908  12.922  14.726  11.415
 9671SOL     OW30909  12.784   2.346   8.458
 9671SOL    HW130910  12.698   2.347   8.416
 9671SOL    HW230911  12.765   2.346   8.551
 9672SOL     OW30912  10.581   4.496  12.194
 9672SOL    HW130913  10.623   4.418  12.160
 9672SOL    HW230914  10.487   4.479  12.184
 9673SOL     OW30915   2.637   6.680   8.168
 9673SOL    HW130916   2.591   6.621   8.108
 9673SOL    HW230917   2.633   6.765   8.125
 9674SOL     OW30918  10.983  12.927  14.681
 9674SOL    HW130919  11.029  13.005  14.651
 9674SOL    HW230920  11.025  12.903  14.763
 9675SOL     OW30921  10.238   3.860   4.273
 9675SOL    HW130922  10.157   3.816   4.301
 9675SOL    HW230923  10.245   3.840   4.180
 9676SOL     OW30924  11.404   0.358   3.987
 9676SOL    HW130925  11.353   0.424   4.032
 9676SOL    HW230926  11.456   0.316   4.056
 9677SOL     OW30927   5.680   1.447   0.467
 9677SOL    HW130928   5.625   1.496   0.406
 9677SOL    HW230929   5.621   1.380   0.503
 9678SOL     OW30930   5.215   6.052  14.093
 9678SOL    HW130931   5.207   6.133  14.144
 9678SOL    HW230932   5.141   6.055  14.032
 9679SOL     OW30933   2.320   7.742   0.593
 9679SOL    HW130934   2.399   7.794   0.575
 9679SOL    HW230935   2.343   7.653   0.567
 9680SOL     OW30936   9.647  13.945   3.979
 9680SOL    HW130937   9.715  13.945   3.911
 9680SOL    HW230938   9.662  13.863   4.026
 9681SOL     OW30939   6.040   5.032  13.690
 9681SOL    HW130940   5.969   5.006  13.631
 9681SOL    HW230941   6.114   5.050  13.632
 9682SOL     OW30942   1.690   6.305  13.826
 9682SOL    HW130943   1.631   6.369  13.787
 9682SOL    HW230944   1.644   6.221  13.818
 9683SOL     OW30945  12.924  11.565  13.402
 9683SOL    HW130946  12.936  11.508  13.478
 9683SOL    HW230947  13.013  11.595  13.381
 9684SOL     OW30948   7.840  13.278   2.621
 9684SOL    HW130949   7.756  13.303   2.582
 9684SOL    HW230950   7.856  13.190   2.587
 9685SOL     OW30951  11.375  10.951   9.632
 9685SOL    HW130952  11.418  10.932   9.549
 9685SOL    HW230953  11.445  10.984   9.689
 9686SOL     OW30954   3.888  13.386   0.893
 9686SOL    HW130955   3.951  13.316   0.909
 9686SOL    HW230956   3.851  13.405   0.980
 9687SOL     OW30957   6.447  10.083  11.665
 9687SOL    HW130958   6.457   9.988  11.656
 9687SOL    HW230959   6.360  10.101  11.629
 9688SOL     OW30960   9.017   5.442  10.637
 9688SOL    HW130961   9.049   5.530  10.623
 9688SOL    HW230962   9.036   5.424  10.730
 9689SOL     OW30963   2.666   8.269   6.510
 9689SOL    HW130964   2.611   8.221   6.572
 9689SOL    HW230965   2.690   8.204   6.444
 9690SOL     OW30966   8.595  10.323   1.885
 9690SOL    HW130967   8.518  10.377   1.904
 9690SOL    HW230968   8.575  10.282   1.801
 9691SOL     OW30969  14.368   2.662   6.909
 9691SOL    HW130970  14.369   2.700   6.997
 9691SOL    HW230971  14.377   2.737   6.850
 9692SOL     OW30972  13.654   5.442   6.223
 9692SOL    HW130973  13.666   5.415   6.314
 9692SOL    HW230974  13.563   5.421   6.203
 9693SOL     OW30975   3.857   7.206   7.249
 9693SOL    HW130976   3.848   7.170   7.337
 9693SOL    HW230977   3.878   7.299   7.263
 9694SOL     OW30978  12.224   2.286   7.155
 9694SOL    HW130979  12.288   2.224   7.120
 9694SOL    HW230980  12.165   2.233   7.208
 9695SOL     OW30981   7.449   8.501  14.103
 9695SOL    HW130982   7.419   8.489  14.193
 9695SOL    HW230983   7.533   8.546  14.112
 9696SOL     OW30984   8.538   9.417  12.221
 9696SOL    HW130985   8.483   9.389  12.294
 9696SOL    HW230986   8.579   9.336  12.190
 9697SOL     OW30987   8.644  14.601   1.783
 9697SOL    HW130988   8.577  14.666   1.803
 9697SOL    HW230989   8.599  14.517   1.790
 9698SOL     OW30990  12.729   5.548   4.798
 9698SOL    HW130991  12.712   5.486   4.727
 9698SOL    HW230992  12.762   5.627   4.755
 9699SOL     OW30993  12.018  10.533   0.781
 9699SOL    HW130994  12.101  10.580   0.784
 9699SOL    HW230995  11.952  10.602   0.779
 9700SOL     OW30996  10.996   2.475  14.625
 9700SOL    HW130997  11.007   2.442  14.536
 9700SOL    HW230998  10.929   2.543  14.618
 9701SOL     OW30999   3.277   4.069   2.066
 9701SOL    HW131000   3.217   4.122   2.117
 9701SOL    HW231001   3.290   4.118   1.985
 9702SOL     OW31002   0.759  10.612   8.264
 9702SOL    HW131003   0.672  10.601   8.226
 9702SOL    HW231004   0.813  10.548   8.219
 9703SOL     OW31005  14.672  12.182   0.486
 9703SOL    HW131006  14.647  12.130   0.410
 9703SOL    HW231007  14.612  12.256   0.486
 9704SOL     OW31008  13.983   4.037   8.538
 9704SOL    HW131009  14.059   4.011   8.591
 9704SOL    HW231010  13.942   4.107   8.588
 9705SOL     OW31011   7.742   8.328  12.756
 9705SOL    HW131012   7.660   8.350  12.712
 9705SOL    HW231013   7.716   8.273  12.829
 9706SOL     OW31014  13.964   4.251   8.346
 9706SOL    HW131015  13.932   4.209   8.426
 9706SOL    HW231016  13.926   4.339   8.348
 9707SOL     OW31017   4.346   3.801   2.260
 9707SOL    HW131018   4.377   3.718   2.296
 9707SOL    HW231019   4.291   3.775   2.185
 9708SOL     OW31020   2.027   7.407   4.944
 9708SOL    HW131021   2.087   7.368   4.879
 9708SOL    HW231022   1.997   7.488   4.904
 9709SOL     OW31023  13.741   7.732   3.831
 9709SOL    HW131024  13.793   7.652   3.824
 9709SOL    HW231025  13.650   7.703   3.833
 9710SOL     OW31026   5.380   8.475  13.907
 9710SOL    HW131027   5.459   8.427  13.881
 9710SOL    HW231028   5.309   8.431  13.861
 9711SOL     OW31029   5.957  14.222  10.923
 9711SOL    HW131030   6.030  14.206  10.864
 9711SOL    HW231031   5.918  14.136  10.936
 9712SOL     OW31032   5.458   3.533   1.798
 9712SOL    HW131033   5.468   3.600   1.866
 9712SOL    HW231034   5.536   3.544   1.743
 9713SOL     OW31035   6.300   5.919   4.211
 9713SOL    HW131036   6.360   5.903   4.138
 9713SOL    HW231037   6.229   5.971   4.173
 9714SOL     OW31038  12.894   3.248  11.987
 9714SOL    HW131039  12.969   3.305  11.968
 9714SOL    HW231040  12.818   3.299  11.960
 9715SOL     OW31041   2.797   9.108   5.984
 9715SOL    HW131042   2.848   9.031   6.009
 9715SOL    HW231043   2.851   9.152   5.918
 9716SOL     OW31044  12.178  12.142  10.280
 9716SOL    HW131045  12.244  12.210  10.290
 9716SOL    HW231046  12.221  12.062  10.312
 9717SOL     OW31047  13.546   0.315   6.194
 9717SOL    HW131048  13.542   0.246   6.128
 9717SOL    HW231049  13.500   0.389   6.154
 9718SOL     OW31050   0.380   8.977  11.459
 9718SOL    HW131051   0.300   8.971  11.512
 9718SOL    HW231052   0.426   8.895  11.475
 9719SOL     OW31053   7.708   5.384   8.212
 9719SOL    HW131054   7.803   5.390   8.206
 9719SOL    HW231055   7.680   5.469   8.245
 9720SOL     OW31056  13.040  14.110  13.314
 9720SOL    HW131057  12.995  14.194  13.301
 9720SOL    HW231058  12.992  14.069  13.386
 9721SOL     OW31059  11.296  11.785   0.907
 9721SOL    HW131060  11.370  11.793   0.847
 9721SOL    HW231061  11.268  11.694   0.897
 9722SOL     OW31062  14.174   7.698  11.204
 9722SOL    HW131063  14.203   7.607  11.191
 9722SOL    HW231064  14.079   7.694  11.197
 9723SOL     OW31065  12.604  12.345   8.857
 9723SOL    HW131066  12.582  12.427   8.900
 9723SOL    HW231067  12.690  12.360   8.817
 9724SOL     OW31068  14.791   1.234   5.541
 9724SOL    HW131069  14.772   1.162   5.601
 9724SOL    HW231070  14.851   1.290   5.589
 9725SOL     OW31071  14.754   4.765   6.233
 9725SOL    HW131072  14.714   4.719   6.306
 9725SOL    HW231073  14.841   4.724   6.224
 9726SOL     OW31074   8.657   9.600  14.448
 9726SOL    HW131075   8.676   9.555  14.365
 9726SOL    HW231076   8.711   9.679  14.446
 9727SOL     OW31077   0.076   9.363   7.466
 9727SOL    HW131078   0.146   9.425   7.486
 9727SOL    HW231079  14.865   9.415   7.468
 9728SOL     OW31080   0.990   0.106  13.418
 9728SOL    HW131081   1.042   0.030  13.391
 9728SOL    HW231082   0.982   0.097  13.513
 9729SOL     OW31083  11.525   7.979   5.657
 9729SOL    HW131084  11.536   7.885   5.644
 9729SOL    HW231085  11.466   8.006   5.586
 9730SOL     OW31086  11.866   1.253  11.636
 9730SOL    HW131087  11.922   1.187  11.595
 9730SOL    HW231088  11.841   1.214  11.720
 9731SOL     OW31089   1.493  11.474   8.232
 9731SOL    HW131090   1.573  11.511   8.271
 9731SOL    HW231091   1.481  11.523   8.151
 9732SOL     OW31092   5.361  12.507   9.712
 9732SOL    HW131093   5.286  12.538   9.660
 9732SOL    HW231094   5.347  12.413   9.719
 9733SOL     OW31095   9.370  13.985   7.306
 9733SOL    HW131096   9.447  13.928   7.317
 9733SOL    HW231097   9.351  14.016   7.395
 9734SOL     OW31098   4.666   9.613   9.310
 9734SOL    HW131099   4.630   9.560   9.381
 9734SOL    HW231100   4.759   9.622   9.331
 9735SOL     OW31101  14.115   1.865   5.351
 9735SOL    HW131102  14.156   1.798   5.295
 9735SOL    HW231103  14.030   1.827   5.375
 9736SOL     OW31104   3.414   3.302  14.623
 9736SOL    HW131105   3.398   3.226  14.567
 9736SOL    HW231106   3.457   3.366  14.566
 9737SOL     OW31107   1.868   5.565  10.828
 9737SOL    HW131108   1.792   5.619  10.805
 9737SOL    HW231109   1.832   5.490  10.875
 9738SOL     OW31110   0.681   2.095   8.811
 9738SOL    HW131111   0.737   2.153   8.761
 9738SOL    HW231112   0.661   2.023   8.751
 9739SOL     OW31113  13.752  11.178  12.960
 9739SOL    HW131114  13.701  11.164  12.880
 9739SOL    HW231115  13.708  11.124  13.026
 9740SOL     OW31116  13.337   9.523  10.817
 9740SOL    HW131117  13.330   9.435  10.854
 9740SOL    HW231118  13.247   9.549  10.801
 9741SOL     OW31119   6.387   1.326   5.363
 9741SOL    HW131120   6.435   1.259   5.412
 9741SOL    HW231121   6.295   1.303   5.374
 9742SOL     OW31122   4.045   4.201  12.109
 9742SOL    HW131123   3.968   4.238  12.066
 9742SOL    HW231124   4.119   4.234  12.058
 9743SOL     OW31125   0.554  12.026  14.361
 9743SOL    HW131126   0.525  11.989  14.445
 9743SOL    HW231127   0.485  12.087  14.337
 9744SOL     OW31128   0.093   2.751  13.054
 9744SOL    HW131129   0.188   2.761  13.063
 9744SOL    HW231130   0.082   2.682  12.989
 9745SOL     OW31131   6.153   2.240  14.537
 9745SOL    HW131132   6.240   2.276  14.556
 9745SOL    HW231133   6.116   2.301  14.473
 9746SOL     OW31134  13.600  10.801   2.063
 9746SOL    HW131135  13.516  10.754   2.065
 9746SOL    HW231136  13.601  10.851   2.145
 9747SOL     OW31137  13.349   9.804   0.544
 9747SOL    HW131138  13.334   9.711   0.529
 9747SOL    HW231139  13.309   9.847   0.469
 9748SOL     OW31140  12.141   1.598   3.317
 9748SOL    HW131141  12.083   1.558   3.382
 9748SOL    HW231142  12.131   1.543   3.239
 9749SOL     OW31143   0.513   3.489  11.797
 9749SOL    HW131144   0.480   3.524  11.714
 9749SOL    HW231145   0.598   3.531  11.808
 9750SOL     OW31146   4.499   2.891   8.480
 9750SOL    HW131147   4.536   2.826   8.420
 9750SOL    HW231148   4.421   2.849   8.515
 9751SOL     OW31149   2.064   8.109   0.258
 9751SOL    HW131150   2.003   8.182   0.261
 9751SOL    HW231151   2.009   8.032   0.243
 9752SOL     OW31152   6.785   6.950   8.349
 9752SOL    HW131153   6.872   6.975   8.381
 9752SOL    HW231154   6.802   6.903   8.267
 9753SOL     OW31155  12.591  14.303   6.104
 9753SOL    HW131156  12.511  14.320   6.054
 9753SOL    HW231157  12.612  14.212   6.084
 9754SOL     OW31158   7.797  11.631  11.230
 9754SOL    HW131159   7.740  11.703  11.203
 9754SOL    HW231160   7.881  11.650  11.187
 9755SOL     OW31161  12.102  14.236   9.586
 9755SOL    HW131162  12.167  14.170   9.561
 9755SOL    HW231163  12.151  14.297   9.641
 9756SOL     OW31164   5.308   7.694   3.056
 9756SOL    HW131165   5.296   7.762   2.990
 9756SOL    HW231166   5.396   7.659   3.040
 9757SOL     OW31167  11.366   4.719   1.239
 9757SOL    HW131168  11.400   4.723   1.328
 9757SOL    HW231169  11.419   4.652   1.196
 9758SOL     OW31170  11.691   6.490   8.542
 9758SOL    HW131171  11.632   6.460   8.473
 9758SOL    HW231172  11.775   6.503   8.498
 9759SOL     OW31173   3.099   2.685  10.253
 9759SOL    HW131174   3.188   2.655  10.233
 9759SOL    HW231175   3.102   2.780  10.239
 9760SOL     OW31176   7.848   3.901   3.074
 9760SOL    HW131177   7.941   3.924   3.084
 9760SOL    HW231178   7.806   3.937   3.152
 9761SOL     OW31179   4.188   1.950  13.800
 9761SOL    HW131180   4.185   1.943  13.704
 9761SOL    HW231181   4.121   2.016  13.821
 9762SOL     OW31182   5.339  13.833  14.824
 9762SOL    HW131183   5.396  13.756  14.820
 9762SOL    HW231184   5.381  13.891   0.018
 9763SOL     OW31185   3.053   2.441  13.341
 9763SOL    HW131186   3.097   2.366  13.301
 9763SOL    HW231187   3.035   2.499  13.267
 9764SOL     OW31188   7.343   4.566   9.951
 9764SOL    HW131189   7.255   4.564   9.988
 9764SOL    HW231190   7.396   4.611  10.017
 9765SOL     OW31191   2.183  14.603   5.282
 9765SOL    HW131192   2.153  14.694   5.275
 9765SOL    HW231193   2.175  14.582   5.375
 9766SOL     OW31194   8.892   9.255   9.617
 9766SOL    HW131195   8.921   9.314   9.687
 9766SOL    HW231196   8.935   9.171   9.637
 9767SOL     OW31197  10.031  14.036  13.015
 9767SOL    HW131198  10.014  13.964  12.955
 9767SOL    HW231199  10.087  13.998  13.082
 9768SOL     OW31200   5.530   4.734   3.460
 9768SOL    HW131201   5.434   4.742   3.465
 9768SOL    HW231202   5.560   4.757   3.548
 9769SOL     OW31203   3.391  12.684  10.786
 9769SOL    HW131204   3.327  12.733  10.838
 9769SOL    HW231205   3.400  12.601  10.833
 9770SOL     OW31206   8.163  12.275   2.466
 9770SOL    HW131207   8.198  12.230   2.389
 9770SOL    HW231208   8.225  12.252   2.536
 9771SOL     OW31209  12.976   7.636   2.439
 9771SOL    HW131210  12.901   7.672   2.393
 9771SOL    HW231211  12.948   7.550   2.468
 9772SOL     OW31212   2.855   5.954  12.742
 9772SOL    HW131213   2.839   5.955  12.837
 9772SOL    HW231214   2.892   6.040  12.723
 9773SOL     OW31215  14.017   0.762   4.485
 9773SOL    HW131216  13.982   0.779   4.397
 9773SOL    HW231217  14.084   0.695   4.471
 9774SOL     OW31218   3.226  10.020  13.873
 9774SOL    HW131219   3.302   9.981  13.917
 9774SOL    HW231220   3.195  10.087  13.933
 9775SOL     OW31221   6.055   2.709  10.186
 9775SOL    HW131222   6.000   2.631  10.193
 9775SOL    HW231223   6.045   2.737  10.095
 9776SOL     OW31224   6.110   4.383   5.171
 9776SOL    HW131225   6.192   4.339   5.193
 9776SOL    HW231226   6.079   4.418   5.254
 9777SOL     OW31227   1.174   8.795   4.708
 9777SOL    HW131228   1.198   8.767   4.620
 9777SOL    HW231229   1.245   8.854   4.735
 9778SOL     OW31230   5.511   4.061  13.388
 9778SOL    HW131231   5.505   3.966  13.403
 9778SOL    HW231232   5.588   4.071  13.332
 9779SOL     OW31233  10.802   1.075   9.274
 9779SOL    HW131234  10.868   1.144   9.283
 9779SOL    HW231235  10.720   1.122   9.262
 9780SOL     OW31236   3.223   6.739   4.430
 9780SOL    HW131237   3.200   6.660   4.478
 9780SOL    HW231238   3.306   6.766   4.468
 9781SOL     OW31239  14.027   0.209   4.541
 9781SOL    HW131240  14.019   0.258   4.460
 9781SOL    HW231241  13.948   0.155   4.545
 9782SOL     OW31242   5.433   1.969  11.137
 9782SOL    HW131243   5.410   1.998  11.225
 9782SOL    HW231244   5.357   1.991  11.083
 9783SOL     OW31245  12.051  14.378  12.835
 9783SOL    HW131246  12.114  14.305  12.843
 9783SOL    HW231247  12.066  14.432  12.913
 9784SOL     OW31248   2.172   2.594  14.256
 9784SOL    HW131249   2.105   2.527  14.248
 9784SOL    HW231250   2.250   2.556  14.215
 9785SOL     OW31251   9.824  14.748   9.902
 9785SOL    HW131252   9.893  14.735   9.837
 9785SOL    HW231253   9.824  14.667   9.953
 9786SOL     OW31254   9.324   0.962   7.805
 9786SOL    HW131255   9.373   1.009   7.737
 9786SOL    HW231256   9.344   1.010   7.886
 9787SOL     OW31257   6.333   0.965   6.023
 9787SOL    HW131258   6.273   0.891   6.009
 9787SOL    HW231259   6.292   1.017   6.091
 9788SOL     OW31260   0.276  12.748  12.000
 9788SOL    HW131261   0.192  12.703  11.996
 9788SOL    HW231262   0.258  12.830  12.047
 9789SOL     OW31263   5.662   7.099   9.670
 9789SOL    HW131264   5.575   7.078   9.638
 9789SOL    HW231265   5.647   7.161   9.741
 9790SOL     OW31266  11.791   5.682   4.449
 9790SOL    HW131267  11.728   5.744   4.488
 9790SOL    HW231268  11.850   5.737   4.398
 9791SOL     OW31269  12.072   5.386  10.595
 9791SOL    HW131270  12.072   5.480  10.613
 9791SOL    HW231271  11.981   5.359  10.610
 9792SOL     OW31272  11.942   3.747  11.122
 9792SOL    HW131273  11.864   3.719  11.074
 9792SOL    HW231274  11.929   3.841  11.135
 9793SOL     OW31275  10.705   2.763  12.042
 9793SOL    HW131276  10.697   2.805  12.128
 9793SOL    HW231277  10.726   2.836  11.983
 9794SOL     OW31278   8.436  12.703   4.605
 9794SOL    HW131279   8.344  12.719   4.625
 9794SOL    HW231280   8.482  12.709   4.689
 9795SOL     OW31281  12.981  10.215   9.827
 9795SOL    HW131282  12.946  10.170   9.904
 9795SOL    HW231283  13.075  10.223   9.845
 9796SOL     OW31284  10.591   3.381  12.092
 9796SOL    HW131285  10.576   3.287  12.102
 9796SOL    HW231286  10.540   3.420  12.163
 9797SOL     OW31287   5.431  13.579   6.442
 9797SOL    HW131288   5.359  13.533   6.486
 9797SOL    HW231289   5.433  13.665   6.484
 9798SOL     OW31290   1.380   5.754   3.377
 9798SOL    HW131291   1.414   5.703   3.304
 9798SOL    HW231292   1.352   5.688   3.441
 9799SOL     OW31293   7.079   4.364   8.394
 9799SOL    HW131294   7.050   4.331   8.310
 9799SOL    HW231295   7.074   4.459   8.386
 9800SOL     OW31296   6.537   6.734   8.641
 9800SOL    HW131297   6.618   6.758   8.687
 9800SOL    HW231298   6.567   6.679   8.568
 9801SOL     OW31299  13.318   6.264   3.168
 9801SOL    HW131300  13.327   6.197   3.100
 9801SOL    HW231301  13.331   6.347   3.123
 9802SOL     OW31302  14.331   7.026   6.975
 9802SOL    HW131303  14.293   6.938   6.979
 9802SOL    HW231304  14.407   7.022   7.032
 9803SOL     OW31305  14.605  11.636  12.623
 9803SOL    HW131306  14.623  11.620  12.716
 9803SOL    HW231307  14.672  11.699  12.596
 9804SOL     OW31308   3.930   7.212   5.337
 9804SOL    HW131309   4.022   7.234   5.321
 9804SOL    HW231310   3.932   7.119   5.362
 9805SOL     OW31311   2.512   8.242   9.663
 9805SOL    HW131312   2.513   8.325   9.710
 9805SOL    HW231313   2.599   8.206   9.677
 9806SOL     OW31314  10.361  11.463  12.553
 9806SOL    HW131315  10.312  11.413  12.487
 9806SOL    HW231316  10.443  11.486  12.509
 9807SOL     OW31317   2.439  12.732   7.343
 9807SOL    HW131318   2.379  12.665   7.310
 9807SOL    HW231319   2.448  12.713   7.436
 9808SOL     OW31320  10.303   1.103   9.883
 9808SOL    HW131321  10.263   1.047   9.815
 9808SOL    HW231322  10.236   1.109   9.951
 9809SOL     OW31323   8.991  12.113  13.462
 9809SOL    HW131324   8.942  12.073  13.534
 9809SOL    HW231325   9.081  12.121  13.495
 9810SOL     OW31326  14.852   9.890   0.744
 9810SOL    HW131327   0.041   9.915   0.815
 9810SOL    HW231328   0.030   9.914   0.664
 9811SOL     OW31329  13.249   2.574   5.326
 9811SOL    HW131330  13.162   2.533   5.317
 9811SOL    HW231331  13.241   2.631   5.402
 9812SOL     OW31332   5.770   8.443   3.375
 9812SOL    HW131333   5.700   8.409   3.430
 9812SOL    HW231334   5.724   8.487   3.303
 9813SOL     OW31335   1.934   4.736   1.086
 9813SOL    HW131336   1.996   4.789   1.036
 9813SOL    HW231337   1.959   4.749   1.177
 9814SOL     OW31338   2.582  14.141   0.339
 9814SOL    HW131339   2.580  14.053   0.302
 9814SOL    HW231340   2.622  14.130   0.425
 9815SOL     OW31341   6.307   7.096   5.196
 9815SOL    HW131342   6.304   7.081   5.101
 9815SOL    HW231343   6.391   7.060   5.223
 9816SOL     OW31344  13.943   8.696   9.775
 9816SOL    HW131345  13.912   8.785   9.793
 9816SOL    HW231346  13.917   8.679   9.685
 9817SOL     OW31347   7.151  11.448  14.447
 9817SOL    HW131348   7.092  11.522  14.439
 9817SOL    HW231349   7.200  11.465  14.528
 9818SOL     OW31350  14.607   1.076   0.076
 9818SOL    HW131351  14.635   1.150   0.131
 9818SOL    HW231352  14.608   1.001   0.136
 9819SOL     OW31353  14.209  11.139  11.460
 9819SOL    HW131354  14.276  11.207  11.464
 9819SOL    HW231355  14.133  11.178  11.504
 9820SOL     OW31356   7.487   4.667   0.412
 9820SOL    HW131357   7.529   4.721   0.345
 9820SOL    HW231358   7.430   4.727   0.460
 9821SOL     OW31359  13.775  14.676   0.501
 9821SOL    HW131360  13.838  14.621   0.455
 9821SOL    HW231361  13.714  14.615   0.540
 9822SOL     OW31362   8.136  14.106   1.831
 9822SOL    HW131363   8.229  14.084   1.832
 9822SOL    HW231364   8.116  14.120   1.738
 9823SOL     OW31365   3.498   6.154  11.176
 9823SOL    HW131366   3.563   6.210  11.219
 9823SOL    HW231367   3.423   6.155  11.235
 9824SOL     OW31368  13.794   4.552   5.876
 9824SOL    HW131369  13.830   4.628   5.920
 9824SOL    HW231370  13.866   4.488   5.874
 9825SOL     OW31371  13.652   6.569   5.840
 9825SOL    HW131372  13.577   6.523   5.802
 9825SOL    HW231373  13.624   6.661   5.843
 9826SOL     OW31374  14.592   5.041   5.577
 9826SOL    HW131375  14.658   5.027   5.509
 9826SOL    HW231376  14.540   5.115   5.546
 9827SOL     OW31377   0.307   3.106  13.331
 9827SOL    HW131378   0.314   3.193  13.371
 9827SOL    HW231379   0.394   3.092  13.292
 9828SOL     OW31380   0.051   3.897   6.943
 9828SOL    HW131381   0.054   3.976   6.890
 9828SOL    HW231382   0.044   3.928   7.033
 9829SOL     OW31383  11.188   7.963   8.922
 9829SOL    HW131384  11.148   8.016   8.991
 9829SOL    HW231385  11.275   7.940   8.956
 9830SOL     OW31386   7.449   4.913   3.646
 9830SOL    HW131387   7.494   4.858   3.710
 9830SOL    HW231388   7.415   4.986   3.698
 9831SOL     OW31389   8.451   5.703  12.694
 9831SOL    HW131390   8.421   5.774  12.638
 9831SOL    HW231391   8.526   5.738  12.740
 9832SOL     OW31392  12.344   1.209  14.541
 9832SOL    HW131393  12.377   1.276  14.481
 9832SOL    HW231394  12.410   1.140  14.538
 9833SOL     OW31395  14.672   8.526   4.737
 9833SOL    HW131396  14.720   8.443   4.733
 9833SOL    HW231397  14.597   8.508   4.792
 9834SOL     OW31398   6.390  13.911   5.426
 9834SOL    HW131399   6.478  13.947   5.418
 9834SOL    HW231400   6.335  13.972   5.377
 9835SOL     OW31401  14.493   1.741   0.344
 9835SOL    HW131402  14.398   1.728   0.351
 9835SOL    HW231403  14.528   1.708   0.427
 9836SOL     OW31404   0.543  13.665   3.175
 9836SOL    HW131405   0.455  13.701   3.188
 9836SOL    HW231406   0.573  13.705   3.093
 9837SOL     OW31407   8.244   6.746   1.510
 9837SOL    HW131408   8.149   6.741   1.499
 9837SOL    HW231409   8.270   6.658   1.538
 9838SOL     OW31410  12.691   9.924   0.475
 9838SOL    HW131411  12.676   9.960   0.388
 9838SOL    HW231412  12.622   9.859   0.486
 9839SOL     OW31413   7.045   8.460   9.989
 9839SOL    HW131414   6.974   8.479   9.928
 9839SOL    HW231415   7.123   8.454   9.933
 9840SOL     OW31416   9.198  11.693   3.861
 9840SOL    HW131417   9.211  11.601   3.881
 9840SOL    HW231418   9.160  11.730   3.941
 9841SOL     OW31419   5.768   8.647   2.550
 9841SOL    HW131420   5.793   8.724   2.601
 9841SOL    HW231421   5.795   8.667   2.460
 9842SOL     OW31422   4.640   7.263   6.402
 9842SOL    HW131423   4.567   7.325   6.406
 9842SOL    HW231424   4.676   7.262   6.490
 9843SOL     OW31425   4.610   5.825  12.178
 9843SOL    HW131426   4.601   5.792  12.267
 9843SOL    HW231427   4.673   5.767  12.137
 9844SOL     OW31428   4.047  13.839  11.508
 9844SOL    HW131429   4.111  13.880  11.566
 9844SOL    HW231430   4.074  13.747  11.504
 9845SOL     OW31431   0.615   4.026  10.159
 9845SOL    HW131432   0.668   4.103  10.181
 9845SOL    HW231433   0.557   4.015  10.234
 9846SOL     OW31434   7.674   3.584  14.034
 9846SOL    HW131435   7.687   3.665  13.985
 9846SOL    HW231436   7.584   3.558  14.014
 9847SOL     OW31437   9.252   0.379  14.331
 9847SOL    HW131438   9.234   0.287  14.314
 9847SOL    HW231439   9.204   0.426  14.263
 9848SOL     OW31440   5.540   0.060  13.354
 9848SOL    HW131441   5.600   0.133  13.370
 9848SOL    HW231442   5.518   0.066  13.261
 9849SOL     OW31443  12.729   8.782   6.331
 9849SOL    HW131444  12.675   8.861   6.320
 9849SOL    HW231445  12.809   8.801   6.282
 9850SOL     OW31446   6.214   1.678   0.749
 9850SOL    HW131447   6.260   1.709   0.827
 9850SOL    HW231448   6.123   1.665   0.778
 9851SOL     OW31449   1.913   0.616   5.453
 9851SOL    HW131450   1.934   0.651   5.366
 9851SOL    HW231451   1.853   0.681   5.491
 9852SOL     OW31452   1.436   4.162   9.031
 9852SOL    HW131453   1.450   4.071   9.057
 9852SOL    HW231454   1.514   4.208   9.061
 9853SOL     OW31455   4.768   8.538   6.569
 9853SOL    HW131456   4.739   8.447   6.564
 9853SOL    HW231457   4.842   8.536   6.630
 9854SOL     OW31458   4.012   7.490   6.361
 9854SOL    HW131459   4.045   7.517   6.447
 9854SOL    HW231460   4.082   7.438   6.323
 9855SOL     OW31461   7.473   2.544  13.873
 9855SOL    HW131462   7.466   2.470  13.934
 9855SOL    HW231463   7.529   2.607  13.919
 9856SOL     OW31464   9.938   2.336   1.210
 9856SOL    HW131465   9.934   2.429   1.189
 9856SOL    HW231466  10.017   2.305   1.166
 9857SOL     OW31467   4.975   6.094   2.564
 9857SOL    HW131468   4.976   6.096   2.659
 9857SOL    HW231469   5.065   6.118   2.539
 9858SOL     OW31470   5.277  10.347  12.689
 9858SOL    HW131471   5.261  10.339  12.595
 9858SOL    HW231472   5.295  10.257  12.718
 9859SOL     OW31473   2.091  13.147  12.402
 9859SOL    HW131474   2.109  13.222  12.459
 9859SOL    HW231475   2.170  13.137  12.349
 9860SOL     OW31476   8.887   6.612   9.422
 9860SOL    HW131477   8.960   6.600   9.484
 9860SOL    HW231478   8.875   6.525   9.383
 9861SOL     OW31479  10.729  14.211  10.349
 9861SOL    HW131480  10.813  14.194  10.308
 9861SOL    HW231481  10.714  14.305  10.335
 9862SOL     OW31482  13.426   1.194  14.416
 9862SOL    HW131483  13.431   1.161  14.326
 9862SOL    HW231484  13.348   1.153  14.452
 9863SOL     OW31485   1.212   8.190  14.629
 9863SOL    HW131486   1.147   8.159  14.691
 9863SOL    HW231487   1.185   8.151  14.545
 9864SOL     OW31488   1.708   2.886   0.389
 9864SOL    HW131489   1.795   2.846   0.385
 9864SOL    HW231490   1.647   2.812   0.381
 9865SOL     OW31491  11.051  12.878   2.838
 9865SOL    HW131492  11.029  12.809   2.775
 9865SOL    HW231493  10.971  12.929   2.847
 9866SOL     OW31494   7.524  10.896   2.679
 9866SOL    HW131495   7.489  10.842   2.750
 9866SOL    HW231496   7.595  10.946   2.719
 9867SOL     OW31497   0.674   6.220  14.557
 9867SOL    HW131498   0.619   6.176  14.493
 9867SOL    HW231499   0.614   6.247  14.626
 9868SOL     OW31500   8.209  14.496   2.483
 9868SOL    HW131501   8.124  14.539   2.484
 9868SOL    HW231502   8.220  14.466   2.393
 9869SOL     OW31503  14.424  10.106   3.265
 9869SOL    HW131504  14.410  10.200   3.255
 9869SOL    HW231505  14.372  10.067   3.195
 9870SOL     OW31506  13.970   5.765   3.891
 9870SOL    HW131507  13.955   5.673   3.869
 9870SOL    HW231508  13.902   5.785   3.956
 9871SOL     OW31509  12.213   0.454   5.855
 9871SOL    HW131510  12.135   0.457   5.799
 9871SOL    HW231511  12.260   0.375   5.827
 9872SOL     OW31512   6.858  12.089   3.934
 9872SOL    HW131513   6.827  12.153   3.998
 9872SOL    HW231514   6.805  12.010   3.951
 9873SOL     OW31515   7.293  12.050   0.627
 9873SOL    HW131516   7.326  12.089   0.546
 9873SOL    HW231517   7.198  12.045   0.613
 9874SOL     OW31518   9.546  10.524   2.022
 9874SOL    HW131519   9.456  10.556   2.019
 9874SOL    HW231520   9.539  10.436   2.060
 9875SOL     OW31521  10.573   2.648  10.579
 9875SOL    HW131522  10.654   2.603  10.603
 9875SOL    HW231523  10.560   2.712  10.649
 9876SOL     OW31524   3.556  12.671   8.572
 9876SOL    HW131525   3.624  12.725   8.531
 9876SOL    HW231526   3.558  12.697   8.664
 9877SOL     OW31527   8.959   6.340   0.309
 9877SOL    HW131528   9.040   6.331   0.360
 9877SOL    HW231529   8.946   6.254   0.269
 9878SOL     OW31530  14.038   3.475   8.693
 9878SOL    HW131531  14.019   3.392   8.736
 9878SOL    HW231532  14.129   3.493   8.714
 9879SOL     OW31533   1.557   6.497   4.817
 9879SOL    HW131534   1.519   6.519   4.732
 9879SOL    HW231535   1.507   6.422   4.847
 9880SOL     OW31536  12.406   5.249   7.891
 9880SOL    HW131537  12.472   5.288   7.948
 9880SOL    HW231538  12.326   5.247   7.944
 9881SOL     OW31539  14.143   6.089  11.384
 9881SOL    HW131540  14.067   6.067  11.438
 9881SOL    HW231541  14.204   6.016  11.399
 9882SOL     OW31542   7.412  11.297  14.014
 9882SOL    HW131543   7.381  11.228  13.956
 9882SOL    HW231544   7.371  11.277  14.098
 9883SOL     OW31545   6.742   6.480  12.360
 9883SOL    HW131546   6.765   6.447  12.447
 9883SOL    HW231547   6.743   6.403  12.303
 9884SOL     OW31548   3.766   3.679  11.751
 9884SOL    HW131549   3.811   3.729  11.684
 9884SOL    HW231550   3.746   3.595  11.709
 9885SOL     OW31551   9.368   8.101   7.913
 9885SOL    HW131552   9.341   8.104   7.821
 9885SOL    HW231553   9.342   8.014   7.942
 9886SOL     OW31554   4.116   6.658   2.060
 9886SOL    HW131555   4.199   6.653   2.013
 9886SOL    HW231556   4.096   6.752   2.062
 9887SOL     OW31557   1.180  12.669  12.828
 9887SOL    HW131558   1.241  12.698  12.761
 9887SOL    HW231559   1.230  12.605  12.880
 9888SOL     OW31560  12.640   7.962  12.922
 9888SOL    HW131561  12.706   7.951  12.991
 9888SOL    HW231562  12.656   8.050  12.888
 9889SOL     OW31563   8.735   3.824   8.194
 9889SOL    HW131564   8.715   3.909   8.233
 9889SOL    HW231565   8.650   3.790   8.166
 9890SOL     OW31566   2.807   9.044   5.125
 9890SOL    HW131567   2.731   9.032   5.182
 9890SOL    HW231568   2.816   8.961   5.079
 9891SOL     OW31569   3.119   7.515   8.268
 9891SOL    HW131570   3.048   7.453   8.248
 9891SOL    HW231571   3.193   7.459   8.291
 9892SOL     OW31572   2.575   0.020   2.430
 9892SOL    HW131573   2.593   0.048   2.519
 9892SOL    HW231574   2.636   0.072   2.376
 9893SOL     OW31575  12.772   1.052  11.060
 9893SOL    HW131576  12.826   0.977  11.086
 9893SOL    HW231577  12.815   1.127  11.102
 9894SOL     OW31578   2.368   4.677   7.020
 9894SOL    HW131579   2.405   4.648   7.103
 9894SOL    HW231580   2.277   4.700   7.041
 9895SOL     OW31581   8.675   4.222   1.920
 9895SOL    HW131582   8.696   4.232   1.827
 9895SOL    HW231583   8.579   4.220   1.922
 9896SOL     OW31584   9.313  13.697  10.937
 9896SOL    HW131585   9.322  13.791  10.950
 9896SOL    HW231586   9.364  13.679  10.858
 9897SOL     OW31587   7.469   1.222   2.310
 9897SOL    HW131588   7.394   1.270   2.345
 9897SOL    HW231589   7.459   1.133   2.343
 9898SOL     OW31590   0.039   2.754   7.050
 9898SOL    HW131591  14.826   2.727   7.008
 9898SOL    HW231592   0.025   2.734   7.143
 9899SOL     OW31593   5.589  14.844   0.614
 9899SOL    HW131594   5.676   0.002   0.644
 9899SOL    HW231595   5.583  14.752   0.640
 9900SOL     OW31596   0.177  13.457   5.752
 9900SOL    HW131597   0.236  13.437   5.679
 9900SOL    HW231598   0.218  13.414   5.827
 9901SOL     OW31599   7.079   6.663  10.459
 9901SOL    HW131600   7.147   6.669  10.526
 9901SOL    HW231601   7.003   6.627  10.505
 9902SOL     OW31602   1.286   2.969   4.098
 9902SOL    HW131603   1.243   2.954   4.182
 9902SOL    HW231604   1.214   2.979   4.036
 9903SOL     OW31605   3.872  13.504  11.047
 9903SOL    HW131606   3.806  13.498  11.116
 9903SOL    HW231607   3.839  13.571  10.987
 9904SOL     OW31608  13.547   1.787   2.748
 9904SOL    HW131609  13.594   1.865   2.719
 9904SOL    HW231610  13.463   1.820   2.779
 9905SOL     OW31611   2.357  10.086   4.485
 9905SOL    HW131612   2.268  10.050   4.491
 9905SOL    HW231613   2.374  10.121   4.573
 9906SOL     OW31614   9.619   6.818  11.846
 9906SOL    HW131615   9.707   6.853  11.857
 9906SOL    HW231616   9.599   6.830  11.754
 9907SOL     OW31617  14.166  13.654  14.673
 9907SOL    HW131618  14.163  13.666  14.768
 9907SOL    HW231619  14.146  13.741  14.637
 9908SOL     OW31620   7.411   8.454  10.715
 9908SOL    HW131621   7.431   8.412  10.632
 9908SOL    HW231622   7.493   8.452  10.764
 9909SOL     OW31623  12.934   8.465   9.679
 9909SOL    HW131624  12.961   8.390   9.732
 9909SOL    HW231625  12.870   8.430   9.617
 9910SOL     OW31626   7.678   5.610  13.509
 9910SOL    HW131627   7.586   5.600  13.534
 9910SOL    HW231628   7.682   5.578  13.419
 9911SOL     OW31629   8.155   9.174   6.326
 9911SOL    HW131630   8.123   9.264   6.334
 9911SOL    HW231631   8.079   9.119   6.347
 9912SOL     OW31632  14.062  12.016  10.787
 9912SOL    HW131633  13.993  11.950  10.794
 9912SOL    HW231634  14.014  12.099  10.781
 9913SOL     OW31635   6.737   1.310   1.045
 9913SOL    HW131636   6.672   1.357   1.097
 9913SOL    HW231637   6.785   1.257   1.108
 9914SOL     OW31638   0.650   9.689  10.462
 9914SOL    HW131639   0.646   9.745  10.385
 9914SOL    HW231640   0.579   9.720  10.519
 9915SOL     OW31641   0.850   7.367   2.207
 9915SOL    HW131642   0.888   7.294   2.256
 9915SOL    HW231643   0.818   7.426   2.275
 9916SOL     OW31644   3.486  11.555  10.804
 9916SOL    HW131645   3.425  11.512  10.744
 9916SOL    HW231646   3.565  11.502  10.799
 9917SOL     OW31647  11.545  14.228  10.394
 9917SOL    HW131648  11.526  14.315  10.429
 9917SOL    HW231649  11.536  14.169  10.468
 9918SOL     OW31650  14.581   9.898   2.717
 9918SOL    HW131651  14.583   9.976   2.773
 9918SOL    HW231652  14.528   9.925   2.641
 9919SOL     OW31653  10.151   5.345   1.122
 9919SOL    HW131654  10.142   5.250   1.110
 9919SOL    HW231655  10.175   5.378   1.035
 9920SOL     OW31656  10.775   9.658   2.259
 9920SOL    HW131657  10.815   9.724   2.315
 9920SOL    HW231658  10.848   9.612   2.219
 9921SOL     OW31659  13.022   8.184  14.838
 9921SOL    HW131660  12.963   8.110  14.824
 9921SOL    HW231661  12.968   8.250   0.013
 9922SOL     OW31662  10.188   5.452   6.418
 9922SOL    HW131663  10.251   5.500   6.365
 9922SOL    HW231664  10.139   5.519   6.465
 9923SOL     OW31665   1.718  12.421  11.068
 9923SOL    HW131666   1.716  12.474  11.147
 9923SOL    HW231667   1.792  12.361  11.081
 9924SOL     OW31668  13.018   6.808  11.005
 9924SOL    HW131669  13.100   6.854  10.985
 9924SOL    HW231670  13.044   6.737  11.063
 9925SOL     OW31671   7.342   0.664   9.285
 9925SOL    HW131672   7.290   0.683   9.208
 9925SOL    HW231673   7.290   0.697   9.358
 9926SOL     OW31674   4.680   1.528   4.934
 9926SOL    HW131675   4.677   1.603   4.994
 9926SOL    HW231676   4.607   1.542   4.874
 9927SOL     OW31677   4.876   0.988   3.958
 9927SOL    HW131678   4.934   0.987   3.882
 9927SOL    HW231679   4.902   0.912   4.009
 9928SOL     OW31680   4.266   2.989  13.621
 9928SOL    HW131681   4.318   2.935  13.562
 9928SOL    HW231682   4.216   2.926  13.673
 9929SOL     OW31683   5.921  11.890   1.613
 9929SOL    HW131684   5.857  11.937   1.667
 9929SOL    HW231685   5.897  11.798   1.624
 9930SOL     OW31686   4.610  13.289   4.158
 9930SOL    HW131687   4.611  13.238   4.239
 9930SOL    HW231688   4.702  13.300   4.135
 9931SOL     OW31689  11.511  13.651   9.372
 9931SOL    HW131690  11.536  13.731   9.326
 9931SOL    HW231691  11.512  13.674   9.464
 9932SOL     OW31692   8.150   9.475  11.405
 9932SOL    HW131693   8.129   9.565  11.430
 9932SOL    HW231694   8.210   9.445  11.473
 9933SOL     OW31695  12.724   7.303   3.598
 9933SOL    HW131696  12.723   7.334   3.507
 9933SOL    HW231697  12.798   7.242   3.602
 9934SOL     OW31698   9.966  14.005  11.077
 9934SOL    HW131699   9.889  14.060  11.060
 9934SOL    HW231700  10.009  13.997  10.992
 9935SOL     OW31701   3.833  12.322   4.936
 9935SOL    HW131702   3.879  12.247   4.896
 9935SOL    HW231703   3.757  12.283   4.979
 9936SOL     OW31704   0.659  12.710   0.713
 9936SOL    HW131705   0.669  12.615   0.726
 9936SOL    HW231706   0.627  12.718   0.623
 9937SOL     OW31707   4.424   2.096   4.054
 9937SOL    HW131708   4.356   2.029   4.065
 9937SOL    HW231709   4.472   2.095   4.137
 9938SOL     OW31710   7.038  13.600  11.145
 9938SOL    HW131711   7.103  13.538  11.111
 9938SOL    HW231712   6.984  13.622  11.069
 9939SOL     OW31713   9.008   5.961   2.610
 9939SOL    HW131714   8.938   5.981   2.547
 9939SOL    HW231715   9.063   6.039   2.611
 9940SOL     OW31716   1.876   8.755   0.823
 9940SOL    HW131717   1.911   8.673   0.859
 9940SOL    HW231718   1.934   8.777   0.750
 9941SOL     OW31719   7.190   4.428   5.172
 9941SOL    HW131720   7.250   4.500   5.191
 9941SOL    HW231721   7.146   4.411   5.255
 9942SOL     OW31722  12.125   5.994   3.833
 9942SOL    HW131723  12.059   5.949   3.781
 9942SOL    HW231724  12.084   6.009   3.918
 9943SOL     OW31725   3.124   4.164   8.199
 9943SOL    HW131726   3.069   4.237   8.170
 9943SOL    HW231727   3.139   4.180   8.292
 9944SOL     OW31728   8.955   7.309  13.104
 9944SOL    HW131729   9.008   7.332  13.027
 9944SOL    HW231730   8.932   7.217  13.090
 9945SOL     OW31731   1.120   1.591  11.192
 9945SOL    HW131732   1.070   1.642  11.256
 9945SOL    HW231733   1.075   1.506  11.189
 9946SOL     OW31734   5.116   7.741  11.623
 9946SOL    HW131735   5.027   7.773  11.635
 9946SOL    HW231736   5.111   7.681  11.549
 9947SOL     OW31737   1.571   4.902   9.310
 9947SOL    HW131738   1.641   4.914   9.246
 9947SOL    HW231739   1.522   4.984   9.309
 9948SOL     OW31740   0.154   8.771   0.954
 9948SOL    HW131741   0.158   8.838   1.022
 9948SOL    HW231742   0.220   8.797   0.890
 9949SOL     OW31743   1.013   8.274  13.296
 9949SOL    HW131744   0.947   8.206  13.311
 9949SOL    HW231745   0.962   8.351  13.271
 9950SOL     OW31746   9.995   3.722  10.263
 9950SOL    HW131747   9.979   3.816  10.269
 9950SOL    HW231748  10.056   3.712  10.190
 9951SOL     OW31749   6.343   2.196  13.908
 9951SOL    HW131750   6.257   2.221  13.875
 9951SOL    HW231751   6.387   2.154  13.833
 9952SOL     OW31752   0.493   0.372   7.668
 9952SOL    HW131753   0.523   0.368   7.759
 9952SOL    HW231754   0.574   0.362   7.616
 9953SOL     OW31755  13.555   8.432   3.964
 9953SOL    HW131756  13.644   8.399   3.949
 9953SOL    HW231757  13.507   8.409   3.885
 9954SOL     OW31758  11.176   4.637   9.294
 9954SOL    HW131759  11.113   4.640   9.366
 9954SOL    HW231760  11.229   4.715   9.305
 9955SOL     OW31761  10.209   2.089  14.446
 9955SOL    HW131762  10.150   2.105  14.520
 9955SOL    HW231763  10.288   2.054  14.486
 9956SOL     OW31764  10.431  10.607   8.736
 9956SOL    HW131765  10.382  10.677   8.694
 9956SOL    HW231766  10.437  10.633   8.828
 9957SOL     OW31767   0.514  11.418   0.770
 9957SOL    HW131768   0.604  11.388   0.758
 9957SOL    HW231769   0.461  11.353   0.724
 9958SOL     OW31770   4.534   3.850   4.584
 9958SOL    HW131771   4.496   3.789   4.520
 9958SOL    HW231772   4.463   3.866   4.646
 9959SOL     OW31773  13.061   7.292  12.949
 9959SOL    HW131774  13.007   7.255  12.880
 9959SOL    HW231775  13.147   7.251  12.937
 9960SOL     OW31776  11.593  12.786  14.816
 9960SOL    HW131777  11.560  12.876  14.813
 9960SOL    HW231778  11.536  12.742   0.010
 9961SOL     OW31779  11.760   1.237   2.884
 9961SOL    HW131780  11.829   1.235   2.817
 9961SOL    HW231781  11.802   1.275   2.961
 9962SOL     OW31782   7.964   1.965   4.937
 9962SOL    HW131783   8.028   1.896   4.920
 9962SOL    HW231784   7.947   1.959   5.031
 9963SOL     OW31785   4.239   3.166   0.613
 9963SOL    HW131786   4.264   3.086   0.659
 9963SOL    HW231787   4.173   3.206   0.670
 9964SOL     OW31788   5.870   7.905   4.936
 9964SOL    HW131789   5.861   7.948   4.851
 9964SOL    HW231790   5.788   7.856   4.946
 9965SOL     OW31791   2.122   8.329  11.196
 9965SOL    HW131792   2.070   8.408  11.209
 9965SOL    HW231793   2.091   8.268  11.263
 9966SOL     OW31794   2.087   4.819  12.060
 9966SOL    HW131795   2.081   4.773  12.143
 9966SOL    HW231796   2.168   4.871  12.066
 9967SOL     OW31797  12.579  13.010  10.829
 9967SOL    HW131798  12.631  13.017  10.909
 9967SOL    HW231799  12.603  13.087  10.778
 9968SOL     OW31800   2.969  14.618  11.568
 9968SOL    HW131801   2.929  14.532  11.581
 9968SOL    HW231802   3.002  14.643  11.654
 9969SOL     OW31803   4.703   5.458  14.427
 9969SOL    HW131804   4.623   5.508  14.444
 9969SOL    HW231805   4.672   5.371  14.403
 9970SOL     OW31806   9.022  11.651   8.770
 9970SOL    HW131807   9.055  11.642   8.680
 9970SOL    HW231808   8.956  11.720   8.765
 9971SOL     OW31809   8.708  14.191   4.680
 9971SOL    HW131810   8.762  14.193   4.601
 9971SOL    HW231811   8.724  14.104   4.718
 9972SOL     OW31812   2.948   0.145   1.412
 9972SOL    HW131813   3.002   0.207   1.461
 9972SOL    HW231814   2.893   0.104   1.479
 9973SOL     OW31815   8.037   2.158   9.716
 9973SOL    HW131816   8.125   2.178   9.684
 9973SOL    HW231817   7.979   2.207   9.657
 9974SOL     OW31818  14.283   4.331   0.764
 9974SOL    HW131819  14.363   4.313   0.814
 9974SOL    HW231820  14.299   4.416   0.723
 9975SOL     OW31821   5.001  11.320  11.230
 9975SOL    HW131822   4.908  11.313  11.207
 9975SOL    HW231823   5.030  11.402  11.192
 9976SOL     OW31824   4.241   4.612  14.345
 9976SOL    HW131825   4.171   4.575  14.291
 9976SOL    HW231826   4.205   4.615  14.433
 9977SOL     OW31827  11.309  10.619  13.470
 9977SOL    HW131828  11.365  10.573  13.533
 9977SOL    HW231829  11.363  10.693  13.440
 9978SOL     OW31830   7.815  10.395  11.048
 9978SOL    HW131831   7.801  10.357  11.135
 9978SOL    HW231832   7.759  10.472  11.046
 9979SOL     OW31833   7.420   0.762   6.924
 9979SOL    HW131834   7.415   0.776   7.019
 9979SOL    HW231835   7.506   0.721   6.911
 9980SOL     OW31836   3.683   3.986  12.156
 9980SOL    HW131837   3.706   3.913  12.099
 9980SOL    HW231838   3.766   4.030  12.174
 9981SOL     OW31839   1.129  13.693   9.120
 9981SOL    HW131840   1.185  13.760   9.081
 9981SOL    HW231841   1.056  13.685   9.060
 9982SOL     OW31842   1.485   4.360  11.906
 9982SOL    HW131843   1.424   4.289  11.887
 9982SOL    HW231844   1.496   4.357  12.001
 9983SOL     OW31845   3.699  14.391   9.536
 9983SOL    HW131846   3.639  14.330   9.494
 9983SOL    HW231847   3.656  14.414   9.619
 9984SOL     OW31848   6.043  10.146   1.312
 9984SOL    HW131849   6.117  10.174   1.259
 9984SOL    HW231850   6.048  10.051   1.311
 9985SOL     OW31851   8.241   2.122   8.427
 9985SOL    HW131852   8.249   2.047   8.487
 9985SOL    HW231853   8.217   2.195   8.484
 9986SOL     OW31854   7.198   4.061  11.466
 9986SOL    HW131855   7.133   4.123  11.432
 9986SOL    HW231856   7.273   4.071  11.408
 9987SOL     OW31857   5.951  14.536   6.348
 9987SOL    HW131858   5.882  14.476   6.374
 9987SOL    HW231859   5.909  14.592   6.281
 9988SOL     OW31860  10.478  10.736   0.695
 9988SOL    HW131861  10.560  10.775   0.726
 9988SOL    HW231862  10.468  10.657   0.747
 9989SOL     OW31863  10.257   0.735   4.420
 9989SOL    HW131864  10.206   0.812   4.444
 9989SOL    HW231865  10.218   0.664   4.472
 9990SOL     OW31866   3.802   5.367   1.310
 9990SOL    HW131867   3.842   5.301   1.254
 9990SOL    HW231868   3.718   5.387   1.268
 9991SOL     OW31869   1.137   1.876   2.541
 9991SOL    HW131870   1.198   1.918   2.480
 9991SOL    HW231871   1.071   1.943   2.558
 9992SOL     OW31872   4.033   4.554  13.299
 9992SOL    HW131873   4.040   4.645  13.268
 9992SOL    HW231874   4.090   4.504  13.240
 9993SOL     OW31875   9.579   2.356   7.122
 9993SOL    HW131876   9.529   2.350   7.040
 9993SOL    HW231877   9.667   2.379   7.093
 9994SOL     OW31878  11.513  11.722   7.188
 9994SOL    HW131879  11.563  11.803   7.194
 9994SOL    HW231880  11.427  11.744   7.224
 9995SOL     OW31881  12.892   2.681   9.593
 9995SOL    HW131882  12.841   2.662   9.672
 9995SOL    HW231883  12.976   2.637   9.608
 9996SOL     OW31884   2.239   0.150  14.194
 9996SOL    HW131885   2.265   0.196  14.274
 9996SOL    HW231886   2.321   0.129  14.150
 9997SOL     OW31887   2.847   9.729   2.532
 9997SOL    HW131888   2.914   9.714   2.599
 9997SOL    HW231889   2.869   9.666   2.463
 9998SOL     OW31890   2.911  12.449   8.247
 9998SOL    HW131891   2.906  12.504   8.325
 9998SOL    HW231892   2.922  12.511   8.175
 9999SOL     OW31893  14.032   2.608   6.313
 9999SOL    HW131894  14.084   2.649   6.244
 9999SOL    HW231895  13.957   2.666   6.325
10000SOL     OW31896   2.651  11.330  10.512
10000SOL    HW131897   2.574  11.346  10.566
10000SOL    HW231898   2.673  11.415  10.474
10001SOL     OW31899   5.441   0.447   3.713
10001SOL    HW131900   5.474   0.398   3.788
10001SOL    HW231901   5.441   0.538   3.742
10002SOL     OW31902   1.861   3.472   4.973
10002SOL    HW131903   1.857   3.518   5.057
10002SOL    HW231904   1.886   3.540   4.910
10003SOL     OW31905  13.314   1.548  11.402
10003SOL    HW131906  13.268   1.628  11.375
10003SOL    HW231907  13.382   1.578  11.462
10004SOL     OW31908   8.465   4.488   7.796
10004SOL    HW131909   8.394   4.519   7.854
10004SOL    HW231910   8.534   4.460   7.856
10005SOL     OW31911  14.043   7.031   3.792
10005SOL    HW131912  13.996   6.965   3.742
10005SOL    HW231913  14.112   6.982   3.837
10006SOL     OW31914  13.895  11.202  11.357
10006SOL    HW131915  13.889  11.134  11.291
10006SOL    HW231916  13.806  11.235  11.366
10007SOL     OW31917   4.937  11.307   2.130
10007SOL    HW131918   4.918  11.375   2.066
10007SOL    HW231919   5.005  11.345   2.186
10008SOL     OW31920  14.788   0.440   3.278
10008SOL    HW131921  14.834   0.364   3.314
10008SOL    HW231922  14.816   0.513   3.333
10009SOL     OW31923  14.053  10.256  10.438
10009SOL    HW131924  14.026  10.263  10.530
10009SOL    HW231925  13.993  10.192  10.400
10010SOL     OW31926  11.999  12.711   4.732
10010SOL    HW131927  11.904  12.700   4.729
10010SOL    HW231928  12.014  12.792   4.683
10011SOL     OW31929  11.917  13.131   7.607
10011SOL    HW131930  11.847  13.073   7.577
10011SOL    HW231931  11.883  13.172   7.686
10012SOL     OW31932   6.506  11.543   3.977
10012SOL    HW131933   6.569  11.477   3.950
10012SOL    HW231934   6.453  11.500   4.044
10013SOL     OW31935   1.946   7.356  11.801
10013SOL    HW131936   1.875   7.397  11.850
10013SOL    HW231937   2.008   7.328  11.869
10014SOL     OW31938  10.445  11.776   5.206
10014SOL    HW131939  10.515  11.827   5.247
10014SOL    HW231940  10.419  11.830   5.131
10015SOL     OW31941   6.269   6.918   9.933
10015SOL    HW131942   6.248   6.826   9.920
10015SOL    HW231943   6.346   6.933   9.878
10016SOL     OW31944  10.425   9.092   7.133
10016SOL    HW131945  10.436   9.161   7.068
10016SOL    HW231946  10.333   9.095   7.156
10017SOL     OW31947   4.065   8.344  14.664
10017SOL    HW131948   3.997   8.362  14.729
10017SOL    HW231949   4.144   8.384  14.699
10018SOL     OW31950   9.846  12.644   6.889
10018SOL    HW131951   9.829  12.649   6.795
10018SOL    HW231952   9.940  12.659   6.898
10019SOL     OW31953   4.261   6.285  10.553
10019SOL    HW131954   4.168   6.301  10.566
10019SOL    HW231955   4.302   6.371  10.557
10020SOL     OW31956  10.216   8.610  10.280
10020SOL    HW131957  10.229   8.704  10.268
10020SOL    HW231958  10.221   8.596  10.375
10021SOL     OW31959   7.671   0.875   4.595
10021SOL    HW131960   7.601   0.939   4.578
10021SOL    HW231961   7.635   0.792   4.563
10022SOL     OW31962  13.827  11.314   5.548
10022SOL    HW131963  13.915  11.279   5.561
10022SOL    HW231964  13.838  11.409   5.554
10023SOL     OW31965  10.071  10.284   1.576
10023SOL    HW131966  10.043  10.238   1.497
10023SOL    HW231967  10.033  10.372   1.568
10024SOL     OW31968   5.750   4.152   4.082
10024SOL    HW131969   5.681   4.094   4.050
10024SOL    HW231970   5.778   4.114   4.166
10025SOL     OW31971   5.403   6.599  11.473
10025SOL    HW131972   5.337   6.546  11.429
10025SOL    HW231973   5.487   6.565  11.443
10026SOL     OW31974  13.200   4.114   4.150
10026SOL    HW131975  13.213   4.186   4.087
10026SOL    HW231976  13.239   4.038   4.107
10027SOL     OW31977   3.223   1.623  13.936
10027SOL    HW131978   3.217   1.668  14.020
10027SOL    HW231979   3.274   1.544  13.955
10028SOL     OW31980   7.433   6.930   5.624
10028SOL    HW131981   7.423   6.836   5.608
10028SOL    HW231982   7.442   6.969   5.537
10029SOL     OW31983   3.176   6.098   5.667
10029SOL    HW131984   3.118   6.081   5.742
10029SOL    HW231985   3.142   6.042   5.597
10030SOL     OW31986   1.016  11.980   4.936
10030SOL    HW131987   0.923  11.980   4.914
10030SOL    HW231988   1.052  12.054   4.887
10031SOL     OW31989   4.577   9.552   8.621
10031SOL    HW131990   4.575   9.502   8.703
10031SOL    HW231991   4.660   9.528   8.580
10032SOL     OW31992  11.225  10.865   2.057
10032SOL    HW131993  11.282  10.793   2.084
10032SOL    HW231994  11.265  10.899   1.977
10033SOL     OW31995   6.932   5.359   1.653
10033SOL    HW131996   6.902   5.445   1.682
10033SOL    HW231997   6.911   5.300   1.726
10034SOL     OW31998  11.914  13.669   5.560
10034SOL    HW131999  11.844  13.724   5.525
10034SOL    HW232000  11.869  13.595   5.600
10035SOL     OW32001   8.741   7.978  12.186
10035SOL    HW132002   8.744   8.072  12.199
10035SOL    HW232003   8.653   7.951  12.213
10036SOL     OW32004   1.207  10.633   9.443
10036SOL    HW132005   1.267  10.707   9.433
10036SOL    HW232006   1.187  10.606   9.353
10037SOL     OW32007   3.238   6.132  12.641
10037SOL    HW132008   3.274   6.107  12.726
10037SOL    HW232009   3.179   6.059  12.617
10038SOL     OW32010   8.041   2.205   3.800
10038SOL    HW132011   8.118   2.221   3.745
10038SOL    HW232012   8.074   2.151   3.872
10039SOL     OW32013  10.246   4.595   9.245
10039SOL    HW132014  10.213   4.547   9.170
10039SOL    HW232015  10.316   4.651   9.210
10040SOL     OW32016   5.123   9.707   9.174
10040SOL    HW132017   5.047   9.679   9.224
10040SOL    HW232018   5.198   9.684   9.230
10041SOL     OW32019   8.301  11.411   2.600
10041SOL    HW132020   8.363  11.448   2.538
10041SOL    HW232021   8.335  11.436   2.686
10042SOL     OW32022   4.262   1.822  14.052
10042SOL    HW132023   4.214   1.762  14.110
10042SOL    HW232024   4.201   1.839  13.980
10043SOL     OW32025   9.936   1.207  14.568
10043SOL    HW132026   9.885   1.212  14.649
10043SOL    HW232027   9.881   1.248  14.502
10044SOL     OW32028  10.317   9.900   9.262
10044SOL    HW132029  10.338   9.936   9.348
10044SOL    HW232030  10.294   9.976   9.208
10045SOL     OW32031   5.123   9.598   5.535
10045SOL    HW132032   5.061   9.536   5.496
10045SOL    HW232033   5.129   9.669   5.472
10046SOL     OW32034  12.115  13.595   0.051
10046SOL    HW132035  12.193  13.583  14.866
10046SOL    HW232036  12.062  13.517   0.034
10047SOL     OW32037   7.406  13.891  10.799
10047SOL    HW132038   7.451  13.857  10.722
10047SOL    HW232039   7.472  13.944  10.844
10048SOL     OW32040  11.761   5.946  12.413
10048SOL    HW132041  11.774   5.993  12.495
10048SOL    HW232042  11.848   5.913  12.391
10049SOL     OW32043  10.291  11.388  14.822
10049SOL    HW132044  10.343  11.308  14.832
10049SOL    HW232045  10.202  11.362  14.844
10050SOL     OW32046   6.159   5.990  13.546
10050SOL    HW132047   6.141   5.993  13.452
10050SOL    HW232048   6.078   6.022  13.587
10051SOL     OW32049  13.995  13.779  13.480
10051SOL    HW132050  14.008  13.720  13.555
10051SOL    HW232051  13.973  13.863  13.520
10052SOL     OW32052  10.071   6.005  13.499
10052SOL    HW132053  10.068   5.974  13.590
10052SOL    HW232054  10.024   6.089  13.501
10053SOL     OW32055   9.062   7.060   8.755
10053SOL    HW132056   9.021   7.101   8.678
10053SOL    HW232057   9.081   7.134   8.813
10054SOL     OW32058  10.008   0.400  11.846
10054SOL    HW132059  10.043   0.443  11.924
10054SOL    HW232060   9.953   0.329  11.879
10055SOL     OW32061   5.565   6.853  11.642
10055SOL    HW132062   5.564   6.830  11.549
10055SOL    HW232063   5.540   6.945  11.645
10056SOL     OW32064   8.904   6.807  11.964
10056SOL    HW132065   8.878   6.750  11.892
10056SOL    HW232066   8.872   6.894  11.939
10057SOL     OW32067   4.404   1.610  11.259
10057SOL    HW132068   4.342   1.605  11.332
10057SOL    HW232069   4.374   1.684  11.207
10058SOL     OW32070   9.298  11.543   0.004
10058SOL    HW132071   9.363  11.595   0.052
10058SOL    HW232072   9.297  11.580  14.785
10059SOL     OW32073   4.584  11.611  13.519
10059SOL    HW132074   4.546  11.662  13.448
10059SOL    HW232075   4.541  11.525  13.514
10060SOL     OW32076   8.387  10.697   8.638
10060SOL    HW132077   8.443  10.627   8.605
10060SOL    HW232078   8.309  10.694   8.583
10061SOL     OW32079   6.538   6.340  13.693
10061SOL    HW132080   6.631   6.351  13.711
10061SOL    HW232081   6.534   6.286  13.614
10062SOL     OW32082   6.438   0.989   9.525
10062SOL    HW132083   6.468   1.040   9.601
10062SOL    HW232084   6.381   1.048   9.477
10063SOL     OW32085   9.631   6.293   7.330
10063SOL    HW132086   9.588   6.286   7.245
10063SOL    HW232087   9.689   6.217   7.334
10064SOL     OW32088   9.682   8.070   3.917
10064SOL    HW132089   9.591   8.097   3.930
10064SOL    HW232090   9.685   8.040   3.826
10065SOL     OW32091   5.951   7.849   8.046
10065SOL    HW132092   5.918   7.845   7.956
10065SOL    HW232093   5.925   7.766   8.085
10066SOL     OW32094  12.813   7.190   2.701
10066SOL    HW132095  12.757   7.113   2.686
10066SOL    HW232096  12.754   7.257   2.735
10067SOL     OW32097   3.194   0.655   8.695
10067SOL    HW132098   3.199   0.560   8.703
10067SOL    HW232099   3.114   0.679   8.743
10068SOL     OW32100   9.349   8.447   1.576
10068SOL    HW132101   9.281   8.489   1.629
10068SOL    HW232102   9.361   8.505   1.501
10069SOL     OW32103   5.553   4.228  13.596
10069SOL    HW132104   5.523   4.188  13.515
10069SOL    HW232105   5.473   4.264  13.636
10070SOL     OW32106   0.782  14.471   5.072
10070SOL    HW132107   0.737  14.396   5.035
10070SOL    HW232108   0.843  14.500   5.004
10071SOL     OW32109   6.170   7.990   6.726
10071SOL    HW132110   6.187   8.071   6.774
10071SOL    HW232111   6.102   7.946   6.776
10072SOL     OW32112  14.502  11.529   5.494
10072SOL    HW132113  14.476  11.620   5.507
10072SOL    HW232114  14.431  11.477   5.530
10073SOL     OW32115   5.786   5.344   1.676
10073SOL    HW132116   5.708   5.349   1.731
10073SOL    HW232117   5.775   5.417   1.614
10074SOL     OW32118   6.326   1.200   4.218
10074SOL    HW132119   6.331   1.245   4.302
10074SOL    HW232120   6.308   1.269   4.155
10075SOL     OW32121   0.736   7.739   4.551
10075SOL    HW132122   0.773   7.812   4.602
10075SOL    HW232123   0.709   7.780   4.468
10076SOL     OW32124   1.681   0.354   2.121
10076SOL    HW132125   1.753   0.374   2.181
10076SOL    HW232126   1.669   0.434   2.071
10077SOL     OW32127   1.141  13.031   3.726
10077SOL    HW132128   1.197  13.022   3.649
10077SOL    HW232129   1.068  13.085   3.697
10078SOL     OW32130   9.773   1.953   1.778
10078SOL    HW132131   9.749   1.869   1.740
10078SOL    HW232132   9.762   2.016   1.707
10079SOL     OW32133   2.220   0.942  12.362
10079SOL    HW132134   2.156   0.889  12.411
10079SOL    HW232135   2.285   0.879  12.333
10080SOL     OW32136  14.701   8.638  14.629
10080SOL    HW132137  14.718   8.610  14.718
10080SOL    HW232138  14.785   8.628  14.584
10081SOL     OW32139   2.281   8.766   7.282
10081SOL    HW132140   2.276   8.691   7.223
10081SOL    HW232141   2.231   8.740   7.360
10082SOL     OW32142  13.425   7.117  12.720
10082SOL    HW132143  13.500   7.142  12.666
10082SOL    HW232144  13.348   7.145  12.669
10083SOL     OW32145  10.455   6.810   7.324
10083SOL    HW132146  10.385   6.832   7.262
10083SOL    HW232147  10.421   6.735   7.373
10084SOL     OW32148   9.633   5.165   6.977
10084SOL    HW132149   9.645   5.073   7.002
10084SOL    HW232150   9.547   5.187   7.011
10085SOL     OW32151   8.610   9.861  11.530
10085SOL    HW132152   8.702   9.832  11.536
10085SOL    HW232153   8.594   9.906  11.613
10086SOL     OW32154  13.629   2.249  10.176
10086SOL    HW132155  13.553   2.190  10.176
10086SOL    HW232156  13.629   2.289  10.089
10087SOL     OW32157   2.831  10.744  11.212
10087SOL    HW132158   2.849  10.742  11.118
10087SOL    HW232159   2.835  10.837  11.235
10088SOL     OW32160   7.845  14.536  14.703
10088SOL    HW132161   7.931  14.507  14.732
10088SOL    HW232162   7.863  14.612  14.647
10089SOL     OW32163   3.689  11.925  12.936
10089SOL    HW132164   3.758  11.928  13.002
10089SOL    HW232165   3.677  11.831  12.919
10090SOL     OW32166  10.948   3.637   9.261
10090SOL    HW132167  10.961   3.731   9.258
10090SOL    HW232168  11.007   3.606   9.330
10091SOL     OW32169   4.310   9.652   5.672
10091SOL    HW132170   4.306   9.745   5.693
10091SOL    HW232171   4.227   9.634   5.627
10092SOL     OW32172  12.647   6.767   1.862
10092SOL    HW132173  12.627   6.773   1.956
10092SOL    HW232174  12.741   6.749   1.859
10093SOL     OW32175   9.086  12.512  13.624
10093SOL    HW132176   9.134  12.533  13.704
10093SOL    HW232177   9.001  12.480  13.654
10094SOL     OW32178   7.311   8.806   4.138
10094SOL    HW132179   7.316   8.725   4.188
10094SOL    HW232180   7.305   8.778   4.047
10095SOL     OW32181   6.173   3.591   4.485
10095SOL    HW132182   6.124   3.561   4.561
10095SOL    HW232183   6.258   3.618   4.520
10096SOL     OW32184   1.989   4.408  11.866
10096SOL    HW132185   1.999   4.499  11.896
10096SOL    HW232186   1.900   4.385  11.891
10097SOL     OW32187   4.833  11.980  12.036
10097SOL    HW132188   4.806  11.929  12.113
10097SOL    HW232189   4.895  11.923  11.990
10098SOL     OW32190   4.838   3.272   6.084
10098SOL    HW132191   4.837   3.192   6.136
10098SOL    HW232192   4.862   3.341   6.145
10099SOL     OW32193   2.736   0.132   1.218
10099SOL    HW132194   2.768   0.049   1.183
10099SOL    HW232195   2.811   0.168   1.266
10100SOL     OW32196   5.670   0.874   6.391
10100SOL    HW132197   5.701   0.927   6.465
10100SOL    HW232198   5.695   0.785   6.413
10101SOL     OW32199   3.818   8.256   2.181
10101SOL    HW132200   3.898   8.285   2.136
10101SOL    HW232201   3.779   8.193   2.122
10102SOL     OW32202   2.218   0.742  13.837
10102SOL    HW132203   2.165   0.666  13.814
10102SOL    HW232204   2.220   0.795  13.758
10103SOL     OW32205   5.979   2.744   4.534
10103SOL    HW132206   5.904   2.689   4.560
10103SOL    HW232207   5.945   2.833   4.536
10104SOL     OW32208  11.838   2.063   9.760
10104SOL    HW132209  11.864   1.981   9.718
10104SOL    HW232210  11.759   2.091   9.712
10105SOL     OW32211  12.880  13.201  12.341
10105SOL    HW132212  12.958  13.160  12.378
10105SOL    HW232213  12.846  13.136  12.279
10106SOL     OW32214   1.279  10.431  10.189
10106SOL    HW132215   1.317  10.366  10.130
10106SOL    HW232216   1.308  10.404  10.276
10107SOL     OW32217   2.708   1.095   3.529
10107SOL    HW132218   2.769   1.081   3.457
10107SOL    HW232219   2.700   1.009   3.570
10108SOL     OW32220   0.787   8.704   4.504
10108SOL    HW132221   0.743   8.736   4.583
10108SOL    HW232222   0.722   8.710   4.435
10109SOL     OW32223  13.417   2.725   8.191
10109SOL    HW132224  13.452   2.807   8.158
10109SOL    HW232225  13.491   2.682   8.232
10110SOL     OW32226   5.686   4.874   5.205
10110SOL    HW132227   5.761   4.818   5.230
10110SOL    HW232228   5.679   4.863   5.111
10111SOL     OW32229   5.577   4.146   2.916
10111SOL    HW132230   5.625   4.150   2.834
10111SOL    HW232231   5.528   4.228   2.920
10112SOL     OW32232   0.579   1.134   6.162
10112SOL    HW132233   0.615   1.077   6.094
10112SOL    HW232234   0.495   1.094   6.185
10113SOL     OW32235   4.882  13.827   5.587
10113SOL    HW132236   4.923  13.756   5.636
10113SOL    HW232237   4.789  13.804   5.585
10114SOL     OW32238   6.549  11.213   1.116
10114SOL    HW132239   6.467  11.166   1.134
10114SOL    HW232240   6.524  11.305   1.116
10115SOL     OW32241  12.677  11.543   6.690
10115SOL    HW132242  12.612  11.602   6.729
10115SOL    HW232243  12.761  11.585   6.709
10116SOL     OW32244  13.582   0.133   3.231
10116SOL    HW132245  13.515   0.120   3.164
10116SOL    HW232246  13.629   0.050   3.235
10117SOL     OW32247   9.641   9.758   5.589
10117SOL    HW132248   9.656   9.663   5.592
10117SOL    HW232249   9.574   9.769   5.521
10118SOL     OW32250   8.794   1.426   4.481
10118SOL    HW132251   8.792   1.397   4.572
10118SOL    HW232252   8.881   1.465   4.470
10119SOL     OW32253  11.515   9.781   2.204
10119SOL    HW132254  11.563   9.699   2.213
10119SOL    HW232255  11.497   9.789   2.111
10120SOL     OW32256   7.944   5.182   4.768
10120SOL    HW132257   7.877   5.132   4.814
10120SOL    HW232258   8.023   5.171   4.820
10121SOL     OW32259   4.075   4.707   0.495
10121SOL    HW132260   4.148   4.683   0.440
10121SOL    HW232261   4.031   4.777   0.448
10122SOL     OW32262   3.188   3.545   2.791
10122SOL    HW132263   3.211   3.627   2.749
10122SOL    HW232264   3.168   3.486   2.719
10123SOL     OW32265   0.809   5.976   2.627
10123SOL    HW132266   0.852   5.997   2.544
10123SOL    HW232267   0.726   5.934   2.601
10124SOL     OW32268   0.202   8.395  12.360
10124SOL    HW132269   0.281   8.415  12.309
10124SOL    HW232270   0.221   8.429  12.448
10125SOL     OW32271   6.230   0.959   4.543
10125SOL    HW132272   6.215   0.865   4.534
10125SOL    HW232273   6.213   0.977   4.636
10126SOL     OW32274  14.805   9.234  12.959
10126SOL    HW132275   0.004   9.167  12.965
10126SOL    HW232276  14.779   9.232  12.867
10127SOL     OW32277  12.827   1.343   1.868
10127SOL    HW132278  12.829   1.282   1.941
10127SOL    HW232279  12.778   1.298   1.800
10128SOL     OW32280   4.222  13.508  13.111
10128SOL    HW132281   4.160  13.578  13.132
10128SOL    HW232282   4.174  13.427  13.128
10129SOL     OW32283   7.558  13.122  11.830
10129SOL    HW132284   7.497  13.089  11.765
10129SOL    HW232285   7.526  13.088  11.913
10130SOL     OW32286   5.690   2.069   3.344
10130SOL    HW132287   5.733   2.123   3.410
10130SOL    HW232288   5.598   2.067   3.370
10131SOL     OW32289  10.484   6.057  14.381
10131SOL    HW132290  10.467   5.964  14.362
10131SOL    HW232291  10.418   6.081  14.446
10132SOL     OW32292   1.212   2.729  14.485
10132SOL    HW132293   1.240   2.789  14.416
10132SOL    HW232294   1.212   2.782  14.565
10133SOL     OW32295  10.751   8.115   8.031
10133SOL    HW132296  10.814   8.184   8.051
10133SOL    HW232297  10.791   8.066   7.959
10134SOL     OW32298   8.560  11.730   5.498
10134SOL    HW132299   8.571  11.646   5.543
10134SOL    HW232300   8.570  11.795   5.568
10135SOL     OW32301   9.253   8.967   3.178
10135SOL    HW132302   9.319   8.969   3.108
10135SOL    HW232303   9.304   8.973   3.259
10136SOL     OW32304   8.838   3.753   4.370
10136SOL    HW132305   8.880   3.689   4.428
10136SOL    HW232306   8.774   3.702   4.321
10137SOL     OW32307  14.651  10.475   8.063
10137SOL    HW132308  14.648  10.486   7.968
10137SOL    HW232309  14.583  10.409   8.081
10138SOL     OW32310   4.603  11.641   1.628
10138SOL    HW132311   4.511  11.636   1.601
10138SOL    HW232312   4.601  11.685   1.713
10139SOL     OW32313   1.256   3.550   9.719
10139SOL    HW132314   1.301   3.603   9.653
10139SOL    HW232315   1.318   3.482   9.743
10140SOL     OW32316   5.880   7.762  11.689
10140SOL    HW132317   5.960   7.720  11.656
10140SOL    HW232318   5.880   7.744  11.783
10141SOL     OW32319  13.220  14.745  11.583
10141SOL    HW132320  13.156  14.759  11.513
10141SOL    HW232321  13.171  14.698  11.651
10142SOL     OW32322   0.028  13.111   7.110
10142SOL    HW132323   0.015  13.029   7.062
10142SOL    HW232324   0.017  13.086   7.202
10143SOL     OW32325   5.562   4.794  12.872
10143SOL    HW132326   5.562   4.824  12.963
10143SOL    HW232327   5.502   4.853  12.827
10144SOL     OW32328  10.180   8.248  10.283
10144SOL    HW132329  10.200   8.161  10.249
10144SOL    HW232330  10.086   8.259  10.267
10145SOL     OW32331   5.968   7.556   4.679
10145SOL    HW132332   5.998   7.536   4.767
10145SOL    HW232333   6.035   7.615   4.643
10146SOL     OW32334   3.194  13.561   5.187
10146SOL    HW132335   3.204  13.541   5.280
10146SOL    HW232336   3.122  13.625   5.184
10147SOL     OW32337  14.519   1.796   7.909
10147SOL    HW132338  14.537   1.816   8.001
10147SOL    HW232339  14.501   1.702   7.909
10148SOL     OW32340  14.423   8.297   2.255
10148SOL    HW132341  14.385   8.290   2.168
10148SOL    HW232342  14.429   8.391   2.270
10149SOL     OW32343   5.233   5.000  13.048
10149SOL    HW132344   5.286   5.029  13.122
10149SOL    HW232345   5.161   5.063  13.043
10150SOL     OW32346  14.662   2.069   4.908
10150SOL    HW132347  14.745   2.046   4.949
10150SOL    HW232348  14.683   2.080   4.815
10151SOL     OW32349   9.560   1.972   3.330
10151SOL    HW132350   9.548   1.967   3.425
10151SOL    HW232351   9.654   1.959   3.317
10152SOL     OW32352   1.576  14.157   8.844
10152SOL    HW132353   1.546  14.067   8.841
10152SOL    HW232354   1.669  14.153   8.823
10153SOL     OW32355   2.852   9.261   1.933
10153SOL    HW132356   2.917   9.309   1.880
10153SOL    HW232357   2.896   9.248   2.017
10154SOL     OW32358   6.658   7.454  13.688
10154SOL    HW132359   6.747   7.425  13.667
10154SOL    HW232360   6.664   7.485  13.778
10155SOL     OW32361   3.064   4.376  10.167
10155SOL    HW132362   2.996   4.443  10.161
10155SOL    HW232363   3.065   4.335  10.080
10156SOL     OW32364   6.329   0.500   9.793
10156SOL    HW132365   6.342   0.548   9.875
10156SOL    HW232366   6.235   0.481   9.791
10157SOL     OW32367   8.234  11.256  10.899
10157SOL    HW132368   8.262  11.260  10.990
10157SOL    HW232369   8.194  11.169  10.891
10158SOL     OW32370   0.935  10.581  14.320
10158SOL    HW132371   0.899  10.591  14.408
10158SOL    HW232372   0.973  10.493  14.320
10159SOL     OW32373  14.671   3.972   1.619
10159SOL    HW132374  14.748   3.940   1.572
10159SOL    HW232375  14.698   3.972   1.711
10160SOL     OW32376   5.074  11.465   1.783
10160SOL    HW132377   5.150  11.420   1.820
10160SOL    HW232378   5.078  11.444   1.689
10161SOL     OW32379   5.351   5.817   0.152
10161SOL    HW132380   5.443   5.844   0.152
10161SOL    HW232381   5.347   5.744   0.213
10162SOL     OW32382   4.173   1.798   6.661
10162SOL    HW132383   4.094   1.751   6.634
10162SOL    HW232384   4.186   1.771   6.752
10163SOL     OW32385   8.294  14.632   9.789
10163SOL    HW132386   8.298  14.672   9.876
10163SOL    HW232387   8.233  14.559   9.799
10164SOL     OW32388   8.740  10.390   0.138
10164SOL    HW132389   8.742  10.298   0.113
10164SOL    HW232390   8.726  10.437   0.055
10165SOL     OW32391   0.219   1.835  13.143
10165SOL    HW132392   0.176   1.750  13.152
10165SOL    HW232393   0.159   1.896  13.186
10166SOL     OW32394  12.379  14.799   3.394
10166SOL    HW132395  12.445  14.738   3.426
10166SOL    HW232396  12.295  14.756   3.409
10167SOL     OW32397   4.619  10.598  11.590
10167SOL    HW132398   4.555  10.558  11.647
10167SOL    HW232399   4.628  10.537  11.516
10168SOL     OW32400  11.991   7.375   0.539
10168SOL    HW132401  12.085   7.382   0.554
10168SOL    HW232402  11.951   7.404   0.621
10169SOL     OW32403  14.772   4.769   3.871
10169SOL    HW132404  14.725   4.779   3.954
10169SOL    HW232405  14.778   4.858   3.837
10170SOL     OW32406   4.005  12.974   4.043
10170SOL    HW132407   3.996  12.885   4.076
10170SOL    HW232408   4.025  12.964   3.950
10171SOL     OW32409   1.355  14.133  13.825
10171SOL    HW132410   1.402  14.135  13.741
10171SOL    HW232411   1.295  14.059  13.817
10172SOL     OW32412  12.871  13.007   9.394
10172SOL    HW132413  12.836  13.070   9.331
10172SOL    HW232414  12.794  12.966   9.433
10173SOL     OW32415  12.896  13.888   3.844
10173SOL    HW132416  12.941  13.959   3.890
10173SOL    HW232417  12.876  13.825   3.914
10174SOL     OW32418   2.621   0.947  13.633
10174SOL    HW132419   2.665   0.913  13.710
10174SOL    HW232420   2.659   1.034  13.619
10175SOL     OW32421   4.929   3.925   8.396
10175SOL    HW132422   4.917   3.993   8.462
10175SOL    HW232423   5.022   3.901   8.403
10176SOL     OW32424   0.362   3.205  12.926
10176SOL    HW132425   0.310   3.265  12.872
10176SOL    HW232426   0.366   3.247  13.012
10177SOL     OW32427   9.349   8.514   7.645
10177SOL    HW132428   9.302   8.593   7.671
10177SOL    HW232429   9.288   8.467   7.589
10178SOL     OW32430  12.688   1.180   2.540
10178SOL    HW132431  12.603   1.157   2.504
10178SOL    HW232432  12.694   1.275   2.532
10179SOL     OW32433   5.560   8.394   1.378
10179SOL    HW132434   5.647   8.419   1.408
10179SOL    HW232435   5.575   8.322   1.316
10180SOL     OW32436   1.085   1.293   3.496
10180SOL    HW132437   1.120   1.381   3.484
10180SOL    HW232438   1.142   1.236   3.445
10181SOL     OW32439   9.741  13.220  10.349
10181SOL    HW132440   9.649  13.207  10.325
10181SOL    HW232441   9.790  13.198  10.270
10182SOL     OW32442  13.572  10.431  12.581
10182SOL    HW132443  13.655  10.453  12.539
10182SOL    HW232444  13.508  10.490  12.540
10183SOL     OW32445  12.498   5.664   1.900
10183SOL    HW132446  12.568   5.604   1.925
10183SOL    HW232447  12.463   5.627   1.818
10184SOL     OW32448   0.958   7.893   8.285
10184SOL    HW132449   1.006   7.921   8.207
10184SOL    HW232450   1.022   7.898   8.356
10185SOL     OW32451   7.451   7.785   8.419
10185SOL    HW132452   7.365   7.745   8.436
10185SOL    HW232453   7.433   7.879   8.419
10186SOL     OW32454  13.852  10.122   9.973
10186SOL    HW132455  13.897  10.038   9.979
10186SOL    HW232456  13.866  10.151   9.883
10187SOL     OW32457   9.438   2.898   1.103
10187SOL    HW132458   9.352   2.860   1.082
10187SOL    HW232459   9.427   2.935   1.190
10188SOL     OW32460   8.313   7.682   2.642
10188SOL    HW132461   8.294   7.698   2.734
10188SOL    HW232462   8.293   7.590   2.628
10189SOL     OW32463   7.163  14.387   0.630
10189SOL    HW132464   7.172  14.409   0.537
10189SOL    HW232465   7.098  14.450   0.663
10190SOL     OW32466   8.493  13.056   8.441
10190SOL    HW132467   8.409  13.059   8.487
10190SOL    HW232468   8.546  12.994   8.492
10191SOL     OW32469   1.450   7.054   5.097
10191SOL    HW132470   1.437   6.960   5.089
10191SOL    HW232471   1.361   7.090   5.105
10192SOL     OW32472   0.477   2.816   7.819
10192SOL    HW132473   0.431   2.889   7.778
10192SOL    HW232474   0.568   2.828   7.794
10193SOL     OW32475   4.098   1.631   8.521
10193SOL    HW132476   4.086   1.709   8.575
10193SOL    HW232477   4.165   1.655   8.457
10194SOL     OW32478   7.499   8.720   5.557
10194SOL    HW132479   7.520   8.632   5.525
10194SOL    HW232480   7.521   8.718   5.650
10195SOL     OW32481   5.502  11.910  12.113
10195SOL    HW132482   5.557  11.833  12.095
10195SOL    HW232483   5.545  11.953  12.187
10196SOL     OW32484  13.161  10.718   9.883
10196SOL    HW132485  13.224  10.707   9.813
10196SOL    HW232486  13.206  10.688   9.962
10197SOL     OW32487   8.175   2.998   1.595
10197SOL    HW132488   8.196   2.944   1.518
10197SOL    HW232489   8.240   3.068   1.594
10198SOL     OW32490   0.896   7.896   3.618
10198SOL    HW132491   0.940   7.969   3.663
10198SOL    HW232492   0.962   7.863   3.556
10199SOL     OW32493  14.319  11.994   8.857
10199SOL    HW132494  14.228  12.023   8.866
10199SOL    HW232495  14.362  12.067   8.813
10200SOL     OW32496   2.157   0.456   8.664
10200SOL    HW132497   2.172   0.380   8.720
10200SOL    HW232498   2.105   0.515   8.719
10201SOL     OW32499   7.563   1.768  11.056
10201SOL    HW132500   7.512   1.829  11.110
10201SOL    HW232501   7.642   1.752  11.107
10202SOL     OW32502   5.273  14.614   2.112
10202SOL    HW132503   5.288  14.544   2.176
10202SOL    HW232504   5.178  14.618   2.102
10203SOL     OW32505   7.996   5.647  13.169
10203SOL    HW132506   7.948   5.677  13.246
10203SOL    HW232507   8.034   5.563  13.195
10204SOL     OW32508   6.011   2.265  11.113
10204SOL    HW132509   5.982   2.354  11.129
10204SOL    HW232510   5.940   2.210  11.147
10205SOL     OW32511   8.469   1.352   5.505
10205SOL    HW132512   8.502   1.326   5.419
10205SOL    HW232513   8.400   1.416   5.486
10206SOL     OW32514   9.529  11.299  10.684
10206SOL    HW132515   9.490  11.225  10.636
10206SOL    HW232516   9.575  11.257  10.757
10207SOL     OW32517   4.156   7.871   2.728
10207SOL    HW132518   4.139   7.845   2.818
10207SOL    HW232519   4.142   7.791   2.677
10208SOL     OW32520   1.602  12.142   5.632
10208SOL    HW132521   1.612  12.230   5.666
10208SOL    HW232522   1.557  12.094   5.702
10209SOL     OW32523  11.006  14.568   6.375
10209SOL    HW132524  11.034  14.482   6.343
10209SOL    HW232525  11.065  14.586   6.449
10210SOL     OW32526  12.335   9.435   0.387
10210SOL    HW132527  12.293   9.408   0.305
10210SOL    HW232528  12.323   9.360   0.446
10211SOL     OW32529  10.121   2.875   7.797
10211SOL    HW132530  10.207   2.914   7.778
10211SOL    HW232531  10.090   2.845   7.712
10212SOL     OW32532  12.108  13.204  14.595
10212SOL    HW132533  12.065  13.276  14.640
10212SOL    HW232534  12.200  13.212  14.622
10213SOL     OW32535   0.667  10.148   8.777
10213SOL    HW132536   0.627  10.162   8.863
10213SOL    HW232537   0.754  10.114   8.797
10214SOL     OW32538   1.637   1.750  12.347
10214SOL    HW132539   1.602   1.775  12.432
10214SOL    HW232540   1.565   1.764  12.286
10215SOL     OW32541  13.156   2.566   9.708
10215SOL    HW132542  13.187   2.524   9.628
10215SOL    HW232543  13.154   2.495   9.773
10216SOL     OW32544   7.108  12.910   0.623
10216SOL    HW132545   7.197  12.940   0.643
10216SOL    HW232546   7.091  12.941   0.534
10217SOL     OW32547   3.047   3.314   5.602
10217SOL    HW132548   3.025   3.375   5.673
10217SOL    HW232549   3.079   3.371   5.532
10218SOL     OW32550   9.612   2.738   8.541
10218SOL    HW132551   9.580   2.650   8.558
10218SOL    HW232552   9.535   2.794   8.552
10219SOL     OW32553   7.722   5.754   0.179
10219SOL    HW132554   7.726   5.774   0.086
10219SOL    HW232555   7.632   5.774   0.204
10220SOL     OW32556   3.612   7.363  13.202
10220SOL    HW132557   3.677   7.305  13.162
10220SOL    HW232558   3.561   7.397  13.129
10221SOL     OW32559   9.379   3.565   3.390
10221SOL    HW132560   9.364   3.503   3.462
10221SOL    HW232561   9.299   3.559   3.337
10222SOL     OW32562  13.735   3.184   7.924
10222SOL    HW132563  13.717   3.278   7.929
10222SOL    HW232564  13.811   3.177   7.867
10223SOL     OW32565   1.751   6.725  12.526
10223SOL    HW132566   1.833   6.726  12.477
10223SOL    HW232567   1.775   6.692  12.613
10224SOL     OW32568   1.285   5.235   6.764
10224SOL    HW132569   1.255   5.258   6.675
10224SOL    HW232570   1.355   5.298   6.782
10225SOL     OW32571   4.638  11.941  13.381
10225SOL    HW132572   4.565  11.887  13.411
10225SOL    HW232573   4.599  12.008  13.327
10226SOL     OW32574  14.410   6.224  12.084
10226SOL    HW132575  14.378   6.270  12.006
10226SOL    HW232576  14.334   6.177  12.117
10227SOL     OW32577   8.432  10.698  12.170
10227SOL    HW132578   8.429  10.788  12.203
10227SOL    HW232579   8.418  10.644  12.248
10228SOL     OW32580  14.602   1.907   3.979
10228SOL    HW132581  14.537   1.970   4.011
10228SOL    HW232582  14.559   1.822   3.988
10229SOL     OW32583  12.251   5.096  13.873
10229SOL    HW132584  12.331   5.130  13.833
10229SOL    HW232585  12.272   5.005  13.894
10230SOL     OW32586  13.740   5.879   7.380
10230SOL    HW132587  13.825   5.849   7.348
10230SOL    HW232588  13.716   5.952   7.323
10231SOL     OW32589   9.690   3.707  10.935
10231SOL    HW132590   9.690   3.760  10.855
10231SOL    HW232591   9.738   3.759  10.999
10232SOL     OW32592   7.231  10.851   6.236
10232SOL    HW132593   7.294  10.923   6.234
10232SOL    HW232594   7.154  10.887   6.280
10233SOL     OW32595   7.253   2.265   5.049
10233SOL    HW132596   7.167   2.296   5.077
10233SOL    HW232597   7.309   2.275   5.126
10234SOL     OW32598   3.747   9.148   8.705
10234SOL    HW132599   3.705   9.217   8.654
10234SOL    HW232600   3.813   9.193   8.757
10235SOL     OW32601   9.443   3.655   8.854
10235SOL    HW132602   9.426   3.573   8.900
10235SOL    HW232603   9.412   3.640   8.765
10236SOL     OW32604   6.696   0.980   8.953
10236SOL    HW132605   6.647   0.971   8.871
10236SOL    HW232606   6.734   0.894   8.968
10237SOL     OW32607   6.983  11.234   4.382
10237SOL    HW132608   6.968  11.143   4.406
10237SOL    HW232609   6.977  11.282   4.464
10238SOL     OW32610   8.227   9.434  12.565
10238SOL    HW132611   8.268   9.517  12.589
10238SOL    HW232612   8.181   9.453  12.483
10239SOL     OW32613   8.661  11.251   0.775
10239SOL    HW132614   8.666  11.162   0.739
10239SOL    HW232615   8.575  11.283   0.748
10240SOL     OW32616   5.536   4.870   6.393
10240SOL    HW132617   5.513   4.943   6.451
10240SOL    HW232618   5.508   4.792   6.439
10241SOL     OW32619  12.792   4.004   9.105
10241SOL    HW132620  12.833   3.918   9.113
10241SOL    HW232621  12.822   4.037   9.020
10242SOL     OW32622   2.703  14.367   3.577
10242SOL    HW132623   2.671  14.277   3.572
10242SOL    HW232624   2.773  14.370   3.511
10243SOL     OW32625   5.788   1.352   3.110
10243SOL    HW132626   5.818   1.263   3.129
10243SOL    HW232627   5.694   1.350   3.127
10244SOL     OW32628   3.184  12.036   9.785
10244SOL    HW132629   3.216  11.948   9.803
10244SOL    HW232630   3.105  12.044   9.839
10245SOL     OW32631   5.974   1.455  13.284
10245SOL    HW132632   5.960   1.366  13.318
10245SOL    HW232633   5.975   1.510  13.363
10246SOL     OW32634   6.501  14.451   6.305
10246SOL    HW132635   6.539  14.502   6.376
10246SOL    HW232636   6.439  14.510   6.262
10247SOL     OW32637   6.317   4.723   1.704
10247SOL    HW132638   6.225   4.710   1.680
10247SOL    HW232639   6.355   4.768   1.629
10248SOL     OW32640   2.852  12.016   0.915
10248SOL    HW132641   2.916  11.964   0.963
10248SOL    HW232642   2.903  12.060   0.846
10249SOL     OW32643   0.274  11.550  14.319
10249SOL    HW132644   0.279  11.459  14.288
10249SOL    HW232645   0.269  11.602  14.239
10250SOL     OW32646   0.247  11.559   3.856
10250SOL    HW132647   0.309  11.494   3.823
10250SOL    HW232648   0.258  11.556   3.951
10251SOL     OW32649   5.763   8.889   6.946
10251SOL    HW132650   5.680   8.870   6.991
10251SOL    HW232651   5.810   8.806   6.948
10252SOL     OW32652   6.604  14.209   3.714
10252SOL    HW132653   6.566  14.121   3.718
10252SOL    HW232654   6.605  14.230   3.621
10253SOL     OW32655   4.591   3.762  13.113
10253SOL    HW132656   4.610   3.773  13.206
10253SOL    HW232657   4.516   3.704  13.110
10254SOL     OW32658   3.648  13.468   4.266
10254SOL    HW132659   3.591  13.421   4.327
10254SOL    HW232660   3.590  13.530   4.222
10255SOL     OW32661   5.070   6.900  11.037
10255SOL    HW132662   5.120   6.838  11.090
10255SOL    HW232663   5.100   6.885  10.948
10256SOL     OW32664   9.509  13.719   7.637
10256SOL    HW132665   9.555  13.669   7.570
10256SOL    HW232666   9.463  13.652   7.689
10257SOL     OW32667   0.887  10.176  12.230
10257SOL    HW132668   0.811  10.167  12.288
10257SOL    HW232669   0.933  10.254  12.262
10258SOL     OW32670   1.928  11.840   0.570
10258SOL    HW132671   2.003  11.804   0.618
10258SOL    HW232672   1.959  11.925   0.539
10259SOL     OW32673   9.955   0.824   9.347
10259SOL    HW132674   9.878   0.791   9.393
10259SOL    HW232675   9.951   0.919   9.357
10260SOL     OW32676   7.882   2.968   3.264
10260SOL    HW132677   7.839   3.039   3.312
10260SOL    HW232678   7.885   2.895   3.327
10261SOL     OW32679   6.896  12.154   6.415
10261SOL    HW132680   6.807  12.126   6.438
10261SOL    HW232681   6.909  12.236   6.463
10262SOL     OW32682   4.899   6.771  12.511
10262SOL    HW132683   4.982   6.746  12.551
10262SOL    HW232684   4.892   6.865  12.527
10263SOL     OW32685  12.732   2.724  11.070
10263SOL    HW132686  12.694   2.645  11.032
10263SOL    HW232687  12.745   2.783  10.996
10264SOL     OW32688   2.001   3.518   6.073
10264SOL    HW132689   2.087   3.538   6.035
10264SOL    HW232690   1.996   3.574   6.150
10265SOL     OW32691   8.072   7.867   5.670
10265SOL    HW132692   8.032   7.819   5.742
10265SOL    HW232693   8.159   7.892   5.703
10266SOL     OW32694   3.688   4.380   7.036
10266SOL    HW132695   3.672   4.292   7.071
10266SOL    HW232696   3.654   4.439   7.102
10267SOL     OW32697   7.821  10.852   4.380
10267SOL    HW132698   7.727  10.837   4.371
10267SOL    HW232699   7.831  10.947   4.377
10268SOL     OW32700   7.118   2.700  14.049
10268SOL    HW132701   7.094   2.623  14.101
10268SOL    HW232702   7.213   2.706  14.057
10269SOL     OW32703   5.282  12.865   3.839
10269SOL    HW132704   5.376  12.845   3.845
10269SOL    HW232705   5.251  12.813   3.765
10270SOL     OW32706   2.729   5.401  12.141
10270SOL    HW132707   2.685   5.337  12.086
10270SOL    HW232708   2.715   5.485  12.097
10271SOL     OW32709  11.412   0.058   7.763
10271SOL    HW132710  11.443   0.140   7.802
10271SOL    HW232711  11.379   0.084   7.677
10272SOL     OW32712   4.430  12.952   6.593
10272SOL    HW132713   4.339  12.933   6.612
10272SOL    HW232714   4.461  13.003   6.667
10273SOL     OW32715  12.032   6.483   0.708
10273SOL    HW132716  11.972   6.528   0.648
10273SOL    HW232717  12.025   6.391   0.684
10274SOL     OW32718   8.273   2.859  11.472
10274SOL    HW132719   8.218   2.936  11.487
10274SOL    HW232720   8.342   2.866  11.537
10275SOL     OW32721   2.481   5.231  10.248
10275SOL    HW132722   2.425   5.170  10.199
10275SOL    HW232723   2.468   5.315  10.206
10276SOL     OW32724   8.563   9.782   3.816
10276SOL    HW132725   8.481   9.814   3.777
10276SOL    HW232726   8.582   9.843   3.887
10277SOL     OW32727  11.481   3.707   7.395
10277SOL    HW132728  11.414   3.708   7.463
10277SOL    HW232729  11.559   3.742   7.438
10278SOL     OW32730   9.802  13.608  10.785
10278SOL    HW132731   9.795  13.535  10.847
10278SOL    HW232732   9.883  13.590  10.737
10279SOL     OW32733  13.175   2.556  11.328
10279SOL    HW132734  13.213   2.469  11.339
10279SOL    HW232735  13.100   2.543  11.270
10280SOL     OW32736   2.855   2.517  10.630
10280SOL    HW132737   2.798   2.568  10.687
10280SOL    HW232738   2.869   2.434  10.677
10281SOL     OW32739   3.924  11.729  11.409
10281SOL    HW132740   3.871  11.650  11.419
10281SOL    HW232741   3.885  11.774  11.334
10282SOL     OW32742   4.537   8.533   2.735
10282SOL    HW132743   4.550   8.439   2.742
10282SOL    HW232744   4.489   8.557   2.814
10283SOL     OW32745  11.639   2.036  12.700
10283SOL    HW132746  11.653   1.941  12.707
10283SOL    HW232747  11.634   2.066  12.791
10284SOL     OW32748   0.689   9.779   1.084
10284SOL    HW132749   0.725   9.727   1.156
10284SOL    HW232750   0.601   9.744   1.071
10285SOL     OW32751  14.417   1.963   3.048
10285SOL    HW132752  14.453   2.009   2.972
10285SOL    HW232753  14.487   1.964   3.113
10286SOL     OW32754  12.679   6.287   8.410
10286SOL    HW132755  12.610   6.249   8.465
10286SOL    HW232756  12.705   6.366   8.456
10287SOL     OW32757   2.803   5.655  13.440
10287SOL    HW132758   2.731   5.619  13.492
10287SOL    HW232759   2.859   5.579  13.421
10288SOL     OW32760   4.536  12.067   5.195
10288SOL    HW132761   4.528  11.971   5.193
10288SOL    HW232762   4.453  12.096   5.234
10289SOL     OW32763   9.411   7.900   0.639
10289SOL    HW132764   9.395   7.813   0.677
10289SOL    HW232765   9.371   7.895   0.552
10290SOL     OW32766   9.649  13.492   3.316
10290SOL    HW132767   9.589  13.496   3.241
10290SOL    HW232768   9.609  13.549   3.381
10291SOL     OW32769   6.923  10.407   6.310
10291SOL    HW132770   6.936  10.338   6.376
10291SOL    HW232771   6.913  10.359   6.228
10292SOL     OW32772   8.249   2.658   2.302
10292SOL    HW132773   8.224   2.697   2.218
10292SOL    HW232774   8.267   2.732   2.358
10293SOL     OW32775   3.084   8.739   1.934
10293SOL    HW132776   2.991   8.753   1.921
10293SOL    HW232777   3.125   8.778   1.857
10294SOL     OW32778  11.069   4.864   2.178
10294SOL    HW132779  11.090   4.780   2.221
10294SOL    HW232780  11.044   4.839   2.089
10295SOL     OW32781   0.864  10.382   2.872
10295SOL    HW132782   0.816  10.304   2.900
10295SOL    HW232783   0.875  10.370   2.777
10296SOL     OW32784   7.934   6.812   4.671
10296SOL    HW132785   7.868   6.827   4.603
10296SOL    HW232786   7.930   6.718   4.688
10297SOL     OW32787   9.465  12.637  11.911
10297SOL    HW132788   9.410  12.573  11.866
10297SOL    HW232789   9.550  12.594  11.918
10298SOL     OW32790   9.578  11.631   3.335
10298SOL    HW132791   9.553  11.639   3.243
10298SOL    HW232792   9.665  11.590   3.333
10299SOL     OW32793  13.101   4.233  13.452
10299SOL    HW132794  13.087   4.263  13.363
10299SOL    HW232795  13.061   4.145  13.454
10300SOL     OW32796  11.703   7.419  10.290
10300SOL    HW132797  11.714   7.438  10.383
10300SOL    HW232798  11.756   7.341  10.275
10301SOL     OW32799  13.367   1.993   0.764
10301SOL    HW132800  13.445   1.942   0.741
10301SOL    HW232801  13.308   1.981   0.690
10302SOL     OW32802  10.012  12.266  14.824
10302SOL    HW132803  10.072  12.268  14.749
10302SOL    HW232804  10.001  12.358  14.849
10303SOL     OW32805   8.617   1.296   3.344
10303SOL    HW132806   8.594   1.228   3.407
10303SOL    HW232807   8.570   1.374   3.375
10304SOL     OW32808   7.389   0.251   6.411
10304SOL    HW132809   7.413   0.308   6.338
10304SOL    HW232810   7.311   0.292   6.450
10305SOL     OW32811   9.876   3.149   3.744
10305SOL    HW132812   9.932   3.209   3.694
10305SOL    HW232813   9.787   3.171   3.714
10306SOL     OW32814   6.694  14.418   0.640
10306SOL    HW132815   6.695  14.336   0.592
10306SOL    HW232816   6.647  14.398   0.721
10307SOL     OW32817   8.941  14.614   9.494
10307SOL    HW132818   9.028  14.578   9.507
10307SOL    HW232819   8.893  14.591   9.574
10308SOL     OW32820  12.856  11.139   9.344
10308SOL    HW132821  12.850  11.234   9.335
10308SOL    HW232822  12.943  11.124   9.382
10309SOL     OW32823  13.741   6.475  14.523
10309SOL    HW132824  13.695   6.541  14.574
10309SOL    HW232825  13.832   6.480  14.554
10310SOL     OW32826   3.213   7.693  12.006
10310SOL    HW132827   3.212   7.784  12.036
10310SOL    HW232828   3.297   7.659  12.035
10311SOL     OW32829   9.594   1.961  13.787
10311SOL    HW132830   9.649   1.934  13.861
10311SOL    HW232831   9.610   1.894  13.720
10312SOL     OW32832  12.854   4.894   3.060
10312SOL    HW132833  12.901   4.977   3.068
10312SOL    HW232834  12.858   4.874   2.966
10313SOL     OW32835   4.397   2.050   8.443
10313SOL    HW132836   4.358   1.987   8.503
10313SOL    HW232837   4.421   2.124   8.499
10314SOL     OW32838  14.765   2.296  14.215
10314SOL    HW132839  14.852   2.264  14.189
10314SOL    HW232840  14.717   2.216  14.238
10315SOL     OW32841   3.670   3.857   0.745
10315SOL    HW132842   3.693   3.791   0.810
10315SOL    HW232843   3.735   3.844   0.675
10316SOL     OW32844  13.198  10.071   5.515
10316SOL    HW132845  13.116  10.115   5.494
10316SOL    HW232846  13.239  10.128   5.581
10317SOL     OW32847   0.736   7.772   6.577
10317SOL    HW132848   0.654   7.807   6.611
10317SOL    HW232849   0.725   7.769   6.482
10318SOL     OW32850   1.756   5.471   6.470
10318SOL    HW132851   1.819   5.415   6.425
10318SOL    HW232852   1.801   5.498   6.550
10319SOL     OW32853  12.023  10.345  14.837
10319SOL    HW132854  12.019  10.431  14.797
10319SOL    HW232855  12.097  10.302  14.795
10320SOL     OW32856   8.728   7.820   3.524
10320SOL    HW132857   8.782   7.764   3.580
10320SOL    HW232858   8.738   7.783   3.436
10321SOL     OW32859   1.730   8.062   4.301
10321SOL    HW132860   1.798   8.126   4.322
10321SOL    HW232861   1.756   7.982   4.347
10322SOL     OW32862   1.142   2.747   8.470
10322SOL    HW132863   1.051   2.739   8.498
10322SOL    HW232864   1.192   2.746   8.552
10323SOL     OW32865   8.046   0.011  10.121
10323SOL    HW132866   8.011   0.038  10.037
10323SOL    HW232867   8.049   0.091  10.174
10324SOL     OW32868  12.473   1.370   0.588
10324SOL    HW132869  12.406   1.367   0.519
10324SOL    HW232870  12.446   1.443   0.644
10325SOL     OW32871  12.169  13.097  11.645
10325SOL    HW132872  12.175  13.173  11.587
10325SOL    HW232873  12.187  13.132  11.732
10326SOL     OW32874   8.542   0.516  10.196
10326SOL    HW132875   8.545   0.524  10.291
10326SOL    HW232876   8.522   0.423  10.181
10327SOL     OW32877   0.309  14.015   9.820
10327SOL    HW132878   0.224  13.997   9.780
10327SOL    HW232879   0.335  13.931   9.858
10328SOL     OW32880  12.345   3.216   8.396
10328SOL    HW132881  12.290   3.138   8.394
10328SOL    HW232882  12.283   3.289   8.388
10329SOL     OW32883   5.035   3.282   2.444
10329SOL    HW132884   5.131   3.278   2.436
10329SOL    HW232885   5.013   3.215   2.509
10330SOL     OW32886  13.515   8.928   4.532
10330SOL    HW132887  13.541   8.902   4.620
10330SOL    HW232888  13.589   8.979   4.499
10331SOL     OW32889   9.476  11.853   7.985
10331SOL    HW132890   9.564  11.889   8.001
10331SOL    HW232891   9.491  11.759   7.970
10332SOL     OW32892   2.077   7.601   0.457
10332SOL    HW132893   2.112   7.632   0.373
10332SOL    HW232894   1.988   7.636   0.459
10333SOL     OW32895   6.339   3.145   4.382
10333SOL    HW132896   6.364   3.056   4.359
10333SOL    HW232897   6.283   3.135   4.459
10334SOL     OW32898   3.225  10.847  11.377
10334SOL    HW132899   3.233  10.928  11.426
10334SOL    HW232900   3.156  10.797  11.422
10335SOL     OW32901   0.706   9.346   4.459
10335SOL    HW132902   0.743   9.260   4.477
10335SOL    HW232903   0.654   9.334   4.380
10336SOL     OW32904  14.016   9.757  14.707
10336SOL    HW132905  14.033   9.751  14.613
10336SOL    HW232906  14.016   9.850  14.726
10337SOL     OW32907   3.318  10.194   4.936
10337SOL    HW132908   3.353  10.280   4.912
10337SOL    HW232909   3.225  10.209   4.950
10338SOL     OW32910   7.115   8.379   7.521
10338SOL    HW132911   7.091   8.287   7.527
10338SOL    HW232912   7.086   8.417   7.604
10339SOL     OW32913  11.098  14.340   8.027
10339SOL    HW132914  11.140  14.425   8.013
10339SOL    HW232915  11.138  14.282   7.962
10340SOL     OW32916  12.698   5.310   9.768
10340SOL    HW132917  12.626   5.289   9.828
10340SOL    HW232918  12.688   5.403   9.750
10341SOL     OW32919  14.774   6.996  12.467
10341SOL    HW132920  14.728   7.040  12.395
10341SOL    HW232921  14.723   7.018  12.545
10342SOL     OW32922   9.935  13.093   2.262
10342SOL    HW132923   9.881  13.065   2.189
10342SOL    HW232924   9.875  13.099   2.336
10343SOL     OW32925   2.691  12.510   4.727
10343SOL    HW132926   2.750  12.579   4.698
10343SOL    HW232927   2.626  12.555   4.781
10344SOL     OW32928  13.212   5.702  11.634
10344SOL    HW132929  13.248   5.648  11.563
10344SOL    HW232930  13.230   5.652  11.713
10345SOL     OW32931  12.934   2.582  10.852
10345SOL    HW132932  12.946   2.562  10.945
10345SOL    HW232933  13.023   2.590  10.817
10346SOL     OW32934   8.305   9.967   9.447
10346SOL    HW132935   8.319   9.892   9.504
10346SOL    HW232936   8.307  10.042   9.505
10347SOL     OW32937   4.629  12.738   2.787
10347SOL    HW132938   4.605  12.766   2.698
10347SOL    HW232939   4.661  12.649   2.776
10348SOL     OW32940  11.866   8.072   6.095
10348SOL    HW132941  11.951   8.067   6.137
10348SOL    HW232942  11.855   8.164   6.071
10349SOL     OW32943  14.152   0.039  10.891
10349SOL    HW132944  14.163   0.018  10.984
10349SOL    HW232945  14.242   0.045  10.858
10350SOL     OW32946   0.833   2.432   6.454
10350SOL    HW132947   0.793   2.500   6.399
10350SOL    HW232948   0.908   2.401   6.402
10351SOL     OW32949  14.460   1.225   7.667
10351SOL    HW132950  14.495   1.233   7.756
10351SOL    HW232951  14.409   1.144   7.669
10352SOL     OW32952  10.199  12.608  12.612
10352SOL    HW132953  10.176  12.691  12.570
10352SOL    HW232954  10.236  12.634  12.697
10353SOL     OW32955  11.576   1.933   5.368
10353SOL    HW132956  11.655   1.902   5.412
10353SOL    HW232957  11.598   1.929   5.275
10354SOL     OW32958   8.502   7.456   7.150
10354SOL    HW132959   8.477   7.371   7.116
10354SOL    HW232960   8.493   7.448   7.245
10355SOL     OW32961   8.075   7.416   7.248
10355SOL    HW132962   8.088   7.466   7.329
10355SOL    HW232963   8.162   7.386   7.223
10356SOL     OW32964   7.713  14.632   5.657
10356SOL    HW132965   7.722  14.726   5.673
10356SOL    HW232966   7.802  14.598   5.667
10357SOL     OW32967   7.961  12.713   6.624
10357SOL    HW132968   8.027  12.733   6.690
10357SOL    HW232969   7.963  12.618   6.616
10358SOL     OW32970   2.171  14.733   0.153
10358SOL    HW132971   2.171  14.827   0.136
10358SOL    HW232972   2.236  14.721   0.222
10359SOL     OW32973   1.550  13.452  10.572
10359SOL    HW132974   1.455  13.463  10.580
10359SOL    HW232975   1.586  13.540  10.584
10360SOL     OW32976   1.008  10.532  13.956
10360SOL    HW132977   1.083  10.510  14.011
10360SOL    HW232978   1.045  10.545  13.869
10361SOL     OW32979   6.413  13.530  13.147
10361SOL    HW132980   6.464  13.576  13.214
10361SOL    HW232981   6.322  13.550  13.168
10362SOL     OW32982   0.221   1.198  12.453
10362SOL    HW132983   0.133   1.199  12.492
10362SOL    HW232984   0.206   1.218  12.360
10363SOL     OW32985   7.563   3.166   4.042
10363SOL    HW132986   7.578   3.145   3.950
10363SOL    HW232987   7.519   3.251   4.040
10364SOL     OW32988   5.370   6.719  11.778
10364SOL    HW132989   5.437   6.777  11.742
10364SOL    HW232990   5.353   6.655  11.709
10365SOL     OW32991   3.731  13.492   7.257
10365SOL    HW132992   3.686  13.424   7.307
10365SOL    HW232993   3.699  13.575   7.294
10366SOL     OW32994   0.403   9.999   1.039
10366SOL    HW132995   0.448   9.974   0.959
10366SOL    HW232996   0.449  10.077   1.070
10367SOL     OW32997  14.436   6.442   5.329
10367SOL    HW132998  14.399   6.506   5.390
10367SOL    HW232999  14.409   6.473   5.243
10368SOL     OW33000  11.620  12.458   9.201
10368SOL    HW133001  11.693  12.510   9.168
10368SOL    HW233002  11.618  12.476   9.295
10369SOL     OW33003   7.318   8.229   6.730
10369SOL    HW133004   7.309   8.257   6.821
10369SOL    HW233005   7.407   8.195   6.725
10370SOL     OW33006  10.063   6.971   0.192
10370SOL    HW133007   9.975   7.004   0.209
10370SOL    HW233008  10.073   6.897   0.252
10371SOL     OW33009   8.834   8.009   7.511
10371SOL    HW133010   8.818   7.982   7.421
10371SOL    HW233011   8.748   8.032   7.545
10372SOL     OW33012   1.653   6.092   8.216
10372SOL    HW133013   1.702   6.094   8.298
10372SOL    HW233014   1.568   6.130   8.238
10373SOL     OW33015  13.958   1.479   5.867
10373SOL    HW133016  13.966   1.561   5.818
10373SOL    HW233017  13.880   1.437   5.832
10374SOL     OW33018  10.100  13.515  11.296
10374SOL    HW133019  10.144  13.600  11.290
10374SOL    HW233020  10.078  13.494  11.205
10375SOL     OW33021   6.614  10.000  12.715
10375SOL    HW133022   6.541  10.042  12.760
10375SOL    HW233023   6.690  10.054  12.737
10376SOL     OW33024   8.115   0.422   1.994
10376SOL    HW133025   8.121   0.400   2.087
10376SOL    HW233026   8.188   0.375   1.954
10377SOL     OW33027  11.741  11.506   6.731
10377SOL    HW133028  11.686  11.532   6.805
10377SOL    HW233029  11.823  11.554   6.744
10378SOL     OW33030   9.256   1.242   9.530
10378SOL    HW133031   9.346   1.228   9.558
10378SOL    HW233032   9.218   1.154   9.529
10379SOL     OW33033   9.258   8.639   8.390
10379SOL    HW133034   9.172   8.643   8.347
10379SOL    HW233035   9.239   8.608   8.478
10380SOL     OW33036   0.275   1.293  14.221
10380SOL    HW133037   0.356   1.244  14.206
10380SOL    HW233038   0.236   1.252  14.298
10381SOL     OW33039   4.015  10.341  13.754
10381SOL    HW133040   4.015  10.302  13.841
10381SOL    HW233041   3.946  10.295  13.707
10382SOL     OW33042   0.233  14.371   5.795
10382SOL    HW133043   0.316  14.410   5.770
10382SOL    HW233044   0.185  14.443   5.838
10383SOL     OW33045   0.240   8.218  10.549
10383SOL    HW133046   0.165   8.201  10.492
10383SOL    HW233047   0.238   8.147  10.614
10384SOL     OW33048  13.357   8.204  12.871
10384SOL    HW133049  13.291   8.265  12.840
10384SOL    HW233050  13.317   8.118  12.860
10385SOL     OW33051   3.303   3.165   8.935
10385SOL    HW133052   3.353   3.092   8.973
10385SOL    HW233053   3.225   3.124   8.897
10386SOL     OW33054   8.886   3.371  13.122
10386SOL    HW133055   8.880   3.283  13.086
10386SOL    HW233056   8.857   3.362  13.213
10387SOL     OW33057   1.513   1.270  11.591
10387SOL    HW133058   1.442   1.328  11.619
10387SOL    HW233059   1.589   1.327  11.582
10388SOL     OW33060   9.244  12.077   9.116
10388SOL    HW133061   9.296  12.001   9.091
10388SOL    HW233062   9.235  12.070   9.211
10389SOL     OW33063   4.721  12.681   3.323
10389SOL    HW133064   4.735  12.587   3.335
10389SOL    HW233065   4.709  12.692   3.229
10390SOL     OW33066   5.484   3.277   8.592
10390SOL    HW133067   5.421   3.305   8.525
10390SOL    HW233068   5.569   3.290   8.552
10391SOL     OW33069   6.068  10.601   6.521
10391SOL    HW133070   6.053  10.614   6.428
10391SOL    HW233071   6.037  10.512   6.539
10392SOL     OW33072   5.962   5.786  14.721
10392SOL    HW133073   6.030   5.845  14.753
10392SOL    HW233074   6.003   5.738  14.650
10393SOL     OW33075   5.726   5.893   2.502
10393SOL    HW133076   5.803   5.847   2.537
10393SOL    HW233077   5.652   5.853   2.546
10394SOL     OW33078   7.913   1.958   1.832
10394SOL    HW133079   7.869   1.880   1.866
10394SOL    HW233080   7.922   1.941   1.738
10395SOL     OW33081   2.680  14.761   7.656
10395SOL    HW133082   2.685  14.666   7.669
10395SOL    HW233083   2.621  14.772   7.581
10396SOL     OW33084  14.443  11.622  13.345
10396SOL    HW133085  14.353  11.631  13.314
10396SOL    HW233086  14.448  11.533  13.379
10397SOL     OW33087   3.669   2.983   7.114
10397SOL    HW133088   3.643   3.038   7.040
10397SOL    HW233089   3.640   3.032   7.191
10398SOL     OW33090  14.774   7.271  10.030
10398SOL    HW133091  14.724   7.324  10.092
10398SOL    HW233092  14.772   7.321   9.948
10399SOL     OW33093   2.812   4.927  12.577
10399SOL    HW133094   2.789   5.001  12.634
10399SOL    HW233095   2.772   4.948  12.493
10400SOL     OW33096   7.996   3.434   3.376
10400SOL    HW133097   8.077   3.385   3.370
10400SOL    HW233098   7.950   3.413   3.294
10401SOL     OW33099  13.105   5.153   9.682
10401SOL    HW133100  13.139   5.151   9.771
10401SOL    HW233101  13.024   5.204   9.688
10402SOL     OW33102   4.414  14.646   0.584
10402SOL    HW133103   4.394  14.714   0.648
10402SOL    HW233104   4.510  14.645   0.579
10403SOL     OW33105  10.627   6.178   9.497
10403SOL    HW133106  10.594   6.251   9.443
10403SOL    HW233107  10.591   6.195   9.584
10404SOL     OW33108  11.803  12.601   2.341
10404SOL    HW133109  11.857  12.567   2.269
10404SOL    HW233110  11.867  12.621   2.410
10405SOL     OW33111   6.966   1.285   7.401
10405SOL    HW133112   7.042   1.330   7.439
10405SOL    HW233113   6.932   1.231   7.473
10406SOL     OW33114  12.826   8.794   1.167
10406SOL    HW133115  12.906   8.751   1.138
10406SOL    HW233116  12.769   8.795   1.091
10407SOL     OW33117  13.903   2.050  14.681
10407SOL    HW133118  13.993   2.023  14.664
10407SOL    HW233119  13.903   2.144  14.662
10408SOL     OW33120   1.784   5.307  14.184
10408SOL    HW133121   1.730   5.382  14.208
10408SOL    HW233122   1.738   5.232  14.220
10409SOL     OW33123   0.186   4.878   5.292
10409SOL    HW133124   0.218   4.904   5.378
10409SOL    HW233125   0.201   4.955   5.237
10410SOL     OW33126   7.782   1.577  13.382
10410SOL    HW133127   7.730   1.577  13.462
10410SOL    HW233128   7.794   1.484  13.361
10411SOL     OW33129   4.411  10.094   7.482
10411SOL    HW133130   4.369  10.011   7.506
10411SOL    HW233131   4.505  10.077   7.492
10412SOL     OW33132   6.738   2.677   0.822
10412SOL    HW133133   6.769   2.706   0.908
10412SOL    HW233134   6.702   2.756   0.782
10413SOL     OW33135   8.134   8.906   4.397
10413SOL    HW133136   8.159   8.931   4.308
10413SOL    HW233137   8.172   8.973   4.453
10414SOL     OW33138   8.819   3.680   2.692
10414SOL    HW133139   8.774   3.753   2.649
10414SOL    HW233140   8.880   3.723   2.752
10415SOL     OW33141   7.298   6.328   5.557
10415SOL    HW133142   7.359   6.375   5.501
10415SOL    HW233143   7.307   6.370   5.643
10416SOL     OW33144   6.607   9.405  10.035
10416SOL    HW133145   6.628   9.326  10.085
10416SOL    HW233146   6.692   9.443  10.013
10417SOL     OW33147   2.019   7.725   8.792
10417SOL    HW133148   1.953   7.791   8.810
10417SOL    HW233149   2.101   7.765   8.821
10418SOL     OW33150  11.049   9.198  12.332
10418SOL    HW133151  11.067   9.118  12.283
10418SOL    HW233152  10.954   9.204  12.335
10419SOL     OW33153   5.139   2.964   6.365
10419SOL    HW133154   5.071   3.009   6.416
10419SOL    HW233155   5.091   2.917   6.297
10420SOL     OW33156  11.407   0.643  11.820
10420SOL    HW133157  11.422   0.552  11.797
10420SOL    HW233158  11.482   0.668  11.873
10421SOL     OW33159  13.032   6.462   7.901
10421SOL    HW133160  13.106   6.426   7.852
10421SOL    HW233161  12.956   6.439   7.849
10422SOL     OW33162   7.847  13.312   8.054
10422SOL    HW133163   7.828  13.345   7.966
10422SOL    HW233164   7.762  13.287   8.089
10423SOL     OW33165  14.650   5.693  10.778
10423SOL    HW133166  14.607   5.776  10.797
10423SOL    HW233167  14.739   5.717  10.752
10424SOL     OW33168   3.628  12.595   6.569
10424SOL    HW133169   3.708  12.594   6.517
10424SOL    HW233170   3.616  12.686   6.594
10425SOL     OW33171   0.144   9.091  10.118
10425SOL    HW133172   0.214   9.144  10.081
10425SOL    HW233173   0.090   9.066  10.044
10426SOL     OW33174   3.436   1.953   3.587
10426SOL    HW133175   3.492   2.015   3.633
10426SOL    HW233176   3.402   1.896   3.656
10427SOL     OW33177   0.861   7.563   2.395
10427SOL    HW133178   0.840   7.626   2.326
10427SOL    HW233179   0.860   7.615   2.476
10428SOL     OW33180   8.453   6.079   2.329
10428SOL    HW133181   8.418   6.024   2.259
10428SOL    HW233182   8.415   6.043   2.409
10429SOL     OW33183  12.733   3.139   6.325
10429SOL    HW133184  12.785   3.219   6.318
10429SOL    HW233185  12.711   3.117   6.235
10430SOL     OW33186  10.394   2.773   9.918
10430SOL    HW133187  10.413   2.856   9.961
10430SOL    HW233188  10.312   2.743   9.957
10431SOL     OW33189   5.125  13.424   1.912
10431SOL    HW133190   5.180  13.461   1.843
10431SOL    HW233191   5.042  13.404   1.868
10432SOL     OW33192  14.202   4.208   0.071
10432SOL    HW133193  14.125   4.168   0.111
10432SOL    HW233194  14.274   4.183   0.129
10433SOL     OW33195   6.198  13.769   2.782
10433SOL    HW133196   6.257  13.817   2.724
10433SOL    HW233197   6.256  13.719   2.839
10434SOL     OW33198   8.195   0.943   0.119
10434SOL    HW133199   8.262   0.917   0.057
10434SOL    HW233200   8.126   0.983   0.066
10435SOL     OW33201   1.130   8.083   5.640
10435SOL    HW133202   1.087   8.096   5.724
10435SOL    HW233203   1.062   8.045   5.584
10436SOL     OW33204   3.473   5.510  13.436
10436SOL    HW133205   3.566   5.496  13.418
10436SOL    HW233206   3.463   5.605  13.436
10437SOL     OW33207  12.507  12.279   6.292
10437SOL    HW133208  12.488  12.295   6.200
10437SOL    HW233209  12.584  12.332   6.311
10438SOL     OW33210  11.655   4.686   6.900
10438SOL    HW133211  11.709   4.739   6.841
10438SOL    HW233212  11.569   4.684   6.859
10439SOL     OW33213   2.072   2.303   4.563
10439SOL    HW133214   2.099   2.260   4.645
10439SOL    HW233215   2.078   2.234   4.497
10440SOL     OW33216   9.841  12.985  11.637
10440SOL    HW133217   9.902  12.912  11.627
10440SOL    HW233218   9.898  13.062  11.643
10441SOL     OW33219  10.791   5.152   0.039
10441SOL    HW133220  10.823   5.226  14.857
10441SOL    HW233221  10.815   5.175   0.129
10442SOL     OW33222   8.077  11.480  13.316
10442SOL    HW133223   8.086  11.385  13.328
10442SOL    HW233224   7.985  11.498  13.338
10443SOL     OW33225   3.222   2.232   5.327
10443SOL    HW133226   3.214   2.274   5.241
10443SOL    HW233227   3.226   2.139   5.307
10444SOL     OW33228  11.769   4.710   2.364
10444SOL    HW133229  11.837   4.643   2.369
10444SOL    HW233230  11.702   4.672   2.306
10445SOL     OW33231   3.351  10.954   2.491
10445SOL    HW133232   3.343  10.974   2.398
10445SOL    HW233233   3.390  10.867   2.494
10446SOL     OW33234  12.794  12.587   7.005
10446SOL    HW133235  12.863  12.653   7.011
10446SOL    HW233236  12.774  12.565   7.096
10447SOL     OW33237  13.603   3.132  13.952
10447SOL    HW133238  13.625   3.224  13.966
10447SOL    HW233239  13.688   3.091  13.933
10448SOL     OW33240  14.151  13.927   8.670
10448SOL    HW133241  14.168  13.886   8.755
10448SOL    HW233242  14.213  14.001   8.666
10449SOL     OW33243  13.470  10.450  12.262
10449SOL    HW133244  13.394  10.424  12.210
10449SOL    HW233245  13.433  10.497  12.337
10450SOL     OW33246   3.774  14.447   1.060
10450SOL    HW133247   3.767  14.447   1.155
10450SOL    HW233248   3.701  14.501   1.030
10451SOL     OW33249   9.588   8.299  11.759
10451SOL    HW133250   9.664   8.288  11.817
10451SOL    HW233251   9.522   8.240  11.794
10452SOL     OW33252  14.338   8.119  10.929
10452SOL    HW133253  14.420   8.157  10.961
10452SOL    HW233254  14.327   8.040  10.983
10453SOL     OW33255   4.269   9.012   1.218
10453SOL    HW133256   4.198   9.036   1.277
10453SOL    HW233257   4.224   8.982   1.139
10454SOL     OW33258  11.039   3.071   5.633
10454SOL    HW133259  11.046   3.004   5.565
10454SOL    HW233260  11.034   3.022   5.715
10455SOL     OW33261   9.752   3.320   7.105
10455SOL    HW133262   9.736   3.414   7.103
10455SOL    HW233263   9.680   3.282   7.055
10456SOL     OW33264   9.431   9.943  12.052
10456SOL    HW133265   9.342   9.978  12.061
10456SOL    HW233266   9.423   9.874  11.987
10457SOL     OW33267   5.474  12.823   2.938
10457SOL    HW133268   5.470  12.918   2.922
10457SOL    HW233269   5.393  12.789   2.899
10458SOL     OW33270   5.377   6.142  13.575
10458SOL    HW133271   5.329   6.216  13.537
10458SOL    HW233272   5.330   6.064  13.544
10459SOL     OW33273   7.839   0.998  10.082
10459SOL    HW133274   7.792   0.922  10.046
10459SOL    HW233275   7.772   1.046  10.131
10460SOL     OW33276   1.248   9.109  10.451
10460SOL    HW133277   1.156   9.082  10.451
10460SOL    HW233278   1.259   9.158  10.370
10461SOL     OW33279   6.122   3.003   7.725
10461SOL    HW133280   6.117   2.989   7.630
10461SOL    HW233281   6.148   3.094   7.734
10462SOL     OW33282   3.368  12.921  11.924
10462SOL    HW133283   3.427  12.947  11.996
10462SOL    HW233284   3.408  12.842  11.888
10463SOL     OW33285   1.572   3.891   5.790
10463SOL    HW133286   1.599   3.885   5.698
10463SOL    HW233287   1.501   3.827   5.798
10464SOL     OW33288  12.145   4.607   3.085
10464SOL    HW133289  12.194   4.572   3.010
10464SOL    HW233290  12.079   4.664   3.045
10465SOL     OW33291  13.501   1.640   0.556
10465SOL    HW133292  13.445   1.691   0.498
10465SOL    HW233293  13.463   1.652   0.643
10466SOL     OW33294  13.126   7.456   3.991
10466SOL    HW133295  13.122   7.472   3.897
10466SOL    HW233296  13.104   7.541   4.031
10467SOL     OW33297   7.081   0.191   6.958
10467SOL    HW133298   7.106   0.146   7.039
10467SOL    HW233299   7.021   0.131   6.914
10468SOL     OW33300   1.132   2.939  11.085
10468SOL    HW133301   1.063   2.893  11.133
10468SOL    HW233302   1.106   3.031  11.087
10469SOL     OW33303  14.142  13.693   6.104
10469SOL    HW133304  14.199  13.636   6.155
10469SOL    HW233305  14.055  13.680   6.142
10470SOL     OW33306   3.903   0.261   6.959
10470SOL    HW133307   3.883   0.306   6.877
10470SOL    HW233308   3.977   0.309   6.996
10471SOL     OW33309   2.157   7.647  12.993
10471SOL    HW133310   2.175   7.553  12.981
10471SOL    HW233311   2.243   7.687  13.005
10472SOL     OW33312   8.305  12.465   5.776
10472SOL    HW133313   8.271  12.376   5.785
10472SOL    HW233314   8.399  12.456   5.793
10473SOL     OW33315   5.024  12.422  14.782
10473SOL    HW133316   5.020  12.440   0.006
10473SOL    HW233317   5.063  12.501  14.743
10474SOL     OW33318   1.804   4.669   9.059
10474SOL    HW133319   1.898   4.650   9.065
10474SOL    HW233320   1.776   4.628   8.977
10475SOL     OW33321   6.637   7.785   3.421
10475SOL    HW133322   6.635   7.703   3.470
10475SOL    HW233323   6.730   7.796   3.397
10476SOL     OW33324  12.874   4.749  13.905
10476SOL    HW133325  12.862   4.830  13.856
10476SOL    HW233326  12.792   4.738  13.954
10477SOL     OW33327   7.729   9.920   9.678
10477SOL    HW133328   7.821   9.942   9.662
10477SOL    HW233329   7.693   9.901   9.592
10478SOL     OW33330   1.241   5.100   3.147
10478SOL    HW133331   1.202   5.018   3.118
10478SOL    HW233332   1.169   5.148   3.189
10479SOL     OW33333  13.239   6.020  13.101
10479SOL    HW133334  13.301   6.085  13.068
10479SOL    HW233335  13.153   6.055  13.078
10480SOL     OW33336   1.141   7.931  14.159
10480SOL    HW133337   1.070   7.970  14.211
10480SOL    HW233338   1.220   7.978  14.185
10481SOL     OW33339  10.735  12.734   1.736
10481SOL    HW133340  10.731  12.814   1.789
10481SOL    HW233341  10.679  12.672   1.783
10482SOL     OW33342   6.492   4.991   3.130
10482SOL    HW133343   6.530   4.906   3.112
10482SOL    HW233344   6.492   5.036   3.045
10483SOL     OW33345   2.396   1.633   0.880
10483SOL    HW133346   2.329   1.607   0.817
10483SOL    HW233347   2.452   1.556   0.889
10484SOL     OW33348  14.583   5.328   9.964
10484SOL    HW133349  14.624   5.299  10.045
10484SOL    HW233350  14.619   5.271   9.897
10485SOL     OW33351  11.075   0.984   7.688
10485SOL    HW133352  11.146   0.920   7.682
10485SOL    HW233353  11.012   0.957   7.622
10486SOL     OW33354  14.150  13.165   7.702
10486SOL    HW133355  14.195  13.200   7.779
10486SOL    HW233356  14.195  13.206   7.627
10487SOL     OW33357  11.533   6.680   9.417
10487SOL    HW133358  11.455   6.710   9.371
10487SOL    HW233359  11.606   6.709   9.363
10488SOL     OW33360  14.677   9.821   6.852
10488SOL    HW133361  14.671   9.731   6.884
10488SOL    HW233362  14.703   9.872   6.929
10489SOL     OW33363   1.544  10.384  12.207
10489SOL    HW133364   1.448  10.376  12.202
10489SOL    HW233365   1.576  10.295  12.193
10490SOL     OW33366   6.989   7.141  13.447
10490SOL    HW133367   7.083   7.153  13.433
10490SOL    HW233368   6.983   7.062  13.502
10491SOL     OW33369   0.695  10.256  11.100
10491SOL    HW133370   0.715  10.167  11.129
10491SOL    HW233371   0.700  10.309  11.179
10492SOL     OW33372   6.881   8.317   5.117
10492SOL    HW133373   6.839   8.231   5.109
10492SOL    HW233374   6.912   8.320   5.208
10493SOL     OW33375   4.977  14.110   9.990
10493SOL    HW133376   4.992  14.089   9.898
10493SOL    HW233377   5.064  14.111  10.029
10494SOL     OW33378  12.252   7.349  11.940
10494SOL    HW133379  12.243   7.363  11.846
10494SOL    HW233380  12.282   7.433  11.975
10495SOL     OW33381  13.953  11.490   9.777
10495SOL    HW133382  13.995  11.419   9.729
10495SOL    HW233383  13.931  11.452   9.862
10496SOL     OW33384   8.876   4.206   1.138
10496SOL    HW133385   8.819   4.245   1.072
10496SOL    HW233386   8.853   4.114   1.138
10497SOL     OW33387  13.553   9.403   3.456
10497SOL    HW133388  13.478   9.456   3.485
10497SOL    HW233389  13.629   9.447   3.494
10498SOL     OW33390  14.826   3.463  13.590
10498SOL    HW133391   0.015   3.392  13.617
10498SOL    HW233392  14.797   3.502  13.673
10499SOL     OW33393  13.150  13.815   7.426
10499SOL    HW133394  13.142  13.800   7.331
10499SOL    HW233395  13.116  13.903   7.439
10500SOL     OW33396   9.492   6.300  10.365
10500SOL    HW133397   9.421   6.257  10.317
10500SOL    HW233398   9.569   6.247  10.347
10501SOL     OW33399  14.853   6.414   5.134
10501SOL    HW133400   0.071   6.427   5.099
10501SOL    HW233401  14.853   6.323   5.165
10502SOL     OW33402   9.956   6.890   4.793
10502SOL    HW133403  10.012   6.968   4.783
10502SOL    HW233404   9.892   6.916   4.859
10503SOL     OW33405   1.101   4.266   8.144
10503SOL    HW133406   1.005   4.271   8.146
10503SOL    HW233407   1.127   4.266   8.236
10504SOL     OW33408   7.485   6.297   7.420
10504SOL    HW133409   7.527   6.289   7.506
10504SOL    HW233410   7.405   6.348   7.437
10505SOL     OW33411   1.442  14.242   4.794
10505SOL    HW133412   1.360  14.242   4.745
10505SOL    HW233413   1.496  14.175   4.751
10506SOL     OW33414  10.993   9.740   6.285
10506SOL    HW133415  10.898   9.731   6.292
10506SOL    HW233416  11.016   9.686   6.208
10507SOL     OW33417  12.172   3.288   3.052
10507SOL    HW133418  12.215   3.204   3.072
10507SOL    HW233419  12.166   3.289   2.956
10508SOL     OW33420   6.697  10.893   3.731
10508SOL    HW133421   6.629  10.861   3.672
10508SOL    HW233422   6.766  10.925   3.672
10509SOL     OW33423   0.530   6.778   9.242
10509SOL    HW133424   0.461   6.785   9.309
10509SOL    HW233425   0.484   6.748   9.164
10510SOL     OW33426  12.379  13.444  11.620
10510SOL    HW133427  12.290  13.480  11.617
10510SOL    HW233428  12.409  13.446  11.529
10511SOL     OW33429   7.706   4.727  14.445
10511SOL    HW133430   7.695   4.822  14.446
10511SOL    HW233431   7.658   4.698  14.367
10512SOL     OW33432  14.355   9.721  12.257
10512SOL    HW133433  14.366   9.744  12.350
10512SOL    HW233434  14.436   9.673  12.235
10513SOL     OW33435   9.414  12.215  10.741
10513SOL    HW133436   9.493  12.165  10.761
10513SOL    HW233437   9.385  12.182  10.657
10514SOL     OW33438  13.179   5.232  14.806
10514SOL    HW133439  13.207   5.320  14.831
10514SOL    HW233440  13.240   5.173  14.851
10515SOL     OW33441   6.926   6.103   9.822
10515SOL    HW133442   6.957   6.082   9.734
10515SOL    HW233443   6.914   6.198   9.820
10516SOL     OW33444   6.364  14.583   8.400
10516SOL    HW133445   6.351  14.633   8.320
10516SOL    HW233446   6.453  14.605   8.428
10517SOL     OW33447   0.593   7.684   7.548
10517SOL    HW133448   0.569   7.607   7.600
10517SOL    HW233449   0.512   7.735   7.541
10518SOL     OW33450  11.346   1.973   6.889
10518SOL    HW133451  11.264   2.024   6.891
10518SOL    HW233452  11.397   2.010   6.961
10519SOL     OW33453  10.218   0.424   9.302
10519SOL    HW133454  10.135   0.471   9.298
10519SOL    HW233455  10.242   0.408   9.211
10520SOL     OW33456  13.203   6.155   3.801
10520SOL    HW133457  13.268   6.203   3.852
10520SOL    HW233458  13.120   6.199   3.820
10521SOL     OW33459   4.676  10.830   3.331
10521SOL    HW133460   4.604  10.868   3.382
10521SOL    HW233461   4.682  10.740   3.362
10522SOL     OW33462   7.210   8.227   0.956
10522SOL    HW133463   7.278   8.189   1.012
10522SOL    HW233464   7.227   8.191   0.869
10523SOL     OW33465  10.561   6.915  14.465
10523SOL    HW133466  10.475   6.882  14.439
10523SOL    HW233467  10.550   6.942  14.556
10524SOL     OW33468   6.126   3.292   6.165
10524SOL    HW133469   6.172   3.362   6.119
10524SOL    HW233470   6.193   3.228   6.187
10525SOL     OW33471   1.777  10.414   7.593
10525SOL    HW133472   1.738  10.395   7.508
10525SOL    HW233473   1.705  10.451   7.644
10526SOL     OW33474  10.402   3.968   6.271
10526SOL    HW133475  10.444   4.050   6.299
10526SOL    HW233476  10.316   3.970   6.314
10527SOL     OW33477   4.682  13.369   8.289
10527SOL    HW133478   4.774  13.348   8.306
10527SOL    HW233479   4.656  13.424   8.364
10528SOL     OW33480   6.844   0.506   7.171
10528SOL    HW133481   6.902   0.538   7.240
10528SOL    HW233482   6.787   0.581   7.151
10529SOL     OW33483   9.175  14.772   5.977
10529SOL    HW133484   9.201  14.683   6.001
10529SOL    HW233485   9.192  14.824   6.055
10530SOL     OW33486  12.961  13.996   9.326
10530SOL    HW133487  12.978  13.987   9.232
10530SOL    HW233488  13.026  13.939   9.368
10531SOL     OW33489   8.850   9.675   2.262
10531SOL    HW133490   8.804   9.640   2.186
10531SOL    HW233491   8.941   9.648   2.250
10532SOL     OW33492  13.005  12.210   9.384
10532SOL    HW133493  13.056  12.136   9.417
10532SOL    HW233494  13.067  12.261   9.331
10533SOL     OW33495   4.824  10.360   6.332
10533SOL    HW133496   4.833  10.268   6.358
10533SOL    HW233497   4.869  10.409   6.401
10534SOL     OW33498  13.724   3.377   9.274
10534SOL    HW133499  13.723   3.473   9.270
10534SOL    HW233500  13.700   3.349   9.186
10535SOL     OW33501   7.749  11.708   6.469
10535SOL    HW133502   7.762  11.796   6.432
10535SOL    HW233503   7.829  11.661   6.446
10536SOL     OW33504  10.523   4.951   3.280
10536SOL    HW133505  10.465   4.934   3.355
10536SOL    HW233506  10.483   5.026   3.236
10537SOL     OW33507   6.736   0.135  12.604
10537SOL    HW133508   6.701   0.047  12.589
10537SOL    HW233509   6.740   0.143  12.700
10538SOL     OW33510   0.485   9.731  14.670
10538SOL    HW133511   0.489   9.748  14.764
10538SOL    HW233512   0.557   9.670  14.654
10539SOL     OW33513  10.150   7.098   7.933
10539SOL    HW133514  10.245   7.099   7.944
10539SOL    HW233515  10.127   7.190   7.918
10540SOL     OW33516   2.800  14.541   4.125
10540SOL    HW133517   2.881  14.504   4.163
10540SOL    HW233518   2.732  14.518   4.189
10541SOL     OW33519   3.181   4.097   3.371
10541SOL    HW133520   3.113   4.111   3.305
10541SOL    HW233521   3.146   4.030   3.429
10542SOL     OW33522   0.723   2.105   4.533
10542SOL    HW133523   0.645   2.098   4.478
10542SOL    HW233524   0.710   2.038   4.601
10543SOL     OW33525  14.058  12.434  14.393
10543SOL    HW133526  14.017  12.427  14.307
10543SOL    HW233527  14.110  12.515  14.388
10544SOL     OW33528   5.582   0.324   3.245
10544SOL    HW133529   5.543   0.302   3.329
10544SOL    HW233530   5.534   0.271   3.181
10545SOL     OW33531   5.115   2.172  11.421
10545SOL    HW133532   5.105   2.252  11.369
10545SOL    HW233533   5.029   2.130  11.417
10546SOL     OW33534  14.277  11.870  11.317
10546SOL    HW133535  14.205  11.911  11.269
10546SOL    HW233536  14.339  11.941  11.334
10547SOL     OW33537  10.266   2.823  10.322
10547SOL    HW133538  10.213   2.887  10.274
10547SOL    HW233539  10.279   2.863  10.408
10548SOL     OW33540   3.718   3.776   6.568
10548SOL    HW133541   3.705   3.701   6.509
10548SOL    HW233542   3.811   3.771   6.592
10549SOL     OW33543   2.882   3.641   4.354
10549SOL    HW133544   2.863   3.555   4.316
10549SOL    HW233545   2.888   3.625   4.448
10550SOL     OW33546   7.407   6.919   6.152
10550SOL    HW133547   7.492   6.898   6.112
10550SOL    HW233548   7.412   6.879   6.239
10551SOL     OW33549   6.932   9.748   3.301
10551SOL    HW133550   6.867   9.690   3.340
10551SOL    HW233551   6.917   9.740   3.206
10552SOL     OW33552   4.531   2.105   3.132
10552SOL    HW133553   4.511   2.028   3.185
10552SOL    HW233554   4.482   2.093   3.051
10553SOL     OW33555  12.948   1.568   3.880
10553SOL    HW133556  12.960   1.660   3.904
10553SOL    HW233557  12.861   1.545   3.913
10554SOL     OW33558   6.666   1.994   6.668
10554SOL    HW133559   6.622   1.979   6.584
10554SOL    HW233560   6.653   1.913   6.716
10555SOL     OW33561   8.226   0.805  12.204
10555SOL    HW133562   8.253   0.838  12.118
10555SOL    HW233563   8.302   0.755  12.235
10556SOL     OW33564   1.394  10.197   4.273
10556SOL    HW133565   1.448  10.190   4.352
10556SOL    HW233566   1.402  10.289   4.246
10557SOL     OW33567   2.158   3.667  13.093
10557SOL    HW133568   2.090   3.639  13.032
10557SOL    HW233569   2.217   3.721  13.040
10558SOL     OW33570   2.948   2.002  10.967
10558SOL    HW133571   2.887   1.938  10.930
10558SOL    HW233572   3.006   2.024  10.894
10559SOL     OW33573   4.239   3.791   2.922
10559SOL    HW133574   4.332   3.812   2.917
10559SOL    HW233575   4.229   3.713   2.867
10560SOL     OW33576   6.133   6.876  11.462
10560SOL    HW133577   6.171   6.814  11.526
10560SOL    HW233578   6.055   6.910  11.505
10561SOL     OW33579  14.684   5.635   0.171
10561SOL    HW133580  14.718   5.717   0.135
10561SOL    HW233581  14.756   5.600   0.223
10562SOL     OW33582   3.241   1.973   9.876
10562SOL    HW133583   3.182   2.036   9.917
10562SOL    HW233584   3.252   1.904   9.941
10563SOL     OW33585  10.898  13.668   2.028
10563SOL    HW133586  10.818  13.654   1.977
10563SOL    HW233587  10.922  13.759   2.010
10564SOL     OW33588   2.161  12.340   5.024
10564SOL    HW133589   2.213  12.293   4.959
10564SOL    HW233590   2.070  12.318   5.002
10565SOL     OW33591   6.793  13.446   2.594
10565SOL    HW133592   6.837  13.499   2.660
10565SOL    HW233593   6.859  13.432   2.526
10566SOL     OW33594   6.443  14.492   4.978
10566SOL    HW133595   6.458  14.541   4.898
10566SOL    HW233596   6.383  14.547   5.030
10567SOL     OW33597   2.988   9.935  11.120
10567SOL    HW133598   2.978   9.945  11.026
10567SOL    HW233599   2.919   9.989  11.158
10568SOL     OW33600   2.800   7.021   8.526
10568SOL    HW133601   2.824   6.985   8.611
10568SOL    HW233602   2.729   7.083   8.544
10569SOL     OW33603   3.598  14.826   2.225
10569SOL    HW133604   3.642  14.823   2.140
10569SOL    HW233605   3.669  14.831   2.289
10570SOL     OW33606   4.726  13.462  11.658
10570SOL    HW133607   4.680  13.408  11.723
10570SOL    HW233608   4.699  13.425  11.574
10571SOL     OW33609  11.417   9.257   3.368
10571SOL    HW133610  11.430   9.230   3.277
10571SOL    HW233611  11.471   9.197   3.419
10572SOL     OW33612  10.195   7.848   3.178
10572SOL    HW133613  10.173   7.839   3.271
10572SOL    HW233614  10.266   7.912   3.177
10573SOL     OW33615   9.272   8.022   7.398
10573SOL    HW133616   9.304   8.068   7.321
10573SOL    HW233617   9.223   7.947   7.363
10574SOL     OW33618   8.539  13.141   4.840
10574SOL    HW133619   8.557  13.204   4.770
10574SOL    HW233620   8.460  13.095   4.811
10575SOL     OW33621   0.223  14.162  10.675
10575SOL    HW133622   0.133  14.193  10.683
10575SOL    HW233623   0.270  14.204  10.746
10576SOL     OW33624   8.379   7.519  10.345
10576SOL    HW133625   8.309   7.506  10.408
10576SOL    HW233626   8.453   7.551  10.397
10577SOL     OW33627   5.681  12.927   8.625
10577SOL    HW133628   5.647  12.950   8.539
10577SOL    HW233629   5.773  12.955   8.622
10578SOL     OW33630   6.799  12.200   7.163
10578SOL    HW133631   6.725  12.144   7.142
10578SOL    HW233632   6.796  12.271   7.099
10579SOL     OW33633   8.199  14.292   4.744
10579SOL    HW133634   8.282  14.323   4.778
10579SOL    HW233635   8.187  14.341   4.662
10580SOL     OW33636  13.243  10.884  11.737
10580SOL    HW133637  13.295  10.956  11.771
10580SOL    HW233638  13.260  10.884  11.643
10581SOL     OW33639   7.788   3.867   0.737
10581SOL    HW133640   7.819   3.947   0.695
10581SOL    HW233641   7.827   3.870   0.825
10582SOL     OW33642   0.575  13.714   6.647
10582SOL    HW133643   0.660  13.672   6.643
10582SOL    HW233644   0.521  13.665   6.585
10583SOL     OW33645  13.375   3.020  14.056
10583SOL    HW133646  13.467   3.036  14.034
10583SOL    HW233647  13.379   2.967  14.135
10584SOL     OW33648   7.630  10.144   5.868
10584SOL    HW133649   7.547  10.163   5.911
10584SOL    HW233650   7.607  10.126   5.777
10585SOL     OW33651   1.421   1.295   7.809
10585SOL    HW133652   1.427   1.347   7.729
10585SOL    HW233653   1.332   1.261   7.809
10586SOL     OW33654   8.413   0.190  12.629
10586SOL    HW133655   8.378   0.188  12.718
10586SOL    HW233656   8.345   0.148  12.576
10587SOL     OW33657  11.683  13.734   0.111
10587SOL    HW133658  11.744  13.664   0.088
10587SOL    HW233659  11.689  13.740   0.207
10588SOL     OW33660  10.375  12.592  12.882
10588SOL    HW133661  10.465  12.615  12.906
10588SOL    HW233662  10.370  12.497  12.895
10589SOL     OW33663   0.935   0.888  11.036
10589SOL    HW133664   0.898   0.924  11.116
10589SOL    HW233665   1.028   0.912  11.040
10590SOL     OW33666   5.837  14.225   4.586
10590SOL    HW133667   5.770  14.209   4.653
10590SOL    HW233668   5.798  14.291   4.529
10591SOL     OW33669   7.446   5.768  10.756
10591SOL    HW133670   7.466   5.805  10.670
10591SOL    HW233671   7.468   5.675  10.748
10592SOL     OW33672   7.039   3.247   9.075
10592SOL    HW133673   7.077   3.311   9.015
10592SOL    HW233674   7.075   3.272   9.161
10593SOL     OW33675   6.756   1.811   2.825
10593SOL    HW133676   6.759   1.896   2.870
10593SOL    HW233677   6.817   1.820   2.752
10594SOL     OW33678  13.000  12.913  11.607
10594SOL    HW133679  12.927  12.899  11.667
10594SOL    HW233680  13.044  12.828  11.603
10595SOL     OW33681   8.006   9.860  10.169
10595SOL    HW133682   7.998   9.858  10.073
10595SOL    HW233683   7.935   9.803  10.199
10596SOL     OW33684   7.485  13.873   8.258
10596SOL    HW133685   7.452  13.893   8.345
10596SOL    HW233686   7.467  13.779   8.246
10597SOL     OW33687   1.541   4.028   9.530
10597SOL    HW133688   1.560   4.010   9.622
10597SOL    HW233689   1.447   4.048   9.528
10598SOL     OW33690  13.865   9.358   9.743
10598SOL    HW133691  13.796   9.296   9.764
10598SOL    HW233692  13.872   9.355   9.647
10599SOL     OW33693   2.396   8.811  10.080
10599SOL    HW133694   2.471   8.804  10.138
10599SOL    HW233695   2.356   8.724  10.081
10600SOL     OW33696  12.672   8.647   7.528
10600SOL    HW133697  12.626   8.663   7.610
10600SOL    HW233698  12.748   8.705   7.531
10601SOL     OW33699   1.831   1.941   3.816
10601SOL    HW133700   1.915   1.939   3.769
10601SOL    HW233701   1.766   1.953   3.747
10602SOL     OW33702   1.549   5.033   5.103
10602SOL    HW133703   1.610   4.990   5.164
10602SOL    HW233704   1.512   4.961   5.051
10603SOL     OW33705   0.143   4.689   4.598
10603SOL    HW133706   0.050   4.707   4.611
10603SOL    HW233707   0.155   4.599   4.626
10604SOL     OW33708   9.095   1.751   7.150
10604SOL    HW133709   9.061   1.740   7.062
10604SOL    HW233710   9.188   1.728   7.143
10605SOL     OW33711  11.133   2.248   3.920
10605SOL    HW133712  11.057   2.257   3.977
10605SOL    HW233713  11.143   2.153   3.909
10606SOL     OW33714   8.139   9.703   3.566
10606SOL    HW133715   8.121   9.663   3.651
10606SOL    HW233716   8.084   9.654   3.505
10607SOL     OW33717   2.073   1.933   4.835
10607SOL    HW133718   1.990   1.974   4.810
10607SOL    HW233719   2.064   1.917   4.929
10608SOL     OW33720  10.429  13.972   2.408
10608SOL    HW133721  10.484  13.996   2.483
10608SOL    HW233722  10.340  13.995   2.435
10609SOL     OW33723  13.021   2.034   4.620
10609SOL    HW133724  13.069   2.005   4.542
10609SOL    HW233725  12.967   1.958   4.644
10610SOL     OW33726  13.029  13.708   7.692
10610SOL    HW133727  13.079  13.781   7.655
10610SOL    HW233728  13.013  13.649   7.619
10611SOL     OW33729   8.293  10.662   7.143
10611SOL    HW133730   8.382  10.626   7.143
10611SOL    HW233731   8.298  10.739   7.199
10612SOL     OW33732   6.865  11.126  12.007
10612SOL    HW133733   6.851  11.091  11.919
10612SOL    HW233734   6.777  11.136  12.043
10613SOL     OW33735  10.109  11.174  11.014
10613SOL    HW133736  10.190  11.166  11.063
10613SOL    HW233737  10.136  11.176  10.922
10614SOL     OW33738   9.154   6.709  10.464
10614SOL    HW133739   9.184   6.638  10.521
10614SOL    HW233740   9.132   6.780  10.525
10615SOL     OW33741   3.877   3.443   5.563
10615SOL    HW133742   3.842   3.408   5.645
10615SOL    HW233743   3.810   3.504   5.533
10616SOL     OW33744   5.435  13.337   8.300
10616SOL    HW133745   5.485  13.399   8.353
10616SOL    HW233746   5.405  13.389   8.225
10617SOL     OW33747   1.228   3.056   1.352
10617SOL    HW133748   1.149   3.097   1.318
10617SOL    HW233749   1.267   3.122   1.410
10618SOL     OW33750  10.444  12.963  11.809
10618SOL    HW133751  10.412  12.957  11.899
10618SOL    HW233752  10.372  13.002  11.760
10619SOL     OW33753  13.343  14.464   4.764
10619SOL    HW133754  13.264  14.482   4.713
10619SOL    HW233755  13.311  14.429   4.847
10620SOL     OW33756   4.238  12.845   1.684
10620SOL    HW133757   4.158  12.892   1.657
10620SOL    HW233758   4.295  12.914   1.718
10621SOL     OW33759   8.312   6.809  12.124
10621SOL    HW133760   8.255   6.846  12.191
10621SOL    HW233761   8.257   6.804  12.046
10622SOL     OW33762   7.167   6.624   9.016
10622SOL    HW133763   7.107   6.553   8.991
10622SOL    HW233764   7.240   6.617   8.954
10623SOL     OW33765  14.235   3.626   6.253
10623SOL    HW133766  14.211   3.713   6.284
10623SOL    HW233767  14.284   3.642   6.172
10624SOL     OW33768  12.305   4.658  10.770
10624SOL    HW133769  12.314   4.614  10.855
10624SOL    HW233770  12.233   4.720  10.782
10625SOL     OW33771  12.874   7.548   7.297
10625SOL    HW133772  12.803   7.555   7.361
10625SOL    HW233773  12.856   7.466   7.250
10626SOL     OW33774  12.570   8.687   0.045
10626SOL    HW133775  12.578   8.746  14.840
10626SOL    HW233776  12.649   8.703   0.097
10627SOL     OW33777   0.411   1.328   5.180
10627SOL    HW133778   0.358   1.271   5.124
10627SOL    HW233779   0.408   1.287   5.266
10628SOL     OW33780  14.802  10.574  13.026
10628SOL    HW133781  14.851  10.590  13.107
10628SOL    HW233782  14.716  10.615  13.042
10629SOL     OW33783  13.437   5.478  11.657
10629SOL    HW133784  13.405   5.447  11.573
10629SOL    HW233785  13.481   5.561  11.637
10630SOL     OW33786   9.346  14.642  10.109
10630SOL    HW133787   9.387  14.727  10.127
10630SOL    HW233788   9.301  14.620  10.191
10631SOL     OW33789   8.974   9.285   5.370
10631SOL    HW133790   8.978   9.329   5.455
10631SOL    HW233791   9.034   9.335   5.315
10632SOL     OW33792   3.388   2.774   8.061
10632SOL    HW133793   3.399   2.681   8.079
10632SOL    HW233794   3.335   2.777   7.981
10633SOL     OW33795  12.787   9.349   3.608
10633SOL    HW133796  12.696   9.323   3.618
10633SOL    HW233797  12.820   9.294   3.536
10634SOL     OW33798  11.422  10.836   7.615
10634SOL    HW133799  11.495  10.836   7.554
10634SOL    HW233800  11.393  10.928   7.617
10635SOL     OW33801   2.464  13.154  13.974
10635SOL    HW133802   2.402  13.171  13.903
10635SOL    HW233803   2.529  13.224  13.967
10636SOL     OW33804  13.878   3.432  12.846
10636SOL    HW133805  13.904   3.458  12.935
10636SOL    HW233806  13.816   3.499  12.819
10637SOL     OW33807   0.251   2.596   5.961
10637SOL    HW133808   0.295   2.511   5.951
10637SOL    HW233809   0.290   2.634   6.039
10638SOL     OW33810  11.858   4.031  10.560
10638SOL    HW133811  11.949   4.060  10.554
10638SOL    HW233812  11.822   4.049  10.474
10639SOL     OW33813  10.492   2.887   9.208
10639SOL    HW133814  10.566   2.947   9.197
10639SOL    HW233815  10.513   2.837   9.287
10640SOL     OW33816  11.416   6.020  12.022
10640SOL    HW133817  11.487   6.034  12.084
10640SOL    HW233818  11.368   5.945  12.057
10641SOL     OW33819   8.661  11.004  11.050
10641SOL    HW133820   8.568  11.010  11.070
10641SOL    HW233821   8.676  11.073  10.985
10642SOL     OW33822   9.200   9.133  12.918
10642SOL    HW133823   9.289   9.158  12.942
10642SOL    HW233824   9.199   9.140  12.822
10643SOL     OW33825   8.328   3.629  13.231
10643SOL    HW133826   8.369   3.663  13.152
10643SOL    HW233827   8.273   3.700  13.263
10644SOL     OW33828  10.256   0.486   7.056
10644SOL    HW133829  10.348   0.506   7.038
10644SOL    HW233830  10.257   0.444   7.142
10645SOL     OW33831  11.255  14.031  10.376
10645SOL    HW133832  11.229  13.942  10.351
10645SOL    HW233833  11.344  14.022  10.409
10646SOL     OW33834   3.869  11.907   8.274
10646SOL    HW133835   3.776  11.881   8.273
10646SOL    HW233836   3.916  11.824   8.282
10647SOL     OW33837  13.064   5.881  11.940
10647SOL    HW133838  13.066   5.974  11.917
10647SOL    HW233839  12.976   5.852  11.913
10648SOL     OW33840   9.149   9.458   8.649
10648SOL    HW133841   9.090   9.436   8.577
10648SOL    HW233842   9.235   9.466   8.607
10649SOL     OW33843   4.313   3.862   9.832
10649SOL    HW133844   4.350   3.860   9.744
10649SOL    HW233845   4.237   3.804   9.828
10650SOL     OW33846   0.928   5.546   0.227
10650SOL    HW133847   0.959   5.536   0.317
10650SOL    HW233848   1.005   5.529   0.173
10651SOL     OW33849  13.215   5.087   0.731
10651SOL    HW133850  13.268   5.138   0.792
10651SOL    HW233851  13.270   5.079   0.652
10652SOL     OW33852  10.133   2.791  10.017
10652SOL    HW133853  10.083   2.860  10.060
10652SOL    HW233854  10.074   2.715  10.016
10653SOL     OW33855   5.059   0.377   4.678
10653SOL    HW133856   5.079   0.361   4.585
10653SOL    HW233857   5.136   0.345   4.725
10654SOL     OW33858   7.136   8.713   1.053
10654SOL    HW133859   7.162   8.624   1.076
10654SOL    HW233860   7.141   8.761   1.136
10655SOL     OW33861   7.091   0.196   1.661
10655SOL    HW133862   7.070   0.281   1.623
10655SOL    HW233863   7.064   0.202   1.752
10656SOL     OW33864   6.942  10.149   3.615
10656SOL    HW133865   6.888  10.187   3.683
10656SOL    HW233866   6.949  10.217   3.548
10657SOL     OW33867   9.288   2.047  11.440
10657SOL    HW133868   9.329   2.133  11.450
10657SOL    HW233869   9.358   1.984  11.459
10658SOL     OW33870   9.409   0.302  11.264
10658SOL    HW133871   9.452   0.216  11.266
10658SOL    HW233872   9.481   0.365  11.260
10659SOL     OW33873   0.538   7.525   2.207
10659SOL    HW133874   0.600   7.579   2.159
10659SOL    HW233875   0.483   7.485   2.140
10660SOL     OW33876  10.045  13.544   9.665
10660SOL    HW133877   9.965  13.502   9.634
10660SOL    HW233878  10.116  13.488   9.632
10661SOL     OW33879   3.637  13.896   9.104
10661SOL    HW133880   3.617  13.836   9.032
10661SOL    HW233881   3.595  13.978   9.078
10662SOL     OW33882   8.124  10.764  11.385
10662SOL    HW133883   8.219  10.762  11.379
10662SOL    HW233884   8.095  10.688  11.335
10663SOL     OW33885   0.534  10.996  14.173
10663SOL    HW133886   0.575  10.978  14.089
10663SOL    HW233887   0.510  11.089  14.169
10664SOL     OW33888   9.949   5.371   3.437
10664SOL    HW133889   9.998   5.289   3.443
10664SOL    HW233890  10.009   5.432   3.394
10665SOL     OW33891   2.334   9.006   1.979
10665SOL    HW133892   2.386   9.060   2.039
10665SOL    HW233893   2.279   8.953   2.037
10666SOL     OW33894   8.251   7.866  10.566
10666SOL    HW133895   8.221   7.952  10.538
10666SOL    HW233896   8.345   7.876  10.580
10667SOL     OW33897   1.422   1.980   3.617
10667SOL    HW133898   1.386   2.063   3.589
10667SOL    HW233899   1.365   1.951   3.688
10668SOL     OW33900   8.593  10.745  11.947
10668SOL    HW133901   8.522  10.754  12.010
10668SOL    HW233902   8.571  10.666  11.897
10669SOL     OW33903   4.993   1.941   5.164
10669SOL    HW133904   5.004   2.019   5.218
10669SOL    HW233905   4.902   1.945   5.134
10670SOL     OW33906  12.426   7.011   4.946
10670SOL    HW133907  12.400   7.095   4.907
10670SOL    HW233908  12.343   6.967   4.965
10671SOL     OW33909   4.224  11.645   0.197
10671SOL    HW133910   4.281  11.572   0.174
10671SOL    HW233911   4.268  11.722   0.162
10672SOL     OW33912   7.324  14.608  10.822
10672SOL    HW133913   7.317  14.610  10.727
10672SOL    HW233914   7.340  14.516  10.843
10673SOL     OW33915   4.360  10.097   3.904
10673SOL    HW133916   4.376  10.191   3.909
10673SOL    HW233917   4.266  10.090   3.887
10674SOL     OW33918   3.244  11.575  12.830
10674SOL    HW133919   3.216  11.666  12.829
10674SOL    HW233920   3.178  11.529  12.778
10675SOL     OW33921   5.750  12.838  12.823
10675SOL    HW133922   5.728  12.848  12.730
10675SOL    HW233923   5.667  12.854  12.869
10676SOL     OW33924  12.021  10.945   4.997
10676SOL    HW133925  12.099  10.920   4.949
10676SOL    HW233926  11.993  11.028   4.958
10677SOL     OW33927   0.682   1.637   6.070
10677SOL    HW133928   0.738   1.711   6.047
10677SOL    HW233929   0.721   1.562   6.025
10678SOL     OW33930   9.784   7.953   7.035
10678SOL    HW133931   9.814   8.019   7.097
10678SOL    HW233932   9.714   7.907   7.081
10679SOL     OW33933  14.773  12.039   4.771
10679SOL    HW133934  14.770  12.056   4.865
10679SOL    HW233935  14.682  12.024   4.747
10680SOL     OW33936   4.826   2.120   9.850
10680SOL    HW133937   4.890   2.106   9.921
10680SOL    HW233938   4.838   2.211   9.823
10681SOL     OW33939  12.158   3.432  11.410
10681SOL    HW133940  12.100   3.358  11.429
10681SOL    HW233941  12.148   3.448  11.316
10682SOL     OW33942   2.068   4.953  14.304
10682SOL    HW133943   2.044   4.866  14.273
10682SOL    HW233944   1.990   4.984  14.351
10683SOL     OW33945   8.257  11.709   2.383
10683SOL    HW133946   8.342  11.665   2.386
10683SOL    HW233947   8.237  11.717   2.290
10684SOL     OW33948   4.474  12.180   5.764
10684SOL    HW133949   4.434  12.095   5.746
10684SOL    HW233950   4.498  12.215   5.678
10685SOL     OW33951  14.368   5.052   2.300
10685SOL    HW133952  14.419   4.975   2.273
10685SOL    HW233953  14.371   5.050   2.395
10686SOL     OW33954   8.791   7.447  11.464
10686SOL    HW133955   8.801   7.507  11.538
10686SOL    HW233956   8.697   7.429  11.462
10687SOL     OW33957   9.086   5.477  12.787
10687SOL    HW133958   9.050   5.565  12.769
10687SOL    HW233959   9.023   5.438  12.848
10688SOL     OW33960   6.690   6.457   8.917
10688SOL    HW133961   6.595   6.467   8.918
10688SOL    HW233962   6.712   6.452   8.824
10689SOL     OW33963   1.551   5.181   4.084
10689SOL    HW133964   1.490   5.108   4.076
10689SOL    HW233965   1.496   5.255   4.112
10690SOL     OW33966  10.464  13.339   7.306
10690SOL    HW133967  10.388  13.394   7.285
10690SOL    HW233968  10.535  13.375   7.253
10691SOL     OW33969   0.237   8.688   7.607
10691SOL    HW133970   0.180   8.703   7.682
10691SOL    HW233971   0.285   8.608   7.629
10692SOL     OW33972  11.824   1.869  11.005
10692SOL    HW133973  11.801   1.835  11.091
10692SOL    HW233974  11.918   1.887  11.010
10693SOL     OW33975  10.746  14.511   0.810
10693SOL    HW133976  10.734  14.606   0.807
10693SOL    HW233977  10.683  14.476   0.747
10694SOL     OW33978   2.546   8.138  11.176
10694SOL    HW133979   2.589   8.116  11.094
10694SOL    HW233980   2.529   8.053  11.218
10695SOL     OW33981   2.563  13.571   5.695
10695SOL    HW133982   2.550  13.659   5.729
10695SOL    HW233983   2.502  13.565   5.621
10696SOL     OW33984   4.556   6.303  14.554
10696SOL    HW133985   4.529   6.336  14.639
10696SOL    HW233986   4.613   6.229  14.573
10697SOL     OW33987   4.360   0.189  11.591
10697SOL    HW133988   4.395   0.188  11.502
10697SOL    HW233989   4.412   0.124  11.638
10698SOL     OW33990   5.969   2.082   4.725
10698SOL    HW133991   5.889   2.029   4.715
10698SOL    HW233992   5.939   2.172   4.721
10699SOL     OW33993  14.065   3.495   4.969
10699SOL    HW133994  13.970   3.503   4.965
10699SOL    HW233995  14.091   3.555   5.038
10700SOL     OW33996   4.402   1.039  10.753
10700SOL    HW133997   4.309   1.048  10.731
10700SOL    HW233998   4.411   1.087  10.835
10701SOL     OW33999   8.177  13.821   9.906
10701SOL    HW134000   8.160  13.908   9.941
10701SOL    HW234001   8.242  13.836   9.836
10702SOL     OW34002   7.163  14.411  12.072
10702SOL    HW134003   7.128  14.349  12.136
10702SOL    HW234004   7.124  14.385  11.989
10703SOL     OW34005  14.862  13.178   5.886
10703SOL    HW134006  14.840  13.264   5.849
10703SOL    HW234007   0.068  13.196   5.943
10704SOL     OW34008  14.224   7.038   5.850
10704SOL    HW134009  14.159   7.082   5.903
10704SOL    HW234010  14.174   6.983   5.790
10705SOL     OW34011  14.791   7.972   5.399
10705SOL    HW134012  14.861   7.907   5.412
10705SOL    HW234013  14.791   7.990   5.305
10706SOL     OW34014   9.772  14.661  13.514
10706SOL    HW134015   9.696  14.603  13.524
10706SOL    HW234016   9.759  14.729  13.580
10707SOL     OW34017  10.312  11.244   7.770
10707SOL    HW134018  10.272  11.271   7.687
10707SOL    HW234019  10.360  11.321   7.800
10708SOL     OW34020   5.866  12.583   1.620
10708SOL    HW134021   5.931  12.556   1.684
10708SOL    HW234022   5.867  12.679   1.623
10709SOL     OW34023  13.120   5.075  14.358
10709SOL    HW134024  13.183   5.019  14.312
10709SOL    HW234025  13.051   5.015  14.386
10710SOL     OW34026   8.661   9.220   4.915
10710SOL    HW134027   8.607   9.280   4.967
10710SOL    HW234028   8.635   9.236   4.825
10711SOL     OW34029  11.198  13.715  14.819
10711SOL    HW134030  11.115  13.757  14.844
10711SOL    HW234031  11.241  13.696   0.033
10712SOL     OW34032   1.100  10.929   9.007
10712SOL    HW134033   1.130  10.851   8.959
10712SOL    HW234034   1.091  10.997   8.941
10713SOL     OW34035  13.313   4.524  11.396
10713SOL    HW134036  13.317   4.464  11.470
10713SOL    HW234037  13.220   4.532  11.377
10714SOL     OW34038   0.886  14.366   6.759
10714SOL    HW134039   0.954  14.335   6.699
10714SOL    HW234040   0.888  14.304   6.832
10715SOL     OW34041  11.654  14.851   7.652
10715SOL    HW134042  11.565   0.007   7.679
10715SOL    HW234043  11.640  14.793   7.577
10716SOL     OW34044   3.756   7.463   6.242
10716SOL    HW134045   3.848   7.469   6.267
10716SOL    HW234046   3.752   7.387   6.184
10717SOL     OW34047  13.978   1.773  11.627
10717SOL    HW134048  13.935   1.799  11.709
10717SOL    HW234049  14.019   1.689  11.647
10718SOL     OW34050   0.911   0.006   6.768
10718SOL    HW134051   0.863   0.047   6.840
10718SOL    HW234052   0.898  14.781   6.780
10719SOL     OW34053   5.621   5.595   4.049
10719SOL    HW134054   5.677   5.638   3.985
10719SOL    HW234055   5.535   5.592   4.007
10720SOL     OW34056  11.248  11.225   2.864
10720SOL    HW134057  11.262  11.150   2.922
10720SOL    HW234058  11.238  11.186   2.777
10721SOL     OW34059  14.391   5.177  11.546
10721SOL    HW134060  14.472   5.227  11.540
10721SOL    HW234061  14.394   5.136  11.632
10722SOL     OW34062   3.276  10.658   7.204
10722SOL    HW134063   3.333  10.584   7.180
10722SOL    HW234064   3.260  10.646   7.298
10723SOL     OW34065  13.651   2.441  11.699
10723SOL    HW134066  13.596   2.399  11.764
10723SOL    HW234067  13.741   2.421  11.726
10724SOL     OW34068   1.650   8.819  13.543
10724SOL    HW134069   1.632   8.789  13.454
10724SOL    HW234070   1.571   8.797  13.592
10725SOL     OW34071   0.872   5.840  12.883
10725SOL    HW134072   0.802   5.851  12.819
10725SOL    HW234073   0.899   5.749  12.875
10726SOL     OW34074  12.137   7.627   0.638
10726SOL    HW134075  12.188   7.708   0.632
10726SOL    HW234076  12.061   7.642   0.582
10727SOL     OW34077   3.533   2.649  13.868
10727SOL    HW134078   3.457   2.608  13.827
10727SOL    HW234079   3.580   2.690  13.796
10728SOL     OW34080  10.182  10.034  11.878
10728SOL    HW134081  10.148  10.086  11.805
10728SOL    HW234082  10.219  10.098  11.938
10729SOL     OW34083   3.714   6.361  13.146
10729SOL    HW134084   3.731   6.333  13.056
10729SOL    HW234085   3.699   6.455  13.139
10730SOL     OW34086   5.906   1.141   6.042
10730SOL    HW134087   5.845   1.068   6.047
10730SOL    HW234088   5.875   1.194   5.968
10731SOL     OW34089   6.924  12.894   7.609
10731SOL    HW134090   6.985  12.966   7.600
10731SOL    HW234091   6.978  12.815   7.601
10732SOL     OW34092   1.600   4.981  11.730
10732SOL    HW134093   1.620   5.072  11.751
10732SOL    HW234094   1.506   4.973  11.742
10733SOL     OW34095   8.280   3.965   3.622
10733SOL    HW134096   8.268   3.977   3.528
10733SOL    HW234097   8.251   3.876   3.640
10734SOL     OW34098   2.631   2.088  11.028
10734SOL    HW134099   2.637   2.181  11.051
10734SOL    HW234100   2.555   2.056  11.077
10735SOL     OW34101   0.015   4.387   8.304
10735SOL    HW134102   0.090   4.432   8.265
10735SOL    HW234103   0.054   4.319   8.360
10736SOL     OW34104   4.695   7.477   8.907
10736SOL    HW134105   4.745   7.424   8.844
10736SOL    HW234106   4.717   7.567   8.885
10737SOL     OW34107   2.322   6.344   3.476
10737SOL    HW134108   2.310   6.264   3.425
10737SOL    HW234109   2.352   6.314   3.562
10738SOL     OW34110   3.550   3.990  13.550
10738SOL    HW134111   3.529   3.903  13.514
10738SOL    HW234112   3.502   4.051  13.494
10739SOL     OW34113   2.141   9.564   5.519
10739SOL    HW134114   2.048   9.584   5.503
10739SOL    HW234115   2.186   9.593   5.440
10740SOL     OW34116   5.660  13.782  10.824
10740SOL    HW134117   5.600  13.728  10.772
10740SOL    HW234118   5.734  13.724  10.843
10741SOL     OW34119  12.590   0.526  12.724
10741SOL    HW134120  12.565   0.496  12.637
10741SOL    HW234121  12.685   0.520  12.725
10742SOL     OW34122  10.091   3.912   5.337
10742SOL    HW134123  10.163   3.967   5.368
10742SOL    HW234124  10.027   3.974   5.301
10743SOL     OW34125   5.082  11.397  11.570
10743SOL    HW134126   5.152  11.417  11.633
10743SOL    HW234127   5.002  11.409  11.620
10744SOL     OW34128   0.601   5.516   7.692
10744SOL    HW134129   0.680   5.537   7.642
10744SOL    HW234130   0.530   5.558   7.642
10745SOL     OW34131   5.745   2.489  10.446
10745SOL    HW134132   5.748   2.403  10.489
10745SOL    HW234133   5.698   2.545  10.507
10746SOL     OW34134   6.137  13.648   2.317
10746SOL    HW134135   6.134  13.663   2.411
10746SOL    HW234136   6.192  13.570   2.307
10747SOL     OW34137   5.129   5.819  13.103
10747SOL    HW134138   5.053   5.862  13.142
10747SOL    HW234139   5.094   5.776  13.025
10748SOL     OW34140  14.837  13.987   1.528
10748SOL    HW134141   0.006  14.063   1.485
10748SOL    HW234142   0.038  13.923   1.531
10749SOL     OW34143   1.513   6.902  10.422
10749SOL    HW134144   1.439   6.842  10.434
10749SOL    HW234145   1.474   6.990  10.429
10750SOL     OW34146  10.918   8.850  13.342
10750SOL    HW134147  10.870   8.917  13.294
10750SOL    HW234148  10.880   8.767  13.312
10751SOL     OW34149  11.307   5.138   2.959
10751SOL    HW134150  11.251   5.154   2.883
10751SOL    HW234151  11.254   5.081   3.015
10752SOL     OW34152   0.148  11.521  10.250
10752SOL    HW134153   0.150  11.591  10.315
10752SOL    HW234154   0.104  11.448  10.294
10753SOL     OW34155   5.979   0.722   3.221
10753SOL    HW134156   6.073   0.724   3.204
10753SOL    HW234157   5.940   0.690   3.140
10754SOL     OW34158   5.904   1.634  13.010
10754SOL    HW134159   5.929   1.719  12.975
10754SOL    HW234160   5.858   1.654  13.091
10755SOL     OW34161  12.959  13.814  11.904
10755SOL    HW134162  12.933  13.821  11.996
10755SOL    HW234163  13.036  13.757  11.905
10756SOL     OW34164   6.256   8.579   5.177
10756SOL    HW134165   6.178   8.537   5.141
10756SOL    HW234166   6.222   8.656   5.224
10757SOL     OW34167  13.583  13.627  10.475
10757SOL    HW134168  13.675  13.613  10.455
10757SOL    HW234169  13.582  13.656  10.566
10758SOL     OW34170   1.026   9.740   1.894
10758SOL    HW134171   1.038   9.708   1.804
10758SOL    HW234172   1.104   9.792   1.912
10759SOL     OW34173   0.224   7.586   3.399
10759SOL    HW134174   0.222   7.491   3.410
10759SOL    HW234175   0.137   7.607   3.365
10760SOL     OW34176  14.848  13.562  10.220
10760SOL    HW134177   0.062  13.576  10.176
10760SOL    HW234178  14.863  13.591  10.310
10761SOL     OW34179   2.738  10.679  12.244
10761SOL    HW134180   2.720  10.767  12.278
10761SOL    HW234181   2.833  10.672  12.244
10762SOL     OW34182   6.936  12.457   1.099
10762SOL    HW134183   6.930  12.380   1.042
10762SOL    HW234184   7.028  12.459   1.126
10763SOL     OW34185  13.536  11.608   7.338
10763SOL    HW134186  13.586  11.530   7.316
10763SOL    HW234187  13.445  11.584   7.320
10764SOL     OW34188   2.537   6.594   2.265
10764SOL    HW134189   2.457   6.623   2.308
10764SOL    HW234190   2.606   6.646   2.307
10765SOL     OW34191   2.480  13.446   1.554
10765SOL    HW134192   2.451  13.538   1.557
10765SOL    HW234193   2.437  13.410   1.476
10766SOL     OW34194  13.246   0.907   9.857
10766SOL    HW134195  13.292   0.941   9.934
10766SOL    HW234196  13.303   0.838   9.823
10767SOL     OW34197  11.759   8.120   9.673
10767SOL    HW134198  11.684   8.084   9.720
10767SOL    HW234199  11.720   8.173   9.603
10768SOL     OW34200  12.291  13.754   2.172
10768SOL    HW134201  12.347  13.725   2.101
10768SOL    HW234202  12.237  13.823   2.134
10769SOL     OW34203   2.717   8.954  11.971
10769SOL    HW134204   2.800   9.002  11.963
10769SOL    HW234205   2.664   8.986  11.899
10770SOL     OW34206  12.416   6.206   7.973
10770SOL    HW134207  12.486   6.142   7.966
10770SOL    HW234208  12.385   6.219   7.883
10771SOL     OW34209  13.440  14.584  13.119
10771SOL    HW134210  13.384  14.548  13.051
10771SOL    HW234211  13.502  14.514  13.139
10772SOL     OW34212   2.389   7.688   9.811
10772SOL    HW134213   2.398   7.780   9.835
10772SOL    HW234214   2.478   7.657   9.796
10773SOL     OW34215  10.301   2.296  14.680
10773SOL    HW134216  10.293   2.335  14.593
10773SOL    HW234217  10.251   2.215  14.675
10774SOL     OW34218   3.230   6.964   4.939
10774SOL    HW134219   3.173   6.912   4.996
10774SOL    HW234220   3.217   7.054   4.969
10775SOL     OW34221   3.099   7.848   2.124
10775SOL    HW134222   3.047   7.835   2.204
10775SOL    HW234223   3.146   7.930   2.139
10776SOL     OW34224   9.094   4.427   9.533
10776SOL    HW134225   9.030   4.400   9.599
10776SOL    HW234226   9.047   4.420   9.450
10777SOL     OW34227  10.024  12.106  11.934
10777SOL    HW134228  10.076  12.176  11.973
10777SOL    HW234229  10.034  12.032  11.994
10778SOL     OW34230   4.770   0.062   7.074
10778SOL    HW134231   4.820  14.852   7.054
10778SOL    HW234232   4.763   0.108   6.991
10779SOL     OW34233  12.728  10.133   9.450
10779SOL    HW134234  12.651  10.087   9.484
10779SOL    HW234235  12.801  10.075   9.471
10780SOL     OW34236   3.525   7.040   0.108
10780SOL    HW134237   3.463   7.094   0.157
10780SOL    HW234238   3.487   7.033   0.020
10781SOL     OW34239   5.687   5.097   1.150
10781SOL    HW134240   5.693   5.170   1.089
10781SOL    HW234241   5.760   5.111   1.211
10782SOL     OW34242   2.187   1.220  10.120
10782SOL    HW134243   2.246   1.279  10.167
10782SOL    HW234244   2.187   1.139  10.172
10783SOL     OW34245   6.019   6.217   0.933
10783SOL    HW134246   6.048   6.280   0.999
10783SOL    HW234247   6.020   6.267   0.851
10784SOL     OW34248   7.170   9.105   3.747
10784SOL    HW134249   7.110   9.039   3.780
10784SOL    HW234250   7.255   9.060   3.742
10785SOL     OW34251  12.801  12.684  11.389
10785SOL    HW134252  12.740  12.660  11.459
10785SOL    HW234253  12.800  12.779  11.388
10786SOL     OW34254  14.708   7.620  12.659
10786SOL    HW134255  14.631   7.569  12.635
10786SOL    HW234256  14.732   7.667  12.580
10787SOL     OW34257   3.411   2.125  13.713
10787SOL    HW134258   3.441   2.206  13.755
10787SOL    HW234259   3.481   2.062  13.729
10788SOL     OW34260   6.865  12.321   7.731
10788SOL    HW134261   6.805  12.281   7.793
10788SOL    HW234262   6.940  12.349   7.784
10789SOL     OW34263   9.876   7.427   6.333
10789SOL    HW134264   9.809   7.491   6.310
10789SOL    HW234265   9.949   7.447   6.275
10790SOL     OW34266  10.718   3.894   9.280
10790SOL    HW134267  10.635   3.867   9.240
10790SOL    HW234268  10.784   3.880   9.212
10791SOL     OW34269   6.777   7.619   5.789
10791SOL    HW134270   6.781   7.704   5.745
10791SOL    HW234271   6.737   7.561   5.724
10792SOL     OW34272   0.268   8.311   2.461
10792SOL    HW134273   0.238   8.323   2.551
10792SOL    HW234274   0.325   8.234   2.464
10793SOL     OW34275   5.029   8.073   7.756
10793SOL    HW134276   5.009   8.090   7.848
10793SOL    HW234277   4.947   8.092   7.710
10794SOL     OW34278  12.821   4.266  11.545
10794SOL    HW134279  12.887   4.270  11.613
10794SOL    HW234280  12.801   4.358  11.526
10795SOL     OW34281   6.126  10.273   3.058
10795SOL    HW134282   6.053  10.290   2.998
10795SOL    HW234283   6.114  10.182   3.086
10796SOL     OW34284   0.115  14.128   5.757
10796SOL    HW134285   0.158  14.210   5.779
10796SOL    HW234286   0.145  14.066   5.823
10797SOL     OW34287   2.590   5.123   2.021
10797SOL    HW134288   2.615   5.122   1.928
10797SOL    HW234289   2.521   5.189   2.026
10798SOL     OW34290  13.749  12.271   1.716
10798SOL    HW134291  13.730  12.354   1.672
10798SOL    HW234292  13.768  12.210   1.645
10799SOL     OW34293   7.168   6.280   5.259
10799SOL    HW134294   7.104   6.260   5.327
10799SOL    HW234295   7.224   6.203   5.255
10800SOL     OW34296  12.799   1.678  11.056
10800SOL    HW134297  12.768   1.701  11.143
10800SOL    HW234298  12.874   1.620  11.072
10801SOL     OW34299   0.002   5.185  12.586
10801SOL    HW134300   0.095   5.208  12.583
10801SOL    HW234301  14.826   5.269  12.572
10802SOL     OW34302   3.914   7.647   9.117
10802SOL    HW134303   3.924   7.650   9.022
10802SOL    HW234304   3.992   7.691   9.151
10803SOL     OW34305   9.407   2.407  10.856
10803SOL    HW134306   9.457   2.332  10.888
10803SOL    HW234307   9.444   2.482  10.902
10804SOL     OW34308   9.467   6.213  13.088
10804SOL    HW134309   9.442   6.121  13.086
10804SOL    HW234310   9.537   6.221  13.023
10805SOL     OW34311   9.576   9.983  12.776
10805SOL    HW134312   9.668   9.992  12.749
10805SOL    HW234313   9.548  10.072  12.797
10806SOL     OW34314   2.245   7.688   7.503
10806SOL    HW134315   2.187   7.729   7.438
10806SOL    HW234316   2.207   7.712   7.587
10807SOL     OW34317   2.223   0.063   3.041
10807SOL    HW134318   2.273   0.031   2.965
10807SOL    HW234319   2.263   0.019   3.116
10808SOL     OW34320  12.067   9.548   8.982
10808SOL    HW134321  11.990   9.568   8.929
10808SOL    HW234322  12.033   9.504   9.059
10809SOL     OW34323   6.221  12.756   5.747
10809SOL    HW134324   6.189  12.843   5.772
10809SOL    HW234325   6.278  12.773   5.672
10810SOL     OW34326   7.337  13.988   9.388
10810SOL    HW134327   7.380  13.924   9.445
10810SOL    HW234328   7.285  14.042   9.446
10811SOL     OW34329   8.514   2.744   0.730
10811SOL    HW134330   8.442   2.682   0.720
10811SOL    HW234331   8.532   2.775   0.642
10812SOL     OW34332  11.968  12.145   6.601
10812SOL    HW134333  11.954  12.118   6.692
10812SOL    HW234334  11.890  12.195   6.578
10813SOL     OW34335  12.591   0.393  14.438
10813SOL    HW134336  12.570   0.461  14.373
10813SOL    HW234337  12.664   0.345  14.399
10814SOL     OW34338  12.477  12.343   6.751
10814SOL    HW134339  12.492  12.396   6.673
10814SOL    HW234340  12.523  12.390   6.821
10815SOL     OW34341   7.064   9.750  14.626
10815SOL    HW134342   7.159   9.741  14.632
10815SOL    HW234343   7.046   9.755  14.532
10816SOL     OW34344   0.836   0.206   5.748
10816SOL    HW134345   0.873   0.235   5.665
10816SOL    HW234346   0.742   0.213   5.736
10817SOL     OW34347   1.396   5.618  11.310
10817SOL    HW134348   1.380   5.657  11.224
10817SOL    HW234349   1.349   5.676  11.371
10818SOL     OW34350   0.918  14.369   5.371
10818SOL    HW134351   0.954  14.350   5.284
10818SOL    HW234352   0.993  14.403   5.420
10819SOL     OW34353   0.711  11.511  14.170
10819SOL    HW134354   0.735  11.482  14.082
10819SOL    HW234355   0.786  11.562  14.200
10820SOL     OW34356  13.764  11.160  13.928
10820SOL    HW134357  13.796  11.070  13.936
10820SOL    HW234358  13.837  11.208  13.888
10821SOL     OW34359   7.285   2.713   4.657
10821SOL    HW134360   7.330   2.792   4.625
10821SOL    HW234361   7.356   2.652   4.677
10822SOL     OW34362   2.358  10.177   9.691
10822SOL    HW134363   2.430  10.162   9.753
10822SOL    HW234364   2.338  10.270   9.701
10823SOL     OW34365   0.423   5.095   5.753
10823SOL    HW134366   0.413   5.007   5.791
10823SOL    HW234367   0.495   5.134   5.802
10824SOL     OW34368   4.839   7.855   2.443
10824SOL    HW134369   4.864   7.780   2.388
10824SOL    HW234370   4.881   7.930   2.402
10825SOL     OW34371  10.565   7.536   6.406
10825SOL    HW134372  10.491   7.507   6.353
10825SOL    HW234373  10.531   7.542   6.495
10826SOL     OW34374   9.652   2.087   4.784
10826SOL    HW134375   9.570   2.045   4.759
10826SOL    HW234376   9.630   2.140   4.861
10827SOL     OW34377   8.271   3.318   6.565
10827SOL    HW134378   8.344   3.266   6.599
10827SOL    HW234379   8.308   3.405   6.551
10828SOL     OW34380  11.914  10.930   1.078
10828SOL    HW134381  11.939  10.980   1.001
10828SOL    HW234382  11.985  10.868   1.090
10829SOL     OW34383   3.171  13.768  10.033
10829SOL    HW134384   3.246  13.715  10.062
10829SOL    HW234385   3.113  13.772  10.109
10830SOL     OW34386   8.684  10.719  12.446
10830SOL    HW134387   8.678  10.814  12.444
10830SOL    HW234388   8.718  10.695  12.360
10831SOL     OW34389   3.547  11.527   7.098
10831SOL    HW134390   3.455  11.553   7.091
10831SOL    HW234391   3.570  11.495   7.011
10832SOL     OW34392  12.604   7.312  10.307
10832SOL    HW134393  12.563   7.239  10.352
10832SOL    HW234394  12.675   7.339  10.365
10833SOL     OW34395  11.334   1.047   1.688
10833SOL    HW134396  11.280   0.969   1.680
10833SOL    HW234397  11.271   1.119   1.697
10834SOL     OW34398  10.786   7.102   0.961
10834SOL    HW134399  10.839   7.166   1.008
10834SOL    HW234400  10.851   7.042   0.922
10835SOL     OW34401   4.041   1.568  11.696
10835SOL    HW134402   4.030   1.595  11.787
10835SOL    HW234403   4.033   1.473  11.698
10836SOL     OW34404  11.149   2.025  11.266
10836SOL    HW134405  11.220   2.053  11.324
10836SOL    HW234406  11.069   2.042  11.316
10837SOL     OW34407   7.808   1.162   0.521
10837SOL    HW134408   7.766   1.224   0.462
10837SOL    HW234409   7.745   1.151   0.592
10838SOL     OW34410   9.489   3.151   4.275
10838SOL    HW134411   9.507   3.146   4.181
10838SOL    HW234412   9.575   3.155   4.316
10839SOL     OW34413  14.538  11.471   9.371
10839SOL    HW134414  14.448  11.489   9.346
10839SOL    HW234415  14.569  11.553   9.411
10840SOL     OW34416   6.795   2.579   3.042
10840SOL    HW134417   6.853   2.655   3.046
10840SOL    HW234418   6.716   2.608   3.088
10841SOL     OW34419   9.548   6.964   4.790
10841SOL    HW134420   9.611   6.943   4.720
10841SOL    HW234421   9.597   6.951   4.871
10842SOL     OW34422   4.001   0.387  14.066
10842SOL    HW134423   4.001   0.307  14.118
10842SOL    HW234424   3.933   0.442  14.107
10843SOL     OW34425   1.716  12.601   8.177
10843SOL    HW134426   1.740  12.646   8.096
10843SOL    HW234427   1.622  12.614   8.185
10844SOL     OW34428  13.709   8.393  12.945
10844SOL    HW134429  13.657   8.374  12.868
10844SOL    HW234430  13.796   8.415  12.911
10845SOL     OW34431   8.563   8.265   7.378
10845SOL    HW134432   8.634   8.267   7.314
10845SOL    HW234433   8.587   8.193   7.437
10846SOL     OW34434   4.631  10.561   2.831
10846SOL    HW134435   4.645  10.476   2.789
10846SOL    HW234436   4.675  10.554   2.915
10847SOL     OW34437   5.117   0.474   9.738
10847SOL    HW134438   5.105   0.554   9.686
10847SOL    HW234439   5.047   0.416   9.709
10848SOL     OW34440   8.909  12.602   4.087
10848SOL    HW134441   8.930  12.583   3.996
10848SOL    HW234442   8.960  12.538   4.137
10849SOL     OW34443  11.902  12.061   3.677
10849SOL    HW134444  11.913  11.966   3.667
10849SOL    HW234445  11.983  12.090   3.720
10850SOL     OW34446   0.694   1.331   7.562
10850SOL    HW134447   0.706   1.237   7.548
10850SOL    HW234448   0.612   1.337   7.611
10851SOL     OW34449   3.189   3.091   3.833
10851SOL    HW134450   3.247   3.072   3.907
10851SOL    HW234451   3.231   3.165   3.789
10852SOL     OW34452   7.520  12.623   3.099
10852SOL    HW134453   7.554  12.646   3.012
10852SOL    HW234454   7.560  12.538   3.119
10853SOL     OW34455  10.388   4.078  13.796
10853SOL    HW134456  10.391   4.104  13.704
10853SOL    HW234457  10.446   4.003  13.802
10854SOL     OW34458   6.060  13.224   9.553
10854SOL    HW134459   6.090  13.140   9.588
10854SOL    HW234460   6.074  13.217   9.459
10855SOL     OW34461   7.797  12.776   5.418
10855SOL    HW134462   7.841  12.851   5.377
10855SOL    HW234463   7.748  12.736   5.347
10856SOL     OW34464   6.006   9.455   9.826
10856SOL    HW134465   6.050   9.382   9.782
10856SOL    HW234466   5.970   9.417   9.906
10857SOL     OW34467  12.461   3.627   5.852
10857SOL    HW134468  12.421   3.679   5.782
10857SOL    HW234469  12.425   3.663   5.933
10858SOL     OW34470   2.055  12.726   2.718
10858SOL    HW134471   2.009  12.689   2.794
10858SOL    HW234472   2.141  12.751   2.752
10859SOL     OW34473   8.527   2.473   7.588
10859SOL    HW134474   8.548   2.566   7.596
10859SOL    HW234475   8.509   2.460   7.495
10860SOL     OW34476   2.423   6.243   3.971
10860SOL    HW134477   2.410   6.316   4.032
10860SOL    HW234478   2.473   6.282   3.899
10861SOL     OW34479  10.717   1.972   5.742
10861SOL    HW134480  10.626   1.996   5.724
10861SOL    HW234481  10.747   2.036   5.806
10862SOL     OW34482   9.745   6.752  11.580
10862SOL    HW134483   9.738   6.835  11.532
10862SOL    HW234484   9.773   6.688  11.514
10863SOL     OW34485   2.668   7.089  11.347
10863SOL    HW134486   2.655   7.003  11.388
10863SOL    HW234487   2.687   7.148  11.420
10864SOL     OW34488   4.326   2.571   1.902
10864SOL    HW134489   4.397   2.626   1.868
10864SOL    HW234490   4.248   2.625   1.893
10865SOL     OW34491   6.001   1.061   6.513
10865SOL    HW134492   5.970   1.125   6.450
10865SOL    HW234493   6.065   1.108   6.566
10866SOL     OW34494  14.292   3.500   7.932
10866SOL    HW134495  14.248   3.579   7.900
10866SOL    HW234496  14.272   3.499   8.026
10867SOL     OW34497   1.746  14.511   1.402
10867SOL    HW134498   1.690  14.554   1.465
10867SOL    HW234499   1.788  14.440   1.451
10868SOL     OW34500   5.883  11.265  10.528
10868SOL    HW134501   5.970  11.298  10.504
10868SOL    HW234502   5.899  11.204  10.600
10869SOL     OW34503   2.383   5.746   8.481
10869SOL    HW134504   2.436   5.721   8.404
10869SOL    HW234505   2.316   5.804   8.445
10870SOL     OW34506   0.422   8.802   1.503
10870SOL    HW134507   0.441   8.778   1.412
10870SOL    HW234508   0.352   8.741   1.529
10871SOL     OW34509  13.773   0.824  12.535
10871SOL    HW134510  13.755   0.862  12.449
10871SOL    HW234511  13.735   0.885  12.597
10872SOL     OW34512  10.333   5.392   5.630
10872SOL    HW134513  10.323   5.328   5.559
10872SOL    HW234514  10.248   5.435   5.636
10873SOL     OW34515  11.291   3.145   6.122
10873SOL    HW134516  11.336   3.107   6.198
10873SOL    HW234517  11.210   3.180   6.158
10874SOL     OW34518   4.293   7.805   9.757
10874SOL    HW134519   4.306   7.752   9.836
10874SOL    HW234520   4.374   7.856   9.749
10875SOL     OW34521   5.316   3.498   2.188
10875SOL    HW134522   5.393   3.547   2.159
10875SOL    HW234523   5.271   3.556   2.248
10876SOL     OW34524   4.284  14.036  11.137
10876SOL    HW134525   4.372  14.055  11.168
10876SOL    HW234526   4.285  13.942  11.119
10877SOL     OW34527   1.495   6.211  10.961
10877SOL    HW134528   1.559   6.165  10.906
10877SOL    HW234529   1.447   6.141  11.005
10878SOL     OW34530  10.619   6.261  10.574
10878SOL    HW134531  10.589   6.259  10.483
10878SOL    HW234532  10.597   6.174  10.608
10879SOL     OW34533   8.613  13.027  11.674
10879SOL    HW134534   8.527  13.061  11.649
10879SOL    HW234535   8.661  13.103  11.707
10880SOL     OW34536   7.976   1.585   9.453
10880SOL    HW134537   7.915   1.515   9.479
10880SOL    HW234538   8.049   1.577   9.515
10881SOL     OW34539   7.292  14.842  12.870
10881SOL    HW134540   7.294  14.836  12.966
10881SOL    HW234541   7.200  14.858  12.849
10882SOL     OW34542   1.814   5.190   4.140
10882SOL    HW134543   1.779   5.276   4.116
10882SOL    HW234544   1.742   5.147   4.185
10883SOL     OW34545   8.256   2.262   9.599
10883SOL    HW134546   8.234   2.270   9.507
10883SOL    HW234547   8.350   2.242   9.600
10884SOL     OW34548  10.118  10.402  12.182
10884SOL    HW134549  10.072  10.354  12.113
10884SOL    HW234550  10.186  10.450  12.135
10885SOL     OW34551  12.009  10.498   9.919
10885SOL    HW134552  12.094  10.453   9.917
10885SOL    HW234553  12.027  10.584   9.880
10886SOL     OW34554   4.628   5.009   6.216
10886SOL    HW134555   4.560   5.068   6.183
10886SOL    HW234556   4.589   4.922   6.212
10887SOL     OW34557  11.574   8.550  14.847
10887SOL    HW134558  11.575   8.482  14.781
10887SOL    HW234559  11.656   8.539   0.025
10888SOL     OW34560   2.661  13.930   8.538
10888SOL    HW134561   2.705  13.893   8.615
10888SOL    HW234562   2.573  13.894   8.542
10889SOL     OW34563  14.144   9.603   4.873
10889SOL    HW134564  14.234   9.625   4.853
10889SOL    HW234565  14.132   9.631   4.964
10890SOL     OW34566   5.491   1.950   0.287
10890SOL    HW134567   5.521   1.904   0.365
10890SOL    HW234568   5.450   1.882   0.233
10891SOL     OW34569   4.035   9.151   5.228
10891SOL    HW134570   3.956   9.175   5.179
10891SOL    HW234571   4.090   9.107   5.163
10892SOL     OW34572   4.478  11.186   4.745
10892SOL    HW134573   4.465  11.142   4.829
10892SOL    HW234574   4.547  11.250   4.763
10893SOL     OW34575  14.549   7.540  11.249
10893SOL    HW134576  14.609   7.534  11.175
10893SOL    HW234577  14.597   7.590  11.315
10894SOL     OW34578   6.132   9.191  11.147
10894SOL    HW134579   6.082   9.271  11.127
10894SOL    HW234580   6.192   9.218  11.217
10895SOL     OW34581  12.006   3.095   5.971
10895SOL    HW134582  11.925   3.116   5.926
10895SOL    HW234583  12.074   3.142   5.923
10896SOL     OW34584   1.995   8.442   4.693
10896SOL    HW134585   2.067   8.469   4.750
10896SOL    HW234586   1.916   8.473   4.738
10897SOL     OW34587  14.001   6.237  14.813
10897SOL    HW134588  13.907   6.229  14.825
10897SOL    HW234589  14.037   6.157  14.850
10898SOL     OW34590   9.942  13.143   6.402
10898SOL    HW134591   9.975  13.197   6.475
10898SOL    HW234592  10.013  13.144   6.338
10899SOL     OW34593   0.987   5.191   7.818
10899SOL    HW134594   0.975   5.275   7.862
10899SOL    HW234595   1.061   5.151   7.861
10900SOL     OW34596   3.554   3.122   9.149
10900SOL    HW134597   3.494   3.196   9.143
10900SOL    HW234598   3.497   3.045   9.141
10901SOL     OW34599   8.705   1.315  12.336
10901SOL    HW134600   8.666   1.266  12.409
10901SOL    HW234601   8.630   1.341  12.282
10902SOL     OW34602   8.847  12.692   6.052
10902SOL    HW134603   8.937  12.662   6.061
10902SOL    HW234604   8.804  12.624   6.000
10903SOL     OW34605  11.722  14.005  14.286
10903SOL    HW134606  11.780  13.979  14.214
10903SOL    HW234607  11.781  14.028  14.358
10904SOL     OW34608   6.928   5.825  13.701
10904SOL    HW134609   6.836   5.804  13.685
10904SOL    HW234610   6.948   5.782  13.784
10905SOL     OW34611   4.315   9.840   5.857
10905SOL    HW134612   4.408   9.831   5.878
10905SOL    HW234613   4.269   9.798   5.930
10906SOL     OW34614   5.938   5.452   5.815
10906SOL    HW134615   5.880   5.494   5.878
10906SOL    HW234616   5.939   5.360   5.841
10907SOL     OW34617   5.837  12.899   7.708
10907SOL    HW134618   5.905  12.910   7.775
10907SOL    HW234619   5.757  12.880   7.758
10908SOL     OW34620   9.183   0.034  13.979
10908SOL    HW134621   9.242   0.003  14.048
10908SOL    HW234622   9.202  14.846  13.905
10909SOL     OW34623  14.232   5.415   4.318
10909SOL    HW134624  14.298   5.407   4.388
10909SOL    HW234625  14.149   5.422   4.365
10910SOL     OW34626  10.879   1.306  14.803
10910SOL    HW134627  10.816   1.257  14.857
10910SOL    HW234628  10.923   1.240  14.751
10911SOL     OW34629  11.689   9.858   9.069
10911SOL    HW134630  11.717   9.810   9.147
10911SOL    HW234631  11.600   9.887   9.090
10912SOL     OW34632   4.743   9.132   0.581
10912SOL    HW134633   4.715   9.122   0.490
10912SOL    HW234634   4.726   9.224   0.601
10913SOL     OW34635  11.832  10.489   3.018
10913SOL    HW134636  11.745  10.448   3.022
10913SOL    HW234637  11.889  10.419   2.986
10914SOL     OW34638   2.950  11.085  10.201
10914SOL    HW134639   2.924  11.095  10.292
10914SOL    HW234640   2.870  11.104  10.151
10915SOL     OW34641  12.626   5.758   5.151
10915SOL    HW134642  12.715   5.787   5.169
10915SOL    HW234643  12.570   5.817   5.202
10916SOL     OW34644  12.025   2.259   1.559
10916SOL    HW134645  12.071   2.342   1.540
10916SOL    HW234646  11.992   2.230   1.474
10917SOL     OW34647   8.138   3.122  11.299
10917SOL    HW134648   8.107   3.080  11.219
10917SOL    HW234649   8.220   3.165  11.274
10918SOL     OW34650  12.505   7.618  12.838
10918SOL    HW134651  12.508   7.702  12.884
10918SOL    HW234652  12.486   7.641  12.747
10919SOL     OW34653   1.667  14.098   1.671
10919SOL    HW134654   1.748  14.114   1.718
10919SOL    HW234655   1.670  14.005   1.648
10920SOL     OW34656   0.019   5.994   8.342
10920SOL    HW134657   0.041   5.909   8.305
10920SOL    HW234658  14.797   5.985   8.369
10921SOL     OW34659   4.399   8.922   5.420
10921SOL    HW134660   4.491   8.927   5.445
10921SOL    HW234661   4.354   8.980   5.483
10922SOL     OW34662   0.236   8.912   0.474
10922SOL    HW134663   0.245   8.823   0.440
10922SOL    HW234664   0.294   8.965   0.418
10923SOL     OW34665   3.846   6.197   9.403
10923SOL    HW134666   3.878   6.251   9.475
10923SOL    HW234667   3.908   6.124   9.399
10924SOL     OW34668  12.576   3.234   9.738
10924SOL    HW134669  12.545   3.189   9.660
10924SOL    HW234670  12.616   3.314   9.706
10925SOL     OW34671  14.723  12.922   5.889
10925SOL    HW134672  14.741  13.016   5.903
10925SOL    HW234673  14.768  12.901   5.807
10926SOL     OW34674  13.358  13.565   6.375
10926SOL    HW134675  13.341  13.485   6.325
10926SOL    HW234676  13.381  13.535   6.462
10927SOL     OW34677  11.364  11.382   8.573
10927SOL    HW134678  11.385  11.292   8.548
10927SOL    HW234679  11.302  11.410   8.506
10928SOL     OW34680   7.525   9.900   2.034
10928SOL    HW134681   7.479   9.852   2.103
10928SOL    HW234682   7.479   9.875   1.953
10929SOL     OW34683   3.890   1.852   0.750
10929SOL    HW134684   3.875   1.930   0.696
10929SOL    HW234685   3.846   1.873   0.833
10930SOL     OW34686   9.771   7.327   6.641
10930SOL    HW134687   9.690   7.298   6.600
10930SOL    HW234688   9.761   7.303   6.733
10931SOL     OW34689   5.639   6.210   4.810
10931SOL    HW134690   5.582   6.259   4.868
10931SOL    HW234691   5.580   6.160   4.754
10932SOL     OW34692   7.671  14.271  12.791
10932SOL    HW134693   7.644  14.356  12.758
10932SOL    HW234694   7.766  14.274  12.793
10933SOL     OW34695   1.336  12.281  14.571
10933SOL    HW134696   1.404  12.349  14.573
10933SOL    HW234697   1.376  12.206  14.614
10934SOL     OW34698   4.551   6.077  13.396
10934SOL    HW134699   4.521   6.134  13.466
10934SOL    HW234700   4.594   6.135  13.334
10935SOL     OW34701   3.833   6.339   7.364
10935SOL    HW134702   3.911   6.374   7.407
10935SOL    HW234703   3.768   6.331   7.433
10936SOL     OW34704  11.776  13.530  13.792
10936SOL    HW134705  11.857  13.484  13.770
10936SOL    HW234706  11.718  13.511  13.718
10937SOL     OW34707   3.544   9.986  11.085
10937SOL    HW134708   3.594   9.972  11.005
10937SOL    HW234709   3.452   9.975  11.059
10938SOL     OW34710   3.270   0.349   2.471
10938SOL    HW134711   3.208   0.289   2.512
10938SOL    HW234712   3.342   0.294   2.442
10939SOL     OW34713   5.365  14.581  13.930
10939SOL    HW134714   5.360  14.516  14.000
10939SOL    HW234715   5.275  14.592  13.901
10940SOL     OW34716   6.132  13.906   4.193
10940SOL    HW134717   6.079  13.838   4.235
10940SOL    HW234718   6.109  13.987   4.239
10941SOL     OW34719   8.105  12.477   8.498
10941SOL    HW134720   8.193  12.483   8.536
10941SOL    HW234721   8.118  12.494   8.405
10942SOL     OW34722   1.501  11.164  12.972
10942SOL    HW134723   1.449  11.117  13.037
10942SOL    HW234724   1.529  11.244  13.017
10943SOL     OW34725   0.282   0.486   3.118
10943SOL    HW134726   0.363   0.535   3.102
10943SOL    HW234727   0.214   0.540   3.078
10944SOL     OW34728  14.395   6.344   2.742
10944SOL    HW134729  14.446   6.347   2.824
10944SOL    HW234730  14.408   6.431   2.704
10945SOL     OW34731   7.339   3.745   8.719
10945SOL    HW134732   7.309   3.762   8.630
10945SOL    HW234733   7.327   3.651   8.731
10946SOL     OW34734   7.457   9.949   1.743
10946SOL    HW134735   7.443   9.863   1.705
10946SOL    HW234736   7.371   9.990   1.743
10947SOL     OW34737   0.808   2.893   9.658
10947SOL    HW134738   0.830   2.937   9.741
10947SOL    HW234739   0.742   2.950   9.618
10948SOL     OW34740   9.160   9.466   6.674
10948SOL    HW134741   9.215   9.388   6.685
10948SOL    HW234742   9.212   9.537   6.712
10949SOL     OW34743   3.996   3.758   5.632
10949SOL    HW134744   3.954   3.832   5.677
10949SOL    HW234745   4.035   3.707   5.703
10950SOL     OW34746  10.306   6.837  14.412
10950SOL    HW134747  10.305   6.857  14.319
10950SOL    HW234748  10.316   6.741  14.415
10951SOL     OW34749   8.714  10.081   3.996
10951SOL    HW134750   8.657  10.153   4.024
10951SOL    HW234751   8.686  10.007   4.050
10952SOL     OW34752  14.102   6.870   5.697
10952SOL    HW134753  14.132   6.785   5.666
10952SOL    HW234754  14.019   6.851   5.742
10953SOL     OW34755   2.783  11.836   5.583
10953SOL    HW134756   2.853  11.780   5.617
10953SOL    HW234757   2.800  11.922   5.622
10954SOL     OW34758   7.338   0.280   1.980
10954SOL    HW134759   7.374   0.194   2.001
10954SOL    HW234760   7.245   0.265   1.970
10955SOL     OW34761  10.083  11.270   2.379
10955SOL    HW134762   9.992  11.277   2.348
10955SOL    HW234763  10.090  11.335   2.448
10956SOL     OW34764  10.550  11.516  13.025
10956SOL    HW134765  10.590  11.562  12.951
10956SOL    HW234766  10.457  11.540  13.021
10957SOL     OW34767  14.148   1.060   1.695
10957SOL    HW134768  14.136   1.136   1.752
10957SOL    HW234769  14.061   1.021   1.687
10958SOL     OW34770  13.329   1.863  10.324
10958SOL    HW134771  13.318   1.849  10.418
10958SOL    HW234772  13.251   1.913  10.298
10959SOL     OW34773  10.812   6.649  11.089
10959SOL    HW134774  10.718   6.661  11.102
10959SOL    HW234775  10.833   6.707  11.015
10960SOL     OW34776   1.463   4.623   4.012
10960SOL    HW134777   1.497   4.623   3.922
10960SOL    HW234778   1.541   4.631   4.067
10961SOL     OW34779   4.579   0.173   0.664
10961SOL    HW134780   4.496   0.126   0.652
10961SOL    HW234781   4.609   0.192   0.575
10962SOL     OW34782   4.214   6.408  13.492
10962SOL    HW134783   4.184   6.487  13.536
10962SOL    HW234784   4.272   6.365  13.556
10963SOL     OW34785   5.626  12.535   3.809
10963SOL    HW134786   5.719  12.519   3.792
10963SOL    HW234787   5.587  12.542   3.722
10964SOL     OW34788   3.057   2.635  10.808
10964SOL    HW134789   3.090   2.628  10.719
10964SOL    HW234790   2.982   2.695  10.802
10965SOL     OW34791  10.045   8.006  13.830
10965SOL    HW134792  10.096   8.087  13.831
10965SOL    HW234793   9.975   8.023  13.767
10966SOL     OW34794  13.576   7.056   5.765
10966SOL    HW134795  13.670   7.066   5.749
10966SOL    HW234796  13.543   7.146   5.767
10967SOL     OW34797   2.445   3.324   3.108
10967SOL    HW134798   2.409   3.237   3.127
10967SOL    HW234799   2.509   3.309   3.039
10968SOL     OW34800  12.222   6.566  11.595
10968SOL    HW134801  12.251   6.628  11.527
10968SOL    HW234802  12.158   6.511  11.551
10969SOL     OW34803   7.764   5.216  13.077
10969SOL    HW134804   7.814   5.195  12.998
10969SOL    HW234805   7.758   5.133  13.124
10970SOL     OW34806   4.274  13.100  12.465
10970SOL    HW134807   4.292  13.194  12.475
10970SOL    HW234808   4.360  13.059  12.468
10971SOL     OW34809  14.081  14.440   7.619
10971SOL    HW134810  14.000  14.436   7.671
10971SOL    HW234811  14.086  14.354   7.577
10972SOL     OW34812  13.508  10.204  11.589
10972SOL    HW134813  13.495  10.298  11.591
10972SOL    HW234814  13.429  10.168  11.629
10973SOL     OW34815   5.874  11.680  13.715
10973SOL    HW134816   5.920  11.607  13.756
10973SOL    HW234817   5.781  11.662  13.732
10974SOL     OW34818   1.984  10.161   3.571
10974SOL    HW134819   1.949  10.078   3.601
10974SOL    HW234820   1.907  10.216   3.555
10975SOL     OW34821   1.356   6.870   0.581
10975SOL    HW134822   1.269   6.886   0.617
10975SOL    HW234823   1.341   6.855   0.487
10976SOL     OW34824  14.564  14.105   0.646
10976SOL    HW134825  14.483  14.148   0.620
10976SOL    HW234826  14.536  14.032   0.702
10977SOL     OW34827   2.914  12.772  10.906
10977SOL    HW134828   2.892  12.697  10.851
10977SOL    HW234829   2.852  12.767  10.979
10978SOL     OW34830   3.222   5.366  11.310
10978SOL    HW134831   3.213   5.284  11.262
10978SOL    HW234832   3.275   5.343  11.387
10979SOL     OW34833   4.261  10.789  14.572
10979SOL    HW134834   4.279  10.849  14.644
10979SOL    HW234835   4.169  10.803  14.551
10980SOL     OW34836   1.580  13.444   2.336
10980SOL    HW134837   1.674  13.430   2.323
10980SOL    HW234838   1.570  13.453   2.431
10981SOL     OW34839   7.618   9.900   5.410
10981SOL    HW134840   7.575   9.915   5.326
10981SOL    HW234841   7.606   9.806   5.427
10982SOL     OW34842   7.493  10.306  10.825
10982SOL    HW134843   7.553  10.232  10.829
10982SOL    HW234844   7.540  10.377  10.869
10983SOL     OW34845  11.795   1.304  14.161
10983SOL    HW134846  11.784   1.399  14.169
10983SOL    HW234847  11.705   1.269  14.163
10984SOL     OW34848  11.661   0.717   0.672
10984SOL    HW134849  11.658   0.717   0.577
10984SOL    HW234850  11.752   0.737   0.693
10985SOL     OW34851   6.415  14.599  11.216
10985SOL    HW134852   6.457  14.575  11.133
10985SOL    HW234853   6.484  14.588  11.281
10986SOL     OW34854   2.740   9.276   7.795
10986SOL    HW134855   2.802   9.292   7.866
10986SOL    HW234856   2.792   9.284   7.715
10987SOL     OW34857  10.373   5.793   7.657
10987SOL    HW134858  10.335   5.726   7.713
10987SOL    HW234859  10.467   5.777   7.662
10988SOL     OW34860  10.612   3.348   5.684
10988SOL    HW134861  10.700   3.324   5.655
10988SOL    HW234862  10.574   3.395   5.610
10989SOL     OW34863   0.797   4.493   0.990
10989SOL    HW134864   0.826   4.408   1.024
10989SOL    HW234865   0.824   4.556   1.057
10990SOL     OW34866   6.728  11.611  13.930
10990SOL    HW134867   6.793  11.606  14.000
10990SOL    HW234868   6.647  11.637  13.975
10991SOL     OW34869  14.200   0.349  11.608
10991SOL    HW134870  14.114   0.376  11.576
10991SOL    HW234871  14.190   0.344  11.703
10992SOL     OW34872   9.172   2.247   0.996
10992SOL    HW134873   9.131   2.243   0.910
10992SOL    HW234874   9.266   2.245   0.979
10993SOL     OW34875   2.934  14.713   2.558
10993SOL    HW134876   2.966  14.800   2.533
10993SOL    HW234877   2.941  14.661   2.479
10994SOL     OW34878   8.627   9.964   5.564
10994SOL    HW134879   8.624   9.931   5.474
10994SOL    HW234880   8.720   9.974   5.583
10995SOL     OW34881   7.619   9.010   7.202
10995SOL    HW134882   7.585   8.921   7.192
10995SOL    HW234883   7.648   9.034   7.114
10996SOL     OW34884   4.676   7.112   9.767
10996SOL    HW134885   4.611   7.045   9.790
10996SOL    HW234886   4.624   7.191   9.751
10997SOL     OW34887   5.301  14.780  12.804
10997SOL    HW134888   5.243  14.793  12.730
10997SOL    HW234889   5.376  14.838  12.787
10998SOL     OW34890  14.585  13.562  14.153
10998SOL    HW134891  14.594  13.495  14.086
10998SOL    HW234892  14.671  13.566  14.195
10999SOL     OW34893   0.747  11.634  12.506
10999SOL    HW134894   0.717  11.721  12.531
10999SOL    HW234895   0.682  11.604  12.443
11000SOL     OW34896   9.031  10.973   1.457
11000SOL    HW134897   9.074  11.025   1.389
11000SOL    HW234898   8.953  10.938   1.414
11001SOL     OW34899   1.896   9.918  11.936
11001SOL    HW134900   1.898   9.858  12.010
11001SOL    HW234901   1.960   9.986  11.958
11002SOL     OW34902   9.058   0.122   6.531
11002SOL    HW134903   9.039   0.202   6.481
11002SOL    HW234904   9.067   0.152   6.621
11003SOL     OW34905  13.497   2.200  10.725
11003SOL    HW134906  13.576   2.207  10.672
11003SOL    HW234907  13.428   2.242  10.673
11004SOL     OW34908   2.920   7.409  13.112
11004SOL    HW134909   2.882   7.355  13.182
11004SOL    HW234910   2.938   7.493  13.154
11005SOL     OW34911  12.525   4.659   4.992
11005SOL    HW134912  12.495   4.728   5.051
11005SOL    HW234913  12.558   4.591   5.050
11006SOL     OW34914   8.108   4.118   7.207
11006SOL    HW134915   8.095   4.129   7.302
11006SOL    HW234916   8.193   4.074   7.200
11007SOL     OW34917  12.811   7.013   7.831
11007SOL    HW134918  12.781   7.103   7.823
11007SOL    HW234919  12.744   6.961   7.786
11008SOL     OW34920  10.754   4.891   8.478
11008SOL    HW134921  10.744   4.894   8.383
11008SOL    HW234922  10.756   4.798   8.499
11009SOL     OW34923   0.575  12.268  12.132
11009SOL    HW134924   0.554  12.325  12.058
11009SOL    HW234925   0.530  12.186  12.113
11010SOL     OW34926   5.916   9.199   2.928
11010SOL    HW134927   5.978   9.205   3.001
11010SOL    HW234928   5.863   9.122   2.948
11011SOL     OW34929   2.580   6.939   4.997
11011SOL    HW134930   2.523   6.886   4.941
11011SOL    HW234931   2.615   7.006   4.938
11012SOL     OW34932   6.605   0.602   1.799
11012SOL    HW134933   6.661   0.680   1.807
11012SOL    HW234934   6.519   0.632   1.828
11013SOL     OW34935   0.831   6.182  12.532
11013SOL    HW134936   0.873   6.141  12.607
11013SOL    HW234937   0.870   6.139  12.456
11014SOL     OW34938  14.775  12.038   6.178
11014SOL    HW134939  14.742  11.948   6.168
11014SOL    HW234940  14.854  12.028   6.231
11015SOL     OW34941   1.497   8.845   7.313
11015SOL    HW134942   1.502   8.758   7.352
11015SOL    HW234943   1.587   8.877   7.312
11016SOL     OW34944   7.808  12.174   8.727
11016SOL    HW134945   7.817  12.242   8.794
11016SOL    HW234946   7.824  12.219   8.644
11017SOL     OW34947  14.183   9.381   4.366
11017SOL    HW134948  14.213   9.449   4.426
11017SOL    HW234949  14.233   9.395   4.286
11018SOL     OW34950   1.234  10.546  11.031
11018SOL    HW134951   1.309  10.488  11.021
11018SOL    HW234952   1.262  10.612  11.094
11019SOL     OW34953   4.556   0.987  12.244
11019SOL    HW134954   4.495   1.033  12.186
11019SOL    HW234955   4.589   1.054  12.303
11020SOL     OW34956   2.054   9.878  12.173
11020SOL    HW134957   2.053   9.879  12.269
11020SOL    HW234958   2.107   9.801  12.150
11021SOL     OW34959  11.111   2.098   6.997
11021SOL    HW134960  11.026   2.086   7.038
11021SOL    HW234961  11.174   2.088   7.068
11022SOL     OW34962   2.193   8.834   2.229
11022SOL    HW134963   2.139   8.882   2.292
11022SOL    HW234964   2.132   8.805   2.162
11023SOL     OW34965   6.640  11.154   5.429
11023SOL    HW134966   6.652  11.240   5.389
11023SOL    HW234967   6.706  11.099   5.388
11024SOL     OW34968  10.738   8.482   7.696
11024SOL    HW134969  10.709   8.398   7.661
11024SOL    HW234970  10.829   8.490   7.668
11025SOL     OW34971   5.726   4.156   5.757
11025SOL    HW134972   5.636   4.124   5.749
11025SOL    HW234973   5.762   4.108   5.831
11026SOL     OW34974   3.064  14.465   6.579
11026SOL    HW134975   3.160  14.469   6.574
11026SOL    HW234976   3.043  14.494   6.668
11027SOL     OW34977  13.185   7.779  12.111
11027SOL    HW134978  13.201   7.827  12.030
11027SOL    HW234979  13.130   7.837  12.163
11028SOL     OW34980   3.202   4.021  13.592
11028SOL    HW134981   3.283   4.071  13.597
11028SOL    HW234982   3.141   4.068  13.647
11029SOL     OW34983   1.342  13.857   9.993
11029SOL    HW134984   1.388  13.895  10.068
11029SOL    HW234985   1.362  13.764   9.998
11030SOL     OW34986  11.255  12.837   9.275
11030SOL    HW134987  11.212  12.922   9.275
11030SOL    HW234988  11.303  12.834   9.192
11031SOL     OW34989   1.481   9.639  12.525
11031SOL    HW134990   1.445   9.628  12.436
11031SOL    HW234991   1.558   9.695  12.512
11032SOL     OW34992  14.803  11.150   3.606
11032SOL    HW134993   0.009  11.208   3.598
11032SOL    HW234994  14.728  11.209   3.598
11033SOL     OW34995   8.202   1.362  12.259
11033SOL    HW134996   8.129   1.421  12.279
11033SOL    HW234997   8.165   1.274  12.270
11034SOL     OW34998  13.423   8.417   3.313
11034SOL    HW134999  13.501   8.465   3.340
11034SOL    HW235000  13.366   8.483   3.275
11035SOL     OW35001  14.378   9.728   8.042
11035SOL    HW135002  14.312   9.662   8.020
11035SOL    HW235003  14.408   9.760   7.957
11036SOL     OW35004  14.366   9.767   0.475
11036SOL    HW135005  14.345   9.750   0.383
11036SOL    HW235006  14.461   9.762   0.479
11037SOL     OW35007  11.634   5.468   4.958
11037SOL    HW135008  11.729   5.468   4.952
11037SOL    HW235009  11.609   5.559   4.947
11038SOL     OW35010   4.089   1.568   1.285
11038SOL    HW135011   4.105   1.612   1.369
11038SOL    HW235012   4.123   1.629   1.219
11039SOL     OW35013  13.965  12.168   3.214
11039SOL    HW135014  13.945  12.225   3.288
11039SOL    HW235015  13.881  12.128   3.191
11040SOL     OW35016   0.931   0.141   3.556
11040SOL    HW135017   0.911   0.220   3.506
11040SOL    HW235018   0.960   0.174   3.641
11041SOL     OW35019   3.999   1.948   4.158
11041SOL    HW135020   3.917   1.934   4.111
11041SOL    HW235021   3.981   2.023   4.215
11042SOL     OW35022   9.528   4.676   4.115
11042SOL    HW135023   9.616   4.698   4.145
11042SOL    HW235024   9.521   4.582   4.130
11043SOL     OW35025  13.978   7.088   6.017
11043SOL    HW135026  13.920   7.164   6.022
11043SOL    HW235027  13.918   7.013   6.010
11044SOL     OW35028   0.809   3.560  12.175
11044SOL    HW135029   0.752   3.492  12.138
11044SOL    HW235030   0.814   3.627  12.106
11045SOL     OW35031   9.276  13.930   4.077
11045SOL    HW135032   9.359  13.889   4.053
11045SOL    HW235033   9.291  13.962   4.166
11046SOL     OW35034   4.359   3.052   8.966
11046SOL    HW135035   4.373   2.960   8.990
11046SOL    HW235036   4.408   3.063   8.885
11047SOL     OW35037  12.622   9.576   2.630
11047SOL    HW135038  12.699   9.568   2.686
11047SOL    HW235039  12.642   9.522   2.554
11048SOL     OW35040  13.001  10.660   7.088
11048SOL    HW135041  13.066  10.601   7.124
11048SOL    HW235042  12.974  10.619   7.006
11049SOL     OW35043  10.696   3.003   6.802
11049SOL    HW135044  10.693   2.973   6.711
11049SOL    HW235045  10.743   2.934   6.849
11050SOL     OW35046   8.397  14.428   6.310
11050SOL    HW135047   8.338  14.472   6.249
11050SOL    HW235048   8.354  14.437   6.395
11051SOL     OW35049   7.264   2.545   4.344
11051SOL    HW135050   7.323   2.567   4.416
11051SOL    HW235051   7.289   2.605   4.274
11052SOL     OW35052  11.673   5.402   5.238
11052SOL    HW135053  11.628   5.396   5.153
11052SOL    HW235054  11.766   5.408   5.216
11053SOL     OW35055  14.220   2.242  13.427
11053SOL    HW135056  14.186   2.161  13.389
11053SOL    HW235057  14.161   2.311  13.397
11054SOL     OW35058  13.599  11.099   2.925
11054SOL    HW135059  13.674  11.148   2.890
11054SOL    HW235060  13.636  11.047   2.996
11055SOL     OW35061   5.228   5.531   8.797
11055SOL    HW135062   5.198   5.525   8.888
11055SOL    HW235063   5.156   5.574   8.751
11056SOL     OW35064  12.535  14.043  12.509
11056SOL    HW135065  12.533  13.966  12.565
11056SOL    HW235066  12.550  14.116  12.568
11057SOL     OW35067   6.536   5.560   2.257
11057SOL    HW135068   6.601   5.510   2.305
11057SOL    HW235069   6.573   5.648   2.250
11058SOL     OW35070  11.729  11.744   0.107
11058SOL    HW135071  11.767  11.757   0.194
11058SOL    HW235072  11.634  11.749   0.121
11059SOL     OW35073   6.371   3.247  13.678
11059SOL    HW135074   6.435   3.298  13.729
11059SOL    HW235075   6.423   3.203  13.611
11060SOL     OW35076   0.422   2.556   6.716
11060SOL    HW135077   0.357   2.550   6.787
11060SOL    HW235078   0.444   2.465   6.696
11061SOL     OW35079   6.867  14.840   6.092
11061SOL    HW135080   6.834  14.807   6.009
11061SOL    HW235081   6.962  14.843   6.081
11062SOL     OW35082   8.254  12.848   7.715
11062SOL    HW135083   8.203  12.795   7.654
11062SOL    HW235084   8.324  12.790   7.744
11063SOL     OW35085   0.534   6.678   8.298
11063SOL    HW135086   0.447   6.659   8.263
11063SOL    HW235087   0.518   6.741   8.368
11064SOL     OW35088  11.960  11.897   7.597
11064SOL    HW135089  11.912  11.889   7.680
11064SOL    HW235090  11.999  11.984   7.600
11065SOL     OW35091  11.713  12.291   4.498
11065SOL    HW135092  11.719  12.205   4.457
11065SOL    HW235093  11.623  12.297   4.528
11066SOL     OW35094   2.927   4.071  12.353
11066SOL    HW135095   2.927   3.977  12.373
11066SOL    HW235096   2.978   4.111  12.423
11067SOL     OW35097  12.562   2.353  12.684
11067SOL    HW135098  12.598   2.304  12.610
11067SOL    HW235099  12.483   2.306  12.709
11068SOL     OW35100   0.197   0.588  13.757
11068SOL    HW135101   0.240   0.504  13.768
11068SOL    HW235102   0.106   0.566  13.737
11069SOL     OW35103   7.490   0.702   1.521
11069SOL    HW135104   7.520   0.783   1.564
11069SOL    HW235105   7.561   0.681   1.460
11070SOL     OW35106   2.112   0.185   7.227
11070SOL    HW135107   2.106   0.263   7.173
11070SOL    HW235108   2.063   0.118   7.179
11071SOL     OW35109  14.488   4.406   8.178
11071SOL    HW135110  14.540   4.481   8.207
11071SOL    HW235111  14.478   4.352   8.256
11072SOL     OW35112  13.239   9.992  11.300
11072SOL    HW135113  13.275  10.075  11.270
11072SOL    HW235114  13.166  10.016  11.357
11073SOL     OW35115  13.796   6.830   9.321
11073SOL    HW135116  13.874   6.850   9.269
11073SOL    HW235117  13.742   6.908   9.315
11074SOL     OW35118   3.008  14.342  10.378
11074SOL    HW135119   2.968  14.424  10.408
11074SOL    HW235120   2.976  14.276  10.440
11075SOL     OW35121   9.625   4.538   2.918
11075SOL    HW135122   9.532   4.516   2.926
11075SOL    HW235123   9.656   4.540   3.009
11076SOL     OW35124  12.535   2.452   4.295
11076SOL    HW135125  12.446   2.443   4.261
11076SOL    HW235126  12.551   2.547   4.294
11077SOL     OW35127   8.203  10.206   9.564
11077SOL    HW135128   8.185  10.272   9.496
11077SOL    HW235129   8.183  10.251   9.646
11078SOL     OW35130  14.130   6.260  11.925
11078SOL    HW135131  14.074   6.322  11.880
11078SOL    HW235132  14.076   6.181  11.934
11079SOL     OW35133   0.156   4.628  12.765
11079SOL    HW135134   0.189   4.552  12.813
11079SOL    HW235135   0.228   4.654  12.708
11080SOL     OW35136   1.959   0.593   8.817
11080SOL    HW135137   1.909   0.590   8.899
11080SOL    HW235138   1.897   0.565   8.750
11081SOL     OW35139   6.949  12.992   4.693
11081SOL    HW135140   6.994  12.996   4.609
11081SOL    HW235141   6.914  12.903   4.697
11082SOL     OW35142   8.347   0.447   2.861
11082SOL    HW135143   8.351   0.497   2.779
11082SOL    HW235144   8.327   0.513   2.928
11083SOL     OW35145   6.039   3.301  10.815
11083SOL    HW135146   6.084   3.224  10.850
11083SOL    HW235147   6.002   3.344  10.892
11084SOL     OW35148   1.537   3.148  10.890
11084SOL    HW135149   1.471   3.194  10.838
11084SOL    HW235150   1.611   3.135  10.830
11085SOL     OW35151   0.934   2.336   3.981
11085SOL    HW135152   0.995   2.341   4.055
11085SOL    HW235153   0.990   2.327   3.904
11086SOL     OW35154  10.633   7.775  14.272
11086SOL    HW135155  10.633   7.720  14.193
11086SOL    HW235156  10.541   7.797  14.286
11087SOL     OW35157   9.142  14.440   9.588
11087SOL    HW135158   9.230  14.478   9.582
11087SOL    HW235159   9.151  14.353   9.549
11088SOL     OW35160  14.493   6.330   0.865
11088SOL    HW135161  14.408   6.313   0.823
11088SOL    HW235162  14.470   6.375   0.946
11089SOL     OW35163  14.745  14.089   2.704
11089SOL    HW135164  14.775  14.089   2.795
11089SOL    HW235165  14.735  13.996   2.683
11090SOL     OW35166  11.766   1.092  12.370
11090SOL    HW135167  11.706   1.071  12.298
11090SOL    HW235168  11.791   1.183  12.355
11091SOL     OW35169   0.661   3.313   3.958
11091SOL    HW135170   0.577   3.345   3.925
11091SOL    HW235171   0.638   3.239   4.015
11092SOL     OW35172   7.047   7.210   5.014
11092SOL    HW135173   7.138   7.193   5.037
11092SOL    HW235174   7.010   7.255   5.090
11093SOL     OW35175   8.427   6.769   7.235
11093SOL    HW135176   8.503   6.713   7.251
11093SOL    HW235177   8.405   6.754   7.143
11094SOL     OW35178   3.269   6.106  10.674
11094SOL    HW135179   3.348   6.084  10.625
11094SOL    HW235180   3.277   6.199  10.694
11095SOL     OW35181   3.383  10.197   6.790
11095SOL    HW135182   3.459  10.255   6.790
11095SOL    HW235183   3.346  10.206   6.878
11096SOL     OW35184   5.102   9.080   0.327
11096SOL    HW135185   5.187   9.098   0.368
11096SOL    HW235186   5.095   9.145   0.257
11097SOL     OW35187   0.019   6.485  13.217
11097SOL    HW135188  14.829   6.471  13.290
11097SOL    HW235189   0.068   6.564  13.241
11098SOL     OW35190   0.684  12.075  11.852
11098SOL    HW135191   0.601  12.059  11.807
11098SOL    HW235192   0.695  11.999  11.909
11099SOL     OW35193  11.764  11.810  13.741
11099SOL    HW135194  11.794  11.721  13.722
11099SOL    HW235195  11.844  11.863  13.736
11100SOL     OW35196   9.861   4.733   4.586
11100SOL    HW135197   9.822   4.816   4.611
11100SOL    HW235198   9.947   4.733   4.627
11101SOL     OW35199   4.638   3.200   3.304
11101SOL    HW135200   4.599   3.287   3.311
11101SOL    HW235201   4.695   3.205   3.227
11102SOL     OW35202   7.330  10.600   3.474
11102SOL    HW135203   7.319  10.692   3.499
11102SOL    HW235204   7.311  10.599   3.380
11103SOL     OW35205  12.288   3.843  12.657
11103SOL    HW135206  12.340   3.782  12.709
11103SOL    HW235207  12.348   3.872  12.588
11104SOL     OW35208   4.569   7.050  14.789
11104SOL    HW135209   4.476   7.068  14.800
11104SOL    HW235210   4.607   7.133  14.761
11105SOL     OW35211   9.497  13.341   8.187
11105SOL    HW135212   9.439  13.291   8.245
11105SOL    HW235213   9.493  13.294   8.103
11106SOL     OW35214  13.190   3.121   6.433
11106SOL    HW135215  13.219   3.152   6.347
11106SOL    HW235216  13.106   3.079   6.416
11107SOL     OW35217   1.766  13.603   6.325
11107SOL    HW135218   1.726  13.576   6.242
11107SOL    HW235219   1.697  13.652   6.369
11108SOL     OW35220  12.852  11.370   3.722
11108SOL    HW135221  12.904  11.300   3.683
11108SOL    HW235222  12.859  11.443   3.660
11109SOL     OW35223  13.242   1.192   1.247
11109SOL    HW135224  13.161   1.227   1.212
11109SOL    HW235225  13.238   1.098   1.228
11110SOL     OW35226   6.970  13.136  11.507
11110SOL    HW135227   7.007  13.064  11.456
11110SOL    HW235228   6.918  13.093  11.575
11111SOL     OW35229   4.894  13.742   8.272
11111SOL    HW135230   4.919  13.834   8.261
11111SOL    HW235231   4.801  13.740   8.252
11112SOL     OW35232  10.685   7.587   4.945
11112SOL    HW135233  10.678   7.635   4.862
11112SOL    HW235234  10.739   7.511   4.924
11113SOL     OW35235  11.508  12.960  10.923
11113SOL    HW135236  11.521  13.021  10.850
11113SOL    HW235237  11.597  12.944  10.957
11114SOL     OW35238   9.044  14.229   8.823
11114SOL    HW135239   8.978  14.215   8.891
11114SOL    HW235240   8.995  14.225   8.741
11115SOL     OW35241   1.585   3.337   3.779
11115SOL    HW135242   1.590   3.429   3.751
11115SOL    HW235243   1.622   3.337   3.867
11116SOL     OW35244  13.957   1.837   2.312
11116SOL    HW135245  13.911   1.889   2.379
11116SOL    HW235246  13.999   1.766   2.362
11117SOL     OW35247  11.795   6.218   7.291
11117SOL    HW135248  11.700   6.214   7.284
11117SOL    HW235249  11.814   6.306   7.323
11118SOL     OW35250  12.821   9.559   1.416
11118SOL    HW135251  12.795   9.539   1.507
11118SOL    HW235252  12.831   9.654   1.414
11119SOL     OW35253  12.547   2.378   1.993
11119SOL    HW135254  12.464   2.346   2.028
11119SOL    HW235255  12.609   2.306   2.007
11120SOL     OW35256   9.356  10.924   7.679
11120SOL    HW135257   9.376  10.831   7.690
11120SOL    HW235258   9.366  10.940   7.586
11121SOL     OW35259   0.016  11.832   3.575
11121SOL    HW135260   0.012  11.825   3.479
11121SOL    HW235261   0.048  11.746   3.603
11122SOL     OW35262   4.350  10.048  12.513
11122SOL    HW135263   4.406   9.971  12.526
11122SOL    HW235264   4.403  10.108  12.461
11123SOL     OW35265  13.096   1.381   9.156
11123SOL    HW135266  13.008   1.383   9.194
11123SOL    HW235267  13.108   1.468   9.118
11124SOL     OW35268   8.009  10.507   5.416
11124SOL    HW135269   7.975  10.442   5.477
11124SOL    HW235270   7.931  10.550   5.381
11125SOL     OW35271   7.366  10.790  13.975
11125SOL    HW135272   7.284  10.751  14.004
11125SOL    HW235273   7.409  10.819  14.055
11126SOL     OW35274  13.257   2.963  12.082
11126SOL    HW135275  13.168   2.963  12.117
11126SOL    HW235276  13.290   2.874  12.099
11127SOL     OW35277   4.785   1.095   5.221
11127SOL    HW135278   4.702   1.120   5.263
11127SOL    HW235279   4.801   1.165   5.158
11128SOL     OW35280   4.117   8.058   7.642
11128SOL    HW135281   4.108   8.051   7.737
11128SOL    HW235282   4.106   7.968   7.610
11129SOL     OW35283   9.931   7.882   5.365
11129SOL    HW135284   9.981   7.963   5.369
11129SOL    HW235285   9.992   7.817   5.331
11130SOL     OW35286   7.743  11.684   1.049
11130SOL    HW135287   7.800  11.637   1.111
11130SOL    HW235288   7.792  11.686   0.967
11131SOL     OW35289   5.233  12.014   5.039
11131SOL    HW135290   5.294  12.078   5.003
11131SOL    HW235291   5.169  12.001   4.969
11132SOL     OW35292   6.989   1.648   8.370
11132SOL    HW135293   7.037   1.711   8.316
11132SOL    HW235294   7.044   1.637   8.448
11133SOL     OW35295   6.791   5.192  13.339
11133SOL    HW135296   6.799   5.282  13.310
11133SOL    HW235297   6.796   5.197  13.435
11134SOL     OW35298   1.562   4.025   6.761
11134SOL    HW135299   1.483   3.989   6.802
11134SOL    HW235300   1.531   4.101   6.712
11135SOL     OW35301   5.001   5.699   4.829
11135SOL    HW135302   5.049   5.754   4.768
11135SOL    HW235303   5.066   5.673   4.894
11136SOL     OW35304  11.971   9.278   1.252
11136SOL    HW135305  11.948   9.208   1.191
11136SOL    HW235306  11.927   9.356   1.218
11137SOL     OW35307  12.099   8.604   7.453
11137SOL    HW135308  12.171   8.635   7.508
11137SOL    HW235309  12.066   8.525   7.498
11138SOL     OW35310   3.488   4.564  14.339
11138SOL    HW135311   3.500   4.654  14.368
11138SOL    HW235312   3.521   4.510  14.412
11139SOL     OW35313   3.321   9.805  13.025
11139SOL    HW135314   3.288   9.895  13.022
11139SOL    HW235315   3.245   9.753  13.053
11140SOL     OW35316  10.479   7.683  11.286
11140SOL    HW135317  10.483   7.600  11.335
11140SOL    HW235318  10.567   7.718  11.291
11141SOL     OW35319   9.228   4.590  13.358
11141SOL    HW135320   9.311   4.623  13.391
11141SOL    HW235321   9.180   4.565  13.438
11142SOL     OW35322   3.982  10.354   4.893
11142SOL    HW135323   4.032  10.287   4.940
11142SOL    HW235324   4.046  10.421   4.869
11143SOL     OW35325   6.961  13.396  10.589
11143SOL    HW135326   6.965  13.490  10.570
11143SOL    HW235327   6.915  13.358  10.514
11144SOL     OW35328   6.455   5.254   9.485
11144SOL    HW135329   6.485   5.166   9.464
11144SOL    HW235330   6.383   5.270   9.423
11145SOL     OW35331  11.180  12.226  14.843
11145SOL    HW135332  11.237  12.249   0.046
11145SOL    HW235333  11.144  12.309  14.812
11146SOL     OW35334  12.113   7.589   9.054
11146SOL    HW135335  12.166   7.664   9.030
11146SOL    HW235336  12.145   7.563   9.141
11147SOL     OW35337   2.212  14.690   3.753
11147SOL    HW135338   2.216  14.595   3.765
11147SOL    HW235339   2.303  14.719   3.759
11148SOL     OW35340   2.164  10.482   3.818
11148SOL    HW135341   2.173  10.389   3.840
11148SOL    HW235342   2.115  10.519   3.892
11149SOL     OW35343   4.918   5.511   8.833
11149SOL    HW135344   4.878   5.430   8.864
11149SOL    HW235345   4.848   5.576   8.835
11150SOL     OW35346   1.079  13.653   3.637
11150SOL    HW135347   1.047  13.573   3.680
11150SOL    HW235348   1.154  13.624   3.585
11151SOL     OW35349   1.544  14.466   3.846
11151SOL    HW135350   1.629  14.442   3.881
11151SOL    HW235351   1.544  14.434   3.756
11152SOL     OW35352   4.762  12.899   2.400
11152SOL    HW135353   4.779  12.955   2.476
11152SOL    HW235354   4.719  12.822   2.436
11153SOL     OW35355   0.299   5.978  14.338
11153SOL    HW135356   0.343   5.898  14.312
11153SOL    HW235357   0.206   5.960  14.323
11154SOL     OW35358   5.801   9.107   1.739
11154SOL    HW135359   5.751   9.167   1.795
11154SOL    HW235360   5.849   9.052   1.801
11155SOL     OW35361   0.401   1.099   3.884
11155SOL    HW135362   0.486   1.123   3.922
11155SOL    HW235363   0.362   1.181   3.856
11156SOL     OW35364   2.136   9.172   0.055
11156SOL    HW135365   2.121   9.090   0.008
11156SOL    HW235366   2.059   9.181   0.112
11157SOL     OW35367   3.131  14.841  11.098
11157SOL    HW135368   3.108  14.808  11.185
11157SOL    HW235369   3.167  14.765  11.053
11158SOL     OW35370   4.634   0.096   3.504
11158SOL    HW135371   4.684   0.150   3.442
11158SOL    HW235372   4.700   0.044   3.549
11159SOL     OW35373   4.338   0.418   2.796
11159SOL    HW135374   4.366   0.352   2.733
11159SOL    HW235375   4.347   0.377   2.881
11160SOL     OW35376   6.057   7.018   5.691
11160SOL    HW135377   5.998   7.083   5.655
11160SOL    HW235378   6.008   6.935   5.687
11161SOL     OW35379   2.690   5.048  10.833
11161SOL    HW135380   2.713   5.103  10.907
11161SOL    HW235381   2.625   5.098  10.784
11162SOL     OW35382   0.569   3.952  12.934
11162SOL    HW135383   0.653   3.990  12.962
11162SOL    HW235384   0.590   3.907  12.852
11163SOL     OW35385   8.960   4.798   3.720
11163SOL    HW135386   8.880   4.849   3.706
11163SOL    HW235387   9.028   4.847   3.672
11164SOL     OW35388  11.704   3.339   0.379
11164SOL    HW135389  11.698   3.407   0.447
11164SOL    HW235390  11.615   3.331   0.345
11165SOL     OW35391   2.459   7.349  13.884
11165SOL    HW135392   2.518   7.373  13.813
11165SOL    HW235393   2.378   7.396  13.866
11166SOL     OW35394   7.610   9.315   0.206
11166SOL    HW135395   7.683   9.326   0.145
11166SOL    HW235396   7.651   9.285   0.287
11167SOL     OW35397  14.680   0.053   6.892
11167SOL    HW135398  14.690   0.031   6.799
11167SOL    HW235399  14.713  14.845   6.938
11168SOL     OW35400  11.483   5.115   5.630
11168SOL    HW135401  11.389   5.124   5.647
11168SOL    HW235402  11.524   5.177   5.690
11169SOL     OW35403   4.165   8.626   1.874
11169SOL    HW135404   4.246   8.581   1.848
11169SOL    HW235405   4.168   8.709   1.826
11170SOL     OW35406  10.696  13.485   9.514
11170SOL    HW135407  10.737  13.481   9.601
11170SOL    HW235408  10.639  13.561   9.518
11171SOL     OW35409   7.028   3.694   1.702
11171SOL    HW135410   7.065   3.738   1.626
11171SOL    HW235411   7.095   3.701   1.769
11172SOL     OW35412   9.580  11.483   1.671
11172SOL    HW135413   9.488  11.509   1.673
11172SOL    HW235414   9.584  11.420   1.599
11173SOL     OW35415   6.816   3.413  12.101
11173SOL    HW135416   6.761   3.491  12.104
11173SOL    HW235417   6.768   3.352  12.045
11174SOL     OW35418   7.164   7.477   6.235
11174SOL    HW135419   7.236   7.492   6.175
11174SOL    HW235420   7.144   7.564   6.271
11175SOL     OW35421   5.743  12.009   0.858
11175SOL    HW135422   5.750  12.075   0.927
11175SOL    HW235423   5.653  12.016   0.826
11176SOL     OW35424  12.163   0.019  13.433
11176SOL    HW135425  12.126  14.848  13.511
11176SOL    HW235426  12.206   0.098  13.464
11177SOL     OW35427   4.323  11.086   8.055
11177SOL    HW135428   4.371  11.114   7.977
11177SOL    HW235429   4.384  11.102   8.127
11178SOL     OW35430  13.106   2.765   5.143
11178SOL    HW135431  13.094   2.672   5.160
11178SOL    HW235432  13.045   2.785   5.072
11179SOL     OW35433  14.841   4.618   8.860
11179SOL    HW135434  14.787   4.694   8.840
11179SOL    HW235435   0.049   4.655   8.903
11180SOL     OW35436  11.170  11.811  10.762
11180SOL    HW135437  11.184  11.904  10.781
11180SOL    HW235438  11.079  11.794  10.788
11181SOL     OW35439   2.711  10.986   6.277
11181SOL    HW135440   2.696  10.928   6.203
11181SOL    HW235441   2.629  10.984   6.326
11182SOL     OW35442   1.749   1.387  11.587
11182SOL    HW135443   1.841   1.405  11.607
11182SOL    HW235444   1.752   1.315  11.525
11183SOL     OW35445  10.706   6.013   7.395
11183SOL    HW135446  10.610   6.012   7.394
11183SOL    HW235447  10.729   6.106   7.399
11184SOL     OW35448   2.279  13.817   6.144
11184SOL    HW135449   2.262  13.892   6.087
11184SOL    HW235450   2.191  13.782   6.163
11185SOL     OW35451   9.099  12.671   9.419
11185SOL    HW135452   9.057  12.679   9.333
11185SOL    HW235453   9.126  12.760   9.442
11186SOL     OW35454   9.815  11.834  12.233
11186SOL    HW135455   9.785  11.758  12.183
11186SOL    HW235456   9.757  11.905  12.204
11187SOL     OW35457  10.049   3.831   1.772
11187SOL    HW135458  10.093   3.799   1.851
11187SOL    HW235459  10.034   3.753   1.719
11188SOL     OW35460   8.526  14.751  12.830
11188SOL    HW135461   8.496  14.665  12.799
11188SOL    HW235462   8.595  14.775  12.768
11189SOL     OW35463   4.589   7.724   7.338
11189SOL    HW135464   4.495   7.744   7.335
11189SOL    HW235465   4.593   7.629   7.342
11190SOL     OW35466   9.043   1.604   0.576
11190SOL    HW135467   8.966   1.597   0.631
11190SOL    HW235468   9.105   1.541   0.612
11191SOL     OW35469  14.243   1.667   4.099
11191SOL    HW135470  14.175   1.616   4.144
11191SOL    HW235471  14.262   1.739   4.159
11192SOL     OW35472   3.799  10.465  11.707
11192SOL    HW135473   3.795  10.375  11.677
11192SOL    HW235474   3.830  10.460  11.797
11193SOL     OW35475  11.369   7.284  10.621
11193SOL    HW135476  11.278   7.262  10.643
11193SOL    HW235477  11.406   7.316  10.703
11194SOL     OW35478   4.342   4.924  13.445
11194SOL    HW135479   4.413   4.925  13.509
11194SOL    HW235480   4.275   4.982  13.483
11195SOL     OW35481  14.404   8.350   2.708
11195SOL    HW135482  14.390   8.325   2.799
11195SOL    HW235483  14.393   8.269   2.658
11196SOL     OW35484   0.344   9.227   8.102
11196SOL    HW135485   0.340   9.188   8.014
11196SOL    HW235486   0.330   9.321   8.086
11197SOL     OW35487   9.552   4.150   4.497
11197SOL    HW135488   9.543   4.170   4.403
11197SOL    HW235489   9.478   4.093   4.516
11198SOL     OW35490  14.842  12.896   4.542
11198SOL    HW135491   0.032  12.941   4.603
11198SOL    HW235492   0.016  12.904   4.457
11199SOL     OW35493   6.673  13.048   1.213
11199SOL    HW135494   6.682  12.956   1.190
11199SOL    HW235495   6.594  13.052   1.266
11200SOL     OW35496   7.092   9.501   8.475
11200SOL    HW135497   7.140   9.420   8.488
11200SOL    HW235498   7.015   9.475   8.424
11201SOL     OW35499   4.925   2.533  10.137
11201SOL    HW135500   4.977   2.465  10.094
11201SOL    HW235501   4.840   2.491  10.153
11202SOL     OW35502   2.535   9.465  14.173
11202SOL    HW135503   2.440   9.455  14.164
11202SOL    HW235504   2.571   9.381  14.143
11203SOL     OW35505  10.018   7.593  10.479
11203SOL    HW135506   9.987   7.672  10.435
11203SOL    HW235507   9.988   7.603  10.570
11204SOL     OW35508   7.251  13.935   3.761
11204SOL    HW135509   7.182  13.952   3.825
11204SOL    HW235510   7.277  13.844   3.775
11205SOL     OW35511   9.140   0.575  11.196
11205SOL    HW135512   9.058   0.589  11.149
11205SOL    HW235513   9.185   0.508  11.145
11206SOL     OW35514   6.550   8.337  13.425
11206SOL    HW135515   6.626   8.323  13.483
11206SOL    HW235516   6.550   8.261  13.367
11207SOL     OW35517  12.817  11.295  13.003
11207SOL    HW135518  12.896  11.242  13.009
11207SOL    HW235519  12.827  11.362  13.071
11208SOL     OW35520   6.489  12.929   2.817
11208SOL    HW135521   6.497  12.953   2.725
11208SOL    HW235522   6.560  12.977   2.860
11209SOL     OW35523  14.729   5.820   2.752
11209SOL    HW135524  14.643   5.828   2.793
11209SOL    HW235525  14.778   5.762   2.811
11210SOL     OW35526   9.750   5.629  11.868
11210SOL    HW135527   9.813   5.557  11.878
11210SOL    HW235528   9.743   5.642  11.774
11211SOL     OW35529   4.642   0.281   7.725
11211SOL    HW135530   4.704   0.211   7.746
11211SOL    HW235531   4.696   0.356   7.703
11212SOL     OW35532  12.731  11.028  12.745
11212SOL    HW135533  12.762  11.015  12.835
11212SOL    HW235534  12.710  11.121  12.740
11213SOL     OW35535  13.233   4.288   8.176
11213SOL    HW135536  13.266   4.242   8.098
11213SOL    HW235537  13.270   4.376   8.169
11214SOL     OW35538   1.563   2.208   6.112
11214SOL    HW135539   1.628   2.275   6.090
11214SOL    HW235540   1.500   2.212   6.040
11215SOL     OW35541   2.328   8.082  10.272
11215SOL    HW135542   2.288   8.120  10.351
11215SOL    HW235543   2.420   8.069  10.296
11216SOL     OW35544   9.789   2.467  11.254
11216SOL    HW135545   9.878   2.469  11.219
11216SOL    HW235546   9.757   2.557  11.243
11217SOL     OW35547   8.023   4.575   8.668
11217SOL    HW135548   8.048   4.512   8.601
11217SOL    HW235549   7.997   4.522   8.743
11218SOL     OW35550  14.822   9.306  14.072
11218SOL    HW135551  14.868   9.298  13.988
11218SOL    HW235552  14.843   9.394  14.102
11219SOL     OW35553   2.712  12.203  12.613
11219SOL    HW135554   2.629  12.217  12.566
11219SOL    HW235555   2.701  12.118  12.656
11220SOL     OW35556   3.463   0.023  13.741
11220SOL    HW135557   3.541   0.041  13.689
11220SOL    HW235558   3.399   0.088  13.711
11221SOL     OW35559   4.064  12.588   3.084
11221SOL    HW135560   4.051  12.682   3.074
11221SOL    HW235561   4.156  12.574   3.065
11222SOL     OW35562  14.379   9.153   1.629
11222SOL    HW135563  14.379   9.089   1.558
11222SOL    HW235564  14.290   9.153   1.663
11223SOL     OW35565  11.021  10.431   0.241
11223SOL    HW135566  11.059  10.344   0.241
11223SOL    HW235567  10.971  10.437   0.160
11224SOL     OW35568   0.190  12.903  12.622
11224SOL    HW135569   0.208  12.842  12.550
11224SOL    HW235570   0.197  12.849  12.700
11225SOL     OW35571   3.801  13.753  12.142
11225SOL    HW135572   3.759  13.814  12.082
11225SOL    HW235573   3.785  13.789  12.229
11226SOL     OW35574   6.063  10.988  13.896
11226SOL    HW135575   6.138  10.956  13.845
11226SOL    HW235576   6.102  11.027  13.974
11227SOL     OW35577  13.451   0.093   8.252
11227SOL    HW135578  13.424   0.006   8.224
11227SOL    HW235579  13.372   0.146   8.246
11228SOL     OW35580  11.728   0.998   3.313
11228SOL    HW135581  11.658   1.018   3.376
11228SOL    HW235582  11.682   0.983   3.230
11229SOL     OW35583   8.235  12.501   3.393
11229SOL    HW135584   8.312  12.514   3.338
11229SOL    HW235585   8.168  12.468   3.333
11230SOL     OW35586   6.896  12.700  10.560
11230SOL    HW135587   6.955  12.761  10.604
11230SOL    HW235588   6.810  12.742  10.564
11231SOL     OW35589   9.374   4.266   1.856
11231SOL    HW135590   9.387   4.172   1.842
11231SOL    HW235591   9.364   4.303   1.768
11232SOL     OW35592   4.598   1.121   8.927
11232SOL    HW135593   4.602   1.028   8.905
11232SOL    HW235594   4.505   1.140   8.934
11233SOL     OW35595   4.706   9.960   7.234
11233SOL    HW135596   4.635   9.990   7.177
11233SOL    HW235597   4.680   9.989   7.321
11234SOL     OW35598  11.893  12.963   9.829
11234SOL    HW135599  11.920  12.997   9.914
11234SOL    HW235600  11.833  12.891   9.849
11235SOL     OW35601   9.598   5.468   7.021
11235SOL    HW135602   9.537   5.470   6.947
11235SOL    HW235603   9.543   5.476   7.098
11236SOL     OW35604   3.787   8.937   8.544
11236SOL    HW135605   3.832   8.878   8.605
11236SOL    HW235606   3.771   9.017   8.595
11237SOL     OW35607   0.791   3.980  11.741
11237SOL    HW135608   0.829   4.068  11.742
11237SOL    HW235609   0.704   3.992  11.779
11238SOL     OW35610   2.694   9.765   1.759
11238SOL    HW135611   2.749   9.706   1.708
11238SOL    HW235612   2.607   9.757   1.718
11239SOL     OW35613   8.806   5.376   1.042
11239SOL    HW135614   8.753   5.420   1.109
11239SOL    HW235615   8.895   5.381   1.076
11240SOL     OW35616   2.073   5.115   3.653
11240SOL    HW135617   2.086   5.076   3.739
11240SOL    HW235618   2.157   5.158   3.634
11241SOL     OW35619  14.262   9.709  10.805
11241SOL    HW135620  14.325   9.639  10.822
11241SOL    HW235621  14.184   9.683  10.854
11242SOL     OW35622   6.615  10.690   6.025
11242SOL    HW135623   6.624  10.650   6.111
11242SOL    HW235624   6.704  10.717   6.001
11243SOL     OW35625  11.828   6.578  14.472
11243SOL    HW135626  11.803   6.533  14.553
11243SOL    HW235627  11.874   6.512  14.421
11244SOL     OW35628  10.692   7.327  12.756
11244SOL    HW135629  10.723   7.246  12.716
11244SOL    HW235630  10.765   7.389  12.743
11245SOL     OW35631   0.455  10.228   4.998
11245SOL    HW135632   0.389  10.175   5.043
11245SOL    HW235633   0.433  10.318   5.020
11246SOL     OW35634  14.295   3.690   0.603
11246SOL    HW135635  14.229   3.656   0.664
11246SOL    HW235636  14.256   3.680   0.517
11247SOL     OW35637   8.959   7.888   4.150
11247SOL    HW135638   9.004   7.805   4.134
11247SOL    HW235639   8.919   7.911   4.067
11248SOL     OW35640   2.199   9.827   3.246
11248SOL    HW135641   2.288   9.854   3.268
11248SOL    HW235642   2.193   9.737   3.278
11249SOL     OW35643   5.956   9.611   8.280
11249SOL    HW135644   6.004   9.581   8.203
11249SOL    HW235645   5.912   9.533   8.313
11250SOL     OW35646  13.099  10.238   9.357
11250SOL    HW135647  13.146  10.303   9.304
11250SOL    HW235648  13.010  10.272   9.362
11251SOL     OW35649  14.619   6.159   3.190
11251SOL    HW135650  14.600   6.070   3.220
11251SOL    HW235651  14.533   6.199   3.178
11252SOL     OW35652  12.845   6.281   4.064
11252SOL    HW135653  12.869   6.280   4.156
11252SOL    HW235654  12.751   6.264   4.063
11253SOL     OW35655   1.091  10.130   7.561
11253SOL    HW135656   1.147  10.178   7.499
11253SOL    HW235657   1.006  10.172   7.553
11254SOL     OW35658   7.933  13.784  14.865
11254SOL    HW135659   7.842  13.754  14.861
11254SOL    HW235660   7.985  13.704   0.000
11255SOL     OW35661  12.621  14.769   6.181
11255SOL    HW135662  12.530  14.797   6.172
11255SOL    HW235663  12.622  14.719   6.263
11256SOL     OW35664   0.382   7.820   5.631
11256SOL    HW135665   0.330   7.741   5.645
11256SOL    HW235666   0.431   7.831   5.712
11257SOL     OW35667   0.419   3.726   4.357
11257SOL    HW135668   0.365   3.653   4.387
11257SOL    HW235669   0.495   3.726   4.415
11258SOL     OW35670   4.104   7.047  13.244
11258SOL    HW135671   4.087   7.136  13.276
11258SOL    HW235672   4.119   7.058  13.150
11259SOL     OW35673  14.842   9.113   2.568
11259SOL    HW135674  14.832   9.170   2.644
11259SOL    HW235675  14.798   9.158   2.497
11260SOL     OW35676   3.727  13.145   1.493
11260SOL    HW135677   3.765  13.218   1.542
11260SOL    HW235678   3.637  13.172   1.476
11261SOL     OW35679   0.487  11.862   0.653
11261SOL    HW135680   0.439  11.816   0.721
11261SOL    HW235681   0.539  11.927   0.699
11262SOL     OW35682  12.340  12.738   0.982
11262SOL    HW135683  12.306  12.680   0.915
11262SOL    HW235684  12.301  12.824   0.963
11263SOL     OW35685   1.935   0.630   4.331
11263SOL    HW135686   1.908   0.540   4.346
11263SOL    HW235687   1.989   0.625   4.251
11264SOL     OW35688  14.795   5.390   8.936
11264SOL    HW135689  14.810   5.404   9.030
11264SOL    HW235690  14.829   5.470   8.894
11265SOL     OW35691   2.553   4.581  12.386
11265SOL    HW135692   2.632   4.582  12.440
11265SOL    HW235693   2.544   4.490  12.358
11266SOL     OW35694  14.658   8.178   2.334
11266SOL    HW135695  14.576   8.211   2.300
11266SOL    HW235696  14.719   8.251   2.326
11267SOL     OW35697  12.572   8.732   1.879
11267SOL    HW135698  12.659   8.773   1.884
11267SOL    HW235699  12.539   8.735   1.968
11268SOL     OW35700  12.282   5.207   3.946
11268SOL    HW135701  12.223   5.178   4.015
11268SOL    HW235702  12.367   5.170   3.970
11269SOL     OW35703   0.954  13.633   0.877
11269SOL    HW135704   0.955  13.721   0.840
11269SOL    HW235705   1.040  13.596   0.855
11270SOL     OW35706  10.625  13.898   6.542
11270SOL    HW135707  10.662  13.976   6.583
11270SOL    HW235708  10.669  13.893   6.457
11271SOL     OW35709   6.026   9.610  14.204
11271SOL    HW135710   5.993   9.642  14.288
11271SOL    HW235711   5.955   9.628  14.142
11272SOL     OW35712   3.203   2.194  11.249
11272SOL    HW135713   3.110   2.188  11.227
11272SOL    HW235714   3.219   2.287  11.264
11273SOL     OW35715   8.054  11.558   3.052
11273SOL    HW135716   7.977  11.504   3.040
11273SOL    HW235717   8.048  11.624   2.983
11274SOL     OW35718   4.875  10.932  10.594
11274SOL    HW135719   4.889  10.919  10.500
11274SOL    HW235720   4.785  10.965  10.600
11275SOL     OW35721   9.963  13.347   8.934
11275SOL    HW135722   9.873  13.355   8.964
11275SOL    HW235723   9.962  13.384   8.846
11276SOL     OW35724   4.288   5.006  10.970
11276SOL    HW135725   4.324   4.917  10.974
11276SOL    HW235726   4.335   5.054  11.038
11277SOL     OW35727  10.868   3.282  10.977
11277SOL    HW135728  10.828   3.363  10.945
11277SOL    HW235729  10.953   3.278  10.932
11278SOL     OW35730   1.909  10.694  10.154
11278SOL    HW135731   1.817  10.684  10.131
11278SOL    HW235732   1.909  10.717  10.246
11279SOL     OW35733   4.209   4.642   6.041
11279SOL    HW135734   4.282   4.607   6.093
11279SOL    HW235735   4.130   4.614   6.087
11280SOL     OW35736   8.577  10.714   2.808
11280SOL    HW135737   8.511  10.682   2.746
11280SOL    HW235738   8.528  10.771   2.868
11281SOL     OW35739  10.701   5.396  12.860
11281SOL    HW135740  10.641   5.371  12.790
11281SOL    HW235741  10.693   5.491  12.868
11282SOL     OW35742   3.591   5.707   7.297
11282SOL    HW135743   3.521   5.703   7.232
11282SOL    HW235744   3.570   5.638   7.360
11283SOL     OW35745  10.413  10.032   9.968
11283SOL    HW135746  10.345   9.977  10.007
11283SOL    HW235747  10.492  10.014  10.019
11284SOL     OW35748  10.488   6.373   4.608
11284SOL    HW135749  10.485   6.445   4.544
11284SOL    HW235750  10.397   6.359   4.632
11285SOL     OW35751   7.259  10.110   2.585
11285SOL    HW135752   7.202  10.186   2.599
11285SOL    HW235753   7.245  10.085   2.494
11286SOL     OW35754   6.152   1.810   1.837
11286SOL    HW135755   6.134   1.736   1.895
11286SOL    HW235756   6.103   1.790   1.757
11287SOL     OW35757   7.312   0.646   0.535
11287SOL    HW135758   7.360   0.585   0.591
11287SOL    HW235759   7.301   0.599   0.453
11288SOL     OW35760   1.947  11.470  14.167
11288SOL    HW135761   1.988  11.533  14.226
11288SOL    HW235762   1.973  11.385  14.201
11289SOL     OW35763   9.266   5.660   7.855
11289SOL    HW135764   9.316   5.629   7.931
11289SOL    HW235765   9.250   5.581   7.803
11290SOL     OW35766   4.856   2.997   9.546
11290SOL    HW135767   4.804   3.060   9.496
11290SOL    HW235768   4.833   2.912   9.507
11291SOL     OW35769   5.096   5.104   6.341
11291SOL    HW135770   5.112   5.075   6.251
11291SOL    HW235771   5.009   5.072   6.362
11292SOL     OW35772  13.165   9.176   7.179
11292SOL    HW135773  13.213   9.256   7.159
11292SOL    HW235774  13.100   9.169   7.109
11293SOL     OW35775   5.366  11.021   7.760
11293SOL    HW135776   5.430  11.066   7.815
11293SOL    HW235777   5.282  11.061   7.782
11294SOL     OW35778  10.169   0.542   6.014
11294SOL    HW135779  10.235   0.495   5.963
11294SOL    HW235780  10.179   0.633   5.988
11295SOL     OW35781   0.953  13.857   8.047
11295SOL    HW135782   0.861  13.833   8.060
11295SOL    HW235783   0.979  13.810   7.968
11296SOL     OW35784   0.968  12.487  13.191
11296SOL    HW135785   0.905  12.424  13.155
11296SOL    HW235786   0.913  12.558  13.225
11297SOL     OW35787   0.106  10.552   1.211
11297SOL    HW135788   0.187  10.600   1.229
11297SOL    HW235789   0.131  10.483   1.150
11298SOL     OW35790   4.550   2.300   6.725
11298SOL    HW135791   4.498   2.311   6.805
11298SOL    HW235792   4.624   2.246   6.753
11299SOL     OW35793   4.636   2.109   5.689
11299SOL    HW135794   4.625   2.186   5.745
11299SOL    HW235795   4.730   2.105   5.671
11300SOL     OW35796   3.481   9.169  12.865
11300SOL    HW135797   3.461   9.076  12.877
11300SOL    HW235798   3.518   9.174  12.777
11301SOL     OW35799   0.002   5.432  10.254
11301SOL    HW135800   0.076   5.405  10.308
11301SOL    HW235801  14.857   5.524  10.277
11302SOL     OW35802  10.106   2.719  14.082
11302SOL    HW135803  10.165   2.727  14.157
11302SOL    HW235804  10.082   2.626  14.081
11303SOL     OW35805   7.991   8.180   3.525
11303SOL    HW135806   7.983   8.167   3.620
11303SOL    HW235807   7.988   8.275   3.514
11304SOL     OW35808   3.765  11.611  12.941
11304SOL    HW135809   3.730  11.564  13.017
11304SOL    HW235810   3.707  11.587  12.869
11305SOL     OW35811   8.526  11.511   7.826
11305SOL    HW135812   8.598  11.558   7.868
11305SOL    HW235813   8.509  11.561   7.746
11306SOL     OW35814   9.124   6.290  10.260
11306SOL    HW135815   9.172   6.236  10.197
11306SOL    HW235816   9.118   6.376  10.219
11307SOL     OW35817   3.569  14.248  11.523
11307SOL    HW135818   3.635  14.300  11.570
11307SOL    HW235819   3.487  14.269  11.567
11308SOL     OW35820   2.753   4.774   8.877
11308SOL    HW135821   2.704   4.806   8.954
11308SOL    HW235822   2.756   4.679   8.888
11309SOL     OW35823  11.032  10.281   6.963
11309SOL    HW135824  11.002  10.233   6.886
11309SOL    HW235825  11.123  10.253   6.975
11310SOL     OW35826   4.864   4.418   7.739
11310SOL    HW135827   4.815   4.388   7.815
11310SOL    HW235828   4.803   4.473   7.691
11311SOL     OW35829   3.566   5.556  10.228
11311SOL    HW135830   3.645   5.528  10.182
11311SOL    HW235831   3.593   5.631  10.281
11312SOL     OW35832   5.627   1.594   9.072
11312SOL    HW135833   5.634   1.534   9.146
11312SOL    HW235834   5.660   1.678   9.105
11313SOL     OW35835  13.042   3.804   3.766
11313SOL    HW135836  13.019   3.711   3.764
11313SOL    HW235837  12.960   3.848   3.788
11314SOL     OW35838   3.965   4.987   5.404
11314SOL    HW135839   3.876   4.973   5.437
11314SOL    HW235840   4.022   4.963   5.477
11315SOL     OW35841   4.216  10.907  11.610
11315SOL    HW135842   4.220  10.946  11.697
11315SOL    HW235843   4.243  10.977  11.551
11316SOL     OW35844   7.962   8.479  10.488
11316SOL    HW135845   7.877   8.520  10.471
11316SOL    HW235846   7.940   8.392  10.522
11317SOL     OW35847   7.877   9.102   8.491
11317SOL    HW135848   7.941   9.083   8.560
11317SOL    HW235849   7.876   9.198   8.485
11318SOL     OW35850   6.066  10.252   7.955
11318SOL    HW135851   5.990  10.215   7.910
11318SOL    HW235852   6.076  10.339   7.917
11319SOL     OW35853   6.931   6.263  13.131
11319SOL    HW135854   7.026   6.262  13.141
11319SOL    HW235855   6.909   6.355  13.121
11320SOL     OW35856  11.680   3.206   1.396
11320SOL    HW135857  11.758   3.232   1.445
11320SOL    HW235858  11.699   3.229   1.305
11321SOL     OW35859   4.086   9.680   1.667
11321SOL    HW135860   4.019   9.698   1.733
11321SOL    HW235861   4.078   9.752   1.605
11322SOL     OW35862  14.395   5.672   9.241
11322SOL    HW135863  14.339   5.596   9.223
11322SOL    HW235864  14.334   5.744   9.256
11323SOL     OW35865   4.947   7.734   2.951
11323SOL    HW135866   4.921   7.782   2.873
11323SOL    HW235867   4.969   7.802   3.015
11324SOL     OW35868  12.659   5.916   0.029
11324SOL    HW135869  12.631   5.999   0.068
11324SOL    HW235870  12.683   5.939  14.809
11325SOL     OW35871   0.703  11.805  11.263
11325SOL    HW135872   0.758  11.752  11.321
11325SOL    HW235873   0.619  11.760  11.262
11326SOL     OW35874   0.591   3.400  14.101
11326SOL    HW135875   0.586   3.486  14.058
11326SOL    HW235876   0.610   3.421  14.192
11327SOL     OW35877   0.398  12.134   4.035
11327SOL    HW135878   0.492  12.114   4.026
11327SOL    HW235879   0.363  12.127   3.947
11328SOL     OW35880   3.206   7.515   6.416
11328SOL    HW135881   3.233   7.516   6.508
11328SOL    HW235882   3.193   7.608   6.394
11329SOL     OW35883   2.444  14.863   8.813
11329SOL    HW135884   2.499   0.054   8.763
11329SOL    HW235885   2.499  14.835   8.886
11330SOL     OW35886   1.200  10.570   6.736
11330SOL    HW135887   1.130  10.596   6.676
11330SOL    HW235888   1.268  10.535   6.679
11331SOL     OW35889   8.797  14.490  11.014
11331SOL    HW135890   8.836  14.412  11.051
11331SOL    HW235891   8.774  14.544  11.090
11332SOL     OW35892   9.907  11.755  12.675
11332SOL    HW135893   9.892  11.785  12.764
11332SOL    HW235894   9.829  11.784  12.626
11333SOL     OW35895   3.001   4.605   7.876
11333SOL    HW135896   3.024   4.597   7.968
11333SOL    HW235897   3.060   4.672   7.842
11334SOL     OW35898   5.004   2.178   5.402
11334SOL    HW135899   5.009   2.273   5.411
11334SOL    HW235900   5.095   2.150   5.389
11335SOL     OW35901   9.784  10.763   3.740
11335SOL    HW135902   9.797  10.734   3.831
11335SOL    HW235903   9.757  10.684   3.694
11336SOL     OW35904   4.680   7.440  11.326
11336SOL    HW135905   4.633   7.357  11.327
11336SOL    HW235906   4.614   7.506  11.349
11337SOL     OW35907  13.429   6.943  13.380
11337SOL    HW135908  13.448   6.926  13.472
11337SOL    HW235909  13.485   7.017  13.357
11338SOL     OW35910   9.407   7.842   3.518
11338SOL    HW135911   9.499   7.832   3.494
11338SOL    HW235912   9.401   7.807   3.607
11339SOL     OW35913   2.490   6.746  12.460
11339SOL    HW135914   2.578   6.745  12.496
11339SOL    HW235915   2.500   6.722  12.369
11340SOL     OW35916  10.802   3.767   9.623
11340SOL    HW135917  10.819   3.759   9.717
11340SOL    HW235918  10.881   3.809   9.588
11341SOL     OW35919   8.663  14.736   8.866
11341SOL    HW135920   8.721  14.802   8.903
11341SOL    HW235921   8.609  14.707   8.940
11342SOL     OW35922   3.084   1.045   6.611
11342SOL    HW135923   3.150   0.984   6.579
11342SOL    HW235924   3.032   1.067   6.534
11343SOL     OW35925  11.936   4.813  13.321
11343SOL    HW135926  11.901   4.731  13.356
11343SOL    HW235927  11.889   4.881  13.370
11344SOL     OW35928  11.814   2.250   7.191
11344SOL    HW135929  11.766   2.330   7.210
11344SOL    HW235930  11.790   2.227   7.101
11345SOL     OW35931  10.568   0.092  11.858
11345SOL    HW135932  10.654   0.132  11.847
11345SOL    HW235933  10.506   0.164  11.844
11346SOL     OW35934   9.953   6.371   9.805
11346SOL    HW135935   9.913   6.309   9.744
11346SOL    HW235936   9.988   6.316   9.875
11347SOL     OW35937  14.568   4.820   9.107
11347SOL    HW135938  14.574   4.768   9.188
11347SOL    HW235939  14.546   4.756   9.039
11348SOL     OW35940  12.000   6.525   6.307
11348SOL    HW135941  12.022   6.467   6.379
11348SOL    HW235942  11.967   6.466   6.238
11349SOL     OW35943  13.426   5.129   1.285
11349SOL    HW135944  13.453   5.145   1.375
11349SOL    HW235945  13.353   5.190   1.271
11350SOL     OW35946   6.904   1.119  13.428
11350SOL    HW135947   6.989   1.120  13.384
11350SOL    HW235948   6.847   1.171  13.371
11351SOL     OW35949   4.020   0.643  13.107
11351SOL    HW135950   3.931   0.674  13.091
11351SOL    HW235951   4.016   0.601  13.193
11352SOL     OW35952   3.020   4.913   9.539
11352SOL    HW135953   3.099   4.957   9.509
11352SOL    HW235954   3.036   4.820   9.523
11353SOL     OW35955   9.976  13.762   1.827
11353SOL    HW135956   9.965  13.845   1.780
11353SOL    HW235957   9.887  13.726   1.832
11354SOL     OW35958   3.525   9.125   7.888
11354SOL    HW135959   3.554   9.190   7.823
11354SOL    HW235960   3.452   9.166   7.933
11355SOL     OW35961   2.010   3.685   8.382
11355SOL    HW135962   1.995   3.778   8.401
11355SOL    HW235963   2.027   3.683   8.288
11356SOL     OW35964   6.333   2.705   7.739
11356SOL    HW135965   6.378   2.738   7.660
11356SOL    HW235966   6.294   2.622   7.711
11357SOL     OW35967  11.926   9.120   2.165
11357SOL    HW135968  11.937   9.069   2.245
11357SOL    HW235969  11.940   9.057   2.094
11358SOL     OW35970   1.232   4.668  10.422
11358SOL    HW135971   1.199   4.639  10.507
11358SOL    HW235972   1.307   4.724  10.443
11359SOL     OW35973   3.033   5.111   6.609
11359SOL    HW135974   3.056   5.054   6.683
11359SOL    HW235975   3.094   5.185   6.616
11360SOL     OW35976   6.145  13.936   5.555
11360SOL    HW135977   6.220  13.925   5.497
11360SOL    HW235978   6.146  14.028   5.579
11361SOL     OW35979   3.387  13.459   7.416
11361SOL    HW135980   3.300  13.423   7.401
11361SOL    HW235981   3.372  13.549   7.443
11362SOL     OW35982   9.246  14.626   0.168
11362SOL    HW135983   9.153  14.648   0.157
11362SOL    HW235984   9.268  14.663   0.254
11363SOL     OW35985   9.664  12.937  11.421
11363SOL    HW135986   9.577  12.906  11.444
11363SOL    HW235987   9.709  12.947  11.505
11364SOL     OW35988   5.124   0.406   8.731
11364SOL    HW135989   5.184   0.450   8.793
11364SOL    HW235990   5.162   0.424   8.645
11365SOL     OW35991   8.582   2.012   8.557
11365SOL    HW135992   8.558   1.920   8.546
11365SOL    HW235993   8.540   2.039   8.638
11366SOL     OW35994   4.289  10.650  12.522
11366SOL    HW135995   4.377  10.645  12.486
11366SOL    HW235996   4.240  10.583  12.474
11367SOL     OW35997   3.434   4.641   7.902
11367SOL    HW135998   3.471   4.583   7.836
11367SOL    HW235999   3.398   4.582   7.968
11368SOL     OW36000  11.416   9.306   9.968
11368SOL    HW136001  11.512   9.314   9.975
11368SOL    HW236002  11.393   9.366   9.896
11369SOL     OW36003   6.176  14.739  11.528
11369SOL    HW136004   6.177  14.833  11.544
11369SOL    HW236005   6.083  14.717  11.524
11370SOL     OW36006   3.921  11.760   9.813
11370SOL    HW136007   3.875  11.680   9.785
11370SOL    HW236008   3.883  11.829   9.759
11371SOL     OW36009   5.774   6.623   6.084
11371SOL    HW136010   5.820   6.604   6.002
11371SOL    HW236011   5.701   6.561   6.086
11372SOL     OW36012   0.707  13.738   4.352
11372SOL    HW136013   0.716  13.759   4.259
11372SOL    HW236014   0.726  13.821   4.397
11373SOL     OW36015  11.495  13.491  12.057
11373SOL    HW136016  11.417  13.528  12.099
11373SOL    HW236017  11.460  13.443  11.982
11374SOL     OW36018   5.940  13.220   2.460
11374SOL    HW136019   5.974  13.195   2.374
11374SOL    HW236020   5.895  13.143   2.492
11375SOL     OW36021   9.517   0.274   7.070
11375SOL    HW136022   9.558   0.188   7.066
11375SOL    HW236023   9.483   0.280   7.160
11376SOL     OW36024   2.066   8.596   4.393
11376SOL    HW136025   2.111   8.655   4.333
11376SOL    HW236026   1.989   8.644   4.423
11377SOL     OW36027   6.809   5.125   8.290
11377SOL    HW136028   6.865   5.202   8.287
11377SOL    HW236029   6.869   5.051   8.278
11378SOL     OW36030   8.726  10.911  14.689
11378SOL    HW136031   8.641  10.945  14.662
11378SOL    HW236032   8.711  10.875  14.776
11379SOL     OW36033   1.050  13.688   1.912
11379SOL    HW136034   1.140  13.699   1.882
11379SOL    HW236035   1.003  13.659   1.834
11380SOL     OW36036   4.022   7.671  12.138
11380SOL    HW136037   3.991   7.580  12.134
11380SOL    HW236038   4.117   7.663  12.149
11381SOL     OW36039   4.716   4.190   3.394
11381SOL    HW136040   4.674   4.214   3.477
11381SOL    HW236041   4.807   4.217   3.405
11382SOL     OW36042   2.571   3.749  13.561
11382SOL    HW136043   2.558   3.731  13.468
11382SOL    HW236044   2.586   3.843  13.566
11383SOL     OW36045   7.869   7.160   5.662
11383SOL    HW136046   7.926   7.234   5.680
11383SOL    HW236047   7.795   7.172   5.721
11384SOL     OW36048   9.773   0.984   2.298
11384SOL    HW136049   9.856   0.948   2.330
11384SOL    HW236050   9.748   1.049   2.364
11385SOL     OW36051   6.869   9.475  12.276
11385SOL    HW136052   6.964   9.483  12.286
11385SOL    HW236053   6.835   9.562  12.295
11386SOL     OW36054   1.213   2.666   2.164
11386SOL    HW136055   1.252   2.752   2.149
11386SOL    HW236056   1.215   2.655   2.259
11387SOL     OW36057  11.853  10.093   7.178
11387SOL    HW136058  11.799  10.141   7.116
11387SOL    HW236059  11.894  10.024   7.127
11388SOL     OW36060   8.582  14.198  14.062
11388SOL    HW136061   8.652  14.159  14.009
11388SOL    HW236062   8.527  14.124  14.087
11389SOL     OW36063   0.913   0.022   2.757
11389SOL    HW136064   0.905  14.821   2.821
11389SOL    HW236065   0.985  14.864   2.700
11390SOL     OW36066   3.918  14.441  14.283
11390SOL    HW136067   3.866  14.430  14.363
11390SOL    HW236068   3.927  14.353  14.248
11391SOL     OW36069  10.878  13.902  11.823
11391SOL    HW136070  10.934  13.948  11.762
11391SOL    HW236071  10.876  13.957  11.901
11392SOL     OW36072   8.692  12.955   4.409
11392SOL    HW136073   8.641  12.898   4.352
11392SOL    HW236074   8.719  13.027   4.353
11393SOL     OW36075   9.866  11.322   2.856
11393SOL    HW136076   9.883  11.255   2.789
11393SOL    HW236077   9.903  11.286   2.936
11394SOL     OW36078  12.750   4.961   0.694
11394SOL    HW136079  12.754   4.904   0.771
11394SOL    HW236080  12.830   4.941   0.645
11395SOL     OW36081  14.864   6.236   6.300
11395SOL    HW136082  14.869   6.173   6.228
11395SOL    HW236083   0.035   6.191   6.374
11396SOL     OW36084   4.927   0.778   0.904
11396SOL    HW136085   4.834   0.780   0.883
11396SOL    HW236086   4.969   0.743   0.826
11397SOL     OW36087   5.798  13.751   8.729
11397SOL    HW136088   5.744  13.768   8.806
11397SOL    HW236089   5.751  13.793   8.657
11398SOL     OW36090   6.543   1.467   1.205
11398SOL    HW136091   6.522   1.412   1.281
11398SOL    HW236092   6.504   1.552   1.224
11399SOL     OW36093   6.256   1.627  14.806
11399SOL    HW136094   6.342   1.587  14.816
11399SOL    HW236095   6.238   1.622  14.712
11400SOL     OW36096   0.069   4.783  12.269
11400SOL    HW136097   0.075   4.745  12.181
11400SOL    HW236098   0.025   4.717  12.321
11401SOL     OW36099   4.851   6.961  11.607
11401SOL    HW136100   4.888   6.873  11.611
11401SOL    HW236101   4.847   6.989  11.698
11402SOL     OW36102   3.039  10.397   5.131
11402SOL    HW136103   2.954  10.397   5.175
11402SOL    HW236104   3.038  10.318   5.078
11403SOL     OW36105  12.055   8.653   4.012
11403SOL    HW136106  12.055   8.557   4.008
11403SOL    HW236107  11.985   8.674   4.074
11404SOL     OW36108   7.754   8.169   8.479
11404SOL    HW136109   7.752   8.205   8.568
11404SOL    HW236110   7.772   8.244   8.423
11405SOL     OW36111  11.605   5.887   2.652
11405SOL    HW136112  11.677   5.825   2.661
11405SOL    HW236113  11.528   5.832   2.637
11406SOL     OW36114   1.814   8.745   4.472
11406SOL    HW136115   1.753   8.789   4.413
11406SOL    HW236116   1.837   8.811   4.537
11407SOL     OW36117   7.343   8.308  10.066
11407SOL    HW136118   7.411   8.368  10.037
11407SOL    HW236119   7.327   8.251   9.991
11408SOL     OW36120   9.330   6.467   1.396
11408SOL    HW136121   9.250   6.429   1.359
11408SOL    HW236122   9.303   6.499   1.482
11409SOL     OW36123   6.067   8.687  12.662
11409SOL    HW136124   5.975   8.679  12.638
11409SOL    HW236125   6.071   8.664  12.755
11410SOL     OW36126   8.920   3.901  10.318
11410SOL    HW136127   8.973   3.833  10.278
11410SOL    HW236128   8.984   3.964  10.352
11411SOL     OW36129  14.433  10.718   7.113
11411SOL    HW136130  14.452  10.752   7.201
11411SOL    HW236131  14.360  10.658   7.127
11412SOL     OW36132  13.320   5.521  10.288
11412SOL    HW136133  13.355   5.540  10.375
11412SOL    HW236134  13.358   5.437  10.264
11413SOL     OW36135   5.958   5.061   0.863
11413SOL    HW136136   5.875   5.096   0.893
11413SOL    HW236137   6.023   5.127   0.889
11414SOL     OW36138  14.090   7.566   1.682
11414SOL    HW136139  14.025   7.580   1.613
11414SOL    HW236140  14.160   7.629   1.663
11415SOL     OW36141  12.834   6.052   7.280
11415SOL    HW136142  12.927   6.063   7.262
11415SOL    HW236143  12.799   6.141   7.282
11416SOL     OW36144  13.170  12.673   4.416
11416SOL    HW136145  13.146  12.672   4.323
11416SOL    HW236146  13.219  12.754   4.428
11417SOL     OW36147   5.009   4.218  11.757
11417SOL    HW136148   4.982   4.139  11.711
11417SOL    HW236149   4.964   4.289  11.710
11418SOL     OW36150   3.440  13.230  13.984
11418SOL    HW136151   3.530  13.248  14.012
11418SOL    HW236152   3.434  13.135  13.984
11419SOL     OW36153   7.866  10.842   0.200
11419SOL    HW136154   7.952  10.831   0.161
11419SOL    HW236155   7.883  10.893   0.280
11420SOL     OW36156  11.699  10.612   0.006
11420SOL    HW136157  11.634  10.660   0.057
11420SOL    HW236158  11.686  10.520   0.031
11421SOL     OW36159  11.172   1.042   3.974
11421SOL    HW136160  11.111   1.073   3.906
11421SOL    HW236161  11.189   0.951   3.951
11422SOL     OW36162  12.668   9.998   7.111
11422SOL    HW136163  12.595  10.017   7.170
11422SOL    HW236164  12.730  10.069   7.127
11423SOL     OW36165  11.625  13.710   7.523
11423SOL    HW136166  11.673  13.785   7.558
11423SOL    HW236167  11.656  13.700   7.433
11424SOL     OW36168   1.227   1.567   0.853
11424SOL    HW136169   1.282   1.632   0.897
11424SOL    HW236170   1.192   1.514   0.924
11425SOL     OW36171  10.042   4.845   0.210
11425SOL    HW136172  10.051   4.860   0.116
11425SOL    HW236173   9.961   4.889   0.234
11426SOL     OW36174   7.534   2.150  13.008
11426SOL    HW136175   7.530   2.137  12.914
11426SOL    HW236176   7.539   2.246  13.018
11427SOL     OW36177  12.303   1.253  10.812
11427SOL    HW136178  12.295   1.184  10.746
11427SOL    HW236179  12.288   1.334  10.763
11428SOL     OW36180  11.638   5.813   4.673
11428SOL    HW136181  11.601   5.810   4.761
11428SOL    HW236182  11.597   5.889   4.632
11429SOL     OW36183   1.138   1.228   8.893
11429SOL    HW136184   1.219   1.179   8.906
11429SOL    HW236185   1.069   1.162   8.902
11430SOL     OW36186   8.186   3.751  10.309
11430SOL    HW136187   8.201   3.836  10.350
11430SOL    HW236188   8.096   3.729  10.332
11431SOL     OW36189  11.392  10.113  14.551
11431SOL    HW136190  11.369  10.084  14.639
11431SOL    HW236191  11.409  10.032  14.502
11432SOL     OW36192  12.580   7.040   5.362
11432SOL    HW136193  12.494   7.082   5.367
11432SOL    HW236194  12.601   7.041   5.269
11433SOL     OW36195  12.966   9.557  10.302
11433SOL    HW136196  12.962   9.478  10.357
11433SOL    HW236197  12.940   9.527  10.215
11434SOL     OW36198   2.893  13.814   2.124
11434SOL    HW136199   2.852  13.759   2.191
11434SOL    HW236200   2.908  13.754   2.050
11435SOL     OW36201  11.866  10.397   4.021
11435SOL    HW136202  11.874  10.490   3.998
11435SOL    HW236203  11.772  10.379   4.013
11436SOL     OW36204  14.374   6.042   2.690
11436SOL    HW136205  14.418   5.995   2.620
11436SOL    HW236206  14.407   6.132   2.683
11437SOL     OW36207   5.256   2.407   6.424
11437SOL    HW136208   5.289   2.480   6.476
11437SOL    HW236209   5.204   2.354   6.485
11438SOL     OW36210   8.656   3.409   0.505
11438SOL    HW136211   8.683   3.480   0.564
11438SOL    HW236212   8.639   3.452   0.421
11439SOL     OW36213   5.405  14.494  10.230
11439SOL    HW136214   5.428  14.481  10.322
11439SOL    HW236215   5.343  14.424  10.210
11440SOL     OW36216   4.537   1.486   6.613
11440SOL    HW136217   4.535   1.580   6.628
11440SOL    HW236218   4.445   1.460   6.609
11441SOL     OW36219   1.267   5.351  10.898
11441SOL    HW136220   1.282   5.347  10.993
11441SOL    HW236221   1.178   5.384  10.889
11442SOL     OW36222   0.252   3.762  11.547
11442SOL    HW136223   0.299   3.837  11.583
11442SOL    HW236224   0.167   3.764  11.591
11443SOL     OW36225   5.871   3.568   6.074
11443SOL    HW136226   5.808   3.632   6.105
11443SOL    HW236227   5.944   3.620   6.042
11444SOL     OW36228   4.417  13.242   7.025
11444SOL    HW136229   4.399  13.167   6.969
11444SOL    HW236230   4.487  13.289   6.979
11445SOL     OW36231  14.566  10.089   1.888
11445SOL    HW136232  14.511  10.090   1.810
11445SOL    HW236233  14.524  10.026   1.946
11446SOL     OW36234  10.142  13.033  11.169
11446SOL    HW136235  10.210  12.979  11.209
11446SOL    HW236236  10.131  12.996  11.082
11447SOL     OW36237   4.519   5.146  11.694
11447SOL    HW136238   4.567   5.207  11.638
11447SOL    HW236239   4.429   5.178  11.690
11448SOL     OW36240   8.063   7.054   3.127
11448SOL    HW136241   8.092   7.013   3.208
11448SOL    HW236242   8.051   7.147   3.150
11449SOL     OW36243   6.991   3.997  10.948
11449SOL    HW136244   6.936   3.959  10.880
11449SOL    HW236245   6.938   4.068  10.985
11450SOL     OW36246   1.589  11.199   5.114
11450SOL    HW136247   1.561  11.242   5.033
11450SOL    HW236248   1.622  11.113   5.085
11451SOL     OW36249   7.446   9.574   9.721
11451SOL    HW136250   7.415   9.665   9.712
11451SOL    HW236251   7.380   9.532   9.777
11452SOL     OW36252  13.824   8.728  14.358
11452SOL    HW136253  13.863   8.735  14.271
11452SOL    HW236254  13.839   8.814  14.398
11453SOL     OW36255   3.986   7.012   1.307
11453SOL    HW136256   4.029   6.928   1.322
11453SOL    HW236257   3.928   6.997   1.233
11454SOL     OW36258   9.736   1.344  12.141
11454SOL    HW136259   9.732   1.315  12.050
11454SOL    HW236260   9.739   1.264  12.192
11455SOL     OW36261   9.176  13.178  13.028
11455SOL    HW136262   9.131  13.229  13.096
11455SOL    HW236263   9.230  13.242  12.982
11456SOL     OW36264  13.753   9.620   2.652
11456SOL    HW136265  13.843   9.609   2.683
11456SOL    HW236266  13.704   9.549   2.693
11457SOL     OW36267   5.460   0.475   6.334
11457SOL    HW136268   5.527   0.525   6.381
11457SOL    HW236269   5.431   0.532   6.263
11458SOL     OW36270  11.439  12.698   4.494
11458SOL    HW136271  11.440  12.616   4.444
11458SOL    HW236272  11.488  12.760   4.440
11459SOL     OW36273   5.399   3.004   9.461
11459SOL    HW136274   5.319   2.971   9.500
11459SOL    HW236275   5.449   3.040   9.534
11460SOL     OW36276  12.701  14.746   3.398
11460SOL    HW136277  12.706  14.831   3.442
11460SOL    HW236278  12.622  14.753   3.343
11461SOL     OW36279   3.867   5.143   8.128
11461SOL    HW136280   3.827   5.094   8.057
11461SOL    HW236281   3.938   5.193   8.087
11462SOL     OW36282  14.337   4.239   6.617
11462SOL    HW136283  14.248   4.265   6.595
11462SOL    HW236284  14.349   4.154   6.573
11463SOL     OW36285   6.474   6.379   6.243
11463SOL    HW136286   6.431   6.405   6.325
11463SOL    HW236287   6.495   6.286   6.257
11464SOL     OW36288  10.890  10.121   3.001
11464SOL    HW136289  10.833  10.048   3.025
11464SOL    HW236290  10.969  10.080   2.965
11465SOL     OW36291  10.957  11.135   2.620
11465SOL    HW136292  10.961  11.043   2.594
11465SOL    HW236293  10.997  11.137   2.707
11466SOL     OW36294  10.209   9.719  13.362
11466SOL    HW136295  10.134   9.682  13.314
11466SOL    HW236296  10.255   9.773  13.298
11467SOL     OW36297  11.208   1.571   8.298
11467SOL    HW136298  11.284   1.520   8.270
11467SOL    HW236299  11.183   1.622   8.221
11468SOL     OW36300   0.172   2.205   0.929
11468SOL    HW136301   0.244   2.143   0.922
11468SOL    HW236302   0.210   2.289   0.906
11469SOL     OW36303  12.655   1.966   4.393
11469SOL    HW136304  12.633   1.920   4.474
11469SOL    HW236305  12.614   2.052   4.403
11470SOL     OW36306   5.727   1.022   5.393
11470SOL    HW136307   5.675   0.959   5.443
11470SOL    HW236308   5.671   1.099   5.386
11471SOL     OW36309   7.149   0.268  11.877
11471SOL    HW136310   7.056   0.255  11.863
11471SOL    HW236311   7.192   0.204  11.821
11472SOL     OW36312  12.971  12.152  12.634
11472SOL    HW136313  12.886  12.196  12.632
11472SOL    HW236314  12.993  12.147  12.727
11473SOL     OW36315   1.909   8.403   9.773
11473SOL    HW136316   1.889   8.334   9.837
11473SOL    HW236317   2.005   8.410   9.774
11474SOL     OW36318  13.455  13.879   0.388
11474SOL    HW136319  13.392  13.872   0.316
11474SOL    HW236320  13.408  13.926   0.456
11475SOL     OW36321  11.401   6.149   7.573
11475SOL    HW136322  11.462   6.098   7.521
11475SOL    HW236323  11.325   6.092   7.584
11476SOL     OW36324  10.637  10.764   5.602
11476SOL    HW136325  10.591  10.690   5.642
11476SOL    HW236326  10.569  10.830   5.589
11477SOL     OW36327   1.366  11.777  13.577
11477SOL    HW136328   1.458  11.769  13.603
11477SOL    HW236329   1.325  11.825  13.649
11478SOL     OW36330  10.415   9.395   3.371
11478SOL    HW136331  10.362   9.456   3.423
11478SOL    HW236332  10.392   9.308   3.405
11479SOL     OW36333   8.665   8.238   0.572
11479SOL    HW136334   8.684   8.275   0.486
11479SOL    HW236335   8.678   8.310   0.633
11480SOL     OW36336   0.160  13.446  14.408
11480SOL    HW136337   0.244  13.400  14.412
11480SOL    HW236338   0.170  13.519  14.469
11481SOL     OW36339   8.402  13.119  10.387
11481SOL    HW136340   8.416  13.082  10.474
11481SOL    HW236341   8.316  13.086  10.361
11482SOL     OW36342  14.526   8.871   2.732
11482SOL    HW136343  14.497   8.782   2.712
11482SOL    HW236344  14.502   8.922   2.655
11483SOL     OW36345   5.913   8.649   6.881
11483SOL    HW136346   5.855   8.575   6.899
11483SOL    HW236347   5.908   8.661   6.786
11484SOL     OW36348   0.227   3.430   2.698
11484SOL    HW136349   0.257   3.446   2.788
11484SOL    HW236350   0.222   3.335   2.691
11485SOL     OW36351   4.124  12.826  10.590
11485SOL    HW136352   4.157  12.887  10.524
11485SOL    HW236353   4.042  12.794  10.553
11486SOL     OW36354  13.190  11.313   1.279
11486SOL    HW136355  13.133  11.341   1.350
11486SOL    HW236356  13.143  11.241   1.237
11487SOL     OW36357   8.129   1.706  11.843
11487SOL    HW136358   8.049   1.673  11.883
11487SOL    HW236359   8.175   1.751  11.914
11488SOL     OW36360   1.389   8.073  10.206
11488SOL    HW136361   1.326   8.141  10.227
11488SOL    HW236362   1.409   8.031  10.289
11489SOL     OW36363  12.714   2.496   2.586
11489SOL    HW136364  12.689   2.431   2.520
11489SOL    HW236365  12.637   2.506   2.641
11490SOL     OW36366  13.760   3.061  13.596
11490SOL    HW136367  13.817   2.988  13.623
11490SOL    HW236368  13.695   3.021  13.539
11491SOL     OW36369  11.205   5.352   3.580
11491SOL    HW136370  11.268   5.415   3.615
11491SOL    HW236371  11.223   5.350   3.486
11492SOL     OW36372  12.667  11.598   2.965
11492SOL    HW136373  12.703  11.686   2.969
11492SOL    HW236374  12.588  11.601   3.020
11493SOL     OW36375   7.629  10.233  14.329
11493SOL    HW136376   7.718  10.202  14.348
11493SOL    HW236377   7.639  10.290  14.253
11494SOL     OW36378   3.542  14.334  14.705
11494SOL    HW136379   3.494  14.275  14.763
11494SOL    HW236380   3.503  14.420  14.720
11495SOL     OW36381   3.037  14.800  10.749
11495SOL    HW136382   2.951  14.789  10.707
11495SOL    HW236383   3.065   0.019  10.724
11496SOL     OW36384   3.342  11.725   0.401
11496SOL    HW136385   3.411  11.677   0.356
11496SOL    HW236386   3.385  11.762   0.478
11497SOL     OW36387  11.389   3.503  10.832
11497SOL    HW136388  11.475   3.545  10.825
11497SOL    HW236389  11.409   3.414  10.859
11498SOL     OW36390  13.942  11.785   3.183
11498SOL    HW136391  13.851  11.815   3.177
11498SOL    HW236392  13.989  11.837   3.118
11499SOL     OW36393  14.763   9.396  14.586
11499SOL    HW136394  14.771   9.470  14.526
11499SOL    HW236395  14.688   9.417  14.641
11500SOL     OW36396   5.223   3.216   8.004
11500SOL    HW136397   5.167   3.180   7.934
11500SOL    HW236398   5.310   3.181   7.985
11501SOL     OW36399  11.989   2.483   6.701
11501SOL    HW136400  12.074   2.518   6.674
11501SOL    HW236401  11.980   2.400   6.653
11502SOL     OW36402   5.268   9.468  13.450
11502SOL    HW136403   5.284   9.424  13.533
11502SOL    HW236404   5.173   9.465  13.439
11503SOL     OW36405   8.850  13.690   9.006
11503SOL    HW136406   8.891  13.640   9.076
11503SOL    HW236407   8.758  13.664   9.009
11504SOL     OW36408   0.122   9.093   8.231
11504SOL    HW136409   0.083   9.163   8.284
11504SOL    HW236410   0.200   9.133   8.192
11505SOL     OW36411   9.529  12.918  12.106
11505SOL    HW136412   9.489  12.991  12.154
11505SOL    HW236413   9.592  12.958  12.047
11506SOL     OW36414   0.329   4.483   9.319
11506SOL    HW136415   0.371   4.407   9.279
11506SOL    HW236416   0.380   4.501   9.398
11507SOL     OW36417   7.590   0.252   1.294
11507SOL    HW136418   7.580   0.254   1.389
11507SOL    HW236419   7.500   0.248   1.261
11508SOL     OW36420   0.351   0.008  14.285
11508SOL    HW136421   0.296   0.062  14.341
11508SOL    HW236422   0.333  14.787  14.313
11509SOL     OW36423  11.256   8.112  13.655
11509SOL    HW136424  11.191   8.139  13.719
11509SOL    HW236425  11.306   8.044  13.699
11510SOL     OW36426  13.788   9.356   5.075
11510SOL    HW136427  13.818   9.413   5.146
11510SOL    HW236428  13.774   9.416   5.001
11511SOL     OW36429   6.189   4.946   8.278
11511SOL    HW136430   6.264   4.912   8.328
11511SOL    HW236431   6.223   4.955   8.189
11512SOL     OW36432   4.988  12.581   1.941
11512SOL    HW136433   4.945  12.664   1.961
11512SOL    HW236434   5.024  12.592   1.853
11513SOL     OW36435   7.871   8.019  12.655
11513SOL    HW136436   7.819   7.976  12.723
11513SOL    HW236437   7.941   8.063  12.703
11514SOL     OW36438   6.136   4.877   2.101
11514SOL    HW136439   6.190   4.919   2.168
11514SOL    HW236440   6.183   4.895   2.019
11515SOL     OW36441  11.913   8.896   5.552
11515SOL    HW136442  11.838   8.954   5.565
11515SOL    HW236443  11.877   8.808   5.558
11516SOL     OW36444  10.329   7.757   3.752
11516SOL    HW136445  10.370   7.783   3.670
11516SOL    HW236446  10.252   7.706   3.726
11517SOL     OW36447  11.390   6.857  12.398
11517SOL    HW136448  11.357   6.775  12.435
11517SOL    HW236449  11.379   6.847  12.303
11518SOL     OW36450   0.742  12.549   2.129
11518SOL    HW136451   0.720  12.527   2.220
11518SOL    HW236452   0.753  12.465   2.086
11519SOL     OW36453   3.889  12.646   7.018
11519SOL    HW136454   3.821  12.712   7.002
11519SOL    HW236455   3.908  12.610   6.932
11520SOL     OW36456   8.655   1.311   4.720
11520SOL    HW136457   8.681   1.228   4.759
11520SOL    HW236458   8.594   1.350   4.782
11521SOL     OW36459  12.071  12.088   2.557
11521SOL    HW136460  11.993  12.057   2.511
11521SOL    HW236461  12.083  12.025   2.628
11522SOL     OW36462   3.529  13.669   3.208
11522SOL    HW136463   3.593  13.615   3.161
11522SOL    HW236464   3.541  13.757   3.172
11523SOL     OW36465  10.278   8.859  10.372
11523SOL    HW136466  10.304   8.946  10.342
11523SOL    HW236467  10.202   8.875  10.428
11524SOL     OW36468  10.859  14.273   4.198
11524SOL    HW136469  10.817  14.219   4.132
11524SOL    HW236470  10.844  14.227   4.281
11525SOL     OW36471   0.985   0.076   5.936
11525SOL    HW136472   0.943   0.124   5.865
11525SOL    HW236473   0.929   0.090   6.012
11526SOL     OW36474  13.473   7.721   0.825
11526SOL    HW136475  13.521   7.800   0.851
11526SOL    HW236476  13.529   7.680   0.759
11527SOL     OW36477   5.843   7.064   3.852
11527SOL    HW136478   5.917   7.022   3.808
11527SOL    HW236479   5.810   7.128   3.788
11528SOL     OW36480  12.706   5.946  13.626
11528SOL    HW136481  12.728   5.853  13.640
11528SOL    HW236482  12.692   5.980  13.714
11529SOL     OW36483   1.434   6.269   1.688
11529SOL    HW136484   1.358   6.263   1.745
11529SOL    HW236485   1.506   6.296   1.745
11530SOL     OW36486  10.778   9.307   0.589
11530SOL    HW136487  10.873   9.318   0.595
11530SOL    HW236488  10.766   9.214   0.570
11531SOL     OW36489   9.874   9.690  11.678
11531SOL    HW136490   9.959   9.648  11.691
11531SOL    HW236491   9.813   9.617  11.666
11532SOL     OW36492   0.826   1.879  10.507
11532SOL    HW136493   0.782   1.852  10.426
11532SOL    HW236494   0.919   1.875  10.486
11533SOL     OW36495   8.960  12.520   0.778
11533SOL    HW136496   8.952  12.444   0.719
11533SOL    HW236497   8.961  12.482   0.866
11534SOL     OW36498   5.786  12.504   4.606
11534SOL    HW136499   5.819  12.553   4.530
11534SOL    HW236500   5.772  12.570   4.673
11535SOL     OW36501   7.427   5.492   8.136
11535SOL    HW136502   7.475   5.509   8.217
11535SOL    HW236503   7.440   5.571   8.083
11536SOL     OW36504   9.242  11.974   2.035
11536SOL    HW136505   9.269  12.058   2.071
11536SOL    HW236506   9.229  11.990   1.942
11537SOL     OW36507  10.341  10.941   4.613
11537SOL    HW136508  10.397  10.909   4.543
11537SOL    HW236509  10.259  10.893   4.602
11538SOL     OW36510   5.338   1.146   8.009
11538SOL    HW136511   5.289   1.204   8.068
11538SOL    HW236512   5.302   1.163   7.923
11539SOL     OW36513   3.093  12.213   2.277
11539SOL    HW136514   3.160  12.181   2.337
11539SOL    HW236515   3.109  12.166   2.196
11540SOL     OW36516   7.464   4.501  14.664
11540SOL    HW136517   7.456   4.406  14.656
11540SOL    HW236518   7.400   4.536  14.603
11541SOL     OW36519   5.006   3.477   3.495
11541SOL    HW136520   4.976   3.562   3.463
11541SOL    HW236521   5.079   3.455   3.438
11542SOL     OW36522   7.459   5.445   4.767
11542SOL    HW136523   7.485   5.410   4.852
11542SOL    HW236524   7.396   5.382   4.734
11543SOL     OW36525  11.868   3.951   9.009
11543SOL    HW136526  11.782   3.989   9.025
11543SOL    HW236527  11.908   3.942   9.095
11544SOL     OW36528   0.025   0.473   6.315
11544SOL    HW136529   0.051   0.561   6.291
11544SOL    HW236530   0.011   0.477   6.410
11545SOL     OW36531   4.712   6.273  10.244
11545SOL    HW136532   4.719   6.262  10.149
11545SOL    HW236533   4.698   6.185  10.278
11546SOL     OW36534   4.416   2.852  12.059
11546SOL    HW136535   4.394   2.834  11.968
11546SOL    HW236536   4.468   2.932  12.056
11547SOL     OW36537   0.370  10.974  14.846
11547SOL    HW136538   0.321  10.998  14.767
11547SOL    HW236539   0.409  10.889  14.825
11548SOL     OW36540   5.169   8.055   7.083
11548SOL    HW136541   5.233   7.986   7.096
11548SOL    HW236542   5.205   8.131   7.129
11549SOL     OW36543  12.086   8.528   5.688
11549SOL    HW136544  12.127   8.607   5.723
11549SOL    HW236545  12.158   8.479   5.649
11550SOL     OW36546   7.932   5.723   3.539
11550SOL    HW136547   7.917   5.752   3.629
11550SOL    HW236548   7.966   5.801   3.494
11551SOL     OW36549   7.067   7.344   9.911
11551SOL    HW136550   7.122   7.309   9.982
11551SOL    HW236551   7.106   7.429   9.891
11552SOL     OW36552   3.695   2.858   5.049
11552SOL    HW136553   3.784   2.865   5.013
11552SOL    HW236554   3.669   2.768   5.034
11553SOL     OW36555   8.404   8.987   0.288
11553SOL    HW136556   8.460   8.920   0.326
11553SOL    HW236557   8.440   9.069   0.320
11554SOL     OW36558  12.631  14.655   2.146
11554SOL    HW136559  12.598  14.576   2.104
11554SOL    HW236560  12.702  14.624   2.203
11555SOL     OW36561   0.726  13.118  13.017
11555SOL    HW136562   0.737  13.082  12.930
11555SOL    HW236563   0.670  13.055  13.063
11556SOL     OW36564   4.099   5.846  14.007
11556SOL    HW136565   4.128   5.756  13.993
11556SOL    HW236566   4.073   5.849  14.099
11557SOL     OW36567  14.608   4.784   8.761
11557SOL    HW136568  14.591   4.708   8.706
11557SOL    HW236569  14.523   4.803   8.802
11558SOL     OW36570   7.506  14.457   6.286
11558SOL    HW136571   7.443  14.453   6.359
11558SOL    HW236572   7.457  14.498   6.215
11559SOL     OW36573   9.726  12.173   3.802
11559SOL    HW136574   9.706  12.082   3.779
11559SOL    HW236575   9.816  12.187   3.772
11560SOL     OW36576   0.051   9.484   1.387
11560SOL    HW136577  14.831   9.515   1.401
11560SOL    HW236578   0.091   9.484   1.474
11561SOL     OW36579   7.365   5.932   7.617
11561SOL    HW136580   7.432   5.924   7.549
11561SOL    HW236581   7.390   6.011   7.665
11562SOL     OW36582   5.185   0.383   2.132
11562SOL    HW136583   5.132   0.376   2.053
11562SOL    HW236584   5.209   0.476   2.136
11563SOL     OW36585  10.698   7.492  11.469
11563SOL    HW136586  10.777   7.442  11.488
11563SOL    HW236587  10.728   7.583  11.466
11564SOL     OW36588   9.534   0.198   0.307
11564SOL    HW136589   9.605   0.251   0.342
11564SOL    HW236590   9.466   0.262   0.285
11565SOL     OW36591   1.578   9.532   6.154
11565SOL    HW136592   1.547   9.441   6.150
11565SOL    HW236593   1.505   9.580   6.193
11566SOL     OW36594  14.283  13.527   1.300
11566SOL    HW136595  14.359  13.495   1.253
11566SOL    HW236596  14.240  13.587   1.239
11567SOL     OW36597   9.225   8.312  12.840
11567SOL    HW136598   9.142   8.358  12.845
11567SOL    HW236599   9.247   8.290  12.930
11568SOL     OW36600  11.512   1.789  11.545
11568SOL    HW136601  11.477   1.759  11.629
11568SOL    HW236602  11.484   1.880  11.539
11569SOL     OW36603   5.905   1.078  11.536
11569SOL    HW136604   5.982   1.120  11.574
11569SOL    HW236605   5.868   1.027  11.608
11570SOL     OW36606   0.387   9.028   5.706
11570SOL    HW136607   0.347   9.091   5.766
11570SOL    HW236608   0.346   8.944   5.727
11571SOL     OW36609  11.695  14.210   7.889
11571SOL    HW136610  11.680  14.302   7.913
11571SOL    HW236611  11.701  14.164   7.972
11572SOL     OW36612  12.170  10.124   9.225
11572SOL    HW136613  12.219  10.045   9.247
11572SOL    HW236614  12.235  10.184   9.188
11573SOL     OW36615   0.767   0.604   1.036
11573SOL    HW136616   0.830   0.534   1.055
11573SOL    HW236617   0.791   0.674   1.097
11574SOL     OW36618   1.552   9.066   7.559
11574SOL    HW136619   1.524   9.015   7.482
11574SOL    HW236620   1.606   9.136   7.523
11575SOL     OW36621   6.067   1.349  13.053
11575SOL    HW136622   6.003   1.412  13.086
11575SOL    HW236623   6.120   1.326  13.130
11576SOL     OW36624  12.432   1.650  14.290
11576SOL    HW136625  12.389   1.623  14.209
11576SOL    HW236626  12.429   1.745  14.289
11577SOL     OW36627   3.445   6.444   3.166
11577SOL    HW136628   3.438   6.353   3.139
11577SOL    HW236629   3.355   6.470   3.186
11578SOL     OW36630   2.549   8.950   4.897
11578SOL    HW136631   2.637   8.915   4.910
11578SOL    HW236632   2.516   8.963   4.986
11579SOL     OW36633   1.404  12.539   9.791
11579SOL    HW136634   1.331  12.586   9.832
11579SOL    HW236635   1.374  12.522   9.702
11580SOL     OW36636  13.800   0.266   3.774
11580SOL    HW136637  13.863   0.199   3.799
11580SOL    HW236638  13.714   0.226   3.789
11581SOL     OW36639  14.763   2.807   3.821
11581SOL    HW136640  14.779   2.811   3.915
11581SOL    HW236641  14.761   2.713   3.801
11582SOL     OW36642   9.448   7.316  12.477
11582SOL    HW136643   9.365   7.285  12.443
11582SOL    HW236644   9.498   7.342  12.400
11583SOL     OW36645  10.884  10.223  12.139
11583SOL    HW136646  10.822  10.156  12.113
11583SOL    HW236647  10.964  10.175  12.161
11584SOL     OW36648  12.500  13.748   1.085
11584SOL    HW136649  12.446  13.681   1.043
11584SOL    HW236650  12.578  13.700   1.115
11585SOL     OW36651   3.052  12.559  12.766
11585SOL    HW136652   3.076  12.649  12.743
11585SOL    HW236653   2.970  12.544  12.718
11586SOL     OW36654   4.343   6.078  12.788
11586SOL    HW136655   4.256   6.043  12.768
11586SOL    HW236656   4.329   6.136  12.863
11587SOL     OW36657  13.923  13.029   5.912
11587SOL    HW136658  13.962  13.107   5.951
11587SOL    HW236659  13.848  13.008   5.968
11588SOL     OW36660   8.251   1.898  12.007
11588SOL    HW136661   8.328   1.876  11.954
11588SOL    HW236662   8.278   1.878  12.097
11589SOL     OW36663   0.668  10.605   9.371
11589SOL    HW136664   0.677  10.698   9.349
11589SOL    HW236665   0.750  10.582   9.414
11590SOL     OW36666   6.442  10.926   2.280
11590SOL    HW136667   6.423  10.833   2.271
11590SOL    HW236668   6.481  10.951   2.196
11591SOL     OW36669   9.878  12.532  12.841
11591SOL    HW136670   9.956  12.574  12.876
11591SOL    HW236671   9.901  12.510  12.751
11592SOL     OW36672   4.088   2.963   8.459
11592SOL    HW136673   4.115   3.040   8.408
11592SOL    HW236674   4.069   2.897   8.392
11593SOL     OW36675   0.973   1.759  12.202
11593SOL    HW136676   1.039   1.719  12.145
11593SOL    HW236677   0.946   1.838  12.155
11594SOL     OW36678   9.868   7.188   8.193
11594SOL    HW136679   9.914   7.271   8.178
11594SOL    HW236680   9.922   7.143   8.259
11595SOL     OW36681   0.053   3.655   6.629
11595SOL    HW136682  14.842   3.604   6.618
11595SOL    HW236683   0.026   3.746   6.625
11596SOL     OW36684  14.044   4.902   7.717
11596SOL    HW136685  14.062   4.991   7.745
11596SOL    HW236686  14.128   4.868   7.686
11597SOL     OW36687   2.903  12.841   8.633
11597SOL    HW136688   2.877  12.889   8.554
11597SOL    HW236689   2.839  12.771   8.641
11598SOL     OW36690   2.597  13.746   0.625
11598SOL    HW136691   2.505  13.760   0.644
11598SOL    HW236692   2.614  13.655   0.652
11599SOL     OW36693   6.749  12.044  11.543
11599SOL    HW136694   6.739  12.015  11.452
11599SOL    HW236695   6.826  11.996  11.575
11600SOL     OW36696   2.696   3.804   7.021
11600SOL    HW136697   2.701   3.757   7.104
11600SOL    HW236698   2.788   3.822   6.999
11601SOL     OW36699  11.908   1.653   2.122
11601SOL    HW136700  11.883   1.671   2.213
11601SOL    HW236701  11.996   1.689   2.113
11602SOL     OW36702   0.027   4.916   7.805
11602SOL    HW136703   0.115   4.920   7.842
11602SOL    HW236704  14.861   5.004   7.817
11603SOL     OW36705  10.284  12.789   5.114
11603SOL    HW136706  10.377  12.794   5.135
11603SOL    HW236707  10.250  12.719   5.171
11604SOL     OW36708   6.581   1.711  13.239
11604SOL    HW136709   6.630   1.647  13.188
11604SOL    HW236710   6.539   1.768  13.174
11605SOL     OW36711   5.306  13.593   7.871
11605SOL    HW136712   5.390  13.553   7.894
11605SOL    HW236713   5.240  13.539   7.914
11606SOL     OW36714  10.172  10.897  11.120
11606SOL    HW136715  10.180  10.950  11.199
11606SOL    HW236716  10.113  10.946  11.063
11607SOL     OW36717   5.092   3.921   5.230
11607SOL    HW136718   5.135   3.842   5.197
11607SOL    HW236719   5.163   3.978   5.257
11608SOL     OW36720   0.776   3.986   2.546
11608SOL    HW136721   0.730   4.068   2.529
11608SOL    HW236722   0.799   3.991   2.639
11609SOL     OW36723   9.717   9.518  10.790
11609SOL    HW136724   9.686   9.595  10.742
11609SOL    HW236725   9.810   9.513  10.768
11610SOL     OW36726   0.823   1.328   9.319
11610SOL    HW136727   0.888   1.342   9.250
11610SOL    HW236728   0.780   1.246   9.294
11611SOL     OW36729  12.500   7.811  13.498
11611SOL    HW136730  12.406   7.806  13.482
11611SOL    HW236731  12.533   7.874  13.434
11612SOL     OW36732   0.151   9.990  11.919
11612SOL    HW136733   0.076   9.934  11.938
11612SOL    HW236734   0.209   9.936  11.866
11613SOL     OW36735   3.917  10.502  13.061
11613SOL    HW136736   3.921  10.590  13.097
11613SOL    HW236737   3.986  10.500  12.995
11614SOL     OW36738   4.025   6.092  11.081
11614SOL    HW136739   4.099   6.042  11.117
11614SOL    HW236740   3.949   6.060  11.130
11615SOL     OW36741   9.857  11.744  14.389
11615SOL    HW136742   9.862  11.777  14.299
11615SOL    HW236743   9.863  11.822  14.444
11616SOL     OW36744  14.108   9.921   7.332
11616SOL    HW136745  14.171   9.973   7.282
11616SOL    HW236746  14.036   9.981   7.350
11617SOL     OW36747   5.502   6.201   1.390
11617SOL    HW136748   5.518   6.289   1.354
11617SOL    HW236749   5.437   6.215   1.458
11618SOL     OW36750  14.524  13.668   8.228
11618SOL    HW136751  14.548  13.751   8.269
11618SOL    HW236752  14.428  13.672   8.221
11619SOL     OW36753   6.774  11.269   2.604
11619SOL    HW136754   6.769  11.300   2.513
11619SOL    HW236755   6.835  11.328   2.647
11620SOL     OW36756  12.401  11.470   3.348
11620SOL    HW136757  12.379  11.505   3.435
11620SOL    HW236758  12.380  11.377   3.354
11621SOL     OW36759   0.794   7.911   0.906
11621SOL    HW136760   0.800   7.968   0.830
11621SOL    HW236761   0.823   7.825   0.875
11622SOL     OW36762   2.708   1.803  12.900
11622SOL    HW136763   2.779   1.738  12.897
11622SOL    HW236764   2.682   1.815  12.809
11623SOL     OW36765   3.549   5.336   3.363
11623SOL    HW136766   3.592   5.294   3.289
11623SOL    HW236767   3.465   5.365   3.329
11624SOL     OW36768   7.766   2.844   8.759
11624SOL    HW136769   7.679   2.803   8.763
11624SOL    HW236770   7.820   2.791   8.817
11625SOL     OW36771   1.726   9.618  14.665
11625SOL    HW136772   1.677   9.558  14.723
11625SOL    HW236773   1.706   9.587  14.577
11626SOL     OW36774  11.983   0.281   1.669
11626SOL    HW136775  11.890   0.296   1.654
11626SOL    HW236776  12.007   0.340   1.740
11627SOL     OW36777  12.155  13.786   6.749
11627SOL    HW136778  12.226  13.845   6.775
11627SOL    HW236779  12.128  13.818   6.663
11628SOL     OW36780   2.558  14.122  14.217
11628SOL    HW136781   2.560  14.036  14.175
11628SOL    HW236782   2.469  14.154  14.201
11629SOL     OW36783   4.946   6.303   6.850
11629SOL    HW136784   4.970   6.396   6.846
11629SOL    HW236785   4.930   6.279   6.759
11630SOL     OW36786   9.068  14.838   6.878
11630SOL    HW136787   9.157  14.857   6.848
11630SOL    HW236788   9.034  14.776   6.814
11631SOL     OW36789   3.640  12.976  14.136
11631SOL    HW136790   3.670  13.057  14.094
11631SOL    HW236791   3.689  12.973  14.218
11632SOL     OW36792   1.978   2.195   9.151
11632SOL    HW136793   2.062   2.153   9.166
11632SOL    HW236794   1.932   2.136   9.092
11633SOL     OW36795  13.682   6.521   0.320
11633SOL    HW136796  13.681   6.514   0.416
11633SOL    HW236797  13.774   6.528   0.297
11634SOL     OW36798   5.077   2.748   0.027
11634SOL    HW136799   5.149   2.748  14.834
11634SOL    HW236800   5.116   2.715   0.108
11635SOL     OW36801   3.115   1.874  13.856
11635SOL    HW136802   3.178   1.936  13.894
11635SOL    HW236803   3.151   1.788  13.877
11636SOL     OW36804  13.948   4.086   6.002
11636SOL    HW136805  13.904   4.145   5.942
11636SOL    HW236806  13.974   4.141   6.076
11637SOL     OW36807   7.886   3.353   8.993
11637SOL    HW136808   7.934   3.282   9.035
11637SOL    HW236809   7.843   3.399   9.065
11638SOL     OW36810  10.659   3.520   7.107
11638SOL    HW136811  10.661   3.557   7.196
11638SOL    HW236812  10.604   3.443   7.115
11639SOL     OW36813   5.961  13.281   1.751
11639SOL    HW136814   5.944  13.348   1.685
11639SOL    HW236815   5.877  13.268   1.794
11640SOL     OW36816   1.359  11.583   1.872
11640SOL    HW136817   1.291  11.578   1.804
11640SOL    HW236818   1.331  11.520   1.938
11641SOL     OW36819  13.482   0.189  13.445
11641SOL    HW136820  13.475   0.111  13.389
11641SOL    HW236821  13.495   0.154  13.533
11642SOL     OW36822   5.005  12.723  13.961
11642SOL    HW136823   5.043  12.782  13.895
11642SOL    HW236824   4.928  12.770  13.993
11643SOL     OW36825   2.334  14.675   1.732
11643SOL    HW136826   2.266  14.609   1.722
11643SOL    HW236827   2.297  14.740   1.791
11644SOL     OW36828   7.791  14.826  10.628
11644SOL    HW136829   7.713  14.799  10.677
11644SOL    HW236830   7.774  14.799  10.538
11645SOL     OW36831   9.114  13.639   3.358
11645SOL    HW136832   9.120  13.687   3.441
11645SOL    HW236833   9.166  13.560   3.373
11646SOL     OW36834  11.094   2.639   9.100
11646SOL    HW136835  11.089   2.646   9.196
11646SOL    HW236836  11.085   2.729   9.069
11647SOL     OW36837  14.460  11.573  12.119
11647SOL    HW136838  14.519  11.555  12.045
11647SOL    HW236839  14.513  11.558  12.197
11648SOL     OW36840   5.870   1.044  12.882
11648SOL    HW136841   5.794   1.101  12.867
11648SOL    HW236842   5.945   1.103  12.876
11649SOL     OW36843  12.702   5.255  11.797
11649SOL    HW136844  12.748   5.184  11.841
11649SOL    HW236845  12.740   5.257  11.709
11650SOL     OW36846   4.491   1.524   9.475
11650SOL    HW136847   4.554   1.461   9.509
11650SOL    HW236848   4.460   1.486   9.393
11651SOL     OW36849  14.571  10.923   7.005
11651SOL    HW136850  14.545  11.001   7.053
11651SOL    HW236851  14.525  10.851   7.050
11652SOL     OW36852   3.276   0.014   5.319
11652SOL    HW136853   3.274   0.032   5.225
11652SOL    HW236854   3.188   0.037   5.349
11653SOL     OW36855   3.475   0.654   6.205
11653SOL    HW136856   3.467   0.597   6.281
11653SOL    HW236857   3.410   0.621   6.143
11654SOL     OW36858  12.877  14.214   5.473
11654SOL    HW136859  12.858  14.136   5.525
11654SOL    HW236860  12.890  14.284   5.538
11655SOL     OW36861  10.599   5.309   1.805
11655SOL    HW136862  10.580   5.366   1.731
11655SOL    HW236863  10.688   5.278   1.789
11656SOL     OW36864   7.329  12.732   0.108
11656SOL    HW136865   7.249  12.731   0.161
11656SOL    HW236866   7.393  12.685   0.162
11657SOL     OW36867   3.119   5.656   1.125
11657SOL    HW136868   3.166   5.694   1.051
11657SOL    HW236869   3.052   5.721   1.147
11658SOL     OW36870   6.650   0.629   8.147
11658SOL    HW136871   6.680   0.570   8.079
11658SOL    HW236872   6.708   0.611   8.222
11659SOL     OW36873   0.783   2.490   7.782
11659SOL    HW136874   0.788   2.403   7.822
11659SOL    HW236875   0.780   2.473   7.688
11660SOL     OW36876   4.738   5.698   4.949
11660SOL    HW136877   4.821   5.734   4.921
11660SOL    HW236878   4.758   5.607   4.971
11661SOL     OW36879  14.097   0.188  14.106
11661SOL    HW136880  14.135   0.276  14.113
11661SOL    HW236881  14.007   0.203  14.077
11662SOL     OW36882  13.361   4.958  10.997
11662SOL    HW136883  13.422   4.963  10.923
11662SOL    HW236884  13.276   4.946  10.956
11663SOL     OW36885  10.635   6.674   1.570
11663SOL    HW136886  10.590   6.642   1.492
11663SOL    HW236887  10.583   6.750   1.598
11664SOL     OW36888  10.149  10.012   8.390
11664SOL    HW136889  10.105  10.097   8.385
11664SOL    HW236890  10.149   9.991   8.484
11665SOL     OW36891   0.927   8.359   1.457
11665SOL    HW136892   0.868   8.366   1.532
11665SOL    HW236893   0.909   8.438   1.406
11666SOL     OW36894   8.972   3.700   1.464
11666SOL    HW136895   9.022   3.685   1.384
11666SOL    HW236896   8.945   3.792   1.458
11667SOL     OW36897   4.741   4.534   5.906
11667SOL    HW136898   4.669   4.482   5.872
11667SOL    HW236899   4.820   4.487   5.879
11668SOL     OW36900  12.221   3.929   0.484
11668SOL    HW136901  12.290   3.980   0.443
11668SOL    HW236902  12.140   3.957   0.441
11669SOL     OW36903   2.256   5.905   6.585
11669SOL    HW136904   2.162   5.888   6.595
11669SOL    HW236905   2.276   5.879   6.496
11670SOL     OW36906  13.575   4.793   7.276
11670SOL    HW136907  13.614   4.837   7.352
11670SOL    HW236908  13.562   4.863   7.212
11671SOL     OW36909  12.558   3.690  11.343
11671SOL    HW136910  12.571   3.600  11.314
11671SOL    HW236911  12.618   3.700  11.417
11672SOL     OW36912   7.159   9.011   0.042
11672SOL    HW136913   7.151   8.998   0.136
11672SOL    HW236914   7.086   9.069   0.020
11673SOL     OW36915   8.962  10.096   6.769
11673SOL    HW136916   9.037  10.121   6.715
11673SOL    HW236917   8.908  10.175   6.774
11674SOL     OW36918   3.572   6.175   9.677
11674SOL    HW136919   3.557   6.166   9.771
11674SOL    HW236920   3.664   6.197   9.669
11675SOL     OW36921  13.458   2.618   8.557
11675SOL    HW136922  13.527   2.586   8.615
11675SOL    HW236923  13.486   2.592   8.470
11676SOL     OW36924  11.128   8.438   6.292
11676SOL    HW136925  11.189   8.365   6.278
11676SOL    HW236926  11.047   8.396   6.322
11677SOL     OW36927   8.899  13.906  13.405
11677SOL    HW136928   8.850  13.840  13.356
11677SOL    HW236929   8.972  13.857  13.444
11678SOL     OW36930   8.979  12.593  12.276
11678SOL    HW136931   8.973  12.677  12.322
11678SOL    HW236932   9.034  12.539  12.332
11679SOL     OW36933   2.172   1.582   9.054
11679SOL    HW136934   2.090   1.626   9.076
11679SOL    HW236935   2.146   1.496   9.022
11680SOL     OW36936  11.288   1.382  12.710
11680SOL    HW136937  11.378   1.398  12.682
11680SOL    HW236938  11.240   1.364  12.629
11681SOL     OW36939   4.462  12.615   5.507
11681SOL    HW136940   4.412  12.568   5.573
11681SOL    HW236941   4.552  12.587   5.520
11682SOL     OW36942   0.844   3.315   6.415
11682SOL    HW136943   0.802   3.315   6.501
11682SOL    HW236944   0.936   3.294   6.434
11683SOL     OW36945   1.026  10.919   6.269
11683SOL    HW136946   1.043  10.837   6.223
11683SOL    HW236947   1.072  10.910   6.352
11684SOL     OW36948   2.746   5.025   2.842
11684SOL    HW136949   2.690   5.091   2.800
11684SOL    HW236950   2.834   5.062   2.837
11685SOL     OW36951   8.376   8.673  13.921
11685SOL    HW136952   8.382   8.584  13.955
11685SOL    HW236953   8.456   8.685  13.871
11686SOL     OW36954   0.775  10.012   8.169
11686SOL    HW136955   0.777  10.101   8.205
11686SOL    HW236956   0.684   9.998   8.144
11687SOL     OW36957   6.884   8.841   0.214
11687SOL    HW136958   6.881   8.755   0.173
11687SOL    HW236959   6.850   8.901   0.148
11688SOL     OW36960   7.747   7.061   1.426
11688SOL    HW136961   7.714   6.971   1.429
11688SOL    HW236962   7.668   7.115   1.426
11689SOL     OW36963  10.201   6.504   0.920
11689SOL    HW136964  10.282   6.499   0.971
11689SOL    HW236965  10.166   6.415   0.922
11690SOL     OW36966  11.840   8.694   4.232
11690SOL    HW136967  11.803   8.771   4.276
11690SOL    HW236968  11.765   8.638   4.214
11691SOL     OW36969  14.659  12.720   0.372
11691SOL    HW136970  14.624  12.633   0.353
11691SOL    HW236971  14.703  12.746   0.292
11692SOL     OW36972   0.063   6.810  12.361
11692SOL    HW136973   0.001   6.872  12.399
11692SOL    HW236974   0.105   6.859  12.290
11693SOL     OW36975   7.096   5.900   7.642
11693SOL    HW136976   7.189   5.913   7.624
11693SOL    HW236977   7.072   5.822   7.592
11694SOL     OW36978  13.418   5.081  10.116
11694SOL    HW136979  13.437   5.152  10.054
11694SOL    HW236980  13.423   5.001  10.064
11695SOL     OW36981   5.291   6.525   7.910
11695SOL    HW136982   5.237   6.604   7.916
11695SOL    HW236983   5.331   6.530   7.824
11696SOL     OW36984   3.345   8.985  14.693
11696SOL    HW136985   3.429   8.983  14.739
11696SOL    HW236986   3.368   8.988  14.600
11697SOL     OW36987   8.273   7.105  10.730
11697SOL    HW136988   8.246   7.067  10.814
11697SOL    HW236989   8.191   7.132  10.689
11698SOL     OW36990  12.330  11.205   7.750
11698SOL    HW136991  12.324  11.277   7.687
11698SOL    HW236992  12.250  11.154   7.736
11699SOL     OW36993   8.850   2.940  12.356
11699SOL    HW136994   8.807   2.869  12.404
11699SOL    HW236995   8.874   2.901  12.272
11700SOL     OW36996  11.397   5.921   3.943
11700SOL    HW136997  11.346   5.921   4.024
11700SOL    HW236998  11.428   5.830   3.934
11701SOL     OW36999  13.324  12.134  12.720
11701SOL    HW137000  13.339  12.128  12.814
11701SOL    HW237001  13.362  12.218  12.694
11702SOL     OW37002   5.836   3.847   5.446
11702SOL    HW137003   5.815   3.778   5.384
11702SOL    HW237004   5.756   3.857   5.498
11703SOL     OW37005   5.945   1.365  14.025
11703SOL    HW137006   5.986   1.335  14.106
11703SOL    HW237007   5.927   1.458  14.041
11704SOL     OW37008  12.257   7.844   2.924
11704SOL    HW137009  12.194   7.871   2.990
11704SOL    HW237010  12.205   7.835   2.844
11705SOL     OW37011  13.754   8.280   3.204
11705SOL    HW137012  13.828   8.228   3.170
11705SOL    HW237013  13.794   8.342   3.264
11706SOL     OW37014  13.354   5.828   9.800
11706SOL    HW137015  13.260   5.812   9.805
11706SOL    HW237016  13.361   5.918   9.769
11707SOL     OW37017   2.909  14.779   4.343
11707SOL    HW137018   2.967  14.769   4.418
11707SOL    HW237019   2.821  14.780   4.380
11708SOL     OW37020  14.827   0.102   3.829
11708SOL    HW137021   0.047   0.099   3.861
11708SOL    HW237022  14.775   0.132   3.904
11709SOL     OW37023   9.051   7.746  10.046
11709SOL    HW137024   9.144   7.748  10.025
11709SOL    HW237025   9.024   7.656  10.028
11710SOL     OW37026   6.556   2.865  12.382
11710SOL    HW137027   6.630   2.920  12.360
11710SOL    HW237028   6.541   2.880  12.475
11711SOL     OW37029   2.754   9.751   1.364
11711SOL    HW137030   2.725   9.805   1.290
11711SOL    HW237031   2.766   9.813   1.436
11712SOL     OW37032  13.664   3.692   2.837
11712SOL    HW137033  13.576   3.655   2.842
11712SOL    HW237034  13.650   3.784   2.812
11713SOL     OW37035   3.492   7.253  12.041
11713SOL    HW137036   3.525   7.319  11.979
11713SOL    HW237037   3.510   7.290  12.127
11714SOL     OW37038  14.538   3.174  12.077
11714SOL    HW137039  14.574   3.241  12.135
11714SOL    HW237040  14.595   3.099  12.089
11715SOL     OW37041  13.281  14.755   6.364
11715SOL    HW137042  13.338  14.780   6.436
11715SOL    HW237043  13.206  14.815   6.370
11716SOL     OW37044   9.438   5.691  10.077
11716SOL    HW137045   9.456   5.619  10.137
11716SOL    HW237046   9.406   5.649   9.997
11717SOL     OW37047   4.003   1.946   5.521
11717SOL    HW137048   3.935   1.960   5.587
11717SOL    HW237049   3.956   1.910   5.446
11718SOL     OW37050   1.177   5.944   1.583
11718SOL    HW137051   1.210   6.031   1.557
11718SOL    HW237052   1.082   5.950   1.571
11719SOL     OW37053   1.148  13.140  13.355
11719SOL    HW137054   1.186  13.053  13.346
11719SOL    HW237055   1.071  13.139  13.298
11720SOL     OW37056   1.167  14.340   2.656
11720SOL    HW137057   1.252  14.363   2.695
11720SOL    HW237058   1.132  14.423   2.624
11721SOL     OW37059  11.874   9.541   6.688
11721SOL    HW137060  11.820   9.474   6.731
11721SOL    HW237061  11.822   9.568   6.612
11722SOL     OW37062   5.020  12.794   6.164
11722SOL    HW137063   4.963  12.867   6.141
11722SOL    HW237064   5.108  12.823   6.140
11723SOL     OW37065  10.734   1.282   8.058
11723SOL    HW137066  10.677   1.280   7.981
11723SOL    HW237067  10.802   1.217   8.039
11724SOL     OW37068   5.030  12.120   2.662
11724SOL    HW137069   4.940  12.133   2.632
11724SOL    HW237070   5.056  12.036   2.623
11725SOL     OW37071  10.154   3.949   4.876
11725SOL    HW137072  10.207   3.927   4.800
11725SOL    HW237073  10.073   3.984   4.840
11726SOL     OW37074   6.435   5.597   5.431
11726SOL    HW137075   6.400   5.657   5.365
11726SOL    HW237076   6.358   5.556   5.470
11727SOL     OW37077   7.384  12.642  11.868
11727SOL    HW137078   7.453  12.603  11.814
11727SOL    HW237079   7.330  12.692  11.807
11728SOL     OW37080   8.752  13.516  14.638
11728SOL    HW137081   8.688  13.565  14.585
11728SOL    HW237082   8.822  13.578  14.654
11729SOL     OW37083   4.877  11.289  12.603
11729SOL    HW137084   4.954  11.239  12.631
11729SOL    HW237085   4.902  11.380  12.611
11730SOL     OW37086   3.460  14.688   6.976
11730SOL    HW137087   3.542  14.738   6.975
11730SOL    HW237088   3.391  14.755   6.979
11731SOL     OW37089   5.021   0.814   4.255
11731SOL    HW137090   5.103   0.772   4.281
11731SOL    HW237091   4.991   0.764   4.179
11732SOL     OW37092  10.879  13.182   8.232
11732SOL    HW137093  10.908  13.258   8.180
11732SOL    HW237094  10.785  13.196   8.243
11733SOL     OW37095  13.705   4.688  13.165
11733SOL    HW137096  13.730   4.779  13.152
11733SOL    HW237097  13.718   4.673  13.259
11734SOL     OW37098  10.752  12.246   6.960
11734SOL    HW137099  10.847  12.234   6.960
11734SOL    HW237100  10.739  12.330   6.915
11735SOL     OW37101   2.797   7.178   5.149
11735SOL    HW137102   2.867   7.131   5.194
11735SOL    HW237103   2.842   7.225   5.079
11736SOL     OW37104  11.048  14.073  12.961
11736SOL    HW137105  10.961  14.076  13.001
11736SOL    HW237106  11.032  14.047  12.871
11737SOL     OW37107   5.974  13.201  10.280
11737SOL    HW137108   5.927  13.179  10.200
11737SOL    HW237109   5.905  13.213  10.346
11738SOL     OW37110   8.300   6.805  11.576
11738SOL    HW137111   8.219   6.756  11.589
11738SOL    HW237112   8.312   6.808  11.481
11739SOL     OW37113   6.504   0.249   4.292
11739SOL    HW137114   6.412   0.237   4.313
11739SOL    HW237115   6.542   0.285   4.373
11740SOL     OW37116   5.697   1.035  11.393
11740SOL    HW137117   5.703   1.072  11.305
11740SOL    HW237118   5.784   1.050  11.432
11741SOL     OW37119   8.984  11.929  14.750
11741SOL    HW137120   8.940  11.851  14.785
11741SOL    HW237121   8.995  11.910  14.657
11742SOL     OW37122  11.639   4.300   4.959
11742SOL    HW137123  11.660   4.208   4.975
11742SOL    HW237124  11.704   4.348   5.010
11743SOL     OW37125  10.549  14.015   9.230
11743SOL    HW137126  10.482  13.947   9.227
11743SOL    HW237127  10.581  14.023   9.141
11744SOL     OW37128   2.857   8.982  11.180
11744SOL    HW137129   2.914   9.059  11.179
11744SOL    HW237130   2.799   8.996  11.255
11745SOL     OW37131   0.046   6.783   4.026
11745SOL    HW137132   0.094   6.849   4.076
11745SOL    HW237133  14.852   6.833   3.974
11746SOL     OW37134  13.236  12.906   8.258
11746SOL    HW137135  13.274  12.966   8.194
11746SOL    HW237136  13.258  12.945   8.343
11747SOL     OW37137   7.590   6.863   1.041
11747SOL    HW137138   7.610   6.944   0.994
11747SOL    HW237139   7.676   6.822   1.054
11748SOL     OW37140   1.858  13.255   5.789
11748SOL    HW137141   1.819  13.288   5.708
11748SOL    HW237142   1.925  13.320   5.812
11749SOL     OW37143   1.845   7.537   2.923
11749SOL    HW137144   1.767   7.484   2.906
11749SOL    HW237145   1.883   7.554   2.837
11750SOL     OW37146   9.756   7.765  12.961
11750SOL    HW137147   9.840   7.738  12.998
11750SOL    HW237148   9.694   7.700  12.991
11751SOL     OW37149   6.046  14.205   8.428
11751SOL    HW137150   6.116  14.269   8.417
11751SOL    HW237151   6.005  14.229   8.511
11752SOL     OW37152   2.272   4.918   3.872
11752SOL    HW137153   2.200   4.967   3.911
11752SOL    HW237154   2.337   4.984   3.850
11753SOL     OW37155  10.108  10.933   2.893
11753SOL    HW137156  10.083  10.900   2.980
11753SOL    HW237157  10.202  10.949   2.900
11754SOL     OW37158   8.851   9.017  10.481
11754SOL    HW137159   8.876   9.044  10.569
11754SOL    HW237160   8.888   9.085  10.424
11755SOL     OW37161   6.263   3.997   2.156
11755SOL    HW137162   6.175   3.975   2.186
11755SOL    HW237163   6.263   3.973   2.063
11756SOL     OW37164   0.949   0.640   9.599
11756SOL    HW137165   0.988   0.711   9.548
11756SOL    HW237166   0.897   0.684   9.666
11757SOL     OW37167   0.587   2.514   7.226
11757SOL    HW137168   0.625   2.497   7.139
11757SOL    HW237169   0.525   2.584   7.210
11758SOL     OW37170   3.717   0.640   9.890
11758SOL    HW137171   3.667   0.720   9.876
11758SOL    HW237172   3.738   0.608   9.802
11759SOL     OW37173   7.602   3.355   9.252
11759SOL    HW137174   7.582   3.447   9.232
11759SOL    HW237175   7.647   3.358   9.336
11760SOL     OW37176  10.519  13.498  14.727
11760SOL    HW137177  10.510  13.586  14.764
11760SOL    HW237178  10.593  13.460  14.774
11761SOL     OW37179   7.004   3.104   1.425
11761SOL    HW137180   7.018   3.010   1.414
11761SOL    HW237181   7.090   3.143   1.408
11762SOL     OW37182   7.089   8.938   4.228
11762SOL    HW137183   7.052   8.871   4.287
11762SOL    HW237184   7.166   8.896   4.190
11763SOL     OW37185   6.570   4.049  10.164
11763SOL    HW137186   6.661   4.061  10.193
11763SOL    HW237187   6.577   4.041  10.069
11764SOL     OW37188   6.738  11.044  10.727
11764SOL    HW137189   6.787  10.997  10.794
11764SOL    HW237190   6.800  11.109  10.692
11765SOL     OW37191  11.427  13.756   3.765
11765SOL    HW137192  11.500  13.765   3.704
11765SOL    HW237193  11.467  13.770   3.852
11766SOL     OW37194  12.814   1.462  12.238
11766SOL    HW137195  12.799   1.382  12.288
11766SOL    HW237196  12.744   1.463  12.173
11767SOL     OW37197   8.135  10.169  14.439
11767SOL    HW137198   8.051  10.125  14.426
11767SOL    HW237199   8.137  10.190  14.532
11768SOL     OW37200  14.844   8.239   4.063
11768SOL    HW137201   0.047   8.287   4.103
11768SOL    HW237202  14.765   8.279   4.101
11769SOL     OW37203   8.526   1.145   7.754
11769SOL    HW137204   8.560   1.235   7.755
11769SOL    HW237205   8.507   1.128   7.662
11770SOL     OW37206   1.121   9.825   5.177
11770SOL    HW137207   1.193   9.805   5.118
11770SOL    HW237208   1.063   9.749   5.172
11771SOL     OW37209   7.008  14.316  10.770
11771SOL    HW137210   6.969  14.364  10.697
11771SOL    HW237211   7.022  14.228  10.737
11772SOL     OW37212  10.474   8.618  10.090
11772SOL    HW137213  10.439   8.529  10.093
11772SOL    HW237214  10.478   8.645  10.182
11773SOL     OW37215  14.160  10.909   7.849
11773SOL    HW137216  14.178  10.840   7.913
11773SOL    HW237217  14.243  10.953   7.837
11774SOL     OW37218   0.223   5.497   2.189
11774SOL    HW137219   0.192   5.583   2.162
11774SOL    HW237220   0.311   5.490   2.152
11775SOL     OW37221   1.928   3.699  12.603
11775SOL    HW137222   1.834   3.698  12.621
11775SOL    HW237223   1.939   3.770  12.539
11776SOL     OW37224   1.790   6.100   2.126
11776SOL    HW137225   1.697   6.096   2.150
11776SOL    HW237226   1.803   6.025   2.068
11777SOL     OW37227   2.915   1.046   5.870
11777SOL    HW137228   2.846   1.086   5.816
11777SOL    HW237229   2.906   1.088   5.955
11778SOL     OW37230   1.855   2.542   3.139
11778SOL    HW137231   1.943   2.508   3.152
11778SOL    HW237232   1.844   2.544   3.044
11779SOL     OW37233  11.591  10.124  13.021
11779SOL    HW137234  11.612  10.044  13.069
11779SOL    HW237235  11.626  10.195  13.076
11780SOL     OW37236   7.186   5.353   1.904
11780SOL    HW137237   7.270   5.387   1.875
11780SOL    HW237238   7.181   5.265   1.867
11781SOL     OW37239   4.174   8.353   8.278
11781SOL    HW137240   4.258   8.320   8.246
11781SOL    HW237241   4.154   8.428   8.222
11782SOL     OW37242   8.643   5.282   1.866
11782SOL    HW137243   8.592   5.361   1.882
11782SOL    HW237244   8.615   5.222   1.935
11783SOL     OW37245  14.135  11.582   7.522
11783SOL    HW137246  14.102  11.627   7.444
11783SOL    HW237247  14.222  11.618   7.536
11784SOL     OW37248   7.446   3.147   9.149
11784SOL    HW137249   7.520   3.124   9.093
11784SOL    HW237250   7.472   3.228   9.192
11785SOL     OW37251   2.537   7.861   6.744
11785SOL    HW137252   2.467   7.804   6.712
11785SOL    HW237253   2.519   7.946   6.703
11786SOL     OW37254   3.623   5.279  14.250
11786SOL    HW137255   3.599   5.186  14.255
11786SOL    HW237256   3.541   5.326  14.265
11787SOL     OW37257  10.513   8.716  10.343
11787SOL    HW137258  10.441   8.774  10.369
11787SOL    HW237259  10.589   8.774  10.338
11788SOL     OW37260  12.636  14.260   1.242
11788SOL    HW137261  12.641  14.240   1.335
11788SOL    HW237262  12.553  14.308   1.232
11789SOL     OW37263  11.401  12.255   6.287
11789SOL    HW137264  11.310  12.227   6.275
11789SOL    HW237265  11.429  12.283   6.200
11790SOL     OW37266   7.721   5.171   1.726
11790SOL    HW137267   7.656   5.199   1.790
11790SOL    HW237268   7.772   5.104   1.772
11791SOL     OW37269   8.695   6.233   9.734
11791SOL    HW137270   8.727   6.165   9.794
11791SOL    HW237271   8.773   6.282   9.709
11792SOL     OW37272  11.795   6.148  13.394
11792SOL    HW137273  11.841   6.149  13.478
11792SOL    HW237274  11.864   6.144  13.328
11793SOL     OW37275  13.600  12.434  14.143
11793SOL    HW137276  13.610  12.362  14.205
11793SOL    HW237277  13.674  12.425  14.083
11794SOL     OW37278   0.254   3.344   6.359
11794SOL    HW137279   0.321   3.377   6.299
11794SOL    HW237280   0.201   3.286   6.306
11795SOL     OW37281   3.966   6.676   6.196
11795SOL    HW137282   3.880   6.717   6.184
11795SOL    HW237283   3.946   6.592   6.237
11796SOL     OW37284   3.979  12.516   5.986
11796SOL    HW137285   4.059  12.464   5.973
11796SOL    HW237286   3.940  12.523   5.899
11797SOL     OW37287   2.261  12.004   6.415
11797SOL    HW137288   2.299  12.022   6.501
11797SOL    HW237289   2.295  11.917   6.392
11798SOL     OW37290   6.907  10.961   5.401
11798SOL    HW137291   6.906  10.866   5.406
11798SOL    HW237292   6.965  10.981   5.327
11799SOL     OW37293   4.712   4.589   7.569
11799SOL    HW137294   4.652   4.645   7.519
11799SOL    HW237295   4.728   4.638   7.650
11800SOL     OW37296   2.249   9.773  10.480
11800SOL    HW137297   2.180   9.827  10.441
11800SOL    HW237298   2.246   9.691  10.431
11801SOL     OW37299  10.401   4.444   4.216
11801SOL    HW137300  10.496   4.441   4.205
11801SOL    HW237301  10.375   4.352   4.224
11802SOL     OW37302   7.456  14.853  14.409
11802SOL    HW137303   7.389  14.787  14.424
11802SOL    HW237304   7.433   0.024  14.325
11803SOL     OW37305   2.745   1.908   3.532
11803SOL    HW137306   2.678   1.858   3.578
11803SOL    HW237307   2.814   1.923   3.596
11804SOL     OW37308   7.976   0.530  13.711
11804SOL    HW137309   7.915   0.597  13.678
11804SOL    HW237310   7.919   0.458  13.738
11805SOL     OW37311   1.189  12.404  10.733
11805SOL    HW137312   1.139  12.380  10.811
11805SOL    HW237313   1.202  12.322  10.686
11806SOL     OW37314   8.201   8.588   3.543
11806SOL    HW137315   8.224   8.680   3.547
11806SOL    HW237316   8.183   8.564   3.634
11807SOL     OW37317   5.384   0.224   7.129
11807SOL    HW137318   5.466   0.247   7.087
11807SOL    HW237319   5.316   0.262   7.074
11808SOL     OW37320   2.831  10.310   7.164
11808SOL    HW137321   2.736  10.309   7.168
11808SOL    HW237322   2.859  10.317   7.255
11809SOL     OW37323  14.386   5.856   5.033
11809SOL    HW137324  14.476   5.878   5.010
11809SOL    HW237325  14.338   5.861   4.951
11810SOL     OW37326   3.798   5.278   4.283
11810SOL    HW137327   3.737   5.338   4.327
11810SOL    HW237328   3.881   5.292   4.328
11811SOL     OW37329  14.196   0.535   1.167
11811SOL    HW137330  14.193   0.560   1.075
11811SOL    HW237331  14.255   0.460   1.170
11812SOL     OW37332  10.231  14.170   6.905
11812SOL    HW137333  10.243  14.098   6.966
11812SOL    HW237334  10.216  14.247   6.960
11813SOL     OW37335   3.150  14.401   5.040
11813SOL    HW137336   3.155  14.433   4.950
11813SOL    HW237337   3.142  14.306   5.031
11814SOL     OW37338   5.164   2.873   3.027
11814SOL    HW137339   5.156   2.779   3.046
11814SOL    HW237340   5.077   2.908   3.042
11815SOL     OW37341   0.782   1.186   2.327
11815SOL    HW137342   0.751   1.212   2.240
11815SOL    HW237343   0.704   1.153   2.371
11816SOL     OW37344   0.282   2.660  12.752
11816SOL    HW137345   0.186   2.658  12.757
11816SOL    HW237346   0.305   2.751  12.772
11817SOL     OW37347   2.253   2.578   8.692
11817SOL    HW137348   2.323   2.516   8.668
11817SOL    HW237349   2.173   2.538   8.657
11818SOL     OW37350   0.901  13.537   2.338
11818SOL    HW137351   0.871  13.452   2.370
11818SOL    HW237352   0.915  13.589   2.417
11819SOL     OW37353   6.180   3.845   9.181
11819SOL    HW137354   6.123   3.838   9.105
11819SOL    HW237355   6.145   3.781   9.244
11820SOL     OW37356  14.719   3.144  14.543
11820SOL    HW137357  14.665   3.107  14.613
11820SOL    HW237358  14.766   3.217  14.584
11821SOL     OW37359   4.104   9.898  12.416
11821SOL    HW137360   4.178   9.836  12.412
11821SOL    HW237361   4.049   9.873  12.342
11822SOL     OW37362   0.318   0.231   6.806
11822SOL    HW137363   0.370   0.163   6.763
11822SOL    HW237364   0.235   0.231   6.758
11823SOL     OW37365   7.196   4.867  11.768
11823SOL    HW137366   7.257   4.911  11.828
11823SOL    HW237367   7.118   4.922  11.771
11824SOL     OW37368   1.180  13.644   8.247
11824SOL    HW137369   1.259  13.602   8.282
11824SOL    HW237370   1.112  13.576   8.255
11825SOL     OW37371   2.378  10.793   0.415
11825SOL    HW137372   2.374  10.801   0.510
11825SOL    HW237373   2.399  10.881   0.384
11826SOL     OW37374  13.615  12.294   6.390
11826SOL    HW137375  13.705  12.282   6.421
11826SOL    HW237376  13.563  12.306   6.470
11827SOL     OW37377   6.532   3.915  12.993
11827SOL    HW137378   6.602   3.864  12.952
11827SOL    HW237379   6.577   3.990  13.033
11828SOL     OW37380   9.883   6.285   8.028
11828SOL    HW137381   9.808   6.292   8.086
11828SOL    HW237382   9.943   6.225   8.072
11829SOL     OW37383  14.103   8.075  11.239
11829SOL    HW137384  14.090   8.071  11.144
11829SOL    HW237385  14.014   8.066  11.275
11830SOL     OW37386  13.237  11.200   5.774
11830SOL    HW137387  13.326  11.227   5.794
11830SOL    HW237388  13.206  11.158   5.854
11831SOL     OW37389  14.379   8.019   9.773
11831SOL    HW137390  14.358   7.925   9.768
11831SOL    HW237391  14.449   8.025   9.838
11832SOL     OW37392  11.590  13.456   7.601
11832SOL    HW137393  11.642  13.419   7.530
11832SOL    HW237394  11.587  13.550   7.583
11833SOL     OW37395  10.805   0.174  14.023
11833SOL    HW137396  10.811   0.268  14.038
11833SOL    HW237397  10.718   0.150  14.057
11834SOL     OW37398   0.171   4.476  12.431
11834SOL    HW137399   0.238   4.491  12.365
11834SOL    HW237400   0.122   4.400  12.399
11835SOL     OW37401   6.433   3.582   3.672
11835SOL    HW137402   6.388   3.559   3.753
11835SOL    HW237403   6.364   3.617   3.615
11836SOL     OW37404   8.231  11.816   7.872
11836SOL    HW137405   8.322  11.841   7.859
11836SOL    HW237406   8.222  11.804   7.966
11837SOL     OW37407   7.861  13.267   0.152
11837SOL    HW137408   7.823  13.344   0.110
11837SOL    HW237409   7.953  13.267   0.124
11838SOL     OW37410   5.685   2.512   4.877
11838SOL    HW137411   5.606   2.468   4.845
11838SOL    HW237412   5.661   2.546   4.963
11839SOL     OW37413   4.776  12.988   1.275
11839SOL    HW137414   4.717  12.930   1.323
11839SOL    HW237415   4.784  13.065   1.330
11840SOL     OW37416   1.955   7.768   2.386
11840SOL    HW137417   1.925   7.701   2.324
11840SOL    HW237418   2.050   7.763   2.383
11841SOL     OW37419   9.634   2.969   7.754
11841SOL    HW137420   9.650   2.896   7.694
11841SOL    HW237421   9.675   2.941   7.836
11842SOL     OW37422   7.445  11.525   6.225
11842SOL    HW137423   7.408  11.555   6.308
11842SOL    HW237424   7.406  11.439   6.211
11843SOL     OW37425   5.820   7.105  14.516
11843SOL    HW137426   5.891   7.110  14.579
11843SOL    HW237427   5.842   7.172  14.450
11844SOL     OW37428  10.715   2.176   9.067
11844SOL    HW137429  10.804   2.197   9.095
11844SOL    HW237430  10.659   2.215   9.134
11845SOL     OW37431   3.793   8.450   7.775
11845SOL    HW137432   3.842   8.437   7.694
11845SOL    HW237433   3.706   8.479   7.746
11846SOL     OW37434   9.428   6.641   1.203
11846SOL    HW137435   9.396   6.581   1.271
11846SOL    HW237436   9.453   6.720   1.251
11847SOL     OW37437   1.313  12.356  10.238
11847SOL    HW137438   1.385  12.383  10.181
11847SOL    HW237439   1.348  12.365  10.327
11848SOL     OW37440  10.201   6.767   8.510
11848SOL    HW137441  10.197   6.829   8.437
11848SOL    HW237442  10.123   6.713   8.500
11849SOL     OW37443   6.908  12.031  10.755
11849SOL    HW137444   6.907  12.011  10.661
11849SOL    HW237445   6.987  11.987  10.788
11850SOL     OW37446   3.509   8.752   5.231
11850SOL    HW137447   3.523   8.665   5.194
11850SOL    HW237448   3.496   8.737   5.324
11851SOL     OW37449   0.118   0.394   4.240
11851SOL    HW137450   0.149   0.408   4.329
11851SOL    HW237451   0.149   0.307   4.217
11852SOL     OW37452  14.714   2.121   0.558
11852SOL    HW137453  14.805   2.105   0.582
11852SOL    HW237454  14.716   2.204   0.510
11853SOL     OW37455   0.215  11.868  14.271
11853SOL    HW137456   0.202  11.962  14.267
11853SOL    HW237457   0.224  11.849  14.365
11854SOL     OW37458   0.207  11.749   5.921
11854SOL    HW137459   0.127  11.757   5.974
11854SOL    HW237460   0.176  11.717   5.836
11855SOL     OW37461   8.478   8.515   9.546
11855SOL    HW137462   8.500   8.467   9.625
11855SOL    HW237463   8.543   8.586   9.542
11856SOL     OW37464   0.748   2.071   9.741
11856SOL    HW137465   0.746   2.100   9.832
11856SOL    HW237466   0.738   2.152   9.690
11857SOL     OW37467   9.299  10.268   8.657
11857SOL    HW137468   9.336  10.193   8.703
11857SOL    HW237469   9.340  10.265   8.570
11858SOL     OW37470  12.774   8.562   6.081
11858SOL    HW137471  12.704   8.529   6.136
11858SOL    HW237472  12.773   8.506   6.003
11859SOL     OW37473   5.240   1.592  14.835
11859SOL    HW137474   5.191   1.575  14.754
11859SOL    HW237475   5.209   1.525   0.026
11860SOL     OW37476   4.714  12.518  13.354
11860SOL    HW137477   4.756  12.579  13.294
11860SOL    HW237478   4.729  12.431  13.316
11861SOL     OW37479   0.872  11.233  10.930
11861SOL    HW137480   0.806  11.268  10.870
11861SOL    HW237481   0.881  11.141  10.904
11862SOL     OW37482   3.872   5.176  13.011
11862SOL    HW137483   3.901   5.236  13.079
11862SOL    HW237484   3.845   5.232  12.938
11863SOL     OW37485   5.857   4.820   6.391
11863SOL    HW137486   5.844   4.725   6.388
11863SOL    HW237487   5.789   4.851   6.451
11864SOL     OW37488   2.816   4.392   5.130
11864SOL    HW137489   2.775   4.307   5.119
11864SOL    HW237490   2.814   4.408   5.224
11865SOL     OW37491   0.005  11.141  12.180
11865SOL    HW137492  14.850  11.058  12.220
11865SOL    HW237493   0.078  11.120  12.123
11866SOL     OW37494  12.451   5.883   9.538
11866SOL    HW137495  12.407   5.891   9.454
11866SOL    HW237496  12.532   5.932   9.528
11867SOL     OW37497  10.409   5.559   3.354
11867SOL    HW137498  10.388   5.466   3.357
11867SOL    HW237499  10.477   5.571   3.420
11868SOL     OW37500   7.634   1.559   5.561
11868SOL    HW137501   7.549   1.565   5.603
11868SOL    HW237502   7.640   1.469   5.530
11869SOL     OW37503   2.045   3.153   6.989
11869SOL    HW137504   2.020   3.063   6.971
11869SOL    HW237505   1.973   3.206   6.954
11870SOL     OW37506   6.285  11.075  11.538
11870SOL    HW137507   6.338  11.118  11.605
11870SOL    HW237508   6.284  11.138  11.465
11871SOL     OW37509   1.803   7.477   0.306
11871SOL    HW137510   1.896   7.456   0.313
11871SOL    HW237511   1.759   7.410   0.357
11872SOL     OW37512   7.367  11.741  12.355
11872SOL    HW137513   7.273  11.758  12.354
11872SOL    HW237514   7.402  11.798  12.286
11873SOL     OW37515   9.804   9.256   7.345
11873SOL    HW137516   9.876   9.304   7.387
11873SOL    HW237517   9.726   9.284   7.393
11874SOL     OW37518   7.581   0.511   8.759
11874SOL    HW137519   7.618   0.561   8.832
11874SOL    HW237520   7.655   0.466   8.720
11875SOL     OW37521   0.341   1.315   2.107
11875SOL    HW137522   0.336   1.328   2.012
11875SOL    HW237523   0.303   1.229   2.122
11876SOL     OW37524   0.745   0.809   7.139
11876SOL    HW137525   0.825   0.852   7.109
11876SOL    HW237526   0.722   0.749   7.069
11877SOL     OW37527   9.689   4.137   0.109
11877SOL    HW137528   9.686   4.129   0.014
11877SOL    HW237529   9.640   4.061   0.142
11878SOL     OW37530   9.967  13.046   3.530
11878SOL    HW137531   9.955  13.134   3.565
11878SOL    HW237532  10.053  13.018   3.561
11879SOL     OW37533   8.353   1.531   5.165
11879SOL    HW137534   8.368   1.584   5.244
11879SOL    HW237535   8.272   1.484   5.183
11880SOL     OW37536  13.825   9.957   9.149
11880SOL    HW137537  13.804  10.028   9.088
11880SOL    HW237538  13.911   9.926   9.120
11881SOL     OW37539   2.089  12.349   3.831
11881SOL    HW137540   2.113  12.369   3.740
11881SOL    HW237541   2.112  12.257   3.842
11882SOL     OW37542   5.788   3.412   1.340
11882SOL    HW137543   5.757   3.430   1.429
11882SOL    HW237544   5.850   3.483   1.321
11883SOL     OW37545   5.541  10.060  14.744
11883SOL    HW137546   5.593   9.985  14.716
11883SOL    HW237547   5.598  10.106  14.806
11884SOL     OW37548   9.142  11.327  12.575
11884SOL    HW137549   9.111  11.417  12.566
11884SOL    HW237550   9.223  11.334  12.625
11885SOL     OW37551   9.879   2.606   0.221
11885SOL    HW137552   9.937   2.649   0.284
11885SOL    HW237553   9.931   2.597   0.142
11886SOL     OW37554  12.536  14.416  14.021
11886SOL    HW137555  12.523  14.466  14.102
11886SOL    HW237556  12.627  14.386  14.025
11887SOL     OW37557   0.730   6.323   1.248
11887SOL    HW137558   0.688   6.250   1.202
11887SOL    HW237559   0.761   6.285   1.330
11888SOL     OW37560  12.784  10.700  10.216
11888SOL    HW137561  12.827  10.675  10.134
11888SOL    HW237562  12.818  10.788  10.235
11889SOL     OW37563   8.934   8.766   0.475
11889SOL    HW137564   8.934   8.834   0.542
11889SOL    HW237565   8.861   8.788   0.417
11890SOL     OW37566  12.491   6.604  14.295
11890SOL    HW137567  12.408   6.651  14.306
11890SOL    HW237568  12.493   6.580  14.203
11891SOL     OW37569  10.719   2.549  13.110
11891SOL    HW137570  10.708   2.542  13.205
11891SOL    HW237571  10.632   2.575  13.079
11892SOL     OW37572   1.411   2.290   3.591
11892SOL    HW137573   1.394   2.372   3.545
11892SOL    HW237574   1.506   2.284   3.596
11893SOL     OW37575   6.180   9.437   2.443
11893SOL    HW137576   6.188   9.353   2.399
11893SOL    HW237577   6.119   9.487   2.388
11894SOL     OW37578  11.384   8.434   5.685
11894SOL    HW137579  11.435   8.373   5.737
11894SOL    HW237580  11.379   8.393   5.598
11895SOL     OW37581  14.745  13.868  12.731
11895SOL    HW137582  14.727  13.940  12.792
11895SOL    HW237583  14.675  13.805  12.748
11896SOL     OW37584  13.702  12.657   0.942
11896SOL    HW137585  13.638  12.638   0.873
11896SOL    HW237586  13.728  12.572   0.975
11897SOL     OW37587   4.679   6.932   4.332
11897SOL    HW137588   4.707   6.884   4.410
11897SOL    HW237589   4.630   7.007   4.367
11898SOL     OW37590   7.530  14.595   0.502
11898SOL    HW137591   7.476  14.550   0.436
11898SOL    HW237592   7.472  14.663   0.537
11899SOL     OW37593   2.660  13.769  10.090
11899SOL    HW137594   2.671  13.796   9.999
11899SOL    HW237595   2.586  13.820  10.122
11900SOL     OW37596  14.577   4.357  11.131
11900SOL    HW137597  14.501   4.302  11.146
11900SOL    HW237598  14.549   4.419  11.064
11901SOL     OW37599  14.344   0.975   2.548
11901SOL    HW137600  14.336   0.935   2.462
11901SOL    HW237601  14.432   1.013   2.549
11902SOL     OW37602  12.784   8.668   2.343
11902SOL    HW137603  12.744   8.584   2.365
11902SOL    HW237604  12.863   8.646   2.295
11903SOL     OW37605  12.673   1.722  13.988
11903SOL    HW137606  12.643   1.809  14.013
11903SOL    HW237607  12.595   1.667  13.992
11904SOL     OW37608  14.667  14.580  10.440
11904SOL    HW137609  14.703  14.496  10.411
11904SOL    HW237610  14.573  14.566  10.445
11905SOL     OW37611   0.718   2.646  14.114
11905SOL    HW137612   0.809   2.616  14.106
11905SOL    HW237613   0.704   2.700  14.037
11906SOL     OW37614   8.025  10.984  11.243
11906SOL    HW137615   8.028  11.052  11.311
11906SOL    HW237616   8.054  10.905  11.288
11907SOL     OW37617  10.984   3.934  14.016
11907SOL    HW137618  10.894   3.937  13.984
11907SOL    HW237619  11.027   3.866  13.964
11908SOL     OW37620   2.585   8.666  14.500
11908SOL    HW137621   2.649   8.682  14.569
11908SOL    HW237622   2.506   8.710  14.531
11909SOL     OW37623   1.378   9.870  10.140
11909SOL    HW137624   1.464   9.830  10.155
11909SOL    HW237625   1.321   9.795  10.121
11910SOL     OW37626  13.577   6.845   5.928
11910SOL    HW137627  13.547   6.890   5.849
11910SOL    HW237628  13.571   6.912   5.997
11911SOL     OW37629   8.576   4.620  12.166
11911SOL    HW137630   8.635   4.545  12.172
11911SOL    HW237631   8.494   4.583  12.135
11912SOL     OW37632   3.712   1.348  12.022
11912SOL    HW137633   3.619   1.360  12.042
11912SOL    HW237634   3.725   1.397  11.941
11913SOL     OW37635   9.603   1.086   2.865
11913SOL    HW137636   9.646   1.171   2.858
11913SOL    HW237637   9.511   1.107   2.882
11914SOL     OW37638   7.042  14.282   0.947
11914SOL    HW137639   6.982  14.278   1.022
11914SOL    HW237640   6.995  14.236   0.877
11915SOL     OW37641  13.560  13.807   2.291
11915SOL    HW137642  13.637  13.863   2.296
11915SOL    HW237643  13.538  13.806   2.198
11916SOL     OW37644   3.828   2.165   0.389
11916SOL    HW137645   3.867   2.173   0.302
11916SOL    HW237646   3.819   2.070   0.403
11917SOL     OW37647  11.878  14.175  10.951
11917SOL    HW137648  11.805  14.218  10.907
11917SOL    HW237649  11.870  14.200  11.042
11918SOL     OW37650   8.546  10.806  14.241
11918SOL    HW137651   8.454  10.805  14.216
11918SOL    HW237652   8.585  10.734  14.192
11919SOL     OW37653  12.352   6.938  11.725
11919SOL    HW137654  12.418   6.999  11.756
11919SOL    HW237655  12.365   6.934  11.630
11920SOL     OW37656   2.596  12.137   8.557
11920SOL    HW137657   2.652  12.173   8.626
11920SOL    HW237658   2.604  12.042   8.567
11921SOL     OW37659   1.695   4.275   7.753
11921SOL    HW137660   1.671   4.340   7.686
11921SOL    HW237661   1.791   4.270   7.748
11922SOL     OW37662   1.778   5.324  14.565
11922SOL    HW137663   1.834   5.299  14.639
11922SOL    HW237664   1.814   5.407  14.534
11923SOL     OW37665  11.318  10.032  12.360
11923SOL    HW137666  11.322   9.941  12.390
11923SOL    HW237667  11.230  10.041  12.324
11924SOL     OW37668  12.485   1.348   6.510
11924SOL    HW137669  12.573   1.312   6.518
11924SOL    HW237670  12.448   1.340   6.598
11925SOL     OW37671  10.647  10.546   5.365
11925SOL    HW137672  10.587  10.544   5.439
11925SOL    HW237673  10.657  10.638   5.344
11926SOL     OW37674   3.819   7.355   1.782
11926SOL    HW137675   3.888   7.290   1.791
11926SOL    HW237676   3.857   7.436   1.817
11927SOL     OW37677   4.886  12.792  11.319
11927SOL    HW137678   4.906  12.733  11.391
11927SOL    HW237679   4.825  12.743  11.263
11928SOL     OW37680  11.606   3.557   7.721
11928SOL    HW137681  11.585   3.646   7.748
11928SOL    HW237682  11.525   3.508   7.736
11929SOL     OW37683   3.897   2.220  12.401
11929SOL    HW137684   3.912   2.212  12.307
11929SOL    HW237685   3.977   2.259  12.435
11930SOL     OW37686  10.237  10.336   8.328
11930SOL    HW137687  10.267  10.369   8.413
11930SOL    HW237688  10.310  10.352   8.268
11931SOL     OW37689   9.058   5.755  13.513
11931SOL    HW137690   9.132   5.720  13.464
11931SOL    HW237691   9.053   5.847  13.488
11932SOL     OW37692   5.543   4.733  14.474
11932SOL    HW137693   5.632   4.751  14.443
11932SOL    HW237694   5.502   4.685  14.402
11933SOL     OW37695   2.942  12.400   1.164
11933SOL    HW137696   3.030  12.386   1.200
11933SOL    HW237697   2.883  12.361   1.228
11934SOL     OW37698  13.411   2.287   4.875
11934SOL    HW137699  13.336   2.231   4.859
11934SOL    HW237700  13.392   2.368   4.827
11935SOL     OW37701  11.674   1.340   7.223
11935SOL    HW137702  11.645   1.258   7.182
11935SOL    HW237703  11.683   1.401   7.150
11936SOL     OW37704   3.758   4.433   1.038
11936SOL    HW137705   3.701   4.357   1.045
11936SOL    HW237706   3.707   4.497   0.989
11937SOL     OW37707   8.113   3.260  11.820
11937SOL    HW137708   8.123   3.344  11.865
11937SOL    HW237709   8.195   3.214  11.836
11938SOL     OW37710  12.229  12.548   0.816
11938SOL    HW137711  12.150  12.520   0.864
11938SOL    HW237712  12.295  12.484   0.840
11939SOL     OW37713  13.583   6.416   7.084
11939SOL    HW137714  13.647   6.462   7.030
11939SOL    HW237715  13.531   6.366   7.021
11940SOL     OW37716   2.194   1.345   5.414
11940SOL    HW137717   2.150   1.417   5.458
11940SOL    HW237718   2.168   1.267   5.463
11941SOL     OW37719   2.449   8.155   2.468
11941SOL    HW137720   2.501   8.194   2.538
11941SOL    HW237721   2.417   8.230   2.418
11942SOL     OW37722   7.337  13.172   6.073
11942SOL    HW137723   7.297  13.246   6.027
11942SOL    HW237724   7.369  13.210   6.155
11943SOL     OW37725   6.397   6.142   1.051
11943SOL    HW137726   6.344   6.175   0.978
11943SOL    HW237727   6.334   6.128   1.122
11944SOL     OW37728   3.024   2.573   0.303
11944SOL    HW137729   3.013   2.633   0.229
11944SOL    HW237730   3.110   2.594   0.339
11945SOL     OW37731   3.989   7.085  10.618
11945SOL    HW137732   3.920   7.149  10.605
11945SOL    HW237733   4.068   7.137  10.633
11946SOL     OW37734  14.145   3.903   1.522
11946SOL    HW137735  14.143   3.811   1.548
11946SOL    HW237736  14.231   3.934   1.552
11947SOL     OW37737   1.744   0.004  13.630
11947SOL    HW137738   1.670  14.828  13.670
11947SOL    HW237739   1.750   0.086  13.678
11948SOL     OW37740   6.929   8.048   8.567
11948SOL    HW137741   7.024   8.054   8.570
11948SOL    HW237742   6.911   7.978   8.504
11949SOL     OW37743  14.005  13.496   1.694
11949SOL    HW137744  14.087  13.523   1.654
11949SOL    HW237745  14.005  13.537   1.780
11950SOL     OW37746   2.668   3.514  10.147
11950SOL    HW137747   2.657   3.420  10.161
11950SOL    HW237748   2.588   3.540  10.101
11951SOL     OW37749   5.793   4.438  13.291
11951SOL    HW137750   5.843   4.398  13.362
11951SOL    HW237751   5.736   4.368  13.260
11952SOL     OW37752   0.051  12.988  14.449
11952SOL    HW137753   0.033  13.082  14.442
11952SOL    HW237754   0.048  12.970  14.543
11953SOL     OW37755   1.321  13.284   3.872
11953SOL    HW137756   1.408  13.271   3.911
11953SOL    HW237757   1.266  13.221   3.918
11954SOL     OW37758   0.711  11.803   9.208
11954SOL    HW137759   0.787  11.758   9.244
11954SOL    HW237760   0.745  11.886   9.174
11955SOL     OW37761   8.719   9.452   8.052
11955SOL    HW137762   8.779   9.483   7.985
11955SOL    HW237763   8.632   9.474   8.019
11956SOL     OW37764   5.741   3.464   9.600
11956SOL    HW137765   5.665   3.513   9.631
11956SOL    HW237766   5.810   3.486   9.663
11957SOL     OW37767   5.735   6.413   0.586
11957SOL    HW137768   5.744   6.506   0.607
11957SOL    HW237769   5.681   6.378   0.656
11958SOL     OW37770   8.331   9.506   6.381
11958SOL    HW137771   8.364   9.574   6.439
11958SOL    HW237772   8.239   9.496   6.406
11959SOL     OW37773   5.887  12.495   3.735
11959SOL    HW137774   5.948  12.531   3.799
11959SOL    HW237775   5.911  12.538   3.652
11960SOL     OW37776   8.377   7.630  12.434
11960SOL    HW137777   8.328   7.549  12.440
11960SOL    HW237778   8.355   7.665  12.347
11961SOL     OW37779  10.934   3.935   5.479
11961SOL    HW137780  10.856   3.897   5.519
11961SOL    HW237781  11.004   3.917   5.542
11962SOL     OW37782   9.163   5.747   0.934
11962SOL    HW137783   9.075   5.728   0.965
11962SOL    HW237784   9.192   5.666   0.893
11963SOL     OW37785   5.803  10.506  13.503
11963SOL    HW137786   5.768  10.422  13.473
11963SOL    HW237787   5.867  10.530  13.437
11964SOL     OW37788   5.914   7.458  10.656
11964SOL    HW137789   5.892   7.502  10.574
11964SOL    HW237790   5.870   7.508  10.724
11965SOL     OW37791   3.944  13.754   6.113
11965SOL    HW137792   3.940  13.713   6.199
11965SOL    HW237793   3.914  13.687   6.053
11966SOL     OW37794  12.350  14.076   4.249
11966SOL    HW137795  12.444  14.088   4.237
11966SOL    HW237796  12.335  13.984   4.230
11967SOL     OW37797  13.634   9.992  13.103
11967SOL    HW137798  13.718   9.955  13.130
11967SOL    HW237799  13.644  10.009  13.009
11968SOL     OW37800   4.687   4.001   6.692
11968SOL    HW137801   4.684   4.096   6.704
11968SOL    HW237802   4.678   3.965   6.780
11969SOL     OW37803   8.883   2.501   8.686
11969SOL    HW137804   8.876   2.590   8.723
11969SOL    HW237805   8.977   2.486   8.679
11970SOL     OW37806   6.853   8.616   4.821
11970SOL    HW137807   6.865   8.536   4.771
11970SOL    HW237808   6.941   8.653   4.828
11971SOL     OW37809   8.028   1.382   2.402
11971SOL    HW137810   8.064   1.321   2.466
11971SOL    HW237811   8.104   1.432   2.371
11972SOL     OW37812  14.410  12.664   7.469
11972SOL    HW137813  14.474  12.705   7.411
11972SOL    HW237814  14.345  12.733   7.484
11973SOL     OW37815   4.912  14.058   0.220
11973SOL    HW137816   4.990  14.109   0.199
11973SOL    HW237817   4.867  14.049   0.136
11974SOL     OW37818   0.384   9.186  14.810
11974SOL    HW137819   0.457   9.248  14.815
11974SOL    HW237820   0.426   9.100  14.801
11975SOL     OW37821  13.683   6.052   7.174
11975SOL    HW137822  13.713   6.050   7.083
11975SOL    HW237823  13.622   6.125   7.178
11976SOL     OW37824   3.003  13.780  12.686
11976SOL    HW137825   2.952  13.731  12.750
11976SOL    HW237826   3.075  13.818  12.737
11977SOL     OW37827   9.769   0.718   3.833
11977SOL    HW137828   9.791   0.671   3.753
11977SOL    HW237829   9.850   0.718   3.884
11978SOL     OW37830   5.567   9.546   8.324
11978SOL    HW137831   5.634   9.507   8.381
11978SOL    HW237832   5.597   9.524   8.235
11979SOL     OW37833   2.344   1.313   8.408
11979SOL    HW137834   2.261   1.286   8.371
11979SOL    HW237835   2.335   1.298   8.502
11980SOL     OW37836   0.255   2.074   8.048
11980SOL    HW137837   0.346   2.098   8.029
11980SOL    HW237838   0.258   1.980   8.064
11981SOL     OW37839  13.603   2.250  11.491
11981SOL    HW137840  13.696   2.247  11.468
11981SOL    HW237841  13.600   2.300  11.572
11982SOL     OW37842   6.222  10.277  13.011
11982SOL    HW137843   6.253  10.368  13.021
11982SOL    HW237844   6.208  10.248  13.101
11983SOL     OW37845   6.978  11.392   7.907
11983SOL    HW137846   6.954  11.315   7.959
11983SOL    HW237847   7.055  11.363   7.858
11984SOL     OW37848   7.353   9.889   9.558
11984SOL    HW137849   7.308   9.973   9.555
11984SOL    HW237850   7.339   9.858   9.647
11985SOL     OW37851   9.800   2.997   7.437
11985SOL    HW137852   9.807   3.059   7.509
11985SOL    HW237853   9.776   2.914   7.478
11986SOL     OW37854  12.985   9.320  11.083
11986SOL    HW137855  12.910   9.269  11.053
11986SOL    HW237856  12.948   9.402  11.115
11987SOL     OW37857   3.362  11.495   2.548
11987SOL    HW137858   3.313  11.538   2.617
11987SOL    HW237859   3.318  11.411   2.536
11988SOL     OW37860  14.290   8.663   7.027
11988SOL    HW137861  14.228   8.672   6.955
11988SOL    HW237862  14.293   8.751   7.066
11989SOL     OW37863   1.362   2.717   7.244
11989SOL    HW137864   1.453   2.744   7.252
11989SOL    HW237865   1.336   2.743   7.156
11990SOL     OW37866  11.458  11.329   5.409
11990SOL    HW137867  11.505  11.378   5.476
11990SOL    HW237868  11.462  11.238   5.438
11991SOL     OW37869  10.207  10.015   4.919
11991SOL    HW137870  10.145   9.975   4.980
11991SOL    HW237871  10.213   9.953   4.846
11992SOL     OW37872   0.937   4.052   2.318
11992SOL    HW137873   0.990   3.980   2.286
11992SOL    HW237874   0.869   4.010   2.371
11993SOL     OW37875   0.586  10.509   4.484
11993SOL    HW137876   0.588  10.506   4.580
11993SOL    HW237877   0.596  10.417   4.458
11994SOL     OW37878   7.106  11.546   5.173
11994SOL    HW137879   7.030  11.489   5.160
11994SOL    HW237880   7.171  11.490   5.215
11995SOL     OW37881  12.879  11.652   6.274
11995SOL    HW137882  12.844  11.738   6.253
11995SOL    HW237883  12.973  11.660   6.260
11996SOL     OW37884   4.826   2.316  14.638
11996SOL    HW137885   4.881   2.393  14.655
11996SOL    HW237886   4.737   2.350  14.638
11997SOL     OW37887   1.611   3.735   0.145
11997SOL    HW137888   1.601   3.682   0.225
11997SOL    HW237889   1.705   3.738   0.130
11998SOL     OW37890  13.272   8.611   9.171
11998SOL    HW137891  13.232   8.587   9.254
11998SOL    HW237892  13.207   8.589   9.105
11999SOL     OW37893   4.078  14.820   4.426
11999SOL    HW137894   4.003  14.783   4.473
11999SOL    HW237895   4.126   0.000   4.492
12000SOL     OW37896   4.457   5.066   1.472
12000SOL    HW137897   4.386   5.124   1.498
12000SOL    HW237898   4.494   5.035   1.555
12001SOL     OW37899   3.990  13.523  12.783
12001SOL    HW137900   4.000  13.429  12.801
12001SOL    HW237901   4.057  13.542  12.718
12002SOL     OW37902  12.380   5.305  11.289
12002SOL    HW137903  12.345   5.375  11.344
12002SOL    HW237904  12.358   5.332  11.199
12003SOL     OW37905   3.016   9.772   4.851
12003SOL    HW137906   2.963   9.837   4.804
12003SOL    HW237907   2.954   9.726   4.907
12004SOL     OW37908  11.170   9.558   5.716
12004SOL    HW137909  11.075   9.567   5.727
12004SOL    HW237910  11.198   9.644   5.684
12005SOL     OW37911  13.357  12.855   4.008
12005SOL    HW137912  13.383  12.794   3.938
12005SOL    HW237913  13.440  12.887   4.043
12006SOL     OW37914   1.472  12.562   0.318
12006SOL    HW137915   1.550  12.569   0.263
12006SOL    HW237916   1.455  12.651   0.348
12007SOL     OW37917  12.090  13.597  13.573
12007SOL    HW137918  12.174  13.573  13.613
12007SOL    HW237919  12.078  13.534  13.502
12008SOL     OW37920   1.497  11.075  11.321
12008SOL    HW137921   1.532  11.081  11.232
12008SOL    HW237922   1.548  11.005  11.362
12009SOL     OW37923  10.602   8.519  13.428
12009SOL    HW137924  10.603   8.430  13.393
12009SOL    HW237925  10.649   8.513  13.511
12010SOL     OW37926  10.132   3.177   9.896
12010SOL    HW137927  10.076   3.153   9.822
12010SOL    HW237928  10.221   3.164   9.863
12011SOL     OW37929   7.387   4.505   5.518
12011SOL    HW137930   7.415   4.454   5.441
12011SOL    HW237931   7.464   4.507   5.574
12012SOL     OW37932  14.269   9.324   2.038
12012SOL    HW137933  14.320   9.369   1.970
12012SOL    HW237934  14.181   9.361   2.031
12013SOL     OW37935   3.648   4.089   0.017
12013SOL    HW137936   3.726   4.142   0.011
12013SOL    HW237937   3.666   4.012  14.833
12014SOL     OW37938   3.204  14.286   1.598
12014SOL    HW137939   3.268  14.357   1.606
12014SOL    HW237940   3.254  14.214   1.559
12015SOL     OW37941  14.542   2.674  11.586
12015SOL    HW137942  14.447   2.667  11.591
12015SOL    HW237943  14.573   2.584  11.596
12016SOL     OW37944   5.916   5.683  12.695
12016SOL    HW137945   5.889   5.604  12.743
12016SOL    HW237946   6.001   5.660  12.657
12017SOL     OW37947   3.043   2.503   5.472
12017SOL    HW137948   3.128   2.546   5.457
12017SOL    HW237949   2.980   2.559   5.426
12018SOL     OW37950   2.356   5.260  12.289
12018SOL    HW137951   2.375   5.233  12.199
12018SOL    HW237952   2.368   5.355  12.289
12019SOL     OW37953  10.659  10.197  12.421
12019SOL    HW137954  10.565  10.212  12.422
12019SOL    HW237955  10.698  10.279  12.450
12020SOL     OW37956   7.670   5.300   5.769
12020SOL    HW137957   7.667   5.252   5.852
12020SOL    HW237958   7.760   5.332   5.763
12021SOL     OW37959   0.085  11.048   0.165
12021SOL    HW137960   0.179  11.067   0.164
12021SOL    HW237961   0.050  11.100   0.237
12022SOL     OW37962  13.833  10.095  14.721
12022SOL    HW137963  13.805  10.174  14.674
12022SOL    HW237964  13.928  10.093  14.709
12023SOL     OW37965   8.086   1.543  10.671
12023SOL    HW137966   8.153   1.582  10.727
12023SOL    HW237967   8.081   1.599  10.594
12024SOL     OW37968   7.120  12.257   2.144
12024SOL    HW137969   7.057  12.277   2.075
12024SOL    HW237970   7.203  12.245   2.098
12025SOL     OW37971   2.285   4.988   0.815
12025SOL    HW137972   2.314   4.998   0.725
12025SOL    HW237973   2.248   4.900   0.819
12026SOL     OW37974   6.962   5.628   2.959
12026SOL    HW137975   6.994   5.681   2.886
12026SOL    HW237976   7.038   5.578   2.988
12027SOL     OW37977   1.700   4.618   9.329
12027SOL    HW137978   1.709   4.646   9.238
12027SOL    HW237979   1.717   4.698   9.380
12028SOL     OW37980  12.618   5.445   3.624
12028SOL    HW137981  12.685   5.485   3.679
12028SOL    HW237982  12.593   5.365   3.671
12029SOL     OW37983   9.888   6.968   8.757
12029SOL    HW137984   9.845   6.949   8.673
12029SOL    HW237985   9.949   7.038   8.737
12030SOL     OW37986   3.939  10.404  10.869
12030SOL    HW137987   3.905  10.330  10.819
12030SOL    HW237988   3.954  10.472  10.803
12031SOL     OW37989   7.575   3.466   0.157
12031SOL    HW137990   7.543   3.407   0.225
12031SOL    HW237991   7.656   3.426   0.126
12032SOL     OW37992  12.343   6.960   9.641
12032SOL    HW137993  12.349   7.024   9.712
12032SOL    HW237994  12.346   6.875   9.685
12033SOL     OW37995   2.940   6.347   2.300
12033SOL    HW137996   2.973   6.384   2.219
12033SOL    HW237997   2.850   6.320   2.280
12034SOL     OW37998   2.304   1.121   1.908
12034SOL    HW137999   2.271   1.031   1.905
12034SOL    HW238000   2.244   1.170   1.852
12035SOL     OW38001  11.400   1.129   9.833
12035SOL    HW138002  11.493   1.151   9.828
12035SOL    HW238003  11.396   1.036   9.814
12036SOL     OW38004   6.196  13.585   4.638
12036SOL    HW138005   6.131  13.618   4.699
12036SOL    HW238006   6.169  13.495   4.619
12037SOL     OW38007   5.319   7.500   4.421
12037SOL    HW138008   5.371   7.580   4.417
12037SOL    HW238009   5.340   7.461   4.505
12038SOL     OW38010   2.574   3.107   0.088
12038SOL    HW138011   2.540   3.024   0.056
12038SOL    HW238012   2.506   3.171   0.064
12039SOL     OW38013   6.305   5.623  13.089
12039SOL    HW138014   6.250   5.700  13.108
12039SOL    HW238015   6.283   5.560  13.158
12040SOL     OW38016   2.947   4.607   2.726
12040SOL    HW138017   2.930   4.514   2.711
12040SOL    HW238018   2.991   4.610   2.811
12041SOL     OW38019  14.255   5.784   5.421
12041SOL    HW138020  14.167   5.748   5.413
12041SOL    HW238021  14.259   5.853   5.355
12042SOL     OW38022   1.229   0.559   4.084
12042SOL    HW138023   1.161   0.530   4.024
12042SOL    HW238024   1.311   0.524   4.048
12043SOL     OW38025  11.368   1.927   5.021
12043SOL    HW138026  11.304   1.908   4.952
12043SOL    HW238027  11.450   1.889   4.989
12044SOL     OW38028   4.746  14.201  10.367
12044SOL    HW138029   4.762  14.141  10.440
12044SOL    HW238030   4.651  14.209  10.362
12045SOL     OW38031  13.028   0.633   1.818
12045SOL    HW138032  13.020   0.715   1.770
12045SOL    HW238033  13.040   0.566   1.750
12046SOL     OW38034   7.310  12.671   2.355
12046SOL    HW138035   7.281  12.734   2.421
12046SOL    HW238036   7.260  12.592   2.374
12047SOL     OW38037   4.436   3.823   7.031
12047SOL    HW138038   4.461   3.905   7.073
12047SOL    HW238039   4.346   3.808   7.059
12048SOL     OW38040   4.294   6.551   4.243
12048SOL    HW138041   4.339   6.629   4.276
12048SOL    HW238042   4.364   6.493   4.214
12049SOL     OW38043   1.886  10.772  10.492
12049SOL    HW138044   1.826  10.703  10.522
12049SOL    HW238045   1.970  10.749  10.532
12050SOL     OW38046   7.039   3.584   0.344
12050SOL    HW138047   7.071   3.658   0.396
12050SOL    HW238048   7.076   3.598   0.257
12051SOL     OW38049  13.649   0.394   3.130
12051SOL    HW138050  13.657   0.304   3.160
12051SOL    HW238051  13.730   0.411   3.082
12052SOL     OW38052   4.537   3.990   4.887
12052SOL    HW138053   4.561   3.904   4.922
12052SOL    HW238054   4.468   4.021   4.945
12053SOL     OW38055  10.038  14.286   0.224
12053SOL    HW138056  10.010  14.353   0.286
12053SOL    HW238057  10.026  14.326   0.138
12054SOL     OW38058  11.279   3.905   9.897
12054SOL    HW138059  11.344   3.872   9.835
12054SOL    HW238060  11.331   3.933   9.973
12055SOL     OW38061   8.686   3.426   6.162
12055SOL    HW138062   8.621   3.419   6.093
12055SOL    HW238063   8.658   3.501   6.215
12056SOL     OW38064   3.357   7.450  10.306
12056SOL    HW138065   3.346   7.545  10.308
12056SOL    HW238066   3.340   7.426  10.215
12057SOL     OW38067   1.269   4.608  11.648
12057SOL    HW138068   1.174   4.620  11.654
12057SOL    HW238069   1.282   4.514  11.647
12058SOL     OW38070  13.759  13.986  10.948
12058SOL    HW138071  13.764  13.970  10.853
12058SOL    HW238072  13.789  14.076  10.958
12059SOL     OW38073   6.318  10.117   2.582
12059SOL    HW138074   6.267  10.038   2.600
12059SOL    HW238075   6.264  10.167   2.520
12060SOL     OW38076   3.300   7.371   5.273
12060SOL    HW138077   3.359   7.295   5.269
12060SOL    HW238078   3.335   7.432   5.209
12061SOL     OW38079   9.213  13.660   0.585
12061SOL    HW138080   9.190  13.686   0.496
12061SOL    HW238081   9.304  13.630   0.578
12062SOL     OW38082  14.471   0.288  14.319
12062SOL    HW138083  14.428   0.372  14.335
12062SOL    HW238084  14.473   0.280  14.224
12063SOL     OW38085  14.034  14.517   3.435
12063SOL    HW138086  14.031  14.432   3.480
12063SOL    HW238087  14.118  14.554   3.459
12064SOL     OW38088  12.009  10.826   7.324
12064SOL    HW138089  12.081  10.795   7.378
12064SOL    HW238090  12.035  10.914   7.296
12065SOL     OW38091   2.975   7.889  10.464
12065SOL    HW138092   2.888   7.881  10.503
12065SOL    HW238093   2.972   7.972  10.416
12066SOL     OW38094  10.655   8.239   2.378
12066SOL    HW138095  10.604   8.300   2.431
12066SOL    HW238096  10.702   8.296   2.315
12067SOL     OW38097  12.432   4.629  14.208
12067SOL    HW138098  12.407   4.544  14.172
12067SOL    HW238099  12.353   4.661  14.251
12068SOL     OW38100   8.361   8.266   1.850
12068SOL    HW138101   8.417   8.191   1.872
12068SOL    HW238102   8.419   8.327   1.806
12069SOL     OW38103   8.004  10.778  13.957
12069SOL    HW138104   8.056  10.713  14.004
12069SOL    HW238105   8.059  10.856  13.954
12070SOL     OW38106   0.102   6.384  13.865
12070SOL    HW138107   0.093   6.325  13.939
12070SOL    HW238108   0.084   6.471  13.901
12071SOL     OW38109  13.451   9.617   9.098
12071SOL    HW138110  13.414   9.695   9.139
12071SOL    HW238111  13.534   9.603   9.145
12072SOL     OW38112   0.135  13.506   4.455
12072SOL    HW138113   0.061  13.551   4.413
12072SOL    HW238114   0.143  13.548   4.540
12073SOL     OW38115   3.734  11.719  14.411
12073SOL    HW138116   3.685  11.801  14.419
12073SOL    HW238117   3.824  11.742  14.431
12074SOL     OW38118   5.847   4.157   0.570
12074SOL    HW138119   5.905   4.207   0.627
12074SOL    HW238120   5.760   4.190   0.589
12075SOL     OW38121   1.916   7.817  10.152
12075SOL    HW138122   1.832   7.782  10.123
12075SOL    HW238123   1.895   7.875  10.225
12076SOL     OW38124   1.530   3.138   3.443
12076SOL    HW138125   1.562   3.049   3.425
12076SOL    HW238126   1.536   3.147   3.538
12077SOL     OW38127   4.091   1.281   0.563
12077SOL    HW138128   4.110   1.374   0.573
12077SOL    HW238129   4.019   1.265   0.625
12078SOL     OW38130   1.692  10.835   9.467
12078SOL    HW138131   1.655  10.751   9.496
12078SOL    HW238132   1.718  10.820   9.376
12079SOL     OW38133   6.500   3.709  13.875
12079SOL    HW138134   6.575   3.752  13.918
12079SOL    HW238135   6.515   3.723  13.782
12080SOL     OW38136   5.008  13.422  11.802
12080SOL    HW138137   5.067  13.409  11.727
12080SOL    HW238138   4.930  13.462  11.764
12081SOL     OW38139   0.967  10.820   7.861
12081SOL    HW138140   0.929  10.883   7.922
12081SOL    HW238141   0.903  10.749   7.857
12082SOL     OW38142   4.487   6.649   3.970
12082SOL    HW138143   4.560   6.594   3.941
12082SOL    HW238144   4.509   6.672   4.060
12083SOL     OW38145   3.046  11.475   4.850
12083SOL    HW138146   2.985  11.410   4.815
12083SOL    HW238147   2.991  11.550   4.872
12084SOL     OW38148  11.696   9.435  13.402
12084SOL    HW138149  11.753   9.367  13.365
12084SOL    HW238150  11.666   9.398  13.485
12085SOL     OW38151   5.418   5.096  11.659
12085SOL    HW138152   5.473   5.088  11.581
12085SOL    HW238153   5.466   5.047  11.727
12086SOL     OW38154   8.361  12.114   3.307
12086SOL    HW138155   8.348  12.111   3.212
12086SOL    HW238156   8.384  12.205   3.325
12087SOL     OW38157  10.770  14.687  11.522
12087SOL    HW138158  10.793  14.777  11.498
12087SOL    HW238159  10.716  14.656  11.449
12088SOL     OW38160  12.549  14.364   3.763
12088SOL    HW138161  12.642  14.343   3.764
12088SOL    HW238162  12.526  14.373   3.856
12089SOL     OW38163   7.532   3.268   2.056
12089SOL    HW138164   7.599   3.332   2.032
12089SOL    HW238165   7.580   3.187   2.074
12090SOL     OW38166  11.009   0.702   4.553
12090SOL    HW138167  11.088   0.693   4.606
12090SOL    HW238168  10.958   0.624   4.573
12091SOL     OW38169   4.651   9.703   2.156
12091SOL    HW138170   4.624   9.691   2.065
12091SOL    HW238171   4.726   9.644   2.167
12092SOL     OW38172  10.323   7.873   8.335
12092SOL    HW138173  10.410   7.871   8.294
12092SOL    HW238174  10.305   7.782   8.358
12093SOL     OW38175  14.411  10.101  11.916
12093SOL    HW138176  14.390  10.119  11.824
12093SOL    HW238177  14.346  10.036  11.943
12094SOL     OW38178   2.919   1.827   7.448
12094SOL    HW138179   2.882   1.900   7.497
12094SOL    HW238180   2.880   1.835   7.360
12095SOL     OW38181   9.068   0.609   1.417
12095SOL    HW138182   9.098   0.540   1.476
12095SOL    HW238183   9.016   0.667   1.472
12096SOL     OW38184   9.611   3.487   3.726
12096SOL    HW138185   9.541   3.539   3.766
12096SOL    HW238186   9.621   3.525   3.639
12097SOL     OW38187   6.732  14.570   2.032
12097SOL    HW138188   6.665  14.637   2.043
12097SOL    HW238189   6.738  14.528   2.117
12098SOL     OW38190  13.324  11.912   7.827
12098SOL    HW138191  13.256  11.888   7.764
12098SOL    HW238192  13.385  11.965   7.776
12099SOL     OW38193  12.078   0.027  11.866
12099SOL    HW138194  12.003  14.849  11.830
12099SOL    HW238195  12.059   0.119  11.846
12100SOL     OW38196   3.480   6.988  13.143
12100SOL    HW138197   3.457   7.069  13.097
12100SOL    HW238198   3.491   7.014  13.234
12101SOL     OW38199   9.033  11.424  13.711
12101SOL    HW138200   8.993  11.350  13.756
12101SOL    HW238201   8.969  11.495  13.717
12102SOL     OW38202  11.178   8.937   3.516
12102SOL    HW138203  11.116   9.010   3.511
12102SOL    HW238204  11.131   8.868   3.564
12103SOL     OW38205  10.065   6.106   0.433
12103SOL    HW138206  10.084   6.033   0.492
12103SOL    HW238207   9.988   6.149   0.471
12104SOL     OW38208   6.979  11.536   7.563
12104SOL    HW138209   7.038  11.463   7.585
12104SOL    HW238210   6.928  11.504   7.488
12105SOL     OW38211   6.178  11.023   0.533
12105SOL    HW138212   6.243  10.964   0.495
12105SOL    HW238213   6.211  11.110   0.514
12106SOL     OW38214   2.088  11.683   6.955
12106SOL    HW138215   2.176  11.657   6.929
12106SOL    HW238216   2.089  11.779   6.951
12107SOL     OW38217  12.005   1.844   9.955
12107SOL    HW138218  12.098   1.859   9.941
12107SOL    HW238219  12.000   1.796  10.038
12108SOL     OW38220   1.497   3.506   2.881
12108SOL    HW138221   1.460   3.516   2.968
12108SOL    HW238222   1.583   3.467   2.895
12109SOL     OW38223   4.822   0.263   2.890
12109SOL    HW138224   4.759   0.201   2.926
12109SOL    HW238225   4.887   0.274   2.959
12110SOL     OW38226   3.336   0.160   0.923
12110SOL    HW138227   3.369   0.176   1.012
12110SOL    HW238228   3.281   0.236   0.905
12111SOL     OW38229   3.201   9.368   0.708
12111SOL    HW138230   3.151   9.442   0.674
12111SOL    HW238231   3.152   9.291   0.681
12112SOL     OW38232  10.381   7.007  14.215
12112SOL    HW138233  10.399   7.080  14.274
12112SOL    HW238234  10.374   7.048  14.129
12113SOL     OW38235   4.847   1.748   3.197
12113SOL    HW138236   4.825   1.824   3.143
12113SOL    HW238237   4.816   1.673   3.146
12114SOL     OW38238   8.710  14.474  10.771
12114SOL    HW138239   8.756  14.475  10.855
12114SOL    HW238240   8.617  14.478  10.795
12115SOL     OW38241   9.654  11.786   2.627
12115SOL    HW138242   9.698  11.715   2.674
12115SOL    HW238243   9.582  11.743   2.581
12116SOL     OW38244   2.027   5.558  11.422
12116SOL    HW138245   2.035   5.647  11.458
12116SOL    HW238246   2.112   5.517  11.441
12117SOL     OW38247   2.732  12.144  10.954
12117SOL    HW138248   2.803  12.207  10.944
12117SOL    HW238249   2.668  12.189  11.009
12118SOL     OW38250  13.763   3.524   2.277
12118SOL    HW138251  13.813   3.464   2.333
12118SOL    HW238252  13.676   3.528   2.317
12119SOL     OW38253   6.116   1.769   3.408
12119SOL    HW138254   6.176   1.742   3.477
12119SOL    HW238255   6.166   1.763   3.327
12120SOL     OW38256   9.661   1.206   7.275
12120SOL    HW138257   9.673   1.230   7.367
12120SOL    HW238258   9.742   1.163   7.250
12121SOL     OW38259   5.267   3.804   6.239
12121SOL    HW138260   5.291   3.897   6.245
12121SOL    HW238261   5.348   3.757   6.260
12122SOL     OW38262   0.796  11.145  13.535
12122SOL    HW138263   0.705  11.115  13.545
12122SOL    HW238264   0.788  11.239  13.515
12123SOL     OW38265   4.504  11.741  12.042
12123SOL    HW138266   4.442  11.717  11.972
12123SOL    HW238267   4.567  11.669  12.043
12124SOL     OW38268   2.530  11.192   4.792
12124SOL    HW138269   2.614  11.217   4.754
12124SOL    HW238270   2.473  11.268   4.779
12125SOL     OW38271   2.762  11.552  11.065
12125SOL    HW138272   2.815  11.612  11.118
12125SOL    HW238273   2.779  11.580  10.975
12126SOL     OW38274   3.627  14.699   1.014
12126SOL    HW138275   3.583  14.710   1.098
12126SOL    HW238276   3.580  14.757   0.954
12127SOL     OW38277   8.701  13.891  11.796
12127SOL    HW138278   8.666  13.977  11.819
12127SOL    HW238279   8.789  13.910  11.764
12128SOL     OW38280   6.770   9.720  12.318
12128SOL    HW138281   6.793   9.811  12.337
12128SOL    HW238282   6.698   9.726  12.256
12129SOL     OW38283   9.984  10.718   2.750
12129SOL    HW138284   9.959  10.676   2.832
12129SOL    HW238285  10.020  10.803   2.776
12130SOL     OW38286  12.984  11.291   1.472
12130SOL    HW138287  13.058  11.239   1.502
12130SOL    HW238288  12.908  11.255   1.519
12131SOL     OW38289   7.960  12.946   3.982
12131SOL    HW138290   7.932  12.858   4.008
12131SOL    HW238291   7.985  12.936   3.890
12132SOL     OW38292   5.111  11.238   1.613
12132SOL    HW138293   5.040  11.248   1.549
12132SOL    HW238294   5.096  11.151   1.651
12133SOL     OW38295   5.187   3.021  12.218
12133SOL    HW138296   5.215   3.096  12.166
12133SOL    HW238297   5.100   3.000  12.185
12134SOL     OW38298  13.079  10.146   2.546
12134SOL    HW138299  13.040  10.223   2.587
12134SOL    HW238300  13.151  10.121   2.605
12135SOL     OW38301   5.775   0.979  13.391
12135SOL    HW138302   5.700   0.986  13.451
12135SOL    HW238303   5.826   0.905  13.425
12136SOL     OW38304   9.694   4.351  13.692
12136SOL    HW138305   9.765   4.409  13.665
12136SOL    HW238306   9.653   4.394  13.766
12137SOL     OW38307   2.007   2.192   2.281
12137SOL    HW138308   1.947   2.134   2.235
12137SOL    HW238309   1.950   2.250   2.332
12138SOL     OW38310   2.981   9.152   2.176
12138SOL    HW138311   3.041   9.177   2.246
12138SOL    HW238312   2.937   9.073   2.208
12139SOL     OW38313   3.367   2.328   3.561
12139SOL    HW138314   3.351   2.251   3.507
12139SOL    HW238315   3.455   2.315   3.597
12140SOL     OW38316  14.455   4.286  14.228
12140SOL    HW138317  14.421   4.203  14.261
12140SOL    HW238318  14.546   4.289  14.258
12141SOL     OW38319  10.815   7.671  13.061
12141SOL    HW138320  10.781   7.581  13.068
12141SOL    HW238321  10.747   7.725  13.101
12142SOL     OW38322   9.355  12.596   4.118
12142SOL    HW138323   9.439  12.555   4.100
12142SOL    HW238324   9.374  12.663   4.184
12143SOL     OW38325   8.001   2.506  10.680
12143SOL    HW138326   8.076   2.447  10.687
12143SOL    HW238327   8.013   2.550  10.596
12144SOL     OW38328  11.916  12.632  11.656
12144SOL    HW138329  11.963  12.569  11.711
12144SOL    HW238330  11.955  12.716  11.677
12145SOL     OW38331  12.523  11.059  12.374
12145SOL    HW138332  12.478  11.066  12.458
12145SOL    HW238333  12.613  11.036  12.398
12146SOL     OW38334   6.629   1.317  13.770
12146SOL    HW138335   6.668   1.401  13.791
12146SOL    HW238336   6.597   1.283  13.853
12147SOL     OW38337  12.113  13.606   4.121
12147SOL    HW138338  12.128  13.699   4.139
12147SOL    HW238339  12.033  13.585   4.171
12148SOL     OW38340  10.329   6.029   1.260
12148SOL    HW138341  10.373   5.946   1.241
12148SOL    HW238342  10.261   6.035   1.193
12149SOL     OW38343  10.538   1.626  14.532
12149SOL    HW138344  10.571   1.582  14.610
12149SOL    HW238345  10.472   1.566  14.496
12150SOL     OW38346   3.084   0.416   5.375
12150SOL    HW138347   3.074   0.328   5.414
12150SOL    HW238348   3.148   0.403   5.305
12151SOL     OW38349   7.795  14.418  11.654
12151SOL    HW138350   7.846  14.338  11.646
12151SOL    HW238351   7.858  14.488  11.643
12152SOL     OW38352  10.306  12.784   7.869
12152SOL    HW138353  10.251  12.816   7.941
12152SOL    HW238354  10.272  12.697   7.849
12153SOL     OW38355   2.105  14.528  11.508
12153SOL    HW138356   2.040  14.595  11.531
12153SOL    HW238357   2.183  14.579  11.487
12154SOL     OW38358  12.955   8.637  12.051
12154SOL    HW138359  12.925   8.728  12.049
12154SOL    HW238360  13.047   8.643  12.078
12155SOL     OW38361  13.539   6.348   9.862
12155SOL    HW138362  13.470   6.373   9.801
12155SOL    HW238363  13.621   6.366   9.815
12156SOL     OW38364   0.398  12.000   7.050
12156SOL    HW138365   0.304  12.010   7.062
12156SOL    HW238366   0.408  11.921   6.997
12157SOL     OW38367   0.135  11.196   9.748
12157SOL    HW138368   0.207  11.188   9.810
12157SOL    HW238369   0.060  11.157   9.794
12158SOL     OW38370   3.402  11.964  14.712
12158SOL    HW138371   3.411  11.901  14.782
12158SOL    HW238372   3.361  12.040  14.753
12159SOL     OW38373   1.113   5.008   4.457
12159SOL    HW138374   1.017   5.007   4.462
12159SOL    HW238375   1.137   5.099   4.472
12160SOL     OW38376   9.828  11.398  11.731
12160SOL    HW138377   9.787  11.484  11.742
12160SOL    HW238378   9.776  11.355  11.664
12161SOL     OW38379  11.958   3.539   0.647
12161SOL    HW138380  11.987   3.589   0.724
12161SOL    HW238381  12.039   3.509   0.606
12162SOL     OW38382   6.007   7.604   4.337
12162SOL    HW138383   5.961   7.534   4.291
12162SOL    HW238384   6.014   7.572   4.427
12163SOL     OW38385   0.868  11.653  13.199
12163SOL    HW138386   0.881  11.735  13.247
12163SOL    HW238387   0.951  11.639  13.154
12164SOL     OW38388   0.996  10.714   9.973
12164SOL    HW138389   0.992  10.704  10.069
12164SOL    HW238390   1.050  10.792   9.960
12165SOL     OW38391   8.578   0.085  11.260
12165SOL    HW138392   8.656   0.046  11.300
12165SOL    HW238393   8.600   0.092  11.167
12166SOL     OW38394   6.304   0.272   8.323
12166SOL    HW138395   6.240   0.340   8.343
12166SOL    HW238396   6.377   0.320   8.283
12167SOL     OW38397   7.801   4.707  11.282
12167SOL    HW138398   7.840   4.620  11.280
12167SOL    HW238399   7.794   4.728  11.376
12168SOL     OW38400   5.749  14.213  12.864
12168SOL    HW138401   5.675  14.153  12.869
12168SOL    HW238402   5.824  14.156  12.847
12169SOL     OW38403  10.268   9.357   7.918
12169SOL    HW138404  10.256   9.391   8.007
12169SOL    HW238405  10.214   9.413   7.863
12170SOL     OW38406  13.629   4.141   5.462
12170SOL    HW138407  13.565   4.177   5.400
12170SOL    HW238408  13.582   4.072   5.509
12171SOL     OW38409  14.645   9.954  14.113
12171SOL    HW138410  14.619   9.977  14.024
12171SOL    HW238411  14.612  10.027  14.167
12172SOL     OW38412   1.816   4.724   6.427
12172SOL    HW138413   1.765   4.648   6.401
12172SOL    HW238414   1.755   4.797   6.420
12173SOL     OW38415   5.892   9.359   3.566
12173SOL    HW138416   5.852   9.369   3.652
12173SOL    HW238417   5.977   9.318   3.583
12174SOL     OW38418  13.364   1.636   2.595
12174SOL    HW138419  13.378   1.560   2.652
12174SOL    HW238420  13.423   1.703   2.629
12175SOL     OW38421  12.321   7.028   6.157
12175SOL    HW138422  12.391   7.017   6.222
12175SOL    HW238423  12.284   6.940   6.146
12176SOL     OW38424  11.210   4.098   7.876
12176SOL    HW138425  11.240   4.021   7.924
12176SOL    HW238426  11.291   4.143   7.850
12177SOL     OW38427   9.669   5.493   7.470
12177SOL    HW138428   9.586   5.513   7.513
12177SOL    HW238429   9.719   5.445   7.535
12178SOL     OW38430   3.012  13.488  10.058
12178SOL    HW138431   2.986  13.580  10.051
12178SOL    HW238432   2.951  13.450  10.121
12179SOL     OW38433   2.987   5.319  14.215
12179SOL    HW138434   2.931   5.241  14.222
12179SOL    HW238435   3.012   5.322  14.122
12180SOL     OW38436   4.902   3.736   1.219
12180SOL    HW138437   4.940   3.649   1.229
12180SOL    HW238438   4.956   3.779   1.152
12181SOL     OW38439   1.062   3.972  14.421
12181SOL    HW138440   0.999   4.005  14.485
12181SOL    HW238441   1.008   3.942  14.347
12182SOL     OW38442   4.628   4.811   4.412
12182SOL    HW138443   4.589   4.804   4.500
12182SOL    HW238444   4.719   4.787   4.424
12183SOL     OW38445   2.403   9.161   5.110
12183SOL    HW138446   2.458   9.124   5.179
12183SOL    HW238447   2.464   9.182   5.039
12184SOL     OW38448   5.613  12.011   5.571
12184SOL    HW138449   5.540  12.061   5.535
12184SOL    HW238450   5.574  11.927   5.596
12185SOL     OW38451   8.873   1.956  14.153
12185SOL    HW138452   8.825   2.032  14.186
12185SOL    HW238453   8.965   1.978  14.166
12186SOL     OW38454  13.623   1.489  12.581
12186SOL    HW138455  13.651   1.460  12.668
12186SOL    HW238456  13.537   1.530  12.596
12187SOL     OW38457   4.510   8.928   7.465
12187SOL    HW138458   4.470   8.976   7.393
12187SOL    HW238459   4.464   8.960   7.543
12188SOL     OW38460   0.914   5.866   6.796
12188SOL    HW138461   0.978   5.812   6.842
12188SOL    HW238462   0.891   5.815   6.719
12189SOL     OW38463   3.905   6.033   7.435
12189SOL    HW138464   3.810   6.039   7.427
12189SOL    HW238465   3.938   6.047   7.346
12190SOL     OW38466   3.513   1.900   7.667
12190SOL    HW138467   3.431   1.850   7.673
12190SOL    HW238468   3.485   1.991   7.668
12191SOL     OW38469   2.768   2.533  13.549
12191SOL    HW138470   2.707   2.598  13.585
12191SOL    HW238471   2.854   2.576  13.553
12192SOL     OW38472  10.466  13.688   4.896
12192SOL    HW138473  10.379  13.728   4.902
12192SOL    HW238474  10.487  13.665   4.986
12193SOL     OW38475   0.710   0.515   5.998
12193SOL    HW138476   0.660   0.435   6.015
12193SOL    HW238477   0.651   0.586   6.023
12194SOL     OW38478  14.096   1.295   1.803
12194SOL    HW138479  14.071   1.381   1.835
12194SOL    HW238480  14.179   1.309   1.757
12195SOL     OW38481   3.092   3.709  11.967
12195SOL    HW138482   3.038   3.644  12.011
12195SOL    HW238483   3.147   3.746  12.036
12196SOL     OW38484   1.870  14.405   2.795
12196SOL    HW138485   1.962  14.393   2.770
12196SOL    HW238486   1.825  14.419   2.712
12197SOL     OW38487   1.485   6.789   7.170
12197SOL    HW138488   1.495   6.779   7.265
12197SOL    HW238489   1.559   6.844   7.144
12198SOL     OW38490  10.082  13.837   5.299
12198SOL    HW138491  10.174  13.825   5.279
12198SOL    HW238492  10.081  13.869   5.389
12199SOL     OW38493  11.026  13.628   2.593
12199SOL    HW138494  10.981  13.624   2.508
12199SOL    HW238495  11.066  13.714   2.595
12200SOL     OW38496  11.348  12.714   1.819
12200SOL    HW138497  11.358  12.776   1.747
12200SOL    HW238498  11.352  12.768   1.898
12201SOL     OW38499   3.056   1.695   8.803
12201SOL    HW138500   2.984   1.748   8.838
12201SOL    HW238501   3.130   1.755   8.798
12202SOL     OW38502   1.493   3.164   4.195
12202SOL    HW138503   1.506   3.090   4.254
12202SOL    HW238504   1.443   3.127   4.121
12203SOL     OW38505   8.808  11.394  11.820
12203SOL    HW138506   8.782  11.381  11.729
12203SOL    HW238507   8.771  11.320  11.867
12204SOL     OW38508   4.036  13.899   4.230
12204SOL    HW138509   3.993  13.826   4.275
12204SOL    HW238510   4.056  13.865   4.143
12205SOL     OW38511  14.019   0.051   8.316
12205SOL    HW138512  13.932   0.066   8.352
12205SOL    HW238513  14.078   0.097   8.376
12206SOL     OW38514   0.935   9.084  10.712
12206SOL    HW138515   0.919   9.062  10.804
12206SOL    HW238516   1.020   9.045  10.692
12207SOL     OW38517  14.025   1.046   1.299
12207SOL    HW138518  13.955   0.996   1.341
12207SOL    HW238519  13.997   1.056   1.208
12208SOL     OW38520   1.340   0.059   8.924
12208SOL    HW138521   1.284   0.076   9.000
12208SOL    HW238522   1.356  14.834   8.927
12209SOL     OW38523   6.812   2.837   8.059
12209SOL    HW138524   6.884   2.899   8.068
12209SOL    HW238525   6.785   2.844   7.968
12210SOL     OW38526   2.471   7.424   7.111
12210SOL    HW138527   2.448   7.451   7.200
12210SOL    HW238528   2.485   7.507   7.064
12211SOL     OW38529  14.443  10.163  12.673
12211SOL    HW138530  14.423  10.070  12.674
12211SOL    HW238531  14.533  10.169  12.640
12212SOL     OW38532   1.943   2.043  12.185
12212SOL    HW138533   1.995   2.029  12.106
12212SOL    HW238534   1.875   2.104  12.159
12213SOL     OW38535   9.249   1.708   6.331
12213SOL    HW138536   9.165   1.668   6.355
12213SOL    HW238537   9.296   1.715   6.414
12214SOL     OW38538   9.045   1.760  13.826
12214SOL    HW138539   9.074   1.671  13.806
12214SOL    HW238540   9.119   1.815  13.799
12215SOL     OW38541   0.691  10.529  11.274
12215SOL    HW138542   0.623  10.522  11.341
12215SOL    HW238543   0.764  10.573  11.318
12216SOL     OW38544   2.837   6.173   1.236
12216SOL    HW138545   2.798   6.087   1.246
12216SOL    HW238546   2.899   6.180   1.309
12217SOL     OW38547  12.752   1.794   1.740
12217SOL    HW138548  12.689   1.798   1.812
12217SOL    HW238549  12.757   1.701   1.718
12218SOL     OW38550   4.201  13.403   3.098
12218SOL    HW138551   4.157  13.378   3.017
12218SOL    HW238552   4.293  13.414   3.072
12219SOL     OW38553   7.019   0.658  13.800
12219SOL    HW138554   7.031   0.572  13.841
12219SOL    HW238555   6.939   0.649  13.748
12220SOL     OW38556   5.629  14.339   7.485
12220SOL    HW138557   5.594  14.421   7.520
12220SOL    HW238558   5.705  14.365   7.433
12221SOL     OW38559  11.378   5.230   5.227
12221SOL    HW138560  11.400   5.300   5.288
12221SOL    HW238561  11.446   5.164   5.241
12222SOL     OW38562   8.911  12.919   4.204
12222SOL    HW138563   8.947  12.864   4.274
12222SOL    HW238564   8.824  12.883   4.188
12223SOL     OW38565  12.665  12.748   1.772
12223SOL    HW138566  12.590  12.713   1.724
12223SOL    HW238567  12.676  12.690   1.847
12224SOL     OW38568   3.585  13.797   4.658
12224SOL    HW138569   3.615  13.810   4.568
12224SOL    HW238570   3.498  13.758   4.649
12225SOL     OW38571   6.285   8.375   7.796
12225SOL    HW138572   6.257   8.444   7.856
12225SOL    HW238573   6.305   8.301   7.852
12226SOL     OW38574  12.539  11.205   5.840
12226SOL    HW138575  12.579  11.220   5.754
12226SOL    HW238576  12.605  11.155   5.888
12227SOL     OW38577   9.485   2.219  11.712
12227SOL    HW138578   9.418   2.273  11.669
12227SOL    HW238579   9.460   2.218  11.804
12228SOL     OW38580  14.785  10.633  12.534
12228SOL    HW138581  14.821  10.657  12.620
12228SOL    HW238582  14.744  10.547  12.548
12229SOL     OW38583   7.087  12.609   5.581
12229SOL    HW138584   7.177  12.625   5.608
12229SOL    HW238585   7.088  12.519   5.548
12230SOL     OW38586  13.843   7.143  13.886
12230SOL    HW138587  13.908   7.075  13.905
12230SOL    HW238588  13.770   7.097  13.847
12231SOL     OW38589  11.987  10.587  10.931
12231SOL    HW138590  11.927  10.513  10.934
12231SOL    HW238591  11.966  10.638  11.009
12232SOL     OW38592  13.846   9.764  12.096
12232SOL    HW138593  13.806   9.768  12.009
12232SOL    HW238594  13.782   9.806  12.154
12233SOL     OW38595  10.119   9.831  13.592
12233SOL    HW138596  10.202   9.875  13.608
12233SOL    HW238597  10.137   9.768  13.523
12234SOL     OW38598  14.345   7.568  11.860
12234SOL    HW138599  14.339   7.587  11.767
12234SOL    HW238600  14.255   7.573  11.892
12235SOL     OW38601  11.295   5.981   7.089
12235SOL    HW138602  11.338   6.057   7.127
12235SOL    HW238603  11.203   6.005   7.081
12236SOL     OW38604  12.818   4.031  12.015
12236SOL    HW138605  12.855   4.115  12.043
12236SOL    HW238606  12.750   4.055  11.951
12237SOL     OW38607   7.233   1.138  13.615
12237SOL    HW138608   7.288   1.210  13.646
12237SOL    HW238609   7.145   1.159  13.647
12238SOL     OW38610   7.697   0.704   7.213
12238SOL    HW138611   7.608   0.670   7.216
12238SOL    HW238612   7.696   0.768   7.141
12239SOL     OW38613  14.251   4.368  13.254
12239SOL    HW138614  14.275   4.339  13.166
12239SOL    HW238615  14.155   4.365  13.255
12240SOL     OW38616  13.964  12.258   5.432
12240SOL    HW138617  13.911  12.290   5.359
12240SOL    HW238618  13.995  12.172   5.403
12241SOL     OW38619   7.846   0.133   6.063
12241SOL    HW138620   7.814   0.223   6.059
12241SOL    HW238621   7.924   0.133   6.008
12242SOL     OW38622  13.310   1.515   3.708
12242SOL    HW138623  13.378   1.536   3.644
12242SOL    HW238624  13.349   1.448   3.764
12243SOL     OW38625   3.840  12.883   5.003
12243SOL    HW138626   3.744  12.886   5.005
12243SOL    HW238627   3.860  12.797   4.966
12244SOL     OW38628   2.034  11.335   0.155
12244SOL    HW138629   1.975  11.264   0.130
12244SOL    HW238630   2.044  11.326   0.250
12245SOL     OW38631  10.466   7.773   0.477
12245SOL    HW138632  10.464   7.858   0.520
12245SOL    HW238633  10.419   7.787   0.395
12246SOL     OW38634  13.130  12.984   7.271
12246SOL    HW138635  13.111  13.073   7.299
12246SOL    HW238636  13.134  12.933   7.352
12247SOL     OW38637   4.240   5.467   4.456
12247SOL    HW138638   4.315   5.456   4.514
12247SOL    HW238639   4.270   5.528   4.388
12248SOL     OW38640  13.556   4.302   8.681
12248SOL    HW138641  13.462   4.282   8.682
12248SOL    HW238642  13.596   4.234   8.734
12249SOL     OW38643   3.621   2.846   5.632
12249SOL    HW138644   3.671   2.790   5.573
12249SOL    HW238645   3.652   2.935   5.612
12250SOL     OW38646  12.868   8.920   3.929
12250SOL    HW138647  12.946   8.867   3.920
12250SOL    HW238648  12.825   8.887   4.008
12251SOL     OW38649  11.754   3.405  10.465
12251SOL    HW138650  11.846   3.396  10.492
12251SOL    HW238651  11.727   3.316  10.443
12252SOL     OW38652   6.341   0.895  12.806
12252SOL    HW138653   6.269   0.949  12.839
12252SOL    HW238654   6.349   0.825  12.871
12253SOL     OW38655   7.101   4.824   5.311
12253SOL    HW138656   7.007   4.832   5.295
12253SOL    HW238657   7.138   4.909   5.286
12254SOL     OW38658   2.354   2.153   1.774
12254SOL    HW138659   2.406   2.206   1.714
12254SOL    HW238660   2.266   2.191   1.771
12255SOL     OW38661  10.807   1.177   7.324
12255SOL    HW138662  10.901   1.194   7.316
12255SOL    HW238663  10.765   1.260   7.299
12256SOL     OW38664   9.362   0.686  12.535
12256SOL    HW138665   9.312   0.607  12.558
12256SOL    HW238666   9.305   0.759  12.560
12257SOL     OW38667   7.377   2.502  10.511
12257SOL    HW138668   7.375   2.408  10.494
12257SOL    HW238669   7.294   2.535  10.477
12258SOL     OW38670   8.341   5.666   6.820
12258SOL    HW138671   8.259   5.651   6.866
12258SOL    HW238672   8.314   5.701   6.735
12259SOL     OW38673  11.168   7.593  11.396
12259SOL    HW138674  11.161   7.549  11.481
12259SOL    HW238675  11.107   7.545  11.340
12260SOL     OW38676   8.296  14.788  13.232
12260SOL    HW138677   8.345   0.001  13.233
12260SOL    HW238678   8.326  14.742  13.311
12261SOL     OW38679   3.862   6.941   5.472
12261SOL    HW138680   3.842   6.933   5.379
12261SOL    HW238681   3.819   6.867   5.513
12262SOL     OW38682   6.176   0.547   8.034
12262SOL    HW138683   6.243   0.615   8.036
12262SOL    HW238684   6.216   0.472   8.077
12263SOL     OW38685   8.941  11.199  12.279
12263SOL    HW138686   9.035  11.211  12.293
12263SOL    HW238687   8.935  11.147  12.199
12264SOL     OW38688   9.592   7.080   6.260
12264SOL    HW138689   9.571   7.034   6.179
12264SOL    HW238690   9.529   7.046   6.324
12265SOL     OW38691  14.834   7.846   2.722
12265SOL    HW138692  14.793   7.759   2.713
12265SOL    HW238693   0.023   7.837   2.798
12266SOL     OW38694   1.011  14.696   9.461
12266SOL    HW138695   0.967  14.748   9.528
12266SOL    HW238696   1.046  14.621   9.509
12267SOL     OW38697   3.118  11.784   8.286
12267SOL    HW138698   3.174  11.846   8.333
12267SOL    HW238699   3.029  11.810   8.308
12268SOL     OW38700  12.605   9.428   0.196
12268SOL    HW138701  12.667   9.356   0.183
12268SOL    HW238702  12.523   9.395   0.160
12269SOL     OW38703   5.476   8.548  10.961
12269SOL    HW138704   5.493   8.593  10.878
12269SOL    HW238705   5.562   8.541  11.003
12270SOL     OW38706  10.011   7.735   8.098
12270SOL    HW138707   9.970   7.818   8.077
12270SOL    HW238708   9.943   7.685   8.143
12271SOL     OW38709   1.471   3.250   0.363
12271SOL    HW138710   1.423   3.333   0.369
12271SOL    HW238711   1.506   3.250   0.274
12272SOL     OW38712   4.710  13.269   6.974
12272SOL    HW138713   4.723  13.281   7.068
12272SOL    HW238714   4.765  13.194   6.951
12273SOL     OW38715   7.761   4.099   1.716
12273SOL    HW138716   7.841   4.072   1.671
12273SOL    HW238717   7.771   4.193   1.730
12274SOL     OW38718  13.667  12.788   9.999
12274SOL    HW138719  13.668  12.766  10.093
12274SOL    HW238720  13.708  12.712   9.957
12275SOL     OW38721  13.061   4.629   7.113
12275SOL    HW138722  13.088   4.625   7.022
12275SOL    HW238723  13.134   4.671   7.158
12276SOL     OW38724   8.531   0.454   4.750
12276SOL    HW138725   8.613   0.489   4.715
12276SOL    HW238726   8.473   0.531   4.755
12277SOL     OW38727   9.799   8.870  10.616
12277SOL    HW138728   9.767   8.781  10.634
12277SOL    HW238729   9.724   8.915  10.576
12278SOL     OW38730   2.130   5.579  10.179
12278SOL    HW138731   2.156   5.667  10.207
12278SOL    HW238732   2.144   5.524  10.256
12279SOL     OW38733  11.678   7.219  14.677
12279SOL    HW138734  11.646   7.208  14.767
12279SOL    HW238735  11.699   7.130  14.648
12280SOL     OW38736  14.854   7.453  11.437
12280SOL    HW138737   0.016   7.427  11.524
12280SOL    HW238738  14.782   7.393  11.419
12281SOL     OW38739   9.018  10.424  13.059
12281SOL    HW138740   9.016  10.506  13.109
12281SOL    HW238741   9.009  10.452  12.968
12282SOL     OW38742   8.840   4.313   2.660
12282SOL    HW138743   8.887   4.233   2.636
12282SOL    HW238744   8.897   4.355   2.725
12283SOL     OW38745   0.717   8.045   3.164
12283SOL    HW138746   0.712   8.017   3.072
12283SOL    HW238747   0.779   7.983   3.204
12284SOL     OW38748  14.009   2.081   6.386
12284SOL    HW138749  14.044   2.087   6.474
12284SOL    HW238750  13.997   2.172   6.359
12285SOL     OW38751   0.998  11.940   9.166
12285SOL    HW138752   0.965  11.958   9.254
12285SOL    HW238753   1.093  11.934   9.176
12286SOL     OW38754   0.234   9.742   8.288
12286SOL    HW138755   0.194   9.828   8.275
12286SOL    HW238756   0.320   9.762   8.327
12287SOL     OW38757   9.966   1.223   3.221
12287SOL    HW138758  10.000   1.283   3.155
12287SOL    HW238759   9.984   1.266   3.304
12288SOL     OW38760  13.584   1.003  12.668
12288SOL    HW138761  13.497   1.040  12.679
12288SOL    HW238762  13.597   0.949  12.746
12289SOL     OW38763   3.341  11.163   5.261
12289SOL    HW138764   3.333  11.074   5.225
12289SOL    HW238765   3.251  11.196   5.262
12290SOL     OW38766   2.505   1.101   1.588
12290SOL    HW138767   2.417   1.067   1.603
12290SOL    HW238768   2.513   1.174   1.649
12291SOL     OW38769   9.585  10.879   8.930
12291SOL    HW138770   9.522  10.910   8.866
12291SOL    HW238771   9.566  10.785   8.939
12292SOL     OW38772   8.584  14.806   9.326
12292SOL    HW138773   8.629  14.723   9.312
12292SOL    HW238774   8.537  14.822   9.244
12293SOL     OW38775   4.325   1.103   5.611
12293SOL    HW138776   4.266   1.078   5.682
12293SOL    HW238777   4.408   1.061   5.633
12294SOL     OW38778  10.084   9.169  10.046
12294SOL    HW138779  10.044   9.084  10.031
12294SOL    HW238780  10.131   9.159  10.129
12295SOL     OW38781  12.703   9.170   4.076
12295SOL    HW138782  12.662   9.183   3.991
12295SOL    HW238783  12.702   9.076   4.090
12296SOL     OW38784   2.389   1.382   4.706
12296SOL    HW138785   2.451   1.417   4.642
12296SOL    HW238786   2.331   1.456   4.726
12297SOL     OW38787   5.421   8.494   3.235
12297SOL    HW138788   5.357   8.539   3.180
12297SOL    HW238789   5.505   8.536   3.213
12298SOL     OW38790   5.301   4.924   4.376
12298SOL    HW138791   5.214   4.913   4.337
12298SOL    HW238792   5.302   5.015   4.406
12299SOL     OW38793   1.520   0.729   6.030
12299SOL    HW138794   1.535   0.814   6.072
12299SOL    HW238795   1.604   0.708   5.989
12300SOL     OW38796  13.102   6.990   1.154
12300SOL    HW138797  13.165   6.938   1.204
12300SOL    HW238798  13.052   7.037   1.221
12301SOL     OW38799   2.771  14.779   2.072
12301SOL    HW138800   2.692  14.729   2.050
12301SOL    HW238801   2.738  14.861   2.107
12302SOL     OW38802  10.121  12.714   6.821
12302SOL    HW138803  10.093  12.680   6.736
12302SOL    HW238804  10.214  12.695   6.825
12303SOL     OW38805   7.862  10.596   6.401
12303SOL    HW138806   7.771  10.606   6.429
12303SOL    HW238807   7.896  10.685   6.397
12304SOL     OW38808   8.087  10.826   8.327
12304SOL    HW138809   8.089  10.764   8.400
12304SOL    HW238810   8.089  10.912   8.367
12305SOL     OW38811  11.630  10.010  11.532
12305SOL    HW138812  11.650  10.082  11.473
12305SOL    HW238813  11.705  10.005  11.591
12306SOL     OW38814   2.996   7.616   1.243
12306SOL    HW138815   3.024   7.618   1.151
12306SOL    HW238816   2.942   7.695   1.252
12307SOL     OW38817  12.049  14.370   4.668
12307SOL    HW138818  12.051  14.369   4.573
12307SOL    HW238819  12.046  14.463   4.691
12308SOL     OW38820   4.987   7.880   2.713
12308SOL    HW138821   4.930   7.949   2.748
12308SOL    HW238822   4.960   7.870   2.622
12309SOL     OW38823   3.368   9.410  12.085
12309SOL    HW138824   3.399   9.397  12.175
12309SOL    HW238825   3.396   9.331  12.039
12310SOL     OW38826   9.869  11.746   9.304
12310SOL    HW138827   9.828  11.832   9.314
12310SOL    HW238828   9.963  11.763   9.309
12311SOL     OW38829  13.565   5.060   7.119
12311SOL    HW138830  13.514   5.095   7.193
12311SOL    HW238831  13.598   5.138   7.074
12312SOL     OW38832  13.561   8.523   4.380
12312SOL    HW138833  13.535   8.614   4.395
12312SOL    HW238834  13.523   8.475   4.454
12313SOL     OW38835   9.450  11.237   8.535
12313SOL    HW138836   9.522  11.183   8.566
12313SOL    HW238837   9.373  11.179   8.538
12314SOL     OW38838  10.401   8.824  12.249
12314SOL    HW138839  10.365   8.773  12.322
12314SOL    HW238840  10.401   8.763  12.175
12315SOL     OW38841   6.989   0.424  12.189
12315SOL    HW138842   6.931   0.400  12.261
12315SOL    HW238843   6.951   0.381  12.112
12316SOL     OW38844   2.304  14.089  12.818
12316SOL    HW138845   2.370  14.051  12.875
12316SOL    HW238846   2.337  14.074  12.730
12317SOL     OW38847   7.741   7.653  10.417
12317SOL    HW138848   7.811   7.672  10.355
12317SOL    HW238849   7.692   7.581  10.377
12318SOL     OW38850  14.166   8.516   2.090
12318SOL    HW138851  14.074   8.517   2.116
12318SOL    HW238852  14.165   8.500   1.996
12319SOL     OW38853  12.925   1.745   9.728
12319SOL    HW138854  12.896   1.765   9.639
12319SOL    HW238855  12.943   1.651   9.726
12320SOL     OW38856   3.496  11.448   8.634
12320SOL    HW138857   3.468  11.365   8.673
12320SOL    HW238858   3.498  11.509   8.708
12321SOL     OW38859   9.495   5.207   2.528
12321SOL    HW138860   9.510   5.247   2.613
12321SOL    HW238861   9.540   5.265   2.466
12322SOL     OW38862  10.223   1.040   2.287
12322SOL    HW138863  10.203   1.131   2.265
12322SOL    HW238864  10.160   0.988   2.237
12323SOL     OW38865  11.098   2.508  12.065
12323SOL    HW138866  11.077   2.596  12.033
12323SOL    HW238867  11.192   2.510  12.083
12324SOL     OW38868  13.456   6.444  10.581
12324SOL    HW138869  13.389   6.460  10.514
12324SOL    HW238870  13.407   6.441  10.663
12325SOL     OW38871   7.402   6.151  11.234
12325SOL    HW138872   7.376   6.067  11.195
12325SOL    HW238873   7.363   6.150  11.321
12326SOL     OW38874   7.623   4.141   7.077
12326SOL    HW138875   7.709   4.181   7.077
12326SOL    HW238876   7.562   4.214   7.084
12327SOL     OW38877  14.316  11.421  11.396
12327SOL    HW138878  14.220  11.416  11.403
12327SOL    HW238879  14.338  11.506  11.432
12328SOL     OW38880  13.771  12.701   1.712
12328SOL    HW138881  13.814  12.759   1.649
12328SOL    HW238882  13.800  12.733   1.797
12329SOL     OW38883   3.605  12.157   1.407
12329SOL    HW138884   3.646  12.175   1.492
12329SOL    HW238885   3.580  12.065   1.412
12330SOL     OW38886  10.543   5.502   5.458
12330SOL    HW138887  10.532   5.597   5.462
12330SOL    HW238888  10.486   5.469   5.529
12331SOL     OW38889   7.229  11.816   4.783
12331SOL    HW138890   7.143  11.858   4.787
12331SOL    HW238891   7.272  11.857   4.707
12332SOL     OW38892   8.945   3.136   6.639
12332SOL    HW138893   8.905   3.100   6.719
12332SOL    HW238894   8.984   3.219   6.667
12333SOL     OW38895   5.230   6.403   8.752
12333SOL    HW138896   5.299   6.341   8.775
12333SOL    HW238897   5.174   6.355   8.690
12334SOL     OW38898   6.717  10.700   7.293
12334SOL    HW138899   6.714  10.786   7.335
12334SOL    HW238900   6.690  10.716   7.203
12335SOL     OW38901   3.401   5.320  11.005
12335SOL    HW138902   3.433   5.311  10.916
12335SOL    HW238903   3.463   5.270  11.059
12336SOL     OW38904   3.585   5.261   6.343
12336SOL    HW138905   3.662   5.247   6.398
12336SOL    HW238906   3.536   5.330   6.387
12337SOL     OW38907   5.414  13.797   6.584
12337SOL    HW138908   5.473  13.852   6.635
12337SOL    HW238909   5.336  13.851   6.571
12338SOL     OW38910  10.120   8.621   3.837
12338SOL    HW138911  10.117   8.560   3.911
12338SOL    HW238912  10.175   8.577   3.772
12339SOL     OW38913   8.520  13.007   5.934
12339SOL    HW138914   8.614  12.999   5.922
12339SOL    HW238915   8.483  12.931   5.889
12340SOL     OW38916   7.502   8.070  11.503
12340SOL    HW138917   7.553   8.120  11.566
12340SOL    HW238918   7.438   8.133  11.469
12341SOL     OW38919  10.874  13.694   4.829
12341SOL    HW138920  10.846  13.620   4.884
12341SOL    HW238921  10.876  13.657   4.740
12342SOL     OW38922   4.199   3.644  14.681
12342SOL    HW138923   4.287   3.632  14.717
12342SOL    HW238924   4.204   3.610  14.592
12343SOL     OW38925   6.100  10.449   9.213
12343SOL    HW138926   6.082  10.396   9.290
12343SOL    HW238927   6.183  10.416   9.180
12344SOL     OW38928  12.135  13.552   3.142
12344SOL    HW138929  12.217  13.573   3.097
12344SOL    HW238930  12.121  13.459   3.125
12345SOL     OW38931   1.085   1.264  10.388
12345SOL    HW138932   1.160   1.316  10.418
12345SOL    HW238933   1.041   1.319  10.324
12346SOL     OW38934   1.073  12.455   4.346
12346SOL    HW138935   1.167  12.467   4.355
12346SOL    HW238936   1.034  12.529   4.393
12347SOL     OW38937   5.324  10.754   6.662
12347SOL    HW138938   5.315  10.753   6.567
12347SOL    HW238939   5.414  10.724   6.677
12348SOL     OW38940  10.023  13.901  10.407
12348SOL    HW138941   9.988  13.911  10.319
12348SOL    HW238942  10.111  13.938  10.402
12349SOL     OW38943  13.475  13.402   1.283
12349SOL    HW138944  13.440  13.358   1.360
12349SOL    HW238945  13.416  13.378   1.212
12350SOL     OW38946   7.683   9.534   2.129
12350SOL    HW138947   7.600   9.512   2.170
12350SOL    HW238948   7.701   9.459   2.071
12351SOL     OW38949  11.601  10.304   4.026
12351SOL    HW138950  11.525  10.354   4.056
12351SOL    HW238951  11.564  10.222   3.992
12352SOL     OW38952   1.940   6.393   6.105
12352SOL    HW138953   1.969   6.304   6.087
12352SOL    HW238954   1.973   6.412   6.193
12353SOL     OW38955   5.274   8.950   1.728
12353SOL    HW138956   5.358   8.913   1.700
12353SOL    HW238957   5.228   8.969   1.647
12354SOL     OW38958   3.898   8.927   2.005
12354SOL    HW138959   3.841   8.913   1.929
12354SOL    HW238960   3.886   8.848   2.058
12355SOL     OW38961   3.721   1.014   2.784
12355SOL    HW138962   3.699   1.094   2.831
12355SOL    HW238963   3.677   1.021   2.700
12356SOL     OW38964   1.810   4.932  13.826
12356SOL    HW138965   1.869   4.859  13.846
12356SOL    HW238966   1.723   4.899  13.848
12357SOL     OW38967   3.922   4.183   9.992
12357SOL    HW138968   3.893   4.269   9.960
12357SOL    HW238969   3.996   4.202  10.048
12358SOL     OW38970  11.792   2.377  14.598
12358SOL    HW138971  11.795   2.398  14.505
12358SOL    HW238972  11.737   2.298  14.603
12359SOL     OW38973   6.977   0.957  13.852
12359SOL    HW138974   6.920   0.890  13.888
12359SOL    HW238975   7.014   1.001  13.929
12360SOL     OW38976  11.881   6.273   7.010
12360SOL    HW138977  11.802   6.285   6.958
12360SOL    HW238978  11.875   6.339   7.079
12361SOL     OW38979   3.076   3.991  12.997
12361SOL    HW138980   3.073   3.916  13.056
12361SOL    HW238981   3.107   4.063  13.051
12362SOL     OW38982  13.673   5.640  12.842
12362SOL    HW138983  13.673   5.576  12.913
12362SOL    HW238984  13.659   5.724  12.886
12363SOL     OW38985   4.059   0.771   6.399
12363SOL    HW138986   4.068   0.762   6.304
12363SOL    HW238987   4.128   0.716   6.435
12364SOL     OW38988   3.709   1.708  14.731
12364SOL    HW138989   3.627   1.662  14.713
12364SOL    HW238990   3.777   1.642  14.725
12365SOL     OW38991   1.293  10.635   8.260
12365SOL    HW138992   1.368  10.683   8.295
12365SOL    HW238993   1.328  10.587   8.184
12366SOL     OW38994  11.540  14.314   4.210
12366SOL    HW138995  11.472  14.300   4.277
12366SOL    HW238996  11.527  14.405   4.182
12367SOL     OW38997   0.007  13.527   0.736
12367SOL    HW138998   0.069  13.463   0.770
12367SOL    HW238999   0.062  13.599   0.705
12368SOL     OW39000   4.543   7.963  11.734
12368SOL    HW139001   4.601   7.965  11.658
12368SOL    HW239002   4.456   7.979  11.698
12369SOL     OW39003   3.738   9.705  12.929
12369SOL    HW139004   3.725   9.691  13.023
12369SOL    HW239005   3.824   9.667  12.910
12370SOL     OW39006   4.516   9.269   8.212
12370SOL    HW139007   4.464   9.196   8.177
12370SOL    HW239008   4.492   9.273   8.304
12371SOL     OW39009   3.226   7.644  11.053
12371SOL    HW139010   3.245   7.728  11.010
12371SOL    HW239011   3.285   7.642  11.128
12372SOL     OW39012   9.056  13.878  12.514
12372SOL    HW139013   8.973  13.839  12.489
12372SOL    HW239014   9.103  13.891  12.432
12373SOL     OW39015   6.884  12.116   1.061
12373SOL    HW139016   6.891  12.025   1.092
12373SOL    HW239017   6.805  12.149   1.104
12374SOL     OW39018  13.355  13.876   5.116
12374SOL    HW139019  13.261  13.886   5.097
12374SOL    HW239020  13.395  13.953   5.077
12375SOL     OW39021   1.294   1.899   4.792
12375SOL    HW139022   1.211   1.855   4.778
12375SOL    HW239023   1.272   1.992   4.791
12376SOL     OW39024   7.947  13.124  13.233
12376SOL    HW139025   7.899  13.044  13.257
12376SOL    HW239026   8.014  13.132  13.301
12377SOL     OW39027   4.599   9.920   4.691
12377SOL    HW139028   4.642   9.960   4.766
12377SOL    HW239029   4.518   9.970   4.680
12378SOL     OW39030   5.180  14.765  14.145
12378SOL    HW139031   5.125  14.828  14.192
12378SOL    HW239032   5.227  14.818  14.080
12379SOL     OW39033  14.860  13.783  12.132
12379SOL    HW139034  14.855  13.878  12.137
12379SOL    HW239035  14.784  13.753  12.182
12380SOL     OW39036   4.660  11.067   8.217
12380SOL    HW139037   4.636  11.010   8.144
12380SOL    HW239038   4.584  11.065   8.275
12381SOL     OW39039  10.835   9.826   5.120
12381SOL    HW139040  10.872   9.900   5.168
12381SOL    HW239041  10.793   9.866   5.044
12382SOL     OW39042   7.863   1.704   5.603
12382SOL    HW139043   7.911   1.703   5.520
12382SOL    HW239044   7.791   1.643   5.589
12383SOL     OW39045   7.805   3.831  14.413
12383SOL    HW139046   7.734   3.826  14.477
12383SOL    HW239047   7.885   3.839  14.465
12384SOL     OW39048   2.118   7.874  14.385
12384SOL    HW139049   2.147   7.820  14.459
12384SOL    HW239050   2.023   7.861  14.382
12385SOL     OW39051  12.600   2.887   5.850
12385SOL    HW139052  12.685   2.894   5.805
12385SOL    HW239053  12.579   2.794   5.846
12386SOL     OW39054   6.533  11.778   6.658
12386SOL    HW139055   6.518  11.685   6.675
12386SOL    HW239056   6.557  11.783   6.566
12387SOL     OW39057   4.860  12.753   5.237
12387SOL    HW139058   4.833  12.662   5.250
12387SOL    HW239059   4.826  12.800   5.314
12388SOL     OW39060  12.330  13.996   0.477
12388SOL    HW139061  12.404  13.987   0.416
12388SOL    HW239062  12.364  14.050   0.549
12389SOL     OW39063  10.759   8.909  12.835
12389SOL    HW139064  10.839   8.960  12.847
12389SOL    HW239065  10.780   8.822  12.868
12390SOL     OW39066   1.472   3.563  10.811
12390SOL    HW139067   1.516   3.579  10.894
12390SOL    HW239068   1.396   3.621  10.811
12391SOL     OW39069   0.664   2.892   8.288
12391SOL    HW139070   0.695   2.835   8.359
12391SOL    HW239071   0.575   2.861   8.271
12392SOL     OW39072   5.993  11.416   4.703
12392SOL    HW139073   6.021  11.404   4.794
12392SOL    HW239074   6.075  11.429   4.655
12393SOL     OW39075  10.567  13.085   4.406
12393SOL    HW139076  10.504  13.150   4.435
12393SOL    HW239077  10.513  13.015   4.368
12394SOL     OW39078  10.099   6.163   5.647
12394SOL    HW139079  10.130   6.114   5.723
12394SOL    HW239080  10.096   6.099   5.577
12395SOL     OW39081  13.458  10.429   7.525
12395SOL    HW139082  13.463  10.377   7.445
12395SOL    HW239083  13.388  10.492   7.509
12396SOL     OW39084   9.318  11.131   4.910
12396SOL    HW139085   9.298  11.209   4.859
12396SOL    HW239086   9.233  11.087   4.920
12397SOL     OW39087   5.268   7.862   8.071
12397SOL    HW139088   5.289   7.768   8.077
12397SOL    HW239089   5.253   7.877   7.978
12398SOL     OW39090  14.541  12.173   6.311
12398SOL    HW139091  14.630  12.139   6.303
12398SOL    HW239092  14.496  12.142   6.232
12399SOL     OW39093  10.696  13.902   4.943
12399SOL    HW139094  10.722  13.868   5.029
12399SOL    HW239095  10.707  13.827   4.884
12400SOL     OW39096  13.358   4.517  13.163
12400SOL    HW139097  13.432   4.476  13.208
12400SOL    HW239098  13.392   4.600  13.131
12401SOL     OW39099  10.816   4.816   0.990
12401SOL    HW139100  10.842   4.794   0.900
12401SOL    HW239101  10.766   4.897   0.982
12402SOL     OW39102   9.105  13.941   1.843
12402SOL    HW139103   9.074  13.962   1.754
12402SOL    HW239104   9.189  13.897   1.829
12403SOL     OW39105   6.739   2.116   0.982
12403SOL    HW139106   6.787   2.074   1.053
12403SOL    HW239107   6.770   2.207   0.983
12404SOL     OW39108   2.784   4.173   7.043
12404SOL    HW139109   2.703   4.221   7.023
12404SOL    HW239110   2.849   4.242   7.058
12405SOL     OW39111  13.625  10.979  12.246
12405SOL    HW139112  13.701  11.027  12.214
12405SOL    HW239113  13.661  10.899  12.284
12406SOL     OW39114   6.815   0.636  14.414
12406SOL    HW139115   6.746   0.579  14.448
12406SOL    HW239116   6.831   0.699  14.485
12407SOL     OW39117   5.587  13.931  11.058
12407SOL    HW139118   5.526  14.005  11.050
12407SOL    HW239119   5.570  13.877  10.981
12408SOL     OW39120   1.320   4.340  10.756
12408SOL    HW139121   1.405   4.320  10.717
12408SOL    HW239122   1.319   4.292  10.838
12409SOL     OW39123   8.374   4.901  11.769
12409SOL    HW139124   8.441   4.835  11.751
12409SOL    HW239125   8.392   4.971  11.706
12410SOL     OW39126   9.977  11.469  12.617
12410SOL    HW139127   9.895  11.431  12.585
12410SOL    HW239128   9.953  11.554  12.652
12411SOL     OW39129   3.013   2.337  14.842
12411SOL    HW139130   2.956   2.260  14.841
12411SOL    HW239131   2.966   2.402  14.790
12412SOL     OW39132   3.951   1.136   4.244
12412SOL    HW139133   3.953   1.223   4.204
12412SOL    HW239134   3.860   1.124   4.270
12413SOL     OW39135   5.782   7.317   7.004
12413SOL    HW139136   5.733   7.271   7.073
12413SOL    HW239137   5.717   7.335   6.936
12414SOL     OW39138   4.378  14.016   9.267
12414SOL    HW139139   4.372  14.025   9.362
12414SOL    HW239140   4.465  14.049   9.245
12415SOL     OW39141  10.605   3.489   7.619
12415SOL    HW139142  10.541   3.557   7.638
12415SOL    HW239143  10.689   3.528   7.642
12416SOL     OW39144   2.656   4.557  10.530
12416SOL    HW139145   2.686   4.569  10.620
12416SOL    HW239146   2.683   4.468  10.507
12417SOL     OW39147  13.434   3.201   1.138
12417SOL    HW139148  13.438   3.218   1.044
12417SOL    HW239149  13.456   3.285   1.178
12418SOL     OW39150  13.557   6.646   3.384
12418SOL    HW139151  13.525   6.585   3.450
12418SOL    HW239152  13.479   6.694   3.356
12419SOL     OW39153   2.576  11.425  10.193
12419SOL    HW139154   2.488  11.433  10.231
12419SOL    HW239155   2.603  11.336  10.214
12420SOL     OW39156   2.696   8.321   0.784
12420SOL    HW139157   2.719   8.241   0.831
12420SOL    HW239158   2.718   8.302   0.693
12421SOL     OW39159   0.454   9.734  11.440
12421SOL    HW139160   0.439   9.718  11.533
12421SOL    HW239161   0.509   9.661  11.411
12422SOL     OW39162  10.255   0.854   8.803
12422SOL    HW139163  10.286   0.942   8.783
12422SOL    HW239164  10.172   0.846   8.755
12423SOL     OW39165  13.476   5.585  14.759
12423SOL    HW139166  13.449   5.513  14.815
12423SOL    HW239167  13.394   5.624  14.728
12424SOL     OW39168   6.332   0.560  10.459
12424SOL    HW139169   6.258   0.555  10.399
12424SOL    HW239170   6.346   0.470  10.488
12425SOL     OW39171  13.068   4.029   6.070
12425SOL    HW139172  13.133   4.007   6.136
12425SOL    HW239173  13.073   3.957   6.006
12426SOL     OW39174   5.559  11.742   4.608
12426SOL    HW139175   5.637  11.689   4.588
12426SOL    HW239176   5.593  11.829   4.625
12427SOL     OW39177  14.789   2.083  11.993
12427SOL    HW139178   0.001   2.033  11.984
12427SOL    HW239179  14.802   2.160  11.937
12428SOL     OW39180   3.374   4.720   2.946
12428SOL    HW139181   3.296   4.766   2.974
12428SOL    HW239182   3.423   4.703   3.026
12429SOL     OW39183   2.372  12.112   0.196
12429SOL    HW139184   2.361  12.054   0.120
12429SOL    HW239185   2.310  12.183   0.181
12430SOL     OW39186   0.966   7.305   5.718
12430SOL    HW139187   1.005   7.381   5.761
12430SOL    HW239188   0.927   7.340   5.637
12431SOL     OW39189   3.223   2.041   7.521
12431SOL    HW139190   3.138   2.031   7.563
12431SOL    HW239191   3.207   2.026   7.428
12432SOL     OW39192   1.939   4.310   9.810
12432SOL    HW139193   1.993   4.380   9.847
12432SOL    HW239194   1.964   4.307   9.718
12433SOL     OW39195   8.620   3.479   8.149
12433SOL    HW139196   8.576   3.406   8.106
12433SOL    HW239197   8.675   3.438   8.216
12434SOL     OW39198  14.091  13.423  11.770
12434SOL    HW139199  14.096  13.332  11.800
12434SOL    HW239200  14.003  13.431  11.734
12435SOL     OW39201  11.510   3.703   3.605
12435SOL    HW139202  11.552   3.624   3.639
12435SOL    HW239203  11.439   3.721   3.666
12436SOL     OW39204  10.802   1.288   6.259
12436SOL    HW139205  10.891   1.304   6.226
12436SOL    HW239206  10.764   1.228   6.195
12437SOL     OW39207   3.757   6.629   1.596
12437SOL    HW139208   3.718   6.550   1.634
12437SOL    HW239209   3.728   6.629   1.505
12438SOL     OW39210  12.458   1.785  10.233
12438SOL    HW139211  12.470   1.792  10.328
12438SOL    HW239212  12.475   1.693  10.214
12439SOL     OW39213   7.555   2.053   7.045
12439SOL    HW139214   7.464   2.024   7.053
12439SOL    HW239215   7.588   2.004   6.970
12440SOL     OW39216   9.569  14.117   3.345
12440SOL    HW139217   9.568  14.151   3.256
12440SOL    HW239218   9.548  14.024   3.336
12441SOL     OW39219   4.204   5.531   7.671
12441SOL    HW139220   4.148   5.589   7.620
12441SOL    HW239221   4.291   5.541   7.632
12442SOL     OW39222   6.947  11.237  14.006
12442SOL    HW139223   6.892  11.260  13.932
12442SOL    HW239224   7.023  11.295  13.998
12443SOL     OW39225   8.286  11.905   4.125
12443SOL    HW139226   8.306  11.941   4.212
12443SOL    HW239227   8.310  11.813   4.132
12444SOL     OW39228   8.567   5.681   2.075
12444SOL    HW139229   8.508   5.756   2.073
12444SOL    HW239230   8.589   5.670   2.168
12445SOL     OW39231   5.884   2.373   8.479
12445SOL    HW139232   5.922   2.368   8.391
12445SOL    HW239233   5.807   2.316   8.474
12446SOL     OW39234   5.351   6.572  14.240
12446SOL    HW139235   5.337   6.630  14.315
12446SOL    HW239236   5.276   6.589  14.183
12447SOL     OW39237   9.927  13.758  13.791
12447SOL    HW139238   9.914  13.666  13.815
12447SOL    HW239239   9.974  13.795  13.866
12448SOL     OW39240   0.576  14.435   7.905
12448SOL    HW139241   0.487  14.443   7.871
12448SOL    HW239242   0.612  14.524   7.898
12449SOL     OW39243   6.638   2.155   0.738
12449SOL    HW139244   6.720   2.205   0.729
12449SOL    HW239245   6.638   2.128   0.830
12450SOL     OW39246   7.965   9.383   2.662
12450SOL    HW139247   8.016   9.304   2.645
12450SOL    HW239248   8.007   9.450   2.608
12451SOL     OW39249   6.748   9.488   8.003
12451SOL    HW139250   6.689   9.535   7.945
12451SOL    HW239251   6.832   9.489   7.957
12452SOL     OW39252   1.651  10.828   2.367
12452SOL    HW139253   1.597  10.789   2.436
12452SOL    HW239254   1.735  10.782   2.374
12453SOL     OW39255  14.680   3.610   8.381
12453SOL    HW139256  14.743   3.553   8.336
12453SOL    HW239257  14.595   3.569   8.363
12454SOL     OW39258   6.354   8.622   3.882
12454SOL    HW139259   6.392   8.616   3.795
12454SOL    HW239260   6.426   8.601   3.941
12455SOL     OW39261   7.560   9.559  11.757
12455SOL    HW139262   7.529   9.571  11.667
12455SOL    HW239263   7.576   9.647  11.789
12456SOL     OW39264   5.851   3.537   7.205
12456SOL    HW139265   5.843   3.614   7.261
12456SOL    HW239266   5.927   3.489   7.240
12457SOL     OW39267   0.549   0.962   6.890
12457SOL    HW139268   0.502   0.999   6.965
12457SOL    HW239269   0.595   1.036   6.851
12458SOL     OW39270   6.259  13.578   1.485
12458SOL    HW139271   6.335  13.607   1.433
12458SOL    HW239272   6.293  13.570   1.574
12459SOL     OW39273   0.904   4.184  10.926
12459SOL    HW139274   0.919   4.159  11.017
12459SOL    HW239275   0.930   4.107  10.875
12460SOL     OW39276   9.426   4.092  10.299
12460SOL    HW139277   9.494   4.078  10.234
12460SOL    HW239278   9.368   4.158  10.259
12461SOL     OW39279   7.744   6.918   6.309
12461SOL    HW139280   7.762   6.998   6.358
12461SOL    HW239281   7.748   6.944   6.217
12462SOL     OW39282   5.342  11.112   6.620
12462SOL    HW139283   5.361  11.049   6.689
12462SOL    HW239284   5.255  11.089   6.589
12463SOL     OW39285   7.674   5.433  12.025
12463SOL    HW139286   7.626   5.396  12.099
12463SOL    HW239287   7.668   5.528  12.038
12464SOL     OW39288   7.902   8.884  14.844
12464SOL    HW139289   7.914   8.886   0.070
12464SOL    HW239290   7.918   8.974  14.816
12465SOL     OW39291   8.577   5.043   3.246
12465SOL    HW139292   8.509   5.077   3.188
12465SOL    HW239293   8.550   4.953   3.265
12466SOL     OW39294  10.489   2.160  14.837
12466SOL    HW139295  10.491   2.255  14.825
12466SOL    HW239296  10.411   2.144   0.020
12467SOL     OW39297  14.561   8.336   1.140
12467SOL    HW139298  14.468   8.327   1.119
12467SOL    HW239299  14.596   8.248   1.129
12468SOL     OW39300  14.802   2.007   8.503
12468SOL    HW139301  14.764   1.921   8.482
12468SOL    HW239302   0.026   1.996   8.485
12469SOL     OW39303  14.127   8.230   1.281
12469SOL    HW139304  14.204   8.254   1.230
12469SOL    HW239305  14.081   8.167   1.226
12470SOL     OW39306   5.662   5.867  10.927
12470SOL    HW139307   5.715   5.790  10.951
12470SOL    HW239308   5.711   5.941  10.962
12471SOL     OW39309  12.222   1.702   2.387
12471SOL    HW139310  12.216   1.793   2.414
12471SOL    HW239311  12.179   1.699   2.301
12472SOL     OW39312   1.926   2.808   9.264
12472SOL    HW139313   2.016   2.803   9.232
12472SOL    HW239314   1.891   2.720   9.252
12473SOL     OW39315   1.119   9.532  12.498
12473SOL    HW139316   1.028   9.528  12.530
12473SOL    HW239317   1.127   9.620  12.462
12474SOL     OW39318  14.855   6.697   2.234
12474SOL    HW139319  14.795   6.631   2.269
12474SOL    HW239320  14.847   6.770   2.295
12475SOL     OW39321   9.364   0.142  13.703
12475SOL    HW139322   9.271   0.120  13.703
12475SOL    HW239323   9.373   0.209  13.770
12476SOL     OW39324   4.865   9.855   5.335
12476SOL    HW139325   4.887   9.762   5.344
12476SOL    HW239326   4.782   9.855   5.287
12477SOL     OW39327   9.859  13.610   4.525
12477SOL    HW139328   9.783  13.657   4.491
12477SOL    HW239329   9.900  13.571   4.448
12478SOL     OW39330  14.366  13.391   7.421
12478SOL    HW139331  14.431  13.336   7.377
12478SOL    HW239332  14.317  13.432   7.349
12479SOL     OW39333  11.884   5.477   8.810
12479SOL    HW139334  11.924   5.523   8.736
12479SOL    HW239335  11.889   5.538   8.883
12480SOL     OW39336  12.407   7.671   5.501
12480SOL    HW139337  12.413   7.717   5.584
12480SOL    HW239338  12.408   7.740   5.435
12481SOL     OW39339  10.180   7.695  10.200
12481SOL    HW139340  10.088   7.683  10.175
12481SOL    HW239341  10.223   7.726  10.120
12482SOL     OW39342  12.408   5.241   6.564
12482SOL    HW139343  12.452   5.157   6.574
12482SOL    HW239344  12.343   5.243   6.634
12483SOL     OW39345   1.832   3.249   2.070
12483SOL    HW139346   1.872   3.183   2.014
12483SOL    HW239347   1.900   3.272   2.133
12484SOL     OW39348   2.984   4.307   4.155
12484SOL    HW139349   2.978   4.334   4.063
12484SOL    HW239350   2.932   4.372   4.203
12485SOL     OW39351  13.986  10.175   1.001
12485SOL    HW139352  13.961  10.203   0.913
12485SOL    HW239353  13.927  10.224   1.059
12486SOL     OW39354   4.962   2.853   4.956
12486SOL    HW139355   5.018   2.921   4.919
12486SOL    HW239356   4.963   2.870   5.050
12487SOL     OW39357   8.107   5.082   8.164
12487SOL    HW139358   8.130   5.174   8.179
12487SOL    HW239359   8.190   5.041   8.139
12488SOL     OW39360  13.954  12.362   7.223
12488SOL    HW139361  13.942  12.268   7.238
12488SOL    HW239362  13.978  12.368   7.130
12489SOL     OW39363   5.625   1.866  10.268
12489SOL    HW139364   5.674   1.784  10.280
12489SOL    HW239365   5.672   1.929  10.323
12490SOL     OW39366   1.197  11.429   4.324
12490SOL    HW139367   1.110  11.446   4.288
12490SOL    HW239368   1.257  11.459   4.255
12491SOL     OW39369  10.244  13.119  12.631
12491SOL    HW139370  10.275  13.209  12.639
12491SOL    HW239371  10.249  13.101  12.537
12492SOL     OW39372  13.422   8.361   1.171
12492SOL    HW139373  13.459   8.445   1.197
12492SOL    HW239374  13.483   8.296   1.207
12493SOL     OW39375   3.294  10.993  11.908
12493SOL    HW139376   3.353  11.067  11.918
12493SOL    HW239377   3.352  10.919  11.888
12494SOL     OW39378   4.487   1.339  11.329
12494SOL    HW139379   4.410   1.288  11.302
12494SOL    HW239380   4.460   1.430  11.316
12495SOL     OW39381   6.507   2.576   1.928
12495SOL    HW139382   6.548   2.530   1.855
12495SOL    HW239383   6.499   2.510   1.997
12496SOL     OW39384   1.687   8.276  12.674
12496SOL    HW139385   1.614   8.312  12.724
12496SOL    HW239386   1.733   8.218  12.736
12497SOL     OW39387   1.958   4.540  10.056
12497SOL    HW139388   1.863   4.549  10.051
12497SOL    HW239389   1.983   4.597  10.129
12498SOL     OW39390  11.948  12.222  11.858
12498SOL    HW139391  11.972  12.210  11.766
12498SOL    HW239392  11.856  12.195  11.862
12499SOL     OW39393  13.567   6.589   6.419
12499SOL    HW139394  13.621   6.525   6.372
12499SOL    HW239395  13.513   6.629   6.351
12500SOL     OW39396   6.011   1.584   8.104
12500SOL    HW139397   6.028   1.667   8.148
12500SOL    HW239398   6.092   1.566   8.055
12501SOL     OW39399   2.298   5.102   2.336
12501SOL    HW139400   2.328   5.173   2.393
12501SOL    HW239401   2.373   5.045   2.327
12502SOL     OW39402   7.063   0.493   0.307
12502SOL    HW139403   7.017   0.461   0.229
12502SOL    HW239404   7.147   0.525   0.274
12503SOL     OW39405  12.026   6.933   0.928
12503SOL    HW139406  12.095   6.868   0.942
12503SOL    HW239407  12.069   7.017   0.942
12504SOL     OW39408  10.410   0.248   2.205
12504SOL    HW139409  10.432   0.281   2.292
12504SOL    HW239410  10.325   0.288   2.185
12505SOL     OW39411   9.016   6.193  12.366
12505SOL    HW139412   8.982   6.149  12.445
12505SOL    HW239413   8.984   6.283  12.373
12506SOL     OW39414   2.080  10.610  12.817
12506SOL    HW139415   2.042  10.524  12.799
12506SOL    HW239416   2.172  10.592  12.836
12507SOL     OW39417   1.518   1.950   6.943
12507SOL    HW139418   1.519   1.855   6.947
12507SOL    HW239419   1.604   1.977   6.973
12508SOL     OW39420  14.135   3.168   9.128
12508SOL    HW139421  14.055   3.216   9.146
12508SOL    HW239422  14.112   3.108   9.057
12509SOL     OW39423  13.728   3.314  11.495
12509SOL    HW139424  13.821   3.335  11.501
12509SOL    HW239425  13.719   3.267  11.412
12510SOL     OW39426   0.321   2.337   1.531
12510SOL    HW139427   0.274   2.257   1.555
12510SOL    HW239428   0.291   2.357   1.442
12511SOL     OW39429  12.921  13.985   1.806
12511SOL    HW139430  13.005  14.030   1.812
12511SOL    HW239431  12.862  14.035   1.862
12512SOL     OW39432   9.515   6.534  12.773
12512SOL    HW139433   9.466   6.613  12.751
12512SOL    HW239434   9.593   6.538  12.718
12513SOL     OW39435   1.418  14.597  10.131
12513SOL    HW139436   1.508  14.621  10.155
12513SOL    HW239437   1.364  14.663  10.174
12514SOL     OW39438  12.347  13.575  14.759
12514SOL    HW139439  12.340  13.637  14.687
12514SOL    HW239440  12.367  13.629  14.835
12515SOL     OW39441   2.271   0.954   0.745
12515SOL    HW139442   2.200   1.017   0.735
12515SOL    HW239443   2.351   1.008   0.745
12516SOL     OW39444  12.299   3.154  14.604
12516SOL    HW139445  12.233   3.221  14.621
12516SOL    HW239446  12.268   3.077  14.653
12517SOL     OW39447   1.345   2.524   5.069
12517SOL    HW139448   1.271   2.534   5.009
12517SOL    HW239449   1.416   2.492   5.014
12518SOL     OW39450  11.343   4.355  14.021
12518SOL    HW139451  11.250   4.373  14.015
12518SOL    HW239452  11.350   4.260  14.024
12519SOL     OW39453   4.991   9.412   4.390
12519SOL    HW139454   4.966   9.415   4.298
12519SOL    HW239455   4.940   9.340   4.427
12520SOL     OW39456   5.931   3.907  14.485
12520SOL    HW139457   5.958   3.841  14.550
12520SOL    HW239458   5.976   3.882  14.405
12521SOL     OW39459   2.427   9.618   9.444
12521SOL    HW139460   2.521   9.633   9.452
12521SOL    HW239461   2.418   9.523   9.436
12522SOL     OW39462   5.251   8.234   2.660
12522SOL    HW139463   5.268   8.163   2.598
12522SOL    HW239464   5.319   8.298   2.641
12523SOL     OW39465   5.813  13.245  10.529
12523SOL    HW139466   5.867  13.167  10.523
12523SOL    HW239467   5.875  13.318  10.535
12524SOL     OW39468   5.102   9.812   8.780
12524SOL    HW139469   5.149   9.828   8.699
12524SOL    HW239470   5.149   9.863   8.846
12525SOL     OW39471   8.264  10.674   9.160
12525SOL    HW139472   8.252  10.659   9.066
12525SOL    HW239473   8.271  10.769   9.168
12526SOL     OW39474  13.964   7.813  13.334
12526SOL    HW139475  14.031   7.785  13.272
12526SOL    HW239476  13.908   7.872  13.283
12527SOL     OW39477  12.999  10.327  14.848
12527SOL    HW139478  13.083  10.318  14.802
12527SOL    HW239479  13.001  10.257   0.044
12528SOL     OW39480   2.907   5.276  11.847
12528SOL    HW139481   2.972   5.327  11.895
12528SOL    HW239482   2.888   5.329  11.770
12529SOL     OW39483  11.657   0.390   9.978
12529SOL    HW139484  11.567   0.403  10.008
12529SOL    HW239485  11.693   0.324  10.038
12530SOL     OW39486  10.795  13.114   3.439
12530SOL    HW139487  10.747  13.197   3.432
12530SOL    HW239488  10.727  13.047   3.429
12531SOL     OW39489   3.333   3.667   1.667
12531SOL    HW139490   3.329   3.672   1.571
12531SOL    HW239491   3.338   3.759   1.695
12532SOL     OW39492   7.642  14.633   9.967
12532SOL    HW139493   7.728  14.616  10.007
12532SOL    HW239494   7.638  14.729   9.961
12533SOL     OW39495  13.665  10.732  12.374
12533SOL    HW139496  13.582  10.697  12.406
12533SOL    HW239497  13.695  10.790  12.443
12534SOL     OW39498  10.537   2.824   7.381
12534SOL    HW139499  10.580   2.747   7.417
12534SOL    HW239500  10.445   2.798   7.373
12535SOL     OW39501   4.951   4.342   5.404
12535SOL    HW139502   4.919   4.285   5.474
12535SOL    HW239503   4.932   4.295   5.323
12536SOL     OW39504   4.398   0.707   0.215
12536SOL    HW139505   4.363   0.768   0.280
12536SOL    HW239506   4.323   0.654   0.189
12537SOL     OW39507  11.743   3.181   3.982
12537SOL    HW139508  11.699   3.199   3.899
12537SOL    HW239509  11.833   3.210   3.969
12538SOL     OW39510  14.354   8.147  14.342
12538SOL    HW139511  14.316   8.059  14.333
12538SOL    HW239512  14.315   8.181  14.423
12539SOL     OW39513  12.716   3.411   5.922
12539SOL    HW139514  12.635   3.378   5.883
12539SOL    HW239515  12.778   3.416   5.849
12540SOL     OW39516   4.348  13.940   1.653
12540SOL    HW139517   4.283  13.873   1.632
12540SOL    HW239518   4.379  13.918   1.740
12541SOL     OW39519   4.682   9.230  13.444
12541SOL    HW139520   4.718   9.151  13.485
12541SOL    HW239521   4.615   9.197  13.384
12542SOL     OW39522   7.934  14.317  11.388
12542SOL    HW139523   7.987  14.396  11.400
12542SOL    HW239524   7.927  14.280  11.476
12543SOL     OW39525   7.960   0.503   5.910
12543SOL    HW139526   7.994   0.535   5.993
12543SOL    HW239527   7.891   0.566   5.886
12544SOL     OW39528   6.178   9.787   4.748
12544SOL    HW139529   6.118   9.743   4.687
12544SOL    HW239530   6.202   9.718   4.810
12545SOL     OW39531   0.337   9.346  12.988
12545SOL    HW139532   0.416   9.321  13.037
12545SOL    HW239533   0.292   9.263  12.972
12546SOL     OW39534   2.428   9.443   5.591
12546SOL    HW139535   2.381   9.461   5.509
12546SOL    HW239536   2.361   9.414   5.652
12547SOL     OW39537   9.810  13.197   2.932
12547SOL    HW139538   9.900  13.176   2.907
12547SOL    HW239539   9.773  13.240   2.855
12548SOL     OW39540  13.437   3.280   0.887
12548SOL    HW139541  13.464   3.356   0.835
12548SOL    HW239542  13.423   3.211   0.823
12549SOL     OW39543  12.134  12.913   3.521
12549SOL    HW139544  12.111  12.966   3.597
12549SOL    HW239545  12.088  12.831   3.535
12550SOL     OW39546   5.121  14.217   9.688
12550SOL    HW139547   5.146  14.233   9.597
12550SOL    HW239548   5.085  14.128   9.688
12551SOL     OW39549   8.100  12.878   0.744
12551SOL    HW139550   8.186  12.876   0.786
12551SOL    HW239551   8.108  12.945   0.677
12552SOL     OW39552   1.225  11.857   3.932
12552SOL    HW139553   1.172  11.929   3.897
12552SOL    HW239554   1.204  11.782   3.875
12553SOL     OW39555   0.470   9.487   4.063
12553SOL    HW139556   0.513   9.565   4.029
12553SOL    HW239557   0.380   9.494   4.032
12554SOL     OW39558   7.346   3.330  14.168
12554SOL    HW139559   7.358   3.313  14.262
12554SOL    HW239560   7.284   3.263  14.140
12555SOL     OW39561   7.142  11.584  13.004
12555SOL    HW139562   7.149  11.664  12.952
12555SOL    HW239563   7.048  11.568  13.011
12556SOL     OW39564  10.544  14.840  10.789
12556SOL    HW139565  10.513  14.772  10.848
12556SOL    HW239566  10.496   0.049  10.815
12557SOL     OW39567   9.602   1.386   6.217
12557SOL    HW139568   9.528   1.422   6.168
12557SOL    HW239569   9.564   1.352   6.298
12558SOL     OW39570   3.036   5.493   0.898
12558SOL    HW139571   3.040   5.438   0.976
12558SOL    HW239572   3.118   5.541   0.898
12559SOL     OW39573  14.563   7.165   6.737
12559SOL    HW139574  14.593   7.185   6.649
12559SOL    HW239575  14.467   7.165   6.730
12560SOL     OW39576   7.237  13.785   5.748
12560SOL    HW139577   7.231  13.801   5.843
12560SOL    HW239578   7.183  13.708   5.734
12561SOL     OW39579   6.273   3.146  10.533
12561SOL    HW139580   6.278   3.229  10.580
12561SOL    HW239581   6.212   3.162  10.461
12562SOL     OW39582   2.583   6.689  11.942
12562SOL    HW139583   2.519   6.694  11.872
12562SOL    HW239584   2.617   6.600  11.937
12563SOL     OW39585  13.693  11.336   4.365
12563SOL    HW139586  13.676  11.284   4.443
12563SOL    HW239587  13.765  11.291   4.321
12564SOL     OW39588   0.333   0.630   9.899
12564SOL    HW139589   0.257   0.665   9.854
12564SOL    HW239590   0.397   0.611   9.830
12565SOL     OW39591   8.607   5.928   9.221
12565SOL    HW139592   8.687   5.971   9.252
12565SOL    HW239593   8.577   5.876   9.296
12566SOL     OW39594   6.239   9.226   9.459
12566SOL    HW139595   6.172   9.223   9.527
12566SOL    HW239596   6.264   9.318   9.453
12567SOL     OW39597   4.107  10.088  13.007
12567SOL    HW139598   4.100  10.127  12.920
12567SOL    HW239599   4.018  10.062  13.029
12568SOL     OW39600   0.348   2.850   5.496
12568SOL    HW139601   0.359   2.904   5.418
12568SOL    HW239602   0.260   2.869   5.528
12569SOL     OW39603   3.006   3.773  11.221
12569SOL    HW139604   3.060   3.844  11.185
12569SOL    HW239605   2.977   3.806  11.306
12570SOL     OW39606   0.448   7.794   7.890
12570SOL    HW139607   0.370   7.745   7.917
12570SOL    HW239608   0.493   7.734   7.831
12571SOL     OW39609   9.264   7.505   1.627
12571SOL    HW139610   9.207   7.494   1.551
12571SOL    HW239611   9.221   7.456   1.697
12572SOL     OW39612   9.763   6.833  12.655
12572SOL    HW139613   9.738   6.865  12.569
12572SOL    HW239614   9.830   6.767  12.639
12573SOL     OW39615   6.153  12.984  14.521
12573SOL    HW139616   6.226  13.038  14.550
12573SOL    HW239617   6.177  12.895  14.547
12574SOL     OW39618  13.432  12.642  13.121
12574SOL    HW139619  13.426  12.658  13.215
12574SOL    HW239620  13.410  12.550  13.110
12575SOL     OW39621  13.764  10.147   6.112
12575SOL    HW139622  13.673  10.175   6.123
12575SOL    HW239623  13.816  10.220   6.144
12576SOL     OW39624  10.667  12.095  11.386
12576SOL    HW139625  10.761  12.109  11.379
12576SOL    HW239626  10.638  12.157  11.452
12577SOL     OW39627  10.968   6.866  13.168
12577SOL    HW139628  10.907   6.834  13.235
12577SOL    HW239629  10.976   6.960  13.186
12578SOL     OW39630   9.290   3.061  12.572
12578SOL    HW139631   9.346   3.128  12.532
12578SOL    HW239632   9.257   3.010  12.498
12579SOL     OW39633   8.281  11.856   3.279
12579SOL    HW139634   8.190  11.864   3.253
12579SOL    HW239635   8.310  11.947   3.291
12580SOL     OW39636   6.463   4.517   2.967
12580SOL    HW139637   6.484   4.454   3.036
12580SOL    HW239638   6.472   4.603   3.008
12581SOL     OW39639   8.924  14.396   1.081
12581SOL    HW139640   8.992  14.434   1.025
12581SOL    HW239641   8.970  14.331   1.135
12582SOL     OW39642   3.974   5.664   9.688
12582SOL    HW139643   3.891   5.711   9.698
12582SOL    HW239644   4.038   5.733   9.668
12583SOL     OW39645   5.201   8.802  12.742
12583SOL    HW139646   5.258   8.831  12.671
12583SOL    HW239647   5.202   8.874  12.805
12584SOL     OW39648   3.581   1.573  12.563
12584SOL    HW139649   3.653   1.636  12.563
12584SOL    HW239650   3.620   1.493  12.527
12585SOL     OW39651   3.962   0.285   8.985
12585SOL    HW139652   3.946   0.377   8.966
12585SOL    HW239653   4.046   0.285   9.032
12586SOL     OW39654   4.193  13.729   6.709
12586SOL    HW139655   4.103  13.709   6.736
12586SOL    HW239656   4.184  13.771   6.624
12587SOL     OW39657   7.291   9.331   8.261
12587SOL    HW139658   7.209   9.282   8.259
12587SOL    HW239659   7.355   9.268   8.295
12588SOL     OW39660   4.713   4.760  10.294
12588SOL    HW139661   4.767   4.834  10.268
12588SOL    HW239662   4.742   4.739  10.382
12589SOL     OW39663   5.358  12.675   4.195
12589SOL    HW139664   5.361  12.590   4.151
12589SOL    HW239665   5.447  12.690   4.225
12590SOL     OW39666  10.811   7.058   4.245
12590SOL    HW139667  10.748   7.121   4.281
12590SOL    HW239668  10.823   6.994   4.314
12591SOL     OW39669   4.935   2.945  12.803
12591SOL    HW139670   4.875   3.005  12.760
12591SOL    HW239671   5.022   2.973  12.776
12592SOL     OW39672   9.235  13.915  11.119
12592SOL    HW139673   9.162  13.865  11.083
12592SOL    HW239674   9.232  13.898  11.213
12593SOL     OW39675   9.883   2.233  13.921
12593SOL    HW139676   9.789   2.219  13.927
12593SOL    HW239677   9.921   2.157  13.965
12594SOL     OW39678   8.031   7.474  11.114
12594SOL    HW139679   7.998   7.562  11.096
12594SOL    HW239680   8.105   7.487  11.172
12595SOL     OW39681  13.612   6.138   8.956
12595SOL    HW139682  13.560   6.113   9.032
12595SOL    HW239683  13.687   6.079   8.959
12596SOL     OW39684   6.329   2.765   1.109
12596SOL    HW139685   6.236   2.766   1.086
12596SOL    HW239686   6.348   2.674   1.132
12597SOL     OW39687  12.265   4.455   5.546
12597SOL    HW139688  12.179   4.430   5.582
12597SOL    HW239689  12.321   4.463   5.623
12598SOL     OW39690   6.779   2.733   1.564
12598SOL    HW139691   6.851   2.785   1.602
12598SOL    HW239692   6.722   2.714   1.639
12599SOL     OW39693   7.699   0.244   1.551
12599SOL    HW139694   7.794   0.254   1.553
12599SOL    HW239695   7.673   0.244   1.643
12600SOL     OW39696   3.724  13.918   6.884
12600SOL    HW139697   3.642  13.967   6.875
12600SOL    HW239698   3.777  13.970   6.944
12601SOL     OW39699   2.468   9.395   7.762
12601SOL    HW139700   2.428   9.367   7.680
12601SOL    HW239701   2.549   9.345   7.768
12602SOL     OW39702   9.563  12.027   0.760
12602SOL    HW139703   9.526  11.962   0.700
12602SOL    HW239704   9.643  12.056   0.717
12603SOL     OW39705   0.373  14.434  12.498
12603SOL    HW139706   0.284  14.428  12.533
12603SOL    HW239707   0.371  14.508  12.439
12604SOL     OW39708   9.695   4.279   5.774
12604SOL    HW139709   9.653   4.195   5.755
12604SOL    HW239710   9.754   4.294   5.700
12605SOL     OW39711   8.707   1.097   8.534
12605SOL    HW139712   8.701   1.020   8.592
12605SOL    HW239713   8.695   1.062   8.446
12606SOL     OW39714   8.269   5.755   9.720
12606SOL    HW139715   8.207   5.785   9.654
12606SOL    HW239716   8.339   5.820   9.717
12607SOL     OW39717  12.218   8.262  14.448
12607SOL    HW139718  12.142   8.234  14.498
12607SOL    HW239719  12.185   8.329  14.388
12608SOL     OW39720   3.212  10.347   2.336
12608SOL    HW139721   3.187  10.335   2.244
12608SOL    HW239722   3.140  10.310   2.386
12609SOL     OW39723  11.697   8.796   9.206
12609SOL    HW139724  11.679   8.702   9.201
12609SOL    HW239725  11.615   8.838   9.183
12610SOL     OW39726   9.578   5.970  10.087
12610SOL    HW139727   9.596   5.884  10.123
12610SOL    HW239728   9.624   6.031  10.146
12611SOL     OW39729  12.771  14.160   1.965
12611SOL    HW139730  12.784  14.236   1.908
12611SOL    HW239731  12.816  14.183   2.046
12612SOL     OW39732   3.755   4.193   3.193
12612SOL    HW139733   3.836   4.244   3.187
12612SOL    HW239734   3.773   4.126   3.258
12613SOL     OW39735   0.636   9.442   9.526
12613SOL    HW139736   0.556   9.445   9.579
12613SOL    HW239737   0.681   9.524   9.546
12614SOL     OW39738  12.439  10.866  11.949
12614SOL    HW139739  12.366  10.805  11.961
12614SOL    HW239740  12.457  10.900  12.037
12615SOL     OW39741   7.228   1.466   2.897
12615SOL    HW139742   7.260   1.504   2.979
12615SOL    HW239743   7.240   1.372   2.908
12616SOL     OW39744   6.726   3.514   7.126
12616SOL    HW139745   6.774   3.547   7.202
12616SOL    HW239746   6.794   3.487   7.064
12617SOL     OW39747   6.942   1.124  10.162
12617SOL    HW139748   7.017   1.184  10.166
12617SOL    HW239749   6.973   1.045  10.205
12618SOL     OW39750   5.041   5.919   5.469
12618SOL    HW139751   5.095   5.872   5.533
12618SOL    HW239752   5.101   5.942   5.399
12619SOL     OW39753   0.980   1.049  11.492
12619SOL    HW139754   1.003   0.975  11.436
12619SOL    HW239755   0.912   1.014  11.550
12620SOL     OW39756  14.784   9.538   8.286
12620SOL    HW139757  14.817   9.545   8.196
12620SOL    HW239758  14.702   9.588   8.285
12621SOL     OW39759   9.718   1.999   9.619
12621SOL    HW139760   9.662   2.068   9.654
12621SOL    HW239761   9.738   1.943   9.694
12622SOL     OW39762   9.066   0.917  10.678
12622SOL    HW139763   9.129   0.887  10.743
12622SOL    HW239764   8.986   0.933  10.727
12623SOL     OW39765   5.852   1.814  12.022
12623SOL    HW139766   5.764   1.850  12.028
12623SOL    HW239767   5.908   1.881  12.063
12624SOL     OW39768   4.765   5.067   1.524
12624SOL    HW139769   4.860   5.078   1.532
12624SOL    HW239770   4.736   5.143   1.474
12625SOL     OW39771   7.186   1.589   9.256
12625SOL    HW139772   7.180   1.655   9.187
12625SOL    HW239773   7.103   1.541   9.251
12626SOL     OW39774   7.603   9.450   7.336
12626SOL    HW139775   7.531   9.513   7.336
12626SOL    HW239776   7.663   9.482   7.268
12627SOL     OW39777  10.071   7.101   5.671
12627SOL    HW139778  10.124   7.023   5.689
12627SOL    HW239779  10.124   7.174   5.703
12628SOL     OW39780   9.419   7.941   1.655
12628SOL    HW139781   9.330   7.920   1.682
12628SOL    HW239782   9.458   7.984   1.731
12629SOL     OW39783   0.032  12.691   7.256
12629SOL    HW139784   0.123  12.663   7.256
12629SOL    HW239785   0.032  12.774   7.303
12630SOL     OW39786   4.101  12.279   3.698
12630SOL    HW139787   4.077  12.249   3.785
12630SOL    HW239788   4.017  12.293   3.654
12631SOL     OW39789  14.768   9.585  13.456
12631SOL    HW139790  14.851   9.631  13.472
12631SOL    HW239791  14.729   9.575  13.543
12632SOL     OW39792   3.289  11.436   1.493
12632SOL    HW139793   3.240  11.494   1.552
12632SOL    HW239794   3.366  11.411   1.544
12633SOL     OW39795   6.344   6.801   4.903
12633SOL    HW139796   6.283   6.739   4.943
12633SOL    HW239797   6.402   6.826   4.974
12634SOL     OW39798   2.495  10.637  14.531
12634SOL    HW139799   2.429  10.567  14.525
12634SOL    HW239800   2.572  10.601  14.486
12635SOL     OW39801   2.474  13.806  11.912
12635SOL    HW139802   2.393  13.845  11.879
12635SOL    HW239803   2.476  13.718  11.874
12636SOL     OW39804   0.800   2.861  10.294
12636SOL    HW139805   0.770   2.808  10.220
12636SOL    HW239806   0.722   2.875  10.347
12637SOL     OW39807   2.317   0.632  10.162
12637SOL    HW139808   2.372   0.667  10.092
12637SOL    HW239809   2.367   0.559  10.198
12638SOL     OW39810   7.057  11.540  12.637
12638SOL    HW139811   7.006  11.587  12.702
12638SOL    HW239812   7.132  11.597  12.620
12639SOL     OW39813   0.827   9.722   2.126
12639SOL    HW139814   0.870   9.745   2.044
12639SOL    HW239815   0.786   9.804   2.155
12640SOL     OW39816   0.236   2.571  13.459
12640SOL    HW139817   0.297   2.625  13.408
12640SOL    HW239818   0.154   2.576  13.410
12641SOL     OW39819   9.427  14.170  14.487
12641SOL    HW139820   9.356  14.151  14.426
12641SOL    HW239821   9.438  14.088  14.537
12642SOL     OW39822   8.877  11.785   6.327
12642SOL    HW139823   8.855  11.862   6.380
12642SOL    HW239824   8.960  11.808   6.285
12643SOL     OW39825  12.319   6.779  11.358
12643SOL    HW139826  12.409   6.805  11.343
12643SOL    HW239827  12.266   6.852  11.326
12644SOL     OW39828  14.507   6.993  11.349
12644SOL    HW139829  14.425   7.041  11.361
12644SOL    HW239830  14.569   7.038  11.406
12645SOL     OW39831   1.072  13.013   9.736
12645SOL    HW139832   1.084  13.001   9.831
12645SOL    HW239833   1.102  13.102   9.719
12646SOL     OW39834   6.057   7.548  12.401
12646SOL    HW139835   6.134   7.598  12.373
12646SOL    HW239836   6.090   7.460  12.417
12647SOL     OW39837   6.598   5.328   0.844
12647SOL    HW139838   6.687   5.294   0.850
12647SOL    HW239839   6.592   5.394   0.913
12648SOL     OW39840   1.367   3.324  10.714
12648SOL    HW139841   1.277   3.313  10.744
12648SOL    HW239842   1.401   3.398  10.766
12649SOL     OW39843   0.152   5.765   2.126
12649SOL    HW139844   0.096   5.805   2.060
12649SOL    HW239845   0.236   5.752   2.082
12650SOL     OW39846   5.236   0.706   4.400
12650SOL    HW139847   5.189   0.623   4.412
12650SOL    HW239848   5.308   0.702   4.463
12651SOL     OW39849   3.668   9.229   1.948
12651SOL    HW139850   3.764   9.223   1.942
12651SOL    HW239851   3.637   9.187   1.868
12652SOL     OW39852  13.969  11.452   1.895
12652SOL    HW139853  13.922  11.404   1.826
12652SOL    HW239854  13.899  11.496   1.944
12653SOL     OW39855  11.358   8.331   8.862
12653SOL    HW139856  11.351   8.343   8.957
12653SOL    HW239857  11.419   8.399   8.834
12654SOL     OW39858   7.584  11.064  14.058
12654SOL    HW139859   7.625  11.020  13.984
12654SOL    HW239860   7.529  11.131  14.018
12655SOL     OW39861   7.614  13.496  10.728
12655SOL    HW139862   7.600  13.591  10.735
12655SOL    HW239863   7.665  13.486  10.648
12656SOL     OW39864  10.110   1.817   1.778
12656SOL    HW139865  10.175   1.781   1.838
12656SOL    HW239866  10.029   1.822   1.830
12657SOL     OW39867   3.197   2.517  12.447
12657SOL    HW139868   3.276   2.566  12.470
12657SOL    HW239869   3.132   2.584  12.430
12658SOL     OW39870   5.396  14.193   1.215
12658SOL    HW139871   5.301  14.203   1.218
12658SOL    HW239872   5.419  14.154   1.300
12659SOL     OW39873   6.866   4.330  14.198
12659SOL    HW139874   6.941   4.348  14.255
12659SOL    HW239875   6.844   4.415  14.159
12660SOL     OW39876   0.667   9.743   3.315
12660SOL    HW139877   0.575   9.733   3.290
12660SOL    HW239878   0.665   9.787   3.400
12661SOL     OW39879   8.065   4.649   1.197
12661SOL    HW139880   8.132   4.582   1.213
12661SOL    HW239881   7.997   4.604   1.149
12662SOL     OW39882   1.502  14.337  11.656
12662SOL    HW139883   1.501  14.267  11.722
12662SOL    HW239884   1.589  14.376  11.664
12663SOL     OW39885   9.571   1.906   5.133
12663SOL    HW139886   9.496   1.921   5.076
12663SOL    HW239887   9.578   1.985   5.186
12664SOL     OW39888   1.431   8.463  10.407
12664SOL    HW139889   1.375   8.454  10.484
12664SOL    HW239890   1.515   8.425  10.434
12665SOL     OW39891  13.856   2.937   6.630
12665SOL    HW139892  13.923   2.996   6.665
12665SOL    HW239893  13.773   2.972   6.664
12666SOL     OW39894   3.139   3.992   2.404
12666SOL    HW139895   3.176   4.069   2.448
12666SOL    HW239896   3.045   4.005   2.408
12667SOL     OW39897   2.146  10.199   7.553
12667SOL    HW139898   2.133  10.105   7.561
12667SOL    HW239899   2.071  10.229   7.500
12668SOL     OW39900  10.449   2.331   1.122
12668SOL    HW139901  10.529   2.378   1.147
12668SOL    HW239902  10.424   2.370   1.039
12669SOL     OW39903   4.056   9.377  13.143
12669SOL    HW139904   3.970   9.400  13.180
12669SOL    HW239905   4.113   9.367  13.220
12670SOL     OW39906   3.536   7.160   4.478
12670SOL    HW139907   3.525   7.166   4.572
12670SOL    HW239908   3.570   7.071   4.463
12671SOL     OW39909   0.414   0.734  13.664
12671SOL    HW139910   0.345   0.673  13.689
12671SOL    HW239911   0.470   0.740  13.740
12672SOL     OW39912  13.471   0.937   8.466
12672SOL    HW139913  13.526   1.001   8.422
12672SOL    HW239914  13.387   0.941   8.420
12673SOL     OW39915  11.890   5.842  11.571
12673SOL    HW139916  11.906   5.752  11.599
12673SOL    HW239917  11.886   5.892  11.653
12674SOL     OW39918   4.283   5.103   5.177
12674SOL    HW139919   4.319   5.016   5.161
12674SOL    HW239920   4.360   5.161   5.178
12675SOL     OW39921   4.171  13.191  10.215
12675SOL    HW139922   4.168  13.287  10.208
12675SOL    HW239923   4.218  13.163  10.137
12676SOL     OW39924   9.156  13.748  11.663
12676SOL    HW139925   9.140  13.708  11.749
12676SOL    HW239926   9.072  13.743  11.618
12677SOL     OW39927   7.946   5.409  13.371
12677SOL    HW139928   7.955   5.358  13.451
12677SOL    HW239929   8.009   5.369  13.310
12678SOL     OW39930  10.182   3.723  14.732
12678SOL    HW139931  10.102   3.670  14.726
12678SOL    HW239932  10.150   3.813  14.732
12679SOL     OW39933   2.431   6.812   1.633
12679SOL    HW139934   2.383   6.783   1.711
12679SOL    HW239935   2.485   6.885   1.663
12680SOL     OW39936   8.934   9.610   8.528
12680SOL    HW139937   9.016   9.632   8.483
12680SOL    HW239938   8.870   9.602   8.457
12681SOL     OW39939   9.159  12.347   9.994
12681SOL    HW139940   9.082  12.404  10.000
12681SOL    HW239941   9.134  12.281   9.929
12682SOL     OW39942  12.864  10.874   1.067
12682SOL    HW139943  12.951  10.876   1.108
12682SOL    HW239944  12.846  10.966   1.046
12683SOL     OW39945  13.728   7.654  13.783
12683SOL    HW139946  13.717   7.592  13.855
12683SOL    HW239947  13.735   7.600  13.705
12684SOL     OW39948   7.868   4.922   4.821
12684SOL    HW139949   7.933   4.855   4.845
12684SOL    HW239950   7.864   4.918   4.726
12685SOL     OW39951   7.464   9.688   7.357
12685SOL    HW139952   7.536   9.701   7.419
12685SOL    HW239953   7.387   9.671   7.412
12686SOL     OW39954   9.401  11.760   4.859
12686SOL    HW139955   9.471  11.717   4.909
12686SOL    HW239956   9.343  11.797   4.926
12687SOL     OW39957   2.322  13.933   2.942
12687SOL    HW139958   2.351  13.844   2.923
12687SOL    HW239959   2.229  13.923   2.963
12688SOL     OW39960  13.928   7.416  10.021
12688SOL    HW139961  13.903   7.356   9.950
12688SOL    HW239962  13.943   7.359  10.096
12689SOL     OW39963   1.498   2.589  14.777
12689SOL    HW139964   1.420   2.583  14.723
12689SOL    HW239965   1.518   2.683  14.780
12690SOL     OW39966  14.518   1.015  11.529
12690SOL    HW139967  14.479   1.063  11.602
12690SOL    HW239968  14.521   0.924  11.560
12691SOL     OW39969  10.998   4.630   3.610
12691SOL    HW139970  10.903   4.631   3.625
12691SOL    HW239971  11.018   4.540   3.587
12692SOL     OW39972   2.590  12.184   5.291
12692SOL    HW139973   2.655  12.192   5.222
12692SOL    HW239974   2.545  12.269   5.291
12693SOL     OW39975   2.799  13.952   4.888
12693SOL    HW139976   2.747  14.017   4.937
12693SOL    HW239977   2.842  14.003   4.820
12694SOL     OW39978   0.703  12.394   2.372
12694SOL    HW139979   0.798  12.385   2.381
12694SOL    HW239980   0.671  12.399   2.462
12695SOL     OW39981   1.841   6.281   2.666
12695SOL    HW139982   1.929   6.295   2.630
12695SOL    HW239983   1.801   6.369   2.667
12696SOL     OW39984   4.503   5.647  14.503
12696SOL    HW139985   4.429   5.640  14.564
12696SOL    HW239986   4.496   5.736  14.467
12697SOL     OW39987  11.619   6.543  13.081
12697SOL    HW139988  11.642   6.502  13.165
12697SOL    HW239989  11.679   6.503  13.018
12698SOL     OW39990   6.308   6.848   2.947
12698SOL    HW139991   6.237   6.885   2.895
12698SOL    HW239992   6.384   6.849   2.888
12699SOL     OW39993  13.910   9.840   0.103
12699SOL    HW139994  13.964   9.917   0.088
12699SOL    HW239995  13.866   9.824   0.019
12700SOL     OW39996   4.647   8.118   2.262
12700SOL    HW139997   4.559   8.127   2.299
12700SOL    HW239998   4.702   8.176   2.315
12701SOL     OW39999   2.721   3.320  13.734
12701SOL    HW140000   2.697   3.317  13.641
12701SOL    HW240001   2.638   3.318  13.781
12702SOL     OW40002   1.414   6.960  12.712
12702SOL    HW140003   1.434   6.984  12.621
12702SOL    HW240004   1.383   6.870  12.706
12703SOL     OW40005   1.895   9.853   2.921
12703SOL    HW140006   1.977   9.853   2.870
12703SOL    HW240007   1.832   9.807   2.865
12704SOL     OW40008   5.940   8.641   6.262
12704SOL    HW140009   5.983   8.559   6.239
12704SOL    HW240010   5.999   8.709   6.231
12705SOL     OW40011   5.621  10.678   8.228
12705SOL    HW140012   5.547  10.731   8.258
12705SOL    HW240013   5.631  10.702   8.135
12706SOL     OW40014   2.796   5.975  10.984
12706SOL    HW140015   2.801   6.055  10.931
12706SOL    HW240016   2.873   5.925  10.957
12707SOL     OW40017  12.485  12.630   0.097
12707SOL    HW140018  12.407  12.682   0.117
12707SOL    HW240019  12.537  12.687   0.040
12708SOL     OW40020  10.863  13.443  13.194
12708SOL    HW140021  10.835  13.429  13.104
12708SOL    HW240022  10.882  13.356  13.229
12709SOL     OW40023  11.682   3.865   2.465
12709SOL    HW140024  11.671   3.796   2.531
12709SOL    HW240025  11.637   3.941   2.501
12710SOL     OW40026   5.265  11.648  14.380
12710SOL    HW140027   5.216  11.569  14.357
12710SOL    HW240028   5.313  11.671  14.301
12711SOL     OW40029  14.407   4.221   8.005
12711SOL    HW140030  14.396   4.131   8.036
12711SOL    HW240031  14.440   4.269   8.082
12712SOL     OW40032   1.333   9.964  12.272
12712SOL    HW140033   1.239   9.953  12.255
12712SOL    HW240034   1.365   9.874  12.283
12713SOL     OW40035   0.260   1.817  11.629
12713SOL    HW140036   0.237   1.793  11.540
12713SOL    HW240037   0.222   1.747  11.683
12714SOL     OW40038   1.411   8.028  14.639
12714SOL    HW140039   1.332   8.082  14.647
12714SOL    HW240040   1.412   7.974  14.718
12715SOL     OW40041   9.114   1.101  10.444
12715SOL    HW140042   9.063   1.181  10.454
12715SOL    HW240043   9.095   1.050  10.522
12716SOL     OW40044   2.367  14.686   0.323
12716SOL    HW140045   2.376  14.624   0.395
12716SOL    HW240046   2.446  14.675   0.271
12717SOL     OW40047   0.018   7.552  10.863
12717SOL    HW140048  14.861   7.628  10.915
12717SOL    HW240049   0.030   7.587  10.774
12718SOL     OW40050  10.284   4.896   9.765
12718SOL    HW140051  10.314   4.987   9.759
12718SOL    HW240052  10.344   4.848   9.708
12719SOL     OW40053   6.649   0.223   1.599
12719SOL    HW140054   6.560   0.210   1.566
12719SOL    HW240055   6.702   0.233   1.520
12720SOL     OW40056   9.967   0.807   8.866
12720SOL    HW140057  10.040   0.749   8.887
12720SOL    HW240058   9.987   0.841   8.779
12721SOL     OW40059  11.041   0.631   9.095
12721SOL    HW140060  11.094   0.677   9.161
12721SOL    HW240061  11.104   0.574   9.050
12722SOL     OW40062  12.321   6.553   6.167
12722SOL    HW140063  12.319   6.635   6.216
12722SOL    HW240064  12.364   6.490   6.226
12723SOL     OW40065   9.556   6.263   8.648
12723SOL    HW140066   9.548   6.269   8.743
12723SOL    HW240067   9.636   6.212   8.634
12724SOL     OW40068  10.047   1.381  13.735
12724SOL    HW140069  10.131   1.377  13.690
12724SOL    HW240070  10.030   1.475  13.745
12725SOL     OW40071   3.688   4.671   3.366
12725SOL    HW140072   3.678   4.585   3.407
12725SOL    HW240073   3.783   4.680   3.352
12726SOL     OW40074  11.502  11.825   2.080
12726SOL    HW140075  11.501  11.811   2.175
12726SOL    HW240076  11.487  11.919   2.069
12727SOL     OW40077   7.274  11.737   0.728
12727SOL    HW140078   7.364  11.752   0.756
12727SOL    HW240079   7.262  11.642   0.734
12728SOL     OW40080  10.970   2.382  10.463
12728SOL    HW140081  11.058   2.416  10.474
12728SOL    HW240082  10.969   2.347  10.373
12729SOL     OW40083   4.843   0.530   3.132
12729SOL    HW140084   4.765   0.500   3.085
12729SOL    HW240085   4.873   0.606   3.082
12730SOL     OW40086   7.773   6.095   3.731
12730SOL    HW140087   7.772   6.133   3.819
12730SOL    HW240088   7.820   6.012   3.742
12731SOL     OW40089  13.396   4.455   2.325
12731SOL    HW140090  13.418   4.443   2.417
12731SOL    HW240091  13.335   4.529   2.324
12732SOL     OW40092  14.384   2.567   0.467
12732SOL    HW140093  14.458   2.552   0.526
12732SOL    HW240094  14.309   2.582   0.525
12733SOL     OW40095   9.601  11.707   9.693
12733SOL    HW140096   9.665  11.742   9.755
12733SOL    HW240097   9.518  11.749   9.717
12734SOL     OW40098   6.171   9.440   1.954
12734SOL    HW140099   6.147   9.374   1.890
12734SOL    HW240100   6.266   9.433   1.962
12735SOL     OW40101  13.514   1.100  14.181
12735SOL    HW140102  13.472   1.028  14.134
12735SOL    HW240103  13.590   1.060  14.223
12736SOL     OW40104   5.995  10.392   9.784
12736SOL    HW140105   5.899  10.393   9.778
12736SOL    HW240106   6.023  10.326   9.721
12737SOL     OW40107   7.913  13.756   9.919
12737SOL    HW140108   8.003  13.759   9.888
12737SOL    HW240109   7.910  13.822   9.989
12738SOL     OW40110   6.885  10.678   6.232
12738SOL    HW140111   6.917  10.722   6.311
12738SOL    HW240112   6.899  10.585   6.249
12739SOL     OW40113  13.135   8.307   6.752
12739SOL    HW140114  13.092   8.378   6.703
12739SOL    HW240115  13.114   8.228   6.702
12740SOL     OW40116  13.675   7.902   9.474
12740SOL    HW140117  13.745   7.896   9.408
12740SOL    HW240118  13.640   7.990   9.462
12741SOL     OW40119  12.551   4.220   7.195
12741SOL    HW140120  12.627   4.257   7.239
12741SOL    HW240121  12.499   4.295   7.168
12742SOL     OW40122   5.067   1.131  12.955
12742SOL    HW140123   5.119   1.051  12.951
12742SOL    HW240124   5.116   1.194  12.902
12743SOL     OW40125   6.226  14.596   9.608
12743SOL    HW140126   6.258  14.530   9.669
12743SOL    HW240127   6.286  14.591   9.534
12744SOL     OW40128   1.552   9.900  12.877
12744SOL    HW140129   1.494   9.951  12.933
12744SOL    HW240130   1.540   9.938  12.790
12745SOL     OW40131   4.653   4.483  11.454
12745SOL    HW140132   4.664   4.578  11.443
12745SOL    HW240133   4.702   4.446  11.381
12746SOL     OW40134  13.051   0.299   7.310
12746SOL    HW140135  13.059   0.388   7.342
12746SOL    HW240136  13.134   0.257   7.334
12747SOL     OW40137   6.664   6.432   9.731
12747SOL    HW140138   6.642   6.461   9.819
12747SOL    HW240139   6.631   6.343   9.725
12748SOL     OW40140   9.658   1.844   4.551
12748SOL    HW140141   9.744   1.819   4.585
12748SOL    HW240142   9.674   1.924   4.500
12749SOL     OW40143   8.489   3.433   5.969
12749SOL    HW140144   8.396   3.425   5.989
12749SOL    HW240145   8.493   3.506   5.906
12750SOL     OW40146   9.405   7.374   0.771
12750SOL    HW140147   9.479   7.406   0.719
12750SOL    HW240148   9.446   7.336   0.849
12751SOL     OW40149  11.760   6.453  11.903
12751SOL    HW140150  11.827   6.428  11.966
12751SOL    HW240151  11.796   6.428  11.818
12752SOL     OW40152  11.365   6.874  11.851
12752SOL    HW140153  11.270   6.888  11.852
12752SOL    HW240154  11.395   6.919  11.773
12753SOL     OW40155   5.518   8.362   5.012
12753SOL    HW140156   5.585   8.326   4.954
12753SOL    HW240157   5.444   8.382   4.954
12754SOL     OW40158   7.862  12.343   2.941
12754SOL    HW140159   7.785  12.400   2.944
12754SOL    HW240160   7.901  12.359   2.855
12755SOL     OW40161  14.738   7.556   7.096
12755SOL    HW140162  14.738   7.484   7.032
12755SOL    HW240163  14.709   7.632   7.046
12756SOL     OW40164   2.690   9.438   1.104
12756SOL    HW140165   2.666   9.355   1.062
12756SOL    HW240166   2.641   9.505   1.055
12757SOL     OW40167  12.951   9.996   5.096
12757SOL    HW140168  12.918  10.025   5.180
12757SOL    HW240169  12.976  10.077   5.051
12758SOL     OW40170  13.778   5.409  10.904
12758SOL    HW140171  13.731   5.491  10.889
12758SOL    HW240172  13.708   5.343  10.908
12759SOL     OW40173  14.788  12.150  12.915
12759SOL    HW140174  14.855  12.082  12.905
12759SOL    HW240175  14.811  12.192  12.998
12760SOL     OW40176   3.321   5.454  11.898
12760SOL    HW140177   3.348   5.545  11.905
12760SOL    HW240178   3.235   5.451  11.940
12761SOL     OW40179  10.619   8.850   8.373
12761SOL    HW140180  10.694   8.800   8.404
12761SOL    HW240181  10.590   8.901   8.449
12762SOL     OW40182   1.506   2.986  12.792
12762SOL    HW140183   1.507   3.036  12.710
12762SOL    HW240184   1.418   2.999  12.827
12763SOL     OW40185   6.247   2.662   8.337
12763SOL    HW140186   6.266   2.573   8.305
12763SOL    HW240187   6.203   2.648   8.421
12764SOL     OW40188   5.636   7.956  11.805
12764SOL    HW140189   5.631   7.861  11.809
12764SOL    HW240190   5.548   7.983  11.777
12765SOL     OW40191  12.990   0.934   4.985
12765SOL    HW140192  13.002   0.998   5.055
12765SOL    HW240193  12.927   0.871   5.021
12766SOL     OW40194  11.284   3.044   8.163
12766SOL    HW140195  11.280   3.108   8.092
12766SOL    HW240196  11.356   3.074   8.219
12767SOL     OW40197   1.392   3.497   1.579
12767SOL    HW140198   1.386   3.577   1.526
12767SOL    HW240199   1.382   3.425   1.517
12768SOL     OW40200  14.592  12.874   6.295
12768SOL    HW140201  14.558  12.919   6.217
12768SOL    HW240202  14.682  12.906   6.303
12769SOL     OW40203   3.218   1.942   5.275
12769SOL    HW140204   3.231   1.847   5.280
12769SOL    HW240205   3.221   1.962   5.181
12770SOL     OW40206  13.374   2.915  14.318
12770SOL    HW140207  13.437   2.844  14.334
12770SOL    HW240208  13.366   2.959  14.402
12771SOL     OW40209   6.796   7.459   4.753
12771SOL    HW140210   6.864   7.392   4.746
12771SOL    HW240211   6.726   7.417   4.802
12772SOL     OW40212   6.123   2.977  13.398
12772SOL    HW140213   6.150   3.009  13.484
12772SOL    HW240214   6.201   2.936  13.361
12773SOL     OW40215  12.505   2.196   4.425
12773SOL    HW140216  12.506   2.202   4.520
12773SOL    HW240217  12.505   2.286   4.395
12774SOL     OW40218   6.220   4.929   6.254
12774SOL    HW140219   6.195   4.885   6.335
12774SOL    HW240220   6.294   4.984   6.279
12775SOL     OW40221  14.670   7.164   0.041
12775SOL    HW140222  14.673   7.258   0.058
12775SOL    HW240223  14.654   7.124   0.126
12776SOL     OW40224   8.967  10.980   6.291
12776SOL    HW140225   8.952  11.072   6.312
12776SOL    HW240226   9.022  10.981   6.213
12777SOL     OW40227   1.330   9.375  10.928
12777SOL    HW140228   1.275   9.366  10.850
12777SOL    HW240229   1.306   9.459  10.965
12778SOL     OW40230   5.922   2.969  14.150
12778SOL    HW140231   5.890   2.879  14.160
12778SOL    HW240232   5.856   3.011  14.095
12779SOL     OW40233   1.325  13.557   3.439
12779SOL    HW140234   1.292  13.609   3.365
12779SOL    HW240235   1.362  13.621   3.499
12780SOL     OW40236  10.571   1.380   7.053
12780SOL    HW140237  10.632   1.355   6.985
12780SOL    HW240238  10.486   1.351   7.022
12781SOL     OW40239   4.533  14.774   8.195
12781SOL    HW140240   4.533  14.822   8.278
12781SOL    HW240241   4.566  14.837   8.131
12782SOL     OW40242  11.224   2.477  10.480
12782SOL    HW140243  11.285   2.419  10.434
12782SOL    HW240244  11.243   2.463  10.572
12783SOL     OW40245   0.609  11.988   3.126
12783SOL    HW140246   0.545  12.010   3.057
12783SOL    HW240247   0.556  11.951   3.197
12784SOL     OW40248  14.482   5.321   6.627
12784SOL    HW140249  14.569   5.283   6.616
12784SOL    HW240250  14.481   5.395   6.567
12785SOL     OW40251  10.060   0.925   8.619
12785SOL    HW140252  10.105   0.916   8.535
12785SOL    HW240253  10.023   1.013   8.617
12786SOL     OW40254   2.094   7.178   3.403
12786SOL    HW140255   2.039   7.254   3.382
12786SOL    HW240256   2.169   7.186   3.344
12787SOL     OW40257   6.078   3.160  14.505
12787SOL    HW140258   6.124   3.122  14.431
12787SOL    HW240259   5.999   3.107  14.514
12788SOL     OW40260   0.891  10.300   9.332
12788SOL    HW140261   0.876  10.369   9.397
12788SOL    HW240262   0.835  10.228   9.361
12789SOL     OW40263   9.783  12.084   1.832
12789SOL    HW140264   9.860  12.108   1.884
12789SOL    HW240265   9.734  12.024   1.889
12790SOL     OW40266  10.135  11.616  11.101
12790SOL    HW140267  10.178  11.667  11.170
12790SOL    HW240268  10.192  11.540  11.088
12791SOL     OW40269   9.978  10.696   0.466
12791SOL    HW140270   9.887  10.720   0.451
12791SOL    HW240271  10.028  10.776   0.451
12792SOL     OW40272  11.254   2.995   2.307
12792SOL    HW140273  11.299   3.051   2.370
12792SOL    HW240274  11.255   2.908   2.347
12793SOL     OW40275  13.451  12.183   8.430
12793SOL    HW140276  13.534  12.151   8.392
12793SOL    HW240277  13.418  12.245   8.365
12794SOL     OW40278   2.344   4.873   6.781
12794SOL    HW140279   2.347   4.799   6.721
12794SOL    HW240280   2.346   4.833   6.868
12795SOL     OW40281  12.000   2.230   5.611
12795SOL    HW140282  11.907   2.251   5.605
12795SOL    HW240283  12.002   2.135   5.623
12796SOL     OW40284   1.680   2.150   1.490
12796SOL    HW140285   1.686   2.059   1.459
12796SOL    HW240286   1.699   2.203   1.413
12797SOL     OW40287   4.927   3.815   1.500
12797SOL    HW140288   4.869   3.796   1.426
12797SOL    HW240289   4.888   3.769   1.574
12798SOL     OW40290  14.182  11.835  10.149
12798SOL    HW140291  14.268  11.872  10.167
12798SOL    HW240292  14.152  11.880  10.070
12799SOL     OW40293  11.860   2.919   6.172
12799SOL    HW140294  11.779   2.957   6.138
12799SOL    HW240295  11.929   2.959   6.119
12800SOL     OW40296  11.388   7.493   9.316
12800SOL    HW140297  11.434   7.491   9.232
12800SOL    HW240298  11.301   7.458   9.297
12801SOL     OW40299   8.773   9.352  11.830
12801SOL    HW140300   8.809   9.301  11.902
12801SOL    HW240301   8.766   9.289  11.758
12802SOL     OW40302   3.141   4.690   6.032
12802SOL    HW140303   3.124   4.596   6.038
12802SOL    HW240304   3.215   4.698   5.972
12803SOL     OW40305   5.806   9.052   3.290
12803SOL    HW140306   5.796   9.127   3.232
12803SOL    HW240307   5.844   9.089   3.370
12804SOL     OW40308  10.870   8.736   0.575
12804SOL    HW140309  10.909   8.715   0.490
12804SOL    HW240310  10.936   8.791   0.618
12805SOL     OW40311  14.358   0.203  11.136
12805SOL    HW140312  14.267   0.227  11.115
12805SOL    HW240313  14.410   0.269  11.091
12806SOL     OW40314   4.248   2.920   0.184
12806SOL    HW140315   4.188   2.882   0.248
12806SOL    HW240316   4.199   2.921   0.102
12807SOL     OW40317   1.136   0.558  12.756
12807SOL    HW140318   1.188   0.520  12.685
12807SOL    HW240319   1.080   0.487  12.785
12808SOL     OW40320   8.014  12.454   4.374
12808SOL    HW140321   8.060  12.389   4.320
12808SOL    HW240322   8.053  12.445   4.461
12809SOL     OW40323   3.646  10.401  12.939
12809SOL    HW140324   3.726  10.413  12.990
12809SOL    HW240325   3.606  10.488  12.935
12810SOL     OW40326  11.773   2.654   6.171
12810SOL    HW140327  11.833   2.617   6.236
12810SOL    HW240328  11.800   2.745   6.162
12811SOL     OW40329  10.833  13.185   4.105
12811SOL    HW140330  10.790  13.237   4.172
12811SOL    HW240331  10.767  13.176   4.036
12812SOL     OW40332   5.596   9.842  13.019
12812SOL    HW140333   5.526   9.843  13.085
12812SOL    HW240334   5.670   9.799  13.064
12813SOL     OW40335   1.910   0.064   5.541
12813SOL    HW140336   1.912   0.134   5.477
12813SOL    HW240337   1.999   0.061   5.575
12814SOL     OW40338   8.646   0.145  14.860
12814SOL    HW140339   8.686   0.058  14.852
12814SOL    HW240340   8.579   0.147  14.792
12815SOL     OW40341   3.935   3.617  10.972
12815SOL    HW140342   3.954   3.525  10.991
12815SOL    HW240343   3.970   3.632  10.885
12816SOL     OW40344  10.295   4.532  13.228
12816SOL    HW140345  10.358   4.589  13.183
12816SOL    HW240346  10.231   4.508  13.161
12817SOL     OW40347  12.778  12.712   2.140
12817SOL    HW140348  12.767  12.785   2.201
12817SOL    HW240349  12.865  12.725   2.102
12818SOL     OW40350   8.834   2.820   9.231
12818SOL    HW140351   8.826   2.727   9.253
12818SOL    HW240352   8.880   2.858   9.306
12819SOL     OW40353   8.851   0.612   7.935
12819SOL    HW140354   8.774   0.555   7.930
12819SOL    HW240355   8.841   0.658   8.018
12820SOL     OW40356   0.638   3.955   3.474
12820SOL    HW140357   0.577   3.940   3.402
12820SOL    HW240358   0.639   3.873   3.523
12821SOL     OW40359   0.714  10.120  10.872
12821SOL    HW140360   0.727  10.164  10.956
12821SOL    HW240361   0.744  10.183  10.807
12822SOL     OW40362  11.783   7.135   0.746
12822SOL    HW140363  11.765   7.110   0.836
12822SOL    HW240364  11.822   7.223   0.753
12823SOL     OW40365  11.435  13.531   1.695
12823SOL    HW140366  11.477  13.453   1.730
12823SOL    HW240367  11.374  13.559   1.763
12824SOL     OW40368   2.021   4.852  12.343
12824SOL    HW140369   2.099   4.887  12.301
12824SOL    HW240370   2.054   4.796  12.413
12825SOL     OW40371  13.112   6.386   4.116
12825SOL    HW140372  13.024   6.406   4.085
12825SOL    HW240373  13.126   6.444   4.190
12826SOL     OW40374   9.804   2.142  11.233
12826SOL    HW140375   9.824   2.234  11.248
12826SOL    HW240376   9.882   2.108  11.187
12827SOL     OW40377   8.585   2.876   0.104
12827SOL    HW140378   8.623   2.963   0.105
12827SOL    HW240379   8.495   2.888   0.133
12828SOL     OW40380   8.445   8.166   4.387
12828SOL    HW140381   8.397   8.192   4.466
12828SOL    HW240382   8.422   8.074   4.375
12829SOL     OW40383   4.421   4.524  11.162
12829SOL    HW140384   4.492   4.576  11.125
12829SOL    HW240385   4.454   4.435  11.162
12830SOL     OW40386   1.413  12.523  11.471
12830SOL    HW140387   1.337  12.540  11.416
12830SOL    HW240388   1.377  12.512  11.559
12831SOL     OW40389  14.802   9.099   8.847
12831SOL    HW140390  14.784   9.144   8.930
12831SOL    HW240391   0.013   9.050   8.863
12832SOL     OW40392   9.131  13.819  13.499
12832SOL    HW140393   9.154  13.727  13.487
12832SOL    HW240394   9.191  13.867  13.442
12833SOL     OW40395   9.925   2.600  13.053
12833SOL    HW140396   9.923   2.534  12.984
12833SOL    HW240397   9.833   2.624  13.065
12834SOL     OW40398   0.266   1.227   8.652
12834SOL    HW140399   0.217   1.252   8.731
12834SOL    HW240400   0.266   1.131   8.654
12835SOL     OW40401   6.575   9.369   0.529
12835SOL    HW140402   6.482   9.369   0.507
12835SOL    HW240403   6.580   9.319   0.610
12836SOL     OW40404   1.438   1.724   2.574
12836SOL    HW140405   1.348   1.709   2.600
12836SOL    HW240406   1.467   1.640   2.537
12837SOL     OW40407  10.638   4.026  11.664
12837SOL    HW140408  10.573   4.025  11.594
12837SOL    HW240409  10.648   4.119  11.686
12838SOL     OW40410   7.999   7.336   6.458
12838SOL    HW140411   7.957   7.322   6.543
12838SOL    HW240412   8.068   7.270   6.454
12839SOL     OW40413   4.594   5.959  11.436
12839SOL    HW140414   4.632   6.005  11.361
12839SOL    HW240415   4.592   6.024  11.506
12840SOL     OW40416   1.975   9.587  11.757
12840SOL    HW140417   2.068   9.570  11.772
12840SOL    HW240418   1.973   9.657  11.692
12841SOL     OW40419  13.433   9.732   4.681
12841SOL    HW140420  13.368   9.665   4.661
12841SOL    HW240421  13.388   9.815   4.663
12842SOL     OW40422   2.429   5.399  14.830
12842SOL    HW140423   2.361   5.463  14.808
12842SOL    HW240424   2.492   5.405  14.759
12843SOL     OW40425  12.202   6.285   1.154
12843SOL    HW140426  12.230   6.254   1.068
12843SOL    HW240427  12.275   6.338   1.185
12844SOL     OW40428  12.671   1.136   7.707
12844SOL    HW140429  12.698   1.192   7.779
12844SOL    HW240430  12.585   1.169   7.682
12845SOL     OW40431   6.053  14.099   3.170
12845SOL    HW140432   6.061  14.194   3.182
12845SOL    HW240433   5.962  14.086   3.145
12846SOL     OW40434   1.510  11.943   2.607
12846SOL    HW140435   1.451  12.003   2.559
12846SOL    HW240436   1.581  12.000   2.638
12847SOL     OW40437   4.234   4.760  12.846
12847SOL    HW140438   4.207   4.812  12.922
12847SOL    HW240439   4.225   4.669  12.874
12848SOL     OW40440   6.597  10.951  14.065
12848SOL    HW140441   6.609  10.922  14.156
12848SOL    HW240442   6.664  10.904  14.016
12849SOL     OW40443   8.975  14.230  13.485
12849SOL    HW140444   9.037  14.189  13.425
12849SOL    HW240445   8.966  14.168  13.557
12850SOL     OW40446   3.149   6.425  14.675
12850SOL    HW140447   3.192   6.374  14.744
12850SOL    HW240448   3.063   6.384  14.666
12851SOL     OW40449   0.980   1.036   3.929
12851SOL    HW140450   0.969   1.073   3.842
12851SOL    HW240451   0.919   0.962   3.932
12852SOL     OW40452   8.191   6.582  12.949
12852SOL    HW140453   8.168   6.563  13.040
12852SOL    HW240454   8.236   6.667  12.953
12853SOL     OW40455   3.381   4.344  14.031
12853SOL    HW140456   3.462   4.347  13.981
12853SOL    HW240457   3.405   4.299  14.112
12854SOL     OW40458   9.193   7.262  11.127
12854SOL    HW140459   9.257   7.308  11.181
12854SOL    HW240460   9.245   7.202  11.073
12855SOL     OW40461   3.069   6.091   2.215
12855SOL    HW140462   3.099   6.000   2.212
12855SOL    HW240463   3.076   6.116   2.308
12856SOL     OW40464  10.337   5.440   4.896
12856SOL    HW140465  10.262   5.387   4.926
12856SOL    HW240466  10.352   5.502   4.968
12857SOL     OW40467  12.838   6.652   2.032
12857SOL    HW140468  12.760   6.598   2.044
12857SOL    HW240469  12.891   6.636   2.110
12858SOL     OW40470  14.314  13.423  13.901
12858SOL    HW140471  14.351  13.411  13.813
12858SOL    HW240472  14.329  13.516  13.920
12859SOL     OW40473   8.403   0.460  14.655
12859SOL    HW140474   8.413   0.488  14.564
12859SOL    HW240475   8.493   0.448  14.685
12860SOL     OW40476  11.808   6.227  14.567
12860SOL    HW140477  11.816   6.208  14.473
12860SOL    HW240478  11.714   6.229  14.583
12861SOL     OW40479  11.082   7.819   2.633
12861SOL    HW140480  11.043   7.874   2.701
12861SOL    HW240481  11.161   7.783   2.673
12862SOL     OW40482   4.846   7.488   9.554
12862SOL    HW140483   4.792   7.504   9.632
12862SOL    HW240484   4.843   7.571   9.506
12863SOL     OW40485  12.156   8.502  13.176
12863SOL    HW140486  12.089   8.434  13.169
12863SOL    HW240487  12.238   8.457  13.158
12864SOL     OW40488  13.778   9.831  13.691
12864SOL    HW140489  13.751   9.743  13.717
12864SOL    HW240490  13.789   9.826  13.596
12865SOL     OW40491   0.972   3.684   1.785
12865SOL    HW140492   0.890   3.634   1.788
12865SOL    HW240493   0.944   3.774   1.768
12866SOL     OW40494   0.891   9.355  10.235
12866SOL    HW140495   0.823   9.358  10.167
12866SOL    HW240496   0.972   9.340  10.186
12867SOL     OW40497   7.728   1.657   2.506
12867SOL    HW140498   7.764   1.646   2.593
12867SOL    HW240499   7.663   1.587   2.497
12868SOL     OW40500   2.221   9.712   7.750
12868SOL    HW140501   2.195   9.680   7.836
12868SOL    HW240502   2.315   9.694   7.745
12869SOL     OW40503   8.575   4.298   9.167
12869SOL    HW140504   8.543   4.212   9.138
12869SOL    HW240505   8.643   4.321   9.105
12870SOL     OW40506  12.113   2.556   5.029
12870SOL    HW140507  12.190   2.503   5.013
12870SOL    HW240508  12.120   2.581   5.121
12871SOL     OW40509   7.965   4.626   8.198
12871SOL    HW140510   8.032   4.693   8.211
12871SOL    HW240511   7.956   4.619   8.103
12872SOL     OW40512   4.309  12.222   8.936
12872SOL    HW140513   4.283  12.305   8.976
12872SOL    HW240514   4.252  12.157   8.977
12873SOL     OW40515  13.618   8.501   0.896
12873SOL    HW140516  13.634   8.432   0.960
12873SOL    HW240517  13.667   8.576   0.929
12874SOL     OW40518   7.719  12.583   0.404
12874SOL    HW140519   7.758  12.633   0.333
12874SOL    HW240520   7.625  12.581   0.383
12875SOL     OW40521   7.999   3.496   7.924
12875SOL    HW140522   8.072   3.446   7.960
12875SOL    HW240523   7.954   3.434   7.866
12876SOL     OW40524   4.763  14.737  14.321
12876SOL    HW140525   4.752  14.768  14.411
12876SOL    HW240526   4.683  14.766  14.276
12877SOL     OW40527  11.171   6.994   8.329
12877SOL    HW140528  11.207   7.056   8.265
12877SOL    HW240529  11.245   6.973   8.386
12878SOL     OW40530   8.212  12.751   3.503
12878SOL    HW140531   8.210  12.808   3.426
12878SOL    HW240532   8.191  12.664   3.469
12879SOL     OW40533  11.365  13.052   8.682
12879SOL    HW140534  11.393  13.030   8.771
12879SOL    HW240535  11.438  13.023   8.626
12880SOL     OW40536   6.795  14.828   9.213
12880SOL    HW140537   6.782   0.048   9.246
12880SOL    HW240538   6.776  14.772   9.288
12881SOL     OW40539  11.932  11.173  12.790
12881SOL    HW140540  11.919  11.257  12.747
12881SOL    HW240541  11.887  11.110  12.734
12882SOL     OW40542   5.010   9.902   3.553
12882SOL    HW140543   5.045   9.837   3.614
12882SOL    HW240544   5.086   9.932   3.504
12883SOL     OW40545   4.461  13.331  10.773
12883SOL    HW140546   4.442  13.257  10.830
12883SOL    HW240547   4.403  13.318  10.697
12884SOL     OW40548   0.031   8.187  13.439
12884SOL    HW140549   0.024   8.092  13.444
12884SOL    HW240550   0.011   8.217  13.528
12885SOL     OW40551  12.660   2.360  11.456
12885SOL    HW140552  12.705   2.361  11.372
12885SOL    HW240553  12.654   2.268  11.480
12886SOL     OW40554  13.620   0.666   9.206
12886SOL    HW140555  13.701   0.625   9.237
12886SOL    HW240556  13.559   0.655   9.278
12887SOL     OW40557   7.934  10.590   3.388
12887SOL    HW140558   7.872  10.518   3.373
12887SOL    HW240559   8.020  10.550   3.377
12888SOL     OW40560   9.312  10.453   3.401
12888SOL    HW140561   9.403  10.435   3.422
12888SOL    HW240562   9.268  10.369   3.408
12889SOL     OW40563  12.952  11.796   5.898
12889SOL    HW140564  13.015  11.864   5.922
12889SOL    HW240565  12.867  11.834   5.920
12890SOL     OW40566   4.346   2.298   8.047
12890SOL    HW140567   4.419   2.360   8.054
12890SOL    HW240568   4.355   2.260   7.960
12891SOL     OW40569   9.336   9.339   2.481
12891SOL    HW140570   9.421   9.377   2.462
12891SOL    HW240571   9.319   9.362   2.572
12892SOL     OW40572   3.644   9.324   2.578
12892SOL    HW140573   3.699   9.386   2.530
12892SOL    HW240574   3.698   9.246   2.587
12893SOL     OW40575   4.163  12.822   6.798
12893SOL    HW140576   4.127  12.834   6.886
12893SOL    HW240577   4.087  12.827   6.740
12894SOL     OW40578   4.584   8.593   2.029
12894SOL    HW140579   4.536   8.547   2.098
12894SOL    HW240580   4.538   8.677   2.020
12895SOL     OW40581  14.166  11.522   6.322
12895SOL    HW140582  14.181  11.578   6.245
12895SOL    HW240583  14.101  11.570   6.374
12896SOL     OW40584   0.064  10.566   8.493
12896SOL    HW140585   0.010  10.643   8.510
12896SOL    HW240586   0.148  10.586   8.535
12897SOL     OW40587  11.134   3.972   6.979
12897SOL    HW140588  11.049   4.012   6.998
12897SOL    HW240589  11.120   3.878   6.991
12898SOL     OW40590   2.873  14.607  11.186
12898SOL    HW140591   2.956  14.569  11.157
12898SOL    HW240592   2.891  14.636  11.276
12899SOL     OW40593   6.500   7.031   2.477
12899SOL    HW140594   6.571   7.061   2.534
12899SOL    HW240595   6.442   7.107   2.469
12900SOL     OW40596   1.216   0.199   8.161
12900SOL    HW140597   1.255   0.277   8.199
12900SOL    HW240598   1.132   0.229   8.125
12901SOL     OW40599   4.856   1.533  12.042
12901SOL    HW140600   4.895   1.464  11.989
12901SOL    HW240601   4.909   1.536  12.122
12902SOL     OW40602  10.404   9.462  13.674
12902SOL    HW140603  10.365   9.462  13.587
12902SOL    HW240604  10.495   9.436  13.660
12903SOL     OW40605   4.985   2.686   5.670
12903SOL    HW140606   4.934   2.692   5.751
12903SOL    HW240607   4.919   2.684   5.601
12904SOL     OW40608   6.505  13.922   0.756
12904SOL    HW140609   6.570  13.907   0.687
12904SOL    HW240610   6.554  13.915   0.838
12905SOL     OW40611  13.323   9.957  10.788
12905SOL    HW140612  13.298   9.935  10.698
12905SOL    HW240613  13.259  10.022  10.816
12906SOL     OW40614   1.653  11.784   4.491
12906SOL    HW140615   1.620  11.845   4.425
12906SOL    HW240616   1.609  11.811   4.572
12907SOL     OW40617  14.563   9.311  12.092
12907SOL    HW140618  14.531   9.230  12.133
12907SOL    HW240619  14.627   9.281  12.028
12908SOL     OW40620   0.579   4.855   5.382
12908SOL    HW140621   0.553   4.946   5.362
12908SOL    HW240622   0.514   4.802   5.336
12909SOL     OW40623   7.863   1.037   5.744
12909SOL    HW140624   7.931   1.048   5.810
12909SOL    HW240625   7.857   1.123   5.702
12910SOL     OW40626   8.377   9.941   8.181
12910SOL    HW140627   8.374   9.970   8.089
12910SOL    HW240628   8.451   9.881   8.185
12911SOL     OW40629   2.962  10.289   4.164
12911SOL    HW140630   2.992  10.309   4.075
12911SOL    HW240631   2.875  10.251   4.152
12912SOL     OW40632  14.416   8.414  12.191
12912SOL    HW140633  14.375   8.389  12.109
12912SOL    HW240634  14.391   8.506  12.204
12913SOL     OW40635  14.387  10.762   4.978
12913SOL    HW140636  14.307  10.723   5.014
12913SOL    HW240637  14.407  10.835   5.037
12914SOL     OW40638   3.863  11.652   2.485
12914SOL    HW140639   3.857  11.705   2.406
12914SOL    HW240640   3.865  11.715   2.557
12915SOL     OW40641   3.701   9.692  14.078
12915SOL    HW140642   3.683   9.749  14.153
12915SOL    HW240643   3.768   9.631  14.109
12916SOL     OW40644   9.054  10.278  14.521
12916SOL    HW140645   9.148  10.266  14.532
12916SOL    HW240646   9.042  10.372  14.513
12917SOL     OW40647   6.622  13.541  12.969
12917SOL    HW140648   6.549  13.534  13.031
12917SOL    HW240649   6.680  13.607  13.008
12918SOL     OW40650   3.801   5.990  11.743
12918SOL    HW140651   3.715   6.026  11.723
12918SOL    HW240652   3.819   6.020  11.833
12919SOL     OW40653   0.744   4.302   0.018
12919SOL    HW140654   0.738   4.213  14.852
12919SOL    HW240655   0.654   4.335   0.015
12920SOL     OW40656   1.995  12.087   6.419
12920SOL    HW140657   2.084  12.061   6.396
12920SOL    HW240658   1.990  12.073   6.513
12921SOL     OW40659   8.373   7.650   1.597
12921SOL    HW140660   8.433   7.698   1.539
12921SOL    HW240661   8.403   7.671   1.685
12922SOL     OW40662   0.929   4.356  13.187
12922SOL    HW140663   0.987   4.418  13.143
12922SOL    HW240664   0.986   4.286  13.216
12923SOL     OW40665   7.030  13.182  10.080
12923SOL    HW140666   7.030  13.270  10.117
12923SOL    HW240667   7.117  13.173  10.040
12924SOL     OW40668   4.711   0.603   1.406
12924SOL    HW140669   4.760   0.522   1.393
12924SOL    HW240670   4.778   0.670   1.419
12925SOL     OW40671  12.524   7.498   3.576
12925SOL    HW140672  12.590   7.434   3.603
12925SOL    HW240673  12.570   7.556   3.515
12926SOL     OW40674   3.762   0.694  13.025
12926SOL    HW140675   3.720   0.747  12.958
12926SOL    HW240676   3.726   0.606  13.013
12927SOL     OW40677  14.126   2.353   3.659
12927SOL    HW140678  14.083   2.320   3.738
12927SOL    HW240679  14.173   2.431   3.688
12928SOL     OW40680  13.422  10.677   4.855
12928SOL    HW140681  13.426  10.615   4.781
12928SOL    HW240682  13.476  10.637   4.923
12929SOL     OW40683   8.496   6.365   8.031
12929SOL    HW140684   8.495   6.409   7.946
12929SOL    HW240685   8.421   6.307   8.029
12930SOL     OW40686   7.597   8.002  13.738
12930SOL    HW140687   7.581   8.063  13.666
12930SOL    HW240688   7.525   8.016  13.798
12931SOL     OW40689   4.697   1.333  12.413
12931SOL    HW140690   4.653   1.399  12.466
12931SOL    HW240691   4.640   1.321  12.337
12932SOL     OW40692  13.096  13.923   9.097
12932SOL    HW140693  13.108  13.833   9.126
12932SOL    HW240694  13.171  13.970   9.134
12933SOL     OW40695  13.367  10.724  13.287
12933SOL    HW140696  13.394  10.635  13.311
12933SOL    HW240697  13.427  10.781  13.335
12934SOL     OW40698   0.528  14.089   5.256
12934SOL    HW140699   0.434  14.107   5.250
12934SOL    HW240700   0.544  14.023   5.189
12935SOL     OW40701   7.057   0.565   3.941
12935SOL    HW140702   7.032   0.523   3.859
12935SOL    HW240703   7.079   0.493   3.999
12936SOL     OW40704   8.773   0.809  10.127
12936SOL    HW140705   8.792   0.715  10.133
12936SOL    HW240706   8.831   0.840  10.057
12937SOL     OW40707   1.158   1.206  11.362
12937SOL    HW140708   1.098   1.163  11.422
12937SOL    HW240709   1.197   1.277  11.413
12938SOL     OW40710   0.058   1.811   5.039
12938SOL    HW140711   0.098   1.784   5.121
12938SOL    HW240712  14.836   1.783   5.047
12939SOL     OW40713   4.859  12.200   0.038
12939SOL    HW140714   4.770  12.202   0.004
12939SOL    HW240715   4.911  12.248  14.843
12940SOL     OW40716   5.650   8.586   7.593
12940SOL    HW140717   5.644   8.545   7.507
12940SOL    HW240718   5.610   8.523   7.652
12941SOL     OW40719   7.492   2.796   7.026
12941SOL    HW140720   7.428   2.831   7.088
12941SOL    HW240721   7.533   2.723   7.073
12942SOL     OW40722   2.243   4.917   6.131
12942SOL    HW140723   2.304   4.845   6.138
12942SOL    HW240724   2.159   4.876   6.110
12943SOL     OW40725   4.406   4.522   5.221
12943SOL    HW140726   4.442   4.592   5.167
12943SOL    HW240727   4.360   4.567   5.292
12944SOL     OW40728   4.374  10.090   8.008
12944SOL    HW140729   4.399  10.179   8.034
12944SOL    HW240730   4.426  10.073   7.929
12945SOL     OW40731  12.813   9.681   4.126
12945SOL    HW140732  12.897   9.673   4.170
12945SOL    HW240733  12.779   9.592   4.123
12946SOL     OW40734  11.276  13.460  13.098
12946SOL    HW140735  11.230  13.450  13.182
12946SOL    HW240736  11.228  13.402  13.038
12947SOL     OW40737   3.392   4.149   0.701
12947SOL    HW140738   3.377   4.136   0.794
12947SOL    HW240739   3.378   4.242   0.686
12948SOL     OW40740   3.768   8.943  13.692
12948SOL    HW140741   3.814   8.880  13.637
12948SOL    HW240742   3.700   8.979  13.635
12949SOL     OW40743   9.869   6.049   3.509
12949SOL    HW140744   9.914   6.132   3.526
12949SOL    HW240745   9.852   6.050   3.415
12950SOL     OW40746   5.655   9.273   2.393
12950SOL    HW140747   5.657   9.223   2.312
12950SOL    HW240748   5.594   9.344   2.375
12951SOL     OW40749   5.849   6.320   1.343
12951SOL    HW140750   5.832   6.359   1.428
12951SOL    HW240751   5.831   6.226   1.355
12952SOL     OW40752  14.175  12.123  11.435
12952SOL    HW140753  14.169  12.142  11.342
12952SOL    HW240754  14.211  12.203  11.474
12953SOL     OW40755   6.088  13.127  13.027
12953SOL    HW140756   6.051  13.089  12.947
12953SOL    HW240757   6.169  13.169  12.998
12954SOL     OW40758  10.744   7.718   2.744
12954SOL    HW140759  10.687   7.645   2.766
12954SOL    HW240760  10.718   7.744   2.656
12955SOL     OW40761   8.189   7.360  11.665
12955SOL    HW140762   8.231   7.432  11.713
12955SOL    HW240763   8.218   7.372  11.575
12956SOL     OW40764   8.648   4.919   4.218
12956SOL    HW140765   8.627   4.954   4.132
12956SOL    HW240766   8.673   4.996   4.269
12957SOL     OW40767   7.620   4.283  13.945
12957SOL    HW140768   7.649   4.225  13.874
12957SOL    HW240769   7.601   4.224  14.017
12958SOL     OW40770   8.145   8.296  14.750
12958SOL    HW140771   8.190   8.216  14.777
12958SOL    HW240772   8.215   8.361  14.738
12959SOL     OW40773   5.072   5.630   5.829
12959SOL    HW140774   5.083   5.537   5.850
12959SOL    HW240775   5.038   5.669   5.909
12960SOL     OW40776  14.319   8.287  13.003
12960SOL    HW140777  14.235   8.296  13.049
12960SOL    HW240778  14.375   8.355  13.042
12961SOL     OW40779   7.712  12.293   0.739
12961SOL    HW140780   7.645  12.281   0.806
12961SOL    HW240781   7.706  12.385   0.714
12962SOL     OW40782   1.791  13.399  14.160
12962SOL    HW140783   1.832  13.392  14.073
12962SOL    HW240784   1.815  13.487  14.190
12963SOL     OW40785   7.206   7.117  14.857
12963SOL    HW140786   7.148   7.043   0.007
12963SOL    HW240787   7.226   7.155   0.073
12964SOL     OW40788  13.384   1.698  12.693
12964SOL    HW140789  13.338   1.615  12.678
12964SOL    HW240790  13.329   1.764  12.651
12965SOL     OW40791   3.565   9.932   5.753
12965SOL    HW140792   3.590  10.022   5.776
12965SOL    HW240793   3.648   9.884   5.751
12966SOL     OW40794   0.479   9.011   6.697
12966SOL    HW140795   0.489   9.032   6.604
12966SOL    HW240796   0.387   9.026   6.716
12967SOL     OW40797   6.773  10.432  12.271
12967SOL    HW140798   6.864  10.426  12.242
12967SOL    HW240799   6.761  10.357  12.329
12968SOL     OW40800  12.678   4.709   6.835
12968SOL    HW140801  12.588   4.689   6.863
12968SOL    HW240802  12.725   4.726   6.917
12969SOL     OW40803   8.611  11.971  14.115
12969SOL    HW140804   8.515  11.975  14.114
12969SOL    HW240805   8.631  11.903  14.180
12970SOL     OW40806   2.693  10.864   3.101
12970SOL    HW140807   2.715  10.812   3.023
12970SOL    HW240808   2.611  10.826   3.132
12971SOL     OW40809   4.386   9.495  10.143
12971SOL    HW140810   4.448   9.544  10.197
12971SOL    HW240811   4.405   9.524  10.053
12972SOL     OW40812  14.103   6.714   4.489
12972SOL    HW140813  14.069   6.668   4.412
12972SOL    HW240814  14.058   6.799   4.487
12973SOL     OW40815  12.841  14.388  14.011
12973SOL    HW140816  12.904  14.317  13.998
12973SOL    HW240817  12.888  14.467  13.985
12974SOL     OW40818   6.021   5.646   8.343
12974SOL    HW140819   6.115   5.631   8.330
12974SOL    HW240820   6.013   5.672   8.435
12975SOL     OW40821   4.578   3.031   6.605
12975SOL    HW140822   4.580   3.085   6.684
12975SOL    HW240823   4.616   2.948   6.632
12976SOL     OW40824   0.406   4.927  13.090
12976SOL    HW140825   0.382   5.016  13.065
12976SOL    HW240826   0.322   4.884  13.106
12977SOL     OW40827   1.365  13.808  11.040
12977SOL    HW140828   1.381  13.834  10.949
12977SOL    HW240829   1.376  13.888  11.090
12978SOL     OW40830   8.520   6.400  11.765
12978SOL    HW140831   8.604   6.403  11.719
12978SOL    HW240832   8.461   6.451  11.708
12979SOL     OW40833  10.155   7.207   6.382
12979SOL    HW140834  10.223   7.143   6.403
12979SOL    HW240835  10.078   7.154   6.364
12980SOL     OW40836  12.927   8.131   3.087
12980SOL    HW140837  12.887   8.189   3.152
12980SOL    HW240838  12.852   8.089   3.043
12981SOL     OW40839   5.806  12.251   9.351
12981SOL    HW140840   5.773  12.278   9.436
12981SOL    HW240841   5.875  12.315   9.331
12982SOL     OW40842  10.387  12.338   0.953
12982SOL    HW140843  10.343  12.396   0.891
12982SOL    HW240844  10.367  12.374   1.039
12983SOL     OW40845  11.037   6.680   7.741
12983SOL    HW140846  10.958   6.712   7.698
12983SOL    HW240847  11.077   6.759   7.777
12984SOL     OW40848   9.447  12.963   9.943
12984SOL    HW140849   9.462  12.909  10.021
12984SOL    HW240850   9.386  13.031   9.973
12985SOL     OW40851   0.797   7.858  12.699
12985SOL    HW140852   0.855   7.812  12.639
12985SOL    HW240853   0.731   7.898  12.642
12986SOL     OW40854  13.296   8.524   6.974
12986SOL    HW140855  13.369   8.508   6.913
12986SOL    HW240856  13.318   8.472   7.051
12987SOL     OW40857   2.678   0.632   9.337
12987SOL    HW140858   2.732   0.695   9.289
12987SOL    HW240859   2.687   0.550   9.289
12988SOL     OW40860  13.550  13.835   2.566
12988SOL    HW140861  13.626  13.816   2.621
12988SOL    HW240862  13.580  13.818   2.477
12989SOL     OW40863   3.398   7.938   2.842
12989SOL    HW140864   3.418   7.875   2.773
12989SOL    HW240865   3.480   7.947   2.890
12990SOL     OW40866  11.147   8.145   2.736
12990SOL    HW140867  11.216   8.133   2.672
12990SOL    HW240868  11.099   8.222   2.706
12991SOL     OW40869   6.794   2.588   4.995
12991SOL    HW140870   6.888   2.569   5.006
12991SOL    HW240871   6.793   2.670   4.945
12992SOL     OW40872   1.430   3.025   1.168
12992SOL    HW140873   1.370   3.061   1.103
12992SOL    HW240874   1.377   3.017   1.248
12993SOL     OW40875   8.916   4.829   9.465
12993SOL    HW140876   8.998   4.832   9.514
12993SOL    HW240877   8.934   4.881   9.386
12994SOL     OW40878   0.989   2.830  11.918
12994SOL    HW140879   0.904   2.791  11.941
12994SOL    HW240880   1.017   2.874  11.998
12995SOL     OW40881   1.108   2.572   5.812
12995SOL    HW140882   1.027   2.623   5.809
12995SOL    HW240883   1.169   2.621   5.756
12996SOL     OW40884  11.031   8.379   9.226
12996SOL    HW140885  11.062   8.440   9.293
12996SOL    HW240886  10.945   8.350   9.258
12997SOL     OW40887   5.446   1.635  11.298
12997SOL    HW140888   5.398   1.557  11.325
12997SOL    HW240889   5.424   1.701  11.363
12998SOL     OW40890   1.629  10.252   1.907
12998SOL    HW140891   1.649  10.207   1.825
12998SOL    HW240892   1.596  10.184   1.965
12999SOL     OW40893   5.544  13.409  12.757
12999SOL    HW140894   5.585  13.428  12.842
12999SOL    HW240895   5.454  13.438  12.767
13000SOL     OW40896  13.672   1.804  13.180
13000SOL    HW140897  13.749   1.755  13.151
13000SOL    HW240898  13.611   1.799  13.107
13001SOL     OW40899  13.792   7.451   6.660
13001SOL    HW140900  13.853   7.514   6.698
13001SOL    HW240901  13.705   7.487   6.681
13002SOL     OW40902   5.900  11.389   5.669
13002SOL    HW140903   5.892  11.445   5.747
13002SOL    HW240904   5.971  11.328   5.691
13003SOL     OW40905   6.457   0.731   4.872
13003SOL    HW140906   6.467   0.656   4.814
13003SOL    HW240907   6.378   0.711   4.923
13004SOL     OW40908   9.066  11.057   5.240
13004SOL    HW140909   9.028  11.062   5.327
13004SOL    HW240910   9.131  11.128   5.238
13005SOL     OW40911  12.733   1.068   1.374
13005SOL    HW140912  12.700   1.156   1.389
13005SOL    HW240913  12.784   1.074   1.293
13006SOL     OW40914   3.920   0.949  10.510
13006SOL    HW140915   3.983   1.010  10.549
13006SOL    HW240916   3.970   0.901  10.444
13007SOL     OW40917   0.864   5.024  12.816
13007SOL    HW140918   0.805   4.957  12.780
13007SOL    HW240919   0.807   5.100  12.830
13008SOL     OW40920  10.902   2.719  10.634
13008SOL    HW140921  10.862   2.635  10.652
13008SOL    HW240922  10.874   2.740  10.545
13009SOL     OW40923  11.127  12.594   5.698
13009SOL    HW140924  11.091  12.638   5.775
13009SOL    HW240925  11.148  12.506   5.728
13010SOL     OW40926  11.981   8.465   6.548
13010SOL    HW140927  11.993   8.424   6.634
13010SOL    HW240928  12.024   8.405   6.487
13011SOL     OW40929   8.634   6.149   2.690
13011SOL    HW140930   8.625   6.244   2.678
13011SOL    HW240931   8.544   6.117   2.698
13012SOL     OW40932   4.657  12.379   0.281
13012SOL    HW140933   4.670  12.435   0.357
13012SOL    HW240934   4.639  12.440   0.209
13013SOL     OW40935  11.517   4.579   2.646
13013SOL    HW140936  11.491   4.555   2.735
13013SOL    HW240937  11.435   4.594   2.601
13014SOL     OW40938   9.165   2.117  11.905
13014SOL    HW140939   9.084   2.140  11.859
13014SOL    HW240940   9.213   2.199  11.913
13015SOL     OW40941   6.458   6.757   7.623
13015SOL    HW140942   6.451   6.833   7.681
13015SOL    HW240943   6.457   6.681   7.681
13016SOL     OW40944   2.678  10.396   5.879
13016SOL    HW140945   2.706  10.350   5.800
13016SOL    HW240946   2.603  10.448   5.851
13017SOL     OW40947   6.768   7.666   9.069
13017SOL    HW140948   6.833   7.666   8.999
13017SOL    HW240949   6.705   7.599   9.043
13018SOL     OW40950  13.709  11.657   8.898
13018SOL    HW140951  13.649  11.703   8.840
13018SOL    HW240952  13.735  11.579   8.849
13019SOL     OW40953   8.343   5.283   0.135
13019SOL    HW140954   8.287   5.361   0.133
13019SOL    HW240955   8.404   5.295   0.062
13020SOL     OW40956   6.228   3.537   1.133
13020SOL    HW140957   6.300   3.574   1.184
13020SOL    HW240958   6.159   3.603   1.138
13021SOL     OW40959  10.007   7.432   8.202
13021SOL    HW140960   9.939   7.499   8.191
13021SOL    HW240961  10.017   7.423   8.296
13022SOL     OW40962   6.161  14.507   4.423
13022SOL    HW140963   6.066  14.505   4.408
13022SOL    HW240964   6.198  14.459   4.349
13023SOL     OW40965   1.799   2.887  13.671
13023SOL    HW140966   1.779   2.853  13.584
13023SOL    HW240967   1.895   2.891  13.673
13024SOL     OW40968  11.249   9.082   1.727
13024SOL    HW140969  11.345   9.077   1.726
13024SOL    HW240970  11.226   9.116   1.640
13025SOL     OW40971  13.316   1.787  12.104
13025SOL    HW140972  13.311   1.752  12.015
13025SOL    HW240973  13.384   1.734  12.147
13026SOL     OW40974   1.777   0.223  13.250
13026SOL    HW140975   1.782   0.165  13.326
13026SOL    HW240976   1.744   0.167  13.180
13027SOL     OW40977   8.495  12.916  12.301
13027SOL    HW140978   8.561  12.983  12.315
13027SOL    HW240979   8.486  12.873  12.386
13028SOL     OW40980   8.541   7.178   6.497
13028SOL    HW140981   8.582   7.243   6.555
13028SOL    HW240982   8.455   7.163   6.536
13029SOL     OW40983   9.057   8.016   5.962
13029SOL    HW140984   8.969   8.013   5.999
13029SOL    HW240985   9.087   7.925   5.965
13030SOL     OW40986   8.909  10.747   9.914
13030SOL    HW140987   8.964  10.758   9.837
13030SOL    HW240988   8.823  10.724   9.879
13031SOL     OW40989   1.801   7.651  10.513
13031SOL    HW140990   1.849   7.636  10.432
13031SOL    HW240991   1.718   7.690  10.485
13032SOL     OW40992   8.427  14.480   1.321
13032SOL    HW140993   8.410  14.493   1.414
13032SOL    HW240994   8.348  14.439   1.287
13033SOL     OW40995   3.159   8.768   8.172
13033SOL    HW140996   3.118   8.687   8.142
13033SOL    HW240997   3.090   8.813   8.221
13034SOL     OW40998   0.379   0.062  14.614
13034SOL    HW140999   0.451   0.009  14.647
13034SOL    HW241000   0.318  14.868  14.577
13035SOL     OW41001   1.915   4.671  12.827
13035SOL    HW141002   1.862   4.691  12.904
13035SOL    HW241003   1.874   4.594  12.789
13036SOL     OW41004   7.661   8.399   9.075
13036SOL    HW141005   7.677   8.310   9.044
13036SOL    HW241006   7.584   8.428   9.026
13037SOL     OW41007   7.975   3.907  14.849
13037SOL    HW141008   8.036   3.965   0.025
13037SOL    HW241009   7.889   3.946  14.864
13038SOL     OW41010   8.198   3.137  10.859
13038SOL    HW141011   8.183   3.223  10.898
13038SOL    HW241012   8.114   3.114  10.819
13039SOL     OW41013   1.766   4.881   2.551
13039SOL    HW141014   1.721   4.886   2.467
13039SOL    HW241015   1.697   4.894   2.616
13040SOL     OW41016  10.133  13.721   5.557
13040SOL    HW141017  10.079  13.713   5.636
13040SOL    HW241018  10.210  13.769   5.586
13041SOL     OW41019  10.074   3.075  11.532
13041SOL    HW141020  10.087   3.167  11.556
13041SOL    HW241021  10.100   3.070  11.440
13042SOL     OW41022   1.790   7.317  14.173
13042SOL    HW141023   1.787   7.268  14.091
13042SOL    HW241024   1.859   7.274  14.224
13043SOL     OW41025   4.413  11.722   9.028
13043SOL    HW141026   4.376  11.810   9.021
13043SOL    HW241027   4.474  11.716   8.955
13044SOL     OW41028   0.125   3.011   7.161
13044SOL    HW141029   0.179   2.931   7.158
13044SOL    HW241030   0.087   3.017   7.074
13045SOL     OW41031   2.599   9.655   0.019
13045SOL    HW141032   2.628   9.646   0.110
13045SOL    HW241033   2.677   9.681  14.840
13046SOL     OW41034  11.682   6.860   3.928
13046SOL    HW141035  11.669   6.803   3.853
13046SOL    HW241036  11.598   6.904   3.940
13047SOL     OW41037  12.795   7.509  13.595
13047SOL    HW141038  12.736   7.513  13.519
13047SOL    HW241039  12.882   7.499  13.557
13048SOL     OW41040  13.311   8.885   8.971
13048SOL    HW141041  13.337   8.880   9.063
13048SOL    HW241042  13.217   8.904   8.974
13049SOL     OW41043  10.871   9.125  14.676
13049SOL    HW141044  10.893   9.168  14.594
13049SOL    HW241045  10.936   9.157  14.738
13050SOL     OW41046   9.620  10.856   2.663
13050SOL    HW141047   9.689  10.837   2.599
13050SOL    HW241048   9.539  10.830   2.620
13051SOL     OW41049   4.744  12.843   6.124
13051SOL    HW141050   4.666  12.789   6.138
13051SOL    HW241051   4.710  12.924   6.086
13052SOL     OW41052   8.784  10.793   4.092
13052SOL    HW141053   8.866  10.744   4.097
13052SOL    HW241054   8.732  10.760   4.165
13053SOL     OW41055   0.039   3.206  11.796
13053SOL    HW141056  14.844   3.277  11.794
13053SOL    HW241057  14.857   3.126  11.804
13054SOL     OW41058   1.069  12.200   5.759
13054SOL    HW141059   0.993  12.238   5.802
13054SOL    HW241060   1.080  12.114   5.801
13055SOL     OW41061   8.540   9.181   2.618
13055SOL    HW141062   8.521   9.105   2.563
13055SOL    HW241063   8.492   9.253   2.578
13056SOL     OW41064  12.668   3.398  14.821
13056SOL    HW141065  12.583   3.434  14.847
13056SOL    HW241066  12.723   3.408   0.029
13057SOL     OW41067   9.060   2.416   1.516
13057SOL    HW141068   9.106   2.373   1.588
13057SOL    HW241069   9.109   2.391   1.438
13058SOL     OW41070  14.734   7.179  10.885
13058SOL    HW141071  14.682   7.178  10.966
13058SOL    HW241072  14.795   7.106  10.894
13059SOL     OW41073  12.321   5.376   1.347
13059SOL    HW141074  12.271   5.384   1.265
13059SOL    HW241075  12.409   5.406   1.325
13060SOL     OW41076   0.437   4.012   8.086
13060SOL    HW141077   0.506   3.951   8.111
13060SOL    HW241078   0.480   4.071   8.023
13061SOL     OW41079  12.535  10.141   7.718
13061SOL    HW141080  12.448  10.135   7.758
13061SOL    HW241081  12.596  10.123   7.789
13062SOL     OW41082  12.692   0.619   2.556
13062SOL    HW141083  12.628   0.601   2.487
13062SOL    HW241084  12.745   0.540   2.562
13063SOL     OW41085   4.793  13.316   7.580
13063SOL    HW141086   4.872  13.309   7.633
13063SOL    HW241087   4.793  13.406   7.548
13064SOL     OW41088  10.502   0.084  14.179
13064SOL    HW141089  10.433   0.150  14.178
13064SOL    HW241090  10.463   0.009  14.223
13065SOL     OW41091   4.844  14.705  12.731
13065SOL    HW141092   4.905  14.660  12.673
13065SOL    HW241093   4.761  14.704  12.685
13066SOL     OW41094  13.811   5.404   4.483
13066SOL    HW141095  13.760   5.456   4.421
13066SOL    HW241096  13.862   5.468   4.533
13067SOL     OW41097   7.379   8.300   7.566
13067SOL    HW141098   7.311   8.360   7.535
13067SOL    HW241099   7.440   8.292   7.492
13068SOL     OW41100   7.026   1.780   9.477
13068SOL    HW141101   7.073   1.841   9.420
13068SOL    HW241102   7.092   1.750   9.539
13069SOL     OW41103   6.820   5.962   9.251
13069SOL    HW141104   6.730   5.931   9.246
13069SOL    HW241105   6.873   5.886   9.227
13070SOL     OW41106  11.924   3.142   2.013
13070SOL    HW141107  11.981   3.065   2.017
13070SOL    HW241108  11.855   3.124   2.077
13071SOL     OW41109  10.460  13.507   3.562
13071SOL    HW141110  10.506  13.564   3.501
13071SOL    HW241111  10.404  13.565   3.613
13072SOL     OW41112   2.634   2.006  12.410
13072SOL    HW141113   2.557   2.063  12.404
13072SOL    HW241114   2.630   1.971  12.499
13073SOL     OW41115   6.577  11.094  10.399
13073SOL    HW141116   6.671  11.112  10.391
13073SOL    HW241117   6.570  11.050  10.484
13074SOL     OW41118   2.770   1.311   1.246
13074SOL    HW141119   2.837   1.305   1.178
13074SOL    HW241120   2.758   1.221   1.276
13075SOL     OW41121  12.501  12.716   1.470
13075SOL    HW141122  12.462  12.659   1.536
13075SOL    HW241123  12.589  12.679   1.456
13076SOL     OW41124  13.118   5.399   8.482
13076SOL    HW141125  13.193   5.343   8.502
13076SOL    HW241126  13.123   5.469   8.547
13077SOL     OW41127  10.337   0.922   6.425
13077SOL    HW141128  10.254   0.874   6.422
13077SOL    HW241129  10.372   0.915   6.336
13078SOL     OW41130  10.708   7.767   0.294
13078SOL    HW141131  10.794   7.779   0.333
13078SOL    HW241132  10.685   7.676   0.313
13079SOL     OW41133   3.939   1.606  10.116
13079SOL    HW141134   4.016   1.663  10.109
13079SOL    HW241135   3.864   1.666  10.115
13080SOL     OW41136   3.289  12.196  14.054
13080SOL    HW141137   3.287  12.225  13.963
13080SOL    HW241138   3.207  12.149  14.066
13081SOL     OW41139   6.376   1.289  10.739
13081SOL    HW141140   6.291   1.247  10.727
13081SOL    HW241141   6.424   1.269  10.659
13082SOL     OW41142  11.736  13.976  11.429
13082SOL    HW141143  11.670  13.922  11.385
13082SOL    HW241144  11.765  13.924  11.504
13083SOL     OW41145   2.301   1.639   5.371
13083SOL    HW141146   2.395   1.631   5.356
13083SOL    HW241147   2.291   1.636   5.466
13084SOL     OW41148  14.668   1.063   6.018
13084SOL    HW141149  14.582   1.102   6.003
13084SOL    HW241150  14.716   1.128   6.069
13085SOL     OW41151  10.641  10.209   6.925
13085SOL    HW141152  10.666  10.296   6.893
13085SOL    HW241153  10.612  10.225   7.015
13086SOL     OW41154   8.293   8.895   8.558
13086SOL    HW141155   8.371   8.950   8.562
13086SOL    HW241156   8.300   8.838   8.634
13087SOL     OW41157   8.163   6.259   1.050
13087SOL    HW141158   8.164   6.301   1.136
13087SOL    HW241159   8.218   6.182   1.060
13088SOL     OW41160   9.234   9.794   1.494
13088SOL    HW141161   9.277   9.879   1.507
13088SOL    HW241162   9.305   9.736   1.466
13089SOL     OW41163   9.712  14.086   6.645
13089SOL    HW141164   9.622  14.056   6.637
13089SOL    HW241165   9.748  14.036   6.718
13090SOL     OW41166   1.309  11.122   2.973
13090SOL    HW141167   1.291  11.116   3.067
13090SOL    HW241168   1.294  11.034   2.940
13091SOL     OW41169   7.938   5.375   9.303
13091SOL    HW141170   7.896   5.445   9.353
13091SOL    HW241171   7.895   5.379   9.217
13092SOL     OW41172   3.119   9.619   7.545
13092SOL    HW141173   3.200   9.655   7.582
13092SOL    HW241174   3.148   9.567   7.470
13093SOL     OW41175  14.496  13.280  10.108
13093SOL    HW141176  14.480  13.265  10.015
13093SOL    HW241177  14.433  13.348  10.133
13094SOL     OW41178   0.335   3.675  13.795
13094SOL    HW141179   0.369   3.674  13.706
13094SOL    HW241180   0.412   3.659  13.850
13095SOL     OW41181   3.375  11.450   9.533
13095SOL    HW141182   3.441  11.514   9.506
13095SOL    HW241183   3.294  11.501   9.539
13096SOL     OW41184   7.924   7.645   8.142
13096SOL    HW141185   7.843   7.606   8.174
13096SOL    HW241186   7.929   7.729   8.187
13097SOL     OW41187  10.016   6.552   3.489
13097SOL    HW141188  10.003   6.552   3.394
13097SOL    HW241189   9.960   6.623   3.520
13098SOL     OW41190   2.820   2.056  11.953
13098SOL    HW141191   2.789   2.048  12.043
13098SOL    HW241192   2.762   2.122  11.914
13099SOL     OW41193  12.489  13.227   1.894
13099SOL    HW141194  12.445  13.169   1.955
13099SOL    HW241195  12.462  13.197   1.807
13100SOL     OW41196  12.751   4.137   3.382
13100SOL    HW141197  12.764   4.227   3.412
13100SOL    HW241198  12.800   4.131   3.300
13101SOL     OW41199   1.244   9.288   7.783
13101SOL    HW141200   1.193   9.369   7.780
13101SOL    HW241201   1.295   9.294   7.863
13102SOL     OW41202   9.260   4.806  13.856
13102SOL    HW141203   9.325   4.872  13.882
13102SOL    HW241204   9.255   4.746  13.930
13103SOL     OW41205   4.610   0.510  10.936
13103SOL    HW141206   4.687   0.458  10.914
13103SOL    HW241207   4.622   0.536  11.027
13104SOL     OW41208  13.405  13.034  12.055
13104SOL    HW141209  13.442  13.044  11.967
13104SOL    HW241210  13.458  13.093  12.109
13105SOL     OW41211   7.168   8.138   6.262
13105SOL    HW141212   7.200   8.147   6.172
13105SOL    HW241213   7.078   8.170   6.258
13106SOL     OW41214   3.516  12.347   4.573
13106SOL    HW141215   3.467  12.313   4.647
13106SOL    HW241216   3.545  12.434   4.601
13107SOL     OW41217   5.073   3.736   9.904
13107SOL    HW141218   4.978   3.749   9.901
13107SOL    HW241219   5.087   3.649   9.867
13108SOL     OW41220   0.256   8.312   1.876
13108SOL    HW141221   0.170   8.352   1.865
13108SOL    HW241222   0.288   8.297   1.787
13109SOL     OW41223   5.548   4.197   8.529
13109SOL    HW141224   5.523   4.128   8.591
13109SOL    HW241225   5.513   4.168   8.445
13110SOL     OW41226   6.373  12.284   6.377
13110SOL    HW141227   6.309  12.303   6.308
13110SOL    HW241228   6.452  12.331   6.350
13111SOL     OW41229   8.501   3.065   1.754
13111SOL    HW141230   8.595   3.072   1.737
13111SOL    HW241231   8.459   3.114   1.684
13112SOL     OW41232  13.725   9.729   6.026
13112SOL    HW141233  13.803   9.747   6.078
13112SOL    HW241234  13.684   9.653   6.069
13113SOL     OW41235   6.876   9.315  13.407
13113SOL    HW141236   6.882   9.289  13.499
13113SOL    HW241237   6.899   9.408  13.407
13114SOL     OW41238   0.119   1.255  13.648
13114SOL    HW141239   0.070   1.337  13.647
13114SOL    HW241240   0.063   1.193  13.694
13115SOL     OW41241   1.534   5.621  13.323
13115SOL    HW141242   1.479   5.613  13.401
13115SOL    HW241243   1.616   5.659  13.355
13116SOL     OW41244   2.732  13.610   8.957
13116SOL    HW141245   2.763  13.553   8.886
13116SOL    HW241246   2.812  13.646   8.995
13117SOL     OW41247   8.540  11.442  12.158
13117SOL    HW141248   8.616  11.401  12.118
13117SOL    HW241249   8.524  11.520  12.104
13118SOL     OW41250   8.550   6.067  14.205
13118SOL    HW141251   8.611   6.060  14.279
13118SOL    HW241252   8.606   6.065  14.127
13119SOL     OW41253   5.887   3.964  11.774
13119SOL    HW141254   5.871   4.047  11.729
13119SOL    HW241255   5.815   3.957  11.837
13120SOL     OW41256  10.069   2.351   0.023
13120SOL    HW141257  10.137   2.318  14.832
13120SOL    HW241258  10.114   2.419   0.074
13121SOL     OW41259   9.805   6.025   5.392
13121SOL    HW141260   9.726   5.998   5.345
13121SOL    HW241261   9.777   6.096   5.449
13122SOL     OW41262  14.280   2.851   5.395
13122SOL    HW141263  14.217   2.805   5.340
13122SOL    HW241264  14.362   2.848   5.346
13123SOL     OW41265  12.390   8.676   6.580
13123SOL    HW141266  12.339   8.741   6.627
13123SOL    HW241267  12.402   8.604   6.642
13124SOL     OW41268   5.811   1.466   5.563
13124SOL    HW141269   5.723   1.501   5.574
13124SOL    HW241270   5.799   1.382   5.518
13125SOL     OW41271   2.892   6.210  13.408
13125SOL    HW141272   2.949   6.262  13.464
13125SOL    HW241273   2.950   6.180  13.337
13126SOL     OW41274  10.251  14.763   5.292
13126SOL    HW141275  10.330  14.715   5.268
13126SOL    HW241276  10.279  14.855   5.295
13127SOL     OW41277   3.264   9.267   3.491
13127SOL    HW141278   3.213   9.195   3.528
13127SOL    HW241279   3.248   9.340   3.551
13128SOL     OW41280  14.452   2.883   9.772
13128SOL    HW141281  14.477   2.797   9.738
13128SOL    HW241282  14.368   2.867   9.815
13129SOL     OW41283   1.195   9.513   0.467
13129SOL    HW141284   1.181   9.419   0.467
13129SOL    HW241285   1.274   9.526   0.415
13130SOL     OW41286  11.716   7.982   2.813
13130SOL    HW141287  11.794   8.017   2.855
13130SOL    HW241288  11.675   7.927   2.880
13131SOL     OW41289   1.975  14.156  10.280
13131SOL    HW141290   1.908  14.219  10.306
13131SOL    HW241291   2.005  14.117  10.362
13132SOL     OW41292   2.161   6.373   9.155
13132SOL    HW141293   2.173   6.341   9.065
13132SOL    HW241294   2.100   6.447   9.146
13133SOL     OW41295  13.712   2.019  13.460
13133SOL    HW141296  13.784   2.075  13.430
13133SOL    HW241297  13.753   1.957  13.520
13134SOL     OW41298   5.841   0.548  14.472
13134SOL    HW141299   5.771   0.495  14.435
13134SOL    HW241300   5.821   0.551  14.566
13135SOL     OW41301  12.846  11.816  13.383
13135SOL    HW141302  12.868  11.723  13.378
13135SOL    HW241303  12.848  11.847  13.292
13136SOL     OW41304   2.656   9.834   8.909
13136SOL    HW141305   2.610   9.867   8.986
13136SOL    HW241306   2.646   9.739   8.914
13137SOL     OW41307   6.332   5.334   0.348
13137SOL    HW141308   6.399   5.367   0.288
13137SOL    HW241309   6.316   5.406   0.409
13138SOL     OW41310   8.033   1.016   4.954
13138SOL    HW141311   8.032   0.995   5.047
13138SOL    HW241312   8.110   1.072   4.943
13139SOL     OW41313  11.551   1.775   4.828
13139SOL    HW141314  11.593   1.706   4.879
13139SOL    HW241315  11.620   1.806   4.769
13140SOL     OW41316  11.325   0.882   4.462
13140SOL    HW141317  11.375   0.942   4.406
13140SOL    HW241318  11.246   0.931   4.485
13141SOL     OW41319   9.987  12.976  10.589
13141SOL    HW141320  10.002  13.040  10.520
13141SOL    HW241321   9.967  13.029  10.667
13142SOL     OW41322   8.172   1.699   7.509
13142SOL    HW141323   8.083   1.666   7.520
13142SOL    HW241324   8.184   1.758   7.584
13143SOL     OW41325   7.966   6.895  10.090
13143SOL    HW141326   7.978   6.887   9.995
13143SOL    HW241327   8.055   6.910  10.123
13144SOL     OW41328  10.395  10.396   5.026
13144SOL    HW141329  10.459  10.368   4.961
13144SOL    HW241330  10.324  10.331   5.018
13145SOL     OW41331   5.526  14.125   2.755
13145SOL    HW141332   5.564  14.161   2.836
13145SOL    HW241333   5.602  14.100   2.702
13146SOL     OW41334   7.333  14.694   1.089
13146SOL    HW141335   7.263  14.760   1.089
13146SOL    HW241336   7.316  14.641   1.167
13147SOL     OW41337   0.510   0.539  10.864
13147SOL    HW141338   0.427   0.552  10.818
13147SOL    HW241339   0.493   0.571  10.953
13148SOL     OW41340   7.586   1.586  12.772
13148SOL    HW141341   7.649   1.642  12.816
13148SOL    HW241342   7.546   1.535  12.842
13149SOL     OW41343   5.836   3.145  14.843
13149SOL    HW141344   5.820   3.056  14.813
13149SOL    HW241345   5.851   3.195  14.762
13150SOL     OW41346  14.055  11.751   7.309
13150SOL    HW141347  14.060  11.810   7.384
13150SOL    HW241348  13.967  11.765   7.274
13151SOL     OW41349  13.403   5.332   6.241
13151SOL    HW141350  13.365   5.318   6.328
13151SOL    HW241351  13.332   5.313   6.180
13152SOL     OW41352   9.344   3.490   7.443
13152SOL    HW141353   9.325   3.416   7.386
13152SOL    HW241354   9.262   3.506   7.490
13153SOL     OW41355  10.747   1.388   7.564
13153SOL    HW141356  10.752   1.483   7.560
13153SOL    HW241357  10.785   1.358   7.481
13154SOL     OW41358   9.972   1.648   5.055
13154SOL    HW141359   9.943   1.634   5.145
13154SOL    HW241360   9.900   1.694   5.013
13155SOL     OW41361   4.656   7.230   5.756
13155SOL    HW141362   4.729   7.225   5.819
13155SOL    HW241363   4.636   7.323   5.750
13156SOL     OW41364  14.112   7.979   7.443
13156SOL    HW141365  14.060   7.926   7.504
13156SOL    HW241366  14.133   7.920   7.371
13157SOL     OW41367   7.028  14.523  14.474
13157SOL    HW141368   7.039  14.451  14.536
13157SOL    HW241369   6.950  14.570  14.504
13158SOL     OW41370   5.286   6.433   0.208
13158SOL    HW141371   5.248   6.346   0.193
13158SOL    HW241372   5.218   6.481   0.255
13159SOL     OW41373   5.998   9.176   5.352
13159SOL    HW141374   5.908   9.153   5.330
13159SOL    HW241375   6.021   9.118   5.425
13160SOL     OW41376   6.270  13.076  10.302
13160SOL    HW141377   6.327  13.108  10.232
13160SOL    HW241378   6.182  13.104  10.277
13161SOL     OW41379  10.270  11.813   7.346
13161SOL    HW141380  10.245  11.744   7.285
13161SOL    HW241381  10.187  11.845   7.382
13162SOL     OW41382   8.753   7.691   6.765
13162SOL    HW141383   8.735   7.598   6.779
13162SOL    HW241384   8.698   7.715   6.691
13163SOL     OW41385   8.407   3.691  12.242
13163SOL    HW141386   8.472   3.735  12.187
13163SOL    HW241387   8.354   3.641  12.181
13164SOL     OW41388   8.468   0.512   6.898
13164SOL    HW141389   8.480   0.424   6.933
13164SOL    HW241390   8.391   0.545   6.943
13165SOL     OW41391   8.886   6.192   9.019
13165SOL    HW141392   8.800   6.162   8.989
13165SOL    HW241393   8.866   6.260   9.083
13166SOL     OW41394  13.785   1.791   9.034
13166SOL    HW141395  13.738   1.847   9.095
13166SOL    HW241396  13.746   1.704   9.047
13167SOL     OW41397   2.860  12.422   4.137
13167SOL    HW141398   2.924  12.371   4.188
13167SOL    HW241399   2.794  12.358   4.111
13168SOL     OW41400  10.499  11.062   5.144
13168SOL    HW141401  10.508  11.149   5.105
13168SOL    HW241402  10.480  11.004   5.070
13169SOL     OW41403  12.343  11.526  11.333
13169SOL    HW141404  12.286  11.575  11.393
13169SOL    HW241405  12.420  11.505  11.386
13170SOL     OW41406   0.662   8.645   8.787
13170SOL    HW141407   0.638   8.735   8.809
13170SOL    HW241408   0.738   8.653   8.729
13171SOL     OW41409   7.680  11.499   7.868
13171SOL    HW141410   7.764  11.462   7.841
13171SOL    HW241411   7.624  11.489   7.791
13172SOL     OW41412   2.359   4.893  11.677
13172SOL    HW141413   2.273   4.853  11.664
13172SOL    HW241414   2.340   4.976  11.721
13173SOL     OW41415   7.743  14.426   2.278
13173SOL    HW141416   7.802  14.358   2.311
13173SOL    HW241417   7.801  14.492   2.241
13174SOL     OW41418  10.907   2.475   7.621
13174SOL    HW141419  10.998   2.479   7.591
13174SOL    HW241420  10.908   2.518   7.706
13175SOL     OW41421   6.744   3.418  13.000
13175SOL    HW141422   6.711   3.476  12.931
13175SOL    HW241423   6.740   3.471  13.080
13176SOL     OW41424  11.106   6.580   3.565
13176SOL    HW141425  11.023   6.562   3.520
13176SOL    HW241426  11.131   6.668   3.537
13177SOL     OW41427   4.538  11.534   0.997
13177SOL    HW141428   4.452  11.495   0.981
13177SOL    HW241429   4.542  11.546   1.092
13178SOL     OW41430   8.999   5.708   2.520
13178SOL    HW141431   8.969   5.743   2.436
13178SOL    HW241432   9.024   5.786   2.570
13179SOL     OW41433   1.634  12.447   3.332
13179SOL    HW141434   1.717  12.472   3.291
13179SOL    HW241435   1.647  12.462   3.425
13180SOL     OW41436   1.511   0.692   2.245
13180SOL    HW141437   1.529   0.598   2.252
13180SOL    HW241438   1.459   0.699   2.165
13181SOL     OW41439   8.593   8.970   8.433
13181SOL    HW141440   8.573   9.040   8.372
13181SOL    HW241441   8.631   9.013   8.509
13182SOL     OW41442  11.389   8.199   9.765
13182SOL    HW141443  11.437   8.216   9.683
13182SOL    HW241444  11.422   8.115   9.795
13183SOL     OW41445   6.443  13.063   1.353
13183SOL    HW141446   6.437  13.158   1.362
13183SOL    HW241447   6.376  13.028   1.412
13184SOL     OW41448  11.782  13.780   7.835
13184SOL    HW141449  11.823  13.856   7.796
13184SOL    HW241450  11.812  13.706   7.782
13185SOL     OW41451  10.285  10.139  11.378
13185SOL    HW141452  10.260  10.055  11.339
13185SOL    HW241453  10.359  10.117  11.435
13186SOL     OW41454   5.446   0.171   3.058
13186SOL    HW141455   5.359   0.134   3.068
13186SOL    HW241456   5.480   0.133   2.977
13187SOL     OW41457   3.058  11.468   4.001
13187SOL    HW141458   3.123  11.533   3.973
13187SOL    HW241459   3.082  11.389   3.953
13188SOL     OW41460  13.300   6.131   1.099
13188SOL    HW141461  13.250   6.070   1.154
13188SOL    HW241462  13.336   6.195   1.161
13189SOL     OW41463   1.288   2.098  12.680
13189SOL    HW141464   1.232   2.152  12.624
13189SOL    HW241465   1.227   2.056  12.741
13190SOL     OW41466  14.729   0.712   4.262
13190SOL    HW141467  14.680   0.632   4.283
13190SOL    HW241468  14.815   0.680   4.234
13191SOL     OW41469  14.096   7.383  14.542
13191SOL    HW141470  14.001   7.395  14.539
13191SOL    HW241471  14.130   7.468  14.569
13192SOL     OW41472   1.324  12.106   2.209
13192SOL    HW141473   1.395  12.169   2.204
13192SOL    HW241474   1.319  12.083   2.302
13193SOL     OW41475   1.606   5.260   1.006
13193SOL    HW141476   1.644   5.173   1.018
13193SOL    HW241477   1.641   5.312   1.078
13194SOL     OW41478  13.690  10.616   7.031
13194SOL    HW141479  13.653  10.528   7.035
13194SOL    HW241480  13.730  10.622   6.944
13195SOL     OW41481  12.156   6.331   8.552
13195SOL    HW141482  12.106   6.251   8.570
13195SOL    HW241483  12.235   6.301   8.508
13196SOL     OW41484  10.736  13.371   4.612
13196SOL    HW141485  10.675  13.444   4.620
13196SOL    HW241486  10.751  13.343   4.703
13197SOL     OW41487   9.956   0.122   0.115
13197SOL    HW141488   9.934   0.214   0.101
13197SOL    HW241489  10.041   0.112   0.071
13198SOL     OW41490   0.254  11.525   4.670
13198SOL    HW141491   0.168  11.546   4.706
13198SOL    HW241492   0.300  11.481   4.741
13199SOL     OW41493   6.680  13.277   3.961
13199SOL    HW141494   6.706  13.264   3.870
13199SOL    HW241495   6.762  13.277   4.010
13200SOL     OW41496   2.700   1.600   8.716
13200SOL    HW141497   2.718   1.694   8.720
13200SOL    HW241498   2.625   1.587   8.774
13201SOL     OW41499   9.740  10.915  12.341
13201SOL    HW141500   9.804  10.934  12.273
13201SOL    HW241501   9.740  10.992  12.397
13202SOL     OW41502  12.757   4.484  14.432
13202SOL    HW141503  12.721   4.562  14.392
13202SOL    HW241504  12.742   4.496  14.526
13203SOL     OW41505  12.709   0.834   1.942
13203SOL    HW141506  12.733   0.832   2.035
13203SOL    HW241507  12.639   0.769   1.934
13204SOL     OW41508  12.293   5.130  10.672
13204SOL    HW141509  12.284   5.214  10.628
13204SOL    HW241510  12.254   5.143  10.759
13205SOL     OW41511  11.234  13.277   7.507
13205SOL    HW141512  11.307  13.271   7.569
13205SOL    HW241513  11.244  13.200   7.451
13206SOL     OW41514   0.624   3.710   4.511
13206SOL    HW141515   0.648   3.643   4.576
13206SOL    HW241516   0.695   3.773   4.515
13207SOL     OW41517  12.437  14.667  10.904
13207SOL    HW141518  12.421  14.713  10.987
13207SOL    HW241519  12.395  14.722  10.838
13208SOL     OW41520   7.086   1.297   8.729
13208SOL    HW141521   7.076   1.236   8.655
13208SOL    HW241522   7.043   1.254   8.802
13209SOL     OW41523   3.537  12.221   9.443
13209SOL    HW141524   3.473  12.206   9.512
13209SOL    HW241525   3.484  12.228   9.363
13210SOL     OW41526   8.148   3.770   8.472
13210SOL    HW141527   8.208   3.723   8.530
13210SOL    HW241528   8.137   3.856   8.514
13211SOL     OW41529   1.725   2.705   5.948
13211SOL    HW141530   1.769   2.693   5.864
13211SOL    HW241531   1.654   2.767   5.929
13212SOL     OW41532  14.505  12.204   1.812
13212SOL    HW141533  14.419  12.203   1.771
13212SOL    HW241534  14.556  12.265   1.759
13213SOL     OW41535   8.457  10.396  11.130
13213SOL    HW141536   8.423  10.481  11.157
13213SOL    HW241537   8.550  10.398  11.156
13214SOL     OW41538  10.516   8.743  13.330
13214SOL    HW141539  10.513   8.826  13.378
13214SOL    HW241540  10.562   8.683  13.389
13215SOL     OW41541  13.848   9.790   8.872
13215SOL    HW141542  13.857   9.767   8.779
13215SOL    HW241543  13.772   9.848   8.875
13216SOL     OW41544   3.624  13.702  10.183
13216SOL    HW141545   3.699  13.737  10.231
13216SOL    HW241546   3.612  13.763  10.110
13217SOL     OW41547  13.230   6.760   8.920
13217SOL    HW141548  13.149   6.710   8.930
13217SOL    HW241549  13.224   6.797   8.832
13218SOL     OW41550   6.397  12.482   2.456
13218SOL    HW141551   6.313  12.445   2.429
13218SOL    HW241552   6.439  12.414   2.507
13219SOL     OW41553   9.545  11.895   0.434
13219SOL    HW141554   9.469  11.871   0.381
13219SOL    HW241555   9.558  11.820   0.492
13220SOL     OW41556   9.038  14.667   2.781
13220SOL    HW141557   9.034  14.760   2.801
13220SOL    HW241558   9.131  14.644   2.788
13221SOL     OW41559   0.904   5.041   5.035
13221SOL    HW141560   0.863   4.974   5.089
13221SOL    HW241561   0.997   5.019   5.033
13222SOL     OW41562   4.594   1.417  11.903
13222SOL    HW141563   4.654   1.386  11.835
13222SOL    HW241564   4.632   1.499  11.933
13223SOL     OW41565  13.362   5.005  13.529
13223SOL    HW141566  13.356   5.030  13.622
13223SOL    HW241567  13.284   5.044  13.489
13224SOL     OW41568   6.989   4.611  14.068
13224SOL    HW141569   7.011   4.697  14.030
13224SOL    HW241570   6.895   4.604  14.056
13225SOL     OW41571   1.339   6.626  10.612
13225SOL    HW141572   1.432   6.615  10.630
13225SOL    HW241573   1.309   6.540  10.582
13226SOL     OW41574  13.807   8.987  12.649
13226SOL    HW141575  13.741   9.040  12.693
13226SOL    HW241576  13.858   8.948  12.720
13227SOL     OW41577   8.598   0.928   2.105
13227SOL    HW141578   8.693   0.919   2.100
13227SOL    HW241579   8.574   0.973   2.023
13228SOL     OW41580   1.339  10.046  11.105
13228SOL    HW141581   1.263  10.060  11.048
13228SOL    HW241582   1.329  10.109  11.176
13229SOL     OW41583   9.230   6.642   6.347
13229SOL    HW141584   9.290   6.590   6.399
13229SOL    HW241585   9.260   6.631   6.257
13230SOL     OW41586   1.475   4.414  13.930
13230SOL    HW141587   1.533   4.448  13.862
13230SOL    HW241588   1.432   4.339  13.890
13231SOL     OW41589  12.876   7.601   8.565
13231SOL    HW141590  12.837   7.513   8.565
13231SOL    HW241591  12.833   7.646   8.637
13232SOL     OW41592   7.170   2.786  13.251
13232SOL    HW141593   7.196   2.817  13.164
13232SOL    HW241594   7.227   2.711  13.267
13233SOL     OW41595  13.649  10.942   2.372
13233SOL    HW141596  13.573  10.884   2.379
13233SOL    HW241597  13.613  11.025   2.341
13234SOL     OW41598   1.930   9.625  13.578
13234SOL    HW141599   1.878   9.565  13.632
13234SOL    HW241600   2.020   9.598  13.592
13235SOL     OW41601   1.076   3.206  12.855
13235SOL    HW141602   1.033   3.146  12.794
13235SOL    HW241603   1.033   3.290  12.839
13236SOL     OW41604  12.745   8.273   8.009
13236SOL    HW141605  12.823   8.310   7.968
13236SOL    HW241606  12.778   8.202   8.064
13237SOL     OW41607  10.415   1.959   3.726
13237SOL    HW141608  10.359   2.037   3.727
13237SOL    HW241609  10.503   1.992   3.707
13238SOL     OW41610   3.916   9.232   9.484
13238SOL    HW141611   3.840   9.264   9.437
13238SOL    HW241612   3.973   9.309   9.493
13239SOL     OW41613   2.610   9.171  11.613
13239SOL    HW141614   2.524   9.213  11.607
13239SOL    HW241615   2.669   9.242  11.639
13240SOL     OW41616   1.326  10.488   4.532
13240SOL    HW141617   1.231  10.475   4.525
13240SOL    HW241618   1.359  10.475   4.443
13241SOL     OW41619   4.084   8.367   5.935
13241SOL    HW141620   4.126   8.452   5.922
13241SOL    HW241621   4.152   8.304   5.911
13242SOL     OW41622  13.258   4.928   0.155
13242SOL    HW141623  13.224   4.904   0.069
13242SOL    HW241624  13.189   4.901   0.216
13243SOL     OW41625  11.324  14.064  14.704
13243SOL    HW141626  11.371  14.000  14.757
13243SOL    HW241627  11.360  14.054  14.616
13244SOL     OW41628   7.492   8.530   0.245
13244SOL    HW141629   7.548   8.587   0.298
13244SOL    HW241630   7.463   8.462   0.304
13245SOL     OW41631  14.740   8.958   3.802
13245SOL    HW141632  14.706   8.980   3.888
13245SOL    HW241633  14.835   8.951   3.815
13246SOL     OW41634  11.685  12.644   5.197
13246SOL    HW141635  11.593  12.630   5.173
13246SOL    HW241636  11.732  12.635   5.114
13247SOL     OW41637   7.840   0.270   6.775
13247SOL    HW141638   7.932   0.297   6.777
13247SOL    HW241639   7.802   0.323   6.705
13248SOL     OW41640   8.456   1.753   8.552
13248SOL    HW141641   8.500   1.716   8.475
13248SOL    HW241642   8.499   1.710   8.626
13249SOL     OW41643  10.785   9.770  13.571
13249SOL    HW141644  10.835   9.689  13.582
13249SOL    HW241645  10.851   9.838  13.558
13250SOL     OW41646  12.293   1.563  13.544
13250SOL    HW141647  12.263   1.568  13.454
13250SOL    HW241648  12.387   1.582  13.539
13251SOL     OW41649   2.447   5.540   5.203
13251SOL    HW141650   2.430   5.625   5.163
13251SOL    HW241651   2.380   5.532   5.271
13252SOL     OW41652   9.129  10.329   6.639
13252SOL    HW141653   9.202  10.310   6.699
13252SOL    HW241654   9.133  10.424   6.627
13253SOL     OW41655   0.168   5.682  12.710
13253SOL    HW141656   0.214   5.599  12.700
13253SOL    HW241657   0.203   5.737  12.639
13254SOL     OW41658   0.788  10.680   4.426
13254SOL    HW141659   0.716  10.628   4.460
13254SOL    HW241660   0.866  10.626   4.442
13255SOL     OW41661  12.995   3.284   9.023
13255SOL    HW141662  12.925   3.287   8.958
13255SOL    HW241663  13.042   3.367   9.012
13256SOL     OW41664   3.668   8.127   9.596
13256SOL    HW141665   3.714   8.208   9.617
13256SOL    HW241666   3.603   8.153   9.530
13257SOL     OW41667  14.005   8.468   1.859
13257SOL    HW141668  13.954   8.394   1.826
13257SOL    HW241669  13.962   8.545   1.821
13258SOL     OW41670   8.100  14.598   2.954
13258SOL    HW141671   8.155  14.641   2.888
13258SOL    HW241672   8.138  14.624   3.038
13259SOL     OW41673   3.794  10.048   0.074
13259SOL    HW141674   3.778  10.115   0.141
13259SOL    HW241675   3.876  10.008   0.100
13260SOL     OW41676  12.049   4.826  10.763
13260SOL    HW141677  11.981   4.780  10.714
13260SOL    HW241678  12.026   4.919  10.754
13261SOL     OW41679  12.870  13.436   4.498
13261SOL    HW141680  12.913  13.384   4.566
13261SOL    HW241681  12.777  13.428   4.517
13262SOL     OW41682   0.973   8.689   3.690
13262SOL    HW141683   0.900   8.717   3.746
13262SOL    HW241684   0.995   8.601   3.721
13263SOL     OW41685   3.251   6.368  12.327
13263SOL    HW141686   3.242   6.398  12.237
13263SOL    HW241687   3.336   6.401  12.355
13264SOL     OW41688  13.499   6.217   2.041
13264SOL    HW141689  13.512   6.156   1.969
13264SOL    HW241690  13.551   6.294   2.018
13265SOL     OW41691   5.696   8.950  13.445
13265SOL    HW141692   5.626   9.006  13.412
13265SOL    HW241693   5.743   8.922  13.367
13266SOL     OW41694   2.614  14.492   1.311
13266SOL    HW141695   2.660  14.412   1.338
13266SOL    HW241696   2.577  14.527   1.393
13267SOL     OW41697  13.671   9.707   6.605
13267SOL    HW141698  13.615   9.668   6.672
13267SOL    HW241699  13.621   9.782   6.572
13268SOL     OW41700  10.384   6.285   6.763
13268SOL    HW141701  10.435   6.316   6.838
13268SOL    HW241702  10.303   6.335   6.767
13269SOL     OW41703   7.903   9.292   0.889
13269SOL    HW141704   7.907   9.360   0.822
13269SOL    HW241705   7.909   9.210   0.841
13270SOL     OW41706   0.259   7.067   2.502
13270SOL    HW141707   0.227   7.144   2.455
13270SOL    HW241708   0.289   7.008   2.433
13271SOL     OW41709   2.818  11.606   4.486
13271SOL    HW141710   2.898  11.554   4.493
13271SOL    HW241711   2.819  11.640   4.397
13272SOL     OW41712   1.553  14.305  10.199
13272SOL    HW141713   1.623  14.296  10.135
13272SOL    HW241714   1.585  14.371  10.261
13273SOL     OW41715  11.208   6.914  10.595
13273SOL    HW141716  11.163   6.871  10.668
13273SOL    HW241717  11.296   6.877  10.596
13274SOL     OW41718   3.534   6.813  12.573
13274SOL    HW141719   3.438   6.811  12.581
13274SOL    HW241720   3.552   6.756  12.498
13275SOL     OW41721  10.994   8.927   3.952
13275SOL    HW141722  10.958   8.853   3.902
13275SOL    HW241723  11.063   8.888   4.006
13276SOL     OW41724   7.085  12.680   1.737
13276SOL    HW141725   7.083  12.598   1.687
13276SOL    HW241726   7.004  12.725   1.713
13277SOL     OW41727  10.486   2.446   4.687
13277SOL    HW141728  10.502   2.482   4.600
13277SOL    HW241729  10.401   2.401   4.679
13278SOL     OW41730   8.956   2.465   1.944
13278SOL    HW141731   8.881   2.406   1.938
13278SOL    HW241732   8.926   2.547   1.906
13279SOL     OW41733  11.579  14.561   7.621
13279SOL    HW141734  11.657  14.512   7.595
13279SOL    HW241735  11.600  14.597   7.707
13280SOL     OW41736   2.694   5.229   6.246
13280SOL    HW141737   2.658   5.140   6.251
13280SOL    HW241738   2.685   5.254   6.155
13281SOL     OW41739   8.814   7.097  14.579
13281SOL    HW141740   8.722   7.115  14.560
13281SOL    HW241741   8.828   7.008  14.546
13282SOL     OW41742  12.028   7.375  14.081
13282SOL    HW141743  12.074   7.297  14.049
13282SOL    HW241744  12.051   7.380  14.173
13283SOL     OW41745  13.164   2.888  13.935
13283SOL    HW141746  13.227   2.933  13.992
13283SOL    HW241747  13.156   2.945  13.859
13284SOL     OW41748   5.727  11.317   6.150
13284SOL    HW141749   5.766  11.255   6.211
13284SOL    HW241750   5.633  11.296   6.152
13285SOL     OW41751   5.274  13.041   4.797
13285SOL    HW141752   5.190  13.040   4.751
13285SOL    HW241753   5.253  13.014   4.887
13286SOL     OW41754   0.208   3.481   9.906
13286SOL    HW141755   0.236   3.572   9.918
13286SOL    HW241756   0.124   3.476   9.953
13287SOL     OW41757   6.680  14.606  11.970
13287SOL    HW141758   6.612  14.671  11.987
13287SOL    HW241759   6.669  14.542  12.041
13288SOL     OW41760  12.947   4.038   1.232
13288SOL    HW141761  12.928   4.108   1.168
13288SOL    HW241762  12.900   3.962   1.199
13289SOL     OW41763  12.924  14.740   3.179
13289SOL    HW141764  12.948  14.658   3.222
13289SOL    HW241765  12.853  14.774   3.232
13290SOL     OW41766   9.165   4.534   2.673
13290SOL    HW141767   9.128   4.560   2.589
13290SOL    HW241768   9.219   4.458   2.653
13291SOL     OW41769   2.933   6.699   7.093
13291SOL    HW141770   2.982   6.770   7.051
13291SOL    HW241771   2.942   6.715   7.187
13292SOL     OW41772   4.847  11.525   1.559
13292SOL    HW141773   4.764  11.549   1.601
13292SOL    HW241774   4.839  11.430   1.544
13293SOL     OW41775   5.158   2.478   7.937
13293SOL    HW141776   5.233   2.487   7.879
13293SOL    HW241777   5.082   2.495   7.881
13294SOL     OW41778   4.939  10.756   2.351
13294SOL    HW141779   4.914  10.847   2.339
13294SOL    HW241780   4.903  10.732   2.436
13295SOL     OW41781   8.893   5.120  10.523
13295SOL    HW141782   8.980   5.108  10.562
13295SOL    HW241783   8.899   5.077  10.438
13296SOL     OW41784  12.223   7.558   6.868
13296SOL    HW141785  12.273   7.638   6.878
13296SOL    HW241786  12.288   7.488   6.872
13297SOL     OW41787   0.476   1.415   2.351
13297SOL    HW141788   0.441   1.377   2.270
13297SOL    HW241789   0.553   1.463   2.323
13298SOL     OW41790  10.848   1.475   4.048
13298SOL    HW141791  10.860   1.533   4.123
13298SOL    HW241792  10.890   1.393   4.073
13299SOL     OW41793   8.675   6.543  12.218
13299SOL    HW141794   8.715   6.625  12.190
13299SOL    HW241795   8.582   6.554  12.197
13300SOL     OW41796   2.048  11.580  10.302
13300SOL    HW141797   2.119  11.644  10.308
13300SOL    HW241798   2.004  11.586  10.387
13301SOL     OW41799  10.626  12.748   5.364
13301SOL    HW141800  10.679  12.769   5.287
13301SOL    HW241801  10.535  12.761   5.335
13302SOL     OW41802   7.309   6.817  13.453
13302SOL    HW141803   7.356   6.875  13.393
13302SOL    HW241804   7.270   6.875  13.518
13303SOL     OW41805   7.047   9.279   6.022
13303SOL    HW141806   7.091   9.364   6.030
13303SOL    HW241807   7.060   9.254   5.930
13304SOL     OW41808   2.442  13.206   9.424
13304SOL    HW141809   2.485  13.280   9.382
13304SOL    HW241810   2.477  13.129   9.379
13305SOL     OW41811   8.000   0.515   7.126
13305SOL    HW141812   7.952   0.524   7.043
13305SOL    HW241813   8.031   0.425   7.127
13306SOL     OW41814  11.000  13.866  14.342
13306SOL    HW141815  11.029  13.954  14.368
13306SOL    HW241816  11.058  13.807  14.390
13307SOL     OW41817   4.407   5.839  13.353
13307SOL    HW141818   4.458   5.795  13.285
13307SOL    HW241819   4.444   5.927  13.357
13308SOL     OW41820   4.636  12.517  12.084
13308SOL    HW141821   4.677  12.597  12.115
13308SOL    HW241822   4.575  12.546  12.016
13309SOL     OW41823  10.430   4.056   9.845
13309SOL    HW141824  10.513   4.104   9.849
13309SOL    HW241825  10.400   4.053   9.936
13310SOL     OW41826   6.560   7.918  10.643
13310SOL    HW141827   6.563   8.008  10.612
13310SOL    HW241828   6.468   7.902  10.664
13311SOL     OW41829  10.097  13.041   8.717
13311SOL    HW141830  10.030  13.108   8.702
13311SOL    HW241831  10.101  13.032   8.812
13312SOL     OW41832  10.551   1.773   3.886
13312SOL    HW141833  10.513   1.833   3.821
13312SOL    HW241834  10.542   1.820   3.969
13313SOL     OW41835   2.195   3.168   3.376
13313SOL    HW141836   2.127   3.231   3.353
13313SOL    HW241837   2.219   3.128   3.293
13314SOL     OW41838  11.664  10.690   1.482
13314SOL    HW141839  11.687  10.659   1.395
13314SOL    HW241840  11.707  10.629   1.542
13315SOL     OW41841  12.779   0.182  14.373
13315SOL    HW141842  12.728   0.127  14.313
13315SOL    HW241843  12.812   0.121  14.439
13316SOL     OW41844   8.105   2.739  11.271
13316SOL    HW141845   8.094   2.818  11.218
13316SOL    HW241846   8.168   2.765  11.339
13317SOL     OW41847   2.771  11.531   3.326
13317SOL    HW141848   2.803  11.484   3.249
13317SOL    HW241849   2.755  11.620   3.295
13318SOL     OW41850   0.229   3.193   9.965
13318SOL    HW141851   0.193   3.240  10.041
13318SOL    HW241852   0.225   3.257   9.894
13319SOL     OW41853   6.121  14.438   0.873
13319SOL    HW141854   6.120  14.343   0.860
13319SOL    HW241855   6.158  14.472   0.791
13320SOL     OW41856   2.844  13.462   8.741
13320SOL    HW141857   2.938  13.459   8.756
13320SOL    HW241858   2.830  13.408   8.663
13321SOL     OW41859   1.087   2.147   6.815
13321SOL    HW141860   1.066   2.183   6.729
13321SOL    HW241861   1.120   2.059   6.796
13322SOL     OW41862   4.107   2.484  12.644
13322SOL    HW141863   4.195   2.451  12.662
13322SOL    HW241864   4.057   2.461  12.722
13323SOL     OW41865   2.278   5.639   9.648
13323SOL    HW141866   2.310   5.586   9.576
13323SOL    HW241867   2.191   5.603   9.668
13324SOL     OW41868   6.186   6.494   7.773
13324SOL    HW141869   6.122   6.557   7.805
13324SOL    HW241870   6.178   6.419   7.832
13325SOL     OW41871   5.869   1.065   7.885
13325SOL    HW141872   5.796   1.008   7.859
13325SOL    HW241873   5.832   1.153   7.880
13326SOL     OW41874   4.443   5.164   2.083
13326SOL    HW141875   4.539   5.159   2.090
13326SOL    HW241876   4.425   5.257   2.068
13327SOL     OW41877  13.153   1.222   2.183
13327SOL    HW141878  13.137   1.216   2.089
13327SOL    HW241879  13.160   1.316   2.201
13328SOL     OW41880   4.124   2.775  10.006
13328SOL    HW141881   4.040   2.817   9.984
13328SOL    HW241882   4.182   2.799   9.934
13329SOL     OW41883  12.971   3.969   5.592
13329SOL    HW141884  12.919   4.047   5.608
13329SOL    HW241885  12.935   3.931   5.511
13330SOL     OW41886   0.938   6.447  14.256
13330SOL    HW141887   0.849   6.437  14.289
13330SOL    HW241888   0.994   6.435  14.332
13331SOL     OW41889   3.736   8.962   0.524
13331SOL    HW141890   3.662   9.012   0.490
13331SOL    HW241891   3.750   8.998   0.612
13332SOL     OW41892   6.588   8.401  11.602
13332SOL    HW141893   6.606   8.309  11.582
13332SOL    HW241894   6.614   8.449  11.524
13333SOL     OW41895   0.148   2.296   8.193
13333SOL    HW141896   0.205   2.372   8.203
13333SOL    HW241897   0.187   2.246   8.122
13334SOL     OW41898   0.912  13.817   2.530
13334SOL    HW141899   0.924  13.903   2.569
13334SOL    HW241900   0.832  13.825   2.478
13335SOL     OW41901   4.242  14.654   2.133
13335SOL    HW141902   4.190  14.578   2.157
13335SOL    HW241903   4.251  14.704   2.214
13336SOL     OW41904  10.599   5.969  13.824
13336SOL    HW141905  10.659   6.024  13.875
13336SOL    HW241906  10.560   6.030  13.760
13337SOL     OW41907  11.227   0.258   2.961
13337SOL    HW141908  11.149   0.208   2.940
13337SOL    HW241909  11.198   0.349   2.966
13338SOL     OW41910  14.742  14.619   4.107
13338SOL    HW141911  14.664  14.647   4.155
13338SOL    HW241912  14.710  14.552   4.046
13339SOL     OW41913  12.156  13.871   4.161
13339SOL    HW141914  12.092  13.867   4.232
13339SOL    HW241915  12.107  13.905   4.086
13340SOL     OW41916  10.169   5.499   2.243
13340SOL    HW141917  10.078   5.470   2.243
13340SOL    HW241918  10.217   5.428   2.199
13341SOL     OW41919  12.135  12.300  12.245
13341SOL    HW141920  12.202  12.367  12.254
13341SOL    HW241921  12.125  12.288  12.151
13342SOL     OW41922   5.358   4.011   8.971
13342SOL    HW141923   5.398   3.949   9.032
13342SOL    HW241924   5.263   4.000   8.985
13343SOL     OW41925  11.545   7.774  10.791
13343SOL    HW141926  11.469   7.832  10.796
13343SOL    HW241927  11.571   7.776  10.699
13344SOL     OW41928   5.576   0.231  11.779
13344SOL    HW141929   5.638   0.165  11.810
13344SOL    HW241930   5.529   0.189  11.708
13345SOL     OW41931   3.215  10.370  11.852
13345SOL    HW141932   3.266  10.300  11.811
13345SOL    HW241933   3.280  10.429  11.890
13346SOL     OW41934   9.006  12.080   9.955
13346SOL    HW141935   9.014  12.022   9.880
13346SOL    HW241936   8.919  12.120   9.946
13347SOL     OW41937   2.197  14.831  14.637
13347SOL    HW141938   2.121   0.013  14.663
13347SOL    HW241939   2.167  14.740  14.639
13348SOL     OW41940   4.150   3.968   9.451
13348SOL    HW141941   4.159   4.037   9.516
13348SOL    HW241942   4.068   3.924   9.475
13349SOL     OW41943   1.686   6.180   6.521
13349SOL    HW141944   1.719   6.093   6.540
13349SOL    HW241945   1.700   6.192   6.427
13350SOL     OW41946  12.535  11.392  11.965
13350SOL    HW141947  12.593  11.394  12.041
13350SOL    HW241948  12.594  11.386  11.890
13351SOL     OW41949   3.762  12.984  13.675
13351SOL    HW141950   3.822  13.048  13.639
13351SOL    HW241951   3.678  13.029  13.680
13352SOL     OW41952   2.204  10.134   8.594
13352SOL    HW141953   2.129  10.078   8.616
13352SOL    HW241954   2.201  10.141   8.498
13353SOL     OW41955  13.856   4.532   1.195
13353SOL    HW141956  13.787   4.525   1.261
13353SOL    HW241957  13.833   4.611   1.145
13354SOL     OW41958   4.588  10.514   0.072
13354SOL    HW141959   4.616  10.564   0.150
13354SOL    HW241960   4.607  10.573  14.868
13355SOL     OW41961   3.388   1.229  14.006
13355SOL    HW141962   3.462   1.169  14.011
13355SOL    HW241963   3.427   1.311  13.976
13356SOL     OW41964   6.915   9.505   6.283
13356SOL    HW141965   6.825   9.477   6.271
13356SOL    HW241966   6.968   9.429   6.261
13357SOL     OW41967   5.612   7.695  14.234
13357SOL    HW141968   5.696   7.666  14.269
13357SOL    HW241969   5.610   7.660  14.145
13358SOL     OW41970   3.864   0.239   0.743
13358SOL    HW141971   3.770   0.235   0.726
13358SOL    HW241972   3.874   0.308   0.808
13359SOL     OW41973   2.197   4.596   0.591
13359SOL    HW141974   2.277   4.600   0.538
13359SOL    HW241975   2.204   4.512   0.637
13360SOL     OW41976   4.501  12.757   1.206
13360SOL    HW141977   4.573  12.745   1.267
13360SOL    HW241978   4.423  12.763   1.261
13361SOL     OW41979   4.081   5.952   8.937
13361SOL    HW141980   4.014   6.014   8.966
13361SOL    HW241981   4.033   5.869   8.926
13362SOL     OW41982   1.227   9.279  14.264
13362SOL    HW141983   1.322   9.275  14.271
13362SOL    HW241984   1.209   9.273  14.170
13363SOL     OW41985  14.468  11.651   1.241
13363SOL    HW141986  14.462  11.568   1.194
13363SOL    HW241987  14.442  11.717   1.178
13364SOL     OW41988   5.411  13.301   0.530
13364SOL    HW141989   5.337  13.319   0.472
13364SOL    HW241990   5.447  13.387   0.550
13365SOL     OW41991  12.312  12.586  12.287
13365SOL    HW141992  12.250  12.648  12.326
13365SOL    HW241993  12.290  12.585  12.194
13366SOL     OW41994  11.739   2.621   0.808
13366SOL    HW141995  11.710   2.666   0.887
13366SOL    HW241996  11.662   2.617   0.752
13367SOL     OW41997   5.708   2.787   1.812
13367SOL    HW141998   5.743   2.876   1.808
13367SOL    HW241999   5.634   2.792   1.873
13368SOL     OW42000   4.006  12.858  10.829
13368SOL    HW142001   3.972  12.774  10.859
13368SOL    HW242002   4.052  12.838  10.748
13369SOL     OW42003   3.315  11.711  13.376
13369SOL    HW142004   3.374  11.773  13.419
13369SOL    HW242005   3.290  11.649  13.444
13370SOL     OW42006  10.212  14.757  11.831
13370SOL    HW142007  10.244  14.810  11.758
13370SOL    HW242008  10.258  14.791  11.907
13371SOL     OW42009   6.806   7.085  12.958
13371SOL    HW142010   6.895   7.065  12.927
13371SOL    HW242011   6.817   7.101  13.052
13372SOL     OW42012   4.904  14.779   3.328
13372SOL    HW142013   4.903   0.005   3.319
13372SOL    HW242014   4.980  14.752   3.277
13373SOL     OW42015   3.092   9.504  11.343
13373SOL    HW142016   3.044   9.587  11.351
13373SOL    HW242017   3.034   9.439  11.380
13374SOL     OW42018  14.373  13.625  14.486
13374SOL    HW142019  14.363  13.636  14.392
13374SOL    HW242020  14.285  13.634  14.522
13375SOL     OW42021   9.758  12.702   7.233
13375SOL    HW142022   9.834  12.747   7.195
13375SOL    HW242023   9.701  12.684   7.159
13376SOL     OW42024  11.565   2.210  10.004
13376SOL    HW142025  11.648   2.175  10.035
13376SOL    HW242026  11.588   2.260   9.925
13377SOL     OW42027   1.136   9.404   8.685
13377SOL    HW142028   1.097   9.454   8.614
13377SOL    HW242029   1.123   9.312   8.659
13378SOL     OW42030   8.526   5.254   6.275
13378SOL    HW142031   8.504   5.164   6.299
13378SOL    HW242032   8.476   5.308   6.337
13379SOL     OW42033   0.107  14.482  12.272
13379SOL    HW142034   0.017  14.449  12.269
13379SOL    HW242035   0.161  14.403  12.272
13380SOL     OW42036  14.550  10.199   1.185
13380SOL    HW142037  14.461  10.226   1.165
13380SOL    HW242038  14.556  10.203   1.281
13381SOL     OW42039   8.133   2.540   0.687
13381SOL    HW142040   8.070   2.584   0.630
13381SOL    HW242041   8.097   2.453   0.701
13382SOL     OW42042   4.006  11.076  10.566
13382SOL    HW142043   4.015  11.170  10.583
13382SOL    HW242044   4.083  11.054  10.514
13383SOL     OW42045   7.178  12.849  10.090
13383SOL    HW142046   7.209  12.851  10.180
13383SOL    HW242047   7.232  12.913  10.044
13384SOL     OW42048  11.869   8.689   7.039
13384SOL    HW142049  11.877   8.701   6.944
13384SOL    HW242050  11.942   8.740   7.075
13385SOL     OW42051  12.552   1.769  12.357
13385SOL    HW142052  12.524   1.688  12.315
13385SOL    HW242053  12.491   1.781  12.430
13386SOL     OW42054  11.082   9.083   8.169
13386SOL    HW142055  11.158   9.045   8.213
13386SOL    HW242056  11.119   9.129   8.093
13387SOL     OW42057   4.537   3.793  13.702
13387SOL    HW142058   4.499   3.872  13.739
13387SOL    HW242059   4.609   3.771  13.762
13388SOL     OW42060  13.752   2.327  10.616
13388SOL    HW142061  13.678   2.387  10.624
13388SOL    HW242062  13.760   2.312  10.522
13389SOL     OW42063  11.005   2.070   6.394
13389SOL    HW142064  11.053   2.100   6.471
13389SOL    HW242065  10.989   2.149   6.343
13390SOL     OW42066   4.318   8.839   6.475
13390SOL    HW142067   4.321   8.748   6.507
13390SOL    HW242068   4.404   8.852   6.433
13391SOL     OW42069   5.199   9.423   7.458
13391SOL    HW142070   5.184   9.337   7.498
13391SOL    HW242071   5.200   9.406   7.364
13392SOL     OW42072   0.730   0.674   8.244
13392SOL    HW142073   0.803   0.714   8.292
13392SOL    HW242074   0.680   0.628   8.311
13393SOL     OW42075  10.828  11.883   6.973
13393SOL    HW142076  10.804  11.974   6.990
13393SOL    HW242077  10.869  11.886   6.886
13394SOL     OW42078   4.425   9.147  14.516
13394SOL    HW142079   4.379   9.139  14.433
13394SOL    HW242080   4.437   9.242  14.528
13395SOL     OW42081   6.150  12.037   1.660
13395SOL    HW142082   6.065  12.010   1.626
13395SOL    HW242083   6.204  11.957   1.658
13396SOL     OW42084  13.570   6.811   8.113
13396SOL    HW142085  13.592   6.805   8.020
13396SOL    HW242086  13.568   6.720   8.143
13397SOL     OW42087   5.264  13.042  11.352
13397SOL    HW142088   5.212  13.010  11.279
13397SOL    HW242089   5.330  12.974  11.366
13398SOL     OW42090  11.744   8.218   3.496
13398SOL    HW142091  11.696   8.136   3.483
13398SOL    HW242092  11.762   8.221   3.590
13399SOL     OW42093   1.635   9.091   4.691
13399SOL    HW142094   1.717   9.089   4.641
13399SOL    HW242095   1.660   9.059   4.778
13400SOL     OW42096  10.083  10.290  13.891
13400SOL    HW142097  10.007  10.346  13.910
13400SOL    HW242098  10.072  10.268  13.798
13401SOL     OW42099   8.888   2.525   3.920
13401SOL    HW142100   8.965   2.470   3.906
13401SOL    HW242101   8.883   2.538   4.014
13402SOL     OW42102   5.549  10.998  14.561
13402SOL    HW142103   5.522  11.008  14.469
13402SOL    HW242104   5.640  11.029  14.562
13403SOL     OW42105  10.552   3.114   0.924
13403SOL    HW142106  10.484   3.159   0.874
13403SOL    HW242107  10.533   3.021   0.912
13404SOL     OW42108   2.577   4.970   3.664
13404SOL    HW142109   2.659   5.021   3.664
13404SOL    HW242110   2.510   5.035   3.685
13405SOL     OW42111   8.647  12.743  11.682
13405SOL    HW142112   8.625  12.678  11.615
13405SOL    HW242113   8.605  12.823  11.652
13406SOL     OW42114  11.755   7.218   4.295
13406SOL    HW142115  11.697   7.148   4.266
13406SOL    HW242116  11.843   7.186   4.276
13407SOL     OW42117  10.750  10.765   4.556
13407SOL    HW142118  10.789  10.822   4.622
13407SOL    HW242119  10.820  10.751   4.493
13408SOL     OW42120   6.202   8.634   5.531
13408SOL    HW142121   6.156   8.550   5.541
13408SOL    HW242122   6.143   8.687   5.476
13409SOL     OW42123  10.962  12.177  10.139
13409SOL    HW142124  11.005  12.133  10.213
13409SOL    HW242125  10.999  12.135  10.061
13410SOL     OW42126   7.342  13.437   7.920
13410SOL    HW142127   7.266  13.462   7.868
13410SOL    HW242128   7.346  13.342   7.913
13411SOL     OW42129   5.612  14.194   4.133
13411SOL    HW142130   5.615  14.285   4.162
13411SOL    HW242131   5.704  14.170   4.119
13412SOL     OW42132   6.506   3.117  10.953
13412SOL    HW142133   6.550   3.180  10.894
13412SOL    HW242134   6.476   3.171  11.026
13413SOL     OW42135   4.200  12.458   7.795
13413SOL    HW142136   4.131  12.425   7.739
13413SOL    HW242137   4.188  12.412   7.879
13414SOL     OW42138   5.725   8.699  14.210
13414SOL    HW142139   5.749   8.790  14.193
13414SOL    HW242140   5.652   8.705  14.272
13415SOL     OW42141  14.599  14.809  14.613
13415SOL    HW142142  14.530  14.810  14.547
13415SOL    HW242143  14.676  14.842  14.566
13416SOL     OW42144   6.018   8.789  10.721
13416SOL    HW142145   6.048   8.790  10.812
13416SOL    HW242146   6.055   8.869  10.683
13417SOL     OW42147  13.727   9.646  12.448
13417SOL    HW142148  13.722   9.737  12.418
13417SOL    HW242149  13.662   9.640  12.518
13418SOL     OW42150  10.266   1.011   7.592
13418SOL    HW142151  10.212   0.937   7.620
13418SOL    HW242152  10.235   1.085   7.646
13419SOL     OW42153   1.878  13.432  11.140
13419SOL    HW142154   1.914  13.397  11.222
13419SOL    HW242155   1.792  13.466  11.164
13420SOL     OW42156   3.452  10.438   2.678
13420SOL    HW142157   3.380  10.375   2.670
13420SOL    HW242158   3.426  10.494   2.752
13421SOL     OW42159  13.864  10.043   4.332
13421SOL    HW142160  13.822  10.123   4.363
13421SOL    HW242161  13.950  10.071   4.301
13422SOL     OW42162   2.466  13.638   8.162
13422SOL    HW142163   2.422  13.651   8.246
13422SOL    HW242164   2.423  13.700   8.103
13423SOL     OW42165   6.467  10.991   5.312
13423SOL    HW142166   6.519  11.065   5.346
13423SOL    HW242167   6.380  11.004   5.349
13424SOL     OW42168   1.168   2.053   9.195
13424SOL    HW142169   1.135   2.131   9.149
13424SOL    HW242170   1.202   1.997   9.125
13425SOL     OW42171  14.121  10.050  11.287
13425SOL    HW142172  14.045  10.028  11.340
13425SOL    HW242173  14.109  10.142  11.264
13426SOL     OW42174  12.610   9.787  11.498
13426SOL    HW142175  12.523   9.826  11.497
13426SOL    HW242176  12.666   9.854  11.459
13427SOL     OW42177   1.928   7.633   5.970
13427SOL    HW142178   1.957   7.682   5.893
13427SOL    HW242179   1.874   7.563   5.935
13428SOL     OW42180   7.789  13.783   1.963
13428SOL    HW142181   7.841  13.742   2.032
13428SOL    HW242182   7.851  13.838   1.916
13429SOL     OW42183  12.243   1.361   5.305
13429SOL    HW142184  12.224   1.433   5.244
13429SOL    HW242185  12.303   1.305   5.257
13430SOL     OW42186  13.475   9.685   5.258
13430SOL    HW142187  13.462   9.738   5.336
13430SOL    HW242188  13.499   9.599   5.291
13431SOL     OW42189   1.273   0.930   7.130
13431SOL    HW142190   1.278   1.018   7.092
13431SOL    HW242191   1.361   0.894   7.120
13432SOL     OW42192   4.150  11.339   5.267
13432SOL    HW142193   4.108  11.261   5.305
13432SOL    HW242194   4.096  11.412   5.297
13433SOL     OW42195  11.861   4.356   3.879
13433SOL    HW142196  11.821   4.435   3.915
13433SOL    HW242197  11.787   4.304   3.848
13434SOL     OW42198  11.957  10.906  13.313
13434SOL    HW142199  12.005  10.955  13.380
13434SOL    HW242200  11.901  10.846  13.362
13435SOL     OW42201   3.083   3.951   6.003
13435SOL    HW142202   3.052   3.866   6.033
13435SOL    HW242203   3.005   4.008   6.007
13436SOL     OW42204   8.255   7.380  12.475
13436SOL    HW142205   8.175   7.336  12.502
13436SOL    HW242206   8.314   7.310  12.450
13437SOL     OW42207   0.194   7.131   2.774
13437SOL    HW142208   0.255   7.205   2.777
13437SOL    HW242209   0.206   7.095   2.686
13438SOL     OW42210   2.073   2.125   4.352
13438SOL    HW142211   1.984   2.142   4.322
13438SOL    HW242212   2.108   2.061   4.290
13439SOL     OW42213   9.240  12.603  13.845
13439SOL    HW142214   9.222  12.623  13.937
13439SOL    HW242215   9.284  12.518  13.848
13440SOL     OW42216   5.038   7.251  12.159
13440SOL    HW142217   5.086   7.333  12.149
13440SOL    HW242218   5.064   7.198  12.084
13441SOL     OW42219   8.196   9.120   7.718
13441SOL    HW142220   8.154   9.115   7.632
13441SOL    HW242221   8.199   9.030   7.749
13442SOL     OW42222   8.584   8.198   9.436
13442SOL    HW142223   8.532   8.272   9.406
13442SOL    HW242224   8.524   8.147   9.490
13443SOL     OW42225  12.257  11.055   4.097
13443SOL    HW142226  12.187  11.119   4.082
13443SOL    HW242227  12.297  11.083   4.179
13444SOL     OW42228  14.785  10.996   6.642
13444SOL    HW142229  14.773  11.090   6.632
13444SOL    HW242230  14.697  10.959   6.630
13445SOL     OW42231  10.873   6.313   4.091
13445SOL    HW142232  10.797   6.352   4.134
13445SOL    HW242233  10.838   6.277   4.010
13446SOL     OW42234   5.639   9.954   0.355
13446SOL    HW142235   5.648   9.913   0.269
13446SOL    HW242236   5.673  10.042   0.343
13447SOL     OW42237  12.432   2.121   0.471
13447SOL    HW142238  12.388   2.079   0.397
13447SOL    HW242239  12.374   2.105   0.545
13448SOL     OW42240  13.357   8.567   7.972
13448SOL    HW142241  13.356   8.622   7.894
13448SOL    HW242242  13.430   8.507   7.958
13449SOL     OW42243  14.543  11.268   6.331
13449SOL    HW142244  14.612  11.243   6.270
13449SOL    HW242245  14.577  11.345   6.377
13450SOL     OW42246  11.887  13.650   9.041
13450SOL    HW142247  11.931  13.672   8.960
13450SOL    HW242248  11.954  13.658   9.108
13451SOL     OW42249   3.524  13.854   1.324
13451SOL    HW142250   3.533  13.883   1.234
13451SOL    HW242251   3.543  13.932   1.376
13452SOL     OW42252  13.196   0.268  12.338
13452SOL    HW142253  13.163   0.334  12.276
13452SOL    HW242254  13.288   0.256  12.312
13453SOL     OW42255   3.578   8.659   1.211
13453SOL    HW142256   3.492   8.622   1.231
13453SOL    HW242257   3.621   8.591   1.159
13454SOL     OW42258  11.325   8.363   3.282
13454SOL    HW142259  11.371   8.288   3.245
13454SOL    HW242260  11.234   8.352   3.255
13455SOL     OW42261   7.688  14.803  14.583
13455SOL    HW142262   7.661  14.803  14.675
13455SOL    HW242263   7.606  14.796  14.534
13456SOL     OW42264   5.339   2.826   4.036
13456SOL    HW142265   5.431   2.809   4.055
13456SOL    HW242266   5.320   2.908   4.082
13457SOL     OW42267   4.735   5.994   1.479
13457SOL    HW142268   4.640   5.991   1.473
13457SOL    HW242269   4.755   6.087   1.489
13458SOL     OW42270   4.182  14.858  11.981
13458SOL    HW142271   4.254  14.796  11.969
13458SOL    HW242272   4.224   0.074  11.975
13459SOL     OW42273   3.637  12.790  10.655
13459SOL    HW142274   3.583  12.778  10.733
13459SOL    HW242275   3.576  12.822  10.589
13460SOL     OW42276   7.029   4.386   5.391
13460SOL    HW142277   6.964   4.325   5.356
13460SOL    HW242278   7.072   4.337   5.461
13461SOL     OW42279   7.515   5.273   9.873
13461SOL    HW142280   7.511   5.331   9.949
13461SOL    HW242281   7.556   5.193   9.905
13462SOL     OW42282   3.855   3.976  12.664
13462SOL    HW142283   3.821   3.927  12.588
13462SOL    HW242284   3.785   3.972  12.728
13463SOL     OW42285   0.436   7.799  10.991
13463SOL    HW142286   0.432   7.836  11.079
13463SOL    HW242287   0.376   7.725  10.993
13464SOL     OW42288   6.610   8.785  11.078
13464SOL    HW142289   6.573   8.825  10.999
13464SOL    HW242290   6.569   8.698  11.082
13465SOL     OW42291  14.332   7.419  13.835
13465SOL    HW142292  14.415   7.399  13.791
13465SOL    HW242293  14.321   7.348  13.898
13466SOL     OW42294   0.756   6.460   8.793
13466SOL    HW142295   0.817   6.466   8.720
13466SOL    HW242296   0.811   6.467   8.871
13467SOL     OW42297   6.438   5.325   6.159
13467SOL    HW142298   6.492   5.277   6.096
13467SOL    HW242299   6.350   5.325   6.120
13468SOL     OW42300  11.651  13.486   9.805
13468SOL    HW142301  11.571  13.538   9.819
13468SOL    HW242302  11.621  13.410   9.755
13469SOL     OW42303  12.552  13.586   5.349
13469SOL    HW142304  12.538  13.644   5.275
13469SOL    HW242305  12.619  13.524   5.320
13470SOL     OW42306  10.932   2.068   7.209
13470SOL    HW142307  10.870   2.003   7.177
13470SOL    HW242308  10.880   2.126   7.264
13471SOL     OW42309   9.636   1.972   1.340
13471SOL    HW142310   9.686   1.980   1.422
13471SOL    HW242311   9.688   2.020   1.276
13472SOL     OW42312   8.656   2.161   4.168
13472SOL    HW142313   8.682   2.213   4.244
13472SOL    HW242314   8.691   2.074   4.186
13473SOL     OW42315  14.337  12.509   8.852
13473SOL    HW142316  14.265  12.456   8.820
13473SOL    HW242317  14.403  12.505   8.783
13474SOL     OW42318   3.532   6.506   0.629
13474SOL    HW142319   3.495   6.447   0.563
13474SOL    HW242320   3.547   6.451   0.705
13475SOL     OW42321   6.642  12.218   1.129
13475SOL    HW142322   6.601  12.236   1.044
13475SOL    HW242323   6.575  12.172   1.179
13476SOL     OW42324   6.017   6.985   5.134
13476SOL    HW142325   6.066   6.980   5.052
13476SOL    HW242326   6.077   6.950   5.200
13477SOL     OW42327   5.906   2.285   0.847
13477SOL    HW142328   5.840   2.216   0.837
13477SOL    HW242329   5.880   2.353   0.785
13478SOL     OW42330   1.681  14.850   2.349
13478SOL    HW142331   1.652  14.813   2.265
13478SOL    HW242332   1.763   0.026   2.328
13479SOL     OW42333   8.436   4.424   9.942
13479SOL    HW142334   8.359   4.481   9.947
13479SOL    HW242335   8.430   4.384   9.855
13480SOL     OW42336  11.061   2.920   9.510
13480SOL    HW142337  11.060   3.007   9.471
13480SOL    HW242338  11.149   2.887   9.493
13481SOL     OW42339   6.676   7.495  12.088
13481SOL    HW142340   6.690   7.400  12.096
13481SOL    HW242341   6.690   7.513  11.995
13482SOL     OW42342  13.283  13.110   4.234
13482SOL    HW142343  13.359  13.107   4.176
13482SOL    HW242344  13.277  13.022   4.270
13483SOL     OW42345   2.484   5.041   6.569
13483SOL    HW142346   2.477   4.994   6.652
13483SOL    HW242347   2.508   4.972   6.506
13484SOL     OW42348  13.825  11.241  14.751
13484SOL    HW142349  13.742  11.193  14.747
13484SOL    HW242350  13.849  11.255  14.659
13485SOL     OW42351  14.027  10.215   1.762
13485SOL    HW142352  14.110  10.172   1.744
13485SOL    HW242353  14.048  10.308   1.770
13486SOL     OW42354   4.741  10.221  11.611
13486SOL    HW142355   4.761  10.309  11.644
13486SOL    HW242356   4.662  10.195  11.658
13487SOL     OW42357   8.907  11.277   9.766
13487SOL    HW142358   8.946  11.210   9.710
13487SOL    HW242359   8.815  11.281   9.739
13488SOL     OW42360   2.658  13.609  13.302
13488SOL    HW142361   2.711  13.674  13.257
13488SOL    HW242362   2.577  13.603  13.250
13489SOL     OW42363  14.650  14.510  11.372
13489SOL    HW142364  14.680  14.436  11.319
13489SOL    HW242365  14.567  14.537  11.331
13490SOL     OW42366   7.278  11.688   1.141
13490SOL    HW142367   7.354  11.630   1.129
13490SOL    HW242368   7.203  11.629   1.136
13491SOL     OW42369   8.424   6.079  10.332
13491SOL    HW142370   8.449   5.987  10.326
13491SOL    HW242371   8.416   6.108  10.241
13492SOL     OW42372  12.555  11.981   1.511
13492SOL    HW142373  12.468  11.945   1.493
13492SOL    HW242374  12.596  11.915   1.567
13493SOL     OW42375   8.813  10.976   4.695
13493SOL    HW142376   8.788  10.920   4.768
13493SOL    HW242377   8.732  11.021   4.669
13494SOL     OW42378   7.218  13.053   2.719
13494SOL    HW142379   7.293  13.042   2.777
13494SOL    HW242380   7.155  13.102   2.771
13495SOL     OW42381   1.902   6.386   9.576
13495SOL    HW142382   1.998   6.382   9.585
13495SOL    HW242383   1.872   6.302   9.609
13496SOL     OW42384   8.594   3.623   4.293
13496SOL    HW142385   8.602   3.669   4.210
13496SOL    HW242386   8.564   3.535   4.269
13497SOL     OW42387  10.982   7.849  13.706
13497SOL    HW142388  11.065   7.801  13.716
13497SOL    HW242389  10.943   7.813  13.626
13498SOL     OW42390   7.539   5.994  14.378
13498SOL    HW142391   7.609   6.048  14.341
13498SOL    HW242392   7.479   5.980  14.304
13499SOL     OW42393   4.716   8.013   4.693
13499SOL    HW142394   4.660   8.081   4.730
13499SOL    HW242395   4.670   7.986   4.613
13500SOL     OW42396   0.002   1.572   4.145
13500SOL    HW142397   0.088   1.604   4.174
13500SOL    HW242398  14.809   1.621   4.199
13501SOL     OW42399  11.822   3.396  14.813
13501SOL    HW142400  11.828   3.335   0.018
13501SOL    HW242401  11.767   3.467  14.844
13502SOL     OW42402   9.265   7.847   8.013
13502SOL    HW142403   9.240   7.776   7.953
13502SOL    HW242404   9.182   7.875   8.052
13503SOL     OW42405  14.392   5.706   2.099
13503SOL    HW142406  14.439   5.781   2.136
13503SOL    HW242407  14.384   5.645   2.172
13504SOL     OW42408   2.638   9.493  11.485
13504SOL    HW142409   2.582   9.513  11.410
13504SOL    HW242410   2.723   9.532  11.463
13505SOL     OW42411   7.324   5.284   3.201
13505SOL    HW142412   7.290   5.274   3.290
13505SOL    HW242413   7.413   5.316   3.212
13506SOL     OW42414  13.122   0.366  10.375
13506SOL    HW142415  13.196   0.414  10.411
13506SOL    HW242416  13.151   0.336  10.289
13507SOL     OW42417   6.646  12.986   6.321
13507SOL    HW142418   6.602  13.039   6.387
13507SOL    HW242419   6.737  13.015   6.322
13508SOL     OW42420   9.763   6.977   8.084
13508SOL    HW142421   9.723   6.937   8.161
13508SOL    HW242422   9.783   7.066   8.111
13509SOL     OW42423   9.205   5.282   0.791
13509SOL    HW142424   9.211   5.276   0.887
13509SOL    HW242425   9.282   5.235   0.759
13510SOL     OW42426   3.105   6.965   8.445
13510SOL    HW142427   3.013   6.987   8.454
13510SOL    HW242428   3.106   6.875   8.413
13511SOL     OW42429   2.044  12.575   8.735
13511SOL    HW142430   2.077  12.613   8.654
13511SOL    HW242431   2.114  12.519   8.767
13512SOL     OW42432  13.262   9.124   5.179
13512SOL    HW142433  13.307   9.208   5.171
13512SOL    HW242434  13.170   9.144   5.157
13513SOL     OW42435   4.429   9.930  11.538
13513SOL    HW142436   4.476   9.860  11.493
13513SOL    HW242437   4.378   9.973  11.469
13514SOL     OW42438   6.187   7.484   8.700
13514SOL    HW142439   6.200   7.569   8.741
13514SOL    HW242440   6.132   7.502   8.624
13515SOL     OW42441  12.788  14.131   2.701
13515SOL    HW142442  12.825  14.183   2.629
13515SOL    HW242443  12.793  14.188   2.777
13516SOL     OW42444   9.204   6.495  13.592
13516SOL    HW142445   9.253   6.417  13.567
13516SOL    HW242446   9.209   6.553  13.516
13517SOL     OW42447   2.863  12.968   8.996
13517SOL    HW142448   2.792  13.014   9.040
13517SOL    HW242449   2.860  12.999   8.905
13518SOL     OW42450   5.171  13.290  10.264
13518SOL    HW142451   5.238  13.235  10.305
13518SOL    HW242452   5.220  13.345  10.202
13519SOL     OW42453   5.254   4.562   2.740
13519SOL    HW142454   5.206   4.610   2.807
13519SOL    HW242455   5.198   4.488   2.718
13520SOL     OW42456  11.676   2.470  13.598
13520SOL    HW142457  11.749   2.454  13.538
13520SOL    HW242458  11.614   2.522  13.546
13521SOL     OW42459   4.585   5.272   3.268
13521SOL    HW142460   4.552   5.231   3.348
13521SOL    HW242461   4.510   5.273   3.208
13522SOL     OW42462   8.672   3.938  13.967
13522SOL    HW142463   8.637   3.960  14.053
13522SOL    HW242464   8.730   3.863  13.983
13523SOL     OW42465   6.748   5.516   2.000
13523SOL    HW142466   6.696   5.590   2.034
13523SOL    HW242467   6.831   5.522   2.047
13524SOL     OW42468  13.319   4.124   3.739
13524SOL    HW142469  13.232   4.098   3.707
13524SOL    HW242470  13.303   4.203   3.790
13525SOL     OW42471  12.655  12.385  11.833
13525SOL    HW142472  12.624  12.354  11.748
13525SOL    HW242473  12.634  12.314  11.894
13526SOL     OW42474   8.628  10.302   1.388
13526SOL    HW142475   8.598  10.383   1.348
13526SOL    HW242476   8.709  10.280   1.341
13527SOL     OW42477   9.519   1.709   1.423
13527SOL    HW142478   9.491   1.788   1.470
13527SOL    HW242479   9.561   1.742   1.344
13528SOL     OW42480  13.107   2.692   2.591
13528SOL    HW142481  13.063   2.666   2.510
13528SOL    HW242482  13.198   2.665   2.578
13529SOL     OW42483   3.256   8.444   1.809
13529SOL    HW142484   3.275   8.512   1.743
13529SOL    HW242485   3.278   8.362   1.765
13530SOL     OW42486  12.638   2.744  10.710
13530SOL    HW142487  12.716   2.761  10.657
13530SOL    HW242488  12.571   2.801  10.673
13531SOL     OW42489  11.030   9.431   4.817
13531SOL    HW142490  11.040   9.336   4.824
13531SOL    HW242491  10.988   9.457   4.899
13532SOL     OW42492   4.716  10.269   2.923
13532SOL    HW142493   4.802  10.295   2.892
13532SOL    HW242494   4.666  10.251   2.844
13533SOL     OW42495   1.775  13.700   5.256
13533SOL    HW142496   1.701  13.678   5.313
13533SOL    HW242497   1.808  13.783   5.291
13534SOL     OW42498   0.212  11.104   9.136
13534SOL    HW142499   0.188  11.182   9.186
13534SOL    HW242500   0.268  11.054   9.195
13535SOL     OW42501   0.388   6.107  13.292
13535SOL    HW142502   0.380   6.157  13.211
13535SOL    HW242503   0.300   6.109  13.330
13536SOL     OW42504  13.153   6.800   6.745
13536SOL    HW142505  13.218   6.736   6.715
13536SOL    HW242506  13.099   6.752   6.808
13537SOL     OW42507   6.884   1.843   1.961
13537SOL    HW142508   6.942   1.859   2.036
13537SOL    HW242509   6.796   1.836   2.000
13538SOL     OW42510   5.223  13.216   0.894
13538SOL    HW142511   5.243  13.203   0.986
13538SOL    HW242512   5.297  13.178   0.847
13539SOL     OW42513   7.569  10.465   3.511
13539SOL    HW142514   7.538  10.384   3.550
13539SOL    HW242515   7.492  10.521   3.505
13540SOL     OW42516  11.182   7.659  10.280
13540SOL    HW142517  11.222   7.588  10.231
13540SOL    HW242518  11.129   7.616  10.347
13541SOL     OW42519   1.582   9.267  12.041
13541SOL    HW142520   1.658   9.287  12.097
13541SOL    HW242521   1.605   9.185  11.998
13542SOL     OW42522   4.503   5.575  13.801
13542SOL    HW142523   4.576   5.566  13.862
13542SOL    HW242524   4.516   5.661  13.761
13543SOL     OW42525   7.958  10.121   1.468
13543SOL    HW142526   7.974  10.164   1.384
13543SOL    HW242527   8.000  10.035   1.459
13544SOL     OW42528   9.301  10.586  10.349
13544SOL    HW142529   9.382  10.622  10.385
13544SOL    HW242530   9.290  10.631  10.266
13545SOL     OW42531  10.997   8.229   5.482
13545SOL    HW142532  10.968   8.231   5.391
13545SOL    HW242533  11.038   8.315   5.496
13546SOL     OW42534   5.194  13.943   2.510
13546SOL    HW142535   5.150  13.896   2.581
13546SOL    HW242536   5.184  13.886   2.434
13547SOL     OW42537   2.651  11.881   9.550
13547SOL    HW142538   2.595  11.839   9.486
13547SOL    HW242539   2.625  11.844   9.634
13548SOL     OW42540   1.811  12.319   6.534
13548SOL    HW142541   1.871  12.259   6.490
13548SOL    HW242542   1.864  12.396   6.554
13549SOL     OW42543   4.847   1.956   2.610
13549SOL    HW142544   4.760   1.928   2.581
13549SOL    HW242545   4.862   1.907   2.691
13550SOL     OW42546   2.914   8.924  11.560
13550SOL    HW142547   2.947   9.014  11.564
13550SOL    HW242548   2.964   8.883  11.490
13551SOL     OW42549   1.644   8.312   9.125
13551SOL    HW142550   1.590   8.266   9.060
13551SOL    HW242551   1.586   8.322   9.200
13552SOL     OW42552   4.533   6.190  10.646
13552SOL    HW142553   4.451   6.196  10.598
13552SOL    HW242554   4.543   6.097  10.666
13553SOL     OW42555   8.634  12.992  14.695
13553SOL    HW142556   8.675  13.078  14.696
13553SOL    HW242557   8.627  12.970  14.602
13554SOL     OW42558   0.289  13.068  13.531
13554SOL    HW142559   0.318  13.148  13.574
13554SOL    HW242560   0.198  13.057  13.560
13555SOL     OW42561   4.087   5.614   6.319
13555SOL    HW142562   4.086   5.547   6.251
13555SOL    HW242563   4.097   5.696   6.271
13556SOL     OW42564   5.040  13.734  11.529
13556SOL    HW142565   5.070  13.643  11.525
13556SOL    HW242566   4.946  13.727  11.541
13557SOL     OW42567  13.070   7.131   9.185
13557SOL    HW142568  13.098   7.040   9.176
13557SOL    HW242569  13.077   7.149   9.278
13558SOL     OW42570  11.368  11.774   1.857
13558SOL    HW142571  11.408  11.816   1.933
13558SOL    HW242572  11.309  11.708   1.894
13559SOL     OW42573   4.474   5.393  13.085
13559SOL    HW142574   4.389   5.391  13.040
13559SOL    HW242575   4.452   5.378  13.177
13560SOL     OW42576   2.904   0.727   2.085
13560SOL    HW142577   2.924   0.798   2.147
13560SOL    HW242578   2.857   0.770   2.014
13561SOL     OW42579  12.661  13.347   2.323
13561SOL    HW142580  12.612  13.411   2.375
13561SOL    HW242581  12.652  13.378   2.233
13562SOL     OW42582   1.099  10.238  13.561
13562SOL    HW142583   1.167  10.179  13.527
13562SOL    HW242584   1.049  10.265  13.484
13563SOL     OW42585   8.651   1.453   1.602
13563SOL    HW142586   8.715   1.515   1.638
13563SOL    HW242587   8.684   1.433   1.514
13564SOL     OW42588   4.195  12.473  12.448
13564SOL    HW142589   4.170  12.560  12.478
13564SOL    HW242590   4.148  12.413  12.506
13565SOL     OW42591   1.961   6.863  12.740
13565SOL    HW142592   1.868   6.885  12.738
13565SOL    HW242593   1.993   6.898  12.823
13566SOL     OW42594  12.594   7.944  10.290
13566SOL    HW142595  12.624   8.029  10.258
13566SOL    HW242596  12.671   7.888  10.286
13567SOL     OW42597   6.435  13.880   7.673
13567SOL    HW142598   6.495  13.938   7.627
13567SOL    HW242599   6.480  13.858   7.755
13568SOL     OW42600   2.931   5.923  10.204
13568SOL    HW142601   2.941   5.951  10.113
13568SOL    HW242602   3.017   5.936  10.243
13569SOL     OW42603   5.122   9.858   5.077
13569SOL    HW142604   5.091   9.928   5.020
13569SOL    HW242605   5.216   9.870   5.083
13570SOL     OW42606  14.509   9.005   7.333
13570SOL    HW142607  14.495   9.085   7.384
13570SOL    HW242608  14.421   8.974   7.312
13571SOL     OW42609   9.851   8.465   4.756
13571SOL    HW142610   9.824   8.383   4.798
13571SOL    HW242611   9.771   8.500   4.716
13572SOL     OW42612   4.581   6.662   3.187
13572SOL    HW142613   4.583   6.700   3.099
13572SOL    HW242614   4.492   6.679   3.218
13573SOL     OW42615   2.202   7.111   7.190
13573SOL    HW142616   2.130   7.142   7.246
13573SOL    HW242617   2.204   7.017   7.206
13574SOL     OW42618   4.376   2.480   0.486
13574SOL    HW142619   4.354   2.546   0.419
13574SOL    HW242620   4.459   2.443   0.455
13575SOL     OW42621   4.679   9.952   8.327
13575SOL    HW142622   4.607   9.987   8.274
13575SOL    HW242623   4.636   9.913   8.403
13576SOL     OW42624   3.866   5.958  14.612
13576SOL    HW142625   3.826   5.951  14.699
13576SOL    HW242626   3.944   5.904  14.617
13577SOL     OW42627  10.005  10.923   5.472
13577SOL    HW142628   9.982  10.916   5.565
13577SOL    HW242629   9.965  11.005   5.443
13578SOL     OW42630  13.569   8.149   1.212
13578SOL    HW142631  13.637   8.107   1.266
13578SOL    HW242632  13.490   8.098   1.229
13579SOL     OW42633  10.774   3.770  10.210
13579SOL    HW142634  10.700   3.829  10.194
13579SOL    HW242635  10.784   3.721  10.128
13580SOL     OW42636  10.010   3.621   8.939
13580SOL    HW142637   9.924   3.620   8.898
13580SOL    HW242638  10.016   3.707   8.981
13581SOL     OW42639   1.075  14.489   4.750
13581SOL    HW142640   1.090  14.416   4.689
13581SOL    HW242641   0.990  14.524   4.723
13582SOL     OW42642  10.098   7.529   6.180
13582SOL    HW142643  10.160   7.488   6.120
13582SOL    HW242644  10.131   7.507   6.267
13583SOL     OW42645   6.245   6.399  11.884
13583SOL    HW142646   6.264   6.308  11.907
13583SOL    HW242647   6.329   6.434  11.854
13584SOL     OW42648   2.730  10.833   9.166
13584SOL    HW142649   2.653  10.845   9.220
13584SOL    HW242650   2.749  10.739   9.172
13585SOL     OW42651  13.824   0.418   5.455
13585SOL    HW142652  13.804   0.351   5.390
13585SOL    HW242653  13.854   0.369   5.531
13586SOL     OW42654  10.510  11.466   1.570
13586SOL    HW142655  10.481  11.387   1.523
13586SOL    HW242656  10.594  11.441   1.609
13587SOL     OW42657   9.081  11.867   4.375
13587SOL    HW142658   9.125  11.845   4.293
13587SOL    HW242659   9.060  11.782   4.414
13588SOL     OW42660   2.520  12.321  14.218
13588SOL    HW142661   2.561  12.309  14.132
13588SOL    HW242662   2.435  12.361  14.198
13589SOL     OW42663   8.518   2.191  10.312
13589SOL    HW142664   8.510   2.276  10.356
13589SOL    HW242665   8.429   2.171  10.281
13590SOL     OW42666  10.244   6.989   5.366
13590SOL    HW142667  10.255   6.894   5.360
13590SOL    HW242668  10.183   7.011   5.296
13591SOL     OW42669  14.669   8.947   7.784
13591SOL    HW142670  14.760   8.937   7.813
13591SOL    HW242671  14.658   8.880   7.717
13592SOL     OW42672   4.462   9.031   8.023
13592SOL    HW142673   4.475   8.944   8.060
13592SOL    HW242674   4.376   9.058   8.057
13593SOL     OW42675   1.647   3.892   5.530
13593SOL    HW142676   1.704   3.835   5.479
13593SOL    HW242677   1.691   3.977   5.529
13594SOL     OW42678   0.209   4.100   4.235
13594SOL    HW142679   0.267   4.129   4.306
13594SOL    HW242680   0.121   4.117   4.268
13595SOL     OW42681   3.919  13.091  10.960
13595SOL    HW142682   3.945  13.009  10.918
13595SOL    HW242683   3.944  13.159  10.897
13596SOL     OW42684  14.828  13.740  13.323
13596SOL    HW142685  14.742  13.699  13.324
13596SOL    HW242686   0.007  13.697  13.394
13597SOL     OW42687   6.204  14.709  13.123
13597SOL    HW142688   6.133  14.751  13.172
13597SOL    HW242689   6.159  14.649  13.063
13598SOL     OW42690  14.421  12.703  13.512
13598SOL    HW142691  14.352  12.705  13.445
13598SOL    HW242692  14.386  12.647  13.581
13599SOL     OW42693   6.156   8.437   3.225
13599SOL    HW142694   6.245   8.471   3.232
13599SOL    HW242695   6.152   8.366   3.289
13600SOL     OW42696   8.749  14.039   8.820
13600SOL    HW142697   8.765  14.030   8.914
13600SOL    HW242698   8.803  13.971   8.780
13601SOL     OW42699  13.358   8.297  14.594
13601SOL    HW142700  13.409   8.360  14.542
13601SOL    HW242701  13.411   8.283  14.672
13602SOL     OW42702  14.347   1.556   0.982
13602SOL    HW142703  14.311   1.594   0.902
13602SOL    HW242704  14.317   1.465   0.980
13603SOL     OW42705  11.630   5.680  11.143
13603SOL    HW142706  11.601   5.611  11.084
13603SOL    HW242707  11.702   5.723  11.098
13604SOL     OW42708   3.978  11.390   8.098
13604SOL    HW142709   3.894  11.403   8.143
13604SOL    HW242710   3.974  11.451   8.025
13605SOL     OW42711   4.040   8.128   0.722
13605SOL    HW142712   4.104   8.097   0.786
13605SOL    HW242713   3.976   8.176   0.774
13606SOL     OW42714  11.757   4.589  10.186
13606SOL    HW142715  11.716   4.617  10.268
13606SOL    HW242716  11.686   4.591  10.122
13607SOL     OW42717   6.582  14.243  11.146
13607SOL    HW142718   6.584  14.207  11.057
13607SOL    HW242719   6.498  14.213  11.181
13608SOL     OW42720  13.500   3.922   5.525
13608SOL    HW142721  13.436   3.959   5.586
13608SOL    HW242722  13.468   3.833   5.509
13609SOL     OW42723   8.926   9.907  11.314
13609SOL    HW142724   8.923   9.834  11.252
13609SOL    HW242725   8.863   9.970  11.280
13610SOL     OW42726  11.968  14.440   8.742
13610SOL    HW142727  11.962  14.535   8.731
13610SOL    HW242728  12.061  14.421   8.741
13611SOL     OW42729   0.849  11.868  13.956
13611SOL    HW142730   0.862  11.836  14.046
13611SOL    HW242731   0.927  11.838  13.909
13612SOL     OW42732  13.607   6.728   7.375
13612SOL    HW142733  13.669   6.665   7.339
13612SOL    HW242734  13.577   6.689   7.457
13613SOL     OW42735   5.377   5.425  12.037
13613SOL    HW142736   5.438   5.352  12.031
13613SOL    HW242737   5.430   5.497  12.073
13614SOL     OW42738  13.268   1.442  12.624
13614SOL    HW142739  13.271   1.372  12.559
13614SOL    HW242740  13.196   1.416  12.683
13615SOL     OW42741  12.726   6.287   2.327
13615SOL    HW142742  12.655   6.224   2.338
13615SOL    HW242743  12.762   6.299   2.415
13616SOL     OW42744   6.309   5.873   3.041
13616SOL    HW142745   6.273   5.920   3.117
13616SOL    HW242746   6.305   5.780   3.066
13617SOL     OW42747  12.144   5.811   3.587
13617SOL    HW142748  12.116   5.888   3.536
13617SOL    HW242749  12.074   5.747   3.575
13618SOL     OW42750   8.433  12.513   0.534
13618SOL    HW142751   8.450  12.603   0.562
13618SOL    HW242752   8.389  12.521   0.450
13619SOL     OW42753   3.278  10.590   2.248
13619SOL    HW142754   3.318  10.561   2.166
13619SOL    HW242755   3.226  10.515   2.277
13620SOL     OW42756   3.733   3.568   6.827
13620SOL    HW142757   3.734   3.490   6.883
13620SOL    HW242758   3.646   3.566   6.786
13621SOL     OW42759   0.089   3.988   7.205
13621SOL    HW142760   0.184   3.977   7.202
13621SOL    HW242761   0.060   3.921   7.268
13622SOL     OW42762  14.852  10.396  14.650
13622SOL    HW142763  14.823  10.354  14.569
13622SOL    HW242764  14.850  10.326  14.715
13623SOL     OW42765  14.454  14.001  10.155
13623SOL    HW142766  14.420  13.913  10.171
13623SOL    HW242767  14.430  14.050  10.234
13624SOL     OW42768  12.009   8.037   0.496
13624SOL    HW142769  12.050   8.122   0.484
13624SOL    HW242770  12.070   7.975   0.454
13625SOL     OW42771   9.671   6.492  14.824
13625SOL    HW142772   9.607   6.521   0.020
13625SOL    HW242773   9.751   6.540  14.844
13626SOL     OW42774   5.421   4.971   6.066
13626SOL    HW142775   5.472   4.894   6.089
13626SOL    HW242776   5.329   4.943   6.074
13627SOL     OW42777   6.638   6.741  13.956
13627SOL    HW142778   6.649   6.819  14.011
13627SOL    HW242779   6.713   6.686  13.976
13628SOL     OW42780   9.528  13.155  14.632
13628SOL    HW142781   9.561  13.239  14.601
13628SOL    HW242782   9.602  13.095  14.622
13629SOL     OW42783   9.647  13.558   4.868
13629SOL    HW142784   9.701  13.636   4.880
13629SOL    HW242785   9.691  13.490   4.920
13630SOL     OW42786  10.711   0.145   1.699
13630SOL    HW142787  10.751   0.076   1.753
13630SOL    HW242788  10.764   0.223   1.717
13631SOL     OW42789   5.967   5.176   7.909
13631SOL    HW142790   6.058   5.155   7.891
13631SOL    HW242791   5.969   5.267   7.940
13632SOL     OW42792   2.808   8.992   1.039
13632SOL    HW142793   2.737   9.056   1.033
13632SOL    HW242794   2.877   9.027   0.983
13633SOL     OW42795  13.550   3.938   3.494
13633SOL    HW142796  13.573   3.903   3.408
13633SOL    HW242797  13.464   3.901   3.513
13634SOL     OW42798  10.082   6.888   4.432
13634SOL    HW142799  10.074   6.838   4.514
13634SOL    HW242800  10.174   6.915   4.428
13635SOL     OW42801   2.129  11.772   9.622
13635SOL    HW142802   2.219  11.745   9.604
13635SOL    HW242803   2.077  11.730   9.553
13636SOL     OW42804  11.234  11.977  14.770
13636SOL    HW142805  11.212  12.068  14.792
13636SOL    HW242806  11.328  11.979  14.751
13637SOL     OW42807   2.467  14.408  14.429
13637SOL    HW142808   2.471  14.421  14.523
13637SOL    HW242809   2.556  14.381  14.404
13638SOL     OW42810   2.535  11.897   7.427
13638SOL    HW142811   2.561  11.879   7.518
13638SOL    HW242812   2.460  11.840   7.412
13639SOL     OW42813   6.383  12.978  13.989
13639SOL    HW142814   6.452  12.929  13.943
13639SOL    HW242815   6.388  13.066  13.950
13640SOL     OW42816  12.843   8.637   9.262
13640SOL    HW142817  12.925   8.588   9.271
13640SOL    HW242818  12.796   8.593   9.191
13641SOL     OW42819  14.793  13.615   3.490
13641SOL    HW142820  14.795  13.528   3.531
13641SOL    HW242821  14.729  13.664   3.542
13642SOL     OW42822  13.919  10.786  13.654
13642SOL    HW142823  14.013  10.791  13.641
13642SOL    HW242824  13.902  10.841  13.731
13643SOL     OW42825   8.788  13.156   7.680
13643SOL    HW142826   8.757  13.179   7.593
13643SOL    HW242827   8.765  13.231   7.735
13644SOL     OW42828   5.693   2.216   1.568
13644SOL    HW142829   5.732   2.233   1.482
13644SOL    HW242830   5.672   2.123   1.567
13645SOL     OW42831  11.215   3.282   9.058
13645SOL    HW142832  11.171   3.267   8.975
13645SOL    HW242833  11.181   3.366   9.089
13646SOL     OW42834   0.474  14.365   2.165
13646SOL    HW142835   0.417  14.294   2.134
13646SOL    HW242836   0.415  14.438   2.182
13647SOL     OW42837   6.190   4.964  10.316
13647SOL    HW142838   6.150   5.024  10.253
13647SOL    HW242839   6.282   4.991  10.320
13648SOL     OW42840   0.864  13.949   4.459
13648SOL    HW142841   0.844  14.011   4.528
13648SOL    HW242842   0.913  14.000   4.394
13649SOL     OW42843   1.448  10.071   4.945
13649SOL    HW142844   1.355  10.048   4.939
13649SOL    HW242845   1.465  10.079   5.039
13650SOL     OW42846   4.297  10.047   0.124
13650SOL    HW142847   4.298  10.108   0.051
13650SOL    HW242848   4.260   9.966   0.088
13651SOL     OW42849  11.271   8.253   4.502
13651SOL    HW142850  11.317   8.227   4.582
13651SOL    HW242851  11.196   8.195   4.497
13652SOL     OW42852   8.522  10.500   0.715
13652SOL    HW142853   8.502  10.501   0.809
13652SOL    HW242854   8.465  10.432   0.679
13653SOL     OW42855  10.616  12.139   0.151
13653SOL    HW142856  10.688  12.113   0.094
13653SOL    HW242857  10.618  12.074   0.222
13654SOL     OW42858  12.251  14.273  13.340
13654SOL    HW142859  12.206  14.272  13.255
13654SOL    HW242860  12.219  14.352  13.383
13655SOL     OW42861   4.988   0.970  12.582
13655SOL    HW142862   4.950   1.057  12.577
13655SOL    HW242863   5.039   0.961  12.502
13656SOL     OW42864   6.873  12.718   4.719
13656SOL    HW142865   6.921  12.663   4.781
13656SOL    HW242866   6.920  12.706   4.636
13657SOL     OW42867   0.752   3.791   8.711
13657SOL    HW142868   0.820   3.853   8.685
13657SOL    HW242869   0.798   3.709   8.727
13658SOL     OW42870  13.662  14.193   2.703
13658SOL    HW142871  13.757  14.185   2.694
13658SOL    HW242872  13.629  14.104   2.694
13659SOL     OW42873   7.487  11.562   3.437
13659SOL    HW142874   7.565  11.591   3.486
13659SOL    HW242875   7.515  11.481   3.395
13660SOL     OW42876   7.734  13.624   1.472
13660SOL    HW142877   7.802  13.618   1.539
13660SOL    HW242878   7.754  13.703   1.423
13661SOL     OW42879   8.152   9.090  13.379
13661SOL    HW142880   8.150   9.002  13.417
13661SOL    HW242881   8.244   9.117  13.385
13662SOL     OW42882   9.954  13.236  11.732
13662SOL    HW142883   9.935  13.314  11.679
13662SOL    HW242884   9.961  13.270  11.821
13663SOL     OW42885   6.342  10.271   0.743
13663SOL    HW142886   6.370  10.362   0.756
13663SOL    HW242887   6.423  10.224   0.720
13664SOL     OW42888  11.591   5.076   6.813
13664SOL    HW142889  11.662   5.013   6.826
13664SOL    HW242890  11.632   5.161   6.825
13665SOL     OW42891   2.572   4.711   3.742
13665SOL    HW142892   2.590   4.803   3.721
13665SOL    HW242893   2.577   4.666   3.659
13666SOL     OW42894   4.703   1.834  11.157
13666SOL    HW142895   4.786   1.871  11.127
13666SOL    HW242896   4.659   1.806  11.077
13667SOL     OW42897   2.042   9.358  11.595
13667SOL    HW142898   1.992   9.291  11.641
13667SOL    HW242899   2.025   9.438  11.644
13668SOL     OW42900   8.527   2.233  12.494
13668SOL    HW142901   8.450   2.247  12.550
13668SOL    HW242902   8.492   2.192  12.415
13669SOL     OW42903   4.668  10.159   0.559
13669SOL    HW142904   4.606  10.139   0.489
13669SOL    HW242905   4.628  10.232   0.606
13670SOL     OW42906   2.482   0.537   7.237
13670SOL    HW142907   2.508   0.490   7.158
13670SOL    HW242908   2.540   0.504   7.305
13671SOL     OW42909   5.969   6.545   5.622
13671SOL    HW142910   6.044   6.589   5.581
13671SOL    HW242911   6.005   6.462   5.653
13672SOL     OW42912  14.359   8.932  10.528
13672SOL    HW142913  14.356   8.839  10.550
13672SOL    HW242914  14.323   8.977  10.604
13673SOL     OW42915  10.203   8.787  10.729
13673SOL    HW142916  10.241   8.710  10.687
13673SOL    HW242917  10.278   8.840  10.755
13674SOL     OW42918  12.688  11.356   3.996
13674SOL    HW142919  12.716  11.384   3.909
13674SOL    HW242920  12.602  11.397   4.008
13675SOL     OW42921  14.807   5.123  12.840
13675SOL    HW142922  14.838   5.157  12.756
13675SOL    HW242923  14.819   5.028  12.833
13676SOL     OW42924   3.990  11.294  10.847
13676SOL    HW142925   3.927  11.224  10.867
13676SOL    HW242926   4.074  11.250  10.842
13677SOL     OW42927   7.562   7.313  10.473
13677SOL    HW142928   7.560   7.217  10.473
13677SOL    HW242929   7.595   7.337  10.560
13678SOL     OW42930   4.511   6.564   6.740
13678SOL    HW142931   4.516   6.540   6.647
13678SOL    HW242932   4.601   6.588   6.763
13679SOL     OW42933   7.851   2.060   6.633
13679SOL    HW142934   7.856   2.131   6.569
13679SOL    HW242935   7.935   2.061   6.678
13680SOL     OW42936   8.264   7.855   8.724
13680SOL    HW142937   8.351   7.884   8.752
13680SOL    HW242938   8.266   7.760   8.734
13681SOL     OW42939   6.676   1.916   9.042
13681SOL    HW142940   6.708   1.935   9.130
13681SOL    HW242941   6.641   2.000   9.010
13682SOL     OW42942   4.963   9.825  14.069
13682SOL    HW142943   4.880   9.820  14.022
13682SOL    HW242944   4.950   9.894  14.134
13683SOL     OW42945   9.385   9.388   0.329
13683SOL    HW142946   9.328   9.465   0.340
13683SOL    HW242947   9.472   9.425   0.316
13684SOL     OW42948  12.373  12.882  11.991
13684SOL    HW142949  12.344  12.854  12.077
13684SOL    HW242950  12.425  12.809  11.958
13685SOL     OW42951   3.079   6.385   1.600
13685SOL    HW142952   3.140   6.342   1.541
13685SOL    HW242953   3.018   6.431   1.541
13686SOL     OW42954  10.165   1.529   5.279
13686SOL    HW142955  10.137   1.615   5.310
13686SOL    HW242956  10.102   1.468   5.318
13687SOL     OW42957   3.351   6.525  11.856
13687SOL    HW142958   3.428   6.568  11.819
13687SOL    HW242959   3.282   6.539  11.791
13688SOL     OW42960   1.199   9.872   8.171
13688SOL    HW142961   1.277   9.896   8.122
13688SOL    HW242962   1.232   9.838   8.255
13689SOL     OW42963   1.047   0.566   8.602
13689SOL    HW142964   1.105   0.506   8.647
13689SOL    HW242965   1.105   0.618   8.546
13690SOL     OW42966  14.671   3.046   9.714
13690SOL    HW142967  14.596   2.987   9.729
13690SOL    HW242968  14.633   3.134   9.713
13691SOL     OW42969   7.264   6.034   5.855
13691SOL    HW142970   7.206   6.101   5.818
13691SOL    HW242971   7.348   6.079   5.866
13692SOL     OW42972  11.852  14.623   6.688
13692SOL    HW142973  11.895  14.675   6.620
13692SOL    HW242974  11.915  14.621   6.760
13693SOL     OW42975   5.507   8.531   2.434
13693SOL    HW142976   5.552   8.555   2.516
13693SOL    HW242977   5.486   8.438   2.446
13694SOL     OW42978  13.253  13.067   1.950
13694SOL    HW142979  13.275  13.092   2.040
13694SOL    HW242980  13.164  13.031   1.956
13695SOL     OW42981   4.173   5.836   6.135
13695SOL    HW142982   4.217   5.921   6.129
13695SOL    HW242983   4.181   5.798   6.048
13696SOL     OW42984   7.801   5.313   5.422
13696SOL    HW142985   7.762   5.311   5.335
13696SOL    HW242986   7.745   5.257   5.475
13697SOL     OW42987  10.802  11.934   9.588
13697SOL    HW142988  10.830  11.905   9.676
13697SOL    HW242989  10.822  12.027   9.587
13698SOL     OW42990   0.438  12.838   7.041
13698SOL    HW142991   0.453  12.826   7.135
13698SOL    HW242992   0.435  12.933   7.029
13699SOL     OW42993   4.084   3.575   5.162
13699SOL    HW142994   4.134   3.501   5.196
13699SOL    HW242995   4.138   3.611   5.092
13700SOL     OW42996   8.523   3.732   9.134
13700SOL    HW142997   8.596   3.724   9.073
13700SOL    HW242998   8.490   3.642   9.143
13701SOL     OW42999  10.610  12.135   0.525
13701SOL    HW143000  10.652  12.201   0.470
13701SOL    HW243001  10.516  12.145   0.507
13702SOL     OW43002   4.469   9.334  12.754
13702SOL    HW143003   4.471   9.241  12.778
13702SOL    HW243004   4.471   9.381  12.837
13703SOL     OW43005   4.957   9.373   6.694
13703SOL    HW143006   5.038   9.340   6.655
13703SOL    HW243007   4.911   9.294   6.724
13704SOL     OW43008   4.950   2.956   4.364
13704SOL    HW143009   4.923   2.864   4.367
13704SOL    HW243010   4.921   2.986   4.278
13705SOL     OW43011  12.335   0.919  13.069
13705SOL    HW143012  12.373   0.834  13.091
13705SOL    HW243013  12.250   0.898  13.030
13706SOL     OW43014   8.035   2.541  11.968
13706SOL    HW143015   7.987   2.562  11.887
13706SOL    HW243016   8.030   2.446  11.975
13707SOL     OW43017   2.856   5.080   0.339
13707SOL    HW143018   2.845   5.171   0.366
13707SOL    HW243019   2.814   5.029   0.408
13708SOL     OW43020   4.474   2.065   8.729
13708SOL    HW143021   4.442   1.986   8.686
13708SOL    HW243022   4.569   2.054   8.732
13709SOL     OW43023   6.258  11.488   2.022
13709SOL    HW143024   6.290  11.488   2.112
13709SOL    HW243025   6.165  11.464   2.029
13710SOL     OW43026   4.403   9.020  14.230
13710SOL    HW143027   4.450   8.951  14.276
13710SOL    HW243028   4.438   9.017  14.140
13711SOL     OW43029   9.325   9.658   6.431
13711SOL    HW143030   9.249   9.683   6.484
13711SOL    HW243031   9.400   9.684   6.484
13712SOL     OW43032   4.260   2.730   7.285
13712SOL    HW143033   4.353   2.752   7.296
13712SOL    HW243034   4.216   2.782   7.353
13713SOL     OW43035   3.334   5.743  10.892
13713SOL    HW143036   3.312   5.670  10.949
13713SOL    HW243037   3.376   5.807  10.950
13714SOL     OW43038  10.779   4.895   5.156
13714SOL    HW143039  10.707   4.845   5.117
13714SOL    HW243040  10.857   4.861   5.112
13715SOL     OW43041   8.834   8.528   1.772
13715SOL    HW143042   8.774   8.490   1.837
13715SOL    HW243043   8.892   8.457   1.748
13716SOL     OW43044  12.698   5.664   0.138
13716SOL    HW143045  12.669   5.746   0.097
13716SOL    HW243046  12.674   5.674   0.231
13717SOL     OW43047  13.168   9.251   5.444
13717SOL    HW143048  13.244   9.204   5.477
13717SOL    HW243049  13.201   9.339   5.424
13718SOL     OW43050  12.128  12.477   6.086
13718SOL    HW143051  12.131  12.388   6.121
13718SOL    HW243052  12.192  12.525   6.138
13719SOL     OW43053   7.927   1.419   0.746
13719SOL    HW143054   7.890   1.416   0.658
13719SOL    HW243055   7.908   1.507   0.777
13720SOL     OW43056   6.410   9.210  14.660
13720SOL    HW143057   6.398   9.264  14.738
13720SOL    HW243058   6.349   9.246  14.595
13721SOL     OW43059  13.725   7.162  14.289
13721SOL    HW143060  13.667   7.234  14.263
13721SOL    HW243061  13.676   7.083  14.267
13722SOL     OW43062   6.108  10.367  10.063
13722SOL    HW143063   6.060  10.449  10.066
13722SOL    HW243064   6.114  10.347   9.969
13723SOL     OW43065   0.515  10.054   5.715
13723SOL    HW143066   0.457  10.129   5.707
13723SOL    HW243067   0.569  10.073   5.792
13724SOL     OW43068   7.802   1.933  12.881
13724SOL    HW143069   7.761   1.989  12.814
13724SOL    HW243070   7.807   1.989  12.959
13725SOL     OW43071  10.058  13.805   2.660
13725SOL    HW143072   9.986  13.777   2.716
13725SOL    HW243073  10.100  13.723   2.633
13726SOL     OW43074   7.134  14.699   2.035
13726SOL    HW143075   7.120  14.609   2.005
13726SOL    HW243076   7.056  14.746   2.007
13727SOL     OW43077   8.404   2.478   3.845
13727SOL    HW143078   8.377   2.461   3.755
13727SOL    HW243079   8.447   2.397   3.873
13728SOL     OW43080  13.081   2.926   0.371
13728SOL    HW143081  12.986   2.926   0.365
13728SOL    HW243082  13.105   2.833   0.369
13729SOL     OW43083   6.522  10.869  11.472
13729SOL    HW143084   6.565  10.935  11.526
13729SOL    HW243085   6.524  10.905  11.383
13730SOL     OW43086   5.859   7.567   3.344
13730SOL    HW143087   5.882   7.571   3.251
13730SOL    HW243088   5.944   7.570   3.389
13731SOL     OW43089   9.718   1.457   9.560
13731SOL    HW143090   9.805   1.466   9.599
13731SOL    HW243091   9.720   1.515   9.484
13732SOL     OW43092   9.991  14.062   1.040
13732SOL    HW143093   9.960  14.101   0.959
13732SOL    HW243094   9.954  14.117   1.109
13733SOL     OW43095   1.789   2.686  13.880
13733SOL    HW143096   1.862   2.736  13.917
13733SOL    HW243097   1.764   2.734  13.801
13734SOL     OW43098  14.069  10.309   9.895
13734SOL    HW143099  14.113  10.350   9.821
13734SOL    HW243100  14.107  10.221   9.899
13735SOL     OW43101  14.530  10.622   6.886
13735SOL    HW143102  14.624  10.640   6.893
13735SOL    HW243103  14.491  10.670   6.959
13736SOL     OW43104   9.020  14.310  13.177
13736SOL    HW143105   9.010  14.222  13.212
13736SOL    HW243106   8.974  14.366  13.240
13737SOL     OW43107   4.774   3.013  11.596
13737SOL    HW143108   4.862   3.000  11.559
13737SOL    HW243109   4.770   2.953  11.671
13738SOL     OW43110   6.126   4.322  11.216
13738SOL    HW143111   6.163   4.407  11.240
13738SOL    HW243112   6.164   4.303  11.131
13739SOL     OW43113   6.252   2.675   2.010
13739SOL    HW143114   6.233   2.684   1.917
13739SOL    HW243115   6.347   2.660   2.013
13740SOL     OW43116   0.954   4.436   2.599
13740SOL    HW143117   0.924   4.455   2.688
13740SOL    HW243118   1.004   4.355   2.607
13741SOL     OW43119  10.185   7.130  14.422
13741SOL    HW143120  10.267   7.179  14.419
13741SOL    HW243121  10.211   7.041  14.444
13742SOL     OW43122   8.686   1.190   3.665
13742SOL    HW143123   8.701   1.116   3.725
13742SOL    HW243124   8.736   1.262   3.703
13743SOL     OW43125   9.008  14.609   6.330
13743SOL    HW143126   8.964  14.684   6.369
13743SOL    HW243127   9.044  14.560   6.404
13744SOL     OW43128   3.465   7.282   4.965
13744SOL    HW143129   3.538   7.250   5.018
13744SOL    HW243130   3.438   7.364   5.006
13745SOL     OW43131   1.554  13.771   8.462
13745SOL    HW143132   1.513  13.770   8.375
13745SOL    HW243133   1.632  13.716   8.452
13746SOL     OW43134  13.099   3.731   4.960
13746SOL    HW143135  13.026   3.707   5.018
13746SOL    HW243136  13.177   3.700   5.006
13747SOL     OW43137   2.388   6.160   3.270
13747SOL    HW143138   2.435   6.096   3.323
13747SOL    HW243139   2.385   6.121   3.183
13748SOL     OW43140  14.048   8.760  11.806
13748SOL    HW143141  14.017   8.673  11.832
13748SOL    HW243142  14.139   8.747  11.781
13749SOL     OW43143  12.627   9.557  13.958
13749SOL    HW143144  12.697   9.523  13.903
13749SOL    HW243145  12.556   9.493  13.949
13750SOL     OW43146  14.864   8.495  13.580
13750SOL    HW143147   0.000   8.512  13.674
13750SOL    HW243148  14.772   8.510  13.558
13751SOL     OW43149  11.802  14.490  13.608
13751SOL    HW143150  11.806  14.404  13.650
13751SOL    HW243151  11.817  14.552  13.679
13752SOL     OW43152   6.820  12.459   7.010
13752SOL    HW143153   6.890  12.425   6.954
13752SOL    HW243154   6.866  12.498   7.084
13753SOL     OW43155  12.932  13.402   8.852
13753SOL    HW143156  12.899  13.313   8.841
13753SOL    HW243157  12.858  13.458   8.827
13754SOL     OW43158   1.237   0.474  13.205
13754SOL    HW143159   1.161   0.531  13.215
13754SOL    HW243160   1.272   0.495  13.119
13755SOL     OW43161   0.453   6.034   1.943
13755SOL    HW143162   0.501   6.108   1.978
13755SOL    HW243163   0.367   6.039   1.985
13756SOL     OW43164  13.224  12.881   4.891
13756SOL    HW143165  13.310  12.922   4.888
13756SOL    HW243166  13.242  12.787   4.903
13757SOL     OW43167   0.420   8.464   4.395
13757SOL    HW143168   0.449   8.446   4.485
13757SOL    HW243169   0.370   8.386   4.370
13758SOL     OW43170  11.654   1.184   9.315
13758SOL    HW143171  11.565   1.183   9.352
13758SOL    HW243172  11.648   1.129   9.237
13759SOL     OW43173   7.769  12.857  11.784
13759SOL    HW143174   7.706  12.865  11.712
13759SOL    HW243175   7.787  12.947  11.810
13760SOL     OW43176  13.023  13.078   3.155
13760SOL    HW143177  13.016  13.163   3.111
13760SOL    HW243178  12.938  13.066   3.198
13761SOL     OW43179  12.872   4.065   6.587
13761SOL    HW143180  12.906   4.150   6.616
13761SOL    HW243181  12.908   4.003   6.651
13762SOL     OW43182   5.551   3.200   7.000
13762SOL    HW143183   5.529   3.122   7.051
13762SOL    HW243184   5.523   3.179   6.911
13763SOL     OW43185   8.990   7.282   8.401
13763SOL    HW143186   8.957   7.284   8.311
13763SOL    HW243187   8.934   7.220   8.446
13764SOL     OW43188   5.885  11.755   8.570
13764SOL    HW143189   5.899  11.839   8.526
13764SOL    HW243190   5.888  11.776   8.664
13765SOL     OW43191   0.454   8.311   4.715
13765SOL    HW143192   0.524   8.263   4.671
13765SOL    HW243193   0.497   8.386   4.755
13766SOL     OW43194   8.148   7.839   0.622
13766SOL    HW143195   8.145   7.929   0.588
13766SOL    HW243196   8.142   7.849   0.717
13767SOL     OW43197   1.627   0.128   7.422
13767SOL    HW143198   1.545   0.149   7.376
13767SOL    HW243199   1.627   0.185   7.499
13768SOL     OW43200  12.370   8.035   1.214
13768SOL    HW143201  12.302   8.015   1.279
13768SOL    HW243202  12.323   8.080   1.144
13769SOL     OW43203   4.896  11.742   0.820
13769SOL    HW143204   4.821  11.734   0.761
13769SOL    HW243205   4.966  11.777   0.765
13770SOL     OW43206  10.309   1.876   8.963
13770SOL    HW143207  10.274   1.960   8.993
13770SOL    HW243208  10.233   1.818   8.959
13771SOL     OW43209   1.144   7.097   5.991
13771SOL    HW143210   1.132   7.186   5.959
13771SOL    HW243211   1.239   7.086   5.999
13772SOL     OW43212  10.652   4.288   9.070
13772SOL    HW143213  10.610   4.360   9.023
13772SOL    HW243214  10.620   4.296   9.160
13773SOL     OW43215  10.838   6.559   3.534
13773SOL    HW143216  10.788   6.481   3.557
13773SOL    HW243217  10.810   6.581   3.446
13774SOL     OW43218   0.728   0.414   0.010
13774SOL    HW143219   0.745   0.378   0.097
13774SOL    HW243220   0.652   0.470   0.021
13775SOL     OW43221   7.285   2.294  11.925
13775SOL    HW143222   7.293   2.218  11.981
13775SOL    HW243223   7.366   2.297  11.875
13776SOL     OW43224   5.541   7.631   0.952
13776SOL    HW143225   5.498   7.662   0.873
13776SOL    HW243226   5.469   7.605   1.010
13777SOL     OW43227   5.057   7.350   8.546
13777SOL    HW143228   5.093   7.264   8.524
13777SOL    HW243229   5.130   7.398   8.585
13778SOL     OW43230   0.878   1.088   3.193
13778SOL    HW143231   0.806   1.081   3.256
13778SOL    HW243232   0.905   0.998   3.177
13779SOL     OW43233  13.011   0.205  14.218
13779SOL    HW143234  13.073   0.260  14.267
13779SOL    HW243235  12.937   0.194  14.278
13780SOL     OW43236   0.708   7.791   1.774
13780SOL    HW143237   0.675   7.870   1.817
13780SOL    HW243238   0.793   7.817   1.737
13781SOL     OW43239   7.681  12.591   0.963
13781SOL    HW143240   7.702  12.582   0.870
13781SOL    HW243241   7.705  12.507   1.001
13782SOL     OW43242   9.286   7.799   2.767
13782SOL    HW143243   9.381   7.798   2.768
13782SOL    HW243244   9.260   7.766   2.853
13783SOL     OW43245   9.221  11.769  13.369
13783SOL    HW143246   9.169  11.717  13.306
13783SOL    HW243247   9.284  11.815  13.314
13784SOL     OW43248  13.372   8.250   6.524
13784SOL    HW143249  13.287   8.243   6.567
13784SOL    HW243250  13.351   8.266   6.432
13785SOL     OW43251   2.415   8.610  10.992
13785SOL    HW143252   2.433   8.530  11.041
13785SOL    HW243253   2.401   8.676  11.060
13786SOL     OW43254   5.974   0.528   4.916
13786SOL    HW143255   6.027   0.478   4.853
13786SOL    HW243256   5.939   0.601   4.864
13787SOL     OW43257  11.754  12.360   7.185
13787SOL    HW143258  11.839  12.334   7.222
13787SOL    HW243259  11.776  12.400   7.101
13788SOL     OW43260   4.660  12.189   9.372
13788SOL    HW143261   4.649  12.219   9.282
13788SOL    HW243262   4.683  12.096   9.364
13789SOL     OW43263   7.586   9.325  11.058
13789SOL    HW143264   7.632   9.251  11.019
13789SOL    HW243265   7.654   9.391  11.073
13790SOL     OW43266   5.804   0.994   9.784
13790SOL    HW143267   5.881   1.002   9.728
13790SOL    HW243268   5.835   0.948   9.862
13791SOL     OW43269   7.092   9.193   8.363
13791SOL    HW143270   7.157   9.220   8.428
13791SOL    HW243271   7.048   9.118   8.403
13792SOL     OW43272   9.713   8.560   7.441
13792SOL    HW143273   9.695   8.611   7.362
13792SOL    HW243274   9.807   8.543   7.438
13793SOL     OW43275   9.908   1.752   1.270
13793SOL    HW143276   9.951   1.735   1.353
13793SOL    HW243277   9.978   1.785   1.213
13794SOL     OW43278  13.662   3.034   9.606
13794SOL    HW143279  13.754   3.012   9.590
13794SOL    HW243280  13.617   2.949   9.601
13795SOL     OW43281   1.210   2.652   0.356
13795SOL    HW143282   1.208   2.639   0.261
13795SOL    HW243283   1.148   2.723   0.372
13796SOL     OW43284   0.537   7.215   4.501
13796SOL    HW143285   0.582   7.298   4.488
13796SOL    HW243286   0.490   7.227   4.584
13797SOL     OW43287   2.710   8.978   1.802
13797SOL    HW143288   2.775   9.047   1.791
13797SOL    HW243289   2.734   8.935   1.884
13798SOL     OW43290  13.470   7.940  12.186
13798SOL    HW143291  13.457   8.008  12.253
13798SOL    HW243292  13.435   7.979  12.106
13799SOL     OW43293  14.725   6.570   3.577
13799SOL    HW143294  14.762   6.586   3.664
13799SOL    HW243295  14.791   6.517   3.532
13800SOL     OW43296   0.666   2.976  10.529
13800SOL    HW143297   0.712   3.046  10.483
13800SOL    HW243298   0.696   2.982  10.620
13801SOL     OW43299  12.275   8.975   9.964
13801SOL    HW143300  12.298   8.883   9.967
13801SOL    HW243301  12.357   9.022   9.977
13802SOL     OW43302   4.813   4.471   9.859
13802SOL    HW143303   4.822   4.507   9.771
13802SOL    HW243304   4.745   4.404   9.851
13803SOL     OW43305  11.830  14.723   0.508
13803SOL    HW143306  11.913  14.690   0.474
13803SOL    HW243307  11.764  14.678   0.455
13804SOL     OW43308   2.285  10.412   7.431
13804SOL    HW143309   2.275  10.319   7.451
13804SOL    HW243310   2.195  10.445   7.429
13805SOL     OW43311  11.777   5.337   1.207
13805SOL    HW143312  11.770   5.369   1.297
13805SOL    HW243313  11.687   5.322   1.179
13806SOL     OW43314   6.749  13.696  13.273
13806SOL    HW143315   6.653  13.701  13.277
13806SOL    HW243316   6.774  13.775  13.225
13807SOL     OW43317  12.968   3.300   3.839
13807SOL    HW143318  12.977   3.376   3.781
13807SOL    HW243319  12.943   3.337   3.924
13808SOL     OW43320   3.057   7.553  14.073
13808SOL    HW143321   3.122   7.607  14.028
13808SOL    HW243322   2.982   7.612  14.086
13809SOL     OW43323   4.950   2.722   3.868
13809SOL    HW143324   5.042   2.704   3.852
13809SOL    HW243325   4.939   2.713   3.962
13810SOL     OW43326   7.247  11.779   7.349
13810SOL    HW143327   7.240  11.829   7.268
13810SOL    HW243328   7.177  11.813   7.405
13811SOL     OW43329  13.996   3.209   6.675
13811SOL    HW143330  14.078   3.165   6.697
13811SOL    HW243331  14.017   3.264   6.600
13812SOL     OW43332  14.700   8.342  11.524
13812SOL    HW143333  14.648   8.351  11.444
13812SOL    HW243334  14.724   8.250  11.527
13813SOL     OW43335   9.983  14.062   9.386
13813SOL    HW143336  10.058  14.118   9.365
13813SOL    HW243337  10.014  14.005   9.456
13814SOL     OW43338  10.375   0.990   3.547
13814SOL    HW143339  10.341   1.052   3.482
13814SOL    HW243340  10.470   0.997   3.539
13815SOL     OW43341   2.090   8.655  14.436
13815SOL    HW143342   1.999   8.674  14.459
13815SOL    HW243343   2.092   8.561  14.421
13816SOL     OW43344   2.091   5.247   1.662
13816SOL    HW143345   2.063   5.329   1.620
13816SOL    HW243346   2.038   5.180   1.620
13817SOL     OW43347  13.268   7.422   8.706
13817SOL    HW143348  13.239   7.510   8.680
13817SOL    HW243349  13.271   7.373   8.624
13818SOL     OW43350  11.558   6.720   5.704
13818SOL    HW143351  11.617   6.790   5.677
13818SOL    HW243352  11.506   6.701   5.625
13819SOL     OW43353  14.579  11.853  12.336
13819SOL    HW143354  14.670  11.864  12.365
13819SOL    HW243355  14.587  11.829  12.244
13820SOL     OW43356   4.560   2.798   3.539
13820SOL    HW143357   4.611   2.767   3.614
13820SOL    HW243358   4.611   2.871   3.504
13821SOL     OW43359  13.972   1.342  14.644
13821SOL    HW143360  13.974   1.437  14.660
13821SOL    HW243361  14.063   1.316  14.642
13822SOL     OW43362   2.685   9.677   3.015
13822SOL    HW143363   2.665   9.624   3.092
13822SOL    HW243364   2.638   9.760   3.030
13823SOL     OW43365   9.968  14.223   6.492
13823SOL    HW143366   9.982  14.285   6.420
13823SOL    HW243367  10.051  14.178   6.501
13824SOL     OW43368   4.646   5.618   1.236
13824SOL    HW143369   4.717   5.572   1.191
13824SOL    HW243370   4.662   5.710   1.217
13825SOL     OW43371  10.280  10.179   7.274
13825SOL    HW143372  10.267  10.182   7.369
13825SOL    HW243373  10.199  10.215   7.237
13826SOL     OW43374   5.807  11.149   1.197
13826SOL    HW143375   5.829  11.243   1.198
13826SOL    HW243376   5.836  11.119   1.111
13827SOL     OW43377   9.319   2.438   4.954
13827SOL    HW143378   9.366   2.450   5.037
13827SOL    HW243379   9.329   2.521   4.909
13828SOL     OW43380   5.702   9.845   0.779
13828SOL    HW143381   5.669   9.761   0.810
13828SOL    HW243382   5.665   9.909   0.840
13829SOL     OW43383  14.263  12.801  10.797
13829SOL    HW143384  14.352  12.796  10.762
13829SOL    HW243385  14.270  12.763  10.885
13830SOL     OW43386   6.349  12.496   4.537
13830SOL    HW143387   6.407  12.430   4.499
13830SOL    HW243388   6.298  12.449   4.603
13831SOL     OW43389   9.412  13.035   6.549
13831SOL    HW143390   9.324  13.028   6.512
13831SOL    HW243391   9.468  12.990   6.486
13832SOL     OW43392   2.339   2.943   9.440
13832SOL    HW143393   2.265   2.957   9.381
13832SOL    HW243394   2.358   3.029   9.476
13833SOL     OW43395  10.910   7.932  13.099
13833SOL    HW143396  10.877   7.847  13.073
13833SOL    HW243397  10.994   7.914  13.141
13834SOL     OW43398   1.325  10.513   6.500
13834SOL    HW143399   1.232  10.524   6.480
13834SOL    HW243400   1.361  10.602   6.499
13835SOL     OW43401   7.229   6.903   4.327
13835SOL    HW143402   7.146   6.947   4.345
13835SOL    HW243403   7.269   6.956   4.258
13836SOL     OW43404  14.410  13.184   8.924
13836SOL    HW143405  14.494  13.230   8.924
13836SOL    HW243406  14.429  13.101   8.881
13837SOL     OW43407   9.063   2.978   9.769
13837SOL    HW143408   9.117   3.023   9.705
13837SOL    HW243409   9.120   2.966   9.845
13838SOL     OW43410   7.434  13.242   8.519
13838SOL    HW143411   7.455  13.153   8.491
13838SOL    HW243412   7.382  13.278   8.447
13839SOL     OW43413   4.096   8.365   7.700
13839SOL    HW143414   4.159   8.315   7.648
13839SOL    HW243415   4.017   8.368   7.645
13840SOL     OW43416  12.065   5.227   6.401
13840SOL    HW143417  12.160   5.242   6.403
13840SOL    HW243418  12.041   5.233   6.309
13841SOL     OW43419   3.576  10.965  14.130
13841SOL    HW143420   3.582  11.055  14.161
13841SOL    HW243421   3.604  10.912  14.205
13842SOL     OW43422   2.645   7.922   0.801
13842SOL    HW143423   2.646   8.002   0.854
13842SOL    HW243424   2.634   7.851   0.864
13843SOL     OW43425   5.706  11.858  13.903
13843SOL    HW143426   5.703  11.860  13.999
13843SOL    HW243427   5.627  11.811  13.878
13844SOL     OW43428  11.220  11.584   3.753
13844SOL    HW143429  11.306  11.559   3.721
13844SOL    HW243430  11.172  11.610   3.674
13845SOL     OW43431  13.671   0.475  14.499
13845SOL    HW143432  13.723   0.410  14.545
13845SOL    HW243433  13.583   0.438  14.495
13846SOL     OW43434   1.979  11.259   5.456
13846SOL    HW143435   1.959  11.325   5.522
13846SOL    HW243436   1.931  11.287   5.378
13847SOL     OW43437  10.416   8.698   4.160
13847SOL    HW143438  10.348   8.765   4.166
13847SOL    HW243439  10.418   8.673   4.068
13848SOL     OW43440   3.557   7.656   4.855
13848SOL    HW143441   3.576   7.677   4.946
13848SOL    HW243442   3.633   7.688   4.806
13849SOL     OW43443   6.428   2.458  13.947
13849SOL    HW143444   6.434   2.468  13.852
13849SOL    HW243445   6.408   2.365  13.961
13850SOL     OW43446  14.674   8.757  13.743
13850SOL    HW143447  14.611   8.759  13.671
13850SOL    HW243448  14.729   8.834  13.729
13851SOL     OW43449   9.669   2.755   1.085
13851SOL    HW143450   9.582   2.796   1.081
13851SOL    HW243451   9.669   2.692   1.014
13852SOL     OW43452   4.912   3.494  14.521
13852SOL    HW143453   4.962   3.413  14.526
13852SOL    HW243454   4.896   3.519  14.612
13853SOL     OW43455   5.355   4.781  10.509
13853SOL    HW143456   5.378   4.700  10.553
13853SOL    HW243457   5.327   4.840  10.579
13854SOL     OW43458   7.492   4.682   6.102
13854SOL    HW143459   7.450   4.676   6.188
13854SOL    HW243460   7.500   4.591   6.073
13855SOL     OW43461   5.266   0.866   3.950
13855SOL    HW143462   5.215   0.941   3.981
13855SOL    HW243463   5.201   0.798   3.935
13856SOL     OW43464  11.203  13.765   5.549
13856SOL    HW143465  11.189  13.708   5.473
13856SOL    HW243466  11.297  13.784   5.547
13857SOL     OW43467  12.784   6.815  10.033
13857SOL    HW143468  12.804   6.890  10.089
13857SOL    HW243469  12.804   6.846   9.944
13858SOL     OW43470   6.749   8.961   6.278
13858SOL    HW143471   6.665   8.933   6.314
13858SOL    HW243472   6.811   8.894   6.306
13859SOL     OW43473   6.039   2.660  12.114
13859SOL    HW143474   6.006   2.602  12.182
13859SOL    HW243475   6.010   2.747  12.140
13860SOL     OW43476   3.817   4.569   3.808
13860SOL    HW143477   3.880   4.590   3.878
13860SOL    HW243478   3.871   4.559   3.730
13861SOL     OW43479   4.414   5.123   8.878
13861SOL    HW143480   4.493   5.096   8.831
13861SOL    HW243481   4.360   5.167   8.812
13862SOL     OW43482   5.910   0.160   8.089
13862SOL    HW143483   6.005   0.156   8.072
13862SOL    HW243484   5.878   0.225   8.027
13863SOL     OW43485   5.678   7.438   7.504
13863SOL    HW143486   5.679   7.533   7.515
13863SOL    HW243487   5.746   7.421   7.438
13864SOL     OW43488   8.468   7.695  13.719
13864SOL    HW143489   8.508   7.608  13.720
13864SOL    HW243490   8.388   7.685  13.668
13865SOL     OW43491   0.173   9.504   4.102
13865SOL    HW143492   0.113   9.546   4.041
13865SOL    HW243493   0.129   9.509   4.187
13866SOL     OW43494   1.637   6.271   4.230
13866SOL    HW143495   1.730   6.270   4.255
13866SOL    HW243496   1.638   6.263   4.134
13867SOL     OW43497  13.071   6.768  14.738
13867SOL    HW143498  13.099   6.774  14.830
13867SOL    HW243499  12.976   6.781  14.741
13868SOL     OW43500  13.652   0.869   2.454
13868SOL    HW143501  13.613   0.832   2.533
13868SOL    HW243502  13.680   0.957   2.480
13869SOL     OW43503   5.056   2.913  11.973
13869SOL    HW143504   5.141   2.932  11.935
13869SOL    HW243505   5.050   2.818  11.972
13870SOL     OW43506   1.984   3.552   0.475
13870SOL    HW143507   2.042   3.481   0.448
13870SOL    HW243508   1.915   3.508   0.525
13871SOL     OW43509   4.357   3.860   3.770
13871SOL    HW143510   4.301   3.879   3.846
13871SOL    HW243511   4.299   3.871   3.694
13872SOL     OW43512  13.874   2.683  12.233
13872SOL    HW143513  13.948   2.623  12.231
13872SOL    HW243514  13.823   2.661  12.155
13873SOL     OW43515  12.651  14.821   0.376
13873SOL    HW143516  12.609   0.001   0.446
13873SOL    HW243517  12.744  14.846   0.382
13874SOL     OW43518   6.884   2.412  10.542
13874SOL    HW143519   6.850   2.329  10.578
13874SOL    HW243520   6.930   2.452  10.615
13875SOL     OW43521   1.575   4.120  14.761
13875SOL    HW143522   1.546   4.127  14.852
13875SOL    HW243523   1.646   4.056  14.764
13876SOL     OW43524   2.770  11.114   8.259
13876SOL    HW143525   2.865  11.115   8.246
13876SOL    HW243526   2.757  11.051   8.330
13877SOL     OW43527   4.750  14.024  14.860
13877SOL    HW143528   4.673  14.009   0.046
13877SOL    HW243529   4.731  13.974  14.780
13878SOL     OW43530   9.276   4.639  14.087
13878SOL    HW143531   9.227   4.650  14.169
13878SOL    HW243532   9.298   4.546  14.084
13879SOL     OW43533  13.985  11.270  12.640
13879SOL    HW143534  14.050  11.216  12.685
13879SOL    HW243535  14.034  11.314  12.571
13880SOL     OW43536   1.725  14.752   4.519
13880SOL    HW143537   1.695  14.836   4.484
13880SOL    HW243538   1.817  14.767   4.541
13881SOL     OW43539  14.428   9.625   4.002
13881SOL    HW143540  14.485   9.556   3.969
13881SOL    HW243541  14.409   9.679   3.926
13882SOL     OW43542  12.748   9.971   3.456
13882SOL    HW143543  12.659   9.972   3.420
13882SOL    HW243544  12.748  10.041   3.521
13883SOL     OW43545   9.095   9.185   3.427
13883SOL    HW143546   9.159   9.115   3.430
13883SOL    HW243547   9.046   9.177   3.509
13884SOL     OW43548  11.184   1.358   0.985
13884SOL    HW143549  11.174   1.351   0.890
13884SOL    HW243550  11.278   1.347   0.999
13885SOL     OW43551   1.480   5.969  13.337
13885SOL    HW143552   1.490   5.874  13.345
13885SOL    HW243553   1.493   5.987  13.244
13886SOL     OW43554  10.551   3.746   1.198
13886SOL    HW143555  10.611   3.770   1.268
13886SOL    HW243556  10.592   3.670   1.156
13887SOL     OW43557  13.135   7.896   7.394
13887SOL    HW143558  13.057   7.948   7.414
13887SOL    HW243559  13.113   7.850   7.312
13888SOL     OW43560  14.582  12.529   4.194
13888SOL    HW143561  14.585  12.561   4.104
13888SOL    HW243562  14.620  12.600   4.245
13889SOL     OW43563   8.875   3.912   8.663
13889SOL    HW143564   8.923   3.942   8.586
13889SOL    HW243565   8.790   3.882   8.629
13890SOL     OW43566  10.528   5.634   1.234
13890SOL    HW143567  10.619   5.628   1.206
13890SOL    HW243568  10.531   5.687   1.314
13891SOL     OW43569  10.600   7.224   7.033
13891SOL    HW143570  10.656   7.296   7.004
13891SOL    HW243571  10.661   7.158   7.066
13892SOL     OW43572   8.470   6.913   6.865
13892SOL    HW143573   8.472   6.820   6.888
13892SOL    HW243574   8.551   6.949   6.901
13893SOL     OW43575   6.063   2.892   1.473
13893SOL    HW143576   5.997   2.961   1.481
13893SOL    HW243577   6.135   2.933   1.424
13894SOL     OW43578   7.368  12.602   8.059
13894SOL    HW143579   7.442  12.545   8.036
13894SOL    HW243580   7.314  12.602   7.979
13895SOL     OW43581   1.997  12.876  14.151
13895SOL    HW143582   1.923  12.910  14.202
13895SOL    HW243583   2.068  12.867  14.215
13896SOL     OW43584   6.794   3.456   8.996
13896SOL    HW143585   6.845   3.523   9.041
13896SOL    HW243586   6.855   3.418   8.932
13897SOL     OW43587   4.292   3.215   1.861
13897SOL    HW143588   4.259   3.204   1.951
13897SOL    HW243589   4.229   3.274   1.820
13898SOL     OW43590   4.069   0.661  12.330
13898SOL    HW143591   4.138   0.718  12.295
13898SOL    HW243592   4.098   0.641  12.419
13899SOL     OW43593   1.697   8.163  11.799
13899SOL    HW143594   1.702   8.094  11.733
13899SOL    HW243595   1.780   8.157  11.846
13900SOL     OW43596   0.680  10.747   3.717
13900SOL    HW143597   0.613  10.815   3.705
13900SOL    HW243598   0.644  10.690   3.785
13901SOL     OW43599  14.017   0.481  12.680
13901SOL    HW143600  13.999   0.560  12.731
13901SOL    HW243601  14.073   0.511  12.608
13902SOL     OW43602   7.773   9.542  11.995
13902SOL    HW143603   7.868   9.553  11.989
13902SOL    HW243604   7.748   9.584  12.077
13903SOL     OW43605   8.511  11.698   9.826
13903SOL    HW143606   8.506  11.790   9.801
13903SOL    HW243607   8.483  11.696   9.918
13904SOL     OW43608   5.929   1.450   2.875
13904SOL    HW143609   5.852   1.448   2.931
13904SOL    HW243610   5.968   1.536   2.892
13905SOL     OW43611  14.168   6.078   8.871
13905SOL    HW143612  14.108   6.039   8.808
13905SOL    HW243613  14.125   6.067   8.956
13906SOL     OW43614  12.907   5.622  14.782
13906SOL    HW143615  12.881   5.668  14.702
13906SOL    HW243616  12.825   5.598  14.824
13907SOL     OW43617   4.305   1.232   8.868
13907SOL    HW143618   4.292   1.151   8.818
13907SOL    HW243619   4.352   1.290   8.808
13908SOL     OW43620   9.201   0.478   1.620
13908SOL    HW143621   9.263   0.407   1.602
13908SOL    HW243622   9.249   0.538   1.677
13909SOL     OW43623   9.751   2.117  13.037
13909SOL    HW143624   9.705   2.072  13.108
13909SOL    HW243625   9.755   2.208  13.065
13910SOL     OW43626   8.661  11.531   5.642
13910SOL    HW143627   8.613  11.530   5.724
13910SOL    HW243628   8.745  11.489   5.663
13911SOL     OW43629   0.380  14.443   4.760
13911SOL    HW143630   0.404  14.361   4.802
13911SOL    HW243631   0.288  14.432   4.735
13912SOL     OW43632   0.639   4.663   2.059
13912SOL    HW143633   0.545   4.645   2.063
13912SOL    HW243634   0.662   4.688   2.149
13913SOL     OW43635   0.926  10.187   1.733
13913SOL    HW143636   0.830  10.188   1.728
13913SOL    HW243637   0.946  10.119   1.796
13914SOL     OW43638   9.845   1.894  10.398
13914SOL    HW143639   9.766   1.945  10.381
13914SOL    HW243640   9.900   1.909  10.321
13915SOL     OW43641  12.465   9.898  11.089
13915SOL    HW143642  12.541   9.882  11.033
13915SOL    HW243643  12.479   9.986  11.124
13916SOL     OW43644   4.033   2.731   4.056
13916SOL    HW143645   4.042   2.642   4.092
13916SOL    HW243646   4.062   2.788   4.126
13917SOL     OW43647  12.721   7.270   4.270
13917SOL    HW143648  12.790   7.296   4.208
13917SOL    HW243649  12.679   7.352   4.295
13918SOL     OW43650   6.553   5.863   2.784
13918SOL    HW143651   6.491   5.831   2.850
13918SOL    HW243652   6.536   5.957   2.780
13919SOL     OW43653   2.004   2.071   5.867
13919SOL    HW143654   1.931   2.010   5.852
13919SOL    HW243655   2.005   2.085   5.961
13920SOL     OW43656   6.410  10.063  14.826
13920SOL    HW143657   6.502  10.073  14.802
13920SOL    HW243658   6.405   9.976  14.866
13921SOL     OW43659  13.066   8.996  13.029
13921SOL    HW143660  13.017   9.057  13.085
13921SOL    HW243661  12.999   8.944  12.985
13922SOL     OW43662   7.610   0.210   5.103
13922SOL    HW143663   7.637   0.175   5.018
13922SOL    HW243664   7.603   0.133   5.159
13923SOL     OW43665   5.120  14.744   3.896
13923SOL    HW143666   5.067  14.665   3.897
13923SOL    HW243667   5.172  14.737   3.816
13924SOL     OW43668   9.574  10.021   0.725
13924SOL    HW143669   9.609   9.933   0.736
13924SOL    HW243670   9.498  10.010   0.668
13925SOL     OW43671   9.601   8.563   1.912
13925SOL    HW143672   9.656   8.595   1.840
13925SOL    HW243673   9.629   8.472   1.925
13926SOL     OW43674   5.467   9.268   8.760
13926SOL    HW143675   5.381   9.249   8.796
13926SOL    HW243676   5.455   9.262   8.665
13927SOL     OW43677   5.931   1.219  14.417
13927SOL    HW143678   5.952   1.312  14.424
13927SOL    HW243679   5.986   1.188  14.345
13928SOL     OW43680   9.835  13.190  13.294
13928SOL    HW143681   9.777  13.228  13.360
13928SOL    HW243682   9.792  13.209  13.210
13929SOL     OW43683   9.244  14.358   0.443
13929SOL    HW143684   9.274  14.405   0.365
13929SOL    HW243685   9.304  14.387   0.512
13930SOL     OW43686   1.513  13.723  14.416
13930SOL    HW143687   1.474  13.647  14.460
13930SOL    HW243688   1.542  13.689  14.331
13931SOL     OW43689   0.866   0.535   5.384
13931SOL    HW143690   0.784   0.540   5.433
13931SOL    HW243691   0.907   0.621   5.398
13932SOL     OW43692  13.764   7.805   1.945
13932SOL    HW143693  13.797   7.867   2.010
13932SOL    HW243694  13.733   7.730   1.996
13933SOL     OW43695   9.581  13.534   2.624
13933SOL    HW143696   9.486  13.522   2.614
13933SOL    HW243697   9.600  13.617   2.580
13934SOL     OW43698   6.378   8.165   1.915
13934SOL    HW143699   6.376   8.253   1.952
13934SOL    HW243700   6.396   8.108   1.989
13935SOL     OW43701   4.954  12.078   7.762
13935SOL    HW143702   5.003  12.160   7.767
13935SOL    HW243703   4.881  12.097   7.702
13936SOL     OW43704   5.406   6.077   6.713
13936SOL    HW143705   5.400   6.144   6.645
13936SOL    HW243706   5.344   6.106   6.780
13937SOL     OW43707   2.188  10.562  14.203
13937SOL    HW143708   2.093  10.560  14.198
13937SOL    HW243709   2.210  10.654  14.189
13938SOL     OW43710  10.939   2.215   5.266
13938SOL    HW143711  10.959   2.197   5.174
13938SOL    HW243712  10.950   2.310   5.274
13939SOL     OW43713   9.142   2.303  10.825
13939SOL    HW143714   9.228   2.339  10.847
13939SOL    HW243715   9.082   2.377  10.836
13940SOL     OW43716   9.926   5.800  14.124
13940SOL    HW143717   9.863   5.767  14.187
13940SOL    HW243718   9.933   5.730  14.058
13941SOL     OW43719   3.680   7.332  14.850
13941SOL    HW143720   3.636   7.352   0.063
13941SOL    HW243721   3.712   7.417  14.819
13942SOL     OW43722   0.421   8.181  13.964
13942SOL    HW143723   0.413   8.210  14.055
13942SOL    HW243724   0.352   8.229  13.918
13943SOL     OW43725   0.630   3.183   3.549
13943SOL    HW143726   0.654   3.105   3.499
13943SOL    HW243727   0.705   3.241   3.538
13944SOL     OW43728   3.239  10.247   2.714
13944SOL    HW143729   3.239  10.262   2.808
13944SOL    HW243730   3.188  10.166   2.703
13945SOL     OW43731  13.865   8.800   7.471
13945SOL    HW143732  13.860   8.759   7.557
13945SOL    HW243733  13.944   8.854   7.474
13946SOL     OW43734   0.443   5.995  13.984
13946SOL    HW143735   0.489   6.022  13.905
13946SOL    HW243736   0.485   5.913  14.009
13947SOL     OW43737   2.639   4.855   5.737
13947SOL    HW143738   2.680   4.900   5.811
13947SOL    HW243739   2.659   4.762   5.751
13948SOL     OW43740  10.313   9.593   7.312
13948SOL    HW143741  10.291   9.685   7.323
13948SOL    HW243742  10.311   9.557   7.401
13949SOL     OW43743   9.821   9.038  14.139
13949SOL    HW143744   9.733   9.069  14.163
13949SOL    HW243745   9.841   8.970  14.204
13950SOL     OW43746   3.644   7.380   7.363
13950SOL    HW143747   3.576   7.427   7.410
13950SOL    HW243748   3.712   7.364   7.428
13951SOL     OW43749   1.012   5.080  10.757
13951SOL    HW143750   0.976   5.005  10.710
13951SOL    HW243751   0.967   5.080  10.841
13952SOL     OW43752   5.745   8.934   8.795
13952SOL    HW143753   5.784   9.020   8.810
13952SOL    HW243754   5.810   8.886   8.743
13953SOL     OW43755  13.595   8.580  10.766
13953SOL    HW143756  13.678   8.533  10.767
13953SOL    HW243757  13.576   8.596  10.859
13954SOL     OW43758   7.372  14.208  13.933
13954SOL    HW143759   7.444  14.256  13.974
13954SOL    HW243760   7.300  14.216  13.996
13955SOL     OW43761   6.445  10.238   1.122
13955SOL    HW143762   6.393  10.303   1.170
13955SOL    HW243763   6.381  10.172   1.095
13956SOL     OW43764  13.662   4.567   3.411
13956SOL    HW143765  13.738   4.508   3.412
13956SOL    HW243766  13.587   4.508   3.413
13957SOL     OW43767   8.102   3.231   8.614
13957SOL    HW143768   8.193   3.214   8.637
13957SOL    HW243769   8.100   3.223   8.518
13958SOL     OW43770   9.585   2.761   9.350
13958SOL    HW143771   9.546   2.755   9.263
13958SOL    HW243772   9.668   2.715   9.342
13959SOL     OW43773   3.889   4.510  14.133
13959SOL    HW143774   3.934   4.566  14.070
13959SOL    HW243775   3.796   4.530  14.121
13960SOL     OW43776  12.788   5.348   2.960
13960SOL    HW143777  12.773   5.397   2.879
13960SOL    HW243778  12.701   5.317   2.986
13961SOL     OW43779  13.189  14.534   6.271
13961SOL    HW143780  13.097  14.540   6.295
13961SOL    HW243781  13.227  14.618   6.298
13962SOL     OW43782   3.910   9.057   4.186
13962SOL    HW143783   3.872   8.983   4.234
13962SOL    HW243784   3.978   9.017   4.131
13963SOL     OW43785   7.260   1.959  12.345
13963SOL    HW143786   7.305   1.989  12.266
13963SOL    HW243787   7.186   1.907  12.313
13964SOL     OW43788   1.873   3.452   5.825
13964SOL    HW143789   1.803   3.508   5.791
13964SOL    HW243790   1.893   3.489   5.911
13965SOL     OW43791  11.553   5.346   3.228
13965SOL    HW143792  11.579   5.375   3.316
13965SOL    HW243793  11.636   5.329   3.183
13966SOL     OW43794  10.317   0.051  14.555
13966SOL    HW143795  10.260   0.126  14.537
13966SOL    HW243796  10.264  14.864  14.612
13967SOL     OW43797  14.844   1.133   4.382
13967SOL    HW143798   0.063   1.137   4.345
13967SOL    HW243799  14.790   1.101   4.310
13968SOL     OW43800   5.038   3.438   4.461
13968SOL    HW143801   5.116   3.476   4.503
13968SOL    HW243802   4.974   3.509   4.461
13969SOL     OW43803   3.299  10.107  13.610
13969SOL    HW143804   3.377  10.052  13.602
13969SOL    HW243805   3.261  10.082  13.694
13970SOL     OW43806   6.981  14.048  10.653
13970SOL    HW143807   6.906  14.050  10.714
13970SOL    HW243808   6.962  13.975  10.595
13971SOL     OW43809   2.855   6.011  12.032
13971SOL    HW143810   2.855   6.062  11.951
13971SOL    HW243811   2.868   6.076  12.101
13972SOL     OW43812   3.608   9.860  13.896
13972SOL    HW143813   3.653   9.792  13.946
13972SOL    HW243814   3.529   9.880  13.946
13973SOL     OW43815   7.097   1.449  10.110
13973SOL    HW143816   7.148   1.502  10.171
13973SOL    HW243817   7.137   1.362  10.114
13974SOL     OW43818   1.961  12.748   7.748
13974SOL    HW143819   2.023  12.766   7.677
13974SOL    HW243820   1.889  12.811   7.733
13975SOL     OW43821   4.699   8.567   3.493
13975SOL    HW143822   4.756   8.565   3.415
13975SOL    HW243823   4.760   8.568   3.567
13976SOL     OW43824  11.119  12.716  14.603
13976SOL    HW143825  11.078  12.799  14.629
13976SOL    HW243826  11.213  12.736  14.600
13977SOL     OW43827   2.861   3.675   0.811
13977SOL    HW143828   2.954   3.679   0.835
13977SOL    HW243829   2.853   3.599   0.754
13978SOL     OW43830   1.300   1.138  10.169
13978SOL    HW143831   1.356   1.063  10.147
13978SOL    HW243832   1.361   1.205  10.201
13979SOL     OW43833   2.806   0.079   7.161
13979SOL    HW143834   2.845   0.050   7.243
13979SOL    HW243835   2.713   0.089   7.180
13980SOL     OW43836   1.156   3.252  13.460
13980SOL    HW143837   1.135   3.234  13.368
13980SOL    HW243838   1.251   3.254  13.463
13981SOL     OW43839  12.742   7.903  13.316
13981SOL    HW143840  12.796   7.867  13.387
13981SOL    HW243841  12.770   7.855  13.238
13982SOL     OW43842  11.375  14.067  12.771
13982SOL    HW143843  11.420  14.076  12.687
13982SOL    HW243844  11.308  14.135  12.770
13983SOL     OW43845  13.320   8.047  10.358
13983SOL    HW143846  13.280   8.132  10.341
13983SOL    HW243847  13.362   8.024  10.275
13984SOL     OW43848   0.766   8.343  13.705
13984SOL    HW143849   0.789   8.311  13.792
13984SOL    HW243850   0.725   8.428  13.721
13985SOL     OW43851   9.673  11.885  12.600
13985SOL    HW143852   9.642  11.946  12.534
13985SOL    HW243853   9.638  11.919  12.683
13986SOL     OW43854   8.708   8.503   7.622
13986SOL    HW143855   8.664   8.418   7.622
13986SOL    HW243856   8.674   8.548   7.545
13987SOL     OW43857   2.022  14.654   9.369
13987SOL    HW143858   2.046  14.746   9.370
13987SOL    HW243859   1.927  14.653   9.379
13988SOL     OW43860   1.232  14.733   3.442
13988SOL    HW143861   1.220  14.650   3.396
13988SOL    HW243862   1.146  14.776   3.437
13989SOL     OW43863  12.463  11.476   5.855
13989SOL    HW143864  12.517  11.510   5.783
13989SOL    HW243865  12.483  11.382   5.857
13990SOL     OW43866  11.991  10.241   5.062
13990SOL    HW143867  12.046  10.318   5.081
13990SOL    HW243868  11.955  10.216   5.147
13991SOL     OW43869   6.118   4.119   8.973
13991SOL    HW143870   6.098   4.128   8.880
13991SOL    HW243871   6.039   4.150   9.017
13992SOL     OW43872   8.023  10.206   3.738
13992SOL    HW143873   8.044  10.300   3.738
13992SOL    HW243874   8.106  10.163   3.759
13993SOL     OW43875  12.358   6.491   1.202
13993SOL    HW143876  12.361   6.559   1.270
13993SOL    HW243877  12.412   6.525   1.131
13994SOL     OW43878  13.387   6.394   9.608
13994SOL    HW143879  13.296   6.374   9.586
13994SOL    HW243880  13.438   6.344   9.546
13995SOL     OW43881   4.343  14.164   4.598
13995SOL    HW143882   4.254  14.143   4.628
13995SOL    HW243883   4.380  14.217   4.668
13996SOL     OW43884   3.562   4.526  12.327
13996SOL    HW143885   3.608   4.596  12.374
13996SOL    HW243886   3.526   4.470  12.395
13997SOL     OW43887   4.324   3.364  10.451
13997SOL    HW143888   4.373   3.443  10.473
13997SOL    HW243889   4.303   3.372  10.358
13998SOL     OW43890  11.700   5.435   4.027
13998SOL    HW143891  11.744   5.500   4.082
13998SOL    HW243892  11.703   5.355   4.079
13999SOL     OW43893   2.077  12.529   2.037
13999SOL    HW143894   2.027  12.448   2.052
13999SOL    HW243895   2.095  12.562   2.125
14000SOL     OW43896   5.001  11.639   9.837
14000SOL    HW143897   5.073  11.600   9.888
14000SOL    HW243898   5.045  11.698   9.776
14001SOL     OW43899  14.489  13.269   1.331
14001SOL    HW143900  14.403  13.241   1.299
14001SOL    HW243901  14.471  13.346   1.385
14002SOL     OW43902  11.456   5.230  14.328
14002SOL    HW143903  11.486   5.147  14.366
14002SOL    HW243904  11.462   5.217  14.234
14003SOL     OW43905  13.659  14.284   4.216
14003SOL    HW143906  13.602  14.322   4.149
14003SOL    HW243907  13.641  14.336   4.294
14004SOL     OW43908   3.416   0.293  11.629
14004SOL    HW143909   3.383   0.203  11.632
14004SOL    HW243910   3.511   0.284  11.621
14005SOL     OW43911   5.610   7.516   3.422
14005SOL    HW143912   5.590   7.582   3.489
14005SOL    HW243913   5.699   7.539   3.393
14006SOL     OW43914   9.090   8.284  12.279
14006SOL    HW143915   9.067   8.222  12.349
14006SOL    HW243916   9.186   8.289  12.283
14007SOL     OW43917   2.527   7.169   8.491
14007SOL    HW143918   2.452   7.115   8.466
14007SOL    HW243919   2.498   7.213   8.571
14008SOL     OW43920   8.069   2.575   6.418
14008SOL    HW143921   8.162   2.589   6.437
14008SOL    HW243922   8.068   2.536   6.330
14009SOL     OW43923  12.158   4.041  14.394
14009SOL    HW143924  12.101   3.993  14.454
14009SOL    HW243925  12.241   4.050  14.441
14010SOL     OW43926   1.068  11.618   0.185
14010SOL    HW143927   1.048  11.711   0.199
14010SOL    HW243928   0.991  11.583   0.140
14011SOL     OW43929   0.457   8.942  14.735
14011SOL    HW143930   0.471   8.858  14.691
14011SOL    HW243931   0.365   8.963  14.717
14012SOL     OW43932   9.020   3.158   7.312
14012SOL    HW143933   9.004   3.205   7.394
14012SOL    HW243934   9.098   3.201   7.275
14013SOL     OW43935  10.500  13.016   0.304
14013SOL    HW143936  10.483  12.956   0.376
14013SOL    HW243937  10.490  12.962   0.225
14014SOL     OW43938  12.392   1.263   6.772
14014SOL    HW143939  12.393   1.171   6.799
14014SOL    HW243940  12.299   1.286   6.769
14015SOL     OW43941   3.526  14.201  10.018
14015SOL    HW143942   3.521  14.290  10.051
14015SOL    HW243943   3.607  14.199   9.966
14016SOL     OW43944  11.409   3.690   7.149
14016SOL    HW143945  11.421   3.715   7.241
14016SOL    HW243946  11.498   3.671   7.118
14017SOL     OW43947   2.261  11.110   3.618
14017SOL    HW143948   2.335  11.049   3.612
14017SOL    HW243949   2.242  11.115   3.711
14018SOL     OW43950   8.088  12.012   6.239
14018SOL    HW143951   8.136  12.088   6.273
14018SOL    HW243952   8.150  11.940   6.245
14019SOL     OW43953   5.136   4.500  11.300
14019SOL    HW143954   5.047   4.536  11.300
14019SOL    HW243955   5.167   4.511  11.390
14020SOL     OW43956   2.466  12.485   6.981
14020SOL    HW143957   2.519  12.414   7.017
14020SOL    HW243958   2.521  12.523   6.913
14021SOL     OW43959   5.169   5.584   2.348
14021SOL    HW143960   5.155   5.604   2.255
14021SOL    HW243961   5.206   5.665   2.384
14022SOL     OW43962   5.805  12.493  11.319
14022SOL    HW143963   5.873  12.462  11.379
14022SOL    HW243964   5.835  12.465  11.233
14023SOL     OW43965   9.558   6.304   7.052
14023SOL    HW143966   9.632   6.324   6.995
14023SOL    HW243967   9.540   6.212   7.037
14024SOL     OW43968   5.847  11.031   1.425
14024SOL    HW143969   5.941  11.018   1.418
14024SOL    HW243970   5.825  11.086   1.350
14025SOL     OW43971   2.498  10.396   6.928
14025SOL    HW143972   2.529  10.305   6.928
14025SOL    HW243973   2.427  10.396   6.992
14026SOL     OW43974   2.094  12.932  11.463
14026SOL    HW143975   2.015  12.973  11.429
14026SOL    HW243976   2.162  12.998  11.453
14027SOL     OW43977   5.978   4.172   3.333
14027SOL    HW143978   6.024   4.146   3.413
14027SOL    HW243979   5.932   4.253   3.358
14028SOL     OW43980   0.177  10.214   8.072
14028SOL    HW143981   0.113  10.209   8.001
14028SOL    HW243982   0.140  10.278   8.133
14029SOL     OW43983   5.550   1.022   2.959
14029SOL    HW143984   5.499   0.948   2.927
14029SOL    HW243985   5.596   0.989   3.036
14030SOL     OW43986   2.572  12.787   9.611
14030SOL    HW143987   2.490  12.738   9.618
14030SOL    HW243988   2.632  12.741   9.669
14031SOL     OW43989   3.002   4.424   8.257
14031SOL    HW143990   3.063   4.407   8.329
14031SOL    HW243991   3.005   4.519   8.245
14032SOL     OW43992   2.437  14.869  14.832
14032SOL    HW143993   2.377   0.027   0.032
14032SOL    HW243994   2.380  14.849  14.757
14033SOL     OW43995   3.548   1.451   2.705
14033SOL    HW143996   3.592   1.429   2.622
14033SOL    HW243997   3.600   1.407   2.772
14034SOL     OW43998   1.683   1.788   1.106
14034SOL    HW143999   1.652   1.878   1.093
14034SOL    HW244000   1.736   1.769   1.028
14035SOL     OW44001   6.173   7.153  14.083
14035SOL    HW144002   6.086   7.118  14.103
14035SOL    HW244003   6.170   7.170  13.989
14036SOL     OW44004  10.025  13.285  10.679
14036SOL    HW144005   9.932  13.263  10.681
14036SOL    HW244006  10.057  13.248  10.596
14037SOL     OW44007   2.215   9.930   7.048
14037SOL    HW144008   2.230   9.938   6.954
14037SOL    HW244009   2.238   9.839   7.068
14038SOL     OW44010  13.520  13.007   5.212
14038SOL    HW144011  13.463  12.972   5.281
14038SOL    HW244012  13.491  13.098   5.202
14039SOL     OW44013   9.711   2.311   8.191
14039SOL    HW144014   9.797   2.332   8.225
14039SOL    HW244015   9.709   2.215   8.189
14040SOL     OW44016   1.287   3.781   4.620
14040SOL    HW144017   1.364   3.835   4.635
14040SOL    HW244018   1.320   3.703   4.576
14041SOL     OW44019  14.541   2.286   9.127
14041SOL    HW144020  14.535   2.366   9.074
14041SOL    HW244021  14.459   2.240   9.110
14042SOL     OW44022  12.594  14.817   9.257
14042SOL    HW144023  12.548  14.738   9.284
14042SOL    HW244024  12.685  14.802   9.282
14043SOL     OW44025   8.660  10.246   8.669
14043SOL    HW144026   8.697  10.220   8.753
14043SOL    HW244027   8.728  10.300   8.628
14044SOL     OW44028   7.848   5.513  11.444
14044SOL    HW144029   7.862   5.502  11.538
14044SOL    HW244030   7.753   5.523  11.434
14045SOL     OW44031  14.668  14.869   9.853
14045SOL    HW144032  14.671  14.796   9.914
14045SOL    HW244033  14.647  14.829   9.769
14046SOL     OW44034   9.611   8.071   8.033
14046SOL    HW144035   9.525   8.084   7.993
14046SOL    HW244036   9.615   8.138   8.102
14047SOL     OW44037   8.745   8.082  10.435
14047SOL    HW144038   8.657   8.100  10.468
14047SOL    HW244039   8.763   8.154  10.374
14048SOL     OW44040   2.288   7.030   6.100
14048SOL    HW144041   2.350   7.048   6.172
14048SOL    HW244042   2.315   7.090   6.030
14049SOL     OW44043   5.486   1.969  10.711
14049SOL    HW144044   5.454   2.019  10.635
14049SOL    HW244045   5.576   1.946  10.687
14050SOL     OW44046   7.095  14.238   4.058
14050SOL    HW144047   7.045  14.312   4.092
14050SOL    HW244048   7.131  14.196   4.136
14051SOL     OW44049   9.207  13.527   5.849
14051SOL    HW144050   9.270  13.578   5.899
14051SOL    HW244051   9.254  13.503   5.769
14052SOL     OW44052   5.352   1.469   3.146
14052SOL    HW144053   5.303   1.388   3.131
14052SOL    HW244054   5.296   1.537   3.109
14053SOL     OW44055   7.501  14.367   1.101
14053SOL    HW144056   7.429  14.305   1.117
14053SOL    HW244057   7.488  14.394   1.010
14054SOL     OW44058  10.542  12.130   8.664
14054SOL    HW144059  10.505  12.055   8.617
14054SOL    HW244060  10.634  12.106   8.678
14055SOL     OW44061  12.938   1.400   8.452
14055SOL    HW144062  13.033   1.411   8.461
14055SOL    HW244063  12.915   1.338   8.521
14056SOL     OW44064   2.112   6.154   7.164
14056SOL    HW144065   2.149   6.205   7.092
14056SOL    HW244066   2.175   6.163   7.236
14057SOL     OW44067   8.035  11.468   7.118
14057SOL    HW144068   8.062  11.391   7.068
14057SOL    HW244069   7.940  11.458   7.130
14058SOL     OW44070   1.851   3.447   0.185
14058SOL    HW144071   1.912   3.450   0.112
14058SOL    HW244072   1.872   3.526   0.236
14059SOL     OW44073  12.844   1.609  10.745
14059SOL    HW144074  12.758   1.606  10.704
14059SOL    HW244075  12.905   1.622  10.672
14060SOL     OW44076   1.022   7.422  13.779
14060SOL    HW144077   0.952   7.487  13.772
14060SOL    HW244078   1.075   7.435  13.700
14061SOL     OW44079   1.909   5.427   2.499
14061SOL    HW144080   1.866   5.343   2.515
14061SOL    HW244081   1.970   5.437   2.573
14062SOL     OW44082   2.145  14.134  12.002
14062SOL    HW144083   2.194  14.159  12.080
14062SOL    HW244084   2.077  14.201  11.994
14063SOL     OW44085  12.484   9.491   2.351
14063SOL    HW144086  12.550   9.532   2.296
14063SOL    HW244087  12.529   9.416   2.391
14064SOL     OW44088   1.596  10.148  14.378
14064SOL    HW144089   1.588  10.202  14.299
14064SOL    HW244090   1.514  10.165  14.426
14065SOL     OW44091   2.965   7.258   4.550
14065SOL    HW144092   2.977   7.321   4.621
14065SOL    HW244093   2.973   7.172   4.592
14066SOL     OW44094   0.770   0.536  11.594
14066SOL    HW144095   0.738   0.526  11.684
14066SOL    HW244096   0.862   0.512  11.598
14067SOL     OW44097  12.509   3.170   6.468
14067SOL    HW144098  12.518   3.129   6.554
14067SOL    HW244099  12.599   3.176   6.435
14068SOL     OW44100   5.738   9.591   2.378
14068SOL    HW144101   5.780   9.512   2.413
14068SOL    HW244102   5.795   9.619   2.306
14069SOL     OW44103  14.601  12.976   5.573
14069SOL    HW144104  14.602  13.065   5.607
14069SOL    HW244105  14.674  12.933   5.618
14070SOL     OW44106   3.169   2.752   9.484
14070SOL    HW144107   3.102   2.686   9.503
14070SOL    HW244108   3.216   2.763   9.566
14071SOL     OW44109   1.155   5.541  10.631
14071SOL    HW144110   1.121   5.452  10.622
14071SOL    HW244111   1.097   5.583  10.694
14072SOL     OW44112  11.308   6.272  10.378
14072SOL    HW144113  11.373   6.209  10.411
14072SOL    HW244114  11.332   6.355  10.419
14073SOL     OW44115  10.903   0.990   8.372
14073SOL    HW144116  10.944   1.060   8.322
14073SOL    HW244117  10.915   0.911   8.318
14074SOL     OW44118   0.636  14.067  11.692
14074SOL    HW144119   0.596  14.117  11.621
14074SOL    HW244120   0.599  14.104  11.772
14075SOL     OW44121   6.419   1.813  14.365
14075SOL    HW144122   6.485   1.812  14.296
14075SOL    HW244123   6.452   1.877  14.429
14076SOL     OW44124   7.253   1.788  10.781
14076SOL    HW144125   7.183   1.747  10.832
14076SOL    HW244126   7.208   1.851  10.724
14077SOL     OW44127   3.718   5.808   0.803
14077SOL    HW144128   3.651   5.824   0.868
14077SOL    HW244129   3.775   5.742   0.842
14078SOL     OW44130   1.858   1.205   8.373
14078SOL    HW144131   1.954   1.203   8.373
14078SOL    HW244132   1.835   1.254   8.294
14079SOL     OW44133  10.713   7.207   9.242
14079SOL    HW144134  10.734   7.154   9.165
14079SOL    HW244135  10.631   7.170   9.275
14080SOL     OW44136   8.887  10.869   3.030
14080SOL    HW144137   8.909  10.816   3.107
14080SOL    HW244138   8.812  10.825   2.992
14081SOL     OW44139   3.029  12.676  11.311
14081SOL    HW144140   3.086  12.696  11.237
14081SOL    HW244141   2.968  12.750  11.316
14082SOL     OW44142  14.508   8.771   5.834
14082SOL    HW144143  14.588   8.793   5.786
14082SOL    HW244144  14.517   8.817   5.918
14083SOL     OW44145   8.249   2.843  12.165
14083SOL    HW144146   8.341   2.846  12.137
14083SOL    HW244147   8.203   2.803  12.092
14084SOL     OW44148  10.509   6.531   0.416
14084SOL    HW144149  10.553   6.614   0.436
14084SOL    HW244150  10.520   6.479   0.496
14085SOL     OW44151   9.736  13.142   4.226
14085SOL    HW144152   9.642  13.128   4.215
14085SOL    HW244153   9.772  13.055   4.240
14086SOL     OW44154  13.936  14.321  11.555
14086SOL    HW144155  13.901  14.362  11.476
14086SOL    HW244156  13.907  14.230  11.550
14087SOL     OW44157  14.296   0.315   3.913
14087SOL    HW144158  14.391   0.318   3.897
14087SOL    HW244159  14.257   0.324   3.827
14088SOL     OW44160  10.150   7.964   7.755
14088SOL    HW144161  10.146   7.967   7.851
14088SOL    HW244162  10.237   7.996   7.734
14089SOL     OW44163   1.244   9.272   1.229
14089SOL    HW144164   1.299   9.201   1.195
14089SOL    HW244165   1.305   9.328   1.276
14090SOL     OW44166  12.636   7.535   5.378
14090SOL    HW144167  12.639   7.440   5.377
14090SOL    HW244168  12.562   7.557   5.434
14091SOL     OW44169   6.874   3.230   2.589
14091SOL    HW144170   6.965   3.235   2.562
14091SOL    HW244171   6.876   3.241   2.684
14092SOL     OW44172   3.022   1.169   4.051
14092SOL    HW144173   3.111   1.203   4.040
14092SOL    HW244174   2.967   1.248   4.055
14093SOL     OW44175  13.148   0.765  11.214
14093SOL    HW144176  13.240   0.739  11.222
14093SOL    HW244177  13.118   0.723  11.134
14094SOL     OW44178   8.334   0.885  10.145
14094SOL    HW144179   8.267   0.921  10.088
14094SOL    HW244180   8.373   0.813  10.094
14095SOL     OW44181   5.132   3.042  13.970
14095SOL    HW144182   5.223   3.018  13.953
14095SOL    HW244183   5.097   3.066  13.884
14096SOL     OW44184   3.874  12.934   8.909
14096SOL    HW144185   3.918  12.865   8.960
14096SOL    HW244186   3.945  12.981   8.866
14097SOL     OW44187   3.698  11.034   7.982
14097SOL    HW144188   3.643  11.107   8.011
14097SOL    HW244189   3.729  11.061   7.895
14098SOL     OW44190  13.033   5.331   2.297
14098SOL    HW144191  13.034   5.388   2.220
14098SOL    HW244192  13.007   5.245   2.262
14099SOL     OW44193   1.444   5.307   0.419
14099SOL    HW144194   1.425   5.252   0.495
14099SOL    HW244195   1.359   5.320   0.377
14100SOL     OW44196   4.415  13.030  10.527
14100SOL    HW144197   4.418  13.126  10.520
14100SOL    HW244198   4.340  13.005  10.472
14101SOL     OW44199   0.866  12.187  10.613
14101SOL    HW144200   0.838  12.096  10.627
14101SOL    HW244201   0.955  12.179  10.579
14102SOL     OW44202   5.407  10.915  10.642
14102SOL    HW144203   5.466  10.842  10.627
14102SOL    HW244204   5.458  10.993  10.619
14103SOL     OW44205   2.030   7.984   2.577
14103SOL    HW144206   2.028   7.922   2.505
14103SOL    HW244207   2.123   7.990   2.600
14104SOL     OW44208  13.031  10.259   1.014
14104SOL    HW144209  13.073  10.341   1.037
14104SOL    HW244210  13.012  10.267   0.920
14105SOL     OW44211   5.788   1.922  13.605
14105SOL    HW144212   5.881   1.904  13.614
14105SOL    HW244213   5.783   1.989  13.537
14106SOL     OW44214   8.099   0.767   0.924
14106SOL    HW144215   8.186   0.730   0.940
14106SOL    HW244216   8.109   0.820   0.846
14107SOL     OW44217   3.286   8.217   0.606
14107SOL    HW144218   3.270   8.298   0.654
14107SOL    HW244219   3.379   8.200   0.618
14108SOL     OW44220  12.187  13.913  10.996
14108SOL    HW144221  12.131  13.882  11.067
14108SOL    HW244222  12.269  13.864  11.007
14109SOL     OW44223  10.660  12.735   5.687
14109SOL    HW144224  10.655  12.820   5.644
14109SOL    HW244225  10.602  12.679   5.636
14110SOL     OW44226  10.623   2.865  11.557
14110SOL    HW144227  10.527   2.867  11.556
14110SOL    HW244228  10.649   2.935  11.498
14111SOL     OW44229  14.082   2.446  13.314
14111SOL    HW144230  14.099   2.517  13.376
14111SOL    HW244231  14.162   2.442  13.260
14112SOL     OW44232  11.922   0.975   5.425
14112SOL    HW144233  11.978   1.019   5.361
14112SOL    HW244234  11.884   0.902   5.376
14113SOL     OW44235   7.339   4.963   6.519
14113SOL    HW144236   7.337   4.942   6.426
14113SOL    HW244237   7.299   4.888   6.562
14114SOL     OW44238  11.397   1.946  12.891
14114SOL    HW144239  11.332   1.910  12.830
14114SOL    HW244240  11.418   1.872  12.948
14115SOL     OW44241   9.151   1.245   4.573
14115SOL    HW144242   9.152   1.296   4.492
14115SOL    HW244243   9.145   1.311   4.642
14116SOL     OW44244   2.048   3.528  13.500
14116SOL    HW144245   2.104   3.452  13.478
14116SOL    HW244246   1.963   3.506  13.462
14117SOL     OW44247   3.797  13.134  11.569
14117SOL    HW144248   3.876  13.179  11.539
14117SOL    HW244249   3.811  13.042  11.548
14118SOL     OW44250   6.562   8.545  12.923
14118SOL    HW144251   6.620   8.472  12.945
14118SOL    HW244252   6.479   8.522  12.965
14119SOL     OW44253   1.472   0.483  11.999
14119SOL    HW144254   1.539   0.544  12.030
14119SOL    HW244255   1.445   0.434  12.077
14120SOL     OW44256   3.709   1.727   2.158
14120SOL    HW144257   3.675   1.817   2.157
14120SOL    HW244258   3.706   1.701   2.250
14121SOL     OW44259   6.828  13.542   9.988
14121SOL    HW144260   6.869  13.470   9.941
14121SOL    HW244261   6.767  13.581   9.925
14122SOL     OW44262   3.064   2.985   8.918
14122SOL    HW144263   3.006   3.020   8.985
14122SOL    HW244264   3.102   2.906   8.958
14123SOL     OW44265  12.863  13.555   1.804
14123SOL    HW144266  12.831  13.467   1.824
14123SOL    HW244267  12.813  13.582   1.726
14124SOL     OW44268   2.018   2.365   5.793
14124SOL    HW144269   2.016   2.394   5.884
14124SOL    HW244270   2.027   2.270   5.798
14125SOL     OW44271   7.197  10.770   6.638
14125SOL    HW144272   7.221  10.719   6.715
14125SOL    HW244273   7.276  10.771   6.584
14126SOL     OW44274   3.270  14.455   9.847
14126SOL    HW144275   3.277  14.361   9.860
14126SOL    HW244276   3.191  14.467   9.794
14127SOL     OW44277  11.668  14.245   1.464
14127SOL    HW144278  11.671  14.305   1.390
14127SOL    HW244279  11.760  14.233   1.488
14128SOL     OW44280  14.431   9.049   7.911
14128SOL    HW144281  14.421   9.032   8.005
14128SOL    HW244282  14.506   8.996   7.885
14129SOL     OW44283   2.964   9.758   8.535
14129SOL    HW144284   2.967   9.805   8.618
14129SOL    HW244285   2.893   9.694   8.546
14130SOL     OW44286  12.204   2.027  11.990
14130SOL    HW144287  12.143   1.972  12.038
14130SOL    HW244288  12.158   2.048  11.908
14131SOL     OW44289   6.682   3.979   2.077
14131SOL    HW144290   6.637   3.984   2.161
14131SOL    HW244291   6.693   3.885   2.061
14132SOL     OW44292   1.677   8.669   8.140
14132SOL    HW144293   1.667   8.763   8.130
14132SOL    HW244294   1.739   8.659   8.212
14133SOL     OW44295   7.214   9.731   2.783
14133SOL    HW144296   7.186   9.657   2.836
14133SOL    HW244297   7.242   9.797   2.846
14134SOL     OW44298   2.158   8.457   0.793
14134SOL    HW144299   2.245   8.425   0.815
14134SOL    HW244300   2.145   8.428   0.702
14135SOL     OW44301   7.412   4.606  12.126
14135SOL    HW144302   7.433   4.526  12.077
14135SOL    HW244303   7.352   4.654  12.070
14136SOL     OW44304  11.511   1.759  13.339
14136SOL    HW144305  11.449   1.765  13.267
14136SOL    HW244306  11.504   1.844  13.384
14137SOL     OW44307  10.636   5.359  12.424
14137SOL    HW144308  10.609   5.450  12.413
14137SOL    HW244309  10.599   5.314  12.348
14138SOL     OW44310   8.524  10.918   6.251
14138SOL    HW144311   8.524  10.834   6.298
14138SOL    HW244312   8.514  10.984   6.320
14139SOL     OW44313   5.095   0.367   2.409
14139SOL    HW144314   5.159   0.335   2.345
14139SOL    HW244315   5.046   0.434   2.362
14140SOL     OW44316  14.807   6.871   8.190
14140SOL    HW144317   0.015   6.889   8.242
14140SOL    HW244318  14.789   6.952   8.143
14141SOL     OW44319   4.085   1.972  10.388
14141SOL    HW144320   3.996   2.000  10.367
14141SOL    HW244321   4.088   1.969  10.483
14142SOL     OW44322  12.578   2.612  11.447
14142SOL    HW144323  12.485   2.633  11.448
14142SOL    HW244324  12.581   2.517  11.438
14143SOL     OW44325  11.750   2.460  14.305
14143SOL    HW144326  11.661   2.458  14.270
14143SOL    HW244327  11.780   2.550  14.291
14144SOL     OW44328   7.932   3.313  10.806
14144SOL    HW144329   8.007   3.362  10.840
14144SOL    HW244330   7.952   3.301  10.713
14145SOL     OW44331  13.570   4.651   9.242
14145SOL    HW144332  13.480   4.626   9.260
14145SOL    HW244333  13.616   4.569   9.225
14146SOL     OW44334  14.457   5.931  10.409
14146SOL    HW144335  14.456   5.844  10.368
14146SOL    HW244336  14.371   5.967  10.392
14147SOL     OW44337   7.230  10.646   8.965
14147SOL    HW144338   7.307  10.593   8.985
14147SOL    HW244339   7.213  10.629   8.872
14148SOL     OW44340   1.921  12.050   0.297
14148SOL    HW144341   1.941  12.117   0.232
14148SOL    HW244342   1.992  11.987   0.290
14149SOL     OW44343   1.021   0.288  11.738
14149SOL    HW144344   1.091   0.342  11.701
14149SOL    HW244345   1.056   0.259  11.822
14150SOL     OW44346   1.457   3.882   3.574
14150SOL    HW144347   1.376   3.831   3.579
14150SOL    HW244348   1.493   3.879   3.663
14151SOL     OW44349  10.327   2.388   0.338
14151SOL    HW144350  10.267   2.463   0.338
14151SOL    HW244351  10.276   2.317   0.376
14152SOL     OW44352   8.762   6.922   0.095
14152SOL    HW144353   8.681   6.896   0.140
14152SOL    HW244354   8.826   6.856   0.121
14153SOL     OW44355   7.272  11.607  13.691
14153SOL    HW144356   7.177  11.597  13.687
14153SOL    HW244357   7.305  11.551  13.621
14154SOL     OW44358  11.000  11.036   3.130
14154SOL    HW144359  11.050  11.092   3.071
14154SOL    HW244360  11.041  10.950   3.121
14155SOL     OW44361   1.449   1.327  11.028
14155SOL    HW144362   1.421   1.401  10.975
14155SOL    HW244363   1.438   1.251  10.971
14156SOL     OW44364  13.813   1.068  10.446
14156SOL    HW144365  13.773   1.116  10.518
14156SOL    HW244366  13.905   1.060  10.471
14157SOL     OW44367   1.330  10.396  13.900
14157SOL    HW144368   1.268  10.420  13.831
14157SOL    HW244369   1.277  10.380  13.977
14158SOL     OW44370   9.135  13.172   5.242
14158SOL    HW144371   9.092  13.190   5.326
14158SOL    HW244372   9.085  13.099   5.205
14159SOL     OW44373   5.052   4.378   2.516
14159SOL    HW144374   5.103   4.440   2.463
14159SOL    HW244375   5.048   4.299   2.463
14160SOL     OW44376   1.758   1.873  10.644
14160SOL    HW144377   1.817   1.800  10.625
14160SOL    HW244378   1.701   1.840  10.714
14161SOL     OW44379   1.966  14.690   9.658
14161SOL    HW144380   1.907  14.698   9.584
14161SOL    HW244381   1.953  14.602   9.691
14162SOL     OW44382   2.651  13.939  10.608
14162SOL    HW144383   2.561  13.954  10.579
14162SOL    HW244384   2.641  13.897  10.694
14163SOL     OW44385   7.951   1.125   2.254
14163SOL    HW144386   7.939   1.155   2.164
14163SOL    HW244387   7.925   1.200   2.308
14164SOL     OW44388   7.499   3.512   0.603
14164SOL    HW144389   7.555   3.581   0.568
14164SOL    HW244390   7.455   3.553   0.678
14165SOL     OW44391  14.020   3.343   9.348
14165SOL    HW144392  13.940   3.361   9.299
14165SOL    HW244393  13.994   3.281   9.415
14166SOL     OW44394   3.859  10.418  10.419
14166SOL    HW144395   3.864  10.339  10.472
14166SOL    HW244396   3.889  10.488  10.477
14167SOL     OW44397   7.187   4.973   9.308
14167SOL    HW144398   7.239   4.914   9.362
14167SOL    HW244399   7.136   4.915   9.251
14168SOL     OW44400   6.142   1.958   5.304
14168SOL    HW144401   6.120   1.887   5.364
14168SOL    HW244402   6.231   1.983   5.329
14169SOL     OW44403  11.268   0.732   7.652
14169SOL    HW144404  11.274   0.718   7.558
14169SOL    HW244405  11.209   0.664   7.684
14170SOL     OW44406   8.143   2.325   5.628
14170SOL    HW144407   8.105   2.413   5.632
14170SOL    HW244408   8.088   2.273   5.686
14171SOL     OW44409   3.794   6.090  11.215
14171SOL    HW144410   3.766   6.180  11.196
14171SOL    HW244411   3.814   6.089  11.308
14172SOL     OW44412   9.897   8.643  11.765
14172SOL    HW144413   9.819   8.615  11.717
14172SOL    HW244414   9.916   8.730  11.732
14173SOL     OW44415   9.890   8.120   7.194
14173SOL    HW144416   9.849   8.201   7.225
14173SOL    HW244417   9.974   8.117   7.239
14174SOL     OW44418   4.017  11.719   0.927
14174SOL    HW144419   3.930  11.689   0.952
14174SOL    HW244420   4.016  11.813   0.947
14175SOL     OW44421   9.872   5.616   4.980
14175SOL    HW144422   9.944   5.599   5.041
14175SOL    HW244423   9.843   5.529   4.953
14176SOL     OW44424   9.812   2.639   1.279
14176SOL    HW144425   9.767   2.679   1.205
14176SOL    HW244426   9.849   2.714   1.327
14177SOL     OW44427   4.088  13.659  12.147
14177SOL    HW144428   3.995  13.680  12.147
14177SOL    HW244429   4.122  13.697  12.067
14178SOL     OW44430   3.452   2.261   0.776
14178SOL    HW144431   3.449   2.330   0.709
14178SOL    HW244432   3.517   2.292   0.839
14179SOL     OW44433   9.120  12.252   5.401
14179SOL    HW144434   9.166  12.169   5.417
14179SOL    HW244435   9.165  12.315   5.457
14180SOL     OW44436   6.433   8.467   2.392
14180SOL    HW144437   6.500   8.531   2.367
14180SOL    HW244438   6.435   8.466   2.487
14181SOL     OW44439  14.514  10.903   6.722
14181SOL    HW144440  14.547  10.915   6.811
14181SOL    HW244441  14.424  10.937   6.724
14182SOL     OW44442  12.056   5.466   0.352
14182SOL    HW144443  11.986   5.530   0.365
14182SOL    HW244444  12.120   5.511   0.296
14183SOL     OW44445  13.372  12.620   6.880
14183SOL    HW144446  13.342  12.548   6.823
14183SOL    HW244447  13.370  12.697   6.823
14184SOL     OW44448  10.762   0.378   2.535
14184SOL    HW144449  10.787   0.471   2.536
14184SOL    HW244450  10.844   0.332   2.521
14185SOL     OW44451  11.345   1.624   1.534
14185SOL    HW144452  11.367   1.682   1.606
14185SOL    HW244453  11.260   1.586   1.558
14186SOL     OW44454   5.480   6.874   3.127
14186SOL    HW144455   5.537   6.930   3.179
14186SOL    HW244456   5.405   6.857   3.183
14187SOL     OW44457   0.669   3.288   4.830
14187SOL    HW144458   0.627   3.305   4.914
14187SOL    HW244459   0.605   3.237   4.780
14188SOL     OW44460  10.584  12.571  10.795
14188SOL    HW144461  10.676  12.564  10.770
14188SOL    HW244462  10.584  12.622  10.876
14189SOL     OW44463   3.731   5.935  13.416
14189SOL    HW144464   3.722   5.987  13.336
14189SOL    HW244465   3.640   5.916  13.442
14190SOL     OW44466  11.162  10.726   0.966
14190SOL    HW144467  11.244  10.676   0.965
14190SOL    HW244468  11.123  10.710   0.880
14191SOL     OW44469   7.368  14.695  14.018
14191SOL    HW144470   7.416  14.646  14.085
14191SOL    HW244471   7.389  14.787  14.036
14192SOL     OW44472  10.165   6.066   7.914
14192SOL    HW144473  10.149   6.158   7.936
14192SOL    HW244474  10.122   6.016   7.983
14193SOL     OW44475   2.261  12.053  13.734
14193SOL    HW144476   2.317  11.996  13.681
14193SOL    HW244477   2.185  12.000  13.756
14194SOL     OW44478  13.194   4.677  10.874
14194SOL    HW144479  13.128   4.615  10.842
14194SOL    HW244480  13.238   4.708  10.795
14195SOL     OW44481  11.088   8.621   8.912
14195SOL    HW144482  11.118   8.568   8.838
14195SOL    HW244483  10.998   8.645   8.889
14196SOL     OW44484   9.275   1.884   9.221
14196SOL    HW144485   9.275   1.801   9.269
14196SOL    HW244486   9.359   1.924   9.242
14197SOL     OW44487   0.762   9.331   8.232
14197SOL    HW144488   0.785   9.416   8.197
14197SOL    HW244489   0.711   9.289   8.163
14198SOL     OW44490  10.195  13.834  12.132
14198SOL    HW144491  10.205  13.842  12.037
14198SOL    HW244492  10.103  13.808  12.144
14199SOL     OW44493  10.600   1.372  11.981
14199SOL    HW144494  10.647   1.456  11.979
14199SOL    HW244495  10.509   1.396  11.998
14200SOL     OW44496   1.210  10.439   1.519
14200SOL    HW144497   1.293  10.464   1.479
14200SOL    HW244498   1.212  10.481   1.605
14201SOL     OW44499  14.552  13.118   6.148
14201SOL    HW144500  14.483  13.171   6.108
14201SOL    HW244501  14.626  13.177   6.157
14202SOL     OW44502  13.947   1.687   1.202
14202SOL    HW144503  13.918   1.600   1.228
14202SOL    HW244504  14.033   1.696   1.243
14203SOL     OW44505   2.708   3.379  14.656
14203SOL    HW144506   2.656   3.423  14.723
14203SOL    HW244507   2.710   3.441  14.583
14204SOL     OW44508  13.498  12.186   5.357
14204SOL    HW144509  13.545  12.269   5.350
14204SOL    HW244510  13.421  12.198   5.302
14205SOL     OW44511   7.671   4.129  12.956
14205SOL    HW144512   7.737   4.107  13.022
14205SOL    HW244513   7.596   4.158  13.008
14206SOL     OW44514  11.703   0.483   0.438
14206SOL    HW144515  11.771   0.443   0.384
14206SOL    HW244516  11.649   0.533   0.376
14207SOL     OW44517   5.279   5.974   5.344
14207SOL    HW144518   5.291   5.881   5.326
14207SOL    HW244519   5.348   6.017   5.293
14208SOL     OW44520   5.128   4.087  14.748
14208SOL    HW144521   5.202   4.026  14.755
14208SOL    HW244522   5.166   4.172  14.772
14209SOL     OW44523   0.555   1.351   1.540
14209SOL    HW144524   0.487   1.409   1.575
14209SOL    HW244525   0.636   1.401   1.551
14210SOL     OW44526   8.793   5.443   3.388
14210SOL    HW144527   8.747   5.370   3.430
14210SOL    HW244528   8.809   5.506   3.458
14211SOL     OW44529   0.961  13.308   9.249
14211SOL    HW144530   1.035  13.361   9.220
14211SOL    HW244531   0.924  13.272   9.168
14212SOL     OW44532  11.369  13.741   5.056
14212SOL    HW144533  11.315  13.674   5.014
14212SOL    HW244534  11.391  13.802   4.986
14213SOL     OW44535  10.480   1.196   7.617
14213SOL    HW144536  10.429   1.277   7.610
14213SOL    HW244537  10.417   1.126   7.606
14214SOL     OW44538  13.050   5.680  12.316
14214SOL    HW144539  13.134   5.662  12.275
14214SOL    HW244540  13.003   5.596  12.314
14215SOL     OW44541   7.793  13.042  12.770
14215SOL    HW144542   7.876  13.023  12.814
14215SOL    HW244543   7.816  13.047  12.677
14216SOL     OW44544  13.326   9.347   9.774
14216SOL    HW144545  13.265   9.291   9.822
14216SOL    HW244546  13.318   9.433   9.815
14217SOL     OW44547   0.358  10.995   0.921
14217SOL    HW144548   0.405  10.914   0.905
14217SOL    HW244549   0.352  11.036   0.834
14218SOL     OW44550  13.573   1.249   1.950
14218SOL    HW144551  13.642   1.185   1.966
14218SOL    HW244552  13.494   1.197   1.935
14219SOL     OW44553   7.921   1.262   9.446
14219SOL    HW144554   7.831   1.233   9.462
14219SOL    HW244555   7.970   1.181   9.429
14220SOL     OW44556   1.483   4.635   5.883
14220SOL    HW144557   1.569   4.676   5.894
14220SOL    HW244558   1.462   4.647   5.791
14221SOL     OW44559   2.732  12.060  10.704
14221SOL    HW144560   2.743  12.073  10.798
14221SOL    HW244561   2.654  12.005  10.697
14222SOL     OW44562  14.719   4.801   0.993
14222SOL    HW144563  14.625   4.803   0.979
14222SOL    HW244564  14.757   4.829   0.909
14223SOL     OW44565  11.169   5.399   8.409
14223SOL    HW144566  11.244   5.340   8.421
14223SOL    HW244567  11.106   5.346   8.360
14224SOL     OW44568   2.326   3.864  12.894
14224SOL    HW144569   2.355   3.943  12.938
14224SOL    HW244570   2.406   3.824  12.859
14225SOL     OW44571   9.698  11.387   8.304
14225SOL    HW144572   9.655  11.302   8.310
14225SOL    HW244573   9.752  11.382   8.225
14226SOL     OW44574  13.756  10.747  13.162
14226SOL    HW144575  13.831  10.746  13.221
14226SOL    HW244576  13.733  10.655  13.150
14227SOL     OW44577   8.945   9.362   9.334
14227SOL    HW144578   8.902   9.388   9.253
14227SOL    HW244579   8.933   9.267   9.338
14228SOL     OW44580   1.803   0.621   0.043
14228SOL    HW144581   1.871   0.561   0.011
14228SOL    HW244582   1.844   0.666   0.117
14229SOL     OW44583   0.207  10.139  11.296
14229SOL    HW144584   0.116  10.149  11.270
14229SOL    HW244585   0.242  10.074  11.235
14230SOL     OW44586   5.692   6.292   2.189
14230SOL    HW144587   5.746   6.295   2.111
14230SOL    HW244588   5.700   6.202   2.221
14231SOL     OW44589   4.224   8.271   3.891
14231SOL    HW144590   4.185   8.357   3.875
14231SOL    HW244591   4.232   8.232   3.804
14232SOL     OW44592   6.012   4.404  13.093
14232SOL    HW144593   5.997   4.310  13.082
14232SOL    HW244594   5.952   4.431  13.163
14233SOL     OW44595   4.537  12.999  13.566
14233SOL    HW144596   4.479  12.978  13.493
14233SOL    HW244597   4.612  12.941  13.554
14234SOL     OW44598   3.938  14.705  13.094
14234SOL    HW144599   3.969  14.675  13.009
14234SOL    HW244600   3.976  14.645  13.157
14235SOL     OW44601   7.168   1.650  13.813
14235SOL    HW144602   7.171   1.625  13.720
14235SOL    HW244603   7.200   1.574  13.860
14236SOL     OW44604   5.237   1.238   4.928
14236SOL    HW144605   5.290   1.308   4.891
14236SOL    HW244606   5.236   1.257   5.022
14237SOL     OW44607   2.935   2.182  11.159
14237SOL    HW144608   2.951   2.144  11.073
14237SOL    HW244609   2.845   2.157  11.180
14238SOL     OW44610   6.573   2.461   4.810
14238SOL    HW144611   6.632   2.465   4.885
14238SOL    HW244612   6.586   2.373   4.774
14239SOL     OW44613  10.450   0.585  13.456
14239SOL    HW144614  10.363   0.579  13.417
14239SOL    HW244615  10.435   0.590  13.550
14240SOL     OW44616   2.364   4.562  10.530
14240SOL    HW144617   2.316   4.599  10.604
14240SOL    HW244618   2.456   4.561  10.559
14241SOL     OW44619   0.722   9.581  13.786
14241SOL    HW144620   0.777   9.605  13.712
14241SOL    HW244621   0.636   9.618  13.764
14242SOL     OW44622  10.120   6.190   7.526
14242SOL    HW144623  10.154   6.123   7.585
14242SOL    HW244624  10.035   6.156   7.498
14243SOL     OW44625   7.786   1.252  12.493
14243SOL    HW144626   7.770   1.270  12.401
14243SOL    HW244627   7.816   1.161  12.495
14244SOL     OW44628  10.907   3.115   3.154
14244SOL    HW144629  10.975   3.091   3.216
14244SOL    HW244630  10.931   3.071   3.072
14245SOL     OW44631   1.421   9.518   9.598
14245SOL    HW144632   1.372   9.497   9.518
14245SOL    HW244633   1.404   9.611   9.612
14246SOL     OW44634   4.195  11.377   4.495
14246SOL    HW144635   4.203  11.295   4.544
14246SOL    HW244636   4.255  11.366   4.421
14247SOL     OW44637  11.292   7.653   4.620
14247SOL    HW144638  11.313   7.586   4.685
14247SOL    HW244639  11.266   7.729   4.673
14248SOL     OW44640  10.177   8.889  13.204
14248SOL    HW144641  10.157   8.797  13.190
14248SOL    HW244642  10.123   8.936  13.141
14249SOL     OW44643   6.087   8.668  12.927
14249SOL    HW144644   6.103   8.759  12.952
14249SOL    HW244645   5.995   8.654  12.947
14250SOL     OW44646   5.519   6.397   8.384
14250SOL    HW144647   5.573   6.438   8.451
14250SOL    HW244648   5.534   6.303   8.395
14251SOL     OW44649  11.583  12.881   4.335
14251SOL    HW144650  11.554  12.834   4.257
14251SOL    HW244651  11.604  12.969   4.303
14252SOL     OW44652   2.362   0.210   7.703
14252SOL    HW144653   2.357   0.285   7.762
14252SOL    HW244654   2.318   0.239   7.623
14253SOL     OW44655   5.003  10.153   4.451
14253SOL    HW144656   4.972  10.231   4.405
14253SOL    HW244657   4.948  10.147   4.529
14254SOL     OW44658   2.300   2.891   7.689
14254SOL    HW144659   2.218   2.840   7.693
14254SOL    HW244660   2.326   2.900   7.781
14255SOL     OW44661   7.131  11.111   9.520
14255SOL    HW144662   7.048  11.081   9.559
14255SOL    HW244663   7.134  11.069   9.434
14256SOL     OW44664   5.118   1.701  11.984
14256SOL    HW144665   5.134   1.781  12.035
14256SOL    HW244666   5.029   1.711  11.950
14257SOL     OW44667   4.722   2.887   6.788
14257SOL    HW144668   4.798   2.943   6.803
14257SOL    HW244669   4.737   2.811   6.845
14258SOL     OW44670   3.607  13.896   3.075
14258SOL    HW144671   3.560  13.973   3.107
14258SOL    HW244672   3.699  13.918   3.085
14259SOL     OW44673   7.296   4.371   0.840
14259SOL    HW144674   7.304   4.296   0.782
14259SOL    HW244675   7.378   4.419   0.830
14260SOL     OW44676   9.980   8.491  13.162
14260SOL    HW144677  10.073   8.478  13.182
14260SOL    HW244678   9.980   8.563  13.099
14261SOL     OW44679  10.097   9.150   0.678
14261SOL    HW144680  10.117   9.093   0.604
14261SOL    HW244681  10.050   9.224   0.639
14262SOL     OW44682   3.976   5.944   0.234
14262SOL    HW144683   3.948   5.981   0.317
14262SOL    HW244684   3.972   5.849   0.247
14263SOL     OW44685   1.442  13.034   6.236
14263SOL    HW144686   1.485  13.103   6.286
14263SOL    HW244687   1.432  12.962   6.298
14264SOL     OW44688   7.393   3.155  13.221
14264SOL    HW144689   7.321   3.191  13.273
14264SOL    HW244690   7.407   3.220  13.152
14265SOL     OW44691  10.936  10.662   9.419
14265SOL    HW144692  11.016  10.709   9.441
14265SOL    HW244693  10.947  10.637   9.328
14266SOL     OW44694   3.581   9.245  10.633
14266SOL    HW144695   3.614   9.236  10.544
14266SOL    HW244696   3.531   9.327  10.633
14267SOL     OW44697  10.742   6.129   0.701
14267SOL    HW144698  10.780   6.211   0.667
14267SOL    HW244699  10.816   6.068   0.704
14268SOL     OW44700   4.831   8.335  13.673
14268SOL    HW144701   4.852   8.244  13.651
14268SOL    HW244702   4.901   8.386  13.632
14269SOL     OW44703   3.878   2.964   3.595
14269SOL    HW144704   3.824   3.011   3.659
14269SOL    HW244705   3.925   3.033   3.548
14270SOL     OW44706  10.969   0.985   1.713
14270SOL    HW144707  10.909   0.913   1.695
14270SOL    HW244708  11.000   0.968   1.802
14271SOL     OW44709   9.202   4.939   6.800
14271SOL    HW144710   9.179   4.944   6.707
14271SOL    HW244711   9.225   4.847   6.814
14272SOL     OW44712   7.265  12.043  11.971
14272SOL    HW144713   7.213  11.977  11.927
14272SOL    HW244714   7.201  12.106  12.004
14273SOL     OW44715  13.554   8.853  11.221
14273SOL    HW144716  13.567   8.758  11.214
14273SOL    HW244717  13.638   8.891  11.198
14274SOL     OW44718   2.641  11.116   2.827
14274SOL    HW144719   2.611  11.048   2.888
14274SOL    HW244720   2.645  11.072   2.742
14275SOL     OW44721   8.032   1.926  10.991
14275SOL    HW144722   8.004   1.917  10.900
14275SOL    HW244723   8.125   1.902  10.990
14276SOL     OW44724  11.758   5.217  10.685
14276SOL    HW144725  11.671   5.256  10.692
14276SOL    HW244726  11.747   5.144  10.623
14277SOL     OW44727   2.882   7.752   0.223
14277SOL    HW144728   2.978   7.753   0.219
14277SOL    HW244729   2.863   7.752   0.317
14278SOL     OW44730   3.613   7.661   4.436
14278SOL    HW144731   3.675   7.648   4.364
14278SOL    HW244732   3.647   7.606   4.506
14279SOL     OW44733  14.456   5.182   4.891
14279SOL    HW144734  14.478   5.226   4.809
14279SOL    HW244735  14.382   5.232   4.926
14280SOL     OW44736   8.292   0.408   0.230
14280SOL    HW144737   8.318   0.322   0.261
14280SOL    HW244738   8.196   0.408   0.237
14281SOL     OW44739  13.133   5.442   9.073
14281SOL    HW144740  13.045   5.412   9.051
14281SOL    HW244741  13.182   5.362   9.092
14282SOL     OW44742   0.176   4.688   2.583
14282SOL    HW144743   0.208   4.601   2.606
14282SOL    HW244744   0.249   4.747   2.600
14283SOL     OW44745   1.270   0.764   0.383
14283SOL    HW144746   1.256   0.731   0.295
14283SOL    HW244747   1.192   0.736   0.432
14284SOL     OW44748  12.787  14.516   8.692
14284SOL    HW144749  12.725  14.555   8.631
14284SOL    HW244750  12.740  14.443   8.731
14285SOL     OW44751  13.169   5.787  10.708
14285SOL    HW144752  13.171   5.785  10.613
14285SOL    HW244753  13.111   5.716  10.733
14286SOL     OW44754   5.954   3.748   0.406
14286SOL    HW144755   5.989   3.759   0.317
14286SOL    HW244756   5.986   3.825   0.453
14287SOL     OW44757   8.933   7.547  11.266
14287SOL    HW144758   8.896   7.626  11.305
14287SOL    HW244759   8.927   7.481  11.335
14288SOL     OW44760   9.148   7.876   1.749
14288SOL    HW144761   9.107   7.950   1.793
14288SOL    HW244762   9.081   7.844   1.688
14289SOL     OW44763   0.349  10.015   4.665
14289SOL    HW144764   0.323  10.046   4.578
14289SOL    HW244765   0.433   9.971   4.650
14290SOL     OW44766  14.704   9.742   3.756
14290SOL    HW144767  14.733   9.819   3.707
14290SOL    HW244768  14.609   9.754   3.765
14291SOL     OW44769  14.350  12.752  11.086
14291SOL    HW144770  14.377  12.662  11.103
14291SOL    HW244771  14.265  12.759  11.129
14292SOL     OW44772  14.222  13.423   3.600
14292SOL    HW144773  14.239  13.329   3.612
14292SOL    HW244774  14.131  13.427   3.569
14293SOL     OW44775  13.885  10.746   2.926
14293SOL    HW144776  13.919  10.681   2.987
14293SOL    HW244777  13.876  10.826   2.979
14294SOL     OW44778   5.468  11.363  13.797
14294SOL    HW144779   5.422  11.385  13.879
14294SOL    HW244780   5.478  11.268  13.799
14295SOL     OW44781   2.684  14.220   6.926
14295SOL    HW144782   2.758  14.164   6.947
14295SOL    HW244783   2.716  14.309   6.943
14296SOL     OW44784  12.312   8.842   7.926
14296SOL    HW144785  12.394   8.871   7.966
14296SOL    HW244786  12.332   8.757   7.888
14297SOL     OW44787   5.848  11.076  14.606
14297SOL    HW144788   5.911  11.021  14.559
14297SOL    HW244789   5.899  11.122  14.672
14298SOL     OW44790  13.883  11.641   8.416
14298SOL    HW144791  13.879  11.551   8.385
14298SOL    HW244792  13.792  11.671   8.412
14299SOL     OW44793   3.980   6.825  14.460
14299SOL    HW144794   3.983   6.848  14.367
14299SOL    HW244795   3.963   6.908  14.504
14300SOL     OW44796   7.302  12.852   5.134
14300SOL    HW144797   7.245  12.881   5.063
14300SOL    HW244798   7.243  12.810   5.197
14301SOL     OW44799   4.333  11.983  11.584
14301SOL    HW144800   4.310  11.988  11.676
14301SOL    HW244801   4.250  11.971  11.539
14302SOL     OW44802   9.306   0.887   2.855
14302SOL    HW144803   9.327   0.973   2.890
14302SOL    HW244804   9.366   0.827   2.899
14303SOL     OW44805   0.620  13.764   6.026
14303SOL    HW144806   0.533  13.725   6.032
14303SOL    HW244807   0.647  13.775   6.118
14304SOL     OW44808   0.854   1.134   9.774
14304SOL    HW144809   0.879   1.043   9.789
14304SOL    HW244810   0.913   1.164   9.705
14305SOL     OW44811   6.615  10.425   3.059
14305SOL    HW144812   6.662  10.504   3.084
14305SOL    HW244813   6.684  10.363   3.032
14306SOL     OW44814   2.915   4.603   7.632
14306SOL    HW144815   2.897   4.695   7.615
14306SOL    HW244816   2.913   4.596   7.728
14307SOL     OW44817  11.267  13.188  14.840
14307SOL    HW144818  11.315  13.234   0.040
14307SOL    HW244819  11.176  13.216  14.850
14308SOL     OW44820   8.487  12.716   9.649
14308SOL    HW144821   8.444  12.785   9.598
14308SOL    HW244822   8.494  12.753   9.737
14309SOL     OW44823   5.081   2.330  14.089
14309SOL    HW144824   5.071   2.345  14.183
14309SOL    HW244825   5.045   2.242  14.075
14310SOL     OW44826   8.143  11.625   4.896
14310SOL    HW144827   8.060  11.647   4.852
14310SOL    HW244828   8.143  11.679   4.975
14311SOL     OW44829   6.957  10.058  14.307
14311SOL    HW144830   6.900  10.105  14.368
14311SOL    HW244831   7.010  10.126  14.265
14312SOL     OW44832   3.776   2.470  12.481
14312SOL    HW144833   3.827   2.393  12.456
14312SOL    HW244834   3.839   2.541  12.482
14313SOL     OW44835   7.188   6.568  11.454
14313SOL    HW144836   7.137   6.492  11.427
14313SOL    HW244837   7.259   6.532  11.507
14314SOL     OW44838  11.990   3.836   3.013
14314SOL    HW144839  12.034   3.754   3.036
14314SOL    HW244840  12.054   3.882   2.958
14315SOL     OW44841   3.885   8.670   5.929
14315SOL    HW144842   3.868   8.738   5.994
14315SOL    HW244843   3.950   8.708   5.871
14316SOL     OW44844  14.134  14.789   1.186
14316SOL    HW144845  14.169  14.710   1.144
14316SOL    HW244846  14.044  14.795   1.154
14317SOL     OW44847  10.152  12.439   6.135
14317SOL    HW144848  10.218  12.453   6.203
14317SOL    HW244849  10.190  12.479   6.057
14318SOL     OW44850   9.740   3.895   4.540
14318SOL    HW144851   9.682   3.831   4.582
14318SOL    HW244852   9.725   3.976   4.590
14319SOL     OW44853   7.087  13.123   1.097
14319SOL    HW144854   7.050  13.172   1.024
14319SOL    HW244855   7.041  13.039   1.095
14320SOL     OW44856   3.856   9.796  13.424
14320SOL    HW144857   3.770   9.818  13.386
14320SOL    HW244858   3.912   9.780  13.349
14321SOL     OW44859   4.322   2.410   3.515
14321SOL    HW144860   4.321   2.377   3.605
14321SOL    HW244861   4.401   2.464   3.510
14322SOL     OW44862  12.990   3.358  10.307
14322SOL    HW144863  13.060   3.421  10.290
14322SOL    HW244864  12.936   3.361  10.228
14323SOL     OW44865   3.597   2.075   9.319
14323SOL    HW144866   3.612   2.102   9.409
14323SOL    HW244867   3.516   2.120   9.293
14324SOL     OW44868  14.832   5.213   3.371
14324SOL    HW144869   0.006   5.264   3.303
14324SOL    HW244870  14.801   5.134   3.326
14325SOL     OW44871   8.752   3.721   6.721
14325SOL    HW144872   8.711   3.651   6.772
14325SOL    HW244873   8.681   3.781   6.700
14326SOL     OW44874   7.432  10.620   4.188
14326SOL    HW144875   7.480  10.580   4.116
14326SOL    HW244876   7.393  10.547   4.235
14327SOL     OW44877   9.764   1.242   0.199
14327SOL    HW144878   9.846   1.212   0.238
14327SOL    HW244879   9.705   1.168   0.207
14328SOL     OW44880   8.923   4.350  12.160
14328SOL    HW144881   8.896   4.299  12.237
14328SOL    HW244882   8.854   4.333  12.095
14329SOL     OW44883   1.159   1.888   7.240
14329SOL    HW144884   1.136   1.947   7.312
14329SOL    HW244885   1.116   1.805   7.262
14330SOL     OW44886   9.612   9.481   5.536
14330SOL    HW144887   9.539   9.447   5.485
14330SOL    HW244888   9.588   9.465   5.627
14331SOL     OW44889   9.277   9.377   1.492
14331SOL    HW144890   9.242   9.356   1.406
14331SOL    HW244891   9.365   9.409   1.475
14332SOL     OW44892   6.599   0.981   8.077
14332SOL    HW144893   6.584   1.033   7.998
14332SOL    HW244894   6.680   0.932   8.058
14333SOL     OW44895  10.136  13.234   1.874
14333SOL    HW144896  10.087  13.314   1.893
14333SOL    HW244897  10.112  13.212   1.784
14334SOL     OW44898   8.807   9.198   0.739
14334SOL    HW144899   8.891   9.239   0.755
14334SOL    HW244900   8.770   9.182   0.826
14335SOL     OW44901   8.502   1.288   5.243
14335SOL    HW144902   8.503   1.368   5.190
14335SOL    HW244903   8.520   1.218   5.180
14336SOL     OW44904  13.753   7.846  12.711
14336SOL    HW144905  13.664   7.827  12.740
14336SOL    HW244906  13.763   7.940  12.725
14337SOL     OW44907  13.508   7.833   9.190
14337SOL    HW144908  13.508   7.757   9.248
14337SOL    HW244909  13.520   7.797   9.102
14338SOL     OW44910   1.249  13.913   6.791
14338SOL    HW144911   1.259  13.936   6.698
14338SOL    HW244912   1.187  13.840   6.790
14339SOL     OW44913   9.222   7.392   1.072
14339SOL    HW144914   9.242   7.469   1.127
14339SOL    HW244915   9.305   7.373   1.028
14340SOL     OW44916  12.865   2.046   2.878
14340SOL    HW144917  12.864   2.130   2.925
14340SOL    HW244918  12.861   1.980   2.947
14341SOL     OW44919  10.260   7.005  13.299
14341SOL    HW144920  10.318   6.983  13.226
14341SOL    HW244921  10.188   6.943  13.290
14342SOL     OW44922   7.464   6.754   8.149
14342SOL    HW144923   7.443   6.781   8.060
14342SOL    HW244924   7.555   6.725   8.145
14343SOL     OW44925   9.607  13.645   8.329
14343SOL    HW144926   9.605  13.598   8.245
14343SOL    HW244927   9.698  13.643   8.356
14344SOL     OW44928   3.802  11.749   8.008
14344SOL    HW144929   3.860  11.811   8.053
14344SOL    HW244930   3.808  11.775   7.916
14345SOL     OW44931   2.424   2.892  10.799
14345SOL    HW144932   2.420   2.821  10.863
14345SOL    HW244933   2.453   2.968  10.849
14346SOL     OW44934   7.152   2.811   8.304
14346SOL    HW144935   7.225   2.855   8.261
14346SOL    HW244936   7.171   2.819   8.398
14347SOL     OW44937   8.893   4.118   5.907
14347SOL    HW144938   8.805   4.081   5.919
14347SOL    HW244939   8.909   4.167   5.988
14348SOL     OW44940   1.435  14.482  13.597
14348SOL    HW144941   1.375  14.516  13.663
14348SOL    HW244942   1.505  14.439  13.647
14349SOL     OW44943  14.618   3.088   1.532
14349SOL    HW144944  14.686   3.077   1.599
14349SOL    HW244945  14.666   3.079   1.449
14350SOL     OW44946  13.778  10.072  11.694
14350SOL    HW144947  13.696  10.081  11.645
14350SOL    HW244948  13.766  10.127  11.771
14351SOL     OW44949  12.428  12.168   2.092
14351SOL    HW144950  12.347  12.191   2.137
14351SOL    HW244951  12.408  12.178   1.999
14352SOL     OW44952   3.343   8.432   6.048
14352SOL    HW144953   3.300   8.370   5.989
14352SOL    HW244954   3.409   8.476   5.994
14353SOL     OW44955   6.126   8.018   9.179
14353SOL    HW144956   6.069   7.965   9.123
14353SOL    HW244957   6.186   8.061   9.117
14354SOL     OW44958   5.893   1.144   5.578
14354SOL    HW144959   5.829   1.179   5.641
14354SOL    HW244960   5.842   1.082   5.525
14355SOL     OW44961   3.872   2.218  14.663
14355SOL    HW144962   3.941   2.283  14.648
14355SOL    HW244963   3.810   2.262  14.722
14356SOL     OW44964   9.358   4.767   9.314
14356SOL    HW144965   9.428   4.832   9.310
14356SOL    HW244966   9.320   4.766   9.226
14357SOL     OW44967  11.707   6.840   8.478
14357SOL    HW144968  11.693   6.901   8.405
14357SOL    HW244969  11.692   6.754   8.439
14358SOL     OW44970  12.680   0.140  12.202
14358SOL    HW144971  12.771   0.159  12.225
14358SOL    HW244972  12.656   0.067  12.259
14359SOL     OW44973  14.739   9.646  11.208
14359SOL    HW144974  14.661   9.696  11.184
14359SOL    HW244975  14.782   9.699  11.275
14360SOL     OW44976  13.610   1.697   8.040
14360SOL    HW144977  13.647   1.779   8.006
14360SOL    HW244978  13.653   1.628   7.989
14361SOL     OW44979   9.190   0.834   4.134
14361SOL    HW144980   9.117   0.892   4.155
14361SOL    HW244981   9.245   0.886   4.075
14362SOL     OW44982   7.948   9.665   4.363
14362SOL    HW144983   7.892   9.627   4.432
14362SOL    HW244984   7.891   9.727   4.318
14363SOL     OW44985  12.607   5.531  12.405
14363SOL    HW144986  12.655   5.560  12.328
14363SOL    HW244987  12.628   5.595  12.473
14364SOL     OW44988   3.852  10.994   3.968
14364SOL    HW144989   3.912  11.064   3.992
14364SOL    HW244990   3.892  10.953   3.891
14365SOL     OW44991   0.658  12.210   9.601
14365SOL    HW144992   0.620  12.298   9.590
14365SOL    HW244993   0.634  12.184   9.689
14366SOL     OW44994   9.518   5.709   4.629
14366SOL    HW144995   9.530   5.804   4.628
14366SOL    HW244996   9.488   5.690   4.717
14367SOL     OW44997   5.155  13.103  10.640
14367SOL    HW144998   5.184  13.181  10.688
14367SOL    HW244999   5.066  13.124  10.613
14368SOL     OW45000  12.866   1.786  12.026
14368SOL    HW145001  12.938   1.724  12.037
14368SOL    HW245002  12.825   1.760  11.944
14369SOL     OW45003   2.486   2.687   4.267
14369SOL    HW145004   2.468   2.730   4.183
14369SOL    HW245005   2.520   2.756   4.323
14370SOL     OW45006  14.191  10.771   2.862
14370SOL    HW145007  14.179  10.781   2.768
14370SOL    HW245008  14.112  10.726   2.892
14371SOL     OW45009   5.148   5.292   2.763
14371SOL    HW145010   5.183   5.290   2.674
14371SOL    HW245011   5.078   5.358   2.759
14372SOL     OW45012   7.379   7.310   3.665
14372SOL    HW145013   7.386   7.256   3.744
14372SOL    HW245014   7.388   7.248   3.593
14373SOL     OW45015   9.933   7.788   7.718
14373SOL    HW145016   9.862   7.847   7.743
14373SOL    HW245017  10.013   7.841   7.728
14374SOL     OW45018   5.421  10.873   8.690
14374SOL    HW145019   5.453  10.925   8.616
14374SOL    HW245020   5.475  10.901   8.764
14375SOL     OW45021   3.614   3.719  13.509
14375SOL    HW145022   3.687   3.764  13.467
14375SOL    HW245023   3.653   3.675  13.584
14376SOL     OW45024   7.031  10.401   3.015
14376SOL    HW145025   6.941  10.378   3.039
14376SOL    HW245026   7.079  10.400   3.097
14377SOL     OW45027   6.806   1.976   3.188
14377SOL    HW145028   6.780   2.040   3.121
14377SOL    HW245029   6.815   2.028   3.268
14378SOL     OW45030  10.208  11.345   6.012
14378SOL    HW145031  10.188  11.437   5.993
14378SOL    HW245032  10.207  11.302   5.926
14379SOL     OW45033  10.511   4.289  13.026
14379SOL    HW145034  10.526   4.320  13.116
14379SOL    HW245035  10.453   4.355  12.987
14380SOL     OW45036   1.563   6.022   9.522
14380SOL    HW145037   1.559   6.008   9.428
14380SOL    HW245038   1.528   5.942   9.560
14381SOL     OW45039   0.758  12.478   0.261
14381SOL    HW145040   0.726  12.404   0.311
14381SOL    HW245041   0.841  12.502   0.302
14382SOL     OW45042   6.652   7.018   2.254
14382SOL    HW145043   6.588   7.003   2.323
14382SOL    HW245044   6.689   7.104   2.274
14383SOL     OW45045   6.495   9.410  10.929
14383SOL    HW145046   6.573   9.434  10.880
14383SOL    HW245047   6.473   9.321  10.899
14384SOL     OW45048   6.480   6.380  12.547
14384SOL    HW145049   6.443   6.414  12.466
14384SOL    HW245050   6.568   6.416  12.550
14385SOL     OW45051  13.777  12.680   5.430
14385SOL    HW145052  13.735  12.729   5.359
14385SOL    HW245053  13.717  12.608   5.448
14386SOL     OW45054  12.468  11.512   1.864
14386SOL    HW145055  12.491  11.598   1.900
14386SOL    HW245056  12.393  11.484   1.917
14387SOL     OW45057   5.102   0.690   9.575
14387SOL    HW145058   5.060   0.644   9.503
14387SOL    HW245059   5.070   0.780   9.568
14388SOL     OW45060   8.469   6.286   8.834
14388SOL    HW145061   8.481   6.232   8.756
14388SOL    HW245062   8.481   6.375   8.803
14389SOL     OW45063  10.083  13.877   9.591
14389SOL    HW145064  10.133  13.798   9.573
14389SOL    HW245065  10.149  13.943   9.613
14390SOL     OW45066   5.134   4.281   2.917
14390SOL    HW145067   5.178   4.215   2.971
14390SOL    HW245068   5.182   4.280   2.834
14391SOL     OW45069   9.701  14.795   3.350
14391SOL    HW145070   9.785  14.760   3.381
14391SOL    HW245071   9.641  14.783   3.423
14392SOL     OW45072   2.071   1.788   8.164
14392SOL    HW145073   1.991   1.837   8.183
14392SOL    HW245074   2.122   1.793   8.245
14393SOL     OW45075   9.363   8.805   2.326
14393SOL    HW145076   9.419   8.794   2.402
14393SOL    HW245077   9.403   8.750   2.259
14394SOL     OW45078  14.627   8.095   1.970
14394SOL    HW145079  14.609   8.042   1.892
14394SOL    HW245080  14.542   8.133   1.993
14395SOL     OW45081  13.804   8.559  12.513
14395SOL    HW145082  13.812   8.489  12.448
14395SOL    HW245083  13.760   8.630  12.466
14396SOL     OW45084  14.090   6.595   5.457
14396SOL    HW145085  14.058   6.506   5.473
14396SOL    HW245086  14.159   6.609   5.522
14397SOL     OW45087   7.589   3.104  14.437
14397SOL    HW145088   7.525   3.175  14.429
14397SOL    HW245089   7.641   3.126  14.514
14398SOL     OW45090   1.722   2.981   1.880
14398SOL    HW145091   1.656   3.021   1.935
14398SOL    HW245092   1.758   3.054   1.828
14399SOL     OW45093  14.036  14.473   2.709
14399SOL    HW145094  14.066  14.410   2.774
14399SOL    HW245095  14.024  14.555   2.757
14400SOL     OW45096   6.002   8.164   4.802
14400SOL    HW145097   6.073   8.208   4.754
14400SOL    HW245098   5.932   8.155   4.737
14401SOL     OW45099  12.084   7.216  14.803
14401SOL    HW145100  12.079   7.278  14.730
14401SOL    HW245101  12.069   7.130  14.762
14402SOL     OW45102   5.509   7.314  10.870
14402SOL    HW145103   5.483   7.406  10.866
14402SOL    HW245104   5.447   7.274  10.931
14403SOL     OW45105  12.801   8.787  12.620
14403SOL    HW145106  12.767   8.867  12.660
14403SOL    HW245107  12.876   8.763  12.674
14404SOL     OW45108   6.282   8.256   4.950
14404SOL    HW145109   6.239   8.263   5.035
14404SOL    HW245110   6.357   8.199   4.966
14405SOL     OW45111   5.390   1.716   4.824
14405SOL    HW145112   5.295   1.730   4.818
14405SOL    HW245113   5.426   1.768   4.753
14406SOL     OW45114   5.498   8.835   7.102
14406SOL    HW145115   5.579   8.827   7.153
14406SOL    HW245116   5.428   8.834   7.167
14407SOL     OW45117   5.620  11.200  12.582
14407SOL    HW145118   5.703  11.199  12.630
14407SOL    HW245119   5.585  11.112  12.592
14408SOL     OW45120   2.177  12.465   0.412
14408SOL    HW145121   2.106  12.529   0.407
14408SOL    HW245122   2.136  12.386   0.446
14409SOL     OW45123  13.925  10.028   0.549
14409SOL    HW145124  13.887  10.025   0.461
14409SOL    HW245125  14.018  10.007   0.536
14410SOL     OW45126  12.580   3.447   6.393
14410SOL    HW145127  12.597   3.427   6.300
14410SOL    HW245128  12.507   3.390   6.416
14411SOL     OW45129   0.442   7.695   6.072
14411SOL    HW145130   0.396   7.750   6.136
14411SOL    HW245131   0.399   7.610   6.079
14412SOL     OW45132   0.146  12.904   5.159
14412SOL    HW145133   0.132  12.848   5.083
14412SOL    HW245134   0.123  12.849   5.234
14413SOL     OW45135  14.866   9.874   1.156
14413SOL    HW145136  14.784   9.832   1.182
14413SOL    HW245137  14.843   9.929   1.082
14414SOL     OW45138   0.482  10.536   3.493
14414SOL    HW145139   0.570  10.547   3.528
14414SOL    HW245140   0.483  10.580   3.408
14415SOL     OW45141   1.486   1.736   9.174
14415SOL    HW145142   1.515   1.819   9.135
14415SOL    HW245143   1.435   1.762   9.251
14416SOL     OW45144  10.905   2.831   5.126
14416SOL    HW145145  10.933   2.746   5.093
14416SOL    HW245146  10.814   2.839   5.098
14417SOL     OW45147   2.674   7.621   5.198
14417SOL    HW145148   2.684   7.714   5.174
14417SOL    HW245149   2.579   7.606   5.196
14418SOL     OW45150   4.089   6.267   3.062
14418SOL    HW145151   4.094   6.270   2.967
14418SOL    HW245152   3.997   6.287   3.082
14419SOL     OW45153   9.486   3.957   6.565
14419SOL    HW145154   9.510   3.922   6.650
14419SOL    HW245155   9.456   3.881   6.515
14420SOL     OW45156  14.058   5.082  10.458
14420SOL    HW145157  14.115   5.037  10.395
14420SOL    HW245158  13.973   5.084  10.415
14421SOL     OW45159  11.551   2.447   4.360
14421SOL    HW145160  11.512   2.382   4.302
14421SOL    HW245161  11.638   2.463   4.322
14422SOL     OW45162   3.392   2.853   9.672
14422SOL    HW145163   3.359   2.942   9.659
14422SOL    HW245164   3.352   2.824   9.753
14423SOL     OW45165   3.964   4.428   5.776
14423SOL    HW145166   4.013   4.346   5.770
14423SOL    HW245167   4.028   4.495   5.755
14424SOL     OW45168   2.237   8.524  12.800
14424SOL    HW145169   2.156   8.575  12.815
14424SOL    HW245170   2.287   8.577  12.738
14425SOL     OW45171   6.103  11.259  12.252
14425SOL    HW145172   6.153  11.340  12.242
14425SOL    HW245173   6.084  11.231  12.162
14426SOL     OW45174  11.003   7.294   3.223
14426SOL    HW145175  10.980   7.371   3.275
14426SOL    HW245176  10.995   7.323   3.132
14427SOL     OW45177  11.085   3.551   9.040
14427SOL    HW145178  11.066   3.626   8.983
14427SOL    HW245179  11.030   3.565   9.117
14428SOL     OW45180  11.922   1.241   7.523
14428SOL    HW145181  11.947   1.159   7.565
14428SOL    HW245182  11.829   1.251   7.543
14429SOL     OW45183   9.891  10.498  13.876
14429SOL    HW145184   9.928  10.587  13.871
14429SOL    HW245185   9.864  10.479  13.786
14430SOL     OW45186   2.051   3.060   5.333
14430SOL    HW145187   2.143   3.043   5.354
14430SOL    HW245188   2.037   3.151   5.356
14431SOL     OW45189  11.734   8.440   1.473
14431SOL    HW145190  11.768   8.511   1.528
14431SOL    HW245191  11.641   8.435   1.495
14432SOL     OW45192   6.398   0.626  12.530
14432SOL    HW145193   6.414   0.716  12.560
14432SOL    HW245194   6.304   0.613  12.542
14433SOL     OW45195   2.254   0.716   8.069
14433SOL    HW145196   2.243   0.685   7.979
14433SOL    HW245197   2.174   0.767   8.086
14434SOL     OW45198  10.587   9.589   5.639
14434SOL    HW145199  10.495   9.587   5.611
14434SOL    HW245200  10.626   9.660   5.588
14435SOL     OW45201  14.297   1.567  11.216
14435SOL    HW145202  14.296   1.486  11.267
14435SOL    HW245203  14.205   1.595  11.213
14436SOL     OW45204  11.125  14.045   2.275
14436SOL    HW145205  11.034  14.047   2.306
14436SOL    HW245206  11.144  14.136   2.252
14437SOL     OW45207  11.000   8.627   0.360
14437SOL    HW145208  10.928   8.622   0.297
14437SOL    HW245209  11.069   8.674   0.313
14438SOL     OW45210  12.678   4.382  13.062
14438SOL    HW145211  12.595   4.349  13.097
14438SOL    HW245212  12.694   4.463  13.111
14439SOL     OW45213   7.882   7.496   3.292
14439SOL    HW145214   7.842   7.466   3.373
14439SOL    HW245215   7.846   7.583   3.278
14440SOL     OW45216  13.007   2.886   6.738
14440SOL    HW145217  13.092   2.845   6.751
14440SOL    HW245218  12.997   2.891   6.643
14441SOL     OW45219   9.241   4.226   4.704
14441SOL    HW145220   9.183   4.225   4.628
14441SOL    HW245221   9.279   4.314   4.703
14442SOL     OW45222   6.822   5.971   3.611
14442SOL    HW145223   6.865   5.913   3.673
14442SOL    HW245224   6.882   5.975   3.536
14443SOL     OW45225  12.676  14.853  13.586
14443SOL    HW145226  12.667  14.760  13.605
14443SOL    HW245227  12.707   0.023  13.667
14444SOL     OW45228   3.797   5.682   2.123
14444SOL    HW145229   3.743   5.642   2.192
14444SOL    HW245230   3.885   5.684   2.159
14445SOL     OW45231   9.897   4.007   9.413
14445SOL    HW145232   9.828   3.958   9.458
14445SOL    HW245233   9.881   4.098   9.439
14446SOL     OW45234   4.357   6.131   8.623
14446SOL    HW145235   4.353   6.112   8.530
14446SOL    HW245236   4.296   6.069   8.663
14447SOL     OW45237   3.779   4.537   0.441
14447SOL    HW145238   3.831   4.609   0.477
14447SOL    HW245239   3.721   4.511   0.512
14448SOL     OW45240   6.827   3.144   4.407
14448SOL    HW145241   6.859   3.105   4.488
14448SOL    HW245242   6.819   3.238   4.427
14449SOL     OW45243   0.480  11.839   4.947
14449SOL    HW145244   0.493  11.824   4.854
14449SOL    HW245245   0.568  11.848   4.983
14450SOL     OW45246   0.936  13.383   9.517
14450SOL    HW145247   0.924  13.292   9.547
14450SOL    HW245248   0.939  13.376   9.421
14451SOL     OW45249   5.426   7.175   7.915
14451SOL    HW145250   5.455   7.130   7.994
14451SOL    HW245251   5.332   7.185   7.926
14452SOL     OW45252   7.308  13.377  10.707
14452SOL    HW145253   7.350  13.460  10.729
14452SOL    HW245254   7.284  13.339  10.791
14453SOL     OW45255   6.287   9.530  12.973
14453SOL    HW145256   6.315   9.540  12.882
14453SOL    HW245257   6.364   9.494  13.017
14454SOL     OW45258  11.509   2.589  11.041
14454SOL    HW145259  11.415   2.573  11.034
14454SOL    HW245260  11.518   2.652  11.112
14455SOL     OW45261  12.326  14.201   3.795
14455SOL    HW145262  12.321  14.141   3.721
14455SOL    HW245263  12.371  14.278   3.759
14456SOL     OW45264   5.911   4.491   4.677
14456SOL    HW145265   5.942   4.546   4.749
14456SOL    HW245266   5.991   4.452   4.640
14457SOL     OW45267  13.083   5.550   3.228
14457SOL    HW145268  13.100   5.604   3.305
14457SOL    HW245269  12.995   5.577   3.200
14458SOL     OW45270  13.559   2.390   7.787
14458SOL    HW145271  13.519   2.444   7.855
14458SOL    HW245272  13.484   2.348   7.743
14459SOL     OW45273   8.096   2.117  14.467
14459SOL    HW145274   8.122   2.064  14.392
14459SOL    HW245275   8.035   2.181  14.432
14460SOL     OW45276  13.975  10.846   6.098
14460SOL    HW145277  14.010  10.769   6.144
14460SOL    HW245278  13.937  10.900   6.167
14461SOL     OW45279   3.957  14.456   3.922
14461SOL    HW145280   4.043  14.490   3.947
14461SOL    HW245281   3.957  14.365   3.953
14462SOL     OW45282   9.620   7.140   7.176
14462SOL    HW145283   9.619   7.088   7.255
14462SOL    HW245284   9.712   7.163   7.163
14463SOL     OW45285   7.819   1.634   0.158
14463SOL    HW145286   7.735   1.604   0.193
14463SOL    HW245287   7.868   1.553   0.144
14464SOL     OW45288   6.291   8.026  14.784
14464SOL    HW145289   6.282   7.974  14.704
14464SOL    HW245290   6.358   7.980  14.836
14465SOL     OW45291   1.910   0.098  11.128
14465SOL    HW145292   1.948   0.071  11.212
14465SOL    HW245293   1.835   0.152  11.151
14466SOL     OW45294  10.925  10.254   5.600
14466SOL    HW145295  10.873  10.231   5.677
14466SOL    HW245296  10.860  10.268   5.531
14467SOL     OW45297   2.244  14.438   6.398
14467SOL    HW145298   2.293  14.358   6.417
14467SOL    HW245299   2.298  14.485   6.334
14468SOL     OW45300   6.953  12.789   5.786
14468SOL    HW145301   7.028  12.758   5.736
14468SOL    HW245302   6.960  12.742   5.870
14469SOL     OW45303   6.830   3.062  14.389
14469SOL    HW145304   6.838   3.065  14.484
14469SOL    HW245305   6.753   3.116  14.369
14470SOL     OW45306   3.486  12.599   6.255
14470SOL    HW145307   3.494  12.663   6.184
14470SOL    HW245308   3.570  12.602   6.300
14471SOL     OW45309  11.961  14.064   6.462
14471SOL    HW145310  12.042  14.103   6.429
14471SOL    HW245311  11.892  14.104   6.409
14472SOL     OW45312   6.020   6.131   4.488
14472SOL    HW145313   6.041   6.212   4.441
14472SOL    HW245314   6.103   6.086   4.497
14473SOL     OW45315  14.415   4.325  12.461
14473SOL    HW145316  14.495   4.273  12.472
14473SOL    HW245317  14.344   4.265  12.484
14474SOL     OW45318   4.177   1.018   4.384
14474SOL    HW145319   4.168   1.057   4.471
14474SOL    HW245320   4.088   1.015   4.349
14475SOL     OW45321   3.771  14.477   7.376
14475SOL    HW145322   3.778  14.538   7.303
14475SOL    HW245323   3.750  14.531   7.451
14476SOL     OW45324   4.663  13.096  10.375
14476SOL    HW145325   4.588  13.067  10.426
14476SOL    HW245326   4.630  13.171  10.325
14477SOL     OW45327  13.575   5.570  14.486
14477SOL    HW145328  13.560   5.555  14.580
14477SOL    HW245329  13.492   5.545  14.445
14478SOL     OW45330   0.317  14.760  13.388
14478SOL    HW145331   0.235  14.745  13.342
14478SOL    HW245332   0.385  14.741  13.324
14479SOL     OW45333   8.546   5.760   0.111
14479SOL    HW145334   8.614   5.779   0.176
14479SOL    HW245335   8.490   5.695   0.154
14480SOL     OW45336   7.268   5.019  14.064
14480SOL    HW145337   7.320   5.032  14.143
14480SOL    HW245338   7.292   5.091  14.006
14481SOL     OW45339  12.433   3.380   5.762
14481SOL    HW145340  12.450   3.457   5.817
14481SOL    HW245341  12.388   3.415   5.685
14482SOL     OW45342   8.323  14.234   3.952
14482SOL    HW145343   8.381  14.212   4.024
14482SOL    HW245344   8.318  14.154   3.899
14483SOL     OW45345   2.098   8.095  12.447
14483SOL    HW145346   2.016   8.101  12.397
14483SOL    HW245347   2.107   8.181  12.488
14484SOL     OW45348   2.073  11.709   7.647
14484SOL    HW145349   2.106  11.632   7.693
14484SOL    HW245350   2.071  11.683   7.555
14485SOL     OW45351   3.897  13.313  13.794
14485SOL    HW145352   3.967  13.249  13.808
14485SOL    HW245353   3.863  13.292  13.707
14486SOL     OW45354  12.215   7.201  14.433
14486SOL    HW145355  12.261   7.182  14.351
14486SOL    HW245356  12.262   7.149  14.499
14487SOL     OW45357   7.734  13.328  12.745
14487SOL    HW145358   7.780  13.245  12.762
14487SOL    HW245359   7.642  13.309  12.762
14488SOL     OW45360  12.449  10.866  11.657
14488SOL    HW145361  12.498  10.809  11.598
14488SOL    HW245362  12.396  10.806  11.710
14489SOL     OW45363  11.301   7.228   7.502
14489SOL    HW145364  11.320   7.278   7.581
14489SOL    HW245365  11.206   7.216   7.503
14490SOL     OW45366   4.055  11.348  10.468
14490SOL    HW145367   4.055  11.431  10.516
14490SOL    HW245368   4.040  11.373  10.377
14491SOL     OW45369   7.314  11.839   8.015
14491SOL    HW145370   7.322  11.756   8.062
14491SOL    HW245371   7.367  11.827   7.936
14492SOL     OW45372  10.046   6.358   8.796
14492SOL    HW145373  10.032   6.434   8.739
14492SOL    HW245374   9.974   6.363   8.859
14493SOL     OW45375  10.138  11.539   4.363
14493SOL    HW145376  10.121  11.524   4.270
14493SOL    HW245377  10.052  11.529   4.404
14494SOL     OW45378  10.756   8.983   1.312
14494SOL    HW145379  10.665   8.954   1.321
14494SOL    HW245380  10.801   8.910   1.269
14495SOL     OW45381   1.438   6.578   4.562
14495SOL    HW145382   1.478   6.492   4.547
14495SOL    HW245383   1.376   6.589   4.490
14496SOL     OW45384  10.257   0.720  13.772
14496SOL    HW145385  10.302   0.637  13.755
14496SOL    HW245386  10.316   0.768  13.830
14497SOL     OW45387  10.445   0.160   1.709
14497SOL    HW145388  10.430   0.207   1.791
14497SOL    HW245389  10.541   0.149   1.705
14498SOL     OW45390  11.577  11.779   4.545
14498SOL    HW145391  11.504  11.826   4.586
14498SOL    HW245392  11.560  11.787   4.451
14499SOL     OW45393  14.689   8.710   8.649
14499SOL    HW145394  14.637   8.675   8.577
14499SOL    HW245395  14.773   8.733   8.609
14500SOL     OW45396   9.088  12.179  13.838
14500SOL    HW145397   9.026  12.238  13.796
14500SOL    HW245398   9.070  12.188  13.932
14501SOL     OW45399   9.966   0.978  11.026
14501SOL    HW145400   9.898   0.992  11.093
14501SOL    HW245401   9.995   0.888  11.039
14502SOL     OW45402   7.272   4.086   6.185
14502SOL    HW145403   7.364   4.104   6.205
14502SOL    HW245404   7.236   4.049   6.266
14503SOL     OW45405  13.464  12.531  10.798
14503SOL    HW145406  13.531  12.465  10.818
14503SOL    HW245407  13.402  12.485  10.742
14504SOL     OW45408  10.220   8.036   5.704
14504SOL    HW145409  10.134   8.077   5.699
14504SOL    HW245410  10.203   7.951   5.745
14505SOL     OW45411   5.470   9.403   7.816
14505SOL    HW145412   5.468   9.489   7.773
14505SOL    HW245413   5.541   9.410   7.880
14506SOL     OW45414   1.486   8.286  13.029
14506SOL    HW145415   1.470   8.305  12.937
14506SOL    HW245416   1.410   8.233  13.055
14507SOL     OW45417  11.586  12.739   1.214
14507SOL    HW145418  11.494  12.721   1.193
14507SOL    HW245419  11.592  12.726   1.309
14508SOL     OW45420   0.310  13.743   3.072
14508SOL    HW145421   0.356  13.779   2.996
14508SOL    HW245422   0.218  13.745   3.048
14509SOL     OW45423   8.845  11.774   7.737
14509SOL    HW145424   8.835  11.711   7.666
14509SOL    HW245425   8.790  11.848   7.711
14510SOL     OW45426   5.897   8.998   3.825
14510SOL    HW145427   5.903   9.022   3.732
14510SOL    HW245428   5.985   8.966   3.847
14511SOL     OW45429  14.589   4.921   9.638
14511SOL    HW145430  14.622   4.947   9.553
14511SOL    HW245431  14.628   4.835   9.654
14512SOL     OW45432   4.567   4.331  11.932
14512SOL    HW145433   4.586   4.338  11.839
14512SOL    HW245434   4.603   4.245  11.957
14513SOL     OW45435   8.538   4.402  14.114
14513SOL    HW145436   8.563   4.370  14.028
14513SOL    HW245437   8.464   4.460  14.098
14514SOL     OW45438  10.778   1.291  11.785
14514SOL    HW145439  10.721   1.336  11.847
14514SOL    HW245440  10.866   1.303  11.819
14515SOL     OW45441   2.274   8.271   9.298
14515SOL    HW145442   2.275   8.358   9.259
14515SOL    HW245443   2.189   8.265   9.342
14516SOL     OW45444   2.063   9.598   9.480
14516SOL    HW145445   1.991   9.536   9.481
14516SOL    HW245446   2.112   9.578   9.560
14517SOL     OW45447   3.441  10.963   7.279
14517SOL    HW145448   3.366  10.951   7.221
14517SOL    HW245449   3.414  10.925   7.363
14518SOL     OW45450   6.071   7.645   3.656
14518SOL    HW145451   6.058   7.735   3.687
14518SOL    HW245452   6.084   7.594   3.736
14519SOL     OW45453   6.772  13.186   9.198
14519SOL    HW145454   6.772  13.176   9.293
14519SOL    HW245455   6.696  13.241   9.180
14520SOL     OW45456   8.601   0.776   8.783
14520SOL    HW145457   8.653   0.707   8.744
14520SOL    HW245458   8.662   0.823   8.840
14521SOL     OW45459   0.821   4.492   7.211
14521SOL    HW145460   0.772   4.468   7.133
14521SOL    HW245461   0.880   4.418   7.226
14522SOL     OW45462   3.964  12.166  14.009
14522SOL    HW145463   4.045  12.196  14.051
14522SOL    HW245464   3.944  12.083  14.051
14523SOL     OW45465  12.729  14.390  11.201
14523SOL    HW145466  12.656  14.384  11.140
14523SOL    HW245467  12.730  14.306  11.246
14524SOL     OW45468   2.563   3.512  10.541
14524SOL    HW145469   2.474   3.513  10.506
14524SOL    HW245470   2.604   3.590  10.506
14525SOL     OW45471   6.615   1.831   8.245
14525SOL    HW145472   6.596   1.919   8.212
14525SOL    HW245473   6.637   1.780   8.166
14526SOL     OW45474   2.709  14.106   0.577
14526SOL    HW145475   2.755  14.032   0.616
14526SOL    HW245476   2.672  14.153   0.652
14527SOL     OW45477   4.399   2.437   9.729
14527SOL    HW145478   4.353   2.435   9.813
14527SOL    HW245479   4.389   2.528   9.698
14528SOL     OW45480  13.897   7.094  11.696
14528SOL    HW145481  13.812   7.062  11.667
14528SOL    HW245482  13.959   7.056  11.634
14529SOL     OW45483   4.395   9.334   9.324
14529SOL    HW145484   4.399   9.271   9.252
14529SOL    HW245485   4.390   9.419   9.281
14530SOL     OW45486   2.830  10.665   1.174
14530SOL    HW145487   2.851  10.593   1.233
14530SOL    HW245488   2.914  10.701   1.148
14531SOL     OW45489  13.295   3.236   0.021
14531SOL    HW145490  13.337   3.200  14.812
14531SOL    HW245491  13.279   3.160   0.077
14532SOL     OW45492   0.747   4.898   3.215
14532SOL    HW145493   0.774   4.895   3.307
14532SOL    HW245494   0.676   4.834   3.209
14533SOL     OW45495   4.038  10.332  13.437
14533SOL    HW145496   4.020  10.253  13.488
14533SOL    HW245497   4.097  10.383  13.492
14534SOL     OW45498  14.332   1.840  10.222
14534SOL    HW145499  14.254   1.797  10.187
14534SOL    HW245500  14.364   1.894  10.150
14535SOL     OW45501   9.918   5.712   2.693
14535SOL    HW145502   9.878   5.764   2.624
14535SOL    HW245503   9.861   5.635   2.700
14536SOL     OW45504   3.795   8.438  13.866
14536SOL    HW145505   3.881   8.455  13.905
14536SOL    HW245506   3.757   8.524  13.851
14537SOL     OW45507   0.818  14.228   0.959
14537SOL    HW145508   0.742  14.282   0.982
14537SOL    HW245509   0.867  14.219   1.041
14538SOL     OW45510   9.121  13.806  12.247
14538SOL    HW145511   9.035  13.806  12.205
14538SOL    HW245512   9.173  13.867  12.194
14539SOL     OW45513   3.429  14.460   7.188
14539SOL    HW145514   3.396  14.487   7.274
14539SOL    HW245515   3.403  14.531   7.130
14540SOL     OW45516   5.915   4.062  12.294
14540SOL    HW145517   5.828   4.101  12.305
14540SOL    HW245518   5.898   3.974  12.261
14541SOL     OW45519  12.329  12.320   9.732
14541SOL    HW145520  12.399  12.353   9.788
14541SOL    HW245521  12.375  12.289   9.653
14542SOL     OW45522   3.448  10.182  12.911
14542SOL    HW145523   3.494  10.266  12.918
14542SOL    HW245524   3.517  10.116  12.914
14543SOL     OW45525   9.129   3.360  14.713
14543SOL    HW145526   9.188   3.326  14.646
14543SOL    HW245527   9.154   3.313  14.793
14544SOL     OW45528  14.644   7.969   6.536
14544SOL    HW145529  14.691   8.018   6.604
14544SOL    HW245530  14.675   8.006   6.453
14545SOL     OW45531  14.163  10.317   9.612
14545SOL    HW145532  14.181  10.402   9.571
14545SOL    HW245533  14.179  10.254   9.541
14546SOL     OW45534  13.337   4.049   7.175
14546SOL    HW145535  13.311   4.128   7.222
14546SOL    HW245536  13.256   3.999   7.165
14547SOL     OW45537   9.103  12.242   4.325
14547SOL    HW145538   9.176  12.189   4.357
14547SOL    HW245539   9.100  12.224   4.231
14548SOL     OW45540   0.184   5.803   5.442
14548SOL    HW145541   0.142   5.716   5.434
14548SOL    HW245542   0.133   5.848   5.509
14549SOL     OW45543   8.918  13.513  10.692
14549SOL    HW145544   8.969  13.570  10.635
14549SOL    HW245545   8.975  13.496  10.767
14550SOL     OW45546   0.935   5.651  14.631
14550SOL    HW145547   0.945   5.648  14.536
14550SOL    HW245548   1.010   5.701  14.662
14551SOL     OW45549  12.150  10.134   4.213
14551SOL    HW145550  12.120  10.083   4.138
14551SOL    HW245551  12.182  10.216   4.176
14552SOL     OW45552   9.392  10.454   9.384
14552SOL    HW145553   9.304  10.490   9.390
14552SOL    HW245554   9.444  10.508   9.443
14553SOL     OW45555   8.371  10.332  13.533
14553SOL    HW145556   8.309  10.405  13.543
14553SOL    HW245557   8.353  10.298  13.446
14554SOL     OW45558   7.664  12.230   7.404
14554SOL    HW145559   7.729  12.287   7.364
14554SOL    HW245560   7.694  12.218   7.494
14555SOL     OW45561   3.859   9.528   3.632
14555SOL    HW145562   3.810   9.473   3.694
14555SOL    HW245563   3.849   9.482   3.548
14556SOL     OW45564   1.516   0.684   4.030
14556SOL    HW145565   1.555   0.719   4.109
14556SOL    HW245566   1.449   0.747   4.005
14557SOL     OW45567   0.161  13.397   6.377
14557SOL    HW145568   0.233  13.378   6.318
14557SOL    HW245569   0.195  13.379   6.464
14558SOL     OW45570   4.701   6.835   2.399
14558SOL    HW145571   4.635   6.799   2.457
14558SOL    HW245572   4.766   6.875   2.457
14559SOL     OW45573   7.602  12.864   6.525
14559SOL    HW145574   7.543  12.809   6.577
14559SOL    HW245575   7.664  12.803   6.487
14560SOL     OW45576   8.675  12.417   1.073
14560SOL    HW145577   8.769  12.435   1.074
14560SOL    HW245578   8.665  12.336   1.123
14561SOL     OW45579   5.504   9.038   3.434
14561SOL    HW145580   5.453   8.957   3.433
14561SOL    HW245581   5.546   9.040   3.520
14562SOL     OW45582  11.476   6.427   7.511
14562SOL    HW145583  11.421   6.506   7.509
14562SOL    HW245584  11.423   6.363   7.558
14563SOL     OW45585   5.287   0.738   3.177
14563SOL    HW145586   5.265   0.719   3.268
14563SOL    HW245587   5.264   0.658   3.130
14564SOL     OW45588  11.819   4.169   9.646
14564SOL    HW145589  11.772   4.248   9.673
14564SOL    HW245590  11.887   4.159   9.713
14565SOL     OW45591  10.476  11.711  13.408
14565SOL    HW145592  10.490  11.630  13.458
14565SOL    HW245593  10.557  11.723  13.358
14566SOL     OW45594  12.341   4.049  13.500
14566SOL    HW145595  12.358   3.966  13.455
14566SOL    HW245596  12.248   4.065  13.487
14567SOL     OW45597   5.483   5.506  13.655
14567SOL    HW145598   5.518   5.595  13.647
14567SOL    HW245599   5.558   5.453  13.681
14568SOL     OW45600   1.333  12.433   9.526
14568SOL    HW145601   1.263  12.370   9.510
14568SOL    HW245602   1.385  12.432   9.446
14569SOL     OW45603  10.015  10.461   0.935
14569SOL    HW145604  10.053  10.496   0.855
14569SOL    HW245605  10.078  10.395   0.965
14570SOL     OW45606   0.177  10.969   6.565
14570SOL    HW145607   0.090  11.004   6.581
14570SOL    HW245608   0.236  11.027   6.612
14571SOL     OW45609   4.574   6.775  13.796
14571SOL    HW145610   4.626   6.702  13.830
14571SOL    HW245611   4.633   6.851  13.800
14572SOL     OW45612   5.850  10.352   1.324
14572SOL    HW145613   5.911  10.280   1.311
14572SOL    HW245614   5.815  10.338   1.412
14573SOL     OW45615  11.889   0.682  12.698
14573SOL    HW145616  11.975   0.649  12.722
14573SOL    HW245617  11.903   0.774  12.676
14574SOL     OW45618  12.058   3.235  11.578
14574SOL    HW145619  12.097   3.152  11.603
14574SOL    HW245620  12.033   3.276  11.661
14575SOL     OW45621   5.072  14.032   3.763
14575SOL    HW145622   5.052  14.079   3.682
14575SOL    HW245623   4.993  13.982   3.781
14576SOL     OW45624   9.680  14.837   2.293
14576SOL    HW145625   9.718   0.033   2.351
14576SOL    HW245626   9.625  14.784   2.349
14577SOL     OW45627   5.322  12.868   2.660
14577SOL    HW145628   5.315  12.928   2.734
14577SOL    HW245629   5.235  12.870   2.620
14578SOL     OW45630   4.169   0.661   0.576
14578SOL    HW145631   4.161   0.746   0.533
14578SOL    HW245632   4.113   0.603   0.524
14579SOL     OW45633   8.215  10.093   3.231
14579SOL    HW145634   8.229  10.160   3.298
14579SOL    HW245635   8.302  10.056   3.216
14580SOL     OW45636   9.012   8.841   9.318
14580SOL    HW145637   8.944   8.904   9.293
14580SOL    HW245638   8.974   8.755   9.300
14581SOL     OW45639  11.440   0.631  12.876
14581SOL    HW145640  11.399   0.646  12.791
14581SOL    HW245641  11.447   0.719  12.915
14582SOL     OW45642   7.168   2.154   4.434
14582SOL    HW145643   7.101   2.086   4.443
14582SOL    HW245644   7.239   2.126   4.492
14583SOL     OW45645   5.670  14.428   5.447
14583SOL    HW145646   5.616  14.503   5.421
14583SOL    HW245647   5.718  14.459   5.524
14584SOL     OW45648   5.698   6.649   7.192
14584SOL    HW145649   5.779   6.601   7.172
14584SOL    HW245650   5.696   6.720   7.128
14585SOL     OW45651   5.058   8.730   0.030
14585SOL    HW145652   5.023   8.739   0.118
14585SOL    HW245653   5.149   8.756   0.037
14586SOL     OW45654  12.293  10.355   6.311
14586SOL    HW145655  12.304  10.440   6.353
14586SOL    HW245656  12.301  10.292   6.382
14587SOL     OW45657  11.082  13.178  11.859
14587SOL    HW145658  11.079  13.251  11.796
14587SOL    HW245659  11.016  13.116  11.827
14588SOL     OW45660  11.840   4.084  12.766
14588SOL    HW145661  11.807   4.076  12.855
14588SOL    HW245662  11.901   4.011  12.756
14589SOL     OW45663   8.453   6.459  12.035
14589SOL    HW145664   8.483   6.399  11.967
14589SOL    HW245665   8.361   6.435  12.049
14590SOL     OW45666   5.553   4.966   4.547
14590SOL    HW145667   5.618   4.906   4.510
14590SOL    HW245668   5.520   5.014   4.471
14591SOL     OW45669  14.226   7.333  12.620
14591SOL    HW145670  14.262   7.396  12.683
14591SOL    HW245671  14.138   7.367  12.601
14592SOL     OW45672  13.051  10.238   1.906
14592SOL    HW145673  13.062  10.182   1.829
14592SOL    HW245674  13.005  10.183   1.969
14593SOL     OW45675   1.469   3.565   1.058
14593SOL    HW145676   1.385   3.555   1.102
14593SOL    HW245677   1.526   3.605   1.124
14594SOL     OW45678   3.794   2.812  13.069
14594SOL    HW145679   3.760   2.901  13.072
14594SOL    HW245680   3.865   2.811  13.134
14595SOL     OW45681   8.840   9.178   7.017
14595SOL    HW145682   8.912   9.130   6.976
14595SOL    HW245683   8.807   9.118   7.084
14596SOL     OW45684  13.377   5.806  14.579
14596SOL    HW145685  13.315   5.866  14.619
14596SOL    HW245686  13.453   5.861  14.557
14597SOL     OW45687   9.531   5.151  11.608
14597SOL    HW145688   9.526   5.062  11.572
14597SOL    HW245689   9.521   5.139  11.702
14598SOL     OW45690   7.005   9.789  14.359
14598SOL    HW145691   6.981   9.881  14.346
14598SOL    HW245692   7.030   9.759  14.272
14599SOL     OW45693   8.270   1.791   6.796
14599SOL    HW145694   8.209   1.821   6.864
14599SOL    HW245695   8.347   1.762   6.845
14600SOL     OW45696   6.665   1.285  12.683
14600SOL    HW145697   6.752   1.287  12.645
14600SOL    HW245698   6.669   1.218  12.751
14601SOL     OW45699   6.508   6.102  12.107
14601SOL    HW145700   6.445   6.093  12.179
14601SOL    HW245701   6.569   6.169  12.137
14602SOL     OW45702   7.308   0.778   8.153
14602SOL    HW145703   7.270   0.851   8.105
14602SOL    HW245704   7.378   0.817   8.205
14603SOL     OW45705   0.979   9.002   5.629
14603SOL    HW145706   0.998   9.084   5.674
14603SOL    HW245707   1.054   8.946   5.649
14604SOL     OW45708   2.174   2.010   6.437
14604SOL    HW145709   2.212   1.926   6.411
14604SOL    HW245710   2.248   2.070   6.442
14605SOL     OW45711   8.367  14.551   3.326
14605SOL    HW145712   8.379  14.618   3.394
14605SOL    HW245713   8.309  14.592   3.262
14606SOL     OW45714  13.320   2.457   9.005
14606SOL    HW145715  13.304   2.501   9.089
14606SOL    HW245716  13.318   2.528   8.941
14607SOL     OW45717   0.895   1.936   6.925
14607SOL    HW145718   0.916   2.015   6.973
14607SOL    HW245719   0.903   1.865   6.990
14608SOL     OW45720   2.667   0.891   6.072
14608SOL    HW145721   2.733   0.824   6.089
14608SOL    HW245722   2.603   0.849   6.016
14609SOL     OW45723  11.227   7.631  11.005
14609SOL    HW145724  11.133   7.622  11.021
14609SOL    HW245725  11.233   7.655  10.912
14610SOL     OW45726   9.099   4.536   0.303
14610SOL    HW145727   9.073   4.607   0.245
14610SOL    HW245728   9.054   4.554   0.385
14611SOL     OW45729   0.274   4.411   2.619
14611SOL    HW145730   0.332   4.389   2.546
14611SOL    HW245731   0.260   4.328   2.665
14612SOL     OW45732   7.798   0.118  10.862
14612SOL    HW145733   7.766   0.073  10.940
14612SOL    HW245734   7.792   0.053  10.793
14613SOL     OW45735   3.170   0.238   7.173
14613SOL    HW145736   3.249   0.230   7.226
14613SOL    HW245737   3.121   0.309   7.214
14614SOL     OW45738   1.369  14.367  12.312
14614SOL    HW145739   1.372  14.274  12.289
14614SOL    HW245740   1.276  14.384  12.329
14615SOL     OW45741   3.138  11.826   2.487
14615SOL    HW145742   3.134  11.769   2.564
14615SOL    HW245743   3.046  11.835   2.460
14616SOL     OW45744  12.029   8.462   1.871
14616SOL    HW145745  11.992   8.377   1.848
14616SOL    HW245746  11.988   8.485   1.954
14617SOL     OW45747  12.357   6.494  14.539
14617SOL    HW145748  12.335   6.538  14.457
14617SOL    HW245749  12.337   6.401  14.523
14618SOL     OW45750   3.086  10.775   2.559
14618SOL    HW145751   3.174  10.738   2.561
14618SOL    HW245752   3.054  10.767   2.649
14619SOL     OW45753  11.906   7.992   5.659
14619SOL    HW145754  11.823   7.945   5.671
14619SOL    HW245755  11.969   7.944   5.712
14620SOL     OW45756   8.097   1.944  12.796
14620SOL    HW145757   8.010   1.904  12.804
14620SOL    HW245758   8.105   1.999  12.874
14621SOL     OW45759  14.857  13.434   2.319
14621SOL    HW145760  14.777  13.428   2.268
14621SOL    HW245761   0.043  13.363   2.285
14622SOL     OW45762   7.399   8.070   7.756
14622SOL    HW145763   7.325   8.103   7.807
14622SOL    HW245764   7.410   8.134   7.686
14623SOL     OW45765   6.780   4.309  12.361
14623SOL    HW145766   6.772   4.328  12.267
14623SOL    HW245767   6.729   4.378  12.404
14624SOL     OW45768   6.398   8.467  13.862
14624SOL    HW145769   6.377   8.447  13.771
14624SOL    HW245770   6.349   8.547  13.881
14625SOL     OW45771   9.447   4.794   2.972
14625SOL    HW145772   9.458   4.822   3.063
14625SOL    HW245773   9.502   4.716   2.964
14626SOL     OW45774   9.610  12.492   3.285
14626SOL    HW145775   9.607  12.571   3.338
14626SOL    HW245776   9.627  12.422   3.348
14627SOL     OW45777   3.567   0.345   0.302
14627SOL    HW145778   3.588   0.258   0.335
14627SOL    HW245779   3.544   0.330   0.210
14628SOL     OW45780  13.888   2.269   9.982
14628SOL    HW145781  13.806   2.307   9.950
14628SOL    HW245782  13.906   2.314  10.065
14629SOL     OW45783  11.540   6.781   2.026
14629SOL    HW145784  11.502   6.769   1.939
14629SOL    HW245785  11.558   6.875   2.032
14630SOL     OW45786   7.985   5.988  11.108
14630SOL    HW145787   8.032   6.046  11.049
14630SOL    HW245788   8.050   5.924  11.136
14631SOL     OW45789   6.927   8.834   3.505
14631SOL    HW145790   6.880   8.828   3.588
14631SOL    HW245791   7.013   8.867   3.528
14632SOL     OW45792   7.325   9.736   5.416
14632SOL    HW145793   7.393   9.670   5.430
14632SOL    HW245794   7.351   9.782   5.337
14633SOL     OW45795   1.857   4.036   0.743
14633SOL    HW145796   1.771   4.023   0.782
14633SOL    HW245797   1.881   3.950   0.709
14634SOL     OW45798   5.734   3.890   7.044
14634SOL    HW145799   5.692   3.896   7.129
14634SOL    HW245800   5.816   3.940   7.055
14635SOL     OW45801  13.893   2.244  14.361
14635SOL    HW145802  13.842   2.283  14.290
14635SOL    HW245803  13.897   2.312  14.428
14636SOL     OW45804   8.537   2.885  10.914
14636SOL    HW145805   8.539   2.981  10.909
14636SOL    HW245806   8.598   2.857  10.845
14637SOL     OW45807   4.017  11.917   5.395
14637SOL    HW145808   3.949  11.851   5.385
14637SOL    HW245809   4.066  11.915   5.313
14638SOL     OW45810   8.070   4.966  11.145
14638SOL    HW145811   8.111   4.947  11.061
14638SOL    HW245812   8.100   4.896  11.202
14639SOL     OW45813   9.326   1.034   4.564
14639SOL    HW145814   9.323   1.017   4.470
14639SOL    HW245815   9.260   1.102   4.578
14640SOL     OW45816  14.164  10.128  13.227
14640SOL    HW145817  14.173  10.109  13.321
14640SOL    HW245818  14.222  10.203  13.213
14641SOL     OW45819   2.609  13.302  12.297
14641SOL    HW145820   2.638  13.276  12.385
14641SOL    HW245821   2.642  13.391  12.286
14642SOL     OW45822   5.860   1.829   3.131
14642SOL    HW145823   5.893   1.840   3.042
14642SOL    HW245824   5.922   1.876   3.186
14643SOL     OW45825   4.071   6.949  13.570
14643SOL    HW145826   3.990   6.907  13.599
14643SOL    HW245827   4.112   6.884  13.513
14644SOL     OW45828  10.405   4.607   4.530
14644SOL    HW145829  10.463   4.538   4.563
14644SOL    HW245830  10.403   4.594   4.435
14645SOL     OW45831   5.294  14.141   4.174
14645SOL    HW145832   5.247  14.139   4.257
14645SOL    HW245833   5.371  14.196   4.192
14646SOL     OW45834  13.094   2.956   2.569
14646SOL    HW145835  13.036   2.990   2.501
14646SOL    HW245836  13.100   2.862   2.550
14647SOL     OW45837   6.827  11.375  12.265
14647SOL    HW145838   6.738  11.408  12.279
14647SOL    HW245839   6.872  11.447  12.221
14648SOL     OW45840  13.395   6.357  11.746
14648SOL    HW145841  13.440   6.282  11.706
14648SOL    HW245842  13.436   6.434  11.706
14649SOL     OW45843   7.650   2.415   5.900
14649SOL    HW145844   7.646   2.470   5.977
14649SOL    HW245845   7.679   2.473   5.829
14650SOL     OW45846  10.972   3.658  13.718
14650SOL    HW145847  10.909   3.586  13.715
14650SOL    HW245848  10.924   3.734  13.685
14651SOL     OW45849   2.555  10.281   3.382
14651SOL    HW145850   2.588  10.193   3.398
14651SOL    HW245851   2.562  10.293   3.287
14652SOL     OW45852   9.759   2.092   3.839
14652SOL    HW145853   9.840   2.075   3.888
14652SOL    HW245854   9.690   2.053   3.892
14653SOL     OW45855   1.948  12.122  14.716
14653SOL    HW145856   1.996  12.182  14.773
14653SOL    HW245857   1.936  12.171  14.634
14654SOL     OW45858   2.223   6.742   2.374
14654SOL    HW145859   2.291   6.733   2.441
14654SOL    HW245860   2.152   6.685   2.403
14655SOL     OW45861   8.429  14.790  12.520
14655SOL    HW145862   8.505  14.848  12.523
14655SOL    HW245863   8.398  14.797  12.430
14656SOL     OW45864   9.488  14.696  10.799
14656SOL    HW145865   9.552  14.762  10.825
14656SOL    HW245866   9.475  14.644  10.878
14657SOL     OW45867   8.858   4.082  14.261
14657SOL    HW145868   8.903   4.095  14.178
14657SOL    HW245869   8.917   4.026  14.312
14658SOL     OW45870   4.998  13.697   6.191
14658SOL    HW145871   5.085  13.663   6.172
14658SOL    HW245872   4.960  13.634   6.252
14659SOL     OW45873  14.816   3.384   6.741
14659SOL    HW145874  14.798   3.460   6.796
14659SOL    HW245875  14.779   3.407   6.656
14660SOL     OW45876   7.817   9.605   8.258
14660SOL    HW145877   7.737   9.583   8.305
14660SOL    HW245878   7.789   9.666   8.190
14661SOL     OW45879   9.575   6.509   0.701
14661SOL    HW145880   9.487   6.473   0.688
14661SOL    HW245881   9.564   6.603   0.690
14662SOL     OW45882   8.100   3.283   1.075
14662SOL    HW145883   8.055   3.259   1.156
14662SOL    HW245884   8.037   3.263   1.006
14663SOL     OW45885   1.776  10.247   5.545
14663SOL    HW145886   1.872  10.252   5.553
14663SOL    HW245887   1.744  10.318   5.601
14664SOL     OW45888  12.898   3.214   7.952
14664SOL    HW145889  12.936   3.146   8.008
14664SOL    HW245890  12.805   3.214   7.974
14665SOL     OW45891   9.360   6.825  11.119
14665SOL    HW145892   9.394   6.737  11.107
14665SOL    HW245893   9.435   6.877  11.149
14666SOL     OW45894   2.442   6.741  11.716
14666SOL    HW145895   2.398   6.825  11.705
14666SOL    HW245896   2.426   6.694  11.634
14667SOL     OW45897  14.853  12.908   1.179
14667SOL    HW145898  14.765  12.939   1.198
14667SOL    HW245899  14.841  12.821   1.143
14668SOL     OW45900   8.666   3.478   2.298
14668SOL    HW145901   8.680   3.501   2.206
14668SOL    HW245902   8.636   3.387   2.296
14669SOL     OW45903  10.639   8.642   1.614
14669SOL    HW145904  10.646   8.723   1.666
14669SOL    HW245905  10.729   8.621   1.589
14670SOL     OW45906   2.021  12.940   1.836
14670SOL    HW145907   1.984  12.854   1.856
14670SOL    HW245908   2.026  12.942   1.741
14671SOL     OW45909   8.557   0.108  13.448
14671SOL    HW145910   8.552   0.202  13.429
14671SOL    HW245911   8.478   0.090  13.500
14672SOL     OW45912   2.455   8.410   6.579
14672SOL    HW145913   2.528   8.370   6.532
14672SOL    HW245914   2.427   8.482   6.523
14673SOL     OW45915   7.867   5.412   8.513
14673SOL    HW145916   7.832   5.326   8.487
14673SOL    HW245917   7.795   5.455   8.558
14674SOL     OW45918   4.227  13.356   7.648
14674SOL    HW145919   4.257  13.268   7.626
14674SOL    HW245920   4.134  13.345   7.668
14675SOL     OW45921   8.126   2.305  13.719
14675SOL    HW145922   8.150   2.366  13.789
14675SOL    HW245923   8.045   2.264  13.750
14676SOL     OW45924  12.832  13.163   8.798
14676SOL    HW145925  12.862  13.193   8.712
14676SOL    HW245926  12.879  13.080   8.812
14677SOL     OW45927   2.208   0.112   1.576
14677SOL    HW145928   2.269   0.176   1.613
14677SOL    HW245929   2.168   0.158   1.502
14678SOL     OW45930   5.226   5.357   5.927
14678SOL    HW145931   5.157   5.292   5.913
14678SOL    HW245932   5.244   5.353   6.021
14679SOL     OW45933  11.594   9.860  10.745
14679SOL    HW145934  11.515   9.808  10.732
14679SOL    HW245935  11.578   9.941  10.696
14680SOL     OW45936   8.818   1.043  13.837
14680SOL    HW145937   8.883   0.982  13.803
14680SOL    HW245938   8.848   1.064  13.925
14681SOL     OW45939   1.210  12.573   4.802
14681SOL    HW145940   1.284  12.537   4.752
14681SOL    HW245941   1.135  12.521   4.774
14682SOL     OW45942  12.521   2.580   3.037
14682SOL    HW145943  12.553   2.569   2.947
14682SOL    HW245944  12.530   2.674   3.053
14683SOL     OW45945   3.015   9.203   9.335
14683SOL    HW145946   3.041   9.185   9.245
14683SOL    HW245947   2.931   9.248   9.327
14684SOL     OW45948  13.506  13.392   0.524
14684SOL    HW145949  13.587  13.421   0.566
14684SOL    HW245950  13.455  13.473   0.512
14685SOL     OW45951   1.170   0.324   0.221
14685SOL    HW145952   1.203   0.278   0.144
14685SOL    HW245953   1.243   0.380   0.249
14686SOL     OW45954  13.334   6.261   2.678
14686SOL    HW145955  13.389   6.337   2.656
14686SOL    HW245956  13.391   6.205   2.731
14687SOL     OW45957   1.952   0.024  13.968
14687SOL    HW145958   2.001   0.036  14.049
14687SOL    HW245959   2.019   0.017  13.900
14688SOL     OW45960   0.883   3.913  14.232
14688SOL    HW145961   0.802   3.909  14.283
14688SOL    HW245962   0.854   3.906  14.141
14689SOL     OW45963  14.011   2.861   1.426
14689SOL    HW145964  14.008   2.876   1.521
14689SOL    HW245965  14.065   2.933   1.392
14690SOL     OW45966  10.762   2.236   5.872
14690SOL    HW145967  10.673   2.260   5.897
14690SOL    HW245968  10.811   2.235   5.954
14691SOL     OW45969   9.708  13.401   3.645
14691SOL    HW145970   9.799  13.375   3.631
14691SOL    HW245971   9.706  13.494   3.621
14692SOL     OW45972   6.703   3.438  13.483
14692SOL    HW145973   6.658   3.358  13.457
14692SOL    HW245974   6.736   3.420  13.571
14693SOL     OW45975  14.806   0.340   4.000
14693SOL    HW145976  14.793   0.252   4.037
14693SOL    HW245977  14.831   0.393   4.075
14694SOL     OW45978   1.162   8.769   0.222
14694SOL    HW145979   1.157   8.743   0.130
14694SOL    HW245980   1.242   8.821   0.228
14695SOL     OW45981   8.579   7.240  12.058
14695SOL    HW145982   8.552   7.148  12.061
14695SOL    HW245983   8.558   7.274  12.145
14696SOL     OW45984   5.834   3.371  14.266
14696SOL    HW145985   5.796   3.458  14.257
14696SOL    HW245986   5.783   3.316  14.207
14697SOL     OW45987  12.086  14.100   9.225
14697SOL    HW145988  12.002  14.119   9.183
14697SOL    HW245989  12.129  14.185   9.233
14698SOL     OW45990   7.450  14.318   8.335
14698SOL    HW145991   7.388  14.309   8.407
14698SOL    HW245992   7.535  14.328   8.377
14699SOL     OW45993   2.607   7.047   0.796
14699SOL    HW145994   2.606   7.085   0.883
14699SOL    HW245995   2.515   7.032   0.775
14700SOL     OW45996   3.411  13.984   8.395
14700SOL    HW145997   3.409  13.972   8.490
14700SOL    HW245998   3.338  13.932   8.363
14701SOL     OW45999  12.502   0.267   5.593
14701SOL    HW146000  12.537   0.199   5.535
14701SOL    HW246001  12.535   0.242   5.680
14702SOL     OW46002   3.542   8.125   0.642
14702SOL    HW146003   3.592   8.128   0.723
14702SOL    HW246004   3.594   8.071   0.583
14703SOL     OW46005   7.587  10.958  13.442
14703SOL    HW146006   7.572  11.026  13.508
14703SOL    HW246007   7.511  10.899  13.451
14704SOL     OW46008  12.969  10.827  10.704
14704SOL    HW146009  13.011  10.744  10.726
14704SOL    HW246010  12.908  10.804  10.634
14705SOL     OW46011   9.788  12.505  14.436
14705SOL    HW146012   9.747  12.438  14.491
14705SOL    HW246013   9.867  12.463  14.402
14706SOL     OW46014   4.880   0.013   0.753
14706SOL    HW146015   4.841  14.806   0.710
14706SOL    HW246016   4.826   0.026   0.831
14707SOL     OW46017   8.025  10.966   3.793
14707SOL    HW146018   8.010  11.051   3.752
14707SOL    HW246019   8.009  10.902   3.724
14708SOL     OW46020   6.092   0.339  11.976
14708SOL    HW146021   6.030   0.279  11.935
14708SOL    HW246022   6.040   0.416  11.998
14709SOL     OW46023   2.039   0.123  11.373
14709SOL    HW146024   2.127   0.121  11.410
14709SOL    HW246025   1.992   0.187  11.427
14710SOL     OW46026   2.512  11.873   9.204
14710SOL    HW146027   2.500  11.953   9.256
14710SOL    HW246028   2.606  11.854   9.213
14711SOL     OW46029   7.610   8.306   0.704
14711SOL    HW146030   7.624   8.273   0.615
14711SOL    HW246031   7.527   8.354   0.698
14712SOL     OW46032  11.519   7.227   4.934
14712SOL    HW146033  11.532   7.194   4.845
14712SOL    HW246034  11.516   7.148   4.989
14713SOL     OW46035  13.146   7.935  13.522
14713SOL    HW146036  13.205   7.909  13.451
14713SOL    HW246037  13.158   8.029  13.530
14714SOL     OW46038  12.524   4.516   8.912
14714SOL    HW146039  12.445   4.567   8.924
14714SOL    HW246040  12.506   4.432   8.955
14715SOL     OW46041  10.753   9.267   4.745
14715SOL    HW146042  10.751   9.246   4.652
14715SOL    HW246043  10.829   9.325   4.755
14716SOL     OW46044   5.592  13.092  11.125
14716SOL    HW146045   5.594  13.101  11.221
14716SOL    HW246046   5.510  13.134  11.099
14717SOL     OW46047   1.172  11.831   5.123
14717SOL    HW146048   1.113  11.865   5.056
14717SOL    HW246049   1.134  11.746   5.147
14718SOL     OW46050   7.414  14.405   5.179
14718SOL    HW146051   7.351  14.405   5.251
14718SOL    HW246052   7.496  14.375   5.218
14719SOL     OW46053   7.574   7.144   9.259
14719SOL    HW146054   7.487   7.124   9.294
14719SOL    HW246055   7.557   7.185   9.174
14720SOL     OW46056   9.385   7.996   4.441
14720SOL    HW146057   9.383   7.903   4.464
14720SOL    HW246058   9.301   8.012   4.398
14721SOL     OW46059  13.126  10.859  12.698
14721SOL    HW146060  13.138  10.889  12.608
14721SOL    HW246061  13.213  10.829  12.725
14722SOL     OW46062   4.323   0.361   1.281
14722SOL    HW146063   4.405   0.391   1.241
14722SOL    HW246064   4.280   0.442   1.310
14723SOL     OW46065   5.309   7.711   5.839
14723SOL    HW146066   5.381   7.773   5.825
14723SOL    HW246067   5.236   7.747   5.789
14724SOL     OW46068  10.815   1.813   3.040
14724SOL    HW146069  10.775   1.726   3.038
14724SOL    HW246070  10.781   1.857   2.963
14725SOL     OW46071   6.911   0.802   9.580
14725SOL    HW146072   6.825   0.784   9.542
14725SOL    HW246073   6.905   0.892   9.612
14726SOL     OW46074   5.204   7.435   6.966
14726SOL    HW146075   5.133   7.497   6.981
14726SOL    HW246076   5.216   7.435   6.871
14727SOL     OW46077   2.244  10.706  13.851
14727SOL    HW146078   2.219  10.712  13.759
14727SOL    HW246079   2.319  10.765  13.859
14728SOL     OW46080   4.093   3.302   0.215
14728SOL    HW146081   4.143   3.323   0.136
14728SOL    HW246082   4.036   3.378   0.228
14729SOL     OW46083  12.270  10.545  14.493
14729SOL    HW146084  12.359  10.550  14.458
14729SOL    HW246085  12.269  10.608  14.565
14730SOL     OW46086   3.265  12.083   2.429
14730SOL    HW146087   3.326  12.099   2.501
14730SOL    HW246088   3.219  12.003   2.453
14731SOL     OW46089   1.556   7.561  13.746
14731SOL    HW146090   1.476   7.561  13.694
14731SOL    HW246091   1.563   7.651  13.778
14732SOL     OW46092  12.612  12.720   8.481
14732SOL    HW146093  12.612  12.708   8.576
14732SOL    HW246094  12.704  12.731   8.459
14733SOL     OW46095  13.400   7.790  13.448
14733SOL    HW146096  13.405   7.724  13.378
14733SOL    HW246097  13.392   7.738  13.528
14734SOL     OW46098  12.522   8.570  14.419
14734SOL    HW146099  12.506   8.660  14.446
14734SOL    HW246100  12.520   8.572  14.324
14735SOL     OW46101   6.612   8.148   8.954
14735SOL    HW146102   6.545   8.185   8.898
14735SOL    HW246103   6.663   8.091   8.897
14736SOL     OW46104   6.700   8.544   5.171
14736SOL    HW146105   6.751   8.488   5.112
14736SOL    HW246106   6.611   8.540   5.136
14737SOL     OW46107   7.356   7.481  11.389
14737SOL    HW146108   7.309   7.563  11.395
14737SOL    HW246109   7.360   7.461  11.296
14738SOL     OW46110   2.299   8.237  14.384
14738SOL    HW146111   2.390   8.253  14.359
14738SOL    HW246112   2.276   8.156  14.338
14739SOL     OW46113  12.430   9.104   2.032
14739SOL    HW146114  12.340   9.131   2.049
14739SOL    HW246115  12.423   9.029   1.974
14740SOL     OW46116   5.231  13.218  11.691
14740SOL    HW146117   5.182  13.201  11.610
14740SOL    HW246118   5.260  13.132  11.720
14741SOL     OW46119  14.682  14.279   9.022
14741SOL    HW146120  14.739  14.224   8.969
14741SOL    HW246121  14.617  14.218   9.059
14742SOL     OW46122  11.157   3.713   5.130
14742SOL    HW146123  11.142   3.729   5.036
14742SOL    HW246124  11.128   3.793   5.173
14743SOL     OW46125   1.476   6.082  13.594
14743SOL    HW146126   1.570   6.099  13.588
14743SOL    HW246127   1.453   6.043  13.509
14744SOL     OW46128  12.864  13.142   2.790
14744SOL    HW146129  12.885  13.213   2.850
14744SOL    HW246130  12.864  13.183   2.703
14745SOL     OW46131  11.581  13.832   8.027
14745SOL    HW146132  11.631  13.852   7.948
14745SOL    HW246133  11.646  13.803   8.091
14746SOL     OW46134   0.364  13.562  13.492
14746SOL    HW146135   0.362  13.562  13.396
14746SOL    HW246136   0.449  13.599  13.514
14747SOL     OW46137   4.078  11.940  14.349
14747SOL    HW146138   4.050  11.882  14.420
14747SOL    HW246139   4.026  11.912  14.274
14748SOL     OW46140  12.645   1.301  12.437
14748SOL    HW146141  12.680   1.216  12.408
14748SOL    HW246142  12.602   1.282  12.520
14749SOL     OW46143  12.878   0.686   9.558
14749SOL    HW146144  12.974   0.694   9.556
14749SOL    HW246145  12.858   0.623   9.488
14750SOL     OW46146   6.613  11.247   3.576
14750SOL    HW146147   6.701  11.270   3.545
14750SOL    HW246148   6.602  11.155   3.550
14751SOL     OW46149   4.843   5.269   2.976
14751SOL    HW146150   4.796   5.349   2.953
14751SOL    HW246151   4.826   5.210   2.902
14752SOL     OW46152   0.726   2.711  13.031
14752SOL    HW146153   0.639   2.676  13.012
14752SOL    HW246154   0.714   2.806  13.037
14753SOL     OW46155  10.026   0.749  12.330
14753SOL    HW146156  10.033   0.783  12.419
14753SOL    HW246157  10.105   0.781  12.286
14754SOL     OW46158   8.568   7.808   9.100
14754SOL    HW146159   8.565   7.903   9.113
14754SOL    HW246160   8.492   7.775   9.147
14755SOL     OW46161   5.844   3.595  12.438
14755SOL    HW146162   5.842   3.653  12.515
14755SOL    HW246163   5.768   3.538  12.450
14756SOL     OW46164  14.814  11.186   0.346
14756SOL    HW146165  14.736  11.178   0.292
14756SOL    HW246166  14.790  11.148   0.430
14757SOL     OW46167   4.224   4.708  14.638
14757SOL    HW146168   4.147   4.762  14.656
14757SOL    HW246169   4.291   4.740  14.700
14758SOL     OW46170   9.345   9.164  10.112
14758SOL    HW146171   9.283   9.184  10.182
14758SOL    HW246172   9.291   9.138  10.038
14759SOL     OW46173   8.647   0.592  10.843
14759SOL    HW146174   8.658   0.654  10.914
14759SOL    HW246175   8.646   0.646  10.764
14760SOL     OW46176   2.213  10.273  10.360
14760SOL    HW146177   2.163  10.224  10.295
14760SOL    HW246178   2.168  10.254  10.443
14761SOL     OW46179   0.749  10.641  13.884
14761SOL    HW146180   0.699  10.562  13.908
14761SOL    HW246181   0.839  10.621  13.910
14762SOL     OW46182  10.986   1.268   9.358
14762SOL    HW146183  11.019   1.208   9.424
14762SOL    HW246184  10.974   1.351   9.405
14763SOL     OW46185   1.907   9.267  12.642
14763SOL    HW146186   1.826   9.319  12.640
14763SOL    HW246187   1.886   9.187  12.594
14764SOL     OW46188   3.048   1.772  11.139
14764SOL    HW146189   3.039   1.833  11.066
14764SOL    HW246190   3.083   1.692  11.099
14765SOL     OW46191  14.596   9.289   4.184
14765SOL    HW146192  14.565   9.201   4.205
14765SOL    HW246193  14.674   9.300   4.239
14766SOL     OW46194   5.811   5.664   6.296
14766SOL    HW146195   5.824   5.573   6.324
14766SOL    HW246196   5.883   5.681   6.235
14767SOL     OW46197   5.141   7.050  10.162
14767SOL    HW146198   5.055   7.050  10.204
14767SOL    HW246199   5.127   7.092  10.077
14768SOL     OW46200   7.073   8.231   6.634
14768SOL    HW146201   7.159   8.242   6.674
14768SOL    HW246202   7.011   8.240   6.707
14769SOL     OW46203   6.001   5.663   8.582
14769SOL    HW146204   6.022   5.721   8.655
14769SOL    HW246205   6.030   5.576   8.610
14770SOL     OW46206   6.520   7.287  10.414
14770SOL    HW146207   6.574   7.208  10.414
14770SOL    HW246208   6.542   7.332  10.496
14771SOL     OW46209   7.495  14.542   1.763
14771SOL    HW146210   7.587  14.535   1.737
14771SOL    HW246211   7.472  14.633   1.746
14772SOL     OW46212   8.236   7.531   9.430
14772SOL    HW146213   8.141   7.542   9.429
14772SOL    HW246214   8.264   7.567   9.514
14773SOL     OW46215   0.257   0.929   3.353
14773SOL    HW146216   0.284   1.011   3.394
14773SOL    HW246217   0.253   0.948   3.259
14774SOL     OW46218  12.485  13.150   9.353
14774SOL    HW146219  12.504  13.242   9.370
14774SOL    HW246220  12.563  13.117   9.309
14775SOL     OW46221   4.270   1.942   5.464
14775SOL    HW146222   4.179   1.939   5.492
14775SOL    HW246223   4.273   2.011   5.397
14776SOL     OW46224   2.178   2.666  11.476
14776SOL    HW146225   2.180   2.749  11.427
14776SOL    HW246226   2.260   2.666  11.526
14777SOL     OW46227  12.717   2.742  12.364
14777SOL    HW146228  12.714   2.646  12.363
14777SOL    HW246229  12.722   2.767  12.272
14778SOL     OW46230   3.490   7.880   9.536
14778SOL    HW146231   3.558   7.814   9.544
14778SOL    HW246232   3.505   7.920   9.450
14779SOL     OW46233  14.085   6.064   7.324
14779SOL    HW146234  14.176   6.062   7.354
14779SOL    HW246235  14.061   6.157   7.326
14780SOL     OW46236   6.671   9.576   3.441
14780SOL    HW146237   6.604   9.599   3.377
14780SOL    HW246238   6.636   9.498   3.485
14781SOL     OW46239  13.627   0.175  14.150
14781SOL    HW146240  13.645   0.090  14.190
14781SOL    HW246241  13.581   0.224  14.218
14782SOL     OW46242   3.348  11.623   0.983
14782SOL    HW146243   3.391  11.706   1.002
14782SOL    HW246244   3.261  11.631   1.023
14783SOL     OW46245   5.598  12.282   0.269
14783SOL    HW146246   5.509  12.308   0.292
14783SOL    HW246247   5.651  12.361   0.282
14784SOL     OW46248  14.120   4.566   8.110
14784SOL    HW146249  14.196   4.623   8.098
14784SOL    HW246250  14.152   4.496   8.168
14785SOL     OW46251   3.479  14.346   6.022
14785SOL    HW146252   3.562  14.382   5.991
14785SOL    HW246253   3.493  14.252   6.022
14786SOL     OW46254   4.615   3.002   2.756
14786SOL    HW146255   4.570   2.918   2.766
14786SOL    HW246256   4.699   2.980   2.716
14787SOL     OW46257  11.421   3.760   6.710
14787SOL    HW146258  11.466   3.724   6.787
14787SOL    HW246259  11.360   3.691   6.684
14788SOL     OW46260  10.728  12.512   6.836
14788SOL    HW146261  10.682  12.578   6.785
14788SOL    HW246262  10.802  12.558   6.876
14789SOL     OW46263   3.304   0.113   8.518
14789SOL    HW146264   3.281   0.062   8.440
14789SOL    HW246265   3.355   0.052   8.572
14790SOL     OW46266   0.777   2.717   4.333
14790SOL    HW146267   0.748   2.762   4.253
14790SOL    HW246268   0.773   2.624   4.311
14791SOL     OW46269   7.546   7.208   7.444
14791SOL    HW146270   7.478   7.162   7.395
14791SOL    HW246271   7.508   7.294   7.462
14792SOL     OW46272  13.417  11.265   3.852
14792SOL    HW146273  13.432  11.356   3.881
14792SOL    HW246274  13.351  11.272   3.783
14793SOL     OW46275   7.126   8.314  11.794
14793SOL    HW146276   7.164   8.238  11.838
14793SOL    HW246277   7.039   8.285  11.766
14794SOL     OW46278   3.572   8.043   5.079
14794SOL    HW146279   3.526   8.090   5.148
14794SOL    HW246280   3.513   8.047   5.004
14795SOL     OW46281   5.960   2.366   8.874
14795SOL    HW146282   6.037   2.423   8.874
14795SOL    HW246283   5.893   2.417   8.829
14796SOL     OW46284   9.914  10.124   4.618
14796SOL    HW146285   9.912  10.028   4.609
14796SOL    HW246286   9.997  10.150   4.577
14797SOL     OW46287  10.168   0.556   4.977
14797SOL    HW146288  10.174   0.592   4.889
14797SOL    HW246289  10.083   0.586   5.010
14798SOL     OW46290   5.027   3.597  13.823
14798SOL    HW146291   5.008   3.638  13.739
14798SOL    HW246292   4.975   3.645  13.887
14799SOL     OW46293   9.082  14.415  10.870
14799SOL    HW146294   9.079  14.508  10.894
14799SOL    HW246295   9.090  14.415  10.775
14800SOL     OW46296   2.861  10.266   0.458
14800SOL    HW146297   2.829  10.200   0.520
14800SOL    HW246298   2.793  10.334   0.458
14801SOL     OW46299   5.275  11.153   3.963
14801SOL    HW146300   5.265  11.191   3.876
14801SOL    HW246301   5.340  11.210   4.006
14802SOL     OW46302   3.995   9.927  10.958
14802SOL    HW146303   3.970  10.017  10.980
14802SOL    HW246304   3.919   9.892  10.911
14803SOL     OW46305   8.158   6.316   2.434
14803SOL    HW146306   8.196   6.332   2.521
14803SOL    HW246307   8.167   6.399   2.387
14804SOL     OW46308   3.530   5.078   6.677
14804SOL    HW146309   3.588   5.037   6.740
14804SOL    HW246310   3.588   5.127   6.619
14805SOL     OW46311  12.453  11.338   2.719
14805SOL    HW146312  12.480  11.248   2.740
14805SOL    HW246313  12.396  11.363   2.792
14806SOL     OW46314   7.500   5.845   0.344
14806SOL    HW146315   7.457   5.795   0.414
14806SOL    HW246316   7.526   5.927   0.386
14807SOL     OW46317   2.082  11.192   7.487
14807SOL    HW146318   2.102  11.270   7.434
14807SOL    HW246319   2.163  11.173   7.532
14808SOL     OW46320   7.263  14.062   5.036
14808SOL    HW146321   7.319  14.089   4.963
14808SOL    HW246322   7.176  14.053   4.997
14809SOL     OW46323  13.101   0.768   8.898
14809SOL    HW146324  13.049   0.823   8.840
14809SOL    HW246325  13.190   0.802   8.890
14810SOL     OW46326   4.579  10.532   2.513
14810SOL    HW146327   4.486  10.543   2.494
14810SOL    HW246328   4.587  10.558   2.605
14811SOL     OW46329   6.140  10.754   2.098
14811SOL    HW146330   6.118  10.847   2.090
14811SOL    HW246331   6.174  10.730   2.012
14812SOL     OW46332   5.776   5.838   8.127
14812SOL    HW146333   5.770   5.798   8.041
14812SOL    HW246334   5.688   5.872   8.144
14813SOL     OW46335   6.813   8.360   3.567
14813SOL    HW146336   6.867   8.332   3.640
14813SOL    HW246337   6.836   8.453   3.554
14814SOL     OW46338   8.315   8.563  10.641
14814SOL    HW146339   8.242   8.565  10.703
14814SOL    HW246340   8.347   8.653  10.639
14815SOL     OW46341   0.124   0.833  14.306
14815SOL    HW146342   0.044   0.797  14.268
14815SOL    HW246343   0.154   0.766  14.367
14816SOL     OW46344  13.134   5.954   0.808
14816SOL    HW146345  13.177   5.885   0.859
14816SOL    HW246346  13.110   5.911   0.726
14817SOL     OW46347  11.485   7.849   8.606
14817SOL    HW146348  11.501   7.885   8.693
14817SOL    HW246349  11.436   7.768   8.622
14818SOL     OW46350   4.285   6.680   3.789
14818SOL    HW146351   4.266   6.771   3.811
14818SOL    HW246352   4.350   6.653   3.853
14819SOL     OW46353   3.046  11.830  13.268
14819SOL    HW146354   3.127  11.864  13.307
14819SOL    HW246355   3.069  11.812  13.177
14820SOL     OW46356   1.536  10.312   7.922
14820SOL    HW146357   1.592  10.388   7.908
14820SOL    HW246358   1.586  10.239   7.884
14821SOL     OW46359   1.168  14.336   1.870
14821SOL    HW146360   1.095  14.275   1.860
14821SOL    HW246361   1.129  14.423   1.860
14822SOL     OW46362   8.731  11.526   0.097
14822SOL    HW146363   8.749  11.467   0.023
14822SOL    HW246364   8.778  11.487   0.170
14823SOL     OW46365   8.923   5.074  13.785
14823SOL    HW146366   8.927   4.986  13.822
14823SOL    HW246367   8.956   5.131  13.854
14824SOL     OW46368  12.226  14.659  13.282
14824SOL    HW146369  12.319  14.666  13.261
14824SOL    HW246370  12.209  14.735  13.338
14825SOL     OW46371   7.225  12.985   4.089
14825SOL    HW146372   7.151  12.941   4.047
14825SOL    HW246373   7.188  13.065   4.125
14826SOL     OW46374  10.352  10.410   3.230
14826SOL    HW146375  10.354  10.347   3.158
14826SOL    HW246376  10.341  10.495   3.187
14827SOL     OW46377   0.484   4.687   7.782
14827SOL    HW146378   0.511   4.747   7.851
14827SOL    HW246379   0.565   4.664   7.737
14828SOL     OW46380   0.359   6.786   6.978
14828SOL    HW146381   0.316   6.871   6.971
14828SOL    HW246382   0.292   6.723   6.951
14829SOL     OW46383   5.920   7.478  13.447
14829SOL    HW146384   5.930   7.383  13.452
14829SOL    HW246385   6.007   7.510  13.427
14830SOL     OW46386   3.819  10.403  11.978
14830SOL    HW146387   3.743  10.344  11.978
14830SOL    HW246388   3.894  10.344  11.974
14831SOL     OW46389   7.629   0.174  13.185
14831SOL    HW146390   7.615   0.108  13.117
14831SOL    HW246391   7.567   0.149  13.255
14832SOL     OW46392   1.705  14.276  13.186
14832SOL    HW146393   1.654  14.210  13.233
14832SOL    HW246394   1.781  14.293  13.242
14833SOL     OW46395   9.226   0.057   0.477
14833SOL    HW146396   9.137   0.070   0.509
14833SOL    HW246397   9.259   0.146   0.462
14834SOL     OW46398   3.361  10.093  13.328
14834SOL    HW146399   3.322  10.099  13.415
14834SOL    HW246400   3.426  10.164  13.326
14835SOL     OW46401   6.655  11.653   7.066
14835SOL    HW146402   6.581  11.641   7.007
14835SOL    HW246403   6.693  11.566   7.076
14836SOL     OW46404   5.360  12.660  12.661
14836SOL    HW146405   5.338  12.577  12.704
14836SOL    HW246406   5.371  12.636  12.569
14837SOL     OW46407  13.347   0.667   9.738
14837SOL    HW146408  13.386   0.731   9.679
14837SOL    HW246409  13.373   0.582   9.703
14838SOL     OW46410   1.949  13.398   2.041
14838SOL    HW146411   1.959  13.303   2.039
14838SOL    HW246412   1.949  13.425   1.949
14839SOL     OW46413  13.098  14.285   0.526
14839SOL    HW146414  13.022  14.271   0.470
14839SOL    HW246415  13.070  14.352   0.588
14840SOL     OW46416   3.512   8.207   8.158
14840SOL    HW146417   3.458   8.165   8.226
14840SOL    HW246418   3.578   8.141   8.136
14841SOL     OW46419  12.742   7.515   8.029
14841SOL    HW146420  12.691   7.512   8.110
14841SOL    HW246421  12.717   7.597   7.987
14842SOL     OW46422  10.419   5.749  14.458
14842SOL    HW146423  10.392   5.658  14.472
14842SOL    HW246424  10.387   5.796  14.535
14843SOL     OW46425   1.994  11.163  10.384
14843SOL    HW146426   1.958  11.125  10.464
14843SOL    HW246427   1.917  11.184  10.331
14844SOL     OW46428   0.966  14.405  13.493
14844SOL    HW146429   0.927  14.420  13.407
14844SOL    HW246430   0.927  14.473  13.549
14845SOL     OW46431  14.507   1.997  13.070
14845SOL    HW146432  14.432   2.018  13.124
14845SOL    HW246433  14.502   2.058  12.996
14846SOL     OW46434   6.529   8.172  11.279
14846SOL    HW146435   6.482   8.129  11.207
14846SOL    HW246436   6.459   8.208  11.334
14847SOL     OW46437  10.812  12.399   5.869
14847SOL    HW146438  10.720  12.391   5.843
14847SOL    HW246439  10.822  12.491   5.892
14848SOL     OW46440   2.179  13.915   1.146
14848SOL    HW146441   2.185  13.868   1.229
14848SOL    HW246442   2.246  13.875   1.090
14849SOL     OW46443   9.467  13.266   0.810
14849SOL    HW146444   9.494  13.176   0.797
14849SOL    HW246445   9.525  13.318   0.754
14850SOL     OW46446   7.825   3.907   8.212
14850SOL    HW146447   7.901   3.929   8.158
14850SOL    HW246448   7.751   3.947   8.166
14851SOL     OW46449   2.486   9.681   7.722
14851SOL    HW146450   2.481   9.586   7.715
14851SOL    HW246451   2.559   9.697   7.781
14852SOL     OW46452   5.665   1.466   7.366
14852SOL    HW146453   5.603   1.508   7.425
14852SOL    HW246454   5.750   1.506   7.389
14853SOL     OW46455   9.716   8.015  11.682
14853SOL    HW146456   9.772   8.002  11.758
14853SOL    HW246457   9.775   8.052  11.615
14854SOL     OW46458  10.569   6.298   8.843
14854SOL    HW146459  10.550   6.380   8.888
14854SOL    HW246460  10.549   6.316   8.751
14855SOL     OW46461   8.797  13.041   9.680
14855SOL    HW146462   8.786  12.989   9.600
14855SOL    HW246463   8.874  13.004   9.723
14856SOL     OW46464   2.497   3.471   1.724
14856SOL    HW146465   2.440   3.499   1.653
14856SOL    HW246466   2.442   3.477   1.802
14857SOL     OW46467   7.404  12.490   1.104
14857SOL    HW146468   7.320  12.446   1.098
14857SOL    HW246469   7.397  12.565   1.044
14858SOL     OW46470   2.088   4.871   8.242
14858SOL    HW146471   2.104   4.934   8.312
14858SOL    HW246472   2.061   4.925   8.168
14859SOL     OW46473  14.020  10.487   6.942
14859SOL    HW146474  13.994  10.521   7.028
14859SOL    HW246475  13.948  10.511   6.884
14860SOL     OW46476  12.951  13.685   4.028
14860SOL    HW146477  13.014  13.616   4.007
14860SOL    HW246478  12.891  13.644   4.090
14861SOL     OW46479  10.254   0.304   0.146
14861SOL    HW146480  10.231   0.234   0.084
14861SOL    HW246481  10.198   0.287   0.222
14862SOL     OW46482   6.960   1.570   1.348
14862SOL    HW146483   7.032   1.604   1.400
14862SOL    HW246484   6.918   1.505   1.404
14863SOL     OW46485   1.495   4.583   6.161
14863SOL    HW146486   1.460   4.665   6.194
14863SOL    HW246487   1.469   4.581   6.069
14864SOL     OW46488   4.780  12.684  11.094
14864SOL    HW146489   4.764  12.743  11.021
14864SOL    HW246490   4.780  12.596  11.055
14865SOL     OW46491   2.252   5.750   0.891
14865SOL    HW146492   2.337   5.756   0.846
14865SOL    HW246493   2.227   5.841   0.906
14866SOL     OW46494  13.857   3.203   0.870
14866SOL    HW146495  13.801   3.261   0.922
14866SOL    HW246496  13.812   3.119   0.871
14867SOL     OW46497  13.809   9.506   5.291
14867SOL    HW146498  13.811   9.590   5.245
14867SOL    HW246499  13.723   9.504   5.333
14868SOL     OW46500  10.443   7.845  10.493
14868SOL    HW146501  10.460   7.778  10.426
14868SOL    HW246502  10.363   7.815  10.537
14869SOL     OW46503   7.797   2.814  10.625
14869SOL    HW146504   7.784   2.865  10.545
14869SOL    HW246505   7.738   2.855  10.689
14870SOL     OW46506  14.204   5.813  13.228
14870SOL    HW146507  14.239   5.770  13.306
14870SOL    HW246508  14.193   5.904  13.253
14871SOL     OW46509   5.969   4.372   3.094
14871SOL    HW146510   5.986   4.465   3.109
14871SOL    HW246511   5.953   4.335   3.181
14872SOL     OW46512   5.886  13.011   7.468
14872SOL    HW146513   5.980  13.031   7.472
14872SOL    HW246514   5.863  12.986   7.558
14873SOL     OW46515   8.974   7.493   9.986
14873SOL    HW146516   9.022   7.474  10.067
14873SOL    HW246517   9.013   7.435   9.921
14874SOL     OW46518   1.082  13.938   0.312
14874SOL    HW146519   1.090  14.026   0.349
14874SOL    HW246520   0.988  13.923   0.306
14875SOL     OW46521   7.939   3.159   6.242
14875SOL    HW146522   8.016   3.171   6.297
14875SOL    HW246523   7.872   3.124   6.301
14876SOL     OW46524   7.448   6.258   8.055
14876SOL    HW146525   7.428   6.164   8.051
14876SOL    HW246526   7.437   6.289   7.965
14877SOL     OW46527   6.513   9.599   7.876
14877SOL    HW146528   6.527   9.618   7.784
14877SOL    HW246529   6.485   9.682   7.914
14878SOL     OW46530  13.330  14.474   8.652
14878SOL    HW146531  13.397  14.542   8.651
14878SOL    HW246532  13.282  14.489   8.733
14879SOL     OW46533  13.434   3.825  12.228
14879SOL    HW146534  13.438   3.746  12.175
14879SOL    HW246535  13.372   3.804  12.298
14880SOL     OW46536   8.408   3.147   3.208
14880SOL    HW146537   8.434   3.107   3.125
14880SOL    HW246538   8.433   3.082   3.275
14881SOL     OW46539   9.227   6.882   0.871
14881SOL    HW146540   9.212   6.798   0.828
14881SOL    HW246541   9.246   6.860   0.962
14882SOL     OW46542   8.536  11.389   0.422
14882SOL    HW146543   8.609  11.333   0.395
14882SOL    HW246544   8.565  11.430   0.503
14883SOL     OW46545   2.458  12.425   4.643
14883SOL    HW146546   2.444  12.404   4.551
14883SOL    HW246547   2.548  12.458   4.646
14884SOL     OW46548   6.400  14.680   4.067
14884SOL    HW146549   6.324  14.713   4.114
14884SOL    HW246550   6.392  14.715   3.979
14885SOL     OW46551  11.229   2.461  11.047
14885SOL    HW146552  11.176   2.393  11.088
14885SOL    HW246553  11.170   2.505  10.987
14886SOL     OW46554  12.438  10.068   5.349
14886SOL    HW146555  12.463  10.129   5.419
14886SOL    HW246556  12.408   9.990   5.395
14887SOL     OW46557   2.843   6.821   4.703
14887SOL    HW146558   2.880   6.736   4.680
14887SOL    HW246559   2.848   6.825   4.798
14888SOL     OW46560  14.223  12.681  13.290
14888SOL    HW146561  14.144  12.631  13.269
14888SOL    HW246562  14.192  12.758  13.336
14889SOL     OW46563  11.678  12.082   2.097
14889SOL    HW146564  11.754  12.033   2.065
14889SOL    HW246565  11.665  12.152   2.033
14890SOL     OW46566  13.833   7.968   5.852
14890SOL    HW146567  13.870   8.014   5.777
14890SOL    HW246568  13.826   7.877   5.822
14891SOL     OW46569  13.201   9.609  11.703
14891SOL    HW146570  13.288   9.623  11.739
14891SOL    HW246571  13.216   9.572  11.616
14892SOL     OW46572  12.413  10.315   7.092
14892SOL    HW146573  12.466  10.273   7.024
14892SOL    HW246574  12.326  10.277   7.081
14893SOL     OW46575   5.650  14.343   2.117
14893SOL    HW146576   5.587  14.275   2.143
14893SOL    HW246577   5.696  14.304   2.042
14894SOL     OW46578  14.031   8.947   8.727
14894SOL    HW146579  13.942   8.969   8.755
14894SOL    HW246580  14.058   9.021   8.672
14895SOL     OW46581  14.254   8.270   8.505
14895SOL    HW146582  14.271   8.225   8.422
14895SOL    HW246583  14.256   8.363   8.483
14896SOL     OW46584   5.698  12.073   9.173
14896SOL    HW146585   5.718  12.146   9.232
14896SOL    HW246586   5.737  12.099   9.090
14897SOL     OW46587   2.626  11.302  10.951
14897SOL    HW146588   2.544  11.303  10.903
14897SOL    HW246589   2.656  11.393  10.948
14898SOL     OW46590   4.658   7.203   3.693
14898SOL    HW146591   4.571   7.195   3.733
14898SOL    HW246592   4.687   7.291   3.717
14899SOL     OW46593   3.610   1.120   1.388
14899SOL    HW146594   3.647   1.185   1.328
14899SOL    HW246595   3.516   1.124   1.372
14900SOL     OW46596   8.349   6.179   9.712
14900SOL    HW146597   8.420   6.163   9.774
14900SOL    HW246598   8.378   6.255   9.661
14901SOL     OW46599  13.577  14.548   8.196
14901SOL    HW146600  13.530  14.504   8.266
14901SOL    HW246601  13.622  14.620   8.239
14902SOL     OW46602   4.186   0.794   2.129
14902SOL    HW146603   4.243   0.863   2.098
14902SOL    HW246604   4.205   0.719   2.072
14903SOL     OW46605  11.797   4.303   2.022
14903SOL    HW146606  11.752   4.301   2.107
14903SOL    HW246607  11.859   4.376   2.030
14904SOL     OW46608   1.600  12.290   5.282
14904SOL    HW146609   1.530  12.252   5.230
14904SOL    HW246610   1.656  12.215   5.305
14905SOL     OW46611   5.520  11.649  13.272
14905SOL    HW146612   5.443  11.622  13.222
14905SOL    HW246613   5.573  11.570  13.279
14906SOL     OW46614  13.549   8.772   1.632
14906SOL    HW146615  13.640   8.742   1.633
14906SOL    HW246616  13.525   8.774   1.539
14907SOL     OW46617  13.098   9.069   5.802
14907SOL    HW146618  13.124   9.141   5.744
14907SOL    HW246619  13.176   9.052   5.855
14908SOL     OW46620   1.831  10.405   3.171
14908SOL    HW146621   1.853  10.317   3.142
14908SOL    HW246622   1.745  10.422   3.134
14909SOL     OW46623  14.495   2.744  12.790
14909SOL    HW146624  14.458   2.741  12.701
14909SOL    HW246625  14.568   2.805  12.783
14910SOL     OW46626   8.930   0.771   9.881
14910SOL    HW146627   9.022   0.796   9.888
14910SOL    HW246628   8.883   0.854   9.871
14911SOL     OW46629   3.442   0.285  12.799
14911SOL    HW146630   3.432   0.366  12.750
14911SOL    HW246631   3.470   0.313  12.886
14912SOL     OW46632   0.562  14.855   7.665
14912SOL    HW146633   0.622  14.790   7.627
14912SOL    HW246634   0.486  14.854   7.607
14913SOL     OW46635   2.554   5.154   9.090
14913SOL    HW146636   2.488   5.183   9.028
14913SOL    HW246637   2.558   5.223   9.156
14914SOL     OW46638   9.303   6.537   0.581
14914SOL    HW146639   9.259   6.483   0.515
14914SOL    HW246640   9.233   6.591   0.618
14915SOL     OW46641   0.013  13.624   1.576
14915SOL    HW146642   0.078  13.627   1.647
14915SOL    HW246643  14.812  13.570   1.612
14916SOL     OW46644   3.779   7.252  12.966
14916SOL    HW146645   3.770   7.180  13.028
14916SOL    HW246646   3.793   7.208  12.882
14917SOL     OW46647   1.711  14.679   8.751
14917SOL    HW146648   1.769  14.747   8.716
14917SOL    HW246649   1.678  14.633   8.674
14918SOL     OW46650  14.020  14.140   2.463
14918SOL    HW146651  14.068  14.057   2.463
14918SOL    HW246652  14.058  14.189   2.389
14919SOL     OW46653   0.984   6.373  12.040
14919SOL    HW146654   0.911   6.335  12.088
14919SOL    HW246655   1.054   6.381  12.105
14920SOL     OW46656   5.327  11.063   5.707
14920SOL    HW146657   5.381  11.094   5.635
14920SOL    HW246658   5.285  10.984   5.673
14921SOL     OW46659   7.102   6.481   7.933
14921SOL    HW146660   7.171   6.415   7.934
14921SOL    HW246661   7.135   6.552   7.987
14922SOL     OW46662   1.533  12.398  12.289
14922SOL    HW146663   1.546  12.440  12.203
14922SOL    HW246664   1.591  12.322  12.287
14923SOL     OW46665  13.936   2.221   6.990
14923SOL    HW146666  13.959   2.311   6.965
14923SOL    HW246667  13.939   2.222   7.086
14924SOL     OW46668   3.194  12.451   6.680
14924SOL    HW146669   3.207  12.544   6.697
14924SOL    HW246670   3.100  12.437   6.690
14925SOL     OW46671   3.067   0.359   4.615
14925SOL    HW146672   3.102   0.373   4.703
14925SOL    HW246673   2.973   0.375   4.623
14926SOL     OW46674   6.955  13.606   0.951
14926SOL    HW146675   7.025  13.607   0.886
14926SOL    HW246676   7.000  13.613   1.036
14927SOL     OW46677  12.613  13.955   2.078
14927SOL    HW146678  12.673  13.893   2.119
14927SOL    HW246679  12.667  14.032   2.058
14928SOL     OW46680  13.362   3.930  13.357
14928SOL    HW146681  13.413   4.003  13.322
14928SOL    HW246682  13.281   3.930  13.305
14929SOL     OW46683   1.025  14.588   1.843
14929SOL    HW146684   0.942  14.633   1.861
14929SOL    HW246685   1.038  14.599   1.749
14930SOL     OW46686  11.253  14.144   7.873
14930SOL    HW146687  11.326  14.082   7.865
14930SOL    HW246688  11.289  14.227   7.844
14931SOL     OW46689  13.111   8.660   0.775
14931SOL    HW146690  13.124   8.743   0.729
14931SOL    HW246691  13.184   8.605   0.747
14932SOL     OW46692  13.615   8.098   7.364
14932SOL    HW146693  13.527   8.126   7.339
14932SOL    HW246694  13.649   8.168   7.419
14933SOL     OW46695   9.503   4.171  11.562
14933SOL    HW146696   9.513   4.230  11.636
14933SOL    HW246697   9.565   4.203  11.497
14934SOL     OW46698   1.626   2.114  12.925
14934SOL    HW146699   1.589   2.027  12.911
14934SOL    HW246700   1.588   2.169  12.858
14935SOL     OW46701  12.888   2.264   3.044
14935SOL    HW146702  12.822   2.326   3.075
14935SOL    HW246703  12.955   2.266   3.113
14936SOL     OW46704  10.425  12.676  11.872
14936SOL    HW146705  10.333  12.669  11.848
14936SOL    HW246706  10.430  12.753  11.929
14937SOL     OW46707   5.507  14.854   4.382
14937SOL    HW146708   5.591  14.824   4.417
14937SOL    HW246709   5.463   0.026   4.456
14938SOL     OW46710  11.348  12.919   7.768
14938SOL    HW146711  11.262  12.948   7.799
14938SOL    HW246712  11.410  12.971   7.818
14939SOL     OW46713  13.606   0.754  14.441
14939SOL    HW146714  13.650   0.668  14.445
14939SOL    HW246715  13.546   0.754  14.515
14940SOL     OW46716   2.832   6.121  10.477
14940SOL    HW146717   2.925   6.109  10.458
14940SOL    HW246718   2.809   6.050  10.536
14941SOL     OW46719   2.003   0.103   6.865
14941SOL    HW146720   2.003   0.068   6.954
14941SOL    HW246721   2.004   0.198   6.876
14942SOL     OW46722   9.730  10.689  11.885
14942SOL    HW146723   9.702  10.764  11.833
14942SOL    HW246724   9.824  10.684  11.872
14943SOL     OW46725  12.947  14.258  14.390
14943SOL    HW146726  12.948  14.202  14.468
14943SOL    HW246727  13.010  14.218  14.331
14944SOL     OW46728  14.777  11.848   0.482
14944SOL    HW146729  14.801  11.755   0.482
14944SOL    HW246730  14.685  11.848   0.455
14945SOL     OW46731   7.950   1.968  11.258
14945SOL    HW146732   8.017   1.907  11.289
14945SOL    HW246733   7.978   1.991  11.170
14946SOL     OW46734   3.430   3.796  12.548
14946SOL    HW146735   3.482   3.724  12.584
14946SOL    HW246736   3.494   3.866  12.534
14947SOL     OW46737   1.274   6.330   1.128
14947SOL    HW146738   1.268   6.424   1.145
14947SOL    HW246739   1.367   6.315   1.113
14948SOL     OW46740  10.719   0.121  12.431
14948SOL    HW146741  10.804   0.077  12.430
14948SOL    HW246742  10.719   0.176  12.353
14949SOL     OW46743   9.144   8.744   2.704
14949SOL    HW146744   9.105   8.661   2.733
14949SOL    HW246745   9.123   8.806   2.775
14950SOL     OW46746  12.989  10.020   3.924
14950SOL    HW146747  13.051   9.994   3.993
14950SOL    HW246748  12.986  10.115   3.929
14951SOL     OW46749   7.457   9.229   8.030
14951SOL    HW146750   7.446   9.290   8.103
14951SOL    HW246751   7.465   9.143   8.071
14952SOL     OW46752   4.213   3.610   0.569
14952SOL    HW146753   4.152   3.571   0.631
14952SOL    HW246754   4.158   3.660   0.509
14953SOL     OW46755   2.249   7.808   4.781
14953SOL    HW146756   2.167   7.854   4.801
14953SOL    HW246757   2.222   7.731   4.730
14954SOL     OW46758   6.415   6.830  12.494
14954SOL    HW146759   6.480   6.880  12.444
14954SOL    HW246760   6.468   6.767  12.545
14955SOL     OW46761  10.608  13.823  11.523
14955SOL    HW146762  10.689  13.869  11.500
14955SOL    HW246763  10.568  13.879  11.590
14956SOL     OW46764  13.468   8.011   3.646
14956SOL    HW146765  13.412   8.074   3.602
14956SOL    HW246766  13.442   7.926   3.611
14957SOL     OW46767   8.625  12.270  13.460
14957SOL    HW146768   8.553  12.242  13.403
14957SOL    HW246769   8.597  12.355  13.494
14958SOL     OW46770   0.709  11.445   4.103
14958SOL    HW146771   0.651  11.386   4.055
14958SOL    HW246772   0.753  11.390   4.167
14959SOL     OW46773  10.262  11.708  14.757
14959SOL    HW146774  10.319  11.660  14.818
14959SOL    HW246775  10.271  11.800  14.782
14960SOL     OW46776  11.155   7.770   2.252
14960SOL    HW146777  11.178   7.687   2.209
14960SOL    HW246778  11.233   7.795   2.301
14961SOL     OW46779   5.120   8.813   2.216
14961SOL    HW146780   5.197   8.756   2.223
14961SOL    HW246781   5.055   8.773   2.274
14962SOL     OW46782  13.410   8.193  11.985
14962SOL    HW146783  13.503   8.191  12.010
14962SOL    HW246784  13.388   8.286  11.979
14963SOL     OW46785   8.240   0.343   0.637
14963SOL    HW146786   8.155   0.358   0.678
14963SOL    HW246787   8.284   0.428   0.642
14964SOL     OW46788   4.547   0.895  14.026
14964SOL    HW146789   4.557   0.989  14.009
14964SOL    HW246790   4.501   0.862  13.950
14965SOL     OW46791   7.286  13.301  14.461
14965SOL    HW146792   7.352  13.370  14.463
14965SOL    HW246793   7.328  13.227  14.505
14966SOL     OW46794   6.305  13.916  10.050
14966SOL    HW146795   6.303  13.928  10.145
14966SOL    HW246796   6.396  13.895  10.030
14967SOL     OW46797  11.950  12.605   3.222
14967SOL    HW146798  11.981  12.625   3.310
14967SOL    HW246799  11.924  12.513   3.225
14968SOL     OW46800   4.751   5.858  13.702
14968SOL    HW146801   4.665   5.850  13.661
14968SOL    HW246802   4.733   5.880  13.793
14969SOL     OW46803   3.808   2.777   0.211
14969SOL    HW146804   3.822   2.797   0.119
14969SOL    HW246805   3.771   2.689   0.212
14970SOL     OW46806   2.523   8.638  13.123
14970SOL    HW146807   2.618   8.652  13.118
14970SOL    HW246808   2.486   8.712  13.076
14971SOL     OW46809   3.022   4.943  14.431
14971SOL    HW146810   3.090   4.877  14.434
14971SOL    HW246811   2.970   4.928  14.509
14972SOL     OW46812   9.994   9.887  10.451
14972SOL    HW146813   9.936   9.958  10.479
14972SOL    HW246814   9.951   9.852  10.372
14973SOL     OW46815  10.137  12.041   8.347
14973SOL    HW146816  10.143  12.084   8.432
14973SOL    HW246817  10.061  11.984   8.354
14974SOL     OW46818  12.042   8.287   8.167
14974SOL    HW146819  12.078   8.372   8.145
14974SOL    HW246820  11.993   8.260   8.090
14975SOL     OW46821  11.713   9.544   8.697
14975SOL    HW146822  11.627   9.558   8.735
14975SOL    HW246823  11.717   9.449   8.682
14976SOL     OW46824  14.599   2.617   3.260
14976SOL    HW146825  14.565   2.683   3.320
14976SOL    HW246826  14.600   2.661   3.174
14977SOL     OW46827   5.353   1.746   0.171
14977SOL    HW146828   5.324   1.688   0.100
14977SOL    HW246829   5.272   1.786   0.203
14978SOL     OW46830  13.530   1.843   1.701
14978SOL    HW146831  13.448   1.880   1.666
14978SOL    HW246832  13.504   1.803   1.784
14979SOL     OW46833  14.866  13.982   5.411
14979SOL    HW146834  14.827  13.934   5.338
14979SOL    HW246835  14.803  13.974   5.482
14980SOL     OW46836   1.141   8.411   5.088
14980SOL    HW146837   1.078   8.461   5.139
14980SOL    HW246838   1.180   8.474   5.028
14981SOL     OW46839  11.519   7.963   7.529
14981SOL    HW146840  11.562   7.969   7.444
14981SOL    HW246841  11.451   7.896   7.517
14982SOL     OW46842  14.804   4.535   1.023
14982SOL    HW146843   0.018   4.530   1.070
14982SOL    HW246844  14.786   4.629   1.015
14983SOL     OW46845   7.271   3.910   1.290
14983SOL    HW146846   7.314   3.920   1.375
14983SOL    HW246847   7.300   3.986   1.240
14984SOL     OW46848  14.719   4.474   7.432
14984SOL    HW146849  14.814   4.467   7.434
14984SOL    HW246850  14.692   4.452   7.522
14985SOL     OW46851   0.493   5.004   2.872
14985SOL    HW146852   0.566   4.956   2.911
14985SOL    HW246853   0.520   5.096   2.875
14986SOL     OW46854   6.880   3.229   8.463
14986SOL    HW146855   6.826   3.187   8.530
14986SOL    HW246856   6.898   3.160   8.399
14987SOL     OW46857  12.193  12.589   8.626
14987SOL    HW146858  12.263  12.524   8.633
14987SOL    HW246859  12.160  12.599   8.715
14988SOL     OW46860   2.701  11.520  12.145
14988SOL    HW146861   2.741  11.517  12.232
14988SOL    HW246862   2.686  11.429  12.121
14989SOL     OW46863  12.122  12.392  13.299
14989SOL    HW146864  12.162  12.386  13.386
14989SOL    HW246865  12.058  12.321  13.297
14990SOL     OW46866  13.731  10.141  12.433
14990SOL    HW146867  13.749  10.235  12.427
14990SOL    HW246868  13.811  10.104  12.471
14991SOL     OW46869   9.941   4.174   2.296
14991SOL    HW146870   9.987   4.108   2.245
14991SOL    HW246871   9.986   4.256   2.275
14992SOL     OW46872   1.191   8.838   5.686
14992SOL    HW146873   1.251   8.785   5.632
14992SOL    HW246874   1.141   8.773   5.736
14993SOL     OW46875  14.640   6.921  12.721
14993SOL    HW146876  14.646   6.879  12.806
14993SOL    HW246877  14.648   6.849  12.658
14994SOL     OW46878   9.952  14.433  10.341
14994SOL    HW146879   9.953  14.342  10.313
14994SOL    HW246880   9.923  14.430  10.432
14995SOL     OW46881   0.325   4.496  13.260
14995SOL    HW146882   0.400   4.556  13.253
14995SOL    HW246883   0.295   4.506  13.351
14996SOL     OW46884   6.269  13.601   1.769
14996SOL    HW146885   6.215  13.648   1.832
14996SOL    HW246886   6.299  13.523   1.815
14997SOL     OW46887   1.408   1.145   6.972
14997SOL    HW146888   1.422   1.202   6.897
14997SOL    HW246889   1.420   1.056   6.938
14998SOL     OW46890  13.162   0.780   4.850
14998SOL    HW146891  13.115   0.839   4.909
14998SOL    HW246892  13.211   0.838   4.792
14999SOL     OW46893   7.913   2.539   4.988
14999SOL    HW146894   7.922   2.634   4.986
14999SOL    HW246895   7.927   2.511   4.898
15000SOL     OW46896   7.148   8.674   0.054
15000SOL    HW146897   7.157   8.736   0.126
15000SOL    HW246898   7.053   8.666   0.042
15001SOL     OW46899  13.088   6.482  13.208
15001SOL    HW146900  13.086   6.439  13.293
15001SOL    HW246901  12.999   6.473  13.174
15002SOL     OW46902   1.063   5.154   4.737
15002SOL    HW146903   1.105   5.141   4.651
15002SOL    HW246904   1.057   5.066   4.774
15003SOL     OW46905  10.092   1.239   4.554
15003SOL    HW146906  10.134   1.231   4.469
15003SOL    HW246907  10.076   1.333   4.564
15004SOL     OW46908   8.940   1.311  10.466
15004SOL    HW146909   8.894   1.388  10.498
15004SOL    HW246910   8.878   1.268  10.407
15005SOL     OW46911   3.496  13.618  10.973
15005SOL    HW146912   3.499  13.610  10.877
15005SOL    HW246913   3.571  13.673  10.995
15006SOL     OW46914  13.314   6.714   7.815
15006SOL    HW146915  13.244   6.750   7.870
15006SOL    HW246916  13.268   6.662   7.749
15007SOL     OW46917   5.945  10.979  14.167
15007SOL    HW146918   5.913  10.977  14.077
15007SOL    HW246919   5.928  10.891  14.201
15008SOL     OW46920   6.561   7.302   9.407
15008SOL    HW146921   6.630   7.340   9.352
15008SOL    HW246922   6.575   7.342   9.493
15009SOL     OW46923  12.901   0.466   7.833
15009SOL    HW146924  12.892   0.499   7.922
15009SOL    HW246925  12.946   0.381   7.843
15010SOL     OW46926  12.608   7.859   3.940
15010SOL    HW146927  12.572   7.830   3.857
15010SOL    HW246928  12.570   7.800   4.005
15011SOL     OW46929   7.503  12.307   8.994
15011SOL    HW146930   7.416  12.344   9.011
15011SOL    HW246931   7.514  12.315   8.900
15012SOL     OW46932   4.348  14.038  12.934
15012SOL    HW146933   4.430  14.008  12.895
15012SOL    HW246934   4.364  14.129  12.958
15013SOL     OW46935   9.763  12.546   0.838
15013SOL    HW146936   9.750  12.484   0.909
15013SOL    HW246937   9.713  12.510   0.765
15014SOL     OW46938   7.013   6.910   0.027
15014SOL    HW146939   6.917   6.918   0.026
15014SOL    HW246940   7.033   6.848  14.826
15015SOL     OW46941   8.300  13.317   8.504
15015SOL    HW146942   8.388  13.290   8.530
15015SOL    HW246943   8.280  13.391   8.562
15016SOL     OW46944  11.482   8.445   2.224
15016SOL    HW146945  11.433   8.368   2.193
15016SOL    HW246946  11.503   8.494   2.144
15017SOL     OW46947  13.178  13.661   8.087
15017SOL    HW146948  13.232  13.734   8.117
15017SOL    HW246949  13.123  13.639   8.163
15018SOL     OW46950   1.574  13.215   7.160
15018SOL    HW146951   1.649  13.242   7.107
15018SOL    HW246952   1.505  13.196   7.097
15019SOL     OW46953   4.170  13.247  11.871
15019SOL    HW146954   4.115  13.258  11.949
15019SOL    HW246955   4.250  13.205  11.903
15020SOL     OW46956  10.392  12.027   4.898
15020SOL    HW146957  10.476  12.025   4.851
15020SOL    HW246958  10.407  12.088   4.970
15021SOL     OW46959   4.135  13.535  11.174
15021SOL    HW146960   4.065  13.507  11.115
15021SOL    HW246961   4.090  13.574  11.248
15022SOL     OW46962   6.465   1.850   5.009
15022SOL    HW146963   6.503   1.923   5.057
15022SOL    HW246964   6.526   1.778   5.021
15023SOL     OW46965   5.605   4.477  14.005
15023SOL    HW146966   5.601   4.382  13.996
15023SOL    HW246967   5.591   4.510  13.917
15024SOL     OW46968   3.064   8.288   4.698
15024SOL    HW146969   3.150   8.259   4.666
15024SOL    HW246970   3.017   8.314   4.619
15025SOL     OW46971   5.958  13.796   6.491
15025SOL    HW146972   5.939  13.780   6.399
15025SOL    HW246973   5.961  13.709   6.530
15026SOL     OW46974   3.453   8.601   1.934
15026SOL    HW146975   3.389   8.539   1.898
15026SOL    HW246976   3.423   8.617   2.023
15027SOL     OW46977   1.796  11.441  13.935
15027SOL    HW146978   1.835  11.481  13.857
15027SOL    HW246979   1.869  11.435  13.997
15028SOL     OW46980   0.666   4.502   6.301
15028SOL    HW146981   0.666   4.490   6.396
15028SOL    HW246982   0.677   4.414   6.265
15029SOL     OW46983   7.476   4.489  13.044
15029SOL    HW146984   7.544   4.489  12.977
15029SOL    HW246985   7.470   4.398  13.073
15030SOL     OW46986   8.249  13.394   7.057
15030SOL    HW146987   8.236  13.488   7.060
15030SOL    HW246988   8.329  13.379   7.107
15031SOL     OW46989  11.505  12.318  12.489
15031SOL    HW146990  11.471  12.238  12.529
15031SOL    HW246991  11.460  12.324  12.404
15032SOL     OW46992   0.407   0.565   5.241
15032SOL    HW146993   0.457   0.520   5.174
15032SOL    HW246994   0.421   0.658   5.224
15033SOL     OW46995   0.794   7.783   4.936
15033SOL    HW146996   0.872   7.765   4.884
15033SOL    HW246997   0.760   7.865   4.902
15034SOL     OW46998   7.272   4.698   4.034
15034SOL    HW146999   7.343   4.757   4.060
15034SOL    HW247000   7.236   4.738   3.955
15035SOL     OW47001  13.663  13.507  13.694
15035SOL    HW147002  13.576  13.476  13.720
15035SOL    HW247003  13.676  13.587  13.745
15036SOL     OW47004   8.203  12.930   6.579
15036SOL    HW147005   8.282  12.979   6.559
15036SOL    HW247006   8.184  12.881   6.499
15037SOL     OW47007  13.122  14.399  14.599
15037SOL    HW147008  13.050  14.429  14.544
15037SOL    HW247009  13.167  14.334  14.545
15038SOL     OW47010  13.478   7.336  14.301
15038SOL    HW147011  13.416   7.265  14.281
15038SOL    HW247012  13.436   7.415  14.267
15039SOL     OW47013   9.738   0.004  10.137
15039SOL    HW147014   9.812   0.061  10.158
15039SOL    HW247015   9.775  14.808  10.077
15040SOL     OW47016  11.002  13.600   9.399
15040SOL    HW147017  10.976  13.657   9.471
15040SOL    HW247018  10.924  13.550   9.378
15041SOL     OW47019   2.904   7.524   5.289
15041SOL    HW147020   2.814   7.525   5.258
15041SOL    HW247021   2.953   7.481   5.219
15042SOL     OW47022  13.435  10.130   2.180
15042SOL    HW147023  13.377  10.174   2.243
15042SOL    HW247024  13.461  10.049   2.224
15043SOL     OW47025  13.956   8.709   4.608
15043SOL    HW147026  13.984   8.798   4.627
15043SOL    HW247027  13.916   8.714   4.521
15044SOL     OW47028  12.230   3.976   5.304
15044SOL    HW147029  12.240   4.043   5.372
15044SOL    HW247030  12.220   4.026   5.222
15045SOL     OW47031   1.266  13.525   5.346
15045SOL    HW147032   1.257  13.568   5.431
15045SOL    HW247033   1.178  13.527   5.308
15046SOL     OW47034   6.539   6.576   4.605
15046SOL    HW147035   6.626   6.555   4.571
15046SOL    HW247036   6.537   6.538   4.693
15047SOL     OW47037  12.272  10.052  12.243
15047SOL    HW147038  12.353  10.002  12.235
15047SOL    HW247039  12.246  10.040  12.335
15048SOL     OW47040   1.582   2.806   6.787
15048SOL    HW147041   1.604   2.892   6.824
15048SOL    HW247042   1.528   2.826   6.711
15049SOL     OW47043   5.984  11.267   4.971
15049SOL    HW147044   6.008  11.218   5.050
15049SOL    HW247045   5.921  11.333   5.002
15050SOL     OW47046   7.245   8.868  11.980
15050SOL    HW147047   7.203   8.937  12.032
15050SOL    HW247048   7.287   8.915  11.908
15051SOL     OW47049  11.043   2.249  12.137
15051SOL    HW147050  11.069   2.338  12.114
15051SOL    HW247051  10.952   2.242  12.108
15052SOL     OW47052   9.158   4.820  14.340
15052SOL    HW147053   9.124   4.753  14.399
15052SOL    HW247054   9.165   4.899  14.394
15053SOL     OW47055   6.516   7.990  10.325
15053SOL    HW147056   6.535   8.056  10.392
15053SOL    HW247057   6.585   8.002  10.260
15054SOL     OW47058  13.792  14.247  10.969
15054SOL    HW147059  13.799  14.317  11.034
15054SOL    HW247060  13.841  14.279  10.894
15055SOL     OW47061   6.073  10.303  14.355
15055SOL    HW147062   6.016  10.357  14.411
15055SOL    HW247063   6.157  10.349  14.357
15056SOL     OW47064  12.649   5.217   9.065
15056SOL    HW147065  12.562   5.245   9.094
15056SOL    HW247066  12.659   5.257   8.979
15057SOL     OW47067  13.245  14.351  14.100
15057SOL    HW147068  13.337  14.328  14.114
15057SOL    HW247069  13.227  14.420  14.165
15058SOL     OW47070   8.016   8.764   6.885
15058SOL    HW147071   8.034   8.670   6.882
15058SOL    HW247072   8.043   8.796   6.799
15059SOL     OW47073  12.560   7.060   1.812
15059SOL    HW147074  12.589   6.980   1.855
15059SOL    HW247075  12.493   7.032   1.750
15060SOL     OW47076   9.567  13.981  13.740
15060SOL    HW147077   9.632  14.001  13.808
15060SOL    HW247078   9.620  13.967  13.661
15061SOL     OW47079   6.130   7.816   3.310
15061SOL    HW147080   6.204   7.825   3.250
15061SOL    HW247081   6.161   7.756   3.378
15062SOL     OW47082   7.173   2.132   4.035
15062SOL    HW147083   7.184   2.043   4.069
15062SOL    HW247084   7.204   2.127   3.944
15063SOL     OW47085   2.307  11.404  12.107
15063SOL    HW147086   2.276  11.459  12.035
15063SOL    HW247087   2.238  11.338  12.119
15064SOL     OW47088   8.915   1.434   4.165
15064SOL    HW147089   8.955   1.457   4.080
15064SOL    HW247090   8.826   1.408   4.143
15065SOL     OW47091   8.987  14.201   3.918
15065SOL    HW147092   8.891  14.192   3.915
15065SOL    HW247093   9.003  14.254   3.996
15066SOL     OW47094   9.878   9.665  13.432
15066SOL    HW147095   9.842   9.615  13.359
15066SOL    HW247096   9.873   9.606  13.507
15067SOL     OW47097   4.748   9.898   2.692
15067SOL    HW147098   4.807   9.858   2.629
15067SOL    HW247099   4.662   9.894   2.651
15068SOL     OW47100  11.017  12.516  13.262
15068SOL    HW147101  10.939  12.541  13.311
15068SOL    HW247102  11.040  12.429  13.295
15069SOL     OW47103  10.278   2.279   5.078
15069SOL    HW147104  10.260   2.373   5.085
15069SOL    HW247105  10.210   2.246   5.020
15070SOL     OW47106  10.290   1.374   8.349
15070SOL    HW147107  10.306   1.369   8.443
15070SOL    HW247108  10.224   1.443   8.339
15071SOL     OW47109   4.278   4.095   5.177
15071SOL    HW147110   4.224   4.171   5.198
15071SOL    HW247111   4.354   4.103   5.235
15072SOL     OW47112   7.199   9.603  13.375
15072SOL    HW147113   7.264   9.552  13.329
15072SOL    HW247114   7.221   9.694  13.356
15073SOL     OW47115   7.811   6.457   0.140
15073SOL    HW147116   7.895   6.411   0.130
15073SOL    HW247117   7.745   6.390   0.124
15074SOL     OW47118  11.704   1.696  13.925
15074SOL    HW147119  11.612   1.719  13.908
15074SOL    HW247120  11.700   1.633  13.997
15075SOL     OW47121   9.531  12.359   4.951
15075SOL    HW147122   9.520  12.361   4.856
15075SOL    HW247123   9.499  12.272   4.977
15076SOL     OW47124   1.126   1.876  14.028
15076SOL    HW147125   1.048   1.894  13.975
15076SOL    HW247126   1.134   1.780  14.027
15077SOL     OW47127  10.066   1.659   9.963
15077SOL    HW147128  10.058   1.754   9.957
15077SOL    HW247129   9.976   1.627   9.965
15078SOL     OW47130   5.361   4.773   3.914
15078SOL    HW147131   5.368   4.767   4.009
15078SOL    HW247132   5.292   4.710   3.892
15079SOL     OW47133  10.465   0.548   9.905
15079SOL    HW147134  10.430   0.590   9.827
15079SOL    HW247135  10.388   0.528   9.959
15080SOL     OW47136  10.453   3.567   2.398
15080SOL    HW147137  10.406   3.639   2.441
15080SOL    HW247138  10.545   3.583   2.421
15081SOL     OW47139  10.894  11.511   2.795
15081SOL    HW147140  10.982  11.542   2.815
15081SOL    HW247141  10.836  11.569   2.845
15082SOL     OW47142   4.669  12.425   6.682
15082SOL    HW147143   4.726  12.357   6.647
15082SOL    HW247144   4.635  12.470   6.605
15083SOL     OW47145   9.790   2.905   3.222
15083SOL    HW147146   9.715   2.928   3.167
15083SOL    HW247147   9.806   2.984   3.273
15084SOL     OW47148   2.963   6.512   1.847
15084SOL    HW147149   2.885   6.545   1.803
15084SOL    HW247150   3.025   6.494   1.776
15085SOL     OW47151  13.484  10.155  12.606
15085SOL    HW147152  13.510  10.245  12.584
15085SOL    HW247153  13.546  10.100  12.560
15086SOL     OW47154   7.954  13.240   5.812
15086SOL    HW147155   7.958  13.176   5.883
15086SOL    HW247156   7.942  13.324   5.856
15087SOL     OW47157  14.455  10.684   3.228
15087SOL    HW147158  14.489  10.594   3.231
15087SOL    HW247159  14.481  10.722   3.312
15088SOL     OW47160   0.041   1.606   4.708
15088SOL    HW147161  14.833   1.579   4.757
15088SOL    HW247162   0.021   1.585   4.617
15089SOL     OW47163   9.378   1.522   5.620
15089SOL    HW147164   9.312   1.573   5.667
15089SOL    HW247165   9.329   1.474   5.554
15090SOL     OW47166  13.216   5.299   1.255
15090SOL    HW147167  13.155   5.236   1.295
15090SOL    HW247168  13.162   5.349   1.194
15091SOL     OW47169  12.415   6.847   1.056
15091SOL    HW147170  12.415   6.913   1.125
15091SOL    HW247171  12.472   6.884   0.988
15092SOL     OW47172   4.846   8.536   2.197
15092SOL    HW147173   4.773   8.574   2.146
15092SOL    HW247174   4.905   8.500   2.130
15093SOL     OW47175   2.714   9.374   7.198
15093SOL    HW147176   2.739   9.413   7.281
15093SOL    HW247177   2.727   9.280   7.211
15094SOL     OW47178   1.755   8.734   9.729
15094SOL    HW147179   1.836   8.693   9.758
15094SOL    HW247180   1.690   8.663   9.734
15095SOL     OW47181   8.773  10.722  11.329
15095SOL    HW147182   8.757  10.746  11.420
15095SOL    HW247183   8.811  10.801  11.290
15096SOL     OW47184  14.036   3.143   7.792
15096SOL    HW147185  14.046   3.170   7.883
15096SOL    HW247186  14.086   3.208   7.742
15097SOL     OW47187  11.950  11.761  11.811
15097SOL    HW147188  11.955  11.835  11.873
15097SOL    HW247189  11.925  11.687  11.866
15098SOL     OW47190   5.525  13.322   8.729
15098SOL    HW147191   5.577  13.322   8.648
15098SOL    HW247192   5.478  13.406   8.727
15099SOL     OW47193   6.986  14.163   8.013
15099SOL    HW147194   6.993  14.255   8.039
15099SOL    HW247195   7.038  14.115   8.078
15100SOL     OW47196   1.447  11.578   0.332
15100SOL    HW147197   1.466  11.512   0.266
15100SOL    HW247198   1.463  11.662   0.288
15101SOL     OW47199   2.572   5.266  10.702
15101SOL    HW147200   2.630   5.343  10.706
15101SOL    HW247201   2.582   5.235  10.612
15102SOL     OW47202   0.380   2.671   9.553
15102SOL    HW147203   0.461   2.663   9.603
15102SOL    HW247204   0.407   2.663   9.462
15103SOL     OW47205  11.674   7.614   0.815
15103SOL    HW147206  11.726   7.680   0.769
15103SOL    HW247207  11.620   7.574   0.747
15104SOL     OW47208   5.630  11.535   1.648
15104SOL    HW147209   5.672  11.613   1.685
15104SOL    HW247210   5.694  11.465   1.659
15105SOL     OW47211  14.105   8.988   5.905
15105SOL    HW147212  14.164   8.989   5.980
15105SOL    HW247213  14.018   9.003   5.942
15106SOL     OW47214   8.958   4.370  14.743
15106SOL    HW147215   8.886   4.325  14.788
15106SOL    HW247216   8.936   4.463  14.750
15107SOL     OW47217   9.316   8.880   8.669
15107SOL    HW147218   9.391   8.861   8.614
15107SOL    HW247219   9.310   8.805   8.728
15108SOL     OW47220  13.925   5.837  14.235
15108SOL    HW147221  13.900   5.859  14.145
15108SOL    HW247222  13.913   5.918  14.284
15109SOL     OW47223   5.372   4.850  12.429
15109SOL    HW147224   5.400   4.909  12.498
15109SOL    HW247225   5.289   4.813  12.461
15110SOL     OW47226   2.565  10.449  12.299
15110SOL    HW147227   2.546  10.387  12.369
15110SOL    HW247228   2.583  10.532  12.344
15111SOL     OW47229   2.134   7.437  10.408
15111SOL    HW147230   2.107   7.444  10.499
15111SOL    HW247231   2.218   7.390  10.411
15112SOL     OW47232   8.395   6.736  11.012
15112SOL    HW147233   8.345   6.658  10.985
15112SOL    HW247234   8.483   6.703  11.029
15113SOL     OW47235   9.625   3.848   0.687
15113SOL    HW147236   9.679   3.925   0.705
15113SOL    HW247237   9.536   3.875   0.709
15114SOL     OW47238   7.168   8.106  13.520
15114SOL    HW147239   7.154   8.022  13.562
15114SOL    HW247240   7.228   8.153  13.577
15115SOL     OW47241   3.483  12.521  12.475
15115SOL    HW147242   3.512  12.469  12.400
15115SOL    HW247243   3.552  12.510  12.540
15116SOL     OW47244   0.570   3.737   0.816
15116SOL    HW147245   0.591   3.649   0.846
15116SOL    HW247246   0.495   3.764   0.869
15117SOL     OW47247  13.704  10.326  12.171
15117SOL    HW147248  13.623  10.366  12.204
15117SOL    HW247249  13.771  10.351  12.235
15118SOL     OW47250   5.868   2.891  14.760
15118SOL    HW147251   5.889   2.905  14.668
15118SOL    HW247252   5.953   2.879  14.802
15119SOL     OW47253   2.908  11.338   2.048
15119SOL    HW147254   2.890  11.431   2.061
15119SOL    HW247255   2.930  11.331   1.955
15120SOL     OW47256   3.336  11.318  11.190
15120SOL    HW147257   3.410  11.312  11.250
15120SOL    HW247258   3.323  11.412  11.177
15121SOL     OW47259   7.742   1.934  12.107
15121SOL    HW147260   7.683   1.914  12.180
15121SOL    HW247261   7.825   1.959  12.149
15122SOL     OW47262   5.485  11.973   0.484
15122SOL    HW147263   5.562  11.995   0.432
15122SOL    HW247264   5.439  11.907   0.432
15123SOL     OW47265   7.673   5.556   4.007
15123SOL    HW147266   7.632   5.553   4.094
15123SOL    HW247267   7.653   5.644   3.974
15124SOL     OW47268   5.065  11.906   9.297
15124SOL    HW147269   5.130  11.868   9.239
15124SOL    HW247270   5.041  11.989   9.255
15125SOL     OW47271   2.801   9.175   4.851
15125SOL    HW147272   2.809   9.147   4.943
15125SOL    HW247273   2.731   9.120   4.816
15126SOL     OW47274   9.982   9.859  14.265
15126SOL    HW147275   9.928   9.830  14.191
15126SOL    HW247276  10.002   9.951  14.245
15127SOL     OW47277   3.640   2.176   2.721
15127SOL    HW147278   3.556   2.214   2.697
15127SOL    HW247279   3.626   2.081   2.715
15128SOL     OW47280   1.836   1.787  11.454
15128SOL    HW147281   1.830   1.839  11.374
15128SOL    HW247282   1.748   1.751  11.466
15129SOL     OW47283   6.505   5.739   1.116
15129SOL    HW147284   6.488   5.798   1.189
15129SOL    HW247285   6.542   5.795   1.048
15130SOL     OW47286   0.002   8.228   2.757
15130SOL    HW147287  14.860   8.319   2.730
15130SOL    HW247288  14.785   8.189   2.744
15131SOL     OW47289   8.264   0.813  10.979
15131SOL    HW147290   8.203   0.887  10.978
15131SOL    HW247291   8.270   0.788  11.072
15132SOL     OW47292  13.070   7.831  11.110
15132SOL    HW147293  13.071   7.890  11.186
15132SOL    HW247294  13.062   7.889  11.035
15133SOL     OW47295  14.795   0.304  11.202
15133SOL    HW147296  14.819   0.344  11.286
15133SOL    HW247297  14.806   0.210  11.216
15134SOL     OW47298   5.379  14.405   4.864
15134SOL    HW147299   5.371  14.323   4.913
15134SOL    HW247300   5.411  14.468   4.929
15135SOL     OW47301   3.104   7.067  10.004
15135SOL    HW147302   3.168   7.125  10.044
15135SOL    HW247303   3.068   7.117   9.931
15136SOL     OW47304   4.932   4.384  11.975
15136SOL    HW147305   4.949   4.385  11.881
15136SOL    HW247306   5.014   4.351  12.013
15137SOL     OW47307  10.729   5.499   8.642
15137SOL    HW147308  10.714   5.405   8.649
15137SOL    HW247309  10.651   5.538   8.682
15138SOL     OW47310   5.543   0.940   5.560
15138SOL    HW147311   5.493   1.016   5.531
15138SOL    HW247312   5.482   0.866   5.553
15139SOL     OW47313  12.031  12.654  13.803
15139SOL    HW147314  11.990  12.710  13.868
15139SOL    HW247315  12.120  12.689  13.794
15140SOL     OW47316   2.002   5.320   8.326
15140SOL    HW147317   2.035   5.401   8.364
15140SOL    HW247318   1.992   5.261   8.401
15141SOL     OW47319   7.250  11.159   0.221
15141SOL    HW147320   7.295  11.215   0.158
15141SOL    HW247321   7.189  11.107   0.168
15142SOL     OW47322   5.952   0.916   2.621
15142SOL    HW147323   6.021   0.958   2.671
15142SOL    HW247324   5.987   0.829   2.600
15143SOL     OW47325  12.971   9.990   4.448
15143SOL    HW147326  12.913  10.028   4.514
15143SOL    HW247327  12.920   9.994   4.367
15144SOL     OW47328   0.531  14.559  12.684
15144SOL    HW147329   0.465  14.516  12.630
15144SOL    HW247330   0.572  14.488  12.733
15145SOL     OW47331   7.455  13.462   6.820
15145SOL    HW147332   7.548  13.482   6.823
15145SOL    HW247333   7.440  13.402   6.894
15146SOL     OW47334   3.173   6.846  10.128
15146SOL    HW147335   3.163   6.920  10.067
15146SOL    HW247336   3.224   6.882  10.201
15147SOL     OW47337   9.724   7.588   7.242
15147SOL    HW147338   9.718   7.605   7.148
15147SOL    HW247339   9.755   7.671   7.279
15148SOL     OW47340  13.907  14.313   7.801
15148SOL    HW147341  13.919  14.218   7.811
15148SOL    HW247342  13.858  14.340   7.878
15149SOL     OW47343   7.293   1.875  14.848
15149SOL    HW147344   7.322   1.891  14.758
15149SOL    HW247345   7.198   1.879  14.844
15150SOL     OW47346   4.104   0.701   7.032
15150SOL    HW147347   4.091   0.715   7.126
15150SOL    HW247348   4.053   0.769   6.990
15151SOL     OW47349   4.682  14.050   3.954
15151SOL    HW147350   4.677  13.972   4.009
15151SOL    HW247351   4.590  14.075   3.939
15152SOL     OW47352  11.372  13.200   2.038
15152SOL    HW147353  11.330  13.121   2.071
15152SOL    HW247354  11.466  13.185   2.051
15153SOL     OW47355  12.846  11.867   2.647
15153SOL    HW147356  12.867  11.792   2.590
15153SOL    HW247357  12.761  11.897   2.616
15154SOL     OW47358   0.576   3.057   1.547
15154SOL    HW147359   0.604   2.966   1.563
15154SOL    HW247360   0.531   3.083   1.627
15155SOL     OW47361   6.596   9.424   0.194
15155SOL    HW147362   6.681   9.458   0.223
15155SOL    HW247363   6.614   9.332   0.172
15156SOL     OW47364   9.021   2.389  11.264
15156SOL    HW147365   9.038   2.468  11.213
15156SOL    HW247366   9.008   2.320  11.198
15157SOL     OW47367   9.150  12.913   7.406
15157SOL    HW147368   9.173  12.940   7.318
15157SOL    HW247369   9.229  12.931   7.458
15158SOL     OW47370  11.378   7.535   2.259
15158SOL    HW147371  11.289   7.535   2.223
15158SOL    HW247372  11.365   7.521   2.353
15159SOL     OW47373  13.674   2.313   5.274
15159SOL    HW147374  13.689   2.385   5.336
15159SOL    HW247375  13.606   2.346   5.215
15160SOL     OW47376  11.000  10.270   2.203
15160SOL    HW147377  11.069  10.308   2.258
15160SOL    HW247378  11.047  10.209   2.146
15161SOL     OW47379   2.475  14.105   7.102
15161SOL    HW147380   2.553  14.128   7.052
15161SOL    HW247381   2.429  14.188   7.115
15162SOL     OW47382   5.724  11.821   2.734
15162SOL    HW147383   5.649  11.862   2.778
15162SOL    HW247384   5.787  11.892   2.724
15163SOL     OW47385   0.656  13.286   2.944
15163SOL    HW147386   0.635  13.379   2.937
15163SOL    HW247387   0.709  13.267   2.867
15164SOL     OW47388   6.022  11.946   3.215
15164SOL    HW147389   5.986  11.997   3.288
15164SOL    HW247390   6.084  11.886   3.256
15165SOL     OW47391   6.094   5.116   9.717
15165SOL    HW147392   6.006   5.098   9.750
15165SOL    HW247393   6.149   5.047   9.755
15166SOL     OW47394   1.147   6.619   1.186
15166SOL    HW147395   1.157   6.669   1.105
15166SOL    HW247396   1.062   6.575   1.176
15167SOL     OW47397   8.708   2.809   1.150
15167SOL    HW147398   8.702   2.740   1.217
15167SOL    HW247399   8.792   2.852   1.167
15168SOL     OW47400   1.108   8.744   5.049
15168SOL    HW147401   1.035   8.714   5.104
15168SOL    HW247402   1.074   8.821   5.004
15169SOL     OW47403   3.012   5.776  12.049
15169SOL    HW147404   3.005   5.783  11.953
15169SOL    HW247405   2.947   5.838  12.082
15170SOL     OW47406   5.636  13.390   4.951
15170SOL    HW147407   5.602  13.335   4.881
15170SOL    HW247408   5.731  13.387   4.941
15171SOL     OW47409   3.775  11.554   1.723
15171SOL    HW147410   3.825  11.482   1.760
15171SOL    HW247411   3.841  11.618   1.697
15172SOL     OW47412   4.770  13.838   6.084
15172SOL    HW147413   4.841  13.773   6.083
15172SOL    HW247414   4.694  13.790   6.052
15173SOL     OW47415  13.935   7.974   5.152
15173SOL    HW147416  13.971   7.923   5.225
15173SOL    HW247417  13.954   8.065   5.175
15174SOL     OW47418   1.466   1.524   9.011
15174SOL    HW147419   1.480   1.601   9.066
15174SOL    HW247420   1.552   1.508   8.971
15175SOL     OW47421  12.290   1.278   3.136
15175SOL    HW147422  12.374   1.246   3.103
15175SOL    HW247423  12.283   1.240   3.224
15176SOL     OW47424   3.100   5.961   2.777
15176SOL    HW147425   3.187   5.921   2.775
15176SOL    HW247426   3.045   5.896   2.822
15177SOL     OW47427   7.997   3.738  13.685
15177SOL    HW147428   7.994   3.644  13.669
15177SOL    HW247429   8.052   3.747  13.763
15178SOL     OW47430   4.377   6.769  10.089
15178SOL    HW147431   4.435   6.709  10.135
15178SOL    HW247432   4.301   6.778  10.146
15179SOL     OW47433   1.388   1.644  11.139
15179SOL    HW147434   1.307   1.607  11.174
15179SOL    HW247435   1.362   1.689  11.059
15180SOL     OW47436  13.806   3.906  10.728
15180SOL    HW147437  13.758   3.856  10.794
15180SOL    HW247438  13.739   3.954  10.680
15181SOL     OW47439   3.332   9.385  14.631
15181SOL    HW147440   3.272   9.442  14.681
15181SOL    HW247441   3.275   9.316  14.595
15182SOL     OW47442   9.566  11.440   1.099
15182SOL    HW147443   9.599  11.512   1.044
15182SOL    HW247444   9.640  11.417   1.156
15183SOL     OW47445   3.972   2.428   9.441
15183SOL    HW147446   4.014   2.468   9.365
15183SOL    HW247447   3.934   2.501   9.489
15184SOL     OW47448   6.152   2.953   5.031
15184SOL    HW147449   6.215   2.921   4.966
15184SOL    HW247450   6.136   3.044   5.005
15185SOL     OW47451  12.648   5.058   0.102
15185SOL    HW147452  12.712   5.129   0.103
15185SOL    HW247453  12.695   4.983   0.139
15186SOL     OW47454  10.047  11.743   0.449
15186SOL    HW147455  10.043  11.823   0.397
15186SOL    HW247456   9.957  11.709   0.449
15187SOL     OW47457  11.189   8.297   4.973
15187SOL    HW147458  11.251   8.300   5.046
15187SOL    HW247459  11.123   8.234   5.000
15188SOL     OW47460   6.578  13.201   5.947
15188SOL    HW147461   6.611  13.185   5.859
15188SOL    HW247462   6.613  13.286   5.971
15189SOL     OW47463  11.192  12.354   5.770
15189SOL    HW147464  11.146  12.273   5.747
15189SOL    HW247465  11.227  12.338   5.858
15190SOL     OW47466  14.194   2.450   6.959
15190SOL    HW147467  14.243   2.532   6.959
15190SOL    HW247468  14.160   2.441   6.870
15191SOL     OW47469  12.835  13.903   9.851
15191SOL    HW147470  12.761  13.852   9.881
15191SOL    HW247471  12.824  13.909   9.756
15192SOL     OW47472   6.083   3.851   3.798
15192SOL    HW147473   6.121   3.845   3.885
15192SOL    HW247474   6.009   3.789   3.799
15193SOL     OW47475   2.832   0.766   8.936
15193SOL    HW147476   2.755   0.720   8.969
15193SOL    HW247477   2.802   0.856   8.922
15194SOL     OW47478  11.073   9.258   6.409
15194SOL    HW147479  11.114   9.334   6.367
15194SOL    HW247480  10.989   9.249   6.365
15195SOL     OW47481  11.788   7.082   0.475
15195SOL    HW147482  11.879   7.105   0.453
15195SOL    HW247483  11.782   7.101   0.569
15196SOL     OW47484   8.181   3.376  11.528
15196SOL    HW147485   8.115   3.436  11.493
15196SOL    HW247486   8.257   3.431  11.545
15197SOL     OW47487  14.848   0.979   2.619
15197SOL    HW147488  14.759   1.008   2.636
15197SOL    HW247489   0.031   1.059   2.623
15198SOL     OW47490   1.546   0.558   8.684
15198SOL    HW147491   1.536   0.516   8.769
15198SOL    HW247492   1.457   0.579   8.656
15199SOL     OW47493   0.536   3.684  13.105
15199SOL    HW147494   0.479   3.759  13.085
15199SOL    HW247495   0.605   3.721  13.159
15200SOL     OW47496   8.176   0.573   1.724
15200SOL    HW147497   8.197   0.481   1.710
15200SOL    HW247498   8.105   0.572   1.788
15201SOL     OW47499  13.065   9.951  11.915
15201SOL    HW147500  13.053   9.894  11.839
15201SOL    HW247501  12.993  10.014  11.910
15202SOL     OW47502  13.132   5.826   4.092
15202SOL    HW147503  13.103   5.914   4.115
15202SOL    HW247504  13.194   5.803   4.161
15203SOL     OW47505   4.168   8.691   3.099
15203SOL    HW147506   4.095   8.685   3.161
15203SOL    HW247507   4.190   8.784   3.097
15204SOL     OW47508   1.922   1.408   8.760
15204SOL    HW147509   1.993   1.450   8.711
15204SOL    HW247510   1.863   1.374   8.694
15205SOL     OW47511   4.324  11.876  14.499
15205SOL    HW147512   4.259  11.941  14.471
15205SOL    HW247513   4.329  11.887  14.594
15206SOL     OW47514  11.411   6.161  14.196
15206SOL    HW147515  11.329   6.207  14.214
15206SOL    HW247516  11.397   6.074  14.234
15207SOL     OW47517   2.829   5.654  10.174
15207SOL    HW147518   2.881   5.734  10.170
15207SOL    HW247519   2.866   5.599  10.105
15208SOL     OW47520   8.611   4.090   5.885
15208SOL    HW147521   8.636   4.071   5.794
15208SOL    HW247522   8.517   4.109   5.880
15209SOL     OW47523   2.578  14.756   9.052
15209SOL    HW147524   2.594  14.665   9.026
15209SOL    HW247525   2.559  14.751   9.146
15210SOL     OW47526  13.700   0.972  14.314
15210SOL    HW147527  13.678   0.885  14.348
15210SOL    HW247528  13.725   1.023  14.391
15211SOL     OW47529   3.251   0.404   5.179
15211SOL    HW147530   3.287   0.486   5.144
15211SOL    HW247531   3.286   0.337   5.120
15212SOL     OW47532   5.457  14.804  11.878
15212SOL    HW147533   5.492  14.783  11.964
15212SOL    HW247534   5.370  14.841  11.895
15213SOL     OW47535  13.256   3.727   0.757
15213SOL    HW147536  13.277   3.693   0.670
15213SOL    HW247537  13.340   3.738   0.800
15214SOL     OW47538  11.699   8.928  11.167
15214SOL    HW147539  11.611   8.933  11.204
15214SOL    HW247540  11.705   9.005  11.110
15215SOL     OW47541   8.803   4.846  13.340
15215SOL    HW147542   8.894   4.874  13.338
15215SOL    HW247543   8.803   4.768  13.395
15216SOL     OW47544  10.371   1.717   7.359
15216SOL    HW147545  10.460   1.744   7.383
15216SOL    HW247546  10.379   1.625   7.336
15217SOL     OW47547  10.079   8.662   2.934
15217SOL    HW147548  10.128   8.726   2.986
15217SOL    HW247549  10.088   8.693   2.844
15218SOL     OW47550  12.033  12.316   7.274
15218SOL    HW147551  12.106  12.373   7.249
15218SOL    HW247552  12.074  12.230   7.289
15219SOL     OW47553  11.420   8.915   6.187
15219SOL    HW147554  11.417   8.853   6.260
15219SOL    HW247555  11.372   8.991   6.219
15220SOL     OW47556  13.891   1.225  11.526
15220SOL    HW147557  13.796   1.232  11.530
15220SOL    HW247558  13.914   1.258  11.439
15221SOL     OW47559   5.160  13.866   7.443
15221SOL    HW147560   5.250  13.852   7.414
15221SOL    HW247561   5.163  13.850   7.537
15222SOL     OW47562   3.651  14.463   7.910
15222SOL    HW147563   3.600  14.543   7.921
15222SOL    HW247564   3.586  14.395   7.890
15223SOL     OW47565   8.841   7.689   7.653
15223SOL    HW147566   8.901   7.614   7.655
15223SOL    HW247567   8.769   7.660   7.596
15224SOL     OW47568   3.679   6.750  13.468
15224SOL    HW147569   3.640   6.665  13.449
15224SOL    HW247570   3.604   6.810  13.470
15225SOL     OW47571   0.221   4.566   0.398
15225SOL    HW147572   0.128   4.566   0.421
15225SOL    HW247573   0.253   4.652   0.427
15226SOL     OW47574   5.971   5.984   0.508
15226SOL    HW147575   6.066   5.988   0.514
15226SOL    HW247576   5.954   5.907   0.453
15227SOL     OW47577   1.979  14.007  14.138
15227SOL    HW147578   2.067  13.996  14.103
15227SOL    HW247579   1.986  14.082  14.198
15228SOL     OW47580   4.386   6.692   4.470
15228SOL    HW147581   4.392   6.617   4.530
15228SOL    HW247582   4.444   6.758   4.509
15229SOL     OW47583   1.662  14.627   1.942
15229SOL    HW147584   1.602  14.553   1.943
15229SOL    HW247585   1.638  14.679   2.019
15230SOL     OW47586  13.462   5.321   9.946
15230SOL    HW147587  13.481   5.278   9.863
15230SOL    HW247588  13.372   5.352   9.936
15231SOL     OW47589   1.504  14.615  12.380
15231SOL    HW147590   1.454  14.664  12.446
15231SOL    HW247591   1.458  14.532  12.372
15232SOL     OW47592  13.288   0.542  10.489
15232SOL    HW147593  13.240   0.620  10.516
15232SOL    HW247594  13.378   0.571  10.477
15233SOL     OW47595  11.577   5.389   9.870
15233SOL    HW147596  11.485   5.382   9.844
15233SOL    HW247597  11.617   5.307   9.838
15234SOL     OW47598   8.484  12.394   4.669
15234SOL    HW147599   8.540  12.390   4.747
15234SOL    HW247600   8.534  12.347   4.602
15235SOL     OW47601   4.006   7.433   0.058
15235SOL    HW147602   4.026   7.340   0.055
15235SOL    HW247603   3.933   7.444  14.866
15236SOL     OW47604   0.258  12.359  12.058
15236SOL    HW147605   0.188  12.318  12.007
15236SOL    HW247606   0.322  12.289  12.070
15237SOL     OW47607   5.772   6.530  11.532
15237SOL    HW147608   5.773   6.574  11.447
15237SOL    HW247609   5.686   6.551  11.569
15238SOL     OW47610   9.235  12.732   9.052
15238SOL    HW147611   9.214  12.824   9.035
15238SOL    HW247612   9.329  12.732   9.069
15239SOL     OW47613   7.011   5.552  11.811
15239SOL    HW147614   6.951   5.555  11.886
15239SOL    HW247615   7.023   5.458  11.794
15240SOL     OW47616   3.990   9.400  10.150
15240SOL    HW147617   3.902   9.409  10.185
15240SOL    HW247618   3.985   9.324  10.092
15241SOL     OW47619   6.846  13.217   6.763
15241SOL    HW147620   6.821  13.125   6.750
15241SOL    HW247621   6.821  13.260   6.682
15242SOL     OW47622   6.471  12.361   9.778
15242SOL    HW147623   6.509  12.419   9.845
15242SOL    HW247624   6.539  12.354   9.711
15243SOL     OW47625   3.421  14.593   2.286
15243SOL    HW147626   3.431  14.542   2.206
15243SOL    HW247627   3.472  14.672   2.271
15244SOL     OW47628   9.091   2.927  11.421
15244SOL    HW147629   9.020   2.929  11.357
15244SOL    HW247630   9.058   2.872  11.492
15245SOL     OW47631  11.491   3.377   9.138
15245SOL    HW147632  11.542   3.445   9.092
15245SOL    HW247633  11.429   3.346   9.073
15246SOL     OW47634  12.730   8.409  13.715
15246SOL    HW147635  12.790   8.399  13.789
15246SOL    HW247636  12.782   8.384  13.639
15247SOL     OW47637   6.362  12.628   7.740
15247SOL    HW147638   6.318  12.702   7.780
15247SOL    HW247639   6.317  12.617   7.656
15248SOL     OW47640   1.725   2.446   9.670
15248SOL    HW147641   1.797   2.487   9.623
15248SOL    HW247642   1.668   2.518   9.695
15249SOL     OW47643   7.242   1.893   3.062
15249SOL    HW147644   7.261   1.848   2.980
15249SOL    HW247645   7.247   1.986   3.041
15250SOL     OW47646  14.596  10.954   4.205
15250SOL    HW147647  14.646  10.932   4.283
15250SOL    HW247648  14.507  10.969   4.237
15251SOL     OW47649   1.083  14.304   6.588
15251SOL    HW147650   1.178  14.297   6.574
15251SOL    HW247651   1.051  14.353   6.512
15252SOL     OW47652  12.719   1.657   3.445
15252SOL    HW147653  12.775   1.624   3.376
15252SOL    HW247654  12.659   1.717   3.401
15253SOL     OW47655   2.425   8.413  13.810
15253SOL    HW147656   2.456   8.358  13.883
15253SOL    HW247657   2.355   8.362  13.769
15254SOL     OW47658   3.673   7.086  14.128
15254SOL    HW147659   3.599   7.060  14.183
15254SOL    HW247660   3.659   7.039  14.045
15255SOL     OW47661   1.012   8.355   0.111
15255SOL    HW147662   1.100   8.381   0.136
15255SOL    HW247663   0.954   8.402   0.171
15256SOL     OW47664   3.833   6.954   1.067
15256SOL    HW147665   3.785   6.872   1.053
15256SOL    HW247666   3.843   6.990   0.979
15257SOL     OW47667   9.848  12.417  13.332
15257SOL    HW147668   9.900  12.474  13.275
15257SOL    HW247669   9.886  12.429  13.419
15258SOL     OW47670  10.046   3.896   8.295
15258SOL    HW147671   9.956   3.919   8.318
15258SOL    HW247672  10.099   3.937   8.364
15259SOL     OW47673   9.852   6.519  11.428
15259SOL    HW147674   9.911   6.552  11.360
15259SOL    HW247675   9.876   6.428  11.440
15260SOL     OW47676   6.384  10.629  14.413
15260SOL    HW147677   6.476  10.601  14.409
15260SOL    HW247678   6.387  10.721  14.388
15261SOL     OW47679   1.273   3.959   9.692
15261SOL    HW147680   1.214   3.948   9.618
15261SOL    HW247681   1.214   3.968   9.768
15262SOL     OW47682  14.150   7.965   3.315
15262SOL    HW147683  14.109   7.881   3.335
15262SOL    HW247684  14.233   7.963   3.363
15263SOL     OW47685   2.958  13.952   9.069
15263SOL    HW147686   2.927  14.009   8.998
15263SOL    HW247687   3.042  13.988   9.094
15264SOL     OW47688   5.300  13.024   9.269
15264SOL    HW147689   5.361  13.053   9.337
15264SOL    HW247690   5.357  13.000   9.196
15265SOL     OW47691   6.579   9.143  11.231
15265SOL    HW147692   6.613   9.149  11.320
15265SOL    HW247693   6.581   9.233  11.199
15266SOL     OW47694  11.347  14.782   1.048
15266SOL    HW147695  11.406  14.844   1.092
15266SOL    HW247696  11.385  14.771   0.961
15267SOL     OW47697   5.235   2.659   3.844
15267SOL    HW147698   5.254   2.732   3.903
15267SOL    HW247699   5.254   2.581   3.897
15268SOL     OW47700   8.683   6.176  10.455
15268SOL    HW147701   8.618   6.199  10.388
15268SOL    HW247702   8.751   6.243  10.447
15269SOL     OW47703  13.398   8.129   0.875
15269SOL    HW147704  13.369   8.211   0.914
15269SOL    HW247705  13.470   8.153   0.817
15270SOL     OW47706   4.506  11.197  14.116
15270SOL    HW147707   4.429  11.141  14.116
15270SOL    HW247708   4.494  11.255  14.041
15271SOL     OW47709  10.976   1.344   9.095
15271SOL    HW147710  10.920   1.289   9.041
15271SOL    HW247711  10.977   1.300   9.180
15272SOL     OW47712  14.703   0.376  13.774
15272SOL    HW147713  14.694   0.287  13.742
15272SOL    HW247714  14.764   0.418  13.713
15273SOL     OW47715   1.741   1.231   6.800
15273SOL    HW147716   1.743   1.167   6.729
15273SOL    HW247717   1.650   1.258   6.805
15274SOL     OW47718  14.503   9.374   9.993
15274SOL    HW147719  14.532   9.343   9.908
15274SOL    HW247720  14.512   9.469   9.988
15275SOL     OW47721   3.304  11.366   2.966
15275SOL    HW147722   3.210  11.383   2.977
15275SOL    HW247723   3.340  11.451   2.940
15276SOL     OW47724   5.698   5.663   2.881
15276SOL    HW147725   5.674   5.660   2.974
15276SOL    HW247726   5.787   5.701   2.881
15277SOL     OW47727   6.988  14.155   3.032
15277SOL    HW147728   7.039  14.230   3.065
15277SOL    HW247729   6.994  14.163   2.937
15278SOL     OW47730   3.178  13.486   2.116
15278SOL    HW147731   3.140  13.568   2.149
15278SOL    HW247732   3.103  13.428   2.104
15279SOL     OW47733   8.946  12.753   8.820
15279SOL    HW147734   8.996  12.674   8.798
15279SOL    HW247735   8.889  12.726   8.892
15280SOL     OW47736   6.992   1.434   8.142
15280SOL    HW147737   6.917   1.487   8.170
15280SOL    HW247738   7.064   1.463   8.199
15281SOL     OW47739  11.565   9.993   1.670
15281SOL    HW147740  11.512   9.984   1.591
15281SOL    HW247741  11.548  10.081   1.702
15282SOL     OW47742  13.968  12.568  13.251
15282SOL    HW147743  13.941  12.518  13.174
15282SOL    HW247744  13.914  12.533  13.323
15283SOL     OW47745   2.625   5.264   5.993
15283SOL    HW147746   2.654   5.329   5.928
15283SOL    HW247747   2.541   5.233   5.959
15284SOL     OW47748   6.659  13.139  12.669
15284SOL    HW147749   6.611  13.174  12.594
15284SOL    HW247750   6.701  13.059  12.637
15285SOL     OW47751   9.707   1.586  11.627
15285SOL    HW147752   9.772   1.654  11.639
15285SOL    HW247753   9.675   1.598  11.538
15286SOL     OW47754   6.406   6.100   6.347
15286SOL    HW147755   6.366   6.025   6.391
15286SOL    HW247756   6.464   6.138   6.412
15287SOL     OW47757  11.970  11.542  14.139
15287SOL    HW147758  11.957  11.453  14.172
15287SOL    HW247759  11.938  11.538  14.048
15288SOL     OW47760  13.989  10.661   5.755
15288SOL    HW147761  13.983  10.702   5.668
15288SOL    HW247762  14.031  10.577   5.738
15289SOL     OW47763   1.948   9.442   0.923
15289SOL    HW147764   1.887   9.507   0.889
15289SOL    HW247765   1.925   9.361   0.877
15290SOL     OW47766   3.806   0.695   9.060
15290SOL    HW147767   3.862   0.631   9.015
15290SOL    HW247768   3.856   0.720   9.137
15291SOL     OW47769  11.798  11.282  11.441
15291SOL    HW147770  11.852  11.208  11.469
15291SOL    HW247771  11.711  11.261  11.473
15292SOL     OW47772   3.237  13.364   0.762
15292SOL    HW147773   3.300  13.381   0.832
15292SOL    HW247774   3.197  13.449   0.745
15293SOL     OW47775   0.591   4.758  10.399
15293SOL    HW147776   0.602   4.730  10.490
15293SOL    HW247777   0.579   4.853  10.404
15294SOL     OW47778   2.040   0.829  12.563
15294SOL    HW147779   1.996   0.887  12.624
15294SOL    HW247780   1.992   0.746  12.568
15295SOL     OW47781   6.243  10.049   5.057
15295SOL    HW147782   6.267  10.130   5.012
15295SOL    HW247783   6.273  10.061   5.147
15296SOL     OW47784  11.513  10.780   5.068
15296SOL    HW147785  11.573  10.733   5.127
15296SOL    HW247786  11.516  10.730   4.986
15297SOL     OW47787   2.610   7.403  13.287
15297SOL    HW147788   2.571   7.317  13.272
15297SOL    HW247789   2.609   7.446  13.202
15298SOL     OW47790   4.257  12.400   2.086
15298SOL    HW147791   4.212  12.467   2.034
15298SOL    HW247792   4.340  12.386   2.040
15299SOL     OW47793   2.662   2.211  13.919
15299SOL    HW147794   2.752   2.216  13.888
15299SOL    HW247795   2.627   2.131  13.879
15300SOL     OW47796   5.560  13.127  13.942
15300SOL    HW147797   5.503  13.053  13.923
15300SOL    HW247798   5.625  13.093  14.003
15301SOL     OW47799  11.573   1.041   4.774
15301SOL    HW147800  11.536   1.129   4.775
15301SOL    HW247801  11.580   1.016   4.866
15302SOL     OW47802  13.424  11.112  13.937
15302SOL    HW147803  13.385  11.101  13.850
15302SOL    HW247804  13.517  11.098  13.923
15303SOL     OW47805   9.455  10.928   8.709
15303SOL    HW147806   9.373  10.931   8.660
15303SOL    HW247807   9.520  10.969   8.651
15304SOL     OW47808   2.311   3.257   1.997
15304SOL    HW147809   2.323   3.200   1.921
15304SOL    HW247810   2.395   3.301   2.008
15305SOL     OW47811   3.534   2.734  13.027
15305SOL    HW147812   3.488   2.699  13.104
15305SOL    HW247813   3.611   2.777  13.063
15306SOL     OW47814   7.320   9.035   0.340
15306SOL    HW147815   7.397   9.017   0.393
15306SOL    HW247816   7.258   8.966   0.364
15307SOL     OW47817   2.373   4.093   3.182
15307SOL    HW147818   2.360   4.178   3.140
15307SOL    HW247819   2.334   4.030   3.122
15308SOL     OW47820   8.940   8.779   3.607
15308SOL    HW147821   8.994   8.756   3.531
15308SOL    HW247822   8.851   8.758   3.579
15309SOL     OW47823  12.733  13.427  12.920
15309SOL    HW147824  12.746  13.406  12.828
15309SOL    HW247825  12.728  13.522  12.923
15310SOL     OW47826   6.120   8.865   0.763
15310SOL    HW147827   6.138   8.939   0.821
15310SOL    HW247828   6.092   8.794   0.822
15311SOL     OW47829   5.022   4.846   5.177
15311SOL    HW147830   5.114   4.833   5.200
15311SOL    HW247831   4.995   4.923   5.227
15312SOL     OW47832   6.952   2.807   2.092
15312SOL    HW147833   7.045   2.820   2.074
15312SOL    HW247834   6.923   2.889   2.131
15313SOL     OW47835  14.315   8.339   5.884
15313SOL    HW147836  14.221   8.356   5.877
15313SOL    HW247837  14.351   8.359   5.798
15314SOL     OW47838   2.157   4.519   6.870
15314SOL    HW147839   2.187   4.587   6.809
15314SOL    HW247840   2.127   4.448   6.814
15315SOL     OW47841   7.997  10.694   7.970
15315SOL    HW147842   7.933  10.745   8.019
15315SOL    HW247843   7.945  10.642   7.909
15316SOL     OW47844  12.225   8.837   1.031
15316SOL    HW147845  12.204   8.790   1.111
15316SOL    HW247846  12.266   8.771   0.975
15317SOL     OW47847   4.144  14.255   3.502
15317SOL    HW147848   4.180  14.315   3.567
15317SOL    HW247849   4.201  14.178   3.505
15318SOL     OW47850  14.507   3.151   7.685
15318SOL    HW147851  14.505   3.073   7.739
15318SOL    HW247852  14.417   3.182   7.682
15319SOL     OW47853   5.749   7.299   2.935
15319SOL    HW147854   5.699   7.224   2.902
15319SOL    HW247855   5.703   7.376   2.900
15320SOL     OW47856   3.038   2.258   2.268
15320SOL    HW147857   2.961   2.284   2.218
15320SOL    HW247858   3.099   2.331   2.259
15321SOL     OW47859   0.869   1.057  13.116
15321SOL    HW147860   0.882   1.137  13.167
15321SOL    HW247861   0.775   1.054  13.098
15322SOL     OW47862  13.660   4.131   5.047
15322SOL    HW147863  13.605   4.176   5.113
15322SOL    HW247864  13.749   4.156   5.071
15323SOL     OW47865   1.199   2.500   7.383
15323SOL    HW147866   1.188   2.537   7.471
15323SOL    HW247867   1.266   2.555   7.342
15324SOL     OW47868  11.712  11.469   0.722
15324SOL    HW147869  11.720  11.380   0.685
15324SOL    HW247870  11.754  11.463   0.808
15325SOL     OW47871  13.791   3.804   6.661
15325SOL    HW147872  13.870   3.835   6.618
15325SOL    HW247873  13.820   3.733   6.718
15326SOL     OW47874   2.769  13.234  13.138
15326SOL    HW147875   2.826  13.167  13.176
15326SOL    HW247876   2.681  13.211  13.169
15327SOL     OW47877  11.207   0.361   7.996
15327SOL    HW147878  11.228   0.365   8.089
15327SOL    HW247879  11.232   0.447   7.962
15328SOL     OW47880  13.993  10.124   0.151
15328SOL    HW147881  14.041  10.178   0.214
15328SOL    HW247882  13.902  10.131   0.178
15329SOL     OW47883   7.554   8.801   2.129
15329SOL    HW147884   7.643   8.766   2.135
15329SOL    HW247885   7.546   8.830   2.039
15330SOL     OW47886   0.491   9.449   3.081
15330SOL    HW147887   0.578   9.447   3.041
15330SOL    HW247888   0.483   9.536   3.119
15331SOL     OW47889   5.193   6.505   6.552
15331SOL    HW147890   5.142   6.512   6.472
15331SOL    HW247891   5.237   6.589   6.561
15332SOL     OW47892   0.751   5.160   3.242
15332SOL    HW147893   0.724   5.170   3.333
15332SOL    HW247894   0.772   5.067   3.233
15333SOL     OW47895   5.641  14.347  14.688
15333SOL    HW147896   5.598  14.299  14.617
15333SOL    HW247897   5.574  14.356  14.755
15334SOL     OW47898  11.084   5.488   0.826
15334SOL    HW147899  11.117   5.401   0.846
15334SOL    HW247900  11.120   5.544   0.895
15335SOL     OW47901   5.097  12.868   5.286
15335SOL    HW147902   5.014  12.843   5.245
15335SOL    HW247903   5.151  12.790   5.279
15336SOL     OW47904  10.741   8.786   3.470
15336SOL    HW147905  10.735   8.876   3.439
15336SOL    HW247906  10.654   8.749   3.456
15337SOL     OW47907   7.899  10.098  12.864
15337SOL    HW147908   7.862  10.185  12.848
15337SOL    HW247909   7.990  10.115  12.887
15338SOL     OW47910  10.758  13.637   8.230
15338SOL    HW147911  10.828  13.597   8.281
15338SOL    HW247912  10.748  13.580   8.154
15339SOL     OW47913   8.394   3.419   0.843
15339SOL    HW147914   8.326   3.353   0.835
15339SOL    HW247915   8.475   3.374   0.821
15340SOL     OW47916   5.956   2.560  11.101
15340SOL    HW147917   6.000   2.606  11.030
15340SOL    HW247918   5.952   2.625  11.172
15341SOL     OW47919   5.057   7.712   6.099
15341SOL    HW147920   4.974   7.686   6.060
15341SOL    HW247921   5.042   7.802   6.129
15342SOL     OW47922   7.925   0.610  10.777
15342SOL    HW147923   7.904   0.703  10.783
15342SOL    HW247924   7.991   0.604  10.708
15343SOL     OW47925  11.821  10.929  11.396
15343SOL    HW147926  11.835  10.960  11.306
15343SOL    HW247927  11.875  10.986  11.450
15344SOL     OW47928   1.879   6.296  11.903
15344SOL    HW147929   1.942   6.359  11.937
15344SOL    HW247930   1.906   6.212  11.940
15345SOL     OW47931   8.882   7.588   9.562
15345SOL    HW147932   8.789   7.600   9.543
15345SOL    HW247933   8.926   7.656   9.511
15346SOL     OW47934   3.338  14.637   9.075
15346SOL    HW147935   3.332  14.681   8.990
15346SOL    HW247936   3.300  14.550   9.059
15347SOL     OW47937   6.405   4.916   1.518
15347SOL    HW147938   6.370   4.878   1.437
15347SOL    HW247939   6.479   4.969   1.490
15348SOL     OW47940   4.856   1.364  13.264
15348SOL    HW147941   4.907   1.358  13.345
15348SOL    HW247942   4.867   1.455  13.236
15349SOL     OW47943   8.743  12.213   5.713
15349SOL    HW147944   8.717  12.247   5.627
15349SOL    HW247945   8.816  12.268   5.739
15350SOL     OW47946   0.599  11.525   2.679
15350SOL    HW147947   0.548  11.501   2.756
15350SOL    HW247948   0.541  11.583   2.628
15351SOL     OW47949   7.706  11.466  11.905
15351SOL    HW147950   7.774  11.532  11.918
15351SOL    HW247951   7.716  11.407  11.979
15352SOL     OW47952   8.962   4.894  14.157
15352SOL    HW147953   9.037   4.876  14.213
15352SOL    HW247954   8.897   4.933  14.215
15353SOL     OW47955   6.929   0.907   2.806
15353SOL    HW147956   6.998   0.897   2.871
15353SOL    HW247957   6.850   0.928   2.856
15354SOL     OW47958   0.886   1.730   8.484
15354SOL    HW147959   0.792   1.716   8.474
15354SOL    HW247960   0.922   1.642   8.496
15355SOL     OW47961   2.969   9.361   6.595
15355SOL    HW147962   3.021   9.425   6.547
15355SOL    HW247963   2.893   9.409   6.626
15356SOL     OW47964  12.420   5.039  12.938
15356SOL    HW147965  12.354   5.108  12.938
15356SOL    HW247966  12.504   5.087  12.936
15357SOL     OW47967   2.894   7.651   2.552
15357SOL    HW147968   2.967   7.622   2.607
15357SOL    HW247969   2.826   7.675   2.615
15358SOL     OW47970   2.591   3.016   5.351
15358SOL    HW147971   2.667   3.028   5.407
15358SOL    HW247972   2.609   2.934   5.303
15359SOL     OW47973  14.624   4.091  13.270
15359SOL    HW147974  14.651   4.114  13.359
15359SOL    HW247975  14.683   4.021  13.244
15360SOL     OW47976  11.288  14.699  14.356
15360SOL    HW147977  11.220  14.743  14.305
15360SOL    HW247978  11.344  14.657  14.291
15361SOL     OW47979  14.348   1.947   3.738
15361SOL    HW147980  14.277   1.913   3.793
15361SOL    HW247981  14.316   1.935   3.649
15362SOL     OW47982  12.564  14.271  13.718
15362SOL    HW147983  12.536  14.184  13.690
15362SOL    HW247984  12.654  14.260  13.748
15363SOL     OW47985   7.205   8.431  12.594
15363SOL    HW147986   7.116   8.405  12.621
15363SOL    HW247987   7.210   8.404  12.502
15364SOL     OW47988   9.030   0.336   7.928
15364SOL    HW147989   9.040   0.431   7.937
15364SOL    HW247990   8.970   0.326   7.855
15365SOL     OW47991  13.852   4.432  14.719
15365SOL    HW147992  13.791   4.465  14.653
15365SOL    HW247993  13.871   4.508  14.774
15366SOL     OW47994  14.671   4.049  14.782
15366SOL    HW147995  14.677   3.955  14.800
15366SOL    HW247996  14.729   4.090  14.846
15367SOL     OW47997  10.684   2.057  13.549
15367SOL    HW147998  10.617   1.992  13.525
15367SOL    HW247999  10.661   2.134  13.496
15368SOL     OW48000   8.430  14.426  10.781
15368SOL    HW148001   8.432  14.336  10.813
15368SOL    HW248002   8.421  14.418  10.686
15369SOL     OW48003   9.534   6.792   0.662
15369SOL    HW148004   9.523   6.852   0.735
15369SOL    HW248005   9.582   6.843   0.596
15370SOL     OW48006   4.325   8.627   9.084
15370SOL    HW148007   4.231   8.639   9.098
15370SOL    HW248008   4.336   8.533   9.078
15371SOL     OW48009  13.840   2.592   9.796
15371SOL    HW148010  13.932   2.570   9.809
15371SOL    HW248011  13.831   2.605   9.702
15372SOL     OW48012   2.409   1.388   1.720
15372SOL    HW148013   2.492   1.411   1.762
15372SOL    HW248014   2.390   1.462   1.662
15373SOL     OW48015   5.884   0.014   9.995
15373SOL    HW148016   5.949   0.074   9.961
15373SOL    HW248017   5.817   0.009   9.927
15374SOL     OW48018   2.658  13.629   9.602
15374SOL    HW148019   2.651  13.534   9.591
15374SOL    HW248020   2.632  13.644   9.693
15375SOL     OW48021   7.212  13.273  11.348
15375SOL    HW148022   7.150  13.201  11.357
15375SOL    HW248023   7.179  13.341  11.407
15376SOL     OW48024   2.657   9.298   6.844
15376SOL    HW148025   2.677   9.321   6.935
15376SOL    HW248026   2.651   9.203   6.843
15377SOL     OW48027   4.304  12.911   3.764
15377SOL    HW148028   4.369  12.950   3.824
15377SOL    HW248029   4.354  12.848   3.713
15378SOL     OW48030  11.821   9.710  13.917
15378SOL    HW148031  11.881   9.636  13.927
15378SOL    HW248032  11.850   9.773  13.983
15379SOL     OW48033   7.430   1.157  10.436
15379SOL    HW148034   7.499   1.094  10.454
15379SOL    HW248035   7.385   1.169  10.520
15380SOL     OW48036  14.094   2.280   0.151
15380SOL    HW148037  14.033   2.253   0.220
15380SOL    HW248038  14.086   2.375   0.148
15381SOL     OW48039   0.943   9.176  12.115
15381SOL    HW148040   0.849   9.172  12.132
15381SOL    HW248041   0.983   9.127  12.187
15382SOL     OW48042   6.599   4.489  10.249
15382SOL    HW148043   6.683   4.534  10.258
15382SOL    HW248044   6.621   4.406  10.207
15383SOL     OW48045   2.845   4.781  11.098
15383SOL    HW148046   2.863   4.691  11.070
15383SOL    HW248047   2.856   4.834  11.019
15384SOL     OW48048   3.081  14.837   6.045
15384SOL    HW148049   3.123  14.817   6.128
15384SOL    HW248050   3.152  14.843   5.982
15385SOL     OW48051  10.659   5.722   7.741
15385SOL    HW148052  10.652   5.663   7.816
15385SOL    HW248053  10.663   5.810   7.778
15386SOL     OW48054   8.179   8.897   4.829
15386SOL    HW148055   8.261   8.889   4.877
15386SOL    HW248056   8.189   8.978   4.778
15387SOL     OW48057  13.003   5.106   4.376
15387SOL    HW148058  12.971   5.191   4.345
15387SOL    HW248059  13.061   5.076   4.305
15388SOL     OW48060   3.704   1.723  10.099
15388SOL    HW148061   3.629   1.684  10.144
15388SOL    HW248062   3.707   1.813  10.129
15389SOL     OW48063   1.834   7.123   9.796
15389SOL    HW148064   1.853   7.133   9.890
15389SOL    HW248065   1.815   7.030   9.785
15390SOL     OW48066   2.599   6.967   4.599
15390SOL    HW148067   2.644   7.036   4.550
15390SOL    HW248068   2.669   6.911   4.632
15391SOL     OW48069  11.991  10.999   6.243
15391SOL    HW148070  12.053  11.051   6.295
15391SOL    HW248071  11.957  10.934   6.305
15392SOL     OW48072  11.289  13.429   9.708
15392SOL    HW148073  11.245  13.421   9.624
15392SOL    HW248074  11.377  13.396   9.693
15393SOL     OW48075   4.311  13.483   1.617
15393SOL    HW148076   4.269  13.430   1.685
15393SOL    HW248077   4.404  13.463   1.625
15394SOL     OW48078   4.403  14.630   3.200
15394SOL    HW148079   4.425  14.570   3.129
15394SOL    HW248080   4.486  14.673   3.222
15395SOL     OW48081   7.358  11.175  13.315
15395SOL    HW148082   7.285  11.213  13.265
15395SOL    HW248083   7.402  11.118  13.252
15396SOL     OW48084   4.138   1.338  14.865
15396SOL    HW148085   4.218   1.326   0.046
15396SOL    HW248086   4.104   1.249  14.852
15397SOL     OW48087   6.375   1.175   7.113
15397SOL    HW148088   6.373   1.089   7.156
15397SOL    HW248089   6.355   1.237   7.183
15398SOL     OW48090   8.263   6.694  14.247
15398SOL    HW148091   8.204   6.637  14.196
15398SOL    HW248092   8.293   6.760  14.184
15399SOL     OW48093   7.932   4.724   9.567
15399SOL    HW148094   7.998   4.655   9.574
15399SOL    HW248095   7.949   4.780   9.643
15400SOL     OW48096   8.559   0.064  14.320
15400SOL    HW148097   8.609   0.077  14.238
15400SOL    HW248098   8.618   0.013  14.376
15401SOL     OW48099  13.964  10.909   4.138
15401SOL    HW148100  13.890  10.864   4.097
15401SOL    HW248101  14.038  10.849   4.127
15402SOL     OW48102  10.599   5.971   1.031
15402SOL    HW148103  10.668   6.036   1.045
15402SOL    HW248104  10.643   5.898   0.986
15403SOL     OW48105  11.370  10.080   4.530
15403SOL    HW148106  11.306  10.044   4.590
15403SOL    HW248107  11.344  10.047   4.444
15404SOL     OW48108   4.551   6.205   4.675
15404SOL    HW148109   4.488   6.217   4.747
15404SOL    HW248110   4.496   6.188   4.598
15405SOL     OW48111   7.202   0.117   3.558
15405SOL    HW148112   7.179   0.040   3.506
15405SOL    HW248113   7.225   0.184   3.493
15406SOL     OW48114   3.585  12.140   8.400
15406SOL    HW148115   3.603  12.124   8.308
15406SOL    HW248116   3.512  12.082   8.420
15407SOL     OW48117   6.442   4.681  14.797
15407SOL    HW148118   6.528   4.640  14.787
15407SOL    HW248119   6.436   4.704   0.020
15408SOL     OW48120   5.963   7.821   6.849
15408SOL    HW148121   5.918   7.806   6.766
15408SOL    HW248122   5.984   7.733   6.881
15409SOL     OW48123   3.849  12.318   3.604
15409SOL    HW148124   3.870  12.405   3.637
15409SOL    HW248125   3.767  12.294   3.648
15410SOL     OW48126  14.280  12.978  12.922
15410SOL    HW148127  14.372  13.001  12.906
15410SOL    HW248128  14.282  12.884  12.942
15411SOL     OW48129  13.567   3.043  12.705
15411SOL    HW148130  13.474   3.037  12.682
15411SOL    HW248131  13.578   3.134  12.734
15412SOL     OW48132   0.899   8.501  12.152
15412SOL    HW148133   0.859   8.440  12.090
15412SOL    HW248134   0.984   8.462  12.171
15413SOL     OW48135  12.114   2.633   9.003
15413SOL    HW148136  12.170   2.567   9.043
15413SOL    HW248137  12.055   2.660   9.074
15414SOL     OW48138   7.430  11.066  11.175
15414SOL    HW148139   7.404  11.056  11.267
15414SOL    HW248140   7.465  11.155  11.170
15415SOL     OW48141   4.707  11.975  11.799
15415SOL    HW148142   4.754  11.981  11.882
15415SOL    HW248143   4.680  12.065  11.781
15416SOL     OW48144  10.122   1.416   3.920
15416SOL    HW148145  10.048   1.388   3.974
15416SOL    HW248146  10.095   1.397   3.830
15417SOL     OW48147   0.152  13.505   6.103
15417SOL    HW148148   0.066  13.531   6.070
15417SOL    HW248149   0.138  13.488   6.196
15418SOL     OW48150   9.749   6.403  14.550
15418SOL    HW148151   9.741   6.431  14.641
15418SOL    HW248152   9.831   6.441  14.520
15419SOL     OW48153   6.014  10.415   5.204
15419SOL    HW148154   5.943  10.462   5.249
15419SOL    HW248155   5.971  10.373   5.129
15420SOL     OW48156   2.958  13.188   8.469
15420SOL    HW148157   3.005  13.271   8.464
15420SOL    HW248158   3.004  13.130   8.409
15421SOL     OW48159   5.162   7.374   2.340
15421SOL    HW148160   5.148   7.380   2.246
15421SOL    HW248161   5.256   7.389   2.352
15422SOL     OW48162   1.782  11.508   7.726
15422SOL    HW148163   1.809  11.523   7.635
15422SOL    HW248164   1.748  11.419   7.726
15423SOL     OW48165   3.745   5.826  11.152
15423SOL    HW148166   3.765   5.912  11.189
15423SOL    HW248167   3.658   5.836  11.113
15424SOL     OW48168   7.392   8.293   4.947
15424SOL    HW148169   7.348   8.312   4.864
15424SOL    HW248170   7.442   8.372   4.967
15425SOL     OW48171  13.598   8.077  12.846
15425SOL    HW148172  13.558   7.990  12.847
15425SOL    HW248173  13.524   8.138  12.834
15426SOL     OW48174  13.367   6.866   1.903
15426SOL    HW148175  13.285   6.835   1.942
15426SOL    HW248176  13.427   6.877   1.976
15427SOL     OW48177  12.448   0.976   5.226
15427SOL    HW148178  12.406   0.916   5.165
15427SOL    HW248179  12.527   0.931   5.254
15428SOL     OW48180  13.420  14.345   0.438
15428SOL    HW148181  13.342  14.367   0.489
15428SOL    HW248182  13.430  14.250   0.450
15429SOL     OW48183  14.206  14.437   0.826
15429SOL    HW148184  14.120  14.415   0.862
15429SOL    HW248185  14.266  14.375   0.869
15430SOL     OW48186   7.082   0.327   6.311
15430SOL    HW148187   7.141   0.334   6.235
15430SOL    HW248188   7.087   0.413   6.353
15431SOL     OW48189   6.957   7.768  10.858
15431SOL    HW148190   6.905   7.784  10.779
15431SOL    HW248191   7.026   7.708  10.829
15432SOL     OW48192  10.891  14.199  11.211
15432SOL    HW148193  10.958  14.147  11.166
15432SOL    HW248194  10.933  14.284  11.226
15433SOL     OW48195  11.878   4.578   0.946
15433SOL    HW148196  11.892   4.663   0.989
15433SOL    HW248197  11.836   4.601   0.863
15434SOL     OW48198   9.264   3.374  13.558
15434SOL    HW148199   9.350   3.416  13.553
15434SOL    HW248200   9.206   3.433  13.509
15435SOL     OW48201  13.888   8.619   6.655
15435SOL    HW148202  13.917   8.555   6.590
15435SOL    HW248203  13.807   8.583   6.691
15436SOL     OW48204   3.391  13.496   9.635
15436SOL    HW148205   3.376  13.410   9.595
15436SOL    HW248206   3.443  13.476   9.714
15437SOL     OW48207   8.469  13.722   4.672
15437SOL    HW148208   8.451  13.665   4.597
15437SOL    HW248209   8.494  13.806   4.634
15438SOL     OW48210   8.440   3.383   4.803
15438SOL    HW148211   8.512   3.438   4.834
15438SOL    HW248212   8.363   3.419   4.846
15439SOL     OW48213   6.953   4.581   7.453
15439SOL    HW148214   6.869   4.612   7.488
15439SOL    HW248215   7.005   4.559   7.531
15440SOL     OW48216  12.136  13.128   9.804
15440SOL    HW148217  12.072  13.156   9.869
15440SOL    HW248218  12.089  13.064   9.750
15441SOL     OW48219  14.234  10.711  11.931
15441SOL    HW148220  14.206  10.620  11.927
15441SOL    HW248221  14.187  10.754  11.859
15442SOL     OW48222   9.675   1.412   8.915
15442SOL    HW148223   9.657   1.483   8.852
15442SOL    HW248224   9.751   1.367   8.878
15443SOL     OW48225  13.851   9.997   8.334
15443SOL    HW148226  13.783  10.033   8.278
15443SOL    HW248227  13.931  10.044   8.310
15444SOL     OW48228   0.391   4.728   2.332
15444SOL    HW148229   0.400   4.726   2.428
15444SOL    HW248230   0.422   4.816   2.308
15445SOL     OW48231   2.259   0.782   6.514
15445SOL    HW148232   2.270   0.854   6.576
15445SOL    HW248233   2.222   0.711   6.567
15446SOL     OW48234  12.745   7.273   7.921
15446SOL    HW148235  12.660   7.253   7.961
15446SOL    HW248236  12.768   7.359   7.958
15447SOL     OW48237  14.217   2.262  10.322
15447SOL    HW148238  14.186   2.316  10.249
15447SOL    HW248239  14.141   2.211  10.348
15448SOL     OW48240   4.317   8.590   4.638
15448SOL    HW148241   4.327   8.517   4.578
15448SOL    HW248242   4.267   8.655   4.589
15449SOL     OW48243   4.450   9.959   3.485
15449SOL    HW148244   4.414   9.897   3.549
15449SOL    HW248245   4.382  10.025   3.476
15450SOL     OW48246   7.509   9.158   8.314
15450SOL    HW148247   7.513   9.090   8.382
15450SOL    HW248248   7.580   9.136   8.254
15451SOL     OW48249   0.445   6.005   4.211
15451SOL    HW148250   0.518   6.067   4.218
15451SOL    HW248251   0.367   6.057   4.229
15452SOL     OW48252  11.607  13.697   3.202
15452SOL    HW148253  11.570  13.675   3.287
15452SOL    HW248254  11.542  13.664   3.139
15453SOL     OW48255   4.777  10.022   3.048
15453SOL    HW148256   4.784  10.052   3.139
15453SOL    HW248257   4.771  10.102   2.996
15454SOL     OW48258  14.723  10.660  14.866
15454SOL    HW148259  14.740  10.650  14.772
15454SOL    HW248260  14.777  10.735   0.023
15455SOL     OW48261  14.693   6.469   1.442
15455SOL    HW148262  14.744   6.547   1.466
15455SOL    HW248263  14.741   6.430   1.370
15456SOL     OW48264   6.628  14.782  10.841
15456SOL    HW148265   6.707  14.802  10.891
15456SOL    HW248266   6.579  14.722  10.897
15457SOL     OW48267   6.626   7.006   4.929
15457SOL    HW148268   6.711   7.013   4.973
15457SOL    HW248269   6.587   6.927   4.966
15458SOL     OW48270   8.382  12.043  13.650
15458SOL    HW148271   8.310  12.096  13.616
15458SOL    HW248272   8.438  12.105  13.697
15459SOL     OW48273   5.757   5.770  13.876
15459SOL    HW148274   5.783   5.862  13.884
15459SOL    HW248275   5.835   5.721  13.902
15460SOL     OW48276  10.185   4.511   7.034
15460SOL    HW148277  10.182   4.482   6.942
15460SOL    HW248278  10.141   4.441   7.082
15461SOL     OW48279   3.568   2.526   8.443
15461SOL    HW148280   3.638   2.524   8.377
15461SOL    HW248281   3.551   2.619   8.456
15462SOL     OW48282  11.704   0.259  11.271
15462SOL    HW148283  11.786   0.281  11.227
15462SOL    HW248284  11.644   0.330  11.248
15463SOL     OW48285   6.837   9.300   1.228
15463SOL    HW148286   6.910   9.241   1.248
15463SOL    HW248287   6.835   9.304   1.133
15464SOL     OW48288   3.526   6.630   5.765
15464SOL    HW148289   3.539   6.568   5.837
15464SOL    HW248290   3.434   6.657   5.774
15465SOL     OW48291   6.461   9.159  10.558
15465SOL    HW148292   6.366   9.170  10.564
15465SOL    HW248293   6.496   9.227  10.616
15466SOL     OW48294   9.041  14.036   2.551
15466SOL    HW148295   9.025  14.126   2.520
15466SOL    HW248296   9.134  14.021   2.532
15467SOL     OW48297   0.158   0.702   4.230
15467SOL    HW148298   0.198   0.785   4.204
15467SOL    HW248299   0.195   0.637   4.170
15468SOL     OW48300   8.047   1.027   7.019
15468SOL    HW148301   7.997   0.946   7.011
15468SOL    HW248302   8.025   1.060   7.106
15469SOL     OW48303   5.019   8.670   3.432
15469SOL    HW148304   4.995   8.611   3.503
15469SOL    HW248305   5.108   8.699   3.452
15470SOL     OW48306   7.716   8.355  11.001
15470SOL    HW148307   7.776   8.283  10.981
15470SOL    HW248308   7.660   8.321  11.070
15471SOL     OW48309   6.984   6.114  11.491
15471SOL    HW148310   6.897   6.072  11.490
15471SOL    HW248311   6.966   6.207  11.477
15472SOL     OW48312  13.892   7.145  13.254
15472SOL    HW148313  13.951   7.140  13.330
15472SOL    HW248314  13.918   7.225  13.209
15473SOL     OW48315  13.271  13.176   9.971
15473SOL    HW148316  13.194  13.200  10.024
15473SOL    HW248317  13.238  13.111   9.909
15474SOL     OW48318   2.947  13.451   3.941
15474SOL    HW148319   2.991  13.369   3.963
15474SOL    HW248320   3.018  13.515   3.935
15475SOL     OW48321   5.542  13.509   7.215
15475SOL    HW148322   5.514  13.534   7.127
15475SOL    HW248323   5.462  13.474   7.256
15476SOL     OW48324   1.642   5.698   6.366
15476SOL    HW148325   1.683   5.617   6.395
15476SOL    HW248326   1.642   5.693   6.270
15477SOL     OW48327   2.321   1.414  14.205
15477SOL    HW148328   2.369   1.440  14.284
15477SOL    HW248329   2.348   1.478  14.139
15478SOL     OW48330   6.741  11.814   0.114
15478SOL    HW148331   6.811  11.871   0.081
15478SOL    HW248332   6.661  11.854   0.081
15479SOL     OW48333   9.318  13.497   6.662
15479SOL    HW148334   9.336  13.409   6.695
15479SOL    HW248335   9.317  13.487   6.566
15480SOL     OW48336  14.101   9.144  14.359
15480SOL    HW148337  14.058   9.171  14.439
15480SOL    HW248338  14.163   9.214  14.339
15481SOL     OW48339   7.008   0.075   6.464
15481SOL    HW148340   7.033   0.133   6.392
15481SOL    HW248341   7.068   0.097   6.535
15482SOL     OW48342   3.252  11.762   6.378
15482SOL    HW148343   3.302  11.729   6.452
15482SOL    HW248344   3.265  11.696   6.309
15483SOL     OW48345  13.315   8.292   9.161
15483SOL    HW148346  13.361   8.348   9.225
15483SOL    HW248347  13.330   8.203   9.192
15484SOL     OW48348   3.619  10.991   6.678
15484SOL    HW148349   3.630  11.082   6.704
15484SOL    HW248350   3.536  10.963   6.717
15485SOL     OW48351   8.966   8.988   4.415
15485SOL    HW148352   9.014   8.912   4.380
15485SOL    HW248353   8.879   8.981   4.375
15486SOL     OW48354  12.998  10.289   8.030
15486SOL    HW148355  12.948  10.250   8.103
15486SOL    HW248356  12.974  10.236   7.954
15487SOL     OW48357   6.753  11.975  11.264
15487SOL    HW148358   6.687  11.933  11.209
15487SOL    HW248359   6.835  11.963  11.217
15488SOL     OW48360  10.905   9.137  14.268
15488SOL    HW148361  10.827   9.185  14.295
15488SOL    HW248362  10.885   9.045  14.287
15489SOL     OW48363  10.231  14.691  12.477
15489SOL    HW148364  10.170  14.618  12.464
15489SOL    HW248365  10.263  14.679  12.566
15490SOL     OW48366  13.100  12.399   9.017
15490SOL    HW148367  13.181  12.415   8.968
15490SOL    HW248368  13.128  12.352   9.096
15491SOL     OW48369  10.446   7.202  11.436
15491SOL    HW148370  10.429   7.113  11.407
15491SOL    HW248371  10.435   7.199  11.531
15492SOL     OW48372   7.989   3.712   2.275
15492SOL    HW148373   7.969   3.621   2.297
15492SOL    HW248374   8.037   3.706   2.193
15493SOL     OW48375   7.170   7.917   5.453
15493SOL    HW148376   7.098   7.954   5.506
15493SOL    HW248377   7.134   7.836   5.417
15494SOL     OW48378   2.923  11.680   5.760
15494SOL    HW148379   2.847  11.622   5.771
15494SOL    HW248380   2.935  11.720   5.846
15495SOL     OW48381   8.720   6.391   0.426
15495SOL    HW148382   8.669   6.311   0.424
15495SOL    HW248383   8.803   6.369   0.384
15496SOL     OW48384   4.086  14.663  10.647
15496SOL    HW148385   4.022  14.734  10.648
15496SOL    HW248386   4.042  14.591  10.692
15497SOL     OW48387  12.109   8.325   3.090
15497SOL    HW148388  12.136   8.413   3.063
15497SOL    HW248389  12.025   8.312   3.047
15498SOL     OW48390   1.295   1.560  12.452
15498SOL    HW148391   1.316   1.584  12.542
15498SOL    HW248392   1.239   1.483  12.461
15499SOL     OW48393  10.350   7.623   3.091
15499SOL    HW148394  10.299   7.681   3.148
15499SOL    HW248395  10.425   7.596   3.145
15500SOL     OW48396   9.608   0.182   2.127
15500SOL    HW148397   9.686   0.190   2.071
15500SOL    HW248398   9.615   0.094   2.164
15501SOL     OW48399   7.925   8.667  11.739
15501SOL    HW148400   7.835   8.649  11.713
15501SOL    HW248401   7.960   8.582  11.767
15502SOL     OW48402  14.554   5.572  10.045
15502SOL    HW148403  14.631   5.613  10.005
15502SOL    HW248404  14.554   5.483  10.010
15503SOL     OW48405   2.179  14.077   3.443
15503SOL    HW148406   2.084  14.080   3.455
15503SOL    HW248407   2.214  14.136   3.510
15504SOL     OW48408   8.432   7.040   7.199
15504SOL    HW148409   8.412   6.948   7.219
15504SOL    HW248410   8.525   7.049   7.220
15505SOL     OW48411   7.017   2.791   5.815
15505SOL    HW148412   7.028   2.837   5.732
15505SOL    HW248413   6.955   2.720   5.796
15506SOL     OW48414  14.647   1.154   8.695
15506SOL    HW148415  14.624   1.102   8.617
15506SOL    HW248416  14.609   1.240   8.678
15507SOL     OW48417   4.295   4.879  11.860
15507SOL    HW148418   4.233   4.806  11.858
15507SOL    HW248419   4.244   4.954  11.890
15508SOL     OW48420   1.641  10.406  12.465
15508SOL    HW148421   1.582  10.389  12.392
15508SOL    HW248422   1.654  10.501  12.464
15509SOL     OW48423   5.569   9.349  14.243
15509SOL    HW148424   5.526   9.434  14.249
15509SOL    HW248425   5.634   9.349  14.314
15510SOL     OW48426   9.047   5.581  12.022
15510SOL    HW148427   8.953   5.588  12.035
15510SOL    HW248428   9.061   5.604  11.930
15511SOL     OW48429   0.336  10.791   4.482
15511SOL    HW148430   0.284  10.734   4.424
15511SOL    HW248431   0.270  10.842   4.529
15512SOL     OW48432   0.960  12.859  14.203
15512SOL    HW148433   0.876  12.834  14.242
15512SOL    HW248434   1.026  12.832  14.267
15513SOL     OW48435  11.537   5.760   5.745
15513SOL    HW148436  11.471   5.818   5.784
15513SOL    HW248437  11.487   5.705   5.684
15514SOL     OW48438   5.904   7.927   3.135
15514SOL    HW148439   5.992   7.960   3.154
15514SOL    HW248440   5.851   8.005   3.119
15515SOL     OW48441  14.808   0.959   7.581
15515SOL    HW148442  14.853   1.039   7.551
15515SOL    HW248443  14.717   0.970   7.551
15516SOL     OW48444   7.996   0.982   4.659
15516SOL    HW148445   7.901   0.973   4.650
15516SOL    HW248446   8.009   1.016   4.747
15517SOL     OW48447   6.856   6.827   9.916
15517SOL    HW148448   6.782   6.887   9.925
15517SOL    HW248449   6.919   6.874   9.861
15518SOL     OW48450   6.668  10.362   0.142
15518SOL    HW148451   6.711  10.389   0.224
15518SOL    HW248452   6.735  10.310   0.097
15519SOL     OW48453   5.267   3.070   4.124
15519SOL    HW148454   5.193   3.050   4.066
15519SOL    HW248455   5.229   3.116   4.198
15520SOL     OW48456   2.916  11.753  11.217
15520SOL    HW148457   2.903  11.800  11.135
15520SOL    HW248458   2.905  11.819  11.285
15521SOL     OW48459  14.220   7.799   8.456
15521SOL    HW148460  14.310   7.768   8.449
15521SOL    HW248461  14.216   7.845   8.540
15522SOL     OW48462  13.871   1.806   4.181
15522SOL    HW148463  13.951   1.758   4.204
15522SOL    HW248464  13.843   1.767   4.098
15523SOL     OW48465   5.090  14.324  13.026
15523SOL    HW148466   5.112  14.413  12.998
15523SOL    HW248467   5.069  14.333  13.119
15524SOL     OW48468   7.056  11.668   3.819
15524SOL    HW148469   7.120  11.718   3.769
15524SOL    HW248470   7.106  11.630   3.892
15525SOL     OW48471  11.286   0.229  13.183
15525SOL    HW148472  11.309   0.295  13.248
15525SOL    HW248473  11.341   0.250  13.107
15526SOL     OW48474   5.671   6.834  13.602
15526SOL    HW148475   5.674   6.759  13.541
15526SOL    HW248476   5.745   6.818  13.661
15527SOL     OW48477   0.617  10.370  13.941
15527SOL    HW148478   0.590  10.444  13.997
15527SOL    HW248479   0.534  10.331  13.912
15528SOL     OW48480   1.515   2.538   5.362
15528SOL    HW148481   1.584   2.484   5.402
15528SOL    HW248482   1.539   2.541   5.269
15529SOL     OW48483   2.695   4.123   7.321
15529SOL    HW148484   2.615   4.075   7.344
15529SOL    HW248485   2.697   4.122   7.225
15530SOL     OW48486  11.192   4.114   1.092
15530SOL    HW148487  11.097   4.125   1.085
15530SOL    HW248488  11.227   4.203   1.086
15531SOL     OW48489   9.512   5.073  13.343
15531SOL    HW148490   9.468   4.995  13.378
15531SOL    HW248491   9.557   5.041  13.265
15532SOL     OW48492  13.880   0.999  11.962
15532SOL    HW148493  13.831   0.935  11.910
15532SOL    HW248494  13.813   1.053  12.003
15533SOL     OW48495   5.114   1.526   9.360
15533SOL    HW148496   5.195   1.476   9.368
15533SOL    HW248497   5.122   1.573   9.277
15534SOL     OW48498   6.099  11.538   5.339
15534SOL    HW148499   6.168  11.528   5.404
15534SOL    HW248500   6.030  11.586   5.384
15535SOL     OW48501  14.614   0.324   0.354
15535SOL    HW148502  14.561   0.334   0.433
15535SOL    HW248503  14.562   0.268   0.297
15536SOL     OW48504   0.767   9.636  14.148
15536SOL    HW148505   0.819   9.564  14.182
15536SOL    HW248506   0.817   9.669  14.074
15537SOL     OW48507   4.371   5.587   8.187
15537SOL    HW148508   4.300   5.648   8.206
15537SOL    HW248509   4.448   5.641   8.176
15538SOL     OW48510   1.327   5.660   7.483
15538SOL    HW148511   1.276   5.697   7.555
15538SOL    HW248512   1.329   5.729   7.417
15539SOL     OW48513   7.764   5.727  10.429
15539SOL    HW148514   7.723   5.655  10.382
15539SOL    HW248515   7.800   5.687  10.508
15540SOL     OW48516  11.141   9.153  13.823
15540SOL    HW148517  11.186   9.230  13.858
15540SOL    HW248518  11.117   9.178  13.733
15541SOL     OW48519  14.612   4.042  13.775
15541SOL    HW148520  14.596   3.951  13.797
15541SOL    HW248521  14.528   4.086  13.791
15542SOL     OW48522   0.813  13.008  10.579
15542SOL    HW148523   0.891  13.063  10.592
15542SOL    HW248524   0.764  13.052  10.510
15543SOL     OW48525  11.800  14.583   5.243
15543SOL    HW148526  11.891  14.565   5.269
15543SOL    HW248527  11.788  14.676   5.260
15544SOL     OW48528   4.135  10.211   5.299
15544SOL    HW148529   4.086  10.273   5.352
15544SOL    HW248530   4.099  10.125   5.322
15545SOL     OW48531  12.220   1.461   1.293
15545SOL    HW148532  12.222   1.494   1.202
15545SOL    HW248533  12.168   1.526   1.340
15546SOL     OW48534   9.115   7.860   3.844
15546SOL    HW148535   9.122   7.804   3.922
15546SOL    HW248536   9.089   7.800   3.774
15547SOL     OW48537   3.354   9.999   6.481
15547SOL    HW148538   3.370  10.083   6.438
15547SOL    HW248539   3.273  10.011   6.529
15548SOL     OW48540   8.072   3.810   0.292
15548SOL    HW148541   8.152   3.835   0.246
15548SOL    HW248542   8.033   3.741   0.238
15549SOL     OW48543   9.647  14.361   9.040
15549SOL    HW148544   9.700  14.428   9.084
15549SOL    HW248545   9.600  14.408   8.971
15550SOL     OW48546   4.320   8.194   2.469
15550SOL    HW148547   4.238   8.163   2.506
15550SOL    HW248548   4.359   8.117   2.429
15551SOL     OW48549   8.524   3.280  13.367
15551SOL    HW148550   8.537   3.200  13.417
15551SOL    HW248551   8.603   3.289  13.314
15552SOL     OW48552  11.611   4.561   2.095
15552SOL    HW148553  11.648   4.495   2.154
15552SOL    HW248554  11.518   4.561   2.115
15553SOL     OW48555   5.081   9.139  12.554
15553SOL    HW148556   4.990   9.121  12.531
15553SOL    HW248557   5.088   9.235  12.547
15554SOL     OW48558  11.902  11.892   5.723
15554SOL    HW148559  11.928  11.898   5.631
15554SOL    HW248560  11.959  11.954   5.768
15555SOL     OW48561   3.644   3.270   3.401
15555SOL    HW148562   3.690   3.253   3.319
15555SOL    HW248563   3.555   3.294   3.375
15556SOL     OW48564  14.646   2.385   4.323
15556SOL    HW148565  14.627   2.452   4.257
15556SOL    HW248566  14.656   2.304   4.273
15557SOL     OW48567  13.386  12.297   0.122
15557SOL    HW148568  13.402  12.287   0.028
15557SOL    HW248569  13.421  12.217   0.161
15558SOL     OW48570  14.353  10.459   1.246
15558SOL    HW148571  14.303  10.381   1.271
15558SOL    HW248572  14.289  10.529   1.242
15559SOL     OW48573   1.947   6.259   0.084
15559SOL    HW148574   1.873   6.299   0.038
15559SOL    HW248575   1.942   6.166   0.062
15560SOL     OW48576   7.805  12.778   1.264
15560SOL    HW148577   7.837  12.688   1.253
15560SOL    HW248578   7.883  12.828   1.289
15561SOL     OW48579  13.336  10.704   2.051
15561SOL    HW148580  13.296  10.647   2.117
15561SOL    HW248581  13.269  10.770   2.033
15562SOL     OW48582   8.675  13.156  11.352
15562SOL    HW148583   8.668  13.120  11.264
15562SOL    HW248584   8.592  13.132  11.394
15563SOL     OW48585   5.349   5.819   6.674
15563SOL    HW148586   5.260   5.830   6.709
15563SOL    HW248587   5.390   5.904   6.689
15564SOL     OW48588   3.255   8.658   9.110
15564SOL    HW148589   3.289   8.628   9.195
15564SOL    HW248590   3.323   8.715   9.075
15565SOL     OW48591  11.462   1.436  14.344
15565SOL    HW148592  11.487   1.381  14.270
15565SOL    HW248593  11.379   1.400  14.374
15566SOL     OW48594   2.672   3.363   5.080
15566SOL    HW148595   2.666   3.374   4.985
15566SOL    HW248596   2.748   3.415   5.106
15567SOL     OW48597   0.259   2.561  11.539
15567SOL    HW148598   0.331   2.543  11.479
15567SOL    HW248599   0.181   2.534  11.491
15568SOL     OW48600   1.586   1.997   2.758
15568SOL    HW148601   1.651   2.060   2.728
15568SOL    HW248602   1.539   1.972   2.678
15569SOL     OW48603  14.801   0.106  12.901
15569SOL    HW148604  14.779   0.200  12.900
15569SOL    HW248605   0.027   0.104  12.894
15570SOL     OW48606   9.926   3.330   1.392
15570SOL    HW148607   9.863   3.311   1.461
15570SOL    HW248608   9.929   3.426   1.388
15571SOL     OW48609  14.299   1.644   8.595
15571SOL    HW148610  14.352   1.608   8.524
15571SOL    HW248611  14.240   1.706   8.552
15572SOL     OW48612   1.340   7.961  14.361
15572SOL    HW148613   1.382   7.966  14.446
15572SOL    HW248614   1.341   7.868  14.338
15573SOL     OW48615  10.098  14.776  11.022
15573SOL    HW148616  10.089  14.734  10.936
15573SOL    HW248617  10.016  14.823  11.035
15574SOL     OW48618   3.930   3.718   6.330
15574SOL    HW148619   3.960   3.647   6.273
15574SOL    HW248620   4.005   3.737   6.386
15575SOL     OW48621   9.502  11.082   0.345
15575SOL    HW148622   9.479  11.038   0.263
15575SOL    HW248623   9.517  11.173   0.319
15576SOL     OW48624   7.828   5.928  10.096
15576SOL    HW148625   7.901   5.957  10.041
15576SOL    HW248626   7.823   5.992  10.166
15577SOL     OW48627   2.455  10.144  14.127
15577SOL    HW148628   2.544  10.153  14.095
15577SOL    HW248629   2.403  10.202  14.071
15578SOL     OW48630   9.041  14.290   2.390
15578SOL    HW148631   8.951  14.285   2.357
15578SOL    HW248632   9.049  14.378   2.425
15579SOL     OW48633   2.508   1.846  11.954
15579SOL    HW148634   2.467   1.858  12.040
15579SOL    HW248635   2.445   1.792  11.906
15580SOL     OW48636  10.958   2.430   6.301
15580SOL    HW148637  10.901   2.430   6.224
15580SOL    HW248638  10.923   2.498   6.358
15581SOL     OW48639  14.598  12.380   8.795
15581SOL    HW148640  14.659  12.451   8.775
15581SOL    HW248641  14.635  12.337   8.872
15582SOL     OW48642   8.438   8.627   1.341
15582SOL    HW148643   8.426   8.562   1.410
15582SOL    HW248644   8.493   8.584   1.276
15583SOL     OW48645   8.931  13.796  11.518
15583SOL    HW148646   8.856  13.834  11.473
15583SOL    HW248647   8.936  13.706  11.487
15584SOL     OW48648   6.741  14.647   8.217
15584SOL    HW148649   6.679  14.574   8.209
15584SOL    HW248650   6.752  14.679   8.127
15585SOL     OW48651   3.714  11.929   7.083
15585SOL    HW148652   3.626  11.913   7.118
15585SOL    HW248653   3.754  11.842   7.078
15586SOL     OW48654  13.018  10.286  12.095
15586SOL    HW148655  13.014  10.215  12.159
15586SOL    HW248656  12.982  10.362  12.141
15587SOL     OW48657  12.447  12.774   6.948
15587SOL    HW148658  12.536  12.789   6.915
15587SOL    HW248659  12.408  12.716   6.883
15588SOL     OW48660   3.262  13.329   2.988
15588SOL    HW148661   3.207  13.268   2.937
15588SOL    HW248662   3.203  13.368   3.052
15589SOL     OW48663   9.047   4.134   1.339
15589SOL    HW148664   9.008   4.175   1.262
15589SOL    HW248665   8.985   4.064   1.363
15590SOL     OW48666   9.660   0.646   4.599
15590SOL    HW148667   9.734   0.601   4.557
15590SOL    HW248668   9.632   0.710   4.534
15591SOL     OW48669   6.100  10.801   1.518
15591SOL    HW148670   6.167  10.740   1.547
15591SOL    HW248671   6.029  10.745   1.487
15592SOL     OW48672  13.038  14.537   7.941
15592SOL    HW148673  12.961  14.539   7.998
15592SOL    HW248674  13.106  14.583   7.991
15593SOL     OW48675   1.840  10.316  11.991
15593SOL    HW148676   1.886  10.272  12.063
15593SOL    HW248677   1.814  10.400  12.028
15594SOL     OW48678  10.004   9.179   2.344
15594SOL    HW148679  10.031   9.150   2.257
15594SOL    HW248680   9.923   9.132   2.361
15595SOL     OW48681   3.173   6.546   2.033
15595SOL    HW148682   3.190   6.459   2.069
15595SOL    HW248683   3.096   6.536   1.979
15596SOL     OW48684   9.079   2.594   9.102
15596SOL    HW148685   9.055   2.639   9.021
15596SOL    HW248686   9.014   2.624   9.166
15597SOL     OW48687   2.345  12.661   9.610
15597SOL    HW148688   2.290  12.629   9.682
15597SOL    HW248689   2.285  12.667   9.535
15598SOL     OW48690   8.016   8.257   8.613
15598SOL    HW148691   8.057   8.186   8.663
15598SOL    HW248692   7.949   8.291   8.672
15599SOL     OW48693   6.651   4.907  14.757
15599SOL    HW148694   6.588   4.850  14.714
15599SOL    HW248695   6.598   4.961  14.816
15600SOL     OW48696  10.453  14.310  12.639
15600SOL    HW148697  10.360  14.329  12.653
15600SOL    HW248698  10.496  14.396  12.645
15601SOL     OW48699  14.303   9.614   1.054
15601SOL    HW148700  14.208   9.622   1.053
15601SOL    HW248701  14.335   9.696   1.016
15602SOL     OW48702   4.764   9.640   0.889
15602SOL    HW148703   4.756   9.668   0.798
15602SOL    HW248704   4.700   9.570   0.899
15603SOL     OW48705   3.949   6.254   6.433
15603SOL    HW148706   3.962   6.242   6.527
15603SOL    HW248707   3.955   6.165   6.397
15604SOL     OW48708   3.534   5.426   7.537
15604SOL    HW148709   3.455   5.464   7.499
15604SOL    HW248710   3.590   5.408   7.461
15605SOL     OW48711  13.746   6.871   2.112
15605SOL    HW148712  13.706   6.958   2.111
15605SOL    HW248713  13.762   6.850   2.020
15606SOL     OW48714  13.679   9.639   5.612
15606SOL    HW148715  13.619   9.699   5.568
15606SOL    HW248716  13.658   9.553   5.576
15607SOL     OW48717   8.591  12.211   1.248
15607SOL    HW148718   8.498  12.187   1.249
15607SOL    HW248719   8.637  12.130   1.269
15608SOL     OW48720   6.371   5.830  12.421
15608SOL    HW148721   6.402   5.794  12.337
15608SOL    HW248722   6.450   5.862  12.464
15609SOL     OW48723  11.827  12.274   2.985
15609SOL    HW148724  11.811  12.207   2.919
15609SOL    HW248725  11.918  12.261   3.010
15610SOL     OW48726   1.035   2.585   7.855
15610SOL    HW148727   0.942   2.565   7.842
15610SOL    HW248728   1.055   2.554   7.943
15611SOL     OW48729   0.867  11.113   2.390
15611SOL    HW148730   0.919  11.048   2.437
15611SOL    HW248731   0.804  11.145   2.455
15612SOL     OW48732  11.826   2.495  12.303
15612SOL    HW148733  11.767   2.461  12.236
15612SOL    HW248734  11.894   2.542  12.254
15613SOL     OW48735   5.062   9.928   5.836
15613SOL    HW148736   5.081  10.009   5.790
15613SOL    HW248737   5.089   9.944   5.926
15614SOL     OW48738   5.103   1.901  14.233
15614SOL    HW148739   5.016   1.927  14.263
15614SOL    HW248740   5.160   1.917  14.309
15615SOL     OW48741   2.487   7.813  11.009
15615SOL    HW148742   2.418   7.754  11.039
15615SOL    HW248743   2.569   7.770  11.035
15616SOL     OW48744   4.509  11.013   5.382
15616SOL    HW148745   4.481  11.100   5.354
15616SOL    HW248746   4.441  10.954   5.351
15617SOL     OW48747  14.807   0.483   8.303
15617SOL    HW148748  14.770   0.467   8.216
15617SOL    HW248749  14.858   0.563   8.293
15618SOL     OW48750   2.609  10.652   7.641
15618SOL    HW148751   2.651  10.727   7.683
15618SOL    HW248752   2.529  10.688   7.603
15619SOL     OW48753   1.707   2.516   6.700
15619SOL    HW148754   1.626   2.568   6.701
15619SOL    HW248755   1.679   2.427   6.722
15620SOL     OW48756   0.849   9.277   3.356
15620SOL    HW148757   0.855   9.371   3.374
15620SOL    HW248758   0.926   9.240   3.399
15621SOL     OW48759   1.354   4.244   7.597
15621SOL    HW148760   1.447   4.229   7.579
15621SOL    HW248761   1.331   4.176   7.661
15622SOL     OW48762  12.902  13.149   5.493
15622SOL    HW148763  12.914  13.063   5.454
15622SOL    HW248764  12.810  13.170   5.479
15623SOL     OW48765  10.075  14.597   9.270
15623SOL    HW148766  10.063  14.688   9.240
15623SOL    HW248767  10.127  14.556   9.200
15624SOL     OW48768   8.529   3.756   8.050
15624SOL    HW148769   8.530   3.751   7.954
15624SOL    HW248770   8.534   3.665   8.078
15625SOL     OW48771   6.702  12.318   2.418
15625SOL    HW148772   6.709  12.404   2.460
15625SOL    HW248773   6.608  12.306   2.405
15626SOL     OW48774  13.434   3.124   0.650
15626SOL    HW148775  13.460   3.032   0.658
15626SOL    HW248776  13.493   3.160   0.583
15627SOL     OW48777   9.782   6.080   0.530
15627SOL    HW148778   9.731   6.005   0.561
15627SOL    HW248779   9.801   6.131   0.609
15628SOL     OW48780   6.230   4.723   6.084
15628SOL    HW148781   6.225   4.801   6.139
15628SOL    HW248782   6.292   4.666   6.129
15629SOL     OW48783   4.897   7.784   3.622
15629SOL    HW148784   4.970   7.724   3.611
15629SOL    HW248785   4.933   7.858   3.671
15630SOL     OW48786   6.100   9.922  13.609
15630SOL    HW148787   6.114   9.839  13.654
15630SOL    HW248788   6.175   9.976  13.635
15631SOL     OW48789  10.194   5.032  13.141
15631SOL    HW148790  10.283   5.002  13.125
15631SOL    HW248791  10.148   5.017  13.058
15632SOL     OW48792   9.428   8.882   1.275
15632SOL    HW148793   9.454   8.974   1.277
15632SOL    HW248794   9.480   8.843   1.205
15633SOL     OW48795  10.229   3.853   3.418
15633SOL    HW148796  10.321   3.845   3.443
15633SOL    HW248797  10.193   3.916   3.480
15634SOL     OW48798   3.342  11.766   1.616
15634SOL    HW148799   3.259  11.742   1.656
15634SOL    HW248800   3.405  11.762   1.688
15635SOL     OW48801  11.078   8.214  11.336
15635SOL    HW148802  11.117   8.132  11.368
15635SOL    HW248803  11.043   8.191  11.250
15636SOL     OW48804  10.761   0.504  11.727
15636SOL    HW148805  10.685   0.557  11.751
15636SOL    HW248806  10.742   0.417  11.762
15637SOL     OW48807   0.214  13.974   4.716
15637SOL    HW148808   0.164  14.057   4.715
15637SOL    HW248809   0.265  13.977   4.635
15638SOL     OW48810   4.362  12.599   5.239
15638SOL    HW148811   4.421  12.540   5.191
15638SOL    HW248812   4.392  12.596   5.329
15639SOL     OW48813   0.476   2.009   0.201
15639SOL    HW148814   0.499   1.916   0.206
15639SOL    HW248815   0.421   2.016   0.123
15640SOL     OW48816   1.150  12.122  13.824
15640SOL    HW148817   1.184  12.182  13.890
15640SOL    HW248818   1.173  12.163  13.740
15641SOL     OW48819  12.372   1.275   9.405
15641SOL    HW148820  12.345   1.218   9.477
15641SOL    HW248821  12.462   1.247   9.385
15642SOL     OW48822   7.975   8.160  10.335
15642SOL    HW148823   7.908   8.143  10.400
15642SOL    HW248824   7.947   8.242  10.293
15643SOL     OW48825  14.507  12.236  12.050
15643SOL    HW148826  14.428  12.213  12.098
15643SOL    HW248827  14.568  12.164  12.068
15644SOL     OW48828  14.853   2.751   0.564
15644SOL    HW148829  14.865   2.806   0.486
15644SOL    HW248830  14.793   2.682   0.535
15645SOL     OW48831   9.808   7.705  11.898
15645SOL    HW148832   9.884   7.758  11.922
15645SOL    HW248833   9.756   7.700  11.978
15646SOL     OW48834   9.040   6.470  11.542
15646SOL    HW148835   9.000   6.536  11.487
15646SOL    HW248836   9.067   6.401  11.482
15647SOL     OW48837   2.704   7.134   9.963
15647SOL    HW148838   2.726   7.120   9.871
15647SOL    HW248839   2.609   7.145   9.963
15648SOL     OW48840   1.998   6.585   9.139
15648SOL    HW148841   1.938   6.608   9.210
15648SOL    HW248842   2.023   6.668   9.100
15649SOL     OW48843   8.416   3.727   8.504
15649SOL    HW148844   8.393   3.644   8.462
15649SOL    HW248845   8.378   3.795   8.448
15650SOL     OW48846   1.456   2.234   2.563
15650SOL    HW148847   1.375   2.269   2.526
15650SOL    HW248848   1.450   2.139   2.547
15651SOL     OW48849  11.925   5.922   9.094
15651SOL    HW148850  11.870   5.891   9.022
15651SOL    HW248851  11.868   5.982   9.143
15652SOL     OW48852   4.325   7.036   0.529
15652SOL    HW148853   4.411   7.042   0.489
15652SOL    HW248854   4.296   6.946   0.511
15653SOL     OW48855   4.751   3.156   9.354
15653SOL    HW148856   4.719   3.241   9.323
15653SOL    HW248857   4.676   3.118   9.400
15654SOL     OW48858   0.132   7.750   7.550
15654SOL    HW148859   0.140   7.828   7.495
15654SOL    HW248860   0.134   7.783   7.639
15655SOL     OW48861  11.647  10.329  10.858
15655SOL    HW148862  11.555  10.342  10.833
15655SOL    HW248863  11.697  10.364  10.784
15656SOL     OW48864   8.809  13.352  11.024
15656SOL    HW148865   8.883  13.352  10.963
15656SOL    HW248866   8.748  13.288  10.988
15657SOL     OW48867   6.624   1.256  10.571
15657SOL    HW148868   6.665   1.204  10.640
15657SOL    HW248869   6.660   1.220  10.489
15658SOL     OW48870   1.010  14.547   1.243
15658SOL    HW148871   1.002  14.639   1.220
15658SOL    HW248872   1.086  14.517   1.193
15659SOL     OW48873  11.402   0.820   4.710
15659SOL    HW148874  11.376   0.839   4.620
15659SOL    HW248875  11.446   0.900   4.740
15660SOL     OW48876   5.078   2.732   6.548
15660SOL    HW148877   5.103   2.695   6.464
15660SOL    HW248878   4.999   2.782   6.530
15661SOL     OW48879   9.502  12.173   1.066
15661SOL    HW148880   9.414  12.191   1.033
15661SOL    HW248881   9.540  12.114   1.000
15662SOL     OW48882  10.593  14.036   3.272
15662SOL    HW148883  10.584  14.086   3.353
15662SOL    HW248884  10.507  13.996   3.259
15663SOL     OW48885   4.791   0.322   1.638
15663SOL    HW148886   4.794   0.250   1.701
15663SOL    HW248887   4.718   0.300   1.580
15664SOL     OW48888   5.493   6.010   4.589
15664SOL    HW148889   5.537   5.926   4.599
15664SOL    HW248890   5.501   6.031   4.496
15665SOL     OW48891   7.797  11.929  12.101
15665SOL    HW148892   7.754  11.965  12.178
15665SOL    HW248893   7.774  11.989  12.030
15666SOL     OW48894   2.315   3.044   9.829
15666SOL    HW148895   2.278   3.006   9.909
15666SOL    HW248896   2.252   3.022   9.761
15667SOL     OW48897  13.406  13.319   3.195
15667SOL    HW148898  13.414  13.342   3.288
15667SOL    HW248899  13.423  13.401   3.149
15668SOL     OW48900  14.122   7.030  10.818
15668SOL    HW148901  14.052   7.032  10.753
15668SOL    HW248902  14.078   7.051  10.901
15669SOL     OW48903   9.532  11.652   7.280
15669SOL    HW148904   9.564  11.597   7.352
15669SOL    HW248905   9.467  11.598   7.235
15670SOL     OW48906   6.368  10.886  12.759
15670SOL    HW148907   6.393  10.913  12.847
15670SOL    HW248908   6.450  10.855  12.720
15671SOL     OW48909  14.786  11.367   9.329
15671SOL    HW148910  14.691  11.381   9.336
15671SOL    HW248911  14.815  11.433   9.267
15672SOL     OW48912   2.826   2.244  13.399
15672SOL    HW148913   2.910   2.245  13.352
15672SOL    HW248914   2.817   2.333  13.433
15673SOL     OW48915   9.636  11.535  13.668
15673SOL    HW148916   9.552  11.581  13.657
15673SOL    HW248917   9.676  11.577  13.744
15674SOL     OW48918  13.541   1.821   7.653
15674SOL    HW148919  13.507   1.885   7.716
15674SOL    HW248920  13.469   1.807   7.591
15675SOL     OW48921   0.399   4.630  10.039
15675SOL    HW148922   0.410   4.644   9.945
15675SOL    HW248923   0.330   4.691  10.066
15676SOL     OW48924   4.434   4.122   0.086
15676SOL    HW148925   4.423   4.204   0.135
15676SOL    HW248926   4.499   4.073   0.137
15677SOL     OW48927   3.536  10.824   5.813
15677SOL    HW148928   3.523  10.733   5.841
15677SOL    HW248929   3.613  10.822   5.757
15678SOL     OW48930   4.008   7.585   7.011
15678SOL    HW148931   3.988   7.671   6.973
15678SOL    HW248932   3.990   7.524   6.939
15679SOL     OW48933   8.488   4.162   6.906
15679SOL    HW148934   8.463   4.209   6.827
15679SOL    HW248935   8.549   4.220   6.950
15680SOL     OW48936  14.503   2.769   8.864
15680SOL    HW148937  14.541   2.856   8.866
15680SOL    HW248938  14.564   2.717   8.812
15681SOL     OW48939   5.197   7.253   3.300
15681SOL    HW148940   5.229   7.199   3.372
15681SOL    HW248941   5.274   7.301   3.270
15682SOL     OW48942   7.072   2.490   2.699
15682SOL    HW148943   7.085   2.520   2.788
15682SOL    HW248944   7.143   2.428   2.684
15683SOL     OW48945   8.293   8.290   2.800
15683SOL    HW148946   8.312   8.250   2.885
15683SOL    HW248947   8.337   8.375   2.803
15684SOL     OW48948  13.189   3.974   1.822
15684SOL    HW148949  13.252   4.043   1.802
15684SOL    HW248950  13.163   3.939   1.737
15685SOL     OW48951  12.726   9.588   8.608
15685SOL    HW148952  12.748   9.636   8.688
15685SOL    HW248953  12.801   9.530   8.594
15686SOL     OW48954  14.866   7.351   4.380
15686SOL    HW148955  14.829   7.266   4.356
15686SOL    HW248956  14.794   7.412   4.368
15687SOL     OW48957   5.765   1.773   2.233
15687SOL    HW148958   5.750   1.867   2.237
15687SOL    HW248959   5.782   1.747   2.323
15688SOL     OW48960   9.801  11.261  12.197
15688SOL    HW148961   9.839  11.255  12.285
15688SOL    HW248962   9.871  11.296  12.142
15689SOL     OW48963  13.564  14.619   1.519
15689SOL    HW148964  13.558  14.523   1.516
15689SOL    HW248965  13.568  14.640   1.612
15690SOL     OW48966  12.699   2.803   0.732
15690SOL    HW148967  12.751   2.812   0.812
15690SOL    HW248968  12.608   2.811   0.762
15691SOL     OW48969   6.380   0.727  11.675
15691SOL    HW148970   6.354   0.818  11.657
15691SOL    HW248971   6.472   0.723  11.650
15692SOL     OW48972  11.870  11.284   9.044
15692SOL    HW148973  11.856  11.224   9.118
15692SOL    HW248974  11.824  11.243   8.971
15693SOL     OW48975  11.663   7.952   5.072
15693SOL    HW148976  11.754   7.978   5.063
15693SOL    HW248977  11.628   7.957   4.983
15694SOL     OW48978   4.370   7.801  13.470
15694SOL    HW148979   4.285   7.759  13.483
15694SOL    HW248980   4.400   7.769  13.385
15695SOL     OW48981   9.148  13.268   3.307
15695SOL    HW148982   9.122  13.198   3.367
15695SOL    HW248983   9.065  13.304   3.276
15696SOL     OW48984   7.618  14.819   8.174
15696SOL    HW148985   7.550  14.851   8.232
15696SOL    HW248986   7.637  14.730   8.204
15697SOL     OW48987   9.890  12.114   6.970
15697SOL    HW148988   9.885  12.020   6.987
15697SOL    HW248989   9.802  12.146   6.990
15698SOL     OW48990   8.213   4.790   7.632
15698SOL    HW148991   8.131   4.839   7.623
15698SOL    HW248992   8.243   4.810   7.721
15699SOL     OW48993  10.267  12.123   3.314
15699SOL    HW148994  10.263  12.196   3.252
15699SOL    HW248995  10.289  12.165   3.398
15700SOL     OW48996   7.581   8.941   3.148
15700SOL    HW148997   7.536   9.026   3.139
15700SOL    HW248998   7.673   8.961   3.130
15701SOL     OW48999   0.580   2.263   8.307
15701SOL    HW149000   0.545   2.335   8.253
15701SOL    HW249001   0.674   2.265   8.291
15702SOL     OW49002   8.563  13.311  14.779
15702SOL    HW149003   8.501  13.375  14.813
15702SOL    HW249004   8.622  13.362  14.724
15703SOL     OW49005   2.402   4.943   0.332
15703SOL    HW149006   2.374   4.883   0.263
15703SOL    HW249007   2.453   5.010   0.286
15704SOL     OW49008   1.281   1.576  10.220
15704SOL    HW149009   1.185   1.567  10.224
15704SOL    HW249010   1.308   1.586  10.311
15705SOL     OW49011   3.223  14.446  12.060
15705SOL    HW149012   3.175  14.368  12.030
15705SOL    HW249013   3.212  14.445  12.155
15706SOL     OW49014   3.024   5.895  14.151
15706SOL    HW149015   2.980   5.812  14.172
15706SOL    HW249016   2.976   5.961  14.201
15707SOL     OW49017   3.506   2.868   9.391
15707SOL    HW149018   3.526   2.813   9.315
15707SOL    HW249019   3.504   2.807   9.465
15708SOL     OW49020  11.701   4.942   5.713
15708SOL    HW149021  11.626   4.990   5.677
15708SOL    HW249022  11.700   4.963   5.806
15709SOL     OW49023   8.778   0.714  14.690
15709SOL    HW149024   8.716   0.640  14.684
15709SOL    HW249025   8.731   0.780  14.741
15710SOL     OW49026   7.585   5.787   3.133
15710SOL    HW149027   7.680   5.786   3.146
15710SOL    HW249028   7.565   5.704   3.089
15711SOL     OW49029   9.254  12.568   3.078
15711SOL    HW149030   9.311  12.513   3.023
15711SOL    HW249031   9.179  12.511   3.098
15712SOL     OW49032   6.326   3.566  13.000
15712SOL    HW149033   6.233   3.544  13.006
15712SOL    HW249034   6.342   3.578  12.906
15713SOL     OW49035  13.904   7.079   4.586
15713SOL    HW149036  13.832   7.140   4.573
15713SOL    HW249037  13.867   7.008   4.638
15714SOL     OW49038  10.505  14.785   4.377
15714SOL    HW149039  10.580  14.839   4.353
15714SOL    HW249040  10.435  14.848   4.395
15715SOL     OW49041   8.010   3.210   2.601
15715SOL    HW149042   7.944   3.149   2.568
15715SOL    HW249043   8.088   3.192   2.549
15716SOL     OW49044   7.612  10.655  13.321
15716SOL    HW149045   7.652  10.672  13.406
15716SOL    HW249046   7.520  10.679  13.333
15717SOL     OW49047  13.760   7.065   0.548
15717SOL    HW149048  13.704   7.000   0.505
15717SOL    HW249049  13.703   7.139   0.565
15718SOL     OW49050   0.753   9.949   6.035
15718SOL    HW149051   0.825  10.011   6.035
15718SOL    HW249052   0.796   9.863   6.034
15719SOL     OW49053   2.320  14.417   9.044
15719SOL    HW149054   2.315  14.469   9.125
15719SOL    HW249055   2.381  14.347   9.064
15720SOL     OW49056   2.842  11.586  14.727
15720SOL    HW149057   2.848  11.495  14.698
15720SOL    HW249058   2.920  11.628  14.689
15721SOL     OW49059   9.661   8.492   2.342
15721SOL    HW149060   9.610   8.548   2.284
15721SOL    HW249061   9.650   8.404   2.305
15722SOL     OW49062  14.548  13.717  13.078
15722SOL    HW149063  14.541  13.661  13.156
15722SOL    HW249064  14.515  13.802  13.107
15723SOL     OW49065  10.697  10.464   8.208
15723SOL    HW149066  10.619  10.419   8.177
15723SOL    HW249067  10.688  10.467   8.303
15724SOL     OW49068   9.831   9.464   1.181
15724SOL    HW149069   9.823   9.464   1.085
15724SOL    HW249070   9.741   9.455   1.212
15725SOL     OW49071  11.835   6.299   3.061
15725SOL    HW149072  11.828   6.392   3.083
15725SOL    HW249073  11.751   6.261   3.089
15726SOL     OW49074  13.219   2.554  10.890
15726SOL    HW149075  13.304   2.576  10.851
15726SOL    HW249076  13.199   2.628  10.947
15727SOL     OW49077   4.885   8.152   7.039
15727SOL    HW149078   4.981   8.149   7.039
15727SOL    HW249079   4.862   8.213   7.109
15728SOL     OW49080  14.660  13.529  13.835
15728SOL    HW149081  14.589  13.552  13.775
15728SOL    HW249082  14.687  13.441  13.809
15729SOL     OW49083   6.342  10.549  10.381
15729SOL    HW149084   6.369  10.640  10.371
15729SOL    HW249085   6.362  10.508  10.296
15730SOL     OW49086   5.042   6.169   7.440
15730SOL    HW149087   5.090   6.225   7.501
15730SOL    HW249088   4.993   6.109   7.497
15731SOL     OW49089   0.971   1.684  10.142
15731SOL    HW149090   0.907   1.739  10.187
15731SOL    HW249091   1.020   1.745  10.087
15732SOL     OW49092  10.325   9.232   4.393
15732SOL    HW149093  10.242   9.251   4.349
15732SOL    HW249094  10.379   9.310   4.376
15733SOL     OW49095   2.928  10.968   7.821
15733SOL    HW149096   3.010  10.964   7.770
15733SOL    HW249097   2.927  11.057   7.857
15734SOL     OW49098   2.303   1.640   1.122
15734SOL    HW149099   2.356   1.656   1.044
15734SOL    HW249100   2.290   1.545   1.124
15735SOL     OW49101  12.393  12.908   7.944
15735SOL    HW149102  12.402  12.830   7.999
15735SOL    HW249103  12.420  12.980   8.000
15736SOL     OW49104   8.039   6.543  11.103
15736SOL    HW149105   7.968   6.494  11.059
15736SOL    HW249106   8.074   6.481  11.167
15737SOL     OW49107   3.945   8.091   5.508
15737SOL    HW149108   4.012   8.077   5.442
15737SOL    HW249109   3.953   8.015   5.566
15738SOL     OW49110  13.738  14.827   7.635
15738SOL    HW149111  13.802  14.863   7.572
15738SOL    HW249112  13.792  14.798   7.709
15739SOL     OW49113   5.205   9.658  14.579
15739SOL    HW149114   5.254   9.739  14.565
15739SOL    HW249115   5.133   9.661  14.516
15740SOL     OW49116  13.036   4.223   2.529
15740SOL    HW149117  13.004   4.135   2.551
15740SOL    HW249118  13.035   4.270   2.612
15741SOL     OW49119   2.295  14.418   5.043
15741SOL    HW149120   2.265  14.484   5.106
15741SOL    HW249121   2.333  14.469   4.971
15742SOL     OW49122   8.017   9.340   3.195
15742SOL    HW149123   7.984   9.378   3.276
15742SOL    HW249124   7.972   9.388   3.125
15743SOL     OW49125   8.844   4.682   1.605
15743SOL    HW149126   8.790   4.730   1.668
15743SOL    HW249127   8.838   4.733   1.524
15744SOL     OW49128   7.609   9.604   3.672
15744SOL    HW149129   7.618   9.542   3.744
15744SOL    HW249130   7.516   9.625   3.669
15745SOL     OW49131   9.374   0.866  13.189
15745SOL    HW149132   9.462   0.827  13.186
15745SOL    HW249133   9.320   0.800  13.233
15746SOL     OW49134   8.825   5.361  14.157
15746SOL    HW149135   8.795   5.452  14.164
15746SOL    HW249136   8.746   5.309  14.175
15747SOL     OW49137   0.210   0.327  10.730
15747SOL    HW149138   0.155   0.398  10.762
15747SOL    HW249139   0.148   0.261  10.697
15748SOL     OW49140  12.710   4.751   4.837
15748SOL    HW149141  12.763   4.676   4.810
15748SOL    HW249142  12.642   4.714   4.892
15749SOL     OW49143   8.399   3.645   4.615
15749SOL    HW149144   8.350   3.641   4.533
15749SOL    HW249145   8.384   3.560   4.656
15750SOL     OW49146  10.182  13.855   6.035
15750SOL    HW149147  10.270  13.882   6.010
15750SOL    HW249148  10.183  13.759   6.028
15751SOL     OW49149  13.350   1.917  14.031
15751SOL    HW149150  13.367   1.976  14.104
15751SOL    HW249151  13.349   1.830  14.071
15752SOL     OW49152   5.827  14.458   9.842
15752SOL    HW149153   5.764  14.502   9.784
15752SOL    HW249154   5.796  14.476   9.930
15753SOL     OW49155   9.644   2.760  10.124
15753SOL    HW149156   9.695   2.687  10.160
15753SOL    HW249157   9.710   2.827  10.104
15754SOL     OW49158   4.402   0.393   8.722
15754SOL    HW149159   4.493   0.379   8.745
15754SOL    HW249160   4.406   0.443   8.640
15755SOL     OW49161  10.779  14.345   1.619
15755SOL    HW149162  10.726  14.321   1.544
15755SOL    HW249163  10.866  14.363   1.583
15756SOL     OW49164   4.930  10.511   8.298
15756SOL    HW149165   4.938  10.436   8.239
15756SOL    HW249166   4.872  10.479   8.368
15757SOL     OW49167  12.941   3.365  14.208
15757SOL    HW149168  12.939   3.429  14.279
15757SOL    HW249169  12.951   3.280  14.251
15758SOL     OW49170   2.651   5.781  11.435
15758SOL    HW149171   2.691   5.862  11.404
15758SOL    HW249172   2.580   5.764  11.373
15759SOL     OW49173   1.926  11.408   5.988
15759SOL    HW149174   1.863  11.347   5.951
15759SOL    HW249175   1.879  11.449   6.062
15760SOL     OW49176  11.697   6.045  11.705
15760SOL    HW149177  11.700   6.058  11.610
15760SOL    HW249178  11.619   6.094  11.733
15761SOL     OW49179   5.852  10.786   1.036
15761SOL    HW149180   5.776  10.824   0.992
15761SOL    HW249181   5.836  10.802   1.129
15762SOL     OW49182   7.799   3.145   7.511
15762SOL    HW149183   7.808   3.231   7.470
15762SOL    HW249184   7.828   3.083   7.444
15763SOL     OW49185   3.162  10.840   6.707
15763SOL    HW149186   3.201  10.833   6.620
15763SOL    HW249187   3.234  10.818   6.767
15764SOL     OW49188  13.018   3.504   7.275
15764SOL    HW149189  13.012   3.592   7.312
15764SOL    HW249190  12.932   3.488   7.236
15765SOL     OW49191  13.707   8.182   9.440
15765SOL    HW149192  13.773   8.246   9.413
15765SOL    HW249193  13.716   8.176   9.535
15766SOL     OW49194   7.869   5.968  13.692
15766SOL    HW149195   7.780   5.932  13.690
15766SOL    HW249196   7.922   5.904  13.644
15767SOL     OW49197  11.573   9.623   5.477
15767SOL    HW149198  11.508   9.685   5.509
15767SOL    HW249199  11.560   9.621   5.382
15768SOL     OW49200   4.175  10.076   6.724
15768SOL    HW149201   4.150  10.127   6.802
15768SOL    HW249202   4.251  10.026   6.752
15769SOL     OW49203   6.111   5.401  12.456
15769SOL    HW149204   6.031   5.426  12.503
15769SOL    HW249205   6.112   5.305  12.461
15770SOL     OW49206  14.326   1.440  10.357
15770SOL    HW149207  14.367   1.448  10.271
15770SOL    HW249208  14.239   1.404  10.338
15771SOL     OW49209  10.038   2.059   6.968
15771SOL    HW149210   9.962   2.034   7.019
15771SOL    HW249211  10.014   2.041   6.878
15772SOL     OW49212   6.443   5.344  11.211
15772SOL    HW149213   6.500   5.337  11.287
15772SOL    HW249214   6.444   5.256  11.172
15773SOL     OW49215  12.023  10.103  11.066
15773SOL    HW149216  12.077  10.183  11.073
15773SOL    HW249217  11.933  10.135  11.065
15774SOL     OW49218  11.145   4.685  12.579
15774SOL    HW149219  11.151   4.778  12.554
15774SOL    HW249220  11.065   4.679  12.631
15775SOL     OW49221   7.330   2.705   3.437
15775SOL    HW149222   7.254   2.755   3.407
15775SOL    HW249223   7.301   2.661   3.516
15776SOL     OW49224   0.498  11.931   3.431
15776SOL    HW149225   0.493  12.022   3.458
15776SOL    HW249226   0.534  11.885   3.507
15777SOL     OW49227   2.003  11.795  12.116
15777SOL    HW149228   1.921  11.815  12.162
15777SOL    HW249229   2.020  11.703  12.135
15778SOL     OW49230   8.481   3.240   8.088
15778SOL    HW149231   8.553   3.189   8.124
15778SOL    HW249232   8.428   3.177   8.039
15779SOL     OW49233   6.016   4.579   2.075
15779SOL    HW149234   6.102   4.539   2.086
15779SOL    HW249235   6.024   4.666   2.115
15780SOL     OW49236   3.548   2.602  10.366
15780SOL    HW149237   3.532   2.596  10.460
15780SOL    HW249238   3.623   2.661  10.358
15781SOL     OW49239   6.658   6.034   3.004
15781SOL    HW149240   6.663   5.963   2.941
15781SOL    HW249241   6.628   5.992   3.085
15782SOL     OW49242  14.154   5.402   5.394
15782SOL    HW149243  14.069   5.361   5.382
15782SOL    HW249244  14.135   5.488   5.430
15783SOL     OW49245   3.160   5.778  13.178
15783SOL    HW149246   3.136   5.830  13.101
15783SOL    HW249247   3.119   5.693  13.163
15784SOL     OW49248   1.488   9.369  12.344
15784SOL    HW149249   1.400   9.374  12.383
15784SOL    HW249250   1.472   9.366  12.250
15785SOL     OW49251  11.351   5.391  11.249
15785SOL    HW149252  11.427   5.393  11.307
15785SOL    HW249253  11.340   5.298  11.227
15786SOL     OW49254  14.777  12.071   0.735
15786SOL    HW149255  14.774  11.982   0.702
15786SOL    HW249256  14.750  12.125   0.661
15787SOL     OW49257   6.670   8.874   3.684
15787SOL    HW149258   6.671   8.938   3.755
15787SOL    HW249259   6.581   8.880   3.648
15788SOL     OW49260  14.748   1.314   1.341
15788SOL    HW149261  14.705   1.315   1.256
15788SOL    HW249262  14.724   1.230   1.379
15789SOL     OW49263   9.619   7.910   4.704
15789SOL    HW149264   9.598   7.893   4.796
15789SOL    HW249265   9.714   7.907   4.700
15790SOL     OW49266  12.368   3.229   4.548
15790SOL    HW149267  12.287   3.243   4.597
15790SOL    HW249268  12.436   3.222   4.614
15791SOL     OW49269  13.325   6.384   6.224
15791SOL    HW149270  13.416   6.394   6.195
15791SOL    HW249271  13.274   6.429   6.157
15792SOL     OW49272   5.147   8.249  11.062
15792SOL    HW149273   5.116   8.338  11.048
15792SOL    HW249274   5.240   8.258  11.081
15793SOL     OW49275  14.209   4.846   0.056
15793SOL    HW149276  14.122   4.853   0.097
15793SOL    HW249277  14.239   4.936   0.047
15794SOL     OW49278  13.103   2.262   3.916
15794SOL    HW149279  13.037   2.251   3.985
15794SOL    HW249280  13.172   2.313   3.958
15795SOL     OW49281   9.343   1.585  13.569
15795SOL    HW149282   9.391   1.668  13.557
15795SOL    HW249283   9.323   1.583  13.662
15796SOL     OW49284   9.593   6.749  12.226
15796SOL    HW149285   9.522   6.707  12.275
15796SOL    HW249286   9.550   6.792  12.153
15797SOL     OW49287   7.619  14.768  11.920
15797SOL    HW149288   7.621  14.829  11.846
15797SOL    HW249289   7.607  14.682  11.880
15798SOL     OW49290   0.374   2.396   0.872
15798SOL    HW149291   0.445   2.456   0.897
15798SOL    HW249292   0.418   2.328   0.820
15799SOL     OW49293   3.556  11.304   5.355
15799SOL    HW149294   3.490  11.247   5.314
15799SOL    HW249295   3.509  11.347   5.427
15800SOL     OW49296   4.664  14.353   0.588
15800SOL    HW149297   4.580  14.397   0.599
15800SOL    HW249298   4.670  14.294   0.664
15801SOL     OW49299   9.167  12.761   3.703
15801SOL    HW149300   9.186  12.754   3.796
15801SOL    HW249301   9.072  12.767   3.698
15802SOL     OW49302   7.609   0.124   0.604
15802SOL    HW149303   7.590   0.129   0.698
15802SOL    HW249304   7.635   0.033   0.590
15803SOL     OW49305   4.066   2.017  12.917
15803SOL    HW149306   4.122   2.089  12.948
15803SOL    HW249307   4.100   1.939  12.961
15804SOL     OW49308   9.002  12.671   5.774
15804SOL    HW149309   9.016  12.762   5.747
15804SOL    HW249310   9.088  12.642   5.805
15805SOL     OW49311  13.063   6.043   8.985
15805SOL    HW149312  13.135   6.002   8.938
15805SOL    HW249313  13.048   6.126   8.939
15806SOL     OW49314  13.760  13.034   0.737
15806SOL    HW149315  13.778  13.117   0.780
15806SOL    HW249316  13.725  12.978   0.806
15807SOL     OW49317  14.728   5.178   7.507
15807SOL    HW149318  14.797   5.160   7.443
15807SOL    HW249319  14.713   5.094   7.550
15808SOL     OW49320  14.213  11.865  13.071
15808SOL    HW149321  14.119  11.880  13.060
15808SOL    HW249322  14.242  11.830  12.987
15809SOL     OW49323   8.905   4.947   0.614
15809SOL    HW149324   8.842   4.879   0.637
15809SOL    HW249325   8.895   4.958   0.520
15810SOL     OW49326   1.265  13.145   5.754
15810SOL    HW149327   1.305  13.228   5.731
15810SOL    HW249328   1.307  13.119   5.836
15811SOL     OW49329   3.997  10.134   9.741
15811SOL    HW149330   3.972  10.047   9.772
15811SOL    HW249331   3.968  10.136   9.650
15812SOL     OW49332  10.778  11.458   0.858
15812SOL    HW149333  10.768  11.503   0.774
15812SOL    HW249334  10.706  11.491   0.912
15813SOL     OW49335  14.699  10.011   3.648
15813SOL    HW149336  14.611  10.049   3.644
15813SOL    HW249337  14.752  10.077   3.693
15814SOL     OW49338   6.378   8.964   5.642
15814SOL    HW149339   6.415   8.889   5.594
15814SOL    HW249340   6.454   9.019   5.662
15815SOL     OW49341   4.046   6.095  13.860
15815SOL    HW149342   4.043   6.018  13.916
15815SOL    HW249343   4.017   6.064  13.774
15816SOL     OW49344   7.651   9.911   4.389
15816SOL    HW149345   7.562   9.918   4.423
15816SOL    HW249346   7.657   9.821   4.357
15817SOL     OW49347   3.269  14.129  13.183
15817SOL    HW149348   3.238  14.054  13.235
15817SOL    HW249349   3.261  14.204  13.243
15818SOL     OW49350   9.995   9.030   1.304
15818SOL    HW149351   9.923   9.018   1.242
15818SOL    HW249352   9.991   8.953   1.361
15819SOL     OW49353   1.792   2.620   2.000
15819SOL    HW149354   1.823   2.585   1.916
15819SOL    HW249355   1.794   2.544   2.059
15820SOL     OW49356   4.089   2.104   9.801
15820SOL    HW149357   4.120   2.023   9.759
15820SOL    HW249358   4.058   2.158   9.729
15821SOL     OW49359  11.326  12.977  11.555
15821SOL    HW149360  11.376  13.058  11.565
15821SOL    HW249361  11.343  12.949  11.465
15822SOL     OW49362  10.435   1.850  12.645
15822SOL    HW149363  10.502   1.909  12.680
15822SOL    HW249364  10.467   1.825  12.558
15823SOL     OW49365   1.996   6.826   7.552
15823SOL    HW149366   1.968   6.800   7.464
15823SOL    HW249367   2.083   6.864   7.539
15824SOL     OW49368  14.770   8.604   5.191
15824SOL    HW149369  14.752   8.513   5.167
15824SOL    HW249370  14.684   8.641   5.210
15825SOL     OW49371   8.343  11.070  11.805
15825SOL    HW149372   8.248  11.059  11.792
15825SOL    HW249373   8.360  11.161  11.780
15826SOL     OW49374   7.911  13.626  14.538
15826SOL    HW149375   7.929  13.563  14.468
15826SOL    HW249376   7.983  13.614  14.600
15827SOL     OW49377   5.355   9.667   9.340
15827SOL    HW149378   5.405   9.587   9.326
15827SOL    HW249379   5.339   9.670   9.434
15828SOL     OW49380   6.261   1.140   2.846
15828SOL    HW149381   6.314   1.191   2.907
15828SOL    HW249382   6.195   1.202   2.813
15829SOL     OW49383   7.698  14.544   4.745
15829SOL    HW149384   7.716  14.460   4.704
15829SOL    HW249385   7.779  14.566   4.791
15830SOL     OW49386   1.650   7.013   9.447
15830SOL    HW149387   1.640   7.030   9.541
15830SOL    HW249388   1.661   6.918   9.441
15831SOL     OW49389   7.883   9.545   8.958
15831SOL    HW149390   7.884   9.574   8.866
15831SOL    HW249391   7.942   9.605   9.003
15832SOL     OW49392   3.057   0.120  12.636
15832SOL    HW149393   3.048   0.089  12.726
15832SOL    HW249394   3.094   0.208  12.645
15833SOL     OW49395   4.505   5.688   9.775
15833SOL    HW149396   4.593   5.671   9.808
15833SOL    HW249397   4.467   5.601   9.761
15834SOL     OW49398   2.029  13.950   8.743
15834SOL    HW149399   1.986  14.006   8.678
15834SOL    HW249400   2.063  14.011   8.808
15835SOL     OW49401   3.731   0.827  10.283
15835SOL    HW149402   3.801   0.859  10.340
15835SOL    HW249403   3.776   0.774  10.217
15836SOL     OW49404   1.083   5.584  14.102
15836SOL    HW149405   1.117   5.516  14.044
15836SOL    HW249406   1.000   5.610  14.062
15837SOL     OW49407   5.207   1.571  10.979
15837SOL    HW149408   5.300   1.591  10.983
15837SOL    HW249409   5.166   1.638  11.035
15838SOL     OW49410   4.758   2.845   4.174
15838SOL    HW149411   4.784   2.931   4.141
15838SOL    HW249412   4.670   2.831   4.139
15839SOL     OW49413   2.461   9.452   2.164
15839SOL    HW149414   2.548   9.487   2.145
15839SOL    HW249415   2.435   9.496   2.246
15840SOL     OW49416   5.980  11.481   2.059
15840SOL    HW149417   5.909  11.533   2.020
15840SOL    HW249418   5.934  11.415   2.112
15841SOL     OW49419   3.779   5.453   9.414
15841SOL    HW149420   3.704   5.459   9.473
15841SOL    HW249421   3.821   5.539   9.421
15842SOL     OW49422  10.200   7.993   8.656
15842SOL    HW149423  10.272   8.024   8.600
15842SOL    HW249424  10.133   8.060   8.649
15843SOL     OW49425  12.781  13.600   2.839
15843SOL    HW149426  12.788  13.622   2.746
15843SOL    HW249427  12.862  13.634   2.878
15844SOL     OW49428   6.582   3.289  12.369
15844SOL    HW149429   6.678   3.283  12.368
15844SOL    HW249430   6.564   3.377  12.400
15845SOL     OW49431   0.913   4.280   4.081
15845SOL    HW149432   0.894   4.230   4.001
15845SOL    HW249433   0.887   4.221   4.152
15846SOL     OW49434   3.875  10.645  12.561
15846SOL    HW149435   3.836  10.695  12.489
15846SOL    HW249436   3.942  10.704  12.596
15847SOL     OW49437   7.210  10.952   5.228
15847SOL    HW149438   7.190  11.042   5.203
15847SOL    HW249439   7.296  10.957   5.270
15848SOL     OW49440  11.214  12.595   4.250
15848SOL    HW149441  11.244  12.677   4.212
15848SOL    HW249442  11.294  12.545   4.266
15849SOL     OW49443  12.149   4.974   5.606
15849SOL    HW149444  12.055   4.974   5.589
15849SOL    HW249445  12.176   5.065   5.592
15850SOL     OW49446  10.988   6.311   1.576
15850SOL    HW149447  11.001   6.406   1.573
15850SOL    HW249448  11.063   6.279   1.625
15851SOL     OW49449  14.031  13.847   1.533
15851SOL    HW149450  13.968  13.778   1.511
15851SOL    HW249451  13.977  13.924   1.550
15852SOL     OW49452  13.275   6.826  13.800
15852SOL    HW149453  13.256   6.916  13.828
15852SOL    HW249454  13.195   6.777  13.822
15853SOL     OW49455   8.960  10.538  11.097
15853SOL    HW149456   8.938  10.631  11.095
15853SOL    HW249457   9.044  10.533  11.051
15854SOL     OW49458   9.790  13.043   5.547
15854SOL    HW149459   9.832  13.105   5.487
15854SOL    HW249460   9.731  12.993   5.491
15855SOL     OW49461   8.655  10.078   8.235
15855SOL    HW149462   8.647   9.994   8.280
15855SOL    HW249463   8.590  10.073   8.165
15856SOL     OW49464  10.045   7.579   0.390
15856SOL    HW149465   9.972   7.523   0.363
15856SOL    HW249466  10.022   7.608   0.478
15857SOL     OW49467   7.124   2.963   2.478
15857SOL    HW149468   7.111   3.020   2.553
15857SOL    HW249469   7.130   2.875   2.515
15858SOL     OW49470   9.646  14.522  10.603
15858SOL    HW149471   9.607  14.542  10.688
15858SOL    HW249472   9.701  14.598  10.584
15859SOL     OW49473   7.958   0.916  13.225
15859SOL    HW149474   7.962   0.861  13.303
15859SOL    HW249475   8.011   0.992  13.246
15860SOL     OW49476  13.381   7.739  12.494
15860SOL    HW149477  13.462   7.785  12.475
15860SOL    HW249478  13.321   7.807  12.525
15861SOL     OW49479   3.104  14.705  11.351
15861SOL    HW149480   3.190  14.665  11.365
15861SOL    HW249481   3.057  14.691  11.434
15862SOL     OW49482  11.684   7.478   2.620
15862SOL    HW149483  11.680   7.391   2.579
15862SOL    HW249484  11.777   7.499   2.624
15863SOL     OW49485   4.941  10.159   0.225
15863SOL    HW149486   4.869  10.198   0.177
15863SOL    HW249487   4.906  10.077   0.259
15864SOL     OW49488   4.966  14.419  10.451
15864SOL    HW149489   4.878  14.392  10.427
15864SOL    HW249490   4.953  14.495  10.508
15865SOL     OW49491   5.415  12.850   6.642
15865SOL    HW149492   5.390  12.758   6.633
15865SOL    HW249493   5.403  12.869   6.735
15866SOL     OW49494  14.095  10.056  14.772
15866SOL    HW149495  14.189  10.050  14.789
15866SOL    HW249496  14.063  10.116  14.839
15867SOL     OW49497   3.492  10.067   8.675
15867SOL    HW149498   3.511  10.007   8.747
15867SOL    HW249499   3.531  10.150   8.701
15868SOL     OW49500   1.609  10.647   8.530
15868SOL    HW149501   1.665  10.627   8.456
15868SOL    HW249502   1.575  10.735   8.511
15869SOL     OW49503  13.567  14.528   0.588
15869SOL    HW149504  13.525  14.448   0.557
15869SOL    HW249505  13.506  14.598   0.566
15870SOL     OW49506   5.678  13.120   3.063
15870SOL    HW149507   5.732  13.045   3.085
15870SOL    HW249508   5.726  13.195   3.098
15871SOL     OW49509  14.570   3.166   5.509
15871SOL    HW149510  14.563   3.258   5.533
15871SOL    HW249511  14.572   3.166   5.413
15872SOL     OW49512   4.205  12.567   8.218
15872SOL    HW149513   4.261  12.645   8.217
15872SOL    HW249514   4.194  12.546   8.310
15873SOL     OW49515   2.503  13.869   1.245
15873SOL    HW149516   2.509  13.887   1.151
15873SOL    HW249517   2.547  13.784   1.256
15874SOL     OW49518   6.693  10.774  12.915
15874SOL    HW149519   6.649  10.780  12.830
15874SOL    HW249520   6.633  10.722  12.969
15875SOL     OW49521  10.557   5.340   0.196
15875SOL    HW149522  10.548   5.246   0.208
15875SOL    HW249523  10.644   5.361   0.229
15876SOL     OW49524  11.766   5.483   8.115
15876SOL    HW149525  11.842   5.466   8.059
15876SOL    HW249526  11.781   5.572   8.148
15877SOL     OW49527   9.865   2.390   0.743
15877SOL    HW149528   9.959   2.389   0.765
15877SOL    HW249529   9.833   2.305   0.773
15878SOL     OW49530   7.354   1.932   2.683
15878SOL    HW149531   7.360   1.921   2.588
15878SOL    HW249532   7.444   1.934   2.713
15879SOL     OW49533   8.281  12.927   2.466
15879SOL    HW149534   8.201  12.979   2.473
15879SOL    HW249535   8.297  12.920   2.371
15880SOL     OW49536  11.425   0.460  14.143
15880SOL    HW149537  11.497   0.522  14.155
15880SOL    HW249538  11.468   0.381  14.109
15881SOL     OW49539  12.791  11.062   9.630
15881SOL    HW149540  12.802  11.148   9.669
15881SOL    HW249541  12.814  11.074   9.537
15882SOL     OW49542   5.556   5.990   4.079
15882SOL    HW149543   5.484   5.951   4.029
15882SOL    HW249544   5.554   6.083   4.057
15883SOL     OW49545  12.550   3.488  10.900
15883SOL    HW149546  12.608   3.494  10.975
15883SOL    HW249547  12.599   3.530  10.829
15884SOL     OW49548  12.014  10.398   2.044
15884SOL    HW149549  12.043  10.325   2.098
15884SOL    HW249550  11.938  10.433   2.090
15885SOL     OW49551   8.242   4.168  11.786
15885SOL    HW149552   8.265   4.198  11.698
15885SOL    HW249553   8.181   4.095  11.771
15886SOL     OW49554   0.439  13.794   5.636
15886SOL    HW149555   0.456  13.877   5.592
15886SOL    HW249556   0.344  13.783   5.632
15887SOL     OW49557   2.119  11.046   5.219
15887SOL    HW149558   2.095  11.011   5.134
15887SOL    HW249559   2.043  11.029   5.275
15888SOL     OW49560   2.284   4.105   3.855
15888SOL    HW149561   2.272   4.120   3.762
15888SOL    HW249562   2.207   4.055   3.881
15889SOL     OW49563   7.978  13.876   8.431
15889SOL    HW149564   8.058  13.828   8.408
15889SOL    HW249565   7.948  13.835   8.512
15890SOL     OW49566  13.220   3.041   8.563
15890SOL    HW149567  13.228   2.948   8.583
15890SOL    HW249568  13.233   3.046   8.469
15891SOL     OW49569   0.648   1.752   1.102
15891SOL    HW149570   0.569   1.788   1.143
15891SOL    HW249571   0.659   1.666   1.143
15892SOL     OW49572   0.402   3.008   3.220
15892SOL    HW149573   0.487   3.051   3.222
15892SOL    HW249574   0.417   2.924   3.264
15893SOL     OW49575   4.783   0.813   5.793
15893SOL    HW149576   4.727   0.762   5.851
15893SOL    HW249577   4.836   0.748   5.747
15894SOL     OW49578   8.579   7.263   0.705
15894SOL    HW149579   8.669   7.234   0.715
15894SOL    HW249580   8.580   7.356   0.728
15895SOL     OW49581  11.890  12.965   8.839
15895SOL    HW149582  11.981  12.968   8.870
15895SOL    HW249583  11.882  12.878   8.799
15896SOL     OW49584   9.115   8.717   7.688
15896SOL    HW149585   9.082   8.734   7.776
15896SOL    HW249586   9.104   8.800   7.642
15897SOL     OW49587  14.767   3.441  11.753
15897SOL    HW149588  14.761   3.499  11.677
15897SOL    HW249589  14.677   3.426  11.779
15898SOL     OW49590   2.202   2.622  13.934
15898SOL    HW149591   2.186   2.631  14.028
15898SOL    HW249592   2.183   2.530  13.915
15899SOL     OW49593  14.330   4.903   3.506
15899SOL    HW149594  14.247   4.879   3.547
15899SOL    HW249595  14.375   4.956   3.572
15900SOL     OW49596   9.114  10.917   5.750
15900SOL    HW149597   9.141  11.006   5.727
15900SOL    HW249598   9.196  10.871   5.765
15901SOL     OW49599   2.489   1.661  10.553
15901SOL    HW149600   2.576   1.662  10.513
15901SOL    HW249601   2.428   1.651  10.480
15902SOL     OW49602  11.488   9.213   6.074
15902SOL    HW149603  11.448   9.287   6.029
15902SOL    HW249604  11.416   9.152   6.089
15903SOL     OW49605   8.348   9.154  10.613
15903SOL    HW149606   8.328   9.183  10.702
15903SOL    HW249607   8.412   9.218  10.581
15904SOL     OW49608   5.407   0.373  11.514
15904SOL    HW149609   5.470   0.443  11.535
15904SOL    HW249610   5.331   0.393  11.569
15905SOL     OW49611   0.998   2.319   2.574
15905SOL    HW149612   0.976   2.229   2.546
15905SOL    HW249613   0.973   2.322   2.666
15906SOL     OW49614   5.006  13.186  10.077
15906SOL    HW149615   4.963  13.266  10.049
15906SOL    HW249616   5.068  13.214  10.144
15907SOL     OW49617   0.340  14.606   0.160
15907SOL    HW149618   0.391  14.597   0.240
15907SOL    HW249619   0.252  14.628   0.189
15908SOL     OW49620  10.492  12.416  11.938
15908SOL    HW149621  10.498  12.510  11.918
15908SOL    HW249622  10.496  12.373  11.853
15909SOL     OW49623   7.214  12.550   3.321
15909SOL    HW149624   7.293  12.602   3.308
15909SOL    HW249625   7.232  12.468   3.275
15910SOL     OW49626   6.047   1.863  13.636
15910SOL    HW149627   6.123   1.851  13.579
15910SOL    HW249628   6.083   1.862  13.724
15911SOL     OW49629  11.841  10.669   3.476
15911SOL    HW149630  11.889  10.714   3.545
15911SOL    HW249631  11.839  10.577   3.504
15912SOL     OW49632  11.751   1.510   7.686
15912SOL    HW149633  11.842   1.499   7.711
15912SOL    HW249634  11.741   1.604   7.671
15913SOL     OW49635   6.789   1.219  14.291
15913SOL    HW149636   6.815   1.234  14.200
15913SOL    HW249637   6.721   1.285  14.308
15914SOL     OW49638  10.818   6.782  12.966
15914SOL    HW149639  10.872   6.758  13.040
15914SOL    HW249640  10.870   6.847  12.918
15915SOL     OW49641  12.247  14.491  10.274
15915SOL    HW149642  12.157  14.469  10.251
15915SOL    HW249643  12.292  14.407  10.276
15916SOL     OW49644   2.311   6.012   4.085
15916SOL    HW149645   2.279   5.986   3.998
15916SOL    HW249646   2.358   6.094   4.070
15917SOL     OW49647   0.193   2.567   8.242
15917SOL    HW149648   0.203   2.648   8.193
15917SOL    HW249649   0.101   2.566   8.268
15918SOL     OW49650  13.389   9.435  10.241
15918SOL    HW149651  13.442   9.454  10.164
15918SOL    HW249652  13.405   9.343  10.260
15919SOL     OW49653  13.871   4.171   6.532
15919SOL    HW149654  13.845   4.132   6.616
15919SOL    HW249655  13.883   4.096   6.473
15920SOL     OW49656  11.390   7.750   6.669
15920SOL    HW149657  11.457   7.683   6.678
15920SOL    HW249658  11.431   7.830   6.700
15921SOL     OW49659  12.626   7.910   5.819
15921SOL    HW149660  12.584   7.995   5.827
15921SOL    HW249661  12.688   7.908   5.892
15922SOL     OW49662   2.330  11.510  14.073
15922SOL    HW149663   2.373  11.463  14.144
15922SOL    HW249664   2.382  11.590  14.062
15923SOL     OW49665  13.576  12.684   8.013
15923SOL    HW149666  13.566  12.624   7.939
15923SOL    HW249667  13.497  12.669   8.066
15924SOL     OW49668  12.953   7.750   5.614
15924SOL    HW149669  12.893   7.817   5.581
15924SOL    HW249670  12.918   7.667   5.581
15925SOL     OW49671  13.989   8.452   0.918
15925SOL    HW149672  14.009   8.527   0.863
15925SOL    HW249673  13.962   8.489   1.002
15926SOL     OW49674   6.198   5.951   3.422
15926SOL    HW149675   6.111   5.918   3.403
15926SOL    HW249676   6.212   6.022   3.359
15927SOL     OW49677   8.833   1.241  12.911
15927SOL    HW149678   8.889   1.273  12.840
15927SOL    HW249679   8.894   1.204  12.975
15928SOL     OW49680  11.856  11.538  10.427
15928SOL    HW149681  11.843  11.484  10.350
15928SOL    HW249682  11.946  11.571  10.419
15929SOL     OW49683  12.811   0.654  11.734
15929SOL    HW149684  12.900   0.632  11.710
15929SOL    HW249685  12.769   0.570  11.753
15930SOL     OW49686   4.846  11.785   6.310
15930SOL    HW149687   4.790  11.719   6.270
15930SOL    HW249688   4.923  11.736   6.340
15931SOL     OW49689  11.740   9.206  11.939
15931SOL    HW149690  11.652   9.233  11.965
15931SOL    HW249691  11.760   9.131  11.995
15932SOL     OW49692   5.022   1.255   8.575
15932SOL    HW149693   4.996   1.346   8.567
15932SOL    HW249694   4.969   1.220   8.646
15933SOL     OW49695  13.952   6.617   0.305
15933SOL    HW149696  13.966   6.704   0.266
15933SOL    HW249697  13.967   6.630   0.399
15934SOL     OW49698   7.695  13.142   0.361
15934SOL    HW149699   7.747  13.177   0.434
15934SOL    HW249700   7.725  13.191   0.285
15935SOL     OW49701  11.268  11.376   4.145
15935SOL    HW149702  11.225  11.451   4.104
15935SOL    HW249703  11.210  11.352   4.217
15936SOL     OW49704  11.343   9.272  14.207
15936SOL    HW149705  11.361   9.357  14.247
15936SOL    HW249706  11.429   9.240  14.179
15937SOL     OW49707   6.314   8.562  12.699
15937SOL    HW149708   6.272   8.489  12.743
15937SOL    HW249709   6.242   8.614  12.664
15938SOL     OW49710  10.539  14.389  13.783
15938SOL    HW149711  10.511  14.331  13.854
15938SOL    HW249712  10.628  14.362  13.763
15939SOL     OW49713   0.365   3.519   3.067
15939SOL    HW149714   0.304   3.592   3.053
15939SOL    HW249715   0.451   3.562   3.077
15940SOL     OW49716  12.314   7.045  10.781
15940SOL    HW149717  12.286   7.071  10.869
15940SOL    HW249718  12.234   7.012  10.740
15941SOL     OW49719   9.514   7.295  11.046
15941SOL    HW149720   9.515   7.238  10.969
15941SOL    HW249721   9.546   7.380  11.013
15942SOL     OW49722   3.054   5.985   1.320
15942SOL    HW149723   3.021   5.906   1.277
15942SOL    HW249724   2.993   6.001   1.392
15943SOL     OW49725   7.501   0.835  13.159
15943SOL    HW149726   7.435   0.779  13.199
15943SOL    HW249727   7.460   0.922  13.155
15944SOL     OW49728   8.142   4.261   7.673
15944SOL    HW149729   8.144   4.343   7.624
15944SOL    HW249730   8.184   4.282   7.757
15945SOL     OW49731   2.668  10.899   1.250
15945SOL    HW149732   2.652  10.880   1.343
15945SOL    HW249733   2.708  10.819   1.215
15946SOL     OW49734  13.462   2.212   9.488
15946SOL    HW149735  13.405   2.141   9.515
15946SOL    HW249736  13.508   2.238   9.568
15947SOL     OW49737   7.818   9.568  12.628
15947SOL    HW149738   7.878   9.639  12.653
15947SOL    HW249739   7.852   9.491  12.674
15948SOL     OW49740   1.654   1.741   9.521
15948SOL    HW149741   1.730   1.776   9.568
15948SOL    HW249742   1.690   1.672   9.466
15949SOL     OW49743  10.219  10.905   3.661
15949SOL    HW149744  10.137  10.859   3.643
15949SOL    HW249745  10.191  10.986   3.704
15950SOL     OW49746   3.942  14.621   0.916
15950SOL    HW149747   3.884  14.568   0.971
15950SOL    HW249748   3.898  14.705   0.909
15951SOL     OW49749   5.153   0.871   7.375
15951SOL    HW149750   5.221   0.937   7.367
15951SOL    HW249751   5.076   0.919   7.405
15952SOL     OW49752   5.874   0.466   6.233
15952SOL    HW149753   5.909   0.553   6.216
15952SOL    HW249754   5.951   0.414   6.259
15953SOL     OW49755  13.069  14.816   4.340
15953SOL    HW149756  13.121   0.026   4.346
15953SOL    HW249757  12.984  14.846   4.306
15954SOL     OW49758   4.421   8.160  11.030
15954SOL    HW149759   4.339   8.137  10.986
15954SOL    HW249760   4.483   8.175  10.959
15955SOL     OW49761   6.363   4.927   8.652
15955SOL    HW149762   6.453   4.933   8.684
15955SOL    HW249763   6.356   4.998   8.588
15956SOL     OW49764   5.336  11.961  13.413
15956SOL    HW149765   5.325  11.899  13.486
15956SOL    HW249766   5.430  11.958  13.393
15957SOL     OW49767   5.876   3.253   0.741
15957SOL    HW149768   5.918   3.276   0.658
15957SOL    HW249769   5.782   3.262   0.724
15958SOL     OW49770   7.968   8.058  13.693
15958SOL    HW149771   7.920   8.129  13.735
15958SOL    HW249772   8.043   8.100  13.652
15959SOL     OW49773   8.843   4.157   2.253
15959SOL    HW149774   8.760   4.119   2.281
15959SOL    HW249775   8.910   4.109   2.301
15960SOL     OW49776   2.233  14.236  10.954
15960SOL    HW149777   2.164  14.226  10.889
15960SOL    HW249778   2.206  14.179  11.026
15961SOL     OW49779  11.710   1.388  12.913
15961SOL    HW149780  11.742   1.438  12.988
15961SOL    HW249781  11.784   1.387  12.852
15962SOL     OW49782   4.837  12.597   9.897
15962SOL    HW149783   4.815  12.589   9.804
15962SOL    HW249784   4.759  12.636   9.937
15963SOL     OW49785   5.947   5.600   9.201
15963SOL    HW149786   5.972   5.555   9.120
15963SOL    HW249787   5.925   5.689   9.173
15964SOL     OW49788  12.518   6.245   9.737
15964SOL    HW149789  12.565   6.315   9.692
15964SOL    HW249790  12.586   6.194   9.781
15965SOL     OW49791   2.418   0.683   0.524
15965SOL    HW149792   2.496   0.674   0.578
15965SOL    HW249793   2.448   0.730   0.446
15966SOL     OW49794   2.199   0.790   6.116
15966SOL    HW149795   2.128   0.822   6.172
15966SOL    HW249796   2.162   0.714   6.071
15967SOL     OW49797   5.455   5.119   2.958
15967SOL    HW149798   5.476   5.182   2.889
15967SOL    HW249799   5.359   5.122   2.965
15968SOL     OW49800   3.069  11.016  14.213
15968SOL    HW149801   3.022  10.933  14.219
15968SOL    HW249802   3.000  11.082  14.201
15969SOL     OW49803  11.553  11.408   9.908
15969SOL    HW149804  11.497  11.451   9.972
15969SOL    HW249805  11.635  11.457   9.912
15970SOL     OW49806  14.270   8.715   2.616
15970SOL    HW149807  14.202   8.768   2.658
15970SOL    HW249808  14.226   8.673   2.542
15971SOL     OW49809   8.326   0.136  13.603
15971SOL    HW149810   8.249   0.082  13.585
15971SOL    HW249811   8.291   0.224  13.618
15972SOL     OW49812  12.755   7.840   6.059
15972SOL    HW149813  12.809   7.846   6.137
15972SOL    HW249814  12.703   7.760   6.072
15973SOL     OW49815  12.399   2.367   9.849
15973SOL    HW149816  12.309   2.380   9.880
15973SOL    HW249817  12.422   2.279   9.878
15974SOL     OW49818   5.833   6.123   3.761
15974SOL    HW149819   5.907   6.164   3.806
15974SOL    HW249820   5.788   6.196   3.718
15975SOL     OW49821  14.612   9.682  12.993
15975SOL    HW149822  14.605   9.606  12.935
15975SOL    HW249823  14.538   9.672  13.054
15976SOL     OW49824  13.998   1.184   6.819
15976SOL    HW149825  13.987   1.201   6.913
15976SOL    HW249826  13.965   1.095   6.807
15977SOL     OW49827  10.607  11.886   2.447
15977SOL    HW149828  10.663  11.883   2.369
15977SOL    HW249829  10.665  11.867   2.520
15978SOL     OW49830  12.346  14.340   8.563
15978SOL    HW149831  12.319  14.308   8.649
15978SOL    HW249832  12.294  14.419   8.549
15979SOL     OW49833   7.401  10.788  11.884
15979SOL    HW149834   7.475  10.776  11.824
15979SOL    HW249835   7.395  10.706  11.932
15980SOL     OW49836   4.365   0.781   1.025
15980SOL    HW149837   4.419   0.739   1.091
15980SOL    HW249838   4.426   0.806   0.955
15981SOL     OW49839  13.552  11.285  11.376
15981SOL    HW149840  13.484  11.292  11.442
15981SOL    HW249841  13.552  11.370  11.332
15982SOL     OW49842   6.149   8.500   3.652
15982SOL    HW149843   6.219   8.525   3.590
15982SOL    HW249844   6.076   8.557   3.629
15983SOL     OW49845   8.877  11.937  10.675
15983SOL    HW149846   8.864  11.909  10.766
15983SOL    HW249847   8.921  11.863  10.634
15984SOL     OW49848  10.532  14.167   6.168
15984SOL    HW149849  10.473  14.096   6.140
15984SOL    HW249850  10.516  14.177   6.261
15985SOL     OW49851  10.570   2.181  12.886
15985SOL    HW149852  10.593   2.117  12.819
15985SOL    HW249853  10.623   2.157  12.962
15986SOL     OW49854   1.801  11.597  14.671
15986SOL    HW149855   1.747  11.523  14.643
15986SOL    HW249856   1.838  11.568  14.755
15987SOL     OW49857   8.460   6.851   5.864
15987SOL    HW149858   8.456   6.806   5.948
15987SOL    HW249859   8.378   6.828   5.820
15988SOL     OW49860   7.358   9.481   7.681
15988SOL    HW149861   7.448   9.454   7.699
15988SOL    HW249862   7.328   9.521   7.763
15989SOL     OW49863   3.244   8.025   1.458
15989SOL    HW149864   3.158   8.025   1.501
15989SOL    HW249865   3.265   7.932   1.446
15990SOL     OW49866   4.936   2.302  13.429
15990SOL    HW149867   4.967   2.212  13.415
15990SOL    HW249868   4.967   2.324  13.516
15991SOL     OW49869   5.459   3.295   4.403
15991SOL    HW149870   5.407   3.228   4.447
15991SOL    HW249871   5.446   3.374   4.455
15992SOL     OW49872  11.529   4.661   9.124
15992SOL    HW149873  11.573   4.744   9.107
15992SOL    HW249874  11.513   4.660   9.218
15993SOL     OW49875  13.301   5.588   9.709
15993SOL    HW149876  13.354   5.665   9.732
15993SOL    HW249877  13.306   5.584   9.613
15994SOL     OW49878   8.975  14.862   9.345
15994SOL    HW149879   8.989  14.783   9.398
15994SOL    HW249880   8.946   0.059   9.408
15995SOL     OW49881  11.956   2.952   9.189
15995SOL    HW149882  11.904   2.965   9.269
15995SOL    HW249883  12.040   2.918   9.221
15996SOL     OW49884   3.416  13.003  14.758
15996SOL    HW149885   3.448  12.942  14.825
15996SOL    HW249886   3.342  13.047  14.799
15997SOL     OW49887  12.297   9.231   1.202
15997SOL    HW149888  12.230   9.210   1.136
15997SOL    HW249889  12.258   9.301   1.254
15998SOL     OW49890   2.410  12.756  10.091
15998SOL    HW149891   2.317  12.777  10.096
15998SOL    HW249892   2.446  12.822  10.033
15999SOL     OW49893   4.130   4.274   6.033
15999SOL    HW149894   4.060   4.209   6.041
15999SOL    HW249895   4.085   4.358   6.028
16000SOL     OW49896   1.461  14.521   0.432
16000SOL    HW149897   1.429  14.607   0.460
16000SOL    HW249898   1.438  14.515   0.340
16001SOL     OW49899  14.522  13.735   3.571
16001SOL    HW149900  14.476  13.724   3.655
16001SOL    HW249901  14.453  13.729   3.505
16002SOL     OW49902  11.478   5.609   3.155
16002SOL    HW149903  11.398   5.599   3.207
16002SOL    HW249904  11.504   5.519   3.135
16003SOL     OW49905   8.516  11.024  10.655
16003SOL    HW149906   8.611  11.029  10.637
16003SOL    HW249907   8.503  10.938  10.694
16004SOL     OW49908   1.789  14.553  14.196
16004SOL    HW149909   1.747  14.626  14.243
16004SOL    HW249910   1.819  14.494  14.265
16005SOL     OW49911  14.673   7.069   1.295
16005SOL    HW149912  14.692   6.983   1.259
16005SOL    HW249913  14.609   7.054   1.364
16006SOL     OW49914  10.898   8.556   2.085
16006SOL    HW149915  10.941   8.639   2.104
16006SOL    HW249916  10.892   8.553   1.990
16007SOL     OW49917   0.988  11.765   8.939
16007SOL    HW149918   0.945  11.791   8.858
16007SOL    HW249919   0.989  11.845   8.992
16008SOL     OW49920   6.229   4.245   0.500
16008SOL    HW149921   6.311   4.217   0.541
16008SOL    HW249922   6.251   4.326   0.454
16009SOL     OW49923  14.337   6.769  11.217
16009SOL    HW149924  14.346   6.851  11.266
16009SOL    HW249925  14.338   6.796  11.125
16010SOL     OW49926   7.590  10.708   3.297
16010SOL    HW149927   7.499  10.737   3.308
16010SOL    HW249928   7.615  10.675   3.383
16011SOL     OW49929  14.437  13.128   6.957
16011SOL    HW149930  14.476  13.194   6.900
16011SOL    HW249931  14.452  13.045   6.911
16012SOL     OW49932   2.795   0.420   5.436
16012SOL    HW149933   2.885   0.388   5.430
16012SOL    HW249934   2.799   0.491   5.500
16013SOL     OW49935   2.634   2.441   2.708
16013SOL    HW149936   2.630   2.361   2.761
16013SOL    HW249937   2.674   2.506   2.765
16014SOL     OW49938   5.377   1.814   2.697
16014SOL    HW149939   5.364   1.745   2.762
16014SOL    HW249940   5.369   1.769   2.613
16015SOL     OW49941   1.558   0.992   4.835
16015SOL    HW149942   1.606   0.937   4.897
16015SOL    HW249943   1.546   0.937   4.758
16016SOL     OW49944   9.110   9.820   4.086
16016SOL    HW149945   9.202   9.794   4.091
16016SOL    HW249946   9.067   9.765   4.152
16017SOL     OW49947  11.732   7.906   4.098
16017SOL    HW149948  11.814   7.867   4.129
16017SOL    HW249949  11.753   7.999   4.086
16018SOL     OW49950  11.029   0.333  14.635
16018SOL    HW149951  11.085   0.308  14.561
16018SOL    HW249952  10.941   0.306  14.608
16019SOL     OW49953   6.629  11.011   1.449
16019SOL    HW149954   6.690  11.078   1.481
16019SOL    HW249955   6.674  10.972   1.374
16020SOL     OW49956   7.377   2.134   0.047
16020SOL    HW149957   7.377   2.084  14.835
16020SOL    HW249958   7.321   2.084   0.106
16021SOL     OW49959  13.017   8.703   9.659
16021SOL    HW149960  13.089   8.708   9.722
16021SOL    HW249961  12.989   8.612   9.663
16022SOL     OW49962   2.626   3.980   7.931
16022SOL    HW149963   2.671   3.993   8.014
16022SOL    HW249964   2.598   3.888   7.934
16023SOL     OW49965   0.267   7.402  12.126
16023SOL    HW149966   0.351   7.360  12.108
16023SOL    HW249967   0.276   7.435  12.215
16024SOL     OW49968  13.508   0.413   5.381
16024SOL    HW149969  13.549   0.406   5.294
16024SOL    HW249970  13.414   0.416   5.362
16025SOL     OW49971   7.613  12.346  10.410
16025SOL    HW149972   7.546  12.342  10.478
16025SOL    HW249973   7.696  12.329  10.456
16026SOL     OW49974   5.416   8.055  13.400
16026SOL    HW149975   5.503   8.085  13.374
16026SOL    HW249976   5.419   7.960  13.388
16027SOL     OW49977   5.886   2.035   7.998
16027SOL    HW149978   5.967   2.086   8.000
16027SOL    HW249979   5.843   2.054   8.081
16028SOL     OW49980  14.803  14.397  14.572
16028SOL    HW149981  14.737  14.453  14.613
16028SOL    HW249982  14.753  14.323  14.537
16029SOL     OW49983  14.867   5.839   0.926
16029SOL    HW149984   0.029   5.921   0.888
16029SOL    HW249985   0.001   5.853   1.020
16030SOL     OW49986   4.866  13.281   4.024
16030SOL    HW149987   4.937  13.266   4.086
16030SOL    HW249988   4.906  13.330   3.952
16031SOL     OW49989   3.414  14.158   1.987
16031SOL    HW149990   3.367  14.221   2.041
16031SOL    HW249991   3.401  14.074   2.032
16032SOL     OW49992   3.626   4.801  14.348
16032SOL    HW149993   3.631   4.893  14.376
16032SOL    HW249994   3.670   4.800  14.263
16033SOL     OW49995   8.108   5.190   4.992
16033SOL    HW149996   8.123   5.280   4.965
16033SOL    HW249997   8.074   5.196   5.081
16034SOL     OW49998   2.875   5.248  13.545
16034SOL    HW149999   2.824   5.236  13.625
16034SOL    HW250000   2.814   5.226  13.474
16035SOL     OW50001   2.380  13.164   8.073
16035SOL    HW150002   2.399  13.250   8.034
16035SOL    HW250003   2.311  13.128   8.017
16036SOL     OW50004  10.586   3.686  14.246
16036SOL    HW150005  10.623   3.769  14.216
16036SOL    HW250006  10.587   3.630  14.168
16037SOL     OW50007  14.151  12.602  11.930
16037SOL    HW150008  14.165  12.509  11.916
16037SOL    HW250009  14.056  12.611  11.941
16038SOL     OW50010   6.557  14.363   1.619
16038SOL    HW150011   6.520  14.297   1.559
16038SOL    HW250012   6.641  14.325   1.645
16039SOL     OW50013   0.303  12.115   3.770
16039SOL    HW150014   0.314  12.194   3.716
16039SOL    HW250015   0.214  12.085   3.751
16040SOL     OW50016  11.964  13.592   5.137
16040SOL    HW150017  11.901  13.520   5.146
16040SOL    HW250018  11.950  13.647   5.214
16041SOL     OW50019   4.846   8.363  12.518
16041SOL    HW150020   4.807   8.357  12.430
16041SOL    HW250021   4.778   8.330  12.576
16042SOL     OW50022   2.888  13.119   8.098
16042SOL    HW150023   2.838  13.103   8.019
16042SOL    HW250024   2.945  13.193   8.077
16043SOL     OW50025   6.756  10.453  11.051
16043SOL    HW150026   6.731  10.496  11.132
16043SOL    HW250027   6.851  10.466  11.045
16044SOL     OW50028   9.323  13.225   0.473
16044SOL    HW150029   9.370  13.273   0.540
16044SOL    HW250030   9.384  13.158   0.443
16045SOL     OW50031   1.539  14.391   3.442
16045SOL    HW150032   1.474  14.337   3.486
16045SOL    HW250033   1.513  14.389   3.350
16046SOL     OW50034  13.333   5.670   5.313
16046SOL    HW150035  13.417   5.688   5.271
16046SOL    HW250036  13.271   5.726   5.267
16047SOL     OW50037   3.035  11.547   0.715
16047SOL    HW150038   3.056  11.521   0.805
16047SOL    HW250039   2.950  11.589   0.721
16048SOL     OW50040   1.431   7.623   9.550
16048SOL    HW150041   1.474   7.537   9.545
16048SOL    HW250042   1.501   7.684   9.572
16049SOL     OW50043  13.995   1.703   2.576
16049SOL    HW150044  13.976   1.777   2.633
16049SOL    HW250045  14.075   1.664   2.612
16050SOL     OW50046   4.039   3.691   4.162
16050SOL    HW150047   4.103   3.622   4.178
16050SOL    HW250048   4.091   3.763   4.126
16051SOL     OW50049   8.831   1.753  13.460
16051SOL    HW150050   8.762   1.686  13.458
16051SOL    HW250051   8.798   1.820  13.520
16052SOL     OW50052   7.726   5.513  13.249
16052SOL    HW150053   7.790   5.462  13.300
16052SOL    HW250054   7.680   5.448  13.197
16053SOL     OW50055   0.763   1.953   0.581
16053SOL    HW150056   0.789   1.964   0.672
16053SOL    HW250057   0.668   1.956   0.582
16054SOL     OW50058   0.406  11.176  10.392
16054SOL    HW150059   0.475  11.169  10.458
16054SOL    HW250060   0.345  11.106  10.414
16055SOL     OW50061   8.529   7.021   1.129
16055SOL    HW150062   8.592   7.079   1.172
16055SOL    HW250063   8.476   6.985   1.201
16056SOL     OW50064  10.358  13.832   2.868
16056SOL    HW150065  10.356  13.751   2.817
16056SOL    HW250066  10.436  13.825   2.922
16057SOL     OW50067   7.646  12.813   2.155
16057SOL    HW150068   7.590  12.747   2.114
16057SOL    HW250069   7.654  12.785   2.246
16058SOL     OW50070   1.748   1.977  11.708
16058SOL    HW150071   1.718   2.000  11.620
16058SOL    HW250072   1.843   1.988  11.704
16059SOL     OW50073   6.809   2.973   2.572
16059SOL    HW150074   6.832   3.065   2.583
16059SOL    HW250075   6.834   2.953   2.482
16060SOL     OW50076   2.817   0.363   9.999
16060SOL    HW150077   2.858   0.288  10.041
16060SOL    HW250078   2.890   0.417   9.969
16061SOL     OW50079   8.675   3.127   7.384
16061SOL    HW150080   8.746   3.173   7.339
16061SOL    HW250081   8.721   3.072   7.448
16062SOL     OW50082   8.619   7.163   4.624
16062SOL    HW150083   8.592   7.117   4.544
16062SOL    HW250084   8.675   7.101   4.670
16063SOL     OW50085   1.331  14.423  14.187
16063SOL    HW150086   1.274  14.354  14.156
16063SOL    HW250087   1.420  14.388  14.176
16064SOL     OW50088   1.368   4.975   6.811
16064SOL    HW150089   1.330   4.989   6.898
16064SOL    HW250090   1.351   5.057   6.765
16065SOL     OW50091  14.621   9.432   7.974
16065SOL    HW150092  14.649   9.519   7.944
16065SOL    HW250093  14.667   9.371   7.918
16066SOL     OW50094  10.958  12.917   9.946
16066SOL    HW150095  10.966  12.848  10.011
16066SOL    HW250096  10.869  12.950   9.957
16067SOL     OW50097  11.107   4.623   1.340
16067SOL    HW150098  11.186   4.675   1.324
16067SOL    HW250099  11.137   4.532   1.333
16068SOL     OW50100   7.111  14.716   2.295
16068SOL    HW150101   7.182  14.658   2.323
16068SOL    HW250102   7.111  14.710   2.199
16069SOL     OW50103  12.875   5.834   0.390
16069SOL    HW150104  12.908   5.852   0.302
16069SOL    HW250105  12.783   5.812   0.377
16070SOL     OW50106  12.757   2.992   9.127
16070SOL    HW150107  12.665   3.013   9.108
16070SOL    HW250108  12.797   2.982   9.040
16071SOL     OW50109  14.785  11.430   0.603
16071SOL    HW150110  14.804  11.341   0.632
16071SOL    HW250111  14.756  11.475   0.682
16072SOL     OW50112  12.640   0.490  11.321
16072SOL    HW150113  12.597   0.417  11.365
16072SOL    HW250114  12.573   0.558  11.316
16073SOL     OW50115   0.360   0.136   0.793
16073SOL    HW150116   0.333   0.223   0.820
16073SOL    HW250117   0.447   0.148   0.756
16074SOL     OW50118   8.867   2.241  13.828
16074SOL    HW150119   8.846   2.151  13.855
16074SOL    HW250120   8.928   2.272  13.894
16075SOL     OW50121   9.260   7.473   5.383
16075SOL    HW150122   9.217   7.489   5.466
16075SOL    HW250123   9.353   7.470   5.405
16076SOL     OW50124   3.316  10.390  13.665
16076SOL    HW150125   3.314  10.425  13.576
16076SOL    HW250126   3.286  10.299  13.657
16077SOL     OW50127  14.317   4.001   0.991
16077SOL    HW150128  14.353   4.084   1.024
16077SOL    HW250129  14.350   3.935   1.052
16078SOL     OW50130   3.609   8.011   8.531
16078SOL    HW150131   3.545   7.974   8.591
16078SOL    HW250132   3.557   8.047   8.459
16079SOL     OW50133   4.086   0.037   2.322
16079SOL    HW150134   4.003   0.057   2.365
16079SOL    HW250135   4.134   0.121   2.323
16080SOL     OW50136   8.948   2.311   6.084
16080SOL    HW150137   8.930   2.380   6.148
16080SOL    HW250138   9.028   2.338   6.040
16081SOL     OW50139   5.595   3.867   5.552
16081SOL    HW150140   5.528   3.799   5.551
16081SOL    HW250141   5.575   3.920   5.629
16082SOL     OW50142   4.878   1.758   4.087
16082SOL    HW150143   4.904   1.734   4.176
16082SOL    HW250144   4.828   1.839   4.098
16083SOL     OW50145   4.558   4.668   5.036
16083SOL    HW150146   4.643   4.645   5.073
16083SOL    HW250147   4.562   4.637   4.946
16084SOL     OW50148   7.656  10.774   1.335
16084SOL    HW150149   7.565  10.748   1.324
16084SOL    HW250150   7.702  10.692   1.354
16085SOL     OW50151   8.995  13.339   1.973
16085SOL    HW150152   9.003  13.357   1.879
16085SOL    HW250153   9.069  13.385   2.012
16086SOL     OW50154   5.750   2.431   9.059
16086SOL    HW150155   5.698   2.357   9.029
16086SOL    HW250156   5.836   2.420   9.017
16087SOL     OW50157   5.239   1.470  13.804
16087SOL    HW150158   5.206   1.550  13.845
16087SOL    HW250159   5.182   1.400  13.837
16088SOL     OW50160  12.527   6.919   0.811
16088SOL    HW150161  12.506   7.012   0.808
16088SOL    HW250162  12.614   6.913   0.772
16089SOL     OW50163   1.078   0.332   2.422
16089SOL    HW150164   0.996   0.381   2.411
16089SOL    HW250165   1.050   0.244   2.449
16090SOL     OW50166  14.123   0.365  11.864
16090SOL    HW150167  14.160   0.454  11.869
16090SOL    HW250168  14.188   0.310  11.909
16091SOL     OW50169  13.509   6.982   0.232
16091SOL    HW150170  13.559   7.060   0.208
16091SOL    HW250171  13.526   6.971   0.326
16092SOL     OW50172   4.768   4.839  13.191
16092SOL    HW150173   4.788   4.755  13.151
16092SOL    HW250174   4.799   4.904  13.129
16093SOL     OW50175   5.056  13.610   7.457
16093SOL    HW150176   5.073  13.703   7.444
16093SOL    HW250177   5.106  13.587   7.535
16094SOL     OW50178  11.505   8.592   2.005
16094SOL    HW150179  11.569   8.569   1.937
16094SOL    HW250180  11.435   8.637   1.957
16095SOL     OW50181   3.473   6.481   9.332
16095SOL    HW150182   3.527   6.559   9.344
16095SOL    HW250183   3.451   6.454   9.421
16096SOL     OW50184  11.359   2.054  10.568
16096SOL    HW150185  11.390   1.980  10.621
16096SOL    HW250186  11.281   2.085  10.615
16097SOL     OW50187   3.486   1.059  14.815
16097SOL    HW150188   3.447   0.975  14.788
16097SOL    HW250189   3.579   1.048  14.799
16098SOL     OW50190   1.967   3.794   8.645
16098SOL    HW150191   1.943   3.839   8.563
16098SOL    HW250192   1.972   3.701   8.620
16099SOL     OW50193  10.954  10.097   6.059
16099SOL    HW150194  10.970  10.168   6.121
16099SOL    HW250195  11.038  10.051   6.053
16100SOL     OW50196  11.331   2.843   8.842
16100SOL    HW150197  11.389   2.835   8.918
16100SOL    HW250198  11.243   2.844   8.880
16101SOL     OW50199   2.477  10.339   2.477
16101SOL    HW150200   2.431  10.285   2.413
16101SOL    HW250201   2.552  10.375   2.429
16102SOL     OW50202  14.403   7.708  12.125
16102SOL    HW150203  14.366   7.795  12.114
16102SOL    HW250204  14.384   7.663  12.043
16103SOL     OW50205   7.178   2.381   8.783
16103SOL    HW150206   7.157   2.358   8.874
16103SOL    HW250207   7.134   2.465   8.769
16104SOL     OW50208  12.738  13.166  14.419
16104SOL    HW150209  12.826  13.130  14.415
16104SOL    HW250210  12.737  13.236  14.353
16105SOL     OW50211  12.397   4.602   2.444
16105SOL    HW150212  12.373   4.621   2.353
16105SOL    HW250213  12.405   4.689   2.484
16106SOL     OW50214   3.392   7.710  11.273
16106SOL    HW150215   3.477   7.685  11.307
16106SOL    HW250216   3.402   7.802  11.248
16107SOL     OW50217   6.123  12.328   1.998
16107SOL    HW150218   6.154  12.237   1.997
16107SOL    HW250219   6.038  12.324   1.953
16108SOL     OW50220   0.463   5.310  10.747
16108SOL    HW150221   0.470   5.299  10.652
16108SOL    HW250222   0.409   5.389  10.757
16109SOL     OW50223   9.503   3.011   6.655
16109SOL    HW150224   9.440   2.970   6.714
16109SOL    HW250225   9.460   3.091   6.626
16110SOL     OW50226   9.318  11.123   8.096
16110SOL    HW150227   9.224  11.142   8.104
16110SOL    HW250228   9.322  11.040   8.049
16111SOL     OW50229   4.495   4.534   0.677
16111SOL    HW150230   4.507   4.560   0.585
16111SOL    HW250231   4.572   4.570   0.721
16112SOL     OW50232   1.588   5.627  14.633
16112SOL    HW150233   1.593   5.592  14.722
16112SOL    HW250234   1.494   5.644  14.620
16113SOL     OW50235   7.250  12.416   1.428
16113SOL    HW150236   7.234  12.492   1.372
16113SOL    HW250237   7.330  12.377   1.392
16114SOL     OW50238   9.695   9.719  12.975
16114SOL    HW150239   9.660   9.751  13.058
16114SOL    HW250240   9.777   9.768  12.964
16115SOL     OW50241   2.678   7.937   5.649
16115SOL    HW150242   2.622   7.998   5.601
16115SOL    HW250243   2.689   7.863   5.589
16116SOL     OW50244  12.695   8.989   3.644
16116SOL    HW150245  12.640   9.038   3.705
16116SOL    HW250246  12.759   9.053   3.613
16117SOL     OW50247   0.120   2.311   7.585
16117SOL    HW150248   0.081   2.242   7.531
16117SOL    HW250249   0.186   2.351   7.528
16118SOL     OW50250   8.374   0.285  10.624
16118SOL    HW150251   8.306   0.264  10.689
16118SOL    HW250252   8.453   0.298  10.675
16119SOL     OW50253   5.319   9.849  11.931
16119SOL    HW150254   5.278   9.935  11.917
16119SOL    HW250255   5.409   9.861  11.903
16120SOL     OW50256   4.267  14.143   0.428
16120SOL    HW150257   4.301  14.170   0.343
16120SOL    HW250258   4.306  14.204   0.490
16121SOL     OW50259  12.546   3.992  10.247
16121SOL    HW150260  12.508   4.055  10.186
16121SOL    HW250261  12.599   4.044  10.307
16122SOL     OW50262   2.538   6.298   7.772
16122SOL    HW150263   2.561   6.349   7.850
16122SOL    HW250264   2.567   6.352   7.698
16123SOL     OW50265   0.071  12.794   3.917
16123SOL    HW150266   0.093  12.819   3.828
16123SOL    HW250267   0.012  12.863   3.948
16124SOL     OW50268  10.379   8.061   3.228
16124SOL    HW150269  10.388   8.134   3.166
16124SOL    HW250270  10.383   8.102   3.314
16125SOL     OW50271   7.369   1.076  13.075
16125SOL    HW150272   7.365   1.032  12.990
16125SOL    HW250273   7.286   1.124  13.081
16126SOL     OW50274  12.733   0.886   5.411
16126SOL    HW150275  12.798   0.931   5.465
16126SOL    HW250276  12.691   0.825   5.472
16127SOL     OW50277   3.543   7.815   1.404
16127SOL    HW150278   3.457   7.786   1.374
16127SOL    HW250279   3.528   7.848   1.492
16128SOL     OW50280   2.348   1.672   8.699
16128SOL    HW150281   2.385   1.663   8.786
16128SOL    HW250282   2.327   1.765   8.691
16129SOL     OW50283   8.420   9.966  10.129
16129SOL    HW150284   8.446   9.874  10.141
16129SOL    HW250285   8.369   9.966  10.049
16130SOL     OW50286   4.369   4.614  11.470
16130SOL    HW150287   4.374   4.581  11.380
16130SOL    HW250288   4.313   4.552  11.515
16131SOL     OW50289   1.092   9.176  12.583
16131SOL    HW150290   1.162   9.213  12.530
16131SOL    HW250291   1.043   9.252  12.614
16132SOL     OW50292   8.227  11.668   3.852
16132SOL    HW150293   8.221  11.589   3.798
16132SOL    HW250294   8.315  11.665   3.889
16133SOL     OW50295   8.125   1.315  11.874
16133SOL    HW150296   8.045   1.340  11.826
16133SOL    HW250297   8.196   1.337  11.814
16134SOL     OW50298   6.684   0.311   4.704
16134SOL    HW150299   6.766   0.262   4.695
16134SOL    HW250300   6.711   0.403   4.704
16135SOL     OW50301  13.542  12.670   2.031
16135SOL    HW150302  13.635  12.653   2.046
16135SOL    HW250303  13.541  12.734   1.959
16136SOL     OW50304   9.564   1.214   3.929
16136SOL    HW150305   9.492   1.255   3.881
16136SOL    HW250306   9.596   1.147   3.869
16137SOL     OW50307  11.963   0.520  13.786
16137SOL    HW150308  12.040   0.525  13.729
16137SOL    HW250309  11.948   0.426  13.797
16138SOL     OW50310  11.947   2.927   1.785
16138SOL    HW150311  11.878   2.900   1.724
16138SOL    HW250312  12.020   2.952   1.728
16139SOL     OW50313  12.541   3.941  13.965
16139SOL    HW150314  12.471   3.901  13.913
16139SOL    HW250315  12.608   3.873  13.972
16140SOL     OW50316   4.728   5.570  12.880
16140SOL    HW150317   4.769   5.642  12.928
16140SOL    HW250318   4.654   5.611  12.833
16141SOL     OW50319   1.690   2.049   7.315
16141SOL    HW150320   1.596   2.039   7.325
16141SOL    HW250321   1.704   2.054   7.221
16142SOL     OW50322  13.833   5.086   7.200
16142SOL    HW150323  13.743   5.070   7.171
16142SOL    HW250324  13.827   5.164   7.254
16143SOL     OW50325   6.207  12.919   9.975
16143SOL    HW150326   6.126  12.895   9.929
16143SOL    HW250327   6.272  12.857   9.943
16144SOL     OW50328  10.011  11.525   1.341
16144SOL    HW150329   9.920  11.555   1.346
16144SOL    HW250330  10.020  11.463   1.414
16145SOL     OW50331   8.477   1.095   7.450
16145SOL    HW150332   8.462   1.185   7.420
16145SOL    HW250333   8.412   1.043   7.402
16146SOL     OW50334  13.036   6.975  14.538
16146SOL    HW150335  13.066   6.935  14.456
16146SOL    HW250336  13.041   6.904  14.602
16147SOL     OW50337   9.071  12.202   2.722
16147SOL    HW150338   9.137  12.261   2.758
16147SOL    HW250339   9.018  12.176   2.798
16148SOL     OW50340  12.909  14.746  14.833
16148SOL    HW150341  12.944  14.658  14.825
16148SOL    HW250342  12.817  14.738  14.809
16149SOL     OW50343   6.304   2.072   3.859
16149SOL    HW150344   6.256   2.127   3.797
16149SOL    HW250345   6.392   2.110   3.863
16150SOL     OW50346  11.735  13.662   1.801
16150SOL    HW150347  11.818  13.662   1.850
16150SOL    HW250348  11.685  13.733   1.841
16151SOL     OW50349   6.713  13.633  11.951
16151SOL    HW150350   6.766  13.611  12.028
16151SOL    HW250351   6.772  13.621  11.877
16152SOL     OW50352   0.042   2.260   4.477
16152SOL    HW150353   0.109   2.323   4.453
16152SOL    HW250354  14.852   2.258   4.401
16153SOL     OW50355   6.424   8.144   6.330
16153SOL    HW150356   6.429   8.141   6.425
16153SOL    HW250357   6.424   8.052   6.303
16154SOL     OW50358   7.363   2.439  11.586
16154SOL    HW150359   7.305   2.449  11.661
16154SOL    HW250360   7.440   2.492  11.608
16155SOL     OW50361   6.533   9.770  12.115
16155SOL    HW150362   6.447   9.810  12.125
16155SOL    HW250363   6.520   9.678  12.139
16156SOL     OW50364   0.276   1.887   0.769
16156SOL    HW150365   0.254   1.903   0.860
16156SOL    HW250366   0.332   1.809   0.771
16157SOL     OW50367   1.368   0.161   0.521
16157SOL    HW150368   1.429   0.164   0.595
16157SOL    HW250369   1.395   0.234   0.465
16158SOL     OW50370   5.588   2.464   3.662
16158SOL    HW150371   5.503   2.431   3.633
16158SOL    HW250372   5.628   2.390   3.709
16159SOL     OW50373  10.477  13.943   4.644
16159SOL    HW150374  10.424  13.863   4.644
16159SOL    HW250375  10.478  13.970   4.552
16160SOL     OW50376   2.848   0.622   8.083
16160SOL    HW150377   2.834   0.574   8.165
16160SOL    HW250378   2.791   0.578   8.020
16161SOL     OW50379   0.615   4.596   2.880
16161SOL    HW150380   0.522   4.611   2.898
16161SOL    HW250381   0.640   4.670   2.825
16162SOL     OW50382   7.432   3.678   0.867
16162SOL    HW150383   7.500   3.732   0.905
16162SOL    HW250384   7.415   3.611   0.933
16163SOL     OW50385   7.982   7.198   6.931
16163SOL    HW150386   8.047   7.139   6.894
16163SOL    HW250387   7.901   7.176   6.885
16164SOL     OW50388  14.381   8.837   6.310
16164SOL    HW150389  14.384   8.747   6.277
16164SOL    HW250390  14.343   8.829   6.398
16165SOL     OW50391   7.691  12.546   7.215
16165SOL    HW150392   7.641  12.554   7.296
16165SOL    HW250393   7.625  12.540   7.146
16166SOL     OW50394  13.540   8.576   1.268
16166SOL    HW150395  13.495   8.656   1.293
16166SOL    HW250396  13.617   8.572   1.324
16167SOL     OW50397   1.993   0.225  14.213
16167SOL    HW150398   2.085   0.199  14.201
16167SOL    HW250399   1.949   0.146  14.245
16168SOL     OW50400   2.842  12.895   2.465
16168SOL    HW150401   2.806  12.816   2.423
16168SOL    HW250402   2.916  12.863   2.516
16169SOL     OW50403   1.587  11.725  12.264
16169SOL    HW150404   1.501  11.684  12.256
16169SOL    HW250405   1.623  11.688  12.344
16170SOL     OW50406  14.005   9.676   7.178
16170SOL    HW150407  13.982   9.743   7.241
16170SOL    HW250408  13.986   9.716   7.093
16171SOL     OW50409   3.826   1.185   0.167
16171SOL    HW150410   3.915   1.184   0.202
16171SOL    HW250411   3.774   1.139   0.233
16172SOL     OW50412  13.332  12.482   5.208
16172SOL    HW150413  13.406  12.462   5.151
16172SOL    HW250414  13.359  12.562   5.255
16173SOL     OW50415   6.258  10.736  12.050
16173SOL    HW150416   6.335  10.752  12.104
16173SOL    HW250417   6.232  10.823  12.019
16174SOL     OW50418  14.521   2.885   1.326
16174SOL    HW150419  14.556   2.929   1.249
16174SOL    HW250420  14.463   2.950   1.366
16175SOL     OW50421   6.518   4.837  11.465
16175SOL    HW150422   6.473   4.895  11.526
16175SOL    HW250423   6.448   4.784  11.427
16176SOL     OW50424   1.243   2.210  13.266
16176SOL    HW150425   1.297   2.267  13.211
16176SOL    HW250426   1.196   2.271  13.324
16177SOL     OW50427  10.397   1.649   4.185
16177SOL    HW150428  10.373   1.723   4.129
16177SOL    HW250429  10.387   1.682   4.274
16178SOL     OW50430   8.550   5.070  11.976
16178SOL    HW150431   8.610   5.021  11.920
16178SOL    HW250432   8.591   5.067  12.063
16179SOL     OW50433   0.267   3.404  12.289
16179SOL    HW150434   0.218   3.465  12.345
16179SOL    HW250435   0.207   3.385  12.217
16180SOL     OW50436  13.805  10.357   5.047
16180SOL    HW150437  13.886  10.408   5.053
16180SOL    HW250438  13.802  10.306   5.128
16181SOL     OW50439   1.911   6.595   3.356
16181SOL    HW150440   1.904   6.679   3.311
16181SOL    HW250441   2.000   6.595   3.392
16182SOL     OW50442   5.666  14.486   0.564
16182SOL    HW150443   5.580  14.472   0.603
16182SOL    HW250444   5.728  14.475   0.636
16183SOL     OW50445   4.960   0.238  12.162
16183SOL    HW150446   5.011   0.261  12.240
16183SOL    HW250447   4.948   0.322  12.117
16184SOL     OW50448   1.639   4.959   1.015
16184SOL    HW150449   1.624   4.902   1.090
16184SOL    HW250450   1.559   4.950   0.963
16185SOL     OW50451  14.798   7.912   9.926
16185SOL    HW150452  14.757   7.831   9.957
16185SOL    HW250453  14.731   7.979   9.940
16186SOL     OW50454  11.700   1.146  11.144
16186SOL    HW150455  11.753   1.189  11.077
16186SOL    HW250456  11.610   1.167  11.119
16187SOL     OW50457  11.876   7.614   0.219
16187SOL    HW150458  11.908   7.676   0.154
16187SOL    HW250459  11.923   7.532   0.200
16188SOL     OW50460  12.728   7.291   4.949
16188SOL    HW150461  12.817   7.307   4.917
16188SOL    HW250462  12.711   7.362   5.011
16189SOL     OW50463  14.278   1.720   5.183
16189SOL    HW150464  14.345   1.663   5.222
16189SOL    HW250465  14.322   1.765   5.112
16190SOL     OW50466   0.281   8.601  13.620
16190SOL    HW150467   0.186   8.588  13.621
16190SOL    HW250468   0.312   8.545  13.548
16191SOL     OW50469   8.030   1.962   3.448
16191SOL    HW150470   7.970   2.017   3.397
16191SOL    HW250471   8.080   1.915   3.382
16192SOL     OW50472   2.107   8.356   0.559
16192SOL    HW150473   2.133   8.345   0.467
16192SOL    HW250474   2.100   8.267   0.593
16193SOL     OW50475  13.692   3.072  12.074
16193SOL    HW150476  13.762   3.036  12.129
16193SOL    HW250477  13.697   3.021  11.993
16194SOL     OW50478   1.800   7.461   4.692
16194SOL    HW150479   1.814   7.367   4.705
16194SOL    HW250480   1.722   7.481   4.744
16195SOL     OW50481   7.657   3.385   1.555
16195SOL    HW150482   7.671   3.326   1.629
16195SOL    HW250483   7.578   3.433   1.577
16196SOL     OW50484  14.028   6.342   9.495
16196SOL    HW150485  13.979   6.314   9.572
16196SOL    HW250486  14.119   6.327   9.518
16197SOL     OW50487   5.907  13.731   7.261
16197SOL    HW150488   5.858  13.700   7.185
16197SOL    HW250489   5.951  13.653   7.294
16198SOL     OW50490   8.442  13.438  13.894
16198SOL    HW150491   8.376  13.461  13.958
16198SOL    HW250492   8.397  13.379  13.833
16199SOL     OW50493  14.043  11.091  13.601
16199SOL    HW150494  14.011  11.180  13.616
16199SOL    HW250495  13.970  11.047  13.557
16200SOL     OW50496  10.461   7.609  10.303
16200SOL    HW150497  10.528   7.573  10.361
16200SOL    HW250498  10.478   7.567  10.218
16201SOL     OW50499   6.111   2.488   9.355
16201SOL    HW150500   6.159   2.411   9.385
16201SOL    HW250501   6.021   2.456   9.341
16202SOL     OW50502   1.756   6.397   0.309
16202SOL    HW150503   1.775   6.317   0.259
16202SOL    HW250504   1.780   6.468   0.251
16203SOL     OW50505  12.709  10.173  14.843
16203SOL    HW150506  12.776  10.236  14.816
16203SOL    HW250507  12.641  10.227   0.014
16204SOL     OW50508   3.074   0.714  14.446
16204SOL    HW150509   3.078   0.622  14.471
16204SOL    HW250510   3.162   0.733  14.413
16205SOL     OW50511  12.667   5.822   8.005
16205SOL    HW150512  12.578   5.829   7.972
16205SOL    HW250513  12.696   5.913   8.015
16206SOL     OW50514   0.853   5.311   6.231
16206SOL    HW150515   0.776   5.311   6.175
16206SOL    HW250516   0.912   5.248   6.191
16207SOL     OW50517  10.495   1.935  13.900
16207SOL    HW150518  10.477   1.899  13.987
16207SOL    HW250519  10.589   1.952  13.900
16208SOL     OW50520  10.069  14.405  14.292
16208SOL    HW150521  10.048  14.344  14.221
16208SOL    HW250522  10.155  14.439  14.269
16209SOL     OW50523   7.047   9.673   3.772
16209SOL    HW150524   7.093   9.603   3.818
16209SOL    HW250525   6.980   9.703   3.833
16210SOL     OW50526   8.477   6.108   8.635
16210SOL    HW150527   8.423   6.030   8.639
16210SOL    HW250528   8.557   6.079   8.590
16211SOL     OW50529   1.629   3.569   6.725
16211SOL    HW150530   1.617   3.647   6.670
16211SOL    HW250531   1.549   3.563   6.776
16212SOL     OW50532   5.173  14.210   2.520
16212SOL    HW150533   5.142  14.263   2.447
16212SOL    HW250534   5.147  14.121   2.497
16213SOL     OW50535  13.130   8.602   0.219
16213SOL    HW150536  13.114   8.525   0.274
16213SOL    HW250537  13.207   8.643   0.257
16214SOL     OW50538  11.857  13.984  12.536
16214SOL    HW150539  11.950  13.966  12.550
16214SOL    HW250540  11.826  13.909  12.484
16215SOL     OW50541   6.100  10.068   5.574
16215SOL    HW150542   6.126  10.158   5.553
16215SOL    HW250543   6.024  10.052   5.518
16216SOL     OW50544  12.430   6.906   4.480
16216SOL    HW150545  12.339   6.904   4.449
16216SOL    HW250546  12.454   6.999   4.476
16217SOL     OW50547   2.755   8.189   9.569
16217SOL    HW150548   2.787   8.100   9.558
16217SOL    HW250549   2.824   8.244   9.531
16218SOL     OW50550  14.796   3.109   3.115
16218SOL    HW150551  14.813   3.075   3.027
16218SOL    HW250552  14.869   3.078   3.168
16219SOL     OW50553   0.638   5.607  12.879
16219SOL    HW150554   0.670   5.560  12.802
16219SOL    HW250555   0.614   5.693  12.846
16220SOL     OW50556   1.077   3.717   1.064
16220SOL    HW150557   1.112   3.779   1.000
16220SOL    HW250558   1.050   3.771   1.138
16221SOL     OW50559   4.288   4.852  10.714
16221SOL    HW150560   4.265   4.938  10.749
16221SOL    HW250561   4.325   4.804  10.788
16222SOL     OW50562  12.552   3.160   0.005
16222SOL    HW150563  12.547   3.245  14.832
16222SOL    HW250564  12.631   3.166   0.060
16223SOL     OW50565  14.624   1.367   6.611
16223SOL    HW150566  14.624   1.294   6.673
16223SOL    HW250567  14.717   1.390   6.602
16224SOL     OW50568   3.501   2.091  12.985
16224SOL    HW150569   3.526   2.054  13.069
16224SOL    HW250570   3.537   2.179  12.985
16225SOL     OW50571   5.806  10.865  13.896
16225SOL    HW150572   5.881  10.925  13.886
16225SOL    HW250573   5.846  10.783  13.926
16226SOL     OW50574   0.466  13.209   5.105
16226SOL    HW150575   0.417  13.236   5.027
16226SOL    HW250576   0.453  13.114   5.111
16227SOL     OW50577  12.589   4.722  13.743
16227SOL    HW150578  12.594   4.679  13.828
16227SOL    HW250579  12.542   4.803  13.760
16228SOL     OW50580   0.357   6.459   7.609
16228SOL    HW150581   0.302   6.386   7.581
16228SOL    HW250582   0.310   6.499   7.682
16229SOL     OW50583  12.345   9.214   7.250
16229SOL    HW150584  12.317   9.129   7.215
16229SOL    HW250585  12.405   9.192   7.321
16230SOL     OW50586   4.247   4.679   5.435
16230SOL    HW150587   4.184   4.617   5.471
16230SOL    HW250588   4.195   4.739   5.382
16231SOL     OW50589   4.603   1.508   3.494
16231SOL    HW150590   4.572   1.518   3.584
16231SOL    HW250591   4.665   1.580   3.482
16232SOL     OW50592   5.400   6.211   8.810
16232SOL    HW150593   5.455   6.174   8.880
16232SOL    HW250594   5.421   6.159   8.733
16233SOL     OW50595  13.610   4.484   6.197
16233SOL    HW150596  13.703   4.504   6.194
16233SOL    HW250597  13.567   4.569   6.187
16234SOL     OW50598   7.269   0.512  11.764
16234SOL    HW150599   7.200   0.554  11.714
16234SOL    HW250600   7.225   0.441  11.811
16235SOL     OW50601   9.703   9.580  11.150
16235SOL    HW150602   9.711   9.494  11.190
16235SOL    HW250603   9.787   9.594  11.106
16236SOL     OW50604   2.437   2.640  10.368
16236SOL    HW150605   2.456   2.706  10.435
16236SOL    HW250606   2.349   2.660  10.338
16237SOL     OW50607   8.833  12.151   1.814
16237SOL    HW150608   8.801  12.073   1.860
16237SOL    HW250609   8.901  12.186   1.871
16238SOL     OW50610   3.959  10.387   5.772
16238SOL    HW150611   4.037  10.441   5.783
16238SOL    HW250612   3.949  10.378   5.677
16239SOL     OW50613   7.747   5.198  13.430
16239SOL    HW150614   7.735   5.117  13.380
16239SOL    HW250615   7.831   5.232  13.401
16240SOL     OW50616   4.069   0.410  10.272
16240SOL    HW150617   3.992   0.380  10.224
16240SOL    HW250618   4.043   0.403  10.365
16241SOL     OW50619   1.882   1.829   0.171
16241SOL    HW150620   1.789   1.824   0.196
16241SOL    HW250621   1.880   1.837   0.075
16242SOL     OW50622   3.336  11.640   2.901
16242SOL    HW150623   3.315  11.651   2.993
16242SOL    HW250624   3.382  11.720   2.876
16243SOL     OW50625  14.494   3.890  12.275
16243SOL    HW150626  14.441   3.878  12.354
16243SOL    HW250627  14.430   3.913  12.207
16244SOL     OW50628  12.431  13.047   8.206
16244SOL    HW150629  12.458  13.102   8.279
16244SOL    HW250630  12.444  12.957   8.236
16245SOL     OW50631  11.663  10.224  11.352
16245SOL    HW150632  11.608  10.284  11.402
16245SOL    HW250633  11.603  10.158  11.318
16246SOL     OW50634  14.065   3.378   7.342
16246SOL    HW150635  14.124   3.412   7.409
16246SOL    HW250636  14.093   3.422   7.261
16247SOL     OW50637   8.547   0.263   9.958
16247SOL    HW150638   8.566   0.355   9.942
16247SOL    HW250639   8.463   0.248   9.914
16248SOL     OW50640   9.607  12.667   8.786
16248SOL    HW150641   9.641  12.582   8.758
16248SOL    HW250642   9.631  12.726   8.714
16249SOL     OW50643  13.005   9.980   9.504
16249SOL    HW150644  13.060   9.902   9.511
16249SOL    HW250645  13.063  10.052   9.527
16250SOL     OW50646   4.298   4.637   3.886
16250SOL    HW150647   4.373   4.692   3.911
16250SOL    HW250648   4.328   4.547   3.900
16251SOL     OW50649   2.531  14.146   9.581
16251SOL    HW150650   2.587  14.147   9.503
16251SOL    HW250651   2.534  14.236   9.613
16252SOL     OW50652  10.485  12.010  10.486
16252SOL    HW150653  10.576  12.021  10.511
16252SOL    HW250654  10.471  12.075  10.417
16253SOL     OW50655  13.891   3.088   6.110
16253SOL    HW150656  13.811   3.139   6.094
16253SOL    HW250657  13.925   3.070   6.023
16254SOL     OW50658  11.804   5.823   2.397
16254SOL    HW150659  11.792   5.826   2.492
16254SOL    HW250660  11.893   5.789   2.385
16255SOL     OW50661   7.999   8.330   8.323
16255SOL    HW150662   8.036   8.307   8.408
16255SOL    HW250663   7.989   8.425   8.326
16256SOL     OW50664   8.057   1.880   9.349
16256SOL    HW150665   8.019   1.944   9.289
16256SOL    HW250666   8.045   1.796   9.305
16257SOL     OW50667   7.992  13.339   2.842
16257SOL    HW150668   7.990  13.429   2.874
16257SOL    HW250669   7.932  13.337   2.768
16258SOL     OW50670   1.113  14.109  12.277
16258SOL    HW150671   1.113  14.118  12.181
16258SOL    HW250672   1.057  14.179  12.308
16259SOL     OW50673   2.303   6.049  10.167
16259SOL    HW150674   2.244   6.066  10.093
16259SOL    HW250675   2.289   5.957  10.189
16260SOL     OW50676   5.420   3.171   3.177
16260SOL    HW150677   5.414   3.221   3.095
16260SOL    HW250678   5.453   3.234   3.241
16261SOL     OW50679   2.171   7.956   7.994
16261SOL    HW150680   2.215   8.028   7.947
16261SOL    HW250681   2.243   7.902   8.026
16262SOL     OW50682   6.451  12.008   6.456
16262SOL    HW150683   6.427  12.051   6.374
16262SOL    HW250684   6.434  11.915   6.440
16263SOL     OW50685  11.824   6.103   7.682
16263SOL    HW150686  11.739   6.131   7.715
16263SOL    HW250687  11.835   6.014   7.715
16264SOL     OW50688   2.523   7.303   5.119
16264SOL    HW150689   2.583   7.255   5.176
16264SOL    HW250690   2.436   7.269   5.142
16265SOL     OW50691  12.623   6.971  12.456
16265SOL    HW150692  12.636   7.066  12.447
16265SOL    HW250693  12.599   6.959  12.547
16266SOL     OW50694   8.110   3.136   5.972
16266SOL    HW150695   8.022   3.127   6.009
16266SOL    HW250696   8.134   3.047   5.944
16267SOL     OW50697   4.002   6.507  14.020
16267SOL    HW150698   4.029   6.453  13.946
16267SOL    HW250699   4.048   6.590  14.007
16268SOL     OW50700   2.694  14.406   0.380
16268SOL    HW150701   2.660  14.324   0.343
16268SOL    HW250702   2.783  14.383   0.410
16269SOL     OW50703   8.425  10.766   3.864
16269SOL    HW150704   8.401  10.857   3.849
16269SOL    HW250705   8.415  10.753   3.958
16270SOL     OW50706   4.883   6.173   3.849
16270SOL    HW150707   4.882   6.141   3.939
16270SOL    HW250708   4.904   6.096   3.796
16271SOL     OW50709   3.737   7.766   0.120
16271SOL    HW150710   3.826   7.750   0.149
16271SOL    HW250711   3.718   7.855   0.148
16272SOL     OW50712   7.604   8.164  10.721
16272SOL    HW150713   7.590   8.169  10.627
16272SOL    HW250714   7.582   8.073  10.743
16273SOL     OW50715  13.856   9.627   2.945
16273SOL    HW150716  13.888   9.537   2.935
16273SOL    HW250717  13.780   9.632   2.888
16274SOL     OW50718   8.320  12.191   2.663
16274SOL    HW150719   8.363  12.220   2.743
16274SOL    HW250720   8.355  12.103   2.648
16275SOL     OW50721  11.948   7.790  11.901
16275SOL    HW150722  11.948   7.744  11.817
16275SOL    HW250723  12.030   7.840  11.900
16276SOL     OW50724   2.071  14.637  14.379
16276SOL    HW150725   2.074  14.548  14.344
16276SOL    HW250726   2.099  14.628  14.470
16277SOL     OW50727   1.848   1.890   3.063
16277SOL    HW150728   1.758   1.922   3.071
16277SOL    HW250729   1.844   1.801   3.098
16278SOL     OW50730  13.677   2.012   2.675
16278SOL    HW150731  13.601   2.048   2.630
16278SOL    HW250732  13.716   2.087   2.720
16279SOL     OW50733   4.697  10.807   5.164
16279SOL    HW150734   4.610  10.845   5.158
16279SOL    HW250735   4.692  10.726   5.115
16280SOL     OW50736   4.231  10.233   8.196
16280SOL    HW150737   4.200  10.265   8.112
16280SOL    HW250738   4.157  10.182   8.231
16281SOL     OW50739   8.708   9.401   6.045
16281SOL    HW150740   8.683   9.346   6.120
16281SOL    HW250741   8.802   9.415   6.057
16282SOL     OW50742   0.046   3.814  13.572
16282SOL    HW150743   0.088   3.757  13.507
16282SOL    HW250744  14.851   3.758  13.615
16283SOL     OW50745   4.223   7.841   8.480
16283SOL    HW150746   4.172   7.763   8.500
16283SOL    HW250747   4.303   7.808   8.439
16284SOL     OW50748  11.517   6.880   3.081
16284SOL    HW150749  11.539   6.830   3.002
16284SOL    HW250750  11.592   6.937   3.096
16285SOL     OW50751   9.540   2.194   1.771
16285SOL    HW150752   9.537   2.103   1.798
16285SOL    HW250753   9.496   2.242   1.842
16286SOL     OW50754   0.476   9.291   0.285
16286SOL    HW150755   0.432   9.340   0.216
16286SOL    HW250756   0.458   9.340   0.365
16287SOL     OW50757  14.239   3.253  11.536
16287SOL    HW150758  14.317   3.300  11.568
16287SOL    HW250759  14.199   3.217  11.616
16288SOL     OW50760   4.699   8.068  10.227
16288SOL    HW150761   4.660   8.006  10.166
16288SOL    HW250762   4.714   8.147  10.175
16289SOL     OW50763   9.619   0.821   5.406
16289SOL    HW150764   9.646   0.910   5.382
16289SOL    HW250765   9.562   0.793   5.334
16290SOL     OW50766  10.026   7.057   1.773
16290SOL    HW150767  10.090   7.070   1.703
16290SOL    HW250768   9.995   6.967   1.762
16291SOL     OW50769   6.318  14.022  10.564
16291SOL    HW150770   6.314  13.982  10.477
16291SOL    HW250771   6.341  13.950  10.622
16292SOL     OW50772   7.101   0.832  12.918
16292SOL    HW150773   7.119   0.878  12.836
16292SOL    HW250774   7.163   0.759  12.918
16293SOL     OW50775   1.958   6.928   7.069
16293SOL    HW150776   2.010   6.884   7.136
16293SOL    HW250777   2.006   7.009   7.052
16294SOL     OW50778   8.145   1.318   9.931
16294SOL    HW150779   8.153   1.413   9.927
16294SOL    HW250780   8.086   1.301  10.004
16295SOL     OW50781   6.976   2.121  12.293
16295SOL    HW150782   7.022   2.045  12.258
16295SOL    HW250783   6.985   2.188  12.224
16296SOL     OW50784   1.932   8.248   5.132
16296SOL    HW150785   1.896   8.240   5.221
16296SOL    HW250786   1.910   8.165   5.091
16297SOL     OW50787   1.634  10.165  14.674
16297SOL    HW150788   1.542  10.183  14.694
16297SOL    HW250789   1.639  10.070  14.666
16298SOL     OW50790  14.309   2.051  11.212
16298SOL    HW150791  14.317   2.130  11.266
16298SOL    HW250792  14.356   2.071  11.132
16299SOL     OW50793   8.673  12.678   1.611
16299SOL    HW150794   8.616  12.698   1.537
16299SOL    HW250795   8.687  12.762   1.655
16300SOL     OW50796  12.793  14.349  10.621
16300SOL    HW150797  12.741  14.327  10.698
16300SOL    HW250798  12.875  14.302  10.633
16301SOL     OW50799   4.677  10.603  12.211
16301SOL    HW150800   4.636  10.538  12.155
16301SOL    HW250801   4.653  10.687  12.171
16302SOL     OW50802   3.965  11.285   2.847
16302SOL    HW150803   3.898  11.314   2.785
16302SOL    HW250804   3.922  11.290   2.933
16303SOL     OW50805   5.676  14.276   3.004
16303SOL    HW150806   5.713  14.342   3.062
16303SOL    HW250807   5.707  14.193   3.039
16304SOL     OW50808   4.279   9.345   1.357
16304SOL    HW150809   4.224   9.407   1.405
16304SOL    HW250810   4.355   9.331   1.414
16305SOL     OW50811  11.048  14.330   6.823
16305SOL    HW150812  11.099  14.288   6.892
16305SOL    HW250813  11.050  14.268   6.750
16306SOL     OW50814   4.996   6.022   2.815
16306SOL    HW150815   4.905   6.006   2.842
16306SOL    HW250816   5.039   5.937   2.822
16307SOL     OW50817   2.717  12.051   3.235
16307SOL    HW150818   2.801  12.091   3.210
16307SOL    HW250819   2.651  12.109   3.198
16308SOL     OW50820   0.115   6.666   8.860
16308SOL    HW150821   0.093   6.576   8.884
16308SOL    HW250822   0.036   6.716   8.880
16309SOL     OW50823  10.825  10.281   6.610
16309SOL    HW150824  10.884  10.271   6.535
16309SOL    HW250825  10.860  10.220   6.676
16310SOL     OW50826  12.929   5.873  12.196
16310SOL    HW150827  12.981   5.807  12.242
16310SOL    HW250828  12.993   5.936  12.162
16311SOL     OW50829   0.520   5.689   4.804
16311SOL    HW150830   0.610   5.720   4.806
16311SOL    HW250831   0.526   5.601   4.769
16312SOL     OW50832  14.410   0.782   6.460
16312SOL    HW150833  14.385   0.868   6.427
16312SOL    HW250834  14.503   0.775   6.441
16313SOL     OW50835   2.453   1.818   5.676
16313SOL    HW150836   2.521   1.768   5.721
16313SOL    HW250837   2.393   1.751   5.641
16314SOL     OW50838  13.842   2.952   8.895
16314SOL    HW150839  13.934   2.961   8.921
16314SOL    HW250840  13.820   3.035   8.852
16315SOL     OW50841   9.442   6.712   9.889
16315SOL    HW150842   9.457   6.789   9.944
16315SOL    HW250843   9.438   6.639   9.950
16316SOL     OW50844  12.174   0.191   8.222
16316SOL    HW150845  12.159   0.257   8.155
16316SOL    HW250846  12.268   0.196   8.240
16317SOL     OW50847   8.900   5.671  12.762
16317SOL    HW150848   8.837   5.599  12.768
16317SOL    HW250849   8.871   5.724  12.689
16318SOL     OW50850   5.289   2.551  13.704
16318SOL    HW150851   5.279   2.645  13.715
16318SOL    HW250852   5.338   2.522  13.782
16319SOL     OW50853  12.962  10.822   8.584
16319SOL    HW150854  13.048  10.781   8.588
16319SOL    HW250855  12.906  10.767   8.638
16320SOL     OW50856   5.858   9.015   1.986
16320SOL    HW150857   5.905   9.059   2.057
16320SOL    HW250858   5.905   8.933   1.973
16321SOL     OW50859   6.159   8.626   4.646
16321SOL    HW150860   6.151   8.538   4.609
16321SOL    HW250861   6.077   8.669   4.622
16322SOL     OW50862   9.143  10.704   3.902
16322SOL    HW150863   9.205  10.776   3.916
16322SOL    HW250864   9.193  10.637   3.856
16323SOL     OW50865   2.265  12.007   5.993
16323SOL    HW150866   2.186  11.980   6.040
16323SOL    HW250867   2.272  11.945   5.921
16324SOL     OW50868   9.094   8.630  14.581
16324SOL    HW150869   9.129   8.615  14.493
16324SOL    HW250870   9.089   8.725  14.589
16325SOL     OW50871  12.573   1.364  13.469
16325SOL    HW150872  12.668   1.376  13.468
16325SOL    HW250873  12.548   1.372  13.377
16326SOL     OW50874   3.957   4.831   2.737
16326SOL    HW150875   4.041   4.863   2.704
16326SOL    HW250876   3.968   4.736   2.739
16327SOL     OW50877   2.683  12.115   6.875
16327SOL    HW150878   2.759  12.058   6.888
16327SOL    HW250879   2.716  12.185   6.818
16328SOL     OW50880   1.230   5.106  14.442
16328SOL    HW150881   1.166   5.119  14.511
16328SOL    HW250882   1.271   5.192  14.431
16329SOL     OW50883   9.097   0.086   0.076
16329SOL    HW150884   9.072   0.072  14.854
16329SOL    HW250885   9.060   0.011   0.123
16330SOL     OW50886   3.335   5.757  13.873
16330SOL    HW150887   3.242   5.779  13.869
16330SOL    HW250888   3.377   5.836  13.908
16331SOL     OW50889   9.149  10.998   4.499
16331SOL    HW150890   9.157  10.903   4.484
16331SOL    HW250891   9.060  11.019   4.472
16332SOL     OW50892   4.714  11.403  12.337
16332SOL    HW150893   4.653  11.473  12.359
16332SOL    HW250894   4.739  11.365  12.421
16333SOL     OW50895  11.120  11.700  11.999
16333SOL    HW150896  11.185  11.635  12.025
16333SOL    HW250897  11.153  11.734  11.915
16334SOL     OW50898  13.418   0.674  11.161
16334SOL    HW150899  13.423   0.707  11.071
16334SOL    HW250900  13.509   0.660  11.187
16335SOL     OW50901  11.431   9.333   0.842
16335SOL    HW150902  11.517   9.296   0.819
16335SOL    HW250903  11.397   9.366   0.759
16336SOL     OW50904  13.188   5.710   0.042
16336SOL    HW150905  13.102   5.744   0.068
16336SOL    HW250906  13.170   5.655  14.836
16337SOL     OW50907   1.365  13.354   1.407
16337SOL    HW150908   1.293  13.292   1.394
16337SOL    HW250909   1.376  13.358   1.502
16338SOL     OW50910   2.215   2.684   2.905
16338SOL    HW150911   2.231   2.764   2.856
16338SOL    HW250912   2.268   2.617   2.861
16339SOL     OW50913  14.706   3.076  10.297
16339SOL    HW150914  14.786   3.031  10.271
16339SOL    HW250915  14.647   3.066  10.223
16340SOL     OW50916   5.114   7.257   7.168
16340SOL    HW150917   5.137   7.164   7.164
16340SOL    HW250918   5.100   7.281   7.077
16341SOL     OW50919  10.286   1.923  12.060
16341SOL    HW150920  10.190   1.927  12.060
16341SOL    HW250921  10.306   1.852  12.121
16342SOL     OW50922   3.566  10.268   1.854
16342SOL    HW150923   3.654  10.303   1.841
16342SOL    HW250924   3.542  10.295   1.942
16343SOL     OW50925  12.785   4.107  10.592
16343SOL    HW150926  12.757   4.018  10.570
16343SOL    HW250927  12.727   4.135  10.662
16344SOL     OW50928   1.947   9.693  14.172
16344SOL    HW150929   1.928   9.608  14.132
16344SOL    HW250930   1.915   9.684  14.262
16345SOL     OW50931   5.716   6.272   8.115
16345SOL    HW150932   5.701   6.209   8.044
16345SOL    HW250933   5.628   6.296   8.144
16346SOL     OW50934   7.025   5.852  11.816
16346SOL    HW150935   7.067   5.766  11.829
16346SOL    HW250936   7.051   5.878  11.728
16347SOL     OW50937   0.007   4.810   2.814
16347SOL    HW150938   0.070   4.751   2.773
16347SOL    HW250939  14.858   4.876   2.746
16348SOL     OW50940   3.766  12.413   0.356
16348SOL    HW150941   3.675  12.401   0.381
16348SOL    HW250942   3.763  12.461   0.273
16349SOL     OW50943   5.242   6.697   0.440
16349SOL    HW150944   5.202   6.752   0.508
16349SOL    HW250945   5.298   6.637   0.488
16350SOL     OW50946   6.063  12.458  11.735
16350SOL    HW150947   6.097  12.369  11.743
16350SOL    HW250948   5.974  12.454  11.771
16351SOL     OW50949  11.779  11.737   8.968
16351SOL    HW150950  11.779  11.781   8.883
16351SOL    HW250951  11.749  11.804   9.030
16352SOL     OW50952   7.478   4.966   5.321
16352SOL    HW150953   7.513   5.017   5.394
16352SOL    HW250954   7.385   4.990   5.317
16353SOL     OW50955   6.628  11.075  12.108
16353SOL    HW150956   6.673  10.993  12.087
16353SOL    HW250957   6.570  11.052  12.181
16354SOL     OW50958  13.654  11.625  14.266
16354SOL    HW150959  13.686  11.589  14.349
16354SOL    HW250960  13.732  11.661  14.224
16355SOL     OW50961   7.166  13.933   1.142
16355SOL    HW150962   7.247  13.974   1.111
16355SOL    HW250963   7.183  13.839   1.136
16356SOL     OW50964  11.639  11.846  13.094
16356SOL    HW150965  11.614  11.755  13.083
16356SOL    HW250966  11.556  11.894  13.098
16357SOL     OW50967   2.622  10.379  12.783
16357SOL    HW150968   2.666  10.319  12.723
16357SOL    HW250969   2.541  10.335  12.806
16358SOL     OW50970  10.798  13.017   8.458
16358SOL    HW150971  10.839  13.029   8.544
16358SOL    HW250972  10.813  13.100   8.413
16359SOL     OW50973  12.291   8.180  10.595
16359SOL    HW150974  12.277   8.088  10.575
16359SOL    HW250975  12.208   8.208  10.635
16360SOL     OW50976   9.459   1.878   8.614
16360SOL    HW150977   9.405   1.917   8.545
16360SOL    HW250978   9.469   1.948   8.679
16361SOL     OW50979   3.211   8.163   7.986
16361SOL    HW150980   3.227   8.235   8.047
16361SOL    HW250981   3.116   8.164   7.972
16362SOL     OW50982   1.016  13.457   4.532
16362SOL    HW150983   1.067  13.537   4.543
16362SOL    HW250984   0.977  13.442   4.618
16363SOL     OW50985  10.520   3.741   1.829
16363SOL    HW150986  10.453   3.689   1.784
16363SOL    HW250987  10.503   3.831   1.801
16364SOL     OW50988   3.136   9.419   3.712
16364SOL    HW150989   3.086   9.341   3.736
16364SOL    HW250990   3.143   9.469   3.794
16365SOL     OW50991   2.368   8.969   4.007
16365SOL    HW150992   2.365   8.947   4.100
16365SOL    HW250993   2.460   8.988   3.989
16366SOL     OW50994   9.497  12.125   4.178
16366SOL    HW150995   9.550  12.048   4.161
16366SOL    HW250996   9.448  12.104   4.258
16367SOL     OW50997  10.198   9.757   1.712
16367SOL    HW150998  10.275   9.812   1.702
16367SOL    HW250999  10.216   9.680   1.659
16368SOL     OW51000   5.840   2.211   3.157
16368SOL    HW151001   5.868   2.126   3.191
16368SOL    HW251002   5.764   2.235   3.211
16369SOL     OW51003   2.799  12.659   5.014
16369SOL    HW151004   2.867  12.613   4.965
16369SOL    HW251005   2.832  12.663   5.103
16370SOL     OW51006   0.430   0.165   1.160
16370SOL    HW151007   0.513   0.128   1.191
16370SOL    HW251008   0.426   0.139   1.068
16371SOL     OW51009   3.989   2.930   6.832
16371SOL    HW151010   3.984   2.834   6.827
16371SOL    HW251011   4.081   2.949   6.850
16372SOL     OW51012  13.326   3.124   3.935
16372SOL    HW151013  13.356   3.088   4.018
16372SOL    HW251014  13.232   3.137   3.947
16373SOL     OW51015   5.736   3.712   6.667
16373SOL    HW151016   5.775   3.662   6.739
16373SOL    HW251017   5.709   3.645   6.603
16374SOL     OW51018   1.522   5.857   1.012
16374SOL    HW151019   1.562   5.850   0.926
16374SOL    HW251020   1.594   5.882   1.070
16375SOL     OW51021   4.721   7.294   4.071
16375SOL    HW151022   4.779   7.323   4.141
16375SOL    HW251023   4.661   7.367   4.057
16376SOL     OW51024   2.058   6.342   8.205
16376SOL    HW151025   1.981   6.365   8.154
16376SOL    HW251026   2.050   6.392   8.286
16377SOL     OW51027  10.923   4.957   0.404
16377SOL    HW151028  11.006   5.003   0.412
16377SOL    HW251029  10.925   4.918   0.317
16378SOL     OW51030   4.894  14.063  10.919
16378SOL    HW151031   4.932  14.063  10.831
16378SOL    HW251032   4.799  14.059  10.904
16379SOL     OW51033  10.888   8.629   2.704
16379SOL    HW151034  10.852   8.546   2.672
16379SOL    HW251035  10.920   8.674   2.626
16380SOL     OW51036   1.827   1.700  11.842
16380SOL    HW151037   1.784   1.757  11.779
16380SOL    HW251038   1.758   1.640  11.871
16381SOL     OW51039   3.708  10.647  10.328
16381SOL    HW151040   3.668  10.673  10.411
16381SOL    HW251041   3.751  10.564  10.347
16382SOL     OW51042   7.983   0.750   7.282
16382SOL    HW151043   7.925   0.782   7.213
16382SOL    HW251044   8.008   0.662   7.254
16383SOL     OW51045   0.960   7.401  12.178
16383SOL    HW151046   0.943   7.392  12.272
16383SOL    HW251047   0.878   7.373  12.137
16384SOL     OW51048   7.824   5.381   7.475
16384SOL    HW151049   7.840   5.462   7.525
16384SOL    HW251050   7.911   5.345   7.459
16385SOL     OW51051   6.285   6.202  11.625
16385SOL    HW151052   6.323   6.181  11.710
16385SOL    HW251053   6.319   6.134  11.567
16386SOL     OW51054   8.474   9.448   1.022
16386SOL    HW151055   8.444   9.376   1.078
16386SOL    HW251056   8.399   9.508   1.020
16387SOL     OW51057   7.492   7.695  12.094
16387SOL    HW151058   7.533   7.775  12.127
16387SOL    HW251059   7.566   7.640  12.067
16388SOL     OW51060  14.016   2.117  10.478
16388SOL    HW151061  13.943   2.171  10.449
16388SOL    HW251062  14.005   2.034  10.431
16389SOL     OW51063   3.654   3.916  12.859
16389SOL    HW151064   3.587   3.983  12.850
16389SOL    HW251065   3.609   3.844  12.904
16390SOL     OW51066   4.051  10.694  10.388
16390SOL    HW151067   4.046  10.737  10.302
16390SOL    HW251068   4.114  10.623  10.376
16391SOL     OW51069   2.170   4.357   4.444
16391SOL    HW151070   2.097   4.371   4.504
16391SOL    HW251071   2.176   4.262   4.435
16392SOL     OW51072   3.289   3.806  12.155
16392SOL    HW151073   3.242   3.884  12.185
16392SOL    HW251074   3.372   3.839  12.122
16393SOL     OW51075  12.834  10.106  13.743
16393SOL    HW151076  12.849  10.122  13.837
16393SOL    HW251077  12.916  10.131  13.701
16394SOL     OW51078  13.875   3.187   7.377
16394SOL    HW151079  13.932   3.262   7.357
16394SOL    HW251080  13.839   3.207   7.463
16395SOL     OW51081   7.625   8.668   8.105
16395SOL    HW151082   7.632   8.654   8.011
16395SOL    HW251083   7.663   8.589   8.144
16396SOL     OW51084   9.714   7.384   8.065
16396SOL    HW151085   9.708   7.329   8.143
16396SOL    HW251086   9.684   7.328   7.993
16397SOL     OW51087   7.620  12.149   2.412
16397SOL    HW151088   7.646  12.156   2.320
16397SOL    HW251089   7.696  12.180   2.461
16398SOL     OW51090   2.230  13.641   3.069
16398SOL    HW151091   2.194  13.553   3.085
16398SOL    HW251092   2.200  13.693   3.143
16399SOL     OW51093   7.481  13.271  12.849
16399SOL    HW151094   7.408  13.330  12.831
16399SOL    HW251095   7.510  13.295  12.937
16400SOL     OW51096  13.498   4.892   4.791
16400SOL    HW151097  13.462   4.815   4.835
16400SOL    HW251098  13.514   4.955   4.861
16401SOL     OW51099   4.855  10.409  10.272
16401SOL    HW151100   4.911  10.486  10.284
16401SOL    HW251101   4.815  10.422  10.186
16402SOL     OW51102  14.745   1.066   2.989
16402SOL    HW151103  14.683   1.078   2.917
16402SOL    HW251104  14.700   1.009   3.051
16403SOL     OW51105  10.626   6.756   3.636
16403SOL    HW151106  10.721   6.765   3.635
16403SOL    HW251107  10.607   6.689   3.571
16404SOL     OW51108   1.099   6.610   4.878
16404SOL    HW151109   1.148   6.691   4.863
16404SOL    HW251110   1.045   6.600   4.799
16405SOL     OW51111   1.864  14.498   6.203
16405SOL    HW151112   1.778  14.472   6.170
16405SOL    HW251113   1.925  14.440   6.156
16406SOL     OW51114   8.647   7.662  12.455
16406SOL    HW151115   8.553   7.666  12.435
16406SOL    HW251116   8.677   7.584  12.409
16407SOL     OW51117   5.657   6.809   8.038
16407SOL    HW151118   5.738   6.849   8.071
16407SOL    HW251119   5.684   6.723   8.005
16408SOL     OW51120   0.133   9.065   3.861
16408SOL    HW151121   0.112   9.120   3.937
16408SOL    HW251122   0.120   9.122   3.785
16409SOL     OW51123   7.971   0.259  10.342
16409SOL    HW151124   8.066   0.259  10.331
16409SOL    HW251125   7.941   0.340  10.301
16410SOL     OW51126   1.533   4.098   8.061
16410SOL    HW151127   1.555   4.076   7.970
16410SOL    HW251128   1.468   4.168   8.053
16411SOL     OW51129   4.060  12.803   2.726
16411SOL    HW151130   3.978  12.754   2.735
16411SOL    HW251131   4.122  12.740   2.689
16412SOL     OW51132  11.840   0.156  10.638
16412SOL    HW151133  11.855   0.101  10.561
16412SOL    HW251134  11.777   0.106  10.690
16413SOL     OW51135  11.579   8.940  12.759
16413SOL    HW151136  11.550   8.860  12.804
16413SOL    HW251137  11.669   8.953  12.791
16414SOL     OW51138  12.144   4.823  12.204
16414SOL    HW151139  12.060   4.857  12.173
16414SOL    HW251140  12.126   4.790  12.292
16415SOL     OW51141   3.797   9.463   1.555
16415SOL    HW151142   3.866   9.477   1.491
16415SOL    HW251143   3.836   9.404   1.620
16416SOL     OW51144   8.961  13.698  14.721
16416SOL    HW151145   8.944  13.673  14.812
16416SOL    HW251146   9.055  13.689  14.711
16417SOL     OW51147   0.234  11.037   3.755
16417SOL    HW151148   0.262  10.956   3.797
16417SOL    HW251149   0.179  11.081   3.820
16418SOL     OW51150  14.821  11.761  14.488
16418SOL    HW151151  14.802  11.683  14.539
16418SOL    HW251152   0.013  11.732  14.421
16419SOL     OW51153   2.359   2.084   5.656
16419SOL    HW151154   2.392   1.994   5.659
16419SOL    HW251155   2.438   2.138   5.661
16420SOL     OW51156   2.792  12.281   4.782
16420SOL    HW151157   2.747  12.274   4.866
16420SOL    HW251158   2.751  12.356   4.739
16421SOL     OW51159   8.246   6.842  12.967
16421SOL    HW151160   8.242   6.917  13.027
16421SOL    HW251161   8.336   6.842  12.935
16422SOL     OW51162  14.393   1.822   5.953
16422SOL    HW151163  14.463   1.878   5.987
16422SOL    HW251164  14.312   1.869   5.976
16423SOL     OW51165   2.807   0.877  12.852
16423SOL    HW151166   2.745   0.931  12.803
16423SOL    HW251167   2.846   0.937  12.915
16424SOL     OW51168   1.683   0.659   0.864
16424SOL    HW151169   1.659   0.567   0.852
16424SOL    HW251170   1.752   0.675   0.800
16425SOL     OW51171   7.113  10.342   2.700
16425SOL    HW151172   7.201  10.343   2.737
16425SOL    HW251173   7.055  10.342   2.776
16426SOL     OW51174   9.047   7.067  12.338
16426SOL    HW151175   9.035   6.973  12.353
16426SOL    HW251176   8.982   7.089  12.271
16427SOL     OW51177  13.310   9.007   8.676
16427SOL    HW151178  13.284   8.964   8.595
16427SOL    HW251179  13.383   8.954   8.709
16428SOL     OW51180   0.925   8.006  14.299
16428SOL    HW151181   0.911   8.086  14.349
16428SOL    HW251182   0.838   7.974  14.278
16429SOL     OW51183   1.482  12.115  14.227
16429SOL    HW151184   1.492  12.113  14.132
16429SOL    HW251185   1.400  12.161  14.242
16430SOL     OW51186   4.316  12.592   6.740
16430SOL    HW151187   4.269  12.671   6.767
16430SOL    HW251188   4.250  12.540   6.693
16431SOL     OW51189  12.155  11.873  11.336
16431SOL    HW151190  12.144  11.847  11.245
16431SOL    HW251191  12.162  11.791  11.385
16432SOL     OW51192   0.808   2.248   8.604
16432SOL    HW151193   0.852   2.218   8.525
16432SOL    HW251194   0.871   2.307   8.646
16433SOL     OW51195  10.346   7.280   1.204
16433SOL    HW151196  10.411   7.235   1.151
16433SOL    HW251197  10.395   7.314   1.279
16434SOL     OW51198   2.600  12.969   8.855
16434SOL    HW151199   2.511  12.935   8.847
16434SOL    HW251200   2.656  12.892   8.855
16435SOL     OW51201   4.358   1.272   9.661
16435SOL    HW151202   4.428   1.335   9.642
16435SOL    HW251203   4.398   1.209   9.721
16436SOL     OW51204   8.310   6.199   0.565
16436SOL    HW151205   8.244   6.221   0.499
16436SOL    HW251206   8.336   6.109   0.543
16437SOL     OW51207   6.109   0.259   4.577
16437SOL    HW151208   6.014   0.259   4.565
16437SOL    HW251209   6.130   0.168   4.598
16438SOL     OW51210  12.807   8.107  13.563
16438SOL    HW151211  12.774   8.102  13.652
16438SOL    HW251212  12.821   8.016  13.537
16439SOL     OW51213  13.314   2.031  12.900
16439SOL    HW151214  13.330   2.125  12.887
16439SOL    HW251215  13.330   1.992  12.815
16440SOL     OW51216   1.030   9.578   5.088
16440SOL    HW151217   1.101   9.529   5.046
16440SOL    HW251218   0.999   9.638   5.019
16441SOL     OW51219  14.082  13.552   2.991
16441SOL    HW151220  14.142  13.486   3.026
16441SOL    HW251221  14.033  13.584   3.067
16442SOL     OW51222   5.428   5.085   1.234
16442SOL    HW151223   5.516   5.107   1.202
16442SOL    HW251224   5.432   4.991   1.250
16443SOL     OW51225   0.206  14.070  12.517
16443SOL    HW151226   0.177  13.984  12.486
16443SOL    HW251227   0.173  14.132  12.451
16444SOL     OW51228  12.159  13.017   3.218
16444SOL    HW151229  12.201  13.090   3.265
16444SOL    HW251230  12.119  12.964   3.287
16445SOL     OW51231   4.022  11.996   4.766
16445SOL    HW151232   4.008  11.920   4.823
16445SOL    HW251233   4.105  12.033   4.794
16446SOL     OW51234  14.736  11.503  11.602
16446SOL    HW151235  14.785  11.508  11.685
16446SOL    HW251236  14.755  11.585  11.558
16447SOL     OW51237   3.326   9.307   5.144
16447SOL    HW151238   3.235   9.279   5.135
16447SOL    HW251239   3.321   9.400   5.170
16448SOL     OW51240  14.045   0.993   9.139
16448SOL    HW151241  14.013   0.905   9.120
16448SOL    HW251242  13.969   1.050   9.127
16449SOL     OW51243   4.282   7.291   2.958
16449SOL    HW151244   4.286   7.329   3.047
16449SOL    HW251245   4.194   7.313   2.928
16450SOL     OW51246  12.314   2.559   1.908
16450SOL    HW151247  12.235   2.510   1.883
16450SOL    HW251248  12.383   2.493   1.912
16451SOL     OW51249  12.322   7.500   6.220
16451SOL    HW151250  12.245   7.545   6.184
16451SOL    HW251251  12.288   7.420   6.259
16452SOL     OW51252   5.780   2.512   1.702
16452SOL    HW151253   5.695   2.482   1.670
16452SOL    HW251254   5.762   2.597   1.743
16453SOL     OW51255  13.520  11.364  14.611
16453SOL    HW151256  13.521  11.351  14.516
16453SOL    HW251257  13.543  11.456  14.622
16454SOL     OW51258  11.330  12.533   2.339
16454SOL    HW151259  11.255  12.585   2.368
16454SOL    HW251260  11.393  12.598   2.306
16455SOL     OW51261   8.287   2.956  13.181
16455SOL    HW151262   8.342   2.877  13.176
16455SOL    HW251263   8.245   2.961  13.095
16456SOL     OW51264  11.819  11.265   8.172
16456SOL    HW151265  11.879  11.218   8.115
16456SOL    HW251266  11.811  11.352   8.132
16457SOL     OW51267  11.442   0.656  12.270
16457SOL    HW151268  11.523   0.642  12.320
16457SOL    HW251269  11.401   0.731  12.313
16458SOL     OW51270  12.945  13.849  12.208
16458SOL    HW151271  13.020  13.900  12.237
16458SOL    HW251272  12.871  13.887  12.255
16459SOL     OW51273  11.668  11.550   2.767
16459SOL    HW151274  11.687  11.459   2.744
16459SOL    HW251275  11.606  11.544   2.839
16460SOL     OW51276  12.707   8.196   4.233
16460SOL    HW151277  12.726   8.137   4.307
16460SOL    HW251278  12.667   8.273   4.274
16461SOL     OW51279   9.581   3.858   0.149
16461SOL    HW151280   9.597   3.868   0.243
16461SOL    HW251281   9.640   3.788   0.121
16462SOL     OW51282   5.924  11.087  12.408
16462SOL    HW151283   5.966  11.148  12.347
16462SOL    HW251284   5.989  11.075  12.477
16463SOL     OW51285  14.548   6.452   7.631
16463SOL    HW151286  14.632   6.421   7.597
16463SOL    HW251287  14.483   6.398   7.587
16464SOL     OW51288  11.866  13.504   0.781
16464SOL    HW151289  11.927  13.470   0.715
16464SOL    HW251290  11.922  13.539   0.850
16465SOL     OW51291  13.419   5.303   6.670
16465SOL    HW151292  13.411   5.320   6.764
16465SOL    HW251293  13.504   5.341   6.647
16466SOL     OW51294   1.267   4.972  14.721
16466SOL    HW151295   1.277   4.971  14.625
16466SOL    HW251296   1.345   4.927  14.753
16467SOL     OW51297   2.141   3.095  10.341
16467SOL    HW151298   2.176   3.145  10.268
16467SOL    HW251299   2.078   3.035  10.302
16468SOL     OW51300   9.664  11.607  12.172
16468SOL    HW151301   9.610  11.603  12.252
16468SOL    HW251302   9.610  11.566  12.105
16469SOL     OW51303  14.242   0.596   8.536
16469SOL    HW151304  14.244   0.583   8.441
16469SOL    HW251305  14.203   0.682   8.547
16470SOL     OW51306  13.569   1.052  11.778
16470SOL    HW151307  13.632   0.985  11.754
16470SOL    HW251308  13.565   1.110  11.702
16471SOL     OW51309   7.266   2.034   7.556
16471SOL    HW151310   7.321   2.084   7.495
16471SOL    HW251311   7.222   2.101   7.608
16472SOL     OW51312   8.343   3.408  14.512
16472SOL    HW151313   8.271   3.452  14.468
16472SOL    HW251314   8.322   3.417  14.605
16473SOL     OW51315   1.931  10.689   1.420
16473SOL    HW151316   1.913  10.719   1.331
16473SOL    HW251317   1.852  10.642   1.446
16474SOL     OW51318  10.593   7.535   0.041
16474SOL    HW151319  10.617   7.623   0.014
16474SOL    HW251320  10.514   7.547   0.093
16475SOL     OW51321  10.170  14.847   1.690
16475SOL    HW151322  10.210   0.003   1.606
16475SOL    HW251323  10.144  14.756   1.677
16476SOL     OW51324  12.540   7.585   0.120
16476SOL    HW151325  12.516   7.496   0.094
16476SOL    HW251326  12.556   7.631   0.037
16477SOL     OW51327   8.812  14.139   0.527
16477SOL    HW151328   8.878  14.093   0.578
16477SOL    HW251329   8.825  14.231   0.550
16478SOL     OW51330   3.333   1.665   4.903
16478SOL    HW151331   3.291   1.722   4.968
16478SOL    HW251332   3.424   1.697   4.899
16479SOL     OW51333   6.526   3.247  10.584
16479SOL    HW151334   6.467   3.315  10.617
16479SOL    HW251335   6.470   3.189  10.533
16480SOL     OW51336   8.321  12.798  11.815
16480SOL    HW151337   8.320  12.738  11.741
16480SOL    HW251338   8.313  12.885  11.775
16481SOL     OW51339  10.470   9.649  12.565
16481SOL    HW151340  10.397   9.712  12.564
16481SOL    HW251341  10.548   9.703  12.557
16482SOL     OW51342   5.581   3.516   6.502
16482SOL    HW151343   5.494   3.508   6.541
16482SOL    HW251344   5.602   3.428   6.472
16483SOL     OW51345   1.242  12.332   4.959
16483SOL    HW151346   1.196  12.407   4.996
16483SOL    HW251347   1.314  12.316   5.021
16484SOL     OW51348   2.518   6.712   8.724
16484SOL    HW151349   2.508   6.772   8.650
16484SOL    HW251350   2.497   6.765   8.801
16485SOL     OW51351   4.885   7.177   3.531
16485SOL    HW151352   4.950   7.195   3.599
16485SOL    HW251353   4.802   7.174   3.577
16486SOL     OW51354   8.709   0.730  12.052
16486SOL    HW151355   8.750   0.663  11.998
16486SOL    HW251356   8.777   0.756  12.114
16487SOL     OW51357  13.512   2.274  14.020
16487SOL    HW151358  13.455   2.324  13.962
16487SOL    HW251359  13.479   2.291  14.108
16488SOL     OW51360   6.031   8.070   5.392
16488SOL    HW151361   5.968   8.084   5.463
16488SOL    HW251362   5.989   8.005   5.336
16489SOL     OW51363  12.579   4.691  10.436
16489SOL    HW151364  12.570   4.652  10.523
16489SOL    HW251365  12.495   4.736  10.422
16490SOL     OW51366   1.334   8.921   8.004
16490SOL    HW151367   1.387   8.986   7.958
16490SOL    HW251368   1.380   8.838   7.990
16491SOL     OW51369   8.165   5.793  11.145
16491SOL    HW151370   8.086   5.756  11.184
16491SOL    HW251371   8.221   5.717  11.129
16492SOL     OW51372  11.611   4.757  13.454
16492SOL    HW151373  11.617   4.852  13.442
16492SOL    HW251374  11.648   4.742  13.541
16493SOL     OW51375   9.049   7.502  14.649
16493SOL    HW151376   9.004   7.581  14.619
16493SOL    HW251377   9.020   7.433  14.589
16494SOL     OW51378   2.321   1.651  14.631
16494SOL    HW151379   2.368   1.636  14.549
16494SOL    HW251380   2.242   1.597  14.623
16495SOL     OW51381   3.963   9.303   4.792
16495SOL    HW151382   4.032   9.261   4.741
16495SOL    HW251383   3.917   9.231   4.834
16496SOL     OW51384   9.284  12.768  12.457
16496SOL    HW151385   9.217  12.711  12.496
16496SOL    HW251386   9.265  12.765  12.363
16497SOL     OW51387   6.241  11.067  10.734
16497SOL    HW151388   6.306  11.078  10.802
16497SOL    HW251389   6.288  11.085  10.652
16498SOL     OW51390   8.650   6.864   0.953
16498SOL    HW151391   8.681   6.802   1.020
16498SOL    HW251392   8.599   6.929   1.002
16499SOL     OW51393   7.486   2.842   9.463
16499SOL    HW151394   7.444   2.822   9.546
16499SOL    HW251395   7.548   2.771   9.449
16500SOL     OW51396  12.925   6.783   4.252
16500SOL    HW151397  12.890   6.799   4.164
16500SOL    HW251398  12.857   6.816   4.311
16501SOL     OW51399   3.484   5.784   3.826
16501SOL    HW151400   3.412   5.759   3.883
16501SOL    HW251401   3.536   5.845   3.878
16502SOL     OW51402   3.749   7.225  10.192
16502SOL    HW151403   3.760   7.165  10.265
16502SOL    HW251404   3.826   7.282  10.197
16503SOL     OW51405  10.834   7.786   6.802
16503SOL    HW151406  10.757   7.793   6.746
16503SOL    HW251407  10.907   7.781   6.741
16504SOL     OW51408   3.510   6.600   4.310
16504SOL    HW151409   3.464   6.533   4.361
16504SOL    HW251410   3.487   6.682   4.353
16505SOL     OW51411   3.228  11.002   1.640
16505SOL    HW151412   3.206  11.029   1.551
16505SOL    HW251413   3.323  10.994   1.640
16506SOL     OW51414  14.060  11.207   3.831
16506SOL    HW151415  14.077  11.115   3.848
16506SOL    HW251416  13.967  11.211   3.810
16507SOL     OW51417   0.616   1.273   7.983
16507SOL    HW151418   0.564   1.238   8.055
16507SOL    HW251419   0.560   1.263   7.906
16508SOL     OW51420   4.663  14.586   2.373
16508SOL    HW151421   4.594  14.565   2.311
16508SOL    HW251422   4.706  14.502   2.391
16509SOL     OW51423  13.075   6.349   3.548
16509SOL    HW151424  12.991   6.394   3.537
16509SOL    HW251425  13.074   6.319   3.640
16510SOL     OW51426  13.779  14.818  10.276
16510SOL    HW151427  13.731   0.031  10.287
16510SOL    HW251428  13.812  14.797  10.363
16511SOL     OW51429  10.427   0.504   1.817
16511SOL    HW151430  10.451   0.564   1.887
16511SOL    HW251431  10.500   0.508   1.755
16512SOL     OW51432   5.859   8.794   3.300
16512SOL    HW151433   5.916   8.796   3.223
16512SOL    HW251434   5.818   8.880   3.301
16513SOL     OW51435  10.154   1.312  11.532
16513SOL    HW151436  10.074   1.303  11.585
16513SOL    HW251437  10.128   1.369  11.459
16514SOL     OW51438   1.751   3.173  13.523
16514SOL    HW151439   1.815   3.240  13.502
16514SOL    HW251440   1.738   3.125  13.441
16515SOL     OW51441   7.558  12.262   2.757
16515SOL    HW151442   7.643  12.229   2.726
16515SOL    HW251443   7.507  12.273   2.677
16516SOL     OW51444   7.826   3.575   0.312
16516SOL    HW151445   7.859   3.579   0.402
16516SOL    HW251446   7.826   3.482   0.290
16517SOL     OW51447  12.298  10.968   1.993
16517SOL    HW151448  12.329  10.904   1.929
16517SOL    HW251449  12.213  10.997   1.958
16518SOL     OW51450  11.469   4.697   0.159
16518SOL    HW151451  11.498   4.752   0.231
16518SOL    HW251452  11.374   4.694   0.168
16519SOL     OW51453   3.023   3.004   1.981
16519SOL    HW151454   3.062   3.016   1.895
16519SOL    HW251455   2.928   3.006   1.965
16520SOL     OW51456   1.166   1.577  13.646
16520SOL    HW151457   1.125   1.652  13.688
16520SOL    HW251458   1.244   1.613  13.603
16521SOL     OW51459   8.688  12.310   4.862
16521SOL    HW151460   8.633  12.232   4.874
16521SOL    HW251461   8.735  12.293   4.780
16522SOL     OW51462   6.952  12.303   8.978
16522SOL    HW151463   6.966  12.251   8.899
16522SOL    HW251464   6.971  12.393   8.951
16523SOL     OW51465   3.162  13.577  13.025
16523SOL    HW151466   3.138  13.655  12.976
16523SOL    HW251467   3.081  13.549  13.068
16524SOL     OW51468   4.245   4.056   1.814
16524SOL    HW151469   4.182   4.043   1.885
16524SOL    HW251470   4.319   4.000   1.835
16525SOL     OW51471  13.774   8.728   8.014
16525SOL    HW151472  13.707   8.772   7.961
16525SOL    HW251473  13.794   8.648   7.966
16526SOL     OW51474   7.747   2.632   0.511
16526SOL    HW151475   7.830   2.676   0.493
16526SOL    HW251476   7.681   2.691   0.474
16527SOL     OW51477   6.664   6.095   8.368
16527SOL    HW151478   6.746   6.047   8.381
16527SOL    HW251479   6.647   6.089   8.274
16528SOL     OW51480   9.542   4.884   5.877
16528SOL    HW151481   9.530   4.910   5.786
16528SOL    HW251482   9.508   4.794   5.881
16529SOL     OW51483   1.957   5.753  10.005
16529SOL    HW151484   1.942   5.795  10.089
16529SOL    HW251485   2.035   5.699  10.018
16530SOL     OW51486   0.974  14.033   2.669
16530SOL    HW151487   0.952  14.123   2.646
16530SOL    HW251488   0.995  14.037   2.762
16531SOL     OW51489   8.053   2.503   6.707
16531SOL    HW151490   8.037   2.549   6.625
16531SOL    HW251491   8.135   2.539   6.739
16532SOL     OW51492  13.499  11.670  11.500
16532SOL    HW151493  13.502  11.722  11.580
16532SOL    HW251494  13.584  11.627  11.497
16533SOL     OW51495  14.597   7.444   0.806
16533SOL    HW151496  14.572   7.378   0.871
16533SOL    HW251497  14.543   7.424   0.730
16534SOL     OW51498   8.625   6.261   1.618
16534SOL    HW151499   8.612   6.314   1.697
16534SOL    HW251500   8.709   6.290   1.584
16535SOL     OW51501   2.897   9.612   5.401
16535SOL    HW151502   2.867   9.693   5.361
16535SOL    HW251503   2.922   9.557   5.326
16536SOL     OW51504  13.820  11.252   7.711
16536SOL    HW151505  13.882  11.268   7.641
16536SOL    HW251506  13.870  11.264   7.792
16537SOL     OW51507   3.911   3.691   5.331
16537SOL    HW151508   3.948   3.709   5.418
16537SOL    HW251509   3.986   3.661   5.280
16538SOL     OW51510   7.555   2.123  10.167
16538SOL    HW151511   7.464   2.149  10.156
16538SOL    HW251512   7.551   2.028  10.180
16539SOL     OW51513   3.841   3.713  12.471
16539SOL    HW151514   3.767   3.697  12.530
16539SOL    HW251515   3.801   3.726  12.385
16540SOL     OW51516   8.267   1.427  14.117
16540SOL    HW151517   8.222   1.438  14.034
16540SOL    HW251518   8.349   1.382  14.094
16541SOL     OW51519   5.044   2.487   8.645
16541SOL    HW151520   5.095   2.566   8.628
16541SOL    HW251521   5.110   2.419   8.660
16542SOL     OW51522  12.396  11.256   4.594
16542SOL    HW151523  12.387  11.239   4.687
16542SOL    HW251524  12.478  11.215   4.569
16543SOL     OW51525   0.824   9.731   6.321
16543SOL    HW151526   0.780   9.811   6.350
16543SOL    HW251527   0.820   9.673   6.397
16544SOL     OW51528  12.409   6.219   1.918
16544SOL    HW151529  12.334   6.189   1.867
16544SOL    HW251530  12.416   6.157   1.990
16545SOL     OW51531  12.344  10.121   0.203
16545SOL    HW151532  12.276  10.156   0.260
16545SOL    HW251533  12.373  10.196   0.151
16546SOL     OW51534  13.847   7.243   9.037
16546SOL    HW151535  13.767   7.243   8.985
16546SOL    HW251536  13.875   7.334   9.040
16547SOL     OW51537   2.644   1.021   6.851
16547SOL    HW151538   2.616   0.972   6.928
16547SOL    HW251539   2.738   1.005   6.846
16548SOL     OW51540  14.425   5.777   9.545
16548SOL    HW151541  14.385   5.774   9.457
16548SOL    HW251542  14.352   5.801   9.603
16549SOL     OW51543   7.871   9.013  12.796
16549SOL    HW151544   7.947   8.956  12.786
16549SOL    HW251545   7.878   9.075  12.723
16550SOL     OW51546  11.097   6.008  13.416
16550SOL    HW151547  11.058   6.093  13.398
16550SOL    HW251548  11.191   6.022  13.408
16551SOL     OW51549   9.629   1.613   9.846
16551SOL    HW151550   9.625   1.531   9.895
16551SOL    HW251551   9.558   1.606   9.782
16552SOL     OW51552   0.816  13.617  11.960
16552SOL    HW151553   0.745  13.621  11.897
16552SOL    HW251554   0.799  13.689  12.021
16553SOL     OW51555   2.356   3.481   0.986
16553SOL    HW151556   2.412   3.464   0.911
16553SOL    HW251557   2.384   3.566   1.019
16554SOL     OW51558   2.361  11.519   7.512
16554SOL    HW151559   2.371  11.488   7.601
16554SOL    HW251560   2.427  11.471   7.462
16555SOL     OW51561  13.303   1.600  11.106
16555SOL    HW151562  13.235   1.634  11.048
16555SOL    HW251563  13.309   1.665  11.176
16556SOL     OW51564   2.293  12.661  12.353
16556SOL    HW151565   2.326  12.666  12.263
16556SOL    HW251566   2.297  12.568  12.374
16557SOL     OW51567  11.099   7.938   3.774
16557SOL    HW151568  11.073   7.985   3.695
16557SOL    HW251569  11.016   7.908   3.812
16558SOL     OW51570   3.636   4.139   8.174
16558SOL    HW151571   3.680   4.225   8.171
16558SOL    HW251572   3.707   4.076   8.165
16559SOL     OW51573   2.657  12.441  11.853
16559SOL    HW151574   2.612  12.356  11.854
16559SOL    HW251575   2.739  12.425  11.900
16560SOL     OW51576   1.529  12.035  12.482
16560SOL    HW151577   1.471  12.044  12.406
16560SOL    HW251578   1.608  12.084  12.457
16561SOL     OW51579   5.949   1.091   2.377
16561SOL    HW151580   5.999   1.022   2.334
16561SOL    HW251581   5.918   1.050   2.458
16562SOL     OW51582   1.312   4.523   0.431
16562SOL    HW151583   1.293   4.493   0.342
16562SOL    HW251584   1.248   4.477   0.486
16563SOL     OW51585   1.122   1.307   7.746
16563SOL    HW151586   1.049   1.347   7.794
16563SOL    HW251587   1.143   1.229   7.797
16564SOL     OW51588  10.792   7.391   6.447
16564SOL    HW151589  10.815   7.480   6.470
16564SOL    HW251590  10.697   7.391   6.441
16565SOL     OW51591  10.575  12.366   1.586
16565SOL    HW151592  10.588  12.322   1.670
16565SOL    HW251593  10.494  12.416   1.597
16566SOL     OW51594   5.058   4.809  12.728
16566SOL    HW151595   5.031   4.718  12.737
16566SOL    HW251596   4.992   4.848  12.670
16567SOL     OW51597   1.661   1.963   2.231
16567SOL    HW151598   1.691   2.011   2.308
16567SOL    HW251599   1.735   1.968   2.170
16568SOL     OW51600  11.896  14.543   4.132
16568SOL    HW151601  11.860  14.586   4.209
16568SOL    HW251602  11.834  14.564   4.062
16569SOL     OW51603   6.940   9.051   4.019
16569SOL    HW151604   6.979   9.015   4.098
16569SOL    HW251605   6.922   9.143   4.039
16570SOL     OW51606   0.118   2.982   5.528
16570SOL    HW151607   0.031   2.941   5.520
16570SOL    HW251608   0.108   3.067   5.486
16571SOL     OW51609  10.187  13.308  14.116
16571SOL    HW151610  10.192  13.259  14.198
16571SOL    HW251611  10.276  13.343  14.104
16572SOL     OW51612  13.188  10.068  14.710
16572SOL    HW151613  13.270  10.108  14.678
16572SOL    HW251614  13.217   9.991  14.759
16573SOL     OW51615   2.741   0.056   8.286
16573SOL    HW151616   2.652   0.025   8.307
16573SOL    HW251617   2.790   0.042   8.367
16574SOL     OW51618   5.209  12.959  12.289
16574SOL    HW151619   5.143  13.023  12.261
16574SOL    HW251620   5.293  13.003  12.274
16575SOL     OW51621  14.587   1.638  10.193
16575SOL    HW151622  14.650   1.654  10.263
16575SOL    HW251623  14.502   1.662  10.232
16576SOL     OW51624   2.233   2.055   9.206
16576SOL    HW151625   2.289   2.002   9.262
16576SOL    HW251626   2.273   2.049   9.120
16577SOL     OW51627  10.068   0.246   7.083
16577SOL    HW151628   9.976   0.272   7.093
16577SOL    HW251629  10.099   0.298   7.009
16578SOL     OW51630   1.608  14.051   8.096
16578SOL    HW151631   1.660  14.120   8.137
16578SOL    HW251632   1.566  14.093   8.022
16579SOL     OW51633   6.919  10.450   5.191
16579SOL    HW151634   6.947  10.534   5.154
16579SOL    HW251635   6.969  10.384   5.142
16580SOL     OW51636   1.186  12.170   6.303
16580SOL    HW151637   1.172  12.217   6.385
16580SOL    HW251638   1.228  12.235   6.246
16581SOL     OW51639   2.723  10.592   4.255
16581SOL    HW151640   2.764  10.625   4.175
16581SOL    HW251641   2.698  10.671   4.303
16582SOL     OW51642   2.256  14.321   5.396
16582SOL    HW151643   2.330  14.374   5.425
16582SOL    HW251644   2.288  14.274   5.320
16583SOL     OW51645   2.070   3.352   3.226
16583SOL    HW151646   2.101   3.421   3.168
16583SOL    HW251647   2.037   3.284   3.168
16584SOL     OW51648  12.561  14.663   6.724
16584SOL    HW151649  12.638  14.626   6.682
16584SOL    HW251650  12.576  14.648   6.818
16585SOL     OW51651   2.431   6.681   1.110
16585SOL    HW151652   2.378   6.603   1.117
16585SOL    HW251653   2.380   6.740   1.054
16586SOL     OW51654   0.100   4.535   2.031
16586SOL    HW151655   0.054   4.596   1.974
16586SOL    HW251656   0.111   4.583   2.113
16587SOL     OW51657   9.297  10.023   5.051
16587SOL    HW151658   9.296  10.083   4.976
16587SOL    HW251659   9.383   9.981   5.047
16588SOL     OW51660  13.167  14.667  13.559
16588SOL    HW151661  13.192  14.649  13.468
16588SOL    HW251662  13.174  14.582  13.603
16589SOL     OW51663   5.905   0.073   9.376
16589SOL    HW151664   5.971   0.036   9.435
16589SOL    HW251665   5.950   0.145   9.332
16590SOL     OW51666  13.570   3.364  13.393
16590SOL    HW151667  13.648   3.399  13.435
16590SOL    HW251668  13.508   3.350  13.465
16591SOL     OW51669  12.048   7.522   6.551
16591SOL    HW151670  12.054   7.466   6.628
16591SOL    HW251671  12.140   7.542   6.529
16592SOL     OW51672  10.291   4.464   3.198
16592SOL    HW151673  10.337   4.524   3.140
16592SOL    HW251674  10.340   4.382   3.192
16593SOL     OW51675   5.066   8.929   5.540
16593SOL    HW151676   5.001   8.902   5.476
16593SOL    HW251677   5.138   8.965   5.488
16594SOL     OW51678   6.258   2.015   3.529
16594SOL    HW151679   6.330   1.953   3.518
16594SOL    HW251680   6.193   1.967   3.580
16595SOL     OW51681   8.121  13.192   4.447
16595SOL    HW151682   8.205  13.147   4.460
16595SOL    HW251683   8.081  13.146   4.373
16596SOL     OW51684  10.559  14.466   9.467
16596SOL    HW151685  10.637  14.510   9.499
16596SOL    HW251686  10.496  14.536   9.454
16597SOL     OW51687   0.029   5.295   3.615
16597SOL    HW151688   0.037   5.253   3.529
16597SOL    HW251689   0.089   5.369   3.612
16598SOL     OW51690   1.634  11.655   0.072
16598SOL    HW151691   1.713  11.608   0.097
16598SOL    HW251692   1.643  11.740   0.115
16599SOL     OW51693   0.624   7.909   0.011
16599SOL    HW151694   0.544   7.927   0.059
16599SOL    HW251695   0.679   7.862   0.074
16600SOL     OW51696   5.111  10.033  10.351
16600SOL    HW151697   5.201  10.002  10.362
16600SOL    HW251698   5.099  10.098  10.420
16601SOL     OW51699   9.934  10.512   5.830
16601SOL    HW151700  10.013  10.466   5.804
16601SOL    HW251701   9.869  10.486   5.764
16602SOL     OW51702   5.297   4.249   0.018
16602SOL    HW151703   5.392   4.248   0.018
16602SOL    HW251704   5.274   4.330  14.842
16603SOL     OW51705   5.328   1.074   5.494
16603SOL    HW151706   5.271   1.147   5.468
16603SOL    HW251707   5.287   0.997   5.454
16604SOL     OW51708   8.860   9.764  11.555
16604SOL    HW151709   8.875   9.788  11.463
16604SOL    HW251710   8.948   9.761  11.593
16605SOL     OW51711   3.077   8.549  14.597
16605SOL    HW151712   3.123   8.546  14.681
16605SOL    HW251713   3.104   8.469  14.552
16606SOL     OW51714   3.825   4.587  13.094
16606SOL    HW151715   3.818   4.562  13.186
16606SOL    HW251716   3.854   4.678  13.097
16607SOL     OW51717   2.368   3.843   0.049
16607SOL    HW151718   2.423   3.896   0.106
16607SOL    HW251719   2.374   3.755   0.086
16608SOL     OW51720   5.208  10.101  11.929
16608SOL    HW151721   5.133  10.152  11.960
16608SOL    HW251722   5.226  10.135  11.842
16609SOL     OW51723   4.762   2.908   8.185
16609SOL    HW151724   4.806   2.989   8.158
16609SOL    HW251725   4.803   2.841   8.131
16610SOL     OW51726   6.419   9.142   3.222
16610SOL    HW151727   6.492   9.203   3.209
16610SOL    HW251728   6.456   9.056   3.203
16611SOL     OW51729  13.760  10.130   8.924
16611SOL    HW151730  13.731  10.114   8.834
16611SOL    HW251731  13.807  10.214   8.919
16612SOL     OW51732   0.521   3.386  12.400
16612SOL    HW151733   0.428   3.383  12.376
16612SOL    HW251734   0.521   3.400  12.494
16613SOL     OW51735   4.604   6.521   4.523
16613SOL    HW151736   4.524   6.487   4.563
16613SOL    HW251737   4.675   6.480   4.572
16614SOL     OW51738   5.190  14.331  12.505
16614SOL    HW151739   5.258  14.339  12.572
16614SOL    HW251740   5.236  14.342  12.422
16615SOL     OW51741   7.425   5.492   6.388
16615SOL    HW151742   7.488   5.459   6.324
16615SOL    HW251743   7.461   5.467   6.473
16616SOL     OW51744   7.395   0.085   7.117
16616SOL    HW151745   7.411   0.059   7.208
16616SOL    HW251746   7.419   0.178   7.114
16617SOL     OW51747   6.957   7.137   3.054
16617SOL    HW151748   6.965   7.166   3.145
16617SOL    HW251749   6.955   7.042   3.059
16618SOL     OW51750   5.073   7.978   7.411
16618SOL    HW151751   5.163   7.966   7.442
16618SOL    HW251752   5.082   7.987   7.316
16619SOL     OW51753   1.469  11.453  13.344
16619SOL    HW151754   1.503  11.414  13.263
16619SOL    HW251755   1.496  11.544  13.339
16620SOL     OW51756   8.425   0.620   3.136
16620SOL    HW151757   8.509   0.630   3.091
16620SOL    HW251758   8.364   0.672   3.083
16621SOL     OW51759  14.571   0.090  14.819
16621SOL    HW151760  14.640   0.062   0.010
16621SOL    HW251761  14.581   0.033  14.743
16622SOL     OW51762   3.326   2.052  12.362
16622SOL    HW151763   3.348   2.123  12.422
16622SOL    HW251764   3.378   2.071  12.283
16623SOL     OW51765   9.822   3.998   6.013
16623SOL    HW151766   9.916   4.016   6.007
16623SOL    HW251767   9.803   3.942   5.938
16624SOL     OW51768   3.252  11.515  14.456
16624SOL    HW151769   3.283  11.598  14.420
16624SOL    HW251770   3.213  11.469  14.381
16625SOL     OW51771  10.914   6.756   6.463
16625SOL    HW151772  10.849   6.800   6.517
16625SOL    HW251773  10.867   6.680   6.427
16626SOL     OW51774   1.630   4.953   7.339
16626SOL    HW151775   1.565   5.021   7.321
16626SOL    HW251776   1.620   4.890   7.267
16627SOL     OW51777   0.879   1.693   2.756
16627SOL    HW151778   0.881   1.619   2.817
16627SOL    HW251779   0.842   1.657   2.676
16628SOL     OW51780   7.373   7.502   6.091
16628SOL    HW151781   7.450   7.557   6.105
16628SOL    HW251782   7.408   7.413   6.081
16629SOL     OW51783  12.364   4.387  11.107
16629SOL    HW151784  12.320   4.471  11.089
16629SOL    HW251785  12.392   4.394  11.198
16630SOL     OW51786  11.980   2.299   9.758
16630SOL    HW151787  11.972   2.342   9.843
16630SOL    HW251788  11.933   2.216   9.769
16631SOL     OW51789   2.880  13.657  10.619
16631SOL    HW151790   2.818  13.616  10.679
16631SOL    HW251791   2.943  13.588  10.598
16632SOL     OW51792  13.606   7.000   9.019
16632SOL    HW151793  13.665   6.926   9.006
16632SOL    HW251794  13.563   7.012   8.935
16633SOL     OW51795   8.977   3.244   4.162
16633SOL    HW151796   8.947   3.332   4.139
16633SOL    HW251797   9.064   3.258   4.201
16634SOL     OW51798   7.990   6.662   8.265
16634SOL    HW151799   8.003   6.751   8.299
16634SOL    HW251800   8.059   6.651   8.200
16635SOL     OW51801  14.595   1.406  11.418
16635SOL    HW151802  14.542   1.484  11.435
16635SOL    HW251803  14.591   1.394  11.323
16636SOL     OW51804   7.969   5.287  13.602
16636SOL    HW151805   7.977   5.335  13.684
16636SOL    HW251806   7.934   5.202  13.627
16637SOL     OW51807  14.444  10.348   5.135
16637SOL    HW151808  14.405  10.325   5.219
16637SOL    HW251809  14.385  10.414   5.099
16638SOL     OW51810  12.431   9.926   7.987
16638SOL    HW151811  12.513   9.937   7.939
16638SOL    HW251812  12.374   9.880   7.925
16639SOL     OW51813   8.579   7.850   3.119
16639SOL    HW151814   8.513   7.807   3.173
16639SOL    HW251815   8.609   7.782   3.059
16640SOL     OW51816   1.061   1.531   5.335
16640SOL    HW151817   0.969   1.537   5.360
16640SOL    HW251818   1.066   1.452   5.281
16641SOL     OW51819   8.316  12.545   8.662
16641SOL    HW151820   8.272  12.629   8.674
16641SOL    HW251821   8.369  12.535   8.742
16642SOL     OW51822   7.137  11.055   1.683
16642SOL    HW151823   7.071  11.011   1.630
16642SOL    HW251824   7.214  10.999   1.676
16643SOL     OW51825   7.465  13.422  11.883
16643SOL    HW151826   7.470  13.377  11.968
16643SOL    HW251827   7.385  13.387  11.843
16644SOL     OW51828  14.459  10.739   2.804
16644SOL    HW151829  14.484  10.825   2.771
16644SOL    HW251830  14.364  10.746   2.817
16645SOL     OW51831   8.888  14.209   1.943
16645SOL    HW151832   8.899  14.154   1.865
16645SOL    HW251833   8.959  14.181   2.001
16646SOL     OW51834  13.052   7.937  13.045
16646SOL    HW151835  13.084   7.883  13.118
16646SOL    HW251836  13.127   7.947  12.988
16647SOL     OW51837  13.280   3.416   8.657
16647SOL    HW151838  13.279   3.511   8.664
16647SOL    HW251839  13.292   3.399   8.563
16648SOL     OW51840   2.631   4.187   3.238
16648SOL    HW151841   2.559   4.152   3.187
16648SOL    HW251842   2.669   4.110   3.281
16649SOL     OW51843   5.439   6.558   9.798
16649SOL    HW151844   5.465   6.587   9.711
16649SOL    HW251845   5.428   6.639   9.848
16650SOL     OW51846  12.108  14.179  12.327
16650SOL    HW151847  12.087  14.253  12.270
16650SOL    HW251848  12.202  14.188  12.344
16651SOL     OW51849  13.083   5.439   4.250
16651SOL    HW151850  13.140   5.367   4.275
16651SOL    HW251851  13.068   5.427   4.156
16652SOL     OW51852   5.332  14.820   6.122
16652SOL    HW151853   5.370  14.762   6.057
16652SOL    HW251854   5.238  14.806   6.117
16653SOL     OW51855   5.825  11.717   0.035
16653SOL    HW151856   5.838  11.715   0.130
16653SOL    HW251857   5.785  11.633   0.015
16654SOL     OW51858  11.374   0.939  11.162
16654SOL    HW151859  11.419   0.918  11.244
16654SOL    HW251860  11.316   1.012  11.185
16655SOL     OW51861   7.655   2.643   9.816
16655SOL    HW151862   7.565   2.673   9.827
16655SOL    HW251863   7.702   2.718   9.781
16656SOL     OW51864   3.039  11.268   4.219
16656SOL    HW151865   3.012  11.336   4.158
16656SOL    HW251866   3.128  11.293   4.244
16657SOL     OW51867   2.044   5.835  11.493
16657SOL    HW151868   2.078   5.868  11.410
16657SOL    HW251869   1.991   5.907  11.527
16658SOL     OW51870  12.652   5.685  14.120
16658SOL    HW151871  12.582   5.689  14.185
16658SOL    HW251872  12.658   5.592  14.098
16659SOL     OW51873  10.374  13.203   1.513
16659SOL    HW151874  10.389  13.296   1.530
16659SOL    HW251875  10.297  13.202   1.455
16660SOL     OW51876   3.125  10.708   1.121
16660SOL    HW151877   3.146  10.614   1.122
16660SOL    HW251878   3.182  10.745   1.189
16661SOL     OW51879   1.130   1.248   0.863
16661SOL    HW151880   1.046   1.292   0.879
16661SOL    HW251881   1.116   1.197   0.783
16662SOL     OW51882   7.893  11.431   2.085
16662SOL    HW151883   7.934  11.515   2.106
16662SOL    HW251884   7.833  11.450   2.013
16663SOL     OW51885   4.524   9.271   1.471
16663SOL    HW151886   4.541   9.245   1.380
16663SOL    HW251887   4.595   9.231   1.521
16664SOL     OW51888  14.516  10.114   1.486
16664SOL    HW151889  14.489  10.028   1.456
16664SOL    HW251890  14.594  10.098   1.540
16665SOL     OW51891   1.463   8.827   8.609
16665SOL    HW151892   1.416   8.889   8.553
16665SOL    HW251893   1.407   8.750   8.613
16666SOL     OW51894   6.924   4.708   9.306
16666SOL    HW151895   6.968   4.684   9.388
16666SOL    HW251896   6.989   4.690   9.238
16667SOL     OW51897   4.371  11.983   2.795
16667SOL    HW151898   4.367  11.973   2.700
16667SOL    HW251899   4.316  11.912   2.829
16668SOL     OW51900   8.989   7.505   6.888
16668SOL    HW151901   9.008   7.530   6.798
16668SOL    HW251902   8.896   7.480   6.887
16669SOL     OW51903   0.558  10.672   3.277
16669SOL    HW151904   0.523  10.759   3.261
16669SOL    HW251905   0.652  10.680   3.264
16670SOL     OW51906   3.353  11.383   0.809
16670SOL    HW151907   3.348  11.441   0.885
16670SOL    HW251908   3.334  11.440   0.734
16671SOL     OW51909   0.230  14.069  13.463
16671SOL    HW151910   0.324  14.052  13.471
16671SOL    HW251911   0.221  14.110  13.376
16672SOL     OW51912   2.667   5.406   6.682
16672SOL    HW151913   2.693   5.314   6.694
16672SOL    HW251914   2.730   5.456   6.733
16673SOL     OW51915   7.065   5.509   7.516
16673SOL    HW151916   7.042   5.602   7.512
16673SOL    HW251917   7.082   5.484   7.425
16674SOL     OW51918   7.397  14.497  12.171
16674SOL    HW151919   7.393  14.589  12.143
16674SOL    HW251920   7.326  14.454  12.123
16675SOL     OW51921   2.174   8.906   7.060
16675SOL    HW151922   2.209   8.969   6.998
16675SOL    HW251923   2.245   8.891   7.122
16676SOL     OW51924  11.614   1.512  13.376
16676SOL    HW151925  11.590   1.604  13.371
16676SOL    HW251926  11.621   1.494  13.470
16677SOL     OW51927   4.290   6.102   9.504
16677SOL    HW151928   4.313   6.013   9.477
16677SOL    HW251929   4.238   6.091   9.583
16678SOL     OW51930   6.944  10.779   0.129
16678SOL    HW151931   6.877  10.747   0.069
16678SOL    HW251932   7.023  10.786   0.075
16679SOL     OW51933  10.101   5.683  14.455
16679SOL    HW151934  10.145   5.750  14.402
16679SOL    HW251935  10.007   5.701  14.444
16680SOL     OW51936  10.127   8.895   4.220
16680SOL    HW151937  10.075   8.821   4.189
16680SOL    HW251938  10.064   8.951   4.266
16681SOL     OW51939   3.675   8.197   9.928
16681SOL    HW151940   3.628   8.254   9.867
16681SOL    HW251941   3.743   8.253   9.965
16682SOL     OW51942   6.292  13.124   3.551
16682SOL    HW151943   6.236  13.052   3.581
16682SOL    HW251944   6.333  13.089   3.471
16683SOL     OW51945   6.392   3.336  14.174
16683SOL    HW151946   6.391   3.420  14.127
16683SOL    HW251947   6.342   3.277  14.119
16684SOL     OW51948   4.886   1.891   5.739
16684SOL    HW151949   4.845   1.886   5.825
16684SOL    HW251950   4.850   1.818   5.690
16685SOL     OW51951  11.884   6.935  11.257
16685SOL    HW151952  11.868   6.870  11.325
16685SOL    HW251953  11.918   6.885  11.183
16686SOL     OW51954   7.609   0.890  14.848
16686SOL    HW151955   7.548   0.857   0.044
16686SOL    HW251956   7.645   0.812  14.807
16687SOL     OW51957  14.534   2.240   8.459
16687SOL    HW151958  14.467   2.304   8.484
16687SOL    HW251959  14.570   2.209   8.542
16688SOL     OW51960   5.211   6.834  12.289
16688SOL    HW151961   5.169   6.792  12.214
16688SOL    HW251962   5.303   6.842  12.263
16689SOL     OW51963   3.154   6.385   0.823
16689SOL    HW151964   3.075   6.392   0.770
16689SOL    HW251965   3.124   6.352   0.908
16690SOL     OW51966   1.085   2.390   9.244
16690SOL    HW151967   1.046   2.439   9.172
16690SOL    HW251968   1.010   2.357   9.294
16691SOL     OW51969   7.731   2.218   6.189
16691SOL    HW151970   7.698   2.260   6.109
16691SOL    HW251971   7.735   2.125   6.166
16692SOL     OW51972   4.524  14.434   7.043
16692SOL    HW151973   4.607  14.394   7.016
16692SOL    HW251974   4.536  14.527   7.028
16693SOL     OW51975   4.561   1.916  11.886
16693SOL    HW151976   4.550   1.848  11.820
16693SOL    HW251977   4.487   1.975  11.872
16694SOL     OW51978  11.339  13.472  10.470
16694SOL    HW151979  11.286  13.445  10.394
16694SOL    HW251980  11.319  13.565  10.481
16695SOL     OW51981   0.912   8.381  12.917
16695SOL    HW151982   0.951   8.331  12.845
16695SOL    HW251983   0.909   8.319  12.990
16696SOL     OW51984   9.437  14.102  14.095
16696SOL    HW151985   9.467  14.182  14.139
16696SOL    HW251986   9.410  14.131  14.008
16697SOL     OW51987  12.793   0.398   4.193
16697SOL    HW151988  12.711   0.429   4.156
16697SOL    HW251989  12.814   0.462   4.261
16698SOL     OW51990   8.784   7.961  13.371
16698SOL    HW151991   8.833   7.891  13.413
16698SOL    HW251992   8.713   7.917  13.325
16699SOL     OW51993  11.784   9.283   3.887
16699SOL    HW151994  11.762   9.360   3.834
16699SOL    HW251995  11.837   9.318   3.959
16700SOL     OW51996   0.022   0.431   6.582
16700SOL    HW151997  14.850   0.396   6.661
16700SOL    HW251998   0.103   0.381   6.573
16701SOL     OW51999   4.133   8.315  12.484
16701SOL    HW152000   4.070   8.341  12.417
16701SOL    HW252001   4.088   8.246  12.533
16702SOL     OW52002   8.525   5.042   0.707
16702SOL    HW152003   8.488   5.115   0.659
16702SOL    HW252004   8.609   5.025   0.663
16703SOL     OW52005   0.370   3.011  10.655
16703SOL    HW152006   0.313   2.945  10.616
16703SOL    HW252007   0.353   3.004  10.749
16704SOL     OW52008   3.107  10.932   3.130
16704SOL    HW152009   3.079  10.841   3.138
16704SOL    HW252010   3.192  10.934   3.174
16705SOL     OW52011  10.874   7.238  12.040
16705SOL    HW152012  10.856   7.202  12.126
16705SOL    HW252013  10.821   7.185  11.980
16706SOL     OW52014   9.079  13.346   7.676
16706SOL    HW152015   9.056  13.280   7.610
16706SOL    HW252016   9.075  13.300   7.759
16707SOL     OW52017   3.207   1.284   3.321
16707SOL    HW152018   3.208   1.366   3.369
16707SOL    HW252019   3.171   1.306   3.235
16708SOL     OW52020   7.582   8.134  10.247
16708SOL    HW152021   7.599   8.066  10.181
16708SOL    HW252022   7.646   8.202  10.228
16709SOL     OW52023   5.459   8.315   5.828
16709SOL    HW152024   5.528   8.265   5.870
16709SOL    HW252025   5.462   8.288   5.736
16710SOL     OW52026  11.944   7.348   0.145
16710SOL    HW152027  11.871   7.303   0.101
16710SOL    HW252028  12.021   7.325   0.094
16711SOL     OW52029   3.631   4.620   0.861
16711SOL    HW152030   3.647   4.546   0.804
16711SOL    HW252031   3.553   4.597   0.911
16712SOL     OW52032  10.934   4.195   3.157
16712SOL    HW152033  11.006   4.161   3.104
16712SOL    HW252034  10.946   4.290   3.155
16713SOL     OW52035   9.117   0.494   7.352
16713SOL    HW152036   9.131   0.518   7.443
16713SOL    HW252037   9.189   0.535   7.305
16714SOL     OW52038  11.663  11.369   6.492
16714SOL    HW152039  11.602  11.296   6.505
16714SOL    HW252040  11.693  11.392   6.580
16715SOL     OW52041  11.875   8.789   7.483
16715SOL    HW152042  11.820   8.781   7.405
16715SOL    HW252043  11.939   8.718   7.473
16716SOL     OW52044   7.823  14.219   9.021
16716SOL    HW152045   7.889  14.286   9.001
16716SOL    HW252046   7.837  14.198   9.114
16717SOL     OW52047  10.673  13.785  12.662
16717SOL    HW152048  10.673  13.705  12.714
16717SOL    HW252049  10.616  13.764  12.587
16718SOL     OW52050   9.339   3.092  10.398
16718SOL    HW152051   9.371   3.053  10.479
16718SOL    HW252052   9.267   3.149  10.425
16719SOL     OW52053  12.254  12.712  12.757
16719SOL    HW152054  12.322  12.764  12.714
16719SOL    HW252055  12.301  12.658  12.821
16720SOL     OW52056   3.120   5.086  13.818
16720SOL    HW152057   3.064   5.097  13.895
16720SOL    HW252058   3.198   5.136  13.837
16721SOL     OW52059   0.155  13.093  10.942
16721SOL    HW152060   0.079  13.130  10.987
16721SOL    HW252061   0.143  12.999  10.949
16722SOL     OW52062   5.096   6.834   8.622
16722SOL    HW152063   5.145   6.826   8.704
16722SOL    HW252064   5.131   6.912   8.580
16723SOL     OW52065   9.254  12.683   2.493
16723SOL    HW152066   9.281  12.649   2.408
16723SOL    HW252067   9.334  12.716   2.533
16724SOL     OW52068   6.185   0.601   0.634
16724SOL    HW152069   6.131   0.678   0.615
16724SOL    HW252070   6.266   0.617   0.585
16725SOL     OW52071   8.367   2.958  10.398
16725SOL    HW152072   8.361   3.029  10.462
16725SOL    HW252073   8.305   2.982  10.329
16726SOL     OW52074   9.225   6.162  14.608
16726SOL    HW152075   9.174   6.150  14.528
16726SOL    HW252076   9.292   6.095  14.604
16727SOL     OW52077   5.394  11.609   1.713
16727SOL    HW152078   5.477  11.567   1.691
16727SOL    HW252079   5.345  11.610   1.631
16728SOL     OW52080   6.096  13.694   1.958
16728SOL    HW152081   6.024  13.679   2.019
16728SOL    HW252082   6.055  13.730   1.879
16729SOL     OW52083   9.069   8.723   1.383
16729SOL    HW152084   9.159   8.694   1.368
16729SOL    HW252085   9.075   8.786   1.454
16730SOL     OW52086   9.575  10.495  10.090
16730SOL    HW152087   9.599  10.444  10.168
16730SOL    HW252088   9.491  10.535  10.113
16731SOL     OW52089   7.386   2.243   7.414
16731SOL    HW152090   7.445   2.274   7.345
16731SOL    HW252091   7.310   2.301   7.407
16732SOL     OW52092   9.330   4.637   5.193
16732SOL    HW152093   9.250   4.609   5.237
16732SOL    HW252094   9.306   4.642   5.101
16733SOL     OW52095  10.506   6.189  12.931
16733SOL    HW152096  10.414   6.180  12.904
16733SOL    HW252097  10.555   6.187  12.850
16734SOL     OW52098   0.519  13.054   0.498
16734SOL    HW152099   0.441  13.105   0.474
16734SOL    HW252100   0.490  13.000   0.571
16735SOL     OW52101  11.488  10.789   1.695
16735SOL    HW152102  11.530  10.757   1.616
16735SOL    HW252103  11.513  10.726   1.763
16736SOL     OW52104   7.368  10.760   0.359
16736SOL    HW152105   7.361  10.750   0.454
16736SOL    HW252106   7.347  10.853   0.344
16737SOL     OW52107  14.131   3.300  12.298
16737SOL    HW152108  14.067   3.245  12.343
16737SOL    HW252109  14.091   3.386  12.294
16738SOL     OW52110  10.198   2.179   7.132
16738SOL    HW152111  10.130   2.195   7.198
16738SOL    HW252112  10.150   2.145   7.056
16739SOL     OW52113   3.389   6.195   1.505
16739SOL    HW152114   3.408   6.272   1.559
16739SOL    HW252115   3.349   6.230   1.426
16740SOL     OW52116   7.189  10.084   8.182
16740SOL    HW152117   7.120  10.080   8.248
16740SOL    HW252118   7.143  10.072   8.099
16741SOL     OW52119  14.311   6.188   1.291
16741SOL    HW152120  14.380   6.140   1.246
16741SOL    HW252121  14.242   6.123   1.305
16742SOL     OW52122   0.313   2.397   0.351
16742SOL    HW152123   0.394   2.427   0.391
16742SOL    HW252124   0.286   2.469   0.294
16743SOL     OW52125   7.943   4.453  10.512
16743SOL    HW152126   8.021   4.500  10.482
16743SOL    HW252127   7.895   4.434  10.431
16744SOL     OW52128   5.930   3.489  12.754
16744SOL    HW152129   5.875   3.550  12.705
16744SOL    HW252130   5.964   3.429  12.687
16745SOL     OW52131   8.223   3.525   7.018
16745SOL    HW152132   8.220   3.489   7.106
16745SOL    HW252133   8.181   3.611   7.026
16746SOL     OW52134   9.818   2.816  10.606
16746SOL    HW152135   9.911   2.840  10.604
16746SOL    HW252136   9.773   2.897  10.629
16747SOL     OW52137   9.603   1.069  14.393
16747SOL    HW152138   9.584   1.102  14.481
16747SOL    HW252139   9.518   1.058  14.352
16748SOL     OW52140   7.907   9.539   3.045
16748SOL    HW152141   7.849   9.603   3.086
16748SOL    HW252142   7.982   9.590   3.016
16749SOL     OW52143   8.917  13.039   4.765
16749SOL    HW152144   8.845  12.982   4.739
16749SOL    HW252145   8.964  13.057   4.684
16750SOL     OW52146  12.419   5.270   6.281
16750SOL    HW152147  12.465   5.200   6.234
16750SOL    HW252148  12.436   5.253   6.373
16751SOL     OW52149   7.220   8.728  14.569
16751SOL    HW152150   7.295   8.762  14.520
16751SOL    HW252151   7.237   8.754  14.660
16752SOL     OW52152  11.149   0.522   2.970
16752SOL    HW152153  11.168   0.566   3.053
16752SOL    HW252154  11.198   0.571   2.904
16753SOL     OW52155  12.395   4.652   0.746
16753SOL    HW152156  12.338   4.649   0.669
16753SOL    HW252157  12.355   4.717   0.804
16754SOL     OW52158   1.293  12.392   5.498
16754SOL    HW152159   1.314  12.365   5.588
16754SOL    HW252160   1.311  12.486   5.497
16755SOL     OW52161  11.986   4.848   4.751
16755SOL    HW152162  11.964   4.938   4.775
16755SOL    HW252163  11.906   4.798   4.769
16756SOL     OW52164  14.250  14.662   0.651
16756SOL    HW152165  14.253  14.747   0.694
16756SOL    HW252166  14.222  14.601   0.719
16757SOL     OW52167  13.767  12.417  13.928
16757SOL    HW152168  13.821  12.493  13.906
16757SOL    HW252169  13.717  12.400  13.848
16758SOL     OW52170   9.089   0.533   2.511
16758SOL    HW152171   9.089   0.440   2.532
16758SOL    HW252172   9.182   0.557   2.509
16759SOL     OW52173   4.684   6.202   2.566
16759SOL    HW152174   4.652   6.168   2.483
16759SOL    HW252175   4.778   6.186   2.564
16760SOL     OW52176   1.122   6.678  10.903
16760SOL    HW152177   1.213   6.695  10.928
16760SOL    HW252178   1.101   6.749  10.843
16761SOL     OW52179  12.461   8.758  11.905
16761SOL    HW152180  12.453   8.665  11.883
16761SOL    HW252181  12.530   8.762  11.970
16762SOL     OW52182   6.424   6.027   4.899
16762SOL    HW152183   6.363   6.037   4.971
16762SOL    HW252184   6.510   6.015   4.941
16763SOL     OW52185  10.640   4.117  12.877
16763SOL    HW152186  10.730   4.127  12.907
16763SOL    HW252187  10.591   4.184  12.924
16764SOL     OW52188   2.689   9.009  12.419
16764SOL    HW152189   2.639   9.091  12.418
16764SOL    HW252190   2.767   9.029  12.470
16765SOL     OW52191   3.939   5.103   9.908
16765SOL    HW152192   3.958   5.036   9.841
16765SOL    HW252193   3.875   5.061   9.966
16766SOL     OW52194  12.508   6.838  10.793
16766SOL    HW152195  12.480   6.927  10.811
16766SOL    HW252196  12.431   6.795  10.756
16767SOL     OW52197  13.291  14.831   5.581
16767SOL    HW152198  13.287  14.804   5.673
16767SOL    HW252199  13.335   0.046   5.583
16768SOL     OW52200   8.478   2.934   2.165
16768SOL    HW152201   8.427   2.921   2.246
16768SOL    HW252202   8.431   2.885   2.098
16769SOL     OW52203   4.068  10.583   1.579
16769SOL    HW152204   4.137  10.639   1.615
16769SOL    HW252205   4.114  10.510   1.538
16770SOL     OW52206   0.490   0.928   2.879
16770SOL    HW152207   0.516   0.982   2.804
16770SOL    HW252208   0.572   0.905   2.921
16771SOL     OW52209  12.100  13.161   0.125
16771SOL    HW152210  12.132  13.220   0.194
16771SOL    HW252211  12.175  13.106   0.103
16772SOL     OW52212  13.041   3.168   1.295
16772SOL    HW152213  13.088   3.227   1.235
16772SOL    HW252214  12.950   3.198   1.291
16773SOL     OW52215  10.962   9.269   8.841
16773SOL    HW152216  11.049   9.268   8.880
16773SOL    HW252217  10.934   9.177   8.843
16774SOL     OW52218   3.331   8.646   8.382
16774SOL    HW152219   3.286   8.694   8.313
16774SOL    HW252220   3.317   8.698   8.461
16775SOL     OW52221   0.330  10.664   7.512
16775SOL    HW152222   0.333  10.755   7.480
16775SOL    HW252223   0.267  10.621   7.455
16776SOL     OW52224   4.815  12.893   1.946
16776SOL    HW152225   4.841  12.934   1.864
16776SOL    HW252226   4.857  12.946   2.014
16777SOL     OW52227  12.051  10.426  10.458
16777SOL    HW152228  12.130  10.393  10.503
16777SOL    HW252229  12.083  10.499  10.406
16778SOL     OW52230   1.860   7.355  12.487
16778SOL    HW152231   1.798   7.303  12.539
16778SOL    HW252232   1.930   7.376  12.548
16779SOL     OW52233  13.950   5.680  11.609
16779SOL    HW152234  13.870   5.628  11.599
16779SOL    HW252235  13.986   5.652  11.693
16780SOL     OW52236   4.378   0.658   0.728
16780SOL    HW152237   4.427   0.731   0.689
16780SOL    HW252238   4.313   0.635   0.661
16781SOL     OW52239   3.488  11.206   8.463
16781SOL    HW152240   3.569  11.158   8.476
16781SOL    HW252241   3.437  11.188   8.542
16782SOL     OW52242   4.949  12.450   0.179
16782SOL    HW152243   4.908  12.529   0.214
16782SOL    HW252244   4.880  12.384   0.180
16783SOL     OW52245   3.990   0.363   4.134
16783SOL    HW152246   4.083   0.373   4.111
16783SOL    HW252247   3.959   0.294   4.075
16784SOL     OW52248   7.020   9.013   2.452
16784SOL    HW152249   7.060   9.083   2.503
16784SOL    HW252250   6.936   8.996   2.495
16785SOL     OW52251  13.945   8.839  13.539
16785SOL    HW152252  13.899   8.796  13.610
16785SOL    HW252253  13.881   8.842  13.467
16786SOL     OW52254  14.780   8.535  13.839
16786SOL    HW152255  14.757   8.529  13.931
16786SOL    HW252256  14.760   8.626  13.815
16787SOL     OW52257   2.601   7.373   5.526
16787SOL    HW152258   2.596   7.287   5.567
16787SOL    HW252259   2.512   7.392   5.498
16788SOL     OW52260  12.277   0.554  14.539
16788SOL    HW152261  12.197   0.556  14.487
16788SOL    HW252262  12.291   0.645  14.564
16789SOL     OW52263   3.740  13.910  14.051
16789SOL    HW152264   3.811  13.859  14.092
16789SOL    HW252265   3.703  13.850  13.987
16790SOL     OW52266   6.600   6.934   6.461
16790SOL    HW152267   6.632   6.865   6.403
16790SOL    HW252268   6.647   7.013   6.432
16791SOL     OW52269   6.173   9.614   4.995
16791SOL    HW152270   6.158   9.539   4.938
16791SOL    HW252271   6.260   9.600   5.032
16792SOL     OW52272  10.372   8.536   2.092
16792SOL    HW152273  10.367   8.598   2.019
16792SOL    HW252274  10.400   8.454   2.051
16793SOL     OW52275  12.681   2.769   8.825
16793SOL    HW152276  12.692   2.864   8.826
16793SOL    HW252277  12.739   2.738   8.756
16794SOL     OW52278   9.315   3.856   7.341
16794SOL    HW152279   9.319   3.782   7.281
16794SOL    HW252280   9.223   3.864   7.364
16795SOL     OW52281  13.601   2.292  13.652
16795SOL    HW152282  13.526   2.340  13.685
16795SOL    HW252283  13.654   2.273  13.729
16796SOL     OW52284   9.414   0.560   8.765
16796SOL    HW152285   9.380   0.543   8.678
16796SOL    HW252286   9.344   0.534   8.824
16797SOL     OW52287  10.907   6.574  10.396
16797SOL    HW152288  10.997   6.584  10.364
16797SOL    HW252289  10.854   6.571  10.316
16798SOL     OW52290   3.970  11.892  14.105
16798SOL    HW152291   4.017  11.886  14.022
16798SOL    HW252292   3.964  11.801  14.135
16799SOL     OW52293  10.569  13.773   0.800
16799SOL    HW152294  10.593  13.763   0.708
16799SOL    HW252295  10.641  13.824   0.838
16800SOL     OW52296   7.585   2.514   3.739
16800SOL    HW152297   7.637   2.529   3.818
16800SOL    HW252298   7.617   2.579   3.676
16801SOL     OW52299  12.918   9.451   7.284
16801SOL    HW152300  13.011   9.436   7.269
16801SOL    HW252301  12.874   9.385   7.231
16802SOL     OW52302  14.745   8.061  10.554
16802SOL    HW152303  14.768   8.129  10.617
16802SOL    HW252304  14.801   8.079  10.478
16803SOL     OW52305   0.383  12.319   6.725
16803SOL    HW152306   0.454  12.336   6.787
16803SOL    HW252307   0.365  12.404   6.686
16804SOL     OW52308  14.202  13.661   9.975
16804SOL    HW152309  14.266  13.665  10.046
16804SOL    HW252310  14.224  13.736   9.919
16805SOL     OW52311  10.331   5.813   6.114
16805SOL    HW152312  10.252   5.761   6.098
16805SOL    HW252313  10.299   5.889   6.163
16806SOL     OW52314   4.968  13.998   8.196
16806SOL    HW152315   4.911  14.024   8.124
16806SOL    HW252316   5.004  14.081   8.229
16807SOL     OW52317  13.433   0.620   2.482
16807SOL    HW152318  13.472   0.671   2.553
16807SOL    HW252319  13.396   0.543   2.526
16808SOL     OW52320  10.108   2.917   2.084
16808SOL    HW152321  10.099   2.823   2.071
16808SOL    HW252322  10.162   2.946   2.010
16809SOL     OW52323   9.629  11.324   6.620
16809SOL    HW152324   9.557  11.385   6.635
16809SOL    HW252325   9.625  11.306   6.526
16810SOL     OW52326   5.234   2.591   6.077
16810SOL    HW152327   5.206   2.682   6.069
16810SOL    HW252328   5.308   2.593   6.138
16811SOL     OW52329  14.069   9.811  13.609
16811SOL    HW152330  14.085   9.878  13.676
16811SOL    HW252331  14.076   9.728  13.656
16812SOL     OW52332   8.711  13.670   9.736
16812SOL    HW152333   8.629  13.624   9.722
16812SOL    HW252334   8.760  13.658   9.654
16813SOL     OW52335  11.394   4.470   8.045
16813SOL    HW152336  11.364   4.519   7.968
16813SOL    HW252337  11.367   4.523   8.120
16814SOL     OW52338  13.338   7.933   9.708
16814SOL    HW152339  13.393   7.972   9.776
16814SOL    HW252340  13.285   8.005   9.675
16815SOL     OW52341  10.954   0.380   7.290
16815SOL    HW152342  10.926   0.289   7.276
16815SOL    HW252343  10.899   0.412   7.361
16816SOL     OW52344   3.196   7.357  13.059
16816SOL    HW152345   3.101   7.350  13.062
16816SOL    HW252346   3.217   7.433  13.114
16817SOL     OW52347  13.527   6.731  11.848
16817SOL    HW152348  13.438   6.744  11.817
16817SOL    HW252349  13.521   6.732  11.943
16818SOL     OW52350   0.697   5.434   7.337
16818SOL    HW152351   0.639   5.459   7.266
16818SOL    HW252352   0.707   5.339   7.328
16819SOL     OW52353   4.140   5.342  14.001
16819SOL    HW152354   4.105   5.288  13.930
16819SOL    HW252355   4.073   5.409  14.016
16820SOL     OW52356  11.950   1.764   5.551
16820SOL    HW152357  11.863   1.744   5.585
16820SOL    HW252358  11.935   1.816   5.472
16821SOL     OW52359   5.511   4.351   3.913
16821SOL    HW152360   5.446   4.391   3.855
16821SOL    HW252361   5.531   4.267   3.872
16822SOL     OW52362  10.657   0.227   8.000
16822SOL    HW152363  10.599   0.191   7.932
16822SOL    HW252364  10.728   0.270   7.951
16823SOL     OW52365   4.284   2.434   9.965
16823SOL    HW152366   4.191   2.413   9.961
16823SOL    HW252367   4.291   2.497  10.037
16824SOL     OW52368   0.670   2.978   7.934
16824SOL    HW152369   0.666   3.070   7.961
16824SOL    HW252370   0.730   2.937   7.996
16825SOL     OW52371  13.475   1.696  10.654
16825SOL    HW152372  13.515   1.623  10.607
16825SOL    HW252373  13.533   1.711  10.729
16826SOL     OW52374   0.448   4.419  10.707
16826SOL    HW152375   0.526   4.379  10.745
16826SOL    HW252376   0.443   4.381  10.619
16827SOL     OW52377   4.840   4.821  10.027
16827SOL    HW152378   4.895   4.750   9.994
16827SOL    HW252379   4.901   4.882  10.069
16828SOL     OW52380   0.273   0.118   9.351
16828SOL    HW152381   0.302   0.189   9.293
16828SOL    HW252382   0.279   0.040   9.296
16829SOL     OW52383   2.012  12.091   4.216
16829SOL    HW152384   2.018  12.074   4.310
16829SOL    HW252385   1.921  12.115   4.201
16830SOL     OW52386   1.795   3.695  11.745
16830SOL    HW152387   1.852   3.716  11.820
16830SOL    HW252388   1.718   3.654  11.784
16831SOL     OW52389   3.427   5.272   3.972
16831SOL    HW152390   3.407   5.285   4.065
16831SOL    HW252391   3.343   5.279   3.928
16832SOL     OW52392   1.603   0.783  10.085
16832SOL    HW152393   1.680   0.733  10.058
16832SOL    HW252394   1.543   0.718  10.123
16833SOL     OW52395   0.985   6.308   3.805
16833SOL    HW152396   1.053   6.241   3.808
16833SOL    HW252397   0.916   6.271   3.751
16834SOL     OW52398  14.508   0.684   7.395
16834SOL    HW152399  14.579   0.667   7.333
16834SOL    HW252400  14.438   0.720   7.341
16835SOL     OW52401   0.003   5.298  14.079
16835SOL    HW152402  14.804   5.343  14.129
16835SOL    HW252403  14.841   5.300  13.988
16836SOL     OW52404  14.147   7.220   4.872
16836SOL    HW152405  14.199   7.294   4.903
16836SOL    HW252406  14.161   7.218   4.777
16837SOL     OW52407   8.821   3.358   7.005
16837SOL    HW152408   8.880   3.375   7.078
16837SOL    HW252409   8.776   3.277   7.030
16838SOL     OW52410  11.412   9.743  12.088
16838SOL    HW152411  11.432   9.812  12.024
16838SOL    HW252412  11.423   9.661  12.039
16839SOL     OW52413  11.263   4.355  11.937
16839SOL    HW152414  11.330   4.410  11.898
16839SOL    HW252415  11.277   4.365  12.032
16840SOL     OW52416   3.332  11.783   9.819
16840SOL    HW152417   3.357  11.767   9.910
16840SOL    HW252418   3.257  11.726   9.805
16841SOL     OW52419   4.101  10.309   6.600
16841SOL    HW152420   4.138  10.225   6.627
16841SOL    HW252421   4.176  10.368   6.596
16842SOL     OW52422   5.902  14.469   1.521
16842SOL    HW152423   5.815  14.499   1.550
16842SOL    HW252424   5.962  14.501   1.588
16843SOL     OW52425  13.409   8.161  10.588
16843SOL    HW152426  13.322   8.177  10.623
16843SOL    HW252427  13.393   8.114  10.506
16844SOL     OW52428   4.939  12.232   4.145
16844SOL    HW152429   5.024  12.202   4.176
16844SOL    HW252430   4.959  12.289   4.071
16845SOL     OW52431  11.401   6.259   9.597
16845SOL    HW152432  11.462   6.211   9.541
16845SOL    HW252433  11.334   6.194   9.621
16846SOL     OW52434   7.918   2.324  11.245
16846SOL    HW152435   7.931   2.234  11.216
16846SOL    HW252436   7.976   2.375  11.188
16847SOL     OW52437   6.398   6.849   4.280
16847SOL    HW152438   6.347   6.803   4.347
16847SOL    HW252439   6.489   6.836   4.306
16848SOL     OW52440   4.397  10.527   2.221
16848SOL    HW152441   4.409  10.444   2.176
16848SOL    HW252442   4.481  10.544   2.264
16849SOL     OW52443  12.100   3.021   6.331
16849SOL    HW152444  12.194   3.004   6.340
16849SOL    HW252445  12.073   2.966   6.257
16850SOL     OW52446  11.175  10.679   3.435
16850SOL    HW152447  11.202  10.768   3.414
16850SOL    HW252448  11.251  10.641   3.480
16851SOL     OW52449   6.555   5.862  13.268
16851SOL    HW152450   6.498   5.894  13.337
16851SOL    HW252451   6.555   5.767  13.279
16852SOL     OW52452   7.206  12.283   4.785
16852SOL    HW152453   7.279  12.271   4.847
16852SOL    HW252454   7.197  12.378   4.777
16853SOL     OW52455  12.509  12.587   4.079
16853SOL    HW152456  12.479  12.526   4.146
16853SOL    HW252457  12.435  12.646   4.066
16854SOL     OW52458   9.959   7.499   5.414
16854SOL    HW152459   9.874   7.538   5.435
16854SOL    HW252460  10.002   7.565   5.360
16855SOL     OW52461   3.548  12.778   7.467
16855SOL    HW152462   3.567  12.746   7.379
16855SOL    HW252463   3.624  12.832   7.490
16856SOL     OW52464  13.129   1.136  13.996
16856SOL    HW152465  13.139   1.063  14.057
16856SOL    HW252466  13.042   1.171  14.014
16857SOL     OW52467   5.536   9.009  10.124
16857SOL    HW152468   5.502   8.936  10.073
16857SOL    HW252469   5.607   9.045  10.071
16858SOL     OW52470  11.180   4.196   9.163
16858SOL    HW152471  11.085   4.204   9.159
16858SOL    HW252472  11.199   4.116   9.114
16859SOL     OW52473  14.217  11.337  14.802
16859SOL    HW152474  14.210  11.405  14.869
16859SOL    HW252475  14.233  11.386  14.721
16860SOL     OW52476  14.396  11.367   8.384
16860SOL    HW152477  14.316  11.315   8.391
16860SOL    HW252478  14.399  11.393   8.292
16861SOL     OW52479   4.435   0.138   7.899
16861SOL    HW152480   4.503   0.170   7.840
16861SOL    HW252481   4.468   0.158   7.987
16862SOL     OW52482   7.903   6.900   5.851
16862SOL    HW152483   7.978   6.953   5.823
16862SOL    HW252484   7.839   6.910   5.781
16863SOL     OW52485   7.545   1.458  13.013
16863SOL    HW152486   7.576   1.369  13.033
16863SOL    HW252487   7.597   1.514  13.071
16864SOL     OW52488  13.163  12.332   3.640
16864SOL    HW152489  13.089  12.274   3.653
16864SOL    HW252490  13.168  12.344   3.545
16865SOL     OW52491  14.617   0.432   4.242
16865SOL    HW152492  14.657   0.381   4.313
16865SOL    HW252493  14.526   0.443   4.269
16866SOL     OW52494   3.066   7.022  10.918
16866SOL    HW152495   3.056   6.927  10.914
16866SOL    HW252496   3.159   7.037  10.904
16867SOL     OW52497  13.068   8.669   5.548
16867SOL    HW152498  13.130   8.603   5.579
16867SOL    HW252499  13.013   8.622   5.485
16868SOL     OW52500  12.188   5.143  11.636
16868SOL    HW152501  12.256   5.140  11.568
16868SOL    HW252502  12.179   5.236  11.657
16869SOL     OW52503  12.208  14.820   5.672
16869SOL    HW152504  12.188  14.738   5.718
16869SOL    HW252505  12.281  14.799   5.614
16870SOL     OW52506   2.733   6.330   6.277
16870SOL    HW152507   2.725   6.250   6.225
16870SOL    HW252508   2.798   6.309   6.344
16871SOL     OW52509  13.199   8.346  12.211
16871SOL    HW152510  13.144   8.371  12.137
16871SOL    HW252511  13.283   8.388  12.192
16872SOL     OW52512   0.910   7.474  14.079
16872SOL    HW152513   0.966   7.547  14.104
16872SOL    HW252514   0.837   7.514  14.033
16873SOL     OW52515  13.937  14.015   3.664
16873SOL    HW152516  13.952  14.007   3.570
16873SOL    HW252517  13.883  13.939   3.687
16874SOL     OW52518  11.928  13.323   9.012
16874SOL    HW152519  11.895  13.396   9.066
16874SOL    HW252520  11.922  13.355   8.922
16875SOL     OW52521  14.222   9.555   5.571
16875SOL    HW152522  14.165   9.478   5.571
16875SOL    HW252523  14.207   9.595   5.657
16876SOL     OW52524   8.697   7.525   5.062
16876SOL    HW152525   8.695   7.430   5.053
16876SOL    HW252526   8.785   7.545   5.092
16877SOL     OW52527  12.777  14.187   0.753
16877SOL    HW152528  12.751  14.251   0.819
16877SOL    HW252529  12.862  14.156   0.782
16878SOL     OW52530  11.131  11.511  11.055
16878SOL    HW152531  11.120  11.421  11.022
16878SOL    HW252532  11.117  11.503  11.149
16879SOL     OW52533   6.644   8.510   6.453
16879SOL    HW152534   6.580   8.495   6.523
16879SOL    HW252535   6.618   8.451   6.383
16880SOL     OW52536  11.182   3.957   6.239
16880SOL    HW152537  11.243   3.904   6.290
16880SOL    HW252538  11.142   4.016   6.303
16881SOL     OW52539  10.038   6.853  13.270
16881SOL    HW152540   9.982   6.786  13.309
16881SOL    HW252541  10.065   6.816  13.186
16882SOL     OW52542   6.550  12.556   1.423
16882SOL    HW152543   6.604  12.488   1.383
16882SOL    HW252544   6.463  12.544   1.384
16883SOL     OW52545   5.538  10.532   3.586
16883SOL    HW152546   5.606  10.471   3.556
16883SOL    HW252547   5.527  10.593   3.513
16884SOL     OW52548   5.370   8.517   9.627
16884SOL    HW152549   5.463   8.494   9.624
16884SOL    HW252550   5.328   8.459   9.563
16885SOL     OW52551  14.515  11.687   4.672
16885SOL    HW152552  14.470  11.623   4.617
16885SOL    HW252553  14.493  11.772   4.633
16886SOL     OW52554   5.055  13.174  12.208
16886SOL    HW152555   5.112  13.227  12.152
16886SOL    HW252556   4.968  13.184  12.168
16887SOL     OW52557   5.193   0.373   6.125
16887SOL    HW152558   5.272   0.321   6.142
16887SOL    HW252559   5.226   0.456   6.090
16888SOL     OW52560   8.553   5.930  11.915
16888SOL    HW152561   8.610   5.957  11.987
16888SOL    HW252562   8.589   5.845  11.887
16889SOL     OW52563   3.788   9.381   3.422
16889SOL    HW152564   3.819   9.291   3.414
16889SOL    HW252565   3.713   9.375   3.482
16890SOL     OW52566  12.742   8.565   4.364
16890SOL    HW152567  12.750   8.506   4.438
16890SOL    HW252568  12.832   8.578   4.334
16891SOL     OW52569  10.842  14.051   5.258
16891SOL    HW152570  10.888  14.086   5.182
16891SOL    HW252571  10.834  13.957   5.241
16892SOL     OW52572   1.344  12.295  11.687
16892SOL    HW152573   1.270  12.355  11.685
16892SOL    HW252574   1.317  12.226  11.748
16893SOL     OW52575  14.109  10.059  12.947
16893SOL    HW152576  14.137  10.092  13.032
16893SOL    HW252577  14.188  10.019  12.910
16894SOL     OW52578   3.730  12.724  13.691
16894SOL    HW152579   3.754  12.817  13.687
16894SOL    HW252580   3.723  12.705  13.785
16895SOL     OW52581  10.653   1.105  12.777
16895SOL    HW152582  10.611   1.020  12.793
16895SOL    HW252583  10.593   1.169  12.814
16896SOL     OW52584   9.304   0.060   6.671
16896SOL    HW152585   9.248   0.034   6.598
16896SOL    HW252586   9.287   0.154   6.682
16897SOL     OW52587   3.063   0.267   4.120
16897SOL    HW152588   3.002   0.340   4.118
16897SOL    HW252589   3.146   0.306   4.150
16898SOL     OW52590   8.563   4.477   5.768
16898SOL    HW152591   8.629   4.409   5.757
16898SOL    HW252592   8.481   4.436   5.741
16899SOL     OW52593   0.224   9.832   1.512
16899SOL    HW152594   0.278   9.757   1.486
16899SOL    HW252595   0.222   9.889   1.435
16900SOL     OW52596   1.923   6.956  14.446
16900SOL    HW152597   1.860   6.900  14.491
16900SOL    HW252598   1.945   6.910  14.365
16901SOL     OW52599   4.306   0.993  10.180
16901SOL    HW152600   4.371   0.960  10.242
16901SOL    HW252601   4.333   0.959  10.095
16902SOL     OW52602  11.299  10.431  12.553
16902SOL    HW152603  11.353  10.353  12.563
16902SOL    HW252604  11.333  10.473  12.474
16903SOL     OW52605  14.731   8.594  11.605
16903SOL    HW152606  14.661   8.639  11.559
16903SOL    HW252607  14.723   8.503  11.577
16904SOL     OW52608   4.632  12.116   1.264
16904SOL    HW152609   4.595  12.182   1.321
16904SOL    HW252610   4.711  12.157   1.227
16905SOL     OW52611  12.809   5.010   1.409
16905SOL    HW152612  12.805   4.926   1.363
16905SOL    HW252613  12.792   4.989   1.500
16906SOL     OW52614   4.940   5.465  12.075
16906SOL    HW152615   5.005   5.496  12.011
16906SOL    HW252616   4.981   5.389  12.115
16907SOL     OW52617   9.364  10.126   0.387
16907SOL    HW152618   9.436  10.099   0.329
16907SOL    HW252619   9.407  10.180   0.453
16908SOL     OW52620  13.447   9.892   8.495
16908SOL    HW152621  13.357   9.858   8.489
16908SOL    HW252622  13.447   9.943   8.576
16909SOL     OW52623   7.587   0.586  14.194
16909SOL    HW152624   7.494   0.608  14.206
16909SOL    HW252625   7.625   0.666  14.157
16910SOL     OW52626  12.972  11.585  11.429
16910SOL    HW152627  13.059  11.598  11.467
16910SOL    HW252628  12.988  11.579  11.335
16911SOL     OW52629   7.832  11.854   9.106
16911SOL    HW152630   7.823  11.945   9.076
16911SOL    HW252631   7.875  11.809   9.033
16912SOL     OW52632  10.253  10.657   4.854
16912SOL    HW152633  10.206  10.734   4.885
16912SOL    HW252634  10.345  10.683   4.851
16913SOL     OW52635   9.678  13.046   1.692
16913SOL    HW152636   9.695  13.138   1.708
16913SOL    HW252637   9.588  13.033   1.721
16914SOL     OW52638   5.993   1.677   0.919
16914SOL    HW152639   5.982   1.645   1.009
16914SOL    HW252640   5.974   1.602   0.864
16915SOL     OW52641   6.440   2.124  10.250
16915SOL    HW152642   6.421   2.122  10.344
16915SOL    HW252643   6.382   2.191  10.215
16916SOL     OW52644  12.201   4.759   7.198
16916SOL    HW152645  12.133   4.787   7.136
16916SOL    HW252646  12.221   4.670   7.171
16917SOL     OW52647   3.018   3.010   2.592
16917SOL    HW152648   3.089   2.988   2.652
16917SOL    HW252649   3.058   3.071   2.530
16918SOL     OW52650  10.615  10.048   6.420
16918SOL    HW152651  10.598  10.028   6.512
16918SOL    HW252652  10.551  10.116   6.398
16919SOL     OW52653  12.690   6.808   8.043
16919SOL    HW152654  12.676   6.897   8.008
16919SOL    HW252655  12.603   6.769   8.043
16920SOL     OW52656   6.932   5.692   1.074
16920SOL    HW152657   6.942   5.701   1.168
16920SOL    HW252658   6.936   5.781   1.040
16921SOL     OW52659  11.154   2.624  11.688
16921SOL    HW152660  11.225   2.632  11.624
16921SOL    HW252661  11.145   2.529  11.702
16922SOL     OW52662   4.431   1.854   0.719
16922SOL    HW152663   4.424   1.783   0.783
16922SOL    HW252664   4.343   1.864   0.684
16923SOL     OW52665   8.946  11.745  10.887
16923SOL    HW152666   9.033  11.782  10.897
16923SOL    HW252667   8.910  11.744  10.976
16924SOL     OW52668   5.942  12.788   0.412
16924SOL    HW152669   5.993  12.735   0.351
16924SOL    HW252670   5.853  12.786   0.378
16925SOL     OW52671   2.465  13.496   6.915
16925SOL    HW152672   2.378  13.458   6.906
16925SOL    HW252673   2.483  13.536   6.830
16926SOL     OW52674   6.174  10.723  13.827
16926SOL    HW152675   6.220  10.641  13.845
16926SOL    HW252676   6.147  10.755  13.913
16927SOL     OW52677  13.697   0.318   4.744
16927SOL    HW152678  13.674   0.278   4.660
16927SOL    HW252679  13.696   0.246   4.807
16928SOL     OW52680   8.429   5.567   6.178
16928SOL    HW152681   8.375   5.507   6.230
16928SOL    HW252682   8.491   5.510   6.133
16929SOL     OW52683   5.771   5.073  13.520
16929SOL    HW152684   5.786   4.981  13.543
16929SOL    HW252685   5.838   5.092  13.454
16930SOL     OW52686   6.200  14.693  14.393
16930SOL    HW152687   6.109  14.668  14.410
16930SOL    HW252688   6.211  14.680  14.299
16931SOL     OW52689   7.339   5.080   6.775
16931SOL    HW152690   7.307   5.058   6.687
16931SOL    HW252691   7.323   5.174   6.782
16932SOL     OW52692   6.296   6.200   5.859
16932SOL    HW152693   6.290   6.113   5.898
16932SOL    HW252694   6.341   6.187   5.776
16933SOL     OW52695  11.146   9.575  11.627
16933SOL    HW152696  11.102   9.649  11.669
16933SOL    HW252697  11.227   9.612  11.592
16934SOL     OW52698   3.264  14.703   3.137
16934SOL    HW152699   3.344  14.690   3.087
16934SOL    HW252700   3.226  14.616   3.145
16935SOL     OW52701   2.806   6.551  13.366
16935SOL    HW152702   2.784   6.479  13.308
16935SOL    HW252703   2.790   6.517  13.454
16936SOL     OW52704   2.895  12.992   4.720
16936SOL    HW152705   2.957  13.030   4.658
16936SOL    HW252706   2.828  13.059   4.730
16937SOL     OW52707   8.849   3.410  14.700
16937SOL    HW152708   8.945   3.408  14.707
16937SOL    HW252709   8.819   3.368  14.781
16938SOL     OW52710   1.459   6.712  10.207
16938SOL    HW152711   1.447   6.806  10.223
16938SOL    HW252712   1.454   6.703  10.112
16939SOL     OW52713   7.317   3.984   4.923
16939SOL    HW152714   7.340   3.943   4.840
16939SOL    HW252715   7.337   3.918   4.989
16940SOL     OW52716  10.867   1.508   5.557
16940SOL    HW152717  10.871   1.419   5.594
16940SOL    HW252718  10.783   1.510   5.510
16941SOL     OW52719   6.436   6.051  11.453
16941SOL    HW152720   6.488   6.115  11.403
16941SOL    HW252721   6.452   5.967  11.409
16942SOL     OW52722   5.592   4.221   0.601
16942SOL    HW152723   5.559   4.131   0.598
16942SOL    HW252724   5.532   4.267   0.659
16943SOL     OW52725   5.064   3.263  12.495
16943SOL    HW152726   5.134   3.201  12.514
16943SOL    HW252727   5.012   3.220  12.427
16944SOL     OW52728   5.125   0.421   3.605
16944SOL    HW152729   5.184   0.380   3.668
16944SOL    HW252730   5.038   0.390   3.631
16945SOL     OW52731  14.820  14.718   4.603
16945SOL    HW152732   0.002  14.780   4.654
16945SOL    HW252733   0.014  14.672   4.549
16946SOL     OW52734   1.572   8.447   3.008
16946SOL    HW152735   1.492   8.489   3.041
16946SOL    HW252736   1.566   8.357   3.040
16947SOL     OW52737   5.643  11.964   6.863
16947SOL    HW152738   5.636  11.958   6.958
16947SOL    HW252739   5.584  11.896   6.830
16948SOL     OW52740   7.722   2.874   9.097
16948SOL    HW152741   7.705   2.959   9.055
16948SOL    HW252742   7.792   2.892   9.160
16949SOL     OW52743   4.753   7.142  13.008
16949SOL    HW152744   4.750   7.232  13.040
16949SOL    HW252745   4.686   7.138  12.939
16950SOL     OW52746   8.216  10.723   5.516
16950SOL    HW152747   8.136  10.751   5.560
16950SOL    HW252748   8.187  10.656   5.454
16951SOL     OW52749   0.271  14.363   1.889
16951SOL    HW152750   0.263  14.320   1.974
16951SOL    HW252751   0.315  14.298   1.834
16952SOL     OW52752  13.031   3.169   7.513
16952SOL    HW152753  13.038   3.217   7.595
16952SOL    HW252754  12.980   3.090   7.535
16953SOL     OW52755   9.382   3.167  13.717
16953SOL    HW152756   9.388   3.239  13.654
16953SOL    HW252757   9.359   3.090  13.665
16954SOL     OW52758  13.670   9.144  13.311
16954SOL    HW152759  13.638   9.200  13.382
16954SOL    HW252760  13.734   9.199  13.265
16955SOL     OW52761   5.941   6.249   9.351
16955SOL    HW152762   6.007   6.221   9.414
16955SOL    HW252763   5.860   6.256   9.401
16956SOL     OW52764  10.066   4.303   3.745
16956SOL    HW152765  10.029   4.220   3.773
16956SOL    HW252766   9.991   4.364   3.745
16957SOL     OW52767   9.184   2.751  10.533
16957SOL    HW152768   9.177   2.816  10.603
16957SOL    HW252769   9.278   2.737  10.523
16958SOL     OW52770   4.652   3.442   5.463
16958SOL    HW152771   4.621   3.358   5.496
16958SOL    HW252772   4.731   3.419   5.413
16959SOL     OW52773   8.168   4.490   6.613
16959SOL    HW152774   8.229   4.499   6.539
16959SOL    HW252775   8.161   4.578   6.649
16960SOL     OW52776   4.528   7.415   3.414
16960SOL    HW152777   4.576   7.337   3.389
16960SOL    HW252778   4.595   7.478   3.441
16961SOL     OW52779   5.999  13.148  14.338
16961SOL    HW152780   6.048  13.077  14.380
16961SOL    HW252781   5.947  13.105  14.271
16962SOL     OW52782   0.956  14.430  13.212
16962SOL    HW152783   0.950  14.414  13.117
16962SOL    HW252784   1.031  14.488  13.221
16963SOL     OW52785   5.345  14.470   4.418
16963SOL    HW152786   5.378  14.381   4.430
16963SOL    HW252787   5.277  14.462   4.351
16964SOL     OW52788   2.865   1.938   1.786
16964SOL    HW152789   2.907   1.864   1.743
16964SOL    HW252790   2.772   1.927   1.767
16965SOL     OW52791  10.988  13.946   6.377
16965SOL    HW152792  10.977  13.892   6.455
16965SOL    HW252793  10.956  13.892   6.305
16966SOL     OW52794   4.461   5.918  10.709
16966SOL    HW152795   4.436   5.865  10.633
16966SOL    HW252796   4.397   5.895  10.777
16967SOL     OW52797   1.346   5.725  12.425
16967SOL    HW152798   1.313   5.645  12.465
16967SOL    HW252799   1.332   5.712  12.331
16968SOL     OW52800   7.040   5.138   7.992
16968SOL    HW152801   7.101   5.199   8.033
16968SOL    HW252802   6.969   5.193   7.960
16969SOL     OW52803  11.675   5.444   5.533
16969SOL    HW152804  11.739   5.373   5.526
16969SOL    HW252805  11.625   5.440   5.452
16970SOL     OW52806   0.369   0.980   0.864
16970SOL    HW152807   0.357   0.912   0.931
16970SOL    HW252808   0.408   0.935   0.790
16971SOL     OW52809  12.042   2.165   8.752
16971SOL    HW152810  12.086   2.248   8.774
16971SOL    HW252811  11.984   2.188   8.680
16972SOL     OW52812  12.011   8.679   8.422
16972SOL    HW152813  11.928   8.688   8.469
16972SOL    HW252814  12.077   8.674   8.492
16973SOL     OW52815   4.926  13.783   1.924
16973SOL    HW152816   4.861  13.717   1.897
16973SOL    HW252817   5.005  13.760   1.875
16974SOL     OW52818   4.905   9.437  10.368
16974SOL    HW152819   4.898   9.405  10.278
16974SOL    HW252820   4.817   9.469  10.388
16975SOL     OW52821   3.064  11.176  14.559
16975SOL    HW152822   3.099  11.106  14.614
16975SOL    HW252823   3.139  11.209  14.510
16976SOL     OW52824  10.183   7.104   9.996
16976SOL    HW152825  10.234   7.030   9.963
16976SOL    HW252826  10.103   7.065  10.030
16977SOL     OW52827   7.894  12.405  13.252
16977SOL    HW152828   7.889  12.495  13.284
16977SOL    HW252829   7.905  12.414  13.157
16978SOL     OW52830  14.349   8.151   4.826
16978SOL    HW152831  14.310   8.075   4.869
16978SOL    HW252832  14.288   8.172   4.755
16979SOL     OW52833   1.432   2.554   0.922
16979SOL    HW152834   1.342   2.524   0.932
16979SOL    HW252835   1.438   2.583   0.831
16980SOL     OW52836  10.668   4.904   6.850
16980SOL    HW152837  10.573   4.892   6.852
16980SOL    HW252838  10.703   4.832   6.902
16981SOL     OW52839   0.117   5.630   2.810
16981SOL    HW152840   0.075   5.619   2.724
16981SOL    HW252841   0.163   5.547   2.824
16982SOL     OW52842   1.141   8.265   8.932
16982SOL    HW152843   1.065   8.307   8.971
16982SOL    HW252844   1.121   8.261   8.839
16983SOL     OW52845  11.987   9.779  13.103
16983SOL    HW152846  12.004   9.835  13.028
16983SOL    HW252847  12.063   9.721  13.107
16984SOL     OW52848   3.347   0.411   9.991
16984SOL    HW152849   3.360   0.469   9.916
16984SOL    HW252850   3.298   0.337   9.957
16985SOL     OW52851   1.234  10.869  13.741
16985SOL    HW152852   1.239  10.965  13.739
16985SOL    HW252853   1.143  10.850  13.763
16986SOL     OW52854   7.879   7.370   7.727
16986SOL    HW152855   7.867   7.323   7.645
16986SOL    HW252856   7.811   7.438   7.726
16987SOL     OW52857   8.912   9.223   6.506
16987SOL    HW152858   8.988   9.167   6.524
16987SOL    HW252859   8.950   9.311   6.495
16988SOL     OW52860   0.470   3.779  12.516
16988SOL    HW152861   0.496   3.800  12.427
16988SOL    HW252862   0.392   3.724  12.507
16989SOL     OW52863   3.738   8.818  10.832
16989SOL    HW152864   3.650   8.785  10.817
16989SOL    HW252865   3.795   8.765  10.776
16990SOL     OW52866   0.848   8.612   0.266
16990SOL    HW152867   0.775   8.673   0.276
16990SOL    HW252868   0.900   8.622   0.346
16991SOL     OW52869   6.206  14.135  13.373
16991SOL    HW152870   6.285  14.118  13.425
16991SOL    HW252871   6.194  14.056  13.320
16992SOL     OW52872   8.365  10.672   2.645
16992SOL    HW152873   8.298  10.739   2.654
16992SOL    HW252874   8.394  10.679   2.554
16993SOL     OW52875  14.693  13.042   9.186
16993SOL    HW152876  14.612  13.007   9.223
16993SOL    HW252877  14.713  12.985   9.112
16994SOL     OW52878   3.495   1.827  12.281
16994SOL    HW152879   3.537   1.899  12.328
16994SOL    HW252880   3.564   1.793  12.223
16995SOL     OW52881   6.993  12.465   7.467
16995SOL    HW152882   7.040  12.387   7.496
16995SOL    HW252883   6.901  12.438   7.466
16996SOL     OW52884   5.992   2.428   2.022
16996SOL    HW152885   6.076   2.440   2.067
16996SOL    HW252886   5.989   2.499   1.958
16997SOL     OW52887   3.557   0.326   0.011
16997SOL    HW152888   3.500   0.354  14.810
16997SOL    HW252889   3.624   0.395   0.017
16998SOL     OW52890  11.291   4.588  12.131
16998SOL    HW152891  11.268   4.680  12.116
16998SOL    HW252892  11.208   4.547  12.159
16999SOL     OW52893   7.720   6.903   5.650
16999SOL    HW152894   7.642   6.954   5.628
16999SOL    HW252895   7.750   6.866   5.567
17000SOL     OW52896   0.054  10.301   5.543
17000SOL    HW152897   0.030  10.365   5.476
17000SOL    HW252898  14.845  10.249   5.557
17001SOL     OW52899   8.952   5.182   2.543
17001SOL    HW152900   8.861   5.153   2.544
17001SOL    HW252901   8.958   5.242   2.469
17002SOL     OW52902   1.183   4.666   6.121
17002SOL    HW152903   1.141   4.707   6.046
17002SOL    HW252904   1.253   4.727   6.146
17003SOL     OW52905  13.211   0.399   8.824
17003SOL    HW152906  13.189   0.484   8.785
17003SOL    HW252907  13.250   0.421   8.909
17004SOL     OW52908  11.382   2.954  10.342
17004SOL    HW152909  11.302   2.905  10.325
17004SOL    HW252910  11.426   2.958  10.257
17005SOL     OW52911   3.364   7.388  14.480
17005SOL    HW152912   3.330   7.398  14.391
17005SOL    HW252913   3.457   7.406  14.473
17006SOL     OW52914  13.862  11.099  10.229
17006SOL    HW152915  13.775  11.097  10.188
17006SOL    HW252916  13.863  11.021  10.285
17007SOL     OW52917  11.092   8.423   8.700
17007SOL    HW152918  11.172   8.453   8.655
17007SOL    HW252919  11.086   8.330   8.678
17008SOL     OW52920   3.393   7.940   4.755
17008SOL    HW152921   3.456   7.869   4.762
17008SOL    HW252922   3.331   7.924   4.827
17009SOL     OW52923  13.807  13.102  12.454
17009SOL    HW152924  13.830  13.183  12.410
17009SOL    HW252925  13.863  13.101  12.532
17010SOL     OW52926   9.761   2.731   7.605
17010SOL    HW152927   9.799   2.674   7.673
17010SOL    HW252928   9.811   2.712   7.526
17011SOL     OW52929  13.248   9.725   8.409
17011SOL    HW152930  13.279   9.695   8.324
17011SOL    HW252931  13.248   9.646   8.464
17012SOL     OW52932   9.163  10.459   6.002
17012SOL    HW152933   9.159  10.550   6.031
17012SOL    HW252934   9.241  10.456   5.946
17013SOL     OW52935  12.812  12.316   5.953
17013SOL    HW152936  12.782  12.407   5.951
17013SOL    HW252937  12.733  12.264   5.937
17014SOL     OW52938  14.293   5.039   9.855
17014SOL    HW152939  14.319   4.949   9.833
17014SOL    HW252940  14.226   5.061   9.790
17015SOL     OW52941   7.239  13.417  11.111
17015SOL    HW152942   7.210  13.379  11.194
17015SOL    HW252943   7.267  13.343  11.058
17016SOL     OW52944   4.039   1.071  14.348
17016SOL    HW152945   4.054   1.114  14.264
17016SOL    HW252946   3.963   1.116  14.385
17017SOL     OW52947   5.298   6.108   8.178
17017SOL    HW152948   5.346   6.185   8.148
17017SOL    HW252949   5.243   6.139   8.250
17018SOL     OW52950  13.837  11.631   6.894
17018SOL    HW152951  13.932  11.628   6.900
17018SOL    HW252952  13.810  11.539   6.902
17019SOL     OW52953   4.528  13.304   7.681
17019SOL    HW152954   4.494  13.369   7.743
17019SOL    HW252955   4.623  13.316   7.684
17020SOL     OW52956   9.467   4.874  14.181
17020SOL    HW152957   9.440   4.800  14.127
17020SOL    HW252958   9.490   4.836  14.266
17021SOL     OW52959  13.527  12.346  14.440
17021SOL    HW152960  13.588  12.418  14.461
17021SOL    HW252961  13.452  12.390  14.400
17022SOL     OW52962  10.011   9.470  11.870
17022SOL    HW152963  10.012   9.376  11.852
17022SOL    HW252964  10.101   9.498  11.855
17023SOL     OW52965   7.722  13.920  10.904
17023SOL    HW152966   7.753  13.894  10.817
17023SOL    HW252967   7.792  13.893  10.964
17024SOL     OW52968   0.448  10.441   5.578
17024SOL    HW152969   0.420  10.525   5.615
17024SOL    HW252970   0.494  10.465   5.497
17025SOL     OW52971   1.280  13.106   8.012
17025SOL    HW152972   1.347  13.038   8.012
17025SOL    HW252973   1.202  13.062   8.045
17026SOL     OW52974  10.071  14.051   7.746
17026SOL    HW152975  10.040  13.972   7.791
17026SOL    HW252976  10.098  14.110   7.817
17027SOL     OW52977  13.795   7.406  10.985
17027SOL    HW152978  13.753   7.491  10.992
17027SOL    HW252979  13.723   7.344  10.974
17028SOL     OW52980   2.976  14.211  11.436
17028SOL    HW152981   3.068  14.189  11.449
17028SOL    HW252982   2.968  14.225  11.341
17029SOL     OW52983  12.266  13.790  13.096
17029SOL    HW152984  12.318  13.712  13.079
17029SOL    HW252985  12.329  13.855  13.127
17030SOL     OW52986   1.291   0.204   0.012
17030SOL    HW152987   1.376   0.235  14.851
17030SOL    HW252988   1.293   0.109  14.868
17031SOL     OW52989   8.186   4.655   6.900
17031SOL    HW152990   8.106   4.676   6.947
17031SOL    HW252991   8.225   4.740   6.878
17032SOL     OW52992  14.348   0.503   4.179
17032SOL    HW152993  14.299   0.440   4.126
17032SOL    HW252994  14.342   0.585   4.130
17033SOL     OW52995   1.072   4.883   3.845
17033SOL    HW152996   1.045   4.797   3.815
17033SOL    HW252997   1.157   4.869   3.886
17034SOL     OW52998   6.232  12.731  14.594
17034SOL    HW152999   6.314  12.722  14.546
17034SOL    HW253000   6.182  12.653  14.570
17035SOL     OW53001  12.151   6.258   1.544
17035SOL    HW153002  12.149   6.344   1.586
17035SOL    HW253003  12.244   6.239   1.531
17036SOL     OW53004  13.937   9.860  10.048
17036SOL    HW153005  13.995   9.784  10.044
17036SOL    HW253006  13.982   9.922  10.105
17037SOL     OW53007  14.152   1.661   1.803
17037SOL    HW153008  14.062   1.629   1.790
17037SOL    HW253009  14.142   1.740   1.857
17038SOL     OW53010   3.548   5.911   2.309
17038SOL    HW153011   3.500   5.991   2.329
17038SOL    HW253012   3.560   5.912   2.214
17039SOL     OW53013  11.632   9.932  12.039
17039SOL    HW153014  11.602  10.013  12.079
17039SOL    HW253015  11.568   9.914  11.970
17040SOL     OW53016   5.328   5.369  11.683
17040SOL    HW153017   5.345   5.281  11.648
17040SOL    HW253018   5.395   5.424  11.642
17041SOL     OW53019   2.940   6.008   1.997
17041SOL    HW153020   2.987   6.060   2.062
17041SOL    HW253021   2.884   5.950   2.048
17042SOL     OW53022   6.122   2.407   7.106
17042SOL    HW153023   6.167   2.467   7.046
17042SOL    HW253024   6.041   2.453   7.129
17043SOL     OW53025  10.008   3.846   9.081
17043SOL    HW153026  10.047   3.923   9.121
17043SOL    HW253027   9.921   3.840   9.121
17044SOL     OW53028   1.737  13.064   5.424
17044SOL    HW153029   1.821  13.022   5.445
17044SOL    HW253030   1.733  13.061   5.328
17045SOL     OW53031   0.982   0.503   3.615
17045SOL    HW153032   1.020   0.576   3.664
17045SOL    HW253033   1.050   0.436   3.613
17046SOL     OW53034   3.525   6.545   3.602
17046SOL    HW153035   3.577   6.520   3.679
17046SOL    HW253036   3.532   6.471   3.543
17047SOL     OW53037   5.523  12.378   2.931
17047SOL    HW153038   5.545  12.313   2.864
17047SOL    HW253039   5.505  12.327   3.010
17048SOL     OW53040   5.722   0.176   4.317
17048SOL    HW153041   5.649   0.154   4.375
17048SOL    HW253042   5.772   0.242   4.366
17049SOL     OW53043   8.325   9.143  11.746
17049SOL    HW153044   8.307   9.096  11.827
17049SOL    HW253045   8.255   9.117  11.687
17050SOL     OW53046   2.294   0.637   3.973
17050SOL    HW153047   2.345   0.572   4.020
17050SOL    HW253048   2.336   0.644   3.887
17051SOL     OW53049   7.055  10.892   7.625
17051SOL    HW153050   7.056  10.964   7.687
17051SOL    HW253051   6.998  10.826   7.665
17052SOL     OW53052  12.248  11.444   5.556
17052SOL    HW153053  12.254  11.364   5.607
17052SOL    HW253054  12.260  11.514   5.620
17053SOL     OW53055  14.055   4.370  12.432
17053SOL    HW153056  14.103   4.288  12.434
17053SOL    HW253057  14.026   4.384  12.522
17054SOL     OW53058   4.729   2.507  12.527
17054SOL    HW153059   4.679   2.511  12.608
17054SOL    HW253060   4.811   2.463  12.551
17055SOL     OW53061   5.855   8.731  11.274
17055SOL    HW153062   5.768   8.692  11.282
17055SOL    HW253063   5.838   8.820  11.243
17056SOL     OW53064   6.122   5.924   9.227
17056SOL    HW153065   6.148   5.848   9.176
17056SOL    HW253066   6.030   5.908   9.248
17057SOL     OW53067   5.987  13.090   1.436
17057SOL    HW153068   5.920  13.093   1.368
17057SOL    HW253069   6.000  13.182   1.461
17058SOL     OW53070  12.713  10.386   0.492
17058SOL    HW153071  12.636  10.341   0.457
17058SOL    HW253072  12.679  10.442   0.562
17059SOL     OW53073   8.881   8.712  13.934
17059SOL    HW153074   8.896   8.741  13.844
17059SOL    HW253075   8.957   8.657  13.954
17060SOL     OW53076   2.562   5.099   9.701
17060SOL    HW153077   2.649   5.128   9.728
17060SOL    HW253078   2.502   5.147   9.758
17061SOL     OW53079  10.763   6.179   1.066
17061SOL    HW153080  10.688   6.220   1.110
17061SOL    HW253081  10.810   6.252   1.026
17062SOL     OW53082  11.234   1.377  14.475
17062SOL    HW153083  11.257   1.458  14.520
17062SOL    HW253084  11.141   1.364  14.497
17063SOL     OW53085   6.132   4.821  10.852
17063SOL    HW153086   6.185   4.745  10.875
17063SOL    HW253087   6.181   4.864  10.781
17064SOL     OW53088  14.044   7.717   4.916
17064SOL    HW153089  14.109   7.656   4.880
17064SOL    HW253090  13.968   7.709   4.859
17065SOL     OW53091   4.852   5.610  13.750
17065SOL    HW153092   4.837   5.699  13.717
17065SOL    HW253093   4.914   5.621  13.822
17066SOL     OW53094   6.954   2.459   9.611
17066SOL    HW153095   6.912   2.524   9.555
17066SOL    HW253096   6.975   2.387   9.551
17067SOL     OW53097  11.013  11.706   2.172
17067SOL    HW153098  10.988  11.705   2.080
17067SOL    HW253099  10.936  11.673   2.219
17068SOL     OW53100  14.174  14.766  11.141
17068SOL    HW153101  14.268  14.747  11.146
17068SOL    HW253102  14.135  14.713  11.210
17069SOL     OW53103   8.636   2.097   5.218
17069SOL    HW153104   8.601   2.175   5.262
17069SOL    HW253105   8.639   2.030   5.286
17070SOL     OW53106  13.417   7.387  12.864
17070SOL    HW153107  13.499   7.347  12.894
17070SOL    HW253108  13.394   7.338  12.785
17071SOL     OW53109   1.746   6.398   3.219
17071SOL    HW153110   1.770   6.450   3.296
17071SOL    HW253111   1.692   6.457   3.166
17072SOL     OW53112   9.095  13.798  10.201
17072SOL    HW153113   9.089  13.888  10.169
17072SOL    HW253114   9.105  13.807  10.296
17073SOL     OW53115  12.770   4.720   6.083
17073SOL    HW153116  12.754   4.723   6.177
17073SOL    HW253117  12.840   4.656   6.072
17074SOL     OW53118  13.089  10.415   2.905
17074SOL    HW153119  13.063  10.507   2.897
17074SOL    HW253120  13.007  10.366   2.899
17075SOL     OW53121   8.480   3.592   5.737
17075SOL    HW153122   8.556   3.549   5.697
17075SOL    HW253123   8.480   3.680   5.699
17076SOL     OW53124   6.355   8.119   2.621
17076SOL    HW153125   6.285   8.178   2.649
17076SOL    HW253126   6.377   8.148   2.533
17077SOL     OW53127   1.535  14.093  13.347
17077SOL    HW153128   1.539  13.997  13.347
17077SOL    HW253129   1.447  14.113  13.315
17078SOL     OW53130   4.111   5.896  14.392
17078SOL    HW153131   4.121   5.860  14.480
17078SOL    HW253132   4.071   5.825  14.342
17079SOL     OW53133  13.435   4.574  13.714
17079SOL    HW153134  13.354   4.572  13.663
17079SOL    HW253135  13.407   4.555  13.804
17080SOL     OW53136  11.426   9.261   7.774
17080SOL    HW153137  11.426   9.196   7.844
17080SOL    HW253138  11.519   9.278   7.758
17081SOL     OW53139   9.002   8.966   0.674
17081SOL    HW153140   9.004   9.049   0.723
17081SOL    HW253141   9.015   8.899   0.741
17082SOL     OW53142   4.447   1.623   5.687
17082SOL    HW153143   4.482   1.712   5.691
17082SOL    HW253144   4.353   1.635   5.675
17083SOL     OW53145   2.756   0.485  11.805
17083SOL    HW153146   2.725   0.545  11.737
17083SOL    HW253147   2.810   0.422  11.758
17084SOL     OW53148   1.243   2.050   5.074
17084SOL    HW153149   1.266   1.958   5.090
17084SOL    HW253150   1.148   2.050   5.070
17085SOL     OW53151   4.422  14.321   4.828
17085SOL    HW153152   4.507  14.363   4.841
17085SOL    HW253153   4.360  14.377   4.877
17086SOL     OW53154   8.507  10.499   1.269
17086SOL    HW153155   8.510  10.541   1.355
17086SOL    HW253156   8.426  10.448   1.270
17087SOL     OW53157   9.327   1.142   9.145
17087SOL    HW153158   9.253   1.190   9.109
17087SOL    HW253159   9.392   1.209   9.165
17088SOL     OW53160   8.691   0.315   8.802
17088SOL    HW153161   8.663   0.295   8.891
17088SOL    HW253162   8.778   0.275   8.795
17089SOL     OW53163   0.658  11.860  13.287
17089SOL    HW153164   0.645  11.769  13.259
17089SOL    HW253165   0.602  11.870  13.363
17090SOL     OW53166  12.666   0.484   6.984
17090SOL    HW153167  12.675   0.493   7.079
17090SOL    HW253168  12.571   0.489   6.968
17091SOL     OW53169   4.451   6.438  11.488
17091SOL    HW153170   4.527   6.419  11.543
17091SOL    HW253171   4.376   6.434  11.547
17092SOL     OW53172   3.201   8.669   4.818
17092SOL    HW153173   3.262   8.596   4.828
17092SOL    HW253174   3.186   8.700   4.908
17093SOL     OW53175   5.695  13.205  13.685
17093SOL    HW153176   5.622  13.151  13.654
17093SOL    HW253177   5.724  13.161  13.765
17094SOL     OW53178   4.764  11.229   9.839
17094SOL    HW153179   4.769  11.187   9.753
17094SOL    HW253180   4.853  11.226   9.873
17095SOL     OW53181  14.304   9.289   1.374
17095SOL    HW153182  14.308   9.377   1.339
17095SOL    HW253183  14.219   9.284   1.418
17096SOL     OW53184   5.105   9.158   7.505
17096SOL    HW153185   5.166   9.117   7.566
17096SOL    HW253186   5.078   9.088   7.446
17097SOL     OW53187   6.846  13.504   8.462
17097SOL    HW153188   6.833  13.410   8.476
17097SOL    HW253189   6.921  13.527   8.517
17098SOL     OW53190   1.504   2.990   9.004
17098SOL    HW153191   1.561   2.941   9.062
17098SOL    HW253192   1.456   3.050   9.061
17099SOL     OW53193   4.087   6.471   3.931
17099SOL    HW153194   4.167   6.439   3.889
17099SOL    HW253195   4.017   6.420   3.893
17100SOL     OW53196  10.115  13.879  13.247
17100SOL    HW153197  10.122  13.889  13.342
17100SOL    HW253198  10.185  13.934  13.212
17101SOL     OW53199  11.656  10.181   2.781
17101SOL    HW153200  11.652  10.272   2.752
17101SOL    HW253201  11.565  10.156   2.794
17102SOL     OW53202   4.098   8.945  14.839
17102SOL    HW153203   4.075   8.942   0.062
17102SOL    HW253204   4.039   8.882  14.797
17103SOL     OW53205   9.483  14.281   9.878
17103SOL    HW153206   9.573  14.270   9.849
17103SOL    HW253207   9.480  14.368   9.917
17104SOL     OW53208  11.834   2.241  13.781
17104SOL    HW153209  11.845   2.155  13.824
17104SOL    HW253210  11.741   2.260  13.788
17105SOL     OW53211   3.046  13.247   9.641
17105SOL    HW153212   3.090  13.287   9.566
17105SOL    HW253213   3.012  13.321   9.691
17106SOL     OW53214  10.455   3.679   4.076
17106SOL    HW153215  10.375   3.730   4.064
17106SOL    HW253216  10.445   3.604   4.018
17107SOL     OW53217   4.879  10.630   7.558
17107SOL    HW153218   4.842  10.564   7.617
17107SOL    HW253219   4.900  10.581   7.478
17108SOL     OW53220   4.626   6.721  12.483
17108SOL    HW153221   4.721   6.717  12.494
17108SOL    HW253222   4.612   6.716  12.389
17109SOL     OW53223   0.359   0.851   5.052
17109SOL    HW153224   0.386   0.913   4.984
17109SOL    HW253225   0.348   0.905   5.130
17110SOL     OW53226  12.322   4.151   6.604
17110SOL    HW153227  12.258   4.205   6.557
17110SOL    HW253228  12.353   4.088   6.539
17111SOL     OW53229   3.449  10.767  13.910
17111SOL    HW153230   3.435  10.832  13.979
17111SOL    HW253231   3.404  10.803  13.834
17112SOL     OW53232   3.810  13.731   1.808
17112SOL    HW153233   3.882  13.721   1.871
17112SOL    HW253234   3.734  13.752   1.861
17113SOL     OW53235   3.248  12.990   9.214
17113SOL    HW153236   3.161  12.952   9.210
17113SOL    HW253237   3.277  12.975   9.304
17114SOL     OW53238  12.919   9.814   0.075
17114SOL    HW153239  12.941   9.761  14.868
17114SOL    HW253240  12.824   9.801   0.086
17115SOL     OW53241   1.325   6.780   9.968
17115SOL    HW153242   1.254   6.810  10.024
17115SOL    HW253243   1.300   6.691   9.943
17116SOL     OW53244   0.263   6.825   9.380
17116SOL    HW153245   0.295   6.790   9.463
17116SOL    HW253246   0.276   6.919   9.386
17117SOL     OW53247   6.193   4.651  10.072
17117SOL    HW153248   6.103   4.622  10.059
17117SOL    HW253249   6.202   4.729  10.017
17118SOL     OW53250  14.685   8.959  10.695
17118SOL    HW153251  14.704   8.895  10.626
17118SOL    HW253252  14.757   8.951  10.757
17119SOL     OW53253  11.386  10.458   5.672
17119SOL    HW153254  11.449  10.423   5.736
17119SOL    HW253255  11.314  10.396   5.674
17120SOL     OW53256   6.145  12.147   2.486
17120SOL    HW153257   6.186  12.121   2.568
17120SOL    HW253258   6.212  12.130   2.419
17121SOL     OW53259   1.449  12.735   4.287
17121SOL    HW153260   1.426  12.704   4.199
17121SOL    HW253261   1.415  12.668   4.346
17122SOL     OW53262   8.255  10.214   5.087
17122SOL    HW153263   8.160  10.202   5.091
17122SOL    HW253264   8.276  10.267   5.164
17123SOL     OW53265  13.995   7.362  11.515
17123SOL    HW153266  13.927   7.307  11.552
17123SOL    HW253267  13.947   7.427  11.462
17124SOL     OW53268   2.943   1.688  10.747
17124SOL    HW153269   2.882   1.734  10.805
17124SOL    HW253270   3.028   1.698  10.789
17125SOL     OW53271   6.605  12.123   4.626
17125SOL    HW153272   6.666  12.192   4.653
17125SOL    HW253273   6.567  12.156   4.545
17126SOL     OW53274   8.732  13.802   5.806
17126SOL    HW153275   8.809  13.747   5.823
17126SOL    HW253276   8.764  13.870   5.747
17127SOL     OW53277   6.463   2.285   7.641
17127SOL    HW153278   6.542   2.245   7.604
17127SOL    HW253279   6.458   2.370   7.597
17128SOL     OW53280   4.931   0.681   7.980
17128SOL    HW153281   4.933   0.710   7.888
17128SOL    HW253282   5.010   0.718   8.018
17129SOL     OW53283   2.060   9.979  14.421
17129SOL    HW153284   2.095   9.910  14.365
17129SOL    HW253285   1.966   9.961  14.426
17130SOL     OW53286   3.402  12.080   3.708
17130SOL    HW153287   3.370  12.135   3.636
17130SOL    HW253288   3.413  12.141   3.781
17131SOL     OW53289   1.149   2.025  12.401
17131SOL    HW153290   1.200   1.948  12.379
17131SOL    HW253291   1.072   1.991  12.447
17132SOL     OW53292  12.508   5.333  13.373
17132SOL    HW153293  12.424   5.341  13.328
17132SOL    HW253294  12.539   5.245  13.351
17133SOL     OW53295   3.125   5.655  12.708
17133SOL    HW153296   3.102   5.588  12.772
17133SOL    HW253297   3.083   5.627  12.627
17134SOL     OW53298  12.242  12.894   7.085
17134SOL    HW153299  12.215  12.823   7.144
17134SOL    HW253300  12.291  12.849   7.016
17135SOL     OW53301  13.613   7.132  14.627
17135SOL    HW153302  13.695   7.087  14.650
17135SOL    HW253303  13.564   7.067  14.578
17136SOL     OW53304   0.015   8.030   4.614
17136SOL    HW153305   0.102   8.061   4.637
17136SOL    HW253306   0.003   7.950   4.665
17137SOL     OW53307   7.729   7.626   6.570
17137SOL    HW153308   7.664   7.620   6.500
17137SOL    HW253309   7.811   7.646   6.525
17138SOL     OW53310   6.278  13.674   8.315
17138SOL    HW153311   6.188  13.706   8.323
17138SOL    HW253312   6.315  13.723   8.241
17139SOL     OW53313   9.248   4.992   2.625
17139SOL    HW153314   9.255   5.087   2.625
17139SOL    HW253315   9.250   4.967   2.717
17140SOL     OW53316   3.181  10.043  10.677
17140SOL    HW153317   3.179  10.115  10.615
17140SOL    HW253318   3.274  10.020  10.685
17141SOL     OW53319   3.357   9.190  10.830
17141SOL    HW153320   3.356   9.188  10.926
17141SOL    HW253321   3.435   9.240  10.808
17142SOL     OW53322  12.687  12.204   3.784
17142SOL    HW153323  12.759  12.214   3.846
17142SOL    HW253324  12.610  12.186   3.838
17143SOL     OW53325   2.500   0.199  11.986
17143SOL    HW153326   2.519   0.278  11.936
17143SOL    HW253327   2.450   0.229  12.062
17144SOL     OW53328   6.671   1.101  13.603
17144SOL    HW153329   6.669   1.171  13.669
17144SOL    HW253330   6.646   1.145  13.522
17145SOL     OW53331   1.209   2.887  10.776
17145SOL    HW153332   1.133   2.894  10.719
17145SOL    HW253333   1.200   2.959  10.838
17146SOL     OW53334   3.341   6.295   5.626
17146SOL    HW153335   3.303   6.207   5.626
17146SOL    HW253336   3.280   6.348   5.678
17147SOL     OW53337   2.486   7.722   7.101
17147SOL    HW153338   2.410   7.722   7.043
17147SOL    HW253339   2.454   7.759   7.183
17148SOL     OW53340   7.335  11.907  14.177
17148SOL    HW153341   7.247  11.927  14.209
17148SOL    HW253342   7.362  11.986  14.130
17149SOL     OW53343  14.673  11.644   7.476
17149SOL    HW153344  14.742  11.591   7.435
17149SOL    HW253345  14.695  11.644   7.569
17150SOL     OW53346  12.796   3.367  11.263
17150SOL    HW153347  12.731   3.324  11.208
17150SOL    HW253348  12.868   3.304  11.269
17151SOL     OW53349   3.202   7.855   1.866
17151SOL    HW153350   3.296   7.858   1.884
17151SOL    HW253351   3.162   7.838   1.952
17152SOL     OW53352   7.928  11.128  12.127
17152SOL    HW153353   7.934  11.106  12.034
17152SOL    HW253354   7.863  11.199  12.130
17153SOL     OW53355   3.362   9.604   0.338
17153SOL    HW153356   3.413   9.587   0.417
17153SOL    HW253357   3.374   9.697   0.321
17154SOL     OW53358   3.523   5.445   5.052
17154SOL    HW153359   3.584   5.452   5.126
17154SOL    HW253360   3.579   5.435   4.975
17155SOL     OW53361   7.724   6.420  10.203
17155SOL    HW153362   7.714   6.469  10.122
17155SOL    HW253363   7.729   6.486  10.272
17156SOL     OW53364  11.168   9.947  13.897
17156SOL    HW153365  11.203   9.896  13.824
17156SOL    HW253366  11.080   9.911  13.912
17157SOL     OW53367   0.857   6.807   8.243
17157SOL    HW153368   0.781   6.749   8.251
17157SOL    HW253369   0.823   6.886   8.200
17158SOL     OW53370   1.049   8.857  11.770
17158SOL    HW153371   1.142   8.863  11.748
17158SOL    HW253372   1.026   8.945  11.799
17159SOL     OW53373   4.894   0.714  11.275
17159SOL    HW153374   4.872   0.649  11.342
17159SOL    HW253375   4.866   0.797  11.312
17160SOL     OW53376   8.209   3.065   1.307
17160SOL    HW153377   8.117   3.051   1.284
17160SOL    HW253378   8.252   3.087   1.224
17161SOL     OW53379   7.079   9.226  12.343
17161SOL    HW153380   7.080   9.316  12.311
17161SOL    HW253381   7.085   9.235  12.439
17162SOL     OW53382   3.356  10.559   9.150
17162SOL    HW153383   3.408  10.619   9.204
17162SOL    HW253384   3.277  10.609   9.128
17163SOL     OW53385   4.954   1.524   8.641
17163SOL    HW153386   5.039   1.498   8.677
17163SOL    HW253387   4.972   1.604   8.592
17164SOL     OW53388   1.859   1.972   3.409
17164SOL    HW153389   1.880   1.899   3.350
17164SOL    HW253390   1.889   2.050   3.362
17165SOL     OW53391  14.101   9.100   8.478
17165SOL    HW153392  14.052   9.112   8.397
17165SOL    HW253393  14.184   9.144   8.462
17166SOL     OW53394   8.925   7.946  14.075
17166SOL    HW153395   8.995   8.005  14.105
17166SOL    HW253396   8.860   8.005  14.036
17167SOL     OW53397  13.055  11.119  14.354
17167SOL    HW153398  12.978  11.153  14.399
17167SOL    HW253399  13.024  11.099  14.266
17168SOL     OW53400  11.088   3.300  13.680
17168SOL    HW153401  11.172   3.268  13.647
17168SOL    HW253402  11.061   3.365  13.616
17169SOL     OW53403   3.479   9.002   6.625
17169SOL    HW153404   3.561   8.962   6.653
17169SOL    HW253405   3.437   9.030   6.706
17170SOL     OW53406   0.868   6.759   7.606
17170SOL    HW153407   0.836   6.669   7.605
17170SOL    HW253408   0.860   6.787   7.697
17171SOL     OW53409   8.109   7.080   6.439
17171SOL    HW153410   8.116   7.066   6.345
17171SOL    HW253411   8.072   6.999   6.473
17172SOL     OW53412   8.840   2.558   9.294
17172SOL    HW153413   8.777   2.485   9.287
17172SOL    HW253414   8.881   2.546   9.379
17173SOL     OW53415  12.482  13.817   2.379
17173SOL    HW153416  12.422  13.797   2.451
17173SOL    HW253417  12.430  13.803   2.300
17174SOL     OW53418   2.852   0.322  13.094
17174SOL    HW153419   2.796   0.363  13.160
17174SOL    HW253420   2.820   0.231  13.089
17175SOL     OW53421   8.080  13.964   7.095
17175SOL    HW153422   8.156  13.979   7.151
17175SOL    HW253423   8.118  13.935   7.012
17176SOL     OW53424   1.883  11.828   5.144
17176SOL    HW153425   1.893  11.800   5.235
17176SOL    HW253426   1.932  11.910   5.138
17177SOL     OW53427   9.327  12.199  10.174
17177SOL    HW153428   9.406  12.249  10.194
17177SOL    HW253429   9.275  12.257  10.118
17178SOL     OW53430   3.307  13.737   1.504
17178SOL    HW153431   3.307  13.827   1.471
17178SOL    HW253432   3.390  13.701   1.475
17179SOL     OW53433  14.063  10.003  11.817
17179SOL    HW153434  14.130   9.975  11.879
17179SOL    HW253435  14.014   9.924  11.796
17180SOL     OW53436   7.566  12.633   7.731
17180SOL    HW153437   7.660  12.628   7.750
17180SOL    HW253438   7.531  12.551   7.764
17181SOL     OW53439   0.463   6.705   5.002
17181SOL    HW153440   0.529   6.677   5.065
17181SOL    HW253441   0.480   6.653   4.923
17182SOL     OW53442   6.196  13.628   7.324
17182SOL    HW153443   6.195  13.647   7.231
17182SOL    HW253444   6.160  13.539   7.331
17183SOL     OW53445  11.922  11.160   4.851
17183SOL    HW153446  11.888  11.246   4.877
17183SOL    HW253447  11.966  11.175   4.767
17184SOL     OW53448   3.961  11.702   3.821
17184SOL    HW153449   3.879  11.751   3.822
17184SOL    HW253450   3.934  11.610   3.818
17185SOL     OW53451   4.392   8.272  13.546
17185SOL    HW153452   4.368   8.336  13.614
17185SOL    HW253453   4.486   8.285  13.534
17186SOL     OW53454   2.490  10.832  14.279
17186SOL    HW153455   2.396  10.817  14.288
17186SOL    HW253456   2.515  10.871  14.363
17187SOL     OW53457  12.385  13.446   9.797
17187SOL    HW153458  12.324  13.388   9.751
17187SOL    HW253459  12.335  13.525   9.814
17188SOL     OW53460  12.263   3.451  12.432
17188SOL    HW153461  12.237   3.377  12.487
17188SOL    HW253462  12.358   3.442  12.423
17189SOL     OW53463   1.283   6.668  13.214
17189SOL    HW153464   1.283   6.669  13.310
17189SOL    HW253465   1.327   6.749  13.189
17190SOL     OW53466  10.904   9.756   9.380
17190SOL    HW153467  10.892   9.662   9.377
17190SOL    HW253468  10.904   9.784   9.288
17191SOL     OW53469   8.970   6.464  14.814
17191SOL    HW153470   8.979   6.432  14.724
17191SOL    HW253471   8.876   6.460  14.832
17192SOL     OW53472  14.577   6.695   2.985
17192SOL    HW153473  14.604   6.693   2.893
17192SOL    HW253474  14.523   6.773   2.992
17193SOL     OW53475   0.167   6.985   8.759
17193SOL    HW153476   0.233   7.013   8.822
17193SOL    HW253477   0.217   6.960   8.682
17194SOL     OW53478  11.852   9.651   5.980
17194SOL    HW153479  11.875   9.633   6.071
17194SOL    HW253480  11.872   9.569   5.934
17195SOL     OW53481   4.608  11.395   7.887
17195SOL    HW153482   4.642  11.458   7.823
17195SOL    HW253483   4.597  11.446   7.967
17196SOL     OW53484  12.194   6.192   6.346
17196SOL    HW153485  12.115   6.244   6.328
17196SOL    HW253486  12.176   6.150   6.430
17197SOL     OW53487   6.962   8.385   8.036
17197SOL    HW153488   6.924   8.461   8.079
17197SOL    HW253489   7.020   8.420   7.970
17198SOL     OW53490   8.655  10.015  14.356
17198SOL    HW153491   8.690   9.971  14.278
17198SOL    HW253492   8.560  10.014  14.344
17199SOL     OW53493   4.146   7.232   9.543
17199SOL    HW153494   4.183   7.150   9.576
17199SOL    HW253495   4.158   7.228   9.448
17200SOL     OW53496   4.453   7.660  10.697
17200SOL    HW153497   4.376   7.605  10.710
17200SOL    HW253498   4.456   7.715  10.776
17201SOL     OW53499   9.313   7.625   9.008
17201SOL    HW153500   9.339   7.620   8.916
17201SOL    HW253501   9.363   7.556   9.051
17202SOL     OW53502   5.876  14.525  14.100
17202SOL    HW153503   5.873  14.619  14.119
17202SOL    HW253504   5.798  14.509  14.047
17203SOL     OW53505  12.825   2.633   8.624
17203SOL    HW153506  12.760   2.641   8.554
17203SOL    HW253507  12.905   2.606   8.579
17204SOL     OW53508   6.565   2.338   5.316
17204SOL    HW153509   6.628   2.404   5.288
17204SOL    HW253510   6.559   2.278   5.242
17205SOL     OW53511  14.685   6.870   0.729
17205SOL    HW153512  14.704   6.901   0.818
17205SOL    HW253513  14.654   6.781   0.741
17206SOL     OW53514   6.455  13.879   1.672
17206SOL    HW153515   6.520  13.908   1.607
17206SOL    HW253516   6.455  13.948   1.738
17207SOL     OW53517   3.613   6.652   3.132
17207SOL    HW153518   3.702   6.625   3.154
17207SOL    HW253519   3.560   6.573   3.145
17208SOL     OW53520   8.196   0.424  13.027
17208SOL    HW153521   8.141   0.429  13.105
17208SOL    HW253522   8.206   0.331  13.010
17209SOL     OW53523   6.287   9.888   5.662
17209SOL    HW153524   6.263   9.972   5.623
17209SOL    HW253525   6.209   9.834   5.653
17210SOL     OW53526   8.240   5.737  10.594
17210SOL    HW153527   8.204   5.724  10.507
17210SOL    HW253528   8.249   5.649  10.631
17211SOL     OW53529  14.079   5.722  11.879
17211SOL    HW153530  14.119   5.658  11.938
17211SOL    HW253531  13.997   5.746  11.922
17212SOL     OW53532  12.644  10.571   0.126
17212SOL    HW153533  12.586  10.631   0.172
17212SOL    HW253534  12.716  10.555   0.188
17213SOL     OW53535   4.583  12.046   6.726
17213SOL    HW153536   4.546  12.012   6.645
17213SOL    HW253537   4.615  11.969   6.772
17214SOL     OW53538   8.963   0.495   2.877
17214SOL    HW153539   8.917   0.495   2.793
17214SOL    HW253540   8.996   0.584   2.885
17215SOL     OW53541   0.889   6.803   4.051
17215SOL    HW153542   0.947   6.879   4.044
17215SOL    HW253543   0.802   6.837   4.029
17216SOL     OW53544   2.010   6.307  10.738
17216SOL    HW153545   2.094   6.342  10.709
17216SOL    HW253546   2.024   6.213  10.748
17217SOL     OW53547   9.685  13.854  10.870
17217SOL    HW153548   9.655  13.861  10.961
17217SOL    HW253549   9.728  13.768  10.866
17218SOL     OW53550   1.579   2.526   2.245
17218SOL    HW153551   1.575   2.527   2.340
17218SOL    HW253552   1.657   2.476   2.224
17219SOL     OW53553   2.052  11.864  11.871
17219SOL    HW153554   2.040  11.838  11.963
17219SOL    HW253555   1.973  11.914  11.851
17220SOL     OW53556   1.498  13.451   0.089
17220SOL    HW153557   1.426  13.464   0.027
17220SOL    HW253558   1.476  13.509   0.162
17221SOL     OW53559  12.360   3.779   4.448
17221SOL    HW153560  12.268   3.756   4.460
17221SOL    HW253561  12.364   3.874   4.459
17222SOL     OW53562   1.694   3.625  10.625
17222SOL    HW153563   1.778   3.583  10.646
17222SOL    HW253564   1.643   3.618  10.706
17223SOL     OW53565   0.143  12.886   8.708
17223SOL    HW153566   0.082  12.919   8.642
17223SOL    HW253567   0.171  12.964   8.756
17224SOL     OW53568   6.700  10.635  14.429
17224SOL    HW153569   6.689  10.599  14.518
17224SOL    HW253570   6.792  10.619  14.409
17225SOL     OW53571  10.860   5.201   3.536
17225SOL    HW153572  10.895   5.278   3.580
17225SOL    HW253573  10.911   5.128   3.572
17226SOL     OW53574  10.438   6.891  11.468
17226SOL    HW153575  10.349   6.871  11.497
17226SOL    HW253576  10.436   6.879  11.373
17227SOL     OW53577  10.298  13.528  13.025
17227SOL    HW153578  10.280  13.519  12.932
17227SOL    HW253579  10.226  13.483  13.068
17228SOL     OW53580   5.540   7.896   1.850
17228SOL    HW153581   5.634   7.914   1.843
17228SOL    HW253582   5.523   7.829   1.784
17229SOL     OW53583   9.294  11.402   0.774
17229SOL    HW153584   9.365  11.413   0.837
17229SOL    HW253585   9.237  11.337   0.814
17230SOL     OW53586   7.866  14.160  13.077
17230SOL    HW153587   7.795  14.111  13.036
17230SOL    HW253588   7.848  14.155  13.171
17231SOL     OW53589   3.140   2.581   8.621
17231SOL    HW153590   3.185   2.653   8.666
17231SOL    HW253591   3.191   2.503   8.643
17232SOL     OW53592   9.907   3.701   6.065
17232SOL    HW153593   9.941   3.661   6.145
17232SOL    HW253594   9.963   3.776   6.049
17233SOL     OW53595  11.135  10.408   1.976
17233SOL    HW153596  11.165  10.331   2.024
17233SOL    HW253597  11.084  10.457   2.040
17234SOL     OW53598   5.845   6.477  10.839
17234SOL    HW153599   5.818   6.508  10.753
17234SOL    HW253600   5.920   6.532  10.861
17235SOL     OW53601   3.523   4.223   9.207
17235SOL    HW153602   3.587   4.293   9.197
17235SOL    HW253603   3.439   4.263   9.184
17236SOL     OW53604   3.322  11.399   3.464
17236SOL    HW153605   3.363  11.367   3.384
17236SOL    HW253606   3.383  11.374   3.534
17237SOL     OW53607   1.391  11.961   7.991
17237SOL    HW153608   1.448  12.017   7.938
17237SOL    HW253609   1.404  11.992   8.080
17238SOL     OW53610  10.085  13.243  13.378
17238SOL    HW153611   9.993  13.217  13.383
17238SOL    HW253612  10.091  13.294  13.298
17239SOL     OW53613  11.467  12.763   5.679
17239SOL    HW153614  11.499  12.677   5.704
17239SOL    HW253615  11.372  12.754   5.678
17240SOL     OW53616   1.224   0.897  14.550
17240SOL    HW153617   1.220   0.939  14.636
17240SOL    HW253618   1.132   0.881  14.527
17241SOL     OW53619   0.121   7.357   0.029
17241SOL    HW153620   0.080   7.362   0.115
17241SOL    HW253621   0.058   7.399  14.840
17242SOL     OW53622   8.340   2.301   7.168
17242SOL    HW153623   8.262   2.325   7.217
17242SOL    HW253624   8.413   2.325   7.226
17243SOL     OW53625   9.028  13.945   5.828
17243SOL    HW153626   9.037  13.958   5.733
17243SOL    HW253627   9.005  14.032   5.862
17244SOL     OW53628  14.023   2.048  11.116
17244SOL    HW153629  14.064   2.080  11.036
17244SOL    HW253630  14.093   2.053  11.182
17245SOL     OW53631  13.729   5.433  10.479
17245SOL    HW153632  13.775   5.497  10.533
17245SOL    HW253633  13.700   5.484  10.403
17246SOL     OW53634   7.238  13.822   5.187
17246SOL    HW153635   7.230  13.888   5.118
17246SOL    HW253636   7.307  13.855   5.243
17247SOL     OW53637   1.913   0.698   7.128
17247SOL    HW153638   1.861   0.778   7.127
17247SOL    HW253639   1.913   0.670   7.220
17248SOL     OW53640  12.988  14.233  11.498
17248SOL    HW153641  13.048  14.207  11.428
17248SOL    HW253642  13.007  14.326  11.513
17249SOL     OW53643   2.675  11.786  13.785
17249SOL    HW153644   2.740  11.734  13.737
17249SOL    HW253645   2.713  11.874  13.789
17250SOL     OW53646  13.967   5.882  11.212
17250SOL    HW153647  13.950   5.976  11.214
17250SOL    HW253648  14.032   5.867  11.281
17251SOL     OW53649  12.619  13.510   4.816
17251SOL    HW153650  12.573  13.552   4.744
17251SOL    HW253651  12.549  13.474   4.871
17252SOL     OW53652   2.349  12.308   8.035
17252SOL    HW153653   2.299  12.312   7.954
17252SOL    HW253654   2.422  12.367   8.022
17253SOL     OW53655   9.523   8.281  12.889
17253SOL    HW153656   9.589   8.311  12.952
17253SOL    HW253657   9.441   8.278  12.940
17254SOL     OW53658   4.800   4.141   2.420
17254SOL    HW153659   4.763   4.227   2.402
17254SOL    HW253660   4.809   4.100   2.334
17255SOL     OW53661  13.107  10.967  13.774
17255SOL    HW153662  13.014  10.986  13.771
17255SOL    HW253663  13.112  10.871  13.783
17256SOL     OW53664  11.036   5.382  12.732
17256SOL    HW153665  10.993   5.466  12.716
17256SOL    HW253666  10.993   5.321  12.672
17257SOL     OW53667   3.538  13.528   0.268
17257SOL    HW153668   3.548  13.472   0.191
17257SOL    HW253669   3.594  13.488   0.334
17258SOL     OW53670   1.684   4.369  13.483
17258SOL    HW153671   1.780   4.370  13.476
17258SOL    HW253672   1.658   4.288  13.439
17259SOL     OW53673   2.119   9.299  10.862
17259SOL    HW153674   2.048   9.265  10.917
17259SOL    HW253675   2.101   9.264  10.775
17260SOL     OW53676   5.554   3.709   0.819
17260SOL    HW153677   5.466   3.726   0.785
17260SOL    HW253678   5.609   3.707   0.741
17261SOL     OW53679   5.849  14.414  10.397
17261SOL    HW153680   5.938  14.449  10.397
17261SOL    HW253681   5.858  14.327  10.435
17262SOL     OW53682   7.785   9.565   4.585
17262SOL    HW153683   7.692   9.586   4.581
17262SOL    HW253684   7.790   9.473   4.560
17263SOL     OW53685  14.143   5.303  11.897
17263SOL    HW153686  14.127   5.286  11.804
17263SOL    HW253687  14.129   5.219  11.940
17264SOL     OW53688   1.110   4.200   2.534
17264SOL    HW153689   1.148   4.219   2.619
17264SOL    HW253690   1.118   4.105   2.525
17265SOL     OW53691   4.766  14.802   7.388
17265SOL    HW153692   4.674  14.819   7.407
17265SOL    HW253693   4.765  14.758   7.303
17266SOL     OW53694   3.344  14.221   7.166
17266SOL    HW153695   3.255  14.241   7.195
17266SOL    HW253696   3.385  14.307   7.154
17267SOL     OW53697  11.369   2.390   7.994
17267SOL    HW153698  11.346   2.364   7.905
17267SOL    HW253699  11.432   2.325   8.024
17268SOL     OW53700   1.761   9.652   0.852
17268SOL    HW153701   1.731   9.641   0.942
17268SOL    HW253702   1.686   9.691   0.806
17269SOL     OW53703  10.378   2.271  14.081
17269SOL    HW153704  10.404   2.337  14.145
17269SOL    HW253705  10.422   2.298  14.000
17270SOL     OW53706  10.548  12.816   3.759
17270SOL    HW153707  10.569  12.868   3.837
17270SOL    HW253708  10.554  12.725   3.789
17271SOL     OW53709   6.859   3.945   2.974
17271SOL    HW153710   6.772   3.946   2.935
17271SOL    HW253711   6.915   3.989   2.909
17272SOL     OW53712   5.698   8.634   0.597
17272SOL    HW153713   5.657   8.561   0.551
17272SOL    HW253714   5.751   8.678   0.530
17273SOL     OW53715  13.103   8.740   6.653
17273SOL    HW153716  13.095   8.822   6.701
17273SOL    HW253717  13.111   8.766   6.561
17274SOL     OW53718   9.411   5.917   1.338
17274SOL    HW153719   9.393   6.010   1.349
17274SOL    HW253720   9.501   5.906   1.369
17275SOL     OW53721   5.499  10.268   2.227
17275SOL    HW153722   5.583  10.257   2.182
17275SOL    HW253723   5.467  10.354   2.199
17276SOL     OW53724   7.471   1.519   6.036
17276SOL    HW153725   7.518   1.462   6.097
17276SOL    HW253726   7.475   1.473   5.952
17277SOL     OW53727   1.857   1.215   3.815
17277SOL    HW153728   1.793   1.144   3.825
17277SOL    HW253729   1.835   1.277   3.885
17278SOL     OW53730   0.712   8.881   1.680
17278SOL    HW153731   0.645   8.860   1.614
17278SOL    HW253732   0.781   8.925   1.631
17279SOL     OW53733  14.212  11.631  11.725
17279SOL    HW153734  14.225  11.706  11.667
17279SOL    HW253735  14.148  11.660  11.789
17280SOL     OW53736   1.606  14.032   8.529
17280SOL    HW153737   1.620  13.948   8.485
17280SOL    HW253738   1.658  14.095   8.480
17281SOL     OW53739  10.196  14.167   5.371
17281SOL    HW153740  10.206  14.104   5.443
17281SOL    HW253741  10.201  14.252   5.414
17282SOL     OW53742   6.360  13.423  12.639
17282SOL    HW153743   6.288  13.466  12.592
17282SOL    HW253744   6.384  13.485  12.708
17283SOL     OW53745  13.695   0.686   4.154
17283SOL    HW153746  13.694   0.627   4.079
17283SOL    HW253747  13.705   0.629   4.230
17284SOL     OW53748  11.793  13.267   6.519
17284SOL    HW153749  11.870  13.243   6.571
17284SOL    HW253750  11.752  13.183   6.498
17285SOL     OW53751   8.362   8.784   3.644
17285SOL    HW153752   8.409   8.711   3.684
17285SOL    HW253753   8.414   8.861   3.667
17286SOL     OW53754  10.563   2.721  14.383
17286SOL    HW153755  10.578   2.730  14.477
17286SOL    HW253756  10.651   2.723  14.345
17287SOL     OW53757   4.253   0.771  13.095
17287SOL    HW153758   4.292   0.760  13.182
17287SOL    HW253759   4.169   0.726  13.102
17288SOL     OW53760   1.955   1.000  12.764
17288SOL    HW153761   1.961   0.978  12.857
17288SOL    HW253762   1.908   1.083  12.762
17289SOL     OW53763   0.217  10.276   4.141
17289SOL    HW153764   0.139  10.329   4.124
17289SOL    HW253765   0.249  10.307   4.226
17290SOL     OW53766  11.610   2.008  11.282
17290SOL    HW153767  11.552   1.995  11.357
17290SOL    HW253768  11.570   1.957  11.212
17291SOL     OW53769   5.800   1.795   7.059
17291SOL    HW153770   5.741   1.870   7.060
17291SOL    HW253771   5.838   1.795   6.971
17292SOL     OW53772   4.862   1.225  10.819
17292SOL    HW153773   4.925   1.297  10.812
17292SOL    HW253774   4.801   1.254  10.887
17293SOL     OW53775  12.790   0.170   6.518
17293SOL    HW153776  12.697   0.158   6.539
17293SOL    HW253777  12.829   0.197   6.601
17294SOL     OW53778   8.515   5.069   7.393
17294SOL    HW153779   8.535   5.154   7.352
17294SOL    HW253780   8.589   5.053   7.451
17295SOL     OW53781  13.033  14.782   7.108
17295SOL    HW153782  12.991  14.867   7.096
17295SOL    HW253783  12.980  14.721   7.056
17296SOL     OW53784  12.075   8.565   8.175
17296SOL    HW153785  12.041   8.588   8.262
17296SOL    HW253786  12.025   8.620   8.114
17297SOL     OW53787  12.070   1.273   9.029
17297SOL    HW153788  12.059   1.340   9.096
17297SOL    HW253789  11.984   1.263   8.990
17298SOL     OW53790  10.040  10.206   7.554
17298SOL    HW153791  10.132  10.187   7.573
17298SOL    HW253792  10.042  10.285   7.499
17299SOL     OW53793   5.735  10.192  11.921
17299SOL    HW153794   5.759  10.227  12.006
17299SOL    HW253795   5.720  10.099  11.937
17300SOL     OW53796   2.203   9.632   8.038
17300SOL    HW153797   2.113   9.616   8.065
17300SOL    HW253798   2.245   9.546   8.038
17301SOL     OW53799   7.716  12.506   6.798
17301SOL    HW153800   7.691  12.592   6.763
17301SOL    HW253801   7.789  12.525   6.858
17302SOL     OW53802   9.536   7.776   4.950
17302SOL    HW153803   9.547   7.682   4.962
17302SOL    HW253804   9.455   7.797   4.997
17303SOL     OW53805   6.127  10.679  14.506
17303SOL    HW153806   6.075  10.599  14.510
17303SOL    HW253807   6.216  10.649  14.490
17304SOL     OW53808   5.274   2.152  13.223
17304SOL    HW153809   5.352   2.133  13.275
17304SOL    HW253810   5.270   2.247  13.220
17305SOL     OW53811  13.894   4.041   9.244
17305SOL    HW153812  13.845   3.995   9.312
17305SOL    HW253813  13.910   4.128   9.280
17306SOL     OW53814   7.497  14.128   8.625
17306SOL    HW153815   7.566  14.103   8.563
17306SOL    HW253816   7.467  14.044   8.662
17307SOL     OW53817  11.074   6.884   3.561
17307SOL    HW153818  11.096   6.964   3.513
17307SOL    HW253819  10.997   6.906   3.613
17308SOL     OW53820   3.275   5.938   9.413
17308SOL    HW153821   3.209   5.876   9.383
17308SOL    HW253822   3.269   6.011   9.351
17309SOL     OW53823   6.655   1.654   1.498
17309SOL    HW153824   6.741   1.694   1.504
17309SOL    HW253825   6.663   1.572   1.548
17310SOL     OW53826   2.855   6.535   9.901
17310SOL    HW153827   2.822   6.481   9.973
17310SOL    HW253828   2.943   6.561   9.930
17311SOL     OW53829   1.577   6.043   6.836
17311SOL    HW153830   1.504   6.084   6.790
17311SOL    HW253831   1.616   6.114   6.888
17312SOL     OW53832   4.689  13.806  10.349
17312SOL    HW153833   4.704  13.868  10.420
17312SOL    HW253834   4.732  13.846  10.273
17313SOL     OW53835  13.177   8.857   7.957
17313SOL    HW153836  13.132   8.914   8.019
17313SOL    HW253837  13.253   8.908   7.928
17314SOL     OW53838  12.797   3.495  10.481
17314SOL    HW153839  12.815   3.586  10.457
17314SOL    HW253840  12.854   3.444  10.424
17315SOL     OW53841   1.322  10.145   4.645
17315SOL    HW153842   1.293  10.110   4.729
17315SOL    HW253843   1.244  10.142   4.589
17316SOL     OW53844  11.820  14.661  12.584
17316SOL    HW153845  11.835  14.755  12.579
17316SOL    HW253846  11.843  14.637  12.673
17317SOL     OW53847   2.545   2.135   2.368
17317SOL    HW153848   2.609   2.067   2.348
17317SOL    HW253849   2.462   2.100   2.337
17318SOL     OW53850   8.252   5.489  12.876
17318SOL    HW153851   8.278   5.441  12.954
17318SOL    HW253852   8.333   5.530  12.845
17319SOL     OW53853  11.682   4.273  13.848
17319SOL    HW153854  11.598   4.232  13.828
17319SOL    HW253855  11.664   4.326  13.926
17320SOL     OW53856   3.384   6.144   4.716
17320SOL    HW153857   3.334   6.066   4.691
17320SOL    HW253858   3.461   6.142   4.659
17321SOL     OW53859   2.850  13.693   4.980
17321SOL    HW153860   2.790  13.766   4.969
17321SOL    HW253861   2.934  13.725   4.948
17322SOL     OW53862   3.599   2.569  12.699
17322SOL    HW153863   3.526   2.604  12.648
17322SOL    HW253864   3.661   2.537  12.634
17323SOL     OW53865  10.284  13.238  12.912
17323SOL    HW153866  10.226  13.243  12.836
17323SOL    HW253867  10.247  13.169  12.967
17324SOL     OW53868  10.999   4.378   5.782
17324SOL    HW153869  11.040   4.375   5.696
17324SOL    HW253870  11.040   4.453   5.826
17325SOL     OW53871  14.800   6.097  12.440
17325SOL    HW153872  14.718   6.099  12.489
17325SOL    HW253873  14.774   6.096  12.348
17326SOL     OW53874   2.912   6.260   3.112
17326SOL    HW153875   2.880   6.170   3.110
17326SOL    HW253876   2.834   6.314   3.125
17327SOL     OW53877   4.956   0.596  10.764
17327SOL    HW153878   4.998   0.681  10.781
17327SOL    HW253879   5.021   0.532  10.793
17328SOL     OW53880  11.793   2.673   2.417
17328SOL    HW153881  11.786   2.756   2.369
17328SOL    HW253882  11.885   2.666   2.440
17329SOL     OW53883   8.373   3.289   9.145
17329SOL    HW153884   8.364   3.319   9.055
17329SOL    HW253885   8.462   3.312   9.170
17330SOL     OW53886   3.662  14.275   1.674
17330SOL    HW153887   3.702  14.305   1.756
17330SOL    HW253888   3.569  14.265   1.696
17331SOL     OW53889   1.540  13.567   5.354
17331SOL    HW153890   1.445  13.574   5.344
17331SOL    HW253891   1.560  13.478   5.327
17332SOL     OW53892   4.234  11.624   2.329
17332SOL    HW153893   4.272  11.580   2.253
17332SOL    HW253894   4.154  11.664   2.296
17333SOL     OW53895   4.360   6.150   1.105
17333SOL    HW153896   4.403   6.065   1.118
17333SOL    HW253897   4.424   6.202   1.057
17334SOL     OW53898  13.121  11.629   9.986
17334SOL    HW153899  13.146  11.565  10.053
17334SOL    HW253900  13.026  11.626   9.984
17335SOL     OW53901   5.224   2.653  14.029
17335SOL    HW153902   5.194   2.694  14.110
17335SOL    HW253903   5.144   2.630  13.982
17336SOL     OW53904  13.363  10.576   7.073
17336SOL    HW153905  13.326  10.492   7.047
17336SOL    HW253906  13.347  10.633   6.998
17337SOL     OW53907   1.269  13.331   6.959
17337SOL    HW153908   1.350  13.363   6.997
17337SOL    HW253909   1.201  13.389   6.994
17338SOL     OW53910   1.582  12.247   6.635
17338SOL    HW153911   1.624  12.215   6.715
17338SOL    HW253912   1.654  12.277   6.580
17339SOL     OW53913   2.631   1.082   0.432
17339SOL    HW153914   2.703   1.128   0.387
17339SOL    HW253915   2.630   0.995   0.393
17340SOL     OW53916  10.199   8.237  11.515
17340SOL    HW153917  10.159   8.323  11.522
17340SOL    HW253918  10.275   8.250  11.458
17341SOL     OW53919  14.249   1.787   6.500
17341SOL    HW153920  14.294   1.710   6.535
17341SOL    HW253921  14.308   1.860   6.518
17342SOL     OW53922   2.435   8.076   9.376
17342SOL    HW153923   2.375   8.143   9.345
17342SOL    HW253924   2.516   8.123   9.398
17343SOL     OW53925  12.949   1.624  13.062
17343SOL    HW153926  12.856   1.611  13.082
17343SOL    HW253927  12.974   1.701  13.113
17344SOL     OW53928  10.499   5.576   6.877
17344SOL    HW153929  10.547   5.509   6.827
17344SOL    HW253930  10.415   5.535   6.897
17345SOL     OW53931   9.197  11.898   0.082
17345SOL    HW153932   9.146  11.906   0.001
17345SOL    HW253933   9.153  11.829   0.131
17346SOL     OW53934   2.103   7.403   2.840
17346SOL    HW153935   2.136   7.408   2.750
17346SOL    HW253936   2.127   7.488   2.879
17347SOL     OW53937   9.578  12.401   4.123
17347SOL    HW153938   9.558  12.309   4.140
17347SOL    HW253939   9.601  12.437   4.208
17348SOL     OW53940   2.967   8.980   2.663
17348SOL    HW153941   3.005   8.911   2.716
17348SOL    HW253942   2.956   9.054   2.723
17349SOL     OW53943  10.441  11.598   0.083
17349SOL    HW153944  10.532  11.601   0.114
17349SOL    HW253945  10.436  11.519   0.030
17350SOL     OW53946   7.893  11.822   8.492
17350SOL    HW153947   7.826  11.788   8.551
17350SOL    HW253948   7.845  11.885   8.437
17351SOL     OW53949   8.880   3.787   0.803
17351SOL    HW153950   8.882   3.751   0.891
17351SOL    HW253951   8.953   3.848   0.800
17352SOL     OW53952   2.886   1.670   1.659
17352SOL    HW153953   2.932   1.590   1.632
17352SOL    HW253954   2.833   1.693   1.583
17353SOL     OW53955  10.715  14.622   9.643
17353SOL    HW153956  10.810  14.631   9.632
17353SOL    HW253957  10.704  14.593   9.734
17354SOL     OW53958  12.888   4.540   3.701
17354SOL    HW153959  12.919   4.610   3.759
17354SOL    HW253960  12.795   4.559   3.689
17355SOL     OW53961   3.126   7.661   0.176
17355SOL    HW153962   3.162   7.749   0.178
17355SOL    HW253963   3.119   7.641   0.083
17356SOL     OW53964  11.886   9.554  13.607
17356SOL    HW153965  11.969   9.591  13.576
17356SOL    HW253966  11.836   9.538  13.527
17357SOL     OW53967   5.367   8.370  10.700
17357SOL    HW153968   5.411   8.430  10.640
17357SOL    HW253969   5.384   8.407  10.787
17358SOL     OW53970   2.263   0.114  10.439
17358SOL    HW153971   2.251   0.158  10.355
17358SOL    HW253972   2.175   0.090  10.467
17359SOL     OW53973   3.259   6.850  11.209
17359SOL    HW153974   3.315   6.848  11.132
17359SOL    HW253975   3.205   6.929  11.197
17360SOL     OW53976   3.885   3.134   4.740
17360SOL    HW153977   3.803   3.120   4.788
17360SOL    HW253978   3.928   3.205   4.787
17361SOL     OW53979  14.053   7.699   3.377
17361SOL    HW153980  14.083   7.623   3.327
17361SOL    HW253981  14.089   7.686   3.465
17362SOL     OW53982   7.395   7.150   4.519
17362SOL    HW153983   7.389   7.198   4.436
17362SOL    HW253984   7.310   7.165   4.561
17363SOL     OW53985   0.522   6.936  10.885
17363SOL    HW153986   0.613   6.905  10.880
17363SOL    HW253987   0.529   7.030  10.900
17364SOL     OW53988   6.211  14.624  13.596
17364SOL    HW153989   6.137  14.682  13.581
17364SOL    HW253990   6.238  14.595  13.508
17365SOL     OW53991   8.860  11.525   0.323
17365SOL    HW153992   8.953  11.518   0.348
17365SOL    HW253993   8.823  11.587   0.387
17366SOL     OW53994  13.321   3.288   9.930
17366SOL    HW153995  13.387   3.220   9.919
17366SOL    HW253996  13.287   3.302   9.842
17367SOL     OW53997   2.942   2.581  13.101
17367SOL    HW153998   2.910   2.562  13.013
17367SOL    HW253999   2.879   2.643  13.137
17368SOL     OW54000   9.026   6.343   0.675
17368SOL    HW154001   9.092   6.362   0.742
17368SOL    HW254002   9.074   6.348   0.592
17369SOL     OW54003   5.647   3.631   7.647
17369SOL    HW154004   5.686   3.622   7.560
17369SOL    HW254005   5.622   3.723   7.652
17370SOL     OW54006   6.316   6.258   0.720
17370SOL    HW154007   6.226   6.288   0.713
17370SOL    HW254008   6.360   6.296   0.644
17371SOL     OW54009  12.857  10.686   2.514
17371SOL    HW154010  12.811  10.630   2.576
17371SOL    HW254011  12.915  10.627   2.466
17372SOL     OW54012   7.816   9.362   5.582
17372SOL    HW154013   7.826   9.445   5.629
17372SOL    HW254014   7.722   9.353   5.571
17373SOL     OW54015   3.230   8.903   6.435
17373SOL    HW154016   3.308   8.928   6.485
17373SOL    HW254017   3.259   8.905   6.344
17374SOL     OW54018  11.619   5.526   7.289
17374SOL    HW154019  11.647   5.617   7.279
17374SOL    HW254020  11.577   5.524   7.375
17375SOL     OW54021  13.614  14.281   3.570
17375SOL    HW154022  13.542  14.342   3.583
17375SOL    HW254023  13.678  14.329   3.519
17376SOL     OW54024  12.188   4.561  14.567
17376SOL    HW154025  12.272   4.571  14.612
17376SOL    HW254026  12.122   4.580  14.633
17377SOL     OW54027   1.707   1.522   6.369
17377SOL    HW154028   1.658   1.441   6.380
17377SOL    HW254029   1.791   1.494   6.333
17378SOL     OW54030   2.079  10.119  12.064
17378SOL    HW154031   2.168  10.102  12.035
17378SOL    HW254032   2.053  10.040  12.111
17379SOL     OW54033  12.900  11.950   8.600
17379SOL    HW154034  12.819  11.975   8.645
17379SOL    HW254035  12.899  12.001   8.519
17380SOL     OW54036   1.196   7.668   6.624
17380SOL    HW154037   1.204   7.749   6.674
17380SOL    HW254038   1.264   7.611   6.658
17381SOL     OW54039   9.287  14.833   7.210
17381SOL    HW154040   9.222  14.763   7.220
17381SOL    HW254041   9.314  14.854   7.299
17382SOL     OW54042  13.831   5.066  10.794
17382SOL    HW154043  13.762   5.128  10.817
17382SOL    HW254044  13.830   5.064  10.698
17383SOL     OW54045   9.004  12.900  11.857
17383SOL    HW154046   8.919  12.905  11.900
17383SOL    HW254047   9.066  12.891  11.929
17384SOL     OW54048   1.294   8.195   7.725
17384SOL    HW154049   1.263   8.255   7.657
17384SOL    HW254050   1.245   8.114   7.711
17385SOL     OW54051  14.607  14.274   6.013
17385SOL    HW154052  14.641  14.355   5.976
17385SOL    HW254053  14.513  14.288   6.020
17386SOL     OW54054  14.518   5.221  12.697
17386SOL    HW154055  14.525   5.127  12.681
17386SOL    HW254056  14.500   5.228  12.791
17387SOL     OW54057   0.493  11.445   3.778
17387SOL    HW154058   0.533  11.388   3.844
17387SOL    HW254059   0.560  11.453   3.710
17388SOL     OW54060   7.744   6.470  13.122
17388SOL    HW154061   7.686   6.459  13.047
17388SOL    HW254062   7.689   6.513  13.188
17389SOL     OW54063  10.936   9.010   9.179
17389SOL    HW154064  10.908   8.919   9.191
17389SOL    HW254065  11.028   9.004   9.154
17390SOL     OW54066   3.572   3.257  14.178
17390SOL    HW154067   3.611   3.174  14.153
17390SOL    HW254068   3.603   3.272  14.268
17391SOL     OW54069   7.821   8.582   6.584
17391SOL    HW154070   7.772   8.540   6.513
17391SOL    HW254071   7.818   8.518   6.656
17392SOL     OW54072  11.981  14.856  12.108
17392SOL    HW154073  11.970  14.761  12.114
17392SOL    HW254074  12.032  14.869  12.028
17393SOL     OW54075   0.079  11.418   5.328
17393SOL    HW154076   0.054  11.353   5.394
17393SOL    HW254077   0.134  11.480   5.376
17394SOL     OW54078  11.078  11.622  13.233
17394SOL    HW154079  11.008  11.606  13.169
17394SOL    HW254080  11.158  11.597  13.187
17395SOL     OW54081   7.142   3.304   8.509
17395SOL    HW154082   7.047   3.319   8.516
17395SOL    HW254083   7.176   3.336   8.593
17396SOL     OW54084  11.861  13.492   2.280
17396SOL    HW154085  11.831  13.452   2.362
17396SOL    HW254086  11.791  13.474   2.218
17397SOL     OW54087   7.909   2.710   2.208
17397SOL    HW154088   7.916   2.661   2.290
17397SOL    HW254089   7.909   2.642   2.140
17398SOL     OW54090  13.122   3.632   0.370
17398SOL    HW154091  13.159   3.580   0.441
17398SOL    HW254092  13.027   3.622   0.379
17399SOL     OW54093   7.801   9.647   0.923
17399SOL    HW154094   7.761   9.727   0.890
17399SOL    HW254095   7.729   9.585   0.931
17400SOL     OW54096   8.245   1.561  10.246
17400SOL    HW154097   8.236   1.478  10.200
17400SOL    HW254098   8.164   1.608  10.226
17401SOL     OW54099   2.874   9.458   8.749
17401SOL    HW154100   2.953   9.440   8.800
17401SOL    HW254101   2.882   9.403   8.671
17402SOL     OW54102  14.851  10.025  10.455
17402SOL    HW154103  14.818  10.113  10.474
17402SOL    HW254104   0.074  10.038  10.437
17403SOL     OW54105  10.312  14.483   0.512
17403SOL    HW154106  10.254  14.437   0.572
17403SOL    HW254107  10.261  14.558   0.482
17404SOL     OW54108  12.756  11.513  12.263
17404SOL    HW154109  12.851  11.520  12.268
17404SOL    HW254110  12.740  11.422  12.238
17405SOL     OW54111  13.009   1.310   1.163
17405SOL    HW154112  13.038   1.288   1.074
17405SOL    HW254113  12.914   1.315   1.156
17406SOL     OW54114  10.520  10.256  14.796
17406SOL    HW154115  10.473  10.324  14.843
17406SOL    HW254116  10.561  10.203  14.865
17407SOL     OW54117   2.798  12.244   0.518
17407SOL    HW154118   2.883  12.284   0.500
17407SOL    HW254119   2.756  12.238   0.432
17408SOL     OW54120  10.034   6.270   3.590
17408SOL    HW154121   9.977   6.345   3.578
17408SOL    HW254122  10.123   6.307   3.592
17409SOL     OW54123   1.992   9.535  10.784
17409SOL    HW154124   1.961   9.585  10.859
17409SOL    HW254125   2.050   9.469  10.821
17410SOL     OW54126   9.293   3.234   9.811
17410SOL    HW154127   9.264   3.206   9.898
17410SOL    HW254128   9.275   3.328   9.809
17411SOL     OW54129   3.364  13.205   4.030
17411SOL    HW154130   3.378  13.261   3.953
17411SOL    HW254131   3.451  13.174   4.054
17412SOL     OW54132   7.289   4.824  11.507
17412SOL    HW154133   7.216   4.824  11.446
17412SOL    HW254134   7.248   4.811  11.593
17413SOL     OW54135   2.139   7.691   1.342
17413SOL    HW154136   2.163   7.627   1.275
17413SOL    HW254137   2.098   7.639   1.411
17414SOL     OW54138   6.572  14.226  12.390
17414SOL    HW154139   6.564  14.147  12.337
17414SOL    HW254140   6.524  14.293  12.341
17415SOL     OW54141  10.928  11.165  13.238
17415SOL    HW154142  10.853  11.109  13.257
17415SOL    HW254143  10.952  11.202  13.323
17416SOL     OW54144   5.447   1.038  11.516
17416SOL    HW154145   5.535   1.053  11.483
17416SOL    HW254146   5.449   0.948  11.550
17417SOL     OW54147   1.265   4.445   3.954
17417SOL    HW154148   1.337   4.499   3.988
17417SOL    HW254149   1.187   4.478   3.998
17418SOL     OW54150  13.576  14.414   5.787
17418SOL    HW154151  13.554  14.339   5.841
17418SOL    HW254152  13.659  14.389   5.745
17419SOL     OW54153  13.287   0.687   1.851
17419SOL    HW154154  13.201   0.651   1.873
17419SOL    HW254155  13.324   0.714   1.935
17420SOL     OW54156   5.132  10.757   2.598
17420SOL    HW154157   5.093  10.692   2.540
17420SOL    HW254158   5.125  10.718   2.685
17421SOL     OW54159   3.536   4.697  12.693
17421SOL    HW154160   3.599   4.692  12.621
17421SOL    HW254161   3.451   4.682  12.651
17422SOL     OW54162   4.427   5.375   7.058
17422SOL    HW154163   4.487   5.447   7.078
17422SOL    HW254164   4.465   5.299   7.101
17423SOL     OW54165   9.668   6.439   7.752
17423SOL    HW154166   9.591   6.438   7.695
17423SOL    HW254167   9.690   6.347   7.766
17424SOL     OW54168  10.161   5.243  14.111
17424SOL    HW154169  10.122   5.192  14.183
17424SOL    HW254170  10.086   5.286  14.070
17425SOL     OW54171   9.375   7.598   4.300
17425SOL    HW154172   9.460   7.638   4.281
17425SOL    HW254173   9.385   7.507   4.273
17426SOL     OW54174   0.933   0.566   1.567
17426SOL    HW154175   1.016   0.583   1.612
17426SOL    HW254176   0.866   0.604   1.624
17427SOL     OW54177   7.942   4.991   1.527
17427SOL    HW154178   7.865   4.942   1.498
17427SOL    HW254179   8.015   4.953   1.478
17428SOL     OW54180  12.526   4.577  12.794
17428SOL    HW154181  12.470   4.604  12.867
17428SOL    HW254182  12.594   4.644  12.790
17429SOL     OW54183   4.581   1.282   0.310
17429SOL    HW154184   4.661   1.230   0.313
17429SOL    HW254185   4.574   1.310   0.218
17430SOL     OW54186   0.893   7.294   9.396
17430SOL    HW154187   0.811   7.326   9.433
17430SOL    HW254188   0.935   7.372   9.359
17431SOL     OW54189   7.494   3.553   1.920
17431SOL    HW154190   7.555   3.538   1.992
17431SOL    HW254191   7.488   3.648   1.912
17432SOL     OW54192   9.913  10.788   4.349
17432SOL    HW154193   9.953  10.846   4.285
17432SOL    HW254194   9.946  10.700   4.327
17433SOL     OW54195   5.837  11.141   4.285
17433SOL    HW154196   5.846  11.047   4.273
17433SOL    HW254197   5.857  11.156   4.377
17434SOL     OW54198   7.639  11.939   3.620
17434SOL    HW154199   7.695  12.005   3.580
17434SOL    HW254200   7.690  11.906   3.694
17435SOL     OW54201  14.097   5.526   8.807
17435SOL    HW154202  14.143   5.543   8.725
17435SOL    HW254203  14.104   5.607   8.856
17436SOL     OW54204   7.823   7.913  11.185
17436SOL    HW154205   7.834   7.977  11.254
17436SOL    HW254206   7.753   7.855  11.216
17437SOL     OW54207   2.609  10.415  11.591
17437SOL    HW154208   2.658  10.482  11.545
17437SOL    HW254209   2.598  10.449  11.680
17438SOL     OW54210  10.175   8.609   9.947
17438SOL    HW154211  10.236   8.545   9.985
17438SOL    HW254212  10.208   8.694   9.977
17439SOL     OW54213   6.058  10.234   4.040
17439SOL    HW154214   6.102  10.205   3.960
17439SOL    HW254215   5.983  10.286   4.009
17440SOL     OW54216   1.076   5.583  12.235
17440SOL    HW154217   1.071   5.488  12.243
17440SOL    HW254218   0.993   5.607  12.192
17441SOL     OW54219   5.366   7.028   1.886
17441SOL    HW154220   5.348   7.033   1.792
17441SOL    HW254221   5.438   6.966   1.893
17442SOL     OW54222   0.455   5.004  10.410
17442SOL    HW154223   0.393   4.979  10.342
17442SOL    HW254224   0.402   5.051  10.475
17443SOL     OW54225  14.456   0.189   4.996
17443SOL    HW154226  14.531   0.131   4.982
17443SOL    HW254227  14.403   0.144   5.063
17444SOL     OW54228   1.857   2.562  12.589
17444SOL    HW154229   1.929   2.520  12.636
17444SOL    HW254230   1.889   2.572  12.499
17445SOL     OW54231   5.434  12.769   0.240
17445SOL    HW154232   5.528  12.787   0.230
17445SOL    HW254233   5.391  12.827   0.177
17446SOL     OW54234   3.185   3.232   2.180
17446SOL    HW154235   3.151   3.152   2.141
17446SOL    HW254236   3.145   3.303   2.131
17447SOL     OW54237   7.324  13.861   2.503
17447SOL    HW154238   7.376  13.799   2.453
17447SOL    HW254239   7.261  13.807   2.551
17448SOL     OW54240  13.749   4.247   2.421
17448SOL    HW154241  13.764   4.269   2.329
17448SOL    HW254242  13.676   4.185   2.419
17449SOL     OW54243   5.635   6.346  11.921
17449SOL    HW154244   5.706   6.294  11.959
17449SOL    HW254245   5.643   6.432  11.963
17450SOL     OW54246   2.159   2.773   3.156
17450SOL    HW154247   2.195   2.729   3.078
17450SOL    HW254248   2.185   2.717   3.229
17451SOL     OW54249   8.542  14.362   3.456
17451SOL    HW154250   8.613  14.354   3.519
17451SOL    HW254251   8.472  14.407   3.503
17452SOL     OW54252   0.302  12.263   4.242
17452SOL    HW154253   0.349  12.219   4.171
17452SOL    HW254254   0.215  12.282   4.206
17453SOL     OW54255   1.388   9.222  11.149
17453SOL    HW154256   1.385   9.280  11.073
17453SOL    HW254257   1.314   9.162  11.135
17454SOL     OW54258  14.379   5.624   5.191
17454SOL    HW154259  14.462   5.667   5.212
17454SOL    HW254260  14.336   5.684   5.130
17455SOL     OW54261  11.179  10.830   0.550
17455SOL    HW154262  11.184  10.757   0.488
17455SOL    HW254263  11.238  10.804   0.621
17456SOL     OW54264   3.742   3.382   0.497
17456SOL    HW154265   3.765   3.290   0.502
17456SOL    HW254266   3.723   3.407   0.587
17457SOL     OW54267   3.422  10.641   3.778
17457SOL    HW154268   3.340  10.660   3.823
17457SOL    HW254269   3.407  10.558   3.734
17458SOL     OW54270   3.355   0.574   3.194
17458SOL    HW154271   3.310   0.659   3.193
17458SOL    HW254272   3.321   0.528   3.118
17459SOL     OW54273   5.081   9.091  10.749
17459SOL    HW154274   5.059   9.060  10.662
17459SOL    HW254275   5.164   9.137  10.738
17460SOL     OW54276   1.020   4.293   5.208
17460SOL    HW154277   1.098   4.297   5.153
17460SOL    HW254278   0.949   4.324   5.152
17461SOL     OW54279  14.385  13.804   4.537
17461SOL    HW154280  14.454  13.826   4.475
17461SOL    HW254281  14.410  13.851   4.617
17462SOL     OW54282   5.270  14.541  14.313
17462SOL    HW154283   5.197  14.521  14.371
17462SOL    HW254284   5.237  14.613  14.258
17463SOL     OW54285  13.656  11.966   7.279
17463SOL    HW154286  13.585  12.029   7.291
17463SOL    HW254287  13.634  11.919   7.199
17464SOL     OW54288  12.161  11.919  11.654
17464SOL    HW154289  12.102  11.922  11.729
17464SOL    HW254290  12.110  11.958  11.582
17465SOL     OW54291   0.127   7.701   5.983
17465SOL    HW154292   0.049   7.647   5.990
17465SOL    HW254293   0.105   7.767   5.917
17466SOL     OW54294   7.934  10.897   5.640
17466SOL    HW154295   7.876  10.839   5.689
17466SOL    HW254296   7.949  10.971   5.699
17467SOL     OW54297   0.252   6.905  13.695
17467SOL    HW154298   0.297   6.936  13.616
17467SOL    HW254299   0.166   6.878  13.665
17468SOL     OW54300   5.311   7.828   8.719
17468SOL    HW154301   5.385   7.882   8.746
17468SOL    HW254302   5.242   7.891   8.697
17469SOL     OW54303  14.366  13.787   5.035
17469SOL    HW154304  14.350  13.725   4.964
17469SOL    HW254305  14.284  13.788   5.084
17470SOL     OW54306   1.193  13.685   7.936
17470SOL    HW154307   1.192  13.696   8.031
17470SOL    HW254308   1.280  13.651   7.917
17471SOL     OW54309  10.942   0.758   2.173
17471SOL    HW154310  10.937   0.676   2.223
17471SOL    HW254311  10.893   0.740   2.093
17472SOL     OW54312  11.649   6.663   3.278
17472SOL    HW154313  11.582   6.610   3.235
17472SOL    HW254314  11.620   6.753   3.268
17473SOL     OW54315   7.954   7.702  14.471
17473SOL    HW154316   7.884   7.763  14.449
17473SOL    HW254317   8.013   7.752  14.528
17474SOL     OW54318  10.997   6.409   7.057
17474SOL    HW154319  11.018   6.417   7.150
17474SOL    HW254320  11.029   6.490   7.018
17475SOL     OW54321   0.824  11.222   8.173
17475SOL    HW154322   0.896  11.283   8.156
17475SOL    HW254323   0.792  11.247   8.259
17476SOL     OW54324  14.647   8.000  11.986
17476SOL    HW154325  14.649   7.907  11.966
17476SOL    HW254326  14.607   8.040  11.908
17477SOL     OW54327   9.973   0.064   3.941
17477SOL    HW154328   9.948   0.119   4.015
17477SOL    HW254329   9.957  14.844   3.972
17478SOL     OW54330   5.679   8.873   4.503
17478SOL    HW154331   5.680   8.947   4.442
17478SOL    HW254332   5.611   8.815   4.469
17479SOL     OW54333   9.753   1.538  12.958
17479SOL    HW154334   9.795   1.501  13.036
17479SOL    HW254335   9.711   1.618  12.989
17480SOL     OW54336  13.233   2.234   2.628
17480SOL    HW154337  13.144   2.255   2.600
17480SOL    HW254338  13.225   2.215   2.721
17481SOL     OW54339   4.475  14.518   2.191
17481SOL    HW154340   4.507  14.487   2.106
17481SOL    HW254341   4.406  14.580   2.169
17482SOL     OW54342  14.700   6.169   2.327
17482SOL    HW154343  14.681   6.237   2.392
17482SOL    HW254344  14.614   6.130   2.309
17483SOL     OW54345   5.256  11.922  14.452
17483SOL    HW154346   5.273  11.828  14.451
17483SOL    HW254347   5.236  11.942  14.543
17484SOL     OW54348  11.859  12.946  10.554
17484SOL    HW154349  11.833  12.968  10.644
17484SOL    HW254350  11.952  12.926  10.561
17485SOL     OW54351   6.550  11.584   4.391
17485SOL    HW154352   6.566  11.555   4.481
17485SOL    HW254353   6.587  11.672   4.387
17486SOL     OW54354  12.271  10.086  10.353
17486SOL    HW154355  12.179  10.104  10.376
17486SOL    HW254356  12.320  10.155  10.396
17487SOL     OW54357   1.653  14.620   5.670
17487SOL    HW154358   1.734  14.622   5.720
17487SOL    HW254359   1.665  14.685   5.601
17488SOL     OW54360   2.726   3.689  11.054
17488SOL    HW154361   2.643   3.660  11.016
17488SOL    HW254362   2.765   3.745  10.987
17489SOL     OW54363  13.412  13.060   1.006
17489SOL    HW154364  13.417  13.077   0.912
17489SOL    HW254365  13.489  13.007   1.026
17490SOL     OW54366   2.051  11.167   1.759
17490SOL    HW154367   2.137  11.129   1.772
17490SOL    HW254368   2.054  11.206   1.672
17491SOL     OW54369   8.086   7.196   7.850
17491SOL    HW154370   8.026   7.245   7.794
17491SOL    HW254371   8.153   7.163   7.791
17492SOL     OW54372   8.116  14.327   9.219
17492SOL    HW154373   8.024  14.315   9.242
17492SOL    HW254374   8.114  14.354   9.127
17493SOL     OW54375   1.478  13.340   1.154
17493SOL    HW154376   1.507  13.253   1.126
17493SOL    HW254377   1.447  13.327   1.244
17494SOL     OW54378  10.487   5.572   1.993
17494SOL    HW154379  10.440   5.492   1.970
17494SOL    HW254380  10.443   5.641   1.944
17495SOL     OW54381   1.107   6.532   1.484
17495SOL    HW154382   1.147   6.573   1.408
17495SOL    HW254383   1.166   6.553   1.556
17496SOL     OW54384   1.427  12.279   0.038
17496SOL    HW154385   1.503  12.279   0.097
17496SOL    HW254386   1.454  12.224  14.834
17497SOL     OW54387  12.371   3.239   1.583
17497SOL    HW154388  12.285   3.279   1.574
17497SOL    HW254389  12.387   3.236   1.677
17498SOL     OW54390   2.252  12.409   3.265
17498SOL    HW154391   2.340  12.445   3.250
17498SOL    HW254392   2.194  12.485   3.255
17499SOL     OW54393  14.059   8.138   4.292
17499SOL    HW154394  14.102   8.203   4.347
17499SOL    HW254395  13.997   8.094   4.350
17500SOL     OW54396   8.797   1.055   6.478
17500SOL    HW154397   8.741   0.990   6.521
17500SOL    HW254398   8.739   1.100   6.416
17501SOL     OW54399   7.949  11.207   7.572
17501SOL    HW154400   7.960  11.283   7.630
17501SOL    HW254401   7.937  11.133   7.631
17502SOL     OW54402   0.763   8.517   9.208
17502SOL    HW154403   0.845   8.557   9.239
17502SOL    HW254404   0.704   8.592   9.196
17503SOL     OW54405   0.804   8.067   9.459
17503SOL    HW154406   0.882   8.116   9.433
17503SOL    HW254407   0.755   8.127   9.515
17504SOL     OW54408   2.885  10.823  13.563
17504SOL    HW154409   2.970  10.793  13.530
17504SOL    HW254410   2.876  10.912  13.530
17505SOL     OW54411   6.449   7.642   9.257
17505SOL    HW154412   6.495   7.603   9.183
17505SOL    HW254413   6.497   7.722   9.276
17506SOL     OW54414   3.821   6.781   0.642
17506SOL    HW154415   3.846   6.721   0.572
17506SOL    HW254416   3.727   6.796   0.628
17507SOL     OW54417   7.050   0.164   7.234
17507SOL    HW154418   7.137   0.192   7.262
17507SOL    HW254419   7.020   0.234   7.175
17508SOL     OW54420  13.528  11.421   0.146
17508SOL    HW154421  13.549  11.328   0.159
17508SOL    HW254422  13.463  11.440   0.213
17509SOL     OW54423   5.484  11.624  11.778
17509SOL    HW154424   5.482  11.629  11.874
17509SOL    HW254425   5.465  11.533  11.758
17510SOL     OW54426   6.073  12.200   9.005
17510SOL    HW154427   6.144  12.252   9.043
17510SOL    HW254428   6.115  12.119   8.976
17511SOL     OW54429   1.470  12.026   3.860
17511SOL    HW154430   1.505  11.944   3.895
17511SOL    HW254431   1.518  12.038   3.777
17512SOL     OW54432   9.951   6.989   0.751
17512SOL    HW154433   9.861   7.015   0.731
17512SOL    HW254434   9.950   6.964   0.843
17513SOL     OW54435   0.491  11.962  13.041
17513SOL    HW154436   0.542  11.981  12.962
17513SOL    HW254437   0.533  12.015  13.110
17514SOL     OW54438   0.441  11.738   6.942
17514SOL    HW154439   0.404  11.653   6.963
17514SOL    HW254440   0.394  11.767   6.864
17515SOL     OW54441   8.443   6.245   6.740
17515SOL    HW154442   8.356   6.285   6.738
17515SOL    HW254443   8.495   6.298   6.680
17516SOL     OW54444   7.791  14.059   3.081
17516SOL    HW154445   7.810  13.973   3.118
17516SOL    HW254446   7.754  14.109   3.154
17517SOL     OW54447   3.248   1.929   7.269
17517SOL    HW154448   3.303   1.863   7.226
17517SOL    HW254449   3.225   1.990   7.199
17518SOL     OW54450   9.619   9.852   3.806
17518SOL    HW154451   9.598   9.764   3.838
17518SOL    HW254452   9.549   9.907   3.842
17519SOL     OW54453  13.258   4.952   3.643
17519SOL    HW154454  13.240   4.859   3.641
17519SOL    HW254455  13.319   4.963   3.717
17520SOL     OW54456   2.230   8.110   1.611
17520SOL    HW154457   2.293   8.182   1.613
17520SOL    HW254458   2.279   8.034   1.643
17521SOL     OW54459  10.209   1.589  12.530
17521SOL    HW154460  10.254   1.597  12.614
17521SOL    HW254461  10.133   1.535  12.548
17522SOL     OW54462  10.813   8.685   8.863
17522SOL    HW154463  10.797   8.608   8.808
17522SOL    HW254464  10.750   8.677   8.934
17523SOL     OW54465   7.691   4.662   4.228
17523SOL    HW154466   7.683   4.614   4.310
17523SOL    HW254467   7.677   4.595   4.160
17524SOL     OW54468  13.968   3.993   2.122
17524SOL    HW154469  14.045   3.946   2.092
17524SOL    HW254470  13.955   4.063   2.058
17525SOL     OW54471  11.236   1.135  10.046
17525SOL    HW154472  11.291   1.115   9.971
17525SOL    HW254473  11.150   1.156  10.008
17526SOL     OW54474  11.301  11.081   0.131
17526SOL    HW154475  11.240  11.057   0.200
17526SOL    HW254476  11.326  10.998   0.090
17527SOL     OW54477   8.254   8.111   8.332
17527SOL    HW154478   8.193   8.052   8.377
17527SOL    HW254479   8.246   8.089   8.240
17528SOL     OW54480   0.484   1.708   8.926
17528SOL    HW154481   0.566   1.717   8.877
17528SOL    HW254482   0.485   1.781   8.988
17529SOL     OW54483  14.189  13.696  11.663
17529SOL    HW154484  14.136  13.662  11.735
17529SOL    HW254485  14.241  13.766  11.702
17530SOL     OW54486  13.424   7.172   7.250
17530SOL    HW154487  13.379   7.173   7.335
17530SOL    HW254488  13.516   7.158   7.273
17531SOL     OW54489   2.920  13.812   5.983
17531SOL    HW154490   2.898  13.785   6.072
17531SOL    HW254491   2.985  13.882   5.994
17532SOL     OW54492   0.948   5.409   1.251
17532SOL    HW154493   1.003   5.373   1.182
17532SOL    HW254494   0.897   5.334   1.282
17533SOL     OW54495   5.340   3.739   2.662
17533SOL    HW154496   5.347   3.730   2.567
17533SOL    HW254497   5.324   3.833   2.677
17534SOL     OW54498  13.592  11.347   1.315
17534SOL    HW154499  13.546  11.334   1.398
17534SOL    HW254500  13.667  11.402   1.338
17535SOL     OW54501   6.868   2.000  12.519
17535SOL    HW154502   6.909   2.029  12.437
17535SOL    HW254503   6.905   2.058  12.585
17536SOL     OW54504   1.631  11.282   7.702
17536SOL    HW154505   1.609  11.199   7.659
17536SOL    HW254506   1.617  11.265   7.796
17537SOL     OW54507   9.870  14.490   0.107
17537SOL    HW154508   9.849  14.439   0.029
17537SOL    HW254509   9.796  14.550   0.117
17538SOL     OW54510   9.441  13.515   3.139
17538SOL    HW154511   9.428  13.421   3.126
17538SOL    HW254512   9.363  13.556   3.101
17539SOL     OW54513   4.573   6.227  13.649
17539SOL    HW154514   4.548   6.317  13.669
17539SOL    HW254515   4.645   6.208  13.709
17540SOL     OW54516   4.216   9.697  10.015
17540SOL    HW154517   4.273   9.740  10.079
17540SOL    HW254518   4.209   9.607  10.046
17541SOL     OW54519   5.274   9.007   7.651
17541SOL    HW154520   5.249   8.960   7.731
17541SOL    HW254521   5.354   8.964   7.622
17542SOL     OW54522  10.413   9.578   3.126
17542SOL    HW154523  10.411   9.664   3.168
17542SOL    HW254524  10.427   9.517   3.199
17543SOL     OW54525  12.435   4.155   8.425
17543SOL    HW154526  12.356   4.209   8.432
17543SOL    HW254527  12.500   4.200   8.478
17544SOL     OW54528  14.612  14.341  12.730
17544SOL    HW154529  14.589  14.431  12.707
17544SOL    HW254530  14.688  14.348  12.788
17545SOL     OW54531   9.580  10.785   4.073
17545SOL    HW154532   9.531  10.748   4.146
17545SOL    HW254533   9.518  10.788   4.001
17546SOL     OW54534   0.655  10.026   3.188
17546SOL    HW154535   0.560  10.026   3.195
17546SOL    HW254536   0.685  10.048   3.277
17547SOL     OW54537  10.705   6.438   2.190
17547SOL    HW154538  10.646   6.452   2.115
17547SOL    HW254539  10.647   6.423   2.264
17548SOL     OW54540   9.353   0.108  12.415
17548SOL    HW154541   9.382   0.180  12.358
17548SOL    HW254542   9.431   0.054  12.426
17549SOL     OW54543   9.604   0.738  13.153
17549SOL    HW154544   9.625   0.704  13.066
17549SOL    HW254545   9.687   0.773  13.185
17550SOL     OW54546   5.496  11.702   3.133
17550SOL    HW154547   5.461  11.683   3.046
17550SOL    HW254548   5.590  11.685   3.125
17551SOL     OW54549   5.555   1.011  14.490
17551SOL    HW154550   5.610   0.990  14.566
17551SOL    HW254551   5.599   0.968  14.416
17552SOL     OW54552  13.961   2.599  14.800
17552SOL    HW154553  14.007   2.604   0.015
17552SOL    HW254554  14.016   2.650  14.740
17553SOL     OW54555   8.798   0.911   8.921
17553SOL    HW154556   8.884   0.880   8.893
17553SOL    HW254557   8.803   1.006   8.915
17554SOL     OW54558   5.061  13.350   4.327
17554SOL    HW154559   5.002  13.420   4.355
17554SOL    HW254560   5.073  13.363   4.233
17555SOL     OW54561  14.273  10.368   3.242
17555SOL    HW154562  14.304  10.394   3.156
17555SOL    HW254563  14.246  10.449   3.284
17556SOL     OW54564   1.570   1.995  11.913
17556SOL    HW154565   1.630   1.987  11.839
17556SOL    HW254566   1.492   2.036  11.877
17557SOL     OW54567  14.518   3.833   4.109
17557SOL    HW154568  14.487   3.923   4.110
17557SOL    HW254569  14.575   3.826   4.186
17558SOL     OW54570  12.581  10.157  11.168
17558SOL    HW154571  12.550  10.185  11.254
17558SOL    HW254572  12.526  10.204  11.106
17559SOL     OW54573   3.975   2.890   1.953
17559SOL    HW154574   3.986   2.813   1.898
17559SOL    HW254575   3.936   2.956   1.895
17560SOL     OW54576   7.452  14.558  12.462
17560SOL    HW154577   7.469  14.546  12.369
17560SOL    HW254578   7.435  14.651  12.472
17561SOL     OW54579   2.957   6.783  10.505
17561SOL    HW154580   2.973   6.877  10.512
17561SOL    HW254581   2.865   6.773  10.532
17562SOL     OW54582   4.764   3.370  11.399
17562SOL    HW154583   4.805   3.453  11.420
17562SOL    HW254584   4.673   3.380  11.426
17563SOL     OW54585   5.712  10.776   1.358
17563SOL    HW154586   5.717  10.868   1.382
17563SOL    HW254587   5.633  10.744   1.401
17564SOL     OW54588   2.752   1.120   1.742
17564SOL    HW154589   2.824   1.079   1.695
17564SOL    HW254590   2.673   1.084   1.701
17565SOL     OW54591   9.017   8.756   0.860
17565SOL    HW154592   9.085   8.723   0.918
17565SOL    HW254593   8.935   8.724   0.897
17566SOL     OW54594   1.096  14.280  10.378
17566SOL    HW154595   1.123  14.213  10.316
17566SOL    HW254596   1.116  14.363  10.334
17567SOL     OW54597   0.888   7.047   1.164
17567SOL    HW154598   0.898   6.991   1.241
17567SOL    HW254599   0.907   7.135   1.196
17568SOL     OW54600   2.275  13.264   3.872
17568SOL    HW154601   2.322  13.206   3.813
17568SOL    HW254602   2.260  13.212   3.951
17569SOL     OW54603  14.224   1.736   5.588
17569SOL    HW154604  14.185   1.731   5.675
17569SOL    HW254605  14.157   1.777   5.533
17570SOL     OW54606   6.558   8.719   0.902
17570SOL    HW154607   6.586   8.769   0.979
17570SOL    HW254608   6.529   8.786   0.840
17571SOL     OW54609  11.338   2.632  12.385
17571SOL    HW154610  11.266   2.656  12.443
17571SOL    HW254611  11.384   2.714  12.369
17572SOL     OW54612   0.188  14.167   2.436
17572SOL    HW154613   0.144  14.242   2.396
17572SOL    HW254614   0.157  14.091   2.387
17573SOL     OW54615  12.303   0.329  13.881
17573SOL    HW154616  12.365   0.368  13.820
17573SOL    HW254617  12.314   0.234  13.869
17574SOL     OW54618   7.496   9.607  11.498
17574SOL    HW154619   7.417   9.553  11.500
17574SOL    HW254620   7.466   9.692  11.464
17575SOL     OW54621  12.652   6.935  14.265
17575SOL    HW154622  12.618   7.006  14.319
17575SOL    HW254623  12.694   6.876  14.327
17576SOL     OW54624   4.040   5.451  10.945
17576SOL    HW154625   4.042   5.355  10.943
17576SOL    HW254626   4.041   5.472  11.039
17577SOL     OW54627  14.237   7.035   2.294
17577SOL    HW154628  14.160   7.080   2.259
17577SOL    HW254629  14.300   7.106   2.312
17578SOL     OW54630   7.196  13.734  13.832
17578SOL    HW154631   7.210  13.750  13.739
17578SOL    HW254632   7.166  13.818  13.866
17579SOL     OW54633  10.822   4.698   1.349
17579SOL    HW154634  10.898   4.685   1.406
17579SOL    HW254635  10.747   4.681   1.406
17580SOL     OW54636  10.609  12.508  10.182
17580SOL    HW154637  10.565  12.429  10.152
17580SOL    HW254638  10.621  12.495  10.276
17581SOL     OW54639   4.530  11.844   4.358
17581SOL    HW154640   4.530  11.810   4.447
17581SOL    HW254641   4.617  11.824   4.325
17582SOL     OW54642   5.621  11.802   8.439
17582SOL    HW154643   5.610  11.825   8.531
17582SOL    HW254644   5.702  11.752   8.436
17583SOL     OW54645   9.535   1.366   9.171
17583SOL    HW154646   9.600   1.313   9.216
17583SOL    HW254647   9.567   1.372   9.081
17584SOL     OW54648   9.013   5.588   8.603
17584SOL    HW154649   8.982   5.514   8.551
17584SOL    HW254650   8.947   5.656   8.590
17585SOL     OW54651   0.473   5.733   3.075
17585SOL    HW154652   0.489   5.778   2.992
17585SOL    HW254653   0.533   5.659   3.074
17586SOL     OW54654   4.614   8.647  10.393
17586SOL    HW154655   4.689   8.609  10.438
17586SOL    HW254656   4.538   8.614  10.440
17587SOL     OW54657  10.067  14.619   7.087
17587SOL    HW154658   9.977  14.630   7.119
17587SOL    HW254659  10.113  14.696   7.120
17588SOL     OW54660   4.326   7.198  12.582
17588SOL    HW154661   4.408   7.150  12.579
17588SOL    HW254662   4.322   7.244  12.498
17589SOL     OW54663   2.577   3.725   8.030
17589SOL    HW154664   2.536   3.648   8.070
17589SOL    HW254665   2.638   3.758   8.096
17590SOL     OW54666   6.435   3.298   6.622
17590SOL    HW154667   6.356   3.249   6.646
17590SOL    HW254668   6.500   3.272   6.686
17591SOL     OW54669  13.870  10.851   9.088
17591SOL    HW154670  13.947  10.799   9.064
17591SOL    HW254671  13.798  10.789   9.087
17592SOL     OW54672   4.042   3.530   9.321
17592SOL    HW154673   4.013   3.464   9.384
17592SOL    HW254674   3.972   3.596   9.322
17593SOL     OW54675   2.114  14.557  14.619
17593SOL    HW154676   2.036  14.518  14.659
17593SOL    HW254677   2.184  14.539  14.682
17594SOL     OW54678  12.618  11.293   5.604
17594SOL    HW154679  12.712  11.275   5.606
17594SOL    HW254680  12.592  11.273   5.514
17595SOL     OW54681   8.930  12.781   7.542
17595SOL    HW154682   9.006  12.834   7.519
17595SOL    HW254683   8.904  12.812   7.629
17596SOL     OW54684  13.544   7.184   6.897
17596SOL    HW154685  13.531   7.238   6.975
17596SOL    HW254686  13.498   7.102   6.916
17597SOL     OW54687  12.664   0.736   6.016
17597SOL    HW154688  12.646   0.694   5.932
17597SOL    HW254689  12.648   0.666   6.081
17598SOL     OW54690  14.521   8.346   1.408
17598SOL    HW154691  14.593   8.312   1.462
17598SOL    HW254692  14.559   8.355   1.321
17599SOL     OW54693  11.411   7.066   0.923
17599SOL    HW154694  11.359   7.073   0.843
17599SOL    HW254695  11.366   7.000   0.975
17600SOL     OW54696   0.888   8.123  10.630
17600SOL    HW154697   0.975   8.102  10.595
17600SOL    HW254698   0.905   8.159  10.717
17601SOL     OW54699  11.509   4.244   3.027
17601SOL    HW154700  11.549   4.320   3.070
17601SOL    HW254701  11.455   4.205   3.096
17602SOL     OW54702  13.123   5.812  13.935
17602SOL    HW154703  13.064   5.764  13.876
17602SOL    HW254704  13.066   5.868  13.987
17603SOL     OW54705   4.240   3.622   4.920
17603SOL    HW154706   4.325   3.619   4.876
17603SOL    HW254707   4.235   3.711   4.955
17604SOL     OW54708  14.703   0.555   5.761
17604SOL    HW154709  14.644   0.591   5.827
17604SOL    HW254710  14.658   0.570   5.678
17605SOL     OW54711   0.019   8.525   1.278
17605SOL    HW154712   0.054   8.498   1.193
17605SOL    HW254713   0.047   8.456   1.338
17606SOL     OW54714   9.186  10.952   3.385
17606SOL    HW154715   9.231  10.870   3.365
17606SOL    HW254716   9.218  10.976   3.472
17607SOL     OW54717   1.963  11.753  12.435
17607SOL    HW154718   1.961  11.801  12.518
17607SOL    HW254719   1.910  11.806  12.376
17608SOL     OW54720   0.670  14.354   1.599
17608SOL    HW154721   0.680  14.435   1.650
17608SOL    HW254722   0.690  14.380   1.509
17609SOL     OW54723  10.959   1.635  11.819
17609SOL    HW154724  10.958   1.635  11.723
17609SOL    HW254725  11.019   1.706  11.842
17610SOL     OW54726  10.733   9.772  12.453
17610SOL    HW154727  10.745   9.816  12.537
17610SOL    HW254728  10.758   9.681  12.469
17611SOL     OW54729  10.026   0.898  14.269
17611SOL    HW154730   9.986   0.958  14.206
17611SOL    HW254731  10.111   0.938  14.290
17612SOL     OW54732   3.603   3.644   9.602
17612SOL    HW154733   3.542   3.715   9.581
17612SOL    HW254734   3.555   3.587   9.662
17613SOL     OW54735   3.700   4.217   1.996
17613SOL    HW154736   3.634   4.274   2.036
17613SOL    HW254737   3.705   4.141   2.054
17614SOL     OW54738  10.861   7.842   7.425
17614SOL    HW154739  10.778   7.803   7.452
17614SOL    HW254740  10.917   7.768   7.405
17615SOL     OW54741  14.851   7.765  13.205
17615SOL    HW154742   0.066   7.743  13.165
17615SOL    HW254743  14.786   7.728  13.145
17616SOL     OW54744  12.855   9.264   6.525
17616SOL    HW154745  12.845   9.174   6.554
17616SOL    HW254746  12.913   9.304   6.589
17617SOL     OW54747   9.502  11.633  10.011
17617SOL    HW154748   9.436  11.589  10.065
17617SOL    HW254749   9.459  11.646   9.926
17618SOL     OW54750   2.658  14.823  10.233
17618SOL    HW154751   2.628  14.793  10.319
17618SOL    HW254752   2.751  14.803  10.230
17619SOL     OW54753   7.236   7.687   1.455
17619SOL    HW154754   7.230   7.607   1.507
17619SOL    HW254755   7.145   7.709   1.435
17620SOL     OW54756  12.871   1.278   0.363
17620SOL    HW154757  12.860   1.371   0.343
17620SOL    HW254758  12.889   1.237   0.278
17621SOL     OW54759   2.985   1.045  11.602
17621SOL    HW154760   2.985   1.065  11.696
17621SOL    HW254761   3.076   1.058  11.575
17622SOL     OW54762  11.375   8.745   2.242
17622SOL    HW154763  11.470   8.747   2.241
17622SOL    HW254764  11.352   8.656   2.213
17623SOL     OW54765   2.920  11.293   1.779
17623SOL    HW154766   2.944  11.205   1.750
17623SOL    HW254767   2.929  11.347   1.701
17624SOL     OW54768   6.026   4.187   2.385
17624SOL    HW154769   6.021   4.256   2.451
17624SOL    HW254770   6.093   4.216   2.324
17625SOL     OW54771   9.857   5.149   7.548
17625SOL    HW154772   9.884   5.240   7.539
17625SOL    HW254773   9.924   5.110   7.604
17626SOL     OW54774   7.968   6.332  11.436
17626SOL    HW154775   7.955   6.322  11.342
17626SOL    HW254776   7.908   6.403  11.461
17627SOL     OW54777  11.303   6.640   4.138
17627SOL    HW154778  11.244   6.564   4.132
17627SOL    HW254779  11.379   6.615   4.085
17628SOL     OW54780   3.144  11.742   5.003
17628SOL    HW154781   3.227  11.737   5.050
17628SOL    HW254782   3.088  11.796   5.059
17629SOL     OW54783   1.578   5.012   4.727
17629SOL    HW154784   1.549   5.003   4.817
17629SOL    HW254785   1.497   5.020   4.676
17630SOL     OW54786  11.178   8.868   3.071
17630SOL    HW154787  11.185   8.960   3.097
17630SOL    HW254788  11.217   8.819   3.143
17631SOL     OW54789   3.127   9.698   9.944
17631SOL    HW154790   3.093   9.720   9.857
17631SOL    HW254791   3.049   9.672   9.993
17632SOL     OW54792   5.469   2.052   8.037
17632SOL    HW154793   5.406   2.071   7.968
17632SOL    HW254794   5.427   1.982   8.089
17633SOL     OW54795   9.237   2.705  14.469
17633SOL    HW154796   9.182   2.731  14.395
17633SOL    HW254797   9.326   2.723  14.440
17634SOL     OW54798   9.034  12.168  12.853
17634SOL    HW154799   9.007  12.192  12.942
17634SOL    HW254800   9.062  12.077  12.861
17635SOL     OW54801   9.728   7.370   0.347
17635SOL    HW154802   9.824   7.365   0.340
17635SOL    HW254803   9.696   7.300   0.290
17636SOL     OW54804   9.864   1.136  11.294
17636SOL    HW154805   9.935   1.166  11.351
17636SOL    HW254806   9.818   1.215  11.269
17637SOL     OW54807  13.935  13.216   1.792
17637SOL    HW154808  14.001  13.254   1.735
17637SOL    HW254809  13.884  13.290   1.823
17638SOL     OW54810   0.159   5.680  10.129
17638SOL    HW154811   0.167   5.615  10.199
17638SOL    HW254812   0.184   5.762  10.170
17639SOL     OW54813  13.451   2.585   1.512
17639SOL    HW154814  13.483   2.612   1.426
17639SOL    HW254815  13.517   2.523   1.543
17640SOL     OW54816   1.793  14.138  14.770
17640SOL    HW154817   1.741  14.065  14.803
17640SOL    HW254818   1.874  14.099  14.740
17641SOL     OW54819  12.241  10.367  12.366
17641SOL    HW154820  12.313  10.423  12.394
17641SOL    HW254821  12.284  10.289  12.332
17642SOL     OW54822   6.670   8.930   6.645
17642SOL    HW154823   6.729   8.985   6.697
17642SOL    HW254824   6.707   8.842   6.652
17643SOL     OW54825   7.780  13.970  10.610
17643SOL    HW154826   7.835  13.972  10.531
17643SOL    HW254827   7.782  14.059  10.643
17644SOL     OW54828   3.967  12.493  10.201
17644SOL    HW154829   3.964  12.413  10.149
17644SOL    HW254830   4.044  12.482  10.257
17645SOL     OW54831  11.035  12.513  13.923
17645SOL    HW154832  10.991  12.597  13.933
17645SOL    HW254833  11.110  12.532  13.867
17646SOL     OW54834  14.387   2.633   0.208
17646SOL    HW154835  14.389   2.621   0.303
17646SOL    HW254836  14.461   2.691   0.190
17647SOL     OW54837   8.648   8.875  12.658
17647SOL    HW154838   8.589   8.872  12.733
17647SOL    HW254839   8.590   8.885  12.582
17648SOL     OW54840   0.673   5.988   5.821
17648SOL    HW154841   0.711   6.034   5.746
17648SOL    HW254842   0.747   5.973   5.880
17649SOL     OW54843  12.953   4.252  10.773
17649SOL    HW154844  13.008   4.222  10.701
17649SOL    HW254845  12.870   4.206  10.760
17650SOL     OW54846  10.535  12.250   8.276
17650SOL    HW154847  10.602  12.200   8.323
17650SOL    HW254848  10.561  12.341   8.287
17651SOL     OW54849   5.488   1.369   1.068
17651SOL    HW154850   5.552   1.372   0.997
17651SOL    HW254851   5.512   1.442   1.125
17652SOL     OW54852   6.185  12.466  12.423
17652SOL    HW154853   6.164  12.492  12.333
17652SOL    HW254854   6.278  12.487  12.433
17653SOL     OW54855  14.561  13.941   8.264
17653SOL    HW154856  14.593  13.999   8.333
17653SOL    HW254857  14.486  13.986   8.227
17654SOL     OW54858   1.401   7.939   8.104
17654SOL    HW154859   1.416   7.844   8.104
17654SOL    HW254860   1.487   7.977   8.086
17655SOL     OW54861  12.483  13.861   5.769
17655SOL    HW154862  12.535  13.782   5.753
17655SOL    HW254863  12.423  13.865   5.695
17656SOL     OW54864   3.135   1.137  13.551
17656SOL    HW154865   3.196   1.159  13.481
17656SOL    HW254866   3.048   1.151  13.512
17657SOL     OW54867   7.895   4.588  11.568
17657SOL    HW154868   7.926   4.550  11.486
17657SOL    HW254869   7.953   4.663  11.583
17658SOL     OW54870   0.384   9.889   8.712
17658SOL    HW154871   0.409   9.830   8.641
17658SOL    HW254872   0.464   9.900   8.763
17659SOL     OW54873  13.063   7.415  11.780
17659SOL    HW154874  13.063   7.347  11.848
17659SOL    HW254875  13.020   7.490  11.821
17660SOL     OW54876   3.163   6.759   8.270
17660SOL    HW154877   3.106   6.701   8.219
17660SOL    HW254878   3.222   6.797   8.205
17661SOL     OW54879   7.167   3.722   3.679
17661SOL    HW154880   7.211   3.736   3.595
17661SOL    HW254881   7.149   3.628   3.682
17662SOL     OW54882   4.309   2.488   7.427
17662SOL    HW154883   4.251   2.458   7.497
17662SOL    HW254884   4.268   2.568   7.395
17663SOL     OW54885  12.260   8.558   3.069
17663SOL    HW154886  12.304   8.527   3.148
17663SOL    HW254887  12.256   8.653   3.079
17664SOL     OW54888   2.395   9.216   7.535
17664SOL    HW154889   2.342   9.209   7.456
17664SOL    HW254890   2.406   9.126   7.565
17665SOL     OW54891  12.625   8.357   1.505
17665SOL    HW154892  12.628   8.306   1.424
17665SOL    HW254893  12.627   8.448   1.476
17666SOL     OW54894  10.361   2.883   0.895
17666SOL    HW154895  10.279   2.880   0.944
17666SOL    HW254896  10.335   2.902   0.805
17667SOL     OW54897   4.152   9.568  13.333
17667SOL    HW154898   4.071   9.559  13.383
17667SOL    HW254899   4.204   9.631  13.382
17668SOL     OW54900  10.918   3.521   3.548
17668SOL    HW154901  10.981   3.539   3.479
17668SOL    HW254902  10.916   3.601   3.601
17669SOL     OW54903   8.254   7.784  14.206
17669SOL    HW154904   8.328   7.806  14.149
17669SOL    HW254905   8.177   7.790  14.149
17670SOL     OW54906   9.499   7.565  12.843
17670SOL    HW154907   9.575   7.521  12.805
17670SOL    HW254908   9.429   7.551  12.779
17671SOL     OW54909   6.163   1.718  14.280
17671SOL    HW154910   6.116   1.798  14.255
17671SOL    HW254911   6.247   1.749  14.312
17672SOL     OW54912  11.179   9.220   1.982
17672SOL    HW154913  11.188   9.191   1.891
17672SOL    HW254914  11.169   9.315   1.975
17673SOL     OW54915  12.349   8.802   3.284
17673SOL    HW154916  12.334   8.708   3.294
17673SOL    HW254917  12.297   8.827   3.208
17674SOL     OW54918   7.860   5.194  14.045
17674SOL    HW154919   7.807   5.273  14.036
17674SOL    HW254920   7.807   5.124  14.007
17675SOL     OW54921  14.652   7.271   3.388
17675SOL    HW154922  14.641   7.351   3.336
17675SOL    HW254923  14.668   7.203   3.323
17676SOL     OW54924  12.466   2.025   4.674
17676SOL    HW154925  12.502   1.936   4.684
17676SOL    HW254926  12.373   2.012   4.660
17677SOL     OW54927   0.015   9.056   0.752
17677SOL    HW154928  14.824   9.096   0.689
17677SOL    HW254929  14.868   9.101   0.834
17678SOL     OW54930   9.155   9.790   6.597
17678SOL    HW154931   9.217   9.862   6.609
17678SOL    HW254932   9.069   9.832   6.599
17679SOL     OW54933   5.414   1.339  14.224
17679SOL    HW154934   5.439   1.360  14.314
17679SOL    HW254935   5.373   1.253  14.229
17680SOL     OW54936   3.913   2.407   1.754
17680SOL    HW154937   3.984   2.442   1.700
17680SOL    HW254938   3.834   2.424   1.704
17681SOL     OW54939   3.053   3.724   3.860
17681SOL    HW154940   2.986   3.659   3.843
17681SOL    HW254941   3.052   3.735   3.955
17682SOL     OW54942  12.280  13.540  10.786
17682SOL    HW154943  12.283  13.632  10.761
17682SOL    HW254944  12.232  13.497  10.715
17683SOL     OW54945   2.644   7.289   7.883
17683SOL    HW154946   2.675   7.310   7.971
17683SOL    HW254947   2.586   7.361   7.860
17684SOL     OW54948   3.547   7.692   7.181
17684SOL    HW154949   3.590   7.767   7.141
17684SOL    HW254950   3.454   7.713   7.179
17685SOL     OW54951  14.841   6.651  11.964
17685SOL    HW154952  14.842   6.744  11.944
17685SOL    HW254953  14.826   6.647  12.058
17686SOL     OW54954   0.414  14.845   5.607
17686SOL    HW154955   0.459  14.854   5.523
17686SOL    HW254956   0.482  14.863   5.673
17687SOL     OW54957   2.607   9.872  11.456
17687SOL    HW154958   2.523   9.859  11.499
17687SOL    HW254959   2.638   9.956  11.488
17688SOL     OW54960  14.694   2.902   9.210
17688SOL    HW154961  14.727   2.872   9.295
17688SOL    HW254962  14.772   2.933   9.164
17689SOL     OW54963   4.965   6.689   7.708
17689SOL    HW154964   4.979   6.641   7.791
17689SOL    HW254965   4.891   6.747   7.726
17690SOL     OW54966   2.997  14.332  10.108
17690SOL    HW154967   3.008  14.328  10.203
17690SOL    HW254968   2.950  14.252  10.087
17691SOL     OW54969   8.865   6.212   7.761
17691SOL    HW154970   8.912   6.142   7.807
17691SOL    HW254971   8.778   6.213   7.801
17692SOL     OW54972   4.020   1.838   9.095
17692SOL    HW154973   4.036   1.921   9.051
17692SOL    HW254974   4.035   1.771   9.028
17693SOL     OW54975  14.433  13.550   2.408
17693SOL    HW154976  14.365  13.582   2.349
17693SOL    HW254977  14.443  13.458   2.385
17694SOL     OW54978  11.871   7.752   1.294
17694SOL    HW154979  11.859   7.830   1.240
17694SOL    HW254980  11.866   7.784   1.384
17695SOL     OW54981  13.854   5.389   1.074
17695SOL    HW154982  13.806   5.315   1.039
17695SOL    HW254983  13.908   5.420   1.001
17696SOL     OW54984  13.916   7.411   2.729
17696SOL    HW154985  14.000   7.380   2.764
17696SOL    HW254986  13.852   7.386   2.797
17697SOL     OW54987  14.210   6.313  13.940
17697SOL    HW154988  14.180   6.227  13.911
17697SOL    HW254989  14.133   6.370  13.934
17698SOL     OW54990  12.942   1.913   7.585
17698SOL    HW154991  12.920   1.820   7.574
17698SOL    HW254992  12.883   1.959   7.526
17699SOL     OW54993  12.862  11.118  10.572
17699SOL    HW154994  12.832  11.032  10.602
17699SOL    HW254995  12.785  11.174  10.578
17700SOL     OW54996   0.056   0.046   6.296
17700SOL    HW154997   0.046  14.821   6.284
17700SOL    HW254998  14.848   0.084   6.254
17701SOL     OW54999  11.020   6.058   7.149
17701SOL    HW155000  10.950   6.114   7.115
17701SOL    HW255001  11.019   6.072   7.243
17702SOL     OW55002   0.143   4.409   9.915
17702SOL    HW155003   0.067   4.375   9.868
17702SOL    HW255004   0.209   4.420   9.847
17703SOL     OW55005  11.093   6.514  12.791
17703SOL    HW155006  11.159   6.447  12.771
17703SOL    HW255007  11.121   6.550  12.876
17704SOL     OW55008  14.053  14.578   7.177
17704SOL    HW155009  14.078  14.552   7.088
17704SOL    HW255010  13.978  14.523   7.198
17705SOL     OW55011  11.074   1.661   3.948
17705SOL    HW155012  10.988   1.650   3.989
17705SOL    HW255013  11.055   1.677   3.856
17706SOL     OW55014   9.925  14.644   7.561
17706SOL    HW155015  10.012  14.673   7.532
17706SOL    HW255016   9.936  14.629   7.655
17707SOL     OW55017   6.605   9.492   0.934
17707SOL    HW155018   6.580   9.574   0.890
17707SOL    HW255019   6.539   9.429   0.904
17708SOL     OW55020   7.574   4.324   7.798
17708SOL    HW155021   7.511   4.396   7.787
17708SOL    HW255022   7.659   4.362   7.776
17709SOL     OW55023   5.455   7.904   1.082
17709SOL    HW155024   5.531   7.856   1.113
17709SOL    HW255025   5.382   7.843   1.095
17710SOL     OW55026  13.299   1.350   7.098
17710SOL    HW155027  13.348   1.326   7.020
17710SOL    HW255028  13.330   1.438   7.121
17711SOL     OW55029  11.929   8.534  14.540
17711SOL    HW155030  11.960   8.555  14.452
17711SOL    HW255031  11.977   8.454  14.564
17712SOL     OW55032  11.503  10.108  12.178
17712SOL    HW155033  11.515  10.202  12.195
17712SOL    HW255034  11.456  10.075  12.255
17713SOL     OW55035   5.427   9.601  14.223
17713SOL    HW155036   5.376   9.664  14.172
17713SOL    HW255037   5.453   9.649  14.302
17714SOL     OW55038   8.220   5.901  12.108
17714SOL    HW155039   8.224   5.944  12.023
17714SOL    HW255040   8.141   5.937  12.150
17715SOL     OW55041   2.897   8.499  14.316
17715SOL    HW155042   2.945   8.579  14.336
17715SOL    HW255043   2.810   8.529  14.289
17716SOL     OW55044   9.802  13.246   4.542
17716SOL    HW155045   9.816  13.314   4.477
17716SOL    HW255046   9.710  13.221   4.533
17717SOL     OW55047  10.790   6.863   9.526
17717SOL    HW155048  10.748   6.777   9.532
17717SOL    HW255049  10.860   6.850   9.462
17718SOL     OW55050  11.502   4.933   0.321
17718SOL    HW155051  11.525   5.018   0.358
17718SOL    HW255052  11.442   4.894   0.384
17719SOL     OW55053  10.475   6.209   5.796
17719SOL    HW155054  10.448   6.234   5.707
17719SOL    HW255055  10.458   6.115   5.800
17720SOL     OW55056  10.453   3.677   9.850
17720SOL    HW155057  10.478   3.706   9.762
17720SOL    HW255058  10.358   3.691   9.854
17721SOL     OW55059   7.396   1.494   2.152
17721SOL    HW155060   7.472   1.443   2.181
17721SOL    HW255061   7.325   1.464   2.208
17722SOL     OW55062  13.023   1.470  14.810
17722SOL    HW155063  13.114   1.453  14.834
17722SOL    HW255064  13.024   1.557  14.770
17723SOL     OW55065   1.178   0.493  13.478
17723SOL    HW155066   1.203   0.496  13.386
17723SOL    HW255067   1.186   0.401  13.502
17724SOL     OW55068   7.596  10.164   9.631
17724SOL    HW155069   7.618  10.085   9.681
17724SOL    HW255070   7.680  10.194   9.596
17725SOL     OW55071   3.635  12.061  10.149
17725SOL    HW155072   3.666  11.982  10.104
17725SOL    HW255073   3.696  12.072  10.222
17726SOL     OW55074  10.690   5.681   7.067
17726SOL    HW155075  10.629   5.625   7.018
17726SOL    HW255076  10.647   5.767   7.068
17727SOL     OW55077   3.797   3.633   8.137
17727SOL    HW155078   3.779   3.552   8.091
17727SOL    HW255079   3.888   3.625   8.166
17728SOL     OW55080  14.177  13.122   9.054
17728SOL    HW155081  14.242  13.151   9.118
17728SOL    HW255082  14.226  13.109   8.974
17729SOL     OW55083  11.558  13.872   4.902
17729SOL    HW155084  11.628  13.822   4.944
17729SOL    HW255085  11.597  13.957   4.882
17730SOL     OW55086   0.566   7.649   4.817
17730SOL    HW155087   0.596   7.688   4.735
17730SOL    HW255088   0.633   7.673   4.881
17731SOL     OW55089   0.409   4.741   9.748
17731SOL    HW155090   0.415   4.836   9.748
17731SOL    HW255091   0.497   4.711   9.723
17732SOL     OW55092  12.397   4.763  13.279
17732SOL    HW155093  12.308   4.798  13.276
17732SOL    HW255094  12.393   4.691  13.342
17733SOL     OW55095   3.719   7.965   2.779
17733SOL    HW155096   3.741   7.907   2.706
17733SOL    HW255097   3.709   8.052   2.739
17734SOL     OW55098   5.994   6.425   3.372
17734SOL    HW155099   6.086   6.400   3.377
17734SOL    HW255100   5.948   6.342   3.359
17735SOL     OW55101   1.819   8.476   7.179
17735SOL    HW155102   1.902   8.508   7.213
17735SOL    HW255103   1.829   8.481   7.084
17736SOL     OW55104   0.940   0.194   0.138
17736SOL    HW155105   1.003   0.231   0.200
17736SOL    HW255106   0.854   0.217   0.175
17737SOL     OW55107   1.758  13.912   8.854
17737SOL    HW155108   1.785  13.822   8.836
17737SOL    HW255109   1.827  13.966   8.815
17738SOL     OW55110   7.798   7.294  12.688
17738SOL    HW155111   7.813   7.301  12.594
17738SOL    HW255112   7.885   7.284  12.726
17739SOL     OW55113  11.737  12.985  12.560
17739SOL    HW155114  11.662  12.934  12.529
17739SOL    HW255115  11.797  12.987  12.485
17740SOL     OW55116  12.915   5.071   7.925
17740SOL    HW155117  12.943   5.076   7.834
17740SOL    HW255118  12.939   4.983   7.954
17741SOL     OW55119   0.429  10.271  12.984
17741SOL    HW155120   0.431  10.321  13.066
17741SOL    HW255121   0.444  10.181  13.010
17742SOL     OW55122   8.568   9.663  12.507
17742SOL    HW155123   8.639   9.727  12.507
17742SOL    HW255124   8.519   9.681  12.427
17743SOL     OW55125   2.619  10.408  14.245
17743SOL    HW155126   2.582  10.389  14.159
17743SOL    HW255127   2.636  10.322  14.284
17744SOL     OW55128   2.466  14.080  12.602
17744SOL    HW155129   2.531  14.065  12.533
17744SOL    HW255130   2.511  14.135  12.666
17745SOL     OW55131  13.964  12.168   4.307
17745SOL    HW155132  13.983  12.246   4.359
17745SOL    HW255133  13.957  12.200   4.217
17746SOL     OW55134  10.633   7.322  12.331
17746SOL    HW155135  10.707   7.265  12.309
17746SOL    HW255136  10.605   7.292  12.418
17747SOL     OW55137  10.200  10.699   8.201
17747SOL    HW155138  10.150  10.617   8.190
17747SOL    HW255139  10.214  10.730   8.112
17748SOL     OW55140   1.065   5.271   1.039
17748SOL    HW155141   1.151   5.306   1.015
17748SOL    HW255142   1.063   5.184   1.001
17749SOL     OW55143   6.695   8.319   4.371
17749SOL    HW155144   6.734   8.370   4.300
17749SOL    HW255145   6.601   8.325   4.355
17750SOL     OW55146  11.290   8.335  14.630
17750SOL    HW155147  11.328   8.423  14.628
17750SOL    HW255148  11.196   8.349  14.637
17751SOL     OW55149  14.206   2.670  10.042
17751SOL    HW155150  14.216   2.719   9.961
17751SOL    HW255151  14.203   2.737  10.111
17752SOL     OW55152   3.351   3.095  11.680
17752SOL    HW155153   3.325   3.183  11.653
17752SOL    HW255154   3.302   3.036  11.623
17753SOL     OW55155   6.205  11.254   4.344
17753SOL    HW155156   6.130  11.296   4.302
17753SOL    HW255157   6.166  11.185   4.399
17754SOL     OW55158  10.403   7.573  12.552
17754SOL    HW155159  10.451   7.582  12.470
17754SOL    HW255160  10.369   7.484  12.550
17755SOL     OW55161   6.424  12.026  13.329
17755SOL    HW155162   6.371  12.101  13.302
17755SOL    HW255163   6.446  12.043  13.420
17756SOL     OW55164   5.859   4.229   4.351
17756SOL    HW155165   5.890   4.189   4.432
17756SOL    HW255166   5.938   4.240   4.298
17757SOL     OW55167   0.082   2.152   1.548
17757SOL    HW155168   0.063   2.136   1.641
17757SOL    HW255169  14.866   2.151   1.505
17758SOL     OW55170   3.685   6.030   5.951
17758SOL    HW155171   3.643   6.113   5.929
17758SOL    HW255172   3.704   6.037   6.045
17759SOL     OW55173   5.475   8.749   1.762
17759SOL    HW155174   5.412   8.679   1.778
17759SOL    HW255175   5.545   8.733   1.827
17760SOL     OW55176   7.108  12.920  10.561
17760SOL    HW155177   7.182  12.954  10.611
17760SOL    HW255178   7.148  12.866  10.493
17761SOL     OW55179  11.943   9.193  10.126
17761SOL    HW155180  11.974   9.143  10.049
17761SOL    HW255181  12.013   9.255  10.144
17762SOL     OW55182  14.099   3.868   0.911
17762SOL    HW155183  14.179   3.912   0.942
17762SOL    HW255184  14.105   3.872   0.815
17763SOL     OW55185  14.409   1.792   1.148
17763SOL    HW155186  14.416   1.715   1.091
17763SOL    HW255187  14.495   1.797   1.191
17764SOL     OW55188   8.398  11.704  11.376
17764SOL    HW155189   8.468  11.745  11.326
17764SOL    HW255190   8.334  11.676  11.310
17765SOL     OW55191  11.067   7.587   5.245
17765SOL    HW155192  11.160   7.564   5.244
17765SOL    HW255193  11.047   7.602   5.338
17766SOL     OW55194   1.714   2.767   4.223
17766SOL    HW155195   1.664   2.763   4.141
17766SOL    HW255196   1.652   2.740   4.291
17767SOL     OW55197   5.177   2.823  13.619
17767SOL    HW155198   5.162   2.796  13.528
17767SOL    HW255199   5.161   2.918  13.618
17768SOL     OW55200   5.841   8.192   3.289
17768SOL    HW155201   5.929   8.169   3.321
17768SOL    HW255202   5.825   8.279   3.324
17769SOL     OW55203   2.226   1.540   2.829
17769SOL    HW155204   2.267   1.517   2.745
17769SOL    HW255205   2.265   1.480   2.892
17770SOL     OW55206   3.994   1.111   7.615
17770SOL    HW155207   3.966   1.075   7.530
17770SOL    HW255208   3.923   1.170   7.641
17771SOL     OW55209   8.203   2.539   1.237
17771SOL    HW155210   8.269   2.474   1.259
17771SOL    HW255211   8.252   2.620   1.223
17772SOL     OW55212   9.582  10.582   4.485
17772SOL    HW155213   9.637  10.642   4.536
17772SOL    HW255214   9.527  10.539   4.550
17773SOL     OW55215  14.509   4.869   0.567
17773SOL    HW155216  14.558   4.884   0.487
17773SOL    HW255217  14.502   4.955   0.608
17774SOL     OW55218   4.087  11.461   6.357
17774SOL    HW155219   3.992  11.471   6.363
17774SOL    HW255220   4.113  11.428   6.443
17775SOL     OW55221   6.486  10.891   1.678
17775SOL    HW155222   6.522  10.934   1.600
17775SOL    HW255223   6.436  10.817   1.644
17776SOL     OW55224  14.854   6.919   9.788
17776SOL    HW155225  14.772   6.970   9.785
17776SOL    HW255226   0.020   6.937   9.875
17777SOL     OW55227   8.028  10.945   6.722
17777SOL    HW155228   8.001  10.987   6.641
17777SOL    HW255229   7.958  10.965   6.784
17778SOL     OW55230   4.444   0.673   2.675
17778SOL    HW155231   4.449   0.700   2.583
17778SOL    HW255232   4.419   0.581   2.672
17779SOL     OW55233   3.313   0.108   5.050
17779SOL    HW155234   3.408   0.104   5.059
17779SOL    HW255235   3.293   0.054   4.973
17780SOL     OW55236   2.241   9.892  12.411
17780SOL    HW155237   2.324   9.904  12.458
17780SOL    HW255238   2.188   9.967  12.437
17781SOL     OW55239   8.656   1.020  12.201
17781SOL    HW155240   8.709   0.944  12.177
17781SOL    HW255241   8.662   1.023  12.296
17782SOL     OW55242  14.014   0.817  11.016
17782SOL    HW155243  13.946   0.879  10.987
17782SOL    HW255244  14.053   0.858  11.093
17783SOL     OW55245   5.243   9.047   9.894
17783SOL    HW155246   5.300   9.115   9.929
17783SOL    HW255247   5.282   9.023   9.810
17784SOL     OW55248   5.377   4.751  11.176
17784SOL    HW155249   5.456   4.698  11.182
17784SOL    HW255250   5.331   4.717  11.099
17785SOL     OW55251   2.996   3.645  12.325
17785SOL    HW155252   3.075   3.617  12.277
17785SOL    HW255253   2.924   3.622  12.268
17786SOL     OW55254  14.719   9.234   0.604
17786SOL    HW155255  14.625   9.229   0.619
17786SOL    HW255256  14.727   9.277   0.519
17787SOL     OW55257  10.009   3.765  13.237
17787SOL    HW155258  10.037   3.830  13.302
17787SOL    HW255259  10.033   3.804  13.153
17788SOL     OW55260   4.964   2.657   1.111
17788SOL    HW155261   4.899   2.716   1.074
17788SOL    HW255262   5.040   2.713   1.128
17789SOL     OW55263   0.881   8.585   8.364
17789SOL    HW155264   0.966   8.547   8.389
17789SOL    HW255265   0.817   8.533   8.413
17790SOL     OW55266   1.265   6.987   5.736
17790SOL    HW155267   1.347   6.966   5.692
17790SOL    HW255268   1.226   7.056   5.683
17791SOL     OW55269   9.557   0.928   9.999
17791SOL    HW155270   9.618   0.974  10.057
17791SOL    HW255271   9.539   0.845  10.045
17792SOL     OW55272  10.622   2.461   4.344
17792SOL    HW155273  10.668   2.531   4.297
17792SOL    HW255274  10.688   2.394   4.358
17793SOL     OW55275  11.897   4.312  11.917
17793SOL    HW155276  11.879   4.221  11.891
17793SOL    HW255277  11.811   4.354  11.916
17794SOL     OW55278   5.653   9.997  11.618
17794SOL    HW155279   5.700  10.078  11.602
17794SOL    HW255280   5.608   9.978  11.535
17795SOL     OW55281   7.521   5.873   8.157
17795SOL    HW155282   7.542   5.912   8.242
17795SOL    HW255283   7.426   5.878   8.151
17796SOL     OW55284   1.479  14.447  13.193
17796SOL    HW155285   1.416  14.385  13.232
17796SOL    HW255286   1.556  14.394  13.174
17797SOL     OW55287  13.503   4.641  14.494
17797SOL    HW155288  13.512   4.547  14.477
17797SOL    HW255289  13.531   4.651  14.585
17798SOL     OW55290   7.654   1.361   8.049
17798SOL    HW155291   7.572   1.330   8.088
17798SOL    HW255292   7.643   1.456   8.044
17799SOL     OW55293   5.896   5.465  13.721
17799SOL    HW155294   5.910   5.559  13.706
17799SOL    HW255295   5.975   5.437  13.769
17800SOL     OW55296  10.014   2.324   6.535
17800SOL    HW155297  10.039   2.366   6.453
17800SOL    HW255298  10.096   2.322   6.586
17801SOL     OW55299   5.238   3.470  14.671
17801SOL    HW155300   5.215   3.551  14.625
17801SOL    HW255301   5.154   3.434  14.698
17802SOL     OW55302   6.022   4.316   6.210
17802SOL    HW155303   6.083   4.354   6.148
17802SOL    HW255304   6.066   4.323   6.295
17803SOL     OW55305   9.384   1.189   0.605
17803SOL    HW155306   9.337   1.272   0.615
17803SOL    HW255307   9.447   1.204   0.535
17804SOL     OW55308   8.682   7.864   7.803
17804SOL    HW155309   8.742   7.831   7.737
17804SOL    HW255310   8.697   7.959   7.804
17805SOL     OW55311  10.922   3.309   4.440
17805SOL    HW155312  10.939   3.280   4.529
17805SOL    HW255313  10.915   3.228   4.389
17806SOL     OW55314   9.557   2.913   9.917
17806SOL    HW155315   9.558   2.863   9.835
17806SOL    HW255316   9.538   2.847   9.984
17807SOL     OW55317  10.736   6.670   4.918
17807SOL    HW155318  10.773   6.706   4.838
17807SOL    HW255319  10.659   6.622   4.889
17808SOL     OW55320   2.569   3.271   2.871
17808SOL    HW155321   2.529   3.236   2.791
17808SOL    HW255322   2.581   3.364   2.853
17809SOL     OW55323   7.890   4.985   0.474
17809SOL    HW155324   7.884   5.080   0.482
17809SOL    HW255325   7.895   4.953   0.564
17810SOL     OW55326  12.979  13.075   8.429
17810SOL    HW155327  13.071  13.071   8.456
17810SOL    HW255328  12.940  13.141   8.487
17811SOL     OW55329   9.759   1.763   8.393
17811SOL    HW155330   9.734   1.717   8.473
17811SOL    HW255331   9.780   1.852   8.422
17812SOL     OW55332   5.218   8.490   9.864
17812SOL    HW155333   5.302   8.519   9.899
17812SOL    HW255334   5.224   8.507   9.770
17813SOL     OW55335   5.673  11.656   1.242
17813SOL    HW155336   5.631  11.681   1.160
17813SOL    HW255337   5.740  11.723   1.256
17814SOL     OW55338  14.414   9.687  10.243
17814SOL    HW155339  14.446   9.636  10.318
17814SOL    HW255340  14.380   9.767  10.282
17815SOL     OW55341   3.921  10.597  10.618
17815SOL    HW155342   3.876  10.673  10.657
17815SOL    HW255343   3.975  10.635  10.548
17816SOL     OW55344   7.953   1.569  12.621
17816SOL    HW155345   7.952   1.585  12.716
17816SOL    HW255346   7.881   1.623  12.587
17817SOL     OW55347  13.429   2.496   3.850
17817SOL    HW155348  13.421   2.401   3.854
17817SOL    HW255349  13.341   2.529   3.872
17818SOL     OW55350  14.536   8.608  10.230
17818SOL    HW155351  14.581   8.659  10.164
17818SOL    HW255352  14.443   8.621  10.212
17819SOL     OW55353   2.764   5.919  10.658
17819SOL    HW155354   2.812   5.849  10.703
17819SOL    HW255355   2.672   5.891  10.663
17820SOL     OW55356   1.325   1.207   5.724
17820SOL    HW155357   1.319   1.184   5.632
17820SOL    HW255358   1.292   1.296   5.729
17821SOL     OW55359   2.318   1.942   8.631
17821SOL    HW155360   2.258   2.010   8.601
17821SOL    HW255361   2.376   1.987   8.693
17822SOL     OW55362  13.892   5.999  14.623
17822SOL    HW155363  13.964   6.053  14.592
17822SOL    HW255364  13.843   6.056  14.683
17823SOL     OW55365  12.703   4.593   0.679
17823SOL    HW155366  12.638   4.643   0.728
17823SOL    HW255367  12.674   4.502   0.687
17824SOL     OW55368   2.985   3.337  13.615
17824SOL    HW155369   2.941   3.256  13.589
17824SOL    HW255370   3.006   3.324  13.708
17825SOL     OW55371  12.611   4.538   4.280
17825SOL    HW155372  12.618   4.580   4.366
17825SOL    HW255373  12.548   4.466   4.293
17826SOL     OW55374   1.479  12.206  10.579
17826SOL    HW155375   1.565  12.166  10.565
17826SOL    HW255376   1.417  12.134  10.567
17827SOL     OW55377   0.804   5.160   5.557
17827SOL    HW155378   0.750   5.239   5.548
17827SOL    HW255379   0.850   5.153   5.473
17828SOL     OW55380   5.425  13.901  14.128
17828SOL    HW155381   5.449  13.947  14.047
17828SOL    HW255382   5.485  13.827  14.132
17829SOL     OW55383   8.526   7.262  11.781
17829SOL    HW155384   8.468   7.189  11.762
17829SOL    HW255385   8.554   7.247  11.872
17830SOL     OW55386   4.643   3.849  13.377
17830SOL    HW155387   4.666   3.941  13.361
17830SOL    HW255388   4.562   3.854  13.428
17831SOL     OW55389   1.808  10.407   0.125
17831SOL    HW155390   1.880  10.469   0.118
17831SOL    HW255391   1.845  10.324   0.097
17832SOL     OW55392   5.615   3.813  10.792
17832SOL    HW155393   5.635   3.723  10.818
17832SOL    HW255394   5.649   3.867  10.863
17833SOL     OW55395  12.829   3.178   3.595
17833SOL    HW155396  12.741   3.191   3.632
17833SOL    HW255397  12.888   3.221   3.658
17834SOL     OW55398  10.363  10.878   7.974
17834SOL    HW155399  10.327  10.951   8.025
17834SOL    HW255400  10.411  10.825   8.038
17835SOL     OW55401   1.419  13.351   1.665
17835SOL    HW155402   1.368  13.292   1.721
17835SOL    HW255403   1.437  13.427   1.720
17836SOL     OW55404  13.384   6.325  13.632
17836SOL    HW155405  13.426   6.240  13.643
17836SOL    HW255406  13.438   6.371  13.568
17837SOL     OW55407   2.909   2.185   6.649
17837SOL    HW155408   2.879   2.261   6.700
17837SOL    HW255409   3.001   2.204   6.630
17838SOL     OW55410   1.282   2.210  13.577
17838SOL    HW155411   1.226   2.268  13.525
17838SOL    HW255412   1.221   2.163  13.634
17839SOL     OW55413   4.805   7.760   8.870
17839SOL    HW155414   4.803   7.839   8.923
17839SOL    HW255415   4.896   7.755   8.838
17840SOL     OW55416  11.019   1.168  14.570
17840SOL    HW155417  11.090   1.212  14.618
17840SOL    HW255418  11.063   1.096  14.525
17841SOL     OW55419   0.079   4.386   7.079
17841SOL    HW155420   0.012   4.380   7.011
17841SOL    HW255421   0.161   4.365   7.034
17842SOL     OW55422   5.402   2.418   8.371
17842SOL    HW155423   5.468   2.417   8.301
17842SOL    HW255424   5.450   2.447   8.448
17843SOL     OW55425   1.861   7.902   4.471
17843SOL    HW155426   1.954   7.906   4.448
17843SOL    HW255427   1.839   7.809   4.466
17844SOL     OW55428   6.746  12.320   0.262
17844SOL    HW155429   6.841  12.323   0.257
17844SOL    HW255430   6.726  12.340   0.354
17845SOL     OW55431  13.756  11.812  13.755
17845SOL    HW155432  13.721  11.723  13.759
17845SOL    HW255433  13.781  11.832  13.846
17846SOL     OW55434  11.169   1.594   0.059
17846SOL    HW155435  11.201   1.601   0.149
17846SOL    HW255436  11.074   1.600   0.067
17847SOL     OW55437   1.075   8.369   5.782
17847SOL    HW155438   1.020   8.440   5.815
17847SOL    HW255439   1.161   8.384   5.822
17848SOL     OW55440   4.526  11.115  13.520
17848SOL    HW155441   4.452  11.074  13.475
17848SOL    HW255442   4.592  11.127  13.453
17849SOL     OW55443   3.509   4.302   9.558
17849SOL    HW155444   3.499   4.394   9.580
17849SOL    HW255445   3.420   4.267   9.559
17850SOL     OW55446   6.688   8.554  13.270
17850SOL    HW155447   6.761   8.532  13.212
17850SOL    HW255448   6.659   8.470  13.304
17851SOL     OW55449  12.724  12.334  11.330
17851SOL    HW155450  12.810  12.340  11.370
17851SOL    HW255451  12.732  12.266  11.263
17852SOL     OW55452   5.439   4.644  14.213
17852SOL    HW155453   5.500   4.593  14.159
17852SOL    HW255454   5.475   4.733  14.213
17853SOL     OW55455  11.723   8.892   9.759
17853SOL    HW155456  11.803   8.854   9.723
17853SOL    HW255457  11.748   8.919   9.848
17854SOL     OW55458   2.171   3.015  12.453
17854SOL    HW155459   2.101   3.052  12.506
17854SOL    HW255460   2.129   2.946  12.401
17855SOL     OW55461   4.860   7.271  13.729
17855SOL    HW155462   4.789   7.229  13.681
17855SOL    HW255463   4.883   7.208  13.798
17856SOL     OW55464   4.967   8.271   1.031
17856SOL    HW155465   4.958   8.356   1.075
17856SOL    HW255466   4.882   8.257   0.988
17857SOL     OW55467   1.584   1.297   6.477
17857SOL    HW155468   1.491   1.321   6.485
17857SOL    HW255469   1.597   1.232   6.546
17858SOL     OW55470   7.120  10.679  10.941
17858SOL    HW155471   7.134  10.660  10.849
17858SOL    HW255472   7.202  10.722  10.969
17859SOL     OW55473  13.248   8.427  13.203
17859SOL    HW155474  13.319   8.373  13.169
17859SOL    HW255475  13.289   8.510  13.226
17860SOL     OW55476  11.059   0.994   6.343
17860SOL    HW155477  11.131   0.973   6.403
17860SOL    HW255478  11.096   1.061   6.285
17861SOL     OW55479   6.202   2.618   6.991
17861SOL    HW155480   6.222   2.707   7.021
17861SOL    HW255481   6.129   2.628   6.930
17862SOL     OW55482  14.431   6.755   6.260
17862SOL    HW155483  14.379   6.741   6.181
17862SOL    HW255484  14.437   6.669   6.301
17863SOL     OW55485   3.298  10.453   1.295
17863SOL    HW155486   3.317  10.539   1.331
17863SOL    HW255487   3.380  10.423   1.257
17864SOL     OW55488   2.892   1.214   9.493
17864SOL    HW155489   2.838   1.293   9.500
17864SOL    HW255490   2.907   1.188   9.584
17865SOL     OW55491   5.218   4.892  13.339
17865SOL    HW155492   5.259   4.818  13.292
17865SOL    HW255493   5.287   4.959  13.341
17866SOL     OW55494  12.443  10.255   4.043
17866SOL    HW155495  12.463  10.163   4.061
17866SOL    HW255496  12.419  10.256   3.950
17867SOL     OW55497  11.001   2.501   5.887
17867SOL    HW155498  11.025   2.410   5.906
17867SOL    HW255499  11.080   2.539   5.850
17868SOL     OW55500  13.969   0.258   2.362
17868SOL    HW155501  14.044   0.234   2.306
17868SOL    HW255502  13.988   0.347   2.392
17869SOL     OW55503   7.736   0.922  13.535
17869SOL    HW155504   7.802   0.966  13.589
17869SOL    HW255505   7.731   0.975  13.456
17870SOL     OW55506   2.937   6.847   9.591
17870SOL    HW155507   2.950   6.940   9.574
17870SOL    HW255508   2.882   6.844   9.669
17871SOL     OW55509   9.869   0.659  12.052
17871SOL    HW155510   9.956   0.642  12.088
17871SOL    HW255511   9.821   0.578  12.066
17872SOL     OW55512  13.444   1.592   2.911
17872SOL    HW155513  13.504   1.519   2.928
17872SOL    HW255514  13.500   1.662   2.877
17873SOL     OW55515  10.974   5.852   8.578
17873SOL    HW155516  11.017   5.784   8.527
17873SOL    HW255517  11.025   5.858   8.659
17874SOL     OW55518   9.535   9.817  10.915
17874SOL    HW155519   9.594   9.805  10.840
17874SOL    HW255520   9.589   9.800  10.992
17875SOL     OW55521   5.580  11.272   0.842
17875SOL    HW155522   5.632  11.337   0.888
17875SOL    HW255523   5.644  11.209   0.809
17876SOL     OW55524   1.352  11.520   5.722
17876SOL    HW155525   1.397  11.567   5.652
17876SOL    HW255526   1.350  11.429   5.693
17877SOL     OW55527  13.512   8.454   8.817
17877SOL    HW155528  13.572   8.522   8.849
17877SOL    HW255529  13.552   8.423   8.735
17878SOL     OW55530  11.620  13.787   5.715
17878SOL    HW155531  11.635  13.875   5.750
17878SOL    HW255532  11.599  13.800   5.623
17879SOL     OW55533  14.571   4.300   3.851
17879SOL    HW155534  14.632   4.304   3.777
17879SOL    HW255535  14.518   4.222   3.834
17880SOL     OW55536   6.291  12.733  14.306
17880SOL    HW155537   6.296  12.698  14.217
17880SOL    HW255538   6.357  12.684  14.355
17881SOL     OW55539   0.857   7.588  13.266
17881SOL    HW155540   0.788   7.653  13.251
17881SOL    HW255541   0.811   7.504  13.271
17882SOL     OW55542   2.215   1.182   7.325
17882SOL    HW155543   2.198   1.239   7.400
17882SOL    HW255544   2.276   1.116   7.358
17883SOL     OW55545  11.295  10.750   5.292
17883SOL    HW155546  11.347  10.682   5.334
17883SOL    HW255547  11.352  10.784   5.222
17884SOL     OW55548  11.186  13.695   1.016
17884SOL    HW155549  11.277  13.665   1.012
17884SOL    HW255550  11.186  13.767   1.078
17885SOL     OW55551  12.680  11.308   9.540
17885SOL    HW155552  12.749  11.370   9.515
17885SOL    HW255553  12.645  11.343   9.622
17886SOL     OW55554  10.445  10.915   5.914
17886SOL    HW155555  10.526  10.903   5.964
17886SOL    HW255556  10.375  10.911   5.979
17887SOL     OW55557  11.575   3.424   3.579
17887SOL    HW155558  11.631   3.420   3.501
17887SOL    HW255559  11.488   3.443   3.544
17888SOL     OW55560   3.822   1.185   9.927
17888SOL    HW155561   3.727   1.188   9.936
17888SOL    HW255562   3.845   1.093   9.942
17889SOL     OW55563  12.747  10.244   6.703
17889SOL    HW155564  12.652  10.243   6.698
17889SOL    HW255565  12.773  10.152   6.709
17890SOL     OW55566  14.267  13.370   8.167
17890SOL    HW155567  14.361  13.385   8.177
17890SOL    HW255568  14.226  13.432   8.227
17891SOL     OW55569  11.368   0.348  12.533
17891SOL    HW155570  11.405   0.431  12.564
17891SOL    HW255571  11.424   0.281  12.571
17892SOL     OW55572  13.409   9.369  14.378
17892SOL    HW155573  13.431   9.376  14.471
17892SOL    HW255574  13.436   9.454  14.341
17893SOL     OW55575   6.837   4.008   5.421
17893SOL    HW155576   6.930   4.018   5.400
17893SOL    HW255577   6.817   3.917   5.401
17894SOL     OW55578  12.967  13.312   2.036
17894SOL    HW155579  12.884  13.276   2.004
17894SOL    HW255580  12.945  13.400   2.065
17895SOL     OW55581   9.903  12.290  10.824
17895SOL    HW155582   9.989  12.314  10.789
17895SOL    HW255583   9.842  12.346  10.776
17896SOL     OW55584  13.115   0.786   3.799
17896SOL    HW155585  13.020   0.777   3.798
17896SOL    HW255586  13.133   0.862   3.744
17897SOL     OW55587   7.154   3.849   4.296
17897SOL    HW155588   7.081   3.873   4.240
17897SOL    HW255589   7.231   3.886   4.253
17898SOL     OW55590  14.392   1.620   7.000
17898SOL    HW155591  14.487   1.633   6.998
17898SOL    HW255592  14.364   1.656   7.084
17899SOL     OW55593   5.872  10.817  11.941
17899SOL    HW155594   5.946  10.796  11.885
17899SOL    HW255595   5.832  10.732  11.961
17900SOL     OW55596  10.024   6.883  13.604
17900SOL    HW155597   9.965   6.923  13.541
17900SOL    HW255598   9.970   6.821  13.653
17901SOL     OW55599   1.679  11.536   0.963
17901SOL    HW155600   1.619  11.600   0.924
17901SOL    HW255601   1.767  11.570   0.942
17902SOL     OW55602  11.078   0.940   7.128
17902SOL    HW155603  11.116   0.859   7.094
17902SOL    HW255604  11.054   0.990   7.051
17903SOL     OW55605  11.317   5.372  14.033
17903SOL    HW155606  11.406   5.352  14.004
17903SOL    HW255607  11.261   5.314  13.981
17904SOL     OW55608   3.465  10.287  11.728
17904SOL    HW155609   3.475  10.360  11.667
17904SOL    HW255610   3.554  10.268  11.758
17905SOL     OW55611   9.914   2.993   5.188
17905SOL    HW155612   9.900   2.930   5.117
17905SOL    HW255613   9.859   3.068   5.165
17906SOL     OW55614   6.768   9.052  10.770
17906SOL    HW155615   6.822   9.100  10.708
17906SOL    HW255616   6.793   9.088  10.856
17907SOL     OW55617   6.221   9.175  10.745
17907SOL    HW155618   6.166   9.238  10.792
17907SOL    HW255619   6.300   9.169  10.799
17908SOL     OW55620   4.512   8.713  11.619
17908SOL    HW155621   4.515   8.731  11.713
17908SOL    HW255622   4.555   8.788  11.579
17909SOL     OW55623   6.444   2.315   8.908
17909SOL    HW155624   6.421   2.232   8.867
17909SOL    HW255625   6.388   2.319   8.986
17910SOL     OW55626   1.742   7.138   7.815
17910SOL    HW155627   1.824   7.142   7.766
17910SOL    HW255628   1.722   7.045   7.821
17911SOL     OW55629   9.909   6.611   1.741
17911SOL    HW155630   9.983   6.580   1.688
17911SOL    HW255631   9.933   6.590   1.831
17912SOL     OW55632   2.155   9.888   4.474
17912SOL    HW155633   2.171   9.801   4.439
17912SOL    HW255634   2.162   9.877   4.569
17913SOL     OW55635   4.400   3.817   6.627
17913SOL    HW155636   4.470   3.813   6.562
17913SOL    HW255637   4.430   3.759   6.697
17914SOL     OW55638  12.023   6.241  13.226
17914SOL    HW155639  11.997   6.313  13.284
17914SOL    HW255640  12.114   6.259  13.204
17915SOL     OW55641   5.876  14.053  10.206
17915SOL    HW155642   5.953  14.110  10.206
17915SOL    HW255643   5.820  14.088  10.137
17916SOL     OW55644   3.474   3.704   6.726
17916SOL    HW155645   3.408   3.676   6.662
17916SOL    HW255646   3.554   3.715   6.674
17917SOL     OW55647   3.926   8.299   3.757
17917SOL    HW155648   4.013   8.328   3.730
17917SOL    HW255649   3.923   8.206   3.732
17918SOL     OW55650   9.217   0.752  13.909
17918SOL    HW155651   9.151   0.751  13.978
17918SOL    HW255652   9.293   0.708  13.948
17919SOL     OW55653   1.950   9.639   2.047
17919SOL    HW155654   2.045   9.631   2.044
17919SOL    HW255655   1.930   9.661   2.138
17920SOL     OW55656   5.914  11.975  10.305
17920SOL    HW155657   5.822  12.002  10.295
17920SOL    HW255658   5.926  11.964  10.399
17921SOL     OW55659  14.186   8.874   4.326
17921SOL    HW155660  14.199   8.966   4.346
17921SOL    HW255661  14.226   8.827   4.399
17922SOL     OW55662  10.833   7.074  14.731
17922SOL    HW155663  10.913   7.125  14.743
17922SOL    HW255664  10.767   7.121  14.782
17923SOL     OW55665   0.125   3.397   5.944
17923SOL    HW155666   0.193   3.437   5.891
17923SOL    HW255667   0.105   3.314   5.900
17924SOL     OW55668   0.606   5.190  12.887
17924SOL    HW155669   0.544   5.263  12.879
17924SOL    HW255670   0.614   5.156  12.798
17925SOL     OW55671  13.617   1.065   1.228
17925SOL    HW155672  13.570   1.134   1.275
17925SOL    HW255673  13.704   1.100   1.214
17926SOL     OW55674   7.113   1.075   0.406
17926SOL    HW155675   7.122   1.002   0.468
17926SOL    HW255676   7.064   1.142   0.455
17927SOL     OW55677   1.884   8.855   5.728
17927SOL    HW155678   1.933   8.915   5.671
17927SOL    HW255679   1.952   8.814   5.783
17928SOL     OW55680   5.858  13.896  12.253
17928SOL    HW155681   5.813  13.907  12.337
17928SOL    HW255682   5.923  13.828  12.269
17929SOL     OW55683  13.788   4.422  12.603
17929SOL    HW155684  13.759   4.400  12.691
17929SOL    HW255685  13.754   4.510  12.587
17930SOL     OW55686  10.927   5.594   8.797
17930SOL    HW155687  10.874   5.568   8.722
17930SOL    HW255688  10.887   5.550   8.872
17931SOL     OW55689   5.004   4.255   9.022
17931SOL    HW155690   5.083   4.238   9.073
17931SOL    HW255691   5.013   4.347   8.996
17932SOL     OW55692   2.268   3.074   3.126
17932SOL    HW155693   2.234   2.994   3.166
17932SOL    HW255694   2.346   3.046   3.078
17933SOL     OW55695  13.293   7.067  13.972
17933SOL    HW155696  13.279   7.121  13.894
17933SOL    HW255697  13.382   7.089  14.001
17934SOL     OW55698   0.805   1.984  11.229
17934SOL    HW155699   0.730   1.973  11.287
17934SOL    HW255700   0.826   2.077  11.234
17935SOL     OW55701   9.647  10.741   8.451
17935SOL    HW155702   9.568  10.695   8.480
17935SOL    HW255703   9.629  10.833   8.473
17936SOL     OW55704  12.413  12.059   7.306
17936SOL    HW155705  12.417  12.086   7.214
17936SOL    HW255706  12.332  12.009   7.313
17937SOL     OW55707   7.695  10.969  12.171
17937SOL    HW155708   7.761  11.038  12.174
17937SOL    HW255709   7.663  10.961  12.261
17938SOL     OW55710  11.014   2.581   3.925
17938SOL    HW155711  10.965   2.510   3.968
17938SOL    HW255712  11.067   2.620   3.995
17939SOL     OW55713   3.809   9.667  10.444
17939SOL    HW155714   3.715   9.683  10.444
17939SOL    HW255715   3.825   9.621  10.361
17940SOL     OW55716   1.570   8.524   0.145
17940SOL    HW155717   1.663   8.531   0.167
17940SOL    HW255718   1.533   8.607   0.174
17941SOL     OW55719   4.557   0.701   7.687
17941SOL    HW155720   4.568   0.753   7.607
17941SOL    HW255721   4.504   0.757   7.745
17942SOL     OW55722  10.970   7.397  12.421
17942SOL    HW155723  10.919   7.478  12.426
17942SOL    HW255724  11.058   7.426  12.398
17943SOL     OW55725  14.643   4.308  10.211
17943SOL    HW155726  14.605   4.266  10.288
17943SOL    HW255727  14.656   4.237  10.148
17944SOL     OW55728   3.732  14.189  11.943
17944SOL    HW155729   3.657  14.134  11.920
17944SOL    HW255730   3.702  14.243  12.016
17945SOL     OW55731  13.754   0.054   0.007
17945SOL    HW155732  13.690   0.070  14.807
17945SOL    HW255733  13.758   0.137   0.055
17946SOL     OW55734   1.006  10.262   0.848
17946SOL    HW155735   1.077  10.211   0.886
17946SOL    HW255736   0.938  10.198   0.828
17947SOL     OW55737   7.234  11.482   0.490
17947SOL    HW155738   7.141  11.461   0.479
17947SOL    HW255739   7.257  11.445   0.576
17948SOL     OW55740  14.338   7.153   0.754
17948SOL    HW155741  14.276   7.085   0.729
17948SOL    HW255742  14.335   7.155   0.850
17949SOL     OW55743  10.562   5.710   0.028
17949SOL    HW155744  10.555   5.802   0.005
17949SOL    HW255745  10.644   5.682  14.856
17950SOL     OW55746   1.857   4.482   0.704
17950SOL    HW155747   1.932   4.472   0.763
17950SOL    HW255748   1.866   4.410   0.642
17951SOL     OW55749  14.699   8.725   1.629
17951SOL    HW155750  14.640   8.651   1.645
17951SOL    HW255751  14.681   8.750   1.538
17952SOL     OW55752   0.544  10.085  12.777
17952SOL    HW155753   0.631  10.113  12.804
17952SOL    HW255754   0.497  10.070  12.859
17953SOL     OW55755  13.802   3.678   8.622
17953SOL    HW155756  13.731   3.618   8.647
17953SOL    HW255757  13.882   3.633   8.650
17954SOL     OW55758   5.575   3.046   8.980
17954SOL    HW155759   5.515   3.024   9.052
17954SOL    HW255760   5.522   3.037   8.901
17955SOL     OW55761   6.298   1.265   6.872
17955SOL    HW155762   6.330   1.221   6.951
17955SOL    HW255763   6.262   1.348   6.903
17956SOL     OW55764   0.907  14.474   2.763
17956SOL    HW155765   0.818  14.484   2.727
17956SOL    HW255766   0.923  14.554   2.812
17957SOL     OW55767  12.473  13.837  10.763
17957SOL    HW155768  12.384  13.823  10.729
17957SOL    HW255769  12.530  13.809  10.692
17958SOL     OW55770  14.532  10.597   3.983
17958SOL    HW155771  14.614  10.624   3.941
17958SOL    HW255772  14.467  10.604   3.914
17959SOL     OW55773   3.227   6.292   7.833
17959SOL    HW155774   3.234   6.227   7.763
17959SOL    HW255775   3.317   6.309   7.859
17960SOL     OW55776  12.703   2.811   1.809
17960SOL    HW155777  12.614   2.813   1.774
17960SOL    HW255778  12.710   2.727   1.854
17961SOL     OW55779  12.891  10.932  10.278
17961SOL    HW155780  12.910  11.020  10.246
17961SOL    HW255781  12.976  10.896  10.302
17962SOL     OW55782  12.744   3.240   1.221
17962SOL    HW155783  12.681   3.204   1.284
17962SOL    HW255784  12.704   3.224   1.135
17963SOL     OW55785   7.254   1.933   5.842
17963SOL    HW155786   7.202   2.010   5.819
17963SOL    HW255787   7.305   1.960   5.919
17964SOL     OW55788  12.123  10.899  11.334
17964SOL    HW155789  12.077  10.868  11.257
17964SOL    HW255790  12.106  10.993  11.337
17965SOL     OW55791   8.879   3.527   3.645
17965SOL    HW155792   8.811   3.461   3.629
17965SOL    HW255793   8.846   3.607   3.605
17966SOL     OW55794   7.227   8.901   6.464
17966SOL    HW155795   7.134   8.920   6.478
17966SOL    HW255796   7.263   8.984   6.432
17967SOL     OW55797   7.824  13.568   9.738
17967SOL    HW155798   7.763  13.619   9.686
17967SOL    HW255799   7.853  13.628   9.807
17968SOL     OW55800   9.322   8.249  12.583
17968SOL    HW155801   9.286   8.277  12.667
17968SOL    HW255802   9.373   8.171  12.604
17969SOL     OW55803   1.228   7.943   6.026
17969SOL    HW155804   1.286   7.872   6.054
17969SOL    HW255805   1.269   8.022   6.062
17970SOL     OW55806   5.304  12.803  13.506
17970SOL    HW155807   5.372  12.741  13.534
17970SOL    HW255808   5.252  12.754  13.443
17971SOL     OW55809  14.668   6.841   3.251
17971SOL    HW155810  14.671   6.858   3.345
17971SOL    HW255811  14.665   6.746   3.244
17972SOL     OW55812  14.414   8.268  11.596
17972SOL    HW155813  14.325   8.252  11.564
17972SOL    HW255814  14.427   8.362  11.586
17973SOL     OW55815  14.335  13.785   2.901
17973SOL    HW155816  14.265  13.807   2.840
17973SOL    HW255817  14.320  13.842   2.977
17974SOL     OW55818   6.607   2.188  14.189
17974SOL    HW155819   6.656   2.169  14.269
17974SOL    HW255820   6.626   2.280  14.170
17975SOL     OW55821   7.733   2.563   8.466
17975SOL    HW155822   7.704   2.654   8.457
17975SOL    HW255823   7.661   2.511   8.430
17976SOL     OW55824   1.601  11.366  13.115
17976SOL    HW155825   1.618  11.443  13.062
17976SOL    HW255826   1.686  11.322  13.122
17977SOL     OW55827  12.364  11.814   6.380
17977SOL    HW155828  12.448  11.781   6.347
17977SOL    HW255829  12.351  11.897   6.333
17978SOL     OW55830  10.787   7.214   7.578
17978SOL    HW155831  10.756   7.222   7.488
17978SOL    HW255832  10.752   7.130   7.608
17979SOL     OW55833   5.392   0.937   9.050
17979SOL    HW155834   5.390   0.936   9.145
17979SOL    HW255835   5.329   0.870   9.023
17980SOL     OW55836   6.915   1.754   4.378
17980SOL    HW155837   6.933   1.682   4.438
17980SOL    HW255838   6.999   1.770   4.333
17981SOL     OW55839  14.732  11.490   6.503
17981SOL    HW155840  14.777  11.545   6.567
17981SOL    HW255841  14.730  11.543   6.423
17982SOL     OW55842   0.208   5.873   3.665
17982SOL    HW155843   0.233   5.965   3.670
17982SOL    HW255844   0.192   5.847   3.756
17983SOL     OW55845   0.159   8.169   7.656
17983SOL    HW155846   0.159   8.264   7.654
17983SOL    HW255847   0.116   8.146   7.739
17984SOL     OW55848   3.362   3.005   1.978
17984SOL    HW155849   3.336   3.059   1.903
17984SOL    HW255850   3.392   2.923   1.939
17985SOL     OW55851  14.170   2.294  13.018
17985SOL    HW155852  14.122   2.311  12.937
17985SOL    HW255853  14.245   2.353  13.015
17986SOL     OW55854  12.643   3.784   8.053
17986SOL    HW155855  12.557   3.800   8.093
17986SOL    HW255856  12.626   3.783   7.959
17987SOL     OW55857   3.911   0.709  12.719
17987SOL    HW155858   3.838   0.651  12.699
17987SOL    HW255859   3.986   0.651  12.732
17988SOL     OW55860  11.719   8.550  14.198
17988SOL    HW155861  11.727   8.549  14.293
17988SOL    HW255862  11.711   8.642  14.175
17989SOL     OW55863   4.247   1.135  12.916
17989SOL    HW155864   4.272   1.200  12.850
17989SOL    HW255865   4.161   1.164  12.947
17990SOL     OW55866   5.567   5.414   9.210
17990SOL    HW155867   5.571   5.453   9.296
17990SOL    HW255868   5.477   5.382   9.202
17991SOL     OW55869  12.978  11.625  14.777
17991SOL    HW155870  12.989  11.663  14.690
17991SOL    HW255871  13.057  11.650  14.825
17992SOL     OW55872  14.607   4.136   4.674
17992SOL    HW155873  14.559   4.180   4.604
17992SOL    HW255874  14.671   4.081   4.629
17993SOL     OW55875   0.147  13.090   2.800
17993SOL    HW155876   0.233  13.113   2.767
17993SOL    HW255877   0.091  13.086   2.722
17994SOL     OW55878   4.166   8.755  13.565
17994SOL    HW155879   4.112   8.816  13.514
17994SOL    HW255880   4.224   8.715  13.501
17995SOL     OW55881   0.050   3.931   2.013
17995SOL    HW155882   0.081   3.865   2.074
17995SOL    HW255883   0.081   3.902   1.928
17996SOL     OW55884   8.403   4.840   4.542
17996SOL    HW155885   8.419   4.934   4.537
17996SOL    HW255886   8.489   4.800   4.533
17997SOL     OW55887   4.657   1.191   8.480
17997SOL    HW155888   4.683   1.280   8.458
17997SOL    HW255889   4.736   1.150   8.514
17998SOL     OW55890   1.483   1.175  11.281
17998SOL    HW155891   1.456   1.232  11.208
17998SOL    HW255892   1.443   1.215  11.358
17999SOL     OW55893  12.064  12.885   5.148
17999SOL    HW155894  11.972  12.895   5.123
17999SOL    HW255895  12.061  12.837   5.231
18000SOL     OW55896   0.669   8.604   0.968
18000SOL    HW155897   0.677   8.510   0.988
18000SOL    HW255898   0.617   8.606   0.887
18001SOL     OW55899   7.628  14.411  10.950
18001SOL    HW155900   7.575  14.414  11.029
18001SOL    HW255901   7.677  14.329  10.956
18002SOL     OW55902   6.861  13.907   7.234
18002SOL    HW155903   6.945  13.885   7.195
18002SOL    HW255904   6.875  13.991   7.276
18003SOL     OW55905   1.106   3.259   6.866
18003SOL    HW155906   1.046   3.265   6.940
18003SOL    HW255907   1.070   3.319   6.800
18004SOL     OW55908  12.481   9.183  12.605
18004SOL    HW155909  12.496   9.117  12.537
18004SOL    HW255910  12.403   9.153  12.651
18005SOL     OW55911   5.776  14.079  12.485
18005SOL    HW155912   5.749  14.169  12.501
18005SOL    HW255913   5.871  14.079  12.495
18006SOL     OW55914  11.826  14.742   5.627
18006SOL    HW155915  11.741  14.708   5.597
18006SOL    HW255916  11.805  14.820   5.678
18007SOL     OW55917   0.195   9.805   6.487
18007SOL    HW155918   0.131   9.739   6.460
18007SOL    HW255919   0.212   9.856   6.407
18008SOL     OW55920  12.844   8.744   2.027
18008SOL    HW155921  12.912   8.717   2.089
18008SOL    HW255922  12.891   8.766   1.947
18009SOL     OW55923   7.359   9.694  14.670
18009SOL    HW155924   7.439   9.733  14.705
18009SOL    HW255925   7.344   9.616  14.724
18010SOL     OW55926   2.234  10.326   8.304
18010SOL    HW155927   2.246  10.231   8.307
18010SOL    HW255928   2.140  10.338   8.292
18011SOL     OW55929  12.377  14.716   0.897
18011SOL    HW155930  12.384  14.633   0.849
18011SOL    HW255931  12.389  14.783   0.829
18012SOL     OW55932   4.719   9.043   9.239
18012SOL    HW155933   4.667   9.094   9.302
18012SOL    HW255934   4.670   9.049   9.157
18013SOL     OW55935   8.577   8.792   6.447
18013SOL    HW155936   8.569   8.699   6.468
18013SOL    HW255937   8.645   8.796   6.379
18014SOL     OW55938  12.814  11.257   7.682
18014SOL    HW155939  12.795  11.168   7.653
18014SOL    HW255940  12.843  11.302   7.603
18015SOL     OW55941  14.657   0.592   2.576
18015SOL    HW155942  14.654   0.621   2.667
18015SOL    HW255943  14.743   0.621   2.545
18016SOL     OW55944  12.818   6.333   8.183
18016SOL    HW155945  12.771   6.329   8.266
18016SOL    HW255946  12.750   6.348   8.117
18017SOL     OW55947   2.346   7.979   4.038
18017SOL    HW155948   2.393   7.987   4.121
18017SOL    HW255949   2.329   8.069   4.010
18018SOL     OW55950   6.487   6.564   5.290
18018SOL    HW155951   6.507   6.536   5.380
18018SOL    HW255952   6.413   6.510   5.265
18019SOL     OW55953   2.237   8.829   8.007
18019SOL    HW155954   2.150   8.868   7.997
18019SOL    HW255955   2.296   8.903   8.018
18020SOL     OW55956  14.242   1.498  10.931
18020SOL    HW155957  14.284   1.581  10.954
18020SOL    HW255958  14.296   1.432  10.973
18021SOL     OW55959   5.402   9.361  12.512
18021SOL    HW155960   5.454   9.315  12.578
18021SOL    HW255961   5.412   9.308  12.432
18022SOL     OW55962   9.834   5.227   0.674
18022SOL    HW155963   9.903   5.161   0.682
18022SOL    HW255964   9.799   5.214   0.586
18023SOL     OW55965  13.655   3.233  10.024
18023SOL    HW155966  13.740   3.202  10.053
18023SOL    HW255967  13.610   3.260  10.105
18024SOL     OW55968   0.115   6.188  11.037
18024SOL    HW155969   0.112   6.262  10.976
18024SOL    HW255970   0.123   6.228  11.123
18025SOL     OW55971   8.052   7.970  14.533
18025SOL    HW155972   8.002   8.005  14.459
18025SOL    HW255973   8.138   8.011  14.525
18026SOL     OW55974  11.329   8.319   5.417
18026SOL    HW155975  11.316   8.227   5.439
18026SOL    HW255976  11.355   8.318   5.325
18027SOL     OW55977   5.811   0.656  10.788
18027SOL    HW155978   5.744   0.616  10.732
18027SOL    HW255979   5.893   0.641  10.741
18028SOL     OW55980   0.980   1.011   6.135
18028SOL    HW155981   1.050   0.965   6.089
18028SOL    HW255982   1.018   1.034   6.219
18029SOL     OW55983   5.594  13.654   1.427
18029SOL    HW155984   5.609  13.710   1.503
18029SOL    HW255985   5.655  13.686   1.361
18030SOL     OW55986   1.243   6.582  10.255
18030SOL    HW155987   1.332   6.612  10.236
18030SOL    HW255988   1.253   6.519  10.326
18031SOL     OW55989   2.897   3.420   0.655
18031SOL    HW155990   2.841   3.342   0.652
18031SOL    HW255991   2.986   3.385   0.644
18032SOL     OW55992  11.157   1.653   8.569
18032SOL    HW155993  11.163   1.625   8.478
18032SOL    HW255994  11.190   1.579   8.619
18033SOL     OW55995   5.131  10.312  12.977
18033SOL    HW155996   5.087  10.262  12.908
18033SOL    HW255997   5.209  10.259  12.998
18034SOL     OW55998   9.478   1.252   6.437
18034SOL    HW155999   9.393   1.296   6.444
18034SOL    HW256000   9.459   1.161   6.461
18035SOL     OW56001   8.180  10.563  11.994
18035SOL    HW156002   8.208  10.533  11.908
18035SOL    HW256003   8.165  10.657  11.983
18036SOL     OW56004   2.546   9.502  10.280
18036SOL    HW156005   2.558   9.538  10.368
18036SOL    HW256006   2.621   9.535  10.231
18037SOL     OW56007   4.153   4.103  11.223
18037SOL    HW156008   4.153   4.155  11.304
18037SOL    HW256009   4.071   4.127  11.180
18038SOL     OW56010  11.912   9.898  14.101
18038SOL    HW156011  11.882   9.948  14.177
18038SOL    HW256012  12.005   9.921  14.093
18039SOL     OW56013   5.903   3.665   7.903
18039SOL    HW156014   5.897   3.570   7.895
18039SOL    HW256015   5.957   3.692   7.828
18040SOL     OW56016   6.621  12.945  12.386
18040SOL    HW156017   6.625  12.860  12.342
18040SOL    HW256018   6.528  12.958  12.404
18041SOL     OW56019   0.560   5.896   2.859
18041SOL    HW156020   0.630   5.864   2.802
18041SOL    HW256021   0.507   5.952   2.802
18042SOL     OW56022  11.380   0.359   0.824
18042SOL    HW156023  11.449   0.344   0.889
18042SOL    HW256024  11.426   0.358   0.740
18043SOL     OW56025   0.269  10.691  14.474
18043SOL    HW156026   0.330  10.761  14.450
18043SOL    HW256027   0.225  10.722  14.553
18044SOL     OW56028  12.847  11.229  14.465
18044SOL    HW156029  12.782  11.298  14.454
18044SOL    HW256030  12.882  11.243  14.554
18045SOL     OW56031   6.225  12.947  10.548
18045SOL    HW156032   6.300  12.961  10.606
18045SOL    HW256033   6.253  12.984  10.464
18046SOL     OW56034   0.407   7.689   9.421
18046SOL    HW156035   0.465   7.759   9.451
18046SOL    HW256036   0.407   7.625   9.492
18047SOL     OW56037   3.467   7.343   7.893
18047SOL    HW156038   3.549   7.392   7.897
18047SOL    HW256039   3.408   7.391   7.952
18048SOL     OW56040   8.602   0.549   2.427
18048SOL    HW156041   8.511   0.525   2.438
18048SOL    HW256042   8.612   0.561   2.332
18049SOL     OW56043   8.036   1.643   5.405
18049SOL    HW156044   8.084   1.723   5.383
18049SOL    HW256045   7.991   1.619   5.323
18050SOL     OW56046   4.280  11.908   9.792
18050SOL    HW156047   4.243  11.989   9.756
18050SOL    HW256048   4.362  11.935   9.832
18051SOL     OW56049  12.267   9.905   2.182
18051SOL    HW156050  12.271   9.825   2.235
18051SOL    HW256051  12.174   9.920   2.169
18052SOL     OW56052   4.279  10.187   1.939
18052SOL    HW156053   4.230  10.145   2.009
18052SOL    HW256054   4.265  10.132   1.863
18053SOL     OW56055   5.635   0.582  11.538
18053SOL    HW156056   5.698   0.654  11.530
18053SOL    HW256057   5.669   0.514  11.479
18054SOL     OW56058  14.308  13.827   7.712
18054SOL    HW156059  14.348  13.897   7.762
18054SOL    HW256060  14.325  13.850   7.621
18055SOL     OW56061   2.010   7.265   7.376
18055SOL    HW156062   1.953   7.311   7.438
18055SOL    HW256063   2.091   7.251   7.424
18056SOL     OW56064   5.493   3.357  12.104
18056SOL    HW156065   5.421   3.299  12.080
18056SOL    HW256066   5.451   3.443  12.113
18057SOL     OW56067   8.367   7.373   6.320
18057SOL    HW156068   8.347   7.280   6.319
18057SOL    HW256069   8.459   7.378   6.348
18058SOL     OW56070   1.909   3.336  11.460
18058SOL    HW156071   1.851   3.412  11.457
18058SOL    HW256072   1.911   3.303  11.371
18059SOL     OW56073   3.561  10.441   6.158
18059SOL    HW156074   3.575  10.439   6.253
18059SOL    HW256075   3.626  10.503   6.125
18060SOL     OW56076  12.086   9.911   6.069
18060SOL    HW156077  12.160   9.897   6.128
18060SOL    HW256078  12.034   9.831   6.076
18061SOL     OW56079   0.813   7.335   0.140
18061SOL    HW156080   0.785   7.329   0.231
18061SOL    HW256081   0.731   7.334   0.090
18062SOL     OW56082  11.287   7.806   6.124
18062SOL    HW156083  11.333   7.723   6.112
18062SOL    HW256084  11.315   7.860   6.051
18063SOL     OW56085   3.490  13.835   8.849
18063SOL    HW156086   3.506  13.760   8.906
18063SOL    HW256087   3.395  13.835   8.835
18064SOL     OW56088  14.487   7.267   9.880
18064SOL    HW156089  14.422   7.318   9.928
18064SOL    HW256090  14.519   7.327   9.812
18065SOL     OW56091   8.123  10.901  12.520
18065SOL    HW156092   8.064  10.963  12.477
18065SOL    HW256093   8.165  10.855  12.447
18066SOL     OW56094  13.738  12.549   9.900
18066SOL    HW156095  13.676  12.512   9.964
18066SOL    HW256096  13.814  12.491   9.904
18067SOL     OW56097   1.235   4.432   9.367
18067SOL    HW156098   1.227   4.501   9.301
18067SOL    HW256099   1.146   4.423   9.402
18068SOL     OW56100  12.575   1.046  13.536
18068SOL    HW156101  12.552   1.066  13.445
18068SOL    HW256102  12.502   1.079  13.587
18069SOL     OW56103  13.945   7.768   6.045
18069SOL    HW156104  13.897   7.828   5.988
18069SOL    HW256105  13.877   7.719   6.092
18070SOL     OW56106   5.911  12.416  13.327
18070SOL    HW156107   5.942  12.341  13.378
18070SOL    HW256108   5.938  12.492  13.378
18071SOL     OW56109   8.124   7.540   3.424
18071SOL    HW156110   8.070   7.545   3.345
18071SOL    HW256111   8.061   7.543   3.496
18072SOL     OW56112   4.317   8.736  13.101
18072SOL    HW156113   4.322   8.818  13.052
18072SOL    HW256114   4.397   8.688  13.077
18073SOL     OW56115   0.374   2.583   8.758
18073SOL    HW156116   0.337   2.515   8.702
18073SOL    HW256117   0.449   2.541   8.801
18074SOL     OW56118   5.084   8.513  10.261
18074SOL    HW156119   5.057   8.467  10.181
18074SOL    HW256120   5.002   8.533  10.307
18075SOL     OW56121   9.804  12.023  11.000
18075SOL    HW156122   9.744  12.063  10.937
18075SOL    HW256123   9.827  12.094  11.060
18076SOL     OW56124  14.280  11.624   7.192
18076SOL    HW156125  14.208  11.664   7.239
18076SOL    HW256126  14.337  11.589   7.260
18077SOL     OW56127   7.953  14.582   4.847
18077SOL    HW156128   7.992  14.630   4.920
18077SOL    HW256129   8.027  14.535   4.809
18078SOL     OW56130   2.751  12.709   2.124
18078SOL    HW156131   2.714  12.796   2.108
18078SOL    HW256132   2.813  12.723   2.196
18079SOL     OW56133  12.433   2.994  13.275
18079SOL    HW156134  12.436   2.918  13.333
18079SOL    HW256135  12.507   3.048  13.302
18080SOL     OW56136  11.984   4.394  10.805
18080SOL    HW156137  12.064   4.401  10.857
18080SOL    HW256138  12.014   4.383  10.715
18081SOL     OW56139  10.986   0.283   6.883
18081SOL    HW156140  10.996   0.283   6.788
18081SOL    HW256141  10.898   0.247   6.898
18082SOL     OW56142   3.010   4.430   7.441
18082SOL    HW156143   2.990   4.478   7.522
18082SOL    HW256144   3.024   4.340   7.469
18083SOL     OW56145   7.704   5.723  13.065
18083SOL    HW156146   7.718   5.677  13.147
18083SOL    HW256147   7.671   5.656  13.005
18084SOL     OW56148   7.846   4.018   5.919
18084SOL    HW156149   7.884   3.940   5.879
18084SOL    HW256150   7.857   4.005   6.013
18085SOL     OW56151   9.450   7.717   2.032
18085SOL    HW156152   9.434   7.630   1.995
18085SOL    HW256153   9.391   7.723   2.107
18086SOL     OW56154   3.827   9.509   2.001
18086SOL    HW156155   3.871   9.426   2.018
18086SOL    HW256156   3.747   9.485   1.955
18087SOL     OW56157   9.796  13.811   5.299
18087SOL    HW156158   9.755  13.845   5.378
18087SOL    HW256159   9.884  13.850   5.299
18088SOL     OW56160   4.916   9.160   5.025
18088SOL    HW156161   4.975   9.162   4.950
18088SOL    HW256162   4.953   9.224   5.086
18089SOL     OW56163   1.878   9.698   1.355
18089SOL    HW156164   1.835   9.613   1.357
18089SOL    HW256165   1.971   9.678   1.368
18090SOL     OW56166   4.425  13.121   1.350
18090SOL    HW156167   4.455  13.211   1.348
18090SOL    HW256168   4.497  13.072   1.390
18091SOL     OW56169   2.602   9.265  10.531
18091SOL    HW156170   2.548   9.259  10.452
18091SOL    HW256171   2.543   9.238  10.602
18092SOL     OW56172   8.812   2.018   0.733
18092SOL    HW156173   8.781   2.041   0.645
18092SOL    HW256174   8.737   1.973   0.773
18093SOL     OW56175   0.827  14.288  12.107
18093SOL    HW156176   0.858  14.374  12.080
18093SOL    HW256177   0.803  14.245  12.025
18094SOL     OW56178   4.651   5.682   3.770
18094SOL    HW156179   4.679   5.687   3.861
18094SOL    HW256180   4.613   5.594   3.761
18095SOL     OW56181   1.845  13.133  14.863
18095SOL    HW156182   1.932  13.151  14.829
18095SOL    HW256183   1.861  13.083   0.074
18096SOL     OW56184   0.344  14.604  14.347
18096SOL    HW156185   0.437  14.581  14.339
18096SOL    HW256186   0.300  14.547  14.283
18097SOL     OW56187  14.191   8.605  14.274
18097SOL    HW156188  14.179   8.543  14.345
18097SOL    HW256189  14.266   8.572  14.225
18098SOL     OW56190   4.442   1.892   2.109
18098SOL    HW156191   4.453   1.986   2.096
18098SOL    HW256192   4.384   1.864   2.039
18099SOL     OW56193  11.513   4.357   5.469
18099SOL    HW156194  11.424   4.380   5.493
18099SOL    HW256195  11.503   4.289   5.401
18100SOL     OW56196   2.007  11.189   8.786
18100SOL    HW156197   1.994  11.280   8.759
18100SOL    HW256198   2.100  11.173   8.772
18101SOL     OW56199  10.159  12.690   8.845
18101SOL    HW156200  10.122  12.683   8.933
18101SOL    HW256201  10.083  12.690   8.787
18102SOL     OW56202   5.092  13.814  10.465
18102SOL    HW156203   5.116  13.729  10.502
18102SOL    HW256204   5.007  13.800  10.425
18103SOL     OW56205   8.768  12.858  13.338
18103SOL    HW156206   8.823  12.816  13.272
18103SOL    HW256207   8.679  12.831  13.315
18104SOL     OW56208  11.498   8.002   6.803
18104SOL    HW156209  11.590   8.007   6.830
18104SOL    HW256210  11.458   8.081   6.841
18105SOL     OW56211   6.757   1.511  13.958
18105SOL    HW156212   6.794   1.597  13.976
18105SOL    HW256213   6.820   1.449  13.994
18106SOL     OW56214  11.080  11.553   1.480
18106SOL    HW156215  11.105  11.532   1.390
18106SOL    HW256216  11.050  11.644   1.475
18107SOL     OW56217   6.493   2.061  14.486
18107SOL    HW156218   6.580   2.099  14.475
18107SOL    HW256219   6.435   2.136  14.500
18108SOL     OW56220   7.336   5.795   3.863
18108SOL    HW156221   7.295   5.715   3.896
18108SOL    HW256222   7.272   5.830   3.802
18109SOL     OW56223   5.388   2.104  10.463
18109SOL    HW156224   5.322   2.038  10.481
18109SOL    HW256225   5.371   2.132  10.373
18110SOL     OW56226   1.686   2.738   3.799
18110SOL    HW156227   1.730   2.820   3.825
18110SOL    HW256228   1.756   2.684   3.762
18111SOL     OW56229   8.509   4.780   5.174
18111SOL    HW156230   8.520   4.686   5.183
18111SOL    HW256231   8.415   4.795   5.188
18112SOL     OW56232   8.440  10.550  12.417
18112SOL    HW156233   8.450  10.458  12.394
18112SOL    HW256234   8.529  10.581  12.435
18113SOL     OW56235   7.891   5.348   3.259
18113SOL    HW156236   7.840   5.417   3.301
18113SOL    HW256237   7.829   5.275   3.250
18114SOL     OW56238  11.330   9.079   7.457
18114SOL    HW156239  11.416   9.040   7.447
18114SOL    HW256240  11.292   9.035   7.533
18115SOL     OW56241   9.667   5.288  14.560
18115SOL    HW156242   9.579   5.279  14.523
18115SOL    HW256243   9.671   5.222  14.629
18116SOL     OW56244  13.735   0.008   5.301
18116SOL    HW156245  13.730  14.800   5.358
18116SOL    HW256246  13.644   0.033   5.287
18117SOL     OW56247  12.872   2.912   7.143
18117SOL    HW156248  12.934   2.853   7.186
18117SOL    HW256249  12.862   2.985   7.203
18118SOL     OW56250   6.474   2.077   2.855
18118SOL    HW156251   6.463   2.136   2.780
18118SOL    HW256252   6.390   2.082   2.901
18119SOL     OW56253   2.655   7.343   3.246
18119SOL    HW156254   2.708   7.414   3.283
18119SOL    HW256255   2.711   7.304   3.179
18120SOL     OW56256   2.614   7.327  12.015
18120SOL    HW156257   2.584   7.362  11.931
18120SOL    HW256258   2.564   7.376  12.081
18121SOL     OW56259   9.503   4.042   5.424
18121SOL    HW156260   9.489   4.069   5.333
18121SOL    HW256261   9.430   4.079   5.472
18122SOL     OW56262  10.440  14.539   8.895
18122SOL    HW156263  10.442  14.632   8.870
18122SOL    HW256264  10.480  14.493   8.822
18123SOL     OW56265   9.596   9.601  11.445
18123SOL    HW156266   9.644   9.549  11.510
18123SOL    HW256267   9.617   9.560  11.361
18124SOL     OW56268   8.078   6.611  13.927
18124SOL    HW156269   7.990   6.590  13.894
18124SOL    HW256270   8.100   6.538  13.984
18125SOL     OW56271   3.336   5.935  13.398
18125SOL    HW156272   3.274   5.882  13.348
18125SOL    HW256273   3.344   5.889  13.482
18126SOL     OW56274   5.274   9.245  12.075
18126SOL    HW156275   5.195   9.229  12.127
18126SOL    HW256276   5.253   9.323  12.023
18127SOL     OW56277   0.572  13.074   3.541
18127SOL    HW156278   0.633  13.051   3.471
18127SOL    HW256279   0.504  13.006   3.537
18128SOL     OW56280  10.293   7.052   1.373
18128SOL    HW156281  10.316   7.117   1.306
18128SOL    HW256282  10.358   6.983   1.362
18129SOL     OW56283   9.480  13.842  14.211
18129SOL    HW156284   9.554  13.806  14.163
18129SOL    HW256285   9.469  13.930  14.176
18130SOL     OW56286   7.254   0.490   4.849
18130SOL    HW156287   7.318   0.556   4.876
18130SOL    HW256288   7.301   0.407   4.851
18131SOL     OW56289   5.849   8.257  11.733
18131SOL    HW156290   5.832   8.347  11.707
18131SOL    HW256291   5.797   8.243  11.812
18132SOL     OW56292  12.114  13.862   8.732
18132SOL    HW156293  12.061  13.840   8.655
18132SOL    HW256294  12.150  13.778   8.761
18133SOL     OW56295   1.541  12.184   3.348
18133SOL    HW156296   1.454  12.215   3.375
18133SOL    HW256297   1.595  12.263   3.348
18134SOL     OW56298  14.312  11.893   8.199
18134SOL    HW156299  14.331  11.883   8.105
18134SOL    HW256300  14.218  11.879   8.206
18135SOL     OW56301  11.153   0.655   9.930
18135SOL    HW156302  11.109   0.727   9.883
18135SOL    HW256303  11.133   0.577   9.878
18136SOL     OW56304   8.516  11.643   4.982
18136SOL    HW156305   8.521  11.593   4.901
18136SOL    HW256306   8.570  11.720   4.967
18137SOL     OW56307   0.883  14.536   3.688
18137SOL    HW156308   0.893  14.617   3.639
18137SOL    HW256309   0.924  14.554   3.773
18138SOL     OW56310   9.105   3.633  10.876
18138SOL    HW156311   9.186   3.613  10.830
18138SOL    HW256312   9.109   3.727  10.893
18139SOL     OW56313  14.391  12.968  11.839
18139SOL    HW156314  14.365  12.900  11.900
18139SOL    HW256315  14.484  12.950  11.821
18140SOL     OW56316   2.692   1.096  11.551
18140SOL    HW156317   2.786   1.087  11.562
18140SOL    HW256318   2.659   1.117  11.638
18141SOL     OW56319  14.372  12.810  10.285
18141SOL    HW156320  14.320  12.876  10.331
18141SOL    HW256321  14.457  12.852  10.269
18142SOL     OW56322  13.534   5.097  13.031
18142SOL    HW156323  13.553   5.080  12.939
18142SOL    HW256324  13.452   5.051  13.048
18143SOL     OW56325   1.472  10.297  12.858
18143SOL    HW156326   1.459  10.387  12.827
18143SOL    HW256327   1.457  10.302  12.953
18144SOL     OW56328   7.423   9.892   6.050
18144SOL    HW156329   7.356   9.859   6.110
18144SOL    HW256330   7.379   9.893   5.965
18145SOL     OW56331   3.122  14.421  14.634
18145SOL    HW156332   3.155  14.503  14.598
18145SOL    HW256333   3.123  14.359  14.560
18146SOL     OW56334   5.714   4.431   4.072
18146SOL    HW156335   5.752   4.346   4.092
18146SOL    HW256336   5.640   4.412   4.014
18147SOL     OW56337   4.791   8.735  11.899
18147SOL    HW156338   4.700   8.713  11.920
18147SOL    HW256339   4.797   8.721  11.804
18148SOL     OW56340  10.652  10.715   9.862
18148SOL    HW156341  10.658  10.806   9.891
18148SOL    HW256342  10.725  10.704   9.802
18149SOL     OW56343   2.962   7.066   2.443
18149SOL    HW156344   2.926   7.022   2.366
18149SOL    HW256345   3.049   7.028   2.454
18150SOL     OW56346   4.474   4.150   5.333
18150SOL    HW156347   4.496   4.243   5.339
18150SOL    HW256348   4.437   4.128   5.418
18151SOL     OW56349  10.765   7.277   3.021
18151SOL    HW156350  10.770   7.186   2.992
18151SOL    HW256351  10.697   7.279   3.087
18152SOL     OW56352  10.921  14.129  13.606
18152SOL    HW156353  10.860  14.153  13.676
18152SOL    HW256354  10.874  14.061  13.557
18153SOL     OW56355   4.225  11.619  14.532
18153SOL    HW156356   4.283  11.676  14.482
18153SOL    HW256357   4.271  11.604  14.614
18154SOL     OW56358   6.833   6.187  13.378
18154SOL    HW156359   6.871   6.267  13.416
18154SOL    HW256360   6.851   6.195  13.284
18155SOL     OW56361   3.838   9.225  14.095
18155SOL    HW156362   3.896   9.171  14.041
18155SOL    HW256363   3.752   9.218  14.052
18156SOL     OW56364  11.982  11.868   9.570
18156SOL    HW156365  12.022  11.811   9.635
18156SOL    HW256366  12.017  11.955   9.589
18157SOL     OW56367   6.689   5.617   3.592
18157SOL    HW156368   6.717   5.527   3.580
18157SOL    HW256369   6.648   5.641   3.509
18158SOL     OW56370   8.329   9.227   6.031
18158SOL    HW156371   8.367   9.266   6.110
18158SOL    HW256372   8.336   9.296   5.965
18159SOL     OW56373   8.277   0.204  14.255
18159SOL    HW156374   8.262   0.152  14.177
18159SOL    HW256375   8.372   0.209  14.263
18160SOL     OW56376  11.636  11.370   1.702
18160SOL    HW156377  11.619  11.351   1.610
18160SOL    HW256378  11.558  11.416   1.732
18161SOL     OW56379  12.465   5.761  13.353
18161SOL    HW156380  12.400   5.703  13.394
18161SOL    HW256381  12.413   5.829  13.311
18162SOL     OW56382   4.527   8.134   9.110
18162SOL    HW156383   4.443   8.089   9.106
18162SOL    HW256384   4.582   8.078   9.164
18163SOL     OW56385   0.901   1.207  12.663
18163SOL    HW156386   0.978   1.208  12.719
18163SOL    HW256387   0.827   1.210  12.724
18164SOL     OW56388   2.824   2.916  14.709
18164SOL    HW156389   2.782   2.885  14.628
18164SOL    HW256390   2.914   2.886  14.702
18165SOL     OW56391   3.311   8.648   1.064
18165SOL    HW156392   3.384   8.644   1.003
18165SOL    HW256393   3.246   8.588   1.029
18166SOL     OW56394   9.092  12.305   8.243
18166SOL    HW156395   9.114  12.280   8.154
18166SOL    HW256396   9.085  12.222   8.290
18167SOL     OW56397   9.987   5.544  12.058
18167SOL    HW156398   9.948   5.628  12.034
18167SOL    HW256399   9.984   5.543  12.154
18168SOL     OW56400  13.837   1.855   3.122
18168SOL    HW156401  13.818   1.905   3.042
18168SOL    HW256402  13.776   1.890   3.187
18169SOL     OW56403   5.969   2.387  12.245
18169SOL    HW156404   5.981   2.431  12.328
18169SOL    HW256405   6.044   2.328  12.238
18170SOL     OW56406   4.301   0.889   7.687
18170SOL    HW156407   4.366   0.894   7.758
18170SOL    HW256408   4.219   0.869   7.732
18171SOL     OW56409   5.885   7.838   4.537
18171SOL    HW156410   5.807   7.791   4.508
18171SOL    HW256411   5.879   7.923   4.494
18172SOL     OW56412  10.646   5.560   9.440
18172SOL    HW156413  10.663   5.623   9.371
18172SOL    HW256414  10.573   5.507   9.407
18173SOL     OW56415   2.707   5.921  13.639
18173SOL    HW156416   2.612   5.907  13.635
18173SOL    HW256417   2.734   5.926  13.547
18174SOL     OW56418   1.863   8.807  11.903
18174SOL    HW156419   1.777   8.766  11.905
18174SOL    HW256420   1.924   8.735  11.922
18175SOL     OW56421   4.082  10.135   3.894
18175SOL    HW156422   4.090  10.200   3.964
18175SOL    HW256423   3.999  10.155   3.852
18176SOL     OW56424  13.137  10.833   9.340
18176SOL    HW156425  13.219  10.801   9.303
18176SOL    HW256426  13.070  10.775   9.303
18177SOL     OW56427   2.297  12.677  11.711
18177SOL    HW156428   2.352  12.725  11.773
18177SOL    HW256429   2.216  12.727  11.707
18178SOL     OW56430  12.340  13.831  12.180
18178SOL    HW156431  12.389  13.912  12.195
18178SOL    HW256432  12.250  13.859  12.165
18179SOL     OW56433   6.519  13.002   8.531
18179SOL    HW156434   6.606  12.994   8.570
18179SOL    HW256435   6.530  12.973   8.440
18180SOL     OW56436  13.454  13.794   9.793
18180SOL    HW156437  13.548  13.810   9.791
18180SOL    HW256438  13.434  13.781   9.886
18181SOL     OW56439   6.808   8.945   6.013
18181SOL    HW156440   6.783   8.936   6.105
18181SOL    HW256441   6.740   9.000   5.974
18182SOL     OW56442   3.641  11.774  12.552
18182SOL    HW156443   3.643  11.714  12.477
18182SOL    HW256444   3.612  11.719  12.626
18183SOL     OW56445  14.113   8.328   3.926
18183SOL    HW156446  14.113   8.285   3.840
18183SOL    HW256447  14.022   8.325   3.954
18184SOL     OW56448   5.543   2.749   3.694
18184SOL    HW156449   5.625   2.774   3.736
18184SOL    HW256450   5.547   2.653   3.690
18185SOL     OW56451   4.810  12.498   5.365
18185SOL    HW156452   4.899  12.465   5.360
18185SOL    HW256453   4.757  12.421   5.388
18186SOL     OW56454  12.343   7.320   2.257
18186SOL    HW156455  12.267   7.344   2.203
18186SOL    HW256456  12.411   7.296   2.194
18187SOL     OW56457   7.322  11.023   7.250
18187SOL    HW156458   7.392  11.003   7.188
18187SOL    HW256459   7.281  11.101   7.215
18188SOL     OW56460   6.340   7.554  10.421
18188SOL    HW156461   6.260   7.595  10.388
18188SOL    HW256462   6.323   7.460  10.414
18189SOL     OW56463  11.512  10.381   3.605
18189SOL    HW156464  11.499  10.354   3.515
18189SOL    HW256465  11.578  10.322   3.640
18190SOL     OW56466   0.125   7.328   0.930
18190SOL    HW156467   0.097   7.413   0.896
18190SOL    HW256468   0.061   7.307   0.998
18191SOL     OW56469  10.658  14.862   6.674
18191SOL    HW156470  10.660  14.868   6.578
18191SOL    HW256471  10.587  14.801   6.693
18192SOL     OW56472   3.893   3.876   8.445
18192SOL    HW156473   3.930   3.872   8.533
18192SOL    HW256474   3.811   3.827   8.452
18193SOL     OW56475   3.358   3.766   2.721
18193SOL    HW156476   3.391   3.806   2.802
18193SOL    HW256477   3.433   3.768   2.662
18194SOL     OW56478   6.276   0.151  13.486
18194SOL    HW156479   6.207   0.085  13.479
18194SOL    HW256480   6.257   0.214  13.416
18195SOL     OW56481   7.579   4.745  13.139
18195SOL    HW156482   7.530   4.667  13.114
18195SOL    HW256483   7.668   4.713  13.158
18196SOL     OW56484  10.993   0.416  11.554
18196SOL    HW156485  11.068   0.401  11.612
18196SOL    HW256486  10.919   0.427  11.613
18197SOL     OW56487   7.842  14.303  11.907
18197SOL    HW156488   7.781  14.341  11.970
18197SOL    HW256489   7.841  14.363  11.833
18198SOL     OW56490   2.846  12.974   0.744
18198SOL    HW156491   2.899  13.038   0.791
18198SOL    HW256492   2.828  13.014   0.660
18199SOL     OW56493   2.295   0.477  11.671
18199SOL    HW156494   2.375   0.472  11.723
18199SOL    HW256495   2.233   0.525  11.726
18200SOL     OW56496  10.381   3.045  14.565
18200SOL    HW156497  10.309   3.086  14.612
18200SOL    HW256498  10.419   2.984  14.628
18201SOL     OW56499   0.881  14.793   9.683
18201SOL    HW156500   0.853   0.005   9.725
18201SOL    HW256501   0.849  14.724   9.741
18202SOL     OW56502   3.298   0.021   7.625
18202SOL    HW156503   3.364   0.075   7.582
18202SOL    HW256504   3.332  14.801   7.616
18203SOL     OW56505   4.265   5.962   3.707
18203SOL    HW156506   4.318   5.883   3.710
18203SOL    HW256507   4.275   6.002   3.793
18204SOL     OW56508  12.389   9.858  10.322
18204SOL    HW156509  12.355   9.946  10.339
18204SOL    HW256510  12.315   9.800  10.341
18205SOL     OW56511  14.828   5.629   7.778
18205SOL    HW156512   0.014   5.628   7.856
18205SOL    HW256513  14.825   5.537   7.749
18206SOL     OW56514  10.571   7.471   4.575
18206SOL    HW156515  10.534   7.532   4.510
18206SOL    HW256516  10.651   7.514   4.605
18207SOL     OW56517   4.611   0.913   3.955
18207SOL    HW156518   4.696   0.929   3.915
18207SOL    HW256519   4.610   0.969   4.033
18208SOL     OW56520   2.269   2.027   3.341
18208SOL    HW156521   2.214   1.965   3.294
18208SOL    HW256522   2.254   2.008   3.433
18209SOL     OW56523   7.321  13.248  12.462
18209SOL    HW156524   7.252  13.217  12.520
18209SOL    HW256525   7.356  13.326  12.506
18210SOL     OW56526   0.424   1.843   9.796
18210SOL    HW156527   0.353   1.904   9.774
18210SOL    HW256528   0.487   1.896   9.845
18211SOL     OW56529  13.528  14.633   1.802
18211SOL    HW156530  13.518  14.557   1.860
18211SOL    HW256531  13.480  14.703   1.847
18212SOL     OW56532  11.077  13.006  12.597
18212SOL    HW156533  11.001  13.045  12.553
18212SOL    HW256534  11.061  13.021  12.690
18213SOL     OW56535   5.396  11.517  12.247
18213SOL    HW156536   5.334  11.476  12.186
18213SOL    HW256537   5.472  11.538  12.192
18214SOL     OW56538   1.146  14.447   7.814
18214SOL    HW156539   1.140  14.422   7.906
18214SOL    HW256540   1.120  14.539   7.812
18215SOL     OW56541   7.504   3.735   9.858
18215SOL    HW156542   7.429   3.696   9.813
18215SOL    HW256543   7.554   3.777   9.788
18216SOL     OW56544  11.601   9.918   7.198
18216SOL    HW156545  11.590   9.870   7.280
18216SOL    HW256546  11.695   9.923   7.185
18217SOL     OW56547  13.290   1.534   8.858
18217SOL    HW156548  13.353   1.582   8.911
18217SOL    HW256549  13.223   1.599   8.835
18218SOL     OW56550  13.266  10.620  10.760
18218SOL    HW156551  13.273  10.561  10.684
18218SOL    HW256552  13.187  10.590  10.805
18219SOL     OW56553   2.084  12.008   8.933
18219SOL    HW156554   2.132  12.021   8.852
18219SOL    HW256555   2.080  11.913   8.945
18220SOL     OW56556   8.487   6.957   9.895
18220SOL    HW156557   8.546   6.920   9.961
18220SOL    HW256558   8.451   7.035   9.936
18221SOL     OW56559   6.691   8.850   4.830
18221SOL    HW156560   6.599   8.826   4.819
18221SOL    HW256561   6.737   8.766   4.831
18222SOL     OW56562  10.406   1.270   4.855
18222SOL    HW156563  10.474   1.241   4.795
18222SOL    HW256564  10.378   1.355   4.820
18223SOL     OW56565  10.905   8.167   6.153
18223SOL    HW156566  10.926   8.216   6.232
18223SOL    HW256567  10.991   8.144   6.116
18224SOL     OW56568  10.039   3.404  10.618
18224SOL    HW156569   9.989   3.410  10.536
18224SOL    HW256570   9.977   3.429  10.686
18225SOL     OW56571   6.537  14.810   8.678
18225SOL    HW156572   6.611  14.769   8.724
18225SOL    HW256573   6.484  14.849   8.747
18226SOL     OW56574  14.371  13.431   0.314
18226SOL    HW156575  14.427  13.420   0.237
18226SOL    HW256576  14.303  13.492   0.284
18227SOL     OW56577  14.627   5.073  13.925
18227SOL    HW156578  14.689   5.020  13.875
18227SOL    HW256579  14.646   5.163  13.898
18228SOL     OW56580   3.528   5.937   5.678
18228SOL    HW156581   3.448   5.978   5.711
18228SOL    HW256582   3.540   5.860   5.734
18229SOL     OW56583  10.112   9.139  11.520
18229SOL    HW156584  10.089   9.091  11.441
18229SOL    HW256585  10.199   9.176  11.501
18230SOL     OW56586   6.553  13.626  12.248
18230SOL    HW156587   6.604  13.693  12.203
18230SOL    HW256588   6.549  13.655  12.339
18231SOL     OW56589   3.102   2.808   9.139
18231SOL    HW156590   3.012   2.830   9.165
18231SOL    HW256591   3.141   2.769   9.218
18232SOL     OW56592   5.250   7.860   2.253
18232SOL    HW156593   5.326   7.834   2.201
18232SOL    HW256594   5.247   7.797   2.325
18233SOL     OW56595  13.177   2.541   3.949
18233SOL    HW156596  13.089   2.514   3.922
18233SOL    HW256597  13.169   2.635   3.965
18234SOL     OW56598   2.865  13.795   3.313
18234SOL    HW156599   2.785  13.781   3.363
18234SOL    HW256600   2.853  13.882   3.273
18235SOL     OW56601  10.972  10.501   3.447
18235SOL    HW156602  10.897  10.538   3.400
18235SOL    HW256603  11.036  10.571   3.450
18236SOL     OW56604   6.451   0.503   4.688
18236SOL    HW156605   6.451   0.550   4.605
18236SOL    HW256606   6.538   0.464   4.693
18237SOL     OW56607   0.230   1.101   7.751
18237SOL    HW156608   0.184   1.129   7.672
18237SOL    HW256609   0.282   1.026   7.724
18238SOL     OW56610   2.523  10.940   6.580
18238SOL    HW156611   2.559  10.853   6.600
18238SOL    HW256612   2.576  11.001   6.631
18239SOL     OW56613   1.520  10.637   9.627
18239SOL    HW156614   1.451  10.591   9.579
18239SOL    HW256615   1.475  10.711   9.669
18240SOL     OW56616   0.971   8.117  11.941
18240SOL    HW156617   1.022   8.183  11.894
18240SOL    HW256618   0.989   8.035  11.894
18241SOL     OW56619   4.087  14.187  13.793
18241SOL    HW156620   4.124  14.118  13.738
18241SOL    HW256621   4.004  14.151  13.824
18242SOL     OW56622  13.946   4.178  13.176
18242SOL    HW156623  13.957   4.272  13.193
18242SOL    HW256624  13.877   4.173  13.109
18243SOL     OW56625   9.156  13.516  13.535
18243SOL    HW156626   9.153  13.435  13.484
18243SOL    HW256627   9.072  13.518  13.582
18244SOL     OW56628   5.413   8.313  11.113
18244SOL    HW156629   5.475   8.241  11.107
18244SOL    HW256630   5.447   8.381  11.054
18245SOL     OW56631   2.906   0.396   8.554
18245SOL    HW156632   2.853   0.469   8.587
18245SOL    HW256633   2.996   0.429   8.558
18246SOL     OW56634  13.237  11.461   6.306
18246SOL    HW156635  13.325  11.425   6.316
18246SOL    HW256636  13.181  11.384   6.294
18247SOL     OW56637   0.982  13.556   4.858
18247SOL    HW156638   0.922  13.584   4.790
18247SOL    HW256639   0.995  13.462   4.842
18248SOL     OW56640   8.593   3.443   5.191
18248SOL    HW156641   8.503   3.416   5.212
18248SOL    HW256642   8.604   3.525   5.238
18249SOL     OW56643  10.310  12.711   6.477
18249SOL    HW156644  10.334  12.630   6.432
18249SOL    HW256645  10.355  12.780   6.428
18250SOL     OW56646  10.533   8.790   9.699
18250SOL    HW156647  10.510   8.735   9.624
18250SOL    HW256648  10.450   8.818   9.735
18251SOL     OW56649  14.041   9.385   1.476
18251SOL    HW156650  13.990   9.320   1.525
18251SOL    HW256651  13.979   9.422   1.413
18252SOL     OW56652   3.589   0.884   4.278
18252SOL    HW156653   3.516   0.825   4.257
18252SOL    HW256654   3.667   0.835   4.253
18253SOL     OW56655  10.736   2.091   2.476
18253SOL    HW156656  10.813   2.060   2.524
18253SOL    HW256657  10.692   2.011   2.448
18254SOL     OW56658   2.393   4.168   0.550
18254SOL    HW156659   2.407   4.079   0.583
18254SOL    HW256660   2.459   4.180   0.482
18255SOL     OW56661  14.679  13.296   7.209
18255SOL    HW156662  14.740  13.324   7.277
18255SOL    HW256663  14.733  13.252   7.144
18256SOL     OW56664  10.615   5.589   7.981
18256SOL    HW156665  10.555   5.630   8.043
18256SOL    HW256666  10.631   5.502   8.017
18257SOL     OW56667  10.750   3.217   2.440
18257SOL    HW156668  10.806   3.206   2.363
18257SOL    HW256669  10.661   3.220   2.404
18258SOL     OW56670   6.747   4.888  12.630
18258SOL    HW156671   6.778   4.974  12.658
18258SOL    HW256672   6.667   4.873  12.680
18259SOL     OW56673   7.792   0.518   5.020
18259SOL    HW156674   7.769   0.467   4.943
18259SOL    HW256675   7.789   0.609   4.991
18260SOL     OW56676   2.707  12.506   9.122
18260SOL    HW156677   2.725  12.447   9.196
18260SOL    HW256678   2.656  12.453   9.061
18261SOL     OW56679  11.961  12.064  12.777
18261SOL    HW156680  11.914  12.002  12.832
18261SOL    HW256681  11.982  12.137  12.835
18262SOL     OW56682   3.955  12.035   9.976
18262SOL    HW156683   3.988  12.014   9.889
18262SOL    HW256684   3.915  11.953  10.006
18263SOL     OW56685   5.501   0.975  11.954
18263SOL    HW156686   5.417   0.947  11.991
18263SOL    HW256687   5.523   0.907  11.890
18264SOL     OW56688  13.378   4.976   5.415
18264SOL    HW156689  13.459   4.934   5.446
18264SOL    HW256690  13.322   4.981   5.492
18265SOL     OW56691   3.854  12.395  14.603
18265SOL    HW156692   3.916  12.325  14.582
18265SOL    HW256693   3.906  12.475  14.595
18266SOL     OW56694  13.477   2.912   2.456
18266SOL    HW156695  13.425   2.992   2.459
18266SOL    HW256696  13.420   2.848   2.412
18267SOL     OW56697  11.651   5.513  11.724
18267SOL    HW156698  11.729   5.480  11.680
18267SOL    HW256699  11.604   5.435  11.752
18268SOL     OW56700   5.177   2.506  10.535
18268SOL    HW156701   5.121   2.538  10.606
18268SOL    HW256702   5.253   2.565  10.537
18269SOL     OW56703   3.255  10.875  13.065
18269SOL    HW156704   3.284  10.816  13.134
18269SOL    HW256705   3.162  10.888  13.081
18270SOL     OW56706   4.090  10.925   8.349
18270SOL    HW156707   4.066  10.848   8.298
18270SOL    HW256708   4.055  10.999   8.300
18271SOL     OW56709   1.994   8.566  11.240
18271SOL    HW156710   1.981   8.550  11.147
18271SOL    HW256711   2.068   8.625  11.245
18272SOL     OW56712  12.034   5.471  14.116
18272SOL    HW156713  12.029   5.490  14.023
18272SOL    HW256714  12.069   5.551  14.155
18273SOL     OW56715  12.956   1.170  11.686
18273SOL    HW156716  12.949   1.097  11.746
18273SOL    HW256717  12.865   1.192  11.664
18274SOL     OW56718   7.222   3.238  13.666
18274SOL    HW156719   7.150   3.283  13.622
18274SOL    HW256720   7.296   3.246  13.606
18275SOL     OW56721  10.341  13.828   9.163
18275SOL    HW156722  10.360  13.780   9.244
18275SOL    HW256723  10.370  13.769   9.094
18276SOL     OW56724  10.307   1.359  13.616
18276SOL    HW156725  10.380   1.381  13.558
18276SOL    HW256726  10.286   1.268  13.594
18277SOL     OW56727   6.159   1.225   1.065
18277SOL    HW156728   6.199   1.205   0.981
18277SOL    HW256729   6.127   1.315   1.055
18278SOL     OW56730  14.690   8.690  10.583
18278SOL    HW156731  14.632   8.651  10.519
18278SOL    HW256732  14.761   8.627  10.593
18279SOL     OW56733  11.848   7.382   5.954
18279SOL    HW156734  11.811   7.355   6.039
18279SOL    HW256735  11.927   7.431   5.977
18280SOL     OW56736   4.618   8.181   0.956
18280SOL    HW156737   4.650   8.143   1.038
18280SOL    HW256738   4.530   8.144   0.946
18281SOL     OW56739  10.153  11.423  12.161
18281SOL    HW156740  10.249  11.424  12.162
18281SOL    HW256741  10.129  11.420  12.254
18282SOL     OW56742   4.633  14.070   9.145
18282SOL    HW156743   4.660  14.153   9.183
18282SOL    HW256744   4.704  14.045   9.086
18283SOL     OW56745   2.369  11.099   5.275
18283SOL    HW156746   2.408  11.090   5.363
18283SOL    HW256747   2.283  11.058   5.283
18284SOL     OW56748   2.588   0.158  14.454
18284SOL    HW156749   2.494   0.164  14.471
18284SOL    HW256750   2.600   0.204  14.371
18285SOL     OW56751   2.792   0.966   2.674
18285SOL    HW156752   2.846   1.040   2.705
18285SOL    HW256753   2.702   0.992   2.695
18286SOL     OW56754  12.681  13.507  11.098
18286SOL    HW156755  12.772  13.537  11.096
18286SOL    HW256756  12.637  13.560  11.032
18287SOL     OW56757   6.105   1.278   3.335
18287SOL    HW156758   6.108   1.264   3.240
18287SOL    HW256759   6.089   1.191   3.372
18288SOL     OW56760   6.495   1.849   4.061
18288SOL    HW156761   6.564   1.824   3.999
18288SOL    HW256762   6.514   1.801   4.141
18289SOL     OW56763   2.224   3.592   6.861
18289SOL    HW156764   2.230   3.528   6.790
18289SOL    HW256765   2.252   3.543   6.939
18290SOL     OW56766   3.168  10.282   5.373
18290SOL    HW156767   3.251  10.243   5.348
18290SOL    HW256768   3.129  10.312   5.291
18291SOL     OW56769   2.340  12.819  12.968
18291SOL    HW156770   2.269  12.799  12.906
18291SOL    HW256771   2.383  12.895  12.931
18292SOL     OW56772   8.922  12.894   8.562
18292SOL    HW156773   8.988  12.868   8.499
18292SOL    HW256774   8.951  12.855   8.645
18293SOL     OW56775  14.223  14.373  13.828
18293SOL    HW156776  14.277  14.348  13.753
18293SOL    HW256777  14.284  14.374  13.902
18294SOL     OW56778   5.576   7.098   3.943
18294SOL    HW156779   5.508   7.031   3.941
18294SOL    HW256780   5.656   7.053   3.916
18295SOL     OW56781  13.399   7.490   7.330
18295SOL    HW156782  13.432   7.440   7.404
18295SOL    HW256783  13.352   7.564   7.369
18296SOL     OW56784   2.558   7.643   3.370
18296SOL    HW156785   2.566   7.634   3.275
18296SOL    HW256786   2.631   7.593   3.405
18297SOL     OW56787  11.588   2.529   3.700
18297SOL    HW156788  11.640   2.609   3.713
18297SOL    HW256789  11.501   2.552   3.731
18298SOL     OW56790  13.024  13.197  14.135
18298SOL    HW156791  13.115  13.210  14.108
18298SOL    HW256792  12.984  13.148  14.063
18299SOL     OW56793  10.013   1.735  13.098
18299SOL    HW156794  10.091   1.775  13.060
18299SOL    HW256795   9.951   1.731  13.025
18300SOL     OW56796   7.079  10.856   0.498
18300SOL    HW156797   7.004  10.888   0.448
18300SOL    HW256798   7.094  10.768   0.464
18301SOL     OW56799   5.913  12.482   2.838
18301SOL    HW156800   5.864  12.525   2.908
18301SOL    HW256801   5.849  12.473   2.767
18302SOL     OW56802  12.797   5.597   2.734
18302SOL    HW156803  12.829   5.622   2.647
18302SOL    HW256804  12.744   5.519   2.718
18303SOL     OW56805   5.965   6.802  10.473
18303SOL    HW156806   5.883   6.847  10.455
18303SOL    HW256807   6.001   6.781  10.386
18304SOL     OW56808  11.269   7.424  10.206
18304SOL    HW156809  11.362   7.426  10.181
18304SOL    HW256810  11.238   7.339  10.174
18305SOL     OW56811   0.531   5.323   1.027
18305SOL    HW156812   0.611   5.330   0.975
18305SOL    HW256813   0.539   5.240   1.074
18306SOL     OW56814  14.591  12.730   5.076
18306SOL    HW156815  14.568  12.747   5.167
18306SOL    HW256816  14.645  12.651   5.079
18307SOL     OW56817   9.705   4.443  14.198
18307SOL    HW156818   9.774   4.391  14.158
18307SOL    HW256819   9.741   4.532  14.201
18308SOL     OW56820  12.519  13.927   0.313
18308SOL    HW156821  12.582  13.893   0.377
18308SOL    HW256822  12.569  13.987   0.258
18309SOL     OW56823   9.798  10.061  12.661
18309SOL    HW156824   9.888  10.052  12.629
18309SOL    HW256825   9.760  10.129  12.605
18310SOL     OW56826  13.357   6.506   2.008
18310SOL    HW156827  13.398   6.457   1.937
18310SOL    HW256828  13.428   6.558   2.045
18311SOL     OW56829  10.165  10.254   5.040
18311SOL    HW156830  10.098  10.224   5.101
18311SOL    HW256831  10.198  10.173   4.999
18312SOL     OW56832   7.511   2.951  12.249
18312SOL    HW156833   7.420   2.947  12.280
18312SOL    HW256834   7.520   3.039  12.214
18313SOL     OW56835  11.294   5.097  10.560
18313SOL    HW156836  11.278   5.189  10.543
18313SOL    HW256837  11.237   5.076  10.634
18314SOL     OW56838   0.254  11.067  12.080
18314SOL    HW156839   0.225  10.994  12.026
18314SOL    HW256840   0.315  11.028  12.142
18315SOL     OW56841   5.466   6.154  14.779
18315SOL    HW156842   5.461   6.177  14.686
18315SOL    HW256843   5.381   6.114  14.799
18316SOL     OW56844   9.911   0.952   4.475
18316SOL    HW156845   9.953   1.038   4.471
18316SOL    HW256846   9.884   0.935   4.385
18317SOL     OW56847   5.084  14.531   2.660
18317SOL    HW156848   5.056  14.585   2.586
18317SOL    HW256849   5.023  14.458   2.662
18318SOL     OW56850   9.588   8.538  11.231
18318SOL    HW156851   9.560   8.630  11.225
18318SOL    HW256852   9.537   8.503  11.304
18319SOL     OW56853   6.851   3.709   9.167
18319SOL    HW156854   6.917   3.773   9.141
18319SOL    HW256855   6.810   3.748   9.244
18320SOL     OW56856  13.178   0.120   9.234
18320SOL    HW156857  13.117   0.152   9.167
18320SOL    HW256858  13.223   0.047   9.192
18321SOL     OW56859   4.543  12.173  11.569
18321SOL    HW156860   4.492  12.092  11.575
18321SOL    HW256861   4.627  12.147  11.532
18322SOL     OW56862   2.453   0.282   0.547
18322SOL    HW156863   2.398   0.356   0.522
18322SOL    HW256864   2.414   0.207   0.504
18323SOL     OW56865   0.681   9.648  12.314
18323SOL    HW156866   0.703   9.731  12.355
18323SOL    HW256867   0.659   9.590  12.387
18324SOL     OW56868   9.519   7.334  10.195
18324SOL    HW156869   9.532   7.405  10.132
18324SOL    HW256870   9.428   7.342  10.221
18325SOL     OW56871   2.020   2.232   6.615
18325SOL    HW156872   1.959   2.278   6.557
18325SOL    HW256873   2.083   2.192   6.556
18326SOL     OW56874   0.817  13.289   3.963
18326SOL    HW156875   0.807  13.237   4.043
18326SOL    HW256876   0.824  13.225   3.893
18327SOL     OW56877   3.601  13.466  11.689
18327SOL    HW156878   3.584  13.453  11.782
18327SOL    HW256879   3.561  13.551  11.669
18328SOL     OW56880   3.868   8.936   3.252
18328SOL    HW156881   3.851   8.844   3.230
18328SOL    HW256882   3.831   8.985   3.179
18329SOL     OW56883   3.111   7.085   7.621
18329SOL    HW156884   3.175   7.128   7.678
18329SOL    HW256885   3.035   7.143   7.622
18330SOL     OW56886  13.671  13.153   1.981
18330SOL    HW156887  13.756  13.127   1.948
18330SOL    HW256888  13.672  13.248   1.980
18331SOL     OW56889   2.052   9.038   0.834
18331SOL    HW156890   2.052   8.949   0.869
18331SOL    HW256891   2.112   9.035   0.760
18332SOL     OW56892   9.293   9.724  13.001
18332SOL    HW156893   9.357   9.653  12.992
18332SOL    HW256894   9.292   9.744  13.095
18333SOL     OW56895   9.248   8.958  12.252
18333SOL    HW156896   9.219   9.035  12.204
18333SOL    HW256897   9.169   8.929  12.299
18334SOL     OW56898   7.032   7.268   7.483
18334SOL    HW156899   7.110   7.277   7.428
18334SOL    HW256900   7.055   7.201   7.547
18335SOL     OW56901  13.330  12.339  13.897
18335SOL    HW156902  13.321  12.289  13.815
18335SOL    HW256903  13.349  12.428  13.869
18336SOL     OW56904   1.875   7.242  10.300
18336SOL    HW156905   1.912   7.233  10.388
18336SOL    HW256906   1.846   7.333  10.295
18337SOL     OW56907   7.768  13.212   4.326
18337SOL    HW156908   7.765  13.212   4.231
18337SOL    HW256909   7.839  13.274   4.348
18338SOL     OW56910  10.014   4.761   5.691
18338SOL    HW156911  10.001   4.809   5.773
18338SOL    HW256912   9.974   4.816   5.624
18339SOL     OW56913   5.063   6.873   9.814
18339SOL    HW156914   5.018   6.815   9.754
18339SOL    HW256915   5.033   6.961   9.790
18340SOL     OW56916   2.989   3.679   9.126
18340SOL    HW156917   3.085   3.679   9.124
18340SOL    HW256918   2.966   3.763   9.165
18341SOL     OW56919   6.699  14.755   0.648
18341SOL    HW156920   6.611  14.746   0.611
18341SOL    HW256921   6.700  14.695   0.722
18342SOL     OW56922  11.779  14.550  12.323
18342SOL    HW156923  11.780  14.457  12.346
18342SOL    HW256924  11.811  14.595  12.402
18343SOL     OW56925  13.394   8.342   6.275
18343SOL    HW156926  13.408   8.416   6.334
18343SOL    HW256927  13.307   8.357   6.238
18344SOL     OW56928  12.232   3.242  12.598
18344SOL    HW156929  12.282   3.223  12.677
18344SOL    HW256930  12.186   3.160  12.578
18345SOL     OW56931   3.199   3.458   8.003
18345SOL    HW156932   3.154   3.542   7.997
18345SOL    HW256933   3.278   3.470   7.951
18346SOL     OW56934   6.213  13.514   3.900
18346SOL    HW156935   6.286  13.453   3.908
18346SOL    HW256936   6.196  13.519   3.806
18347SOL     OW56937   0.451   3.451  12.652
18347SOL    HW156938   0.483   3.511  12.720
18347SOL    HW256939   0.369   3.416  12.688
18348SOL     OW56940  10.505  12.313  11.705
18348SOL    HW156941  10.518  12.402  11.671
18348SOL    HW256942  10.426  12.282  11.662
18349SOL     OW56943   1.628   1.274  14.181
18349SOL    HW156944   1.619   1.369  14.177
18349SOL    HW256945   1.563   1.246  14.245
18350SOL     OW56946   3.814   2.630  12.864
18350SOL    HW156947   3.795   2.694  12.932
18350SOL    HW256948   3.729   2.610  12.825
18351SOL     OW56949   9.079   6.396  13.818
18351SOL    HW156950   9.134   6.447  13.878
18351SOL    HW256951   9.109   6.421  13.731
18352SOL     OW56952   3.476   9.431   1.983
18352SOL    HW156953   3.536   9.370   2.026
18352SOL    HW256954   3.520   9.457   1.903
18353SOL     OW56955   4.536  14.055   7.028
18353SOL    HW156956   4.487  13.973   7.038
18353SOL    HW256957   4.598  14.054   7.101
18354SOL     OW56958   5.525   1.462   1.365
18354SOL    HW156959   5.435   1.432   1.379
18354SOL    HW256960   5.532   1.541   1.418
18355SOL     OW56961   6.481   3.366   4.370
18355SOL    HW156962   6.492   3.368   4.275
18355SOL    HW256963   6.433   3.285   4.387
18356SOL     OW56964   6.289   6.875   0.141
18356SOL    HW156965   6.223   6.812   0.112
18356SOL    HW256966   6.310   6.847   0.230
18357SOL     OW56967  11.877   3.691   7.146
18357SOL    HW156968  11.889   3.738   7.063
18357SOL    HW256969  11.954   3.634   7.153
18358SOL     OW56970  12.485  12.644  12.881
18358SOL    HW156971  12.482  12.566  12.936
18358SOL    HW256972  12.555  12.697  12.919
18359SOL     OW56973  10.450  14.112  10.260
18359SOL    HW156974  10.452  14.184  10.197
18359SOL    HW256975  10.529  14.124  10.313
18360SOL     OW56976  11.806  13.933   1.694
18360SOL    HW156977  11.871  13.976   1.638
18360SOL    HW256978  11.793  13.847   1.653
18361SOL     OW56979  13.820  10.673  14.239
18361SOL    HW156980  13.775  10.661  14.156
18361SOL    HW256981  13.913  10.664  14.218
18362SOL     OW56982   2.984  10.476   1.291
18362SOL    HW156983   2.918  10.417   1.329
18362SOL    HW256984   3.012  10.531   1.364
18363SOL     OW56985  10.276   9.655  12.041
18363SOL    HW156986  10.191   9.684  12.007
18363SOL    HW256987  10.293   9.712  12.116
18364SOL     OW56988  12.471   0.613   3.378
18364SOL    HW156989  12.429   0.576   3.455
18364SOL    HW256990  12.400   0.655   3.330
18365SOL     OW56991   5.645   3.055   1.873
18365SOL    HW156992   5.605   3.140   1.890
18365SOL    HW256993   5.667   3.058   1.779
18366SOL     OW56994   6.076  13.823   4.483
18366SOL    HW156995   6.089  13.793   4.572
18366SOL    HW256996   6.044  13.913   4.492
18367SOL     OW56997   6.556   1.630   6.319
18367SOL    HW156998   6.487   1.581   6.273
18367SOL    HW256999   6.550   1.599   6.409
18368SOL     OW57000   9.240  14.348   7.776
18368SOL    HW157001   9.206  14.324   7.862
18368SOL    HW257002   9.334  14.334   7.782
18369SOL     OW57003   4.678   8.721   3.886
18369SOL    HW157004   4.657   8.663   3.812
18369SOL    HW257005   4.732   8.666   3.944
18370SOL     OW57006   5.802   1.253   4.428
18370SOL    HW157007   5.804   1.346   4.449
18370SOL    HW257008   5.768   1.248   4.339
18371SOL     OW57009   9.145   1.306  11.487
18371SOL    HW157010   9.069   1.263  11.525
18371SOL    HW257011   9.114   1.344  11.406
18372SOL     OW57012   6.387  13.017   9.252
18372SOL    HW157013   6.311  12.966   9.282
18372SOL    HW257014   6.357  13.060   9.173
18373SOL     OW57015   9.743  11.813   3.012
18373SOL    HW157016   9.762  11.736   2.958
18373SOL    HW257017   9.705  11.777   3.092
18374SOL     OW57018   3.840   3.943   5.752
18374SOL    HW157019   3.862   4.010   5.687
18374SOL    HW257020   3.763   3.978   5.797
18375SOL     OW57021  13.260  11.850  12.693
18375SOL    HW157022  13.334  11.852  12.754
18375SOL    HW257023  13.233  11.942  12.686
18376SOL     OW57024   9.947  10.688   5.077
18376SOL    HW157025   9.978  10.677   5.167
18376SOL    HW257026   9.978  10.610   5.032
18377SOL     OW57027   5.397   7.069   2.928
18377SOL    HW157028   5.337   7.134   2.963
18377SOL    HW257029   5.438   7.030   3.006
18378SOL     OW57030   4.556   5.334  13.386
18378SOL    HW157031   4.629   5.374  13.433
18378SOL    HW257032   4.579   5.241  13.382
18379SOL     OW57033   2.300   2.419   9.294
18379SOL    HW157034   2.205   2.420   9.311
18379SOL    HW257035   2.313   2.344   9.236
18380SOL     OW57036  10.583  12.863  13.291
18380SOL    HW157037  10.501  12.871  13.242
18380SOL    HW257038  10.627  12.947  13.278
18381SOL     OW57039  11.413   3.697   2.517
18381SOL    HW157040  11.443   3.633   2.582
18381SOL    HW257041  11.456   3.668   2.436
18382SOL     OW57042   5.372   8.567   3.491
18382SOL    HW157043   5.384   8.556   3.397
18382SOL    HW257044   5.336   8.655   3.501
18383SOL     OW57045   1.855  11.660   0.361
18383SOL    HW157046   1.806  11.617   0.432
18383SOL    HW257047   1.917  11.717   0.405
18384SOL     OW57048  14.107  12.967  12.630
18384SOL    HW157049  14.107  12.897  12.696
18384SOL    HW257050  14.051  13.035  12.668
18385SOL     OW57051   1.095  12.729   9.359
18385SOL    HW157052   1.073  12.820   9.340
18385SOL    HW257053   1.093  12.723   9.455
18386SOL     OW57054  10.607   8.094   9.776
18386SOL    HW157055  10.547   8.050   9.715
18386SOL    HW257056  10.694   8.066   9.748
18387SOL     OW57057   2.897   9.248   7.574
18387SOL    HW157058   2.993   9.250   7.566
18387SOL    HW257059   2.877   9.155   7.585
18388SOL     OW57060   2.495   2.119   6.302
18388SOL    HW157061   2.464   2.134   6.212
18388SOL    HW257062   2.585   2.151   6.302
18389SOL     OW57063   9.197   8.102   6.723
18389SOL    HW157064   9.222   8.195   6.722
18389SOL    HW257065   9.115   8.099   6.673
18390SOL     OW57066  11.145   6.946   9.666
18390SOL    HW157067  11.167   6.854   9.678
18390SOL    HW257068  11.203   6.993   9.726
18391SOL     OW57069  11.494  11.012   6.937
18391SOL    HW157070  11.518  10.923   6.911
18391SOL    HW257071  11.568  11.066   6.911
18392SOL     OW57072  12.292   5.416  14.220
18392SOL    HW157073  12.301   5.324  14.246
18392SOL    HW257074  12.198   5.430  14.211
18393SOL     OW57075   8.593  10.222  11.600
18393SOL    HW157076   8.630  10.155  11.658
18393SOL    HW257077   8.607  10.187  11.511
18394SOL     OW57078   3.926   8.691   3.636
18394SOL    HW157079   3.987   8.734   3.576
18394SOL    HW257080   3.903   8.609   3.591
18395SOL     OW57081  12.731   3.180  14.448
18395SOL    HW157082  12.651   3.233  14.450
18395SOL    HW257083  12.717   3.120  14.376
18396SOL     OW57084  13.690  10.754  10.681
18396SOL    HW157085  13.741  10.677  10.703
18396SOL    HW257086  13.753  10.827  10.686
18397SOL     OW57087   5.701   8.227   9.292
18397SOL    HW157088   5.761   8.162   9.328
18397SOL    HW257089   5.758   8.293   9.254
18398SOL     OW57090   7.576  13.633   6.439
18398SOL    HW157091   7.530  13.700   6.490
18398SOL    HW257092   7.668  13.655   6.448
18399SOL     OW57093   1.792   3.540   2.005
18399SOL    HW157094   1.795   3.466   2.066
18399SOL    HW257095   1.855   3.517   1.936
18400SOL     OW57096   5.139   8.014  13.491
18400SOL    HW157097   5.079   8.059  13.432
18400SOL    HW257098   5.226   8.036  13.457
18401SOL     OW57099   8.242   5.885   9.991
18401SOL    HW157100   8.315   5.829   9.964
18401SOL    HW257101   8.164   5.839   9.960
18402SOL     OW57102   6.975   9.945  11.524
18402SOL    HW157103   6.979  10.011  11.592
18402SOL    HW257104   6.962   9.862  11.571
18403SOL     OW57105   6.446   7.744   0.609
18403SOL    HW157106   6.475   7.791   0.687
18403SOL    HW257107   6.414   7.812   0.550
18404SOL     OW57108  14.059   2.829   1.719
18404SOL    HW157109  14.102   2.880   1.788
18404SOL    HW257110  13.993   2.777   1.766
18405SOL     OW57111   2.152  13.993   6.811
18405SOL    HW157112   2.108  14.023   6.890
18405SOL    HW257113   2.244  14.012   6.825
18406SOL     OW57114  11.336   1.649   7.697
18406SOL    HW157115  11.274   1.585   7.661
18406SOL    HW257116  11.281   1.716   7.738
18407SOL     OW57117  12.205   2.658  13.348
18407SOL    HW157118  12.288   2.704  13.363
18407SOL    HW257119  12.224   2.597  13.276
18408SOL     OW57120  11.142   6.697  12.615
18408SOL    HW157121  11.105   6.630  12.673
18408SOL    HW257122  11.227   6.663  12.590
18409SOL     OW57123   1.029   6.151   9.998
18409SOL    HW157124   1.027   6.220   9.931
18409SOL    HW257125   1.114   6.108   9.986
18410SOL     OW57126   3.792   3.066   6.430
18410SOL    HW157127   3.832   3.144   6.390
18410SOL    HW257128   3.866   3.015   6.463
18411SOL     OW57129   5.256   6.302   4.073
18411SOL    HW157130   5.342   6.286   4.112
18411SOL    HW257131   5.265   6.274   3.982
18412SOL     OW57132   8.322  10.717   2.079
18412SOL    HW157133   8.316  10.624   2.054
18412SOL    HW257134   8.364  10.716   2.165
18413SOL     OW57135   5.471  12.220   6.527
18413SOL    HW157136   5.441  12.131   6.546
18413SOL    HW257137   5.432  12.273   6.596
18414SOL     OW57138  14.017   3.948   7.991
18414SOL    HW157139  13.980   3.861   8.003
18414SOL    HW257140  14.077   3.960   8.064
18415SOL     OW57141  14.096  13.323   8.854
18415SOL    HW157142  14.105  13.245   8.909
18415SOL    HW257143  14.157  13.309   8.781
18416SOL     OW57144   2.219   5.279   6.182
18416SOL    HW157145   2.291   5.261   6.243
18416SOL    HW257146   2.247   5.357   6.135
18417SOL     OW57147   3.343  13.705   0.158
18417SOL    HW157148   3.367  13.795   0.182
18417SOL    HW257149   3.417  13.652   0.189
18418SOL     OW57150  11.527  12.317   6.049
18418SOL    HW157151  11.590  12.340   5.980
18418SOL    HW257152  11.463  12.261   6.005
18419SOL     OW57153  12.599  12.664   0.649
18419SOL    HW157154  12.561  12.752   0.655
18419SOL    HW257155  12.584  12.638   0.558
18420SOL     OW57156   2.801   7.047   2.669
18420SOL    HW157157   2.859   7.048   2.745
18420SOL    HW257158   2.860   7.031   2.595
18421SOL     OW57159  12.207  11.322  11.551
18421SOL    HW157160  12.288  11.361  11.519
18421SOL    HW257161  12.224  11.228  11.552
18422SOL     OW57162   1.381  12.081   1.353
18422SOL    HW157163   1.448  12.039   1.299
18422SOL    HW257164   1.375  12.170   1.319
18423SOL     OW57165   0.569   0.024   5.074
18423SOL    HW157166   0.621   0.069   5.008
18423SOL    HW257167   0.529  14.820   5.028
18424SOL     OW57168  11.129  13.953  13.289
18424SOL    HW157169  11.120  13.872  13.238
18424SOL    HW257170  11.181  14.011  13.233
18425SOL     OW57171   4.397  11.603  14.773
18425SOL    HW157172   4.360  11.692  14.772
18425SOL    HW257173   4.450  11.599  14.693
18426SOL     OW57174   1.450   5.401  11.433
18426SOL    HW157175   1.537   5.383  11.398
18426SOL    HW257176   1.425   5.485  11.395
18427SOL     OW57177   0.412  11.769   3.851
18427SOL    HW157178   0.485  11.739   3.905
18427SOL    HW257179   0.348  11.698   3.855
18428SOL     OW57180   4.600  12.704   2.498
18428SOL    HW157181   4.645  12.624   2.525
18428SOL    HW257182   4.507  12.679   2.494
18429SOL     OW57183   1.942   2.220  13.355
18429SOL    HW157184   1.991   2.145  13.322
18429SOL    HW257185   1.972   2.294  13.302
18430SOL     OW57186  10.052   8.757   5.292
18430SOL    HW157187   9.991   8.732   5.223
18430SOL    HW257188  10.072   8.675   5.338
18431SOL     OW57189  11.226  13.088   0.819
18431SOL    HW157190  11.169  13.113   0.892
18431SOL    HW257191  11.315  13.098   0.853
18432SOL     OW57192  13.986   5.181   0.167
18432SOL    HW157193  13.996   5.253   0.106
18432SOL    HW257194  13.949   5.110   0.115
18433SOL     OW57195  11.507   1.379  14.777
18433SOL    HW157196  11.591   1.353  14.816
18433SOL    HW257197  11.466   1.296  14.752
18434SOL     OW57198   4.695   9.338   0.952
18434SOL    HW157199   4.690   9.364   0.861
18434SOL    HW257200   4.745   9.256   0.951
18435SOL     OW57201   6.197  11.872   5.590
18435SOL    HW157202   6.116  11.833   5.624
18435SOL    HW257203   6.223  11.935   5.658
18436SOL     OW57204   1.972   3.345   6.340
18436SOL    HW157205   1.938   3.352   6.250
18436SOL    HW257206   1.915   3.403   6.391
18437SOL     OW57207   1.632   9.669  12.998
18437SOL    HW157208   1.631   9.752  12.950
18437SOL    HW257209   1.542   9.639  12.994
18438SOL     OW57210   5.805   4.104   5.254
18438SOL    HW157211   5.896   4.089   5.226
18438SOL    HW257212   5.789   4.038   5.320
18439SOL     OW57213  12.985   7.217   6.593
18439SOL    HW157214  12.914   7.154   6.594
18439SOL    HW257215  12.970   7.268   6.513
18440SOL     OW57216   2.115   9.373   7.289
18440SOL    HW157217   2.186   9.423   7.250
18440SOL    HW257218   2.080   9.431   7.358
18441SOL     OW57219  14.482   1.370   3.352
18441SOL    HW157220  14.422   1.411   3.413
18441SOL    HW257221  14.564   1.362   3.400
18442SOL     OW57222   9.024   8.152   8.897
18442SOL    HW157223   9.051   8.064   8.923
18442SOL    HW257224   9.089   8.178   8.832
18443SOL     OW57225   7.044  13.085  14.378
18443SOL    HW157226   7.133  13.051  14.366
18443SOL    HW257227   7.047  13.173  14.340
18444SOL     OW57228  13.528  12.745   5.245
18444SOL    HW157229  13.537  12.706   5.158
18444SOL    HW257230  13.558  12.835   5.234
18445SOL     OW57231   8.940   7.170  12.859
18445SOL    HW157232   9.005   7.130  12.800
18445SOL    HW257233   8.863   7.183  12.804
18446SOL     OW57234   8.936   4.518   4.407
18446SOL    HW157235   8.937   4.613   4.399
18446SOL    HW257236   8.881   4.502   4.484
18447SOL     OW57237   3.480  10.720   8.909
18447SOL    HW157238   3.527  10.720   8.826
18447SOL    HW257239   3.532  10.664   8.966
18448SOL     OW57240   6.079   7.442   2.826
18448SOL    HW157241   6.090   7.536   2.811
18448SOL    HW257242   5.985   7.431   2.842
18449SOL     OW57243   6.876  13.982   1.151
18449SOL    HW157244   6.843  14.021   1.232
18449SOL    HW257245   6.971  13.976   1.164
18450SOL     OW57246  14.259   0.812  11.312
18450SOL    HW157247  14.174   0.852  11.293
18450SOL    HW257248  14.322   0.869  11.267
18451SOL     OW57249   8.191   1.587   9.929
18451SOL    HW157250   8.121   1.652   9.923
18451SOL    HW257251   8.258   1.618   9.868
18452SOL     OW57252   5.506   3.159   5.402
18452SOL    HW157253   5.602   3.167   5.410
18452SOL    HW257254   5.480   3.107   5.478
18453SOL     OW57255  13.608   0.329   0.065
18453SOL    HW157256  13.700   0.330   0.093
18453SOL    HW257257  13.612   0.314  14.840
18454SOL     OW57258   2.421   6.479  14.797
18454SOL    HW157259   2.512   6.506  14.808
18454SOL    HW257260   2.425   6.409  14.731
18455SOL     OW57261   6.816  13.281  14.463
18455SOL    HW157262   6.746  13.220  14.441
18455SOL    HW257263   6.884  13.227  14.502
18456SOL     OW57264   2.896   2.100  11.533
18456SOL    HW157265   2.985   2.122  11.506
18456SOL    HW257266   2.906   2.018  11.582
18457SOL     OW57267  12.998  12.249   8.812
18457SOL    HW157268  13.068  12.292   8.861
18457SOL    HW257269  13.030  12.159   8.799
18458SOL     OW57270   7.797   8.732   1.868
18458SOL    HW157271   7.771   8.744   1.777
18458SOL    HW257272   7.846   8.650   1.869
18459SOL     OW57273   3.861   2.681   5.946
18459SOL    HW157274   3.920   2.641   6.010
18459SOL    HW257275   3.807   2.741   5.998
18460SOL     OW57276  11.214  10.951  12.886
18460SOL    HW157277  11.288  11.001  12.922
18460SOL    HW257278  11.253  10.868  12.857
18461SOL     OW57279   2.423  10.591   6.754
18461SOL    HW157280   2.496  10.624   6.702
18461SOL    HW257281   2.463  10.528   6.815
18462SOL     OW57282   9.038  14.428  14.422
18462SOL    HW157283   8.972  14.361  14.439
18462SOL    HW257284   9.033  14.486  14.499
18463SOL     OW57285  14.597   6.502  14.676
18463SOL    HW157286  14.677   6.450  14.678
18463SOL    HW257287  14.580   6.524  14.767
18464SOL     OW57288   5.302   8.710  11.091
18464SOL    HW157289   5.308   8.653  11.167
18464SOL    HW257290   5.344   8.660  11.021
18465SOL     OW57291   7.139   8.053  10.903
18465SOL    HW157292   7.151   8.099  10.820
18465SOL    HW257293   7.157   7.961  10.883
18466SOL     OW57294   8.266   9.465  10.513
18466SOL    HW157295   8.350   9.421  10.505
18466SOL    HW257296   8.258   9.518  10.434
18467SOL     OW57297  14.421   9.741  12.779
18467SOL    HW157298  14.474   9.730  12.858
18467SOL    HW257299  14.430   9.657  12.733
18468SOL     OW57300   9.060  13.069   3.459
18468SOL    HW157301   9.065  12.989   3.407
18468SOL    HW257302   8.979  13.060   3.509
18469SOL     OW57303   6.146   1.761  10.524
18469SOL    HW157304   6.103   1.837  10.562
18469SOL    HW257305   6.107   1.751  10.438
18470SOL     OW57306   7.016   9.835  10.534
18470SOL    HW157307   7.048   9.889  10.606
18470SOL    HW257308   6.990   9.898  10.466
18471SOL     OW57309   1.828   0.463  10.539
18471SOL    HW157310   1.821   0.558  10.550
18471SOL    HW257311   1.821   0.449  10.444
18472SOL     OW57312   0.068   1.691   5.290
18472SOL    HW157313   0.035   1.615   5.242
18472SOL    HW257314   0.089   1.658   5.377
18473SOL     OW57315   5.928   9.652   4.639
18473SOL    HW157316   5.928   9.620   4.729
18473SOL    HW257317   5.846   9.700   4.631
18474SOL     OW57318   3.131  12.733  13.178
18474SOL    HW157319   3.114  12.825  13.157
18474SOL    HW257320   3.048  12.700  13.211
18475SOL     OW57321   4.158  12.450   2.524
18475SOL    HW157322   4.224  12.519   2.522
18475SOL    HW257323   4.136  12.435   2.432
18476SOL     OW57324   6.166   0.466   2.230
18476SOL    HW157325   6.220   0.398   2.191
18476SOL    HW257326   6.201   0.548   2.194
18477SOL     OW57327  13.492   1.283  12.016
18477SOL    HW157328  13.436   1.335  12.073
18477SOL    HW257329  13.436   1.211  11.986
18478SOL     OW57330  10.512   5.923   2.322
18478SOL    HW157331  10.551   6.006   2.349
18478SOL    HW257332  10.526   5.864   2.397
18479SOL     OW57333   3.077  13.442   4.472
18479SOL    HW157334   3.059  13.354   4.439
18479SOL    HW257335   3.132  13.482   4.405
18480SOL     OW57336   6.009   1.387  11.272
18480SOL    HW157337   6.010   1.319  11.340
18480SOL    HW257338   5.995   1.468  11.320
18481SOL     OW57339   8.256  10.302  10.952
18481SOL    HW157340   8.323  10.297  11.020
18481SOL    HW257341   8.195  10.232  10.973
18482SOL     OW57342  10.060   3.768   0.201
18482SOL    HW157343  10.008   3.774   0.121
18482SOL    HW257344  10.011   3.819   0.266
18483SOL     OW57345   2.844   8.026  12.935
18483SOL    HW157346   2.918   8.046  12.991
18483SOL    HW257347   2.882   8.018  12.847
18484SOL     OW57348   6.780   6.389  11.201
18484SOL    HW157349   6.775   6.358  11.111
18484SOL    HW257350   6.765   6.483  11.196
18485SOL     OW57351  11.899  13.355   9.560
18485SOL    HW157352  11.807  13.366   9.534
18485SOL    HW257353  11.930  13.283   9.505
18486SOL     OW57354   1.558   0.934   6.397
18486SOL    HW157355   1.528   0.907   6.310
18486SOL    HW257356   1.639   0.886   6.411
18487SOL     OW57357  13.431   2.701  11.987
18487SOL    HW157358  13.387   2.641  12.047
18487SOL    HW257359  13.480   2.761  12.044
18488SOL     OW57360   0.766   8.154   0.193
18488SOL    HW157361   0.744   8.132   0.103
18488SOL    HW257362   0.711   8.230   0.213
18489SOL     OW57363   3.633   2.674  12.252
18489SOL    HW157364   3.624   2.756  12.203
18489SOL    HW257365   3.692   2.621  12.199
18490SOL     OW57366   2.491  11.619  12.988
18490SOL    HW157367   2.418  11.569  12.950
18490SOL    HW257368   2.472  11.619  13.082
18491SOL     OW57369   0.266  13.902   1.375
18491SOL    HW157370   0.343  13.844   1.381
18491SOL    HW257371   0.223  13.875   1.294
18492SOL     OW57372   9.082   9.730  12.446
18492SOL    HW157373   9.136   9.657  12.417
18492SOL    HW257374   9.144   9.792  12.485
18493SOL     OW57375  10.318  14.491   7.694
18493SOL    HW157376  10.410  14.465   7.691
18493SOL    HW257377  10.318  14.573   7.743
18494SOL     OW57378  10.241   3.581  10.659
18494SOL    HW157379  10.171   3.517  10.654
18494SOL    HW257380  10.239   3.612  10.750
18495SOL     OW57381   8.777  11.079   7.318
18495SOL    HW157382   8.836  11.155   7.320
18495SOL    HW257383   8.726  11.086   7.399
18496SOL     OW57384   1.682  14.679   7.614
18496SOL    HW157385   1.633  14.746   7.663
18496SOL    HW257386   1.632  14.669   7.533
18497SOL     OW57387   6.646  11.630   5.920
18497SOL    HW157388   6.703  11.641   5.844
18497SOL    HW257389   6.583  11.563   5.894
18498SOL     OW57390   5.617   4.895   8.995
18498SOL    HW157391   5.663   4.822   8.953
18498SOL    HW257392   5.658   4.974   8.958
18499SOL     OW57393   0.503  12.508  13.400
18499SOL    HW157394   0.500  12.485  13.307
18499SOL    HW257395   0.576  12.570  13.407
18500SOL     OW57396   3.425   1.823   1.890
18500SOL    HW157397   3.450   1.818   1.983
18500SOL    HW257398   3.495   1.874   1.849
18501SOL     OW57399   2.719  13.314  14.235
18501SOL    HW157400   2.660  13.374  14.281
18501SOL    HW257401   2.768  13.370  14.175
18502SOL     OW57402  11.621   0.605  11.976
18502SOL    HW157403  11.661   0.537  12.030
18502SOL    HW257404  11.617   0.682  12.033
18503SOL     OW57405  11.571   8.261   5.795
18503SOL    HW157406  11.666   8.274   5.801
18503SOL    HW257407  11.561   8.167   5.780
18504SOL     OW57408  13.055   9.520   7.770
18504SOL    HW157409  13.084   9.520   7.678
18504SOL    HW257410  12.978   9.578   7.770
18505SOL     OW57411   6.898   2.737  10.662
18505SOL    HW157412   6.922   2.816  10.709
18505SOL    HW257413   6.846   2.768  10.587
18506SOL     OW57414   8.850  11.252  13.523
18506SOL    HW157415   8.871  11.211  13.439
18506SOL    HW257416   8.929  11.300  13.546
18507SOL     OW57417  11.973   5.940   0.338
18507SOL    HW157418  11.886   5.922   0.373
18507SOL    HW257419  11.979   6.035   0.336
18508SOL     OW57420   0.772  10.649   7.892
18508SOL    HW157421   0.709  10.631   7.823
18508SOL    HW257422   0.726  10.628   7.973
18509SOL     OW57423   0.638   6.533   5.996
18509SOL    HW157424   0.584   6.587   5.938
18509SOL    HW257425   0.692   6.596   6.044
18510SOL     OW57426   9.381   4.360   9.849
18510SOL    HW157427   9.310   4.420   9.870
18510SOL    HW257428   9.461   4.409   9.867
18511SOL     OW57429   8.444   4.646   3.977
18511SOL    HW157430   8.535   4.674   3.991
18511SOL    HW257431   8.399   4.668   4.058
18512SOL     OW57432  13.071  14.461  11.616
18512SOL    HW157433  13.038  14.524  11.680
18512SOL    HW257434  13.149  14.424  11.656
18513SOL     OW57435   6.399  14.623  10.367
18513SOL    HW157436   6.361  14.536  10.381
18513SOL    HW257437   6.326  14.675  10.334
18514SOL     OW57438   9.445   1.854  12.526
18514SOL    HW157439   9.408   1.767  12.510
18514SOL    HW257440   9.374   1.904  12.566
18515SOL     OW57441   0.432  10.197  11.075
18515SOL    HW157442   0.417  10.113  11.118
18515SOL    HW257443   0.527  10.211  11.082
18516SOL     OW57444   5.961   8.248  12.865
18516SOL    HW157445   5.902   8.268  12.793
18516SOL    HW257446   6.046   8.280  12.836
18517SOL     OW57447   8.865   3.438   8.303
18517SOL    HW157448   8.892   3.490   8.227
18517SOL    HW257449   8.946   3.396   8.333
18518SOL     OW57450   6.743  12.900   1.951
18518SOL    HW157451   6.661  12.858   1.978
18518SOL    HW257452   6.810  12.856   2.003
18519SOL     OW57453   3.280   3.873  10.685
18519SOL    HW157454   3.320   3.790  10.660
18519SOL    HW257455   3.206   3.883  10.626
18520SOL     OW57456  11.464  14.575   9.900
18520SOL    HW157457  11.439  14.496   9.948
18520SOL    HW257458  11.383  14.603   9.857
18521SOL     OW57459   5.651   5.389   2.172
18521SOL    HW157460   5.690   5.429   2.251
18521SOL    HW257461   5.647   5.296   2.192
18522SOL     OW57462  12.412  11.697   2.148
18522SOL    HW157463  12.461  11.634   2.200
18522SOL    HW257464  12.340  11.646   2.110
18523SOL     OW57465  10.506   5.138   3.998
18523SOL    HW157466  10.498   5.049   3.964
18523SOL    HW257467  10.486   5.130   4.091
18524SOL     OW57468  12.711   4.094   5.940
18524SOL    HW157469  12.618   4.112   5.955
18524SOL    HW257470  12.726   4.118   5.849
18525SOL     OW57471   7.517   4.973   3.242
18525SOL    HW157472   7.485   4.989   3.153
18525SOL    HW257473   7.507   5.056   3.287
18526SOL     OW57474  12.684   2.762   0.285
18526SOL    HW157475  12.630   2.683   0.291
18526SOL    HW257476  12.707   2.769   0.193
18527SOL     OW57477  12.336   9.565   1.909
18527SOL    HW157478  12.308   9.625   1.839
18527SOL    HW257479  12.258   9.554   1.964
18528SOL     OW57480  14.016   7.597   9.837
18528SOL    HW157481  13.991   7.559   9.752
18528SOL    HW257482  13.986   7.534   9.902
18529SOL     OW57483   3.629  11.817   8.879
18529SOL    HW157484   3.690  11.875   8.833
18529SOL    HW257485   3.663  11.810   8.968
18530SOL     OW57486   1.692  11.250   1.629
18530SOL    HW157487   1.732  11.192   1.564
18530SOL    HW257488   1.610  11.206   1.652
18531SOL     OW57489   7.694   6.974   3.679
18531SOL    HW157490   7.740   6.968   3.762
18531SOL    HW257491   7.744   7.038   3.628
18532SOL     OW57492   0.441   2.974   5.264
18532SOL    HW157493   0.355   3.011   5.247
18532SOL    HW257494   0.499   3.050   5.273
18533SOL     OW57495   6.104   9.499   6.278
18533SOL    HW157496   6.173   9.446   6.318
18533SOL    HW257497   6.072   9.445   6.205
18534SOL     OW57498   1.556  14.320   9.833
18534SOL    HW157499   1.567  14.311   9.738
18534SOL    HW257500   1.643  14.305   9.868
18535SOL     OW57501   1.761   3.201   1.698
18535SOL    HW157502   1.853   3.213   1.723
18535SOL    HW257503   1.714   3.270   1.745
18536SOL     OW57504   3.132   7.410   4.388
18536SOL    HW157505   3.217   7.378   4.418
18536SOL    HW257506   3.068   7.355   4.433
18537SOL     OW57507   1.438   9.562   2.596
18537SOL    HW157508   1.387   9.520   2.527
18537SOL    HW257509   1.466   9.489   2.652
18538SOL     OW57510  10.177  13.311   9.604
18538SOL    HW157511  10.199  13.220   9.587
18538SOL    HW257512  10.232  13.335   9.679
18539SOL     OW57513   8.398   9.084   0.024
18539SOL    HW157514   8.394   9.014   0.089
18539SOL    HW257515   8.453   9.048  14.824
18540SOL     OW57516   7.756   2.808   0.808
18540SOL    HW157517   7.681   2.799   0.867
18540SOL    HW257518   7.768   2.720   0.771
18541SOL     OW57519  14.106  12.625  10.179
18541SOL    HW157520  14.088  12.715  10.205
18541SOL    HW257521  14.053  12.572  10.239
18542SOL     OW57522   4.755  14.267   7.015
18542SOL    HW157523   4.822  14.323   6.976
18542SOL    HW257524   4.764  14.183   6.970
18543SOL     OW57525   9.455   5.355  12.359
18543SOL    HW157526   9.456   5.287  12.292
18543SOL    HW257527   9.525   5.415  12.333
18544SOL     OW57528   4.206   1.257   1.746
18544SOL    HW157529   4.213   1.314   1.669
18544SOL    HW257530   4.112   1.250   1.762
18545SOL     OW57531  12.231   5.449   8.142
18545SOL    HW157532  12.172   5.521   8.166
18545SOL    HW257533  12.184   5.403   8.072
18546SOL     OW57534   0.840  10.124   3.029
18546SOL    HW157535   0.763  10.102   3.080
18546SOL    HW257536   0.905  10.058   3.053
18547SOL     OW57537   8.356   0.777   4.084
18547SOL    HW157538   8.350   0.815   4.172
18547SOL    HW257539   8.268   0.741   4.068
18548SOL     OW57540   4.354   9.319  11.607
18548SOL    HW157541   4.360   9.299  11.514
18548SOL    HW257542   4.446   9.328  11.635
18549SOL     OW57543  13.365   1.515   6.644
18549SOL    HW157544  13.432   1.493   6.580
18549SOL    HW257545  13.354   1.610   6.635
18550SOL     OW57546   9.150   8.600   4.294
18550SOL    HW157547   9.245   8.591   4.303
18550SOL    HW257548   9.118   8.606   4.384
18551SOL     OW57549   0.543   9.404   6.868
18551SOL    HW157550   0.607   9.474   6.855
18551SOL    HW257551   0.595   9.325   6.882
18552SOL     OW57552   2.566   9.937   0.123
18552SOL    HW157553   2.538   9.925   0.032
18552SOL    HW257554   2.587   9.849   0.153
18553SOL     OW57555   4.673   9.406   7.523
18553SOL    HW157556   4.764   9.379   7.512
18553SOL    HW257557   4.653   9.386   7.615
18554SOL     OW57558  13.975   3.727   5.263
18554SOL    HW157559  14.001   3.795   5.200
18554SOL    HW257560  13.925   3.774   5.329
18555SOL     OW57561   1.163  13.183  14.461
18555SOL    HW157562   1.225  13.155  14.529
18555SOL    HW257563   1.090  13.122  14.468
18556SOL     OW57564  12.395   4.112   1.353
18556SOL    HW157565  12.448   4.135   1.429
18556SOL    HW257566  12.459   4.081   1.288
18557SOL     OW57567   8.860   1.380   3.749
18557SOL    HW157568   8.913   1.444   3.795
18557SOL    HW257569   8.899   1.375   3.661
18558SOL     OW57570  12.233   9.483   8.753
18558SOL    HW157571  12.185   9.535   8.689
18558SOL    HW257572  12.189   9.500   8.836
18559SOL     OW57573  11.797   9.837   4.281
18559SOL    HW157574  11.771   9.928   4.265
18559SOL    HW257575  11.862   9.843   4.351
18560SOL     OW57576   4.996  14.484  14.190
18560SOL    HW157577   5.036  14.398  14.183
18560SOL    HW257578   5.017  14.513  14.279
18561SOL     OW57579  12.552   3.972   4.780
18561SOL    HW157580  12.593   3.978   4.694
18561SOL    HW257581  12.510   3.886   4.780
18562SOL     OW57582  14.397   9.193   3.598
18562SOL    HW157583  14.431   9.168   3.513
18562SOL    HW257584  14.311   9.152   3.602
18563SOL     OW57585  14.714  11.852  11.740
18563SOL    HW157586  14.675  11.874  11.655
18563SOL    HW257587  14.656  11.785  11.777
18564SOL     OW57588   2.668  12.164  11.462
18564SOL    HW157589   2.583  12.148  11.503
18564SOL    HW257590   2.664  12.255  11.433
18565SOL     OW57591   0.923   2.232   1.692
18565SOL    HW157592   1.002   2.262   1.648
18565SOL    HW257593   0.933   2.137   1.697
18566SOL     OW57594   8.300   8.248  12.224
18566SOL    HW157595   8.224   8.252  12.282
18566SOL    HW257596   8.360   8.313  12.259
18567SOL     OW57597   1.298  13.749   4.781
18567SOL    HW157598   1.273  13.678   4.840
18567SOL    HW257599   1.259  13.828   4.820
18568SOL     OW57600  12.782  10.851  11.482
18568SOL    HW157601  12.755  10.939  11.509
18568SOL    HW257602  12.863  10.835  11.530
18569SOL     OW57603   5.455   7.324   1.081
18569SOL    HW157604   5.550   7.317   1.067
18569SOL    HW257605   5.420   7.241   1.048
18570SOL     OW57606   8.206   7.944   4.926
18570SOL    HW157607   8.255   7.956   4.844
18570SOL    HW257608   8.234   8.017   4.981
18571SOL     OW57609   3.688  10.143   6.658
18571SOL    HW157610   3.612  10.109   6.609
18571SOL    HW257611   3.740  10.065   6.679
18572SOL     OW57612   2.915   0.176  10.398
18572SOL    HW157613   3.005   0.193  10.427
18572SOL    HW257614   2.866   0.253  10.426
18573SOL     OW57615  13.369   3.544  11.614
18573SOL    HW157616  13.387   3.451  11.626
18573SOL    HW257617  13.305   3.547  11.543
18574SOL     OW57618   4.197   6.831   2.832
18574SOL    HW157619   4.268   6.864   2.887
18574SOL    HW257620   4.123   6.821   2.892
18575SOL     OW57621   3.662   0.254   9.060
18575SOL    HW157622   3.755   0.240   9.044
18575SOL    HW257623   3.634   0.315   8.992
18576SOL     OW57624   1.483   4.180   3.293
18576SOL    HW157625   1.425   4.118   3.338
18576SOL    HW257626   1.462   4.168   3.200
18577SOL     OW57627  14.084   0.779  10.685
18577SOL    HW157628  14.171   0.748  10.707
18577SOL    HW257629  14.051   0.819  10.766
18578SOL     OW57630  14.347   0.748   2.390
18578SOL    HW157631  14.254   0.770   2.396
18578SOL    HW257632  14.370   0.717   2.478
18579SOL     OW57633   9.275   9.631   0.306
18579SOL    HW157634   9.329   9.699   0.266
18579SOL    HW257635   9.187   9.668   0.308
18580SOL     OW57636   4.347  11.675   2.597
18580SOL    HW157637   4.441  11.679   2.584
18580SOL    HW257638   4.311  11.649   2.512
18581SOL     OW57639   2.185   6.307   5.785
18581SOL    HW157640   2.188   6.374   5.717
18581SOL    HW257641   2.206   6.353   5.866
18582SOL     OW57642   1.497   4.058   6.190
18582SOL    HW157643   1.502   4.129   6.126
18582SOL    HW257644   1.490   3.979   6.137
18583SOL     OW57645  12.135  10.113  11.837
18583SOL    HW157646  12.119  10.130  11.744
18583SOL    HW257647  12.200  10.178  11.863
18584SOL     OW57648  12.199   5.952   3.338
18584SOL    HW157649  12.285   5.993   3.329
18584SOL    HW257650  12.138   6.016   3.299
18585SOL     OW57651  14.243  14.644   2.299
18585SOL    HW157652  14.216  14.641   2.207
18585SOL    HW257653  14.202  14.723   2.333
18586SOL     OW57654   8.138   0.748  13.423
18586SOL    HW157655   8.104   0.659  13.426
18586SOL    HW257656   8.227   0.740  13.388
18587SOL     OW57657   2.025   8.635   5.104
18587SOL    HW157658   1.938   8.621   5.142
18587SOL    HW257659   2.027   8.578   5.028
18588SOL     OW57660   6.016   4.782   5.636
18588SOL    HW157661   6.071   4.735   5.700
18588SOL    HW257662   5.931   4.738   5.641
18589SOL     OW57663   2.961   8.543  11.886
18589SOL    HW157664   2.884   8.486  11.872
18589SOL    HW257665   2.960   8.562  11.979
18590SOL     OW57666  10.969  11.980   2.116
18590SOL    HW157667  11.026  12.018   2.049
18590SOL    HW257668  11.004  11.892   2.131
18591SOL     OW57669  11.258  14.613  10.405
18591SOL    HW157670  11.327  14.574  10.458
18591SOL    HW257671  11.261  14.564  10.323
18592SOL     OW57672   2.321   8.810  14.446
18592SOL    HW157673   2.317   8.881  14.510
18592SOL    HW257674   2.245   8.754  14.467
18593SOL     OW57675   6.202   6.088  12.817
18593SOL    HW157676   6.130   6.045  12.770
18593SOL    HW257677   6.253   6.131  12.748
18594SOL     OW57678  14.538   3.216   2.975
18594SOL    HW157679  14.465   3.154   2.971
18594SOL    HW257680  14.604   3.172   3.029
18595SOL     OW57681   3.542   7.568  10.658
18595SOL    HW157682   3.569   7.637  10.718
18595SOL    HW257683   3.460   7.535  10.695
18596SOL     OW57684   7.495   8.102   1.464
18596SOL    HW157685   7.511   8.023   1.412
18596SOL    HW257686   7.414   8.083   1.512
18597SOL     OW57687   3.930   4.602  12.116
18597SOL    HW157688   3.840   4.632  12.102
18597SOL    HW257689   3.938   4.524  12.061
18598SOL     OW57690   2.881  11.606   2.775
18598SOL    HW157691   2.830  11.671   2.727
18598SOL    HW257692   2.821  11.534   2.790
18599SOL     OW57693   5.036   5.994   1.846
18599SOL    HW157694   5.014   5.962   1.758
18599SOL    HW257695   4.970   6.060   1.865
18600SOL     OW57696   1.282   6.381  10.430
18600SOL    HW157697   1.206   6.338  10.468
18600SOL    HW257698   1.356   6.328  10.457
18601SOL     OW57699   0.151   9.908   0.383
18601SOL    HW157700   0.069   9.914   0.433
18601SOL    HW257701   0.186   9.821   0.404
18602SOL     OW57702   4.832   7.319   5.236
18602SOL    HW157703   4.849   7.311   5.330
18602SOL    HW257704   4.845   7.412   5.217
18603SOL     OW57705   3.913   1.051   2.273
18603SOL    HW157706   3.912   1.017   2.362
18603SOL    HW257707   3.884   0.978   2.219
18604SOL     OW57708   4.979  12.625   9.344
18604SOL    HW157709   4.981  12.533   9.318
18604SOL    HW257710   5.050  12.634   9.407
18605SOL     OW57711  13.767   5.155   3.165
18605SOL    HW157712  13.811   5.078   3.129
18605SOL    HW257713  13.735   5.127   3.251
18606SOL     OW57714   0.821   3.737   3.212
18606SOL    HW157715   0.832   3.718   3.305
18606SOL    HW257716   0.782   3.825   3.211
18607SOL     OW57717   0.666   7.741   6.233
18607SOL    HW157718   0.580   7.705   6.209
18607SOL    HW257719   0.728   7.691   6.180
18608SOL     OW57720  13.067   6.121   5.657
18608SOL    HW157721  12.988   6.130   5.710
18608SOL    HW257722  13.034   6.104   5.568
18609SOL     OW57723   1.598   9.343   1.905
18609SOL    HW157724   1.676   9.366   1.955
18609SOL    HW257725   1.627   9.274   1.845
18610SOL     OW57726  12.561   3.915   8.478
18610SOL    HW157727  12.500   3.983   8.449
18610SOL    HW257728  12.647   3.949   8.453
18611SOL     OW57729   6.117  10.932   7.547
18611SOL    HW157730   6.100  11.015   7.593
18611SOL    HW257731   6.212  10.927   7.541
18612SOL     OW57732   9.818  13.054  12.779
18612SOL    HW157733   9.823  13.021  12.690
18612SOL    HW257734   9.731  13.030  12.810
18613SOL     OW57735   2.939   0.451   2.101
18613SOL    HW157736   3.030   0.442   2.073
18613SOL    HW257737   2.924   0.546   2.104
18614SOL     OW57738  14.531   7.372  11.590
18614SOL    HW157739  14.442   7.340  11.575
18614SOL    HW257740  14.576   7.355  11.507
18615SOL     OW57741   5.161  12.993   5.831
18615SOL    HW157742   5.088  13.034   5.878
18615SOL    HW257743   5.125  12.973   5.744
18616SOL     OW57744  13.255   2.802   8.694
18616SOL    HW157745  13.323   2.743   8.663
18616SOL    HW257746  13.283   2.827   8.782
18617SOL     OW57747  11.487   6.018   4.558
18617SOL    HW157748  11.563   6.074   4.544
18617SOL    HW257749  11.418   6.078   4.587
18618SOL     OW57750   7.897   5.580   2.810
18618SOL    HW157751   7.940   5.519   2.871
18618SOL    HW257752   7.947   5.661   2.819
18619SOL     OW57753   2.836   4.677   2.167
18619SOL    HW157754   2.859   4.684   2.074
18619SOL    HW257755   2.884   4.748   2.209
18620SOL     OW57756   5.002   7.981   6.196
18620SOL    HW157757   4.942   7.971   6.270
18620SOL    HW257758   5.061   8.052   6.222
18621SOL     OW57759  14.836  10.825   4.079
18621SOL    HW157760  14.770  10.832   4.149
18621SOL    HW257761  14.807  10.888   4.013
18622SOL     OW57762   8.388  10.234   5.983
18622SOL    HW157763   8.467  10.212   5.933
18622SOL    HW257764   8.318  10.187   5.937
18623SOL     OW57765  13.840   4.115  13.910
18623SOL    HW157766  13.843   4.154  13.998
18623SOL    HW257767  13.808   4.186  13.854
18624SOL     OW57768  12.858   5.898  12.964
18624SOL    HW157769  12.902   5.971  13.009
18624SOL    HW257770  12.782   5.880  13.018
18625SOL     OW57771  10.500  11.266  13.171
18625SOL    HW157772  10.404  11.261  13.167
18625SOL    HW257773  10.521  11.348  13.126
18626SOL     OW57774   6.631  11.403  10.097
18626SOL    HW157775   6.631  11.488  10.053
18626SOL    HW257776   6.538  11.378  10.101
18627SOL     OW57777   2.850   5.553   2.985
18627SOL    HW157778   2.802   5.511   3.056
18627SOL    HW257779   2.791   5.548   2.910
18628SOL     OW57780  10.263   3.743   8.941
18628SOL    HW157781  10.199   3.675   8.961
18628SOL    HW257782  10.212   3.816   8.907
18629SOL     OW57783   0.341   3.830   2.595
18629SOL    HW157784   0.254   3.855   2.564
18629SOL    HW257785   0.394   3.823   2.516
18630SOL     OW57786   5.126  14.071  10.279
18630SOL    HW157787   5.096  13.996  10.332
18630SOL    HW257788   5.206  14.040  10.237
18631SOL     OW57789  10.266  14.645  12.752
18631SOL    HW157790  10.187  14.685  12.789
18631SOL    HW257791  10.240  14.556  12.730
18632SOL     OW57792   4.575   2.081  14.191
18632SOL    HW157793   4.660   2.048  14.220
18632SOL    HW257794   4.552   2.027  14.116
18633SOL     OW57795   0.580   3.275   3.012
18633SOL    HW157796   0.555   3.365   3.031
18633SOL    HW257797   0.669   3.282   2.976
18634SOL     OW57798  12.291   8.352   4.490
18634SOL    HW157799  12.206   8.397   4.493
18634SOL    HW257800  12.346   8.402   4.551
18635SOL     OW57801   6.277  14.089   9.201
18635SOL    HW157802   6.327  14.105   9.120
18635SOL    HW257803   6.203  14.034   9.173
18636SOL     OW57804  13.870  11.190   0.996
18636SOL    HW157805  13.843  11.114   0.945
18636SOL    HW257806  13.955  11.166   1.033
18637SOL     OW57807   2.660   5.919  11.760
18637SOL    HW157808   2.611   5.960  11.831
18637SOL    HW257809   2.654   5.982  11.688
18638SOL     OW57810   4.984   3.180  10.705
18638SOL    HW157811   5.060   3.124  10.690
18638SOL    HW257812   4.991   3.248  10.639
18639SOL     OW57813  11.211  10.415   9.840
18639SOL    HW157814  11.211  10.449   9.930
18639SOL    HW257815  11.131  10.451   9.801
18640SOL     OW57816   4.490   1.804   1.745
18640SOL    HW157817   4.479   1.898   1.761
18640SOL    HW257818   4.404   1.774   1.715
18641SOL     OW57819   0.847   7.696  11.985
18641SOL    HW157820   0.842   7.606  11.955
18641SOL    HW257821   0.756   7.720  12.005
18642SOL     OW57822   8.165  12.309  10.147
18642SOL    HW157823   8.252  12.349  10.148
18642SOL    HW257824   8.176  12.227  10.196
18643SOL     OW57825  11.455   9.680   4.974
18643SOL    HW157826  11.482   9.593   5.003
18643SOL    HW257827  11.451   9.674   4.879
18644SOL     OW57828   3.405   3.187   9.538
18644SOL    HW157829   3.401   3.181   9.634
18644SOL    HW257830   3.498   3.195   9.518
18645SOL     OW57831  13.436   6.591  11.037
18645SOL    HW157832  13.354   6.604  11.085
18645SOL    HW257833  13.410   6.595  10.945
18646SOL     OW57834  14.699   1.520   0.582
18646SOL    HW157835  14.723   1.446   0.638
18646SOL    HW257836  14.777   1.575   0.580
18647SOL     OW57837  11.483   7.429   2.045
18647SOL    HW157838  11.563   7.389   2.080
18647SOL    HW257839  11.442   7.471   2.120
18648SOL     OW57840   7.437   5.416   2.340
18648SOL    HW157841   7.507   5.368   2.384
18648SOL    HW257842   7.371   5.428   2.409
18649SOL     OW57843  10.481   0.787  11.435
18649SOL    HW157844  10.510   0.831  11.515
18649SOL    HW257845  10.561   0.767  11.388
18650SOL     OW57846   9.159   9.137   7.688
18650SOL    HW157847   9.112   9.068   7.642
18650SOL    HW257848   9.213   9.179   7.620
18651SOL     OW57849   3.918   3.565   1.743
18651SOL    HW157850   3.875   3.608   1.669
18651SOL    HW257851   3.851   3.506   1.778
18652SOL     OW57852   4.303   6.040  14.217
18652SOL    HW157853   4.304   6.121  14.267
18652SOL    HW257854   4.264   5.976  14.276
18653SOL     OW57855   6.828   1.680   0.728
18653SOL    HW157856   6.827   1.603   0.671
18653SOL    HW257857   6.899   1.663   0.790
18654SOL     OW57858   8.189   8.248  12.494
18654SOL    HW157859   8.115   8.272  12.549
18654SOL    HW257860   8.266   8.281  12.540
18655SOL     OW57861  12.714  11.762   5.249
18655SOL    HW157862  12.689  11.796   5.163
18655SOL    HW257863  12.790  11.706   5.232
18656SOL     OW57864   5.096   8.987   6.163
18656SOL    HW157865   5.134   9.028   6.086
18656SOL    HW257866   5.023   8.936   6.130
18657SOL     OW57867   9.482  14.017  12.660
18657SOL    HW157868   9.484  14.111  12.676
18657SOL    HW257869   9.569  13.987  12.686
18658SOL     OW57870   3.072   3.509   1.796
18658SOL    HW157871   3.159   3.547   1.795
18658SOL    HW257872   3.018   3.571   1.747
18659SOL     OW57873   0.301   2.439  12.592
18659SOL    HW157874   0.308   2.528  12.628
18659SOL    HW257875   0.386   2.423  12.552
18660SOL     OW57876   9.149   1.249   5.939
18660SOL    HW157877   9.242   1.247   5.915
18660SOL    HW257878   9.148   1.235   6.033
18661SOL     OW57879  10.522  11.665   6.650
18661SOL    HW157880  10.519  11.761   6.643
18661SOL    HW257881  10.537  11.635   6.560
18662SOL     OW57882   5.316  14.684  10.453
18662SOL    HW157883   5.320  14.590  10.473
18662SOL    HW257884   5.397  14.703  10.407
18663SOL     OW57885   7.984   1.704  11.327
18663SOL    HW157886   7.958   1.614  11.307
18663SOL    HW257887   8.057   1.695  11.389
18664SOL     OW57888  12.829  13.051   4.635
18664SOL    HW157889  12.824  13.118   4.704
18664SOL    HW257890  12.878  12.979   4.676
18665SOL     OW57891  14.860   0.718   3.326
18665SOL    HW157892   0.066   0.661   3.340
18665SOL    HW257893  14.796   0.689   3.390
18666SOL     OW57894  10.976  14.372   8.494
18666SOL    HW157895  10.997  14.356   8.586
18666SOL    HW257896  10.957  14.285   8.458
18667SOL     OW57897   7.144   7.295  10.883
18667SOL    HW157898   7.095   7.373  10.909
18667SOL    HW257899   7.088   7.250  10.820
18668SOL     OW57900   3.436  13.100   4.446
18668SOL    HW157901   3.451  13.195   4.453
18668SOL    HW257902   3.417  13.072   4.536
18669SOL     OW57903  13.033   2.266   1.916
18669SOL    HW157904  12.961   2.208   1.890
18669SOL    HW257905  13.111   2.210   1.910
18670SOL     OW57906   9.035  10.531   2.297
18670SOL    HW157907   9.054  10.473   2.223
18670SOL    HW257908   8.945  10.511   2.320
18671SOL     OW57909  10.238   6.520   3.628
18671SOL    HW157910  10.159   6.528   3.574
18671SOL    HW257911  10.240   6.600   3.680
18672SOL     OW57912   6.041   8.699   9.514
18672SOL    HW157913   6.129   8.686   9.550
18672SOL    HW257914   5.997   8.757   9.576
18673SOL     OW57915  12.113   1.526   6.165
18673SOL    HW157916  12.051   1.560   6.101
18673SOL    HW257917  12.195   1.516   6.117
18674SOL     OW57918   3.176   9.273   6.151
18674SOL    HW157919   3.251   9.299   6.096
18674SOL    HW257920   3.164   9.180   6.131
18675SOL     OW57921   3.007   1.046   1.648
18675SOL    HW157922   3.056   0.985   1.592
18675SOL    HW257923   3.029   1.133   1.613
18676SOL     OW57924  14.711  14.658   5.441
18676SOL    HW157925  14.710  14.630   5.533
18676SOL    HW257926  14.797  14.632   5.409
18677SOL     OW57927  11.345   4.207  14.419
18677SOL    HW157928  11.334   4.277  14.355
18677SOL    HW257929  11.326   4.127  14.371
18678SOL     OW57930   0.391   7.939  11.993
18678SOL    HW157931   0.305   7.937  12.035
18678SOL    HW257932   0.437   8.011  12.037
18679SOL     OW57933  13.386   6.306   1.352
18679SOL    HW157934  13.433   6.385   1.381
18679SOL    HW257935  13.297   6.317   1.385
18680SOL     OW57936   8.519   5.492  10.917
18680SOL    HW157937   8.585   5.423  10.905
18680SOL    HW257938   8.568   5.565  10.954
18681SOL     OW57939  10.105   2.798   9.745
18681SOL    HW157940  10.121   2.812   9.838
18681SOL    HW257941  10.010   2.803   9.736
18682SOL     OW57942   7.697   4.224   8.353
18682SOL    HW157943   7.629   4.290   8.341
18682SOL    HW257944   7.737   4.215   8.266
18683SOL     OW57945   6.346   0.491   8.749
18683SOL    HW157946   6.403   0.545   8.694
18683SOL    HW257947   6.394   0.482   8.831
18684SOL     OW57948  14.171   1.134   2.128
18684SOL    HW157949  14.229   1.058   2.132
18684SOL    HW257950  14.185   1.179   2.212
18685SOL     OW57951  11.666   0.488   8.240
18685SOL    HW157952  11.624   0.565   8.279
18685SOL    HW257953  11.595   0.426   8.226
18686SOL     OW57954  12.947  13.191  14.629
18686SOL    HW157955  12.987  13.154  14.551
18686SOL    HW257956  12.857  13.156  14.629
18687SOL     OW57957   9.036   1.681  12.751
18687SOL    HW157958   9.054   1.653  12.661
18687SOL    HW257959   9.081   1.765  12.760
18688SOL     OW57960   1.679  12.098   4.935
18688SOL    HW157961   1.670  12.192   4.949
18688SOL    HW257962   1.622  12.058   5.001
18689SOL     OW57963   0.640  14.640  11.738
18689SOL    HW157964   0.575  14.626  11.670
18689SOL    HW257965   0.624  14.730  11.768
18690SOL     OW57966   8.108  10.261   3.044
18690SOL    HW157967   8.153  10.344   3.055
18690SOL    HW257968   8.160  10.198   3.095
18691SOL     OW57969   7.599   4.384   6.811
18691SOL    HW157970   7.693   4.367   6.820
18691SOL    HW257971   7.563   4.367   6.898
18692SOL     OW57972   8.665   5.216  14.773
18692SOL    HW157973   8.571   5.222  14.758
18692SOL    HW257974   8.673   5.182  14.862
18693SOL     OW57975   5.115   0.788   0.334
18693SOL    HW157976   5.061   0.842   0.391
18693SOL    HW257977   5.090   0.698   0.355
18694SOL     OW57978  12.682  13.557   1.122
18694SOL    HW157979  12.766  13.568   1.078
18694SOL    HW257980  12.631  13.503   1.062
18695SOL     OW57981   3.302   4.391   3.743
18695SOL    HW157982   3.262   4.478   3.748
18695SOL    HW257983   3.274   4.357   3.658
18696SOL     OW57984   3.668   2.375   3.783
18696SOL    HW157985   3.672   2.400   3.690
18696SOL    HW257986   3.694   2.454   3.830
18697SOL     OW57987   8.576   9.953  11.772
18697SOL    HW157988   8.586   9.978  11.864
18697SOL    HW257989   8.540   9.864  11.775
18698SOL     OW57990  11.104  11.857   6.759
18698SOL    HW157991  11.053  11.830   6.682
18698SOL    HW257992  11.180  11.901   6.723
18699SOL     OW57993  10.220   6.865   8.823
18699SOL    HW157994  10.253   6.779   8.847
18699SOL    HW257995  10.171   6.850   8.741
18700SOL     OW57996   8.876   4.338   7.799
18700SOL    HW157997   8.825   4.268   7.760
18700SOL    HW257998   8.842   4.345   7.889
18701SOL     OW57999   5.725   7.254   7.985
18701SOL    HW158000   5.673   7.306   7.924
18701SOL    HW258001   5.742   7.312   8.059
18702SOL     OW58002   9.505   2.290   7.538
18702SOL    HW158003   9.411   2.311   7.532
18702SOL    HW258004   9.532   2.326   7.622
18703SOL     OW58005  12.908   2.904  10.827
18703SOL    HW158006  12.904   2.809  10.836
18703SOL    HW258007  12.888   2.919  10.734
18704SOL     OW58008   7.296   5.185   7.504
18704SOL    HW158009   7.379   5.199   7.551
18704SOL    HW258010   7.249   5.268   7.514
18705SOL     OW58011  14.444   1.388  14.772
18705SOL    HW158012  14.470   1.478  14.753
18705SOL    HW258013  14.520   1.350  14.816
18706SOL     OW58014   7.771  13.439  12.105
18706SOL    HW158015   7.697  13.384  12.131
18706SOL    HW258016   7.806  13.474  12.187
18707SOL     OW58017   5.558   3.754   8.123
18707SOL    HW158018   5.540   3.738   8.215
18707SOL    HW258019   5.492   3.702   8.076
18708SOL     OW58020  13.023   3.911   0.823
18708SOL    HW158021  13.068   3.991   0.851
18708SOL    HW258022  13.094   3.853   0.795
18709SOL     OW58023  14.673   5.055   4.227
18709SOL    HW158024  14.714   5.072   4.312
18709SOL    HW258025  14.593   5.107   4.228
18710SOL     OW58026   1.284   4.210   0.963
18710SOL    HW158027   1.368   4.235   0.926
18710SOL    HW258028   1.229   4.191   0.887
18711SOL     OW58029   3.162   8.085   8.824
18711SOL    HW158030   3.185   8.143   8.751
18711SOL    HW258031   3.244   8.068   8.869
18712SOL     OW58032   4.126   9.280  11.185
18712SOL    HW158033   4.095   9.327  11.108
18712SOL    HW258034   4.156   9.349  11.245
18713SOL     OW58035   5.744   0.891   6.097
18713SOL    HW158036   5.665   0.893   6.043
18713SOL    HW258037   5.711   0.894   6.187
18714SOL     OW58038   7.493   7.760  10.502
18714SOL    HW158039   7.579   7.752  10.459
18714SOL    HW258040   7.504   7.714  10.585
18715SOL     OW58041  10.368   3.076   5.968
18715SOL    HW158042  10.287   3.079   5.917
18715SOL    HW258043  10.340   3.081   6.059
18716SOL     OW58044   0.995   7.768  12.205
18716SOL    HW158045   1.042   7.687  12.224
18716SOL    HW258046   0.954   7.753  12.120
18717SOL     OW58047  10.452   9.456   8.611
18717SOL    HW158048  10.360   9.431   8.601
18717SOL    HW258049  10.455   9.502   8.695
18718SOL     OW58050   5.994   4.946   6.604
18718SOL    HW158051   5.911   4.965   6.560
18718SOL    HW258052   5.987   4.988   6.689
18719SOL     OW58053  13.813  13.150   7.192
18719SOL    HW158054  13.819  13.246   7.186
18719SOL    HW258055  13.904  13.121   7.197
18720SOL     OW58056   5.472   6.137  12.239
18720SOL    HW158057   5.460   6.117  12.146
18720SOL    HW258058   5.538   6.074  12.268
18721SOL     OW58059  13.818  12.286  12.602
18721SOL    HW158060  13.877  12.231  12.552
18721SOL    HW258061  13.799  12.236  12.681
18722SOL     OW58062   1.131   5.141  12.961
18722SOL    HW158063   1.225   5.152  12.953
18722SOL    HW258064   1.095   5.191  12.888
18723SOL     OW58065   1.050   7.292   6.680
18723SOL    HW158066   1.016   7.224   6.737
18723SOL    HW258067   0.980   7.357   6.674
18724SOL     OW58068   5.070   1.985   6.035
18724SOL    HW158069   5.124   2.049   5.987
18724SOL    HW258070   4.989   2.033   6.056
18725SOL     OW58071  12.871   4.135   7.690
18725SOL    HW158072  12.943   4.178   7.737
18725SOL    HW258073  12.811   4.207   7.668
18726SOL     OW58074   6.076   1.404   7.635
18726SOL    HW158075   6.134   1.331   7.658
18726SOL    HW258076   6.024   1.371   7.562
18727SOL     OW58077   2.573   1.679   0.246
18727SOL    HW158078   2.609   1.591   0.236
18727SOL    HW258079   2.647   1.732   0.274
18728SOL     OW58080   4.308  13.479  10.193
18728SOL    HW158081   4.280  13.516  10.109
18728SOL    HW258082   4.399  13.509  10.203
18729SOL     OW58083   7.119  11.815  11.901
18729SOL    HW158084   7.174  11.746  11.937
18729SOL    HW258085   7.029  11.787  11.921
18730SOL     OW58086   0.334   5.499   8.067
18730SOL    HW158087   0.424   5.501   8.035
18730SOL    HW258088   0.342   5.519   8.160
18731SOL     OW58089   0.844   4.964   4.419
18731SOL    HW158090   0.846   4.874   4.387
18731SOL    HW258091   0.757   4.973   4.458
18732SOL     OW58092   8.983   9.318  13.062
18732SOL    HW158093   8.957   9.339  12.973
18732SOL    HW258094   9.064   9.268  13.053
18733SOL     OW58095   2.800   3.859  12.787
18733SOL    HW158096   2.733   3.924  12.766
18733SOL    HW258097   2.801   3.800  12.712
18734SOL     OW58098  14.257   8.305  13.611
18734SOL    HW158099  14.237   8.331  13.701
18734SOL    HW258100  14.185   8.247  13.586
18735SOL     OW58101   1.792   3.755   5.947
18735SOL    HW158102   1.743   3.707   6.013
18735SOL    HW258103   1.727   3.781   5.882
18736SOL     OW58104  13.726  13.488   0.319
18736SOL    HW158105  13.636  13.516   0.333
18736SOL    HW258106  13.718  13.401   0.280
18737SOL     OW58107  12.712   8.724   6.729
18737SOL    HW158108  12.642   8.728   6.793
18737SOL    HW258109  12.678   8.667   6.660
18738SOL     OW58110   5.399   8.933  10.627
18738SOL    HW158111   5.361   9.017  10.600
18738SOL    HW258112   5.441   8.899  10.548
18739SOL     OW58113   7.536  10.262   7.467
18739SOL    HW158114   7.551  10.194   7.401
18739SOL    HW258115   7.489  10.216   7.537
18740SOL     OW58116   3.428  11.943   2.019
18740SOL    HW158117   3.473  11.991   1.950
18740SOL    HW258118   3.439  11.996   2.097
18741SOL     OW58119  12.200  14.853   6.579
18741SOL    HW158120  12.188   0.056   6.640
18741SOL    HW258121  12.220  14.777   6.635
18742SOL     OW58122   4.965   0.094   5.132
18742SOL    HW158123   4.915   0.020   5.167
18742SOL    HW258124   4.899   0.155   5.099
18743SOL     OW58125   6.687   0.675  10.201
18743SOL    HW158126   6.656   0.716  10.281
18743SOL    HW258127   6.670   0.582  10.213
18744SOL     OW58128  11.461   1.233  11.035
18744SOL    HW158129  11.445   1.259  10.944
18744SOL    HW258130  11.380   1.190  11.062
18745SOL     OW58131  11.775  11.411   9.269
18745SOL    HW158132  11.787  11.397   9.175
18745SOL    HW258133  11.834  11.349   9.310
18746SOL     OW58134   6.059   9.866   1.407
18746SOL    HW158135   6.004   9.791   1.384
18746SOL    HW258136   6.149   9.835   1.391
18747SOL     OW58137   5.118   2.280   6.618
18747SOL    HW158138   5.031   2.311   6.593
18747SOL    HW258139   5.106   2.243   6.705
18748SOL     OW58140  11.604   2.087   9.623
18748SOL    HW158141  11.548   2.143   9.570
18748SOL    HW258142  11.544   2.044   9.684
18749SOL     OW58143   1.659  14.314  14.637
18749SOL    HW158144   1.718  14.276  14.703
18749SOL    HW258145   1.643  14.242  14.576
18750SOL     OW58146  14.093  13.147   2.622
18750SOL    HW158147  14.160  13.124   2.557
18750SOL    HW258148  14.143  13.169   2.701
18751SOL     OW58149   0.037  14.365   1.736
18751SOL    HW158150   0.113  14.376   1.794
18751SOL    HW258151  14.861  14.289   1.771
18752SOL     OW58152  10.262  14.440   5.378
18752SOL    HW158153  10.294  14.490   5.453
18752SOL    HW258154  10.285  14.495   5.302
18753SOL     OW58155  12.928  14.793   8.174
18753SOL    HW158156  12.917   0.004   8.223
18753SOL    HW258157  13.008  14.754   8.209
18754SOL     OW58158  12.224   2.706   0.411
18754SOL    HW158159  12.278   2.660   0.475
18754SOL    HW258160  12.281   2.717   0.335
18755SOL     OW58161  14.232   0.951  14.612
18755SOL    HW158162  14.287   1.000  14.673
18755SOL    HW258163  14.216   1.012  14.539
18756SOL     OW58164   2.406   3.231   0.330
18756SOL    HW158165   2.357   3.202   0.253
18756SOL    HW258166   2.411   3.154   0.386
18757SOL     OW58167   3.504  10.010  10.594
18757SOL    HW158168   3.573   9.994  10.530
18757SOL    HW258169   3.537   9.970  10.675
18758SOL     OW58170  12.324  13.999   2.074
18758SOL    HW158171  12.408  13.994   2.120
18758SOL    HW258172  12.321  14.087   2.037
18759SOL     OW58173   2.173  10.578   4.299
18759SOL    HW158174   2.138  10.490   4.285
18759SOL    HW258175   2.106  10.622   4.351
18760SOL     OW58176  10.227   8.975   1.661
18760SOL    HW158177  10.222   9.034   1.586
18760SOL    HW258178  10.150   8.919   1.653
18761SOL     OW58179   4.155   8.604  12.243
18761SOL    HW158180   4.150   8.693  12.207
18761SOL    HW258181   4.179   8.616  12.334
18762SOL     OW58182   9.381  11.666  13.600
18762SOL    HW158183   9.367  11.687  13.507
18762SOL    HW258184   9.326  11.729  13.647
18763SOL     OW58185   1.933   2.524  10.444
18763SOL    HW158186   1.955   2.440  10.484
18763SOL    HW258187   1.867   2.502  10.378
18764SOL     OW58188  10.302   5.924   9.773
18764SOL    HW158189  10.213   5.957   9.764
18764SOL    HW258190  10.296   5.854   9.838
18765SOL     OW58191   4.660   6.110   6.603
18765SOL    HW158192   4.721   6.087   6.673
18765SOL    HW258193   4.702   6.182   6.556
18766SOL     OW58194   2.356   3.569  13.309
18766SOL    HW158195   2.326   3.579  13.219
18766SOL    HW258196   2.438   3.619  13.313
18767SOL     OW58197  12.720  10.867   3.342
18767SOL    HW158198  12.627  10.876   3.361
18767SOL    HW258199  12.724  10.854   3.247
18768SOL     OW58200   2.134   5.361   5.245
18768SOL    HW158201   2.138   5.430   5.179
18768SOL    HW258202   2.183   5.288   5.207
18769SOL     OW58203   1.057   7.554   2.148
18769SOL    HW158204   0.993   7.484   2.156
18769SOL    HW258205   1.087   7.569   2.238
18770SOL     OW58206  10.686   4.818   2.206
18770SOL    HW158207  10.671   4.741   2.260
18770SOL    HW258208  10.625   4.809   2.133
18771SOL     OW58209   7.012   3.606   8.768
18771SOL    HW158210   7.004   3.510   8.766
18771SOL    HW258211   6.979   3.634   8.682
18772SOL     OW58212   8.481  12.463   1.698
18772SOL    HW158213   8.463  12.458   1.604
18772SOL    HW258214   8.527  12.546   1.710
18773SOL     OW58215  13.465  13.001   4.899
18773SOL    HW158216  13.515  12.985   4.979
18773SOL    HW258217  13.435  13.092   4.908
18774SOL     OW58218  12.939  13.162   0.819
18774SOL    HW158219  12.850  13.169   0.853
18774SOL    HW258220  12.953  13.069   0.806
18775SOL     OW58221   9.224   7.766   7.331
18775SOL    HW158222   9.221   7.691   7.391
18775SOL    HW258223   9.282   7.738   7.260
18776SOL     OW58224   6.478  10.520   1.941
18776SOL    HW158225   6.494  10.429   1.913
18776SOL    HW258226   6.416  10.513   2.013
18777SOL     OW58227  13.864   3.801  11.772
18777SOL    HW158228  13.796   3.852  11.728
18777SOL    HW258229  13.824   3.774  11.855
18778SOL     OW58230   4.926  13.092   4.416
18778SOL    HW158231   4.884  13.071   4.332
18778SOL    HW258232   4.966  13.178   4.402
18779SOL     OW58233  11.474   8.674   7.165
18779SOL    HW158234  11.505   8.675   7.075
18779SOL    HW258235  11.379   8.665   7.157
18780SOL     OW58236   9.854   7.151   6.323
18780SOL    HW158237   9.762   7.131   6.309
18780SOL    HW258238   9.855   7.246   6.340
18781SOL     OW58239   3.700   0.804   0.334
18781SOL    HW158240   3.737   0.720   0.361
18781SOL    HW258241   3.755   0.832   0.261
18782SOL     OW58242   2.410   5.929  14.300
18782SOL    HW158243   2.463   5.885  14.234
18782SOL    HW258244   2.319   5.906  14.277
18783SOL     OW58245   3.255   4.007  11.655
18783SOL    HW158246   3.212   4.071  11.597
18783SOL    HW258247   3.302   4.061  11.719
18784SOL     OW58248   2.277  11.525   8.760
18784SOL    HW158249   2.259  11.587   8.690
18784SOL    HW258250   2.265  11.439   8.720
18785SOL     OW58251   8.409  14.651  12.014
18785SOL    HW158252   8.452  14.582  12.064
18785SOL    HW258253   8.321  14.618  11.999
18786SOL     OW58254   0.556   9.276   5.276
18786SOL    HW158255   0.479   9.239   5.318
18786SOL    HW258256   0.520   9.333   5.207
18787SOL     OW58257   8.910   2.096   2.330
18787SOL    HW158258   8.838   2.136   2.281
18787SOL    HW258259   8.894   2.121   2.421
18788SOL     OW58260   2.040   0.417   7.832
18788SOL    HW158261   1.994   0.348   7.784
18788SOL    HW258262   1.975   0.449   7.894
18789SOL     OW58263   9.567   2.424  12.280
18789SOL    HW158264   9.487   2.477  12.289
18789SOL    HW258265   9.544   2.340  12.319
18790SOL     OW58266   9.220  14.078   7.933
18790SOL    HW158267   9.299  14.026   7.949
18790SOL    HW258268   9.252  14.168   7.922
18791SOL     OW58269  11.339   4.087   4.057
18791SOL    HW158270  11.408   4.100   4.123
18791SOL    HW258271  11.261   4.125   4.097
18792SOL     OW58272   6.839   7.874  13.572
18792SOL    HW158273   6.800   7.795  13.536
18792SOL    HW258274   6.839   7.936  13.499
18793SOL     OW58275   8.256   7.253  12.187
18793SOL    HW158276   8.235   7.342  12.159
18793SOL    HW258277   8.186   7.199  12.150
18794SOL     OW58278   8.770   1.894   4.273
18794SOL    HW158279   8.768   1.912   4.367
18794SOL    HW258280   8.830   1.819   4.264
18795SOL     OW58281   6.498   9.637   3.237
18795SOL    HW158282   6.439   9.673   3.171
18795SOL    HW258283   6.539   9.561   3.195
18796SOL     OW58284   7.462  10.105   2.759
18796SOL    HW158285   7.379  10.112   2.711
18796SOL    HW258286   7.460  10.017   2.797
18797SOL     OW58287   0.379   2.039   3.613
18797SOL    HW158288   0.358   2.105   3.548
18797SOL    HW258289   0.297   1.991   3.627
18798SOL     OW58290   5.968   0.225   1.401
18798SOL    HW158291   6.021   0.279   1.343
18798SOL    HW258292   5.975   0.136   1.367
18799SOL     OW58293   8.677   2.607   1.975
18799SOL    HW158294   8.734   2.652   1.913
18799SOL    HW258295   8.689   2.514   1.955
18800SOL     OW58296   9.494  10.416   5.421
18800SOL    HW158297   9.559  10.464   5.370
18800SOL    HW258298   9.485  10.467   5.502
18801SOL     OW58299   8.314   7.706   3.498
18801SOL    HW158300   8.264   7.782   3.468
18801SOL    HW258301   8.262   7.631   3.471
18802SOL     OW58302   7.680  10.330   6.427
18802SOL    HW158303   7.652  10.327   6.519
18802SOL    HW258304   7.767  10.370   6.430
18803SOL     OW58305   6.915  12.996  12.931
18803SOL    HW158306   6.994  12.981  12.983
18803SOL    HW258307   6.844  12.957  12.982
18804SOL     OW58308   8.183  14.330   1.315
18804SOL    HW158309   8.196  14.273   1.239
18804SOL    HW258310   8.115  14.287   1.366
18805SOL     OW58311   4.621   1.046  11.776
18805SOL    HW158312   4.540   1.027  11.823
18805SOL    HW258313   4.685   0.985  11.812
18806SOL     OW58314   2.941   6.489  14.302
18806SOL    HW158315   2.919   6.467  14.211
18806SOL    HW258316   2.856   6.502  14.344
18807SOL     OW58317  12.534   9.529   9.651
18807SOL    HW158318  12.548   9.435   9.659
18807SOL    HW258319  12.535   9.546   9.557
18808SOL     OW58320   6.385   1.366   3.018
18808SOL    HW158321   6.383   1.426   2.943
18808SOL    HW258322   6.297   1.372   3.056
18809SOL     OW58323   3.027   8.326   9.056
18809SOL    HW158324   3.117   8.308   9.031
18809SOL    HW258325   3.010   8.415   9.024
18810SOL     OW58326  14.272   2.989   1.980
18810SOL    HW158327  14.248   2.900   2.007
18810SOL    HW258328  14.206   3.045   2.021
18811SOL     OW58329   7.827   7.169  14.174
18811SOL    HW158330   7.850   7.191  14.264
18811SOL    HW258331   7.893   7.104  14.148
18812SOL     OW58332   6.749   8.087   5.129
18812SOL    HW158333   6.758   7.997   5.162
18812SOL    HW258334   6.712   8.076   5.041
18813SOL     OW58335   6.152   2.231   2.400
18813SOL    HW158336   6.083   2.262   2.458
18813SOL    HW258337   6.198   2.164   2.451
18814SOL     OW58338   8.249   2.472  10.220
18814SOL    HW158339   8.228   2.498  10.310
18814SOL    HW258340   8.166   2.442  10.184
18815SOL     OW58341   8.318   3.325   9.522
18815SOL    HW158342   8.400   3.281   9.500
18815SOL    HW258343   8.253   3.284   9.464
18816SOL     OW58344   1.357   2.998   0.446
18816SOL    HW158345   1.429   3.044   0.404
18816SOL    HW258346   1.350   3.038   0.532
18817SOL     OW58347   8.316   2.935   0.153
18817SOL    HW158348   8.232   2.917   0.110
18817SOL    HW258349   8.342   2.851   0.190
18818SOL     OW58350   5.498   8.045  11.488
18818SOL    HW158351   5.519   7.952  11.474
18818SOL    HW258352   5.404   8.046  11.506
18819SOL     OW58353   3.986   7.398   7.934
18819SOL    HW158354   3.963   7.444   8.015
18819SOL    HW258355   4.070   7.436   7.909
18820SOL     OW58356  14.738  14.492  12.515
18820SOL    HW158357  14.683  14.568  12.497
18820SOL    HW258358  14.758  14.455  12.429
18821SOL     OW58359  14.830   9.432   4.289
18821SOL    HW158360  14.854   9.413   4.380
18821SOL    HW258361  14.841   9.527   4.281
18822SOL     OW58362   6.451  13.012   3.366
18822SOL    HW158363   6.540  12.984   3.385
18822SOL    HW258364   6.427  12.964   3.286
18823SOL     OW58365  10.512   8.257   3.386
18823SOL    HW158366  10.557   8.333   3.423
18823SOL    HW258367  10.427   8.254   3.431
18824SOL     OW58368   2.611   4.487  11.088
18824SOL    HW158369   2.658   4.568  11.065
18824SOL    HW258370   2.616   4.484  11.183
18825SOL     OW58371   1.793   5.766   7.391
18825SOL    HW158372   1.878   5.759   7.348
18825SOL    HW258373   1.809   5.821   7.468
18826SOL     OW58374   1.071  11.948  13.197
18826SOL    HW158375   1.140  11.890  13.230
18826SOL    HW258376   1.088  11.954  13.103
18827SOL     OW58377   6.516   0.902  11.459
18827SOL    HW158378   6.488   0.885  11.369
18827SOL    HW258379   6.507   0.997  11.469
18828SOL     OW58380  12.921   6.115   5.386
18828SOL    HW158381  12.874   6.199   5.385
18828SOL    HW258382  12.991   6.127   5.321
18829SOL     OW58383   8.377   5.128   8.761
18829SOL    HW158384   8.284   5.123   8.784
18829SOL    HW258385   8.411   5.200   8.814
18830SOL     OW58386  11.411  11.980   0.402
18830SOL    HW158387  11.452  11.939   0.326
18830SOL    HW258388  11.453  12.065   0.410
18831SOL     OW58389  14.500  14.557   3.420
18831SOL    HW158390  14.527  14.552   3.512
18831SOL    HW258391  14.478  14.649   3.406
18832SOL     OW58392   9.902   4.590  14.785
18832SOL    HW158393   9.861   4.507  14.761
18832SOL    HW258394   9.990   4.585  14.747
18833SOL     OW58395   0.916   9.534   7.308
18833SOL    HW158396   0.934   9.625   7.281
18833SOL    HW258397   1.003   9.494   7.316
18834SOL     OW58398   1.971   6.087   6.368
18834SOL    HW158399   1.939   6.129   6.448
18834SOL    HW258400   2.008   6.159   6.316
18835SOL     OW58401   7.054  11.257  12.135
18835SOL    HW158402   7.001  11.311  12.194
18835SOL    HW258403   6.998  11.182  12.115
18836SOL     OW58404  14.421   5.070   9.114
18836SOL    HW158405  14.402   5.060   9.207
18836SOL    HW258406  14.476   4.994   9.092
18837SOL     OW58407  12.725   7.077   2.092
18837SOL    HW158408  12.808   7.040   2.124
18837SOL    HW258409  12.662   7.005   2.098
18838SOL     OW58410   5.352  14.279  14.527
18838SOL    HW158411   5.293  14.203  14.530
18838SOL    HW258412   5.395  14.272  14.442
18839SOL     OW58413   2.914   4.806   7.273
18839SOL    HW158414   2.999   4.771   7.244
18839SOL    HW258415   2.853   4.780   7.203
18840SOL     OW58416   6.916   6.099   3.983
18840SOL    HW158417   6.957   6.123   4.065
18840SOL    HW258418   6.950   6.162   3.919
18841SOL     OW58419   4.044   9.851  12.666
18841SOL    HW158420   4.049   9.756  12.667
18841SOL    HW258421   4.076   9.876  12.580
18842SOL     OW58422   0.761   3.936   5.261
18842SOL    HW158423   0.670   3.905   5.266
18842SOL    HW258424   0.753   4.031   5.249
18843SOL     OW58425   7.020  12.161  11.054
18843SOL    HW158426   7.090  12.108  11.091
18843SOL    HW258427   6.952  12.097  11.029
18844SOL     OW58428  11.666  10.322  11.736
18844SOL    HW158429  11.595  10.288  11.791
18844SOL    HW258430  11.622  10.358  11.659
18845SOL     OW58431  13.369   8.355  13.785
18845SOL    HW158432  13.299   8.401  13.738
18845SOL    HW258433  13.324   8.284  13.830
18846SOL     OW58434   0.372   9.010   3.951
18846SOL    HW158435   0.440   9.078   3.956
18846SOL    HW258436   0.305   9.049   3.895
18847SOL     OW58437   3.552   7.098   9.908
18847SOL    HW158438   3.604   7.178   9.909
18847SOL    HW258439   3.603   7.038   9.854
18848SOL     OW58440  10.173  13.273   2.227
18848SOL    HW158441  10.251  13.228   2.195
18848SOL    HW258442  10.103  13.208   2.221
18849SOL     OW58443   5.366  11.929   5.788
18849SOL    HW158444   5.312  11.907   5.864
18849SOL    HW258445   5.380  12.023   5.795
18850SOL     OW58446   1.205   1.562  12.151
18850SOL    HW158447   1.182   1.512  12.073
18850SOL    HW258448   1.290   1.527  12.177
18851SOL     OW58449   4.674   1.633  13.494
18851SOL    HW158450   4.757   1.652  13.538
18851SOL    HW258451   4.671   1.538  13.489
18852SOL     OW58452  10.073   9.005  11.301
18852SOL    HW158453  10.068   9.028  11.208
18852SOL    HW258454  10.007   8.936  11.311
18853SOL     OW58455   3.113   6.424  11.418
18853SOL    HW158456   3.177   6.411  11.488
18853SOL    HW258457   3.166   6.448  11.342
18854SOL     OW58458   4.417   8.805   2.481
18854SOL    HW158459   4.358   8.752   2.427
18854SOL    HW258460   4.414   8.892   2.441
18855SOL     OW58461   9.944   3.532  12.055
18855SOL    HW158462  10.010   3.550  12.121
18855SOL    HW258463   9.861   3.531  12.103
18856SOL     OW58464   8.426   9.229   8.561
18856SOL    HW158465   8.469   9.209   8.644
18856SOL    HW258466   8.490   9.281   8.512
18857SOL     OW58467   0.079   2.819  11.245
18857SOL    HW158468  14.854   2.804  11.246
18857SOL    HW258469   0.099   2.854  11.332
18858SOL     OW58470   0.109   7.002  13.212
18858SOL    HW158471   0.176   6.992  13.279
18858SOL    HW258472   0.148   7.060  13.146
18859SOL     OW58473   8.370   7.625   4.113
18859SOL    HW158474   8.381   7.552   4.051
18859SOL    HW258475   8.420   7.697   4.074
18860SOL     OW58476  13.175   0.545   3.080
18860SOL    HW158477  13.249   0.484   3.077
18860SOL    HW258478  13.106   0.498   3.126
18861SOL     OW58479   0.292   1.535   8.978
18861SOL    HW158480   0.226   1.532   8.908
18861SOL    HW258481   0.351   1.605   8.951
18862SOL     OW58482   1.765   5.729  14.075
18862SOL    HW158483   1.671   5.725  14.054
18862SOL    HW258484   1.768   5.742  14.169
18863SOL     OW58485  10.928  13.161  14.377
18863SOL    HW158486  11.010  13.118  14.352
18863SOL    HW258487  10.943  13.191  14.467
18864SOL     OW58488   9.964   3.773   4.392
18864SOL    HW158489   9.911   3.852   4.406
18864SOL    HW258490   9.906   3.713   4.346
18865SOL     OW58491   2.699   8.995  11.425
18865SOL    HW158492   2.774   8.969  11.478
18865SOL    HW258493   2.650   9.054  11.482
18866SOL     OW58494  11.201  12.768   2.142
18866SOL    HW158495  11.178  12.821   2.066
18866SOL    HW258496  11.281  12.808   2.175
18867SOL     OW58497  10.570   1.832   3.467
18867SOL    HW158498  10.582   1.760   3.529
18867SOL    HW258499  10.597   1.910   3.516
18868SOL     OW58500   0.090   2.866   1.266
18868SOL    HW158501   0.110   2.774   1.285
18868SOL    HW258502   0.086   2.870   1.170
18869SOL     OW58503   4.459   5.662   6.814
18869SOL    HW158504   4.423   5.679   6.726
18869SOL    HW258505   4.546   5.625   6.797
18870SOL     OW58506  11.071  14.321   2.172
18870SOL    HW158507  11.085  14.375   2.250
18870SOL    HW258508  10.995  14.360   2.129
18871SOL     OW58509  14.657   1.286  13.865
18871SOL    HW158510  14.575   1.261  13.823
18871SOL    HW258511  14.655   1.242  13.950
18872SOL     OW58512   2.597   9.730   0.898
18872SOL    HW158513   2.676   9.740   0.846
18872SOL    HW258514   2.592   9.809   0.951
18873SOL     OW58515   4.746  12.716   3.053
18873SOL    HW158516   4.827  12.764   3.074
18873SOL    HW258517   4.715  12.758   2.972
18874SOL     OW58518  10.647   7.344  13.967
18874SOL    HW158519  10.707   7.351  13.893
18874SOL    HW258520  10.686   7.277  14.023
18875SOL     OW58521   9.764   9.997  11.179
18875SOL    HW158522   9.858  10.015  11.189
18875SOL    HW258523   9.725  10.029  11.261
18876SOL     OW58524   3.309   2.295   6.171
18876SOL    HW158525   3.371   2.222   6.174
18876SOL    HW258526   3.298   2.314   6.077
18877SOL     OW58527   3.467  10.551  10.108
18877SOL    HW158528   3.469  10.646  10.119
18877SOL    HW258529   3.558  10.527  10.091
18878SOL     OW58530   4.570  10.919  14.326
18878SOL    HW158531   4.608  10.996  14.369
18878SOL    HW258532   4.493  10.954  14.280
18879SOL     OW58533   9.239   8.015   2.613
18879SOL    HW158534   9.248   7.942   2.673
18879SOL    HW258535   9.152   8.005   2.576
18880SOL     OW58536  12.168  13.328   5.393
18880SOL    HW158537  12.146  13.307   5.484
18880SOL    HW258538  12.158  13.423   5.388
18881SOL     OW58539   7.403   9.944   1.145
18881SOL    HW158540   7.403  10.009   1.215
18881SOL    HW258541   7.343   9.876   1.175
18882SOL     OW58542   2.722  14.431   7.601
18882SOL    HW158543   2.663  14.382   7.658
18882SOL    HW258544   2.753  14.366   7.538
18883SOL     OW58545   7.829  12.893   0.705
18883SOL    HW158546   7.855  12.843   0.627
18883SOL    HW258547   7.903  12.885   0.765
18884SOL     OW58548   2.680   8.318   5.004
18884SOL    HW158549   2.769   8.344   4.978
18884SOL    HW258550   2.667   8.232   4.965
18885SOL     OW58551  12.945  13.520  11.914
18885SOL    HW158552  12.859  13.478  11.917
18885SOL    HW258553  12.984  13.500  11.999
18886SOL     OW58554   7.367   3.818  10.086
18886SOL    HW158555   7.335   3.728  10.097
18886SOL    HW258556   7.402   3.820   9.997
18887SOL     OW58557  12.488   4.112   7.545
18887SOL    HW158558  12.401   4.107   7.505
18887SOL    HW258559  12.547   4.120   7.470
18888SOL     OW58560   9.880   9.873   5.660
18888SOL    HW158561   9.796   9.835   5.633
18888SOL    HW258562   9.869   9.892   5.753
18889SOL     OW58563   1.264   7.456   0.554
18889SOL    HW158564   1.207   7.474   0.629
18889SOL    HW258565   1.352   7.477   0.585
18890SOL     OW58566  12.428   6.378   6.343
18890SOL    HW158567  12.355   6.334   6.387
18890SOL    HW258568  12.482   6.307   6.308
18891SOL     OW58569   9.965   8.195   6.249
18891SOL    HW158570   9.965   8.219   6.156
18891SOL    HW258571   9.925   8.270   6.293
18892SOL     OW58572   4.838  10.416  11.769
18892SOL    HW158573   4.803  10.500  11.798
18892SOL    HW258574   4.896  10.388  11.839
18893SOL     OW58575   0.383   1.530   1.670
18893SOL    HW158576   0.412   1.568   1.753
18893SOL    HW258577   0.288   1.525   1.679
18894SOL     OW58578   7.104   4.127   3.290
18894SOL    HW158579   7.162   4.175   3.230
18894SOL    HW258580   7.138   4.147   3.377
18895SOL     OW58581  13.348   0.917  13.851
18895SOL    HW158582  13.423   0.968  13.879
18895SOL    HW258583  13.291   0.912  13.928
18896SOL     OW58584   5.839   2.803  13.667
18896SOL    HW158585   5.751   2.823  13.698
18896SOL    HW258586   5.895   2.821  13.742
18897SOL     OW58587  14.488   4.316   9.941
18897SOL    HW158588  14.539   4.244   9.902
18897SOL    HW258589  14.471   4.375   9.868
18898SOL     OW58590  14.317   5.892  10.660
18898SOL    HW158591  14.376   5.888  10.584
18898SOL    HW258592  14.289   5.801  10.672
18899SOL     OW58593   6.333   2.124   0.703
18899SOL    HW158594   6.371   2.211   0.697
18899SOL    HW258595   6.345   2.098   0.794
18900SOL     OW58596   0.117   4.055   2.278
18900SOL    HW158597   0.075   4.135   2.310
18900SOL    HW258598   0.148   4.077   2.191
18901SOL     OW58599  13.260  11.315   3.362
18901SOL    HW158600  13.246  11.220   3.372
18901SOL    HW258601  13.338  11.333   3.415
18902SOL     OW58602  14.205   4.367   8.320
18902SOL    HW158603  14.130   4.312   8.343
18902SOL    HW258604  14.271   4.306   8.288
18903SOL     OW58605   2.592   8.580  12.206
18903SOL    HW158606   2.515   8.590  12.149
18903SOL    HW258607   2.595   8.486  12.225
18904SOL     OW58608   6.151   8.112  12.579
18904SOL    HW158609   6.216   8.046  12.603
18904SOL    HW258610   6.185   8.151  12.498
18905SOL     OW58611   2.492  11.536  12.553
18905SOL    HW158612   2.545  11.469  12.510
18905SOL    HW258613   2.437  11.572  12.483
18906SOL     OW58614  13.411   2.221   1.544
18906SOL    HW158615  13.357   2.264   1.611
18906SOL    HW258616  13.501   2.246   1.565
18907SOL     OW58617   1.011   0.207   8.711
18907SOL    HW158618   0.954   0.154   8.767
18907SOL    HW258619   0.964   0.215   8.628
18908SOL     OW58620   8.709  10.577  10.318
18908SOL    HW158621   8.761  10.657  10.322
18908SOL    HW258622   8.665  10.572  10.403
18909SOL     OW58623   8.696   5.973  14.752
18909SOL    HW158624   8.736   5.902  14.802
18909SOL    HW258625   8.768   6.013  14.703
18910SOL     OW58626  14.828   5.009   2.612
18910SOL    HW158627  14.788   5.017   2.525
18910SOL    HW258628   0.048   5.040   2.599
18911SOL     OW58629  13.764   5.523   6.916
18911SOL    HW158630  13.715   5.574   6.852
18911SOL    HW258631  13.855   5.533   6.891
18912SOL     OW58632   8.881   7.120  10.558
18912SOL    HW158633   8.920   7.153  10.638
18912SOL    HW258634   8.829   7.193  10.524
18913SOL     OW58635  14.771  14.595  13.530
18913SOL    HW158636  14.696  14.589  13.589
18913SOL    HW258637  14.813  14.677  13.553
18914SOL     OW58638   7.744   9.301   2.770
18914SOL    HW158639   7.708   9.371   2.717
18914SOL    HW258640   7.838   9.321   2.775
18915SOL     OW58641   3.433   1.904  13.380
18915SOL    HW158642   3.438   1.954  13.462
18915SOL    HW258643   3.386   1.824  13.403
18916SOL     OW58644   0.581   7.730  12.059
18916SOL    HW158645   0.535   7.653  12.025
18916SOL    HW258646   0.521   7.802  12.044
18917SOL     OW58647   9.384   9.878   9.035
18917SOL    HW158648   9.396   9.845   9.124
18917SOL    HW258649   9.373   9.800   8.981
18918SOL     OW58650   8.418   2.933   5.882
18918SOL    HW158651   8.474   2.967   5.952
18918SOL    HW258652   8.399   2.843   5.908
18919SOL     OW58653   6.831   6.826   6.982
18919SOL    HW158654   6.762   6.807   7.045
18919SOL    HW258655   6.786   6.872   6.910
18920SOL     OW58656   6.590  13.873  11.494
18920SOL    HW158657   6.640  13.849  11.415
18920SOL    HW258658   6.629  13.956  11.522
18921SOL     OW58659   5.916  14.006   0.968
18921SOL    HW158660   6.005  14.043   0.971
18921SOL    HW258661   5.898  13.980   1.059
18922SOL     OW58662   6.620  14.408   2.264
18922SOL    HW158663   6.644  14.432   2.353
18922SOL    HW258664   6.576  14.324   2.273
18923SOL     OW58665   6.193   1.005   8.217
18923SOL    HW158666   6.139   1.018   8.295
18923SOL    HW258667   6.131   0.978   8.149
18924SOL     OW58668  13.274  10.292   8.088
18924SOL    HW158669  13.313  10.342   8.017
18924SOL    HW258670  13.181  10.314   8.085
18925SOL     OW58671  14.542   0.386   7.106
18925SOL    HW158672  14.557   0.292   7.105
18925SOL    HW258673  14.461   0.397   7.155
18926SOL     OW58674  10.275  10.347   2.576
18926SOL    HW158675  10.333  10.392   2.637
18926SOL    HW258676  10.255  10.264   2.619
18927SOL     OW58677  11.616  13.601  10.924
18927SOL    HW158678  11.552  13.530  10.919
18927SOL    HW258679  11.657  13.603  10.838
18928SOL     OW58680  14.571   1.809   7.629
18928SOL    HW158681  14.536   1.816   7.717
18928SOL    HW258682  14.564   1.898   7.593
18929SOL     OW58683   6.228  13.454  11.579
18929SOL    HW158684   6.316  13.419  11.594
18929SOL    HW258685   6.216  13.448  11.484
18930SOL     OW58686   6.605  10.619  10.877
18930SOL    HW158687   6.635  10.549  10.936
18930SOL    HW258688   6.675  10.626  10.811
18931SOL     OW58689  13.406  10.614   3.115
18931SOL    HW158690  13.388  10.653   3.030
18931SOL    HW258691  13.467  10.542   3.096
18932SOL     OW58692   4.332   5.585   5.183
18932SOL    HW158693   4.281   5.536   5.247
18932SOL    HW258694   4.403   5.526   5.158
18933SOL     OW58695   8.929   0.281  12.594
18933SOL    HW158696   8.997   0.293  12.661
18933SOL    HW258697   8.916   0.368  12.558
18934SOL     OW58698   5.032   6.875   0.558
18934SOL    HW158699   4.980   6.795   0.568
18934SOL    HW258700   4.969   6.943   0.536
18935SOL     OW58701  10.850   0.998   1.381
18935SOL    HW158702  10.800   0.985   1.462
18935SOL    HW258703  10.800   1.063   1.332
18936SOL     OW58704   2.438  10.987   8.968
18936SOL    HW158705   2.425  11.031   9.052
18936SOL    HW258706   2.439  10.894   8.989
18937SOL     OW58707  11.638  13.431   1.919
18937SOL    HW158708  11.640  13.436   2.014
18937SOL    HW258709  11.689  13.506   1.890
18938SOL     OW58710  12.717   9.992  12.766
18938SOL    HW158711  12.805  10.023  12.789
18938SOL    HW258712  12.662  10.070  12.770
18939SOL     OW58713  12.373   8.052   4.661
18939SOL    HW158714  12.368   8.134   4.709
18939SOL    HW258715  12.384   7.985   4.728
18940SOL     OW58716  11.099   5.580   9.884
18940SOL    HW158717  11.102   5.550   9.974
18940SOL    HW258718  11.037   5.653   9.885
18941SOL     OW58719   8.566   9.662  12.067
18941SOL    HW158720   8.548   9.574  12.099
18941SOL    HW258721   8.654   9.657  12.030
18942SOL     OW58722   7.547  14.512  13.707
18942SOL    HW158723   7.514  14.427  13.678
18942SOL    HW258724   7.586  14.495  13.793
18943SOL     OW58725   9.324   8.252  10.428
18943SOL    HW158726   9.415   8.244  10.457
18943SOL    HW258727   9.277   8.183  10.477
18944SOL     OW58728   2.102  11.243  12.148
18944SOL    HW158729   2.130  11.154  12.167
18944SOL    HW258730   2.025  11.233  12.092
18945SOL     OW58731  10.997   6.818   5.948
18945SOL    HW158732  11.009   6.834   6.041
18945SOL    HW258733  10.920   6.869   5.925
18946SOL     OW58734  14.408   4.607   2.185
18946SOL    HW158735  14.503   4.615   2.194
18946SOL    HW258736  14.373   4.661   2.256
18947SOL     OW58737   0.708   5.963  13.053
18947SOL    HW158738   0.754   5.911  12.987
18947SOL    HW258739   0.616   5.957  13.028
18948SOL     OW58740   8.932   8.570   0.677
18948SOL    HW158741   8.986   8.626   0.734
18948SOL    HW258742   8.891   8.632   0.616
18949SOL     OW58743   7.534   0.936  10.578
18949SOL    HW158744   7.597   0.867  10.555
18949SOL    HW258745   7.584   0.995  10.634
18950SOL     OW58746   1.823   0.928   3.134
18950SOL    HW158747   1.874   0.920   3.053
18950SOL    HW258748   1.888   0.919   3.204
18951SOL     OW58749  14.057   5.315   9.828
18951SOL    HW158750  14.067   5.240   9.769
18951SOL    HW258751  14.141   5.323   9.871
18952SOL     OW58752   8.420   4.049   1.781
18952SOL    HW158753   8.422   3.958   1.811
18952SOL    HW258754   8.342   4.086   1.822
18953SOL     OW58755  13.982   2.334   6.290
18953SOL    HW158756  13.924   2.321   6.215
18953SOL    HW258757  13.964   2.423   6.319
18954SOL     OW58758   3.479  14.590   4.367
18954SOL    HW158759   3.559  14.556   4.327
18954SOL    HW258760   3.454  14.524   4.431
18955SOL     OW58761   2.096   4.811   2.245
18955SOL    HW158762   2.030   4.752   2.210
18955SOL    HW258763   2.055   4.897   2.243
18956SOL     OW58764   1.998  13.511   1.473
18956SOL    HW158765   2.043  13.550   1.548
18956SOL    HW258766   2.046  13.430   1.456
18957SOL     OW58767  12.443  10.136  13.496
18957SOL    HW158768  12.475  10.225  13.508
18957SOL    HW258769  12.429  10.104  13.585
18958SOL     OW58770   1.383   2.945  11.810
18958SOL    HW158771   1.306   2.951  11.755
18958SOL    HW258772   1.364   2.874  11.871
18959SOL     OW58773  10.922   2.395   2.734
18959SOL    HW158774  10.848   2.456   2.730
18959SOL    HW258775  10.999   2.452   2.743
18960SOL     OW58776   6.004   2.893  11.574
18960SOL    HW158777   6.085   2.935  11.606
18960SOL    HW258778   6.031   2.805  11.549
18961SOL     OW58779   8.152   8.118  11.748
18961SOL    HW158780   8.154   8.031  11.789
18961SOL    HW258781   8.059   8.135  11.735
18962SOL     OW58782   1.092   6.350   9.779
18962SOL    HW158783   1.032   6.303   9.721
18962SOL    HW258784   1.130   6.418   9.723
18963SOL     OW58785   3.798   0.763   9.419
18963SOL    HW158786   3.716   0.795   9.457
18963SOL    HW258787   3.809   0.675   9.457
18964SOL     OW58788   7.473   2.152  10.822
18964SOL    HW158789   7.554   2.201  10.833
18964SOL    HW258790   7.491   2.066  10.860
18965SOL     OW58791  13.004   7.681   1.849
18965SOL    HW158792  13.047   7.766   1.858
18965SOL    HW258793  13.004   7.644   1.938
18966SOL     OW58794  13.477   0.518   1.155
18966SOL    HW158795  13.410   0.505   1.088
18966SOL    HW258796  13.471   0.439   1.209
18967SOL     OW58797  11.953   4.409   9.279
18967SOL    HW158798  11.958   4.478   9.345
18967SOL    HW258799  11.983   4.330   9.324
18968SOL     OW58800   9.983  14.339  10.787
18968SOL    HW158801  10.071  14.308  10.808
18968SOL    HW258802   9.996  14.426  10.749
18969SOL     OW58803   9.990  11.052   6.811
18969SOL    HW158804  10.085  11.040   6.815
18969SOL    HW258805   9.954  10.968   6.838
18970SOL     OW58806   5.056   5.255   9.528
18970SOL    HW158807   4.980   5.225   9.578
18970SOL    HW258808   5.101   5.174   9.504
18971SOL     OW58809   0.287   0.836   1.966
18971SOL    HW158810   0.300   0.813   1.874
18971SOL    HW258811   0.215   0.780   1.995
18972SOL     OW58812   3.933  11.243   1.023
18972SOL    HW158813   3.952  11.161   0.978
18972SOL    HW258814   3.875  11.290   0.964
18973SOL     OW58815   0.159  10.190   0.349
18973SOL    HW158816   0.167  10.094   0.350
18973SOL    HW258817   0.244  10.221   0.318
18974SOL     OW58818   4.235  13.638   2.745
18974SOL    HW158819   4.166  13.661   2.682
18974SOL    HW258820   4.188  13.603   2.821
18975SOL     OW58821  12.301   6.783  14.821
18975SOL    HW158822  12.234   6.715  14.817
18975SOL    HW258823  12.253   6.865  14.832
18976SOL     OW58824   2.449  13.946   6.445
18976SOL    HW158825   2.491  13.931   6.529
18976SOL    HW258826   2.513  13.916   6.380
18977SOL     OW58827   3.238   4.090  12.268
18977SOL    HW158828   3.329   4.113  12.289
18977SOL    HW258829   3.191   4.172  12.275
18978SOL     OW58830   6.426   9.336   8.200
18978SOL    HW158831   6.487   9.307   8.133
18978SOL    HW258832   6.401   9.425   8.173
18979SOL     OW58833   7.923   4.681  13.077
18979SOL    HW158834   7.972   4.674  13.159
18979SOL    HW258835   7.895   4.591  13.059
18980SOL     OW58836   7.267   2.294   2.578
18980SOL    HW158837   7.286   2.292   2.671
18980SOL    HW258838   7.308   2.214   2.543
18981SOL     OW58839   3.527   8.904  10.572
18981SOL    HW158840   3.520   8.999  10.582
18981SOL    HW258841   3.451   8.870  10.620
18982SOL     OW58842   0.768   8.186  10.321
18982SOL    HW158843   0.821   8.196  10.242
18982SOL    HW258844   0.811   8.242  10.385
18983SOL     OW58845  14.711   2.544  13.069
18983SOL    HW158846  14.717   2.454  13.100
18983SOL    HW258847  14.649   2.586  13.129
18984SOL     OW58848   8.638   3.548  14.359
18984SOL    HW158849   8.612   3.470  14.408
18984SOL    HW258850   8.715   3.521  14.309
18985SOL     OW58851   0.605   8.627   7.010
18985SOL    HW158852   0.651   8.585   6.938
18985SOL    HW258853   0.549   8.558   7.047
18986SOL     OW58854  12.449   0.310  12.200
18986SOL    HW158855  12.384   0.252  12.161
18986SOL    HW258856  12.533   0.271  12.175
18987SOL     OW58857   3.674  12.580   4.658
18987SOL    HW158858   3.643  12.665   4.627
18987SOL    HW258859   3.702  12.534   4.578
18988SOL     OW58860   0.578  14.039   6.779
18988SOL    HW158861   0.673  14.040   6.784
18988SOL    HW258862   0.558  13.975   6.711
18989SOL     OW58863   4.226  11.959   9.088
18989SOL    HW158864   4.175  12.039   9.088
18989SOL    HW258865   4.176  11.898   9.033
18990SOL     OW58866   1.393  11.509  10.115
18990SOL    HW158867   1.320  11.466  10.158
18990SOL    HW258868   1.447  11.543  10.186
18991SOL     OW58869  13.981   6.592   6.661
18991SOL    HW158870  14.044   6.658   6.632
18991SOL    HW258871  13.896   6.631   6.644
18992SOL     OW58872   4.562  14.267   3.664
18992SOL    HW158873   4.598  14.270   3.753
18992SOL    HW258874   4.491  14.331   3.665
18993SOL     OW58875   8.885   9.662   6.788
18993SOL    HW158876   8.974   9.697   6.780
18993SOL    HW258877   8.896   9.577   6.830
18994SOL     OW58878   7.843   6.386  10.939
18994SOL    HW158879   7.775   6.449  10.915
18994SOL    HW258880   7.845   6.324  10.866
18995SOL     OW58881   3.164  14.026  10.475
18995SOL    HW158882   3.217  14.105  10.483
18995SOL    HW258883   3.156  14.012  10.381
18996SOL     OW58884   2.791  12.128   8.114
18996SOL    HW158885   2.854  12.169   8.173
18996SOL    HW258886   2.706  12.138   8.158
18997SOL     OW58887  12.922  13.358   6.825
18997SOL    HW158888  12.863  13.419   6.779
18997SOL    HW258889  12.864  13.287   6.854
18998SOL     OW58890   5.508  13.423  14.169
18998SOL    HW158891   5.413  13.427  14.168
18998SOL    HW258892   5.528  13.346  14.222
18999SOL     OW58893  13.310  13.495   1.559
18999SOL    HW158894  13.237  13.440   1.531
18999SOL    HW258895  13.279  13.536   1.639
19000SOL     OW58896  10.331   1.717  14.176
19000SOL    HW158897  10.332   1.623  14.156
19000SOL    HW258898  10.419   1.734  14.210
19001SOL     OW58899   7.981   6.325   5.052
19001SOL    HW158900   7.899   6.319   5.101
19001SOL    HW258901   8.040   6.266   5.098
19002SOL     OW58902  10.616  11.992  12.033
19002SOL    HW158903  10.667  11.918  12.066
19002SOL    HW258904  10.538  11.993  12.087
19003SOL     OW58905   8.291   8.147   6.665
19003SOL    HW158906   8.307   8.238   6.688
19003SOL    HW258907   8.377   8.112   6.644
19004SOL     OW58908  12.323  14.408   9.555
19004SOL    HW158909  12.304  14.487   9.504
19004SOL    HW258910  12.366  14.349   9.494
19005SOL     OW58911   4.491   9.998   0.331
19005SOL    HW158912   4.442   9.929   0.375
19005SOL    HW258913   4.439  10.021   0.255
19006SOL     OW58914  13.586  12.215  12.266
19006SOL    HW158915  13.538  12.178  12.340
19006SOL    HW258916  13.659  12.154  12.252
19007SOL     OW58917  14.059   4.194   2.773
19007SOL    HW158918  14.010   4.133   2.717
19007SOL    HW258919  13.995   4.261   2.797
19008SOL     OW58920  12.841  11.224   7.210
19008SOL    HW158921  12.804  11.164   7.145
19008SOL    HW258922  12.795  11.307   7.195
19009SOL     OW58923  13.146   5.081  13.397
19009SOL    HW158924  13.115   5.000  13.356
19009SOL    HW258925  13.211   5.116  13.337
19010SOL     OW58926   8.136  13.374  13.499
19010SOL    HW158927   8.223  13.415  13.498
19010SOL    HW258928   8.087  13.424  13.564
19011SOL     OW58929  12.711   6.323  11.916
19011SOL    HW158930  12.797   6.357  11.890
19011SOL    HW258931  12.731   6.255  11.980
19012SOL     OW58932  14.527  10.402  13.541
19012SOL    HW158933  14.473  10.446  13.607
19012SOL    HW258934  14.603  10.459  13.531
19013SOL     OW58935   6.611  10.697   4.456
19013SOL    HW158936   6.644  10.683   4.544
19013SOL    HW258937   6.652  10.778   4.427
19014SOL     OW58938  13.455   6.284   7.996
19014SOL    HW158939  13.377   6.230   8.003
19014SOL    HW258940  13.474   6.311   8.086
19015SOL     OW58941  10.419  13.443   6.806
19015SOL    HW158942  10.475  13.517   6.783
19015SOL    HW258943  10.450  13.415   6.892
19016SOL     OW58944   9.418   8.480   3.891
19016SOL    HW158945   9.449   8.389   3.883
19016SOL    HW258946   9.329   8.472   3.926
19017SOL     OW58947   3.591   0.204   3.857
19017SOL    HW158948   3.664   0.210   3.796
19017SOL    HW258949   3.543   0.125   3.831
19018SOL     OW58950   6.033   0.326  12.356
19018SOL    HW158951   6.031   0.397  12.420
19018SOL    HW258952   5.946   0.286  12.361
19019SOL     OW58953  12.392  13.227   3.147
19019SOL    HW158954  12.316  13.270   3.108
19019SOL    HW258955  12.384  13.245   3.240
19020SOL     OW58956   9.520   7.208   0.483
19020SOL    HW158957   9.428   7.189   0.506
19020SOL    HW258958   9.529   7.301   0.500
19021SOL     OW58959   7.572  10.601  14.511
19021SOL    HW158960   7.665  10.602  14.533
19021SOL    HW258961   7.569  10.581  14.418
19022SOL     OW58962   9.195   7.813  14.343
19022SOL    HW158963   9.115   7.763  14.360
19022SOL    HW258964   9.171   7.872  14.272
19023SOL     OW58965   6.164   0.552   1.328
19023SOL    HW158966   6.227   0.618   1.358
19023SOL    HW258967   6.139   0.580   1.241
19024SOL     OW58968   3.406   8.012   8.939
19024SOL    HW158969   3.376   7.939   8.993
19024SOL    HW258970   3.481   7.977   8.891
19025SOL     OW58971   4.288  10.900   2.484
19025SOL    HW158972   4.278  10.982   2.533
19025SOL    HW258973   4.283  10.926   2.392
19026SOL     OW58974   1.281   2.540   3.510
19026SOL    HW158975   1.276   2.594   3.588
19026SOL    HW258976   1.370   2.552   3.477
19027SOL     OW58977   7.078  12.099   6.680
19027SOL    HW158978   7.009  12.124   6.618
19027SOL    HW258979   7.039  12.028   6.731
19028SOL     OW58980  10.887  13.753   6.179
19028SOL    HW158981  10.801  13.784   6.209
19028SOL    HW258982  10.887  13.771   6.085
19029SOL     OW58983  12.777   0.867   9.785
19029SOL    HW158984  12.747   0.799   9.845
19029SOL    HW258985  12.769   0.827   9.698
19030SOL     OW58986  13.565   8.691  14.273
19030SOL    HW158987  13.563   8.624  14.205
19030SOL    HW258988  13.643   8.670  14.325
19031SOL     OW58989   7.139   2.267   2.219
19031SOL    HW158990   7.050   2.233   2.228
19031SOL    HW258991   7.132   2.359   2.244
19032SOL     OW58992  11.110   8.929   7.890
19032SOL    HW158993  11.132   9.023   7.891
19032SOL    HW258994  11.022   8.925   7.853
19033SOL     OW58995   8.460   1.586   0.946
19033SOL    HW158996   8.543   1.619   0.912
19033SOL    HW258997   8.432   1.652   1.009
19034SOL     OW58998  11.128  14.290   6.267
19034SOL    HW158999  11.171  14.211   6.234
19034SOL    HW259000  11.040  14.260   6.291
19035SOL     OW59001   4.365   7.715  10.361
19035SOL    HW159002   4.306   7.791  10.365
19035SOL    HW259003   4.327   7.653  10.423
19036SOL     OW59004   7.304   7.078  12.810
19036SOL    HW159005   7.359   7.138  12.759
19036SOL    HW259006   7.216   7.112  12.798
19037SOL     OW59007  11.683   8.464  11.709
19037SOL    HW159008  11.634   8.488  11.787
19037SOL    HW259009  11.620   8.474  11.637
19038SOL     OW59010   4.476   0.247   7.418
19038SOL    HW159011   4.568   0.229   7.397
19038SOL    HW259012   4.479   0.320   7.480
19039SOL     OW59013   6.848   0.255   8.519
19039SOL    HW159014   6.818   0.254   8.610
19039SOL    HW259015   6.905   0.179   8.512
19040SOL     OW59016   1.180   7.761   9.704
19040SOL    HW159017   1.185   7.718   9.619
19040SOL    HW259018   1.242   7.714   9.759
19041SOL     OW59019   1.893   9.143   4.861
19041SOL    HW159020   1.864   9.232   4.881
19041SOL    HW259021   1.943   9.116   4.938
19042SOL     OW59022  14.377  10.482   1.761
19042SOL    HW159023  14.375  10.412   1.695
19042SOL    HW259024  14.286  10.503   1.777
19043SOL     OW59025  14.241   0.356  12.267
19043SOL    HW159026  14.274   0.442  12.293
19043SOL    HW259027  14.146   0.364  12.275
19044SOL     OW59028   7.961  14.156  11.621
19044SOL    HW159029   8.044  14.145  11.666
19044SOL    HW259030   7.900  14.099  11.668
19045SOL     OW59031   7.536   1.305   5.780
19045SOL    HW159032   7.495   1.296   5.695
19045SOL    HW259033   7.576   1.220   5.796
19046SOL     OW59034  11.467   5.611   3.937
19046SOL    HW159035  11.538   5.552   3.963
19046SOL    HW259036  11.399   5.598   4.002
19047SOL     OW59037   8.591  13.886   2.696
19047SOL    HW159038   8.572  13.950   2.764
19047SOL    HW259039   8.685  13.891   2.684
19048SOL     OW59040   9.683  11.551  14.515
19048SOL    HW159041   9.728  11.588  14.439
19048SOL    HW259042   9.606  11.508  14.479
19049SOL     OW59043  11.966  14.037  14.048
19049SOL    HW159044  11.881  14.078  14.032
19049SOL    HW259045  12.019  14.061  13.973
19050SOL     OW59046  13.075   6.753   7.998
19050SOL    HW159047  13.005   6.723   8.057
19050SOL    HW259048  13.106   6.834   8.038
19051SOL     OW59049  11.308  12.772  12.846
19051SOL    HW159050  11.294  12.703  12.781
19051SOL    HW259051  11.275  12.735  12.928
19052SOL     OW59052   5.175  13.548   5.077
19052SOL    HW159053   5.155  13.508   4.992
19052SOL    HW259054   5.095  13.537   5.128
19053SOL     OW59055  11.054  12.195   7.559
19053SOL    HW159056  10.983  12.233   7.609
19053SOL    HW259057  11.116  12.267   7.546
19054SOL     OW59058   8.702   0.813  11.702
19054SOL    HW159059   8.632   0.754  11.730
19054SOL    HW259060   8.736   0.774  11.622
19055SOL     OW59061  11.878  12.606   5.581
19055SOL    HW159062  11.849  12.574   5.666
19055SOL    HW259063  11.838  12.546   5.518
19056SOL     OW59064   5.238   6.016  14.847
19056SOL    HW159065   5.263   5.954   0.046
19056SOL    HW259066   5.231   5.963  14.767
19057SOL     OW59067   9.469   1.112   0.932
19057SOL    HW159068   9.461   1.045   1.001
19057SOL    HW259069   9.434   1.070   0.854
19058SOL     OW59070  10.033   1.179   9.899
19058SOL    HW159071  10.084   1.259   9.889
19058SOL    HW259072   9.942   1.209   9.905
19059SOL     OW59073   2.003   9.659   3.497
19059SOL    HW159074   1.986   9.567   3.474
19059SOL    HW259075   2.090   9.676   3.462
19060SOL     OW59076  14.153   6.745   7.195
19060SOL    HW159077  14.247   6.737   7.210
19060SOL    HW259078  14.114   6.698   7.269
19061SOL     OW59079   3.761   1.029  14.806
19061SOL    HW159080   3.823   0.957  14.813
19061SOL    HW259081   3.784   1.087   0.010
19062SOL     OW59082   8.835   9.781   5.913
19062SOL    HW159083   8.789   9.701   5.937
19062SOL    HW259084   8.926   9.755   5.905
19063SOL     OW59085   1.529  11.779   7.240
19063SOL    HW159086   1.470  11.779   7.165
19063SOL    HW259087   1.491  11.716   7.301
19064SOL     OW59088  11.531   9.025  10.456
19064SOL    HW159089  11.537   9.067  10.370
19064SOL    HW259090  11.621   9.025  10.489
19065SOL     OW59091   5.674  12.237  10.572
19065SOL    HW159092   5.734  12.174  10.613
19065SOL    HW259093   5.696  12.235  10.479
19066SOL     OW59094   3.475   7.187   7.239
19066SOL    HW159095   3.397   7.240   7.222
19066SOL    HW259096   3.537   7.248   7.278
19067SOL     OW59097   8.504  13.978   9.192
19067SOL    HW159098   8.451  13.951   9.117
19067SOL    HW259099   8.594  13.956   9.167
19068SOL     OW59100   2.325   2.320  13.584
19068SOL    HW159101   2.239   2.296  13.617
19068SOL    HW259102   2.367   2.364  13.657
19069SOL     OW59103   9.141   4.844   9.585
19069SOL    HW159104   9.164   4.784   9.655
19069SOL    HW259105   9.216   4.903   9.578
19070SOL     OW59106   1.864   8.343   0.374
19070SOL    HW159107   1.777   8.310   0.349
19070SOL    HW259108   1.874   8.317   0.465
19071SOL     OW59109   4.469   7.169   8.020
19071SOL    HW159110   4.384   7.208   7.997
19071SOL    HW259111   4.466   7.082   7.980
19072SOL     OW59112   2.701   1.481  14.255
19072SOL    HW159113   2.732   1.528  14.178
19072SOL    HW259114   2.667   1.398  14.220
19073SOL     OW59115  14.703   3.369  13.094
19073SOL    HW159116  14.708   3.389  13.188
19073SOL    HW259117  14.708   3.273  13.090
19074SOL     OW59118   8.031   2.871   6.430
19074SOL    HW159119   8.065   2.960   6.431
19074SOL    HW259120   8.091   2.823   6.372
19075SOL     OW59121  12.346   0.858  10.942
19075SOL    HW159122  12.312   0.866  10.853
19075SOL    HW259123  12.349   0.764  10.959
19076SOL     OW59124  10.469   4.812  11.507
19076SOL    HW159125  10.555   4.814  11.549
19076SOL    HW259126  10.445   4.905  11.498
19077SOL     OW59127   9.348  12.440   7.318
19077SOL    HW159128   9.277  12.438   7.254
19077SOL    HW259129   9.319  12.504   7.383
19078SOL     OW59130  11.390  11.984   6.875
19078SOL    HW159131  11.374  11.948   6.963
19078SOL    HW259132  11.441  11.917   6.831
19079SOL     OW59133   7.692   7.110  12.903
19079SOL    HW159134   7.723   7.164  12.830
19079SOL    HW259135   7.605   7.144  12.922
19080SOL     OW59136  10.205   4.884   6.607
19080SOL    HW159137  10.174   4.824   6.540
19080SOL    HW259138  10.279   4.929   6.567
19081SOL     OW59139  14.679   1.905   5.834
19081SOL    HW159140  14.710   1.822   5.797
19081SOL    HW259141  14.681   1.890   5.929
19082SOL     OW59142   8.867   3.904   5.393
19082SOL    HW159143   8.909   3.877   5.312
19082SOL    HW259144   8.929   3.878   5.462
19083SOL     OW59145   3.507   6.264   8.218
19083SOL    HW159146   3.543   6.352   8.209
19083SOL    HW259147   3.423   6.268   8.173
19084SOL     OW59148  12.632  14.148   1.510
19084SOL    HW159149  12.715  14.108   1.534
19084SOL    HW259150  12.583  14.079   1.467
19085SOL     OW59151   1.637   3.123   2.628
19085SOL    HW159152   1.562   3.069   2.602
19085SOL    HW259153   1.631   3.127   2.723
19086SOL     OW59154  11.286  13.250   2.934
19086SOL    HW159155  11.255  13.160   2.949
19086SOL    HW259156  11.277  13.262   2.839
19087SOL     OW59157   9.263   1.078  14.632
19087SOL    HW159158   9.202   1.049  14.700
19087SOL    HW259159   9.221   1.054  14.550
19088SOL     OW59160   8.296  14.722   0.070
19088SOL    HW159161   8.214  14.768   0.053
19088SOL    HW259162   8.353  14.788   0.110
19089SOL     OW59163   2.484   1.629   4.964
19089SOL    HW159164   2.508   1.694   4.898
19089SOL    HW259165   2.564   1.615   5.014
19090SOL     OW59166  14.016   4.862   1.246
19090SOL    HW159167  13.964   4.943   1.242
19090SOL    HW259168  14.024   4.834   1.155
19091SOL     OW59169   7.333   5.591  12.469
19091SOL    HW159170   7.403   5.651  12.446
19091SOL    HW259171   7.316   5.608  12.562
19092SOL     OW59172   8.146   7.827  12.852
19092SOL    HW159173   8.139   7.787  12.938
19092SOL    HW259174   8.137   7.921  12.869
19093SOL     OW59175   7.371   2.508   0.730
19093SOL    HW159176   7.403   2.503   0.640
19093SOL    HW259177   7.387   2.420   0.766
19094SOL     OW59178  10.610  14.696   4.760
19094SOL    HW159179  10.598  14.718   4.852
19094SOL    HW259180  10.549  14.624   4.744
19095SOL     OW59181   8.353   5.518   8.681
19095SOL    HW159182   8.321   5.461   8.611
19095SOL    HW259183   8.287   5.586   8.690
19096SOL     OW59184   7.386   6.163   6.233
19096SOL    HW159185   7.480   6.143   6.235
19096SOL    HW259186   7.375   6.230   6.300
19097SOL     OW59187   5.983   6.463  14.834
19097SOL    HW159188   5.958   6.380   0.005
19097SOL    HW259189   5.959   6.454  14.742
19098SOL     OW59190   3.321  14.336  11.633
19098SOL    HW159191   3.267  14.325  11.712
19098SOL    HW259192   3.338  14.430  11.628
19099SOL     OW59193  13.009   9.210   4.616
19099SOL    HW159194  12.938   9.196   4.679
19099SOL    HW259195  13.058   9.128   4.617
19100SOL     OW59196   3.605  14.765   8.851
19100SOL    HW159197   3.697  14.763   8.878
19100SOL    HW259198   3.559  14.807   8.923
19101SOL     OW59199   6.704   9.068  11.999
19101SOL    HW159200   6.753   8.990  12.025
19101SOL    HW259201   6.727   9.134  12.065
19102SOL     OW59202   1.049   9.832   9.967
19102SOL    HW159203   1.113   9.770  10.002
19102SOL    HW259204   1.024   9.886  10.042
19103SOL     OW59205   0.474   0.272  10.742
19103SOL    HW159206   0.387   0.277  10.704
19103SOL    HW259207   0.502   0.363  10.752
19104SOL     OW59208   8.062  10.536  11.112
19104SOL    HW159209   8.086  10.493  11.194
19104SOL    HW259210   7.992  10.483  11.076
19105SOL     OW59211   0.233   2.309   1.249
19105SOL    HW159212   0.188   2.291   1.166
19105SOL    HW259213   0.308   2.363   1.224
19106SOL     OW59214   4.372   2.390   4.031
19106SOL    HW159215   4.395   2.438   3.951
19106SOL    HW259216   4.384   2.298   4.008
19107SOL     OW59217  13.159   3.396  12.045
19107SOL    HW159218  13.146   3.484  12.081
19107SOL    HW259219  13.200   3.410  11.960
19108SOL     OW59220   4.070  14.571   3.003
19108SOL    HW159221   4.035  14.485   3.027
19108SOL    HW259222   4.162  14.554   2.982
19109SOL     OW59223  13.473  11.407   5.775
19109SOL    HW159224  13.500  11.433   5.862
19109SOL    HW259225  13.377  11.404   5.779
19110SOL     OW59226  10.326  11.363   3.800
19110SOL    HW159227  10.268  11.333   3.729
19110SOL    HW259228  10.395  11.296   3.804
19111SOL     OW59229  11.199   5.447   7.029
19111SOL    HW159230  11.246   5.386   6.973
19111SOL    HW259231  11.183   5.523   6.972
19112SOL     OW59232  11.656  14.263  11.435
19112SOL    HW159233  11.644  14.168  11.436
19112SOL    HW259234  11.731  14.279  11.493
19113SOL     OW59235  13.106   3.056  13.686
19113SOL    HW159236  13.172   3.112  13.727
19113SOL    HW259237  13.050   3.116  13.638
19114SOL     OW59238   4.708   6.334  10.784
19114SOL    HW159239   4.786   6.332  10.728
19114SOL    HW259240   4.642   6.283  10.736
19115SOL     OW59241  10.178  11.498   0.523
19115SOL    HW159242  10.158  11.590   0.506
19115SOL    HW259243  10.095  11.453   0.512
19116SOL     OW59244   3.393   3.513   3.944
19116SOL    HW159245   3.306   3.504   3.982
19116SOL    HW259246   3.443   3.440   3.981
19117SOL     OW59247  10.473  13.275  10.766
19117SOL    HW159248  10.499  13.212  10.698
19117SOL    HW259249  10.543  13.339  10.767
19118SOL     OW59250   2.360   5.261   1.682
19118SOL    HW159251   2.401   5.301   1.758
19118SOL    HW259252   2.266   5.267   1.701
19119SOL     OW59253   0.056   6.871   3.687
19119SOL    HW159254   0.106   6.802   3.644
19119SOL    HW259255  14.848   6.883   3.632
19120SOL     OW59256   8.227   0.225   9.819
19120SOL    HW159257   8.191   0.266   9.898
19120SOL    HW259258   8.209   0.288   9.749
19121SOL     OW59259   5.584   0.664   4.690
19121SOL    HW159260   5.588   0.739   4.750
19121SOL    HW259261   5.621   0.592   4.740
19122SOL     OW59262   8.625  11.815   3.763
19122SOL    HW159263   8.710  11.800   3.804
19122SOL    HW259264   8.565  11.757   3.809
19123SOL     OW59265  13.574   3.232   7.338
19123SOL    HW159266  13.640   3.166   7.355
19123SOL    HW259267  13.497   3.182   7.309
19124SOL     OW59268  14.408  10.955  13.807
19124SOL    HW159269  14.493  10.959  13.851
19124SOL    HW259270  14.379  11.046  13.804
19125SOL     OW59271   4.777   8.063   3.832
19125SOL    HW159272   4.757   8.101   3.747
19125SOL    HW259273   4.870   8.041   3.827
19126SOL     OW59274  10.058   3.123   8.350
19126SOL    HW159275  10.021   3.208   8.375
19126SOL    HW259276  10.093   3.087   8.432
19127SOL     OW59277   3.109   9.114   1.215
19127SOL    HW159278   3.071   9.202   1.209
19127SOL    HW259279   3.198   9.129   1.246
19128SOL     OW59280   3.996   1.615   5.340
19128SOL    HW159281   4.065   1.573   5.289
19128SOL    HW259282   3.925   1.630   5.277
19129SOL     OW59283   1.297   2.155  14.848
19129SOL    HW159284   1.330   2.169   0.067
19129SOL    HW259285   1.262   2.065  14.849
19130SOL     OW59286   2.495   2.452   8.638
19130SOL    HW159287   2.501   2.378   8.578
19130SOL    HW259288   2.584   2.463   8.671
19131SOL     OW59289   6.621   8.966   5.069
19131SOL    HW159290   6.570   9.044   5.048
19131SOL    HW259291   6.649   8.932   4.984
19132SOL     OW59292   7.531   3.740  11.180
19132SOL    HW159293   7.452   3.755  11.233
19132SOL    HW259294   7.533   3.645  11.168
19133SOL     OW59295  13.384   1.712  13.222
19133SOL    HW159296  13.418   1.739  13.136
19133SOL    HW259297  13.420   1.777  13.283
19134SOL     OW59298   5.982   7.791   0.985
19134SOL    HW159299   5.960   7.791   1.079
19134SOL    HW259300   5.900   7.769   0.942
19135SOL     OW59301   5.600   5.112  11.240
19135SOL    HW159302   5.664   5.148  11.178
19135SOL    HW259303   5.612   5.164  11.319
19136SOL     OW59304  12.427  12.403  12.651
19136SOL    HW159305  12.427  12.421  12.745
19136SOL    HW259306  12.520  12.396  12.628
19137SOL     OW59307   6.722  10.534   6.529
19137SOL    HW159308   6.809  10.562   6.558
19137SOL    HW259309   6.738  10.487   6.447
19138SOL     OW59310  14.415   3.870   1.949
19138SOL    HW159311  14.498   3.911   1.927
19138SOL    HW259312  14.438   3.802   2.012
19139SOL     OW59313  10.420   7.524   9.207
19139SOL    HW159314  10.435   7.541   9.300
19139SOL    HW259315  10.418   7.611   9.167
19140SOL     OW59316  13.099   7.087  13.632
19140SOL    HW159317  13.076   7.168  13.587
19140SOL    HW259318  13.109   7.022  13.561
19141SOL     OW59319   5.304   3.399  10.714
19141SOL    HW159320   5.354   3.400  10.632
19141SOL    HW259321   5.238   3.468  10.701
19142SOL     OW59322  11.006   1.864  11.560
19142SOL    HW159323  10.968   1.896  11.478
19142SOL    HW259324  10.970   1.776  11.569
19143SOL     OW59325   2.591   2.228   4.872
19143SOL    HW159326   2.512   2.189   4.911
19143SOL    HW259327   2.630   2.157   4.821
19144SOL     OW59328   1.140   2.123   2.281
19144SOL    HW159329   1.183   2.186   2.222
19144SOL    HW259330   1.058   2.166   2.305
19145SOL     OW59331   9.375   9.221  14.606
19145SOL    HW159332   9.418   9.268  14.535
19145SOL    HW259333   9.297   9.183  14.566
19146SOL     OW59334  12.163   6.075   9.805
19146SOL    HW159335  12.176   6.120   9.888
19146SOL    HW259336  12.068   6.076   9.792
19147SOL     OW59337   0.392   6.404  11.336
19147SOL    HW159338   0.366   6.423  11.246
19147SOL    HW259339   0.310   6.400  11.384
19148SOL     OW59340   4.689  13.355  13.924
19148SOL    HW159341   4.682  13.334  14.017
19148SOL    HW259342   4.640  13.285  13.880
19149SOL     OW59343   2.069   2.788  13.623
19149SOL    HW159344   2.154   2.797  13.581
19149SOL    HW259345   2.077   2.711  13.679
19150SOL     OW59346   4.867   6.799  11.886
19150SOL    HW159347   4.796   6.844  11.933
19150SOL    HW259348   4.826   6.765  11.807
19151SOL     OW59349   1.169   9.703  14.018
19151SOL    HW159350   1.207   9.773  13.965
19151SOL    HW259351   1.245   9.661  14.060
19152SOL     OW59352   1.056  11.843   3.475
19152SOL    HW159353   1.023  11.870   3.390
19152SOL    HW259354   1.149  11.825   3.461
19153SOL     OW59355  10.103   2.749  14.743
19153SOL    HW159356  10.150   2.748  14.660
19153SOL    HW259357  10.015   2.720  14.722
19154SOL     OW59358   3.759   5.244   6.554
19154SOL    HW159359   3.762   5.335   6.583
19154SOL    HW259360   3.851   5.218   6.547
19155SOL     OW59361   6.948   6.985   1.174
19155SOL    HW159362   6.862   7.017   1.148
19155SOL    HW259363   6.999   7.064   1.191
19156SOL     OW59364   9.470   3.034   4.983
19156SOL    HW159365   9.464   3.005   4.892
19156SOL    HW259366   9.445   3.127   4.980
19157SOL     OW59367   0.288   3.264   1.603
19157SOL    HW159368   0.236   3.188   1.576
19157SOL    HW259369   0.340   3.232   1.677
19158SOL     OW59370  12.205   2.148  13.366
19158SOL    HW159371  12.241   2.235  13.348
19158SOL    HW259372  12.127   2.164  13.418
19159SOL     OW59373  14.208   9.892   8.731
19159SOL    HW159374  14.285   9.849   8.693
19159SOL    HW259375  14.162   9.823   8.779
19160SOL     OW59376   3.833   3.544  13.309
19160SOL    HW159377   3.882   3.506  13.237
19160SOL    HW259378   3.780   3.613  13.269
19161SOL     OW59379   0.207  12.358   0.398
19161SOL    HW159380   0.290  12.394   0.429
19161SOL    HW259381   0.187  12.287   0.459
19162SOL     OW59382  14.175  10.842  13.673
19162SOL    HW159383  14.158  10.922  13.623
19162SOL    HW259384  14.257  10.860  13.719
19163SOL     OW59385   3.134  14.484   4.142
19163SOL    HW159386   3.224  14.491   4.111
19163SOL    HW259387   3.111  14.573   4.170
19164SOL     OW59388   9.812  11.912   3.722
19164SOL    HW159389   9.822  11.903   3.627
19164SOL    HW259390   9.901  11.902   3.756
19165SOL     OW59391   6.020   8.814  10.231
19165SOL    HW159392   6.038   8.772  10.315
19165SOL    HW259393   5.999   8.904  10.253
19166SOL     OW59394   5.489   8.266   1.631
19166SOL    HW159395   5.507   8.206   1.559
19166SOL    HW259396   5.467   8.349   1.590
19167SOL     OW59397   6.262  10.572   4.339
19167SOL    HW159398   6.290  10.576   4.430
19167SOL    HW259399   6.262  10.479   4.318
19168SOL     OW59400   0.509   4.491   9.549
19168SOL    HW159401   0.577   4.435   9.513
19168SOL    HW259402   0.534   4.503   9.641
19169SOL     OW59403  10.675   8.348   6.867
19169SOL    HW159404  10.685   8.444   6.872
19169SOL    HW259405  10.585   8.332   6.895
19170SOL     OW59406   6.303   3.564   2.540
19170SOL    HW159407   6.318   3.597   2.452
19170SOL    HW259408   6.208   3.570   2.552
19171SOL     OW59409   3.883  11.440   6.629
19171SOL    HW159410   3.789  11.420   6.625
19171SOL    HW259411   3.893  11.489   6.711
19172SOL     OW59412  10.296  14.071   9.604
19172SOL    HW159413  10.261  14.160   9.598
19172SOL    HW259414  10.376  14.073   9.552
19173SOL     OW59415  11.220  11.140  10.313
19173SOL    HW159416  11.191  11.078  10.380
19173SOL    HW259417  11.165  11.217  10.326
19174SOL     OW59418   3.625  11.547  11.703
19174SOL    HW159419   3.537  11.559  11.737
19174SOL    HW259420   3.656  11.636  11.685
19175SOL     OW59421   6.569   6.423   8.361
19175SOL    HW159422   6.501   6.488   8.377
19175SOL    HW259423   6.537   6.373   8.285
19176SOL     OW59424   7.719   4.330   3.619
19176SOL    HW159425   7.764   4.410   3.593
19176SOL    HW259426   7.752   4.312   3.707
19177SOL     OW59427   0.773  12.643   6.454
19177SOL    HW159428   0.813  12.721   6.493
19177SOL    HW259429   0.708  12.678   6.394
19178SOL     OW59430  11.315   2.798   0.724
19178SOL    HW159431  11.308   2.781   0.818
19178SOL    HW259432  11.232   2.842   0.702
19179SOL     OW59433   3.342  11.627   8.260
19179SOL    HW159434   3.344  11.630   8.164
19179SOL    HW259435   3.256  11.662   8.284
19180SOL     OW59436   2.884   5.976  13.061
19180SOL    HW159437   2.795   5.977  13.097
19180SOL    HW259438   2.914   6.066  13.071
19181SOL     OW59439  11.001  11.637  10.258
19181SOL    HW159440  11.038  11.548  10.256
19181SOL    HW259441  11.026  11.672  10.344
19182SOL     OW59442  11.161  13.744   3.640
19182SOL    HW159443  11.239  13.711   3.684
19182SOL    HW259444  11.140  13.678   3.574
19183SOL     OW59445   3.489   5.011   0.433
19183SOL    HW159446   3.513   4.951   0.504
19183SOL    HW259447   3.556   4.996   0.366
19184SOL     OW59448   7.013  13.328  14.278
19184SOL    HW159449   7.030  13.412  14.320
19184SOL    HW259450   6.922  13.308  14.300
19185SOL     OW59451   9.101   4.376  13.818
19185SOL    HW159452   9.083   4.379  13.912
19185SOL    HW259453   9.029   4.324  13.782
19186SOL     OW59454  10.240  14.229  10.860
19186SOL    HW159455  10.209  14.151  10.907
19186SOL    HW259456  10.310  14.196  10.803
19187SOL     OW59457   8.786  11.014  10.640
19187SOL    HW159458   8.829  11.047  10.562
19187SOL    HW259459   8.801  10.919  10.638
19188SOL     OW59460  12.428   5.344   5.988
19188SOL    HW159461  12.384   5.414   5.939
19188SOL    HW259462  12.391   5.349   6.076
19189SOL     OW59463  11.560   1.288   2.162
19189SOL    HW159464  11.501   1.348   2.116
19189SOL    HW259465  11.643   1.335   2.167
19190SOL     OW59466   8.701   4.175   7.715
19190SOL    HW159467   8.609   4.149   7.708
19190SOL    HW259468   8.749   4.096   7.692
19191SOL     OW59469  10.136   8.322  12.410
19191SOL    HW159470  10.102   8.398  12.458
19191SOL    HW259471  10.193   8.359  12.344
19192SOL     OW59472   1.143   3.154  10.144
19192SOL    HW159473   1.101   3.068  10.137
19192SOL    HW259474   1.236   3.136  10.130
19193SOL     OW59475   3.431   9.411   4.148
19193SOL    HW159476   3.425   9.375   4.060
19193SOL    HW259477   3.408   9.504   4.138
19194SOL     OW59478   0.621   4.208   3.643
19194SOL    HW159479   0.620   4.154   3.722
19194SOL    HW259480   0.579   4.154   3.576
19195SOL     OW59481  13.589   1.386  14.506
19195SOL    HW159482  13.537   1.312  14.473
19195SOL    HW259483  13.679   1.365  14.479
19196SOL     OW59484  11.145   5.879   6.421
19196SOL    HW159485  11.068   5.899   6.367
19196SOL    HW259486  11.124   5.913   6.508
19197SOL     OW59487   9.960   1.432   9.345
19197SOL    HW159488   9.869   1.460   9.331
19197SOL    HW259489  10.013   1.499   9.301
19198SOL     OW59490  11.430   5.608   4.534
19198SOL    HW159491  11.520   5.633   4.553
19198SOL    HW259492  11.432   5.512   4.536
19199SOL     OW59493  12.867   0.819   0.373
19199SOL    HW159494  12.894   0.730   0.349
19199SOL    HW259495  12.946   0.871   0.364
19200SOL     OW59496  10.146   8.204   7.269
19200SOL    HW159497  10.099   8.204   7.351
19200SOL    HW259498  10.238   8.215   7.294
19201SOL     OW59499   2.391   5.682   0.483
19201SOL    HW159500   2.361   5.591   0.478
19201SOL    HW259501   2.355   5.715   0.565
19202SOL     OW59502  13.273   9.199   2.470
19202SOL    HW159503  13.220   9.257   2.415
19202SOL    HW259504  13.363   9.227   2.455
19203SOL     OW59505   2.402  13.523   5.498
19203SOL    HW159506   2.390  13.537   5.404
19203SOL    HW259507   2.314  13.531   5.535
19204SOL     OW59508   2.823  11.140  12.266
19204SOL    HW159509   2.803  11.225  12.227
19204SOL    HW259510   2.915  11.146  12.291
19205SOL     OW59511   1.985  12.169  11.643
19205SOL    HW159512   1.993  12.133  11.554
19205SOL    HW259513   1.955  12.259  11.629
19206SOL     OW59514   8.406   2.472   7.975
19206SOL    HW159515   8.321   2.515   7.989
19206SOL    HW259516   8.427   2.433   8.060
19207SOL     OW59517   8.498   5.061   9.725
19207SOL    HW159518   8.531   5.145   9.758
19207SOL    HW259519   8.552   5.043   9.648
19208SOL     OW59520   3.661   7.029  10.818
19208SOL    HW159521   3.658   6.942  10.779
19208SOL    HW259522   3.747   7.034  10.859
19209SOL     OW59523   7.536   9.694   3.395
19209SOL    HW159524   7.471   9.635   3.356
19209SOL    HW259525   7.539   9.668   3.487
19210SOL     OW59526   2.749   1.530   5.173
19210SOL    HW159527   2.770   1.519   5.081
19210SOL    HW259528   2.696   1.454   5.196
19211SOL     OW59529   9.828   7.503  13.534
19211SOL    HW159530   9.845   7.433  13.597
19211SOL    HW259531   9.809   7.580  13.588
19212SOL     OW59532   5.171   7.744   3.583
19212SOL    HW159533   5.198   7.835   3.585
19212SOL    HW259534   5.171   7.721   3.490
19213SOL     OW59535   3.227   1.060  14.367
19213SOL    HW159536   3.199   0.981  14.413
19213SOL    HW259537   3.148   1.114  14.362
19214SOL     OW59538   8.389   9.005   9.451
19214SOL    HW159539   8.349   8.998   9.537
19214SOL    HW259540   8.329   8.958   9.393
19215SOL     OW59541   6.660   0.377   9.124
19215SOL    HW159542   6.746   0.387   9.081
19215SOL    HW259543   6.625   0.295   9.089
19216SOL     OW59544   6.930   8.437   0.419
19216SOL    HW159545   6.927   8.419   0.513
19216SOL    HW259546   6.858   8.498   0.404
19217SOL     OW59547  11.680  13.584  12.274
19217SOL    HW159548  11.626  13.519  12.228
19217SOL    HW259549  11.721  13.535  12.346
19218SOL     OW59550   4.573   3.075   8.303
19218SOL    HW159551   4.626   3.009   8.259
19218SOL    HW259552   4.549   3.035   8.387
19219SOL     OW59553   9.739   7.652   5.395
19219SOL    HW159554   9.774   7.735   5.365
19219SOL    HW259555   9.644   7.658   5.379
19220SOL     OW59556   0.007   2.758  14.169
19220SOL    HW159557   0.053   2.697  14.111
19220SOL    HW259558   0.060   2.838  14.165
19221SOL     OW59559   8.677  13.106   6.978
19221SOL    HW159560   8.590  13.145   6.984
19221SOL    HW259561   8.698  13.078   7.067
19222SOL     OW59562   8.838  14.185  14.762
19222SOL    HW159563   8.929  14.166  14.742
19222SOL    HW259564   8.836  14.279  14.781
19223SOL     OW59565  13.265  14.263  13.345
19223SOL    HW159566  13.223  14.347  13.361
19223SOL    HW259567  13.193  14.200  13.343
19224SOL     OW59568   5.419  12.921  11.995
19224SOL    HW159569   5.438  12.966  12.078
19224SOL    HW259570   5.443  12.830  12.011
19225SOL     OW59571   3.860  11.766   4.308
19225SOL    HW159572   3.865  11.760   4.403
19225SOL    HW259573   3.949  11.746   4.278
19226SOL     OW59574   2.189   9.238  13.837
19226SOL    HW159575   2.110   9.185  13.840
19226SOL    HW259576   2.209   9.247  13.744
19227SOL     OW59577   6.499  13.284  13.288
19227SOL    HW159578   6.429  13.348  13.281
19227SOL    HW259579   6.531  13.274  13.198
19228SOL     OW59580   4.199  14.615   2.683
19228SOL    HW159581   4.231  14.574   2.764
19228SOL    HW259582   4.239  14.563   2.613
19229SOL     OW59583  12.092  12.259   5.680
19229SOL    HW159584  12.035  12.279   5.754
19229SOL    HW259585  12.138  12.341   5.662
19230SOL     OW59586   8.408   0.182   7.617
19230SOL    HW159587   8.386   0.125   7.544
19230SOL    HW259588   8.429   0.266   7.576
19231SOL     OW59589   0.007   3.018   9.061
19231SOL    HW159590   0.065   3.002   8.986
19231SOL    HW259591   0.062   3.063   9.124
19232SOL     OW59592   2.372   6.926  14.351
19232SOL    HW159593   2.283   6.908  14.321
19232SOL    HW259594   2.367   7.012  14.391
19233SOL     OW59595  12.226   3.247  10.728
19233SOL    HW159596  12.181   3.299  10.794
19233SOL    HW259597  12.214   3.156  10.756
19234SOL     OW59598   2.190   6.504  10.488
19234SOL    HW159599   2.223   6.490  10.399
19234SOL    HW259600   2.095   6.511  10.477
19235SOL     OW59601  11.860   2.225   5.227
19235SOL    HW159602  11.939   2.231   5.172
19235SOL    HW259603  11.862   2.305   5.279
19236SOL     OW59604   6.352   3.637   7.897
19236SOL    HW159605   6.424   3.623   7.836
19236SOL    HW259606   6.393   3.674   7.975
19237SOL     OW59607  14.118  11.099   2.739
19237SOL    HW159608  14.177  11.152   2.793
19237SOL    HW259609  14.170  11.077   2.661
19238SOL     OW59610   0.737  12.666   2.679
19238SOL    HW159611   0.727  12.577   2.713
19238SOL    HW259612   0.718  12.722   2.754
19239SOL     OW59613   9.813   2.368   3.878
19239SOL    HW159614   9.848   2.358   3.967
19239SOL    HW259615   9.784   2.281   3.853
19240SOL     OW59616   2.008   4.630   8.044
19240SOL    HW159617   2.072   4.567   8.011
19240SOL    HW259618   2.059   4.708   8.063
19241SOL     OW59619  13.710   9.493   6.426
19241SOL    HW159620  13.696   9.412   6.476
19241SOL    HW259621  13.697   9.563   6.490
19242SOL     OW59622   0.341  13.389   5.311
19242SOL    HW159623   0.353  13.365   5.403
19242SOL    HW259624   0.417  13.352   5.266
19243SOL     OW59625  11.087   5.251   4.378
19243SOL    HW159626  11.163   5.272   4.432
19243SOL    HW259627  11.084   5.155   4.376
19244SOL     OW59628   3.277   8.336   9.319
19244SOL    HW159629   3.291   8.305   9.229
19244SOL    HW259630   3.317   8.269   9.374
19245SOL     OW59631   2.239   4.633  14.616
19245SOL    HW159632   2.257   4.727  14.616
19245SOL    HW259633   2.231   4.609  14.708
19246SOL     OW59634   7.191   6.736  13.895
19246SOL    HW159635   7.251   6.675  13.939
19246SOL    HW259636   7.197   6.711  13.802
19247SOL     OW59637   7.753  13.154   1.257
19247SOL    HW159638   7.675  13.148   1.202
19247SOL    HW259639   7.809  13.082   1.228
19248SOL     OW59640   9.870  10.004   2.794
19248SOL    HW159641   9.920  10.086   2.796
19248SOL    HW259642   9.796  10.020   2.852
19249SOL     OW59643   9.288   8.260  10.167
19249SOL    HW159644   9.303   8.260  10.262
19249SOL    HW259645   9.293   8.352  10.142
19250SOL     OW59646   0.672  10.264   4.444
19250SOL    HW159647   0.702  10.240   4.532
19250SOL    HW259648   0.738  10.228   4.385
19251SOL     OW59649   3.954   2.674  12.515
19251SOL    HW159650   4.008   2.609  12.561
19251SOL    HW259651   4.008   2.702  12.441
19252SOL     OW59652  13.401   2.531   7.143
19252SOL    HW159653  13.329   2.480   7.180
19252SOL    HW259654  13.436   2.580   7.217
19253SOL     OW59655   0.855   2.895   8.789
19253SOL    HW159656   0.939   2.904   8.832
19253SOL    HW259657   0.794   2.867   8.858
19254SOL     OW59658   3.764   3.996  13.762
19254SOL    HW159659   3.690   3.977  13.704
19254SOL    HW259660   3.828   3.929  13.741
19255SOL     OW59661  12.673   6.098   2.578
19255SOL    HW159662  12.620   6.034   2.530
19255SOL    HW259663  12.610   6.145   2.633
19256SOL     OW59664  11.952  14.163  10.452
19256SOL    HW159665  11.943  14.214  10.372
19256SOL    HW259666  12.039  14.123  10.446
19257SOL     OW59667   9.807   2.017   8.162
19257SOL    HW159668   9.853   1.936   8.141
19257SOL    HW259669   9.873   2.071   8.206
19258SOL     OW59670   0.058  10.868   3.042
19258SOL    HW159671  14.864  10.880   3.113
19258SOL    HW259672   0.014  10.900   2.964
19259SOL     OW59673   7.419  13.217  13.926
19259SOL    HW159674   7.377  13.268  13.995
19259SOL    HW259675   7.513  13.229  13.940
19260SOL     OW59676   1.170   2.568  12.134
19260SOL    HW159677   1.168   2.563  12.230
19260SOL    HW259678   1.094   2.516  12.106
19261SOL     OW59679   5.687   7.871   0.294
19261SOL    HW159680   5.625   7.799   0.303
19261SOL    HW259681   5.639   7.949   0.322
19262SOL     OW59682   5.656   2.468   0.404
19262SOL    HW159683   5.675   2.492   0.313
19262SOL    HW259684   5.637   2.375   0.400
19263SOL     OW59685   7.780   1.268   2.747
19263SOL    HW159686   7.771   1.173   2.738
19263SOL    HW259687   7.867   1.280   2.785
19264SOL     OW59688   2.354  10.785  10.176
19264SOL    HW159689   2.283  10.838  10.211
19264SOL    HW259690   2.311  10.712  10.132
19265SOL     OW59691   0.427   9.405   0.531
19265SOL    HW159692   0.381   9.472   0.481
19265SOL    HW259693   0.357   9.355   0.574
19266SOL     OW59694   2.829   4.127  11.109
19266SOL    HW159695   2.763   4.076  11.157
19266SOL    HW259696   2.910   4.113  11.159
19267SOL     OW59697  10.838   0.342   7.605
19267SOL    HW159698  10.823   0.435   7.590
19267SOL    HW259699  10.823   0.331   7.699
19268SOL     OW59700  13.890  13.703   0.364
19268SOL    HW159701  13.838  13.777   0.334
19268SOL    HW259702  13.828  13.630   0.368
19269SOL     OW59703   9.765   3.247   6.119
19269SOL    HW159704   9.699   3.312   6.143
19269SOL    HW259705   9.795   3.211   6.202
19270SOL     OW59706   8.425  12.432  11.300
19270SOL    HW159707   8.349  12.400  11.253
19270SOL    HW259708   8.442  12.364  11.367
19271SOL     OW59709  13.036   7.947   9.732
19271SOL    HW159710  13.070   7.996   9.807
19271SOL    HW259711  13.060   8.000   9.656
19272SOL     OW59712   8.721  12.334  12.999
19272SOL    HW159713   8.791  12.359  12.939
19272SOL    HW259714   8.712  12.409  13.058
19273SOL     OW59715   7.868   9.639  11.541
19273SOL    HW159716   7.851   9.668  11.631
19273SOL    HW259717   7.840   9.547  11.540
19274SOL     OW59718  14.858   6.627   8.297
19274SOL    HW159719  14.837   6.697   8.235
19274SOL    HW259720  14.815   6.654   8.378
19275SOL     OW59721  10.387   3.452  10.269
19275SOL    HW159722  10.355   3.539  10.248
19275SOL    HW259723  10.409   3.456  10.362
19276SOL     OW59724   0.463   4.457   4.346
19276SOL    HW159725   0.476   4.423   4.258
19276SOL    HW259726   0.551   4.470   4.380
19277SOL     OW59727  13.431  10.478   4.656
19277SOL    HW159728  13.434  10.431   4.740
19277SOL    HW259729  13.499  10.437   4.603
19278SOL     OW59730   6.172   8.319  10.799
19278SOL    HW159731   6.169   8.381  10.726
19278SOL    HW259732   6.175   8.374  10.877
19279SOL     OW59733   6.651   8.366  12.175
19279SOL    HW159734   6.644   8.391  12.083
19279SOL    HW259735   6.705   8.435  12.215
19280SOL     OW59736   5.039   3.027   3.556
19280SOL    HW159737   5.116   2.974   3.537
19280SOL    HW259738   5.075   3.111   3.586
19281SOL     OW59739   2.910  14.417   7.163
19281SOL    HW159740   2.873  14.465   7.090
19281SOL    HW259741   2.837  14.366   7.199
19282SOL     OW59742   4.540  13.704   9.332
19282SOL    HW159743   4.510  13.742   9.249
19282SOL    HW259744   4.490  13.623   9.340
19283SOL     OW59745  10.828   4.684   3.117
19283SOL    HW159746  10.794   4.664   3.029
19283SOL    HW259747  10.813   4.778   3.127
19284SOL     OW59748   3.187   4.788  13.352
19284SOL    HW159749   3.181   4.765  13.444
19284SOL    HW259750   3.279   4.814  13.340
19285SOL     OW59751   8.915  10.721   6.957
19285SOL    HW159752   8.830  10.692   6.989
19285SOL    HW259753   8.919  10.688   6.867
19286SOL     OW59754   5.058  14.107   7.878
19286SOL    HW159755   5.060  14.015   7.905
19286SOL    HW259756   5.086  14.106   7.786
19287SOL     OW59757   1.876   8.736   8.349
19287SOL    HW159758   1.963   8.708   8.378
19287SOL    HW259759   1.827   8.747   8.431
19288SOL     OW59760  13.671   7.706   6.412
19288SOL    HW159761  13.762   7.680   6.427
19288SOL    HW259762  13.622   7.624   6.418
19289SOL     OW59763   1.207  14.122   5.651
19289SOL    HW159764   1.245  14.189   5.593
19289SOL    HW259765   1.216  14.159   5.739
19290SOL     OW59766  11.516  13.916   4.303
19290SOL    HW159767  11.459  13.990   4.325
19290SOL    HW259768  11.468  13.839   4.334
19291SOL     OW59769  11.816  10.993  12.605
19291SOL    HW159770  11.794  10.903  12.629
19291SOL    HW259771  11.859  10.985  12.520
19292SOL     OW59772   5.881   7.090   2.718
19292SOL    HW159773   5.837   7.173   2.705
19292SOL    HW259774   5.815   7.024   2.698
19293SOL     OW59775  14.467  11.611   0.397
19293SOL    HW159776  14.392  11.580   0.448
19293SOL    HW259777  14.465  11.706   0.409
19294SOL     OW59778   2.908   6.891   2.235
19294SOL    HW159779   2.904   6.939   2.152
19294SOL    HW259780   2.992   6.846   2.232
19295SOL     OW59781   2.016  11.272   6.891
19295SOL    HW159782   2.058  11.187   6.908
19295SOL    HW259783   2.085  11.336   6.908
19296SOL     OW59784   8.383  13.883   1.576
19296SOL    HW159785   8.363  13.972   1.547
19296SOL    HW259786   8.320  13.828   1.528
19297SOL     OW59787   4.456   3.592   6.198
19297SOL    HW159788   4.489   3.568   6.285
19297SOL    HW259789   4.533   3.618   6.149
19298SOL     OW59790  13.274  13.706  10.268
19298SOL    HW159791  13.261  13.751  10.185
19298SOL    HW259792  13.233  13.621  10.255
19299SOL     OW59793  14.197   6.131   6.664
19299SOL    HW159794  14.212   6.213   6.616
19299SOL    HW259795  14.246   6.065   6.614
19300SOL     OW59796   8.260   3.883   5.869
19300SOL    HW159797   8.283   3.974   5.853
19300SOL    HW259798   8.226   3.851   5.786
19301SOL     OW59799   5.303   5.155   6.494
19301SOL    HW159800   5.234   5.115   6.440
19301SOL    HW259801   5.259   5.227   6.540
19302SOL     OW59802   7.440   5.853  14.844
19302SOL    HW159803   7.421   5.795  14.771
19302SOL    HW259804   7.475   5.933  14.804
19303SOL     OW59805  10.383   4.717   7.729
19303SOL    HW159806  10.376   4.639   7.675
19303SOL    HW259807  10.298   4.761   7.719
19304SOL     OW59808   5.208   5.228   7.393
19304SOL    HW159809   5.156   5.177   7.330
19304SOL    HW259810   5.156   5.226   7.474
19305SOL     OW59811   3.691   3.047  13.131
19305SOL    HW159812   3.623   3.012  13.189
19305SOL    HW259813   3.676   3.141  13.131
19306SOL     OW59814   4.719  13.315  13.219
19306SOL    HW159815   4.772  13.282  13.292
19306SOL    HW259816   4.705  13.407  13.239
19307SOL     OW59817   5.447   8.321  13.208
19307SOL    HW159818   5.488   8.299  13.125
19307SOL    HW259819   5.402   8.403  13.192
19308SOL     OW59820   2.027   2.956   3.903
19308SOL    HW159821   1.993   3.008   3.830
19308SOL    HW259822   1.951   2.939   3.958
19309SOL     OW59823   0.225   7.806  11.766
19309SOL    HW159824   0.255   7.884  11.813
19309SOL    HW259825   0.213   7.740  11.834
19310SOL     OW59826   2.080  11.114  13.435
19310SOL    HW159827   2.093  11.019  13.435
19310SOL    HW259828   1.990  11.126  13.465
19311SOL     OW59829   8.598  13.065   3.964
19311SOL    HW159830   8.598  13.066   3.868
19311SOL    HW259831   8.622  12.976   3.988
19312SOL     OW59832  12.658   2.525   4.652
19312SOL    HW159833  12.724   2.455   4.651
19312SOL    HW259834  12.574   2.480   4.656
19313SOL     OW59835   9.905  10.674   9.683
19313SOL    HW159836   9.945  10.757   9.711
19313SOL    HW259837   9.901  10.621   9.763
19314SOL     OW59838   8.022   8.795   5.980
19314SOL    HW159839   8.089   8.855   6.012
19314SOL    HW259840   7.974   8.768   6.058
19315SOL     OW59841   3.309  13.697   7.561
19315SOL    HW159842   3.327  13.791   7.565
19315SOL    HW259843   3.335  13.664   7.647
19316SOL     OW59844  10.867  10.169   0.670
19316SOL    HW159845  10.899  10.241   0.616
19316SOL    HW259846  10.898  10.089   0.626
19317SOL     OW59847   7.186   0.148   6.659
19317SOL    HW159848   7.238   0.098   6.722
19317SOL    HW259849   7.159   0.226   6.707
19318SOL     OW59850   3.688   9.334   7.758
19318SOL    HW159851   3.715   9.423   7.780
19318SOL    HW259852   3.765   9.296   7.715
19319SOL     OW59853   9.452   0.644   1.740
19319SOL    HW159854   9.508   0.677   1.670
19319SOL    HW259855   9.502   0.573   1.779
19320SOL     OW59856   6.286  14.399   3.071
19320SOL    HW159857   6.279  14.486   3.032
19320SOL    HW259858   6.277  14.338   2.998
19321SOL     OW59859  13.675   2.636  13.708
19321SOL    HW159860  13.749   2.576  13.720
19321SOL    HW259861  13.636   2.643  13.794
19322SOL     OW59862  13.185  11.015   8.713
19322SOL    HW159863  13.156  11.006   8.805
19322SOL    HW259864  13.103  11.022   8.664
19323SOL     OW59865   2.007  11.877   1.577
19323SOL    HW159866   1.945  11.843   1.512
19323SOL    HW259867   2.040  11.799   1.622
19324SOL     OW59868  12.173   7.035  11.319
19324SOL    HW159869  12.172   7.111  11.378
19324SOL    HW259870  12.086   6.997  11.328
19325SOL     OW59871   7.523   2.692   0.896
19325SOL    HW159872   7.488   2.630   0.833
19325SOL    HW259873   7.517   2.647   0.981
19326SOL     OW59874   9.970   7.377   5.858
19326SOL    HW159875   9.956   7.306   5.921
19326SOL    HW259876  10.049   7.352   5.810
19327SOL     OW59877   8.458   6.353   2.277
19327SOL    HW159878   8.473   6.262   2.304
19327SOL    HW259879   8.433   6.397   2.358
19328SOL     OW59880   5.197  11.994   1.029
19328SOL    HW159881   5.123  11.951   1.073
19328SOL    HW259882   5.246  12.035   1.100
19329SOL     OW59883  10.953  11.302   9.561
19329SOL    HW159884  10.929  11.332   9.474
19329SOL    HW259885  11.047  11.317   9.568
19330SOL     OW59886   3.132   9.379  11.948
19330SOL    HW159887   3.197   9.388  12.018
19330SOL    HW259888   3.060   9.330  11.989
19331SOL     OW59889   4.108   2.598  11.842
19331SOL    HW159890   4.066   2.512  11.835
19331SOL    HW259891   4.192   2.580  11.886
19332SOL     OW59892   4.114   6.692   4.423
19332SOL    HW159893   4.209   6.694   4.422
19332SOL    HW259894   4.091   6.620   4.482
19333SOL     OW59895   1.352  10.488   6.980
19333SOL    HW159896   1.303  10.513   6.902
19333SOL    HW259897   1.330  10.554   7.046
19334SOL     OW59898   3.218   8.123   3.330
19334SOL    HW159899   3.299   8.141   3.378
19334SOL    HW259900   3.163   8.200   3.346
19335SOL     OW59901   3.159  12.059   7.298
19335SOL    HW159902   3.116  12.140   7.327
19335SOL    HW259903   3.252  12.082   7.295
19336SOL     OW59904   7.719   9.057   0.290
19336SOL    HW159905   7.786   9.120   0.266
19336SOL    HW259906   7.752   8.972   0.260
19337SOL     OW59907   3.697   4.347  10.277
19337SOL    HW159908   3.612   4.358  10.321
19337SOL    HW259909   3.684   4.272  10.219
19338SOL     OW59910  12.107   2.369  10.376
19338SOL    HW159911  12.197   2.339  10.378
19338SOL    HW259912  12.082   2.368  10.284
19339SOL     OW59913  14.791   6.705   2.757
19339SOL    HW159914  14.806   6.670   2.669
19339SOL    HW259915  14.815   6.797   2.751
19340SOL     OW59916  11.635  14.006   6.223
19340SOL    HW159917  11.559  13.996   6.280
19340SOL    HW259918  11.616  14.085   6.173
19341SOL     OW59919  11.703   9.216   3.174
19341SOL    HW159920  11.729   9.124   3.164
19341SOL    HW259921  11.616   9.221   3.134
19342SOL     OW59922   7.504   6.187  11.823
19342SOL    HW159923   7.501   6.130  11.899
19342SOL    HW259924   7.579   6.156  11.772
19343SOL     OW59925   1.760   3.472  14.664
19343SOL    HW159926   1.834   3.411  14.671
19343SOL    HW259927   1.683   3.416  14.659
19344SOL     OW59928  13.536   3.892   7.050
19344SOL    HW159929  13.470   3.948   7.090
19344SOL    HW259930  13.497   3.804   7.050
19345SOL     OW59931   8.454   8.684   1.660
19345SOL    HW159932   8.446   8.617   1.592
19345SOL    HW259933   8.364   8.701   1.687
19346SOL     OW59934   5.728  13.236   0.558
19346SOL    HW159935   5.802  13.296   0.571
19346SOL    HW259936   5.660  13.291   0.518
19347SOL     OW59937   3.499   8.818   1.769
19347SOL    HW159938   3.443   8.747   1.801
19347SOL    HW259939   3.452   8.853   1.693
19348SOL     OW59940   2.226   3.962   0.656
19348SOL    HW159941   2.177   4.024   0.710
19348SOL    HW259942   2.194   3.976   0.567
19349SOL     OW59943   1.935   3.688   4.816
19349SOL    HW159944   1.959   3.685   4.723
19349SOL    HW259945   1.877   3.764   4.823
19350SOL     OW59946  11.538   1.378   8.770
19350SOL    HW159947  11.619   1.337   8.740
19350SOL    HW259948  11.540   1.367   8.865
19351SOL     OW59949   0.867  11.341   4.612
19351SOL    HW159950   0.798  11.405   4.630
19351SOL    HW259951   0.898  11.314   4.698
19352SOL     OW59952  12.742   5.651  10.970
19352SOL    HW159953  12.703   5.631  11.055
19352SOL    HW259954  12.832   5.678  10.991
19353SOL     OW59955   9.786  10.158   3.401
19353SOL    HW159956   9.764  10.066   3.382
19353SOL    HW259957   9.706  10.194   3.438
19354SOL     OW59958   3.958  13.593  10.060
19354SOL    HW159959   3.922  13.631   9.980
19354SOL    HW259960   3.913  13.638  10.130
19355SOL     OW59961   1.727   6.389   7.725
19355SOL    HW159962   1.757   6.318   7.781
19355SOL    HW259963   1.734   6.355   7.636
19356SOL     OW59964  14.552   3.931   6.817
19356SOL    HW159965  14.543   4.014   6.770
19356SOL    HW259966  14.575   3.957   6.906
19357SOL     OW59967   3.479   1.016   8.548
19357SOL    HW159968   3.385   1.027   8.532
19357SOL    HW259969   3.493   0.922   8.551
19358SOL     OW59970   2.666   3.863  10.758
19358SOL    HW159971   2.595   3.926  10.771
19358SOL    HW259972   2.696   3.879  10.668
19359SOL     OW59973   4.145  13.032   6.057
19359SOL    HW159974   4.165  13.030   6.151
19359SOL    HW259975   4.151  12.940   6.030
19360SOL     OW59976   5.571   4.791  11.508
19360SOL    HW159977   5.541   4.787  11.598
19360SOL    HW259978   5.529   4.717  11.465
19361SOL     OW59979   3.782   4.741   9.634
19361SOL    HW159980   3.866   4.783   9.618
19361SOL    HW259981   3.780   4.726   9.729
19362SOL     OW59982  11.364  10.037   4.943
19362SOL    HW159983  11.361   9.997   5.029
19362SOL    HW259984  11.422   9.981   4.892
19363SOL     OW59985   0.685   2.750  12.674
19363SOL    HW159986   0.728   2.667  12.652
19363SOL    HW259987   0.610   2.725  12.728
19364SOL     OW59988  10.388   1.631  10.925
19364SOL    HW159989  10.353   1.665  11.007
19364SOL    HW259990  10.317   1.640  10.863
19365SOL     OW59991   2.443  10.605   3.754
19365SOL    HW159992   2.445  10.557   3.671
19365SOL    HW259993   2.535  10.623   3.773
19366SOL     OW59994   6.874   3.963   6.380
19366SOL    HW159995   6.883   3.871   6.356
19366SOL    HW259996   6.964   3.993   6.395
19367SOL     OW59997  12.909  10.735  14.865
19367SOL    HW159998  12.870  10.653  14.835
19367SOL    HW259999  12.973  10.758  14.798
19368SOL     OW60000  10.484   8.524  11.830
19368SOL    HW160001  10.402   8.477  11.815
19368SOL    HW260002  10.551   8.464  11.797
19369SOL     OW60003   7.811   8.653  12.714
19369SOL    HW160004   7.738   8.679  12.658
19369SOL    HW260005   7.804   8.558  12.721
19370SOL     OW60006   1.904  14.840  14.272
19370SOL    HW160007   1.823  14.790  14.275
19370SOL    HW260008   1.972  14.779  14.299
19371SOL     OW60009   7.370   2.023  12.102
19371SOL    HW160010   7.459   2.017  12.067
19371SOL    HW260011   7.315   1.989  12.032
19372SOL     OW60012   7.681   3.673   8.051
19372SOL    HW160013   7.654   3.760   8.079
19372SOL    HW260014   7.696   3.681   7.957
19373SOL     OW60015   4.211  12.224   1.161
19373SOL    HW160016   4.171  12.171   1.230
19373SOL    HW260017   4.139  12.273   1.124
19374SOL     OW60018   5.748   0.685   5.387
19374SOL    HW160019   5.811   0.745   5.427
19374SOL    HW260020   5.677   0.679   5.450
19375SOL     OW60021   7.029   3.047   8.060
19375SOL    HW160022   7.085   3.009   7.992
19375SOL    HW260023   6.995   3.128   8.021
19376SOL     OW60024  12.538  11.048  13.434
19376SOL    HW160025  12.588  10.973  13.465
19376SOL    HW260026  12.485  11.014  13.361
19377SOL     OW60027   3.508   8.173   4.232
19377SOL    HW160028   3.431   8.123   4.258
19377SOL    HW260029   3.577   8.108   4.219
19378SOL     OW60030   7.313   3.923   9.671
19378SOL    HW160031   7.254   3.910   9.597
19378SOL    HW260032   7.399   3.940   9.631
19379SOL     OW60033   2.270  14.458   8.566
19379SOL    HW160034   2.340  14.409   8.521
19379SOL    HW260035   2.305  14.474   8.653
19380SOL     OW60036  10.292   0.772   0.289
19380SOL    HW160037  10.383   0.799   0.276
19380SOL    HW260038  10.297   0.701   0.353
19381SOL     OW60039   3.772  10.407   9.744
19381SOL    HW160040   3.824  10.327   9.744
19381SOL    HW260041   3.834  10.477   9.766
19382SOL     OW60042   3.566   2.440   8.092
19382SOL    HW160043   3.477   2.471   8.076
19382SOL    HW260044   3.577   2.367   8.031
19383SOL     OW60045  11.298  13.318   0.268
19383SOL    HW160046  11.275  13.275   0.350
19383SOL    HW260047  11.214  13.346   0.231
19384SOL     OW60048  12.165   8.680   5.059
19384SOL    HW160049  12.079   8.708   5.028
19384SOL    HW260050  12.147   8.626   5.136
19385SOL     OW60051   7.028   9.677   9.244
19385SOL    HW160052   7.055   9.663   9.153
19385SOL    HW260053   7.068   9.761   9.267
19386SOL     OW60054  12.711  13.403   3.844
19386SOL    HW160055  12.645  13.450   3.895
19386SOL    HW260056  12.762  13.354   3.910
19387SOL     OW60057  12.437  14.542  12.915
19387SOL    HW160058  12.420  14.518  12.824
19387SOL    HW260059  12.415  14.635  12.919
19388SOL     OW60060   2.113   5.166   0.940
19388SOL    HW160061   2.164   5.105   0.887
19388SOL    HW260062   2.029   5.121   0.954
19389SOL     OW60063  11.857  11.965  14.777
19389SOL    HW160064  11.875  12.037  14.837
19389SOL    HW260065  11.768  11.938  14.798
19390SOL     OW60066  10.788   5.942  12.719
19390SOL    HW160067  10.754   6.024  12.683
19390SOL    HW260068  10.781   5.880  12.647
19391SOL     OW60069   8.993   1.304  12.668
19391SOL    HW160070   9.077   1.324  12.707
19391SOL    HW260071   8.981   1.369  12.600
19392SOL     OW60072   2.165   9.949   0.407
19392SOL    HW160073   2.204  10.035   0.420
19392SOL    HW260074   2.170   9.908   0.494
19393SOL     OW60075   5.787   9.696  14.098
19393SOL    HW160076   5.759   9.642  14.024
19393SOL    HW260077   5.727   9.770  14.098
19394SOL     OW60078   6.266   8.504   0.179
19394SOL    HW160079   6.283   8.465   0.265
19394SOL    HW260080   6.186   8.462   0.149
19395SOL     OW60081   2.550   6.438   6.087
19395SOL    HW160082   2.611   6.395   6.146
19395SOL    HW260083   2.470   6.448   6.139
19396SOL     OW60084  12.760   0.013  12.928
19396SOL    HW160085  12.852   0.003  12.905
19396SOL    HW260086  12.737  14.799  12.970
19397SOL     OW60087   0.683   4.190   1.325
19397SOL    HW160088   0.754   4.253   1.340
19397SOL    HW260089   0.721   4.105   1.349
19398SOL     OW60090  10.780  14.830   3.683
19398SOL    HW160091  10.759  14.761   3.620
19398SOL    HW260092  10.695  14.862   3.713
19399SOL     OW60093  12.389   9.003  12.197
19399SOL    HW160094  12.319   8.943  12.170
19399SOL    HW260095  12.347   9.089  12.199
19400SOL     OW60096   9.729   9.262  10.301
19400SOL    HW160097   9.780   9.280  10.222
19400SOL    HW260098   9.713   9.349  10.339
19401SOL     OW60099  12.972  14.479  14.825
19401SOL    HW160100  12.924  14.396  14.827
19401SOL    HW260101  13.029  14.472  14.747
19402SOL     OW60102   1.384  14.635   5.744
19402SOL    HW160103   1.476  14.645   5.723
19402SOL    HW260104   1.338  14.651   5.662
19403SOL     OW60105  12.970   2.724  13.824
19403SOL    HW160106  12.889   2.775  13.818
19403SOL    HW260107  13.029   2.779  13.875
19404SOL     OW60108   2.416   7.700   0.028
19404SOL    HW160109   2.383   7.754  14.826
19404SOL    HW260110   2.387   7.746   0.107
19405SOL     OW60111   6.917  13.780   9.734
19405SOL    HW160112   7.010  13.767   9.752
19405SOL    HW260113   6.901  13.727   9.655
19406SOL     OW60114   9.745   0.475   5.666
19406SOL    HW160115   9.686   0.435   5.602
19406SOL    HW260116   9.788   0.546   5.619
19407SOL     OW60117   1.294   0.899   7.443
19407SOL    HW160118   1.270   0.988   7.468
19407SOL    HW260119   1.227   0.844   7.484
19408SOL     OW60120   6.152  12.921   9.355
19408SOL    HW160121   6.118  12.921   9.445
19408SOL    HW260122   6.105  12.850   9.312
19409SOL     OW60123   3.371  11.143  13.456
19409SOL    HW160124   3.287  11.149  13.411
19409SOL    HW260125   3.359  11.196  13.535
19410SOL     OW60126   1.533  12.622  10.156
19410SOL    HW160127   1.543  12.679  10.079
19410SOL    HW260128   1.544  12.534  10.121
19411SOL     OW60129   3.250   1.360  10.849
19411SOL    HW160130   3.322   1.395  10.798
19411SOL    HW260131   3.176   1.356  10.788
19412SOL     OW60132  13.186  13.205   0.167
19412SOL    HW160133  13.185  13.110   0.179
19412SOL    HW260134  13.120  13.222   0.100
19413SOL     OW60135   4.536   0.027   2.542
19413SOL    HW160136   4.615  14.842   2.536
19413SOL    HW260137   4.471  14.850   2.490
19414SOL     OW60138   6.606   2.505   9.729
19414SOL    HW160139   6.602   2.410   9.731
19414SOL    HW260140   6.614   2.527   9.636
19415SOL     OW60141   7.246  12.590  10.475
19415SOL    HW160142   7.213  12.587  10.565
19415SOL    HW260143   7.275  12.501  10.456
19416SOL     OW60144   7.356   0.023   2.046
19416SOL    HW160145   7.442  14.855   2.063
19416SOL    HW260146   7.304  14.820   2.012
19417SOL     OW60147   8.367   8.264  11.872
19417SOL    HW160148   8.405   8.203  11.936
19417SOL    HW260149   8.284   8.225  11.848
19418SOL     OW60150  13.028   0.525  11.631
19418SOL    HW160151  13.037   0.434  11.661
19418SOL    HW260152  13.105   0.541  11.578
19419SOL     OW60153  13.780  12.107   2.542
19419SOL    HW160154  13.688  12.105   2.567
19419SOL    HW260155  13.780  12.106   2.447
19420SOL     OW60156   4.408   6.338  11.938
19420SOL    HW160157   4.428   6.424  11.975
19420SOL    HW260158   4.494   6.296  11.929
19421SOL     OW60159   2.125   9.104   2.905
19421SOL    HW160160   2.129   9.176   2.968
19421SOL    HW260161   2.074   9.036   2.950
19422SOL     OW60162   1.261   1.818  10.905
19422SOL    HW160163   1.293   1.890  10.850
19422SOL    HW260164   1.165   1.824  10.898
19423SOL     OW60165   3.842   8.714  13.075
19423SOL    HW160166   3.870   8.672  12.994
19423SOL    HW260167   3.763   8.763  13.050
19424SOL     OW60168  12.333  11.297  10.827
19424SOL    HW160169  12.369  11.233  10.766
19424SOL    HW260170  12.410  11.346  10.857
19425SOL     OW60171   3.369   9.773   0.999
19425SOL    HW160172   3.334   9.691   1.033
19425SOL    HW260173   3.428   9.805   1.067
19426SOL     OW60174  14.013   7.705  11.697
19426SOL    HW160175  14.034   7.796  11.719
19426SOL    HW260176  14.031   7.657  11.778
19427SOL     OW60177   8.035  14.732  14.785
19427SOL    HW160178   8.052  14.815  14.830
19427SOL    HW260179   8.075  14.742  14.699
19428SOL     OW60180   7.513   7.077   5.059
19428SOL    HW160181   7.516   7.003   4.999
19428SOL    HW260182   7.564   7.145   5.016
19429SOL     OW60183   3.398   5.970  10.180
19429SOL    HW160184   3.413   6.042  10.241
19429SOL    HW260185   3.315   5.932  10.207
19430SOL     OW60186   6.260   9.698   6.606
19430SOL    HW160187   6.187   9.760   6.606
19430SOL    HW260188   6.325   9.738   6.548
19431SOL     OW60189   9.508  13.551  12.010
19431SOL    HW160190   9.444  13.482  11.991
19431SOL    HW260191   9.564  13.513  12.078
19432SOL     OW60192  14.103   8.621  12.476
19432SOL    HW160193  14.017   8.618  12.516
19432SOL    HW260194  14.090   8.586  12.388
19433SOL     OW60195   4.135  14.322  10.288
19433SOL    HW160196   4.126  14.415  10.310
19433SOL    HW260197   4.229  14.310  10.275
19434SOL     OW60198  11.242   4.795  14.074
19434SOL    HW160199  11.167   4.850  14.096
19434SOL    HW260200  11.294   4.793  14.154
19435SOL     OW60201  10.234   6.324  12.937
19435SOL    HW160202  10.154   6.316  12.885
19435SOL    HW260203  10.222   6.261  13.008
19436SOL     OW60204   4.838   7.070  12.477
19436SOL    HW160205   4.920   7.074  12.526
19436SOL    HW260206   4.864   7.041  12.389
19437SOL     OW60207   8.175   6.757   3.177
19437SOL    HW160208   8.108   6.791   3.117
19437SOL    HW260209   8.184   6.665   3.152
19438SOL     OW60210   0.339   7.558   8.954
19438SOL    HW160211   0.302   7.477   8.919
19438SOL    HW260212   0.279   7.627   8.924
19439SOL     OW60213   5.643   3.715   2.775
19439SOL    HW160214   5.549   3.731   2.762
19439SOL    HW260215   5.654   3.716   2.870
19440SOL     OW60216  12.555   9.432  12.711
19440SOL    HW160217  12.555   9.347  12.667
19440SOL    HW260218  12.589   9.413  12.798
19441SOL     OW60219  14.454  14.186  11.090
19441SOL    HW160220  14.439  14.109  11.144
19441SOL    HW260221  14.463  14.152  11.001
19442SOL     OW60222   4.442   5.869  12.929
19442SOL    HW160223   4.451   5.821  12.846
19442SOL    HW260224   4.406   5.954  12.904
19443SOL     OW60225   5.567   5.293  14.844
19443SOL    HW160226   5.591   5.372   0.025
19443SOL    HW260227   5.535   5.326  14.761
19444SOL     OW60228   0.315   0.683   8.318
19444SOL    HW160229   0.402   0.703   8.354
19444SOL    HW260230   0.322   0.594   8.285
19445SOL     OW60231   9.506   6.924   0.911
19445SOL    HW160232   9.419   6.943   0.876
19445SOL    HW260233   9.506   6.964   0.998
19446SOL     OW60234  11.371  13.989  13.424
19446SOL    HW160235  11.293  13.942  13.393
19446SOL    HW260236  11.371  13.975  13.519
19447SOL     OW60237   6.853   3.676  12.522
19447SOL    HW160238   6.933   3.685  12.573
19447SOL    HW260239   6.875   3.612  12.453
19448SOL     OW60240   4.879  12.173   8.005
19448SOL    HW160241   4.858  12.109   7.937
19448SOL    HW260242   4.934  12.238   7.962
19449SOL     OW60243   3.185   9.636   2.307
19449SOL    HW160244   3.198   9.726   2.338
19449SOL    HW260245   3.249   9.584   2.355
19450SOL     OW60246  10.545   3.215  11.609
19450SOL    HW160247  10.584   3.290  11.565
19450SOL    HW260248  10.580   3.218  11.698
19451SOL     OW60249   5.816   2.364  11.726
19451SOL    HW160250   5.888   2.414  11.687
19451SOL    HW260251   5.859   2.302  11.785
19452SOL     OW60252  11.052   9.784  14.366
19452SOL    HW160253  11.079   9.718  14.302
19452SOL    HW260254  10.958   9.794  14.352
19453SOL     OW60255   2.994   3.670   7.022
19453SOL    HW160256   3.020   3.751   7.066
19453SOL    HW260257   3.061   3.658   6.954
19454SOL     OW60258   3.367  13.772   6.768
19454SOL    HW160259   3.429  13.813   6.708
19454SOL    HW260260   3.423  13.735   6.837
19455SOL     OW60261   4.859   1.387  13.964
19455SOL    HW160262   4.899   1.331  13.897
19455SOL    HW260263   4.774   1.347  13.982
19456SOL     OW60264   7.835   7.173   3.519
19456SOL    HW160265   7.876   7.107   3.463
19456SOL    HW260266   7.895   7.247   3.516
19457SOL     OW60267  10.716   2.098  10.385
19457SOL    HW160268  10.714   2.192  10.365
19457SOL    HW260269  10.708   2.094  10.480
19458SOL     OW60270  11.643   1.927  14.811
19458SOL    HW160271  11.548   1.932  14.822
19458SOL    HW260272  11.659   1.839  14.777
19459SOL     OW60273   1.535   8.510  11.438
19459SOL    HW160274   1.545   8.430  11.490
19459SOL    HW260275   1.510   8.478  11.351
19460SOL     OW60276   6.030  12.078  14.117
19460SOL    HW160277   6.017  11.997  14.067
19460SOL    HW260278   5.944  12.120  14.117
19461SOL     OW60279   3.633   6.952  13.717
19461SOL    HW160280   3.578   6.876  13.733
19461SOL    HW260281   3.715   6.932  13.762
19462SOL     OW60282  14.151   1.275   1.409
19462SOL    HW160283  14.122   1.198   1.359
19462SOL    HW260284  14.208   1.323   1.350
19463SOL     OW60285   0.959   0.904   6.992
19463SOL    HW160286   1.034   0.957   7.021
19463SOL    HW260287   0.989   0.814   7.001
19464SOL     OW60288  12.408  14.181   0.233
19464SOL    HW160289  12.348  14.223   0.171
19464SOL    HW260290  12.419  14.092   0.199
19465SOL     OW60291  14.500  12.841  12.675
19465SOL    HW160292  14.574  12.866  12.621
19465SOL    HW260293  14.502  12.902  12.749
19466SOL     OW60294   5.264  11.847  10.850
19466SOL    HW160295   5.173  11.827  10.870
19466SOL    HW260296   5.268  11.943  10.853
19467SOL     OW60297  13.482   1.233   1.361
19467SOL    HW160298  13.397   1.257   1.324
19467SOL    HW260299  13.468   1.234   1.456
19468SOL     OW60300   2.965   7.790  10.858
19468SOL    HW160301   2.956   7.830  10.945
19468SOL    HW260302   3.059   7.782  10.845
19469SOL     OW60303   7.496  14.395   7.502
19469SOL    HW160304   7.415  14.344   7.506
19469SOL    HW260305   7.560  14.339   7.546
19470SOL     OW60306   0.707   7.196  12.376
19470SOL    HW160307   0.778   7.133  12.388
19470SOL    HW260308   0.678   7.183  12.286
19471SOL     OW60309   3.121   6.508   2.934
19471SOL    HW160310   3.132   6.417   2.905
19471SOL    HW260311   3.043   6.538   2.887
19472SOL     OW60312  11.512  10.236   8.983
19472SOL    HW160313  11.513  10.204   9.073
19472SOL    HW260314  11.578  10.184   8.937
19473SOL     OW60315   6.793  13.983   2.049
19473SOL    HW160316   6.845  14.063   2.039
19473SOL    HW260317   6.847  13.914   2.011
19474SOL     OW60318   2.160  13.875  12.218
19474SOL    HW160319   2.159  13.837  12.306
19474SOL    HW260320   2.104  13.952  12.225
19475SOL     OW60321   7.125   6.940   7.276
19475SOL    HW160322   7.070   6.957   7.199
19475SOL    HW260323   7.145   6.847   7.271
19476SOL     OW60324  12.520   0.914   1.244
19476SOL    HW160325  12.580   0.975   1.288
19476SOL    HW260326  12.514   0.947   1.154
19477SOL     OW60327   4.103  14.665   7.760
19477SOL    HW160328   4.196  14.645   7.762
19477SOL    HW260329   4.098  14.752   7.719
19478SOL     OW60330   3.473   1.359  12.157
19478SOL    HW160331   3.456   1.432  12.216
19478SOL    HW260332   3.448   1.281  12.207
19479SOL     OW60333   9.770   3.726   9.701
19479SOL    HW160334   9.749   3.766   9.617
19479SOL    HW260335   9.786   3.634   9.680
19480SOL     OW60336   8.477   6.516   7.733
19480SOL    HW160337   8.568   6.484   7.730
19480SOL    HW260338   8.424   6.439   7.712
19481SOL     OW60339   3.701  13.876   9.740
19481SOL    HW160340   3.722  13.967   9.716
19481SOL    HW260341   3.628  13.852   9.683
19482SOL     OW60342   9.139  10.038  10.504
19482SOL    HW160343   9.197   9.961  10.511
19482SOL    HW260344   9.173  10.099  10.570
19483SOL     OW60345   7.600   0.714   4.335
19483SOL    HW160346   7.591   0.665   4.253
19483SOL    HW260347   7.598   0.647   4.403
19484SOL     OW60348  10.540   2.305  13.451
19484SOL    HW160349  10.519   2.367  13.521
19484SOL    HW260350  10.456   2.270  13.424
19485SOL     OW60351   0.395   4.794   1.125
19485SOL    HW160352   0.335   4.776   1.053
19485SOL    HW260353   0.381   4.722   1.186
19486SOL     OW60354   9.152  10.787   9.457
19486SOL    HW160355   9.213  10.730   9.410
19486SOL    HW260356   9.136  10.742   9.540
19487SOL     OW60357   4.899   5.300   0.279
19487SOL    HW160358   4.904   5.367   0.211
19487SOL    HW260359   4.990   5.281   0.299
19488SOL     OW60360   8.581   8.675  11.672
19488SOL    HW160361   8.500   8.720  11.695
19488SOL    HW260362   8.581   8.597  11.727
19489SOL     OW60363   6.202  13.722   9.095
19489SOL    HW160364   6.294  13.709   9.071
19489SOL    HW260365   6.161  13.638   9.076
19490SOL     OW60366  12.018   9.288  11.327
19490SOL    HW160367  11.926   9.267  11.338
19490SOL    HW260368  12.028   9.301  11.232
19491SOL     OW60369   3.661   6.135   5.238
19491SOL    HW160370   3.589   6.144   5.175
19491SOL    HW260371   3.638   6.058   5.290
19492SOL     OW60372   2.381  11.331   5.477
19492SOL    HW160373   2.342  11.247   5.499
19492SOL    HW260374   2.472  11.323   5.505
19493SOL     OW60375  13.735   2.815   4.176
19493SOL    HW160376  13.712   2.894   4.224
19493SOL    HW260377  13.741   2.843   4.085
19494SOL     OW60378   7.193  10.260  11.798
19494SOL    HW160379   7.260  10.202  11.835
19494SOL    HW260380   7.131  10.201  11.755
19495SOL     OW60381   2.846   1.888  11.705
19495SOL    HW160382   2.848   1.945  11.781
19495SOL    HW260383   2.924   1.833  11.714
19496SOL     OW60384   5.906  13.324   5.013
19496SOL    HW160385   5.872  13.250   4.962
19496SOL    HW260386   6.001  13.317   5.004
19497SOL     OW60387  11.193   9.107  10.929
19497SOL    HW160388  11.257   9.070  10.867
19497SOL    HW260389  11.108   9.087  10.890
19498SOL     OW60390   9.930   1.812   7.556
19498SOL    HW160391  10.020   1.798   7.586
19498SOL    HW260392   9.931   1.784   7.464
19499SOL     OW60393   3.352   1.618   0.219
19499SOL    HW160394   3.386   1.707   0.213
19499SOL    HW260395   3.362   1.594   0.311
19500SOL     OW60396   4.831   1.984  14.268
19500SOL    HW160397   4.870   1.944  14.346
19500SOL    HW260398   4.848   2.078  14.278
19501SOL     OW60399   4.465   9.131   2.769
19501SOL    HW160400   4.493   9.150   2.679
19501SOL    HW260401   4.480   9.037   2.779
19502SOL     OW60402  14.788   6.453  10.666
19502SOL    HW160403  14.703   6.478  10.629
19502SOL    HW260404  14.824   6.535  10.699
19503SOL     OW60405   6.883   6.633  13.988
19503SOL    HW160406   6.917   6.721  13.971
19503SOL    HW260407   6.931   6.576  13.928
19504SOL     OW60408   5.922  10.004   8.088
19504SOL    HW160409   5.871  10.083   8.106
19504SOL    HW260410   5.936   9.965   8.174
19505SOL     OW60411   5.638   9.925  13.725
19505SOL    HW160412   5.698   9.985  13.681
19505SOL    HW260413   5.691   9.886  13.795
19506SOL     OW60414  11.260   2.863  14.820
19506SOL    HW160415  11.310   2.790  14.784
19506SOL    HW260416  11.253   2.845   0.044
19507SOL     OW60417   1.561   0.216   5.779
19507SOL    HW160418   1.637   0.158   5.773
19507SOL    HW260419   1.508   0.178   5.850
19508SOL     OW60420   9.770  11.119   6.437
19508SOL    HW160421   9.777  11.178   6.362
19508SOL    HW260422   9.678  11.092   6.438
19509SOL     OW60423   0.681   7.938  10.187
19509SOL    HW160424   0.636   8.020  10.204
19509SOL    HW260425   0.758   7.940  10.245
19510SOL     OW60426   8.858   0.789   0.601
19510SOL    HW160427   8.921   0.860   0.592
19510SOL    HW260428   8.826   0.797   0.691
19511SOL     OW60429   5.061  12.836   0.690
19511SOL    HW160430   5.137  12.838   0.632
19511SOL    HW260431   5.080  12.766   0.752
19512SOL     OW60432  10.963   1.233   1.550
19512SOL    HW160433  10.959   1.158   1.608
19512SOL    HW260434  10.967   1.195   1.462
19513SOL     OW60435  12.110   9.553   0.610
19513SOL    HW160436  12.199   9.536   0.577
19513SOL    HW260437  12.106   9.648   0.617
19514SOL     OW60438   6.760   4.489   9.389
19514SOL    HW160439   6.808   4.561   9.351
19514SOL    HW260440   6.755   4.423   9.320
19515SOL     OW60441   0.316   5.180  13.791
19515SOL    HW160442   0.369   5.253  13.757
19515SOL    HW260443   0.237   5.181  13.737
19516SOL     OW60444  11.734   2.075  11.753
19516SOL    HW160445  11.788   2.152  11.739
19516SOL    HW260446  11.670   2.077  11.682
19517SOL     OW60447  13.993   5.314   4.120
19517SOL    HW160448  14.023   5.225   4.103
19517SOL    HW260449  13.903   5.315   4.087
19518SOL     OW60450   5.022   8.898   9.792
19518SOL    HW160451   5.036   8.883   9.698
19518SOL    HW260452   5.099   8.947   9.820
19519SOL     OW60453   0.206   2.337  10.153
19519SOL    HW160454   0.224   2.412  10.097
19519SOL    HW260455   0.113   2.344  10.175
19520SOL     OW60456   8.567  11.545  11.629
19520SOL    HW160457   8.632  11.484  11.594
19520SOL    HW260458   8.590  11.629  11.589
19521SOL     OW60459   2.960   2.955  11.045
19521SOL    HW160460   2.876   2.914  11.025
19521SOL    HW260461   2.938   3.046  11.067
19522SOL     OW60462   2.653   8.090  13.153
19522SOL    HW160463   2.684   8.056  13.068
19522SOL    HW260464   2.663   8.185  13.146
19523SOL     OW60465  12.187  12.845   1.881
19523SOL    HW160466  12.256  12.803   1.829
19523SOL    HW260467  12.120  12.778   1.889
19524SOL     OW60468  12.267   1.045   4.668
19524SOL    HW160469  12.314   1.105   4.727
19524SOL    HW260470  12.195   1.010   4.721
19525SOL     OW60471   5.582   1.248   6.947
19525SOL    HW160472   5.673   1.275   6.938
19525SOL    HW260473   5.572   1.225   7.040
19526SOL     OW60474  13.420   9.847   7.281
19526SOL    HW160475  13.398   9.916   7.344
19526SOL    HW260476  13.502   9.810   7.314
19527SOL     OW60477   1.513  14.724  11.708
19527SOL    HW160478   1.607  14.706  11.713
19527SOL    HW260479   1.481  14.711  11.798
19528SOL     OW60480   5.008  11.274   2.720
19528SOL    HW160481   5.004  11.248   2.812
19528SOL    HW260482   5.099  11.302   2.708
19529SOL     OW60483   2.436   9.915   8.542
19529SOL    HW160484   2.392  10.000   8.538
19529SOL    HW260485   2.379   9.861   8.596
19530SOL     OW60486   3.739   1.964  11.792
19530SOL    HW160487   3.713   1.886  11.840
19530SOL    HW260488   3.794   2.013  11.854
19531SOL     OW60489   7.089  11.446  13.919
19531SOL    HW160490   7.142  11.462  13.997
19531SOL    HW260491   7.061  11.533  13.890
19532SOL     OW60492   9.113   6.742   0.624
19532SOL    HW160493   9.032   6.727   0.674
19532SOL    HW260494   9.082   6.776   0.540
19533SOL     OW60495  10.480  13.624   9.042
19533SOL    HW160496  10.477  13.537   9.081
19533SOL    HW260497  10.525  13.610   8.958
19534SOL     OW60498   4.782   6.308   8.007
19534SOL    HW160499   4.842   6.380   8.026
19534SOL    HW260500   4.829   6.255   7.942
19535SOL     OW60501   2.792   6.065   3.527
19535SOL    HW160502   2.881   6.044   3.496
19535SOL    HW260503   2.794   6.159   3.545
19536SOL     OW60504  14.567  14.182  13.820
19536SOL    HW160505  14.517  14.138  13.889
19536SOL    HW260506  14.658  14.173  13.847
19537SOL     OW60507  13.656   1.297   5.503
19537SOL    HW160508  13.748   1.307   5.524
19537SOL    HW260509  13.645   1.204   5.483
19538SOL     OW60510   5.319   8.053   3.100
19538SOL    HW160511   5.394   8.108   3.123
19538SOL    HW260512   5.343   7.966   3.131
19539SOL     OW60513   9.098   4.574   1.627
19539SOL    HW160514   9.120   4.487   1.594
19539SOL    HW260515   9.006   4.586   1.602
19540SOL     OW60516  14.793   5.770  11.905
19540SOL    HW160517  14.707   5.811  11.900
19540SOL    HW260518  14.807   5.757  11.999
19541SOL     OW60519   0.738   1.198   0.916
19541SOL    HW160520   0.812   1.138   0.908
19541SOL    HW260521   0.771   1.282   0.882
19542SOL     OW60522   6.151   7.384  12.643
19542SOL    HW160523   6.082   7.331  12.683
19542SOL    HW260524   6.169   7.453  12.707
19543SOL     OW60525   4.007   0.667   3.226
19543SOL    HW160526   3.952   0.590   3.208
19543SOL    HW260527   3.963   0.739   3.181
19544SOL     OW60528   2.893   4.140  12.844
19544SOL    HW160529   2.944   4.087  12.906
19544SOL    HW260530   2.820   4.084  12.818
19545SOL     OW60531   0.387   3.927   1.388
19545SOL    HW160532   0.360   4.013   1.421
19545SOL    HW260533   0.470   3.910   1.433
19546SOL     OW60534  11.312   5.827  12.179
19546SOL    HW160535  11.335   5.884  12.251
19546SOL    HW260536  11.283   5.745  12.221
19547SOL     OW60537   2.295   4.163   7.721
19547SOL    HW160538   2.277   4.254   7.700
19547SOL    HW260539   2.390   4.159   7.730
19548SOL     OW60540  11.004   0.668   6.294
19548SOL    HW160541  11.063   0.649   6.221
19548SOL    HW260542  11.037   0.749   6.332
19549SOL     OW60543   7.037   4.597   8.113
19549SOL    HW160544   7.110   4.626   8.058
19549SOL    HW260545   7.040   4.656   8.189
19550SOL     OW60546   3.066   8.248   2.927
19550SOL    HW160547   3.106   8.318   2.876
19550SOL    HW260548   3.136   8.217   2.984
19551SOL     OW60549  10.241   5.213   2.182
19551SOL    HW160550  10.329   5.180   2.198
19551SOL    HW260551  10.189   5.134   2.166
19552SOL     OW60552  14.020   6.995   7.234
19552SOL    HW160553  14.043   6.911   7.195
19552SOL    HW260554  14.030   7.058   7.162
19553SOL     OW60555  12.357   9.243   3.485
19553SOL    HW160556  12.271   9.248   3.445
19553SOL    HW260557  12.368   9.150   3.508
19554SOL     OW60558   2.019   5.632  10.562
19554SOL    HW160559   1.994   5.594  10.646
19554SOL    HW260560   1.940   5.625  10.508
19555SOL     OW60561   5.034  11.052   5.308
19555SOL    HW160562   5.034  11.083   5.399
19555SOL    HW260563   4.966  10.984   5.307
19556SOL     OW60564   8.222   7.558   5.929
19556SOL    HW160565   8.226   7.609   6.010
19556SOL    HW260566   8.292   7.493   5.939
19557SOL     OW60567   0.440  10.414  10.832
19557SOL    HW160568   0.432  10.339  10.892
19557SOL    HW260569   0.492  10.478  10.880
19558SOL     OW60570  11.935   6.149   8.397
19558SOL    HW160571  11.971   6.197   8.322
19558SOL    HW260572  11.846   6.126   8.371
19559SOL     OW60573   0.343   2.382   3.079
19559SOL    HW160574   0.248   2.391   3.076
19559SOL    HW260575   0.357   2.305   3.135
19560SOL     OW60576   6.761   7.621   4.138
19560SOL    HW160577   6.684   7.674   4.118
19560SOL    HW260578   6.817   7.629   4.061
19561SOL     OW60579   8.824   5.242  12.586
19561SOL    HW160580   8.876   5.191  12.523
19561SOL    HW260581   8.866   5.227  12.670
19562SOL     OW60582   9.475   7.008  14.319
19562SOL    HW160583   9.404   6.945  14.332
19562SOL    HW260584   9.526   6.971  14.247
19563SOL     OW60585   7.364  11.003   3.137
19563SOL    HW160586   7.347  11.016   3.044
19563SOL    HW260587   7.349  11.089   3.177
19564SOL     OW60588   7.495  12.623   2.611
19564SOL    HW160589   7.459  12.540   2.579
19564SOL    HW260590   7.420  12.667   2.652
19565SOL     OW60591  14.314   7.073   1.219
19565SOL    HW160592  14.338   7.105   1.306
19565SOL    HW260593  14.260   6.995   1.236
19566SOL     OW60594  12.330   6.424   4.046
19566SOL    HW160595  12.309   6.482   4.119
19566SOL    HW260596  12.307   6.474   3.968
19567SOL     OW60597   3.306   6.303  13.037
19567SOL    HW160598   3.292   6.278  13.128
19567SOL    HW260599   3.312   6.399  13.039
19568SOL     OW60600   5.916  12.160   0.718
19568SOL    HW160601   5.874  12.087   0.763
19568SOL    HW260602   5.845  12.202   0.668
19569SOL     OW60603  14.603  11.380   4.132
19569SOL    HW160604  14.659  11.303   4.126
19569SOL    HW260605  14.644  11.433   4.201
19570SOL     OW60606   4.779  11.908   4.927
19570SOL    HW160607   4.726  11.848   4.979
19570SOL    HW260608   4.749  11.895   4.837
19571SOL     OW60609   4.228  13.958  14.059
19571SOL    HW160610   4.140  13.924  14.048
19571SOL    HW260611   4.284  13.894  14.015
19572SOL     OW60612  11.637   1.001   9.959
19572SOL    HW160613  11.678   1.056   9.892
19572SOL    HW260614  11.669   0.913   9.941
19573SOL     OW60615   5.652   4.469  13.545
19573SOL    HW160616   5.645   4.374  13.552
19573SOL    HW260617   5.744   4.487  13.562
19574SOL     OW60618   4.132   7.636  11.669
19574SOL    HW160619   4.189   7.685  11.728
19574SOL    HW260620   4.178   7.553  11.654
19575SOL     OW60621   1.617   9.770   9.804
19575SOL    HW160622   1.709   9.747   9.817
19575SOL    HW260623   1.610   9.787   9.710
19576SOL     OW60624  14.664  10.772   8.415
19576SOL    HW160625  14.737  10.817   8.458
19576SOL    HW260626  14.591  10.833   8.422
19577SOL     OW60627  12.941   0.194   0.834
19577SOL    HW160628  12.863   0.176   0.887
19577SOL    HW260629  12.984   0.109   0.826
19578SOL     OW60630   7.007  12.739   9.893
19578SOL    HW160631   6.960  12.819   9.917
19578SOL    HW260632   7.081  12.736   9.954
19579SOL     OW60633   8.643  10.483   7.356
19579SOL    HW160634   8.663  10.571   7.324
19579SOL    HW260635   8.683  10.479   7.443
19580SOL     OW60636  11.571   4.243   0.159
19580SOL    HW160637  11.578   4.338   0.170
19580SOL    HW260638  11.477   4.225   0.163
19581SOL     OW60639   8.090   1.627   8.361
19581SOL    HW160640   8.062   1.703   8.411
19581SOL    HW260641   8.140   1.664   8.288
19582SOL     OW60642   5.769   6.581   5.441
19582SOL    HW160643   5.775   6.676   5.427
19582SOL    HW260644   5.837   6.562   5.506
19583SOL     OW60645   9.542   6.872   1.347
19583SOL    HW160646   9.505   6.924   1.418
19583SOL    HW260647   9.636   6.893   1.349
19584SOL     OW60648  13.279   4.232   5.775
19584SOL    HW160649  13.238   4.302   5.724
19584SOL    HW260650  13.299   4.164   5.711
19585SOL     OW60651  11.459   3.905  14.166
19585SOL    HW160652  11.477   3.831  14.224
19585SOL    HW260653  11.543   3.922  14.123
19586SOL     OW60654  11.889  14.105   4.711
19586SOL    HW160655  11.862  14.093   4.802
19586SOL    HW260656  11.926  14.194   4.709
19587SOL     OW60657  10.157   4.025   8.492
19587SOL    HW160658  10.118   3.979   8.567
19587SOL    HW260659  10.152   4.117   8.516
19588SOL     OW60660   2.636  11.084   3.447
19588SOL    HW160661   2.638  10.998   3.489
19588SOL    HW260662   2.550  11.088   3.405
19589SOL     OW60663   4.177   5.454   1.473
19589SOL    HW160664   4.270   5.476   1.461
19589SOL    HW260665   4.166   5.372   1.423
19590SOL     OW60666  14.743  12.325  10.693
19590SOL    HW160667  14.807  12.365  10.635
19590SOL    HW260668  14.665  12.381  10.685
19591SOL     OW60669   9.334   8.162   1.489
19591SOL    HW160670   9.335   8.258   1.495
19591SOL    HW260671   9.391   8.133   1.560
19592SOL     OW60672  11.416   7.640   3.705
19592SOL    HW160673  11.468   7.689   3.770
19592SOL    HW260674  11.383   7.565   3.754
19593SOL     OW60675  11.775   8.331  10.036
19593SOL    HW160676  11.716   8.256  10.042
19593SOL    HW260677  11.860   8.293  10.015
19594SOL     OW60678  13.287  13.597   2.109
19594SOL    HW160679  13.233  13.600   2.188
19594SOL    HW260680  13.273  13.509   2.074
19595SOL     OW60681   5.819   5.861  12.508
19595SOL    HW160682   5.882   5.931  12.491
19595SOL    HW260683   5.863   5.804  12.571
19596SOL     OW60684   0.450   2.027   8.362
19596SOL    HW160685   0.499   2.109   8.369
19596SOL    HW260686   0.484   1.985   8.284
19597SOL     OW60687   9.476   4.854   8.005
19597SOL    HW160688   9.454   4.867   8.098
19597SOL    HW260689   9.532   4.929   7.983
19598SOL     OW60690   1.327   4.136   5.293
19598SOL    HW160691   1.248   4.102   5.336
19598SOL    HW260692   1.346   4.217   5.340
19599SOL     OW60693   4.705   1.863   5.965
19599SOL    HW160694   4.740   1.781   5.999
19599SOL    HW260695   4.610   1.853   5.968
19600SOL     OW60696   5.138   4.197  11.258
19600SOL    HW160697   5.089   4.273  11.287
19600SOL    HW260698   5.228   4.213  11.287
19601SOL     OW60699  13.865  12.099   5.226
19601SOL    HW160700  13.851  12.021   5.279
19601SOL    HW260701  13.793  12.098   5.162
19602SOL     OW60702   7.170   2.997   1.080
19602SOL    HW160703   7.180   2.916   1.030
19602SOL    HW260704   7.260   3.020   1.106
19603SOL     OW60705   1.312   5.838   7.276
19603SOL    HW160706   1.364   5.828   7.196
19603SOL    HW260707   1.265   5.921   7.263
19604SOL     OW60708   1.733   5.993   1.125
19604SOL    HW160709   1.753   6.056   1.056
19604SOL    HW260710   1.701   6.047   1.197
19605SOL     OW60711   8.877  13.403  14.158
19605SOL    HW160712   8.916  13.401  14.245
19605SOL    HW260713   8.925  13.337  14.108
19606SOL     OW60714   1.266   7.336   6.519
19606SOL    HW160715   1.203   7.314   6.587
19606SOL    HW260716   1.306   7.418   6.548
19607SOL     OW60717   8.526   0.805   5.421
19607SOL    HW160718   8.583   0.749   5.474
19607SOL    HW260719   8.519   0.886   5.472
19608SOL     OW60720  12.311   8.625   0.838
19608SOL    HW160721  12.353   8.615   0.752
19608SOL    HW260722  12.352   8.558   0.893
19609SOL     OW60723   1.934   7.650   9.070
19609SOL    HW160724   1.840   7.668   9.078
19609SOL    HW260725   1.946   7.630   8.977
19610SOL     OW60726   6.414   2.983   3.643
19610SOL    HW160727   6.387   2.898   3.676
19610SOL    HW260728   6.403   2.977   3.548
19611SOL     OW60729   1.093   8.720   7.971
19611SOL    HW160730   1.113   8.662   7.897
19611SOL    HW260731   1.162   8.786   7.968
19612SOL     OW60732  13.845  14.695   2.056
19612SOL    HW160733  13.849  14.676   2.150
19612SOL    HW260734  13.756  14.727   2.041
19613SOL     OW60735  11.232   1.065   9.094
19613SOL    HW160736  11.248   1.003   9.165
19613SOL    HW260737  11.312   1.118   9.090
19614SOL     OW60738   5.871   5.034   9.806
19614SOL    HW160739   5.818   5.111   9.786
19614SOL    HW260740   5.808   4.970   9.841
19615SOL     OW60741  12.779  13.563   8.080
19615SOL    HW160742  12.699  13.611   8.103
19615SOL    HW260743  12.834  13.629   8.037
19616SOL     OW60744  11.681   7.653   6.618
19616SOL    HW160745  11.726   7.684   6.696
19616SOL    HW260746  11.738   7.584   6.583
19617SOL     OW60747  10.952   4.333   4.812
19617SOL    HW160748  10.875   4.287   4.779
19617SOL    HW260749  10.932   4.426   4.798
19618SOL     OW60750   4.168   5.544  13.295
19618SOL    HW160751   4.177   5.633  13.260
19618SOL    HW260752   4.139   5.557  13.385
19619SOL     OW60753   2.914   3.289   4.900
19619SOL    HW160754   2.958   3.340   4.968
19619SOL    HW260755   2.839   3.342   4.875
19620SOL     OW60756   5.879   7.638  14.315
19620SOL    HW160757   5.951   7.651  14.377
19620SOL    HW260758   5.911   7.570  14.256
19621SOL     OW60759   3.535   1.109  11.622
19621SOL    HW160760   3.524   1.156  11.540
19621SOL    HW260761   3.483   1.029  11.612
19622SOL     OW60762   9.886   0.519  13.179
19622SOL    HW160763   9.937   0.459  13.235
19622SOL    HW260764   9.820   0.462  13.138
19623SOL     OW60765   3.050   9.417   6.843
19623SOL    HW160766   3.002   9.381   6.769
19623SOL    HW260767   3.092   9.496   6.808
19624SOL     OW60768   1.034  13.341  10.186
19624SOL    HW160769   1.022  13.431  10.217
19624SOL    HW260770   1.118  13.343  10.140
19625SOL     OW60771   7.977   5.211   0.213
19625SOL    HW160772   8.028   5.238   0.289
19625SOL    HW260773   7.912   5.280   0.201
19626SOL     OW60774   3.045  11.942   1.118
19626SOL    HW160775   3.089  11.857   1.117
19626SOL    HW260776   2.991  11.940   1.197
19627SOL     OW60777   4.167   7.253   3.604
19627SOL    HW160778   4.113   7.187   3.647
19627SOL    HW260779   4.158   7.234   3.511
19628SOL     OW60780   9.315   0.253   1.501
19628SOL    HW160781   9.325   0.237   1.407
19628SOL    HW260782   9.287   0.169   1.537
19629SOL     OW60783   5.338   9.330   5.239
19629SOL    HW160784   5.294   9.277   5.173
19629SOL    HW260785   5.359   9.412   5.194
19630SOL     OW60786   7.808  13.966  11.758
19630SOL    HW160787   7.824  13.875  11.733
19630SOL    HW260788   7.738  13.961  11.823
19631SOL     OW60789   1.147   5.951  11.669
19631SOL    HW160790   1.091   6.023  11.697
19631SOL    HW260791   1.139   5.886  11.739
19632SOL     OW60792   7.163  14.142   9.925
19632SOL    HW160793   7.111  14.156  10.005
19632SOL    HW260794   7.236  14.203   9.933
19633SOL     OW60795  10.523   0.379  13.100
19633SOL    HW160796  10.473   0.457  13.078
19633SOL    HW260797  10.539   0.387  13.194
19634SOL     OW60798   0.686  12.217   3.966
19634SOL    HW160799   0.721  12.128   3.960
19634SOL    HW260800   0.748  12.270   3.915
19635SOL     OW60801   8.359   9.967   6.583
19635SOL    HW160802   8.369   9.874   6.603
19635SOL    HW260803   8.418   9.982   6.508
19636SOL     OW60804   7.476   2.384   9.270
19636SOL    HW160805   7.503   2.476   9.269
19636SOL    HW260806   7.448   2.366   9.180
19637SOL     OW60807   1.774   3.093   4.723
19637SOL    HW160808   1.847   3.100   4.785
19637SOL    HW260809   1.706   3.151   4.758
19638SOL     OW60810   2.176  10.836  11.225
19638SOL    HW160811   2.245  10.826  11.159
19638SOL    HW260812   2.223  10.836  11.308
19639SOL     OW60813  14.413   3.772   3.629
19639SOL    HW160814  14.378   3.684   3.643
19639SOL    HW260815  14.339   3.822   3.594
19640SOL     OW60816  13.741   6.539   4.780
19640SOL    HW160817  13.672   6.568   4.720
19640SOL    HW260818  13.702   6.465   4.827
19641SOL     OW60819   3.444   4.899  13.294
19641SOL    HW160820   3.499   4.848  13.235
19641SOL    HW260821   3.499   4.973  13.321
19642SOL     OW60822   8.649  14.427  12.169
19642SOL    HW160823   8.643  14.334  12.188
19642SOL    HW260824   8.690  14.432  12.083
19643SOL     OW60825  12.581  11.747  12.768
19643SOL    HW160826  12.620  11.708  12.689
19643SOL    HW260827  12.488  11.724  12.762
19644SOL     OW60828   4.072   3.247   6.841
19644SOL    HW160829   4.135   3.182   6.810
19644SOL    HW260830   4.101   3.329   6.801
19645SOL     OW60831   8.697   6.661   6.731
19645SOL    HW160832   8.746   6.589   6.691
19645SOL    HW260833   8.625   6.679   6.670
19646SOL     OW60834  10.080   7.085   3.582
19646SOL    HW160835  10.130   7.050   3.509
19646SOL    HW260836  10.054   7.173   3.554
19647SOL     OW60837  10.687  12.425  10.513
19647SOL    HW160838  10.734  12.508  10.523
19647SOL    HW260839  10.697  12.380  10.597
19648SOL     OW60840  10.881   9.839   1.800
19648SOL    HW160841  10.844   9.812   1.715
19648SOL    HW260842  10.817   9.810   1.864
19649SOL     OW60843   0.022  10.555  10.498
19649SOL    HW160844   0.039  10.597  10.414
19649SOL    HW260845  14.848  10.623  10.550
19650SOL     OW60846   3.401   7.019  12.117
19650SOL    HW160847   3.434   7.105  12.092
19650SOL    HW260848   3.358   7.033  12.201
19651SOL     OW60849   8.988  14.706   0.170
19651SOL    HW160850   8.926  14.689   0.099
19651SOL    HW260851   8.934  14.733   0.244
19652SOL     OW60852  14.701   1.486   3.932
19652SOL    HW160853  14.752   1.522   4.005
19652SOL    HW260854  14.646   1.559   3.903
19653SOL     OW60855   5.455   4.237   4.182
19653SOL    HW160856   5.361   4.227   4.195
19653SOL    HW260857   5.462   4.281   4.097
19654SOL     OW60858   7.003  10.279  11.991
19654SOL    HW160859   7.083  10.282  12.042
19654SOL    HW260860   7.031  10.299  11.901
19655SOL     OW60861  12.260  10.504   4.202
19655SOL    HW160862  12.252  10.455   4.121
19655SOL    HW260863  12.354  10.523   4.209
19656SOL     OW60864  13.095  12.239   0.907
19656SOL    HW160865  13.132  12.315   0.952
19656SOL    HW260866  13.024  12.209   0.965
19657SOL     OW60867   1.719   4.330   3.338
19657SOL    HW160868   1.647   4.272   3.360
19657SOL    HW260869   1.720   4.395   3.408
19658SOL     OW60870   8.220   0.604   3.753
19658SOL    HW160871   8.243   0.695   3.770
19658SOL    HW260872   8.289   0.571   3.696
19659SOL     OW60873   4.845   4.686   5.054
19659SOL    HW160874   4.889   4.754   5.104
19659SOL    HW260875   4.913   4.622   5.034
19660SOL     OW60876   5.882   5.085   7.297
19660SOL    HW160877   5.936   5.164   7.309
19660SOL    HW260878   5.805   5.101   7.351
19661SOL     OW60879   0.484  12.947  11.696
19661SOL    HW160880   0.433  13.013  11.743
19661SOL    HW260881   0.496  12.877  11.759
19662SOL     OW60882   5.359   9.230  10.810
19662SOL    HW160883   5.388   9.308  10.763
19662SOL    HW260884   5.439   9.188  10.840
19663SOL     OW60885   8.112   1.703   0.825
19663SOL    HW160886   8.085   1.729   0.737
19663SOL    HW260887   8.155   1.781   0.861
19664SOL     OW60888   0.861   2.392   5.960
19664SOL    HW160889   0.816   2.397   5.876
19664SOL    HW260890   0.927   2.324   5.948
19665SOL     OW60891   2.741   6.604   9.666
19665SOL    HW160892   2.660   6.554   9.654
19665SOL    HW260893   2.780   6.567   9.746
19666SOL     OW60894   8.041  12.297  12.712
19666SOL    HW160895   8.125  12.298  12.666
19666SOL    HW260896   8.003  12.212  12.692
19667SOL     OW60897   6.975   8.128   5.615
19667SOL    HW160898   6.929   8.161   5.692
19667SOL    HW260899   7.066   8.118   5.644
19668SOL     OW60900  12.725  11.004   5.898
19668SOL    HW160901  12.820  11.019   5.904
19668SOL    HW260902  12.716  10.940   5.828
19669SOL     OW60903  11.947   8.997   2.406
19669SOL    HW160904  11.873   8.936   2.398
19669SOL    HW260905  11.926   9.049   2.483
19670SOL     OW60906   3.396  10.715  13.629
19670SOL    HW160907   3.319  10.757  13.590
19670SOL    HW260908   3.360  10.638  13.674
19671SOL     OW60909   7.894   6.569   2.352
19671SOL    HW160910   7.866   6.652   2.313
19671SOL    HW260911   7.944   6.594   2.429
19672SOL     OW60912   3.189   2.195   1.680
19672SOL    HW160913   3.232   2.258   1.737
19672SOL    HW260914   3.096   2.201   1.703
19673SOL     OW60915   5.371   8.675  14.841
19673SOL    HW160916   5.402   8.720  14.762
19673SOL    HW260917   5.392   8.735   0.043
19674SOL     OW60918   0.321   5.294   9.828
19674SOL    HW160919   0.342   5.377   9.784
19674SOL    HW260920   0.259   5.318   9.896
19675SOL     OW60921   1.221   7.470   7.799
19675SOL    HW160922   1.186   7.417   7.727
19675SOL    HW260923   1.178   7.436   7.877
19676SOL     OW60924   5.278   5.446   5.187
19676SOL    HW160925   5.311   5.392   5.258
19676SOL    HW260926   5.201   5.400   5.155
19677SOL     OW60927   9.002   8.212   7.611
19677SOL    HW160928   9.096   8.194   7.616
19677SOL    HW260929   8.967   8.141   7.558
19678SOL     OW60930  11.941  14.815   3.414
19678SOL    HW160931  11.875   0.011   3.436
19678SOL    HW260932  11.926  14.796   3.322
19679SOL     OW60933   5.340   9.099  13.837
19679SOL    HW160934   5.345   9.159  13.912
19679SOL    HW260935   5.308   9.017  13.874
19680SOL     OW60936  13.807  10.994   0.807
19680SOL    HW160937  13.713  11.002   0.793
19680SOL    HW260938  13.845  10.999   0.720
19681SOL     OW60939   6.107   0.320   6.083
19681SOL    HW160940   6.168   0.376   6.131
19681SOL    HW260941   6.054   0.279   6.152
19682SOL     OW60942  11.809   7.929  10.206
19682SOL    HW160943  11.755   7.989  10.155
19682SOL    HW260944  11.751   7.856  10.227
19683SOL     OW60945   3.762  11.223  14.447
19683SOL    HW160946   3.675  11.183  14.448
19683SOL    HW260947   3.816  11.163  14.397
19684SOL     OW60948   4.574   6.317  12.788
19684SOL    HW160949   4.495   6.263  12.798
19684SOL    HW260950   4.541   6.407  12.789
19685SOL     OW60951   8.044   8.391  12.678
19685SOL    HW160952   8.075   8.471  12.719
19685SOL    HW260953   7.955   8.379  12.713
19686SOL     OW60954   5.066  10.074   1.888
19686SOL    HW160955   4.994  10.038   1.837
19686SOL    HW260956   5.136  10.088   1.824
19687SOL     OW60957   5.456   4.460   8.451
19687SOL    HW160958   5.484   4.379   8.495
19687SOL    HW260959   5.369   4.440   8.416
19688SOL     OW60960   6.553  11.183   2.845
19688SOL    HW160961   6.605  11.157   2.769
19688SOL    HW260962   6.616  11.187   2.917
19689SOL     OW60963   4.608  11.794   2.891
19689SOL    HW160964   4.613  11.713   2.941
19689SOL    HW260965   4.515  11.802   2.868
19690SOL     OW60966  10.915   9.932  13.994
19690SOL    HW160967  10.923   9.985  14.074
19690SOL    HW260968  10.858   9.860  14.020
19691SOL     OW60969  13.732  11.235   9.428
19691SOL    HW160970  13.760  11.171   9.492
19691SOL    HW260971  13.808  11.246   9.370
19692SOL     OW60972  12.086   1.069   9.229
19692SOL    HW160973  12.106   1.095   9.319
19692SOL    HW260974  12.120   1.140   9.175
19693SOL     OW60975   1.549  10.825   3.977
19693SOL    HW160976   1.484  10.793   3.915
19693SOL    HW260977   1.610  10.877   3.924
19694SOL     OW60978   4.078   6.268  11.567
19694SOL    HW160979   4.159   6.292  11.523
19694SOL    HW260980   4.083   6.311  11.652
19695SOL     OW60981   5.129   6.484   2.316
19695SOL    HW160982   5.185   6.412   2.286
19695SOL    HW260983   5.092   6.520   2.235
19696SOL     OW60984   1.533   6.544   0.401
19696SOL    HW160985   1.611   6.491   0.384
19696SOL    HW260986   1.564   6.614   0.458
19697SOL     OW60987   8.171  11.514   7.647
19697SOL    HW160988   8.265  11.528   7.659
19697SOL    HW260989   8.133  11.602   7.654
19698SOL     OW60990   6.413  14.514   0.730
19698SOL    HW160991   6.441  14.549   0.645
19698SOL    HW260992   6.426  14.585   0.792
19699SOL     OW60993  12.761   7.382   8.675
19699SOL    HW160994  12.671   7.409   8.692
19699SOL    HW260995  12.754   7.295   8.637
19700SOL     OW60996  13.946   8.396   2.811
19700SOL    HW160997  13.956   8.479   2.765
19700SOL    HW260998  13.949   8.420   2.904
19701SOL     OW60999   9.199  11.745   8.046
19701SOL    HW161000   9.166  11.780   7.963
19701SOL    HW261001   9.294  11.746   8.036
19702SOL     OW61002   5.360  13.188   5.862
19702SOL    HW161003   5.327  13.264   5.814
19702SOL    HW261004   5.286  13.128   5.864
19703SOL     OW61005  11.925   8.022   2.095
19703SOL    HW161006  11.847   8.012   2.149
19703SOL    HW261007  11.994   8.044   2.157
19704SOL     OW61008   2.405   2.104  12.912
19704SOL    HW161009   2.427   2.174  12.851
19704SOL    HW261010   2.363   2.148  12.986
19705SOL     OW61011   1.783   5.033  12.538
19705SOL    HW161012   1.784   5.127  12.521
19705SOL    HW261013   1.872   5.012  12.565
19706SOL     OW61014   6.365   5.666   4.693
19706SOL    HW161015   6.443   5.692   4.740
19706SOL    HW261016   6.380   5.695   4.603
19707SOL     OW61017   4.570   9.777   6.616
19707SOL    HW161018   4.601   9.829   6.542
19707SOL    HW261019   4.649   9.737   6.652
19708SOL     OW61020   9.125   2.212   9.313
19708SOL    HW161021   9.140   2.117   9.310
19708SOL    HW261022   9.114   2.230   9.406
19709SOL     OW61023   9.051   2.691   5.219
19709SOL    HW161024   9.036   2.596   5.211
19709SOL    HW261025   9.142   2.698   5.247
19710SOL     OW61026   4.087   2.643   9.705
19710SOL    HW161027   4.138   2.658   9.625
19710SOL    HW261028   4.030   2.720   9.712
19711SOL     OW61029  11.856   1.312   1.869
19711SOL    HW161030  11.793   1.262   1.817
19711SOL    HW261031  11.934   1.316   1.813
19712SOL     OW61032   1.958  11.328   3.272
19712SOL    HW161033   2.037  11.288   3.309
19712SOL    HW261034   1.891  11.316   3.339
19713SOL     OW61035   6.420   4.496   9.046
19713SOL    HW161036   6.403   4.561   9.114
19713SOL    HW261037   6.481   4.434   9.087
19714SOL     OW61038  10.137  13.483   6.804
19714SOL    HW161039  10.105  13.403   6.845
19714SOL    HW261040  10.223  13.461   6.770
19715SOL     OW61041   6.788   7.935  10.234
19715SOL    HW161042   6.837   7.863  10.194
19715SOL    HW261043   6.836   7.955  10.314
19716SOL     OW61044   2.627   0.394   1.833
19716SOL    HW161045   2.622   0.484   1.863
19716SOL    HW261046   2.590   0.395   1.744
19717SOL     OW61047  14.472  11.568   3.392
19717SOL    HW161048  14.407  11.628   3.356
19717SOL    HW261049  14.526  11.622   3.450
19718SOL     OW61050   1.485   9.489   1.214
19718SOL    HW161051   1.499   9.450   1.300
19718SOL    HW261052   1.554   9.451   1.159
19719SOL     OW61053   3.698  13.655   4.854
19719SOL    HW161054   3.691  13.729   4.794
19719SOL    HW261055   3.658  13.686   4.936
19720SOL     OW61056   8.908   2.129   2.603
19720SOL    HW161057   8.916   2.075   2.681
19720SOL    HW261058   8.829   2.181   2.618
19721SOL     OW61059  10.431   1.843  10.659
19721SOL    HW161060  10.366   1.774  10.669
19721SOL    HW261061  10.390   1.920  10.699
19722SOL     OW61062   7.367  13.255   0.897
19722SOL    HW161063   7.278  13.290   0.892
19722SOL    HW261064   7.398  13.280   0.984
19723SOL     OW61065   1.744  13.439  12.260
19723SOL    HW161066   1.752  13.513  12.200
19723SOL    HW261067   1.697  13.373  12.210
19724SOL     OW61068   5.588   5.120  10.512
19724SOL    HW161069   5.634   5.189  10.464
19724SOL    HW261070   5.499   5.122  10.478
19725SOL     OW61071   1.391   5.455   2.225
19725SOL    HW161072   1.314   5.507   2.248
19725SOL    HW261073   1.361   5.364   2.228
19726SOL     OW61074   3.220   2.111  12.942
19726SOL    HW161075   3.182   2.024  12.937
19726SOL    HW261076   3.315   2.097  12.949
19727SOL     OW61077   0.405  13.618  13.214
19727SOL    HW161078   0.420  13.539  13.163
19727SOL    HW261079   0.314  13.643  13.195
19728SOL     OW61080   2.091   2.388   3.112
19728SOL    HW161081   2.173   2.402   3.159
19728SOL    HW261082   2.118   2.353   3.027
19729SOL     OW61083   2.332  14.236   2.076
19729SOL    HW161084   2.309  14.291   2.150
19729SOL    HW261085   2.413  14.275   2.041
19730SOL     OW61086   6.256   1.520  13.340
19730SOL    HW161087   6.248   1.432  13.302
19730SOL    HW261088   6.226   1.509  13.431
19731SOL     OW61089   3.562  12.115   0.664
19731SOL    HW161090   3.584  12.208   0.666
19731SOL    HW261091   3.636  12.072   0.706
19732SOL     OW61092   9.427  13.194   3.336
19732SOL    HW161093   9.336  13.180   3.312
19732SOL    HW261094   9.470  13.220   3.255
19733SOL     OW61095  14.294  10.856  11.495
19733SOL    HW161096  14.281  10.951  11.494
19733SOL    HW261097  14.342  10.840  11.576
19734SOL     OW61098   3.835  13.706  12.902
19734SOL    HW161099   3.789  13.649  12.963
19734SOL    HW261100   3.910  13.655  12.872
19735SOL     OW61101   5.939   4.498   4.224
19735SOL    HW161102   5.851   4.478   4.195
19735SOL    HW261103   5.930   4.524   4.316
19736SOL     OW61104   7.942  12.766   8.457
19736SOL    HW161105   8.000  12.701   8.496
19736SOL    HW261106   7.960  12.846   8.506
19737SOL     OW61107   8.026  11.625  14.372
19737SOL    HW161108   8.076  11.546  14.351
19737SOL    HW261109   7.986  11.652  14.289
19738SOL     OW61110  11.408   1.533   2.661
19738SOL    HW161111  11.340   1.596   2.682
19738SOL    HW261112  11.437   1.558   2.573
19739SOL     OW61113   1.280   8.127  10.931
19739SOL    HW161114   1.202   8.075  10.912
19739SOL    HW261115   1.296   8.112  11.025
19740SOL     OW61116   4.834   6.649  12.760
19740SOL    HW161117   4.844   6.682  12.671
19740SOL    HW261118   4.880   6.565  12.761
19741SOL     OW61119   0.737   4.543   0.724
19741SOL    HW161120   0.788   4.479   0.675
19741SOL    HW261121   0.753   4.521   0.816
19742SOL     OW61122  11.584   9.412   8.428
19742SOL    HW161123  11.500   9.395   8.471
19742SOL    HW261124  11.650   9.377   8.487
19743SOL     OW61125   5.795   0.705  13.168
19743SOL    HW161126   5.839   0.696  13.084
19743SOL    HW261127   5.716   0.756  13.149
19744SOL     OW61128   5.236  12.621   2.237
19744SOL    HW161129   5.227  12.702   2.187
19744SOL    HW261130   5.329  12.617   2.259
19745SOL     OW61131  14.371   6.735   3.448
19745SOL    HW161132  14.367   6.687   3.365
19745SOL    HW261133  14.284   6.725   3.485
19746SOL     OW61134  12.475  13.322   1.563
19746SOL    HW161135  12.477  13.247   1.503
19746SOL    HW261136  12.564  13.356   1.563
19747SOL     OW61137  10.025   0.199  11.112
19747SOL    HW161138  10.041   0.222  11.203
19747SOL    HW261139  10.036   0.281  11.064
19748SOL     OW61140   4.552   7.803   2.884
19748SOL    HW161141   4.504   7.882   2.861
19748SOL    HW261142   4.597   7.777   2.804
19749SOL     OW61143   6.036  13.550  11.753
19749SOL    HW161144   6.085  13.564  11.835
19749SOL    HW261145   6.100  13.510  11.694
19750SOL     OW61146   5.937   7.945  14.378
19750SOL    HW161147   5.855   7.985  14.350
19750SOL    HW261148   5.938   7.860  14.333
19751SOL     OW61149   4.644   9.962   4.318
19751SOL    HW161150   4.621  10.054   4.336
19751SOL    HW261151   4.740   9.961   4.319
19752SOL     OW61152   1.191  10.071   2.797
19752SOL    HW161153   1.192  10.004   2.728
19752SOL    HW261154   1.115  10.126   2.776
19753SOL     OW61155  10.571   1.416   0.580
19753SOL    HW161156  10.516   1.387   0.653
19753SOL    HW261157  10.647   1.455   0.621
19754SOL     OW61158   0.267  13.306  11.327
19754SOL    HW161159   0.229  13.366  11.391
19754SOL    HW261160   0.360  13.301  11.351
19755SOL     OW61161   5.746   2.812   9.665
19755SOL    HW161162   5.706   2.796   9.580
19755SOL    HW261163   5.726   2.735   9.717
19756SOL     OW61164   3.405   7.879   0.952
19756SOL    HW161165   3.440   7.835   1.029
19756SOL    HW261166   3.476   7.874   0.887
19757SOL     OW61167  11.982  12.705   2.507
19757SOL    HW161168  11.962  12.678   2.597
19757SOL    HW261169  12.077  12.705   2.502
19758SOL     OW61170  13.110  12.140  10.960
19758SOL    HW161171  13.041  12.168  10.900
19758SOL    HW261172  13.178  12.207  10.951
19759SOL     OW61173   1.637   1.254   1.650
19759SOL    HW161174   1.698   1.181   1.656
19759SOL    HW261175   1.572   1.225   1.586
19760SOL     OW61176   6.069   2.587   8.994
19760SOL    HW161177   6.122   2.594   9.074
19760SOL    HW261178   6.063   2.677   8.962
19761SOL     OW61179   0.702   7.020   7.341
19761SOL    HW161180   0.659   6.935   7.346
19761SOL    HW261181   0.671   7.058   7.259
19762SOL     OW61182   8.518   7.765   0.185
19762SOL    HW161183   8.431   7.783   0.220
19762SOL    HW261184   8.501   7.730   0.097
19763SOL     OW61185   2.105   5.175  10.734
19763SOL    HW161186   2.068   5.097  10.776
19763SOL    HW261187   2.185   5.194  10.783
19764SOL     OW61188   8.470   4.130   2.988
19764SOL    HW161189   8.534   4.182   2.940
19764SOL    HW261190   8.509   4.118   3.075
19765SOL     OW61191  12.645   4.848   3.814
19765SOL    HW161192  12.705   4.820   3.745
19765SOL    HW261193  12.697   4.906   3.869
19766SOL     OW61194  13.375  13.320   1.037
19766SOL    HW161195  13.406  13.230   1.025
19766SOL    HW261196  13.295  13.325   0.985
19767SOL     OW61197   9.099   8.363   0.733
19767SOL    HW161198   9.040   8.437   0.719
19767SOL    HW261199   9.102   8.319   0.648
19768SOL     OW61200   8.133   5.321  12.424
19768SOL    HW161201   8.040   5.314  12.406
19768SOL    HW261202   8.168   5.234  12.402
19769SOL     OW61203  14.829  11.539   6.915
19769SOL    HW161204  14.854  11.577   6.831
19769SOL    HW261205   0.011  11.587   6.980
19770SOL     OW61206   9.432   5.254  14.429
19770SOL    HW161207   9.349   5.298  14.416
19770SOL    HW261208   9.485   5.278  14.353
19771SOL     OW61209  14.246   8.284   6.142
19771SOL    HW161210  14.279   8.338   6.070
19771SOL    HW261211  14.226   8.199   6.101
19772SOL     OW61212   4.294   2.736   3.592
19772SOL    HW161213   4.260   2.706   3.508
19772SOL    HW261214   4.384   2.764   3.573
19773SOL     OW61215   2.754  13.795  14.020
19773SOL    HW161216   2.762  13.850  13.942
19773SOL    HW261217   2.836  13.806  14.066
19774SOL     OW61218   0.329   7.234   6.820
19774SOL    HW161219   0.418   7.198   6.826
19774SOL    HW261220   0.307   7.260   6.909
19775SOL     OW61221   3.198   6.235   1.807
19775SOL    HW161222   3.277   6.280   1.779
19775SOL    HW261223   3.126   6.287   1.772
19776SOL     OW61224  13.391   8.072  11.133
19776SOL    HW161225  13.299   8.097  11.140
19776SOL    HW261226  13.413   8.086  11.041
19777SOL     OW61227   5.927  12.676   8.767
19777SOL    HW161228   5.831  12.679   8.762
19777SOL    HW261229   5.946  12.641   8.854
19778SOL     OW61230   5.081   6.800   6.128
19778SOL    HW161231   5.012   6.765   6.184
19778SOL    HW261232   5.159   6.750   6.152
19779SOL     OW61233  10.351   7.338   9.001
19779SOL    HW161234  10.348   7.244   9.019
19779SOL    HW261235  10.385   7.377   9.082
19780SOL     OW61236   6.306   9.840   6.859
19780SOL    HW161237   6.250   9.793   6.797
19780SOL    HW261238   6.341   9.914   6.810
19781SOL     OW61239  14.576  11.864  13.688
19781SOL    HW161240  14.531  11.931  13.638
19781SOL    HW261241  14.653  11.843  13.636
19782SOL     OW61242  10.698   3.552   8.107
19782SOL    HW161243  10.733   3.478   8.156
19782SOL    HW261244  10.608   3.527   8.087
19783SOL     OW61245   8.718   2.284  11.370
19783SOL    HW161246   8.807   2.262  11.345
19783SOL    HW261247   8.678   2.200  11.394
19784SOL     OW61248   0.159   2.276   6.590
19784SOL    HW161249   0.139   2.353   6.536
19784SOL    HW261250   0.085   2.217   6.575
19785SOL     OW61251   0.103  11.942  13.206
19785SOL    HW161252   0.195  11.917  13.208
19785SOL    HW261253   0.087  11.983  13.292
19786SOL     OW61254   2.321  11.603   6.616
19786SOL    HW161255   2.344  11.659   6.690
19786SOL    HW261256   2.392  11.616   6.553
19787SOL     OW61257  12.893   3.970   2.594
19787SOL    HW161258  12.881   3.993   2.502
19787SOL    HW261259  12.884   3.874   2.596
19788SOL     OW61260   6.956   1.349  10.637
19788SOL    HW161261   6.967   1.392  10.552
19788SOL    HW261262   6.862   1.333  10.643
19789SOL     OW61263   5.231   8.687   3.114
19789SOL    HW161264   5.138   8.697   3.094
19789SOL    HW261265   5.263   8.776   3.123
19790SOL     OW61266  12.142  14.086   5.654
19790SOL    HW161267  12.195  14.095   5.733
19790SOL    HW261268  12.057  14.057   5.686
19791SOL     OW61269  13.765   1.456  14.058
19791SOL    HW161270  13.822   1.402  14.113
19791SOL    HW261271  13.688   1.402  14.043
19792SOL     OW61272   5.733   6.787   8.591
19792SOL    HW161273   5.676   6.757   8.662
19792SOL    HW261274   5.685   6.857   8.549
19793SOL     OW61275   2.509  11.215   7.713
19793SOL    HW161276   2.522  11.293   7.767
19793SOL    HW261277   2.564  11.231   7.636
19794SOL     OW61278   6.343   6.098   6.693
19794SOL    HW161279   6.360   6.004   6.691
19794SOL    HW261280   6.426   6.136   6.723
19795SOL     OW61281  10.853   3.401   6.932
19795SOL    HW161282  10.782   3.430   6.989
19795SOL    HW261283  10.826   3.426   6.844
19796SOL     OW61284   3.204  14.841   7.026
19796SOL    HW161285   3.129  14.783   7.041
19796SOL    HW261286   3.177   0.055   7.065
19797SOL     OW61287   2.057   4.661   7.641
19797SOL    HW161288   2.022   4.707   7.565
19797SOL    HW261289   1.990   4.670   7.709
19798SOL     OW61290  14.846   1.394  11.550
19798SOL    HW161291  14.830   1.338  11.626
19798SOL    HW261292  14.774   1.374  11.490
19799SOL     OW61293   1.822   1.188   9.960
19799SOL    HW161294   1.771   1.107   9.962
19799SOL    HW261295   1.773   1.246   9.902
19800SOL     OW61296   4.643   2.400   0.465
19800SOL    HW161297   4.608   2.335   0.526
19800SOL    HW261298   4.738   2.390   0.472
19801SOL     OW61299   6.125   2.054  14.716
19801SOL    HW161300   6.139   2.115  14.643
19801SOL    HW261301   6.214   2.029  14.743
19802SOL     OW61302  12.860   2.085  12.147
19802SOL    HW161303  12.831   2.037  12.225
19802SOL    HW261304  12.862   2.018  12.078
19803SOL     OW61305   1.829  13.057   2.230
19803SOL    HW161306   1.898  13.068   2.296
19803SOL    HW261307   1.873  13.076   2.147
19804SOL     OW61308   5.565   8.240   0.630
19804SOL    HW161309   5.595   8.326   0.661
19804SOL    HW261310   5.567   8.184   0.708
19805SOL     OW61311   5.521  11.300   8.830
19805SOL    HW161312   5.548  11.385   8.866
19805SOL    HW261313   5.517  11.314   8.735
19806SOL     OW61314   4.287   9.540   2.031
19806SOL    HW161315   4.346   9.493   1.971
19806SOL    HW261316   4.311   9.508   2.118
19807SOL     OW61317   6.663   2.591  12.342
19807SOL    HW161318   6.590   2.652  12.326
19807SOL    HW261319   6.704   2.623  12.423
19808SOL     OW61320   0.037   4.694   6.589
19808SOL    HW161321  14.836   4.677   6.526
19808SOL    HW261322   0.093   4.757   6.544
19809SOL     OW61323   1.317  12.985  10.182
19809SOL    HW161324   1.242  13.024  10.227
19809SOL    HW261325   1.373  13.059  10.160
19810SOL     OW61326   2.394   2.018   9.781
19810SOL    HW161327   2.387   2.034   9.875
19810SOL    HW261328   2.304   2.001   9.752
19811SOL     OW61329   4.853  13.561   0.408
19811SOL    HW161330   4.837  13.537   0.499
19811SOL    HW261331   4.814  13.648   0.399
19812SOL     OW61332  10.505   2.338   1.675
19812SOL    HW161333  10.589   2.382   1.664
19812SOL    HW261334  10.469   2.331   1.587
19813SOL     OW61335   0.629   3.740   1.861
19813SOL    HW161336   0.578   3.669   1.901
19813SOL    HW261337   0.597   3.744   1.771
19814SOL     OW61338   1.814   0.866   9.806
19814SOL    HW161339   1.752   0.939   9.809
19814SOL    HW261340   1.770   0.799   9.753
19815SOL     OW61341  12.218   3.356   2.543
19815SOL    HW161342  12.264   3.341   2.460
19815SOL    HW261343  12.143   3.297   2.540
19816SOL     OW61344   4.196   2.609   5.456
19816SOL    HW161345   4.235   2.539   5.403
19816SOL    HW261346   4.256   2.683   5.446
19817SOL     OW61347   4.281  11.311   8.989
19817SOL    HW161348   4.375  11.303   9.006
19817SOL    HW261349   4.241  11.242   9.042
19818SOL     OW61350   1.075   7.623   8.807
19818SOL    HW161351   1.025   7.704   8.795
19818SOL    HW261352   1.166   7.649   8.793
19819SOL     OW61353   4.628  10.483   5.695
19819SOL    HW161354   4.671  10.464   5.612
19819SOL    HW261355   4.643  10.576   5.709
19820SOL     OW61356  10.730   0.984   7.148
19820SOL    HW161357  10.771   1.015   7.067
19820SOL    HW261358  10.777   1.029   7.218
19821SOL     OW61359  10.231  13.054   8.211
19821SOL    HW161360  10.325  13.035   8.211
19821SOL    HW261361  10.211  13.075   8.302
19822SOL     OW61362   1.278   7.367   5.190
19822SOL    HW161363   1.226   7.413   5.256
19822SOL    HW261364   1.265   7.418   5.109
19823SOL     OW61365   4.241   2.255   4.910
19823SOL    HW161366   4.264   2.322   4.846
19823SOL    HW261367   4.197   2.187   4.860
19824SOL     OW61368   2.052  12.228   0.500
19824SOL    HW161369   2.027  12.170   0.428
19824SOL    HW261370   2.030  12.178   0.579
19825SOL     OW61371   1.140  10.114  11.911
19825SOL    HW161372   1.142  10.020  11.894
19825SOL    HW261373   1.201  10.127  11.984
19826SOL     OW61374   2.036   8.992   0.427
19826SOL    HW161375   2.107   8.945   0.384
19826SOL    HW261376   1.992   9.041   0.357
19827SOL     OW61377  13.241   3.848   1.356
19827SOL    HW161378  13.191   3.802   1.289
19827SOL    HW261379  13.175   3.888   1.412
19828SOL     OW61380   7.100  12.420   0.767
19828SOL    HW161381   7.110  12.390   0.677
19828SOL    HW261382   7.072  12.342   0.816
19829SOL     OW61383   0.366  10.353   9.197
19829SOL    HW161384   0.273  10.347   9.218
19829SOL    HW261385   0.376  10.302   9.116
19830SOL     OW61386  10.026   4.773   8.074
19830SOL    HW161387  10.116   4.797   8.050
19830SOL    HW261388   9.971   4.810   8.005
19831SOL     OW61389   1.551   4.918  12.969
19831SOL    HW161390   1.573   4.976  13.042
19831SOL    HW261391   1.481   4.964  12.922
19832SOL     OW61392   9.343   9.290   0.718
19832SOL    HW161393   9.266   9.339   0.691
19832SOL    HW261394   9.345   9.214   0.660
19833SOL     OW61395  11.075  13.967  10.611
19833SOL    HW161396  11.047  13.876  10.601
19833SOL    HW261397  11.084  14.000  10.522
19834SOL     OW61398   5.999   3.612  11.255
19834SOL    HW161399   5.983   3.576  11.342
19834SOL    HW261400   5.916   3.598  11.208
19835SOL     OW61401   5.015   1.396   0.371
19835SOL    HW161402   4.969   1.401   0.455
19835SOL    HW261403   5.108   1.395   0.394
19836SOL     OW61404   4.122   7.689   2.042
19836SOL    HW161405   4.032   7.658   2.050
19836SOL    HW261406   4.175   7.610   2.047
19837SOL     OW61407   3.595   6.814   1.080
19837SOL    HW161408   3.565   6.803   1.171
19837SOL    HW261409   3.598   6.725   1.045
19838SOL     OW61410   2.625   8.018  11.632
19838SOL    HW161411   2.663   7.955  11.693
19838SOL    HW261412   2.697   8.074  11.605
19839SOL     OW61413  13.838   7.351   5.918
19839SOL    HW161414  13.777   7.423   5.931
19839SOL    HW261415  13.922   7.393   5.899
19840SOL     OW61416   4.366   9.337   6.571
19840SOL    HW161417   4.446   9.340   6.622
19840SOL    HW261418   4.300   9.377   6.628
19841SOL     OW61419   3.970  10.666   3.008
19841SOL    HW161420   3.990  10.654   2.916
19841SOL    HW261421   3.932  10.582   3.036
19842SOL     OW61422   5.156   8.186   1.916
19842SOL    HW161423   5.245   8.185   1.883
19842SOL    HW261424   5.101   8.190   1.838
19843SOL     OW61425  13.160   9.628   7.502
19843SOL    HW161426  13.146   9.689   7.430
19843SOL    HW261427  13.193   9.549   7.460
19844SOL     OW61428   4.422  10.778   5.232
19844SOL    HW161429   4.357  10.821   5.176
19844SOL    HW261430   4.399  10.685   5.227
19845SOL     OW61431   2.689  14.058  11.735
19845SOL    HW161432   2.602  14.046  11.774
19845SOL    HW261433   2.683  14.142  11.690
19846SOL     OW61434   0.771   9.611   6.894
19846SOL    HW161435   0.852   9.637   6.938
19846SOL    HW261436   0.721   9.692   6.885
19847SOL     OW61437   3.370   9.270   0.085
19847SOL    HW161438   3.339   9.326   0.013
19847SOL    HW261439   3.453   9.310   0.112
19848SOL     OW61440   6.705  14.844  10.054
19848SOL    HW161441   6.753   0.050  10.021
19848SOL    HW261442   6.629   0.011  10.099
19849SOL     OW61443   7.175   4.698   1.949
19849SOL    HW161444   7.108   4.684   1.882
19849SOL    HW261445   7.171   4.793   1.966
19850SOL     OW61446   5.955  14.178  14.192
19850SOL    HW161447   5.926  14.109  14.252
19850SOL    HW261448   5.956  14.257  14.246
19851SOL     OW61449   5.670   1.715   8.789
19851SOL    HW161450   5.760   1.731   8.761
19851SOL    HW261451   5.678   1.695   8.883
19852SOL     OW61452  14.759   7.595   5.941
19852SOL    HW161453  14.745   7.634   5.855
19852SOL    HW261454  14.674   7.560   5.966
19853SOL     OW61455   8.900   9.967   7.758
19853SOL    HW161456   8.870   9.953   7.668
19853SOL    HW261457   8.977   9.911   7.767
19854SOL     OW61458  13.346  12.284  13.629
19854SOL    HW161459  13.303  12.360  13.589
19854SOL    HW261460  13.322  12.211  13.573
19855SOL     OW61461   1.005  13.447   3.778
19855SOL    HW161462   0.940  13.409   3.837
19855SOL    HW261463   1.076  13.474   3.835
19856SOL     OW61464   4.348   5.932   9.773
19856SOL    HW161465   4.403   5.854   9.762
19856SOL    HW261466   4.357   5.955   9.865
19857SOL     OW61467   6.575   7.656   6.379
19857SOL    HW161468   6.556   7.565   6.403
19857SOL    HW261469   6.501   7.682   6.323
19858SOL     OW61470   5.511  12.657   2.268
19858SOL    HW161471   5.595  12.658   2.315
19858SOL    HW261472   5.534  12.626   2.180
19859SOL     OW61473   0.439   1.326   9.074
19859SOL    HW161474   0.393   1.395   9.025
19859SOL    HW261475   0.401   1.331   9.162
19860SOL     OW61476   4.050   3.589  10.273
19860SOL    HW161477   4.010   3.648  10.210
19860SOL    HW261478   4.119   3.544  10.224
19861SOL     OW61479  12.615   6.590  13.657
19861SOL    HW161480  12.575   6.658  13.604
19861SOL    HW261481  12.650   6.636  13.733
19862SOL     OW61482   1.527   3.723   9.698
19862SOL    HW161483   1.621   3.739   9.706
19862SOL    HW261484   1.495   3.726   9.789
19863SOL     OW61485   4.267   1.516   5.234
19863SOL    HW161486   4.299   1.552   5.316
19863SOL    HW261487   4.313   1.566   5.166
19864SOL     OW61488  12.017  14.622   4.722
19864SOL    HW161489  11.927  14.622   4.691
19864SOL    HW261490  12.029  14.707   4.764
19865SOL     OW61491   4.885   3.818   3.084
19865SOL    HW161492   4.852   3.907   3.089
19865SOL    HW261493   4.827   3.774   3.021
19866SOL     OW61494   8.724  12.151   0.544
19866SOL    HW161495   8.635  12.128   0.567
19866SOL    HW261496   8.723  12.160   0.448
19867SOL     OW61497  11.058   7.184  14.812
19867SOL    HW161498  11.144   7.147  14.791
19867SOL    HW261499  11.048   7.170   0.036
19868SOL     OW61500   2.207   2.308   7.477
19868SOL    HW161501   2.233   2.296   7.568
19868SOL    HW261502   2.189   2.402   7.468
19869SOL     OW61503   1.087  12.197  10.228
19869SOL    HW161504   1.010  12.230  10.182
19869SOL    HW261505   1.153  12.265  10.218
19870SOL     OW61506   8.775   7.154  12.602
19870SOL    HW161507   8.743   7.117  12.519
19870SOL    HW261508   8.772   7.248  12.588
19871SOL     OW61509   0.507   8.559   3.019
19871SOL    HW161510   0.435   8.619   2.998
19871SOL    HW261511   0.492   8.483   2.963
19872SOL     OW61512   1.673   8.111  10.615
19872SOL    HW161513   1.644   8.125  10.705
19872SOL    HW261514   1.700   8.198  10.585
19873SOL     OW61515   1.696  12.421  10.812
19873SOL    HW161516   1.609  12.449  10.781
19873SOL    HW261517   1.690  12.425  10.907
19874SOL     OW61518   7.558  10.530  12.966
19874SOL    HW161519   7.602  10.606  13.002
19874SOL    HW261520   7.473  10.562  12.935
19875SOL     OW61521   5.369   0.633   5.220
19875SOL    HW161522   5.402   0.580   5.148
19875SOL    HW261523   5.330   0.571   5.281
19876SOL     OW61524  12.441  11.019   7.921
19876SOL    HW161525  12.414  11.105   7.890
19876SOL    HW261526  12.534  11.029   7.943
19877SOL     OW61527   0.690  10.561  14.629
19877SOL    HW161528   0.684  10.532  14.720
19877SOL    HW261529   0.784  10.570  14.613
19878SOL     OW61530  11.122   8.674   9.187
19878SOL    HW161531  11.117   8.661   9.092
19878SOL    HW261532  11.032   8.691   9.214
19879SOL     OW61533   9.025   1.610   3.259
19879SOL    HW161534   9.030   1.583   3.351
19879SOL    HW261535   9.057   1.700   3.259
19880SOL     OW61536  12.243   2.833   1.514
19880SOL    HW161537  12.259   2.801   1.425
19880SOL    HW261538  12.149   2.822   1.526
19881SOL     OW61539  10.589   2.881  10.758
19881SOL    HW161540  10.565   2.949  10.695
19881SOL    HW261541  10.644   2.926  10.822
19882SOL     OW61542   4.362  10.648   4.859
19882SOL    HW161543   4.388  10.556   4.873
19882SOL    HW261544   4.280  10.657   4.907
19883SOL     OW61545  13.606   4.708  12.859
19883SOL    HW161546  13.631   4.696  12.767
19883SOL    HW261547  13.670   4.770  12.893
19884SOL     OW61548   5.167   5.788   9.568
19884SOL    HW161549   5.087   5.738   9.581
19884SOL    HW261550   5.219   5.735   9.509
19885SOL     OW61551   2.992  12.323   9.693
19885SOL    HW161552   2.897  12.335   9.689
19885SOL    HW261553   3.029  12.406   9.662
19886SOL     OW61554   4.818  11.378   9.460
19886SOL    HW161555   4.766  11.453   9.491
19886SOL    HW261556   4.845  11.404   9.372
19887SOL     OW61557   3.745   9.061  12.740
19887SOL    HW161558   3.815   9.109  12.696
19887SOL    HW261559   3.736   9.106  12.825
19888SOL     OW61560   9.557  12.160   9.621
19888SOL    HW161561   9.583  12.112   9.700
19888SOL    HW261562   9.499  12.229   9.654
19889SOL     OW61563   0.288   6.984   3.768
19889SOL    HW161564   0.238   6.931   3.706
19889SOL    HW261565   0.228   7.055   3.792
19890SOL     OW61566   3.675   1.935   1.844
19890SOL    HW161567   3.654   1.975   1.928
19890SOL    HW261568   3.766   1.959   1.828
19891SOL     OW61569   9.584   6.173   3.526
19891SOL    HW161570   9.675   6.201   3.526
19891SOL    HW261571   9.537   6.243   3.572
19892SOL     OW61572   0.626   1.731   8.407
19892SOL    HW161573   0.572   1.652   8.410
19892SOL    HW261574   0.592   1.781   8.333
19893SOL     OW61575  13.814   0.704   2.327
19893SOL    HW161576  13.756   0.758   2.380
19893SOL    HW261577  13.762   0.627   2.305
19894SOL     OW61578   2.903   7.729   1.893
19894SOL    HW161579   2.948   7.798   1.942
19894SOL    HW261580   2.850   7.684   1.958
19895SOL     OW61581  11.993   8.543   6.230
19895SOL    HW161582  12.054   8.517   6.299
19895SOL    HW261583  12.045   8.593   6.168
19896SOL     OW61584   7.679   3.368  14.296
19896SOL    HW161585   7.587   3.359  14.320
19896SOL    HW261586   7.678   3.418  14.214
19897SOL     OW61587   5.398   2.869   5.179
19897SOL    HW161588   5.469   2.889   5.119
19897SOL    HW261589   5.337   2.942   5.169
19898SOL     OW61590  12.626   1.955   8.133
19898SOL    HW161591  12.640   1.894   8.061
19898SOL    HW261592  12.539   1.993   8.116
19899SOL     OW61593   9.326  11.778   3.313
19899SOL    HW161594   9.318  11.808   3.223
19899SOL    HW261595   9.402  11.720   3.313
19900SOL     OW61596   7.546  11.770   7.346
19900SOL    HW161597   7.457  11.804   7.357
19900SOL    HW261598   7.595  11.843   7.309
19901SOL     OW61599  11.900  10.450  11.634
19901SOL    HW161600  11.859  10.506  11.568
19901SOL    HW261601  11.829  10.395  11.667
19902SOL     OW61602   6.385  14.103   8.259
19902SOL    HW161603   6.476  14.133   8.253
19902SOL    HW261604   6.343  14.164   8.319
19903SOL     OW61605   6.039   3.879   6.989
19903SOL    HW161606   6.019   3.787   7.008
19903SOL    HW261607   6.028   3.924   7.073
19904SOL     OW61608   3.360   2.767   6.556
19904SOL    HW161609   3.398   2.711   6.624
19904SOL    HW261610   3.418   2.843   6.551
19905SOL     OW61611   9.794   1.650   5.561
19905SOL    HW161612   9.747   1.726   5.594
19905SOL    HW261613   9.800   1.590   5.636
19906SOL     OW61614   0.743   6.651   6.387
19906SOL    HW161615   0.802   6.634   6.313
19906SOL    HW261616   0.782   6.603   6.460
19907SOL     OW61617  10.969  13.390   2.030
19907SOL    HW161618  10.960  13.471   2.079
19907SOL    HW261619  10.882  13.373   1.994
19908SOL     OW61620   4.738   6.522   2.190
19908SOL    HW161621   4.762   6.515   2.283
19908SOL    HW261622   4.721   6.432   2.163
19909SOL     OW61623  12.580   8.173  12.356
19909SOL    HW161624  12.611   8.208  12.440
19909SOL    HW261625  12.487   8.196  12.354
19910SOL     OW61626  14.122   0.255  14.817
19910SOL    HW161627  14.175   0.200   0.007
19910SOL    HW261628  14.187   0.300  14.763
19911SOL     OW61629   4.183  14.599  14.061
19911SOL    HW161630   4.197  14.505  14.051
19911SOL    HW261631   4.089  14.608  14.075
19912SOL     OW61632   6.404  13.818   4.143
19912SOL    HW161633   6.447  13.880   4.202
19912SOL    HW261634   6.313  13.848   4.139
19913SOL     OW61635   9.463   7.914   0.086
19913SOL    HW161636   9.388   7.855   0.078
19913SOL    HW261637   9.479   7.944  14.866
19914SOL     OW61638   3.767   7.995   3.052
19914SOL    HW161639   3.751   7.997   2.957
19914SOL    HW261640   3.696   7.941   3.086
19915SOL     OW61641   5.871   3.267   2.642
19915SOL    HW161642   5.830   3.353   2.631
19915SOL    HW261643   5.891   3.239   2.553
19916SOL     OW61644   9.892   7.795   5.634
19916SOL    HW161645   9.897   7.813   5.540
19916SOL    HW261646   9.901   7.881   5.675
19917SOL     OW61647   4.451  12.928   5.522
19917SOL    HW161648   4.445  12.832   5.529
19917SOL    HW261649   4.362  12.958   5.544
19918SOL     OW61650  11.983  11.408  12.213
19918SOL    HW161651  12.067  11.411  12.258
19918SOL    HW261652  11.923  11.367  12.275
19919SOL     OW61653   6.433   8.076   9.133
19919SOL    HW161654   6.519   8.093   9.095
19919SOL    HW261655   6.401   8.000   9.085
19920SOL     OW61656   2.919   2.198   1.751
19920SOL    HW161657   2.854   2.211   1.682
19920SOL    HW261658   2.910   2.106   1.776
19921SOL     OW61659  12.542   1.648   2.235
19921SOL    HW161660  12.612   1.594   2.272
19921SOL    HW261661  12.483   1.586   2.192
19922SOL     OW61662  10.995   8.111   1.041
19922SOL    HW161663  10.932   8.062   0.988
19922SOL    HW261664  11.031   8.177   0.982
19923SOL     OW61665   2.106   4.734   0.821
19923SOL    HW161666   2.011   4.744   0.815
19923SOL    HW261667   2.135   4.723   0.730
19924SOL     OW61668  11.598  11.852   9.793
19924SOL    HW161669  11.536  11.782   9.814
19924SOL    HW261670  11.642  11.870   9.876
19925SOL     OW61671   4.253  12.604   1.815
19925SOL    HW161672   4.249  12.694   1.783
19925SOL    HW261673   4.340  12.597   1.855
19926SOL     OW61674  11.152  11.590   4.003
19926SOL    HW161675  11.172  11.672   4.048
19926SOL    HW261676  11.175  11.606   3.911
19927SOL     OW61677   6.195   6.439   4.885
19927SOL    HW161678   6.148   6.522   4.882
19927SOL    HW261679   6.285   6.462   4.910
19928SOL     OW61680   7.833   2.810   6.737
19928SOL    HW161681   7.810   2.717   6.728
19928SOL    HW261682   7.907   2.822   6.678
19929SOL     OW61683   0.906   0.716   2.006
19929SOL    HW161684   0.890   0.759   2.089
19929SOL    HW261685   0.938   0.628   2.030
19930SOL     OW61686   9.751   5.539   4.037
19930SOL    HW161687   9.808   5.611   4.008
19930SOL    HW261688   9.690   5.527   3.964
19931SOL     OW61689   8.685   0.327   8.220
19931SOL    HW161690   8.770   0.285   8.207
19931SOL    HW261691   8.663   0.309   8.311
19932SOL     OW61692   9.753   1.225   6.518
19932SOL    HW161693   9.750   1.298   6.580
19932SOL    HW261694   9.662   1.196   6.512
19933SOL     OW61695   3.851   6.587   9.670
19933SOL    HW161696   3.906   6.664   9.684
19933SOL    HW261697   3.788   6.589   9.743
19934SOL     OW61698  14.063   5.641   1.102
19934SOL    HW161699  14.084   5.591   1.181
19934SOL    HW261700  14.075   5.578   1.031
19935SOL     OW61701  12.953  14.786   2.884
19935SOL    HW161702  13.031  14.744   2.921
19935SOL    HW261703  12.880  14.748   2.932
19936SOL     OW61704  10.644   3.295  12.741
19936SOL    HW161705  10.622   3.351  12.816
19936SOL    HW261706  10.612   3.343  12.665
19937SOL     OW61707   2.384   2.174   4.492
19937SOL    HW161708   2.339   2.116   4.554
19937SOL    HW261709   2.420   2.244   4.546
19938SOL     OW61710  14.545  14.738   9.108
19938SOL    HW161711  14.475  14.768   9.050
19938SOL    HW261712  14.544  14.643   9.101
19939SOL     OW61713  12.025   3.526   3.477
19939SOL    HW161714  11.975   3.547   3.398
19939SOL    HW261715  12.112   3.561   3.461
19940SOL     OW61716   5.676   4.497  10.557
19940SOL    HW161717   5.729   4.417  10.548
19940SOL    HW261718   5.740   4.568  10.555
19941SOL     OW61719   4.036  12.812   9.623
19941SOL    HW161720   3.965  12.753   9.647
19941SOL    HW261721   4.040  12.807   9.528
19942SOL     OW61722   2.325   9.102  10.150
19942SOL    HW161723   2.332   9.032  10.086
19942SOL    HW261724   2.328   9.183  10.098
19943SOL     OW61725   7.084   3.978   0.150
19943SOL    HW161726   7.147   4.023   0.206
19943SOL    HW261727   7.002   4.026   0.162
19944SOL     OW61728  12.200   4.556  12.111
19944SOL    HW161729  12.112   4.519  12.107
19944SOL    HW261730  12.188   4.647  12.136
19945SOL     OW61731   8.237   8.366   9.585
19945SOL    HW161732   8.283   8.413   9.515
19945SOL    HW261733   8.293   8.377   9.661
19946SOL     OW61734  11.597  11.121  12.482
19946SOL    HW161735  11.658  11.052  12.507
19946SOL    HW261736  11.595  11.119  12.386
19947SOL     OW61737  11.773   2.215  14.864
19947SOL    HW161738  11.798   2.189  14.776
19947SOL    HW261739  11.792   2.139   0.049
19948SOL     OW61740   1.209   8.710   7.477
19948SOL    HW161741   1.120   8.744   7.468
19948SOL    HW261742   1.243   8.752   7.556
19949SOL     OW61743   1.334  14.042  11.175
19949SOL    HW161744   1.286  14.067  11.254
19949SOL    HW261745   1.381  14.122  11.149
19950SOL     OW61746   6.430  11.127   1.988
19950SOL    HW161747   6.455  11.219   2.004
19950SOL    HW261748   6.488  11.099   1.917
19951SOL     OW61749   1.823   8.517   7.966
19951SOL    HW161750   1.792   8.581   8.030
19951SOL    HW261751   1.896   8.473   8.010
19952SOL     OW61752   8.868   9.063   4.026
19952SOL    HW161753   8.963   9.053   4.025
19952SOL    HW261754   8.837   9.013   3.951
19953SOL     OW61755   5.955  14.790  13.196
19953SOL    HW161756   5.900  14.715  13.175
19953SOL    HW261757   5.926  14.818  13.283
19954SOL     OW61758   1.006   4.074   5.925
19954SOL    HW161759   1.079   4.021   5.893
19954SOL    HW261760   0.957   4.015   5.982
19955SOL     OW61761   0.628   5.975  11.073
19955SOL    HW161762   0.685   5.988  11.149
19955SOL    HW261763   0.540   5.991  11.106
19956SOL     OW61764   9.534   4.926  14.656
19956SOL    HW161765   9.602   4.986  14.684
19956SOL    HW261766   9.457   4.981  14.642
19957SOL     OW61767   5.665   2.606   2.936
19957SOL    HW161768   5.582   2.572   2.903
19957SOL    HW261769   5.640   2.674   2.998
19958SOL     OW61770   7.746   5.834  12.746
19958SOL    HW161771   7.817   5.825  12.683
19958SOL    HW261772   7.790   5.853  12.829
19959SOL     OW61773  11.028  13.500   1.777
19959SOL    HW161774  10.975  13.494   1.856
19959SOL    HW261775  10.964  13.503   1.706
19960SOL     OW61776   7.358   7.641   1.212
19960SOL    HW161777   7.445   7.671   1.240
19960SOL    HW261778   7.298   7.682   1.274
19961SOL     OW61779   5.988   5.193   1.162
19961SOL    HW161780   6.058   5.259   1.157
19961SOL    HW261781   5.933   5.223   1.234
19962SOL     OW61782   7.933   8.187   6.717
19962SOL    HW161783   7.949   8.102   6.677
19962SOL    HW261784   7.981   8.184   6.800
19963SOL     OW61785   3.359   7.798   3.968
19963SOL    HW161786   3.374   7.705   3.952
19963SOL    HW261787   3.334   7.803   4.060
19964SOL     OW61788   1.930   8.169   1.171
19964SOL    HW161789   2.002   8.106   1.173
19964SOL    HW261790   1.970   8.251   1.140
19965SOL     OW61791   6.803   6.671  10.897
19965SOL    HW161792   6.762   6.659  10.983
19965SOL    HW261793   6.734   6.647  10.834
19966SOL     OW61794   8.427   5.585   0.296
19966SOL    HW161795   8.352   5.542   0.337
19966SOL    HW261796   8.477   5.622   0.370
19967SOL     OW61797  12.766   1.174  13.759
19967SOL    HW161798  12.699   1.120  13.716
19967SOL    HW261799  12.832   1.111  13.788
19968SOL     OW61800   8.762   4.249   5.333
19968SOL    HW161801   8.858   4.255   5.339
19968SOL    HW261802   8.741   4.289   5.249
19969SOL     OW61803   5.892  10.804   5.504
19969SOL    HW161804   5.886  10.852   5.422
19969SOL    HW261805   5.967  10.843   5.550
19970SOL     OW61806   8.232   1.485   2.228
19970SOL    HW161807   8.256   1.506   2.138
19970SOL    HW261808   8.303   1.523   2.281
19971SOL     OW61809   1.773  14.406  11.725
19971SOL    HW161810   1.777  14.501  11.733
19971SOL    HW261811   1.788  14.374  11.814
19972SOL     OW61812  11.094   8.493   2.850
19972SOL    HW161813  11.118   8.524   2.937
19972SOL    HW261814  11.056   8.569   2.807
19973SOL     OW61815  11.742   4.713   6.123
19973SOL    HW161816  11.735   4.691   6.030
19973SOL    HW261817  11.824   4.762   6.129
19974SOL     OW61818   7.257  11.500   3.597
19974SOL    HW161819   7.336  11.552   3.612
19974SOL    HW261820   7.288  11.421   3.554
19975SOL     OW61821  11.213   4.279   3.597
19975SOL    HW161822  11.143   4.311   3.541
19975SOL    HW261823  11.292   4.285   3.543
19976SOL     OW61824   0.462   6.878  14.862
19976SOL    HW161825   0.399   6.947   0.014
19976SOL    HW261826   0.469   6.880  14.767
19977SOL     OW61827  11.095   3.229  11.407
19977SOL    HW161828  11.159   3.298  11.422
19977SOL    HW261829  11.103   3.207  11.314
19978SOL     OW61830   6.528  13.439   8.144
19978SOL    HW161831   6.490  13.457   8.058
19978SOL    HW261832   6.452  13.425   8.201
19979SOL     OW61833   8.523  10.366   8.290
19979SOL    HW161834   8.614  10.349   8.267
19979SOL    HW261835   8.473  10.299   8.242
19980SOL     OW61836   8.948   2.536   3.327
19980SOL    HW161837   9.042   2.532   3.344
19980SOL    HW261838   8.935   2.621   3.286
19981SOL     OW61839   3.185  14.794   3.390
19981SOL    HW161840   3.254  14.854   3.418
19981SOL    HW261841   3.195  14.789   3.294
19982SOL     OW61842  13.860   4.276   8.064
19982SOL    HW161843  13.782   4.322   8.094
19982SOL    HW261844  13.917   4.272   8.141
19983SOL     OW61845  14.169   7.202   4.017
19983SOL    HW161846  14.122   7.119   4.013
19983SOL    HW261847  14.243   7.191   3.957
19984SOL     OW61848  13.113   9.015  12.151
19984SOL    HW161849  13.052   9.058  12.210
19984SOL    HW261850  13.128   8.929  12.191
19985SOL     OW61851  14.186  11.662   6.098
19985SOL    HW161852  14.142  11.740   6.131
19985SOL    HW261853  14.166  11.662   6.004
19986SOL     OW61854   8.062  12.977  11.746
19986SOL    HW161855   8.057  12.934  11.831
19986SOL    HW261856   8.006  13.054  11.756
19987SOL     OW61857   3.306  14.740   3.747
19987SOL    HW161858   3.329  14.681   3.820
19987SOL    HW261859   3.382  14.797   3.739
19988SOL     OW61860   2.869  13.120   8.724
19988SOL    HW161861   2.905  13.153   8.641
19988SOL    HW261862   2.875  13.025   8.717
19989SOL     OW61863   4.275  11.731   0.648
19989SOL    HW161864   4.300  11.784   0.724
19989SOL    HW261865   4.334  11.655   0.652
19990SOL     OW61866  14.694   2.368   4.981
19990SOL    HW161867  14.778   2.361   5.028
19990SOL    HW261868  14.681   2.281   4.943
19991SOL     OW61869   0.977  14.677   5.836
19991SOL    HW161870   0.991  14.754   5.892
19991SOL    HW261871   0.882  14.668   5.831
19992SOL     OW61872   9.455   3.592   1.326
19992SOL    HW161873   9.511   3.516   1.305
19992SOL    HW261874   9.366   3.557   1.325
19993SOL     OW61875   5.084  13.074  12.745
19993SOL    HW161876   5.115  13.163  12.762
19993SOL    HW261877   5.122  13.023  12.817
19994SOL     OW61878  13.707  14.162   5.040
19994SOL    HW161879  13.745  14.225   5.101
19994SOL    HW261880  13.759  14.173   4.960
19995SOL     OW61881   3.051   2.575   7.900
19995SOL    HW161882   3.113   2.648   7.908
19995SOL    HW261883   2.984   2.607   7.839
19996SOL     OW61884   8.477   7.982  12.252
19996SOL    HW161885   8.457   8.075  12.248
19996SOL    HW261886   8.467   7.959  12.345
19997SOL     OW61887   9.874   1.916   9.381
19997SOL    HW161888   9.815   1.884   9.450
19997SOL    HW261889   9.837   2.001   9.356
19998SOL     OW61890   1.065   3.511   9.454
19998SOL    HW161891   1.132   3.538   9.516
19998SOL    HW261892   1.112   3.494   9.372
19999SOL     OW61893   8.520  13.999   6.766
19999SOL    HW161894   8.558  13.912   6.755
19999SOL    HW261895   8.561  14.052   6.698
20000SOL     OW61896  14.464   6.341  10.145
20000SOL    HW161897  14.445   6.412  10.084
20000SOL    HW261898  14.465   6.262  10.091
20001SOL     OW61899  10.565   6.030  13.269
20001SOL    HW161900  10.554   5.936  13.285
20001SOL    HW261901  10.478   6.067  13.282
20002SOL     OW61902   4.114  14.258  13.411
20002SOL    HW161903   4.149  14.170  13.402
20002SOL    HW261904   4.097  14.287  13.322
20003SOL     OW61905  10.017  14.105   0.549
20003SOL    HW161906  10.110  14.093   0.534
20003SOL    HW261907   9.983  14.018   0.570
20004SOL     OW61908   2.146  10.202   2.283
20004SOL    HW161909   2.089  10.260   2.333
20004SOL    HW261910   2.209  10.260   2.240
20005SOL     OW61911  14.602   7.420   0.121
20005SOL    HW161912  14.613   7.422   0.217
20005SOL    HW261913  14.623   7.509   0.093
20006SOL     OW61914   3.701   5.954   6.215
20006SOL    HW161915   3.753   5.980   6.291
20006SOL    HW261916   3.612   5.979   6.238
20007SOL     OW61917   2.466   0.821  10.879
20007SOL    HW161918   2.439   0.757  10.945
20007SOL    HW261919   2.450   0.778  10.795
20008SOL     OW61920   2.359   6.671   4.340
20008SOL    HW161921   2.352   6.617   4.419
20008SOL    HW261922   2.281   6.726   4.342
20009SOL     OW61923  13.223  13.016   5.554
20009SOL    HW161924  13.156  12.974   5.499
20009SOL    HW261925  13.304  12.972   5.530
20010SOL     OW61926  10.455   0.817   5.314
20010SOL    HW161927  10.418   0.860   5.391
20010SOL    HW261928  10.417   0.864   5.239
20011SOL     OW61929  11.269  14.590   5.112
20011SOL    HW161930  11.298  14.549   5.031
20011SOL    HW261931  11.267  14.519   5.176
20012SOL     OW61932   9.348  10.066   7.717
20012SOL    HW161933   9.317  10.150   7.682
20012SOL    HW261934   9.286  10.001   7.684
20013SOL     OW61935  10.694   6.096  10.899
20013SOL    HW161936  10.754   6.026  10.922
20013SOL    HW261937  10.687   6.092  10.804
20014SOL     OW61938  11.107   8.695  12.297
20014SOL    HW161939  11.133   8.642  12.222
20014SOL    HW261940  11.125   8.640  12.373
20015SOL     OW61941   7.782   4.464   8.898
20015SOL    HW161942   7.840   4.529   8.937
20015SOL    HW261943   7.788   4.388   8.955
20016SOL     OW61944   3.888  14.728   5.581
20016SOL    HW161945   3.943  14.801   5.609
20016SOL    HW261946   3.912  14.713   5.489
20017SOL     OW61947   8.470   8.062  14.141
20017SOL    HW161948   8.536   8.005  14.180
20017SOL    HW261949   8.521   8.130  14.096
20018SOL     OW61950  10.485   4.758  13.572
20018SOL    HW161951  10.564   4.804  13.601
20018SOL    HW261952  10.414   4.817  13.595
20019SOL     OW61953  14.391   9.076  13.310
20019SOL    HW161954  14.422   8.998  13.265
20019SOL    HW261955  14.470   9.130  13.321
20020SOL     OW61956  10.394  10.965  14.541
20020SOL    HW161957  10.385  10.967  14.636
20020SOL    HW261958  10.321  11.018  14.509
20021SOL     OW61959   0.839  10.767  14.159
20021SOL    HW161960   0.861  10.691  14.211
20021SOL    HW261961   0.923  10.806  14.136
20022SOL     OW61962  13.791   6.967   0.868
20022SOL    HW161963  13.781   7.056   0.902
20022SOL    HW261964  13.724   6.960   0.800
20023SOL     OW61965  14.168   6.849   8.991
20023SOL    HW161966  14.181   6.898   9.073
20023SOL    HW261967  14.159   6.917   8.924
20024SOL     OW61968   7.600   5.447   7.258
20024SOL    HW161969   7.654   5.404   7.324
20024SOL    HW261970   7.622   5.539   7.266
20025SOL     OW61971   9.211   6.695   9.132
20025SOL    HW161972   9.257   6.638   9.194
20025SOL    HW261973   9.275   6.763   9.110
20026SOL     OW61974  13.749   9.387  10.844
20026SOL    HW161975  13.730   9.451  10.912
20026SOL    HW261976  13.694   9.414  10.770
20027SOL     OW61977   2.311   6.545   6.200
20027SOL    HW161978   2.244   6.575   6.261
20027SOL    HW261979   2.329   6.621   6.145
20028SOL     OW61980   6.874   8.190  11.737
20028SOL    HW161981   6.849   8.098  11.732
20028SOL    HW261982   6.804   8.231  11.788
20029SOL     OW61983   7.380   7.722   7.272
20029SOL    HW161984   7.311   7.683   7.327
20029SOL    HW261985   7.333   7.780   7.212
20030SOL     OW61986   6.246   1.331  12.589
20030SOL    HW161987   6.204   1.385  12.656
20030SOL    HW261988   6.235   1.380  12.508
20031SOL     OW61989  14.410   7.614   1.551
20031SOL    HW161990  14.431   7.627   1.643
20031SOL    HW261991  14.491   7.580   1.512
20032SOL     OW61992  11.202   4.226   9.562
20032SOL    HW161993  11.178   4.238   9.470
20032SOL    HW261994  11.180   4.135   9.580
20033SOL     OW61995  10.962  13.428   8.111
20033SOL    HW161996  10.916  13.471   8.039
20033SOL    HW261997  11.019  13.496   8.147
20034SOL     OW61998   0.897   7.577   7.790
20034SOL    HW161999   0.828   7.540   7.844
20034SOL    HW262000   0.969   7.594   7.851
20035SOL     OW62001  12.000   8.787   0.845
20035SOL    HW162002  11.931   8.853   0.847
20035SOL    HW262003  12.052   8.804   0.923
20036SOL     OW62004  14.592  13.993  11.278
20036SOL    HW162005  14.680  13.960  11.260
20036SOL    HW262006  14.536  13.949  11.214
20037SOL     OW62007   3.685  12.379   7.383
20037SOL    HW162008   3.604  12.414   7.344
20037SOL    HW262009   3.660  12.352   7.471
20038SOL     OW62010   4.259   4.407   0.739
20038SOL    HW162011   4.334   4.437   0.689
20038SOL    HW262012   4.294   4.386   0.825
20039SOL     OW62013   3.097  13.390   3.253
20039SOL    HW162014   3.186  13.372   3.283
20039SOL    HW262015   3.097  13.483   3.232
20040SOL     OW62016   8.525  13.459  11.598
20040SOL    HW162017   8.565  13.421  11.520
20040SOL    HW262018   8.441  13.493  11.568
20041SOL     OW62019   3.895   2.883  11.249
20041SOL    HW162020   3.925   2.826  11.320
20041SOL    HW262021   3.802   2.862  11.240
20042SOL     OW62022   8.901   0.049  10.026
20042SOL    HW162023   8.965   0.118  10.043
20042SOL    HW262024   8.857   0.036  10.109
20043SOL     OW62025   7.150  12.543   4.814
20043SOL    HW162026   7.190  12.617   4.768
20043SOL    HW262027   7.185  12.549   4.903
20044SOL     OW62028   3.328  10.120   0.529
20044SOL    HW162029   3.269  10.193   0.510
20044SOL    HW262030   3.310  10.056   0.460
20045SOL     OW62031   8.878   7.833   4.738
20045SOL    HW162032   8.894   7.889   4.662
20045SOL    HW262033   8.843   7.893   4.804
20046SOL     OW62034   2.893   0.843   7.854
20046SOL    HW162035   2.933   0.778   7.912
20046SOL    HW262036   2.898   0.925   7.903
20047SOL     OW62037   9.027   4.173  11.206
20047SOL    HW162038   9.035   4.089  11.161
20047SOL    HW262039   9.118   4.199  11.225
20048SOL     OW62040  10.825   9.935   1.124
20048SOL    HW162041  10.817  10.027   1.098
20048SOL    HW262042  10.920   9.919   1.124
20049SOL     OW62043   7.737   3.218   1.749
20049SOL    HW162044   7.780   3.235   1.833
20049SOL    HW262045   7.795   3.157   1.704
20050SOL     OW62046   6.519   9.769   9.047
20050SOL    HW162047   6.455   9.772   9.118
20050SOL    HW262048   6.498   9.690   8.998
20051SOL     OW62049   5.720   1.781   9.850
20051SOL    HW162050   5.726   1.709   9.913
20051SOL    HW262051   5.729   1.740   9.764
20052SOL     OW62052   4.067  13.485   8.893
20052SOL    HW162053   4.137  13.429   8.927
20052SOL    HW262054   4.040  13.539   8.967
20053SOL     OW62055   1.596   0.385  13.662
20053SOL    HW162056   1.531   0.451  13.641
20053SOL    HW262057   1.545   0.305  13.678
20054SOL     OW62058   9.773   9.804   8.762
20054SOL    HW162059   9.683   9.776   8.752
20054SOL    HW262060   9.802   9.827   8.674
20055SOL     OW62061   6.585  13.754   8.292
20055SOL    HW162062   6.505  13.795   8.259
20055SOL    HW262063   6.622  13.709   8.216
20056SOL     OW62064  10.621   9.193   2.218
20056SOL    HW162065  10.656   9.126   2.278
20056SOL    HW262066  10.639   9.276   2.262
20057SOL     OW62067  11.500   2.245  13.242
20057SOL    HW162068  11.472   2.194  13.166
20057SOL    HW262069  11.480   2.335  13.220
20058SOL     OW62070   4.880   6.381   7.639
20058SOL    HW162071   4.837   6.437   7.575
20058SOL    HW262072   4.808   6.341   7.688
20059SOL     OW62073   5.662   6.542  13.029
20059SOL    HW162074   5.744   6.522  12.984
20059SOL    HW262075   5.667   6.635  13.049
20060SOL     OW62076   9.477   1.388   0.890
20060SOL    HW162077   9.519   1.302   0.899
20060SOL    HW262078   9.480   1.425   0.978
20061SOL     OW62079  10.134  12.560   1.996
20061SOL    HW162080  10.127  12.617   2.072
20061SOL    HW262081  10.122  12.618   1.921
20062SOL     OW62082  12.234  11.175  14.707
20062SOL    HW162083  12.227  11.138  14.796
20062SOL    HW262084  12.255  11.268  14.722
20063SOL     OW62085  12.915  12.821  14.392
20063SOL    HW162086  12.833  12.773  14.388
20063SOL    HW262087  12.982  12.753  14.398
20064SOL     OW62088   0.648   8.131   8.025
20064SOL    HW162089   0.738   8.156   8.046
20064SOL    HW262090   0.614   8.205   7.974
20065SOL     OW62091   2.718  13.733   1.245
20065SOL    HW162092   2.760  13.654   1.210
20065SOL    HW262093   2.791  13.794   1.261
20066SOL     OW62094   1.188  13.892  10.631
20066SOL    HW162095   1.224  13.964  10.682
20066SOL    HW262096   1.251  13.821  10.642
20067SOL     OW62097  13.618   4.068   0.322
20067SOL    HW162098  13.589   4.150   0.364
20067SOL    HW262099  13.577   4.069   0.236
20068SOL     OW62100   5.179  10.280   9.418
20068SOL    HW162101   5.219  10.241   9.496
20068SOL    HW262102   5.189  10.374   9.431
20069SOL     OW62103   9.036   5.935  13.990
20069SOL    HW162104   9.091   5.874  13.941
20069SOL    HW262105   8.993   5.881  14.056
20070SOL     OW62106   2.635  13.049   5.283
20070SOL    HW162107   2.649  12.965   5.327
20070SOL    HW262108   2.556  13.034   5.230
20071SOL     OW62109  14.087   6.432   0.160
20071SOL    HW162110  14.036   6.510   0.180
20071SOL    HW262111  14.043   6.394   0.084
20072SOL     OW62112  10.586  10.742   7.119
20072SOL    HW162113  10.660  10.784   7.164
20072SOL    HW262114  10.567  10.665   7.171
20073SOL     OW62115   7.111   1.676   1.115
20073SOL    HW162116   7.144   1.753   1.161
20073SOL    HW262117   7.048   1.637   1.175
20074SOL     OW62118   7.490   2.797  11.264
20074SOL    HW162119   7.455   2.881  11.234
20074SOL    HW262120   7.412   2.741  11.271
20075SOL     OW62121   0.236   5.825   9.249
20075SOL    HW162122   0.151   5.854   9.282
20075SOL    HW262123   0.226   5.731   9.235
20076SOL     OW62124   1.893   5.015  14.700
20076SOL    HW162125   1.978   5.018  14.745
20076SOL    HW262126   1.835   5.066  14.756
20077SOL     OW62127   8.833   5.540   5.772
20077SOL    HW162128   8.858   5.467   5.715
20077SOL    HW262129   8.787   5.601   5.714
20078SOL     OW62130   9.147  11.333   6.244
20078SOL    HW162131   9.142  11.335   6.148
20078SOL    HW262132   9.073  11.387   6.273
20079SOL     OW62133   1.943  14.833   0.515
20079SOL    HW162134   2.036  14.827   0.537
20079SOL    HW262135   1.930  14.770   0.445
20080SOL     OW62136   4.629  11.153   6.290
20080SOL    HW162137   4.573  11.199   6.227
20080SOL    HW262138   4.591  11.174   6.376
20081SOL     OW62139  13.570  12.287  13.260
20081SOL    HW162140  13.570  12.374  13.300
20081SOL    HW262141  13.662  12.265  13.251
20082SOL     OW62142   8.317   9.816   9.222
20082SOL    HW162143   8.301   9.863   9.304
20082SOL    HW262144   8.411   9.801   9.221
20083SOL     OW62145  10.170   5.490   7.190
20083SOL    HW162146  10.127   5.572   7.165
20083SOL    HW262147  10.264   5.507   7.176
20084SOL     OW62148   2.015   8.445   8.994
20084SOL    HW162149   1.963   8.467   9.071
20084SOL    HW262150   2.106   8.450   9.024
20085SOL     OW62151  12.702   7.921   9.592
20085SOL    HW162152  12.742   7.933   9.679
20085SOL    HW262153  12.739   7.838   9.561
20086SOL     OW62154  12.271  14.249  11.112
20086SOL    HW162155  12.259  14.234  11.018
20086SOL    HW262156  12.327  14.177  11.141
20087SOL     OW62157  12.514  10.396   9.542
20087SOL    HW162158  12.494  10.476   9.492
20087SOL    HW262159  12.600  10.414   9.580
20088SOL     OW62160  10.017   6.230   4.007
20088SOL    HW162161   9.954   6.166   4.040
20088SOL    HW262162  10.047   6.277   4.085
20089SOL     OW62163  14.800   8.322  13.207
20089SOL    HW162164  14.839   8.297  13.291
20089SOL    HW262165  14.839   8.408  13.188
20090SOL     OW62166   2.090   2.018  14.508
20090SOL    HW162167   2.070   1.955  14.438
20090SOL    HW262168   2.128   1.964  14.577
20091SOL     OW62169  11.983   5.875   9.607
20091SOL    HW162170  12.048   5.879   9.678
20091SOL    HW262171  12.008   5.798   9.556
20092SOL     OW62172  11.370   2.019   2.865
20092SOL    HW162173  11.284   2.056   2.888
20092SOL    HW262174  11.382   2.043   2.773
20093SOL     OW62175   4.988  12.756   1.436
20093SOL    HW162176   5.040  12.772   1.514
20093SOL    HW262177   5.044  12.785   1.364
20094SOL     OW62178  12.019  14.161  13.522
20094SOL    HW162179  12.029  14.250  13.555
20094SOL    HW262180  12.026  14.169  13.427
20095SOL     OW62181  10.633  12.991   5.556
20095SOL    HW162182  10.555  12.950   5.519
20095SOL    HW262183  10.602  13.033   5.636
20096SOL     OW62184   9.734   0.575   0.071
20096SOL    HW162185   9.767   0.664   0.085
20096SOL    HW262186   9.706   0.575  14.848
20097SOL     OW62187  10.802  12.404   8.107
20097SOL    HW162188  10.741  12.428   8.176
20097SOL    HW262189  10.886  12.392   8.152
20098SOL     OW62190  12.654   6.848   8.344
20098SOL    HW162191  12.674   6.779   8.281
20098SOL    HW262192  12.668   6.929   8.295
20099SOL     OW62193   2.224   6.955   1.496
20099SOL    HW162194   2.224   6.992   1.407
20099SOL    HW262195   2.314   6.969   1.527
20100SOL     OW62196   1.849   6.709   0.700
20100SOL    HW162197   1.860   6.791   0.748
20100SOL    HW262198   1.754   6.702   0.686
20101SOL     OW62199   6.134   7.831  14.132
20101SOL    HW162200   6.165   7.741  14.142
20101SOL    HW262201   6.151   7.871  14.217
20102SOL     OW62202  12.824   2.040   7.820
20102SOL    HW162203  12.872   1.995   7.750
20102SOL    HW262204  12.741   1.992   7.828
20103SOL     OW62205   7.470   2.378  13.615
20103SOL    HW162206   7.497   2.424  13.695
20103SOL    HW262207   7.519   2.421  13.545
20104SOL     OW62208   8.931   0.556   1.195
20104SOL    HW162209   8.857   0.496   1.206
20104SOL    HW262210   8.968   0.564   1.283
20105SOL     OW62211  13.332   5.255   8.553
20105SOL    HW162212  13.353   5.295   8.637
20105SOL    HW262213  13.387   5.177   8.549
20106SOL     OW62214  12.835  12.452  12.418
20106SOL    HW162215  12.859  12.498  12.498
20106SOL    HW262216  12.739  12.461  12.414
20107SOL     OW62217   5.791  10.334  10.113
20107SOL    HW162218   5.857  10.369  10.052
20107SOL    HW262219   5.743  10.270  10.061
20108SOL     OW62220  13.170  12.148  11.722
20108SOL    HW162221  13.188  12.186  11.636
20108SOL    HW262222  13.188  12.218  11.784
20109SOL     OW62223  12.072  10.267   4.639
20109SOL    HW162224  11.998  10.317   4.606
20109SOL    HW262225  12.038  10.219   4.714
20110SOL     OW62226   4.991   8.256   1.620
20110SOL    HW162227   5.058   8.234   1.555
20110SOL    HW262228   4.909   8.229   1.580
20111SOL     OW62229   2.063  12.520   7.535
20111SOL    HW162230   2.086  12.496   7.625
20111SOL    HW262231   2.107  12.603   7.520
20112SOL     OW62232  12.991  10.817   1.823
20112SOL    HW162233  12.967  10.778   1.739
20112SOL    HW262234  13.081  10.845   1.812
20113SOL     OW62235   4.627   3.249  13.572
20113SOL    HW162236   4.664   3.302  13.642
20113SOL    HW262237   4.679   3.271  13.495
20114SOL     OW62238   4.135   0.281   3.672
20114SOL    HW162239   4.115   0.291   3.579
20114SOL    HW262240   4.094   0.199   3.697
20115SOL     OW62241   3.859  12.608   9.658
20115SOL    HW162242   3.802  12.547   9.611
20115SOL    HW262243   3.845  12.588   9.750
20116SOL     OW62244   4.355  11.718   7.808
20116SOL    HW162245   4.423  11.765   7.855
20116SOL    HW262246   4.279  11.722   7.866
20117SOL     OW62247   9.141  10.894  10.549
20117SOL    HW162248   9.129  10.983  10.518
20117SOL    HW262249   9.089  10.840  10.489
20118SOL     OW62250   6.345  11.986   3.765
20118SOL    HW162251   6.302  12.066   3.795
20118SOL    HW262252   6.273  11.924   3.752
20119SOL     OW62253   8.040  11.019   1.390
20119SOL    HW162254   8.002  10.967   1.320
20119SOL    HW262255   7.967  11.037   1.450
20120SOL     OW62256  11.667  13.744   2.698
20120SOL    HW162257  11.683  13.655   2.668
20120SOL    HW262258  11.572  13.748   2.711
20121SOL     OW62259   1.262  13.297  11.918
20121SOL    HW162260   1.303  13.290  11.832
20121SOL    HW262261   1.177  13.336  11.901
20122SOL     OW62262  11.280  10.205   6.903
20122SOL    HW162263  11.290  10.139   6.834
20122SOL    HW262264  11.313  10.286   6.863
20123SOL     OW62265   1.066  12.665   4.012
20123SOL    HW162266   1.036  12.738   3.959
20123SOL    HW262267   0.995  12.651   4.075
20124SOL     OW62268  13.516  13.401   8.027
20124SOL    HW162269  13.579  13.331   8.007
20124SOL    HW262270  13.460  13.405   7.950
20125SOL     OW62271   9.928   9.229  12.883
20125SOL    HW162272   9.873   9.190  12.815
20125SOL    HW262273  10.013   9.240  12.841
20126SOL     OW62274   7.534  14.001  14.420
20126SOL    HW162275   7.608  13.956  14.381
20126SOL    HW262276   7.458  13.969  14.371
20127SOL     OW62277   3.857   8.635   2.158
20127SOL    HW162278   3.901   8.683   2.228
20127SOL    HW262279   3.809   8.565   2.203
20128SOL     OW62280  13.192   2.489   2.110
20128SOL    HW162281  13.107   2.503   2.070
20128SOL    HW262282  13.181   2.410   2.164
20129SOL     OW62283   9.673   7.689   3.376
20129SOL    HW162284   9.694   7.597   3.360
20129SOL    HW262285   9.581   7.697   3.351
20130SOL     OW62286  10.895   8.799   1.208
20130SOL    HW162287  10.929   8.720   1.251
20130SOL    HW262288  10.952   8.812   1.133
20131SOL     OW62289  14.367   3.163   1.134
20131SOL    HW162290  14.296   3.118   1.179
20131SOL    HW262291  14.394   3.103   1.065
20132SOL     OW62292   3.676   6.065   0.205
20132SOL    HW162293   3.649   6.139   0.149
20132SOL    HW262294   3.707   5.999   0.143
20133SOL     OW62295  11.351  12.303   0.175
20133SOL    HW162296  11.396  12.380   0.210
20133SOL    HW262297  11.363  12.236   0.242
20134SOL     OW62298   1.342   0.553   4.681
20134SOL    HW162299   1.324   0.561   4.587
20134SOL    HW262300   1.377   0.465   4.692
20135SOL     OW62301  10.160   4.802   9.976
20135SOL    HW162302  10.169   4.870  10.043
20135SOL    HW262303  10.203   4.838   9.899
20136SOL     OW62304  12.420   0.723   8.208
20136SOL    HW162305  12.447   0.631   8.209
20136SOL    HW262306  12.351   0.727   8.142
20137SOL     OW62307   0.180   3.751   3.383
20137SOL    HW162308   0.235   3.673   3.384
20137SOL    HW262309   0.130   3.746   3.464
20138SOL     OW62310  11.782  11.845   1.480
20138SOL    HW162311  11.732  11.900   1.420
20138SOL    HW262312  11.734  11.762   1.483
20139SOL     OW62313   2.857   8.857   5.399
20139SOL    HW162314   2.806   8.784   5.435
20139SOL    HW262315   2.820   8.934   5.441
20140SOL     OW62316   0.516   0.098   7.370
20140SOL    HW162317   0.448   0.114   7.435
20140SOL    HW262318   0.593   0.144   7.403
20141SOL     OW62319   2.316   7.859   3.400
20141SOL    HW162320   2.356   7.773   3.387
20141SOL    HW262321   2.390   7.920   3.393
20142SOL     OW62322   8.402   3.545   9.645
20142SOL    HW162323   8.371   3.459   9.618
20142SOL    HW262324   8.352   3.565   9.724
20143SOL     OW62325   2.852   5.527   6.545
20143SOL    HW162326   2.875   5.450   6.493
20143SOL    HW262327   2.765   5.509   6.578
20144SOL     OW62328   9.972  11.839   4.444
20144SOL    HW162329  10.032  11.847   4.518
20144SOL    HW262330  10.024  11.867   4.368
20145SOL     OW62331  11.695   5.696   1.058
20145SOL    HW162332  11.640   5.732   1.128
20145SOL    HW262333  11.637   5.693   0.982
20146SOL     OW62334  12.428   3.508   8.302
20146SOL    HW162335  12.407   3.586   8.251
20146SOL    HW262336  12.361   3.444   8.277
20147SOL     OW62337   9.913  10.860  10.498
20147SOL    HW162338   9.887  10.797  10.430
20147SOL    HW262339   9.840  10.859  10.561
20148SOL     OW62340   7.984   3.263  12.776
20148SOL    HW162341   8.022   3.347  12.803
20148SOL    HW262342   8.051   3.224  12.720
20149SOL     OW62343   9.501   9.817   2.748
20149SOL    HW162344   9.418   9.818   2.701
20149SOL    HW262345   9.566   9.797   2.680
20150SOL     OW62346   6.513   5.803   4.014
20150SOL    HW162347   6.487   5.747   4.088
20150SOL    HW262348   6.547   5.741   3.949
20151SOL     OW62349   0.076  12.583   2.846
20151SOL    HW162350   0.104  12.672   2.868
20151SOL    HW262351   0.023  12.593   2.767
20152SOL     OW62352   5.007   8.287   8.971
20152SOL    HW162353   5.044   8.274   9.058
20152SOL    HW262354   4.913   8.280   8.983
20153SOL     OW62355   7.453   1.064   6.724
20153SOL    HW162356   7.402   1.111   6.790
20153SOL    HW262357   7.396   0.992   6.696
20154SOL     OW62358   3.151   3.959   0.817
20154SOL    HW162359   3.139   4.004   0.900
20154SOL    HW262360   3.201   3.881   0.840
20155SOL     OW62361  10.546   5.223   8.457
20155SOL    HW162362  10.500   5.262   8.382
20155SOL    HW262363  10.639   5.230   8.433
20156SOL     OW62364  13.020   5.617   4.455
20156SOL    HW162365  13.046   5.579   4.540
20156SOL    HW262366  13.055   5.556   4.390
20157SOL     OW62367   4.698   8.408   6.253
20157SOL    HW162368   4.643   8.405   6.331
20157SOL    HW262369   4.787   8.393   6.285
20158SOL     OW62370   8.111   4.221   6.628
20158SOL    HW162371   8.045   4.202   6.694
20158SOL    HW262372   8.139   4.311   6.648
20159SOL     OW62373  12.255   9.647  12.429
20159SOL    HW162374  12.255   9.702  12.350
20159SOL    HW262375  12.165   9.650  12.461
20160SOL     OW62376   0.694   8.656   1.815
20160SOL    HW162377   0.646   8.607   1.748
20160SOL    HW262378   0.694   8.747   1.783
20161SOL     OW62379   8.688   6.857   9.212
20161SOL    HW162380   8.715   6.771   9.179
20161SOL    HW262381   8.595   6.846   9.232
20162SOL     OW62382   3.772  10.721   7.410
20162SOL    HW162383   3.835  10.678   7.467
20162SOL    HW262384   3.688  10.712   7.456
20163SOL     OW62385   7.219   3.009  13.436
20163SOL    HW162386   7.167   3.071  13.386
20163SOL    HW262387   7.254   2.948  13.370
20164SOL     OW62388   7.285   9.731   4.678
20164SOL    HW162389   7.322   9.720   4.766
20164SOL    HW262390   7.197   9.766   4.694
20165SOL     OW62391   9.675  12.869   7.433
20165SOL    HW162392   9.708  12.805   7.370
20165SOL    HW262393   9.634  12.936   7.378
20166SOL     OW62394   7.902  11.234   1.164
20166SOL    HW162395   7.873  11.143   1.161
20166SOL    HW262396   7.992  11.231   1.130
20167SOL     OW62397   6.187  11.468  13.645
20167SOL    HW162398   6.118  11.467  13.712
20167SOL    HW262399   6.142  11.444  13.564
20168SOL     OW62400   7.087  14.721   0.166
20168SOL    HW162401   7.090  14.794   0.228
20168SOL    HW262402   6.994  14.711   0.145
20169SOL     OW62403  12.630   1.816   3.988
20169SOL    HW162404  12.544   1.853   3.969
20169SOL    HW262405  12.614   1.722   3.998
20170SOL     OW62406  14.441  10.366   9.275
20170SOL    HW162407  14.485  10.296   9.323
20170SOL    HW262408  14.510  10.408   9.224
20171SOL     OW62409   0.357  12.756   4.442
20171SOL    HW162410   0.319  12.774   4.356
20171SOL    HW262411   0.391  12.667   4.435
20172SOL     OW62412   2.890   4.884   7.599
20172SOL    HW162413   2.845   4.928   7.528
20172SOL    HW262414   2.968   4.939   7.616
20173SOL     OW62415   2.572   5.006   7.081
20173SOL    HW162416   2.529   5.050   7.008
20173SOL    HW262417   2.503   4.991   7.145
20174SOL     OW62418   8.941   1.693   4.249
20174SOL    HW162419   8.913   1.606   4.221
20174SOL    HW262420   8.973   1.681   4.338
20175SOL     OW62421   8.651   6.631  12.957
20175SOL    HW162422   8.601   6.669  12.884
20175SOL    HW262423   8.603   6.657  13.035
20176SOL     OW62424   9.812   9.140  11.929
20176SOL    HW162425   9.763   9.119  11.850
20176SOL    HW262426   9.903   9.135  11.903
20177SOL     OW62427  14.834   2.253   3.301
20177SOL    HW162428   0.008   2.320   3.354
20177SOL    HW262429   0.030   2.183   3.292
20178SOL     OW62430  13.738  12.318  12.053
20178SOL    HW162431  13.676  12.278  12.113
20178SOL    HW262432  13.823  12.309  12.095
20179SOL     OW62433  13.815   7.341   3.593
20179SOL    HW162434  13.780   7.406   3.531
20179SOL    HW262435  13.768   7.261   3.572
20180SOL     OW62436   3.602   1.408   6.542
20180SOL    HW162437   3.685   1.429   6.585
20180SOL    HW262438   3.593   1.313   6.551
20181SOL     OW62439   0.793   0.981  10.586
20181SOL    HW162440   0.860   1.022  10.642
20181SOL    HW262441   0.832   0.981  10.499
20182SOL     OW62442   0.653  13.043  14.427
20182SOL    HW162443   0.626  13.098  14.353
20182SOL    HW262444   0.637  13.097  14.504
20183SOL     OW62445  14.188  10.291   7.798
20183SOL    HW162446  14.227  10.376   7.821
20183SOL    HW262447  14.225  10.230   7.862
20184SOL     OW62448  11.415  13.046  10.033
20184SOL    HW162449  11.455  12.964  10.060
20184SOL    HW262450  11.478  13.085   9.972
20185SOL     OW62451  14.341   9.420   4.154
20185SOL    HW162452  14.362   9.500   4.107
20185SOL    HW262453  14.426   9.387   4.184
20186SOL     OW62454   1.543  12.926  12.280
20186SOL    HW162455   1.614  12.864  12.293
20186SOL    HW262456   1.494  12.891  12.205
20187SOL     OW62457  13.252   2.722  13.156
20187SOL    HW162458  13.262   2.703  13.062
20187SOL    HW262459  13.209   2.808  13.158
20188SOL     OW62460  13.168  11.477   7.728
20188SOL    HW162461  13.098  11.541   7.735
20188SOL    HW262462  13.246  11.528   7.705
20189SOL     OW62463   2.458   9.753   4.095
20189SOL    HW162464   2.437   9.839   4.058
20189SOL    HW262465   2.430   9.759   4.186
20190SOL     OW62466  13.006   2.734  14.829
20190SOL    HW162467  13.081   2.690  14.790
20190SOL    HW262468  13.025   2.827  14.820
20191SOL     OW62469   9.060   3.728  13.850
20191SOL    HW162470   9.122   3.657  13.866
20191SOL    HW262471   9.041   3.723  13.756
20192SOL     OW62472   3.138   8.035  13.005
20192SOL    HW162473   3.142   8.040  13.100
20192SOL    HW262474   3.218   7.988  12.980
20193SOL     OW62475   9.823   8.098   0.582
20193SOL    HW162476   9.813   8.192   0.572
20193SOL    HW262477   9.752   8.072   0.640
20194SOL     OW62478   4.485   8.878   3.056
20194SOL    HW162479   4.522   8.806   3.107
20194SOL    HW262480   4.507   8.856   2.965
20195SOL     OW62481   8.532   2.140   1.964
20195SOL    HW162482   8.436   2.145   1.968
20195SOL    HW262483   8.550   2.053   1.929
20196SOL     OW62484  12.006  12.160   5.371
20196SOL    HW162485  12.060  12.120   5.302
20196SOL    HW262486  12.067  12.216   5.419
20197SOL     OW62487   1.427  11.230   4.142
20197SOL    HW162488   1.358  11.235   4.208
20197SOL    HW262489   1.456  11.321   4.131
20198SOL     OW62490  11.302  11.681  12.437
20198SOL    HW162491  11.331  11.591  12.426
20198SOL    HW262492  11.294  11.692  12.532
20199SOL     OW62493  11.607  14.560   8.624
20199SOL    HW162494  11.660  14.482   8.640
20199SOL    HW262495  11.574  14.585   8.710
20200SOL     OW62496  11.148   9.273   9.445
20200SOL    HW162497  11.213   9.232   9.388
20200SOL    HW262498  11.064   9.259   9.401
20201SOL     OW62499   8.479  10.520  14.338
20201SOL    HW162500   8.389  10.534  14.307
20201SOL    HW262501   8.476  10.434  14.380
20202SOL     OW62502   3.258  11.570   6.980
20202SOL    HW162503   3.231  11.516   6.905
20202SOL    HW262504   3.259  11.659   6.944
20203SOL     OW62505   5.714   3.404  14.503
20203SOL    HW162506   5.762   3.394  14.421
20203SOL    HW262507   5.780   3.392  14.572
20204SOL     OW62508   8.593   3.904  14.736
20204SOL    HW162509   8.620   3.861  14.655
20204SOL    HW262510   8.511   3.949  14.714
20205SOL     OW62511   7.353   1.304  11.277
20205SOL    HW162512   7.371   1.306  11.183
20205SOL    HW262513   7.365   1.395  11.305
20206SOL     OW62514  13.585   6.123  10.029
20206SOL    HW162515  13.574   6.207   9.985
20206SOL    HW262516  13.584   6.059   9.959
20207SOL     OW62517   5.064   1.242   1.468
20207SOL    HW162518   5.147   1.210   1.504
20207SOL    HW262519   4.997   1.186   1.507
20208SOL     OW62520   3.789   9.834   8.587
20208SOL    HW162521   3.717   9.898   8.588
20208SOL    HW262522   3.816   9.828   8.679
20209SOL     OW62523   3.411   5.743   7.040
20209SOL    HW162524   3.324   5.704   7.037
20209SOL    HW262525   3.469   5.673   7.010
20210SOL     OW62526   2.710   0.630  11.589
20210SOL    HW162527   2.737   0.580  11.512
20210SOL    HW262528   2.724   0.721  11.565
20211SOL     OW62529  11.684  13.983  11.834
20211SOL    HW162530  11.691  13.894  11.868
20211SOL    HW262531  11.724  13.978  11.747
20212SOL     OW62532  10.539  10.501  13.466
20212SOL    HW162533  10.565  10.592  13.480
20212SOL    HW262534  10.621  10.454  13.452
20213SOL     OW62535  14.650   0.274   8.731
20213SOL    HW162536  14.655   0.264   8.636
20213SOL    HW262537  14.665   0.367   8.747
20214SOL     OW62538   3.349  13.159  10.795
20214SOL    HW162539   3.385  13.224  10.856
20214SOL    HW262540   3.415  13.153  10.725
20215SOL     OW62541   9.050   3.430   5.603
20215SOL    HW162542   9.078   3.519   5.625
20215SOL    HW262543   8.992   3.404   5.675
20216SOL     OW62544   3.589   8.533  11.858
20216SOL    HW162545   3.674   8.537  11.814
20216SOL    HW262546   3.530   8.584  11.802
20217SOL     OW62547   8.847  10.979   2.049
20217SOL    HW162548   8.760  11.016   2.066
20217SOL    HW262549   8.834  10.884   2.056
20218SOL     OW62550   4.841  12.607   3.867
20218SOL    HW162551   4.765  12.627   3.812
20218SOL    HW262552   4.803  12.591   3.954
20219SOL     OW62553   9.754   8.130  13.997
20219SOL    HW162554   9.703   8.051  13.980
20219SOL    HW262555   9.745   8.183  13.918
20220SOL     OW62556  11.085  14.397  11.601
20220SOL    HW162557  11.174  14.372  11.627
20220SOL    HW262558  11.078  14.489  11.627
20221SOL     OW62559   3.529   5.095   9.807
20221SOL    HW162560   3.595   5.154   9.843
20221SOL    HW262561   3.533   5.018   9.863
20222SOL     OW62562  11.302  12.163  12.321
20222SOL    HW162563  11.313  12.093  12.257
20222SOL    HW262564  11.247  12.228  12.276
20223SOL     OW62565  13.321   6.089  14.340
20223SOL    HW162566  13.271   6.007  14.343
20223SOL    HW262567  13.258   6.156  14.366
20224SOL     OW62568   7.126  12.872   1.937
20224SOL    HW162569   7.103  12.815   1.864
20224SOL    HW262570   7.073  12.840   2.010
20225SOL     OW62571   7.236   8.794  11.513
20225SOL    HW162572   7.248   8.779  11.419
20225SOL    HW262573   7.325   8.787  11.549
20226SOL     OW62574   4.819   1.186  13.605
20226SOL    HW162575   4.740   1.132  13.613
20226SOL    HW262576   4.891   1.124  13.607
20227SOL     OW62577   9.682  13.706  14.020
20227SOL    HW162578   9.771  13.732  14.000
20227SOL    HW262579   9.660  13.642  13.952
20228SOL     OW62580   5.983   4.428   5.405
20228SOL    HW162581   5.888   4.423   5.392
20228SOL    HW262582   5.996   4.395   5.493
20229SOL     OW62583  10.138  11.642   5.602
20229SOL    HW162584  10.103  11.620   5.516
20229SOL    HW262585  10.067  11.621   5.663
20230SOL     OW62586   5.768   4.762   3.290
20230SOL    HW162587   5.747   4.847   3.252
20230SOL    HW262588   5.696   4.744   3.351
20231SOL     OW62589   7.982   6.166  12.899
20231SOL    HW162590   8.029   6.123  12.970
20231SOL    HW262591   8.022   6.130  12.819
20232SOL     OW62592   8.609  12.497   0.241
20232SOL    HW162593   8.570  12.551   0.173
20232SOL    HW262594   8.595  12.546   0.322
20233SOL     OW62595   6.691   4.705   2.780
20233SOL    HW162596   6.606   4.728   2.741
20233SOL    HW262597   6.742   4.785   2.774
20234SOL     OW62598   2.968  13.762   6.249
20234SOL    HW162599   2.961  13.704   6.324
20234SOL    HW262600   2.962  13.850   6.286
20235SOL     OW62601   7.501  13.519   5.088
20235SOL    HW162602   7.502  13.611   5.062
20235SOL    HW262603   7.590  13.501   5.118
20236SOL     OW62604   0.165   8.766   2.362
20236SOL    HW162605   0.187   8.859   2.371
20236SOL    HW262606   0.246   8.720   2.382
20237SOL     OW62607   9.318  13.742   2.979
20237SOL    HW162608   9.261  13.818   2.970
20237SOL    HW262609   9.264  13.668   2.952
20238SOL     OW62610   7.771  10.408   9.777
20238SOL    HW162611   7.729  10.492   9.797
20238SOL    HW262612   7.705  10.360   9.727
20239SOL     OW62613  13.557   4.037   2.271
20239SOL    HW162614  13.546   4.075   2.184
20239SOL    HW262615  13.604   3.955   2.257
20240SOL     OW62616  10.536   0.727   8.210
20240SOL    HW162617  10.504   0.797   8.266
20240SOL    HW262618  10.462   0.705   8.153
20241SOL     OW62619   7.142  14.626   5.686
20241SOL    HW162620   7.069  14.605   5.627
20241SOL    HW262621   7.187  14.543   5.700
20242SOL     OW62622   9.917  12.693   8.728
20242SOL    HW162623   9.848  12.758   8.736
20242SOL    HW262624   9.875  12.610   8.749
20243SOL     OW62625   3.246   0.550   7.053
20243SOL    HW162626   3.263   0.611   6.982
20243SOL    HW262627   3.313   0.482   7.042
20244SOL     OW62628   2.785   6.874   0.473
20244SOL    HW162629   2.807   6.924   0.551
20244SOL    HW262630   2.730   6.934   0.422
20245SOL     OW62631  12.591  10.256   5.535
20245SOL    HW162632  12.678  10.286   5.564
20245SOL    HW262633  12.554  10.213   5.612
20246SOL     OW62634   8.946  12.353   0.358
20246SOL    HW162635   8.986  12.439   0.373
20246SOL    HW262636   9.012  12.291   0.388
20247SOL     OW62637   9.177  10.787  12.248
20247SOL    HW162638   9.247  10.831  12.295
20247SOL    HW262639   9.097  10.811  12.296
20248SOL     OW62640  13.675   7.665   0.080
20248SOL    HW162641  13.697   7.733   0.016
20248SOL    HW262642  13.694   7.583   0.035
20249SOL     OW62643  10.060   4.508   5.588
20249SOL    HW162644   9.985   4.449   5.588
20249SOL    HW262645  10.023   4.594   5.611
20250SOL     OW62646   7.043   7.569   4.645
20250SOL    HW162647   6.962   7.576   4.594
20250SOL    HW262648   7.032   7.490   4.697
20251SOL     OW62649  14.082  12.598   7.267
20251SOL    HW162650  14.027  12.526   7.234
20251SOL    HW262651  14.050  12.614   7.355
20252SOL     OW62652   2.847   3.528  13.315
20252SOL    HW162653   2.838   3.566  13.403
20252SOL    HW262654   2.938   3.547  13.290
20253SOL     OW62655   6.576   4.617   1.287
20253SOL    HW162656   6.630   4.647   1.360
20253SOL    HW262657   6.541   4.697   1.248
20254SOL     OW62658  11.786   6.531   9.510
20254SOL    HW162659  11.764   6.470   9.440
20254SOL    HW262660  11.768   6.618   9.474
20255SOL     OW62661  11.733  13.777   4.576
20255SOL    HW162662  11.752  13.821   4.493
20255SOL    HW262663  11.638  13.762   4.574
20256SOL     OW62664   1.050   2.901  13.001
20256SOL    HW162665   0.996   2.938  12.931
20256SOL    HW262666   1.019   2.943  13.081
20257SOL     OW62667   5.198   6.404  11.448
20257SOL    HW162668   5.230   6.322  11.411
20257SOL    HW262669   5.102   6.398  11.442
20258SOL     OW62670  11.142  13.739  14.558
20258SOL    HW162671  11.166  13.734  14.651
20258SOL    HW262672  11.219  13.777  14.515
20259SOL     OW62673  10.968   0.189   9.575
20259SOL    HW162674  11.019   0.117   9.538
20259SOL    HW262675  10.913   0.148   9.642
20260SOL     OW62676   6.201   4.274   2.196
20260SOL    HW162677   6.267   4.206   2.207
20260SOL    HW262678   6.215   4.306   2.106
20261SOL     OW62679   1.341  14.216  12.918
20261SOL    HW162680   1.382  14.204  13.004
20261SOL    HW262681   1.409  14.191  12.855
20262SOL     OW62682  12.013  10.088  12.113
20262SOL    HW162683  12.104  10.082  12.141
20262SOL    HW262684  12.015  10.064  12.020
20263SOL     OW62685   6.467   7.677  14.407
20263SOL    HW162686   6.452   7.686  14.501
20263SOL    HW262687   6.519   7.598  14.398
20264SOL     OW62688   8.574   4.157   8.018
20264SOL    HW162689   8.603   4.236   7.972
20264SOL    HW262690   8.635   4.089   7.990
20265SOL     OW62691   3.481  10.634  12.905
20265SOL    HW162692   3.461  10.658  12.995
20265SOL    HW262693   3.398  10.645  12.858
20266SOL     OW62694   9.501   6.407   1.989
20266SOL    HW162695   9.550   6.421   1.908
20266SOL    HW262696   9.409   6.402   1.960
20267SOL     OW62697  13.341   0.259   1.018
20267SOL    HW162698  13.360   0.286   0.928
20267SOL    HW262699  13.249   0.281   1.031
20268SOL     OW62700  11.582   7.012  10.217
20268SOL    HW162701  11.624   7.033  10.133
20268SOL    HW262702  11.569   7.097  10.259
20269SOL     OW62703   3.506   1.409   0.846
20269SOL    HW162704   3.462   1.436   0.765
20269SOL    HW262705   3.439   1.360   0.894
20270SOL     OW62706   1.561   0.261   3.190
20270SOL    HW162707   1.652   0.231   3.183
20270SOL    HW262708   1.516   0.192   3.239
20271SOL     OW62709   6.173  13.302   4.933
20271SOL    HW162710   6.248  13.361   4.927
20271SOL    HW262711   6.210  13.219   4.965
20272SOL     OW62712   6.685   2.198  13.762
20272SOL    HW162713   6.658   2.119  13.809
20272SOL    HW262714   6.633   2.196  13.681
20273SOL     OW62715  13.872   7.519   2.143
20273SOL    HW162716  13.878   7.507   2.049
20273SOL    HW262717  13.840   7.434   2.176
20274SOL     OW62718   8.437   5.215  10.583
20274SOL    HW162719   8.508   5.237  10.643
20274SOL    HW262720   8.455   5.266  10.504
20275SOL     OW62721  12.860  11.698  10.749
20275SOL    HW162722  12.776  11.721  10.789
20275SOL    HW262723  12.919  11.770  10.773
20276SOL     OW62724   4.872   3.682   4.417
20276SOL    HW162725   4.858   3.728   4.500
20276SOL    HW262726   4.786   3.681   4.375
20277SOL     OW62727  12.164  12.086   4.871
20277SOL    HW162728  12.172  12.166   4.820
20277SOL    HW262729  12.251  12.047   4.870
20278SOL     OW62730   2.742  11.553   5.911
20278SOL    HW162731   2.680  11.624   5.897
20278SOL    HW262732   2.687  11.475   5.922
20279SOL     OW62733   8.869   8.584  13.204
20279SOL    HW162734   8.935   8.652  13.192
20279SOL    HW262735   8.786   8.629  13.196
20280SOL     OW62736  14.279  10.364   4.084
20280SOL    HW162737  14.335  10.292   4.113
20280SOL    HW262738  14.300  10.375   3.991
20281SOL     OW62739   5.593   1.234   8.097
20281SOL    HW162740   5.525   1.234   8.030
20281SOL    HW262741   5.565   1.168   8.160
20282SOL     OW62742  12.659   0.402   2.088
20282SOL    HW162743  12.655   0.313   2.123
20282SOL    HW262744  12.732   0.400   2.025
20283SOL     OW62745   4.824   2.469  11.537
20283SOL    HW162746   4.771   2.438  11.611
20283SOL    HW262747   4.881   2.536  11.576
20284SOL     OW62748   2.887   9.799  10.065
20284SOL    HW162749   2.805   9.827  10.107
20284SOL    HW262750   2.955   9.850  10.109
20285SOL     OW62751  10.680  11.487   7.570
20285SOL    HW162752  10.735  11.539   7.511
20285SOL    HW262753  10.704  11.517   7.657
20286SOL     OW62754   8.425   9.945   1.737
20286SOL    HW162755   8.377   9.994   1.804
20286SOL    HW262756   8.405   9.990   1.655
20287SOL     OW62757   5.936  12.986   5.160
20287SOL    HW162758   5.929  13.046   5.086
20287SOL    HW262759   5.879  13.024   5.227
20288SOL     OW62760   9.359   7.612   9.649
20288SOL    HW162761   9.286   7.551   9.659
20288SOL    HW262762   9.356   7.667   9.727
20289SOL     OW62763   6.589  11.070   2.561
20289SOL    HW162764   6.632  10.994   2.523
20289SOL    HW262765   6.661  11.132   2.577
20290SOL     OW62766   0.377  10.919   9.485
20290SOL    HW162767   0.382  11.013   9.504
20290SOL    HW262768   0.378  10.914   9.389
20291SOL     OW62769   2.434   6.152   8.869
20291SOL    HW162770   2.425   6.112   8.955
20291SOL    HW262771   2.403   6.242   8.881
20292SOL     OW62772   7.524  14.862   7.363
20292SOL    HW162773   7.602   0.047   7.354
20292SOL    HW262774   7.557  14.772   7.367
20293SOL     OW62775   8.684   8.433   0.305
20293SOL    HW162776   8.759   8.480   0.268
20293SOL    HW262777   8.619   8.502   0.320
20294SOL     OW62778   4.243   3.857   8.946
20294SOL    HW162779   4.161   3.906   8.937
20294SOL    HW262780   4.245   3.831   9.038
20295SOL     OW62781   8.410   2.318   5.591
20295SOL    HW162782   8.322   2.343   5.616
20295SOL    HW262783   8.464   2.339   5.667
20296SOL     OW62784  11.693   6.701  10.572
20296SOL    HW162785  11.745   6.739  10.643
20296SOL    HW262786  11.704   6.607  10.582
20297SOL     OW62787  13.235   6.661   8.346
20297SOL    HW162788  13.154   6.620   8.377
20297SOL    HW262789  13.227   6.660   8.251
20298SOL     OW62790   0.169   9.288   0.467
20298SOL    HW162791   0.158   9.284   0.372
20298SOL    HW262792   0.129   9.208   0.499
20299SOL     OW62793   6.413  11.548  12.009
20299SOL    HW162794   6.373  11.632  11.986
20299SOL    HW262795   6.346  11.502  12.060
20300SOL     OW62796  12.376   6.600   5.849
20300SOL    HW162797  12.442   6.559   5.793
20300SOL    HW262798  12.386   6.556   5.933
20301SOL     OW62799  14.785   7.663  12.933
20301SOL    HW162800  14.789   7.677  12.838
20301SOL    HW262801  14.858   7.715  12.968
20302SOL     OW62802   4.968   4.703   6.391
20302SOL    HW162803   5.062   4.702   6.406
20302SOL    HW262804   4.935   4.628   6.440
20303SOL     OW62805   0.917  10.093   2.244
20303SOL    HW162806   0.844  10.052   2.198
20303SOL    HW262807   0.974  10.126   2.174
20304SOL     OW62808   5.081   5.487   4.083
20304SOL    HW162809   5.130   5.405   4.092
20304SOL    HW262810   5.003   5.462   4.034
20305SOL     OW62811   1.639   9.035  10.727
20305SOL    HW162812   1.589   9.020  10.807
20305SOL    HW262813   1.576   9.075  10.666
20306SOL     OW62814   1.178  14.221  14.124
20306SOL    HW162815   1.248  14.158  14.139
20306SOL    HW262816   1.097  14.171  14.135
20307SOL     OW62817  14.022   9.191   9.311
20307SOL    HW162818  14.100   9.226   9.266
20307SOL    HW262819  14.003   9.110   9.264
20308SOL     OW62820  10.899   4.494   9.700
20308SOL    HW162821  10.890   4.553   9.774
20308SOL    HW262822  10.949   4.543   9.635
20309SOL     OW62823   2.009   1.193  10.543
20309SOL    HW162824   2.040   1.133  10.475
20309SOL    HW262825   1.914   1.179  10.545
20310SOL     OW62826  13.731   3.255   7.605
20310SOL    HW162827  13.646   3.251   7.562
20310SOL    HW262828  13.726   3.331   7.663
20311SOL     OW62829   2.789   2.407   4.208
20311SOL    HW162830   2.791   2.499   4.235
20311SOL    HW262831   2.824   2.408   4.119
20312SOL     OW62832  12.832  11.555   9.701
20312SOL    HW162833  12.901  11.488   9.705
20312SOL    HW262834  12.868  11.623   9.644
20313SOL     OW62835   3.055  14.506   9.635
20313SOL    HW162836   3.015  14.481   9.719
20313SOL    HW262837   2.998  14.575   9.602
20314SOL     OW62838   7.630   6.103  11.056
20314SOL    HW162839   7.686   6.026  11.052
20314SOL    HW262840   7.574   6.088  11.132
20315SOL     OW62841  10.910  12.737  11.338
20315SOL    HW162842  10.827  12.778  11.313
20315SOL    HW262843  10.935  12.782  11.419
20316SOL     OW62844  11.411   7.856   5.231
20316SOL    HW162845  11.473   7.884   5.164
20316SOL    HW262846  11.435   7.766   5.250
20317SOL     OW62847   2.365  12.968   1.813
20317SOL    HW162848   2.327  12.946   1.898
20317SOL    HW262849   2.395  13.059   1.822
20318SOL     OW62850  11.367   5.372   6.004
20318SOL    HW162851  11.290   5.346   5.953
20318SOL    HW262852  11.359   5.467   6.011
20319SOL     OW62853   8.381   9.852   5.110
20319SOL    HW162854   8.420   9.888   5.190
20319SOL    HW262855   8.320   9.786   5.142
20320SOL     OW62856   7.904  10.949  11.590
20320SOL    HW162857   7.855  10.915  11.515
20320SOL    HW262858   7.932  11.036  11.563
20321SOL     OW62859  11.280  13.979   9.538
20321SOL    HW162860  11.315  14.061   9.572
20321SOL    HW262861  11.348  13.914   9.558
20322SOL     OW62862   1.255  10.225  10.754
20322SOL    HW162863   1.201  10.280  10.697
20322SOL    HW262864   1.196  10.156  10.783
20323SOL     OW62865   8.611   8.666   2.249
20323SOL    HW162866   8.572   8.714   2.322
20323SOL    HW262867   8.679   8.612   2.290
20324SOL     OW62868   5.689   7.787   1.180
20324SOL    HW162869   5.773   7.812   1.217
20324SOL    HW262870   5.688   7.691   1.183
20325SOL     OW62871  13.195  14.503   0.170
20325SOL    HW162872  13.161  14.437   0.229
20325SOL    HW262873  13.119  14.532   0.119
20326SOL     OW62874   6.362  14.772   9.474
20326SOL    HW162875   6.294  14.816   9.524
20326SOL    HW262876   6.332  14.777   9.383
20327SOL     OW62877   6.948   3.878   7.738
20327SOL    HW162878   6.958   3.835   7.824
20327SOL    HW262879   7.035   3.876   7.699
20328SOL     OW62880   3.374   9.725  11.297
20328SOL    HW162881   3.306   9.788  11.320
20328SOL    HW262882   3.328   9.641  11.293
20329SOL     OW62883   8.777   6.840  10.587
20329SOL    HW162884   8.705   6.859  10.647
20329SOL    HW262885   8.794   6.924  10.544
20330SOL     OW62886  13.247  11.669  11.385
20330SOL    HW162887  13.302  11.714  11.321
20330SOL    HW262888  13.285  11.691  11.470
20331SOL     OW62889   5.007  13.798   3.065
20331SOL    HW162890   5.018  13.891   3.087
20331SOL    HW262891   4.921  13.775   3.100
20332SOL     OW62892   4.292   1.428   2.978
20332SOL    HW162893   4.386   1.411   2.971
20332SOL    HW262894   4.262   1.367   3.046
20333SOL     OW62895   6.889  14.050   4.590
20333SOL    HW162896   6.889  13.960   4.560
20333SOL    HW262897   6.838  14.048   4.671
20334SOL     OW62898   6.621   7.993  10.946
20334SOL    HW162899   6.612   8.031  10.858
20334SOL    HW262900   6.713   8.006  10.968
20335SOL     OW62901   4.957   7.558   2.582
20335SOL    HW162902   4.986   7.640   2.542
20335SOL    HW262903   4.914   7.511   2.510
20336SOL     OW62904   4.350   7.348  14.439
20336SOL    HW162905   4.442   7.367  14.419
20336SOL    HW262906   4.345   7.351  14.535
20337SOL     OW62907  13.722   5.800  11.138
20337SOL    HW162908  13.668   5.876  11.158
20337SOL    HW262909  13.810   5.826  11.163
20338SOL     OW62910   4.700  12.104   1.795
20338SOL    HW162911   4.794  12.109   1.779
20338SOL    HW262912   4.669  12.038   1.734
20339SOL     OW62913   6.224  12.432   9.463
20339SOL    HW162914   6.229  12.362   9.528
20339SOL    HW262915   6.313  12.438   9.428
20340SOL     OW62916   5.873   7.454   5.215
20340SOL    HW162917   5.916   7.539   5.224
20340SOL    HW262918   5.944   7.393   5.194
20341SOL     OW62919   7.786  14.431   1.184
20341SOL    HW162920   7.763  14.521   1.205
20341SOL    HW262921   7.704  14.392   1.153
20342SOL     OW62922   2.332   0.309   9.365
20342SOL    HW162923   2.275   0.286   9.292
20342SOL    HW262924   2.371   0.226   9.393
20343SOL     OW62925   6.805  11.773  10.137
20343SOL    HW162926   6.764  11.822  10.208
20343SOL    HW262927   6.888  11.742  10.173
20344SOL     OW62928  12.668   6.122   3.118
20344SOL    HW162929  12.596   6.078   3.074
20344SOL    HW262930  12.678   6.205   3.071
20345SOL     OW62931   3.718  14.718   8.410
20345SOL    HW162932   3.715  14.701   8.504
20345SOL    HW262933   3.772  14.647   8.375
20346SOL     OW62934  10.048   8.800  14.070
20346SOL    HW162935  10.075   8.875  14.123
20346SOL    HW262936  10.006   8.740  14.132
20347SOL     OW62937   4.798   1.180   9.357
20347SOL    HW162938   4.826   1.120   9.288
20347SOL    HW262939   4.711   1.147   9.383
20348SOL     OW62940   5.721  13.952   9.739
20348SOL    HW162941   5.691  13.954   9.648
20348SOL    HW262942   5.765  13.867   9.748
20349SOL     OW62943   3.108   0.405  13.408
20349SOL    HW162944   3.089   0.437  13.496
20349SOL    HW262945   3.063   0.321  13.403
20350SOL     OW62946  10.153   8.986   3.214
20350SOL    HW162947  10.098   8.926   3.265
20350SOL    HW262948  10.112   9.072   3.226
20351SOL     OW62949  12.781  12.779   6.401
20351SOL    HW162950  12.805  12.853   6.345
20351SOL    HW262951  12.855  12.719   6.394
20352SOL     OW62952  12.628   7.172   9.696
20352SOL    HW162953  12.535   7.166   9.718
20352SOL    HW262954  12.631   7.159   9.601
20353SOL     OW62955   3.806  11.786   5.795
20353SOL    HW162956   3.855  11.853   5.748
20353SOL    HW262957   3.714  11.806   5.775
20354SOL     OW62958   1.159   7.728   0.744
20354SOL    HW162959   1.188   7.741   0.835
20354SOL    HW262960   1.097   7.655   0.750
20355SOL     OW62961   2.667   0.449  14.793
20355SOL    HW162962   2.733   0.397  14.747
20355SOL    HW262963   2.638   0.392  14.864
20356SOL     OW62964  13.702   5.354   6.482
20356SOL    HW162965  13.794   5.379   6.484
20356SOL    HW262966  13.703   5.259   6.495
20357SOL     OW62967   3.295   1.188   2.602
20357SOL    HW162968   3.267   1.279   2.589
20357SOL    HW262969   3.321   1.158   2.515
20358SOL     OW62970   1.535  12.498   7.147
20358SOL    HW162971   1.440  12.501   7.144
20358SOL    HW262972   1.559  12.564   7.213
20359SOL     OW62973   0.321  11.885   4.168
20359SOL    HW162974   0.229  11.901   4.145
20359SOL    HW262975   0.370  11.948   4.115
20360SOL     OW62976   9.623   9.434   9.663
20360SOL    HW162977   9.581   9.412   9.746
20360SOL    HW262978   9.551   9.446   9.602
20361SOL     OW62979   1.973  12.103  11.389
20361SOL    HW162980   1.930  12.129  11.307
20361SOL    HW262981   2.065  12.096  11.366
20362SOL     OW62982   3.672   7.165  12.259
20362SOL    HW162983   3.604   7.100  12.277
20362SOL    HW262984   3.707   7.139  12.173
20363SOL     OW62985   4.638   8.282  10.885
20363SOL    HW162986   4.685   8.361  10.859
20363SOL    HW262987   4.678   8.257  10.968
20364SOL     OW62988  12.841  12.885   2.960
20364SOL    HW162989  12.806  12.945   2.895
20364SOL    HW262990  12.838  12.933   3.042
20365SOL     OW62991   7.025   5.516   8.476
20365SOL    HW162992   7.087   5.492   8.545
20365SOL    HW262993   7.008   5.609   8.491
20366SOL     OW62994   4.300   1.663   7.337
20366SOL    HW162995   4.328   1.574   7.361
20366SOL    HW262996   4.215   1.674   7.380
20367SOL     OW62997   6.727  10.978   7.377
20367SOL    HW162998   6.820  10.999   7.367
20367SOL    HW262999   6.688  11.000   7.292
20368SOL     OW63000  11.770  13.395  12.451
20368SOL    HW163001  11.778  13.317  12.395
20368SOL    HW263002  11.767  13.360  12.540
20369SOL     OW63003   0.117   9.988  10.740
20369SOL    HW163004   0.027   9.974  10.709
20369SOL    HW263005   0.172   9.952  10.671
20370SOL     OW63006  11.134   8.645   6.510
20370SOL    HW163007  11.142   8.677   6.420
20370SOL    HW263008  11.162   8.553   6.505
20371SOL     OW63009   1.859  14.366   5.795
20371SOL    HW163010   1.888  14.360   5.704
20371SOL    HW263011   1.763  14.360   5.790
20372SOL     OW63012   9.964   6.245  11.358
20372SOL    HW163013   9.925   6.277  11.276
20372SOL    HW263014  10.059   6.248  11.342
20373SOL     OW63015   3.295   1.539   2.913
20373SOL    HW163016   3.228   1.540   2.845
20373SOL    HW263017   3.374   1.511   2.868
20374SOL     OW63018   4.742  14.441  14.301
20374SOL    HW163019   4.825  14.472  14.263
20374SOL    HW263020   4.701  14.521  14.334
20375SOL     OW63021  11.356   3.739   4.691
20375SOL    HW163022  11.310   3.759   4.609
20375SOL    HW263023  11.398   3.655   4.675
20376SOL     OW63024   7.316  13.160   9.326
20376SOL    HW163025   7.327  13.065   9.328
20376SOL    HW263026   7.240  13.177   9.383
20377SOL     OW63027  12.851   1.755   5.416
20377SOL    HW163028  12.815   1.806   5.343
20377SOL    HW263029  12.821   1.665   5.399
20378SOL     OW63030   0.340   4.006  12.648
20378SOL    HW163031   0.401   3.939  12.618
20378SOL    HW263032   0.381   4.089  12.626
20379SOL     OW63033   0.505  14.722  11.277
20379SOL    HW163034   0.453  14.674  11.212
20379SOL    HW263035   0.579  14.756  11.228
20380SOL     OW63036   6.460   1.790   2.779
20380SOL    HW163037   6.553   1.808   2.795
20380SOL    HW263038   6.415   1.870   2.807
20381SOL     OW63039   0.672  10.087   5.494
20381SOL    HW163040   0.604  10.073   5.560
20381SOL    HW263041   0.625  10.092   5.412
20382SOL     OW63042   4.288  12.809   8.748
20382SOL    HW163043   4.357  12.820   8.813
20382SOL    HW263044   4.326  12.750   8.683
20383SOL     OW63045   2.796   2.561   7.307
20383SOL    HW163046   2.755   2.499   7.368
20383SOL    HW263047   2.843   2.622   7.363
20384SOL     OW63048  10.065   6.460   7.134
20384SOL    HW163049  10.099   6.375   7.162
20384SOL    HW263050  10.136   6.521   7.153
20385SOL     OW63051  11.292   4.893   9.838
20385SOL    HW163052  11.269   4.984   9.819
20385SOL    HW263053  11.214   4.843   9.814
20386SOL     OW63054  12.291  13.338   1.144
20386SOL    HW163055  12.224  13.366   1.207
20386SOL    HW263056  12.359  13.299   1.198
20387SOL     OW63057   9.120   0.041  14.663
20387SOL    HW163058   9.141   0.036  14.569
20387SOL    HW263059   9.197   0.082  14.702
20388SOL     OW63060   4.216  10.780   6.157
20388SOL    HW163061   4.309  10.803   6.151
20388SOL    HW263062   4.212  10.714   6.225
20389SOL     OW63063   6.351   0.323   7.738
20389SOL    HW163064   6.329   0.249   7.795
20389SOL    HW263065   6.334   0.291   7.649
20390SOL     OW63066   7.520  13.370   6.527
20390SOL    HW163067   7.485  13.386   6.615
20390SOL    HW263068   7.531  13.457   6.489
20391SOL     OW63069   3.144   0.710  10.617
20391SOL    HW163070   3.077   0.689  10.682
20391SOL    HW263071   3.189   0.627  10.601
20392SOL     OW63072  10.253  12.136  10.589
20392SOL    HW163073  10.292  12.052  10.614
20392SOL    HW263074  10.326  12.184  10.549
20393SOL     OW63075  13.002  12.088   2.645
20393SOL    HW163076  12.959  12.003   2.644
20393SOL    HW263077  13.068  12.081   2.714
20394SOL     OW63078   5.156   8.837   9.295
20394SOL    HW163079   5.188   8.923   9.322
20394SOL    HW263080   5.080   8.856   9.241
20395SOL     OW63081   1.895   2.001   5.329
20395SOL    HW163082   1.881   1.907   5.338
20395SOL    HW263083   1.808   2.040   5.343
20396SOL     OW63084   5.149   3.293   7.366
20396SOL    HW163085   5.115   3.382   7.360
20396SOL    HW263086   5.242   3.301   7.345
20397SOL     OW63087  13.860  13.602   1.268
20397SOL    HW163088  13.833  13.552   1.345
20397SOL    HW263089  13.783  13.652   1.243
20398SOL     OW63090  10.990   9.550  10.766
20398SOL    HW163091  11.056   9.611  10.733
20398SOL    HW263092  11.010   9.467  10.722
20399SOL     OW63093   5.617   1.209   7.269
20399SOL    HW163094   5.637   1.295   7.305
20399SOL    HW263095   5.697   1.158   7.281
20400SOL     OW63096   9.747   5.758   9.462
20400SOL    HW163097   9.707   5.682   9.505
20400SOL    HW263098   9.737   5.740   9.369
20401SOL     OW63099   5.243   3.417   1.670
20401SOL    HW163100   5.225   3.467   1.591
20401SOL    HW263101   5.316   3.464   1.712
20402SOL     OW63102   1.951   3.337   4.032
20402SOL    HW163103   2.012   3.323   3.959
20402SOL    HW263104   1.979   3.419   4.072
20403SOL     OW63105   5.136  11.710   7.462
20403SOL    HW163106   5.220  11.665   7.466
20403SOL    HW263107   5.118  11.736   7.552
20404SOL     OW63108   7.022  12.422   4.442
20404SOL    HW163109   7.104  12.466   4.466
20404SOL    HW263110   6.953  12.482   4.471
20405SOL     OW63111   7.227   8.418  14.649
20405SOL    HW163112   7.139   8.451  14.662
20405SOL    HW263113   7.264   8.473  14.581
20406SOL     OW63114   3.174   5.493   5.978
20406SOL    HW163115   3.209   5.428   5.917
20406SOL    HW263116   3.159   5.444   6.059
20407SOL     OW63117  12.955   0.643   4.498
20407SOL    HW163118  12.905   0.585   4.555
20407SOL    HW263119  12.929   0.731   4.525
20408SOL     OW63120  13.643   9.203   9.456
20408SOL    HW163121  13.631   9.225   9.549
20408SOL    HW263122  13.632   9.287   9.410
20409SOL     OW63123   0.787  12.043   4.802
20409SOL    HW163124   0.805  11.967   4.746
20409SOL    HW263125   0.753  12.110   4.742
20410SOL     OW63126   8.708  11.098  10.311
20410SOL    HW163127   8.771  11.157  10.353
20410SOL    HW263128   8.747  11.077  10.227
20411SOL     OW63129  13.261  10.233   7.061
20411SOL    HW163130  13.216  10.148   7.057
20411SOL    HW263131  13.195  10.292   7.098
20412SOL     OW63132   7.210  10.880  14.359
20412SOL    HW163133   7.216  10.789  14.389
20412SOL    HW263134   7.168  10.875  14.274
20413SOL     OW63135  11.562  13.133  14.248
20413SOL    HW163136  11.529  13.218  14.276
20413SOL    HW263137  11.568  13.082  14.329
20414SOL     OW63138   2.297  11.282  10.931
20414SOL    HW163139   2.224  11.222  10.913
20414SOL    HW263140   2.351  11.234  10.993
20415SOL     OW63141  13.088   3.346  13.429
20415SOL    HW163142  13.149   3.408  13.467
20415SOL    HW263143  13.134   3.309  13.354
20416SOL     OW63144   5.876   8.299   7.046
20416SOL    HW163145   5.854   8.220   6.996
20416SOL    HW263146   5.970   8.311   7.031
20417SOL     OW63147   1.484   0.136  13.347
20417SOL    HW163148   1.558   0.177  13.301
20417SOL    HW263149   1.522   0.058  13.388
20418SOL     OW63150   3.650  10.891   0.203
20418SOL    HW163151   3.737  10.931   0.201
20418SOL    HW263152   3.590  10.963   0.185
20419SOL     OW63153   1.036   1.603   5.009
20419SOL    HW163154   1.006   1.515   5.030
20419SOL    HW263155   0.964   1.660   5.035
20420SOL     OW63156   4.111   3.363  10.625
20420SOL    HW163157   4.141   3.358  10.716
20420SOL    HW263158   4.189   3.342  10.573
20421SOL     OW63159  10.699  12.704   2.655
20421SOL    HW163160  10.637  12.672   2.589
20421SOL    HW263161  10.758  12.762   2.608
20422SOL     OW63162   6.354   6.408  10.848
20422SOL    HW163163   6.440   6.393  10.886
20422SOL    HW263164   6.325   6.491  10.887
20423SOL     OW63165  14.600  14.392   6.438
20423SOL    HW163166  14.660  14.318   6.435
20423SOL    HW263167  14.553  14.389   6.355
20424SOL     OW63168   7.553  11.114  13.660
20424SOL    HW163169   7.480  11.171  13.639
20424SOL    HW263170   7.621  11.173  13.693
20425SOL     OW63171   2.855   8.613  12.672
20425SOL    HW163172   2.823   8.541  12.726
20425SOL    HW263173   2.784   8.677  12.672
20426SOL     OW63174   5.258   6.989   1.618
20426SOL    HW163175   5.349   6.958   1.616
20426SOL    HW263176   5.241   7.019   1.529
20427SOL     OW63177   8.514   6.637   6.948
20427SOL    HW163178   8.579   6.620   6.879
20427SOL    HW263179   8.566   6.656   7.026
20428SOL     OW63180  11.077  10.909   4.163
20428SOL    HW163181  11.106  10.977   4.102
20428SOL    HW263182  11.142  10.840   4.155
20429SOL     OW63183   9.785   7.387  10.717
20429SOL    HW163184   9.854   7.446  10.686
20429SOL    HW263185   9.755   7.427  10.799
20430SOL     OW63186   2.861   2.729   0.467
20430SOL    HW163187   2.868   2.659   0.403
20430SOL    HW263188   2.944   2.726   0.515
20431SOL     OW63189  10.240   6.765  11.102
20431SOL    HW163190  10.317   6.819  11.122
20431SOL    HW263191  10.264   6.719  11.021
20432SOL     OW63192  10.055   1.978   5.775
20432SOL    HW163193  10.086   1.904   5.827
20432SOL    HW263194  10.056   2.052   5.836
20433SOL     OW63195   7.070  13.715   4.751
20433SOL    HW163196   7.082  13.663   4.671
20433SOL    HW263197   7.129  13.790   4.740
20434SOL     OW63198   9.422  11.860   9.031
20434SOL    HW163199   9.390  11.791   8.973
20434SOL    HW263200   9.439  11.816   9.114
20435SOL     OW63201   8.433   9.587   6.120
20435SOL    HW163202   8.366   9.652   6.102
20435SOL    HW263203   8.406   9.547   6.202
20436SOL     OW63204   9.589  10.123   3.700
20436SOL    HW163205   9.608  10.052   3.760
20436SOL    HW263206   9.585  10.081   3.614
20437SOL     OW63207   3.277  14.730   5.711
20437SOL    HW163208   3.195  14.694   5.677
20437SOL    HW263209   3.337  14.725   5.637
20438SOL     OW63210   5.580   0.345   0.023
20438SOL    HW163211   5.568   0.360   0.117
20438SOL    HW263212   5.529   0.266   0.006
20439SOL     OW63213   5.023   1.117   8.252
20439SOL    HW163214   4.981   1.090   8.334
20439SOL    HW263215   4.995   1.208   8.240
20440SOL     OW63216   3.914  13.033   9.709
20440SOL    HW163217   3.862  12.989   9.776
20440SOL    HW263218   3.969  12.963   9.673
20441SOL     OW63219  14.836  12.672  13.683
20441SOL    HW163220  14.784  12.670  13.764
20441SOL    HW263221   0.054  12.695  13.712
20442SOL     OW63222   5.982  13.532   6.592
20442SOL    HW163223   5.897  13.491   6.576
20442SOL    HW263224   6.044  13.480   6.541
20443SOL     OW63225   2.561   3.323  12.546
20443SOL    HW163226   2.534   3.304  12.456
20443SOL    HW263227   2.624   3.254  12.568
20444SOL     OW63228   1.549   1.304   2.173
20444SOL    HW163229   1.510   1.381   2.133
20444SOL    HW263230   1.535   1.315   2.267
20445SOL     OW63231   2.394   0.426   6.602
20445SOL    HW163232   2.314   0.463   6.640
20445SOL    HW263233   2.388   0.447   6.509
20446SOL     OW63234   0.916   8.864   6.080
20446SOL    HW163235   0.870   8.874   5.996
20446SOL    HW263236   1.008   8.860   6.056
20447SOL     OW63237   2.008   8.843   2.020
20447SOL    HW163238   1.918   8.837   2.053
20447SOL    HW263239   2.024   8.937   2.010
20448SOL     OW63240  12.108  14.470  13.436
20448SOL    HW163241  12.167  14.536  13.400
20448SOL    HW263242  12.037  14.520  13.476
20449SOL     OW63243   0.670   0.629   5.081
20449SOL    HW163244   0.710   0.658   5.163
20449SOL    HW263245   0.671   0.534   5.085
20450SOL     OW63246  11.902   7.289  12.344
20450SOL    HW163247  11.994   7.282  12.366
20450SOL    HW263248  11.897   7.269  12.251
20451SOL     OW63249   3.158   9.218  14.516
20451SOL    HW163250   3.122   9.139  14.476
20451SOL    HW263251   3.086   9.255  14.567
20452SOL     OW63252   7.034  11.400   3.732
20452SOL    HW163253   6.998  11.474   3.780
20452SOL    HW263254   7.112  11.436   3.689
20453SOL     OW63255   7.096   4.058  10.492
20453SOL    HW163256   7.056   3.978  10.526
20453SOL    HW263257   7.147   4.029  10.416
20454SOL     OW63258   7.944   8.988   4.083
20454SOL    HW163259   7.910   8.912   4.034
20454SOL    HW263260   7.882   9.058   4.063
20455SOL     OW63261   6.836  10.666   9.623
20455SOL    HW163262   6.767  10.730   9.643
20455SOL    HW263263   6.915  10.719   9.614
20456SOL     OW63264   1.217   3.864   2.841
20456SOL    HW163265   1.293   3.808   2.830
20456SOL    HW263266   1.142   3.809   2.819
20457SOL     OW63267   6.239   5.546   1.445
20457SOL    HW163268   6.236   5.626   1.394
20457SOL    HW263269   6.153   5.540   1.488
20458SOL     OW63270   4.328   2.731  12.833
20458SOL    HW163271   4.324   2.691  12.747
20458SOL    HW263272   4.242   2.773  12.845
20459SOL     OW63273   2.586   0.198   4.993
20459SOL    HW163274   2.665   0.223   5.041
20459SOL    HW263275   2.520   0.185   5.061
20460SOL     OW63276   3.445  11.280   9.725
20460SOL    HW163277   3.380  11.210   9.719
20460SOL    HW263278   3.427  11.336   9.649
20461SOL     OW63279  10.199  13.499   8.776
20461SOL    HW163280  10.107  13.474   8.767
20461SOL    HW263281  10.242  13.462   8.699
20462SOL     OW63282  11.005   3.600   4.569
20462SOL    HW163283  10.977   3.622   4.480
20462SOL    HW263284  11.014   3.505   4.569
20463SOL     OW63285  13.515  12.404  11.676
20463SOL    HW163286  13.535  12.312  11.656
20463SOL    HW263287  13.470  12.400  11.761
20464SOL     OW63288  11.485   8.730  12.957
20464SOL    HW163289  11.400   8.719  12.997
20464SOL    HW263290  11.546   8.735  13.031
20465SOL     OW63291  11.292  12.949   8.975
20465SOL    HW163292  11.201  12.978   8.983
20465SOL    HW263293  11.288  12.876   8.914
20466SOL     OW63294   8.787   5.909   4.388
20466SOL    HW163295   8.802   5.999   4.418
20466SOL    HW263296   8.805   5.855   4.466
20467SOL     OW63297   6.455   1.671   5.953
20467SOL    HW163298   6.531   1.712   5.993
20467SOL    HW263299   6.492   1.605   5.894
20468SOL     OW63300   0.435   6.472   9.062
20468SOL    HW163301   0.363   6.492   9.121
20468SOL    HW263302   0.437   6.544   8.999
20469SOL     OW63303   3.316  13.484  14.558
20469SOL    HW163304   3.271  13.541  14.621
20469SOL    HW263305   3.290  13.396  14.583
20470SOL     OW63306   3.848   7.297   3.853
20470SOL    HW163307   3.880   7.374   3.805
20470SOL    HW263308   3.804   7.244   3.787
20471SOL     OW63309   9.296  13.193   8.309
20471SOL    HW163310   9.223  13.155   8.359
20471SOL    HW263311   9.255  13.260   8.254
20472SOL     OW63312   9.799   3.838  14.518
20472SOL    HW163313   9.845   3.863  14.437
20472SOL    HW263314   9.708   3.830  14.491
20473SOL     OW63315   7.126  10.354   9.617
20473SOL    HW163316   7.031  10.364   9.616
20473SOL    HW263317   7.150  10.377   9.707
20474SOL     OW63318   3.247   7.282   5.956
20474SOL    HW163319   3.303   7.313   6.027
20474SOL    HW263320   3.285   7.319   5.876
20475SOL     OW63321  14.734  14.676   1.988
20475SOL    HW163322  14.747  14.743   1.921
20475SOL    HW263323  14.816  14.677   2.038
20476SOL     OW63324   5.291   6.673  11.205
20476SOL    HW163325   5.300   6.693  11.112
20476SOL    HW263326   5.380   6.674  11.239
20477SOL     OW63327   1.740   6.889   3.988
20477SOL    HW163328   1.804   6.950   3.952
20477SOL    HW263329   1.794   6.818   4.024
20478SOL     OW63330   4.420   4.160  12.204
20478SOL    HW163331   4.392   4.164  12.296
20478SOL    HW263332   4.487   4.092  12.202
20479SOL     OW63333   7.790  12.725  14.708
20479SOL    HW163334   7.696  12.741  14.707
20479SOL    HW263335   7.828  12.810  14.730
20480SOL     OW63336   2.775  10.024   5.467
20480SOL    HW163337   2.710   9.996   5.531
20480SOL    HW263338   2.723  10.065   5.397
20481SOL     OW63339   3.323  14.250   5.405
20481SOL    HW163340   3.282  14.300   5.476
20481SOL    HW263341   3.378  14.186   5.450
20482SOL     OW63342   7.348   0.197   1.153
20482SOL    HW163343   7.389   0.238   1.077
20482SOL    HW263344   7.263   0.167   1.121
20483SOL     OW63345  13.203  14.303   4.924
20483SOL    HW163346  13.138  14.238   4.894
20483SOL    HW263347  13.277  14.251   4.953
20484SOL     OW63348  11.493   6.674   0.471
20484SOL    HW163349  11.546   6.725   0.411
20484SOL    HW263350  11.445   6.738   0.522
20485SOL     OW63351  12.530  12.041   2.838
20485SOL    HW163352  12.545  12.130   2.807
20485SOL    HW263353  12.468  12.004   2.776
20486SOL     OW63354  10.549  12.584  11.637
20486SOL    HW163355  10.515  12.634  11.711
20486SOL    HW263356  10.511  12.628  11.560
20487SOL     OW63357  11.740   3.122   7.325
20487SOL    HW163358  11.764   3.047   7.270
20487SOL    HW263359  11.752   3.091   7.414
20488SOL     OW63360  13.329  11.420  11.188
20488SOL    HW163361  13.270  11.496  11.184
20488SOL    HW263362  13.416  11.456  11.168
20489SOL     OW63363   0.467  11.112   4.209
20489SOL    HW163364   0.477  11.074   4.296
20489SOL    HW263365   0.373  11.106   4.191
20490SOL     OW63366   2.701   0.566  10.133
20490SOL    HW163367   2.617   0.534  10.167
20490SOL    HW263368   2.733   0.496  10.076
20491SOL     OW63369  11.417   8.293   0.365
20491SOL    HW163370  11.436   8.204   0.334
20491SOL    HW263371  11.411   8.345   0.285
20492SOL     OW63372   1.820   2.189  12.679
20492SOL    HW163373   1.833   2.194  12.585
20492SOL    HW263374   1.735   2.229  12.694
20493SOL     OW63375   5.945   1.822  11.024
20493SOL    HW163376   5.880   1.889  11.006
20493SOL    HW263377   5.951   1.772  10.942
20494SOL     OW63378   1.543  10.115  12.174
20494SOL    HW163379   1.537  10.094  12.081
20494SOL    HW263380   1.491  10.047  12.217
20495SOL     OW63381   7.777  14.074  12.156
20495SOL    HW163382   7.691  14.038  12.131
20495SOL    HW263383   7.784  14.155  12.106
20496SOL     OW63384   5.942   8.366   2.021
20496SOL    HW163385   5.876   8.360   1.952
20496SOL    HW263386   5.892   8.353   2.102
20497SOL     OW63387  13.087  10.016   0.583
20497SOL    HW163388  13.028  10.090   0.568
20497SOL    HW263389  13.174  10.050   0.563
20498SOL     OW63390   7.000   7.737   9.295
20498SOL    HW163391   6.907   7.760   9.300
20498SOL    HW263392   7.046   7.816   9.322
20499SOL     OW63393   8.197   6.425  14.105
20499SOL    HW163394   8.209   6.380  14.022
20499SOL    HW263395   8.284   6.429  14.143
20500SOL     OW63396  11.702   8.297  11.487
20500SOL    HW163397  11.735   8.349  11.560
20500SOL    HW263398  11.616   8.267  11.516
20501SOL     OW63399   8.562   2.399   5.814
20501SOL    HW163400   8.561   2.418   5.908
20501SOL    HW263401   8.586   2.482   5.773
20502SOL     OW63402   5.571  14.661   1.278
20502SOL    HW163403   5.571  14.586   1.218
20502SOL    HW263404   5.526  14.629   1.356
20503SOL     OW63405   7.534  10.376   2.685
20503SOL    HW163406   7.621  10.415   2.682
20503SOL    HW263407   7.550  10.282   2.699
20504SOL     OW63408   3.537   8.661   8.634
20504SOL    HW163409   3.539   8.757   8.627
20504SOL    HW263410   3.608   8.641   8.694
20505SOL     OW63411   8.846   2.018  14.491
20505SOL    HW163412   8.899   2.097  14.485
20505SOL    HW263413   8.906   1.947  14.468
20506SOL     OW63414  12.588  13.611   9.737
20506SOL    HW163415  12.557  13.669   9.806
20506SOL    HW263416  12.532  13.534   9.744
20507SOL     OW63417   0.967   6.084  10.586
20507SOL    HW163418   0.876   6.061  10.602
20507SOL    HW263419   0.997   6.020  10.522
20508SOL     OW63420   4.739   8.053  12.287
20508SOL    HW163421   4.794   8.128  12.264
20508SOL    HW263422   4.776   7.981  12.237
20509SOL     OW63423   3.861  12.311   6.527
20509SOL    HW163424   3.818  12.229   6.550
20509SOL    HW263425   3.824  12.334   6.442
20510SOL     OW63426  11.763   4.908   0.226
20510SOL    HW163427  11.674   4.935   0.250
20510SOL    HW263428  11.754   4.867   0.140
20511SOL     OW63429   2.619   9.019   3.947
20511SOL    HW163430   2.653   8.956   4.011
20511SOL    HW263431   2.655   8.989   3.863
20512SOL     OW63432   8.350  10.252   9.931
20512SOL    HW163433   8.382  10.342   9.929
20512SOL    HW263434   8.279  10.254   9.995
20513SOL     OW63435  11.998   7.747  10.382
20513SOL    HW163436  11.928   7.799  10.343
20513SOL    HW263437  12.011   7.674  10.322
20514SOL     OW63438   0.476  11.657   1.717
20514SOL    HW163439   0.552  11.712   1.736
20514SOL    HW263440   0.442  11.632   1.803
20515SOL     OW63441   9.736  10.827  10.692
20515SOL    HW163442   9.772  10.860  10.775
20515SOL    HW263443   9.646  10.803  10.712
20516SOL     OW63444   0.556  12.106   2.530
20516SOL    HW163445   0.624  12.158   2.572
20516SOL    HW263446   0.602  12.033   2.491
20517SOL     OW63447  12.325   7.861   6.204
20517SOL    HW163448  12.235   7.832   6.222
20517SOL    HW263449  12.332   7.945   6.248
20518SOL     OW63450   7.456  10.580   5.233
20518SOL    HW163451   7.427  10.528   5.157
20518SOL    HW263452   7.415  10.537   5.308
20519SOL     OW63453   2.367  14.334   7.388
20519SOL    HW163454   2.356  14.424   7.418
20519SOL    HW263455   2.284  14.291   7.408
20520SOL     OW63456   8.123   4.140   1.807
20520SOL    HW163457   8.108   4.052   1.839
20520SOL    HW263458   8.055   4.193   1.849
20521SOL     OW63459   7.260  14.632   2.675
20521SOL    HW163460   7.291  14.589   2.755
20521SOL    HW263461   7.332  14.690   2.649
20522SOL     OW63462   1.741   4.281   0.992
20522SOL    HW163463   1.726   4.375   1.002
20522SOL    HW263464   1.680   4.254   0.924
20523SOL     OW63465   0.837   4.765   7.221
20523SOL    HW163466   0.855   4.672   7.206
20523SOL    HW263467   0.744   4.768   7.241
20524SOL     OW63468   8.341   0.269   8.996
20524SOL    HW163469   8.261   0.223   9.021
20524SOL    HW263470   8.310   0.346   8.948
20525SOL     OW63471  14.548  12.418  11.766
20525SOL    HW163472  14.532  12.371  11.848
20525SOL    HW263473  14.635  12.456  11.776
20526SOL     OW63474   4.918  14.202   6.296
20526SOL    HW163475   4.898  14.258   6.371
20526SOL    HW263476   4.990  14.146   6.326
20527SOL     OW63477   3.875  14.721  14.854
20527SOL    HW163478   3.891  14.698  14.762
20527SOL    HW263479   3.874  14.816  14.854
20528SOL     OW63480  13.998  11.674   0.692
20528SOL    HW163481  13.915  11.632   0.670
20528SOL    HW263482  13.975  11.766   0.707
20529SOL     OW63483  12.912   3.954   4.379
20529SOL    HW163484  12.951   3.869   4.398
20529SOL    HW263485  12.942   3.976   4.291
20530SOL     OW63486  10.875   8.337   2.819
20530SOL    HW163487  10.884   8.278   2.894
20530SOL    HW263488  10.961   8.377   2.808
20531SOL     OW63489  10.136   9.560  14.457
20531SOL    HW163490  10.193   9.554  14.380
20531SOL    HW263491  10.196   9.569  14.530
20532SOL     OW63492   2.846   5.226   7.983
20532SOL    HW163493   2.768   5.172   7.973
20532SOL    HW263494   2.913   5.180   7.932
20533SOL     OW63495   5.006   8.111   9.211
20533SOL    HW163496   4.931   8.150   9.255
20533SOL    HW263497   4.968   8.059   9.140
20534SOL     OW63498   5.797   9.677   1.036
20534SOL    HW163499   5.704   9.657   1.027
20534SOL    HW263500   5.802   9.772   1.028
20535SOL     OW63501   9.115   0.084  11.198
20535SOL    HW163502   9.164   0.039  11.267
20535SOL    HW263503   9.032   0.108  11.239
20536SOL     OW63504  11.627   2.240  11.515
20536SOL    HW163505  11.717   2.235  11.484
20536SOL    HW263506  11.601   2.331  11.498
20537SOL     OW63507   4.100   4.489  10.533
20537SOL    HW163508   4.176   4.432  10.537
20537SOL    HW263509   4.024   4.430  10.537
20538SOL     OW63510   4.119   6.478  10.252
20538SOL    HW163511   4.104   6.460  10.345
20538SOL    HW263512   4.032   6.484  10.214
20539SOL     OW63513   1.247   8.226   6.832
20539SOL    HW163514   1.295   8.244   6.751
20539SOL    HW263515   1.284   8.286   6.896
20540SOL     OW63516   1.643  10.891  11.514
20540SOL    HW163517   1.602  10.859  11.594
20540SOL    HW263518   1.736  10.893  11.534
20541SOL     OW63519  13.157   7.692  14.111
20541SOL    HW163520  13.180   7.599  14.108
20541SOL    HW263521  13.072   7.698  14.067
20542SOL     OW63522   2.979   2.287   9.274
20542SOL    HW163523   2.924   2.302   9.351
20542SOL    HW263524   3.037   2.215   9.299
20543SOL     OW63525   7.621   3.538  12.491
20543SOL    HW163526   7.582   3.451  12.485
20543SOL    HW263527   7.674   3.535  12.571
20544SOL     OW63528   0.584   1.546   7.421
20544SOL    HW163529   0.616   1.477   7.478
20544SOL    HW263530   0.502   1.511   7.385
20545SOL     OW63531   7.565   5.582   4.287
20545SOL    HW163532   7.536   5.508   4.341
20545SOL    HW263533   7.660   5.584   4.299
20546SOL     OW63534   6.628  10.254  10.409
20546SOL    HW163535   6.689  10.232  10.339
20546SOL    HW263536   6.646  10.190  10.477
20547SOL     OW63537   5.528   1.219  13.121
20547SOL    HW163538   5.589   1.282  13.158
20547SOL    HW263539   5.457   1.213  13.185
20548SOL     OW63540   1.680   7.049  12.253
20548SOL    HW163541   1.750   6.983  12.246
20548SOL    HW263542   1.602   6.999  12.278
20549SOL     OW63543   1.659   9.595   9.416
20549SOL    HW163544   1.675   9.684   9.447
20549SOL    HW263545   1.614   9.553   9.489
20550SOL     OW63546   0.670   5.877   7.490
20550SOL    HW163547   0.681   5.862   7.396
20550SOL    HW263548   0.689   5.793   7.530
20551SOL     OW63549   9.535  10.172   6.721
20551SOL    HW163550   9.560  10.246   6.665
20551SOL    HW263551   9.445  10.190   6.747
20552SOL     OW63552   9.869  11.186   9.209
20552SOL    HW163553   9.897  11.118   9.149
20552SOL    HW263554   9.789  11.221   9.169
20553SOL     OW63555   9.077  10.556  10.068
20553SOL    HW163556   9.011  10.612  10.027
20553SOL    HW263557   9.029  10.478  10.096
20554SOL     OW63558   2.886   0.228  14.114
20554SOL    HW163559   2.935   0.207  14.194
20554SOL    HW263560   2.810   0.276  14.145
20555SOL     OW63561  12.982  11.312  12.197
20555SOL    HW163562  13.075  11.326  12.214
20555SOL    HW263563  12.970  11.338  12.106
20556SOL     OW63564   0.178   9.671   1.215
20556SOL    HW163565   0.135   9.607   1.272
20556SOL    HW263566   0.121   9.747   1.217
20557SOL     OW63567  12.283  13.848   8.063
20557SOL    HW163568  12.290  13.942   8.080
20557SOL    HW263569  12.363  13.826   8.016
20558SOL     OW63570  10.538   9.893  10.879
20558SOL    HW163571  10.493   9.934  10.806
20558SOL    HW263572  10.621   9.862  10.842
20559SOL     OW63573  12.834   3.539   3.260
20559SOL    HW163574  12.878   3.455   3.276
20559SOL    HW263575  12.830   3.581   3.346
20560SOL     OW63576   8.849  13.242   0.165
20560SOL    HW163577   8.792  13.278   0.233
20560SOL    HW263578   8.856  13.312   0.100
20561SOL     OW63579  14.309   7.300   2.356
20561SOL    HW163580  14.293   7.306   2.450
20561SOL    HW263581  14.279   7.384   2.321
20562SOL     OW63582  10.880   8.702  10.457
20562SOL    HW163583  10.843   8.777  10.409
20562SOL    HW263584  10.931   8.742  10.527
20563SOL     OW63585   4.867   4.137   4.331
20563SOL    HW163586   4.859   4.232   4.335
20563SOL    HW263587   4.899   4.111   4.417
20564SOL     OW63588  13.953  13.422   6.633
20564SOL    HW163589  13.971  13.332   6.659
20564SOL    HW263590  13.892  13.454   6.699
20565SOL     OW63591  13.890  14.385   1.651
20565SOL    HW163592  13.861  14.466   1.609
20565SOL    HW263593  13.907  14.410   1.742
20566SOL     OW63594   5.827   1.562  12.111
20566SOL    HW163595   5.855   1.649  12.082
20566SOL    HW263596   5.783   1.525  12.035
20567SOL     OW63597   9.383   2.788  13.649
20567SOL    HW163598   9.446   2.841  13.599
20567SOL    HW263599   9.399   2.699  13.620
20568SOL     OW63600   6.613  12.606   9.381
20568SOL    HW163601   6.610  12.522   9.426
20568SOL    HW263602   6.701  12.610   9.344
20569SOL     OW63603   3.307   9.741  12.223
20569SOL    HW163604   3.368   9.679  12.262
20569SOL    HW263605   3.222   9.696  12.228
20570SOL     OW63606  13.285  13.347   6.233
20570SOL    HW163607  13.323  13.271   6.189
20570SOL    HW263608  13.194  13.322   6.249
20571SOL     OW63609   9.443   2.462   0.241
20571SOL    HW163610   9.367   2.412   0.271
20571SOL    HW263611   9.416   2.554   0.250
20572SOL     OW63612   6.528   8.043  13.618
20572SOL    HW163613   6.455   8.084  13.665
20572SOL    HW263614   6.499   8.040  13.527
20573SOL     OW63615   0.284  12.766   1.749
20573SOL    HW163616   0.366  12.756   1.797
20573SOL    HW263617   0.254  12.677   1.733
20574SOL     OW63618   8.930   2.536   9.561
20574SOL    HW163619   8.931   2.462   9.621
20574SOL    HW263620   8.925   2.613   9.617
20575SOL     OW63621  12.437  13.018   5.732
20575SOL    HW163622  12.410  12.976   5.651
20575SOL    HW263623  12.412  12.956   5.801
20576SOL     OW63624  10.654   9.005   6.438
20576SOL    HW163625  10.656   9.052   6.354
20576SOL    HW263626  10.701   8.924   6.422
20577SOL     OW63627   0.653   7.423   4.227
20577SOL    HW163628   0.561   7.422   4.201
20577SOL    HW263629   0.695   7.485   4.167
20578SOL     OW63630   7.166  12.627  14.571
20578SOL    HW163631   7.097  12.638  14.636
20578SOL    HW263632   7.206  12.713  14.563
20579SOL     OW63633   0.797   6.158   7.778
20579SOL    HW163634   0.704   6.169   7.757
20579SOL    HW263635   0.804   6.182   7.871
20580SOL     OW63636  14.529  11.973   9.019
20580SOL    HW163637  14.451  11.947   8.972
20580SOL    HW263638  14.528  12.069   9.016
20581SOL     OW63639   1.600   5.396   5.903
20581SOL    HW163640   1.549   5.465   5.861
20581SOL    HW263641   1.687   5.434   5.915
20582SOL     OW63642   9.722  10.490   8.940
20582SOL    HW163643   9.808  10.532   8.952
20582SOL    HW263644   9.663  10.540   8.996
20583SOL     OW63645   2.212  12.410   3.597
20583SOL    HW163646   2.287  12.469   3.591
20583SOL    HW263647   2.223  12.351   3.522
20584SOL     OW63648  13.627  13.278   9.774
20584SOL    HW163649  13.677  13.360   9.772
20584SOL    HW263650  13.568  13.288   9.848
20585SOL     OW63651  13.227   1.926  12.594
20585SOL    HW163652  13.165   1.983  12.639
20585SOL    HW263653  13.192   1.919  12.505
20586SOL     OW63654   5.326   6.339   2.997
20586SOL    HW163655   5.373   6.420   2.975
20586SOL    HW263656   5.347   6.323   3.089
20587SOL     OW63657  10.306  12.925  13.276
20587SOL    HW163658  10.237  12.888  13.332
20587SOL    HW263659  10.375  12.952  13.336
20588SOL     OW63660   4.419   9.460   5.850
20588SOL    HW163661   4.400   9.497   5.936
20588SOL    HW263662   4.402   9.531   5.788
20589SOL     OW63663   9.876  10.790  13.859
20589SOL    HW163664   9.784  10.815  13.849
20589SOL    HW263665   9.924  10.854  13.806
20590SOL     OW63666  13.718  12.033   8.448
20590SOL    HW163667  13.719  11.948   8.404
20590SOL    HW263668  13.779  12.086   8.398
20591SOL     OW63669   9.882   2.343   4.867
20591SOL    HW163670   9.856   2.298   4.948
20591SOL    HW263671   9.800   2.365   4.824
20592SOL     OW63672  11.031   3.321   5.333
20592SOL    HW163673  11.061   3.297   5.245
20592SOL    HW263674  10.940   3.290   5.336
20593SOL     OW63675  11.115   6.420   1.052
20593SOL    HW163676  11.095   6.364   1.126
20593SOL    HW263677  11.210   6.431   1.055
20594SOL     OW63678   9.678  12.450   8.656
20594SOL    HW163679   9.653  12.380   8.716
20594SOL    HW263680   9.737  12.409   8.593
20595SOL     OW63681   2.341   9.394   8.899
20595SOL    HW163682   2.425   9.404   8.855
20595SOL    HW263683   2.277   9.434   8.839
20596SOL     OW63684  10.672   6.598  12.776
20596SOL    HW163685  10.595   6.630  12.728
20596SOL    HW263686  10.717   6.677  12.804
20597SOL     OW63687   5.588  10.781  12.786
20597SOL    HW163688   5.666  10.731  12.814
20597SOL    HW263689   5.560  10.738  12.705
20598SOL     OW63690   3.759   0.115  11.158
20598SOL    HW163691   3.758   0.138  11.251
20598SOL    HW263692   3.836   0.160  11.123
20599SOL     OW63693  13.228  11.230   2.794
20599SOL    HW163694  13.203  11.218   2.886
20599SOL    HW263695  13.321  11.207   2.791
20600SOL     OW63696  14.869   8.912  11.933
20600SOL    HW163697  14.848   8.821  11.909
20600SOL    HW263698   0.090   8.923  11.905
20601SOL     OW63699   7.057  13.921   8.476
20601SOL    HW163700   7.092  13.891   8.560
20601SOL    HW263701   6.963  13.905   8.481
20602SOL     OW63702   8.777   2.579  14.550
20602SOL    HW163703   8.708   2.615  14.495
20602SOL    HW263704   8.838   2.651  14.565
20603SOL     OW63705   4.166   8.224  11.213
20603SOL    HW163706   4.209   8.200  11.131
20603SOL    HW263707   4.100   8.289  11.187
20604SOL     OW63708  14.341   6.816  12.645
20604SOL    HW163709  14.326   6.742  12.704
20604SOL    HW263710  14.423   6.794  12.600
20605SOL     OW63711   3.476  13.830   9.589
20605SOL    HW163712   3.520  13.759   9.542
20605SOL    HW263713   3.410  13.786   9.641
20606SOL     OW63714   9.464   0.721   3.407
20606SOL    HW163715   9.427   0.637   3.435
20606SOL    HW263716   9.539   0.697   3.354
20607SOL     OW63717   5.991   4.204  10.458
20607SOL    HW163718   6.029   4.292  10.461
20607SOL    HW263719   5.988   4.181  10.365
20608SOL     OW63720   8.470   8.042   2.901
20608SOL    HW163721   8.537   8.100   2.937
20608SOL    HW263722   8.469   7.967   2.960
20609SOL     OW63723  13.892  14.153   4.149
20609SOL    HW163724  13.891  14.136   4.055
20609SOL    HW263725  13.813  14.204   4.165
20610SOL     OW63726   3.065  10.721  11.566
20610SOL    HW163727   3.081  10.632  11.535
20610SOL    HW263728   3.093  10.720  11.658
20611SOL     OW63729   3.421   3.095   2.713
20611SOL    HW163730   3.419   3.173   2.769
20611SOL    HW263731   3.345   3.044   2.741
20612SOL     OW63732   1.396   8.177   3.728
20612SOL    HW163733   1.424   8.264   3.757
20612SOL    HW263734   1.470   8.120   3.747
20613SOL     OW63735  13.713  14.262   7.569
20613SOL    HW163736  13.671  14.348   7.560
20613SOL    HW263737  13.795  14.280   7.615
20614SOL     OW63738   8.107  13.284   9.060
20614SOL    HW163739   8.094  13.339   8.983
20614SOL    HW263740   8.198  13.300   9.086
20615SOL     OW63741   7.240   8.801   3.534
20615SOL    HW163742   7.297   8.725   3.519
20615SOL    HW263743   7.285   8.873   3.490
20616SOL     OW63744  13.052   6.005   6.278
20616SOL    HW163745  13.057   5.942   6.350
20616SOL    HW263746  13.141   6.040   6.269
20617SOL     OW63747  14.034  13.073  14.117
20617SOL    HW163748  14.000  13.087  14.206
20617SOL    HW263749  14.065  13.159  14.090
20618SOL     OW63750  14.840  10.624  13.929
20618SOL    HW163751  14.842  10.715  13.956
20618SOL    HW263752   0.022  10.578  13.995
20619SOL     OW63753   7.035   5.306   1.380
20619SOL    HW163754   7.015   5.313   1.473
20619SOL    HW263755   6.982   5.374   1.339
20620SOL     OW63756  14.092   6.893  12.691
20620SOL    HW163757  14.108   6.984  12.718
20620SOL    HW263758  14.179   6.861  12.667
20621SOL     OW63759   5.191   4.768   1.081
20621SOL    HW163760   5.264   4.775   1.142
20621SOL    HW263761   5.188   4.854   1.038
20622SOL     OW63762   6.122  14.197  10.134
20622SOL    HW163763   6.096  14.236  10.051
20622SOL    HW263764   6.182  14.127  10.110
20623SOL     OW63765  12.381   6.484   0.507
20623SOL    HW163766  12.296   6.482   0.464
20623SOL    HW263767  12.431   6.414   0.466
20624SOL     OW63768   7.940  11.117   5.787
20624SOL    HW163769   7.994  11.191   5.815
20624SOL    HW263770   7.859  11.126   5.837
20625SOL     OW63771  12.979   0.453   0.690
20625SOL    HW163772  12.902   0.508   0.702
20625SOL    HW263773  12.957   0.370   0.732
20626SOL     OW63774   9.753  12.240   7.509
20626SOL    HW163775   9.668  12.213   7.544
20626SOL    HW263776   9.731  12.293   7.432
20627SOL     OW63777   8.500   5.436   3.729
20627SOL    HW163778   8.594   5.437   3.749
20627SOL    HW263779   8.489   5.361   3.671
20628SOL     OW63780  13.917   1.523   1.769
20628SOL    HW163781  13.848   1.490   1.827
20628SOL    HW263782  13.870   1.571   1.701
20629SOL     OW63783   0.642   5.209  10.971
20629SOL    HW163784   0.598   5.220  10.886
20629SOL    HW263785   0.597   5.135  11.012
20630SOL     OW63786   4.506   7.676   0.444
20630SOL    HW163787   4.453   7.614   0.394
20630SOL    HW263788   4.503   7.757   0.394
20631SOL     OW63789  12.175   6.894   1.318
20631SOL    HW163790  12.147   6.975   1.275
20631SOL    HW263791  12.270   6.894   1.310
20632SOL     OW63792   8.126  13.957  13.528
20632SOL    HW163793   8.063  14.019  13.564
20632SOL    HW263794   8.197  13.955  13.593
20633SOL     OW63795   0.929  13.608  13.935
20633SOL    HW163796   0.998  13.542  13.934
20633SOL    HW263797   0.915  13.627  14.028
20634SOL     OW63798   6.904  10.412  14.005
20634SOL    HW163799   6.931  10.425  13.914
20634SOL    HW263800   6.981  10.377  14.049
20635SOL     OW63801   2.052   3.267   9.352
20635SOL    HW163802   2.053   3.267   9.448
20635SOL    HW263803   1.959   3.268   9.330
20636SOL     OW63804  14.789  14.429   2.898
20636SOL    HW163805   0.008  14.393   2.902
20636SOL    HW263806  14.802  14.524   2.887
20637SOL     OW63807  11.558   6.709   3.723
20637SOL    HW163808  11.538   6.616   3.720
20637SOL    HW263809  11.475   6.753   3.706
20638SOL     OW63810  10.201   1.957   2.379
20638SOL    HW163811  10.200   1.995   2.291
20638SOL    HW263812  10.152   2.018   2.433
20639SOL     OW63813   7.425   9.620   5.835
20639SOL    HW163814   7.360   9.570   5.786
20639SOL    HW263815   7.418   9.709   5.801
20640SOL     OW63816   5.300  12.450  13.717
20640SOL    HW163817   5.365  12.490  13.660
20640SOL    HW263818   5.254  12.388  13.661
20641SOL     OW63819  10.450  11.816  11.079
20641SOL    HW163820  10.371  11.813  11.133
20641SOL    HW263821  10.452  11.905  11.045
20642SOL     OW63822   9.888   6.724  14.824
20642SOL    HW163823   9.797   6.750  14.839
20642SOL    HW263824   9.900   6.733  14.729
20643SOL     OW63825  11.642  12.896   1.775
20643SOL    HW163826  11.556  12.888   1.734
20643SOL    HW263827  11.659  12.990   1.779
20644SOL     OW63828   2.580  11.386   8.005
20644SOL    HW163829   2.527  11.306   8.009
20644SOL    HW263830   2.596  11.408   8.097
20645SOL     OW63831   4.435  12.265   2.567
20645SOL    HW163832   4.440  12.299   2.477
20645SOL    HW263833   4.466  12.175   2.561
20646SOL     OW63834   5.727   9.390   4.616
20646SOL    HW163835   5.714   9.484   4.606
20646SOL    HW263836   5.798   9.382   4.680
20647SOL     OW63837  11.081   8.334   3.996
20647SOL    HW163838  11.094   8.274   3.922
20647SOL    HW263839  11.045   8.279   4.065
20648SOL     OW63840   8.798   7.894   3.928
20648SOL    HW163841   8.842   7.829   3.873
20648SOL    HW263842   8.806   7.976   3.878
20649SOL     OW63843  10.388   7.589   9.774
20649SOL    HW163844  10.453   7.539   9.823
20649SOL    HW263845  10.304   7.565   9.813
20650SOL     OW63846   3.251   1.427  11.331
20650SOL    HW163847   3.299   1.469  11.260
20650SOL    HW263848   3.227   1.498  11.390
20651SOL     OW63849  13.732   1.127   3.272
20651SOL    HW163850  13.792   1.089   3.336
20651SOL    HW263851  13.650   1.136   3.320
20652SOL     OW63852   8.627  14.118  11.503
20652SOL    HW163853   8.634  14.038  11.452
20652SOL    HW263854   8.632  14.188  11.438
20653SOL     OW63855   9.019   8.896  14.637
20653SOL    HW163856   8.940   8.917  14.588
20653SOL    HW263857   8.999   8.921  14.727
20654SOL     OW63858   7.729   9.844   3.048
20654SOL    HW163859   7.663   9.809   2.988
20654SOL    HW263860   7.681   9.902   3.107
20655SOL     OW63861   8.013   9.654  10.874
20655SOL    HW163862   8.036   9.718  10.807
20655SOL    HW263863   8.073   9.672  10.947
20656SOL     OW63864   0.761   2.486   4.164
20656SOL    HW163865   0.716   2.419   4.216
20656SOL    HW263866   0.802   2.437   4.092
20657SOL     OW63867   2.257  13.988   2.535
20657SOL    HW163868   2.276  13.908   2.585
20657SOL    HW263869   2.191  14.034   2.587
20658SOL     OW63870  14.601   6.573   7.044
20658SOL    HW163871  14.558   6.491   7.067
20658SOL    HW263872  14.627   6.561   6.952
20659SOL     OW63873   9.156  10.830   6.990
20659SOL    HW163874   9.158  10.902   7.053
20659SOL    HW263875   9.065  10.803   6.986
20660SOL     OW63876   4.519   6.368   0.650
20660SOL    HW163877   4.594   6.315   0.624
20660SOL    HW263878   4.444   6.312   0.636
20661SOL     OW63879   5.884  14.272   3.687
20661SOL    HW163880   5.918  14.299   3.773
20661SOL    HW263881   5.911  14.342   3.628
20662SOL     OW63882   0.545  11.486   1.515
20662SOL    HW163883   0.610  11.434   1.564
20662SOL    HW263884   0.512  11.549   1.579
20663SOL     OW63885  10.842   0.440   9.720
20663SOL    HW163886  10.804   0.521   9.687
20663SOL    HW263887  10.804   0.372   9.665
20664SOL     OW63888   5.186   7.919   6.460
20664SOL    HW163889   5.214   7.979   6.530
20664SOL    HW263890   5.186   7.973   6.381
20665SOL     OW63891  10.291  12.174   3.936
20665SOL    HW163892  10.365  12.147   3.991
20665SOL    HW263893  10.244  12.092   3.918
20666SOL     OW63894   1.966   9.236  10.046
20666SOL    HW163895   2.004   9.183  10.115
20666SOL    HW263896   1.980   9.326  10.074
20667SOL     OW63897   0.151  11.727   4.918
20667SOL    HW163898   0.073  11.674   4.902
20667SOL    HW263899   0.169  11.771   4.835
20668SOL     OW63900   8.433   2.544   5.164
20668SOL    HW163901   8.461   2.505   5.081
20668SOL    HW263902   8.463   2.483   5.231
20669SOL     OW63903   1.705  11.532   8.518
20669SOL    HW163904   1.615  11.511   8.492
20669SOL    HW263905   1.716  11.486   8.601
20670SOL     OW63906   5.367   5.244   0.449
20670SOL    HW163907   5.419   5.279   0.521
20670SOL    HW263908   5.417   5.170   0.416
20671SOL     OW63909   2.665   6.549   5.863
20671SOL    HW163910   2.582   6.536   5.818
20671SOL    HW263911   2.647   6.528   5.954
20672SOL     OW63912  12.872   5.548   3.519
20672SOL    HW163913  12.862   5.627   3.466
20672SOL    HW263914  12.805   5.488   3.486
20673SOL     OW63915  10.606   2.504   8.969
20673SOL    HW163916  10.686   2.552   8.988
20673SOL    HW263917  10.587   2.457   9.050
20674SOL     OW63918  12.832  13.846  14.516
20674SOL    HW163919  12.885  13.917  14.550
20674SOL    HW263920  12.890  13.769  14.517
20675SOL     OW63921  11.711   3.249   7.915
20675SOL    HW163922  11.682   3.234   7.825
20675SOL    HW263923  11.798   3.290   7.905
20676SOL     OW63924   2.170   0.566   6.652
20676SOL    HW163925   2.091   0.541   6.605
20676SOL    HW263926   2.141   0.578   6.742
20677SOL     OW63927   4.088  10.628   9.092
20677SOL    HW163928   4.137  10.608   9.012
20677SOL    HW263929   4.021  10.560   9.098
20678SOL     OW63930  12.014  13.879  11.218
20678SOL    HW163931  11.947  13.910  11.157
20678SOL    HW263932  11.982  13.904  11.304
20679SOL     OW63933   7.613   3.796  13.280
20679SOL    HW163934   7.692   3.820  13.231
20679SOL    HW263935   7.647   3.761  13.363
20680SOL     OW63936   5.151  10.707   8.981
20680SOL    HW163937   5.149  10.777   8.917
20680SOL    HW263938   5.179  10.630   8.932
20681SOL     OW63939   6.866  13.421   7.740
20681SOL    HW163940   6.780  13.446   7.706
20681SOL    HW263941   6.915  13.503   7.747
20682SOL     OW63942   4.822   5.467   5.814
20682SOL    HW163943   4.877   5.459   5.892
20682SOL    HW263944   4.745   5.515   5.843
20683SOL     OW63945   2.319   7.440   6.443
20683SOL    HW163946   2.249   7.505   6.431
20683SOL    HW263947   2.346   7.417   6.354
20684SOL     OW63948   6.927   2.778  13.379
20684SOL    HW163949   7.020   2.781  13.360
20684SOL    HW263950   6.908   2.685  13.393
20685SOL     OW63951   8.504   7.718  14.055
20685SOL    HW163952   8.519   7.722  13.960
20685SOL    HW263953   8.574   7.771  14.092
20686SOL     OW63954   2.733   3.837   4.000
20686SOL    HW163955   2.789   3.908   3.968
20686SOL    HW263956   2.688   3.805   3.922
20687SOL     OW63957   3.575   6.069   8.542
20687SOL    HW163958   3.561   6.044   8.451
20687SOL    HW263959   3.670   6.062   8.555
20688SOL     OW63960   0.532  13.544  13.815
20688SOL    HW163961   0.470  13.499  13.871
20688SOL    HW263962   0.602  13.572  13.874
20689SOL     OW63963   9.047   2.577   7.530
20689SOL    HW163964   8.990   2.596   7.456
20689SOL    HW263965   8.999   2.511   7.581
20690SOL     OW63966   8.295   5.806   5.693
20690SOL    HW163967   8.296   5.901   5.702
20690SOL    HW263968   8.202   5.784   5.688
20691SOL     OW63969   6.447  13.182   2.609
20691SOL    HW163970   6.465  13.228   2.691
20691SOL    HW263971   6.467  13.246   2.541
20692SOL     OW63972   4.285   6.026   8.101
20692SOL    HW163973   4.354   6.060   8.044
20692SOL    HW263974   4.204   6.047   8.055
20693SOL     OW63975   5.905   4.159  14.141
20693SOL    HW163976   5.899   4.175  14.235
20693SOL    HW263977   5.989   4.197  14.115
20694SOL     OW63978   0.196  14.738   3.719
20694SOL    HW163979   0.100  14.737   3.716
20694SOL    HW263980   0.223  14.664   3.665
20695SOL     OW63981  11.405   0.549   2.540
20695SOL    HW163982  11.369   0.465   2.512
20695SOL    HW263983  11.496   0.530   2.561
20696SOL     OW63984   3.375   6.849   3.924
20696SOL    HW163985   3.324   6.768   3.917
20696SOL    HW263986   3.310   6.917   3.945
20697SOL     OW63987   6.555   9.759   4.457
20697SOL    HW163988   6.547   9.743   4.363
20697SOL    HW263989   6.475   9.806   4.480
20698SOL     OW63990  12.711  10.143  10.446
20698SOL    HW163991  12.701  10.111  10.356
20698SOL    HW263992  12.804  10.132  10.465
20699SOL     OW63993   2.063  14.601   3.537
20699SOL    HW163994   1.990  14.662   3.532
20699SOL    HW263995   2.129  14.648   3.588
20700SOL     OW63996  13.002   5.828   6.465
20700SOL    HW163997  13.013   5.733   6.459
20700SOL    HW263998  13.009   5.847   6.559
20701SOL     OW63999   0.658  14.452  14.729
20701SOL    HW164000   0.740  14.419  14.764
20701SOL    HW264001   0.673  14.460  14.635
20702SOL     OW64002  13.473  12.945  10.206
20702SOL    HW164003  13.529  13.000  10.151
20702SOL    HW264004  13.533  12.879  10.242
20703SOL     OW64005   5.226  12.261  10.286
20703SOL    HW164006   5.291  12.324  10.254
20703SOL    HW264007   5.252  12.243  10.377
20704SOL     OW64008   0.716   6.215  13.956
20704SOL    HW164009   0.718   6.123  13.931
20704SOL    HW264010   0.801   6.249  13.929
20705SOL     OW64011  13.644   1.525   3.615
20705SOL    HW164012  13.688   1.529   3.699
20705SOL    HW264013  13.697   1.578   3.556
20706SOL     OW64014   3.640  11.488   0.595
20706SOL    HW164015   3.613  11.397   0.586
20706SOL    HW264016   3.609  11.531   0.515
20707SOL     OW64017   4.505   8.344   6.428
20707SOL    HW164018   4.462   8.272   6.381
20707SOL    HW264019   4.434   8.400   6.458
20708SOL     OW64020   8.815  13.626   8.747
20708SOL    HW164021   8.816  13.668   8.833
20708SOL    HW264022   8.732  13.577   8.746
20709SOL     OW64023   6.594   3.279   9.656
20709SOL    HW164024   6.675   3.252   9.613
20709SOL    HW264025   6.534   3.205   9.644
20710SOL     OW64026   3.523  10.937   4.931
20710SOL    HW164027   3.430  10.916   4.935
20710SOL    HW264028   3.534  11.007   4.995
20711SOL     OW64029   2.651  11.770   3.469
20711SOL    HW164030   2.603  11.688   3.478
20711SOL    HW264031   2.588  11.837   3.496
20712SOL     OW64032   1.617   8.538   0.565
20712SOL    HW164033   1.705   8.504   0.584
20712SOL    HW264034   1.562   8.460   0.559
20713SOL     OW64035   4.448   1.695   7.659
20713SOL    HW164036   4.469   1.602   7.657
20713SOL    HW264037   4.437   1.715   7.752
20714SOL     OW64038   8.494   0.790  10.695
20714SOL    HW164039   8.502   0.843  10.773
20714SOL    HW264040   8.507   0.851  10.622
20715SOL     OW64041   6.055  10.061   9.997
20715SOL    HW164042   6.078  10.145  10.037
20715SOL    HW264043   6.123  10.001  10.028
20716SOL     OW64044  10.712  13.248   7.165
20716SOL    HW164045  10.709  13.213   7.254
20716SOL    HW264046  10.781  13.197   7.122
20717SOL     OW64047   2.885  10.744   1.840
20717SOL    HW164048   2.914  10.659   1.807
20717SOL    HW264049   2.833  10.723   1.918
20718SOL     OW64050   6.769   6.842   0.671
20718SOL    HW164051   6.825   6.769   0.643
20718SOL    HW264052   6.744   6.886   0.590
20719SOL     OW64053   5.141  12.317  13.501
20719SOL    HW164054   5.167  12.289  13.413
20719SOL    HW264055   5.089  12.245  13.535
20720SOL     OW64056   0.274   5.364  12.711
20720SOL    HW164057   0.331   5.381  12.786
20720SOL    HW264058   0.334   5.341  12.640
20721SOL     OW64059  12.059  13.434   8.596
20721SOL    HW164060  12.000  13.359   8.606
20721SOL    HW264061  12.042  13.466   8.507
20722SOL     OW64062  14.734   3.106  13.678
20722SOL    HW164063  14.711   3.079  13.767
20722SOL    HW264064  14.719   3.028  13.624
20723SOL     OW64065  12.298   3.131   6.642
20723SOL    HW164066  12.262   3.218   6.659
20723SOL    HW264067  12.315   3.130   6.548
20724SOL     OW64068   5.214   6.381  11.729
20724SOL    HW164069   5.205   6.425  11.644
20724SOL    HW264070   5.302   6.344  11.728
20725SOL     OW64071   1.592  12.146  11.781
20725SOL    HW164072   1.526  12.193  11.832
20725SOL    HW264073   1.547  12.070  11.746
20726SOL     OW64074  11.944   1.418   6.344
20726SOL    HW164075  11.998   1.455   6.274
20726SOL    HW264076  11.945   1.324   6.327
20727SOL     OW64077   2.397  12.621   5.962
20727SOL    HW164078   2.418  12.714   5.952
20727SOL    HW264079   2.302  12.617   5.953
20728SOL     OW64080   9.900   5.265   2.401
20728SOL    HW164081   9.907   5.179   2.442
20728SOL    HW264082   9.941   5.325   2.464
20729SOL     OW64083   7.873   6.390   4.086
20729SOL    HW164084   7.895   6.297   4.077
20729SOL    HW264085   7.902   6.430   4.004
20730SOL     OW64086   0.195  10.116   2.464
20730SOL    HW164087   0.151  10.141   2.545
20730SOL    HW264088   0.185  10.193   2.407
20731SOL     OW64089  12.143  12.084   4.555
20731SOL    HW164090  12.075  12.093   4.622
20731SOL    HW264091  12.161  12.174   4.527
20732SOL     OW64092  10.504   9.844   0.732
20732SOL    HW164093  10.530   9.828   0.823
20732SOL    HW264094  10.449   9.922   0.736
20733SOL     OW64095   4.246   9.574  11.293
20733SOL    HW164096   4.215   9.643  11.234
20733SOL    HW264097   4.208   9.595  11.378
20734SOL     OW64098   6.076   3.155   2.124
20734SOL    HW164099   6.004   3.093   2.130
20734SOL    HW264100   6.065   3.196   2.038
20735SOL     OW64101  11.554   7.151   7.860
20735SOL    HW164102  11.627   7.140   7.799
20735SOL    HW264103  11.585   7.111   7.941
20736SOL     OW64104   4.034  11.387  12.515
20736SOL    HW164105   4.020  11.466  12.463
20736SOL    HW264106   4.129  11.377  12.519
20737SOL     OW64107   6.377   4.515  11.668
20737SOL    HW164108   6.467   4.545  11.664
20737SOL    HW264109   6.383   4.420  11.653
20738SOL     OW64110   5.036   6.176   6.118
20738SOL    HW164111   5.054   6.263   6.081
20738SOL    HW264112   5.104   6.120   6.081
20739SOL     OW64113   2.792   1.954   6.567
20739SOL    HW164114   2.865   2.013   6.585
20739SOL    HW264115   2.724   1.981   6.629
20740SOL     OW64116   7.645   6.382  11.477
20740SOL    HW164117   7.564   6.404  11.523
20740SOL    HW264118   7.668   6.295  11.509
20741SOL     OW64119  11.467   2.416  14.190
20741SOL    HW164120  11.502   2.504  14.174
20741SOL    HW264121  11.472   2.372  14.105
20742SOL     OW64122   6.993   9.117  12.871
20742SOL    HW164123   7.072   9.093  12.918
20742SOL    HW264124   6.945   9.174  12.931
20743SOL     OW64125   5.488   0.781  10.720
20743SOL    HW164126   5.427   0.718  10.760
20743SOL    HW264127   5.561   0.728  10.690
20744SOL     OW64128   2.137   4.447   1.994
20744SOL    HW164129   2.064   4.407   2.041
20744SOL    HW264130   2.213   4.394   2.018
20745SOL     OW64131   7.516   8.238   5.853
20745SOL    HW164132   7.612   8.230   5.857
20745SOL    HW264133   7.491   8.175   5.785
20746SOL     OW64134  14.461  13.837   5.786
20746SOL    HW164135  14.379  13.794   5.809
20746SOL    HW264136  14.456  13.923   5.827
20747SOL     OW64137   0.127   4.726  10.056
20747SOL    HW164138   0.056   4.710  10.118
20747SOL    HW264139   0.090   4.699   9.971
20748SOL     OW64140  10.756   8.546  10.005
20748SOL    HW164141  10.688   8.610  10.028
20748SOL    HW264142  10.771   8.497  10.086
20749SOL     OW64143   6.257   5.112   0.489
20749SOL    HW164144   6.255   5.191   0.435
20749SOL    HW264145   6.306   5.138   0.568
20750SOL     OW64146   2.324  11.144  13.869
20750SOL    HW164147   2.286  11.231  13.854
20750SOL    HW264148   2.302  11.124  13.960
20751SOL     OW64149  13.353   0.408   7.523
20751SOL    HW164150  13.366   0.469   7.450
20751SOL    HW264151  13.320   0.328   7.482
20752SOL     OW64152  11.632  11.080  14.276
20752SOL    HW164153  11.654  11.060  14.367
20752SOL    HW264154  11.665  11.169  14.263
20753SOL     OW64155  14.491   9.242  12.545
20753SOL    HW164156  14.571   9.195  12.568
20753SOL    HW264157  14.435   9.174  12.506
20754SOL     OW64158  13.475   4.216   6.400
20754SOL    HW164159  13.542   4.282   6.415
20754SOL    HW264160  13.504   4.140   6.450
20755SOL     OW64161  13.813  10.958  11.184
20755SOL    HW164162  13.725  10.966  11.219
20755SOL    HW264163  13.843  10.872  11.213
20756SOL     OW64164   7.618  11.353   0.215
20756SOL    HW164165   7.667  11.434   0.198
20756SOL    HW264166   7.527  11.382   0.221
20757SOL     OW64167   8.927   4.753  13.584
20757SOL    HW164168   8.944   4.846  13.573
20757SOL    HW264169   8.868   4.748  13.659
20758SOL     OW64170  12.414  11.345   6.719
20758SOL    HW164171  12.404  11.330   6.813
20758SOL    HW264172  12.435  11.438   6.712
20759SOL     OW64173   8.161   5.054  11.544
20759SOL    HW164174   8.255   5.052  11.560
20759SOL    HW264175   8.136   5.145  11.559
20760SOL     OW64176   9.427  11.307   2.204
20760SOL    HW164177   9.459  11.396   2.219
20760SOL    HW264178   9.465  11.256   2.275
20761SOL     OW64179  14.002   2.224  12.287
20761SOL    HW164180  14.031   2.263  12.369
20761SOL    HW264181  14.027   2.132  12.294
20762SOL     OW64182   1.541   2.444   5.622
20762SOL    HW164183   1.465   2.446   5.564
20762SOL    HW264184   1.612   2.413   5.567
20763SOL     OW64185   0.341   5.998   9.621
20763SOL    HW164186   0.394   6.054   9.679
20763SOL    HW264187   0.379   5.911   9.631
20764SOL     OW64188  13.607   1.607   6.322
20764SOL    HW164189  13.670   1.641   6.259
20764SOL    HW264190  13.528   1.590   6.271
20765SOL     OW64191   5.898   4.525   7.092
20765SOL    HW164192   5.874   4.591   7.028
20765SOL    HW264193   5.975   4.561   7.137
20766SOL     OW64194   2.183   2.483  11.075
20766SOL    HW164195   2.157   2.481  11.167
20766SOL    HW264196   2.138   2.407  11.036
20767SOL     OW64197  10.954   0.666   1.714
20767SOL    HW164198  11.047   0.684   1.731
20767SOL    HW264199  10.942   0.692   1.622
20768SOL     OW64200   4.406  12.318   5.529
20768SOL    HW164201   4.338  12.281   5.472
20768SOL    HW264202   4.361  12.334   5.613
20769SOL     OW64203   4.501   1.562  14.207
20769SOL    HW164204   4.569   1.576  14.141
20769SOL    HW264205   4.420   1.593  14.166
20770SOL     OW64206   3.731   9.135   1.246
20770SOL    HW164207   3.732   9.052   1.292
20770SOL    HW264208   3.686   9.117   1.163
20771SOL     OW64209   8.447   0.983  10.466
20771SOL    HW164210   8.486   0.969  10.380
20771SOL    HW264211   8.432   1.078  10.471
20772SOL     OW64212  11.050   7.124   0.232
20772SOL    HW164213  10.978   7.185   0.250
20772SOL    HW264214  11.068   7.084   0.317
20773SOL     OW64215  11.140  14.148  11.087
20773SOL    HW164216  11.210  14.162  11.151
20773SOL    HW264217  11.141  14.053  11.072
20774SOL     OW64218  13.115   8.809   3.920
20774SOL    HW164219  13.128   8.739   3.856
20774SOL    HW264220  13.189   8.801   3.980
20775SOL     OW64221  10.301  10.031   4.050
20775SOL    HW164222  10.393  10.050   4.031
20775SOL    HW264223  10.252  10.080   3.984
20776SOL     OW64224   5.567   3.048  12.674
20776SOL    HW164225   5.582   2.995  12.596
20776SOL    HW264226   5.532   2.986  12.738
20777SOL     OW64227   2.039  11.904  14.043
20777SOL    HW164228   2.090  11.841  14.094
20777SOL    HW264229   2.079  11.989  14.063
20778SOL     OW64230   5.334  13.877   8.557
20778SOL    HW164231   5.317  13.851   8.648
20778SOL    HW264232   5.308  13.969   8.553
20779SOL     OW64233   6.053   1.912   6.457
20779SOL    HW164234   5.973   1.950   6.493
20779SOL    HW264235   6.031   1.822   6.437
20780SOL     OW64236   9.820   2.528  12.287
20780SOL    HW164237   9.733   2.488  12.281
20780SOL    HW264238   9.807   2.618  12.256
20781SOL     OW64239   0.830   8.948   8.414
20781SOL    HW164240   0.756   9.008   8.402
20781SOL    HW264241   0.890   8.970   8.343
20782SOL     OW64242   6.874   3.305   2.851
20782SOL    HW164243   6.836   3.254   2.923
20782SOL    HW264244   6.910   3.382   2.893
20783SOL     OW64245   1.976  10.635   4.467
20783SOL    HW164246   1.936  10.651   4.553
20783SOL    HW264247   1.902  10.616   4.410
20784SOL     OW64248   2.537  13.074   0.869
20784SOL    HW164249   2.534  12.982   0.840
20784SOL    HW264250   2.447  13.094   0.893
20785SOL     OW64251   8.801  13.154  13.224
20785SOL    HW164252   8.868  13.115  13.281
20785SOL    HW264253   8.747  13.207  13.283
20786SOL     OW64254   2.839   2.200   8.866
20786SOL    HW164255   2.899   2.134   8.830
20786SOL    HW264256   2.896   2.266   8.904
20787SOL     OW64257   1.991   4.258   7.795
20787SOL    HW164258   2.013   4.256   7.888
20787SOL    HW264259   2.053   4.321   7.757
20788SOL     OW64260  11.374  10.818  12.336
20788SOL    HW164261  11.280  10.826  12.324
20788SOL    HW264262  11.394  10.875  12.411
20789SOL     OW64263   1.670  10.016  10.628
20789SOL    HW164264   1.611   9.978  10.694
20789SOL    HW264265   1.683  10.106  10.656
20790SOL     OW64266   0.105   3.751  14.711
20790SOL    HW164267   0.084   3.839  14.678
20790SOL    HW264268   0.020   3.715  14.737
20791SOL     OW64269  11.154  13.727  13.129
20791SOL    HW164270  11.177  13.639  13.158
20791SOL    HW264271  11.181  13.731  13.038
20792SOL     OW64272   6.600  13.790   7.891
20792SOL    HW164273   6.689  13.758   7.881
20792SOL    HW264274   6.582  13.780   7.984
20793SOL     OW64275   5.522  14.400   8.369
20793SOL    HW164276   5.445  14.428   8.418
20793SOL    HW264277   5.488  14.373   8.283
20794SOL     OW64278   7.329  14.043   0.950
20794SOL    HW164279   7.298  14.033   0.860
20794SOL    HW264280   7.400  13.979   0.958
20795SOL     OW64281   6.210   1.253  13.266
20795SOL    HW164282   6.133   1.231  13.319
20795SOL    HW264283   6.269   1.179  13.278
20796SOL     OW64284   1.422   7.961   7.479
20796SOL    HW164285   1.509   7.941   7.514
20796SOL    HW264286   1.365   7.959   7.555
20797SOL     OW64287   0.528   7.369   5.766
20797SOL    HW164288   0.568   7.404   5.846
20797SOL    HW264289   0.461   7.433   5.743
20798SOL     OW64290   8.834  10.806   4.914
20798SOL    HW164291   8.872  10.828   4.999
20798SOL    HW264292   8.739  10.807   4.929
20799SOL     OW64293   1.404   3.900   9.108
20799SOL    HW164294   1.343   3.854   9.166
20799SOL    HW264295   1.442   3.831   9.054
20800SOL     OW64296   6.424   2.398  10.601
20800SOL    HW164297   6.495   2.384  10.538
20800SOL    HW264298   6.467   2.408  10.685
20801SOL     OW64299  14.343   4.467  12.230
20801SOL    HW164300  14.248   4.474  12.221
20801SOL    HW264301  14.356   4.437  12.320
20802SOL     OW64302  10.667   9.041   0.302
20802SOL    HW164303  10.627   9.035   0.389
20802SOL    HW264304  10.607   8.993   0.245
20803SOL     OW64305  10.741   1.930   2.761
20803SOL    HW164306  10.709   1.888   2.681
20803SOL    HW264307  10.662   1.960   2.806
20804SOL     OW64308   0.067   2.733   4.232
20804SOL    HW164309  14.860   2.721   4.288
20804SOL    HW264310   0.041   2.698   4.147
20805SOL     OW64311   0.671   5.470  14.139
20805SOL    HW164312   0.645   5.560  14.119
20805SOL    HW264313   0.693   5.432  14.054
20806SOL     OW64314   3.634  11.955  14.566
20806SOL    HW164315   3.634  12.031  14.509
20806SOL    HW264316   3.544  11.948  14.597
20807SOL     OW64317   6.861  12.329   0.566
20807SOL    HW164318   6.830  12.379   0.641
20807SOL    HW264319   6.880  12.242   0.600
20808SOL     OW64320   8.100   2.588   8.822
20808SOL    HW164321   8.035   2.648   8.859
20808SOL    HW264322   8.113   2.522   8.891
20809SOL     OW64323  14.361  13.609   1.947
20809SOL    HW164324  14.421  13.560   2.002
20809SOL    HW264325  14.277  13.563   1.956
20810SOL     OW64326   0.690   8.196   4.560
20810SOL    HW164327   0.654   8.167   4.476
20810SOL    HW264328   0.753   8.265   4.536
20811SOL     OW64329   9.398   0.834   0.186
20811SOL    HW164330   9.370   0.748   0.157
20811SOL    HW264331   9.348   0.850   0.267
20812SOL     OW64332  10.663  13.966   5.811
20812SOL    HW164333  10.685  14.059   5.816
20812SOL    HW264334  10.619  13.957   5.726
20813SOL     OW64335  12.262   2.448   3.091
20813SOL    HW164336  12.222   2.385   3.031
20813SOL    HW264337  12.354   2.450   3.066
20814SOL     OW64338   2.787   5.661  13.095
20814SOL    HW164339   2.736   5.611  13.158
20814SOL    HW264340   2.736   5.741  13.081
20815SOL     OW64341   4.176   1.653   5.570
20815SOL    HW164342   4.126   1.716   5.519
20815SOL    HW264343   4.131   1.569   5.557
20816SOL     OW64344  10.989  11.252   6.726
20816SOL    HW164345  10.908  11.260   6.776
20816SOL    HW264346  10.992  11.159   6.700
20817SOL     OW64347   3.560   4.732  13.900
20817SOL    HW164348   3.597   4.700  13.818
20817SOL    HW264349   3.540   4.824  13.883
20818SOL     OW64350   7.494   8.518   5.025
20818SOL    HW164351   7.473   8.527   5.118
20818SOL    HW264352   7.457   8.596   4.984
20819SOL     OW64353  10.603   3.680  14.560
20819SOL    HW164354  10.645   3.684  14.474
20819SOL    HW264355  10.523   3.630  14.545
20820SOL     OW64356   3.807   8.827   7.065
20820SOL    HW164357   3.811   8.913   7.106
20820SOL    HW264358   3.818   8.765   7.138
20821SOL     OW64359   2.209  12.937  11.979
20821SOL    HW164360   2.167  12.903  11.900
20821SOL    HW264361   2.138  12.941  12.044
20822SOL     OW64362   1.953  10.537   9.422
20822SOL    HW164363   1.910  10.459   9.387
20822SOL    HW264364   1.939  10.604   9.355
20823SOL     OW64365   2.079  13.774   0.742
20823SOL    HW164366   2.153  13.717   0.723
20823SOL    HW264367   2.017  13.758   0.671
20824SOL     OW64368   4.067   2.298  11.741
20824SOL    HW164369   4.025   2.257  11.816
20824SOL    HW264370   4.129   2.232  11.710
20825SOL     OW64371   9.895   1.981   4.732
20825SOL    HW164372   9.805   2.013   4.731
20825SOL    HW264373   9.900   1.928   4.811
20826SOL     OW64374   8.853  11.525   8.278
20826SOL    HW164375   8.918  11.532   8.208
20826SOL    HW264376   8.903  11.532   8.359
20827SOL     OW64377  11.166  13.711   9.217
20827SOL    HW164378  11.115  13.664   9.283
20827SOL    HW264379  11.247  13.736   9.261
20828SOL     OW64380   2.725   6.052   2.378
20828SOL    HW164381   2.719   6.147   2.385
20828SOL    HW264382   2.690   6.020   2.461
20829SOL     OW64383   1.685   5.164   3.846
20829SOL    HW164384   1.639   5.217   3.780
20829SOL    HW264385   1.627   5.166   3.922
20830SOL     OW64386   8.633   3.012   9.628
20830SOL    HW164387   8.539   3.022   9.642
20830SOL    HW264388   8.667   3.102   9.629
20831SOL     OW64389   3.390  12.173   6.929
20831SOL    HW164390   3.470  12.191   6.879
20831SOL    HW264391   3.328  12.141   6.864
20832SOL     OW64392  12.258  12.609   2.393
20832SOL    HW164393  12.222  12.527   2.429
20832SOL    HW264394  12.332  12.630   2.449
20833SOL     OW64395   7.120   5.314  14.121
20833SOL    HW164396   7.083   5.384  14.174
20833SOL    HW264397   7.071   5.235  14.146
20834SOL     OW64398  14.020   5.479   3.309
20834SOL    HW164399  14.077   5.454   3.381
20834SOL    HW264400  14.077   5.487   3.233
20835SOL     OW64401   9.838   7.932  14.678
20835SOL    HW164402   9.891   7.902  14.752
20835SOL    HW264403   9.828   7.854  14.623
20836SOL     OW64404   4.935  10.389   4.350
20836SOL    HW164405   4.864  10.365   4.291
20836SOL    HW264406   4.900  10.461   4.403
20837SOL     OW64407   3.636   0.830   1.878
20837SOL    HW164408   3.615   0.739   1.899
20837SOL    HW264409   3.566   0.881   1.918
20838SOL     OW64410   4.162  10.017   4.282
20838SOL    HW164411   4.173  10.063   4.199
20838SOL    HW264412   4.071  10.033   4.307
20839SOL     OW64413  11.604   5.014   5.969
20839SOL    HW164414  11.674   5.024   6.033
20839SOL    HW264415  11.590   5.102   5.934
20840SOL     OW64416  14.220  14.452   1.659
20840SOL    HW164417  14.241  14.538   1.696
20840SOL    HW264418  14.130  14.435   1.688
20841SOL     OW64419   4.282  13.450   0.496
20841SOL    HW164420   4.237  13.527   0.532
20841SOL    HW264421   4.227  13.423   0.422
20842SOL     OW64422  13.351   4.174  13.521
20842SOL    HW164423  13.265   4.215  13.519
20842SOL    HW264424  13.378   4.169  13.430
20843SOL     OW64425   0.026   2.513   8.840
20843SOL    HW164426   0.090   2.557   8.784
20843SOL    HW264427   0.076   2.445   8.885
20844SOL     OW64428   4.956   4.795   2.290
20844SOL    HW164429   4.930   4.887   2.292
20844SOL    HW264430   4.951   4.767   2.381
20845SOL     OW64431  10.666   1.204   8.418
20845SOL    HW164432  10.698   1.116   8.401
20845SOL    HW264433  10.594   1.216   8.355
20846SOL     OW64434  10.803   1.535   1.271
20846SOL    HW164435  10.782   1.489   1.353
20846SOL    HW264436  10.818   1.626   1.298
20847SOL     OW64437  11.231   1.588  12.060
20847SOL    HW164438  11.245   1.546  12.145
20847SOL    HW264439  11.167   1.532  12.016
20848SOL     OW64440   0.668   3.706   4.917
20848SOL    HW164441   0.681   3.630   4.860
20848SOL    HW264442   0.728   3.691   4.991
20849SOL     OW64443  14.824  13.833  11.219
20849SOL    HW164444   0.047  13.853  11.228
20849SOL    HW264445  14.814  13.801  11.129
20850SOL     OW64446   3.353   1.841   4.419
20850SOL    HW164447   3.351   1.804   4.330
20850SOL    HW264448   3.357   1.765   4.476
20851SOL     OW64449   1.543  10.343  11.222
20851SOL    HW164450   1.621  10.398  11.221
20851SOL    HW264451   1.504  10.354  11.135
20852SOL     OW64452   3.076   4.212   7.584
20852SOL    HW164453   3.003   4.184   7.638
20852SOL    HW264454   3.154   4.187   7.633
20853SOL     OW64455  11.261   2.654   6.495
20853SOL    HW164456  11.246   2.743   6.463
20853SOL    HW264457  11.251   2.599   6.417
20854SOL     OW64458   8.659   5.515  10.370
20854SOL    HW164459   8.658   5.557  10.456
20854SOL    HW264460   8.738   5.462  10.370
20855SOL     OW64461   3.183   7.429  12.150
20855SOL    HW164462   3.131   7.488  12.095
20855SOL    HW264463   3.185   7.472  12.236
20856SOL     OW64464   0.470   7.457   1.057
20856SOL    HW164465   0.487   7.373   1.099
20856SOL    HW264466   0.429   7.511   1.125
20857SOL     OW64467  14.550  14.643  12.383
20857SOL    HW164468  14.487  14.715  12.384
20857SOL    HW264469  14.563  14.624  12.290
20858SOL     OW64470   7.460   9.259  11.703
20858SOL    HW164471   7.521   9.247  11.631
20858SOL    HW264472   7.515   9.289  11.776
20859SOL     OW64473  10.650  10.487   4.479
20859SOL    HW164474  10.724  10.449   4.431
20859SOL    HW264475  10.688  10.559   4.528
20860SOL     OW64476  13.968  11.413   7.244
20860SOL    HW164477  14.015  11.390   7.164
20860SOL    HW264478  13.932  11.500   7.226
20861SOL     OW64479  13.490   9.765   2.718
20861SOL    HW164480  13.570   9.718   2.694
20861SOL    HW264481  13.521   9.842   2.764
20862SOL     OW64482  14.173   1.739  12.155
20862SOL    HW164483  14.248   1.680  12.157
20862SOL    HW264484  14.193   1.801  12.085
20863SOL     OW64485   8.264   4.556  14.868
20863SOL    HW164486   8.174   4.587  14.860
20863SOL    HW264487   8.315   4.615  14.811
20864SOL     OW64488   4.522   5.048  13.610
20864SOL    HW164489   4.585   5.053  13.538
20864SOL    HW264490   4.506   5.139  13.634
20865SOL     OW64491  12.748  12.762   9.005
20865SOL    HW164492  12.826  12.709   8.987
20865SOL    HW264493  12.701  12.713   9.073
20866SOL     OW64494   3.915   7.676   7.781
20866SOL    HW164495   3.954   7.664   7.695
20866SOL    HW264496   3.874   7.762   7.776
20867SOL     OW64497   5.941   4.503  12.080
20867SOL    HW164498   5.865   4.548  12.118
20867SOL    HW264499   5.995   4.479  12.155
20868SOL     OW64500   5.133   7.791   5.090
20868SOL    HW164501   5.109   7.722   5.152
20868SOL    HW264502   5.228   7.801   5.100
20869SOL     OW64503  13.602   5.298  12.579
20869SOL    HW164504  13.596   5.282  12.673
20869SOL    HW264505  13.526   5.354  12.560
20870SOL     OW64506  14.026  12.585   2.728
20870SOL    HW164507  14.027  12.596   2.823
20870SOL    HW264508  13.936  12.559   2.708
20871SOL     OW64509   3.418  14.297  12.366
20871SOL    HW164510   3.418  14.277  12.460
20871SOL    HW264511   3.461  14.382  12.360
20872SOL     OW64512   8.200   7.912   5.290
20872SOL    HW164513   8.109   7.918   5.321
20872SOL    HW264514   8.247   7.977   5.341
20873SOL     OW64515   1.524  12.206  13.729
20873SOL    HW164516   1.439  12.249  13.723
20873SOL    HW264517   1.583  12.261  13.676
20874SOL     OW64518   0.983   4.484  12.008
20874SOL    HW164519   0.982   4.482  11.912
20874SOL    HW264520   1.046   4.553  12.029
20875SOL     OW64521   8.848   8.358   8.790
20875SOL    HW164522   8.776   8.368   8.853
20875SOL    HW264523   8.890   8.275   8.814
20876SOL     OW64524   9.559   7.083   4.274
20876SOL    HW164525   9.612   7.128   4.339
20876SOL    HW264526   9.499   7.029   4.325
20877SOL     OW64527   0.001   6.422   6.678
20877SOL    HW164528   0.044   6.424   6.593
20877SOL    HW264529   0.051   6.482   6.732
20878SOL     OW64530   4.534   9.912   1.681
20878SOL    HW164531   4.539   9.853   1.606
20878SOL    HW264532   4.520   9.999   1.644
20879SOL     OW64533   7.413  12.476   4.110
20879SOL    HW164534   7.432  12.569   4.099
20879SOL    HW264535   7.499  12.434   4.107
20880SOL     OW64536   1.313   6.306   4.031
20880SOL    HW164537   1.355   6.316   3.945
20880SOL    HW264538   1.259   6.385   4.040
20881SOL     OW64539  10.910   2.885   4.674
20881SOL    HW164540  10.825   2.909   4.710
20881SOL    HW264541  10.935   2.807   4.722
20882SOL     OW64542  11.458   4.562   2.920
20882SOL    HW164543  11.418   4.516   2.995
20882SOL    HW264544  11.398   4.634   2.901
20883SOL     OW64545  14.326   7.625  13.531
20883SOL    HW164546  14.347   7.535  13.506
20883SOL    HW264547  14.347   7.677  13.453
20884SOL     OW64548   4.979   2.375   3.396
20884SOL    HW164549   4.940   2.326   3.324
20884SOL    HW264550   4.962   2.321   3.473
20885SOL     OW64551  13.702   6.951   2.626
20885SOL    HW164552  13.790   6.969   2.660
20885SOL    HW264553  13.649   7.026   2.656
20886SOL     OW64554  11.724  10.133   3.238
20886SOL    HW164555  11.729  10.037   3.240
20886SOL    HW264556  11.815  10.161   3.245
20887SOL     OW64557   7.373   4.695  13.428
20887SOL    HW164558   7.333   4.774  13.390
20887SOL    HW264559   7.463   4.722  13.447
20888SOL     OW64560   0.519   2.254   2.880
20888SOL    HW164561   0.462   2.293   2.947
20888SOL    HW264562   0.459   2.218   2.815
20889SOL     OW64563  12.857  11.546   8.401
20889SOL    HW164564  12.856  11.617   8.336
20889SOL    HW264565  12.845  11.466   8.350
20890SOL     OW64566   0.486   0.027   6.735
20890SOL    HW164567   0.517  14.806   6.743
20890SOL    HW264568   0.524   0.058   6.653
20891SOL     OW64569   7.541   7.369  11.881
20891SOL    HW164570   7.536   7.438  11.815
20891SOL    HW264571   7.632   7.372  11.911
20892SOL     OW64572   9.314  10.331   5.237
20892SOL    HW164573   9.390  10.361   5.287
20892SOL    HW264574   9.240  10.343   5.295
20893SOL     OW64575   4.911   5.601  12.666
20893SOL    HW164576   4.850   5.585  12.738
20893SOL    HW264577   4.856   5.610  12.588
20894SOL     OW64578   4.046   9.901   1.492
20894SOL    HW164579   3.986   9.972   1.517
20894SOL    HW264580   4.117   9.945   1.447
20895SOL     OW64581   2.830   8.094   3.853
20895SOL    HW164582   2.910   8.073   3.902
20895SOL    HW264583   2.760   8.087   3.918
20896SOL     OW64584   0.036  11.587   3.689
20896SOL    HW164585  14.854  11.525   3.741
20896SOL    HW264586   0.113  11.605   3.742
20897SOL     OW64587  12.224  12.604   6.887
20897SOL    HW164588  12.259  12.546   6.819
20897SOL    HW264589  12.171  12.668   6.838
20898SOL     OW64590   7.859   5.726   0.775
20898SOL    HW164591   7.864   5.715   0.870
20898SOL    HW264592   7.766   5.744   0.758
20899SOL     OW64593   0.236   8.570   1.551
20899SOL    HW164594   0.191   8.491   1.523
20899SOL    HW264595   0.172   8.616   1.605
20900SOL     OW64596   3.971   2.391  12.870
20900SOL    HW164597   4.013   2.417  12.952
20900SOL    HW264598   3.906   2.459  12.853
20901SOL     OW64599   4.061  10.465   3.575
20901SOL    HW164600   4.105  10.453   3.491
20901SOL    HW264601   4.021  10.380   3.594
20902SOL     OW64602   3.028  12.112  12.682
20902SOL    HW164603   2.986  12.115  12.767
20902SOL    HW264604   3.121  12.126  12.700
20903SOL     OW64605   7.467  13.792  10.304
20903SOL    HW164606   7.560  13.805  10.287
20903SOL    HW264607   7.423  13.844  10.236
20904SOL     OW64608  10.717  10.844  10.367
20904SOL    HW164609  10.657  10.769  10.364
20904SOL    HW264610  10.663  10.918  10.340
20905SOL     OW64611   1.457  13.196  12.358
20905SOL    HW164612   1.504  13.114  12.345
20905SOL    HW264613   1.393  13.199  12.286
20906SOL     OW64614   8.222   7.447  10.627
20906SOL    HW164615   8.178   7.443  10.712
20906SOL    HW264616   8.160   7.490  10.569
20907SOL     OW64617   4.424   2.484   2.190
20907SOL    HW164618   4.424   2.477   2.095
20907SOL    HW264619   4.380   2.404   2.220
20908SOL     OW64620   3.929   6.576  10.741
20908SOL    HW164621   3.997   6.593  10.806
20908SOL    HW264622   3.970   6.516  10.679
20909SOL     OW64623  14.628   8.217   0.469
20909SOL    HW164624  14.639   8.242   0.377
20909SOL    HW264625  14.574   8.139   0.467
20910SOL     OW64626  13.199   2.355   8.428
20910SOL    HW164627  13.152   2.436   8.450
20910SOL    HW264628  13.162   2.329   8.343
20911SOL     OW64629   5.829   3.913   2.643
20911SOL    HW164630   5.763   3.860   2.688
20911SOL    HW264631   5.912   3.885   2.681
20912SOL     OW64632  11.954   2.983   7.165
20912SOL    HW164633  11.998   3.041   7.227
20912SOL    HW264634  11.981   2.895   7.192
20913SOL     OW64635   4.896   6.340   3.308
20913SOL    HW164636   4.856   6.310   3.390
20913SOL    HW264637   4.825   6.384   3.262
20914SOL     OW64638  11.117   7.079   3.043
20914SOL    HW164639  11.023   7.071   3.028
20914SOL    HW264640  11.142   7.159   2.997
20915SOL     OW64641   0.830  12.130   6.033
20915SOL    HW164642   0.886  12.205   6.012
20915SOL    HW264643   0.756  12.167   6.080
20916SOL     OW64644   3.800   3.096   9.624
20916SOL    HW164645   3.757   3.085   9.540
20916SOL    HW264646   3.770   3.181   9.656
20917SOL     OW64647   0.120   3.777   1.066
20917SOL    HW164648   0.130   3.683   1.053
20917SOL    HW264649   0.108   3.788   1.160
20918SOL     OW64650   5.708   5.013   7.521
20918SOL    HW164651   5.620   5.049   7.514
20918SOL    HW264652   5.759   5.080   7.567
20919SOL     OW64653  10.359  12.964  11.306
20919SOL    HW164654  10.325  13.007  11.384
20919SOL    HW264655  10.368  12.872  11.331
20920SOL     OW64656   5.105  14.176   1.231
20920SOL    HW164657   5.085  14.118   1.158
20920SOL    HW264658   5.048  14.145   1.302
20921SOL     OW64659  13.912  10.788   9.375
20921SOL    HW164660  13.971  10.731   9.425
20921SOL    HW264661  13.962  10.811   9.297
20922SOL     OW64662  14.644  12.424   3.292
20922SOL    HW164663  14.692  12.364   3.235
20922SOL    HW264664  14.611  12.492   3.233
20923SOL     OW64665   8.081  11.804   7.641
20923SOL    HW164666   8.134  11.866   7.592
20923SOL    HW264667   8.123  11.798   7.727
20924SOL     OW64668   5.428  11.767   6.824
20924SOL    HW164669   5.358  11.772   6.889
20924SOL    HW264670   5.407  11.835   6.760
20925SOL     OW64671   1.049   3.357  14.258
20925SOL    HW164672   1.034   3.431  14.198
20925SOL    HW264673   1.088   3.289  14.203
20926SOL     OW64674   4.489   2.833   1.025
20926SOL    HW164675   4.430   2.778   1.076
20926SOL    HW264676   4.456   2.922   1.037
20927SOL     OW64677   1.558   7.257   4.242
20927SOL    HW164678   1.595   7.243   4.329
20927SOL    HW264679   1.467   7.282   4.259
20928SOL     OW64680   5.535   6.933   5.297
20928SOL    HW164681   5.490   6.934   5.212
20928SOL    HW264682   5.578   6.848   5.300
20929SOL     OW64683   7.080  11.255  13.692
20929SOL    HW164684   7.008  11.244  13.630
20929SOL    HW264685   7.051  11.325  13.750
20930SOL     OW64686   6.726  14.201   9.581
20930SOL    HW164687   6.811  14.158   9.595
20930SOL    HW264688   6.683  14.197   9.666
20931SOL     OW64689  12.276   1.480   8.034
20931SOL    HW164690  12.324   1.422   7.975
20931SOL    HW264691  12.340   1.504   8.101
20932SOL     OW64692  13.797  10.276   5.283
20932SOL    HW164693  13.830  10.300   5.369
20932SOL    HW264694  13.727  10.213   5.300
20933SOL     OW64695  11.032   2.807   0.601
20933SOL    HW164696  10.953   2.809   0.655
20933SOL    HW264697  11.004   2.764   0.520
20934SOL     OW64698  12.313  13.926   9.224
20934SOL    HW164699  12.237  13.980   9.205
20934SOL    HW264700  12.351  13.907   9.138
20935SOL     OW64701   3.261   1.219   8.138
20935SOL    HW164702   3.339   1.268   8.166
20935SOL    HW264703   3.280   1.128   8.160
20936SOL     OW64704   1.205   4.074   4.327
20936SOL    HW164705   1.143   4.147   4.318
20936SOL    HW264706   1.245   4.087   4.413
20937SOL     OW64707   0.725   7.776   7.248
20937SOL    HW164708   0.645   7.792   7.298
20937SOL    HW264709   0.779   7.853   7.264
20938SOL     OW64710   4.125   0.701   7.300
20938SOL    HW164711   4.201   0.723   7.355
20938SOL    HW264712   4.101   0.613   7.327
20939SOL     OW64713   8.695   8.177   3.442
20939SOL    HW164714   8.643   8.106   3.480
20939SOL    HW264715   8.762   8.132   3.391
20940SOL     OW64716   3.435  10.998   1.188
20940SOL    HW164717   3.437  11.078   1.242
20940SOL    HW264718   3.499  10.940   1.229
20941SOL     OW64719   0.963  11.231   9.628
20941SOL    HW164720   0.916  11.314   9.637
20941SOL    HW264721   0.894  11.167   9.609
20942SOL     OW64722  12.236   2.613  14.267
20942SOL    HW164723  12.229   2.564  14.349
20942SOL    HW264724  12.308   2.573  14.220
20943SOL     OW64725   0.044   0.706   2.046
20943SOL    HW164726   0.035   0.620   2.006
20943SOL    HW264727   0.056   0.688   2.139
20944SOL     OW64728  13.887  10.745   8.729
20944SOL    HW164729  13.803  10.780   8.699
20944SOL    HW264730  13.867  10.704   8.813
20945SOL     OW64731   7.214   2.521   9.797
20945SOL    HW164732   7.290   2.479   9.836
20945SOL    HW264733   7.182   2.458   9.733
20946SOL     OW64734   8.642   4.834   2.793
20946SOL    HW164735   8.692   4.771   2.741
20946SOL    HW264736   8.642   4.797   2.881
20947SOL     OW64737   7.710   1.399   7.664
20947SOL    HW164738   7.802   1.376   7.649
20947SOL    HW264739   7.708   1.436   7.752
20948SOL     OW64740   2.166   9.472  13.381
20948SOL    HW164741   2.129   9.451  13.295
20948SOL    HW264742   2.150   9.393  13.433
20949SOL     OW64743   8.007  14.527   2.191
20949SOL    HW164744   8.101  14.514   2.200
20949SOL    HW264745   7.983  14.475   2.114
20950SOL     OW64746   6.780   4.096   4.270
20950SOL    HW164747   6.769   4.007   4.304
20950SOL    HW264748   6.836   4.139   4.334
20951SOL     OW64749  11.670  12.652  11.541
20951SOL    HW164750  11.759  12.658  11.577
20951SOL    HW264751  11.618  12.613  11.612
20952SOL     OW64752  14.001   4.007   2.395
20952SOL    HW164753  14.055   4.083   2.372
20952SOL    HW264754  13.964   3.978   2.311
20953SOL     OW64755   6.975  10.466  13.107
20953SOL    HW164756   7.054  10.520  13.100
20953SOL    HW264757   6.917  10.516  13.164
20954SOL     OW64758   6.664  13.382   2.041
20954SOL    HW164759   6.749  13.378   1.997
20954SOL    HW264760   6.621  13.301   2.016
20955SOL     OW64761   6.327  11.335   5.309
20955SOL    HW164762   6.330  11.375   5.396
20955SOL    HW264763   6.291  11.247   5.325
20956SOL     OW64764   0.428   1.592   1.946
20956SOL    HW164765   0.460   1.680   1.922
20956SOL    HW264766   0.340   1.608   1.981
20957SOL     OW64767   2.473   9.809   6.897
20957SOL    HW164768   2.456   9.900   6.922
20957SOL    HW264769   2.469   9.761   6.980
20958SOL     OW64770  10.384  11.837   0.396
20958SOL    HW164771  10.380  11.803   0.485
20958SOL    HW264772  10.477  11.833   0.373
20959SOL     OW64773   6.126  11.769   4.827
20959SOL    HW164774   6.031  11.783   4.821
20959SOL    HW264775   6.136  11.705   4.897
20960SOL     OW64776  12.593   1.734   4.268
20960SOL    HW164777  12.594   1.817   4.317
20960SOL    HW264778  12.586   1.761   4.176
20961SOL     OW64779   6.973   1.953  11.169
20961SOL    HW164780   7.006   1.897  11.239
20961SOL    HW264781   6.884   1.920  11.153
20962SOL     OW64782   5.947  14.370  12.131
20962SOL    HW164783   6.029  14.408  12.161
20962SOL    HW264784   5.940  14.286  12.176
20963SOL     OW64785  10.488  11.180   1.054
20963SOL    HW164786  10.548  11.235   1.105
20963SOL    HW264787  10.522  11.091   1.066
20964SOL     OW64788   6.619   7.742   9.693
20964SOL    HW164789   6.690   7.750   9.629
20964SOL    HW264790   6.661   7.756   9.778
20965SOL     OW64791   2.543  13.679   9.174
20965SOL    HW164792   2.459  13.681   9.128
20965SOL    HW264793   2.608  13.674   9.105
20966SOL     OW64794  14.303  12.368   9.104
20966SOL    HW164795  14.271  12.458   9.095
20966SOL    HW264796  14.345  12.349   9.020
20967SOL     OW64797   6.225  14.477   5.925
20967SOL    HW164798   6.155  14.419   5.954
20967SOL    HW264799   6.194  14.514   5.843
20968SOL     OW64800   5.828   5.453  12.808
20968SOL    HW164801   5.753   5.415  12.853
20968SOL    HW264802   5.895   5.385  12.810
20969SOL     OW64803  11.236   5.567  11.062
20969SOL    HW164804  11.238   5.505  11.135
20969SOL    HW264805  11.263   5.650  11.101
20970SOL     OW64806  12.988  12.842   7.851
20970SOL    HW164807  13.042  12.915   7.881
20970SOL    HW264808  12.983  12.784   7.927
20971SOL     OW64809  10.539  11.603   7.325
20971SOL    HW164810  10.545  11.674   7.261
20971SOL    HW264811  10.629  11.584   7.349
20972SOL     OW64812   4.804   3.150   9.806
20972SOL    HW164813   4.731   3.108   9.851
20972SOL    HW264814   4.838   3.083   9.747
20973SOL     OW64815   3.451   3.188  13.713
20973SOL    HW164816   3.411   3.266  13.676
20973SOL    HW264817   3.510   3.221  13.781
20974SOL     OW64818  13.787   0.527  12.371
20974SOL    HW164819  13.768   0.464  12.441
20974SOL    HW264820  13.827   0.601  12.416
20975SOL     OW64821  13.376   5.479   1.362
20975SOL    HW164822  13.337   5.404   1.318
20975SOL    HW264823  13.303   5.539   1.376
20976SOL     OW64824  13.526   2.102   2.021
20976SOL    HW164825  13.547   2.013   1.993
20976SOL    HW264826  13.482   2.092   2.105
20977SOL     OW64827   3.490   1.343  11.444
20977SOL    HW164828   3.481   1.370  11.535
20977SOL    HW264829   3.403   1.355  11.406
20978SOL     OW64830  14.316   0.970   4.858
20978SOL    HW164831  14.361   0.975   4.774
20978SOL    HW264832  14.314   1.061   4.890
20979SOL     OW64833   4.296  10.281   2.643
20979SOL    HW164834   4.255  10.342   2.704
20979SOL    HW264835   4.235  10.278   2.568
20980SOL     OW64836  10.285  10.340  14.063
20980SOL    HW164837  10.305  10.269  14.002
20980SOL    HW264838  10.209  10.383  14.026
20981SOL     OW64839   7.378   2.236   0.337
20981SOL    HW164840   7.340   2.178   0.271
20981SOL    HW264841   7.436   2.180   0.388
20982SOL     OW64842   3.252   8.151   7.673
20982SOL    HW164843   3.221   8.239   7.654
20982SOL    HW264844   3.340   8.163   7.708
20983SOL     OW64845  13.873   0.083   0.459
20983SOL    HW164846  13.786   0.119   0.442
20983SOL    HW264847  13.857  14.864   0.490
20984SOL     OW64848   4.344   9.407   4.893
20984SOL    HW164849   4.329   9.485   4.841
20984SOL    HW264850   4.294   9.422   4.974
20985SOL     OW64851  12.233   0.494   9.099
20985SOL    HW164852  12.142   0.502   9.128
20985SOL    HW264853  12.282   0.549   9.160
20986SOL     OW64854   6.525  13.060   6.549
20986SOL    HW164855   6.483  12.981   6.514
20986SOL    HW264856   6.547  13.038   6.639
20987SOL     OW64857  12.188  11.409   8.696
20987SOL    HW164858  12.232  11.415   8.780
20987SOL    HW264859  12.113  11.352   8.712
20988SOL     OW64860  10.361   9.153   1.395
20988SOL    HW164861  10.284   9.144   1.339
20988SOL    HW264862  10.427   9.193   1.340
20989SOL     OW64863  10.130  14.130   2.035
20989SOL    HW164864  10.209  14.154   1.987
20989SOL    HW264865  10.059  14.140   1.971
20990SOL     OW64866  11.784   9.266   1.719
20990SOL    HW164867  11.832   9.292   1.798
20990SOL    HW264868  11.851   9.255   1.652
20991SOL     OW64869  12.032   1.669  14.297
20991SOL    HW164870  12.123   1.687  14.320
20991SOL    HW264871  11.999   1.615  14.369
20992SOL     OW64872  13.285   5.143   6.427
20992SOL    HW164873  13.310   5.081   6.495
20992SOL    HW264874  13.281   5.090   6.347
20993SOL     OW64875   5.620   0.699  11.071
20993SOL    HW164876   5.541   0.726  11.024
20993SOL    HW264877   5.679   0.774  11.063
20994SOL     OW64878   4.459   8.954   8.581
20994SOL    HW164879   4.540   8.914   8.549
20994SOL    HW264880   4.390   8.913   8.529
20995SOL     OW64881  11.453   3.373   5.236
20995SOL    HW164882  11.537   3.329   5.224
20995SOL    HW264883  11.429   3.355   5.326
20996SOL     OW64884   6.038   0.659  13.780
20996SOL    HW164885   5.971   0.615  13.832
20996SOL    HW264886   6.053   0.600  13.706
20997SOL     OW64887  11.350   9.859  12.706
20997SOL    HW164888  11.410   9.810  12.651
20997SOL    HW264889  11.364   9.825  12.794
20998SOL     OW64890   2.426   6.493   5.774
20998SOL    HW164891   2.358   6.548   5.812
20998SOL    HW264892   2.378   6.427   5.724
20999SOL     OW64893   2.632  13.270   8.739
20999SOL    HW164894   2.562  13.222   8.696
20999SOL    HW264895   2.709  13.214   8.732
21000SOL     OW64896   0.985  12.362   6.025
21000SOL    HW164897   1.068  12.367   6.073
21000SOL    HW264898   0.950  12.451   6.026
21001SOL     OW64899   2.895   0.374  10.833
21001SOL    HW164900   2.860   0.432  10.901
21001SOL    HW264901   2.959   0.319  10.879
21002SOL     OW64902   3.257   3.922   8.508
21002SOL    HW164903   3.279   3.907   8.600
21002SOL    HW264904   3.338   3.902   8.461
21003SOL     OW64905   2.143   7.235   0.943
21003SOL    HW164906   2.119   7.318   0.901
21003SOL    HW264907   2.071   7.218   1.004
21004SOL     OW64908  11.326   0.429  13.828
21004SOL    HW164909  11.350   0.357  13.770
21004SOL    HW264910  11.408   0.475  13.844
21005SOL     OW64911   7.645  14.233   7.697
21005SOL    HW164912   7.669  14.195   7.782
21005SOL    HW264913   7.722  14.284   7.671
21006SOL     OW64914   3.068   9.355   4.168
21006SOL    HW164915   2.996   9.417   4.171
21006SOL    HW264916   3.123   9.386   4.096
21007SOL     OW64917  12.080   1.868   3.319
21007SOL    HW164918  12.107   1.880   3.410
21007SOL    HW264919  12.093   1.775   3.302
21008SOL     OW64920   3.888   8.249   4.181
21008SOL    HW164921   3.850   8.242   4.268
21008SOL    HW264922   3.849   8.328   4.144
21009SOL     OW64923   0.982   9.130  11.443
21009SOL    HW164924   0.933   9.106  11.521
21009SOL    HW264925   1.067   9.086  11.453
21010SOL     OW64926   2.480  12.234  12.477
21010SOL    HW164927   2.399  12.286  12.483
21010SOL    HW264928   2.450  12.144  12.464
21011SOL     OW64929   4.391   1.668  10.323
21011SOL    HW164930   4.312   1.711  10.354
21011SOL    HW264931   4.369   1.638  10.235
21012SOL     OW64932   2.003   4.167  13.684
21012SOL    HW164933   1.919   4.133  13.653
21012SOL    HW264934   2.068   4.125  13.628
21013SOL     OW64935   0.732  13.744   0.648
21013SOL    HW164936   0.683  13.794   0.713
21013SOL    HW264937   0.823  13.749   0.678
21014SOL     OW64938   0.501   7.720   3.175
21014SOL    HW164939   0.471   7.810   3.186
21014SOL    HW264940   0.421   7.667   3.181
21015SOL     OW64941   1.197  11.725   5.776
21015SOL    HW164942   1.261  11.657   5.756
21015SOL    HW264943   1.112  11.682   5.769
21016SOL     OW64944  14.744   1.786   1.766
21016SOL    HW164945  14.740   1.767   1.673
21016SOL    HW264946  14.653   1.787   1.795
21017SOL     OW64947  12.116   4.895   9.265
21017SOL    HW164948  12.156   4.936   9.188
21017SOL    HW264949  12.136   4.956   9.337
21018SOL     OW64950   4.877  13.051   1.741
21018SOL    HW164951   4.826  13.129   1.762
21018SOL    HW264952   4.835  13.014   1.663
21019SOL     OW64953   6.310   3.591  14.029
21019SOL    HW164954   6.239   3.564  13.971
21019SOL    HW264955   6.371   3.637  13.973
21020SOL     OW64956   0.937   8.755  14.110
21020SOL    HW164957   1.030   8.732  14.110
21020SOL    HW264958   0.924   8.804  14.191
21021SOL     OW64959   8.494  11.783   5.228
21021SOL    HW164960   8.495  11.747   5.317
21021SOL    HW264961   8.520  11.710   5.172
21022SOL     OW64962   0.523   0.578   9.015
21022SOL    HW164963   0.543   0.663   8.975
21022SOL    HW264964   0.495   0.598   9.104
21023SOL     OW64965   4.549  14.425  12.612
21023SOL    HW164966   4.454  14.420  12.618
21023SOL    HW264967   4.566  14.498  12.551
21024SOL     OW64968  11.005  14.107   5.673
21024SOL    HW164969  10.921  14.072   5.644
21024SOL    HW264970  11.052  14.125   5.591
21025SOL     OW64971  14.526  13.863   1.094
21025SOL    HW164972  14.439  13.902   1.096
21025SOL    HW264973  14.568  13.891   1.175
21026SOL     OW64974   7.225   9.535  10.746
21026SOL    HW164975   7.319   9.533  10.732
21026SOL    HW264976   7.207   9.457  10.799
21027SOL     OW64977   2.594   6.167   5.688
21027SOL    HW164978   2.549   6.192   5.769
21027SOL    HW264979   2.551   6.086   5.661
21028SOL     OW64980   9.067   6.956   9.178
21028SOL    HW164981   9.129   6.891   9.212
21028SOL    HW264982   9.005   6.970   9.250
21029SOL     OW64983   2.039   1.285  14.025
21029SOL    HW164984   2.065   1.217  13.963
21029SOL    HW264985   1.992   1.238  14.094
21030SOL     OW64986   3.123   3.061   4.602
21030SOL    HW164987   3.152   3.054   4.693
21030SOL    HW264988   3.029   3.076   4.608
21031SOL     OW64989  10.745  10.832  12.935
21031SOL    HW164990  10.688  10.909  12.938
21031SOL    HW264991  10.819  10.854  12.991
21032SOL     OW64992   0.379   5.717  12.094
21032SOL    HW164993   0.426   5.799  12.109
21032SOL    HW264994   0.316   5.712  12.166
21033SOL     OW64995   2.231   5.553   8.176
21033SOL    HW164996   2.325   5.541   8.188
21033SOL    HW264997   2.197   5.571   8.264
21034SOL     OW64998   2.506   4.001  14.689
21034SOL    HW164999   2.421   3.976  14.724
21034SOL    HW265000   2.515   4.094  14.711
21035SOL     OW65001  11.255   8.371  10.891
21035SOL    HW165002  11.284   8.279  10.893
21035SOL    HW265003  11.297   8.407  10.812
21036SOL     OW65004   7.116   7.108   4.565
21036SOL    HW165005   7.076   7.099   4.479
21036SOL    HW265006   7.078   7.037   4.617
21037SOL     OW65007   8.299   5.947   2.502
21037SOL    HW165008   8.354   5.958   2.580
21037SOL    HW265009   8.243   5.872   2.521
21038SOL     OW65010  11.182  13.540   3.027
21038SOL    HW165011  11.110  13.496   2.981
21038SOL    HW265012  11.252  13.546   2.962
21039SOL     OW65013   6.363  14.116   9.835
21039SOL    HW165014   6.344  14.080   9.749
21039SOL    HW265015   6.306  14.067   9.895
21040SOL     OW65016   0.716   0.847   3.052
21040SOL    HW165017   0.803   0.857   3.091
21040SOL    HW265018   0.659   0.902   3.106
21041SOL     OW65019   3.496   9.221   1.551
21041SOL    HW165020   3.534   9.278   1.484
21041SOL    HW265021   3.424   9.272   1.589
21042SOL     OW65022   6.471   0.509  11.834
21042SOL    HW165023   6.433   0.574  11.776
21042SOL    HW265024   6.475   0.552  11.919
21043SOL     OW65025  13.469   0.923   9.522
21043SOL    HW165026  13.524   0.928   9.600
21043SOL    HW265027  13.490   1.001   9.472
21044SOL     OW65028   6.707   3.129   0.932
21044SOL    HW165029   6.771   3.199   0.945
21044SOL    HW265030   6.646   3.165   0.868
21045SOL     OW65031  10.142  14.172   7.993
21045SOL    HW165032  10.105  14.127   8.069
21045SOL    HW265033  10.206  14.233   8.030
21046SOL     OW65034   6.264  10.544  13.003
21046SOL    HW165035   6.252  10.638  13.021
21046SOL    HW265036   6.265  10.539  12.907
21047SOL     OW65037   1.925  14.440   2.277
21047SOL    HW165038   1.918  14.534   2.257
21047SOL    HW265039   1.909  14.397   2.193
21048SOL     OW65040   0.849  11.905   6.180
21048SOL    HW165041   0.845  11.976   6.115
21048SOL    HW265042   0.905  11.939   6.249
21049SOL     OW65043   3.997   0.409   0.926
21049SOL    HW165044   4.065   0.346   0.949
21049SOL    HW265045   4.044   0.492   0.917
21050SOL     OW65046   0.794  11.339   5.144
21050SOL    HW165047   0.838  11.306   5.065
21050SOL    HW265048   0.863  11.342   5.210
21051SOL     OW65049  12.396   2.517   5.537
21051SOL    HW165050  12.431   2.429   5.550
21051SOL    HW265051  12.302   2.505   5.530
21052SOL     OW65052  14.795   7.143   8.066
21052SOL    HW165053  14.725   7.179   8.121
21052SOL    HW265054  14.859   7.213   8.060
21053SOL     OW65055  10.043  13.487   1.894
21053SOL    HW165056  10.111  13.524   1.950
21053SOL    HW265057   9.966  13.542   1.910
21054SOL     OW65058  12.826   2.231   5.377
21054SOL    HW165059  12.771   2.260   5.450
21054SOL    HW265060  12.915   2.234   5.411
21055SOL     OW65061   4.028  13.292  11.439
21055SOL    HW165062   4.116  13.276  11.472
21055SOL    HW265063   4.019  13.233  11.364
21056SOL     OW65064   5.068   2.400   1.129
21056SOL    HW165065   5.121   2.475   1.156
21056SOL    HW265066   4.992   2.438   1.086
21057SOL     OW65067   4.449   7.991   1.827
21057SOL    HW165068   4.373   8.047   1.808
21057SOL    HW265069   4.492   8.035   1.900
21058SOL     OW65070   3.760   0.108  13.690
21058SOL    HW165071   3.780   0.124  13.782
21058SOL    HW265072   3.722   0.190  13.659
21059SOL     OW65073  10.804   5.696  10.429
21059SOL    HW165074  10.724   5.698  10.378
21059SOL    HW265075  10.787   5.631  10.498
21060SOL     OW65076   5.122  11.499   4.050
21060SOL    HW165077   5.209  11.461   4.037
21060SOL    HW265078   5.087  11.509   3.962
21061SOL     OW65079  14.313   9.893   5.002
21061SOL    HW165080  14.378   9.960   4.981
21061SOL    HW265081  14.236   9.918   4.951
21062SOL     OW65082   2.070  11.353   2.693
21062SOL    HW165083   2.095  11.420   2.756
21062SOL    HW265084   1.991  11.313   2.730
21063SOL     OW65085   1.570  10.726   2.107
21063SOL    HW165086   1.661  10.698   2.114
21063SOL    HW265087   1.551  10.767   2.191
21064SOL     OW65088   1.838   6.585   0.119
21064SOL    HW165089   1.924   6.593   0.078
21064SOL    HW265090   1.777   6.574   0.046
21065SOL     OW65091   1.299  11.363  13.914
21065SOL    HW165092   1.204  11.370  13.909
21065SOL    HW265093   1.331  11.427  13.851
21066SOL     OW65094   4.965   8.250   6.440
21066SOL    HW165095   5.042   8.245   6.383
21066SOL    HW265096   4.986   8.318   6.503
21067SOL     OW65097   0.405   4.313   8.280
21067SOL    HW165098   0.459   4.391   8.288
21067SOL    HW265099   0.353   4.326   8.201
21068SOL     OW65100  13.886  13.628   0.955
21068SOL    HW165101  13.885  13.653   0.862
21068SOL    HW265102  13.797  13.647   0.985
21069SOL     OW65103   0.885   8.016   7.286
21069SOL    HW165104   0.880   8.007   7.381
21069SOL    HW265105   0.947   8.088   7.272
21070SOL     OW65106   4.161  13.894  14.426
21070SOL    HW165107   4.135  13.975  14.383
21070SOL    HW265108   4.251  13.878  14.397
21071SOL     OW65109   7.968   8.665  10.211
21071SOL    HW165110   8.006   8.690  10.295
21071SOL    HW265111   7.933   8.747  10.176
21072SOL     OW65112   9.047   1.391   9.974
21072SOL    HW165113   9.048   1.410  10.067
21072SOL    HW265114   8.977   1.446   9.938
21073SOL     OW65115  12.163   0.755   2.945
21073SOL    HW165116  12.084   0.776   2.996
21073SOL    HW265117  12.234   0.796   2.994
21074SOL     OW65118   1.607   8.365   5.634
21074SOL    HW165119   1.553   8.290   5.607
21074SOL    HW265120   1.571   8.391   5.719
21075SOL     OW65121   4.955  12.691   5.891
21075SOL    HW165122   4.939  12.745   5.968
21075SOL    HW265123   5.050  12.691   5.881
21076SOL     OW65124  10.398  10.456   0.040
21076SOL    HW165125  10.439  10.528  14.860
21076SOL    HW265126  10.398  10.486   0.130
21077SOL     OW65127   3.247  13.170  13.005
21077SOL    HW165128   3.331  13.136  12.974
21077SOL    HW265129   3.240  13.257  12.965
21078SOL     OW65130   7.528   2.853   5.374
21078SOL    HW165131   7.447   2.862   5.424
21078SOL    HW265132   7.513   2.905   5.295
21079SOL     OW65133   5.273   3.596  11.435
21079SOL    HW165134   5.207   3.606  11.368
21079SOL    HW265135   5.356   3.588  11.387
21080SOL     OW65136   2.176  14.746  14.147
21080SOL    HW165137   2.243  14.809  14.174
21080SOL    HW265138   2.156  14.696  14.226
21081SOL     OW65139   7.123   2.522   7.652
21081SOL    HW165140   7.032   2.493   7.655
21081SOL    HW265141   7.165   2.475   7.724
21082SOL     OW65142   1.458   2.138   7.589
21082SOL    HW165143   1.502   2.179   7.515
21082SOL    HW265144   1.529   2.114   7.649
21083SOL     OW65145   4.449  14.721   0.958
21083SOL    HW165146   4.471  14.628   0.945
21083SOL    HW265147   4.406  14.724   1.043
21084SOL     OW65148   8.631   8.229   5.900
21084SOL    HW165149   8.683   8.191   5.829
21084SOL    HW265150   8.693   8.280   5.952
21085SOL     OW65151   2.611   1.110   7.689
21085SOL    HW165152   2.629   1.148   7.775
21085SOL    HW265153   2.655   1.025   7.690
21086SOL     OW65154   3.972   4.505   6.080
21086SOL    HW165155   3.884   4.473   6.102
21086SOL    HW265156   3.956   4.582   6.026
21087SOL     OW65157   5.905   0.241   7.103
21087SOL    HW165158   5.916   0.322   7.152
21087SOL    HW265159   5.987   0.231   7.054
21088SOL     OW65160   9.730   4.884   3.314
21088SOL    HW165161   9.669   4.812   3.299
21088SOL    HW265162   9.724   4.937   3.234
21089SOL     OW65163  12.522   5.991   5.899
21089SOL    HW165164  12.436   6.013   5.936
21089SOL    HW265165  12.533   6.054   5.827
21090SOL     OW65166   1.883   9.889   3.604
21090SOL    HW165167   1.790   9.893   3.626
21090SOL    HW265168   1.895   9.802   3.564
21091SOL     OW65169   7.498   4.787   5.658
21091SOL    HW165170   7.415   4.739   5.664
21091SOL    HW265171   7.530   4.791   5.748
21092SOL     OW65172   7.572   1.546  12.141
21092SOL    HW165173   7.499   1.566  12.201
21092SOL    HW265174   7.650   1.568  12.192
21093SOL     OW65175  13.710   4.379   6.499
21093SOL    HW165176  13.763   4.300   6.513
21093SOL    HW265177  13.773   4.451   6.506
21094SOL     OW65178   1.371   5.626   8.610
21094SOL    HW165179   1.360   5.601   8.518
21094SOL    HW265180   1.385   5.720   8.608
21095SOL     OW65181   8.259  11.578   0.569
21095SOL    HW165182   8.220  11.665   0.578
21095SOL    HW265183   8.303  11.581   0.484
21096SOL     OW65184   6.106   1.299   1.915
21096SOL    HW165185   6.157   1.346   1.850
21096SOL    HW265186   6.019   1.339   1.911
21097SOL     OW65187   7.587   5.657   1.201
21097SOL    HW165188   7.650   5.590   1.172
21097SOL    HW265189   7.511   5.607   1.230
21098SOL     OW65190   4.113   6.474   9.898
21098SOL    HW165191   4.180   6.437   9.955
21098SOL    HW265192   4.135   6.441   9.810
21099SOL     OW65193  11.186  11.040   4.556
21099SOL    HW165194  11.176  11.072   4.646
21099SOL    HW265195  11.097  11.045   4.520
21100SOL     OW65196  12.677  12.032  11.506
21100SOL    HW165197  12.647  12.038  11.415
21100SOL    HW265198  12.596  12.021  11.556
21101SOL     OW65199  13.620   2.573   8.342
21101SOL    HW165200  13.609   2.485   8.306
21101SOL    HW265201  13.707   2.573   8.381
21102SOL     OW65202   1.545  12.856  11.633
21102SOL    HW165203   1.580  12.843  11.545
21102SOL    HW265204   1.563  12.948  11.653
21103SOL     OW65205  12.101  10.734  13.122
21103SOL    HW165206  12.076  10.642  13.119
21103SOL    HW265207  12.027  10.777  13.165
21104SOL     OW65208   3.168   7.710   5.815
21104SOL    HW165209   3.079   7.708   5.779
21104SOL    HW265210   3.168   7.643   5.883
21105SOL     OW65211   4.664   8.869  10.211
21105SOL    HW165212   4.622   8.810  10.274
21105SOL    HW265213   4.727   8.814  10.164
21106SOL     OW65214  10.027   6.378   0.637
21106SOL    HW165215  10.041   6.364   0.731
21106SOL    HW265216  10.113   6.365   0.597
21107SOL     OW65217   1.948   2.436   8.435
21107SOL    HW165218   1.944   2.418   8.529
21107SOL    HW265219   1.961   2.530   8.429
21108SOL     OW65220   2.932  10.330  11.523
21108SOL    HW165221   2.864  10.384  11.482
21108SOL    HW265222   3.014  10.372  11.498
21109SOL     OW65223   7.027   4.594   4.999
21109SOL    HW165224   6.961   4.600   5.068
21109SOL    HW265225   7.104   4.558   5.044
21110SOL     OW65226   9.718   1.203  11.914
21110SOL    HW165227   9.630   1.176  11.888
21110SOL    HW265228   9.737   1.279  11.859
21111SOL     OW65229  14.573   3.285   7.260
21111SOL    HW165230  14.567   3.245   7.347
21111SOL    HW265231  14.556   3.378   7.275
21112SOL     OW65232   8.082   4.169   5.739
21112SOL    HW165233   8.043   4.202   5.658
21112SOL    HW265234   8.008   4.135   5.789
21113SOL     OW65235  13.920   1.333   7.357
21113SOL    HW165236  13.866   1.257   7.376
21113SOL    HW265237  13.980   1.339   7.431
21114SOL     OW65238   6.548   6.286   6.755
21114SOL    HW165239   6.540   6.367   6.805
21114SOL    HW265240   6.535   6.216   6.819
21115SOL     OW65241   4.935   8.093  11.171
21115SOL    HW165242   4.856   8.144  11.154
21115SOL    HW265243   5.000   8.128  11.110
21116SOL     OW65244   5.376  13.720   8.352
21116SOL    HW165245   5.290  13.684   8.332
21116SOL    HW265246   5.358  13.792   8.413
21117SOL     OW65247   1.488  12.658   5.357
21117SOL    HW165248   1.409  12.710   5.373
21117SOL    HW265249   1.528  12.697   5.279
21118SOL     OW65250   1.253  12.038   0.600
21118SOL    HW165251   1.209  12.014   0.518
21118SOL    HW265252   1.185  12.029   0.667
21119SOL     OW65253  14.210   3.993   5.895
21119SOL    HW165254  14.117   4.004   5.914
21119SOL    HW265255  14.228   4.057   5.827
21120SOL     OW65256  10.352   8.883   7.699
21120SOL    HW165257  10.345   8.907   7.606
21120SOL    HW265258  10.317   8.794   7.704
21121SOL     OW65259  12.298  12.942  12.997
21121SOL    HW165260  12.225  12.893  12.959
21121SOL    HW265261  12.287  13.031  12.962
21122SOL     OW65262  13.684  14.859  14.344
21122SOL    HW165263  13.666  14.765  14.347
21122SOL    HW265264  13.772  14.868  14.379
21123SOL     OW65265   2.559  11.446   2.254
21123SOL    HW165266   2.496  11.391   2.301
21123SOL    HW265267   2.563  11.409   2.166
21124SOL     OW65268   2.710  13.231   9.941
21124SOL    HW165269   2.688  13.212  10.032
21124SOL    HW265270   2.756  13.153   9.911
21125SOL     OW65271   2.674   0.850  11.440
21125SOL    HW165272   2.674   0.942  11.468
21125SOL    HW265273   2.583   0.831  11.419
21126SOL     OW65274  14.827  10.389   7.571
21126SOL    HW165275  14.859  10.422   7.487
21126SOL    HW265276   0.030  10.337   7.605
21127SOL     OW65277  13.020   9.620   9.199
21127SOL    HW165278  12.938   9.654   9.236
21127SOL    HW265279  13.011   9.525   9.205
21128SOL     OW65280   7.713   3.513   6.428
21128SOL    HW165281   7.671   3.437   6.469
21128SOL    HW265282   7.783   3.475   6.374
21129SOL     OW65283  12.454   1.286   9.875
21129SOL    HW165284  12.475   1.259   9.964
21129SOL    HW265285  12.375   1.339   9.884
21130SOL     OW65286   4.271   6.873   8.153
21130SOL    HW165287   4.311   6.929   8.219
21130SOL    HW265288   4.331   6.877   8.078
21131SOL     OW65289   8.551   0.777   6.282
21131SOL    HW165290   8.557   0.736   6.195
21131SOL    HW265291   8.632   0.750   6.326
21132SOL     OW65292   1.700   4.654   4.114
21132SOL    HW165293   1.732   4.720   4.175
21132SOL    HW265294   1.779   4.614   4.078
21133SOL     OW65295   8.767  10.683   1.959
21133SOL    HW165296   8.721  10.704   1.877
21133SOL    HW265297   8.860  10.690   1.936
21134SOL     OW65298   4.732   9.387  12.682
21134SOL    HW165299   4.639   9.376  12.702
21134SOL    HW265300   4.755   9.471  12.723
21135SOL     OW65301   5.665   3.245   1.126
21135SOL    HW165302   5.609   3.300   1.071
21135SOL    HW265303   5.729   3.306   1.163
21136SOL     OW65304   4.634  12.258  10.343
21136SOL    HW165305   4.703  12.226  10.401
21136SOL    HW265306   4.555  12.212  10.371
21137SOL     OW65307   7.493   4.824   4.124
21137SOL    HW165308   7.548   4.762   4.172
21137SOL    HW265309   7.553   4.868   4.064
21138SOL     OW65310   3.639   3.221   8.755
21138SOL    HW165311   3.694   3.151   8.789
21138SOL    HW265312   3.687   3.301   8.776
21139SOL     OW65313   2.180  11.226   6.048
21139SOL    HW165314   2.106  11.278   6.017
21139SOL    HW265315   2.235  11.288   6.095
21140SOL     OW65316   7.234   4.796   4.463
21140SOL    HW165317   7.209   4.749   4.543
21140SOL    HW265318   7.198   4.743   4.392
21141SOL     OW65319   3.909   1.392   3.041
21141SOL    HW165320   3.952   1.307   3.033
21141SOL    HW265321   3.970   1.447   3.090
21142SOL     OW65322   2.078  13.627  14.305
21142SOL    HW165323   2.116  13.713  14.323
21142SOL    HW265324   2.091  13.613  14.211
21143SOL     OW65325  11.956   6.970  14.320
21143SOL    HW165326  12.043   7.004  14.298
21143SOL    HW265327  11.916   6.950  14.236
21144SOL     OW65328   3.733  11.477   5.266
21144SOL    HW165329   3.756  11.527   5.344
21144SOL    HW265330   3.686  11.400   5.299
21145SOL     OW65331   1.324  12.874   9.248
21145SOL    HW165332   1.267  12.843   9.318
21145SOL    HW265333   1.329  12.969   9.261
21146SOL     OW65334   2.381   4.250   9.408
21146SOL    HW165335   2.465   4.283   9.441
21146SOL    HW265336   2.345   4.323   9.358
21147SOL     OW65337  13.404  11.476  13.669
21147SOL    HW165338  13.371  11.397  13.712
21147SOL    HW265339  13.329  11.535  13.667
21148SOL     OW65340   5.347   3.875  10.735
21148SOL    HW165341   5.434   3.849  10.764
21148SOL    HW265342   5.362   3.920  10.652
21149SOL     OW65343   8.734  13.167  10.843
21149SOL    HW165344   8.747  13.234  10.776
21149SOL    HW265345   8.800  13.100  10.824
21150SOL     OW65346   5.735  10.207   0.315
21150SOL    HW165347   5.689  10.285   0.284
21150SOL    HW265348   5.793  10.240   0.384
21151SOL     OW65349  11.026   2.070   4.492
21151SOL    HW165350  10.957   2.041   4.551
21151SOL    HW265351  11.026   2.006   4.421
21152SOL     OW65352  12.434   4.196  13.089
21152SOL    HW165353  12.378   4.265  13.053
21152SOL    HW265354  12.377   4.119  13.096
21153SOL     OW65355   1.237   6.195   2.241
21153SOL    HW165356   1.309   6.257   2.232
21153SOL    HW265357   1.162   6.249   2.265
21154SOL     OW65358  10.279   7.180   2.681
21154SOL    HW165359  10.290   7.090   2.650
21154SOL    HW265360  10.355   7.196   2.737
21155SOL     OW65361   0.020  14.074   8.453
21155SOL    HW165362   0.073  13.994   8.454
21155SOL    HW265363   0.015  14.098   8.361
21156SOL     OW65364   3.286  14.724   1.876
21156SOL    HW165365   3.297  14.807   1.923
21156SOL    HW265366   3.197  14.729   1.840
21157SOL     OW65367   3.032  10.194   9.682
21157SOL    HW165368   3.025  10.279   9.726
21157SOL    HW265369   2.989  10.132   9.742
21158SOL     OW65370   4.475   4.448   3.951
21158SOL    HW165371   4.488   4.354   3.950
21158SOL    HW265372   4.563   4.485   3.945
21159SOL     OW65373   7.560   3.180   4.898
21159SOL    HW165374   7.628   3.213   4.957
21159SOL    HW265375   7.479   3.186   4.949
21160SOL     OW65376   4.632   0.632  14.678
21160SOL    HW165377   4.584   0.669  14.753
21160SOL    HW265378   4.661   0.709  14.628
21161SOL     OW65379  11.667   8.770  11.660
21161SOL    HW165380  11.614   8.727  11.592
21161SOL    HW265381  11.676   8.860  11.629
21162SOL     OW65382   3.770   3.710   2.480
21162SOL    HW165383   3.855   3.740   2.512
21162SOL    HW265384   3.775   3.721   2.385
21163SOL     OW65385  10.859   7.237   8.257
21163SOL    HW165386  10.880   7.319   8.302
21163SOL    HW265387  10.900   7.169   8.310
21164SOL     OW65388   3.963   0.260  11.049
21164SOL    HW165389   3.968   0.320  11.123
21164SOL    HW265390   4.047   0.269  11.005
21165SOL     OW65391  14.464  10.394   7.673
21165SOL    HW165392  14.405  10.451   7.723
21165SOL    HW265393  14.427  10.392   7.585
21166SOL     OW65394   4.409   7.613   4.917
21166SOL    HW165395   4.413   7.653   4.830
21166SOL    HW265396   4.477   7.546   4.917
21167SOL     OW65397   8.818   8.517  10.446
21167SOL    HW165398   8.871   8.597  10.446
21167SOL    HW265399   8.755   8.529  10.517
21168SOL     OW65400  14.661   1.952   1.477
21168SOL    HW165401  14.661   1.872   1.424
21168SOL    HW265402  14.690   2.020   1.418
21169SOL     OW65403   9.637   9.089   4.741
21169SOL    HW165404   9.680   9.038   4.810
21169SOL    HW265405   9.547   9.100   4.772
21170SOL     OW65406   7.627   9.956   8.107
21170SOL    HW165407   7.615   9.890   8.040
21170SOL    HW265408   7.556   9.939   8.170
21171SOL     OW65409   0.315   7.567  11.028
21171SOL    HW165410   0.269   7.585  11.109
21171SOL    HW265411   0.246   7.554  10.963
21172SOL     OW65412  12.974   3.877   0.135
21172SOL    HW165413  13.011   3.964   0.151
21172SOL    HW265414  12.919   3.888   0.058
21173SOL     OW65415  13.209   7.031   7.069
21173SOL    HW165416  13.240   6.998   6.985
21173SOL    HW265417  13.275   7.096   7.095
21174SOL     OW65418  13.546   9.769   9.688
21174SOL    HW165419  13.509   9.801   9.605
21174SOL    HW265420  13.639   9.757   9.670
21175SOL     OW65421   5.041   3.964   1.129
21175SOL    HW165422   4.966   4.022   1.141
21175SOL    HW265423   5.116   4.022   1.126
21176SOL     OW65424  10.560   1.812  13.043
21176SOL    HW165425  10.596   1.787  13.127
21176SOL    HW265426  10.490   1.874  13.064
21177SOL     OW65427  14.602   5.369  11.229
21177SOL    HW165428  14.511   5.388  11.209
21177SOL    HW265429  14.652   5.420  11.166
21178SOL     OW65430   1.593   3.654   1.273
21178SOL    HW165431   1.514   3.680   1.319
21178SOL    HW265432   1.664   3.691   1.325
21179SOL     OW65433   3.189  13.350  12.189
21179SOL    HW165434   3.282  13.334  12.203
21179SOL    HW265435   3.156  13.268  12.153
21180SOL     OW65436   9.588   4.097   6.127
21180SOL    HW165437   9.567   4.185   6.097
21180SOL    HW265438   9.665   4.072   6.077
21181SOL     OW65439   8.350   5.501   0.569
21181SOL    HW165440   8.416   5.434   0.552
21181SOL    HW265441   8.399   5.583   0.571
21182SOL     OW65442   9.880   1.393  10.285
21182SOL    HW165443   9.905   1.302  10.297
21182SOL    HW265444   9.960   1.443  10.304
21183SOL     OW65445   3.155   0.409   8.995
21183SOL    HW165446   3.130   0.377   9.082
21183SOL    HW265447   3.124   0.500   8.995
21184SOL     OW65448  11.647   4.391   9.787
21184SOL    HW165449  11.586   4.402   9.860
21184SOL    HW265450  11.720   4.450   9.807
21185SOL     OW65451   7.062  11.887   0.911
21185SOL    HW165452   6.975  11.851   0.930
21185SOL    HW265453   7.105  11.820   0.858
21186SOL     OW65454   5.536  12.011  14.320
21186SOL    HW165455   5.534  12.078  14.389
21186SOL    HW265456   5.454  11.963  14.332
21187SOL     OW65457   4.882   1.890  10.799
21187SOL    HW165458   4.872   1.976  10.757
21187SOL    HW265459   4.794   1.852  10.796
21188SOL     OW65460   1.766   5.582  10.471
21188SOL    HW165461   1.694   5.577  10.408
21188SOL    HW265462   1.793   5.490  10.484
21189SOL     OW65463   2.383   7.045  13.657
21189SOL    HW165464   2.451   7.090  13.707
21189SOL    HW265465   2.431   6.988  13.597
21190SOL     OW65466   0.101  10.777   1.009
21190SOL    HW165467   0.116  10.755   0.917
21190SOL    HW265468   0.172  10.734   1.056
21191SOL     OW65469   2.343   6.479  11.042
21191SOL    HW165470   2.362   6.552  10.984
21191SOL    HW265471   2.428   6.436  11.055
21192SOL     OW65472   2.037  13.718   1.267
21192SOL    HW165473   1.971  13.763   1.214
21192SOL    HW265474   1.998  13.712   1.354
21193SOL     OW65475   8.766   6.812  12.197
21193SOL    HW165476   8.795   6.795  12.107
21193SOL    HW265477   8.847   6.816  12.248
21194SOL     OW65478  14.414   3.635   2.401
21194SOL    HW165479  14.357   3.712   2.407
21194SOL    HW265480  14.420   3.603   2.490
21195SOL     OW65481  14.059   4.963   5.442
21195SOL    HW165482  13.996   4.894   5.463
21195SOL    HW265483  14.048   5.028   5.512
21196SOL     OW65484   4.996  11.788   5.387
21196SOL    HW165485   5.008  11.693   5.398
21196SOL    HW265486   4.936  11.795   5.312
21197SOL     OW65487   2.172   8.403  10.306
21197SOL    HW165488   2.122   8.411  10.225
21197SOL    HW265489   2.153   8.315  10.338
21198SOL     OW65490   5.029   9.176   9.644
21198SOL    HW165491   5.121   9.189   9.622
21198SOL    HW265492   5.001   9.104   9.587
21199SOL     OW65493   0.606   2.668   5.842
21199SOL    HW165494   0.600   2.574   5.823
21199SOL    HW265495   0.588   2.710   5.758
21200SOL     OW65496   9.507  12.341  13.016
21200SOL    HW165497   9.537  12.354  13.105
21200SOL    HW265498   9.513  12.428  12.976
21201SOL     OW65499   3.428  10.450   4.911
21201SOL    HW165500   3.506  10.452   4.967
21201SOL    HW265501   3.430  10.534   4.865
21202SOL     OW65502   0.079  12.985   3.202
21202SOL    HW165503   0.000  13.012   3.155
21202SOL    HW265504   0.149  13.040   3.167
21203SOL     OW65505   0.338   3.239   2.443
21203SOL    HW165506   0.247   3.266   2.454
21203SOL    HW265507   0.336   3.144   2.456
21204SOL     OW65508   5.389   6.760   8.125
21204SOL    HW165509   5.339   6.763   8.043
21204SOL    HW265510   5.477   6.788   8.100
21205SOL     OW65511  13.366  14.059   0.782
21205SOL    HW165512  13.375  14.104   0.866
21205SOL    HW265513  13.272  14.053   0.768
21206SOL     OW65514   4.240   3.793   0.082
21206SOL    HW165515   4.202   3.838   0.158
21206SOL    HW265516   4.315   3.847   0.057
21207SOL     OW65517  13.114  12.487   5.475
21207SOL    HW165518  13.172  12.548   5.521
21207SOL    HW265519  13.145  12.400   5.500
21208SOL     OW65520  11.522   2.784   8.296
21208SOL    HW165521  11.558   2.853   8.352
21208SOL    HW265522  11.427   2.794   8.304
21209SOL     OW65523   3.721   7.983   2.029
21209SOL    HW165524   3.723   7.946   1.941
21209SOL    HW265525   3.796   7.943   2.073
21210SOL     OW65526  14.866   7.624   9.606
21210SOL    HW165527  14.800   7.672   9.555
21210SOL    HW265528   0.078   7.637   9.557
21211SOL     OW65529  10.619   4.322   2.541
21211SOL    HW165530  10.652   4.282   2.461
21211SOL    HW265531  10.655   4.411   2.540
21212SOL     OW65532   1.912  11.870  12.688
21212SOL    HW165533   1.949  11.808  12.751
21212SOL    HW265534   1.818  11.860  12.696
21213SOL     OW65535  13.480   5.515   0.849
21213SOL    HW165536  13.459   5.547   0.936
21213SOL    HW265537  13.572   5.538   0.835
21214SOL     OW65538   5.891   6.858  10.741
21214SOL    HW165539   5.964   6.920  10.749
21214SOL    HW265540   5.868   6.860  10.648
21215SOL     OW65541  13.527  11.644  14.844
21215SOL    HW165542  13.509  11.559   0.015
21215SOL    HW265543  13.545  11.702   0.048
21216SOL     OW65544  11.960  10.965  14.447
21216SOL    HW165545  11.938  10.872  14.449
21216SOL    HW265546  12.054  10.969  14.467
21217SOL     OW65547  10.134  11.574  11.887
21217SOL    HW165548  10.160  11.529  11.967
21217SOL    HW265549  10.044  11.604  11.904
21218SOL     OW65550  12.147   2.850   9.723
21218SOL    HW165551  12.087   2.869   9.795
21218SOL    HW265552  12.234   2.860   9.761
21219SOL     OW65553   7.022   2.041   3.652
21219SOL    HW165554   7.036   2.123   3.700
21219SOL    HW265555   7.034   2.064   3.560
21220SOL     OW65556  11.744   2.743   5.863
21220SOL    HW165557  11.769   2.747   5.770
21220SOL    HW265558  11.727   2.650   5.879
21221SOL     OW65559  13.822   2.621   2.124
21221SOL    HW165560  13.878   2.561   2.173
21221SOL    HW265561  13.743   2.630   2.178
21222SOL     OW65562  14.840   1.910   3.595
21222SOL    HW165563  14.815   1.928   3.504
21222SOL    HW265564  14.846   1.996   3.636
21223SOL     OW65565   0.087  10.203  10.894
21223SOL    HW165566   0.112  10.124  10.846
21223SOL    HW265567   0.110  10.275  10.837
21224SOL     OW65568   2.693   5.845   8.502
21224SOL    HW165569   2.601   5.847   8.530
21224SOL    HW265570   2.701   5.919   8.441
21225SOL     OW65571   3.739   4.680   8.342
21225SOL    HW165572   3.777   4.665   8.256
21225SOL    HW265573   3.768   4.606   8.395
21226SOL     OW65574   4.380   3.519   1.892
21226SOL    HW165575   4.286   3.508   1.873
21226SOL    HW265576   4.394   3.469   1.973
21227SOL     OW65577  10.079   3.799   2.649
21227SOL    HW165578  10.038   3.713   2.638
21227SOL    HW265579  10.062   3.822   2.740
21228SOL     OW65580   8.600   1.179   4.484
21228SOL    HW165581   8.687   1.186   4.444
21228SOL    HW265582   8.600   1.248   4.551
21229SOL     OW65583  13.747   7.304   2.898
21229SOL    HW165584  13.652   7.304   2.885
21229SOL    HW265585  13.759   7.324   2.991
21230SOL     OW65586   9.570   9.623  13.895
21230SOL    HW165587   9.633   9.651  13.829
21230SOL    HW265588   9.619   9.562  13.951
21231SOL     OW65589   9.812   8.621   2.539
21231SOL    HW165590   9.743   8.564   2.508
21231SOL    HW265591   9.800   8.625   2.634
21232SOL     OW65592   1.052  10.117   4.590
21232SOL    HW165593   1.031  10.148   4.502
21232SOL    HW265594   0.984  10.054   4.611
21233SOL     OW65595   0.260   5.073  10.582
21233SOL    HW165596   0.179   5.057  10.534
21233SOL    HW265597   0.232   5.113  10.664
21234SOL     OW65598   0.623  13.823  11.849
21234SOL    HW165599   0.582  13.801  11.765
21234SOL    HW265600   0.670  13.904  11.832
21235SOL     OW65601  11.077  12.946  12.882
21235SOL    HW165602  11.023  12.885  12.932
21235SOL    HW265603  11.153  12.894  12.855
21236SOL     OW65604   0.256  12.590  13.497
21236SOL    HW165605   0.336  12.546  13.467
21236SOL    HW265606   0.191  12.570  13.429
21237SOL     OW65607   0.178   6.128   2.864
21237SOL    HW165608   0.116   6.174   2.807
21237SOL    HW265609   0.130   6.116   2.946
21238SOL     OW65610  10.856  11.602   0.572
21238SOL    HW165611  10.943  11.566   0.588
21238SOL    HW265612  10.872  11.690   0.539
21239SOL     OW65613   7.097  12.665   7.604
21239SOL    HW165614   7.048  12.608   7.544
21239SOL    HW265615   7.160  12.710   7.548
21240SOL     OW65616   2.964  10.236   1.083
21240SOL    HW165617   3.003  10.308   1.131
21240SOL    HW265618   3.016  10.228   1.003
21241SOL     OW65619   0.074   9.564   1.649
21241SOL    HW165620   0.142   9.510   1.689
21241SOL    HW265621   0.116   9.647   1.630
21242SOL     OW65622   1.325   4.906   7.112
21242SOL    HW165623   1.309   4.814   7.132
21242SOL    HW265624   1.251   4.952   7.153
21243SOL     OW65625   7.366   6.359   3.646
21243SOL    HW165626   7.279   6.357   3.607
21243SOL    HW265627   7.373   6.446   3.685
21244SOL     OW65628   5.664   7.622  13.688
21244SOL    HW165629   5.663   7.655  13.778
21244SOL    HW265630   5.576   7.584  13.677
21245SOL     OW65631   0.922   8.412   9.707
21245SOL    HW165632   0.881   8.451   9.784
21245SOL    HW265633   1.004   8.460   9.696
21246SOL     OW65634   1.790   1.747  13.093
21246SOL    HW165635   1.847   1.689  13.145
21246SOL    HW265636   1.851   1.805  13.047
21247SOL     OW65637   5.735   3.676   3.062
21247SOL    HW165638   5.736   3.772   3.070
21247SOL    HW265639   5.811   3.648   3.112
21248SOL     OW65640   4.889   0.448   9.398
21248SOL    HW165641   4.853   0.374   9.350
21248SOL    HW265642   4.905   0.413   9.486
21249SOL     OW65643  14.188   8.212   9.458
21249SOL    HW165644  14.218   8.260   9.535
21249SOL    HW265645  14.233   8.127   9.463
21250SOL     OW65646  13.632   1.917   5.648
21250SOL    HW165647  13.624   1.824   5.626
21250SOL    HW265648  13.542   1.951   5.642
21251SOL     OW65649   1.387   1.711  10.452
21251SOL    HW165650   1.374   1.698  10.546
21251SOL    HW265651   1.468   1.665  10.432
21252SOL     OW65652   8.556   1.376  13.277
21252SOL    HW165653   8.608   1.443  13.233
21252SOL    HW265654   8.496   1.343  13.210
21253SOL     OW65655   1.035  12.952   8.045
21253SOL    HW165656   1.046  12.892   7.970
21253SOL    HW265657   0.974  12.907   8.103
21254SOL     OW65658   4.947   0.723  14.072
21254SOL    HW165659   4.903   0.784  14.012
21254SOL    HW265660   5.031   0.765  14.092
21255SOL     OW65661   4.434   6.297   6.668
21255SOL    HW165662   4.508   6.337   6.713
21255SOL    HW265663   4.466   6.210   6.643
21256SOL     OW65664   6.797   6.945   9.253
21256SOL    HW165665   6.787   6.933   9.348
21256SOL    HW265666   6.782   6.858   9.216
21257SOL     OW65667   7.776   6.639  11.534
21257SOL    HW165668   7.725   6.708  11.491
21257SOL    HW265669   7.739   6.557  11.499
21258SOL     OW65670   2.506   0.956   8.337
21258SOL    HW165671   2.516   1.043   8.297
21258SOL    HW265672   2.571   0.902   8.293
21259SOL     OW65673   9.672   5.570  13.239
21259SOL    HW165674   9.748   5.604  13.192
21259SOL    HW265675   9.658   5.483  13.203
21260SOL     OW65676  12.537   8.990  13.974
21260SOL    HW165677  12.628   8.983  14.001
21260SOL    HW265678  12.490   8.927  14.028
21261SOL     OW65679   8.264   6.756  13.277
21261SOL    HW165680   8.207   6.831  13.260
21261SOL    HW265681   8.209   6.679  13.261
21262SOL     OW65682   5.177   5.685   4.405
21262SOL    HW165683   5.083   5.703   4.408
21262SOL    HW265684   5.216   5.745   4.468
21263SOL     OW65685   2.011   0.151   0.877
21263SOL    HW165686   2.085   0.097   0.906
21263SOL    HW265687   1.970   0.182   0.957
21264SOL     OW65688   6.004   3.555   9.719
21264SOL    HW165689   6.096   3.566   9.694
21264SOL    HW265690   6.006   3.489   9.789
21265SOL     OW65691   7.917  12.067  13.617
21265SOL    HW165692   7.833  12.027  13.597
21265SOL    HW265693   7.943  12.027  13.700
21266SOL     OW65694   1.085   0.708  14.779
21266SOL    HW165695   1.023   0.637  14.762
21266SOL    HW265696   1.150   0.700  14.710
21267SOL     OW65697   9.359   7.675   0.427
21267SOL    HW165698   9.296   7.652   0.358
21267SOL    HW265699   9.445   7.667   0.385
21268SOL     OW65700  11.967  13.116  12.782
21268SOL    HW165701  11.923  13.032  12.792
21268SOL    HW265702  11.899  13.176  12.751
21269SOL     OW65703   2.888   3.799   2.844
21269SOL    HW165704   2.960   3.814   2.783
21269SOL    HW265705   2.932   3.784   2.929
21270SOL     OW65706   8.804   7.452   0.485
21270SOL    HW165707   8.760   7.391   0.427
21270SOL    HW265708   8.808   7.407   0.569
21271SOL     OW65709   4.555   8.350   7.887
21271SOL    HW165710   4.465   8.377   7.868
21271SOL    HW265711   4.564   8.265   7.844
21272SOL     OW65712  10.626  12.663   0.285
21272SOL    HW165713  10.694  12.730   0.275
21272SOL    HW265714  10.584  12.684   0.369
21273SOL     OW65715  11.291  14.455  12.551
21273SOL    HW165716  11.273  14.508  12.474
21273SOL    HW265717  11.386  14.464  12.564
21274SOL     OW65718   4.645  14.678  12.128
21274SOL    HW165719   4.696  14.606  12.165
21274SOL    HW265720   4.634  14.739  12.201
21275SOL     OW65721  11.488   0.397  10.917
21275SOL    HW165722  11.417   0.446  10.958
21275SOL    HW265723  11.547   0.376  10.989
21276SOL     OW65724  12.701  12.772   6.833
21276SOL    HW165725  12.790  12.802   6.817
21276SOL    HW265726  12.709  12.710   6.906
21277SOL     OW65727   3.990   0.245   2.807
21277SOL    HW165728   4.053   0.174   2.798
21277SOL    HW265729   3.924   0.211   2.867
21278SOL     OW65730  14.081   2.348   0.865
21278SOL    HW165731  13.990   2.326   0.844
21278SOL    HW265732  14.097   2.306   0.949
21279SOL     OW65733   9.969   3.412   6.008
21279SOL    HW165734   9.964   3.506   6.024
21279SOL    HW265735   9.905   3.374   6.069
21280SOL     OW65736   2.029  10.482  11.106
21280SOL    HW165737   2.121  10.495  11.084
21280SOL    HW265738   2.006  10.398  11.066
21281SOL     OW65739   9.409  10.657   6.834
21281SOL    HW165740   9.474  10.589   6.852
21281SOL    HW265741   9.380  10.686   6.920
21282SOL     OW65742   1.203   8.424   9.226
21282SOL    HW165743   1.218   8.408   9.133
21282SOL    HW265744   1.290   8.416   9.266
21283SOL     OW65745  14.014   6.359   6.411
21283SOL    HW165746  13.984   6.273   6.438
21283SOL    HW265747  13.999   6.415   6.488
21284SOL     OW65748  13.812  11.642   7.183
21284SOL    HW165749  13.747  11.712   7.188
21284SOL    HW265750  13.830  11.633   7.089
21285SOL     OW65751   8.954   7.617   8.243
21285SOL    HW165752   9.016   7.545   8.245
21285SOL    HW265753   8.926   7.623   8.152
21286SOL     OW65754  14.580   1.481   9.646
21286SOL    HW165755  14.594   1.573   9.667
21286SOL    HW265756  14.555   1.441   9.729
21287SOL     OW65757   5.373   5.132  13.260
21287SOL    HW165758   5.456   5.177  13.243
21287SOL    HW265759   5.313   5.201  13.288
21288SOL     OW65760  13.409   1.700   2.332
21288SOL    HW165761  13.471   1.630   2.311
21288SOL    HW265762  13.394   1.693   2.426
21289SOL     OW65763  12.105  13.113  12.188
21289SOL    HW165764  12.186  13.154  12.218
21289SOL    HW265765  12.110  13.023  12.219
21290SOL     OW65766   5.505  10.771   2.140
21290SOL    HW165767   5.468  10.794   2.056
21290SOL    HW265768   5.592  10.811   2.140
21291SOL     OW65769   0.376  14.048   0.610
21291SOL    HW165770   0.323  13.974   0.640
21291SOL    HW265771   0.438  14.064   0.682
21292SOL     OW65772  10.836  10.302   3.276
21292SOL    HW165773  10.890  10.361   3.330
21292SOL    HW265774  10.872  10.309   3.188
21293SOL     OW65775   7.050   1.966   1.747
21293SOL    HW165776   7.009   1.911   1.814
21293SOL    HW265777   6.984   2.032   1.726
21294SOL     OW65778   4.684  11.575   6.246
21294SOL    HW165779   4.642  11.558   6.331
21294SOL    HW265780   4.677  11.491   6.199
21295SOL     OW65781   4.170  12.664  12.733
21295SOL    HW165782   4.132  12.614  12.805
21295SOL    HW265783   4.098  12.671  12.669
21296SOL     OW65784   0.196  14.446   8.271
21296SOL    HW165785   0.261  14.381   8.299
21296SOL    HW265786   0.173  14.492   8.351
21297SOL     OW65787   2.238   6.905   3.281
21297SOL    HW165788   2.213   6.966   3.350
21297SOL    HW265789   2.165   6.907   3.219
21298SOL     OW65790  11.802   3.062   8.743
21298SOL    HW165791  11.731   3.053   8.807
21298SOL    HW265792  11.881   3.075   8.795
21299SOL     OW65793   9.948   0.281   8.597
21299SOL    HW165794   9.922   0.193   8.624
21299SOL    HW265795   9.969   0.273   8.504
21300SOL     OW65796  10.302  13.247   0.334
21300SOL    HW165797  10.344  13.161   0.329
21300SOL    HW265798  10.338  13.286   0.414
21301SOL     OW65799  12.289  13.322   2.186
21301SOL    HW165800  12.321  13.234   2.208
21301SOL    HW265801  12.345  13.350   2.113
21302SOL     OW65802   4.206  13.732   4.481
21302SOL    HW165803   4.262  13.810   4.491
21302SOL    HW265804   4.208  13.691   4.568
21303SOL     OW65805  11.960   2.956   6.560
21303SOL    HW165806  11.950   3.044   6.596
21303SOL    HW265807  12.024   2.967   6.489
21304SOL     OW65808   9.364  13.172   1.638
21304SOL    HW165809   9.387  13.186   1.546
21304SOL    HW265810   9.373  13.258   1.679
21305SOL     OW65811  12.725   1.979   1.398
21305SOL    HW165812  12.812   1.952   1.427
21305SOL    HW265813  12.741   2.045   1.332
21306SOL     OW65814   9.221   4.636   5.523
21306SOL    HW165815   9.202   4.563   5.582
21306SOL    HW265816   9.173   4.614   5.443
21307SOL     OW65817  11.618   3.531   2.989
21307SOL    HW165818  11.612   3.454   3.044
21307SOL    HW265819  11.620   3.605   3.050
21308SOL     OW65820   1.792   3.959   6.215
21308SOL    HW165821   1.752   4.038   6.178
21308SOL    HW265822   1.800   3.900   6.141
21309SOL     OW65823  12.357  10.522   6.618
21309SOL    HW165824  12.327  10.585   6.553
21309SOL    HW265825  12.365  10.573   6.699
21310SOL     OW65826   3.272  12.068   3.454
21310SOL    HW165827   3.253  11.982   3.417
21310SOL    HW265828   3.191  12.095   3.497
21311SOL     OW65829  10.663   2.989  13.593
21311SOL    HW165830  10.728   3.058  13.592
21311SOL    HW265831  10.662   2.958  13.684
21312SOL     OW65832   9.860   8.471   9.757
21312SOL    HW165833   9.921   8.514   9.696
21312SOL    HW265834   9.916   8.435   9.825
21313SOL     OW65835   8.636   9.624   1.627
21313SOL    HW165836   8.573   9.655   1.691
21313SOL    HW265837   8.587   9.615   1.545
21314SOL     OW65838  14.386   6.531   9.362
21314SOL    HW165839  14.460   6.470   9.358
21314SOL    HW265840  14.317   6.490   9.311
21315SOL     OW65841   0.280   0.677  14.836
21315SOL    HW165842   0.259   0.691   0.059
21315SOL    HW265843   0.375   0.665  14.835
21316SOL     OW65844   3.607   1.039   3.206
21316SOL    HW165845   3.511   1.046   3.208
21316SOL    HW265846   3.637   1.125   3.177
21317SOL     OW65847   1.430  10.063   6.933
21317SOL    HW165848   1.409  10.128   7.000
21317SOL    HW265849   1.523  10.077   6.915
21318SOL     OW65850   3.305  13.959  13.867
21318SOL    HW165851   3.381  13.917  13.906
21318SOL    HW265852   3.244  13.887  13.849
21319SOL     OW65853  10.659   5.676  12.838
21319SOL    HW165854  10.572   5.716  12.829
21319SOL    HW265855  10.699   5.721  12.913
21320SOL     OW65856  13.500   1.152   4.611
21320SOL    HW165857  13.535   1.129   4.525
21320SOL    HW265858  13.549   1.230   4.637
21321SOL     OW65859  12.414   5.436  10.439
21321SOL    HW165860  12.355   5.367  10.409
21321SOL    HW265861  12.396   5.445  10.532
21322SOL     OW65862   2.218  11.537  11.917
21322SOL    HW165863   2.214  11.632  11.929
21322SOL    HW265864   2.132  11.515  11.880
21323SOL     OW65865   5.184  14.655  13.369
21323SOL    HW165866   5.248  14.690  13.431
21323SOL    HW265867   5.111  14.625  13.424
21324SOL     OW65868  14.237   9.351  10.099
21324SOL    HW165869  14.222   9.446  10.107
21324SOL    HW265870  14.332   9.343  10.093
21325SOL     OW65871  13.406   3.651   1.442
21325SOL    HW165872  13.384   3.743   1.425
21325SOL    HW265873  13.321   3.608   1.451
21326SOL     OW65874   5.480   6.664   0.207
21326SOL    HW165875   5.542   6.626   0.269
21326SOL    HW265876   5.413   6.596   0.196
21327SOL     OW65877   5.584   7.184  11.926
21327SOL    HW165878   5.550   7.273  11.929
21327SOL    HW265879   5.541   7.139  11.998
21328SOL     OW65880  11.377   1.003  14.117
21328SOL    HW165881  11.289   1.012  14.080
21328SOL    HW265882  11.383   0.910  14.140
21329SOL     OW65883   0.515   0.040   5.348
21329SOL    HW165884   0.422   0.043   5.330
21329SOL    HW265885   0.556   0.029   5.262
21330SOL     OW65886   7.214  10.463   4.292
21330SOL    HW165887   7.215  10.458   4.388
21330SOL    HW265888   7.125  10.489   4.270
21331SOL     OW65889   0.551   2.685  11.421
21331SOL    HW165890   0.643   2.667  11.441
21331SOL    HW265891   0.514   2.600  11.398
21332SOL     OW65892   2.812  12.734   7.541
21332SOL    HW165893   2.880  12.786   7.584
21332SOL    HW265894   2.843  12.643   7.547
21333SOL     OW65895   0.133   3.571  10.231
21333SOL    HW165896   0.086   3.618  10.161
21333SOL    HW265897   0.066   3.516  10.272
21334SOL     OW65898   8.363   0.644   0.889
21334SOL    HW165899   8.394   0.581   0.954
21334SOL    HW265900   8.430   0.712   0.889
21335SOL     OW65901   1.749  13.822   7.589
21335SOL    HW165902   1.655  13.836   7.576
21335SOL    HW265903   1.776  13.771   7.513
21336SOL     OW65904   9.273   7.838   2.213
21336SOL    HW165905   9.207   7.778   2.250
21336SOL    HW265906   9.225   7.887   2.147
21337SOL     OW65907   6.543  12.356   8.588
21337SOL    HW165908   6.570  12.446   8.570
21337SOL    HW265909   6.547  12.313   8.502
21338SOL     OW65910   5.559  12.335   4.563
21338SOL    HW165911   5.631  12.395   4.584
21338SOL    HW265912   5.480  12.385   4.580
21339SOL     OW65913   8.047   1.043   9.320
21339SOL    HW165914   8.028   0.950   9.309
21339SOL    HW265915   8.137   1.053   9.289
21340SOL     OW65916  13.041   9.215   1.339
21340SOL    HW165917  13.021   9.297   1.294
21340SOL    HW265918  13.102   9.171   1.280
21341SOL     OW65919  10.800  13.543   7.928
21341SOL    HW165920  10.832  13.496   7.851
21341SOL    HW265921  10.727  13.596   7.896
21342SOL     OW65922   6.126  13.231  11.855
21342SOL    HW165923   6.135  13.315  11.900
21342SOL    HW265924   6.215  13.209  11.828
21343SOL     OW65925   0.131   8.936  12.193
21343SOL    HW165926   0.067   8.927  12.123
21343SOL    HW265927   0.197   8.869  12.176
21344SOL     OW65928  10.372   3.284   6.856
21344SOL    HW165929  10.371   3.313   6.764
21344SOL    HW265930  10.343   3.361   6.905
21345SOL     OW65931   6.668   7.940   4.364
21345SOL    HW165932   6.732   7.891   4.415
21345SOL    HW265933   6.590   7.886   4.364
21346SOL     OW65934   3.221   0.895   2.042
21346SOL    HW165935   3.316   0.906   2.039
21346SOL    HW265936   3.201   0.884   2.135
21347SOL     OW65937   6.634  14.252  13.605
21347SOL    HW165938   6.573  14.324  13.622
21347SOL    HW265939   6.696  14.256  13.677
21348SOL     OW65940   1.736  11.768  10.965
21348SOL    HW165941   1.741  11.853  11.011
21348SOL    HW265942   1.704  11.707  11.032
21349SOL     OW65943   2.235  12.188   8.244
21349SOL    HW165944   2.178  12.254   8.285
21349SOL    HW265945   2.263  12.229   8.163
21350SOL     OW65946  13.664  11.350   3.993
21350SOL    HW165947  13.631  11.420   4.050
21350SOL    HW265948  13.585  11.303   3.966
21351SOL     OW65949  13.546   6.068   8.259
21351SOL    HW165950  13.550   6.139   8.323
21351SOL    HW265951  13.481   6.007   8.293
21352SOL     OW65952   4.225   7.859   4.035
21352SOL    HW165953   4.152   7.920   4.045
21352SOL    HW265954   4.184   7.775   4.016
21353SOL     OW65955   3.559  11.392   7.437
21353SOL    HW165956   3.580  11.354   7.352
21353SOL    HW265957   3.475  11.352   7.460
21354SOL     OW65958   9.841   3.216   2.646
21354SOL    HW165959   9.918   3.246   2.694
21354SOL    HW265960   9.859   3.237   2.555
21355SOL     OW65961   4.341   7.619   1.438
21355SOL    HW165962   4.393   7.545   1.408
21355SOL    HW265963   4.310   7.661   1.358
21356SOL     OW65964   9.244  11.271   5.247
21356SOL    HW165965   9.295  11.307   5.174
21356SOL    HW265966   9.310  11.242   5.310
21357SOL     OW65967   0.430  12.880  13.379
21357SOL    HW165968   0.371  12.933  13.431
21357SOL    HW265969   0.500  12.940  13.353
21358SOL     OW65970   7.721  11.677   3.501
21358SOL    HW165971   7.696  11.767   3.523
21358SOL    HW265972   7.793  11.687   3.438
21359SOL     OW65973  13.299  11.279  14.114
21359SOL    HW165974  13.367  11.301  14.178
21359SOL    HW265975  13.343  11.221  14.051
21360SOL     OW65976  10.911   5.602   0.027
21360SOL    HW165977  10.847   5.603   0.097
21360SOL    HW265978  10.872   5.655  14.827
21361SOL     OW65979   7.767   6.114   5.355
21361SOL    HW165980   7.832   6.078   5.295
21361SOL    HW265981   7.789   6.207   5.361
21362SOL     OW65982  12.545   2.714  11.713
21362SOL    HW165983  12.544   2.625  11.748
21362SOL    HW265984  12.540   2.703  11.618
21363SOL     OW65985  14.540  10.171   7.827
21363SOL    HW165986  14.518  10.257   7.790
21363SOL    HW265987  14.516  10.108   7.759
21364SOL     OW65988   6.487   3.267  11.183
21364SOL    HW165989   6.530   3.353  11.178
21364SOL    HW265990   6.421   3.277  11.252
21365SOL     OW65991   1.090  12.444  12.102
21365SOL    HW165992   1.082  12.515  12.037
21365SOL    HW265993   1.001  12.425  12.128
21366SOL     OW65994  13.513   3.638   2.399
21366SOL    HW165995  13.491   3.693   2.474
21366SOL    HW265996  13.429   3.620   2.357
21367SOL     OW65997  11.909  14.477   2.244
21367SOL    HW165998  11.968  14.405   2.226
21367SOL    HW265999  11.921  14.496   2.337
21368SOL     OW66000  10.798  14.003  12.812
21368SOL    HW166001  10.861  14.035  12.747
21368SOL    HW266002  10.758  13.927  12.770
21369SOL     OW66003   2.704  10.194   2.606
21369SOL    HW166004   2.631  10.237   2.562
21369SOL    HW266005   2.696  10.102   2.583
21370SOL     OW66006   5.161   1.326   5.517
21370SOL    HW166007   5.233   1.341   5.579
21370SOL    HW266008   5.142   1.414   5.482
21371SOL     OW66009   7.184   1.115  13.344
21371SOL    HW166010   7.197   1.021  13.329
21371SOL    HW266011   7.205   1.128  13.436
21372SOL     OW66012   2.581  11.692   8.041
21372SOL    HW166013   2.645  11.707   7.973
21372SOL    HW266014   2.503  11.741   8.013
21373SOL     OW66015  11.930   8.124   0.762
21373SOL    HW166016  11.953   8.059   0.828
21373SOL    HW266017  11.989   8.104   0.688
21374SOL     OW66018   3.148   3.739   0.100
21374SOL    HW166019   3.170   3.745   0.193
21374SOL    HW266020   3.157   3.829   0.068
21375SOL     OW66021   7.986   2.743   0.482
21375SOL    HW166022   8.009   2.832   0.510
21375SOL    HW266023   8.051   2.721   0.415
21376SOL     OW66024  12.644   2.152   7.079
21376SOL    HW166025  12.647   2.231   7.025
21376SOL    HW266026  12.705   2.169   7.150
21377SOL     OW66027  14.474   7.891   7.107
21377SOL    HW166028  14.474   7.853   7.195
21377SOL    HW266029  14.563   7.877   7.074
21378SOL     OW66030   3.952   8.766  10.138
21378SOL    HW166031   3.913   8.749  10.224
21378SOL    HW266032   4.037   8.722  10.141
21379SOL     OW66033  11.042   3.279   9.657
21379SOL    HW166034  11.061   3.366   9.694
21379SOL    HW266035  11.000   3.232   9.729
21380SOL     OW66036   0.070   4.776   2.215
21380SOL    HW166037   0.105   4.768   2.304
21380SOL    HW266038   0.087   4.866   2.190
21381SOL     OW66039   5.903   5.580  12.084
21381SOL    HW166040   5.904   5.664  12.037
21381SOL    HW266041   5.885   5.604  12.175
21382SOL     OW66042   4.085   7.521   1.725
21382SOL    HW166043   4.133   7.604   1.713
21382SOL    HW266044   4.123   7.483   1.804
21383SOL     OW66045   2.945  13.269   3.053
21383SOL    HW166046   2.905  13.187   3.082
21383SOL    HW266047   2.995  13.299   3.129
21384SOL     OW66048   8.658   5.171   5.068
21384SOL    HW166049   8.733   5.226   5.046
21384SOL    HW266050   8.670   5.149   5.161
21385SOL     OW66051  12.286  12.125   6.801
21385SOL    HW166052  12.324  12.068   6.734
21385SOL    HW266053  12.339  12.205   6.798
21386SOL     OW66054  12.318   3.023  12.753
21386SOL    HW166055  12.230   2.986  12.745
21386SOL    HW266056  12.330   3.036  12.847
21387SOL     OW66057  10.622   4.031  14.784
21387SOL    HW166058  10.690   3.969  14.759
21387SOL    HW266059  10.670   4.111  14.805
21388SOL     OW66060   5.756   6.410  10.543
21388SOL    HW166061   5.764   6.317  10.563
21388SOL    HW266062   5.841   6.447  10.569
21389SOL     OW66063  11.878  13.484   7.160
21389SOL    HW166064  11.876  13.579   7.153
21389SOL    HW266065  11.964  13.464   7.196
21390SOL     OW66066   1.025  11.397   1.741
21390SOL    HW166067   1.101  11.447   1.713
21390SOL    HW266068   1.060  11.312   1.766
21391SOL     OW66069   7.735   9.440   1.182
21391SOL    HW166070   7.698   9.408   1.100
21391SOL    HW266071   7.825   9.408   1.182
21392SOL     OW66072   8.791   8.470  13.446
21392SOL    HW166073   8.809   8.377  13.460
21392SOL    HW266074   8.799   8.482  13.351
21393SOL     OW66075   0.837  11.480   0.420
21393SOL    HW166076   0.828  11.485   0.325
21393SOL    HW266077   0.849  11.571   0.448
21394SOL     OW66078   2.318   3.727  12.563
21394SOL    HW166079   2.406   3.711  12.527
21394SOL    HW266080   2.273   3.643  12.555
21395SOL     OW66081   5.309   0.069  10.572
21395SOL    HW166082   5.325   0.029  10.658
21395SOL    HW266083   5.304  14.864  10.512
21396SOL     OW66084   6.690   6.179  10.091
21396SOL    HW166085   6.763   6.129  10.127
21396SOL    HW266086   6.629   6.112  10.059
21397SOL     OW66087  14.095  13.863   1.806
21397SOL    HW166088  14.172  13.894   1.853
21397SOL    HW266089  14.123  13.859   1.714
21398SOL     OW66090  12.076   8.937   7.826
21398SOL    HW166091  12.167   8.915   7.843
21398SOL    HW266092  12.026   8.886   7.890
21399SOL     OW66093   3.171   2.858  12.930
21399SOL    HW166094   3.077   2.848  12.913
21399SOL    HW266095   3.193   2.946  12.898
21400SOL     OW66096   6.777   0.160   0.723
21400SOL    HW166097   6.796   0.069   0.697
21400SOL    HW266098   6.722   0.151   0.800
21401SOL     OW66099   9.878   0.218   9.235
21401SOL    HW166100   9.862   0.191   9.325
21401SOL    HW266101   9.939   0.292   9.242
21402SOL     OW66102  12.730  14.630  13.039
21402SOL    HW166103  12.686  14.561  13.089
21402SOL    HW266104  12.805  14.586  12.998
21403SOL     OW66105   5.276  14.380   1.511
21403SOL    HW166106   5.213  14.410   1.446
21403SOL    HW266107   5.344  14.447   1.511
21404SOL     OW66108   6.249  13.655   6.706
21404SOL    HW166109   6.156  13.654   6.686
21404SOL    HW266110   6.280  13.739   6.672
21405SOL     OW66111   0.727   6.089   3.859
21405SOL    HW166112   0.715   5.995   3.846
21405SOL    HW266113   0.793   6.096   3.928
21406SOL     OW66114   0.735  13.264   7.413
21406SOL    HW166115   0.779  13.306   7.487
21406SOL    HW266116   0.690  13.336   7.368
21407SOL     OW66117   5.978   9.302  14.306
21407SOL    HW166118   5.937   9.389  14.303
21407SOL    HW266119   5.987   9.276  14.214
21408SOL     OW66120   1.873  12.491   9.734
21408SOL    HW166121   1.836  12.421   9.788
21408SOL    HW266122   1.966  12.490   9.753
21409SOL     OW66123  11.584   1.751  12.637
21409SOL    HW166124  11.491   1.728  12.626
21409SOL    HW266125  11.614   1.771  12.548
21410SOL     OW66126   8.481  14.193  12.522
21410SOL    HW166127   8.463  14.284  12.499
21410SOL    HW266128   8.573  14.180  12.499
21411SOL     OW66129   5.654   3.727   1.699
21411SOL    HW166130   5.740   3.717   1.657
21411SOL    HW266131   5.654   3.816   1.733
21412SOL     OW66132  13.138   8.647   7.331
21412SOL    HW166133  13.226   8.683   7.340
21412SOL    HW266134  13.087   8.718   7.292
21413SOL     OW66135   0.891   9.140  13.129
21413SOL    HW166136   0.815   9.085  13.111
21413SOL    HW266137   0.962   9.099  13.081
21414SOL     OW66138   2.750   8.167   6.256
21414SOL    HW166139   2.696   8.189   6.180
21414SOL    HW266140   2.741   8.072   6.265
21415SOL     OW66141   0.996   3.704   6.082
21415SOL    HW166142   1.022   3.681   6.171
21415SOL    HW266143   0.952   3.789   6.091
21416SOL     OW66144   5.567   2.539   6.956
21416SOL    HW166145   5.549   2.449   6.930
21416SOL    HW266146   5.555   2.540   7.051
21417SOL     OW66147  12.583  14.126   5.290
21417SOL    HW166148  12.587  14.078   5.207
21417SOL    HW266149  12.673  14.126   5.322
21418SOL     OW66150  11.463   2.088   2.564
21418SOL    HW166151  11.381   2.039   2.564
21418SOL    HW266152  11.445   2.165   2.511
21419SOL     OW66153   9.746   5.340   6.712
21419SOL    HW166154   9.778   5.366   6.625
21419SOL    HW266155   9.651   5.350   6.707
21420SOL     OW66156   3.859  11.642  11.937
21420SOL    HW166157   3.796  11.714  11.925
21420SOL    HW266158   3.921  11.652  11.865
21421SOL     OW66159   6.554   2.449  13.328
21421SOL    HW166160   6.599   2.383  13.276
21421SOL    HW266161   6.622   2.514  13.347
21422SOL     OW66162   3.112   2.522   2.563
21422SOL    HW166163   3.062   2.441   2.551
21422SOL    HW266164   3.055   2.591   2.527
21423SOL     OW66165   6.882   5.356  10.686
21423SOL    HW166166   6.878   5.391  10.775
21423SOL    HW266167   6.865   5.432  10.630
21424SOL     OW66168  14.660   4.279   7.875
21424SOL    HW166169  14.576   4.253   7.912
21424SOL    HW266170  14.644   4.363   7.833
21425SOL     OW66171   3.935   7.801  13.941
21425SOL    HW166172   3.908   7.718  13.980
21425SOL    HW266173   3.902   7.867  14.002
21426SOL     OW66174   4.902  13.118   4.810
21426SOL    HW166175   4.978  13.095   4.756
21426SOL    HW266176   4.933  13.185   4.870
21427SOL     OW66177   9.953   0.649   2.114
21427SOL    HW166178   9.874   0.666   2.165
21427SOL    HW266179   9.966   0.555   2.119
21428SOL     OW66180   5.494   1.392   3.965
21428SOL    HW166181   5.422   1.359   3.913
21428SOL    HW266182   5.571   1.347   3.932
21429SOL     OW66183   4.803   0.000  12.940
21429SOL    HW166184   4.843  14.784  12.922
21429SOL    HW266185   4.711  14.859  12.916
21430SOL     OW66186   8.832   1.278  14.479
21430SOL    HW166187   8.870   1.215  14.541
21430SOL    HW266188   8.750   1.305  14.520
21431SOL     OW66189   8.471  11.408   4.130
21431SOL    HW166190   8.466  11.329   4.076
21431SOL    HW266191   8.474  11.375   4.220
21432SOL     OW66192   8.326   2.775   2.667
21432SOL    HW166193   8.312   2.781   2.761
21432SOL    HW266194   8.259   2.714   2.636
21433SOL     OW66195   9.619   0.874   0.536
21433SOL    HW166196   9.659   0.867   0.622
21433SOL    HW266197   9.680   0.829   0.477
21434SOL     OW66198   0.726   9.151  14.437
21434SOL    HW166199   0.650   9.205  14.412
21434SOL    HW266200   0.769   9.201  14.507
21435SOL     OW66201  14.264  14.727  12.773
21435SOL    HW166202  14.195  14.663  12.757
21435SOL    HW266203  14.346  14.678  12.762
21436SOL     OW66204   1.330   0.565  12.958
21436SOL    HW166205   1.364   0.655  12.952
21436SOL    HW266206   1.260   0.561  12.894
21437SOL     OW66207  11.190   0.597   6.108
21437SOL    HW166208  11.115   0.609   6.050
21437SOL    HW266209  11.260   0.567   6.050
21438SOL     OW66210   6.344   0.994   6.769
21438SOL    HW166211   6.271   0.957   6.720
21438SOL    HW266212   6.315   1.081   6.794
21439SOL     OW66213   7.355   2.058   4.921
21439SOL    HW166214   7.329   2.134   4.974
21439SOL    HW266215   7.352   1.984   4.982
21440SOL     OW66216   7.732  11.619   2.409
21440SOL    HW166217   7.726  11.600   2.503
21440SOL    HW266218   7.790  11.696   2.404
21441SOL     OW66219   2.914   9.294   9.680
21441SOL    HW166220   2.931   9.371   9.626
21441SOL    HW266221   2.860   9.237   9.625
21442SOL     OW66222   0.196   7.223   4.533
21442SOL    HW166223   0.104   7.247   4.517
21442SOL    HW266224   0.205   7.135   4.497
21443SOL     OW66225   6.011  14.085  11.480
21443SOL    HW166226   5.932  14.044  11.514
21443SOL    HW266227   5.998  14.086  11.385
21444SOL     OW66228  10.222   3.875  11.118
21444SOL    HW166229  10.231   3.809  11.050
21444SOL    HW266230  10.157   3.936  11.084
21445SOL     OW66231   7.293   0.089   7.945
21445SOL    HW166232   7.386   0.070   7.930
21445SOL    HW266233   7.259   0.112   7.859
21446SOL     OW66234   5.296   9.969   1.499
21446SOL    HW166235   5.351  10.024   1.556
21446SOL    HW266236   5.347   9.962   1.418
21447SOL     OW66237   3.363   0.454   7.467
21447SOL    HW166238   3.268   0.451   7.469
21447SOL    HW266239   3.386   0.531   7.519
21448SOL     OW66240   7.554   3.742   6.366
21448SOL    HW166241   7.510   3.686   6.302
21448SOL    HW266242   7.623   3.686   6.403
21449SOL     OW66243   7.021   5.486   8.832
21449SOL    HW166244   7.055   5.425   8.766
21449SOL    HW266245   7.099   5.523   8.873
21450SOL     OW66246   8.947   2.419  12.695
21450SOL    HW166247   8.852   2.430  12.701
21450SOL    HW266248   8.963   2.330  12.727
21451SOL     OW66249   5.136   2.197   0.960
21451SOL    HW166250   5.124   2.108   0.992
21451SOL    HW266251   5.104   2.253   1.031
21452SOL     OW66252   7.423   7.794  12.537
21452SOL    HW166253   7.366   7.723  12.565
21452SOL    HW266254   7.486   7.804  12.607
21453SOL     OW66255   0.061   6.688   4.880
21453SOL    HW166256   0.064   6.755   4.949
21453SOL    HW266257   0.126   6.623   4.907
21454SOL     OW66258   2.591  12.095  13.874
21454SOL    HW166259   2.641  12.162  13.920
21454SOL    HW266260   2.501  12.128  13.874
21455SOL     OW66261   9.311  10.125   5.810
21455SOL    HW166262   9.331  10.047   5.759
21455SOL    HW266263   9.305  10.094   5.901
21456SOL     OW66264  10.775  13.337  10.268
21456SOL    HW166265  10.722  13.415  10.251
21456SOL    HW266266  10.758  13.315  10.360
21457SOL     OW66267   0.701   4.821   2.752
21457SOL    HW166268   0.677   4.898   2.701
21457SOL    HW266269   0.795   4.831   2.767
21458SOL     OW66270   4.015   0.348  13.799
21458SOL    HW166271   4.010   0.376  13.890
21458SOL    HW266272   4.075   0.273  13.799
21459SOL     OW66273  12.679  10.013   3.018
21459SOL    HW166274  12.644   9.937   3.065
21459SOL    HW266275  12.712  10.070   3.087
21460SOL     OW66276   0.286   8.600   7.014
21460SOL    HW166277   0.341   8.643   6.948
21460SOL    HW266278   0.211   8.658   7.024
21461SOL     OW66279  11.042   7.716   8.478
21461SOL    HW166280  11.046   7.741   8.386
21461SOL    HW266281  10.954   7.679   8.490
21462SOL     OW66282   8.169   2.371   7.396
21462SOL    HW166283   8.139   2.360   7.486
21462SOL    HW266284   8.219   2.453   7.397
21463SOL     OW66285  12.520   9.970  13.295
21463SOL    HW166286  12.456   9.962  13.225
21463SOL    HW266287  12.476  10.021  13.362
21464SOL     OW66288  10.179  14.014   5.605
21464SOL    HW166289  10.125  14.004   5.683
21464SOL    HW266290  10.269  14.001   5.636
21465SOL     OW66291  14.170   1.976   7.831
21465SOL    HW166292  14.134   2.065   7.831
21465SOL    HW266293  14.261   1.988   7.806
21466SOL     OW66294  12.204   9.699  10.804
21466SOL    HW166295  12.158   9.778  10.831
21466SOL    HW266296  12.174   9.631  10.864
21467SOL     OW66297  13.944   1.021  13.385
21467SOL    HW166298  13.868   1.067  13.350
21467SOL    HW266299  14.014   1.086  13.385
21468SOL     OW66300  11.888   1.999   6.493
21468SOL    HW166301  11.868   2.019   6.402
21468SOL    HW266302  11.811   1.952   6.525
21469SOL     OW66303   2.939  14.726   5.216
21469SOL    HW166304   2.871  14.780   5.257
21469SOL    HW266305   2.983  14.786   5.156
21470SOL     OW66306   8.860   4.451  10.901
21470SOL    HW166307   8.847   4.418  10.989
21470SOL    HW266308   8.926   4.520  10.911
21471SOL     OW66309   9.980   4.189   3.427
21471SOL    HW166310   9.978   4.228   3.340
21471SOL    HW266311   9.917   4.241   3.478
21472SOL     OW66312   6.224   3.948   4.773
21472SOL    HW166313   6.268   4.004   4.708
21472SOL    HW266314   6.134   3.943   4.742
21473SOL     OW66315   1.109  14.349   8.760
21473SOL    HW166316   1.132  14.357   8.853
21473SOL    HW266317   1.055  14.269   8.756
21474SOL     OW66318   1.262   0.205  13.190
21474SOL    HW166319   1.326   0.162  13.246
21474SOL    HW266320   1.271   0.298  13.209
21475SOL     OW66321   0.910   8.352   9.029
21475SOL    HW166322   0.878   8.375   9.116
21475SOL    HW266323   0.835   8.367   8.971
21476SOL     OW66324   9.667  12.500  14.116
21476SOL    HW166325   9.636  12.576  14.067
21476SOL    HW266326   9.749  12.529  14.157
21477SOL     OW66327   4.188   7.834   4.886
21477SOL    HW166328   4.247   7.825   4.960
21477SOL    HW266329   4.246   7.842   4.810
21478SOL     OW66330   7.864   0.928  12.288
21478SOL    HW166331   7.870   0.913  12.193
21478SOL    HW266332   7.933   0.991  12.307
21479SOL     OW66333   9.799   4.709  14.117
21479SOL    HW166334   9.813   4.733  14.026
21479SOL    HW266335   9.807   4.792  14.165
21480SOL     OW66336   1.684  14.139  12.949
21480SOL    HW166337   1.725  14.207  12.895
21480SOL    HW266338   1.699  14.167  13.039
21481SOL     OW66339   3.147   7.530  12.395
21481SOL    HW166340   3.083   7.580  12.446
21481SOL    HW266341   3.229   7.579  12.406
21482SOL     OW66342   1.879  10.125   3.115
21482SOL    HW166343   1.905  10.071   3.189
21482SOL    HW266344   1.843  10.063   3.051
21483SOL     OW66345   0.585  11.182   1.557
21483SOL    HW166346   0.654  11.222   1.610
21483SOL    HW266347   0.629  11.153   1.477
21484SOL     OW66348   9.749  13.834   0.960
21484SOL    HW166349   9.775  13.921   0.928
21484SOL    HW266350   9.828  13.781   0.953
21485SOL     OW66351  11.044   5.853   5.780
21485SOL    HW166352  11.057   5.782   5.718
21485SOL    HW266353  11.060   5.933   5.729
21486SOL     OW66354  13.200   2.831   4.615
21486SOL    HW166355  13.252   2.910   4.604
21486SOL    HW266356  13.256   2.760   4.584
21487SOL     OW66357  11.481   0.172   4.741
21487SOL    HW166358  11.386   0.156   4.740
21487SOL    HW266359  11.497   0.223   4.661
21488SOL     OW66360   9.370   1.668  14.141
21488SOL    HW166361   9.366   1.726  14.065
21488SOL    HW266362   9.421   1.716  14.206
21489SOL     OW66363  10.190   3.378  13.546
21489SOL    HW166364  10.169   3.325  13.468
21489SOL    HW266365  10.184   3.468  13.516
21490SOL     OW66366   4.048  10.312   9.127
21490SOL    HW166367   4.136  10.278   9.111
21490SOL    HW266368   4.039  10.311   9.223
21491SOL     OW66369   0.105   0.563  11.080
21491SOL    HW166370   0.186   0.608  11.054
21491SOL    HW266371   0.055   0.555  10.999
21492SOL     OW66372   6.490   2.083   9.962
21492SOL    HW166373   6.514   1.992   9.946
21492SOL    HW266374   6.469   2.087  10.055
21493SOL     OW66375   3.969   5.289   3.231
21493SOL    HW166376   4.031   5.241   3.285
21493SOL    HW266377   3.936   5.359   3.287
21494SOL     OW66378   9.228  11.210  11.709
21494SOL    HW166379   9.160  11.244  11.650
21494SOL    HW266380   9.180  11.166  11.779
21495SOL     OW66381  14.751   6.554   9.494
21495SOL    HW166382  14.830   6.594   9.531
21495SOL    HW266383  14.680   6.608   9.529
21496SOL     OW66384   9.443  14.228   7.152
21496SOL    HW166385   9.405  14.176   7.081
21496SOL    HW266386   9.400  14.195   7.231
21497SOL     OW66387  10.111   4.058   9.207
21497SOL    HW166388  10.071   4.050   9.294
21497SOL    HW266389  10.188   4.113   9.221
21498SOL     OW66390   1.120  13.985  13.957
21498SOL    HW166391   1.046  13.990  14.018
21498SOL    HW266392   1.079  13.988  13.870
21499SOL     OW66393  14.328   9.548   1.306
21499SOL    HW166394  14.422   9.539   1.321
21499SOL    HW266395  14.320   9.571   1.213
21500SOL     OW66396   6.361   7.977   0.435
21500SOL    HW166397   6.431   8.042   0.433
21500SOL    HW266398   6.319   7.984   0.349
21501SOL     OW66399   2.638   9.397  10.844
21501SOL    HW166400   2.578   9.453  10.894
21501SOL    HW266401   2.582   9.339  10.794
21502SOL     OW66402   3.682   7.931   2.375
21502SOL    HW166403   3.650   7.875   2.305
21502SOL    HW266404   3.717   7.870   2.440
21503SOL     OW66405  11.283   6.412  10.102
21503SOL    HW166406  11.230   6.333  10.091
21503SOL    HW266407  11.364   6.381  10.142
21504SOL     OW66408   9.412   5.080  12.246
21504SOL    HW166409   9.341   5.114  12.192
21504SOL    HW266410   9.416   4.987  12.224
21505SOL     OW66411   7.281   9.542   0.375
21505SOL    HW166412   7.217   9.530   0.445
21505SOL    HW266413   7.253   9.481   0.307
21506SOL     OW66414  11.829   6.143  11.307
21506SOL    HW166415  11.788   6.062  11.336
21506SOL    HW266416  11.921   6.120  11.295
21507SOL     OW66417   6.173  13.839  13.227
21507SOL    HW166418   6.238  13.850  13.158
21507SOL    HW266419   6.185  13.748  13.256
21508SOL     OW66420   0.753   9.282   3.742
21508SOL    HW166421   0.707   9.344   3.684
21508SOL    HW266422   0.758   9.202   3.690
21509SOL     OW66423   9.610   9.056   0.140
21509SOL    HW166424   9.596   9.148   0.118
21509SOL    HW266425   9.593   9.009   0.058
21510SOL     OW66426  11.795   4.842   6.725
21510SOL    HW166427  11.781   4.849   6.630
21510SOL    HW266428  11.859   4.910   6.745
21511SOL     OW66429   3.116  11.096  12.343
21511SOL    HW166430   3.184  11.033  12.321
21511SOL    HW266431   3.156  11.153  12.408
21512SOL     OW66432  10.478   0.419   3.810
21512SOL    HW166433  10.429   0.498   3.834
21512SOL    HW266434  10.480   0.421   3.714
21513SOL     OW66435  11.511  13.106   8.341
21513SOL    HW166436  11.559  13.025   8.360
21513SOL    HW266437  11.550  13.171   8.399
21514SOL     OW66438   6.630  13.619   1.815
21514SOL    HW166439   6.591  13.591   1.897
21514SOL    HW266440   6.582  13.698   1.791
21515SOL     OW66441  13.707  10.293  11.158
21515SOL    HW166442  13.760  10.367  11.187
21515SOL    HW266443  13.688  10.244  11.238
21516SOL     OW66444  11.684  10.585   8.250
21516SOL    HW166445  11.601  10.559   8.289
21516SOL    HW266446  11.659  10.646   8.179
21517SOL     OW66447  13.061  10.965  12.408
21517SOL    HW166448  12.976  10.929  12.433
21517SOL    HW266449  13.056  11.057  12.434
21518SOL     OW66450   1.506  11.746  10.812
21518SOL    HW166451   1.596  11.775  10.824
21518SOL    HW266452   1.478  11.718  10.899
21519SOL     OW66453   1.285   9.621   7.333
21519SOL    HW166454   1.230   9.692   7.367
21519SOL    HW266455   1.317   9.575   7.411
21520SOL     OW66456   3.243   6.694  10.688
21520SOL    HW166457   3.188   6.710  10.611
21520SOL    HW266458   3.191   6.726  10.762
21521SOL     OW66459   9.499  10.251   0.598
21521SOL    HW166460   9.460  10.232   0.684
21521SOL    HW266461   9.493  10.346   0.590
21522SOL     OW66462   5.245   4.493   3.043
21522SOL    HW166463   5.210   4.423   2.988
21522SOL    HW266464   5.338   4.498   3.019
21523SOL     OW66465  11.516   0.936   2.492
21523SOL    HW166466  11.606   0.943   2.459
21523SOL    HW266467  11.480   1.024   2.480
21524SOL     OW66468   6.999  11.507   9.326
21524SOL    HW166469   7.046  11.535   9.405
21524SOL    HW266470   7.067  11.482   9.265
21525SOL     OW66471   8.946  12.285   6.279
21525SOL    HW166472   8.989  12.255   6.198
21525SOL    HW266473   9.018  12.302   6.339
21526SOL     OW66474   4.901   0.554   2.331
21526SOL    HW166475   4.915   0.643   2.298
21526SOL    HW266476   4.836   0.516   2.272
21527SOL     OW66477   1.595  13.338   8.886
21527SOL    HW166478   1.519  13.323   8.943
21527SOL    HW266479   1.617  13.430   8.899
21528SOL     OW66480   2.198  11.749  14.179
21528SOL    HW166481   2.253  11.684  14.135
21528SOL    HW266482   2.161  11.702  14.254
21529SOL     OW66483   7.607   6.867   4.822
21529SOL    HW166484   7.641   6.800   4.763
21529SOL    HW266485   7.537   6.909   4.772
21530SOL     OW66486  11.083   3.749  13.129
21530SOL    HW166487  11.143   3.677  13.112
21530SOL    HW266488  11.081   3.757  13.225
21531SOL     OW66489   2.192   2.908  14.236
21531SOL    HW166490   2.156   2.820  14.220
21531SOL    HW266491   2.253   2.896  14.309
21532SOL     OW66492  13.395   1.980   5.302
21532SOL    HW166493  13.394   2.071   5.274
21532SOL    HW266494  13.391   1.929   5.221
21533SOL     OW66495   9.701   6.705   9.707
21533SOL    HW166496   9.745   6.672   9.785
21533SOL    HW266497   9.763   6.689   9.636
21534SOL     OW66498   1.388  11.823   4.917
21534SOL    HW166499   1.327  11.842   4.988
21534SOL    HW266500   1.474  11.843   4.953
21535SOL     OW66501  13.499  11.257   0.649
21535SOL    HW166502  13.455  11.215   0.575
21535SOL    HW266503  13.445  11.334   0.668
21536SOL     OW66504  12.660   7.516   9.715
21536SOL    HW166505  12.597   7.451   9.745
21536SOL    HW266506  12.729   7.466   9.673
21537SOL     OW66507   6.652   8.366   5.378
21537SOL    HW166508   6.556   8.365   5.379
21537SOL    HW266509   6.674   8.442   5.324
21538SOL     OW66510  10.253  11.966  11.231
21538SOL    HW166511  10.208  11.975  11.147
21538SOL    HW266512  10.207  11.894  11.274
21539SOL     OW66513  13.597  11.075   8.615
21539SOL    HW166514  13.625  10.991   8.651
21539SOL    HW266515  13.648  11.140   8.664
21540SOL     OW66516  12.940   7.967   2.433
21540SOL    HW166517  12.953   8.062   2.444
21540SOL    HW266518  12.996   7.928   2.500
21541SOL     OW66519   7.170   9.213   8.944
21541SOL    HW166520   7.093   9.235   8.997
21541SOL    HW266521   7.233   9.282   8.966
21542SOL     OW66522  10.502  11.446   6.064
21542SOL    HW166523  10.423  11.430   6.012
21542SOL    HW266524  10.560  11.373   6.043
21543SOL     OW66525   7.653   1.227   9.404
21543SOL    HW166526   7.572   1.275   9.390
21543SOL    HW266527   7.686   1.210   9.316
21544SOL     OW66528   2.490   1.053   4.085
21544SOL    HW166529   2.482   1.069   4.179
21544SOL    HW266530   2.514   1.139   4.049
21545SOL     OW66531   1.070  12.038   3.769
21545SOL    HW166532   1.008  12.042   3.696
21545SOL    HW266533   1.031  12.094   3.836
21546SOL     OW66534  12.161   8.491  14.286
21546SOL    HW166535  12.218   8.568  14.286
21546SOL    HW266536  12.104   8.503  14.210
21547SOL     OW66537   6.165  14.153  10.755
21547SOL    HW166538   6.163  14.094  10.680
21547SOL    HW266539   6.218  14.107  10.820
21548SOL     OW66540  12.074   3.143  13.815
21548SOL    HW166541  12.031   3.187  13.742
21548SOL    HW266542  12.165   3.133  13.787
21549SOL     OW66543   7.151   4.815  13.948
21549SOL    HW166544   7.182   4.830  13.859
21549SOL    HW266545   7.201   4.876  14.002
21550SOL     OW66546   4.753   1.955   8.117
21550SOL    HW166547   4.722   1.983   8.204
21550SOL    HW266548   4.820   1.890   8.136
21551SOL     OW66549  10.364  13.091   6.383
21551SOL    HW166550  10.410  13.173   6.399
21551SOL    HW266551  10.361  13.047   6.468
21552SOL     OW66552   8.838  12.467  10.852
21552SOL    HW166553   8.903  12.462  10.782
21552SOL    HW266554   8.785  12.544  10.830
21553SOL     OW66555   2.086   1.811   7.831
21553SOL    HW166556   2.035   1.788   7.753
21553SOL    HW266557   2.023   1.812   7.902
21554SOL     OW66558   5.934   4.291   0.301
21554SOL    HW166559   6.001   4.254   0.359
21554SOL    HW266560   5.914   4.219   0.240
21555SOL     OW66561   7.110   2.275   6.465
21555SOL    HW166562   7.169   2.315   6.401
21555SOL    HW266563   7.165   2.262   6.543
21556SOL     OW66564   2.083   1.204  11.226
21556SOL    HW166565   2.153   1.185  11.289
21556SOL    HW266566   2.032   1.274  11.266
21557SOL     OW66567   4.355  11.465  13.264
21557SOL    HW166568   4.266  11.500  13.271
21557SOL    HW266569   4.379  11.442  13.353
21558SOL     OW66570  11.459   9.870  11.078
21558SOL    HW166571  11.542   9.902  11.040
21558SOL    HW266572  11.447   9.783  11.040
21559SOL     OW66573   3.684  11.891   7.555
21559SOL    HW166574   3.762  11.867   7.506
21559SOL    HW266575   3.624  11.817   7.543
21560SOL     OW66576   9.123   8.957  12.588
21560SOL    HW166577   9.069   8.890  12.630
21560SOL    HW266578   9.115   8.940  12.495
21561SOL     OW66579   9.312  12.881   0.021
21561SOL    HW166580   9.284  12.843  14.807
21561SOL    HW266581   9.364  12.812   0.062
21562SOL     OW66582   7.514   3.641   6.890
21562SOL    HW166583   7.528   3.736   6.889
21562SOL    HW266584   7.430   3.629   6.933
21563SOL     OW66585   9.908  12.814  14.104
21563SOL    HW166586   9.944  12.761  14.033
21563SOL    HW266587   9.985  12.842  14.154
21564SOL     OW66588   3.550   2.343   2.954
21564SOL    HW166589   3.593   2.279   2.898
21564SOL    HW266590   3.457   2.336   2.933
21565SOL     OW66591   5.339  13.836  11.402
21565SOL    HW166592   5.327  13.797  11.489
21565SOL    HW266593   5.433  13.855  11.398
21566SOL     OW66594   3.086   1.975   4.013
21566SOL    HW166595   3.059   1.994   4.103
21566SOL    HW266596   3.178   1.950   4.020
21567SOL     OW66597   5.946   7.122   0.893
21567SOL    HW166598   5.980   7.036   0.872
21567SOL    HW266599   5.868   7.132   0.838
21568SOL     OW66600  13.270  10.671   7.779
21568SOL    HW166601  13.187  10.695   7.738
21568SOL    HW266602  13.337  10.699   7.716
21569SOL     OW66603   7.973   7.820   5.033
21569SOL    HW166604   7.990   7.760   5.106
21569SOL    HW266605   8.058   7.859   5.015
21570SOL     OW66606   3.152   2.949   9.852
21570SOL    HW166607   3.150   2.860   9.816
21570SOL    HW266608   3.142   2.936   9.947
21571SOL     OW66609   2.870  14.758   2.990
21571SOL    HW166610   2.783  14.785   3.020
21571SOL    HW266611   2.930  14.787   3.058
21572SOL     OW66612   8.261   2.752   3.259
21572SOL    HW166613   8.212   2.834   3.258
21572SOL    HW266614   8.352   2.778   3.242
21573SOL     OW66615   0.414   8.433   9.948
21573SOL    HW166616   0.338   8.452  10.003
21573SOL    HW266617   0.376   8.407   9.864
21574SOL     OW66618   3.946  14.666   6.614
21574SOL    HW166619   3.939  14.654   6.708
21574SOL    HW266620   3.974  14.581   6.580
21575SOL     OW66621  13.422  13.573  12.002
21575SOL    HW166622  13.448  13.659  11.971
21575SOL    HW266623  13.429  13.517  11.925
21576SOL     OW66624   1.560   2.082   0.699
21576SOL    HW166625   1.635   2.026   0.714
21576SOL    HW266626   1.596   2.162   0.661
21577SOL     OW66627   8.581   9.817   9.326
21577SOL    HW166628   8.548   9.741   9.373
21577SOL    HW266629   8.599   9.881   9.395
21578SOL     OW66630  14.153  14.815  10.436
21578SOL    HW166631  14.233  14.867  10.436
21578SOL    HW266632  14.151  14.775  10.349
21579SOL     OW66633   9.134   2.792   7.302
21579SOL    HW166634   9.210   2.742   7.330
21579SOL    HW266635   9.168   2.851   7.234
21580SOL     OW66636   8.173   7.832   6.882
21580SOL    HW166637   8.125   7.833   6.965
21580SOL    HW266638   8.261   7.860   6.906
21581SOL     OW66639   3.021  14.240  12.059
21581SOL    HW166640   2.962  14.165  12.068
21581SOL    HW266641   2.968  14.315  12.084
21582SOL     OW66642   2.590  12.476   8.672
21582SOL    HW166643   2.633  12.527   8.603
21582SOL    HW266644   2.505  12.452   8.636
21583SOL     OW66645   1.832   0.424   2.345
21583SOL    HW166646   1.917   0.462   2.323
21583SOL    HW266647   1.812   0.461   2.431
21584SOL     OW66648   3.179   1.773   1.432
21584SOL    HW166649   3.233   1.839   1.475
21584SOL    HW266650   3.144   1.720   1.503
21585SOL     OW66651   8.486  12.803   2.565
21585SOL    HW166652   8.396  12.834   2.555
21585SOL    HW266653   8.541  12.880   2.549
21586SOL     OW66654   9.358   1.952   4.968
21586SOL    HW166655   9.373   1.962   4.874
21586SOL    HW266656   9.270   1.986   4.983
21587SOL     OW66657   8.430   7.855   1.147
21587SOL    HW166658   8.399   7.797   1.217
21587SOL    HW266659   8.365   7.925   1.143
21588SOL     OW66660   0.008   6.830  13.599
21588SOL    HW166661  14.858   6.854  13.508
21588SOL    HW266662  14.825   6.751  13.614
21589SOL     OW66663   2.861   5.988   0.972
21589SOL    HW166664   2.894   6.014   0.886
21589SOL    HW266665   2.766   5.998   0.966
21590SOL     OW66666   2.355   5.181   5.930
21590SOL    HW166667   2.311   5.266   5.927
21590SOL    HW266668   2.315   5.135   6.004
21591SOL     OW66669  14.694   5.393  12.597
21591SOL    HW166670  14.654   5.480  12.606
21591SOL    HW266671  14.633   5.334  12.640
21592SOL     OW66672   1.135   8.949  12.765
21592SOL    HW166673   1.062   8.887  12.767
21592SOL    HW266674   1.106   9.018  12.705
21593SOL     OW66675  13.945   2.629   4.882
21593SOL    HW166676  14.036   2.635   4.910
21593SOL    HW266677  13.904   2.572   4.947
21594SOL     OW66678  11.185   4.452  10.197
21594SOL    HW166679  11.203   4.497  10.280
21594SOL    HW266680  11.244   4.494  10.135
21595SOL     OW66681   2.984  13.319   2.062
21595SOL    HW166682   2.910  13.319   2.123
21595SOL    HW266683   3.029  13.236   2.080
21596SOL     OW66684   3.316   0.492   7.997
21596SOL    HW166685   3.324   0.403   7.963
21596SOL    HW266686   3.390   0.539   7.958
21597SOL     OW66687   5.642   2.210  11.562
21597SOL    HW166688   5.707   2.276  11.541
21597SOL    HW266689   5.651   2.195  11.656
21598SOL     OW66690   3.549   1.140  12.893
21598SOL    HW166691   3.585   1.229  12.895
21598SOL    HW266692   3.475   1.143  12.953
21599SOL     OW66693  14.367  11.569   8.184
21599SOL    HW166694  14.429  11.599   8.118
21599SOL    HW266695  14.387  11.622   8.261
21600SOL     OW66696   4.022   3.593   6.846
21600SOL    HW166697   3.978   3.663   6.797
21600SOL    HW266698   3.956   3.525   6.857
21601SOL     OW66699   6.561  10.950   9.159
21601SOL    HW166700   6.652  10.972   9.181
21601SOL    HW266701   6.511  10.979   9.235
21602SOL     OW66702  14.756   6.961   5.107
21602SOL    HW166703  14.782   6.875   5.139
21602SOL    HW266704  14.830   7.018   5.129
21603SOL     OW66705   1.470   4.188  14.457
21603SOL    HW166706   1.390   4.153  14.419
21603SOL    HW266707   1.479   4.275  14.419
21604SOL     OW66708  10.251   4.115   0.056
21604SOL    HW166709  10.156   4.121   0.053
21604SOL    HW266710  10.270   4.066   0.136
21605SOL     OW66711   7.930   6.476   8.979
21605SOL    HW166712   7.850   6.528   8.984
21605SOL    HW266713   7.919   6.420   8.903
21606SOL     OW66714  13.131   9.210   6.134
21606SOL    HW166715  13.217   9.192   6.095
21606SOL    HW266716  13.089   9.269   6.071
21607SOL     OW66717  14.472   3.385  14.221
21607SOL    HW166718  14.526   3.462  14.202
21607SOL    HW266719  14.484   3.328  14.146
21608SOL     OW66720   7.802   4.336   3.869
21608SOL    HW166721   7.736   4.311   3.933
21608SOL    HW266722   7.833   4.422   3.898
21609SOL     OW66723  11.270   3.971   2.549
21609SOL    HW166724  11.266   3.985   2.644
21609SOL    HW266725  11.308   3.883   2.540
21610SOL     OW66726   6.880   2.806   3.620
21610SOL    HW166727   6.897   2.811   3.714
21610SOL    HW266728   6.809   2.742   3.612
21611SOL     OW66729   4.893   8.696   7.835
21611SOL    HW166730   4.970   8.709   7.780
21611SOL    HW266731   4.834   8.767   7.810
21612SOL     OW66732  12.157   0.222   9.153
21612SOL    HW166733  12.225   0.170   9.111
21612SOL    HW266734  12.185   0.313   9.142
21613SOL     OW66735  10.972  11.929  14.687
21613SOL    HW166736  11.062  11.945  14.717
21613SOL    HW266737  10.972  11.839  14.656
21614SOL     OW66738  14.020   9.455  13.484
21614SOL    HW166739  14.105   9.458  13.442
21614SOL    HW266740  14.038   9.475  13.576
21615SOL     OW66741  10.286  11.964  14.590
21615SOL    HW166742  10.355  12.030  14.596
21615SOL    HW266743  10.333  11.883  14.568
21616SOL     OW66744  12.490   7.700   6.673
21616SOL    HW166745  12.519   7.638   6.741
21616SOL    HW266746  12.487   7.785   6.718
21617SOL     OW66747   1.382  11.759   9.689
21617SOL    HW166748   1.360  11.672   9.721
21617SOL    HW266749   1.329  11.771   9.611
21618SOL     OW66750   9.354   2.319   1.954
21618SOL    HW166751   9.273   2.278   1.982
21618SOL    HW266752   9.347   2.410   1.984
21619SOL     OW66753   3.467  11.460   9.971
21619SOL    HW166754   3.468  11.411   9.889
21619SOL    HW266755   3.392  11.426  10.019
21620SOL     OW66756   8.394   2.487   0.629
21620SOL    HW166757   8.302   2.513   0.630
21620SOL    HW266758   8.398   2.413   0.690
21621SOL     OW66759  11.781   6.220   4.716
21621SOL    HW166760  11.771   6.197   4.623
21621SOL    HW266761  11.793   6.135   4.760
21622SOL     OW66762   1.514  14.805  10.729
21622SOL    HW166763   1.424  14.781  10.708
21622SOL    HW266764   1.506   0.005  10.794
21623SOL     OW66765  12.622   5.237  12.919
21623SOL    HW166766  12.575   5.320  12.928
21623SOL    HW266767  12.710   5.256  12.951
21624SOL     OW66768   0.390   6.767   4.486
21624SOL    HW166769   0.364   6.722   4.405
21624SOL    HW266770   0.467   6.720   4.517
21625SOL     OW66771   5.802   6.027   4.377
21625SOL    HW166772   5.825   5.993   4.290
21625SOL    HW266773   5.885   6.060   4.412
21626SOL     OW66774  14.031   2.029   4.534
21626SOL    HW166775  14.091   2.084   4.584
21626SOL    HW266776  13.966   2.090   4.498
21627SOL     OW66777   2.671  10.659   6.998
21627SOL    HW166778   2.672  10.566   6.977
21627SOL    HW266779   2.763  10.686   6.997
21628SOL     OW66780   3.764   4.262   3.961
21628SOL    HW166781   3.809   4.185   3.995
21628SOL    HW266782   3.760   4.322   4.036
21629SOL     OW66783   3.457  13.779  11.321
21629SOL    HW166784   3.526  13.721  11.286
21629SOL    HW266785   3.378  13.751  11.275
21630SOL     OW66786   0.703  11.653   5.930
21630SOL    HW166787   0.627  11.647   5.988
21630SOL    HW266788   0.743  11.737   5.951
21631SOL     OW66789   8.573   8.946  10.379
21631SOL    HW166790   8.657   8.973  10.416
21631SOL    HW266791   8.596   8.883  10.311
21632SOL     OW66792   6.068  11.324   1.562
21632SOL    HW166793   6.122  11.253   1.597
21632SOL    HW266794   5.979  11.291   1.568
21633SOL     OW66795   3.594   6.648   2.824
21633SOL    HW166796   3.678   6.693   2.831
21633SOL    HW266797   3.558   6.652   2.913
21634SOL     OW66798   0.854   5.715  10.498
21634SOL    HW166799   0.773   5.763  10.483
21634SOL    HW266800   0.873   5.673  10.415
21635SOL     OW66801   9.909   1.677  11.285
21635SOL    HW166802   9.818   1.649  11.293
21635SOL    HW266803   9.913   1.719  11.199
21636SOL     OW66804   6.634   4.663   8.148
21636SOL    HW166805   6.675   4.639   8.231
21636SOL    HW266806   6.549   4.699   8.173
21637SOL     OW66807   3.317  10.983   2.207
21637SOL    HW166808   3.234  10.937   2.215
21637SOL    HW266809   3.301  11.051   2.141
21638SOL     OW66810   0.749   1.067   7.482
21638SOL    HW166811   0.770   0.976   7.461
21638SOL    HW266812   0.703   1.100   7.405
21639SOL     OW66813   5.274   4.253   2.702
21639SOL    HW166814   5.223   4.246   2.621
21639SOL    HW266815   5.365   4.245   2.673
21640SOL     OW66816   9.963   4.130   0.100
21640SOL    HW166817   9.965   4.161   0.190
21640SOL    HW266818   9.873   4.147   0.071
21641SOL     OW66819  10.637   2.869   5.077
21641SOL    HW166820  10.627   2.775   5.062
21641SOL    HW266821  10.566   2.891   5.138
21642SOL     OW66822   5.209   7.368   7.521
21642SOL    HW166823   5.235   7.430   7.453
21642SOL    HW266824   5.116   7.354   7.507
21643SOL     OW66825   3.360   7.030   7.876
21643SOL    HW166826   3.436   7.088   7.879
21643SOL    HW266827   3.284   7.088   7.882
21644SOL     OW66828   6.663   4.649   1.827
21644SOL    HW166829   6.673   4.736   1.787
21644SOL    HW266830   6.734   4.597   1.790
21645SOL     OW66831  10.218  10.733  10.787
21645SOL    HW166832  10.261  10.784  10.718
21645SOL    HW266833  10.167  10.667  10.740
21646SOL     OW66834   8.558  12.192   9.376
21646SOL    HW166835   8.587  12.154   9.293
21646SOL    HW266836   8.576  12.286   9.367
21647SOL     OW66837   1.154  12.643   8.417
21647SOL    HW166838   1.169  12.737   8.403
21647SOL    HW266839   1.235  12.601   8.386
21648SOL     OW66840   5.007   4.354   2.165
21648SOL    HW166841   4.994   4.262   2.187
21648SOL    HW266842   4.929   4.378   2.114
21649SOL     OW66843   2.784   7.437   4.988
21649SOL    HW166844   2.720   7.367   4.996
21649SOL    HW266845   2.735   7.517   5.005
21650SOL     OW66846   9.899   7.919   0.258
21650SOL    HW166847   9.838   7.992   0.267
21650SOL    HW266848   9.857   7.846   0.302
21651SOL     OW66849   2.457  10.004   1.271
21651SOL    HW166850   2.424   9.918   1.298
21651SOL    HW266851   2.379  10.058   1.263
21652SOL     OW66852   2.997   3.662   1.576
21652SOL    HW166853   2.908   3.629   1.587
21652SOL    HW266854   2.988   3.757   1.581
21653SOL     OW66855  14.194   3.946  12.966
21653SOL    HW166856  14.104   3.960  12.995
21653SOL    HW266857  14.215   3.857  12.993
21654SOL     OW66858   6.959   8.253  10.183
21654SOL    HW166859   6.864   8.264  10.189
21654SOL    HW266860   6.987   8.322  10.122
21655SOL     OW66861   0.472  11.779   6.351
21655SOL    HW166862   0.556  11.732   6.352
21655SOL    HW266863   0.492  11.863   6.392
21656SOL     OW66864   0.408   2.063  13.072
21656SOL    HW166865   0.405   2.031  13.162
21656SOL    HW266866   0.337   2.016  13.028
21657SOL     OW66867   1.621   9.252   2.396
21657SOL    HW166868   1.575   9.218   2.473
21657SOL    HW266869   1.713   9.258   2.424
21658SOL     OW66870  10.732   7.309   7.835
21658SOL    HW166871  10.760   7.290   7.745
21658SOL    HW266872  10.691   7.228   7.865
21659SOL     OW66873   3.547   2.299   0.380
21659SOL    HW166874   3.500   2.218   0.399
21659SOL    HW266875   3.639   2.278   0.400
21660SOL     OW66876  13.845   1.571   9.943
21660SOL    HW166877  13.851   1.600  10.034
21660SOL    HW266878  13.932   1.591   9.906
21661SOL     OW66879  11.953  14.396   6.447
21661SOL    HW166880  11.986  14.407   6.536
21661SOL    HW266881  11.861  14.423   6.451
21662SOL     OW66882   1.678   0.654  10.863
21662SOL    HW166883   1.603   0.704  10.897
21662SOL    HW266884   1.647   0.563  10.864
21663SOL     OW66885   8.600   7.639   2.677
21663SOL    HW166886   8.508   7.650   2.653
21663SOL    HW266887   8.597   7.615   2.770
21664SOL     OW66888  12.055  13.913  12.284
21664SOL    HW166889  12.023  13.929  12.195
21664SOL    HW266890  12.084  13.999  12.315
21665SOL     OW66891   3.022   2.429  12.631
21665SOL    HW166892   3.087   2.393  12.692
21665SOL    HW266893   3.073   2.458  12.556
21666SOL     OW66894  10.749   2.435   5.647
21666SOL    HW166895  10.831   2.445   5.600
21666SOL    HW266896  10.768   2.371   5.716
21667SOL     OW66897  10.567  12.050   6.836
21667SOL    HW166898  10.634  12.092   6.890
21667SOL    HW266899  10.542  12.116   6.772
21668SOL     OW66900   1.621  13.580   8.674
21668SOL    HW166901   1.715  13.598   8.678
21668SOL    HW266902   1.582  13.663   8.643
21669SOL     OW66903   7.043   1.690  14.187
21669SOL    HW166904   7.005   1.623  14.244
21669SOL    HW266905   7.125   1.651  14.156
21670SOL     OW66906   2.126  12.428   9.869
21670SOL    HW166907   2.193  12.393   9.811
21670SOL    HW266908   2.148  12.394   9.956
21671SOL     OW66909   7.762   9.199   4.001
21671SOL    HW166910   7.796   9.288   3.996
21671SOL    HW266911   7.710   9.188   3.922
21672SOL     OW66912  14.341   8.977   1.408
21672SOL    HW166913  14.305   9.010   1.326
21672SOL    HW266914  14.345   8.882   1.397
21673SOL     OW66915   0.669  13.920  10.420
21673SOL    HW166916   0.681  13.857  10.349
21673SOL    HW266917   0.736  13.986  10.405
21674SOL     OW66918  12.265   4.082   8.955
21674SOL    HW166919  12.225   4.146   9.013
21674SOL    HW266920  12.226   4.099   8.869
21675SOL     OW66921   5.170   8.298   8.382
21675SOL    HW166922   5.213   8.288   8.467
21675SOL    HW266923   5.153   8.208   8.353
21676SOL     OW66924  10.392   9.121   2.550
21676SOL    HW166925  10.410   9.036   2.508
21676SOL    HW266926  10.372   9.099   2.641
21677SOL     OW66927   0.558  14.317  10.382
21677SOL    HW166928   0.632  14.256  10.378
21677SOL    HW266929   0.565  14.368  10.301
21678SOL     OW66930   1.121   4.499   6.977
21678SOL    HW166931   1.081   4.412   6.983
21678SOL    HW266932   1.046   4.559   6.974
21679SOL     OW66933   5.593   8.567   5.916
21679SOL    HW166934   5.687   8.549   5.923
21679SOL    HW266935   5.554   8.484   5.889
21680SOL     OW66936  11.685   0.086  13.678
21680SOL    HW166937  11.698  14.862  13.694
21680SOL    HW266938  11.631   0.090  13.599
21681SOL     OW66939   7.227  14.252   6.161
21681SOL    HW166940   7.228  14.341   6.127
21681SOL    HW266941   7.203  14.198   6.085
21682SOL     OW66942   4.701   2.706   9.025
21682SOL    HW166943   4.696   2.625   9.077
21682SOL    HW266944   4.611   2.725   9.001
21683SOL     OW66945  14.498   0.470   0.123
21683SOL    HW166946  14.492   0.540   0.188
21683SOL    HW266947  14.576   0.492   0.071
21684SOL     OW66948  13.280  12.749  10.341
21684SOL    HW166949  13.321  12.692  10.277
21684SOL    HW266950  13.218  12.803  10.291
21685SOL     OW66951  13.676   5.299  12.318
21685SOL    HW166952  13.642   5.293  12.407
21685SOL    HW266953  13.740   5.228  12.311
21686SOL     OW66954  11.322  11.116   2.142
21686SOL    HW166955  11.392  11.130   2.078
21686SOL    HW266956  11.270  11.045   2.105
21687SOL     OW66957   4.669   0.795   6.188
21687SOL    HW166958   4.695   0.785   6.096
21687SOL    HW266959   4.577   0.819   6.185
21688SOL     OW66960   1.425   0.796  10.914
21688SOL    HW166961   1.429   0.803  11.010
21688SOL    HW266962   1.379   0.713  10.898
21689SOL     OW66963   1.850   1.257  12.883
21689SOL    HW166964   1.759   1.257  12.912
21689SOL    HW266965   1.889   1.335  12.923
21690SOL     OW66966  11.761  10.074  10.966
21690SOL    HW166967  11.720  10.123  10.895
21690SOL    HW266968  11.816  10.010  10.922
21691SOL     OW66969   2.881  10.304   9.020
21691SOL    HW166970   2.962  10.268   9.055
21691SOL    HW266971   2.852  10.240   8.955
21692SOL     OW66972  10.009   2.294   3.071
21692SOL    HW166973   9.945   2.348   3.118
21692SOL    HW266974   9.993   2.313   2.979
21693SOL     OW66975   3.151   1.386   1.865
21693SOL    HW166976   3.075   1.435   1.895
21693SOL    HW266977   3.156   1.311   1.924
21694SOL     OW66978   7.058  14.751   7.839
21694SOL    HW166979   7.078  14.840   7.810
21694SOL    HW266980   7.118  14.735   7.911
21695SOL     OW66981   7.516   6.440   5.101
21695SOL    HW166982   7.525   6.394   5.018
21695SOL    HW266983   7.519   6.372   5.167
21696SOL     OW66984   1.947  13.066   3.518
21696SOL    HW166985   1.917  13.020   3.596
21696SOL    HW266986   2.041  13.047   3.513
21697SOL     OW66987   0.120   4.643   3.368
21697SOL    HW166988   0.059   4.702   3.326
21697SOL    HW266989   0.066   4.586   3.422
21698SOL     OW66990   8.647   8.230   3.008
21698SOL    HW166991   8.619   8.276   3.087
21698SOL    HW266992   8.736   8.260   2.992
21699SOL     OW66993  14.491   8.717   7.763
21699SOL    HW166994  14.434   8.681   7.695
21699SOL    HW266995  14.433   8.767   7.820
21700SOL     OW66996  11.111   3.012   7.111
21700SOL    HW166997  11.016   3.004   7.105
21700SOL    HW266998  11.132   2.980   7.198
21701SOL     OW66999   4.117   2.611   3.795
21701SOL    HW167000   4.114   2.664   3.875
21701SOL    HW267001   4.180   2.657   3.740
21702SOL     OW67002  12.100   4.901   1.811
21702SOL    HW167003  12.123   4.955   1.736
21702SOL    HW267004  12.067   4.819   1.772
21703SOL     OW67005   1.395  13.593   9.406
21703SOL    HW167006   1.340  13.619   9.480
21703SOL    HW267007   1.483  13.589   9.442
21704SOL     OW67008   7.569   9.043  11.367
21704SOL    HW167009   7.555   9.011  11.278
21704SOL    HW267010   7.530   8.975  11.423
21705SOL     OW67011  11.497   7.623  13.513
21705SOL    HW167012  11.511   7.603  13.606
21705SOL    HW267013  11.422   7.570  13.488
21706SOL     OW67014   5.420   7.891  14.333
21706SOL    HW167015   5.380   7.919  14.250
21706SOL    HW267016   5.479   7.819  14.307
21707SOL     OW67017   5.176   9.741  10.985
21707SOL    HW167018   5.177   9.713  11.077
21707SOL    HW267019   5.230   9.820  10.984
21708SOL     OW67020   4.784   8.583   0.264
21708SOL    HW167021   4.791   8.630   0.347
21708SOL    HW267022   4.706   8.619   0.222
21709SOL     OW67023   7.999   9.106   7.001
21709SOL    HW167024   7.918   9.153   7.020
21709SOL    HW267025   8.036   9.087   7.087
21710SOL     OW67026   1.827  12.347   1.772
21710SOL    HW167027   1.804  12.355   1.864
21710SOL    HW267028   1.835  12.252   1.757
21711SOL     OW67029   7.202   6.996   3.731
21711SOL    HW167030   7.220   6.930   3.797
21711SOL    HW267031   7.250   7.073   3.761
21712SOL     OW67032  10.563   6.631  13.521
21712SOL    HW167033  10.474   6.658  13.497
21712SOL    HW267034  10.599   6.594  13.440
21713SOL     OW67035   8.120   8.019   1.631
21713SOL    HW167036   8.118   7.942   1.687
21713SOL    HW267037   8.043   8.070   1.657
21714SOL     OW67038   8.074   6.957   6.184
21714SOL    HW167039   8.037   6.869   6.196
21714SOL    HW267040   8.169   6.942   6.185
21715SOL     OW67041  11.657   2.414  10.884
21715SOL    HW167042  11.595   2.477  10.920
21715SOL    HW267043  11.603   2.341  10.854
21716SOL     OW67044  13.337   6.567  14.846
21716SOL    HW167045  13.416   6.613   0.004
21716SOL    HW267046  13.275   6.579   0.048
21717SOL     OW67047  14.184   4.277   2.287
21717SOL    HW167048  14.175   4.336   2.212
21717SOL    HW267049  14.113   4.302   2.346
21718SOL     OW67050  13.451  10.909   5.261
21718SOL    HW167051  13.359  10.907   5.236
21718SOL    HW267052  13.449  10.924   5.356
21719SOL     OW67053  13.255   1.727   7.844
21719SOL    HW167054  13.239   1.785   7.769
21719SOL    HW267055  13.285   1.645   7.805
21720SOL     OW67056   7.052   1.448  11.102
21720SOL    HW167057   7.009   1.523  11.060
21720SOL    HW267058   7.025   1.454  11.194
21721SOL     OW67059   9.086  12.810  10.831
21721SOL    HW167060   9.152  12.779  10.768
21721SOL    HW267061   9.003  12.800  10.784
21722SOL     OW67062   6.977  12.869  14.029
21722SOL    HW167063   7.057  12.844  14.075
21722SOL    HW267064   7.004  12.937  13.968
21723SOL     OW67065   1.870  11.162   8.287
21723SOL    HW167066   1.902  11.241   8.330
21723SOL    HW267067   1.811  11.121   8.350
21724SOL     OW67068  11.302   8.448   8.536
21724SOL    HW167069  11.369   8.384   8.515
21724SOL    HW267070  11.288   8.497   8.455
21725SOL     OW67071   2.490  14.082   9.900
21725SOL    HW167072   2.569  14.035   9.874
21725SOL    HW267073   2.425  14.057   9.834
21726SOL     OW67074   8.740   9.467   6.611
21726SOL    HW167075   8.729   9.381   6.651
21726SOL    HW267076   8.735   9.528   6.684
21727SOL     OW67077  10.329   3.508   6.979
21727SOL    HW167078  10.258   3.537   7.037
21727SOL    HW267079  10.387   3.584   6.973
21728SOL     OW67080  12.460   4.300   6.186
21728SOL    HW167081  12.488   4.226   6.240
21728SOL    HW267082  12.508   4.375   6.222
21729SOL     OW67083   2.265   0.057  13.732
21729SOL    HW167084   2.258   0.126  13.799
21729SOL    HW267085   2.194   0.077  13.671
21730SOL     OW67086   6.869  13.210  13.542
21730SOL    HW167087   6.896  13.174  13.458
21730SOL    HW267088   6.948  13.251  13.578
21731SOL     OW67089   5.705   7.391   8.237
21731SOL    HW167090   5.753   7.356   8.312
21731SOL    HW267091   5.614   7.395   8.266
21732SOL     OW67092  10.249   9.172   9.005
21732SOL    HW167093  10.297   9.251   9.032
21732SOL    HW267094  10.225   9.130   9.088
21733SOL     OW67095   6.513  12.487   7.974
21733SOL    HW167096   6.428  12.442   7.975
21733SOL    HW267097   6.500  12.561   7.914
21734SOL     OW67098   3.579  13.808   8.561
21734SOL    HW167099   3.585  13.718   8.528
21734SOL    HW267100   3.531  13.801   8.643
21735SOL     OW67101   2.651   1.087  11.823
21735SOL    HW167102   2.741   1.056  11.819
21735SOL    HW267103   2.642   1.125  11.911
21736SOL     OW67104   0.813   3.395   3.760
21736SOL    HW167105   0.752   3.387   3.834
21736SOL    HW267106   0.859   3.311   3.757
21737SOL     OW67107   0.735   4.268  12.417
21737SOL    HW167108   0.758   4.321  12.493
21737SOL    HW267109   0.808   4.206  12.407
21738SOL     OW67110   1.685   8.014  12.399
21738SOL    HW167111   1.692   7.925  12.434
21738SOL    HW267112   1.770   8.053  12.416
21739SOL     OW67113  12.384   1.596   3.884
21739SOL    HW167114  12.401   1.689   3.896
21739SOL    HW267115  12.345   1.589   3.797
21740SOL     OW67116   1.653   3.921  11.710
21740SOL    HW167117   1.570   3.903  11.754
21740SOL    HW267118   1.691   3.835  11.695
21741SOL     OW67119  14.572   4.127   3.157
21741SOL    HW167120  14.608   4.175   3.083
21741SOL    HW267121  14.594   4.179   3.234
21742SOL     OW67122   4.984  10.674   9.459
21742SOL    HW167123   4.938  10.719   9.531
21742SOL    HW267124   4.915  10.625   9.414
21743SOL     OW67125   3.372   8.740  14.427
21743SOL    HW167126   3.403   8.709  14.512
21743SOL    HW267127   3.386   8.835  14.430
21744SOL     OW67128   3.716   0.774   6.290
21744SOL    HW167129   3.632   0.748   6.252
21744SOL    HW267130   3.727   0.717   6.366
21745SOL     OW67131   9.696   1.103   0.770
21745SOL    HW167132   9.645   1.058   0.838
21745SOL    HW267133   9.780   1.122   0.812
21746SOL     OW67134  11.311   9.005  12.692
21746SOL    HW167135  11.303   9.100  12.690
21746SOL    HW267136  11.398   8.989  12.728
21747SOL     OW67137   5.844   1.040  10.746
21747SOL    HW167138   5.890   0.971  10.699
21747SOL    HW267139   5.808   1.096  10.677
21748SOL     OW67140  11.542  13.363   2.921
21748SOL    HW167141  11.558  13.304   2.848
21748SOL    HW267142  11.454  13.341   2.951
21749SOL     OW67143   0.775   5.245   9.891
21749SOL    HW167144   0.815   5.168   9.851
21749SOL    HW267145   0.751   5.301   9.817
21750SOL     OW67146   5.460   1.335   6.379
21750SOL    HW167147   5.549   1.348   6.345
21750SOL    HW267148   5.454   1.241   6.396
21751SOL     OW67149   5.910   9.540   6.650
21751SOL    HW167150   5.842   9.473   6.650
21751SOL    HW267151   5.863   9.622   6.668
21752SOL     OW67152   0.043   9.576  10.710
21752SOL    HW167153  14.842   9.518  10.682
21752SOL    HW267154  14.869   9.639  10.768
21753SOL     OW67155   1.198   5.918   0.205
21753SOL    HW167156   1.263   5.934   0.136
21753SOL    HW267157   1.133   5.861   0.163
21754SOL     OW67158  11.300  14.596   1.700
21754SOL    HW167159  11.304  14.503   1.678
21754SOL    HW267160  11.376  14.634   1.657
21755SOL     OW67161  13.875  13.407   9.233
21755SOL    HW167162  13.945  13.348   9.204
21755SOL    HW267163  13.892  13.489   9.187
21756SOL     OW67164  13.594  12.857  13.840
21756SOL    HW167165  13.621  12.948  13.848
21756SOL    HW267166  13.562  12.833  13.927
21757SOL     OW67167   7.186   4.203   3.526
21757SOL    HW167168   7.181   4.147   3.603
21757SOL    HW267169   7.275   4.238   3.526
21758SOL     OW67170   4.173   0.369   8.301
21758SOL    HW167171   4.202   0.417   8.379
21758SOL    HW267172   4.082   0.397   8.288
21759SOL     OW67173  12.576   1.825   6.393
21759SOL    HW167174  12.488   1.799   6.421
21759SOL    HW267175  12.621   1.851   6.473
21760SOL     OW67176   6.712   0.174   3.795
21760SOL    HW167177   6.687   0.156   3.886
21760SOL    HW267178   6.646   0.236   3.764
21761SOL     OW67179   9.001   9.277   8.482
21761SOL    HW167180   9.011   9.279   8.387
21761SOL    HW267181   9.058   9.205   8.510
21762SOL     OW67182  11.884   7.226   9.692
21762SOL    HW167183  11.892   7.181   9.776
21762SOL    HW267184  11.927   7.168   9.629
21763SOL     OW67185   4.912   2.752   2.196
21763SOL    HW167186   4.915   2.839   2.235
21763SOL    HW267187   4.842   2.706   2.243
21764SOL     OW67188   5.354   6.720   2.191
21764SOL    HW167189   5.387   6.744   2.105
21764SOL    HW267190   5.407   6.645   2.218
21765SOL     OW67191   1.530   3.321   1.737
21765SOL    HW167192   1.527   3.380   1.662
21765SOL    HW267193   1.445   3.329   1.778
21766SOL     OW67194   1.395   3.274   6.882
21766SOL    HW167195   1.428   3.345   6.938
21766SOL    HW267196   1.303   3.264   6.908
21767SOL     OW67197   8.607   0.646   2.181
21767SOL    HW167198   8.602   0.741   2.191
21767SOL    HW267199   8.608   0.632   2.086
21768SOL     OW67200   8.247   0.496   4.015
21768SOL    HW167201   8.277   0.408   3.996
21768SOL    HW267202   8.215   0.530   3.932
21769SOL     OW67203   2.351  12.280  13.848
21769SOL    HW167204   2.373  12.331  13.770
21769SOL    HW267205   2.314  12.199  13.814
21770SOL     OW67206  12.953   2.904   4.525
21770SOL    HW167207  12.966   2.997   4.547
21770SOL    HW267208  13.034   2.861   4.553
21771SOL     OW67209  11.267  10.678  14.436
21771SOL    HW167210  11.180  10.646  14.413
21771SOL    HW267211  11.327  10.623  14.386
21772SOL     OW67212   7.727   1.179   9.163
21772SOL    HW167213   7.728   1.093   9.121
21772SOL    HW267214   7.749   1.240   9.094
21773SOL     OW67215   3.896   5.621   7.439
21773SOL    HW167216   3.831   5.565   7.397
21773SOL    HW267217   3.980   5.581   7.416
21774SOL     OW67218   8.961  12.709   2.258
21774SOL    HW167219   8.960  12.774   2.188
21774SOL    HW267220   8.936  12.627   2.216
21775SOL     OW67221   5.003  11.014   7.315
21775SOL    HW167222   5.092  11.037   7.342
21775SOL    HW267223   5.007  11.011   7.220
21776SOL     OW67224   8.708  12.113  12.144
21776SOL    HW167225   8.619  12.121  12.177
21776SOL    HW267226   8.700  12.130  12.050
21777SOL     OW67227  13.036   3.533  11.001
21777SOL    HW167228  13.037   3.597  10.929
21777SOL    HW267229  12.945   3.534  11.031
21778SOL     OW67230   2.257   2.938   2.789
21778SOL    HW167231   2.302   3.000   2.846
21778SOL    HW267232   2.301   2.947   2.705
21779SOL     OW67233   2.054  13.297   1.165
21779SOL    HW167234   2.095  13.357   1.228
21779SOL    HW267235   1.972  13.272   1.207
21780SOL     OW67236   1.921  10.483   2.628
21780SOL    HW167237   1.984  10.544   2.665
21780SOL    HW267238   1.849  10.479   2.691
21781SOL     OW67239   8.074   6.427  10.249
21781SOL    HW167240   8.098   6.384  10.167
21781SOL    HW267241   8.102   6.366  10.317
21782SOL     OW67242   9.800  14.175  10.312
21782SOL    HW167243   9.810  14.217  10.397
21782SOL    HW267244   9.756  14.092  10.332
21783SOL     OW67245   0.304   3.661   8.917
21783SOL    HW167246   0.361   3.591   8.949
21783SOL    HW267247   0.363   3.719   8.869
21784SOL     OW67248   4.476   5.538  10.514
21784SOL    HW167249   4.430   5.475  10.458
21784SOL    HW267250   4.500   5.488  10.592
21785SOL     OW67251   7.392   4.637   5.238
21785SOL    HW167252   7.410   4.715   5.289
21785SOL    HW267253   7.471   4.583   5.246
21786SOL     OW67254   7.298   7.831   2.975
21786SOL    HW167255   7.274   7.840   3.067
21786SOL    HW267256   7.237   7.888   2.928
21787SOL     OW67257  14.508  13.749   6.653
21787SOL    HW167258  14.595  13.777   6.624
21787SOL    HW267259  14.499  13.659   6.621
21788SOL     OW67260   8.017   0.263   8.790
21788SOL    HW167261   8.052   0.221   8.868
21788SOL    HW267262   8.001   0.191   8.728
21789SOL     OW67263   1.058  14.797   6.352
21789SOL    HW167264   1.057  14.751   6.436
21789SOL    HW267265   0.998  14.748   6.296
21790SOL     OW67266   0.004   7.974   6.897
21790SOL    HW167267  14.867   8.066   6.922
21790SOL    HW267268   0.071   7.972   6.828
21791SOL     OW67269   7.564   4.063   1.908
21791SOL    HW167270   7.621   4.084   1.981
21791SOL    HW267271   7.620   4.073   1.830
21792SOL     OW67272   0.673  11.115   5.584
21792SOL    HW167273   0.748  11.124   5.525
21792SOL    HW267274   0.656  11.020   5.587
21793SOL     OW67275   1.904   1.057   4.841
21793SOL    HW167276   1.862   1.037   4.925
21793SOL    HW267277   1.881   0.984   4.784
21794SOL     OW67278   3.203   4.065   6.916
21794SOL    HW167279   3.177   4.151   6.882
21794SOL    HW267280   3.293   4.053   6.883
21795SOL     OW67281  13.290  10.430   8.481
21795SOL    HW167282  13.328  10.458   8.398
21795SOL    HW267283  13.236  10.504   8.508
21796SOL     OW67284   4.843   1.115   0.765
21796SOL    HW167285   4.934   1.086   0.771
21796SOL    HW267286   4.812   1.116   0.856
21797SOL     OW67287  12.319   5.493  12.565
21797SOL    HW167288  12.347   5.404  12.585
21797SOL    HW267289  12.275   5.523  12.644
21798SOL     OW67290  10.653   4.165   1.997
21798SOL    HW167291  10.568   4.201   2.023
21798SOL    HW267292  10.660   4.187   1.904
21799SOL     OW67293   3.462  14.239   4.625
21799SOL    HW167294   3.427  14.316   4.581
21799SOL    HW267295   3.548  14.225   4.584
21800SOL     OW67296   8.558   7.652   6.179
21800SOL    HW167297   8.589   7.577   6.229
21800SOL    HW267298   8.630   7.673   6.121
21801SOL     OW67299  10.119   9.873   8.946
21801SOL    HW167300  10.044   9.817   8.968
21801SOL    HW267301  10.102   9.955   8.993
21802SOL     OW67302   2.351   5.718   7.130
21802SOL    HW167303   2.321   5.767   7.054
21802SOL    HW267304   2.342   5.779   7.204
21803SOL     OW67305   4.792   6.757   4.511
21803SOL    HW167306   4.712   6.715   4.541
21803SOL    HW267307   4.832   6.693   4.453
21804SOL     OW67308   8.413   0.713   4.792
21804SOL    HW167309   8.444   0.798   4.762
21804SOL    HW267310   8.321   0.726   4.812
21805SOL     OW67311   4.073   3.240  14.442
21805SOL    HW167312   4.157   3.271  14.476
21805SOL    HW267313   4.085   3.145  14.433
21806SOL     OW67314   8.905  10.927  13.914
21806SOL    HW167315   8.913  10.837  13.945
21806SOL    HW267316   8.885  10.978  13.992
21807SOL     OW67317   3.316   5.553  11.111
21807SOL    HW167318   3.278   5.510  11.187
21807SOL    HW267319   3.354   5.482  11.059
21808SOL     OW67320   1.295   8.596  12.682
21808SOL    HW167321   1.289   8.640  12.767
21808SOL    HW267322   1.207   8.601  12.646
21809SOL     OW67323   4.646   1.998   8.359
21809SOL    HW167324   4.687   2.045   8.432
21809SOL    HW267325   4.552   2.008   8.375
21810SOL     OW67326   4.060  13.165   2.628
21810SOL    HW167327   4.079  13.258   2.615
21810SOL    HW267328   3.966  13.161   2.644
21811SOL     OW67329  14.085   9.712   9.345
21811SOL    HW167330  14.158   9.687   9.289
21811SOL    HW267331  14.007   9.685   9.296
21812SOL     OW67332   6.148   7.870   4.931
21812SOL    HW167333   6.056   7.895   4.939
21812SOL    HW267334   6.195   7.940   4.975
21813SOL     OW67335   7.067  11.666  10.962
21813SOL    HW167336   7.022  11.731  11.016
21813SOL    HW267337   7.104  11.717  10.890
21814SOL     OW67338  10.739   1.065  13.482
21814SOL    HW167339  10.816   1.050  13.428
21814SOL    HW267340  10.671   1.091  13.420
21815SOL     OW67341   2.534   0.523   4.316
21815SOL    HW167342   2.583   0.592   4.271
21815SOL    HW267343   2.458   0.568   4.353
21816SOL     OW67344   4.520   1.117  12.500
21816SOL    HW167345   4.513   1.069  12.583
21816SOL    HW267346   4.516   1.209  12.526
21817SOL     OW67347  12.050   0.067  11.520
21817SOL    HW167348  12.075  14.844  11.522
21817SOL    HW267349  12.119   0.109  11.469
21818SOL     OW67350   7.622   2.426   9.624
21818SOL    HW167351   7.635   2.496   9.689
21818SOL    HW267352   7.527   2.417   9.617
21819SOL     OW67353   2.295  11.729   3.212
21819SOL    HW167354   2.252  11.658   3.164
21819SOL    HW267355   2.226  11.768   3.265
21820SOL     OW67356   1.477   5.297  13.728
21820SOL    HW167357   1.522   5.224  13.771
21820SOL    HW267358   1.539   5.326  13.662
21821SOL     OW67359   6.432   0.926   8.307
21821SOL    HW167360   6.339   0.944   8.297
21821SOL    HW267361   6.471   0.954   8.224
21822SOL     OW67362   4.997  12.089  13.598
21822SOL    HW167363   5.009  12.034  13.676
21822SOL    HW267364   5.002  12.027  13.524
21823SOL     OW67365   8.264  14.041  12.392
21823SOL    HW167366   8.339  14.092  12.423
21823SOL    HW267367   8.272  14.042  12.296
21824SOL     OW67368  14.001   4.356   2.472
21824SOL    HW167369  13.917   4.314   2.452
21824SOL    HW267370  13.978   4.431   2.526
21825SOL     OW67371  14.739   2.481   7.939
21825SOL    HW167372  14.809   2.433   7.896
21825SOL    HW267373  14.759   2.573   7.922
21826SOL     OW67374   6.585  12.322   0.859
21826SOL    HW167375   6.514  12.288   0.804
21826SOL    HW267376   6.551  12.404   0.894
21827SOL     OW67377   4.924  13.925   1.383
21827SOL    HW167378   4.903  13.921   1.290
21827SOL    HW267379   4.839  13.933   1.427
21828SOL     OW67380   0.635  13.423  12.462
21828SOL    HW167381   0.574  13.416  12.389
21828SOL    HW267382   0.717  13.454  12.423
21829SOL     OW67383  13.690   1.845   0.502
21829SOL    HW167384  13.674   1.756   0.533
21829SOL    HW267385  13.703   1.896   0.582
21830SOL     OW67386  12.502   8.096  10.988
21830SOL    HW167387  12.467   8.149  10.916
21830SOL    HW267388  12.437   8.026  10.999
21831SOL     OW67389   0.558   6.081   2.256
21831SOL    HW167390   0.579   5.994   2.223
21831SOL    HW267391   0.475   6.069   2.304
21832SOL     OW67392   9.941   2.732   0.911
21832SOL    HW167393   9.923   2.813   0.863
21832SOL    HW267394   9.858   2.684   0.910
21833SOL     OW67395  11.497   1.715   2.431
21833SOL    HW167396  11.404   1.739   2.431
21833SOL    HW267397  11.534   1.761   2.355
21834SOL     OW67398   1.080   9.998  12.209
21834SOL    HW167399   1.050   9.929  12.150
21834SOL    HW267400   1.007  10.059  12.213
21835SOL     OW67401  13.578   9.550   4.095
21835SOL    HW167402  13.512   9.501   4.047
21835SOL    HW267403  13.635   9.483   4.134
21836SOL     OW67404   2.809   7.014   1.479
21836SOL    HW167405   2.770   7.101   1.480
21836SOL    HW267406   2.795   6.982   1.389
21837SOL     OW67407  13.697   5.182   9.476
21837SOL    HW167408  13.698   5.087   9.478
21837SOL    HW267409  13.733   5.209   9.560
21838SOL     OW67410   4.814  10.209   7.632
21838SOL    HW167411   4.898  10.165   7.641
21838SOL    HW267412   4.825  10.291   7.681
21839SOL     OW67413   7.610  13.771  12.159
21839SOL    HW167414   7.629  13.812  12.243
21839SOL    HW267415   7.583  13.682  12.181
21840SOL     OW67416   1.806   8.098   3.506
21840SOL    HW167417   1.747   8.111   3.580
21840SOL    HW267418   1.767   8.025   3.457
21841SOL     OW67419  12.377   4.004   1.038
21841SOL    HW167420  12.461   4.024   1.081
21841SOL    HW267421  12.387   4.035   0.948
21842SOL     OW67422   9.185  11.832  10.950
21842SOL    HW167423   9.188  11.906  11.011
21842SOL    HW267424   9.243  11.766  10.989
21843SOL     OW67425   8.110  10.675   6.101
21843SOL    HW167426   8.158  10.731   6.162
21843SOL    HW267427   8.020  10.706   6.105
21844SOL     OW67428   3.193   4.641  13.615
21844SOL    HW167429   3.227   4.688  13.691
21844SOL    HW267430   3.127   4.582  13.650
21845SOL     OW67431  10.575   7.080   1.122
21845SOL    HW167432  10.632   7.104   1.049
21845SOL    HW267433  10.630   7.087   1.200
21846SOL     OW67434  10.961  13.936   2.920
21846SOL    HW167435  10.974  13.955   2.827
21846SOL    HW267436  11.048  13.939   2.958
21847SOL     OW67437  14.250  11.504   9.321
21847SOL    HW167438  14.231  11.499   9.228
21847SOL    HW267439  14.170  11.538   9.361
21848SOL     OW67440   1.031   4.322   3.109
21848SOL    HW167441   0.942   4.339   3.080
21848SOL    HW267442   1.051   4.235   3.075
21849SOL     OW67443  11.666   8.800   8.866
21849SOL    HW167444  11.657   8.871   8.930
21849SOL    HW267445  11.610   8.730   8.901
21850SOL     OW67446   4.668   5.262   9.683
21850SOL    HW167447   4.732   5.331   9.697
21850SOL    HW267448   4.718   5.189   9.645
21851SOL     OW67449  10.217   3.439  14.037
21851SOL    HW167450  10.189   3.359  13.994
21851SOL    HW267451  10.136   3.488  14.052
21852SOL     OW67452  14.733   4.053  11.650
21852SOL    HW167453  14.685   3.981  11.610
21852SOL    HW267454  14.736   4.031  11.744
21853SOL     OW67455   1.361   1.798   7.662
21853SOL    HW167456   1.325   1.886   7.655
21853SOL    HW267457   1.300   1.751   7.719
21854SOL     OW67458   8.983  12.800   8.208
21854SOL    HW167459   9.052  12.794   8.275
21854SOL    HW267460   8.913  12.742   8.240
21855SOL     OW67461   9.897   0.545   1.091
21855SOL    HW167462   9.833   0.477   1.070
21855SOL    HW267463   9.861   0.588   1.168
21856SOL     OW67464   0.861   8.759  10.831
21856SOL    HW167465   0.947   8.800  10.830
21856SOL    HW267466   0.847   8.733  10.922
21857SOL     OW67467  13.833   5.571   9.350
21857SOL    HW167468  13.862   5.529   9.431
21857SOL    HW267469  13.853   5.663   9.362
21858SOL     OW67470   1.107   3.831  13.812
21858SOL    HW167471   1.126   3.737  13.818
21858SOL    HW267472   1.158   3.870  13.882
21859SOL     OW67473   0.874   0.300  10.072
21859SOL    HW167474   0.791   0.342  10.051
21859SOL    HW267475   0.876   0.296  10.168
21860SOL     OW67476   5.677  10.945   7.994
21860SOL    HW167477   5.632  10.881   7.940
21860SOL    HW267478   5.769  10.939   7.967
21861SOL     OW67479   2.124  11.697   8.295
21861SOL    HW167480   2.061  11.724   8.362
21861SOL    HW267481   2.142  11.777   8.245
21862SOL     OW67482   4.520  11.389   3.275
21862SOL    HW167483   4.431  11.425   3.268
21862SOL    HW267484   4.577  11.466   3.271
21863SOL     OW67485  13.517   4.965   0.422
21863SOL    HW167486  13.606   4.958   0.456
21863SOL    HW267487  13.483   4.876   0.423
21864SOL     OW67488   8.345  13.316  14.235
21864SOL    HW167489   8.295  13.376  14.181
21864SOL    HW267490   8.279  13.270  14.288
21865SOL     OW67491   2.974   0.203   9.700
21865SOL    HW167492   3.031   0.212   9.777
21865SOL    HW267493   3.020   0.142   9.643
21866SOL     OW67494   7.017   7.625  13.351
21866SOL    HW167495   6.983   7.554  13.406
21866SOL    HW267496   7.094   7.657  13.399
21867SOL     OW67497   6.283   3.143  10.049
21867SOL    HW167498   6.348   3.142   9.978
21867SOL    HW267499   6.306   3.067  10.103
21868SOL     OW67500   3.586   0.233  10.115
21868SOL    HW167501   3.521   0.162  10.122
21868SOL    HW267502   3.612   0.232  10.023
21869SOL     OW67503  14.382  10.759   4.677
21869SOL    HW167504  14.413  10.850   4.672
21869SOL    HW267505  14.394  10.735   4.769
21870SOL     OW67506  11.133   6.298  12.398
21870SOL    HW167507  11.093   6.345  12.325
21870SOL    HW267508  11.097   6.209  12.392
21871SOL     OW67509   9.410  12.921   0.785
21871SOL    HW167510   9.463  12.842   0.788
21871SOL    HW267511   9.342  12.903   0.720
21872SOL     OW67512  14.599   0.345  14.660
21872SOL    HW167513  14.652   0.395  14.722
21872SOL    HW267514  14.628   0.254  14.672
21873SOL     OW67515  10.045  12.331   3.933
21873SOL    HW167516  10.043  12.396   3.862
21873SOL    HW267517  10.124  12.281   3.917
21874SOL     OW67518   8.018  12.671   7.993
21874SOL    HW167519   8.016  12.741   7.928
21874SOL    HW267520   7.926  12.657   8.015
21875SOL     OW67521   2.652   7.272  14.715
21875SOL    HW167522   2.735   7.224  14.719
21875SOL    HW267523   2.670   7.354  14.762
21876SOL     OW67524  13.696   0.245   9.460
21876SOL    HW167525  13.746   0.185   9.404
21876SOL    HW267526  13.763   0.295   9.507
21877SOL     OW67527   4.243   6.149   3.247
21877SOL    HW167528   4.269   6.109   3.164
21877SOL    HW267529   4.160   6.192   3.227
21878SOL     OW67530   6.764  10.245   7.582
21878SOL    HW167531   6.730  10.214   7.666
21878SOL    HW267532   6.709  10.320   7.560
21879SOL     OW67533   1.776  10.048   0.185
21879SOL    HW167534   1.867  10.047   0.155
21879SOL    HW267535   1.731   9.987   0.126
21880SOL     OW67536  14.013   9.910   1.060
21880SOL    HW167537  14.002   9.899   1.155
21880SOL    HW267538  13.986  10.000   1.043
21881SOL     OW67539  10.946  13.056   2.565
21881SOL    HW167540  10.882  13.020   2.503
21881SOL    HW267541  10.907  13.138   2.594
21882SOL     OW67542   6.006   0.884   2.071
21882SOL    HW167543   5.973   0.969   2.041
21882SOL    HW267544   5.928   0.833   2.092
21883SOL     OW67545   2.495   2.850   7.437
21883SOL    HW167546   2.436   2.926   7.435
21883SOL    HW267547   2.439   2.776   7.413
21884SOL     OW67548  11.863   6.418  13.004
21884SOL    HW167549  11.940   6.447  13.053
21884SOL    HW267550  11.893   6.412  12.913
21885SOL     OW67551   4.526   7.926   3.833
21885SOL    HW167552   4.607   7.967   3.865
21885SOL    HW267553   4.524   7.948   3.740
21886SOL     OW67554   4.567  11.771   0.821
21886SOL    HW167555   4.566  11.805   0.911
21886SOL    HW267556   4.550  11.677   0.831
21887SOL     OW67557  13.199  13.079  13.764
21887SOL    HW167558  13.124  13.089  13.824
21887SOL    HW267559  13.215  12.984  13.762
21888SOL     OW67560  12.017   2.007  12.691
21888SOL    HW167561  11.980   1.919  12.700
21888SOL    HW267562  12.084   1.998  12.622
21889SOL     OW67563  11.398  14.075   6.787
21889SOL    HW167564  11.375  14.137   6.717
21889SOL    HW267565  11.367  13.990   6.754
21890SOL     OW67566  13.985  11.828  13.964
21890SOL    HW167567  13.980  11.885  14.040
21890SOL    HW267568  14.054  11.866  13.909
21891SOL     OW67569  11.435   2.727   7.084
21891SOL    HW167570  11.397   2.813   7.069
21891SOL    HW267571  11.529   2.743   7.090
21892SOL     OW67572  11.512   0.039  14.180
21892SOL    HW167573  11.444   0.103  14.160
21892SOL    HW267574  11.492  14.834  14.123
21893SOL     OW67575   3.445   7.573   5.914
21893SOL    HW167576   3.433   7.519   5.992
21893SOL    HW267577   3.393   7.529   5.847
21894SOL     OW67578  14.729   1.115  13.170
21894SOL    HW167579  14.810   1.130  13.218
21894SOL    HW267580  14.670   1.185  13.198
21895SOL     OW67581  13.328   3.123  11.069
21895SOL    HW167582  13.242   3.081  11.069
21895SOL    HW267583  13.316   3.202  11.015
21896SOL     OW67584   7.488  11.330   9.480
21896SOL    HW167585   7.397  11.303   9.487
21896SOL    HW267586   7.535  11.251   9.455
21897SOL     OW67587   3.672   1.917  14.189
21897SOL    HW167588   3.757   1.894  14.228
21897SOL    HW267589   3.694   1.959  14.107
21898SOL     OW67590  12.145   4.022   2.820
21898SOL    HW167591  12.214   4.039   2.885
21898SOL    HW267592  12.083   4.094   2.831
21899SOL     OW67593   0.042   2.346   5.425
21899SOL    HW167594  14.822   2.359   5.393
21899SOL    HW267595   0.033   2.335   5.519
21900SOL     OW67596   6.694   8.393  10.281
21900SOL    HW167597   6.742   8.357  10.356
21900SOL    HW267598   6.656   8.316  10.239
21901SOL     OW67599   9.250   8.542   3.287
21901SOL    HW167600   9.273   8.578   3.201
21901SOL    HW267601   9.333   8.518   3.327
21902SOL     OW67602   2.627   4.723   7.429
21902SOL    HW167603   2.722   4.720   7.422
21902SOL    HW267604   2.611   4.760   7.516
21903SOL     OW67605  12.666   4.836  12.342
21903SOL    HW167606  12.682   4.778  12.416
21903SOL    HW267607  12.601   4.790  12.290
21904SOL     OW67608   2.641   5.231  11.949
21904SOL    HW167609   2.732   5.225  11.978
21904SOL    HW267610   2.646   5.235  11.853
21905SOL     OW67611   2.221   3.277  10.145
21905SOL    HW167612   2.258   3.354  10.101
21905SOL    HW267613   2.162   3.239  10.080
21906SOL     OW67614   0.602   8.364  11.392
21906SOL    HW167615   0.569   8.336  11.306
21906SOL    HW267616   0.586   8.289  11.449
21907SOL     OW67617   8.097   7.105  11.774
21907SOL    HW167618   8.181   7.141  11.746
21907SOL    HW267619   8.067   7.055  11.698
21908SOL     OW67620   6.652   1.486   9.172
21908SOL    HW167621   6.624   1.440   9.094
21908SOL    HW267622   6.599   1.449   9.243
21909SOL     OW67623   2.098   7.879  10.731
21909SOL    HW167624   2.143   7.814  10.677
21909SOL    HW267625   2.091   7.956  10.675
21910SOL     OW67626   3.451  14.598  13.521
21910SOL    HW167627   3.521  14.595  13.455
21910SOL    HW267628   3.435  14.506  13.543
21911SOL     OW67629   4.262  13.926   3.800
21911SOL    HW167630   4.343  13.938   3.849
21911SOL    HW267631   4.227  13.843   3.830
21912SOL     OW67632   4.196   0.164   0.340
21912SOL    HW167633   4.189   0.208   0.425
21912SOL    HW267634   4.269   0.209   0.297
21913SOL     OW67635  11.954   8.810   4.618
21913SOL    HW167636  11.958   8.750   4.544
21913SOL    HW267637  11.867   8.796   4.656
21914SOL     OW67638   0.762   8.976   1.166
21914SOL    HW167639   0.778   9.063   1.129
21914SOL    HW267640   0.708   8.932   1.100
21915SOL     OW67641   7.504   7.437  12.290
21915SOL    HW167642   7.422   7.477  12.319
21915SOL    HW267643   7.536   7.494  12.221
21916SOL     OW67644   2.905   0.185   5.902
21916SOL    HW167645   2.958   0.159   5.977
21916SOL    HW267646   2.969   0.209   5.835
21917SOL     OW67647   4.002   8.961  12.465
21917SOL    HW167648   3.930   9.013  12.499
21917SOL    HW267649   4.076   9.022  12.461
21918SOL     OW67650  14.698   4.813   0.316
21918SOL    HW167651  14.706   4.736   0.260
21918SOL    HW267652  14.605   4.837   0.310
21919SOL     OW67653  14.506   4.267   0.407
21919SOL    HW167654  14.504   4.362   0.394
21919SOL    HW267655  14.505   4.231   0.319
21920SOL     OW67656   2.604  14.212  12.806
21920SOL    HW167657   2.620  14.307  12.802
21920SOL    HW267658   2.685  14.176  12.841
21921SOL     OW67659  14.146   4.487   0.042
21921SOL    HW167660  14.155   4.522  14.823
21921SOL    HW267661  14.143   4.392   0.031
21922SOL     OW67662   8.259   7.931   2.016
21922SOL    HW167663   8.166   7.912   2.029
21922SOL    HW267664   8.273   8.013   2.063
21923SOL     OW67665   1.104   1.667   3.023
21923SOL    HW167666   1.146   1.710   3.098
21923SOL    HW267667   1.105   1.734   2.954
21924SOL     OW67668  12.638  14.842   5.256
21924SOL    HW167669  12.599   0.047   5.210
21924SOL    HW267670  12.629  14.768   5.195
21925SOL     OW67671   0.888   3.234   8.960
21925SOL    HW167672   0.900   3.155   9.012
21925SOL    HW267673   0.976   3.256   8.929
21926SOL     OW67674  10.230   9.494   2.254
21926SOL    HW167675  10.276   9.510   2.172
21926SOL    HW267676  10.250   9.403   2.276
21927SOL     OW67677   7.628   9.288  11.926
21927SOL    HW167678   7.692   9.223  11.955
21927SOL    HW267679   7.658   9.370  11.965
21928SOL     OW67680  14.531  12.146   7.791
21928SOL    HW167681  14.609  12.182   7.749
21928SOL    HW267682  14.560  12.125   7.880
21929SOL     OW67683   8.530   8.268   0.134
21929SOL    HW167684   8.558   8.344   0.184
21929SOL    HW267685   8.566   8.192   0.180
21930SOL     OW67686  14.378   6.978   5.391
21930SOL    HW167687  14.283   6.988   5.378
21930SOL    HW267688  14.391   6.996   5.484
21931SOL     OW67689   4.531   6.809  14.335
21931SOL    HW167690   4.576   6.821  14.418
21931SOL    HW267691   4.466   6.879  14.333
21932SOL     OW67692  12.144   3.727   1.406
21932SOL    HW167693  12.224   3.712   1.357
21932SOL    HW267694  12.099   3.797   1.359
21933SOL     OW67695   2.788  13.381   0.819
21933SOL    HW167696   2.866  13.326   0.819
21933SOL    HW267697   2.731  13.340   0.753
21934SOL     OW67698   6.309   5.992   2.177
21934SOL    HW167699   6.370   5.987   2.251
21934SOL    HW267700   6.311   5.904   2.138
21935SOL     OW67701   5.669  12.594   8.843
21935SOL    HW167702   5.602  12.646   8.798
21935SOL    HW267703   5.636  12.504   8.838
21936SOL     OW67704   1.689   5.168  13.163
21936SOL    HW167705   1.754   5.235  13.184
21936SOL    HW267706   1.605   5.214  13.166
21937SOL     OW67707   2.961  14.665   2.280
21937SOL    HW167708   3.033  14.721   2.251
21937SOL    HW267709   2.887  14.689   2.224
21938SOL     OW67710   8.415   6.576   0.062
21938SOL    HW167711   8.361   6.505   0.096
21938SOL    HW267712   8.500   6.564   0.105
21939SOL     OW67713   1.596  10.062   6.427
21939SOL    HW167714   1.557  10.007   6.496
21939SOL    HW267715   1.665  10.110   6.472
21940SOL     OW67716   7.654   6.965   6.014
21940SOL    HW167717   7.697   6.931   5.936
21940SOL    HW267718   7.718   7.024   6.054
21941SOL     OW67719  11.770  10.399   6.487
21941SOL    HW167720  11.861  10.380   6.509
21941SOL    HW267721  11.774  10.443   6.403
21942SOL     OW67722   9.705  12.407   9.540
21942SOL    HW167723   9.764  12.393   9.466
21942SOL    HW267724   9.657  12.325   9.549
21943SOL     OW67725   5.126  13.015   3.265
21943SOL    HW167726   5.170  13.094   3.298
21943SOL    HW267727   5.178  12.943   3.299
21944SOL     OW67728   6.648  13.906   9.219
21944SOL    HW167729   6.671  13.998   9.236
21944SOL    HW267730   6.624  13.904   9.127
21945SOL     OW67731   6.410   0.727   8.036
21945SOL    HW167732   6.501   0.715   8.064
21945SOL    HW267733   6.377   0.797   8.092
21946SOL     OW67734   9.400   9.362   2.186
21946SOL    HW167735   9.354   9.325   2.111
21946SOL    HW267736   9.358   9.323   2.262
21947SOL     OW67737   2.862  10.906  11.530
21947SOL    HW167738   2.941  10.853  11.546
21947SOL    HW267739   2.881  10.952  11.448
21948SOL     OW67740   6.713   2.560  10.169
21948SOL    HW167741   6.795   2.525  10.133
21948SOL    HW267742   6.651   2.487  10.164
21949SOL     OW67743   2.835   3.122  14.117
21949SOL    HW167744   2.922   3.088  14.137
21949SOL    HW267745   2.851   3.205  14.072
21950SOL     OW67746   1.707   3.535  11.530
21950SOL    HW167747   1.640   3.505  11.590
21950SOL    HW267748   1.758   3.599  11.580
21951SOL     OW67749   1.303   7.935  13.134
21951SOL    HW167750   1.292   8.028  13.148
21951SOL    HW267751   1.215   7.901  13.120
21952SOL     OW67752  14.744  10.143   2.854
21952SOL    HW167753  14.654  10.175   2.857
21952SOL    HW267754  14.770  10.136   2.945
21953SOL     OW67755   6.759   5.831  10.194
21953SOL    HW167756   6.847   5.864  10.210
21953SOL    HW267757   6.754   5.823  10.099
21954SOL     OW67758   3.236   8.789   5.787
21954SOL    HW167759   3.177   8.854   5.748
21954SOL    HW267760   3.187   8.707   5.784
21955SOL     OW67761   6.458  11.384   4.224
21955SOL    HW167762   6.386  11.349   4.276
21955SOL    HW267763   6.490  11.459   4.275
21956SOL     OW67764   6.338   2.126  12.075
21956SOL    HW167765   6.388   2.169  12.005
21956SOL    HW267766   6.401   2.068  12.117
21957SOL     OW67767   9.849   1.868  12.907
21957SOL    HW167768   9.783   1.885  12.839
21957SOL    HW267769   9.817   1.915  12.984
21958SOL     OW67770   9.099   0.380  11.674
21958SOL    HW167771   9.081   0.429  11.594
21958SOL    HW267772   9.163   0.433  11.722
21959SOL     OW67773  11.160  13.880   1.981
21959SOL    HW167774  11.068  13.903   1.996
21959SOL    HW267775  11.187  13.834   2.061
21960SOL     OW67776   3.870   4.817   4.124
21960SOL    HW167777   3.923   4.765   4.064
21960SOL    HW267778   3.811   4.867   4.067
21961SOL     OW67779   1.601   7.495  11.123
21961SOL    HW167780   1.624   7.407  11.094
21961SOL    HW267781   1.666   7.517  11.189
21962SOL     OW67782  12.612   0.452  10.662
21962SOL    HW167783  12.565   0.535  10.660
21962SOL    HW267784  12.601   0.415  10.575
21963SOL     OW67785  11.095  11.725  10.498
21963SOL    HW167786  11.042  11.664  10.551
21963SOL    HW267787  11.185  11.696  10.512
21964SOL     OW67788   4.001  13.332   9.329
21964SOL    HW167789   4.005  13.427   9.316
21964SOL    HW267790   4.031  13.320   9.419
21965SOL     OW67791   1.528   2.213  14.246
21965SOL    HW167792   1.463   2.261  14.297
21965SOL    HW267793   1.611   2.231  14.290
21966SOL     OW67794   0.447  12.628  11.549
21966SOL    HW167795   0.370  12.682  11.528
21966SOL    HW267796   0.442  12.555  11.486
21967SOL     OW67797   1.741   5.882   4.770
21967SOL    HW167798   1.655   5.910   4.739
21967SOL    HW267799   1.756   5.935   4.849
21968SOL     OW67800  10.734  10.614  11.118
21968SOL    HW167801  10.810  10.567  11.083
21968SOL    HW267802  10.722  10.579  11.206
21969SOL     OW67803   2.406   0.469   4.589
21969SOL    HW167804   2.405   0.529   4.664
21969SOL    HW267805   2.470   0.402   4.613
21970SOL     OW67806   1.314   6.623   9.378
21970SOL    HW167807   1.379   6.591   9.315
21970SOL    HW267808   1.232   6.628   9.327
21971SOL     OW67809   4.637  13.536   7.153
21971SOL    HW167810   4.650  13.480   7.230
21971SOL    HW267811   4.682  13.618   7.176
21972SOL     OW67812  12.971  10.633   9.323
21972SOL    HW167813  12.893  10.685   9.303
21972SOL    HW267814  12.937  10.555   9.366
21973SOL     OW67815   6.778   8.117   6.525
21973SOL    HW167816   6.712   8.177   6.560
21973SOL    HW267817   6.860   8.167   6.528
21974SOL     OW67818   0.805   7.396  10.872
21974SOL    HW167819   0.783   7.471  10.927
21974SOL    HW267820   0.760   7.413  10.789
21975SOL     OW67821  13.257   1.556   4.942
21975SOL    HW167822  13.222   1.599   5.021
21975SOL    HW267823  13.347   1.534   4.964
21976SOL     OW67824  13.689   9.590  10.994
21976SOL    HW167825  13.603   9.614  11.029
21976SOL    HW267826  13.739   9.672  10.995
21977SOL     OW67827   0.536   0.717   6.005
21977SOL    HW167828   0.541   0.809   6.030
21977SOL    HW267829   0.449   0.707   5.966
21978SOL     OW67830   0.937   2.139   5.502
21978SOL    HW167831   0.853   2.095   5.517
21978SOL    HW267832   0.955   2.185   5.584
21979SOL     OW67833   6.461   1.944   9.470
21979SOL    HW167834   6.412   1.863   9.483
21979SOL    HW267835   6.551   1.915   9.451
21980SOL     OW67836   9.271   1.701   2.110
21980SOL    HW167837   9.282   1.679   2.018
21980SOL    HW267838   9.291   1.620   2.157
21981SOL     OW67839   9.456   5.260   0.356
21981SOL    HW167840   9.522   5.327   0.373
21981SOL    HW267841   9.375   5.297   0.392
21982SOL     OW67842   5.067   8.867   4.868
21982SOL    HW167843   5.077   8.958   4.840
21982SOL    HW267844   5.082   8.815   4.788
21983SOL     OW67845   2.152  11.445   7.350
21983SOL    HW167846   2.239  11.463   7.387
21983SOL    HW267847   2.168  11.424   7.258
21984SOL     OW67848   6.792   6.823  12.831
21984SOL    HW167849   6.729   6.860  12.892
21984SOL    HW267850   6.877   6.837  12.871
21985SOL     OW67851   2.399   7.281   8.741
21985SOL    HW167852   2.305   7.301   8.749
21985SOL    HW267853   2.429   7.274   8.831
21986SOL     OW67854   0.649   2.083   1.663
21986SOL    HW167855   0.631   2.161   1.612
21986SOL    HW267856   0.589   2.017   1.629
21987SOL     OW67857   9.069  13.943  13.738
21987SOL    HW167858   9.083  13.897  13.656
21987SOL    HW267859   9.128  13.900  13.800
21988SOL     OW67860   4.940   9.857   6.175
21988SOL    HW167861   4.999   9.902   6.235
21988SOL    HW267862   4.922   9.773   6.218
21989SOL     OW67863   3.350  12.966   8.436
21989SOL    HW167864   3.332  12.966   8.341
21989SOL    HW267865   3.263  12.973   8.476
21990SOL     OW67866  10.755   8.802   6.934
21990SOL    HW167867  10.835   8.834   6.891
21990SOL    HW267868  10.687   8.863   6.906
21991SOL     OW67869  11.777   7.964  11.403
21991SOL    HW167870  11.863   7.997  11.379
21991SOL    HW267871  11.771   7.979  11.498
21992SOL     OW67872  14.623  12.361  13.399
21992SOL    HW167873  14.601  12.362  13.306
21992SOL    HW267874  14.680  12.284  13.410
21993SOL     OW67875   8.855   1.003   2.104
21993SOL    HW167876   8.910   0.948   2.049
21993SOL    HW267877   8.872   1.092   2.076
21994SOL     OW67878   7.957  14.698  11.893
21994SOL    HW167879   7.868  14.721  11.921
21994SOL    HW267880   7.946  14.669  11.803
21995SOL     OW67881   0.602   7.668   0.946
21995SOL    HW167882   0.584   7.699   0.857
21995SOL    HW267883   0.548   7.589   0.955
21996SOL     OW67884   4.525  14.541   1.330
21996SOL    HW167885   4.529  14.598   1.407
21996SOL    HW267886   4.459  14.582   1.274
21997SOL     OW67887   0.126   1.314   1.786
21997SOL    HW167888   0.197   1.276   1.734
21997SOL    HW267889   0.082   1.239   1.825
21998SOL     OW67890   6.789  14.739   0.166
21998SOL    HW167891   6.805  14.817   0.113
21998SOL    HW267892   6.705  14.705   0.135
21999SOL     OW67893   8.312   4.298  12.577
21999SOL    HW167894   8.343   4.377  12.621
21999SOL    HW267895   8.320   4.318  12.484
22000SOL     OW67896   7.178   5.921   2.288
22000SOL    HW167897   7.267   5.907   2.258
22000SOL    HW267898   7.186   5.989   2.356
22001SOL     OW67899   4.390   7.530   2.447
22001SOL    HW167900   4.322   7.488   2.394
22001SOL    HW267901   4.391   7.480   2.529
22002SOL     OW67902  13.922   8.467   2.200
22002SOL    HW167903  13.886   8.411   2.269
22002SOL    HW267904  13.852   8.530   2.181
22003SOL     OW67905   1.411   0.915   6.831
22003SOL    HW167906   1.432   0.833   6.788
22003SOL    HW267907   1.315   0.918   6.834
22004SOL     OW67908  12.071   7.868   8.819
22004SOL    HW167909  12.015   7.808   8.867
22004SOL    HW267910  12.016   7.900   8.747
22005SOL     OW67911   6.394   6.379   1.385
22005SOL    HW167912   6.470   6.423   1.346
22005SOL    HW267913   6.410   6.286   1.370
22006SOL     OW67914   6.157   4.222   7.431
22006SOL    HW167915   6.212   4.296   7.406
22006SOL    HW267916   6.182   4.152   7.370
22007SOL     OW67917  12.122   9.793   3.707
22007SOL    HW167918  12.098   9.786   3.615
22007SOL    HW267919  12.182   9.720   3.722
22008SOL     OW67920  13.439   5.516   4.835
22008SOL    HW167921  13.530   5.488   4.822
22008SOL    HW267922  13.387   5.439   4.812
22009SOL     OW67923   6.601   9.274   2.223
22009SOL    HW167924   6.556   9.312   2.299
22009SOL    HW267925   6.652   9.347   2.187
22010SOL     OW67926   0.450  13.461  14.330
22010SOL    HW167927   0.446  13.392  14.397
22010SOL    HW267928   0.490  13.535  14.375
22011SOL     OW67929   5.846  13.435   1.266
22011SOL    HW167930   5.793  13.473   1.196
22011SOL    HW267931   5.782  13.392   1.323
22012SOL     OW67932   7.353   2.548   8.199
22012SOL    HW167933   7.271   2.579   8.238
22012SOL    HW267934   7.359   2.595   8.116
22013SOL     OW67935   7.641   4.138   5.796
22013SOL    HW167936   7.715   4.090   5.835
22013SOL    HW267937   7.579   4.150   5.868
22014SOL     OW67938   0.207   3.651  12.858
22014SOL    HW167939   0.157   3.595  12.798
22014SOL    HW267940   0.298   3.640  12.831
22015SOL     OW67941   9.312   3.856   5.071
22015SOL    HW167942   9.287   3.793   5.004
22015SOL    HW267943   9.283   3.941   5.037
22016SOL     OW67944   9.927   3.834   2.406
22016SOL    HW167945   9.967   3.780   2.338
22016SOL    HW267946  10.000   3.856   2.464
22017SOL     OW67947  14.731   9.424   2.231
22017SOL    HW167948  14.795   9.478   2.185
22017SOL    HW267949  14.647   9.450   2.193
22018SOL     OW67950   3.776   9.441   8.676
22018SOL    HW167951   3.808   9.428   8.587
22018SOL    HW267952   3.682   9.455   8.666
22019SOL     OW67953  11.703   7.790   5.542
22019SOL    HW167954  11.625   7.738   5.523
22019SOL    HW267955  11.744   7.805   5.457
22020SOL     OW67956  11.733   1.723  12.421
22020SOL    HW167957  11.743   1.655  12.354
22020SOL    HW267958  11.786   1.692  12.494
22021SOL     OW67959   1.977   8.300  13.229
22021SOL    HW167960   1.889   8.311  13.193
22021SOL    HW267961   1.987   8.372  13.292
22022SOL     OW67962  13.933  10.294   7.653
22022SOL    HW167963  13.910  10.370   7.600
22022SOL    HW267964  14.024  10.310   7.678
22023SOL     OW67965  12.472   3.322  10.646
22023SOL    HW167966  12.480   3.417  10.639
22023SOL    HW267967  12.379   3.306  10.662
22024SOL     OW67968   2.731  10.075   3.407
22024SOL    HW167969   2.819  10.112   3.397
22024SOL    HW267970   2.746   9.990   3.449
22025SOL     OW67971   5.517   0.739   7.954
22025SOL    HW167972   5.498   0.645   7.962
22025SOL    HW267973   5.457   0.780   8.016
22026SOL     OW67974   3.645   6.407   0.244
22026SOL    HW167975   3.563   6.388   0.290
22026SOL    HW267976   3.647   6.345   0.172
22027SOL     OW67977  13.243   6.562   1.587
22027SOL    HW167978  13.284   6.485   1.625
22027SOL    HW267979  13.189   6.528   1.516
22028SOL     OW67980   0.321  11.652   7.577
22028SOL    HW167981   0.278  11.710   7.514
22028SOL    HW267982   0.400  11.699   7.602
22029SOL     OW67983   0.603   7.231   8.278
22029SOL    HW167984   0.603   7.236   8.373
22029SOL    HW267985   0.654   7.307   8.250
22030SOL     OW67986   6.679  14.348   7.902
22030SOL    HW167987   6.754  14.361   7.844
22030SOL    HW267988   6.717  14.317   7.984
22031SOL     OW67989   8.523   3.891   6.444
22031SOL    HW167990   8.547   3.965   6.500
22031SOL    HW267991   8.429   3.880   6.458
22032SOL     OW67992   1.809   7.699   5.068
22032SOL    HW167993   1.760   7.669   4.992
22032SOL    HW267994   1.742   7.717   5.134
22033SOL     OW67995  12.183   8.065  13.548
22033SOL    HW167996  12.092   8.090  13.533
22033SOL    HW267997  12.199   7.992  13.488
22034SOL     OW67998  10.948   5.622   0.516
22034SOL    HW167999  10.972   5.569   0.592
22034SOL    HW268000  11.029   5.668   0.492
22035SOL     OW68001   6.965   8.436  12.365
22035SOL    HW168002   6.950   8.531  12.360
22035SOL    HW268003   6.972   8.418  12.458
22036SOL     OW68004   2.060   3.609  14.397
22036SOL    HW168005   2.008   3.612  14.317
22036SOL    HW268006   2.116   3.686  14.393
22037SOL     OW68007   9.949   6.186   1.118
22037SOL    HW168008  10.019   6.231   1.165
22037SOL    HW268009   9.970   6.093   1.126
22038SOL     OW68010   9.820   2.247  14.732
22038SOL    HW168011   9.854   2.197  14.658
22038SOL    HW268012   9.898   2.274  14.781
22039SOL     OW68013  13.507   4.883  10.760
22039SOL    HW168014  13.480   4.816  10.697
22039SOL    HW268015  13.599   4.864  10.777
22040SOL     OW68016   8.132  13.339  10.516
22040SOL    HW168017   8.143  13.343  10.421
22040SOL    HW268018   8.183  13.414  10.549
22041SOL     OW68019   3.922  10.823   6.902
22041SOL    HW168020   3.905  10.739   6.945
22041SOL    HW268021   4.017  10.825   6.892
22042SOL     OW68022   0.153  12.978   0.945
22042SOL    HW168023   0.080  12.983   0.883
22042SOL    HW268024   0.112  12.965   1.030
22043SOL     OW68025  11.435   6.349  13.824
22043SOL    HW168026  11.487   6.353  13.744
22043SOL    HW268027  11.344   6.341  13.794
22044SOL     OW68028  12.588   7.621  11.410
22044SOL    HW168029  12.507   7.580  11.382
22044SOL    HW268030  12.573   7.715  11.397
22045SOL     OW68031   1.493  12.274   2.523
22045SOL    HW168032   1.500  12.370   2.522
22045SOL    HW268033   1.583  12.243   2.531
22046SOL     OW68034   8.326  12.585   9.899
22046SOL    HW168035   8.277  12.644   9.842
22046SOL    HW268036   8.410  12.573   9.855
22047SOL     OW68037   4.925   8.980   9.489
22047SOL    HW168038   4.868   9.010   9.419
22047SOL    HW268039   4.894   8.892   9.510
22048SOL     OW68040   4.271   8.261   6.275
22048SOL    HW168041   4.207   8.275   6.345
22048SOL    HW268042   4.303   8.349   6.254
22049SOL     OW68043  12.612   8.495   5.750
22049SOL    HW168044  12.603   8.400   5.749
22049SOL    HW268045  12.629   8.519   5.659
22050SOL     OW68046   1.150   6.272   4.295
22050SOL    HW168047   1.134   6.349   4.241
22050SOL    HW268048   1.241   6.250   4.279
22051SOL     OW68049   4.225   7.320   2.291
22051SOL    HW168050   4.244   7.230   2.319
22051SOL    HW268051   4.170   7.309   2.213
22052SOL     OW68052  12.188   8.747   5.806
22052SOL    HW168053  12.275   8.712   5.825
22052SOL    HW268054  12.202   8.813   5.738
22053SOL     OW68055  12.406  11.228   0.148
22053SOL    HW168056  12.482  11.174   0.123
22053SOL    HW268057  12.395  11.289   0.075
22054SOL     OW68058   2.310   3.697   3.135
22054SOL    HW168059   2.236   3.652   3.094
22054SOL    HW268060   2.383   3.681   3.076
22055SOL     OW68061  12.687  10.539   0.748
22055SOL    HW168062  12.631  10.516   0.822
22055SOL    HW268063  12.768  10.570   0.788
22056SOL     OW68064   1.647   9.082   5.510
22056SOL    HW168065   1.614   9.012   5.567
22056SOL    HW268066   1.729   9.047   5.475
22057SOL     OW68067  12.392   3.867   6.471
22057SOL    HW168068  12.400   3.789   6.417
22057SOL    HW268069  12.299   3.889   6.468
22058SOL     OW68070   6.376   4.505  11.170
22058SOL    HW168071   6.349   4.511  11.079
22058SOL    HW268072   6.348   4.588  11.209
22059SOL     OW68073  14.227  13.062   4.121
22059SOL    HW168074  14.284  13.124   4.076
22059SOL    HW268075  14.265  13.054   4.209
22060SOL     OW68076  14.235   1.743  10.550
22060SOL    HW168077  14.239   1.665  10.606
22060SOL    HW268078  14.289   1.722  10.474
22061SOL     OW68079  10.282   2.243   7.863
22061SOL    HW168080  10.343   2.215   7.795
22061SOL    HW268081  10.339   2.264   7.938
22062SOL     OW68082   2.162   0.950   3.742
22062SOL    HW168083   2.098   0.880   3.754
22062SOL    HW268084   2.161   0.967   3.648
22063SOL     OW68085  10.780   8.793  13.588
22063SOL    HW168086  10.806   8.810  13.498
22063SOL    HW268087  10.862   8.777  13.635
22064SOL     OW68088   3.076  14.267   2.466
22064SOL    HW168089   3.045  14.224   2.546
22064SOL    HW268090   2.996  14.296   2.423
22065SOL     OW68091  12.388   4.229  11.856
22065SOL    HW168092  12.335   4.235  11.777
22065SOL    HW268093  12.347   4.158  11.907
22066SOL     OW68094   7.536  14.688   2.312
22066SOL    HW168095   7.464  14.632   2.285
22066SOL    HW268096   7.585  14.636   2.376
22067SOL     OW68097   5.969  12.941  10.851
22067SOL    HW168098   6.040  12.983  10.900
22067SOL    HW268099   5.969  12.850  10.881
22068SOL     OW68100   0.288  12.701   5.503
22068SOL    HW168101   0.294  12.783   5.454
22068SOL    HW268102   0.376  12.689   5.540
22069SOL     OW68103  11.882   4.432   3.347
22069SOL    HW168104  11.856   4.502   3.287
22069SOL    HW268105  11.976   4.442   3.357
22070SOL     OW68106   6.050   5.472   5.350
22070SOL    HW168107   6.041   5.538   5.281
22070SOL    HW268108   6.019   5.516   5.429
22071SOL     OW68109  13.061   1.842   1.995
22071SOL    HW168110  13.025   1.756   1.976
22071SOL    HW268111  13.156   1.832   1.981
22072SOL     OW68112   3.459   1.147   7.896
22072SOL    HW168113   3.453   1.228   7.947
22072SOL    HW268114   3.397   1.088   7.938
22073SOL     OW68115  13.755   6.574  12.281
22073SOL    HW168116  13.839   6.619  12.295
22073SOL    HW268117  13.747   6.568  12.186
22074SOL     OW68118   0.733   0.530   0.591
22074SOL    HW168119   0.822   0.495   0.579
22074SOL    HW268120   0.743   0.596   0.660
22075SOL     OW68121  11.939   7.775   9.958
22075SOL    HW168122  11.919   7.683   9.941
22075SOL    HW268123  11.947   7.780  10.053
22076SOL     OW68124   1.870   5.000  13.329
22076SOL    HW168125   1.829   4.913  13.333
22076SOL    HW268126   1.825   5.044  13.256
22077SOL     OW68127   8.424  12.899  13.794
22077SOL    HW168128   8.403  12.894  13.701
22077SOL    HW268129   8.347  12.865  13.838
22078SOL     OW68130   9.128  12.272  11.225
22078SOL    HW168131   9.076  12.210  11.276
22078SOL    HW268132   9.064  12.327  11.181
22079SOL     OW68133   8.145   3.039   5.395
22079SOL    HW168134   8.155   3.059   5.488
22079SOL    HW268135   8.143   2.943   5.391
22080SOL     OW68136  12.011  13.603   9.500
22080SOL    HW168137  11.957  13.680   9.521
22080SOL    HW268138  11.962  13.529   9.536
22081SOL     OW68139  12.766   9.430   9.367
22081SOL    HW168140  12.707   9.364   9.330
22081SOL    HW268141  12.853   9.403   9.338
22082SOL     OW68142  12.329   6.171  10.314
22082SOL    HW168143  12.370   6.089  10.286
22082SOL    HW268144  12.297   6.153  10.402
22083SOL     OW68145   4.732   3.717  13.923
22083SOL    HW168146   4.794   3.779  13.960
22083SOL    HW268147   4.685   3.682  13.998
22084SOL     OW68148   6.739   8.198  13.687
22084SOL    HW168149   6.698   8.276  13.724
22084SOL    HW268150   6.669   8.133  13.684
22085SOL     OW68151  12.820   0.628  11.183
22085SOL    HW168152  12.862   0.573  11.117
22085SOL    HW268153  12.775   0.565  11.241
22086SOL     OW68154   6.866   5.811   8.190
22086SOL    HW168155   6.917   5.731   8.200
22086SOL    HW268156   6.839   5.833   8.279
22087SOL     OW68157   5.874   5.118  14.108
22087SOL    HW168158   5.827   5.161  14.036
22087SOL    HW268159   5.896   5.031  14.074
22088SOL     OW68160   5.265  10.537  11.911
22088SOL    HW168161   5.237  10.459  11.862
22088SOL    HW268162   5.348  10.511  11.952
22089SOL     OW68163   9.190   4.757   2.843
22089SOL    HW168164   9.262   4.734   2.901
22089SOL    HW268165   9.190   4.689   2.776
22090SOL     OW68166   0.457   8.026   4.893
22090SOL    HW168167   0.466   7.968   4.968
22090SOL    HW268168   0.541   8.021   4.848
22091SOL     OW68169   1.925   1.807   7.050
22091SOL    HW168170   1.917   1.772   7.139
22091SOL    HW268171   2.010   1.776   7.019
22092SOL     OW68172   4.683   8.522   9.472
22092SOL    HW168173   4.758   8.537   9.413
22092SOL    HW268174   4.646   8.439   9.443
22093SOL     OW68175   8.580  13.932   9.805
22093SOL    HW168176   8.656  13.875   9.813
22093SOL    HW268177   8.595  13.980   9.723
22094SOL     OW68178   2.753   2.192   0.785
22094SOL    HW168179   2.668   2.178   0.827
22094SOL    HW268180   2.734   2.249   0.711
22095SOL     OW68181   4.818  11.571  10.418
22095SOL    HW168182   4.856  11.505  10.476
22095SOL    HW268183   4.733  11.535  10.394
22096SOL     OW68184   6.653   2.884  11.227
22096SOL    HW168185   6.742   2.859  11.202
22096SOL    HW268186   6.598   2.849  11.158
22097SOL     OW68187  14.157  11.844   9.506
22097SOL    HW168188  14.103  11.898   9.448
22097SOL    HW268189  14.246  11.859   9.476
22098SOL     OW68190   7.535  12.295   1.356
22098SOL    HW168191   7.493  12.363   1.302
22098SOL    HW268192   7.539  12.219   1.298
22099SOL     OW68193   9.690  10.159   6.331
22099SOL    HW168194   9.754  10.230   6.336
22099SOL    HW268195   9.738  10.080   6.352
22100SOL     OW68196   9.183  13.293  10.677
22100SOL    HW168197   9.194  13.388  10.669
22100SOL    HW268198   9.116  13.271  10.613
22101SOL     OW68199   8.096   1.054   1.399
22101SOL    HW168200   8.071   1.034   1.309
22101SOL    HW268201   8.151   1.132   1.392
22102SOL     OW68202   8.739   8.096   4.212
22102SOL    HW168203   8.799   8.021   4.207
22102SOL    HW268204   8.666   8.072   4.155
22103SOL     OW68205   3.211  13.415  14.321
22103SOL    HW168206   3.252  13.462  14.394
22103SOL    HW268207   3.155  13.481  14.279
22104SOL     OW68208  14.422   9.739   3.478
22104SOL    HW168209  14.449   9.648   3.492
22104SOL    HW268210  14.388   9.740   3.388
22105SOL     OW68211   0.177  13.951   8.980
22105SOL    HW168212   0.269  13.979   8.981
22105SOL    HW268213   0.159  13.926   9.071
22106SOL     OW68214  12.289   0.894   9.534
22106SOL    HW168215  12.263   0.886   9.442
22106SOL    HW268216  12.321   0.984   9.541
22107SOL     OW68217   1.379   1.138   0.845
22107SOL    HW168218   1.304   1.195   0.862
22107SOL    HW268219   1.346   1.049   0.861
22108SOL     OW68220  13.913   5.285   1.692
22108SOL    HW168221  13.839   5.237   1.656
22108SOL    HW268222  13.965   5.220   1.739
22109SOL     OW68223   5.196  13.315   6.304
22109SOL    HW168224   5.271  13.304   6.363
22109SOL    HW268225   5.235  13.320   6.217
22110SOL     OW68226  14.662  11.240   7.294
22110SOL    HW168227  14.714  11.170   7.252
22110SOL    HW268228  14.618  11.283   7.221
22111SOL     OW68229  13.891   6.321  12.298
22111SOL    HW168230  13.872   6.270  12.377
22111SOL    HW268231  13.846   6.405  12.313
22112SOL     OW68232  14.293  14.292   8.266
22112SOL    HW168233  14.292  14.331   8.179
22112SOL    HW268234  14.303  14.199   8.251
22113SOL     OW68235  14.000   4.587   6.577
22113SOL    HW168236  14.012   4.674   6.538
22113SOL    HW268237  13.972   4.604   6.666
22114SOL     OW68238   8.362   0.627   2.595
22114SOL    HW168239   8.429   0.695   2.605
22114SOL    HW268240   8.351   0.619   2.501
22115SOL     OW68241  13.659  12.735   8.863
22115SOL    HW168242  13.570  12.715   8.891
22115SOL    HW268243  13.714  12.689   8.926
22116SOL     OW68244   7.563   8.521   8.795
22116SOL    HW168245   7.469   8.530   8.812
22116SOL    HW268246   7.598   8.609   8.805
22117SOL     OW68247   4.356   1.964   0.196
22117SOL    HW168248   4.385   2.042   0.148
22117SOL    HW268249   4.399   1.971   0.281
22118SOL     OW68250   5.380  14.797   8.418
22118SOL    HW168251   5.432  14.847   8.355
22118SOL    HW268252   5.423  14.813   8.502
22119SOL     OW68253   9.667   0.319   4.981
22119SOL    HW168254   9.747   0.273   5.007
22119SOL    HW268255   9.629   0.265   4.911
22120SOL     OW68256  14.024   4.855  10.631
22120SOL    HW168257  14.076   4.780  10.604
22120SOL    HW268258  14.039   4.920  10.562
22121SOL     OW68259  14.531  13.041  12.870
22121SOL    HW168260  14.546  13.134  12.885
22121SOL    HW268261  14.619  13.001  12.875
22122SOL     OW68262   0.174  12.490  11.764
22122SOL    HW168263   0.239  12.559  11.766
22122SOL    HW268264   0.225  12.409  11.756
22123SOL     OW68265   2.296   2.980   6.701
22123SOL    HW168266   2.320   2.985   6.608
22123SOL    HW268267   2.371   2.937   6.742
22124SOL     OW68268   8.265   4.701   8.511
22124SOL    HW168269   8.335   4.652   8.555
22124SOL    HW268270   8.184   4.663   8.545
22125SOL     OW68271   9.634   6.692   3.788
22125SOL    HW168272   9.621   6.764   3.850
22125SOL    HW268273   9.552   6.686   3.740
22126SOL     OW68274   0.545   3.070   7.153
22126SOL    HW168275   0.512   3.158   7.173
22126SOL    HW268276   0.601   3.082   7.077
22127SOL     OW68277   8.751  12.237   4.605
22127SOL    HW168278   8.733  12.156   4.557
22127SOL    HW268279   8.795  12.293   4.540
22128SOL     OW68280  13.729  11.838   8.208
22128SOL    HW168281  13.785  11.784   8.152
22128SOL    HW268282  13.683  11.896   8.147
22129SOL     OW68283  12.562   4.830   0.464
22129SOL    HW168284  12.496   4.895   0.441
22129SOL    HW268285  12.603   4.865   0.543
22130SOL     OW68286   0.348   3.135   3.543
22130SOL    HW168287   0.433   3.177   3.557
22130SOL    HW268288   0.320   3.165   3.457
22131SOL     OW68289   9.072   3.286  10.269
22131SOL    HW168290   9.110   3.306  10.354
22131SOL    HW268291   8.978   3.300  10.281
22132SOL     OW68292   2.744  14.132   8.358
22132SOL    HW168293   2.680  14.203   8.355
22132SOL    HW268294   2.722  14.083   8.438
22133SOL     OW68295   1.881   9.641   5.519
22133SOL    HW168296   1.786   9.653   5.513
22133SOL    HW268297   1.911   9.711   5.577
22134SOL     OW68298  13.667  13.767   6.567
22134SOL    HW168299  13.672  13.780   6.473
22134SOL    HW268300  13.727  13.831   6.604
22135SOL     OW68301   6.845  13.889  13.489
22135SOL    HW168302   6.916  13.864  13.429
22135SOL    HW268303   6.807  13.967  13.450
22136SOL     OW68304   4.347   2.897   9.799
22136SOL    HW168305   4.412   2.858   9.740
22136SOL    HW268306   4.293   2.951   9.741
22137SOL     OW68307   7.171  13.916   6.502
22137SOL    HW168308   7.089  13.872   6.525
22137SOL    HW268309   7.146  14.005   6.480
22138SOL     OW68310   5.476   6.349  13.131
22138SOL    HW168311   5.549   6.395  13.089
22138SOL    HW268312   5.423   6.417  13.171
22139SOL     OW68313  10.164   4.521   8.282
22139SOL    HW168314  10.169   4.609   8.320
22139SOL    HW268315  10.220   4.467   8.338
22140SOL     OW68316   8.958  14.101   3.212
22140SOL    HW168317   9.024  14.032   3.219
22140SOL    HW268318   8.877  14.060   3.241
22141SOL     OW68319   8.669   3.479   2.780
22141SOL    HW168320   8.739   3.536   2.747
22141SOL    HW268321   8.599   3.539   2.803
22142SOL     OW68322   2.509   2.093   3.565
22142SOL    HW168323   2.572   2.021   3.567
22142SOL    HW268324   2.514   2.132   3.652
22143SOL     OW68325   4.283   7.720   1.696
22143SOL    HW168326   4.285   7.679   1.610
22143SOL    HW268327   4.375   7.727   1.721
22144SOL     OW68328   7.317  14.332   1.499
22144SOL    HW168329   7.373  14.311   1.573
22144SOL    HW268330   7.267  14.409   1.527
22145SOL     OW68331  10.324   4.539  10.945
22145SOL    HW168332  10.403   4.582  10.977
22145SOL    HW268333  10.309   4.467  11.007
22146SOL     OW68334   3.589   7.557   8.466
22146SOL    HW168335   3.535   7.617   8.517
22146SOL    HW268336   3.675   7.597   8.465
22147SOL     OW68337  11.374  11.491   5.701
22147SOL    HW168338  11.327  11.539   5.769
22147SOL    HW268339  11.305  11.453   5.647
22148SOL     OW68340   6.920  12.684  12.843
22148SOL    HW168341   6.968  12.671  12.925
22148SOL    HW268342   6.831  12.705  12.871
22149SOL     OW68343   9.386   2.706  12.702
22149SOL    HW168344   9.306   2.699  12.649
22149SOL    HW268345   9.457   2.704  12.638
22150SOL     OW68346  10.547   7.441  10.751
22150SOL    HW168347  10.487   7.513  10.768
22150SOL    HW268348  10.626   7.483  10.717
22151SOL     OW68349  14.008  11.616   9.438
22151SOL    HW168350  13.939  11.621   9.505
22151SOL    HW268351  14.060  11.696   9.452
22152SOL     OW68352   4.150   2.015   3.810
22152SOL    HW168353   4.179   2.034   3.721
22152SOL    HW268354   4.083   2.080   3.828
22153SOL     OW68355   1.418  13.848  14.698
22153SOL    HW168356   1.407  13.772  14.641
22153SOL    HW268357   1.512  13.850  14.717
22154SOL     OW68358   9.545   9.758  10.041
22154SOL    HW168359   9.547   9.756   9.945
22154SOL    HW268360   9.622   9.708  10.067
22155SOL     OW68361   8.276   1.896   7.672
22155SOL    HW168362   8.357   1.919   7.716
22155SOL    HW268363   8.220   1.973   7.683
22156SOL     OW68364   4.671  11.023  13.961
22156SOL    HW168365   4.667  11.061  13.873
22156SOL    HW268366   4.610  11.076  14.012
22157SOL     OW68367  14.522   9.043   4.228
22157SOL    HW168368  14.521   9.014   4.319
22157SOL    HW268369  14.600   9.004   4.190
22158SOL     OW68370  14.473  11.044   2.696
22158SOL    HW168371  14.415  11.021   2.624
22158SOL    HW268372  14.415  11.079   2.764
22159SOL     OW68373   4.829   7.523  11.797
22159SOL    HW168374   4.780   7.511  11.879
22159SOL    HW268375   4.842   7.618  11.791
22160SOL     OW68376   4.296   7.182  13.905
22160SOL    HW168377   4.220   7.155  13.853
22160SOL    HW268378   4.302   7.277  13.893
22161SOL     OW68379   6.312   9.285   0.524
22161SOL    HW168380   6.310   9.192   0.499
22161SOL    HW268381   6.220   9.312   0.522
22162SOL     OW68382  12.787   1.868   5.866
22162SOL    HW168383  12.840   1.845   5.942
22162SOL    HW268384  12.708   1.816   5.874
22163SOL     OW68385   6.126  14.153   4.284
22163SOL    HW168386   6.221  14.155   4.296
22163SOL    HW268387   6.105  14.238   4.245
22164SOL     OW68388   2.560   9.812  12.062
22164SOL    HW168389   2.481   9.866  12.069
22164SOL    HW268390   2.608   9.850  11.989
22165SOL     OW68391   1.162  13.495   0.707
22165SOL    HW168392   1.231  13.525   0.649
22165SOL    HW268393   1.120  13.423   0.660
22166SOL     OW68394  14.306   9.720   3.228
22166SOL    HW168395  14.225   9.706   3.178
22166SOL    HW268396  14.373   9.673   3.179
22167SOL     OW68397   7.745  11.948   8.306
22167SOL    HW168398   7.811  12.006   8.268
22167SOL    HW268399   7.764  11.862   8.269
22168SOL     OW68400  11.522   4.973   3.148
22168SOL    HW168401  11.598   4.991   3.094
22168SOL    HW268402  11.450   5.019   3.105
22169SOL     OW68403   7.307   8.161   2.937
22169SOL    HW168404   7.241   8.222   2.970
22169SOL    HW268405   7.391   8.203   2.958
22170SOL     OW68406   8.230   0.441   9.655
22170SOL    HW168407   8.321   0.436   9.683
22170SOL    HW268408   8.234   0.479   9.567
22171SOL     OW68409   6.078   8.722   2.367
22171SOL    HW168410   6.127   8.668   2.306
22171SOL    HW268411   6.092   8.811   2.337
22172SOL     OW68412   0.435   8.192  10.875
22172SOL    HW168413   0.364   8.155  10.823
22172SOL    HW268414   0.513   8.181  10.822
22173SOL     OW68415  13.922   3.177   3.573
22173SOL    HW168416  13.843   3.180   3.519
22173SOL    HW268417  13.995   3.177   3.511
22174SOL     OW68418   2.918  12.988  12.529
22174SOL    HW168419   2.989  12.978  12.466
22174SOL    HW268420   2.915  12.904  12.575
22175SOL     OW68421  12.942   8.594   6.851
22175SOL    HW168422  12.872   8.620   6.791
22175SOL    HW268423  13.020   8.639   6.819
22176SOL     OW68424  12.441   6.400  13.779
22176SOL    HW168425  12.471   6.476  13.728
22176SOL    HW268426  12.371   6.361  13.726
22177SOL     OW68427  11.011   9.298  12.741
22177SOL    HW168428  11.059   9.380  12.727
22177SOL    HW268429  10.921   9.325  12.757
22178SOL     OW68430   2.189  13.561  11.774
22178SOL    HW168431   2.163  13.620  11.845
22178SOL    HW268432   2.276  13.530  11.800
22179SOL     OW68433   4.731   6.308   6.105
22179SOL    HW168434   4.816   6.274   6.075
22179SOL    HW268435   4.741   6.403   6.101
22180SOL     OW68436  12.877   9.258   2.650
22180SOL    HW168437  12.870   9.276   2.744
22180SOL    HW268438  12.959   9.299   2.624
22181SOL     OW68439  10.618  14.702   9.198
22181SOL    HW168440  10.585  14.769   9.138
22181SOL    HW268441  10.703  14.734   9.226
22182SOL     OW68442   8.150  14.724  13.576
22182SOL    HW168443   8.097  14.758  13.503
22182SOL    HW268444   8.239  14.725  13.542
22183SOL     OW68445  12.293   7.636   4.239
22183SOL    HW168446  12.310   7.545   4.265
22183SOL    HW268447  12.266   7.679   4.320
22184SOL     OW68448   3.978  11.210   4.098
22184SOL    HW168449   4.062  11.251   4.077
22184SOL    HW268450   3.954  11.247   4.183
22185SOL     OW68451   7.086  13.813   0.663
22185SOL    HW168452   7.145  13.759   0.716
22185SOL    HW268453   7.129  13.898   0.659
22186SOL     OW68454   9.494  11.827   6.690
22186SOL    HW168455   9.535  11.911   6.669
22186SOL    HW268456   9.469  11.835   6.782
22187SOL     OW68457  11.277  13.209  13.321
22187SOL    HW168458  11.273  13.191  13.415
22187SOL    HW268459  11.200  13.164  13.286
22188SOL     OW68460   3.976  11.730  14.520
22188SOL    HW168461   4.057  11.680  14.512
22188SOL    HW268462   3.931  11.693  14.596
22189SOL     OW68463   3.641   1.855  11.112
22189SOL    HW168464   3.566   1.908  11.137
22189SOL    HW268465   3.706   1.871  11.180
22190SOL     OW68466   7.855   3.633   0.590
22190SOL    HW168467   7.945   3.664   0.603
22190SOL    HW268468   7.804   3.685   0.652
22191SOL     OW68469  11.899   3.461   4.661
22191SOL    HW168470  11.854   3.401   4.720
22191SOL    HW268471  11.897   3.416   4.576
22192SOL     OW68472   4.727   2.349   3.636
22192SOL    HW168473   4.792   2.409   3.672
22192SOL    HW268474   4.720   2.280   3.702
22193SOL     OW68475   8.957  11.287   7.390
22193SOL    HW168476   9.016  11.221   7.425
22193SOL    HW268477   9.013  11.362   7.371
22194SOL     OW68478   1.686  12.730  10.967
22194SOL    HW168479   1.670  12.639  10.992
22194SOL    HW268480   1.676  12.731  10.872
22195SOL     OW68481  13.879   0.396   7.232
22195SOL    HW168482  13.912   0.373   7.145
22195SOL    HW268483  13.785   0.377   7.228
22196SOL     OW68484   9.925   2.909  11.780
22196SOL    HW168485   9.903   2.888  11.871
22196SOL    HW268486   9.841   2.904  11.734
22197SOL     OW68487   1.832   8.884  14.334
22197SOL    HW168488   1.857   8.854  14.422
22197SOL    HW268489   1.916   8.901  14.290
22198SOL     OW68490   4.173  14.848   3.010
22198SOL    HW168491   4.118  14.771   2.995
22198SOL    HW268492   4.195  14.844   3.103
22199SOL     OW68493   2.213   9.838   9.584
22199SOL    HW168494   2.131   9.806   9.546
22199SOL    HW268495   2.275   9.767   9.571
22200SOL     OW68496  10.072   2.522  11.697
22200SOL    HW168497  10.117   2.604  11.714
22200SOL    HW268498  10.050   2.526  11.604
22201SOL     OW68499   3.653   4.691   5.534
22201SOL    HW168500   3.688   4.686   5.445
22201SOL    HW268501   3.633   4.600   5.557
22202SOL     OW68502   0.517   9.831  13.243
22202SOL    HW168503   0.473   9.902  13.289
22202SOL    HW268504   0.498   9.753  13.296
22203SOL     OW68505   3.835   4.811  10.243
22203SOL    HW168506   3.862   4.724  10.213
22203SOL    HW268507   3.900   4.835  10.309
22204SOL     OW68508  14.283   6.471   7.318
22204SOL    HW168509  14.309   6.404   7.381
22204SOL    HW268510  14.333   6.548   7.342
22205SOL     OW68511  10.323  11.464  14.273
22205SOL    HW168512  10.241  11.448  14.227
22205SOL    HW268513  10.299  11.467  14.366
22206SOL     OW68514   4.143  12.906  11.615
22206SOL    HW168515   4.050  12.893  11.596
22206SOL    HW268516   4.161  12.995  11.586
22207SOL     OW68517   1.514   0.034   4.840
22207SOL    HW168518   1.439  14.852   4.808
22207SOL    HW268519   1.543  14.858   4.918
22208SOL     OW68520   7.648   9.393   9.665
22208SOL    HW168521   7.602   9.476   9.667
22208SOL    HW268522   7.587   9.332   9.623
22209SOL     OW68523  11.231   3.749  11.667
22209SOL    HW168524  11.244   3.671  11.721
22209SOL    HW268525  11.138   3.771  11.678
22210SOL     OW68526   4.688  12.641   9.135
22210SOL    HW168527   4.770  12.677   9.102
22210SOL    HW268528   4.658  12.582   9.067
22211SOL     OW68529   6.275  11.728  10.167
22211SOL    HW168530   6.245  11.817  10.184
22211SOL    HW268531   6.251  11.711  10.076
22212SOL     OW68532   9.762   8.033   9.706
22212SOL    HW168533   9.710   8.047   9.627
22212SOL    HW268534   9.715   8.080   9.775
22213SOL     OW68535   8.458  11.413   5.415
22213SOL    HW168536   8.494  11.423   5.503
22213SOL    HW268537   8.394  11.484   5.407
22214SOL     OW68538  11.150   5.891   3.019
22214SOL    HW168539  11.111   5.806   3.037
22214SOL    HW268540  11.081   5.941   2.975
22215SOL     OW68541   4.903  10.162   8.592
22215SOL    HW168542   4.841  10.235   8.579
22215SOL    HW268543   4.945  10.182   8.675
22216SOL     OW68544   7.737   3.644   2.569
22216SOL    HW168545   7.651   3.679   2.589
22216SOL    HW268546   7.796   3.690   2.629
22217SOL     OW68547   2.925  13.622  13.835
22217SOL    HW168548   2.839  13.637  13.875
22217SOL    HW268549   2.908  13.627  13.740
22218SOL     OW68550   2.197   9.648  13.662
22218SOL    HW168551   2.268   9.668  13.724
22218SOL    HW268552   2.197   9.722  13.601
22219SOL     OW68553   7.757   8.339   4.410
22219SOL    HW168554   7.758   8.313   4.318
22219SOL    HW268555   7.681   8.398   4.417
22220SOL     OW68556   3.124   3.226  11.885
22220SOL    HW168557   3.179   3.295  11.848
22220SOL    HW268558   3.099   3.172  11.810
22221SOL     OW68559   5.636  11.252   9.595
22221SOL    HW168560   5.702  11.269   9.529
22221SOL    HW268561   5.662  11.307   9.669
22222SOL     OW68562  11.731  12.367   5.853
22222SOL    HW168563  11.750  12.276   5.875
22222SOL    HW268564  11.813  12.413   5.867
22223SOL     OW68565   1.923   9.998   1.664
22223SOL    HW168566   1.894   9.907   1.673
22223SOL    HW268567   1.950  10.006   1.573
22224SOL     OW68568   1.153  11.044   8.694
22224SOL    HW168569   1.070  11.090   8.708
22224SOL    HW268570   1.145  11.006   8.607
22225SOL     OW68571  12.453   8.702   5.858
22225SOL    HW168572  12.495   8.623   5.823
22225SOL    HW268573  12.515   8.772   5.840
22226SOL     OW68574   5.506   3.014   8.690
22226SOL    HW168575   5.417   2.992   8.664
22226SOL    HW268576   5.511   3.110   8.681
22227SOL     OW68577  13.291   0.006   1.155
22227SOL    HW168578  13.373   0.001   1.204
22227SOL    HW268579  13.313   0.055   1.076
22228SOL     OW68580   5.123   8.187  12.619
22228SOL    HW168581   5.043   8.184  12.566
22228SOL    HW268582   5.144   8.280  12.624
22229SOL     OW68583  13.188   5.433  13.270
22229SOL    HW168584  13.160   5.503  13.211
22229SOL    HW268585  13.193   5.356  13.214
22230SOL     OW68586   8.266   4.811   2.074
22230SOL    HW168587   8.287   4.725   2.110
22230SOL    HW268588   8.301   4.873   2.138
22231SOL     OW68589   4.296   0.959   1.894
22231SOL    HW168590   4.266   1.048   1.911
22231SOL    HW268591   4.391   0.967   1.884
22232SOL     OW68592   6.603   5.239  10.838
22232SOL    HW168593   6.547   5.217  10.913
22232SOL    HW268594   6.690   5.252  10.876
22233SOL     OW68595  11.158   2.297  13.809
22233SOL    HW168596  11.119   2.234  13.749
22233SOL    HW268597  11.249   2.304  13.781
22234SOL     OW68598  13.535  13.023   3.577
22234SOL    HW168599  13.547  12.983   3.491
22234SOL    HW268600  13.440  13.031   3.586
22235SOL     OW68601  10.043   6.639  10.747
22235SOL    HW168602  10.041   6.680  10.660
22235SOL    HW268603   9.974   6.574  10.745
22236SOL     OW68604   1.675   2.179   0.029
22236SOL    HW168605   1.600   2.153  14.845
22236SOL    HW268606   1.693   2.269   0.002
22237SOL     OW68607  13.105   7.911  10.500
22237SOL    HW168608  13.126   7.845  10.566
22237SOL    HW268609  13.189   7.938  10.465
22238SOL     OW68610   7.172   8.115   5.975
22238SOL    HW168611   7.172   8.096   5.881
22238SOL    HW268612   7.088   8.159   5.990
22239SOL     OW68613  14.227   6.264   9.688
22239SOL    HW168614  14.256   6.179   9.721
22239SOL    HW268615  14.179   6.304   9.760
22240SOL     OW68616   1.049   3.117   6.429
22240SOL    HW168617   1.114   3.059   6.391
22240SOL    HW268618   0.965   3.074   6.412
22241SOL     OW68619   4.833   1.131   1.563
22241SOL    HW168620   4.818   1.111   1.470
22241SOL    HW268621   4.746   1.137   1.601
22242SOL     OW68622   7.911   3.416   8.706
22242SOL    HW168623   7.879   3.397   8.795
22242SOL    HW268624   7.973   3.346   8.687
22243SOL     OW68625   0.342  14.061   8.138
22243SOL    HW168626   0.396  14.030   8.210
22243SOL    HW268627   0.301  13.982   8.103
22244SOL     OW68628   9.446  10.284   1.483
22244SOL    HW168629   9.513  10.323   1.427
22244SOL    HW268630   9.475  10.304   1.572
22245SOL     OW68631   3.779  14.052   7.343
22245SOL    HW168632   3.795  13.990   7.272
22245SOL    HW268633   3.856  14.109   7.344
22246SOL     OW68634   4.439   3.905   1.518
22246SOL    HW168635   4.515   3.848   1.506
22246SOL    HW268636   4.442   3.930   1.611
22247SOL     OW68637   0.815   1.618  11.496
22247SOL    HW168638   0.881   1.666  11.447
22247SOL    HW268639   0.732   1.656  11.467
22248SOL     OW68640   6.244   0.410  10.743
22248SOL    HW168641   6.290   0.346  10.688
22248SOL    HW268642   6.158   0.370  10.759
22249SOL     OW68643   3.081  11.576  11.798
22249SOL    HW168644   3.063  11.482  11.801
22249SOL    HW268645   3.031  11.607  11.723
22250SOL     OW68646  12.570   7.839   9.284
22250SOL    HW168647  12.648   7.783   9.285
22250SOL    HW268648  12.590   7.907   9.220
22251SOL     OW68649  12.220   0.886  12.592
22251SOL    HW168650  12.282   0.879  12.520
22251SOL    HW268651  12.134   0.886  12.550
22252SOL     OW68652  10.066   2.885   3.930
22252SOL    HW168653  10.110   2.801   3.943
22252SOL    HW268654  10.018   2.875   3.847
22253SOL     OW68655  14.500   5.575  14.773
22253SOL    HW168656  14.409   5.583  14.803
22253SOL    HW268657  14.544   5.526  14.842
22254SOL     OW68658   5.253  12.269   9.719
22254SOL    HW168659   5.197  12.248   9.645
22254SOL    HW268660   5.192  12.291   9.790
22255SOL     OW68661  14.412   1.034  13.458
22255SOL    HW168662  14.420   1.044  13.553
22255SOL    HW268663  14.496   1.000  13.429
22256SOL     OW68664  11.777   1.377   1.546
22256SOL    HW168665  11.784   1.456   1.492
22256SOL    HW268666  11.683   1.364   1.557
22257SOL     OW68667   5.461   0.876   4.304
22257SOL    HW168668   5.487   0.884   4.396
22257SOL    HW268669   5.387   0.816   4.305
22258SOL     OW68670   7.463   0.369   5.472
22258SOL    HW168671   7.557   0.365   5.486
22258SOL    HW268672   7.434   0.443   5.526
22259SOL     OW68673   5.266   1.550   6.050
22259SOL    HW168674   5.280   1.635   6.093
22259SOL    HW268675   5.179   1.523   6.080
22260SOL     OW68676   7.090   2.359  12.464
22260SOL    HW168677   7.097   2.350  12.369
22260SOL    HW268678   7.002   2.329  12.485
22261SOL     OW68679   4.550   1.399  12.671
22261SOL    HW168680   4.625   1.351  12.706
22261SOL    HW268681   4.566   1.490  12.693
22262SOL     OW68682  11.180  10.902   7.089
22262SOL    HW168683  11.252  10.859   7.136
22262SOL    HW268684  11.180  10.861   7.003
22263SOL     OW68685  11.118   9.601  14.609
22263SOL    HW168686  11.207   9.624  14.581
22263SOL    HW268687  11.062   9.662  14.562
22264SOL     OW68688  14.844   2.250   9.357
22264SOL    HW168689   0.069   2.262   9.363
22264SOL    HW268690  14.828   2.234   9.264
22265SOL     OW68691   1.465   0.153  11.949
22265SOL    HW168692   1.516   0.181  12.025
22265SOL    HW268693   1.447   0.061  11.965
22266SOL     OW68694   0.559   9.789  13.978
22266SOL    HW168695   0.597   9.874  13.999
22266SOL    HW268696   0.606   9.727  14.033
22267SOL     OW68697  14.017  10.780  10.569
22267SOL    HW168698  14.006  10.854  10.629
22267SOL    HW268699  14.109  10.786  10.541
22268SOL     OW68700   5.778   2.926   9.263
22268SOL    HW168701   5.721   3.001   9.249
22268SOL    HW268702   5.812   2.904   9.176
22269SOL     OW68703   9.608  13.011   8.156
22269SOL    HW168704   9.577  13.055   8.077
22269SOL    HW268705   9.528  12.979   8.198
22270SOL     OW68706   0.343  10.389   2.621
22270SOL    HW168707   0.413  10.346   2.573
22270SOL    HW268708   0.323  10.467   2.569
22271SOL     OW68709   7.814   3.297   4.993
22271SOL    HW168710   7.872   3.268   5.063
22271SOL    HW268711   7.861   3.276   4.912
22272SOL     OW68712   2.642  12.441  11.393
22272SOL    HW168713   2.651  12.489  11.475
22272SOL    HW268714   2.608  12.505  11.331
22273SOL     OW68715   2.954   2.407   6.336
22273SOL    HW168716   2.948   2.472   6.266
22273SOL    HW268717   3.015   2.341   6.303
22274SOL     OW68718   6.838   7.868   4.586
22274SOL    HW168719   6.810   7.846   4.675
22274SOL    HW268720   6.837   7.785   4.539
22275SOL     OW68721  10.938  10.073   9.822
22275SOL    HW168722  11.029  10.048   9.805
22275SOL    HW268723  10.898   9.995   9.859
22276SOL     OW68724   8.865   1.052  10.845
22276SOL    HW168725   8.931   1.112  10.811
22276SOL    HW268726   8.808   1.033  10.770
22277SOL     OW68727   0.240   7.306   3.023
22277SOL    HW168728   0.302   7.245   2.984
22277SOL    HW268729   0.214   7.265   3.105
22278SOL     OW68730  12.605   7.529   1.574
22278SOL    HW168731  12.541   7.564   1.512
22278SOL    HW268732  12.560   7.455   1.616
22279SOL     OW68733   6.914   9.173   5.174
22279SOL    HW168734   6.931   9.079   5.171
22279SOL    HW268735   6.982   9.212   5.119
22280SOL     OW68736   6.563   6.436   0.667
22280SOL    HW168737   6.611   6.428   0.585
22280SOL    HW268738   6.604   6.510   0.712
22281SOL     OW68739   6.442   0.479  11.323
22281SOL    HW168740   6.407   0.515  11.242
22281SOL    HW268741   6.497   0.406  11.296
22282SOL     OW68742  13.432  12.627   9.006
22282SOL    HW168743  13.450  12.615   9.099
22282SOL    HW268744  13.360  12.690   9.004
22283SOL     OW68745  14.414  12.500  12.972
22283SOL    HW168746  14.470  12.448  13.031
22283SOL    HW268747  14.461  12.502  12.889
22284SOL     OW68748   0.175  10.808  11.128
22284SOL    HW168749   0.163  10.723  11.087
22284SOL    HW268750   0.090  10.852  11.117
22285SOL     OW68751   0.146   7.423   1.472
22285SOL    HW168752   0.053   7.442   1.461
22285SOL    HW268753   0.163   7.437   1.565
22286SOL     OW68754   7.619   1.589   4.480
22286SOL    HW168755   7.586   1.671   4.444
22286SOL    HW268756   7.559   1.522   4.444
22287SOL     OW68757   8.799   6.488   0.756
22287SOL    HW168758   8.881   6.442   0.737
22287SOL    HW268759   8.740   6.462   0.686
22288SOL     OW68760  13.602   6.582   1.742
22288SOL    HW168761  13.553   6.664   1.736
22288SOL    HW268762  13.687   6.601   1.702
22289SOL     OW68763   4.590  13.421   1.641
22289SOL    HW168764   4.615  13.372   1.719
22289SOL    HW268765   4.654  13.493   1.636
22290SOL     OW68766   1.689   1.904   4.587
22290SOL    HW168767   1.751   1.833   4.598
22290SOL    HW268768   1.606   1.861   4.568
22291SOL     OW68769  11.757   9.093  10.569
22291SOL    HW168770  11.777   9.186  10.581
22291SOL    HW268771  11.838   9.048  10.593
22292SOL     OW68772   5.219   1.772   8.699
22292SOL    HW168773   5.137   1.822   8.699
22292SOL    HW268774   5.194   1.684   8.673
22293SOL     OW68775   5.374  11.552   0.780
22293SOL    HW168776   5.379  11.463   0.815
22293SOL    HW268777   5.447  11.559   0.720
22294SOL     OW68778  10.224   5.853  13.881
22294SOL    HW168779  10.253   5.925  13.937
22294SOL    HW268780  10.281   5.858  13.804
22295SOL     OW68781  11.287   2.817   5.006
22295SOL    HW168782  11.309   2.782   5.092
22295SOL    HW268783  11.308   2.745   4.946
22296SOL     OW68784   7.375  13.764   0.265
22296SOL    HW168785   7.373  13.770   0.170
22296SOL    HW268786   7.283  13.762   0.291
22297SOL     OW68787  10.945   9.334   1.333
22297SOL    HW168788  10.880   9.403   1.320
22297SOL    HW268789  11.016   9.377   1.382
22298SOL     OW68790   7.293   1.228  14.665
22298SOL    HW168791   7.257   1.140  14.678
22298SOL    HW268792   7.252   1.281  14.733
22299SOL     OW68793   2.437   3.830   1.690
22299SOL    HW168794   2.484   3.815   1.608
22299SOL    HW268795   2.504   3.859   1.751
22300SOL     OW68796   5.923   5.464   8.184
22300SOL    HW168797   5.946   5.541   8.235
22300SOL    HW268798   5.938   5.490   8.093
22301SOL     OW68799   3.812  14.793  10.956
22301SOL    HW168800   3.766  14.713  10.980
22301SOL    HW268801   3.816  14.843  11.038
22302SOL     OW68802   1.566  11.643   3.523
22302SOL    HW168803   1.555  11.575   3.589
22302SOL    HW268804   1.650  11.684   3.545
22303SOL     OW68805   6.563  14.741   9.078
22303SOL    HW168806   6.653  14.709   9.072
22303SOL    HW268807   6.549  14.756   9.171
22304SOL     OW68808  12.254   1.978   8.644
22304SOL    HW168809  12.177   2.034   8.647
22304SOL    HW268810  12.324   2.035   8.614
22305SOL     OW68811  12.804   1.450   6.238
22305SOL    HW168812  12.897   1.454   6.215
22305SOL    HW268813  12.772   1.540   6.223
22306SOL     OW68814   3.748  11.342   0.220
22306SOL    HW168815   3.799  11.393   0.156
22306SOL    HW268816   3.703  11.276   0.167
22307SOL     OW68817   0.623   4.383   8.972
22307SOL    HW168818   0.660   4.315   9.029
22307SOL    HW268819   0.680   4.459   8.985
22308SOL     OW68820   8.460  10.316   7.754
22308SOL    HW168821   8.495  10.357   7.675
22308SOL    HW268822   8.507  10.359   7.826
22309SOL     OW68823   5.572   9.515   3.536
22309SOL    HW168824   5.629   9.486   3.607
22309SOL    HW268825   5.602   9.467   3.460
22310SOL     OW68826   4.963   6.342  12.359
22310SOL    HW168827   5.039   6.391  12.328
22310SOL    HW268828   4.988   6.310  12.445
22311SOL     OW68829   6.373   4.894   4.651
22311SOL    HW168830   6.462   4.882   4.616
22311SOL    HW268831   6.382   4.965   4.714
22312SOL     OW68832   7.766   0.677  13.639
22312SOL    HW168833   7.695   0.629  13.597
22312SOL    HW268834   7.772   0.759  13.590
22313SOL     OW68835  14.858   6.361   0.305
22313SOL    HW168836   0.018   6.452   0.318
22313SOL    HW268837   0.053   6.308   0.352
22314SOL     OW68838   3.184  13.856  13.249
22314SOL    HW168839   3.225  13.817  13.173
22314SOL    HW268840   3.205  13.796  13.321
22315SOL     OW68841   1.788   9.215  13.936
22315SOL    HW168842   1.715   9.161  13.964
22315SOL    HW268843   1.841   9.158  13.880
22316SOL     OW68844  11.034   7.251   8.043
22316SOL    HW168845  11.093   7.297   8.103
22316SOL    HW268846  10.951   7.245   8.091
22317SOL     OW68847   1.396   5.831   0.021
22317SOL    HW168848   1.479   5.870   0.051
22317SOL    HW268849   1.412   5.737   0.024
22318SOL     OW68850   1.610  10.030   2.777
22318SOL    HW168851   1.626  10.031   2.682
22318SOL    HW268852   1.604   9.937   2.799
22319SOL     OW68853   0.454   5.756   9.601
22319SOL    HW168854   0.544   5.784   9.616
22319SOL    HW268855   0.448   5.743   9.507
22320SOL     OW68856   5.059  14.152   2.942
22320SOL    HW168857   5.087  14.137   3.032
22320SOL    HW268858   5.139  14.142   2.890
22321SOL     OW68859   7.601   4.850  14.803
22321SOL    HW168860   7.653   4.791  14.749
22321SOL    HW268861   7.545   4.792  14.854
22322SOL     OW68862   4.630   1.460   5.290
22322SOL    HW168863   4.713   1.412   5.293
22322SOL    HW268864   4.582   1.430   5.367
22323SOL     OW68865  12.899   6.309   8.662
22323SOL    HW168866  12.860   6.224   8.641
22323SOL    HW268867  12.978   6.287   8.711
22324SOL     OW68868   5.535  14.549  14.307
22324SOL    HW168869   5.556  14.458  14.327
22324SOL    HW268870   5.441  14.550  14.290
22325SOL     OW68871   2.003   2.790   4.249
22325SOL    HW168872   2.001   2.702   4.288
22325SOL    HW268873   1.913   2.808   4.225
22326SOL     OW68874  10.791  11.814   0.874
22326SOL    HW168875  10.876  11.858   0.865
22326SOL    HW268876  10.764  11.797   0.783
22327SOL     OW68877   3.085  12.916   6.128
22327SOL    HW168878   3.034  12.891   6.204
22327SOL    HW268879   3.058  12.856   6.059
22328SOL     OW68880  13.639   3.021   4.433
22328SOL    HW168881  13.683   2.958   4.489
22328SOL    HW268882  13.698   3.096   4.430
22329SOL     OW68883  12.469   6.224   3.865
22329SOL    HW168884  12.448   6.292   3.928
22329SOL    HW268885  12.408   6.238   3.793
22330SOL     OW68886   7.567   6.788   2.416
22330SOL    HW168887   7.500   6.780   2.348
22330SOL    HW268888   7.557   6.709   2.469
22331SOL     OW68889  10.382   0.390  11.524
22331SOL    HW168890  10.434   0.410  11.447
22331SOL    HW268891  10.298   0.433  11.509
22332SOL     OW68892   6.382   2.904  14.739
22332SOL    HW168893   6.391   2.961  14.662
22332SOL    HW268894   6.361   2.965  14.811
22333SOL     OW68895  14.217   0.626  12.483
22333SOL    HW168896  14.299   0.666  12.454
22333SOL    HW268897  14.150   0.689  12.457
22334SOL     OW68898   5.298   8.815   7.313
22334SOL    HW168899   5.214   8.862   7.320
22334SOL    HW268900   5.345   8.841   7.392
22335SOL     OW68901   7.099   1.089   0.703
22335SOL    HW168902   7.034   1.150   0.667
22335SOL    HW268903   7.074   1.079   0.795
22336SOL     OW68904  14.293   6.965  11.684
22336SOL    HW168905  14.270   6.957  11.777
22336SOL    HW268906  14.210   6.988  11.641
22337SOL     OW68907   5.110  11.545  12.788
22337SOL    HW168908   5.126  11.460  12.830
22337SOL    HW268909   5.015  11.554  12.788
22338SOL     OW68910   4.950  11.491  13.785
22338SOL    HW168911   4.965  11.429  13.856
22338SOL    HW268912   4.964  11.441  13.705
22339SOL     OW68913  14.048  12.052   8.041
22339SOL    HW168914  14.033  12.045   8.135
22339SOL    HW268915  13.962  12.039   8.001
22340SOL     OW68916   4.976   0.657   8.570
22340SOL    HW168917   5.013   0.569   8.564
22340SOL    HW268918   4.907   0.660   8.503
22341SOL     OW68919  10.276  10.011   1.358
22341SOL    HW168920  10.237   9.958   1.288
22341SOL    HW268921  10.211  10.011   1.428
22342SOL     OW68922   6.898   8.118   1.759
22342SOL    HW168923   6.936   8.035   1.729
22342SOL    HW268924   6.941   8.135   1.842
22343SOL     OW68925   9.756  13.250  10.634
22343SOL    HW168926   9.668  13.269  10.666
22343SOL    HW268927   9.748  13.252  10.539
22344SOL     OW68928   7.915  11.890   0.396
22344SOL    HW168929   7.862  11.966   0.418
22344SOL    HW268930   7.914  11.886   0.300
22345SOL     OW68931   1.694  14.377   4.227
22345SOL    HW168932   1.737  14.339   4.151
22345SOL    HW268933   1.713  14.471   4.222
22346SOL     OW68934   1.553  10.156  11.893
22346SOL    HW168935   1.517  10.200  11.816
22346SOL    HW268936   1.638  10.196  11.906
22347SOL     OW68937   1.486  14.137   1.429
22347SOL    HW168938   1.557  14.137   1.493
22347SOL    HW268939   1.429  14.209   1.457
22348SOL     OW68940  13.226   8.810   9.804
22348SOL    HW168941  13.156   8.806   9.869
22348SOL    HW268942  13.258   8.900   9.809
22349SOL     OW68943  13.907   8.201  10.984
22349SOL    HW168944  13.950   8.117  10.997
22349SOL    HW268945  13.980   8.263  10.971
22350SOL     OW68946  12.378   8.576   4.034
22350SOL    HW168947  12.287   8.560   4.057
22350SOL    HW268948  12.428   8.525   4.097
22351SOL     OW68949  11.798   5.028   6.134
22351SOL    HW168950  11.785   5.075   6.217
22351SOL    HW268951  11.876   4.975   6.148
22352SOL     OW68952  11.262   7.396   9.583
22352SOL    HW168953  11.259   7.424   9.675
22352SOL    HW268954  11.178   7.423   9.547
22353SOL     OW68955  13.025   0.727   3.337
22353SOL    HW168956  13.110   0.753   3.301
22353SOL    HW268957  12.961   0.779   3.287
22354SOL     OW68958   5.814   7.093   4.125
22354SOL    HW168959   5.833   7.059   4.038
22354SOL    HW268960   5.760   7.171   4.110
22355SOL     OW68961  14.597  13.100  10.503
22355SOL    HW168962  14.563  13.011  10.518
22355SOL    HW268963  14.664  13.111  10.570
22356SOL     OW68964   5.159  11.433   0.004
22356SOL    HW168965   5.135  11.481   0.084
22356SOL    HW268966   5.084  11.447  14.815
22357SOL     OW68967  10.399   4.225   3.177
22357SOL    HW168968  10.379   4.147   3.125
22357SOL    HW268969  10.489   4.211   3.207
22358SOL     OW68970   1.167   0.712   5.344
22358SOL    HW168971   1.178   0.622   5.374
22358SOL    HW268972   1.217   0.717   5.263
22359SOL     OW68973   6.439   2.682  11.118
22359SOL    HW168974   6.367   2.742  11.137
22359SOL    HW268975   6.414   2.600  11.161
22360SOL     OW68976   4.461   6.827  10.999
22360SOL    HW168977   4.425   6.741  11.018
22360SOL    HW268978   4.492   6.821  10.909
22361SOL     OW68979   7.810   1.669   1.076
22361SOL    HW168980   7.803   1.699   1.166
22361SOL    HW268981   7.860   1.587   1.081
22362SOL     OW68982  10.399  14.623  13.791
22362SOL    HW168983  10.443  14.538  13.778
22362SOL    HW268984  10.470  14.684  13.809
22363SOL     OW68985   2.604   2.008   4.391
22363SOL    HW168986   2.547   2.083   4.377
22363SOL    HW268987   2.544   1.934   4.400
22364SOL     OW68988   3.864   0.006   0.933
22364SOL    HW168989   3.792   0.033   0.990
22364SOL    HW268990   3.871   0.077   0.869
22365SOL     OW68991   9.960  10.189  14.407
22365SOL    HW168992  10.019  10.248  14.454
22365SOL    HW268993  10.003  10.175  14.322
22366SOL     OW68994   4.224   0.821  11.880
22366SOL    HW168995   4.231   0.747  11.820
22366SOL    HW268996   4.150   0.798  11.937
22367SOL     OW68997  10.829  13.662   3.581
22367SOL    HW168998  10.916  13.652   3.542
22367SOL    HW268999  10.819  13.585   3.636
22368SOL     OW69000   5.975   0.121  11.826
22368SOL    HW169001   5.977   0.152  11.735
22368SOL    HW269002   5.882   0.117  11.847
22369SOL     OW69003  14.572   7.009  12.277
22369SOL    HW169004  14.485   7.023  12.315
22369SOL    HW269005  14.556   6.960  12.196
22370SOL     OW69006   3.904   4.159  11.115
22370SOL    HW169007   3.927   4.222  11.046
22370SOL    HW269008   3.846   4.096  11.072
22371SOL     OW69009  13.503  14.702   2.572
22371SOL    HW169010  13.453  14.642   2.628
22371SOL    HW269011  13.438  14.763   2.538
22372SOL     OW69012   7.665  13.775   7.628
22372SOL    HW169013   7.712  13.731   7.699
22372SOL    HW269014   7.573  13.760   7.646
22373SOL     OW69015   5.538   2.896  10.702
22373SOL    HW169016   5.454   2.876  10.743
22373SOL    HW269017   5.555   2.987  10.728
22374SOL     OW69018   6.443   2.839   6.784
22374SOL    HW169019   6.350   2.856   6.775
22374SOL    HW269020   6.455   2.817   6.876
22375SOL     OW69021   6.455  12.844   5.077
22375SOL    HW169022   6.365  12.831   5.106
22375SOL    HW269023   6.482  12.926   5.118
22376SOL     OW69024   7.721   9.259   9.896
22376SOL    HW169025   7.680   9.284   9.813
22376SOL    HW269026   7.778   9.186   9.873
22377SOL     OW69027  13.501   6.675   1.370
22377SOL    HW169028  13.596   6.675   1.358
22377SOL    HW269029  13.489   6.702   1.461
22378SOL     OW69030   0.074   6.398   2.789
22378SOL    HW169031   0.031   6.407   2.704
22378SOL    HW269032   0.136   6.471   2.793
22379SOL     OW69033   7.882   9.605   7.939
22379SOL    HW169034   7.858   9.692   7.971
22379SOL    HW269035   7.798   9.563   7.919
22380SOL     OW69036   3.893   3.791  13.456
22380SOL    HW169037   3.974   3.811  13.502
22380SOL    HW269038   3.905   3.702  13.423
22381SOL     OW69039   7.847  12.379  11.802
22381SOL    HW169040   7.759  12.404  11.773
22381SOL    HW269041   7.835  12.296  11.847
22382SOL     OW69042   9.590   9.946  13.988
22382SOL    HW169043   9.530   9.956  14.061
22382SOL    HW269044   9.620   9.855  13.993
22383SOL     OW69045   9.482   7.613  11.936
22383SOL    HW169046   9.532   7.651  12.008
22383SOL    HW269047   9.391   7.621  11.963
22384SOL     OW69048  14.126   1.907  14.563
22384SOL    HW169049  14.189   1.861  14.618
22384SOL    HW269050  14.119   1.853  14.484
22385SOL     OW69051   5.666   6.776  13.162
22385SOL    HW169052   5.762   6.775  13.168
22385SOL    HW269053   5.644   6.869  13.158
22386SOL     OW69054   7.777   4.077  13.288
22386SOL    HW169055   7.840   4.059  13.219
22386SOL    HW269056   7.768   4.172  13.288
22387SOL     OW69057  12.154   4.300   6.495
22387SOL    HW169058  12.060   4.305   6.508
22387SOL    HW269059  12.167   4.329   6.405
22388SOL     OW69060   1.068   9.160   8.991
22388SOL    HW169061   1.130   9.223   8.954
22388SOL    HW269062   1.093   9.076   8.952
22389SOL     OW69063   6.563   7.326  11.259
22389SOL    HW169064   6.594   7.315  11.349
22389SOL    HW269065   6.641   7.311  11.205
22390SOL     OW69066  10.135  11.908   8.109
22390SOL    HW169067  10.160  11.951   8.191
22390SOL    HW269068  10.047  11.941   8.092
22391SOL     OW69069   7.660   5.099   4.970
22391SOL    HW169070   7.585   5.080   4.913
22391SOL    HW269071   7.706   5.016   4.977
22392SOL     OW69072  12.132   4.365  12.404
22392SOL    HW169073  12.140   4.352  12.310
22392SOL    HW269074  12.216   4.338  12.440
22393SOL     OW69075   3.099   5.258   9.712
22393SOL    HW169076   3.136   5.170   9.718
22393SOL    HW269077   3.171   5.315   9.741
22394SOL     OW69078  11.310  10.036   3.928
22394SOL    HW169079  11.319  10.111   3.870
22394SOL    HW269080  11.215  10.025   3.939
22395SOL     OW69081   1.959   4.841   4.962
22395SOL    HW169082   2.003   4.900   4.901
22395SOL    HW269083   1.978   4.753   4.930
22396SOL     OW69084  10.472   4.768  13.942
22396SOL    HW169085  10.540   4.702  13.928
22396SOL    HW269086  10.393   4.729  13.904
22397SOL     OW69087  13.711  11.739  12.702
22397SOL    HW169088  13.740  11.649  12.712
22397SOL    HW269089  13.774  11.790  12.754
22398SOL     OW69090   3.846   7.650   1.706
22398SOL    HW169091   3.928   7.611   1.678
22398SOL    HW269092   3.778   7.595   1.667
22399SOL     OW69093   0.186   0.512   7.675
22399SOL    HW169094   0.269   0.523   7.627
22399SOL    HW269095   0.213   0.486   7.763
22400SOL     OW69096  11.739   5.540   1.943
22400SOL    HW169097  11.685   5.491   2.005
22400SOL    HW269098  11.821   5.556   1.990
22401SOL     OW69099   9.149   0.108  14.393
22401SOL    HW169100   9.059   0.127  14.367
22401SOL    HW269101   9.190   0.075  14.313
22402SOL     OW69102  13.367   3.746  11.274
22402SOL    HW169103  13.352   3.744  11.369
22402SOL    HW269104  13.373   3.654  11.249
22403SOL     OW69105   6.790   8.806   3.297
22403SOL    HW169106   6.828   8.822   3.383
22403SOL    HW269107   6.774   8.711   3.295
22404SOL     OW69108   5.886   8.800   8.632
22404SOL    HW169109   5.860   8.851   8.556
22404SOL    HW269110   5.848   8.713   8.617
22405SOL     OW69111  13.078   3.019  10.998
22405SOL    HW169112  13.058   3.110  10.977
22405SOL    HW269113  13.027   2.968  10.935
22406SOL     OW69114   7.328   9.497  14.837
22406SOL    HW169115   7.358   9.411  14.867
22406SOL    HW269116   7.350   9.557   0.039
22407SOL     OW69117   1.561  12.815   1.950
22407SOL    HW169118   1.533  12.813   1.858
22407SOL    HW269119   1.656  12.820   1.945
22408SOL     OW69120  13.136   1.259   2.617
22408SOL    HW169121  13.066   1.314   2.654
22408SOL    HW269122  13.156   1.301   2.533
22409SOL     OW69123   5.455   5.904  14.072
22409SOL    HW169124   5.516   5.977  14.064
22409SOL    HW269125   5.374   5.944  14.105
22410SOL     OW69126  14.310   9.848   1.578
22410SOL    HW169127  14.251   9.821   1.507
22410SOL    HW269128  14.390   9.797   1.564
22411SOL     OW69129   4.777  14.793  11.893
22411SOL    HW169130   4.787  14.715  11.838
22411SOL    HW269131   4.722  14.764  11.966
22412SOL     OW69132   7.420  11.654  10.814
22412SOL    HW169133   7.433  11.651  10.909
22412SOL    HW269134   7.492  11.708  10.782
22413SOL     OW69135  11.361   1.517  12.388
22413SOL    HW169136  11.272   1.480  12.396
22413SOL    HW269137  11.365   1.584  12.456
22414SOL     OW69138   2.348   2.212  14.128
22414SOL    HW169139   2.407   2.145  14.093
22414SOL    HW269140   2.268   2.164  14.150
22415SOL     OW69141   1.304   4.763  13.031
22415SOL    HW169142   1.371   4.701  13.058
22415SOL    HW269143   1.348   4.848  13.035
22416SOL     OW69144   6.797   7.587  14.257
22416SOL    HW169145   6.777   7.653  14.323
22416SOL    HW269146   6.730   7.599  14.190
22417SOL     OW69147  13.693   6.825  12.364
22417SOL    HW169148  13.754   6.817  12.437
22417SOL    HW269149  13.705   6.744  12.314
22418SOL     OW69150  13.919   2.765   5.302
22418SOL    HW169151  13.893   2.847   5.260
22418SOL    HW269152  13.919   2.786   5.396
22419SOL     OW69153   7.708  11.819   3.071
22419SOL    HW169154   7.699  11.872   2.992
22419SOL    HW269155   7.622  11.822   3.113
22420SOL     OW69156  14.571   2.306  11.257
22420SOL    HW169157  14.481   2.302  11.289
22420SOL    HW269158  14.565   2.349  11.172
22421SOL     OW69159   2.294   2.778   6.025
22421SOL    HW169160   2.259   2.833   5.955
22421SOL    HW269161   2.273   2.825   6.105
22422SOL     OW69162  11.427  12.622  10.574
22422SOL    HW169163  11.484  12.548  10.592
22422SOL    HW269164  11.421  12.668  10.658
22423SOL     OW69165   6.179   0.102   5.956
22423SOL    HW169166   6.178   0.031   6.020
22423SOL    HW269167   6.154   0.180   6.005
22424SOL     OW69168  13.862  10.422  14.394
22424SOL    HW169169  13.956  10.405  14.405
22424SOL    HW269170  13.857  10.497  14.335
22425SOL     OW69171  12.164   4.616   4.129
22425SOL    HW169172  12.182   4.570   4.047
22425SOL    HW269173  12.188   4.707   4.111
22426SOL     OW69174   8.464  10.831   0.374
22426SOL    HW169175   8.514  10.803   0.451
22426SOL    HW269176   8.515  10.904   0.339
22427SOL     OW69177   0.638  14.841   6.460
22427SOL    HW169178   0.691   0.046   6.488
22427SOL    HW269179   0.572   0.009   6.402
22428SOL     OW69180  12.702   8.795  10.682
22428SOL    HW169181  12.643   8.822  10.752
22428SOL    HW269182  12.783   8.770  10.726
22429SOL     OW69183  10.884   3.116   8.945
22429SOL    HW169184  10.900   3.209   8.927
22429SOL    HW269185  10.854   3.079   8.862
22430SOL     OW69186  11.513   5.673  10.255
22430SOL    HW169187  11.577   5.700  10.321
22430SOL    HW269188  11.551   5.594  10.216
22431SOL     OW69189   9.731   1.998   4.323
22431SOL    HW169190   9.663   2.065   4.323
22431SOL    HW269191   9.809   2.043   4.290
22432SOL     OW69192  12.354  10.724  13.550
22432SOL    HW169193  12.349  10.772  13.468
22432SOL    HW269194  12.418  10.773  13.602
22433SOL     OW69195   5.417   5.056   8.586
22433SOL    HW169196   5.381   5.060   8.497
22433SOL    HW269197   5.368   4.985   8.628
22434SOL     OW69198   5.972   2.591   6.443
22434SOL    HW169199   5.943   2.532   6.373
22434SOL    HW269200   5.972   2.678   6.403
22435SOL     OW69201   5.162   6.021   5.858
22435SOL    HW169202   5.110   6.097   5.835
22435SOL    HW269203   5.178   5.977   5.774
22436SOL     OW69204  13.874   8.964   1.382
22436SOL    HW169205  13.783   8.989   1.362
22436SOL    HW269206  13.926   9.008   1.315
22437SOL     OW69207   3.550   6.225   5.821
22437SOL    HW169208   3.493   6.212   5.745
22437SOL    HW269209   3.522   6.308   5.858
22438SOL     OW69210  10.372   6.620   7.912
22438SOL    HW169211  10.415   6.627   7.997
22438SOL    HW269212  10.278   6.621   7.932
22439SOL     OW69213   9.656   0.543   3.295
22439SOL    HW169214   9.588   0.476   3.289
22439SOL    HW269215   9.738   0.495   3.289
22440SOL     OW69216   2.192   6.220  14.420
22440SOL    HW169217   2.217   6.155  14.355
22440SOL    HW269218   2.190   6.171  14.503
22441SOL     OW69219   0.856   0.450   4.021
22441SOL    HW169220   0.778   0.433   4.074
22441SOL    HW269221   0.847   0.392   3.946
22442SOL     OW69222   5.429  12.599   6.152
22442SOL    HW169223   5.394  12.559   6.231
22442SOL    HW269224   5.453  12.688   6.179
22443SOL     OW69225   3.682   0.854   6.024
22443SOL    HW169226   3.709   0.935   5.979
22443SOL    HW269227   3.712   0.865   6.114
22444SOL     OW69228  14.684   7.963  12.252
22444SOL    HW169229  14.655   7.985  12.163
22444SOL    HW269230  14.762   8.017  12.266
22445SOL     OW69231   4.469   6.581   2.829
22445SOL    HW169232   4.550   6.533   2.846
22445SOL    HW269233   4.402   6.533   2.878
22446SOL     OW69234   0.701  12.427   6.634
22446SOL    HW169235   0.691  12.474   6.551
22446SOL    HW269236   0.753  12.486   6.689
22447SOL     OW69237   5.534   7.757   2.468
22447SOL    HW169238   5.607   7.712   2.511
22447SOL    HW269239   5.546   7.739   2.375
22448SOL     OW69240  10.817   3.873   3.704
22448SOL    HW169241  10.891   3.819   3.729
22448SOL    HW269242  10.846   3.963   3.720
22449SOL     OW69243   0.475   2.315   4.218
22449SOL    HW169244   0.453   2.235   4.170
22449SOL    HW269245   0.445   2.386   4.162
22450SOL     OW69246   2.074  13.472  13.687
22450SOL    HW169247   2.134  13.460  13.760
22450SOL    HW269248   1.987  13.466  13.725
22451SOL     OW69249  13.575  12.297   2.639
22451SOL    HW169250  13.536  12.381   2.664
22451SOL    HW269251  13.553  12.237   2.710
22452SOL     OW69252   3.884   7.986  10.009
22452SOL    HW169253   3.883   8.039   9.929
22452SOL    HW269254   3.827   7.912   9.990
22453SOL     OW69255   8.066  13.204   2.178
22453SOL    HW169256   8.046  13.281   2.126
22453SOL    HW269257   8.058  13.130   2.117
22454SOL     OW69258   8.664  10.623   2.189
22454SOL    HW169259   8.704  10.537   2.204
22454SOL    HW269260   8.681  10.641   2.097
22455SOL     OW69261   6.087  10.845   9.924
22455SOL    HW169262   6.043  10.918   9.879
22455SOL    HW269263   6.119  10.789   9.854
22456SOL     OW69264   4.036   9.627   2.559
22456SOL    HW169265   4.097   9.679   2.507
22456SOL    HW269266   4.054   9.652   2.650
22457SOL     OW69267  13.464   5.808   0.563
22457SOL    HW169268  13.450   5.804   0.658
22457SOL    HW269269  13.541   5.863   0.552
22458SOL     OW69270   3.330   4.470   4.410
22458SOL    HW169271   3.303   4.380   4.394
22458SOL    HW269272   3.277   4.499   4.484
22459SOL     OW69273  10.713   3.653  12.225
22459SOL    HW169274  10.750   3.739  12.244
22459SOL    HW269275  10.691   3.656  12.132
22460SOL     OW69276   1.966  13.441   0.965
22460SOL    HW169277   1.993  13.376   1.029
22460SOL    HW269278   1.949  13.520   1.016
22461SOL     OW69279   7.083   9.905  13.511
22461SOL    HW169280   7.069   9.894  13.605
22461SOL    HW269281   6.999   9.937  13.477
22462SOL     OW69282  13.524  11.994   2.464
22462SOL    HW169283  13.454  12.052   2.493
22462SOL    HW269284  13.529  12.009   2.370
22463SOL     OW69285   8.813   7.964   5.414
22463SOL    HW169286   8.720   7.944   5.401
22463SOL    HW269287   8.813   8.054   5.447
22464SOL     OW69288   2.596   8.364  13.206
22464SOL    HW169289   2.676   8.380  13.255
22464SOL    HW269290   2.581   8.446  13.158
22465SOL     OW69291   7.313  14.457  13.266
22465SOL    HW169292   7.393  14.506  13.249
22465SOL    HW269293   7.281  14.491  13.350
22466SOL     OW69294   6.866   7.555   9.955
22466SOL    HW169295   6.914   7.476   9.929
22466SOL    HW269296   6.916   7.591  10.028
22467SOL     OW69297   9.270   4.101   0.839
22467SOL    HW169298   9.340   4.106   0.904
22467SOL    HW269299   9.313   4.072   0.759
22468SOL     OW69300   2.234   8.680  11.544
22468SOL    HW169301   2.139   8.679  11.554
22468SOL    HW269302   2.259   8.587  11.537
22469SOL     OW69303  12.560   4.622   7.409
22469SOL    HW169304  12.491   4.559   7.389
22469SOL    HW269305  12.513   4.704   7.427
22470SOL     OW69306  12.263   2.471  11.222
22470SOL    HW169307  12.289   2.556  11.259
22470SOL    HW269308  12.345   2.428  11.199
22471SOL     OW69309   0.110   4.503   1.683
22471SOL    HW169310   0.080   4.419   1.718
22471SOL    HW269311   0.030   4.555   1.674
22472SOL     OW69312   5.799  12.699   4.821
22472SOL    HW169313   5.848  12.709   4.902
22472SOL    HW269314   5.821  12.776   4.769
22473SOL     OW69315   4.755   0.150  10.215
22473SOL    HW169316   4.793   0.190  10.293
22473SOL    HW269317   4.786   0.060  10.216
22474SOL     OW69318  12.226   5.633   5.120
22474SOL    HW169319  12.168   5.633   5.043
22474SOL    HW269320  12.310   5.603   5.086
22475SOL     OW69321   2.611   8.580   8.387
22475SOL    HW169322   2.683   8.517   8.396
22475SOL    HW269323   2.611   8.628   8.470
22476SOL     OW69324   5.154   7.081  13.747
22476SOL    HW169325   5.145   7.043  13.660
22476SOL    HW269326   5.151   7.006  13.807
22477SOL     OW69327   1.482   5.803  14.028
22477SOL    HW169328   1.439   5.874  14.075
22477SOL    HW269329   1.458   5.816  13.937
22478SOL     OW69330   0.726   9.897   1.431
22478SOL    HW169331   0.654   9.901   1.369
22478SOL    HW269332   0.798   9.945   1.389
22479SOL     OW69333  13.091   8.260  14.540
22479SOL    HW169334  13.170   8.304  14.572
22479SOL    HW269335  13.060   8.209  14.615
22480SOL     OW69336   3.963   4.943   3.120
22480SOL    HW169337   3.902   4.951   3.047
22480SOL    HW269338   3.958   5.028   3.164
22481SOL     OW69339   4.712   7.930   3.416
22481SOL    HW169340   4.768   7.882   3.477
22481SOL    HW269341   4.751   7.913   3.330
22482SOL     OW69342   5.365   9.051   1.997
22482SOL    HW169343   5.365   9.001   1.915
22482SOL    HW269344   5.455   9.046   2.028
22483SOL     OW69345   3.043  12.627   5.167
22483SOL    HW169346   3.076  12.668   5.087
22483SOL    HW269347   3.059  12.692   5.236
22484SOL     OW69348   6.661  12.358   3.336
22484SOL    HW169349   6.755  12.361   3.315
22484SOL    HW269350   6.623  12.431   3.287
22485SOL     OW69351   6.027  10.282   8.897
22485SOL    HW169352   6.087  10.323   8.835
22485SOL    HW269353   6.058  10.191   8.904
22486SOL     OW69354   9.605   6.473  10.549
22486SOL    HW169355   9.577   6.440  10.464
22486SOL    HW269356   9.559   6.557  10.558
22487SOL     OW69357   2.329   7.688   6.658
22487SOL    HW169358   2.334   7.594   6.675
22487SOL    HW269359   2.235   7.706   6.654
22488SOL     OW69360   0.516   2.115  12.291
22488SOL    HW169361   0.508   2.149  12.202
22488SOL    HW269362   0.568   2.036  12.283
22489SOL     OW69363  13.053  12.270   9.888
22489SOL    HW169364  12.984  12.255   9.953
22489SOL    HW269365  13.051  12.192   9.833
22490SOL     OW69366   6.439  13.523   5.826
22490SOL    HW169367   6.510  13.472   5.788
22490SOL    HW269368   6.359  13.475   5.804
22491SOL     OW69369   8.786   7.662   8.763
22491SOL    HW169370   8.843   7.739   8.761
22491SOL    HW269371   8.765   7.645   8.671
22492SOL     OW69372   1.261   9.069   5.866
22492SOL    HW169373   1.331   9.057   5.930
22492SOL    HW269374   1.272   8.996   5.805
22493SOL     OW69375   3.426   7.059  12.395
22493SOL    HW169376   3.405   6.966  12.406
22493SOL    HW269377   3.366   7.105  12.454
22494SOL     OW69378   6.353  10.826   2.734
22494SOL    HW169379   6.425  10.774   2.770
22494SOL    HW269380   6.388  10.863   2.653
22495SOL     OW69381   3.312  10.322   8.461
22495SOL    HW169382   3.386  10.262   8.451
22495SOL    HW269383   3.352  10.405   8.485
22496SOL     OW69384   8.333   0.970  12.514
22496SOL    HW169385   8.287   0.897  12.472
22496SOL    HW269386   8.329   0.950  12.608
22497SOL     OW69387  12.032   3.674  12.421
22497SOL    HW169388  12.035   3.768  12.435
22497SOL    HW269389  12.110   3.640  12.466
22498SOL     OW69390   3.519  12.208  13.836
22498SOL    HW169391   3.606  12.202  13.797
22498SOL    HW269392   3.532  12.258  13.917
22499SOL     OW69393   0.699   4.199   5.247
22499SOL    HW169394   0.693   4.258   5.171
22499SOL    HW269395   0.711   4.258   5.321
22500SOL     OW69396   2.196   1.916  12.442
22500SOL    HW169397   2.164   1.918  12.533
22500SOL    HW269398   2.124   1.878  12.392
22501SOL     OW69399   6.744  11.305   8.973
22501SOL    HW169400   6.650  11.298   8.954
22501SOL    HW269401   6.758  11.243   9.044
22502SOL     OW69402   1.547   2.955   4.393
22502SOL    HW169403   1.642   2.942   4.397
22502SOL    HW269404   1.510   2.873   4.424
22503SOL     OW69405  12.524  10.247  10.157
22503SOL    HW169406  12.472  10.246  10.077
22503SOL    HW269407  12.576  10.166  10.152
22504SOL     OW69408   1.672   0.884  12.732
22504SOL    HW169409   1.645   0.871  12.823
22504SOL    HW269410   1.705   0.974  12.730
22505SOL     OW69411   3.894  12.401  13.306
22505SOL    HW169412   3.893  12.471  13.371
22505SOL    HW269413   3.882  12.445  13.222
22506SOL     OW69414   7.890   0.390  14.795
22506SOL    HW169415   7.871   0.327  14.726
22506SOL    HW269416   7.899   0.473  14.750
22507SOL     OW69417  13.112   5.818   1.670
22507SOL    HW169418  13.178   5.822   1.740
22507SOL    HW269419  13.154   5.861   1.595
22508SOL     OW69420   1.793   0.382   2.750
22508SOL    HW169421   1.754   0.458   2.793
22508SOL    HW269422   1.844   0.419   2.678
22509SOL     OW69423   3.836   8.061  12.305
22509SOL    HW169424   3.921   8.073  12.348
22509SOL    HW269425   3.809   7.973  12.329
22510SOL     OW69426  10.731  13.949  14.369
22510SOL    HW169427  10.712  13.908  14.453
22510SOL    HW269428  10.819  13.920  14.347
22511SOL     OW69429   4.374   6.294   9.180
22511SOL    HW169430   4.464   6.311   9.206
22511SOL    HW269431   4.376   6.208   9.139
22512SOL     OW69432   1.853   0.223   2.949
22512SOL    HW169433   1.828   0.281   2.877
22512SOL    HW269434   1.831   0.135   2.919
22513SOL     OW69435  12.907   5.812  14.130
22513SOL    HW169436  12.927   5.718  14.134
22513SOL    HW269437  12.812   5.816  14.141
22514SOL     OW69438  14.499  11.680   5.835
22514SOL    HW169439  14.403  11.676   5.845
22514SOL    HW269440  14.523  11.593   5.801
22515SOL     OW69441  10.949   6.763   0.257
22515SOL    HW169442  11.029   6.813   0.274
22515SOL    HW269443  10.878   6.826   0.273
22516SOL     OW69444   5.044  10.548  10.023
22516SOL    HW169445   4.979  10.506   9.966
22516SOL    HW269446   5.128  10.517   9.990
22517SOL     OW69447  13.886  12.383   3.696
22517SOL    HW169448  13.948  12.324   3.738
22517SOL    HW269449  13.881  12.352   3.605
22518SOL     OW69450   5.478   1.576  12.910
22518SOL    HW169451   5.400   1.520  12.914
22518SOL    HW269452   5.549   1.519  12.940
22519SOL     OW69453   1.566   3.682   9.129
22519SOL    HW169454   1.640   3.715   9.078
22519SOL    HW269455   1.586   3.709   9.219
22520SOL     OW69456   7.211  13.981  11.496
22520SOL    HW169457   7.292  13.934  11.515
22520SOL    HW269458   7.203  13.977  11.400
22521SOL     OW69459   5.225  12.052  11.306
22521SOL    HW169460   5.258  11.962  11.309
22521SOL    HW269461   5.248  12.088  11.392
22522SOL     OW69462   0.830   8.847   0.937
22522SOL    HW169463   0.804   8.755   0.941
22522SOL    HW269464   0.748   8.894   0.923
22523SOL     OW69465   9.249  11.177   8.864
22523SOL    HW169466   9.242  11.082   8.854
22523SOL    HW269467   9.227  11.194   8.956
22524SOL     OW69468   0.694  10.125   4.903
22524SOL    HW169469   0.614  10.163   4.940
22524SOL    HW269470   0.750  10.110   4.979
22525SOL     OW69471  12.909   9.601   5.640
22525SOL    HW169472  12.997   9.622   5.671
22525SOL    HW269473  12.858   9.679   5.658
22526SOL     OW69474   9.747   9.902  11.506
22526SOL    HW169475   9.785   9.846  11.574
22526SOL    HW269476   9.671   9.852  11.475
22527SOL     OW69477   1.140   1.144   6.383
22527SOL    HW169478   1.085   1.078   6.425
22527SOL    HW269479   1.229   1.122   6.409
22528SOL     OW69480   6.040  14.695   3.346
22528SOL    HW169481   6.084  14.723   3.266
22528SOL    HW269482   5.984  14.769   3.369
22529SOL     OW69483   5.757   1.273  12.711
22529SOL    HW169484   5.673   1.240  12.742
22529SOL    HW269485   5.738   1.362  12.680
22530SOL     OW69486  14.816   7.777   0.288
22530SOL    HW169487  14.816   7.834   0.365
22530SOL    HW269488  14.815   7.838   0.214
22531SOL     OW69489   2.498   1.731   9.768
22531SOL    HW169490   2.469   1.756   9.856
22531SOL    HW269491   2.455   1.793   9.710
22532SOL     OW69492  12.053   5.283   8.944
22532SOL    HW169493  12.133   5.255   8.900
22532SOL    HW269494  12.019   5.354   8.888
22533SOL     OW69495   6.951   3.397  12.642
22533SOL    HW169496   6.939   3.357  12.728
22533SOL    HW269497   7.042   3.426  12.641
22534SOL     OW69498  11.138   4.709   3.135
22534SOL    HW169499  11.143   4.721   3.229
22534SOL    HW269500  11.050   4.739   3.111
22535SOL     OW69501   2.872   0.974   4.403
22535SOL    HW169502   2.893   1.023   4.483
22535SOL    HW269503   2.781   0.948   4.415
22536SOL     OW69504   4.344   6.963   5.341
22536SOL    HW169505   4.320   6.947   5.250
22536SOL    HW269506   4.389   7.047   5.341
22537SOL     OW69507  13.302  13.049  14.745
22537SOL    HW169508  13.239  12.977  14.745
22537SOL    HW269509  13.374  13.018  14.691
22538SOL     OW69510   6.067  10.286   9.414
22538SOL    HW169511   6.077  10.232   9.335
22538SOL    HW269512   6.067  10.222   9.486
22539SOL     OW69513  11.186  11.572   8.849
22539SOL    HW169514  11.258  11.590   8.788
22539SOL    HW269515  11.198  11.636   8.919
22540SOL     OW69516   5.134   9.110  13.535
22540SOL    HW169517   5.053   9.138  13.577
22540SOL    HW269518   5.200   9.174  13.563
22541SOL     OW69519  13.327  11.993  14.854
22541SOL    HW169520  13.345  12.058  14.786
22541SOL    HW269521  13.315  11.911  14.807
22542SOL     OW69522   1.720   6.692  14.162
22542SOL    HW169523   1.690   6.777  14.128
22542SOL    HW269524   1.696   6.629  14.094
22543SOL     OW69525  11.358   6.648   8.388
22543SOL    HW169526  11.369   6.552   8.390
22543SOL    HW269527  11.282   6.664   8.444
22544SOL     OW69528   2.268   8.593   1.177
22544SOL    HW169529   2.333   8.572   1.110
22544SOL    HW269530   2.319   8.626   1.251
22545SOL     OW69531   1.624   9.100   1.755
22545SOL    HW169532   1.605   9.016   1.797
22545SOL    HW269533   1.640   9.077   1.663
22546SOL     OW69534   9.711   3.323   1.711
22546SOL    HW169535   9.658   3.314   1.790
22546SOL    HW269536   9.788   3.268   1.728
22547SOL     OW69537  14.439   6.795   9.312
22547SOL    HW169538  14.478   6.819   9.228
22547SOL    HW269539  14.427   6.700   9.307
22548SOL     OW69540   0.907   4.707   9.960
22548SOL    HW169541   0.926   4.798   9.984
22548SOL    HW269542   0.839   4.680  10.022
22549SOL     OW69543   8.612   2.688   5.705
22549SOL    HW169544   8.644   2.776   5.725
22549SOL    HW269545   8.685   2.645   5.661
22550SOL     OW69546  11.731   7.413   6.840
22550SOL    HW169547  11.790   7.425   6.915
22550SOL    HW269548  11.649   7.454   6.867
22551SOL     OW69549   1.130   1.603  14.713
22551SOL    HW169550   1.161   1.552  14.788
22551SOL    HW269551   1.036   1.614  14.729
22552SOL     OW69552   4.493  13.592   4.867
22552SOL    HW169553   4.544  13.520   4.905
22552SOL    HW269554   4.495  13.661   4.933
22553SOL     OW69555  13.154   4.744   8.404
22553SOL    HW169556  13.062   4.750   8.428
22553SOL    HW269557  13.181   4.658   8.435
22554SOL     OW69558   7.660   9.180   3.730
22554SOL    HW169559   7.575   9.149   3.697
22554SOL    HW269560   7.676   9.261   3.682
22555SOL     OW69561  13.958  12.319  12.242
22555SOL    HW169562  13.982  12.409  12.266
22555SOL    HW269563  13.979  12.267  12.320
22556SOL     OW69564   7.190   9.836   1.578
22556SOL    HW169565   7.200   9.901   1.647
22556SOL    HW269566   7.280   9.816   1.551
22557SOL     OW69567   0.480   7.088  12.909
22557SOL    HW169568   0.515   7.176  12.923
22557SOL    HW269569   0.556   7.035  12.888
22558SOL     OW69570   5.443   8.104  13.842
22558SOL    HW169571   5.505   8.093  13.915
22558SOL    HW269572   5.380   8.033  13.854
22559SOL     OW69573   6.785   9.147   0.695
22559SOL    HW169574   6.861   9.124   0.642
22559SOL    HW269575   6.748   9.063   0.722
22560SOL     OW69576  11.208   4.187  10.158
22560SOL    HW169577  11.170   4.274  10.150
22560SOL    HW269578  11.215   4.172  10.252
22561SOL     OW69579  13.742  13.960  12.863
22561SOL    HW169580  13.819  13.937  12.915
22561SOL    HW269581  13.672  13.905  12.898
22562SOL     OW69582  11.012   0.906   5.587
22562SOL    HW169583  10.919   0.885   5.599
22562SOL    HW269584  11.046   0.915   5.676
22563SOL     OW69585  11.351  14.374   3.731
22563SOL    HW169586  11.371  14.297   3.783
22563SOL    HW269587  11.424  14.381   3.669
22564SOL     OW69588   5.346  10.887  12.952
22564SOL    HW169589   5.411  10.878  12.882
22564SOL    HW269590   5.324  10.980  12.951
22565SOL     OW69591   2.049  11.524  12.195
22565SOL    HW169592   2.061  11.497  12.286
22565SOL    HW269593   2.066  11.445  12.144
22566SOL     OW69594   1.083  11.408   0.755
22566SOL    HW169595   1.141  11.376   0.686
22566SOL    HW269596   1.036  11.330   0.785
22567SOL     OW69597  14.335  14.700   2.709
22567SOL    HW169598  14.270  14.667   2.648
22567SOL    HW269599  14.365  14.623   2.756
22568SOL     OW69600  10.164   1.429  11.913
22568SOL    HW169601  10.091   1.429  11.975
22568SOL    HW269602  10.238   1.464  11.963
22569SOL     OW69603  11.689   2.105   2.421
22569SOL    HW169604  11.668   2.032   2.363
22569SOL    HW269605  11.612   2.114   2.477
22570SOL     OW69606  10.415   2.208   0.563
22570SOL    HW169607  10.427   2.129   0.510
22570SOL    HW269608  10.445   2.279   0.508
22571SOL     OW69609   1.449   9.489   3.442
22571SOL    HW169610   1.418   9.557   3.502
22571SOL    HW269611   1.404   9.409   3.471
22572SOL     OW69612  13.081  11.195  13.044
22572SOL    HW169613  13.152  11.204  12.980
22572SOL    HW269614  13.125  11.179  13.127
22573SOL     OW69615  14.776   7.469   5.102
22573SOL    HW169616  14.747   7.559   5.088
22573SOL    HW269617  14.711   7.432   5.162
22574SOL     OW69618   6.923   2.440  10.035
22574SOL    HW169619   6.900   2.348  10.050
22574SOL    HW269620   6.990   2.437   9.967
22575SOL     OW69621   1.918   9.188   7.340
22575SOL    HW169622   1.993   9.239   7.311
22575SOL    HW269623   1.842   9.238   7.312
22576SOL     OW69624   7.354   8.941   4.761
22576SOL    HW169625   7.327   8.954   4.670
22576SOL    HW269626   7.346   9.028   4.801
22577SOL     OW69627   7.625   4.429   5.655
22577SOL    HW169628   7.711   4.470   5.664
22577SOL    HW269629   7.643   4.336   5.648
22578SOL     OW69630   6.345  14.311   8.010
22578SOL    HW169631   6.266  14.290   7.960
22578SOL    HW269632   6.352  14.241   8.075
22579SOL     OW69633   8.965  12.492  12.018
22579SOL    HW169634   8.980  12.526  12.107
22579SOL    HW269635   8.979  12.398  12.026
22580SOL     OW69636   6.430   8.405   7.353
22580SOL    HW169637   6.390   8.364   7.429
22580SOL    HW269638   6.524   8.399   7.370
22581SOL     OW69639   7.698   2.140  11.130
22581SOL    HW169640   7.764   2.134  11.061
22581SOL    HW269641   7.726   2.213  11.185
22582SOL     OW69642   7.467  13.316  12.141
22582SOL    HW169643   7.524  13.242  12.164
22582SOL    HW269644   7.379  13.284  12.160
22583SOL     OW69645   2.123   6.300   0.671
22583SOL    HW169646   2.212   6.336   0.662
22583SOL    HW269647   2.117   6.273   0.763
22584SOL     OW69648  13.694   1.978   9.198
22584SOL    HW169649  13.672   2.064   9.164
22584SOL    HW269650  13.719   1.993   9.289
22585SOL     OW69651   5.819  12.116   6.194
22585SOL    HW169652   5.784  12.167   6.266
22585SOL    HW269653   5.759  12.042   6.186
22586SOL     OW69654   6.605   6.635   6.146
22586SOL    HW169655   6.552   6.563   6.181
22586SOL    HW269656   6.662   6.594   6.081
22587SOL     OW69657  12.881   2.158   1.556
22587SOL    HW169658  12.876   2.106   1.637
22587SOL    HW269659  12.795   2.198   1.547
22588SOL     OW69660   9.216   6.806  14.135
22588SOL    HW169661   9.273   6.776  14.064
22588SOL    HW269662   9.200   6.898  14.116
22589SOL     OW69663   6.272   1.879  10.157
22589SOL    HW169664   6.198   1.883  10.217
22589SOL    HW269665   6.307   1.968  10.157
22590SOL     OW69666   2.515  14.241  10.582
22590SOL    HW169667   2.508  14.174  10.651
22590SOL    HW269668   2.491  14.323  10.625
22591SOL     OW69669   7.839   0.730   0.600
22591SOL    HW169670   7.869   0.797   0.661
22591SOL    HW269671   7.880   0.753   0.517
22592SOL     OW69672   5.718   5.681   3.377
22592SOL    HW169673   5.751   5.756   3.425
22592SOL    HW269674   5.704   5.613   3.443
22593SOL     OW69675   8.446   2.582  14.066
22593SOL    HW169676   8.530   2.601  14.026
22593SOL    HW269677   8.446   2.487  14.077
22594SOL     OW69678  11.617   9.989  14.273
22594SOL    HW169679  11.711   9.994  14.293
22594SOL    HW269680  11.601  10.066  14.218
22595SOL     OW69681   2.093   1.444   0.501
22595SOL    HW169682   2.025   1.378   0.491
22595SOL    HW269683   2.130   1.455   0.414
22596SOL     OW69684   9.192   7.709   6.618
22596SOL    HW169685   9.117   7.763   6.640
22596SOL    HW269686   9.155   7.631   6.576
22597SOL     OW69687  13.671   2.819   1.550
22597SOL    HW169688  13.719   2.888   1.504
22597SOL    HW269689  13.593   2.804   1.497
22598SOL     OW69690   6.140  14.418  10.304
22598SOL    HW169691   6.120  14.492  10.246
22598SOL    HW269692   6.147  14.343  10.245
22599SOL     OW69693  12.032   0.404   4.640
22599SOL    HW169694  12.072   0.317   4.638
22599SOL    HW269695  12.020   0.427   4.548
22600SOL     OW69696  10.307   5.332   4.572
22600SOL    HW169697  10.365   5.257   4.566
22600SOL    HW269698  10.269   5.341   4.485
22601SOL     OW69699   0.999   0.765  14.406
22601SOL    HW169700   0.925   0.731  14.456
22601SOL    HW269701   0.980   0.740  14.315
22602SOL     OW69702   0.020   5.388   3.150
22602SOL    HW169703  14.818   5.348   3.101
22602SOL    HW269704   0.099   5.349   3.112
22603SOL     OW69705   7.621  11.864   6.903
22603SOL    HW169706   7.549  11.822   6.951
22603SOL    HW269707   7.578  11.933   6.853
22604SOL     OW69708   5.559  12.297   5.149
22604SOL    HW169709   5.631  12.344   5.108
22604SOL    HW269710   5.505  12.365   5.190
22605SOL     OW69711  11.044  12.801   5.029
22605SOL    HW169712  11.075  12.783   5.118
22605SOL    HW269713  11.115  12.769   4.973
22606SOL     OW69714  14.810  10.848   8.017
22606SOL    HW169715   0.033  10.874   8.021
22606SOL    HW269716  14.805  10.768   8.071
22607SOL     OW69717   9.440   9.695   1.307
22607SOL    HW169718   9.459   9.698   1.213
22607SOL    HW269719   9.503   9.755   1.346
22608SOL     OW69720  12.195   1.930   1.396
22608SOL    HW169721  12.279   1.975   1.389
22608SOL    HW269722  12.215   1.838   1.381
22609SOL     OW69723   0.041   0.715   2.553
22609SOL    HW169724   0.106   0.697   2.621
22609SOL    HW269725  14.868   0.795   2.581
22610SOL     OW69726   0.368   5.477   8.990
22610SOL    HW169727   0.400   5.498   8.902
22610SOL    HW269728   0.422   5.403   9.018
22611SOL     OW69729   5.659   5.241   5.800
22611SOL    HW169730   5.673   5.245   5.895
22611SOL    HW269731   5.574   5.199   5.790
22612SOL     OW69732   4.540  12.570   6.882
22612SOL    HW169733   4.459  12.568   6.831
22612SOL    HW269734   4.603  12.522   6.828
22613SOL     OW69735   8.994   3.559   8.071
22613SOL    HW169736   9.011   3.647   8.104
22613SOL    HW269737   9.050   3.551   7.994
22614SOL     OW69738  14.711   6.441   1.953
22614SOL    HW169739  14.755   6.395   1.882
22614SOL    HW269740  14.656   6.506   1.909
22615SOL     OW69741  10.129   3.251   5.568
22615SOL    HW169742  10.084   3.320   5.617
22615SOL    HW269743  10.168   3.195   5.635
22616SOL     OW69744  10.452  11.159   9.262
22616SOL    HW169745  10.460  11.156   9.167
22616SOL    HW269746  10.393  11.087   9.284
22617SOL     OW69747   9.970   3.083   4.548
22617SOL    HW169748  10.023   3.163   4.544
22617SOL    HW269749   9.891   3.109   4.594
22618SOL     OW69750   1.682  14.196   7.274
22618SOL    HW169751   1.740  14.258   7.318
22618SOL    HW269752   1.609  14.185   7.334
22619SOL     OW69753   5.106  12.919   1.022
22619SOL    HW169754   5.193  12.950   0.996
22619SOL    HW269755   5.047  12.959   0.959
22620SOL     OW69756   2.924  12.158   2.479
22620SOL    HW169757   2.831  12.170   2.460
22620SOL    HW269758   2.966  12.163   2.393
22621SOL     OW69759   6.685   8.554  12.667
22621SOL    HW169760   6.654   8.518  12.750
22621SOL    HW269761   6.617   8.530  12.603
22622SOL     OW69762   0.649  14.079  14.357
22622SOL    HW169763   0.731  14.041  14.390
22622SOL    HW269764   0.610  14.121  14.434
22623SOL     OW69765  13.330  14.648   5.021
22623SOL    HW169766  13.366  14.728   4.984
22623SOL    HW269767  13.237  14.650   4.996
22624SOL     OW69768   9.716  13.673  13.160
22624SOL    HW169769   9.788  13.628  13.115
22624SOL    HW269770   9.737  13.766  13.152
22625SOL     OW69771  12.727   1.298  13.093
22625SOL    HW169772  12.679   1.237  13.037
22625SOL    HW269773  12.799   1.247  13.128
22626SOL     OW69774   6.669  12.057  10.176
22626SOL    HW169775   6.742  12.089  10.122
22626SOL    HW269776   6.664  12.121  10.248
22627SOL     OW69777  13.329   6.866   4.536
22627SOL    HW169778  13.360   6.921   4.609
22627SOL    HW269779  13.258   6.917   4.497
22628SOL     OW69780   7.819   6.415   0.497
22628SOL    HW169781   7.764   6.487   0.468
22628SOL    HW269782   7.897   6.421   0.441
22629SOL     OW69783   8.619   5.666   2.404
22629SOL    HW169784   8.613   5.577   2.440
22629SOL    HW269785   8.528   5.692   2.391
22630SOL     OW69786  11.215   2.215   5.133
22630SOL    HW169787  11.296   2.186   5.091
22630SOL    HW269788  11.233   2.209   5.227
22631SOL     OW69789   7.346  13.115  11.650
22631SOL    HW169790   7.380  13.158  11.572
22631SOL    HW269791   7.269  13.167  11.675
22632SOL     OW69792   6.735   0.287  13.268
22632SOL    HW169793   6.746   0.324  13.356
22632SOL    HW269794   6.778   0.202  13.272
22633SOL     OW69795  14.782   9.574   7.144
22633SOL    HW169796  14.843   9.600   7.075
22633SOL    HW269797  14.695   9.588   7.107
22634SOL     OW69798  13.887  14.071  13.158
22634SOL    HW169799  13.967  14.056  13.108
22634SOL    HW269800  13.894  14.162  13.186
22635SOL     OW69801   1.609   2.033   4.338
22635SOL    HW169802   1.648   1.964   4.285
22635SOL    HW269803   1.632   2.011   4.428
22636SOL     OW69804   4.447   7.206   9.956
22636SOL    HW169805   4.460   7.112   9.941
22636SOL    HW269806   4.458   7.246   9.870
22637SOL     OW69807   6.907   2.259   2.017
22637SOL    HW169808   6.845   2.310   2.069
22637SOL    HW269809   6.917   2.177   2.065
22638SOL     OW69810  12.629  11.371   1.697
22638SOL    HW169811  12.619  11.432   1.624
22638SOL    HW269812  12.572  11.405   1.766
22639SOL     OW69813   9.442   3.552   5.855
22639SOL    HW169814   9.360   3.507   5.875
22639SOL    HW269815   9.415   3.630   5.807
22640SOL     OW69816  11.527   3.472  12.982
22640SOL    HW169817  11.560   3.482  12.892
22640SOL    HW269818  11.568   3.392  13.013
22641SOL     OW69819   5.889   6.634  11.264
22641SOL    HW169820   5.827   6.613  11.194
22641SOL    HW269821   5.904   6.728  11.254
22642SOL     OW69822   7.002   7.360   8.558
22642SOL    HW169823   7.043   7.432   8.606
22642SOL    HW269824   6.911   7.360   8.587
22643SOL     OW69825  12.752   7.589   9.022
22643SOL    HW169826  12.659   7.595   9.046
22643SOL    HW269827  12.767   7.496   9.005
22644SOL     OW69828  12.723  14.272  12.130
22644SOL    HW169829  12.757  14.358  12.106
22644SOL    HW269830  12.761  14.254  12.216
22645SOL     OW69831   6.865   8.052   8.843
22645SOL    HW169832   6.876   8.030   8.751
22645SOL    HW269833   6.897   7.976   8.891
22646SOL     OW69834  11.081  12.123   3.615
22646SOL    HW169835  11.175  12.112   3.608
22646SOL    HW269836  11.069  12.213   3.647
22647SOL     OW69837   3.927   7.316   8.456
22647SOL    HW169838   3.903   7.354   8.540
22647SOL    HW269839   4.016   7.283   8.469
22648SOL     OW69840   1.497  13.684   9.117
22648SOL    HW169841   1.580  13.649   9.148
22648SOL    HW269842   1.436  13.671   9.190
22649SOL     OW69843   0.003  14.302   2.284
22649SOL    HW169844  14.821  14.383   2.285
22649SOL    HW269845  14.848  14.260   2.201
22650SOL     OW69846  10.950   7.655   1.308
22650SOL    HW169847  10.964   7.574   1.261
22650SOL    HW269848  10.856   7.656   1.328
22651SOL     OW69849   4.874   4.164   0.280
22651SOL    HW169850   4.842   4.233   0.222
22651SOL    HW269851   4.969   4.177   0.282
22652SOL     OW69852   4.542   8.660  11.890
22652SOL    HW169853   4.460   8.708  11.903
22652SOL    HW269854   4.516   8.567  11.890
22653SOL     OW69855   4.294   4.197   0.421
22653SOL    HW169856   4.342   4.258   0.365
22653SOL    HW269857   4.238   4.253   0.475
22654SOL     OW69858   5.912  11.111   0.961
22654SOL    HW169859   5.912  11.168   0.884
22654SOL    HW269860   5.911  11.022   0.925
22655SOL     OW69861  11.219   6.256  12.685
22655SOL    HW169862  11.254   6.167  12.688
22655SOL    HW269863  11.198   6.271  12.593
22656SOL     OW69864  13.692   2.056   4.173
22656SOL    HW169865  13.773   2.007   4.173
22656SOL    HW269866  13.647   2.029   4.093
22657SOL     OW69867   6.613   1.125  11.703
22657SOL    HW169868   6.597   1.123  11.608
22657SOL    HW269869   6.708   1.130  11.711
22658SOL     OW69870  14.703   8.914   9.368
22658SOL    HW169871  14.677   8.910   9.276
22658SOL    HW269872  14.785   8.964   9.367
22659SOL     OW69873  14.747   8.623   0.035
22659SOL    HW169874  14.786   8.604   0.120
22659SOL    HW269875  14.660   8.657   0.057
22660SOL     OW69876   2.340  11.936  13.412
22660SOL    HW169877   2.424  11.958  13.453
22660SOL    HW269878   2.312  12.017  13.369
22661SOL     OW69879   6.891   0.102  14.031
22661SOL    HW169880   6.969   0.157  14.019
22661SOL    HW269881   6.818   0.158  14.005
22662SOL     OW69882   9.641   9.782  13.249
22662SOL    HW169883   9.642   9.746  13.338
22662SOL    HW269884   9.671   9.873  13.260
22663SOL     OW69885   4.007  11.626  14.105
22663SOL    HW169886   4.101  11.642  14.116
22663SOL    HW269887   3.992  11.541  14.145
22664SOL     OW69888   4.623  10.919   3.068
22664SOL    HW169889   4.568  10.994   3.090
22664SOL    HW269890   4.648  10.882   3.152
22665SOL     OW69891  11.533   1.689   7.052
22665SOL    HW169892  11.601   1.755   7.043
22665SOL    HW269893  11.565   1.614   7.001
22666SOL     OW69894  14.618   8.069   9.045
22666SOL    HW169895  14.523   8.068   9.030
22666SOL    HW269896  14.635   7.986   9.089
22667SOL     OW69897   9.987   4.699   2.703
22667SOL    HW169898  10.055   4.669   2.763
22667SOL    HW269899   9.946   4.772   2.747
22668SOL     OW69900   8.015  10.345  10.356
22668SOL    HW169901   8.072  10.327  10.281
22668SOL    HW269902   8.048  10.288  10.426
22669SOL     OW69903   1.405   8.662  12.051
22669SOL    HW169904   1.334   8.598  12.049
22669SOL    HW269905   1.456   8.645  11.972
22670SOL     OW69906   3.798  11.546   9.717
22670SOL    HW169907   3.857  11.514   9.649
22670SOL    HW269908   3.714  11.557   9.672
22671SOL     OW69909  14.810   1.996  13.727
22671SOL    HW169910  14.741   2.058  13.750
22671SOL    HW269911   0.000   2.046  13.671
22672SOL     OW69912   5.149   7.276   0.080
22672SOL    HW169913   5.087   7.320   0.021
22672SOL    HW269914   5.190   7.347   0.129
22673SOL     OW69915  10.149   9.018   5.346
22673SOL    HW169916  10.240   9.008   5.377
22673SOL    HW269917  10.118   8.928   5.335
22674SOL     OW69918   9.313  11.950   8.664
22674SOL    HW169919   9.267  11.869   8.684
22674SOL    HW269920   9.406  11.927   8.667
22675SOL     OW69921   0.129   6.057  13.382
22675SOL    HW169922   0.052   6.079  13.330
22675SOL    HW269923   0.101   6.071  13.473
22676SOL     OW69924   7.568   9.771  14.459
22676SOL    HW169925   7.615   9.689  14.442
22676SOL    HW269926   7.475   9.748  14.446
22677SOL     OW69927  11.507  13.419   6.106
22677SOL    HW169928  11.505  13.361   6.029
22677SOL    HW269929  11.531  13.504   6.071
22678SOL     OW69930   5.666   7.068  13.117
22678SOL    HW169931   5.634   7.065  13.027
22678SOL    HW269932   5.590   7.090  13.169
22679SOL     OW69933  10.667  11.222  14.422
22679SOL    HW169934  10.723  11.226  14.344
22679SOL    HW269935  10.625  11.136  14.417
22680SOL     OW69936  13.971   3.801  14.581
22680SOL    HW169937  13.921   3.866  14.532
22680SOL    HW269938  14.004   3.741  14.514
22681SOL     OW69939   4.565   2.107  12.404
22681SOL    HW169940   4.636   2.133  12.462
22681SOL    HW269941   4.600   2.036  12.351
22682SOL     OW69942  12.677  10.803  14.478
22682SOL    HW169943  12.769  10.779  14.481
22682SOL    HW269944  12.657  10.831  14.568
22683SOL     OW69945   4.408   3.126   9.957
22683SOL    HW169946   4.348   3.102  10.028
22683SOL    HW269947   4.430   3.043   9.915
22684SOL     OW69948  12.899   6.037   8.630
22684SOL    HW169949  12.989   6.011   8.614
22684SOL    HW269950  12.852   5.955   8.642
22685SOL     OW69951  11.761   8.866   0.110
22685SOL    HW169952  11.852   8.836   0.106
22685SOL    HW269953  11.728   8.852   0.021
22686SOL     OW69954  14.791  14.741   8.571
22686SOL    HW169955  14.840  14.796   8.633
22686SOL    HW269956  14.797  14.653   8.607
22687SOL     OW69957   4.881   5.826   6.487
22687SOL    HW169958   4.898   5.906   6.439
22687SOL    HW269959   4.907   5.756   6.427
22688SOL     OW69960  12.324  10.515  10.524
22688SOL    HW169961  12.372  10.451  10.473
22688SOL    HW269962  12.352  10.500  10.614
22689SOL     OW69963   3.792   7.665   5.325
22689SOL    HW169964   3.813   7.584   5.372
22689SOL    HW269965   3.876   7.708   5.311
22690SOL     OW69966  10.341  10.155   5.311
22690SOL    HW169967  10.393  10.086   5.270
22690SOL    HW269968  10.250  10.131   5.294
22691SOL     OW69969  12.566   7.113   8.785
22691SOL    HW169970  12.644   7.064   8.812
22691SOL    HW269971  12.584   7.138   8.694
22692SOL     OW69972   6.502  12.823   2.472
22692SOL    HW169973   6.466  12.904   2.436
22692SOL    HW269974   6.596  12.835   2.469
22693SOL     OW69975   2.956   1.112   2.416
22693SOL    HW169976   3.012   1.093   2.491
22693SOL    HW269977   3.016   1.137   2.346
22694SOL     OW69978  11.586   7.702   1.521
22694SOL    HW169979  11.645   7.700   1.596
22694SOL    HW269980  11.597   7.790   1.484
22695SOL     OW69981   1.020  11.013  11.957
22695SOL    HW169982   1.044  11.072  12.029
22695SOL    HW269983   1.104  10.991  11.916
22696SOL     OW69984  11.783   0.126   9.776
22696SOL    HW169985  11.787   0.089   9.688
22696SOL    HW269986  11.690   0.123   9.799
22697SOL     OW69987   0.082  14.178   0.194
22697SOL    HW169988   0.178  14.176   0.183
22697SOL    HW269989   0.048  14.148   0.109
22698SOL     OW69990   2.481   5.339   9.840
22698SOL    HW169991   2.463   5.351   9.933
22698SOL    HW269992   2.569   5.375   9.828
22699SOL     OW69993   0.122   3.733  14.386
22699SOL    HW169994   0.175   3.772  14.316
22699SOL    HW269995   0.156   3.773  14.466
22700SOL     OW69996   9.817   2.602   1.683
22700SOL    HW169997   9.886   2.543   1.713
22700SOL    HW269998   9.737   2.570   1.725
22701SOL     OW69999  14.248   0.190   6.667
22701SOL    HW170000  14.303   0.160   6.739
22701SOL    HW270001  14.301   0.174   6.589
22702SOL     OW70002  11.000  14.104   7.746
22702SOL    HW170003  11.006  14.194   7.714
22702SOL    HW270004  11.087  14.084   7.779
22703SOL     OW70005   9.590  14.747  14.057
22703SOL    HW170006   9.601  14.779  13.968
22703SOL    HW270007   9.578  14.653  14.048
22704SOL     OW70008   8.744   2.291   3.013
22704SOL    HW170009   8.648   2.295   3.005
22704SOL    HW270010   8.776   2.344   2.939
22705SOL     OW70011   1.852  10.564   6.136
22705SOL    HW170012   1.935  10.608   6.119
22705SOL    HW270013   1.842  10.503   6.063
22706SOL     OW70014  12.000   9.417   8.325
22706SOL    HW170015  11.919   9.466   8.317
22706SOL    HW270016  12.069   9.478   8.300
22707SOL     OW70017  12.306   5.235   8.854
22707SOL    HW170018  12.356   5.316   8.853
22707SOL    HW270019  12.321   5.196   8.768
22708SOL     OW70020   3.100   5.899   2.490
22708SOL    HW170021   3.183   5.858   2.464
22708SOL    HW270022   3.112   5.919   2.583
22709SOL     OW70023  13.823  14.060  14.375
22709SOL    HW170024  13.863  14.088  14.292
22709SOL    HW270025  13.845  14.129  14.437
22710SOL     OW70026   1.814   2.908   8.925
22710SOL    HW170027   1.797   2.819   8.956
22710SOL    HW270028   1.822   2.899   8.830
22711SOL     OW70029  10.549   8.196   4.447
22711SOL    HW170030  10.480   8.166   4.389
22711SOL    HW270031  10.510   8.270   4.495
22712SOL     OW70032   9.769  10.642   1.838
22712SOL    HW170033   9.849  10.675   1.880
22712SOL    HW270034   9.711  10.619   1.910
22713SOL     OW70035   2.545   1.288   9.658
22713SOL    HW170036   2.495   1.207   9.647
22713SOL    HW270037   2.606   1.269   9.729
22714SOL     OW70038   8.564  12.740   5.528
22714SOL    HW170039   8.566  12.787   5.611
22714SOL    HW270040   8.473  12.746   5.499
22715SOL     OW70041   8.905   8.079   0.995
22715SOL    HW170042   8.842   8.094   1.066
22715SOL    HW270043   8.990   8.093   1.036
22716SOL     OW70044   4.688   2.423   7.689
22716SOL    HW170045   4.666   2.348   7.634
22716SOL    HW270046   4.614   2.483   7.678
22717SOL     OW70047  14.102  14.665  13.953
22717SOL    HW170048  14.029  14.715  13.915
22717SOL    HW270049  14.180  14.716  13.933
22718SOL     OW70050  13.174  11.509   3.048
22718SOL    HW170051  13.161  11.519   2.954
22718SOL    HW270052  13.089  11.480   3.081
22719SOL     OW70053  11.546  12.938   5.951
22719SOL    HW170054  11.578  12.884   5.878
22719SOL    HW270055  11.577  12.893   6.029
22720SOL     OW70056   7.124   1.745  12.526
22720SOL    HW170057   7.095   1.789  12.446
22720SOL    HW270058   7.043   1.719  12.570
22721SOL     OW70059  10.411   9.588   5.141
22721SOL    HW170060  10.353   9.583   5.218
22721SOL    HW270061  10.483   9.644   5.169
22722SOL     OW70062  11.265   0.749   5.446
22722SOL    HW170063  11.229   0.758   5.358
22722SOL    HW270064  11.190   0.764   5.504
22723SOL     OW70065   2.522   2.928  13.154
22723SOL    HW170066   2.488   2.876  13.081
22723SOL    HW270067   2.616   2.936  13.136
22724SOL     OW70068   0.130   5.004   8.159
22724SOL    HW170069   0.056   4.954   8.192
22724SOL    HW270070   0.101   5.095   8.164
22725SOL     OW70071   6.536   1.284  14.582
22725SOL    HW170072   6.617   1.304  14.629
22725SOL    HW270073   6.499   1.370  14.560
22726SOL     OW70074   2.206  11.573   7.849
22726SOL    HW170075   2.230  11.578   7.942
22726SOL    HW270076   2.155  11.492   7.842
22727SOL     OW70077  14.406   1.237  11.643
22727SOL    HW170078  14.451   1.321  11.647
22727SOL    HW270079  14.398   1.209  11.734
22728SOL     OW70080   6.266   5.736  11.102
22728SOL    HW170081   6.233   5.721  11.191
22728SOL    HW270082   6.357   5.704  11.105
22729SOL     OW70083  12.276  10.780   5.391
22729SOL    HW170084  12.187  10.749   5.370
22729SOL    HW270085  12.271  10.804   5.484
22730SOL     OW70086   4.452   4.433   1.789
22730SOL    HW170087   4.513   4.506   1.784
22730SOL    HW270088   4.370   4.467   1.752
22731SOL     OW70089  12.056   4.651   1.598
22731SOL    HW170090  11.962   4.634   1.601
22731SOL    HW270091  12.095   4.575   1.641
22732SOL     OW70092   8.142  14.858  11.968
22732SOL    HW170093   8.066  14.800  11.961
22732SOL    HW270094   8.123   0.043  12.045
22733SOL     OW70095   0.028   7.010  14.292
22733SOL    HW170096   0.119   6.981  14.289
22733SOL    HW270097  14.861   6.967  14.369
22734SOL     OW70098   2.943  13.455  13.133
22734SOL    HW170099   2.896  13.374  13.115
22734SOL    HW270100   2.876  13.522  13.135
22735SOL     OW70101   4.970   9.691   4.636
22735SOL    HW170102   4.926   9.745   4.701
22735SOL    HW270103   4.900   9.661   4.578
22736SOL     OW70104   9.594   0.524   9.888
22736SOL    HW170105   9.518   0.515   9.831
22736SOL    HW270106   9.567   0.586   9.955
22737SOL     OW70107   6.909   2.792   2.920
22737SOL    HW170108   6.948   2.872   2.887
22737SOL    HW270109   6.815   2.801   2.903
22738SOL     OW70110   9.878   7.356  14.076
22738SOL    HW170111   9.861   7.442  14.114
22738SOL    HW270112   9.971   7.357  14.056
22739SOL     OW70113   6.816   5.218  13.624
22739SOL    HW170114   6.764   5.283  13.670
22739SOL    HW270115   6.896   5.211  13.676
22740SOL     OW70116  10.802   8.610  14.094
22740SOL    HW170117  10.821   8.686  14.039
22740SOL    HW270118  10.888   8.571  14.111
22741SOL     OW70119   4.300   0.767   1.600
22741SOL    HW170120   4.379   0.796   1.646
22741SOL    HW270121   4.232   0.828   1.627
22742SOL     OW70122   6.642   0.001   6.708
22742SOL    HW170123   6.582   0.065   6.747
22742SOL    HW270124   6.627   0.009   6.614
22743SOL     OW70125  13.124   3.855   7.693
22743SOL    HW170126  13.206   3.809   7.709
22743SOL    HW270127  13.060   3.812   7.750
22744SOL     OW70128   7.910   2.212   5.713
22744SOL    HW170129   7.895   2.191   5.621
22744SOL    HW270130   7.832   2.260   5.740
22745SOL     OW70131   9.101  13.367   2.295
22745SOL    HW170132   9.184  13.411   2.316
22745SOL    HW270133   9.078  13.400   2.208
22746SOL     OW70134   1.116   2.923   2.926
22746SOL    HW170135   1.161   2.862   2.984
22746SOL    HW270136   1.067   2.980   2.985
22747SOL     OW70137  14.253  13.411   9.833
22747SOL    HW170138  14.170  13.401   9.786
22747SOL    HW270139  14.232  13.472   9.904
22748SOL     OW70140   2.915   4.799  10.596
22748SOL    HW170141   2.826   4.807  10.561
22748SOL    HW270142   2.967   4.770  10.521
22749SOL     OW70143   9.908  14.375  12.599
22749SOL    HW170144   9.961  14.426  12.538
22749SOL    HW270145   9.901  14.430  12.677
22750SOL     OW70146   7.086   8.992   6.155
22750SOL    HW170147   7.177   9.015   6.140
22750SOL    HW270148   7.041   9.020   6.075
22751SOL     OW70149  14.076  13.958   2.998
22751SOL    HW170150  14.088  14.049   2.973
22751SOL    HW270151  14.064  13.911   2.915
22752SOL     OW70152   6.253  10.420  11.427
22752SOL    HW170153   6.283  10.333  11.401
22752SOL    HW270154   6.331  10.475  11.420
22753SOL     OW70155  10.497  11.967   3.720
22753SOL    HW170156  10.530  11.986   3.808
22753SOL    HW270157  10.572  11.982   3.663
22754SOL     OW70158   3.414   8.214   9.522
22754SOL    HW170159   3.406   8.127   9.562
22754SOL    HW270160   3.413   8.275   9.596
22755SOL     OW70161   4.188   9.241  14.118
22755SOL    HW170162   4.104   9.258  14.161
22755SOL    HW270163   4.235   9.184  14.179
22756SOL     OW70164  12.946   6.308   4.343
22756SOL    HW170165  12.975   6.223   4.373
22756SOL    HW270166  12.924   6.356   4.423
22757SOL     OW70167   1.793   6.134   9.604
22757SOL    HW170168   1.707   6.099   9.583
22757SOL    HW270169   1.816   6.093   9.688
22758SOL     OW70170   5.970   4.998   0.332
22758SOL    HW170171   6.045   4.943   0.355
22758SOL    HW270172   5.924   5.011   0.415
22759SOL     OW70173  10.216   3.661   4.819
22759SOL    HW170174  10.171   3.650   4.735
22759SOL    HW270175  10.300   3.702   4.796
22760SOL     OW70176  12.234  12.344   4.529
22760SOL    HW170177  12.325  12.346   4.559
22760SOL    HW270178  12.202  12.433   4.543
22761SOL     OW70179   5.772   1.251   9.192
22761SOL    HW170180   5.837   1.203   9.141
22761SOL    HW270181   5.735   1.186   9.252
22762SOL     OW70182  10.420  12.806   8.795
22762SOL    HW170183  10.476  12.730   8.783
22762SOL    HW270184  10.334  12.769   8.815
22763SOL     OW70185   4.387   3.747  10.517
22763SOL    HW170186   4.292   3.749  10.511
22763SOL    HW270187   4.416   3.825  10.470
22764SOL     OW70188   3.982   9.768   6.268
22764SOL    HW170189   3.934   9.802   6.192
22764SOL    HW270190   3.951   9.677   6.277
22765SOL     OW70191   7.531  10.335   7.007
22765SOL    HW170192   7.491  10.331   6.921
22765SOL    HW270193   7.554  10.245   7.028
22766SOL     OW70194  14.866   8.157  14.017
22766SOL    HW170195   0.034   8.209  14.089
22766SOL    HW270196  14.773   8.181  14.016
22767SOL     OW70197  10.623   1.472   2.713
22767SOL    HW170198  10.599   1.512   2.629
22767SOL    HW270199  10.694   1.412   2.691
22768SOL     OW70200  10.751   3.468   9.159
22768SOL    HW170201  10.815   3.523   9.203
22768SOL    HW270202  10.757   3.383   9.204
22769SOL     OW70203  12.792   8.420   0.672
22769SOL    HW170204  12.764   8.436   0.762
22769SOL    HW270205  12.771   8.500   0.625
22770SOL     OW70206  10.019   8.982  13.000
22770SOL    HW170207   9.972   8.899  12.997
22770SOL    HW270208   9.973   9.038  12.937
22771SOL     OW70209   2.784   2.285   8.592
22771SOL    HW170210   2.773   2.292   8.687
22771SOL    HW270211   2.811   2.373   8.565
22772SOL     OW70212   0.272  10.994  10.120
22772SOL    HW170213   0.344  11.019  10.063
22772SOL    HW270214   0.195  10.994  10.063
22773SOL     OW70215   3.577  12.373   5.898
22773SOL    HW170216   3.648  12.312   5.876
22773SOL    HW270217   3.553  12.412   5.814
22774SOL     OW70218  13.536  14.675   9.236
22774SOL    HW170219  13.575  14.668   9.323
22774SOL    HW270220  13.479  14.597   9.230
22775SOL     OW70221  14.205  14.440   5.310
22775SOL    HW170222  14.120  14.469   5.276
22775SOL    HW270223  14.212  14.349   5.284
22776SOL     OW70224   9.616  12.854  10.785
22776SOL    HW170225   9.525  12.881  10.795
22776SOL    HW270226   9.619  12.810  10.700
22777SOL     OW70227  14.826   0.789   9.042
22777SOL    HW170228  14.740   0.748   9.042
22777SOL    HW270229  14.825   0.848   8.966
22778SOL     OW70230  14.253   7.297   5.409
22778SOL    HW170231  14.329   7.323   5.461
22778SOL    HW270232  14.180   7.297   5.470
22779SOL     OW70233   2.165   9.422  14.738
22779SOL    HW170234   2.170   9.355  14.806
22779SOL    HW270235   2.233   9.485  14.761
22780SOL     OW70236   6.757   9.896   9.037
22780SOL    HW170237   6.687   9.832   9.037
22780SOL    HW270238   6.787   9.900   9.128
22781SOL     OW70239   8.183   1.887   4.466
22781SOL    HW170240   8.269   1.931   4.465
22781SOL    HW270241   8.131   1.934   4.401
22782SOL     OW70242   1.375   2.958   0.158
22782SOL    HW170243   1.360   2.924   0.247
22782SOL    HW270244   1.389   3.052   0.171
22783SOL     OW70245  12.079   5.828   2.320
22783SOL    HW170246  12.141   5.778   2.374
22783SOL    HW270247  12.113   5.819   2.231
22784SOL     OW70248   0.869   2.379  10.719
22784SOL    HW170249   0.854   2.326  10.640
22784SOL    HW270250   0.888   2.467  10.685
22785SOL     OW70251  10.523  13.972   8.440
22785SOL    HW170252  10.468  14.038   8.397
22785SOL    HW270253  10.497  13.975   8.532
22786SOL     OW70254   8.598  10.493  13.438
22786SOL    HW170255   8.545  10.417  13.462
22786SOL    HW270256   8.668  10.457  13.383
22787SOL     OW70257   0.901   8.085   4.086
22787SOL    HW170258   0.988   8.086   4.046
22787SOL    HW270259   0.844   8.051   4.017
22788SOL     OW70260  10.645   9.288   1.534
22788SOL    HW170261  10.594   9.208   1.549
22788SOL    HW270262  10.665   9.286   1.441
22789SOL     OW70263  10.853   1.599   7.812
22789SOL    HW170264  10.823   1.534   7.875
22789SOL    HW270265  10.790   1.594   7.740
22790SOL     OW70266  11.184   1.769   8.883
22790SOL    HW170267  11.216   1.693   8.834
22790SOL    HW270268  11.098   1.787   8.846
22791SOL     OW70269   6.297   2.277  11.165
22791SOL    HW170270   6.298   2.350  11.226
22791SOL    HW270271   6.208   2.276  11.129
22792SOL     OW70272   6.324   5.137  12.786
22792SOL    HW170273   6.365   5.148  12.872
22792SOL    HW270274   6.371   5.197  12.729
22793SOL     OW70275   2.978   4.858   3.482
22793SOL    HW170276   2.969   4.856   3.577
22793SOL    HW270277   2.923   4.786   3.451
22794SOL     OW70278   1.746   4.575  14.337
22794SOL    HW170279   1.718   4.484  14.329
22794SOL    HW270280   1.831   4.578  14.293
22795SOL     OW70281  12.738  11.300   6.829
22795SOL    HW170282  12.674  11.297   6.900
22795SOL    HW270283  12.712  11.376   6.777
22796SOL     OW70284  14.038  11.443  12.439
22796SOL    HW170285  14.132  11.453  12.457
22796SOL    HW270286  14.005  11.533  12.437
22797SOL     OW70287   7.396   0.917   5.393
22797SOL    HW170288   7.395   0.862   5.472
22797SOL    HW270289   7.322   0.887   5.341
22798SOL     OW70290   4.188   3.067   8.085
22798SOL    HW170291   4.102   3.053   8.045
22798SOL    HW270292   4.204   2.987   8.135
22799SOL     OW70293  12.547  11.310   9.274
22799SOL    HW170294  12.620  11.293   9.333
22799SOL    HW270295  12.533  11.404   9.278
22800SOL     OW70296   5.942  10.313   4.936
22800SOL    HW170297   5.967  10.367   4.861
22800SOL    HW270298   5.982  10.228   4.918
22801SOL     OW70299   7.391   8.382  12.835
22801SOL    HW170300   7.407   8.290  12.856
22801SOL    HW270301   7.379   8.384  12.740
22802SOL     OW70302   7.016   1.787   0.163
22802SOL    HW170303   6.982   1.727   0.096
22802SOL    HW270304   6.952   1.783   0.234
22803SOL     OW70305   7.975   4.026  13.095
22803SOL    HW170306   8.052   4.066  13.134
22803SOL    HW270307   8.010   3.965  13.030
22804SOL     OW70308  12.463   9.457   9.390
22804SOL    HW170309  12.468   9.548   9.360
22804SOL    HW270310  12.517   9.408   9.329
22805SOL     OW70311   1.684  10.076   6.694
22805SOL    HW170312   1.757  10.024   6.730
22805SOL    HW270313   1.617  10.012   6.674
22806SOL     OW70314   1.079   4.822   2.108
22806SOL    HW170315   1.076   4.843   2.015
22806SOL    HW270316   1.013   4.880   2.147
22807SOL     OW70317  12.421   6.356   8.608
22807SOL    HW170318  12.491   6.421   8.616
22807SOL    HW270319  12.363   6.372   8.682
22808SOL     OW70320   5.623   9.797   5.210
22808SOL    HW170321   5.633   9.885   5.247
22808SOL    HW270322   5.693   9.745   5.251
22809SOL     OW70323   5.065  13.984   0.704
22809SOL    HW170324   5.068  13.907   0.647
22809SOL    HW270325   5.028  14.053   0.650
22810SOL     OW70326   7.033   9.485   7.909
22810SOL    HW170327   6.997   9.510   7.824
22810SOL    HW270328   7.095   9.416   7.889
22811SOL     OW70329  11.459   8.283  10.664
22811SOL    HW170330  11.490   8.195  10.641
22811SOL    HW270331  11.401   8.307  10.592
22812SOL     OW70332  12.484   4.336   0.283
22812SOL    HW170333  12.499   4.430   0.285
22812SOL    HW270334  12.544   4.304   0.215
22813SOL     OW70335  12.370   0.522  13.247
22813SOL    HW170336  12.436   0.551  13.184
22813SOL    HW270337  12.292   0.572  13.224
22814SOL     OW70338  11.582   7.422   4.145
22814SOL    HW170339  11.599   7.414   4.051
22814SOL    HW270340  11.646   7.364   4.186
22815SOL     OW70341   7.854  11.853   7.275
22815SOL    HW170342   7.777  11.909   7.265
22815SOL    HW270343   7.847  11.817   7.363
22816SOL     OW70344  13.083   9.354   4.978
22816SOL    HW170345  13.020   9.338   4.908
22816SOL    HW270346  13.057   9.293   5.048
22817SOL     OW70347   1.053   9.789   0.503
22817SOL    HW170348   1.113   9.715   0.513
22817SOL    HW270349   1.110   9.866   0.502
22818SOL     OW70350  14.545  14.357  10.249
22818SOL    HW170351  14.458  14.333  10.218
22818SOL    HW270352  14.600  14.355  10.171
22819SOL     OW70353  14.333   7.669   4.041
22819SOL    HW170354  14.327   7.718   4.123
22819SOL    HW270355  14.413   7.617   4.050
22820SOL     OW70356   5.356   5.963   4.980
22820SOL    HW170357   5.272   5.948   4.938
22820SOL    HW270358   5.395   5.876   4.988
22821SOL     OW70359   1.347  10.447  12.409
22821SOL    HW170360   1.402  10.484  12.479
22821SOL    HW270361   1.309  10.369  12.448
22822SOL     OW70362   2.129   8.309   7.451
22822SOL    HW170363   2.070   8.375   7.485
22822SOL    HW270364   2.177   8.352   7.380
22823SOL     OW70365  10.689   9.053  11.191
22823SOL    HW170366  10.784   9.056  11.179
22823SOL    HW270367  10.663   9.145  11.190
22824SOL     OW70368   7.995   2.082  10.296
22824SOL    HW170369   7.945   2.110  10.219
22824SOL    HW270370   7.989   2.156  10.356
22825SOL     OW70371  10.639   8.235   9.281
22825SOL    HW170372  10.673   8.181   9.210
22825SOL    HW270373  10.717   8.257   9.333
22826SOL     OW70374  11.320   5.262   1.169
22826SOL    HW170375  11.271   5.188   1.206
22826SOL    HW270376  11.412   5.236   1.176
22827SOL     OW70377  10.407  12.708  11.429
22827SOL    HW170378  10.316  12.701  11.457
22827SOL    HW270379  10.413  12.651  11.353
22828SOL     OW70380   9.556   5.296   1.545
22828SOL    HW170381   9.477   5.316   1.596
22828SOL    HW270382   9.585   5.381   1.511
22829SOL     OW70383   1.311   7.314   8.482
22829SOL    HW170384   1.347   7.283   8.565
22829SOL    HW270385   1.329   7.408   8.481
22830SOL     OW70386   2.923   9.221   2.808
22830SOL    HW170387   2.880   9.258   2.730
22830SOL    HW270388   2.938   9.297   2.865
22831SOL     OW70389   5.364  11.780  10.331
22831SOL    HW170390   5.438  11.775  10.271
22831SOL    HW270391   5.303  11.713  10.300
22832SOL     OW70392   6.709  11.096   5.116
22832SOL    HW170393   6.667  11.011   5.129
22832SOL    HW270394   6.640  11.152   5.079
22833SOL     OW70395   4.769  13.354  13.614
22833SOL    HW170396   4.780  13.446  13.593
22833SOL    HW270397   4.763  13.352  13.710
22834SOL     OW70398  14.159  14.114  14.374
22834SOL    HW170399  14.082  14.114  14.316
22834SOL    HW270400  14.222  14.057  14.329
22835SOL     OW70401  10.700   0.814   9.240
22835SOL    HW170402  10.631   0.855   9.188
22835SOL    HW270403  10.764   0.884   9.254
22836SOL     OW70404   1.936   5.999  11.711
22836SOL    HW170405   2.003   6.067  11.697
22836SOL    HW270406   1.953   5.966  11.799
22837SOL     OW70407   8.518   5.726   1.649
22837SOL    HW170408   8.430   5.702   1.678
22837SOL    HW270409   8.504   5.790   1.580
22838SOL     OW70410   1.220   9.648  10.061
22838SOL    HW170411   1.175   9.623  10.142
22838SOL    HW270412   1.207   9.573  10.003
22839SOL     OW70413   8.443  11.195   6.840
22839SOL    HW170414   8.377  11.185   6.771
22839SOL    HW270415   8.488  11.277   6.819
22840SOL     OW70416  11.366   4.552   6.273
22840SOL    HW170417  11.316   4.551   6.192
22840SOL    HW270418  11.356   4.641   6.307
22841SOL     OW70419   7.118  14.210   6.429
22841SOL    HW170420   7.039  14.260   6.449
22841SOL    HW270421   7.127  14.217   6.334
22842SOL     OW70422   5.868   2.040  10.331
22842SOL    HW170423   5.883   2.098  10.256
22842SOL    HW270424   5.855   2.099  10.405
22843SOL     OW70425   7.790   1.748   2.071
22843SOL    HW170426   7.858   1.683   2.087
22843SOL    HW270427   7.828   1.830   2.100
22844SOL     OW70428   3.589  12.480   5.278
22844SOL    HW170429   3.544  12.540   5.337
22844SOL    HW270430   3.588  12.525   5.193
22845SOL     OW70431   7.149   8.577   2.814
22845SOL    HW170432   7.173   8.523   2.889
22845SOL    HW270433   7.082   8.526   2.768
22846SOL     OW70434  10.624   9.967   9.228
22846SOL    HW170435  10.542  10.009   9.205
22846SOL    HW270436  10.668   9.950   9.145
22847SOL     OW70437   1.772  12.044   7.152
22847SOL    HW170438   1.867  12.041   7.139
22847SOL    HW270439   1.760  12.023   7.245
22848SOL     OW70440   5.931   0.793  12.945
22848SOL    HW170441   6.024   0.810  12.960
22848SOL    HW270442   5.895   0.878  12.920
22849SOL     OW70443   5.218   1.421   4.497
22849SOL    HW170444   5.165   1.484   4.546
22849SOL    HW270445   5.174   1.337   4.511
22850SOL     OW70446   4.209  14.213   3.854
22850SOL    HW170447   4.195  14.177   3.942
22850SOL    HW270448   4.210  14.136   3.797
22851SOL     OW70449   9.200   2.835  13.168
22851SOL    HW170450   9.256   2.855  13.093
22851SOL    HW270451   9.228   2.897  13.236
22852SOL     OW70452   4.432   6.944   6.859
22852SOL    HW170453   4.445   7.030   6.819
22852SOL    HW270454   4.473   6.882   6.798
22853SOL     OW70455   7.211   6.114   9.900
22853SOL    HW170456   7.117   6.112   9.917
22853SOL    HW270457   7.241   6.024   9.914
22854SOL     OW70458   5.181  12.398  12.870
22854SOL    HW170459   5.149  12.488  12.865
22854SOL    HW270460   5.276  12.406  12.875
22855SOL     OW70461   6.662  13.811   7.059
22855SOL    HW170462   6.727  13.816   6.988
22855SOL    HW270463   6.707  13.848   7.135
22856SOL     OW70464   1.512   2.054   8.069
22856SOL    HW170465   1.545   2.131   8.116
22856SOL    HW270466   1.589   2.020   8.022
22857SOL     OW70467   6.477   3.733  14.225
22857SOL    HW170468   6.447   3.713  14.137
22857SOL    HW270469   6.433   3.815  14.248
22858SOL     OW70470  14.491   7.158   9.509
22858SOL    HW170471  14.553   7.102   9.555
22858SOL    HW270472  14.416   7.102   9.490
22859SOL     OW70473   9.041   9.351  11.680
22859SOL    HW170474   9.039   9.371  11.773
22859SOL    HW270475   8.955   9.378  11.647
22860SOL     OW70476  13.158  11.461   3.722
22860SOL    HW170477  13.124  11.511   3.648
22860SOL    HW270478  13.187  11.378   3.684
22861SOL     OW70479   4.406  14.131   7.766
22861SOL    HW170480   4.345  14.058   7.774
22861SOL    HW270481   4.492  14.090   7.756
22862SOL     OW70482   2.926   3.001   4.302
22862SOL    HW170483   2.863   2.960   4.243
22862SOL    HW270484   2.874   3.029   4.377
22863SOL     OW70485  12.333   2.933   2.678
22863SOL    HW170486  12.424   2.958   2.664
22863SOL    HW270487  12.326   2.846   2.639
22864SOL     OW70488   6.915  12.334  14.611
22864SOL    HW170489   6.875  12.384  14.539
22864SOL    HW270490   6.941  12.251  14.571
22865SOL     OW70491   6.079   9.671   9.365
22865SOL    HW170492   6.037   9.721   9.296
22865SOL    HW270493   6.013   9.607   9.392
22866SOL     OW70494   9.729  12.140   8.128
22866SOL    HW170495   9.677  12.211   8.166
22866SOL    HW270496   9.725  12.069   8.193
22867SOL     OW70497   5.210   6.860  14.652
22867SOL    HW170498   5.294   6.815  14.646
22867SOL    HW270499   5.222   6.926  14.720
22868SOL     OW70500   9.028   0.766   8.807
22868SOL    HW170501   9.032   0.749   8.712
22868SOL    HW270502   8.979   0.691   8.842
22869SOL     OW70503   1.854   0.948   0.366
22869SOL    HW170504   1.766   0.912   0.370
22869SOL    HW270505   1.879   0.961   0.458
22870SOL     OW70506   2.181   6.152   9.963
22870SOL    HW170507   2.176   6.245   9.940
22870SOL    HW270508   2.176   6.106   9.879
22871SOL     OW70509  13.160  11.663   1.148
22871SOL    HW170510  13.106  11.657   1.226
22871SOL    HW270511  13.239  11.615   1.170
22872SOL     OW70512  10.052  12.824   5.862
22872SOL    HW170513   9.960  12.799   5.870
22872SOL    HW270514  10.072  12.815   5.769
22873SOL     OW70515   2.497  10.827   9.295
22873SOL    HW170516   2.407  10.850   9.274
22873SOL    HW270517   2.497  10.732   9.306
22874SOL     OW70518   6.416   5.098   6.352
22874SOL    HW170519   6.452   5.170   6.300
22874SOL    HW270520   6.487   5.075   6.412
22875SOL     OW70521  10.196   8.888   2.230
22875SOL    HW170522  10.167   8.891   2.139
22875SOL    HW270523  10.166   8.971   2.267
22876SOL     OW70524  13.570   6.550  13.515
22876SOL    HW170525  13.485   6.555  13.470
22876SOL    HW270526  13.623   6.492  13.461
22877SOL     OW70527   5.031   1.785   9.486
22877SOL    HW170528   5.099   1.738   9.437
22877SOL    HW270529   4.950   1.764   9.441
22878SOL     OW70530   8.665   0.357  11.331
22878SOL    HW170531   8.621   0.378  11.413
22878SOL    HW270532   8.618   0.280  11.298
22879SOL     OW70533  11.459   2.832   2.143
22879SOL    HW170534  11.409   2.913   2.129
22879SOL    HW270535  11.469   2.827   2.238
22880SOL     OW70536   7.545  10.296  13.516
22880SOL    HW170537   7.635  10.317  13.540
22880SOL    HW270538   7.532  10.339  13.431
22881SOL     OW70539  14.071   6.945   3.389
22881SOL    HW170540  14.137   7.000   3.431
22881SOL    HW270541  13.991   6.961   3.438
22882SOL     OW70542  14.834   0.355  12.007
22882SOL    HW170543  14.858   0.383  12.095
22882SOL    HW270544   0.043   0.372  11.955
22883SOL     OW70545  12.334   9.755   8.995
22883SOL    HW170546  12.362   9.835   9.038
22883SOL    HW270547  12.241   9.748   9.014
22884SOL     OW70548   9.723   0.716  11.784
22884SOL    HW170549   9.728   0.809  11.803
22884SOL    HW270550   9.778   0.674  11.850
22885SOL     OW70551  11.302   4.578   5.793
22885SOL    HW170552  11.349   4.662   5.798
22885SOL    HW270553  11.347   4.522   5.856
22886SOL     OW70554   8.603   7.488   9.330
22886SOL    HW170555   8.635   7.399   9.313
22886SOL    HW270556   8.671   7.545   9.294
22887SOL     OW70557   6.738   7.169   8.623
22887SOL    HW170558   6.714   7.076   8.627
22887SOL    HW270559   6.667   7.209   8.572
22888SOL     OW70560   6.300   3.027   7.431
22888SOL    HW170561   6.227   3.083   7.403
22888SOL    HW270562   6.378   3.072   7.400
22889SOL     OW70563   6.948  10.597   0.332
22889SOL    HW170564   6.944  10.669   0.269
22889SOL    HW270565   7.032  10.555   0.316
22890SOL     OW70566   9.017   8.986   6.801
22890SOL    HW170567   8.969   8.906   6.781
22890SOL    HW270568   9.067   9.004   6.721
22891SOL     OW70569  10.608   6.462   9.066
22891SOL    HW170570  10.674   6.393   9.065
22891SOL    HW270571  10.584   6.471   9.158
22892SOL     OW70572   3.525  14.580  13.238
22892SOL    HW170573   3.560  14.515  13.177
22892SOL    HW270574   3.432  14.586  13.215
22893SOL     OW70575  14.615   7.232   6.480
22893SOL    HW170576  14.578   7.205   6.396
22893SOL    HW270577  14.708   7.242   6.463
22894SOL     OW70578   8.908   4.257   2.991
22894SOL    HW170579   8.947   4.275   3.077
22894SOL    HW270580   8.935   4.331   2.936
22895SOL     OW70581   7.941   9.119   8.850
22895SOL    HW170582   7.993   9.044   8.820
22895SOL    HW270583   7.970   9.191   8.795
22896SOL     OW70584   9.080   2.455   8.037
22896SOL    HW170585   9.139   2.417   8.102
22896SOL    HW270586   9.113   2.423   7.953
22897SOL     OW70587   8.434   3.838   7.018
22897SOL    HW170588   8.374   3.897   6.972
22897SOL    HW270589   8.433   3.758   6.967
22898SOL     OW70590  10.153   4.536   1.526
22898SOL    HW170591  10.103   4.580   1.457
22898SOL    HW270592  10.198   4.465   1.482
22899SOL     OW70593  13.852   4.512   8.374
22899SOL    HW170594  13.858   4.565   8.453
22899SOL    HW270595  13.838   4.575   8.303
22900SOL     OW70596   7.307   9.283   0.213
22900SOL    HW170597   7.402   9.286   0.200
22900SOL    HW270598   7.290   9.195   0.246
22901SOL     OW70599   6.050   8.696   1.508
22901SOL    HW170600   6.128   8.654   1.473
22901SOL    HW270601   6.049   8.782   1.466
22902SOL     OW70602   6.453   9.522   8.915
22902SOL    HW170603   6.437   9.556   8.827
22902SOL    HW270604   6.366   9.496   8.947
22903SOL     OW70605   0.010   2.372   3.569
22903SOL    HW170606   0.027   2.464   3.550
22903SOL    HW270607  14.784   2.364   3.566
22904SOL     OW70608  11.554   5.186   0.993
22904SOL    HW170609  11.477   5.140   0.960
22904SOL    HW270610  11.537   5.278   0.975
22905SOL     OW70611  12.783   8.071   4.526
22905SOL    HW170612  12.718   8.014   4.483
22905SOL    HW270613  12.739   8.156   4.533
22906SOL     OW70614   2.084  14.074   7.088
22906SOL    HW170615   2.054  14.165   7.076
22906SOL    HW270616   2.173  14.083   7.122
22907SOL     OW70617   9.788   5.142   0.397
22907SOL    HW170618   9.744   5.107   0.319
22907SOL    HW270619   9.877   5.109   0.391
22908SOL     OW70620   0.105   3.506   0.459
22908SOL    HW170621   0.149   3.433   0.414
22908SOL    HW270622   0.162   3.581   0.443
22909SOL     OW70623   5.513   1.608   0.789
22909SOL    HW170624   5.429   1.615   0.834
22909SOL    HW270625   5.504   1.533   0.731
22910SOL     OW70626   3.848   5.031   7.876
22910SOL    HW170627   3.779   5.047   7.812
22910SOL    HW270628   3.831   4.942   7.907
22911SOL     OW70629   4.801   1.446   9.139
22911SOL    HW170630   4.800   1.535   9.176
22911SOL    HW270631   4.801   1.388   9.215
22912SOL     OW70632   4.526   4.331   9.058
22912SOL    HW170633   4.485   4.415   9.077
22912SOL    HW270634   4.591   4.320   9.128
22913SOL     OW70635  12.283   6.755   3.468
22913SOL    HW170636  12.282   6.776   3.375
22913SOL    HW270637  12.314   6.664   3.472
22914SOL     OW70638  11.387   6.609  12.933
22914SOL    HW170639  11.474   6.606  12.975
22914SOL    HW270640  11.394   6.681  12.870
22915SOL     OW70641   3.038   5.199   1.997
22915SOL    HW170642   3.029   5.282   1.951
22915SOL    HW270643   3.012   5.217   2.087
22916SOL     OW70644   9.048   0.875  11.865
22916SOL    HW170645   9.000   0.807  11.911
22916SOL    HW270646   9.025   0.956  11.911
22917SOL     OW70647   9.541   2.530  12.873
22917SOL    HW170648   9.496   2.580  12.805
22917SOL    HW270649   9.621   2.498  12.830
22918SOL     OW70650   2.213  10.099   1.545
22918SOL    HW170651   2.299  10.057   1.540
22918SOL    HW270652   2.164  10.064   1.471
22919SOL     OW70653  10.358  14.008   9.853
22919SOL    HW170654  10.436  14.050   9.890
22919SOL    HW270655  10.349  14.048   9.767
22920SOL     OW70656   0.815   8.203   8.298
22920SOL    HW170657   0.767   8.283   8.281
22920SOL    HW270658   0.863   8.185   8.217
22921SOL     OW70659   8.530   5.534   1.860
22921SOL    HW170660   8.550   5.573   1.945
22921SOL    HW270661   8.544   5.604   1.797
22922SOL     OW70662   2.248   7.770   6.962
22922SOL    HW170663   2.257   7.865   6.957
22922SOL    HW270664   2.253   7.741   6.871
22923SOL     OW70665   1.115   3.905  13.486
22923SOL    HW170666   1.022   3.888  13.470
22923SOL    HW270667   1.121   3.920  13.580
22924SOL     OW70668   9.420   3.591   9.759
22924SOL    HW170669   9.388   3.661   9.703
22924SOL    HW270670   9.340   3.552   9.796
22925SOL     OW70671   4.016   0.746   5.364
22925SOL    HW170672   4.084   0.681   5.377
22925SOL    HW270673   4.056   0.814   5.309
22926SOL     OW70674  13.567   6.611   5.092
22926SOL    HW170675  13.662   6.622   5.082
22926SOL    HW270676  13.558   6.535   5.149
22927SOL     OW70677   7.136  12.146  12.185
22927SOL    HW170678   7.063  12.088  12.201
22927SOL    HW270679   7.113  12.228  12.230
22928SOL     OW70680  11.020   4.624   6.015
22928SOL    HW170681  11.063   4.710   6.013
22928SOL    HW270682  10.951   4.634   6.080
22929SOL     OW70683   3.002   5.602   0.010
22929SOL    HW170684   3.072   5.601   0.076
22929SOL    HW270685   3.030   5.537  14.815
22930SOL     OW70686   5.480   3.378   5.216
22930SOL    HW170687   5.490   3.305   5.277
22930SOL    HW270688   5.456   3.337   5.133
22931SOL     OW70689  13.520   7.384   8.314
22931SOL    HW170690  13.461   7.394   8.388
22931SOL    HW270691  13.469   7.337   8.248
22932SOL     OW70692  11.165   9.502  12.383
22932SOL    HW170693  11.255   9.496  12.352
22932SOL    HW270694  11.127   9.417  12.363
22933SOL     OW70695  11.510  10.170   7.282
22933SOL    HW170696  11.512  10.225   7.204
22933SOL    HW270697  11.534  10.082   7.251
22934SOL     OW70698   7.472   4.996  11.608
22934SOL    HW170699   7.554   4.949  11.613
22934SOL    HW270700   7.408   4.930  11.579
22935SOL     OW70701   0.473   6.906  10.072
22935SOL    HW170702   0.460   6.821  10.031
22935SOL    HW270703   0.393   6.921  10.122
22936SOL     OW70704   8.086  12.888  11.233
22936SOL    HW170705   8.099  12.806  11.185
22936SOL    HW270706   8.067  12.860  11.323
22937SOL     OW70707  13.326   7.883   1.750
22937SOL    HW170708  13.375   7.904   1.671
22937SOL    HW270709  13.373   7.928   1.820
22938SOL     OW70710  13.724   9.098   4.449
22938SOL    HW170711  13.767   9.147   4.379
22938SOL    HW270712  13.727   9.156   4.524
22939SOL     OW70713   7.575  12.820  12.198
22939SOL    HW170714   7.590  12.828  12.292
22939SOL    HW270715   7.662  12.803  12.161
22940SOL     OW70716   7.310   2.037   3.786
22940SOL    HW170717   7.267   1.997   3.710
22940SOL    HW270718   7.370   2.102   3.749
22941SOL     OW70719  14.112  10.666   1.127
22941SOL    HW170720  14.095  10.606   1.200
22941SOL    HW270721  14.072  10.748   1.153
22942SOL     OW70722   2.583   2.500   6.687
22942SOL    HW170723   2.621   2.484   6.601
22942SOL    HW270724   2.511   2.560   6.671
22943SOL     OW70725   6.800  14.453   5.862
22943SOL    HW170726   6.891  14.425   5.875
22943SOL    HW270727   6.756  14.428   5.944
22944SOL     OW70728  11.021  10.909   0.757
22944SOL    HW170729  11.051  10.873   0.674
22944SOL    HW270730  11.055  10.998   0.759
22945SOL     OW70731   7.041   7.165  12.806
22945SOL    HW170732   7.018   7.165  12.713
22945SOL    HW270733   7.041   7.257  12.832
22946SOL     OW70734   3.620   5.649  11.405
22946SOL    HW170735   3.640   5.708  11.332
22946SOL    HW270736   3.663   5.567  11.383
22947SOL     OW70737  13.127  10.604   3.175
22947SOL    HW170738  13.212  10.578   3.141
22947SOL    HW270739  13.119  10.697   3.151
22948SOL     OW70740   7.006  13.783   6.069
22948SOL    HW170741   6.954  13.860   6.092
22948SOL    HW270742   6.960  13.744   5.995
22949SOL     OW70743   3.095   5.417   1.831
22949SOL    HW170744   3.041   5.491   1.861
22949SOL    HW270745   3.043   5.377   1.761
22950SOL     OW70746  13.758  11.728   5.090
22950SOL    HW170747  13.717  11.766   5.012
22950SOL    HW270748  13.840  11.776   5.101
22951SOL     OW70749   1.717   6.990  11.383
22951SOL    HW170750   1.764   7.023  11.459
22951SOL    HW270751   1.739   6.897  11.380
22952SOL     OW70752   0.541  13.235   6.860
22952SOL    HW170753   0.528  13.330   6.861
22952SOL    HW270754   0.615  13.222   6.801
22953SOL     OW70755   8.367   1.078   3.181
22953SOL    HW170756   8.410   1.129   3.112
22953SOL    HW270757   8.439   1.051   3.238
22954SOL     OW70758   7.559  11.471   4.992
22954SOL    HW170759   7.637  11.485   5.046
22954SOL    HW270760   7.587  11.406   4.927
22955SOL     OW70761   2.288  14.204  12.222
22955SOL    HW170762   2.288  14.176  12.313
22955SOL    HW270763   2.363  14.159  12.183
22956SOL     OW70764   5.483   0.134  12.098
22956SOL    HW170765   5.497   0.137  12.193
22956SOL    HW270766   5.425   0.209  12.080
22957SOL     OW70767   8.008   8.102   5.895
22957SOL    HW170768   8.020   8.091   5.800
22957SOL    HW270769   7.971   8.019   5.924
22958SOL     OW70770   8.004   6.918   3.726
22958SOL    HW170771   8.034   7.000   3.688
22958SOL    HW270772   8.054   6.850   3.680
22959SOL     OW70773  14.014   8.531  12.212
22959SOL    HW170774  14.003   8.437  12.220
22959SOL    HW270775  13.925   8.566  12.219
22960SOL     OW70776   2.586  12.142   7.716
22960SOL    HW170777   2.559  12.085   7.788
22960SOL    HW270778   2.543  12.225   7.733
22961SOL     OW70779  10.063  11.574   6.216
22961SOL    HW170780  10.054  11.515   6.291
22961SOL    HW270781  10.015  11.653   6.242
22962SOL     OW70782   3.682  14.318  10.319
22962SOL    HW170783   3.706  14.376  10.392
22962SOL    HW270784   3.624  14.371  10.265
22963SOL     OW70785   2.246   8.835   2.528
22963SOL    HW170786   2.331   8.802   2.497
22963SOL    HW270787   2.201   8.757   2.561
22964SOL     OW70788  13.435  10.501   8.192
22964SOL    HW170789  13.429  10.587   8.151
22964SOL    HW270790  13.386  10.443   8.134
22965SOL     OW70791   5.118   3.080   1.117
22965SOL    HW170792   5.153   3.160   1.080
22965SOL    HW270793   5.076   3.036   1.043
22966SOL     OW70794   0.183   7.093   9.669
22966SOL    HW170795   0.260   7.035   9.672
22966SOL    HW270796   0.109   7.034   9.683
22967SOL     OW70797  13.989   3.830   2.848
22967SOL    HW170798  13.956   3.879   2.924
22967SOL    HW270799  13.943   3.868   2.773
22968SOL     OW70800  12.072   9.578  13.917
22968SOL    HW170801  12.104   9.511  13.858
22968SOL    HW270802  12.136   9.649  13.911
22969SOL     OW70803   0.316   3.622   3.697
22969SOL    HW170804   0.221   3.631   3.684
22969SOL    HW270805   0.344   3.710   3.723
22970SOL     OW70806   4.617  10.623   9.410
22970SOL    HW170807   4.623  10.529   9.428
22970SOL    HW270808   4.562  10.629   9.331
22971SOL     OW70809  14.724   7.680  13.603
22971SOL    HW170810  14.687   7.630  13.675
22971SOL    HW270811  14.790   7.736  13.644
22972SOL     OW70812   7.020  14.645  12.167
22972SOL    HW170813   7.033  14.697  12.088
22972SOL    HW270814   7.098  14.590  12.174
22973SOL     OW70815  10.007   5.192   8.767
22973SOL    HW170816   9.927   5.154   8.732
22973SOL    HW270817  10.075   5.128   8.746
22974SOL     OW70818   2.389   1.597   8.367
22974SOL    HW170819   2.376   1.503   8.379
22974SOL    HW270820   2.443   1.624   8.442
22975SOL     OW70821  13.887   6.409   1.023
22975SOL    HW170822  13.811   6.399   1.080
22975SOL    HW270823  13.857   6.471   0.956
22976SOL     OW70824   3.699   6.989   7.801
22976SOL    HW170825   3.641   6.951   7.735
22976SOL    HW270826   3.787   6.964   7.772
22977SOL     OW70827   3.214   7.906   0.250
22977SOL    HW170828   3.188   7.991   0.215
22977SOL    HW270829   3.291   7.882   0.198
22978SOL     OW70830  14.215   1.240   0.601
22978SOL    HW170831  14.226   1.206   0.512
22978SOL    HW270832  14.273   1.186   0.654
22979SOL     OW70833   2.699   9.567  13.603
22979SOL    HW170834   2.787   9.597  13.624
22979SOL    HW270835   2.671   9.517  13.680
22980SOL     OW70836   0.950   5.647   5.614
22980SOL    HW170837   0.872   5.700   5.598
22980SOL    HW270838   0.917   5.570   5.661
22981SOL     OW70839   8.683   5.035  14.042
22981SOL    HW170840   8.748   5.080  13.988
22981SOL    HW270841   8.671   5.091  14.118
22982SOL     OW70842  11.191   7.842   9.449
22982SOL    HW170843  11.276   7.883   9.434
22982SOL    HW270844  11.159   7.820   9.362
22983SOL     OW70845   5.350  12.584   9.275
22983SOL    HW170846   5.407  12.556   9.346
22983SOL    HW270847   5.299  12.505   9.253
22984SOL     OW70848  12.269   2.511   6.632
22984SOL    HW170849  12.280   2.438   6.570
22984SOL    HW270850  12.298   2.588   6.584
22985SOL     OW70851   6.808   7.754   8.038
22985SOL    HW170852   6.876   7.692   8.064
22985SOL    HW270853   6.830   7.779   7.948
22986SOL     OW70854   5.470   5.256  14.186
22986SOL    HW170855   5.408   5.184  14.177
22986SOL    HW270856   5.438   5.323  14.126
22987SOL     OW70857   4.633   6.007   3.742
22987SOL    HW170858   4.656   6.089   3.785
22987SOL    HW270859   4.631   5.943   3.813
22988SOL     OW70860   5.624   7.054  12.854
22988SOL    HW170861   5.698   7.102  12.818
22988SOL    HW270862   5.623   6.971  12.806
22989SOL     OW70863   1.234  11.811   8.312
22989SOL    HW170864   1.330  11.814   8.318
22989SOL    HW270865   1.204  11.869   8.382
22990SOL     OW70866   9.585   6.334   2.229
22990SOL    HW170867   9.573   6.415   2.279
22990SOL    HW270868   9.567   6.359   2.139
22991SOL     OW70869   8.094   4.198  12.747
22991SOL    HW170870   8.158   4.162  12.808
22991SOL    HW270871   8.145   4.255  12.690
22992SOL     OW70872  10.245   6.919  10.322
22992SOL    HW170873  10.169   6.894  10.373
22992SOL    HW270874  10.300   6.840  10.320
22993SOL     OW70875   1.768   7.473   1.139
22993SOL    HW170876   1.773   7.381   1.114
22993SOL    HW270877   1.790   7.521   1.059
22994SOL     OW70878  12.345   1.864  13.702
22994SOL    HW170879  12.397   1.794  13.663
22994SOL    HW270880  12.270   1.874  13.642
22995SOL     OW70881  13.649   6.515   7.560
22995SOL    HW170882  13.652   6.443   7.497
22995SOL    HW270883  13.729   6.565   7.543
22996SOL     OW70884  12.025   3.353  10.538
22996SOL    HW170885  12.086   3.331  10.608
22996SOL    HW270886  12.036   3.447  10.525
22997SOL     OW70887   3.830   2.412   4.688
22997SOL    HW170888   3.751   2.394   4.739
22997SOL    HW270889   3.853   2.328   4.649
22998SOL     OW70890  11.690   9.883  14.582
22998SOL    HW170891  11.785   9.900  14.581
22998SOL    HW270892  11.661   9.902  14.493
22999SOL     OW70893   8.323   9.749   4.327
22999SOL    HW170894   8.304   9.691   4.401
22999SOL    HW270895   8.323   9.837   4.365
23000SOL     OW70896  11.937   7.739   0.461
23000SOL    HW170897  11.976   7.799   0.397
23000SOL    HW270898  11.881   7.681   0.408
23001SOL     OW70899  11.402  11.115   8.484
23001SOL    HW170900  11.337  11.044   8.491
23001SOL    HW270901  11.486  11.070   8.479
23002SOL     OW70902   4.796   3.313   6.709
23002SOL    HW170903   4.795   3.219   6.729
23002SOL    HW270904   4.878   3.345   6.746
23003SOL     OW70905   4.003  13.629   2.605
23003SOL    HW170906   3.959  13.632   2.690
23003SOL    HW270907   3.935  13.656   2.543
23004SOL     OW70908  11.506   4.227   6.977
23004SOL    HW170909  11.561   4.197   6.905
23004SOL    HW270910  11.472   4.146   7.016
23005SOL     OW70911   2.425  12.370   9.221
23005SOL    HW170912   2.493  12.425   9.261
23005SOL    HW270913   2.433  12.387   9.128
23006SOL     OW70914   2.841   2.213   7.583
23006SOL    HW170915   2.772   2.225   7.649
23006SOL    HW270916   2.890   2.295   7.585
23007SOL     OW70917   6.627   1.813   6.137
23007SOL    HW170918   6.606   1.751   6.207
23007SOL    HW270919   6.721   1.829   6.147
23008SOL     OW70920   4.715   9.024   5.189
23008SOL    HW170921   4.645   9.075   5.148
23008SOL    HW270922   4.793   9.046   5.138
23009SOL     OW70923  12.971  14.115   3.991
23009SOL    HW170924  12.971  14.182   4.060
23009SOL    HW270925  13.044  14.140   3.933
23010SOL     OW70926   2.729   0.652   5.620
23010SOL    HW170927   2.650   0.677   5.571
23010SOL    HW270928   2.784   0.730   5.617
23011SOL     OW70929   3.153   4.618   0.091
23011SOL    HW170930   3.189   4.530   0.081
23011SOL    HW270931   3.102   4.633   0.012
23012SOL     OW70932  10.442   3.898   9.083
23012SOL    HW170933  10.380   3.843   9.035
23012SOL    HW270934  10.478   3.957   9.017
23013SOL     OW70935  11.575  10.688  10.276
23013SOL    HW170936  11.642  10.728  10.331
23013SOL    HW270937  11.581  10.734  10.192
23014SOL     OW70938   7.340   6.883  13.021
23014SOL    HW170939   7.335   6.793  12.990
23014SOL    HW270940   7.362   6.935  12.944
23015SOL     OW70941   0.732   8.376   8.533
23015SOL    HW170942   0.693   8.316   8.470
23015SOL    HW270943   0.730   8.327   8.616
23016SOL     OW70944   9.815  14.347   8.578
23016SOL    HW170945   9.800  14.386   8.664
23016SOL    HW270946   9.748  14.278   8.571
23017SOL     OW70947   5.387   6.424  12.305
23017SOL    HW170948   5.414   6.335  12.328
23017SOL    HW270949   5.416   6.435  12.214
23018SOL     OW70950   0.336  14.407  13.320
23018SOL    HW170951   0.248  14.416  13.356
23018SOL    HW270952   0.333  14.323  13.273
23019SOL     OW70953  13.527   3.206  14.510
23019SOL    HW170954  13.533   3.238  14.600
23019SOL    HW270955  13.473   3.127  14.516
23020SOL     OW70956   5.621   4.811   2.196
23020SOL    HW170957   5.679   4.827   2.122
23020SOL    HW270958   5.555   4.750   2.161
23021SOL     OW70959   4.331   2.873   1.813
23021SOL    HW170960   4.260   2.817   1.784
23021SOL    HW270961   4.400   2.861   1.747
23022SOL     OW70962   5.220  12.271   6.020
23022SOL    HW170963   5.294  12.236   5.970
23022SOL    HW270964   5.210  12.361   5.990
23023SOL     OW70965   6.390   5.557  14.239
23023SOL    HW170966   6.454   5.542  14.169
23023SOL    HW270967   6.306   5.533  14.201
23024SOL     OW70968   2.984   0.612  13.082
23024SOL    HW170969   3.067   0.599  13.127
23024SOL    HW270970   2.947   0.523  13.075
23025SOL     OW70971  12.401   9.039  13.707
23025SOL    HW170972  12.415   9.007  13.796
23025SOL    HW270973  12.483   9.083  13.684
23026SOL     OW70974   3.342  13.186   1.658
23026SOL    HW170975   3.359  13.119   1.591
23026SOL    HW270976   3.248  13.181   1.672
23027SOL     OW70977  13.863  14.100   4.424
23027SOL    HW170978  13.881  14.184   4.466
23027SOL    HW270979  13.858  14.121   4.330
23028SOL     OW70980   3.111   9.966   8.856
23028SOL    HW170981   3.029  10.005   8.887
23028SOL    HW270982   3.089   9.875   8.835
23029SOL     OW70983   3.288  12.989   7.891
23029SOL    HW170984   3.240  13.006   7.810
23029SOL    HW270985   3.372  12.954   7.861
23030SOL     OW70986   9.477   4.512  12.581
23030SOL    HW170987   9.521   4.556  12.653
23030SOL    HW270988   9.531   4.530  12.505
23031SOL     OW70989  14.138   0.882  10.229
23031SOL    HW170990  14.171   0.808  10.179
23031SOL    HW270991  14.095   0.842  10.305
23032SOL     OW70992  10.928   3.701   2.508
23032SOL    HW170993  10.887   3.680   2.424
23032SOL    HW270994  10.922   3.620   2.558
23033SOL     OW70995  14.153  14.030  13.055
23033SOL    HW170996  14.193  14.081  13.125
23033SOL    HW270997  14.206  13.950  13.050
23034SOL     OW70998  11.861   9.102  13.374
23034SOL    HW170999  11.949   9.098  13.336
23034SOL    HW271000  11.806   9.056  13.311
23035SOL     OW71001   4.427   9.507   4.228
23035SOL    HW171002   4.384   9.583   4.269
23035SOL    HW271003   4.386   9.501   4.142
23036SOL     OW71004   5.773   8.754  12.886
23036SOL    HW171005   5.694   8.737  12.835
23036SOL    HW271006   5.810   8.832  12.847
23037SOL     OW71007  10.510   1.656   0.795
23037SOL    HW171008  10.515   1.717   0.722
23037SOL    HW271009  10.423   1.669   0.833
23038SOL     OW71010   1.851   8.449   6.361
23038SOL    HW171011   1.814   8.429   6.447
23038SOL    HW271012   1.944   8.463   6.378
23039SOL     OW71013  12.235  12.146   0.462
23039SOL    HW171014  12.215  12.063   0.504
23039SOL    HW271015  12.189  12.144   0.378
23040SOL     OW71016   4.594   9.124   8.912
23040SOL    HW171017   4.508   9.142   8.873
23040SOL    HW271018   4.620   9.040   8.875
23041SOL     OW71019   5.714  10.228   4.146
23041SOL    HW171020   5.756  10.280   4.214
23041SOL    HW271021   5.656  10.289   4.100
23042SOL     OW71022   7.897   8.111   6.360
23042SOL    HW171023   7.992   8.119   6.367
23042SOL    HW271024   7.870   8.070   6.443
23043SOL     OW71025   4.430   8.851   1.404
23043SOL    HW171026   4.391   8.789   1.466
23043SOL    HW271027   4.355   8.896   1.365
23044SOL     OW71028  10.197   9.202  13.565
23044SOL    HW171029  10.241   9.203  13.650
23044SOL    HW271030  10.246   9.265  13.512
23045SOL     OW71031   1.408   5.324   6.151
23045SOL    HW171032   1.380   5.392   6.212
23045SOL    HW271033   1.460   5.371   6.085
23046SOL     OW71034   4.561   2.544  10.621
23046SOL    HW171035   4.561   2.522  10.715
23046SOL    HW271036   4.649   2.578  10.605
23047SOL     OW71037  11.946   9.681  11.110
23047SOL    HW171038  11.876   9.684  11.175
23047SOL    HW271039  11.910   9.726  11.034
23048SOL     OW71040   9.807   1.401  13.197
23048SOL    HW171041   9.857   1.319  13.192
23048SOL    HW271042   9.728   1.377  13.245
23049SOL     OW71043   7.219   6.239  14.177
23049SOL    HW171044   7.290   6.178  14.160
23049SOL    HW271045   7.141   6.183  14.185
23050SOL     OW71046   2.790   0.118  12.784
23050SOL    HW171047   2.707   0.110  12.831
23050SOL    HW271048   2.800   0.212  12.770
23051SOL     OW71049   8.712  14.363  13.022
23051SOL    HW171050   8.794  14.355  12.974
23051SOL    HW271051   8.652  14.405  12.960
23052SOL     OW71052   3.782  13.271   9.712
23052SOL    HW171053   3.701  13.230   9.742
23052SOL    HW271054   3.838  13.197   9.687
23053SOL     OW71055   8.804   9.599  10.242
23053SOL    HW171056   8.774   9.665  10.304
23053SOL    HW271057   8.886   9.566  10.279
23054SOL     OW71058   2.587   9.279  12.462
23054SOL    HW171059   2.534   9.263  12.540
23054SOL    HW271060   2.581   9.373  12.448
23055SOL     OW71061   5.671   8.110  12.554
23055SOL    HW171062   5.690   8.146  12.640
23055SOL    HW271063   5.690   8.181  12.493
23056SOL     OW71064   1.927   8.153  11.932
23056SOL    HW171065   1.969   8.069  11.912
23056SOL    HW271066   1.998   8.217  11.931
23057SOL     OW71067  10.792   7.103   1.323
23057SOL    HW171068  10.870   7.151   1.354
23057SOL    HW271069  10.824   7.050   1.250
23058SOL     OW71070   8.307  13.832  11.647
23058SOL    HW171071   8.272  13.767  11.586
23058SOL    HW271072   8.349  13.780  11.716
23059SOL     OW71073   0.906   6.891   2.137
23059SOL    HW171074   1.001   6.880   2.145
23059SOL    HW271075   0.876   6.812   2.091
23060SOL     OW71076  11.478   1.890   7.809
23060SOL    HW171077  11.393   1.846   7.800
23060SOL    HW271078  11.458   1.983   7.800
23061SOL     OW71079   6.972   0.706   8.213
23061SOL    HW171080   6.937   0.640   8.273
23061SOL    HW271081   7.044   0.662   8.168
23062SOL     OW71082  11.735   2.754   3.961
23062SOL    HW171083  11.664   2.713   4.012
23062SOL    HW271084  11.762   2.828   4.014
23063SOL     OW71085   7.136   8.664   1.357
23063SOL    HW171086   7.097   8.577   1.353
23063SOL    HW271087   7.216   8.653   1.407
23064SOL     OW71088   1.354  13.541   8.439
23064SOL    HW171089   1.443  13.575   8.437
23064SOL    HW271090   1.339  13.519   8.531
23065SOL     OW71091   1.178   0.315   1.351
23065SOL    HW171092   1.084   0.321   1.369
23065SOL    HW271093   1.211   0.403   1.370
23066SOL     OW71094  10.309   3.225  10.876
23066SOL    HW171095  10.325   3.312  10.912
23066SOL    HW271096  10.380   3.171  10.910
23067SOL     OW71097  13.085   0.358  13.758
23067SOL    HW171098  13.159   0.335  13.702
23067SOL    HW271099  13.039   0.428  13.710
23068SOL     OW71100  11.788   6.298   9.320
23068SOL    HW171101  11.738   6.222   9.292
23068SOL    HW271102  11.823   6.335   9.239
23069SOL     OW71103  13.301  11.777   1.756
23069SOL    HW171104  13.359  11.752   1.685
23069SOL    HW271105  13.260  11.695   1.784
23070SOL     OW71106   0.077   9.540   7.822
23070SOL    HW171107  14.865   9.529   7.772
23070SOL    HW271108   0.143   9.559   7.755
23071SOL     OW71109  14.752   6.414  13.720
23071SOL    HW171110  14.837   6.402  13.764
23071SOL    HW271111  14.688   6.398  13.789
23072SOL     OW71112   0.509  11.425   2.904
23072SOL    HW171113   0.562  11.355   2.944
23072SOL    HW271114   0.434  11.434   2.962
23073SOL     OW71115  13.840   2.577   8.761
23073SOL    HW171116  13.855   2.517   8.688
23073SOL    HW271117  13.859   2.664   8.726
23074SOL     OW71118   8.300   6.130  12.662
23074SOL    HW171119   8.227   6.070  12.679
23074SOL    HW271120   8.258   6.214  12.645
23075SOL     OW71121   5.795   5.621   9.478
23075SOL    HW171122   5.873   5.573   9.506
23075SOL    HW271123   5.813   5.645   9.387
23076SOL     OW71124   6.092   2.140   9.236
23076SOL    HW171125   6.161   2.147   9.301
23076SOL    HW271126   6.041   2.220   9.246
23077SOL     OW71127  12.311   7.319   3.512
23077SOL    HW171128  12.353   7.233   3.503
23077SOL    HW271129  12.381   7.377   3.542
23078SOL     OW71130   9.581   4.621   4.859
23078SOL    HW171131   9.584   4.712   4.831
23078SOL    HW271132   9.633   4.573   4.794
23079SOL     OW71133  12.169   3.496   0.846
23079SOL    HW171134  12.161   3.456   0.932
23079SOL    HW271135  12.198   3.585   0.863
23080SOL     OW71136   1.096  14.693   2.394
23080SOL    HW171137   1.118  14.773   2.345
23080SOL    HW271138   1.011  14.666   2.358
23081SOL     OW71139  12.044  10.751  12.048
23081SOL    HW171140  12.050  10.830  11.993
23081SOL    HW271141  12.081  10.682  11.994
23082SOL     OW71142   1.743   4.764   5.901
23082SOL    HW171143   1.768   4.814   5.979
23082SOL    HW271144   1.807   4.790   5.835
23083SOL     OW71145   7.175   0.342  14.397
23083SOL    HW171146   7.165   0.429  14.436
23083SOL    HW271147   7.208   0.287  14.468
23084SOL     OW71148   2.080  14.690  12.793
23084SOL    HW171149   2.016  14.716  12.859
23084SOL    HW271150   2.114  14.773  12.760
23085SOL     OW71151   1.951   3.361  14.193
23085SOL    HW171152   2.002   3.412  14.256
23085SOL    HW271153   1.887   3.314  14.247
23086SOL     OW71154  12.199   9.667   3.135
23086SOL    HW171155  12.126   9.631   3.085
23086SOL    HW271156  12.230   9.593   3.188
23087SOL     OW71157  11.252  14.028   0.729
23087SOL    HW171158  11.315  14.044   0.658
23087SOL    HW271159  11.226  13.937   0.719
23088SOL     OW71160   2.654   4.521  10.231
23088SOL    HW171161   2.723   4.547  10.170
23088SOL    HW271162   2.700   4.473  10.300
23089SOL     OW71163  10.935   4.968  10.443
23089SOL    HW171164  10.866   4.960  10.378
23089SOL    HW271165  10.940   5.062  10.462
23090SOL     OW71166  11.019   1.526  10.371
23090SOL    HW171167  11.064   1.451  10.411
23090SOL    HW271168  11.044   1.523  10.279
23091SOL     OW71169   6.407   2.257  13.091
23091SOL    HW171170   6.340   2.190  13.079
23091SOL    HW271171   6.487   2.208  13.107
23092SOL     OW71172   4.081  11.929   7.822
23092SOL    HW171173   3.992  11.960   7.836
23092SOL    HW271174   4.136  12.008   7.832
23093SOL     OW71175   5.001   4.215   3.369
23093SOL    HW171176   5.092   4.226   3.343
23093SOL    HW271177   4.980   4.125   3.345
23094SOL     OW71178  14.629  10.173   8.776
23094SOL    HW171179  14.591  10.132   8.699
23094SOL    HW271180  14.721  10.185   8.753
23095SOL     OW71181   2.373  11.234  14.687
23095SOL    HW171182   2.468  11.222  14.693
23095SOL    HW271183   2.359  11.326  14.709
23096SOL     OW71184   8.956  14.352   9.807
23096SOL    HW171185   9.017  14.298   9.857
23096SOL    HW271186   9.011  14.414   9.759
23097SOL     OW71187   3.387  11.190   2.756
23097SOL    HW171188   3.313  11.212   2.699
23097SOL    HW271189   3.378  11.250   2.830
23098SOL     OW71190   7.691   9.323  10.624
23098SOL    HW171191   7.654   9.246  10.667
23098SOL    HW271192   7.754   9.288  10.561
23099SOL     OW71193   6.262   2.731   5.594
23099SOL    HW171194   6.291   2.755   5.682
23099SOL    HW271195   6.291   2.640   5.584
23100SOL     OW71196   6.804   0.601  11.437
23100SOL    HW171197   6.804   0.609  11.342
23100SOL    HW271198   6.776   0.511  11.454
23101SOL     OW71199   2.958   6.882  12.362
23101SOL    HW171200   2.996   6.946  12.423
23101SOL    HW271201   2.943   6.932  12.281
23102SOL     OW71202   0.826  12.586   0.955
23102SOL    HW171203   0.899  12.551   0.903
23102SOL    HW271204   0.844  12.556   1.044
23103SOL     OW71205   5.978  12.896   1.139
23103SOL    HW171206   5.983  12.992   1.138
23103SOL    HW271207   5.888  12.877   1.164
23104SOL     OW71208   5.010  12.312   7.202
23104SOL    HW171209   5.020  12.407   7.192
23104SOL    HW271210   5.083  12.287   7.258
23105SOL     OW71211   6.346   5.413   4.804
23105SOL    HW171212   6.373   5.503   4.788
23105SOL    HW271213   6.350   5.370   4.718
23106SOL     OW71214  12.849  10.155  12.266
23106SOL    HW171215  12.770  10.202  12.241
23106SOL    HW271216  12.821  10.064  12.273
23107SOL     OW71217   8.776   2.514   2.500
23107SOL    HW171218   8.857   2.464   2.492
23107SOL    HW271219   8.769   2.561   2.416
23108SOL     OW71220   9.170  11.224   0.922
23108SOL    HW171221   9.152  11.163   0.994
23108SOL    HW271222   9.094  11.216   0.865
23109SOL     OW71223   5.078   7.618   8.101
23109SOL    HW171224   5.094   7.524   8.094
23109SOL    HW271225   5.089   7.651   8.012
23110SOL     OW71226   0.658  10.929  10.831
23110SOL    HW171227   0.599  10.873  10.781
23110SOL    HW271228   0.723  10.868  10.867
23111SOL     OW71229   5.839   1.530   0.686
23111SOL    HW171230   5.873   1.619   0.693
23111SOL    HW271231   5.792   1.529   0.603
23112SOL     OW71232   5.820  12.919   3.444
23112SOL    HW171233   5.880  12.846   3.459
23112SOL    HW271234   5.876  12.995   3.429
23113SOL     OW71235   5.512   2.980  12.126
23113SOL    HW171236   5.559   3.022  12.198
23113SOL    HW271237   5.430   3.029  12.120
23114SOL     OW71238   5.845  12.998   0.104
23114SOL    HW171239   5.925  12.971   0.059
23114SOL    HW271240   5.781  12.930   0.084
23115SOL     OW71241   1.471   8.855   3.372
23115SOL    HW171242   1.563   8.850   3.400
23115SOL    HW271243   1.439   8.765   3.379
23116SOL     OW71244   8.404  12.494   4.386
23116SOL    HW171245   8.423  12.545   4.465
23116SOL    HW271246   8.490  12.464   4.356
23117SOL     OW71247  14.344   8.634   6.637
23117SOL    HW171248  14.413   8.590   6.586
23117SOL    HW271249  14.311   8.566   6.696
23118SOL     OW71250   7.384  13.681   4.656
23118SOL    HW171251   7.365  13.769   4.689
23118SOL    HW271252   7.478  13.670   4.669
23119SOL     OW71253  10.693   1.102  13.947
23119SOL    HW171254  10.629   1.073  13.882
23119SOL    HW271255  10.683   1.197  13.951
23120SOL     OW71256  12.745   9.904  12.033
23120SOL    HW171257  12.746   9.999  12.021
23120SOL    HW271258  12.831   9.884  12.068
23121SOL     OW71259  11.826   0.962   8.560
23121SOL    HW171260  11.747   0.992   8.515
23121SOL    HW271261  11.852   1.036   8.614
23122SOL     OW71262   3.323  10.649   2.842
23122SOL    HW171263   3.283  10.630   2.926
23122SOL    HW271264   3.331  10.745   2.840
23123SOL     OW71265   4.649   8.687   3.167
23123SOL    HW171266   4.713   8.621   3.193
23123SOL    HW271267   4.681   8.768   3.205
23124SOL     OW71268   7.065   1.366   6.575
23124SOL    HW171269   7.106   1.289   6.614
23124SOL    HW271270   6.977   1.338   6.552
23125SOL     OW71271   5.722   8.120  10.713
23125SOL    HW171272   5.807   8.079  10.726
23125SOL    HW271273   5.659   8.048  10.722
23126SOL     OW71274   1.724   3.839   8.781
23126SOL    HW171275   1.699   3.923   8.743
23126SOL    HW271276   1.816   3.828   8.759
23127SOL     OW71277   5.033  10.486  11.569
23127SOL    HW171278   4.950  10.508  11.610
23127SOL    HW271279   5.063  10.568  11.530
23128SOL     OW71280  14.140  12.997   4.919
23128SOL    HW171281  14.187  13.076   4.947
23128SOL    HW271282  14.176  12.976   4.834
23129SOL     OW71283  11.412   2.828   2.816
23129SOL    HW171284  11.324   2.796   2.795
23129SOL    HW271285  11.471   2.760   2.783
23130SOL     OW71286   0.005  14.693   8.189
23130SOL    HW171287   0.019  14.598   8.191
23130SOL    HW271288   0.091  14.730   8.208
23131SOL     OW71289   2.241   4.662  13.918
23131SOL    HW171290   2.256   4.678  13.825
23131SOL    HW271291   2.222   4.748  13.955
23132SOL     OW71292   5.510  10.674   1.521
23132SOL    HW171293   5.537  10.609   1.585
23132SOL    HW271294   5.496  10.754   1.572
23133SOL     OW71295  13.899   6.234  11.113
23133SOL    HW171296  13.857   6.304  11.063
23133SOL    HW271297  13.991   6.237  11.085
23134SOL     OW71298   6.185   7.649   9.289
23134SOL    HW171299   6.163   7.662   9.197
23134SOL    HW271300   6.281   7.647   9.291
23135SOL     OW71301   3.903   5.613   0.939
23135SOL    HW171302   3.911   5.609   1.034
23135SOL    HW271303   3.993   5.617   0.907
23136SOL     OW71304   9.653   3.411   1.251
23136SOL    HW171305   9.732   3.417   1.197
23136SOL    HW271306   9.669   3.336   1.309
23137SOL     OW71307   7.186   4.960   0.761
23137SOL    HW171308   7.266   4.928   0.804
23137SOL    HW271309   7.115   4.921   0.812
23138SOL     OW71310   4.580  13.909   3.361
23138SOL    HW171311   4.632  13.990   3.366
23138SOL    HW271312   4.499  13.936   3.318
23139SOL     OW71313  11.496  12.941   7.177
23139SOL    HW171314  11.417  12.890   7.195
23139SOL    HW271315  11.536  12.899   7.101
23140SOL     OW71316  12.159   9.892  13.400
23140SOL    HW171317  12.187   9.984  13.407
23140SOL    HW271318  12.101   9.890  13.324
23141SOL     OW71319   6.330  11.165   7.849
23141SOL    HW171320   6.367  11.253   7.846
23141SOL    HW271321   6.341  11.131   7.760
23142SOL     OW71322  12.935   7.443  12.372
23142SOL    HW171323  12.996   7.511  12.400
23142SOL    HW271324  12.914   7.395  12.452
23143SOL     OW71325  13.465   9.834   0.184
23143SOL    HW171326  13.412   9.786   0.248
23143SOL    HW271327  13.431   9.923   0.187
23144SOL     OW71328  13.545   0.474   7.946
23144SOL    HW171329  13.479   0.414   7.910
23144SOL    HW271330  13.621   0.418   7.964
23145SOL     OW71331   1.006   4.065  10.433
23145SOL    HW171332   1.012   3.981  10.480
23145SOL    HW271333   0.945   4.117  10.485
23146SOL     OW71334  13.446   4.287   0.002
23146SOL    HW171335  13.524   4.241  14.839
23146SOL    HW271336  13.391   4.299  14.794
23147SOL     OW71337   3.391   8.638  14.711
23147SOL    HW171338   3.307   8.675  14.738
23147SOL    HW271339   3.418   8.584  14.785
23148SOL     OW71340   6.509   8.912   0.461
23148SOL    HW171341   6.544   8.846   0.401
23148SOL    HW271342   6.416   8.889   0.470
23149SOL     OW71343   7.708   2.138  11.727
23149SOL    HW171344   7.776   2.074  11.748
23149SOL    HW271345   7.667   2.105  11.648
23150SOL     OW71346   1.109   7.994   0.631
23150SOL    HW171347   1.037   8.005   0.694
23150SOL    HW271348   1.125   7.900   0.629
23151SOL     OW71349  10.014   3.720   5.014
23151SOL    HW171350  10.075   3.702   4.943
23151SOL    HW271351  10.069   3.733   5.092
23152SOL     OW71352  13.602   1.150   7.028
23152SOL    HW171353  13.544   1.205   6.975
23152SOL    HW271354  13.544   1.087   7.070
23153SOL     OW71355  12.179   0.697  13.714
23153SOL    HW171356  12.163   0.737  13.800
23153SOL    HW271357  12.273   0.681  13.712
23154SOL     OW71358   5.337   5.978   7.151
23154SOL    HW171359   5.246   6.008   7.161
23154SOL    HW271360   5.380   6.006   7.231
23155SOL     OW71361   6.110  14.447  14.003
23155SOL    HW171362   6.092  14.438  13.909
23155SOL    HW271363   6.025  14.469  14.042
23156SOL     OW71364  11.745   5.988   5.741
23156SOL    HW171365  11.794   5.962   5.819
23156SOL    HW271366  11.665   5.936   5.745
23157SOL     OW71367   7.871   8.848   0.236
23157SOL    HW171368   7.966   8.852   0.250
23157SOL    HW271369   7.847   8.758   0.259
23158SOL     OW71370  12.950  14.563  12.770
23158SOL    HW171371  12.872  14.614  12.751
23158SOL    HW271372  12.952  14.495  12.703
23159SOL     OW71373  11.875   1.319  12.282
23159SOL    HW171374  11.950   1.342  12.338
23159SOL    HW271375  11.842   1.403  12.251
23160SOL     OW71376  12.051   5.200   9.961
23160SOL    HW171377  12.064   5.118  10.009
23160SOL    HW271378  12.128   5.208   9.906
23161SOL     OW71379  11.448   4.789   1.489
23161SOL    HW171380  11.382   4.858   1.492
23161SOL    HW271381  11.428   4.733   1.563
23162SOL     OW71382  13.256  14.125   9.938
23162SOL    HW171383  13.291  14.215   9.940
23162SOL    HW271384  13.171  14.132   9.981
23163SOL     OW71385   7.534   0.090   2.400
23163SOL    HW171386   7.535   0.015   2.340
23163SOL    HW271387   7.626   0.116   2.406
23164SOL     OW71388  14.519   1.079   1.458
23164SOL    HW171389  14.476   1.141   1.400
23164SOL    HW271390  14.471   0.997   1.445
23165SOL     OW71391   9.561   3.301  12.199
23165SOL    HW171392   9.615   3.324  12.276
23165SOL    HW271393   9.553   3.383  12.150
23166SOL     OW71394   3.849   2.043   9.927
23166SOL    HW171395   3.912   2.070   9.861
23166SOL    HW271396   3.818   1.957   9.897
23167SOL     OW71397   2.415  13.571  13.575
23167SOL    HW171398   2.362  13.624  13.634
23167SOL    HW271399   2.363  13.564  13.495
23168SOL     OW71400   5.431   6.304   8.028
23168SOL    HW171401   5.348   6.351   8.019
23168SOL    HW271402   5.471   6.309   7.942
23169SOL     OW71403  10.047   3.569   0.442
23169SOL    HW171404   9.981   3.505   0.415
23169SOL    HW271405  10.024   3.648   0.394
23170SOL     OW71406  10.284   0.603   0.475
23170SOL    HW171407  10.219   0.567   0.535
23170SOL    HW271408  10.364   0.554   0.494
23171SOL     OW71409   3.767   3.688  14.564
23171SOL    HW171410   3.793   3.761  14.620
23171SOL    HW271411   3.797   3.610  14.612
23172SOL     OW71412   4.562   2.900   5.579
23172SOL    HW171413   4.550   2.841   5.654
23172SOL    HW271414   4.499   2.870   5.514
23173SOL     OW71415   3.344  10.878  14.272
23173SOL    HW171416   3.407  10.883  14.200
23173SOL    HW271417   3.261  10.905  14.233
23174SOL     OW71418   4.813  10.813  11.609
23174SOL    HW171419   4.739  10.755  11.594
23174SOL    HW271420   4.843  10.838  11.521
23175SOL     OW71421   3.914  10.533   1.036
23175SOL    HW171422   3.844  10.515   0.973
23175SOL    HW271423   3.994  10.533   0.983
23176SOL     OW71424  11.233  12.771  14.144
23176SOL    HW171425  11.327  12.765  14.125
23176SOL    HW271426  11.206  12.681  14.160
23177SOL     OW71427   4.903   9.351   2.813
23177SOL    HW171428   4.813   9.324   2.830
23177SOL    HW271429   4.896   9.415   2.742
23178SOL     OW71430   4.598   2.348   4.787
23178SOL    HW171431   4.548   2.385   4.714
23178SOL    HW271432   4.637   2.423   4.830
23179SOL     OW71433   8.086   1.201   0.471
23179SOL    HW171434   7.996   1.176   0.492
23179SOL    HW271435   8.089   1.295   0.490
23180SOL     OW71436   2.876   0.272   9.412
23180SOL    HW171437   2.890   0.230   9.497
23180SOL    HW271438   2.889   0.365   9.429
23181SOL     OW71439   8.147   8.965  12.360
23181SOL    HW171440   8.134   8.968  12.265
23181SOL    HW271441   8.138   8.872  12.382
23182SOL     OW71442   8.922   0.199   8.141
23182SOL    HW171443   8.954   0.110   8.130
23182SOL    HW271444   8.943   0.243   8.058
23183SOL     OW71445   5.649   2.409   6.139
23183SOL    HW171446   5.732   2.400   6.185
23183SOL    HW271447   5.650   2.340   6.072
23184SOL     OW71448   9.840   9.941   9.810
23184SOL    HW171449   9.823   9.949   9.717
23184SOL    HW271450   9.892   9.862   9.819
23185SOL     OW71451  13.852  10.902  13.921
23185SOL    HW171452  13.833  10.814  13.952
23185SOL    HW271453  13.903  10.943  13.991
23186SOL     OW71454   7.347  11.839   2.897
23186SOL    HW171455   7.411  11.835   2.826
23186SOL    HW271456   7.268  11.797   2.861
23187SOL     OW71457  12.657   5.902  10.535
23187SOL    HW171458  12.687   5.929  10.449
23187SOL    HW271459  12.586   5.962  10.557
23188SOL     OW71460   0.200   1.400  10.312
23188SOL    HW171461   0.231   1.405  10.402
23188SOL    HW271462   0.158   1.314  10.306
23189SOL     OW71463   4.080   1.505   0.305
23189SOL    HW171464   4.052   1.414   0.317
23189SOL    HW271465   4.174   1.504   0.317
23190SOL     OW71466  11.973  14.675  10.200
23190SOL    HW171467  11.916  14.749  10.217
23190SOL    HW271468  12.062  14.711  10.205
23191SOL     OW71469   7.844  14.850   0.829
23191SOL    HW171470   7.790   0.060   0.819
23191SOL    HW271471   7.842  14.810   0.742
23192SOL     OW71472   3.383   1.892  12.028
23192SOL    HW171473   3.374   1.845  12.110
23192SOL    HW271474   3.473   1.924  12.028
23193SOL     OW71475   8.809   7.048   9.635
23193SOL    HW171476   8.768   6.980   9.583
23193SOL    HW271477   8.854   7.001   9.705
23194SOL     OW71478  12.042  12.350   2.264
23194SOL    HW171479  12.086  12.356   2.348
23194SOL    HW271480  12.061  12.432   2.219
23195SOL     OW71481   7.263   3.963   7.221
23195SOL    HW171482   7.220   4.013   7.290
23195SOL    HW271483   7.219   3.992   7.140
23196SOL     OW71484  10.986   4.968   5.607
23196SOL    HW171485  10.937   4.889   5.631
23196SOL    HW271486  10.996   4.961   5.512
23197SOL     OW71487  11.379   2.411   2.037
23197SOL    HW171488  11.310   2.434   2.100
23197SOL    HW271489  11.394   2.492   1.988
23198SOL     OW71490  14.186  12.616   6.866
23198SOL    HW171491  14.128  12.581   6.933
23198SOL    HW271492  14.209  12.541   6.811
23199SOL     OW71493   8.418   4.505   3.460
23199SOL    HW171494   8.329   4.472   3.446
23199SOL    HW271495   8.416   4.541   3.549
23200SOL     OW71496   9.224   6.651  12.225
23200SOL    HW171497   9.249   6.602  12.147
23200SOL    HW271498   9.196   6.737  12.192
23201SOL     OW71499   3.312  14.520   7.882
23201SOL    HW171500   3.364  14.440   7.876
23201SOL    HW271501   3.349  14.568   7.956
23202SOL     OW71502  13.589   2.834   5.925
23202SOL    HW171503  13.660   2.809   5.984
23202SOL    HW271504  13.535   2.894   5.977
23203SOL     OW71505   1.762   5.137  10.871
23203SOL    HW171506   1.732   5.173  10.787
23203SOL    HW271507   1.742   5.044  10.866
23204SOL     OW71508   1.928  10.866  11.534
23204SOL    HW171509   2.011  10.851  11.581
23204SOL    HW271510   1.893  10.778  11.519
23205SOL     OW71511   0.760  12.352   3.263
23205SOL    HW171512   0.667  12.367   3.281
23205SOL    HW271513   0.800  12.340   3.349
23206SOL     OW71514   4.812   6.321  11.356
23206SOL    HW171515   4.833   6.245  11.410
23206SOL    HW271516   4.889   6.333  11.301
23207SOL     OW71517  13.314   0.854   5.739
23207SOL    HW171518  13.308   0.927   5.800
23207SOL    HW271519  13.291   0.777   5.791
23208SOL     OW71520  12.576  14.199  10.783
23208SOL    HW171521  12.626  14.144  10.722
23208SOL    HW271522  12.486  14.191  10.752
23209SOL     OW71523  11.825  11.278   3.339
23209SOL    HW171524  11.730  11.287   3.341
23209SOL    HW271525  11.841  11.186   3.360
23210SOL     OW71526   2.881   7.889   9.783
23210SOL    HW171527   2.835   7.933   9.855
23210SOL    HW271528   2.881   7.797   9.807
23211SOL     OW71529   2.959   6.100   0.748
23211SOL    HW171530   2.915   6.158   0.685
23211SOL    HW271531   3.039   6.072   0.703
23212SOL     OW71532   7.666  11.382  12.599
23212SOL    HW171533   7.709  11.436  12.533
23212SOL    HW271534   7.701  11.294  12.585
23213SOL     OW71535   8.846   1.572   3.488
23213SOL    HW171536   8.915   1.615   3.539
23213SOL    HW271537   8.772   1.565   3.548
23214SOL     OW71538  11.551   4.384   1.453
23214SOL    HW171539  11.542   4.437   1.532
23214SOL    HW271540  11.617   4.430   1.400
23215SOL     OW71541   5.649   2.327  12.390
23215SOL    HW171542   5.695   2.348  12.309
23215SOL    HW271543   5.716   2.330  12.458
23216SOL     OW71544  10.022  13.801   4.639
23216SOL    HW171545   9.986  13.882   4.604
23216SOL    HW271546   9.979  13.732   4.588
23217SOL     OW71547  10.495   1.276   7.915
23217SOL    HW171548  10.496   1.248   7.824
23217SOL    HW271549  10.402   1.293   7.933
23218SOL     OW71550   0.419  13.794   8.674
23218SOL    HW171551   0.362  13.727   8.712
23218SOL    HW271552   0.373  13.876   8.692
23219SOL     OW71553   3.933   6.585   7.538
23219SOL    HW171554   4.022   6.569   7.508
23219SOL    HW271555   3.900   6.654   7.480
23220SOL     OW71556  12.331  13.403  13.426
23220SOL    HW171557  12.274  13.327  13.417
23220SOL    HW271558  12.381  13.405  13.345
23221SOL     OW71559   5.003   1.446  10.845
23221SOL    HW171560   4.947   1.519  10.816
23221SOL    HW271561   5.082   1.489  10.877
23222SOL     OW71562   7.250   9.666   7.898
23222SOL    HW171563   7.170   9.615   7.899
23222SOL    HW271564   7.301   9.632   7.971
23223SOL     OW71565   3.454  11.306   6.309
23223SOL    HW171566   3.506  11.226   6.315
23223SOL    HW271567   3.432  11.312   6.216
23224SOL     OW71568   0.016   0.006   9.174
23224SOL    HW171569  14.822   0.011   9.102
23224SOL    HW271570  14.838   0.041   9.250
23225SOL     OW71571   1.035  13.277   2.889
23225SOL    HW171572   1.035  13.320   2.974
23225SOL    HW271573   1.003  13.344   2.828
23226SOL     OW71574   3.347   3.155   1.281
23226SOL    HW171575   3.423   3.211   1.292
23226SOL    HW271576   3.280   3.212   1.244
23227SOL     OW71577   1.939   8.155  14.453
23227SOL    HW171578   2.010   8.094  14.475
23227SOL    HW271579   1.875   8.144  14.523
23228SOL     OW71580   3.643   8.890   4.473
23228SOL    HW171581   3.648   8.932   4.559
23228SOL    HW271582   3.559   8.920   4.437
23229SOL     OW71583   7.876   1.173   3.298
23229SOL    HW171584   7.819   1.122   3.356
23229SOL    HW271585   7.873   1.127   3.214
23230SOL     OW71586   8.637   0.046   8.032
23230SOL    HW171587   8.717   0.073   8.077
23230SOL    HW271588   8.640  14.820   8.034
23231SOL     OW71589   2.509   4.866   5.469
23231SOL    HW171590   2.538   4.792   5.521
23231SOL    HW271591   2.557   4.858   5.387
23232SOL     OW71592   2.225   1.059  13.966
23232SOL    HW171593   2.255   0.972  13.939
23232SOL    HW271594   2.172   1.089  13.891
23233SOL     OW71595   3.954   5.239  11.676
23233SOL    HW171596   3.962   5.163  11.619
23233SOL    HW271597   3.957   5.314  11.616
23234SOL     OW71598   6.595   2.738   5.895
23234SOL    HW171599   6.681   2.704   5.873
23234SOL    HW271600   6.535   2.664   5.879
23235SOL     OW71601  12.178   0.931   3.777
23235SOL    HW171602  12.163   0.846   3.735
23235SOL    HW271603  12.206   0.909   3.866
23236SOL     OW71604  14.675   0.360   9.389
23236SOL    HW171605  14.663   0.266   9.380
23236SOL    HW271606  14.586   0.395   9.398
23237SOL     OW71607  10.141   6.401   6.811
23237SOL    HW171608  10.093   6.369   6.887
23237SOL    HW271609  10.074   6.436   6.752
23238SOL     OW71610   6.061   3.291  12.546
23238SOL    HW171611   6.082   3.378  12.512
23238SOL    HW271612   6.143   3.260  12.586
23239SOL     OW71613   9.761  12.843   9.855
23239SOL    HW171614   9.720  12.897   9.787
23239SOL    HW271615   9.803  12.772   9.806
23240SOL     OW71616  14.459   9.330   4.570
23240SOL    HW171617  14.459   9.426   4.566
23240SOL    HW271618  14.549   9.306   4.547
23241SOL     OW71619   8.992  12.615   9.975
23241SOL    HW171620   9.052  12.684  10.005
23241SOL    HW271621   8.973  12.564  10.054
23242SOL     OW71622  12.416  12.251   3.069
23242SOL    HW171623  12.428  12.330   3.121
23242SOL    HW271624  12.361  12.279   2.996
23243SOL     OW71625  11.118   3.598   5.398
23243SOL    HW171626  11.152   3.614   5.310
23243SOL    HW271627  11.099   3.505   5.400
23244SOL     OW71628   4.052   1.729  14.732
23244SOL    HW171629   4.072   1.818  14.763
23244SOL    HW271630   4.135   1.682  14.737
23245SOL     OW71631   2.192  12.238  13.305
23245SOL    HW171632   2.167  12.283  13.386
23245SOL    HW271633   2.205  12.308  13.241
23246SOL     OW71634   1.508   2.171   2.022
23246SOL    HW171635   1.462   2.202   1.944
23246SOL    HW271636   1.501   2.076   2.018
23247SOL     OW71637   6.107   3.948   0.746
23247SOL    HW171638   6.188   3.970   0.792
23247SOL    HW271639   6.134   3.888   0.677
23248SOL     OW71640  13.228   3.459  13.132
23248SOL    HW171641  13.311   3.446  13.178
23248SOL    HW271642  13.254   3.485  13.043
23249SOL     OW71643   7.874   9.853   8.034
23249SOL    HW171644   7.796   9.906   8.049
23249SOL    HW271645   7.938   9.887   8.096
23250SOL     OW71646   0.105  14.866   0.994
23250SOL    HW171647   0.168  14.802   1.027
23250SOL    HW271648   0.144   0.028   0.912
23251SOL     OW71649   0.574   2.978  11.038
23251SOL    HW171650   0.600   3.070  11.051
23251SOL    HW271651   0.532   2.954  11.120
23252SOL     OW71652   6.054   8.156   6.228
23252SOL    HW171653   6.056   8.227   6.291
23252SOL    HW271654   5.963   8.126   6.227
23253SOL     OW71655   7.643   7.261  12.428
23253SOL    HW171656   7.594   7.323  12.374
23253SOL    HW271657   7.696   7.211  12.366
23254SOL     OW71658   7.018   8.678   1.859
23254SOL    HW171659   7.030   8.656   1.951
23254SOL    HW271660   7.106   8.670   1.821
23255SOL     OW71661  14.563   7.947  14.500
23255SOL    HW171662  14.570   8.042  14.502
23255SOL    HW271663  14.621   7.917  14.570
23256SOL     OW71664  14.808  11.350   6.214
23256SOL    HW171665   0.024  11.377   6.183
23256SOL    HW271666  14.823  11.322   6.305
23257SOL     OW71667   9.814  10.646  12.752
23257SOL    HW171668   9.905  10.644  12.721
23257SOL    HW271669   9.810  10.577  12.818
23258SOL     OW71670   6.965  12.088  13.467
23258SOL    HW171671   7.002  12.059  13.383
23258SOL    HW271672   6.875  12.112  13.445
23259SOL     OW71673   5.931   4.446   6.755
23259SOL    HW171674   6.005   4.386   6.759
23259SOL    HW271675   5.957   4.520   6.810
23260SOL     OW71676   0.803  10.695  11.660
23260SOL    HW171677   0.853  10.735  11.589
23260SOL    HW271678   0.736  10.643  11.615
23261SOL     OW71679   8.344   5.609   2.337
23261SOL    HW171680   8.293   5.569   2.266
23261SOL    HW271681   8.304   5.576   2.417
23262SOL     OW71682  13.932   2.643   6.655
23262SOL    HW171683  14.003   2.699   6.686
23262SOL    HW271684  13.853   2.697   6.664
23263SOL     OW71685  10.972   6.432   4.753
23263SOL    HW171686  10.900   6.466   4.699
23263SOL    HW271687  10.930   6.367   4.809
23264SOL     OW71688   9.971  11.269   4.328
23264SOL    HW171689  10.065  11.252   4.325
23264SOL    HW271690   9.958  11.317   4.410
23265SOL     OW71691  12.201  14.580   8.603
23265SOL    HW171692  12.256  14.634   8.660
23265SOL    HW271693  12.176  14.638   8.531
23266SOL     OW71694  10.639   1.070  14.216
23266SOL    HW171695  10.694   1.100  14.144
23266SOL    HW271696  10.682   0.991  14.248
23267SOL     OW71697   7.387   3.254  11.049
23267SOL    HW171698   7.401   3.192  11.122
23267SOL    HW271699   7.306   3.224  11.008
23268SOL     OW71700   4.606   9.215   5.604
23268SOL    HW171701   4.551   9.272   5.550
23268SOL    HW271702   4.620   9.138   5.550
23269SOL     OW71703  11.261  13.862   9.871
23269SOL    HW171704  11.311  13.904   9.941
23269SOL    HW271705  11.169  13.878   9.893
23270SOL     OW71706  12.468   7.358  12.690
23270SOL    HW171707  12.446   7.392  12.604
23270SOL    HW271708  12.480   7.436  12.744
23271SOL     OW71709   3.685   2.327   7.641
23271SOL    HW171710   3.725   2.370   7.566
23271SOL    HW271711   3.601   2.296   7.609
23272SOL     OW71712   4.535   5.686  13.151
23272SOL    HW171713   4.542   5.603  13.103
23272SOL    HW271714   4.487   5.743  13.091
23273SOL     OW71715   5.267   9.367   8.182
23273SOL    HW171716   5.312   9.360   8.266
23273SOL    HW271717   5.246   9.276   8.158
23274SOL     OW71718   7.692  10.361   5.461
23274SOL    HW171719   7.777  10.319   5.474
23274SOL    HW271720   7.708  10.429   5.396
23275SOL     OW71721  11.004   4.799   7.585
23275SOL    HW171722  11.024   4.707   7.605
23275SOL    HW271723  11.087   4.836   7.556
23276SOL     OW71724   5.121   2.635   9.644
23276SOL    HW171725   5.169   2.600   9.570
23276SOL    HW271726   5.177   2.618   9.720
23277SOL     OW71727   6.499  10.336  12.049
23277SOL    HW171728   6.477  10.366  12.138
23277SOL    HW271729   6.568  10.395  12.020
23278SOL     OW71730   0.816   0.780   0.043
23278SOL    HW171731   0.883   0.790  14.846
23278SOL    HW271732   0.780   0.868   0.056
23279SOL     OW71733   1.347   4.612   8.208
23279SOL    HW171734   1.256   4.639   8.199
23279SOL    HW271735   1.372   4.581   8.121
23280SOL     OW71736  10.607   5.259   7.597
23280SOL    HW171737  10.543   5.189   7.586
23280SOL    HW271738  10.668   5.247   7.524
23281SOL     OW71739   5.629   2.465   7.559
23281SOL    HW171740   5.724   2.472   7.548
23281SOL    HW271741   5.600   2.555   7.578
23282SOL     OW71742   8.797   8.618  14.533
23282SOL    HW171743   8.784   8.713  14.523
23282SOL    HW271744   8.820   8.587  14.446
23283SOL     OW71745  14.169   5.561  13.869
23283SOL    HW171746  14.165   5.653  13.893
23283SOL    HW271747  14.209   5.518  13.945
23284SOL     OW71748   3.488   1.219   1.774
23284SOL    HW171749   3.430   1.163   1.827
23284SOL    HW271750   3.531   1.159   1.714
23285SOL     OW71751   1.447  13.819   9.676
23285SOL    HW171752   1.457  13.854   9.764
23285SOL    HW271753   1.361  13.776   9.676
23286SOL     OW71754   7.911   4.891  14.642
23286SOL    HW171755   7.834   4.844  14.612
23286SOL    HW271756   7.895   4.982  14.618
23287SOL     OW71757   4.815   2.050   3.445
23287SOL    HW171758   4.777   2.100   3.373
23287SOL    HW271759   4.748   1.986   3.468
23288SOL     OW71760   4.240   4.962   2.911
23288SOL    HW171761   4.195   5.046   2.912
23288SOL    HW271762   4.232   4.930   3.001
23289SOL     OW71763   6.912   9.488   5.079
23289SOL    HW171764   6.912   9.483   4.984
23289SOL    HW271765   6.902   9.581   5.098
23290SOL     OW71766   8.332  11.694   4.690
23290SOL    HW171767   8.275  11.664   4.761
23290SOL    HW271768   8.420  11.670   4.718
23291SOL     OW71769   9.988   6.352   5.834
23291SOL    HW171770  10.033   6.271   5.856
23291SOL    HW271771  10.012   6.412   5.905
23292SOL     OW71772  14.458   7.560  14.676
23292SOL    HW171773  14.412   7.546  14.759
23292SOL    HW271774  14.502   7.476  14.659
23293SOL     OW71775   6.828  11.909  14.156
23293SOL    HW171776   6.823  11.814  14.152
23293SOL    HW271777   6.766  11.933  14.225
23294SOL     OW71778  12.568   5.446   3.141
23294SOL    HW171779  12.550   5.484   3.226
23294SOL    HW271780  12.662   5.430   3.141
23295SOL     OW71781  14.682  12.946  10.274
23295SOL    HW171782  14.762  12.960  10.223
23295SOL    HW271783  14.668  13.029  10.321
23296SOL     OW71784  13.013   6.239  14.175
23296SOL    HW171785  12.942   6.175  14.180
23296SOL    HW271786  13.041   6.250  14.266
23297SOL     OW71787   1.223  11.823  14.850
23297SOL    HW171788   1.220  11.731  14.822
23297SOL    HW271789   1.276  11.822   0.061
23298SOL     OW71790  12.942   5.768   8.965
23298SOL    HW171791  12.965   5.758   9.058
23298SOL    HW271792  12.849   5.789   8.965
23299SOL     OW71793   0.268   2.230  11.817
23299SOL    HW171794   0.179   2.205  11.793
23299SOL    HW271795   0.316   2.147  11.818
23300SOL     OW71796   2.503   0.094   9.863
23300SOL    HW171797   2.421   0.116   9.819
23300SOL    HW271798   2.525   0.007   9.831
23301SOL     OW71799  12.589   9.275  12.986
23301SOL    HW171800  12.613   9.198  13.038
23301SOL    HW271801  12.672   9.314  12.960
23302SOL     OW71802   5.476  12.121  12.983
23302SOL    HW171803   5.384  12.136  13.003
23302SOL    HW271804   5.522  12.138  13.065
23303SOL     OW71805   2.343  10.811   0.662
23303SOL    HW171806   2.390  10.881   0.707
23303SOL    HW271807   2.264  10.797   0.714
23304SOL     OW71808   1.066   6.247  14.031
23304SOL    HW171809   1.031   6.295  13.955
23304SOL    HW271810   1.134   6.304  14.066
23305SOL     OW71811   0.806  11.629  10.958
23305SOL    HW171812   0.886  11.591  10.921
23305SOL    HW271813   0.737  11.569  10.931
23306SOL     OW71814   9.507   1.400   8.672
23306SOL    HW171815   9.521   1.312   8.637
23306SOL    HW271816   9.474   1.385   8.761
23307SOL     OW71817   7.505   0.867  12.147
23307SOL    HW171818   7.478   0.885  12.057
23307SOL    HW271819   7.600   0.854  12.141
23308SOL     OW71820  14.493   7.833   8.643
23308SOL    HW171821  14.581   7.845   8.607
23308SOL    HW271822  14.497   7.870   8.731
23309SOL     OW71823   2.122  12.641   1.779
23309SOL    HW171824   2.146  12.732   1.797
23309SOL    HW271825   2.115  12.600   1.865
23310SOL     OW71826   8.208   6.372  10.511
23310SOL    HW171827   8.290   6.404  10.475
23310SOL    HW271828   8.162   6.450  10.543
23311SOL     OW71829  10.231   0.096  11.580
23311SOL    HW171830  10.299   0.035  11.552
23311SOL    HW271831  10.276   0.157  11.639
23312SOL     OW71832   1.353  10.517  12.712
23312SOL    HW171833   1.282  10.575  12.686
23312SOL    HW271834   1.430  10.574  12.717
23313SOL     OW71835  10.721  13.451  13.470
23313SOL    HW171836  10.713  13.420  13.380
23313SOL    HW271837  10.719  13.546  13.462
23314SOL     OW71838   8.992   4.727   0.107
23314SOL    HW171839   9.055   4.789   0.070
23314SOL    HW271840   8.951   4.686   0.031
23315SOL     OW71841  14.030   2.551   7.465
23315SOL    HW171842  14.081   2.483   7.422
23315SOL    HW271843  14.081   2.573   7.543
23316SOL     OW71844   3.968   2.480   7.022
23316SOL    HW171845   3.976   2.391   7.056
23316SOL    HW271846   3.970   2.469   6.927
23317SOL     OW71847   8.314  13.353   2.694
23317SOL    HW171848   8.270  13.345   2.778
23317SOL    HW271849   8.399  13.392   2.714
23318SOL     OW71850  10.572  14.713   5.354
23318SOL    HW171851  10.657  14.705   5.310
23318SOL    HW271852  10.593  14.748   5.441
23319SOL     OW71853  14.254   3.083   6.783
23319SOL    HW171854  14.318   3.122   6.723
23319SOL    HW271855  14.296   3.088   6.869
23320SOL     OW71856  12.925   7.361   7.579
23320SOL    HW171857  12.866   7.408   7.638
23320SOL    HW271858  12.868   7.324   7.512
23321SOL     OW71859   2.497   2.456   7.641
23321SOL    HW171860   2.440   2.380   7.637
23321SOL    HW271861   2.510   2.473   7.734
23322SOL     OW71862   4.869   4.339   2.737
23322SOL    HW171863   4.895   4.346   2.645
23322SOL    HW271864   4.943   4.377   2.785
23323SOL     OW71865   3.640   0.518   6.926
23323SOL    HW171866   3.582   0.443   6.932
23323SOL    HW271867   3.719   0.485   6.883
23324SOL     OW71868   7.143  10.038   5.590
23324SOL    HW171869   7.073   9.975   5.574
23324SOL    HW271870   7.175  10.061   5.503
23325SOL     OW71871  14.378   9.360   0.359
23325SOL    HW171872  14.363   9.282   0.412
23325SOL    HW271873  14.386   9.328   0.269
23326SOL     OW71874   0.151   4.639   6.252
23326SOL    HW171875   0.234   4.659   6.207
23326SOL    HW271876   0.120   4.558   6.210
23327SOL     OW71877   9.436   6.012  11.231
23327SOL    HW171878   9.443   5.974  11.144
23327SOL    HW271879   9.351   5.982  11.264
23328SOL     OW71880   1.059  13.020   1.705
23328SOL    HW171881   1.119  12.959   1.661
23328SOL    HW271882   1.111  13.061   1.773
23329SOL     OW71883  10.184   0.454   4.239
23329SOL    HW171884  10.249   0.520   4.214
23329SOL    HW271885  10.145   0.489   4.319
23330SOL     OW71886  12.125   2.075  10.130
23330SOL    HW171887  12.197   2.027  10.090
23330SOL    HW271888  12.060   2.083  10.061
23331SOL     OW71889   4.607   4.053  11.941
23331SOL    HW171890   4.645   3.972  11.976
23331SOL    HW271891   4.512   4.040  11.947
23332SOL     OW71892   1.423  11.762  14.473
23332SOL    HW171893   1.458  11.719  14.551
23332SOL    HW271894   1.360  11.825  14.507
23333SOL     OW71895  10.497   2.074   9.314
23333SOL    HW171896  10.497   2.169   9.306
23333SOL    HW271897  10.587   2.051   9.337
23334SOL     OW71898   5.783  13.848   5.708
23334SOL    HW171899   5.862  13.846   5.763
23334SOL    HW271900   5.711  13.861   5.770
23335SOL     OW71901   2.690   2.706   5.251
23335SOL    HW171902   2.783   2.714   5.269
23335SOL    HW271903   2.657   2.646   5.318
23336SOL     OW71904  14.487  10.704  10.775
23336SOL    HW171905  14.448  10.672  10.857
23336SOL    HW271906  14.418  10.755  10.734
23337SOL     OW71907   9.374  10.630   6.226
23337SOL    HW171908   9.293  10.668   6.191
23337SOL    HW271909   9.409  10.579   6.153
23338SOL     OW71910   3.571   2.034   4.448
23338SOL    HW171911   3.502   1.975   4.420
23338SOL    HW271912   3.554   2.048   4.541
23339SOL     OW71913   2.802  10.467   8.794
23339SOL    HW171914   2.834  10.430   8.876
23339SOL    HW271915   2.879  10.508   8.754
23340SOL     OW71916   1.413  14.359  11.954
23340SOL    HW171917   1.434  14.279  11.905
23340SOL    HW271918   1.496  14.383  11.996
23341SOL     OW71919  11.935   3.612   7.747
23341SOL    HW171920  11.840   3.599   7.743
23341SOL    HW271921  11.965   3.595   7.658
23342SOL     OW71922   8.641   5.655  12.956
23342SOL    HW171923   8.646   5.583  12.894
23342SOL    HW271924   8.691   5.726  12.914
23343SOL     OW71925  12.386  12.905   3.644
23343SOL    HW171926  12.397  12.981   3.700
23343SOL    HW271927  12.311  12.926   3.588
23344SOL     OW71928  10.846   4.750   8.188
23344SOL    HW171929  10.756   4.781   8.180
23344SOL    HW271930  10.838   4.655   8.201
23345SOL     OW71931  11.124   8.173   6.637
23345SOL    HW171932  11.153   8.147   6.724
23345SOL    HW271933  11.197   8.224   6.601
23346SOL     OW71934  11.176   2.845   5.557
23346SOL    HW171935  11.112   2.867   5.489
23346SOL    HW271936  11.123   2.824   5.634
23347SOL     OW71937   9.244  12.642   7.479
23347SOL    HW171938   9.200  12.687   7.407
23347SOL    HW271939   9.311  12.704   7.508
23348SOL     OW71940  11.284  14.590   8.990
23348SOL    HW171941  11.198  14.616   8.958
23348SOL    HW271942  11.268  14.560   9.080
23349SOL     OW71943   3.122   2.991   6.311
23349SOL    HW171944   3.163   3.036   6.238
23349SOL    HW271945   3.156   2.901   6.306
23350SOL     OW71946   8.166   2.334   2.767
23350SOL    HW171947   8.097   2.374   2.821
23350SOL    HW271948   8.247   2.373   2.799
23351SOL     OW71949   4.636   5.545   7.151
23351SOL    HW171950   4.679   5.548   7.065
23351SOL    HW271951   4.674   5.468   7.194
23352SOL     OW71952   8.768   0.413   3.462
23352SOL    HW171953   8.776   0.465   3.383
23352SOL    HW271954   8.729   0.331   3.433
23353SOL     OW71955   1.281   5.293   8.225
23353SOL    HW171956   1.376   5.286   8.213
23353SOL    HW271957   1.258   5.379   8.189
23354SOL     OW71958   4.768   1.929   9.430
23354SOL    HW171959   4.730   1.979   9.502
23354SOL    HW271960   4.754   1.837   9.455
23355SOL     OW71961   3.011   7.545   3.214
23355SOL    HW171962   2.978   7.580   3.131
23355SOL    HW271963   3.020   7.622   3.270
23356SOL     OW71964  10.126   9.150   6.863
23356SOL    HW171965  10.079   9.081   6.911
23356SOL    HW271966  10.087   9.232   6.894
23357SOL     OW71967   0.592   9.362  14.821
23357SOL    HW171968   0.631   9.356   0.039
23357SOL    HW271969   0.666   9.354  14.761
23358SOL     OW71970   3.996   0.577   1.875
23358SOL    HW171971   3.968   0.555   1.965
23358SOL    HW271972   4.083   0.616   1.886
23359SOL     OW71973  10.560   0.240   5.264
23359SOL    HW171974  10.636   0.190   5.235
23359SOL    HW271975  10.575   0.328   5.228
23360SOL     OW71976   3.577   6.791  10.113
23360SOL    HW171977   3.537   6.874  10.086
23360SOL    HW271978   3.505   6.738  10.145
23361SOL     OW71979  12.380   6.199  10.711
23361SOL    HW171980  12.304   6.206  10.654
23361SOL    HW271981  12.455   6.201  10.651
23362SOL     OW71982   5.042  11.617   7.956
23362SOL    HW171983   4.978  11.611   8.027
23362SOL    HW271984   5.044  11.530   7.917
23363SOL     OW71985   7.540  10.196   2.138
23363SOL    HW171986   7.558  10.104   2.120
23363SOL    HW271987   7.448  10.198   2.163
23364SOL     OW71988   4.661   2.691   8.304
23364SOL    HW171989   4.742   2.654   8.338
23364SOL    HW271990   4.688   2.774   8.264
23365SOL     OW71991   7.343  12.200   5.800
23365SOL    HW171992   7.398  12.207   5.722
23365SOL    HW271993   7.349  12.107   5.825
23366SOL     OW71994  13.409   5.409   6.934
23366SOL    HW171995  13.475   5.376   6.995
23366SOL    HW271996  13.325   5.392   6.978
23367SOL     OW71997  14.127  12.527   7.820
23367SOL    HW171998  14.067  12.556   7.889
23367SOL    HW271999  14.207  12.578   7.835
23368SOL     OW72000   5.116   0.504  11.265
23368SOL    HW172001   5.072   0.444  11.324
23368SOL    HW272002   5.044   0.554  11.225
23369SOL     OW72003   3.785   1.490  14.048
23369SOL    HW172004   3.701   1.507  14.007
23369SOL    HW272005   3.773   1.515  14.140
23370SOL     OW72006   4.027   0.427   2.128
23370SOL    HW172007   4.097   0.365   2.109
23370SOL    HW272008   4.057   0.475   2.206
23371SOL     OW72009   6.401  13.122   7.977
23371SOL    HW172010   6.336  13.158   8.037
23371SOL    HW272011   6.373  13.153   7.891
23372SOL     OW72012   9.760  11.367   9.900
23372SOL    HW172013   9.770  11.426   9.975
23372SOL    HW272014   9.678  11.393   9.860
23373SOL     OW72015   4.097   1.112  11.048
23373SOL    HW172016   4.187   1.115  11.080
23373SOL    HW272017   4.046   1.158  11.115
23374SOL     OW72018   0.390   2.773   1.078
23374SOL    HW172019   0.426   2.816   1.156
23374SOL    HW272020   0.459   2.783   1.012
23375SOL     OW72021  10.709  14.684  12.964
23375SOL    HW172022  10.790  14.706  13.010
23375SOL    HW272023  10.739  14.642  12.883
23376SOL     OW72024   7.857   1.378  10.674
23376SOL    HW172025   7.941   1.422  10.664
23376SOL    HW272026   7.798   1.446  10.706
23377SOL     OW72027   6.150   6.249  10.945
23377SOL    HW172028   6.198   6.167  10.956
23377SOL    HW272029   6.213   6.309  10.906
23378SOL     OW72030   2.886   7.013   0.728
23378SOL    HW172031   2.904   7.006   0.822
23378SOL    HW272032   2.803   7.059   0.723
23379SOL     OW72033   9.014   7.265  11.686
23379SOL    HW172034   9.090   7.317  11.658
23379SOL    HW272035   8.949   7.278  11.617
23380SOL     OW72036  10.417   9.969   2.260
23380SOL    HW172037  10.467  10.027   2.203
23380SOL    HW272038  10.341   9.944   2.208
23381SOL     OW72039   2.461   0.243   8.073
23381SOL    HW172040   2.413   0.302   8.015
23381SOL    HW272041   2.550   0.243   8.039
23382SOL     OW72042  13.620   3.433   4.421
23382SOL    HW172043  13.623   3.525   4.447
23382SOL    HW272044  13.539   3.426   4.369
23383SOL     OW72045   7.649   4.091  14.479
23383SOL    HW172046   7.621   4.133  14.560
23383SOL    HW272047   7.638   3.998  14.495
23384SOL     OW72048   2.378   9.191   1.422
23384SOL    HW172049   2.430   9.232   1.491
23384SOL    HW272050   2.443   9.164   1.356
23385SOL     OW72051   8.843   1.115   7.163
23385SOL    HW172052   8.806   1.077   7.243
23385SOL    HW272053   8.767   1.142   7.112
23386SOL     OW72054   9.453   4.030  13.040
23386SOL    HW172055   9.468   4.015  12.947
23386SOL    HW272056   9.422   3.946  13.073
23387SOL     OW72057   4.018   3.393   9.762
23387SOL    HW172058   3.944   3.343   9.797
23387SOL    HW272059   4.077   3.403   9.837
23388SOL     OW72060   8.465  13.504  10.560
23388SOL    HW172061   8.480  13.447  10.484
23388SOL    HW272062   8.494  13.590  10.531
23389SOL     OW72063  10.475   8.914   1.361
23389SOL    HW172064  10.443   9.001   1.385
23389SOL    HW272065  10.426   8.854   1.417
23390SOL     OW72066   7.022  11.379   4.615
23390SOL    HW172067   7.024  11.389   4.710
23390SOL    HW272068   6.997  11.465   4.583
23391SOL     OW72069   7.546   2.400   0.159
23391SOL    HW172070   7.554   2.486   0.200
23391SOL    HW272071   7.466   2.363   0.196
23392SOL     OW72072   8.343   3.146   8.634
23392SOL    HW172073   8.412   3.201   8.672
23392SOL    HW272074   8.384   3.107   8.556
23393SOL     OW72075   9.785  11.803  10.803
23393SOL    HW172076   9.778  11.873  10.867
23393SOL    HW272077   9.868  11.760  10.823
23394SOL     OW72078   5.657  11.420   8.541
23394SOL    HW172079   5.683  11.485   8.606
23394SOL    HW272080   5.739  11.391   8.501
23395SOL     OW72081   7.946   8.005  10.928
23395SOL    HW172082   7.893   7.949  10.872
23395SOL    HW272083   7.897   8.011  11.010
23396SOL     OW72084  14.086  10.638   3.369
23396SOL    HW172085  14.135  10.704   3.418
23396SOL    HW272086  14.027  10.599   3.432
23397SOL     OW72087   0.812   7.659   2.636
23397SOL    HW172088   0.748   7.709   2.685
23397SOL    HW272089   0.841   7.591   2.696
23398SOL     OW72090  12.374   3.290   3.310
23398SOL    HW172091  12.421   3.360   3.356
23398SOL    HW272092  12.320   3.336   3.246
23399SOL     OW72093  12.421  12.942   5.224
23399SOL    HW172094  12.447  12.940   5.132
23399SOL    HW272095  12.345  12.884   5.228
23400SOL     OW72096   8.260   7.795  13.135
23400SOL    HW172097   8.311   7.735  13.189
23400SOL    HW272098   8.293   7.882  13.158
23401SOL     OW72099   2.135  14.392   9.396
23401SOL    HW172100   2.092  14.477   9.402
23401SOL    HW272101   2.193  14.388   9.472
23402SOL     OW72102   7.114  11.428   4.203
23402SOL    HW172103   7.046  11.371   4.239
23402SOL    HW272104   7.160  11.462   4.280
23403SOL     OW72105   7.648   3.502   3.623
23403SOL    HW172106   7.598   3.535   3.698
23403SOL    HW272107   7.595   3.429   3.590
23404SOL     OW72108   4.258  11.872   8.586
23404SOL    HW172109   4.346  11.900   8.564
23404SOL    HW272110   4.245  11.899   8.676
23405SOL     OW72111  13.367  14.708  10.948
23405SOL    HW172112  13.292  14.713  11.008
23405SOL    HW272113  13.333  14.664  10.870
23406SOL     OW72114  12.644  11.773   1.677
23406SOL    HW172115  12.680  11.732   1.756
23406SOL    HW272116  12.593  11.703   1.635
23407SOL     OW72117   1.512   2.937  14.800
23407SOL    HW172118   1.592   2.974  14.839
23407SOL    HW272119   1.447   2.942   0.001
23408SOL     OW72120   3.297  10.442  13.389
23408SOL    HW172121   3.247  10.375  13.342
23408SOL    HW272122   3.275  10.524  13.345
23409SOL     OW72123   9.905   1.559   7.359
23409SOL    HW172124   9.815   1.548   7.391
23409SOL    HW272125   9.922   1.479   7.310
23410SOL     OW72126  12.312   8.817   8.946
23410SOL    HW172127  12.284   8.744   8.891
23410SOL    HW272128  12.352   8.775   9.023
23411SOL     OW72129   3.174   2.129  11.552
23411SOL    HW172130   3.218   2.173  11.479
23411SOL    HW272131   3.216   2.164  11.630
23412SOL     OW72132   5.201   0.721  11.656
23412SOL    HW172133   5.286   0.730  11.614
23412SOL    HW272134   5.161   0.808  11.647
23413SOL     OW72135  11.251   6.803   8.988
23413SOL    HW172136  11.257   6.707   8.985
23413SOL    HW272137  11.241   6.823   9.081
23414SOL     OW72138   8.699   8.788   0.217
23414SOL    HW172139   8.644   8.730   0.269
23414SOL    HW272140   8.646   8.810   0.141
23415SOL     OW72141   2.814  10.178  12.630
23415SOL    HW172142   2.902  10.143  12.617
23415SOL    HW272143   2.812  10.258  12.577
23416SOL     OW72144   9.660   2.619   0.850
23416SOL    HW172145   9.587   2.556   0.856
23416SOL    HW272146   9.701   2.601   0.766
23417SOL     OW72147   7.919  14.628   4.183
23417SOL    HW172148   7.857  14.587   4.243
23417SOL    HW272149   7.864  14.686   4.128
23418SOL     OW72150   7.718  14.251  14.779
23418SOL    HW172151   7.671  14.293  14.852
23418SOL    HW272152   7.770  14.322  14.741
23419SOL     OW72153   9.527   4.337   2.077
23419SOL    HW172154   9.515   4.428   2.104
23419SOL    HW272155   9.479   4.330   1.994
23420SOL     OW72156   4.490  14.134  13.258
23420SOL    HW172157   4.407  14.090  13.276
23420SOL    HW272158   4.523  14.157  13.345
23421SOL     OW72159   5.722   4.546   3.120
23421SOL    HW172160   5.752   4.629   3.157
23421SOL    HW272161   5.788   4.482   3.147
23422SOL     OW72162   2.980   7.582   7.990
23422SOL    HW172163   2.972   7.670   8.026
23422SOL    HW272164   2.938   7.525   8.055
23423SOL     OW72165   7.805  11.020   4.658
23423SOL    HW172166   7.861  11.067   4.720
23423SOL    HW272167   7.832  11.054   4.572
23424SOL     OW72168  12.115   0.571  13.152
23424SOL    HW172169  12.083   0.562  13.242
23424SOL    HW272170  12.076   0.497  13.106
23425SOL     OW72171   3.632   9.487   5.467
23425SOL    HW172172   3.679   9.419   5.420
23425SOL    HW272173   3.609   9.551   5.400
23426SOL     OW72174  11.775   6.586   5.165
23426SOL    HW172175  11.802   6.606   5.075
23426SOL    HW272176  11.694   6.635   5.177
23427SOL     OW72177   4.686   4.236  13.555
23427SOL    HW172178   4.701   4.269  13.644
23427SOL    HW272179   4.596   4.204  13.557
23428SOL     OW72180  11.981   7.580   5.675
23428SOL    HW172181  11.995   7.596   5.581
23428SOL    HW272182  12.023   7.495   5.691
23429SOL     OW72183   5.923   2.248   2.210
23429SOL    HW172184   6.000   2.219   2.258
23429SOL    HW272185   5.958   2.297   2.136
23430SOL     OW72186   0.577   6.035   8.469
23430SOL    HW172187   0.497   6.043   8.416
23430SOL    HW272188   0.548   6.054   8.559
23431SOL     OW72189   0.995  13.306   4.797
23431SOL    HW172190   0.938  13.230   4.807
23431SOL    HW272191   1.080  13.277   4.828
23432SOL     OW72192  11.972  13.463  12.924
23432SOL    HW172193  11.989  13.490  13.014
23432SOL    HW272194  12.055  13.479  12.879
23433SOL     OW72195   4.528   8.828   6.778
23433SOL    HW172196   4.609   8.820   6.727
23433SOL    HW272197   4.490   8.740   6.775
23434SOL     OW72198   7.907   0.954   9.731
23434SOL    HW172199   7.984   0.899   9.747
23434SOL    HW272200   7.859   0.909   9.661
23435SOL     OW72201  12.554   3.515   7.709
23435SOL    HW172202  12.533   3.557   7.625
23435SOL    HW272203  12.624   3.454   7.688
23436SOL     OW72204   6.821   4.264   5.266
23436SOL    HW172205   6.802   4.277   5.173
23436SOL    HW272206   6.765   4.191   5.292
23437SOL     OW72207   1.288   3.492   3.337
23437SOL    HW172208   1.329   3.474   3.421
23437SOL    HW272209   1.245   3.577   3.348
23438SOL     OW72210   1.044  11.724   9.687
23438SOL    HW172211   0.967  11.667   9.691
23438SOL    HW272212   1.085  11.715   9.772
23439SOL     OW72213  10.349  12.980   0.872
23439SOL    HW172214  10.318  12.890   0.876
23439SOL    HW272215  10.380  12.992   0.782
23440SOL     OW72216   6.913   5.044   2.207
23440SOL    HW172217   6.824   5.067   2.180
23440SOL    HW272218   6.944   5.120   2.255
23441SOL     OW72219   8.853   0.301   7.730
23441SOL    HW172220   8.855   0.286   7.636
23441SOL    HW272221   8.759   0.305   7.752
23442SOL     OW72222   1.980   5.873   3.581
23442SOL    HW172223   1.966   5.793   3.530
23442SOL    HW272224   1.901   5.925   3.568
23443SOL     OW72225  10.010   7.285   9.344
23443SOL    HW172226   9.978   7.197   9.322
23443SOL    HW272227  10.104   7.282   9.326
23444SOL     OW72228   8.401  12.753  14.697
23444SOL    HW172229   8.340  12.821  14.667
23444SOL    HW272230   8.363  12.671  14.664
23445SOL     OW72231  10.130  14.389   7.004
23445SOL    HW172232  10.144  14.474   7.044
23445SOL    HW272233  10.044  14.396   6.962
23446SOL     OW72234   9.876   4.468  13.358
23446SOL    HW172235   9.880   4.563  13.369
23446SOL    HW272236   9.786   4.451  13.329
23447SOL     OW72237  10.732   4.311   0.237
23447SOL    HW172238  10.777   4.245   0.290
23447SOL    HW272239  10.700   4.376   0.300
23448SOL     OW72240   0.789   5.599   7.524
23448SOL    HW172241   0.746   5.535   7.467
23448SOL    HW272242   0.872   5.558   7.546
23449SOL     OW72243   6.831   8.485   5.780
23449SOL    HW172244   6.793   8.557   5.730
23449SOL    HW272245   6.923   8.483   5.754
23450SOL     OW72246  10.560  13.442  12.750
23450SOL    HW172247  10.590  13.516  12.802
23450SOL    HW272248  10.639  13.412  12.704
23451SOL     OW72249  11.518   9.314  10.487
23451SOL    HW172250  11.485   9.277  10.569
23451SOL    HW272251  11.483   9.257  10.419
23452SOL     OW72252  13.528  10.328   5.918
23452SOL    HW172253  13.472  10.394   5.878
23452SOL    HW272254  13.576  10.375   5.986
23453SOL     OW72255   8.089  13.047   6.290
23453SOL    HW172256   8.124  12.986   6.225
23453SOL    HW272257   7.994  13.037   6.284
23454SOL     OW72258   8.869   9.461   0.504
23454SOL    HW172259   8.843   9.378   0.464
23454SOL    HW272260   8.800   9.479   0.568
23455SOL     OW72261   1.764   5.046  10.472
23455SOL    HW172262   1.708   5.035  10.395
23455SOL    HW272263   1.851   5.018  10.443
23456SOL     OW72264  14.232  13.229   6.366
23456SOL    HW172265  14.137  13.236   6.381
23456SOL    HW272266  14.258  13.153   6.418
23457SOL     OW72267  12.878   4.028   3.823
23457SOL    HW172268  12.903   4.047   3.913
23457SOL    HW272269  12.855   4.113   3.786
23458SOL     OW72270  13.731   0.413   6.374
23458SOL    HW172271  13.677   0.378   6.302
23458SOL    HW272272  13.678   0.483   6.412
23459SOL     OW72273   7.608  12.743  10.468
23459SOL    HW172274   7.681  12.696  10.428
23459SOL    HW272275   7.583  12.809  10.403
23460SOL     OW72276   9.194   6.296   0.430
23460SOL    HW172277   9.209   6.217   0.482
23460SOL    HW272278   9.272   6.304   0.375
23461SOL     OW72279   9.020   3.928  11.059
23461SOL    HW172280   9.096   3.940  11.002
23461SOL    HW272281   8.945   3.951  11.004
23462SOL     OW72282   8.492   3.477  14.155
23462SOL    HW172283   8.517   3.511  14.241
23462SOL    HW272284   8.403   3.443  14.167
23463SOL     OW72285  10.947  14.055   4.971
23463SOL    HW172286  10.929  14.139   4.929
23463SOL    HW272287  10.875  13.998   4.942
23464SOL     OW72288   5.858   4.665   5.288
23464SOL    HW172289   5.942   4.627   5.312
23464SOL    HW272290   5.798   4.590   5.285
23465SOL     OW72291   5.808   3.874  12.937
23465SOL    HW172292   5.795   3.840  13.026
23465SOL    HW272293   5.753   3.952  12.934
23466SOL     OW72294  12.007   5.386   0.817
23466SOL    HW172295  12.028   5.420   0.903
23466SOL    HW272296  11.931   5.330   0.831
23467SOL     OW72297   4.698  12.164  14.394
23467SOL    HW172298   4.764  12.153  14.326
23467SOL    HW272299   4.743  12.209  14.465
23468SOL     OW72300   1.502   4.278   0.770
23468SOL    HW172301   1.527   4.186   0.771
23468SOL    HW272302   1.497   4.301   0.677
23469SOL     OW72303   7.043  12.979   0.376
23469SOL    HW172304   7.043  12.974   0.280
23469SOL    HW272305   6.993  13.059   0.395
23470SOL     OW72306   7.210   4.082   8.454
23470SOL    HW172307   7.136   4.063   8.512
23470SOL    HW272308   7.271   4.131   8.509
23471SOL     OW72309   4.530   7.531   2.880
23471SOL    HW172310   4.598   7.506   2.942
23471SOL    HW272311   4.531   7.627   2.879
23472SOL     OW72312  13.393   9.522   0.836
23472SOL    HW172313  13.344   9.468   0.899
23472SOL    HW272314  13.326   9.576   0.795
23473SOL     OW72315  11.148   7.868  14.236
23473SOL    HW172316  11.103   7.791  14.201
23473SOL    HW272317  11.086   7.907  14.297
23474SOL     OW72318   3.805   5.293   9.207
23474SOL    HW172319   3.727   5.295   9.151
23474SOL    HW272320   3.780   5.340   9.286
23475SOL     OW72321   8.037   9.566  11.839
23475SOL    HW172322   7.971   9.502  11.813
23475SOL    HW272323   8.109   9.514  11.874
23476SOL     OW72324  12.868   9.730  14.489
23476SOL    HW172325  12.934   9.701  14.426
23476SOL    HW272326  12.836   9.813  14.455
23477SOL     OW72327  11.530  10.058  10.570
23477SOL    HW172328  11.564  10.103  10.493
23477SOL    HW272329  11.451  10.107  10.593
23478SOL     OW72330   7.296  12.238   8.239
23478SOL    HW172331   7.335  12.306   8.293
23478SOL    HW272332   7.364  12.171   8.231
23479SOL     OW72333   3.048  10.234   4.661
23479SOL    HW172334   3.024  10.322   4.633
23479SOL    HW272335   2.987  10.213   4.731
23480SOL     OW72336  12.333  10.314   8.257
23480SOL    HW172337  12.279  10.393   8.261
23480SOL    HW272338  12.330  10.278   8.346
23481SOL     OW72339   9.125  10.504   9.396
23481SOL    HW172340   9.069  10.427   9.403
23481SOL    HW272341   9.067  10.575   9.368
23482SOL     OW72342  12.532   7.684   6.116
23482SOL    HW172343  12.460   7.723   6.166
23482SOL    HW272344  12.493   7.608   6.073
23483SOL     OW72345  10.196  13.399  12.154
23483SOL    HW172346  10.207  13.343  12.231
23483SOL    HW272347  10.276  13.452  12.152
23484SOL     OW72348  14.056  13.139  10.863
23484SOL    HW172349  14.149  13.117  10.861
23484SOL    HW272350  14.050  13.210  10.926
23485SOL     OW72351  10.558   5.996   9.718
23485SOL    HW172352  10.464   5.985   9.729
23485SOL    HW272353  10.588   6.033   9.801
23486SOL     OW72354   8.800   0.279  13.404
23486SOL    HW172355   8.758   0.199  13.374
23486SOL    HW272356   8.852   0.252  13.480
23487SOL     OW72357   2.335   4.458   2.334
23487SOL    HW172358   2.375   4.532   2.288
23487SOL    HW272359   2.378   4.457   2.420
23488SOL     OW72360   1.888  10.767  10.862
23488SOL    HW172361   1.894  10.863  10.868
23488SOL    HW272362   1.976  10.736  10.883
23489SOL     OW72363   6.494   4.731  12.927
23489SOL    HW172364   6.579   4.689  12.939
23489SOL    HW272365   6.456   4.735  13.015
23490SOL     OW72366   7.225  11.870   3.486
23490SOL    HW172367   7.154  11.934   3.484
23490SOL    HW272368   7.217  11.821   3.404
23491SOL     OW72369   4.806  12.242   6.547
23491SOL    HW172370   4.886  12.200   6.515
23491SOL    HW272371   4.780  12.190   6.624
23492SOL     OW72372   7.909   4.132   0.633
23492SOL    HW172373   7.838   4.182   0.673
23492SOL    HW272374   7.885   4.127   0.540
23493SOL     OW72375  10.196   2.673   4.529
23493SOL    HW172376  10.247   2.605   4.486
23493SOL    HW272377  10.111   2.633   4.546
23494SOL     OW72378   5.737   3.460   7.817
23494SOL    HW172379   5.712   3.536   7.764
23494SOL    HW272380   5.815   3.425   7.775
23495SOL     OW72381   7.843   6.197   2.912
23495SOL    HW172382   7.881   6.124   2.962
23495SOL    HW272383   7.901   6.207   2.837
23496SOL     OW72384   8.549  10.401   7.102
23496SOL    HW172385   8.603  10.384   7.178
23496SOL    HW272386   8.459  10.385   7.132
23497SOL     OW72387   8.406  12.754  11.307
23497SOL    HW172388   8.408  12.804  11.226
23497SOL    HW272389   8.483  12.698  11.304
23498SOL     OW72390  13.770  12.461   3.244
23498SOL    HW172391  13.714  12.539   3.244
23498SOL    HW272392  13.785  12.442   3.152
23499SOL     OW72393   7.209  10.779   7.201
23499SOL    HW172394   7.235  10.864   7.236
23499SOL    HW272395   7.235  10.716   7.269
23500SOL     OW72396  13.205   0.802   3.144
23500SOL    HW172397  13.194   0.710   3.118
23500SOL    HW272398  13.232   0.847   3.064
23501SOL     OW72399   1.140   8.497  13.812
23501SOL    HW172400   1.172   8.413  13.844
23501SOL    HW272401   1.157   8.558  13.883
23502SOL     OW72402  12.807  12.849   0.460
23502SOL    HW172403  12.725  12.847   0.511
23502SOL    HW272404  12.837  12.939   0.466
23503SOL     OW72405   0.763   7.462   8.663
23503SOL    HW172406   0.735   7.500   8.746
23503SOL    HW272407   0.759   7.534   8.600
23504SOL     OW72408  12.508  11.355  13.720
23504SOL    HW172409  12.571  11.408  13.770
23504SOL    HW272410  12.455  11.312  13.787
23505SOL     OW72411  12.516   1.423   4.576
23505SOL    HW172412  12.478   1.480   4.509
23505SOL    HW272413  12.469   1.445   4.656
23506SOL     OW72414   7.351   6.916  12.003
23506SOL    HW172415   7.336   6.964  11.922
23506SOL    HW272416   7.407   6.842  11.978
23507SOL     OW72417   7.153   0.889   2.974
23507SOL    HW172418   7.192   0.898   3.061
23507SOL    HW272419   7.224   0.855   2.919
23508SOL     OW72420   8.462   2.042   7.804
23508SOL    HW172421   8.540   2.040   7.860
23508SOL    HW272422   8.397   2.090   7.856
23509SOL     OW72423   6.191  11.983   8.916
23509SOL    HW172424   6.261  11.936   8.960
23509SOL    HW272425   6.117  11.922   8.917
23510SOL     OW72426  11.108  13.080   8.661
23510SOL    HW172427  11.200  13.053   8.659
23510SOL    HW272428  11.060  13.005   8.626
23511SOL     OW72429   2.883   1.466  13.941
23511SOL    HW172430   2.869   1.421  13.858
23511SOL    HW272431   2.874   1.559  13.919
23512SOL     OW72432  11.832  11.031   3.519
23512SOL    HW172433  11.917  11.065   3.546
23512SOL    HW272434  11.799  10.985   3.596
23513SOL     OW72435   4.997  14.282   9.147
23513SOL    HW172436   5.031  14.367   9.119
23513SOL    HW272437   4.941  14.254   9.074
23514SOL     OW72438  12.894   9.106  12.766
23514SOL    HW172439  12.852   9.067  12.843
23514SOL    HW272440  12.988   9.096  12.783
23515SOL     OW72441   8.364  10.929   5.628
23515SOL    HW172442   8.317  10.847   5.615
23515SOL    HW272443   8.392  10.955   5.540
23516SOL     OW72444   0.001   1.450  12.508
23516SOL    HW172445   0.051   1.402  12.574
23516SOL    HW272446  14.818   1.512  12.559
23517SOL     OW72447  12.843  12.163  14.188
23517SOL    HW172448  12.750  12.184  14.184
23517SOL    HW272449  12.875  12.182  14.100
23518SOL     OW72450   8.603   4.550   1.200
23518SOL    HW172451   8.549   4.494   1.255
23518SOL    HW272452   8.632   4.492   1.129
23519SOL     OW72453  11.048  13.858   4.631
23519SOL    HW172454  11.057  13.768   4.599
23519SOL    HW272455  10.976  13.854   4.695
23520SOL     OW72456  11.128   5.274  10.283
23520SOL    HW172457  11.040   5.271  10.322
23520SOL    HW272458  11.182   5.317  10.349
23521SOL     OW72459  13.333   3.834   4.590
23521SOL    HW172460  13.258   3.782   4.562
23521SOL    HW272461  13.295   3.913   4.628
23522SOL     OW72462   7.576   0.736   9.558
23522SOL    HW172463   7.548   0.828   9.557
23522SOL    HW272464   7.497   0.688   9.580
23523SOL     OW72465  14.817   5.677  10.392
23523SOL    HW172466  14.749   5.619  10.425
23523SOL    HW272467  14.771   5.759  10.373
23524SOL     OW72468  13.460   4.929   2.162
23524SOL    HW172469  13.531   4.980   2.123
23524SOL    HW272470  13.383   4.985   2.151
23525SOL     OW72471   2.683   3.099  14.576
23525SOL    HW172472   2.688   3.194  14.588
23525SOL    HW272473   2.715   3.063  14.659
23526SOL     OW72474  13.349   6.012  10.144
23526SOL    HW172475  13.329   6.069  10.218
23526SOL    HW272476  13.419   6.057  10.097
23527SOL     OW72477  14.091  12.597   9.352
23527SOL    HW172478  14.041  12.581   9.432
23527SOL    HW272479  14.181  12.612   9.383
23528SOL     OW72480   4.538   6.576  10.199
23528SOL    HW172481   4.606   6.509  10.207
23528SOL    HW272482   4.526   6.608  10.288
23529SOL     OW72483  10.364   9.755   3.637
23529SOL    HW172484  10.281   9.723   3.602
23529SOL    HW272485  10.367   9.722   3.727
23530SOL     OW72486  14.722  12.109   8.025
23530SOL    HW172487  14.777  12.085   8.099
23530SOL    HW272488  14.763  12.068   7.949
23531SOL     OW72489  14.312   9.981   4.518
23531SOL    HW172490  14.217   9.963   4.519
23531SOL    HW272491  14.320  10.064   4.471
23532SOL     OW72492  12.527   1.431   8.763
23532SOL    HW172493  12.467   1.406   8.693
23532SOL    HW272494  12.535   1.526   8.755
23533SOL     OW72495   2.469   9.744   7.438
23533SOL    HW172496   2.541   9.808   7.438
23533SOL    HW272497   2.458   9.721   7.530
23534SOL     OW72498   6.585  14.420  12.147
23534SOL    HW172499   6.506  14.389  12.104
23534SOL    HW272500   6.644  14.345  12.146
23535SOL     OW72501   5.535   2.892   9.911
23535SOL    HW172502   5.572   2.806   9.892
23535SOL    HW272503   5.534   2.898  10.007
23536SOL     OW72504  11.934  13.133   5.885
23536SOL    HW172505  11.971  13.060   5.934
23536SOL    HW272506  11.867  13.169   5.943
23537SOL     OW72507  11.352   5.693   7.925
23537SOL    HW172508  11.288   5.706   7.994
23537SOL    HW272509  11.315   5.739   7.849
23538SOL     OW72510  14.447  11.501   7.352
23538SOL    HW172511  14.400  11.436   7.405
23538SOL    HW272512  14.502  11.548   7.416
23539SOL     OW72513  11.756   4.102   6.611
23539SOL    HW172514  11.780   4.031   6.551
23539SOL    HW272515  11.804   4.178   6.578
23540SOL     OW72516  12.626  11.090   2.791
23540SOL    HW172517  12.598  11.065   2.879
23540SOL    HW272518  12.635  11.007   2.744
23541SOL     OW72519   5.990  13.787   2.948
23541SOL    HW172520   6.055  13.763   2.882
23541SOL    HW272521   5.922  13.720   2.941
23542SOL     OW72522   2.265   7.321  11.894
23542SOL    HW172523   2.220   7.255  11.840
23542SOL    HW272524   2.264   7.283  11.982
23543SOL     OW72525   6.312   0.262   2.071
23543SOL    HW172526   6.290   0.272   1.978
23543SOL    HW272527   6.407   0.271   2.074
23544SOL     OW72528   0.811  14.782   4.490
23544SOL    HW172529   0.821   0.007   4.474
23544SOL    HW272530   0.866  14.740   4.425
23545SOL     OW72531   1.267   3.506   5.758
23545SOL    HW172532   1.198   3.506   5.692
23545SOL    HW272533   1.267   3.417   5.794
23546SOL     OW72534   0.393  11.547   2.280
23546SOL    HW172535   0.319  11.603   2.304
23546SOL    HW272536   0.387  11.539   2.185
23547SOL     OW72537   6.199   4.878   6.915
23547SOL    HW172538   6.143   4.954   6.896
23547SOL    HW272539   6.276   4.916   6.957
23548SOL     OW72540   7.724  11.377   6.724
23548SOL    HW172541   7.749  11.363   6.633
23548SOL    HW272542   7.690  11.466   6.726
23549SOL     OW72543   9.428   6.085   0.152
23549SOL    HW172544   9.470   6.121   0.074
23549SOL    HW272545   9.454   5.993   0.152
23550SOL     OW72546   7.383   8.558   9.089
23550SOL    HW172547   7.290   8.560   9.064
23550SOL    HW272548   7.386   8.496   9.162
23551SOL     OW72549  12.893   0.926   8.831
23551SOL    HW172550  12.870   1.017   8.849
23551SOL    HW272551  12.840   0.902   8.754
23552SOL     OW72552   6.869  13.816   4.414
23552SOL    HW172553   6.871  13.721   4.406
23552SOL    HW272554   6.776  13.837   4.428
23553SOL     OW72555   7.164   7.207   9.645
23553SOL    HW172556   7.154   7.271   9.575
23553SOL    HW272557   7.204   7.256   9.717
23554SOL     OW72558   7.669  12.617   8.513
23554SOL    HW172559   7.735  12.548   8.512
23554SOL    HW272560   7.719  12.698   8.504
23555SOL     OW72561  12.761   6.046   2.175
23555SOL    HW172562  12.761   6.139   2.199
23555SOL    HW272563  12.852   6.020   2.184
23556SOL     OW72564  14.528   5.610   2.341
23556SOL    HW172565  14.502   5.621   2.432
23556SOL    HW272566  14.570   5.524   2.337
23557SOL     OW72567   0.960  12.787  12.914
23557SOL    HW172568   0.896  12.772  12.844
23557SOL    HW272569   1.043  12.759  12.876
23558SOL     OW72570   6.168   2.101   4.915
23558SOL    HW172571   6.125   2.102   5.000
23558SOL    HW272572   6.101   2.072   4.854
23559SOL     OW72573  11.706   6.643   4.882
23559SOL    HW172574  11.622   6.666   4.923
23559SOL    HW272575  11.698   6.550   4.861
23560SOL     OW72576  10.597   1.714  14.269
23560SOL    HW172577  10.583   1.666  14.350
23560SOL    HW272578  10.678   1.678  14.232
23561SOL     OW72579   4.084   9.797  11.485
23561SOL    HW172580   4.030   9.826  11.558
23561SOL    HW272581   4.146   9.735  11.524
23562SOL     OW72582   8.896  10.673   6.682
23562SOL    HW172583   8.848  10.601   6.640
23562SOL    HW272584   8.985  10.641   6.689
23563SOL     OW72585  10.500   0.178  12.952
23563SOL    HW172586  10.575   0.152  12.899
23563SOL    HW272587  10.536   0.239  13.017
23564SOL     OW72588   3.009  10.539   4.361
23564SOL    HW172589   2.956  10.487   4.301
23564SOL    HW272590   2.962  10.621   4.371
23565SOL     OW72591  12.243   7.764   5.964
23565SOL    HW172592  12.274   7.809   6.043
23565SOL    HW272593  12.319   7.763   5.906
23566SOL     OW72594  14.226  13.580   1.538
23566SOL    HW172595  14.270  13.663   1.558
23566SOL    HW272596  14.248  13.564   1.446
23567SOL     OW72597  14.336   5.194  14.208
23567SOL    HW172598  14.333   5.133  14.134
23567SOL    HW272599  14.418   5.174  14.252
23568SOL     OW72600  10.465   4.301  10.223
23568SOL    HW172601  10.420   4.347  10.294
23568SOL    HW272602  10.396   4.280  10.160
23569SOL     OW72603   7.764  12.221   0.076
23569SOL    HW172604   7.791  12.244   0.165
23569SOL    HW272605   7.705  12.292   0.049
23570SOL     OW72606   6.008   3.095   8.675
23570SOL    HW172607   6.031   3.019   8.621
23570SOL    HW272608   6.088   3.115   8.724
23571SOL     OW72609  10.059   6.026  11.749
23571SOL    HW172610  10.000   6.004  11.678
23571SOL    HW272611  10.077   5.942  11.792
23572SOL     OW72612  12.030   7.178   1.202
23572SOL    HW172613  12.042   7.212   1.290
23572SOL    HW272614  12.110   7.203   1.155
23573SOL     OW72615   7.640   0.631   9.090
23573SOL    HW172616   7.545   0.638   9.075
23573SOL    HW272617   7.648   0.595   9.178
23574SOL     OW72618  14.294   2.574   6.479
23574SOL    HW172619  14.215   2.594   6.429
23574SOL    HW272620  14.332   2.498   6.435
23575SOL     OW72621   0.605   5.835   5.268
23575SOL    HW172622   0.696   5.820   5.242
23575SOL    HW272623   0.589   5.770   5.336
23576SOL     OW72624  13.788   4.677   4.999
23576SOL    HW172625  13.697   4.676   5.028
23576SOL    HW272626  13.807   4.770   4.985
23577SOL     OW72627   4.731   2.256  11.009
23577SOL    HW172628   4.649   2.287  11.047
23577SOL    HW272629   4.707   2.221  10.924
23578SOL     OW72630   9.202   3.510  13.913
23578SOL    HW172631   9.267   3.461  13.963
23578SOL    HW272632   9.144   3.443  13.876
23579SOL     OW72633   9.239   2.845  14.189
23579SOL    HW172634   9.192   2.919  14.152
23579SOL    HW272635   9.304   2.822  14.123
23580SOL     OW72636   5.533   2.661   9.137
23580SOL    HW172637   5.562   2.697   9.053
23580SOL    HW272638   5.493   2.577   9.116
23581SOL     OW72639   6.351   5.129  10.734
23581SOL    HW172640   6.324   5.216  10.705
23581SOL    HW272641   6.349   5.133  10.830
23582SOL     OW72642   2.923   2.979   6.028
23582SOL    HW172643   2.861   3.051   6.041
23582SOL    HW272644   2.991   3.016   5.972
23583SOL     OW72645   2.019   8.962   5.539
23583SOL    HW172646   2.108   8.936   5.518
23583SOL    HW272647   1.980   8.985   5.454
23584SOL     OW72648  11.509   7.752   9.232
23584SOL    HW172649  11.462   7.671   9.252
23584SOL    HW272650  11.589   7.724   9.189
23585SOL     OW72651   4.094   3.516  11.570
23585SOL    HW172652   4.080   3.437  11.517
23585SOL    HW272653   4.101   3.587  11.506
23586SOL     OW72654   2.193   9.918   5.191
23586SOL    HW172655   2.133   9.917   5.265
23586SOL    HW272656   2.279   9.899   5.229
23587SOL     OW72657  10.134   3.880   6.085
23587SOL    HW172658  10.117   3.973   6.072
23587SOL    HW272659  10.208   3.860   6.027
23588SOL     OW72660   0.676  14.285   8.397
23588SOL    HW172661   0.767  14.308   8.381
23588SOL    HW272662   0.633  14.367   8.420
23589SOL     OW72663  12.015   7.058   9.519
23589SOL    HW172664  12.041   6.966   9.524
23589SOL    HW272665  12.096   7.105   9.500
23590SOL     OW72666   2.779  12.192   6.575
23590SOL    HW172667   2.810  12.112   6.616
23590SOL    HW272668   2.684  12.189   6.585
23591SOL     OW72669  12.891  12.765  10.688
23591SOL    HW172670  12.838  12.685  10.692
23591SOL    HW272671  12.972  12.737  10.644
23592SOL     OW72672   6.034   9.840  14.432
23592SOL    HW172673   6.032   9.919  14.378
23592SOL    HW272674   6.122   9.840  14.470
23593SOL     OW72675   1.838   1.302   2.095
23593SOL    HW172676   1.859   1.262   2.180
23593SOL    HW272677   1.743   1.317   2.099
23594SOL     OW72678   7.722   5.150   3.516
23594SOL    HW172679   7.791   5.099   3.559
23594SOL    HW272680   7.755   5.164   3.427
23595SOL     OW72681  11.214   3.143   9.910
23595SOL    HW172682  11.212   3.239   9.909
23595SOL    HW272683  11.231   3.120  10.001
23596SOL     OW72684   0.232   2.595   5.363
23596SOL    HW172685   0.299   2.615   5.428
23596SOL    HW272686   0.186   2.519   5.399
23597SOL     OW72687  11.675  12.782  14.266
23597SOL    HW172688  11.731  12.705  14.253
23597SOL    HW272689  11.628  12.764  14.347
23598SOL     OW72690   0.143   6.722  11.397
23598SOL    HW172691   0.108   6.643  11.355
23598SOL    HW272692   0.234   6.726  11.368
23599SOL     OW72693   0.863   3.119   2.381
23599SOL    HW172694   0.867   3.061   2.305
23599SOL    HW272695   0.801   3.187   2.356
23600SOL     OW72696   4.692   5.151   0.929
23600SOL    HW172697   4.675   5.058   0.942
23600SOL    HW272698   4.605   5.191   0.926
23601SOL     OW72699  10.019  13.236  14.765
23601SOL    HW172700  10.016  13.314  14.710
23601SOL    HW272701  10.072  13.261  14.840
23602SOL     OW72702  12.418   3.866  14.321
23602SOL    HW172703  12.369   3.842  14.400
23602SOL    HW272704  12.354   3.856  14.250
23603SOL     OW72705   5.864   3.077  11.411
23603SOL    HW172706   5.935   3.137  11.388
23603SOL    HW272707   5.904   3.013  11.469
23604SOL     OW72708   2.496  13.223  12.648
23604SOL    HW172709   2.512  13.317  12.645
23604SOL    HW272710   2.569  13.184  12.600
23605SOL     OW72711   6.968  13.462   9.320
23605SOL    HW172712   6.902  13.528   9.299
23605SOL    HW272713   6.999  13.430   9.236
23606SOL     OW72714   0.995   5.997  10.919
23606SOL    HW172715   0.981   5.911  10.880
23606SOL    HW272716   1.024   6.052  10.846
23607SOL     OW72717  11.997   2.867  14.470
23607SOL    HW172718  12.066   2.856  14.404
23607SOL    HW272719  11.923   2.818  14.435
23608SOL     OW72720   9.355   0.840  11.094
23608SOL    HW172721   9.304   0.872  11.169
23608SOL    HW272722   9.422   0.785  11.132
23609SOL     OW72723  10.789   3.511   8.743
23609SOL    HW172724  10.720   3.548   8.799
23609SOL    HW272725  10.747   3.501   8.658
23610SOL     OW72726  11.465   3.711   8.904
23610SOL    HW172727  11.518   3.757   8.838
23610SOL    HW272728  11.529   3.663   8.957
23611SOL     OW72729   8.469  13.007   6.820
23611SOL    HW172730   8.409  13.080   6.811
23611SOL    HW272731   8.552  13.039   6.785
23612SOL     OW72732   4.702   5.687  10.856
23612SOL    HW172733   4.699   5.638  10.938
23612SOL    HW272734   4.771   5.645  10.805
23613SOL     OW72735  13.511   5.040   5.013
23613SOL    HW172736  13.585   5.088   5.050
23613SOL    HW272737  13.457   5.017   5.089
23614SOL     OW72738   3.889  14.678   4.591
23614SOL    HW172739   3.907  14.706   4.681
23614SOL    HW272740   3.929  14.592   4.584
23615SOL     OW72741   0.010   0.079   1.431
23615SOL    HW172742  14.820   0.153   1.426
23615SOL    HW272743  14.829   0.004   1.400
23616SOL     OW72744   9.892   2.684   9.497
23616SOL    HW172745   9.861   2.658   9.410
23616SOL    HW272746   9.973   2.635   9.509
23617SOL     OW72747   4.544  11.805   4.616
23617SOL    HW172748   4.559  11.883   4.668
23617SOL    HW272749   4.604  11.740   4.652
23618SOL     OW72750  14.485   9.746   5.823
23618SOL    HW172751  14.557   9.801   5.793
23618SOL    HW272752  14.527   9.678   5.875
23619SOL     OW72753   3.085   8.367   3.942
23619SOL    HW172754   3.160   8.307   3.945
23619SOL    HW272755   3.092   8.417   4.023
23620SOL     OW72756  12.218   1.048   0.751
23620SOL    HW172757  12.311   1.068   0.761
23620SOL    HW272758  12.173   1.120   0.796
23621SOL     OW72759   9.546   8.270   6.980
23621SOL    HW172760   9.584   8.201   6.926
23621SOL    HW272761   9.520   8.338   6.918
23622SOL     OW72762   0.884   4.899  10.563
23622SOL    HW172763   0.845   4.812  10.574
23622SOL    HW272764   0.916   4.899  10.473
23623SOL     OW72765   4.196   7.502  10.716
23623SOL    HW172766   4.160   7.528  10.801
23623SOL    HW272767   4.241   7.420  10.734
23624SOL     OW72768   7.818   9.080   3.146
23624SOL    HW172769   7.893   9.031   3.112
23624SOL    HW272770   7.846   9.109   3.233
23625SOL     OW72771   5.671   0.043   9.831
23625SOL    HW172772   5.657   0.062   9.738
23625SOL    HW272773   5.646  14.820   9.840
23626SOL     OW72774   8.516   8.033   5.048
23626SOL    HW172775   8.507   7.950   5.001
23626SOL    HW272776   8.609   8.039   5.069
23627SOL     OW72777  10.964  10.438  11.061
23627SOL    HW172778  11.013  10.407  11.137
23627SOL    HW272779  10.972  10.368  10.997
23628SOL     OW72780   5.845   1.749   3.492
23628SOL    HW172781   5.771   1.762   3.432
23628SOL    HW272782   5.922   1.771   3.440
23629SOL     OW72783   4.559  10.528  10.400
23629SOL    HW172784   4.634  10.502  10.347
23629SOL    HW272785   4.502  10.576  10.340
23630SOL     OW72786   6.043  13.099   0.525
23630SOL    HW172787   6.056  13.175   0.583
23630SOL    HW272788   5.981  13.130   0.459
23631SOL     OW72789  14.451  12.758   9.664
23631SOL    HW172790  14.544  12.779   9.654
23631SOL    HW272791  14.414  12.833   9.710
23632SOL     OW72792  14.847   3.754   1.574
23632SOL    HW172793  14.864   3.755   1.480
23632SOL    HW272794  14.778   3.689   1.585
23633SOL     OW72795   4.540   3.500  12.079
23633SOL    HW172796   4.504   3.582  12.113
23633SOL    HW272797   4.599   3.527  12.009
23634SOL     OW72798   9.945   8.097   5.755
23634SOL    HW172799   9.960   8.072   5.847
23634SOL    HW272800   9.861   8.142   5.756
23635SOL     OW72801   8.759   1.422   6.279
23635SOL    HW172802   8.835   1.478   6.296
23635SOL    HW272803   8.686   1.468   6.319
23636SOL     OW72804  10.725  13.737  10.181
23636SOL    HW172805  10.664  13.665  10.169
23636SOL    HW272806  10.780  13.737  10.102
23637SOL     OW72807   6.577  12.757  12.183
23637SOL    HW172808   6.592  12.757  12.089
23637SOL    HW272809   6.506  12.819  12.197
23638SOL     OW72810   3.748   4.461   3.510
23638SOL    HW172811   3.834   4.501   3.528
23638SOL    HW272812   3.738   4.395   3.579
23639SOL     OW72813   6.957   5.470   6.952
23639SOL    HW172814   6.862   5.455   6.954
23639SOL    HW272815   6.992   5.391   6.912
23640SOL     OW72816  12.521  12.507   3.173
23640SOL    HW172817  12.450  12.560   3.137
23640SOL    HW272818  12.597  12.564   3.172
23641SOL     OW72819  14.696   8.497   0.871
23641SOL    HW172820  14.659   8.410   0.884
23641SOL    HW272821  14.668   8.547   0.948
23642SOL     OW72822  11.060   4.408  13.397
23642SOL    HW172823  11.086   4.390  13.487
23642SOL    HW272824  11.134   4.379  13.344
23643SOL     OW72825   5.079   3.705   2.896
23643SOL    HW172826   5.112   3.642   2.959
23643SOL    HW272827   5.022   3.764   2.947
23644SOL     OW72828   7.785   0.999  14.344
23644SOL    HW172829   7.796   0.928  14.280
23644SOL    HW272830   7.799   0.957  14.429
23645SOL     OW72831   6.568  14.065  12.685
23645SOL    HW172832   6.632  14.126  12.724
23645SOL    HW272833   6.553  14.100  12.597
23646SOL     OW72834  11.194   9.126   9.931
23646SOL    HW172835  11.266   9.188   9.944
23646SOL    HW272836  11.224   9.045   9.972
23647SOL     OW72837  13.759  13.460  11.099
23647SOL    HW172838  13.852  13.438  11.090
23647SOL    HW272839  13.734  13.497  11.015
23648SOL     OW72840  13.267  13.400   8.512
23648SOL    HW172841  13.333  13.457   8.473
23648SOL    HW272842  13.237  13.447   8.590
23649SOL     OW72843   4.035  12.128   8.680
23649SOL    HW172844   4.055  12.113   8.588
23649SOL    HW272845   4.008  12.220   8.684
23650SOL     OW72846   5.565   5.415  10.254
23650SOL    HW172847   5.477   5.405  10.289
23650SOL    HW272848   5.566   5.504  10.217
23651SOL     OW72849   2.130  14.745   5.879
23651SOL    HW172850   2.150  14.836   5.900
23651SOL    HW272851   2.190  14.695   5.934
23652SOL     OW72852  12.791   9.285   2.214
23652SOL    HW172853  12.777   9.379   2.208
23652SOL    HW272854  12.882   9.272   2.188
23653SOL     OW72855  12.829  10.416   7.277
23653SOL    HW172856  12.867  10.411   7.364
23653SOL    HW272857  12.822  10.510   7.259
23654SOL     OW72858   2.244   7.438   7.887
23654SOL    HW172859   2.154   7.423   7.859
23654SOL    HW272860   2.278   7.351   7.908
23655SOL     OW72861   7.154   6.152   4.126
23655SOL    HW172862   7.199   6.167   4.043
23655SOL    HW272863   7.216   6.104   4.180
23656SOL     OW72864   4.723   1.747   1.552
23656SOL    HW172865   4.662   1.818   1.575
23656SOL    HW272866   4.725   1.748   1.456
23657SOL     OW72867  14.531   7.843   5.429
23657SOL    HW172868  14.511   7.893   5.508
23657SOL    HW272869  14.611   7.883   5.395
23658SOL     OW72870  11.626   8.863   2.255
23658SOL    HW172871  11.674   8.871   2.173
23658SOL    HW272872  11.668   8.790   2.301
23659SOL     OW72873  11.288  10.949   3.402
23659SOL    HW172874  11.327  10.926   3.318
23659SOL    HW272875  11.282  11.045   3.400
23660SOL     OW72876   5.920  10.609   2.934
23660SOL    HW172877   5.851  10.660   2.892
23660SOL    HW272878   6.002  10.650   2.903
23661SOL     OW72879   7.700   9.056   1.127
23661SOL    HW172880   7.702   8.961   1.137
23661SOL    HW272881   7.777   9.087   1.176
23662SOL     OW72882  13.053   8.004  14.068
23662SOL    HW172883  13.036   8.045  14.153
23662SOL    HW272884  13.065   7.912  14.088
23663SOL     OW72885   3.562   7.591   2.836
23663SOL    HW172886   3.650   7.582   2.799
23663SOL    HW272887   3.516   7.513   2.804
23664SOL     OW72888   6.614  11.193  12.537
23664SOL    HW172889   6.593  11.150  12.454
23664SOL    HW272890   6.709  11.207  12.533
23665SOL     OW72891  11.357   0.679   2.802
23665SOL    HW172892  11.392   0.630   2.728
23665SOL    HW272893  11.435   0.712   2.847
23666SOL     OW72894  11.196   6.905   1.636
23666SOL    HW172895  11.223   6.961   1.564
23666SOL    HW272896  11.161   6.964   1.702
23667SOL     OW72897   2.175  14.437  12.329
23667SOL    HW172898   2.184  14.434  12.424
23667SOL    HW272899   2.219  14.357  12.299
23668SOL     OW72900   7.634  10.325   0.057
23668SOL    HW172901   7.692  10.378   0.111
23668SOL    HW272902   7.671  10.332  14.838
23669SOL     OW72903  14.528   2.150   9.413
23669SOL    HW172904  14.533   2.244   9.398
23669SOL    HW272905  14.531   2.112   9.325
23670SOL     OW72906  11.982   3.775   0.359
23670SOL    HW172907  11.946   3.689   0.338
23670SOL    HW272908  12.073   3.757   0.384
23671SOL     OW72909   3.450   7.791   9.116
23671SOL    HW172910   3.445   7.747   9.031
23671SOL    HW272911   3.525   7.750   9.160
23672SOL     OW72912   2.681   7.728  14.730
23672SOL    HW172913   2.594   7.723  14.769
23672SOL    HW272914   2.728   7.790  14.786
23673SOL     OW72915   4.530   9.541   1.510
23673SOL    HW172916   4.546   9.446   1.509
23673SOL    HW272917   4.436   9.549   1.524
23674SOL     OW72918   5.897   0.004   2.773
23674SOL    HW172919   5.954  14.868   2.696
23674SOL    HW272920   5.818   0.047   2.741
23675SOL     OW72921   4.128   0.810   8.561
23675SOL    HW172922   4.181   0.750   8.612
23675SOL    HW272923   4.056   0.834   8.620
23676SOL     OW72924   5.233   9.117   1.353
23676SOL    HW172925   5.263   9.146   1.267
23676SOL    HW272926   5.308   9.069   1.390
23677SOL     OW72927  13.686   7.185   7.235
23677SOL    HW172928  13.714   7.111   7.289
23677SOL    HW272929  13.739   7.178   7.156
23678SOL     OW72930  12.764   6.201  10.330
23678SOL    HW172931  12.772   6.124  10.274
23678SOL    HW272932  12.855   6.228  10.346
23679SOL     OW72933  13.671   4.939   5.442
23679SOL    HW172934  13.676   4.848   5.412
23679SOL    HW272935  13.696   4.935   5.535
23680SOL     OW72936  10.961  13.143   3.216
23680SOL    HW172937  10.916  13.180   3.140
23680SOL    HW272938  10.896  13.147   3.286
23681SOL     OW72939   5.474   2.079   4.757
23681SOL    HW172940   5.387   2.089   4.795
23681SOL    HW272941   5.464   2.011   4.690
23682SOL     OW72942  10.396   3.617  12.985
23682SOL    HW172943  10.367   3.578  12.903
23682SOL    HW272944  10.428   3.704  12.960
23683SOL     OW72945   9.576   4.324   4.015
23683SOL    HW172946   9.620   4.319   4.100
23683SOL    HW272947   9.486   4.350   4.036
23684SOL     OW72948  11.758  12.208  12.427
23684SOL    HW172949  11.826  12.274  12.444
23684SOL    HW272950  11.676  12.254  12.443
23685SOL     OW72951   1.163   2.687  13.851
23685SOL    HW172952   1.139   2.747  13.781
23685SOL    HW272953   1.145   2.600  13.816
23686SOL     OW72954   3.251   6.517   6.103
23686SOL    HW172955   3.229   6.608   6.081
23686SOL    HW272956   3.256   6.516   6.198
23687SOL     OW72957  10.748   4.232   3.842
23687SOL    HW172958  10.818   4.200   3.899
23687SOL    HW272959  10.744   4.326   3.860
23688SOL     OW72960  10.652   1.203   4.732
23688SOL    HW172961  10.682   1.209   4.823
23688SOL    HW272962  10.618   1.114   4.723
23689SOL     OW72963   0.255   9.308   3.126
23689SOL    HW172964   0.188   9.375   3.119
23689SOL    HW272965   0.337   9.353   3.107
23690SOL     OW72966   0.219   2.234   2.372
23690SOL    HW172967   0.224   2.169   2.303
23690SOL    HW272968   0.296   2.290   2.358
23691SOL     OW72969   7.215   9.944   8.499
23691SOL    HW172970   7.186   9.864   8.455
23691SOL    HW272971   7.135   9.981   8.536
23692SOL     OW72972   5.700   2.033  11.046
23692SOL    HW172973   5.606   2.017  11.050
23692SOL    HW272974   5.717   2.096  11.116
23693SOL     OW72975  10.089   0.675   5.621
23693SOL    HW172976  10.048   0.741   5.677
23693SOL    HW272977  10.183   0.690   5.630
23694SOL     OW72978   3.678   0.034   6.335
23694SOL    HW172979   3.640  14.834   6.282
23694SOL    HW272980   3.771   0.011   6.341
23695SOL     OW72981   4.232   3.492   1.272
23695SOL    HW172982   4.248   3.534   1.188
23695SOL    HW272983   4.291   3.536   1.333
23696SOL     OW72984  11.674   6.814  13.074
23696SOL    HW172985  11.698   6.721  13.073
23696SOL    HW272986  11.677   6.839  12.981
23697SOL     OW72987   7.999  11.405   0.927
23697SOL    HW172988   8.053  11.330   0.903
23697SOL    HW272989   7.978  11.448   0.845
23698SOL     OW72990  10.264   9.632   4.943
23698SOL    HW172991  10.286   9.569   4.874
23698SOL    HW272992  10.333   9.622   5.008
23699SOL     OW72993   5.717   2.038   2.210
23699SOL    HW172994   5.649   2.069   2.269
23699SOL    HW272995   5.791   2.096   2.226
23700SOL     OW72996  12.375  13.915  14.019
23700SOL    HW172997  12.344  13.826  14.003
23700SOL    HW272998  12.297  13.969  14.012
23701SOL     OW72999  13.930   1.500   4.730
23701SOL    HW173000  13.913   1.563   4.800
23701SOL    HW273001  14.024   1.508   4.713
23702SOL     OW73002   4.342   6.774  14.118
23702SOL    HW173003   4.290   6.778  14.198
23702SOL    HW273004   4.433   6.778  14.147
23703SOL     OW73005   4.845  12.991   3.449
23703SOL    HW173006   4.916  12.930   3.432
23703SOL    HW273007   4.765  12.940   3.434
23704SOL     OW73008   2.849   5.977  11.388
23704SOL    HW173009   2.927   5.960  11.439
23704SOL    HW273010   2.881   5.990  11.299
23705SOL     OW73011  10.305  11.600   7.585
23705SOL    HW173012  10.385  11.565   7.546
23705SOL    HW273013  10.257  11.638   7.511
23706SOL     OW73014   9.587   7.462   0.579
23706SOL    HW173015   9.622   7.549   0.601
23706SOL    HW273016   9.647   7.429   0.512
23707SOL     OW73017   7.634   4.511   5.290
23707SOL    HW173018   7.651   4.600   5.318
23707SOL    HW273019   7.696   4.457   5.339
23708SOL     OW73020   8.957   2.276  13.575
23708SOL    HW173021   8.933   2.266  13.667
23708SOL    HW273022   8.874   2.297  13.532
23709SOL     OW73023  11.824  12.573  14.163
23709SOL    HW173024  11.841  12.555  14.255
23709SOL    HW273025  11.890  12.523  14.116
23710SOL     OW73026  12.183   0.183   4.679
23710SOL    HW173027  12.111   0.130   4.713
23710SOL    HW273028  12.258   0.123   4.675
23711SOL     OW73029  11.083   9.576  12.985
23711SOL    HW173030  11.109   9.572  12.893
23711SOL    HW273031  11.157   9.619  13.028
23712SOL     OW73032  14.524   1.366   3.709
23712SOL    HW173033  14.567   1.406   3.785
23712SOL    HW273034  14.583   1.384   3.636
23713SOL     OW73035   9.013  14.489   1.899
23713SOL    HW173036   9.006  14.522   1.988
23713SOL    HW273037   9.006  14.394   1.908
23714SOL     OW73038   5.163   8.374   2.249
23714SOL    HW173039   5.085   8.335   2.210
23714SOL    HW273040   5.138   8.393   2.340
23715SOL     OW73041   8.051   0.989   1.111
23715SOL    HW173042   8.038   1.054   1.041
23715SOL    HW273043   8.063   0.906   1.064
23716SOL     OW73044   3.523   1.367  10.768
23716SOL    HW173045   3.499   1.347  10.677
23716SOL    HW273046   3.605   1.320  10.782
23717SOL     OW73047  13.385   1.909   9.955
23717SOL    HW173048  13.307   1.878   9.909
23717SOL    HW273049  13.429   1.967   9.892
23718SOL     OW73050   4.999   7.438  10.062
23718SOL    HW173051   5.003   7.356  10.014
23718SOL    HW273052   4.905   7.452  10.077
23719SOL     OW73053   7.322  11.309  10.947
23719SOL    HW173054   7.322  11.213  10.943
23719SOL    HW273055   7.407  11.334  10.912
23720SOL     OW73056   3.784  14.200   1.328
23720SOL    HW173057   3.839  14.279   1.330
23720SOL    HW273058   3.782  14.175   1.236
23721SOL     OW73059  11.693   6.656  11.263
23721SOL    HW173060  11.642   6.736  11.275
23721SOL    HW273061  11.643   6.589  11.311
23722SOL     OW73062   8.020  11.924   3.232
23722SOL    HW173063   7.960  11.896   3.164
23722SOL    HW273064   8.002  12.018   3.244
23723SOL     OW73065  10.544   6.685  10.635
23723SOL    HW173066  10.558   6.617  10.701
23723SOL    HW273067  10.632   6.715  10.614
23724SOL     OW73068   5.866   6.123  12.703
23724SOL    HW173069   5.772   6.140  12.698
23724SOL    HW273070   5.876   6.066  12.780
23725SOL     OW73071  11.330   4.881   7.139
23725SOL    HW173072  11.317   4.944   7.068
23725SOL    HW273073  11.259   4.899   7.201
23726SOL     OW73074   9.940   7.131   4.959
23726SOL    HW173075   9.924   7.225   4.962
23726SOL    HW273076   9.853   7.092   4.947
23727SOL     OW73077   1.210  11.371   3.723
23727SOL    HW173078   1.259  11.299   3.762
23727SOL    HW273079   1.217  11.357   3.629
23728SOL     OW73080  11.480  11.097   4.471
23728SOL    HW173081  11.469  11.096   4.376
23728SOL    HW273082  11.392  11.084   4.506
23729SOL     OW73083   5.783  14.642   5.646
23729SOL    HW173084   5.773  14.568   5.707
23729SOL    HW273085   5.868  14.680   5.669
23730SOL     OW73086  14.548  10.482   1.423
23730SOL    HW173087  14.479  10.493   1.357
23730SOL    HW273088  14.546  10.563   1.473
23731SOL     OW73089   0.923   2.976  10.090
23731SOL    HW173090   0.856   2.952  10.026
23731SOL    HW273091   0.878   2.976  10.174
23732SOL     OW73092   9.000   8.870  11.897
23732SOL    HW173093   8.949   8.826  11.965
23732SOL    HW273094   8.952   8.854  11.816
23733SOL     OW73095  13.447   4.110   6.840
23733SOL    HW173096  13.355   4.086   6.856
23733SOL    HW273097  13.491   4.026   6.826
23734SOL     OW73098   1.760   4.373   4.695
23734SOL    HW173099   1.775   4.450   4.640
23734SOL    HW273100   1.711   4.406   4.769
23735SOL     OW73101  12.734   0.452   0.242
23735SOL    HW173102  12.710   0.383   0.304
23735SOL    HW273103  12.827   0.468   0.258
23736SOL     OW73104  11.192   1.855  10.303
23736SOL    HW173105  11.111   1.897  10.331
23736SOL    HW273106  11.251   1.928  10.285
23737SOL     OW73107   2.956   0.642   5.284
23737SOL    HW173108   3.017   0.713   5.262
23737SOL    HW273109   3.012   0.566   5.299
23738SOL     OW73110  10.751   5.168   3.850
23738SOL    HW173111  10.659   5.169   3.877
23738SOL    HW273112  10.749   5.140   3.759
23739SOL     OW73113   3.932   0.554  12.092
23739SOL    HW173114   3.963   0.606  12.165
23739SOL    HW273115   3.900   0.473  12.131
23740SOL     OW73116   8.772   1.774   8.930
23740SOL    HW173117   8.700   1.712   8.918
23740SOL    HW273118   8.754   1.844   8.867
23741SOL     OW73119  14.673   0.973  14.651
23741SOL    HW173120  14.593   0.946  14.696
23741SOL    HW273121  14.693   1.059  14.688
23742SOL     OW73122   0.303   7.175  10.630
23742SOL    HW173123   0.225   7.211  10.672
23742SOL    HW273124   0.284   7.180  10.536
23743SOL     OW73125  11.053   9.748   5.281
23743SOL    HW173126  11.109   9.708   5.215
23743SOL    HW273127  10.965   9.715   5.262
23744SOL     OW73128  11.982  14.581   7.438
23744SOL    HW173129  12.050  14.573   7.371
23744SOL    HW273130  12.030  14.600   7.519
23745SOL     OW73131   8.419  12.992   1.966
23745SOL    HW173132   8.427  13.040   2.048
23745SOL    HW273133   8.409  12.901   1.993
23746SOL     OW73134   3.956   3.958   0.172
23746SOL    HW173135   4.033   3.999   0.132
23746SOL    HW273136   3.942   4.007   0.253
23747SOL     OW73137  13.304   7.647   9.163
23747SOL    HW173138  13.306   7.582   9.093
23747SOL    HW273139  13.305   7.731   9.119
23748SOL     OW73140  12.288  11.368   6.305
23748SOL    HW173141  12.357  11.421   6.264
23748SOL    HW273142  12.248  11.426   6.369
23749SOL     OW73143   3.219   0.013   4.345
23749SOL    HW173144   3.152   0.055   4.399
23749SOL    HW273145   3.169  14.833   4.280
23750SOL     OW73146   8.208   7.353   8.048
23750SOL    HW173147   8.251   7.280   8.092
23750SOL    HW273148   8.172   7.315   7.968
23751SOL     OW73149   2.142   3.755  10.139
23751SOL    HW173150   2.104   3.739  10.225
23751SOL    HW273151   2.233   3.777  10.156
23752SOL     OW73152   5.473   0.275   5.652
23752SOL    HW173153   5.384   0.308   5.636
23752SOL    HW273154   5.464   0.223   5.732
23753SOL     OW73155  11.627  11.472   5.906
23753SOL    HW173156  11.691  11.402   5.893
23753SOL    HW273157  11.562  11.458   5.838
23754SOL     OW73158   5.377   1.672   5.411
23754SOL    HW173159   5.408   1.590   5.373
23754SOL    HW273160   5.283   1.673   5.394
23755SOL     OW73161   8.567   1.453   6.876
23755SOL    HW173162   8.478   1.420   6.862
23755SOL    HW273163   8.609   1.445   6.791
23756SOL     OW73164   2.610   8.794  11.235
23756SOL    HW173165   2.585   8.866  11.177
23756SOL    HW273166   2.644   8.838  11.313
23757SOL     OW73167   1.204   3.699   1.939
23757SOL    HW173168   1.130   3.704   1.879
23757SOL    HW273169   1.204   3.608   1.969
23758SOL     OW73170   6.658   9.014   3.929
23758SOL    HW173171   6.623   8.950   3.991
23758SOL    HW273172   6.697   9.082   3.984
23759SOL     OW73173   0.550   4.330   2.806
23759SOL    HW173174   0.537   4.335   2.711
23759SOL    HW273175   0.583   4.416   2.831
23760SOL     OW73176  12.840   9.733  13.554
23760SOL    HW173177  12.787   9.669  13.506
23760SOL    HW273178  12.776   9.798  13.584
23761SOL     OW73179   9.655   8.652   1.498
23761SOL    HW173180   9.615   8.578   1.452
23761SOL    HW273181   9.703   8.612   1.570
23762SOL     OW73182   3.028   8.209   6.407
23762SOL    HW173183   3.050   8.128   6.362
23762SOL    HW273184   2.949   8.189   6.456
23763SOL     OW73185   6.826  11.838   6.015
23763SOL    HW173186   6.733  11.838   5.990
23763SOL    HW273187   6.843  11.748   6.042
23764SOL     OW73188   0.482  13.721   8.108
23764SOL    HW173189   0.388  13.741   8.104
23764SOL    HW273190   0.485  13.630   8.135
23765SOL     OW73191   5.470   5.771   2.230
23765SOL    HW173192   5.566   5.767   2.220
23765SOL    HW273193   5.442   5.832   2.162
23766SOL     OW73194   6.704  12.888   4.366
23766SOL    HW173195   6.664  12.857   4.447
23766SOL    HW273196   6.743  12.809   4.327
23767SOL     OW73197   2.290   6.049  12.479
23767SOL    HW173198   2.371   6.067  12.431
23767SOL    HW273199   2.294   5.956  12.499
23768SOL     OW73200   0.949   9.672   9.357
23768SOL    HW173201   1.035   9.690   9.394
23768SOL    HW273202   0.953   9.581   9.327
23769SOL     OW73203   7.376   5.763   8.600
23769SOL    HW173204   7.373   5.696   8.531
23769SOL    HW273205   7.330   5.838   8.562
23770SOL     OW73206   0.201   5.918   6.734
23770SOL    HW173207   0.282   5.875   6.704
23770SOL    HW273208   0.212   6.009   6.709
23771SOL     OW73209  14.660   1.289   0.262
23771SOL    HW173210  14.656   1.383   0.244
23771SOL    HW273211  14.599   1.276   0.335
23772SOL     OW73212  12.977  12.868   6.808
23772SOL    HW173213  13.036  12.927   6.760
23772SOL    HW273214  13.008  12.873   6.899
23773SOL     OW73215  13.807  11.349   6.017
23773SOL    HW173216  13.899  11.339   5.994
23773SOL    HW273217  13.763  11.361   5.932
23774SOL     OW73218  10.094   9.046  13.818
23774SOL    HW173219  10.163   9.112  13.808
23774SOL    HW273220  10.141   8.964  13.834
23775SOL     OW73221  13.678   6.423   1.970
23775SOL    HW173222  13.746   6.461   2.025
23775SOL    HW273223  13.646   6.496   1.918
23776SOL     OW73224  11.501  14.125   9.656
23776SOL    HW173225  11.432  14.189   9.639
23776SOL    HW273226  11.580  14.177   9.670
23777SOL     OW73227   0.350   3.201   2.917
23777SOL    HW173228   0.389   3.121   2.880
23777SOL    HW273229   0.425   3.253   2.946
23778SOL     OW73230  13.873   9.005   3.641
23778SOL    HW173231  13.797   8.977   3.692
23778SOL    HW273232  13.877   8.944   3.567
23779SOL     OW73233  12.233   7.004   4.156
23779SOL    HW173234  12.261   6.942   4.223
23779SOL    HW273235  12.314   7.051   4.133
23780SOL     OW73236  13.983  14.087   5.759
23780SOL    HW173237  13.951  13.999   5.780
23780SOL    HW273238  14.074  14.086   5.786
23781SOL     OW73239   4.871   0.199   7.500
23781SOL    HW173240   4.873   0.293   7.481
23781SOL    HW273241   4.799   0.165   7.446
23782SOL     OW73242   5.738   9.885   7.034
23782SOL    HW173243   5.668   9.942   7.001
23782SOL    HW273244   5.696   9.836   7.105
23783SOL     OW73245  13.943   4.969   9.158
23783SOL    HW173246  13.871   4.915   9.191
23783SOL    HW273247  13.900   5.032   9.100
23784SOL     OW73248   9.401  14.156   0.162
23784SOL    HW173249   9.369  14.132   0.249
23784SOL    HW273250   9.403  14.252   0.163
23785SOL     OW73251   1.535  12.596   7.789
23785SOL    HW173252   1.568  12.530   7.850
23785SOL    HW273253   1.443  12.606   7.812
23786SOL     OW73254  12.066   1.805   0.767
23786SOL    HW173255  12.123   1.838   0.837
23786SOL    HW273256  11.979   1.802   0.806
23787SOL     OW73257   7.791  11.568   0.145
23787SOL    HW173258   7.882  11.597   0.139
23787SOL    HW273259   7.775  11.522   0.062
23788SOL     OW73260   7.461   1.489   7.239
23788SOL    HW173261   7.469   1.512   7.331
23788SOL    HW273262   7.433   1.398   7.238
23789SOL     OW73263   0.032   0.359  14.023
23789SOL    HW173264  14.831   0.334  13.963
23789SOL    HW273265   0.110   0.362  13.968
23790SOL     OW73266   8.485   6.365   2.646
23790SOL    HW173267   8.400   6.334   2.676
23790SOL    HW273268   8.466   6.444   2.595
23791SOL     OW73269  14.140   8.611  13.861
23791SOL    HW173270  14.094   8.578  13.785
23791SOL    HW273271  14.111   8.702  13.869
23792SOL     OW73272   1.449   0.334  11.374
23792SOL    HW173273   1.522   0.393  11.392
23792SOL    HW273274   1.432   0.292  11.458
23793SOL     OW73275  13.174  11.045  13.512
23793SOL    HW173276  13.132  11.024  13.595
23793SOL    HW273277  13.257  10.998  13.514
23794SOL     OW73278   7.191   9.851  13.256
23794SOL    HW173279   7.163   9.869  13.345
23794SOL    HW273280   7.227   9.934  13.225
23795SOL     OW73281   6.770   1.019   9.297
23795SOL    HW173282   6.852   0.987   9.261
23795SOL    HW273283   6.726   0.940   9.329
23796SOL     OW73284   9.279  10.114   9.913
23796SOL    HW173285   9.256  10.099  10.004
23796SOL    HW273286   9.264  10.031   9.869
23797SOL     OW73287  12.853  12.531   3.690
23797SOL    HW173288  12.873  12.501   3.601
23797SOL    HW273289  12.777  12.480   3.716
23798SOL     OW73290   1.111  12.571  12.377
23798SOL    HW173291   1.122  12.503  12.312
23798SOL    HW273292   1.095  12.524  12.459
23799SOL     OW73293  14.252  12.382   6.715
23799SOL    HW173294  14.320  12.394   6.649
23799SOL    HW273295  14.181  12.337   6.669
23800SOL     OW73296   6.076  14.322   9.868
23800SOL    HW173297   6.000  14.378   9.854
23800SOL    HW273298   6.057  14.243   9.818
23801SOL     OW73299   8.310  10.267   7.472
23801SOL    HW173300   8.251  10.195   7.494
23801SOL    HW273301   8.326  10.257   7.378
23802SOL     OW73302   0.998   2.447   8.989
23802SOL    HW173303   1.059   2.375   8.973
23802SOL    HW273304   0.952   2.459   8.906
23803SOL     OW73305  12.991   9.380   8.935
23803SOL    HW173306  13.028   9.404   9.020
23803SOL    HW273307  12.897   9.370   8.952
23804SOL     OW73308   3.431  13.600   6.015
23804SOL    HW173309   3.338  13.622   6.015
23804SOL    HW273310   3.443  13.546   6.094
23805SOL     OW73311   6.545  14.370   8.949
23805SOL    HW173312   6.594  14.382   9.030
23805SOL    HW273313   6.612  14.364   8.881
23806SOL     OW73314  11.527  11.388   4.086
23806SOL    HW173315  11.439  11.410   4.117
23806SOL    HW273316  11.516  11.307   4.037
23807SOL     OW73317   2.180   9.491   2.579
23807SOL    HW173318   2.185   9.574   2.626
23807SOL    HW273319   2.100   9.450   2.612
23808SOL     OW73320   6.494   0.161  10.155
23808SOL    HW173321   6.439   0.144  10.232
23808SOL    HW273322   6.513   0.255  10.160
23809SOL     OW73323  13.808  14.805   1.042
23809SOL    HW173324  13.801  14.751   1.120
23809SOL    HW273325  13.730  14.861   1.045
23810SOL     OW73326   4.981   3.148   7.519
23810SOL    HW173327   5.051   3.199   7.479
23810SOL    HW273328   5.018   3.116   7.601
23811SOL     OW73329  12.296   6.148   7.722
23811SOL    HW173330  12.207   6.145   7.688
23811SOL    HW273331  12.345   6.085   7.668
23812SOL     OW73332  14.468   9.357   6.964
23812SOL    HW173333  14.520   9.310   7.029
23812SOL    HW273334  14.450   9.292   6.896
23813SOL     OW73335   9.841   2.109   6.480
23813SOL    HW173336   9.898   2.056   6.425
23813SOL    HW273337   9.897   2.180   6.513
23814SOL     OW73338   0.523   1.699   5.728
23814SOL    HW173339   0.449   1.638   5.723
23814SOL    HW273340   0.600   1.643   5.735
23815SOL     OW73341   6.003   2.261   3.984
23815SOL    HW173342   6.028   2.245   3.893
23815SOL    HW273343   6.011   2.175   4.026
23816SOL     OW73344  14.453   3.058  14.445
23816SOL    HW173345  14.448   3.122  14.374
23816SOL    HW273346  14.545   3.055  14.469
23817SOL     OW73347   9.934  11.972   5.975
23817SOL    HW173348   9.882  11.973   5.895
23817SOL    HW273349   9.970  11.883   5.978
23818SOL     OW73350   6.030  11.153  13.681
23818SOL    HW173351   6.037  11.093  13.755
23818SOL    HW273352   6.055  11.238  13.716
23819SOL     OW73353   0.375   9.981   3.188
23819SOL    HW173354   0.293   9.973   3.139
23819SOL    HW273355   0.355  10.043   3.258
23820SOL     OW73356   1.255   0.075   5.622
23820SOL    HW173357   1.246   0.098   5.715
23820SOL    HW273358   1.199  14.867   5.612
23821SOL     OW73359  12.512   1.897   7.022
23821SOL    HW173360  12.505   1.925   6.931
23821SOL    HW273361  12.554   1.970   7.067
23822SOL     OW73362  14.631  13.397  11.180
23822SOL    HW173363  14.544  13.413  11.218
23822SOL    HW273364  14.685  13.468  11.214
23823SOL     OW73365  12.012   3.920  14.592
23823SOL    HW173366  11.926   3.941  14.556
23823SOL    HW273367  12.030   3.991  14.654
23824SOL     OW73368   1.103   7.851   5.029
23824SOL    HW173369   1.128   7.881   4.942
23824SOL    HW273370   1.016   7.813   5.018
23825SOL     OW73371   3.683   5.359   2.056
23825SOL    HW173372   3.635   5.389   1.979
23825SOL    HW273373   3.770   5.397   2.046
23826SOL     OW73374   0.804   4.801   4.753
23826SOL    HW173375   0.771   4.888   4.732
23826SOL    HW273376   0.758   4.776   4.833
23827SOL     OW73377   3.252   1.157  11.052
23827SOL    HW173378   3.257   1.225  10.984
23827SOL    HW273379   3.332   1.105  11.039
23828SOL     OW73380  11.827   4.942   9.538
23828SOL    HW173381  11.815   5.004   9.466
23828SOL    HW273382  11.884   4.988   9.599
23829SOL     OW73383   4.072   2.837  11.051
23829SOL    HW173384   4.162   2.821  11.080
23829SOL    HW273385   4.024   2.856  11.132
23830SOL     OW73386   3.841   5.983   5.703
23830SOL    HW173387   3.856   6.073   5.732
23830SOL    HW273388   3.747   5.971   5.710
23831SOL     OW73389   4.207   5.152   1.576
23831SOL    HW173390   4.235   5.223   1.633
23831SOL    HW273391   4.120   5.128   1.608
23832SOL     OW73392   1.766  10.753   1.805
23832SOL    HW173393   1.784  10.846   1.814
23832SOL    HW273394   1.766  10.719   1.895
23833SOL     OW73395   6.460   6.546   4.883
23833SOL    HW173396   6.471   6.638   4.860
23833SOL    HW273397   6.548   6.517   4.907
23834SOL     OW73398   7.415   1.571   4.698
23834SOL    HW173399   7.427   1.623   4.777
23834SOL    HW273400   7.398   1.635   4.629
23835SOL     OW73401   5.798   0.778   8.296
23835SOL    HW173402   5.813   0.869   8.272
23835SOL    HW273403   5.844   0.728   8.228
23836SOL     OW73404   4.359   2.916  11.123
23836SOL    HW173405   4.358   2.999  11.075
23836SOL    HW273406   4.382   2.941  11.213
23837SOL     OW73407   2.871  14.329  11.686
23837SOL    HW173408   2.888  14.295  11.598
23837SOL    HW273409   2.921  14.272  11.745
23838SOL     OW73410   1.833   8.002  13.994
23838SOL    HW173411   1.836   8.062  14.068
23838SOL    HW273412   1.878   8.050  13.924
23839SOL     OW73413  12.622   4.858   8.571
23839SOL    HW173414  12.561   4.810   8.515
23839SOL    HW273415  12.708   4.832   8.540
23840SOL     OW73416  11.713   6.579   7.496
23840SOL    HW173417  11.638   6.526   7.524
23840SOL    HW273418  11.789   6.524   7.515
23841SOL     OW73419  14.140   2.823   2.175
23841SOL    HW173420  14.127   2.841   2.268
23841SOL    HW273421  14.057   2.783   2.146
23842SOL     OW73422  13.745  14.134   6.826
23842SOL    HW173423  13.682  14.103   6.762
23842SOL    HW273424  13.691  14.169   6.897
23843SOL     OW73425   0.226   7.256  13.631
23843SOL    HW173426   0.142   7.279  13.590
23843SOL    HW273427   0.202   7.201  13.705
23844SOL     OW73428   3.351   0.824  12.541
23844SOL    HW173429   3.407   0.832  12.618
23844SOL    HW273430   3.318   0.913  12.526
23845SOL     OW73431   2.448  12.207   3.937
23845SOL    HW173432   2.461  12.160   3.854
23845SOL    HW273433   2.359  12.184   3.964
23846SOL     OW73434   1.253   7.129   3.462
23846SOL    HW173435   1.265   7.170   3.548
23846SOL    HW273436   1.194   7.189   3.415
23847SOL     OW73437  12.665  10.264   3.231
23847SOL    HW173438  12.741  10.209   3.212
23847SOL    HW273439  12.602  10.205   3.272
23848SOL     OW73440  14.527   3.164   9.445
23848SOL    HW173441  14.610   3.199   9.412
23848SOL    HW273442  14.470   3.160   9.369
23849SOL     OW73443   9.495  11.633   3.057
23849SOL    HW173444   9.469  11.542   3.068
23849SOL    HW273445   9.487  11.650   2.964
23850SOL     OW73446  12.754   5.457  10.378
23850SOL    HW173447  12.836   5.422  10.411
23850SOL    HW273448  12.721   5.513  10.448
23851SOL     OW73449  12.341   5.846  11.803
23851SOL    HW173450  12.273   5.846  11.736
23851SOL    HW273451  12.375   5.756  11.802
23852SOL     OW73452  11.419   2.424   4.593
23852SOL    HW173453  11.456   2.355   4.648
23852SOL    HW273454  11.488   2.442   4.528
23853SOL     OW73455   3.742   6.120   2.496
23853SOL    HW173456   3.797   6.126   2.417
23853SOL    HW273457   3.779   6.045   2.544
23854SOL     OW73458  10.886   3.299   1.419
23854SOL    HW173459  10.941   3.233   1.461
23854SOL    HW273460  10.797   3.265   1.429
23855SOL     OW73461  12.938   4.227   8.124
23855SOL    HW173462  13.021   4.225   8.075
23855SOL    HW273463  12.894   4.146   8.100
23856SOL     OW73464  13.940  14.139   2.727
23856SOL    HW173465  13.999  14.143   2.652
23856SOL    HW273466  13.990  14.178   2.799
23857SOL     OW73467  11.436   2.292  13.725
23857SOL    HW173468  11.492   2.351  13.675
23857SOL    HW273469  11.494   2.222  13.753
23858SOL     OW73470  12.768  11.433  12.606
23858SOL    HW173471  12.854  11.443  12.648
23858SOL    HW273472  12.727  11.360  12.652
23859SOL     OW73473   0.489  13.450   6.543
23859SOL    HW173474   0.497  13.481   6.453
23859SOL    HW273475   0.554  13.380   6.551
23860SOL     OW73476   5.788  14.008   4.355
23860SOL    HW173477   5.717  13.973   4.409
23860SOL    HW273478   5.814  14.089   4.399
23861SOL     OW73479   7.983   7.254  12.440
23861SOL    HW173480   7.937   7.222  12.363
23861SOL    HW273481   7.977   7.349  12.434
23862SOL     OW73482   6.546   7.806   6.598
23862SOL    HW173483   6.636   7.796   6.630
23862SOL    HW273484   6.551   7.782   6.506
23863SOL     OW73485   4.983   3.012  11.170
23863SOL    HW173486   4.909   3.037  11.225
23863SOL    HW273487   4.990   3.083  11.106
23864SOL     OW73488   6.785   4.560  12.905
23864SOL    HW173489   6.844   4.485  12.908
23864SOL    HW273490   6.818   4.619  12.973
23865SOL     OW73491   5.400   6.199  10.970
23865SOL    HW173492   5.490   6.223  10.947
23865SOL    HW273493   5.351   6.281  10.967
23866SOL     OW73494   3.275   5.033   4.187
23866SOL    HW173495   3.288   4.960   4.125
23866SOL    HW273496   3.357   5.037   4.236
23867SOL     OW73497   6.829  13.999   6.180
23867SOL    HW173498   6.818  14.093   6.196
23867SOL    HW273499   6.773  13.957   6.245
23868SOL     OW73500   2.028   8.259  13.570
23868SOL    HW173501   2.021   8.240  13.476
23868SOL    HW273502   2.112   8.220  13.596
23869SOL     OW73503  12.503   4.147   5.641
23869SOL    HW173504  12.502   4.205   5.717
23869SOL    HW273505  12.595   4.145   5.614
23870SOL     OW73506   0.861   7.307   1.362
23870SOL    HW173507   0.832   7.228   1.409
23870SOL    HW273508   0.874   7.372   1.431
23871SOL     OW73509   9.301  10.339   9.681
23871SOL    HW173510   9.335  10.406   9.623
23871SOL    HW273511   9.371  10.274   9.687
23872SOL     OW73512   5.826  11.387  11.905
23872SOL    HW173513   5.794  11.477  11.903
23872SOL    HW273514   5.811  11.355  11.816
23873SOL     OW73515   8.962  14.269  11.056
23873SOL    HW173516   8.920  14.203  11.001
23873SOL    HW273517   8.992  14.337  10.995
23874SOL     OW73518   3.654   5.541   4.026
23874SOL    HW173519   3.674   5.628   4.060
23874SOL    HW273520   3.558   5.536   4.027
23875SOL     OW73521   0.139  11.187   2.256
23875SOL    HW173522   0.151  11.139   2.338
23875SOL    HW273523   0.101  11.271   2.282
23876SOL     OW73524   6.900  12.036  12.259
23876SOL    HW173525   6.815  12.024  12.301
23876SOL    HW273526   6.880  12.043  12.166
23877SOL     OW73527   3.773   9.836  14.363
23877SOL    HW173528   3.819   9.795  14.437
23877SOL    HW273529   3.685   9.854  14.397
23878SOL     OW73530   9.182   7.956   5.703
23878SOL    HW173531   9.271   7.937   5.673
23878SOL    HW273532   9.189   7.957   5.799
23879SOL     OW73533   6.866   6.999   5.070
23879SOL    HW173534   6.901   6.980   5.157
23879SOL    HW273535   6.929   7.061   5.032
23880SOL     OW73536  10.188  10.579  13.339
23880SOL    HW173537  10.233  10.638  13.399
23880SOL    HW273538  10.221  10.604  13.252
23881SOL     OW73539  11.903   5.891   6.406
23881SOL    HW173540  11.917   5.982   6.432
23881SOL    HW273541  11.991   5.858   6.388
23882SOL     OW73542   3.172  11.759   8.946
23882SOL    HW173543   3.223  11.748   8.866
23882SOL    HW273544   3.154  11.670   8.976
23883SOL     OW73545   3.162  11.616   2.696
23883SOL    HW173546   3.071  11.601   2.719
23883SOL    HW273547   3.208  11.616   2.780
23884SOL     OW73548  10.287  10.720  13.091
23884SOL    HW173549  10.312  10.785  13.025
23884SOL    HW273550  10.192  10.715  13.084
23885SOL     OW73551   0.744  11.368   1.053
23885SOL    HW173552   0.727  11.394   0.962
23885SOL    HW273553   0.801  11.437   1.087
23886SOL     OW73554   7.556   5.674   0.897
23886SOL    HW173555   7.503   5.751   0.878
23886SOL    HW273556   7.619   5.704   0.963
23887SOL     OW73557   8.249   5.248  10.109
23887SOL    HW173558   8.283   5.334  10.084
23887SOL    HW273559   8.258   5.195  10.029
23888SOL     OW73560   9.245   9.028   6.124
23888SOL    HW173561   9.288   9.113   6.137
23888SOL    HW273562   9.174   9.027   6.188
23889SOL     OW73563   2.787   1.217   9.018
23889SOL    HW173564   2.704   1.250   9.052
23889SOL    HW273565   2.821   1.289   8.964
23890SOL     OW73566   4.737   5.718   4.032
23890SOL    HW173567   4.778   5.701   4.117
23890SOL    HW273568   4.716   5.811   4.034
23891SOL     OW73569   8.698  10.497   6.586
23891SOL    HW173570   8.720  10.428   6.523
23891SOL    HW273571   8.610  10.475   6.615
23892SOL     OW73572   5.384   3.780  11.838
23892SOL    HW173573   5.463   3.777  11.893
23892SOL    HW273574   5.336   3.856  11.869
23893SOL     OW73575  14.788  11.999   2.818
23893SOL    HW173576  14.823  11.911   2.833
23893SOL    HW273577  14.697  11.994   2.848
23894SOL     OW73578   7.202  13.617   0.819
23894SOL    HW173579   7.256  13.562   0.763
23894SOL    HW273580   7.250  13.623   0.902
23895SOL     OW73581   7.645   9.470   7.902
23895SOL    HW173582   7.606   9.392   7.941
23895SOL    HW273583   7.637   9.456   7.808
23896SOL     OW73584   9.108   4.206  12.498
23896SOL    HW173585   9.139   4.297  12.499
23896SOL    HW273586   9.042   4.203  12.430
23897SOL     OW73587  14.758   5.142   7.825
23897SOL    HW173588  14.791   5.197   7.754
23897SOL    HW273589  14.663   5.141   7.813
23898SOL     OW73590  12.509  10.286   3.577
23898SOL    HW173591  12.525  10.357   3.639
23898SOL    HW273592  12.588  10.232   3.584
23899SOL     OW73593  14.767   6.454   9.946
23899SOL    HW173594  14.684   6.419   9.914
23899SOL    HW273595  14.756   6.549   9.943
23900SOL     OW73596   0.114  14.642   2.308
23900SOL    HW173597   0.042  14.581   2.326
23900SOL    HW273598   0.144  14.669   2.395
23901SOL     OW73599   3.542   7.975  12.067
23901SOL    HW173600   3.635   7.989  12.048
23901SOL    HW273601   3.497   8.041  12.015
23902SOL     OW73602  13.743   7.726   5.762
23902SOL    HW173603  13.664   7.777   5.779
23902SOL    HW273604  13.711   7.638   5.740
23903SOL     OW73605  13.934   4.440   7.266
23903SOL    HW173606  14.002   4.440   7.334
23903SOL    HW273607  13.914   4.533   7.252
23904SOL     OW73608  12.545  11.116  11.657
23904SOL    HW173609  12.533  11.134  11.751
23904SOL    HW273610  12.499  11.034  11.642
23905SOL     OW73611   1.161   3.019   7.061
23905SOL    HW173612   1.177   2.939   7.010
23905SOL    HW273613   1.249   3.056   7.075
23906SOL     OW73614   6.227   8.709  13.858
23906SOL    HW173615   6.296   8.774  13.870
23906SOL    HW273616   6.178   8.711  13.941
23907SOL     OW73617  12.667  13.765  10.567
23907SOL    HW173618  12.758  13.771  10.537
23907SOL    HW273619  12.632  13.689  10.522
23908SOL     OW73620   7.554   8.005   3.859
23908SOL    HW173621   7.510   8.066   3.799
23908SOL    HW273622   7.536   8.040   3.946
23909SOL     OW73623   5.173   0.574   7.394
23909SOL    HW173624   5.081   0.553   7.408
23909SOL    HW273625   5.178   0.668   7.408
23910SOL     OW73626   6.317  11.455   9.717
23910SOL    HW173627   6.411  11.445   9.703
23910SOL    HW273628   6.293  11.379   9.771
23911SOL     OW73629  13.767   4.263   6.149
23911SOL    HW173630  13.704   4.207   6.103
23911SOL    HW273631  13.713   4.328   6.194
23912SOL     OW73632   2.256   8.729   6.506
23912SOL    HW173633   2.289   8.787   6.575
23912SOL    HW273634   2.301   8.759   6.427
23913SOL     OW73635  13.910   1.107   3.486
23913SOL    HW173636  13.907   1.149   3.571
23913SOL    HW273637  13.967   1.163   3.433
23914SOL     OW73638  12.553   2.546  13.249
23914SOL    HW173639  12.555   2.555  13.154
23914SOL    HW273640  12.638   2.506  13.270
23915SOL     OW73641   2.081   0.515   4.120
23915SOL    HW173642   2.154   0.558   4.076
23915SOL    HW273643   2.117   0.432   4.152
23916SOL     OW73644   5.142   7.407  10.904
23916SOL    HW173645   5.183   7.493  10.905
23916SOL    HW273646   5.191   7.357  10.970
23917SOL     OW73647   9.671   2.326  14.414
23917SOL    HW173648   9.739   2.385  14.382
23917SOL    HW273649   9.604   2.385  14.450
23918SOL     OW73650  11.084   3.564   3.153
23918SOL    HW173651  11.137   3.629   3.198
23918SOL    HW273652  11.059   3.501   3.221
23919SOL     OW73653   3.784  10.498   5.991
23919SOL    HW173654   3.796  10.480   5.898
23919SOL    HW273655   3.853  10.561   6.013
23920SOL     OW73656   2.194  10.373   1.568
23920SOL    HW173657   2.109  10.381   1.610
23920SOL    HW273658   2.198  10.281   1.540
23921SOL     OW73659   4.247   7.831   6.884
23921SOL    HW173660   4.212   7.826   6.796
23921SOL    HW273661   4.335   7.867   6.873
23922SOL     OW73662   2.682   3.924  11.176
23922SOL    HW173663   2.634   3.915  11.259
23922SOL    HW273664   2.700   3.834  11.149
23923SOL     OW73665   4.326   9.575  10.833
23923SOL    HW173666   4.348   9.667  10.850
23923SOL    HW273667   4.252   9.557  10.892
23924SOL     OW73668   1.838   7.130  13.004
23924SOL    HW173669   1.788   7.064  12.956
23924SOL    HW273670   1.775   7.198  13.025
23925SOL     OW73671   3.178   1.666   1.006
23925SOL    HW173672   3.096   1.705   1.036
23925SOL    HW273673   3.152   1.595   0.949
23926SOL     OW73674   6.632   4.569  11.719
23926SOL    HW173675   6.659   4.642  11.663
23926SOL    HW273676   6.662   4.594  11.806
23927SOL     OW73677  11.418   0.746  11.409
23927SOL    HW173678  11.452   0.657  11.417
23927SOL    HW273679  11.493   0.798  11.379
23928SOL     OW73680   1.762   8.810   2.189
23928SOL    HW173681   1.679   8.798   2.144
23928SOL    HW273682   1.739   8.859   2.268
23929SOL     OW73683   5.450  10.627  11.222
23929SOL    HW173684   5.451  10.683  11.300
23929SOL    HW273685   5.396  10.552  11.246
23930SOL     OW73686   4.490  11.629   5.254
23930SOL    HW173687   4.565  11.614   5.311
23930SOL    HW273688   4.461  11.542   5.227
23931SOL     OW73689  13.840  13.907  12.236
23931SOL    HW173690  13.856  13.993  12.276
23931SOL    HW273691  13.769  13.923  12.174
23932SOL     OW73692  12.081   1.173   3.711
23932SOL    HW173693  12.110   1.083   3.727
23932SOL    HW273694  12.047   1.172   3.622
23933SOL     OW73695  13.106   7.487  14.513
23933SOL    HW173696  13.081   7.463  14.602
23933SOL    HW273697  13.024   7.489  14.464
23934SOL     OW73698   0.293   5.485   6.996
23934SOL    HW173699   0.244   5.410   6.961
23934SOL    HW273700   0.250   5.562   6.958
23935SOL     OW73701   2.650   8.033   9.040
23935SOL    HW173702   2.729   8.043   8.986
23935SOL    HW273703   2.622   8.122   9.059
23936SOL     OW73704   7.204   3.609   8.065
23936SOL    HW173705   7.160   3.668   8.126
23936SOL    HW273706   7.175   3.637   7.978
23937SOL     OW73707   5.414   1.765   6.861
23937SOL    HW173708   5.322   1.764   6.836
23937SOL    HW273709   5.444   1.675   6.846
23938SOL     OW73710   6.376   5.038  11.640
23938SOL    HW173711   6.448   5.016  11.698
23938SOL    HW273712   6.389   5.131  11.621
23939SOL     OW73713  12.086  11.006  11.938
23939SOL    HW173714  12.152  11.055  11.986
23939SOL    HW273715  12.012  11.066  11.932
23940SOL     OW73716   3.007   9.219   3.830
23940SOL    HW173717   2.989   9.181   3.916
23940SOL    HW273718   2.921   9.229   3.790
23941SOL     OW73719   5.001   8.806   4.069
23941SOL    HW173720   5.072   8.755   4.109
23941SOL    HW273721   4.935   8.812   4.138
23942SOL     OW73722   6.756  13.928   0.893
23942SOL    HW173723   6.745  13.835   0.874
23942SOL    HW273724   6.814  13.931   0.969
23943SOL     OW73725   2.390   6.669   9.715
23943SOL    HW173726   2.373   6.701   9.627
23943SOL    HW273727   2.410   6.576   9.703
23944SOL     OW73728   6.147   0.827   9.800
23944SOL    HW173729   6.158   0.734   9.818
23944SOL    HW273730   6.086   0.857   9.867
23945SOL     OW73731   9.184   0.181   5.225
23945SOL    HW173732   9.106   0.210   5.178
23945SOL    HW273733   9.216   0.106   5.175
23946SOL     OW73734   7.534   2.269   7.175
23946SOL    HW173735   7.537   2.196   7.113
23946SOL    HW273736   7.624   2.280   7.203
23947SOL     OW73737   1.065   0.620   7.054
23947SOL    HW173738   1.140   0.596   6.999
23947SOL    HW273739   1.002   0.549   7.040
23948SOL     OW73740   9.977   2.128   9.028
23948SOL    HW173741  10.070   2.124   9.051
23948SOL    HW273742   9.969   2.067   8.954
23949SOL     OW73743  10.777  13.921   0.892
23949SOL    HW173744  10.724  13.960   0.962
23949SOL    HW273745  10.850  13.982   0.881
23950SOL     OW73746  12.992  13.291   5.968
23950SOL    HW173747  12.973  13.298   5.875
23950SOL    HW273748  13.006  13.381   5.997
23951SOL     OW73749   1.090   9.491   4.135
23951SOL    HW173750   1.064   9.539   4.056
23951SOL    HW273751   1.011   9.445   4.162
23952SOL     OW73752  12.430   9.912   8.632
23952SOL    HW173753  12.441   9.820   8.605
23952SOL    HW273754  12.514   9.935   8.671
23953SOL     OW73755   7.059   7.342   5.257
23953SOL    HW173756   7.111   7.305   5.328
23953SOL    HW273757   6.988   7.388   5.301
23954SOL     OW73758   2.623  12.445   3.798
23954SOL    HW173759   2.692  12.381   3.782
23954SOL    HW273760   2.565  12.403   3.861
23955SOL     OW73761   2.688  11.176   9.288
23955SOL    HW173762   2.733  11.260   9.300
23955SOL    HW273763   2.727  11.118   9.353
23956SOL     OW73764   3.534  12.204   6.707
23956SOL    HW173765   3.552  12.138   6.640
23956SOL    HW273766   3.492  12.275   6.660
23957SOL     OW73767   9.527   4.516   4.351
23957SOL    HW173768   9.456   4.579   4.359
23957SOL    HW273769   9.483   4.432   4.336
23958SOL     OW73770  10.834   7.980   7.758
23958SOL    HW173771  10.901   8.040   7.725
23958SOL    HW273772  10.851   7.898   7.711
23959SOL     OW73773  12.526  14.667   5.784
23959SOL    HW173774  12.583  14.729   5.830
23959SOL    HW273775  12.497  14.716   5.707
23960SOL     OW73776   5.695   5.291   4.027
23960SOL    HW173777   5.738   5.319   4.108
23960SOL    HW273778   5.669   5.200   4.045
23961SOL     OW73779   3.858   4.068  14.008
23961SOL    HW173780   3.908   4.147  13.987
23961SOL    HW273781   3.824   4.038  13.923
23962SOL     OW73782   9.819   9.226   6.791
23962SOL    HW173783   9.795   9.138   6.762
23962SOL    HW273784   9.770   9.237   6.873
23963SOL     OW73785   6.295   2.623  12.493
23963SOL    HW173786   6.326   2.692  12.552
23963SOL    HW273787   6.280   2.668  12.410
23964SOL     OW73788   1.930  13.269   8.656
23964SOL    HW173789   1.891  13.194   8.700
23964SOL    HW273790   1.918  13.341   8.717
23965SOL     OW73791  14.282   2.915   3.830
23965SOL    HW173792  14.188   2.908   3.812
23965SOL    HW273793  14.318   2.954   3.751
23966SOL     OW73794   3.437   3.246   0.020
23966SOL    HW173795   3.412   3.259  14.799
23966SOL    HW273796   3.531   3.266   0.022
23967SOL     OW73797  10.641   8.504   3.470
23967SOL    HW173798  10.603   8.589   3.496
23967SOL    HW273799  10.679   8.520   3.384
23968SOL     OW73800   1.097  14.113   8.384
23968SOL    HW173801   1.103  14.037   8.326
23968SOL    HW273802   1.188  14.129   8.412
23969SOL     OW73803   1.210   4.157   3.945
23969SOL    HW173804   1.237   4.249   3.949
23969SOL    HW273805   1.263   4.113   4.011
23970SOL     OW73806  14.403   1.677  11.739
23970SOL    HW173807  14.434   1.611  11.800
23970SOL    HW273808  14.333   1.723  11.785
23971SOL     OW73809   3.788   7.382   0.725
23971SOL    HW173810   3.731   7.309   0.749
23971SOL    HW273811   3.758   7.456   0.778
23972SOL     OW73812   6.696  12.736  10.921
23972SOL    HW173813   6.690  12.828  10.896
23972SOL    HW273814   6.673  12.734  11.014
23973SOL     OW73815  10.642   0.031   8.640
23973SOL    HW173816  10.734   0.058   8.645
23973SOL    HW273817  10.600   0.101   8.590
23974SOL     OW73818   9.203   8.934   5.867
23974SOL    HW173819   9.240   8.967   5.949
23974SOL    HW273820   9.150   9.006   5.833
23975SOL     OW73821   3.567   4.242   8.477
23975SOL    HW173822   3.579   4.195   8.394
23975SOL    HW273823   3.653   4.238   8.519
23976SOL     OW73824   5.736   5.523   1.493
23976SOL    HW173825   5.653   5.489   1.461
23976SOL    HW273826   5.714   5.608   1.531
23977SOL     OW73827  14.542   3.841  13.091
23977SOL    HW173828  14.623   3.801  13.123
23977SOL    HW273829  14.507   3.778  13.028
23978SOL     OW73830   5.045   2.241  10.912
23978SOL    HW173831   5.134   2.266  10.887
23978SOL    HW273832   5.019   2.176  10.848
23979SOL     OW73833   5.701   0.874   0.657
23979SOL    HW173834   5.607   0.875   0.672
23979SOL    HW273835   5.739   0.904   0.740
23980SOL     OW73836  12.928   6.223  12.669
23980SOL    HW173837  12.914   6.211  12.575
23980SOL    HW273838  12.988   6.152  12.693
23981SOL     OW73839   5.859  10.203  14.201
23981SOL    HW173840   5.828  10.290  14.175
23981SOL    HW273841   5.944  10.219  14.242
23982SOL     OW73842  14.462  14.820   3.412
23982SOL    HW173843  14.427   0.007   3.481
23982SOL    HW273844  14.471   0.009   3.337
23983SOL     OW73845   7.027   4.249  10.031
23983SOL    HW173846   6.971   4.172  10.016
23983SOL    HW273847   7.086   4.221  10.101
23984SOL     OW73848  14.712  13.686   7.460
23984SOL    HW173849  14.631  13.732   7.436
23984SOL    HW273850  14.695  13.651   7.547
23985SOL     OW73851   5.262   8.639   9.125
23985SOL    HW173852   5.230   8.713   9.177
23985SOL    HW273853   5.334   8.602   9.177
23986SOL     OW73854   3.951   9.901   7.862
23986SOL    HW173855   4.038   9.879   7.894
23986SOL    HW273856   3.921   9.970   7.921
23987SOL     OW73857   6.698   2.275  13.182
23987SOL    HW173858   6.687   2.222  13.103
23987SOL    HW273859   6.791   2.265  13.204
23988SOL     OW73860   8.380   7.909   7.673
23988SOL    HW173861   8.356   7.933   7.762
23988SOL    HW273862   8.387   7.814   7.674
23989SOL     OW73863  13.253  12.572  14.526
23989SOL    HW173864  13.175  12.576  14.471
23989SOL    HW273865  13.303  12.498  14.491
23990SOL     OW73866  10.680  12.106   3.079
23990SOL    HW173867  10.737  12.145   3.145
23990SOL    HW273868  10.731  12.034   3.043
23991SOL     OW73869   1.043   4.193   6.995
23991SOL    HW173870   0.957   4.188   7.035
23991SOL    HW273871   1.027   4.177   6.902
23992SOL     OW73872   9.367   8.131  13.624
23992SOL    HW173873   9.382   8.134  13.718
23992SOL    HW273874   9.323   8.214  13.604
23993SOL     OW73875   0.934   7.138   4.779
23993SOL    HW173876   0.877   7.213   4.795
23993SOL    HW273877   0.952   7.141   4.685
23994SOL     OW73878   9.177   3.322  14.174
23994SOL    HW173879   9.233   3.316  14.096
23994SOL    HW273880   9.172   3.232  14.207
23995SOL     OW73881  12.371   7.063   2.401
23995SOL    HW173882  12.457   7.069   2.443
23995SOL    HW273883  12.354   7.151   2.368
23996SOL     OW73884   9.548   3.742  12.706
23996SOL    HW173885   9.634   3.729  12.664
23996SOL    HW273886   9.542   3.673  12.771
23997SOL     OW73887   4.974   3.218   5.369
23997SOL    HW173888   5.004   3.160   5.439
23997SOL    HW273889   5.039   3.288   5.366
23998SOL     OW73890  11.775  14.533   0.798
23998SOL    HW173891  11.783  14.607   0.738
23998SOL    HW273892  11.787  14.571   0.885
23999SOL     OW73893   8.279   8.784   8.074
23999SOL    HW173894   8.288   8.757   8.166
23999SOL    HW273895   8.198   8.834   8.072
24000SOL     OW73896   6.082  14.511   4.886
24000SOL    HW173897   6.117  14.442   4.829
24000SOL    HW273898   6.155  14.571   4.898
24001SOL     OW73899   5.678  10.964  11.394
24001SOL    HW173900   5.711  10.903  11.460
24001SOL    HW273901   5.733  11.042  11.403
24002SOL     OW73902  10.608   0.330   9.968
24002SOL    HW173903  10.568   0.411   9.936
24002SOL    HW273904  10.693   0.358  10.002
24003SOL     OW73905  12.306   3.940   3.402
24003SOL    HW173906  12.305   3.963   3.495
24003SOL    HW273907  12.323   4.023   3.357
24004SOL     OW73908   3.785   5.905   1.141
24004SOL    HW173909   3.821   5.908   1.230
24004SOL    HW273910   3.810   5.819   1.108
24005SOL     OW73911   4.943  10.510  14.724
24005SOL    HW173912   5.032  10.498  14.754
24005SOL    HW273913   4.937  10.604  14.703
24006SOL     OW73914  14.701   2.775   0.868
24006SOL    HW173915  14.736   2.706   0.924
24006SOL    HW273916  14.617   2.742   0.839
24007SOL     OW73917  12.447  10.418  11.807
24007SOL    HW173918  12.420  10.357  11.876
24007SOL    HW273919  12.366  10.457  11.776
24008SOL     OW73920  10.153   9.977   3.185
24008SOL    HW173921  10.098   9.910   3.145
24008SOL    HW273922  10.103  10.006   3.262
24009SOL     OW73923   8.477   8.604   3.852
24009SOL    HW173924   8.560   8.591   3.806
24009SOL    HW273925   8.477   8.537   3.921
24010SOL     OW73926   6.133   4.991   5.306
24010SOL    HW173927   6.059   5.014   5.362
24010SOL    HW273928   6.178   5.074   5.289
24011SOL     OW73929   6.524   1.150   0.229
24011SOL    HW173930   6.533   1.210   0.303
24011SOL    HW273931   6.613   1.119   0.212
24012SOL     OW73932  11.819   2.778  12.568
24012SOL    HW173933  11.775   2.853  12.608
24012SOL    HW273934  11.832   2.804  12.476
24013SOL     OW73935   9.510  14.443   1.559
24013SOL    HW173936   9.529  14.507   1.627
24013SOL    HW273937   9.582  14.380   1.564
24014SOL     OW73938   6.718   7.691   0.200
24014SOL    HW173939   6.729   7.785   0.185
24014SOL    HW273940   6.686   7.685   0.290
24015SOL     OW73941   2.359  11.505   0.372
24015SOL    HW173942   2.350  11.585   0.320
24015SOL    HW273943   2.345  11.434   0.309
24016SOL     OW73944  13.677   3.588   8.916
24016SOL    HW173945  13.639   3.547   8.838
24016SOL    HW273946  13.615   3.570   8.986
24017SOL     OW73947   4.555   1.455  13.200
24017SOL    HW173948   4.640   1.491  13.176
24017SOL    HW273949   4.498   1.474  13.126
24018SOL     OW73950   8.116   8.706   9.610
24018SOL    HW173951   8.130   8.690   9.516
24018SOL    HW273952   8.069   8.790   9.612
24019SOL     OW73953  14.126   2.318   1.140
24019SOL    HW173954  14.082   2.236   1.163
24019SOL    HW273955  14.104   2.378   1.212
24020SOL     OW73956  13.107   9.088   1.613
24020SOL    HW173957  13.057   9.011   1.639
24020SOL    HW273958  13.064   9.119   1.534
24021SOL     OW73959  12.231   1.954   4.576
24021SOL    HW173960  12.185   1.871   4.589
24021SOL    HW273961  12.164   2.021   4.589
24022SOL     OW73962   1.150   0.937   2.140
24022SOL    HW173963   1.193   1.015   2.106
24022SOL    HW273964   1.135   0.882   2.062
24023SOL     OW73965   4.058  12.062   8.424
24023SOL    HW173966   4.120  11.989   8.428
24023SOL    HW273967   3.989  12.032   8.364
24024SOL     OW73968   0.976   4.576   0.369
24024SOL    HW173969   0.943   4.496   0.327
24024SOL    HW273970   0.904   4.604   0.426
24025SOL     OW73971   3.829   4.080   7.563
24025SOL    HW173972   3.893   4.077   7.492
24025SOL    HW273973   3.780   4.161   7.548
24026SOL     OW73974   2.524   9.332   1.650
24026SOL    HW173975   2.616   9.343   1.626
24026SOL    HW273976   2.526   9.287   1.734
24027SOL     OW73977   6.172  13.406   1.010
24027SOL    HW173978   6.202  13.461   0.937
24027SOL    HW273979   6.142  13.325   0.968
24028SOL     OW73980  12.166  11.030   1.745
24028SOL    HW173981  12.231  11.071   1.688
24028SOL    HW273982  12.197  10.940   1.756
24029SOL     OW73983   9.993  14.784   8.106
24029SOL    HW173984  10.064  14.831   8.063
24029SOL    HW273985  10.025  14.694   8.113
24030SOL     OW73986   0.619   2.359   3.534
24030SOL    HW173987   0.636   2.351   3.440
24030SOL    HW273988   0.567   2.439   3.543
24031SOL     OW73989   6.328  13.714   6.018
24031SOL    HW173990   6.354  13.638   5.964
24031SOL    HW273991   6.408  13.766   6.024
24032SOL     OW73992   3.875   3.301  12.268
24032SOL    HW173993   3.929   3.287  12.190
24032SOL    HW273994   3.849   3.213  12.295
24033SOL     OW73995   1.913   2.127   2.890
24033SOL    HW173996   1.884   2.045   2.930
24033SOL    HW273997   1.846   2.190   2.914
24034SOL     OW73998  13.825   2.991   2.159
24034SOL    HW173999  13.790   2.903   2.144
24034SOL    HW274000  13.757   3.036   2.208
24035SOL     OW74001   6.537   9.688   7.207
24035SOL    HW174002   6.534   9.660   7.116
24035SOL    HW274003   6.613   9.643   7.244
24036SOL     OW74004  14.114   6.907   9.760
24036SOL    HW174005  14.061   6.980   9.790
24036SOL    HW274006  14.051   6.846   9.722
24037SOL     OW74007   7.875   7.315  10.809
24037SOL    HW174008   7.925   7.396  10.806
24037SOL    HW274009   7.916   7.263  10.879
24038SOL     OW74010  11.222  12.991   2.557
24038SOL    HW174011  11.230  12.896   2.556
24038SOL    HW274012  11.136  13.008   2.596
24039SOL     OW74013   9.317  14.562   2.806
24039SOL    HW174014   9.350  14.535   2.892
24039SOL    HW274015   9.396  14.589   2.758
24040SOL     OW74016   8.901  11.937   6.826
24040SOL    HW174017   8.833  11.870   6.818
24040SOL    HW274018   8.977  11.900   6.782
24041SOL     OW74019  13.773   2.329  14.126
24041SOL    HW174020  13.699   2.313  14.067
24041SOL    HW274021  13.819   2.403  14.087
24042SOL     OW74022   9.730   7.658   2.135
24042SOL    HW174023   9.654   7.682   2.081
24042SOL    HW274024   9.781   7.739   2.140
24043SOL     OW74025   2.880   8.536  11.229
24043SOL    HW174026   2.895   8.629  11.248
24043SOL    HW274027   2.813   8.536  11.161
24044SOL     OW74028  14.521   4.598   8.971
24044SOL    HW174029  14.535   4.544   8.894
24044SOL    HW274030  14.454   4.552   9.021
24045SOL     OW74031   6.139  14.321   7.579
24045SOL    HW174032   6.098  14.262   7.515
24045SOL    HW274033   6.223  14.344   7.540
24046SOL     OW74034   1.550   6.133   0.217
24046SOL    HW174035   1.468   6.176   0.243
24046SOL    HW274036   1.579   6.182   0.140
24047SOL     OW74037  14.255  12.410   3.164
24047SOL    HW174038  14.184  12.415   3.228
24047SOL    HW274039  14.300  12.494   3.172
24048SOL     OW74040   5.168   3.822   1.346
24048SOL    HW174041   5.156   3.882   1.272
24048SOL    HW274042   5.089   3.833   1.398
24049SOL     OW74043   8.174   5.831   8.242
24049SOL    HW174044   8.158   5.758   8.302
24049SOL    HW274045   8.216   5.790   8.166
24050SOL     OW74046   5.284  13.662   5.542
24050SOL    HW174047   5.363  13.632   5.498
24050SOL    HW274048   5.227  13.692   5.471
24051SOL     OW74049   8.232   6.562  14.668
24051SOL    HW174050   8.272   6.600  14.590
24051SOL    HW274051   8.278   6.603  14.741
24052SOL     OW74052   5.832   4.483  14.713
24052SOL    HW174053   5.801   4.393  14.702
24052SOL    HW274054   5.793   4.531  14.640
24053SOL     OW74055   1.936   1.410   6.301
24053SOL    HW174056   1.966   1.364   6.379
24053SOL    HW274057   1.997   1.384   6.232
24054SOL     OW74058   6.904   2.820   1.040
24054SOL    HW174059   6.979   2.850   1.091
24054SOL    HW274060   6.838   2.798   1.106
24055SOL     OW74061   7.275  13.813   6.014
24055SOL    HW174062   7.191  13.791   6.053
24055SOL    HW274063   7.340  13.785   6.079
24056SOL     OW74064   1.037  10.230  11.279
24056SOL    HW174065   1.128  10.244  11.304
24056SOL    HW274066   1.043  10.174  11.201
24057SOL     OW74067   7.362   0.602   0.018
24057SOL    HW174068   7.307   0.542  14.837
24057SOL    HW274069   7.451   0.576  14.868
24058SOL     OW74070  10.350  14.582  11.236
24058SOL    HW174071  10.285  14.639  11.276
24058SOL    HW274072  10.307  14.548  11.158
24059SOL     OW74073  13.934   3.638   3.589
24059SOL    HW174074  13.903   3.704   3.528
24059SOL    HW274075  13.885   3.559   3.567
24060SOL     OW74076   4.926   2.688  12.838
24060SOL    HW174077   4.913   2.783  12.830
24060SOL    HW274078   4.973   2.664  12.758
24061SOL     OW74079   3.211   6.827   7.803
24061SOL    HW174080   3.264   6.898   7.839
24061SOL    HW274081   3.261   6.748   7.821
24062SOL     OW74082   6.317   1.171   2.132
24062SOL    HW174083   6.277   1.255   2.112
24062SOL    HW274084   6.411   1.186   2.123
24063SOL     OW74085   5.204  12.740   3.574
24063SOL    HW174086   5.112  12.726   3.554
24063SOL    HW274087   5.243  12.767   3.491
24064SOL     OW74088  14.580   4.951  11.917
24064SOL    HW174089  14.577   4.943  12.012
24064SOL    HW274090  14.654   5.009  11.900
24065SOL     OW74091   3.842   9.175   7.515
24065SOL    HW174092   3.827   9.083   7.495
24065SOL    HW274093   3.936   9.187   7.499
24066SOL     OW74094  14.397   1.206   1.220
24066SOL    HW174095  14.430   1.248   1.140
24066SOL    HW274096  14.350   1.129   1.189
24067SOL     OW74097   9.927  13.488  12.148
24067SOL    HW174098   9.919  13.583  12.144
24067SOL    HW274099  10.018  13.470  12.124
24068SOL     OW74100   2.971   5.655   8.057
24068SOL    HW174101   3.007   5.741   8.034
24068SOL    HW274102   2.993   5.600   7.982
24069SOL     OW74103   5.945   4.615   1.314
24069SOL    HW174104   5.970   4.592   1.224
24069SOL    HW274105   5.991   4.551   1.368
24070SOL     OW74106  10.052  11.573  11.557
24070SOL    HW174107   9.977  11.627  11.583
24070SOL    HW274108  10.112  11.579  11.631
24071SOL     OW74109   9.457  14.110   4.572
24071SOL    HW174110   9.411  14.190   4.595
24071SOL    HW274111   9.471  14.065   4.655
24072SOL     OW74112   1.739  11.209  10.241
24072SOL    HW174113   1.737  11.191  10.147
24072SOL    HW274114   1.647  11.207  10.267
24073SOL     OW74115  12.806   6.021   8.902
24073SOL    HW174116  12.889   6.007   8.948
24073SOL    HW274117  12.832   6.055   8.816
24074SOL     OW74118   8.313   6.974   3.264
24074SOL    HW174119   8.389   6.956   3.320
24074SOL    HW274120   8.281   6.887   3.239
24075SOL     OW74121  12.578   0.362   0.790
24075SOL    HW174122  12.512   0.294   0.797
24075SOL    HW274123  12.593   0.391   0.880
24076SOL     OW74124   1.585   1.091   0.643
24076SOL    HW174125   1.557   1.003   0.622
24076SOL    HW274126   1.528   1.118   0.715
24077SOL     OW74127   1.454   5.145   7.294
24077SOL    HW174128   1.406   5.216   7.337
24077SOL    HW274129   1.535   5.186   7.264
24078SOL     OW74130   9.058  14.731   4.092
24078SOL    HW174131   9.144  14.701   4.121
24078SOL    HW274132   9.057  14.714   3.998
24079SOL     OW74133  10.671   9.178  13.825
24079SOL    HW174134  10.760   9.160  13.853
24079SOL    HW274135  10.616   9.124  13.881
24080SOL     OW74136   7.326   3.563   2.231
24080SOL    HW174137   7.332   3.512   2.312
24080SOL    HW274138   7.270   3.510   2.174
24081SOL     OW74139   9.129   9.168   0.430
24081SOL    HW174140   9.190   9.242   0.427
24081SOL    HW274141   9.136   9.129   0.343
24082SOL     OW74142  14.544   8.439   7.486
24082SOL    HW174143  14.570   8.373   7.551
24082SOL    HW274144  14.455   8.464   7.513
24083SOL     OW74145   7.264  10.199   4.481
24083SOL    HW174146   7.306  10.183   4.396
24083SOL    HW274147   7.287  10.289   4.503
24084SOL     OW74148  10.044   6.706   9.613
24084SOL    HW174149  10.116   6.650   9.643
24084SOL    HW274150  10.049   6.783   9.669
24085SOL     OW74151  10.738  12.203  12.239
24085SOL    HW174152  10.703  12.281  12.197
24085SOL    HW274153  10.833  12.215  12.237
24086SOL     OW74154  12.979  13.071   1.405
24086SOL    HW174155  13.029  12.996   1.439
24086SOL    HW274156  13.003  13.075   1.312
24087SOL     OW74157  11.963  11.931  14.521
24087SOL    HW174158  11.910  11.965  14.593
24087SOL    HW274159  11.900  11.897  14.458
24088SOL     OW74160  13.327   4.561   9.731
24088SOL    HW174161  13.234   4.572   9.712
24088SOL    HW274162  13.365   4.647   9.712
24089SOL     OW74163   6.329   2.519  12.035
24089SOL    HW174164   6.356   2.514  12.127
24089SOL    HW274165   6.378   2.593  12.000
24090SOL     OW74166  14.818   9.285   8.417
24090SOL    HW174167  14.787   9.367   8.379
24090SOL    HW274168  14.758   9.268   8.490
24091SOL     OW74169   5.320  10.259  14.420
24091SOL    HW174170   5.406  10.221  14.400
24091SOL    HW274171   5.268  10.184  14.449
24092SOL     OW74172   3.038  11.901   2.836
24092SOL    HW174173   2.961  11.888   2.780
24092SOL    HW274174   3.036  11.828   2.898
24093SOL     OW74175  12.123   2.746   3.313
24093SOL    HW174176  12.216   2.754   3.291
24093SOL    HW274177  12.122   2.701   3.397
24094SOL     OW74178   4.692   7.463   7.282
24094SOL    HW174179   4.709   7.428   7.195
24094SOL    HW274180   4.685   7.386   7.338
24095SOL     OW74181   2.359   1.994  13.668
24095SOL    HW174182   2.364   2.029  13.579
24095SOL    HW274183   2.323   2.065  13.720
24096SOL     OW74184  12.246   2.187  13.015
24096SOL    HW174185  12.152   2.173  13.008
24096SOL    HW274186  12.262   2.196  13.109
24097SOL     OW74187   5.027   4.901   0.223
24097SOL    HW174188   4.975   4.957   0.281
24097SOL    HW274189   5.013   4.812   0.257
24098SOL     OW74190   5.349  10.170   5.167
24098SOL    HW174191   5.279  10.218   5.122
24098SOL    HW274192   5.384  10.232   5.231
24099SOL     OW74193   2.872   5.550   5.400
24099SOL    HW174194   2.899   5.536   5.309
24099SOL    HW274195   2.953   5.545   5.451
24100SOL     OW74196   5.724   1.421   6.301
24100SOL    HW174197   5.761   1.447   6.217
24100SOL    HW274198   5.797   1.380   6.348
24101SOL     OW74199  12.839  13.593   2.560
24101SOL    HW174200  12.919  13.543   2.546
24101SOL    HW274201  12.776  13.556   2.497
24102SOL     OW74202  10.824   6.245   9.126
24102SOL    HW174203  10.790   6.176   9.183
24102SOL    HW274204  10.825   6.206   9.038
24103SOL     OW74205   2.227   7.178  14.080
24103SOL    HW174206   2.239   7.097  14.029
24103SOL    HW274207   2.195   7.242  14.016
24104SOL     OW74208  12.068   5.550  14.819
24104SOL    HW174209  12.137   5.497  14.779
24104SOL    HW274210  12.019   5.585  14.744
24105SOL     OW74211  12.995  10.941   5.906
24105SOL    HW174212  13.034  10.920   5.821
24105SOL    HW274213  13.058  10.911   5.970
24106SOL     OW74214   4.177  12.330  13.387
24106SOL    HW174215   4.211  12.286  13.465
24106SOL    HW274216   4.092  12.290  13.371
24107SOL     OW74217  12.387   6.706   1.751
24107SOL    HW174218  12.325   6.733   1.819
24107SOL    HW274219  12.473   6.732   1.785
24108SOL     OW74220  14.847   1.117  10.872
24108SOL    HW174221   0.043   1.109  10.941
24108SOL    HW274222  14.784   1.048  10.891
24109SOL     OW74223   7.925   7.035  13.638
24109SOL    HW174224   7.992   7.092  13.600
24109SOL    HW274225   7.855   7.095  13.664
24110SOL     OW74226   1.325  12.715  12.616
24110SOL    HW174227   1.352  12.639  12.564
24110SOL    HW274228   1.322  12.787  12.553
24111SOL     OW74229   2.381   7.676   3.904
24111SOL    HW174230   2.383   7.608   3.972
24111SOL    HW274231   2.469   7.674   3.866
24112SOL     OW74232   6.559  12.740   6.375
24112SOL    HW174233   6.476  12.760   6.419
24112SOL    HW274234   6.590  12.825   6.344
24113SOL     OW74235   1.511   4.069  10.017
24113SOL    HW174236   1.477   3.996   9.964
24113SOL    HW274237   1.576   4.111   9.961
24114SOL     OW74238   3.939   8.850   1.373
24114SOL    HW174239   4.026   8.888   1.392
24114SOL    HW274240   3.918   8.799   1.451
24115SOL     OW74241   6.621  12.890  13.881
24115SOL    HW174242   6.666  12.811  13.853
24115SOL    HW274243   6.624  12.948  13.805
24116SOL     OW74244   2.776   6.937  10.796
24116SOL    HW174245   2.730   6.919  10.877
24116SOL    HW274246   2.841   7.003  10.819
24117SOL     OW74247   1.439   8.945   9.923
24117SOL    HW174248   1.476   8.955   9.835
24117SOL    HW274249   1.426   9.035   9.953
24118SOL     OW74250  14.005   3.867   6.534
24118SOL    HW174251  14.096   3.870   6.565
24118SOL    HW274252  14.006   3.805   6.461
24119SOL     OW74253   1.692   4.098  14.333
24119SOL    HW174254   1.632   4.137  14.396
24119SOL    HW274255   1.710   4.011  14.367
24120SOL     OW74256   3.313  14.419  11.073
24120SOL    HW174257   3.348  14.399  10.987
24120SOL    HW274258   3.293  14.334  11.111
24121SOL     OW74259   6.496   9.594   1.534
24121SOL    HW174260   6.522   9.629   1.449
24121SOL    HW274261   6.403   9.574   1.525
24122SOL     OW74262  11.025  10.722   6.186
24122SOL    HW174263  11.056  10.787   6.122
24122SOL    HW274264  11.039  10.764   6.271
24123SOL     OW74265   5.525   7.259   5.169
24123SOL    HW174266   5.606   7.208   5.159
24123SOL    HW274267   5.546   7.325   5.234
24124SOL     OW74268   7.894   8.019   0.120
24124SOL    HW174269   7.962   7.970   0.073
24124SOL    HW274270   7.932   8.106   0.134
24125SOL     OW74271  13.796   5.967  10.248
24125SOL    HW174272  13.714   5.924  10.271
24125SOL    HW274273  13.864   5.914  10.289
24126SOL     OW74274   1.267   6.010  10.043
24126SOL    HW174275   1.284   6.041  10.132
24126SOL    HW274276   1.253   5.916  10.052
24127SOL     OW74277   0.993   7.681  14.259
24127SOL    HW174278   0.962   7.760  14.215
24127SOL    HW274279   1.085   7.700  14.278
24128SOL     OW74280  14.474   5.119   6.894
24128SOL    HW174281  14.409   5.075   6.948
24128SOL    HW274282  14.464   5.080   6.807
24129SOL     OW74283  14.041  12.006  10.331
24129SOL    HW174284  14.092  11.961  10.264
24129SOL    HW274285  14.053  11.954  10.410
24130SOL     OW74286   8.142   9.986   8.999
24130SOL    HW174287   8.216   9.959   9.053
24130SOL    HW274288   8.077  10.019   9.061
24131SOL     OW74289   0.886  14.811  10.122
24131SOL    HW174290   0.847  14.725  10.140
24131SOL    HW274291   0.962  14.791  10.067
24132SOL     OW74292  13.360  10.012   4.892
24132SOL    HW174293  13.345   9.958   4.970
24132SOL    HW274294  13.301   9.977   4.826
24133SOL     OW74295   0.307  12.843   3.293
24133SOL    HW174296   0.298  12.748   3.297
24133SOL    HW274297   0.221  12.875   3.267
24134SOL     OW74298  13.783   5.314   7.367
24134SOL    HW174299  13.804   5.403   7.339
24134SOL    HW274300  13.741   5.325   7.452
24135SOL     OW74301   4.381   0.361  13.572
24135SOL    HW174302   4.350   0.407  13.493
24135SOL    HW274303   4.446   0.299  13.539
24136SOL     OW74304  13.226  12.232   3.143
24136SOL    HW174305  13.191  12.158   3.193
24136SOL    HW274306  13.175  12.307   3.173
24137SOL     OW74307   2.048   8.159   3.374
24137SOL    HW174308   1.958   8.142   3.402
24137SOL    HW274309   2.059   8.253   3.388
24138SOL     OW74310   6.943   9.289  13.696
24138SOL    HW174311   6.930   9.195  13.694
24138SOL    HW274312   6.971   9.308  13.786
24139SOL     OW74313   6.084   5.166  14.457
24139SOL    HW174314   6.025   5.237  14.482
24139SOL    HW274315   6.061   5.094  14.516
24140SOL     OW74316   3.082  11.448   5.116
24140SOL    HW174317   3.080  11.449   5.020
24140SOL    HW274318   3.011  11.507   5.141
24141SOL     OW74319   8.820  11.718   5.395
24141SOL    HW174320   8.852  11.686   5.479
24141SOL    HW274321   8.725  11.726   5.407
24142SOL     OW74322  14.528   0.743  11.560
24142SOL    HW174323  14.540   0.678  11.491
24142SOL    HW274324  14.434   0.739  11.580
24143SOL     OW74325  14.320   5.115   4.506
24143SOL    HW174326  14.225   5.104   4.508
24143SOL    HW274327  14.336   5.197   4.552
24144SOL     OW74328   1.933   2.299   5.255
24144SOL    HW174329   1.932   2.331   5.165
24144SOL    HW274330   1.942   2.204   5.246
24145SOL     OW74331   4.369  10.524   7.448
24145SOL    HW174332   4.406  10.603   7.408
24145SOL    HW274333   4.445  10.467   7.462
24146SOL     OW74334  13.141   2.405   6.361
24146SOL    HW174335  13.064   2.403   6.417
24146SOL    HW274336  13.215   2.390   6.420
24147SOL     OW74337   0.951   4.328   1.382
24147SOL    HW174338   1.015   4.336   1.453
24147SOL    HW274339   0.877   4.380   1.412
24148SOL     OW74340   2.253   6.206   4.770
24148SOL    HW174341   2.211   6.240   4.691
24148SOL    HW274342   2.292   6.123   4.743
24149SOL     OW74343   2.271  11.168  12.570
24149SOL    HW174344   2.328  11.210  12.635
24149SOL    HW274345   2.202  11.128  12.622
24150SOL     OW74346   0.690  13.720  14.665
24150SOL    HW174347   0.727  13.635  14.642
24150SOL    HW274348   0.614  13.701  14.719
24151SOL     OW74349   5.024  10.526   8.692
24151SOL    HW174350   4.992  10.578   8.618
24151SOL    HW274351   4.945  10.487   8.730
24152SOL     OW74352  13.704   4.653   5.388
24152SOL    HW174353  13.694   4.564   5.354
24152SOL    HW274354  13.780   4.648   5.446
24153SOL     OW74355  12.308   7.135   3.045
24153SOL    HW174356  12.348   7.197   2.984
24153SOL    HW274357  12.224   7.175   3.067
24154SOL     OW74358  13.082   9.692  10.729
24154SOL    HW174359  13.021   9.763  10.745
24154SOL    HW274360  13.139   9.724  10.659
24155SOL     OW74361   9.354  11.818  11.587
24155SOL    HW174362   9.392  11.832  11.674
24155SOL    HW274363   9.311  11.732  11.593
24156SOL     OW74364   1.621   1.525   1.222
24156SOL    HW174365   1.696   1.472   1.194
24156SOL    HW274366   1.638   1.612   1.186
24157SOL     OW74367  14.630   4.726   7.333
24157SOL    HW174368  14.562   4.696   7.273
24157SOL    HW274369  14.641   4.653   7.395
24158SOL     OW74370   8.406   7.981   5.571
24158SOL    HW174371   8.433   7.969   5.481
24158SOL    HW274372   8.487   7.983   5.621
24159SOL     OW74373   0.561   9.155   4.594
24159SOL    HW174374   0.492   9.104   4.551
24159SOL    HW274375   0.517   9.196   4.669
24160SOL     OW74376   9.225   8.979   5.241
24160SOL    HW174377   9.171   8.993   5.319
24160SOL    HW274378   9.300   8.927   5.272
24161SOL     OW74379   7.239   8.600   6.790
24161SOL    HW174380   7.314   8.593   6.731
24161SOL    HW274381   7.274   8.574   6.876
24162SOL     OW74382   8.836  14.146  13.863
24162SOL    HW174383   8.850  14.064  13.816
24162SOL    HW274384   8.802  14.207  13.798
24163SOL     OW74385  13.980  12.764  14.433
24163SOL    HW174386  13.978  12.857  14.454
24163SOL    HW274387  13.968  12.720  14.517
24164SOL     OW74388   9.061   5.069  13.424
24164SOL    HW174389   9.075   4.993  13.367
24164SOL    HW274390   9.123   5.058  13.495
24165SOL     OW74391   1.757   8.961   7.345
24165SOL    HW174392   1.815   9.036   7.358
24165SOL    HW274393   1.770   8.908   7.424
24166SOL     OW74394   2.821   9.958   1.913
24166SOL    HW174395   2.866   9.915   1.985
24166SOL    HW274396   2.835   9.900   1.838
24167SOL     OW74397   2.971  11.314   4.586
24167SOL    HW174398   3.012  11.391   4.546
24167SOL    HW274399   3.029  11.241   4.563
24168SOL     OW74400   1.374   1.163  14.235
24168SOL    HW174401   1.368   1.124  14.322
24168SOL    HW274402   1.285   1.190  14.215
24169SOL     OW74403   4.592   5.196  14.414
24169SOL    HW174404   4.524   5.153  14.466
24169SOL    HW274405   4.545   5.261  14.362
24170SOL     OW74406  13.729   7.290  10.661
24170SOL    HW174407  13.669   7.346  10.612
24170SOL    HW274408  13.815   7.311  10.626
24171SOL     OW74409  13.642   0.924   4.740
24171SOL    HW174410  13.594   0.990   4.691
24171SOL    HW274411  13.659   0.855   4.675
24172SOL     OW74412   8.597   3.849  12.760
24172SOL    HW174413   8.602   3.819  12.669
24172SOL    HW274414   8.520   3.906  12.763
24173SOL     OW74415   9.345  12.559  10.012
24173SOL    HW174416   9.277  12.493   9.998
24173SOL    HW274417   9.386  12.569   9.926
24174SOL     OW74418   9.987   0.907   5.729
24174SOL    HW174419   9.941   0.961   5.793
24174SOL    HW274420   9.965   0.945   5.644
24175SOL     OW74421   7.285   8.445   5.521
24175SOL    HW174422   7.236   8.481   5.595
24175SOL    HW274423   7.234   8.369   5.493
24176SOL     OW74424  14.745   3.290   7.695
24176SOL    HW174425  14.659   3.261   7.724
24176SOL    HW274426  14.731   3.324   7.607
24177SOL     OW74427  14.560  10.042   6.138
24177SOL    HW174428  14.479  10.012   6.179
24177SOL    HW274429  14.624  10.041   6.208
24178SOL     OW74430   4.902   4.329   8.332
24178SOL    HW174431   4.951   4.355   8.410
24178SOL    HW274432   4.811   4.335   8.358
24179SOL     OW74433   1.460   1.640   5.888
24179SOL    HW174434   1.456   1.723   5.935
24179SOL    HW274435   1.489   1.577   5.954
24180SOL     OW74436   3.611   2.526   0.963
24180SOL    HW174437   3.646   2.442   0.992
24180SOL    HW274438   3.516   2.515   0.970
24181SOL     OW74439  12.473   8.249   0.462
24181SOL    HW174440  12.534   8.256   0.389
24181SOL    HW274441  12.513   8.185   0.521
24182SOL     OW74442  13.503   7.062   1.447
24182SOL    HW174443  13.499   7.019   1.361
24182SOL    HW274444  13.413   7.090   1.464
24183SOL     OW74445   7.343   6.660   5.076
24183SOL    HW174446   7.348   6.602   5.152
24183SOL    HW274447   7.392   6.614   5.007
24184SOL     OW74448   1.033   2.988  10.595
24184SOL    HW174449   1.051   2.938  10.515
24184SOL    HW274450   0.946   3.027  10.579
24185SOL     OW74451  13.466  11.732  13.310
24185SOL    HW174452  13.529  11.671  13.348
24185SOL    HW274453  13.460  11.803  13.375
24186SOL     OW74454   9.189   3.413   1.111
24186SOL    HW174455   9.195   3.430   1.017
24186SOL    HW274456   9.115   3.352   1.120
24187SOL     OW74457   0.383   0.347   8.581
24187SOL    HW174458   0.435   0.276   8.544
24187SOL    HW274459   0.293   0.325   8.557
24188SOL     OW74460  11.322  10.404   4.245
24188SOL    HW174461  11.281  10.442   4.323
24188SOL    HW274462  11.382  10.472   4.214
24189SOL     OW74463   2.242   5.937  10.812
24189SOL    HW174464   2.148   5.925  10.797
24189SOL    HW274465   2.274   5.850  10.832
24190SOL     OW74466   8.909  12.834   0.422
24190SOL    HW174467   8.875  12.826   0.332
24190SOL    HW274468   8.950  12.750   0.439
24191SOL     OW74469  10.280   0.207   1.484
24191SOL    HW174470  10.336   0.175   1.555
24191SOL    HW274471  10.319   0.292   1.460
24192SOL     OW74472   3.730   6.765   8.241
24192SOL    HW174473   3.784   6.795   8.314
24192SOL    HW274474   3.726   6.839   8.181
24193SOL     OW74475   2.245  14.517   2.276
24193SOL    HW174476   2.333  14.549   2.296
24193SOL    HW274477   2.235  14.440   2.331
24194SOL     OW74478   8.553  14.094   8.194
24194SOL    HW174479   8.538  14.081   8.100
24194SOL    HW274480   8.599  14.178   8.200
24195SOL     OW74481   3.525  12.879   5.555
24195SOL    HW174482   3.486  12.964   5.576
24195SOL    HW274483   3.593  12.899   5.490
24196SOL     OW74484  13.468   3.389  11.888
24196SOL    HW174485  13.459   3.303  11.929
24196SOL    HW274486  13.504   3.371  11.801
24197SOL     OW74487   4.251   5.293  12.688
24197SOL    HW174488   4.245   5.201  12.711
24197SOL    HW274489   4.185   5.306  12.620
24198SOL     OW74490  11.718   9.024   8.510
24198SOL    HW174491  11.628   8.999   8.491
24198SOL    HW274492  11.762   9.023   8.425
24199SOL     OW74493   5.267   4.931  11.963
24199SOL    HW174494   5.253   4.978  12.046
24199SOL    HW274495   5.358   4.952  11.939
24200SOL     OW74496   0.977   7.506   7.548
24200SOL    HW174497   0.948   7.547   7.629
24200SOL    HW274498   1.019   7.425   7.575
24201SOL     OW74499   2.243   3.763   5.336
24201SOL    HW174500   2.171   3.816   5.302
24201SOL    HW274501   2.272   3.712   5.260
24202SOL     OW74502   3.509   1.409   7.013
24202SOL    HW174503   3.561   1.482   6.978
24202SOL    HW274504   3.574   1.350   7.051
24203SOL     OW74505   7.576  10.847   5.156
24203SOL    HW174506   7.540  10.759   5.166
24203SOL    HW274507   7.524  10.886   5.085
24204SOL     OW74508   2.145   5.630   9.026
24204SOL    HW174509   2.151   5.535   9.015
24204SOL    HW274510   2.123   5.642   9.119
24205SOL     OW74511   4.583   1.072  13.638
24205SOL    HW174512   4.595   0.983  13.672
24205SOL    HW274513   4.496   1.097  13.667
24206SOL     OW74514  10.295   5.433  10.438
24206SOL    HW174515  10.332   5.401  10.355
24206SOL    HW274516  10.283   5.527  10.424
24207SOL     OW74517   3.718   5.678   6.672
24207SOL    HW174518   3.780   5.612   6.640
24207SOL    HW274519   3.756   5.761   6.645
24208SOL     OW74520  13.199  14.238   4.383
24208SOL    HW174521  13.173  14.251   4.475
24208SOL    HW274522  13.203  14.143   4.372
24209SOL     OW74523   6.118   7.868  11.049
24209SOL    HW174524   6.175   7.942  11.030
24209SOL    HW274525   6.164   7.818  11.116
24210SOL     OW74526   2.256  10.880   2.200
24210SOL    HW174527   2.186  10.945   2.210
24210SOL    HW274528   2.279  10.855   2.290
24211SOL     OW74529   8.414   9.391  13.113
24211SOL    HW174530   8.362   9.429  13.043
24211SOL    HW274531   8.504   9.417  13.093
24212SOL     OW74532   2.429   0.845  14.008
24212SOL    HW174533   2.433   0.826  14.102
24212SOL    HW274534   2.351   0.800  13.977
24213SOL     OW74535   6.694   3.203  13.278
24213SOL    HW174536   6.709   3.253  13.198
24213SOL    HW274537   6.770   3.146  13.286
24214SOL     OW74538  12.445   8.477  13.663
24214SOL    HW174539  12.522   8.443  13.707
24214SOL    HW274540  12.430   8.418  13.589
24215SOL     OW74541   1.173  10.515  12.934
24215SOL    HW174542   1.127  10.598  12.932
24215SOL    HW274543   1.243  10.524  12.869
24216SOL     OW74544  14.770   9.747  10.871
24216SOL    HW174545  14.759   9.804  10.795
24216SOL    HW274546  14.700   9.773  10.931
24217SOL     OW74547  12.472  12.643   6.709
24217SOL    HW174548  12.567  12.657   6.713
24217SOL    HW274549  12.453  12.633   6.616
24218SOL     OW74550  13.991   9.313  11.261
24218SOL    HW174551  13.906   9.357  11.254
24218SOL    HW274552  14.037   9.359  11.331
24219SOL     OW74553   9.415  12.934  11.818
24219SOL    HW174554   9.410  12.844  11.851
24219SOL    HW274555   9.494  12.971  11.857
24220SOL     OW74556   6.161   5.676   5.858
24220SOL    HW174557   6.141   5.591   5.896
24220SOL    HW274558   6.254   5.690   5.875
24221SOL     OW74559   7.872   9.543   7.117
24221SOL    HW174560   7.783   9.578   7.109
24221SOL    HW274561   7.884   9.529   7.211
24222SOL     OW74562   9.930  10.338  10.976
24222SOL    HW174563   9.982  10.263  10.949
24222SOL    HW274564   9.968  10.365  11.059
24223SOL     OW74565   6.913  13.148   5.845
24223SOL    HW174566   7.008  13.163   5.848
24223SOL    HW274567   6.905  13.056   5.817
24224SOL     OW74568   2.231   0.870   0.284
24224SOL    HW174569   2.281   0.951   0.269
24224SOL    HW274570   2.237   0.855   0.378
24225SOL     OW74571   9.092   3.691   1.727
24225SOL    HW174572   9.059   3.753   1.792
24225SOL    HW274573   9.051   3.718   1.645
24226SOL     OW74574   9.058   6.737  14.678
24226SOL    HW174575   9.122   6.739  14.608
24226SOL    HW274576   8.982   6.784  14.643
24227SOL     OW74577   7.221   7.948   0.835
24227SOL    HW174578   7.235   7.951   0.740
24227SOL    HW274579   7.278   7.876   0.864
24228SOL     OW74580   5.658   6.254   3.540
24228SOL    HW174581   5.619   6.174   3.505
24228SOL    HW274582   5.628   6.323   3.480
24229SOL     OW74583   9.888   6.108   3.219
24229SOL    HW174584   9.969   6.155   3.237
24229SOL    HW274585   9.832   6.172   3.175
24230SOL     OW74586  12.998  10.182   7.777
24230SOL    HW174587  13.024  10.167   7.686
24230SOL    HW274588  12.953  10.101   7.802
24231SOL     OW74589   0.825   4.100   4.271
24231SOL    HW174590   0.902   4.055   4.306
24231SOL    HW274591   0.759   4.031   4.264
24232SOL     OW74592   3.004  10.496  13.663
24232SOL    HW174593   2.914  10.496  13.694
24232SOL    HW274594   3.007  10.424  13.600
24233SOL     OW74595   4.381   8.384  11.406
24233SOL    HW174596   4.437   8.436  11.464
24233SOL    HW274597   4.305   8.362  11.459
24234SOL     OW74598  10.756  11.808   3.346
24234SOL    HW174599  10.685  11.851   3.297
24234SOL    HW274600  10.761  11.720   3.308
24235SOL     OW74601   0.676   0.146  10.235
24235SOL    HW174602   0.748   0.106  10.187
24235SOL    HW274603   0.663   0.090  10.311
24236SOL     OW74604  11.096   9.672  12.020
24236SOL    HW174605  11.029   9.721  12.067
24236SOL    HW274606  11.179   9.698  12.061
24237SOL     OW74607   7.231   9.361   4.570
24237SOL    HW174608   7.319   9.328   4.550
24237SOL    HW274609   7.178   9.335   4.495
24238SOL     OW74610   0.427   2.198  14.124
24238SOL    HW174611   0.472   2.134  14.179
24238SOL    HW274612   0.478   2.279  14.134
24239SOL     OW74613   2.676   5.064   7.645
24239SOL    HW174614   2.601   5.083   7.588
24239SOL    HW274615   2.751   5.064   7.586
24240SOL     OW74616   9.175   2.610  13.814
24240SOL    HW174617   9.132   2.526  13.799
24240SOL    HW274618   9.158   2.660  13.734
24241SOL     OW74619  11.974   1.132   3.459
24241SOL    HW174620  11.919   1.054   3.447
24241SOL    HW274621  11.913   1.205   3.447
24242SOL     OW74622  11.230   6.129   6.009
24242SOL    HW174623  11.296   6.196   6.028
24242SOL    HW274624  11.180   6.165   5.936
24243SOL     OW74625  12.885   1.023   1.819
24243SOL    HW174626  12.932   1.040   1.900
24243SOL    HW274627  12.823   0.953   1.841
24244SOL     OW74628   2.799   6.262   7.919
24244SOL    HW174629   2.787   6.355   7.900
24244SOL    HW274630   2.759   6.217   7.845
24245SOL     OW74631   7.152   0.234   9.552
24245SOL    HW174632   7.219   0.176   9.516
24245SOL    HW274633   7.170   0.319   9.510
24246SOL     OW74634   9.305   1.360   1.508
24246SOL    HW174635   9.306   1.451   1.477
24246SOL    HW274636   9.271   1.365   1.597
24247SOL     OW74637   2.462  14.373   0.145
24247SOL    HW174638   2.384  14.423   0.122
24247SOL    HW274639   2.441  14.334   0.230
24248SOL     OW74640  10.079   0.862   8.178
24248SOL    HW174641  10.038   0.826   8.099
24248SOL    HW274642  10.173   0.860   8.159
24249SOL     OW74643   2.836  13.579   2.298
24249SOL    HW174644   2.910  13.552   2.351
24249SOL    HW274645   2.762  13.581   2.359
24250SOL     OW74646   4.810   0.351   2.128
24250SOL    HW174647   4.835   0.302   2.206
24250SOL    HW274648   4.889   0.353   2.074
24251SOL     OW74649   6.444   3.990  11.038
24251SOL    HW174650   6.469   4.057  11.101
24251SOL    HW274651   6.493   3.912  11.065
24252SOL     OW74652   6.412   4.062   5.895
24252SOL    HW174653   6.469   4.017   5.957
24252SOL    HW274654   6.409   4.005   5.818
24253SOL     OW74655   7.745   8.167   7.518
24253SOL    HW174656   7.831   8.196   7.486
24253SOL    HW274657   7.744   8.196   7.609
24254SOL     OW74658   3.856   5.832  13.104
24254SOL    HW174659   3.786   5.891  13.075
24254SOL    HW274660   3.931   5.890  13.120
24255SOL     OW74661   1.203  11.009   9.263
24255SOL    HW174662   1.255  11.085   9.237
24255SOL    HW274663   1.174  10.970   9.181
24256SOL     OW74664   2.716  10.091   3.786
24256SOL    HW174665   2.795  10.145   3.782
24256SOL    HW274666   2.644  10.154   3.790
24257SOL     OW74667  13.559  11.021  11.315
24257SOL    HW174668  13.500  11.014  11.240
24257SOL    HW274669  13.561  11.115  11.334
24258SOL     OW74670   2.603   8.602   5.128
24258SOL    HW174671   2.538   8.532   5.134
24258SOL    HW274672   2.686   8.557   5.111
24259SOL     OW74673  12.187   6.544  12.320
24259SOL    HW174674  12.126   6.526  12.249
24259SOL    HW274675  12.268   6.570  12.276
24260SOL     OW74676   6.111   8.773   5.295
24260SOL    HW174677   6.113   8.792   5.201
24260SOL    HW274678   6.052   8.840   5.330
24261SOL     OW74679   3.728  12.845   2.965
24261SOL    HW174680   3.679  12.863   3.045
24261SOL    HW274681   3.819  12.839   2.993
24262SOL     OW74682   2.408  11.583  13.498
24262SOL    HW174683   2.412  11.654  13.563
24262SOL    HW274684   2.348  11.615  13.431
24263SOL     OW74685   2.914   3.621  10.076
24263SOL    HW174686   2.908   3.626   9.980
24263SOL    HW274687   2.836   3.574  10.103
24264SOL     OW74688   5.877  10.603   3.208
24264SOL    HW174689   5.891  10.590   3.114
24264SOL    HW274690   5.846  10.694   3.215
24265SOL     OW74691  10.972   7.403  14.155
24265SOL    HW174692  11.034   7.337  14.183
24265SOL    HW274693  10.899   7.396  14.217
24266SOL     OW74694   9.743   7.506  11.225
24266SOL    HW174695   9.708   7.445  11.290
24266SOL    HW274696   9.750   7.589  11.272
24267SOL     OW74697   5.901   1.434  14.740
24267SOL    HW174698   5.969   1.466  14.681
24267SOL    HW274699   5.948   1.390  14.811
24268SOL     OW74700   2.898  10.001   9.849
24268SOL    HW174701   2.916   9.924   9.903
24268SOL    HW274702   2.875  10.070   9.911
24269SOL     OW74703   0.310   7.858   0.796
24269SOL    HW174704   0.343   7.939   0.837
24269SOL    HW274705   0.268   7.811   0.867
24270SOL     OW74706   7.664   6.810   1.428
24270SOL    HW174707   7.660   6.738   1.491
24270SOL    HW274708   7.639   6.770   1.345
24271SOL     OW74709   6.659   9.244   3.721
24271SOL    HW174710   6.679   9.304   3.793
24271SOL    HW274711   6.619   9.168   3.763
24272SOL     OW74712   3.063  12.116  12.421
24272SOL    HW174713   2.989  12.079  12.374
24272SOL    HW274714   3.032  12.128  12.511
24273SOL     OW74715   2.406  10.844   8.375
24273SOL    HW174716   2.369  10.756   8.370
24273SOL    HW274717   2.337  10.897   8.416
24274SOL     OW74718   0.062   2.400   6.145
24274SOL    HW174719   0.104   2.317   6.123
24274SOL    HW274720   0.045   2.442   6.061
24275SOL     OW74721  11.554  11.751  14.095
24275SOL    HW174722  11.616  11.823  14.096
24275SOL    HW274723  11.523  11.747  14.005
24276SOL     OW74724  14.796   9.309   5.973
24276SOL    HW174725  14.815   9.323   5.880
24276SOL    HW274726   0.005   9.340   6.018
24277SOL     OW74727   8.227   6.292   7.254
24277SOL    HW174728   8.278   6.255   7.326
24277SOL    HW274729   8.282   6.279   7.176
24278SOL     OW74730  13.348   1.803  11.289
24278SOL    HW174731  13.440   1.829  11.299
24278SOL    HW274732  13.300   1.863  11.346
24279SOL     OW74733  10.321  11.679  13.070
24279SOL    HW174734  10.311  11.764  13.113
24279SOL    HW274735  10.247  11.626  13.103
24280SOL     OW74736   3.846   9.470  14.184
24280SOL    HW174737   3.855   9.384  14.144
24280SOL    HW274738   3.763   9.465  14.233
24281SOL     OW74739   1.527  12.294   2.198
24281SOL    HW174740   1.542  12.345   2.119
24281SOL    HW274741   1.587  12.332   2.263
24282SOL     OW74742  14.543  13.639  12.262
24282SOL    HW174743  14.476  13.571  12.269
24282SOL    HW274744  14.597  13.628  12.340
24283SOL     OW74745   2.524   1.078   8.962
24283SOL    HW174746   2.494   1.006   8.907
24283SOL    HW274747   2.486   1.059   9.048
24284SOL     OW74748   1.097   3.694   3.397
24284SOL    HW174749   1.004   3.680   3.416
24284SOL    HW274750   1.137   3.708   3.483
24285SOL     OW74751  13.187   0.368  14.374
24285SOL    HW174752  13.225   0.414  14.300
24285SOL    HW274753  13.176   0.435  14.441
24286SOL     OW74754  12.973   5.524  11.450
24286SOL    HW174755  12.915   5.584  11.402
24286SOL    HW274756  13.058   5.567  11.448
24287SOL     OW74757   3.916   9.019   1.642
24287SOL    HW174758   3.934   8.926   1.634
24287SOL    HW274759   3.828   9.024   1.678
24288SOL     OW74760   8.439  10.587   8.157
24288SOL    HW174761   8.463  10.510   8.209
24288SOL    HW274762   8.343  10.587   8.158
24289SOL     OW74763  13.530   0.264   1.425
24289SOL    HW174764  13.594   0.301   1.365
24289SOL    HW274765  13.446   0.278   1.381
24290SOL     OW74766   3.277  14.588  13.148
24290SOL    HW174767   3.248  14.678  13.164
24290SOL    HW274768   3.217  14.555  13.082
24291SOL     OW74769   9.881   1.378   4.785
24291SOL    HW174770   9.939   1.378   4.861
24291SOL    HW274771   9.874   1.286   4.760
24292SOL     OW74772   3.541   3.591   1.368
24292SOL    HW174773   3.516   3.656   1.303
24292SOL    HW274774   3.623   3.624   1.404
24293SOL     OW74775  10.075   4.013   3.587
24293SOL    HW174776  10.020   4.009   3.665
24293SOL    HW274777  10.049   4.094   3.543
24294SOL     OW74778   8.235   7.877   9.800
24294SOL    HW174779   8.205   7.968   9.803
24294SOL    HW274780   8.200   7.838   9.880
24295SOL     OW74781   4.254   6.313   5.660
24295SOL    HW174782   4.197   6.368   5.712
24295SOL    HW274783   4.273   6.238   5.716
24296SOL     OW74784   3.543  11.216   7.177
24296SOL    HW174785   3.516  11.134   7.218
24296SOL    HW274786   3.461  11.263   7.160
24297SOL     OW74787   4.674   6.918   9.031
24297SOL    HW174788   4.760   6.881   9.008
24297SOL    HW274789   4.652   6.875   9.114
24298SOL     OW74790   9.526   1.086   6.786
24298SOL    HW174791   9.522   1.063   6.878
24298SOL    HW274792   9.547   1.004   6.742
24299SOL     OW74793   9.432   4.094   0.335
24299SOL    HW174794   9.397   4.178   0.306
24299SOL    HW274795   9.377   4.029   0.290
24300SOL     OW74796  10.634   2.537   0.942
24300SOL    HW174797  10.563   2.480   0.913
24300SOL    HW274798  10.674   2.569   0.861
24301SOL     OW74799   1.735   5.836   6.895
24301SOL    HW174800   1.779   5.866   6.974
24301SOL    HW274801   1.680   5.910   6.868
24302SOL     OW74802   5.394  10.303  14.742
24302SOL    HW174803   5.468  10.311  14.803
24302SOL    HW274804   5.397  10.212  14.713
24303SOL     OW74805  12.014   8.647   9.459
24303SOL    HW174806  11.972   8.589   9.395
24303SOL    HW274807  12.055   8.715   9.406
24304SOL     OW74808   9.531   6.014   7.074
24304SOL    HW174809   9.437   6.024   7.057
24304SOL    HW274810   9.535   5.956   7.149
24305SOL     OW74811  14.839   7.183   9.474
24305SOL    HW174812   0.060   7.203   9.497
24305SOL    HW274813  14.836   7.088   9.468
24306SOL     OW74814   5.687  11.613   4.088
24306SOL    HW174815   5.628  11.671   4.136
24306SOL    HW274816   5.740  11.570   4.155
24307SOL     OW74817   3.990   0.810  14.286
24307SOL    HW174818   4.076   0.798  14.245
24307SOL    HW274819   3.994   0.897  14.325
24308SOL     OW74820  11.553   3.277   7.653
24308SOL    HW174821  11.628   3.261   7.595
24308SOL    HW274822  11.509   3.353   7.615
24309SOL     OW74823   3.478  11.855   2.859
24309SOL    HW174824   3.554  11.912   2.866
24309SOL    HW274825   3.406  11.907   2.895
24310SOL     OW74826  12.469   4.989   9.571
24310SOL    HW174827  12.515   4.946   9.499
24310SOL    HW274828  12.486   4.933   9.647
24311SOL     OW74829  12.108  14.053   3.947
24311SOL    HW174830  12.191  14.092   3.920
24311SOL    HW274831  12.066  14.028   3.864
24312SOL     OW74832   3.829  12.587   9.054
24312SOL    HW174833   3.765  12.654   9.077
24312SOL    HW274834   3.906  12.636   9.024
24313SOL     OW74835  10.978  11.642   7.941
24313SOL    HW174836  11.054  11.675   7.988
24313SOL    HW274837  11.012  11.573   7.885
24314SOL     OW74838   9.679  10.178  12.246
24314SOL    HW174839   9.732  10.255  12.267
24314SOL    HW274840   9.650  10.193  12.156
24315SOL     OW74841   6.077  14.454  10.960
24315SOL    HW174842   6.103  14.470  11.051
24315SOL    HW274843   6.024  14.375  10.964
24316SOL     OW74844   7.277  13.771  12.381
24316SOL    HW174845   7.313  13.860  12.375
24316SOL    HW274846   7.353  13.715  12.392
24317SOL     OW74847   3.214   0.253   2.733
24317SOL    HW174848   3.124   0.276   2.758
24317SOL    HW274849   3.208   0.161   2.707
24318SOL     OW74850  13.024   0.135   7.918
24318SOL    HW174851  13.099   0.075   7.913
24318SOL    HW274852  12.953   0.089   7.874
24319SOL     OW74853   1.158   6.513  13.688
24319SOL    HW174854   1.212   6.450  13.639
24319SOL    HW274855   1.089   6.459  13.727
24320SOL     OW74856  12.714  12.782  12.043
24320SOL    HW174857  12.756  12.796  11.958
24320SOL    HW274858  12.781  12.738  12.096
24321SOL     OW74859   7.583   8.018   1.872
24321SOL    HW174860   7.605   8.005   1.964
24321SOL    HW274861   7.659   8.060   1.834
24322SOL     OW74862   2.313   1.458   4.089
24322SOL    HW174863   2.329   1.398   4.016
24322SOL    HW274864   2.364   1.422   4.161
24323SOL     OW74865   3.479   4.637   3.207
24323SOL    HW174866   3.519   4.554   3.179
24323SOL    HW274867   3.541   4.674   3.269
24324SOL     OW74868  13.334  13.632  11.306
24324SOL    HW174869  13.402  13.564  11.300
24324SOL    HW274870  13.272  13.610  11.236
24325SOL     OW74871  12.965   9.451  11.662
24325SOL    HW174872  12.890   9.510  11.662
24325SOL    HW274873  13.027   9.490  11.724
24326SOL     OW74874   6.884  10.432  10.590
24326SOL    HW174875   6.951  10.452  10.525
24326SOL    HW274876   6.801  10.441  10.543
24327SOL     OW74877  14.296   8.868  11.417
24327SOL    HW174878  14.356   8.848  11.345
24327SOL    HW274879  14.346   8.929  11.472
24328SOL     OW74880   2.404   9.946   3.392
24328SOL    HW174881   2.334   9.959   3.456
24328SOL    HW274882   2.482   9.984   3.433
24329SOL     OW74883   3.604  12.661   0.538
24329SOL    HW174884   3.531  12.640   0.597
24329SOL    HW274885   3.565  12.716   0.470
24330SOL     OW74886   5.405   4.178   9.188
24330SOL    HW174887   5.405   4.111   9.121
24330SOL    HW274888   5.317   4.175   9.226
24331SOL     OW74889   1.727   3.339   5.537
24331SOL    HW174890   1.743   3.278   5.610
24331SOL    HW274891   1.675   3.288   5.475
24332SOL     OW74892   3.777   4.583  10.994
24332SOL    HW174893   3.843   4.646  11.023
24332SOL    HW274894   3.696   4.634  10.990
24333SOL     OW74895  13.495   4.560   6.486
24333SOL    HW174896  13.411   4.536   6.448
24333SOL    HW274897  13.559   4.543   6.417
24334SOL     OW74898  12.186  11.504   0.298
24334SOL    HW174899  12.237  11.457   0.363
24334SOL    HW274900  12.247  11.568   0.261
24335SOL     OW74901   7.487  10.808   6.000
24335SOL    HW174902   7.520  10.866   6.068
24335SOL    HW274903   7.434  10.865   5.944
24336SOL     OW74904   7.594   6.421  14.092
24336SOL    HW174905   7.649   6.362  14.145
24336SOL    HW274906   7.631   6.414  14.004
24337SOL     OW74907  12.299  14.560   1.748
24337SOL    HW174908  12.212  14.590   1.723
24337SOL    HW274909  12.312  14.593   1.837
24338SOL     OW74910   7.869   4.178   8.563
24338SOL    HW174911   7.838   4.191   8.473
24338SOL    HW274912   7.848   4.260   8.607
24339SOL     OW74913   1.736  13.718  14.867
24339SOL    HW174914   1.729  13.759  14.780
24339SOL    HW274915   1.647  13.723   0.033
24340SOL     OW74916  12.027   2.618  14.084
24340SOL    HW174917  12.085   2.615  14.159
24340SOL    HW274918  12.034   2.531  14.045
24341SOL     OW74919   6.604  14.693   9.382
24341SOL    HW174920   6.530  14.722   9.436
24341SOL    HW274921   6.648  14.628   9.437
24342SOL     OW74922  10.817   4.749  12.631
24342SOL    HW174923  10.838   4.681  12.695
24342SOL    HW274924  10.802   4.701  12.550
24343SOL     OW74925   3.094   4.689  10.809
24343SOL    HW174926   3.096   4.773  10.856
24343SOL    HW274927   3.060   4.712  10.722
24344SOL     OW74928  13.840   2.305   8.634
24344SOL    HW174929  13.857   2.266   8.720
24344SOL    HW274930  13.787   2.240   8.588
24345SOL     OW74931   4.550   3.256  12.992
24345SOL    HW174932   4.480   3.191  12.985
24345SOL    HW274933   4.629   3.205  13.007
24346SOL     OW74934   9.379  12.628   3.375
24346SOL    HW174935   9.459  12.643   3.426
24346SOL    HW274936   9.396  12.547   3.326
24347SOL     OW74937   3.552  12.013  10.743
24347SOL    HW174938   3.517  12.058  10.666
24347SOL    HW274939   3.485  11.948  10.765
24348SOL     OW74940   6.343   1.669  12.154
24348SOL    HW174941   6.357   1.628  12.069
24348SOL    HW274942   6.366   1.761  12.140
24349SOL     OW74943  13.989   9.633   1.160
24349SOL    HW174944  13.950   9.546   1.151
24349SOL    HW274945  13.915   9.692   1.170
24350SOL     OW74946  13.154   6.046  12.678
24350SOL    HW174947  13.146   5.970  12.734
24350SOL    HW274948  13.210   6.107  12.726
24351SOL     OW74949  10.856   7.390   0.817
24351SOL    HW174950  10.878   7.337   0.894
24351SOL    HW274951  10.934   7.444   0.802
24352SOL     OW74952   0.059   3.736  10.579
24352SOL    HW174953   0.083   3.800  10.645
24352SOL    HW274954   0.106   3.656  10.604
24353SOL     OW74955   2.598  10.565   7.986
24353SOL    HW174956   2.566  10.565   8.076
24353SOL    HW274957   2.568  10.648   7.949
24354SOL     OW74958  11.555   0.178  11.918
24354SOL    HW174959  11.529   0.115  11.986
24354SOL    HW274960  11.646   0.200  11.938
24355SOL     OW74961   3.342  11.942  10.920
24355SOL    HW174962   3.264  11.966  10.869
24355SOL    HW274963   3.358  12.018  10.976
24356SOL     OW74964  14.828   5.797   1.887
24356SOL    HW174965  14.777   5.874   1.862
24356SOL    HW274966  14.862   5.763   1.804
24357SOL     OW74967  10.395   8.232  14.404
24357SOL    HW174968  10.484   8.196  14.408
24357SOL    HW274969  10.352   8.182  14.335
24358SOL     OW74970   9.006   7.815   5.540
24358SOL    HW174971   9.065   7.870   5.592
24358SOL    HW274972   8.930   7.871   5.525
24359SOL     OW74973  13.589   5.304   0.509
24359SOL    HW174974  13.647   5.267   0.443
24359SOL    HW274975  13.540   5.372   0.463
24360SOL     OW74976   5.696  12.483   1.053
24360SOL    HW174977   5.672  12.474   0.961
24360SOL    HW274978   5.781  12.526   1.051
24361SOL     OW74979   4.631  10.188   3.439
24361SOL    HW174980   4.545  10.208   3.476
24361SOL    HW274981   4.675  10.136   3.507
24362SOL     OW74982  13.273   5.368   5.742
24362SOL    HW174983  13.220   5.443   5.716
24362SOL    HW274984  13.357   5.383   5.698
24363SOL     OW74985   8.968   7.149   1.700
24363SOL    HW174986   8.992   7.087   1.632
24363SOL    HW274987   8.986   7.102   1.782
24364SOL     OW74988   6.715   4.382  10.869
24364SOL    HW174989   6.746   4.373  10.779
24364SOL    HW274990   6.709   4.477  10.882
24365SOL     OW74991   2.501  14.784   7.946
24365SOL    HW174992   2.456  14.859   7.909
24365SOL    HW274993   2.507  14.721   7.874
24366SOL     OW74994  12.961  10.699  14.090
24366SOL    HW174995  12.997  10.718  14.177
24366SOL    HW274996  12.875  10.740  14.090
24367SOL     OW74997   7.576   4.469   4.076
24367SOL    HW174998   7.516   4.443   4.006
24367SOL    HW274999   7.540   4.428   4.155
24368SOL     OW75000  12.539   8.546   1.018
24368SOL    HW175001  12.477   8.521   1.087
24368SOL    HW275002  12.600   8.606   1.061
24369SOL     OW75003   7.077  12.568  14.329
24369SOL    HW175004   7.132  12.589  14.404
24369SOL    HW275005   7.000  12.525  14.367
24370SOL     OW75006   3.576   0.104   5.019
24370SOL    HW175007   3.629   0.093   4.940
24370SOL    HW275008   3.605   0.034   5.077
24371SOL     OW75009   5.590   7.446  11.188
24371SOL    HW175010   5.596   7.375  11.251
24371SOL    HW275011   5.504   7.484  11.202
24372SOL     OW75012   2.932   2.267  13.050
24372SOL    HW175013   2.991   2.226  13.114
24372SOL    HW275014   2.911   2.352  13.088
24373SOL     OW75015   6.749   0.844   2.621
24373SOL    HW175016   6.791   0.845   2.707
24373SOL    HW275017   6.805   0.899   2.566
24374SOL     OW75018   2.485   8.523   4.310
24374SOL    HW175019   2.416   8.475   4.356
24374SOL    HW275020   2.565   8.502   4.358
24375SOL     OW75021   5.343  14.373   2.252
24375SOL    HW175022   5.372  14.299   2.198
24375SOL    HW275023   5.356  14.342   2.342
24376SOL     OW75024  14.607   7.510   2.352
24376SOL    HW175025  14.572   7.509   2.263
24376SOL    HW275026  14.529   7.500   2.408
24377SOL     OW75027   3.748   0.467   2.196
24377SOL    HW175028   3.746   0.504   2.284
24377SOL    HW275029   3.839   0.441   2.182
24378SOL     OW75030   9.491   0.681  10.114
24378SOL    HW175031   9.447   0.714  10.192
24378SOL    HW275032   9.420   0.668  10.050
24379SOL     OW75033   3.534  11.192   2.514
24379SOL    HW175034   3.520  11.171   2.607
24379SOL    HW275035   3.486  11.123   2.467
24380SOL     OW75036   2.998   5.707   3.680
24380SOL    HW175037   3.033   5.627   3.640
24380SOL    HW275038   3.073   5.766   3.686
24381SOL     OW75039   2.400   4.408  12.164
24381SOL    HW175040   2.326   4.398  12.104
24381SOL    HW275041   2.473   4.431  12.107
24382SOL     OW75042   8.355   6.211  14.712
24382SOL    HW175043   8.338   6.128  14.756
24382SOL    HW275044   8.268   6.250  14.701
24383SOL     OW75045   2.676   4.939   0.494
24383SOL    HW175046   2.582   4.959   0.487
24383SOL    HW275047   2.683   4.881   0.569
24384SOL     OW75048   4.391   5.394   3.523
24384SOL    HW175049   4.465   5.335   3.538
24384SOL    HW275050   4.314   5.336   3.521
24385SOL     OW75051   9.982   6.658   3.999
24385SOL    HW175052   9.992   6.737   4.052
24385SOL    HW275053   9.918   6.605   4.046
24386SOL     OW75054   2.074  10.304  13.178
24386SOL    HW175055   2.153  10.253  13.194
24386SOL    HW275056   2.004  10.238  13.177
24387SOL     OW75057   4.054   5.274   4.376
24387SOL    HW175058   4.078   5.289   4.285
24387SOL    HW275059   4.082   5.354   4.421
24388SOL     OW75060  10.374   3.605   8.751
24388SOL    HW175061  10.430   3.671   8.710
24388SOL    HW275062  10.331   3.651   8.822
24389SOL     OW75063   9.402  13.096   7.440
24389SOL    HW175064   9.482  13.117   7.390
24389SOL    HW275065   9.368  13.181   7.466
24390SOL     OW75066   0.514  10.142   4.260
24390SOL    HW175067   0.526  10.047   4.268
24390SOL    HW275068   0.571  10.179   4.327
24391SOL     OW75069  12.630  10.035   7.498
24391SOL    HW175070  12.635  10.114   7.445
24391SOL    HW275071  12.582  10.062   7.576
24392SOL     OW75072   8.149  11.610  13.854
24392SOL    HW175073   8.210  11.663  13.803
24392SOL    HW275074   8.165  11.636  13.945
24393SOL     OW75075   0.524  14.780  10.137
24393SOL    HW175076   0.538  14.818  10.050
24393SOL    HW275077   0.562  14.844  10.197
24394SOL     OW75078   0.898   3.014   7.128
24394SOL    HW175079   0.849   3.082   7.082
24394SOL    HW275080   0.989   3.029   7.103
24395SOL     OW75081   0.491   7.258  13.890
24395SOL    HW175082   0.501   7.237  13.797
24395SOL    HW275083   0.422   7.199  13.920
24396SOL     OW75084   9.982   3.924  14.741
24396SOL    HW175085   9.951   3.945  14.830
24396SOL    HW275086   9.905   3.938  14.686
24397SOL     OW75087   0.525  14.598  10.647
24397SOL    HW175088   0.485  14.567  10.728
24397SOL    HW275089   0.456  14.590  10.581
24398SOL     OW75090  12.780   7.695   0.445
24398SOL    HW175091  12.690   7.727   0.447
24398SOL    HW275092  12.834   7.773   0.447
24399SOL     OW75093   5.484   2.287  12.998
24399SOL    HW175094   5.550   2.258  13.061
24399SOL    HW275095   5.419   2.334  13.051
24400SOL     OW75096   7.700  13.670  14.709
24400SOL    HW175097   7.770  13.669  14.643
24400SOL    HW275098   7.640  13.738  14.680
24401SOL     OW75099  12.017   7.447   8.358
24401SOL    HW175100  11.953   7.470   8.292
24401SOL    HW275101  11.976   7.376   8.408
24402SOL     OW75102  12.500  13.633  14.082
24402SOL    HW175103  12.415  13.623  14.041
24402SOL    HW275104  12.539  13.546  14.078
24403SOL     OW75105   3.216   2.255  14.528
24403SOL    HW175106   3.239   2.212  14.610
24403SOL    HW275107   3.198   2.182  14.467
24404SOL     OW75108  11.145   4.484   0.260
24404SOL    HW175109  11.100   4.423   0.317
24404SOL    HW275110  11.238   4.460   0.267
24405SOL     OW75111   5.538   9.956   5.928
24405SOL    HW175112   5.479  10.009   5.876
24405SOL    HW275113   5.599   9.918   5.865
24406SOL     OW75114  12.511   8.862   1.637
24406SOL    HW175115  12.542   8.817   1.715
24406SOL    HW275116  12.585   8.914   1.607
24407SOL     OW75117   1.038   0.737   8.827
24407SOL    HW175118   1.132   0.730   8.844
24407SOL    HW275119   1.022   0.679   8.753
24408SOL     OW75120  12.572  11.804   0.874
24408SOL    HW175121  12.580  11.868   0.945
24408SOL    HW275122  12.489  11.826   0.832
24409SOL     OW75123  12.123  13.310   1.381
24409SOL    HW175124  12.077  13.231   1.411
24409SOL    HW275125  12.169  13.342   1.458
24410SOL     OW75126   8.964   9.414   7.733
24410SOL    HW175127   9.058   9.407   7.752
24410SOL    HW275128   8.932   9.324   7.741
24411SOL     OW75129   8.368   1.265  10.459
24411SOL    HW175130   8.386   1.357  10.481
24411SOL    HW275131   8.349   1.267  10.365
24412SOL     OW75132   8.793  13.617   9.477
24412SOL    HW175133   8.884  13.589   9.480
24412SOL    HW275134   8.796  13.703   9.436
24413SOL     OW75135   3.394   0.053  14.043
24413SOL    HW175136   3.427   0.039  13.954
24413SOL    HW275137   3.470   0.041  14.099
24414SOL     OW75138  13.850   0.856   0.180
24414SOL    HW175139  13.896   0.907   0.113
24414SOL    HW275140  13.758   0.882   0.171
24415SOL     OW75141  12.126   4.658  12.471
24415SOL    HW175142  12.125   4.562  12.467
24415SOL    HW275143  12.217   4.680  12.493
24416SOL     OW75144  13.950   2.590   3.908
24416SOL    HW175145  13.947   2.617   3.817
24416SOL    HW275146  14.028   2.632   3.944
24417SOL     OW75147   2.505  10.072   5.029
24417SOL    HW175148   2.536  10.140   4.969
24417SOL    HW275149   2.465  10.007   4.971
24418SOL     OW75150  10.097   1.984   4.527
24418SOL    HW175151  10.167   2.035   4.568
24418SOL    HW275152  10.030   1.976   4.595
24419SOL     OW75153   5.573   2.758   4.160
24419SOL    HW175154   5.622   2.792   4.085
24419SOL    HW275155   5.630   2.690   4.196
24420SOL     OW75156  13.323   3.694   5.540
24420SOL    HW175157  13.232   3.666   5.530
24420SOL    HW275158  13.340   3.689   5.634
24421SOL     OW75159  11.250  14.592   1.959
24421SOL    HW175160  11.269  14.579   1.867
24421SOL    HW275161  11.161  14.627   1.961
24422SOL     OW75162  12.392  10.215   1.897
24422SOL    HW175163  12.329  10.154   1.859
24422SOL    HW275164  12.393  10.290   1.838
24423SOL     OW75165   7.992   8.831   1.395
24423SOL    HW175166   7.955   8.744   1.382
24423SOL    HW275167   8.081   8.825   1.361
24424SOL     OW75168   0.107  11.832   8.545
24424SOL    HW175169   0.104  11.773   8.470
24424SOL    HW275170   0.192  11.875   8.539
24425SOL     OW75171   9.663   9.391   7.538
24425SOL    HW175172   9.651   9.397   7.632
24425SOL    HW275173   9.733   9.454   7.518
24426SOL     OW75174  13.778   7.488   2.494
24426SOL    HW175175  13.798   7.410   2.443
24426SOL    HW275176  13.823   7.473   2.578
24427SOL     OW75177   9.983  12.307   0.243
24427SOL    HW175178   9.935  12.225   0.239
24427SOL    HW275179  10.034  12.310   0.162
24428SOL     OW75180   5.480  13.216   2.886
24428SOL    HW175181   5.472  13.311   2.894
24428SOL    HW275182   5.568  13.196   2.919
24429SOL     OW75183   8.412   7.727  10.130
24429SOL    HW175184   8.428   7.657  10.194
24429SOL    HW275185   8.457   7.803  10.166
24430SOL     OW75186  14.210  10.330  11.619
24430SOL    HW175187  14.146  10.314  11.689
24430SOL    HW275188  14.272  10.392  11.657
24431SOL     OW75189  12.388   2.757   3.261
24431SOL    HW175190  12.452   2.739   3.330
24431SOL    HW275191  12.405   2.690   3.194
24432SOL     OW75192  14.235   4.644   7.772
24432SOL    HW175193  14.143   4.652   7.799
24432SOL    HW275194  14.278   4.601   7.845
24433SOL     OW75195   7.262   7.174  13.358
24433SOL    HW175196   7.224   7.190  13.272
24433SOL    HW275197   7.335   7.115  13.341
24434SOL     OW75198   7.109   5.934  10.402
24434SOL    HW175199   7.141   5.843  10.400
24434SOL    HW275200   7.188   5.987  10.406
24435SOL     OW75201  10.184  13.501  10.564
24435SOL    HW175202  10.096  13.539  10.568
24435SOL    HW275203  10.183  13.431  10.630
24436SOL     OW75204   1.894   2.807   8.687
24436SOL    HW175205   1.979   2.777   8.720
24436SOL    HW275206   1.873   2.747   8.616
24437SOL     OW75207   8.845   5.788   2.315
24437SOL    HW175208   8.818   5.850   2.248
24437SOL    HW275209   8.763   5.761   2.357
24438SOL     OW75210  14.393  10.394  10.094
24438SOL    HW175211  14.427  10.318  10.142
24438SOL    HW275212  14.314  10.419  10.141
24439SOL     OW75213   8.085   1.686   7.238
24439SOL    HW175214   8.111   1.693   7.330
24439SOL    HW275215   8.162   1.714   7.189
24440SOL     OW75216  11.528   2.637  10.085
24440SOL    HW175217  11.477   2.605  10.011
24440SOL    HW275218  11.527   2.564  10.147
24441SOL     OW75219   3.415   2.971  14.724
24441SOL    HW175220   3.457   3.033  14.783
24441SOL    HW275221   3.335   3.016  14.696
24442SOL     OW75222  11.638  12.190   9.220
24442SOL    HW175223  11.632  12.284   9.205
24442SOL    HW275224  11.692  12.158   9.147
24443SOL     OW75225   9.834  11.755   8.599
24443SOL    HW175226   9.877  11.735   8.682
24443SOL    HW275227   9.814  11.670   8.561
24444SOL     OW75228   6.327   6.050   2.819
24444SOL    HW175229   6.319   6.010   2.905
24444SOL    HW275230   6.262   6.121   2.819
24445SOL     OW75231   5.428  14.135  11.487
24445SOL    HW175232   5.482  14.061  11.458
24445SOL    HW275233   5.464  14.159  11.572
24446SOL     OW75234   6.696   5.474   2.785
24446SOL    HW175235   6.732   5.516   2.707
24446SOL    HW275236   6.758   5.495   2.854
24447SOL     OW75237   9.102   9.791   0.982
24447SOL    HW175238   9.021   9.838   1.004
24447SOL    HW275239   9.146   9.847   0.919
24448SOL     OW75240   3.961  10.919   1.330
24448SOL    HW175241   3.941  11.010   1.310
24448SOL    HW275242   3.964  10.916   1.426
24449SOL     OW75243   3.388   8.927   3.694
24449SOL    HW175244   3.343   8.850   3.660
24449SOL    HW275245   3.340   9.002   3.659
24450SOL     OW75246   5.574  11.740   1.000
24450SOL    HW175247   5.495  11.786   1.029
24450SOL    HW275248   5.566  11.736   0.905
24451SOL     OW75249   9.268   2.658   7.783
24451SOL    HW175250   9.179   2.672   7.818
24451SOL    HW275251   9.282   2.731   7.724
24452SOL     OW75252   0.618   0.931   7.695
24452SOL    HW175253   0.693   0.979   7.661
24452SOL    HW275254   0.556   0.928   7.623
24453SOL     OW75255  11.123   9.734   9.541
24453SOL    HW175256  11.210   9.742   9.503
24453SOL    HW275257  11.063   9.759   9.471
24454SOL     OW75258   0.548  14.140  14.662
24454SOL    HW175259   0.522  14.182  14.744
24454SOL    HW275260   0.642  14.127  14.670
24455SOL     OW75261  10.393   7.180  10.392
24455SOL    HW175262  10.358   7.244  10.329
24455SOL    HW275263  10.356   7.096  10.365
24456SOL     OW75264  11.569   1.944   8.728
24456SOL    HW175265  11.561   1.897   8.811
24456SOL    HW275266  11.515   1.894   8.667
24457SOL     OW75267   0.588  14.006  13.117
24457SOL    HW175268   0.661  14.058  13.082
24457SOL    HW275269   0.548  13.967  13.039
24458SOL     OW75270   5.764   4.782   5.796
24458SOL    HW175271   5.833   4.783   5.863
24458SOL    HW275272   5.776   4.698   5.751
24459SOL     OW75273  11.796   1.098   6.486
24459SOL    HW175274  11.808   1.026   6.549
24459SOL    HW275275  11.884   1.134   6.475
24460SOL     OW75276   0.954   9.204   2.138
24460SOL    HW175277   0.955   9.280   2.079
24460SOL    HW275278   0.902   9.138   2.092
24461SOL     OW75279  10.038  10.862  12.860
24461SOL    HW175280  10.070  10.800  12.794
24461SOL    HW275281  10.018  10.808  12.937
24462SOL     OW75282   4.653  10.359   3.177
24462SOL    HW175283   4.640  10.316   3.262
24462SOL    HW275284   4.654  10.287   3.114
24463SOL     OW75285   3.401   3.588  13.381
24463SOL    HW175286   3.330   3.652  13.381
24463SOL    HW275287   3.476   3.634  13.418
24464SOL     OW75288   7.799   2.935  11.014
24464SOL    HW175289   7.723   2.888  10.979
24464SOL    HW275290   7.812   2.898  11.101
24465SOL     OW75291   9.266   6.687   2.065
24465SOL    HW175292   9.223   6.606   2.092
24465SOL    HW275293   9.257   6.745   2.141
24466SOL     OW75294   9.364  12.282   8.431
24466SOL    HW175295   9.458  12.269   8.418
24466SOL    HW275296   9.356  12.374   8.456
24467SOL     OW75297   5.392  12.827   6.906
24467SOL    HW175298   5.377  12.913   6.943
24467SOL    HW275299   5.465  12.791   6.957
24468SOL     OW75300   7.647   8.557   3.374
24468SOL    HW175301   7.639   8.488   3.440
24468SOL    HW275302   7.732   8.540   3.332
24469SOL     OW75303   9.970  13.853  14.064
24469SOL    HW175304  10.062  13.862  14.040
24469SOL    HW275305   9.970  13.862  14.160
24470SOL     OW75306  12.987  11.782  14.548
24470SOL    HW175307  12.952  11.750  14.465
24470SOL    HW275308  12.951  11.870  14.557
24471SOL     OW75309   7.471   0.532   3.763
24471SOL    HW175310   7.412   0.570   3.829
24471SOL    HW275311   7.436   0.564   3.680
24472SOL     OW75312   9.508   7.269   1.005
24472SOL    HW175313   9.494   7.191   1.058
24472SOL    HW275314   9.576   7.318   1.051
24473SOL     OW75315  13.367   2.579  14.093
24473SOL    HW175316  13.301   2.526  14.048
24473SOL    HW275317  13.362   2.550  14.184
24474SOL     OW75318  12.460   1.257  11.328
24474SOL    HW175319  12.365   1.268  11.336
24474SOL    HW275320  12.471   1.211  11.244
24475SOL     OW75321  10.186   8.351  11.206
24475SOL    HW175322  10.155   8.417  11.144
24475SOL    HW275323  10.233   8.402  11.273
24476SOL     OW75324   3.298   7.804  14.009
24476SOL    HW175325   3.278   7.898  14.017
24476SOL    HW275326   3.368   7.789  14.072
24477SOL     OW75327   4.423  14.062  14.650
24477SOL    HW175328   4.453  14.124  14.584
24477SOL    HW275329   4.344  14.102  14.687
24478SOL     OW75330  13.424   2.259  14.276
24478SOL    HW175331  13.329   2.264  14.287
24478SOL    HW275332  13.445   2.167  14.292
24479SOL     OW75333   6.870   7.057   3.982
24479SOL    HW175334   6.904   6.969   3.996
24479SOL    HW275335   6.819   7.076   4.061
24480SOL     OW75336   1.605   5.063   3.413
24480SOL    HW175337   1.623   5.093   3.324
24480SOL    HW275338   1.688   5.073   3.459
24481SOL     OW75339   0.831  11.306   4.883
24481SOL    HW175340   0.795  11.218   4.885
24481SOL    HW275341   0.756  11.363   4.898
24482SOL     OW75342  11.736   4.203   7.821
24482SOL    HW175343  11.682   4.176   7.896
24482SOL    HW275344  11.683   4.179   7.744
24483SOL     OW75345   9.923  13.362   7.280
24483SOL    HW175346   9.873  13.287   7.246
24483SOL    HW275347   9.902  13.365   7.373
24484SOL     OW75348   3.686   8.495  12.415
24484SOL    HW175349   3.653   8.517  12.328
24484SOL    HW275350   3.766   8.546  12.424
24485SOL     OW75351   0.758   1.866   4.789
24485SOL    HW175352   0.717   1.780   4.796
24485SOL    HW275353   0.729   1.913   4.867
24486SOL     OW75354   0.678   1.040   0.261
24486SOL    HW175355   0.623   1.107   0.301
24486SOL    HW275356   0.631   0.958   0.276
24487SOL     OW75357  10.087   5.310   0.256
24487SOL    HW175358  10.135   5.267   0.185
24487SOL    HW275359  10.073   5.241   0.321
24488SOL     OW75360   9.688  14.820  11.792
24488SOL    HW175361   9.779  14.820  11.822
24488SOL    HW275362   9.667  14.727  11.780
24489SOL     OW75363  10.390   3.579   5.201
24489SOL    HW175364  10.371   3.664   5.162
24489SOL    HW275365  10.346   3.516   5.144
24490SOL     OW75366  12.989   0.841  12.103
24490SOL    HW175367  13.081   0.827  12.128
24490SOL    HW275368  12.947   0.756  12.117
24491SOL     OW75369  10.898  14.741   9.078
24491SOL    HW175370  10.869  14.665   9.028
24491SOL    HW275371  10.937  14.800   9.014
24492SOL     OW75372   0.225   1.204   5.016
24492SOL    HW175373   0.188   1.284   4.980
24492SOL    HW275374   0.160   1.174   5.080
24493SOL     OW75375  13.887   7.269  12.184
24493SOL    HW175376  13.963   7.322  12.162
24493SOL    HW275377  13.884   7.201  12.116
24494SOL     OW75378  10.322   0.760   8.031
24494SOL    HW175379  10.283   0.695   7.972
24494SOL    HW275380  10.387   0.805   7.977
24495SOL     OW75381  12.347   9.112   6.125
24495SOL    HW175382  12.377   9.043   6.183
24495SOL    HW275383  12.365   9.080   6.037
24496SOL     OW75384   6.011  11.082   9.772
24496SOL    HW175385   6.005  11.157   9.831
24496SOL    HW275386   5.921  11.067   9.743
24497SOL     OW75387   8.570  14.153  11.771
24497SOL    HW175388   8.595  14.129  11.682
24497SOL    HW275389   8.507  14.224  11.759
24498SOL     OW75390   1.534   2.488   6.426
24498SOL    HW175391   1.473   2.559   6.405
24498SOL    HW275392   1.481   2.423   6.472
24499SOL     OW75393   3.861   7.853   2.579
24499SOL    HW175394   3.906   7.883   2.500
24499SOL    HW275395   3.925   7.800   2.625
24500SOL     OW75396   6.549   5.190   1.617
24500SOL    HW175397   6.503   5.268   1.586
24500SOL    HW275398   6.584   5.150   1.538
24501SOL     OW75399   7.937  14.816   2.352
24501SOL    HW175400   7.906   0.009   2.287
24501SOL    HW275401   7.981  14.869   2.419
24502SOL     OW75402   8.952  11.054  14.616
24502SOL    HW175403   8.873  11.001  14.625
24502SOL    HW275404   8.993  11.022  14.535
24503SOL     OW75405   1.017   8.348   2.260
24503SOL    HW175406   0.935   8.374   2.219
24503SOL    HW275407   1.000   8.349   2.354
24504SOL     OW75408   6.271   7.871  10.728
24504SOL    HW175409   6.299   7.780  10.738
24504SOL    HW275410   6.213   7.870  10.651
24505SOL     OW75411   4.290   4.274  11.981
24505SOL    HW175412   4.343   4.353  11.990
24505SOL    HW275413   4.310   4.222  12.059
24506SOL     OW75414  12.576   7.949  11.905
24506SOL    HW175415  12.570   7.967  11.999
24506SOL    HW275416  12.489   7.918  11.881
24507SOL     OW75417   3.481   4.319   3.243
24507SOL    HW175418   3.574   4.324   3.219
24507SOL    HW275419   3.481   4.281   3.331
24508SOL     OW75420   4.829   7.163   5.969
24508SOL    HW175421   4.849   7.162   6.063
24508SOL    HW275422   4.847   7.074   5.940
24509SOL     OW75423   6.889   0.324  11.952
24509SOL    HW175424   6.883   0.415  11.923
24509SOL    HW275425   6.802   0.288  11.933
24510SOL     OW75426   4.930   5.012   7.294
24510SOL    HW175427   4.951   4.921   7.313
24510SOL    HW275428   4.937   5.056   7.378
24511SOL     OW75429   1.952   8.798  13.321
24511SOL    HW175430   1.980   8.884  13.354
24511SOL    HW275431   2.024   8.770  13.264
24512SOL     OW75432  10.963   5.184   6.664
24512SOL    HW175433  11.015   5.107   6.686
24512SOL    HW275434  10.875   5.150   6.649
24513SOL     OW75435   5.092  11.105   8.460
24513SOL    HW175436   5.152  11.039   8.424
24513SOL    HW275437   5.144  11.186   8.462
24514SOL     OW75438  12.323   7.674   2.550
24514SOL    HW175439  12.260   7.725   2.601
24514SOL    HW275440  12.310   7.704   2.460
24515SOL     OW75441   5.676   6.478   0.313
24515SOL    HW175442   5.656   6.414   0.244
24515SOL    HW275443   5.673   6.428   0.394
24516SOL     OW75444  13.325   4.681   7.245
24516SOL    HW175445  13.331   4.587   7.257
24516SOL    HW275446  13.415   4.713   7.259
24517SOL     OW75447   1.083  14.452   5.946
24517SOL    HW175448   1.091  14.536   5.901
24517SOL    HW275449   1.022  14.401   5.893
24518SOL     OW75450  12.795   2.238   4.920
24518SOL    HW175451  12.703   2.220   4.904
24518SOL    HW275452  12.796   2.305   4.988
24519SOL     OW75453  12.468   5.627  14.297
24519SOL    HW175454  12.445   5.640  14.389
24519SOL    HW275455  12.385   5.604  14.254
24520SOL     OW75456   1.334   5.158   9.545
24520SOL    HW175457   1.258   5.186   9.596
24520SOL    HW275458   1.332   5.063   9.550
24521SOL     OW75459   1.076   8.944  10.167
24521SOL    HW175460   1.169   8.964  10.175
24521SOL    HW275461   1.038   8.972  10.250
24522SOL     OW75462  10.857   4.034   4.473
24522SOL    HW175463  10.934   3.984   4.446
24522SOL    HW275464  10.786   3.998   4.419
24523SOL     OW75465   4.703  12.265   2.798
24523SOL    HW175466   4.666  12.186   2.839
24523SOL    HW275467   4.776  12.290   2.855
24524SOL     OW75468   6.836   9.828   6.712
24524SOL    HW175469   6.783   9.751   6.692
24524SOL    HW275470   6.822   9.886   6.637
24525SOL     OW75471   4.991   3.741   4.875
24525SOL    HW175472   4.911   3.731   4.823
24525SOL    HW275473   4.960   3.774   4.960
24526SOL     OW75474   1.093   5.789   8.733
24526SOL    HW175475   1.088   5.755   8.644
24526SOL    HW275476   1.178   5.832   8.737
24527SOL     OW75477  10.355   4.525   0.887
24527SOL    HW175478  10.292   4.453   0.885
24527SOL    HW275479  10.350   4.558   0.977
24528SOL     OW75480   7.832   3.224  13.018
24528SOL    HW175481   7.863   3.225  13.109
24528SOL    HW275482   7.905   3.259  12.967
24529SOL     OW75483   8.123  13.448   7.744
24529SOL    HW175484   8.186  13.412   7.807
24529SOL    HW275485   8.133  13.394   7.666
24530SOL     OW75486  14.271   1.377  13.105
24530SOL    HW175487  14.285   1.465  13.140
24530SOL    HW275488  14.184   1.353  13.136
24531SOL     OW75489   3.947  11.066   9.821
24531SOL    HW175490   3.867  11.112   9.797
24531SOL    HW275491   4.014  11.135   9.821
24532SOL     OW75492   5.061   4.068  12.305
24532SOL    HW175493   5.095   4.117  12.230
24532SOL    HW275494   5.044   3.980  12.271
24533SOL     OW75495   6.181   8.555   8.000
24533SOL    HW175496   6.203   8.547   8.093
24533SOL    HW275497   6.228   8.634   7.971
24534SOL     OW75498   1.447   8.705  12.466
24534SOL    HW175499   1.443   8.798  12.445
24534SOL    HW275500   1.412   8.699  12.555
24535SOL     OW75501   3.184   0.169  10.439
24535SOL    HW175502   3.222   0.148  10.524
24535SOL    HW275503   3.243   0.234  10.401
24536SOL     OW75504  14.571   4.904   2.209
24536SOL    HW175505  14.587   4.913   2.115
24536SOL    HW275506  14.586   4.811   2.227
24537SOL     OW75507  11.059  14.632   0.115
24537SOL    HW175508  11.091  14.626   0.025
24537SOL    HW275509  10.969  14.597   0.110
24538SOL     OW75510   2.577  10.140   5.292
24538SOL    HW175511   2.559  10.233   5.283
24538SOL    HW275512   2.550  10.101   5.209
24539SOL     OW75513  12.820   4.343   9.027
24539SOL    HW175514  12.737   4.300   9.007
24539SOL    HW275515  12.845   4.385   8.945
24540SOL     OW75516   5.345   0.851  13.608
24540SOL    HW175517   5.323   0.785  13.542
24540SOL    HW275518   5.429   0.821  13.645
24541SOL     OW75519   5.300  14.417   0.754
24541SOL    HW175520   5.357  14.349   0.718
24541SOL    HW275521   5.218  14.407   0.707
24542SOL     OW75522   8.598  12.321   3.990
24542SOL    HW175523   8.546  12.246   4.018
24542SOL    HW275524   8.613  12.307   3.897
24543SOL     OW75525  11.483  14.822   3.656
24543SOL    HW175526  11.498   0.028   3.713
24543SOL    HW275527  11.501  14.746   3.712
24544SOL     OW75528   8.076   9.429   5.808
24544SOL    HW175529   8.055   9.486   5.882
24544SOL    HW275530   8.038   9.345   5.831
24545SOL     OW75531  10.304   2.600   2.762
24545SOL    HW175532  10.393   2.566   2.771
24545SOL    HW275533  10.249   2.532   2.801
24546SOL     OW75534  14.447   2.687   0.890
24546SOL    HW175535  14.420   2.604   0.853
24546SOL    HW275536  14.369   2.742   0.887
24547SOL     OW75537  12.626  14.202   4.315
24547SOL    HW175538  12.721  14.208   4.325
24547SOL    HW275539  12.599  14.290   4.286
24548SOL     OW75540   2.506   4.166  11.747
24548SOL    HW175541   2.439   4.234  11.746
24548SOL    HW275542   2.551   4.177  11.663
24549SOL     OW75543   2.434   1.310   3.880
24549SOL    HW175544   2.348   1.272   3.866
24549SOL    HW275545   2.481   1.296   3.798
24550SOL     OW75546   4.414   3.519  11.762
24550SOL    HW175547   4.371   3.600  11.736
24550SOL    HW275548   4.370   3.494  11.844
24551SOL     OW75549   9.773   8.292   8.373
24551SOL    HW175550   9.687   8.277   8.411
24551SOL    HW275551   9.764   8.373   8.321
24552SOL     OW75552  10.934  11.242   5.491
24552SOL    HW175553  10.853  11.203   5.523
24552SOL    HW275554  10.906  11.299   5.420
24553SOL     OW75555   1.806  12.736  10.235
24553SOL    HW175556   1.721  12.700  10.212
24553SOL    HW275557   1.859  12.725  10.157
24554SOL     OW75558  11.384  14.652   4.679
24554SOL    HW175559  11.294  14.684   4.669
24554SOL    HW275560  11.378  14.584   4.746
24555SOL     OW75561   9.081   8.489   8.557
24555SOL    HW175562   9.090   8.398   8.586
24555SOL    HW275563   8.998   8.491   8.510
24556SOL     OW75564  14.137   5.292  11.597
24556SOL    HW175565  14.137   5.381  11.562
24556SOL    HW275566  14.229   5.269  11.605
24557SOL     OW75567  14.290   9.282  11.721
24557SOL    HW175568  14.327   9.226  11.653
24557SOL    HW275569  14.221   9.332  11.677
24558SOL     OW75570   3.503   9.249   8.572
24558SOL    HW175571   3.517   9.344   8.566
24558SOL    HW275572   3.497   9.220   8.481
24559SOL     OW75573  13.875   6.220  11.636
24559SOL    HW175574  13.938   6.283  11.600
24559SOL    HW275575  13.911   6.134  11.613
24560SOL     OW75576  11.949  12.990   0.996
24560SOL    HW175577  11.940  12.922   0.929
24560SOL    HW275578  11.879  12.970   1.059
24561SOL     OW75579   9.772   3.974   3.469
24561SOL    HW175580   9.739   3.978   3.559
24561SOL    HW275581   9.841   4.041   3.466
24562SOL     OW75582   5.253   7.686   3.330
24562SOL    HW175583   5.281   7.600   3.362
24562SOL    HW275584   5.259   7.679   3.235
24563SOL     OW75585   0.312   3.468   5.781
24563SOL    HW175586   0.407   3.479   5.786
24563SOL    HW275587   0.298   3.417   5.701
24564SOL     OW75588  12.013   3.056  13.502
24564SOL    HW175589  11.978   3.140  13.532
24564SOL    HW275590  11.948   3.023  13.441
24565SOL     OW75591  11.498  14.136   8.622
24565SOL    HW175592  11.452  14.154   8.704
24565SOL    HW275593  11.440  14.077   8.574
24566SOL     OW75594  10.430   9.385   1.026
24566SOL    HW175595  10.493   9.379   0.955
24566SOL    HW275596  10.361   9.323   1.002
24567SOL     OW75597   6.217  11.362   7.188
24567SOL    HW175598   6.147  11.425   7.176
24567SOL    HW275599   6.292  11.399   7.141
24568SOL     OW75600  14.419  12.069   6.062
24568SOL    HW175601  14.365  12.143   6.090
24568SOL    HW275602  14.422  12.077   5.967
24569SOL     OW75603   6.310   1.483   0.568
24569SOL    HW175604   6.399   1.484   0.604
24569SOL    HW275605   6.265   1.554   0.614
24570SOL     OW75606   2.538   3.934  11.440
24570SOL    HW175607   2.516   4.025  11.423
24570SOL    HW275608   2.458   3.886  11.419
24571SOL     OW75609   5.199   9.238   8.784
24571SOL    HW175610   5.157   9.181   8.720
24571SOL    HW275611   5.166   9.326   8.763
24572SOL     OW75612   0.816   3.122   1.809
24572SOL    HW175613   0.849   3.035   1.832
24572SOL    HW275614   0.761   3.147   1.883
24573SOL     OW75615   8.799   8.264   9.702
24573SOL    HW175616   8.755   8.340   9.664
24573SOL    HW275617   8.839   8.296   9.782
24574SOL     OW75618   6.769   3.845   1.553
24574SOL    HW175619   6.688   3.861   1.602
24574SOL    HW275620   6.806   3.767   1.594
24575SOL     OW75621   8.661   0.385  10.413
24575SOL    HW175622   8.699   0.325  10.477
24575SOL    HW275623   8.599   0.331  10.364
24576SOL     OW75624   9.220   2.537  11.956
24576SOL    HW175625   9.304   2.519  11.999
24576SOL    HW275626   9.159   2.474  11.994
24577SOL     OW75627   2.709  10.661  14.300
24577SOL    HW175628   2.667  10.577  14.279
24577SOL    HW275629   2.639  10.725  14.286
24578SOL     OW75630  12.777   2.441  10.722
24578SOL    HW175631  12.798   2.352  10.749
24578SOL    HW275632  12.833   2.496  10.777
24579SOL     OW75633   2.616   8.752   8.647
24579SOL    HW175634   2.676   8.825   8.632
24579SOL    HW275635   2.576   8.772   8.732
24580SOL     OW75636  11.236   1.616  14.047
24580SOL    HW175637  11.280   1.534  14.023
24580SOL    HW275638  11.270   1.637  14.134
24581SOL     OW75639  12.060  10.864   7.853
24581SOL    HW175640  12.110  10.790   7.885
24581SOL    HW275641  12.092  10.939   7.904
24582SOL     OW75642  11.586   0.325   4.529
24582SOL    HW175643  11.652   0.377   4.483
24582SOL    HW275644  11.513   0.386   4.541
24583SOL     OW75645  13.774   7.369  14.725
24583SOL    HW175646  13.761   7.274  14.736
24583SOL    HW275647  13.798   7.378  14.633
24584SOL     OW75648  10.121   5.029  11.051
24584SOL    HW175649  10.029   5.016  11.027
24584SOL    HW275650  10.155   4.940  11.062
24585SOL     OW75651   8.864   9.164   3.602
24585SOL    HW175652   8.807   9.165   3.525
24585SOL    HW275653   8.818   9.217   3.667
24586SOL     OW75654  10.039  13.201  10.426
24586SOL    HW175655  10.083  13.217  10.343
24586SOL    HW275656   9.953  13.167  10.400
24587SOL     OW75657  12.834   1.964  14.560
24587SOL    HW175658  12.840   1.872  14.533
24587SOL    HW275659  12.819   1.961  14.654
24588SOL     OW75660   8.860  10.035   2.923
24588SOL    HW175661   8.870   9.973   2.851
24588SOL    HW275662   8.949  10.051   2.954
24589SOL     OW75663   1.866  12.022   2.010
24589SOL    HW175664   1.937  12.042   1.949
24589SOL    HW275665   1.906  11.964   2.075
24590SOL     OW75666   6.231   6.381   9.483
24590SOL    HW175667   6.222   6.469   9.447
24590SOL    HW275668   6.251   6.326   9.408
24591SOL     OW75669   7.429  14.109   0.052
24591SOL    HW175670   7.358  14.047   0.068
24591SOL    HW275671   7.425  14.169   0.126
24592SOL     OW75672  11.604   0.999   0.832
24592SOL    HW175673  11.553   0.968   0.757
24592SOL    HW275674  11.538   1.035   0.892
24593SOL     OW75675   6.815   6.449   2.724
24593SOL    HW175676   6.869   6.375   2.696
24593SOL    HW275677   6.751   6.460   2.654
24594SOL     OW75678   9.744   2.889  12.520
24594SOL    HW175679   9.748   2.876  12.614
24594SOL    HW275680   9.797   2.967  12.504
24595SOL     OW75681   0.909  11.653   1.071
24595SOL    HW175682   0.837  11.653   1.008
24595SOL    HW275683   0.962  11.729   1.047
24596SOL     OW75684   7.529  10.942   8.108
24596SOL    HW175685   7.520  11.002   8.182
24596SOL    HW275686   7.617  10.906   8.117
24597SOL     OW75687   6.085   1.666   0.402
24597SOL    HW175688   6.028   1.602   0.360
24597SOL    HW275689   6.134   1.705   0.330
24598SOL     OW75690   9.336  12.955  12.698
24598SOL    HW175691   9.327  12.884  12.635
24598SOL    HW275692   9.247  12.988  12.710
24599SOL     OW75693  11.344  11.745  14.602
24599SOL    HW175694  11.376  11.756  14.513
24599SOL    HW275695  11.253  11.777  14.599
24600SOL     OW75696  14.640   2.356   6.695
24600SOL    HW175697  14.632   2.265   6.723
24600SOL    HW275698  14.554   2.395   6.713
24601SOL     OW75699   2.569  11.933   2.767
24601SOL    HW175700   2.492  11.973   2.726
24601SOL    HW275701   2.533  11.873   2.833
24602SOL     OW75702  12.527  10.507  11.053
24602SOL    HW175703  12.468  10.580  11.034
24602SOL    HW275704  12.469  10.432  11.066
24603SOL     OW75705   1.720  11.368   5.647
24603SOL    HW175706   1.711  11.307   5.574
24603SOL    HW275707   1.633  11.372   5.687
24604SOL     OW75708  11.003  11.428   5.673
24604SOL    HW175709  11.013  11.355   5.611
24604SOL    HW275710  11.033  11.393   5.756
24605SOL     OW75711  13.725   2.630  12.020
24605SOL    HW175712  13.735   2.706  11.962
24605SOL    HW275713  13.631   2.610  12.017
24606SOL     OW75714  10.435  14.626   3.811
24606SOL    HW175715  10.485  14.687   3.757
24606SOL    HW275716  10.349  14.623   3.770
24607SOL     OW75717  14.153   8.059  13.911
24607SOL    HW175718  14.116   7.972  13.920
24607SOL    HW275719  14.100   8.102  13.843
24608SOL     OW75720   2.863  12.285   5.508
24608SOL    HW175721   2.826  12.239   5.583
24608SOL    HW275722   2.932  12.339   5.544
24609SOL     OW75723   1.936   2.301   6.354
24609SOL    HW175724   2.011   2.314   6.296
24609SOL    HW275725   1.901   2.390   6.368
24610SOL     OW75726   3.877   4.861   0.359
24610SOL    HW175727   3.854   4.945   0.320
24610SOL    HW275728   3.815   4.799   0.323
24611SOL     OW75729  11.579   8.971   4.994
24611SOL    HW175730  11.492   8.981   4.956
24611SOL    HW275731  11.574   8.890   5.045
24612SOL     OW75732  12.875   3.250   0.440
24612SOL    HW175733  12.963   3.215   0.452
24612SOL    HW275734  12.825   3.212   0.513
24613SOL     OW75735  12.669   2.446  11.726
24613SOL    HW175736  12.756   2.434  11.764
24613SOL    HW275737  12.671   2.395  11.645
24614SOL     OW75738   1.491  10.001   9.936
24614SOL    HW175739   1.449   9.958  10.011
24614SOL    HW275740   1.530   9.929   9.886
24615SOL     OW75741   7.762   2.784   4.715
24615SOL    HW175742   7.748   2.877   4.700
24615SOL    HW275743   7.836   2.780   4.775
24616SOL     OW75744   6.614   9.919   7.355
24616SOL    HW175745   6.563   9.895   7.432
24616SOL    HW275746   6.596   9.850   7.291
24617SOL     OW75747   1.511  13.275  10.127
24617SOL    HW175748   1.464  13.243  10.204
24617SOL    HW275749   1.602  13.247  10.141
24618SOL     OW75750   4.326   1.916   4.949
24618SOL    HW175751   4.340   1.976   5.022
24618SOL    HW275752   4.235   1.930   4.923
24619SOL     OW75753  11.866  12.476  13.558
24619SOL    HW175754  11.909  12.538  13.616
24619SOL    HW275755  11.877  12.512  13.470
24620SOL     OW75756   5.203  12.683   2.863
24620SOL    HW175757   5.246  12.608   2.823
24620SOL    HW275758   5.140  12.712   2.797
24621SOL     OW75759  13.081   6.334  13.419
24621SOL    HW175760  13.152   6.271  13.409
24621SOL    HW275761  13.022   6.295  13.484
24622SOL     OW75762  10.793   4.734   6.632
24622SOL    HW175763  10.869   4.677   6.638
24622SOL    HW275764  10.796   4.787   6.711
24623SOL     OW75765  12.030   1.847   2.959
24623SOL    HW175766  12.110   1.803   2.987
24623SOL    HW275767  11.965   1.776   2.953
24624SOL     OW75768  11.696   6.706   0.885
24624SOL    HW175769  11.715   6.799   0.886
24624SOL    HW275770  11.781   6.664   0.900
24625SOL     OW75771  11.596  14.271   0.521
24625SOL    HW175772  11.546  14.352   0.534
24625SOL    HW275773  11.657  14.268   0.595
24626SOL     OW75774   9.359  12.801   4.289
24626SOL    HW175775   9.427  12.782   4.354
24626SOL    HW275776   9.326  12.888   4.313
24627SOL     OW75777   4.703   6.396   5.391
24627SOL    HW175778   4.647   6.435   5.458
24627SOL    HW275779   4.663   6.311   5.372
24628SOL     OW75780  12.532  13.821   8.330
24628SOL    HW175781  12.557  13.875   8.405
24628SOL    HW275782  12.437  13.833   8.323
24629SOL     OW75783   5.972  11.553  11.202
24629SOL    HW175784   5.936  11.465  11.210
24629SOL    HW275785   6.053  11.551  11.251
24630SOL     OW75786   2.695   6.810   6.119
24630SOL    HW175787   2.607   6.795   6.084
24630SOL    HW275788   2.717   6.728   6.163
24631SOL     OW75789   9.192   4.057   4.903
24631SOL    HW175790   9.148   4.123   4.956
24631SOL    HW275791   9.217   4.104   4.823
24632SOL     OW75792   2.858   1.107  13.156
24632SOL    HW175793   2.897   1.175  13.100
24632SOL    HW275794   2.769   1.098  13.123
24633SOL     OW75795  13.740   0.700   6.089
24633SOL    HW175796  13.733   0.737   6.177
24633SOL    HW275797  13.791   0.764   6.040
24634SOL     OW75798   3.034   4.950   4.793
24634SOL    HW175799   2.954   4.978   4.838
24634SOL    HW275800   3.105   4.995   4.840
24635SOL     OW75801   4.630   9.826   5.659
24635SOL    HW175802   4.687   9.766   5.610
24635SOL    HW275803   4.671   9.834   5.745
24636SOL     OW75804   1.062  14.573  11.480
24636SOL    HW175805   1.124  14.622  11.533
24636SOL    HW275806   0.976  14.609  11.504
24637SOL     OW75807  11.455   4.801  14.244
24637SOL    HW175808  11.521   4.792  14.176
24637SOL    HW275809  11.503   4.796  14.327
24638SOL     OW75810   9.504   6.905   2.073
24638SOL    HW175811   9.535   6.892   1.984
24638SOL    HW275812   9.582   6.931   2.122
24639SOL     OW75813   7.380  12.668  10.885
24639SOL    HW175814   7.399  12.679  10.978
24639SOL    HW275815   7.376  12.758  10.851
24640SOL     OW75816   3.448   3.564   4.801
24640SOL    HW175817   3.444   3.637   4.738
24640SOL    HW275818   3.451   3.607   4.886
24641SOL     OW75819   8.895  12.612   1.961
24641SOL    HW175820   8.880  12.602   1.867
24641SOL    HW275821   8.833  12.680   1.988
24642SOL     OW75822   6.921   6.831  11.736
24642SOL    HW175823   6.971   6.750  11.728
24642SOL    HW275824   6.940   6.862  11.824
24643SOL     OW75825   5.342   8.058  10.065
24643SOL    HW175826   5.287   7.984  10.089
24643SOL    HW275827   5.309   8.086   9.980
24644SOL     OW75828   3.483   5.194   2.783
24644SOL    HW175829   3.475   5.256   2.710
24644SOL    HW275830   3.507   5.249   2.858
24645SOL     OW75831   3.276   7.467   8.019
24645SOL    HW175832   3.193   7.511   8.039
24645SOL    HW275833   3.315   7.450   8.105
24646SOL     OW75834  12.909   9.033  13.469
24646SOL    HW175835  12.993   9.053  13.427
24646SOL    HW275836  12.933   8.989  13.550
24647SOL     OW75837  14.214   4.265   5.176
24647SOL    HW175838  14.151   4.327   5.214
24647SOL    HW275839  14.190   4.260   5.084
24648SOL     OW75840  14.103   4.413  13.533
24648SOL    HW175841  14.157   4.462  13.470
24648SOL    HW275842  14.167   4.370  13.591
24649SOL     OW75843   6.426   5.965   2.444
24649SOL    HW175844   6.452   6.040   2.497
24649SOL    HW275845   6.332   5.955   2.461
24650SOL     OW75846   1.816   4.914   3.181
24650SOL    HW175847   1.857   4.891   3.264
24650SOL    HW275848   1.849   4.850   3.119
24651SOL     OW75849   2.922   8.441   5.354
24651SOL    HW175850   2.930   8.536   5.356
24651SOL    HW275851   2.867   8.420   5.430
24652SOL     OW75852   6.036   9.044   9.057
24652SOL    HW175853   5.976   9.101   9.008
24652SOL    HW275854   5.981   8.972   9.086
24653SOL     OW75855  14.395   4.322   8.763
24653SOL    HW175856  14.361   4.410   8.743
24653SOL    HW275857  14.490   4.333   8.760
24654SOL     OW75858   6.153   4.823   0.845
24654SOL    HW175859   6.127   4.762   0.914
24654SOL    HW275860   6.119   4.907   0.874
24655SOL     OW75861  13.921   2.606  10.374
24655SOL    HW175862  13.892   2.693  10.345
24655SOL    HW275863  13.852   2.575  10.432
24656SOL     OW75864   8.298  11.823   9.425
24656SOL    HW175865   8.391  11.804   9.425
24656SOL    HW275866   8.278  11.844   9.516
24657SOL     OW75867  14.183  11.528   9.044
24657SOL    HW175868  14.209  11.617   9.068
24657SOL    HW275869  14.148  11.536   8.955
24658SOL     OW75870  13.611  11.016   4.307
24658SOL    HW175871  13.632  11.010   4.400
24658SOL    HW275872  13.662  10.947   4.266
24659SOL     OW75873   2.883   5.697  13.728
24659SOL    HW175874   2.800   5.724  13.690
24659SOL    HW275875   2.940   5.680  13.653
24660SOL     OW75876   1.926   8.023  13.133
24660SOL    HW175877   1.914   8.117  13.125
24660SOL    HW275878   1.977   7.999  13.056
24661SOL     OW75879   1.188  11.057  14.514
24661SOL    HW175880   1.208  11.003  14.438
24661SOL    HW275881   1.138  11.130  14.479
24662SOL     OW75882  10.314  11.196   1.628
24662SOL    HW175883  10.371  11.146   1.687
24662SOL    HW275884  10.258  11.131   1.587
24663SOL     OW75885   1.474   6.418   9.891
24663SOL    HW175886   1.384   6.449   9.900
24663SOL    HW275887   1.495   6.381   9.977
24664SOL     OW75888   6.303   2.308   5.119
24664SOL    HW175889   6.303   2.365   5.196
24664SOL    HW275890   6.235   2.243   5.137
24665SOL     OW75891  14.444   4.258  10.612
24665SOL    HW175892  14.492   4.197  10.668
24665SOL    HW275893  14.410   4.324  10.672
24666SOL     OW75894   9.891   2.880   6.263
24666SOL    HW175895   9.968   2.927   6.231
24666SOL    HW275896   9.841   2.946   6.311
24667SOL     OW75897   6.124   7.511   1.214
24667SOL    HW175898   6.124   7.423   1.253
24667SOL    HW275899   6.209   7.548   1.240
24668SOL     OW75900  13.662   0.516  11.343
24668SOL    HW175901  13.641   0.438  11.292
24668SOL    HW275902  13.699   0.577  11.279
24669SOL     OW75903   3.209  10.201   6.095
24669SOL    HW175904   3.217  10.237   6.183
24669SOL    HW275905   3.135  10.140   6.101
24670SOL     OW75906   1.871  11.150   4.771
24670SOL    HW175907   1.856  11.137   4.865
24670SOL    HW275908   1.964  11.171   4.764
24671SOL     OW75909   9.390   6.125   0.507
24671SOL    HW175910   9.481   6.145   0.484
24671SOL    HW275911   9.384   6.148   0.600
24672SOL     OW75912   0.078   1.862  11.874
24672SOL    HW175913   0.016   1.802  11.916
24672SOL    HW275914   0.156   1.858  11.929
24673SOL     OW75915   1.978   6.742   4.084
24673SOL    HW175916   1.986   6.718   3.991
24673SOL    HW275917   1.922   6.673   4.121
24674SOL     OW75918   1.342  12.121  11.932
24674SOL    HW175919   1.261  12.091  11.972
24674SOL    HW275920   1.351  12.068  11.852
24675SOL     OW75921   7.872   5.937   2.511
24675SOL    HW175922   7.871   5.978   2.598
24675SOL    HW275923   7.924   5.997   2.457
24676SOL     OW75924   6.819   6.479   8.273
24676SOL    HW175925   6.732   6.446   8.292
24676SOL    HW275926   6.815   6.572   8.292
24677SOL     OW75927   5.656  10.658  11.633
24677SOL    HW175928   5.626  10.567  11.636
24677SOL    HW275929   5.677  10.679  11.725
24678SOL     OW75930   8.432   5.969  14.824
24678SOL    HW175931   8.458   5.899   0.015
24678SOL    HW275932   8.512   5.991  14.777
24679SOL     OW75933  12.951  13.052  13.927
24679SOL    HW175934  12.963  12.974  13.872
24679SOL    HW275935  12.894  13.023  13.998
24680SOL     OW75936   1.295  12.529  14.803
24680SOL    HW175937   1.341  12.449  14.780
24680SOL    HW275938   1.357  12.577  14.858
24681SOL     OW75939  12.775   3.939   1.541
24681SOL    HW175940  12.743   4.027   1.518
24681SOL    HW275941  12.725   3.915   1.619
24682SOL     OW75942   2.719  10.940   5.261
24682SOL    HW175943   2.761  10.894   5.188
24682SOL    HW275944   2.711  10.873   5.329
24683SOL     OW75945  13.117   2.809   3.856
24683SOL    HW175946  13.206   2.839   3.837
24683SOL    HW275947  13.061   2.885   3.837
24684SOL     OW75948  11.331  14.323  14.312
24684SOL    HW175949  11.379  14.379  14.251
24684SOL    HW275950  11.240  14.332  14.285
24685SOL     OW75951   4.739   0.530  12.647
24685SOL    HW175952   4.713   0.486  12.566
24685SOL    HW275953   4.719   0.467  12.717
24686SOL     OW75954  11.820   8.798  12.934
24686SOL    HW175955  11.862   8.780  12.850
24686SOL    HW275956  11.783   8.714  12.961
24687SOL     OW75957   6.211   3.446   1.713
24687SOL    HW175958   6.255   3.531   1.727
24687SOL    HW275959   6.209   3.435   1.618
24688SOL     OW75960   4.893  10.225   9.592
24688SOL    HW175961   4.946  10.242   9.670
24688SOL    HW275962   4.952  10.181   9.532
24689SOL     OW75963   2.255  11.448   2.483
24689SOL    HW175964   2.193  11.397   2.534
24689SOL    HW275965   2.304  11.383   2.432
24690SOL     OW75966  12.957  13.297   0.012
24690SOL    HW175967  12.954  13.235  14.809
24690SOL    HW275968  12.877  13.279   0.062
24691SOL     OW75969  13.198  10.324   7.656
24691SOL    HW175970  13.274  10.269   7.637
24691SOL    HW275971  13.165  10.292   7.740
24692SOL     OW75972   4.289   6.195  13.011
24692SOL    HW175973   4.254   6.277  12.975
24692SOL    HW275974   4.272   6.201  13.105
24693SOL     OW75975  10.008   9.357   0.508
24693SOL    HW175976  10.056   9.437   0.531
24693SOL    HW275977  10.022   9.346   0.414
24694SOL     OW75978  11.600  11.853   3.869
24694SOL    HW175979  11.661  11.846   3.942
24694SOL    HW275980  11.592  11.763   3.836
24695SOL     OW75981  11.062  13.293   3.648
24695SOL    HW175982  10.978  13.247   3.652
24695SOL    HW275983  11.119  13.233   3.599
24696SOL     OW75984   5.609   9.662  10.884
24696SOL    HW175985   5.632   9.691  10.972
24696SOL    HW275986   5.530   9.610  10.895
24697SOL     OW75987  10.461   8.107   5.328
24697SOL    HW175988  10.551   8.077   5.342
24697SOL    HW275989  10.440   8.158   5.406
24698SOL     OW75990   8.505   1.881   3.029
24698SOL    HW175991   8.577   1.858   3.088
24698SOL    HW275992   8.478   1.968   3.057
24699SOL     OW75993   4.528   8.190   8.261
24699SOL    HW175994   4.500   8.282   8.256
24699SOL    HW275995   4.604   8.185   8.203
24700SOL     OW75996   1.619   2.462   1.495
24700SOL    HW175997   1.609   2.553   1.469
24700SOL    HW275998   1.662   2.466   1.581
24701SOL     OW75999  11.420   0.313   6.077
24701SOL    HW176000  11.445   0.381   6.014
24701SOL    HW276001  11.500   0.297   6.128
24702SOL     OW76002   5.825   4.948   1.429
24702SOL    HW176003   5.837   4.951   1.523
24702SOL    HW276004   5.825   5.039   1.401
24703SOL     OW76005  13.727   0.389  10.587
24703SOL    HW176006  13.668   0.338  10.642
24703SOL    HW276007  13.786   0.323  10.548
24704SOL     OW76008   8.608  12.466  13.693
24704SOL    HW176009   8.641  12.530  13.630
24704SOL    HW276010   8.558  12.518  13.755
24705SOL     OW76011  14.661   4.427  14.331
24705SOL    HW176012  14.712   4.502  14.299
24705SOL    HW276013  14.697   4.409  14.418
24706SOL     OW76014  11.192   6.793   5.169
24706SOL    HW176015  11.101   6.821   5.169
24706SOL    HW276016  11.195   6.722   5.234
24707SOL     OW76017   5.377   9.216  14.074
24707SOL    HW176018   5.311   9.254  14.131
24707SOL    HW276019   5.459   9.257  14.102
24708SOL     OW76020   1.401   7.685   0.634
24708SOL    HW176021   1.342   7.714   0.704
24708SOL    HW276022   1.351   7.701   0.554
24709SOL     OW76023   0.320   4.443  10.200
24709SOL    HW176024   0.229   4.423  10.176
24709SOL    HW276025   0.353   4.496  10.127
24710SOL     OW76026  11.319   5.880  14.035
24710SOL    HW176027  11.274   5.890  14.119
24710SOL    HW276028  11.290   5.956  13.983
24711SOL     OW76029   4.822   1.968  11.860
24711SOL    HW176030   4.829   1.877  11.832
24711SOL    HW276031   4.744   1.970  11.915
24712SOL     OW76032   5.537   8.198   0.177
24712SOL    HW176033   5.504   8.287   0.191
24712SOL    HW276034   5.618   8.211   0.127
24713SOL     OW76035   7.111  12.227   8.740
24713SOL    HW176036   7.161  12.151   8.711
24713SOL    HW276037   7.020  12.205   8.721
24714SOL     OW76038   7.852   2.227   4.640
24714SOL    HW176039   7.844   2.210   4.734
24714SOL    HW276040   7.762   2.245   4.611
24715SOL     OW76041   4.565   0.298   1.467
24715SOL    HW176042   4.504   0.279   1.538
24715SOL    HW276043   4.535   0.381   1.430
24716SOL     OW76044   2.964   1.070   9.149
24716SOL    HW176045   2.898   1.118   9.099
24716SOL    HW276046   2.999   1.005   9.087
24717SOL     OW76047   5.955  12.745   6.214
24717SOL    HW176048   5.864  12.745   6.242
24717SOL    HW276049   5.967  12.829   6.169
24718SOL     OW76050  11.799  12.821   7.175
24718SOL    HW176051  11.765  12.869   7.250
24718SOL    HW276052  11.878  12.778   7.207
24719SOL     OW76053   6.909   8.399   0.692
24719SOL    HW176054   6.835   8.353   0.733
24719SOL    HW276055   6.932   8.467   0.756
24720SOL     OW76056  11.119   8.656  11.333
24720SOL    HW176057  11.072   8.707  11.399
24720SOL    HW276058  11.132   8.570  11.374
24721SOL     OW76059   5.302   5.773   4.192
24721SOL    HW176060   5.276   5.862   4.168
24721SOL    HW276061   5.265   5.760   4.279
24722SOL     OW76062   2.520   2.422  11.464
24722SOL    HW176063   2.560   2.344  11.502
24722SOL    HW276064   2.586   2.490  11.474
24723SOL     OW76065  12.952  13.170   1.090
24723SOL    HW176066  12.956  13.178   0.995
24723SOL    HW276067  13.033  13.126   1.114
24724SOL     OW76068   8.637  13.822   2.153
24724SOL    HW176069   8.631  13.914   2.128
24724SOL    HW276070   8.712  13.789   2.103
24725SOL     OW76071  13.776  10.732   5.920
24725SOL    HW176072  13.837  10.715   5.849
24725SOL    HW276073  13.830  10.768   5.990
24726SOL     OW76074  11.434   2.158   3.906
24726SOL    HW176075  11.414   2.065   3.918
24726SOL    HW276076  11.407   2.177   3.816
24727SOL     OW76077  14.841   6.848   1.710
24727SOL    HW176078  14.779   6.856   1.782
24727SOL    HW276079   0.032   6.780   1.739
24728SOL     OW76080   3.579   6.059   8.963
24728SOL    HW176081   3.597   5.975   8.922
24728SOL    HW276082   3.484   6.062   8.973
24729SOL     OW76083   8.843   3.346   9.480
24729SOL    HW176084   8.843   3.415   9.414
24729SOL    HW276085   8.867   3.267   9.433
24730SOL     OW76086   5.197   2.758   9.192
24730SOL    HW176087   5.236   2.821   9.131
24730SOL    HW276088   5.114   2.798   9.218
24731SOL     OW76089   5.871   0.016   3.444
24731SOL    HW176090   5.916   0.054   3.520
24731SOL    HW276091   5.817   0.088   3.410
24732SOL     OW76092   4.175   3.541  14.435
24732SOL    HW176093   4.204   3.471  14.375
24732SOL    HW276094   4.156   3.615  14.377
24733SOL     OW76095   7.689   7.938   8.047
24733SOL    HW176096   7.673   7.860   8.101
24733SOL    HW276097   7.767   7.978   8.085
24734SOL     OW76098  10.109   7.412   6.571
24734SOL    HW176099  10.088   7.320   6.556
24734SOL    HW276100  10.184   7.410   6.630
24735SOL     OW76101   6.303   9.106   3.551
24735SOL    HW176102   6.368   9.053   3.506
24735SOL    HW276103   6.337   9.114   3.640
24736SOL     OW76104  13.876  10.591   2.176
24736SOL    HW176105  13.903  10.579   2.085
24736SOL    HW276106  13.879  10.686   2.190
24737SOL     OW76107   7.410   8.988   2.766
24737SOL    HW176108   7.415   8.904   2.812
24737SOL    HW276109   7.348   8.972   2.695
24738SOL     OW76110  11.672   8.748   0.837
24738SOL    HW176111  11.685   8.738   0.931
24738SOL    HW276112  11.605   8.683   0.814
24739SOL     OW76113  13.860  14.051   9.405
24739SOL    HW176114  13.841  14.030   9.313
24739SOL    HW276115  13.853  14.146   9.410
24740SOL     OW76116   1.908  14.509   8.879
24740SOL    HW176117   1.966  14.578   8.913
24740SOL    HW276118   1.846  14.556   8.823
24741SOL     OW76119   5.037  12.963  11.827
24741SOL    HW176120   5.114  12.984  11.774
24741SOL    HW276121   4.993  13.047  11.841
24742SOL     OW76122   7.707  11.290   3.105
24742SOL    HW176123   7.761  11.333   3.172
24742SOL    HW276124   7.742  11.323   3.022
24743SOL     OW76125   0.963   9.034  12.390
24743SOL    HW176126   1.003   9.075  12.466
24743SOL    HW276127   1.030   8.975  12.356
24744SOL     OW76128  14.487  14.726   1.501
24744SOL    HW176129  14.479  14.811   1.543
24744SOL    HW276130  14.510  14.666   1.572
24745SOL     OW76131   9.479   3.576   4.914
24745SOL    HW176132   9.384   3.586   4.903
24745SOL    HW276133   9.517   3.635   4.848
24746SOL     OW76134  13.338   6.829   7.437
24746SOL    HW176135  13.347   6.917   7.474
24746SOL    HW276136  13.424   6.810   7.400
24747SOL     OW76137   1.366  10.011  10.459
24747SOL    HW176138   1.358   9.917  10.472
24747SOL    HW276139   1.430  10.039  10.525
24748SOL     OW76140   6.536  13.299   9.139
24748SOL    HW176141   6.446  13.307   9.171
24748SOL    HW276142   6.528  13.265   9.050
24749SOL     OW76143   5.261  11.347   8.952
24749SOL    HW176144   5.345  11.327   8.911
24749SOL    HW276145   5.198  11.289   8.909
24750SOL     OW76146   9.949   8.140  11.568
24750SOL    HW176147   9.917   8.220  11.610
24750SOL    HW276148  10.044   8.152  11.562
24751SOL     OW76149   5.162   4.887  11.714
24751SOL    HW176150   5.181   4.899  11.808
24751SOL    HW276151   5.220   4.949  11.670
24752SOL     OW76152   0.698   7.888   8.791
24752SOL    HW176153   0.716   7.982   8.799
24752SOL    HW276154   0.605   7.880   8.809
24753SOL     OW76155   0.884   3.960   0.097
24753SOL    HW176156   0.830   3.886   0.069
24753SOL    HW276157   0.950   3.968   0.029
24754SOL     OW76158  12.267  14.321   4.791
24754SOL    HW176159  12.307  14.271   4.720
24754SOL    HW276160  12.178  14.337   4.761
24755SOL     OW76161  13.050   0.302   7.603
24755SOL    HW176162  13.129   0.353   7.618
24755SOL    HW276163  12.979   0.367   7.606
24756SOL     OW76164  10.634   6.740   3.998
24756SOL    HW176165  10.570   6.774   3.936
24756SOL    HW276166  10.705   6.705   3.943
24757SOL     OW76167  12.930   8.182   2.104
24757SOL    HW176168  12.991   8.233   2.050
24757SOL    HW276169  12.961   8.196   2.194
24758SOL     OW76170   2.713   2.274  11.839
24758SOL    HW176171   2.787   2.315  11.795
24758SOL    HW276172   2.649   2.260  11.769
24759SOL     OW76173  13.177   5.676   1.400
24759SOL    HW176174  13.135   5.760   1.419
24759SOL    HW276175  13.181   5.632   1.485
24760SOL     OW76176   4.671  13.487   2.835
24760SOL    HW176177   4.692  13.566   2.885
24760SOL    HW276178   4.657  13.517   2.746
24761SOL     OW76179  14.720   5.487  12.279
24761SOL    HW176180  14.712   5.444  12.195
24761SOL    HW276181  14.632   5.488  12.315
24762SOL     OW76182  10.490   9.831   1.472
24762SOL    HW176183  10.452   9.752   1.434
24762SOL    HW276184  10.441   9.903   1.432
24763SOL     OW76185   0.710   6.715   2.277
24763SOL    HW176186   0.669   6.801   2.263
24763SOL    HW276187   0.748   6.693   2.193
24764SOL     OW76188   0.996   1.289   8.559
24764SOL    HW176189   1.081   1.296   8.602
24764SOL    HW276190   1.008   1.332   8.474
24765SOL     OW76191   8.213   9.406   8.473
24765SOL    HW176192   8.178   9.369   8.392
24765SOL    HW276193   8.286   9.349   8.497
24766SOL     OW76194   0.481   9.065  12.128
24766SOL    HW176195   0.396   9.094  12.096
24766SOL    HW276196   0.532   9.048  12.049
24767SOL     OW76197   6.809   9.568   0.583
24767SOL    HW176198   6.785   9.659   0.600
24767SOL    HW276199   6.727   9.521   0.587
24768SOL     OW76200   4.123  12.875   7.093
24768SOL    HW176201   4.048  12.815   7.094
24768SOL    HW276202   4.087  12.956   7.056
24769SOL     OW76203   9.987  14.451   5.494
24769SOL    HW176204  10.082  14.439   5.493
24769SOL    HW276205   9.973  14.523   5.556
24770SOL     OW76206   6.002   3.892  10.935
24770SOL    HW176207   6.040   3.965  10.887
24770SOL    HW276208   6.062   3.819  10.919
24771SOL     OW76209  14.038   9.361  10.756
24771SOL    HW176210  13.943   9.367  10.759
24771SOL    HW276211  14.065   9.370  10.848
24772SOL     OW76212  13.917   7.195   1.376
24772SOL    HW176213  13.873   7.275   1.349
24772SOL    HW276214  13.977   7.174   1.304
24773SOL     OW76215  11.685   3.604   0.050
24773SOL    HW176216  11.686   3.687   0.002
24773SOL    HW276217  11.612   3.555   0.012
24774SOL     OW76218  13.739  10.449   6.061
24774SOL    HW176219  13.812  10.473   6.119
24774SOL    HW276220  13.750  10.504   5.984
24775SOL     OW76221  13.384   6.691  10.788
24775SOL    HW176222  13.308   6.636  10.770
24775SOL    HW276223  13.386   6.754  10.716
24776SOL     OW76224   0.559  12.167   8.165
24776SOL    HW176225   0.610  12.172   8.085
24776SOL    HW276226   0.603  12.227   8.226
24777SOL     OW76227   5.952  11.375  13.489
24777SOL    HW176228   5.907  11.326  13.420
24777SOL    HW276229   5.883  11.406  13.546
24778SOL     OW76230  10.271   3.660  10.929
24778SOL    HW176231  10.285   3.599  11.002
24778SOL    HW276232  10.357   3.700  10.916
24779SOL     OW76233   7.960   9.490  13.772
24779SOL    HW176234   7.991   9.479  13.682
24779SOL    HW276235   7.864   9.480  13.765
24780SOL     OW76236   9.631   3.227   7.938
24780SOL    HW176237   9.561   3.172   7.904
24780SOL    HW276238   9.661   3.181   8.016
24781SOL     OW76239   7.869   7.845   4.237
24781SOL    HW176240   7.807   7.874   4.304
24781SOL    HW276241   7.923   7.780   4.283
24782SOL     OW76242   6.810   3.722  11.903
24782SOL    HW176243   6.887   3.762  11.864
24782SOL    HW276244   6.845   3.656  11.963
24783SOL     OW76245   7.776   1.642  10.673
24783SOL    HW176246   7.847   1.615  10.731
24783SOL    HW276247   7.736   1.716  10.718
24784SOL     OW76248  12.715   1.095   2.801
24784SOL    HW176249  12.692   1.128   2.714
24784SOL    HW276250  12.756   1.169   2.845
24785SOL     OW76251   2.782   8.675   4.334
24785SOL    HW176252   2.874   8.681   4.356
24785SOL    HW276253   2.746   8.610   4.395
24786SOL     OW76254   0.224   5.846   7.497
24786SOL    HW176255   0.283   5.776   7.523
24786SOL    HW276256   0.258   5.876   7.413
24787SOL     OW76257  10.083   8.267   4.367
24787SOL    HW176258  10.111   8.359   4.363
24787SOL    HW276259  10.106   8.240   4.456
24788SOL     OW76260  13.888  12.841   7.435
24788SOL    HW176261  13.951  12.772   7.454
24788SOL    HW276262  13.808  12.813   7.481
24789SOL     OW76263   3.044   0.311   1.076
24789SOL    HW176264   2.974   0.342   1.019
24789SOL    HW276265   3.028   0.357   1.159
24790SOL     OW76266   9.033   9.161   5.776
24790SOL    HW176267   8.966   9.117   5.827
24790SOL    HW276268   8.986   9.230   5.729
24791SOL     OW76269  14.071  10.795   1.721
24791SOL    HW176270  14.157  10.837   1.710
24791SOL    HW276271  14.044  10.819   1.810
24792SOL     OW76272   4.194   4.275   4.888
24792SOL    HW176273   4.280   4.313   4.908
24792SOL    HW276274   4.199   4.186   4.922
24793SOL     OW76275   7.084   7.187   0.739
24793SOL    HW176276   7.015   7.228   0.688
24793SOL    HW276277   7.041   7.113   0.783
24794SOL     OW76278   2.628  12.128   2.460
24794SOL    HW176279   2.604  12.039   2.484
24794SOL    HW276280   2.647  12.124   2.366
24795SOL     OW76281   9.099   5.442   2.365
24795SOL    HW176282   9.148   5.495   2.429
24795SOL    HW276283   9.167   5.402   2.311
24796SOL     OW76284   2.099   0.021  12.327
24796SOL    HW176285   2.046   0.050  12.253
24796SOL    HW276286   2.160  14.828  12.289
24797SOL     OW76287   3.317   9.463   7.785
24797SOL    HW176288   3.342   9.485   7.875
24797SOL    HW276289   3.335   9.542   7.734
24798SOL     OW76290  12.731   5.395  13.519
24798SOL    HW176291  12.649   5.352  13.493
24798SOL    HW276292  12.786   5.323  13.551
24799SOL     OW76293   5.404  11.777  12.986
24799SOL    HW176294   5.481  11.783  13.043
24799SOL    HW276295   5.390  11.866  12.955
24800SOL     OW76296   4.721  11.785   8.209
24800SOL    HW176297   4.732  11.840   8.286
24800SOL    HW276298   4.808  11.749   8.192
24801SOL     OW76299  11.788  11.599   3.423
24801SOL    HW176300  11.811  11.529   3.484
24801SOL    HW276301  11.718  11.647   3.467
24802SOL     OW76302  13.567  11.579   9.421
24802SOL    HW176303  13.653  11.576   9.462
24802SOL    HW276304  13.573  11.651   9.359
24803SOL     OW76305   3.795   5.649   3.120
24803SOL    HW176306   3.866   5.643   3.184
24803SOL    HW276307   3.722   5.689   3.168
24804SOL     OW76308   2.464   8.152   0.562
24804SOL    HW176309   2.370   8.139   0.545
24804SOL    HW276310   2.504   8.068   0.544
24805SOL     OW76311  12.124   1.492   2.546
24805SOL    HW176312  12.151   1.574   2.505
24805SOL    HW276313  12.196   1.431   2.528
24806SOL     OW76314  10.331   4.874   3.461
24806SOL    HW176315  10.284   4.932   3.521
24806SOL    HW276316  10.362   4.802   3.517
24807SOL     OW76317   3.844   8.734   8.188
24807SOL    HW176318   3.775   8.682   8.229
24807SOL    HW276319   3.805   8.767   8.107
24808SOL     OW76320  11.814   3.545  13.510
24808SOL    HW176321  11.878   3.573  13.445
24808SOL    HW276322  11.743   3.508  13.458
24809SOL     OW76323  13.802   7.421   1.674
24809SOL    HW176324  13.797   7.516   1.665
24809SOL    HW276325  13.723   7.389   1.629
24810SOL     OW76326  13.640   6.014   1.887
24810SOL    HW176327  13.576   5.944   1.873
24810SOL    HW276328  13.719   5.985   1.842
24811SOL     OW76329   4.221  13.800   7.968
24811SOL    HW176330   4.158  13.730   7.988
24811SOL    HW276331   4.235  13.844   8.052
24812SOL     OW76332  11.473   9.587   9.865
24812SOL    HW176333  11.564   9.615   9.871
24812SOL    HW276334  11.439   9.598   9.954
24813SOL     OW76335   4.042  13.707  13.131
24813SOL    HW176336   3.979  13.645  13.095
24813SOL    HW276337   4.037  13.783  13.074
24814SOL     OW76338   7.752   2.277  11.983
24814SOL    HW176339   7.739   2.369  11.959
24814SOL    HW276340   7.736   2.229  11.902
24815SOL     OW76341   2.880   3.827   6.438
24815SOL    HW176342   2.868   3.783   6.522
24815SOL    HW276343   2.924   3.763   6.383
24816SOL     OW76344   6.662  13.361  11.723
24816SOL    HW176345   6.646  13.427  11.791
24816SOL    HW276346   6.723  13.403  11.663
24817SOL     OW76347   8.204   3.756  12.673
24817SOL    HW176348   8.217   3.794  12.585
24817SOL    HW276349   8.223   3.663  12.662
24818SOL     OW76350   0.329  14.793   3.379
24818SOL    HW176351   0.422  14.776   3.395
24818SOL    HW276352   0.327  14.842   3.297
24819SOL     OW76353   7.007   3.333  12.903
24819SOL    HW176354   6.936   3.368  12.956
24819SOL    HW276355   7.065   3.408  12.887
24820SOL     OW76356  13.601   1.377   9.531
24820SOL    HW176357  13.661   1.437   9.487
24820SOL    HW276358  13.594   1.302   9.471
24821SOL     OW76359   0.400   7.037  11.856
24821SOL    HW176360   0.367   6.958  11.899
24821SOL    HW276361   0.457   7.004  11.786
24822SOL     OW76362  11.717   6.772  10.294
24822SOL    HW176363  11.725   6.767  10.389
24822SOL    HW276364  11.672   6.855  10.278
24823SOL     OW76365   5.416   3.919  14.178
24823SOL    HW176366   5.492   3.900  14.124
24823SOL    HW276367   5.344   3.873  14.135
24824SOL     OW76368   1.383   4.427   8.798
24824SOL    HW176369   1.419   4.351   8.843
24824SOL    HW276370   1.441   4.439   8.722
24825SOL     OW76371  11.100  11.002   9.710
24825SOL    HW176372  11.190  11.027   9.687
24825SOL    HW276373  11.083  11.049   9.791
24826SOL     OW76374   9.009   6.273  11.029
24826SOL    HW176375   8.954   6.199  11.058
24826SOL    HW276376   9.082   6.232  10.983
24827SOL     OW76377  12.212  14.857  12.266
24827SOL    HW176378  12.118  14.860  12.250
24827SOL    HW276379  12.227   0.053  12.335
24828SOL     OW76380   8.665   7.832   0.433
24828SOL    HW176381   8.756   7.826   0.403
24828SOL    HW276382   8.615   7.851   0.353
24829SOL     OW76383   7.892  10.561   7.744
24829SOL    HW176384   7.875  10.633   7.683
24829SOL    HW276385   7.909  10.485   7.689
24830SOL     OW76386   8.449  12.152  12.049
24830SOL    HW176387   8.460  12.186  11.960
24830SOL    HW276388   8.360  12.176  12.072
24831SOL     OW76389   6.125  11.591   5.070
24831SOL    HW176390   6.044  11.637   5.093
24831SOL    HW276391   6.153  11.549   5.152
24832SOL     OW76392   8.234   8.971   9.739
24832SOL    HW176393   8.232   8.875   9.738
24832SOL    HW276394   8.300   8.993   9.805
24833SOL     OW76395   7.819  14.005   6.930
24833SOL    HW176396   7.888  13.987   6.993
24833SOL    HW276397   7.786  14.092   6.956
24834SOL     OW76398   5.168   9.744   4.119
24834SOL    HW176399   5.183   9.762   4.212
24834SOL    HW276400   5.255   9.737   4.081
24835SOL     OW76401   2.367   1.362   7.870
24835SOL    HW176402   2.402   1.423   7.935
24835SOL    HW276403   2.353   1.416   7.792
24836SOL     OW76404  13.614  14.537   6.080
24836SOL    HW176405  13.692  14.573   6.037
24836SOL    HW276406  13.547  14.604   6.070
24837SOL     OW76407   9.644  12.043  13.943
24837SOL    HW176408   9.563  12.089  13.966
24837SOL    HW276409   9.712  12.085  13.995
24838SOL     OW76410   0.857   4.793   1.386
24838SOL    HW176411   0.777   4.743   1.403
24838SOL    HW276412   0.870   4.845   1.466
24839SOL     OW76413   3.744   4.524   1.821
24839SOL    HW176414   3.660   4.564   1.845
24839SOL    HW276415   3.798   4.531   1.900
24840SOL     OW76416  11.965   2.133  13.533
24840SOL    HW176417  11.942   2.167  13.620
24840SOL    HW276418  11.883   2.137  13.484
24841SOL     OW76419  10.985   8.452   4.839
24841SOL    HW176420  10.943   8.501   4.910
24841SOL    HW276421  11.062   8.414   4.879
24842SOL     OW76422   6.061   3.924   8.432
24842SOL    HW176423   6.014   3.998   8.470
24842SOL    HW276424   5.994   3.875   8.384
24843SOL     OW76425  10.811   1.087  12.473
24843SOL    HW176426  10.726   1.083  12.429
24843SOL    HW276427  10.811   1.011  12.532
24844SOL     OW76428  11.278  10.788   0.088
24844SOL    HW176429  11.292  10.741   0.006
24844SOL    HW276430  11.265  10.719   0.154
24845SOL     OW76431   1.007   1.461   8.347
24845SOL    HW176432   1.085   1.515   8.354
24845SOL    HW276433   1.008   1.429   8.257
24846SOL     OW76434   6.200   1.717  13.168
24846SOL    HW176435   6.226   1.660  13.240
24846SOL    HW276436   6.105   1.725  13.177
24847SOL     OW76437   3.791  14.853   8.023
24847SOL    HW176438   3.819  14.812   7.942
24847SOL    HW276439   3.858  14.830   8.087
24848SOL     OW76440  12.511   3.077   7.032
24848SOL    HW176441  12.463   2.994   7.038
24848SOL    HW276442  12.510   3.098   6.939
24849SOL     OW76443  12.892   8.711   7.869
24849SOL    HW176444  12.975   8.747   7.901
24849SOL    HW276445  12.831   8.724   7.941
24850SOL     OW76446  11.065   0.131   0.471
24850SOL    HW176447  11.010   0.120   0.393
24850SOL    HW276448  11.009   0.179   0.532
24851SOL     OW76449   2.586  10.348   7.806
24851SOL    HW176450   2.493  10.329   7.792
24851SOL    HW276451   2.586  10.417   7.873
24852SOL     OW76452   9.615   7.601   1.191
24852SOL    HW176453   9.656   7.515   1.173
24852SOL    HW276454   9.572   7.624   1.109
24853SOL     OW76455   5.773   6.627   3.740
24853SOL    HW176456   5.795   6.664   3.826
24853SOL    HW276457   5.841   6.660   3.682
24854SOL     OW76458  12.765   6.980   8.942
24854SOL    HW176459  12.829   7.051   8.938
24854SOL    HW276460  12.784   6.936   9.025
24855SOL     OW76461   8.258   8.586   3.200
24855SOL    HW176462   8.239   8.497   3.173
24855SOL    HW276463   8.330   8.578   3.262
24856SOL     OW76464   4.549  10.225   4.368
24856SOL    HW176465   4.538  10.318   4.387
24856SOL    HW276466   4.494  10.180   4.433
24857SOL     OW76467   7.093   4.550   7.218
24857SOL    HW176468   7.177   4.592   7.238
24857SOL    HW276469   7.040   4.564   7.297
24858SOL     OW76470   2.948  10.152   3.036
24858SOL    HW176471   3.030  10.178   2.994
24858SOL    HW276472   2.964  10.063   3.068
24859SOL     OW76473   8.072   9.090   2.892
24859SOL    HW176474   8.152   9.039   2.907
24859SOL    HW276475   8.100   9.182   2.900
24860SOL     OW76476   9.378  11.944   7.741
24860SOL    HW176477   9.408  11.915   7.827
24860SOL    HW276478   9.433  11.896   7.679
24861SOL     OW76479  12.965   6.027   1.005
24861SOL    HW176480  12.956   5.986   1.091
24861SOL    HW276481  13.039   5.983   0.964
24862SOL     OW76482   8.355   0.144   0.336
24862SOL    HW176483   8.365   0.055   0.369
24862SOL    HW276484   8.445   0.174   0.320
24863SOL     OW76485   9.991  12.503  12.096
24863SOL    HW176486  10.070  12.454  12.074
24863SOL    HW276487   9.994  12.512  12.191
24864SOL     OW76488   0.407   6.279   2.901
24864SOL    HW176489   0.337   6.216   2.883
24864SOL    HW276490   0.454   6.242   2.975
24865SOL     OW76491   2.564   7.569   2.585
24865SOL    HW176492   2.593   7.479   2.573
24865SOL    HW276493   2.588   7.590   2.675
24866SOL     OW76494   3.220  10.281   7.007
24866SOL    HW176495   3.291  10.319   7.059
24866SOL    HW276496   3.173  10.225   7.069
24867SOL     OW76497  12.608   8.768  14.120
24867SOL    HW176498  12.598   8.677  14.092
24867SOL    HW276499  12.687   8.798  14.075
24868SOL     OW76500  10.161   3.561  12.196
24868SOL    HW176501  10.233   3.589  12.253
24868SOL    HW276502  10.183   3.599  12.111
24869SOL     OW76503  13.547  12.789   9.541
24869SOL    HW176504  13.637  12.801   9.509
24869SOL    HW276505  13.498  12.763   9.463
24870SOL     OW76506   5.246  10.880   6.394
24870SOL    HW176507   5.215  10.954   6.342
24870SOL    HW276508   5.296  10.827   6.333
24871SOL     OW76509  10.642   2.123  13.152
24871SOL    HW176510  10.590   2.086  13.224
24871SOL    HW276511  10.703   2.182  13.195
24872SOL     OW76512  13.222  13.520   4.797
24872SOL    HW176513  13.305  13.561   4.820
24872SOL    HW276514  13.173  13.589   4.752
24873SOL     OW76515   2.222  10.208  14.405
24873SOL    HW176516   2.175  10.129  14.434
24873SOL    HW276517   2.202  10.214  14.312
24874SOL     OW76518   9.961   9.760  14.509
24874SOL    HW176519  10.029   9.693  14.509
24874SOL    HW276520   9.961   9.794  14.419
24875SOL     OW76521  14.657   6.285   4.124
24875SOL    HW176522  14.644   6.303   4.031
24875SOL    HW276523  14.738   6.234   4.128
24876SOL     OW76524  12.036   1.543  14.553
24876SOL    HW176525  12.030   1.448  14.547
24876SOL    HW276526  12.102   1.559  14.621
24877SOL     OW76527   1.104   1.949  10.072
24877SOL    HW176528   1.175   2.001  10.109
24877SOL    HW276529   1.120   1.949   9.978
24878SOL     OW76530  13.719   4.180   4.477
24878SOL    HW176531  13.724   4.106   4.537
24878SOL    HW276532  13.653   4.155   4.413
24879SOL     OW76533  12.900   4.490   8.142
24879SOL    HW176534  12.920   4.396   8.144
24879SOL    HW276535  12.834   4.501   8.211
24880SOL     OW76536  14.058  10.387   8.059
24880SOL    HW176537  14.031  10.444   8.131
24880SOL    HW276538  13.986  10.391   7.996
24881SOL     OW76539   0.489   0.650   3.017
24881SOL    HW176540   0.492   0.644   2.921
24881SOL    HW276541   0.575   0.683   3.041
24882SOL     OW76542  14.124   0.206  13.749
24882SOL    HW176543  14.213   0.241  13.743
24882SOL    HW276544  14.120   0.166  13.836
24883SOL     OW76545   5.214   6.636   3.506
24883SOL    HW176546   5.244   6.719   3.543
24883SOL    HW276547   5.119   6.641   3.510
24884SOL     OW76548   2.094   2.484   9.026
24884SOL    HW176549   2.177   2.438   9.011
24884SOL    HW276550   2.033   2.415   9.053
24885SOL     OW76551   6.676   4.295   3.359
24885SOL    HW176552   6.748   4.276   3.419
24885SOL    HW276553   6.716   4.298   3.272
24886SOL     OW76554  13.852   0.243  13.991
24886SOL    HW176555  13.769   0.227  14.036
24886SOL    HW276556  13.846   0.189  13.912
24887SOL     OW76557   6.293   1.796   4.254
24887SOL    HW176558   6.257   1.855   4.320
24887SOL    HW276559   6.332   1.853   4.188
24888SOL     OW76560   4.481   3.105   0.197
24888SOL    HW176561   4.395   3.085   0.160
24888SOL    HW276562   4.476   3.072   0.287
24889SOL     OW76563   7.473  11.276   8.373
24889SOL    HW176564   7.423  11.202   8.338
24889SOL    HW276565   7.412  11.321   8.430
24890SOL     OW76566  11.472   9.326   7.403
24890SOL    HW176567  11.452   9.236   7.427
24890SOL    HW276568  11.387   9.365   7.382
24891SOL     OW76569  12.462   2.770  13.419
24891SOL    HW176570  12.498   2.719  13.346
24891SOL    HW276571  12.507   2.736  13.496
24892SOL     OW76572   1.185  12.792   2.638
24892SOL    HW176573   1.225  12.838   2.564
24892SOL    HW276574   1.121  12.854   2.673
24893SOL     OW76575  10.122  12.674  12.888
24893SOL    HW176576  10.137  12.763  12.855
24893SOL    HW276577  10.208  12.633  12.886
24894SOL     OW76578  10.438  10.278   1.441
24894SOL    HW176579  10.381  10.282   1.518
24894SOL    HW276580  10.410  10.199   1.395
24895SOL     OW76581  12.377   0.326   4.538
24895SOL    HW176582  12.452   0.288   4.584
24895SOL    HW276583  12.302   0.275   4.568
24896SOL     OW76584   7.946   2.761   7.521
24896SOL    HW176585   7.955   2.848   7.482
24896SOL    HW276586   7.914   2.777   7.610
24897SOL     OW76587   5.656   2.284   6.685
24897SOL    HW176588   5.584   2.295   6.747
24897SOL    HW276589   5.725   2.242   6.735
24898SOL     OW76590   1.730   6.385   1.655
24898SOL    HW176591   1.748   6.478   1.660
24898SOL    HW276592   1.696   6.362   1.741
24899SOL     OW76593   6.702  12.695  11.212
24899SOL    HW176594   6.766  12.633  11.246
24899SOL    HW276595   6.624  12.680  11.265
24900SOL     OW76596   7.158  10.516   5.943
24900SOL    HW176597   7.237  10.522   5.997
24900SOL    HW276598   7.115  10.601   5.953
24901SOL     OW76599  10.760   8.797  12.592
24901SOL    HW176600  10.762   8.852  12.670
24901SOL    HW276601  10.781   8.857  12.520
24902SOL     OW76602   3.003  14.575   6.822
24902SOL    HW176603   2.965  14.648   6.871
24902SOL    HW276604   3.070  14.540   6.881
24903SOL     OW76605   8.082   1.151  13.327
24903SOL    HW176606   8.042   1.130  13.411
24903SOL    HW276607   8.062   1.244  13.313
24904SOL     OW76608   8.325   3.453   8.468
24904SOL    HW176609   8.410   3.443   8.510
24904SOL    HW276610   8.264   3.464   8.541
24905SOL     OW76611   9.407   3.569  14.788
24905SOL    HW176612   9.389   3.656  14.823
24905SOL    HW276613   9.404   3.579  14.693
24906SOL     OW76614   0.250  14.540  10.266
24906SOL    HW176615   0.326  14.598  10.269
24906SOL    HW276616   0.246  14.500  10.353
24907SOL     OW76617   2.774  10.852  10.904
24907SOL    HW176618   2.831  10.776  10.895
24907SOL    HW276619   2.757  10.881  10.814
24908SOL     OW76620   3.599   1.357   5.310
24908SOL    HW176621   3.649   1.284   5.274
24908SOL    HW276622   3.508   1.335   5.290
24909SOL     OW76623   9.483  14.110   1.870
24909SOL    HW176624   9.513  14.190   1.912
24909SOL    HW276625   9.428  14.140   1.797
24910SOL     OW76626   2.356   8.497   5.235
24910SOL    HW176627   2.319   8.508   5.322
24910SOL    HW276628   2.295   8.440   5.189
24911SOL     OW76629   8.762   7.530  10.809
24911SOL    HW176630   8.831   7.545  10.874
24911SOL    HW276631   8.807   7.532  10.725
24912SOL     OW76632   4.503   8.211   5.093
24912SOL    HW176633   4.534   8.270   5.025
24912SOL    HW276634   4.412   8.239   5.109
24913SOL     OW76635   6.543   3.396  14.800
24913SOL    HW176636   6.609   3.443  14.849
24913SOL    HW276637   6.477   3.462  14.777
24914SOL     OW76638  13.640  13.995  13.257
24914SOL    HW176639  13.731  14.018  13.241
24914SOL    HW276640  13.594  14.078  13.265
24915SOL     OW76641  11.964   2.141   3.362
24915SOL    HW176642  11.996   2.051   3.360
24915SOL    HW276643  12.033   2.192   3.320
24916SOL     OW76644   0.093  10.779  10.762
24916SOL    HW176645   0.012  10.730  10.752
24916SOL    HW276646   0.142  10.732  10.829
24917SOL     OW76647  11.184   6.168   1.727
24917SOL    HW176648  11.159   6.121   1.807
24917SOL    HW276649  11.250   6.112   1.686
24918SOL     OW76650  11.109   6.787   7.203
24918SOL    HW176651  11.045   6.775   7.133
24918SOL    HW276652  11.160   6.863   7.175
24919SOL     OW76653  11.079  11.191  11.465
24919SOL    HW176654  11.167  11.217  11.494
24919SOL    HW276655  11.092  11.104  11.426
24920SOL     OW76656   3.873  13.663   9.811
24920SOL    HW176657   3.829  13.746   9.830
24920SOL    HW276658   3.842  13.638   9.724
24921SOL     OW76659   7.080  10.092   3.356
24921SOL    HW176660   7.091  10.007   3.314
24921SOL    HW276661   7.055  10.071   3.446
24922SOL     OW76662   7.773  11.811   5.658
24922SOL    HW176663   7.812  11.761   5.730
24922SOL    HW276664   7.840  11.811   5.589
24923SOL     OW76665   5.220   2.856  10.089
24923SOL    HW176666   5.215   2.883   9.997
24923SOL    HW276667   5.131   2.832  10.112
24924SOL     OW76668  11.895   7.853  12.665
24924SOL    HW176669  11.914   7.921  12.600
24924SOL    HW276670  11.940   7.883  12.744
24925SOL     OW76671   6.598  12.181   3.035
24925SOL    HW176672   6.563  12.112   2.980
24925SOL    HW276673   6.681  12.205   2.994
24926SOL     OW76674   6.981   6.660   9.214
24926SOL    HW176675   7.042   6.648   9.141
24926SOL    HW276676   6.895   6.651   9.175
24927SOL     OW76677   6.223   3.429   3.962
24927SOL    HW176678   6.180   3.419   3.877
24927SOL    HW276679   6.190   3.355   4.013
24928SOL     OW76680   0.266  10.182  10.516
24928SOL    HW176681   0.192  10.219  10.563
24928SOL    HW276682   0.335  10.173  10.581
24929SOL     OW76683   5.575   6.546   6.307
24929SOL    HW176684   5.636   6.473   6.291
24929SOL    HW276685   5.628   6.611   6.353
24930SOL     OW76686   9.514  13.489  11.542
24930SOL    HW176687   9.431  13.443  11.532
24930SOL    HW276688   9.578  13.435  11.496
24931SOL     OW76689   6.039   8.140   0.995
24931SOL    HW176690   5.984   8.063   0.979
24931SOL    HW276691   6.043   8.147   1.090
24932SOL     OW76692   5.806   6.181   9.052
24932SOL    HW176693   5.845   6.228   9.125
24932SOL    HW276694   5.882   6.144   9.005
24933SOL     OW76695  13.774  12.954   9.004
24933SOL    HW176696  13.744  12.877   8.956
24933SOL    HW276697  13.709  13.021   8.984
24934SOL     OW76698   8.262  12.573   0.755
24934SOL    HW176699   8.339  12.539   0.800
24934SOL    HW276700   8.296  12.644   0.700
24935SOL     OW76701   1.229   7.632   2.861
24935SOL    HW176702   1.244   7.670   2.774
24935SOL    HW276703   1.149   7.675   2.892
24936SOL     OW76704   0.876  11.428   5.445
24936SOL    HW176705   0.816  11.354   5.449
24936SOL    HW276706   0.826  11.502   5.480
24937SOL     OW76707   8.898   5.803   3.152
24937SOL    HW176708   8.933   5.793   3.240
24937SOL    HW276709   8.858   5.718   3.132
24938SOL     OW76710  14.034   4.398   5.323
24938SOL    HW176711  14.037   4.489   5.292
24938SOL    HW276712  13.943   4.384   5.350
24939SOL     OW76713   3.226  13.325  10.089
24939SOL    HW176714   3.242  13.278  10.007
24939SOL    HW276715   3.160  13.390  10.067
24940SOL     OW76716   7.919  10.988  14.736
24940SOL    HW176717   7.851  10.943  14.784
24940SOL    HW276718   7.917  10.950  14.648
24941SOL     OW76719  12.396   6.492   3.533
24941SOL    HW176720  12.474   6.442   3.510
24941SOL    HW276721  12.326   6.427   3.538
24942SOL     OW76722   6.028   5.776   7.008
24942SOL    HW176723   6.092   5.749   6.942
24942SOL    HW276724   5.944   5.772   6.964
24943SOL     OW76725  14.400  14.107  10.415
24943SOL    HW176726  14.458  14.037  10.445
24943SOL    HW276727  14.447  14.188  10.437
24944SOL     OW76728   5.749   3.955  10.588
24944SOL    HW176729   5.830   3.904  10.599
24944SOL    HW276730   5.687   3.914  10.649
24945SOL     OW76731   3.212  14.042  13.500
24945SOL    HW176732   3.204  13.946  13.506
24945SOL    HW276733   3.306  14.058  13.499
24946SOL     OW76734   8.326   0.456   7.865
24946SOL    HW176735   8.382   0.524   7.904
24946SOL    HW276736   8.256   0.505   7.822
24947SOL     OW76737   9.227   9.845   4.756
24947SOL    HW176738   9.316   9.876   4.744
24947SOL    HW276739   9.202   9.809   4.671
24948SOL     OW76740   5.657  13.201   7.741
24948SOL    HW176741   5.586  13.144   7.711
24948SOL    HW276742   5.699  13.230   7.660
24949SOL     OW76743   7.146   5.382   6.506
24949SOL    HW176744   7.139   5.392   6.411
24949SOL    HW276745   7.235   5.351   6.521
24950SOL     OW76746   8.647  12.410   3.113
24950SOL    HW176747   8.668  12.346   3.181
24950SOL    HW276748   8.732  12.438   3.080
24951SOL     OW76749  13.487  14.733   4.797
24951SOL    HW176750  13.575  14.715   4.830
24951SOL    HW276751  13.459  14.651   4.758
24952SOL     OW76752  13.508  10.323   8.842
24952SOL    HW176753  13.558  10.363   8.912
24952SOL    HW276754  13.419  10.357   8.853
24953SOL     OW76755  14.189   9.934   3.828
24953SOL    HW176756  14.204  10.011   3.773
24953SOL    HW276757  14.104   9.901   3.801
24954SOL     OW76758  11.142  14.668  14.703
24954SOL    HW176759  11.071  14.711  14.656
24954SOL    HW276760  11.222  14.698  14.659
24955SOL     OW76761   3.336   8.974   1.571
24955SOL    HW176762   3.242   8.989   1.586
24955SOL    HW276763   3.377   9.058   1.591
24956SOL     OW76764   8.758   4.927   3.508
24956SOL    HW176765   8.730   5.011   3.471
24956SOL    HW276766   8.845   4.912   3.471
24957SOL     OW76767   3.744  10.360   8.155
24957SOL    HW176768   3.791  10.418   8.215
24957SOL    HW276769   3.686  10.417   8.106
24958SOL     OW76770   1.007   4.972  14.770
24958SOL    HW176771   0.993   4.879  14.785
24958SOL    HW276772   1.099   4.979  14.746
24959SOL     OW76773   7.668   1.239  10.125
24959SOL    HW176774   7.599   1.290  10.169
24959SOL    HW276775   7.634   1.224  10.037
24960SOL     OW76776   3.399  10.589  11.948
24960SOL    HW176777   3.478  10.535  11.952
24960SOL    HW276778   3.424  10.665  11.896
24961SOL     OW76779   5.115   9.449   6.124
24961SOL    HW176780   5.076   9.396   6.194
24961SOL    HW276781   5.125   9.536   6.163
24962SOL     OW76782   2.050  11.057   1.036
24962SOL    HW176783   2.018  11.028   1.121
24962SOL    HW276784   1.988  11.124   1.008
24963SOL     OW76785  12.742  10.537   7.623
24963SOL    HW176786  12.766  10.591   7.698
24963SOL    HW276787  12.698  10.598   7.563
24964SOL     OW76788  14.452  14.432   9.905
24964SOL    HW176789  14.534  14.474   9.933
24964SOL    HW276790  14.462  14.340   9.929
24965SOL     OW76791   1.300   5.717  10.405
24965SOL    HW176792   1.267   5.724  10.315
24965SOL    HW276793   1.244   5.651  10.446
24966SOL     OW76794   1.538   4.010   5.159
24966SOL    HW176795   1.485   4.054   5.225
24966SOL    HW276796   1.515   3.917   5.168
24967SOL     OW76797   8.054   6.119  10.617
24967SOL    HW176798   8.146   6.109  10.594
24967SOL    HW276799   8.006   6.073  10.548
24968SOL     OW76800  13.405   9.363   4.011
24968SOL    HW176801  13.417   9.279   4.056
24968SOL    HW276802  13.313   9.383   4.023
24969SOL     OW76803   1.170   6.424   7.433
24969SOL    HW176804   1.207   6.386   7.513
24969SOL    HW276805   1.112   6.356   7.398
24970SOL     OW76806   7.939   3.958   4.886
24970SOL    HW176807   7.853   3.971   4.924
24970SOL    HW276808   7.929   3.983   4.794
24971SOL     OW76809  13.089   3.352   2.149
24971SOL    HW176810  13.010   3.366   2.202
24971SOL    HW276811  13.078   3.410   2.074
24972SOL     OW76812   5.082   4.224  10.681
24972SOL    HW176813   5.109   4.316  10.684
24972SOL    HW276814   4.988   4.227  10.663
24973SOL     OW76815  10.577  10.684  12.580
24973SOL    HW176816  10.492  10.727  12.581
24973SOL    HW276817  10.640  10.756  12.572
24974SOL     OW76818   2.639  12.376   5.090
24974SOL    HW176819   2.578  12.361   5.017
24974SOL    HW276820   2.594  12.440   5.145
24975SOL     OW76821   9.137   4.479  13.140
24975SOL    HW176822   9.177   4.393  13.133
24975SOL    HW276823   9.188   4.524  13.208
24976SOL     OW76824   4.984   6.983   3.390
24976SOL    HW176825   5.034   6.941   3.460
24976SOL    HW276826   4.943   7.059   3.432
24977SOL     OW76827   6.348   9.822  13.050
24977SOL    HW176828   6.260   9.851  13.024
24977SOL    HW276829   6.345   9.727  13.044
24978SOL     OW76830   4.862  14.005  12.836
24978SOL    HW176831   4.924  14.077  12.823
24978SOL    HW276832   4.917  13.930  12.857
24979SOL     OW76833  13.940   6.774  12.932
24979SOL    HW176834  14.001   6.821  12.876
24979SOL    HW276835  13.920   6.835  13.002
24980SOL     OW76836   3.261  14.839   8.292
24980SOL    HW176837   3.352  14.809   8.283
24980SOL    HW276838   3.218  14.807   8.213
24981SOL     OW76839   3.247   3.762  14.181
24981SOL    HW176840   3.251   3.785  14.274
24981SOL    HW276841   3.320   3.809  14.141
24982SOL     OW76842  11.496   0.794   5.236
24982SOL    HW176843  11.404   0.773   5.224
24982SOL    HW276844  11.533   0.718   5.280
24983SOL     OW76845   8.907   7.881  10.880
24983SOL    HW176846   8.931   7.796  10.917
24983SOL    HW276847   8.933   7.875  10.788
24984SOL     OW76848  12.014   3.781  14.276
24984SOL    HW176849  12.097   3.831  14.273
24984SOL    HW276850  11.990   3.771  14.184
24985SOL     OW76851   7.446   0.565  13.946
24985SOL    HW176852   7.400   0.484  13.966
24985SOL    HW276853   7.391   0.634  13.982
24986SOL     OW76854   6.116  13.611   9.852
24986SOL    HW176855   6.208  13.631   9.864
24986SOL    HW276856   6.110  13.580   9.761
24987SOL     OW76857   9.503  13.285   4.508
24987SOL    HW176858   9.561  13.324   4.442
24987SOL    HW276859   9.424  13.340   4.506
24988SOL     OW76860   9.606  10.244   7.082
24988SOL    HW176861   9.607  10.171   7.021
24988SOL    HW276862   9.695  10.249   7.116
24989SOL     OW76863  14.765   1.176   9.533
24989SOL    HW176864  14.826   1.206   9.600
24989SOL    HW276865  14.756   1.250   9.473
24990SOL     OW76866  13.112   9.183   9.873
24990SOL    HW176867  13.114   9.126   9.796
24990SOL    HW276868  13.041   9.244   9.855
24991SOL     OW76869   3.318  13.765  12.243
24991SOL    HW176870   3.239  13.801  12.283
24991SOL    HW276871   3.370  13.733  12.316
24992SOL     OW76872   9.055   8.143  12.502
24992SOL    HW176873   9.041   8.062  12.454
24992SOL    HW276874   9.090   8.116  12.586
24993SOL     OW76875  13.506  13.954  14.490
24993SOL    HW176876  13.568  13.927  14.422
24993SOL    HW276877  13.442  13.883  14.494
24994SOL     OW76878   0.086   9.787  12.495
24994SOL    HW176879   0.064   9.713  12.551
24994SOL    HW276880   0.060   9.864  12.547
24995SOL     OW76881   9.453   3.165   5.313
24995SOL    HW176882   9.515   3.237   5.301
24995SOL    HW276883   9.388   3.198   5.375
24996SOL     OW76884  12.773  13.092   5.936
24996SOL    HW176885  12.838  13.032   5.899
24996SOL    HW276886  12.825  13.159   5.980
24997SOL     OW76887   8.527  10.758   5.239
24997SOL    HW176888   8.525  10.709   5.321
24997SOL    HW276889   8.505  10.695   5.172
24998SOL     OW76890   1.666   6.795   8.237
24998SOL    HW176891   1.728   6.759   8.174
24998SOL    HW276892   1.691   6.886   8.246
24999SOL     OW76893   0.088  10.913   0.444
24999SOL    HW176894   0.135  10.986   0.404
24999SOL    HW276895   0.050  10.866   0.370
25000SOL     OW76896  14.726  14.017   7.566
25000SOL    HW176897  14.689  14.105   7.571
25000SOL    HW276898  14.777  14.007   7.646
25001SOL     OW76899   3.935   2.488   7.541
25001SOL    HW176900   3.956   2.494   7.448
25001SOL    HW276901   3.933   2.578   7.572
25002SOL     OW76902  12.766   7.763   6.764
25002SOL    HW176903  12.798   7.702   6.830
25002SOL    HW276904  12.673   7.774   6.785
25003SOL     OW76905   4.867  14.522  12.934
25003SOL    HW176906   4.829  14.448  12.886
25003SOL    HW276907   4.912  14.573  12.868
25004SOL     OW76908   7.400  11.276  12.635
25004SOL    HW176909   7.475  11.275  12.695
25004SOL    HW276910   7.437  11.306  12.552
25005SOL     OW76911   7.556   9.444   3.894
25005SOL    HW176912   7.492   9.432   3.965
25005SOL    HW276913   7.609   9.364   3.895
25006SOL     OW76914   5.747  10.717   2.372
25006SOL    HW176915   5.694  10.642   2.400
25006SOL    HW276916   5.824  10.678   2.330
25007SOL     OW76917   3.620   4.048   5.877
25007SOL    HW176918   3.553   4.116   5.878
25007SOL    HW276919   3.583   3.978   5.930
25008SOL     OW76920  11.871  11.632   6.149
25008SOL    HW176921  11.926  11.690   6.201
25008SOL    HW276922  11.844  11.563   6.210
25009SOL     OW76923   7.290   2.417   6.299
25009SOL    HW176924   7.287   2.492   6.239
25009SOL    HW276925   7.369   2.431   6.351
25010SOL     OW76926  14.744  13.586   7.728
25010SOL    HW176927  14.702  13.660   7.772
25010SOL    HW276928  14.837  13.593   7.752
25011SOL     OW76929   5.597   2.629  12.412
25011SOL    HW176930   5.687   2.661  12.402
25011SOL    HW276931   5.579   2.584  12.330
25012SOL     OW76932   7.649   7.224   4.861
25012SOL    HW176933   7.648   7.176   4.778
25012SOL    HW276934   7.562   7.265   4.865
25013SOL     OW76935   6.604   8.272   6.649
25013SOL    HW176936   6.524   8.220   6.646
25013SOL    HW276937   6.577   8.356   6.684
25014SOL     OW76938  13.618   6.138   6.353
25014SOL    HW176939  13.655   6.075   6.290
25014SOL    HW276940  13.616   6.221   6.305
25015SOL     OW76941   1.123   7.068   0.635
25015SOL    HW176942   1.093   7.102   0.551
25015SOL    HW276943   1.194   7.128   0.661
25016SOL     OW76944   4.469   8.763   5.165
25016SOL    HW176945   4.453   8.843   5.216
25016SOL    HW276946   4.382   8.739   5.132
25017SOL     OW76947  13.937  11.695  10.264
25017SOL    HW176948  14.018  11.700  10.214
25017SOL    HW276949  13.929  11.780  10.307
25018SOL     OW76950   7.105  13.944   5.565
25018SOL    HW176951   7.176  13.896   5.608
25018SOL    HW276952   7.080  13.888   5.491
25019SOL     OW76953  11.652   9.888   4.750
25019SOL    HW176954  11.647   9.962   4.691
25019SOL    HW276955  11.574   9.836   4.731
25020SOL     OW76956   7.659  12.341   5.689
25020SOL    HW176957   7.664  12.256   5.733
25020SOL    HW276958   7.749  12.373   5.688
25021SOL     OW76959   9.724  12.025   1.147
25021SOL    HW176960   9.807  12.038   1.100
25021SOL    HW276961   9.719  11.930   1.159
25022SOL     OW76962   3.673  10.235  10.248
25022SOL    HW176963   3.585  10.243  10.210
25022SOL    HW276964   3.721  10.309  10.212
25023SOL     OW76965   2.003  14.781   4.919
25023SOL    HW176966   1.983  14.705   4.864
25023SOL    HW276967   2.091  14.763   4.952
25024SOL     OW76968  12.376   4.370   2.047
25024SOL    HW176969  12.424   4.331   1.974
25024SOL    HW276970  12.331   4.296   2.088
25025SOL     OW76971  12.663   3.458   4.923
25025SOL    HW176972  12.717   3.468   4.844
25025SOL    HW276973  12.709   3.394   4.976
25026SOL     OW76974   6.541   8.715   7.554
25026SOL    HW176975   6.603   8.661   7.505
25026SOL    HW276976   6.462   8.715   7.499
25027SOL     OW76977   6.281   4.688   4.820
25027SOL    HW176978   6.244   4.715   4.904
25027SOL    HW276979   6.299   4.770   4.774
25028SOL     OW76980   9.473   5.696   1.658
25028SOL    HW176981   9.510   5.776   1.697
25028SOL    HW276982   9.533   5.675   1.587
25029SOL     OW76983   4.423   6.795   0.160
25029SOL    HW176984   4.364   6.783   0.085
25029SOL    HW276985   4.482   6.719   0.156
25030SOL     OW76986   2.075  14.258  14.240
25030SOL    HW176987   2.060  14.241  14.333
25030SOL    HW276988   2.137  14.331  14.239
25031SOL     OW76989   0.727   4.849   4.115
25031SOL    HW176990   0.761   4.806   4.193
25031SOL    HW276991   0.739   4.943   4.132
25032SOL     OW76992  11.361   5.924  13.044
25032SOL    HW176993  11.277   5.966  13.065
25032SOL    HW276994  11.427   5.981  13.084
25033SOL     OW76995   1.100   2.053   6.218
25033SOL    HW176996   1.184   2.084   6.252
25033SOL    HW276997   1.050   2.028   6.297
25034SOL     OW76998  12.384   4.826   1.214
25034SOL    HW176999  12.461   4.843   1.159
25034SOL    HW277000  12.408   4.750   1.266
25035SOL     OW77001   1.159  11.081   0.093
25035SOL    HW177002   1.083  11.103   0.039
25035SOL    HW277003   1.156  10.985   0.099
25036SOL     OW77004   7.985   1.078   8.720
25036SOL    HW177005   8.076   1.084   8.690
25036SOL    HW277006   7.962   1.167   8.746
25037SOL     OW77007  11.337   3.218  13.521
25037SOL    HW177008  11.401   3.277  13.560
25037SOL    HW277009  11.384   3.135  13.510
25038SOL     OW77010  11.682   6.381  13.317
25038SOL    HW177011  11.711   6.291  13.331
25038SOL    HW277012  11.762   6.433  13.325
25039SOL     OW77013   5.902  13.667   2.148
25039SOL    HW177014   5.970  13.648   2.212
25039SOL    HW277015   5.820  13.642   2.191
25040SOL     OW77016   2.013  13.539  12.412
25040SOL    HW177017   2.001  13.474  12.481
25040SOL    HW277018   1.959  13.506  12.339
25041SOL     OW77019  11.031   9.924  11.342
25041SOL    HW177020  10.959   9.871  11.377
25041SOL    HW277021  11.100   9.860  11.323
25042SOL     OW77022  11.594  12.977   9.626
25042SOL    HW177023  11.541  12.899   9.638
25042SOL    HW277024  11.641  12.963   9.544
25043SOL     OW77025  14.560  13.203   8.191
25043SOL    HW177026  14.572  13.287   8.146
25043SOL    HW277027  14.600  13.216   8.277
25044SOL     OW77028   2.058   3.869   9.052
25044SOL    HW177029   2.122   3.822   9.106
25044SOL    HW277030   2.097   3.869   8.964
25045SOL     OW77031  12.066   8.404   9.608
25045SOL    HW177032  11.983   8.361   9.627
25045SOL    HW277033  12.041   8.491   9.575
25046SOL     OW77034  11.204   3.495   5.768
25046SOL    HW177035  11.117   3.465   5.794
25046SOL    HW277036  11.234   3.430   5.704
25047SOL     OW77037   6.585   9.816   8.613
25047SOL    HW177038   6.593   9.799   8.519
25047SOL    HW277039   6.521   9.750   8.644
25048SOL     OW77040   8.043   8.198   2.633
25048SOL    HW177041   8.120   8.226   2.683
25048SOL    HW277042   8.039   8.104   2.646
25049SOL     OW77043   3.500   8.483   5.158
25049SOL    HW177044   3.433   8.470   5.091
25049SOL    HW277045   3.581   8.454   5.116
25050SOL     OW77046   3.058   8.779   9.273
25050SOL    HW177047   3.119   8.737   9.212
25050SOL    HW277048   3.110   8.848   9.315
25051SOL     OW77049   3.648   4.151   7.163
25051SOL    HW177050   3.567   4.100   7.166
25051SOL    HW277051   3.708   4.099   7.110
25052SOL     OW77052   1.288  12.231  13.410
25052SOL    HW177053   1.339  12.172  13.353
25052SOL    HW277054   1.203  12.189  13.417
25053SOL     OW77055   5.241  10.882   3.753
25053SOL    HW177056   5.262  10.868   3.661
25053SOL    HW277057   5.259  10.974   3.768
25054SOL     OW77058   4.427   9.066   1.745
25054SOL    HW177059   4.492   9.052   1.813
25054SOL    HW277060   4.474   9.050   1.663
25055SOL     OW77061  11.524  13.096   9.098
25055SOL    HW177062  11.559  13.035   9.033
25055SOL    HW277063  11.432  13.070   9.108
25056SOL     OW77064  10.589   3.255   5.234
25056SOL    HW177065  10.529   3.243   5.308
25056SOL    HW277066  10.631   3.339   5.251
25057SOL     OW77067   6.490  10.327  13.169
25057SOL    HW177068   6.542  10.257  13.207
25057SOL    HW277069   6.400  10.308  13.196
25058SOL     OW77070   6.934   0.513   8.785
25058SOL    HW177071   6.906   0.603   8.804
25058SOL    HW277072   7.013   0.524   8.732
25059SOL     OW77073   2.100   4.012   2.778
25059SOL    HW177074   2.151   4.093   2.777
25059SOL    HW277075   2.015   4.038   2.816
25060SOL     OW77076   0.279   4.267   5.135
25060SOL    HW177077   0.297   4.332   5.068
25060SOL    HW277078   0.320   4.187   5.103
25061SOL     OW77079   1.096   8.765   9.522
25061SOL    HW177080   1.091   8.709   9.445
25061SOL    HW277081   1.105   8.704   9.595
25062SOL     OW77082   3.051   4.814  12.236
25062SOL    HW177083   3.142   4.834  12.217
25062SOL    HW277084   3.003   4.894  12.213
25063SOL     OW77085  10.413   2.821  12.432
25063SOL    HW177086  10.489   2.764  12.442
25063SOL    HW277087  10.404   2.832  12.338
25064SOL     OW77088  12.654   8.275   2.120
25064SOL    HW177089  12.749   8.273   2.110
25064SOL    HW277090  12.626   8.187   2.095
25065SOL     OW77091   9.880   9.741   0.646
25065SOL    HW177092   9.821   9.697   0.707
25065SOL    HW277093   9.963   9.748   0.695
25066SOL     OW77094   4.710   3.818   5.641
25066SOL    HW177095   4.669   3.736   5.670
25066SOL    HW277096   4.801   3.811   5.670
25067SOL     OW77097   7.053   8.373   4.882
25067SOL    HW177098   7.031   8.393   4.973
25067SOL    HW277099   7.037   8.279   4.874
25068SOL     OW77100  14.412   0.870  14.370
25068SOL    HW177101  14.381   0.923  14.297
25068SOL    HW277102  14.364   0.902  14.446
25069SOL     OW77103  12.461  11.653  10.686
25069SOL    HW177104  12.367  11.640  10.670
25069SOL    HW277105  12.476  11.745  10.664
25070SOL     OW77106  14.442   9.738  14.409
25070SOL    HW177107  14.518   9.769  14.458
25070SOL    HW277108  14.463   9.647  14.387
25071SOL     OW77109   5.317   8.411   4.215
25071SOL    HW177110   5.411   8.432   4.217
25071SOL    HW277111   5.311   8.331   4.163
25072SOL     OW77112   1.596  12.069   3.601
25072SOL    HW177113   1.617  12.119   3.522
25072SOL    HW277114   1.501  12.058   3.598
25073SOL     OW77115   5.366   8.240  13.598
25073SOL    HW177116   5.411   8.195  13.670
25073SOL    HW277117   5.353   8.172  13.532
25074SOL     OW77118  14.384   2.959  11.974
25074SOL    HW177119  14.447   2.920  11.913
25074SOL    HW277120  14.434   3.027  12.018
25075SOL     OW77121  13.073   1.363   8.185
25075SOL    HW177122  12.979   1.369   8.203
25075SOL    HW277123  13.084   1.409   8.102
25076SOL     OW77124   0.476   8.343   6.117
25076SOL    HW177125   0.470   8.247   6.112
25076SOL    HW277126   0.401   8.368   6.171
25077SOL     OW77127   8.143   4.454  12.992
25077SOL    HW177128   8.202   4.525  12.967
25077SOL    HW277129   8.197   4.375  12.985
25078SOL     OW77130   8.633   2.793  11.327
25078SOL    HW177131   8.596   2.721  11.275
25078SOL    HW277132   8.561   2.855  11.336
25079SOL     OW77133   4.332  12.874  11.319
25079SOL    HW177134   4.292  12.797  11.358
25079SOL    HW277135   4.373  12.843  11.239
25080SOL     OW77136   7.468  12.454  10.198
25080SOL    HW177137   7.528  12.472  10.126
25080SOL    HW277138   7.522  12.413  10.265
25081SOL     OW77139   2.788  14.478   7.963
25081SOL    HW177140   2.759  14.548   8.021
25081SOL    HW277141   2.881  14.496   7.948
25082SOL     OW77142  12.418   8.036   3.091
25082SOL    HW177143  12.400   8.120   3.049
25082SOL    HW277144  12.368   7.973   3.038
25083SOL     OW77145   0.122   0.628   9.431
25083SOL    HW177146   0.101   0.539   9.459
25083SOL    HW277147   0.174   0.616   9.351
25084SOL     OW77148   7.580   7.119   8.429
25084SOL    HW177149   7.651   7.068   8.392
25084SOL    HW277150   7.601   7.210   8.408
25085SOL     OW77151   1.623   5.315   4.989
25085SOL    HW177152   1.627   5.219   4.990
25085SOL    HW277153   1.567   5.337   5.064
25086SOL     OW77154   8.289   2.548   6.973
25086SOL    HW177155   8.254   2.460   6.990
25086SOL    HW277156   8.250   2.603   7.040
25087SOL     OW77157   3.039   6.606  13.502
25087SOL    HW177158   3.016   6.658  13.579
25087SOL    HW277159   2.959   6.604  13.449
25088SOL     OW77160   4.271   3.172   5.951
25088SOL    HW177161   4.179   3.167   5.926
25088SOL    HW277162   4.283   3.262   5.981
25089SOL     OW77163  12.578   9.349  14.412
25089SOL    HW177164  12.585   9.301  14.329
25089SOL    HW277165  12.641   9.306  14.470
25090SOL     OW77166  10.673  14.654   3.480
25090SOL    HW177167  10.584  14.650   3.444
25090SOL    HW277168  10.703  14.563   3.478
25091SOL     OW77169   2.005  10.214  11.005
25091SOL    HW177170   2.012  10.193  10.912
25091SOL    HW277171   2.040  10.138  11.051
25092SOL     OW77172   7.462  13.828   1.422
25092SOL    HW177173   7.390  13.787   1.470
25092SOL    HW277174   7.426  13.912   1.394
25093SOL     OW77175   0.095  12.283  13.950
25093SOL    HW177176   0.160  12.342  13.913
25093SOL    HW277177   0.131  12.256  14.034
25094SOL     OW77178   6.538   2.169  11.494
25094SOL    HW177179   6.544   2.264  11.487
25094SOL    HW277180   6.473   2.154  11.563
25095SOL     OW77181   4.846   1.329   7.725
25095SOL    HW177182   4.860   1.307   7.633
25095SOL    HW277183   4.810   1.249   7.763
25096SOL     OW77184   8.954   9.614  14.517
25096SOL    HW177185   9.049   9.605  14.509
25096SOL    HW277186   8.931   9.678  14.449
25097SOL     OW77187   0.789   0.730   1.739
25097SOL    HW177188   0.828   0.745   1.825
25097SOL    HW277189   0.696   0.747   1.751
25098SOL     OW77190  12.006  12.362   1.901
25098SOL    HW177191  11.947  12.292   1.873
25098SOL    HW277192  12.093  12.332   1.876
25099SOL     OW77193   6.706   5.064   5.230
25099SOL    HW177194   6.735   5.155   5.220
25099SOL    HW277195   6.632   5.055   5.170
25100SOL     OW77196  14.866  12.985   6.331
25100SOL    HW177197   0.047  12.948   6.403
25100SOL    HW277198  14.850  13.076   6.356
25101SOL     OW77199   2.619  10.955   2.598
25101SOL    HW177200   2.542  10.956   2.540
25101SOL    HW277201   2.694  10.952   2.538
25102SOL     OW77202   8.811   0.402  11.971
25102SOL    HW177203   8.743   0.335  11.969
25102SOL    HW277204   8.830   0.414  12.065
25103SOL     OW77205  11.339   2.935   4.178
25103SOL    HW177206  11.391   2.977   4.110
25103SOL    HW277207  11.250   2.964   4.161
25104SOL     OW77208   4.497   7.504  12.580
25104SOL    HW177209   4.416   7.482  12.532
25104SOL    HW277210   4.469   7.565  12.648
25105SOL     OW77211   3.959   4.655  12.374
25105SOL    HW177212   3.946   4.616  12.288
25105SOL    HW277213   3.989   4.583  12.429
25106SOL     OW77214  10.197   6.761   4.727
25106SOL    HW177215  10.165   6.678   4.691
25106SOL    HW277216  10.118   6.809   4.752
25107SOL     OW77217  10.961  12.261   4.094
25107SOL    HW177218  10.969  12.356   4.083
25107SOL    HW277219  11.051  12.230   4.100
25108SOL     OW77220   5.439  14.605  14.828
25108SOL    HW177221   5.402  14.613  14.740
25108SOL    HW277222   5.443  14.511  14.844
25109SOL     OW77223   1.356   7.860   8.976
25109SOL    HW177224   1.416   7.836   9.047
25109SOL    HW277225   1.277   7.890   9.021
25110SOL     OW77226   5.525  14.737   2.105
25110SOL    HW177227   5.439  14.710   2.137
25110SOL    HW277228   5.574  14.761   2.184
25111SOL     OW77229   1.724  10.853   6.271
25111SOL    HW177230   1.726  10.776   6.327
25111SOL    HW277231   1.648  10.903   6.303
25112SOL     OW77232   0.574   4.850  12.424
25112SOL    HW177233   0.606   4.768  12.387
25112SOL    HW277234   0.501   4.875  12.368
25113SOL     OW77235   6.583   5.474   6.498
25113SOL    HW177236   6.580   5.569   6.493
25113SOL    HW277237   6.617   5.456   6.586
25114SOL     OW77238   8.878   0.421   2.029
25114SOL    HW177239   8.921   0.414   1.943
25114SOL    HW277240   8.938   0.375   2.088
25115SOL     OW77241  10.870   8.306   7.064
25115SOL    HW177242  10.825   8.299   6.980
25115SOL    HW277243  10.850   8.394   7.095
25116SOL     OW77244  11.192   1.410   1.828
25116SOL    HW177245  11.171   1.406   1.734
25116SOL    HW277246  11.194   1.319   1.856
25117SOL     OW77247  12.319   7.720   8.884
25117SOL    HW177248  12.238   7.734   8.837
25117SOL    HW277249  12.363   7.805   8.882
25118SOL     OW77250   5.449   7.082  14.318
25118SOL    HW177251   5.469   7.096  14.411
25118SOL    HW277252   5.445   7.170  14.281
25119SOL     OW77253   6.825   2.938   4.643
25119SOL    HW177254   6.896   2.881   4.614
25119SOL    HW277255   6.864   3.025   4.652
25120SOL     OW77256  12.475   8.734   9.848
25120SOL    HW177257  12.505   8.643   9.845
25120SOL    HW277258  12.532   8.777   9.911
25121SOL     OW77259  11.889   1.594   6.660
25121SOL    HW177260  11.915   1.539   6.733
25121SOL    HW277261  11.863   1.677   6.700
25122SOL     OW77262  12.676  12.233   7.527
25122SOL    HW177263  12.616  12.291   7.479
25122SOL    HW277264  12.760  12.242   7.483
25123SOL     OW77265   4.383   8.227   1.535
25123SOL    HW177266   4.456   8.173   1.505
25123SOL    HW277267   4.305   8.185   1.498
25124SOL     OW77268  12.922   6.029  13.927
25124SOL    HW177269  12.891   6.012  14.016
25124SOL    HW277270  12.897   6.120  13.910
25125SOL     OW77271   1.801   4.039  13.582
25125SOL    HW177272   1.712   4.065  13.603
25125SOL    HW277273   1.791   3.970  13.516
25126SOL     OW77274   7.150   6.338   1.053
25126SOL    HW177275   7.160   6.243   1.045
25126SOL    HW277276   7.057   6.351   1.073
25127SOL     OW77277   0.498   8.355   7.184
25127SOL    HW177278   0.473   8.340   7.275
25127SOL    HW277279   0.561   8.286   7.164
25128SOL     OW77280   6.839   2.176   9.446
25128SOL    HW177281   6.834   2.243   9.378
25128SOL    HW277282   6.932   2.173   9.470
25129SOL     OW77283   1.805   7.465   8.020
25129SOL    HW177284   1.814   7.535   8.085
25129SOL    HW277285   1.878   7.406   8.039
25130SOL     OW77286   7.872   6.930   0.053
25130SOL    HW177287   7.904   7.020   0.048
25130SOL    HW277288   7.943   6.881   0.094
25131SOL     OW77289  13.485   3.907   4.373
25131SOL    HW177290  13.434   3.988   4.376
25131SOL    HW277291  13.471   3.867   4.459
25132SOL     OW77292   0.931   6.274  14.479
25132SOL    HW177293   0.840   6.260  14.507
25132SOL    HW277294   0.944   6.211  14.408
25133SOL     OW77295   1.140   1.891   1.157
25133SOL    HW177296   1.092   1.874   1.076
25133SOL    HW277297   1.093   1.964   1.198
25134SOL     OW77298   3.318   9.717   7.679
25134SOL    HW177299   3.413   9.723   7.670
25134SOL    HW277300   3.295   9.789   7.738
25135SOL     OW77301   5.896   6.906  13.891
25135SOL    HW177302   5.911   6.916  13.985
25135SOL    HW277303   5.800   6.908  13.882
25136SOL     OW77304   0.733  11.756   1.790
25136SOL    HW177305   0.782  11.751   1.872
25136SOL    HW277306   0.780  11.698   1.730
25137SOL     OW77307   8.922   2.790  14.642
25137SOL    HW177308   8.900   2.794  14.735
25137SOL    HW277309   9.012   2.758  14.640
25138SOL     OW77310   9.895   3.457   6.840
25138SOL    HW177311   9.964   3.393   6.859
25138SOL    HW277312   9.920   3.494   6.755
25139SOL     OW77313   3.178  11.749   4.333
25139SOL    HW177314   3.111  11.691   4.295
25139SOL    HW277315   3.182  11.823   4.272
25140SOL     OW77316  14.538  13.354   6.846
25140SOL    HW177317  14.631  13.342   6.863
25140SOL    HW277318  14.505  13.404   6.921
25141SOL     OW77319   2.087  10.706   9.950
25141SOL    HW177320   2.049  10.779   9.901
25141SOL    HW277321   2.043  10.708  10.035
25142SOL     OW77322  13.928   9.371  12.212
25142SOL    HW177323  13.968   9.285  12.200
25142SOL    HW277324  13.994   9.433  12.180
25143SOL     OW77325   2.548  10.599  13.876
25143SOL    HW177326   2.463  10.558  13.860
25143SOL    HW277327   2.526  10.687  13.907
25144SOL     OW77328   2.628   2.011  10.432
25144SOL    HW177329   2.567   2.080  10.405
25144SOL    HW277330   2.632   2.018  10.527
25145SOL     OW77331   4.287   1.511   4.257
25145SOL    HW177332   4.315   1.479   4.343
25145SOL    HW277333   4.368   1.513   4.205
25146SOL     OW77334  14.711  13.616  11.341
25146SOL    HW177335  14.642  13.640  11.403
25146SOL    HW277336  14.737  13.698  11.300
25147SOL     OW77337   7.901  14.271   2.930
25147SOL    HW177338   7.910  14.329   3.005
25147SOL    HW277339   7.873  14.187   2.967
25148SOL     OW77340  13.311   7.923  14.781
25148SOL    HW177341  13.349   7.845  14.821
25148SOL    HW277342  13.265   7.892  14.704
25149SOL     OW77343   1.837   2.068   4.769
25149SOL    HW177344   1.802   2.011   4.699
25149SOL    HW277345   1.786   2.148   4.762
25150SOL     OW77346   2.909  11.836  14.391
25150SOL    HW177347   2.814  11.823  14.386
25150SOL    HW277348   2.921  11.927  14.364
25151SOL     OW77349   1.105   3.804   6.873
25151SOL    HW177350   1.040   3.851   6.821
25151SOL    HW277351   1.111   3.718   6.833
25152SOL     OW77352  11.630   8.431   2.496
25152SOL    HW177353  11.668   8.359   2.545
25152SOL    HW277354  11.600   8.392   2.414
25153SOL     OW77355  11.453   7.711   4.875
25153SOL    HW177356  11.379   7.764   4.846
25153SOL    HW277357  11.530   7.764   4.856
25154SOL     OW77358  11.182  11.491   2.960
25154SOL    HW177359  11.171  11.408   2.913
25154SOL    HW277360  11.267  11.524   2.929
25155SOL     OW77361  11.539  12.210   3.066
25155SOL    HW177362  11.635  12.210   3.073
25155SOL    HW277363  11.511  12.136   3.120
25156SOL     OW77364   1.617   9.349   4.558
25156SOL    HW177365   1.598   9.260   4.589
25156SOL    HW277366   1.630   9.400   4.638
25157SOL     OW77367   7.753   2.075   1.189
25157SOL    HW177368   7.789   1.992   1.161
25157SOL    HW277369   7.820   2.140   1.168
25158SOL     OW77370   2.395   3.302   6.478
25158SOL    HW177371   2.356   3.280   6.394
25158SOL    HW277372   2.478   3.254   6.479
25159SOL     OW77373   4.055  14.268  11.408
25159SOL    HW177374   4.149  14.255  11.419
25159SOL    HW277375   4.016  14.234  11.489
25160SOL     OW77376   2.851  11.282   1.421
25160SOL    HW177377   2.893  11.241   1.497
25160SOL    HW277378   2.863  11.219   1.350
25161SOL     OW77379   3.963   0.923   0.648
25161SOL    HW177380   3.946   0.834   0.677
25161SOL    HW277381   4.003   0.966   0.724
25162SOL     OW77382   9.542   0.503  12.228
25162SOL    HW177383   9.560   0.578  12.284
25162SOL    HW277384   9.454   0.475  12.253
25163SOL     OW77385   9.151  13.447   4.357
25163SOL    HW177386   9.092  13.426   4.430
25163SOL    HW277387   9.096  13.497   4.296
25164SOL     OW77388   3.430   2.854  10.438
25164SOL    HW177389   3.446   2.819  10.525
25164SOL    HW277390   3.515   2.852  10.395
25165SOL     OW77391   3.162   4.814   7.762
25165SOL    HW177392   3.179   4.796   7.669
25165SOL    HW277393   3.249   4.824   7.800
25166SOL     OW77394   1.895  14.637   5.803
25166SOL    HW177395   1.973  14.661   5.853
25166SOL    HW277396   1.892  14.542   5.808
25167SOL     OW77397   5.844   3.361   0.147
25167SOL    HW177398   5.839   3.446   0.103
25167SOL    HW277399   5.846   3.297   0.076
25168SOL     OW77400   9.135   6.844   8.056
25168SOL    HW177401   9.146   6.938   8.040
25168SOL    HW277402   9.047   6.825   8.023
25169SOL     OW77403   3.621  11.831   9.411
25169SOL    HW177404   3.689  11.895   9.390
25169SOL    HW277405   3.570  11.872   9.480
25170SOL     OW77406   1.098   1.215   7.478
25170SOL    HW177407   1.179   1.229   7.429
25170SOL    HW277408   1.114   1.259   7.562
25171SOL     OW77409  12.373   2.241  10.414
25171SOL    HW177410  12.448   2.211  10.362
25171SOL    HW277411  12.413   2.279  10.493
25172SOL     OW77412   9.877   3.146   0.270
25172SOL    HW177413   9.969   3.141   0.244
25172SOL    HW277414   9.832   3.082   0.214
25173SOL     OW77415   1.505  13.815   0.129
25173SOL    HW177416   1.511  13.886   0.193
25173SOL    HW277417   1.412  13.793   0.126
25174SOL     OW77418   8.618  10.612   3.159
25174SOL    HW177419   8.551  10.659   3.109
25174SOL    HW277420   8.675  10.681   3.192
25175SOL     OW77421  11.655   4.841   1.338
25175SOL    HW177422  11.596   4.797   1.399
25175SOL    HW277423  11.610   4.923   1.317
25176SOL     OW77424   0.838   6.333   6.369
25176SOL    HW177425   0.824   6.372   6.455
25176SOL    HW277426   0.758   6.351   6.320
25177SOL     OW77427  10.835   6.371   5.187
25177SOL    HW177428  10.747   6.360   5.151
25177SOL    HW277429  10.833   6.325   5.271
25178SOL     OW77430   2.966   0.795   5.683
25178SOL    HW177431   3.011   0.775   5.765
25178SOL    HW277432   2.922   0.879   5.700
25179SOL     OW77433  13.749   9.302   7.598
25179SOL    HW177434  13.735   9.364   7.669
25179SOL    HW277435  13.839   9.317   7.569
25180SOL     OW77436   3.241   2.859   4.475
25180SOL    HW177437   3.235   2.881   4.382
25180SOL    HW277438   3.173   2.912   4.517
25181SOL     OW77439   9.736   6.175  11.521
25181SOL    HW177440   9.818   6.191  11.474
25181SOL    HW277441   9.745   6.224  11.603
25182SOL     OW77442  12.252   4.403  10.834
25182SOL    HW177443  12.312   4.377  10.904
25182SOL    HW277444  12.268   4.341  10.764
25183SOL     OW77445   5.887  14.636   2.335
25183SOL    HW177446   5.829  14.563   2.357
25183SOL    HW277447   5.939  14.604   2.262
25184SOL     OW77448  14.261  10.241   2.411
25184SOL    HW177449  14.322  10.305   2.448
25184SOL    HW277450  14.269  10.253   2.316
25185SOL     OW77451   2.034   0.844  14.628
25185SOL    HW177452   2.027   0.748  14.634
25185SOL    HW277453   2.045   0.872  14.719
25186SOL     OW77454  14.611   4.323   7.245
25186SOL    HW177455  14.638   4.392   7.306
25186SOL    HW277456  14.679   4.256   7.254
25187SOL     OW77457   6.741   1.358   5.583
25187SOL    HW177458   6.815   1.357   5.645
25187SOL    HW277459   6.686   1.430   5.613
25188SOL     OW77460  13.811  13.120   0.500
25188SOL    HW177461  13.778  13.084   0.582
25188SOL    HW277462  13.734  13.125   0.443
25189SOL     OW77463  13.135   9.618  12.686
25189SOL    HW177464  13.126   9.712  12.703
25189SOL    HW277465  13.046   9.584  12.694
25190SOL     OW77466   3.730   3.718   5.128
25190SOL    HW177467   3.797   3.701   5.194
25190SOL    HW277468   3.739   3.812   5.109
25191SOL     OW77469   6.534  10.541   6.918
25191SOL    HW177470   6.561  10.626   6.951
25191SOL    HW277471   6.612  10.486   6.926
25192SOL     OW77472   8.025   3.393   2.333
25192SOL    HW177473   8.051   3.340   2.257
25192SOL    HW277474   8.088   3.369   2.401
25193SOL     OW77475   8.048   7.912  14.007
25193SOL    HW177476   7.959   7.948  14.017
25193SOL    HW277477   8.098   7.954  14.077
25194SOL     OW77478   3.664  12.703   7.218
25194SOL    HW177479   3.744  12.672   7.259
25194SOL    HW277480   3.685  12.791   7.188
25195SOL     OW77481   8.377   2.101   9.131
25195SOL    HW177482   8.402   2.016   9.166
25195SOL    HW277483   8.453   2.157   9.147
25196SOL     OW77484   6.734  13.744   1.284
25196SOL    HW177485   6.774  13.789   1.209
25196SOL    HW277486   6.729  13.652   1.257
25197SOL     OW77487   4.814  11.031   5.028
25197SOL    HW177488   4.807  10.980   4.947
25197SOL    HW277489   4.797  10.968   5.098
25198SOL     OW77490   0.873  13.005  10.203
25198SOL    HW177491   0.899  12.934  10.263
25198SOL    HW277492   0.787  13.032  10.235
25199SOL     OW77493   4.440   2.865  14.683
25199SOL    HW177494   4.362   2.883  14.631
25199SOL    HW277495   4.474   2.951  14.707
25200SOL     OW77496   5.535  13.584   5.782
25200SOL    HW177497   5.565  13.664   5.825
25200SOL    HW277498   5.597  13.569   5.712
25201SOL     OW77499   2.260   9.795   8.717
25201SOL    HW177500   2.179   9.759   8.680
25201SOL    HW277501   2.242   9.804   8.810
25202SOL     OW77502   5.677   8.169   8.162
25202SOL    HW177503   5.641   8.181   8.250
25202SOL    HW277504   5.699   8.076   8.157
25203SOL     OW77505  11.968  10.553   6.131
25203SOL    HW177506  11.964  10.469   6.176
25203SOL    HW277507  11.907  10.609   6.179
25204SOL     OW77508   8.780  12.671   7.120
25204SOL    HW177509   8.746  12.715   7.198
25204SOL    HW277510   8.835  12.601   7.155
25205SOL     OW77511  13.055   3.501   9.520
25205SOL    HW177512  13.032   3.453   9.441
25205SOL    HW277513  12.996   3.575   9.522
25206SOL     OW77514  12.478   2.922   4.139
25206SOL    HW177515  12.416   2.980   4.184
25206SOL    HW277516  12.493   2.850   4.201
25207SOL     OW77517   8.879  11.907   9.346
25207SOL    HW177518   8.885  11.849   9.422
25207SOL    HW277519   8.968  11.939   9.333
25208SOL     OW77520   0.845   9.510  11.203
25208SOL    HW177521   0.856   9.417  11.184
25208SOL    HW277522   0.908   9.527  11.273
25209SOL     OW77523  10.173   9.112   9.753
25209SOL    HW177524  10.138   9.159   9.828
25209SOL    HW277525  10.156   9.170   9.678
25210SOL     OW77526   9.765   5.221   1.744
25210SOL    HW177527   9.684   5.217   1.692
25210SOL    HW277528   9.755   5.152   1.809
25211SOL     OW77529  13.967   2.736   5.896
25211SOL    HW177530  14.019   2.745   5.976
25211SOL    HW277531  13.947   2.826   5.870
25212SOL     OW77532   1.422   6.205  13.981
25212SOL    HW177533   1.500   6.198  14.036
25212SOL    HW277534   1.389   6.294  13.997
25213SOL     OW77535   2.180   5.171   7.578
25213SOL    HW177536   2.190   5.162   7.483
25213SOL    HW277537   2.210   5.088   7.614
25214SOL     OW77538   5.489   8.822  13.142
25214SOL    HW177539   5.497   8.914  13.117
25214SOL    HW277540   5.561   8.778  13.097
25215SOL     OW77541  13.903  14.178   3.878
25215SOL    HW177542  13.901  14.108   3.813
25215SOL    HW277543  13.850  14.248   3.840
25216SOL     OW77544   1.487  10.552  14.073
25216SOL    HW177545   1.546  10.626  14.060
25216SOL    HW277546   1.453  10.533  13.985
25217SOL     OW77547  12.984   5.299   5.372
25217SOL    HW177548  12.951   5.385   5.347
25217SOL    HW277549  13.017   5.262   5.290
25218SOL     OW77550   6.386  14.317   9.292
25218SOL    HW177551   6.340  14.236   9.271
25218SOL    HW277552   6.371  14.374   9.217
25219SOL     OW77553  10.923  11.988  11.147
25219SOL    HW177554  10.931  11.895  11.127
25219SOL    HW277555  11.011  12.014  11.176
25220SOL     OW77556   2.043   7.724  11.712
25220SOL    HW177557   2.080   7.668  11.780
25220SOL    HW277558   1.979   7.669  11.668
25221SOL     OW77559  13.675   8.874   3.782
25221SOL    HW177560  13.615   8.832   3.720
25221SOL    HW277561  13.618   8.927   3.839
25222SOL     OW77562   3.298   7.474  12.736
25222SOL    HW177563   3.353   7.541  12.777
25222SOL    HW277564   3.208   7.507  12.747
25223SOL     OW77565   1.791  12.045   6.215
25223SOL    HW177566   1.707  12.046   6.261
25223SOL    HW277567   1.855  12.065   6.283
25224SOL     OW77568   2.775  10.967  14.847
25224SOL    HW177569   2.746  10.888  14.799
25224SOL    HW277570   2.771  10.941   0.070
25225SOL     OW77571   1.148  10.075   5.260
25225SOL    HW177572   1.140   9.989   5.219
25225SOL    HW277573   1.064  10.088   5.304
25226SOL     OW77574   5.900   0.882   7.627
25226SOL    HW177575   5.836   0.862   7.696
25226SOL    HW277576   5.964   0.938   7.670
25227SOL     OW77577   9.224   5.606  10.418
25227SOL    HW177578   9.247   5.517  10.444
25227SOL    HW277579   9.279   5.662  10.474
25228SOL     OW77580   0.261  13.792  14.206
25228SOL    HW177581   0.235  13.703  14.183
25228SOL    HW277582   0.189  13.847  14.175
25229SOL     OW77583  10.747   1.706   5.346
25229SOL    HW177584  10.793   1.779   5.387
25229SOL    HW277585  10.753   1.722   5.252
25230SOL     OW77586   4.215  10.046  13.668
25230SOL    HW177587   4.122  10.047  13.647
25230SOL    HW277588   4.258  10.085  13.592
25231SOL     OW77589   3.571   9.848   9.740
25231SOL    HW177590   3.512   9.899   9.684
25231SOL    HW277591   3.567   9.892   9.825
25232SOL     OW77592   4.915   0.862   2.694
25232SOL    HW177593   4.866   0.854   2.613
25232SOL    HW277594   4.858   0.825   2.761
25233SOL     OW77595   7.258   4.987   2.177
25233SOL    HW177596   7.253   5.082   2.166
25233SOL    HW277597   7.318   4.958   2.108
25234SOL     OW77598   9.636  12.602   4.939
25234SOL    HW177599   9.585  12.521   4.933
25234SOL    HW277600   9.574  12.670   4.913
25235SOL     OW77601   2.977   2.388  14.447
25235SOL    HW177602   2.938   2.326  14.386
25235SOL    HW277603   3.069   2.360  14.454
25236SOL     OW77604   2.242  12.997  10.403
25236SOL    HW177605   2.193  13.037  10.475
25236SOL    HW277606   2.271  13.072  10.350
25237SOL     OW77607   0.257   5.517  11.555
25237SOL    HW177608   0.197   5.578  11.599
25237SOL    HW277609   0.299   5.570  11.487
25238SOL     OW77610   4.539  14.793  10.239
25238SOL    HW177611   4.591  14.857  10.191
25238SOL    HW277612   4.583  14.784  10.323
25239SOL     OW77613   8.725   6.739   5.643
25239SOL    HW177614   8.799   6.795   5.616
25239SOL    HW277615   8.654   6.800   5.661
25240SOL     OW77616  14.086   0.022   9.550
25240SOL    HW177617  14.076   0.040   9.644
25240SOL    HW277618  14.171  14.850   9.542
25241SOL     OW77619   8.525   5.966   6.857
25241SOL    HW177620   8.546   5.973   6.764
25241SOL    HW277621   8.494   6.053   6.882
25242SOL     OW77622   1.122  12.284   6.626
25242SOL    HW177623   1.038  12.242   6.605
25242SOL    HW277624   1.123  12.291   6.721
25243SOL     OW77625   7.173   3.164   4.061
25243SOL    HW177626   7.088   3.202   4.085
25243SOL    HW277627   7.152   3.102   3.991
25244SOL     OW77628   4.539   7.124  14.097
25244SOL    HW177629   4.476   7.121  14.025
25244SOL    HW277630   4.495   7.078  14.168
25245SOL     OW77631   4.947  10.711   4.661
25245SOL    HW177632   5.009  10.660   4.713
25245SOL    HW277633   4.879  10.736   4.723
25246SOL     OW77634   6.655   8.814   8.706
25246SOL    HW177635   6.711   8.870   8.760
25246SOL    HW277636   6.587   8.784   8.767
25247SOL     OW77637   1.491  13.349  11.091
25247SOL    HW177638   1.425  13.296  11.045
25247SOL    HW277639   1.442  13.423  11.126
25248SOL     OW77640   0.844   4.628  10.764
25248SOL    HW177641   0.901   4.693  10.807
25248SOL    HW277642   0.854   4.549  10.818
25249SOL     OW77643   1.729  11.801   6.970
25249SOL    HW177644   1.658  11.826   6.910
25249SOL    HW277645   1.726  11.867   7.039
25250SOL     OW77646   6.619   5.076   2.283
25250SOL    HW177647   6.583   5.142   2.224
25250SOL    HW277648   6.548   5.011   2.292
25251SOL     OW77649   6.298   1.464   6.262
25251SOL    HW177650   6.243   1.451   6.184
25251SOL    HW277651   6.360   1.391   6.260
25252SOL     OW77652  14.386  13.089  10.315
25252SOL    HW177653  14.404  13.089  10.221
25252SOL    HW277654  14.454  13.144  10.353
25253SOL     OW77655   4.821  10.356  13.171
25253SOL    HW177656   4.785  10.281  13.124
25253SOL    HW277657   4.746  10.413  13.187
25254SOL     OW77658   6.130   7.785  12.802
25254SOL    HW177659   6.061   7.820  12.745
25254SOL    HW277660   6.172   7.863  12.838
25255SOL     OW77661   1.783   3.129   5.774
25255SOL    HW177662   1.832   3.087   5.704
25255SOL    HW277663   1.793   3.070   5.849
25256SOL     OW77664   7.045   8.867   3.842
25256SOL    HW177665   6.997   8.915   3.909
25256SOL    HW277666   7.078   8.789   3.887
25257SOL     OW77667  10.439   1.791   2.290
25257SOL    HW177668  10.379   1.848   2.336
25257SOL    HW277669  10.395   1.706   2.287
25258SOL     OW77670  10.891  11.171   9.150
25258SOL    HW177671  10.960  11.176   9.084
25258SOL    HW277672  10.876  11.262   9.176
25259SOL     OW77673  11.352   1.720  14.271
25259SOL    HW177674  11.442   1.688  14.258
25259SOL    HW277675  11.346   1.739  14.364
25260SOL     OW77676   8.742   8.203   1.856
25260SOL    HW177677   8.690   8.276   1.822
25260SOL    HW277678   8.678   8.139   1.885
25261SOL     OW77679  12.391  14.220   6.901
25261SOL    HW177680  12.458  14.248   6.964
25261SOL    HW277681  12.403  14.279   6.826
25262SOL     OW77682  12.110   6.850   2.808
25262SOL    HW177683  12.043   6.784   2.789
25262SOL    HW277684  12.063   6.919   2.854
25263SOL     OW77685  10.277   6.440   3.304
25263SOL    HW177686  10.206   6.491   3.265
25263SOL    HW277687  10.293   6.481   3.389
25264SOL     OW77688   6.021   8.844   5.059
25264SOL    HW177689   6.019   8.772   4.996
25264SOL    HW277690   5.963   8.911   5.022
25265SOL     OW77691   3.353   3.328   2.896
25265SOL    HW177692   3.323   3.419   2.892
25265SOL    HW277693   3.299   3.288   2.964
25266SOL     OW77694   5.261  11.316   7.484
25266SOL    HW177695   5.191  11.330   7.548
25266SOL    HW277696   5.301  11.402   7.473
25267SOL     OW77697  11.456   6.774  11.470
25267SOL    HW177698  11.372   6.770  11.425
25267SOL    HW277699  11.443   6.722  11.550
25268SOL     OW77700  10.394   3.628   4.457
25268SOL    HW177701  10.470   3.614   4.514
25268SOL    HW277702  10.401   3.719   4.429
25269SOL     OW77703  10.565   5.346   4.760
25269SOL    HW177704  10.609   5.430   4.744
25269SOL    HW277705  10.486   5.370   4.808
25270SOL     OW77706   3.331   3.653   3.115
25270SOL    HW177707   3.419   3.679   3.142
25270SOL    HW277708   3.295   3.609   3.192
25271SOL     OW77709   7.815  13.639   6.617
25271SOL    HW177710   7.784  13.727   6.639
25271SOL    HW277711   7.894  13.628   6.669
25272SOL     OW77712  10.838   0.247   4.038
25272SOL    HW177713  10.914   0.281   3.990
25272SOL    HW277714  10.870   0.231   4.126
25273SOL     OW77715   7.974  11.761   8.902
25273SOL    HW177716   8.062  11.739   8.871
25273SOL    HW277717   7.953  11.844   8.858
25274SOL     OW77718   8.181   0.018   6.056
25274SOL    HW177719   8.211  14.811   6.005
25274SOL    HW277720   8.170  14.854   6.145
25275SOL     OW77721  10.251   0.542   3.925
25275SOL    HW177722  10.294   0.567   4.006
25275SOL    HW277723  10.276   0.609   3.862
25276SOL     OW77724  11.251   3.554   8.476
25276SOL    HW177725  11.246   3.510   8.561
25276SOL    HW277726  11.305   3.496   8.422
25277SOL     OW77727   5.328  14.832   7.480
25277SOL    HW177728   5.241  14.839   7.442
25277SOL    HW277729   5.368   0.048   7.464
25278SOL     OW77730   5.557   9.102  11.751
25278SOL    HW177731   5.581   9.063  11.668
25278SOL    HW277732   5.534   9.028  11.807
25279SOL     OW77733   8.893   0.848   5.837
25279SOL    HW177734   8.891   0.754   5.857
25279SOL    HW277735   8.987   0.868   5.828
25280SOL     OW77736   0.372  12.838   2.555
25280SOL    HW177737   0.282  12.867   2.539
25280SOL    HW277738   0.413  12.911   2.600
25281SOL     OW77739   9.616   0.637  12.463
25281SOL    HW177740   9.646   0.548  12.480
25281SOL    HW277741   9.532   0.643  12.508
25282SOL     OW77742  14.195  14.624   3.145
25282SOL    HW177743  14.261  14.691   3.130
25282SOL    HW277744  14.243  14.542   3.148
25283SOL     OW77745  13.621  13.004   5.602
25283SOL    HW177746  13.708  12.975   5.575
25283SOL    HW277747  13.637  13.064   5.674
25284SOL     OW77748  11.526   0.751  13.456
25284SOL    HW177749  11.460   0.745  13.387
25284SOL    HW277750  11.477   0.773  13.535
25285SOL     OW77751   5.116   3.445  12.302
25285SOL    HW177752   5.195   3.473  12.257
25285SOL    HW277753   5.143   3.431  12.393
25286SOL     OW77754   8.647   7.476   3.152
25286SOL    HW177755   8.642   7.516   3.239
25286SOL    HW277756   8.603   7.392   3.162
25287SOL     OW77757   3.146  13.296  13.495
25287SOL    HW177758   3.129  13.297  13.401
25287SOL    HW277759   3.161  13.388  13.517
25288SOL     OW77760  13.000   8.158  10.256
25288SOL    HW177761  13.062   8.204  10.314
25288SOL    HW277762  13.007   8.066  10.282
25289SOL     OW77763   9.078   2.350   1.240
25289SOL    HW177764   9.097   2.273   1.185
25289SOL    HW277765   8.991   2.378   1.213
25290SOL     OW77766   6.766   2.523   3.999
25290SOL    HW177767   6.803   2.611   3.989
25290SOL    HW277768   6.704   2.514   3.927
25291SOL     OW77769  12.962   4.457   9.237
25291SOL    HW177770  12.965   4.405   9.317
25291SOL    HW277771  12.885   4.425   9.190
25292SOL     OW77772  10.588   6.208   1.876
25292SOL    HW177773  10.589   6.301   1.855
25292SOL    HW277774  10.497   6.187   1.893
25293SOL     OW77775   1.584   6.505  11.544
25293SOL    HW177776   1.515   6.571  11.536
25293SOL    HW277777   1.565   6.462  11.628
25294SOL     OW77778   7.491   5.830   7.140
25294SOL    HW177779   7.514   5.845   7.049
25294SOL    HW277780   7.473   5.918   7.175
25295SOL     OW77781  12.345   6.724   0.337
25295SOL    HW177782  12.384   6.680   0.413
25295SOL    HW277783  12.297   6.654   0.292
25296SOL     OW77784   3.259   7.350   0.421
25296SOL    HW177785   3.207   7.428   0.399
25296SOL    HW277786   3.195   7.287   0.452
25297SOL     OW77787   8.411   7.466   8.646
25297SOL    HW177788   8.454   7.429   8.723
25297SOL    HW277789   8.338   7.516   8.680
25298SOL     OW77790   8.950   8.397   4.589
25298SOL    HW177791   9.043   8.387   4.572
25298SOL    HW277792   8.938   8.367   4.679
25299SOL     OW77793   4.326   2.129   5.254
25299SOL    HW177794   4.414   2.101   5.282
25299SOL    HW277795   4.338   2.219   5.224
25300SOL     OW77796   3.011  10.157   1.872
25300SOL    HW177797   2.965  10.232   1.911
25300SOL    HW277798   2.952  10.083   1.887
25301SOL     OW77799  11.286   5.040   3.534
25301SOL    HW177800  11.265   5.133   3.521
25301SOL    HW277801  11.378   5.033   3.507
25302SOL     OW77802   7.978  14.306   1.056
25302SOL    HW177803   7.937  14.245   0.994
25302SOL    HW277804   7.905  14.358   1.090
25303SOL     OW77805  12.021   7.407  14.411
25303SOL    HW177806  11.930   7.378  14.422
25303SOL    HW277807  12.074   7.335  14.444
25304SOL     OW77808   0.283   5.957   5.006
25304SOL    HW177809   0.272   6.021   4.936
25304SOL    HW277810   0.367   5.980   5.046
25305SOL     OW77811   6.543   3.892   1.703
25305SOL    HW177812   6.515   3.975   1.741
25305SOL    HW277813   6.464   3.855   1.663
25306SOL     OW77814  10.528  12.080   5.647
25306SOL    HW177815  10.489  12.155   5.691
25306SOL    HW277816  10.570  12.030   5.717
25307SOL     OW77817  13.263  14.366   0.741
25307SOL    HW177818  13.208  14.310   0.688
25307SOL    HW277819  13.322  14.306   0.787
25308SOL     OW77820  13.007   2.807  14.134
25308SOL    HW177821  13.079   2.818  14.072
25308SOL    HW277822  13.017   2.879  14.196
25309SOL     OW77823   1.163  11.733   8.034
25309SOL    HW177824   1.247  11.745   7.991
25309SOL    HW277825   1.178  11.761   8.124
25310SOL     OW77826   8.250   2.917   6.988
25310SOL    HW177827   8.200   2.949   7.062
25310SOL    HW277828   8.193   2.852   6.946
25311SOL     OW77829  11.836   5.022  13.493
25311SOL    HW177830  11.856   5.114  13.514
25311SOL    HW277831  11.811   4.984  13.577
25312SOL     OW77832  11.075  13.506   9.039
25312SOL    HW177833  11.106  13.563   9.109
25312SOL    HW277834  10.980  13.499   9.053
25313SOL     OW77835  10.088   2.351   3.617
25313SOL    HW177836  10.038   2.285   3.570
25313SOL    HW277837  10.025   2.421   3.635
25314SOL     OW77838  10.670  11.228   4.433
25314SOL    HW177839  10.598  11.194   4.485
25314SOL    HW277840  10.649  11.320   4.420
25315SOL     OW77841   3.538   0.104   5.337
25315SOL    HW177842   3.447   0.087   5.313
25315SOL    HW277843   3.533   0.157   5.417
25316SOL     OW77844  11.312   0.556  11.028
25316SOL    HW177845  11.313   0.642  10.985
25316SOL    HW277846  11.223   0.547  11.061
25317SOL     OW77847   2.477   2.829  10.553
25317SOL    HW177848   2.435   2.850  10.637
25317SOL    HW277849   2.501   2.915  10.517
25318SOL     OW77850   9.994  12.809   0.625
25318SOL    HW177851   9.932  12.792   0.554
25318SOL    HW277852   9.943  12.794   0.705
25319SOL     OW77853   8.574   9.894   4.172
25319SOL    HW177854   8.541   9.805   4.171
25319SOL    HW277855   8.496   9.949   4.161
25320SOL     OW77856   7.997   5.685   4.763
25320SOL    HW177857   8.042   5.612   4.806
25320SOL    HW277858   7.907   5.679   4.795
25321SOL     OW77859   0.168   4.208  14.163
25321SOL    HW177860   0.213   4.170  14.088
25321SOL    HW277861   0.163   4.302  14.143
25322SOL     OW77862  12.052  13.633   7.439
25322SOL    HW177863  12.041  13.708   7.380
25322SOL    HW277864  12.057  13.557   7.380
25323SOL     OW77865  14.057   3.449  14.869
25323SOL    HW177866  14.054   3.363   0.041
25323SOL    HW277867  13.976   3.454  14.818
25324SOL     OW77868   7.132   4.315   6.871
25324SOL    HW177869   7.105   4.382   6.933
25324SOL    HW277870   7.210   4.351   6.829
25325SOL     OW77871   7.379   6.194   1.748
25325SOL    HW177872   7.452   6.133   1.741
25325SOL    HW277873   7.301   6.142   1.729
25326SOL     OW77874  11.347   1.769  10.695
25326SOL    HW177875  11.383   1.825  10.765
25326SOL    HW277876  11.318   1.690  10.740
25327SOL     OW77877   9.794   8.083   2.365
25327SOL    HW177878   9.878   8.116   2.335
25327SOL    HW277879   9.799   7.988   2.352
25328SOL     OW77880   6.203   9.291  12.759
25328SOL    HW177881   6.254   9.359  12.715
25328SOL    HW277882   6.268   9.238  12.805
25329SOL     OW77883  12.283   9.805   7.148
25329SOL    HW177884  12.350   9.749   7.109
25329SOL    HW277885  12.332   9.870   7.198
25330SOL     OW77886  10.281   2.383   9.177
25330SOL    HW177887  10.274   2.478   9.176
25330SOL    HW277888  10.276   2.359   9.270
25331SOL     OW77889   7.716   5.754   1.902
25331SOL    HW177890   7.800   5.794   1.881
25331SOL    HW277891   7.731   5.660   1.892
25332SOL     OW77892   3.938   8.753   1.635
25332SOL    HW177893   3.971   8.664   1.651
25332SOL    HW277894   3.873   8.768   1.705
25333SOL     OW77895   0.335  14.166  10.970
25333SOL    HW177896   0.250  14.162  11.015
25333SOL    HW277897   0.399  14.148  11.039
25334SOL     OW77898   6.654   7.849   7.183
25334SOL    HW177899   6.574   7.835   7.131
25334SOL    HW277900   6.646   7.939   7.216
25335SOL     OW77901   2.786   8.541   0.934
25335SOL    HW177902   2.731   8.476   0.890
25335SOL    HW277903   2.844   8.489   0.991
25336SOL     OW77904   2.619   7.163  10.573
25336SOL    HW177905   2.649   7.189  10.486
25336SOL    HW277906   2.659   7.226  10.633
25337SOL     OW77907   8.851  13.151  13.657
25337SOL    HW177908   8.821  13.184  13.741
25337SOL    HW277909   8.937  13.192  13.644
25338SOL     OW77910   0.654   0.196   3.345
25338SOL    HW177911   0.732   0.183   3.291
25338SOL    HW277912   0.676   0.270   3.402
25339SOL     OW77913   7.490  13.538  12.321
25339SOL    HW177914   7.480  13.467  12.258
25339SOL    HW277915   7.552  13.505  12.386
25340SOL     OW77916  10.477  12.316  10.878
25340SOL    HW177917  10.404  12.336  10.936
25340SOL    HW277918  10.517  12.401  10.859
25341SOL     OW77919  14.625   1.243   4.026
25341SOL    HW177920  14.660   1.192   3.954
25341SOL    HW277921  14.633   1.334   3.998
25342SOL     OW77922   4.201   1.226  11.378
25342SOL    HW177923   4.139   1.154  11.386
25342SOL    HW277924   4.257   1.219  11.455
25343SOL     OW77925   6.209   6.028  10.579
25343SOL    HW177926   6.143   6.030  10.510
25343SOL    HW277927   6.233   6.120  10.592
25344SOL     OW77928  11.310  13.954   8.557
25344SOL    HW177929  11.323  13.917   8.470
25344SOL    HW277930  11.362  13.898   8.615
25345SOL     OW77931   7.518   7.847   7.846
25345SOL    HW177932   7.595   7.866   7.900
25345SOL    HW277933   7.473   7.931   7.838
25346SOL     OW77934   9.546   9.954   4.977
25346SOL    HW177935   9.586   9.963   5.064
25346SOL    HW277936   9.617   9.972   4.916
25347SOL     OW77937   0.511   6.309   9.817
25347SOL    HW177938   0.560   6.387   9.844
25347SOL    HW277939   0.450   6.293   9.888
25348SOL     OW77940  12.590   8.308   4.477
25348SOL    HW177941  12.659   8.345   4.531
25348SOL    HW277942  12.510   8.321   4.527
25349SOL     OW77943  13.765   2.239   7.890
25349SOL    HW177944  13.695   2.286   7.846
25349SOL    HW277945  13.807   2.188   7.821
25350SOL     OW77946  12.047   2.275   6.294
25350SOL    HW177947  12.060   2.369   6.294
25350SOL    HW277948  12.014   2.255   6.382
25351SOL     OW77949   0.750   2.940   3.454
25351SOL    HW177950   0.823   2.887   3.485
25351SOL    HW277951   0.766   2.951   3.361
25352SOL     OW77952   5.986   1.612   1.571
25352SOL    HW177953   6.049   1.683   1.555
25352SOL    HW277954   5.906   1.657   1.599
25353SOL     OW77955   7.093   4.313  10.610
25353SOL    HW177956   7.006   4.341  10.641
25353SOL    HW277957   7.081   4.221  10.586
25354SOL     OW77958   0.745   7.985   6.349
25354SOL    HW177959   0.700   7.902   6.338
25354SOL    HW277960   0.736   8.029   6.264
25355SOL     OW77961   4.435   8.766   0.582
25355SOL    HW177962   4.510   8.749   0.639
25355SOL    HW277963   4.415   8.681   0.543
25356SOL     OW77964  12.501   0.927  14.523
25356SOL    HW177965  12.559   0.897  14.593
25356SOL    HW277966  12.560   0.967  14.459
25357SOL     OW77967  10.350   9.601   3.911
25357SOL    HW177968  10.351   9.639   3.999
25357SOL    HW277969  10.409   9.526   3.918
25358SOL     OW77970   6.007   8.316   7.707
25358SOL    HW177971   6.028   8.224   7.726
25358SOL    HW277972   6.017   8.360   7.791
25359SOL     OW77973   7.591   7.944   7.470
25359SOL    HW177974   7.624   8.028   7.504
25359SOL    HW277975   7.509   7.930   7.518
25360SOL     OW77976  12.819   6.607   7.700
25360SOL    HW177977  12.811   6.701   7.687
25360SOL    HW277978  12.912   6.589   7.689
25361SOL     OW77979   7.494   9.913   0.306
25361SOL    HW177980   7.427   9.979   0.288
25361SOL    HW277981   7.568   9.937   0.251
25362SOL     OW77982   6.043   5.857   8.167
25362SOL    HW177983   5.957   5.870   8.129
25362SOL    HW277984   6.034   5.777   8.220
25363SOL     OW77985   4.121   5.816   1.739
25363SOL    HW177986   4.071   5.884   1.695
25363SOL    HW277987   4.074   5.734   1.719
25364SOL     OW77988   3.764   8.370   9.383
25364SOL    HW177989   3.834   8.372   9.448
25364SOL    HW277990   3.696   8.427   9.419
25365SOL     OW77991   6.212  12.668   7.507
25365SOL    HW177992   6.238  12.659   7.415
25365SOL    HW277993   6.124  12.631   7.510
25366SOL     OW77994   7.083  10.233   4.023
25366SOL    HW177995   7.029  10.160   4.054
25366SOL    HW277996   7.126  10.200   3.945
25367SOL     OW77997   3.164   6.753   2.225
25367SOL    HW177998   3.144   6.669   2.185
25367SOL    HW277999   3.218   6.798   2.161
25368SOL     OW78000   6.120   2.894   8.496
25368SOL    HW178001   6.209   2.905   8.462
25368SOL    HW278002   6.064   2.899   8.418
25369SOL     OW78003  10.107  11.424   9.510
25369SOL    HW178004  10.036  11.385   9.560
25369SOL    HW278005  10.107  11.376   9.427
25370SOL     OW78006   0.569   8.913   5.257
25370SOL    HW178007   0.478   8.897   5.281
25370SOL    HW278008   0.612   8.941   5.338
25371SOL     OW78009  11.149  14.623   8.088
25371SOL    HW178010  11.232  14.597   8.127
25371SOL    HW278011  11.166  14.709   8.049
25372SOL     OW78012   2.696  14.780   4.062
25372SOL    HW178013   2.759  14.844   4.092
25372SOL    HW278014   2.738  14.695   4.076
25373SOL     OW78015  13.719   8.377   2.382
25373SOL    HW178016  13.639   8.335   2.414
25373SOL    HW278017  13.774   8.387   2.459
25374SOL     OW78018  14.812  10.376  14.107
25374SOL    HW178019  14.725  10.413  14.092
25374SOL    HW278020  14.801  10.318  14.183
25375SOL     OW78021   6.320  13.957  14.170
25375SOL    HW178022   6.379  13.933  14.099
25375SOL    HW278023   6.272  14.033  14.137
25376SOL     OW78024   0.169   8.713  14.091
25376SOL    HW178025   0.204   8.628  14.064
25376SOL    HW278026   0.077   8.709  14.066
25377SOL     OW78027   1.734   7.039  11.854
25377SOL    HW178028   1.828   7.055  11.865
25377SOL    HW278029   1.725   6.944  11.861
25378SOL     OW78030   9.306   5.057   4.001
25378SOL    HW178031   9.273   5.117   4.068
25378SOL    HW278032   9.244   5.065   3.929
25379SOL     OW78033  12.957   8.286   2.797
25379SOL    HW178034  13.052   8.297   2.801
25379SOL    HW278035  12.943   8.193   2.816
25380SOL     OW78036  11.766   3.478  14.323
25380SOL    HW178037  11.780   3.569  14.350
25380SOL    HW278038  11.844   3.455  14.273
25381SOL     OW78039   3.400   6.875   2.079
25381SOL    HW178040   3.397   6.910   1.990
25381SOL    HW278041   3.423   6.783   2.068
25382SOL     OW78042   4.257  12.414  11.096
25382SOL    HW178043   4.352  12.426  11.096
25382SOL    HW278044   4.239  12.365  11.016
25383SOL     OW78045   0.171  11.293  14.707
25383SOL    HW178046   0.105  11.257  14.767
25383SOL    HW278047   0.198  11.375  14.749
25384SOL     OW78048   8.020   9.763  13.181
25384SOL    HW178049   7.958   9.716  13.126
25384SOL    HW278050   7.978   9.766  13.267
25385SOL     OW78051  10.817  10.072   3.488
25385SOL    HW178052  10.744  10.030   3.444
25385SOL    HW278053  10.824  10.158   3.445
25386SOL     OW78054   3.125  13.585   2.619
25386SOL    HW178055   3.122  13.585   2.715
25386SOL    HW278056   3.084  13.668   2.594
25387SOL     OW78057   1.567   5.463   4.729
25387SOL    HW178058   1.588   5.410   4.806
25387SOL    HW278059   1.611   5.419   4.656
25388SOL     OW78060  10.084  11.566   2.272
25388SOL    HW178061  10.169  11.525   2.286
25388SOL    HW278062  10.082  11.584   2.178
25389SOL     OW78063  10.396  14.243  11.144
25389SOL    HW178064  10.453  14.167  11.157
25389SOL    HW278065  10.456  14.318  11.140
25390SOL     OW78066   8.720  12.103   0.932
25390SOL    HW178067   8.762  12.127   0.849
25390SOL    HW278068   8.708  12.187   0.977
25391SOL     OW78069   3.535  14.733   0.578
25391SOL    HW178070   3.560  14.745   0.670
25391SOL    HW278071   3.491  14.815   0.555
25392SOL     OW78072  11.741   7.506   5.225
25392SOL    HW178073  11.751   7.439   5.157
25392SOL    HW278074  11.729   7.457   5.306
25393SOL     OW78075  14.514   0.001   7.588
25393SOL    HW178076  14.453  14.846   7.519
25393SOL    HW278077  14.532   0.094   7.572
25394SOL     OW78078   3.291   4.482  11.159
25394SOL    HW178079   3.337   4.413  11.208
25394SOL    HW278080   3.255   4.437  11.083
25395SOL     OW78081   7.119  12.179   1.424
25395SOL    HW178082   7.168  12.260   1.441
25395SOL    HW278083   7.120  12.132   1.507
25396SOL     OW78084   4.767   2.708   5.842
25396SOL    HW178085   4.749   2.617   5.868
25396SOL    HW278086   4.695   2.730   5.783
25397SOL     OW78087  10.029   4.558   9.963
25397SOL    HW178088  10.090   4.632   9.967
25397SOL    HW278089   9.942   4.599   9.964
25398SOL     OW78090  12.921   1.037   2.424
25398SOL    HW178091  12.873   0.971   2.473
25398SOL    HW278092  12.882   1.120   2.451
25399SOL     OW78093  14.274   0.093  14.625
25399SOL    HW178094  14.324   0.069  14.548
25399SOL    HW278095  14.265   0.188  14.619
25400SOL     OW78096   7.982  14.013   6.717
25400SOL    HW178097   8.076  14.000   6.731
25400SOL    HW278098   7.940  13.967   6.790
25401SOL     OW78099  11.834   7.531  11.176
25401SOL    HW178100  11.864   7.600  11.116
25401SOL    HW278101  11.862   7.450  11.133
25402SOL     OW78102   8.722   4.708  10.018
25402SOL    HW178103   8.674   4.726  10.099
25402SOL    HW278104   8.744   4.615  10.024
25403SOL     OW78105  12.869   1.198   7.967
25403SOL    HW178106  12.862   1.245   7.884
25403SOL    HW278107  12.848   1.263   8.034
25404SOL     OW78108   1.245   8.841   3.731
25404SOL    HW178109   1.232   8.842   3.826
25404SOL    HW278110   1.161   8.811   3.695
25405SOL     OW78111   8.242   5.992  13.777
25405SOL    HW178112   8.207   5.908  13.746
25405SOL    HW278113   8.295   6.024  13.704
25406SOL     OW78114   3.137   3.785  12.551
25406SOL    HW178115   3.197   3.851  12.516
25406SOL    HW278116   3.150   3.709  12.495
25407SOL     OW78117   6.083   1.057   9.316
25407SOL    HW178118   6.106   1.011   9.236
25407SOL    HW278119   6.156   1.119   9.329
25408SOL     OW78120   9.150  14.213  12.568
25408SOL    HW178121   9.071  14.201  12.516
25408SOL    HW278122   9.135  14.160  12.646
25409SOL     OW78123  14.425   2.421   5.956
25409SOL    HW178124  14.412   2.363   5.881
25409SOL    HW278125  14.368   2.384   6.024
25410SOL     OW78126   1.633   2.301   7.468
25410SOL    HW178127   1.697   2.338   7.407
25410SOL    HW278128   1.657   2.338   7.553
25411SOL     OW78129  11.543   7.083  10.634
25411SOL    HW178130  11.467   7.140  10.629
25411SOL    HW278131  11.516   7.002  10.591
25412SOL     OW78132   0.905   9.320   1.740
25412SOL    HW178133   0.923   9.357   1.826
25412SOL    HW278134   0.829   9.263   1.753
25413SOL     OW78135  14.339   8.511   0.369
25413SOL    HW178136  14.430   8.511   0.400
25413SOL    HW278137  14.294   8.450   0.427
25414SOL     OW78138  14.775  13.330   1.399
25414SOL    HW178139  14.828  13.283   1.463
25414SOL    HW278140  14.701  13.273   1.383
25415SOL     OW78141  11.430  14.829   6.253
25415SOL    HW178142  11.343  14.856   6.282
25415SOL    HW278143  11.430  14.844   6.159
25416SOL     OW78144  11.570   5.213   8.832
25416SOL    HW178145  11.596   5.295   8.873
25416SOL    HW278146  11.640   5.151   8.854
25417SOL     OW78147  13.017  11.688   1.607
25417SOL    HW178148  12.932  11.704   1.648
25417SOL    HW278149  13.057  11.620   1.662
25418SOL     OW78150   2.228   8.829  11.854
25418SOL    HW178151   2.158   8.868  11.801
25418SOL    HW278152   2.305   8.833  11.798
25419SOL     OW78153   6.563   5.694   8.476
25419SOL    HW178154   6.546   5.772   8.423
25419SOL    HW278155   6.510   5.708   8.555
25420SOL     OW78156  10.747   8.702  11.252
25420SOL    HW178157  10.829   8.692  11.203
25420SOL    HW278158  10.682   8.727  11.186
25421SOL     OW78159  12.528   7.925   6.888
25421SOL    HW178160  12.583   8.000   6.864
25421SOL    HW278161  12.544   7.912   6.981
25422SOL     OW78162   2.815  10.082  14.584
25422SOL    HW178163   2.829  10.175  14.571
25422SOL    HW278164   2.892  10.040  14.545
25423SOL     OW78165  12.435  14.857   4.319
25423SOL    HW178166  12.482   0.069   4.302
25423SOL    HW278167  12.394  14.869   4.404
25424SOL     OW78168   9.308  10.760  12.709
25424SOL    HW178169   9.230  10.816  12.710
25424SOL    HW278170   9.278  10.677  12.746
25425SOL     OW78171  12.850   8.906  12.064
25425SOL    HW178172  12.927   8.963  12.054
25425SOL    HW278173  12.785   8.962  12.108
25426SOL     OW78174  12.131  13.218   5.632
25426SOL    HW178175  12.066  13.219   5.702
25426SOL    HW278176  12.138  13.126   5.607
25427SOL     OW78177   6.499   5.112   5.074
25427SOL    HW178178   6.508   5.078   4.985
25427SOL    HW278179   6.447   5.192   5.063
25428SOL     OW78180  13.437   8.368   7.707
25428SOL    HW178181  13.412   8.459   7.690
25428SOL    HW278182  13.356   8.319   7.695
25429SOL     OW78183  13.578   3.622  12.917
25429SOL    HW178184  13.548   3.589  13.001
25429SOL    HW278185  13.520   3.582  12.852
25430SOL     OW78186   7.145  12.361  11.963
25430SOL    HW178187   7.153  12.380  12.056
25430SOL    HW278188   7.162  12.444  11.920
25431SOL     OW78189  11.728  11.008   5.277
25431SOL    HW178190  11.675  11.034   5.202
25431SOL    HW278191  11.765  11.090   5.310
25432SOL     OW78192   6.737   1.517   8.228
25432SOL    HW178193   6.677   1.484   8.295
25432SOL    HW278194   6.774   1.597   8.265
25433SOL     OW78195   3.132   9.736   6.946
25433SOL    HW178196   3.102   9.735   7.037
25433SOL    HW278197   3.202   9.671   6.943
25434SOL     OW78198   4.404  13.550   6.691
25434SOL    HW178199   4.436  13.547   6.781
25434SOL    HW278200   4.335  13.616   6.692
25435SOL     OW78201   5.806   1.398   6.901
25435SOL    HW178202   5.896   1.366   6.905
25435SOL    HW278203   5.803   1.470   6.965
25436SOL     OW78204  11.450   1.727  13.861
25436SOL    HW178205  11.367   1.742  13.905
25436SOL    HW278206  11.430   1.734  13.768
25437SOL     OW78207  13.297   3.911   1.066
25437SOL    HW178208  13.363   3.960   1.115
25437SOL    HW278209  13.251   3.977   1.015
25438SOL     OW78210  14.195   9.823  11.538
25438SOL    HW178211  14.201   9.837  11.444
25438SOL    HW278212  14.157   9.735  11.547
25439SOL     OW78213  10.073   0.245   4.819
25439SOL    HW178214  10.086   0.269   4.911
25439SOL    HW278215  10.050   0.327   4.775
25440SOL     OW78216   1.592   8.296   0.350
25440SOL    HW178217   1.573   8.388   0.333
25440SOL    HW278218   1.530   8.271   0.419
25441SOL     OW78219   2.695   8.531  14.003
25441SOL    HW178220   2.620   8.484  13.967
25441SOL    HW278221   2.669   8.555  14.092
25442SOL     OW78222   0.804  12.164  13.903
25442SOL    HW178223   0.832  12.072  13.901
25442SOL    HW278224   0.770  12.176  13.992
25443SOL     OW78225  14.014  13.627  13.715
25443SOL    HW178226  14.040  13.686  13.785
25443SOL    HW278227  13.939  13.579  13.751
25444SOL     OW78228  14.626   6.013   8.381
25444SOL    HW178229  14.555   6.075   8.361
25444SOL    HW278230  14.655   6.037   8.468
25445SOL     OW78231   1.478  11.407   3.081
25445SOL    HW178232   1.499  11.431   3.171
25445SOL    HW278233   1.519  11.474   3.027
25446SOL     OW78234   2.705   2.711   8.916
25446SOL    HW178235   2.635   2.768   8.947
25446SOL    HW278236   2.752   2.684   8.995
25447SOL     OW78237   2.644   4.398  11.977
25447SOL    HW178238   2.601   4.436  11.900
25447SOL    HW278239   2.627   4.304  11.970
25448SOL     OW78240   4.949   9.246  13.246
25448SOL    HW178241   4.862   9.265  13.210
25448SOL    HW278242   4.937   9.166  13.297
25449SOL     OW78243   4.816  14.568   2.795
25449SOL    HW178244   4.877  14.527   2.856
25449SOL    HW278245   4.846  14.658   2.787
25450SOL     OW78246   7.233   2.925   4.835
25450SOL    HW178247   7.240   2.930   4.740
25450SOL    HW278248   7.294   2.855   4.860
25451SOL     OW78249   6.207   0.197   2.808
25451SOL    HW178250   6.268   0.224   2.739
25451SOL    HW278251   6.260   0.144   2.867
25452SOL     OW78252   4.203   9.869  11.758
25452SOL    HW178253   4.246   9.899  11.838
25452SOL    HW278254   4.257   9.902  11.687
25453SOL     OW78255  12.116  10.817   9.232
25453SOL    HW178256  12.062  10.845   9.305
25453SOL    HW278257  12.206  10.832   9.261
25454SOL     OW78258   3.988  11.578  12.330
25454SOL    HW178259   3.996  11.673  12.332
25454SOL    HW278260   4.064  11.548  12.280
25455SOL     OW78261   1.996  12.243   4.795
25455SOL    HW178262   1.961  12.155   4.786
25455SOL    HW278263   2.048  12.256   4.715
25456SOL     OW78264  12.390   2.605   4.915
25456SOL    HW178265  12.435   2.619   4.998
25456SOL    HW278266  12.322   2.672   4.914
25457SOL     OW78267  11.101  12.483   7.733
25457SOL    HW178268  11.040  12.519   7.798
25457SOL    HW278269  11.154  12.420   7.782
25458SOL     OW78270   1.662  12.495  11.519
25458SOL    HW178271   1.569  12.491  11.497
25458SOL    HW278272   1.669  12.448  11.602
25459SOL     OW78273   3.571   0.406   7.713
25459SOL    HW178274   3.494   0.367   7.670
25459SOL    HW278275   3.594   0.480   7.658
25460SOL     OW78276   1.057  11.905  12.921
25460SOL    HW178277   1.050  11.810  12.930
25460SOL    HW278278   1.117  11.919  12.848
25461SOL     OW78279  11.076   5.980   0.293
25461SOL    HW178280  11.059   6.040   0.365
25461SOL    HW278281  11.170   5.963   0.298
25462SOL     OW78282   1.907   7.357   3.161
25462SOL    HW178283   1.839   7.415   3.196
25462SOL    HW278284   1.935   7.399   3.079
25463SOL     OW78285   0.396   2.430  12.227
25463SOL    HW178286   0.369   2.343  12.195
25463SOL    HW278287   0.456   2.411  12.299
25464SOL     OW78288   5.536  10.417  13.156
25464SOL    HW178289   5.459  10.461  13.192
25464SOL    HW278290   5.519  10.411  13.062
25465SOL     OW78291  12.118   9.544   2.096
25465SOL    HW178292  12.162   9.498   2.167
25465SOL    HW278293  12.035   9.574   2.133
25466SOL     OW78294  12.010  13.881   1.457
25466SOL    HW178295  11.990  13.808   1.515
25466SOL    HW278296  12.102  13.869   1.434
25467SOL     OW78297  14.696  14.866   1.017
25467SOL    HW178298  14.691   0.028   0.926
25467SOL    HW278299  14.789  14.868   1.038
25468SOL     OW78300  14.141   5.790  11.376
25468SOL    HW178301  14.141   5.788  11.472
25468SOL    HW278302  14.208   5.725  11.352
25469SOL     OW78303  13.247  13.298   4.448
25469SOL    HW178304  13.303  13.250   4.508
25469SOL    HW278305  13.245  13.245   4.369
25470SOL     OW78306  12.369  14.627   4.984
25470SOL    HW178307  12.307  14.641   4.912
25470SOL    HW278308  12.332  14.675   5.058
25471SOL     OW78309   1.309   0.984   4.655
25471SOL    HW178310   1.251   1.055   4.629
25471SOL    HW278311   1.260   0.935   4.721
25472SOL     OW78312  14.346  12.832   9.031
25472SOL    HW178313  14.258  12.860   9.007
25472SOL    HW278314  14.366  12.880   9.112
25473SOL     OW78315   6.256   0.421   1.005
25473SOL    HW178316   6.169   0.414   0.965
25473SOL    HW278317   6.314   0.376   0.943
25474SOL     OW78318   7.317  12.608  11.351
25474SOL    HW178319   7.240  12.648  11.310
25474SOL    HW278320   7.326  12.523  11.308
25475SOL     OW78321  12.610  13.523  13.284
25475SOL    HW178322  12.706  13.517  13.277
25475SOL    HW278323  12.578  13.451  13.230
25476SOL     OW78324  10.520   8.836   9.321
25476SOL    HW178325  10.614   8.823   9.331
25476SOL    HW278326  10.482   8.752   9.345
25477SOL     OW78327  14.308   4.838   8.876
25477SOL    HW178328  14.293   4.930   8.855
25477SOL    HW278329  14.261   4.824   8.958
25478SOL     OW78330   6.206   3.788  12.251
25478SOL    HW178331   6.114   3.762  12.246
25478SOL    HW278332   6.204   3.883  12.243
25479SOL     OW78333   1.315   5.368   8.716
25479SOL    HW178334   1.340   5.459   8.700
25479SOL    HW278335   1.373   5.339   8.787
25480SOL     OW78336   9.948   3.593   7.357
25480SOL    HW178337   9.866   3.641   7.348
25480SOL    HW278338   9.924   3.512   7.401
25481SOL     OW78339  10.731   8.564   3.226
25481SOL    HW178340  10.690   8.519   3.152
25481SOL    HW278341  10.789   8.628   3.185
25482SOL     OW78342   3.065   5.372  13.662
25482SOL    HW178343   3.021   5.401  13.742
25482SOL    HW278344   3.002   5.314  13.619
25483SOL     OW78345  12.135   7.140  13.254
25483SOL    HW178346  12.090   7.056  13.264
25483SOL    HW278347  12.204   7.139  13.320
25484SOL     OW78348   1.497   7.606  12.942
25484SOL    HW178349   1.546   7.672  12.990
25484SOL    HW278350   1.415   7.597  12.992
25485SOL     OW78351   5.602  14.716   6.656
25485SOL    HW178352   5.579  14.757   6.740
25485SOL    HW278353   5.682  14.666   6.675
25486SOL     OW78354   0.244  14.868   5.354
25486SOL    HW178355   0.233   0.034   5.266
25486SOL    HW278356   0.260  14.775   5.340
25487SOL     OW78357   8.685   8.346   2.321
25487SOL    HW178358   8.709   8.364   2.230
25487SOL    HW278359   8.766   8.317   2.361
25488SOL     OW78360  14.482   0.488  12.290
25488SOL    HW178361  14.561   0.504  12.342
25488SOL    HW278362  14.475   0.393  12.286
25489SOL     OW78363   5.069  14.593   7.935
25489SOL    HW178364   4.996  14.628   7.985
25489SOL    HW278365   5.046  14.608   7.843
25490SOL     OW78366   0.798   0.617  10.366
25490SOL    HW178367   0.740   0.616  10.442
25490SOL    HW278368   0.869   0.677  10.390
25491SOL     OW78369   3.072   7.632   8.739
25491SOL    HW178370   2.991   7.582   8.726
25491SOL    HW278371   3.051   7.721   8.711
25492SOL     OW78372  11.635   1.739   7.954
25492SOL    HW178373  11.676   1.690   7.882
25492SOL    HW278374  11.574   1.799   7.911
25493SOL     OW78375   9.845   2.766   5.058
25493SOL    HW178376   9.756   2.737   5.039
25493SOL    HW278377   9.894   2.685   5.074
25494SOL     OW78378   6.304   6.163   9.322
25494SOL    HW178379   6.297   6.075   9.285
25494SOL    HW278380   6.392   6.191   9.300
25495SOL     OW78381   3.516   6.394  12.335
25495SOL    HW178382   3.541   6.378  12.244
25495SOL    HW278383   3.596   6.427  12.376
25496SOL     OW78384   3.001  12.804  14.144
25496SOL    HW178385   2.954  12.884  14.119
25496SOL    HW278386   2.956  12.775  14.223
25497SOL     OW78387   3.832  11.631   3.349
25497SOL    HW178388   3.869  11.569   3.286
25497SOL    HW278389   3.781  11.692   3.296
25498SOL     OW78390   6.813   8.006   6.279
25498SOL    HW178391   6.790   8.020   6.370
25498SOL    HW278392   6.822   7.911   6.270
25499SOL     OW78393   6.596  13.788  12.760
25499SOL    HW178394   6.586  13.881  12.741
25499SOL    HW278395   6.674  13.783  12.814
25500SOL     OW78396   8.340   4.632  11.560
25500SOL    HW178397   8.346   4.587  11.644
25500SOL    HW278398   8.384   4.574  11.498
25501SOL     OW78399   5.030  13.161   9.764
25501SOL    HW178400   5.007  13.107   9.840
25501SOL    HW278401   4.946  13.195   9.732
25502SOL     OW78402   6.424   6.276  14.354
25502SOL    HW178403   6.337   6.236  14.351
25502SOL    HW278404   6.408   6.369  14.340
25503SOL     OW78405  10.881   1.926   3.490
25503SOL    HW178406  10.872   2.015   3.455
25503SOL    HW278407  10.901   1.872   3.413
25504SOL     OW78408   3.948  10.919  13.723
25504SOL    HW178409   3.952  10.906  13.629
25504SOL    HW278410   3.863  10.884  13.749
25505SOL     OW78411   6.435   0.650  13.271
25505SOL    HW178412   6.398   0.669  13.185
25505SOL    HW278413   6.486   0.728  13.293
25506SOL     OW78414   0.936   6.641  14.758
25506SOL    HW178415   0.994   6.618  14.686
25506SOL    HW278416   0.866   6.692  14.718
25507SOL     OW78417  12.298   2.085   2.613
25507SOL    HW178418  12.223   2.041   2.571
25507SOL    HW278419  12.286   2.177   2.591
25508SOL     OW78420  11.117  13.954   4.170
25508SOL    HW178421  11.145  13.868   4.139
25508SOL    HW278422  11.183  13.979   4.234
25509SOL     OW78423  11.770   2.014  10.024
25509SOL    HW178424  11.801   2.012   9.934
25509SOL    HW278425  11.826   1.950  10.070
25510SOL     OW78426   9.085   1.869  10.530
25510SOL    HW178427   9.105   1.940  10.592
25510SOL    HW278428   9.019   1.905  10.472
25511SOL     OW78429   8.104   3.994   4.187
25511SOL    HW178430   8.110   3.956   4.100
25511SOL    HW278431   8.064   4.079   4.174
25512SOL     OW78432   1.407   7.947   6.356
25512SOL    HW178433   1.400   8.019   6.293
25512SOL    HW278434   1.445   7.987   6.434
25513SOL     OW78435  12.475   2.264   5.605
25513SOL    HW178436  12.416   2.207   5.655
25513SOL    HW278437  12.524   2.205   5.548
25514SOL     OW78438  14.821   3.586  11.365
25514SOL    HW178439  14.812   3.617  11.456
25514SOL    HW278440   0.042   3.608  11.341
25515SOL     OW78441   6.906   8.384  12.642
25515SOL    HW178442   6.828   8.440  12.638
25515SOL    HW278443   6.871   8.295  12.635
25516SOL     OW78444  10.705   9.282   8.260
25516SOL    HW178445  10.686   9.358   8.315
25516SOL    HW278446  10.625   9.267   8.210
25517SOL     OW78447   2.092   0.175   2.728
25517SOL    HW178448   2.060   0.195   2.816
25517SOL    HW278449   2.072   0.253   2.677
25518SOL     OW78450  11.405   2.085   5.529
25518SOL    HW178451  11.315   2.105   5.501
25518SOL    HW278452  11.436   2.022   5.464
25519SOL     OW78453   4.943   4.068   2.137
25519SOL    HW178454   4.958   4.005   2.065
25519SOL    HW278455   5.010   4.045   2.202
25520SOL     OW78456  10.778   7.764  13.845
25520SOL    HW178457  10.746   7.715  13.769
25520SOL    HW278458  10.853   7.813  13.812
25521SOL     OW78459   8.117   8.081   8.810
25521SOL    HW178460   8.170   8.003   8.796
25521SOL    HW278461   8.062   8.059   8.885
25522SOL     OW78462   3.117   1.159  10.417
25522SOL    HW178463   3.106   1.075  10.373
25522SOL    HW278464   3.158   1.139  10.500
25523SOL     OW78465  14.405  10.012  14.580
25523SOL    HW178466  14.388  10.024  14.674
25523SOL    HW278467  14.377   9.922  14.562
25524SOL     OW78468   3.173  13.393   8.480
25524SOL    HW178469   3.221  13.343   8.546
25524SOL    HW278470   3.199  13.484   8.496
25525SOL     OW78471   1.074  10.073   3.370
25525SOL    HW178472   1.059  10.016   3.295
25525SOL    HW278473   1.134  10.141   3.338
25526SOL     OW78474   7.863  14.217   9.302
25526SOL    HW178475   7.857  14.252   9.391
25526SOL    HW278476   7.817  14.133   9.306
25527SOL     OW78477   4.516  12.742  12.742
25527SOL    HW178478   4.525  12.837  12.727
25527SOL    HW278479   4.596  12.705  12.706
25528SOL     OW78480   0.237   2.892   3.628
25528SOL    HW178481   0.221   2.848   3.545
25528SOL    HW278482   0.259   2.982   3.605
25529SOL     OW78483   2.696   3.423   4.824
25529SOL    HW178484   2.685   3.407   4.731
25529SOL    HW278485   2.656   3.508   4.839
25530SOL     OW78486   1.344  12.771   0.428
25530SOL    HW178487   1.415  12.826   0.396
25530SOL    HW278488   1.323  12.807   0.515
25531SOL     OW78489   3.587   2.571  14.554
25531SOL    HW178490   3.647   2.550  14.483
25531SOL    HW278491   3.500   2.559  14.517
25532SOL     OW78492  14.710  11.570   4.333
25532SOL    HW178493  14.801  11.584   4.359
25532SOL    HW278494  14.666  11.652   4.356
25533SOL     OW78495   2.297  10.404   7.713
25533SOL    HW178496   2.223  10.344   7.701
25533SOL    HW278497   2.310  10.442   7.626
25534SOL     OW78498  14.240  11.969   4.163
25534SOL    HW178499  14.221  11.893   4.107
25534SOL    HW278500  14.231  11.936   4.252
25535SOL     OW78501  12.230   5.439   3.127
25535SOL    HW178502  12.288   5.405   3.195
25535SOL    HW278503  12.176   5.504   3.172
25536SOL     OW78504  11.216   8.200  10.464
25536SOL    HW178505  11.175   8.154  10.391
25536SOL    HW278506  11.204   8.293  10.443
25537SOL     OW78507  14.113   7.311   7.395
25537SOL    HW178508  14.130   7.253   7.320
25537SOL    HW278509  14.035   7.360   7.369
25538SOL     OW78510   5.790   5.924   8.524
25538SOL    HW178511   5.787   5.970   8.440
25538SOL    HW278512   5.826   5.838   8.503
25539SOL     OW78513   2.829   2.180   4.385
25539SOL    HW178514   2.791   2.260   4.348
25539SOL    HW278515   2.763   2.112   4.368
25540SOL     OW78516  14.616   7.724   1.042
25540SOL    HW178517  14.604   7.805   0.992
25540SOL    HW278518  14.681   7.746   1.109
25541SOL     OW78519  13.759   8.437   4.650
25541SOL    HW178520  13.791   8.466   4.565
25541SOL    HW278521  13.694   8.502   4.675
25542SOL     OW78522   8.165  10.636   8.886
25542SOL    HW178523   8.168  10.542   8.868
25542SOL    HW278524   8.210  10.675   8.810
25543SOL     OW78525   6.122   3.769  12.570
25543SOL    HW178526   6.207   3.810  12.556
25543SOL    HW278527   6.090   3.809  12.651
25544SOL     OW78528   6.363  10.448  10.137
25544SOL    HW178529   6.389  10.468  10.047
25544SOL    HW278530   6.277  10.405  10.129
25545SOL     OW78531   2.889  10.324  11.220
25545SOL    HW178532   2.818  10.388  11.218
25545SOL    HW278533   2.868  10.263  11.149
25546SOL     OW78534   1.024  12.346   5.525
25546SOL    HW178535   1.047  12.315   5.613
25546SOL    HW278536   1.103  12.330   5.473
25547SOL     OW78537   8.119   5.379   8.899
25547SOL    HW178538   8.119   5.296   8.948
25547SOL    HW278539   8.116   5.447   8.966
25548SOL     OW78540   2.813  10.698  12.739
25548SOL    HW178541   2.839  10.779  12.695
25548SOL    HW278542   2.819  10.631  12.671
25549SOL     OW78543   7.264  10.103  13.107
25549SOL    HW178544   7.282  10.042  13.036
25549SOL    HW278545   7.291  10.189  13.072
25550SOL     OW78546   0.930   6.358   5.289
25550SOL    HW178547   0.996   6.302   5.249
25550SOL    HW278548   0.968   6.446   5.288
25551SOL     OW78549   8.413   0.884  14.614
25551SOL    HW178550   8.483   0.918  14.670
25551SOL    HW278551   8.455   0.868  14.530
25552SOL     OW78552   3.503   7.701   7.895
25552SOL    HW178553   3.544   7.651   7.823
25552SOL    HW278554   3.429   7.745   7.854
25553SOL     OW78555   7.482  10.674   4.609
25553SOL    HW178556   7.547  10.696   4.675
25553SOL    HW278557   7.493  10.742   4.542
25554SOL     OW78558   2.579  14.693   3.296
25554SOL    HW178559   2.581  14.607   3.255
25554SOL    HW278560   2.655  14.694   3.354
25555SOL     OW78561  11.037   9.546   7.948
25555SOL    HW178562  11.048   9.605   7.873
25555SOL    HW278563  10.983   9.475   7.915
25556SOL     OW78564   3.683  13.879  11.873
25556SOL    HW178565   3.592  13.908  11.883
25556SOL    HW278566   3.717  13.929  11.799
25557SOL     OW78567   4.265   1.066   0.911
25557SOL    HW178568   4.179   1.100   0.932
25557SOL    HW278569   4.274   0.987   0.963
25558SOL     OW78570   3.277   8.476   2.300
25558SOL    HW178571   3.369   8.464   2.322
25558SOL    HW278572   3.274   8.559   2.251
25559SOL     OW78573  10.473   3.672   3.204
25559SOL    HW178574  10.511   3.727   3.272
25559SOL    HW278575  10.475   3.584   3.241
25560SOL     OW78576  11.085   9.252   2.350
25560SOL    HW178577  11.175   9.281   2.333
25560SOL    HW278578  11.072   9.179   2.290
25561SOL     OW78579   9.228   1.872   8.140
25561SOL    HW178580   9.185   1.914   8.065
25561SOL    HW278581   9.243   1.782   8.111
25562SOL     OW78582   0.879   3.189  14.740
25562SOL    HW178583   0.788   3.194  14.713
25562SOL    HW278584   0.880   3.223  14.829
25563SOL     OW78585  13.986  10.420  14.819
25563SOL    HW178586  13.926  10.430  14.745
25563SOL    HW278587  14.061  10.373  14.782
25564SOL     OW78588   1.595   3.167   7.676
25564SOL    HW178589   1.613   3.235   7.740
25564SOL    HW278590   1.637   3.198   7.596
25565SOL     OW78591  11.340  14.811   5.387
25565SOL    HW178592  11.332  14.814   5.291
25565SOL    HW278593  11.284  14.737   5.413
25566SOL     OW78594   9.639   6.267  14.343
25566SOL    HW178595   9.712   6.233  14.291
25566SOL    HW278596   9.675   6.276  14.431
25567SOL     OW78597   2.212   1.229   0.041
25567SOL    HW178598   2.186   1.307  14.861
25567SOL    HW278599   2.180   1.245   0.130
25568SOL     OW78600   6.030   4.898   7.601
25568SOL    HW178601   6.044   4.804   7.615
25568SOL    HW278602   5.959   4.922   7.660
25569SOL     OW78603   0.317  11.892   7.944
25569SOL    HW178604   0.291  11.968   7.893
25569SOL    HW278605   0.360  11.834   7.881
25570SOL     OW78606  13.353   5.906  11.978
25570SOL    HW178607  13.259   5.913  11.994
25570SOL    HW278608  13.374   5.815  11.998
25571SOL     OW78609   1.001   6.610  13.103
25571SOL    HW178610   1.001   6.520  13.069
25571SOL    HW278611   1.042   6.604  13.188
25572SOL     OW78612   0.128   8.944   5.855
25572SOL    HW178613   0.122   8.964   5.948
25572SOL    HW278614   0.051   8.985   5.817
25573SOL     OW78615   2.579   2.758   2.351
25573SOL    HW178616   2.516   2.762   2.423
25573SOL    HW278617   2.619   2.671   2.359
25574SOL     OW78618  10.884   8.195  13.021
25574SOL    HW178619  10.971   8.212  12.985
25574SOL    HW278620  10.879   8.100  13.027
25575SOL     OW78621   7.048  12.790   4.011
25575SOL    HW178622   7.083  12.711   3.970
25575SOL    HW278623   6.992  12.829   3.944
25576SOL     OW78624   2.692   2.256   5.406
25576SOL    HW178625   2.765   2.198   5.383
25576SOL    HW278626   2.706   2.334   5.351
25577SOL     OW78627  10.286  11.149   8.037
25577SOL    HW178628  10.322  11.171   7.951
25577SOL    HW278629  10.192  11.166   8.029
25578SOL     OW78630   4.636   5.899   9.463
25578SOL    HW178631   4.623   5.983   9.507
25578SOL    HW278632   4.547   5.868   9.443
25579SOL     OW78633   4.801   7.461   2.383
25579SOL    HW178634   4.725   7.504   2.342
25579SOL    HW278635   4.804   7.374   2.342
25580SOL     OW78636   5.873   9.956  12.034
25580SOL    HW178637   5.870   9.960  12.129
25580SOL    HW278638   5.832   9.872  12.013
25581SOL     OW78639  13.091  13.342   9.437
25581SOL    HW178640  13.161  13.326   9.501
25581SOL    HW278641  13.132  13.398   9.371
25582SOL     OW78642   5.519   0.443   5.079
25582SOL    HW178643   5.573   0.386   5.135
25582SOL    HW278644   5.477   0.382   5.018
25583SOL     OW78645   4.542  10.895  10.794
25583SOL    HW178646   4.462  10.857  10.830
25583SOL    HW278647   4.571  10.831  10.729
25584SOL     OW78648   5.525   4.876  13.332
25584SOL    HW178649   5.478   4.794  13.348
25584SOL    HW278650   5.505   4.930  13.408
25585SOL     OW78651  13.753   3.784  13.983
25585SOL    HW178652  13.685   3.761  14.047
25585SOL    HW278653  13.711   3.847  13.925
25586SOL     OW78654  11.646   5.322   6.875
25586SOL    HW178655  11.687   5.409   6.874
25586SOL    HW278656  11.555   5.338   6.849
25587SOL     OW78657  13.942   7.228   5.177
25587SOL    HW178658  13.952   7.139   5.143
25587SOL    HW278659  14.031   7.265   5.174
25588SOL     OW78660   2.698   1.260   5.750
25588SOL    HW178661   2.709   1.325   5.680
25588SOL    HW278662   2.659   1.184   5.707
25589SOL     OW78663   7.997  11.202  14.151
25589SOL    HW178664   8.020  11.109  14.157
25589SOL    HW278665   7.903  11.205  14.166
25590SOL     OW78666   1.074   2.376  13.467
25590SOL    HW178667   1.097   2.422  13.387
25590SOL    HW278668   0.984   2.402  13.485
25591SOL     OW78669  10.809   0.726   5.620
25591SOL    HW178670  10.747   0.687   5.558
25591SOL    HW278671  10.849   0.651   5.664
25592SOL     OW78672   7.235   9.157   7.093
25592SOL    HW178673   7.285   9.222   7.142
25592SOL    HW278674   7.150   9.154   7.137
25593SOL     OW78675   8.602   1.037   2.372
25593SOL    HW178676   8.611   1.000   2.284
25593SOL    HW278677   8.648   1.121   2.367
25594SOL     OW78678   7.071   9.614  14.162
25594SOL    HW178679   7.139   9.575  14.107
25594SOL    HW278680   7.072   9.563  14.242
25595SOL     OW78681   6.975   7.445   6.563
25595SOL    HW178682   6.960   7.384   6.636
25595SOL    HW278683   6.931   7.405   6.488
25596SOL     OW78684   7.185   9.371   7.487
25596SOL    HW178685   7.256   9.387   7.548
25596SOL    HW278686   7.138   9.296   7.524
25597SOL     OW78687   5.527  12.688   7.122
25597SOL    HW178688   5.563  12.668   7.208
25597SOL    HW278689   5.567  12.623   7.064
25598SOL     OW78690  14.163   8.734   7.347
25598SOL    HW178691  14.103   8.702   7.279
25598SOL    HW278692  14.203   8.812   7.308
25599SOL     OW78693  11.268  10.328   8.963
25599SOL    HW178694  11.358  10.296   8.967
25599SOL    HW278695  11.266  10.403   9.023
25600SOL     OW78696   5.043   4.140   7.244
25600SOL    HW178697   5.039   4.065   7.303
25600SOL    HW278698   5.107   4.199   7.283
25601SOL     OW78699  12.064   8.055   3.691
25601SOL    HW178700  12.082   7.981   3.748
25601SOL    HW278701  11.969   8.068   3.697
25602SOL     OW78702  10.236   7.109   0.411
25602SOL    HW178703  10.281   7.036   0.367
25602SOL    HW278704  10.280   7.116   0.495
25603SOL     OW78705   9.788   4.286  10.675
25603SOL    HW178706   9.699   4.256  10.659
25603SOL    HW278707   9.829   4.217  10.726
25604SOL     OW78708  13.271   9.456   3.377
25604SOL    HW178709  13.284   9.464   3.471
25604SOL    HW278710  13.253   9.363   3.363
25605SOL     OW78711   2.901   0.459   3.925
25605SOL    HW178712   2.808   0.445   3.946
25605SOL    HW278713   2.919   0.548   3.957
25606SOL     OW78714   0.833   1.124  11.190
25606SOL    HW178715   0.920   1.164  11.192
25606SOL    HW278716   0.774   1.197  11.170
25607SOL     OW78717   7.863  10.141  11.215
25607SOL    HW178718   7.955  10.161  11.198
25607SOL    HW278719   7.854  10.048  11.194
25608SOL     OW78720   5.411   4.210   6.697
25608SOL    HW178721   5.366   4.277   6.646
25608SOL    HW278722   5.474   4.171   6.635
25609SOL     OW78723   6.177   5.880   4.466
25609SOL    HW178724   6.220   5.899   4.382
25609SOL    HW278725   6.123   5.803   4.448
25610SOL     OW78726  13.680   8.399   8.624
25610SOL    HW178727  13.768   8.424   8.651
25610SOL    HW278728  13.688   8.377   8.531
25611SOL     OW78729   5.174  12.625   3.131
25611SOL    HW178730   5.185  12.614   3.037
25611SOL    HW278731   5.138  12.541   3.161
25612SOL     OW78732   1.146   5.800  14.723
25612SOL    HW178733   1.128   5.893  14.709
25612SOL    HW278734   1.211   5.799  14.793
25613SOL     OW78735   4.878   0.961   5.450
25613SOL    HW178736   4.867   1.027   5.382
25613SOL    HW278737   4.839   0.882   5.414
25614SOL     OW78738  14.668   5.972  12.695
25614SOL    HW178739  14.758   6.002  12.705
25614SOL    HW278740  14.632   5.974  12.783
25615SOL     OW78741  12.980  14.092   6.114
25615SOL    HW178742  12.891  14.110   6.085
25615SOL    HW278743  13.032  14.095   6.034
25616SOL     OW78744   8.293   3.592   3.910
25616SOL    HW178745   8.368   3.609   3.852
25616SOL    HW278746   8.216   3.599   3.852
25617SOL     OW78747   8.006   1.407   7.430
25617SOL    HW178748   8.000   1.374   7.520
25617SOL    HW278749   8.097   1.434   7.421
25618SOL     OW78750   5.619   5.894   6.031
25618SOL    HW178751   5.624   5.894   6.127
25618SOL    HW278752   5.639   5.804   6.006
25619SOL     OW78753   8.280   7.217   5.345
25619SOL    HW178754   8.253   7.126   5.359
25619SOL    HW278755   8.353   7.230   5.406
25620SOL     OW78756   9.083   3.535   3.830
25620SOL    HW178757   9.014   3.537   3.763
25620SOL    HW278758   9.058   3.603   3.892
25621SOL     OW78759  13.760   2.425   2.850
25621SOL    HW178760  13.672   2.389   2.848
25621SOL    HW278761  13.814   2.361   2.803
25622SOL     OW78762   2.124  11.285   0.455
25622SOL    HW178763   2.179  11.363   0.465
25622SOL    HW278764   2.061  11.291   0.527
25623SOL     OW78765   9.566  12.410  13.275
25623SOL    HW178766   9.519  12.404  13.358
25623SOL    HW278767   9.654  12.439  13.300
25624SOL     OW78768   7.964   9.526   0.415
25624SOL    HW178769   8.057   9.516   0.437
25624SOL    HW278770   7.961   9.600   0.355
25625SOL     OW78771   2.877   8.445   0.578
25625SOL    HW178772   2.790   8.425   0.543
25625SOL    HW278773   2.872   8.537   0.604
25626SOL     OW78774   0.731   8.472   2.267
25626SOL    HW178775   0.665   8.524   2.221
25626SOL    HW278776   0.784   8.537   2.313
25627SOL     OW78777   8.033  11.863  11.804
25627SOL    HW178778   8.077  11.792  11.756
25627SOL    HW278779   8.004  11.923  11.736
25628SOL     OW78780   1.985   3.912  14.409
25628SOL    HW178781   1.981   3.920  14.314
25628SOL    HW278782   2.077   3.927  14.431
25629SOL     OW78783  12.699  13.216  11.507
25629SOL    HW178784  12.661  13.293  11.465
25629SOL    HW278785  12.626  13.157  11.520
25630SOL     OW78786  11.152   2.015   3.771
25630SOL    HW178787  11.193   1.933   3.745
25630SOL    HW278788  11.181   2.078   3.705
25631SOL     OW78789  11.530   6.576   0.062
25631SOL    HW178790  11.610   6.565   0.113
25631SOL    HW278791  11.464   6.527   0.110
25632SOL     OW78792   3.365  12.722   3.822
25632SOL    HW178793   3.408  12.674   3.893
25632SOL    HW278794   3.437  12.760   3.771
25633SOL     OW78795   1.147   4.437  11.326
25633SOL    HW178796   1.180   4.378  11.393
25633SOL    HW278797   1.212   4.434  11.256
25634SOL     OW78798   0.933   6.072   5.255
25634SOL    HW178799   0.886   6.149   5.224
25634SOL    HW278800   0.891   6.051   5.339
25635SOL     OW78801   7.941   5.474  11.991
25635SOL    HW178802   7.857   5.429  11.986
25635SOL    HW278803   8.004   5.405  12.011
25636SOL     OW78804   7.469   5.982   2.488
25636SOL    HW178805   7.456   5.995   2.582
25636SOL    HW278806   7.506   5.894   2.481
25637SOL     OW78807  14.051   3.970   3.318
25637SOL    HW178808  14.008   3.971   3.233
25637SOL    HW278809  14.101   4.052   3.321
25638SOL     OW78810  12.688   5.625  11.573
25638SOL    HW178811  12.769   5.670  11.598
25638SOL    HW278812  12.652   5.679  11.503
25639SOL     OW78813  13.053  13.326   4.639
25639SOL    HW178814  13.095  13.319   4.724
25639SOL    HW278815  13.124  13.317   4.575
25640SOL     OW78816   1.108  13.639  14.649
25640SOL    HW178817   1.096  13.584  14.572
25640SOL    HW278818   1.122  13.727  14.614
25641SOL     OW78819   7.104  13.857   7.091
25641SOL    HW178820   7.192  13.856   7.128
25641SOL    HW278821   7.118  13.869   6.997
25642SOL     OW78822   4.701  12.695   2.080
25642SOL    HW178823   4.656  12.730   2.158
25642SOL    HW278824   4.745  12.771   2.042
25643SOL     OW78825   7.618  10.707   6.507
25643SOL    HW178826   7.544  10.703   6.447
25643SOL    HW278827   7.658  10.793   6.489
25644SOL     OW78828  13.038  13.237   9.802
25644SOL    HW178829  12.953  13.280   9.792
25644SOL    HW278830  13.101  13.309   9.803
25645SOL     OW78831   6.624  10.844  12.656
25645SOL    HW178832   6.646  10.776  12.593
25645SOL    HW278833   6.700  10.902  12.656
25646SOL     OW78834  10.596  14.439   7.716
25646SOL    HW178835  10.630  14.441   7.627
25646SOL    HW278836  10.668  14.472   7.770
25647SOL     OW78837   9.420   8.966   7.156
25647SOL    HW178838   9.361   9.005   7.220
25647SOL    HW278839   9.488   8.924   7.209
25648SOL     OW78840   4.393   2.739  14.289
25648SOL    HW178841   4.456   2.739  14.217
25648SOL    HW278842   4.333   2.668  14.268
25649SOL     OW78843   0.146  11.103   1.860
25649SOL    HW178844   0.155  11.183   1.912
25649SOL    HW278845   0.177  11.127   1.772
25650SOL     OW78846   2.963   0.387  12.258
25650SOL    HW178847   2.908   0.341  12.320
25650SOL    HW278848   2.942   0.348  12.173
25651SOL     OW78849   3.694  11.104   3.460
25651SOL    HW178850   3.668  11.096   3.368
25651SOL    HW278851   3.682  11.197   3.480
25652SOL     OW78852   1.262   4.155   6.310
25652SOL    HW178853   1.328   4.118   6.251
25652SOL    HW278854   1.309   4.222   6.359
25653SOL     OW78855  12.514   9.187   5.172
25653SOL    HW178856  12.455   9.231   5.111
25653SOL    HW278857  12.537   9.254   5.236
25654SOL     OW78858  10.371   2.861   2.812
25654SOL    HW178859  10.332   2.775   2.794
25654SOL    HW278860  10.425   2.879   2.735
25655SOL     OW78861   9.215   9.176  10.370
25655SOL    HW178862   9.161   9.220  10.436
25655SOL    HW278863   9.297   9.158  10.416
25656SOL     OW78864   7.411  10.531   6.032
25656SOL    HW178865   7.420  10.627   6.035
25656SOL    HW278866   7.488  10.499   6.080
25657SOL     OW78867   9.487   4.394   0.815
25657SOL    HW178868   9.398   4.360   0.804
25657SOL    HW278869   9.476   4.488   0.826
25658SOL     OW78870   3.106   0.760   0.313
25658SOL    HW178871   3.179   0.765   0.375
25658SOL    HW278872   3.108   0.845   0.268
25659SOL     OW78873  10.491   1.294  12.908
25659SOL    HW178874  10.499   1.388  12.897
25659SOL    HW278875  10.398   1.279  12.926
25660SOL     OW78876   6.658   4.650   5.040
25660SOL    HW178877   6.606   4.723   5.074
25660SOL    HW278878   6.721   4.630   5.108
25661SOL     OW78879   1.791   2.709  14.832
25661SOL    HW178880   1.878   2.722  14.793
25661SOL    HW278881   1.731   2.711  14.758
25662SOL     OW78882   6.545   1.958  11.339
25662SOL    HW178883   6.542   2.046  11.377
25662SOL    HW278884   6.463   1.950  11.290
25663SOL     OW78885   8.017  12.822   0.438
25663SOL    HW178886   8.049  12.906   0.470
25663SOL    HW278887   7.955  12.845   0.368
25664SOL     OW78888  13.906   0.911   6.765
25664SOL    HW178889  13.986   0.874   6.731
25664SOL    HW278890  13.839   0.844   6.750
25665SOL     OW78891   1.691  10.726   0.591
25665SOL    HW178892   1.599  10.714   0.569
25665SOL    HW278893   1.728  10.773   0.516
25666SOL     OW78894   4.135   3.792   3.168
25666SOL    HW178895   4.212   3.770   3.221
25666SOL    HW278896   4.166   3.789   3.078
25667SOL     OW78897  14.720  14.675  13.821
25667SOL    HW178898  14.636  14.639  13.794
25667SOL    HW278899  14.708  14.770  13.817
25668SOL     OW78900  10.008   5.166   4.760
25668SOL    HW178901   9.972   5.199   4.678
25668SOL    HW278902  10.027   5.074   4.743
25669SOL     OW78903   5.906   1.253  13.697
25669SOL    HW178904   5.921   1.341  13.731
25669SOL    HW278905   5.959   1.197  13.753
25670SOL     OW78906   8.585   0.396  11.597
25670SOL    HW178907   8.508   0.346  11.624
25670SOL    HW278908   8.582   0.475  11.650
25671SOL     OW78909  12.502   4.395   7.616
25671SOL    HW178910  12.503   4.299   7.617
25671SOL    HW278911  12.522   4.419   7.526
25672SOL     OW78912   3.824  13.650   2.351
25672SOL    HW178913   3.753  13.641   2.414
25672SOL    HW278914   3.835  13.744   2.340
25673SOL     OW78915  12.772   1.571   0.009
25673SOL    HW178916  12.852   1.519   0.013
25673SOL    HW278917  12.728   1.554   0.092
25674SOL     OW78918   8.242   4.035   6.940
25674SOL    HW178919   8.176   4.092   6.901
25674SOL    HW278920   8.321   4.089   6.946
25675SOL     OW78921   4.033   3.985   4.444
25675SOL    HW178922   4.095   3.914   4.424
25675SOL    HW278923   4.082   4.044   4.501
25676SOL     OW78924   3.019   4.437   6.376
25676SOL    HW178925   2.961   4.500   6.334
25676SOL    HW278926   2.960   4.377   6.422
25677SOL     OW78927   2.741   0.398  12.518
25677SOL    HW178928   2.773   0.481  12.482
25677SOL    HW278929   2.735   0.414  12.612
25678SOL     OW78930  10.905  14.281  11.791
25678SOL    HW178931  10.865  14.332  11.720
25678SOL    HW278932  10.942  14.347  11.849
25679SOL     OW78933   8.818   2.184   9.852
25679SOL    HW178934   8.791   2.246   9.784
25679SOL    HW278935   8.777   2.216   9.932
25680SOL     OW78936  10.348   3.426   3.702
25680SOL    HW178937  10.391   3.380   3.629
25680SOL    HW278938  10.264   3.381   3.713
25681SOL     OW78939   4.612   1.818   2.853
25681SOL    HW178940   4.581   1.906   2.830
25681SOL    HW278941   4.532   1.771   2.877
25682SOL     OW78942   5.475   4.042   5.770
25682SOL    HW178943   5.414   4.088   5.712
25682SOL    HW278944   5.418   4.000   5.835
25683SOL     OW78945   4.530   7.154   4.416
25683SOL    HW178946   4.452   7.109   4.382
25683SOL    HW278947   4.502   7.189   4.501
25684SOL     OW78948   1.189   7.709  14.646
25684SOL    HW178949   1.137   7.776  14.689
25684SOL    HW278950   1.136   7.630  14.653
25685SOL     OW78951  12.673  10.553  13.457
25685SOL    HW178952  12.595  10.603  13.485
25685SOL    HW278953  12.708  10.517  13.538
25686SOL     OW78954   5.844  12.504   9.722
25686SOL    HW178955   5.830  12.471   9.811
25686SOL    HW278956   5.935  12.485   9.703
25687SOL     OW78957   8.908  13.248   9.152
25687SOL    HW178958   8.860  13.166   9.143
25687SOL    HW278959   8.871  13.306   9.085
25688SOL     OW78960   9.812   6.902   4.397
25688SOL    HW178961   9.904   6.927   4.404
25688SOL    HW278962   9.763   6.983   4.412
25689SOL     OW78963   4.057  14.382   5.485
25689SOL    HW178964   4.057  14.412   5.576
25689SOL    HW278965   3.982  14.425   5.446
25690SOL     OW78966   9.313   4.158   5.573
25690SOL    HW178967   9.241   4.139   5.633
25690SOL    HW278968   9.323   4.253   5.578
25691SOL     OW78969   1.401   9.373  14.692
25691SOL    HW178970   1.497   9.378  14.695
25691SOL    HW278971   1.380   9.286  14.726
25692SOL     OW78972   1.002   3.630  14.209
25692SOL    HW178973   1.000   3.654  14.302
25692SOL    HW278974   0.919   3.663  14.174
25693SOL     OW78975   2.260   0.069   6.407
25693SOL    HW178976   2.230   0.158   6.387
25693SOL    HW278977   2.209   0.043   6.483
25694SOL     OW78978   2.130   7.996   1.121
25694SOL    HW178979   2.185   7.984   1.044
25694SOL    HW278980   2.186   7.971   1.195
25695SOL     OW78981  10.777   7.121  14.064
25695SOL    HW178982  10.766   7.037  14.109
25695SOL    HW278983  10.840   7.103  13.994
25696SOL     OW78984   4.475   3.171   2.227
25696SOL    HW178985   4.387   3.172   2.189
25696SOL    HW278986   4.501   3.263   2.229
25697SOL     OW78987   8.621   2.739  12.446
25697SOL    HW178988   8.535   2.725  12.405
25697SOL    HW278989   8.622   2.679  12.521
25698SOL     OW78990  13.139  14.197   8.124
25698SOL    HW178991  13.077  14.154   8.183
25698SOL    HW278992  13.105  14.180   8.036
25699SOL     OW78993   7.821   6.326  12.770
25699SOL    HW178994   7.849   6.250  12.821
25699SOL    HW278995   7.898   6.384  12.769
25700SOL     OW78996   1.674   9.319   5.411
25700SOL    HW178997   1.676   9.246   5.472
25700SOL    HW278998   1.760   9.361   5.421
25701SOL     OW78999  10.452  14.486   4.348
25701SOL    HW179000  10.495  14.570   4.362
25701SOL    HW279001  10.519  14.431   4.308
25702SOL     OW79002   3.661   6.042   2.069
25702SOL    HW179003   3.625   6.130   2.060
25702SOL    HW279004   3.651   6.002   1.983
25703SOL     OW79005   3.644   1.011  14.348
25703SOL    HW179006   3.693   1.079  14.302
25703SOL    HW279007   3.553   1.026  14.322
25704SOL     OW79008  11.608   4.133  12.092
25704SOL    HW179009  11.597   4.042  12.064
25704SOL    HW279010  11.688   4.133  12.144
25705SOL     OW79011  12.926   8.437  11.597
25705SOL    HW179012  12.849   8.388  11.566
25705SOL    HW279013  12.897   8.481  11.676
25706SOL     OW79014   6.158  11.792   0.196
25706SOL    HW179015   6.105  11.848   0.139
25706SOL    HW279016   6.158  11.837   0.280
25707SOL     OW79017  13.083  12.480   2.947
25707SOL    HW179018  13.079  12.417   2.875
25707SOL    HW279019  13.081  12.566   2.904
25708SOL     OW79020  10.511   7.554   8.026
25708SOL    HW179021  10.492   7.529   7.936
25708SOL    HW279022  10.431   7.595   8.058
25709SOL     OW79023   9.603   8.633   6.778
25709SOL    HW179024   9.514   8.598   6.778
25709SOL    HW279025   9.659   8.555   6.789
25710SOL     OW79026   5.613  14.728   7.706
25710SOL    HW179027   5.564  14.762   7.631
25710SOL    HW279028   5.590  14.787   7.777
25711SOL     OW79029  13.471   2.830  10.856
25711SOL    HW179030  13.494   2.858  10.944
25711SOL    HW279031  13.525   2.752  10.840
25712SOL     OW79032   8.858  11.760  14.435
25712SOL    HW179033   8.921  11.832  14.441
25712SOL    HW279034   8.890  11.694  14.497
25713SOL     OW79035   3.439  10.371   9.516
25713SOL    HW179036   3.377  10.440   9.538
25713SOL    HW279037   3.469  10.338   9.601
25714SOL     OW79038   3.227   7.901  10.935
25714SOL    HW179039   3.201   7.947  10.854
25714SOL    HW279040   3.246   7.972  10.997
25715SOL     OW79041   8.005  13.785   5.170
25715SOL    HW179042   8.100  13.795   5.171
25715SOL    HW279043   7.987  13.719   5.237
25716SOL     OW79044   0.188   6.468   0.732
25716SOL    HW179045   0.205   6.557   0.764
25716SOL    HW279046   0.244   6.460   0.655
25717SOL     OW79047  12.308   2.285  14.526
25717SOL    HW179048  12.267   2.242  14.451
25717SOL    HW279049  12.258   2.366  14.538
25718SOL     OW79050   4.115   8.713  11.817
25718SOL    HW179051   4.035   8.764  11.811
25718SOL    HW279052   4.177   8.771  11.860
25719SOL     OW79053   4.363   0.787   4.773
25719SOL    HW179054   4.293   0.809   4.711
25719SOL    HW279055   4.430   0.744   4.720
25720SOL     OW79056   6.379   0.547   6.761
25720SOL    HW179057   6.290   0.549   6.795
25720SOL    HW279058   6.374   0.493   6.683
25721SOL     OW79059  10.420  10.911   0.951
25721SOL    HW179060  10.472  10.933   0.874
25721SOL    HW279061  10.380  10.994   0.978
25722SOL     OW79062   9.201  12.285   3.437
25722SOL    HW179063   9.226  12.299   3.528
25722SOL    HW279064   9.281  12.299   3.387
25723SOL     OW79065  14.213  12.579  12.369
25723SOL    HW179066  14.239  12.662  12.409
25723SOL    HW279067  14.296  12.542  12.337
25724SOL     OW79068   2.970   6.511  10.852
25724SOL    HW179069   3.064   6.495  10.854
25724SOL    HW279070   2.942   6.483  10.765
25725SOL     OW79071  13.121   6.777  12.843
25725SOL    HW179072  13.063   6.845  12.807
25725SOL    HW279073  13.204   6.790  12.796
25726SOL     OW79074   9.557   7.862   7.157
25726SOL    HW179075   9.572   7.913   7.237
25726SOL    HW279076   9.476   7.815   7.174
25727SOL     OW79077   5.516   3.088   9.708
25727SOL    HW179078   5.608   3.114   9.709
25727SOL    HW279079   5.511   3.014   9.768
25728SOL     OW79080  10.417  13.341  13.735
25728SOL    HW179081  10.323  13.357  13.733
25728SOL    HW279082  10.438  13.312  13.646
25729SOL     OW79083   0.586   6.883  11.192
25729SOL    HW179084   0.648   6.865  11.263
25729SOL    HW279085   0.641   6.885  11.114
25730SOL     OW79086   7.552  13.252   7.015
25730SOL    HW179087   7.625  13.309   6.993
25730SOL    HW279088   7.586  13.195   7.084
25731SOL     OW79089   9.920   4.018   3.806
25731SOL    HW179090   9.868   4.083   3.854
25731SOL    HW279091   9.900   3.935   3.849
25732SOL     OW79092   7.717  14.229  14.462
25732SOL    HW179093   7.680  14.318  14.458
25732SOL    HW279094   7.646  14.173  14.429
25733SOL     OW79095  13.599   9.525  11.467
25733SOL    HW179096  13.692   9.519  11.447
25733SOL    HW279097  13.561   9.571  11.392
25734SOL     OW79098  12.601  11.158   1.970
25734SOL    HW179099  12.597  11.078   1.916
25734SOL    HW279100  12.510  11.178   1.990
25735SOL     OW79101   6.431   2.146   1.140
25735SOL    HW179102   6.422   2.198   1.060
25735SOL    HW279103   6.508   2.092   1.125
25736SOL     OW79104   3.952  12.539  11.620
25736SOL    HW179105   3.881  12.566  11.678
25736SOL    HW279106   4.032  12.553  11.671
25737SOL     OW79107  11.195  13.628   8.710
25737SOL    HW179108  11.274  13.596   8.754
25737SOL    HW279109  11.144  13.549   8.693
25738SOL     OW79110  14.463  13.449   0.060
25738SOL    HW179111  14.535  13.417   0.004
25738SOL    HW279112  14.471  13.544   0.056
25739SOL     OW79113   2.473  13.258  11.232
25739SOL    HW179114   2.475  13.192  11.163
25739SOL    HW279115   2.426  13.216  11.304
25740SOL     OW79116   6.213  12.311   3.541
25740SOL    HW179117   6.281  12.262   3.495
25740SOL    HW279118   6.207  12.270   3.627
25741SOL     OW79119  10.617   1.865   0.252
25741SOL    HW179120  10.613   1.884   0.158
25741SOL    HW279121  10.612   1.770   0.258
25742SOL     OW79122   5.569   2.999   0.768
25742SOL    HW179123   5.598   3.085   0.737
25742SOL    HW279124   5.476   2.996   0.747
25743SOL     OW79125  13.907   5.292   5.393
25743SOL    HW179126  13.865   5.369   5.355
25743SOL    HW279127  13.867   5.218   5.347
25744SOL     OW79128   1.150  12.397  12.611
25744SOL    HW179129   1.159  12.313  12.565
25744SOL    HW279130   1.135  12.373  12.702
25745SOL     OW79131   4.853  13.166   9.467
25745SOL    HW179132   4.895  13.080   9.460
25745SOL    HW279133   4.767  13.147   9.504
25746SOL     OW79134   0.577   2.779   6.673
25746SOL    HW179135   0.528   2.849   6.716
25746SOL    HW279136   0.524   2.700   6.687
25747SOL     OW79137   2.880   1.767   7.182
25747SOL    HW179138   2.856   1.761   7.089
25747SOL    HW279139   2.865   1.679   7.216
25748SOL     OW79140  13.079  13.836  11.100
25748SOL    HW179141  12.995  13.836  11.054
25748SOL    HW279142  13.122  13.756  11.070
25749SOL     OW79143   7.358   3.676   8.368
25749SOL    HW179144   7.417   3.615   8.325
25749SOL    HW279145   7.410   3.755   8.381
25750SOL     OW79146   5.577   5.222   7.962
25750SOL    HW179147   5.642   5.236   8.032
25750SOL    HW279148   5.504   5.279   7.985
25751SOL     OW79149   1.853  12.331  13.741
25751SOL    HW179150   1.917  12.388  13.783
25751SOL    HW279151   1.881  12.242  13.765
25752SOL     OW79152   0.626  11.414   9.384
25752SOL    HW179153   0.621  11.398   9.289
25752SOL    HW279154   0.557  11.478   9.401
25753SOL     OW79155   7.475   0.975   7.415
25753SOL    HW179156   7.497   1.063   7.447
25753SOL    HW279157   7.500   0.916   7.485
25754SOL     OW79158  11.421   4.227   2.371
25754SOL    HW179159  11.407   4.157   2.307
25754SOL    HW279160  11.461   4.183   2.446
25755SOL     OW79161  11.386  12.818   0.447
25755SOL    HW179162  11.419  12.770   0.523
25755SOL    HW279163  11.387  12.910   0.475
25756SOL     OW79164   0.179  12.953   3.730
25756SOL    HW179165   0.112  12.961   3.661
25756SOL    HW279166   0.262  12.948   3.682
25757SOL     OW79167   9.741  12.106   8.716
25757SOL    HW179168   9.764  12.026   8.762
25757SOL    HW279169   9.678  12.150   8.773
25758SOL     OW79170  12.316   6.462   8.851
25758SOL    HW179171  12.321   6.379   8.899
25758SOL    HW279172  12.239   6.506   8.887
25759SOL     OW79173  10.105  14.263   6.141
25759SOL    HW179174  10.080  14.335   6.199
25759SOL    HW279175  10.195  14.284   6.115
25760SOL     OW79176   2.576  14.261   6.214
25760SOL    HW179177   2.618  14.199   6.156
25760SOL    HW279178   2.607  14.237   6.302
25761SOL     OW79179   4.245  10.951  14.795
25761SOL    HW179180   4.279  10.989   0.006
25761SOL    HW279181   4.150  10.957  14.803
25762SOL     OW79182   1.967   8.312   6.744
25762SOL    HW179183   1.970   8.265   6.827
25762SOL    HW279184   2.043   8.370   6.747
25763SOL     OW79185   9.186  13.391   8.638
25763SOL    HW179186   9.223  13.476   8.660
25763SOL    HW279187   9.246  13.328   8.678
25764SOL     OW79188   9.919   5.307   4.525
25764SOL    HW179189   9.995   5.317   4.468
25764SOL    HW279190   9.861   5.380   4.500
25765SOL     OW79191   6.969   3.205   4.717
25765SOL    HW179192   7.036   3.156   4.763
25765SOL    HW279193   7.018   3.260   4.655
25766SOL     OW79194   3.909   7.251   4.110
25766SOL    HW179195   3.895   7.157   4.104
25766SOL    HW279196   3.883   7.286   4.025
25767SOL     OW79197   5.429  12.327  12.174
25767SOL    HW179198   5.375  12.279  12.236
25767SOL    HW279199   5.380  12.407  12.155
25768SOL     OW79200   1.729   7.308   5.634
25768SOL    HW179201   1.733   7.375   5.702
25768SOL    HW279202   1.757   7.352   5.554
25769SOL     OW79203   6.649  10.470   2.494
25769SOL    HW179204   6.688  10.501   2.576
25769SOL    HW279205   6.663  10.542   2.433
25770SOL     OW79206   4.397  12.573   7.937
25770SOL    HW179207   4.470  12.513   7.920
25770SOL    HW279208   4.327  12.543   7.881
25771SOL     OW79209   5.883   7.838  11.330
25771SOL    HW179210   5.894   7.784  11.252
25771SOL    HW279211   5.891   7.928  11.298
25772SOL     OW79212   8.867   6.099   0.142
25772SOL    HW179213   8.898   6.022   0.189
25772SOL    HW279214   8.922   6.103   0.064
25773SOL     OW79215   5.675   2.327   2.011
25773SOL    HW179216   5.769   2.347   2.016
25773SOL    HW279217   5.632   2.409   2.034
25774SOL     OW79218   4.400  10.938   3.331
25774SOL    HW179219   4.356  10.878   3.271
25774SOL    HW279220   4.330  10.971   3.387
25775SOL     OW79221   1.531   4.809  14.732
25775SOL    HW179222   1.534   4.856  14.648
25775SOL    HW279223   1.613   4.759  14.734
25776SOL     OW79224   6.756   8.816   8.349
25776SOL    HW179225   6.796   8.795   8.265
25776SOL    HW279226   6.729   8.907   8.342
25777SOL     OW79227  12.131   4.082  10.625
25777SOL    HW179228  12.196   4.026  10.582
25777SOL    HW279229  12.170   4.169  10.623
25778SOL     OW79230   7.344   6.001  14.109
25778SOL    HW179231   7.252   5.976  14.100
25778SOL    HW279232   7.388   5.958  14.035
25779SOL     OW79233  13.990   3.057   8.466
25779SOL    HW179234  13.942   2.978   8.443
25779SOL    HW279235  13.923   3.126   8.468
25780SOL     OW79236  13.162   8.204   1.199
25780SOL    HW179237  13.208   8.129   1.237
25780SOL    HW279238  13.231   8.266   1.177
25781SOL     OW79239   9.196   7.546   4.486
25781SOL    HW179240   9.177   7.460   4.448
25781SOL    HW279241   9.269   7.580   4.434
25782SOL     OW79242  14.498   7.637   4.696
25782SOL    HW179243  14.540   7.622   4.781
25782SOL    HW279244  14.563   7.686   4.646
25783SOL     OW79245  12.040  11.824   3.135
25783SOL    HW179246  12.105  11.893   3.123
25783SOL    HW279247  12.007  11.805   3.047
25784SOL     OW79248  14.247   3.649  10.591
25784SOL    HW179249  14.237   3.559  10.558
25784SOL    HW279250  14.158   3.680  10.605
25785SOL     OW79251  14.459   4.068   3.756
25785SOL    HW179252  14.419   4.040   3.673
25785SOL    HW279253  14.536   4.012   3.765
25786SOL     OW79254   4.516  12.606  11.286
25786SOL    HW179255   4.559  12.646  11.362
25786SOL    HW279256   4.508  12.678  11.223
25787SOL     OW79257   6.197   0.850   7.800
25787SOL    HW179258   6.158   0.864   7.886
25787SOL    HW279259   6.288   0.826   7.818
25788SOL     OW79260   1.935  14.653  11.994
25788SOL    HW179261   2.011  14.702  11.962
25788SOL    HW279262   1.961  14.622  12.081
25789SOL     OW79263  12.506   3.772   2.608
25789SOL    HW179264  12.471   3.820   2.682
25789SOL    HW279265  12.510   3.681   2.637
25790SOL     OW79266   1.420  14.213  12.605
25790SOL    HW179267   1.446  14.223  12.514
25790SOL    HW279268   1.343  14.157  12.601
25791SOL     OW79269   9.366   0.329   0.808
25791SOL    HW179270   9.384   0.236   0.806
25791SOL    HW279271   9.272   0.335   0.826
25792SOL     OW79272   4.331   8.478   1.191
25792SOL    HW179273   4.358   8.570   1.191
25792SOL    HW279274   4.414   8.429   1.194
25793SOL     OW79275  11.482   6.678   5.075
25793SOL    HW179276  11.469   6.585   5.090
25793SOL    HW279277  11.406   6.720   5.114
25794SOL     OW79278   1.929   7.362   0.787
25794SOL    HW179279   1.923   7.374   0.692
25794SOL    HW279280   1.881   7.281   0.804
25795SOL     OW79281   7.205   1.597  13.296
25795SOL    HW179282   7.249   1.520  13.333
25795SOL    HW279283   7.201   1.578  13.202
25796SOL     OW79284  10.145   5.583   8.971
25796SOL    HW179285  10.075   5.562   8.910
25796SOL    HW279286  10.210   5.630   8.918
25797SOL     OW79287   2.199   6.903   1.102
25797SOL    HW179288   2.124   6.853   1.133
25797SOL    HW279289   2.218   6.965   1.172
25798SOL     OW79290   5.894   5.897  12.872
25798SOL    HW179291   5.906   5.823  12.812
25798SOL    HW279292   5.939   5.870  12.952
25799SOL     OW79293   2.714   9.773   3.484
25799SOL    HW179294   2.789   9.725   3.521
25799SOL    HW279295   2.674   9.711   3.422
25800SOL     OW79296   8.285   4.548  12.675
25800SOL    HW179297   8.311   4.623  12.622
25800SOL    HW279298   8.189   4.546  12.667
25801SOL     OW79299   8.337  12.755   3.096
25801SOL    HW179300   8.252  12.798   3.085
25801SOL    HW279301   8.385  12.777   3.015
25802SOL     OW79302   6.046   5.912   9.800
25802SOL    HW179303   6.062   5.824   9.834
25802SOL    HW279304   5.951   5.915   9.786
25803SOL     OW79305   0.005  13.798   9.492
25803SOL    HW179306   0.059  13.764   9.419
25803SOL    HW279307  14.853  13.720   9.544
25804SOL     OW79308   2.167  10.791   5.966
25804SOL    HW179309   2.102  10.859   5.985
25804SOL    HW279310   2.167  10.784   5.871
25805SOL     OW79311   8.956   9.972   1.690
25805SOL    HW179312   8.967   9.907   1.759
25805SOL    HW279313   8.904   9.926   1.623
25806SOL     OW79314   8.987   0.281   2.550
25806SOL    HW179315   8.916   0.265   2.612
25806SOL    HW279316   8.944   0.285   2.465
25807SOL     OW79317  12.306  12.183  14.262
25807SOL    HW179318  12.273  12.228  14.184
25807SOL    HW279319  12.253  12.103  14.268
25808SOL     OW79320   3.020   7.538   2.262
25808SOL    HW179321   2.981   7.621   2.291
25808SOL    HW279322   2.981   7.472   2.320
25809SOL     OW79323  13.780   3.004   5.242
25809SOL    HW179324  13.714   3.019   5.310
25809SOL    HW279325  13.741   3.042   5.163
25810SOL     OW79326   2.101   2.235   1.803
25810SOL    HW179327   2.120   2.255   1.895
25810SOL    HW279328   2.006   2.223   1.800
25811SOL     OW79329   0.326  12.379   6.179
25811SOL    HW179330   0.304  12.310   6.242
25811SOL    HW279331   0.255  12.443   6.189
25812SOL     OW79332   7.742   8.278   1.719
25812SOL    HW179333   7.808   8.217   1.753
25812SOL    HW279334   7.762   8.285   1.625
25813SOL     OW79335   7.408  13.308   7.268
25813SOL    HW179336   7.338  13.245   7.283
25813SOL    HW279337   7.454  13.275   7.191
25814SOL     OW79338   7.305   4.263  11.007
25814SOL    HW179339   7.261   4.205  10.944
25814SOL    HW279340   7.383   4.294  10.961
25815SOL     OW79341   9.399  12.633   8.291
25815SOL    HW179342   9.410  12.714   8.241
25815SOL    HW279343   9.481  12.624   8.340
25816SOL     OW79344  12.299   6.741   3.168
25816SOL    HW179345  12.335   6.700   3.089
25816SOL    HW279346  12.255   6.820   3.136
25817SOL     OW79347   1.966   1.901  11.170
25817SOL    HW179348   2.016   1.830  11.210
25817SOL    HW279349   2.018   1.980  11.188
25818SOL     OW79350  11.524  12.029   4.975
25818SOL    HW179351  11.443  12.064   5.012
25818SOL    HW279352  11.523  11.936   4.996
25819SOL     OW79353  10.572   7.582   1.272
25819SOL    HW179354  10.632   7.533   1.329
25819SOL    HW279355  10.490   7.586   1.320
25820SOL     OW79356   2.062  10.240   0.768
25820SOL    HW179357   2.125  10.175   0.736
25820SOL    HW279358   2.094  10.324   0.734
25821SOL     OW79359   0.909  13.129   6.363
25821SOL    HW179360   0.862  13.108   6.443
25821SOL    HW279361   1.001  13.131   6.388
25822SOL     OW79362   1.360   3.509   0.298
25822SOL    HW179363   1.406   3.492   0.216
25822SOL    HW279364   1.290   3.570   0.275
25823SOL     OW79365   8.398   3.759   9.478
25823SOL    HW179366   8.386   3.678   9.527
25823SOL    HW279367   8.488   3.754   9.445
25824SOL     OW79368   2.068   5.562   7.324
25824SOL    HW179369   2.128   5.493   7.296
25824SOL    HW279370   2.108   5.600   7.402
25825SOL     OW79371   1.131   0.218   6.890
25825SOL    HW179372   1.122   0.275   6.813
25825SOL    HW279373   1.139   0.130   6.855
25826SOL     OW79374   2.004   3.081  14.123
25826SOL    HW179375   2.019   3.156  14.181
25826SOL    HW279376   2.083   3.076  14.070
25827SOL     OW79377   0.890  10.643   4.997
25827SOL    HW179378   0.903  10.642   4.903
25827SOL    HW279379   0.800  10.610   5.010
25828SOL     OW79380   1.685   1.931   6.010
25828SOL    HW179381   1.700   2.005   5.952
25828SOL    HW279382   1.590   1.925   6.018
25829SOL     OW79383  12.199   0.261   4.015
25829SOL    HW179384  12.270   0.250   3.952
25829SOL    HW279385  12.243   0.274   4.099
25830SOL     OW79386  13.223   8.178   4.567
25830SOL    HW179387  13.192   8.217   4.485
25830SOL    HW279388  13.171   8.220   4.635
25831SOL     OW79389   6.299   4.768   8.977
25831SOL    HW179390   6.314   4.735   8.889
25831SOL    HW279391   6.253   4.697   9.022
25832SOL     OW79392   4.661  13.230   4.701
25832SOL    HW179393   4.724  13.184   4.757
25832SOL    HW279394   4.576  13.215   4.743
25833SOL     OW79395   3.742  11.194   9.696
25833SOL    HW179396   3.658  11.241   9.695
25833SOL    HW279397   3.735  11.133   9.623
25834SOL     OW79398   0.156   3.823   1.792
25834SOL    HW179399   0.242   3.786   1.772
25834SOL    HW279400   0.100   3.794   1.720
25835SOL     OW79401   0.581  13.510  10.212
25835SOL    HW179402   0.507  13.531  10.268
25835SOL    HW279403   0.623  13.595  10.196
25836SOL     OW79404   9.277  13.994   4.790
25836SOL    HW179405   9.362  13.955   4.808
25836SOL    HW279406   9.285  14.084   4.822
25837SOL     OW79407  13.725   7.555   1.060
25837SOL    HW179408  13.746   7.537   0.968
25837SOL    HW279409  13.641   7.511   1.074
25838SOL     OW79410   5.825   6.357   8.846
25838SOL    HW179411   5.894   6.414   8.879
25838SOL    HW279412   5.804   6.299   8.919
25839SOL     OW79413  10.179   7.778  12.606
25839SOL    HW179414  10.240   7.708  12.581
25839SOL    HW279415  10.119   7.736  12.669
25840SOL     OW79416   0.326  11.443   3.453
25840SOL    HW179417   0.373  11.527   3.462
25840SOL    HW279418   0.269  11.455   3.378
25841SOL     OW79419   9.080   9.903   1.284
25841SOL    HW179420   8.986   9.915   1.293
25841SOL    HW279421   9.105   9.849   1.359
25842SOL     OW79422  10.536  10.298   5.834
25842SOL    HW179423  10.569  10.321   5.921
25842SOL    HW279424  10.459  10.244   5.851
25843SOL     OW79425   4.385   6.990  13.043
25843SOL    HW179426   4.409   7.048  13.116
25843SOL    HW279427   4.293   7.008  13.026
25844SOL     OW79428  14.738   5.218   6.548
25844SOL    HW179429  14.773   5.129   6.550
25844SOL    HW279430  14.815   5.273   6.531
25845SOL     OW79431   9.425   2.089   0.116
25845SOL    HW179432   9.396   2.117   0.029
25845SOL    HW279433   9.512   2.127   0.126
25846SOL     OW79434  13.634  13.462   8.982
25846SOL    HW179435  13.582  13.500   8.910
25846SOL    HW279436  13.725  13.471   8.953
25847SOL     OW79437   2.368   5.199  10.859
25847SOL    HW179438   2.433   5.204  10.788
25847SOL    HW279439   2.377   5.111  10.894
25848SOL     OW79440   3.816   1.885  13.587
25848SOL    HW179441   3.897   1.901  13.635
25848SOL    HW279442   3.842   1.831  13.512
25849SOL     OW79443  14.645   9.662  13.677
25849SOL    HW179444  14.700   9.656  13.755
25849SOL    HW279445  14.559   9.630  13.706
25850SOL     OW79446  11.949   4.632   0.564
25850SOL    HW179447  11.929   4.570   0.494
25850SOL    HW279448  11.876   4.624   0.625
25851SOL     OW79449   6.126  12.338   5.625
25851SOL    HW179450   6.216  12.312   5.607
25851SOL    HW279451   6.133  12.406   5.692
25852SOL     OW79452   3.723  11.350  12.559
25852SOL    HW179453   3.751  11.273  12.610
25852SOL    HW279454   3.803  11.380  12.516
25853SOL     OW79455  11.939   2.242   4.227
25853SOL    HW179456  11.999   2.257   4.153
25853SOL    HW279457  11.960   2.311   4.290
25854SOL     OW79458  11.495   5.729  14.538
25854SOL    HW179459  11.473   5.746  14.629
25854SOL    HW279460  11.463   5.640  14.521
25855SOL     OW79461   6.627  10.611  13.879
25855SOL    HW179462   6.572  10.650  13.810
25855SOL    HW279463   6.699  10.673  13.888
25856SOL     OW79464  10.721  14.493  14.324
25856SOL    HW179465  10.807  14.532  14.342
25856SOL    HW279466  10.735  14.399  14.333
25857SOL     OW79467   5.020   1.540   6.240
25857SOL    HW179468   5.089   1.524   6.304
25857SOL    HW279469   4.942   1.558   6.293
25858SOL     OW79470   7.424  10.366   4.804
25858SOL    HW179471   7.513  10.371   4.840
25858SOL    HW279472   7.416  10.276   4.773
25859SOL     OW79473   0.762  12.190   3.057
25859SOL    HW179474   0.759  12.268   3.112
25859SOL    HW279475   0.699  12.130   3.098
25860SOL     OW79476  11.191   0.875  12.865
25860SOL    HW179477  11.149   0.921  12.792
25860SOL    HW279478  11.119   0.834  12.912
25861SOL     OW79479   1.806  11.894   9.755
25861SOL    HW179480   1.743  11.835   9.714
25861SOL    HW279481   1.838  11.846   9.831
25862SOL     OW79482  14.636  11.371   7.713
25862SOL    HW179483  14.667  11.316   7.785
25862SOL    HW279484  14.700  11.357   7.643
25863SOL     OW79485  10.013  14.661   6.827
25863SOL    HW179486   9.946  14.593   6.816
25863SOL    HW279487  10.044  14.650   6.917
25864SOL     OW79488  12.262  12.911   0.655
25864SOL    HW179489  12.177  12.873   0.677
25864SOL    HW279490  12.280  12.973   0.726
25865SOL     OW79491   6.028  14.492  13.022
25865SOL    HW179492   5.985  14.472  13.105
25865SOL    HW279493   6.034  14.408  12.977
25866SOL     OW79494   1.602  13.118  11.646
25866SOL    HW179495   1.552  13.161  11.577
25866SOL    HW279496   1.633  13.189  11.702
25867SOL     OW79497  14.019   3.639   1.568
25867SOL    HW179498  14.033   3.611   1.658
25867SOL    HW279499  14.075   3.582   1.516
25868SOL     OW79500  11.831  11.824  13.286
25868SOL    HW179501  11.767  11.793  13.351
25868SOL    HW279502  11.780  11.833  13.206
25869SOL     OW79503  11.193   3.218   4.826
25869SOL    HW179504  11.159   3.149   4.884
25869SOL    HW279505  11.198   3.177   4.740
25870SOL     OW79506  13.297   9.960   4.613
25870SOL    HW179507  13.372   9.988   4.561
25870SOL    HW279508  13.234  10.032   4.606
25871SOL     OW79509  12.455   2.703   5.332
25871SOL    HW179510  12.448   2.638   5.402
25871SOL    HW279511  12.469   2.786   5.379
25872SOL     OW79512  10.887   9.355   2.554
25872SOL    HW179513  10.877   9.449   2.538
25872SOL    HW279514  10.903   9.317   2.468
25873SOL     OW79515   9.407   8.181   0.628
25873SOL    HW179516   9.313   8.201   0.619
25873SOL    HW279517   9.415   8.090   0.600
25874SOL     OW79518  13.281   5.431   0.688
25874SOL    HW179519  13.340   5.399   0.621
25874SOL    HW279520  13.333   5.429   0.769
25875SOL     OW79521  10.271  13.461   4.387
25875SOL    HW179522  10.287  13.521   4.314
25875SOL    HW279523  10.217  13.392   4.349
25876SOL     OW79524   2.995   9.395  13.595
25876SOL    HW179525   3.046   9.476  13.589
25876SOL    HW279526   3.049   9.336  13.648
25877SOL     OW79527   9.621  10.687   5.909
25877SOL    HW179528   9.556  10.758   5.907
25877SOL    HW279529   9.680  10.711   5.980
25878SOL     OW79530  13.084  14.438   1.719
25878SOL    HW179531  13.153  14.418   1.783
25878SOL    HW279532  13.084  14.533   1.713
25879SOL     OW79533   9.023   2.421  14.225
25879SOL    HW179534   9.016   2.430  14.320
25879SOL    HW279535   8.935   2.440  14.192
25880SOL     OW79536   0.574   0.884   9.826
25880SOL    HW179537   0.518   0.939   9.881
25880SOL    HW279538   0.547   0.795   9.846
25881SOL     OW79539   6.190   2.493   1.413
25881SOL    HW179540   6.184   2.519   1.505
25881SOL    HW279541   6.136   2.414   1.407
25882SOL     OW79542   5.391   3.062   3.779
25882SOL    HW179543   5.456   3.028   3.841
25882SOL    HW279544   5.371   2.989   3.721
25883SOL     OW79545  13.756   1.958   0.752
25883SOL    HW179546  13.733   2.049   0.766
25883SOL    HW279547  13.850   1.953   0.769
25884SOL     OW79548  11.627   7.771   1.043
25884SOL    HW179549  11.562   7.727   1.099
25884SOL    HW279550  11.628   7.719   0.963
25885SOL     OW79551   0.970   0.331  12.119
25885SOL    HW179552   0.904   0.278  12.074
25885SOL    HW279553   1.051   0.314  12.071
25886SOL     OW79554   5.562   5.412  10.620
25886SOL    HW179555   5.648   5.431  10.584
25886SOL    HW279556   5.541   5.488  10.674
25887SOL     OW79557   9.251  11.936  12.827
25887SOL    HW179558   9.174  11.902  12.871
25887SOL    HW279559   9.296  11.989  12.893
25888SOL     OW79560   5.035   2.033  10.022
25888SOL    HW179561   5.122   2.058   9.991
25888SOL    HW279562   5.042   1.939  10.040
25889SOL     OW79563   0.431  14.799   0.506
25889SOL    HW179564   0.449  14.728   0.445
25889SOL    HW279565   0.338  14.792   0.525
25890SOL     OW79566   5.109   6.531  12.744
25890SOL    HW179567   5.120   6.576  12.828
25890SOL    HW279568   5.193   6.542  12.700
25891SOL     OW79569   6.946   7.709   0.040
25891SOL    HW179570   6.858   7.678   0.061
25891SOL    HW279571   6.982   7.738   0.124
25892SOL     OW79572   9.774  11.053   3.409
25892SOL    HW179573   9.727  11.087   3.484
25892SOL    HW279574   9.806  11.131   3.363
25893SOL     OW79575  13.874  10.933   3.749
25893SOL    HW179576  13.823  10.885   3.684
25893SOL    HW279577  13.828  11.017   3.759
25894SOL     OW79578   0.561   7.057   6.318
25894SOL    HW179579   0.523   7.021   6.398
25894SOL    HW279580   0.604   7.138   6.346
25895SOL     OW79581   8.312   8.482  14.685
25895SOL    HW179582   8.406   8.499  14.681
25895SOL    HW279583   8.272   8.569  14.673
25896SOL     OW79584   2.107   7.459   1.194
25896SOL    HW179585   2.029   7.508   1.170
25896SOL    HW279586   2.087   7.369   1.169
25897SOL     OW79587   0.311   3.723   7.962
25897SOL    HW179588   0.225   3.721   8.003
25897SOL    HW279589   0.372   3.737   8.035
25898SOL     OW79590   5.690  13.389   1.727
25898SOL    HW179591   5.597  13.380   1.748
25898SOL    HW279592   5.711  13.480   1.749
25899SOL     OW79593   9.809   2.981   9.383
25899SOL    HW179594   9.755   2.979   9.304
25899SOL    HW279595   9.755   3.026   9.448
25900SOL     OW79596  13.163   6.591   0.469
25900SOL    HW179597  13.130   6.578   0.558
25900SOL    HW279598  13.247   6.544   0.468
25901SOL     OW79599   2.607   1.402  10.856
25901SOL    HW179600   2.651   1.321  10.883
25901SOL    HW279601   2.589   1.389  10.763
25902SOL     OW79602  14.560   0.528   3.141
25902SOL    HW179603  14.650   0.522   3.175
25902SOL    HW279604  14.511   0.571   3.212
25903SOL     OW79605  11.188   5.567  14.634
25903SOL    HW179606  11.156   5.587  14.546
25903SOL    HW279607  11.232   5.647  14.662
25904SOL     OW79608   7.007   6.387   9.499
25904SOL    HW179609   7.008   6.320   9.430
25904SOL    HW279610   7.036   6.467   9.455
25905SOL     OW79611  10.273   5.444   7.532
25905SOL    HW179612  10.246   5.530   7.499
25905SOL    HW279613  10.369   5.449   7.534
25906SOL     OW79614   0.946   5.664   3.688
25906SOL    HW179615   0.927   5.615   3.768
25906SOL    HW279616   0.863   5.664   3.640
25907SOL     OW79617   0.325   2.673  11.142
25907SOL    HW179618   0.230   2.664  11.131
25907SOL    HW279619   0.360   2.588  11.113
25908SOL     OW79620   9.275   7.409   2.809
25908SOL    HW179621   9.361   7.431   2.843
25908SOL    HW279622   9.292   7.367   2.725
25909SOL     OW79623  13.021   9.766   1.327
25909SOL    HW179624  13.105   9.734   1.293
25909SOL    HW279625  13.012   9.854   1.289
25910SOL     OW79626  13.866  11.879   9.006
25910SOL    HW179627  13.829  11.851   9.089
25910SOL    HW279628  13.833  11.816   8.942
25911SOL     OW79629   5.031  10.805   4.215
25911SOL    HW179630   4.999  10.735   4.159
25911SOL    HW279631   5.124  10.813   4.194
25912SOL     OW79632   0.594   3.468   5.332
25912SOL    HW179633   0.597   3.373   5.319
25912SOL    HW279634   0.502   3.486   5.351
25913SOL     OW79635   7.752   0.233   0.140
25913SOL    HW179636   7.824   0.269   0.089
25913SOL    HW279637   7.719   0.307   0.191
25914SOL     OW79638   1.007   4.406  14.836
25914SOL    HW179639   1.025   4.408  14.743
25914SOL    HW279640   0.964   4.322  14.851
25915SOL     OW79641   3.123  10.470   2.644
25915SOL    HW179642   3.144  10.378   2.627
25915SOL    HW279643   3.207  10.511   2.662
25916SOL     OW79644   5.260   8.831  13.953
25916SOL    HW179645   5.232   8.753  14.001
25916SOL    HW279646   5.356   8.827  13.954
25917SOL     OW79647   5.226   9.420  14.248
25917SOL    HW179648   5.157   9.476  14.213
25917SOL    HW279649   5.307   9.469  14.233
25918SOL     OW79650   6.252   6.431   5.183
25918SOL    HW179651   6.216   6.486   5.114
25918SOL    HW279652   6.176   6.390   5.224
25919SOL     OW79653   6.662   6.593  14.391
25919SOL    HW179654   6.729   6.644  14.346
25919SOL    HW279655   6.706   6.557  14.468
25920SOL     OW79656   1.286   9.852   7.512
25920SOL    HW179657   1.261   9.898   7.432
25920SOL    HW279658   1.251   9.907   7.583
25921SOL     OW79659   7.056   9.924  13.793
25921SOL    HW179660   7.093   9.951  13.877
25921SOL    HW279661   7.023   9.836  13.809
25922SOL     OW79662   3.234  11.817   2.166
25922SOL    HW179663   3.299  11.794   2.232
25922SOL    HW279664   3.284  11.861   2.097
25923SOL     OW79665   6.779   1.876   6.968
25923SOL    HW179666   6.770   1.787   6.932
25923SOL    HW279667   6.694   1.916   6.955
25924SOL     OW79668   1.494   2.677   4.375
25924SOL    HW179669   1.534   2.633   4.300
25924SOL    HW279670   1.404   2.645   4.377
25925SOL     OW79671   0.563   1.709  11.395
25925SOL    HW179672   0.584   1.780  11.457
25925SOL    HW279673   0.475   1.682  11.420
25926SOL     OW79674   4.429   9.376   2.202
25926SOL    HW179675   4.456   9.446   2.262
25926SOL    HW279676   4.364   9.326   2.251
25927SOL     OW79677   9.206  11.431   8.585
25927SOL    HW179678   9.154  11.390   8.517
25927SOL    HW279679   9.266  11.489   8.538
25928SOL     OW79680   8.320   1.374   6.914
25928SOL    HW179681   8.271   1.382   6.996
25928SOL    HW279682   8.299   1.286   6.883
25929SOL     OW79683   5.020   3.099   4.781
25929SOL    HW179684   5.049   3.190   4.780
25929SOL    HW279685   5.069   3.058   4.710
25930SOL     OW79686   6.080   8.085   8.120
25930SOL    HW179687   6.081   8.150   8.049
25930SOL    HW279688   6.015   8.021   8.093
25931SOL     OW79689   4.973   4.961  11.293
25931SOL    HW179690   5.042   4.932  11.353
25931SOL    HW279691   5.013   5.033  11.244
25932SOL     OW79692   2.910  14.019   2.438
25932SOL    HW179693   2.821  14.053   2.448
25932SOL    HW279694   2.954  14.045   2.519
25933SOL     OW79695   3.752   0.022   9.935
25933SOL    HW179696   3.731  14.827   9.867
25933SOL    HW279697   3.776   0.101   9.887
25934SOL     OW79698   4.798   9.815   9.175
25934SOL    HW179699   4.837   9.761   9.107
25934SOL    HW279700   4.754   9.753   9.233
25935SOL     OW79701   5.455   6.477   2.248
25935SOL    HW179702   5.521   6.409   2.242
25935SOL    HW279703   5.373   6.434   2.225
25936SOL     OW79704  11.807   6.016   9.427
25936SOL    HW179705  11.883   5.986   9.477
25936SOL    HW279706  11.830   6.105   9.400
25937SOL     OW79707  14.715  12.071   2.513
25937SOL    HW179708  14.636  12.022   2.487
25937SOL    HW279709  14.702  12.089   2.606
25938SOL     OW79710   2.083  14.032  10.546
25938SOL    HW179711   2.123  14.081  10.618
25938SOL    HW279712   2.076  13.942  10.578
25939SOL     OW79713   3.919   9.329   2.950
25939SOL    HW179714   3.995   9.346   3.006
25939SOL    HW279715   3.855   9.395   2.976
25940SOL     OW79716   5.068  11.011   6.589
25940SOL    HW179717   5.093  10.935   6.537
25940SOL    HW279718   4.978  11.029   6.564
25941SOL     OW79719   8.850   2.739   7.061
25941SOL    HW179720   8.914   2.671   7.082
25941SOL    HW279721   8.877   2.814   7.115
25942SOL     OW79722  13.023  11.292   6.276
25942SOL    HW179723  12.986  11.204   6.280
25942SOL    HW279724  12.982  11.333   6.200
25943SOL     OW79725   8.705  11.764   0.518
25943SOL    HW179726   8.617  11.802   0.518
25943SOL    HW279727   8.763  11.838   0.502
25944SOL     OW79728   9.076  11.107  10.394
25944SOL    HW179729   9.077  11.098  10.299
25944SOL    HW279730   9.031  11.190  10.411
25945SOL     OW79731  10.519   3.768   2.688
25945SOL    HW179732  10.562   3.834   2.634
25945SOL    HW279733  10.454   3.728   2.630
25946SOL     OW79734   4.271   2.046   4.319
25946SOL    HW179735   4.315   1.962   4.303
25946SOL    HW279736   4.342   2.104   4.347
25947SOL     OW79737   5.493  13.299   5.458
25947SOL    HW179738   5.556  13.339   5.399
25947SOL    HW279739   5.409  13.338   5.433
25948SOL     OW79740   2.509  13.828  14.208
25948SOL    HW179741   2.580  13.802  14.148
25948SOL    HW279742   2.547  13.817  14.295
25949SOL     OW79743   6.385   2.846   0.475
25949SOL    HW179744   6.339   2.792   0.411
25949SOL    HW279745   6.327   2.846   0.551
25950SOL     OW79746  11.831   2.762  14.278
25950SOL    HW179747  11.876   2.762  14.193
25950SOL    HW279748  11.738   2.757  14.257
25951SOL     OW79749   3.276   7.748   7.273
25951SOL    HW179750   3.204   7.779   7.328
25951SOL    HW279751   3.260   7.654   7.263
25952SOL     OW79752   2.210   4.167   4.772
25952SOL    HW179753   2.178   4.106   4.706
25952SOL    HW279754   2.230   4.112   4.847
25953SOL     OW79755   3.757   9.685  12.081
25953SOL    HW179756   3.785   9.719  11.996
25953SOL    HW279757   3.664   9.665  12.069
25954SOL     OW79758   9.073  10.381   4.602
25954SOL    HW179759   9.087  10.388   4.508
25954SOL    HW279760   9.074  10.472   4.634
25955SOL     OW79761   0.985   5.721  11.535
25955SOL    HW179762   0.896   5.701  11.563
25955SOL    HW279763   0.976   5.746  11.443
25956SOL     OW79764  14.169  11.240   8.435
25956SOL    HW179765  14.107  11.197   8.494
25956SOL    HW279766  14.155  11.197   8.351
25957SOL     OW79767   9.981   2.833   6.546
25957SOL    HW179768  10.051   2.894   6.566
25957SOL    HW279769   9.939   2.868   6.468
25958SOL     OW79770   7.640   9.100  10.103
25958SOL    HW179771   7.611   9.050  10.027
25958SOL    HW279772   7.666   9.185  10.067
25959SOL     OW79773  10.825   7.989   0.902
25959SOL    HW179774  10.863   7.931   0.836
25959SOL    HW279775  10.771   8.050   0.851
25960SOL     OW79776  12.460   1.341  13.186
25960SOL    HW179777  12.550   1.336  13.156
25960SOL    HW279778  12.415   1.394  13.121
25961SOL     OW79779   3.946  11.751   1.596
25961SOL    HW179780   3.972  11.732   1.506
25961SOL    HW279781   4.009  11.704   1.650
25962SOL     OW79782   5.236  10.867   8.449
25962SOL    HW179783   5.288  10.856   8.528
25962SOL    HW279784   5.278  10.810   8.384
25963SOL     OW79785   2.867   9.325  11.371
25963SOL    HW179786   2.855   9.332  11.276
25963SOL    HW279787   2.781   9.345  11.407
25964SOL     OW79788  10.236  14.074   4.913
25964SOL    HW179789  10.177  14.053   4.985
25964SOL    HW279790  10.259  13.988   4.876
25965SOL     OW79791   3.906   0.046   5.865
25965SOL    HW179792   3.883   0.118   5.923
25965SOL    HW279793   3.847   0.055   5.791
25966SOL     OW79794  12.599  10.838  13.596
25966SOL    HW179795  12.565  10.880  13.675
25966SOL    HW279796  12.677  10.790  13.625
25967SOL     OW79797  14.265  11.285   5.267
25967SOL    HW179798  14.244  11.213   5.326
25967SOL    HW279799  14.357  11.271   5.244
25968SOL     OW79800  13.661   8.314  11.066
25968SOL    HW179801  13.623   8.249  11.125
25968SOL    HW279802  13.748   8.280  11.046
25969SOL     OW79803  14.530   4.569   3.451
25969SOL    HW179804  14.545   4.479   3.423
25969SOL    HW279805  14.563   4.572   3.541
25970SOL     OW79806   1.325  10.682   2.711
25970SOL    HW179807   1.389  10.628   2.665
25970SOL    HW279808   1.240  10.656   2.675
25971SOL     OW79809   7.614   1.411   2.583
25971SOL    HW179810   7.541   1.449   2.632
25971SOL    HW279811   7.675   1.381   2.650
25972SOL     OW79812  10.564  14.144   3.557
25972SOL    HW179813  10.521  14.222   3.592
25972SOL    HW279814  10.650  14.143   3.599
25973SOL     OW79815  11.268   1.164   4.634
25973SOL    HW179816  11.186   1.138   4.592
25973SOL    HW279817  11.242   1.191   4.722
25974SOL     OW79818  12.738   1.251   5.722
25974SOL    HW179819  12.758   1.256   5.816
25974SOL    HW279820  12.732   1.342   5.694
25975SOL     OW79821   7.692   2.084   7.782
25975SOL    HW179822   7.701   2.079   7.687
25975SOL    HW279823   7.614   2.033   7.801
25976SOL     OW79824   7.409  12.486  14.616
25976SOL    HW179825   7.474  12.516  14.552
25976SOL    HW279826   7.327  12.527  14.588
25977SOL     OW79827  14.235   9.457  10.586
25977SOL    HW179828  14.249   9.378  10.533
25977SOL    HW279829  14.178   9.428  10.658
25978SOL     OW79830   9.593  10.776  11.475
25978SOL    HW179831   9.526  10.711  11.496
25978SOL    HW279832   9.607  10.823  11.556
25979SOL     OW79833   2.877   4.047   2.197
25979SOL    HW179834   2.791   4.062   2.158
25979SOL    HW279835   2.917   3.980   2.141
25980SOL     OW79836   7.386  13.106   8.016
25980SOL    HW179837   7.394  13.146   7.930
25980SOL    HW279838   7.416  13.016   8.004
25981SOL     OW79839   7.319  14.378   0.844
25981SOL    HW179840   7.270  14.376   0.761
25981SOL    HW279841   7.307  14.290   0.879
25982SOL     OW79842   3.288   5.128  14.526
25982SOL    HW179843   3.210   5.177  14.554
25982SOL    HW279844   3.338   5.115  14.607
25983SOL     OW79845   7.790  14.852   9.161
25983SOL    HW179846   7.758  14.769   9.125
25983SOL    HW279847   7.712   0.028   9.190
25984SOL     OW79848   6.639  13.914   1.484
25984SOL    HW179849   6.668  13.834   1.441
25984SOL    HW279850   6.614  13.972   1.412
25985SOL     OW79851  10.629  14.254  14.678
25985SOL    HW179852  10.579  14.254  14.596
25985SOL    HW279853  10.570  14.217  14.742
25986SOL     OW79854   9.626  11.388   0.675
25986SOL    HW179855   9.563  11.317   0.673
25986SOL    HW279856   9.708  11.348   0.705
25987SOL     OW79857  11.591   5.491   1.727
25987SOL    HW179858  11.641   5.511   1.807
25987SOL    HW279859  11.500   5.509   1.751
25988SOL     OW79860   6.840  12.998  10.236
25988SOL    HW179861   6.915  13.035  10.189
25988SOL    HW279862   6.852  12.903  10.228
25989SOL     OW79863   9.483   5.362  14.799
25989SOL    HW179864   9.504   5.448  14.837
25989SOL    HW279865   9.420   5.382  14.730
25990SOL     OW79866  13.878   9.071  12.997
25990SOL    HW179867  13.891   9.009  13.068
25990SOL    HW279868  13.967   9.088  12.963
25991SOL     OW79869   0.367   2.877   8.487
25991SOL    HW179870   0.437   2.938   8.508
25991SOL    HW279871   0.292   2.932   8.464
25992SOL     OW79872  11.797   1.009  13.279
25992SOL    HW179873  11.743   1.057  13.342
25992SOL    HW279874  11.884   1.050  13.287
25993SOL     OW79875   6.872   4.274   3.558
25993SOL    HW179876   6.920   4.356   3.567
25993SOL    HW279877   6.919   4.212   3.614
25994SOL     OW79878  12.354   4.555   2.868
25994SOL    HW179879  12.323   4.515   2.786
25994SOL    HW279880  12.365   4.648   2.846
25995SOL     OW79881   1.166   1.311   2.345
25995SOL    HW179882   1.217   1.232   2.367
25995SOL    HW279883   1.220   1.383   2.377
25996SOL     OW79884  13.092  14.707  10.784
25996SOL    HW179885  13.013  14.720  10.836
25996SOL    HW279886  13.076  14.756  10.703
25997SOL     OW79887   0.748   3.173   9.591
25997SOL    HW179888   0.732   3.201   9.501
25997SOL    HW279889   0.691   3.230   9.644
25998SOL     OW79890   0.505  13.412   8.858
25998SOL    HW179891   0.449  13.472   8.809
25998SOL    HW279892   0.458  13.397   8.940
25999SOL     OW79893   2.314  10.779   2.450
25999SOL    HW179894   2.393  10.754   2.498
25999SOL    HW279895   2.254  10.705   2.462
26000SOL     OW79896   7.913   1.826   6.927
26000SOL    HW179897   7.885   1.753   6.983
26000SOL    HW279898   7.905   1.792   6.838
26001SOL     OW79899   5.709  14.514  13.894
26001SOL    HW179900   5.649  14.527  13.820
26001SOL    HW279901   5.686  14.428  13.930
26002SOL     OW79902  12.600   3.304   8.709
26002SOL    HW179903  12.624   3.351   8.790
26002SOL    HW279904  12.611   3.369   8.640
26003SOL     OW79905   2.113   3.007   8.072
26003SOL    HW179906   2.189   2.958   8.041
26003SOL    HW279907   2.149   3.087   8.110
26004SOL     OW79908   2.220   1.075   1.335
26004SOL    HW179909   2.251   1.008   1.274
26004SOL    HW279910   2.294   1.134   1.346
26005SOL     OW79911   5.725  14.000   7.030
26005SOL    HW179912   5.806  13.994   7.080
26005SOL    HW279913   5.665  13.939   7.073
26006SOL     OW79914   8.514  11.414  10.268
26006SOL    HW179915   8.493  11.334  10.315
26006SOL    HW279916   8.549  11.384  10.184
26007SOL     OW79917   8.528   8.134   8.003
26007SOL    HW179918   8.458   8.080   8.040
26007SOL    HW279919   8.607   8.105   8.048
26008SOL     OW79920  13.773   4.064   6.782
26008SOL    HW179921  13.786   4.037   6.872
26008SOL    HW279922  13.742   3.986   6.737
26009SOL     OW79923   4.278   5.345   5.565
26009SOL    HW179924   4.373   5.344   5.578
26009SOL    HW279925   4.264   5.287   5.490
26010SOL     OW79926   8.607   1.935   2.497
26010SOL    HW179927   8.628   1.970   2.584
26010SOL    HW279928   8.633   2.005   2.437
26011SOL     OW79929   8.381   1.298  10.139
26011SOL    HW179930   8.351   1.265  10.055
26011SOL    HW279931   8.469   1.333  10.122
26012SOL     OW79932  10.100  14.570  12.000
26012SOL    HW179933  10.139  14.630  11.936
26012SOL    HW279934  10.175  14.533  12.047
26013SOL     OW79935   6.788   7.447   9.301
26013SOL    HW179936   6.831   7.362   9.291
26013SOL    HW279937   6.832   7.504   9.238
26014SOL     OW79938  13.157   9.023   1.187
26014SOL    HW179939  13.126   9.026   1.097
26014SOL    HW279940  13.202   8.939   1.195
26015SOL     OW79941   8.306   0.116   3.179
26015SOL    HW179942   8.389   0.130   3.132
26015SOL    HW279943   8.285   0.024   3.163
26016SOL     OW79944  13.558  14.854  10.521
26016SOL    HW179945  13.586  14.763  10.523
26016SOL    HW279946  13.633   0.034  10.555
26017SOL     OW79947   3.032   7.764  12.552
26017SOL    HW179948   2.965   7.771  12.484
26017SOL    HW279949   3.079   7.847  12.549
26018SOL     OW79950   2.316  12.883   2.666
26018SOL    HW179951   2.348  12.846   2.748
26018SOL    HW279952   2.307  12.809   2.607
26019SOL     OW79953   5.904  10.495  14.441
26019SOL    HW179954   5.840  10.434  14.478
26019SOL    HW279955   5.852  10.560  14.394
26020SOL     OW79956  13.691   0.326   1.218
26020SOL    HW179957  13.687   0.250   1.160
26020SOL    HW279958  13.775   0.366   1.200
26021SOL     OW79959   3.067  14.222   7.714
26021SOL    HW179960   3.022  14.278   7.777
26021SOL    HW279961   3.099  14.148   7.765
26022SOL     OW79962   2.620  12.831  13.462
26022SOL    HW179963   2.577  12.746  13.472
26022SOL    HW279964   2.670  12.823  13.381
26023SOL     OW79965   2.841   8.382   1.784
26023SOL    HW179966   2.925   8.405   1.825
26023SOL    HW279967   2.782   8.454   1.809
26024SOL     OW79968  10.669   2.189  10.647
26024SOL    HW179969  10.589   2.145  10.619
26024SOL    HW279970  10.705   2.132  10.715
26025SOL     OW79971   6.261  14.110   9.523
26025SOL    HW179972   6.230  14.082   9.437
26025SOL    HW279973   6.285  14.202   9.512
26026SOL     OW79974  13.413   1.543   7.387
26026SOL    HW179975  13.382   1.627   7.420
26026SOL    HW279976  13.460   1.565   7.307
26027SOL     OW79977   1.095   7.913  14.781
26027SOL    HW179978   1.171   7.930  14.838
26027SOL    HW279979   1.046   7.995  14.782
26028SOL     OW79980   6.427   2.433   8.273
26028SOL    HW179981   6.452   2.449   8.364
26028SOL    HW279982   6.387   2.346   8.274
26029SOL     OW79983   8.841  10.554   7.784
26029SOL    HW179984   8.780  10.537   7.712
26029SOL    HW279985   8.851  10.469   7.828
26030SOL     OW79986  14.266   6.817   5.088
26030SOL    HW179987  14.233   6.834   4.999
26030SOL    HW279988  14.334   6.883   5.101
26031SOL     OW79989   6.646   4.722   0.278
26031SOL    HW179990   6.571   4.713   0.219
26031SOL    HW279991   6.621   4.793   0.337
26032SOL     OW79992   7.731  11.397  13.240
26032SOL    HW179993   7.723  11.340  13.317
26032SOL    HW279994   7.772  11.477  13.274
26033SOL     OW79995   0.039   4.784  14.002
26033SOL    HW179996   0.124   4.803  13.962
26033SOL    HW279997   0.014   4.865  14.045
26034SOL     OW79998  11.856   3.360   4.423
26034SOL    HW179999  11.761   3.358   4.408
26034SOL    HW280000  11.894   3.360   4.335
26035SOL     OW80001   3.109  14.803   9.845
26035SOL    HW180002   3.170  14.745   9.890
26035SOL    HW280003   3.161  14.844   9.775
26036SOL     OW80004   9.128  11.960   3.369
26036SOL    HW180005   9.185  11.890   3.337
26036SOL    HW280006   9.160  11.979   3.457
26037SOL     OW80007  11.005   6.531   0.814
26037SOL    HW180008  11.099   6.521   0.806
26037SOL    HW280009  10.985   6.505   0.904
26038SOL     OW80010   8.390   1.983   3.324
26038SOL    HW180011   8.431   2.048   3.267
26038SOL    HW280012   8.439   1.989   3.406
26039SOL     OW80013  12.102   7.319   3.710
26039SOL    HW180014  12.175   7.322   3.649
26039SOL    HW280015  12.047   7.394   3.685
26040SOL     OW80016  13.913   5.643  12.694
26040SOL    HW180017  13.918   5.549  12.675
26040SOL    HW280018  13.832   5.652  12.745
26041SOL     OW80019   6.771   4.592   8.393
26041SOL    HW180020   6.847   4.558   8.441
26041SOL    HW280021   6.722   4.641   8.459
26042SOL     OW80022   9.271  13.093   7.891
26042SOL    HW180023   9.190  13.143   7.897
26042SOL    HW280024   9.245  13.002   7.903
26043SOL     OW80025   4.605   2.623   6.249
26043SOL    HW180026   4.649   2.657   6.328
26043SOL    HW280027   4.677   2.594   6.193
26044SOL     OW80028  13.188  14.852  14.143
26044SOL    HW180029  13.126  14.786  14.114
26044SOL    HW280030  13.135   0.061  14.158
26045SOL     OW80031   7.444   9.366  10.189
26045SOL    HW180032   7.460   9.377  10.282
26045SOL    HW280033   7.525   9.327  10.155
26046SOL     OW80034  14.792  11.137   4.162
26046SOL    HW180035  14.715  11.083   4.175
26046SOL    HW280036  14.825  11.154   4.250
26047SOL     OW80037   1.046   1.517  14.444
26047SOL    HW180038   1.082   1.539  14.530
26047SOL    HW280039   1.001   1.434  14.457
26048SOL     OW80040   9.002   2.965   6.432
26048SOL    HW180041   9.085   2.988   6.390
26048SOL    HW280042   8.982   3.041   6.487
26049SOL     OW80043   6.052  12.072   4.602
26049SOL    HW180044   6.138  12.069   4.645
26049SOL    HW280045   6.026  12.163   4.609
26050SOL     OW80046  11.061   5.239   7.595
26050SOL    HW180047  10.974   5.205   7.612
26050SOL    HW280048  11.053   5.287   7.512
26051SOL     OW80049  10.303   6.594   4.462
26051SOL    HW180050  10.360   6.643   4.521
26051SOL    HW280051  10.223   6.579   4.513
26052SOL     OW80052   0.228  13.632   7.173
26052SOL    HW180053   0.207  13.650   7.081
26052SOL    HW280054   0.145  13.604   7.211
26053SOL     OW80055   6.017   0.659   4.042
26053SOL    HW180056   5.938   0.654   4.096
26053SOL    HW280057   6.035   0.752   4.034
26054SOL     OW80058   6.622   4.050   3.631
26054SOL    HW180059   6.560   4.123   3.626
26054SOL    HW280060   6.615   4.008   3.545
26055SOL     OW80061  10.234  13.041  11.559
26055SOL    HW180062  10.168  12.972  11.558
26055SOL    HW280063  10.192  13.115  11.515
26056SOL     OW80064   5.165   6.282   1.906
26056SOL    HW180065   5.070   6.285   1.896
26056SOL    HW280066   5.179   6.225   1.982
26057SOL     OW80067   2.106   8.737  13.524
26057SOL    HW180068   2.041   8.721  13.455
26057SOL    HW280069   2.060   8.716  13.605
26058SOL     OW80070  13.840   0.248   3.505
26058SOL    HW180071  13.828   0.279   3.595
26058SOL    HW280072  13.841   0.328   3.452
26059SOL     OW80073   1.446   9.573   3.786
26059SOL    HW180074   1.440   9.642   3.852
26059SOL    HW280075   1.422   9.493   3.832
26060SOL     OW80076  11.298   8.314  12.739
26060SOL    HW180077  11.203   8.318  12.733
26060SOL    HW280078  11.317   8.222  12.756
26061SOL     OW80079   1.375   8.456   6.744
26061SOL    HW180080   1.306   8.508   6.784
26061SOL    HW280081   1.427   8.519   6.694
26062SOL     OW80082   1.985  11.216  14.626
26062SOL    HW180083   1.994  11.129  14.587
26062SOL    HW280084   1.890  11.232  14.627
26063SOL     OW80085  14.811  11.993  14.660
26063SOL    HW180086  14.747  12.059  14.634
26063SOL    HW280087  14.766  11.909  14.647
26064SOL     OW80088   4.473   0.699   1.267
26064SOL    HW180089   4.544   0.652   1.310
26064SOL    HW280090   4.397   0.686   1.324
26065SOL     OW80091   8.009   3.500   6.592
26065SOL    HW180092   8.006   3.424   6.651
26065SOL    HW280093   7.960   3.473   6.515
26066SOL     OW80094   5.749   6.614   1.475
26066SOL    HW180095   5.798   6.679   1.527
26066SOL    HW280096   5.769   6.531   1.517
26067SOL     OW80097   7.077  11.178  11.240
26067SOL    HW180098   7.171  11.179  11.258
26067SOL    HW280099   7.054  11.270  11.230
26068SOL     OW80100   4.617   0.961   7.199
26068SOL    HW180101   4.608   0.904   7.122
26068SOL    HW280102   4.544   1.023   7.191
26069SOL     OW80103   6.995   4.167   7.165
26069SOL    HW180104   6.944   4.240   7.201
26069SOL    HW280105   6.940   4.133   7.094
26070SOL     OW80106   5.407   3.326   7.252
26070SOL    HW180107   5.415   3.299   7.160
26070SOL    HW280108   5.497   3.327   7.285
26071SOL     OW80109  10.745  11.632   5.526
26071SOL    HW180110  10.810  11.674   5.583
26071SOL    HW280111  10.660  11.656   5.565
26072SOL     OW80112   6.247  11.847  14.386
26072SOL    HW180113   6.259  11.761  14.426
26072SOL    HW280114   6.289  11.908  14.446
26073SOL     OW80115   9.501  12.626  11.358
26073SOL    HW180116   9.471  12.712  11.388
26073SOL    HW280117   9.427  12.568  11.375
26074SOL     OW80118   9.838   0.184   3.729
26074SOL    HW180119   9.830   0.276   3.754
26074SOL    HW280120   9.876   0.142   3.806
26075SOL     OW80121   3.657  13.101  12.128
26075SOL    HW180122   3.671  13.107  12.033
26075SOL    HW280123   3.721  13.037  12.157
26076SOL     OW80124   0.082  14.492  13.915
26076SOL    HW180125   0.031  14.569  13.892
26076SOL    HW280126   0.167  14.506  13.874
26077SOL     OW80127   0.493  10.675   2.320
26077SOL    HW180128   0.445  10.657   2.401
26077SOL    HW280129   0.575  10.716   2.349
26078SOL     OW80130   5.231   5.779   2.559
26078SOL    HW180131   5.306   5.831   2.587
26078SOL    HW280132   5.231   5.703   2.617
26079SOL     OW80133  14.734  11.363   1.021
26079SOL    HW180134  14.737  11.404   0.934
26079SOL    HW280135  14.813  11.309   1.024
26080SOL     OW80136   0.305   7.188  13.357
26080SOL    HW180137   0.258   7.247  13.416
26080SOL    HW280138   0.290   7.224  13.270
26081SOL     OW80139  11.202  10.970  10.636
26081SOL    HW180140  11.238  10.912  10.569
26081SOL    HW280141  11.221  10.925  10.719
26082SOL     OW80142  14.327  11.325   0.675
26082SOL    HW180143  14.321  11.254   0.739
26082SOL    HW280144  14.238  11.335   0.641
26083SOL     OW80145   6.997   9.532  14.862
26083SOL    HW180146   7.038   9.496   0.071
26083SOL    HW280147   7.065   9.587  14.823
26084SOL     OW80148  12.991   7.607   2.114
26084SOL    HW180149  12.950   7.521   2.112
26084SOL    HW280150  12.925   7.665   2.151
26085SOL     OW80151  11.074  13.531   3.485
26085SOL    HW180152  11.051  13.453   3.536
26085SOL    HW280153  11.137  13.500   3.420
26086SOL     OW80154   0.755   3.720   8.346
26086SOL    HW180155   0.806   3.655   8.297
26086SOL    HW280156   0.737   3.678   8.430
26087SOL     OW80157   8.797  10.847   1.723
26087SOL    HW180158   8.872  10.887   1.768
26087SOL    HW280159   8.732  10.917   1.717
26088SOL     OW80160  11.818   0.070   9.510
26088SOL    HW180161  11.905   0.100   9.483
26088SOL    HW280162  11.776   0.040   9.430
26089SOL     OW80163   7.671   3.570   8.791
26089SOL    HW180164   7.732   3.522   8.735
26089SOL    HW280165   7.616   3.502   8.829
26090SOL     OW80166  10.411  14.805   7.202
26090SOL    HW180167  10.400   0.031   7.196
26090SOL    HW280168  10.322  14.771   7.192
26091SOL     OW80169  12.032  10.517  13.477
26091SOL    HW180170  12.127  10.513  13.463
26091SOL    HW280171  12.005  10.426  13.489
26092SOL     OW80172   1.663  12.888   2.639
26092SOL    HW180173   1.582  12.846   2.670
26092SOL    HW280174   1.714  12.902   2.718
26093SOL     OW80175   1.276   1.147   8.188
26093SOL    HW180176   1.299   1.173   8.277
26093SOL    HW280177   1.352   1.099   8.157
26094SOL     OW80178  10.264   8.929  14.233
26094SOL    HW180179  10.324   8.982  14.285
26094SOL    HW280180  10.310   8.845  14.220
26095SOL     OW80181   1.176  11.902  12.377
26095SOL    HW180182   1.152  11.831  12.436
26095SOL    HW280183   1.114  11.895  12.304
26096SOL     OW80184  10.152  12.324   8.698
26096SOL    HW180185  10.088  12.379   8.742
26096SOL    HW280186  10.150  12.352   8.607
26097SOL     OW80187  13.514  12.039   7.692
26097SOL    HW180188  13.520  12.002   7.604
26097SOL    HW280189  13.586  11.998   7.740
26098SOL     OW80190   6.191   2.514   5.305
26098SOL    HW180191   6.235   2.585   5.257
26098SOL    HW280192   6.103   2.511   5.268
26099SOL     OW80193   7.154  12.215   7.246
26099SOL    HW180194   7.082  12.204   7.309
26099SOL    HW280195   7.229  12.240   7.300
26100SOL     OW80196   3.295  10.232   3.535
26100SOL    HW180197   3.209  10.271   3.518
26100SOL    HW280198   3.308  10.244   3.630
26101SOL     OW80199  11.681  14.015   2.571
26101SOL    HW180200  11.591  14.035   2.596
26101SOL    HW280201  11.702  13.934   2.618
26102SOL     OW80202   0.598   6.133  11.696
26102SOL    HW180203   0.646   6.091  11.625
26102SOL    HW280204   0.622   6.225  11.691
26103SOL     OW80205   2.531  11.689   4.247
26103SOL    HW180206   2.512  11.607   4.292
26103SOL    HW280207   2.576  11.742   4.313
26104SOL     OW80208   0.327   0.386   8.975
26104SOL    HW180209   0.376   0.467   8.987
26104SOL    HW280210   0.235   0.414   8.974
26105SOL     OW80211   2.779   9.332   9.278
26105SOL    HW180212   2.732   9.315   9.196
26105SOL    HW280213   2.737   9.411   9.313
26106SOL     OW80214   0.794   4.081   9.867
26106SOL    HW180215   0.751   4.021   9.928
26106SOL    HW280216   0.723   4.124   9.820
26107SOL     OW80217  10.085   4.618  14.279
26107SOL    HW180218  10.054   4.529  14.297
26107SOL    HW280219  10.025   4.674  14.329
26108SOL     OW80220   4.209   8.979   7.078
26108SOL    HW180221   4.139   9.045   7.074
26108SOL    HW280222   4.168   8.899   7.044
26109SOL     OW80223  13.527   5.551   8.641
26109SOL    HW180224  13.609   5.549   8.690
26109SOL    HW280225  13.471   5.487   8.685
26110SOL     OW80226   6.777  12.323   5.831
26110SOL    HW180227   6.867  12.328   5.865
26110SOL    HW280228   6.729  12.388   5.882
26111SOL     OW80229   3.384   9.020   0.191
26111SOL    HW180230   3.364   9.112   0.174
26111SOL    HW280231   3.478   9.011   0.173
26112SOL     OW80232   8.675   3.013   3.305
26112SOL    HW180233   8.684   3.107   3.292
26112SOL    HW280234   8.728   2.994   3.383
26113SOL     OW80235   0.444   8.725   4.619
26113SOL    HW180236   0.516   8.778   4.653
26113SOL    HW280237   0.369   8.785   4.615
26114SOL     OW80238  10.592   5.841   3.445
26114SOL    HW180239  10.497   5.848   3.432
26114SOL    HW280240  10.601   5.789   3.525
26115SOL     OW80241  14.573   5.677   3.463
26115SOL    HW180242  14.660   5.715   3.476
26115SOL    HW280243  14.539   5.662   3.552
26116SOL     OW80244   7.618  14.053   2.359
26116SOL    HW180245   7.633  14.056   2.454
26116SOL    HW280246   7.705  14.043   2.321
26117SOL     OW80247   2.679   6.306   0.835
26117SOL    HW180248   2.697   6.393   0.800
26117SOL    HW280249   2.587   6.309   0.860
26118SOL     OW80250  14.083   3.407   2.114
26118SOL    HW180251  14.108   3.315   2.121
26118SOL    HW280252  13.990   3.408   2.135
26119SOL     OW80253  12.315  12.129   7.840
26119SOL    HW180254  12.327  12.166   7.753
26119SOL    HW280255  12.290  12.038   7.824
26120SOL     OW80256   1.822   4.133   4.824
26120SOL    HW180257   1.865   4.153   4.741
26120SOL    HW280258   1.733   4.167   4.813
26121SOL     OW80259   1.316   4.512  10.204
26121SOL    HW180260   1.411   4.511  10.218
26121SOL    HW280261   1.283   4.574  10.270
26122SOL     OW80262   9.429   4.788  13.496
26122SOL    HW180263   9.506   4.803  13.550
26122SOL    HW280264   9.362   4.844  13.534
26123SOL     OW80265   3.898   2.028   1.611
26123SOL    HW180266   3.898   2.030   1.707
26123SOL    HW280267   3.882   2.120   1.586
26124SOL     OW80268   8.118  11.014  10.948
26124SOL    HW180269   8.085  10.973  11.028
26124SOL    HW280270   8.124  10.942  10.885
26125SOL     OW80271  13.650   0.211   2.135
26125SOL    HW180272  13.658   0.147   2.064
26125SOL    HW280273  13.599   0.282   2.098
26126SOL     OW80274   9.136   2.325   2.927
26126SOL    HW180275   9.059   2.381   2.940
26126SOL    HW280276   9.138   2.307   2.833
26127SOL     OW80277  13.519   9.181  10.294
26127SOL    HW180278  13.507   9.132  10.376
26127SOL    HW280279  13.613   9.176  10.278
26128SOL     OW80280   8.777   1.762  12.863
26128SOL    HW180281   8.784   1.668  12.878
26128SOL    HW280282   8.810   1.776  12.775
26129SOL     OW80283   9.870   0.799  13.206
26129SOL    HW180284   9.886   0.706  13.190
26129SOL    HW280285   9.877   0.808  13.301
26130SOL     OW80286  13.034   7.146   3.220
26130SOL    HW180287  13.041   7.102   3.305
26130SOL    HW280288  13.125   7.162   3.194
26131SOL     OW80289   9.520   1.760  10.899
26131SOL    HW180290   9.538   1.693  10.835
26131SOL    HW280291   9.478   1.830  10.850
26132SOL     OW80292   5.128  12.040   8.114
26132SOL    HW180293   5.160  11.958   8.076
26132SOL    HW280294   5.065  12.072   8.049
26133SOL     OW80295   8.964  13.487   8.128
26133SOL    HW180296   8.882  13.441   8.147
26133SOL    HW280297   8.939  13.579   8.123
26134SOL     OW80298   5.738  14.057  13.825
26134SOL    HW180299   5.726  14.063  13.730
26134SOL    HW280300   5.687  13.980  13.851
26135SOL     OW80301   7.231   5.603   1.687
26135SOL    HW180302   7.292   5.649   1.744
26135SOL    HW280303   7.151   5.594   1.739
26136SOL     OW80304   1.377  12.538   3.165
26136SOL    HW180305   1.443  12.470   3.166
26136SOL    HW280306   1.294  12.492   3.152
26137SOL     OW80307   4.540  10.042   8.698
26137SOL    HW180308   4.465  10.077   8.651
26137SOL    HW280309   4.589   9.992   8.633
26138SOL     OW80310   2.727   8.360  10.022
26138SOL    HW180311   2.767   8.416  10.088
26138SOL    HW280312   2.800   8.332   9.967
26139SOL     OW80313   7.577  11.304  11.134
26139SOL    HW180314   7.581  11.295  11.038
26139SOL    HW280315   7.658  11.349  11.157
26140SOL     OW80316   5.867   5.563   4.212
26140SOL    HW180317   5.931   5.534   4.146
26140SOL    HW280318   5.782   5.554   4.170
26141SOL     OW80319   6.683   3.395   1.952
26141SOL    HW180320   6.741   3.424   1.881
26141SOL    HW280321   6.741   3.379   2.026
26142SOL     OW80322   1.928  11.677   8.741
26142SOL    HW180323   1.832  11.680   8.743
26142SOL    HW280324   1.953  11.644   8.828
26143SOL     OW80325  14.638  10.404  12.835
26143SOL    HW180326  14.672  10.398  12.745
26143SOL    HW280327  14.677  10.484  12.870
26144SOL     OW80328  14.230   7.203   0.993
26144SOL    HW180329  14.138   7.227   0.992
26144SOL    HW280330  14.242   7.160   1.078
26145SOL     OW80331  14.857  11.490   7.929
26145SOL    HW180332   0.060  11.476   7.990
26145SOL    HW280333   0.030  11.508   7.845
26146SOL     OW80334   5.161   3.435   3.266
26146SOL    HW180335   5.092   3.492   3.234
26146SOL    HW280336   5.127   3.346   3.253
26147SOL     OW80337   2.363   6.906  10.193
26147SOL    HW180338   2.434   6.885  10.132
26147SOL    HW280339   2.297   6.949  10.138
26148SOL     OW80340   2.167   2.629  14.547
26148SOL    HW180341   2.159   2.535  14.562
26148SOL    HW280342   2.206   2.636  14.460
26149SOL     OW80343  14.670   2.055  14.251
26149SOL    HW180344  14.683   2.031  14.343
26149SOL    HW280345  14.689   1.974  14.202
26150SOL     OW80346   3.458   3.013  14.390
26150SOL    HW180347   3.371   3.030  14.353
26150SOL    HW280348   3.441   2.984  14.480
26151SOL     OW80349  13.234   2.661   4.924
26151SOL    HW180350  13.157   2.626   4.880
26151SOL    HW280351  13.199   2.719   4.992
26152SOL     OW80352  12.204   7.647  12.331
26152SOL    HW180353  12.171   7.642  12.421
26152SOL    HW280354  12.127   7.638  12.276
26153SOL     OW80355  12.027  12.444   1.011
26153SOL    HW180356  12.081  12.387   1.066
26153SOL    HW280357  11.942  12.446   1.056
26154SOL     OW80358   5.260   6.381   5.549
26154SOL    HW180359   5.235   6.392   5.457
26154SOL    HW280360   5.272   6.286   5.559
26155SOL     OW80361   1.604  13.371   4.154
26155SOL    HW180362   1.582  13.308   4.085
26155SOL    HW280363   1.626  13.317   4.230
26156SOL     OW80364   8.942  14.440   5.968
26156SOL    HW180365   8.949  14.515   6.027
26156SOL    HW280366   8.927  14.478   5.882
26157SOL     OW80367   3.347  14.410   6.492
26157SOL    HW180368   3.443  14.416   6.495
26157SOL    HW280369   3.327  14.382   6.403
26158SOL     OW80370   7.945  12.426   5.779
26158SOL    HW180371   8.015  12.368   5.749
26158SOL    HW280372   7.980  12.514   5.768
26159SOL     OW80373   8.760  12.698  12.982
26159SOL    HW180374   8.823  12.693  13.054
26159SOL    HW280375   8.808  12.741  12.912
26160SOL     OW80376   6.829   0.043   5.041
26160SOL    HW180377   6.923   0.023   5.038
26160SOL    HW280378   6.824   0.129   5.082
26161SOL     OW80379   2.656   1.475   8.478
26161SOL    HW180380   2.662   1.535   8.552
26161SOL    HW280381   2.645   1.389   8.519
26162SOL     OW80382   2.806  10.250   5.679
26162SOL    HW180383   2.879  10.193   5.705
26162SOL    HW280384   2.744  10.192   5.637
26163SOL     OW80385   8.895   3.048  13.437
26163SOL    HW180386   8.984   3.073  13.411
26163SOL    HW280387   8.900   2.954  13.454
26164SOL     OW80388  10.432  11.728   2.719
26164SOL    HW180389  10.486  11.656   2.688
26164SOL    HW280390  10.492  11.802   2.725
26165SOL     OW80391   9.782  11.104   9.976
26165SOL    HW180392   9.774  11.181   9.919
26165SOL    HW280393   9.876  11.089   9.983
26166SOL     OW80394   0.005   9.841   7.805
26166SOL    HW180395   0.046   9.757   7.823
26166SOL    HW280396   0.026   9.895   7.881
26167SOL     OW80397   2.326   5.570   2.555
26167SOL    HW180398   2.300   5.544   2.643
26167SOL    HW280399   2.288   5.503   2.498
26168SOL     OW80400   0.531   6.208  12.147
26168SOL    HW180401   0.464   6.232  12.083
26168SOL    HW280402   0.491   6.231  12.231
26169SOL     OW80403   5.496   6.479   5.704
26169SOL    HW180404   5.432   6.409   5.717
26169SOL    HW280405   5.460   6.554   5.752
26170SOL     OW80406  10.827   5.357   9.608
26170SOL    HW180407  10.828   5.309   9.691
26170SOL    HW280408  10.744   5.333   9.567
26171SOL     OW80409   9.780  12.704  13.787
26171SOL    HW180410   9.781  12.711  13.691
26171SOL    HW280411   9.690  12.729  13.812
26172SOL     OW80412  11.813   1.570  11.026
26172SOL    HW180413  11.907   1.576  11.039
26172SOL    HW280414  11.775   1.624  11.096
26173SOL     OW80415   6.334   3.719   6.892
26173SOL    HW180416   6.328   3.807   6.930
26173SOL    HW280417   6.427   3.697   6.900
26174SOL     OW80418   1.723   4.399   5.546
26174SOL    HW180419   1.775   4.346   5.486
26174SOL    HW280420   1.646   4.345   5.566
26175SOL     OW80421   7.980   7.567   9.493
26175SOL    HW180422   7.946   7.642   9.445
26175SOL    HW280423   7.915   7.498   9.478
26176SOL     OW80424   1.778   9.267   3.146
26176SOL    HW180425   1.750   9.176   3.157
26176SOL    HW280426   1.752   9.310   3.228
26177SOL     OW80427   6.428  14.194   6.345
26177SOL    HW180428   6.469  14.280   6.345
26177SOL    HW280429   6.395  14.183   6.434
26178SOL     OW80430   2.160  13.794  10.914
26178SOL    HW180431   2.103  13.724  10.948
26178SOL    HW280432   2.099  13.859  10.879
26179SOL     OW80433   8.356   2.782   7.243
26179SOL    HW180434   8.385   2.873   7.252
26179SOL    HW280435   8.427   2.739   7.196
26180SOL     OW80436   8.286   4.688  13.212
26180SOL    HW180437   8.345   4.763  13.210
26180SOL    HW280438   8.309   4.637  13.134
26181SOL     OW80439   2.238   4.046  11.389
26181SOL    HW180440   2.200   4.005  11.467
26181SOL    HW280441   2.187   4.011  11.316
26182SOL     OW80442  12.257  10.120   6.543
26182SOL    HW180443  12.255  10.079   6.629
26182SOL    HW280444  12.350  10.121   6.519
26183SOL     OW80445   5.992   3.535  11.967
26183SOL    HW180446   5.902   3.567  11.971
26183SOL    HW280447   5.984   3.440  11.968
26184SOL     OW80448  12.389   3.690  10.133
26184SOL    HW180449  12.451   3.671  10.062
26184SOL    HW280450  12.444   3.714  10.207
26185SOL     OW80451  13.750  10.770   3.574
26185SOL    HW180452  13.797  10.688   3.591
26185SOL    HW280453  13.659  10.743   3.558
26186SOL     OW80454   3.850   0.072   1.666
26186SOL    HW180455   3.933   0.088   1.711
26186SOL    HW280456   3.842   0.146   1.605
26187SOL     OW80457  13.957  13.320   3.152
26187SOL    HW180458  13.915  13.330   3.066
26187SOL    HW280459  13.907  13.376   3.210
26188SOL     OW80460   9.607   3.792   1.906
26188SOL    HW180461   9.519   3.796   1.944
26188SOL    HW280462   9.608   3.861   1.840
26189SOL     OW80463   6.450   4.031   2.664
26189SOL    HW180464   6.394   4.080   2.725
26189SOL    HW280465   6.454   4.085   2.586
26190SOL     OW80466   2.462   3.759   8.380
26190SOL    HW180467   2.392   3.816   8.411
26190SOL    HW280468   2.521   3.750   8.455
26191SOL     OW80469   7.272   6.680  10.659
26191SOL    HW180470   7.319   6.732  10.724
26191SOL    HW280471   7.329   6.680  10.582
26192SOL     OW80472   4.582   3.185  13.937
26192SOL    HW180473   4.558   3.102  13.896
26192SOL    HW280474   4.498   3.227  13.956
26193SOL     OW80475   4.396   1.465  11.600
26193SOL    HW180476   4.409   1.387  11.547
26193SOL    HW280477   4.408   1.435  11.690
26194SOL     OW80478   9.625   7.357  11.404
26194SOL    HW180479   9.628   7.337  11.498
26194SOL    HW280480   9.607   7.273  11.362
26195SOL     OW80481   6.462   7.341   7.532
26195SOL    HW180482   6.485   7.326   7.440
26195SOL    HW280483   6.425   7.429   7.534
26196SOL     OW80484   3.526   0.313   8.371
26196SOL    HW180485   3.538   0.291   8.279
26196SOL    HW280486   3.460   0.251   8.403
26197SOL     OW80487   1.479   1.867  14.316
26197SOL    HW180488   1.415   1.804  14.285
26197SOL    HW280489   1.500   1.920  14.239
26198SOL     OW80490   3.572   8.013  14.717
26198SOL    HW180491   3.661   7.979  14.710
26198SOL    HW280492   3.545   8.027  14.626
26199SOL     OW80493   0.605   8.047   7.545
26199SOL    HW180494   0.526   8.021   7.591
26199SOL    HW280495   0.670   7.981   7.568
26200SOL     OW80496   1.895  14.336   7.445
26200SOL    HW180497   1.873  14.390   7.521
26200SOL    HW280498   1.991  14.331   7.447
26201SOL     OW80499   2.302  13.792   4.428
26201SOL    HW180500   2.389  13.763   4.399
26201SOL    HW280501   2.246  13.776   4.353
26202SOL     OW80502  13.760  11.274   0.583
26202SOL    HW180503  13.798  11.187   0.594
26202SOL    HW280504  13.666  11.260   0.587
26203SOL     OW80505   1.927   0.331  11.507
26203SOL    HW180506   1.913   0.393  11.435
26203SOL    HW280507   1.839   0.315  11.543
26204SOL     OW80508   6.394   8.924  13.795
26204SOL    HW180509   6.455   8.883  13.857
26204SOL    HW280510   6.371   9.008  13.835
26205SOL     OW80511  12.411   5.935   3.986
26205SOL    HW180512  12.370   5.924   4.072
26205SOL    HW280513  12.368   6.011   3.948
26206SOL     OW80514   0.602   7.517  13.862
26206SOL    HW180515   0.591   7.564  13.944
26206SOL    HW280516   0.534   7.450  13.862
26207SOL     OW80517   1.891   5.332  10.606
26207SOL    HW180518   1.954   5.268  10.640
26207SOL    HW280519   1.872   5.390  10.680
26208SOL     OW80520  13.335  14.642  14.634
26208SOL    HW180521  13.322  14.571  14.698
26208SOL    HW280522  13.424  14.627  14.601
26209SOL     OW80523  14.558   2.608   1.164
26209SOL    HW180524  14.537   2.649   1.080
26209SOL    HW280525  14.532   2.673   1.229
26210SOL     OW80526   6.387   7.916  12.062
26210SOL    HW180527   6.365   7.885  11.974
26210SOL    HW280528   6.483   7.914  12.065
26211SOL     OW80529  14.698   0.874   8.068
26211SOL    HW180530  14.669   0.788   8.037
26211SOL    HW280531  14.705   0.927   7.989
26212SOL     OW80532   3.756   0.117   3.643
26212SOL    HW180533   3.845   0.082   3.651
26212SOL    HW280534   3.754   0.158   3.557
26213SOL     OW80535   0.883  13.424  13.252
26213SOL    HW180536   0.810  13.444  13.192
26213SOL    HW280537   0.908  13.335  13.230
26214SOL     OW80538  13.947   1.496   8.752
26214SOL    HW180539  13.919   1.477   8.662
26214SOL    HW280540  14.030   1.451   8.762
26215SOL     OW80541   0.759   8.065   6.079
26215SOL    HW180542   0.806   8.147   6.098
26215SOL    HW280543   0.743   8.067   5.985
26216SOL     OW80544   3.737  12.243   6.890
26216SOL    HW180545   3.810  12.182   6.881
26216SOL    HW280546   3.670  12.210   6.831
26217SOL     OW80547   6.473  12.256   8.861
26217SOL    HW180548   6.553  12.292   8.898
26217SOL    HW280549   6.461  12.304   8.779
26218SOL     OW80550   3.161  13.869   7.070
26218SOL    HW180551   3.141  13.808   7.141
26218SOL    HW280552   3.251  13.897   7.087
26219SOL     OW80553   1.029  10.299   0.441
26219SOL    HW180554   0.962  10.356   0.480
26219SOL    HW280555   1.071  10.354   0.375
26220SOL     OW80556   1.593  11.396   7.450
26220SOL    HW180557   1.588  11.332   7.521
26220SOL    HW280558   1.580  11.345   7.370
26221SOL     OW80559   3.605   3.665  12.327
26221SOL    HW180560   3.543   3.719  12.279
26221SOL    HW280561   3.551   3.597  12.368
26222SOL     OW80562   6.331   2.827   9.527
26222SOL    HW180563   6.328   2.921   9.546
26222SOL    HW280564   6.419   2.812   9.493
26223SOL     OW80565  13.598   5.677  10.897
26223SOL    HW180566  13.514   5.690  10.942
26223SOL    HW280567  13.663   5.710  10.959
26224SOL     OW80568   0.125  12.318   2.565
26224SOL    HW180569   0.124  12.271   2.649
26224SOL    HW280570   0.096  12.253   2.501
26225SOL     OW80571   3.054  11.823   7.411
26225SOL    HW180572   2.966  11.851   7.433
26225SOL    HW280573   3.089  11.893   7.356
26226SOL     OW80574   4.437   8.393   4.826
26226SOL    HW180575   4.376   8.452   4.783
26226SOL    HW280576   4.498   8.451   4.872
26227SOL     OW80577   4.074   8.743   5.749
26227SOL    HW180578   4.093   8.753   5.656
26227SOL    HW280579   4.154   8.771   5.793
26228SOL     OW80580  11.015   5.676   3.106
26228SOL    HW180581  10.967   5.616   3.049
26228SOL    HW280582  10.950   5.708   3.169
26229SOL     OW80583   3.792   5.306   5.474
26229SOL    HW180584   3.789   5.292   5.380
26229SOL    HW280585   3.816   5.398   5.484
26230SOL     OW80586  10.913   8.158   9.738
26230SOL    HW180587  10.845   8.218   9.708
26230SOL    HW280588  10.910   8.164   9.834
26231SOL     OW80589   8.436   6.857   0.004
26231SOL    HW180590   8.417   6.769   0.035
26231SOL    HW280591   8.485   6.843  14.792
26232SOL     OW80592   2.407   5.494   6.474
26232SOL    HW180593   2.387   5.586   6.493
26232SOL    HW280594   2.479   5.473   6.534
26233SOL     OW80595  14.757   2.271  12.747
26233SOL    HW180596  14.747   2.177  12.758
26233SOL    HW280597  14.841   2.282  12.702
26234SOL     OW80598   4.764  10.410  13.557
26234SOL    HW180599   4.827  10.423  13.628
26234SOL    HW280600   4.775  10.487  13.501
26235SOL     OW80601   1.687  14.620  10.800
26235SOL    HW180602   1.632  14.685  10.755
26235SOL    HW280603   1.734  14.670  10.866
26236SOL     OW80604   8.376  14.273   7.255
26236SOL    HW180605   8.286  14.271   7.287
26236SOL    HW280606   8.379  14.206   7.187
26237SOL     OW80607   4.888  12.961   7.277
26237SOL    HW180608   4.839  12.887   7.241
26237SOL    HW280609   4.955  12.921   7.333
26238SOL     OW80610   2.488  10.535  12.612
26238SOL    HW180611   2.573  10.493  12.625
26238SOL    HW280612   2.501  10.593  12.537
26239SOL     OW80613   5.075   8.013   8.713
26239SOL    HW180614   5.060   8.099   8.674
26239SOL    HW280615   4.996   7.963   8.692
26240SOL     OW80616   0.477   1.301   9.757
26240SOL    HW180617   0.394   1.273   9.796
26240SOL    HW280618   0.540   1.296   9.829
26241SOL     OW80619   4.061   2.212   1.369
26241SOL    HW180620   4.087   2.123   1.395
26241SOL    HW280621   3.967   2.214   1.384
26242SOL     OW80622   8.724  10.204  13.556
26242SOL    HW180623   8.628  10.202  13.554
26242SOL    HW280624   8.750  10.148  13.482
26243SOL     OW80625   4.614  14.696   1.965
26243SOL    HW180626   4.683  14.645   1.923
26243SOL    HW280627   4.656  14.737   2.041
26244SOL     OW80628   8.489  14.127  11.120
26244SOL    HW180629   8.454  14.039  11.131
26244SOL    HW280630   8.412  14.183  11.111
26245SOL     OW80631   4.350  13.828  14.757
26245SOL    HW180632   4.399  13.836  14.839
26245SOL    HW280633   4.388  13.895  14.700
26246SOL     OW80634  10.891  11.445  12.062
26246SOL    HW180635  10.983  11.459  12.083
26246SOL    HW280636  10.846  11.518  12.104
26247SOL     OW80637   9.655  11.652  11.822
26247SOL    HW180638   9.603  11.732  11.812
26247SOL    HW280639   9.590  11.583  11.836
26248SOL     OW80640  12.949   2.547   7.330
26248SOL    HW180641  13.009   2.621   7.341
26248SOL    HW280642  13.004   2.476   7.298
26249SOL     OW80643   5.750  11.232  13.644
26249SOL    HW180644   5.716  11.265  13.727
26249SOL    HW280645   5.836  11.196  13.665
26250SOL     OW80646  12.364   4.904   2.313
26250SOL    HW180647  12.297   4.838   2.329
26250SOL    HW280648  12.322   4.967   2.254
26251SOL     OW80649  11.645   1.557   1.833
26251SOL    HW180650  11.637   1.645   1.795
26251SOL    HW280651  11.730   1.526   1.804
26252SOL     OW80652   1.578  14.109   5.743
26252SOL    HW180653   1.572  14.081   5.651
26252SOL    HW280654   1.565  14.204   5.740
26253SOL     OW80655   9.724  14.777   8.154
26253SOL    HW180656   9.718  14.683   8.171
26253SOL    HW280657   9.818  14.796   8.158
26254SOL     OW80658   5.055  10.778   8.228
26254SOL    HW180659   5.111  10.815   8.296
26254SOL    HW280660   5.027  10.693   8.263
26255SOL     OW80661  11.536  14.584   5.643
26255SOL    HW180662  11.597  14.564   5.715
26255SOL    HW280663  11.456  14.612   5.687
26256SOL     OW80664  10.870  10.059   8.564
26256SOL    HW180665  10.914  10.115   8.628
26256SOL    HW280666  10.861   9.974   8.607
26257SOL     OW80667  14.748   4.475   9.093
26257SOL    HW180668  14.820   4.529   9.060
26257SOL    HW280669  14.671   4.506   9.045
26258SOL     OW80670   1.992  13.428   1.755
26258SOL    HW180671   2.042  13.358   1.714
26258SOL    HW280672   2.034  13.508   1.725
26259SOL     OW80673   4.947   9.192   9.911
26259SOL    HW180674   4.980   9.162   9.826
26259SOL    HW280675   4.981   9.281   9.920
26260SOL     OW80676  12.493   6.351  14.858
26260SOL    HW180677  12.532   6.348  14.770
26260SOL    HW280678  12.540   6.421   0.033
26261SOL     OW80679  14.026  14.307   2.256
26261SOL    HW180680  13.969  14.376   2.292
26261SOL    HW280681  13.968  14.256   2.199
26262SOL     OW80682   9.961   4.055   5.614
26262SOL    HW180683   9.928   4.035   5.526
26262SOL    HW280684   9.938   3.979   5.666
26263SOL     OW80685   8.205   4.070   9.106
26263SOL    HW180686   8.299   4.057   9.095
26263SOL    HW280687   8.190   4.161   9.080
26264SOL     OW80688  12.318   9.210  14.283
26264SOL    HW180689  12.386   9.273  14.309
26264SOL    HW280690  12.312   9.221  14.188
26265SOL     OW80691   6.223  11.500  12.226
26265SOL    HW180692   6.141  11.548  12.213
26265SOL    HW280693   6.263  11.541  12.302
26266SOL     OW80694   3.118  14.518   5.310
26266SOL    HW180695   3.053  14.565   5.258
26266SOL    HW280696   3.166  14.465   5.246
26267SOL     OW80697   5.703   9.367   5.016
26267SOL    HW180698   5.748   9.386   5.098
26267SOL    HW280699   5.619   9.328   5.042
26268SOL     OW80700   6.104  12.887   4.165
26268SOL    HW180701   6.129  12.962   4.219
26268SOL    HW280702   6.184  12.862   4.120
26269SOL     OW80703  11.212   8.020  14.599
26269SOL    HW180704  11.145   8.034  14.666
26269SOL    HW280705  11.274   8.091  14.612
26270SOL     OW80706   7.710  12.838   7.298
26270SOL    HW180707   7.806  12.832   7.297
26270SOL    HW280708   7.680  12.753   7.267
26271SOL     OW80709  12.854   2.202  14.423
26271SOL    HW180710  12.859   2.131  14.488
26271SOL    HW280711  12.910   2.172  14.352
26272SOL     OW80712  13.681  13.808   3.105
26272SOL    HW180713  13.677  13.872   3.176
26272SOL    HW280714  13.739  13.739   3.139
26273SOL     OW80715   9.517  10.305  13.691
26273SOL    HW180716   9.539  10.398  13.682
26273SOL    HW280717   9.479  10.298  13.779
26274SOL     OW80718   9.286  10.038   5.350
26274SOL    HW180719   9.265  10.065   5.261
26274SOL    HW280720   9.202  10.016   5.390
26275SOL     OW80721  10.692  11.601   2.969
26275SOL    HW180722  10.615  11.656   2.981
26275SOL    HW280723  10.664  11.514   2.997
26276SOL     OW80724  10.773   0.398  11.109
26276SOL    HW180725  10.840   0.436  11.165
26276SOL    HW280726  10.812   0.397  11.021
26277SOL     OW80727   3.675   1.136  13.621
26277SOL    HW180728   3.724   1.209  13.584
26277SOL    HW280729   3.733   1.099  13.688
26278SOL     OW80730  12.486   1.402  14.390
26278SOL    HW180731  12.466   1.487  14.350
26278SOL    HW280732  12.566   1.419  14.441
26279SOL     OW80733  10.150  12.564   7.411
26279SOL    HW180734  10.105  12.479   7.418
26279SOL    HW280735  10.162  12.592   7.502
26280SOL     OW80736  13.122  11.593  12.188
26280SOL    HW180737  13.072  11.597  12.269
26280SOL    HW280738  13.133  11.685  12.162
26281SOL     OW80739  11.967   3.635  12.801
26281SOL    HW180740  12.014   3.555  12.780
26281SOL    HW280741  11.903   3.609  12.867
26282SOL     OW80742   5.708   5.337   0.984
26282SOL    HW180743   5.740   5.392   0.913
26282SOL    HW280744   5.716   5.391   1.063
26283SOL     OW80745   9.632   5.961   9.820
26283SOL    HW180746   9.560   5.972   9.758
26283SOL    HW280747   9.590   5.956   9.905
26284SOL     OW80748  13.520  13.984  14.044
26284SOL    HW180749  13.484  14.036  13.973
26284SOL    HW280750  13.586  13.929  14.001
26285SOL     OW80751  11.947  10.737   1.488
26285SOL    HW180752  11.892  10.716   1.413
26285SOL    HW280753  11.952  10.656   1.538
26286SOL     OW80754   2.932   8.230   9.838
26286SOL    HW180755   2.926   8.193   9.750
26286SOL    HW280756   3.025   8.227   9.860
26287SOL     OW80757   9.300   7.247   8.831
26287SOL    HW180758   9.241   7.256   8.905
26287SOL    HW280759   9.263   7.305   8.764
26288SOL     OW80760  14.378   3.481  12.132
26288SOL    HW180761  14.356   3.487  12.225
26288SOL    HW280762  14.310   3.426  12.094
26289SOL     OW80763   7.035   4.043   4.132
26289SOL    HW180764   7.104   4.041   4.065
26289SOL    HW280765   6.957   4.069   4.084
26290SOL     OW80766   6.701   9.771  11.890
26290SOL    HW180767   6.636   9.815  11.835
26290SOL    HW280768   6.657   9.760  11.975
26291SOL     OW80769   4.000   8.088  10.700
26291SOL    HW180770   4.013   8.015  10.761
26291SOL    HW280771   4.077   8.143  10.712
26292SOL     OW80772   6.852   4.911   0.184
26292SOL    HW180773   6.892   4.885   0.101
26292SOL    HW280774   6.760   4.883   0.176
26293SOL     OW80775   4.619   2.778   0.452
26293SOL    HW180776   4.576   2.863   0.462
26293SOL    HW280777   4.553   2.724   0.409
26294SOL     OW80778   0.216  10.515   3.549
26294SOL    HW180779   0.202  10.423   3.573
26294SOL    HW280780   0.310  10.522   3.534
26295SOL     OW80781   0.418   3.112  12.122
26295SOL    HW180782   0.360   3.059  12.068
26295SOL    HW280783   0.423   3.196  12.077
26296SOL     OW80784  14.123  12.851   5.801
26296SOL    HW180785  14.136  12.783   5.866
26296SOL    HW280786  14.040  12.893   5.827
26297SOL     OW80787   3.563  12.670   7.859
26297SOL    HW180788   3.631  12.622   7.907
26297SOL    HW280789   3.546  12.747   7.913
26298SOL     OW80790   3.610  13.402  12.864
26298SOL    HW180791   3.646  13.405  12.952
26298SOL    HW280792   3.517  13.418  12.875
26299SOL     OW80793   0.877  14.778   5.430
26299SOL    HW180794   0.840  14.731   5.355
26299SOL    HW280795   0.887  14.868   5.398
26300SOL     OW80796   2.311   9.411  12.101
26300SOL    HW180797   2.404   9.435  12.106
26300SOL    HW280798   2.312   9.318  12.077
26301SOL     OW80799   3.604   5.230  12.399
26301SOL    HW180800   3.678   5.171  12.405
26301SOL    HW280801   3.604   5.261  12.308
26302SOL     OW80802   9.949  11.277   5.220
26302SOL    HW180803  10.005  11.224   5.163
26302SOL    HW280804   9.864  11.278   5.176
26303SOL     OW80805   5.011   7.032   1.183
26303SOL    HW180806   5.033   6.946   1.149
26303SOL    HW280807   4.920   7.025   1.210
26304SOL     OW80808   5.518   3.238   9.329
26304SOL    HW180809   5.464   3.161   9.350
26304SOL    HW280810   5.462   3.313   9.348
26305SOL     OW80811   3.376  10.018  12.125
26305SOL    HW180812   3.434   9.996  12.052
26305SOL    HW280813   3.318   9.942  12.134
26306SOL     OW80814  12.860  11.035   6.306
26306SOL    HW180815  12.776  11.080   6.300
26306SOL    HW280816  12.838  10.945   6.330
26307SOL     OW80817   3.748   0.119  10.553
26307SOL    HW180818   3.720   0.200  10.511
26307SOL    HW280819   3.801   0.147  10.627
26308SOL     OW80820   4.518   7.235   0.383
26308SOL    HW180821   4.545   7.144   0.370
26308SOL    HW280822   4.470   7.258   0.303
26309SOL     OW80823   5.204  12.507  10.501
26309SOL    HW180824   5.297  12.486  10.496
26309SOL    HW280825   5.188  12.566  10.428
26310SOL     OW80826  14.852  13.880  10.657
26310SOL    HW180827   0.072  13.911  10.646
26310SOL    HW280828  14.831  13.897  10.748
26311SOL     OW80829   8.724  12.942   8.898
26311SOL    HW180830   8.646  12.888   8.910
26311SOL    HW280831   8.797  12.882   8.916
26312SOL     OW80832  10.050   2.409  11.172
26312SOL    HW180833  10.026   2.322  11.139
26312SOL    HW280834  10.108   2.445  11.105
26313SOL     OW80835   0.958   6.307  12.988
26313SOL    HW180836   0.866   6.332  12.979
26313SOL    HW280837   0.977   6.257  12.909
26314SOL     OW80838   5.506  11.476   2.836
26314SOL    HW180839   5.595  11.489   2.870
26314SOL    HW280840   5.510  11.391   2.792
26315SOL     OW80841  11.499  11.568  14.722
26315SOL    HW180842  11.436  11.626  14.678
26315SOL    HW280843  11.469  11.564  14.812
26316SOL     OW80844   4.782   7.181   1.570
26316SOL    HW180845   4.809   7.103   1.617
26316SOL    HW280846   4.694   7.200   1.603
26317SOL     OW80847  14.402  14.757   5.975
26317SOL    HW180848  14.354  14.771   6.057
26317SOL    HW280849  14.345  14.791   5.907
26318SOL     OW80850   1.300   6.876   0.303
26318SOL    HW180851   1.222   6.825   0.282
26318SOL    HW280852   1.286   6.960   0.260
26319SOL     OW80853   4.991   8.373   0.488
26319SOL    HW180854   5.035   8.356   0.572
26319SOL    HW280855   4.900   8.389   0.511
26320SOL     OW80856   7.791  12.170  10.628
26320SOL    HW180857   7.712  12.130  10.663
26320SOL    HW280858   7.854  12.098  10.623
26321SOL     OW80859   8.258   6.289   2.110
26321SOL    HW180860   8.180   6.327   2.149
26321SOL    HW280861   8.328   6.307   2.172
26322SOL     OW80862  11.599   4.013   0.992
26322SOL    HW180863  11.588   4.108   0.996
26322SOL    HW280864  11.593   3.984   1.083
26323SOL     OW80865  14.169   4.164  12.827
26323SOL    HW180866  14.080   4.165  12.794
26323SOL    HW280867  14.174   4.085  12.881
26324SOL     OW80868  14.759  11.009   1.577
26324SOL    HW180869  14.721  11.036   1.494
26324SOL    HW280870  14.798  10.923   1.558
26325SOL     OW80871   2.255   9.867  13.305
26325SOL    HW180872   2.311   9.789  13.306
26325SOL    HW280873   2.252   9.895  13.397
26326SOL     OW80874   0.536   6.595  12.845
26326SOL    HW180875   0.532   6.632  12.756
26326SOL    HW280876   0.599   6.650  12.891
26327SOL     OW80877  11.952   7.437   2.695
26327SOL    HW180878  11.951   7.380   2.772
26327SOL    HW280879  11.968   7.524   2.730
26328SOL     OW80880   7.000   7.013   7.032
26328SOL    HW180881   6.942   6.938   7.021
26328SOL    HW280882   7.031   7.032   6.944
26329SOL     OW80883   5.766  13.742   0.199
26329SOL    HW180884   5.734  13.695   0.122
26329SOL    HW280885   5.856  13.712   0.211
26330SOL     OW80886   6.177   5.674   4.969
26330SOL    HW180887   6.161   5.720   4.887
26330SOL    HW280888   6.162   5.582   4.949
26331SOL     OW80889   7.095  14.316  14.689
26331SOL    HW180890   7.137  14.230  14.678
26331SOL    HW280891   7.157  14.366  14.742
26332SOL     OW80892   6.342   0.131  11.128
26332SOL    HW180893   6.398   0.057  11.148
26332SOL    HW280894   6.307   0.159  11.213
26333SOL     OW80895   6.697  10.671   1.929
26333SOL    HW180896   6.639  10.595   1.938
26333SOL    HW280897   6.761  10.644   1.862
26334SOL     OW80898   2.845   0.799   0.929
26334SOL    HW180899   2.860   0.744   0.853
26334SOL    HW280900   2.767   0.851   0.907
26335SOL     OW80901   6.164  11.018   3.727
26335SOL    HW180902   6.153  11.110   3.702
26335SOL    HW280903   6.089  11.000   3.784
26336SOL     OW80904   9.124  12.397   2.191
26336SOL    HW180905   9.065  12.407   2.266
26336SOL    HW280906   9.203  12.445   2.216
26337SOL     OW80907   0.766   0.159   6.937
26337SOL    HW180908   0.822   0.158   7.015
26337SOL    HW280909   0.678   0.145   6.970
26338SOL     OW80910   9.926   6.674  10.996
26338SOL    HW180911   9.915   6.581  11.019
26338SOL    HW280912  10.004   6.675  10.940
26339SOL     OW80913   6.523  10.807   4.832
26339SOL    HW180914   6.550  10.859   4.756
26339SOL    HW280915   6.488  10.726   4.794
26340SOL     OW80916   0.303   6.368   0.493
26340SOL    HW180917   0.251   6.292   0.467
26340SOL    HW280918   0.359   6.386   0.417
26341SOL     OW80919  11.666   8.092  13.890
26341SOL    HW180920  11.618   8.026  13.840
26341SOL    HW280921  11.600   8.158  13.910
26342SOL     OW80922   6.030  13.754  11.364
26342SOL    HW180923   5.997  13.813  11.433
26342SOL    HW280924   6.119  13.732  11.392
26343SOL     OW80925  12.212   1.037   1.199
26343SOL    HW180926  12.175   1.075   1.119
26343SOL    HW280927  12.155   0.962   1.218
26344SOL     OW80928   1.109   3.349   4.193
26344SOL    HW180929   1.076   3.269   4.233
26344SOL    HW280930   1.031   3.399   4.169
26345SOL     OW80931  10.401  14.485  13.119
26345SOL    HW180932  10.365  14.458  13.204
26345SOL    HW280933  10.395  14.407  13.065
26346SOL     OW80934   0.333  10.961   2.926
26346SOL    HW180935   0.265  10.956   2.859
26346SOL    HW280936   0.328  10.877   2.972
26347SOL     OW80937   8.213  13.049   8.520
26347SOL    HW180938   8.203  13.033   8.426
26347SOL    HW280939   8.193  13.142   8.531
26348SOL     OW80940  13.004   4.158  14.033
26348SOL    HW180941  12.909   4.174  14.031
26348SOL    HW280942  13.018   4.089  13.969
26349SOL     OW80943   8.040   4.695   4.831
26349SOL    HW180944   8.023   4.603   4.852
26349SOL    HW280945   8.134   4.699   4.818
26350SOL     OW80946   8.698   9.595   5.273
26350SOL    HW180947   8.721   9.537   5.346
26350SOL    HW280948   8.775   9.592   5.215
26351SOL     OW80949  14.766   0.728   1.267
26351SOL    HW180950  14.676   0.696   1.261
26351SOL    HW280951  14.757   0.817   1.302
26352SOL     OW80952   0.515   0.269   6.536
26352SOL    HW180953   0.567   0.309   6.466
26352SOL    HW280954   0.450   0.336   6.558
26353SOL     OW80955   1.318   4.823   7.961
26353SOL    HW180956   1.310   4.843   7.868
26353SOL    HW280957   1.345   4.906   8.001
26354SOL     OW80958  11.759   8.121   2.555
26354SOL    HW180959  11.758   8.037   2.509
26354SOL    HW280960  11.745   8.098   2.647
26355SOL     OW80961   0.750   9.250   8.496
26355SOL    HW180962   0.766   9.341   8.523
26355SOL    HW280963   0.737   9.255   8.401
26356SOL     OW80964   8.120   9.232  12.070
26356SOL    HW180965   8.028   9.227  12.097
26356SOL    HW280966   8.150   9.141  12.069
26357SOL     OW80967  12.457   8.081   8.007
26357SOL    HW180968  12.524   8.109   8.068
26357SOL    HW280969  12.404   8.018   8.057
26358SOL     OW80970   7.873   9.891   7.196
26358SOL    HW180971   7.901   9.881   7.287
26358SOL    HW280972   7.827   9.809   7.176
26359SOL     OW80973   2.406   1.348   1.083
26359SOL    HW180974   2.411   1.348   1.178
26359SOL    HW280975   2.497   1.346   1.054
26360SOL     OW80976   6.514  12.563   3.199
26360SOL    HW180977   6.521  12.607   3.114
26360SOL    HW280978   6.450  12.493   3.184
26361SOL     OW80979   6.020   5.457   1.929
26361SOL    HW180980   6.007   5.362   1.923
26361SOL    HW280981   5.948   5.488   1.984
26362SOL     OW80982   9.784  14.651  12.396
26362SOL    HW180983   9.856  14.671  12.337
26362SOL    HW280984   9.822  14.657  12.483
26363SOL     OW80985   4.783  12.016   5.531
26363SOL    HW180986   4.742  11.933   5.557
26363SOL    HW280987   4.855  12.027   5.593
26364SOL     OW80988   7.594   1.142   7.797
26364SOL    HW180989   7.669   1.095   7.833
26364SOL    HW280990   7.575   1.210   7.861
26365SOL     OW80991   6.983  10.324   2.163
26365SOL    HW180992   7.004  10.256   2.227
26365SOL    HW280993   7.013  10.406   2.203
26366SOL     OW80994   0.847  12.602   5.642
26366SOL    HW180995   0.898  12.656   5.581
26366SOL    HW280996   0.903  12.594   5.719
26367SOL     OW80997   5.304   2.643   9.834
26367SOL    HW180998   5.316   2.681   9.921
26367SOL    HW280999   5.374   2.680   9.781
26368SOL     OW81000  14.575   8.992  10.215
26368SOL    HW181001  14.625   8.984  10.296
26368SOL    HW281002  14.501   8.933  10.225
26369SOL     OW81003   6.373   8.673  13.528
26369SOL    HW181004   6.323   8.709  13.601
26369SOL    HW281005   6.343   8.723  13.452
26370SOL     OW81006   7.356  12.011   6.281
26370SOL    HW181007   7.263  12.008   6.257
26370SOL    HW281008   7.357  11.999   6.375
26371SOL     OW81009  10.926   7.556   7.933
26371SOL    HW181010  10.943   7.608   7.854
26371SOL    HW281011  10.863   7.490   7.905
26372SOL     OW81012  11.466   2.264   4.172
26372SOL    HW181013  11.450   2.172   4.151
26372SOL    HW281014  11.412   2.313   4.111
26373SOL     OW81015   3.184   9.577   8.301
26373SOL    HW181016   3.102   9.532   8.280
26373SOL    HW281017   3.159   9.645   8.363
26374SOL     OW81018  14.737  12.429   2.213
26374SOL    HW181019  14.688  12.400   2.289
26374SOL    HW281020  14.794  12.354   2.191
26375SOL     OW81021   7.014   7.131   0.341
26375SOL    HW181022   6.989   7.223   0.340
26375SOL    HW281023   7.108   7.132   0.323
26376SOL     OW81024   0.567  10.930   5.283
26376SOL    HW181025   0.634  10.866   5.305
26376SOL    HW281026   0.588  10.958   5.194
26377SOL     OW81027   7.103  10.159  14.676
26377SOL    HW181028   7.018  10.178  14.635
26377SOL    HW281029   7.146  10.099  14.614
26378SOL     OW81030   4.903  14.733  14.007
26378SOL    HW181031   4.845  14.752  14.081
26378SOL    HW281032   4.991  14.751  14.040
26379SOL     OW81033  12.219   1.469   4.058
26379SOL    HW181034  12.170   1.408   4.002
26379SOL    HW281035  12.294   1.496   4.005
26380SOL     OW81036  13.828   6.171   2.041
26380SOL    HW181037  13.814   6.265   2.027
26380SOL    HW281038  13.751   6.129   2.002
26381SOL     OW81039   4.285  11.554  10.305
26381SOL    HW181040   4.245  11.517  10.226
26381SOL    HW281041   4.379  11.538  10.293
26382SOL     OW81042  12.836   8.791  11.638
26382SOL    HW181043  12.772   8.858  11.612
26382SOL    HW281044  12.883   8.771  11.557
26383SOL     OW81045   0.894   1.290   4.496
26383SOL    HW181046   0.981   1.272   4.531
26383SOL    HW281047   0.898   1.259   4.406
26384SOL     OW81048   3.696   5.594   1.630
26384SOL    HW181049   3.715   5.504   1.603
26384SOL    HW281050   3.705   5.593   1.726
26385SOL     OW81051  14.290  12.971  13.732
26385SOL    HW181052  14.283  13.036  13.801
26385SOL    HW281053  14.353  12.907  13.765
26386SOL     OW81054  12.477   4.762   4.142
26386SOL    HW181055  12.435   4.756   4.056
26386SOL    HW281056  12.526   4.681   4.151
26387SOL     OW81057  11.216   4.887   1.594
26387SOL    HW181058  11.178   4.872   1.680
26387SOL    HW281059  11.200   4.979   1.576
26388SOL     OW81060   0.433   0.163  13.401
26388SOL    HW181061   0.422   0.069  13.413
26388SOL    HW281062   0.527   0.178  13.411
26389SOL     OW81063  14.677  10.538   2.824
26389SOL    HW181064  14.725  10.515   2.904
26389SOL    HW281065  14.593  10.573   2.855
26390SOL     OW81066   3.813  11.523   0.003
26390SOL    HW181067   3.860  11.475  14.804
26390SOL    HW281068   3.773  11.597  14.827
26391SOL     OW81069   6.297   9.053   5.958
26391SOL    HW181070   6.220   9.071   6.013
26391SOL    HW281071   6.281   8.966   5.922
26392SOL     OW81072   8.780   1.059   4.809
26392SOL    HW181073   8.791   1.051   4.714
26392SOL    HW281074   8.840   0.994   4.845
26393SOL     OW81075  13.527   4.127   2.021
26393SOL    HW181076  13.464   4.199   2.026
26393SOL    HW281077  13.563   4.132   1.932
26394SOL     OW81078   5.834   5.906   9.488
26394SOL    HW181079   5.849   5.835   9.550
26394SOL    HW281080   5.825   5.984   9.542
26395SOL     OW81081   0.170  12.530  10.757
26395SOL    HW181082   0.126  12.514  10.674
26395SOL    HW281083   0.234  12.459  10.764
26396SOL     OW81084   4.368  11.033  12.820
26396SOL    HW181085   4.333  10.957  12.866
26396SOL    HW281086   4.431  11.071  12.881
26397SOL     OW81087  10.972   2.803   5.727
26397SOL    HW181088  10.897   2.747   5.749
26397SOL    HW281089  11.030   2.796   5.803
26398SOL     OW81090   5.564   7.552  12.727
26398SOL    HW181091   5.487   7.599  12.759
26398SOL    HW281092   5.630   7.621  12.715
26399SOL     OW81093   7.714  13.798   7.345
26399SOL    HW181094   7.709  13.801   7.440
26399SOL    HW281095   7.804  13.824   7.324
26400SOL     OW81096  13.272   5.574   7.737
26400SOL    HW181097  13.295   5.621   7.656
26400SOL    HW281098  13.270   5.643   7.804
26401SOL     OW81099  12.337   4.498  13.932
26401SOL    HW181100  12.356   4.468  14.021
26401SOL    HW281101  12.362   4.425  13.876
26402SOL     OW81102   6.152   0.951  13.057
26402SOL    HW181103   6.138   1.015  12.987
26402SOL    HW281104   6.117   0.992  13.135
26403SOL     OW81105   4.606  10.255   6.558
26403SOL    HW181106   4.538  10.251   6.491
26403SOL    HW281107   4.684  10.286   6.512
26404SOL     OW81108   7.404   7.573   4.328
26404SOL    HW181109   7.342   7.635   4.366
26404SOL    HW281110   7.490   7.603   4.358
26405SOL     OW81111   7.763   1.312   1.729
26405SOL    HW181112   7.741   1.239   1.787
26405SOL    HW281113   7.858   1.317   1.731
26406SOL     OW81114  10.552   4.429   3.008
26406SOL    HW181115  10.567   4.343   3.048
26406SOL    HW281116  10.497   4.411   2.932
26407SOL     OW81117  12.094   5.608   9.909
26407SOL    HW181118  12.058   5.685   9.952
26407SOL    HW281119  12.158   5.574   9.971
26408SOL     OW81120   9.124   5.266  13.706
26408SOL    HW181121   9.140   5.352  13.743
26408SOL    HW281122   9.047   5.277  13.651
26409SOL     OW81123  12.454  10.638  12.192
26409SOL    HW181124  12.362  10.630  12.217
26409SOL    HW281125  12.475  10.731  12.206
26410SOL     OW81126  14.476   1.186   8.084
26410SOL    HW181127  14.568   1.198   8.109
26410SOL    HW281128  14.432   1.265   8.116
26411SOL     OW81129  10.161   2.501   6.273
26411SOL    HW181130  10.191   2.525   6.185
26411SOL    HW281131  10.240   2.471   6.318
26412SOL     OW81132   3.592  12.382  14.545
26412SOL    HW181133   3.536  12.369  14.622
26412SOL    HW281134   3.681  12.374  14.578
26413SOL     OW81135   4.620  10.539  13.252
26413SOL    HW181136   4.682  10.605  13.285
26413SOL    HW281137   4.541  10.553  13.304
26414SOL     OW81138   4.834   5.493   9.587
26414SOL    HW181139   4.797   5.527   9.506
26414SOL    HW281140   4.922   5.530   9.592
26415SOL     OW81141  10.311  10.829   2.615
26415SOL    HW181142  10.313  10.920   2.644
26415SOL    HW281143  10.389  10.789   2.654
26416SOL     OW81144   4.166   1.352   5.050
26416SOL    HW181145   4.154   1.279   5.111
26416SOL    HW281146   4.207   1.421   5.102
26417SOL     OW81147   4.692   7.581   4.953
26417SOL    HW181148   4.731   7.504   4.912
26417SOL    HW281149   4.715   7.653   4.894
26418SOL     OW81150  11.359   7.915  14.051
26418SOL    HW181151  11.427   7.911  14.118
26418SOL    HW281152  11.277   7.913  14.100
26419SOL     OW81153  14.062   1.146  10.102
26419SOL    HW181154  14.100   1.066  10.137
26419SOL    HW281155  14.134   1.209  10.104
26420SOL     OW81156  12.000   1.693   6.423
26420SOL    HW181157  12.089   1.660   6.407
26420SOL    HW281158  11.980   1.665   6.512
26421SOL     OW81159  13.599   2.990   1.024
26421SOL    HW181160  13.540   2.915   1.017
26421SOL    HW281161  13.541   3.064   1.045
26422SOL     OW81162   4.085  13.811   3.992
26422SOL    HW181163   4.077  13.717   4.006
26422SOL    HW281164   4.057  13.824   3.901
26423SOL     OW81165   1.006  14.062  13.720
26423SOL    HW181166   1.028  14.096  13.633
26423SOL    HW281167   0.911  14.056  13.720
26424SOL     OW81168  10.504   8.396   9.849
26424SOL    HW181169  10.476   8.320   9.900
26424SOL    HW281170  10.469   8.471   9.897
26425SOL     OW81171  12.758   9.003   7.964
26425SOL    HW181172  12.748   9.008   7.869
26425SOL    HW281173  12.674   9.034   7.999
26426SOL     OW81174   9.376   8.474   9.010
26426SOL    HW181175   9.412   8.440   9.092
26426SOL    HW281176   9.364   8.397   8.955
26427SOL     OW81177   3.113  11.106   5.583
26427SOL    HW181178   3.089  11.122   5.492
26427SOL    HW281179   3.180  11.172   5.602
26428SOL     OW81180   9.594   0.872   4.448
26428SOL    HW181181   9.667   0.849   4.391
26428SOL    HW281182   9.519   0.827   4.410
26429SOL     OW81183   4.174   2.273  10.384
26429SOL    HW181184   4.123   2.212  10.330
26429SOL    HW281185   4.256   2.284  10.336
26430SOL     OW81186  14.646   3.629  12.067
26430SOL    HW181187  14.567   3.577  12.084
26430SOL    HW281188  14.617   3.698  12.008
26431SOL     OW81189   6.328   8.405  10.242
26431SOL    HW181190   6.350   8.368  10.157
26431SOL    HW281191   6.272   8.480  10.221
26432SOL     OW81192   1.097   3.546   6.687
26432SOL    HW181193   1.097   3.611   6.617
26432SOL    HW281194   1.113   3.463   6.644
26433SOL     OW81195   3.411  10.354   7.876
26433SOL    HW181196   3.448  10.338   7.789
26433SOL    HW281197   3.475  10.411   7.919
26434SOL     OW81198  10.011   5.673  10.634
26434SOL    HW181199   9.984   5.764  10.620
26434SOL    HW281200  10.079   5.657  10.569
26435SOL     OW81201  13.402   8.942  10.812
26435SOL    HW181202  13.394   8.945  10.908
26435SOL    HW281203  13.489   8.976  10.794
26436SOL     OW81204   7.367   2.689   1.857
26436SOL    HW181205   7.411   2.772   1.874
26436SOL    HW281206   7.329   2.699   1.770
26437SOL     OW81207  11.540   2.032  13.785
26437SOL    HW181208  11.598   1.990  13.723
26437SOL    HW281209  11.463   1.975  13.788
26438SOL     OW81210   5.777  13.554   9.257
26438SOL    HW181211   5.719  13.629   9.269
26438SOL    HW281212   5.733  13.499   9.192
26439SOL     OW81213  13.994   6.938  10.228
26439SOL    HW181214  13.965   6.872  10.291
26439SOL    HW281215  14.062   6.987  10.274
26440SOL     OW81216   0.123  12.613   8.118
26440SOL    HW181217   0.039  12.580   8.088
26440SOL    HW281218   0.138  12.692   8.066
26441SOL     OW81219   4.159   2.806   1.245
26441SOL    HW181220   4.136   2.878   1.187
26441SOL    HW281221   4.098   2.736   1.222
26442SOL     OW81222   0.994   6.964  10.075
26442SOL    HW181223   0.990   7.018   9.996
26442SOL    HW281224   0.920   6.993  10.128
26443SOL     OW81225  12.264   1.603   3.642
26443SOL    HW181226  12.172   1.605   3.614
26443SOL    HW281227  12.307   1.668   3.586
26444SOL     OW81228   6.109  10.097  11.301
26444SOL    HW181229   6.122  10.086  11.395
26444SOL    HW281230   6.198  10.105  11.266
26445SOL     OW81231  14.054   8.388   5.853
26445SOL    HW181232  14.027   8.340   5.931
26445SOL    HW281233  13.978   8.442   5.831
26446SOL     OW81234  10.294   9.571  11.738
26446SOL    HW181235  10.317   9.664  11.745
26446SOL    HW281236  10.378   9.526  11.735
26447SOL     OW81237   4.258  14.739   0.342
26447SOL    HW181238   4.244  14.700   0.429
26447SOL    HW281239   4.231  14.830   0.352
26448SOL     OW81240  12.685   1.554   5.703
26448SOL    HW181241  12.651   1.628   5.754
26448SOL    HW281242  12.632   1.553   5.623
26449SOL     OW81243   0.887   4.917   2.499
26449SOL    HW181244   0.931   4.849   2.551
26449SOL    HW281245   0.870   4.987   2.562
26450SOL     OW81246  10.447   7.930   2.863
26450SOL    HW181247  10.457   7.841   2.830
26450SOL    HW281248  10.397   7.975   2.794
26451SOL     OW81249  11.848   9.086  14.562
26451SOL    HW181250  11.926   9.107  14.511
26451SOL    HW281251  11.865   8.998  14.596
26452SOL     OW81252  12.805   7.722   9.796
26452SOL    HW181253  12.892   7.694   9.767
26452SOL    HW281254  12.748   7.647   9.777
26453SOL     OW81255   3.407   2.312  14.006
26453SOL    HW181256   3.391   2.320  14.100
26453SOL    HW281257   3.338   2.363  13.964
26454SOL     OW81258   7.595   1.540   2.875
26454SOL    HW181259   7.563   1.512   2.789
26454SOL    HW281260   7.572   1.468   2.933
26455SOL     OW81261   8.440   4.666   9.142
26455SOL    HW181262   8.417   4.759   9.153
26455SOL    HW281263   8.469   4.660   9.051
26456SOL     OW81264   9.602   6.124  12.376
26456SOL    HW181265   9.660   6.051  12.399
26456SOL    HW281266   9.530   6.084  12.328
26457SOL     OW81267   6.789   7.786  12.498
26457SOL    HW181268   6.738   7.857  12.536
26457SOL    HW281269   6.729   7.712  12.494
26458SOL     OW81270   5.209  14.864   4.246
26458SOL    HW181271   5.274  14.852   4.316
26458SOL    HW281272   5.221  14.789   4.189
26459SOL     OW81273   9.310   3.891   1.964
26459SOL    HW181274   9.216   3.875   1.975
26459SOL    HW281275   9.345   3.893   2.053
26460SOL     OW81276   1.817  10.839   0.352
26460SOL    HW181277   1.904  10.834   0.391
26460SOL    HW281278   1.796  10.932   0.350
26461SOL     OW81279   3.227   1.446   2.559
26461SOL    HW181280   3.285   1.521   2.547
26461SOL    HW281281   3.171   1.446   2.482
26462SOL     OW81282  10.605   9.409   5.846
26462SOL    HW181283  10.511   9.417   5.862
26462SOL    HW281284  10.621   9.468   5.772
26463SOL     OW81285   4.172  13.911  12.429
26463SOL    HW181286   4.128  13.950  12.353
26463SOL    HW281287   4.236  13.851  12.391
26464SOL     OW81288   4.874   7.791  13.742
26464SOL    HW181289   4.819   7.721  13.707
26464SOL    HW281290   4.872   7.778  13.837
26465SOL     OW81291  11.031  10.228   2.634
26465SOL    HW181292  10.936  10.238   2.639
26465SOL    HW281293  11.045  10.143   2.592
26466SOL     OW81294   5.695   6.872  10.433
26466SOL    HW181295   5.607   6.858  10.470
26466SOL    HW281296   5.711   6.965  10.445
26467SOL     OW81297   7.831  12.682  10.902
26467SOL    HW181298   7.851  12.738  10.827
26467SOL    HW281299   7.807  12.598  10.863
26468SOL     OW81300   1.026  14.809  10.695
26468SOL    HW181301   0.980  14.828  10.613
26468SOL    HW281302   1.113  14.780  10.667
26469SOL     OW81303   1.665  10.985   2.077
26469SOL    HW181304   1.687  10.985   1.984
26469SOL    HW281305   1.602  10.913   2.087
26470SOL     OW81306   0.327   6.992   4.993
26470SOL    HW181307   0.399   6.962   4.938
26470SOL    HW281308   0.282   6.912   5.019
26471SOL     OW81309  14.454  12.493   0.681
26471SOL    HW181310  14.390  12.519   0.747
26471SOL    HW281311  14.539  12.512   0.721
26472SOL     OW81312   5.929  11.700   9.754
26472SOL    HW181313   5.921  11.628   9.691
26472SOL    HW281314   5.847  11.699   9.803
26473SOL     OW81315  11.580   1.401   9.678
26473SOL    HW181316  11.494   1.369   9.651
26473SOL    HW281317  11.563   1.450   9.759
26474SOL     OW81318  13.736  11.552   1.398
26474SOL    HW181319  13.782  11.574   1.479
26474SOL    HW281320  13.703  11.636   1.366
26475SOL     OW81321  10.149   1.583   8.286
26475SOL    HW181322  10.054   1.581   8.280
26475SOL    HW281323  10.177   1.643   8.217
26476SOL     OW81324   2.785   4.971   5.532
26476SOL    HW181325   2.761   5.057   5.498
26476SOL    HW281326   2.708   4.941   5.580
26477SOL     OW81327   7.839   8.051  11.426
26477SOL    HW181328   7.858   8.142  11.402
26477SOL    HW281329   7.894   8.035  11.503
26478SOL     OW81330   5.717  10.740   0.637
26478SOL    HW181331   5.754  10.683   0.569
26478SOL    HW281332   5.677  10.679   0.700
26479SOL     OW81333   1.806   9.884   8.020
26479SOL    HW181334   1.793   9.820   7.950
26479SOL    HW281335   1.877   9.940   7.989
26480SOL     OW81336   0.215  13.777   1.145
26480SOL    HW181337   0.280  13.728   1.096
26480SOL    HW281338   0.159  13.710   1.184
26481SOL     OW81339   1.910   8.294   1.451
26481SOL    HW181340   1.945   8.263   1.368
26481SOL    HW281341   1.986   8.309   1.506
26482SOL     OW81342  12.510   9.228  10.282
26482SOL    HW181343  12.484   9.320  10.276
26482SOL    HW281344  12.463   9.194  10.357
26483SOL     OW81345   4.888   1.155  10.486
26483SOL    HW181346   4.929   1.185  10.568
26483SOL    HW281347   4.881   1.234  10.433
26484SOL     OW81348  12.310   1.900  10.028
26484SOL    HW181349  12.355   1.855   9.956
26484SOL    HW281350  12.366   1.886  10.104
26485SOL     OW81351   8.912   0.418  12.259
26485SOL    HW181352   8.893   0.449  12.348
26485SOL    HW281353   8.952   0.494  12.216
26486SOL     OW81354   7.116  13.301   0.656
26486SOL    HW181355   7.082  13.318   0.744
26486SOL    HW281356   7.039  13.274   0.605
26487SOL     OW81357   4.840   5.544   3.576
26487SOL    HW181358   4.806   5.498   3.499
26487SOL    HW281359   4.816   5.635   3.563
26488SOL     OW81360  13.861   5.343  11.207
26488SOL    HW181361  13.878   5.305  11.121
26488SOL    HW281362  13.850   5.267  11.265
26489SOL     OW81363  10.588  12.554   3.779
26489SOL    HW181364  10.619  12.490   3.714
26489SOL    HW281365  10.613  12.517   3.863
26490SOL     OW81366   8.609   6.048   0.242
26490SOL    HW181367   8.652   6.040   0.327
26490SOL    HW281368   8.677   6.084   0.185
26491SOL     OW81369   5.754  14.415   2.454
26491SOL    HW181370   5.666  14.451   2.446
26491SOL    HW281371   5.741  14.320   2.457
26492SOL     OW81372   8.278  13.279   9.555
26492SOL    HW181373   8.294  13.190   9.588
26492SOL    HW281374   8.194  13.272   9.508
26493SOL     OW81375   0.006   6.581   7.120
26493SOL    HW181376  14.781   6.575   7.129
26493SOL    HW281377   0.027   6.669   7.151
26494SOL     OW81378   3.503   0.698  13.245
26494SOL    HW181379   3.448   0.776  13.251
26494SOL    HW281380   3.591   0.728  13.269
26495SOL     OW81381   3.233   2.511   8.993
26495SOL    HW181382   3.318   2.483   9.026
26495SOL    HW281383   3.247   2.601   8.963
26496SOL     OW81384  10.491   8.512   5.123
26496SOL    HW181385  10.484   8.425   5.163
26496SOL    HW281386  10.429   8.566   5.172
26497SOL     OW81387   6.853  13.537   6.585
26497SOL    HW181388   6.760  13.543   6.607
26497SOL    HW281389   6.877  13.625   6.557
26498SOL     OW81390   8.751   7.357   9.072
26498SOL    HW181391   8.837   7.390   9.048
26498SOL    HW281392   8.694   7.434   9.070
26499SOL     OW81393   1.316  12.375  13.657
26499SOL    HW181394   1.284  12.465  13.664
26499SOL    HW281395   1.295  12.350  13.567
26500SOL     OW81396  10.808  11.138   8.305
26500SOL    HW181397  10.863  11.215   8.292
26500SOL    HW281398  10.863  11.076   8.353
26501SOL     OW81399   7.549  14.230  13.060
26501SOL    HW181400   7.584  14.240  12.971
26501SOL    HW281401   7.454  14.227  13.048
26502SOL     OW81402   5.863   4.932  12.401
26502SOL    HW181403   5.907   4.847  12.403
26502SOL    HW281404   5.834   4.942  12.311
26503SOL     OW81405  13.015   5.481   2.054
26503SOL    HW181406  12.959   5.454   1.981
26503SOL    HW281407  13.006   5.576   2.058
26504SOL     OW81408   2.679   0.447  13.313
26504SOL    HW181409   2.639   0.528  13.283
26504SOL    HW281410   2.733   0.474  13.388
26505SOL     OW81411  12.716   6.128  13.428
26505SOL    HW181412  12.635   6.178  13.417
26505SOL    HW281413  12.691   6.056  13.487
26506SOL     OW81414   4.418   5.874   1.427
26506SOL    HW181415   4.323   5.881   1.428
26506SOL    HW281416   4.436   5.785   1.395
26507SOL     OW81417  12.956   2.673  14.510
26507SOL    HW181418  12.919   2.586  14.495
26507SOL    HW281419  12.890   2.733  14.476
26508SOL     OW81420   9.486   7.575   6.747
26508SOL    HW181421   9.443   7.651   6.707
26508SOL    HW281422   9.444   7.500   6.704
26509SOL     OW81423   9.240   9.484   0.059
26509SOL    HW181424   9.173   9.442   0.005
26509SOL    HW281425   9.191   9.519   0.134
26510SOL     OW81426   2.509   0.923   7.998
26510SOL    HW181427   2.431   0.916   8.053
26510SOL    HW281428   2.497   1.005   7.949
26511SOL     OW81429   8.336   0.179   5.622
26511SOL    HW181430   8.266   0.156   5.562
26511SOL    HW281431   8.359   0.269   5.598
26512SOL     OW81432   6.864  12.207  10.425
26512SOL    HW181433   6.925  12.219  10.353
26512SOL    HW281434   6.889  12.272  10.490
26513SOL     OW81435   0.077   0.600   1.079
26513SOL    HW181436   0.166   0.579   1.106
26513SOL    HW281437   0.044   0.658   1.148
26514SOL     OW81438  14.322  10.867   5.821
26514SOL    HW181439  14.400  10.908   5.783
26514SOL    HW281440  14.356  10.811   5.891
26515SOL     OW81441  14.214  13.362   5.230
26515SOL    HW181442  14.169  13.435   5.274
26515SOL    HW281443  14.278  13.331   5.294
26516SOL     OW81444  12.548  13.086   8.762
26516SOL    HW181445  12.641  13.111   8.759
26516SOL    HW281446  12.516  13.121   8.845
26517SOL     OW81447  11.485   2.494   6.383
26517SOL    HW181448  11.518   2.502   6.293
26517SOL    HW281449  11.392   2.514   6.376
26518SOL     OW81450   3.573   0.396   4.970
26518SOL    HW181451   3.667   0.410   4.958
26518SOL    HW281452   3.567   0.307   5.002
26519SOL     OW81453   2.984  13.239   0.358
26519SOL    HW181454   3.041  13.307   0.391
26519SOL    HW281455   2.920  13.285   0.303
26520SOL     OW81456   0.573   0.447   9.315
26520SOL    HW181457   0.544   0.364   9.277
26520SOL    HW281458   0.506   0.511   9.289
26521SOL     OW81459   0.884  14.057  11.892
26521SOL    HW181460   0.948  14.118  11.928
26521SOL    HW281461   0.886  14.073  11.797
26522SOL     OW81462  10.098   7.870   3.418
26522SOL    HW181463  10.139   7.856   3.503
26522SOL    HW281464  10.009   7.838   3.429
26523SOL     OW81465   0.316   3.482   4.415
26523SOL    HW181466   0.254   3.465   4.344
26523SOL    HW281467   0.370   3.403   4.418
26524SOL     OW81468   0.418   8.051  11.477
26524SOL    HW181469   0.443   8.036  11.568
26524SOL    HW281470   0.383   8.141  11.476
26525SOL     OW81471   5.239   3.331  12.859
26525SOL    HW181472   5.176   3.402  12.849
26525SOL    HW281473   5.244   3.316  12.954
26526SOL     OW81474   6.797   9.476   9.188
26526SOL    HW181475   6.730   9.521   9.239
26526SOL    HW281476   6.877   9.528   9.200
26527SOL     OW81477  12.832   1.964  10.800
26527SOL    HW181478  12.799   1.878  10.773
26527SOL    HW281479  12.911   1.944  10.850
26528SOL     OW81480   7.929   8.012   0.518
26528SOL    HW181481   7.914   8.074   0.446
26528SOL    HW281482   7.990   8.057   0.576
26529SOL     OW81483   8.700  13.018  13.018
26529SOL    HW181484   8.691  12.929  13.053
26529SOL    HW281485   8.762  13.061  13.077
26530SOL     OW81486  14.637  13.912   1.384
26530SOL    HW181487  14.681  13.956   1.457
26530SOL    HW281488  14.639  13.819   1.408
26531SOL     OW81489   2.186   6.598   2.877
26531SOL    HW181490   2.161   6.564   2.791
26531SOL    HW281491   2.115   6.572   2.935
26532SOL     OW81492   7.943  11.332  10.652
26532SOL    HW181493   7.891  11.280  10.591
26532SOL    HW281494   8.033  11.324  10.620
26533SOL     OW81495   0.769   8.170   8.737
26533SOL    HW181496   0.732   8.244   8.786
26533SOL    HW281497   0.864   8.187   8.737
26534SOL     OW81498   4.439   0.577  10.505
26534SOL    HW181499   4.402   0.662  10.528
26534SOL    HW281500   4.526   0.597  10.472
26535SOL     OW81501  10.915  11.271  10.911
26535SOL    HW181502  10.876  11.195  10.866
26535SOL    HW281503  10.842  11.330  10.925
26536SOL     OW81504  13.271   0.670  11.878
26536SOL    HW181505  13.182   0.645  11.853
26536SOL    HW281506  13.281   0.759  11.845
26537SOL     OW81507  14.009   1.096   5.307
26537SOL    HW181508  14.093   1.092   5.262
26537SOL    HW281509  14.025   1.151   5.384
26538SOL     OW81510   2.580   3.437   9.368
26538SOL    HW181511   2.508   3.382   9.399
26538SOL    HW281512   2.658   3.396   9.405
26539SOL     OW81513   4.242  14.762  10.858
26539SOL    HW181514   4.182  14.748  10.784
26539SOL    HW281515   4.193  14.731  10.935
26540SOL     OW81516  14.178  12.404   3.464
26540SOL    HW181517  14.098  12.432   3.507
26540SOL    HW281518  14.248  12.425   3.527
26541SOL     OW81519  12.487   9.577   8.887
26541SOL    HW181520  12.440   9.653   8.921
26541SOL    HW281521  12.448   9.562   8.800
26542SOL     OW81522   3.530  14.468   2.896
26542SOL    HW181523   3.521  14.550   2.945
26542SOL    HW281524   3.441  14.432   2.894
26543SOL     OW81525  13.894   4.176  12.757
26543SOL    HW181526  13.834   4.199  12.686
26543SOL    HW281527  13.839   4.135  12.824
26544SOL     OW81528   2.129  12.624   9.408
26544SOL    HW181529   2.038  12.602   9.427
26544SOL    HW281530   2.125  12.707   9.362
26545SOL     OW81531   6.462   6.789  10.847
26545SOL    HW181532   6.418   6.729  10.908
26545SOL    HW281533   6.502   6.732  10.781
26546SOL     OW81534   7.538  12.964   0.171
26546SOL    HW181535   7.483  12.886   0.177
26546SOL    HW281536   7.505  13.022   0.239
26547SOL     OW81537   9.348  11.336  13.276
26547SOL    HW181538   9.266  11.366  13.316
26547SOL    HW281539   9.393  11.290  13.347
26548SOL     OW81540  14.306   5.421  10.874
26548SOL    HW181541  14.212   5.409  10.891
26548SOL    HW281542  14.309   5.483  10.801
26549SOL     OW81543  11.498   2.293  14.832
26549SOL    HW181544  11.486   2.319  14.741
26549SOL    HW281545  11.589   2.261  14.836
26550SOL     OW81546   1.479   8.173  12.494
26550SOL    HW181547   1.540   8.210  12.558
26550SOL    HW281548   1.526   8.098  12.457
26551SOL     OW81549  10.133   0.422   1.214
26551SOL    HW181550  10.064   0.470   1.168
26551SOL    HW281551  10.143   0.469   1.297
26552SOL     OW81552   0.151   2.207  14.166
26552SOL    HW181553   0.244   2.209  14.142
26552SOL    HW281554   0.144   2.137  14.230
26553SOL     OW81555   0.987   2.831   3.616
26553SOL    HW181556   0.941   2.760   3.661
26553SOL    HW281557   1.079   2.817   3.638
26554SOL     OW81558   1.799  11.509  11.891
26554SOL    HW181559   1.787  11.555  11.974
26554SOL    HW281560   1.710  11.492  11.860
26555SOL     OW81561   7.162  10.879  11.799
26555SOL    HW181562   7.247  10.839  11.821
26555SOL    HW281563   7.183  10.945  11.734
26556SOL     OW81564   6.045   9.793   2.538
26556SOL    HW181565   6.113   9.819   2.601
26556SOL    HW281566   5.973   9.853   2.554
26557SOL     OW81567  11.546   1.591   4.403
26557SOL    HW181568  11.479   1.535   4.442
26557SOL    HW281569  11.525   1.679   4.434
26558SOL     OW81570   4.121   1.615   9.712
26558SOL    HW181571   4.061   1.541   9.726
26558SOL    HW281572   4.142   1.611   9.619
26559SOL     OW81573   6.907   9.870   8.249
26559SOL    HW181574   6.961   9.883   8.171
26559SOL    HW281575   6.889   9.958   8.281
26560SOL     OW81576   9.107   5.213   5.746
26560SOL    HW181577   9.162   5.271   5.693
26560SOL    HW281578   9.133   5.125   5.720
26561SOL     OW81579  13.755  10.772   5.027
26561SOL    HW181580  13.670  10.816   5.024
26561SOL    HW281581  13.818  10.842   5.009
26562SOL     OW81582   0.239   9.157   4.191
26562SOL    HW181583   0.196   9.204   4.120
26562SOL    HW281584   0.261   9.072   4.154
26563SOL     OW81585  13.939   7.259   9.359
26563SOL    HW181586  13.909   7.172   9.385
26563SOL    HW281587  14.029   7.245   9.329
26564SOL     OW81588  10.756  13.275   2.345
26564SOL    HW181589  10.779  13.273   2.253
26564SOL    HW281590  10.676  13.224   2.352
26565SOL     OW81591  10.325  13.666  12.339
26565SOL    HW181592  10.409  13.713  12.344
26565SOL    HW281593  10.279  13.708  12.266
26566SOL     OW81594   8.520  10.636   3.578
26566SOL    HW181595   8.479  10.685   3.649
26566SOL    HW281596   8.543  10.551   3.617
26567SOL     OW81597   2.898  10.900  12.511
26567SOL    HW181598   2.833  10.904  12.441
26567SOL    HW281599   2.960  10.833  12.483
26568SOL     OW81600   4.853   7.151   8.974
26568SOL    HW181601   4.792   7.080   8.993
26568SOL    HW281602   4.890   7.175   9.059
26569SOL     OW81603   1.665  13.122  14.192
26569SOL    HW181604   1.684  13.110  14.099
26569SOL    HW281605   1.680  13.215  14.208
26570SOL     OW81606   8.267  13.499   9.871
26570SOL    HW181607   8.233  13.540   9.950
26570SOL    HW281608   8.190  13.461   9.829
26571SOL     OW81609  12.131   3.876   1.948
26571SOL    HW181610  12.065   3.868   2.016
26571SOL    HW281611  12.206   3.827   1.981
26572SOL     OW81612  11.127   3.067   0.950
26572SOL    HW181613  11.095   3.078   1.039
26572SOL    HW281614  11.200   3.006   0.958
26573SOL     OW81615  14.285   2.561  12.465
26573SOL    HW181616  14.250   2.634  12.516
26573SOL    HW281617  14.320   2.601  12.386
26574SOL     OW81618   9.599  13.777   1.939
26574SOL    HW181619   9.647  13.696   1.954
26574SOL    HW281620   9.636  13.811   1.857
26575SOL     OW81621  10.478   5.710   6.430
26575SOL    HW181622  10.432   5.732   6.511
26575SOL    HW281623  10.485   5.793   6.383
26576SOL     OW81624   4.561  10.214   1.000
26576SOL    HW181625   4.654  10.234   1.006
26576SOL    HW281626   4.541  10.221   0.907
26577SOL     OW81627  10.924  14.006  13.896
26577SOL    HW181628  11.002  14.061  13.904
26577SOL    HW281629  10.956  13.924  13.858
26578SOL     OW81630   5.878   8.616  14.447
26578SOL    HW181631   5.964   8.577  14.429
26578SOL    HW281632   5.829   8.605  14.365
26579SOL     OW81633   7.252   8.337  12.328
26579SOL    HW181634   7.160   8.362  12.318
26579SOL    HW281635   7.283   8.321  12.239
26580SOL     OW81636  14.533   3.572   0.486
26580SOL    HW181637  14.516   3.624   0.408
26580SOL    HW281638  14.446   3.549   0.519
26581SOL     OW81639  13.988   7.858   4.590
26581SOL    HW181640  14.079   7.838   4.609
26581SOL    HW281641  13.944   7.773   4.587
26582SOL     OW81642  10.812   5.710   6.389
26582SOL    HW181643  10.867   5.710   6.310
26582SOL    HW281644  10.802   5.803   6.411
26583SOL     OW81645   4.377   2.631  12.216
26583SOL    HW181646   4.458   2.590  12.244
26583SOL    HW281647   4.404   2.711  12.171
26584SOL     OW81648  13.666   7.814   1.281
26584SOL    HW181649  13.662   7.740   1.342
26584SOL    HW281650  13.586   7.806   1.229
26585SOL     OW81651   9.467   0.451   5.872
26585SOL    HW181652   9.418   0.415   5.798
26585SOL    HW281653   9.435   0.402   5.948
26586SOL     OW81654   1.508   9.954   9.108
26586SOL    HW181655   1.549   9.972   9.192
26586SOL    HW281656   1.508   9.858   9.102
26587SOL     OW81657  11.984   0.588   2.097
26587SOL    HW181658  12.061   0.613   2.045
26587SOL    HW281659  11.979   0.656   2.164
26588SOL     OW81660   1.025  12.560   5.345
26588SOL    HW181661   1.022  12.490   5.410
26588SOL    HW281662   1.105  12.541   5.294
26589SOL     OW81663   9.858  13.547   2.188
26589SOL    HW181664   9.842  13.633   2.227
26589SOL    HW281665   9.920  13.505   2.248
26590SOL     OW81666   5.682   2.691   9.386
26590SOL    HW181667   5.646   2.667   9.301
26590SOL    HW281668   5.735   2.769   9.368
26591SOL     OW81669   7.109   9.542   0.601
26591SOL    HW181670   7.094   9.460   0.648
26591SOL    HW281671   7.023   9.582   0.595
26592SOL     OW81672   0.881   6.111   2.843
26592SOL    HW181673   0.884   6.041   2.778
26592SOL    HW281674   0.794   6.149   2.834
26593SOL     OW81675   0.934   6.159   4.435
26593SOL    HW181676   1.008   6.219   4.422
26593SOL    HW281677   0.968   6.073   4.413
26594SOL     OW81678  10.307   8.360   0.891
26594SOL    HW181679  10.356   8.410   0.826
26594SOL    HW281680  10.362   8.283   0.907
26595SOL     OW81681   8.912  10.354   1.202
26595SOL    HW181682   8.960  10.411   1.261
26595SOL    HW281683   8.927  10.391   1.115
26596SOL     OW81684   5.568  14.528  13.316
26596SOL    HW181685   5.656  14.541  13.280
26596SOL    HW281686   5.572  14.567  13.403
26597SOL     OW81687   5.526  11.193   1.312
26597SOL    HW181688   5.616  11.176   1.284
26597SOL    HW281689   5.523  11.288   1.326
26598SOL     OW81690   9.176   3.178   8.079
26598SOL    HW181691   9.090   3.194   8.040
26598SOL    HW281692   9.195   3.258   8.128
26599SOL     OW81693   4.375   5.138   4.530
26599SOL    HW181694   4.310   5.176   4.588
26599SOL    HW281695   4.452   5.193   4.540
26600SOL     OW81696   1.678  12.297  13.065
26600SOL    HW181697   1.654  12.292  13.158
26600SOL    HW281698   1.772  12.313  13.065
26601SOL     OW81699   5.735   6.868   3.309
26601SOL    HW181700   5.705   6.959   3.307
26601SOL    HW281701   5.656   6.817   3.328
26602SOL     OW81702   6.640   3.335  11.866
26602SOL    HW181703   6.705   3.358  11.799
26602SOL    HW281704   6.556   3.361  11.828
26603SOL     OW81705  14.200  12.887   7.806
26603SOL    HW181706  14.240  12.962   7.849
26603SOL    HW281707  14.141  12.850   7.872
26604SOL     OW81708   1.213   4.201   5.614
26604SOL    HW181709   1.124   4.171   5.595
26604SOL    HW281710   1.267   4.122   5.608
26605SOL     OW81711   8.663  14.348   8.327
26605SOL    HW181712   8.582  14.365   8.279
26605SOL    HW281713   8.678  14.428   8.377
26606SOL     OW81714   4.784   8.106  10.507
26606SOL    HW181715   4.736   8.107  10.424
26606SOL    HW281716   4.806   8.014  10.520
26607SOL     OW81717   0.880   0.152   5.284
26607SOL    HW181718   0.885   0.110   5.198
26607SOL    HW281719   0.795   0.196   5.285
26608SOL     OW81720   5.982   1.637   4.942
26608SOL    HW181721   6.061   1.690   4.928
26608SOL    HW281722   5.943   1.673   5.022
26609SOL     OW81723  14.465   9.964  13.259
26609SOL    HW181724  14.471  10.035  13.196
26609SOL    HW281725  14.434   9.889  13.207
26610SOL     OW81726  13.856  14.242   6.103
26610SOL    HW181727  13.764  14.268   6.103
26610SOL    HW281728  13.893  14.286   6.180
26611SOL     OW81729   7.525   9.372   9.279
26611SOL    HW181730   7.432   9.381   9.300
26611SOL    HW281731   7.551   9.459   9.249
26612SOL     OW81732   0.649   4.388   5.466
26612SOL    HW181733   0.705   4.460   5.493
26612SOL    HW281734   0.615   4.352   5.548
26613SOL     OW81735  13.170   8.220   3.726
26613SOL    HW181736  13.197   8.160   3.795
26613SOL    HW281737  13.251   8.265   3.701
26614SOL     OW81738  12.375   8.308   5.864
26614SOL    HW181739  12.349   8.351   5.945
26614SOL    HW281740  12.294   8.297   5.815
26615SOL     OW81741  10.226   9.678   8.588
26615SOL    HW181742  10.181   9.594   8.575
26615SOL    HW281743  10.289   9.661   8.658
26616SOL     OW81744  13.105   7.570  11.310
26616SOL    HW181745  13.164   7.558  11.236
26616SOL    HW281746  13.121   7.660  11.339
26617SOL     OW81747   6.565   7.424   9.658
26617SOL    HW181748   6.607   7.338   9.665
26617SOL    HW281749   6.575   7.462   9.746
26618SOL     OW81750   8.975  11.388  10.198
26618SOL    HW181751   8.892  11.413  10.238
26618SOL    HW281752   9.041  11.425  10.256
26619SOL     OW81753  13.963   3.943  12.041
26619SOL    HW181754  13.934   4.034  12.037
26619SOL    HW281755  13.887   3.895  12.076
26620SOL     OW81756   6.210  14.848   1.474
26620SOL    HW181757   6.160  14.837   1.393
26620SOL    HW281758   6.146  14.837   1.544
26621SOL     OW81759  12.025   4.823   7.511
26621SOL    HW181760  12.047   4.915   7.528
26621SOL    HW281761  12.025   4.817   7.415
26622SOL     OW81762  14.120   6.042   2.285
26622SOL    HW181763  14.117   6.057   2.379
26622SOL    HW281764  14.138   5.949   2.276
26623SOL     OW81765  14.198  11.256   9.081
26623SOL    HW181766  14.188  11.352   9.083
26623SOL    HW281767  14.288  11.242   9.052
26624SOL     OW81768   7.683  12.471   2.130
26624SOL    HW181769   7.610  12.521   2.094
26624SOL    HW281770   7.684  12.389   2.081
26625SOL     OW81771   9.813  10.922  10.954
26625SOL    HW181772   9.822  11.013  10.984
26625SOL    HW281773   9.856  10.871  11.023
26626SOL     OW81774  12.098   0.768   5.215
26626SOL    HW181775  12.027   0.720   5.256
26626SOL    HW281776  12.142   0.704   5.160
26627SOL     OW81777  10.827  14.156   2.320
26627SOL    HW181778  10.801  14.170   2.411
26627SOL    HW281779  10.795  14.233   2.274
26628SOL     OW81780   0.711   0.099   1.194
26628SOL    HW181781   0.752   0.041   1.259
26628SOL    HW281782   0.727   0.056   1.110
26629SOL     OW81783  14.590   7.059  14.574
26629SOL    HW181784  14.637   6.993  14.521
26629SOL    HW281785  14.617   7.041  14.664
26630SOL     OW81786   8.989   0.455   5.608
26630SOL    HW181787   9.036   0.375   5.631
26630SOL    HW281788   9.021   0.521   5.670
26631SOL     OW81789   7.395   9.678   0.162
26631SOL    HW181790   7.448   9.746   0.202
26631SOL    HW281791   7.374   9.618   0.234
26632SOL     OW81792   1.822   4.422  12.709
26632SOL    HW181793   1.845   4.444  12.619
26632SOL    HW281794   1.892   4.363  12.738
26633SOL     OW81795   7.410   7.087   7.109
26633SOL    HW181796   7.408   7.077   7.204
26633SOL    HW281797   7.458   7.169   7.095
26634SOL     OW81798   1.535   3.528   4.764
26634SOL    HW181799   1.547   3.445   4.717
26634SOL    HW281800   1.441   3.544   4.761
26635SOL     OW81801   1.641   0.361  12.742
26635SOL    HW181802   1.609   0.353  12.653
26635SOL    HW281803   1.693   0.442  12.742
26636SOL     OW81804  13.231   8.550  11.020
26636SOL    HW181805  13.285   8.521  11.093
26636SOL    HW281806  13.141   8.549  11.054
26637SOL     OW81807   6.102  10.276   7.517
26637SOL    HW181808   6.136  10.240   7.436
26637SOL    HW281809   6.158  10.239   7.586
26638SOL     OW81810   2.327   7.215   6.957
26638SOL    HW181811   2.401   7.258   7.001
26638SOL    HW281812   2.272   7.182   7.028
26639SOL     OW81813  13.562   6.363  12.473
26639SOL    HW181814  13.538   6.395  12.386
26639SOL    HW281815  13.489   6.307  12.500
26640SOL     OW81816   7.551   5.751  11.070
26640SOL    HW181817   7.619   5.787  11.014
26640SOL    HW281818   7.506   5.686  11.015
26641SOL     OW81819   0.429  14.297   9.995
26641SOL    HW181820   0.411  14.222  10.051
26641SOL    HW281821   0.433  14.261   9.906
26642SOL     OW81822   3.309   9.945   6.011
26642SOL    HW181823   3.320   9.970   5.920
26642SOL    HW281824   3.273  10.023   6.054
26643SOL     OW81825   4.272  11.440  10.004
26643SOL    HW181826   4.359  11.400  10.011
26643SOL    HW281827   4.288  11.524   9.962
26644SOL     OW81828   4.562   9.674  10.257
26644SOL    HW181829   4.508   9.752  10.274
26644SOL    HW281830   4.652   9.706  10.259
26645SOL     OW81831   7.253  14.658   1.545
26645SOL    HW181832   7.317  14.666   1.615
26645SOL    HW281833   7.246  14.747   1.509
26646SOL     OW81834  11.475   3.676  11.862
26646SOL    HW181835  11.402   3.615  11.848
26646SOL    HW281836  11.517   3.683  11.777
26647SOL     OW81837   3.133  14.621   7.186
26647SOL    HW181838   3.167  14.579   7.107
26647SOL    HW281839   3.091  14.551   7.235
26648SOL     OW81840   1.393   6.983   9.601
26648SOL    HW181841   1.319   6.993   9.542
26648SOL    HW281842   1.384   7.055   9.664
26649SOL     OW81843  13.356   8.007   1.285
26649SOL    HW181844  13.371   7.920   1.249
26649SOL    HW281845  13.354   7.993   1.380
26650SOL     OW81846   1.365   9.370   2.416
26650SOL    HW181847   1.308   9.296   2.392
26650SOL    HW281848   1.448   9.351   2.372
26651SOL     OW81849   6.888   8.333   8.561
26651SOL    HW181850   6.854   8.354   8.474
26651SOL    HW281851   6.900   8.238   8.559
26652SOL     OW81852   6.181   2.438  12.780
26652SOL    HW181853   6.153   2.527  12.801
26652SOL    HW281854   6.101   2.386  12.782
26653SOL     OW81855  13.521  11.920   5.918
26653SOL    HW181856  13.521  11.918   5.822
26653SOL    HW281857  13.468  11.997   5.940
26654SOL     OW81858   2.635   6.248   7.164
26654SOL    HW181859   2.580   6.297   7.103
26654SOL    HW281860   2.645   6.306   7.239
26655SOL     OW81861  12.585  12.546   2.047
26655SOL    HW181862  12.641  12.613   2.085
26655SOL    HW281863  12.599  12.469   2.101
26656SOL     OW81864   5.306   3.177   6.515
26656SOL    HW181865   5.261   3.117   6.456
26656SOL    HW281866   5.248   3.253   6.523
26657SOL     OW81867  13.507   3.537   7.082
26657SOL    HW181868  13.579   3.551   7.020
26657SOL    HW281869  13.436   3.502   7.028
26658SOL     OW81870   4.771   8.451   1.671
26658SOL    HW181871   4.847   8.405   1.636
26658SOL    HW281872   4.808   8.520   1.727
26659SOL     OW81873   6.876   3.157   3.389
26659SOL    HW181874   6.890   3.233   3.444
26659SOL    HW281875   6.821   3.098   3.441
26660SOL     OW81876   7.435  13.456   9.857
26660SOL    HW181877   7.519  13.420   9.828
26660SOL    HW281878   7.452  13.549   9.870
26661SOL     OW81879   0.164  11.277  12.874
26661SOL    HW181880   0.164  11.186  12.844
26661SOL    HW281881   0.131  11.327  12.799
26662SOL     OW81882  14.755  10.497   9.363
26662SOL    HW181883  14.681  10.535   9.315
26662SOL    HW281884  14.714  10.456   9.439
26663SOL     OW81885   4.801  10.412   1.459
26663SOL    HW181886   4.775  10.468   1.532
26663SOL    HW281887   4.875  10.362   1.493
26664SOL     OW81888  11.047  10.129   8.742
26664SOL    HW181889  11.087  10.077   8.812
26664SOL    HW281890  11.121  10.153   8.685
26665SOL     OW81891  13.703   1.785   6.650
26665SOL    HW181892  13.782   1.734   6.635
26665SOL    HW281893  13.690   1.835   6.569
26666SOL     OW81894  13.005  14.354   4.153
26666SOL    HW181895  13.083  14.369   4.100
26666SOL    HW281896  13.038  14.353   4.243
26667SOL     OW81897   2.503   1.799   7.453
26667SOL    HW181898   2.533   1.866   7.391
26667SOL    HW281899   2.539   1.826   7.537
26668SOL     OW81900   6.336  13.129  11.706
26668SOL    HW181901   6.365  13.197  11.646
26668SOL    HW281902   6.394  13.137  11.782
26669SOL     OW81903   4.093   8.544   5.314
26669SOL    HW181904   4.056   8.556   5.401
26669SOL    HW281905   4.019   8.517   5.259
26670SOL     OW81906  10.996  10.339   1.629
26670SOL    HW181907  11.064  10.371   1.570
26670SOL    HW281908  10.990  10.407   1.697
26671SOL     OW81909  10.454   5.374   8.695
26671SOL    HW181910  10.446   5.357   8.601
26671SOL    HW281911  10.450   5.287   8.736
26672SOL     OW81912   9.267   0.992  13.661
26672SOL    HW181913   9.270   0.925  13.592
26672SOL    HW281914   9.191   1.046  13.638
26673SOL     OW81915   5.220   4.864   7.986
26673SOL    HW181916   5.212   4.957   7.966
26673SOL    HW281917   5.280   4.830   7.919
26674SOL     OW81918   9.595   1.962  12.772
26674SOL    HW181919   9.557   1.963  12.860
26674SOL    HW281920   9.540   1.900  12.723
26675SOL     OW81921   5.768   3.071   6.670
26675SOL    HW181922   5.793   3.074   6.762
26675SOL    HW281923   5.681   3.031   6.669
26676SOL     OW81924   6.939   0.517   9.710
26676SOL    HW181925   6.885   0.479   9.640
26676SOL    HW281926   6.957   0.606   9.681
26677SOL     OW81927   9.665   7.552  10.923
26677SOL    HW181928   9.672   7.559  11.019
26677SOL    HW281929   9.714   7.627  10.890
26678SOL     OW81930   9.524  10.095   1.241
26678SOL    HW181931   9.436  10.060   1.229
26678SOL    HW281932   9.544  10.139   1.159
26679SOL     OW81933   9.384  11.283  14.595
26679SOL    HW181934   9.466  11.238  14.619
26679SOL    HW281935   9.406  11.330  14.514
26680SOL     OW81936  13.590  11.561   1.965
26680SOL    HW181937  13.538  11.489   1.999
26680SOL    HW281938  13.525  11.628   1.941
26681SOL     OW81939   6.074  12.667  11.950
26681SOL    HW181940   6.084  12.626  11.864
26681SOL    HW281941   6.068  12.761  11.931
26682SOL     OW81942  13.375  12.736   0.391
26682SOL    HW181943  13.459  12.692   0.406
26682SOL    HW281944  13.343  12.757   0.479
26683SOL     OW81945   4.402   3.966   8.754
26683SOL    HW181946   4.348   3.932   8.825
26683SOL    HW281947   4.492   3.963   8.788
26684SOL     OW81948   0.564  12.179  12.865
26684SOL    HW181949   0.659  12.180  12.848
26684SOL    HW281950   0.528  12.241  12.802
26685SOL     OW81951  12.599  11.978  13.848
26685SOL    HW181952  12.608  11.979  13.943
26685SOL    HW281953  12.568  11.890  13.828
26686SOL     OW81954  12.499  11.960  12.920
26686SOL    HW181955  12.530  11.946  13.010
26686SOL    HW281956  12.545  11.893  12.869
26687SOL     OW81957   7.794   8.657   3.904
26687SOL    HW181958   7.786   8.734   3.847
26687SOL    HW281959   7.829   8.693   3.986
26688SOL     OW81960   7.929   1.604   8.667
26688SOL    HW181961   7.885   1.655   8.735
26688SOL    HW281962   7.945   1.667   8.597
26689SOL     OW81963   9.622   8.935   4.976
26689SOL    HW181964   9.655   8.909   5.062
26689SOL    HW281965   9.619   8.853   4.926
26690SOL     OW81966   4.539  12.513   8.235
26690SOL    HW181967   4.472  12.472   8.288
26690SOL    HW281968   4.530  12.472   8.149
26691SOL     OW81969   9.082  14.229  11.277
26691SOL    HW181970   9.163  14.195  11.240
26691SOL    HW281971   9.026  14.247  11.201
26692SOL     OW81972   0.795   5.161   1.340
26692SOL    HW181973   0.740   5.121   1.407
26692SOL    HW281974   0.733   5.195   1.275
26693SOL     OW81975   4.958   4.475  13.448
26693SOL    HW181976   4.979   4.567  13.432
26693SOL    HW281977   4.981   4.461  13.540
26694SOL     OW81978   7.764  12.289  14.583
26694SOL    HW181979   7.852  12.264  14.612
26694SOL    HW281980   7.730  12.211  14.539
26695SOL     OW81981   3.757   9.281   5.331
26695SOL    HW181982   3.679   9.248   5.287
26695SOL    HW281983   3.817   9.307   5.261
26696SOL     OW81984  11.609  12.839  12.123
26696SOL    HW181985  11.577  12.779  12.190
26696SOL    HW281986  11.651  12.782  12.058
26697SOL     OW81987   4.909  10.443  13.774
26697SOL    HW181988   4.875  10.479  13.856
26697SOL    HW281989   4.944  10.357  13.798
26698SOL     OW81990   7.394   5.573  13.179
26698SOL    HW181991   7.400   5.666  13.161
26698SOL    HW281992   7.457   5.532  13.120
26699SOL     OW81993   9.567  11.974   7.231
26699SOL    HW181994   9.514  12.039   7.276
26699SOL    HW281995   9.634  11.949   7.295
26700SOL     OW81996   5.244   7.277  11.839
26700SOL    HW181997   5.175   7.335  11.806
26700SOL    HW281998   5.324   7.329  11.831
26701SOL     OW81999   9.900  14.660   0.529
26701SOL    HW182000   9.928  14.728   0.469
26701SOL    HW282001   9.940  14.580   0.495
26702SOL     OW82002   6.082   4.539   0.232
26702SOL    HW182003   6.125   4.559   0.315
26702SOL    HW282004   6.070   4.444   0.234
26703SOL     OW82005  11.153  14.161   1.954
26703SOL    HW182006  11.117  14.190   2.038
26703SOL    HW282007  11.177  14.070   1.969
26704SOL     OW82008  14.334   0.139  13.405
26704SOL    HW182009  14.324   0.044  13.417
26704SOL    HW282010  14.251   0.175  13.437
26705SOL     OW82011  10.552  13.183  12.884
26705SOL    HW182012  10.595  13.260  12.847
26705SOL    HW282013  10.459  13.206  12.887
26706SOL     OW82014  13.024   2.146  14.811
26706SOL    HW182015  12.959   2.076  14.809
26706SOL    HW282016  13.105   2.102  14.838
26707SOL     OW82017   2.304  11.727   1.162
26707SOL    HW182018   2.307  11.796   1.228
26707SOL    HW282019   2.367  11.754   1.095
26708SOL     OW82020   0.361  11.750  14.696
26708SOL    HW182021   0.443  11.799  14.684
26708SOL    HW282022   0.295  11.805  14.654
26709SOL     OW82023   2.700  10.650   2.904
26709SOL    HW182024   2.691  10.562   2.940
26709SOL    HW282025   2.783  10.647   2.855
26710SOL     OW82026   1.329  14.219   1.190
26710SOL    HW182027   1.368  14.196   1.274
26710SOL    HW282028   1.333  14.315   1.187
26711SOL     OW82029  11.109   8.990   0.192
26711SOL    HW182030  11.155   9.049   0.132
26711SOL    HW282031  11.098   9.042   0.272
26712SOL     OW82032   9.469   7.694   5.263
26712SOL    HW182033   9.512   7.651   5.189
26712SOL    HW282034   9.376   7.671   5.253
26713SOL     OW82035   0.029  11.395  13.737
26713SOL    HW182036   0.103  11.403  13.797
26713SOL    HW282037   0.017  11.484  13.702
26714SOL     OW82038   5.347   3.914   1.608
26714SOL    HW182039   5.324   3.994   1.562
26714SOL    HW282040   5.419   3.876   1.558
26715SOL     OW82041   5.343   3.437   9.383
26715SOL    HW182042   5.292   3.510   9.348
26715SOL    HW282043   5.327   3.440   9.478
26716SOL     OW82044   9.220   0.098   3.446
26716SOL    HW182045   9.200   0.133   3.533
26716SOL    HW282046   9.299   0.145   3.419
26717SOL     OW82047  10.024   7.666  12.772
26717SOL    HW182048   9.933   7.652  12.748
26717SOL    HW282049  10.023   7.674  12.867
26718SOL     OW82050  14.779   6.057   9.362
26718SOL    HW182051  14.816   5.974   9.391
26718SOL    HW282052  14.838   6.123   9.399
26719SOL     OW82053   0.683   7.656  14.075
26719SOL    HW182054   0.748   7.726  14.060
26719SOL    HW282055   0.657   7.667  14.166
26720SOL     OW82056  13.575   2.274   8.818
26720SOL    HW182057  13.640   2.206   8.832
26720SOL    HW282058  13.513   2.237   8.755
26721SOL     OW82059   6.768  14.138   2.771
26721SOL    HW182060   6.827  14.197   2.725
26721SOL    HW282061   6.711  14.196   2.822
26722SOL     OW82062  14.270  13.167  13.238
26722SOL    HW182063  14.278  13.113  13.316
26722SOL    HW282064  14.176  13.170  13.220
26723SOL     OW82065   7.203   6.178  13.547
26723SOL    HW182066   7.130   6.208  13.493
26723SOL    HW282067   7.192   6.083  13.550
26724SOL     OW82068   3.805  10.056   2.941
26724SOL    HW182069   3.884  10.098   2.975
26724SOL    HW282070   3.835   9.971   2.908
26725SOL     OW82071   9.375  13.358  12.276
26725SOL    HW182072   9.470  13.366  12.272
26725SOL    HW282073   9.345  13.444  12.306
26726SOL     OW82074  12.012   8.056   7.509
26726SOL    HW182075  12.099   8.055   7.547
26726SOL    HW282076  11.977   7.969   7.527
26727SOL     OW82077   0.265   3.715   0.381
26727SOL    HW182078   0.358   3.699   0.398
26727SOL    HW282079   0.246   3.796   0.428
26728SOL     OW82080  14.524   9.656   8.258
26728SOL    HW182081  14.462   9.677   8.188
26728SOL    HW282082  14.514   9.727   8.321
26729SOL     OW82083   8.108   2.124   4.039
26729SOL    HW182084   8.171   2.184   4.078
26729SOL    HW282085   8.072   2.076   4.114
26730SOL     OW82086   3.355   4.495   8.107
26730SOL    HW182087   3.369   4.482   8.200
26730SOL    HW282088   3.342   4.406   8.072
26731SOL     OW82089   2.147  14.125   5.694
26731SOL    HW182090   2.111  14.173   5.619
26731SOL    HW282091   2.241  14.119   5.676
26732SOL     OW82092   3.230   4.791   8.694
26732SOL    HW182093   3.183   4.841   8.627
26732SOL    HW282094   3.163   4.766   8.757
26733SOL     OW82095  10.365   2.088   8.530
26733SOL    HW182096  10.362   2.026   8.604
26733SOL    HW282097  10.450   2.072   8.490
26734SOL     OW82098  12.215   0.570   5.072
26734SOL    HW182099  12.207   0.491   5.125
26734SOL    HW282100  12.254   0.540   4.990
26735SOL     OW82101   2.530  14.589  14.201
26735SOL    HW182102   2.518  14.604  14.295
26735SOL    HW282103   2.603  14.528  14.196
26736SOL     OW82104   9.262   8.081   9.179
26736SOL    HW182105   9.234   8.021   9.248
26736SOL    HW282106   9.255   8.030   9.099
26737SOL     OW82107   2.758   3.300   6.331
26737SOL    HW182108   2.722   3.350   6.257
26737SOL    HW282109   2.716   3.338   6.408
26738SOL     OW82110   3.121   9.004  10.111
26738SOL    HW182111   3.052   9.009  10.177
26738SOL    HW282112   3.195   8.964  10.156
26739SOL     OW82113   8.376   2.037   4.376
26739SOL    HW182114   8.337   2.071   4.296
26739SOL    HW282115   8.424   2.111   4.413
26740SOL     OW82116   6.387   5.706  12.834
26740SOL    HW182117   6.341   5.790  12.824
26740SOL    HW282118   6.377   5.685  12.927
26741SOL     OW82119   0.804  12.704   7.108
26741SOL    HW182120   0.859  12.732   7.182
26741SOL    HW282121   0.737  12.649   7.147
26742SOL     OW82122   2.682  14.639  13.861
26742SOL    HW182123   2.597  14.600  13.843
26742SOL    HW282124   2.663  14.731  13.881
26743SOL     OW82125  13.475   5.433  11.326
26743SOL    HW182126  13.518   5.361  11.373
26743SOL    HW282127  13.526   5.510  11.348
26744SOL     OW82128   6.564   7.251   3.585
26744SOL    HW182129   6.572   7.330   3.638
26744SOL    HW282130   6.601   7.181   3.639
26745SOL     OW82131  11.357   3.018   9.719
26745SOL    HW182132  11.369   3.089   9.656
26745SOL    HW282133  11.293   3.053   9.781
26746SOL     OW82134   4.883   4.922   7.607
26746SOL    HW182135   4.933   4.874   7.673
26746SOL    HW282136   4.792   4.914   7.637
26747SOL     OW82137   9.097   0.857   6.350
26747SOL    HW182138   9.053   0.773   6.355
26747SOL    HW282139   9.042   0.910   6.292
26748SOL     OW82140  10.088   0.624  12.716
26748SOL    HW182141  10.044   0.633  12.801
26748SOL    HW282142  10.159   0.688  12.720
26749SOL     OW82143   8.075  12.440   9.324
26749SOL    HW182144   8.043  12.500   9.256
26749SOL    HW282145   8.132  12.379   9.277
26750SOL     OW82146   3.988   8.224   5.033
26750SOL    HW182147   3.938   8.143   5.034
26750SOL    HW282148   4.048   8.214   4.959
26751SOL     OW82149   1.466   2.953   5.221
26751SOL    HW182150   1.460   2.894   5.145
26751SOL    HW282151   1.558   2.979   5.223
26752SOL     OW82152   0.426   2.907  12.522
26752SOL    HW182153   0.452   2.980  12.465
26752SOL    HW282154   0.491   2.839  12.505
26753SOL     OW82155   2.271  14.498   0.854
26753SOL    HW182156   2.262  14.545   0.937
26753SOL    HW282157   2.190  14.517   0.807
26754SOL     OW82158  11.054  10.744   9.950
26754SOL    HW182159  10.990  10.815   9.964
26754SOL    HW282160  11.138  10.789   9.940
26755SOL     OW82161   8.633   7.948   5.672
26755SOL    HW182162   8.640   7.902   5.755
26755SOL    HW282163   8.695   8.020   5.680
26756SOL     OW82164  12.339   3.683   2.241
26756SOL    HW182165  12.291   3.765   2.235
26756SOL    HW282166  12.328   3.656   2.333
26757SOL     OW82167  12.713  12.184   3.526
26757SOL    HW182168  12.711  12.204   3.620
26757SOL    HW282169  12.631  12.136   3.511
26758SOL     OW82170   5.666  10.284   1.815
26758SOL    HW182171   5.711  10.253   1.894
26758SOL    HW282172   5.573  10.275   1.835
26759SOL     OW82173  12.940  13.781  10.527
26759SOL    HW182174  13.001  13.842  10.568
26759SOL    HW282175  12.984  13.696  10.531
26760SOL     OW82176  10.970  11.714  10.936
26760SOL    HW182177  11.044  11.670  10.977
26760SOL    HW282178  10.893  11.681  10.982
26761SOL     OW82179  10.218   1.127   5.815
26761SOL    HW182180  10.129   1.145   5.847
26761SOL    HW282181  10.273   1.192   5.858
26762SOL     OW82182  13.229   2.432   2.883
26762SOL    HW182183  13.222   2.341   2.910
26762SOL    HW282184  13.142   2.453   2.848
26763SOL     OW82185   6.881  14.400   4.573
26763SOL    HW182186   6.888  14.480   4.522
26763SOL    HW282187   6.788  14.393   4.595
26764SOL     OW82188   7.767   9.759  10.275
26764SOL    HW182189   7.689   9.742  10.221
26764SOL    HW282190   7.732   9.794  10.357
26765SOL     OW82191   0.842  10.247   7.469
26765SOL    HW182192   0.867  10.334   7.439
26765SOL    HW282193   0.751  10.257   7.499
26766SOL     OW82194   4.751  14.310  11.446
26766SOL    HW182195   4.807  14.240  11.478
26766SOL    HW282196   4.812  14.377  11.415
26767SOL     OW82197  11.835  13.893  10.992
26767SOL    HW182198  11.827  13.981  10.955
26767SOL    HW282199  11.852  13.836  10.917
26768SOL     OW82200   7.462   4.753  10.412
26768SOL    HW182201   7.515   4.824  10.447
26768SOL    HW282202   7.483   4.678  10.468
26769SOL     OW82203  12.999   4.431   0.144
26769SOL    HW182204  12.960   4.406   0.228
26769SOL    HW282205  13.053   4.508   0.164
26770SOL     OW82206   5.869   5.769   0.888
26770SOL    HW182207   5.929   5.768   0.814
26770SOL    HW282208   5.855   5.862   0.906
26771SOL     OW82209   4.750  12.374   8.370
26771SOL    HW182210   4.735  12.289   8.329
26771SOL    HW282211   4.742  12.437   8.298
26772SOL     OW82212  10.936   4.208   6.941
26772SOL    HW182213  10.863   4.201   6.880
26772SOL    HW282214  10.909   4.157   7.018
26773SOL     OW82215  10.270   5.328   3.394
26773SOL    HW182216  10.234   5.244   3.367
26773SOL    HW282217  10.268   5.326   3.490
26774SOL     OW82218   2.428   7.911  12.475
26774SOL    HW182219   2.381   7.974  12.529
26774SOL    HW282220   2.494   7.873  12.534
26775SOL     OW82221   7.739   7.383   1.223
26775SOL    HW182222   7.768   7.463   1.180
26775SOL    HW282223   7.739   7.316   1.155
26776SOL     OW82224   2.665  11.178   1.108
26776SOL    HW182225   2.581  11.222   1.095
26776SOL    HW282226   2.643  11.097   1.154
26777SOL     OW82227   8.678  13.751   0.418
26777SOL    HW182228   8.737  13.806   0.366
26777SOL    HW282229   8.658  13.805   0.495
26778SOL     OW82230  13.311   3.823   3.593
26778SOL    HW182231  13.329   3.814   3.687
26778SOL    HW282232  13.216   3.831   3.587
26779SOL     OW82233   3.030  14.664   5.536
26779SOL    HW182234   3.053  14.680   5.445
26779SOL    HW282235   3.057  14.574   5.552
26780SOL     OW82236   4.652   6.523  11.995
26780SOL    HW182237   4.597   6.600  12.012
26780SOL    HW282238   4.668   6.486  12.081
26781SOL     OW82239   3.156   3.327   3.405
26781SOL    HW182240   3.251   3.333   3.417
26781SOL    HW282241   3.119   3.366   3.485
26782SOL     OW82242  12.611   4.514   6.270
26782SOL    HW182243  12.665   4.571   6.325
26782SOL    HW282244  12.544   4.571   6.235
26783SOL     OW82245   1.889   1.815  14.770
26783SOL    HW182246   1.902   1.729  14.730
26783SOL    HW282247   1.857   1.870  14.698
26784SOL     OW82248   2.216   7.965   0.860
26784SOL    HW182249   2.286   8.028   0.845
26784SOL    HW282250   2.180   7.948   0.773
26785SOL     OW82251   6.492  11.017   6.663
26785SOL    HW182252   6.550  11.090   6.683
26785SOL    HW282253   6.457  10.989   6.748
26786SOL     OW82254   4.079   3.713   7.541
26786SOL    HW182255   4.085   3.751   7.628
26786SOL    HW282256   4.148   3.756   7.491
26787SOL     OW82257   9.191   4.897  13.598
26787SOL    HW182258   9.156   4.957  13.664
26787SOL    HW282259   9.204   4.815  13.645
26788SOL     OW82260   8.996   6.353   1.052
26788SOL    HW182261   9.016   6.261   1.070
26788SOL    HW282262   9.059   6.378   0.985
26789SOL     OW82263  12.671  14.218   2.265
26789SOL    HW182264  12.747  14.259   2.306
26789SOL    HW282265  12.648  14.146   2.322
26790SOL     OW82266   4.213   4.083   6.282
26790SOL    HW182267   4.212   4.016   6.214
26790SOL    HW282268   4.268   4.046   6.351
26791SOL     OW82269   8.569  13.526   8.718
26791SOL    HW182270   8.475  13.523   8.737
26791SOL    HW282271   8.581  13.466   8.645
26792SOL     OW82272   5.079   3.180   1.375
26792SOL    HW182273   5.118   3.171   1.288
26792SOL    HW282274   5.149   3.215   1.430
26793SOL     OW82275  10.076  10.767   2.513
26793SOL    HW182276  10.163  10.796   2.541
26793SOL    HW282277  10.033  10.739   2.593
26794SOL     OW82278  10.074   7.031   8.993
26794SOL    HW182279  10.047   7.101   8.934
26794SOL    HW282280  10.108   6.962   8.936
26795SOL     OW82281  14.748  11.427   8.297
26795SOL    HW182282  14.687  11.353   8.293
26795SOL    HW282283  14.731  11.467   8.383
26796SOL     OW82284   9.337  12.586   2.204
26796SOL    HW182285   9.432  12.598   2.203
26796SOL    HW282286   9.308  12.620   2.120
26797SOL     OW82287  11.665   5.993   5.103
26797SOL    HW182288  11.747   6.042   5.117
26797SOL    HW282289  11.598   6.061   5.096
26798SOL     OW82290  12.407  13.671  13.422
26798SOL    HW182291  12.494  13.650  13.390
26798SOL    HW282292  12.358  13.589  13.414
26799SOL     OW82293  12.590   8.706   5.165
26799SOL    HW182294  12.576   8.777   5.227
26799SOL    HW282295  12.622   8.750   5.086
26800SOL     OW82296   0.357  10.047   0.632
26800SOL    HW182297   0.417   9.975   0.650
26800SOL    HW282298   0.410  10.126   0.642
26801SOL     OW82299  10.866   9.043   0.490
26801SOL    HW182300  10.815   9.009   0.417
26801SOL    HW282301  10.842   8.988   0.565
26802SOL     OW82302  13.847   2.471   3.127
26802SOL    HW182303  13.929   2.426   3.104
26802SOL    HW282304  13.798   2.474   3.045
26803SOL     OW82305   8.539   5.889   9.811
26803SOL    HW182306   8.628   5.878   9.777
26803SOL    HW282307   8.551   5.912   9.903
26804SOL     OW82308   5.009   2.628  11.681
26804SOL    HW182309   5.011   2.721  11.659
26804SOL    HW282310   5.101   2.601  11.680
26805SOL     OW82311  13.664   6.622  11.395
26805SOL    HW182312  13.655   6.565  11.319
26805SOL    HW282313  13.577   6.626  11.433
26806SOL     OW82314  12.676   4.299   8.029
26806SOL    HW182315  12.710   4.220   8.070
26806SOL    HW282316  12.723   4.305   7.946
26807SOL     OW82317   4.614   1.115   5.442
26807SOL    HW182318   4.663   1.072   5.512
26807SOL    HW282319   4.555   1.175   5.487
26808SOL     OW82320  11.126   5.861   1.116
26808SOL    HW182321  11.098   5.952   1.122
26808SOL    HW282322  11.066   5.813   1.174
26809SOL     OW82323  14.489  11.638   9.014
26809SOL    HW182324  14.570  11.686   9.032
26809SOL    HW282325  14.419  11.694   9.047
26810SOL     OW82326   7.518  11.225   6.457
26810SOL    HW182327   7.458  11.273   6.513
26810SOL    HW282328   7.600  11.275   6.461
26811SOL     OW82329   2.552   4.443   1.961
26811SOL    HW182330   2.532   4.534   1.936
26811SOL    HW282331   2.466   4.405   1.982
26812SOL     OW82332   5.911   8.179   0.714
26812SOL    HW182333   5.877   8.119   0.647
26812SOL    HW282334   6.004   8.160   0.718
26813SOL     OW82335   8.106  10.251  10.079
26813SOL    HW182336   8.035  10.315  10.069
26813SOL    HW282337   8.065  10.167  10.061
26814SOL     OW82338  12.702   6.454   3.851
26814SOL    HW182339  12.707   6.417   3.939
26814SOL    HW282340  12.636   6.401   3.806
26815SOL     OW82341  12.473  10.288   6.688
26815SOL    HW182342  12.454  10.243   6.770
26815SOL    HW282343  12.421  10.368   6.691
26816SOL     OW82344   3.244   4.798   0.467
26816SOL    HW182345   3.317   4.856   0.452
26816SOL    HW282346   3.237   4.793   0.563
26817SOL     OW82347   0.265   0.556   7.938
26817SOL    HW182348   0.174   0.582   7.955
26817SOL    HW282349   0.310   0.638   7.918
26818SOL     OW82350  10.468  14.089   2.136
26818SOL    HW182351  10.441  14.181   2.140
26818SOL    HW282352  10.449  14.055   2.223
26819SOL     OW82353   4.041  12.480  12.958
26819SOL    HW182354   4.095  12.481  13.037
26819SOL    HW282355   4.006  12.391  12.954
26820SOL     OW82356  12.539   1.804  11.504
26820SOL    HW182357  12.450   1.823  11.476
26820SOL    HW282358  12.532   1.724  11.556
26821SOL     OW82359  10.947   5.266   1.512
26821SOL    HW182360  10.897   5.246   1.591
26821SOL    HW282361  11.038   5.249   1.536
26822SOL     OW82362   8.237   3.598   0.154
26822SOL    HW182363   8.228   3.641   0.069
26822SOL    HW282364   8.323   3.625   0.185
26823SOL     OW82365   0.880  12.551  10.124
26823SOL    HW182366   0.818  12.587  10.187
26823SOL    HW282367   0.966  12.579  10.155
26824SOL     OW82368   4.763   8.179   7.471
26824SOL    HW182369   4.675   8.148   7.491
26824SOL    HW282370   4.794   8.218   7.553
26825SOL     OW82371   4.510  12.678  13.934
26825SOL    HW182372   4.492  12.724  14.016
26825SOL    HW282373   4.441  12.611  13.929
26826SOL     OW82374  14.393   7.406   4.263
26826SOL    HW182375  14.316   7.358   4.231
26826SOL    HW282376  14.458   7.396   4.194
26827SOL     OW82377  12.454  10.905   6.389
26827SOL    HW182378  12.441  10.949   6.473
26827SOL    HW282379  12.505  10.968   6.337
26828SOL     OW82380   2.627   5.601   0.375
26828SOL    HW182381   2.545   5.635   0.409
26828SOL    HW282382   2.633   5.637   0.287
26829SOL     OW82383  11.663  11.503  12.352
26829SOL    HW182384  11.677  11.590  12.390
26829SOL    HW282385  11.742  11.455  12.373
26830SOL     OW82386   4.722   7.343   0.502
26830SOL    HW182387   4.653   7.290   0.461
26830SOL    HW282388   4.735   7.416   0.442
26831SOL     OW82389   8.168   8.239  13.616
26831SOL    HW182390   8.114   8.286  13.551
26831SOL    HW282391   8.258   8.264  13.594
26832SOL     OW82392  14.761  11.285   6.971
26832SOL    HW182393  14.692  11.279   7.036
26832SOL    HW282394  14.781  11.378   6.965
26833SOL     OW82395  11.064   6.565   2.423
26833SOL    HW182396  11.036   6.547   2.334
26833SOL    HW282397  11.128   6.635   2.415
26834SOL     OW82398   5.549   6.541  10.647
26834SOL    HW182399   5.462   6.503  10.651
26834SOL    HW282400   5.604   6.472  10.610
26835SOL     OW82401   4.256  10.318  13.996
26835SOL    HW182402   4.241  10.233  14.038
26835SOL    HW282403   4.301  10.297  13.915
26836SOL     OW82404   0.012   5.479  10.738
26836SOL    HW182405   0.083   5.542  10.750
26836SOL    HW282406  14.816   5.526  10.685
26837SOL     OW82407   2.672   2.449  10.414
26837SOL    HW182408   2.592   2.495  10.439
26837SOL    HW282409   2.714   2.427  10.497
26838SOL     OW82410  14.153   9.814   6.074
26838SOL    HW182411  14.134   9.762   5.995
26838SOL    HW282412  14.079   9.875   6.080
26839SOL     OW82413  13.954  14.327   8.464
26839SOL    HW182414  14.007  14.400   8.495
26839SOL    HW282415  13.992  14.250   8.507
26840SOL     OW82416   5.528   2.022   9.752
26840SOL    HW182417   5.516   2.017   9.657
26840SOL    HW282418   5.575   1.941   9.774
26841SOL     OW82419   6.217   1.066  12.304
26841SOL    HW182420   6.204   1.025  12.219
26841SOL    HW282421   6.301   1.033  12.335
26842SOL     OW82422   7.067  14.717  10.770
26842SOL    HW182423   7.099  14.790  10.823
26842SOL    HW282424   7.130  14.711  10.698
26843SOL     OW82425   8.137  13.931   3.396
26843SOL    HW182426   8.185  13.948   3.315
26843SOL    HW282427   8.127  13.836   3.399
26844SOL     OW82428   7.932   1.905   7.808
26844SOL    HW182429   8.003   1.969   7.800
26844SOL    HW282430   7.856   1.957   7.836
26845SOL     OW82431  10.620  10.891   1.409
26845SOL    HW182432  10.697  10.837   1.430
26845SOL    HW282433  10.619  10.958   1.477
26846SOL     OW82434  10.745   0.703   8.904
26846SOL    HW182435  10.684   0.733   8.970
26846SOL    HW282436  10.700   0.718   8.821
26847SOL     OW82437   9.136   2.462   3.742
26847SOL    HW182438   9.126   2.556   3.759
26847SOL    HW282439   9.185   2.430   3.817
26848SOL     OW82440   0.004  13.343   4.777
26848SOL    HW182441   0.081  13.387   4.742
26848SOL    HW282442   0.016  13.344   4.872
26849SOL     OW82443   0.149   1.844   2.948
26849SOL    HW182444   0.102   1.917   2.909
26849SOL    HW282445   0.238   1.851   2.912
26850SOL     OW82446   2.593   7.823  13.649
26850SOL    HW182447   2.613   7.888  13.582
26850SOL    HW282448   2.596   7.739  13.604
26851SOL     OW82449  11.699  14.783   0.199
26851SOL    HW182450  11.604  14.778   0.211
26851SOL    HW282451  11.724  14.695   0.172
26852SOL     OW82452   3.569   9.434   0.215
26852SOL    HW182453   3.646   9.475   0.255
26852SOL    HW282454   3.495   9.462   0.269
26853SOL     OW82455   9.071   1.581   8.287
26853SOL    HW182456   8.997   1.616   8.336
26853SOL    HW282457   9.035   1.503   8.243
26854SOL     OW82458   1.096   4.085   2.974
26854SOL    HW182459   1.047   4.050   3.048
26854SOL    HW282460   1.145   4.010   2.940
26855SOL     OW82461   1.213   6.353   7.871
26855SOL    HW182462   1.258   6.368   7.788
26855SOL    HW282463   1.126   6.322   7.845
26856SOL     OW82464  11.584   5.289  12.702
26856SOL    HW182465  11.494   5.300  12.733
26856SOL    HW282466  11.636   5.280  12.782
26857SOL     OW82467   7.670   2.295   0.787
26857SOL    HW182468   7.634   2.206   0.776
26857SOL    HW282469   7.691   2.301   0.880
26858SOL     OW82470   6.311  14.200   0.034
26858SOL    HW182471   6.289  14.264  14.837
26858SOL    HW282472   6.385  14.152  14.868
26859SOL     OW82473   9.989   7.425   4.883
26859SOL    HW182474   9.917   7.485   4.865
26859SOL    HW282475  10.065   7.482   4.895
26860SOL     OW82476   6.370  11.436   4.922
26860SOL    HW182477   6.455  11.467   4.954
26860SOL    HW282478   6.306  11.486   4.973
26861SOL     OW82479   0.225   0.727   7.471
26861SOL    HW182480   0.170   0.784   7.418
26861SOL    HW282481   0.260   0.663   7.409
26862SOL     OW82482   4.198  13.511   9.953
26862SOL    HW182483   4.195  13.588   9.895
26862SOL    HW282484   4.114  13.514   9.999
26863SOL     OW82485   4.778   2.765   0.927
26863SOL    HW182486   4.773   2.711   0.848
26863SOL    HW282487   4.687   2.781   0.951
26864SOL     OW82488   4.564   4.342   5.819
26864SOL    HW182489   4.564   4.263   5.872
26864SOL    HW282490   4.614   4.319   5.741
26865SOL     OW82491  10.281   7.548   5.941
26865SOL    HW182492  10.321   7.461   5.950
26865SOL    HW282493  10.354   7.609   5.957
26866SOL     OW82494   9.248  14.485  10.392
26866SOL    HW182495   9.255  14.532  10.474
26866SOL    HW282496   9.330  14.437  10.385
26867SOL     OW82497  13.997  14.054   5.129
26867SOL    HW182498  13.966  13.966   5.147
26867SOL    HW282499  13.932  14.111   5.170
26868SOL     OW82500   9.507   7.882  12.592
26868SOL    HW182501   9.540   7.893  12.503
26868SOL    HW282502   9.585   7.882  12.647
26869SOL     OW82503   0.643   1.723   4.421
26869SOL    HW182504   0.722   1.742   4.371
26869SOL    HW282505   0.656   1.633   4.452
26870SOL     OW82506   7.576  10.995   0.334
26870SOL    HW182507   7.555  11.060   0.267
26870SOL    HW282508   7.602  10.918   0.285
26871SOL     OW82509   5.727   1.047   8.450
26871SOL    HW182510   5.691   1.035   8.362
26871SOL    HW282511   5.696   1.134   8.477
26872SOL     OW82512  10.121   3.385   9.265
26872SOL    HW182513  10.210   3.367   9.297
26872SOL    HW282514  10.122   3.480   9.248
26873SOL     OW82515   0.520  12.513   1.414
26873SOL    HW182516   0.556  12.601   1.401
26873SOL    HW282517   0.523  12.500   1.509
26874SOL     OW82518   1.317  12.058   3.555
26874SOL    HW182519   1.303  12.149   3.529
26874SOL    HW282520   1.266  12.048   3.635
26875SOL     OW82521  13.249   3.980  11.192
26875SOL    HW182522  13.323   4.039  11.208
26875SOL    HW282523  13.283   3.893  11.213
26876SOL     OW82524   8.972   1.960  11.066
26876SOL    HW182525   8.986   1.979  10.973
26876SOL    HW282526   9.054   1.985  11.109
26877SOL     OW82527   3.266   5.431   0.051
26877SOL    HW182528   3.184   5.388   0.076
26877SOL    HW282529   3.319   5.361   0.014
26878SOL     OW82530   0.521   3.471   0.368
26878SOL    HW182531   0.542   3.536   0.434
26878SOL    HW282532   0.436   3.436   0.395
26879SOL     OW82533   1.500   4.894  10.016
26879SOL    HW182534   1.501   4.815   9.962
26879SOL    HW282535   1.409   4.923  10.016
26880SOL     OW82536   6.433   8.813   6.103
26880SOL    HW182537   6.494   8.829   6.031
26880SOL    HW282538   6.490   8.789   6.177
26881SOL     OW82539  12.884  10.205   8.267
26881SOL    HW182540  12.904  10.205   8.360
26881SOL    HW282541  12.838  10.288   8.252
26882SOL     OW82542   7.846   9.813  14.652
26882SOL    HW182543   7.835   9.823  14.558
26882SOL    HW282544   7.760   9.787  14.684
26883SOL     OW82545  12.793   9.407  13.776
26883SOL    HW182546  12.744   9.364  13.706
26883SOL    HW282547  12.876   9.432  13.735
26884SOL     OW82548   3.767   2.458   8.271
26884SOL    HW182549   3.817   2.389   8.227
26884SOL    HW282550   3.677   2.446   8.239
26885SOL     OW82551  12.631   9.176  11.730
26885SOL    HW182552  12.580   9.255  11.713
26885SOL    HW282553  12.682   9.196  11.808
26886SOL     OW82554   0.553   3.790  11.338
26886SOL    HW182555   0.506   3.843  11.273
26886SOL    HW282556   0.508   3.706  11.336
26887SOL     OW82557   2.154  14.258   7.552
26887SOL    HW182558   2.189  14.280   7.639
26887SOL    HW282559   2.156  14.163   7.548
26888SOL     OW82560   2.345  11.568  12.334
26888SOL    HW182561   2.373  11.495  12.279
26888SOL    HW282562   2.313  11.634  12.273
26889SOL     OW82563   1.240   9.505  12.812
26889SOL    HW182564   1.222   9.446  12.739
26889SOL    HW282565   1.260   9.589  12.771
26890SOL     OW82566   4.965  12.090   7.011
26890SOL    HW182567   4.880  12.131   6.990
26890SOL    HW282568   5.001  12.145   7.080
26891SOL     OW82569   6.241   1.092   9.779
26891SOL    HW182570   6.204   1.005   9.795
26891SOL    HW282571   6.336   1.080   9.785
26892SOL     OW82572   1.200   2.061   9.854
26892SOL    HW182573   1.185   2.121   9.781
26892SOL    HW282574   1.236   1.983   9.814
26893SOL     OW82575  12.892   4.229   1.059
26893SOL    HW182576  12.821   4.218   0.996
26893SOL    HW282577  12.968   4.253   1.006
26894SOL     OW82578   8.643  11.764  13.623
26894SOL    HW182579   8.641  11.804  13.710
26894SOL    HW282580   8.618  11.835  13.564
26895SOL     OW82581   0.760  11.248   0.539
26895SOL    HW182582   0.798  11.325   0.495
26895SOL    HW282583   0.709  11.204   0.470
26896SOL     OW82584   2.701   0.861   0.275
26896SOL    HW182585   2.721   0.804   0.349
26896SOL    HW282586   2.780   0.860   0.222
26897SOL     OW82587  12.664   5.823   3.571
26897SOL    HW182588  12.656   5.800   3.664
26897SOL    HW282589  12.592   5.884   3.556
26898SOL     OW82590   6.805  12.353   9.687
26898SOL    HW182591   6.849  12.407   9.622
26898SOL    HW282592   6.795  12.268   9.644
26899SOL     OW82593   4.009  13.449  12.313
26899SOL    HW182594   4.062  13.505  12.257
26899SOL    HW282595   3.941  13.414  12.255
26900SOL     OW82596  12.977   6.510  10.548
26900SOL    HW182597  12.882   6.523  10.545
26900SOL    HW282598  13.013   6.599  10.544
26901SOL     OW82599   1.894   7.985   5.416
26901SOL    HW182600   1.982   8.022   5.409
26901SOL    HW282601   1.836   8.061   5.417
26902SOL     OW82602   1.792   3.489   4.352
26902SOL    HW182603   1.735   3.412   4.353
26902SOL    HW282604   1.766   3.538   4.430
26903SOL     OW82605   2.339  14.318   1.517
26903SOL    HW182606   2.375  14.404   1.494
26903SOL    HW282607   2.399  14.255   1.476
26904SOL     OW82608   4.526   8.027   7.524
26904SOL    HW182609   4.447   7.973   7.529
26904SOL    HW282610   4.597   7.964   7.514
26905SOL     OW82611   7.388   2.400   4.789
26905SOL    HW182612   7.389   2.367   4.879
26905SOL    HW282613   7.449   2.473   4.790
26906SOL     OW82614   4.826  12.721  14.747
26906SOL    HW182615   4.917  12.705  14.721
26906SOL    HW282616   4.832  12.749  14.838
26907SOL     OW82617   9.556  14.817   1.536
26907SOL    HW182618   9.629  14.756   1.530
26907SOL    HW282619   9.561  14.869   1.456
26908SOL     OW82620   0.006  12.722   9.139
26908SOL    HW182621   0.045  12.761   9.062
26908SOL    HW282622   0.001  12.628   9.119
26909SOL     OW82623   0.154   8.960  14.362
26909SOL    HW182624   0.181   8.951  14.271
26909SOL    HW282625   0.100   9.039  14.364
26910SOL     OW82626   4.604   0.160  12.574
26910SOL    HW182627   4.574   0.204  12.495
26910SOL    HW282628   4.700   0.165  12.569
26911SOL     OW82629   8.832   2.602   0.248
26911SOL    HW182630   8.875   2.650   0.319
26911SOL    HW282631   8.797   2.523   0.291
26912SOL     OW82632   8.122   8.932  12.094
26912SOL    HW182633   8.085   8.907  12.010
26912SOL    HW282634   8.212   8.901  12.091
26913SOL     OW82635   8.817   2.507  10.171
26913SOL    HW182636   8.785   2.569  10.106
26913SOL    HW282637   8.768   2.426  10.154
26914SOL     OW82638   4.357   7.661   7.683
26914SOL    HW182639   4.339   7.728   7.617
26914SOL    HW282640   4.428   7.698   7.736
26915SOL     OW82641   4.693  12.260   5.445
26915SOL    HW182642   4.728  12.171   5.445
26915SOL    HW282643   4.602  12.251   5.472
26916SOL     OW82644   4.459   8.143  11.926
26916SOL    HW182645   4.505   8.072  11.881
26916SOL    HW282646   4.477   8.128  12.019
26917SOL     OW82647   4.662   6.400  11.682
26917SOL    HW182648   4.660   6.495  11.682
26917SOL    HW282649   4.684   6.376  11.771
26918SOL     OW82650   5.397   4.692   2.011
26918SOL    HW182651   5.378   4.608   2.052
26918SOL    HW282652   5.331   4.702   1.943
26919SOL     OW82653   7.200   4.124   0.384
26919SOL    HW182654   7.293   4.142   0.370
26919SOL    HW282655   7.163   4.208   0.410
26920SOL     OW82656   3.990  12.435   0.071
26920SOL    HW182657   3.904  12.466   0.044
26920SOL    HW282658   3.998  12.349   0.030
26921SOL     OW82659  13.774   8.508   1.436
26921SOL    HW182660  13.822   8.425   1.436
26921SOL    HW282661  13.714   8.502   1.510
26922SOL     OW82662   9.043   3.416   7.122
26922SOL    HW182663   9.125   3.367   7.128
26922SOL    HW282664   9.059   3.482   7.055
26923SOL     OW82665  13.565  14.627   9.527
26923SOL    HW182666  13.487  14.669   9.563
26923SOL    HW282667  13.567  14.540   9.567
26924SOL     OW82668   2.329   5.728   6.319
26924SOL    HW182669   2.292   5.758   6.236
26924SOL    HW282670   2.262   5.670   6.356
26925SOL     OW82671   9.310   3.921   4.024
26925SOL    HW182672   9.384   3.970   4.061
26925SOL    HW282673   9.278   3.867   4.095
26926SOL     OW82674   6.340  12.396  14.158
26926SOL    HW182675   6.361  12.331  14.092
26926SOL    HW282676   6.280  12.457  14.114
26927SOL     OW82677  14.866  12.031   9.166
26927SOL    HW182678  14.858  11.957   9.225
26927SOL    HW282679   0.087  12.029   9.137
26928SOL     OW82680   0.195   2.042   7.744
26928SOL    HW182681   0.142   1.965   7.766
26928SOL    HW282682   0.130   2.112   7.732
26929SOL     OW82683   0.063   6.314   5.889
26929SOL    HW182684   0.108   6.313   5.804
26929SOL    HW282685   0.133   6.302   5.953
26930SOL     OW82686   4.243   6.318   0.880
26930SOL    HW182687   4.292   6.276   0.809
26930SOL    HW282688   4.170   6.258   0.898
26931SOL     OW82689   0.109  11.506   7.690
26931SOL    HW182690   0.173  11.539   7.626
26931SOL    HW282691   0.064  11.436   7.644
26932SOL     OW82692  13.884   9.891   2.818
26932SOL    HW182693  13.899   9.942   2.898
26932SOL    HW282694  13.926   9.807   2.833
26933SOL     OW82695   7.118  14.092   0.211
26933SOL    HW182696   7.070  14.012   0.231
26933SOL    HW282697   7.050  14.159   0.206
26934SOL     OW82698   7.492  13.314   5.741
26934SOL    HW182699   7.510  13.282   5.653
26934SOL    HW282700   7.556  13.384   5.754
26935SOL     OW82701   8.230   3.436   7.271
26935SOL    HW182702   8.177   3.470   7.344
26935SOL    HW282703   8.308   3.401   7.313
26936SOL     OW82704  11.604   7.173   0.061
26936SOL    HW182705  11.627   7.083   0.036
26936SOL    HW282706  11.601   7.170   0.157
26937SOL     OW82707  14.115   1.975   8.783
26937SOL    HW182708  14.204   1.948   8.802
26937SOL    HW282709  14.061   1.899   8.807
26938SOL     OW82710   1.266  11.299   0.561
26938SOL    HW182711   1.246  11.347   0.481
26938SOL    HW282712   1.240  11.208   0.542
26939SOL     OW82713   6.155   3.569  11.766
26939SOL    HW182714   6.112   3.641  11.720
26939SOL    HW282715   6.111   3.565  11.851
26940SOL     OW82716   1.508  13.133   0.197
26940SOL    HW182717   1.452  13.089   0.132
26940SOL    HW282718   1.486  13.226   0.189
26941SOL     OW82719   5.807   2.514   4.645
26941SOL    HW182720   5.777   2.531   4.735
26941SOL    HW282721   5.749   2.444   4.614
26942SOL     OW82722   1.228  11.375  11.750
26942SOL    HW182723   1.136  11.388  11.727
26942SOL    HW282724   1.263  11.463  11.764
26943SOL     OW82725   1.047   9.182   0.938
26943SOL    HW182726   1.023   9.239   1.011
26943SOL    HW282727   1.126   9.221   0.902
26944SOL     OW82728   4.914   5.925  11.269
26944SOL    HW182729   4.859   5.851  11.296
26944SOL    HW282730   4.912   5.985  11.343
26945SOL     OW82731   1.728   1.334   5.580
26945SOL    HW182732   1.733   1.379   5.496
26945SOL    HW282733   1.634   1.326   5.598
26946SOL     OW82734   0.971  12.563  11.856
26946SOL    HW182735   0.915  12.587  11.929
26946SOL    HW282736   0.918  12.580  11.778
26947SOL     OW82737  10.267   1.427   8.009
26947SOL    HW182738  10.206   1.484   7.962
26947SOL    HW282739  10.233   1.424   8.098
26948SOL     OW82740   2.642   8.960   8.198
26948SOL    HW182741   2.712   8.924   8.144
26948SOL    HW282742   2.580   8.998   8.135
26949SOL     OW82743   7.236  14.865   0.820
26949SOL    HW182744   7.168   0.056   0.794
26949SOL    HW282745   7.191  14.781   0.833
26950SOL     OW82746   3.855   5.713   7.145
26950SOL    HW182747   3.790   5.680   7.207
26950SOL    HW282748   3.886   5.636   7.099
26951SOL     OW82749   8.686   8.017  14.433
26951SOL    HW182750   8.599   8.035  14.468
26951SOL    HW282751   8.732   7.975  14.506
26952SOL     OW82752  13.124  14.753   3.500
26952SOL    HW182753  13.151  14.844   3.515
26952SOL    HW282754  13.181  14.723   3.429
26953SOL     OW82755  11.828   3.503  12.445
26953SOL    HW182756  11.754   3.563  12.456
26953SOL    HW282757  11.904   3.560  12.438
26954SOL     OW82758   8.109   2.477  13.989
26954SOL    HW182759   8.168   2.552  14.003
26954SOL    HW282760   8.119   2.425  14.069
26955SOL     OW82761  13.584   7.622   9.009
26955SOL    HW182762  13.511   7.561   9.000
26955SOL    HW282763  13.641   7.582   9.075
26956SOL     OW82764   1.764   6.053  13.155
26956SOL    HW182765   1.798   5.967  13.130
26956SOL    HW282766   1.747   6.097  13.071
26957SOL     OW82767   2.681   9.118   8.422
26957SOL    HW182768   2.602   9.169   8.438
26957SOL    HW282769   2.672   9.087   8.331
26958SOL     OW82770  11.034   9.349  14.592
26958SOL    HW182771  11.063   9.440  14.596
26958SOL    HW282772  11.104   9.304  14.544
26959SOL     OW82773  11.631   5.470   2.711
26959SOL    HW182774  11.623   5.436   2.622
26959SOL    HW282775  11.608   5.396   2.768
26960SOL     OW82776   2.790   2.995   7.364
26960SOL    HW182777   2.793   3.065   7.429
26960SOL    HW282778   2.872   2.947   7.376
26961SOL     OW82779   1.574   3.711   2.351
26961SOL    HW182780   1.646   3.767   2.379
26961SOL    HW282781   1.565   3.646   2.420
26962SOL     OW82782   7.104   1.615   3.735
26962SOL    HW182783   7.096   1.521   3.718
26962SOL    HW282784   7.111   1.655   3.649
26963SOL     OW82785   1.870   8.735  14.584
26963SOL    HW182786   1.912   8.656  14.617
26963SOL    HW282787   1.805   8.758  14.650
26964SOL     OW82788   1.125   5.017  11.693
26964SOL    HW182789   1.180   5.056  11.625
26964SOL    HW282790   1.187   4.984  11.758
26965SOL     OW82791   8.406  13.991   1.861
26965SOL    HW182792   8.426  13.901   1.887
26965SOL    HW282793   8.396  13.987   1.766
26966SOL     OW82794   5.947   6.571   3.134
26966SOL    HW182795   5.898   6.653   3.137
26966SOL    HW282796   5.943   6.538   3.224
26967SOL     OW82797  10.388   9.562  14.673
26967SOL    HW182798  10.467   9.568  14.728
26967SOL    HW282799  10.318   9.542  14.735
26968SOL     OW82800   5.562   3.256   6.443
26968SOL    HW182801   5.572   3.170   6.402
26968SOL    HW282802   5.472   3.256   6.477
26969SOL     OW82803   6.246   2.507   3.910
26969SOL    HW182804   6.251   2.413   3.930
26969SOL    HW282805   6.169   2.538   3.956
26970SOL     OW82806   3.879   3.303   7.388
26970SOL    HW182807   3.964   3.307   7.431
26970SOL    HW282808   3.899   3.286   7.296
26971SOL     OW82809   4.422   0.809  13.530
26971SOL    HW182810   4.456   0.743  13.470
26971SOL    HW282811   4.348   0.848  13.483
26972SOL     OW82812   6.342   6.843   2.373
26972SOL    HW182813   6.381   6.920   2.415
26972SOL    HW282814   6.387   6.769   2.414
26973SOL     OW82815   5.802   0.453  11.009
26973SOL    HW182816   5.707   0.454  10.995
26973SOL    HW282817   5.821   0.535  11.054
26974SOL     OW82818   9.825   7.046   9.249
26974SOL    HW182819   9.808   7.012   9.161
26974SOL    HW282820   9.835   6.967   9.303
26975SOL     OW82821   8.477   1.561  13.856
26975SOL    HW182822   8.432   1.476  13.853
26975SOL    HW282823   8.409   1.622  13.886
26976SOL     OW82824   5.207   6.832  14.363
26976SOL    HW182825   5.194   6.873  14.449
26976SOL    HW282826   5.287   6.872  14.329
26977SOL     OW82827  11.125   4.164  10.416
26977SOL    HW182828  11.121   4.077  10.455
26977SOL    HW282829  11.177   4.216  10.477
26978SOL     OW82830  11.363  10.188   7.806
26978SOL    HW182831  11.368  10.255   7.737
26978SOL    HW282832  11.400  10.109   7.765
26979SOL     OW82833   5.950  10.997   3.908
26979SOL    HW182834   5.928  10.935   3.977
26979SOL    HW282835   5.920  11.082   3.940
26980SOL     OW82836   4.154  14.530  14.416
26980SOL    HW182837   4.179  14.621  14.400
26980SOL    HW282838   4.085  14.512  14.352
26981SOL     OW82839   7.719   7.056   2.763
26981SOL    HW182840   7.645   7.057   2.823
26981SOL    HW282841   7.748   7.148   2.760
26982SOL     OW82842   8.718  13.915   4.758
26982SOL    HW182843   8.796  13.865   4.783
26982SOL    HW282844   8.669  13.924   4.840
26983SOL     OW82845   3.425   6.236  11.840
26983SOL    HW182846   3.409   6.325  11.869
26983SOL    HW282847   3.457   6.191  11.918
26984SOL     OW82848   4.712   3.673   2.920
26984SOL    HW182849   4.674   3.591   2.953
26984SOL    HW282850   4.698   3.669   2.826
26985SOL     OW82851  10.351   7.013   0.996
26985SOL    HW182852  10.307   6.962   1.064
26985SOL    HW282853  10.438   7.031   1.032
26986SOL     OW82854   8.088   6.628  11.578
26986SOL    HW182855   7.997   6.610  11.557
26986SOL    HW282856   8.120   6.547  11.618
26987SOL     OW82857   0.653   2.696   8.492
26987SOL    HW182858   0.641   2.603   8.511
26987SOL    HW282859   0.564   2.729   8.483
26988SOL     OW82860   0.334   4.763   3.476
26988SOL    HW182861   0.288   4.844   3.455
26988SOL    HW282862   0.273   4.693   3.452
26989SOL     OW82863  14.654   4.915  10.030
26989SOL    HW182864  14.715   4.863   9.977
26989SOL    HW282865  14.700   4.997  10.046
26990SOL     OW82866   9.877  13.914   8.275
26990SOL    HW182867   9.800  13.951   8.318
26990SOL    HW282868   9.867  13.819   8.285
26991SOL     OW82869   1.304   5.198   2.630
26991SOL    HW182870   1.246   5.193   2.554
26991SOL    HW282871   1.288   5.285   2.666
26992SOL     OW82872   9.316  13.501  10.295
26992SOL    HW182873   9.330  13.477  10.203
26992SOL    HW282874   9.245  13.443  10.324
26993SOL     OW82875   2.387   8.838   4.685
26993SOL    HW182876   2.446   8.885   4.744
26993SOL    HW282877   2.432   8.840   4.600
26994SOL     OW82878   3.866  10.667   1.748
26994SOL    HW182879   3.924  10.672   1.824
26994SOL    HW282880   3.922  10.637   1.677
26995SOL     OW82881  11.180   7.808  13.150
26995SOL    HW182882  11.255   7.866  13.142
26995SOL    HW282883  11.179   7.758  13.069
26996SOL     OW82884  10.991   4.489  12.452
26996SOL    HW182885  11.047   4.554  12.494
26996SOL    HW282886  11.031   4.476  12.366
26997SOL     OW82887  13.729   4.009   9.574
26997SOL    HW182888  13.688   4.007   9.488
26997SOL    HW282889  13.659   4.036   9.633
26998SOL     OW82890   3.774   5.765   9.418
26998SOL    HW182891   3.694   5.725   9.455
26998SOL    HW282892   3.742   5.840   9.369
26999SOL     OW82893   1.826   7.914  11.230
26999SOL    HW182894   1.793   7.843  11.286
26999SOL    HW282895   1.802   7.994  11.276
27000SOL     OW82896  11.917   3.688  10.179
27000SOL    HW182897  11.997   3.660  10.224
27000SOL    HW282898  11.868   3.736  10.245
27001SOL     OW82899   2.238   9.630   9.993
27001SOL    HW182900   2.151   9.641  10.033
27001SOL    HW282901   2.220   9.603   9.904
27002SOL     OW82902   1.339  12.140   9.090
27002SOL    HW182903   1.272  12.158   9.025
27002SOL    HW282904   1.418  12.120   9.040
27003SOL     OW82905   8.961   8.374   1.162
27003SOL    HW182906   9.018   8.441   1.124
27003SOL    HW282907   9.021   8.318   1.212
27004SOL     OW82908  13.033   8.447  14.150
27004SOL    HW182909  12.988   8.393  14.215
27004SOL    HW282910  13.123   8.416  14.151
27005SOL     OW82911   3.602  13.825  10.584
27005SOL    HW182912   3.671  13.886  10.558
27005SOL    HW282913   3.585  13.772  10.507
27006SOL     OW82914   0.197   4.653  11.121
27006SOL    HW182915   0.248   4.672  11.042
27006SOL    HW282916   0.173   4.561  11.112
27007SOL     OW82917   3.162  10.240   5.659
27007SOL    HW182918   3.159  10.331   5.688
27007SOL    HW282919   3.156  10.245   5.563
27008SOL     OW82920  11.531  12.447  11.030
27008SOL    HW182921  11.478  12.478  11.103
27008SOL    HW282922  11.601  12.396  11.071
27009SOL     OW82923   6.225   7.333   6.241
27009SOL    HW182924   6.212   7.377   6.157
27009SOL    HW282925   6.220   7.240   6.219
27010SOL     OW82926  11.128   6.891  14.126
27010SOL    HW182927  11.060   6.823  14.125
27010SOL    HW282928  11.158   6.895  14.035
27011SOL     OW82929   2.945  12.454   1.811
27011SOL    HW182930   3.017  12.504   1.847
27011SOL    HW282931   2.916  12.505   1.735
27012SOL     OW82932  10.750   3.866  13.059
27012SOL    HW182933  10.694   3.836  12.988
27012SOL    HW282934  10.802   3.937  13.021
27013SOL     OW82935   3.656   3.146   1.708
27013SOL    HW182936   3.621   3.126   1.621
27013SOL    HW282937   3.579   3.167   1.761
27014SOL     OW82938   3.229   2.257   4.076
27014SOL    HW182939   3.171   2.224   4.144
27014SOL    HW282940   3.172   2.271   4.000
27015SOL     OW82941  10.849   9.566  10.991
27015SOL    HW182942  10.764   9.581  10.950
27015SOL    HW282943  10.909   9.553  10.918
27016SOL     OW82944   8.354   2.644   5.984
27016SOL    HW182945   8.422   2.600   6.036
27016SOL    HW282946   8.323   2.577   5.923
27017SOL     OW82947  11.569   5.193   4.457
27017SOL    HW182948  11.651   5.145   4.455
27017SOL    HW282949  11.589   5.279   4.421
27018SOL     OW82950  14.454   8.302  11.911
27018SOL    HW182951  14.492   8.234  11.855
27018SOL    HW282952  14.360   8.292  11.899
27019SOL     OW82953   3.233  12.288   3.953
27019SOL    HW182954   3.267  12.200   3.972
27019SOL    HW282955   3.213  12.325   4.039
27020SOL     OW82956   3.209   4.732  11.099
27020SOL    HW182957   3.228   4.639  11.095
27020SOL    HW282958   3.154   4.743  11.176
27021SOL     OW82959  10.413  10.357  11.278
27021SOL    HW182960  10.397  10.268  11.307
27021SOL    HW282961  10.464  10.347  11.198
27022SOL     OW82962   1.914   5.692   4.890
27022SOL    HW182963   1.856   5.739   4.831
27022SOL    HW282964   1.855   5.650   4.953
27023SOL     OW82965  10.896  12.516  11.152
27023SOL    HW182966  10.964  12.520  11.084
27023SOL    HW282967  10.906  12.597  11.201
27024SOL     OW82968  12.601   1.464   7.793
27024SOL    HW182969  12.690   1.465   7.829
27024SOL    HW282970  12.554   1.403   7.850
27025SOL     OW82971  13.771   0.151  13.736
27025SOL    HW182972  13.811   0.161  13.650
27025SOL    HW282973  13.677   0.144  13.719
27026SOL     OW82974  14.825   0.312   0.664
27026SOL    HW182975  14.774   0.234   0.686
27026SOL    HW282976   0.017   0.283   0.597
27027SOL     OW82977   4.684   4.116   8.809
27027SOL    HW182978   4.656   4.207   8.804
27027SOL    HW282979   4.660   4.089   8.898
27028SOL     OW82980   1.950  10.800   2.317
27028SOL    HW182981   1.946  10.873   2.255
27028SOL    HW282982   1.981  10.839   2.399
27029SOL     OW82983   7.931   0.198   4.856
27029SOL    HW182984   7.975   0.245   4.928
27029SOL    HW282985   7.852   0.248   4.840
27030SOL     OW82986  12.255  14.010  14.511
27030SOL    HW182987  12.342  14.022  14.473
27030SOL    HW282988  12.272  13.982  14.601
27031SOL     OW82989   9.353  13.384   3.582
27031SOL    HW182990   9.381  13.329   3.509
27031SOL    HW282991   9.434  13.418   3.620
27032SOL     OW82992   5.581   0.152   9.570
27032SOL    HW182993   5.573   0.227   9.510
27032SOL    HW282994   5.606   0.079   9.513
27033SOL     OW82995   8.929  11.090   6.624
27033SOL    HW182996   8.903  11.137   6.545
27033SOL    HW282997   8.854  11.035   6.645
27034SOL     OW82998   5.636   6.205  10.183
27034SOL    HW182999   5.601   6.250  10.106
27034SOL    HW283000   5.613   6.262  10.256
27035SOL     OW83001   4.206   7.436   1.958
27035SOL    HW183002   4.180   7.356   2.004
27035SOL    HW283003   4.295   7.419   1.929
27036SOL     OW83004  13.687  12.994  14.119
27036SOL    HW183005  13.747  12.935  14.073
27036SOL    HW283006  13.674  12.953  14.204
27037SOL     OW83007   2.272  12.541   0.653
27037SOL    HW183008   2.260  12.507   0.564
27037SOL    HW283009   2.367  12.548   0.663
27038SOL     OW83010   0.033   6.244  13.077
27038SOL    HW183011  14.809   6.231  13.066
27038SOL    HW283012   0.040   6.329  13.121
27039SOL     OW83013  14.623  13.972   4.989
27039SOL    HW183014  14.600  13.987   5.081
27039SOL    HW283015  14.567  13.900   4.962
27040SOL     OW83016  10.247   5.273   0.052
27040SOL    HW183017  10.257   5.198  14.862
27040SOL    HW283018  10.336   5.293   0.080
27041SOL     OW83019   8.419   2.734  12.761
27041SOL    HW183020   8.358   2.730  12.688
27041SOL    HW283021   8.378   2.681  12.829
27042SOL     OW83022   1.656   7.606   3.148
27042SOL    HW183023   1.645   7.577   3.058
27042SOL    HW283024   1.698   7.692   3.141
27043SOL     OW83025   2.660   6.811   2.667
27043SOL    HW183026   2.705   6.893   2.684
27043SOL    HW283027   2.671   6.796   2.573
27044SOL     OW83028  10.391  10.089   4.651
27044SOL    HW183029  10.311  10.106   4.601
27044SOL    HW283030  10.368  10.015   4.708
27045SOL     OW83031   3.862   3.987   2.450
27045SOL    HW183032   3.945   3.947   2.476
27045SOL    HW283033   3.843   4.050   2.520
27046SOL     OW83034   7.231  13.081   1.542
27046SOL    HW183035   7.203  12.991   1.524
27046SOL    HW283036   7.268  13.111   1.459
27047SOL     OW83037   0.016   5.033  10.431
27047SOL    HW183038   0.028   4.987  10.514
27047SOL    HW283039  14.806   5.084  10.443
27048SOL     OW83040   9.321   7.765  11.570
27048SOL    HW183041   9.399   7.761  11.514
27048SOL    HW283042   9.351   7.807  11.651
27049SOL     OW83043   2.184   3.341   0.479
27049SOL    HW183044   2.232   3.290   0.413
27049SOL    HW283045   2.252   3.390   0.526
27050SOL     OW83046  12.655   2.418   9.043
27050SOL    HW183047  12.578   2.451   8.997
27050SOL    HW283048  12.729   2.457   8.997
27051SOL     OW83049   9.263  14.555  11.700
27051SOL    HW183050   9.214  14.547  11.618
27051SOL    HW283051   9.271  14.650  11.713
27052SOL     OW83052  11.182   6.562  13.458
27052SOL    HW183053  11.202   6.495  13.392
27052SOL    HW283054  11.197   6.645  13.413
27053SOL     OW83055  14.264   2.403  14.493
27053SOL    HW183056  14.349   2.365  14.514
27053SOL    HW283057  14.238   2.450  14.572
27054SOL     OW83058  13.369   0.457  13.185
27054SOL    HW183059  13.321   0.379  13.214
27054SOL    HW283060  13.420   0.428  13.110
27055SOL     OW83061  11.171   0.694  10.488
27055SOL    HW183062  11.174   0.636  10.412
27055SOL    HW283063  11.205   0.778  10.457
27056SOL     OW83064   9.418  11.355   3.060
27056SOL    HW183065   9.412  11.349   2.965
27056SOL    HW283066   9.463  11.275   3.087
27057SOL     OW83067  10.577   4.372   6.697
27057SOL    HW183068  10.629   4.300   6.733
27057SOL    HW283069  10.594   4.370   6.603
27058SOL     OW83070   8.746   8.453   3.606
27058SOL    HW183071   8.823   8.414   3.563
27058SOL    HW283072   8.671   8.420   3.556
27059SOL     OW83073  14.581  13.747  11.878
27059SOL    HW183074  14.648  13.680  11.863
27059SOL    HW283075  14.527  13.711  11.948
27060SOL     OW83076  13.055   9.839  12.163
27060SOL    HW183077  13.118   9.884  12.219
27060SOL    HW283078  13.064   9.880  12.078
27061SOL     OW83079  10.027   8.573  12.429
27061SOL    HW183080   9.979   8.595  12.350
27061SOL    HW283081   9.959   8.560  12.495
27062SOL     OW83082   4.945   1.727   6.016
27062SOL    HW183083   4.979   1.815   6.001
27062SOL    HW283084   4.997   1.692   6.088
27063SOL     OW83085  10.537   7.487  14.274
27063SOL    HW183086  10.444   7.497  14.251
27063SOL    HW283087  10.582   7.550  14.219
27064SOL     OW83088   5.201   4.454   0.320
27064SOL    HW183089   5.279   4.486   0.275
27064SOL    HW283090   5.199   4.360   0.301
27065SOL     OW83091  14.799   8.601  12.750
27065SOL    HW183092  14.729   8.605  12.685
27065SOL    HW283093  14.754   8.614  12.833
27066SOL     OW83094  12.837  13.036   2.464
27066SOL    HW183095  12.884  13.113   2.494
27066SOL    HW283096  12.894  12.998   2.396
27067SOL     OW83097  10.321   5.080   3.106
27067SOL    HW183098  10.367   5.161   3.087
27067SOL    HW283099  10.229   5.098   3.084
27068SOL     OW83100   5.939  11.785   5.906
27068SOL    HW183101   5.883  11.843   5.958
27068SOL    HW283102   5.915  11.803   5.815
27069SOL     OW83103   5.406   6.090  11.965
27069SOL    HW183104   5.419   6.157  11.898
27069SOL    HW283105   5.325   6.045  11.939
27070SOL     OW83106  10.184   7.482  12.347
27070SOL    HW183107  10.250   7.550  12.361
27070SOL    HW283108  10.234   7.403  12.328
27071SOL     OW83109  13.657   5.813   9.594
27071SOL    HW183110  13.719   5.824   9.522
27071SOL    HW283111  13.607   5.895   9.596
27072SOL     OW83112   6.451   9.385   2.412
27072SOL    HW183113   6.483   9.400   2.501
27072SOL    HW283114   6.358   9.409   2.416
27073SOL     OW83115   6.024   8.610   2.798
27073SOL    HW183116   5.934   8.641   2.810
27073SOL    HW283117   6.028   8.584   2.706
27074SOL     OW83118   3.964   7.120   1.759
27074SOL    HW183119   4.056   7.109   1.735
27074SOL    HW283120   3.925   7.034   1.748
27075SOL     OW83121  13.959   3.002   9.521
27075SOL    HW183122  14.027   3.031   9.583
27075SOL    HW283123  14.008   2.966   9.447
27076SOL     OW83124   3.822   7.367   2.495
27076SOL    HW183125   3.906   7.338   2.530
27076SOL    HW283126   3.833   7.364   2.400
27077SOL     OW83127  13.770  11.918   4.261
27077SOL    HW183128  13.776  11.865   4.181
27077SOL    HW283129  13.857  11.957   4.270
27078SOL     OW83130   5.052   4.615   5.649
27078SOL    HW183131   5.130   4.614   5.593
27078SOL    HW283132   5.010   4.699   5.629
27079SOL     OW83133   8.562   2.708   6.450
27079SOL    HW183134   8.633   2.763   6.416
27079SOL    HW283135   8.601   2.661   6.523
27080SOL     OW83136  13.119  12.053   6.961
27080SOL    HW183137  13.213  12.042   6.946
27080SOL    HW283138  13.096  12.131   6.911
27081SOL     OW83139   8.208   6.210   8.858
27081SOL    HW183140   8.300   6.221   8.881
27081SOL    HW283141   8.182   6.128   8.901
27082SOL     OW83142   7.338   6.017  12.894
27082SOL    HW183143   7.251   6.000  12.930
27082SOL    HW283144   7.328   6.006  12.800
27083SOL     OW83145  13.500   8.115   9.247
27083SOL    HW183146  13.567   8.155   9.302
27083SOL    HW283147  13.520   8.021   9.248
27084SOL     OW83148  10.814   9.722   4.274
27084SOL    HW183149  10.812   9.693   4.365
27084SOL    HW283150  10.836   9.643   4.225
27085SOL     OW83151  13.826   0.120  10.506
27085SOL    HW183152  13.860   0.167  10.430
27085SOL    HW283153  13.904   0.098  10.558
27086SOL     OW83154   5.812  14.600   9.275
27086SOL    HW183155   5.846  14.671   9.329
27086SOL    HW283156   5.882  14.535   9.273
27087SOL     OW83157   7.079   6.639   5.230
27087SOL    HW183158   7.173   6.652   5.212
27087SOL    HW283159   7.064   6.685   5.313
27088SOL     OW83160  10.085   2.786  12.504
27088SOL    HW183161  10.092   2.844  12.428
27088SOL    HW283162  10.165   2.802  12.555
27089SOL     OW83163   2.360  13.349   6.135
27089SOL    HW183164   2.291  13.292   6.102
27089SOL    HW283165   2.435  13.331   6.079
27090SOL     OW83166  10.085   5.075   7.128
27090SOL    HW183167  10.058   5.042   7.214
27090SOL    HW283168  10.147   5.009   7.096
27091SOL     OW83169  14.559   9.331  10.277
27091SOL    HW183170  14.622   9.261  10.291
27091SOL    HW283171  14.556   9.342  10.182
27092SOL     OW83172   9.661   0.130   5.292
27092SOL    HW183173   9.672   0.215   5.335
27092SOL    HW283174   9.673   0.148   5.199
27093SOL     OW83175   0.117  11.534   3.257
27093SOL    HW183176   0.135  11.526   3.163
27093SOL    HW283177   0.040  11.479   3.271
27094SOL     OW83178   1.376   4.777  14.237
27094SOL    HW183179   1.393   4.865  14.271
27094SOL    HW283180   1.375   4.721  14.315
27095SOL     OW83181   2.142  10.765   4.816
27095SOL    HW183182   2.060  10.719   4.800
27095SOL    HW283183   2.164  10.806   4.732
27096SOL     OW83184   2.208  13.379   9.002
27096SOL    HW183185   2.250  13.356   9.085
27096SOL    HW283186   2.220  13.302   8.946
27097SOL     OW83187   5.384   7.251  12.380
27097SOL    HW183188   5.422   7.258  12.467
27097SOL    HW283189   5.401   7.336  12.339
27098SOL     OW83190  12.490  10.496  13.179
27098SOL    HW183191  12.581  10.466  13.186
27098SOL    HW283192  12.494  10.565  13.112
27099SOL     OW83193  11.333   6.224   0.448
27099SOL    HW183194  11.243   6.194   0.436
27099SOL    HW283195  11.356   6.198   0.538
27100SOL     OW83196   2.552   6.326  11.633
27100SOL    HW183197   2.612   6.252  11.622
27100SOL    HW283198   2.508   6.309  11.716
27101SOL     OW83199   4.130  12.200   6.297
27101SOL    HW183200   4.121  12.151   6.378
27101SOL    HW283201   4.222  12.191   6.273
27102SOL     OW83202  10.276  11.645   6.424
27102SOL    HW183203  10.246  11.679   6.508
27102SOL    HW283204  10.202  11.593   6.392
27103SOL     OW83205   9.133  11.100  14.189
27103SOL    HW183206   9.047  11.059  14.180
27103SOL    HW283207   9.194  11.026  14.188
27104SOL     OW83208  11.886   6.482  11.140
27104SOL    HW183209  11.845   6.567  11.158
27104SOL    HW283210  11.846   6.422  11.203
27105SOL     OW83211   5.158   3.671   0.113
27105SOL    HW183212   5.071   3.707   0.096
27105SOL    HW283213   5.218   3.727   0.064
27106SOL     OW83214   7.760   7.159  11.885
27106SOL    HW183215   7.795   7.230  11.831
27106SOL    HW283216   7.728   7.095  11.821
27107SOL     OW83217  10.345  10.022   2.501
27107SOL    HW183218  10.366  10.017   2.408
27107SOL    HW283219  10.313   9.934   2.523
27108SOL     OW83220   5.760   3.204   4.094
27108SOL    HW183221   5.793   3.180   4.007
27108SOL    HW283222   5.667   3.184   4.090
27109SOL     OW83223  11.205  12.764   7.206
27109SOL    HW183224  11.250  12.700   7.261
27109SOL    HW283225  11.243  12.751   7.119
27110SOL     OW83226   0.217   9.103   6.706
27110SOL    HW183227   0.163   9.036   6.748
27110SOL    HW283228   0.157   9.149   6.647
27111SOL     OW83229   3.166   1.542   3.389
27111SOL    HW183230   3.211   1.594   3.323
27111SOL    HW283231   3.079   1.582   3.396
27112SOL     OW83232   6.032  10.933  14.457
27112SOL    HW183233   6.077  10.939  14.373
27112SOL    HW283234   6.057  10.847  14.491
27113SOL     OW83235   3.026   2.876   3.907
27113SOL    HW183236   3.083   2.945   3.874
27113SOL    HW283237   3.063   2.852   3.992
27114SOL     OW83238   8.929   0.742  12.230
27114SOL    HW183239   9.001   0.803  12.213
27114SOL    HW283240   8.884   0.778  12.306
27115SOL     OW83241  10.466  12.832  10.137
27115SOL    HW183242  10.412  12.793  10.068
27115SOL    HW283243  10.457  12.772  10.211
27116SOL     OW83244   7.561  14.866   1.133
27116SOL    HW183245   7.477  14.823   1.148
27116SOL    HW283246   7.552   0.082   1.176
27117SOL     OW83247   4.378   1.794  12.127
27117SOL    HW183248   4.394   1.727  12.061
27117SOL    HW283249   4.451   1.855  12.119
27118SOL     OW83250   5.663   7.708   4.428
27118SOL    HW183251   5.574   7.721   4.461
27118SOL    HW283252   5.656   7.722   4.334
27119SOL     OW83253   8.008   6.886   9.343
27119SOL    HW183254   7.930   6.933   9.374
27119SOL    HW283255   8.081   6.946   9.360
27120SOL     OW83256   9.711   5.503  12.272
27120SOL    HW183257   9.646   5.573  12.261
27120SOL    HW283258   9.778   5.542  12.327
27121SOL     OW83259   4.855   4.971   6.364
27121SOL    HW183260   4.859   4.878   6.384
27121SOL    HW283261   4.777   4.981   6.310
27122SOL     OW83262   4.228   9.114  10.297
27122SOL    HW183263   4.249   9.155  10.213
27122SOL    HW283264   4.284   9.160  10.360
27123SOL     OW83265   9.523  11.807   5.861
27123SOL    HW183266   9.581  11.754   5.916
27123SOL    HW283267   9.475  11.744   5.808
27124SOL     OW83268   5.660  11.102  12.906
27124SOL    HW183269   5.694  11.192  12.905
27124SOL    HW283270   5.725  11.051  12.858
27125SOL     OW83271   6.587   5.255  11.427
27125SOL    HW183272   6.683   5.253  11.428
27125SOL    HW283273   6.563   5.273  11.518
27126SOL     OW83274   6.728   1.952   3.949
27126SOL    HW183275   6.791   1.919   3.885
27126SOL    HW283276   6.776   1.953   4.031
27127SOL     OW83277   7.557   2.990   0.321
27127SOL    HW183278   7.607   2.939   0.257
27127SOL    HW283279   7.581   2.952   0.406
27128SOL     OW83280   4.996  13.849  11.068
27128SOL    HW183281   4.957  13.930  11.035
27128SOL    HW283282   4.944  13.826  11.145
27129SOL     OW83283   0.954  11.023   3.256
27129SOL    HW183284   0.906  11.079   3.195
27129SOL    HW283285   1.046  11.039   3.237
27130SOL     OW83286   9.366  13.010   9.079
27130SOL    HW183287   9.447  13.052   9.050
27130SOL    HW283288   9.297  13.057   9.033
27131SOL     OW83289   9.043   2.496   2.550
27131SOL    HW183290   9.025   2.568   2.611
27131SOL    HW283291   9.075   2.425   2.606
27132SOL     OW83292   1.762   8.221   5.401
27132SOL    HW183293   1.741   8.289   5.465
27132SOL    HW283294   1.677   8.193   5.367
27133SOL     OW83295   4.940   0.018   1.365
27133SOL    HW183296   4.992  14.811   1.339
27133SOL    HW283297   4.961   0.085   1.299
27134SOL     OW83298   9.567  13.390  13.589
27134SOL    HW183299   9.597  13.300  13.603
27134SOL    HW283300   9.587  13.409  13.498
27135SOL     OW83301  13.851  12.211  10.272
27135SOL    HW183302  13.779  12.154  10.245
27135SOL    HW283303  13.919  12.150  10.302
27136SOL     OW83304   9.212   2.963   0.350
27136SOL    HW183305   9.144   2.935   0.289
27136SOL    HW283306   9.276   3.009   0.295
27137SOL     OW83307  14.526  11.217   1.103
27137SOL    HW183308  14.609  11.262   1.087
27137SOL    HW283309  14.460  11.279   1.072
27138SOL     OW83310   7.560  14.562   3.984
27138SOL    HW183311   7.487  14.597   4.035
27138SOL    HW283312   7.573  14.625   3.914
27139SOL     OW83313   3.381  14.237   8.875
27139SOL    HW183314   3.451  14.174   8.857
27139SOL    HW283315   3.421  14.322   8.857
27140SOL     OW83316   1.676   1.204  13.105
27140SOL    HW183317   1.681   1.282  13.160
27140SOL    HW283318   1.687   1.131  13.165
27141SOL     OW83319  12.255   9.382   0.127
27141SOL    HW183320  12.177   9.337   0.092
27141SOL    HW283321  12.321   9.372   0.058
27142SOL     OW83322   7.102   3.503  14.172
27142SOL    HW183323   7.020   3.469  14.207
27142SOL    HW283324   7.159   3.426  14.167
27143SOL     OW83325   9.146   2.264   2.667
27143SOL    HW183326   9.220   2.246   2.608
27143SOL    HW283327   9.076   2.207   2.634
27144SOL     OW83328   9.494  12.820   2.560
27144SOL    HW183329   9.570  12.779   2.518
27144SOL    HW283330   9.473  12.895   2.504
27145SOL     OW83331   9.824   2.220   1.678
27145SOL    HW183332   9.761   2.259   1.738
27145SOL    HW283333   9.844   2.291   1.616
27146SOL     OW83334   8.175   0.345  13.661
27146SOL    HW183335   8.120   0.420  13.683
27146SOL    HW283336   8.113   0.276  13.637
27147SOL     OW83337   1.924   6.954   0.807
27147SOL    HW183338   1.994   6.958   0.743
27147SOL    HW283339   1.887   7.043   0.808
27148SOL     OW83340   6.557  10.859   8.766
27148SOL    HW183341   6.494  10.797   8.730
27148SOL    HW283342   6.508  10.906   8.834
27149SOL     OW83343   5.693   6.991   2.468
27149SOL    HW183344   5.632   6.956   2.403
27149SOL    HW283345   5.742   6.914   2.498
27150SOL     OW83346  10.008   0.860   6.703
27150SOL    HW183347  10.048   0.782   6.740
27150SOL    HW283348   9.941   0.885   6.767
27151SOL     OW83349   8.459  12.585   6.973
27151SOL    HW183350   8.443  12.609   6.882
27151SOL    HW283351   8.453  12.668   7.021
27152SOL     OW83352   5.625  13.535  10.280
27152SOL    HW183353   5.720  13.531  10.267
27152SOL    HW283354   5.589  13.511  10.194
27153SOL     OW83355  14.308   5.295   9.947
27153SOL    HW183356  14.307   5.199   9.941
27153SOL    HW283357  14.400   5.318   9.932
27154SOL     OW83358   0.233   4.613   7.797
27154SOL    HW183359   0.210   4.667   7.873
27154SOL    HW283360   0.316   4.650   7.766
27155SOL     OW83361   3.134  13.028  12.058
27155SOL    HW183362   3.044  13.042  12.029
27155SOL    HW283363   3.182  13.007  11.978
27156SOL     OW83364   6.837   0.831  10.629
27156SOL    HW183365   6.908   0.824  10.693
27156SOL    HW283366   6.842   0.749  10.580
27157SOL     OW83367  13.396   9.120  14.278
27157SOL    HW183368  13.307   9.086  14.277
27157SOL    HW283369  13.386   9.213  14.298
27158SOL     OW83370   0.555  10.630   6.919
27158SOL    HW183371   0.530  10.584   6.838
27158SOL    HW283372   0.578  10.561   6.980
27159SOL     OW83373  10.272  12.759   4.807
27159SOL    HW183374  10.356  12.805   4.798
27159SOL    HW283375  10.224  12.811   4.871
27160SOL     OW83376   1.701   9.297  14.693
27160SOL    HW183377   1.691   9.324  14.784
27160SOL    HW283378   1.679   9.203  14.693
27161SOL     OW83379   3.940   6.492   3.440
27161SOL    HW183380   3.981   6.548   3.506
27161SOL    HW283381   3.965   6.403   3.466
27162SOL     OW83382  13.075  11.921   6.376
27162SOL    HW183383  13.116  11.855   6.320
27162SOL    HW283384  12.990  11.938   6.336
27163SOL     OW83385   7.277   8.025   1.609
27163SOL    HW183386   7.292   7.940   1.651
27163SOL    HW283387   7.183   8.027   1.592
27164SOL     OW83388  10.968  12.519   9.802
27164SOL    HW183389  10.901  12.506   9.869
27164SOL    HW283390  10.921  12.510   9.719
27165SOL     OW83391   7.035   0.351   4.144
27165SOL    HW183392   6.939   0.343   4.152
27165SOL    HW283393   7.069   0.292   4.211
27166SOL     OW83394   5.261  13.746   6.969
27166SOL    HW183395   5.279  13.837   6.946
27166SOL    HW283396   5.228  13.750   7.059
27167SOL     OW83397   1.573   4.161  12.419
27167SOL    HW183398   1.574   4.119  12.505
27167SOL    HW283399   1.509   4.111  12.368
27168SOL     OW83400   9.105  12.331   6.498
27168SOL    HW183401   9.076  12.339   6.589
27168SOL    HW283402   9.131  12.420   6.474
27169SOL     OW83403   1.153  14.211  11.996
27169SOL    HW183404   1.098  14.289  12.000
27169SOL    HW283405   1.242  14.245  11.987
27170SOL     OW83406   8.384   0.111   1.955
27170SOL    HW183407   8.423   0.079   1.873
27170SOL    HW283408   8.431   0.063   2.023
27171SOL     OW83409  12.866   4.543   1.029
27171SOL    HW183410  12.924   4.477   0.991
27171SOL    HW283411  12.785   4.495   1.049
27172SOL     OW83412   5.484   0.754   2.966
27172SOL    HW183413   5.538   0.677   2.984
27172SOL    HW283414   5.423   0.759   3.040
27173SOL     OW83415   2.761  14.033   6.204
27173SOL    HW183416   2.782  14.013   6.295
27173SOL    HW283417   2.702  13.963   6.176
27174SOL     OW83418   8.960   1.743   0.968
27174SOL    HW183419   9.023   1.682   1.007
27174SOL    HW283420   9.009   1.825   0.958
27175SOL     OW83421   8.651   4.303   2.856
27175SOL    HW183422   8.728   4.267   2.901
27175SOL    HW283423   8.680   4.316   2.766
27176SOL     OW83424  14.488  14.804   5.322
27176SOL    HW183425  14.561  14.755   5.360
27176SOL    HW283426  14.506   0.026   5.345
27177SOL     OW83427   8.735   5.597   1.245
27177SOL    HW183428   8.645   5.608   1.275
27177SOL    HW283429   8.787   5.592   1.326
27178SOL     OW83430   5.422  14.330   2.987
27178SOL    HW183431   5.385  14.256   3.035
27178SOL    HW283432   5.516  14.312   2.985
27179SOL     OW83433   6.693   2.724   8.684
27179SOL    HW183434   6.644   2.802   8.707
27179SOL    HW283435   6.659   2.656   8.742
27180SOL     OW83436  11.559   7.357   7.207
27180SOL    HW183437  11.513   7.421   7.260
27180SOL    HW283438  11.508   7.276   7.217
27181SOL     OW83439   3.468  14.519  12.202
27181SOL    HW183440   3.399  14.584  12.220
27181SOL    HW283441   3.435  14.470  12.127
27182SOL     OW83442   0.065  12.588   5.627
27182SOL    HW183443   0.081  12.607   5.720
27182SOL    HW283444   0.135  12.633   5.580
27183SOL     OW83445   1.559  11.912   4.265
27183SOL    HW183446   1.490  11.876   4.210
27183SOL    HW283447   1.641  11.880   4.225
27184SOL     OW83448   1.469  14.084   0.993
27184SOL    HW183449   1.466  13.990   0.975
27184SOL    HW283450   1.403  14.098   1.060
27185SOL     OW83451   8.064   3.480  14.451
27185SOL    HW183452   8.001   3.491  14.522
27185SOL    HW283453   8.024   3.524  14.376
27186SOL     OW83454   1.049  12.909  11.611
27186SOL    HW183455   1.137  12.890  11.579
27186SOL    HW283456   1.036  13.002  11.591
27187SOL     OW83457   8.601   1.266   9.432
27187SOL    HW183458   8.627   1.174   9.430
27187SOL    HW283459   8.684   1.314   9.437
27188SOL     OW83460  12.948   5.153   5.593
27188SOL    HW183461  12.949   5.202   5.511
27188SOL    HW283462  12.931   5.219   5.661
27189SOL     OW83463  10.805   1.300   2.597
27189SOL    HW183464  10.829   1.314   2.505
27189SOL    HW283465  10.815   1.206   2.609
27190SOL     OW83466   6.605   6.992   8.057
27190SOL    HW183467   6.670   7.060   8.074
27190SOL    HW283468   6.635   6.917   8.108
27191SOL     OW83469   1.182   4.015  12.125
27191SOL    HW183470   1.117   4.082  12.146
27191SOL    HW283471   1.239   4.012  12.202
27192SOL     OW83472   2.451   0.397  10.242
27192SOL    HW183473   2.459   0.326  10.178
27192SOL    HW283474   2.500   0.367  10.318
27193SOL     OW83475  14.242   3.410  13.623
27193SOL    HW183476  14.312   3.448  13.569
27193SOL    HW283477  14.235   3.470  13.697
27194SOL     OW83478   8.733   4.459   8.995
27194SOL    HW183479   8.740   4.542   9.042
27194SOL    HW283480   8.799   4.465   8.925
27195SOL     OW83481   7.610   0.351   7.148
27195SOL    HW183482   7.588   0.430   7.098
27195SOL    HW283483   7.634   0.286   7.081
27196SOL     OW83484   7.032   7.925   1.610
27196SOL    HW183485   7.106   7.870   1.638
27196SOL    HW283486   6.993   7.877   1.537
27197SOL     OW83487  10.470   7.571   6.682
27197SOL    HW183488  10.438   7.643   6.735
27197SOL    HW283489  10.436   7.492   6.725
27198SOL     OW83490   6.679  12.063   3.277
27198SOL    HW183491   6.608  12.047   3.215
27198SOL    HW283492   6.684  12.158   3.284
27199SOL     OW83493  12.001  11.979  11.999
27199SOL    HW183494  11.962  12.066  11.987
27199SOL    HW283495  11.950  11.940  12.070
27200SOL     OW83496  10.579  14.017   6.905
27200SOL    HW183497  10.560  14.110   6.889
27200SOL    HW283498  10.670  14.017   6.937
27201SOL     OW83499   6.544   5.842   9.284
27201SOL    HW183500   6.479   5.811   9.346
27201SOL    HW283501   6.533   5.786   9.207
27202SOL     OW83502   3.753   5.239   3.540
27202SOL    HW183503   3.691   5.295   3.492
27202SOL    HW283504   3.708   5.220   3.622
27203SOL     OW83505   8.710   5.606   8.710
27203SOL    HW183506   8.731   5.513   8.705
27203SOL    HW283507   8.634   5.611   8.769
27204SOL     OW83508  11.316  14.048  10.749
27204SOL    HW183509  11.227  14.028  10.721
27204SOL    HW283510  11.328  13.998  10.830
27205SOL     OW83511  10.538   6.866  10.076
27205SOL    HW183512  10.630   6.843  10.062
27205SOL    HW283513  10.531   6.880  10.170
27206SOL     OW83514   5.696   0.246   3.628
27206SOL    HW183515   5.791   0.241   3.629
27206SOL    HW283516   5.672   0.257   3.720
27207SOL     OW83517   6.715  12.716   4.043
27207SOL    HW183518   6.722  12.810   4.027
27207SOL    HW283519   6.622  12.701   4.059
27208SOL     OW83520  13.476   3.979   4.900
27208SOL    HW183521  13.385   3.987   4.929
27208SOL    HW283522  13.528   4.017   4.971
27209SOL     OW83523  11.726   5.348   3.750
27209SOL    HW183524  11.770   5.407   3.812
27209SOL    HW283525  11.718   5.265   3.797
27210SOL     OW83526   5.890   7.478   7.917
27210SOL    HW183527   5.967   7.534   7.903
27210SOL    HW283528   5.911   7.396   7.872
27211SOL     OW83529   0.949   4.284   2.191
27211SOL    HW183530   0.922   4.221   2.258
27211SOL    HW283531   0.911   4.251   2.110
27212SOL     OW83532  13.563   1.407   1.687
27212SOL    HW183533  13.636   1.458   1.652
27212SOL    HW283534  13.596   1.372   1.770
27213SOL     OW83535  12.588   3.111   2.640
27213SOL    HW183536  12.654   3.180   2.642
27213SOL    HW283537  12.635   3.031   2.664
27214SOL     OW83538   1.598   7.336   7.880
27214SOL    HW183539   1.657   7.380   7.942
27214SOL    HW283540   1.652   7.268   7.840
27215SOL     OW83541   7.510   1.732   1.578
27215SOL    HW183542   7.506   1.821   1.545
27215SOL    HW283543   7.592   1.729   1.629
27216SOL     OW83544   4.207   0.430   8.980
27216SOL    HW183545   4.273   0.446   8.912
27216SOL    HW283546   4.258   0.411   9.059
27217SOL     OW83547  14.031   7.739   8.724
27217SOL    HW183548  14.106   7.798   8.737
27217SOL    HW283549  13.954   7.794   8.738
27218SOL     OW83550   4.839  14.522   5.178
27218SOL    HW183551   4.822  14.430   5.161
27218SOL    HW283552   4.845  14.528   5.274
27219SOL     OW83553  13.274   8.137   4.974
27219SOL    HW183554  13.352   8.085   4.996
27219SOL    HW283555  13.213   8.120   5.046
27220SOL     OW83556   1.163   8.835   2.416
27220SOL    HW183557   1.118   8.902   2.365
27220SOL    HW283558   1.256   8.844   2.392
27221SOL     OW83559  12.902   6.979  13.325
27221SOL    HW183560  12.980   6.924  13.336
27221SOL    HW283561  12.865   6.952  13.241
27222SOL     OW83562   7.075  12.321   5.773
27222SOL    HW183563   7.048  12.329   5.682
27222SOL    HW283564   7.159  12.276   5.770
27223SOL     OW83565   5.466   9.288  12.794
27223SOL    HW183566   5.496   9.198  12.782
27223SOL    HW283567   5.391   9.280  12.853
27224SOL     OW83568  10.355   2.474   5.720
27224SOL    HW183569  10.410   2.455   5.644
27224SOL    HW283570  10.266   2.475   5.685
27225SOL     OW83571  11.820   7.872   1.549
27225SOL    HW183572  11.869   7.880   1.631
27225SOL    HW283573  11.821   7.961   1.512
27226SOL     OW83574   8.846  11.051  14.188
27226SOL    HW183575   8.798  11.126  14.225
27226SOL    HW283576   8.830  10.980  14.249
27227SOL     OW83577   9.019  10.677  13.197
27227SOL    HW183578   9.082  10.721  13.254
27227SOL    HW283579   9.014  10.733  13.119
27228SOL     OW83580   2.551   5.730  14.578
27228SOL    HW183581   2.586   5.808  14.620
27228SOL    HW283582   2.473   5.708  14.629
27229SOL     OW83583   2.382   5.950   1.120
27229SOL    HW183584   2.386   5.910   1.206
27229SOL    HW283585   2.297   5.994   1.117
27230SOL     OW83586   1.769  10.491   7.902
27230SOL    HW183587   1.847  10.518   7.950
27230SOL    HW283588   1.779  10.529   7.815
27231SOL     OW83589  10.569   0.956   4.625
27231SOL    HW183590  10.569   0.960   4.530
27231SOL    HW283591  10.488   0.908   4.647
27232SOL     OW83592  14.349   0.838   2.770
27232SOL    HW183593  14.354   0.891   2.690
27232SOL    HW283594  14.351   0.747   2.739
27233SOL     OW83595   7.336  13.267   2.901
27233SOL    HW183596   7.430  13.281   2.886
27233SOL    HW283597   7.293  13.337   2.853
27234SOL     OW83598  11.902   3.657   4.379
27234SOL    HW183599  11.887   3.603   4.457
27234SOL    HW283600  11.969   3.609   4.330
27235SOL     OW83601   6.942   3.434   0.535
27235SOL    HW183602   6.970   3.343   0.522
27235SOL    HW283603   6.961   3.477   0.452
27236SOL     OW83604   8.870   8.642   6.492
27236SOL    HW183605   8.834   8.731   6.502
27236SOL    HW283606   8.834   8.593   6.566
27237SOL     OW83607   3.504   3.286   6.386
27237SOL    HW183608   3.428   3.294   6.444
27237SOL    HW283609   3.503   3.194   6.357
27238SOL     OW83610   3.497   6.053  14.256
27238SOL    HW183611   3.571   6.037  14.197
27238SOL    HW283612   3.496   6.148  14.269
27239SOL     OW83613  13.881  10.128   3.640
27239SOL    HW183614  13.800  10.137   3.589
27239SOL    HW283615  13.937  10.199   3.609
27240SOL     OW83616   5.974   6.530  13.379
27240SOL    HW183617   6.064   6.522  13.349
27240SOL    HW283618   5.941   6.440  13.379
27241SOL     OW83619   7.349   2.326  14.436
27241SOL    HW183620   7.412   2.266  14.396
27241SOL    HW283621   7.404   2.391  14.481
27242SOL     OW83622   9.578   3.920   1.466
27242SOL    HW183623   9.664   3.950   1.493
27242SOL    HW283624   9.519   3.951   1.536
27243SOL     OW83625   7.433   3.157   1.761
27243SOL    HW183626   7.521   3.190   1.776
27243SOL    HW283627   7.378   3.235   1.758
27244SOL     OW83628  10.605  10.164   8.248
27244SOL    HW183629  10.678  10.209   8.291
27244SOL    HW283630  10.645  10.120   8.173
27245SOL     OW83631   2.979  14.424   1.168
27245SOL    HW183632   2.902  14.370   1.186
27245SOL    HW283633   3.001  14.464   1.252
27246SOL     OW83634   3.162   7.598   1.736
27246SOL    HW183635   3.170   7.687   1.773
27246SOL    HW283636   3.252   7.565   1.734
27247SOL     OW83637   7.242   1.863   4.588
27247SOL    HW183638   7.224   1.950   4.624
27247SOL    HW283639   7.161   1.814   4.601
27248SOL     OW83640  12.986   8.357   7.036
27248SOL    HW183641  12.905   8.403   7.058
27248SOL    HW283642  13.026   8.409   6.967
27249SOL     OW83643   9.726   0.889   6.480
27249SOL    HW183644   9.781   0.858   6.408
27249SOL    HW283645   9.721   0.814   6.539
27250SOL     OW83646   5.525   0.862   5.173
27250SOL    HW183647   5.456   0.808   5.211
27250SOL    HW283648   5.606   0.817   5.196
27251SOL     OW83649   7.852   3.334   7.330
27251SOL    HW183650   7.786   3.285   7.282
27251SOL    HW283651   7.906   3.374   7.261
27252SOL     OW83652   1.824  14.152   8.366
27252SOL    HW183653   1.850  14.065   8.336
27252SOL    HW283654   1.821  14.206   8.287
27253SOL     OW83655   4.737  10.018   6.138
27253SOL    HW183656   4.751  10.102   6.094
27253SOL    HW283657   4.822   9.974   6.133
27254SOL     OW83658  13.529  11.696   8.014
27254SOL    HW183659  13.620  11.690   7.985
27254SOL    HW283660  13.521  11.785   8.051
27255SOL     OW83661  11.486  10.430   8.023
27255SOL    HW183662  11.505  10.369   7.952
27255SOL    HW283663  11.544  10.504   8.008
27256SOL     OW83664  12.373   9.699  11.933
27256SOL    HW183665  12.341   9.651  11.856
27256SOL    HW283666  12.294   9.734  11.974
27257SOL     OW83667   8.458   4.378   3.218
27257SOL    HW183668   8.468   4.435   3.294
27257SOL    HW283669   8.363   4.366   3.209
27258SOL     OW83670   2.964   9.099  11.929
27258SOL    HW183671   3.043   9.063  11.889
27258SOL    HW283672   2.948   9.180  11.881
27259SOL     OW83673  12.467  12.044   3.849
27259SOL    HW183674  12.392  11.991   3.877
27259SOL    HW283675  12.464  12.120   3.907
27260SOL     OW83676   8.719   4.437   4.131
27260SOL    HW183677   8.700   4.524   4.097
27260SOL    HW283678   8.635   4.404   4.163
27261SOL     OW83679  13.540   0.210  14.421
27261SOL    HW183680  13.452   0.176  14.435
27261SOL    HW283681  13.595   0.132  14.414
27262SOL     OW83682   5.577   2.628   5.101
27262SOL    HW183683   5.505   2.580   5.143
27262SOL    HW283684   5.641   2.641   5.170
27263SOL     OW83685  13.284  12.014  13.561
27263SOL    HW183686  13.283  11.999  13.656
27263SOL    HW283687  13.202  11.977  13.530
27264SOL     OW83688  10.093  13.193   2.526
27264SOL    HW183689  10.042  13.263   2.486
27264SOL    HW283690  10.184  13.216   2.509
27265SOL     OW83691  10.115   0.143   6.312
27265SOL    HW183692  10.203   0.181   6.312
27265SOL    HW283693  10.058   0.216   6.289
27266SOL     OW83694   1.822   6.412   8.108
27266SOL    HW183695   1.741   6.410   8.159
27266SOL    HW283696   1.795   6.381   8.021
27267SOL     OW83697   3.799   4.831   4.994
27267SOL    HW183698   3.795   4.762   4.927
27267SOL    HW283699   3.710   4.836   5.029
27268SOL     OW83700  12.073   5.848  14.455
27268SOL    HW183701  12.019   5.892  14.390
27268SOL    HW283702  12.053   5.891  14.537
27269SOL     OW83703  10.884  12.709   8.205
27269SOL    HW183704  10.923  12.624   8.230
27269SOL    HW283705  10.816  12.724   8.270
27270SOL     OW83706   4.684  10.239   8.883
27270SOL    HW183707   4.630  10.233   8.804
27270SOL    HW283708   4.698  10.148   8.909
27271SOL     OW83709   2.355   3.867   6.073
27271SOL    HW183710   2.431   3.851   6.017
27271SOL    HW283711   2.296   3.793   6.056
27272SOL     OW83712   6.345  14.131  11.275
27272SOL    HW183713   6.262  14.101  11.239
27272SOL    HW283714   6.351  14.087  11.360
27273SOL     OW83715   6.730   9.238  12.205
27273SOL    HW183716   6.700   9.212  12.292
27273SOL    HW283717   6.764   9.326  12.217
27274SOL     OW83718  10.617  13.645   5.999
27274SOL    HW183719  10.680  13.679   5.936
27274SOL    HW283720  10.662  13.650   6.084
27275SOL     OW83721   9.111  12.609   6.116
27275SOL    HW183722   9.186  12.579   6.169
27275SOL    HW283723   9.145  12.614   6.027
27276SOL     OW83724   6.663  13.642   3.694
27276SOL    HW183725   6.586  13.618   3.746
27276SOL    HW283726   6.736  13.635   3.755
27277SOL     OW83727   0.878  13.506  11.431
27277SOL    HW183728   0.892  13.464  11.516
27277SOL    HW283729   0.960  13.491  11.383
27278SOL     OW83730  13.135  13.540  10.807
27278SOL    HW183731  13.139  13.635  10.793
27278SOL    HW283732  13.218  13.507  10.773
27279SOL     OW83733   7.269   7.557  12.620
27279SOL    HW183734   7.251   7.501  12.696
27279SOL    HW283735   7.195   7.619  12.619
27280SOL     OW83736   6.263   0.135   3.229
27280SOL    HW183737   6.230   0.048   3.203
27280SOL    HW283738   6.223   0.151   3.314
27281SOL     OW83739  14.228   9.882   7.833
27281SOL    HW183740  14.189   9.801   7.865
27281SOL    HW283741  14.218   9.879   7.738
27282SOL     OW83742   6.179   2.234   9.483
27282SOL    HW183743   6.099   2.218   9.533
27282SOL    HW283744   6.250   2.205   9.541
27283SOL     OW83745   3.935   6.909  12.915
27283SOL    HW183746   3.897   6.852  12.982
27283SOL    HW283747   3.872   6.908  12.843
27284SOL     OW83748   4.993   0.921   0.545
27284SOL    HW183749   4.898   0.929   0.544
27284SOL    HW283750   5.010   0.848   0.605
27285SOL     OW83751   9.319   9.035   0.594
27285SOL    HW183752   9.224   9.032   0.589
27285SOL    HW283753   9.347   9.050   0.503
27286SOL     OW83754  14.207   1.840  11.912
27286SOL    HW183755  14.235   1.899  11.842
27286SOL    HW283756  14.111   1.841  11.908
27287SOL     OW83757   4.470  12.014  12.100
27287SOL    HW183758   4.403  11.997  12.167
27287SOL    HW283759   4.505  11.927  12.080
27288SOL     OW83760  10.333  14.300  11.739
27288SOL    HW183761  10.358  14.330  11.651
27288SOL    HW283762  10.353  14.374  11.796
27289SOL     OW83763   1.061  10.058   5.767
27289SOL    HW183764   1.096  10.077   5.854
27289SOL    HW283765   1.055   9.963   5.763
27290SOL     OW83766   7.726   2.330  10.802
27290SOL    HW183767   7.689   2.411  10.837
27290SOL    HW283768   7.800   2.311  10.859
27291SOL     OW83769  10.056   8.334   0.893
27291SOL    HW183770  10.149   8.356   0.897
27291SOL    HW283771  10.053   8.243   0.863
27292SOL     OW83772  14.758  13.017  14.799
27292SOL    HW183773  14.691  13.016  14.731
27292SOL    HW283774  14.712  12.987   0.008
27293SOL     OW83775   2.430   1.298   4.949
27293SOL    HW183776   2.429   1.332   4.860
27293SOL    HW283777   2.339   1.307   4.979
27294SOL     OW83778   8.180   4.874   0.329
27294SOL    HW183779   8.127   4.903   0.255
27294SOL    HW283780   8.125   4.809   0.374
27295SOL     OW83781   8.014   2.238  12.018
27295SOL    HW183782   8.006   2.212  11.926
27295SOL    HW283783   7.924   2.258  12.045
27296SOL     OW83784   2.490   1.328  10.626
27296SOL    HW183785   2.424   1.321  10.557
27296SOL    HW283786   2.488   1.243  10.669
27297SOL     OW83787   9.836   6.170   1.419
27297SOL    HW183788   9.805   6.253   1.383
27297SOL    HW283789   9.777   6.104   1.383
27298SOL     OW83790   7.583   0.350   6.060
27298SOL    HW183791   7.619   0.436   6.081
27298SOL    HW283792   7.489   0.358   6.080
27299SOL     OW83793   2.357   0.238  12.835
27299SOL    HW183794   2.402   0.309  12.881
27299SOL    HW283795   2.281   0.217  12.890
27300SOL     OW83796   8.613  11.505   2.129
27300SOL    HW183797   8.586  11.414   2.121
27300SOL    HW283798   8.670  11.506   2.205
27301SOL     OW83799  13.337   9.914   1.022
27301SOL    HW183800  13.368   9.924   0.932
27301SOL    HW283801  13.367   9.993   1.066
27302SOL     OW83802   6.151   9.516  14.768
27302SOL    HW183803   6.130   9.608  14.783
27302SOL    HW283804   6.213   9.493  14.837
27303SOL     OW83805   2.348  10.399  13.808
27303SOL    HW183806   2.285  10.458  13.768
27303SOL    HW283807   2.320  10.392  13.900
27304SOL     OW83808   0.601   7.727  14.686
27304SOL    HW183809   0.616   7.797  14.750
27304SOL    HW283810   0.687   7.713  14.645
27305SOL     OW83811  13.977  11.369  10.028
27305SOL    HW183812  14.045  11.301  10.033
27305SOL    HW283813  13.915  11.345  10.096
27306SOL     OW83814   6.763   7.923   2.029
27306SOL    HW183815   6.849   7.960   2.050
27306SOL    HW283816   6.763   7.837   2.072
27307SOL     OW83817   3.602   6.690  14.190
27307SOL    HW183818   3.670   6.698  14.257
27307SOL    HW283819   3.591   6.779  14.156
27308SOL     OW83820   4.950   3.113   8.166
27308SOL    HW183821   4.953   3.180   8.099
27308SOL    HW283822   5.038   3.111   8.203
27309SOL     OW83823  13.350   3.036   6.630
27309SOL    HW183824  13.372   2.944   6.614
27309SOL    HW283825  13.288   3.059   6.561
27310SOL     OW83826   7.717  11.552   6.198
27310SOL    HW183827   7.622  11.559   6.208
27310SOL    HW283828   7.729  11.524   6.107
27311SOL     OW83829   3.022   0.596   9.399
27311SOL    HW183830   2.940   0.630   9.364
27311SOL    HW283831   3.083   0.669   9.393
27312SOL     OW83832  13.215   7.023   3.997
27312SOL    HW183833  13.185   7.036   4.087
27312SOL    HW283834  13.274   7.097   3.980
27313SOL     OW83835  13.227   6.108   7.972
27313SOL    HW183836  13.190   6.146   7.893
27313SOL    HW283837  13.291   6.045   7.941
27314SOL     OW83838  12.468  14.370   6.685
27314SOL    HW183839  12.561  14.356   6.663
27314SOL    HW283840  12.459  14.465   6.692
27315SOL     OW83841  11.031  11.833   1.444
27315SOL    HW183842  10.975  11.827   1.366
27315SOL    HW283843  10.976  11.877   1.509
27316SOL     OW83844   0.454  10.500   1.654
27316SOL    HW183845   0.534  10.553   1.659
27316SOL    HW283846   0.385  10.558   1.685
27317SOL     OW83847   4.519  11.140   3.171
27317SOL    HW183848   4.527  11.232   3.194
27317SOL    HW283849   4.492  11.097   3.253
27318SOL     OW83850   0.341   8.812   7.230
27318SOL    HW183851   0.313   8.877   7.166
27318SOL    HW283852   0.343   8.730   7.182
27319SOL     OW83853   7.429   7.073   9.957
27319SOL    HW183854   7.405   6.994  10.005
27319SOL    HW283855   7.522   7.086   9.978
27320SOL     OW83856   5.474   2.242  11.319
27320SOL    HW183857   5.498   2.229  11.411
27320SOL    HW283858   5.558   2.256  11.274
27321SOL     OW83859   8.883   8.775   4.583
27321SOL    HW183860   8.866   8.746   4.493
27321SOL    HW283861   8.811   8.739   4.634
27322SOL     OW83862   7.048  11.263  11.572
27322SOL    HW183863   7.133  11.220  11.562
27322SOL    HW283864   7.039  11.278  11.666
27323SOL     OW83865  12.242   2.241  12.298
27323SOL    HW183866  12.178   2.175  12.325
27323SOL    HW283867  12.300   2.194  12.237
27324SOL     OW83868  13.927  11.277   1.317
27324SOL    HW183869  13.984  11.201   1.324
27324SOL    HW283870  13.839  11.241   1.310
27325SOL     OW83871  14.215   2.287   8.316
27325SOL    HW183872  14.275   2.339   8.369
27325SOL    HW283873  14.213   2.202   8.358
27326SOL     OW83874   1.175  10.299   1.789
27326SOL    HW183875   1.099  10.271   1.737
27326SOL    HW283876   1.245  10.240   1.764
27327SOL     OW83877   1.827   3.823   8.124
27327SOL    HW183878   1.829   3.780   8.038
27327SOL    HW283879   1.867   3.908   8.109
27328SOL     OW83880   6.947   5.176   7.156
27328SOL    HW183881   6.864   5.219   7.177
27328SOL    HW283882   6.965   5.121   7.232
27329SOL     OW83883   3.563  10.170  14.041
27329SOL    HW183884   3.490  10.177  14.103
27329SOL    HW283885   3.641  10.175  14.096
27330SOL     OW83886  10.590   2.064   4.009
27330SOL    HW183887  10.564   2.088   4.098
27330SOL    HW283888  10.579   2.143   3.957
27331SOL     OW83889   5.713   8.463   9.755
27331SOL    HW183890   5.761   8.434   9.833
27331SOL    HW283891   5.707   8.384   9.700
27332SOL     OW83892   1.549  14.370   5.699
27332SOL    HW183893   1.486  14.341   5.633
27332SOL    HW283894   1.555  14.465   5.686
27333SOL     OW83895  14.751  12.128  13.433
27333SOL    HW183896  14.740  12.035  13.452
27333SOL    HW283897  14.750  12.134  13.337
27334SOL     OW83898   1.739   8.024   1.529
27334SOL    HW183899   1.802   7.976   1.476
27334SOL    HW283900   1.657   7.974   1.520
27335SOL     OW83901  12.338   5.610  12.310
27335SOL    HW183902  12.296   5.575  12.388
27335SOL    HW283903  12.416   5.555  12.298
27336SOL     OW83904   4.346   4.353   5.522
27336SOL    HW183905   4.287   4.334   5.595
27336SOL    HW283906   4.292   4.397   5.457
27337SOL     OW83907   5.235   6.944   6.472
27337SOL    HW183908   5.253   7.036   6.492
27337SOL    HW283909   5.239   6.899   6.556
27338SOL     OW83910   2.974   5.686   2.375
27338SOL    HW183911   3.050   5.651   2.329
27338SOL    HW283912   3.007   5.759   2.426
27339SOL     OW83913   9.164  11.242   2.175
27339SOL    HW183914   9.118  11.317   2.138
27339SOL    HW283915   9.257  11.265   2.168
27340SOL     OW83916   0.772  13.562   0.426
27340SOL    HW183917   0.691  13.514   0.410
27340SOL    HW283918   0.750  13.624   0.496
27341SOL     OW83919   9.123   9.735   5.977
27341SOL    HW183920   9.104   9.793   6.051
27341SOL    HW283921   9.196   9.681   6.007
27342SOL     OW83922   0.113   4.928   9.203
27342SOL    HW183923   0.088   5.019   9.219
27342SOL    HW283924   0.076   4.880   9.278
27343SOL     OW83925  14.516   7.927   0.001
27343SOL    HW183926  14.495   8.020  14.862
27343SOL    HW283927  14.607   7.921  14.841
27344SOL     OW83928  13.758   0.788   5.003
27344SOL    HW183929  13.737   0.844   4.929
27344SOL    HW283930  13.762   0.700   4.967
27345SOL     OW83931  10.554   7.459   5.824
27345SOL    HW183932  10.586   7.384   5.774
27345SOL    HW283933  10.522   7.520   5.757
27346SOL     OW83934   4.538  11.086   2.267
27346SOL    HW183935   4.554  11.044   2.352
27346SOL    HW283936   4.474  11.029   2.224
27347SOL     OW83937   8.891   7.098   4.402
27347SOL    HW183938   8.951   7.156   4.449
27347SOL    HW283939   8.926   7.010   4.416
27348SOL     OW83940   5.426   4.550  10.661
27348SOL    HW183941   5.512   4.535  10.622
27348SOL    HW283942   5.404   4.467  10.704
27349SOL     OW83943  13.301   6.296   0.110
27349SOL    HW183944  13.299   6.353   0.033
27349SOL    HW283945  13.392   6.300   0.140
27350SOL     OW83946  11.520  11.305   3.363
27350SOL    HW183947  11.450  11.369   3.375
27350SOL    HW283948  11.518  11.285   3.269
27351SOL     OW83949  11.978   5.518   7.932
27351SOL    HW183950  11.914   5.568   7.880
27351SOL    HW283951  12.062   5.539   7.892
27352SOL     OW83952   2.967  11.043  10.700
27352SOL    HW183953   2.921  11.061  10.782
27352SOL    HW283954   3.054  11.015  10.727
27353SOL     OW83955  12.338   2.209  12.755
27353SOL    HW183956  12.267   2.267  12.727
27353SOL    HW283957  12.333   2.210  12.851
27354SOL     OW83958  13.033   7.663   0.650
27354SOL    HW183959  13.080   7.651   0.733
27354SOL    HW283960  12.972   7.589   0.645
27355SOL     OW83961   1.378   6.624   5.323
27355SOL    HW183962   1.317   6.694   5.346
27355SOL    HW283963   1.356   6.553   5.383
27356SOL     OW83964   5.797   8.422   4.763
27356SOL    HW183965   5.827   8.410   4.672
27356SOL    HW283966   5.745   8.502   4.760
27357SOL     OW83967   2.112   4.004   0.050
27357SOL    HW183968   2.202   3.974   0.045
27357SOL    HW283969   2.082   4.005  14.828
27358SOL     OW83970  13.600   9.982   0.567
27358SOL    HW183971  13.594   9.971   0.472
27358SOL    HW283972  13.666  10.051   0.579
27359SOL     OW83973  10.960   8.956   2.209
27359SOL    HW183974  10.911   9.038   2.203
27359SOL    HW283975  10.935   8.907   2.130
27360SOL     OW83976   6.430   8.073   6.591
27360SOL    HW183977   6.499   8.011   6.613
27360SOL    HW283978   6.352   8.019   6.582
27361SOL     OW83979  12.241  11.788   9.995
27361SOL    HW183980  12.231  11.794   9.900
27361SOL    HW283981  12.151  11.787  10.029
27362SOL     OW83982   7.231   3.494  10.456
27362SOL    HW183983   7.308   3.438  10.451
27362SOL    HW283984   7.260   3.572  10.502
27363SOL     OW83985   2.733   6.404   6.676
27363SOL    HW183986   2.757   6.336   6.614
27363SOL    HW283987   2.795   6.396   6.748
27364SOL     OW83988   5.976  12.068   7.821
27364SOL    HW183989   5.916  12.056   7.895
27364SOL    HW283990   6.051  12.012   7.842
27365SOL     OW83991   2.811   5.231  14.866
27365SOL    HW183992   2.819   5.219  14.772
27365SOL    HW283993   2.772   5.150   0.028
27366SOL     OW83994   5.687   2.526   3.404
27366SOL    HW183995   5.659   2.516   3.496
27366SOL    HW283996   5.688   2.621   3.391
27367SOL     OW83997   4.137   9.438   9.600
27367SOL    HW183998   4.150   9.449   9.694
27367SOL    HW283999   4.162   9.347   9.583
27368SOL     OW84000   7.381   6.728  10.186
27368SOL    HW184001   7.470   6.734  10.153
27368SOL    HW284002   7.390   6.699  10.277
27369SOL     OW84003  10.837  13.090  11.620
27369SOL    HW184004  10.746  13.091  11.591
27369SOL    HW284005  10.860  12.997  11.623
27370SOL     OW84006  12.881   9.916   1.593
27370SOL    HW184007  12.840   9.910   1.507
27370SOL    HW284008  12.811   9.940   1.653
27371SOL     OW84009  14.439   2.123  11.650
27371SOL    HW184010  14.369   2.059  11.641
27371SOL    HW284011  14.394   2.205  11.673
27372SOL     OW84012   1.288  12.777   3.248
27372SOL    HW184013   1.267  12.815   3.163
27372SOL    HW284014   1.325  12.691   3.227
27373SOL     OW84015  11.593   3.555   4.202
27373SOL    HW184016  11.602   3.488   4.134
27373SOL    HW284017  11.558   3.632   4.156
27374SOL     OW84018   1.741   7.228   4.464
27374SOL    HW184019   1.832   7.211   4.445
27374SOL    HW284020   1.740   7.250   4.558
27375SOL     OW84021   7.157  11.187   0.467
27375SOL    HW184022   7.077  11.134   0.462
27375SOL    HW284023   7.184  11.197   0.376
27376SOL     OW84024   4.983   7.031  12.692
27376SOL    HW184025   5.077   7.050  12.701
27376SOL    HW284026   4.969   6.954  12.747
27377SOL     OW84027  11.948   7.546   1.101
27377SOL    HW184028  11.964   7.615   1.036
27377SOL    HW284029  11.891   7.587   1.166
27378SOL     OW84030   9.577   3.394   9.677
27378SOL    HW184031   9.569   3.321   9.739
27378SOL    HW284032   9.511   3.457   9.705
27379SOL     OW84033   2.124   8.695  13.102
27379SOL    HW184034   2.189   8.628  13.121
27379SOL    HW284035   2.062   8.653  13.042
27380SOL     OW84036   6.650  13.498  14.229
27380SOL    HW184037   6.593  13.485  14.305
27380SOL    HW284038   6.643  13.416  14.180
27381SOL     OW84039  11.452   8.798   9.785
27381SOL    HW184040  11.545   8.821   9.787
27381SOL    HW284041  11.412   8.861   9.725
27382SOL     OW84042   4.710   8.969  13.118
27382SOL    HW184043   4.779   8.966  13.184
27382SOL    HW284044   4.631   8.991  13.168
27383SOL     OW84045  11.297   1.290   5.023
27383SOL    HW184046  11.221   1.269   4.969
27383SOL    HW284047  11.285   1.237   5.102
27384SOL     OW84048   0.034  10.634  12.768
27384SOL    HW184049   0.129  10.631  12.752
27384SOL    HW284050   0.026  10.627  12.863
27385SOL     OW84051   0.795  14.583  10.245
27385SOL    HW184052   0.794  14.598  10.340
27385SOL    HW284053   0.715  14.534  10.228
27386SOL     OW84054   8.418  13.268  13.485
27386SOL    HW184055   8.409  13.363  13.489
27386SOL    HW284056   8.394  13.237  13.572
27387SOL     OW84057  12.005   6.690   8.741
27387SOL    HW184058  12.057   6.662   8.816
27387SOL    HW284059  12.063   6.750   8.693
27388SOL     OW84060  12.891   9.703   2.242
27388SOL    HW184061  12.982   9.682   2.264
27388SOL    HW284062  12.883   9.797   2.257
27389SOL     OW84063   7.464   1.854   2.446
27389SOL    HW184064   7.538   1.807   2.408
27389SOL    HW284065   7.444   1.923   2.382
27390SOL     OW84066  11.181   8.883   9.349
27390SOL    HW184067  11.168   8.791   9.324
27390SOL    HW284068  11.114   8.899   9.415
27391SOL     OW84069  11.749  14.854   2.190
27391SOL    HW184070  11.712  14.841   2.102
27391SOL    HW284071  11.732  14.771   2.235
27392SOL     OW84072   0.119   9.983   6.861
27392SOL    HW184073   0.052   9.970   6.928
27392SOL    HW284074   0.174   9.905   6.866
27393SOL     OW84075  10.947  13.644  11.687
27393SOL    HW184076  10.878  13.592  11.645
27393SOL    HW284077  10.902  13.724  11.715
27394SOL     OW84078   5.798   1.141   1.528
27394SOL    HW184079   5.876   1.125   1.582
27394SOL    HW284080   5.770   1.054   1.500
27395SOL     OW84081   6.972  13.004   0.843
27395SOL    HW184082   7.005  12.975   0.758
27395SOL    HW284083   6.878  13.015   0.829
27396SOL     OW84084   9.756   4.598   6.300
27396SOL    HW184085   9.751   4.678   6.353
27396SOL    HW284086   9.795   4.627   6.217
27397SOL     OW84087   0.123   7.968  12.098
27397SOL    HW184088   0.085   7.881  12.115
27397SOL    HW284089   0.115   8.014  12.181
27398SOL     OW84090   4.557  13.113   6.794
27398SOL    HW184091   4.592  13.024   6.804
27398SOL    HW284092   4.623  13.169   6.835
27399SOL     OW84093   0.269  10.815  10.559
27399SOL    HW184094   0.242  10.883  10.497
27399SOL    HW284095   0.199  10.815  10.625
27400SOL     OW84096   7.579  12.296  14.233
27400SOL    HW184097   7.491  12.317  14.203
27400SOL    HW284098   7.567  12.220  14.291
27401SOL     OW84099   8.705  10.769   0.077
27401SOL    HW184100   8.704  10.683   0.034
27401SOL    HW284101   8.797  10.796   0.074
27402SOL     OW84102   9.551   2.549   1.798
27402SOL    HW184103   9.466   2.593   1.797
27402SOL    HW284104   9.542   2.479   1.733
27403SOL     OW84105   0.719   5.148  11.464
27403SOL    HW184106   0.683   5.236  11.457
27403SOL    HW284107   0.645   5.090  11.448
27404SOL     OW84108   0.098   1.687   8.773
27404SOL    HW184109   0.149   1.715   8.697
27404SOL    HW284110   0.026   1.637   8.737
27405SOL     OW84111   6.338   8.064  11.087
27405SOL    HW184112   6.369   8.123  11.018
27405SOL    HW284113   6.393   7.987  11.079
27406SOL     OW84114   2.373  12.861   6.601
27406SOL    HW184115   2.440  12.808   6.558
27406SOL    HW284116   2.414  12.892   6.681
27407SOL     OW84117  10.716   7.091  13.342
27407SOL    HW184118  10.709   6.995  13.342
27407SOL    HW284119  10.767   7.111  13.264
27408SOL     OW84120   4.202  11.571   9.182
27408SOL    HW184121   4.251  11.490   9.166
27408SOL    HW284122   4.236  11.632   9.116
27409SOL     OW84123  11.024   1.111   3.292
27409SOL    HW184124  10.942   1.133   3.248
27409SOL    HW284125  10.999   1.054   3.364
27410SOL     OW84126  13.766   6.554   9.396
27410SOL    HW184127  13.807   6.629   9.352
27410SOL    HW284128  13.831   6.525   9.459
27411SOL     OW84129   1.704   6.499  11.941
27411SOL    HW184130   1.770   6.429  11.940
27411SOL    HW284131   1.630   6.463  11.891
27412SOL     OW84132   1.316   3.913  14.488
27412SOL    HW184133   1.314   3.973  14.563
27412SOL    HW284134   1.232   3.927  14.444
27413SOL     OW84135  11.409   9.170  10.247
27413SOL    HW184136  11.397   9.080  10.216
27413SOL    HW284137  11.425   9.221  10.167
27414SOL     OW84138   1.273   4.450  12.262
27414SOL    HW184139   1.318   4.369  12.237
27414SOL    HW284140   1.333   4.493  12.324
27415SOL     OW84141   6.812  12.689   9.712
27415SOL    HW184142   6.895  12.711   9.753
27415SOL    HW284143   6.836  12.636   9.636
27416SOL     OW84144  12.392   2.964   0.083
27416SOL    HW184145  12.303   2.998   0.070
27416SOL    HW284146  12.449   3.037   0.059
27417SOL     OW84147  10.624   7.194   3.841
27417SOL    HW184148  10.696   7.252   3.864
27417SOL    HW284149  10.570   7.190   3.920
27418SOL     OW84150   0.528  11.204   8.656
27418SOL    HW184151   0.562  11.287   8.689
27418SOL    HW284152   0.486  11.226   8.572
27419SOL     OW84153   4.813   4.635   1.819
27419SOL    HW184154   4.833   4.687   1.896
27419SOL    HW284155   4.762   4.693   1.763
27420SOL     OW84156   7.406   6.195  13.237
27420SOL    HW184157   7.465   6.125  13.264
27420SOL    HW284158   7.416   6.262  13.304
27421SOL     OW84159   3.245  11.530   6.213
27421SOL    HW184160   3.176  11.472   6.181
27421SOL    HW284161   3.287  11.479   6.283
27422SOL     OW84162   7.180   7.039   8.947
27422SOL    HW184163   7.167   7.086   9.029
27422SOL    HW284164   7.108   7.068   8.891
27423SOL     OW84165  12.557   1.518  14.694
27423SOL    HW184166  12.609   1.555  14.766
27423SOL    HW284167  12.491   1.465  14.738
27424SOL     OW84168  14.115   2.565   0.187
27424SOL    HW184169  14.074   2.591   0.269
27424SOL    HW284170  14.207   2.590   0.197
27425SOL     OW84171  10.200  12.376  13.427
27425SOL    HW184172  10.198  12.414  13.339
27425SOL    HW284173  10.227  12.285  13.413
27426SOL     OW84174   0.194  11.044   3.470
27426SOL    HW184175   0.212  11.033   3.563
27426SOL    HW284176   0.240  11.124   3.445
27427SOL     OW84177   3.623   8.434  10.504
27427SOL    HW184178   3.579   8.367  10.450
27427SOL    HW284179   3.706   8.393  10.529
27428SOL     OW84180   2.675  11.344  13.927
27428SOL    HW184181   2.727  11.311  13.853
27428SOL    HW284182   2.586  11.351  13.892
27429SOL     OW84183   6.809  12.488  14.361
27429SOL    HW184184   6.780  12.429  14.291
27429SOL    HW284185   6.765  12.570  14.343
27430SOL     OW84186   1.640   8.713  14.159
27430SOL    HW184187   1.612   8.757  14.079
27430SOL    HW284188   1.707   8.770  14.197
27431SOL     OW84189  10.497   9.295   6.946
27431SOL    HW184190  10.587   9.272   6.924
27431SOL    HW284191  10.503   9.335   7.033
27432SOL     OW84192   3.541   4.861   4.969
27432SOL    HW184193   3.497   4.865   5.053
27432SOL    HW284194   3.579   4.948   4.957
27433SOL     OW84195   7.109  10.300   1.935
27433SOL    HW184196   7.046  10.305   2.007
27433SOL    HW284197   7.058  10.323   1.857
27434SOL     OW84198   9.907  11.600   7.750
27434SOL    HW184199  10.000  11.579   7.759
27434SOL    HW284200   9.906  11.692   7.723
27435SOL     OW84201  13.248  13.299   8.996
27435SOL    HW184202  13.308  13.318   9.068
27435SOL    HW284203  13.178  13.248   9.037
27436SOL     OW84204   1.212   5.632   3.633
27436SOL    HW184205   1.237   5.570   3.565
27436SOL    HW284206   1.118   5.642   3.624
27437SOL     OW84207   0.542   5.111  12.036
27437SOL    HW184208   0.453   5.101  12.003
27437SOL    HW284209   0.576   5.022  12.040
27438SOL     OW84210   6.240   6.685  10.673
27438SOL    HW184211   6.320   6.633  10.677
27438SOL    HW284212   6.264   6.763  10.623
27439SOL     OW84213   6.917  14.195  10.087
27439SOL    HW184214   6.836  14.242  10.068
27439SOL    HW284215   6.898  14.144  10.166
27440SOL     OW84216  12.342  12.533   6.470
27440SOL    HW184217  12.270  12.577   6.515
27440SOL    HW284218  12.336  12.442   6.499
27441SOL     OW84219  13.172  14.598  11.196
27441SOL    HW184220  13.120  14.536  11.145
27441SOL    HW284221  13.135  14.684  11.174
27442SOL     OW84222   7.695   4.943   2.277
27442SOL    HW184223   7.693   4.848   2.268
27442SOL    HW284224   7.754   4.960   2.350
27443SOL     OW84225   5.712   5.522   1.937
27443SOL    HW184226   5.698   5.469   2.015
27443SOL    HW284227   5.725   5.611   1.970
27444SOL     OW84228   2.201   6.060   1.760
27444SOL    HW184229   2.216   6.078   1.852
27444SOL    HW284230   2.128   6.118   1.736
27445SOL     OW84231   4.078  12.053   0.213
27445SOL    HW184232   4.047  12.079   0.126
27445SOL    HW284233   4.155  12.000   0.196
27446SOL     OW84234   4.998   0.007  10.090
27446SOL    HW184235   4.994   0.090  10.042
27446SOL    HW284236   5.092  14.857  10.096
27447SOL     OW84237  14.209   5.825   9.344
27447SOL    HW184238  14.189   5.807   9.436
27447SOL    HW284239  14.188   5.918   9.333
27448SOL     OW84240  11.833   9.140   4.655
27448SOL    HW184241  11.840   9.235   4.641
27448SOL    HW284242  11.741   9.120   4.640
27449SOL     OW84243   7.238   8.414  14.359
27449SOL    HW184244   7.154   8.368  14.361
27449SOL    HW284245   7.301   8.350  14.394
27450SOL     OW84246   4.230   1.869   4.036
27450SOL    HW184247   4.221   1.896   3.944
27450SOL    HW284248   4.146   1.892   4.076
27451SOL     OW84249   4.971   2.525  12.233
27451SOL    HW184250   5.049   2.580  12.238
27451SOL    HW284251   4.899   2.588  12.225
27452SOL     OW84252  14.079   6.700  11.455
27452SOL    HW184253  14.049   6.678  11.367
27452SOL    HW284254  14.148   6.636  11.473
27453SOL     OW84255  13.082   9.807  10.288
27453SOL    HW184256  13.172   9.779  10.302
27453SOL    HW284257  13.030   9.726  10.291
27454SOL     OW84258   3.007   4.704   9.745
27454SOL    HW184259   2.924   4.747   9.763
27454SOL    HW284260   2.984   4.629   9.690
27455SOL     OW84261  12.068  12.942   4.538
27455SOL    HW184262  12.102  13.027   4.564
27455SOL    HW284263  11.973  12.954   4.532
27456SOL     OW84264   9.884   4.792  10.631
27456SOL    HW184265   9.819   4.723  10.622
27456SOL    HW284266   9.854   4.844  10.706
27457SOL     OW84267  10.041   7.481   8.960
27457SOL    HW184268  10.056   7.573   8.940
27457SOL    HW284269  10.103   7.461   9.030
27458SOL     OW84270   4.073  14.130   6.029
27458SOL    HW184271   4.075  14.220   5.995
27458SOL    HW284272   4.064  14.075   5.951
27459SOL     OW84273   4.821  13.498   3.472
27459SOL    HW184274   4.891  13.475   3.534
27459SOL    HW284275   4.755  13.430   3.484
27460SOL     OW84276  11.632  10.951  11.068
27460SOL    HW184277  11.683  11.014  11.118
27460SOL    HW284278  11.549  10.944  11.115
27461SOL     OW84279   5.802   3.983   5.958
27461SOL    HW184280   5.894   3.956   5.961
27461SOL    HW284281   5.753   3.903   5.979
27462SOL     OW84282   9.246   2.096   7.468
27462SOL    HW184283   9.310   2.137   7.410
27462SOL    HW284284   9.161   2.116   7.429
27463SOL     OW84285   0.163   8.140  12.635
27463SOL    HW184286   0.230   8.102  12.691
27463SOL    HW284287   0.081   8.126  12.683
27464SOL     OW84288  11.883   4.086   6.886
27464SOL    HW184289  11.830   4.095   6.807
27464SOL    HW284290  11.970   4.063   6.855
27465SOL     OW84291   4.005   7.721   4.593
27465SOL    HW184292   3.982   7.634   4.561
27465SOL    HW284293   3.956   7.781   4.538
27466SOL     OW84294   8.687   9.079   2.203
27466SOL    HW184295   8.705   9.006   2.144
27466SOL    HW284296   8.755   9.144   2.183
27467SOL     OW84297   1.569   9.264   1.019
27467SOL    HW184298   1.664   9.258   1.035
27467SOL    HW284299   1.530   9.214   1.090
27468SOL     OW84300   9.394  10.032  14.230
27468SOL    HW184301   9.308  10.003  14.200
27468SOL    HW284302   9.414   9.975  14.304
27469SOL     OW84303   1.235   0.485   8.757
27469SOL    HW184304   1.271   0.398   8.737
27469SOL    HW284305   1.291   0.518   8.826
27470SOL     OW84306  12.433   3.749   4.701
27470SOL    HW184307  12.403   3.750   4.610
27470SOL    HW284308  12.391   3.672   4.740
27471SOL     OW84309  12.058   4.591  12.822
27471SOL    HW184310  11.986   4.648  12.848
27471SOL    HW284311  12.021   4.534  12.755
27472SOL     OW84312   0.277   1.508   8.624
27472SOL    HW184313   0.186   1.478   8.627
27472SOL    HW284314   0.324   1.450   8.684
27473SOL     OW84315   7.261   5.054  10.587
27473SOL    HW184316   7.168   5.073  10.570
27473SOL    HW284317   7.260   4.994  10.661
27474SOL     OW84318  10.611  12.140   9.771
27474SOL    HW184319  10.690  12.150   9.717
27474SOL    HW284320  10.620  12.054   9.810
27475SOL     OW84321  10.258  10.891   3.917
27475SOL    HW184322  10.241  10.873   3.825
27475SOL    HW284323  10.331  10.954   3.916
27476SOL     OW84324   6.308   4.719  14.464
27476SOL    HW184325   6.315   4.811  14.436
27476SOL    HW284326   6.382   4.706  14.523
27477SOL     OW84327   2.160   2.646  10.205
27477SOL    HW184328   2.075   2.682  10.228
27477SOL    HW284329   2.146   2.551  10.201
27478SOL     OW84330   4.034   9.896   0.148
27478SOL    HW184331   3.984   9.814   0.147
27478SOL    HW284332   4.060   9.910   0.057
27479SOL     OW84333  12.855   2.695   4.215
27479SOL    HW184334  12.790   2.718   4.281
27479SOL    HW284335  12.939   2.704   4.260
27480SOL     OW84336   2.437   4.405   5.097
27480SOL    HW184337   2.419   4.362   5.181
27480SOL    HW284338   2.532   4.416   5.097
27481SOL     OW84339   0.221   4.380   0.145
27481SOL    HW184340   0.299   4.419   0.107
27481SOL    HW284341   0.239   4.378   0.239
27482SOL     OW84342  12.047   4.813  14.073
27482SOL    HW184343  12.033   4.823  13.979
27482SOL    HW284344  11.984   4.873  14.113
27483SOL     OW84345   7.792   3.345   2.599
27483SOL    HW184346   7.793   3.439   2.582
27483SOL    HW284347   7.881   3.316   2.580
27484SOL     OW84348  11.807  11.095   9.258
27484SOL    HW184349  11.873  11.038   9.298
27484SOL    HW284350  11.737  11.100   9.323
27485SOL     OW84351   3.722   9.943  12.215
27485SOL    HW184352   3.702   9.896  12.296
27485SOL    HW284353   3.667   9.901  12.149
27486SOL     OW84354  10.475   3.265   4.970
27486SOL    HW184355  10.395   3.216   4.991
27486SOL    HW284356  10.528   3.258   5.050
27487SOL     OW84357   1.421  14.581   1.501
27487SOL    HW184358   1.369  14.629   1.565
27487SOL    HW284359   1.486  14.645   1.471
27488SOL     OW84360   3.701  10.785   4.388
27488SOL    HW184361   3.613  10.823   4.389
27488SOL    HW284362   3.713  10.754   4.298
27489SOL     OW84363  14.501   6.973  13.698
27489SOL    HW184364  14.577   7.027  13.678
27489SOL    HW284365  14.523   6.930  13.780
27490SOL     OW84366   1.952  11.397   8.415
27490SOL    HW184367   1.900  11.466   8.455
27490SOL    HW284368   1.961  11.424   8.323
27491SOL     OW84369   7.669   4.026   4.494
27491SOL    HW184370   7.681   3.932   4.481
27491SOL    HW284371   7.735   4.050   4.558
27492SOL     OW84372   2.821   3.590   9.795
27492SOL    HW184373   2.759   3.658   9.823
27492SOL    HW284374   2.862   3.626   9.717
27493SOL     OW84375   0.801   4.905   8.408
27493SOL    HW184376   0.877   4.908   8.466
27493SOL    HW284377   0.815   4.976   8.345
27494SOL     OW84378   3.408   5.563   9.460
27494SOL    HW184379   3.361   5.629   9.511
27494SOL    HW284380   3.438   5.500   9.526
27495SOL     OW84381   3.061   6.716  14.661
27495SOL    HW184382   3.131   6.769  14.623
27495SOL    HW284383   3.095   6.626  14.656
27496SOL     OW84384   9.062   8.237   9.176
27496SOL    HW184385   9.150   8.199   9.177
27496SOL    HW284386   9.027   8.216   9.089
27497SOL     OW84387   9.854   0.603   1.368
27497SOL    HW184388   9.919   0.660   1.408
27497SOL    HW284389   9.848   0.528   1.428
27498SOL     OW84390   5.935  10.626   1.388
27498SOL    HW184391   5.856  10.677   1.370
27498SOL    HW284392   5.908  10.535   1.377
27499SOL     OW84393   5.533  14.766   6.989
27499SOL    HW184394   5.516  14.859   6.976
27499SOL    HW284395   5.609  14.762   7.046
27500SOL     OW84396   1.062  13.998   9.021
27500SOL    HW184397   1.094  14.036   9.103
27500SOL    HW284398   1.141  13.975   8.972
27501SOL     OW84399   1.862   5.033  14.431
27501SOL    HW184400   1.814   5.116  14.427
27501SOL    HW284401   1.878   5.019  14.524
27502SOL     OW84402  10.275  13.574  11.655
27502SOL    HW184403  10.337  13.509  11.622
27502SOL    HW284404  10.238  13.615  11.576
27503SOL     OW84405   2.215  13.230  10.270
27503SOL    HW184406   2.149  13.290  10.304
27503SOL    HW284407   2.255  13.277  10.197
27504SOL     OW84408  12.062  14.217   8.356
27504SOL    HW184409  12.087  14.236   8.446
27504SOL    HW284410  12.120  14.274   8.304
27505SOL     OW84411  11.060   7.069   4.545
27505SOL    HW184412  11.021   6.984   4.524
27505SOL    HW284413  10.992   7.115   4.595
27506SOL     OW84414  14.823   9.188   9.098
27506SOL    HW184415   0.030   9.151   9.142
27506SOL    HW284416  14.749   9.164   9.153
27507SOL     OW84417   1.868   6.255   6.883
27507SOL    HW184418   1.855   6.221   6.972
27507SOL    HW284419   1.781   6.280   6.853
27508SOL     OW84420  10.368  10.813   7.695
27508SOL    HW184421  10.398  10.838   7.782
27508SOL    HW284422  10.413  10.875   7.636
27509SOL     OW84423   5.332   1.527   3.571
27509SOL    HW184424   5.365   1.442   3.599
27509SOL    HW284425   5.322   1.578   3.652
27510SOL     OW84426  13.472   4.586   4.646
27510SOL    HW184427  13.488   4.493   4.663
27510SOL    HW284428  13.422   4.616   4.721
27511SOL     OW84429   0.681   3.124  14.071
27511SOL    HW184430   0.693   3.081  14.156
27511SOL    HW284431   0.680   3.218  14.091
27512SOL     OW84432   6.170   0.686   5.302
27512SOL    HW184433   6.247   0.693   5.358
27512SOL    HW284434   6.105   0.743   5.342
27513SOL     OW84435   4.896  13.427   9.294
27513SOL    HW184436   4.980  13.445   9.334
27513SOL    HW284437   4.856  13.361   9.351
27514SOL     OW84438   2.012   2.197   1.491
27514SOL    HW184439   2.064   2.117   1.503
27514SOL    HW284440   1.960   2.180   1.412
27515SOL     OW84441  11.598  13.748  14.391
27515SOL    HW184442  11.676  13.695  14.407
27515SOL    HW284443  11.632  13.837  14.377
27516SOL     OW84444  11.115   1.273  12.914
27516SOL    HW184445  11.037   1.234  12.875
27516SOL    HW284446  11.177   1.281  12.841
27517SOL     OW84447  13.949   9.243   8.784
27517SOL    HW184448  13.928   9.258   8.691
27517SOL    HW284449  13.935   9.328   8.826
27518SOL     OW84450   0.418  11.439  12.590
27518SOL    HW184451   0.434  11.494  12.666
27518SOL    HW284452   0.409  11.501  12.517
27519SOL     OW84453   1.623  12.396   4.408
27519SOL    HW184454   1.570  12.384   4.329
27519SOL    HW284455   1.711  12.412   4.377
27520SOL     OW84456   4.032   7.772   7.544
27520SOL    HW184457   3.961   7.819   7.589
27520SOL    HW284458   4.014   7.784   7.451
27521SOL     OW84459  10.197   6.233   5.072
27521SOL    HW184460  10.181   6.276   4.988
27521SOL    HW284461  10.151   6.149   5.065
27522SOL     OW84462   5.167  10.051   2.714
27522SOL    HW184463   5.118   9.976   2.747
27522SOL    HW284464   5.152  10.048   2.619
27523SOL     OW84465   0.136   9.768  13.086
27523SOL    HW184466   0.109   9.689  13.038
27523SOL    HW284467   0.231   9.768  13.080
27524SOL     OW84468   7.661  14.205  10.429
27524SOL    HW184469   7.686  14.290  10.468
27524SOL    HW284470   7.739  14.177  10.381
27525SOL     OW84471   0.934   0.837   5.080
27525SOL    HW184472   0.991   0.812   5.008
27525SOL    HW284473   0.872   0.899   5.042
27526SOL     OW84474  12.305  11.838   1.399
27526SOL    HW184475  12.213  11.839   1.371
27526SOL    HW284476  12.353  11.807   1.323
27527SOL     OW84477   0.589   6.956   2.535
27527SOL    HW184478   0.594   7.052   2.536
27527SOL    HW284479   0.544   6.934   2.617
27528SOL     OW84480   9.594  11.128  14.640
27528SOL    HW184481   9.630  11.115  14.552
27528SOL    HW284482   9.581  11.039  14.674
27529SOL     OW84483   2.897  10.899   2.097
27529SOL    HW184484   2.954  10.853   2.159
27529SOL    HW284485   2.955  10.926   2.026
27530SOL     OW84486   3.891  10.276   5.430
27530SOL    HW184487   3.904  10.191   5.472
27530SOL    HW284488   3.803  10.303   5.454
27531SOL     OW84489   2.582  12.679   0.218
27531SOL    HW184490   2.564  12.772   0.207
27531SOL    HW284491   2.644  12.658   0.148
27532SOL     OW84492   2.878   9.336  12.455
27532SOL    HW184493   2.886   9.408  12.517
27532SOL    HW284494   2.786   9.335  12.431
27533SOL     OW84495   9.657   6.938  11.389
27533SOL    HW184496   9.680   6.897  11.305
27533SOL    HW284497   9.583   6.995  11.368
27534SOL     OW84498   4.110  13.936  12.963
27534SOL    HW184499   4.195  13.973  12.987
27534SOL    HW284500   4.115  13.922  12.868
27535SOL     OW84501  10.745   8.972   4.542
27535SOL    HW184502  10.774   8.905   4.480
27535SOL    HW284503  10.668   8.934   4.585
27536SOL     OW84504  11.350   5.007   0.950
27536SOL    HW184505  11.287   5.035   0.884
27536SOL    HW284506  11.297   4.978   1.024
27537SOL     OW84507   2.057   7.407   5.556
27537SOL    HW184508   2.025   7.496   5.567
27537SOL    HW284509   1.987   7.362   5.508
27538SOL     OW84510   8.047   0.477   0.159
27538SOL    HW184511   8.012   0.448   0.075
27538SOL    HW284512   8.051   0.572   0.151
27539SOL     OW84513   0.050  14.582   6.781
27539SOL    HW184514   0.111  14.654   6.766
27539SOL    HW284515  14.862  14.584   6.705
27540SOL     OW84516   8.669   0.546   5.818
27540SOL    HW184517   8.638   0.481   5.754
27540SOL    HW284518   8.709   0.494   5.888
27541SOL     OW84519   0.780  14.057   0.488
27541SOL    HW184520   0.872  14.083   0.490
27541SOL    HW284521   0.781  13.969   0.451
27542SOL     OW84522   7.677   1.342   8.348
27542SOL    HW184523   7.708   1.262   8.391
27542SOL    HW284524   7.590   1.319   8.315
27543SOL     OW84525   9.854   1.376   8.450
27543SOL    HW184526   9.874   1.415   8.535
27543SOL    HW284527   9.887   1.287   8.456
27544SOL     OW84528   5.430  11.874   5.180
27544SOL    HW184529   5.473  11.879   5.095
27544SOL    HW284530   5.358  11.937   5.175
27545SOL     OW84531   2.418  11.303   4.485
27545SOL    HW184532   2.481  11.343   4.426
27545SOL    HW284533   2.432  11.348   4.569
27546SOL     OW84534   4.004   2.221   9.272
27546SOL    HW184535   4.006   2.294   9.334
27546SOL    HW284536   4.094   2.188   9.270
27547SOL     OW84537   2.516   2.034   7.315
27547SOL    HW184538   2.422   2.037   7.332
27547SOL    HW284539   2.556   2.073   7.393
27548SOL     OW84540  11.458   4.746   9.985
27548SOL    HW184541  11.422   4.764  10.072
27548SOL    HW284542  11.396   4.786   9.925
27549SOL     OW84543  12.440  14.507   7.084
27549SOL    HW184544  12.480  14.579   7.034
27549SOL    HW284545  12.444  14.536   7.175
27550SOL     OW84546   5.733   1.376   0.921
27550SOL    HW184547   5.814   1.354   0.966
27550SOL    HW284548   5.760   1.410   0.836
27551SOL     OW84549  11.628  14.084   0.267
27551SOL    HW184550  11.539  14.105   0.238
27551SOL    HW284551  11.680  14.081   0.186
27552SOL     OW84552   5.400   2.208  12.475
27552SOL    HW184553   5.464   2.269  12.439
27552SOL    HW284554   5.384   2.240  12.564
27553SOL     OW84555  11.931   5.247   2.100
27553SOL    HW184556  11.893   5.184   2.161
27553SOL    HW284557  11.979   5.192   2.037
27554SOL     OW84558  13.571   3.681   5.147
27554SOL    HW184559  13.577   3.774   5.165
27554SOL    HW284560  13.604   3.639   5.226
27555SOL     OW84561   9.331   0.171   8.669
27555SOL    HW184562   9.422   0.184   8.643
27555SOL    HW284563   9.281   0.235   8.618
27556SOL     OW84564  13.574   9.435   4.414
27556SOL    HW184565  13.628   9.506   4.447
27556SOL    HW284566  13.624   9.399   4.341
27557SOL     OW84567   5.689   1.556   7.095
27557SOL    HW184568   5.668   1.539   7.187
27557SOL    HW284569   5.731   1.642   7.095
27558SOL     OW84570   6.701  11.740  11.071
27558SOL    HW184571   6.689  11.741  10.977
27558SOL    HW284572   6.734  11.652  11.091
27559SOL     OW84573   5.029   4.590   0.947
27559SOL    HW184574   5.090   4.650   0.991
27559SOL    HW284575   4.944   4.634   0.953
27560SOL     OW84576   2.352  12.047   5.151
27560SOL    HW184577   2.390  12.122   5.196
27560SOL    HW284578   2.352  11.977   5.216
27561SOL     OW84579   6.521   5.493   0.243
27561SOL    HW184580   6.507   5.571   0.297
27561SOL    HW284581   6.527   5.526   0.153
27562SOL     OW84582   0.766   1.483   0.110
27562SOL    HW184583   0.798   1.405   0.064
27562SOL    HW284584   0.671   1.473   0.109
27563SOL     OW84585   2.893   0.993   5.299
27563SOL    HW184586   2.977   0.962   5.332
27563SOL    HW284587   2.834   0.918   5.307
27564SOL     OW84588   8.912  10.099   9.700
27564SOL    HW184589   8.905  10.182   9.747
27564SOL    HW284590   8.996  10.105   9.654
27565SOL     OW84591   0.256   3.520   8.226
27565SOL    HW184592   0.258   3.424   8.232
27565SOL    HW284593   0.309   3.540   8.149
27566SOL     OW84594   2.268  14.746   4.604
27566SOL    HW184595   2.251  14.675   4.542
27566SOL    HW284596   2.298  14.818   4.549
27567SOL     OW84597   7.894  11.158   9.809
27567SOL    HW184598   7.915  11.222   9.876
27567SOL    HW284599   7.832  11.098   9.851
27568SOL     OW84600   0.253   8.032   9.315
27568SOL    HW184601   0.208   8.113   9.290
27568SOL    HW284602   0.320   8.060   9.377
27569SOL     OW84603  11.335   7.948   3.923
27569SOL    HW184604  11.292   7.993   3.996
27569SOL    HW284605  11.263   7.913   3.871
27570SOL     OW84606   2.500   4.847  12.412
27570SOL    HW184607   2.583   4.873  12.372
27570SOL    HW284608   2.496   4.752  12.400
27571SOL     OW84609   0.676   9.373  10.798
27571SOL    HW184610   0.664   9.288  10.755
27571SOL    HW284611   0.741   9.418  10.744
27572SOL     OW84612   8.953  11.777   9.884
27572SOL    HW184613   8.893  11.718   9.930
27572SOL    HW284614   8.904  11.807   9.807
27573SOL     OW84615  10.643   9.382   5.371
27573SOL    HW184616  10.561   9.367   5.417
27573SOL    HW284617  10.621   9.375   5.278
27574SOL     OW84618   3.654   2.363  11.941
27574SOL    HW184619   3.704   2.434  11.980
27574SOL    HW284620   3.564   2.376  11.972
27575SOL     OW84621  14.352  12.739   2.960
27575SOL    HW184622  14.317  12.750   2.871
27575SOL    HW284623  14.294  12.792   3.015
27576SOL     OW84624   2.415   0.695   8.446
27576SOL    HW184625   2.463   0.657   8.372
27576SOL    HW284626   2.436   0.789   8.442
27577SOL     OW84627   4.815  14.748   9.442
27577SOL    HW184628   4.899  14.765   9.485
27577SOL    HW284629   4.774  14.679   9.495
27578SOL     OW84630   2.825  13.887   0.685
27578SOL    HW184631   2.857  13.838   0.761
27578SOL    HW284632   2.745  13.841   0.660
27579SOL     OW84633   1.131   1.875   8.075
27579SOL    HW184634   1.086   1.930   8.010
27579SOL    HW284635   1.064   1.857   8.142
27580SOL     OW84636   4.701   6.163  12.583
27580SOL    HW184637   4.647   6.220  12.638
27580SOL    HW284638   4.789   6.200  12.590
27581SOL     OW84639  12.897  12.140   3.080
27581SOL    HW184640  12.923  12.048   3.081
27581SOL    HW284641  12.804  12.139   3.105
27582SOL     OW84642   0.532  13.558   3.776
27582SOL    HW184643   0.525  13.607   3.694
27582SOL    HW284644   0.546  13.467   3.749
27583SOL     OW84645  11.651   3.894   5.843
27583SOL    HW184646  11.686   3.807   5.863
27583SOL    HW284647  11.658   3.901   5.748
27584SOL     OW84648   3.523   5.063  14.410
27584SOL    HW184649   3.429   5.077  14.413
27584SOL    HW284650   3.559   5.128  14.470
27585SOL     OW84651  12.852  12.803   5.595
27585SOL    HW184652  12.772  12.846   5.566
27585SOL    HW284653  12.830  12.710   5.596
27586SOL     OW84654  10.067   8.988   0.446
27586SOL    HW184655   9.989   9.005   0.393
27586SOL    HW284656  10.139   8.981   0.383
27587SOL     OW84657   4.645   6.796   6.954
27587SOL    HW184658   4.622   6.721   7.009
27587SOL    HW284659   4.580   6.863   6.976
27588SOL     OW84660   5.433   0.396   2.838
27588SOL    HW184661   5.338   0.386   2.825
27588SOL    HW284662   5.442   0.415   2.931
27589SOL     OW84663   9.970   6.227   6.959
27589SOL    HW184664  10.025   6.232   7.037
27589SOL    HW284665   9.954   6.134   6.946
27590SOL     OW84666  14.589  14.265   7.871
27590SOL    HW184667  14.659  14.329   7.861
27590SOL    HW284668  14.581  14.252   7.965
27591SOL     OW84669  14.377  13.877   1.872
27591SOL    HW184670  14.396  13.909   1.960
27591SOL    HW284671  14.357  13.784   1.884
27592SOL     OW84672   1.704   6.601   4.160
27592SOL    HW184673   1.627   6.648   4.126
27592SOL    HW284674   1.675   6.511   4.169
27593SOL     OW84675  10.920  11.199  14.254
27593SOL    HW184676  11.010  11.173  14.273
27593SOL    HW284677  10.903  11.163  14.167
27594SOL     OW84678  10.533   7.479   8.811
27594SOL    HW184679  10.612   7.470   8.864
27594SOL    HW284680  10.466   7.431   8.860
27595SOL     OW84681   0.413  12.036   0.441
27595SOL    HW184682   0.434  11.982   0.517
27595SOL    HW284683   0.366  11.977   0.382
27596SOL     OW84684   9.516   8.061   4.214
27596SOL    HW184685   9.496   8.041   4.305
27596SOL    HW284686   9.585   8.000   4.190
27597SOL     OW84687   4.937  10.506   6.533
27597SOL    HW184688   4.898  10.585   6.571
27597SOL    HW284689   5.006  10.539   6.475
27598SOL     OW84690   4.942   2.981  12.386
27598SOL    HW184691   4.915   2.897  12.423
27598SOL    HW284692   4.869   3.008  12.332
27599SOL     OW84693  11.195  12.497   4.592
27599SOL    HW184694  11.196  12.421   4.534
27599SOL    HW284695  11.140  12.470   4.666
27600SOL     OW84696   3.844   4.542   9.441
27600SOL    HW184697   3.887   4.482   9.502
27600SOL    HW284698   3.795   4.602   9.497
27601SOL     OW84699   0.672  10.209   6.834
27601SOL    HW184700   0.693  10.176   6.922
27601SOL    HW284701   0.611  10.281   6.849
27602SOL     OW84702   7.400   7.555  14.292
27602SOL    HW184703   7.381   7.469  14.256
27602SOL    HW284704   7.315   7.600  14.293
27603SOL     OW84705  11.516   4.711  12.553
27603SOL    HW184706  11.590   4.652  12.544
27603SOL    HW284707  11.475   4.712  12.466
27604SOL     OW84708   1.694   9.657   6.375
27604SOL    HW184709   1.704   9.752   6.370
27604SOL    HW284710   1.678   9.630   6.284
27605SOL     OW84711   2.226   8.658   2.942
27605SOL    HW184712   2.182   8.584   2.983
27605SOL    HW284713   2.319   8.642   2.957
27606SOL     OW84714   6.157   2.551  14.102
27606SOL    HW184715   6.241   2.504  14.098
27606SOL    HW284716   6.179   2.641  14.078
27607SOL     OW84717   0.508  10.901   1.267
27607SOL    HW184718   0.467  10.966   1.323
27607SOL    HW284719   0.557  10.844   1.327
27608SOL     OW84720  10.333  11.906  10.742
27608SOL    HW184721  10.371  11.956  10.814
27608SOL    HW284722  10.343  11.814  10.769
27609SOL     OW84723  13.959   2.260   4.170
27609SOL    HW184724  13.947   2.258   4.264
27609SOL    HW284725  13.883   2.308   4.137
27610SOL     OW84726  11.296   5.276   3.319
27610SOL    HW184727  11.233   5.317   3.259
27610SOL    HW284728  11.382   5.296   3.281
27611SOL     OW84729   3.778   2.623   0.515
27611SOL    HW184730   3.871   2.642   0.508
27611SOL    HW284731   3.767   2.588   0.604
27612SOL     OW84732   7.050   3.673  13.046
27612SOL    HW184733   7.092   3.748  13.088
27612SOL    HW284734   7.116   3.603  13.051
27613SOL     OW84735   0.522   0.444   4.366
27613SOL    HW184736   0.564   0.449   4.280
27613SOL    HW284737   0.522   0.350   4.387
27614SOL     OW84738  13.304  14.424   4.227
27614SOL    HW184739  13.261  14.364   4.288
27614SOL    HW284740  13.316  14.373   4.147
27615SOL     OW84741   0.482   8.524   9.294
27615SOL    HW184742   0.423   8.470   9.243
27615SOL    HW284743   0.569   8.494   9.271
27616SOL     OW84744   5.687   8.846   3.529
27616SOL    HW184745   5.739   8.921   3.558
27616SOL    HW284746   5.724   8.823   3.443
27617SOL     OW84747   1.569  13.876   3.281
27617SOL    HW184748   1.626  13.819   3.229
27617SOL    HW284749   1.570  13.959   3.234
27618SOL     OW84750   5.578  10.151   9.465
27618SOL    HW184751   5.494  10.105   9.453
27618SOL    HW284752   5.630  10.125   9.389
27619SOL     OW84753   7.054   1.941  10.635
27619SOL    HW184754   7.011   1.962  10.718
27619SOL    HW284755   7.009   1.994  10.570
27620SOL     OW84756   7.584   0.534   6.885
27620SOL    HW184757   7.579   0.549   6.790
27620SOL    HW284758   7.674   0.558   6.908
27621SOL     OW84759   6.712   9.076   8.346
27621SOL    HW184760   6.753   9.107   8.265
27621SOL    HW284761   6.712   9.152   8.404
27622SOL     OW84762   3.250   5.809   4.333
27622SOL    HW184763   3.335   5.847   4.311
27622SOL    HW284764   3.203   5.804   4.250
27623SOL     OW84765   2.568   9.645   0.485
27623SOL    HW184766   2.602   9.628   0.397
27623SOL    HW284767   2.608   9.728   0.510
27624SOL     OW84768   3.354   9.671   6.297
27624SOL    HW184769   3.342   9.617   6.375
27624SOL    HW284770   3.293   9.744   6.308
27625SOL     OW84771  13.102  13.532   2.332
27625SOL    HW184772  13.017  13.543   2.291
27625SOL    HW284773  13.118  13.438   2.328
27626SOL     OW84774   5.203   0.028   7.038
27626SOL    HW184775   5.285  14.848   7.046
27626SOL    HW284776   5.220   0.111   7.083
27627SOL     OW84777   4.766   7.954   9.501
27627SOL    HW184778   4.822   7.892   9.454
27627SOL    HW284779   4.782   7.936   9.593
27628SOL     OW84780   3.608  14.689   5.651
27628SOL    HW184781   3.555  14.698   5.571
27628SOL    HW284782   3.680  14.750   5.638
27629SOL     OW84783   6.416  14.174   2.185
27629SOL    HW184784   6.348  14.219   2.235
27629SOL    HW284785   6.418  14.219   2.101
27630SOL     OW84786   1.552   4.203   5.692
27630SOL    HW184787   1.510   4.117   5.685
27630SOL    HW284788   1.502   4.249   5.760
27631SOL     OW84789   0.933   6.755  13.445
27631SOL    HW184790   0.955   6.666  13.420
27631SOL    HW284791   0.897   6.748  13.533
27632SOL     OW84792   2.353  13.234  13.737
27632SOL    HW184793   2.272  13.227  13.687
27632SOL    HW284794   2.421  13.207  13.676
27633SOL     OW84795   1.713   2.404  14.773
27633SOL    HW184796   1.765   2.467  14.722
27633SOL    HW284797   1.624   2.440  14.770
27634SOL     OW84798   3.677   5.391   4.839
27634SOL    HW184799   3.695   5.478   4.804
27634SOL    HW284800   3.630   5.346   4.768
27635SOL     OW84801   3.506  11.754  10.042
27635SOL    HW184802   3.471  11.738  10.130
27635SOL    HW284803   3.526  11.667  10.008
27636SOL     OW84804  12.653   0.143   7.769
27636SOL    HW184805  12.677   0.194   7.846
27636SOL    HW284806  12.563   0.169   7.749
27637SOL     OW84807  11.066   5.746   1.798
27637SOL    HW184808  11.091   5.821   1.852
27637SOL    HW284809  10.989   5.775   1.751
27638SOL     OW84810   3.633   2.260   0.999
27638SOL    HW184811   3.610   2.207   1.075
27638SOL    HW284812   3.729   2.258   0.996
27639SOL     OW84813   0.220   7.435   0.497
27639SOL    HW184814   0.197   7.343   0.510
27639SOL    HW284815   0.289   7.452   0.561
27640SOL     OW84816   5.355  11.548   7.182
27640SOL    HW184817   5.396  11.496   7.113
27640SOL    HW284818   5.416  11.543   7.256
27641SOL     OW84819   7.516   5.485  10.728
27641SOL    HW184820   7.604   5.451  10.717
27641SOL    HW284821   7.459   5.411  10.706
27642SOL     OW84822   7.405   6.841  11.633
27642SOL    HW184823   7.345   6.912  11.653
27642SOL    HW284824   7.362   6.792  11.563
27643SOL     OW84825   3.665   3.084   5.493
27643SOL    HW184826   3.609   3.028   5.439
27643SOL    HW284827   3.705   3.145   5.431
27644SOL     OW84828  10.894  12.603   2.977
27644SOL    HW184829  10.890  12.692   3.014
27644SOL    HW284830  10.807  12.589   2.939
27645SOL     OW84831   2.066   2.552   4.443
27645SOL    HW184832   2.034   2.612   4.511
27645SOL    HW284833   2.050   2.465   4.479
27646SOL     OW84834   2.809  12.947   5.000
27646SOL    HW184835   2.809  12.852   5.009
27646SOL    HW284836   2.825  12.962   4.907
27647SOL     OW84837   2.060   2.261   8.046
27647SOL    HW184838   2.061   2.305   7.961
27647SOL    HW284839   2.096   2.326   8.107
27648SOL     OW84840   5.496   6.088   5.182
27648SOL    HW184841   5.447   6.169   5.197
27648SOL    HW284842   5.475   6.063   5.093
27649SOL     OW84843   5.412  11.398   0.234
27649SOL    HW184844   5.352  11.447   0.178
27649SOL    HW284845   5.434  11.320   0.183
27650SOL     OW84846   9.959   6.202  14.788
27650SOL    HW184847  10.001   6.116  14.798
27650SOL    HW284848   9.901   6.192  14.713
27651SOL     OW84849   2.582   7.816   8.863
27651SOL    HW184850   2.569   7.894   8.916
27651SOL    HW284851   2.617   7.848   8.780
27652SOL     OW84852   8.100   0.089   4.674
27652SOL    HW184853   8.165   0.158   4.686
27652SOL    HW284854   8.026   0.117   4.728
27653SOL     OW84855  13.525   4.816   8.105
27653SOL    HW184856  13.490   4.821   8.016
27653SOL    HW284857  13.456   4.853   8.160
27654SOL     OW84858  11.505   5.302  10.642
27654SOL    HW184859  11.542   5.323  10.556
27654SOL    HW284860  11.442   5.233  10.624
27655SOL     OW84861   0.582  13.225  14.218
27655SOL    HW184862   0.663  13.272  14.236
27655SOL    HW284863   0.513  13.292  14.226
27656SOL     OW84864   6.167   5.744  10.085
27656SOL    HW184865   6.155   5.689  10.163
27656SOL    HW284866   6.161   5.682  10.012
27657SOL     OW84867   9.389   7.244  13.372
27657SOL    HW184868   9.398   7.303  13.447
27657SOL    HW284869   9.372   7.303  13.298
27658SOL     OW84870  11.442   7.522   6.466
27658SOL    HW184871  11.526   7.566   6.466
27658SOL    HW284872  11.385   7.579   6.414
27659SOL     OW84873   7.214  10.159   3.705
27659SOL    HW184874   7.244  10.081   3.751
27659SOL    HW284875   7.124  10.139   3.681
27660SOL     OW84876   4.001   4.933   3.814
27660SOL    HW184877   3.907   4.923   3.831
27660SOL    HW284878   4.026   5.012   3.862
27661SOL     OW84879  11.416   5.417  13.682
27661SOL    HW184880  11.372   5.498  13.656
27661SOL    HW284881  11.371   5.349  13.631
27662SOL     OW84882   7.297   6.106  10.669
27662SOL    HW184883   7.385   6.096  10.707
27662SOL    HW284884   7.312   6.137  10.580
27663SOL     OW84885  14.700   8.802  13.240
27663SOL    HW184886  14.622   8.828  13.191
27663SOL    HW284887  14.770   8.803  13.176
27664SOL     OW84888   5.381   7.353  13.051
27664SOL    HW184889   5.443   7.372  13.121
27664SOL    HW284890   5.366   7.259  13.058
27665SOL     OW84891   4.495   2.582   3.850
27665SOL    HW184892   4.432   2.651   3.871
27665SOL    HW284893   4.575   2.628   3.825
27666SOL     OW84894   4.386   3.238   6.292
27666SOL    HW184895   4.364   3.316   6.343
27666SOL    HW284896   4.361   3.260   6.202
27667SOL     OW84897  12.137   0.580   6.417
27667SOL    HW184898  12.089   0.498   6.418
27667SOL    HW284899  12.186   0.578   6.335
27668SOL     OW84900   9.833  11.401   8.050
27668SOL    HW184901   9.887  11.359   7.983
27668SOL    HW284902   9.750  11.420   8.006
27669SOL     OW84903   0.228  10.329  12.802
27669SOL    HW184904   0.239  10.423  12.784
27669SOL    HW284905   0.294  10.310  12.869
27670SOL     OW84906  12.870   5.093   7.217
27670SOL    HW184907  12.809   5.044   7.272
27670SOL    HW284908  12.953   5.047   7.226
27671SOL     OW84909   3.477   6.559  10.583
27671SOL    HW184910   3.560   6.601  10.607
27671SOL    HW284911   3.410   6.614  10.622
27672SOL     OW84912  11.246   6.706   9.704
27672SOL    HW184913  11.207   6.619   9.694
27672SOL    HW284914  11.341   6.689   9.709
27673SOL     OW84915  10.339   8.697   5.249
27673SOL    HW184916  10.355   8.689   5.343
27673SOL    HW284917  10.248   8.668   5.238
27674SOL     OW84918  13.466   6.166   5.320
27674SOL    HW184919  13.397   6.104   5.296
27674SOL    HW284920  13.479   6.153   5.414
27675SOL     OW84921  12.159  11.629   0.749
27675SOL    HW184922  12.187  11.659   0.835
27675SOL    HW284923  12.237  11.637   0.694
27676SOL     OW84924   6.737  10.360   6.918
27676SOL    HW184925   6.754  10.283   6.971
27676SOL    HW284926   6.794  10.349   6.841
27677SOL     OW84927  13.734  10.464   0.510
27677SOL    HW184928  13.713  10.411   0.587
27677SOL    HW284929  13.773  10.544   0.546
27678SOL     OW84930  10.413  10.480  10.658
27678SOL    HW184931  10.418  10.501  10.751
27678SOL    HW284932  10.321  10.496  10.634
27679SOL     OW84933  11.066   7.805   4.302
27679SOL    HW184934  11.024   7.719   4.312
27679SOL    HW284935  11.159   7.788   4.316
27680SOL     OW84936   9.770  14.224   4.739
27680SOL    HW184937   9.813  14.265   4.664
27680SOL    HW284938   9.812  14.263   4.815
27681SOL     OW84939   5.134   2.998   4.563
27681SOL    HW184940   5.085   2.978   4.484
27681SOL    HW284941   5.226   3.000   4.535
27682SOL     OW84942   0.288  12.590   6.675
27682SOL    HW184943   0.276  12.634   6.760
27682SOL    HW284944   0.359  12.638   6.633
27683SOL     OW84945  12.415  12.398  10.919
27683SOL    HW184946  12.363  12.325  10.953
27683SOL    HW284947  12.357  12.474  10.924
27684SOL     OW84948   2.670   2.883  11.203
27684SOL    HW184949   2.754   2.842  11.224
27684SOL    HW284950   2.660   2.871  11.109
27685SOL     OW84951   7.316   0.960   2.312
27685SOL    HW184952   7.385   0.932   2.371
27685SOL    HW284953   7.336   0.916   2.229
27686SOL     OW84954  11.272   5.119  13.356
27686SOL    HW184955  11.178   5.105  13.343
27686SOL    HW284956  11.308   5.129  13.268
27687SOL     OW84957   4.036  11.126   2.242
27687SOL    HW184958   3.946  11.146   2.266
27687SOL    HW284959   4.064  11.201   2.189
27688SOL     OW84960   9.250   5.642   6.238
27688SOL    HW184961   9.274   5.618   6.148
27688SOL    HW284962   9.251   5.738   6.238
27689SOL     OW84963   7.466  12.426  13.441
27689SOL    HW184964   7.468  12.331  13.447
27689SOL    HW284965   7.388  12.452  13.491
27690SOL     OW84966  11.980   4.397  12.628
27690SOL    HW184967  11.921   4.324  12.646
27690SOL    HW284968  12.035   4.367  12.555
27691SOL     OW84969   3.483   8.194   5.266
27691SOL    HW184970   3.429   8.265   5.300
27691SOL    HW284971   3.573   8.222   5.281
27692SOL     OW84972   2.483   4.655   2.956
27692SOL    HW184973   2.526   4.741   2.965
27692SOL    HW284974   2.549   4.600   2.915
27693SOL     OW84975  14.379  10.881   2.311
27693SOL    HW184976  14.327  10.885   2.230
27693SOL    HW284977  14.373  10.789   2.338
27694SOL     OW84978  14.331  11.139   2.918
27694SOL    HW184979  14.274  11.203   2.962
27694SOL    HW284980  14.379  11.097   2.989
27695SOL     OW84981   8.244   1.121   6.866
27695SOL    HW184982   8.186   1.111   6.941
27695SOL    HW284983   8.226   1.045   6.811
27696SOL     OW84984   2.641   3.824   8.600
27696SOL    HW184985   2.729   3.813   8.565
27696SOL    HW284986   2.632   3.754   8.665
27697SOL     OW84987   0.065  13.858   8.737
27697SOL    HW184988   0.120  13.891   8.808
27697SOL    HW284989   0.121  13.858   8.660
27698SOL     OW84990   0.520   1.887  10.782
27698SOL    HW184991   0.609   1.889  10.817
27698SOL    HW284992   0.530   1.910  10.690
27699SOL     OW84993   3.009   8.415  10.112
27699SOL    HW184994   3.035   8.468  10.037
27699SOL    HW284995   3.051   8.330  10.098
27700SOL     OW84996  10.329   1.692   9.786
27700SOL    HW184997  10.370   1.777   9.770
27700SOL    HW284998  10.268   1.708   9.857
27701SOL     OW84999   5.029   0.151   0.551
27701SOL    HW185000   5.096   0.212   0.583
27701SOL    HW285001   5.007   0.097   0.627
27702SOL     OW85002   3.219  14.567   0.402
27702SOL    HW185003   3.307  14.569   0.366
27702SOL    HW285004   3.163  14.598   0.330
27703SOL     OW85005   8.657   8.453   9.936
27703SOL    HW185006   8.667   8.359   9.954
27703SOL    HW285007   8.664   8.494  10.023
27704SOL     OW85008   3.971  13.277   6.782
27704SOL    HW185009   4.040  13.332   6.819
27704SOL    HW285010   3.915  13.338   6.734
27705SOL     OW85011   1.364   9.081   8.499
27705SOL    HW185012   1.423   9.148   8.533
27705SOL    HW285013   1.287   9.086   8.556
27706SOL     OW85014   6.311   5.406   2.072
27706SOL    HW185015   6.250   5.444   2.009
27706SOL    HW285016   6.332   5.478   2.132
27707SOL     OW85017   9.160  13.347   5.049
27707SOL    HW185018   9.180  13.269   5.101
27707SOL    HW285019   9.071  13.370   5.074
27708SOL     OW85020  12.206   4.640   8.502
27708SOL    HW185021  12.257   4.703   8.554
27708SOL    HW285022  12.115   4.669   8.513
27709SOL     OW85023  13.823   2.547   4.133
27709SOL    HW185024  13.806   2.633   4.172
27709SOL    HW285025  13.860   2.566   4.047
27710SOL     OW85026   0.444  13.364  13.142
27710SOL    HW185027   0.415  13.286  13.190
27710SOL    HW285028   0.477  13.329  13.059
27711SOL     OW85029  11.163  11.251  10.686
27711SOL    HW185030  11.069  11.270  10.683
27711SOL    HW285031  11.170  11.159  10.661
27712SOL     OW85032   7.510   9.485  10.739
27712SOL    HW185033   7.600   9.461  10.718
27712SOL    HW285034   7.473   9.406  10.779
27713SOL     OW85035   9.051  11.965   5.586
27713SOL    HW185036   9.092  12.041   5.627
27713SOL    HW285037   8.977  12.001   5.538
27714SOL     OW85038   6.705   6.509  11.949
27714SOL    HW185039   6.612   6.524  11.928
27714SOL    HW285040   6.739   6.596  11.969
27715SOL     OW85041   5.864   0.121   8.353
27715SOL    HW185042   5.902   0.162   8.275
27715SOL    HW285043   5.790   0.070   8.320
27716SOL     OW85044   7.459  10.653  12.303
27716SOL    HW185045   7.368  10.626  12.317
27716SOL    HW285046   7.504  10.631  12.384
27717SOL     OW85047   5.381  14.072   8.276
27717SOL    HW185048   5.291  14.105   8.273
27717SOL    HW285049   5.372  13.978   8.288
27718SOL     OW85050   3.386  14.624   5.080
27718SOL    HW185051   3.304  14.590   5.045
27718SOL    HW285052   3.422  14.551   5.131
27719SOL     OW85053   8.809   6.840   8.499
27719SOL    HW185054   8.883   6.780   8.505
27719SOL    HW285055   8.734   6.791   8.532
27720SOL     OW85056   9.234  11.955   0.567
27720SOL    HW185057   9.251  11.867   0.534
27720SOL    HW285058   9.235  11.945   0.662
27721SOL     OW85059  12.075   9.000   3.681
27721SOL    HW185060  12.118   9.019   3.598
27721SOL    HW285061  12.141   8.956   3.734
27722SOL     OW85062  11.881   5.941   3.968
27722SOL    HW185063  11.824   5.929   3.892
27722SOL    HW285064  11.821   5.965   4.039
27723SOL     OW85065   5.915   8.577  11.600
27723SOL    HW185066   5.916   8.672  11.584
27723SOL    HW285067   5.870   8.540  11.524
27724SOL     OW85068  11.434   6.862   5.900
27724SOL    HW185069  11.440   6.952   5.866
27724SOL    HW285070  11.482   6.810   5.835
27725SOL     OW85071   3.739   3.522   7.312
27725SOL    HW185072   3.729   3.572   7.393
27725SOL    HW285073   3.804   3.455   7.333
27726SOL     OW85074  10.504   9.385   2.580
27726SOL    HW185075  10.470   9.298   2.559
27726SOL    HW285076  10.553   9.373   2.661
27727SOL     OW85077   4.889   2.414  12.740
27727SOL    HW185078   4.865   2.464  12.818
27727SOL    HW285079   4.968   2.366  12.766
27728SOL     OW85080  11.115   1.207   8.178
27728SOL    HW185081  11.124   1.236   8.269
27728SOL    HW285082  11.144   1.282   8.126
27729SOL     OW85083   3.586  12.993   0.893
27729SOL    HW185084   3.597  13.065   0.956
27729SOL    HW285085   3.649  12.927   0.922
27730SOL     OW85086   4.521   9.326   5.296
27730SOL    HW185087   4.512   9.276   5.215
27730SOL    HW285088   4.434   9.320   5.338
27731SOL     OW85089   2.204   0.808   5.403
27731SOL    HW185090   2.192   0.715   5.387
27731SOL    HW285091   2.247   0.841   5.324
27732SOL     OW85092   7.068   9.488  11.278
27732SOL    HW185093   7.110   9.555  11.331
27732SOL    HW285094   7.140   9.439  11.239
27733SOL     OW85095   8.996   1.798   1.425
27733SOL    HW185096   8.951   1.839   1.351
27733SOL    HW285097   9.088   1.798   1.399
27734SOL     OW85098   7.320   2.738  12.768
27734SOL    HW185099   7.236   2.746  12.725
27734SOL    HW285100   7.337   2.644  12.773
27735SOL     OW85101  11.784   9.999   2.955
27735SOL    HW185102  11.761  10.060   2.885
27735SOL    HW285103  11.852  10.043   3.005
27736SOL     OW85104   8.682   2.439  13.797
27736SOL    HW185105   8.743   2.509  13.819
27736SOL    HW285106   8.730   2.358  13.817
27737SOL     OW85107  11.140   6.924   7.684
27737SOL    HW185108  11.179   6.992   7.739
27737SOL    HW285109  11.176   6.940   7.597
27738SOL     OW85110   8.448   8.607   8.665
27738SOL    HW185111   8.531   8.647   8.641
27738SOL    HW285112   8.405   8.673   8.719
27739SOL     OW85113  10.335   8.344   8.040
27739SOL    HW185114  10.239   8.347   8.046
27739SOL    HW285115  10.362   8.435   8.037
27740SOL     OW85116  10.396   9.309  14.520
27740SOL    HW185117  10.405   9.383  14.580
27740SOL    HW285118  10.312   9.269  14.543
27741SOL     OW85119   6.618  14.201   9.854
27741SOL    HW185120   6.635  14.258   9.929
27741SOL    HW285121   6.524  14.188   9.854
27742SOL     OW85122  12.372   4.027  10.893
27742SOL    HW185123  12.290   4.068  10.921
27742SOL    HW285124  12.427   4.028  10.971
27743SOL     OW85125   9.355   7.897   6.845
27743SOL    HW185126   9.285   7.951   6.808
27743SOL    HW285127   9.309   7.822   6.884
27744SOL     OW85128   9.851   9.610   7.574
27744SOL    HW185129   9.871   9.702   7.559
27744SOL    HW285130   9.801   9.608   7.655
27745SOL     OW85131  10.480   4.787   6.531
27745SOL    HW185132  10.542   4.752   6.595
27745SOL    HW285133  10.394   4.763   6.565
27746SOL     OW85134   0.358  13.827   5.093
27746SOL    HW185135   0.429  13.779   5.049
27746SOL    HW285136   0.349  13.784   5.178
27747SOL     OW85137   8.814   1.701  11.693
27747SOL    HW185138   8.802   1.771  11.629
27747SOL    HW285139   8.905   1.673  11.681
27748SOL     OW85140   2.307   7.932  10.061
27748SOL    HW185141   2.312   7.847  10.103
27748SOL    HW285142   2.323   7.995  10.131
27749SOL     OW85143   6.130   8.541   2.141
27749SOL    HW185144   6.052   8.494   2.116
27749SOL    HW285145   6.171   8.567   2.058
27750SOL     OW85146   3.672   0.114   0.133
27750SOL    HW185147   3.627   0.172   0.073
27750SOL    HW285148   3.755   0.158   0.153
27751SOL     OW85149  14.598  13.095   1.604
27751SOL    HW185150  14.568  13.153   1.534
27751SOL    HW285151  14.692  13.113   1.611
27752SOL     OW85152   8.674  13.326   6.598
27752SOL    HW185153   8.677  13.342   6.692
27752SOL    HW285154   8.722  13.244   6.586
27753SOL     OW85155   2.025   9.406   3.366
27753SOL    HW185156   2.024   9.320   3.325
27753SOL    HW285157   2.117   9.432   3.365
27754SOL     OW85158   3.710   9.322   8.106
27754SOL    HW185159   3.711   9.394   8.043
27754SOL    HW285160   3.757   9.251   8.063
27755SOL     OW85161   4.409   5.948   2.551
27755SOL    HW185162   4.392   5.863   2.591
27755SOL    HW285163   4.323   5.978   2.521
27756SOL     OW85164  11.812   6.763   3.580
27756SOL    HW185165  11.717   6.766   3.583
27756SOL    HW285166  11.837   6.835   3.522
27757SOL     OW85167   0.936   7.197  14.147
27757SOL    HW185168   0.939   7.290  14.126
27757SOL    HW285169   0.970   7.153  14.069
27758SOL     OW85170   7.505   1.830   0.205
27758SOL    HW185171   7.447   1.859   0.134
27758SOL    HW285172   7.469   1.745   0.231
27759SOL     OW85173  14.280  10.757   7.545
27759SOL    HW185174  14.208  10.703   7.577
27759SOL    HW285175  14.315  10.800   7.623
27760SOL     OW85176  10.916   5.578  13.696
27760SOL    HW185177  10.868   5.497  13.713
27760SOL    HW285178  10.991   5.575  13.754
27761SOL     OW85179   0.345   4.536  12.239
27761SOL    HW185180   0.286   4.497  12.175
27761SOL    HW285181   0.431   4.499  12.218
27762SOL     OW85182   5.483   5.558   1.136
27762SOL    HW185183   5.567   5.569   1.180
27762SOL    HW285184   5.492   5.606   1.054
27763SOL     OW85185  11.892  11.540  11.433
27763SOL    HW185186  11.865  11.564  11.345
27763SOL    HW285187  11.890  11.445  11.435
27764SOL     OW85188   4.115   9.525   6.549
27764SOL    HW185189   4.128   9.473   6.628
27764SOL    HW285190   4.086   9.610   6.581
27765SOL     OW85191   7.614  14.012   6.450
27765SOL    HW185192   7.581  14.092   6.491
27765SOL    HW285193   7.566  14.006   6.367
27766SOL     OW85194   9.003   1.305   0.508
27766SOL    HW185195   8.986   1.348   0.591
27766SOL    HW285196   9.074   1.356   0.468
27767SOL     OW85197  14.591   2.607   5.700
27767SOL    HW185198  14.680   2.613   5.735
27767SOL    HW285199  14.539   2.666   5.755
27768SOL     OW85200   3.078   5.492   3.551
27768SOL    HW185201   3.168   5.466   3.568
27768SOL    HW285202   3.042   5.421   3.498
27769SOL     OW85203  12.073  14.603   8.087
27769SOL    HW185204  12.038  14.692   8.081
27769SOL    HW285205  12.019  14.551   8.027
27770SOL     OW85206   4.710  13.325  12.816
27770SOL    HW185207   4.644  13.302  12.881
27770SOL    HW285208   4.790  13.282  12.847
27771SOL     OW85209   7.583   6.407  11.963
27771SOL    HW185210   7.542   6.343  11.905
27771SOL    HW285211   7.616   6.355  12.036
27772SOL     OW85212  10.070   5.854   3.716
27772SOL    HW185213  10.092   5.946   3.728
27772SOL    HW285214   9.989   5.842   3.765
27773SOL     OW85215  10.713   4.843   5.437
27773SOL    HW185216  10.737   4.854   5.345
27773SOL    HW285217  10.618   4.832   5.436
27774SOL     OW85218   6.601   0.999  14.101
27774SOL    HW185219   6.628   1.020  14.190
27774SOL    HW285220   6.560   1.079  14.069
27775SOL     OW85221   5.839  14.047  14.751
27775SOL    HW185222   5.754  14.038  14.708
27775SOL    HW285223   5.871  14.133  14.725
27776SOL     OW85224   2.458   4.804   8.360
27776SOL    HW185225   2.513   4.878   8.336
27776SOL    HW285226   2.418   4.776   8.278
27777SOL     OW85227   7.600   3.278   6.535
27777SOL    HW185228   7.534   3.237   6.479
27777SOL    HW285229   7.642   3.204   6.579
27778SOL     OW85230   6.964  13.438   3.769
27778SOL    HW185231   6.897  13.481   3.824
27778SOL    HW285232   6.975  13.352   3.809
27779SOL     OW85233   2.157   5.619   2.133
27779SOL    HW185234   2.144   5.645   2.225
27779SOL    HW285235   2.126   5.528   2.129
27780SOL     OW85236  11.380   0.398   8.725
27780SOL    HW185237  11.470   0.391   8.756
27780SOL    HW285238  11.386   0.392   8.630
27781SOL     OW85239  13.051   1.303  14.375
27781SOL    HW185240  13.058   1.237  14.306
27781SOL    HW285241  12.974   1.278  14.425
27782SOL     OW85242  11.256   7.440  12.410
27782SOL    HW185243  11.229   7.402  12.326
27782SOL    HW285244  11.350   7.457  12.400
27783SOL     OW85245  11.624   2.782  11.458
27783SOL    HW185246  11.659   2.858  11.506
27783SOL    HW285247  11.687   2.769  11.386
27784SOL     OW85248   5.006   7.629  10.680
27784SOL    HW185249   4.973   7.647  10.768
27784SOL    HW285250   5.033   7.538  10.682
27785SOL     OW85251  12.801   7.507  11.530
27785SOL    HW185252  12.726   7.554  11.494
27785SOL    HW285253  12.867   7.575  11.546
27786SOL     OW85254   6.391  14.242   6.867
27786SOL    HW185255   6.309  14.210   6.903
27786SOL    HW285256   6.416  14.315   6.924
27787SOL     OW85257   8.681   9.299  13.516
27787SOL    HW185258   8.770   9.335  13.508
27787SOL    HW285259   8.656   9.317  13.606
27788SOL     OW85260   0.234   0.219   1.347
27788SOL    HW185261   0.168   0.151   1.355
27788SOL    HW285262   0.295   0.186   1.281
27789SOL     OW85263   4.916  11.195   4.440
27789SOL    HW185264   4.934  11.249   4.363
27789SOL    HW285265   4.962  11.240   4.512
27790SOL     OW85266  13.383   7.561   8.001
27790SOL    HW185267  13.356   7.566   7.910
27790SOL    HW285268  13.457   7.621   8.008
27791SOL     OW85269   8.463  11.347  14.448
27791SOL    HW185270   8.440  11.367  14.539
27791SOL    HW285271   8.443  11.428  14.400
27792SOL     OW85272  14.103  13.689   1.162
27792SOL    HW185273  14.072  13.678   1.072
27792SOL    HW285274  14.034  13.650   1.216
27793SOL     OW85275  12.546  11.978  14.147
27793SOL    HW185276  12.576  11.959  14.236
27793SOL    HW285277  12.564  12.072  14.135
27794SOL     OW85278   6.819   9.862  12.571
27794SOL    HW185279   6.772   9.931  12.618
27794SOL    HW285280   6.783   9.781  12.606
27795SOL     OW85281   6.479   8.897  13.036
27795SOL    HW185282   6.480   8.856  12.950
27795SOL    HW285283   6.564   8.874  13.074
27796SOL     OW85284  14.483   1.397   2.636
27796SOL    HW185285  14.448   1.487   2.636
27796SOL    HW285286  14.457   1.361   2.552
27797SOL     OW85287   6.548   1.988   4.454
27797SOL    HW185288   6.539   1.898   4.423
27797SOL    HW285289   6.626   2.021   4.409
27798SOL     OW85290   2.957  11.742   6.850
27798SOL    HW185291   2.925  11.803   6.916
27798SOL    HW285292   3.043  11.776   6.825
27799SOL     OW85293  12.394   3.427   0.005
27799SOL    HW185294  12.328   3.359  14.864
27799SOL    HW285295  12.366   3.477   0.082
27800SOL     OW85296  14.788   5.886   2.490
27800SOL    HW185297  14.751   5.876   2.577
27800SOL    HW285298  14.779   5.799   2.450
27801SOL     OW85299   2.290  13.429  12.105
27801SOL    HW185300   2.327  13.348  12.141
27801SOL    HW285301   2.208  13.401  12.064
27802SOL     OW85302   9.494  12.235   9.088
27802SOL    HW185303   9.474  12.177   9.161
27802SOL    HW285304   9.556  12.185   9.034
27803SOL     OW85305   9.023   7.808  10.358
27803SOL    HW185306   9.100   7.771  10.315
27803SOL    HW285307   9.013   7.894  10.319
27804SOL     OW85308  12.081   2.628   5.969
27804SOL    HW185309  12.063   2.593   6.056
27804SOL    HW285310  12.055   2.558   5.909
27805SOL     OW85311   2.088   3.186   6.673
27805SOL    HW185312   2.054   3.150   6.590
27805SOL    HW285313   2.133   3.112   6.714
27806SOL     OW85314   0.175  11.786   9.454
27806SOL    HW185315   0.159  11.707   9.505
27806SOL    HW285316   0.095  11.837   9.463
27807SOL     OW85317  10.912   1.203  12.731
27807SOL    HW185318  10.871   1.248  12.656
27807SOL    HW285319  10.838   1.166  12.779
27808SOL     OW85320   2.155   7.340  14.799
27808SOL    HW185321   2.134   7.433  14.789
27808SOL    HW285322   2.107   7.297  14.728
27809SOL     OW85323   6.711   9.492   7.227
27809SOL    HW185324   6.682   9.404   7.201
27809SOL    HW285325   6.803   9.480   7.250
27810SOL     OW85326   1.080   3.031   9.847
27810SOL    HW185327   1.111   3.117   9.820
27810SOL    HW285328   1.031   3.046   9.927
27811SOL     OW85329   8.516   8.647   7.133
27811SOL    HW185330   8.511   8.565   7.084
27811SOL    HW285331   8.563   8.707   7.075
27812SOL     OW85332   4.479   5.790  13.629
27812SOL    HW185333   4.440   5.865  13.674
27812SOL    HW285334   4.443   5.793  13.541
27813SOL     OW85335   9.903   5.078  11.323
27813SOL    HW185336   9.888   5.069  11.417
27813SOL    HW285337   9.817   5.098  11.287
27814SOL     OW85338   6.069   2.933  10.672
27814SOL    HW185339   6.057   2.885  10.590
27814SOL    HW285340   6.161   2.922  10.693
27815SOL     OW85341   0.908   6.050   7.243
27815SOL    HW185342   0.850   5.974   7.236
27815SOL    HW285343   0.884   6.091   7.326
27816SOL     OW85344  12.140   6.987   2.529
27816SOL    HW185345  12.214   6.994   2.469
27816SOL    HW285346  12.084   6.919   2.491
27817SOL     OW85347   6.134   2.378   8.612
27817SOL    HW185348   6.139   2.294   8.657
27817SOL    HW285349   6.042   2.386   8.589
27818SOL     OW85350   4.327  13.523   4.339
27818SOL    HW185351   4.276  13.442   4.344
27818SOL    HW285352   4.277  13.586   4.391
27819SOL     OW85353   1.467  12.747   0.018
27819SOL    HW185354   1.433  12.802   0.088
27819SOL    HW285355   1.549  12.712   0.052
27820SOL     OW85356  13.226   3.971   5.539
27820SOL    HW185357  13.240   3.876   5.529
27820SOL    HW285358  13.142   3.977   5.586
27821SOL     OW85359  14.714   6.506   5.474
27821SOL    HW185360  14.651   6.574   5.451
27821SOL    HW285361  14.799   6.550   5.474
27822SOL     OW85362   0.424  12.270  11.711
27822SOL    HW185363   0.396  12.315  11.631
27822SOL    HW285364   0.389  12.181  11.702
27823SOL     OW85365   2.033  12.516  13.841
27823SOL    HW185366   2.086  12.586  13.803
27823SOL    HW285367   2.041  12.529  13.936
27824SOL     OW85368   6.807  10.079   3.259
27824SOL    HW185369   6.815   9.988   3.231
27824SOL    HW285370   6.873  10.089   3.328
27825SOL     OW85371  13.962   0.356   0.432
27825SOL    HW185372  13.951   0.263   0.454
27825SOL    HW285373  14.026   0.356   0.361
27826SOL     OW85374   3.513  14.004   4.814
27826SOL    HW185375   3.500  14.087   4.766
27826SOL    HW285376   3.561  13.949   4.752
27827SOL     OW85377   2.591  13.830  10.853
27827SOL    HW185378   2.553  13.896  10.912
27827SOL    HW285379   2.518  13.771  10.833
27828SOL     OW85380   0.466   8.909   8.760
27828SOL    HW185381   0.512   8.979   8.714
27828SOL    HW285382   0.383   8.949   8.786
27829SOL     OW85383   5.780   6.967   2.038
27829SOL    HW185384   5.826   6.897   2.085
27829SOL    HW285385   5.844   7.000   1.976
27830SOL     OW85386  10.050  10.478   4.902
27830SOL    HW185387  10.091  10.403   4.946
27830SOL    HW285388  10.124  10.535   4.879
27831SOL     OW85389   2.774   5.156   3.680
27831SOL    HW185390   2.864   5.125   3.673
27831SOL    HW285391   2.752   5.144   3.773
27832SOL     OW85392   0.215   6.031   8.525
27832SOL    HW185393   0.219   6.122   8.554
27832SOL    HW285394   0.152   6.031   8.454
27833SOL     OW85395   2.461   2.318  14.634
27833SOL    HW185396   2.443   2.251  14.700
27833SOL    HW285397   2.375   2.352  14.609
27834SOL     OW85398   4.372  13.501   9.337
27834SOL    HW185399   4.369  13.510   9.241
27834SOL    HW285400   4.283  13.525   9.365
27835SOL     OW85401  13.697  13.931  11.414
27835SOL    HW185402  13.643  13.976  11.349
27835SOL    HW285403  13.702  13.841  11.382
27836SOL     OW85404   2.417   0.519  14.743
27836SOL    HW185405   2.387   0.595  14.793
27836SOL    HW285406   2.502   0.497  14.781
27837SOL     OW85407   7.115  13.023   4.460
27837SOL    HW185408   7.074  13.020   4.374
27837SOL    HW285409   7.195  12.971   4.450
27838SOL     OW85410   5.668   5.474   8.715
27838SOL    HW185411   5.647   5.502   8.804
27838SOL    HW285412   5.632   5.386   8.708
27839SOL     OW85413   2.295   4.986  11.041
27839SOL    HW185414   2.242   4.910  11.065
27839SOL    HW285415   2.380   4.970  11.084
27840SOL     OW85416   7.389  12.281   0.140
27840SOL    HW185417   7.306  12.317   0.109
27840SOL    HW285418   7.441  12.269   0.061
27841SOL     OW85419  10.748   9.349  14.027
27841SOL    HW185420  10.817   9.300  13.981
27841SOL    HW285421  10.694   9.386  13.957
27842SOL     OW85422  12.084   1.656   1.420
27842SOL    HW185423  12.099   1.685   1.510
27842SOL    HW285424  11.997   1.690   1.399
27843SOL     OW85425   2.398   3.539   6.261
27843SOL    HW185426   2.446   3.602   6.314
27843SOL    HW285427   2.336   3.498   6.322
27844SOL     OW85428   0.397   4.168   5.592
27844SOL    HW185429   0.403   4.165   5.496
27844SOL    HW285430   0.391   4.076   5.619
27845SOL     OW85431  13.577   8.845   3.503
27845SOL    HW185432  13.549   8.847   3.412
27845SOL    HW285433  13.648   8.909   3.508
27846SOL     OW85434   0.844   1.467   9.924
27846SOL    HW185435   0.832   1.549   9.973
27846SOL    HW285436   0.911   1.487   9.859
27847SOL     OW85437   0.413   7.930  14.519
27847SOL    HW185438   0.374   7.864  14.577
27847SOL    HW285439   0.508   7.916  14.528
27848SOL     OW85440   1.213  11.156  13.724
27848SOL    HW185441   1.223  11.218  13.652
27848SOL    HW285442   1.292  11.169  13.777
27849SOL     OW85443   8.324   9.944  11.518
27849SOL    HW185444   8.288   9.903  11.597
27849SOL    HW285445   8.409   9.901  11.505
27850SOL     OW85446  13.573   0.762   5.723
27850SOL    HW185447  13.585   0.710   5.644
27850SOL    HW285448  13.498   0.818   5.705
27851SOL     OW85449   3.101  12.939  13.451
27851SOL    HW185450   3.016  12.955  13.409
27851SOL    HW285451   3.096  12.988  13.533
27852SOL     OW85452   8.824   2.200   4.445
27852SOL    HW185453   8.863   2.241   4.522
27852SOL    HW285454   8.824   2.106   4.465
27853SOL     OW85455  11.410   6.290   8.719
27853SOL    HW185456  11.316   6.285   8.735
27853SOL    HW285457  11.418   6.297   8.624
27854SOL     OW85458   0.724   0.164   9.076
27854SOL    HW185459   0.763   0.201   9.155
27854SOL    HW285460   0.717   0.237   9.016
27855SOL     OW85461  14.022   9.583   2.672
27855SOL    HW185462  14.113   9.586   2.640
27855SOL    HW285463  13.989   9.498   2.642
27856SOL     OW85464   7.052   4.367  13.321
27856SOL    HW185465   7.054   4.347  13.227
27856SOL    HW285466   7.143   4.390  13.343
27857SOL     OW85467   2.680   1.726   3.171
27857SOL    HW185468   2.751   1.771   3.126
27857SOL    HW285469   2.634   1.796   3.218
27858SOL     OW85470  11.454   3.231   3.336
27858SOL    HW185471  11.499   3.264   3.257
27858SOL    HW285472  11.364   3.216   3.308
27859SOL     OW85473   2.514  10.100  13.177
27859SOL    HW185474   2.578  10.171  13.168
27859SOL    HW285475   2.540  10.055  13.257
27860SOL     OW85476  13.599  10.955   9.762
27860SOL    HW185477  13.507  10.943   9.739
27860SOL    HW285478  13.618  10.883   9.822
27861SOL     OW85479   2.503  11.936   5.681
27861SOL    HW185480   2.474  11.950   5.591
27861SOL    HW285481   2.523  12.023   5.715
27862SOL     OW85482  11.373   5.524   3.682
27862SOL    HW185483  11.382   5.598   3.622
27862SOL    HW285484  11.410   5.556   3.764
27863SOL     OW85485   7.024   5.980   7.070
27863SOL    HW185486   7.092   5.973   7.004
27863SOL    HW285487   7.057   5.928   7.144
27864SOL     OW85488  13.902   7.598   5.204
27864SOL    HW185489  13.926   7.684   5.238
27864SOL    HW285490  13.955   7.588   5.125
27865SOL     OW85491   5.227  13.466   3.908
27865SOL    HW185492   5.279  13.488   3.831
27865SOL    HW285493   5.190  13.550   3.937
27866SOL     OW85494   8.710   7.093   7.265
27866SOL    HW185495   8.719   7.185   7.290
27866SOL    HW285496   8.797   7.056   7.279
27867SOL     OW85497  13.902   1.587   7.998
27867SOL    HW185498  13.982   1.572   7.947
27867SOL    HW285499  13.838   1.526   7.961
27868SOL     OW85500   4.828  11.711   0.028
27868SOL    HW185501   4.733  11.724   0.027
27868SOL    HW285502   4.856  11.736  14.810
27869SOL     OW85503   5.109   5.060  10.450
27869SOL    HW185504   5.110   4.969  10.420
27869SOL    HW285505   5.191   5.070  10.498
27870SOL     OW85506   3.241   0.650   2.782
27870SOL    HW185507   3.147   0.663   2.771
27870SOL    HW285508   3.266   0.709   2.853
27871SOL     OW85509   8.896   8.895   5.819
27871SOL    HW185510   8.838   8.949   5.765
27871SOL    HW285511   8.923   8.824   5.761
27872SOL     OW85512  13.130   7.878   1.574
27872SOL    HW185513  13.209   7.888   1.628
27872SOL    HW285514  13.063   7.928   1.621
27873SOL     OW85515   2.169   1.761   3.826
27873SOL    HW185516   2.245   1.817   3.814
27873SOL    HW285517   2.186   1.685   3.769
27874SOL     OW85518   8.088   8.339   9.962
27874SOL    HW185519   8.139   8.261   9.986
27874SOL    HW285520   8.081   8.389  10.043
27875SOL     OW85521   7.922  13.385   1.210
27875SOL    HW185522   7.977  13.417   1.281
27875SOL    HW285523   7.874  13.310   1.247
27876SOL     OW85524  12.383   0.426   9.842
27876SOL    HW185525  12.337   0.484   9.782
27876SOL    HW285526  12.326   0.350   9.851
27877SOL     OW85527   5.147  13.988  12.199
27877SOL    HW185528   5.169  14.081  12.187
27877SOL    HW285529   5.191  13.944  12.126
27878SOL     OW85530   4.639   4.747  14.002
27878SOL    HW185531   4.608   4.694  14.076
27878SOL    HW285532   4.659   4.684  13.934
27879SOL     OW85533  14.586   6.466   6.285
27879SOL    HW185534  14.593   6.473   6.189
27879SOL    HW285535  14.673   6.493   6.316
27880SOL     OW85536  12.433  13.373   6.726
27880SOL    HW185537  12.341  13.350   6.742
27880SOL    HW285538  12.443  13.367   6.631
27881SOL     OW85539   0.354  13.521   9.487
27881SOL    HW185540   0.426  13.462   9.465
27881SOL    HW285541   0.362  13.593   9.425
27882SOL     OW85542   5.957   9.518   3.360
27882SOL    HW185543   5.932   9.437   3.404
27882SOL    HW285544   6.034   9.548   3.408
27883SOL     OW85545   2.045   9.058  10.256
27883SOL    HW185546   1.996   9.007  10.191
27883SOL    HW285547   2.109   8.996  10.291
27884SOL     OW85548   0.878   1.846   9.029
27884SOL    HW185549   0.816   1.783   9.066
27884SOL    HW285550   0.917   1.801   8.954
27885SOL     OW85551   4.062   1.095   9.787
27885SOL    HW185552   4.083   1.155   9.715
27885SOL    HW285553   3.994   1.141   9.837
27886SOL     OW85554  14.402   8.430   5.640
27886SOL    HW185555  14.428   8.408   5.551
27886SOL    HW285556  14.483   8.432   5.689
27887SOL     OW85557  14.391   0.422   6.244
27887SOL    HW185558  14.460   0.435   6.180
27887SOL    HW285559  14.347   0.507   6.250
27888SOL     OW85560  14.446   0.042  11.800
27888SOL    HW185561  14.506   0.104  11.841
27888SOL    HW285562  14.461   0.052  11.706
27889SOL     OW85563   1.326  13.272   8.343
27889SOL    HW185564   1.345  13.340   8.408
27889SOL    HW285565   1.327  13.317   8.259
27890SOL     OW85566   3.779  14.865   2.432
27890SOL    HW185567   3.757   0.013   2.524
27890SOL    HW285568   3.819  14.778   2.434
27891SOL     OW85569   2.738   7.588  10.465
27891SOL    HW185570   2.803   7.598  10.535
27891SOL    HW285571   2.738   7.674  10.421
27892SOL     OW85572  14.858  13.572  10.810
27892SOL    HW185573   0.071  13.611  10.781
27892SOL    HW285574  14.848  13.494  10.755
27893SOL     OW85575  10.710   5.854  12.395
27893SOL    HW185576  10.627   5.869  12.349
27893SOL    HW285577  10.761   5.799  12.335
27894SOL     OW85578   6.462   8.886   1.482
27894SOL    HW185579   6.501   8.929   1.406
27894SOL    HW285580   6.495   8.935   1.557
27895SOL     OW85581  10.573   5.628  10.323
27895SOL    HW185582  10.493   5.648  10.274
27895SOL    HW285583  10.596   5.539  10.296
27896SOL     OW85584   1.409   8.935   4.687
27896SOL    HW185585   1.404   8.969   4.597
27896SOL    HW285586   1.485   8.980   4.724
27897SOL     OW85587   0.060  13.988   7.745
27897SOL    HW185588   0.140  14.041   7.746
27897SOL    HW285589   0.080  13.915   7.687
27898SOL     OW85590   1.133  14.394  14.559
27898SOL    HW185591   1.150  14.450  14.483
27898SOL    HW285592   1.173  14.310  14.536
27899SOL     OW85593   2.356   7.829   9.482
27899SOL    HW185594   2.391   7.879   9.408
27899SOL    HW285595   2.430   7.823   9.543
27900SOL     OW85596   9.631   3.615   4.676
27900SOL    HW185597   9.691   3.583   4.609
27900SOL    HW285598   9.686   3.663   4.737
27901SOL     OW85599   7.764   4.936   6.666
27901SOL    HW185600   7.688   4.953   6.611
27901SOL    HW285601   7.770   5.012   6.723
27902SOL     OW85602   1.640   9.040   8.807
27902SOL    HW185603   1.688   8.987   8.871
27902SOL    HW285604   1.570   8.982   8.776
27903SOL     OW85605   0.231   7.341  13.129
27903SOL    HW185606   0.272   7.352  13.043
27903SOL    HW285607   0.137   7.343  13.112
27904SOL     OW85608   3.808  13.011   6.125
27904SOL    HW185609   3.879  13.063   6.163
27904SOL    HW285610   3.743  13.076   6.097
27905SOL     OW85611   7.583  13.760  10.602
27905SOL    HW185612   7.543  13.740  10.517
27905SOL    HW285613   7.653  13.822  10.581
27906SOL     OW85614  14.011  13.132  14.740
27906SOL    HW185615  13.989  13.052  14.786
27906SOL    HW285616  13.998  13.201  14.805
27907SOL     OW85617   9.163   0.798   2.332
27907SOL    HW185618   9.073   0.832   2.331
27907SOL    HW285619   9.193   0.812   2.422
27908SOL     OW85620  12.383  12.158   8.928
27908SOL    HW185621  12.444  12.228   8.904
27908SOL    HW285622  12.435  12.098   8.981
27909SOL     OW85623   8.907   5.259   5.320
27909SOL    HW185624   8.913   5.163   5.318
27909SOL    HW285625   8.990   5.289   5.284
27910SOL     OW85626   6.324  10.321   1.354
27910SOL    HW185627   6.390  10.300   1.420
27910SOL    HW285628   6.252  10.360   1.404
27911SOL     OW85629  11.781   2.694   7.402
27911SOL    HW185630  11.724   2.668   7.329
27911SOL    HW285631  11.866   2.710   7.362
27912SOL     OW85632   6.826   6.073  13.765
27912SOL    HW185633   6.841   5.994  13.713
27912SOL    HW285634   6.773   6.044  13.839
27913SOL     OW85635   9.806   2.617   9.234
27913SOL    HW185636   9.822   2.623   9.140
27913SOL    HW285637   9.811   2.523   9.253
27914SOL     OW85638   5.765   9.884   2.581
27914SOL    HW185639   5.724   9.945   2.643
27914SOL    HW285640   5.714   9.803   2.590
27915SOL     OW85641  10.559  12.915  14.011
27915SOL    HW185642  10.610  12.907  13.930
27915SOL    HW285643  10.570  12.832  14.056
27916SOL     OW85644   5.469  10.910  11.258
27916SOL    HW185645   5.543  10.922  11.318
27916SOL    HW285646   5.480  10.981  11.194
27917SOL     OW85647  10.239  12.249  11.267
27917SOL    HW185648  10.179  12.284  11.201
27917SOL    HW285649  10.252  12.158  11.242
27918SOL     OW85650   8.860   6.642   2.095
27918SOL    HW185651   8.940   6.651   2.148
27918SOL    HW285652   8.826   6.556   2.119
27919SOL     OW85653   7.857  10.122   2.546
27919SOL    HW185654   7.832  10.106   2.637
27919SOL    HW285655   7.909  10.203   2.550
27920SOL     OW85656   8.130   6.276   3.469
27920SOL    HW185657   8.198   6.343   3.459
27920SOL    HW285658   8.149   6.235   3.554
27921SOL     OW85659   7.978   5.459  13.858
27921SOL    HW185660   8.055   5.514  13.872
27921SOL    HW285661   7.971   5.407  13.937
27922SOL     OW85662   7.410   8.132  14.086
27922SOL    HW185663   7.370   8.139  14.173
27922SOL    HW285664   7.361   8.062  14.042
27923SOL     OW85665   8.197   2.081  13.975
27923SOL    HW185666   8.123   2.114  13.925
27923SOL    HW285667   8.270   2.080  13.912
27924SOL     OW85668   4.582  14.499   2.651
27924SOL    HW185669   4.658  14.520   2.705
27924SOL    HW285670   4.592  14.554   2.574
27925SOL     OW85671   7.211  13.560  12.169
27925SOL    HW185672   7.247  13.613  12.240
27925SOL    HW285673   7.234  13.607  12.089
27926SOL     OW85674  10.441   0.993   7.047
27926SOL    HW185675  10.451   1.045   7.127
27926SOL    HW285676  10.516   0.933   7.048
27927SOL     OW85677  12.650   9.083  12.151
27927SOL    HW185678  12.560   9.051  12.158
27927SOL    HW285679  12.641   9.173  12.119
27928SOL     OW85680  13.872  14.168  10.389
27928SOL    HW185681  13.898  14.221  10.464
27928SOL    HW285682  13.839  14.231  10.325
27929SOL     OW85683   5.590   0.105   6.810
27929SOL    HW185684   5.666   0.113   6.753
27929SOL    HW285685   5.532   0.177   6.784
27930SOL     OW85686  11.916   4.963   1.442
27930SOL    HW185687  11.987   4.945   1.381
27930SOL    HW285688  11.868   4.880   1.447
27931SOL     OW85689  14.184   3.095   9.701
27931SOL    HW185690  14.103   3.116   9.747
27931SOL    HW285691  14.239   3.173   9.713
27932SOL     OW85692   1.905   3.168   7.915
27932SOL    HW185693   1.813   3.144   7.930
27932SOL    HW285694   1.954   3.116   7.979
27933SOL     OW85695   0.032   5.496   0.285
27933SOL    HW185696   0.081   5.504   0.367
27933SOL    HW285697   0.098   5.490   0.217
27934SOL     OW85698   4.686   0.616  10.417
27934SOL    HW185699   4.744   0.691  10.424
27934SOL    HW285700   4.731   0.546  10.465
27935SOL     OW85701   7.122   4.120   1.544
27935SOL    HW185702   7.057   4.104   1.612
27935SOL    HW285703   7.187   4.178   1.585
27936SOL     OW85704  14.517  14.481   3.163
27936SOL    HW185705  14.567  14.556   3.130
27936SOL    HW285706  14.502  14.501   3.255
27937SOL     OW85707   5.281  14.486   8.439
27937SOL    HW185708   5.272  14.581   8.440
27937SOL    HW285709   5.191  14.454   8.427
27938SOL     OW85710  14.556  12.443   0.401
27938SOL    HW185711  14.518  12.471   0.484
27938SOL    HW285712  14.486  12.457   0.337
27939SOL     OW85713   8.792   8.707  12.364
27939SOL    HW185714   8.728   8.778  12.375
27939SOL    HW285715   8.799   8.695  12.270
27940SOL     OW85716   3.633   5.131   6.080
27940SOL    HW185717   3.699   5.141   6.011
27940SOL    HW285718   3.680   5.154   6.160
27941SOL     OW85719  12.525  13.458  12.469
27941SOL    HW185720  12.611  13.482  12.503
27941SOL    HW285721  12.539  13.446  12.375
27942SOL     OW85722   0.464   9.071   1.840
27942SOL    HW185723   0.394   9.133   1.859
27942SOL    HW285724   0.426   9.012   1.774
27943SOL     OW85725  12.549   2.519   0.255
27943SOL    HW185726  12.478   2.579   0.231
27943SOL    HW285727  12.552   2.455   0.184
27944SOL     OW85728  12.251   0.590   7.243
27944SOL    HW185729  12.204   0.672   7.231
27944SOL    HW285730  12.182   0.524   7.250
27945SOL     OW85731   7.862   9.653   5.419
27945SOL    HW185732   7.926   9.623   5.483
27945SOL    HW285733   7.911   9.713   5.363
27946SOL     OW85734   7.148   4.294   7.522
27946SOL    HW185735   7.240   4.266   7.515
27946SOL    HW285736   7.118   4.256   7.605
27947SOL     OW85737   1.093   6.554   8.789
27947SOL    HW185738   1.041   6.517   8.717
27947SOL    HW285739   1.045   6.527   8.868
27948SOL     OW85740   5.482  11.970  10.500
27948SOL    HW185741   5.407  11.940  10.448
27948SOL    HW285742   5.510  11.893  10.549
27949SOL     OW85743  10.785   3.470   9.772
27949SOL    HW185744  10.777   3.381   9.807
27949SOL    HW285745  10.738   3.467   9.688
27950SOL     OW85746   0.263  12.606   5.027
27950SOL    HW185747   0.316  12.615   5.107
27950SOL    HW285748   0.199  12.538   5.048
27951SOL     OW85749  13.926   1.305   1.572
27951SOL    HW185750  13.958   1.345   1.653
27951SOL    HW285751  14.005   1.289   1.520
27952SOL     OW85752   0.296   4.424  12.895
27952SOL    HW185753   0.383   4.461  12.907
27952SOL    HW285754   0.306   4.331  12.916
27953SOL     OW85755   7.063   7.686   5.385
27953SOL    HW185756   7.133   7.629   5.355
27953SOL    HW285757   6.986   7.629   5.388
27954SOL     OW85758   7.257   1.376   2.387
27954SOL    HW185759   7.184   1.402   2.331
27954SOL    HW285760   7.222   1.305   2.441
27955SOL     OW85761   8.545   1.122  12.475
27955SOL    HW185762   8.467   1.066  12.469
27955SOL    HW285763   8.568   1.122  12.568
27956SOL     OW85764   3.332   5.678   7.615
27956SOL    HW185765   3.376   5.762   7.600
27956SOL    HW285766   3.330   5.669   7.711
27957SOL     OW85767   4.980   1.053   7.540
27957SOL    HW185768   4.955   1.118   7.475
27957SOL    HW285769   4.901   1.041   7.593
27958SOL     OW85770  14.237   2.287   3.408
27958SOL    HW185771  14.191   2.317   3.487
27958SOL    HW285772  14.264   2.368   3.365
27959SOL     OW85773   9.873  11.840  13.193
27959SOL    HW185774   9.922  11.845  13.275
27959SOL    HW285775   9.798  11.784  13.212
27960SOL     OW85776  14.620  14.597   5.922
27960SOL    HW185777  14.652  14.589   6.012
27960SOL    HW285778  14.546  14.658   5.929
27961SOL     OW85779   2.012   8.123   8.159
27961SOL    HW185780   1.928   8.144   8.118
27961SOL    HW285781   2.057   8.067   8.096
27962SOL     OW85782   1.238  11.425   8.508
27962SOL    HW185783   1.155  11.438   8.463
27962SOL    HW285784   1.298  11.488   8.467
27963SOL     OW85785   9.301   1.690   9.907
27963SOL    HW185786   9.302   1.596   9.885
27963SOL    HW285787   9.215   1.720   9.878
27964SOL     OW85788   7.257   7.840   2.300
27964SOL    HW185789   7.335   7.880   2.340
27964SOL    HW285790   7.241   7.762   2.354
27965SOL     OW85791  10.282  13.839  13.936
27965SOL    HW185792  10.262  13.769  13.999
27965SOL    HW285793  10.272  13.798  13.850
27966SOL     OW85794   2.599   2.201   5.662
27966SOL    HW185795   2.670   2.148   5.697
27966SOL    HW285796   2.620   2.213   5.569
27967SOL     OW85797   1.098  12.734   6.991
27967SOL    HW185798   1.011  12.694   6.990
27967SOL    HW285799   1.137  12.708   6.907
27968SOL     OW85800   1.126  14.576   4.226
27968SOL    HW185801   1.125  14.663   4.266
27968SOL    HW285802   1.151  14.593   4.135
27969SOL     OW85803   5.796   0.964  11.769
27969SOL    HW185804   5.802   1.045  11.821
27969SOL    HW285805   5.723   0.916  11.809
27970SOL     OW85806   3.042  11.729   9.781
27970SOL    HW185807   3.005  11.796   9.724
27970SOL    HW285808   3.014  11.753   9.869
27971SOL     OW85809   7.780   1.384   5.951
27971SOL    HW185810   7.843   1.401   5.881
27971SOL    HW285811   7.742   1.299   5.930
27972SOL     OW85812  12.153  10.344  11.148
27972SOL    HW185813  12.214  10.340  11.222
27972SOL    HW285814  12.101  10.422  11.165
27973SOL     OW85815   7.413  11.079   9.320
27973SOL    HW185816   7.321  11.068   9.343
27973SOL    HW285817   7.459  11.014   9.371
27974SOL     OW85818   2.022   1.204   9.763
27974SOL    HW185819   1.957   1.197   9.833
27974SOL    HW285820   2.026   1.297   9.742
27975SOL     OW85821  11.252   6.449   6.166
27975SOL    HW185822  11.268   6.421   6.256
27975SOL    HW285823  11.321   6.407   6.115
27976SOL     OW85824   2.823  11.675   6.187
27976SOL    HW185825   2.876  11.601   6.217
27976SOL    HW285826   2.795  11.651   6.099
27977SOL     OW85827   2.218   9.209  13.517
27977SOL    HW185828   2.279   9.268  13.561
27977SOL    HW285829   2.265   9.126  13.511
27978SOL     OW85830  12.176  14.374   3.149
27978SOL    HW185831  12.119  14.440   3.186
27978SOL    HW285832  12.243  14.423   3.102
27979SOL     OW85833   6.402  11.310   4.666
27979SOL    HW185834   6.339  11.356   4.611
27979SOL    HW285835   6.370  11.322   4.755
27980SOL     OW85836   0.923   0.126  11.334
27980SOL    HW185837   0.981   0.125  11.410
27980SOL    HW285838   0.972   0.077  11.267
27981SOL     OW85839   5.658   9.907  10.481
27981SOL    HW185840   5.709   9.984  10.507
27981SOL    HW285841   5.718   9.854  10.429
27982SOL     OW85842   3.667  11.192   6.046
27982SOL    HW185843   3.739  11.176   6.107
27982SOL    HW285844   3.598  11.131   6.074
27983SOL     OW85845   8.686   2.263   3.479
27983SOL    HW185846   8.754   2.266   3.412
27983SOL    HW285847   8.718   2.321   3.548
27984SOL     OW85848   7.260  14.207  11.672
27984SOL    HW185849   7.351  14.210  11.643
27984SOL    HW285850   7.222  14.134  11.623
27985SOL     OW85851   4.889  10.355   2.425
27985SOL    HW185852   4.851  10.432   2.466
27985SOL    HW285853   4.981  10.376   2.412
27986SOL     OW85854   0.710   1.887  12.677
27986SOL    HW185855   0.652   1.812  12.674
27986SOL    HW285856   0.787   1.856  12.725
27987SOL     OW85857  10.880  13.874  10.949
27987SOL    HW185858  10.820  13.832  10.888
27987SOL    HW285859  10.903  13.956  10.907
27988SOL     OW85860   4.081   9.589  12.871
27988SOL    HW185861   4.134   9.552  12.800
27988SOL    HW285862   4.074   9.518  12.935
27989SOL     OW85863  12.114   0.923  14.273
27989SOL    HW185864  12.167   0.953  14.199
27989SOL    HW285865  12.057   0.856  14.235
27990SOL     OW85866   4.959  11.454   3.406
27990SOL    HW185867   5.028  11.512   3.441
27990SOL    HW285868   4.879  11.484   3.449
27991SOL     OW85869   2.283   6.138  13.410
27991SOL    HW185870   2.215   6.142  13.477
27991SOL    HW285871   2.236   6.142  13.327
27992SOL     OW85872  13.870   1.201   2.808
27992SOL    HW185873  13.954   1.221   2.850
27992SOL    HW285874  13.853   1.276   2.751
27993SOL     OW85875   3.819   8.058  12.040
27993SOL    HW185876   3.914   8.064  12.028
27993SOL    HW285877   3.806   8.067  12.134
27994SOL     OW85878   7.727  14.247   6.985
27994SOL    HW185879   7.661  14.308   6.951
27994SOL    HW285880   7.777  14.299   7.047
27995SOL     OW85881   1.059   4.981   3.549
27995SOL    HW185882   1.130   4.917   3.540
27995SOL    HW285883   1.044   4.988   3.643
27996SOL     OW85884   4.287   8.665   5.482
27996SOL    HW185885   4.283   8.626   5.395
27996SOL    HW285886   4.342   8.742   5.472
27997SOL     OW85887  10.844   0.534   2.261
27997SOL    HW185888  10.859   0.463   2.199
27997SOL    HW285889  10.877   0.501   2.345
27998SOL     OW85890   2.969  13.457   9.777
27998SOL    HW185891   2.879  13.482   9.798
27998SOL    HW285892   3.018  13.472   9.857
27999SOL     OW85893   0.106  13.609   8.388
27999SOL    HW185894   0.023  13.585   8.430
27999SOL    HW285895   0.134  13.529   8.343
28000SOL     OW85896   1.542   7.235   7.493
28000SOL    HW185897   1.544   7.307   7.555
28000SOL    HW285898   1.549   7.276   7.407
28001SOL     OW85899  14.639  10.688   6.581
28001SOL    HW185900  14.613  10.770   6.538
28001SOL    HW285901  14.650  10.712   6.673
28002SOL     OW85902  11.967  14.577  12.112
28002SOL    HW185903  11.880  14.552  12.142
28002SOL    HW285904  11.980  14.528  12.031
28003SOL     OW85905  10.730   8.316  11.725
28003SOL    HW185906  10.754   8.237  11.677
28003SOL    HW285907  10.677   8.367  11.664
28004SOL     OW85908   3.252  13.521   5.466
28004SOL    HW185909   3.261  13.568   5.548
28004SOL    HW285910   3.316  13.450   5.472
28005SOL     OW85911   4.907   1.242  12.547
28005SOL    HW185912   4.831   1.237  12.490
28005SOL    HW285913   4.871   1.252  12.635
28006SOL     OW85914  12.252   7.890   6.980
28006SOL    HW185915  12.340   7.877   6.945
28006SOL    HW285916  12.265   7.911   7.072
28007SOL     OW85917   6.073   7.465   2.549
28007SOL    HW185918   6.042   7.383   2.511
28007SOL    HW285919   6.080   7.447   2.643
28008SOL     OW85920   2.264   1.908  13.078
28008SOL    HW185921   2.279   1.997  13.046
28008SOL    HW285922   2.323   1.854  13.026
28009SOL     OW85923   6.885   3.612   7.332
28009SOL    HW185924   6.842   3.695   7.309
28009SOL    HW285925   6.881   3.610   7.428
28010SOL     OW85926   9.288   7.093  11.447
28010SOL    HW185927   9.210   7.061  11.401
28010SOL    HW285928   9.276   7.065  11.538
28011SOL     OW85929   9.896   6.350  11.727
28011SOL    HW185930   9.921   6.430  11.774
28011SOL    HW285931   9.976   6.298  11.724
28012SOL     OW85932   0.888   7.392  12.448
28012SOL    HW185933   0.856   7.460  12.507
28012SOL    HW285934   0.820   7.324  12.451
28013SOL     OW85935   1.573   1.265   2.476
28013SOL    HW185936   1.654   1.303   2.510
28013SOL    HW285937   1.504   1.295   2.536
28014SOL     OW85938  12.743   0.673   3.427
28014SOL    HW185939  12.648   0.668   3.432
28014SOL    HW285940  12.761   0.750   3.373
28015SOL     OW85941  13.859   8.100  14.230
28015SOL    HW185942  13.787   8.066  14.177
28015SOL    HW285943  13.934   8.045  14.207
28016SOL     OW85944   9.451  13.656   2.170
28016SOL    HW185945   9.388  13.715   2.210
28016SOL    HW285946   9.506  13.712   2.116
28017SOL     OW85947   4.866   2.654   8.073
28017SOL    HW185948   4.781   2.654   8.029
28017SOL    HW285949   4.860   2.584   8.138
28018SOL     OW85950   5.592   6.403   6.054
28018SOL    HW185951   5.535   6.474   6.082
28018SOL    HW285952   5.603   6.349   6.132
28019SOL     OW85953   6.720   5.629  12.361
28019SOL    HW185954   6.679   5.632  12.448
28019SOL    HW285955   6.647   5.643  12.300
28020SOL     OW85956   7.576   2.549   5.369
28020SOL    HW185957   7.612   2.537   5.281
28020SOL    HW285958   7.556   2.642   5.374
28021SOL     OW85959  11.321   4.821   4.990
28021SOL    HW185960  11.392   4.856   4.936
28021SOL    HW285961  11.365   4.761   5.051
28022SOL     OW85962   8.030  14.270   5.514
28022SOL    HW185963   8.010  14.272   5.608
28022SOL    HW285964   8.108  14.216   5.507
28023SOL     OW85965  14.254  11.580   0.557
28023SOL    HW185966  14.172  11.611   0.596
28023SOL    HW285967  14.308  11.556   0.632
28024SOL     OW85968  13.583   0.098   3.879
28024SOL    HW185969  13.620   0.026   3.930
28024SOL    HW285970  13.504   0.062   3.840
28025SOL     OW85971  14.753   1.090   8.253
28025SOL    HW185972  14.734   1.020   8.190
28025SOL    HW285973  14.848   1.101   8.248
28026SOL     OW85974   7.269  14.559  13.512
28026SOL    HW185975   7.243  14.512  13.591
28026SOL    HW285976   7.339  14.617  13.540
28027SOL     OW85977  13.158  12.045   1.684
28027SOL    HW185978  13.096  12.081   1.747
28027SOL    HW285979  13.151  11.950   1.695
28028SOL     OW85980  11.441   6.379   6.360
28028SOL    HW185981  11.382   6.356   6.432
28028SOL    HW285982  11.468   6.469   6.379
28029SOL     OW85983   5.463  14.590   5.403
28029SOL    HW185984   5.393  14.541   5.360
28029SOL    HW285985   5.420  14.639   5.472
28030SOL     OW85986  12.197  14.865  10.470
28030SOL    HW185987  12.239  14.867  10.556
28030SOL    HW285988  12.110   0.033  10.486
28031SOL     OW85989  11.230   4.523   1.592
28031SOL    HW185990  11.198   4.606   1.555
28031SOL    HW285991  11.196   4.456   1.533
28032SOL     OW85992  10.300   8.686   5.825
28032SOL    HW185993  10.334   8.665   5.912
28032SOL    HW285994  10.215   8.641   5.821
28033SOL     OW85995   4.601  12.850   5.738
28033SOL    HW185996   4.548  12.867   5.660
28033SOL    HW285997   4.690  12.839   5.704
28034SOL     OW85998   2.566   9.486   5.283
28034SOL    HW185999   2.582   9.465   5.191
28034SOL    HW286000   2.568   9.401   5.327
28035SOL     OW86001   4.408   3.332   3.764
28035SOL    HW186002   4.486   3.283   3.736
28035SOL    HW286003   4.436   3.423   3.765
28036SOL     OW86004   7.790   3.423   3.133
28036SOL    HW186005   7.778   3.355   3.066
28036SOL    HW286006   7.720   3.486   3.116
28037SOL     OW86007   7.810  12.475   7.682
28037SOL    HW186008   7.847  12.425   7.610
28037SOL    HW286009   7.819  12.567   7.655
28038SOL     OW86010   8.497   8.039   9.899
28038SOL    HW186011   8.471   8.032   9.807
28038SOL    HW286012   8.559   7.967   9.911
28039SOL     OW86013   7.637  11.377  12.988
28039SOL    HW186014   7.551  11.410  13.015
28039SOL    HW286015   7.685  11.365  13.070
28040SOL     OW86016  11.903   7.672   8.927
28040SOL    HW186017  11.978   7.649   8.982
28040SOL    HW286018  11.894   7.598   8.867
28041SOL     OW86019   3.816   2.086  10.217
28041SOL    HW186020   3.828   2.177  10.244
28041SOL    HW286021   3.840   2.085  10.124
28042SOL     OW86022   1.013   7.006   3.849
28042SOL    HW186023   1.038   6.916   3.831
28042SOL    HW286024   1.047   7.024   3.937
28043SOL     OW86025  10.611   5.465   6.468
28043SOL    HW186026  10.587   5.557   6.462
28043SOL    HW286027  10.638   5.453   6.559
28044SOL     OW86028   5.860   5.782  11.526
28044SOL    HW186029   5.804   5.857  11.545
28044SOL    HW286030   5.919   5.777  11.601
28045SOL     OW86031   3.420  10.743   0.226
28045SOL    HW186032   3.485  10.792   0.176
28045SOL    HW286033   3.349  10.805   0.240
28046SOL     OW86034  10.807  12.381  14.696
28046SOL    HW186035  10.900  12.402  14.688
28046SOL    HW286036  10.764  12.465  14.711
28047SOL     OW86037   0.746   7.780   9.764
28047SOL    HW186038   0.681   7.761   9.832
28047SOL    HW286039   0.829   7.753   9.802
28048SOL     OW86040   8.658  13.610   6.224
28048SOL    HW186041   8.603  13.584   6.150
28048SOL    HW286042   8.743  13.572   6.204
28049SOL     OW86043   4.457   7.192   6.769
28049SOL    HW186044   4.411   7.243   6.702
28049SOL    HW286045   4.548   7.218   6.760
28050SOL     OW86046  10.582   9.520  12.310
28050SOL    HW186047  10.565   9.445  12.367
28050SOL    HW286048  10.520   9.587  12.340
28051SOL     OW86049  12.171  12.099   5.157
28051SOL    HW186050  12.138  12.072   5.071
28051SOL    HW286051  12.196  12.190   5.144
28052SOL     OW86052   6.085   3.416  13.031
28052SOL    HW186053   6.005   3.404  12.980
28052SOL    HW286054   6.079   3.349  13.100
28053SOL     OW86055   9.304  11.865   3.023
28053SOL    HW186056   9.367  11.843   2.954
28053SOL    HW286057   9.301  11.961   3.023
28054SOL     OW86058   1.027   5.411   7.590
28054SOL    HW186059   1.067   5.424   7.676
28054SOL    HW286060   0.977   5.330   7.598
28055SOL     OW86061   4.408   8.027   2.785
28055SOL    HW186062   4.340   7.980   2.736
28055SOL    HW286063   4.363   8.105   2.818
28056SOL     OW86064   0.763   7.761   3.850
28056SOL    HW186065   0.792   7.811   3.774
28056SOL    HW286066   0.669   7.777   3.855
28057SOL     OW86067   3.252   1.839   8.083
28057SOL    HW186068   3.320   1.846   8.149
28057SOL    HW286069   3.298   1.813   8.003
28058SOL     OW86070   7.873   6.904  10.585
28058SOL    HW186071   7.951   6.894  10.640
28058SOL    HW286072   7.799   6.895  10.645
28059SOL     OW86073   2.642   4.079  12.051
28059SOL    HW186074   2.629   4.136  12.127
28059SOL    HW286075   2.554   4.050  12.027
28060SOL     OW86076   6.208   3.854   8.762
28060SOL    HW186077   6.204   3.769   8.717
28060SOL    HW286078   6.300   3.879   8.756
28061SOL     OW86079  13.067   5.640  13.123
28061SOL    HW186080  13.052   5.653  13.029
28061SOL    HW286081  12.980   5.643  13.162
28062SOL     OW86082  14.044   0.552  13.253
28062SOL    HW186083  13.986   0.477  13.247
28062SOL    HW286084  14.112   0.536  13.187
28063SOL     OW86085  12.883   1.892   9.486
28063SOL    HW186086  12.845   1.833   9.421
28063SOL    HW286087  12.955   1.935   9.441
28064SOL     OW86088  12.991  13.826   6.137
28064SOL    HW186089  13.001  13.795   6.227
28064SOL    HW286090  12.983  13.921   6.144
28065SOL     OW86091  14.408  11.837   1.047
28065SOL    HW186092  14.403  11.931   1.065
28065SOL    HW286093  14.319  11.814   1.019
28066SOL     OW86094   8.727   5.034   7.542
28066SOL    HW186095   8.798   5.066   7.486
28066SOL    HW286096   8.739   5.081   7.624
28067SOL     OW86097   2.221   8.161   3.124
28067SOL    HW186098   2.202   8.205   3.207
28067SOL    HW286099   2.139   8.119   3.099
28068SOL     OW86100   7.177   3.277   0.372
28068SOL    HW186101   7.128   3.325   0.305
28068SOL    HW286102   7.110   3.247   0.433
28069SOL     OW86103   8.168   6.355  11.616
28069SOL    HW186104   8.094   6.335  11.558
28069SOL    HW286105   8.196   6.269  11.649
28070SOL     OW86106   3.587   0.185  12.173
28070SOL    HW186107   3.613   0.276  12.156
28070SOL    HW286108   3.554   0.186  12.262
28071SOL     OW86109  10.118   5.253   7.356
28071SOL    HW186110  10.134   5.337   7.315
28071SOL    HW286111  10.105   5.192   7.283
28072SOL     OW86112   1.136  13.873  13.409
28072SOL    HW186113   1.084  13.952  13.395
28072SOL    HW286114   1.072  13.804  13.426
28073SOL     OW86115   3.786   0.250   7.515
28073SOL    HW186116   3.768   0.341   7.537
28073SOL    HW286117   3.784   0.248   7.419
28074SOL     OW86118   3.023   8.051   9.638
28074SOL    HW186119   3.102   8.072   9.688
28074SOL    HW286120   2.971   7.996   9.696
28075SOL     OW86121   7.548   8.101   4.102
28075SOL    HW186122   7.560   8.195   4.111
28075SOL    HW286123   7.517   8.072   4.188
28076SOL     OW86124  11.247   6.545   1.371
28076SOL    HW186125  11.319   6.485   1.391
28076SOL    HW286126  11.289   6.623   1.336
28077SOL     OW86127   5.336   9.554   0.682
28077SOL    HW186128   5.358   9.615   0.612
28077SOL    HW286129   5.299   9.608   0.751
28078SOL     OW86130   9.719   2.752  12.165
28078SOL    HW186131   9.796   2.806  12.149
28078SOL    HW286132   9.657   2.810  12.209
28079SOL     OW86133   4.544   4.733   6.337
28079SOL    HW186134   4.451   4.756   6.338
28079SOL    HW286135   4.573   4.748   6.427
28080SOL     OW86136  14.199   2.397  10.904
28080SOL    HW186137  14.121   2.421  10.854
28080SOL    HW286138  14.195   2.302  10.910
28081SOL     OW86139  12.635  13.139   7.099
28081SOL    HW186140  12.588  13.218   7.127
28081SOL    HW286141  12.667  13.160   7.012
28082SOL     OW86142  14.013   5.174   3.392
28082SOL    HW186143  14.050   5.254   3.430
28082SOL    HW286144  14.046   5.173   3.302
28083SOL     OW86145   0.896   0.813   8.438
28083SOL    HW186146   0.842   0.780   8.510
28083SOL    HW286147   0.941   0.890   8.475
28084SOL     OW86148   3.685   8.399   3.467
28084SOL    HW186149   3.739   8.347   3.407
28084SOL    HW286150   3.670   8.481   3.421
28085SOL     OW86151  11.199  14.729   9.425
28085SOL    HW186152  11.242  14.753   9.343
28085SOL    HW286153  11.269  14.694   9.480
28086SOL     OW86154  12.751   2.715   7.439
28086SOL    HW186155  12.807   2.643   7.412
28086SOL    HW286156  12.667   2.674   7.462
28087SOL     OW86157   7.479  11.778  13.474
28087SOL    HW186158   7.571  11.763  13.498
28087SOL    HW286159   7.432  11.776  13.556
28088SOL     OW86160  10.939   1.508   9.493
28088SOL    HW186161  10.952   1.597   9.461
28088SOL    HW286162  10.975   1.509   9.582
28089SOL     OW86163   1.935   4.206   8.590
28089SOL    HW186164   2.001   4.227   8.657
28089SOL    HW286165   1.851   4.213   8.635
28090SOL     OW86166   4.124   9.260   7.669
28090SOL    HW186167   4.129   9.215   7.584
28090SOL    HW286168   4.206   9.309   7.675
28091SOL     OW86169  14.535  12.400   2.973
28091SOL    HW186170  14.563  12.327   3.029
28091SOL    HW286171  14.449  12.425   3.008
28092SOL     OW86172  12.197  10.790  11.760
28092SOL    HW186173  12.144  10.758  11.687
28092SOL    HW286174  12.148  10.865  11.794
28093SOL     OW86175  13.363   1.112   0.378
28093SOL    HW186176  13.333   1.203   0.367
28093SOL    HW286177  13.354   1.074   0.290
28094SOL     OW86178   6.406   6.474   4.374
28094SOL    HW186179   6.446   6.518   4.448
28094SOL    HW286180   6.320   6.514   4.365
28095SOL     OW86181   8.958   9.914   6.486
28095SOL    HW186182   8.959   9.829   6.441
28095SOL    HW286183   8.905   9.970   6.429
28096SOL     OW86184   6.218   1.427  13.607
28096SOL    HW186185   6.153   1.457  13.670
28096SOL    HW286186   6.251   1.345  13.645
28097SOL     OW86187  13.006   9.226   5.190
28097SOL    HW186188  13.029   9.235   5.282
28097SOL    HW286189  12.911   9.240   5.187
28098SOL     OW86190  14.330   8.619   6.140
28098SOL    HW186191  14.400   8.597   6.078
28098SOL    HW286192  14.251   8.625   6.087
28099SOL     OW86193  13.434  11.331   1.999
28099SOL    HW186194  13.500  11.264   2.014
28099SOL    HW286195  13.365  11.287   1.950
28100SOL     OW86196   7.812  12.429   2.347
28100SOL    HW186197   7.834  12.336   2.345
28100SOL    HW286198   7.762  12.444   2.267
28101SOL     OW86199   2.822  14.342  13.058
28101SOL    HW186200   2.894  14.346  13.120
28101SOL    HW286201   2.744  14.362  13.110
28102SOL     OW86202   9.077  11.852   4.753
28102SOL    HW186203   9.144  11.811   4.699
28102SOL    HW286204   9.104  11.832   4.843
28103SOL     OW86205   4.487   9.188   3.499
28103SOL    HW186206   4.460   9.233   3.579
28103SOL    HW286207   4.581   9.175   3.510
28104SOL     OW86208   2.376   2.661  10.937
28104SOL    HW186209   2.334   2.601  10.876
28104SOL    HW286210   2.337   2.639  11.022
28105SOL     OW86211   7.980   7.268  10.289
28105SOL    HW186212   7.902   7.216  10.269
28105SOL    HW286213   7.991   7.260  10.383
28106SOL     OW86214   0.010   6.238   7.304
28106SOL    HW186215   0.084   6.202   7.256
28106SOL    HW286216  14.851   6.167   7.362
28107SOL     OW86217  10.582   3.331   0.703
28107SOL    HW186218  10.582   3.424   0.679
28107SOL    HW286219  10.503   3.320   0.756
28108SOL     OW86220   3.686  14.381   3.629
28108SOL    HW186221   3.750  14.312   3.616
28108SOL    HW286222   3.737  14.462   3.630
28109SOL     OW86223   6.041   4.036   3.590
28109SOL    HW186224   5.992   4.092   3.650
28109SOL    HW286225   6.015   3.947   3.615
28110SOL     OW86226  11.817   0.827  13.088
28110SOL    HW186227  11.810   0.910  13.136
28110SOL    HW286228  11.799   0.760  13.154
28111SOL     OW86229  11.534   9.971   2.424
28111SOL    HW186230  11.542   9.897   2.364
28111SOL    HW286231  11.476   9.940   2.494
28112SOL     OW86232   2.915   4.250  14.613
28112SOL    HW186233   2.941   4.325  14.560
28112SOL    HW286234   2.970   4.256  14.692
28113SOL     OW86235  14.273   5.808   7.820
28113SOL    HW186236  14.188   5.817   7.863
28113SOL    HW286237  14.260   5.739   7.755
28114SOL     OW86238   1.146   7.968   7.709
28114SOL    HW186239   1.201   7.891   7.726
28114SOL    HW286240   1.074   7.959   7.771
28115SOL     OW86241   6.492   0.377  14.180
28115SOL    HW186242   6.398   0.395  14.181
28115SOL    HW286243   6.513   0.362  14.088
28116SOL     OW86244   5.323  11.039   4.220
28116SOL    HW186245   5.392  11.104   4.204
28116SOL    HW286246   5.254  11.089   4.263
28117SOL     OW86247   4.177  12.410   9.789
28117SOL    HW186248   4.088  12.403   9.754
28117SOL    HW286249   4.221  12.472   9.731
28118SOL     OW86250   2.610   1.916   2.188
28118SOL    HW186251   2.702   1.942   2.193
28118SOL    HW286252   2.569   1.983   2.133
28119SOL     OW86253   8.154   9.191  11.072
28119SOL    HW186254   8.147   9.099  11.046
28119SOL    HW286255   8.144   9.190  11.167
28120SOL     OW86256   6.228   0.756   2.158
28120SOL    HW186257   6.141   0.790   2.137
28120SOL    HW286258   6.273   0.829   2.202
28121SOL     OW86259  10.691  12.941  14.655
28121SOL    HW186260  10.650  13.018  14.616
28121SOL    HW286261  10.785  12.957  14.646
28122SOL     OW86262  11.058   4.622   2.309
28122SOL    HW186263  10.968   4.602   2.282
28122SOL    HW286264  11.094   4.538   2.336
28123SOL     OW86265   1.097   8.544   7.076
28123SOL    HW186266   1.180   8.553   7.123
28123SOL    HW286267   1.114   8.584   6.990
28124SOL     OW86268   5.448  10.471   7.500
28124SOL    HW186269   5.535  10.508   7.484
28124SOL    HW286270   5.437  10.407   7.429
28125SOL     OW86271   1.315  11.639  12.241
28125SOL    HW186272   1.222  11.639  12.221
28125SOL    HW286273   1.319  11.666  12.333
28126SOL     OW86274  12.742   8.961   9.226
28126SOL    HW186275  12.675   8.956   9.157
28126SOL    HW286276  12.815   8.910   9.193
28127SOL     OW86277   8.930  12.248  10.610
28127SOL    HW186278   8.988  12.291  10.673
28127SOL    HW286279   8.908  12.164  10.651
28128SOL     OW86280  11.369   5.599   1.844
28128SOL    HW186281  11.289   5.651   1.845
28128SOL    HW286282  11.368   5.553   1.928
28129SOL     OW86283   1.814   8.147   0.123
28129SOL    HW186284   1.823   8.075   0.186
28129SOL    HW286285   1.721   8.167   0.121
28130SOL     OW86286   5.947   5.542   3.788
28130SOL    HW186287   6.039   5.518   3.792
28130SOL    HW286288   5.948   5.636   3.768
28131SOL     OW86289   1.766   0.476  10.252
28131SOL    HW186290   1.788   0.491  10.159
28131SOL    HW286291   1.727   0.389  10.254
28132SOL     OW86292   8.496   8.376   7.089
28132SOL    HW186293   8.431   8.306   7.100
28132SOL    HW286294   8.524   8.397   7.178
28133SOL     OW86295   8.128   7.572   2.880
28133SOL    HW186296   8.141   7.650   2.934
28133SOL    HW286297   8.152   7.499   2.937
28134SOL     OW86298   9.814  10.837   8.193
28134SOL    HW186299   9.761  10.912   8.166
28134SOL    HW286300   9.765  10.797   8.264
28135SOL     OW86301   5.980   0.256   4.126
28135SOL    HW186302   5.971   0.342   4.085
28135SOL    HW286303   5.901   0.247   4.180
28136SOL     OW86304  11.317  14.294  13.367
28136SOL    HW186305  11.348  14.208  13.396
28136SOL    HW286306  11.232  14.304  13.408
28137SOL     OW86307   0.708  13.014   8.700
28137SOL    HW186308   0.761  12.934   8.695
28137SOL    HW286309   0.708  13.048   8.611
28138SOL     OW86310   3.814   1.279   5.836
28138SOL    HW186311   3.763   1.353   5.803
28138SOL    HW286312   3.898   1.286   5.791
28139SOL     OW86313   6.465   0.699  12.026
28139SOL    HW186314   6.551   0.697  12.068
28139SOL    HW286315   6.447   0.791  12.010
28140SOL     OW86316  13.992   3.550   9.540
28140SOL    HW186317  13.926   3.486   9.568
28140SOL    HW286318  13.948   3.603   9.474
28141SOL     OW86319   5.327  12.012   2.423
28141SOL    HW186320   5.332  12.036   2.331
28141SOL    HW286321   5.395  12.065   2.465
28142SOL     OW86322  13.654  13.067   2.775
28142SOL    HW186323  13.596  13.017   2.717
28142SOL    HW286324  13.741  13.031   2.758
28143SOL     OW86325   6.688   8.436   1.472
28143SOL    HW186326   6.618   8.434   1.538
28143SOL    HW286327   6.762   8.476   1.518
28144SOL     OW86328  11.241   5.468   0.457
28144SOL    HW186329  11.166   5.522   0.436
28144SOL    HW286330  11.255   5.414   0.379
28145SOL     OW86331   5.322   5.142  11.299
28145SOL    HW186332   5.408   5.112  11.269
28145SOL    HW286333   5.298   5.078  11.366
28146SOL     OW86334  14.259  10.977   8.953
28146SOL    HW186335  14.278  10.888   8.926
28146SOL    HW286336  14.172  10.972   8.993
28147SOL     OW86337   4.773   8.955   3.975
28147SOL    HW186338   4.723   8.939   4.054
28147SOL    HW286339   4.779   8.870   3.932
28148SOL     OW86340  14.422   6.716  13.033
28148SOL    HW186341  14.390   6.686  12.948
28148SOL    HW286342  14.347   6.704  13.092
28149SOL     OW86343   0.733   1.065   8.687
28149SOL    HW186344   0.662   1.130   8.683
28149SOL    HW286345   0.734   1.026   8.599
28150SOL     OW86346   7.964   2.884   5.629
28150SOL    HW186347   7.896   2.911   5.691
28150SOL    HW286348   8.041   2.935   5.654
28151SOL     OW86349   3.701   2.853   1.830
28151SOL    HW186350   3.714   2.934   1.880
28151SOL    HW286351   3.699   2.784   1.895
28152SOL     OW86352   7.511  14.316   2.355
28152SOL    HW186353   7.589  14.371   2.342
28152SOL    HW286354   7.542  14.227   2.340
28153SOL     OW86355   3.715  14.556  11.045
28153SOL    HW186356   3.767  14.486  11.085
28153SOL    HW286357   3.627  14.543  11.081
28154SOL     OW86358   9.950   6.940   1.018
28154SOL    HW186359   9.961   7.030   1.049
28154SOL    HW286360   9.967   6.886   1.095
28155SOL     OW86361   3.445   4.814   2.432
28155SOL    HW186362   3.503   4.880   2.395
28155SOL    HW286363   3.465   4.816   2.526
28156SOL     OW86364  14.349   5.604   3.142
28156SOL    HW186365  14.288   5.537   3.112
28156SOL    HW286366  14.436   5.568   3.125
28157SOL     OW86367  13.432   3.756   0.417
28157SOL    HW186368  13.460   3.678   0.369
28157SOL    HW286369  13.514   3.799   0.443
28158SOL     OW86370   0.727  11.912   2.453
28158SOL    HW186371   0.810  11.939   2.492
28158SOL    HW286372   0.750  11.845   2.390
28159SOL     OW86373  11.448  14.707  13.921
28159SOL    HW186374  11.404  14.774  13.869
28159SOL    HW286375  11.519  14.676  13.865
28160SOL     OW86376  10.296   4.108   7.118
28160SOL    HW186377  10.244   4.080   7.194
28160SOL    HW286378  10.237   4.100   7.044
28161SOL     OW86379   3.071   1.448   2.327
28161SOL    HW186380   2.981   1.480   2.328
28161SOL    HW286381   3.064   1.356   2.300
28162SOL     OW86382   0.860   2.757   7.145
28162SOL    HW186383   0.849   2.744   7.051
28162SOL    HW286384   0.879   2.850   7.154
28163SOL     OW86385   8.358   5.557   9.203
28163SOL    HW186386   8.288   5.520   9.256
28163SOL    HW286387   8.355   5.651   9.222
28164SOL     OW86388  12.949   4.535   0.587
28164SOL    HW186389  12.859   4.547   0.616
28164SOL    HW286390  12.944   4.464   0.523
28165SOL     OW86391   1.254  12.141   1.738
28165SOL    HW186392   1.242  12.145   1.643
28165SOL    HW286393   1.309  12.065   1.752
28166SOL     OW86394   2.904  10.971   3.723
28166SOL    HW186395   2.951  10.981   3.640
28166SOL    HW286396   2.871  11.059   3.742
28167SOL     OW86397   1.114   7.303  12.852
28167SOL    HW186398   1.049   7.235  12.836
28167SOL    HW286399   1.064   7.384  12.856
28168SOL     OW86400   6.007   8.617   3.103
28168SOL    HW186401   6.059   8.554   3.153
28168SOL    HW286402   5.961   8.564   3.038
28169SOL     OW86403   1.025  10.610  11.906
28169SOL    HW186404   1.024  10.516  11.925
28169SOL    HW286405   0.934  10.637  11.916
28170SOL     OW86406   5.659   5.313   5.402
28170SOL    HW186407   5.684   5.402   5.377
28170SOL    HW286408   5.715   5.257   5.349
28171SOL     OW86409  10.360  11.630   2.031
28171SOL    HW186410  10.391  11.638   2.121
28171SOL    HW286411  10.302  11.554   2.031
28172SOL     OW86412   3.882  12.973   7.762
28172SOL    HW186413   3.885  12.981   7.858
28172SOL    HW286414   3.955  12.915   7.741
28173SOL     OW86415   6.049   7.233   9.300
28173SOL    HW186416   5.984   7.187   9.354
28173SOL    HW286417   6.124   7.174   9.298
28174SOL     OW86418   7.971   9.705   9.639
28174SOL    HW186419   7.912   9.709   9.564
28174SOL    HW286420   7.975   9.612   9.662
28175SOL     OW86421  10.347  13.328   2.567
28175SOL    HW186422  10.298  13.397   2.612
28175SOL    HW286423  10.439  13.356   2.574
28176SOL     OW86424  13.585   5.650   8.379
28176SOL    HW186425  13.501   5.621   8.343
28176SOL    HW286426  13.588   5.612   8.467
28177SOL     OW86427  10.133   3.810  11.802
28177SOL    HW186428  10.207   3.869  11.791
28177SOL    HW286429  10.073   3.835  11.731
28178SOL     OW86430   6.463  12.233   3.458
28178SOL    HW186431   6.452  12.146   3.420
28178SOL    HW286432   6.541  12.268   3.416
28179SOL     OW86433  13.602   0.654   6.441
28179SOL    HW186434  13.506   0.658   6.435
28179SOL    HW286435  13.630   0.746   6.444
28180SOL     OW86436  14.531   4.496  12.777
28180SOL    HW186437  14.465   4.485  12.845
28180SOL    HW286438  14.490   4.555  12.713
28181SOL     OW86439   9.515   9.780   3.032
28181SOL    HW186440   9.504   9.782   2.937
28181SOL    HW286441   9.585   9.717   3.047
28182SOL     OW86442  14.585   8.441   4.051
28182SOL    HW186443  14.505   8.464   4.004
28182SOL    HW286444  14.655   8.480   3.999
28183SOL     OW86445   4.744   8.148   1.787
28183SOL    HW186446   4.756   8.173   1.696
28183SOL    HW286447   4.692   8.218   1.825
28184SOL     OW86448   3.465   8.503   0.560
28184SOL    HW186449   3.479   8.596   0.542
28184SOL    HW286450   3.478   8.494   0.654
28185SOL     OW86451   5.966   1.790   0.663
28185SOL    HW186452   6.001   1.780   0.574
28185SOL    HW286453   6.008   1.869   0.697
28186SOL     OW86454  12.697  10.406  13.859
28186SOL    HW186455  12.640  10.482  13.857
28186SOL    HW286456  12.780  10.437  13.822
28187SOL     OW86457   9.056   5.235   4.032
28187SOL    HW186458   9.009   5.305   4.077
28187SOL    HW286459   9.088   5.274   3.952
28188SOL     OW86460   9.272  12.849   1.275
28188SOL    HW186461   9.224  12.774   1.310
28188SOL    HW286462   9.356  12.812   1.246
28189SOL     OW86463  14.518   0.155   2.600
28189SOL    HW186464  14.593   0.200   2.641
28189SOL    HW286465  14.472   0.224   2.552
28190SOL     OW86466  12.353  10.609   4.991
28190SOL    HW186467  12.334  10.660   4.912
28190SOL    HW286468  12.425  10.552   4.966
28191SOL     OW86469   5.457  11.101  13.854
28191SOL    HW186470   5.379  11.061  13.892
28191SOL    HW286471   5.463  11.064  13.766
28192SOL     OW86472  10.475   9.780   4.445
28192SOL    HW186473  10.528   9.802   4.368
28192SOL    HW286474  10.530   9.805   4.519
28193SOL     OW86475   8.640  11.733  10.224
28193SOL    HW186476   8.624  11.826  10.209
28193SOL    HW286477   8.563  11.702  10.272
28194SOL     OW86478  13.360  11.908   8.475
28194SOL    HW186479  13.354  12.002   8.457
28194SOL    HW286480  13.296  11.868   8.416
28195SOL     OW86481   0.857  11.820  10.019
28195SOL    HW186482   0.829  11.827   9.928
28195SOL    HW286483   0.937  11.871  10.024
28196SOL     OW86484   3.919   2.138   2.731
28196SOL    HW186485   3.828   2.169   2.729
28196SOL    HW286486   3.931   2.108   2.821
28197SOL     OW86487   3.544  13.861   6.536
28197SOL    HW186488   3.501  13.946   6.536
28197SOL    HW286489   3.636  13.880   6.552
28198SOL     OW86490  11.848  12.343   7.517
28198SOL    HW186491  11.783  12.404   7.553
28198SOL    HW286492  11.920  12.399   7.489
28199SOL     OW86493   7.706  13.875   6.679
28199SOL    HW186494   7.740  13.941   6.741
28199SOL    HW286495   7.648  13.924   6.622
28200SOL     OW86496   1.084  10.295   5.101
28200SOL    HW186497   1.094  10.245   5.182
28200SOL    HW286498   0.989  10.303   5.089
28201SOL     OW86499  13.068   2.568  14.250
28201SOL    HW186500  13.043   2.643  14.195
28201SOL    HW286501  13.060   2.601  14.339
28202SOL     OW86502  10.869   0.340   4.343
28202SOL    HW186503  10.877   0.334   4.438
28202SOL    HW286504  10.809   0.413   4.328
28203SOL     OW86505   9.535   1.073   5.830
28203SOL    HW186506   9.467   1.015   5.794
28203SOL    HW286507   9.496   1.160   5.826
28204SOL     OW86508  11.701  10.347   7.349
28204SOL    HW186509  11.639  10.276   7.361
28204SOL    HW286510  11.659  10.405   7.285
28205SOL     OW86511   1.455   4.717   6.714
28205SOL    HW186512   1.546   4.696   6.735
28205SOL    HW286513   1.431   4.787   6.774
28206SOL     OW86514  13.009   0.280  10.584
28206SOL    HW186515  13.055   0.314  10.507
28206SOL    HW286516  12.954   0.353  10.613
28207SOL     OW86517   6.526   9.287  11.985
28207SOL    HW186518   6.598   9.260  12.041
28207SOL    HW286519   6.535   9.234  11.906
28208SOL     OW86520   7.291   7.014   0.474
28208SOL    HW186521   7.327   7.097   0.503
28208SOL    HW286522   7.286   6.961   0.553
28209SOL     OW86523  13.266   1.312   6.172
28209SOL    HW186524  13.317   1.258   6.232
28209SOL    HW286525  13.184   1.264   6.159
28210SOL     OW86526   1.376   5.538   5.796
28210SOL    HW186527   1.396   5.626   5.764
28210SOL    HW286528   1.307   5.551   5.862
28211SOL     OW86529   4.513  10.013   7.772
28211SOL    HW186530   4.447   9.970   7.718
28211SOL    HW286531   4.591  10.015   7.716
28212SOL     OW86532  13.089   2.838  12.713
28212SOL    HW186533  13.007   2.836  12.663
28212SOL    HW286534  13.085   2.760  12.768
28213SOL     OW86535  13.970   8.651   1.105
28213SOL    HW186536  14.060   8.683   1.097
28213SOL    HW286537  13.951   8.655   1.199
28214SOL     OW86538   2.636   3.334   8.147
28214SOL    HW186539   2.581   3.319   8.224
28214SOL    HW286540   2.612   3.265   8.086
28215SOL     OW86541   8.776   0.651  12.742
28215SOL    HW186542   8.764   0.741  12.771
28215SOL    HW286543   8.767   0.599  12.822
28216SOL     OW86544   3.439   0.808   2.562
28216SOL    HW186545   3.478   0.724   2.587
28216SOL    HW286546   3.380   0.786   2.490
28217SOL     OW86547  12.588  12.328  11.577
28217SOL    HW186548  12.556  12.238  11.575
28217SOL    HW286549  12.622  12.344  11.489
28218SOL     OW86550   0.408  11.528   4.955
28218SOL    HW186551   0.501  11.535   4.932
28218SOL    HW286552   0.374  11.616   4.943
28219SOL     OW86553  12.729   0.895   0.114
28219SOL    HW186554  12.713   0.981   0.152
28219SOL    HW286555  12.808   0.863   0.157
28220SOL     OW86556   1.755   0.070   7.188
28220SOL    HW186557   1.774   0.017   7.265
28220SOL    HW286558   1.674   0.116   7.210
28221SOL     OW86559   9.362   3.394   6.724
28221SOL    HW186560   9.406   3.348   6.796
28221SOL    HW286561   9.379   3.338   6.647
28222SOL     OW86562   6.949   5.840   1.637
28222SOL    HW186563   6.912   5.753   1.655
28222SOL    HW286564   6.879   5.901   1.659
28223SOL     OW86565   3.770  14.433   3.241
28223SOL    HW186566   3.817  14.480   3.310
28223SOL    HW286567   3.831  14.431   3.167
28224SOL     OW86568  10.960   3.875   8.376
28224SOL    HW186569  10.918   3.790   8.392
28224SOL    HW286570  10.920   3.906   8.295
28225SOL     OW86571   0.783   6.419  14.802
28225SOL    HW186572   0.819   6.367  14.730
28225SOL    HW286573   0.837   6.498  14.804
28226SOL     OW86574   1.384   8.166   6.173
28226SOL    HW186575   1.451   8.233   6.186
28226SOL    HW286576   1.301   8.215   6.172
28227SOL     OW86577   9.875  10.374   3.253
28227SOL    HW186578   9.931  10.443   3.288
28227SOL    HW286579   9.868  10.310   3.323
28228SOL     OW86580  10.850  13.365   1.538
28228SOL    HW186581  10.821  13.304   1.470
28228SOL    HW286582  10.872  13.446   1.491
28229SOL     OW86583   9.166  10.141   1.590
28229SOL    HW186584   9.113  10.171   1.517
28229SOL    HW286585   9.119  10.065   1.625
28230SOL     OW86586  14.173   9.725  13.364
28230SOL    HW186587  14.256   9.728  13.412
28230SOL    HW286588  14.106   9.724  13.433
28231SOL     OW86589   8.788   3.577   0.661
28231SOL    HW186590   8.841   3.592   0.583
28231SOL    HW286591   8.814   3.645   0.722
28232SOL     OW86592   1.182   5.479   2.589
28232SOL    HW186593   1.185   5.568   2.556
28232SOL    HW286594   1.229   5.483   2.673
28233SOL     OW86595  13.139  11.454   4.490
28233SOL    HW186596  13.111  11.508   4.564
28233SOL    HW286597  13.148  11.516   4.418
28234SOL     OW86598   4.159   0.198   1.076
28234SOL    HW186599   4.177   0.104   1.079
28234SOL    HW286600   4.246   0.239   1.082
28235SOL     OW86601  12.477   1.335   0.991
28235SOL    HW186602  12.496   1.417   0.946
28235SOL    HW286603  12.383   1.322   0.977
28236SOL     OW86604   5.517   0.960  10.509
28236SOL    HW186605   5.550   0.893  10.569
28236SOL    HW286606   5.449   1.005  10.559
28237SOL     OW86607  12.922   7.150   4.414
28237SOL    HW186608  12.851   7.178   4.356
28237SOL    HW286609  12.956   7.232   4.451
28238SOL     OW86610   4.455   6.907   7.946
28238SOL    HW186611   4.410   6.921   7.862
28238SOL    HW286612   4.514   6.834   7.929
28239SOL     OW86613  13.630   2.023  14.713
28239SOL    HW186614  13.725   2.039  14.711
28239SOL    HW286615  13.609   1.988  14.627
28240SOL     OW86616   5.885   8.414  14.780
28240SOL    HW186617   5.809   8.471  14.770
28240SOL    HW286618   5.857   8.329  14.747
28241SOL     OW86619   6.236  10.242  13.708
28241SOL    HW186620   6.285  10.160  13.715
28241SOL    HW286621   6.146  10.214  13.687
28242SOL     OW86622   3.254   1.947   4.998
28242SOL    HW186623   3.335   1.995   5.014
28242SOL    HW286624   3.238   1.959   4.904
28243SOL     OW86625   5.456   8.876   5.005
28243SOL    HW186626   5.482   8.788   5.033
28243SOL    HW286627   5.363   8.881   5.027
28244SOL     OW86628  11.157  14.213   0.398
28244SOL    HW186629  11.152  14.263   0.317
28244SOL    HW286630  11.079  14.157   0.397
28245SOL     OW86631   1.564   3.931  10.950
28245SOL    HW186632   1.622   3.961  11.021
28245SOL    HW286633   1.623   3.910  10.878
28246SOL     OW86634   9.823   3.937   5.426
28246SOL    HW186635   9.856   3.852   5.398
28246SOL    HW286636   9.755   3.958   5.362
28247SOL     OW86637  11.051   9.922  14.690
28247SOL    HW186638  10.964   9.881  14.683
28247SOL    HW286639  11.059   9.976  14.612
28248SOL     OW86640   8.958  14.023  11.707
28248SOL    HW186641   9.040  14.072  11.707
28248SOL    HW286642   8.965  13.967  11.629
28249SOL     OW86643  11.195  10.577   8.130
28249SOL    HW186644  11.107  10.602   8.159
28249SOL    HW286645  11.208  10.489   8.166
28250SOL     OW86646   8.180   7.469  14.838
28250SOL    HW186647   8.100   7.417  14.843
28250SOL    HW286648   8.161   7.548   0.020
28251SOL     OW86649   2.982  11.542   6.641
28251SOL    HW186650   2.976  11.608   6.710
28251SOL    HW286651   2.918  11.475   6.665
28252SOL     OW86652   5.424  14.401   3.811
28252SOL    HW186653   5.429  14.312   3.846
28252SOL    HW286654   5.453  14.392   3.720
28253SOL     OW86655  12.490   6.100  11.828
28253SOL    HW186656  12.444   6.023  11.797
28253SOL    HW286657  12.545   6.068  11.900
28254SOL     OW86658   5.629   0.938  13.150
28254SOL    HW186659   5.695   0.944  13.219
28254SOL    HW286660   5.615   1.029  13.122
28255SOL     OW86661   0.250  10.266   7.323
28255SOL    HW186662   0.284  10.222   7.401
28255SOL    HW286663   0.328  10.286   7.271
28256SOL     OW86664  12.922  12.543   8.493
28256SOL    HW186665  12.887  12.598   8.423
28256SOL    HW286666  12.993  12.493   8.452
28257SOL     OW86667   7.437  10.447   3.052
28257SOL    HW186668   7.385  10.431   3.131
28257SOL    HW286669   7.474  10.361   3.030
28258SOL     OW86670  14.510   1.412   0.457
28258SOL    HW186671  14.442   1.443   0.517
28258SOL    HW286672  14.589   1.458   0.486
28259SOL     OW86673   5.497   6.935   2.299
28259SOL    HW186674   5.417   6.953   2.348
28259SOL    HW286675   5.467   6.888   2.221
28260SOL     OW86676  12.624   1.863   0.672
28260SOL    HW186677  12.664   1.932   0.619
28260SOL    HW286678  12.561   1.821   0.614
28261SOL     OW86679   7.048   7.674   8.219
28261SOL    HW186680   7.095   7.592   8.203
28261SOL    HW286681   7.096   7.740   8.169
28262SOL     OW86682  11.319   5.350   9.581
28262SOL    HW186683  11.269   5.277   9.544
28262SOL    HW286684  11.277   5.428   9.545
28263SOL     OW86685  10.136  14.734  13.198
28263SOL    HW186686  10.222  14.715  13.234
28263SOL    HW286687  10.136  14.828  13.184
28264SOL     OW86688   1.990   7.518   4.156
28264SOL    HW186689   2.070   7.473   4.127
28264SOL    HW286690   2.014   7.557   4.240
28265SOL     OW86691   6.683   4.316   1.614
28265SOL    HW186692   6.710   4.353   1.530
28265SOL    HW286693   6.600   4.359   1.634
28266SOL     OW86694  13.672  14.415  12.240
28266SOL    HW186695  13.732  14.404  12.166
28266SOL    HW286696  13.730  14.431  12.315
28267SOL     OW86697  14.218  13.434   7.184
28267SOL    HW186698  14.160  13.497   7.141
28267SOL    HW286699  14.303  13.445   7.141
28268SOL     OW86700  14.581  10.149   7.343
28268SOL    HW186701  14.672  10.152   7.312
28268SOL    HW286702  14.537  10.219   7.295
28269SOL     OW86703  12.468   8.170   1.653
28269SOL    HW186704  12.436   8.241   1.709
28269SOL    HW286705  12.532   8.212   1.595
28270SOL     OW86706   2.963  10.526   6.346
28270SOL    HW186707   2.966  10.609   6.297
28270SOL    HW286708   3.031  10.535   6.412
28271SOL     OW86709  12.189  14.335   7.923
28271SOL    HW186710  12.231  14.346   7.837
28271SOL    HW286711  12.096  14.350   7.905
28272SOL     OW86712  10.833   9.866  11.957
28272SOL    HW186713  10.765   9.932  11.943
28272SOL    HW286714  10.826   9.844  12.050
28273SOL     OW86715  10.409   9.334  10.436
28273SOL    HW186716  10.397   9.380  10.518
28273SOL    HW286717  10.447   9.399  10.377
28274SOL     OW86718   4.691   8.956  11.668
28274SOL    HW186719   4.786   8.952  11.679
28274SOL    HW286720   4.659   8.997  11.749
28275SOL     OW86721   3.085  13.119  13.669
28275SOL    HW186722   2.999  13.154  13.692
28275SOL    HW286723   3.121  13.184  13.608
28276SOL     OW86724   3.205   0.609   0.864
28276SOL    HW186725   3.189   0.626   0.956
28276SOL    HW286726   3.174   0.519   0.851
28277SOL     OW86727  10.100   7.403   1.666
28277SOL    HW186728  10.167   7.470   1.682
28277SOL    HW286729  10.149   7.324   1.644
28278SOL     OW86730  10.395   8.658   9.520
28278SOL    HW186731  10.319   8.678   9.575
28278SOL    HW286732  10.417   8.568   9.542
28279SOL     OW86733   1.819   1.769   7.913
28279SOL    HW186734   1.728   1.737   7.910
28279SOL    HW286735   1.843   1.779   7.821
28280SOL     OW86736  12.806   8.469  12.381
28280SOL    HW186737  12.820   8.455  12.287
28280SOL    HW286738  12.894   8.462  12.419
28281SOL     OW86739   2.477   8.990  12.672
28281SOL    HW186740   2.438   9.008  12.587
28281SOL    HW286741   2.450   9.063  12.728
28282SOL     OW86742   8.230   0.337   4.343
28282SOL    HW186743   8.239   0.255   4.295
28282SOL    HW286744   8.304   0.390   4.313
28283SOL     OW86745   7.088   3.879   0.414
28283SOL    HW186746   7.083   3.974   0.409
28283SOL    HW286747   7.098   3.851   0.323
28284SOL     OW86748   6.350   0.892  14.004
28284SOL    HW186749   6.444   0.907  13.997
28284SOL    HW286750   6.319   0.961  14.062
28285SOL     OW86751   1.824  10.879   4.285
28285SOL    HW186752   1.820  10.784   4.298
28285SOL    HW286753   1.733  10.906   4.277
28286SOL     OW86754   2.697   9.305   9.034
28286SOL    HW186755   2.613   9.346   9.011
28286SOL    HW286756   2.692   9.217   8.996
28287SOL     OW86757   3.941   3.489  14.644
28287SOL    HW186758   3.933   3.443  14.727
28287SOL    HW286759   4.035   3.482  14.622
28288SOL     OW86760   2.505   1.553   2.332
28288SOL    HW186761   2.449   1.510   2.397
28288SOL    HW286762   2.449   1.562   2.255
28289SOL     OW86763   2.307  13.319  10.915
28289SOL    HW186764   2.296  13.396  10.970
28289SOL    HW286765   2.388  13.336  10.866
28290SOL     OW86766   7.058   3.708  12.790
28290SOL    HW186767   7.064   3.706  12.885
28290SOL    HW286768   7.137   3.755  12.762
28291SOL     OW86769  10.587  10.441  12.748
28291SOL    HW186770  10.620  10.470  12.833
28291SOL    HW286771  10.562  10.522  12.703
28292SOL     OW86772   3.194  11.568  12.410
28292SOL    HW186773   3.136  11.593  12.338
28292SOL    HW286774   3.220  11.651  12.451
28293SOL     OW86775   9.807   4.383  14.583
28293SOL    HW186776   9.742   4.370  14.513
28293SOL    HW286777   9.770   4.337  14.658
28294SOL     OW86778   8.193  13.083   7.505
28294SOL    HW186779   8.210  13.043   7.590
28294SOL    HW286780   8.100  13.066   7.489
28295SOL     OW86781  12.436  13.655   6.786
28295SOL    HW186782  12.431  13.582   6.725
28295SOL    HW286783  12.383  13.627   6.861
28296SOL     OW86784   5.035   9.047  14.810
28296SOL    HW186785   5.117   9.009  14.779
28296SOL    HW286786   4.976   9.040  14.735
28297SOL     OW86787  11.206   7.388   8.981
28297SOL    HW186788  11.161   7.395   9.066
28297SOL    HW286789  11.202   7.295   8.960
28298SOL     OW86790   3.830  10.217   8.755
28298SOL    HW186791   3.742  10.250   8.741
28298SOL    HW286792   3.825  10.167   8.836
28299SOL     OW86793  10.455  11.697  13.853
28299SOL    HW186794  10.464  11.696  13.949
28299SOL    HW286795  10.417  11.612  13.832
28300SOL     OW86796   3.542  13.971  12.946
28300SOL    HW186797   3.623  13.937  12.983
28300SOL    HW286798   3.559  13.976  12.852
28301SOL     OW86799   9.953  13.743   0.263
28301SOL    HW186800  10.043  13.774   0.270
28301SOL    HW286801   9.907  13.812   0.216
28302SOL     OW86802   4.603   4.827   9.850
28302SOL    HW186803   4.556   4.882   9.912
28302SOL    HW286804   4.695   4.831   9.879
28303SOL     OW86805   3.982  10.105   2.579
28303SOL    HW186806   4.033  10.177   2.543
28303SOL    HW286807   3.945  10.139   2.660
28304SOL     OW86808  10.499   1.184   0.438
28304SOL    HW186809  10.503   1.206   0.345
28304SOL    HW286810  10.567   1.238   0.478
28305SOL     OW86811   9.368   8.457   9.675
28305SOL    HW186812   9.405   8.486   9.758
28305SOL    HW286813   9.307   8.387   9.698
28306SOL     OW86814   6.963   7.015   4.346
28306SOL    HW186815   6.907   7.087   4.317
28306SOL    HW286816   6.942   6.942   4.287
28307SOL     OW86817   9.751   4.128   9.648
28307SOL    HW186818   9.679   4.124   9.585
28307SOL    HW286819   9.743   4.215   9.688
28308SOL     OW86820   0.020   1.322  11.130
28308SOL    HW186821  14.824   1.293  11.067
28308SOL    HW286822   0.078   1.247  11.141
28309SOL     OW86823  10.268   6.053  10.947
28309SOL    HW186824  10.327   6.039  11.021
28309SOL    HW286825  10.264   5.968  10.903
28310SOL     OW86826  10.572   3.372  13.009
28310SOL    HW186827  10.514   3.296  13.002
28310SOL    HW286828  10.534   3.426  13.078
28311SOL     OW86829   6.394   0.058   1.073
28311SOL    HW186830   6.303   0.072   1.044
28311SOL    HW286831   6.390   0.063   1.168
28312SOL     OW86832   7.658   1.948   2.701
28312SOL    HW186833   7.711   1.872   2.725
28312SOL    HW286834   7.634   1.932   2.609
28313SOL     OW86835   7.125   0.351   3.035
28313SOL    HW186836   7.164   0.317   3.115
28313SOL    HW286837   7.130   0.279   2.973
28314SOL     OW86838   1.306   2.695   1.315
28314SOL    HW186839   1.386   2.666   1.270
28314SOL    HW286840   1.338   2.734   1.397
28315SOL     OW86841  10.042   2.443  14.006
28315SOL    HW186842  10.028   2.448  13.911
28315SOL    HW286843  10.022   2.352  14.029
28316SOL     OW86844   0.839  13.108   4.907
28316SOL    HW186845   0.837  13.013   4.893
28316SOL    HW286846   0.818  13.119   5.000
28317SOL     OW86847   0.011   2.602   3.051
28317SOL    HW186848   0.020   2.641   2.963
28317SOL    HW286849  14.867   2.677   3.109
28318SOL     OW86850   6.785   7.853   5.602
28318SOL    HW186851   6.730   7.920   5.562
28318SOL    HW286852   6.860   7.901   5.637
28319SOL     OW86853   1.336   8.182  13.558
28319SOL    HW186854   1.327   8.181  13.653
28319SOL    HW286855   1.282   8.109  13.528
28320SOL     OW86856   3.517   4.380  12.602
28320SOL    HW186857   3.432   4.366  12.643
28320SOL    HW286858   3.580   4.367  12.672
28321SOL     OW86859   5.507   1.681   1.518
28321SOL    HW186860   5.488   1.661   1.609
28321SOL    HW286861   5.601   1.699   1.515
28322SOL     OW86862   7.314   2.806  12.439
28322SOL    HW186863   7.248   2.761  12.388
28322SOL    HW286864   7.392   2.751  12.431
28323SOL     OW86865   3.266   7.729   1.372
28323SOL    HW186866   3.178   7.696   1.392
28323SOL    HW286867   3.297   7.674   1.300
28324SOL     OW86868  10.239   3.910  12.601
28324SOL    HW186869  10.245   3.963  12.521
28324SOL    HW286870  10.305   3.841  12.588
28325SOL     OW86871  12.016   1.245   1.328
28325SOL    HW186872  12.089   1.306   1.323
28325SOL    HW286873  12.057   1.159   1.332
28326SOL     OW86874   0.629   2.406  11.713
28326SOL    HW186875   0.543   2.434  11.744
28326SOL    HW286876   0.658   2.476  11.655
28327SOL     OW86877   9.107   3.196  11.712
28327SOL    HW186878   9.187   3.249  11.719
28327SOL    HW286879   9.139   3.107  11.697
28328SOL     OW86880   6.539  10.150   2.808
28328SOL    HW186881   6.496  10.236   2.811
28328SOL    HW286882   6.490  10.100   2.743
28329SOL     OW86883  11.333  11.899   8.404
28329SOL    HW186884  11.284  11.876   8.325
28329SOL    HW286885  11.390  11.824   8.420
28330SOL     OW86886   2.799  12.460   7.202
28330SOL    HW186887   2.885  12.500   7.214
28330SOL    HW286888   2.758  12.466   7.289
28331SOL     OW86889  13.662   4.272  13.580
28331SOL    HW186890  13.658   4.330  13.655
28331SOL    HW286891  13.570   4.260  13.554
28332SOL     OW86892  14.636  13.420  10.510
28332SOL    HW186893  14.694  13.426  10.586
28332SOL    HW286894  14.636  13.327  10.487
28333SOL     OW86895  13.593   6.997  13.768
28333SOL    HW186896  13.517   7.054  13.753
28333SOL    HW286897  13.572   6.916  13.722
28334SOL     OW86898  13.546   6.059   9.547
28334SOL    HW186899  13.467   6.080   9.597
28334SOL    HW286900  13.585   6.143   9.527
28335SOL     OW86901   3.966   6.036   0.472
28335SOL    HW186902   3.884   6.000   0.508
28335SOL    HW286903   4.035   5.986   0.516
28336SOL     OW86904  10.484   6.214   2.920
28336SOL    HW186905  10.490   6.218   3.016
28336SOL    HW286906  10.409   6.269   2.898
28337SOL     OW86907   0.918   3.498   5.357
28337SOL    HW186908   0.937   3.542   5.275
28337SOL    HW286909   0.827   3.470   5.350
28338SOL     OW86910   1.007  13.478  10.559
28338SOL    HW186911   0.964  13.555  10.522
28338SOL    HW286912   0.938  13.434  10.609
28339SOL     OW86913   6.288  10.489  13.856
28339SOL    HW186914   6.292  10.420  13.790
28339SOL    HW286915   6.373  10.488  13.899
28340SOL     OW86916   6.431   4.558   6.192
28340SOL    HW186917   6.386   4.478   6.163
28340SOL    HW286918   6.503   4.526   6.246
28341SOL     OW86919  11.031  13.025   5.649
28341SOL    HW186920  10.964  13.066   5.595
28341SOL    HW286921  11.085  13.099   5.679
28342SOL     OW86922   9.336   5.165   3.485
28342SOL    HW186923   9.421   5.169   3.529
28342SOL    HW286924   9.318   5.255   3.459
28343SOL     OW86925  13.958  14.100  14.707
28343SOL    HW186926  13.987  14.050  14.782
28343SOL    HW286927  14.039  14.127  14.662
28344SOL     OW86928   1.363  12.097   4.286
28344SOL    HW186929   1.323  12.082   4.372
28344SOL    HW286930   1.452  12.061   4.295
28345SOL     OW86931   8.326   7.061   7.440
28345SOL    HW186932   8.361   7.059   7.351
28345SOL    HW286933   8.338   7.153   7.467
28346SOL     OW86934   5.571   6.924   1.181
28346SOL    HW186935   5.493   6.930   1.238
28346SOL    HW286936   5.536   6.920   1.092
28347SOL     OW86937   2.197   3.610  10.919
28347SOL    HW186938   2.107   3.630  10.943
28347SOL    HW286939   2.221   3.678  10.855
28348SOL     OW86940   3.615   6.017  12.646
28348SOL    HW186941   3.554   5.965  12.593
28348SOL    HW286942   3.572   6.103  12.653
28349SOL     OW86943  11.779   1.854   1.152
28349SOL    HW186944  11.754   1.945   1.135
28349SOL    HW286945  11.698   1.811   1.179
28350SOL     OW86946   7.964   1.333  12.081
28350SOL    HW186947   8.030   1.330  12.012
28350SOL    HW286948   7.992   1.265  12.143
28351SOL     OW86949   6.848  14.400   4.115
28351SOL    HW186950   6.774  14.452   4.147
28351SOL    HW286951   6.833  14.313   4.152
28352SOL     OW86952   5.068  13.771   5.369
28352SOL    HW186953   5.031  13.814   5.446
28352SOL    HW286954   4.997  13.718   5.334
28353SOL     OW86955  14.414   4.817  13.077
28353SOL    HW186956  14.490   4.763  13.056
28353SOL    HW286957  14.345   4.786  13.018
28354SOL     OW86958   9.627   5.820   0.574
28354SOL    HW186959   9.580   5.759   0.516
28354SOL    HW286960   9.570   5.831   0.649
28355SOL     OW86961   0.676   2.647   3.582
28355SOL    HW186962   0.626   2.720   3.620
28355SOL    HW286963   0.711   2.600   3.657
28356SOL     OW86964   9.100   9.350   2.319
28356SOL    HW186965   9.184   9.355   2.363
28356SOL    HW286966   9.103   9.420   2.253
28357SOL     OW86967  10.543   6.773   1.979
28357SOL    HW186968  10.544   6.855   2.028
28357SOL    HW286969  10.626   6.772   1.932
28358SOL     OW86970   9.326  12.145   5.567
28358SOL    HW186971   9.358  12.235   5.554
28358SOL    HW286972   9.382  12.110   5.637
28359SOL     OW86973  12.250   0.255   2.201
28359SOL    HW186974  12.321   0.311   2.234
28359SOL    HW286975  12.211   0.217   2.280
28360SOL     OW86976   8.251   2.300   5.916
28360SOL    HW186977   8.339   2.262   5.913
28360SOL    HW286978   8.198   2.235   5.961
28361SOL     OW86979   5.079  12.255  14.584
28361SOL    HW186980   4.994  12.220  14.558
28361SOL    HW286981   5.064  12.294  14.670
28362SOL     OW86982   8.285  11.588  13.468
28362SOL    HW186983   8.287  11.495  13.493
28362SOL    HW286984   8.203  11.597  13.418
28363SOL     OW86985   5.816  11.135   0.022
28363SOL    HW186986   5.807  11.045  14.860
28363SOL    HW286987   5.755  11.186  14.837
28364SOL     OW86988   3.153  12.361  13.007
28364SOL    HW186989   3.150  12.451  12.976
28364SOL    HW286990   3.127  12.366  13.099
28365SOL     OW86991   6.017   5.692   6.143
28365SOL    HW186992   6.030   5.783   6.116
28365SOL    HW286993   6.106   5.658   6.156
28366SOL     OW86994   2.693   4.532   0.066
28366SOL    HW186995   2.738   4.535  14.850
28366SOL    HW286996   2.752   4.579   0.125
28367SOL     OW86997  13.461   9.214  11.002
28367SOL    HW186998  13.426   9.138  11.048
28367SOL    HW286999  13.385   9.268  10.983
28368SOL     OW87000   1.052  14.810   4.328
28368SOL    HW187001   1.038   0.028   4.290
28368SOL    HW287002   1.101  14.827   4.409
28369SOL     OW87003   3.989   2.624   7.867
28369SOL    HW187004   3.967   2.531   7.860
28369SOL    HW287005   3.957   2.663   7.786
28370SOL     OW87006  10.570   0.428   8.167
28370SOL    HW187007  10.582   0.343   8.125
28370SOL    HW287008  10.480   0.427   8.198
28371SOL     OW87009   7.288   4.865   8.521
28371SOL    HW187010   7.307   4.830   8.434
28371SOL    HW287011   7.282   4.789   8.578
28372SOL     OW87012  14.415   4.541  11.868
28372SOL    HW187013  14.479   4.597  11.911
28372SOL    HW287014  14.424   4.561  11.775
28373SOL     OW87015   9.959  12.335   1.183
28373SOL    HW187016   9.932  12.343   1.275
28373SOL    HW287017   9.998  12.248   1.177
28374SOL     OW87018   8.438  13.535  13.541
28374SOL    HW187019   8.380  13.546  13.616
28374SOL    HW287020   8.477  13.621  13.527
28375SOL     OW87021   0.559   0.084   8.257
28375SOL    HW187022   0.478   0.040   8.232
28375SOL    HW287023   0.625   0.047   8.198
28376SOL     OW87024  11.242   2.247   1.348
28376SOL    HW187025  11.280   2.180   1.405
28376SOL    HW287026  11.317   2.302   1.323
28377SOL     OW87027  10.462  14.462   1.791
28377SOL    HW187028  10.426  14.539   1.835
28377SOL    HW287029  10.528  14.497   1.731
28378SOL     OW87030   9.048   4.034   7.080
28378SOL    HW187031   9.013   4.098   7.142
28378SOL    HW287032   8.972   4.001   7.033
28379SOL     OW87033   0.963  14.806   3.411
28379SOL    HW187034   0.881  14.757   3.401
28379SOL    HW287035   0.945  14.869   3.480
28380SOL     OW87036  13.474  13.547   8.787
28380SOL    HW187037  13.392  13.504   8.763
28380SOL    HW287038  13.464  13.637   8.758
28381SOL     OW87039  14.489   2.137  10.939
28381SOL    HW187040  14.534   2.053  10.942
28381SOL    HW287041  14.471   2.151  10.846
28382SOL     OW87042   1.551  12.364   4.950
28382SOL    HW187043   1.593  12.409   4.877
28382SOL    HW287044   1.541  12.432   5.017
28383SOL     OW87045   6.382   2.055   4.744
28383SOL    HW187046   6.305   2.094   4.703
28383SOL    HW287047   6.354   2.031   4.832
28384SOL     OW87048  13.197   8.512  10.519
28384SOL    HW187049  13.110   8.547  10.542
28384SOL    HW287050  13.238   8.494  10.603
28385SOL     OW87051   8.191  14.058   8.966
28385SOL    HW187052   8.197  13.969   8.931
28385SOL    HW287053   8.175  14.113   8.889
28386SOL     OW87054  14.387  10.343  12.871
28386SOL    HW187055  14.475  10.378  12.887
28386SOL    HW287056  14.400  10.279  12.801
28387SOL     OW87057   0.726  11.366   1.995
28387SOL    HW187058   0.797  11.425   1.971
28387SOL    HW287059   0.698  11.395   2.082
28388SOL     OW87060   8.464   8.724  10.217
28388SOL    HW187061   8.480   8.643  10.267
28388SOL    HW287062   8.379   8.709  10.175
28389SOL     OW87063  12.410   7.491   1.137
28389SOL    HW187064  12.388   7.510   1.228
28389SOL    HW287065  12.337   7.438   1.105
28390SOL     OW87066   4.414   5.388  10.766
28390SOL    HW187067   4.402   5.459  10.829
28390SOL    HW287068   4.500   5.352  10.785
28391SOL     OW87069   8.736   0.085   2.930
28391SOL    HW187070   8.668   0.040   2.880
28391SOL    HW287071   8.700   0.172   2.946
28392SOL     OW87072  10.770   2.626   5.873
28392SOL    HW187073  10.855   2.583   5.882
28392SOL    HW287074  10.731   2.586   5.795
28393SOL     OW87075   9.249  11.795   7.353
28393SOL    HW187076   9.221  11.775   7.442
28393SOL    HW287077   9.336  11.755   7.345
28394SOL     OW87078   3.340   3.600   8.229
28394SOL    HW187079   3.304   3.539   8.165
28394SOL    HW287080   3.403   3.652   8.180
28395SOL     OW87081   8.945   4.787   3.248
28395SOL    HW187082   8.921   4.879   3.248
28395SOL    HW287083   8.938   4.760   3.156
28396SOL     OW87084   4.058  12.881   7.541
28396SOL    HW187085   4.113  12.956   7.519
28396SOL    HW287086   4.014  12.858   7.459
28397SOL     OW87087  14.131  13.699   0.074
28397SOL    HW187088  14.223  13.718   0.056
28397SOL    HW287089  14.130  13.672   0.166
28398SOL     OW87090   7.859  10.893   0.682
28398SOL    HW187091   7.869  10.910   0.589
28398SOL    HW287092   7.947  10.900   0.718
28399SOL     OW87093  13.638  13.393   6.809
28399SOL    HW187094  13.575  13.351   6.867
28399SOL    HW287095  13.653  13.330   6.739
28400SOL     OW87096   0.962  13.210   7.942
28400SOL    HW187097   0.980  13.138   8.003
28400SOL    HW287098   1.024  13.279   7.967
28401SOL     OW87099   0.481   0.315   2.727
28401SOL    HW187100   0.572   0.313   2.697
28401SOL    HW287101   0.444   0.394   2.688
28402SOL     OW87102   3.205   4.003  12.768
28402SOL    HW187103   3.145   3.999  12.843
28402SOL    HW287104   3.202   3.916  12.730
28403SOL     OW87105   1.248   1.930   4.089
28403SOL    HW187106   1.183   1.996   4.113
28403SOL    HW287107   1.259   1.878   4.168
28404SOL     OW87108   6.826  10.287   9.604
28404SOL    HW187109   6.759  10.227   9.638
28404SOL    HW287110   6.814  10.285   9.509
28405SOL     OW87111   8.556  14.740   0.205
28405SOL    HW187112   8.593  14.740   0.293
28405SOL    HW287113   8.572  14.652   0.171
28406SOL     OW87114   0.390   3.988  10.877
28406SOL    HW187115   0.466   4.027  10.834
28406SOL    HW287116   0.317   4.004  10.816
28407SOL     OW87117   1.573   0.314   1.132
28407SOL    HW187118   1.531   0.388   1.177
28407SOL    HW287119   1.662   0.311   1.168
28408SOL     OW87120   8.727   7.358   5.970
28408SOL    HW187121   8.764   7.273   5.945
28408SOL    HW287122   8.646   7.336   6.017
28409SOL     OW87123   2.686   1.804   0.902
28409SOL    HW187124   2.774   1.822   0.871
28409SOL    HW287125   2.629   1.837   0.833
28410SOL     OW87126   3.328   3.331   8.482
28410SOL    HW187127   3.315   3.348   8.575
28410SOL    HW287128   3.422   3.316   8.473
28411SOL     OW87129   6.873   1.801   0.395
28411SOL    HW187130   6.807   1.844   0.451
28411SOL    HW287131   6.950   1.856   0.404
28412SOL     OW87132  10.686  11.741   1.802
28412SOL    HW187133  10.614  11.677   1.801
28412SOL    HW287134  10.647  11.820   1.839
28413SOL     OW87135  11.183   2.856  11.337
28413SOL    HW187136  11.121   2.875  11.407
28413SOL    HW287137  11.186   2.935  11.284
28414SOL     OW87138   6.613   3.110   4.772
28414SOL    HW187139   6.564   3.179   4.726
28414SOL    HW287140   6.648   3.055   4.702
28415SOL     OW87141  13.367   9.974  13.040
28415SOL    HW187142  13.451   9.990  13.085
28415SOL    HW287143  13.388   9.910  12.972
28416SOL     OW87144  14.252  10.822  11.064
28416SOL    HW187145  14.298  10.752  11.018
28416SOL    HW287146  14.222  10.782  11.146
28417SOL     OW87147   4.766  10.554   6.906
28417SOL    HW187148   4.791  10.631   6.956
28417SOL    HW287149   4.695  10.515   6.956
28418SOL     OW87150   1.843  14.620  13.131
28418SOL    HW187151   1.823  14.627  13.225
28418SOL    HW287152   1.766  14.577  13.094
28419SOL     OW87153   2.552   8.443   6.080
28419SOL    HW187154   2.556   8.531   6.041
28419SOL    HW287155   2.600   8.388   6.019
28420SOL     OW87156   6.185   9.287   5.803
28420SOL    HW187157   6.171   9.192   5.796
28420SOL    HW287158   6.275   9.295   5.834
28421SOL     OW87159  14.469   0.029   4.026
28421SOL    HW187160  14.413  14.822   4.041
28421SOL    HW287161  14.455   0.085   4.103
28422SOL     OW87162   8.601   6.856  10.116
28422SOL    HW187163   8.688   6.845  10.155
28422SOL    HW287164   8.555   6.916  10.175
28423SOL     OW87165   1.444   9.887   8.721
28423SOL    HW187166   1.505   9.843   8.780
28423SOL    HW287167   1.370   9.827   8.713
28424SOL     OW87168   0.581   8.714  12.739
28424SOL    HW187169   0.622   8.640  12.784
28424SOL    HW287170   0.568   8.683  12.650
28425SOL     OW87171   9.475  10.019   3.355
28425SOL    HW187172   9.529   9.948   3.319
28425SOL    HW287173   9.481  10.089   3.291
28426SOL     OW87174  14.718   2.129   2.587
28426SOL    HW187175  14.640   2.079   2.564
28426SOL    HW287176  14.694   2.177   2.666
28427SOL     OW87177   3.261   9.473  12.856
28427SOL    HW187178   3.181   9.524  12.870
28427SOL    HW287179   3.317   9.531  12.803
28428SOL     OW87180   8.262   5.707   1.737
28428SOL    HW187181   8.259   5.792   1.781
28428SOL    HW287182   8.171   5.679   1.732
28429SOL     OW87183   6.160   5.933  12.026
28429SOL    HW187184   6.067   5.920  12.011
28429SOL    HW287185   6.187   5.856  12.076
28430SOL     OW87186   5.622   5.358   3.419
28430SOL    HW187187   5.709   5.376   3.455
28430SOL    HW287188   5.623   5.265   3.398
28431SOL     OW87189   9.670   7.883  14.218
28431SOL    HW187190   9.616   7.820  14.171
28431SOL    HW287191   9.727   7.830  14.272
28432SOL     OW87192   8.730   6.564  11.896
28432SOL    HW187193   8.749   6.492  11.836
28432SOL    HW287194   8.703   6.521  11.977
28433SOL     OW87195  12.787   1.312   8.694
28433SOL    HW187196  12.702   1.353   8.715
28433SOL    HW287197  12.765   1.223   8.669
28434SOL     OW87198   1.130   6.718   8.054
28434SOL    HW187199   1.176   6.727   7.971
28434SOL    HW287200   1.194   6.741   8.120
28435SOL     OW87201   5.718   9.244  14.447
28435SOL    HW187202   5.802   9.219  14.487
28435SOL    HW287203   5.717   9.197  14.363
28436SOL     OW87204   7.198  11.112   8.820
28436SOL    HW187205   7.120  11.087   8.869
28436SOL    HW287206   7.191  11.065   8.737
28437SOL     OW87207   4.557  12.408  11.686
28437SOL    HW187208   4.587  12.393  11.775
28437SOL    HW287209   4.562  12.323  11.644
28438SOL     OW87210   7.474   4.373   9.568
28438SOL    HW187211   7.557   4.396   9.609
28438SOL    HW287212   7.486   4.396   9.476
28439SOL     OW87213  12.606   1.345   1.465
28439SOL    HW187214  12.600   1.436   1.437
28439SOL    HW287215  12.545   1.298   1.409
28440SOL     OW87216   5.485   0.188   8.811
28440SOL    HW187217   5.568   0.191   8.857
28440SOL    HW287218   5.453   0.278   8.812
28441SOL     OW87219   8.836  10.664   9.404
28441SOL    HW187220   8.789  10.640   9.324
28441SOL    HW287221   8.832  10.585   9.458
28442SOL     OW87222   5.761   8.085   9.745
28442SOL    HW187223   5.785   8.148   9.814
28442SOL    HW287224   5.708   8.137   9.684
28443SOL     OW87225   8.046   4.264   5.460
28443SOL    HW187226   7.988   4.321   5.409
28443SOL    HW287227   8.037   4.178   5.418
28444SOL     OW87228   2.333   3.734   9.411
28444SOL    HW187229   2.326   3.820   9.453
28444SOL    HW287230   2.296   3.747   9.323
28445SOL     OW87231  11.504   7.300   1.027
28445SOL    HW187232  11.496   7.218   0.978
28445SOL    HW287233  11.598   7.317   1.029
28446SOL     OW87234  11.286  12.478   6.768
28446SOL    HW187235  11.283  12.505   6.859
28446SOL    HW287236  11.197  12.492   6.735
28447SOL     OW87237   8.668  10.556  14.134
28447SOL    HW187238   8.592  10.549  14.192
28447SOL    HW287239   8.658  10.484  14.072
28448SOL     OW87240  14.430   1.669   2.628
28448SOL    HW187241  14.515   1.705   2.654
28448SOL    HW287242  14.369   1.742   2.640
28449SOL     OW87243  12.624   8.719   8.854
28449SOL    HW187244  12.699   8.751   8.804
28449SOL    HW287245  12.582   8.798   8.888
28450SOL     OW87246  12.473  13.474   0.962
28450SOL    HW187247  12.423  13.431   1.031
28450SOL    HW287248  12.410  13.489   0.891
28451SOL     OW87249   1.069   7.717   5.602
28451SOL    HW187250   1.062   7.732   5.507
28451SOL    HW287251   1.155   7.750   5.626
28452SOL     OW87252   9.546   2.183   0.997
28452SOL    HW187253   9.591   2.259   1.034
28452SOL    HW287254   9.611   2.112   1.001
28453SOL     OW87255   4.937  10.890   3.242
28453SOL    HW187256   4.848  10.866   3.268
28453SOL    HW287257   4.938  10.985   3.246
28454SOL     OW87258   3.232  13.083   7.618
28454SOL    HW187259   3.195  13.083   7.530
28454SOL    HW287260   3.248  13.176   7.636
28455SOL     OW87261   7.562   4.525  11.153
28455SOL    HW187262   7.592   4.453  11.209
28455SOL    HW287263   7.642   4.561  11.115
28456SOL     OW87264   4.545   0.831   9.172
28456SOL    HW187265   4.561   0.864   9.260
28456SOL    HW287266   4.451   0.842   9.159
28457SOL     OW87267   8.239   9.426  14.540
28457SOL    HW187268   8.222   9.453  14.450
28457SOL    HW287269   8.166   9.461  14.590
28458SOL     OW87270  11.851   9.607   7.812
28458SOL    HW187271  11.934   9.581   7.772
28458SOL    HW287272  11.801   9.526   7.818
28459SOL     OW87273  14.225   2.900  11.762
28459SOL    HW187274  14.259   2.910  11.851
28459SOL    HW287275  14.298   2.864  11.712
28460SOL     OW87276   3.685   2.137  13.963
28460SOL    HW187277   3.621   2.193  14.007
28460SOL    HW287278   3.762   2.192  13.951
28461SOL     OW87279  12.660   7.859   8.478
28461SOL    HW187280  12.671   7.878   8.385
28461SOL    HW287281  12.642   7.944   8.518
28462SOL     OW87282   9.470   5.253   3.061
28462SOL    HW187283   9.377   5.262   3.084
28462SOL    HW287284   9.508   5.339   3.081
28463SOL     OW87285   3.089   4.266  14.122
28463SOL    HW187286   3.178   4.297  14.132
28463SOL    HW287287   3.095   4.170  14.126
28464SOL     OW87288   6.516  10.214   2.434
28464SOL    HW187289   6.562  10.288   2.474
28464SOL    HW287290   6.441  10.198   2.492
28465SOL     OW87291  12.487   9.798  12.235
28465SOL    HW187292  12.556   9.733  12.221
28465SOL    HW287293  12.413   9.766  12.184
28466SOL     OW87294   7.944   6.008   5.178
28466SOL    HW187295   7.967   5.916   5.161
28466SOL    HW287296   8.025   6.045   5.214
28467SOL     OW87297   1.638   5.596  12.279
28467SOL    HW187298   1.616   5.630  12.366
28467SOL    HW287299   1.643   5.501  12.292
28468SOL     OW87300   9.422   8.186  14.214
28468SOL    HW187301   9.439   8.184  14.308
28468SOL    HW287302   9.507   8.168  14.174
28469SOL     OW87303   9.146   2.522   0.990
28469SOL    HW187304   9.137   2.528   0.895
28469SOL    HW287305   9.126   2.431   1.010
28470SOL     OW87306   8.050  13.334   3.414
28470SOL    HW187307   8.131  13.382   3.398
28470SOL    HW287308   7.982  13.401   3.415
28471SOL     OW87309   3.152  13.609   6.060
28471SOL    HW187310   3.075  13.560   6.030
28471SOL    HW287311   3.115  13.680   6.114
28472SOL     OW87312   6.648   4.738   8.581
28472SOL    HW187313   6.615   4.681   8.650
28472SOL    HW287314   6.703   4.801   8.627
28473SOL     OW87315  11.754   6.657   1.570
28473SOL    HW187316  11.703   6.607   1.506
28473SOL    HW287317  11.786   6.732   1.521
28474SOL     OW87318   4.383  13.202   8.823
28474SOL    HW187319   4.468  13.191   8.779
28474SOL    HW287320   4.319  13.192   8.752
28475SOL     OW87321   8.916   3.278   5.329
28475SOL    HW187322   8.892   3.233   5.248
28475SOL    HW287323   8.968   3.353   5.300
28476SOL     OW87324   7.383   9.058   1.379
28476SOL    HW187325   7.302   9.016   1.351
28476SOL    HW287326   7.387   9.139   1.329
28477SOL     OW87327  12.269  13.933   1.695
28477SOL    HW187328  12.282  13.900   1.606
28477SOL    HW287329  12.298  14.024   1.691
28478SOL     OW87330   6.194   3.761  11.121
28478SOL    HW187331   6.142   3.691  11.161
28478SOL    HW287332   6.131   3.830  11.101
28479SOL     OW87333   1.913   0.855   8.793
28479SOL    HW187334   1.928   0.764   8.821
28479SOL    HW287335   1.821   0.856   8.766
28480SOL     OW87336   1.827   3.698   9.064
28480SOL    HW187337   1.867   3.783   9.082
28480SOL    HW287338   1.847   3.645   9.141
28481SOL     OW87339   2.562  10.150   6.608
28481SOL    HW187340   2.564  10.061   6.571
28481SOL    HW287341   2.648  10.160   6.648
28482SOL     OW87342   5.216   6.050  12.355
28482SOL    HW187343   5.311   6.046  12.346
28482SOL    HW287344   5.189   6.119  12.294
28483SOL     OW87345  14.118  14.308   8.715
28483SOL    HW187346  14.171  14.229   8.711
28483SOL    HW287347  14.178  14.377   8.744
28484SOL     OW87348   2.370   2.408   4.698
28484SOL    HW187349   2.383   2.422   4.792
28484SOL    HW287350   2.301   2.469   4.674
28485SOL     OW87351  10.353   8.810   1.124
28485SOL    HW187352  10.331   8.719   1.146
28485SOL    HW287353  10.400   8.842   1.201
28486SOL     OW87354   2.177   4.706   9.754
28486SOL    HW187355   2.227   4.700   9.673
28486SOL    HW287356   2.096   4.658   9.736
28487SOL     OW87357  12.874   9.734   7.249
28487SOL    HW187358  12.900   9.648   7.281
28487SOL    HW287359  12.816   9.716   7.176
28488SOL     OW87360   9.984   3.428   4.211
28488SOL    HW187361  10.046   3.371   4.256
28488SOL    HW287362  10.038   3.498   4.175
28489SOL     OW87363  13.613   1.809   5.280
28489SOL    HW187364  13.650   1.897   5.278
28489SOL    HW287365  13.528   1.819   5.323
28490SOL     OW87366  13.203   1.501  14.533
28490SOL    HW187367  13.149   1.463  14.464
28490SOL    HW287368  13.188   1.444  14.609
28491SOL     OW87369  13.378  11.326  13.129
28491SOL    HW187370  13.301  11.282  13.166
28491SOL    HW287371  13.404  11.388  13.197
28492SOL     OW87372   0.617   4.423   6.569
28492SOL    HW187373   0.533   4.430   6.614
28492SOL    HW287374   0.645   4.333   6.586
28493SOL     OW87375   1.788   2.134   9.398
28493SOL    HW187376   1.796   2.181   9.315
28493SOL    HW287377   1.869   2.085   9.406
28494SOL     OW87378   9.470  11.466   4.035
28494SOL    HW187379   9.540  11.512   3.989
28494SOL    HW287380   9.395  11.470   3.976
28495SOL     OW87381   1.672  13.540   3.317
28495SOL    HW187382   1.657  13.521   3.224
28495SOL    HW287383   1.728  13.617   3.317
28496SOL     OW87384   3.321   7.135   0.222
28496SOL    HW187385   3.244   7.191   0.236
28496SOL    HW287386   3.303   7.057   0.276
28497SOL     OW87387   8.506   2.687  14.799
28497SOL    HW187388   8.537   2.733   0.008
28497SOL    HW287389   8.527   2.595  14.816
28498SOL     OW87390  12.557  10.011   4.315
28498SOL    HW187391  12.495  10.009   4.243
28498SOL    HW287392  12.643  10.004   4.273
28499SOL     OW87393  12.850  11.397   2.882
28499SOL    HW187394  12.781  11.446   2.837
28499SOL    HW287395  12.931  11.445   2.862
28500SOL     OW87396  13.683   6.308   9.557
28500SOL    HW187397  13.713   6.356   9.480
28500SOL    HW287398  13.718   6.357   9.631
28501SOL     OW87399   7.192   2.344   1.146
28501SOL    HW187400   7.102   2.350   1.176
28501SOL    HW287401   7.197   2.404   1.071
28502SOL     OW87402   2.453   4.216  11.360
28502SOL    HW187403   2.373   4.168  11.383
28502SOL    HW287404   2.430   4.264  11.280
28503SOL     OW87405   5.202   2.105   4.876
28503SOL    HW187406   5.193   2.166   4.949
28503SOL    HW287407   5.120   2.056   4.874
28504SOL     OW87408  14.079  12.230   9.172
28504SOL    HW187409  14.150  12.291   9.153
28504SOL    HW287410  14.094  12.205   9.264
28505SOL     OW87411   6.278   1.289  11.555
28505SOL    HW187412   6.185   1.294  11.576
28505SOL    HW287413   6.319   1.354  11.612
28506SOL     OW87414   5.948   2.790  13.424
28506SOL    HW187415   5.906   2.798  13.510
28506SOL    HW287416   5.999   2.870  13.415
28507SOL     OW87417   9.320  14.322   8.035
28507SOL    HW187418   9.278  14.396   8.078
28507SOL    HW287419   9.404  14.312   8.080
28508SOL     OW87420   9.147   6.561  13.027
28508SOL    HW187421   9.055   6.583  13.038
28508SOL    HW287422   9.191   6.645  13.021
28509SOL     OW87423  11.460   7.141  12.190
28509SOL    HW187424  11.416   7.187  12.262
28509SOL    HW287425  11.388   7.109  12.136
28510SOL     OW87426   2.202  10.005  14.652
28510SOL    HW187427   2.130  10.028  14.711
28510SOL    HW287428   2.160   9.980  14.570
28511SOL     OW87429   1.302   7.447   8.980
28511SOL    HW187430   1.346   7.456   9.065
28511SOL    HW287431   1.238   7.378   8.993
28512SOL     OW87432  13.800   9.894   7.125
28512SOL    HW187433  13.841   9.935   7.048
28512SOL    HW287434  13.717   9.860   7.093
28513SOL     OW87435   0.395   0.423   5.670
28513SOL    HW187436   0.320   0.364   5.660
28513SOL    HW287437   0.385   0.486   5.598
28514SOL     OW87438  13.455   9.231   5.572
28514SOL    HW187439  13.489   9.141   5.575
28514SOL    HW287440  13.488   9.272   5.652
28515SOL     OW87441  13.007   0.460   3.266
28515SOL    HW187442  12.999   0.545   3.309
28515SOL    HW287443  13.069   0.411   3.320
28516SOL     OW87444   7.076   8.672   0.548
28516SOL    HW187445   7.139   8.732   0.588
28516SOL    HW287446   6.992   8.716   0.560
28517SOL     OW87447   9.329  10.098  11.279
28517SOL    HW187448   9.352  10.026  11.221
28517SOL    HW287449   9.247  10.071  11.321
28518SOL     OW87450   8.331   0.365   2.350
28518SOL    HW187451   8.332   0.458   2.324
28518SOL    HW287452   8.317   0.318   2.267
28519SOL     OW87453   1.978   4.979   8.035
28519SOL    HW187454   1.885   4.964   8.019
28519SOL    HW287455   2.003   5.046   7.971
28520SOL     OW87456   7.572  13.120   5.940
28520SOL    HW187457   7.568  13.180   5.865
28520SOL    HW287458   7.486  13.127   5.981
28521SOL     OW87459   3.657  11.683  13.344
28521SOL    HW187460   3.680  11.703  13.435
28521SOL    HW287461   3.598  11.608  13.351
28522SOL     OW87462   0.457   3.979  14.704
28522SOL    HW187463   0.372   4.021  14.714
28522SOL    HW287464   0.454   3.905  14.764
28523SOL     OW87465   5.734   1.426  12.959
28523SOL    HW187466   5.792   1.500  12.946
28523SOL    HW287467   5.743   1.374  12.878
28524SOL     OW87468   5.190   1.825  13.404
28524SOL    HW187469   5.183   1.909  13.358
28524SOL    HW287470   5.276   1.828  13.446
28525SOL     OW87471   3.033  13.428  11.398
28525SOL    HW187472   2.968  13.445  11.466
28525SOL    HW287473   3.056  13.336  11.408
28526SOL     OW87474   9.125  14.766   0.955
28526SOL    HW187475   9.097  14.817   1.031
28526SOL    HW287476   9.061  14.786   0.887
28527SOL     OW87477   8.340   9.162   7.226
28527SOL    HW187478   8.318   9.145   7.134
28527SOL    HW287479   8.336   9.257   7.234
28528SOL     OW87480  11.286  13.044   4.391
28528SOL    HW187481  11.322  13.129   4.416
28528SOL    HW287482  11.194  13.063   4.369
28529SOL     OW87483   2.002   2.385  12.249
28529SOL    HW187484   1.936   2.436  12.203
28529SOL    HW287485   2.041   2.329  12.181
28530SOL     OW87486   9.511  10.902   5.215
28530SOL    HW187487   9.504  10.846   5.293
28530SOL    HW287488   9.451  10.864   5.152
28531SOL     OW87489   4.205   7.593   9.589
28531SOL    HW187490   4.246   7.649   9.654
28531SOL    HW287491   4.275   7.573   9.527
28532SOL     OW87492   8.205  10.490  11.702
28532SOL    HW187493   8.253  10.414  11.670
28532SOL    HW287494   8.113  10.469  11.687
28533SOL     OW87495   8.891  11.843   8.622
28533SOL    HW187496   8.927  11.916   8.573
28533SOL    HW287497   8.811  11.878   8.661
28534SOL     OW87498  13.515   7.491   6.492
28534SOL    HW187499  13.423   7.510   6.475
28534SOL    HW287500  13.514   7.423   6.559
28535SOL     OW87501   7.245   6.622  14.242
28535SOL    HW187502   7.295   6.601  14.320
28535SOL    HW287503   7.275   6.560  14.176
28536SOL     OW87504   8.994   6.270  11.903
28536SOL    HW187505   8.919   6.290  11.847
28536SOL    HW287506   9.070   6.280  11.846
28537SOL     OW87507   8.146   8.314  13.287
28537SOL    HW187508   8.083   8.345  13.222
28537SOL    HW287509   8.232   8.331  13.247
28538SOL     OW87510  10.264   2.083  13.491
28538SOL    HW187511  10.287   2.131  13.570
28538SOL    HW287512  10.170   2.068  13.498
28539SOL     OW87513   3.879  10.646   2.740
28539SOL    HW187514   3.784  10.662   2.734
28539SOL    HW287515   3.907  10.635   2.649
28540SOL     OW87516  11.295   7.571  12.636
28540SOL    HW187517  11.272   7.531  12.552
28540SOL    HW287518  11.222   7.629  12.656
28541SOL     OW87519  12.141  11.284   6.584
28541SOL    HW187520  12.120  11.355   6.524
28541SOL    HW287521  12.220  11.315   6.629
28542SOL     OW87522   0.641   7.532  13.024
28542SOL    HW187523   0.562   7.586  13.017
28542SOL    HW287524   0.713   7.594  13.009
28543SOL     OW87525  11.687   1.396   0.760
28543SOL    HW187526  11.718   1.341   0.688
28543SOL    HW287527  11.595   1.374   0.769
28544SOL     OW87528   8.101   7.414   3.097
28544SOL    HW187529   8.114   7.355   3.171
28544SOL    HW287530   8.008   7.404   3.076
28545SOL     OW87531   2.884   5.648   9.102
28545SOL    HW187532   2.902   5.725   9.048
28545SOL    HW287533   2.935   5.578   9.061
28546SOL     OW87534  10.333  12.093   1.717
28546SOL    HW187535  10.332  12.032   1.790
28546SOL    HW287536  10.240  12.106   1.696
28547SOL     OW87537  14.800   9.957  12.184
28547SOL    HW187538  14.734   9.908  12.232
28547SOL    HW287539  14.766   9.962  12.095
28548SOL     OW87540   2.183   2.919   1.361
28548SOL    HW187541   2.106   2.867   1.383
28548SOL    HW287542   2.201   2.898   1.270
28549SOL     OW87543  13.262   9.424  12.824
28549SOL    HW187544  13.238   9.516  12.825
28549SOL    HW287545  13.237   9.393  12.737
28550SOL     OW87546   8.520   5.833   8.155
28550SOL    HW187547   8.446   5.791   8.110
28550SOL    HW287548   8.564   5.761   8.201
28551SOL     OW87549   9.523   0.384   2.385
28551SOL    HW187550   9.527   0.430   2.301
28551SOL    HW287551   9.470   0.307   2.368
28552SOL     OW87552  10.660   5.076   4.834
28552SOL    HW187553  10.735   5.132   4.812
28552SOL    HW287554  10.616   5.123   4.905
28553SOL     OW87555  14.377  13.209  10.610
28553SOL    HW187556  14.441  13.157  10.562
28553SOL    HW287557  14.368  13.164  10.694
28554SOL     OW87558  14.339  13.708  10.217
28554SOL    HW187559  14.434  13.693  10.221
28554SOL    HW287560  14.301  13.628  10.253
28555SOL     OW87561   0.463  10.882   2.093
28555SOL    HW187562   0.389  10.846   2.141
28555SOL    HW287563   0.531  10.815   2.099
28556SOL     OW87564  11.492  14.224   7.531
28556SOL    HW187565  11.535  14.305   7.506
28556SOL    HW287566  11.399  14.247   7.534
28557SOL     OW87567  14.121   1.564  12.637
28557SOL    HW187568  14.149   1.634  12.696
28557SOL    HW287569  14.203   1.526  12.604
28558SOL     OW87570  11.365   5.704  10.725
28558SOL    HW187571  11.454   5.738  10.720
28558SOL    HW287572  11.320   5.746  10.652
28559SOL     OW87573  13.939   1.332   0.462
28559SOL    HW187574  13.863   1.381   0.493
28559SOL    HW287575  13.952   1.363   0.372
28560SOL     OW87576  12.940   0.006   5.572
28560SOL    HW187577  12.922  14.836   5.486
28560SOL    HW287578  12.920  14.806   5.635
28561SOL     OW87579   0.257  11.719  12.419
28561SOL    HW187580   0.224  11.785  12.359
28561SOL    HW287581   0.351  11.715  12.402
28562SOL     OW87582  13.252   2.077   8.408
28562SOL    HW187583  13.172   2.123   8.383
28562SOL    HW287584  13.311   2.146   8.437
28563SOL     OW87585  13.064  11.472   5.782
28563SOL    HW187586  13.122  11.440   5.852
28563SOL    HW287587  13.049  11.564   5.803
28564SOL     OW87588   3.676   0.153   1.106
28564SOL    HW187589   3.763   0.177   1.139
28564SOL    HW287590   3.628   0.126   1.184
28565SOL     OW87591   8.039   7.326   2.771
28565SOL    HW187592   8.111   7.387   2.755
28565SOL    HW287593   8.079   7.255   2.821
28566SOL     OW87594   3.694   5.483  11.727
28566SOL    HW187595   3.686   5.540  11.650
28566SOL    HW287596   3.750   5.532  11.787
28567SOL     OW87597   4.978   7.188   7.401
28567SOL    HW187598   4.888   7.178   7.371
28567SOL    HW287599   5.025   7.224   7.325
28568SOL     OW87600   8.034  11.181   6.258
28568SOL    HW187601   8.079  11.133   6.189
28568SOL    HW287602   8.045  11.273   6.235
28569SOL     OW87603  13.106   5.721   3.450
28569SOL    HW187604  13.142   5.810   3.439
28569SOL    HW287605  13.057   5.726   3.532
28570SOL     OW87606  13.853  13.329  11.507
28570SOL    HW187607  13.799  13.398  11.546
28570SOL    HW287608  13.850  13.257  11.571
28571SOL     OW87609  12.982   7.901   8.465
28571SOL    HW187610  12.940   7.816   8.478
28571SOL    HW287611  12.916   7.965   8.492
28572SOL     OW87612  12.005   3.444  14.201
28572SOL    HW187613  11.965   3.501  14.135
28572SOL    HW287614  12.059   3.384  14.150
28573SOL     OW87615   1.523   7.532   3.936
28573SOL    HW187616   1.587   7.504   4.001
28573SOL    HW287617   1.496   7.619   3.965
28574SOL     OW87618   1.579   4.351   0.507
28574SOL    HW187619   1.502   4.336   0.453
28574SOL    HW287620   1.590   4.446   0.509
28575SOL     OW87621  13.511  10.019   4.468
28575SOL    HW187622  13.590  10.039   4.518
28575SOL    HW287623  13.510  10.085   4.398
28576SOL     OW87624   5.544  10.414   7.771
28576SOL    HW187625   5.636  10.430   7.752
28576SOL    HW287626   5.499  10.427   7.687
28577SOL     OW87627   1.037   1.245   6.795
28577SOL    HW187628   1.059   1.325   6.842
28577SOL    HW287629   1.010   1.274   6.708
28578SOL     OW87630  14.050   2.012   0.850
28578SOL    HW187631  14.033   2.066   0.927
28578SOL    HW287632  14.133   1.969   0.869
28579SOL     OW87633   4.721   3.365   1.909
28579SOL    HW187634   4.774   3.376   1.830
28579SOL    HW287635   4.662   3.293   1.889
28580SOL     OW87636   6.527   0.861  14.615
28580SOL    HW187637   6.620   0.881  14.614
28580SOL    HW287638   6.504   0.855  14.708
28581SOL     OW87639   5.524   1.108   7.684
28581SOL    HW187640   5.449   1.167   7.680
28581SOL    HW287641   5.589   1.155   7.737
28582SOL     OW87642   4.935  12.920  13.626
28582SOL    HW187643   4.992  12.984  13.584
28582SOL    HW287644   4.994  12.863  13.675
28583SOL     OW87645  13.638   7.671   0.376
28583SOL    HW187646  13.542   7.673   0.373
28583SOL    HW287647  13.665   7.696   0.288
28584SOL     OW87648   3.869   1.750   4.618
28584SOL    HW187649   3.773   1.750   4.621
28584SOL    HW287650   3.890   1.750   4.525
28585SOL     OW87651  12.258   0.396   7.616
28585SOL    HW187652  12.257   0.393   7.520
28585SOL    HW287653  12.170   0.425   7.639
28586SOL     OW87654   5.811   8.660   4.012
28586SOL    HW187655   5.881   8.716   4.046
28586SOL    HW287656   5.804   8.683   3.919
28587SOL     OW87657   0.855   9.084   8.746
28587SOL    HW187658   0.837   9.134   8.825
28587SOL    HW287659   0.791   9.115   8.682
28588SOL     OW87660   4.423   5.183   6.418
28588SOL    HW187661   4.468   5.196   6.334
28588SOL    HW287662   4.340   5.141   6.395
28589SOL     OW87663   9.472   4.981  13.886
28589SOL    HW187664   9.518   5.039  13.947
28589SOL    HW287665   9.435   5.041  13.820
28590SOL     OW87666   8.137   2.863   9.003
28590SOL    HW187667   8.089   2.830   9.079
28590SOL    HW287668   8.229   2.845   9.023
28591SOL     OW87669   8.485   4.223   0.414
28591SOL    HW187670   8.520   4.194   0.498
28591SOL    HW287671   8.409   4.166   0.398
28592SOL     OW87672   1.620   0.105   4.066
28592SOL    HW187673   1.651   0.026   4.022
28592SOL    HW287674   1.694   0.165   4.062
28593SOL     OW87675   2.258  12.394   9.465
28593SOL    HW187676   2.325  12.398   9.396
28593SOL    HW287677   2.205  12.473   9.451
28594SOL     OW87678   1.945   5.333   5.612
28594SOL    HW187679   1.894   5.414   5.605
28594SOL    HW287680   1.886   5.264   5.582
28595SOL     OW87681  14.553   8.029  14.172
28595SOL    HW187682  14.495   8.073  14.235
28595SOL    HW287683  14.497   7.967  14.127
28596SOL     OW87684  12.662  10.078   0.247
28596SOL    HW187685  12.575  10.117   0.237
28596SOL    HW287686  12.705  10.094   0.163
28597SOL     OW87687  10.532   3.879  10.042
28597SOL    HW187688  10.610   3.924  10.010
28597SOL    HW287689  10.530   3.797   9.993
28598SOL     OW87690   1.800  12.971   6.939
28598SOL    HW187691   1.758  12.918   6.871
28598SOL    HW287692   1.799  13.060   6.905
28599SOL     OW87693   8.792   5.636   9.238
28599SOL    HW187694   8.736   5.575   9.285
28599SOL    HW287695   8.843   5.679   9.307
28600SOL     OW87696  13.624   5.273   3.733
28600SOL    HW187697  13.551   5.293   3.793
28600SOL    HW287698  13.691   5.236   3.790
28601SOL     OW87699  10.999   9.447   6.609
28601SOL    HW187700  11.048   9.393   6.547
28601SOL    HW287701  11.023   9.414   6.695
28602SOL     OW87702  11.838   9.055   7.504
28602SOL    HW187703  11.871   8.965   7.502
28602SOL    HW287704  11.878   9.094   7.581
28603SOL     OW87705   8.293   7.810   6.427
28603SOL    HW187706   8.342   7.755   6.489
28603SOL    HW287707   8.276   7.752   6.353
28604SOL     OW87708   2.943   8.225  11.174
28604SOL    HW187709   2.918   8.132  11.168
28604SOL    HW287710   2.897   8.256  11.252
28605SOL     OW87711  14.188   8.022   1.583
28605SOL    HW187712  14.123   8.048   1.518
28605SOL    HW287713  14.141   7.966   1.644
28606SOL     OW87714  12.372   3.312  11.569
28606SOL    HW187715  12.425   3.331  11.492
28606SOL    HW287716  12.282   3.328  11.542
28607SOL     OW87717   7.269   7.842   3.657
28607SOL    HW187718   7.304   7.756   3.679
28607SOL    HW287719   7.343   7.888   3.617
28608SOL     OW87720  12.216  11.850   9.729
28608SOL    HW187721  12.233  11.924   9.670
28608SOL    HW287722  12.236  11.773   9.676
28609SOL     OW87723   0.616   8.118  10.681
28609SOL    HW187724   0.590   8.187  10.620
28609SOL    HW287725   0.704   8.093  10.652
28610SOL     OW87726   1.119   3.185   0.363
28610SOL    HW187727   1.212   3.203   0.373
28610SOL    HW287728   1.076   3.264   0.396
28611SOL     OW87729   4.184   0.648  13.447
28611SOL    HW187730   4.201   0.559  13.417
28611SOL    HW287731   4.158   0.639  13.539
28612SOL     OW87732  14.578   2.238   7.421
28612SOL    HW187733  14.595   2.302   7.351
28612SOL    HW287734  14.647   2.254   7.485
28613SOL     OW87735   5.127   8.670   3.718
28613SOL    HW187736   5.106   8.747   3.772
28613SOL    HW287737   5.217   8.650   3.741
28614SOL     OW87738   8.960   4.498   1.245
28614SOL    HW187739   9.037   4.473   1.297
28614SOL    HW287740   8.892   4.438   1.275
28615SOL     OW87741  11.849   2.449   8.984
28615SOL    HW187742  11.853   2.455   8.888
28615SOL    HW287743  11.892   2.529   9.014
28616SOL     OW87744  11.615   6.936   2.532
28616SOL    HW187745  11.562   6.883   2.591
28616SOL    HW287746  11.649   6.874   2.468
28617SOL     OW87747   8.305   3.670   3.237
28617SOL    HW187748   8.293   3.736   3.168
28617SOL    HW287749   8.300   3.586   3.191
28618SOL     OW87750   1.372   8.901  10.226
28618SOL    HW187751   1.359   8.848  10.147
28618SOL    HW287752   1.425   8.846  10.283
28619SOL     OW87753   3.602  11.286   7.998
28619SOL    HW187754   3.656  11.365   8.003
28619SOL    HW287755   3.540  11.295   8.070
28620SOL     OW87756   8.156   0.435   6.334
28620SOL    HW187757   8.140   0.357   6.387
28620SOL    HW287758   8.136   0.407   6.245
28621SOL     OW87759  10.993  10.616   2.117
28621SOL    HW187760  10.912  10.613   2.169
28621SOL    HW287761  11.034  10.699   2.142
28622SOL     OW87762   9.713   0.761  10.352
28622SOL    HW187763   9.709   0.683  10.297
28622SOL    HW287764   9.739   0.831  10.292
28623SOL     OW87765  14.324   9.317  13.125
28623SOL    HW187766  14.248   9.375  13.118
28623SOL    HW287767  14.306   9.262  13.202
28624SOL     OW87768  12.020  13.198  10.667
28624SOL    HW187769  12.094  13.173  10.721
28624SOL    HW287770  11.943  13.163  10.713
28625SOL     OW87771   3.193   6.585   3.800
28625SOL    HW187772   3.219   6.569   3.709
28625SOL    HW287773   3.121   6.523   3.815
28626SOL     OW87774   5.317   1.452   4.784
28626SOL    HW187775   5.258   1.478   4.714
28626SOL    HW287776   5.358   1.534   4.812
28627SOL     OW87777  11.750  10.271   0.514
28627SOL    HW187778  11.690  10.291   0.442
28627SOL    HW287779  11.713  10.193   0.554
28628SOL     OW87780   5.608   9.739   1.495
28628SOL    HW187781   5.572   9.798   1.429
28628SOL    HW287782   5.653   9.671   1.444
28629SOL     OW87783  12.937   5.176   8.472
28629SOL    HW187784  12.991   5.254   8.466
28629SOL    HW287785  12.941   5.137   8.385
28630SOL     OW87786   1.394   6.158   4.310
28630SOL    HW187787   1.426   6.069   4.328
28630SOL    HW287788   1.468   6.202   4.267
28631SOL     OW87789   3.302   2.545   4.893
28631SOL    HW187790   3.378   2.557   4.950
28631SOL    HW287791   3.289   2.630   4.852
28632SOL     OW87792   1.871   0.397   9.323
28632SOL    HW187793   1.821   0.401   9.405
28632SOL    HW287794   1.883   0.303   9.307
28633SOL     OW87795  13.412  12.040  10.651
28633SOL    HW187796  13.332  12.002  10.615
28633SOL    HW287797  13.396  12.044  10.746
28634SOL     OW87798   9.704  14.491   7.889
28634SOL    HW187799   9.740  14.419   7.836
28634SOL    HW287800   9.750  14.484   7.973
28635SOL     OW87801  11.021   7.490   4.538
28635SOL    HW187802  11.032   7.397   4.517
28635SOL    HW287803  11.111   7.524   4.544
28636SOL     OW87804  11.008  12.459   3.193
28636SOL    HW187805  10.991  12.508   3.113
28636SOL    HW287806  10.947  12.496   3.257
28637SOL     OW87807   5.461   3.172   5.027
28637SOL    HW187808   5.417   3.115   4.965
28637SOL    HW287809   5.525   3.116   5.071
28638SOL     OW87810   2.148   2.690   9.465
28638SOL    HW187811   2.166   2.674   9.373
28638SOL    HW287812   2.231   2.670   9.509
28639SOL     OW87813   9.105   3.047  14.487
28639SOL    HW187814   9.049   3.069  14.561
28639SOL    HW287815   9.046   3.008  14.422
28640SOL     OW87816   4.421   0.717   9.808
28640SOL    HW187817   4.376   0.790   9.850
28640SOL    HW287818   4.380   0.639   9.846
28641SOL     OW87819  10.252   2.159   4.641
28641SOL    HW187820  10.245   2.097   4.714
28641SOL    HW287821  10.190   2.229   4.664
28642SOL     OW87822   3.013  12.180  14.773
28642SOL    HW187823   2.979  12.097  14.807
28642SOL    HW287824   3.048  12.157  14.687
28643SOL     OW87825   8.681   1.907   1.055
28643SOL    HW187826   8.679   1.837   0.990
28643SOL    HW287827   8.753   1.963   1.027
28644SOL     OW87828  13.629  10.823   0.061
28644SOL    HW187829  13.684  10.892   0.098
28644SOL    HW287830  13.675  10.795  14.851
28645SOL     OW87831   7.547   4.700   3.776
28645SOL    HW187832   7.578   4.611   3.793
28645SOL    HW287833   7.619   4.756   3.803
28646SOL     OW87834   3.297   6.529  11.168
28646SOL    HW187835   3.204   6.549  11.169
28646SOL    HW287836   3.307   6.463  11.099
28647SOL     OW87837   4.812   2.440   4.149
28647SOL    HW187838   4.883   2.380   4.128
28647SOL    HW287839   4.848   2.527   4.130
28648SOL     OW87840   5.774   7.312   1.384
28648SOL    HW187841   5.797   7.286   1.295
28648SOL    HW287842   5.689   7.270   1.400
28649SOL     OW87843   7.934  11.811  11.471
28649SOL    HW187844   7.934  11.836  11.379
28649SOL    HW287845   7.906  11.889  11.518
28650SOL     OW87846   7.193   8.538   7.304
28650SOL    HW187847   7.285   8.512   7.293
28650SOL    HW287848   7.163   8.488   7.380
28651SOL     OW87849   4.519   8.689   3.639
28651SOL    HW187850   4.559   8.633   3.573
28651SOL    HW287851   4.554   8.776   3.622
28652SOL     OW87852  10.945   5.302  10.974
28652SOL    HW187853  11.012   5.235  10.958
28652SOL    HW287854  10.890   5.265  11.042
28653SOL     OW87855   2.995   3.420  11.405
28653SOL    HW187856   2.979   3.430  11.311
28653SOL    HW287857   3.049   3.341  11.411
28654SOL     OW87858   2.601  11.992   0.809
28654SOL    HW187859   2.689  11.983   0.846
28654SOL    HW287860   2.589  12.086   0.797
28655SOL     OW87861   7.515   1.462  14.515
28655SOL    HW187862   7.608   1.461  14.539
28655SOL    HW287863   7.470   1.421  14.589
28656SOL     OW87864   3.152  10.419   0.230
28656SOL    HW187865   3.073  10.401   0.179
28656SOL    HW287866   3.215  10.453   0.166
28657SOL     OW87867  12.938   7.288  13.434
28657SOL    HW187868  12.943   7.338  13.352
28657SOL    HW287869  12.882   7.213  13.413
28658SOL     OW87870  14.570   7.502   9.194
28658SOL    HW187871  14.576   7.475   9.102
28658SOL    HW287872  14.588   7.422   9.244
28659SOL     OW87873   9.666   0.734  10.601
28659SOL    HW187874   9.693   0.773  10.518
28659SOL    HW287875   9.635   0.646  10.577
28660SOL     OW87876   1.508   6.636   1.260
28660SOL    HW187877   1.533   6.624   1.169
28660SOL    HW287878   1.514   6.549   1.299
28661SOL     OW87879  14.402   0.665   4.486
28661SOL    HW187880  14.441   0.624   4.564
28661SOL    HW287881  14.326   0.610   4.467
28662SOL     OW87882  10.350  11.695  12.736
28662SOL    HW187883  10.354  11.774  12.682
28662SOL    HW287884  10.369  11.623  12.675
28663SOL     OW87885   5.904   9.259  11.481
28663SOL    HW187886   5.940   9.344  11.454
28663SOL    HW287887   5.841   9.237  11.412
28664SOL     OW87888   0.912  12.029   7.152
28664SOL    HW187889   0.946  12.119   7.149
28664SOL    HW287890   0.824  12.036   7.114
28665SOL     OW87891   2.687   7.951  10.541
28665SOL    HW187892   2.607   8.003  10.539
28665SOL    HW287893   2.672   7.885  10.609
28666SOL     OW87894  13.150   5.114   3.451
28666SOL    HW187895  13.200   5.067   3.517
28666SOL    HW287896  13.156   5.206   3.477
28667SOL     OW87897   9.564  14.157   0.731
28667SOL    HW187898   9.658  14.151   0.747
28667SOL    HW287899   9.524  14.153   0.817
28668SOL     OW87900  12.778  10.472  14.792
28668SOL    HW187901  12.718  10.503  14.860
28668SOL    HW287902  12.851  10.433  14.839
28669SOL     OW87903   7.725   7.294   0.514
28669SOL    HW187904   7.733   7.340   0.598
28669SOL    HW287905   7.800   7.324   0.463
28670SOL     OW87906  10.462   1.095  11.386
28670SOL    HW187907  10.487   1.187  11.382
28670SOL    HW287908  10.380   1.090  11.336
28671SOL     OW87909  10.093   3.891  12.989
28671SOL    HW187910  10.062   3.831  12.920
28671SOL    HW287911  10.063   3.977  12.961
28672SOL     OW87912  11.222   6.900   2.632
28672SOL    HW187913  11.176   6.984   2.625
28672SOL    HW287914  11.212   6.861   2.545
28673SOL     OW87915   4.685  10.786  14.105
28673SOL    HW187916   4.639  10.829  14.177
28673SOL    HW287917   4.687  10.852  14.036
28674SOL     OW87918  10.836  14.238   7.303
28674SOL    HW187919  10.800  14.154   7.332
28674SOL    HW287920  10.775  14.268   7.236
28675SOL     OW87921  14.024   8.657   5.110
28675SOL    HW187922  14.095   8.593   5.103
28675SOL    HW287923  13.982   8.655   5.023
28676SOL     OW87924   7.995   3.800  14.607
28676SOL    HW187925   7.976   3.710  14.636
28676SOL    HW287926   8.025   3.845  14.686
28677SOL     OW87927  10.412   2.744   4.775
28677SOL    HW187928  10.406   2.836   4.748
28677SOL    HW287929  10.349   2.699   4.719
28678SOL     OW87930  14.849   8.178   0.634
28678SOL    HW187931  14.780   8.222   0.583
28678SOL    HW287932  14.851   8.089   0.599
28679SOL     OW87933   7.315   2.488   3.253
28679SOL    HW187934   7.327   2.436   3.332
28679SOL    HW287935   7.272   2.569   3.284
28680SOL     OW87936  10.810   2.570  12.244
28680SOL    HW187937  10.871   2.616  12.302
28680SOL    HW287938  10.820   2.612  12.159
28681SOL     OW87939   2.336   7.050   0.885
28681SOL    HW187940   2.263   7.111   0.892
28681SOL    HW287941   2.326   6.992   0.960
28682SOL     OW87942  13.331  12.660   1.130
28682SOL    HW187943  13.420  12.694   1.124
28682SOL    HW287944  13.290  12.713   1.198
28683SOL     OW87945   0.638  10.916   0.571
28683SOL    HW187946   0.633  10.831   0.527
28683SOL    HW287947   0.668  10.895   0.660
28684SOL     OW87948   7.815   0.966   1.345
28684SOL    HW187949   7.891   0.980   1.289
28684SOL    HW287950   7.778   1.053   1.357
28685SOL     OW87951  11.476   4.449   4.020
28685SOL    HW187952  11.445   4.425   3.933
28685SOL    HW287953  11.400   4.487   4.063
28686SOL     OW87954   3.694   8.438  10.978
28686SOL    HW187955   3.644   8.406  11.053
28686SOL    HW287956   3.636   8.424  10.903
28687SOL     OW87957   3.502  12.808  12.713
28687SOL    HW187958   3.580  12.805  12.656
28687SOL    HW287959   3.430  12.779  12.657
28688SOL     OW87960  12.109  12.996  13.786
28688SOL    HW187961  12.132  13.087  13.769
28688SOL    HW287962  12.014  12.994  13.785
28689SOL     OW87963  14.317   0.003   8.424
28689SOL    HW187964  14.340  14.830   8.341
28689SOL    HW287965  14.352   0.091   8.416
28690SOL     OW87966  12.595  11.349   0.595
28690SOL    HW187967  12.553  11.384   0.517
28690SOL    HW287968  12.639  11.425   0.634
28691SOL     OW87969   6.230  12.168   9.622
28691SOL    HW187970   6.288  12.114   9.676
28691SOL    HW287971   6.206  12.111   9.549
28692SOL     OW87972   7.372   8.634  12.641
28692SOL    HW187973   7.322   8.560  12.608
28692SOL    HW287974   7.386   8.614  12.734
28693SOL     OW87975  11.658   5.592   8.473
28693SOL    HW187976  11.659   5.581   8.378
28693SOL    HW287977  11.621   5.510   8.506
28694SOL     OW87978   3.394   3.944   8.227
28694SOL    HW187979   3.447   4.022   8.214
28694SOL    HW287980   3.436   3.877   8.172
28695SOL     OW87981  14.561   4.330   1.304
28695SOL    HW187982  14.511   4.321   1.223
28695SOL    HW287983  14.582   4.241   1.329
28696SOL     OW87984  13.560  11.015   5.028
28696SOL    HW187985  13.485  11.071   5.009
28696SOL    HW287986  13.545  10.984   5.117
28697SOL     OW87987   0.336   2.634   7.375
28697SOL    HW187988   0.406   2.688   7.337
28697SOL    HW287989   0.311   2.574   7.305
28698SOL     OW87990  10.653   2.293   3.592
28698SOL    HW187991  10.614   2.352   3.528
28698SOL    HW287992  10.746   2.290   3.568
28699SOL     OW87993  13.695  10.504   1.689
28699SOL    HW187994  13.609  10.511   1.731
28699SOL    HW287995  13.714  10.411   1.688
28700SOL     OW87996   6.854   7.736   6.193
28700SOL    HW187997   6.876   7.715   6.284
28700SOL    HW287998   6.847   7.651   6.149
28701SOL     OW87999   5.565   7.060   8.113
28701SOL    HW188000   5.608   6.976   8.098
28701SOL    HW288001   5.633   7.126   8.095
28702SOL     OW88002   1.069   9.253   7.216
28702SOL    HW188003   1.100   9.162   7.213
28702SOL    HW288004   1.027   9.260   7.302
28703SOL     OW88005   5.177   5.306   6.729
28703SOL    HW188006   5.188   5.315   6.824
28703SOL    HW288007   5.218   5.384   6.692
28704SOL     OW88008   3.204   3.072   5.362
28704SOL    HW188009   3.111   3.076   5.338
28704SOL    HW288010   3.213   2.988   5.408
28705SOL     OW88011   0.213  10.350   2.242
28705SOL    HW188012   0.160  10.409   2.296
28705SOL    HW288013   0.231  10.399   2.162
28706SOL     OW88014   0.571  12.081  10.567
28706SOL    HW188015   0.477  12.062  10.560
28706SOL    HW288016   0.582  12.113  10.656
28707SOL     OW88017   4.011  11.349  10.176
28707SOL    HW188018   4.031  11.435  10.140
28707SOL    HW288019   3.948  11.311  10.115
28708SOL     OW88020   6.740   9.989   2.343
28708SOL    HW188021   6.827   9.954   2.362
28708SOL    HW288022   6.749  10.083   2.356
28709SOL     OW88023  14.176  11.341   3.593
28709SOL    HW188024  14.122  11.304   3.664
28709SOL    HW288025  14.188  11.433   3.618
28710SOL     OW88026  12.066  12.270  14.635
28710SOL    HW188027  12.057  12.357  14.674
28710SOL    HW288028  12.142  12.278  14.577
28711SOL     OW88029   4.829   7.388  13.100
28711SOL    HW188030   4.861   7.433  13.177
28711SOL    HW288031   4.816   7.457  13.035
28712SOL     OW88032   1.138   2.099  11.455
28712SOL    HW188033   1.226   2.089  11.491
28712SOL    HW288034   1.146   2.172  11.394
28713SOL     OW88035   0.070   3.388   8.457
28713SOL    HW188036   0.057   3.415   8.548
28713SOL    HW288037   0.162   3.360   8.454
28714SOL     OW88038   1.305   3.952   7.466
28714SOL    HW188039   1.329   3.942   7.558
28714SOL    HW288040   1.379   3.915   7.418
28715SOL     OW88041   9.897  13.872   6.031
28715SOL    HW188042   9.992  13.870   6.024
28715SOL    HW288043   9.871  13.781   6.046
28716SOL     OW88044   8.278   9.712   0.561
28716SOL    HW188045   8.365   9.735   0.593
28716SOL    HW288046   8.274   9.617   0.569
28717SOL     OW88047  14.033   6.481   8.249
28717SOL    HW188048  14.107   6.498   8.306
28717SOL    HW288049  13.981   6.562   8.251
28718SOL     OW88050   3.008   9.208   2.477
28718SOL    HW188051   3.008   9.125   2.526
28718SOL    HW288052   3.009   9.275   2.545
28719SOL     OW88053  10.919   8.372   2.353
28719SOL    HW188054  10.902   8.291   2.400
28719SOL    HW288055  10.908   8.349   2.261
28720SOL     OW88056   4.589   8.055  14.231
28720SOL    HW188057   4.567   8.148  14.226
28720SOL    HW288058   4.510   8.013  14.264
28721SOL     OW88059  10.590   4.451  10.031
28721SOL    HW188060  10.530   4.400  10.086
28721SOL    HW288061  10.604   4.395   9.954
28722SOL     OW88062  14.719  14.177   0.336
28722SOL    HW188063  14.787  14.160   0.271
28722SOL    HW288064  14.763  14.165   0.420
28723SOL     OW88065   9.763   5.801   3.574
28723SOL    HW188066   9.673   5.813   3.603
28723SOL    HW288067   9.805   5.886   3.591
28724SOL     OW88068  13.036  10.370   5.747
28724SOL    HW188069  13.067  10.416   5.669
28724SOL    HW288070  13.015  10.282   5.716
28725SOL     OW88071   9.779  10.214   0.617
28725SOL    HW188072   9.686  10.195   0.608
28725SOL    HW288073   9.786  10.265   0.698
28726SOL     OW88074  13.944   6.422  11.829
28726SOL    HW188075  13.873   6.359  11.812
28726SOL    HW288076  13.945   6.477  11.750
28727SOL     OW88077   7.206   2.459   1.838
28727SOL    HW188078   7.262   2.537   1.842
28727SOL    HW288079   7.130   2.481   1.892
28728SOL     OW88080   0.290  14.314   6.656
28728SOL    HW188081   0.291  14.247   6.724
28728SOL    HW288082   0.378  14.351   6.657
28729SOL     OW88083   8.582   8.528   6.145
28729SOL    HW188084   8.566   8.529   6.050
28729SOL    HW288085   8.662   8.477   6.155
28730SOL     OW88086   6.122   0.256   7.392
28730SOL    HW188087   6.067   0.334   7.393
28730SOL    HW288088   6.100   0.210   7.472
28731SOL     OW88089   8.148   8.638   2.150
28731SOL    HW188090   8.094   8.580   2.097
28731SOL    HW288091   8.138   8.606   2.239
28732SOL     OW88092   2.777  10.569  10.345
28732SOL    HW188093   2.804  10.661  10.350
28732SOL    HW288094   2.692  10.570  10.303
28733SOL     OW88095   8.813   7.830  12.588
28733SOL    HW188096   8.764   7.767  12.536
28733SOL    HW288097   8.747   7.890  12.623
28734SOL     OW88098  12.992   1.395   8.849
28734SOL    HW188099  13.072   1.342   8.846
28734SOL    HW288100  12.933   1.353   8.787
28735SOL     OW88101  12.261   3.453   3.699
28735SOL    HW188102  12.230   3.384   3.640
28735SOL    HW288103  12.356   3.450   3.690
28736SOL     OW88104   2.270  12.274  11.549
28736SOL    HW188105   2.187  12.300  11.590
28736SOL    HW288106   2.336  12.328  11.593
28737SOL     OW88107   9.597   3.012   5.686
28737SOL    HW188108   9.620   3.012   5.594
28737SOL    HW288109   9.521   3.071   5.691
28738SOL     OW88110   7.978   5.215   2.514
28738SOL    HW188111   7.942   5.302   2.502
28738SOL    HW288112   8.000   5.210   2.607
28739SOL     OW88113  11.245   2.853  10.807
28739SOL    HW188114  11.309   2.800  10.760
28739SOL    HW288115  11.294   2.928  10.839
28740SOL     OW88116   4.045   8.494  13.967
28740SOL    HW188117   4.100   8.419  13.945
28740SOL    HW288118   4.022   8.480  14.059
28741SOL     OW88119   5.936   9.185   7.493
28741SOL    HW188120   5.919   9.211   7.583
28741SOL    HW288121   5.925   9.089   7.492
28742SOL     OW88122  12.590   4.363  10.349
28742SOL    HW188123  12.637   4.446  10.337
28742SOL    HW288124  12.529   4.359  10.275
28743SOL     OW88125   6.053  11.311   5.929
28743SOL    HW188126   6.089  11.345   6.011
28743SOL    HW288127   5.975  11.364   5.913
28744SOL     OW88128  12.005  11.170   7.985
28744SOL    HW188129  12.076  11.108   8.001
28744SOL    HW288130  12.048  11.255   7.974
28745SOL     OW88131   6.544   1.290   0.448
28745SOL    HW188132   6.451   1.266   0.441
28745SOL    HW288133   6.557   1.310   0.540
28746SOL     OW88134   9.059   7.008  11.325
28746SOL    HW188135   9.020   7.000  11.238
28746SOL    HW288136   8.997   7.062  11.374
28747SOL     OW88137   6.554  12.599   8.230
28747SOL    HW188138   6.541  12.578   8.138
28747SOL    HW288139   6.467  12.586   8.270
28748SOL     OW88140   1.479   9.946   0.957
28748SOL    HW188141   1.462   9.913   1.046
28748SOL    HW288142   1.479   9.868   0.902
28749SOL     OW88143   1.076   2.807   3.259
28749SOL    HW188144   1.072   2.716   3.288
28749SOL    HW288145   1.165   2.817   3.226
28750SOL     OW88146   1.685  10.623   5.498
28750SOL    HW188147   1.665  10.549   5.556
28750SOL    HW288148   1.660  10.700   5.547
28751SOL     OW88149   9.320   1.281   6.811
28751SOL    HW188150   9.385   1.242   6.752
28751SOL    HW288151   9.370   1.345   6.862
28752SOL     OW88152   4.174   9.192   9.573
28752SOL    HW188153   4.231   9.138   9.518
28752SOL    HW288154   4.087   9.155   9.562
28753SOL     OW88155   8.315   0.620   2.023
28753SOL    HW188156   8.275   0.567   1.954
28753SOL    HW288157   8.335   0.704   1.982
28754SOL     OW88158  13.313   0.392   2.612
28754SOL    HW188159  13.247   0.408   2.545
28754SOL    HW288160  13.284   0.443   2.687
28755SOL     OW88161  14.645   7.488   8.120
28755SOL    HW188162  14.643   7.396   8.147
28755SOL    HW288163  14.668   7.536   8.200
28756SOL     OW88164   9.423   4.921   9.624
28756SOL    HW188165   9.389   5.007   9.650
28756SOL    HW288166   9.448   4.932   9.533
28757SOL     OW88167  12.611   3.359   0.421
28757SOL    HW188168  12.693   3.332   0.380
28757SOL    HW288169  12.543   3.315   0.370
28758SOL     OW88170   5.864   6.249  13.111
28758SOL    HW188171   5.802   6.176  13.101
28758SOL    HW288172   5.837   6.292  13.192
28759SOL     OW88173   1.269  14.236   0.289
28759SOL    HW188174   1.176  14.241   0.265
28759SOL    HW288175   1.312  14.296   0.229
28760SOL     OW88176   2.806  10.346   3.238
28760SOL    HW188177   2.739  10.346   3.169
28760SOL    HW288178   2.887  10.327   3.192
28761SOL     OW88179   6.158   3.236   4.198
28761SOL    HW188180   6.221   3.195   4.257
28761SOL    HW288181   6.171   3.191   4.114
28762SOL     OW88182   2.887   4.984   1.496
28762SOL    HW188183   2.949   4.990   1.569
28762SOL    HW288184   2.802   4.999   1.536
28763SOL     OW88185  13.003  13.174  12.939
28763SOL    HW188186  12.919  13.140  12.971
28763SOL    HW288187  13.056  13.185  13.018
28764SOL     OW88188   7.675  10.960  10.368
28764SOL    HW188189   7.694  11.011  10.289
28764SOL    HW288190   7.581  10.942  10.364
28765SOL     OW88191  10.269  14.036  12.623
28765SOL    HW188192  10.256  14.035  12.528
28765SOL    HW288193  10.346  13.981  12.638
28766SOL     OW88194   0.154   5.365   2.806
28766SOL    HW188195   0.225   5.348   2.868
28766SOL    HW288196   0.099   5.287   2.812
28767SOL     OW88197  14.579  10.903   0.839
28767SOL    HW188198  14.660  10.941   0.873
28767SOL    HW288199  14.520  10.900   0.915
28768SOL     OW88200   0.264   1.387  13.150
28768SOL    HW188201   0.291   1.399  13.059
28768SOL    HW288202   0.346   1.386  13.200
28769SOL     OW88203   7.632  13.947  12.783
28769SOL    HW188204   7.665  13.869  12.738
28769SOL    HW288205   7.689  14.018  12.754
28770SOL     OW88206   9.977  10.092  12.245
28770SOL    HW188207   9.913  10.023  12.265
28770SOL    HW288208   9.942  10.170  12.289
28771SOL     OW88209   9.793  13.666   0.710
28771SOL    HW188210   9.746  13.583   0.718
28771SOL    HW288211   9.854  13.666   0.784
28772SOL     OW88212  12.125  10.580   2.477
28772SOL    HW188213  12.148  10.487   2.475
28772SOL    HW288214  12.202  10.622   2.516
28773SOL     OW88215   2.528   9.794  13.609
28773SOL    HW188216   2.456   9.782  13.548
28773SOL    HW288217   2.572   9.709  13.613
28774SOL     OW88218   7.771   6.899   3.162
28774SOL    HW188219   7.833   6.972   3.168
28774SOL    HW288220   7.813   6.838   3.101
28775SOL     OW88221   3.747   5.387   8.312
28775SOL    HW188222   3.703   5.395   8.396
28775SOL    HW288223   3.772   5.294   8.307
28776SOL     OW88224   7.351  14.865   0.536
28776SOL    HW188225   7.328  14.866   0.629
28776SOL    HW288226   7.274   0.030   0.491
28777SOL     OW88227   5.930   6.683  11.706
28777SOL    HW188228   6.022   6.668  11.686
28777SOL    HW288229   5.883   6.625  11.645
28778SOL     OW88230  12.784  14.635  11.313
28778SOL    HW188231  12.769  14.679  11.229
28778SOL    HW288232  12.789  14.542  11.292
28779SOL     OW88233   0.289   5.343  14.003
28779SOL    HW188234   0.327   5.280  13.942
28779SOL    HW288235   0.194   5.330  13.994
28780SOL     OW88236  14.175  13.521  12.834
28780SOL    HW188237  14.091  13.535  12.791
28780SOL    HW288238  14.174  13.429  12.860
28781SOL     OW88239   6.633   6.012   7.182
28781SOL    HW188240   6.666   6.100   7.164
28781SOL    HW288241   6.598   6.017   7.271
28782SOL     OW88242   6.178  11.102   5.426
28782SOL    HW188243   6.122  11.032   5.460
28782SOL    HW288244   6.187  11.163   5.499
28783SOL     OW88245  14.489   5.855   3.234
28783SOL    HW188246  14.560   5.837   3.297
28783SOL    HW288247  14.446   5.771   3.222
28784SOL     OW88248   8.492  12.238   9.955
28784SOL    HW188249   8.399  12.261   9.961
28784SOL    HW288250   8.521  12.230  10.046
28785SOL     OW88251   4.275   8.637   1.543
28785SOL    HW188252   4.345   8.575   1.562
28785SOL    HW288253   4.204   8.584   1.508
28786SOL     OW88254   7.217   2.168   8.596
28786SOL    HW188255   7.227   2.241   8.658
28786SOL    HW288256   7.153   2.110   8.637
28787SOL     OW88257  10.098   3.284   6.832
28787SOL    HW188258  10.194   3.284   6.832
28787SOL    HW288259  10.074   3.222   6.901
28788SOL     OW88260   7.368   9.629   4.912
28788SOL    HW188261   7.308   9.560   4.884
28788SOL    HW288262   7.394   9.603   5.000
28789SOL     OW88263   4.994   3.583   5.927
28789SOL    HW188264   5.000   3.491   5.901
28789SOL    HW288265   5.036   3.586   6.013
28790SOL     OW88266  12.427   0.927   3.346
28790SOL    HW188267  12.386   1.013   3.359
28790SOL    HW288268  12.478   0.913   3.426
28791SOL     OW88269  10.258   7.356   2.992
28791SOL    HW188270  10.306   7.426   3.036
28791SOL    HW288271  10.232   7.296   3.062
28792SOL     OW88272   8.128   4.162   5.048
28792SOL    HW188273   8.181   4.103   5.103
28792SOL    HW288274   8.124   4.118   4.963
28793SOL     OW88275  10.351   4.383   0.298
28793SOL    HW188276  10.316   4.471   0.311
28793SOL    HW288277  10.365   4.377   0.203
28794SOL     OW88278   8.825   0.919  11.228
28794SOL    HW188279   8.839   1.013  11.215
28794SOL    HW288280   8.811   0.884  11.140
28795SOL     OW88281   7.735   2.873   8.436
28795SOL    HW188282   7.708   2.910   8.519
28795SOL    HW288283   7.814   2.922   8.412
28796SOL     OW88284   7.813   0.085   7.110
28796SOL    HW188285   7.801  14.862   7.133
28796SOL    HW288286   7.854   0.084   7.024
28797SOL     OW88287  13.640   4.315  10.764
28797SOL    HW188288  13.627   4.401  10.724
28797SOL    HW288289  13.735   4.307  10.773
28798SOL     OW88290   7.965   6.112   4.035
28798SOL    HW188291   7.998   6.091   4.122
28798SOL    HW288292   8.034   6.082   3.976
28799SOL     OW88293   1.134   1.282   9.509
28799SOL    HW188294   1.068   1.313   9.447
28799SOL    HW288295   1.141   1.352   9.573
28800SOL     OW88296  12.617  10.283   8.352
28800SOL    HW188297  12.660  10.208   8.393
28800SOL    HW288298  12.544  10.245   8.303
28801SOL     OW88299  14.526  11.878   2.442
28801SOL    HW188300  14.451  11.925   2.405
28801SOL    HW288301  14.514  11.787   2.414
28802SOL     OW88302   4.265  11.127  11.433
28802SOL    HW188303   4.320  11.143  11.357
28802SOL    HW288304   4.182  11.168  11.412
28803SOL     OW88305   3.422  13.341  13.291
28803SOL    HW188306   3.447  13.249  13.279
28803SOL    HW288307   3.330  13.338  13.315
28804SOL     OW88308  10.983  10.840  14.806
28804SOL    HW188309  10.892  10.852  14.830
28804SOL    HW288310  11.025  10.802   0.014
28805SOL     OW88311   2.325   1.045  13.269
28805SOL    HW188312   2.277   1.016  13.192
28805SOL    HW288313   2.261   1.095  13.320
28806SOL     OW88314   1.457   4.828   4.968
28806SOL    HW188315   1.498   4.756   4.921
28806SOL    HW288316   1.364   4.806   4.969
28807SOL     OW88317   7.314  11.033  11.439
28807SOL    HW188318   7.311  11.079  11.523
28807SOL    HW288319   7.371  10.958  11.454
28808SOL     OW88320   0.461  14.308   3.889
28808SOL    HW188321   0.376  14.267   3.907
28808SOL    HW288322   0.470  14.304   3.794
28809SOL     OW88323  12.266   9.841   0.612
28809SOL    HW188324  12.292   9.860   0.522
28809SOL    HW288325  12.346   9.807   0.654
28810SOL     OW88326   4.507   0.772   5.954
28810SOL    HW188327   4.470   0.687   5.932
28810SOL    HW288328   4.434   0.822   5.991
28811SOL     OW88329   5.221  12.394   9.092
28811SOL    HW188330   5.156  12.465   9.089
28811SOL    HW288331   5.287  12.421   9.028
28812SOL     OW88332   1.229   8.639  12.312
28812SOL    HW188333   1.246   8.630  12.218
28812SOL    HW288334   1.315   8.625  12.352
28813SOL     OW88335  13.744  12.592   2.307
28813SOL    HW188336  13.812  12.525   2.310
28813SOL    HW288337  13.768  12.654   2.376
28814SOL     OW88338   3.284   0.138   4.646
28814SOL    HW188339   3.212   0.175   4.595
28814SOL    HW288340   3.309   0.209   4.706
28815SOL     OW88341   8.325  14.810   5.806
28815SOL    HW188342   8.352  14.719   5.820
28815SOL    HW288343   8.317  14.819   5.711
28816SOL     OW88344   9.466  10.208  12.919
28816SOL    HW188345   9.446  10.225  13.012
28816SOL    HW288346   9.382  10.182  12.881
28817SOL     OW88347   0.460   6.728   6.364
28817SOL    HW188348   0.542   6.727   6.315
28817SOL    HW288349   0.477   6.673   6.440
28818SOL     OW88350  10.888  12.145   5.892
28818SOL    HW188351  10.873  12.239   5.891
28818SOL    HW288352  10.978  12.134   5.863
28819SOL     OW88353   4.332   0.336   7.198
28819SOL    HW188354   4.349   0.311   7.288
28819SOL    HW288355   4.347   0.430   7.195
28820SOL     OW88356   7.552   3.723   2.176
28820SOL    HW188357   7.619   3.692   2.237
28820SOL    HW288358   7.471   3.681   2.205
28821SOL     OW88359   1.457   4.411  14.675
28821SOL    HW188360   1.470   4.319  14.651
28821SOL    HW288361   1.532   4.457  14.638
28822SOL     OW88362  10.459  12.723  10.391
28822SOL    HW188363  10.441  12.630  10.405
28822SOL    HW288364  10.409  12.768  10.459
28823SOL     OW88365   6.507  12.264   4.399
28823SOL    HW188366   6.559  12.344   4.392
28823SOL    HW288367   6.501  12.231   4.309
28824SOL     OW88368  12.445  12.077  11.639
28824SOL    HW188369  12.363  12.050  11.597
28824SOL    HW288370  12.425  12.075  11.733
28825SOL     OW88371  13.288   7.478  10.673
28825SOL    HW188372  13.229   7.415  10.713
28825SOL    HW288373  13.315   7.438  10.591
28826SOL     OW88374   8.693  13.681   1.658
28826SOL    HW188375   8.650  13.657   1.576
28826SOL    HW288376   8.767  13.621   1.665
28827SOL     OW88377  11.560   0.319   7.318
28827SOL    HW188378  11.510   0.254   7.268
28827SOL    HW288379  11.509   0.330   7.399
28828SOL     OW88380  10.051  10.378  12.937
28828SOL    HW188381  10.107  10.327  12.995
28828SOL    HW288382   9.999  10.433  12.995
28829SOL     OW88383  10.076   0.998  10.294
28829SOL    HW188384  10.105   1.080  10.253
28829SOL    HW288385  10.084   1.015  10.388
28830SOL     OW88386  13.871   8.532  14.512
28830SOL    HW188387  13.845   8.609  14.461
28830SOL    HW288388  13.877   8.462  14.447
28831SOL     OW88389   4.066   0.900   7.809
28831SOL    HW188390   4.039   0.960   7.740
28831SOL    HW288391   4.010   0.922   7.884
28832SOL     OW88392  11.232  11.500   7.901
28832SOL    HW188393  11.259  11.418   7.944
28832SOL    HW288394  11.271  11.494   7.814
28833SOL     OW88395   6.141   3.497   1.450
28833SOL    HW188396   6.090   3.433   1.401
28833SOL    HW288397   6.084   3.572   1.459
28834SOL     OW88398   4.441   2.051  13.930
28834SOL    HW188399   4.472   2.013  13.847
28834SOL    HW288400   4.371   1.993  13.958
28835SOL     OW88401   5.826   9.635   7.376
28835SOL    HW188402   5.912   9.610   7.344
28835SOL    HW288403   5.773   9.556   7.366
28836SOL     OW88404  11.096   5.354  12.368
28836SOL    HW188405  11.016   5.308  12.342
28836SOL    HW288406  11.097   5.349  12.464
28837SOL     OW88407  10.951   2.253   7.890
28837SOL    HW188408  10.925   2.290   7.974
28837SOL    HW288409  10.898   2.174   7.881
28838SOL     OW88410   4.002   2.481   0.959
28838SOL    HW188411   4.096   2.494   0.951
28838SOL    HW288412   3.992   2.385   0.961
28839SOL     OW88413   6.612  13.544   7.666
28839SOL    HW188414   6.589  13.634   7.686
28839SOL    HW288415   6.600  13.536   7.571
28840SOL     OW88416  11.007   4.895   5.345
28840SOL    HW188417  11.020   4.801   5.333
28840SOL    HW288418  10.931   4.916   5.291
28841SOL     OW88419  11.655   4.028   9.157
28841SOL    HW188420  11.628   4.120   9.159
28841SOL    HW288421  11.664   4.004   9.249
28842SOL     OW88422   5.381   4.225  12.495
28842SOL    HW188423   5.310   4.173  12.458
28842SOL    HW288424   5.346   4.314  12.500
28843SOL     OW88425   9.978  13.499   4.749
28843SOL    HW188426   9.930  13.541   4.677
28843SOL    HW288427   9.926  13.520   4.827
28844SOL     OW88428   3.123   5.602   5.552
28844SOL    HW188429   3.107   5.696   5.559
28844SOL    HW288430   3.075   5.563   5.625
28845SOL     OW88431   3.927   3.423   4.523
28845SOL    HW188432   3.921   3.329   4.505
28845SOL    HW288433   3.890   3.433   4.610
28846SOL     OW88434   9.695   9.563  14.396
28846SOL    HW188435   9.786   9.542  14.377
28846SOL    HW288436   9.649   9.479  14.390
28847SOL     OW88437  13.851   4.063  14.411
28847SOL    HW188438  13.886   4.124  14.476
28847SOL    HW288439  13.922   4.053  14.347
28848SOL     OW88440  10.602   4.780   0.237
28848SOL    HW188441  10.592   4.694   0.279
28848SOL    HW288442  10.633   4.760   0.149
28849SOL     OW88443   1.988   4.058   8.145
28849SOL    HW188444   1.984   4.151   8.170
28849SOL    HW288445   2.061   4.053   8.083
28850SOL     OW88446   1.824  13.862  13.342
28850SOL    HW188447   1.734  13.832  13.332
28850SOL    HW288448   1.819  13.931  13.408
28851SOL     OW88449   1.299   8.249   2.985
28851SOL    HW188450   1.286   8.159   3.017
28851SOL    HW288451   1.394   8.259   2.979
28852SOL     OW88452   9.603  12.520   5.971
28852SOL    HW188453   9.666  12.461   5.930
28852SOL    HW288454   9.648  12.551   6.050
28853SOL     OW88455  11.479   7.225   1.866
28853SOL    HW188456  11.443   7.303   1.909
28853SOL    HW288457  11.525   7.179   1.936
28854SOL     OW88458   7.601  14.400   0.108
28854SOL    HW188459   7.627  14.490   0.091
28854SOL    HW288460   7.518  14.408   0.155
28855SOL     OW88461   7.501  13.601  11.519
28855SOL    HW188462   7.437  13.601  11.448
28855SOL    HW288463   7.449  13.618  11.598
28856SOL     OW88464   0.722   5.536  11.796
28856SOL    HW188465   0.708   5.475  11.724
28856SOL    HW288466   0.738   5.620  11.754
28857SOL     OW88467   6.814   9.516  13.754
28857SOL    HW188468   6.857   9.436  13.724
28857SOL    HW288469   6.722   9.492  13.764
28858SOL     OW88470   6.920   2.534   8.852
28858SOL    HW188471   6.833   2.504   8.824
28858SOL    HW288472   6.953   2.463   8.907
28859SOL     OW88473   1.188  10.016   4.881
28859SOL    HW188474   1.146  10.042   4.963
28859SOL    HW288475   1.124   9.960   4.837
28860SOL     OW88476  12.359   7.964  12.898
28860SOL    HW188477  12.342   8.055  12.921
28860SOL    HW288478  12.453   7.952  12.911
28861SOL     OW88479  11.659   6.239   6.237
28861SOL    HW188480  11.579   6.249   6.290
28861SOL    HW288481  11.631   6.184   6.163
28862SOL     OW88482   6.134   0.375  13.066
28862SOL    HW188483   6.127   0.297  13.011
28862SOL    HW288484   6.094   0.445  13.015
28863SOL     OW88485   0.364   6.911  12.717
28863SOL    HW188486   0.342   6.944  12.629
28863SOL    HW288487   0.393   6.989  12.765
28864SOL     OW88488   0.355   3.532   0.912
28864SOL    HW188489   0.267   3.516   0.877
28864SOL    HW288490   0.411   3.473   0.862
28865SOL     OW88491  13.492  12.702  10.553
28865SOL    HW188492  13.415  12.726  10.501
28865SOL    HW288493  13.459  12.640  10.618
28866SOL     OW88494   3.465  12.650  13.700
28866SOL    HW188495   3.441  12.639  13.793
28866SOL    HW288496   3.560  12.639  13.699
28867SOL     OW88497   0.698  11.685   0.858
28867SOL    HW188498   0.609  11.658   0.881
28867SOL    HW288499   0.685  11.756   0.795
28868SOL     OW88500   8.173   5.744  13.698
28868SOL    HW188501   8.195   5.670  13.755
28868SOL    HW288502   8.149   5.704  13.614
28869SOL     OW88503  10.352   0.389   2.843
28869SOL    HW188504  10.390   0.324   2.784
28869SOL    HW288505  10.295   0.442   2.787
28870SOL     OW88506   8.936   2.660  11.869
28870SOL    HW188507   9.022   2.618  11.875
28870SOL    HW288508   8.891   2.614  11.798
28871SOL     OW88509   1.356  14.127   8.436
28871SOL    HW188510   1.374  14.179   8.358
28871SOL    HW288511   1.442  14.096   8.465
28872SOL     OW88512   2.711   0.671   4.132
28872SOL    HW188513   2.690   0.647   4.042
28872SOL    HW288514   2.770   0.746   4.123
28873SOL     OW88515   9.502   7.308  13.851
28873SOL    HW188516   9.448   7.332  13.926
28873SOL    HW288517   9.592   7.315  13.884
28874SOL     OW88518  10.041  10.993   0.034
28874SOL    HW188519   9.999  10.942  14.835
28874SOL    HW288520   9.969  11.023   0.090
28875SOL     OW88521   3.031  13.450   7.737
28875SOL    HW188522   3.055  13.542   7.749
28875SOL    HW288523   2.936  13.450   7.730
28876SOL     OW88524   7.863   0.631   1.678
28876SOL    HW188525   7.792   0.688   1.648
28876SOL    HW288526   7.917   0.687   1.735
28877SOL     OW88527  13.659   3.432   5.841
28877SOL    HW188528  13.730   3.493   5.822
28877SOL    HW288529  13.580   3.485   5.842
28878SOL     OW88530   0.770   4.130  13.311
28878SOL    HW188531   0.840   4.152  13.372
28878SOL    HW288532   0.700   4.192  13.333
28879SOL     OW88533   9.203   4.362   1.151
28879SOL    HW188534   9.177   4.363   1.059
28879SOL    HW288535   9.269   4.293   1.157
28880SOL     OW88536   6.853   4.462   5.645
28880SOL    HW188537   6.769   4.428   5.615
28880SOL    HW288538   6.905   4.471   5.565
28881SOL     OW88539   2.177  10.828  13.300
28881SOL    HW188540   2.184  10.881  13.220
28881SOL    HW288541   2.134  10.747  13.272
28882SOL     OW88542  13.399   3.140   2.034
28882SOL    HW188543  13.370   3.184   1.954
28882SOL    HW288544  13.370   3.049   2.024
28883SOL     OW88545   4.253   5.159   9.830
28883SOL    HW188546   4.223   5.160   9.921
28883SOL    HW288547   4.193   5.217   9.784
28884SOL     OW88548   1.260  12.258   8.121
28884SOL    HW188549   1.258  12.274   8.026
28884SOL    HW288550   1.344  12.216   8.136
28885SOL     OW88551   1.422  11.293   1.199
28885SOL    HW188552   1.403  11.304   1.106
28885SOL    HW288553   1.355  11.232   1.230
28886SOL     OW88554   2.703   6.207   5.198
28886SOL    HW188555   2.787   6.167   5.217
28886SOL    HW288556   2.653   6.139   5.153
28887SOL     OW88557   6.617   5.048  13.554
28887SOL    HW188558   6.660   5.011  13.477
28887SOL    HW288559   6.679   5.114  13.586
28888SOL     OW88560   5.689   0.883  14.279
28888SOL    HW188561   5.709   0.829  14.202
28888SOL    HW288562   5.698   0.973  14.248
28889SOL     OW88563  10.248   3.021   1.861
28889SOL    HW188564  10.311   3.090   1.877
28889SOL    HW288565  10.220   3.035   1.771
28890SOL     OW88566   9.942  12.511  14.828
28890SOL    HW188567   9.902  12.577   0.016
28890SOL    HW288568   9.918  12.538  14.740
28891SOL     OW88569   8.650  12.654  10.140
28891SOL    HW188570   8.731  12.658  10.191
28891SOL    HW288571   8.595  12.723  10.176
28892SOL     OW88572   6.640  12.497   4.452
28892SOL    HW188573   6.612  12.573   4.504
28892SOL    HW288574   6.697  12.447   4.510
28893SOL     OW88575   4.448   4.847   2.469
28893SOL    HW188576   4.493   4.915   2.420
28893SOL    HW288577   4.451   4.877   2.560
28894SOL     OW88578  11.534  10.047   5.862
28894SOL    HW188579  11.592   9.978   5.893
28894SOL    HW288580  11.447  10.022   5.892
28895SOL     OW88581  11.817  11.619  12.858
28895SOL    HW188582  11.764  11.612  12.937
28895SOL    HW288583  11.831  11.713  12.846
28896SOL     OW88584   5.288   4.461   2.114
28896SOL    HW188585   5.305   4.409   2.035
28896SOL    HW288586   5.198   4.438   2.138
28897SOL     OW88587   1.824  11.576   6.831
28897SOL    HW188588   1.791  11.660   6.865
28897SOL    HW288589   1.918  11.579   6.846
28898SOL     OW88590  13.692  13.489   4.441
28898SOL    HW188591  13.638  13.412   4.462
28898SOL    HW288592  13.656  13.522   4.359
28899SOL     OW88593  14.265   2.702  10.464
28899SOL    HW188594  14.189   2.692  10.521
28899SOL    HW288595  14.233   2.753  10.390
28900SOL     OW88596  11.268   9.160   0.034
28900SOL    HW188597  11.306   9.209   0.107
28900SOL    HW288598  11.287   9.214  14.827
28901SOL     OW88599  12.684   6.891  11.665
28901SOL    HW188600  12.625   6.931  11.730
28901SOL    HW288601  12.640   6.904  11.581
28902SOL     OW88602   9.844  14.133   0.803
28902SOL    HW188603   9.831  14.227   0.814
28902SOL    HW288604   9.899  14.125   0.725
28903SOL     OW88605   8.431   3.621   6.880
28903SOL    HW188606   8.516   3.577   6.875
28903SOL    HW288607   8.374   3.557   6.922
28904SOL     OW88608   9.187  14.052  10.469
28904SOL    HW188609   9.236  14.080  10.546
28904SOL    HW288610   9.223  14.105  10.397
28905SOL     OW88611   3.126   5.847  12.924
28905SOL    HW188612   3.039   5.860  12.962
28905SOL    HW288613   3.111   5.791  12.848
28906SOL     OW88614   5.769   3.367   8.913
28906SOL    HW188615   5.748   3.297   8.851
28906SOL    HW288616   5.770   3.323   8.998
28907SOL     OW88617  11.542   1.419  12.624
28907SOL    HW188618  11.562   1.498  12.573
28907SOL    HW288619  11.628   1.379  12.640
28908SOL     OW88620  14.116   0.332  10.832
28908SOL    HW188621  14.057   0.380  10.890
28908SOL    HW288622  14.085   0.241  10.837
28909SOL     OW88623   2.788   7.531  12.830
28909SOL    HW188624   2.715   7.514  12.770
28909SOL    HW288625   2.760   7.493  12.913
28910SOL     OW88626   5.337   6.634   6.180
28910SOL    HW188627   5.363   6.554   6.226
28910SOL    HW288628   5.397   6.701   6.212
28911SOL     OW88629   2.148   4.151  12.181
28911SOL    HW188630   2.173   4.061  12.163
28911SOL    HW288631   2.178   4.200  12.104
28912SOL     OW88632   5.757   0.760  10.125
28912SOL    HW188633   5.768   0.721  10.212
28912SOL    HW288634   5.694   0.703  10.081
28913SOL     OW88635  11.906   6.349   9.068
28913SOL    HW188636  11.890   6.442   9.051
28913SOL    HW288637  11.860   6.304   8.997
28914SOL     OW88638   3.536   9.575   7.409
28914SOL    HW188639   3.579   9.550   7.328
28914SOL    HW288640   3.443   9.567   7.391
28915SOL     OW88641  14.016   3.337   0.635
28915SOL    HW188642  13.981   3.289   0.711
28915SOL    HW288643  14.034   3.425   0.669
28916SOL     OW88644   1.265   1.471   1.147
28916SOL    HW188645   1.340   1.430   1.104
28916SOL    HW288646   1.280   1.455   1.240
28917SOL     OW88647   2.876   4.426  14.131
28917SOL    HW188648   2.826   4.390  14.058
28917SOL    HW288649   2.957   4.377  14.131
28918SOL     OW88650   3.011   3.331  10.393
28918SOL    HW188651   2.930   3.321  10.443
28918SOL    HW288652   3.009   3.259  10.330
28919SOL     OW88653   4.220   2.355  13.924
28919SOL    HW188654   4.294   2.361  13.863
28919SOL    HW288655   4.259   2.327  14.007
28920SOL     OW88656   9.660  13.966   2.867
28920SOL    HW188657   9.576  13.991   2.827
28920SOL    HW288658   9.642  13.882   2.910
28921SOL     OW88659   2.616   2.049   8.832
28921SOL    HW188660   2.666   2.010   8.760
28921SOL    HW288661   2.679   2.106   8.876
28922SOL     OW88662   5.894   8.012   4.209
28922SOL    HW188663   5.867   8.055   4.290
28922SOL    HW288664   5.966   8.066   4.177
28923SOL     OW88665  14.303   4.027   4.962
28923SOL    HW188666  14.309   3.981   4.878
28923SOL    HW288667  14.395   4.043   4.987
28924SOL     OW88668   9.675   2.010  10.657
28924SOL    HW188669   9.652   2.008  10.564
28924SOL    HW288670   9.717   2.096  10.669
28925SOL     OW88671   8.601  14.429   6.608
28925SOL    HW188672   8.520  14.396   6.571
28925SOL    HW288673   8.588  14.524   6.614
28926SOL     OW88674   8.079   1.228  11.409
28926SOL    HW188675   8.142   1.208  11.340
28926SOL    HW288676   8.113   1.183  11.486
28927SOL     OW88677  13.122   6.362  10.371
28927SOL    HW188678  13.084   6.284  10.413
28927SOL    HW288679  13.063   6.433  10.396
28928SOL     OW88680   4.389  12.273  14.461
28928SOL    HW188681   4.452  12.298  14.393
28928SOL    HW288682   4.340  12.353  14.480
28929SOL     OW88683   1.226   7.559   5.378
28929SOL    HW188684   1.198   7.631   5.321
28929SOL    HW288685   1.275   7.602   5.448
28930SOL     OW88686   2.240   7.198  11.506
28930SOL    HW188687   2.307   7.217  11.440
28930SOL    HW288688   2.232   7.103  11.506
28931SOL     OW88689  10.868   1.163   3.005
28931SOL    HW188690  10.921   1.222   2.952
28931SOL    HW288691  10.880   1.077   2.965
28932SOL     OW88692   0.445   4.166   0.099
28932SOL    HW188693   0.462   4.257   0.123
28932SOL    HW288694   0.357   4.167   0.062
28933SOL     OW88695  10.982   6.315  13.548
28933SOL    HW188696  10.887   6.301  13.545
28933SOL    HW288697  11.009   6.316  13.456
28934SOL     OW88698   3.857  13.930   2.341
28934SOL    HW188699   3.911  13.987   2.394
28934SOL    HW288700   3.781  13.983   2.318
28935SOL     OW88701  13.689  12.960   2.196
28935SOL    HW188702  13.669  13.038   2.144
28935SOL    HW288703  13.778  12.975   2.229
28936SOL     OW88704   5.964   4.445   1.533
28936SOL    HW188705   5.892   4.503   1.558
28936SOL    HW288706   5.925   4.358   1.532
28937SOL     OW88707  13.091  12.053  10.215
28937SOL    HW188708  13.002  12.080  10.193
28937SOL    HW288709  13.081  11.965  10.251
28938SOL     OW88710   6.426  12.402  10.256
28938SOL    HW188711   6.410  12.465  10.186
28938SOL    HW288712   6.508  12.431  10.296
28939SOL     OW88713  12.830   1.386   4.860
28939SOL    HW188714  12.812   1.337   4.941
28939SOL    HW288715  12.925   1.378   4.848
28940SOL     OW88716   3.935  10.103  11.951
28940SOL    HW188717   3.929  10.008  11.938
28940SOL    HW288718   3.998  10.113  12.022
28941SOL     OW88719   5.101   2.632   2.063
28941SOL    HW188720   5.070   2.669   1.981
28941SOL    HW288721   5.038   2.663   2.129
28942SOL     OW88722   1.874  13.274   3.144
28942SOL    HW188723   1.908  13.197   3.098
28942SOL    HW288724   1.780  13.272   3.127
28943SOL     OW88725  14.633  10.782   8.859
28943SOL    HW188726  14.607  10.837   8.933
28943SOL    HW288727  14.551  10.754   8.820
28944SOL     OW88728   5.933   4.665   9.738
28944SOL    HW188729   5.947   4.601   9.809
28944SOL    HW288730   5.987   4.632   9.666
28945SOL     OW88731   6.812  13.810  11.692
28945SOL    HW188732   6.840  13.728  11.732
28945SOL    HW288733   6.719  13.797  11.674
28946SOL     OW88734   1.791   9.869   9.461
28946SOL    HW188735   1.850   9.868   9.537
28946SOL    HW288736   1.847   9.842   9.388
28947SOL     OW88737  10.881   7.177  12.315
28947SOL    HW188738  10.960   7.128  12.297
28947SOL    HW288739  10.912   7.262  12.346
28948SOL     OW88740   3.298   3.970  13.877
28948SOL    HW188741   3.332   3.919  13.950
28948SOL    HW288742   3.366   4.034  13.858
28949SOL     OW88743   5.126  14.197  10.532
28949SOL    HW188744   5.164  14.150  10.458
28949SOL    HW288745   5.058  14.252  10.492
28950SOL     OW88746   8.437  10.123   8.582
28950SOL    HW188747   8.510  10.184   8.572
28950SOL    HW288748   8.456  10.075   8.662
28951SOL     OW88749   7.628   1.757   5.337
28951SOL    HW188750   7.667   1.721   5.257
28951SOL    HW288751   7.650   1.692   5.405
28952SOL     OW88752  13.526   7.642   6.128
28952SOL    HW188753  13.474   7.706   6.176
28952SOL    HW288754  13.474   7.562   6.128
28953SOL     OW88755   3.120   1.271   4.816
28953SOL    HW188756   3.086   1.351   4.776
28953SOL    HW288757   3.214   1.287   4.826
28954SOL     OW88758   7.737   0.015   4.885
28954SOL    HW188759   7.821   0.057   4.903
28954SOL    HW288760   7.744  14.855   4.794
28955SOL     OW88761   7.569  11.996   5.704
28955SOL    HW188762   7.506  11.938   5.662
28955SOL    HW288763   7.655  11.957   5.685
28956SOL     OW88764   6.334   3.019  14.035
28956SOL    HW188765   6.282   2.997  14.112
28956SOL    HW288766   6.301   3.105  14.008
28957SOL     OW88767  10.567   7.966   4.976
28957SOL    HW188768  10.496   7.914   5.012
28957SOL    HW288769  10.535   7.996   4.891
28958SOL     OW88770   3.592   2.530  14.112
28958SOL    HW188771   3.624   2.577  14.035
28958SOL    HW288772   3.580   2.440  14.081
28959SOL     OW88773  13.800  11.364   6.909
28959SOL    HW188774  13.887  11.370   6.949
28959SOL    HW288775  13.780  11.270   6.911
28960SOL     OW88776  12.882  12.403  10.398
28960SOL    HW188777  12.960  12.385  10.345
28960SOL    HW288778  12.812  12.352  10.357
28961SOL     OW88779  11.483   8.885   5.681
28961SOL    HW188780  11.517   8.876   5.770
28961SOL    HW288781  11.394   8.919   5.692
28962SOL     OW88782  11.645   0.106   0.503
28962SOL    HW188783  11.656   0.026   0.554
28962SOL    HW288784  11.582   0.083   0.435
28963SOL     OW88785  13.672   2.950   3.929
28963SOL    HW188786  13.659   2.872   3.875
28963SOL    HW288787  13.627   3.020   3.881
28964SOL     OW88788   9.706   6.101  14.608
28964SOL    HW188789   9.728   6.015  14.643
28964SOL    HW288790   9.743   6.101  14.520
28965SOL     OW88791  13.474   0.199   5.564
28965SOL    HW188792  13.514   0.260   5.502
28965SOL    HW288793  13.459   0.251   5.643
28966SOL     OW88794   9.541  10.876   9.634
28966SOL    HW188795   9.572  10.927   9.559
28966SOL    HW288796   9.449  10.901   9.644
28967SOL     OW88797   5.385   4.443   3.693
28967SOL    HW188798   5.435   4.379   3.643
28967SOL    HW288799   5.321   4.478   3.631
28968SOL     OW88800  13.602   0.129   0.456
28968SOL    HW188801  13.610   0.061   0.389
28968SOL    HW288802  13.534   0.187   0.422
28969SOL     OW88803   4.894   7.851  10.485
28969SOL    HW188804   4.951   7.804  10.547
28969SOL    HW288805   4.805   7.824  10.509
28970SOL     OW88806  12.278   7.619   6.469
28970SOL    HW188807  12.344   7.676   6.507
28970SOL    HW288808  12.319   7.584   6.389
28971SOL     OW88809  10.933   9.341   6.124
28971SOL    HW188810  10.903   9.385   6.204
28971SOL    HW288811  10.896   9.252   6.131
28972SOL     OW88812   1.955  11.402   1.964
28972SOL    HW188813   1.864  11.413   1.937
28972SOL    HW288814   1.989  11.331   1.908
28973SOL     OW88815  10.823   3.381   8.271
28973SOL    HW188816  10.896   3.389   8.333
28973SOL    HW288817  10.747   3.363   8.326
28974SOL     OW88818   1.115   1.145  10.956
28974SOL    HW188819   1.172   1.078  10.992
28974SOL    HW288820   1.114   1.128  10.862
28975SOL     OW88821   3.479   7.149   5.270
28975SOL    HW188822   3.555   7.205   5.282
28975SOL    HW288823   3.490   7.078   5.334
28976SOL     OW88824  10.812  14.559  10.398
28976SOL    HW188825  10.891  14.581  10.449
28976SOL    HW288826  10.830  14.593  10.310
28977SOL     OW88827   7.085  11.492   3.219
28977SOL    HW188828   7.097  11.486   3.124
28977SOL    HW288829   7.023  11.564   3.231
28978SOL     OW88830   7.467   4.237   8.601
28978SOL    HW188831   7.531   4.215   8.668
28978SOL    HW288832   7.513   4.300   8.545
28979SOL     OW88833   9.342   8.639   1.976
28979SOL    HW188834   9.433   8.666   1.965
28979SOL    HW288835   9.345   8.566   2.037
28980SOL     OW88836   1.050   1.103   1.165
28980SOL    HW188837   1.019   1.125   1.253
28980SOL    HW288838   1.078   1.187   1.128
28981SOL     OW88839   7.424   9.758   2.233
28981SOL    HW188840   7.454   9.798   2.314
28981SOL    HW288841   7.419   9.665   2.253
28982SOL     OW88842   3.381   6.452   0.387
28982SOL    HW188843   3.392   6.542   0.416
28982SOL    HW288844   3.301   6.422   0.431
28983SOL     OW88845  10.514   4.818   8.636
28983SOL    HW188846  10.519   4.831   8.731
28983SOL    HW288847  10.575   4.882   8.600
28984SOL     OW88848  14.386  13.992   9.474
28984SOL    HW188849  14.354  13.916   9.523
28984SOL    HW288850  14.357  14.067   9.526
28985SOL     OW88851   7.124   7.443   4.247
28985SOL    HW188852   7.045   7.392   4.261
28985SOL    HW288853   7.118   7.515   4.310
28986SOL     OW88854  11.191   6.118   5.216
28986SOL    HW188855  11.225   6.037   5.254
28986SOL    HW288856  11.232   6.123   5.130
28987SOL     OW88857  11.870   1.752  13.718
28987SOL    HW188858  11.849   1.685  13.653
28987SOL    HW288859  11.811   1.733  13.791
28988SOL     OW88860   7.664  14.356   2.771
28988SOL    HW188861   7.597  14.341   2.838
28988SOL    HW288862   7.743  14.315   2.805
28989SOL     OW88863   0.175   8.026   2.858
28989SOL    HW188864   0.122   8.017   2.937
28989SOL    HW288865   0.132   8.096   2.808
28990SOL     OW88866  10.688   0.578   7.772
28990SOL    HW188867  10.696   0.627   7.853
28990SOL    HW288868  10.635   0.633   7.715
28991SOL     OW88869   9.990  10.611  11.882
28991SOL    HW188870   9.962  10.539  11.824
28991SOL    HW288871  10.072  10.580  11.920
28992SOL     OW88872   4.833   0.709   9.323
28992SOL    HW188873   4.870   0.624   9.298
28992SOL    HW288874   4.745   0.709   9.287
28993SOL     OW88875   1.113   8.542  13.535
28993SOL    HW188876   1.076   8.454  13.535
28993SOL    HW288877   1.120   8.565  13.628
28994SOL     OW88878  10.530   4.012   1.146
28994SOL    HW188879  10.602   4.033   1.206
28994SOL    HW288880  10.510   3.920   1.164
28995SOL     OW88881   7.516   3.352   8.928
28995SOL    HW188882   7.461   3.278   8.902
28995SOL    HW288883   7.550   3.328   9.014
28996SOL     OW88884   6.175  12.990   0.278
28996SOL    HW188885   6.094  12.998   0.227
28996SOL    HW288886   6.153  13.025   0.364
28997SOL     OW88887   3.105   4.117  11.430
28997SOL    HW188888   3.021   4.091  11.467
28997SOL    HW288889   3.089   4.123  11.336
28998SOL     OW88890   0.878  11.798   8.191
28998SOL    HW188891   0.870  11.795   8.096
28998SOL    HW288892   0.797  11.758   8.224
28999SOL     OW88893   8.510   8.117  10.541
28999SOL    HW188894   8.462   8.192  10.575
28999SOL    HW288895   8.492   8.047  10.604
29000SOL     OW88896  11.156   0.807   0.420
29000SOL    HW188897  11.137   0.716   0.398
29000SOL    HW288898  11.101   0.825   0.496
29001SOL     OW88899  13.269  10.105  11.685
29001SOL    HW188900  13.226  10.166  11.745
29001SOL    HW288901  13.203  10.088  11.617
29002SOL     OW88902   1.260  11.557   4.603
29002SOL    HW188903   1.274  11.652   4.595
29002SOL    HW288904   1.237  11.529   4.514
29003SOL     OW88905   4.388  10.903   4.500
29003SOL    HW188906   4.296  10.879   4.504
29003SOL    HW288907   4.388  10.999   4.499
29004SOL     OW88908   6.188   0.463   4.740
29004SOL    HW188909   6.284   0.473   4.743
29004SOL    HW288910   6.174   0.381   4.694
29005SOL     OW88911   8.772  13.635  13.437
29005SOL    HW188912   8.836  13.593  13.379
29005SOL    HW288913   8.773  13.581  13.516
29006SOL     OW88914   5.032   3.646   6.631
29006SOL    HW188915   5.116   3.668   6.671
29006SOL    HW288916   4.968   3.697   6.680
29007SOL     OW88917  12.208  13.202  13.163
29007SOL    HW188918  12.171  13.206  13.075
29007SOL    HW288919  12.133  13.184  13.220
29008SOL     OW88920   7.726   4.191  13.700
29008SOL    HW188921   7.762   4.108  13.668
29008SOL    HW288922   7.636   4.192  13.666
29009SOL     OW88923   8.151  13.698   1.798
29009SOL    HW188924   8.124  13.768   1.858
29009SOL    HW288925   8.244  13.686   1.814
29010SOL     OW88926  12.819  14.541   2.270
29010SOL    HW188927  12.874  14.533   2.348
29010SOL    HW288928  12.839  14.463   2.219
29011SOL     OW88929  11.112  13.319   2.385
29011SOL    HW188930  11.116  13.276   2.299
29011SOL    HW288931  11.025  13.295   2.419
29012SOL     OW88932   7.769   3.029   4.388
29012SOL    HW188933   7.838   2.997   4.446
29012SOL    HW288934   7.789   3.122   4.377
29013SOL     OW88935   2.535   8.866   5.163
29013SOL    HW188936   2.441   8.860   5.181
29013SOL    HW288937   2.563   8.775   5.152
29014SOL     OW88938  10.909  10.968  10.021
29014SOL    HW188939  10.842  10.953   9.953
29014SOL    HW288940  10.890  11.056  10.054
29015SOL     OW88941   4.193   1.818   4.595
29015SOL    HW188942   4.250   1.802   4.521
29015SOL    HW288943   4.113   1.768   4.576
29016SOL     OW88944   9.695   9.450   0.045
29016SOL    HW188945   9.612   9.404   0.034
29016SOL    HW288946   9.703   9.504  14.835
29017SOL     OW88947  11.932  10.754  10.731
29017SOL    HW188948  11.958  10.697  10.803
29017SOL    HW288949  12.008  10.756  10.672
29018SOL     OW88950  14.271  10.983   7.227
29018SOL    HW188951  14.219  11.019   7.299
29018SOL    HW288952  14.330  10.920   7.268
29019SOL     OW88953  13.487   6.042  10.669
29019SOL    HW188954  13.515   6.133  10.662
29019SOL    HW288955  13.423   6.041  10.740
29020SOL     OW88956  10.087   9.252   6.234
29020SOL    HW188957  10.120   9.167   6.265
29020SOL    HW288958  10.063   9.298   6.314
29021SOL     OW88959  12.128  14.520  13.050
29021SOL    HW188960  12.109  14.611  13.025
29021SOL    HW288961  12.171  14.526  13.135
29022SOL     OW88962   1.327  11.766  11.147
29022SOL    HW188963   1.236  11.741  11.163
29022SOL    HW288964   1.364  11.693  11.097
29023SOL     OW88965  12.612   1.893  14.318
29023SOL    HW188966  12.690   1.838  14.308
29023SOL    HW288967  12.616   1.955  14.245
29024SOL     OW88968   8.508   8.176   6.260
29024SOL    HW188969   8.525   8.082   6.252
29024SOL    HW288970   8.427   8.191   6.211
29025SOL     OW88971   6.063   3.272   6.436
29025SOL    HW188972   6.061   3.293   6.342
29025SOL    HW288973   5.983   3.221   6.450
29026SOL     OW88974   0.723  10.626  12.268
29026SOL    HW188975   0.631  10.647  12.254
29026SOL    HW288976   0.727  10.530  12.264
29027SOL     OW88977   5.728   0.328  10.782
29027SOL    HW188978   5.646   0.340  10.830
29027SOL    HW288979   5.796   0.363  10.840
29028SOL     OW88980   1.636  13.060  10.509
29028SOL    HW188981   1.665  13.126  10.571
29028SOL    HW288982   1.541  13.069  10.506
29029SOL     OW88983   1.343   7.142  11.679
29029SOL    HW188984   1.410   7.177  11.737
29029SOL    HW288985   1.320   7.057  11.716
29030SOL     OW88986  14.763  11.533  14.645
29030SOL    HW188987  14.832  11.515  14.709
29030SOL    HW288988  14.750  11.450  14.599
29031SOL     OW88989   7.311   7.239  11.849
29031SOL    HW188990   7.389   7.293  11.857
29031SOL    HW288991   7.296   7.232  11.754
29032SOL     OW88992   2.015   4.006   9.802
29032SOL    HW188993   1.999   4.097   9.829
29032SOL    HW288994   2.100   3.984   9.841
29033SOL     OW88995  11.807   1.925   9.191
29033SOL    HW188996  11.807   1.932   9.095
29033SOL    HW288997  11.886   1.971   9.218
29034SOL     OW88998  11.036   9.381   8.176
29034SOL    HW188999  11.020   9.289   8.155
29034SOL    HW289000  11.068   9.419   8.095
29035SOL     OW89001   0.375  13.315  10.497
29035SOL    HW189002   0.335  13.400  10.515
29035SOL    HW289003   0.332  13.284  10.418
29036SOL     OW89004  13.450   9.444  14.657
29036SOL    HW189005  13.484   9.361  14.690
29036SOL    HW289006  13.502   9.511  14.700
29037SOL     OW89007  11.886  12.244  13.923
29037SOL    HW189008  11.882  12.216  14.014
29037SOL    HW289009  11.822  12.188  13.878
29038SOL     OW89010  11.487   9.488  11.977
29038SOL    HW189011  11.511   9.493  11.884
29038SOL    HW289012  11.452   9.400  11.988
29039SOL     OW89013  11.641   5.244   4.790
29039SOL    HW189014  11.592   5.234   4.708
29039SOL    HW289015  11.609   5.327   4.827
29040SOL     OW89016  11.928   9.818   5.039
29040SOL    HW189017  11.942   9.813   4.944
29040SOL    HW289018  11.949   9.730   5.070
29041SOL     OW89019   5.337  10.998  14.763
29041SOL    HW189020   5.400  11.015  14.693
29041SOL    HW289021   5.304  10.910  14.744
29042SOL     OW89022  10.124   4.343   7.230
29042SOL    HW189023  10.113   4.248   7.233
29042SOL    HW289024  10.183   4.363   7.302
29043SOL     OW89025  13.661   4.840  10.177
29043SOL    HW189026  13.591   4.836  10.112
29043SOL    HW289027  13.741   4.829  10.126
29044SOL     OW89028   8.054  10.752   3.592
29044SOL    HW189029   7.973  10.736   3.545
29044SOL    HW289030   8.118  10.772   3.524
29045SOL     OW89031   6.108  13.621  10.696
29045SOL    HW189032   6.184  13.579  10.657
29045SOL    HW289033   6.053  13.549  10.727
29046SOL     OW89034   8.619   4.106   3.793
29046SOL    HW189035   8.707   4.114   3.755
29046SOL    HW289036   8.582   4.194   3.784
29047SOL     OW89037   0.719  11.048   3.823
29047SOL    HW189038   0.673  11.108   3.765
29047SOL    HW289039   0.808  11.044   3.788
29048SOL     OW89040   6.438   1.864   2.317
29048SOL    HW189041   6.528   1.864   2.351
29048SOL    HW289042   6.401   1.781   2.348
29049SOL     OW89043  11.665  13.898  13.927
29049SOL    HW189044  11.747  13.899  13.878
29049SOL    HW289045  11.661  13.984  13.969
29050SOL     OW89046   7.801   3.903  11.998
29050SOL    HW189047   7.811   3.848  12.076
29050SOL    HW289048   7.721   3.870  11.956
29051SOL     OW89049  13.416   7.960  10.113
29051SOL    HW189050  13.493   7.987  10.063
29051SOL    HW289051  13.434   7.870  10.140
29052SOL     OW89052  10.801  10.919   7.232
29052SOL    HW189053  10.788  10.963   7.316
29052SOL    HW289054  10.854  10.980   7.181
29053SOL     OW89055   7.487   1.956   2.012
29053SOL    HW189056   7.547   1.899   2.060
29053SOL    HW289057   7.543   2.024   1.975
29054SOL     OW89058   7.333   0.155  10.854
29054SOL    HW189059   7.377   0.189  10.776
29054SOL    HW289060   7.387   0.184  10.927
29055SOL     OW89061  11.072   7.406   2.585
29055SOL    HW189062  11.020   7.424   2.507
29055SOL    HW289063  11.013   7.425   2.658
29056SOL     OW89064   9.620   0.632   9.326
29056SOL    HW189065   9.577   0.693   9.386
29056SOL    HW289066   9.585   0.656   9.240
29057SOL     OW89067   3.373   7.164  10.448
29057SOL    HW189068   3.433   7.181  10.520
29057SOL    HW289069   3.352   7.250  10.413
29058SOL     OW89070   2.186   2.157   8.485
29058SOL    HW189071   2.101   2.125   8.454
29058SOL    HW289072   2.223   2.202   8.409
29059SOL     OW89073  14.435  14.462  13.266
29059SOL    HW189074  14.348  14.464  13.307
29059SOL    HW289075  14.493  14.427  13.333
29060SOL     OW89076   3.498   9.130  12.590
29060SOL    HW189077   3.523   9.038  12.602
29060SOL    HW289078   3.566   9.166  12.533
29061SOL     OW89079   5.927  12.513   6.450
29061SOL    HW189080   5.904  12.488   6.360
29061SOL    HW289081   5.852  12.563   6.481
29062SOL     OW89082   1.986  12.069   5.113
29062SOL    HW189083   2.066  12.121   5.122
29062SOL    HW289084   1.916  12.133   5.110
29063SOL     OW89085   2.505   9.712  12.706
29063SOL    HW189086   2.412   9.728  12.726
29063SOL    HW289087   2.529   9.637  12.760
29064SOL     OW89088  10.130   1.570   7.817
29064SOL    HW189089  10.203   1.620   7.780
29064SOL    HW289090  10.056   1.591   7.760
29065SOL     OW89091  12.089  12.920  14.094
29065SOL    HW189092  11.998  12.890  14.094
29065SOL    HW289093  12.082  13.015  14.109
29066SOL     OW89094   3.654   7.990  14.439
29066SOL    HW189095   3.578   7.935  14.421
29066SOL    HW289096   3.678   8.026  14.354
29067SOL     OW89097  14.138   3.139   4.531
29067SOL    HW189098  14.081   3.089   4.474
29067SOL    HW289099  14.133   3.095   4.616
29068SOL     OW89100   6.097  10.757   5.180
29068SOL    HW189101   6.155  10.753   5.104
29068SOL    HW289102   6.012  10.781   5.143
29069SOL     OW89103  11.757   3.904  11.717
29069SOL    HW189104  11.817   3.833  11.694
29069SOL    HW289105  11.672   3.875  11.684
29070SOL     OW89106  13.782   4.744   2.147
29070SOL    HW189107  13.821   4.813   2.093
29070SOL    HW289108  13.853   4.716   2.205
29071SOL     OW89109   7.341  10.439   2.464
29071SOL    HW189110   7.383  10.399   2.540
29071SOL    HW289111   7.254  10.463   2.494
29072SOL     OW89112   7.280   3.204   2.112
29072SOL    HW189113   7.338   3.230   2.040
29072SOL    HW289114   7.340   3.182   2.184
29073SOL     OW89115  13.726   2.583   6.488
29073SOL    HW189116  13.669   2.545   6.555
29073SOL    HW289117  13.814   2.558   6.516
29074SOL     OW89118   6.208   4.769   4.009
29074SOL    HW189119   6.178   4.820   3.933
29074SOL    HW289120   6.133   4.769   4.068
29075SOL     OW89121   4.658  14.265   4.492
29075SOL    HW189122   4.597  14.193   4.477
29075SOL    HW289123   4.638  14.296   4.580
29076SOL     OW89124  11.990   6.403  14.313
29076SOL    HW189125  11.929   6.387  14.241
29076SOL    HW289126  12.043   6.323  14.318
29077SOL     OW89127   3.406  10.536   5.256
29077SOL    HW189128   3.495  10.548   5.223
29077SOL    HW289129   3.384  10.445   5.233
29078SOL     OW89130   7.950  14.244   2.659
29078SOL    HW189131   8.030  14.297   2.657
29078SOL    HW289132   7.926  14.240   2.751
29079SOL     OW89133  13.839   5.936  12.609
29079SOL    HW189134  13.877   5.850  12.624
29079SOL    HW289135  13.759   5.937  12.662
29080SOL     OW89136  13.373   0.071   6.874
29080SOL    HW189137  13.430   0.073   6.797
29080SOL    HW289138  13.291   0.110   6.844
29081SOL     OW89139   9.334   9.473  12.029
29081SOL    HW189140   9.372   9.452  12.114
29081SOL    HW289141   9.396   9.437  11.966
29082SOL     OW89142  10.049   8.127  10.526
29082SOL    HW189143  10.108   8.086  10.462
29082SOL    HW289144   9.994   8.186  10.473
29083SOL     OW89145   6.281   3.433   3.326
29083SOL    HW189146   6.332   3.508   3.295
29083SOL    HW289147   6.263   3.382   3.247
29084SOL     OW89148   3.344   1.479   6.712
29084SOL    HW189149   3.338   1.443   6.623
29084SOL    HW289150   3.381   1.408   6.764
29085SOL     OW89151  13.334   1.799   3.079
29085SOL    HW189152  13.365   1.725   3.027
29085SOL    HW289153  13.390   1.797   3.157
29086SOL     OW89154   1.813   2.818   1.699
29086SOL    HW189155   1.897   2.861   1.680
29086SOL    HW289156   1.777   2.869   1.772
29087SOL     OW89157   4.118   8.266  13.790
29087SOL    HW189158   4.190   8.203  13.798
29087SOL    HW289159   4.039   8.214  13.796
29088SOL     OW89160   1.279  11.560  14.864
29088SOL    HW189161   1.214  11.503  14.823
29088SOL    HW289162   1.252  11.565   0.086
29089SOL     OW89163   9.534   7.272  11.665
29089SOL    HW189164   9.461   7.287  11.725
29089SOL    HW289165   9.562   7.360  11.639
29090SOL     OW89166   5.237   0.849   2.259
29090SOL    HW189167   5.204   0.816   2.343
29090SOL    HW289168   5.245   0.771   2.205
29091SOL     OW89169   9.883  12.998  13.700
29091SOL    HW189170   9.945  13.051  13.750
29091SOL    HW289171   9.861  12.926  13.759
29092SOL     OW89172   6.017   4.001   4.247
29092SOL    HW189173   6.064   3.959   4.320
29092SOL    HW289174   5.927   4.009   4.278
29093SOL     OW89175   0.066  12.593  13.980
29093SOL    HW189176   0.142  12.575  13.924
29093SOL    HW289177   0.068  12.523  14.045
29094SOL     OW89178  13.493   9.184   9.201
29094SOL    HW189179  13.573   9.156   9.246
29094SOL    HW289180  13.469   9.266   9.244
29095SOL     OW89181   1.984   7.222  10.912
29095SOL    HW189182   2.070   7.254  10.940
29095SOL    HW289183   2.005   7.145  10.859
29096SOL     OW89184  13.176   6.710   5.752
29096SOL    HW189185  13.267   6.702   5.721
29096SOL    HW289186  13.126   6.655   5.692
29097SOL     OW89187  13.279   4.301   3.953
29097SOL    HW189188  13.258   4.394   3.941
29097SOL    HW289189  13.365   4.301   3.994
29098SOL     OW89190   3.338  14.367  10.789
29098SOL    HW189191   3.335  14.433  10.720
29098SOL    HW289192   3.270  14.305  10.766
29099SOL     OW89193  10.049   8.934   7.350
29099SOL    HW189194  10.131   8.968   7.385
29099SOL    HW289195  10.020   8.869   7.414
29100SOL     OW89196   3.714  10.552   0.797
29100SOL    HW189197   3.656  10.586   0.866
29100SOL    HW289198   3.764  10.628   0.767
29101SOL     OW89199  10.364  11.690   9.836
29101SOL    HW189200  10.445  11.740   9.844
29101SOL    HW289201  10.308  11.726   9.904
29102SOL     OW89202   2.300   5.887   9.526
29102SOL    HW189203   2.395   5.904   9.526
29102SOL    HW289204   2.293   5.795   9.552
29103SOL     OW89205  12.410  12.030   5.284
29103SOL    HW189206  12.408  11.934   5.289
29103SOL    HW289207  12.319  12.055   5.266
29104SOL     OW89208  13.960  12.617   6.587
29104SOL    HW189209  13.879  12.667   6.592
29104SOL    HW289210  14.021  12.664   6.643
29105SOL     OW89211  11.401   8.990   3.888
29105SOL    HW189212  11.384   9.063   3.829
29105SOL    HW289213  11.355   9.013   3.969
29106SOL     OW89214   2.811  11.349   2.879
29106SOL    HW189215   2.755  11.277   2.847
29106SOL    HW289216   2.896  11.331   2.839
29107SOL     OW89217   0.608   6.292   5.623
29107SOL    HW189218   0.665   6.321   5.694
29107SOL    HW289219   0.549   6.365   5.607
29108SOL     OW89220   5.606   4.715  12.348
29108SOL    HW189221   5.536   4.765  12.389
29108SOL    HW289222   5.616   4.637  12.404
29109SOL     OW89223   2.453   6.270  14.627
29109SOL    HW189224   2.370   6.223  14.636
29109SOL    HW289225   2.499   6.223  14.557
29110SOL     OW89226   2.948   6.327   2.833
29110SOL    HW189227   2.936   6.293   2.922
29110SOL    HW289228   2.931   6.252   2.777
29111SOL     OW89229   6.729   3.717   3.419
29111SOL    HW189230   6.722   3.725   3.514
29111SOL    HW289231   6.763   3.802   3.391
29112SOL     OW89232   4.076   8.385   4.356
29112SOL    HW189233   4.018   8.311   4.339
29112SOL    HW289234   4.101   8.416   4.269
29113SOL     OW89235  14.380   5.861   4.136
29113SOL    HW189236  14.325   5.868   4.058
29113SOL    HW289237  14.467   5.886   4.107
29114SOL     OW89238  13.804   3.224   4.443
29114SOL    HW189239  13.871   3.261   4.501
29114SOL    HW289240  13.743   3.296   4.429
29115SOL     OW89241   9.382   6.839   7.314
29115SOL    HW189242   9.395   6.790   7.233
29115SOL    HW289243   9.470   6.857   7.346
29116SOL     OW89244   4.821   2.747  12.163
29116SOL    HW189245   4.864   2.742  12.078
29116SOL    HW289246   4.819   2.841  12.183
29117SOL     OW89247   6.219   4.708   2.628
29117SOL    HW189248   6.256   4.648   2.563
29117SOL    HW289249   6.132   4.728   2.594
29118SOL     OW89250   9.980  10.112  10.201
29118SOL    HW189251   9.902  10.096  10.147
29118SOL    HW289252  10.018  10.026  10.214
29119SOL     OW89253   2.206   4.665  10.811
29119SOL    HW189254   2.152   4.743  10.798
29119SOL    HW289255   2.239   4.674  10.901
29120SOL     OW89256  14.849   7.794   2.227
29120SOL    HW189257  14.862   7.860   2.160
29120SOL    HW289258  14.780   7.829   2.283
29121SOL     OW89259  14.440   4.910   0.283
29121SOL    HW189260  14.360   4.914   0.334
29121SOL    HW289261  14.416   4.945   0.197
29122SOL     OW89262   5.776   1.199   0.588
29122SOL    HW189263   5.863   1.240   0.582
29122SOL    HW289264   5.786   1.132   0.655
29123SOL     OW89265   5.550   3.575   1.058
29123SOL    HW189266   5.542   3.641   0.988
29123SOL    HW289267   5.643   3.575   1.079
29124SOL     OW89268  14.070   5.803   9.938
29124SOL    HW189269  14.012   5.821   9.863
29124SOL    HW289270  14.045   5.716   9.967
29125SOL     OW89271  12.576   0.191  12.582
29125SOL    HW189272  12.574   0.262  12.518
29125SOL    HW289273  12.626   0.122  12.539
29126SOL     OW89274  13.452   8.230   5.858
29126SOL    HW189275  13.483   8.187   5.938
29126SOL    HW289276  13.529   8.233   5.801
29127SOL     OW89277  14.482   1.167   5.626
29127SOL    HW189278  14.463   1.151   5.534
29127SOL    HW289279  14.557   1.227   5.625
29128SOL     OW89280   6.023  14.423  13.742
29128SOL    HW189281   5.933  14.392  13.749
29128SOL    HW289282   6.016  14.506  13.694
29129SOL     OW89283   1.286   9.985  13.433
29129SOL    HW189284   1.373   9.969  13.395
29129SOL    HW289285   1.240  10.036  13.366
29130SOL     OW89286  14.201   1.883   8.094
29130SOL    HW189287  14.215   1.923   8.008
29130SOL    HW289288  14.221   1.790   8.080
29131SOL     OW89289   7.451   4.361   4.293
29131SOL    HW189290   7.366   4.360   4.248
29131SOL    HW289291   7.451   4.283   4.347
29132SOL     OW89292  14.283   2.896   8.707
29132SOL    HW189293  14.304   2.811   8.667
29132SOL    HW289294  14.353   2.909   8.772
29133SOL     OW89295   7.380   7.992   0.475
29133SOL    HW189296   7.396   7.912   0.425
29133SOL    HW289297   7.464   8.013   0.515
29134SOL     OW89298  12.319   0.925  11.345
29134SOL    HW189299  12.384   0.968  11.400
29134SOL    HW289300  12.342   0.951  11.255
29135SOL     OW89301   4.778   8.361  13.955
29135SOL    HW189302   4.793   8.318  13.871
29135SOL    HW289303   4.772   8.454  13.934
29136SOL     OW89304   9.458   1.288  10.080
29136SOL    HW189305   9.491   1.202  10.104
29136SOL    HW289306   9.487   1.346  10.150
29137SOL     OW89307  10.488  11.408  10.105
29137SOL    HW189308  10.521  11.483  10.055
29137SOL    HW289309  10.399  11.434  10.131
29138SOL     OW89310  11.969  13.606   2.556
29138SOL    HW189311  12.030  13.662   2.604
29138SOL    HW289312  12.024  13.558   2.494
29139SOL     OW89313   6.741   7.292  12.783
29139SOL    HW189314   6.752   7.229  12.854
29139SOL    HW289315   6.714   7.239  12.708
29140SOL     OW89316   1.238   4.339   2.302
29140SOL    HW189317   1.172   4.319   2.368
29140SOL    HW289318   1.213   4.424   2.267
29141SOL     OW89319   8.967   7.497   3.197
29141SOL    HW189320   8.924   7.582   3.195
29141SOL    HW289321   9.058   7.515   3.220
29142SOL     OW89322  13.071  11.484   6.665
29142SOL    HW189323  13.006  11.428   6.622
29142SOL    HW289324  13.053  11.572   6.631
29143SOL     OW89325   5.703  10.931   6.248
29143SOL    HW189326   5.649  10.941   6.327
29143SOL    HW289327   5.696  10.839   6.225
29144SOL     OW89328  10.832   3.423  12.371
29144SOL    HW189329  10.803   3.494  12.313
29144SOL    HW289330  10.794   3.445  12.456
29145SOL     OW89331   5.303  11.359   8.045
29145SOL    HW189332   5.397  11.345   8.060
29145SOL    HW289333   5.278  11.289   7.985
29146SOL     OW89334  12.049   3.124   2.469
29146SOL    HW189335  11.953   3.130   2.471
29146SOL    HW289336  12.067   3.032   2.451
29147SOL     OW89337   4.360  11.320   4.259
29147SOL    HW189338   4.370  11.415   4.252
29147SOL    HW289339   4.299  11.297   4.189
29148SOL     OW89340   3.484   3.623   0.340
29148SOL    HW189341   3.578   3.640   0.346
29148SOL    HW289342   3.476   3.528   0.346
29149SOL     OW89343  13.592   9.111   2.875
29149SOL    HW189344  13.681   9.075   2.872
29149SOL    HW289345  13.580   9.137   2.966
29150SOL     OW89346   6.579   6.635   3.710
29150SOL    HW189347   6.636   6.565   3.741
29150SOL    HW289348   6.491   6.598   3.714
29151SOL     OW89349  11.442  10.656   8.752
29151SOL    HW189350  11.488  10.581   8.791
29151SOL    HW289351  11.356  10.655   8.792
29152SOL     OW89352   7.824   6.503   2.714
29152SOL    HW189353   7.908   6.528   2.752
29152SOL    HW289354   7.767   6.577   2.732
29153SOL     OW89355  13.469  14.471   9.021
29153SOL    HW189356  13.411  14.513   8.958
29153SOL    HW289357  13.422  14.476   9.104
29154SOL     OW89358  10.711   1.686   2.045
29154SOL    HW189359  10.629   1.724   2.078
29154SOL    HW289360  10.778   1.752   2.065
29155SOL     OW89361  10.687   2.684   8.309
29155SOL    HW189362  10.723   2.741   8.377
29155SOL    HW289363  10.697   2.596   8.344
29156SOL     OW89364   7.100   8.626   2.115
29156SOL    HW189365   7.134   8.537   2.124
29156SOL    HW289366   7.104   8.662   2.204
29157SOL     OW89367   3.337   9.124  13.490
29157SOL    HW189368   3.270   9.170  13.541
29157SOL    HW289369   3.410   9.186  13.484
29158SOL     OW89370   9.920   0.549  13.889
29158SOL    HW189371   9.850   0.615  13.891
29158SOL    HW289372   9.925   0.523  13.797
29159SOL     OW89373   3.815   7.271  14.429
29159SOL    HW189374   3.879   7.342  14.435
29159SOL    HW289375   3.824   7.239  14.339
29160SOL     OW89376   9.164   5.062   1.135
29160SOL    HW189377   9.091   5.086   1.192
29160SOL    HW289378   9.195   5.145   1.100
29161SOL     OW89379  10.374  14.185   7.245
29161SOL    HW189380  10.395  14.140   7.327
29161SOL    HW289381  10.350  14.114   7.184
29162SOL     OW89382   7.804   5.992   9.000
29162SOL    HW189383   7.782   5.899   9.009
29162SOL    HW289384   7.726   6.031   8.960
29163SOL     OW89385   3.902  13.151   5.798
29163SOL    HW189386   3.955  13.199   5.862
29163SOL    HW289387   3.899  13.062   5.832
29164SOL     OW89388   3.648  12.234   2.937
29164SOL    HW189389   3.609  12.288   3.006
29164SOL    HW289390   3.715  12.290   2.898
29165SOL     OW89391  14.856  11.998   7.824
29165SOL    HW189392  14.810  12.008   7.741
29165SOL    HW289393   0.071  12.041   7.809
29166SOL     OW89394   6.261  13.845   0.823
29166SOL    HW189395   6.350  13.880   0.816
29166SOL    HW289396   6.227  13.881   0.904
29167SOL     OW89397   6.309   3.993   3.811
29167SOL    HW189398   6.350   4.043   3.740
29167SOL    HW289399   6.222   3.972   3.777
29168SOL     OW89400   0.327   3.832   7.692
29168SOL    HW189401   0.313   3.927   7.700
29168SOL    HW289402   0.312   3.798   7.780
29169SOL     OW89403   3.940   4.044   6.370
29169SOL    HW189404   3.964   3.971   6.428
29169SOL    HW289405   4.021   4.068   6.327
29170SOL     OW89406  14.234   2.259   6.099
29170SOL    HW189407  14.278   2.252   6.183
29170SOL    HW289408  14.150   2.300   6.119
29171SOL     OW89409   8.916  13.317  11.272
29171SOL    HW189410   8.903  13.328  11.178
29171SOL    HW289411   8.834  13.279  11.304
29172SOL     OW89412   3.100   9.807   6.251
29172SOL    HW189413   3.037   9.867   6.291
29172SOL    HW289414   3.110   9.839   6.161
29173SOL     OW89415   3.704   8.700  13.861
29173SOL    HW189416   3.695   8.721  13.954
29173SOL    HW289417   3.718   8.785  13.819
29174SOL     OW89418  14.718   7.317   3.751
29174SOL    HW189419  14.775   7.392   3.731
29174SOL    HW289420  14.631   7.355   3.760
29175SOL     OW89421  11.110   3.060   0.223
29175SOL    HW189422  11.064   3.063   0.307
29175SOL    HW289423  11.195   3.021   0.244
29176SOL     OW89424   2.879   2.223   6.027
29176SOL    HW189425   2.877   2.145   6.083
29176SOL    HW289426   2.921   2.194   5.947
29177SOL     OW89427   8.858   8.116   3.241
29177SOL    HW189428   8.931   8.172   3.214
29177SOL    HW289429   8.834   8.067   3.162
29178SOL     OW89430  11.682  14.322  10.736
29178SOL    HW189431  11.605  14.324  10.793
29178SOL    HW289432  11.725  14.406  10.750
29179SOL     OW89433  14.746   2.465   4.598
29179SOL    HW189434  14.838   2.439   4.593
29179SOL    HW289435  14.717   2.470   4.508
29180SOL     OW89436   9.204   1.019   6.545
29180SOL    HW189437   9.295   1.000   6.524
29180SOL    HW289438   9.153   0.972   6.480
29181SOL     OW89439  10.569  11.486  12.383
29181SOL    HW189440  10.610  11.402  12.405
29181SOL    HW289441  10.639  11.550  12.392
29182SOL     OW89442  13.458   4.704  11.711
29182SOL    HW189443  13.496   4.636  11.767
29182SOL    HW289444  13.381   4.663  11.672
29183SOL     OW89445  13.378   6.638  11.414
29183SOL    HW189446  13.322   6.688  11.474
29183SOL    HW289447  13.317   6.581  11.367
29184SOL     OW89448   3.288  14.624   7.649
29184SOL    HW189449   3.283  14.598   7.741
29184SOL    HW289450   3.212  14.583   7.608
29185SOL     OW89451   3.808   2.985   8.880
29185SOL    HW189452   3.804   2.959   8.972
29185SOL    HW289453   3.771   2.911   8.832
29186SOL     OW89454   9.241   5.639   1.403
29186SOL    HW189455   9.310   5.588   1.361
29186SOL    HW289456   9.283   5.722   1.426
29187SOL     OW89457  12.648  13.770  11.464
29187SOL    HW189458  12.630  13.752  11.557
29187SOL    HW289459  12.742  13.759  11.455
29188SOL     OW89460  12.507   5.157  14.547
29188SOL    HW189461  12.536   5.075  14.507
29188SOL    HW289462  12.585   5.212  14.550
29189SOL     OW89463   7.004  13.466  10.218
29189SOL    HW189464   6.942  13.490  10.149
29189SOL    HW289465   7.030  13.550  10.257
29190SOL     OW89466  13.489  14.099   0.551
29190SOL    HW189467  13.579  14.068   0.552
29190SOL    HW289468  13.462  14.096   0.643
29191SOL     OW89469   3.943  12.938  14.674
29191SOL    HW189470   3.880  12.913  14.607
29191SOL    HW289471   3.908  12.900  14.755
29192SOL     OW89472  10.901  13.601   1.442
29192SOL    HW189473  10.834  13.670   1.445
29192SOL    HW289474  10.982  13.647   1.422
29193SOL     OW89475   3.502   2.580  10.931
29193SOL    HW189476   3.459   2.666  10.932
29193SOL    HW289477   3.445   2.525  10.877
29194SOL     OW89478  11.896  13.484   6.882
29194SOL    HW189479  11.864  13.447   6.964
29194SOL    HW289480  11.961  13.549   6.909
29195SOL     OW89481   5.922   7.064   8.634
29195SOL    HW189482   5.884   6.978   8.613
29195SOL    HW289483   5.945   7.058   8.727
29196SOL     OW89484  13.084   5.025  12.316
29196SOL    HW189485  13.119   4.943  12.350
29196SOL    HW289486  13.079   5.012  12.222
29197SOL     OW89487  10.713   6.796   9.192
29197SOL    HW189488  10.639   6.799   9.252
29197SOL    HW289489  10.708   6.709   9.152
29198SOL     OW89490   2.274  14.685   9.182
29198SOL    HW189491   2.191  14.666   9.225
29198SOL    HW289492   2.249  14.730   9.101
29199SOL     OW89493   6.322   8.325   9.126
29199SOL    HW189494   6.373   8.244   9.140
29199SOL    HW289495   6.325   8.370   9.210
29200SOL     OW89496   1.972  14.597   8.019
29200SOL    HW189497   1.974  14.674   8.075
29200SOL    HW289498   2.059  14.557   8.030
29201SOL     OW89499   6.888  12.304   4.131
29201SOL    HW189500   6.948  12.355   4.184
29201SOL    HW289501   6.841  12.369   4.078
29202SOL     OW89502   4.359  10.007  12.900
29202SOL    HW189503   4.279  10.034  12.943
29202SOL    HW289504   4.378  10.077  12.837
29203SOL     OW89505   4.292   1.588   3.333
29203SOL    HW189506   4.341   1.655   3.286
29203SOL    HW289507   4.354   1.554   3.398
29204SOL     OW89508   2.095  14.593   2.031
29204SOL    HW189509   2.125  14.512   1.988
29204SOL    HW289510   2.091  14.570   2.124
29205SOL     OW89511   5.270  12.852  12.832
29205SOL    HW189512   5.297  12.760  12.839
29205SOL    HW289513   5.253  12.864  12.738
29206SOL     OW89514   0.297   4.441   3.360
29206SOL    HW189515   0.226   4.379   3.371
29206SOL    HW289516   0.254   4.523   3.336
29207SOL     OW89517   0.018  13.827   2.033
29207SOL    HW189518   0.004  13.732   2.029
29207SOL    HW289519   0.066  13.841   2.114
29208SOL     OW89520   3.217   0.539   4.457
29208SOL    HW189521   3.230   0.597   4.532
29208SOL    HW289522   3.165   0.467   4.491
29209SOL     OW89523   9.370   7.106   8.011
29209SOL    HW189524   9.305   7.106   8.082
29209SOL    HW289525   9.321   7.131   7.933
29210SOL     OW89526  10.024   5.248   1.643
29210SOL    HW189527   9.929   5.239   1.657
29210SOL    HW289528  10.043   5.339   1.667
29211SOL     OW89529  12.588  10.022   0.944
29211SOL    HW189530  12.513  10.016   0.886
29211SOL    HW289531  12.661   9.986   0.893
29212SOL     OW89532   2.846   1.278   3.735
29212SOL    HW189533   2.881   1.319   3.656
29212SOL    HW289534   2.764   1.237   3.707
29213SOL     OW89535  12.371   9.221  14.012
29213SOL    HW189536  12.412   9.142  13.977
29213SOL    HW289537  12.381   9.286  13.943
29214SOL     OW89538   0.550   8.660   1.205
29214SOL    HW189539   0.467   8.622   1.177
29214SOL    HW289540   0.609   8.648   1.130
29215SOL     OW89541  10.411   8.094   7.917
29215SOL    HW189542  10.346   8.043   7.965
29215SOL    HW289543  10.399   8.184   7.948
29216SOL     OW89544   1.620   6.359   0.694
29216SOL    HW189545   1.649   6.426   0.757
29216SOL    HW289546   1.690   6.354   0.630
29217SOL     OW89547   4.412   4.944  14.063
29217SOL    HW189548   4.448   4.863  14.027
29217SOL    HW289549   4.488   4.990  14.098
29218SOL     OW89550  10.541  12.358   3.070
29218SOL    HW189551  10.593  12.411   3.010
29218SOL    HW289552  10.576  12.270   3.061
29219SOL     OW89553   6.622   8.035   5.809
29219SOL    HW189554   6.632   7.979   5.886
29219SOL    HW289555   6.697   8.094   5.812
29220SOL     OW89556  11.350  10.002   7.052
29220SOL    HW189557  11.333  10.078   6.997
29220SOL    HW289558  11.444   9.985   7.043
29221SOL     OW89559   2.292   3.257   6.198
29221SOL    HW189560   2.348   3.211   6.137
29221SOL    HW289561   2.213   3.277   6.147
29222SOL     OW89562  12.154   5.773   1.878
29222SOL    HW189563  12.098   5.706   1.917
29222SOL    HW289564  12.227   5.782   1.939
29223SOL     OW89565   8.766  13.202   1.937
29223SOL    HW189566   8.731  13.185   2.024
29223SOL    HW289567   8.850  13.244   1.953
29224SOL     OW89568   2.360  12.324   9.723
29224SOL    HW189569   2.378  12.365   9.638
29224SOL    HW289570   2.352  12.230   9.703
29225SOL     OW89571   2.292   8.432   7.245
29225SOL    HW189572   2.386   8.441   7.232
29225SOL    HW289573   2.263   8.378   7.171
29226SOL     OW89574  12.003   9.825   9.984
29226SOL    HW189575  11.921   9.790   9.948
29226SOL    HW289576  12.036   9.755  10.040
29227SOL     OW89577  13.919   6.076   0.922
29227SOL    HW189578  13.968   6.037   0.850
29227SOL    HW289579  13.978   6.140   0.960
29228SOL     OW89580   6.832  12.530  11.374
29228SOL    HW189581   6.869  12.483  11.448
29228SOL    HW289582   6.868  12.486  11.297
29229SOL     OW89583  12.884  11.656  12.937
29229SOL    HW189584  12.865  11.595  12.866
29229SOL    HW289585  12.976  11.639  12.959
29230SOL     OW89586  12.132  10.459   5.121
29230SOL    HW189587  12.193  10.503   5.062
29230SOL    HW289588  12.105  10.527   5.183
29231SOL     OW89589  11.188  12.102  13.190
29231SOL    HW189590  11.238  12.105  13.109
29231SOL    HW289591  11.181  12.009  13.210
29232SOL     OW89592  13.657  10.955   7.555
29232SOL    HW189593  13.640  11.020   7.487
29232SOL    HW289594  13.645  11.002   7.638
29233SOL     OW89595   0.744   3.923  14.006
29233SOL    HW189596   0.701   4.006  14.030
29233SOL    HW289597   0.771   3.936  13.915
29234SOL     OW89598  14.309   4.655   0.193
29234SOL    HW189599  14.285   4.570   0.157
29234SOL    HW289600  14.303   4.715   0.118
29235SOL     OW89601   9.009  14.403  14.149
29235SOL    HW189602   9.038  14.423  14.238
29235SOL    HW289603   8.957  14.324  14.158
29236SOL     OW89604  10.571   1.789   2.599
29236SOL    HW189605  10.491   1.764   2.645
29236SOL    HW289606  10.571   1.736   2.519
29237SOL     OW89607   3.707  14.570   2.380
29237SOL    HW189608   3.739  14.541   2.465
29237SOL    HW289609   3.613  14.549   2.382
29238SOL     OW89610  11.888   1.405   2.415
29238SOL    HW189611  11.971   1.398   2.461
29238SOL    HW289612  11.900   1.352   2.336
29239SOL     OW89613   7.720   2.056  12.561
29239SOL    HW189614   7.669   2.016  12.491
29239SOL    HW289615   7.778   2.118  12.516
29240SOL     OW89616  11.254   8.412  11.364
29240SOL    HW189617  11.193   8.341  11.345
29240SOL    HW289618  11.303   8.425  11.282
29241SOL     OW89619   5.559  10.807  11.005
29241SOL    HW189620   5.486  10.761  10.964
29241SOL    HW289621   5.550  10.788  11.099
29242SOL     OW89622   3.342   0.498  11.816
29242SOL    HW189623   3.347   0.416  11.766
29242SOL    HW289624   3.260   0.490  11.866
29243SOL     OW89625   9.039   6.425  10.722
29243SOL    HW189626   9.128   6.390  10.726
29243SOL    HW289627   8.996   6.375  10.653
29244SOL     OW89628   9.065  12.425   4.661
29244SOL    HW189629   9.091  12.333   4.655
29244SOL    HW289630   9.044  12.438   4.753
29245SOL     OW89631   6.747   6.422   9.455
29245SOL    HW189632   6.839   6.408   9.434
29245SOL    HW289633   6.744   6.435   9.550
29246SOL     OW89634   0.863   8.454   0.551
29246SOL    HW189635   0.888   8.455   0.643
29246SOL    HW289636   0.944   8.433   0.504
29247SOL     OW89637   4.134  10.671   0.302
29247SOL    HW189638   4.222  10.708   0.302
29247SOL    HW289639   4.077  10.743   0.329
29248SOL     OW89640  10.319   5.721  14.771
29248SOL    HW189641  10.407   5.692  14.795
29248SOL    HW289642  10.263   5.645  14.791
29249SOL     OW89643  13.914  13.738   2.529
29249SOL    HW189644  13.977  13.713   2.461
29249SOL    HW289645  13.840  13.679   2.515
29250SOL     OW89646  12.686   8.358   2.780
29250SOL    HW189647  12.779   8.344   2.760
29250SOL    HW289648  12.686   8.428   2.845
29251SOL     OW89649  12.894  12.990   9.692
29251SOL    HW189650  12.894  13.050   9.617
29251SOL    HW289651  12.872  13.046   9.767
29252SOL     OW89652   4.764   1.390  10.440
29252SOL    HW189653   4.682   1.360  10.480
29252SOL    HW289654   4.792   1.462  10.496
29253SOL     OW89655  11.266  10.135  14.055
29253SOL    HW189656  11.189  10.164  14.104
29253SOL    HW289657  11.230  10.078  13.987
29254SOL     OW89658   8.672   3.676   4.618
29254SOL    HW189659   8.586   3.651   4.583
29254SOL    HW289660   8.735   3.631   4.561
29255SOL     OW89661   5.165   5.657  12.387
29255SOL    HW189662   5.171   5.689  12.297
29255SOL    HW289663   5.224   5.582  12.390
29256SOL     OW89664   8.059   9.967  10.405
29256SOL    HW189665   8.130   9.909  10.433
29256SOL    HW289666   8.036   9.937  10.317
29257SOL     OW89667   2.470   9.465   7.149
29257SOL    HW189668   2.556   9.442   7.183
29257SOL    HW289669   2.426   9.381   7.135
29258SOL     OW89670  11.044  10.486  10.094
29258SOL    HW189671  10.981  10.416  10.075
29258SOL    HW289672  11.018  10.558  10.036
29259SOL     OW89673  11.920   2.865   2.982
29259SOL    HW189674  11.960   2.786   3.018
29259SOL    HW289675  11.994   2.923   2.962
29260SOL     OW89676  10.362   9.999  13.656
29260SOL    HW189677  10.416  10.058  13.604
29260SOL    HW289678  10.423   9.933  13.689
29261SOL     OW89679   5.146   7.608   9.684
29261SOL    HW189680   5.149   7.513   9.692
29261SOL    HW289681   5.238   7.634   9.672
29262SOL     OW89682  11.371  10.203   8.232
29262SOL    HW189683  11.397  10.294   8.220
29262SOL    HW289684  11.448  10.161   8.270
29263SOL     OW89685   8.941   7.260   9.512
29263SOL    HW189686   8.890   7.185   9.542
29263SOL    HW289687   8.892   7.337   9.543
29264SOL     OW89688  14.005  10.792   0.264
29264SOL    HW189689  13.996  10.741   0.344
29264SOL    HW289690  14.084  10.845   0.278
29265SOL     OW89691  12.084   6.407   6.543
29265SOL    HW189692  12.022   6.456   6.597
29265SOL    HW289693  12.169   6.448   6.561
29266SOL     OW89694  14.771   9.194   0.149
29266SOL    HW189695  14.865   9.200   0.165
29266SOL    HW289696  14.731   9.252   0.213
29267SOL     OW89697   8.815   0.983   5.572
29267SOL    HW189698   8.777   0.904   5.533
29267SOL    HW289699   8.849   0.955   5.657
29268SOL     OW89700   5.832  13.331  14.726
29268SOL    HW189701   5.783  13.313  14.645
29268SOL    HW289702   5.922  13.342  14.698
29269SOL     OW89703  10.946   6.981   4.896
29269SOL    HW189704  10.927   7.037   4.971
29269SOL    HW289705  11.025   7.019   4.857
29270SOL     OW89706  12.375  11.923   2.632
29270SOL    HW189707  12.298  11.910   2.687
29270SOL    HW289708  12.395  11.836   2.598
29271SOL     OW89709  14.497  14.473   9.081
29271SOL    HW189710  14.423  14.413   9.089
29271SOL    HW289711  14.566  14.422   9.040
29272SOL     OW89712  14.215   3.480  13.896
29272SOL    HW189713  14.133   3.448  13.859
29272SOL    HW289714  14.194   3.500  13.987
29273SOL     OW89715   3.622   4.969   9.377
29273SOL    HW189716   3.551   4.911   9.407
29273SOL    HW289717   3.632   5.032   9.448
29274SOL     OW89718   5.766   3.127   5.930
29274SOL    HW189719   5.781   3.176   6.011
29274SOL    HW289720   5.781   3.036   5.954
29275SOL     OW89721  14.758   8.311  10.669
29275SOL    HW189722  14.815   8.351  10.603
29275SOL    HW289723  14.711   8.385  10.708
29276SOL     OW89724  13.255   2.748   1.257
29276SOL    HW189725  13.246   2.800   1.337
29276SOL    HW289726  13.168   2.751   1.216
29277SOL     OW89727   9.892   5.391  11.781
29277SOL    HW189728   9.962   5.344  11.827
29277SOL    HW289729   9.929   5.409  11.694
29278SOL     OW89730  14.865   8.865   6.687
29278SOL    HW189731  14.855   8.795   6.751
29278SOL    HW289732  14.790   8.854   6.628
29279SOL     OW89733   9.915   0.383   0.132
29279SOL    HW189734   9.841   0.441   0.113
29279SOL    HW289735   9.948   0.413   0.216
29280SOL     OW89736  10.677   5.940   7.933
29280SOL    HW189737  10.740   6.012   7.924
29280SOL    HW289738  10.650   5.943   8.025
29281SOL     OW89739   8.692  14.307   3.963
29281SOL    HW189740   8.637  14.240   4.003
29281SOL    HW289741   8.769  14.312   4.020
29282SOL     OW89742  12.678   4.594   0.158
29282SOL    HW189743  12.635   4.678   0.168
29282SOL    HW289744  12.763   4.605   0.200
29283SOL     OW89745   0.674   8.176  14.787
29283SOL    HW189746   0.645   8.086  14.802
29283SOL    HW289747   0.607   8.214  14.730
29284SOL     OW89748  11.197   7.065  12.053
29284SOL    HW189749  11.153   7.147  12.032
29284SOL    HW289750  11.152   6.999  12.001
29285SOL     OW89751   1.717   5.277  12.794
29285SOL    HW189752   1.665   5.200  12.819
29285SOL    HW289753   1.668   5.317  12.723
29286SOL     OW89754   4.939  12.270   1.208
29286SOL    HW189755   5.027  12.282   1.246
29286SOL    HW289756   4.956  12.234   1.121
29287SOL     OW89757  11.381   0.173   3.351
29287SOL    HW189758  11.440   0.110   3.392
29287SOL    HW289759  11.294   0.134   3.360
29288SOL     OW89760  12.691   5.657   6.557
29288SOL    HW189761  12.612   5.605   6.568
29288SOL    HW289762  12.714   5.646   6.465
29289SOL     OW89763  12.794   1.708   9.261
29289SOL    HW189764  12.773   1.619   9.233
29289SOL    HW289765  12.735   1.764   9.209
29290SOL     OW89766   9.624   3.828   3.702
29290SOL    HW189767   9.539   3.808   3.741
29290SOL    HW289768   9.623   3.786   3.616
29291SOL     OW89769  13.677   4.743   0.600
29291SOL    HW189770  13.670   4.742   0.695
29291SOL    HW289771  13.639   4.660   0.572
29292SOL     OW89772  10.598   0.801  13.317
29292SOL    HW189773  10.540   0.802  13.393
29292SOL    HW289774  10.685   0.789  13.353
29293SOL     OW89775   1.317   3.109   5.692
29293SOL    HW189776   1.359   3.053   5.626
29293SOL    HW289777   1.277   3.047   5.753
29294SOL     OW89778   9.464  10.289  14.218
29294SOL    HW189779   9.516  10.322  14.145
29294SOL    HW289780   9.432  10.204  14.189
29295SOL     OW89781   2.107   0.077  10.925
29295SOL    HW189782   2.142   0.165  10.908
29295SOL    HW289783   2.047   0.089  10.999
29296SOL     OW89784   7.583  11.937   1.833
29296SOL    HW189785   7.575  11.942   1.738
29296SOL    HW289786   7.508  11.884   1.861
29297SOL     OW89787  14.057  13.435   1.044
29297SOL    HW189788  14.120  13.454   0.975
29297SOL    HW289789  13.975  13.473   1.012
29298SOL     OW89790  10.396   0.761  10.298
29298SOL    HW189791  10.452   0.835  10.319
29298SOL    HW289792  10.308   0.790  10.320
29299SOL     OW89793  14.232   9.044   9.422
29299SOL    HW189794  14.177   8.972   9.452
29299SOL    HW289795  14.175   9.097   9.366
29300SOL     OW89796   0.946   3.104  13.215
29300SOL    HW189797   0.960   3.193  13.182
29300SOL    HW289798   0.908   3.116  13.302
29301SOL     OW89799   8.734  10.217   6.499
29301SOL    HW189800   8.673  10.146   6.477
29301SOL    HW289801   8.811  10.201   6.444
29302SOL     OW89802  13.759  14.454   1.068
29302SOL    HW189803  13.786  14.525   1.127
29302SOL    HW289804  13.796  14.479   0.983
29303SOL     OW89805   5.081   5.760  10.785
29303SOL    HW189806   5.047   5.835  10.736
29303SOL    HW289807   5.121   5.704  10.718
29304SOL     OW89808   2.117   0.928   0.017
29304SOL    HW189809   2.146   0.870   0.087
29304SOL    HW289810   2.134   1.016   0.051
29305SOL     OW89811  12.241   6.726   3.996
29305SOL    HW189812  12.277   6.797   4.050
29305SOL    HW289813  12.233   6.764   3.909
29306SOL     OW89814   4.138  11.211   1.615
29306SOL    HW189815   4.191  11.131   1.610
29306SOL    HW289816   4.201  11.282   1.604
29307SOL     OW89817  13.375   0.916   2.929
29307SOL    HW189818  13.445   0.969   2.892
29307SOL    HW289819  13.406   0.826   2.920
29308SOL     OW89820   0.412   5.953   7.315
29308SOL    HW189821   0.436   6.011   7.387
29308SOL    HW289822   0.489   5.953   7.257
29309SOL     OW89823   5.859  10.422  12.624
29309SOL    HW189824   5.772  10.443  12.660
29309SOL    HW289825   5.843  10.346  12.568
29310SOL     OW89826   8.320  13.052  11.703
29310SOL    HW189827   8.355  13.097  11.780
29310SOL    HW289828   8.227  13.041  11.723
29311SOL     OW89829   2.196  12.392  12.414
29311SOL    HW189830   2.197  12.342  12.333
29311SOL    HW289831   2.161  12.332  12.480
29312SOL     OW89832   8.058   8.173   6.973
29312SOL    HW189833   8.018   8.086   6.964
29312SOL    HW289834   8.135   8.158   7.028
29313SOL     OW89835   8.547   4.958  13.366
29313SOL    HW189836   8.511   4.887  13.420
29313SOL    HW289837   8.641   4.941  13.363
29314SOL     OW89838   5.759  13.721   0.555
29314SOL    HW189839   5.831  13.696   0.613
29314SOL    HW289840   5.758  13.817   0.557
29315SOL     OW89841  12.125   7.704  13.175
29315SOL    HW189842  12.163   7.662  13.098
29315SOL    HW289843  12.040   7.661  13.186
29316SOL     OW89844   3.539   4.033   9.436
29316SOL    HW189845   3.627   4.013   9.404
29316SOL    HW289846   3.538   4.128   9.446
29317SOL     OW89847   7.556  10.555   7.551
29317SOL    HW189848   7.562  10.461   7.535
29317SOL    HW289849   7.581  10.596   7.468
29318SOL     OW89850   5.740   0.297  14.048
29318SOL    HW189851   5.787   0.228  14.095
29318SOL    HW289852   5.648   0.278  14.064
29319SOL     OW89853   5.063   8.141   9.719
29319SOL    HW189854   5.064   8.072   9.652
29319SOL    HW289855   5.014   8.102   9.792
29320SOL     OW89856   1.278   2.736   8.247
29320SOL    HW189857   1.225   2.785   8.184
29320SOL    HW289858   1.219   2.720   8.321
29321SOL     OW89859   2.468   3.123  11.655
29321SOL    HW189860   2.442   3.199  11.707
29321SOL    HW289861   2.562   3.135  11.639
29322SOL     OW89862   1.477   6.759  14.831
29322SOL    HW189863   1.386   6.776  14.855
29322SOL    HW289864   1.528   6.804   0.029
29323SOL     OW89865   8.922   0.706   2.040
29323SOL    HW189866   8.876   0.623   2.050
29323SOL    HW289867   9.008   0.690   2.079
29324SOL     OW89868   2.830   1.060  14.027
29324SOL    HW189869   2.924   1.076  14.027
29324SOL    HW289870   2.800   1.096  14.111
29325SOL     OW89871   6.087  14.348  11.427
29325SOL    HW189872   6.072  14.257  11.449
29325SOL    HW289873   5.999  14.387  11.425
29326SOL     OW89874   0.669   0.649  13.554
29326SOL    HW189875   0.753   0.686  13.526
29326SOL    HW289876   0.633   0.714  13.614
29327SOL     OW89877  11.288  13.772  12.297
29327SOL    HW189878  11.192  13.766  12.300
29327SOL    HW289879  11.316  13.686  12.264
29328SOL     OW89880   5.785  13.140  11.625
29328SOL    HW189881   5.778  13.236  11.629
29328SOL    HW289882   5.878  13.122  11.640
29329SOL     OW89883  10.511  12.045   6.144
29329SOL    HW189884  10.445  11.995   6.096
29329SOL    HW289885  10.585  11.986   6.154
29330SOL     OW89886   0.065  12.929   7.974
29330SOL    HW189887   0.009  12.994   7.931
29330SOL    HW289888   0.018  12.906   8.054
29331SOL     OW89889   8.135   3.400  10.966
29331SOL    HW189890   8.146   3.494  10.950
29331SOL    HW289891   8.066   3.395  11.032
29332SOL     OW89892   7.158   8.863  12.642
29332SOL    HW189893   7.185   8.776  12.671
29332SOL    HW289894   7.235   8.918  12.655
29333SOL     OW89895  11.367   8.750  14.187
29333SOL    HW189896  11.352   8.790  14.273
29333SOL    HW289897  11.308   8.675  14.186
29334SOL     OW89898   8.301   9.615   9.854
29334SOL    HW189899   8.247   9.581   9.926
29334SOL    HW289900   8.346   9.691   9.892
29335SOL     OW89901   7.203   6.016   6.858
29335SOL    HW189902   7.279   6.057   6.816
29335SOL    HW289903   7.226   5.923   6.863
29336SOL     OW89904   2.786   8.040  13.382
29336SOL    HW189905   2.777   8.110  13.447
29336SOL    HW289906   2.735   8.069  13.307
29337SOL     OW89907   1.597   7.016  11.145
29337SOL    HW189908   1.642   7.101  11.153
29337SOL    HW289909   1.581   6.989  11.235
29338SOL     OW89910  11.280  11.838  13.228
29338SOL    HW189911  11.229  11.758  13.237
29338SOL    HW289912  11.321  11.830  13.142
29339SOL     OW89913   4.897  10.924   9.158
29339SOL    HW189914   4.966  10.978   9.120
29339SOL    HW289915   4.942  10.845   9.189
29340SOL     OW89916   1.922  13.200  12.845
29340SOL    HW189917   1.969  13.124  12.810
29340SOL    HW289918   1.927  13.265  12.775
29341SOL     OW89919  10.080   5.442  13.059
29341SOL    HW189920  10.131   5.370  13.098
29341SOL    HW289921  10.128   5.465  12.980
29342SOL     OW89922   6.113   9.964  10.975
29342SOL    HW189923   6.170   9.898  11.015
29342SOL    HW289924   6.140  10.047  11.014
29343SOL     OW89925   3.406  13.111   5.566
29343SOL    HW189926   3.458  13.180   5.525
29343SOL    HW289927   3.316  13.130   5.541
29344SOL     OW89928  14.107   4.835   3.648
29344SOL    HW189929  14.113   4.838   3.744
29344SOL    HW289930  14.035   4.894   3.627
29345SOL     OW89931  12.506  11.138   9.703
29345SOL    HW189932  12.590  11.127   9.658
29345SOL    HW289933  12.520  11.098   9.789
29346SOL     OW89934   2.164   2.605   7.660
29346SOL    HW189935   2.222   2.672   7.624
29346SOL    HW289936   2.089   2.654   7.694
29347SOL     OW89937   2.035   1.600   1.768
29347SOL    HW189938   2.060   1.692   1.780
29347SOL    HW289939   1.941   1.604   1.748
29348SOL     OW89940   1.779   3.248   7.484
29348SOL    HW189941   1.708   3.278   7.427
29348SOL    HW289942   1.854   3.303   7.460
29349SOL     OW89943  12.478   9.038   9.483
29349SOL    HW189944  12.534   8.993   9.546
29349SOL    HW289945  12.395   8.992   9.487
29350SOL     OW89946  11.911   3.173   8.189
29350SOL    HW189947  11.926   3.262   8.158
29350SOL    HW289948  11.969   3.119   8.136
29351SOL     OW89949  14.646   6.830   3.528
29351SOL    HW189950  14.558   6.819   3.492
29351SOL    HW289951  14.684   6.743   3.526
29352SOL     OW89952   5.066   1.268  14.744
29352SOL    HW189953   5.068   1.266  14.840
29352SOL    HW289954   5.118   1.193  14.717
29353SOL     OW89955   9.129   4.296   4.381
29353SOL    HW189956   9.105   4.387   4.362
29353SOL    HW289957   9.214   4.284   4.340
29354SOL     OW89958   8.545  14.202  12.824
29354SOL    HW189959   8.605  14.225  12.896
29354SOL    HW289960   8.579  14.250  12.749
29355SOL     OW89961   6.332  12.294   7.310
29355SOL    HW189962   6.332  12.208   7.268
29355SOL    HW289963   6.425  12.318   7.313
29356SOL     OW89964   8.471   4.384   4.171
29356SOL    HW189965   8.390   4.355   4.128
29356SOL    HW289966   8.457   4.477   4.188
29357SOL     OW89967   0.299  10.594  13.815
29357SOL    HW189968   0.291  10.506  13.852
29357SOL    HW289969   0.226  10.602  13.755
29358SOL     OW89970   7.456  14.037   8.946
29358SOL    HW189971   7.439  13.976   8.874
29358SOL    HW289972   7.509  14.106   8.906
29359SOL     OW89973   8.297   6.062  14.447
29359SOL    HW189974   8.220   6.093  14.496
29359SOL    HW289975   8.357   6.137  14.448
29360SOL     OW89976   3.026   7.890  11.730
29360SOL    HW189977   3.004   7.947  11.655
29360SOL    HW289978   2.949   7.836  11.742
29361SOL     OW89979  11.531   2.826   2.423
29361SOL    HW189980  11.595   2.860   2.485
29361SOL    HW289981  11.454   2.805   2.476
29362SOL     OW89982   7.050   6.302  11.716
29362SOL    HW189983   7.052   6.222  11.664
29362SOL    HW289984   7.124   6.294  11.776
29363SOL     OW89985   5.542   1.663   7.496
29363SOL    HW189986   5.507   1.717   7.567
29363SOL    HW289987   5.483   1.680   7.422
29364SOL     OW89988   3.977  12.627  14.601
29364SOL    HW189989   4.035  12.684  14.552
29364SOL    HW289990   3.894  12.675  14.606
29365SOL     OW89991  11.764   0.909   4.077
29365SOL    HW189992  11.841   0.966   4.068
29365SOL    HW289993  11.732   0.926   4.166
29366SOL     OW89994   4.900   0.560  13.146
29366SOL    HW189995   4.938   0.635  13.191
29366SOL    HW289996   4.858   0.598  13.068
29367SOL     OW89997   8.797  12.980   9.200
29367SOL    HW189998   8.890  12.976   9.223
29367SOL    HW289999   8.794  12.945   9.111
29368SOL     OW90000  10.148   9.480   5.299
29368SOL    HW190001  10.069   9.468   5.350
29368SOL    HW290002  10.164   9.574   5.301
29369SOL     OW90003   9.028   8.394   6.230
29369SOL    HW190004   9.084   8.338   6.176
29369SOL    HW290005   9.089   8.449   6.279
29370SOL     OW90006   8.828  14.564   9.244
29370SOL    HW190007   8.893  14.597   9.182
29370SOL    HW290008   8.854  14.600   9.328
29371SOL     OW90009   4.282   5.457  14.395
29371SOL    HW190010   4.272   5.418  14.482
29371SOL    HW290011   4.223   5.532  14.396
29372SOL     OW90012   6.022  12.321   1.698
29372SOL    HW190013   6.090  12.254   1.691
29372SOL    HW290014   5.963  12.302   1.625
29373SOL     OW90015   8.316   8.022   4.015
29373SOL    HW190016   8.229   7.982   4.013
29373SOL    HW290017   8.375   7.953   3.984
29374SOL     OW90018  14.110   1.290   2.926
29374SOL    HW190019  14.052   1.313   2.999
29374SOL    HW290020  14.198   1.307   2.959
29375SOL     OW90021   8.529  11.159   5.703
29375SOL    HW190022   8.434  11.148   5.704
29375SOL    HW290023   8.555  11.141   5.613
29376SOL     OW90024   9.423  14.852  14.507
29376SOL    HW190025   9.357  14.788  14.480
29376SOL    HW290026   9.506  14.812  14.480
29377SOL     OW90027  14.835   4.766   8.278
29377SOL    HW190028  14.787   4.832   8.328
29377SOL    HW290029   0.012   4.716   8.344
29378SOL     OW90030  11.292   1.040   7.400
29378SOL    HW190031  11.367   1.096   7.379
29378SOL    HW290032  11.255   1.078   7.480
29379SOL     OW90033   8.731   8.270  12.238
29379SOL    HW190034   8.664   8.330  12.271
29379SOL    HW290035   8.756   8.305  12.153
29380SOL     OW90036  12.289   6.536   4.554
29380SOL    HW190037  12.250   6.557   4.469
29380SOL    HW290038  12.383   6.546   4.540
29381SOL     OW90039   9.912   5.594  13.664
29381SOL    HW190040   9.841   5.623  13.722
29381SOL    HW290041   9.884   5.507  13.634
29382SOL     OW90042   1.691   4.913   7.975
29382SOL    HW190043   1.701   4.917   8.070
29382SOL    HW290044   1.645   4.830   7.960
29383SOL     OW90045   7.677   2.763  12.830
29383SOL    HW190046   7.621   2.744  12.906
29383SOL    HW290047   7.679   2.859  12.826
29384SOL     OW90048  13.830   2.166   5.926
29384SOL    HW190049  13.791   2.230   5.866
29384SOL    HW290050  13.808   2.199   6.013
29385SOL     OW90051   7.284   5.010   4.120
29385SOL    HW190052   7.221   4.973   4.182
29385SOL    HW290053   7.349   4.941   4.108
29386SOL     OW90054   0.070  11.926   4.065
29386SOL    HW190055   0.071  11.970   3.980
29386SOL    HW290056   0.006  11.855   4.054
29387SOL     OW90057  13.639  14.672  11.381
29387SOL    HW190058  13.544  14.673  11.374
29387SOL    HW290059  13.668  14.613  11.311
29388SOL     OW90060   3.925   6.986   6.858
29388SOL    HW190061   4.002   6.987   6.800
29388SOL    HW290062   3.872   6.913   6.826
29389SOL     OW90063  12.936   7.682   6.482
29389SOL    HW190064  12.853   7.638   6.500
29389SOL    HW290065  12.986   7.673   6.564
29390SOL     OW90066  13.924   0.752   0.443
29390SOL    HW190067  13.918   0.777   0.351
29390SOL    HW290068  13.837   0.771   0.479
29391SOL     OW90069   7.471   4.210  14.658
29391SOL    HW190070   7.429   4.140  14.708
29391SOL    HW290071   7.401   4.245  14.602
29392SOL     OW90072   7.510   3.792   2.621
29392SOL    HW190073   7.494   3.826   2.709
29392SOL    HW290074   7.424   3.791   2.580
29393SOL     OW90075   6.629   2.895   9.095
29393SOL    HW190076   6.661   2.916   9.008
29393SOL    HW290077   6.534   2.899   9.088
29394SOL     OW90078   4.885   3.396   0.641
29394SOL    HW190079   4.949   3.384   0.711
29394SOL    HW290080   4.936   3.418   0.564
29395SOL     OW90081   8.066  14.353  10.474
29395SOL    HW190082   8.113  14.308  10.544
29395SOL    HW290083   8.132  14.367  10.406
29396SOL     OW90084   0.040   8.801   3.033
29396SOL    HW190085   0.012   8.867   3.097
29396SOL    HW290086  14.833   8.786   2.978
29397SOL     OW90087   1.589   0.234   2.620
29397SOL    HW190088   1.656   0.277   2.673
29397SOL    HW290089   1.574   0.294   2.547
29398SOL     OW90090   8.881   9.862   1.962
29398SOL    HW190091   8.937   9.796   1.921
29398SOL    HW290092   8.794   9.846   1.925
29399SOL     OW90093  10.789  13.167  10.498
29399SOL    HW190094  10.725  13.102  10.468
29399SOL    HW290095  10.854  13.117  10.547
29400SOL     OW90096   2.267   4.038  10.667
29400SOL    HW190097   2.266   4.105  10.600
29400SOL    HW290098   2.176   4.011  10.677
29401SOL     OW90099  14.030   9.311   7.491
29401SOL    HW190100  14.075   9.348   7.567
29401SOL    HW290101  14.062   9.364   7.417
29402SOL     OW90102  13.796   1.344   4.020
29402SOL    HW190103  13.828   1.368   4.107
29402SOL    HW290104  13.751   1.261   4.033
29403SOL     OW90105   4.404   1.009   3.791
29403SOL    HW190106   4.456   0.945   3.839
29403SOL    HW290107   4.324   1.018   3.843
29404SOL     OW90108  12.849   1.108  10.799
29404SOL    HW190109  12.828   1.076  10.886
29404SOL    HW290110  12.851   1.203  10.808
29405SOL     OW90111  13.194   9.800  14.814
29405SOL    HW190112  13.161   9.779   0.032
29405SOL    HW290113  13.261   9.734  14.797
29406SOL     OW90114   7.985   6.167  11.966
29406SOL    HW190115   7.946   6.217  11.895
29406SOL    HW290116   7.994   6.078  11.931
29407SOL     OW90117  11.588   3.078  13.503
29407SOL    HW190118  11.598   3.173  13.502
29407SOL    HW290119  11.616   3.050  13.416
29408SOL     OW90120  12.785   6.684  12.346
29408SOL    HW190121  12.719   6.710  12.282
29408SOL    HW290122  12.737   6.678  12.429
29409SOL     OW90123   1.644   6.308   1.930
29409SOL    HW190124   1.706   6.354   1.986
29409SOL    HW290125   1.648   6.217   1.959
29410SOL     OW90126   0.940  12.053  12.610
29410SOL    HW190127   0.932  12.095  12.695
29410SOL    HW290128   1.021  12.089  12.573
29411SOL     OW90129  13.099   5.401   2.559
29411SOL    HW190130  13.099   5.376   2.467
29411SOL    HW290131  13.096   5.496   2.559
29412SOL     OW90132   0.952   9.730   8.844
29412SOL    HW190133   1.022   9.759   8.785
29412SOL    HW290134   0.998   9.701   8.923
29413SOL     OW90135  13.347  11.244   9.819
29413SOL    HW190136  13.351  11.162   9.769
29413SOL    HW290137  13.362  11.312   9.753
29414SOL     OW90138   1.363   2.971  14.346
29414SOL    HW190139   1.373   3.021  14.427
29414SOL    HW290140   1.280   3.002  14.309
29415SOL     OW90141   9.052   7.748   0.803
29415SOL    HW190142   9.030   7.766   0.894
29415SOL    HW290143   9.148   7.743   0.802
29416SOL     OW90144  11.109  14.511   0.338
29416SOL    HW190145  11.091  14.581   0.275
29416SOL    HW290146  11.204  14.498   0.332
29417SOL     OW90147   8.845  12.715   0.143
29417SOL    HW190148   8.857  12.806   0.114
29417SOL    HW290149   8.759  12.690   0.109
29418SOL     OW90150   9.649   7.712  12.114
29418SOL    HW190151   9.697   7.679  12.189
29418SOL    HW290152   9.607   7.792  12.146
29419SOL     OW90153  10.755  12.539  14.315
29419SOL    HW190154  10.839  12.497  14.334
29419SOL    HW290155  10.689  12.478  14.349
29420SOL     OW90156   2.983   4.036  10.172
29420SOL    HW190157   3.022   4.119  10.198
29420SOL    HW290158   3.020   3.972  10.232
29421SOL     OW90159   1.553  13.815  13.343
29421SOL    HW190160   1.481  13.776  13.295
29421SOL    HW290161   1.550  13.774  13.430
29422SOL     OW90162   4.788   4.056   7.619
29422SOL    HW190163   4.827   4.075   7.705
29422SOL    HW290164   4.863   4.038   7.563
29423SOL     OW90165   5.845  12.128   4.778
29423SOL    HW190166   5.917  12.097   4.723
29423SOL    HW290167   5.771  12.072   4.753
29424SOL     OW90168   3.893   8.484   8.606
29424SOL    HW190169   3.927   8.432   8.679
29424SOL    HW290170   3.919   8.436   8.528
29425SOL     OW90171   7.837   3.771  10.067
29425SOL    HW190172   7.783   3.765  10.146
29425SOL    HW290173   7.819   3.859  10.033
29426SOL     OW90174  14.342  13.863  11.791
29426SOL    HW190175  14.385  13.949  11.780
29426SOL    HW290176  14.414  13.803  11.809
29427SOL     OW90177   8.611   0.131   9.501
29427SOL    HW190178   8.576   0.095   9.582
29427SOL    HW290179   8.622   0.056   9.444
29428SOL     OW90180   4.322   6.092   3.955
29428SOL    HW190181   4.253   6.100   4.021
29428SOL    HW290182   4.388   6.157   3.980
29429SOL     OW90183   3.869  11.210   5.291
29429SOL    HW190184   3.829  11.182   5.374
29429SOL    HW290185   3.843  11.302   5.281
29430SOL     OW90186   4.325  10.669  11.731
29430SOL    HW190187   4.307  10.762  11.742
29430SOL    HW290188   4.283  10.646  11.648
29431SOL     OW90189   3.562   3.147  11.852
29431SOL    HW190190   3.495   3.126  11.786
29431SOL    HW290191   3.513   3.161  11.933
29432SOL     OW90192   9.557   7.915  13.614
29432SOL    HW190193   9.515   7.830  13.631
29432SOL    HW290194   9.490   7.980  13.637
29433SOL     OW90195  13.510   7.154   5.182
29433SOL    HW190196  13.551   7.117   5.104
29433SOL    HW290197  13.448   7.218   5.147
29434SOL     OW90198   4.038  14.539  13.267
29434SOL    HW190199   4.028  14.455  13.223
29434SOL    HW290200   4.003  14.525  13.355
29435SOL     OW90201   1.094   7.950  12.746
29435SOL    HW190202   1.096   7.865  12.703
29435SOL    HW290203   1.053   8.008  12.682
29436SOL     OW90204   7.590  11.987   8.745
29436SOL    HW190205   7.662  12.050   8.742
29436SOL    HW290206   7.560  11.990   8.836
29437SOL     OW90207   9.733   2.146   3.125
29437SOL    HW190208   9.760   2.238   3.121
29437SOL    HW290209   9.773   2.113   3.205
29438SOL     OW90210   8.192   1.378   4.242
29438SOL    HW190211   8.181   1.283   4.232
29438SOL    HW290212   8.246   1.387   4.321
29439SOL     OW90213   5.542  10.154   0.879
29439SOL    HW190214   5.489  10.232   0.898
29439SOL    HW290215   5.630  10.178   0.908
29440SOL     OW90216   4.559   6.450   4.973
29440SOL    HW190217   4.624   6.517   4.950
29440SOL    HW290218   4.515   6.486   5.050
29441SOL     OW90219   3.472   3.657  13.889
29441SOL    HW190220   3.468   3.749  13.915
29441SOL    HW290221   3.396   3.645  13.832
29442SOL     OW90222   8.582  10.314   4.066
29442SOL    HW190223   8.492  10.293   4.043
29442SOL    HW290224   8.601  10.395   4.019
29443SOL     OW90225   0.495   5.216   4.836
29443SOL    HW190226   0.409   5.193   4.801
29443SOL    HW290227   0.516   5.300   4.797
29444SOL     OW90228   2.048  10.630   8.325
29444SOL    HW190229   2.142  10.612   8.324
29444SOL    HW290230   2.014  10.575   8.395
29445SOL     OW90231   1.679   4.210   5.066
29445SOL    HW190232   1.629   4.137   5.101
29445SOL    HW290233   1.740   4.170   5.004
29446SOL     OW90234  14.174   2.239  14.714
29446SOL    HW190235  14.168   2.270  14.804
29446SOL    HW290236  14.229   2.161  14.720
29447SOL     OW90237   8.999   6.036  12.630
29447SOL    HW190238   9.003   6.089  12.710
29447SOL    HW290239   8.907   6.038  12.604
29448SOL     OW90240   1.916   9.984   4.289
29448SOL    HW190241   1.969   9.914   4.253
29448SOL    HW290242   1.969  10.022   4.359
29449SOL     OW90243   9.268   6.927   4.674
29449SOL    HW190244   9.354   6.946   4.713
29449SOL    HW290245   9.220   6.882   4.743
29450SOL     OW90246   1.756  10.421   4.727
29450SOL    HW190247   1.676  10.441   4.774
29450SOL    HW290248   1.783  10.335   4.760
29451SOL     OW90249   2.231   5.392  12.842
29451SOL    HW190250   2.145   5.376  12.881
29451SOL    HW290251   2.255   5.308  12.803
29452SOL     OW90252  14.312   4.019  11.542
29452SOL    HW190253  14.290   3.982  11.457
29452SOL    HW290254  14.372   4.091  11.522
29453SOL     OW90255   1.493  12.002  13.018
29453SOL    HW190256   1.581  12.018  12.983
29453SOL    HW290257   1.456  11.935  12.961
29454SOL     OW90258  13.386   9.038   7.968
29454SOL    HW190259  13.390   9.123   7.924
29454SOL    HW290260  13.410   9.057   8.059
29455SOL     OW90261   7.996   9.238  13.101
29455SOL    HW190262   8.025   9.263  13.188
29455SOL    HW290263   7.916   9.288  13.086
29456SOL     OW90264   4.709  11.602   7.675
29456SOL    HW190265   4.784  11.553   7.642
29456SOL    HW290266   4.743  11.690   7.690
29457SOL     OW90267   4.820   0.226   3.325
29457SOL    HW190268   4.874   0.230   3.246
29457SOL    HW290269   4.829   0.313   3.365
29458SOL     OW90270   4.734  11.937  11.287
29458SOL    HW190271   4.773  11.930  11.374
29458SOL    HW290272   4.647  11.899  11.297
29459SOL     OW90273   5.716  11.735   7.858
29459SOL    HW190274   5.642  11.718   7.916
29459SOL    HW290275   5.787  11.763   7.916
29460SOL     OW90276  11.396  14.004   7.266
29460SOL    HW190277  11.311  14.039   7.291
29460SOL    HW290278  11.387  13.909   7.279
29461SOL     OW90279   1.742   2.938   3.994
29461SOL    HW190280   1.655   2.898   3.996
29461SOL    HW290281   1.754   2.973   4.082
29462SOL     OW90282   7.054   9.745   7.096
29462SOL    HW190283   7.086   9.798   7.169
29462SOL    HW290284   6.992   9.802   7.051
29463SOL     OW90285  11.981   0.337   9.790
29463SOL    HW190286  11.904   0.283   9.771
29463SOL    HW290287  11.951   0.427   9.774
29464SOL     OW90288   2.199  10.615   1.495
29464SOL    HW190289   2.114  10.641   1.460
29464SOL    HW290290   2.197  10.519   1.494
29465SOL     OW90291  13.648   3.208   2.307
29465SOL    HW190292  13.706   3.248   2.372
29465SOL    HW290293  13.574   3.174   2.358
29466SOL     OW90294  13.879   5.657  12.399
29466SOL    HW190295  13.797   5.618  12.369
29466SOL    HW290296  13.864   5.676  12.492
29467SOL     OW90297   4.380   7.827   2.063
29467SOL    HW190298   4.300   7.776   2.055
29467SOL    HW290299   4.394   7.864   1.976
29468SOL     OW90300   9.555   2.829   3.960
29468SOL    HW190301   9.634   2.820   4.013
29468SOL    HW290302   9.542   2.923   3.952
29469SOL     OW90303  12.614   0.289   9.008
29469SOL    HW190304  12.552   0.282   8.935
29469SOL    HW290305  12.670   0.211   9.000
29470SOL     OW90306   5.460  14.741   5.881
29470SOL    HW190307   5.419  14.745   5.795
29470SOL    HW290308   5.457  14.648   5.904
29471SOL     OW90309   8.951  12.157   1.300
29471SOL    HW190310   8.930  12.115   1.384
29471SOL    HW290311   9.016  12.100   1.260
29472SOL     OW90312   2.941  11.852   8.632
29472SOL    HW190313   2.910  11.766   8.661
29472SOL    HW290314   2.924  11.910   8.707
29473SOL     OW90315  11.912   4.717   5.762
29473SOL    HW190316  11.851   4.689   5.831
29473SOL    HW290317  11.869   4.792   5.722
29474SOL     OW90318   9.523   3.385  10.100
29474SOL    HW190319   9.547   3.300  10.139
29474SOL    HW290320   9.525   3.370  10.006
29475SOL     OW90321   3.518   7.951   9.897
29475SOL    HW190322   3.580   7.878   9.900
29475SOL    HW290323   3.573   8.029   9.887
29476SOL     OW90324  13.865   0.363  13.195
29476SOL    HW190325  13.805   0.381  13.267
29476SOL    HW290326  13.852   0.270  13.175
29477SOL     OW90327   4.112   1.223  12.588
29477SOL    HW190328   4.130   1.141  12.636
29477SOL    HW290329   4.118   1.199  12.496
29478SOL     OW90330   3.146  14.311   0.632
29478SOL    HW190331   3.075  14.335   0.691
29478SOL    HW290332   3.192  14.240   0.677
29479SOL     OW90333  14.310   5.950  12.711
29479SOL    HW190334  14.308   5.886  12.782
29479SOL    HW290335  14.221   5.949  12.675
29480SOL     OW90336   7.582   8.267   6.201
29480SOL    HW190337   7.558   8.350   6.159
29480SOL    HW290338   7.501   8.217   6.203
29481SOL     OW90339   7.984   4.367   1.902
29481SOL    HW190340   8.056   4.425   1.879
29481SOL    HW290341   7.906   4.423   1.898
29482SOL     OW90342   2.280   5.476   6.005
29482SOL    HW190343   2.192   5.504   5.977
29482SOL    HW290344   2.339   5.540   5.965
29483SOL     OW90345   9.395  12.180   7.312
29483SOL    HW190346   9.323  12.150   7.257
29483SOL    HW290347   9.385  12.275   7.315
29484SOL     OW90348   6.874  11.869   0.429
29484SOL    HW190349   6.859  11.775   0.442
29484SOL    HW290350   6.833  11.888   0.345
29485SOL     OW90351  14.081   2.672   9.192
29485SOL    HW190352  14.148   2.707   9.133
29485SOL    HW290353  14.053   2.590   9.150
29486SOL     OW90354  12.171   3.575  11.156
29486SOL    HW190355  12.096   3.618  11.115
29486SOL    HW290356  12.228   3.647  11.183
29487SOL     OW90357   8.514  11.889   7.977
29487SOL    HW190358   8.557  11.944   8.043
29487SOL    HW290359   8.581  11.828   7.948
29488SOL     OW90360  11.430   2.805  11.232
29488SOL    HW190361  11.347   2.829  11.272
29488SOL    HW290362  11.491   2.798  11.306
29489SOL     OW90363   3.358   4.884   0.891
29489SOL    HW190364   3.384   4.831   0.967
29489SOL    HW290365   3.340   4.971   0.927
29490SOL     OW90366   8.352   7.437  13.101
29490SOL    HW190367   8.442   7.450  13.071
29490SOL    HW290368   8.342   7.496  13.176
29491SOL     OW90369   1.856   5.439  10.087
29491SOL    HW190370   1.839   5.434  10.181
29491SOL    HW290371   1.930   5.499  10.079
29492SOL     OW90372   7.642   9.889  13.036
29492SOL    HW190373   7.594   9.960  12.992
29492SOL    HW290374   7.586   9.812  13.027
29493SOL     OW90375  12.225  12.683  13.454
29493SOL    HW190376  12.300  12.628  13.430
29493SOL    HW290377  12.206  12.733  13.375
29494SOL     OW90378   5.163   5.341   9.944
29494SOL    HW190379   5.145   5.435   9.939
29494SOL    HW290380   5.254   5.335   9.972
29495SOL     OW90381  12.809  10.957  12.487
29495SOL    HW190382  12.855  11.039  12.470
29495SOL    HW290383  12.761  10.972  12.568
29496SOL     OW90384   9.139   4.166   8.717
29496SOL    HW190385   9.150   4.190   8.625
29496SOL    HW290386   9.046   4.177   8.733
29497SOL     OW90387  10.818   5.751   8.156
29497SOL    HW190388  10.759   5.813   8.199
29497SOL    HW290389  10.759   5.693   8.107
29498SOL     OW90390  13.519   1.130   8.271
29498SOL    HW190391  13.551   1.220   8.264
29498SOL    HW290392  13.571   1.081   8.208
29499SOL     OW90393   5.325   0.544   9.106
29499SOL    HW190394   5.314   0.637   9.126
29499SOL    HW290395   5.253   0.501   9.152
29500SOL     OW90396   7.938   3.800   1.359
29500SOL    HW190397   7.902   3.747   1.288
29500SOL    HW290398   7.884   3.778   1.435
29501SOL     OW90399   6.004   1.483  10.296
29501SOL    HW190400   5.993   1.392  10.323
29501SOL    HW290401   5.967   1.534  10.368
29502SOL     OW90402   8.181  12.374  11.190
29502SOL    HW190403   8.145  12.367  11.279
29502SOL    HW290404   8.135  12.449  11.152
29503SOL     OW90405   3.000  11.347  12.107
29503SOL    HW190406   2.968  11.354  12.017
29503SOL    HW290407   3.022  11.255  12.118
29504SOL     OW90408   1.006   0.895   7.806
29504SOL    HW190409   1.068   0.823   7.819
29504SOL    HW290410   1.018   0.921   7.715
29505SOL     OW90411   6.577  11.693   7.857
29505SOL    HW190412   6.598  11.766   7.916
29505SOL    HW290413   6.660  11.646   7.847
29506SOL     OW90414  10.197   4.150  14.319
29506SOL    HW190415  10.228   4.127  14.231
29506SOL    HW290416  10.272   4.134  14.376
29507SOL     OW90417  11.229   1.173  11.142
29507SOL    HW190418  11.198   1.251  11.188
29507SOL    HW290419  11.149   1.124  11.122
29508SOL     OW90420   3.394   7.641   8.897
29508SOL    HW190421   3.426   7.557   8.863
29508SOL    HW290422   3.320   7.617   8.952
29509SOL     OW90423   0.179   3.486  10.947
29509SOL    HW190424   0.182   3.569  10.899
29509SOL    HW290425   0.094   3.488  10.991
29510SOL     OW90426  13.036  13.222  12.665
29510SOL    HW190427  12.999  13.182  12.743
29510SOL    HW290428  13.054  13.148  12.607
29511SOL     OW90429   0.341   0.889  12.676
29511SOL    HW190430   0.272   0.826  12.657
29511SOL    HW290431   0.422   0.839  12.671
29512SOL     OW90432  13.590   2.404  12.297
29512SOL    HW190433  13.502   2.438  12.278
29512SOL    HW290434  13.574   2.322  12.344
29513SOL     OW90435   5.838  11.670   1.942
29513SOL    HW190436   5.787  11.733   1.993
29513SOL    HW290437   5.813  11.687   1.851
29514SOL     OW90438   7.168  10.661  13.157
29514SOL    HW190439   7.136  10.652  13.247
29514SOL    HW290440   7.203  10.750  13.153
29515SOL     OW90441  10.697   3.939  14.441
29515SOL    HW190442  10.711   3.884  14.518
29515SOL    HW290443  10.711   4.028  14.473
29516SOL     OW90444   1.107   7.462   8.074
29516SOL    HW190445   1.095   7.513   8.154
29516SOL    HW290446   1.127   7.373   8.105
29517SOL     OW90447  11.674   9.111   5.922
29517SOL    HW190448  11.639   9.022   5.924
29517SOL    HW290449  11.608   9.164   5.967
29518SOL     OW90450  12.590   8.641   1.451
29518SOL    HW190451  12.537   8.672   1.377
29518SOL    HW290452  12.584   8.712   1.516
29519SOL     OW90453   5.220   9.452   3.906
29519SOL    HW190454   5.158   9.517   3.939
29519SOL    HW290455   5.300   9.501   3.890
29520SOL     OW90456   7.251   4.889  11.039
29520SOL    HW190457   7.290   4.804  11.018
29520SOL    HW290458   7.183   4.870  11.103
29521SOL     OW90459   6.727   6.838  13.235
29521SOL    HW190460   6.669   6.807  13.166
29521SOL    HW290461   6.789   6.767  13.249
29522SOL     OW90462   7.398   7.339   4.865
29522SOL    HW190463   7.379   7.431   4.850
29522SOL    HW290464   7.330   7.310   4.926
29523SOL     OW90465   2.616   9.175   0.186
29523SOL    HW190466   2.623   9.218   0.271
29523SOL    HW290467   2.525   9.189   0.159
29524SOL     OW90468   2.484  11.135  10.703
29524SOL    HW190469   2.485  11.047  10.740
29524SOL    HW290470   2.523  11.125  10.616
29525SOL     OW90471   5.573  14.365  12.471
29525SOL    HW190472   5.531  14.437  12.517
29525SOL    HW290473   5.530  14.286  12.505
29526SOL     OW90474   4.014   1.646  14.470
29526SOL    HW190475   4.042   1.561  14.504
29526SOL    HW290476   4.010   1.702  14.548
29527SOL     OW90477   9.873  11.359   9.655
29527SOL    HW190478   9.812  11.364   9.729
29527SOL    HW290479   9.817  11.339   9.580
29528SOL     OW90480   7.892  13.579   7.772
29528SOL    HW190481   7.977  13.535   7.762
29528SOL    HW290482   7.830  13.508   7.785
29529SOL     OW90483   7.016   7.262   7.108
29529SOL    HW190484   6.925   7.291   7.108
29529SOL    HW290485   7.013   7.173   7.072
29530SOL     OW90486   3.577   4.389  13.819
29530SOL    HW190487   3.535   4.450  13.758
29530SOL    HW290488   3.668   4.419  13.823
29531SOL     OW90489   4.922  11.115  13.373
29531SOL    HW190490   4.828  11.117  13.353
29531SOL    HW290491   4.926  11.079  13.462
29532SOL     OW90492   2.095  10.825   0.490
29532SOL    HW190493   2.180  10.854   0.458
29532SOL    HW290494   2.100  10.837   0.585
29533SOL     OW90495   3.609  13.515   8.723
29533SOL    HW190496   3.641  13.425   8.729
29533SOL    HW290497   3.593  13.529   8.630
29534SOL     OW90498   4.317  13.917   1.953
29534SOL    HW190499   4.253  13.894   2.020
29534SOL    HW290500   4.398  13.932   2.002
29535SOL     OW90501   0.517   4.982   0.348
29535SOL    HW190502   0.493   5.075   0.354
29535SOL    HW290503   0.507   4.961   0.255
29536SOL     OW90504  11.354   0.616   4.389
29536SOL    HW190505  11.314   0.580   4.469
29536SOL    HW290506  11.336   0.710   4.394
29537SOL     OW90507   3.468  12.418   2.736
29537SOL    HW190508   3.509  12.377   2.811
29537SOL    HW290509   3.482  12.512   2.749
29538SOL     OW90510   2.054   1.486  14.291
29538SOL    HW190511   1.981   1.458  14.236
29538SOL    HW290512   2.132   1.472  14.238
29539SOL     OW90513   5.654   0.606   6.892
29539SOL    HW190514   5.652   0.526   6.946
29539SOL    HW290515   5.570   0.648   6.908
29540SOL     OW90516   9.034   8.785   4.122
29540SOL    HW190517   8.944   8.752   4.128
29540SOL    HW290518   9.086   8.722   4.171
29541SOL     OW90519   2.278   9.995   2.159
29541SOL    HW190520   2.211  10.049   2.201
29541SOL    HW290521   2.239   9.968   2.076
29542SOL     OW90522   9.024   9.685   1.812
29542SOL    HW190523   9.092   9.644   1.865
29542SOL    HW290524   9.036   9.649   1.724
29543SOL     OW90525   8.459  10.783  14.506
29543SOL    HW190526   8.511  10.794  14.426
29543SOL    HW290527   8.466  10.867  14.551
29544SOL     OW90528  11.969  11.581   8.715
29544SOL    HW190529  12.020  11.515   8.668
29544SOL    HW290530  11.985  11.562   8.807
29545SOL     OW90531   4.117  14.060   7.761
29545SOL    HW190532   4.076  14.016   7.836
29545SOL    HW290533   4.076  14.020   7.684
29546SOL     OW90534   8.885  12.049   6.415
29546SOL    HW190535   8.927  12.082   6.495
29546SOL    HW290536   8.918  12.106   6.345
29547SOL     OW90537   8.878   3.567   9.289
29547SOL    HW190538   8.970   3.556   9.313
29547SOL    HW290539   8.863   3.662   9.293
29548SOL     OW90540  13.006   8.264   0.597
29548SOL    HW190541  12.946   8.322   0.644
29548SOL    HW290542  13.002   8.182   0.646
29549SOL     OW90543   8.149   5.119  13.482
29549SOL    HW190544   8.117   5.197  13.528
29549SOL    HW290545   8.232   5.098  13.526
29550SOL     OW90546  13.588   7.661  14.654
29550SOL    HW190547  13.551   7.691  14.571
29550SOL    HW290548  13.593   7.566  14.645
29551SOL     OW90549  10.074   8.696  12.967
29551SOL    HW190550  10.012   8.640  12.920
29551SOL    HW290551  10.114   8.750  12.899
29552SOL     OW90552  10.496   1.295   9.823
29552SOL    HW190553  10.440   1.231   9.867
29552SOL    HW290554  10.579   1.250   9.808
29553SOL     OW90555   4.950   9.514   5.086
29553SOL    HW190556   5.018   9.573   5.055
29553SOL    HW290557   4.922   9.465   5.009
29554SOL     OW90558  14.408  14.383   4.520
29554SOL    HW190559  14.456  14.383   4.437
29554SOL    HW290560  14.422  14.471   4.555
29555SOL     OW90561   8.117   0.158   9.032
29555SOL    HW190562   8.073   0.073   9.024
29555SOL    HW290563   8.071   0.201   9.104
29556SOL     OW90564   8.185  13.359   7.506
29556SOL    HW190565   8.215  13.270   7.488
29556SOL    HW290566   8.126  13.381   7.434
29557SOL     OW90567  10.727   5.591  11.542
29557SOL    HW190568  10.762   5.576  11.455
29557SOL    HW290569  10.695   5.682  11.540
29558SOL     OW90570   9.054   4.115  14.022
29558SOL    HW190571   9.131   4.076  14.064
29558SOL    HW290572   9.066   4.098  13.928
29559SOL     OW90573   7.656   1.965   8.093
29559SOL    HW190574   7.747   1.963   8.122
29559SOL    HW290575   7.643   2.055   8.062
29560SOL     OW90576   2.970  11.234   7.513
29560SOL    HW190577   2.989  11.185   7.593
29560SOL    HW290578   3.037  11.207   7.451
29561SOL     OW90579  14.803   0.337   6.809
29561SOL    HW190580  14.858   0.403   6.851
29561SOL    HW290581  14.783   0.274   6.879
29562SOL     OW90582   2.692   3.749   7.304
29562SOL    HW190583   2.751   3.700   7.362
29562SOL    HW290584   2.633   3.795   7.363
29563SOL     OW90585  13.377  10.858  13.626
29563SOL    HW190586  13.317  10.859  13.700
29563SOL    HW290587  13.435  10.783  13.643
29564SOL     OW90588  12.503   6.939   3.071
29564SOL    HW190589  12.483   6.926   2.978
29564SOL    HW290590  12.420   6.967   3.109
29565SOL     OW90591   4.620   0.662   9.980
29565SOL    HW190592   4.555   0.715   9.934
29565SOL    HW290593   4.571   0.623  10.053
29566SOL     OW90594   7.520   7.826  14.180
29566SOL    HW190595   7.449   7.881  14.212
29566SOL    HW290596   7.488   7.736  14.189
29567SOL     OW90597   1.245  14.043  14.758
29567SOL    HW190598   1.310  13.984  14.718
29567SOL    HW290599   1.287  14.129  14.759
29568SOL     OW90600   6.572   5.586   4.488
29568SOL    HW190601   6.590   5.661   4.546
29568SOL    HW290602   6.623   5.514   4.525
29569SOL     OW90603   1.587   0.314   8.132
29569SOL    HW190604   1.567   0.314   8.225
29569SOL    HW290605   1.538   0.388   8.097
29570SOL     OW90606   3.720   6.156   3.334
29570SOL    HW190607   3.703   6.075   3.286
29570SOL    HW290608   3.785   6.131   3.400
29571SOL     OW90609  13.948  10.314  10.707
29571SOL    HW190610  13.949  10.281  10.797
29571SOL    HW290611  13.938  10.408  10.716
29572SOL     OW90612   7.376   1.541   5.662
29572SOL    HW190613   7.298   1.540   5.606
29572SOL    HW290614   7.348   1.585   5.742
29573SOL     OW90615  10.586  10.138   4.165
29573SOL    HW190616  10.661  10.197   4.170
29573SOL    HW290617  10.520  10.178   4.222
29574SOL     OW90618  12.857   6.425   4.747
29574SOL    HW190619  12.791   6.377   4.698
29574SOL    HW290620  12.928   6.439   4.684
29575SOL     OW90621   2.087   7.115  12.397
29575SOL    HW190622   2.175   7.134  12.429
29575SOL    HW290623   2.029   7.168  12.452
29576SOL     OW90624  12.836   3.447   4.732
29576SOL    HW190625  12.894   3.408   4.798
29576SOL    HW290626  12.811   3.374   4.675
29577SOL     OW90627  11.391  11.876  13.581
29577SOL    HW190628  11.362  11.822  13.508
29577SOL    HW290629  11.311  11.917  13.614
29578SOL     OW90630   2.159   3.248  11.242
29578SOL    HW190631   2.092   3.183  11.260
29578SOL    HW290632   2.182   3.283  11.328
29579SOL     OW90633   9.826   7.185   5.556
29579SOL    HW190634   9.765   7.140   5.615
29579SOL    HW290635   9.913   7.167   5.594
29580SOL     OW90636   5.726  13.227   4.055
29580SOL    HW190637   5.745  13.287   3.982
29580SOL    HW290638   5.776  13.262   4.128
29581SOL     OW90639  12.883   7.959  14.424
29581SOL    HW190640  12.947   7.983  14.357
29581SOL    HW290641  12.934   7.915  14.492
29582SOL     OW90642  14.407   8.537  11.503
29582SOL    HW190643  14.328   8.531  11.449
29582SOL    HW290644  14.432   8.629  11.499
29583SOL     OW90645   6.197   8.149   8.486
29583SOL    HW190646   6.198   8.156   8.582
29583SOL    HW290647   6.269   8.205   8.458
29584SOL     OW90648   2.412  11.056  13.114
29584SOL    HW190649   2.406  11.084  13.205
29584SOL    HW290650   2.495  11.010  13.108
29585SOL     OW90651  10.270   5.008  12.623
29585SOL    HW190652  10.232   5.060  12.552
29585SOL    HW290653  10.364   5.027  12.619
29586SOL     OW90654   0.142   5.438   0.020
29586SOL    HW190655   0.149   5.355  14.842
29586SOL    HW290656   0.122   5.502  14.821
29587SOL     OW90657   6.973  12.026   2.548
29587SOL    HW190658   6.956  12.011   2.641
29587SOL    HW290659   7.069  12.022   2.540
29588SOL     OW90660   3.714   8.697  10.543
29588SOL    HW190661   3.666   8.615  10.553
29588SOL    HW290662   3.647   8.763  10.529
29589SOL     OW90663   6.657   6.008  13.991
29589SOL    HW190664   6.705   5.957  14.056
29589SOL    HW290665   6.625   6.084  14.038
29590SOL     OW90666  11.479  14.129   1.332
29590SOL    HW190667  11.561  14.157   1.374
29590SOL    HW290668  11.413  14.138   1.401
29591SOL     OW90669   8.732   3.749   3.006
29591SOL    HW190670   8.762   3.740   2.916
29591SOL    HW290671   8.757   3.838   3.030
29592SOL     OW90672   1.071   8.375   2.844
29592SOL    HW190673   1.153   8.337   2.876
29592SOL    HW290674   1.006   8.307   2.858
29593SOL     OW90675   2.130   3.007  12.039
29593SOL    HW190676   2.218   2.987  12.072
29593SOL    HW290677   2.126   2.964  11.954
29594SOL     OW90678  10.352   1.957   7.626
29594SOL    HW190679  10.444   1.978   7.612
29594SOL    HW290680  10.304   2.034   7.595
29595SOL     OW90681   1.065   5.349  11.476
29595SOL    HW190682   0.992   5.314  11.425
29595SOL    HW290683   1.106   5.414  11.418
29596SOL     OW90684  13.537  12.385   3.564
29596SOL    HW190685  13.557  12.371   3.657
29596SOL    HW290686  13.494  12.304   3.537
29597SOL     OW90687   8.834   3.378   9.952
29597SOL    HW190688   8.818   3.284   9.944
29597SOL    HW290689   8.768   3.419   9.896
29598SOL     OW90690  10.595   3.237   6.588
29598SOL    HW190691  10.638   3.318   6.614
29598SOL    HW290692  10.502   3.254   6.599
29599SOL     OW90693   4.780  10.800   7.148
29599SOL    HW190694   4.769  10.836   7.236
29599SOL    HW290695   4.852  10.738   7.156
29600SOL     OW90696  14.488   8.838  13.557
29600SOL    HW190697  14.403   8.808  13.590
29600SOL    HW290698  14.480   8.832  13.461
29601SOL     OW90699   5.377  10.589   3.987
29601SOL    HW190700   5.319  10.525   3.945
29601SOL    HW290701   5.318  10.646   4.037
29602SOL     OW90702   4.892  13.277  10.925
29602SOL    HW190703   4.954  13.204  10.922
29602SOL    HW290704   4.825  13.249  10.987
29603SOL     OW90705  12.741   3.836  14.808
29603SOL    HW190706  12.664   3.886  14.836
29603SOL    HW290707  12.741   3.758  14.864
29604SOL     OW90708  13.275   3.813   6.787
29604SOL    HW190709  13.365   3.787   6.769
29604SOL    HW290710  13.242   3.747   6.847
29605SOL     OW90711   0.214   5.951   4.416
29605SOL    HW190712   0.218   5.957   4.512
29605SOL    HW290713   0.189   6.039   4.388
29606SOL     OW90714   3.202   1.381   0.459
29606SOL    HW190715   3.206   1.325   0.537
29606SOL    HW290716   3.195   1.319   0.386
29607SOL     OW90717  13.116   4.798   5.016
29607SOL    HW190718  13.177   4.814   5.088
29607SOL    HW290719  13.030   4.796   5.058
29608SOL     OW90720  14.374  11.029   8.255
29608SOL    HW190721  14.398  11.026   8.162
29608SOL    HW290722  14.296  11.084   8.258
29609SOL     OW90723  10.928   2.569  10.141
29609SOL    HW190724  10.838   2.595  10.120
29609SOL    HW290725  10.977   2.585  10.061
29610SOL     OW90726   7.947   0.051   3.172
29610SOL    HW190727   7.963   0.126   3.115
29610SOL    HW290728   7.898   0.087   3.246
29611SOL     OW90729   3.866   6.546   3.173
29611SOL    HW190730   3.885   6.532   3.266
29611SOL    HW290731   3.932   6.609   3.144
29612SOL     OW90732   2.737  11.952   4.016
29612SOL    HW190733   2.643  11.964   4.005
29612SOL    HW290734   2.745  11.885   4.084
29613SOL     OW90735   8.242   1.535   3.110
29613SOL    HW190736   8.248   1.621   3.067
29613SOL    HW290737   8.195   1.552   3.191
29614SOL     OW90738   8.508   1.144  14.365
29614SOL    HW190739   8.449   1.107  14.299
29614SOL    HW290740   8.538   1.226  14.326
29615SOL     OW90741  14.246  10.572  13.268
29615SOL    HW190742  14.293  10.626  13.332
29615SOL    HW290743  14.282  10.484  13.279
29616SOL     OW90744   0.225   6.512   1.210
29616SOL    HW190745   0.276   6.478   1.136
29616SOL    HW290746   0.290   6.535   1.276
29617SOL     OW90747   4.230   7.870   0.800
29617SOL    HW190748   4.254   7.780   0.778
29617SOL    HW290749   4.230   7.916   0.716
29618SOL     OW90750   9.205  11.939   6.908
29618SOL    HW190751   9.289  11.935   6.954
29618SOL    HW290752   9.140  11.936   6.978
29619SOL     OW90753   5.970  10.737   7.634
29619SOL    HW190754   6.012  10.655   7.609
29619SOL    HW290755   6.027  10.805   7.597
29620SOL     OW90756   7.533   7.627   5.629
29620SOL    HW190757   7.452   7.610   5.678
29620SOL    HW290758   7.599   7.644   5.697
29621SOL     OW90759   3.866   3.823  11.182
29621SOL    HW190760   3.948   3.871  11.176
29621SOL    HW290761   3.869   3.762  11.109
29622SOL     OW90762   9.457   6.887   8.562
29622SOL    HW190763   9.394   6.906   8.632
29622SOL    HW290764   9.404   6.852   8.491
29623SOL     OW90765   3.319   3.083   0.635
29623SOL    HW190766   3.242   3.085   0.578
29623SOL    HW290767   3.391   3.113   0.579
29624SOL     OW90768  12.060   4.076  12.313
29624SOL    HW190769  12.123   4.131  12.266
29624SOL    HW290770  12.076   4.095  12.405
29625SOL     OW90771   1.937   5.976   9.812
29625SOL    HW190772   1.878   6.016   9.876
29625SOL    HW290773   1.972   5.899   9.856
29626SOL     OW90774   6.364   3.573  14.702
29626SOL    HW190775   6.312   3.537  14.629
29626SOL    HW290776   6.299   3.612  14.760
29627SOL     OW90777   3.242   6.193  13.292
29627SOL    HW190778   3.256   6.259  13.360
29627SOL    HW290779   3.273   6.111  13.331
29628SOL     OW90780   2.729   7.522   0.187
29628SOL    HW190781   2.767   7.610   0.191
29628SOL    HW290782   2.736   7.496   0.095
29629SOL     OW90783  14.478   0.796  10.403
29629SOL    HW190784  14.479   0.817  10.309
29629SOL    HW290785  14.448   0.705  10.406
29630SOL     OW90786   6.075   8.456  13.121
29630SOL    HW190787   6.064   8.539  13.074
29630SOL    HW290788   6.050   8.475  13.211
29631SOL     OW90789  13.063  13.646   8.963
29631SOL    HW190790  13.112  13.644   9.045
29631SOL    HW290791  12.988  13.588   8.979
29632SOL     OW90792  12.881   6.375   0.669
29632SOL    HW190793  12.897   6.463   0.633
29632SOL    HW290794  12.872   6.319   0.591
29633SOL     OW90795   1.436   0.583  10.116
29633SOL    HW190796   1.398   0.531  10.045
29633SOL    HW290797   1.437   0.524  10.191
29634SOL     OW90798   9.996  12.356   5.204
29634SOL    HW190799   9.983  12.268   5.240
29634SOL    HW290800  10.049  12.342   5.126
29635SOL     OW90801  12.745  14.673   7.218
29635SOL    HW190802  12.825  14.675   7.271
29635SOL    HW290803  12.749  14.589   7.172
29636SOL     OW90804  11.226  13.187   6.667
29636SOL    HW190805  11.227  13.246   6.592
29636SOL    HW290806  11.299  13.216   6.722
29637SOL     OW90807   6.917  10.533  11.534
29637SOL    HW190808   6.997  10.549  11.485
29637SOL    HW290809   6.872  10.617  11.533
29638SOL     OW90810   2.657   1.386   3.347
29638SOL    HW190811   2.657   1.481   3.344
29638SOL    HW290812   2.746   1.361   3.320
29639SOL     OW90813  10.103  14.036   8.690
29639SOL    HW190814  10.107  14.049   8.785
29639SOL    HW290815  10.174  14.089   8.656
29640SOL     OW90816   1.539   0.851   1.083
29640SOL    HW190817   1.592   0.811   1.014
29640SOL    HW290818   1.455   0.871   1.040
29641SOL     OW90819   7.194   9.825   0.416
29641SOL    HW190820   7.148   9.844   0.334
29641SOL    HW290821   7.240   9.743   0.399
29642SOL     OW90822   1.665   0.797   6.724
29642SOL    HW190823   1.735   0.737   6.699
29642SOL    HW290824   1.585   0.747   6.710
29643SOL     OW90825  14.860   3.921  12.323
29643SOL    HW190826   0.018   3.882  12.406
29643SOL    HW290827   0.061   3.983  12.302
29644SOL     OW90828   7.846  12.716  13.258
29644SOL    HW190829   7.768  12.664  13.240
29644SOL    HW290830   7.813  12.794  13.302
29645SOL     OW90831   4.814  12.098   7.498
29645SOL    HW190832   4.900  12.122   7.462
29645SOL    HW290833   4.751  12.150   7.448
29646SOL     OW90834   7.480   8.242   9.612
29646SOL    HW190835   7.429   8.162   9.610
29646SOL    HW290836   7.497   8.258   9.705
29647SOL     OW90837   0.404   7.634   3.667
29647SOL    HW190838   0.450   7.566   3.619
29647SOL    HW290839   0.348   7.677   3.601
29648SOL     OW90840   3.589   9.730   0.723
29648SOL    HW190841   3.543   9.678   0.658
29648SOL    HW290842   3.568   9.689   0.807
29649SOL     OW90843  11.609   1.449   9.118
29649SOL    HW190844  11.520   1.479   9.140
29649SOL    HW290845  11.667   1.507   9.166
29650SOL     OW90846  12.555   0.533   1.587
29650SOL    HW190847  12.482   0.481   1.552
29650SOL    HW290848  12.533   0.623   1.564
29651SOL     OW90849   0.289  12.832   7.385
29651SOL    HW190850   0.254  12.919   7.367
29651SOL    HW290851   0.226  12.792   7.445
29652SOL     OW90852  13.268  10.222   4.557
29652SOL    HW190853  13.277  10.262   4.644
29652SOL    HW290854  13.341  10.258   4.507
29653SOL     OW90855   2.281   3.670   3.825
29653SOL    HW190856   2.262   3.614   3.900
29653SOL    HW290857   2.342   3.736   3.859
29654SOL     OW90858  12.297   0.860  10.320
29654SOL    HW190859  12.338   0.779  10.351
29654SOL    HW290860  12.251   0.834  10.240
29655SOL     OW90861  12.068  12.032   6.955
29655SOL    HW190862  12.141  12.052   6.897
29655SOL    HW290863  12.003  12.099   6.936
29656SOL     OW90864   6.865   4.535   5.202
29656SOL    HW190865   6.931   4.477   5.241
29656SOL    HW290866   6.871   4.616   5.253
29657SOL     OW90867   2.024   8.033   9.660
29657SOL    HW190868   2.027   8.032   9.755
29657SOL    HW290869   2.104   8.078   9.633
29658SOL     OW90870   3.832   4.232   8.471
29658SOL    HW190871   3.869   4.282   8.398
29658SOL    HW290872   3.870   4.272   8.549
29659SOL     OW90873  13.982   9.425   6.329
29659SOL    HW190874  13.972   9.342   6.283
29659SOL    HW290875  13.894   9.460   6.334
29660SOL     OW90876  14.094  13.859   2.721
29660SOL    HW190877  14.049  13.789   2.675
29660SOL    HW290878  14.122  13.919   2.653
29661SOL     OW90879  14.367   0.073   2.275
29661SOL    HW190880  14.397   0.150   2.324
29661SOL    HW290881  14.442   0.049   2.220
29662SOL     OW90882  10.845   7.748   5.743
29662SOL    HW190883  10.894   7.805   5.801
29662SOL    HW290884  10.880   7.766   5.656
29663SOL     OW90885  10.368   3.449  11.095
29663SOL    HW190886  10.432   3.388  11.132
29663SOL    HW290887  10.341   3.503  11.169
29664SOL     OW90888  13.786   3.190   8.798
29664SOL    HW190889  13.712   3.219   8.744
29664SOL    HW290890  13.775   3.238   8.880
29665SOL     OW90891  10.344   8.077  13.933
29665SOL    HW190892  10.397   8.007  13.896
29665SOL    HW290893  10.343   8.146  13.866
29666SOL     OW90894   4.886   6.898   2.188
29666SOL    HW190895   4.818   6.880   2.252
29666SOL    HW290896   4.968   6.901   2.238
29667SOL     OW90897   6.447  11.481   1.655
29667SOL    HW190898   6.445  11.422   1.580
29667SOL    HW290899   6.365  11.530   1.649
29668SOL     OW90900  12.694  10.286  10.744
29668SOL    HW190901  12.614  10.242  10.715
29668SOL    HW290902  12.765  10.225  10.722
29669SOL     OW90903   7.625   3.900  12.389
29669SOL    HW190904   7.603   3.983  12.347
29669SOL    HW290905   7.687   3.859  12.328
29670SOL     OW90906   8.879  13.263   1.341
29670SOL    HW190907   8.803  13.210   1.316
29670SOL    HW290908   8.915  13.294   1.257
29671SOL     OW90909   4.050   9.025   5.453
29671SOL    HW190910   3.991   8.956   5.423
29671SOL    HW290911   4.043   9.094   5.387
29672SOL     OW90912   7.043   4.658   1.022
29672SOL    HW190913   7.016   4.728   1.082
29672SOL    HW290914   6.985   4.668   0.946
29673SOL     OW90915   7.744  10.613  11.487
29673SOL    HW190916   7.758  10.698  11.444
29673SOL    HW290917   7.660  10.623  11.532
29674SOL     OW90918   2.315   2.299   0.566
29674SOL    HW190919   2.386   2.363   0.570
29674SOL    HW290920   2.332   2.249   0.485
29675SOL     OW90921   9.958  11.366  13.962
29675SOL    HW190922   9.983  11.286  14.008
29675SOL    HW290923   9.978  11.436  14.024
29676SOL     OW90924   8.109   5.204   4.292
29676SOL    HW190925   8.041   5.192   4.225
29676SOL    HW290926   8.072   5.164   4.371
29677SOL     OW90927  14.025   0.810  12.434
29677SOL    HW190928  14.022   0.859  12.351
29677SOL    HW290929  13.938   0.822  12.472
29678SOL     OW90930  13.040   9.308   8.673
29678SOL    HW190931  13.041   9.349   8.760
29678SOL    HW290932  12.971   9.243   8.679
29679SOL     OW90933   4.124  13.250  13.422
29679SOL    HW190934   4.112  13.328  13.475
29679SOL    HW290935   4.096  13.276  13.334
29680SOL     OW90936   5.604  12.140   2.443
29680SOL    HW190937   5.626  12.167   2.354
29680SOL    HW290938   5.688  12.127   2.486
29681SOL     OW90939  10.469  10.959   7.014
29681SOL    HW190940  10.545  10.963   6.957
29681SOL    HW290941  10.485  10.884   7.070
29682SOL     OW90942   8.259  10.371   1.385
29682SOL    HW190943   8.176  10.417   1.373
29682SOL    HW290944   8.267  10.361   1.480
29683SOL     OW90945   9.355  10.859  12.451
29683SOL    HW190946   9.340  10.820  12.537
29683SOL    HW290947   9.432  10.815  12.417
29684SOL     OW90948   8.902   7.108   5.387
29684SOL    HW190949   8.880   7.174   5.321
29684SOL    HW290950   8.900   7.156   5.470
29685SOL     OW90951   6.391   6.542  14.305
29685SOL    HW190952   6.388   6.544  14.210
29685SOL    HW290953   6.480   6.570  14.327
29686SOL     OW90954   5.967  14.104   6.170
29686SOL    HW190955   6.027  14.178   6.183
29686SOL    HW290956   6.022  14.034   6.135
29687SOL     OW90957  10.478   2.442   6.670
29687SOL    HW190958  10.476   2.531   6.705
29687SOL    HW290959  10.530   2.393   6.733
29688SOL     OW90960  11.605   8.801  10.128
29688SOL    HW190961  11.663   8.875  10.147
29688SOL    HW290962  11.659   8.739  10.079
29689SOL     OW90963   6.982   4.318   6.028
29689SOL    HW190964   6.986   4.367   6.111
29689SOL    HW290965   6.904   4.352   5.984
29690SOL     OW90966   2.635  12.256   0.724
29690SOL    HW190967   2.697  12.298   0.784
29690SOL    HW290968   2.679  12.258   0.639
29691SOL     OW90969   9.396   8.810  10.055
29691SOL    HW190970   9.472   8.798   9.998
29691SOL    HW290971   9.346   8.880  10.013
29692SOL     OW90972  13.310  11.202   2.417
29692SOL    HW190973  13.337  11.232   2.504
29692SOL    HW290974  13.250  11.269   2.386
29693SOL     OW90975   5.127   7.860   8.968
29693SOL    HW190976   5.191   7.822   8.908
29693SOL    HW290977   5.067   7.909   8.912
29694SOL     OW90978  10.795   5.869  11.353
29694SOL    HW190979  10.863   5.911  11.300
29694SOL    HW290980  10.801   5.776  11.328
29695SOL     OW90981  12.452   2.800  14.105
29695SOL    HW190982  12.373   2.831  14.062
29695SOL    HW290983  12.498   2.749  14.038
29696SOL     OW90984  14.600   0.401   4.908
29696SOL    HW190985  14.554   0.423   4.827
29696SOL    HW290986  14.553   0.324   4.941
29697SOL     OW90987  11.409  13.245   4.953
29697SOL    HW190988  11.324  13.271   4.917
29697SOL    HW290989  11.420  13.302   5.030
29698SOL     OW90990   0.624   6.379   0.522
29698SOL    HW190991   0.610   6.472   0.543
29698SOL    HW290992   0.624   6.376   0.426
29699SOL     OW90993   3.055   2.676   5.081
29699SOL    HW190994   3.031   2.745   5.019
29699SOL    HW290995   3.052   2.595   5.030
29700SOL     OW90996   4.340   3.729   5.737
29700SOL    HW190997   4.435   3.720   5.742
29700SOL    HW290998   4.321   3.730   5.643
29701SOL     OW90999   7.080   4.281   0.143
29701SOL    HW191000   7.159   4.245   0.184
29701SOL    HW291001   7.082   4.374   0.163
29702SOL     OW91002   0.941  14.628   6.829
29702SOL    HW191003   0.978  14.616   6.917
29702SOL    HW291004   0.927  14.538   6.797
29703SOL     OW91005  12.460   4.938   7.040
29703SOL    HW191006  12.380   4.889   7.061
29703SOL    HW291007  12.528   4.897   7.094
29704SOL     OW91008  14.077  14.780  14.602
29704SOL    HW191009  14.147  14.844  14.617
29704SOL    HW291010  14.056  14.789  14.509
29705SOL     OW91011   0.558   2.506  10.043
29705SOL    HW191012   0.643   2.538  10.013
29705SOL    HW291013   0.494   2.567  10.006
29706SOL     OW91014  11.138  13.320   4.818
29706SOL    HW191015  11.130  13.227   4.841
29706SOL    HW291016  11.094  13.327   4.733
29707SOL     OW91017  10.937   5.762  13.340
29707SOL    HW191018  10.976   5.848  13.352
29707SOL    HW291019  11.008   5.707  13.307
29708SOL     OW91020   4.806   7.130   1.842
29708SOL    HW191021   4.722   7.113   1.884
29708SOL    HW291022   4.822   7.223   1.856
29709SOL     OW91023   5.879   5.783  10.009
29709SOL    HW191024   5.829   5.865  10.017
29709SOL    HW291025   5.970   5.809  10.026
29710SOL     OW91026  11.150   8.522   1.591
29710SOL    HW191027  11.208   8.541   1.517
29710SOL    HW291028  11.066   8.560   1.566
29711SOL     OW91029   9.081   9.306  11.090
29711SOL    HW191030   9.008   9.340  11.037
29711SOL    HW291031   9.041   9.285  11.175
29712SOL     OW91032   6.444   4.889   5.603
29712SOL    HW191033   6.454   4.978   5.571
29712SOL    HW291034   6.377   4.850   5.548
29713SOL     OW91035  12.787  11.681   1.882
29713SOL    HW191036  12.796  11.599   1.931
29713SOL    HW291037  12.810  11.749   1.946
29714SOL     OW91038   8.337  13.623  10.762
29714SOL    HW191039   8.312  13.584  10.846
29714SOL    HW291040   8.381  13.553  10.715
29715SOL     OW91041   2.567   2.855   5.852
29715SOL    HW191042   2.530   2.792   5.914
29715SOL    HW291043   2.660   2.835   5.849
29716SOL     OW91044   2.244   6.444  10.193
29716SOL    HW191045   2.271   6.361  10.156
29716SOL    HW291046   2.278   6.510  10.133
29717SOL     OW91047  14.787   1.923   6.724
29717SOL    HW191048  14.807   1.969   6.643
29717SOL    HW291049  14.821   1.834   6.711
29718SOL     OW91050   3.491   5.044   5.329
29718SOL    HW191051   3.509   5.106   5.400
29718SOL    HW291052   3.570   5.045   5.276
29719SOL     OW91053   5.001  14.642   7.682
29719SOL    HW191054   4.924  14.588   7.699
29719SOL    HW291055   4.964  14.726   7.653
29720SOL     OW91056   3.165   3.194  11.358
29720SOL    HW191057   3.143   3.112  11.313
29720SOL    HW291058   3.261   3.198  11.354
29721SOL     OW91059   0.984  14.783  14.034
29721SOL    HW191060   1.074  14.766  14.060
29721SOL    HW291061   0.942  14.697  14.030
29722SOL     OW91062   4.255  10.542  13.162
29722SOL    HW191063   4.252  10.607  13.233
29722SOL    HW291064   4.222  10.462  13.202
29723SOL     OW91065   1.230   4.578  13.685
29723SOL    HW191066   1.296   4.629  13.732
29723SOL    HW291067   1.160   4.641  13.668
29724SOL     OW91068   2.278   6.500  12.209
29724SOL    HW191069   2.372   6.492  12.192
29724SOL    HW291070   2.272   6.560  12.284
29725SOL     OW91071   5.917   6.653  13.619
29725SOL    HW191072   5.900   6.583  13.556
29725SOL    HW291073   5.991   6.701  13.581
29726SOL     OW91074   1.669   5.375   1.560
29726SOL    HW191075   1.670   5.297   1.505
29726SOL    HW291076   1.611   5.352   1.633
29727SOL     OW91077   3.419   0.835   7.228
29727SOL    HW191078   3.436   0.929   7.228
29727SOL    HW291079   3.349   0.823   7.292
29728SOL     OW91080   6.395   4.164   9.741
29728SOL    HW191081   6.352   4.236   9.787
29728SOL    HW291082   6.330   4.134   9.677
29729SOL     OW91083   9.353   4.080   7.197
29729SOL    HW191084   9.342   4.019   7.269
29729SOL    HW291085   9.268   4.084   7.155
29730SOL     OW91086   5.919  13.070   2.827
29730SOL    HW191087   5.848  13.113   2.780
29730SOL    HW291088   5.944  12.997   2.770
29731SOL     OW91089  12.816   9.099   4.818
29731SOL    HW191090  12.757   9.096   4.742
29731SOL    HW291091  12.788   9.177   4.866
29732SOL     OW91092  11.827   0.386   7.471
29732SOL    HW191093  11.741   0.428   7.480
29732SOL    HW291094  11.808   0.296   7.445
29733SOL     OW91095  14.678   5.711  12.542
29733SOL    HW191096  14.658   5.794  12.585
29733SOL    HW291097  14.604   5.696  12.484
29734SOL     OW91098   7.227  12.141  14.729
29734SOL    HW191099   7.301  12.183  14.685
29734SOL    HW291100   7.263  12.108  14.811
29735SOL     OW91101   5.412   7.746   4.511
29735SOL    HW191102   5.391   7.839   4.501
29735SOL    HW291103   5.354   7.715   4.580
29736SOL     OW91104   8.274  11.071   7.985
29736SOL    HW191105   8.317  11.135   7.929
29736SOL    HW291106   8.259  11.118   8.068
29737SOL     OW91107  11.996   3.083   9.852
29737SOL    HW191108  12.083   3.095   9.813
29737SOL    HW291109  11.991   3.151   9.920
29738SOL     OW91110  11.673   9.521   2.140
29738SOL    HW191111  11.596   9.476   2.106
29738SOL    HW291112  11.717   9.454   2.193
29739SOL     OW91113   6.850   9.922  13.077
29739SOL    HW191114   6.905   9.889  13.006
29739SOL    HW291115   6.880  10.012  13.091
29740SOL     OW91116  11.798  12.123  13.493
29740SOL    HW191117  11.733  12.134  13.562
29740SOL    HW291118  11.766  12.049  13.441
29741SOL     OW91119  11.605   4.315  10.338
29741SOL    HW191120  11.609   4.236  10.391
29741SOL    HW291121  11.587   4.284  10.250
29742SOL     OW91122  14.537   4.893   5.822
29742SOL    HW191123  14.453   4.924   5.788
29742SOL    HW291124  14.549   4.807   5.782
29743SOL     OW91125   2.007  14.132   3.708
29743SOL    HW191126   1.916  14.115   3.732
29743SOL    HW291127   2.010  14.226   3.689
29744SOL     OW91128  10.530   4.575   8.550
29744SOL    HW191129  10.535   4.668   8.569
29744SOL    HW291130  10.440   4.550   8.573
29745SOL     OW91131  10.615   5.392  14.303
29745SOL    HW191132  10.685   5.389  14.368
29745SOL    HW291133  10.604   5.485  14.282
29746SOL     OW91134  14.199   0.387   4.784
29746SOL    HW191135  14.284   0.428   4.768
29746SOL    HW291136  14.135   0.454   4.759
29747SOL     OW91137   3.857   6.417   9.013
29747SOL    HW191138   3.946   6.391   9.037
29747SOL    HW291139   3.838   6.493   9.068
29748SOL     OW91140   1.448   6.252   8.002
29748SOL    HW191141   1.413   6.289   7.921
29748SOL    HW291142   1.541   6.239   7.983
29749SOL     OW91143   4.696  11.171   6.753
29749SOL    HW191144   4.722  11.263   6.749
29749SOL    HW291145   4.714  11.146   6.844
29750SOL     OW91146  12.563   2.193   3.509
29750SOL    HW191147  12.657   2.182   3.502
29750SOL    HW291148  12.551   2.263   3.573
29751SOL     OW91149  11.291  11.162   4.957
29751SOL    HW191150  11.380  11.175   4.924
29751SOL    HW291151  11.301  11.163   5.053
29752SOL     OW91152   8.604   2.955  14.362
29752SOL    HW191153   8.610   2.919  14.450
29752SOL    HW291154   8.518   2.998  14.360
29753SOL     OW91155   0.945  12.457   8.430
29753SOL    HW191156   1.011  12.387   8.431
29753SOL    HW291157   0.996  12.537   8.415
29754SOL     OW91158   8.137   8.842  13.430
29754SOL    HW191159   8.081   8.773  13.467
29754SOL    HW291160   8.174   8.803  13.351
29755SOL     OW91161  13.154  14.534   2.424
29755SOL    HW191162  13.116  14.605   2.476
29755SOL    HW291163  13.164  14.462   2.485
29756SOL     OW91164   4.877   0.570   9.936
29756SOL    HW191165   4.877   0.584   9.841
29756SOL    HW291166   4.787   0.592   9.963
29757SOL     OW91167  14.600   0.069   5.825
29757SOL    HW191168  14.595   0.129   5.900
29757SOL    HW291169  14.526   0.010   5.836
29758SOL     OW91170   1.874   2.914  12.303
29758SOL    HW191171   1.901   2.903  12.212
29758SOL    HW291172   1.785   2.880  12.307
29759SOL     OW91173   0.964   3.387  13.131
29759SOL    HW191174   0.980   3.472  13.171
29759SOL    HW291175   1.051   3.356  13.105
29760SOL     OW91176   2.171   5.810   6.007
29760SOL    HW191177   2.145   5.887   5.956
29760SOL    HW291178   2.242   5.771   5.955
29761SOL     OW91179   0.962  10.979  10.859
29761SOL    HW191180   0.987  10.974  10.952
29761SOL    HW291181   1.000  10.901  10.819
29762SOL     OW91182   3.435   1.622  10.880
29762SOL    HW191183   3.473   1.548  10.833
29762SOL    HW291184   3.502   1.690  10.879
29763SOL     OW91185   0.287  14.620   4.473
29763SOL    HW191186   0.379  14.617   4.500
29763SOL    HW291187   0.282  14.697   4.416
29764SOL     OW91188  14.529  12.915  10.024
29764SOL    HW191189  14.478  12.988   9.990
29764SOL    HW291190  14.612  12.954  10.052
29765SOL     OW91191   9.972  12.576  10.236
29765SOL    HW191192   9.894  12.628  10.253
29765SOL    HW291193   9.983  12.522  10.314
29766SOL     OW91194   9.010   5.485  11.646
29766SOL    HW191195   9.099   5.492  11.681
29766SOL    HW291196   9.009   5.547  11.572
29767SOL     OW91197   9.842   5.022   3.520
29767SOL    HW191198   9.770   5.067   3.565
29767SOL    HW291199   9.801   4.975   3.448
29768SOL     OW91200   1.415   1.896   1.204
29768SOL    HW191201   1.329   1.934   1.189
29768SOL    HW291202   1.411   1.809   1.164
29769SOL     OW91203   8.525  13.242   3.451
29769SOL    HW191204   8.549  13.161   3.405
29769SOL    HW291205   8.589  13.307   3.420
29770SOL     OW91206   6.989   0.346   4.563
29770SOL    HW191207   6.949   0.420   4.519
29770SOL    HW291208   7.082   0.368   4.568
29771SOL     OW91209  13.742  14.515  12.891
29771SOL    HW191210  13.703  14.489  12.974
29771SOL    HW291211  13.778  14.434  12.854
29772SOL     OW91212  14.821  12.173   6.944
29772SOL    HW191213  14.760  12.131   7.004
29772SOL    HW291214   0.006  12.101   6.911
29773SOL     OW91215  11.051  13.721   7.619
29773SOL    HW191216  11.081  13.639   7.659
29773SOL    HW291217  11.027  13.697   7.530
29774SOL     OW91218  13.160   0.164   1.612
29774SOL    HW191219  13.136   0.155   1.520
29774SOL    HW291220  13.140   0.079   1.651
29775SOL     OW91221   3.518   1.689   9.666
29775SOL    HW191222   3.465   1.614   9.640
29775SOL    HW291223   3.603   1.652   9.689
29776SOL     OW91224   2.362   8.454   8.329
29776SOL    HW191225   2.332   8.418   8.413
29776SOL    HW291226   2.427   8.520   8.354
29777SOL     OW91227   3.790   8.200   2.675
29777SOL    HW191228   3.799   8.186   2.580
29777SOL    HW291229   3.855   8.268   2.695
29778SOL     OW91230  10.205   0.978   0.910
29778SOL    HW191231  10.228   0.928   0.832
29778SOL    HW291232  10.133   0.930   0.949
29779SOL     OW91233   8.280   5.788   2.868
29779SOL    HW191234   8.332   5.822   2.941
29779SOL    HW291235   8.196   5.833   2.877
29780SOL     OW91236   2.091   1.658  11.223
29780SOL    HW191237   2.013   1.609  11.250
29780SOL    HW291238   2.154   1.590  11.198
29781SOL     OW91239  12.492  14.468   8.268
29781SOL    HW191240  12.485  14.375   8.287
29781SOL    HW291241  12.568  14.497   8.319
29782SOL     OW91242   8.656   1.257   7.042
29782SOL    HW191243   8.629   1.319   6.975
29782SOL    HW291244   8.609   1.286   7.121
29783SOL     OW91245  12.375   8.139   6.286
29783SOL    HW191246  12.446   8.181   6.335
29783SOL    HW291247  12.298   8.150   6.342
29784SOL     OW91248   5.098   6.358  10.062
29784SOL    HW191249   5.188   6.349  10.029
29784SOL    HW291250   5.043   6.336   9.987
29785SOL     OW91251  13.732  10.323  14.608
29785SOL    HW191252  13.666  10.372  14.657
29785SOL    HW291253  13.757  10.382  14.536
29786SOL     OW91254  14.367   4.003   1.283
29786SOL    HW191255  14.442   4.061   1.299
29786SOL    HW291256  14.406   3.916   1.278
29787SOL     OW91257   4.314   6.533   3.385
29787SOL    HW191258   4.301   6.616   3.340
29787SOL    HW291259   4.341   6.558   3.473
29788SOL     OW91260   4.293   7.072   6.280
29788SOL    HW191261   4.382   7.067   6.244
29788SOL    HW291262   4.252   7.144   6.232
29789SOL     OW91263  12.292   7.979   9.752
29789SOL    HW191264  12.203   7.984   9.787
29789SOL    HW291265  12.299   7.891   9.715
29790SOL     OW91266   9.460   9.738  11.855
29790SOL    HW191267   9.395   9.667  11.852
29790SOL    HW291268   9.460   9.773  11.766
29791SOL     OW91269   5.062   8.083   1.222
29791SOL    HW191270   5.030   8.126   1.143
29791SOL    HW291271   4.996   8.017   1.242
29792SOL     OW91272   2.512  11.419   7.272
29792SOL    HW191273   2.485  11.327   7.278
29792SOL    HW291274   2.594  11.423   7.322
29793SOL     OW91275   8.365  14.562   6.937
29793SOL    HW191276   8.447  14.514   6.929
29793SOL    HW291277   8.386  14.639   6.989
29794SOL     OW91278  14.515   2.368   5.553
29794SOL    HW191279  14.429   2.348   5.590
29794SOL    HW291280  14.545   2.444   5.602
29795SOL     OW91281   5.531  14.488  12.826
29795SOL    HW191282   5.590  14.561  12.846
29795SOL    HW291283   5.454  14.505  12.880
29796SOL     OW91284   1.875   3.215   8.782
29796SOL    HW191285   1.964   3.200   8.814
29796SOL    HW291286   1.878   3.187   8.690
29797SOL     OW91287   7.951   2.011   4.231
29797SOL    HW191288   7.891   1.939   4.246
29797SOL    HW291289   7.911   2.086   4.274
29798SOL     OW91290  12.744   0.252  10.117
29798SOL    HW191291  12.746   0.245  10.212
29798SOL    HW291292  12.654   0.277  10.096
29799SOL     OW91293   9.428   2.369   2.734
29799SOL    HW191294   9.394   2.285   2.765
29799SOL    HW291295   9.378   2.386   2.654
29800SOL     OW91296  12.387   3.359  12.012
29800SOL    HW191297  12.380   3.310  11.930
29800SOL    HW291298  12.481   3.368  12.027
29801SOL     OW91299  12.359   0.403   7.097
29801SOL    HW191300  12.272   0.375   7.066
29801SOL    HW291301  12.346   0.494   7.124
29802SOL     OW91302   4.287   7.322   6.599
29802SOL    HW191303   4.213   7.269   6.569
29802SOL    HW291304   4.318   7.367   6.521
29803SOL     OW91305  14.509  10.632   8.623
29803SOL    HW191306  14.566  10.646   8.548
29803SOL    HW291307  14.440  10.697   8.614
29804SOL     OW91308   4.805   6.780   6.484
29804SOL    HW191309   4.799   6.756   6.577
29804SOL    HW291310   4.721   6.752   6.447
29805SOL     OW91311   4.735   5.875   1.219
29805SOL    HW191312   4.760   5.927   1.295
29805SOL    HW291313   4.817   5.862   1.171
29806SOL     OW91314   5.953   5.786   0.314
29806SOL    HW191315   6.037   5.746   0.293
29806SOL    HW291316   5.899   5.715   0.348
29807SOL     OW91317  13.999   8.648   8.158
29807SOL    HW191318  13.945   8.672   8.082
29807SOL    HW291319  13.977   8.557   8.175
29808SOL     OW91320   8.927   4.997   2.775
29808SOL    HW191321   8.930   5.070   2.837
29808SOL    HW291322   8.992   5.020   2.708
29809SOL     OW91323   2.992  10.485   2.916
29809SOL    HW191324   2.922  10.421   2.903
29809SOL    HW291325   3.032  10.494   2.829
29810SOL     OW91326  13.390  11.482   1.186
29810SOL    HW191327  13.305  11.443   1.207
29810SOL    HW291328  13.451  11.438   1.246
29811SOL     OW91329  11.962  13.130  10.023
29811SOL    HW191330  11.926  13.219  10.027
29811SOL    HW291331  11.941  13.093  10.109
29812SOL     OW91332   7.640   9.525   2.650
29812SOL    HW191333   7.702   9.579   2.601
29812SOL    HW291334   7.591   9.478   2.583
29813SOL     OW91335  12.686   8.833   2.807
29813SOL    HW191336  12.691   8.821   2.713
29813SOL    HW291337  12.764   8.884   2.829
29814SOL     OW91338   3.285   9.550   5.350
29814SOL    HW191339   3.293   9.644   5.337
29814SOL    HW291340   3.324   9.534   5.436
29815SOL     OW91341   3.227   2.480   0.095
29815SOL    HW191342   3.218   2.565   0.053
29815SOL    HW291343   3.163   2.424   0.050
29816SOL     OW91344   8.955   9.939   8.143
29816SOL    HW191345   8.983   9.938   8.234
29816SOL    HW291346   8.961  10.031   8.116
29817SOL     OW91347  12.640   5.519  14.639
29817SOL    HW191348  12.684   5.440  14.609
29817SOL    HW291349  12.690   5.591  14.602
29818SOL     OW91350  13.007   5.521  14.454
29818SOL    HW191351  12.987   5.435  14.490
29818SOL    HW291352  12.983   5.515  14.361
29819SOL     OW91353   1.053  10.570   6.482
29819SOL    HW191354   0.964  10.540   6.501
29819SOL    HW291355   1.048  10.607   6.394
29820SOL     OW91356  14.117  12.075   7.149
29820SOL    HW191357  14.077  12.103   7.231
29820SOL    HW291358  14.048  12.028   7.103
29821SOL     OW91359  10.689  12.243   2.397
29821SOL    HW191360  10.633  12.301   2.346
29821SOL    HW291361  10.667  12.262   2.488
29822SOL     OW91362   0.979  12.114  14.602
29822SOL    HW191363   1.009  12.077  14.685
29822SOL    HW291364   0.884  12.113  14.608
29823SOL     OW91365   1.941   0.435   3.091
29823SOL    HW191366   1.849   0.462   3.094
29823SOL    HW291367   1.939   0.347   3.053
29824SOL     OW91368   4.624   0.795   2.253
29824SOL    HW191369   4.554   0.788   2.317
29824SOL    HW291370   4.616   0.715   2.201
29825SOL     OW91371   5.960  12.170  10.922
29825SOL    HW191372   6.037  12.161  10.978
29825SOL    HW291373   5.989  12.230  10.852
29826SOL     OW91374  14.298   7.575   1.102
29826SOL    HW191375  14.330   7.658   1.137
29826SOL    HW291376  14.222   7.554   1.156
29827SOL     OW91377   5.806   4.625   4.453
29827SOL    HW191378   5.726   4.635   4.504
29827SOL    HW291379   5.870   4.591   4.516
29828SOL     OW91380  12.819   4.032   8.409
29828SOL    HW191381  12.856   3.988   8.486
29828SOL    HW291382  12.822   4.125   8.430
29829SOL     OW91383   9.811  11.763   4.031
29829SOL    HW191384   9.748  11.739   3.962
29829SOL    HW291385   9.772  11.840   4.072
29830SOL     OW91386   4.728  13.843  11.263
29830SOL    HW191387   4.672  13.766  11.253
29830SOL    HW291388   4.673  13.917  11.239
29831SOL     OW91389   5.245   1.845   4.012
29831SOL    HW191390   5.227   1.752   4.029
29831SOL    HW291391   5.203   1.862   3.927
29832SOL     OW91392   1.629   8.304   6.274
29832SOL    HW191393   1.718   8.335   6.289
29832SOL    HW291394   1.580   8.332   6.352
29833SOL     OW91395   4.276  13.067  12.778
29833SOL    HW191396   4.372  13.063  12.784
29833SOL    HW291397   4.255  13.015  12.701
29834SOL     OW91398  13.944   4.146  13.562
29834SOL    HW191399  13.987   4.230  13.542
29834SOL    HW291400  13.882   4.133  13.490
29835SOL     OW91401  12.769   6.860  12.973
29835SOL    HW191402  12.714   6.911  13.032
29835SOL    HW291403  12.759   6.770  13.003
29836SOL     OW91404   9.313   8.707   8.871
29836SOL    HW191405   9.226   8.686   8.907
29836SOL    HW291406   9.371   8.640   8.907
29837SOL     OW91407  11.910   7.066  10.947
29837SOL    HW191408  11.841   7.101  11.003
29837SOL    HW291409  11.943   6.990  10.994
29838SOL     OW91410   1.949   9.200  11.048
29838SOL    HW191411   1.880   9.261  11.020
29838SOL    HW291412   1.917   9.114  11.022
29839SOL     OW91413  12.465  11.886   4.791
29839SOL    HW191414  12.446  11.797   4.822
29839SOL    HW291415  12.434  11.943   4.861
29840SOL     OW91416  10.989   5.363   9.056
29840SOL    HW191417  11.073   5.404   9.034
29840SOL    HW291418  10.932   5.436   9.078
29841SOL     OW91419   3.723  14.054   4.571
29841SOL    HW191420   3.683  14.006   4.499
29841SOL    HW291421   3.816  14.061   4.546
29842SOL     OW91422   0.900   5.714   7.845
29842SOL    HW191423   0.808   5.689   7.859
29842SOL    HW291424   0.921   5.769   7.921
29843SOL     OW91425   4.740  11.616  11.006
29843SOL    HW191426   4.706  11.701  10.979
29843SOL    HW291427   4.715  11.557  10.935
29844SOL     OW91428   8.246   3.561   1.772
29844SOL    HW191429   8.162   3.515   1.781
29844SOL    HW291430   8.298   3.530   1.846
29845SOL     OW91431   5.909   9.729  14.647
29845SOL    HW191432   5.851   9.661  14.614
29845SOL    HW291433   5.947   9.768  14.568
29846SOL     OW91434   5.297   8.676  14.559
29846SOL    HW191435   5.247   8.757  14.550
29846SOL    HW291436   5.234   8.613  14.594
29847SOL     OW91437   4.699  14.592   1.716
29847SOL    HW191438   4.783  14.563   1.750
29847SOL    HW291439   4.718  14.675   1.673
29848SOL     OW91440   9.121   3.899   1.011
29848SOL    HW191441   9.204   3.858   0.986
29848SOL    HW291442   9.131   3.990   0.983
29849SOL     OW91443  12.133   9.031  13.352
29849SOL    HW191444  12.202   9.045  13.287
29849SOL    HW291445  12.168   8.966  13.412
29850SOL     OW91446   7.392   3.833   5.133
29850SOL    HW191447   7.345   3.818   5.215
29850SOL    HW291448   7.474   3.874   5.159
29851SOL     OW91449  10.829   4.411   8.668
29851SOL    HW191450  10.773   4.443   8.739
29851SOL    HW291451  10.911   4.460   8.679
29852SOL     OW91452   6.690   1.385   8.877
29852SOL    HW191453   6.720   1.428   8.796
29852SOL    HW291454   6.767   1.337   8.908
29853SOL     OW91455   5.486  10.210   0.513
29853SOL    HW191456   5.398  10.218   0.549
29853SOL    HW291457   5.538  10.273   0.564
29854SOL     OW91458   5.161   1.202   9.235
29854SOL    HW191459   5.223   1.133   9.257
29854SOL    HW291460   5.124   1.229   9.319
29855SOL     OW91461  11.656  11.870  13.479
29855SOL    HW191462  11.588  11.817  13.438
29855SOL    HW291463  11.656  11.842  13.571
29856SOL     OW91464   6.492  11.067   8.933
29856SOL    HW191465   6.443  11.132   8.983
29856SOL    HW291466   6.541  11.018   8.999
29857SOL     OW91467   7.755   2.329  14.096
29857SOL    HW191468   7.766   2.299  14.187
29857SOL    HW291469   7.791   2.418  14.096
29858SOL     OW91470   5.536   8.806  14.022
29858SOL    HW191471   5.481   8.837  14.094
29858SOL    HW291472   5.571   8.722  14.052
29859SOL     OW91473   5.911   0.958  14.556
29859SOL    HW191474   5.891   1.049  14.537
29859SOL    HW291475   5.839   0.929  14.613
29860SOL     OW91476   5.291  11.593   8.666
29860SOL    HW191477   5.270  11.679   8.631
29860SOL    HW291478   5.377  11.604   8.706
29861SOL     OW91479   1.411   7.178   9.784
29861SOL    HW191480   1.340   7.242   9.792
29861SOL    HW291481   1.449   7.173   9.871
29862SOL     OW91482   4.805   3.163   2.237
29862SOL    HW191483   4.769   3.213   2.310
29862SOL    HW291484   4.765   3.201   2.159
29863SOL     OW91485   3.744  12.153   9.165
29863SOL    HW191486   3.770  12.241   9.192
29863SOL    HW291487   3.730  12.160   9.070
29864SOL     OW91488   3.877  14.755   8.976
29864SOL    HW191489   3.970  14.770   8.986
29864SOL    HW291490   3.870  14.661   8.955
29865SOL     OW91491   3.241  13.075  12.671
29865SOL    HW191492   3.219  13.041  12.585
29865SOL    HW291493   3.200  13.161  12.675
29866SOL     OW91494   7.205  14.193  13.235
29866SOL    HW191495   7.230  14.149  13.154
29866SOL    HW291496   7.244  14.280  13.227
29867SOL     OW91497  10.915   3.662  14.454
29867SOL    HW191498  10.934   3.727  14.386
29867SOL    HW291499  10.976   3.683  14.525
29868SOL     OW91500  13.273   4.414  10.619
29868SOL    HW191501  13.324   4.364  10.556
29868SOL    HW291502  13.264   4.356  10.695
29869SOL     OW91503   9.099  11.282   8.396
29869SOL    HW191504   9.111  11.324   8.310
29869SOL    HW291505   9.089  11.189   8.376
29870SOL     OW91506   4.923   5.072  11.899
29870SOL    HW191507   4.836   5.033  11.897
29870SOL    HW291508   4.961   5.052  11.814
29871SOL     OW91509   5.626   8.801  11.792
29871SOL    HW191510   5.587   8.745  11.859
29871SOL    HW291511   5.716   8.815  11.820
29872SOL     OW91512   9.490   1.767   3.777
29872SOL    HW191513   9.556   1.817   3.728
29872SOL    HW291514   9.406   1.801   3.745
29873SOL     OW91515  12.145   1.254  12.734
29873SOL    HW191516  12.169   1.175  12.782
29873SOL    HW291517  12.224   1.308  12.735
29874SOL     OW91518   8.079   4.302   6.338
29874SOL    HW191519   8.173   4.320   6.328
29874SOL    HW291520   8.071   4.270   6.428
29875SOL     OW91521   0.287  14.241  12.264
29875SOL    HW191522   0.317  14.150  12.264
29875SOL    HW291523   0.339  14.283  12.195
29876SOL     OW91524  13.722  13.413  12.628
29876SOL    HW191525  13.752  13.379  12.544
29876SOL    HW291526  13.628  13.428  12.616
29877SOL     OW91527   7.759   0.025   2.876
29877SOL    HW191528   7.679   0.033   2.825
29877SOL    HW291529   7.742  14.822   2.936
29878SOL     OW91530   3.105   7.738   7.599
29878SOL    HW191531   3.068   7.812   7.646
29878SOL    HW291532   3.086   7.755   7.507
29879SOL     OW91533   4.928   8.197   4.631
29879SOL    HW191534   4.849   8.144   4.644
29879SOL    HW291535   4.977   8.187   4.712
29880SOL     OW91536  11.575  12.531   1.770
29880SOL    HW191537  11.508  12.597   1.786
29880SOL    HW291538  11.642  12.549   1.836
29881SOL     OW91539   3.027   9.702   2.018
29881SOL    HW191540   3.018   9.742   1.932
29881SOL    HW291541   3.072   9.619   2.001
29882SOL     OW91542  14.729   1.994  14.513
29882SOL    HW191543  14.672   2.001  14.590
29882SOL    HW291544  14.808   1.953  14.546
29883SOL     OW91545   6.011  14.554   1.260
29883SOL    HW191546   6.086  14.500   1.285
29883SOL    HW291547   5.936  14.509   1.300
29884SOL     OW91548  12.768  13.755   0.070
29884SOL    HW191549  12.735  13.692   0.134
29884SOL    HW291550  12.736  13.723  14.856
29885SOL     OW91551   3.491   5.374  12.607
29885SOL    HW191552   3.520   5.339  12.522
29885SOL    HW291553   3.395   5.371  12.602
29886SOL     OW91554   8.652   0.735   9.299
29886SOL    HW191555   8.697   0.698   9.375
29886SOL    HW291556   8.587   0.669   9.275
29887SOL     OW91557   3.105   4.390  11.845
29887SOL    HW191558   3.013   4.370  11.828
29887SOL    HW291559   3.144   4.307  11.872
29888SOL     OW91560   6.933   9.529   2.696
29888SOL    HW191561   7.016   9.506   2.737
29888SOL    HW291562   6.951   9.531   2.602
29889SOL     OW91563  10.160  10.836  14.326
29889SOL    HW191564  10.162  10.740  14.336
29889SOL    HW291565  10.092  10.851  14.261
29890SOL     OW91566   4.308   9.331   3.951
29890SOL    HW191567   4.224   9.293   3.974
29890SOL    HW291568   4.306   9.419   3.991
29891SOL     OW91569   0.427   6.057  12.740
29891SOL    HW191570   0.480   6.135  12.727
29891SOL    HW291571   0.359   6.084  12.802
29892SOL     OW91572   8.290   7.509  14.126
29892SOL    HW191573   8.221   7.554  14.174
29892SOL    HW291574   8.355   7.578  14.109
29893SOL     OW91575   7.520  12.148  13.423
29893SOL    HW191576   7.448  12.151  13.360
29893SOL    HW291577   7.599  12.163  13.370
29894SOL     OW91578   4.540   6.582   5.220
29894SOL    HW191579   4.467   6.563   5.279
29894SOL    HW291580   4.618   6.565   5.273
29895SOL     OW91581   2.230   6.141  14.701
29895SOL    HW191582   2.254   6.165  14.790
29895SOL    HW291583   2.143   6.102  14.710
29896SOL     OW91584   6.650   5.775  13.687
29896SOL    HW191585   6.608   5.752  13.770
29896SOL    HW291586   6.597   5.847  13.653
29897SOL     OW91587   0.960  14.090   1.455
29897SOL    HW191588   0.908  14.025   1.502
29897SOL    HW291589   1.033  14.110   1.513
29898SOL     OW91590   3.174  10.714   1.896
29898SOL    HW191591   3.181  10.809   1.889
29898SOL    HW291592   3.081  10.696   1.888
29899SOL     OW91593   8.496   8.785   6.000
29899SOL    HW191594   8.473   8.736   6.078
29899SOL    HW291595   8.523   8.871   6.032
29900SOL     OW91596  14.754   3.891   9.723
29900SOL    HW191597  14.824   3.835   9.690
29900SOL    HW291598  14.686   3.831   9.753
29901SOL     OW91599   2.251  14.420   6.695
29901SOL    HW191600   2.299  14.469   6.628
29901SOL    HW291601   2.274  14.463   6.777
29902SOL     OW91602   8.008  10.176  10.971
29902SOL    HW191603   7.956  10.254  10.990
29902SOL    HW291604   7.948  10.119  10.923
29903SOL     OW91605   4.428   1.314   1.960
29903SOL    HW191606   4.339   1.309   1.925
29903SOL    HW291607   4.417   1.326   2.054
29904SOL     OW91608   4.918   4.089   9.400
29904SOL    HW191609   4.828   4.059   9.411
29904SOL    HW291610   4.917   4.138   9.318
29905SOL     OW91611   0.467  14.714  14.799
29905SOL    HW191612   0.434  14.684   0.014
29905SOL    HW291613   0.520  14.641  14.767
29906SOL     OW91614   5.669   1.543  11.860
29906SOL    HW191615   5.603   1.485  11.898
29906SOL    HW291616   5.620   1.623  11.837
29907SOL     OW91617   2.595  14.710  10.465
29907SOL    HW191618   2.578  14.615  10.464
29907SOL    HW291619   2.542  14.742  10.537
29908SOL     OW91620   4.883  14.564   6.227
29908SOL    HW191621   4.815  14.630   6.243
29908SOL    HW291622   4.888  14.516   6.310
29909SOL     OW91623   5.178   5.184   9.006
29909SOL    HW191624   5.199   5.171   8.913
29909SOL    HW291625   5.168   5.278   9.015
29910SOL     OW91626   7.195   6.313   6.058
29910SOL    HW191627   7.112   6.266   6.048
29910SOL    HW291628   7.256   6.246   6.089
29911SOL     OW91629   9.249   3.800   0.422
29911SOL    HW191630   9.162   3.838   0.407
29911SOL    HW291631   9.269   3.821   0.513
29912SOL     OW91632   5.824   0.121  14.228
29912SOL    HW191633   5.768   0.140  14.304
29912SOL    HW291634   5.840   0.027  14.234
29913SOL     OW91635   2.278   2.331  10.347
29913SOL    HW191636   2.293   2.412  10.396
29913SOL    HW291637   2.272   2.263  10.414
29914SOL     OW91638   9.825   9.258   3.528
29914SOL    HW191639   9.844   9.209   3.608
29914SOL    HW291640   9.742   9.222   3.497
29915SOL     OW91641   4.511   5.151   3.496
29915SOL    HW191642   4.547   5.114   3.577
29915SOL    HW291643   4.434   5.098   3.478
29916SOL     OW91644  13.531   7.232   6.027
29916SOL    HW191645  13.553   7.284   5.950
29916SOL    HW291646  13.480   7.291   6.083
29917SOL     OW91647   6.716   3.142   7.909
29917SOL    HW191648   6.683   3.172   7.994
29917SOL    HW291649   6.738   3.223   7.863
29918SOL     OW91650   5.172   9.815  12.277
29918SOL    HW191651   5.263   9.844  12.275
29918SOL    HW291652   5.122   9.888  12.239
29919SOL     OW91653   3.951  10.040   6.945
29919SOL    HW191654   3.859  10.066   6.944
29919SOL    HW291655   3.998  10.118   6.915
29920SOL     OW91656   1.770   8.286   3.772
29920SOL    HW191657   1.860   8.317   3.758
29920SOL    HW291658   1.731   8.353   3.828
29921SOL     OW91659   6.118   8.111   4.378
29921SOL    HW191660   6.212   8.099   4.395
29921SOL    HW291661   6.114   8.142   4.288
29922SOL     OW91662   7.705   8.289   8.727
29922SOL    HW191663   7.682   8.228   8.797
29922SOL    HW291664   7.653   8.367   8.746
29923SOL     OW91665   1.528   4.553   2.401
29923SOL    HW191666   1.483   4.635   2.421
29923SOL    HW291667   1.540   4.511   2.486
29924SOL     OW91668   5.556   3.938   1.933
29924SOL    HW191669   5.480   3.891   1.899
29924SOL    HW291670   5.600   3.972   1.855
29925SOL     OW91671  13.336   1.842   7.431
29925SOL    HW191672  13.274   1.853   7.359
29925SOL    HW291673  13.284   1.854   7.510
29926SOL     OW91674   5.578   8.790   9.234
29926SOL    HW191675   5.534   8.793   9.150
29926SOL    HW291676   5.535   8.858   9.286
29927SOL     OW91677  11.305  10.881  13.780
29927SOL    HW191678  11.289  10.943  13.851
29927SOL    HW291679  11.345  10.806  13.822
29928SOL     OW91680  13.024  11.243  10.070
29928SOL    HW191681  12.961  11.304  10.108
29928SOL    HW291682  13.069  11.205  10.145
29929SOL     OW91683   5.622  10.586  14.547
29929SOL    HW191684   5.633  10.639  14.626
29929SOL    HW291685   5.627  10.496  14.577
29930SOL     OW91686   7.517   5.702   3.385
29930SOL    HW191687   7.527   5.729   3.294
29930SOL    HW291688   7.536   5.781   3.435
29931SOL     OW91689  10.015   0.104   5.618
29931SOL    HW191690  10.046   0.185   5.578
29931SOL    HW291691   9.998   0.046   5.544
29932SOL     OW91692   5.118   4.069   4.479
29932SOL    HW191693   5.209   4.093   4.464
29932SOL    HW291694   5.118   4.027   4.565
29933SOL     OW91695  11.726   5.423  14.531
29933SOL    HW191696  11.639   5.463  14.519
29933SOL    HW291697  11.708   5.329  14.537
29934SOL     OW91698  12.136   1.974   5.147
29934SOL    HW191699  12.184   2.048   5.109
29934SOL    HW291700  12.119   1.916   5.073
29935SOL     OW91701  12.718   0.893   2.599
29935SOL    HW191702  12.743   0.803   2.621
29935SOL    HW291703  12.739   0.943   2.678
29936SOL     OW91704   2.813  10.206  10.448
29936SOL    HW191705   2.836  10.120  10.484
29936SOL    HW291706   2.719  10.214  10.463
29937SOL     OW91707   5.752  11.482  12.253
29937SOL    HW191708   5.706  11.404  12.284
29937SOL    HW291709   5.731  11.550  12.317
29938SOL     OW91710   2.202   1.202   4.313
29938SOL    HW191711   2.143   1.179   4.242
29938SOL    HW291712   2.289   1.190   4.276
29939SOL     OW91713  10.423   4.382   2.734
29939SOL    HW191714  10.397   4.298   2.772
29939SOL    HW291715  10.488   4.359   2.668
29940SOL     OW91716   4.364  10.385   3.363
29940SOL    HW191717   4.349  10.477   3.385
29940SOL    HW291718   4.331  10.376   3.274
29941SOL     OW91719   3.762  12.366   9.525
29941SOL    HW191720   3.784  12.389   9.435
29941SOL    HW291721   3.681  12.314   9.518
29942SOL     OW91722   6.808  11.845   2.420
29942SOL    HW191723   6.756  11.809   2.492
29942SOL    HW291724   6.864  11.910   2.461
29943SOL     OW91725  10.178   3.597   7.211
29943SOL    HW191726  10.086   3.607   7.235
29943SOL    HW291727  10.215   3.544   7.281
29944SOL     OW91728  14.194   9.382  14.800
29944SOL    HW191729  14.228   9.468  14.826
29944SOL    HW291730  14.172   9.392  14.707
29945SOL     OW91731   2.672   5.421   4.632
29945SOL    HW191732   2.701   5.397   4.544
29945SOL    HW291733   2.661   5.337   4.676
29946SOL     OW91734  12.361   3.941   4.132
29946SOL    HW191735  12.330   3.993   4.207
29946SOL    HW291736  12.454   3.927   4.150
29947SOL     OW91737   3.861   0.168  10.798
29947SOL    HW191738   3.863   0.130  10.886
29947SOL    HW291739   3.871   0.262  10.812
29948SOL     OW91740   1.912   4.428  12.434
29948SOL    HW191741   1.913   4.339  12.399
29948SOL    HW291742   1.992   4.468  12.401
29949SOL     OW91743   0.716  10.824  13.409
29949SOL    HW191744   0.688  10.747  13.458
29949SOL    HW291745   0.663  10.896  13.446
29950SOL     OW91746  10.677   1.838   9.290
29950SOL    HW191747  10.596   1.845   9.239
29950SOL    HW291748  10.745   1.873   9.232
29951SOL     OW91749   0.558   6.938  14.605
29951SOL    HW191750   0.497   7.012  14.596
29951SOL    HW291751   0.598   6.930  14.518
29952SOL     OW91752  10.373   0.158   6.892
29952SOL    HW191753  10.372   0.064   6.874
29952SOL    HW291754  10.286   0.188   6.864
29953SOL     OW91755  13.244   7.527  12.009
29953SOL    HW191756  13.197   7.608  12.029
29953SOL    HW291757  13.178   7.472  11.966
29954SOL     OW91758   3.866   7.776  13.138
29954SOL    HW191759   3.890   7.854  13.188
29954SOL    HW291760   3.779   7.752  13.172
29955SOL     OW91761  11.394   4.805   2.016
29955SOL    HW191762  11.374   4.714   2.037
29955SOL    HW291763  11.415   4.846   2.100
29956SOL     OW91764   9.647  11.237   3.623
29956SOL    HW191765   9.570  11.261   3.571
29956SOL    HW291766   9.620  11.251   3.713
29957SOL     OW91767   5.378  10.179   0.258
29957SOL    HW191768   5.450  10.169   0.320
29957SOL    HW291769   5.328  10.098   0.264
29958SOL     OW91770   5.550   8.977   4.270
29958SOL    HW191771   5.589   9.056   4.306
29958SOL    HW291772   5.559   8.986   4.175
29959SOL     OW91773   0.797   9.131   4.704
29959SOL    HW191774   0.807   9.190   4.779
29959SOL    HW291775   0.729   9.172   4.651
29960SOL     OW91776  10.456   6.852   1.690
29960SOL    HW191777  10.476   6.942   1.718
29960SOL    HW291778  10.452   6.802   1.771
29961SOL     OW91779   7.646   3.635  13.496
29961SOL    HW191780   7.603   3.671  13.574
29961SOL    HW291781   7.663   3.544  13.518
29962SOL     OW91782   6.681   2.506   6.586
29962SOL    HW191783   6.617   2.452   6.633
29962SOL    HW291784   6.719   2.446   6.521
29963SOL     OW91785   6.614   8.738   5.885
29963SOL    HW191786   6.548   8.735   5.815
29963SOL    HW291787   6.675   8.806   5.858
29964SOL     OW91788   9.951   5.413   7.587
29964SOL    HW191789   9.990   5.488   7.542
29964SOL    HW291790   9.961   5.433   7.680
29965SOL     OW91791   6.178   7.012   4.927
29965SOL    HW191792   6.175   7.061   4.844
29965SOL    HW291793   6.229   6.933   4.906
29966SOL     OW91794   5.968   7.850   5.896
29966SOL    HW191795   5.909   7.777   5.875
29966SOL    HW291796   5.990   7.888   5.811
29967SOL     OW91797   8.749   3.395  13.641
29967SOL    HW191798   8.722   3.477  13.682
29967SOL    HW291799   8.703   3.328  13.691
29968SOL     OW91800   7.988   4.059   1.220
29968SOL    HW191801   7.996   3.973   1.259
29968SOL    HW291802   8.003   4.120   1.292
29969SOL     OW91803   5.810   7.971  12.324
29969SOL    HW191804   5.716   7.983  12.339
29969SOL    HW291805   5.815   7.938  12.234
29970SOL     OW91806   5.396   5.427   8.080
29970SOL    HW191807   5.317   5.479   8.096
29970SOL    HW291808   5.464   5.470   8.130
29971SOL     OW91809  11.659  13.531   4.330
29971SOL    HW191810  11.571  13.537   4.367
29971SOL    HW291811  11.696  13.453   4.370
29972SOL     OW91812  10.947   3.588   7.575
29972SOL    HW191813  11.026   3.541   7.603
29972SOL    HW291814  10.886   3.579   7.648
29973SOL     OW91815   2.846  13.357  12.821
29973SOL    HW191816   2.827  13.263  12.819
29973SOL    HW291817   2.766  13.398  12.787
29974SOL     OW91818   3.951   8.863   7.709
29974SOL    HW191819   3.891   8.879   7.636
29974SOL    HW291820   3.993   8.779   7.688
29975SOL     OW91821   8.142   9.118   2.217
29975SOL    HW191822   8.096   9.198   2.191
29975SOL    HW291823   8.075   9.066   2.262
29976SOL     OW91824   8.234   0.204   2.158
29976SOL    HW191825   8.271   0.162   2.081
29976SOL    HW291826   8.157   0.152   2.180
29977SOL     OW91827   5.348   9.227   2.376
29977SOL    HW191828   5.304   9.169   2.314
29977SOL    HW291829   5.331   9.315   2.342
29978SOL     OW91830  14.352   5.077   1.226
29978SOL    HW191831  14.321   5.050   1.312
29978SOL    HW291832  14.284   5.137   1.194
29979SOL     OW91833   5.144   0.455   4.377
29979SOL    HW191834   5.191   0.476   4.296
29979SOL    HW291835   5.197   0.386   4.418
29980SOL     OW91836   8.932   7.589   4.405
29980SOL    HW191837   8.959   7.631   4.487
29980SOL    HW291838   9.011   7.548   4.372
29981SOL     OW91839  11.992   7.574   6.994
29981SOL    HW191840  12.078   7.573   6.952
29981SOL    HW291841  11.988   7.492   7.043
29982SOL     OW91842   5.603   6.158  14.068
29982SOL    HW191843   5.563   6.206  14.141
29982SOL    HW291844   5.551   6.182  13.992
29983SOL     OW91845  14.608  14.815  12.685
29983SOL    HW191846  14.601   0.010  12.756
29983SOL    HW291847  14.689  14.838  12.640
29984SOL     OW91848   7.270   0.380  14.136
29984SOL    HW191849   7.221   0.356  14.216
29984SOL    HW291850   7.295   0.471  14.150
29985SOL     OW91851   0.260   1.921   9.456
29985SOL    HW191852   0.316   1.864   9.404
29985SOL    HW291853   0.303   2.007   9.451
29986SOL     OW91854   3.294  10.569   9.704
29986SOL    HW191855   3.286  10.656   9.743
29986SOL    HW291856   3.277  10.509   9.777
29987SOL     OW91857   4.824  12.953  11.527
29987SOL    HW191858   4.844  12.892  11.456
29987SOL    HW291859   4.902  13.007  11.535
29988SOL     OW91860   7.730  14.086   1.061
29988SOL    HW191861   7.743  14.112   0.969
29988SOL    HW291862   7.819  14.082   1.097
29989SOL     OW91863   5.287   5.341  13.074
29989SOL    HW191864   5.291   5.309  12.984
29989SOL    HW291865   5.300   5.436  13.066
29990SOL     OW91866  11.028   2.380   0.005
29990SOL    HW191867  10.944   2.377   0.051
29990SOL    HW291868  11.005   2.411  14.787
29991SOL     OW91869   5.512   6.077   4.334
29991SOL    HW191870   5.507   6.026   4.253
29991SOL    HW291871   5.606   6.082   4.353
29992SOL     OW91872   1.792  13.862  12.287
29992SOL    HW191873   1.863  13.925  12.280
29992SOL    HW291874   1.815  13.793  12.226
29993SOL     OW91875   6.698  14.122   8.148
29993SOL    HW191876   6.739  14.075   8.221
29993SOL    HW291877   6.729  14.076   8.069
29994SOL     OW91878   0.459   1.142  14.490
29994SOL    HW191879   0.372   1.121  14.457
29994SOL    HW291880   0.449   1.228  14.531
29995SOL     OW91881   8.699  10.747  11.622
29995SOL    HW191882   8.660  10.691  11.689
29995SOL    HW291883   8.626  10.795  11.585
29996SOL     OW91884   4.431  11.265   2.551
29996SOL    HW191885   4.438  11.207   2.627
29996SOL    HW291886   4.339  11.261   2.525
29997SOL     OW91887   6.763  14.029   4.835
29997SOL    HW191888   6.731  13.939   4.833
29997SOL    HW291889   6.696  14.077   4.885
29998SOL     OW91890  13.448   3.308   6.378
29998SOL    HW191891  13.366   3.266   6.405
29998SOL    HW291892  13.501   3.237   6.343
29999SOL     OW91893   1.584   0.624   1.236
29999SOL    HW191894   1.537   0.693   1.188
29999SOL    HW291895   1.646   0.589   1.173
30000SOL     OW91896   9.379  12.515   4.633
30000SOL    HW191897   9.368  12.424   4.604
30000SOL    HW291898   9.329  12.520   4.714
30001SOL     OW91899   0.621   5.549   8.132
30001SOL    HW191900   0.654   5.546   8.222
30001SOL    HW291901   0.602   5.641   8.116
30002SOL     OW91902   4.513  13.249   5.977
30002SOL    HW191903   4.463  13.187   5.924
30002SOL    HW291904   4.598  13.254   5.935
30003SOL     OW91905   6.431   9.852   6.451
30003SOL    HW191906   6.475   9.907   6.516
30003SOL    HW291907   6.368   9.910   6.409
30004SOL     OW91908   8.345   1.552  10.539
30004SOL    HW191909   8.258   1.565  10.577
30004SOL    HW291910   8.341   1.593  10.453
30005SOL     OW91911   7.040   6.205   5.738
30005SOL    HW191912   6.947   6.227   5.742
30005SOL    HW291913   7.079   6.273   5.683
30006SOL     OW91914   2.326  10.225  12.027
30006SOL    HW191915   2.339  10.184  12.112
30006SOL    HW291916   2.320  10.319  12.046
30007SOL     OW91917   2.790  11.057  10.495
30007SOL    HW191918   2.845  11.021  10.564
30007SOL    HW291919   2.813  11.149  10.490
30008SOL     OW91920   8.666   9.165   0.968
30008SOL    HW191921   8.583   9.163   0.920
30008SOL    HW291922   8.668   9.082   1.016
30009SOL     OW91923   5.272   3.241   0.139
30009SOL    HW191924   5.252   3.255   0.231
30009SOL    HW291925   5.205   3.289   0.091
30010SOL     OW91926  10.702   6.350   3.643
30010SOL    HW191927  10.713   6.270   3.695
30010SOL    HW291928  10.608   6.367   3.644
30011SOL     OW91929   2.377  10.838   9.800
30011SOL    HW191930   2.465  10.801   9.791
30011SOL    HW291931   2.383  10.895   9.876
30012SOL     OW91932  13.939  13.820  12.564
30012SOL    HW191933  13.872  13.888  12.553
30012SOL    HW291934  14.013  13.865  12.602
30013SOL     OW91935   3.973   8.447   9.556
30013SOL    HW191936   4.000   8.523   9.504
30013SOL    HW291937   3.985   8.475   9.647
30014SOL     OW91938   5.457   4.017   8.301
30014SOL    HW191939   5.405   3.959   8.246
30014SOL    HW291940   5.459   4.100   8.254
30015SOL     OW91941   6.373  13.648   2.963
30015SOL    HW191942   6.352  13.607   3.047
30015SOL    HW291943   6.466  13.668   2.969
30016SOL     OW91944   0.264  13.608   8.774
30016SOL    HW191945   0.241  13.619   8.867
30016SOL    HW291946   0.181  13.590   8.731
30017SOL     OW91947  14.826  14.864   0.584
30017SOL    HW191948  14.761   0.031   0.644
30017SOL    HW291949   0.027  14.833   0.641
30018SOL     OW91950   7.268  13.821  10.502
30018SOL    HW191951   7.332  13.808  10.432
30018SOL    HW291952   7.306  13.889  10.557
30019SOL     OW91953   7.407   8.991  12.732
30019SOL    HW191954   7.431   9.068  12.783
30019SOL    HW291955   7.411   8.919  12.795
30020SOL     OW91956   6.540  14.175  10.300
30020SOL    HW191957   6.618  14.121  10.282
30020SOL    HW291958   6.565  14.263  10.272
30021SOL     OW91959   3.987  10.174  14.022
30021SOL    HW191960   3.978  10.193  14.116
30021SOL    HW291961   3.935  10.094  14.010
30022SOL     OW91962  11.043   5.491  10.140
30022SOL    HW191963  11.050   5.571  10.191
30022SOL    HW291964  11.088   5.425  10.193
30023SOL     OW91965   7.961   0.133   9.307
30023SOL    HW191966   7.913   0.211   9.337
30023SOL    HW291967   7.898   0.086   9.252
30024SOL     OW91968  14.146   1.817  13.002
30024SOL    HW191969  14.189   1.811  12.916
30024SOL    HW291970  14.071   1.874  12.987
30025SOL     OW91971  11.784   3.937  10.818
30025SOL    HW191972  11.769   4.027  10.846
30025SOL    HW291973  11.787   3.942  10.722
30026SOL     OW91974   7.218  14.413   0.036
30026SOL    HW191975   7.276  14.489   0.042
30026SOL    HW291976   7.183  14.402   0.125
30027SOL     OW91977   8.627   7.625   5.513
30027SOL    HW191978   8.679   7.609   5.591
30027SOL    HW291979   8.542   7.654   5.545
30028SOL     OW91980   9.941   5.879   3.081
30028SOL    HW191981   9.918   5.961   3.125
30028SOL    HW291982   9.992   5.907   3.005
30029SOL     OW91983  13.275   3.323   1.813
30029SOL    HW191984  13.331   3.392   1.779
30029SOL    HW291985  13.291   3.249   1.755
30030SOL     OW91986  11.898   6.157   3.475
30030SOL    HW191987  11.980   6.158   3.426
30030SOL    HW291988  11.863   6.246   3.467
30031SOL     OW91989   2.014  12.981   9.105
30031SOL    HW191990   1.980  13.050   9.048
30031SOL    HW291991   1.935  12.942   9.144
30032SOL     OW91992  11.355   9.535   3.085
30032SOL    HW191993  11.361   9.566   2.995
30032SOL    HW291994  11.321   9.446   3.077
30033SOL     OW91995  11.953   6.960   3.459
30033SOL    HW191996  11.993   7.043   3.432
30033SOL    HW291997  12.006   6.931   3.533
30034SOL     OW91998   7.883  10.254  14.792
30034SOL    HW191999   7.880  10.349  14.798
30034SOL    HW292000   7.964  10.235  14.743
30035SOL     OW92001   2.459   9.257  12.694
30035SOL    HW192002   2.371   9.241  12.729
30035SOL    HW292003   2.497   9.323  12.752
30036SOL     OW92004   5.878  12.492  14.272
30036SOL    HW192005   5.950  12.435  14.300
30036SOL    HW292006   5.893  12.574  14.318
30037SOL     OW92007   8.758   2.819  12.002
30037SOL    HW192008   8.807   2.756  11.948
30037SOL    HW292009   8.826   2.873  12.042
30038SOL     OW92010  12.277   5.868   2.114
30038SOL    HW192011  12.309   5.799   2.172
30038SOL    HW292012  12.350   5.884   2.053
30039SOL     OW92013   2.900   4.202  10.598
30039SOL    HW192014   2.878   4.141  10.669
30039SOL    HW292015   2.915   4.285  10.642
30040SOL     OW92016  12.199   5.283  12.820
30040SOL    HW192017  12.221   5.258  12.730
30040SOL    HW292018  12.106   5.308  12.816
30041SOL     OW92019  12.765   0.853   9.087
30041SOL    HW192020  12.696   0.806   9.040
30041SOL    HW292021  12.798   0.916   9.023
30042SOL     OW92022   8.415  12.901  10.114
30042SOL    HW192023   8.379  12.878  10.029
30042SOL    HW292024   8.377  12.836  10.174
30043SOL     OW92025   4.570  12.355   7.999
30043SOL    HW192026   4.569  12.264   7.969
30043SOL    HW292027   4.660  12.383   7.987
30044SOL     OW92028  11.755   9.159   5.074
30044SOL    HW192029  11.673   9.117   5.047
30044SOL    HW292030  11.814   9.146   4.999
30045SOL     OW92031  10.040   2.440   8.478
30045SOL    HW192032  10.132   2.420   8.498
30045SOL    HW292033  10.027   2.529   8.510
30046SOL     OW92034  11.775   3.812   3.960
30046SOL    HW192035  11.797   3.868   4.034
30046SOL    HW292036  11.844   3.828   3.895
30047SOL     OW92037   5.737  10.541   0.458
30047SOL    HW192038   5.790  10.466   0.431
30047SOL    HW292039   5.666  10.502   0.510
30048SOL     OW92040   9.785   1.278  14.309
30048SOL    HW192041   9.721   1.349  14.318
30048SOL    HW292042   9.734   1.198  14.326
30049SOL     OW92043   8.671   0.694   4.938
30049SOL    HW192044   8.595   0.730   4.892
30049SOL    HW292045   8.673   0.742   5.022
30050SOL     OW92046   1.729  11.350   1.868
30050SOL    HW192047   1.648  11.324   1.912
30050SOL    HW292048   1.714  11.326   1.776
30051SOL     OW92049   9.286   6.385  14.778
30051SOL    HW192050   9.263   6.327  14.851
30051SOL    HW292051   9.245   6.345  14.701
30052SOL     OW92052   4.649   4.769   5.652
30052SOL    HW192053   4.601   4.687   5.641
30052SOL    HW292054   4.584   4.837   5.638
30053SOL     OW92055  10.076   6.377   4.233
30053SOL    HW192056  10.130   6.332   4.298
30053SOL    HW292057  10.016   6.431   4.284
30054SOL     OW92058   5.747  14.796   4.498
30054SOL    HW192059   5.738  14.738   4.574
30054SOL    HW292060   5.762   0.013   4.535
30055SOL     OW92061  13.875  12.840   6.968
30055SOL    HW192062  13.890  12.819   7.060
30055SOL    HW292063  13.785  12.872   6.964
30056SOL     OW92064   8.231   2.791   6.188
30056SOL    HW192065   8.296   2.794   6.257
30056SOL    HW292066   8.265   2.728   6.125
30057SOL     OW92067   1.355   7.710  11.432
30057SOL    HW192068   1.441   7.674  11.454
30057SOL    HW292069   1.303   7.699  11.512
30058SOL     OW92070  10.177   7.118   4.655
30058SOL    HW192071  10.245   7.133   4.721
30058SOL    HW292072  10.226   7.110   4.573
30059SOL     OW92073   4.639   3.945   7.996
30059SOL    HW192074   4.549   3.920   8.016
30059SOL    HW292075   4.684   3.942   8.080
30060SOL     OW92076   4.458   0.317   6.333
30060SOL    HW192077   4.375   0.321   6.380
30060SOL    HW292078   4.455   0.390   6.272
30061SOL     OW92079   5.019   4.879  10.805
30061SOL    HW192080   5.060   4.841  10.883
30061SOL    HW292081   4.926   4.883  10.826
30062SOL     OW92082  10.008   0.296   0.945
30062SOL    HW192083  10.072   0.278   1.014
30062SOL    HW292084   9.999   0.391   0.944
30063SOL     OW92085   9.937   2.546   4.563
30063SOL    HW192086   9.863   2.588   4.607
30063SOL    HW292087   9.914   2.548   4.470
30064SOL     OW92088   2.941   2.485   3.229
30064SOL    HW192089   2.846   2.490   3.232
30064SOL    HW292090   2.963   2.417   3.293
30065SOL     OW92091   2.181  14.642   1.142
30065SOL    HW192092   2.118  14.574   1.169
30065SOL    HW292093   2.227  14.665   1.223
30066SOL     OW92094   0.938  12.299   6.835
30066SOL    HW192095   0.920  12.392   6.817
30066SOL    HW292096   0.965  12.297   6.926
30067SOL     OW92097   0.814   7.792   9.504
30067SOL    HW192098   0.805   7.884   9.481
30067SOL    HW292099   0.768   7.782   9.587
30068SOL     OW92100   7.598   2.471   1.094
30068SOL    HW192101   7.533   2.400   1.089
30068SOL    HW292102   7.682   2.427   1.084
30069SOL     OW92103   0.578   2.381  13.393
30069SOL    HW192104   0.637   2.309  13.370
30069SOL    HW292105   0.505   2.339  13.438
30070SOL     OW92106   7.525   7.899   9.450
30070SOL    HW192107   7.434   7.871   9.465
30070SOL    HW292108   7.577   7.837   9.501
30071SOL     OW92109   4.756   4.418   2.008
30071SOL    HW192110   4.794   4.456   1.929
30071SOL    HW292111   4.726   4.494   2.059
30072SOL     OW92112   0.730   3.316   0.511
30072SOL    HW192113   0.697   3.345   0.426
30072SOL    HW292114   0.768   3.395   0.550
30073SOL     OW92115   6.701   5.303   7.187
30073SOL    HW192116   6.690   5.350   7.105
30073SOL    HW292117   6.670   5.364   7.254
30074SOL     OW92118  10.322  10.088   9.503
30074SOL    HW192119  10.387  10.129   9.446
30074SOL    HW292120  10.258  10.156   9.521
30075SOL     OW92121   9.175  12.704  11.358
30075SOL    HW192122   9.117  12.681  11.430
30075SOL    HW292123   9.237  12.767  11.396
30076SOL     OW92124   6.687   4.392  13.846
30076SOL    HW192125   6.610   4.364  13.895
30076SOL    HW292126   6.739   4.312  13.834
30077SOL     OW92127   1.107  12.865  13.687
30077SOL    HW192128   1.086  12.844  13.778
30077SOL    HW292129   1.085  12.958  13.678
30078SOL     OW92130   0.947   0.293   5.503
30078SOL    HW192131   0.957   0.222   5.439
30078SOL    HW292132   0.909   0.365   5.452
30079SOL     OW92133  12.022   1.471  13.024
30079SOL    HW192134  12.027   1.542  12.960
30079SOL    HW292135  11.958   1.501  13.088
30080SOL     OW92136  13.846   8.988  11.275
30080SOL    HW192137  13.831   8.946  11.360
30080SOL    HW292138  13.851   9.082  11.296
30081SOL     OW92139   8.114   1.771  10.483
30081SOL    HW192140   8.162   1.850  10.507
30081SOL    HW292141   8.093   1.784  10.390
30082SOL     OW92142   8.434   4.920  13.122
30082SOL    HW192143   8.470   4.955  13.204
30082SOL    HW292144   8.432   4.994  13.063
30083SOL     OW92145   2.417  12.699   5.437
30083SOL    HW192146   2.356  12.772   5.440
30083SOL    HW292147   2.389  12.641   5.507
30084SOL     OW92148   0.312  11.949  10.567
30084SOL    HW192149   0.290  11.975  10.477
30084SOL    HW292150   0.348  11.861  10.558
30085SOL     OW92151   9.636   0.386  13.706
30085SOL    HW192152   9.591   0.347  13.631
30085SOL    HW292153   9.575   0.453  13.738
30086SOL     OW92154   6.996   5.290   5.980
30086SOL    HW192155   7.012   5.384   5.977
30086SOL    HW292156   6.906   5.282   6.011
30087SOL     OW92157   2.767   8.808   5.823
30087SOL    HW192158   2.708   8.779   5.893
30087SOL    HW292159   2.788   8.728   5.775
30088SOL     OW92160   0.094  14.521   3.242
30088SOL    HW192161   0.037  14.571   3.300
30088SOL    HW292162   0.091  14.431   3.275
30089SOL     OW92163  12.857  12.321   9.640
30089SOL    HW192164  12.923  12.278   9.585
30089SOL    HW292165  12.907  12.361   9.711
30090SOL     OW92166   7.429   9.704  10.416
30090SOL    HW192167   7.418   9.772  10.349
30090SOL    HW292168   7.365   9.637  10.392
30091SOL     OW92169   7.864  10.561  10.317
30091SOL    HW192170   7.770  10.551  10.303
30091SOL    HW292171   7.897  10.472  10.329
30092SOL     OW92172  12.200   0.707   3.325
30092SOL    HW192173  12.241   0.793   3.313
30092SOL    HW292174  12.107   0.726   3.339
30093SOL     OW92175   3.863   0.255   2.372
30093SOL    HW192176   3.815   0.186   2.417
30093SOL    HW292177   3.834   0.249   2.281
30094SOL     OW92178   2.687   2.525   1.499
30094SOL    HW192179   2.593   2.540   1.509
30094SOL    HW292180   2.718   2.509   1.588
30095SOL     OW92181   0.338   9.649   0.379
30095SOL    HW192182   0.312   9.627   0.289
30095SOL    HW292183   0.433   9.642   0.379
30096SOL     OW92184   7.261   4.117  10.160
30096SOL    HW192185   7.258   4.044  10.222
30096SOL    HW292186   7.236   4.078  10.076
30097SOL     OW92187   5.707  13.211   9.622
30097SOL    HW192188   5.700  13.277   9.553
30097SOL    HW292189   5.719  13.129   9.575
30098SOL     OW92190  13.559   3.610   3.186
30098SOL    HW192191  13.654   3.623   3.181
30098SOL    HW292192  13.532   3.590   3.096
30099SOL     OW92193   5.194  13.596   0.100
30099SOL    HW192194   5.287  13.596   0.079
30099SOL    HW292195   5.188  13.647   0.181
30100SOL     OW92196   4.401  12.431  13.857
30100SOL    HW192197   4.448  12.417  13.775
30100SOL    HW292198   4.314  12.394  13.841
30101SOL     OW92199  11.962   4.330   0.742
30101SOL    HW192200  11.927   4.390   0.808
30101SOL    HW292201  12.020   4.272   0.791
30102SOL     OW92202  11.955   0.293  11.178
30102SOL    HW192203  11.949   0.295  11.083
30102SOL    HW292204  12.044   0.263  11.196
30103SOL     OW92205   6.627   0.566   0.882
30103SOL    HW192206   6.562   0.495   0.877
30103SOL    HW292207   6.704   0.531   0.838
30104SOL     OW92208  14.429  10.094  13.509
30104SOL    HW192209  14.485  10.076  13.584
30104SOL    HW292210  14.479  10.064  13.433
30105SOL     OW92211   4.467  13.759   0.207
30105SOL    HW192212   4.453  13.678   0.255
30105SOL    HW292213   4.422  13.826   0.259
30106SOL     OW92214   3.300  14.068   1.408
30106SOL    HW192215   3.395  14.068   1.393
30106SOL    HW292216   3.264  14.111   1.330
30107SOL     OW92217  12.655  11.918  14.761
30107SOL    HW192218  12.573  11.925  14.713
30107SOL    HW292219  12.695  12.005  14.753
30108SOL     OW92220   1.398   7.267  12.204
30108SOL    HW192221   1.485   7.250  12.168
30108SOL    HW292222   1.399   7.359  12.228
30109SOL     OW92223   1.933   4.102   3.121
30109SOL    HW192224   1.912   4.122   3.030
30109SOL    HW292225   2.000   4.033   3.115
30110SOL     OW92226   9.522   3.221   1.022
30110SOL    HW192227   9.565   3.240   1.106
30110SOL    HW292228   9.516   3.125   1.020
30111SOL     OW92229  14.578   6.357  12.713
30111SOL    HW192230  14.593   6.413  12.790
30111SOL    HW292231  14.563   6.270  12.750
30112SOL     OW92232   0.481   6.331   6.444
30112SOL    HW192233   0.510   6.368   6.361
30112SOL    HW292234   0.510   6.240   6.443
30113SOL     OW92235  14.595  13.750   2.906
30113SOL    HW192236  14.600  13.801   2.987
30113SOL    HW292237  14.502  13.733   2.894
30114SOL     OW92238  10.332   0.141   4.428
30114SOL    HW192239  10.245   0.124   4.392
30114SOL    HW292240  10.317   0.160   4.520
30115SOL     OW92241   0.752   0.506   9.817
30115SOL    HW192242   0.710   0.496   9.731
30115SOL    HW292243   0.690   0.467   9.878
30116SOL     OW92244   1.908  12.539   4.837
30116SOL    HW192245   1.944  12.453   4.859
30116SOL    HW292246   1.981  12.585   4.794
30117SOL     OW92247  11.670   0.805   8.186
30117SOL    HW192248  11.725   0.728   8.172
30117SOL    HW292249  11.650   0.804   8.280
30118SOL     OW92250   1.079   0.986   2.858
30118SOL    HW192251   1.043   0.914   2.807
30118SOL    HW292252   1.129   0.944   2.928
30119SOL     OW92253   5.945   5.962   0.094
30119SOL    HW192254   6.021   5.947   0.038
30119SOL    HW292255   5.950   5.893   0.161
30120SOL     OW92256   1.132   4.703  12.066
30120SOL    HW192257   1.207   4.645  12.075
30120SOL    HW292258   1.165   4.789  12.093
30121SOL     OW92259   1.592   7.701  14.558
30121SOL    HW192260   1.684   7.723  14.570
30121SOL    HW292261   1.577   7.710  14.463
30122SOL     OW92262   6.982  10.438   7.798
30122SOL    HW192263   6.886  10.435   7.805
30122SOL    HW292264   7.001  10.393   7.716
30123SOL     OW92265   2.704   6.937   9.693
30123SOL    HW192266   2.680   6.860   9.641
30123SOL    HW292267   2.700   7.010   9.631
30124SOL     OW92268   6.645   5.454   6.975
30124SOL    HW192269   6.661   5.450   6.881
30124SOL    HW292270   6.576   5.520   6.984
30125SOL     OW92271   1.869  13.991   9.596
30125SOL    HW192272   1.839  13.963   9.682
30125SOL    HW292273   1.829  14.077   9.583
30126SOL     OW92274  13.049   4.958   0.361
30126SOL    HW192275  13.104   5.030   0.393
30126SOL    HW292276  13.038   4.902   0.438
30127SOL     OW92277   6.203   2.746  11.477
30127SOL    HW192278   6.288   2.773  11.442
30127SOL    HW292279   6.218   2.659  11.514
30128SOL     OW92280  10.034   4.482   9.701
30128SOL    HW192281  10.024   4.577   9.699
30128SOL    HW292282  10.038   4.460   9.794
30129SOL     OW92283   1.312   3.966   6.807
30129SOL    HW192284   1.280   4.039   6.861
30129SOL    HW292285   1.270   3.888   6.844
30130SOL     OW92286  11.082   3.021   5.010
30130SOL    HW192287  11.158   2.965   4.995
30130SOL    HW292288  11.023   2.968   5.063
30131SOL     OW92289   7.330   9.925  11.639
30131SOL    HW192290   7.252   9.877  11.667
30131SOL    HW292291   7.394   9.910  11.709
30132SOL     OW92292   3.831  14.293   8.056
30132SOL    HW192293   3.761  14.325   7.999
30132SOL    HW292294   3.912  14.318   8.011
30133SOL     OW92295  11.252  13.304  14.353
30133SOL    HW192296  11.202  13.375  14.313
30133SOL    HW292297  11.331  13.346  14.387
30134SOL     OW92298   4.331   3.080  12.951
30134SOL    HW192299   4.350   3.035  12.869
30134SOL    HW292300   4.243   3.052  12.974
30135SOL     OW92301  13.755  12.070   0.312
30135SOL    HW192302  13.750  12.128   0.388
30135SOL    HW292303  13.757  11.982   0.349
30136SOL     OW92304   2.465   3.188  12.182
30136SOL    HW192305   2.458   3.113  12.123
30136SOL    HW292306   2.494   3.150  12.265
30137SOL     OW92307   6.531   0.608   3.386
30137SOL    HW192308   6.465   0.538   3.386
30137SOL    HW292309   6.589   0.585   3.459
30138SOL     OW92310  14.073   3.222   1.728
30138SOL    HW192311  14.020   3.170   1.788
30138SOL    HW292312  14.069   3.175   1.644
30139SOL     OW92313  13.292   9.886   1.544
30139SOL    HW192314  13.211   9.837   1.562
30139SOL    HW292315  13.262   9.967   1.504
30140SOL     OW92316   6.688  10.941   1.886
30140SOL    HW192317   6.696  10.855   1.926
30140SOL    HW292318   6.627  10.929   1.814
30141SOL     OW92319   8.359  11.467  14.061
30141SOL    HW192320   8.367  11.512  13.978
30141SOL    HW292321   8.399  11.526  14.125
30142SOL     OW92322  14.025   3.784  14.084
30142SOL    HW192323  13.935   3.792  14.052
30142SOL    HW292324  14.016   3.754  14.174
30143SOL     OW92325   7.221   5.093   5.267
30143SOL    HW192326   7.170   5.106   5.187
30143SOL    HW292327   7.240   5.182   5.298
30144SOL     OW92328   6.690  14.719  13.975
30144SOL    HW192329   6.745  14.795  13.956
30144SOL    HW292330   6.609  14.756  14.011
30145SOL     OW92331   5.804   8.641  12.219
30145SOL    HW192332   5.874   8.607  12.276
30145SOL    HW292333   5.748   8.566  12.203
30146SOL     OW92334   9.299   9.934   7.213
30146SOL    HW192335   9.339   9.934   7.301
30146SOL    HW292336   9.209   9.907   7.228
30147SOL     OW92337  13.111  13.531   0.504
30147SOL    HW192338  13.158  13.454   0.473
30147SOL    HW292339  13.139  13.541   0.595
30148SOL     OW92340  14.211   5.808   2.988
30148SOL    HW192341  14.126   5.790   2.947
30148SOL    HW292342  14.223   5.736   3.050
30149SOL     OW92343   3.314   9.179   8.775
30149SOL    HW192344   3.379   9.213   8.714
30149SOL    HW292345   3.361   9.114   8.826
30150SOL     OW92346   2.048  10.093   1.002
30150SOL    HW192347   2.068  10.144   0.923
30150SOL    HW292348   1.955  10.073   0.995
30151SOL     OW92349  14.726   8.457   2.665
30151SOL    HW192350  14.631   8.443   2.664
30151SOL    HW292351  14.742   8.515   2.591
30152SOL     OW92352   2.535   2.308  11.204
30152SOL    HW192353   2.585   2.344  11.277
30152SOL    HW292354   2.463   2.261  11.245
30153SOL     OW92355  14.692  10.563   1.122
30153SOL    HW192356  14.673  10.469   1.124
30153SOL    HW292357  14.777  10.572   1.166
30154SOL     OW92358   6.721   2.468  13.769
30154SOL    HW192359   6.817   2.461  13.766
30154SOL    HW292360   6.690   2.379  13.752
30155SOL     OW92361   2.533  13.333   0.262
30155SOL    HW192362   2.478  13.258   0.283
30155SOL    HW292363   2.482  13.384   0.199
30156SOL     OW92364  10.587   0.098  14.547
30156SOL    HW192365  10.491   0.094  14.540
30156SOL    HW292366  10.612   0.011  14.579
30157SOL     OW92367  11.480   1.824   6.687
30157SOL    HW192368  11.427   1.859   6.758
30157SOL    HW292369  11.421   1.767   6.638
30158SOL     OW92370   3.552   9.173   0.439
30158SOL    HW192371   3.587   9.262   0.445
30158SOL    HW292372   3.467   9.178   0.482
30159SOL     OW92373  10.692   4.562   1.927
30159SOL    HW192374  10.672   4.544   2.019
30159SOL    HW292375  10.616   4.531   1.879
30160SOL     OW92376  11.526  12.471   3.918
30160SOL    HW192377  11.443  12.520   3.916
30160SOL    HW292378  11.499  12.379   3.922
30161SOL     OW92379   9.328  10.670   2.965
30161SOL    HW192380   9.267  10.708   2.903
30161SOL    HW292381   9.353  10.586   2.927
30162SOL     OW92382   8.480  12.480   1.412
30162SOL    HW192383   8.449  12.560   1.370
30162SOL    HW292384   8.483  12.415   1.342
30163SOL     OW92385   4.873  12.064   6.291
30163SOL    HW192386   4.835  12.079   6.204
30163SOL    HW292387   4.859  11.971   6.308
30164SOL     OW92388   0.110   1.005   2.879
30164SOL    HW192389   0.089   0.981   2.788
30164SOL    HW292390   0.026   1.031   2.917
30165SOL     OW92391   8.528   2.433   6.974
30165SOL    HW192392   8.460   2.500   6.975
30165SOL    HW292393   8.491   2.360   7.024
30166SOL     OW92394  10.724   4.983   9.071
30166SOL    HW192395  10.747   4.903   9.118
30166SOL    HW292396  10.648   4.959   9.018
30167SOL     OW92397  12.412   5.597  13.600
30167SOL    HW192398  12.457   5.513  13.607
30167SOL    HW292399  12.483   5.662  13.594
30168SOL     OW92400  14.845   5.174   4.732
30168SOL    HW192401  14.797   5.115   4.675
30168SOL    HW292402  14.793   5.254   4.733
30169SOL     OW92403  13.388   9.174  11.903
30169SOL    HW192404  13.472   9.220  11.905
30169SOL    HW292405  13.359   9.180  11.812
30170SOL     OW92406   7.199   8.770  11.235
30170SOL    HW192407   7.198   8.734  11.146
30170SOL    HW292408   7.143   8.848  11.230
30171SOL     OW92409   1.279  14.692  14.083
30171SOL    HW192410   1.279  14.604  14.122
30171SOL    HW292411   1.317  14.680  13.996
30172SOL     OW92412   1.540   8.308  11.606
30172SOL    HW192413   1.522   8.227  11.557
30172SOL    HW292414   1.598   8.281  11.677
30173SOL     OW92415   4.115   9.099   0.755
30173SOL    HW192416   4.021   9.087   0.768
30173SOL    HW292417   4.146   9.016   0.719
30174SOL     OW92418   3.196   1.903   9.618
30174SOL    HW192419   3.117   1.859   9.650
30174SOL    HW292420   3.243   1.929   9.697
30175SOL     OW92421   6.890   6.601  10.063
30175SOL    HW192422   6.876   6.675  10.003
30175SOL    HW292423   6.971   6.561  10.033
30176SOL     OW92424  13.443  14.055   3.714
30176SOL    HW192425  13.513  14.099   3.666
30176SOL    HW292426  13.468  13.962   3.714
30177SOL     OW92427   1.573   8.573   6.591
30177SOL    HW192428   1.597   8.663   6.613
30177SOL    HW292429   1.646   8.520   6.624
30178SOL     OW92430   3.549  11.519  10.463
30178SOL    HW192431   3.501  11.584  10.514
30178SOL    HW292432   3.481  11.471  10.415
30179SOL     OW92433  12.133   6.196  10.546
30179SOL    HW192434  12.074   6.262  10.582
30179SOL    HW292435  12.076   6.121  10.527
30180SOL     OW92436   2.261   1.610   2.480
30180SOL    HW192437   2.263   1.600   2.385
30180SOL    HW292438   2.225   1.698   2.493
30181SOL     OW92439   7.637   7.942   6.274
30181SOL    HW192440   7.691   7.971   6.347
30181SOL    HW292441   7.549   7.933   6.311
30182SOL     OW92442   7.898  12.093   8.141
30182SOL    HW192443   7.836  12.064   8.074
30182SOL    HW292444   7.899  12.189   8.133
30183SOL     OW92445   3.804   1.846   7.782
30183SOL    HW192446   3.718   1.806   7.794
30183SOL    HW292447   3.813   1.907   7.855
30184SOL     OW92448   1.754   5.762  13.104
30184SOL    HW192449   1.761   5.674  13.068
30184SOL    HW292450   1.662   5.771  13.128
30185SOL     OW92451   3.350   0.832   3.478
30185SOL    HW192452   3.431   0.783   3.493
30185SOL    HW292453   3.284   0.785   3.528
30186SOL     OW92454   4.428   0.796   2.432
30186SOL    HW192455   4.339   0.830   2.422
30186SOL    HW292456   4.476   0.866   2.476
30187SOL     OW92457  12.108   9.577  10.124
30187SOL    HW192458  12.163   9.582  10.202
30187SOL    HW292459  12.110   9.484  10.100
30188SOL     OW92460   9.395   6.689   3.633
30188SOL    HW192461   9.314   6.711   3.679
30188SOL    HW292462   9.407   6.760   3.570
30189SOL     OW92463   9.836  14.005   3.784
30189SOL    HW192464   9.760  13.988   3.729
30189SOL    HW292465   9.910  14.006   3.724
30190SOL     OW92466   7.114   4.460   3.315
30190SOL    HW192467   7.084   4.391   3.374
30190SOL    HW292468   7.206   4.439   3.300
30191SOL     OW92469   0.219  12.630  10.229
30191SOL    HW192470   0.227  12.675  10.313
30191SOL    HW292471   0.126  12.609  10.222
30192SOL     OW92472  13.299   9.598   5.906
30192SOL    HW192473  13.380   9.567   5.947
30192SOL    HW292474  13.275   9.676   5.956
30193SOL     OW92475  11.123   1.026  13.629
30193SOL    HW192476  11.053   0.976  13.672
30193SOL    HW292477  11.082   1.108  13.603
30194SOL     OW92478  14.571   9.777  10.514
30194SOL    HW192479  14.527   9.860  10.494
30194SOL    HW292480  14.500   9.712  10.512
30195SOL     OW92481   3.677   7.840   4.635
30195SOL    HW192482   3.746   7.874   4.578
30195SOL    HW292483   3.626   7.782   4.578
30196SOL     OW92484   7.748  12.544  12.231
30196SOL    HW192485   7.770  12.614  12.169
30196SOL    HW292486   7.828  12.491  12.236
30197SOL     OW92487   8.716  13.973   0.029
30197SOL    HW192488   8.769  14.003  14.824
30197SOL    HW292489   8.663  14.048   0.052
30198SOL     OW92490  11.432   2.645   1.932
30198SOL    HW192491  11.417   2.685   1.846
30198SOL    HW292492  11.449   2.719   1.990
30199SOL     OW92493   8.175  10.348   7.793
30199SOL    HW192494   8.251  10.308   7.750
30199SOL    HW292495   8.100  10.314   7.745
30200SOL     OW92496  14.154   0.609   2.020
30200SOL    HW192497  14.175   0.681   1.960
30200SOL    HW292498  14.073   0.637   2.062
30201SOL     OW92499   1.341   9.313   6.660
30201SOL    HW192500   1.347   9.364   6.741
30201SOL    HW292501   1.284   9.239   6.682
30202SOL     OW92502   4.764   8.373   5.980
30202SOL    HW192503   4.733   8.358   6.069
30202SOL    HW292504   4.822   8.300   5.962
30203SOL     OW92505   1.487   4.171   3.675
30203SOL    HW192506   1.410   4.213   3.638
30203SOL    HW292507   1.478   4.079   3.653
30204SOL     OW92508   9.369   9.042   4.991
30204SOL    HW192509   9.334   8.970   5.043
30204SOL    HW292510   9.464   9.039   5.006
30205SOL     OW92511  14.807   6.113   2.699
30205SOL    HW192512  14.836   6.065   2.621
30205SOL    HW292513  14.772   6.045   2.757
30206SOL     OW92514   2.706   5.077   4.181
30206SOL    HW192515   2.767   5.150   4.177
30206SOL    HW292516   2.713   5.043   4.270
30207SOL     OW92517  11.609  13.110  12.139
30207SOL    HW192518  11.519  13.141  12.126
30207SOL    HW292519  11.601  13.014  12.140
30208SOL     OW92520   7.412   1.894  14.194
30208SOL    HW192521   7.354   1.870  14.122
30208SOL    HW292522   7.403   1.823  14.257
30209SOL     OW92523   4.359  11.328   7.352
30209SOL    HW192524   4.381  11.316   7.445
30209SOL    HW292525   4.288  11.392   7.352
30210SOL     OW92526   0.749   1.003  14.178
30210SOL    HW192527   0.776   1.093  14.157
30210SOL    HW292528   0.785   0.951  14.106
30211SOL     OW92529   8.875   2.692   1.778
30211SOL    HW192530   8.892   2.786   1.784
30211SOL    HW292531   8.889   2.670   1.686
30212SOL     OW92532  11.810   2.108   5.957
30212SOL    HW192533  11.742   2.081   5.895
30212SOL    HW292534  11.885   2.053   5.935
30213SOL     OW92535   3.639  14.331   4.118
30213SOL    HW192536   3.571  14.289   4.170
30213SOL    HW292537   3.721  14.306   4.159
30214SOL     OW92538  10.406   3.788   0.218
30214SOL    HW192539  10.471   3.792   0.148
30214SOL    HW292540  10.383   3.695   0.225
30215SOL     OW92541   9.915  10.985   4.836
30215SOL    HW192542   9.849  10.961   4.901
30215SOL    HW292543   9.868  11.041   4.773
30216SOL     OW92544   2.181  13.791  12.496
30216SOL    HW192545   2.180  13.781  12.591
30216SOL    HW292546   2.180  13.701  12.462
30217SOL     OW92547  14.668  11.019   6.026
30217SOL    HW192548  14.700  10.929   6.018
30217SOL    HW292549  14.702  11.049   6.110
30218SOL     OW92550   3.820   6.365  14.119
30218SOL    HW192551   3.889   6.411  14.070
30218SOL    HW292552   3.842   6.381  14.211
30219SOL     OW92553   6.795  11.302   6.916
30219SOL    HW192554   6.883  11.266   6.922
30219SOL    HW292555   6.809  11.394   6.891
30220SOL     OW92556  13.074  11.944   4.650
30220SOL    HW192557  12.984  11.968   4.629
30220SOL    HW292558  13.108  12.020   4.698
30221SOL     OW92559   1.513   0.291   5.179
30221SOL    HW192560   1.424   0.281   5.212
30221SOL    HW292561   1.555   0.207   5.196
30222SOL     OW92562   6.734  13.456   4.503
30222SOL    HW192563   6.674  13.445   4.429
30222SOL    HW292564   6.745  13.368   4.538
30223SOL     OW92565   2.556  12.501   0.662
30223SOL    HW192566   2.592  12.421   0.700
30223SOL    HW292567   2.631  12.560   0.653
30224SOL     OW92568   7.340  12.179   4.554
30224SOL    HW192569   7.410  12.241   4.535
30224SOL    HW292570   7.284  12.224   4.617
30225SOL     OW92571   2.829  10.666  13.018
30225SOL    HW192572   2.755  10.698  13.069
30225SOL    HW292573   2.822  10.711  12.934
30226SOL     OW92574   0.207   7.700  13.064
30226SOL    HW192575   0.254   7.777  13.031
30226SOL    HW292576   0.255   7.626  13.027
30227SOL     OW92577  13.847  12.732   3.957
30227SOL    HW192578  13.798  12.800   4.003
30227SOL    HW292579  13.919  12.710   4.016
30228SOL     OW92580  14.022  10.228   6.824
30228SOL    HW192581  14.024  10.317   6.858
30228SOL    HW292582  14.111  10.196   6.836
30229SOL     OW92583   2.900   7.362   7.805
30229SOL    HW192584   2.816   7.324   7.831
30229SOL    HW292585   2.913   7.434   7.866
30230SOL     OW92586  14.196   6.232  12.942
30230SOL    HW192587  14.165   6.319  12.917
30230SOL    HW292588  14.123   6.173  12.921
30231SOL     OW92589  12.911   7.950   4.728
30231SOL    HW192590  12.960   8.017   4.776
30231SOL    HW292591  12.852   8.000   4.671
30232SOL     OW92592   3.060   5.176  10.521
30232SOL    HW192593   3.015   5.256  10.547
30232SOL    HW292594   3.132   5.168  10.584
30233SOL     OW92595  13.822   8.919   1.655
30233SOL    HW192596  13.736   8.961   1.660
30233SOL    HW292597  13.852   8.935   1.566
30234SOL     OW92598   0.078   9.775   5.124
30234SOL    HW192599   0.094   9.704   5.186
30234SOL    HW292600  14.852   9.785   5.123
30235SOL     OW92601   6.339   2.631   4.925
30235SOL    HW192602   6.304   2.698   4.867
30235SOL    HW292603   6.418   2.599   4.880
30236SOL     OW92604   0.338   1.777   5.472
30236SOL    HW192605   0.381   1.692   5.469
30236SOL    HW292606   0.404   1.839   5.442
30237SOL     OW92607   2.634  14.487   9.427
30237SOL    HW192608   2.555  14.477   9.480
30237SOL    HW292609   2.675  14.401   9.426
30238SOL     OW92610  14.517   8.799  14.173
30238SOL    HW192611  14.478   8.712  14.168
30238SOL    HW292612  14.442   8.859  14.180
30239SOL     OW92613  10.441   3.702  12.554
30239SOL    HW192614  10.444   3.705  12.458
30239SOL    HW292615  10.528   3.730  12.582
30240SOL     OW92616   9.786  12.240   2.248
30240SOL    HW192617   9.804  12.297   2.322
30240SOL    HW292618   9.797  12.296   2.171
30241SOL     OW92619   7.157   1.122   6.623
30241SOL    HW192620   7.090   1.065   6.586
30241SOL    HW292621   7.240   1.080   6.602
30242SOL     OW92622   3.515   5.296   4.652
30242SOL    HW192623   3.431   5.250   4.654
30242SOL    HW292624   3.566   5.248   4.586
30243SOL     OW92625  11.674   0.392   3.630
30243SOL    HW192626  11.694   0.482   3.605
30243SOL    HW292627  11.759   0.353   3.650
30244SOL     OW92628  13.742  14.179  13.899
30244SOL    HW192629  13.807  14.160  13.967
30244SOL    HW292630  13.785  14.243  13.842
30245SOL     OW92631   8.068   3.007   0.584
30245SOL    HW192632   8.016   3.064   0.526
30245SOL    HW292633   8.155   3.006   0.546
30246SOL     OW92634   4.267   3.942   4.691
30246SOL    HW192635   4.200   3.875   4.707
30246SOL    HW292636   4.217   4.020   4.666
30247SOL     OW92637  10.026   0.837   3.543
30247SOL    HW192638  10.053   0.745   3.541
30247SOL    HW292639   9.942   0.838   3.497
30248SOL     OW92640   3.918   9.619   4.463
30248SOL    HW192641   3.866   9.695   4.488
30248SOL    HW292642   3.893   9.602   4.372
30249SOL     OW92643   4.712   8.285  11.166
30249SOL    HW192644   4.674   8.219  11.225
30249SOL    HW292645   4.708   8.367  11.216
30250SOL     OW92646   6.555  10.589  13.095
30250SOL    HW192647   6.537  10.505  13.138
30250SOL    HW292648   6.469  10.630  13.086
30251SOL     OW92649   9.382   8.769   4.202
30251SOL    HW192650   9.395   8.677   4.182
30251SOL    HW292651   9.452   8.814   4.155
30252SOL     OW92652  10.880   1.944   0.024
30252SOL    HW192653  10.887   1.927   0.118
30252SOL    HW292654  10.959   1.995   0.004
30253SOL     OW92655   5.500   5.985   7.793
30253SOL    HW192656   5.509   5.894   7.821
30253SOL    HW292657   5.589   6.019   7.793
30254SOL     OW92658   5.202   3.055  12.763
30254SOL    HW192659   5.207   3.148  12.786
30254SOL    HW292660   5.217   3.054  12.668
30255SOL     OW92661   8.270   0.629   4.551
30255SOL    HW192662   8.336   0.616   4.483
30255SOL    HW292663   8.320   0.646   4.631
30256SOL     OW92664   6.172   2.351   6.146
30256SOL    HW192665   6.239   2.303   6.097
30256SOL    HW292666   6.162   2.433   6.099
30257SOL     OW92667  13.499   7.649   1.744
30257SOL    HW192668  13.519   7.620   1.833
30257SOL    HW292669  13.448   7.729   1.756
30258SOL     OW92670   4.796  10.917   6.849
30258SOL    HW192671   4.881  10.893   6.885
30258SOL    HW292672   4.767  10.991   6.903
30259SOL     OW92673   9.456   3.677  13.311
30259SOL    HW192674   9.419   3.715  13.231
30259SOL    HW292675   9.445   3.744  13.378
30260SOL     OW92676   9.330   1.161   2.871
30260SOL    HW192677   9.239   1.189   2.865
30260SOL    HW292678   9.381   1.242   2.870
30261SOL     OW92679   4.761   8.270   9.630
30261SOL    HW192680   4.798   8.184   9.651
30261SOL    HW292681   4.785   8.325   9.704
30262SOL     OW92682   2.303   0.490  14.028
30262SOL    HW192683   2.396   0.481  14.048
30262SOL    HW292684   2.301   0.548  13.952
30263SOL     OW92685   9.204   1.454   0.358
30263SOL    HW192686   9.272   1.465   0.425
30263SOL    HW292687   9.245   1.487   0.278
30264SOL     OW92688  14.174   4.137   7.221
30264SOL    HW192689  14.132   4.052   7.237
30264SOL    HW292690  14.246   4.141   7.283
30265SOL     OW92691   5.944   1.776   7.660
30265SOL    HW192692   5.885   1.851   7.670
30265SOL    HW292693   5.937   1.752   7.568
30266SOL     OW92694  13.537   6.644   2.145
30266SOL    HW192695  13.589   6.725   2.147
30266SOL    HW292696  13.467   6.659   2.209
30267SOL     OW92697   0.059   1.338   0.066
30267SOL    HW192698   0.054   1.319   0.160
30267SOL    HW292699   0.039   1.431   0.059
30268SOL     OW92700   8.653  14.514  14.366
30268SOL    HW192701   8.699  14.447  14.316
30268SOL    HW292702   8.568  14.522  14.324
30269SOL     OW92703   0.152   0.304   7.356
30269SOL    HW192704   0.111   0.231   7.309
30269SOL    HW292705   0.189   0.264   7.435
30270SOL     OW92706   6.363  14.681   8.923
30270SOL    HW192707   6.370  14.589   8.896
30270SOL    HW292708   6.428  14.690   8.993
30271SOL     OW92709  12.484   5.244   4.287
30271SOL    HW192710  12.474   5.302   4.212
30271SOL    HW292711  12.484   5.156   4.249
30272SOL     OW92712  14.041  11.279   7.019
30272SOL    HW192713  14.130  11.314   7.023
30272SOL    HW292714  14.052  11.185   7.034
30273SOL     OW92715   2.333  12.058   4.755
30273SOL    HW192716   2.244  12.079   4.725
30273SOL    HW292717   2.383  12.045   4.675
30274SOL     OW92718   5.521   4.100   5.389
30274SOL    HW192719   5.470   4.063   5.317
30274SOL    HW292720   5.560   4.024   5.433
30275SOL     OW92721   8.030  10.182   6.515
30275SOL    HW192722   8.052  10.225   6.433
30275SOL    HW292723   8.002  10.253   6.573
30276SOL     OW92724   6.810  13.682   9.256
30276SOL    HW192725   6.779  13.772   9.244
30276SOL    HW292726   6.732  13.628   9.244
30277SOL     OW92727   0.758   1.553   1.575
30277SOL    HW192728   0.831   1.610   1.552
30277SOL    HW292729   0.772   1.532   1.667
30278SOL     OW92730  11.656   6.740   2.838
30278SOL    HW192731  11.634   6.673   2.903
30278SOL    HW292732  11.616   6.708   2.757
30279SOL     OW92733   8.113  10.223   4.349
30279SOL    HW192734   8.100  10.307   4.393
30279SOL    HW292735   8.026  10.185   4.343
30280SOL     OW92736   4.631   5.310   0.302
30280SOL    HW192737   4.591   5.292   0.386
30280SOL    HW292738   4.720   5.274   0.310
30281SOL     OW92739  11.658  13.685  12.655
30281SOL    HW192740  11.739  13.674  12.705
30281SOL    HW292741  11.594  13.716  12.719
30282SOL     OW92742  13.536   2.926   8.008
30282SOL    HW192743  13.450   2.959   8.036
30282SOL    HW292744  13.589   3.005   7.999
30283SOL     OW92745   7.682   3.114   9.008
30283SOL    HW192746   7.731   3.112   8.926
30283SOL    HW292747   7.730   3.177   9.063
30284SOL     OW92748  13.126   7.519   7.464
30284SOL    HW192749  13.123   7.604   7.420
30284SOL    HW292750  13.036   7.486   7.458
30285SOL     OW92751   8.881  14.256  11.919
30285SOL    HW192752   8.888  14.338  11.869
30285SOL    HW292753   8.903  14.188  11.856
30286SOL     OW92754  13.642   3.017   0.034
30286SOL    HW192755  13.682   3.014   0.121
30286SOL    HW292756  13.717   3.015  14.843
30287SOL     OW92757   2.630   8.091   2.030
30287SOL    HW192758   2.545   8.130   2.012
30287SOL    HW292759   2.613   8.029   2.101
30288SOL     OW92760   5.712  12.195   6.424
30288SOL    HW192761   5.749  12.190   6.512
30288SOL    HW292762   5.617  12.198   6.439
30289SOL     OW92763  11.230  10.009   0.041
30289SOL    HW192764  11.162   9.992  14.845
30289SOL    HW292765  11.301   9.949   0.018
30290SOL     OW92766   2.630   6.400   8.689
30290SOL    HW192767   2.667   6.459   8.754
30290SOL    HW292768   2.647   6.312   8.723
30291SOL     OW92769  13.988   8.276   9.806
30291SOL    HW192770  14.060   8.328   9.771
30291SOL    HW292771  14.029   8.220   9.872
30292SOL     OW92772  12.032   4.407   8.010
30292SOL    HW192773  11.945   4.390   7.972
30292SOL    HW292774  12.064   4.321   8.035
30293SOL     OW92775  12.283   9.089   1.586
30293SOL    HW192776  12.338   9.036   1.528
30293SOL    HW292777  12.221   9.026   1.624
30294SOL     OW92778   1.203  12.915   3.015
30294SOL    HW192779   1.148  12.983   3.055
30294SOL    HW292780   1.246  12.960   2.941
30295SOL     OW92781   8.158   2.870  13.579
30295SOL    HW192782   8.199   2.852  13.664
30295SOL    HW292783   8.218   2.930  13.536
30296SOL     OW92784   6.069   6.175  12.119
30296SOL    HW192785   6.122   6.228  12.179
30296SOL    HW292786   6.116   6.092  12.112
30297SOL     OW92787  12.889  14.433   6.765
30297SOL    HW192788  12.979  14.466   6.762
30297SOL    HW292789  12.848  14.467   6.685
30298SOL     OW92790   5.298   8.206   9.807
30298SOL    HW192791   5.299   8.300   9.825
30298SOL    HW292792   5.206   8.187   9.788
30299SOL     OW92793  14.512   6.791   7.148
30299SOL    HW192794  14.527   6.698   7.133
30299SOL    HW292795  14.522   6.832   7.062
30300SOL     OW92796  14.435   3.657   3.207
30300SOL    HW192797  14.504   3.679   3.270
30300SOL    HW292798  14.435   3.730   3.145
30301SOL     OW92799   3.932   2.708   2.252
30301SOL    HW192800   3.868   2.755   2.305
30301SOL    HW292801   3.914   2.737   2.162
30302SOL     OW92802  13.858   7.143   4.172
30302SOL    HW192803  13.779   7.156   4.120
30302SOL    HW292804  13.901   7.229   4.172
30303SOL     OW92805   2.069  14.252  12.847
30303SOL    HW192806   2.080  14.329  12.903
30303SOL    HW292807   2.157  14.217  12.837
30304SOL     OW92808  11.935   4.478   2.366
30304SOL    HW192809  11.969   4.395   2.399
30304SOL    HW292810  11.965   4.483   2.275
30305SOL     OW92811   8.430   1.867   5.886
30305SOL    HW192812   8.364   1.867   5.955
30305SOL    HW292813   8.473   1.953   5.895
30306SOL     OW92814   0.353  14.708   6.979
30306SOL    HW192815   0.347  14.634   7.039
30306SOL    HW292816   0.377  14.782   7.035
30307SOL     OW92817   0.280   1.059   9.249
30307SOL    HW192818   0.228   1.026   9.322
30307SOL    HW292819   0.312   1.144   9.278
30308SOL     OW92820   4.512  10.495   4.416
30308SOL    HW192821   4.457  10.549   4.359
30308SOL    HW292822   4.574  10.556   4.455
30309SOL     OW92823  12.038   7.801  10.755
30309SOL    HW192824  12.087   7.867  10.706
30309SOL    HW292825  11.972   7.850  10.804
30310SOL     OW92826   0.533  10.300  13.562
30310SOL    HW192827   0.585  10.220  13.561
30310SOL    HW292828   0.448  10.273  13.597
30311SOL     OW92829  12.321   2.141   2.322
30311SOL    HW192830  12.388   2.076   2.299
30311SOL    HW292831  12.255   2.091   2.370
30312SOL     OW92832   0.069   0.390  12.278
30312SOL    HW192833   0.153   0.408  12.321
30312SOL    HW292834   0.050   0.298  12.300
30313SOL     OW92835   1.013   5.914  10.364
30313SOL    HW192836   0.948   5.882  10.301
30313SOL    HW292837   1.018   5.845  10.430
30314SOL     OW92838   7.946  14.781   0.406
30314SOL    HW192839   8.010  14.848   0.430
30314SOL    HW292840   7.876  14.829   0.363
30315SOL     OW92841   7.335  11.860  13.799
30315SOL    HW192842   7.266  11.875  13.864
30315SOL    HW292843   7.323  11.769  13.772
30316SOL     OW92844   4.356   9.751   0.763
30316SOL    HW192845   4.338   9.837   0.724
30316SOL    HW292846   4.375   9.694   0.688
30317SOL     OW92847  11.817   0.218   3.428
30317SOL    HW192848  11.843   0.236   3.519
30317SOL    HW292849  11.729   0.179   3.436
30318SOL     OW92850   6.163   9.476  13.556
30318SOL    HW192851   6.246   9.473  13.508
30318SOL    HW292852   6.168   9.401  13.616
30319SOL     OW92853   4.609   1.677   1.014
30319SOL    HW192854   4.612   1.583   1.035
30319SOL    HW292855   4.517   1.693   0.990
30320SOL     OW92856   4.695  13.811   7.533
30320SOL    HW192857   4.749  13.838   7.607
30320SOL    HW292858   4.612  13.785   7.572
30321SOL     OW92859   4.660  11.519   5.453
30321SOL    HW192860   4.738  11.560   5.490
30321SOL    HW292861   4.676  11.425   5.462
30322SOL     OW92862   3.236  13.626   9.338
30322SOL    HW192863   3.187  13.634   9.419
30322SOL    HW292864   3.213  13.540   9.304
30323SOL     OW92865   0.636   5.185  14.571
30323SOL    HW192866   0.710   5.175  14.631
30323SOL    HW292867   0.605   5.274  14.586
30324SOL     OW92868   4.586   9.827   2.442
30324SOL    HW192869   4.623   9.894   2.385
30324SOL    HW292870   4.593   9.746   2.391
30325SOL     OW92871   4.715  13.979   5.400
30325SOL    HW192872   4.629  13.979   5.442
30325SOL    HW292873   4.775  13.946   5.467
30326SOL     OW92874  12.622   8.968  11.518
30326SOL    HW192875  12.527   8.958  11.509
30326SOL    HW292876  12.632   9.040  11.580
30327SOL     OW92877   0.026   7.347   2.821
30327SOL    HW192878   0.061   7.274   2.770
30327SOL    HW292879   0.062   7.334   2.908
30328SOL     OW92880   3.235   8.959  10.841
30328SOL    HW192881   3.287   9.037  10.820
30328SOL    HW292882   3.301   8.891  10.857
30329SOL     OW92883   3.365   9.657   4.060
30329SOL    HW192884   3.328   9.735   4.102
30329SOL    HW292885   3.437   9.690   4.006
30330SOL     OW92886  12.851   1.908  14.847
30330SOL    HW192887  12.884   1.861   0.054
30330SOL    HW292888  12.757   1.890  14.847
30331SOL     OW92889   0.619  14.052   1.840
30331SOL    HW192890   0.604  13.964   1.876
30331SOL    HW292891   0.684  14.091   1.898
30332SOL     OW92892  13.277   1.806  13.788
30332SOL    HW192893  13.304   1.835  13.875
30332SOL    HW292894  13.296   1.880  13.730
30333SOL     OW92895   1.906   4.826   9.881
30333SOL    HW192896   1.911   4.874   9.799
30333SOL    HW292897   1.830   4.769   9.870
30334SOL     OW92898   3.284   8.632  11.329
30334SOL    HW192899   3.330   8.605  11.408
30334SOL    HW292900   3.298   8.560  11.267
30335SOL     OW92901   2.144   1.218  13.369
30335SOL    HW192902   2.053   1.228  13.399
30335SOL    HW292903   2.195   1.272  13.428
30336SOL     OW92904   6.270   7.090   0.411
30336SOL    HW192905   6.317   7.113   0.331
30336SOL    HW292906   6.186   7.055   0.381
30337SOL     OW92907   5.136   9.324   1.711
30337SOL    HW192908   5.108   9.233   1.709
30337SOL    HW292909   5.069   9.371   1.660
30338SOL     OW92910  10.369  12.618   8.554
30338SOL    HW192911  10.365  12.649   8.463
30338SOL    HW292912  10.418  12.536   8.549
30339SOL     OW92913  14.575   7.359   0.401
30339SOL    HW192914  14.638   7.425   0.433
30339SOL    HW292915  14.602   7.278   0.444
30340SOL     OW92916   9.255  11.007   2.550
30340SOL    HW192917   9.186  11.033   2.490
30340SOL    HW292918   9.266  10.913   2.534
30341SOL     OW92919   0.944   0.979   6.475
30341SOL    HW192920   0.887   0.937   6.410
30341SOL    HW292921   0.888   1.041   6.521
30342SOL     OW92922   2.200   0.629  13.164
30342SOL    HW192923   2.216   0.535  13.175
30342SOL    HW292924   2.205   0.644  13.070
30343SOL     OW92925  12.649   1.498   2.883
30343SOL    HW192926  12.669   1.538   2.968
30343SOL    HW292927  12.718   1.433   2.870
30344SOL     OW92928   7.537  14.322   9.144
30344SOL    HW192929   7.569  14.287   9.061
30344SOL    HW292930   7.547  14.417   9.134
30345SOL     OW92931   6.290  12.619   8.977
30345SOL    HW192932   6.286  12.668   8.895
30345SOL    HW292933   6.374  12.644   9.016
30346SOL     OW92934   6.155  12.233   3.809
30346SOL    HW192935   6.179  12.234   3.902
30346SOL    HW292936   6.060  12.223   3.809
30347SOL     OW92937  10.398  10.109  12.394
30347SOL    HW192938  10.322  10.168  12.400
30347SOL    HW292939  10.388  10.050  12.468
30348SOL     OW92940  12.781   0.620   2.865
30348SOL    HW192941  12.770   0.714   2.854
30348SOL    HW292942  12.706   0.581   2.820
30349SOL     OW92943  11.642   6.812   6.556
30349SOL    HW192944  11.703   6.880   6.584
30349SOL    HW292945  11.573   6.813   6.622
30350SOL     OW92946   3.498   6.373   7.937
30350SOL    HW192947   3.523   6.463   7.919
30350SOL    HW292948   3.581   6.328   7.956
30351SOL     OW92949   6.490   7.016   7.137
30351SOL    HW192950   6.510   7.110   7.134
30351SOL    HW292951   6.511   6.991   7.227
30352SOL     OW92952  11.699   6.418  12.659
30352SOL    HW192953  11.724   6.349  12.597
30352SOL    HW292954  11.614   6.391  12.692
30353SOL     OW92955  12.425   4.462   6.612
30353SOL    HW192956  12.519   4.455   6.598
30353SOL    HW292957  12.398   4.375   6.641
30354SOL     OW92958   8.075   5.970   2.818
30354SOL    HW192959   8.028   5.970   2.901
30354SOL    HW292960   8.054   6.056   2.779
30355SOL     OW92961  11.051   0.529   4.820
30355SOL    HW192962  11.096   0.489   4.894
30355SOL    HW292963  11.081   0.620   4.819
30356SOL     OW92964   0.283   8.800  11.254
30356SOL    HW192965   0.203   8.791  11.305
30356SOL    HW292966   0.318   8.711  11.247
30357SOL     OW92967  13.604   7.324   0.258
30357SOL    HW192968  13.654   7.255   0.213
30357SOL    HW292969  13.524   7.333   0.206
30358SOL     OW92970   5.304   3.417   9.648
30358SOL    HW192971   5.231   3.439   9.706
30358SOL    HW292972   5.330   3.330   9.675
30359SOL     OW92973   5.642  11.664   3.833
30359SOL    HW192974   5.718  11.691   3.781
30359SOL    HW292975   5.679  11.616   3.907
30360SOL     OW92976   4.521   3.053   1.303
30360SOL    HW192977   4.564   2.993   1.242
30360SOL    HW292978   4.494   3.127   1.249
30361SOL     OW92979   3.961   7.518   5.907
30361SOL    HW192980   3.886   7.550   5.856
30361SOL    HW292981   3.982   7.433   5.869
30362SOL     OW92982   3.503   7.701   5.518
30362SOL    HW192983   3.508   7.789   5.480
30362SOL    HW292984   3.527   7.713   5.610
30363SOL     OW92985   0.895  11.641  11.388
30363SOL    HW192986   0.960  11.650  11.319
30363SOL    HW292987   0.900  11.549  11.414
30364SOL     OW92988   3.128   7.024   1.537
30364SOL    HW192989   3.085   7.086   1.595
30364SOL    HW292990   3.221   7.030   1.560
30365SOL     OW92991   0.411  10.421   7.626
30365SOL    HW192992   0.336  10.375   7.664
30365SOL    HW292993   0.373  10.502   7.592
30366SOL     OW92994   6.605   9.685   7.620
30366SOL    HW192995   6.628   9.593   7.606
30366SOL    HW292996   6.689   9.729   7.636
30367SOL     OW92997   3.544   9.854   3.421
30367SOL    HW192998   3.590   9.906   3.354
30367SOL    HW292999   3.585   9.880   3.503
30368SOL     OW93000  13.431   9.294   6.492
30368SOL    HW193001  13.421   9.388   6.509
30368SOL    HW293002  13.427   9.287   6.397
30369SOL     OW93003  10.493   8.950   7.377
30369SOL    HW193004  10.408   8.947   7.421
30369SOL    HW293005  10.480   9.010   7.303
30370SOL     OW93006   8.321  12.425  14.341
30370SOL    HW193007   8.317  12.478  14.421
30370SOL    HW293008   8.350  12.486  14.273
30371SOL     OW93009   0.903   5.308  11.259
30371SOL    HW193010   0.808   5.297  11.251
30371SOL    HW293011   0.937   5.288  11.172
30372SOL     OW93012   9.381  10.540  13.278
30372SOL    HW193013   9.371  10.605  13.348
30372SOL    HW293014   9.393  10.457  13.324
30373SOL     OW93015   5.497   0.434  12.530
30373SOL    HW193016   5.417   0.481  12.551
30373SOL    HW293017   5.544   0.492  12.470
30374SOL     OW93018   5.574  12.942   2.051
30374SOL    HW193019   5.592  12.963   2.143
30374SOL    HW293020   5.635  12.996   2.002
30375SOL     OW93021   6.457  13.211   5.299
30375SOL    HW193022   6.474  13.183   5.389
30375SOL    HW293023   6.376  13.262   5.304
30376SOL     OW93024  14.094   1.331   4.508
30376SOL    HW193025  14.060   1.418   4.486
30376SOL    HW293026  14.143   1.344   4.589
30377SOL     OW93027   0.609  12.817  10.244
30377SOL    HW193028   0.643  12.746  10.298
30377SOL    HW293029   0.558  12.871  10.304
30378SOL     OW93030   8.556   3.195  12.350
30378SOL    HW193031   8.551   3.135  12.276
30378SOL    HW293032   8.642   3.235  12.343
30379SOL     OW93033   0.222   8.950   1.163
30379SOL    HW193034   0.257   9.033   1.196
30379SOL    HW293035   0.297   8.890   1.166
30380SOL     OW93036   9.174   8.227   8.668
30380SOL    HW193037   9.261   8.243   8.705
30380SOL    HW293038   9.191   8.192   8.581
30381SOL     OW93039   9.405  14.167  13.806
30381SOL    HW193040   9.467  14.104  13.771
30381SOL    HW293041   9.387  14.226  13.732
30382SOL     OW93042   8.052   3.899   3.918
30382SOL    HW193043   8.085   3.852   3.842
30382SOL    HW293044   7.966   3.861   3.935
30383SOL     OW93045  11.634  13.040  14.495
30383SOL    HW193046  11.724  13.048  14.527
30383SOL    HW293047  11.580  13.046  14.574
30384SOL     OW93048   8.469   9.730  13.812
30384SOL    HW193049   8.531   9.801  13.793
30384SOL    HW293050   8.419   9.720  13.731
30385SOL     OW93051   2.528   7.390  11.755
30385SOL    HW193052   2.579   7.468  11.731
30385SOL    HW293053   2.437   7.418  11.748
30386SOL     OW93054   1.037   3.781   7.917
30386SOL    HW193055   1.117   3.745   7.879
30386SOL    HW293056   1.063   3.866   7.952
30387SOL     OW93057   2.255   2.580   9.782
30387SOL    HW193058   2.323   2.623   9.730
30387SOL    HW293059   2.261   2.488   9.757
30388SOL     OW93060   9.393  11.023  12.074
30388SOL    HW193061   9.386  11.111  12.113
30388SOL    HW293062   9.363  10.964  12.143
30389SOL     OW93063   6.159   7.584   0.876
30389SOL    HW193064   6.246   7.607   0.908
30389SOL    HW293065   6.099   7.635   0.932
30390SOL     OW93066   7.395   6.299   6.922
30390SOL    HW193067   7.401   6.369   6.856
30390SOL    HW293068   7.459   6.324   6.989
30391SOL     OW93069  13.676  10.435   9.363
30391SOL    HW193070  13.624  10.385   9.427
30391SOL    HW293071  13.755  10.384   9.351
30392SOL     OW93072  14.812   3.228   3.395
30392SOL    HW193073  14.780   3.217   3.484
30392SOL    HW293074  14.838   3.140   3.368
30393SOL     OW93075  14.351  12.421   5.495
30393SOL    HW193076  14.378  12.336   5.460
30393SOL    HW293077  14.422  12.448   5.553
30394SOL     OW93078  11.944   5.894   0.023
30394SOL    HW193079  11.884   5.819   0.016
30394SOL    HW293080  12.019   5.860   0.072
30395SOL     OW93081  11.899   4.301   6.449
30395SOL    HW193082  11.862   4.312   6.362
30395SOL    HW293083  11.877   4.382   6.495
30396SOL     OW93084   3.069   5.455  14.622
30396SOL    HW193085   3.014   5.522  14.582
30396SOL    HW293086   3.024   5.372  14.605
30397SOL     OW93087   8.878  13.831  12.137
30397SOL    HW193088   8.849  13.922  12.135
30397SOL    HW293089   8.838  13.795  12.217
30398SOL     OW93090   5.452  13.834   3.507
30398SOL    HW193091   5.470  13.742   3.528
30398SOL    HW293092   5.405  13.867   3.583
30399SOL     OW93093  14.401   3.674   7.122
30399SOL    HW193094  14.332   3.731   7.088
30399SOL    HW293095  14.481   3.726   7.117
30400SOL     OW93096   5.282   6.554   7.432
30400SOL    HW193097   5.311   6.510   7.352
30400SOL    HW293098   5.189   6.573   7.417
30401SOL     OW93099  13.936  13.241   4.683
30401SOL    HW193100  13.932  13.177   4.754
30401SOL    HW293101  13.975  13.192   4.610
30402SOL     OW93102  14.015   2.248   3.050
30402SOL    HW193103  14.003   2.206   2.965
30402SOL    HW293104  14.083   2.196   3.093
30403SOL     OW93105  12.941   4.914   2.382
30403SOL    HW193106  12.874   4.982   2.378
30403SOL    HW293107  13.020   4.961   2.410
30404SOL     OW93108   8.075   0.170   2.418
30404SOL    HW193109   8.151   0.227   2.427
30404SOL    HW293110   8.006   0.227   2.384
30405SOL     OW93111   5.968  12.741   9.215
30405SOL    HW193112   5.886  12.698   9.239
30405SOL    HW293113   5.944  12.805   9.149
30406SOL     OW93114   7.098  10.979  13.782
30406SOL    HW193115   7.061  11.047  13.726
30406SOL    HW293116   7.182  11.015  13.811
30407SOL     OW93117   2.846   2.225   8.089
30407SOL    HW193118   2.859   2.130   8.094
30407SOL    HW293119   2.915   2.262   8.145
30408SOL     OW93120   7.504   7.232  13.068
30408SOL    HW193121   7.500   7.327  13.053
30408SOL    HW293122   7.412   7.206  13.078
30409SOL     OW93123   4.123  14.636   9.459
30409SOL    HW193124   4.030  14.642   9.437
30409SOL    HW293125   4.138  14.542   9.473
30410SOL     OW93126   8.491  13.584   7.855
30410SOL    HW193127   8.440  13.616   7.929
30410SOL    HW293128   8.554  13.654   7.838
30411SOL     OW93129  11.095   3.173  11.115
30411SOL    HW193130  11.163   3.132  11.062
30411SOL    HW293131  11.101   3.266  11.094
30412SOL     OW93132  14.700   4.868   7.980
30412SOL    HW193133  14.746   4.897   7.901
30412SOL    HW293134  14.708   4.942   8.040
30413SOL     OW93135   8.162   0.811   9.812
30413SOL    HW193136   8.174   0.728   9.858
30413SOL    HW293137   8.166   0.877   9.881
30414SOL     OW93138   6.798   7.186   5.377
30414SOL    HW193139   6.859   7.113   5.373
30414SOL    HW293140   6.842   7.251   5.432
30415SOL     OW93141  13.217  13.600  12.399
30415SOL    HW193142  13.182  13.580  12.485
30415SOL    HW293143  13.301  13.642  12.416
30416SOL     OW93144   3.427   7.136   2.210
30416SOL    HW193145   3.385   7.069   2.156
30416SOL    HW293146   3.414   7.105   2.300
30417SOL     OW93147   2.592   5.767   6.402
30417SOL    HW193148   2.626   5.682   6.374
30417SOL    HW293149   2.497   5.760   6.389
30418SOL     OW93150   1.776   9.305   8.897
30418SOL    HW193151   1.764   9.218   8.860
30418SOL    HW293152   1.773   9.292   8.992
30419SOL     OW93153   0.280   7.507  12.452
30419SOL    HW193154   0.185   7.501  12.464
30419SOL    HW293155   0.314   7.423  12.482
30420SOL     OW93156   5.992  12.199  10.009
30420SOL    HW193157   6.077  12.219  10.048
30420SOL    HW293158   5.985  12.103  10.014
30421SOL     OW93159   9.385  13.173   6.236
30421SOL    HW193160   9.358  13.128   6.156
30421SOL    HW293161   9.481  13.178   6.230
30422SOL     OW93162   5.904  11.710   2.266
30422SOL    HW193163   5.885  11.673   2.180
30422SOL    HW293164   5.826  11.762   2.287
30423SOL     OW93165   5.081   2.939   5.507
30423SOL    HW193166   5.174   2.948   5.488
30423SOL    HW293167   5.074   2.855   5.554
30424SOL     OW93168  14.412   1.531   3.101
30424SOL    HW193169  14.352   1.601   3.128
30424SOL    HW293170  14.401   1.464   3.168
30425SOL     OW93171   7.575   7.068   2.152
30425SOL    HW193172   7.555   7.110   2.069
30425SOL    HW293173   7.541   6.979   2.143
30426SOL     OW93174   6.714  13.421   6.125
30426SOL    HW193175   6.717  13.506   6.080
30426SOL    HW293176   6.641  13.430   6.186
30427SOL     OW93177   1.425   4.900   0.106
30427SOL    HW193178   1.458   4.862   0.024
30427SOL    HW293179   1.473   4.982   0.116
30428SOL     OW93180   8.347   7.643   3.152
30428SOL    HW193181   8.299   7.583   3.209
30428SOL    HW293182   8.440   7.625   3.171
30429SOL     OW93183   6.265  10.727   6.644
30429SOL    HW193184   6.186  10.676   6.622
30429SOL    HW293185   6.330  10.660   6.665
30430SOL     OW93186   6.987  10.073   8.623
30430SOL    HW193187   6.996  10.014   8.698
30430SOL    HW293188   6.893  10.095   8.622
30431SOL     OW93189   2.471   5.163   6.897
30431SOL    HW193190   2.541   5.156   6.831
30431SOL    HW293191   2.391   5.174   6.846
30432SOL     OW93192   5.705   4.043  14.412
30432SOL    HW193193   5.651   3.981  14.363
30432SOL    HW293194   5.780   3.992  14.441
30433SOL     OW93195   0.866   3.385   2.033
30433SOL    HW193196   0.918   3.320   2.081
30433SOL    HW293197   0.846   3.453   2.098
30434SOL     OW93198  12.261   3.653   3.337
30434SOL    HW193199  12.348   3.615   3.348
30434SOL    HW293200  12.275   3.747   3.344
30435SOL     OW93201   9.477   9.014   4.056
30435SOL    HW193202   9.552   8.981   4.105
30435SOL    HW293203   9.503   9.008   3.964
30436SOL     OW93204   0.836   9.140  14.073
30436SOL    HW193205   0.843   9.077  14.144
30436SOL    HW293206   0.742   9.145  14.055
30437SOL     OW93207   5.931   8.928   1.167
30437SOL    HW193208   6.001   8.922   1.231
30437SOL    HW293209   5.877   8.851   1.183
30438SOL     OW93210   2.234  10.156   7.226
30438SOL    HW193211   2.296  10.115   7.287
30438SOL    HW293212   2.221  10.090   7.158
30439SOL     OW93213   3.451   8.899   3.301
30439SOL    HW193214   3.469   8.989   3.329
30439SOL    HW293215   3.356   8.890   3.308
30440SOL     OW93216   4.093   1.316  13.261
30440SOL    HW193217   4.152   1.337  13.334
30440SOL    HW293218   4.095   1.221  13.255
30441SOL     OW93219  10.382   2.442  14.345
30441SOL    HW193220  10.418   2.502  14.280
30441SOL    HW293221  10.456   2.418  14.401
30442SOL     OW93222  13.203   9.857   9.749
30442SOL    HW193223  13.296   9.876   9.740
30442SOL    HW293224  13.186   9.864   9.843
30443SOL     OW93225   0.820  10.220   3.770
30443SOL    HW193226   0.876  10.264   3.706
30443SOL    HW293227   0.763  10.289   3.803
30444SOL     OW93228   4.432  13.991   7.464
30444SOL    HW193229   4.426  13.907   7.509
30444SOL    HW293230   4.343  14.027   7.468
30445SOL     OW93231   0.187  11.458  12.041
30445SOL    HW193232   0.229  11.374  12.025
30445SOL    HW293233   0.162  11.455  12.134
30446SOL     OW93234   4.979   8.433   1.987
30446SOL    HW193235   5.028   8.355   1.961
30446SOL    HW293236   4.978   8.488   1.909
30447SOL     OW93237   7.363  11.569   2.587
30447SOL    HW193238   7.269  11.579   2.596
30447SOL    HW293239   7.375  11.521   2.505
30448SOL     OW93240  10.482  11.001   4.118
30448SOL    HW193241  10.440  10.916   4.134
30448SOL    HW293242  10.558  11.001   4.177
30449SOL     OW93243  10.638   0.230  12.657
30449SOL    HW193244  10.639   0.206  12.565
30449SOL    HW293245  10.728   0.260  12.675
30450SOL     OW93246   8.721  12.001   8.109
30450SOL    HW193247   8.746  11.945   8.183
30450SOL    HW293248   8.801  12.046   8.085
30451SOL     OW93249  10.497   8.928   0.134
30451SOL    HW193250  10.470   8.994   0.070
30451SOL    HW293251  10.572   8.885   0.094
30452SOL     OW93252   6.617  14.184   3.189
30452SOL    HW193253   6.703  14.147   3.166
30452SOL    HW293254   6.628  14.212   3.280
30453SOL     OW93255   4.160   7.475   8.730
30453SOL    HW193256   4.198   7.388   8.739
30453SOL    HW293257   4.183   7.503   8.642
30454SOL     OW93258   3.907  13.680   8.362
30454SOL    HW193259   3.961  13.713   8.434
30454SOL    HW293260   3.950  13.600   8.334
30455SOL     OW93261   2.665   9.058   7.916
30455SOL    HW193262   2.689   9.127   7.854
30455SOL    HW293263   2.676   8.977   7.867
30456SOL     OW93264   9.922   0.167  13.470
30456SOL    HW193265   9.994   0.209  13.517
30456SOL    HW293266   9.948   0.173  13.378
30457SOL     OW93267   3.385  10.355   5.955
30457SOL    HW193268   3.452  10.379   6.019
30457SOL    HW293269   3.319  10.307   6.005
30458SOL     OW93270  14.845   7.722  12.098
30458SOL    HW193271   0.041   7.656  12.121
30458SOL    HW293272  14.768   7.697  12.148
30459SOL     OW93273   2.964   2.682   0.058
30459SOL    HW193274   3.004   2.768   0.050
30459SOL    HW293275   2.968   2.645  14.839
30460SOL     OW93276   8.756  12.960   2.890
30460SOL    HW193277   8.829  13.016   2.863
30460SOL    HW293278   8.744  12.899   2.817
30461SOL     OW93279  11.541   7.770   3.928
30461SOL    HW193280  11.477   7.840   3.920
30461SOL    HW293281  11.605   7.802   3.992
30462SOL     OW93282   4.552  11.735   5.601
30462SOL    HW193283   4.577  11.651   5.563
30462SOL    HW293284   4.547  11.718   5.695
30463SOL     OW93285  10.682   8.761  11.904
30463SOL    HW193286  10.709   8.706  11.978
30463SOL    HW293287  10.619   8.706  11.856
30464SOL     OW93288  13.264   4.767   1.731
30464SOL    HW193289  13.270   4.733   1.821
30464SOL    HW293290  13.350   4.806   1.714
30465SOL     OW93291   7.291  12.151   1.936
30465SOL    HW193292   7.247  12.194   1.862
30465SOL    HW293293   7.275  12.058   1.923
30466SOL     OW93294   5.012   3.962  11.340
30466SOL    HW193295   4.943   3.972  11.275
30466SOL    HW293296   5.078   4.026  11.315
30467SOL     OW93297   3.819   4.577  14.553
30467SOL    HW193298   3.886   4.519  14.590
30467SOL    HW293299   3.867   4.656  14.528
30468SOL     OW93300   8.994   3.184   1.081
30468SOL    HW193301   9.001   3.207   0.989
30468SOL    HW293302   8.925   3.241   1.115
30469SOL     OW93303   2.038  11.200  14.257
30469SOL    HW193304   2.097  11.126  14.242
30469SOL    HW293305   1.973  11.168  14.319
30470SOL     OW93306   2.154   5.291   4.826
30470SOL    HW193307   2.113   5.350   4.762
30470SOL    HW293308   2.150   5.340   4.908
30471SOL     OW93309   2.368   5.944   4.781
30471SOL    HW193310   2.452   5.961   4.738
30471SOL    HW293311   2.390   5.899   4.862
30472SOL     OW93312   5.954  14.070   6.656
30472SOL    HW193313   5.911  14.011   6.594
30472SOL    HW293314   5.905  14.152   6.647
30473SOL     OW93315   8.015   4.745  12.033
30473SOL    HW193316   7.991   4.652  12.042
30473SOL    HW293317   8.104   4.742  11.996
30474SOL     OW93318  12.088  14.709   2.987
30474SOL    HW193319  12.046  14.735   2.905
30474SOL    HW293320  12.028  14.739   3.056
30475SOL     OW93321   7.574   6.020   5.509
30475SOL    HW193322   7.645   6.050   5.453
30475SOL    HW293323   7.495   6.039   5.460
30476SOL     OW93324   1.344  11.221   0.291
30476SOL    HW193325   1.257  11.216   0.251
30476SOL    HW293326   1.390  11.288   0.240
30477SOL     OW93327  10.111  11.779   6.629
30477SOL    HW193328  10.017  11.764   6.626
30477SOL    HW293329  10.120  11.872   6.650
30478SOL     OW93330  10.682  10.664   1.063
30478SOL    HW193331  10.767  10.697   1.091
30478SOL    HW293332  10.628  10.664   1.142
30479SOL     OW93333   6.403  11.032   5.667
30479SOL    HW193334   6.429  10.968   5.734
30479SOL    HW293335   6.472  11.098   5.669
30480SOL     OW93336  12.874   6.026   3.899
30480SOL    HW193337  12.926   6.045   3.821
30480SOL    HW293338  12.880   6.105   3.952
30481SOL     OW93339   1.162  10.526  11.544
30481SOL    HW193340   1.237  10.566  11.499
30481SOL    HW293341   1.158  10.572  11.628
30482SOL     OW93342   7.357   4.961   5.907
30482SOL    HW193343   7.297   4.890   5.888
30482SOL    HW293344   7.442   4.930   5.878
30483SOL     OW93345   3.163   8.435   8.415
30483SOL    HW193346   3.095   8.499   8.397
30483SOL    HW293347   3.240   8.487   8.439
30484SOL     OW93348  11.061   6.093  13.115
30484SOL    HW193349  10.973   6.126  13.130
30484SOL    HW293350  11.048   6.012  13.066
30485SOL     OW93351   8.723   8.723  10.658
30485SOL    HW193352   8.700   8.802  10.706
30485SOL    HW293353   8.796   8.749  10.602
30486SOL     OW93354  14.827   3.411   9.644
30486SOL    HW193355  14.776   3.442   9.570
30486SOL    HW293356   0.045   3.447   9.630
30487SOL     OW93357   6.857   3.773   2.298
30487SOL    HW193358   6.772   3.751   2.259
30487SOL    HW293359   6.837   3.841   2.362
30488SOL     OW93360  14.232   6.710   0.001
30488SOL    HW193361  14.299   6.779  14.864
30488SOL    HW293362  14.276   6.639   0.046
30489SOL     OW93363   3.788   0.017   6.928
30489SOL    HW193364   3.818   0.107   6.937
30489SOL    HW293365   3.869  14.835   6.922
30490SOL     OW93366  13.307  13.098   1.639
30490SOL    HW193367  13.307  13.119   1.733
30490SOL    HW293368  13.338  13.178   1.597
30491SOL     OW93369   5.985   2.749   1.830
30491SOL    HW193370   5.899   2.788   1.845
30491SOL    HW293371   6.047   2.817   1.856
30492SOL     OW93372   4.179   3.343  14.799
30492SOL    HW193373   4.222   3.407  14.856
30492SOL    HW293374   4.238   3.334  14.724
30493SOL     OW93375  13.585  12.961  13.268
30493SOL    HW193376  13.585  13.045  13.314
30493SOL    HW293377  13.609  12.983  13.178
30494SOL     OW93378   0.225  11.533   2.985
30494SOL    HW193379   0.244  11.531   2.891
30494SOL    HW293380   0.223  11.626   3.007
30495SOL     OW93381   3.143   8.228   5.493
30495SOL    HW193382   3.073   8.175   5.531
30495SOL    HW293383   3.097   8.298   5.446
30496SOL     OW93384   8.342  12.008  14.043
30496SOL    HW193385   8.402  12.083  14.040
30496SOL    HW293386   8.261  12.041  14.004
30497SOL     OW93387   1.823   4.365   1.405
30497SOL    HW193388   1.894   4.353   1.342
30497SOL    HW293389   1.801   4.458   1.399
30498SOL     OW93390   3.759   2.706   5.406
30498SOL    HW193391   3.761   2.640   5.337
30498SOL    HW293392   3.841   2.693   5.454
30499SOL     OW93393   8.829   5.452  12.392
30499SOL    HW193394   8.784   5.405  12.322
30499SOL    HW293395   8.827   5.392  12.466
30500SOL     OW93396  13.516  11.467   8.729
30500SOL    HW193397  13.459  11.538   8.757
30500SOL    HW293398  13.495  11.455   8.636
30501SOL     OW93399   4.569  10.722  12.429
30501SOL    HW193400   4.582  10.809  12.392
30501SOL    HW293401   4.618  10.663  12.372
30502SOL     OW93402  11.644   7.136   9.511
30502SOL    HW193403  11.738   7.145   9.529
30502SOL    HW293404  11.617   7.224   9.481
30503SOL     OW93405  14.321  14.274   1.421
30503SOL    HW193406  14.406  14.294   1.381
30503SOL    HW293407  14.313  14.336   1.493
30504SOL     OW93408   7.529   1.083  14.294
30504SOL    HW193409   7.616   1.070  14.332
30504SOL    HW293410   7.470   1.079  14.369
30505SOL     OW93411  11.940   2.449   3.213
30505SOL    HW193412  11.890   2.496   3.279
30505SOL    HW293413  12.004   2.398   3.263
30506SOL     OW93414   7.236  13.588   6.732
30506SOL    HW193415   7.196  13.513   6.688
30506SOL    HW293416   7.321  13.557   6.762
30507SOL     OW93417   3.506  11.597   4.322
30507SOL    HW193418   3.512  11.555   4.408
30507SOL    HW293419   3.572  11.551   4.268
30508SOL     OW93420   6.689   9.121   9.404
30508SOL    HW193421   6.736   9.177   9.466
30508SOL    HW293422   6.636   9.181   9.352
30509SOL     OW93423   7.040   9.381   0.236
30509SOL    HW193424   7.115   9.322   0.229
30509SOL    HW293425   6.973   9.329   0.281
30510SOL     OW93426   3.215   4.294   0.466
30510SOL    HW193427   3.181   4.213   0.505
30510SOL    HW293428   3.146   4.323   0.407
30511SOL     OW93429   9.331   6.997  12.284
30511SOL    HW193430   9.367   6.979  12.197
30511SOL    HW293431   9.237   7.011  12.268
30512SOL     OW93432   6.553  11.928   3.967
30512SOL    HW193433   6.616  11.865   3.932
30512SOL    HW293434   6.493  11.945   3.894
30513SOL     OW93435   9.893   9.093   9.296
30513SOL    HW193436   9.974   9.110   9.344
30513SOL    HW293437   9.824   9.133   9.348
30514SOL     OW93438  14.469   9.390   8.251
30514SOL    HW193439  14.510   9.476   8.261
30514SOL    HW293440  14.505   9.354   8.170
30515SOL     OW93441  14.251  10.473   8.493
30515SOL    HW193442  14.240  10.455   8.400
30515SOL    HW293443  14.165  10.457   8.531
30516SOL     OW93444   9.051   2.208   4.690
30516SOL    HW193445   9.072   2.289   4.643
30516SOL    HW293446   9.067   2.228   4.782
30517SOL     OW93447   2.540   2.443   9.094
30517SOL    HW193448   2.489   2.500   9.151
30517SOL    HW293449   2.571   2.373   9.152
30518SOL     OW93450   4.182  13.870   6.478
30518SOL    HW193451   4.193  13.946   6.534
30518SOL    HW293452   4.208  13.900   6.391
30519SOL     OW93453   6.872   0.543  12.461
30519SOL    HW193454   6.827   0.482  12.520
30519SOL    HW293455   6.829   0.627  12.476
30520SOL     OW93456   7.981   6.502   9.917
30520SOL    HW193457   8.046   6.553   9.966
30520SOL    HW293458   7.897   6.529   9.954
30521SOL     OW93459   4.799   4.514  12.541
30521SOL    HW193460   4.721   4.564  12.520
30521SOL    HW293461   4.814   4.459  12.464
30522SOL     OW93462  12.148   0.332   0.357
30522SOL    HW193463  12.096   0.310   0.434
30522SOL    HW293464  12.217   0.265   0.355
30523SOL     OW93465   0.068   7.015  10.936
30523SOL    HW193466   0.156   6.980  10.948
30523SOL    HW293467   0.010   6.941  10.952
30524SOL     OW93468  10.652  10.662  11.810
30524SOL    HW193469  10.656  10.691  11.902
30524SOL    HW293470  10.656  10.567  11.815
30525SOL     OW93471   0.008  10.737  11.539
30525SOL    HW193472   0.023  10.670  11.473
30525SOL    HW293473   0.002  10.688  11.621
30526SOL     OW93474   4.683   3.261   2.476
30526SOL    HW193475   4.734   3.331   2.515
30526SOL    HW293476   4.630   3.225   2.548
30527SOL     OW93477   1.383   4.235   8.357
30527SOL    HW193478   1.391   4.140   8.350
30527SOL    HW293479   1.315   4.258   8.293
30528SOL     OW93480  10.252  14.360   1.073
30528SOL    HW193481  10.258  14.291   1.007
30528SOL    HW293482  10.262  14.314   1.157
30529SOL     OW93483   6.801   6.973  10.946
30529SOL    HW193484   6.794   6.880  10.923
30529SOL    HW293485   6.734   6.986  11.013
30530SOL     OW93486   0.130  12.409   7.724
30530SOL    HW193487   0.189  12.415   7.799
30530SOL    HW293488   0.174  12.349   7.663
30531SOL     OW93489   5.647  12.410   4.903
30531SOL    HW193490   5.555  12.422   4.879
30531SOL    HW293491   5.691  12.488   4.868
30532SOL     OW93492   6.725   1.352   7.620
30532SOL    HW193493   6.656   1.345   7.686
30532SOL    HW293494   6.787   1.415   7.657
30533SOL     OW93495   5.560   8.195   3.218
30533SOL    HW193496   5.514   8.253   3.278
30533SOL    HW293497   5.647   8.186   3.255
30534SOL     OW93498   3.876  14.410  12.572
30534SOL    HW193499   3.952  14.449  12.529
30534SOL    HW293500   3.894  14.316  12.572
30535SOL     OW93501  12.962   3.345  12.695
30535SOL    HW193502  12.962   3.344  12.790
30535SOL    HW293503  12.950   3.253  12.670
30536SOL     OW93504   3.318  13.309   2.617
30536SOL    HW193505   3.373  13.355   2.554
30536SOL    HW293506   3.272  13.379   2.664
30537SOL     OW93507   4.173   9.684   3.339
30537SOL    HW193508   4.263   9.705   3.312
30537SOL    HW293509   4.136   9.768   3.366
30538SOL     OW93510  12.480   7.199   3.253
30538SOL    HW193511  12.480   7.126   3.315
30538SOL    HW293512  12.442   7.163   3.173
30539SOL     OW93513   4.376   4.071   9.255
30539SOL    HW193514   4.379   3.982   9.290
30539SOL    HW293515   4.424   4.123   9.319
30540SOL     OW93516  11.863  13.961   1.960
30540SOL    HW193517  11.843  13.972   1.867
30540SOL    HW293518  11.948  13.916   1.961
30541SOL     OW93519  11.571   4.982  13.116
30541SOL    HW193520  11.562   4.897  13.072
30541SOL    HW293521  11.663   4.988  13.139
30542SOL     OW93522   3.254   0.986  12.815
30542SOL    HW193523   3.292   1.074  12.821
30542SOL    HW293524   3.187   0.994  12.747
30543SOL     OW93525   7.742   9.094   4.815
30543SOL    HW193526   7.653   9.127   4.830
30543SOL    HW293527   7.789   9.116   4.895
30544SOL     OW93528   6.798   7.885   7.776
30544SOL    HW193529   6.812   7.833   7.696
30544SOL    HW293530   6.806   7.976   7.747
30545SOL     OW93531  14.693  11.156  10.163
30545SOL    HW193532  14.771  11.103  10.147
30545SOL    HW293533  14.699  11.226  10.098
30546SOL     OW93534  13.303  11.212  12.890
30546SOL    HW193535  13.334  11.123  12.876
30546SOL    HW293536  13.361  11.248  12.957
30547SOL     OW93537  10.630  11.701  10.364
30547SOL    HW193538  10.543  11.725  10.397
30547SOL    HW293539  10.624  11.607  10.347
30548SOL     OW93540   6.024  11.974   3.623
30548SOL    HW193541   5.948  11.917   3.635
30548SOL    HW293542   5.987  12.062   3.617
30549SOL     OW93543   4.275  11.671  10.555
30549SOL    HW193544   4.268  11.638  10.466
30549SOL    HW293545   4.186  11.668  10.590
30550SOL     OW93546   6.340   9.208  12.420
30550SOL    HW193547   6.425   9.238  12.453
30550SOL    HW293548   6.285   9.286  12.425
30551SOL     OW93549   8.428  14.332   9.555
30551SOL    HW193550   8.454  14.424   9.553
30551SOL    HW293551   8.471  14.293   9.479
30552SOL     OW93552  10.696   7.098   8.984
30552SOL    HW193553  10.618   7.142   8.949
30552SOL    HW293554  10.670   7.006   8.992
30553SOL     OW93555   1.201   8.665   6.847
30553SOL    HW193556   1.222   8.758   6.848
30553SOL    HW293557   1.140   8.655   6.774
30554SOL     OW93558   0.801   1.811   9.695
30554SOL    HW193559   0.827   1.814   9.603
30554SOL    HW293560   0.776   1.900   9.717
30555SOL     OW93561  12.956   4.341   8.455
30555SOL    HW193562  12.947   4.324   8.361
30555SOL    HW293563  13.050   4.327   8.472
30556SOL     OW93564   1.587  14.587  13.408
30556SOL    HW193565   1.549  14.543  13.332
30556SOL    HW293566   1.526  14.567  13.480
30557SOL     OW93567  13.764   0.083  13.205
30557SOL    HW193568  13.832   0.022  13.177
30557SOL    HW293569  13.682   0.036  13.189
30558SOL     OW93570   5.472  14.520   6.884
30558SOL    HW193571   5.471  14.614   6.902
30558SOL    HW293572   5.555  14.505   6.839
30559SOL     OW93573  14.641   2.628  14.053
30559SOL    HW193574  14.657   2.634  13.959
30559SOL    HW293575  14.719   2.666  14.093
30560SOL     OW93576   1.279  13.539  14.233
30560SOL    HW193577   1.372  13.554  14.246
30560SOL    HW293578   1.260  13.582  14.149
30561SOL     OW93579   8.998   2.639  11.211
30561SOL    HW193580   8.955   2.675  11.288
30561SOL    HW293581   8.979   2.702  11.141
30562SOL     OW93582  14.359  14.636   4.795
30562SOL    HW193583  14.443  14.592   4.799
30562SOL    HW293584  14.342  14.665   4.885
30563SOL     OW93585  13.268  13.153   5.781
30563SOL    HW193586  13.252  13.105   5.700
30563SOL    HW293587  13.228  13.239   5.765
30564SOL     OW93588  11.259   2.256  11.413
30564SOL    HW193589  11.340   2.220  11.376
30564SOL    HW293590  11.245   2.337  11.365
30565SOL     OW93591  14.606   7.619   3.592
30565SOL    HW193592  14.532   7.656   3.542
30565SOL    HW293593  14.570   7.540   3.632
30566SOL     OW93594   8.820   7.741   5.963
30566SOL    HW193595   8.778   7.805   6.020
30566SOL    HW293596   8.912   7.739   5.992
30567SOL     OW93597   9.817  11.746   2.132
30567SOL    HW193598   9.739  11.730   2.184
30567SOL    HW293599   9.856  11.825   2.170
30568SOL     OW93600   0.356   9.944  12.614
30568SOL    HW193601   0.437   9.979  12.652
30568SOL    HW293602   0.303  10.022  12.597
30569SOL     OW93603   6.038   6.771   4.204
30569SOL    HW193604   5.955   6.797   4.243
30569SOL    HW293605   6.086   6.852   4.191
30570SOL     OW93606   8.927   4.782  12.508
30570SOL    HW193607   8.994   4.729  12.551
30570SOL    HW293608   8.975   4.839  12.448
30571SOL     OW93609   8.535   0.045   8.691
30571SOL    HW193610   8.588  14.866   8.754
30571SOL    HW293611   8.536   0.135   8.724
30572SOL     OW93612   5.365   3.157  13.495
30572SOL    HW193613   5.378   3.238  13.445
30572SOL    HW293614   5.452   3.115  13.496
30573SOL     OW93615   1.522   7.369  10.553
30573SOL    HW193616   1.605   7.345  10.595
30573SOL    HW293617   1.473   7.414  10.622
30574SOL     OW93618   3.428   2.054   2.913
30574SOL    HW193619   3.368   2.079   2.843
30574SOL    HW293620   3.485   1.988   2.873
30575SOL     OW93621  10.095  13.526   1.482
30575SOL    HW193622  10.171  13.498   1.532
30575SOL    HW293623  10.132  13.576   1.409
30576SOL     OW93624   5.516   5.504  11.513
30576SOL    HW193625   5.449   5.479  11.448
30576SOL    HW293626   5.597   5.510  11.463
30577SOL     OW93627   1.636   0.359   4.566
30577SOL    HW193628   1.708   0.333   4.622
30577SOL    HW293629   1.564   0.300   4.589
30578SOL     OW93630   2.574   2.970   1.720
30578SOL    HW193631   2.493   3.013   1.748
30578SOL    HW293632   2.623   3.038   1.674
30579SOL     OW93633   9.604  13.209   1.990
30579SOL    HW193634   9.672  13.235   1.929
30579SOL    HW293635   9.605  13.276   2.058
30580SOL     OW93636  14.594  13.034   1.175
30580SOL    HW193637  14.581  13.123   1.207
30580SOL    HW293638  14.534  13.025   1.101
30581SOL     OW93639   8.600   5.511  14.097
30581SOL    HW193640   8.560   5.529  14.181
30581SOL    HW293641   8.629   5.596  14.065
30582SOL     OW93642   1.319  14.306   5.898
30582SOL    HW193643   1.243  14.360   5.918
30582SOL    HW293644   1.372  14.360   5.841
30583SOL     OW93645  12.069   3.978   5.639
30583SOL    HW193646  12.052   3.884   5.649
30583SOL    HW293647  12.097   4.007   5.725
30584SOL     OW93648   1.925  14.256   6.054
30584SOL    HW193649   1.927  14.309   5.974
30584SOL    HW293650   1.855  14.193   6.039
30585SOL     OW93651   6.275   0.542   2.943
30585SOL    HW193652   6.188   0.567   2.975
30585SOL    HW293653   6.305   0.475   3.005
30586SOL     OW93654   8.368   1.165   1.988
30586SOL    HW193655   8.297   1.185   2.049
30586SOL    HW293656   8.425   1.241   1.991
30587SOL     OW93657   3.169   9.649  14.539
30587SOL    HW193658   3.261   9.649  14.563
30587SOL    HW293659   3.165   9.598  14.458
30588SOL     OW93660   0.359   9.586  11.692
30588SOL    HW193661   0.281   9.531  11.682
30588SOL    HW293662   0.417   9.536  11.749
30589SOL     OW93663   2.304  13.159  12.175
30589SOL    HW193664   2.393  13.138  12.202
30589SOL    HW293665   2.292  13.111  12.093
30590SOL     OW93666   6.694   3.589  13.265
30590SOL    HW193667   6.609   3.632  13.257
30590SOL    HW293668   6.680   3.520  13.331
30591SOL     OW93669   5.812  14.839  13.919
30591SOL    HW193670   5.778  14.750  13.931
30591SOL    HW293671   5.734   0.025  13.915
30592SOL     OW93672   6.377  14.685   6.429
30592SOL    HW193673   6.308  14.706   6.492
30592SOL    HW293674   6.369  14.753   6.362
30593SOL     OW93675  13.709  10.952   5.445
30593SOL    HW193676  13.704  10.860   5.419
30593SOL    HW293677  13.626  10.968   5.492
30594SOL     OW93678   0.563   3.818   9.762
30594SOL    HW193679   0.540   3.904   9.797
30594SOL    HW293680   0.625   3.782   9.825
30595SOL     OW93681  11.772  11.019  10.038
30595SOL    HW193682  11.852  11.000  10.088
30595SOL    HW293683  11.780  11.112  10.016
30596SOL     OW93684   8.041   2.041   7.478
30596SOL    HW193685   7.949   2.013   7.480
30596SOL    HW293686   8.039   2.127   7.520
30597SOL     OW93687   6.214  14.448   8.794
30597SOL    HW193688   6.125  14.413   8.790
30597SOL    HW293689   6.215  14.518   8.728
30598SOL     OW93690   1.235  14.350  13.435
30598SOL    HW193691   1.149  14.371  13.471
30598SOL    HW293692   1.296  14.397  13.491
30599SOL     OW93693  14.477  13.526   6.037
30599SOL    HW193694  14.467  13.487   5.950
30599SOL    HW293695  14.394  13.509   6.081
30600SOL     OW93696   3.866   5.264   2.817
30600SOL    HW193697   3.830   5.352   2.827
30600SOL    HW293698   3.874   5.231   2.906
30601SOL     OW93699   4.677   6.856   7.670
30601SOL    HW193700   4.595   6.904   7.684
30601SOL    HW293701   4.684   6.849   7.575
30602SOL     OW93702   8.987   5.406   2.073
30602SOL    HW193703   8.929   5.395   2.148
30602SOL    HW293704   8.931   5.437   2.002
30603SOL     OW93705   8.724   1.670   6.088
30603SOL    HW193706   8.724   1.586   6.135
30603SOL    HW293707   8.678   1.652   6.006
30604SOL     OW93708   5.982  10.968  13.490
30604SOL    HW193709   6.010  11.026  13.562
30604SOL    HW293710   6.045  10.896  13.492
30605SOL     OW93711   1.823  12.077   1.147
30605SOL    HW193712   1.847  12.170   1.151
30605SOL    HW293713   1.811  12.051   1.238
30606SOL     OW93714  10.231   8.047  12.373
30606SOL    HW193715  10.323   8.031  12.353
30606SOL    HW293716  10.227   8.140  12.395
30607SOL     OW93717   9.522  10.832   0.435
30607SOL    HW193718   9.438  10.789   0.450
30607SOL    HW293719   9.500  10.918   0.401
30608SOL     OW93720  10.436  14.608   2.943
30608SOL    HW193721  10.349  14.599   2.984
30608SOL    HW293722  10.483  14.666   3.003
30609SOL     OW93723   5.095   0.187   6.316
30609SOL    HW193724   5.108   0.237   6.236
30609SOL    HW293725   5.000   0.177   6.323
30610SOL     OW93726  14.177   8.051   6.002
30610SOL    HW193727  14.206   7.967   6.037
30610SOL    HW293728  14.085   8.037   5.980
30611SOL     OW93729   3.733  10.308   2.580
30611SOL    HW193730   3.709  10.252   2.654
30611SOL    HW293731   3.656  10.363   2.566
30612SOL     OW93732   7.909   9.834   4.977
30612SOL    HW193733   7.844   9.766   4.958
30612SOL    HW293734   7.928   9.874   4.892
30613SOL     OW93735   0.232   7.851   6.177
30613SOL    HW193736   0.199   7.802   6.101
30613SOL    HW293737   0.177   7.821   6.250
30614SOL     OW93738  12.928  13.411  11.153
30614SOL    HW193739  12.956  13.476  11.218
30614SOL    HW293740  12.934  13.327  11.199
30615SOL     OW93741   7.094  11.751  14.416
30615SOL    HW193742   7.104  11.834  14.368
30615SOL    HW293743   7.153  11.759  14.490
30616SOL     OW93744   6.986   6.229  14.843
30616SOL    HW193745   7.031   6.299   0.022
30616SOL    HW293746   6.893   6.243  14.863
30617SOL     OW93747   9.343   7.042   0.298
30617SOL    HW193748   9.314   7.024   0.387
30617SOL    HW293749   9.437   7.056   0.306
30618SOL     OW93750   6.780   7.038   2.871
30618SOL    HW193751   6.697   7.069   2.907
30618SOL    HW293752   6.846   7.076   2.928
30619SOL     OW93753  11.646  10.235   2.424
30619SOL    HW193754  11.613  10.147   2.407
30619SOL    HW293755  11.739  10.223   2.443
30620SOL     OW93756  14.147   0.752   6.681
30620SOL    HW193757  14.216   0.747   6.615
30620SOL    HW293758  14.182   0.705   6.756
30621SOL     OW93759  14.527  10.654  11.441
30621SOL    HW193760  14.600  10.709  11.413
30621SOL    HW293761  14.449  10.709  11.426
30622SOL     OW93762   2.141  14.603   3.251
30622SOL    HW193763   2.126  14.581   3.342
30622SOL    HW293764   2.062  14.573   3.205
30623SOL     OW93765   0.455  13.862   3.378
30623SOL    HW193766   0.418  13.777   3.401
30623SOL    HW293767   0.545  13.858   3.409
30624SOL     OW93768  10.045  10.500   9.529
30624SOL    HW193769   9.987  10.558   9.579
30624SOL    HW293770  10.125  10.494   9.582
30625SOL     OW93771  13.795   9.170  13.631
30625SOL    HW193772  13.888   9.167  13.611
30625SOL    HW293773  13.763   9.082  13.612
30626SOL     OW93774  14.853  14.863  11.742
30626SOL    HW193775  14.762  14.851  11.771
30626SOL    HW293776  14.846   0.028  11.653
30627SOL     OW93777   5.349  13.083   7.823
30627SOL    HW193778   5.354  13.056   7.731
30627SOL    HW293779   5.255  13.082   7.842
30628SOL     OW93780   9.967  11.246   7.202
30628SOL    HW193781   9.878  11.242   7.166
30628SOL    HW293782  10.021  11.278   7.129
30629SOL     OW93783  14.546   8.213   6.663
30629SOL    HW193784  14.608   8.239   6.731
30629SOL    HW293785  14.485   8.154   6.707
30630SOL     OW93786  12.395  10.138   8.984
30630SOL    HW193787  12.483  10.112   9.011
30630SOL    HW293788  12.368  10.203   9.049
30631SOL     OW93789   4.594  13.637  14.414
30631SOL    HW193790   4.627  13.665  14.328
30631SOL    HW293791   4.561  13.548  14.399
30632SOL     OW93792  12.605   1.859  12.064
30632SOL    HW193793  12.577   1.842  12.154
30632SOL    HW293794  12.698   1.837  12.063
30633SOL     OW93795  13.686   5.872  12.972
30633SOL    HW193796  13.720   5.920  13.048
30633SOL    HW293797  13.593   5.859  12.992
30634SOL     OW93798   8.356   8.813   8.835
30634SOL    HW193799   8.281   8.824   8.894
30634SOL    HW293800   8.432   8.824   8.892
30635SOL     OW93801   3.796  12.055  10.601
30635SOL    HW193802   3.725  12.026  10.659
30635SOL    HW293803   3.785  12.003  10.522
30636SOL     OW93804   0.296   7.678   2.543
30636SOL    HW193805   0.312   7.771   2.528
30636SOL    HW293806   0.212   7.660   2.500
30637SOL     OW93807   6.020   7.959   9.648
30637SOL    HW193808   6.041   7.885   9.590
30637SOL    HW293809   5.949   7.926   9.703
30638SOL     OW93810  12.760   6.595   8.816
30638SOL    HW193811  12.739   6.564   8.904
30638SOL    HW293812  12.687   6.653   8.793
30639SOL     OW93813   4.448  12.721  13.657
30639SOL    HW193814   4.491  12.723  13.742
30639SOL    HW293815   4.520  12.730  13.594
30640SOL     OW93816   8.138  13.935  12.661
30640SOL    HW193817   8.130  13.979  12.577
30640SOL    HW293818   8.155  14.005  12.724
30641SOL     OW93819  11.237   8.260   8.238
30641SOL    HW193820  11.210   8.331   8.296
30641SOL    HW293821  11.199   8.181   8.277
30642SOL     OW93822   0.937  12.376  13.996
30642SOL    HW193823   0.907  12.314  13.929
30642SOL    HW293824   1.024  12.344  14.022
30643SOL     OW93825  11.573   1.741   9.609
30643SOL    HW193826  11.567   1.830   9.642
30643SOL    HW293827  11.667   1.728   9.593
30644SOL     OW93828   2.686   6.940   8.091
30644SOL    HW193829   2.727   7.009   8.144
30644SOL    HW293830   2.709   6.962   8.001
30645SOL     OW93831   7.110   0.406  10.614
30645SOL    HW193832   7.170   0.480  10.626
30645SOL    HW293833   7.071   0.422  10.528
30646SOL     OW93834   4.845   9.337  10.103
30646SOL    HW193835   4.893   9.280  10.042
30646SOL    HW293836   4.754   9.306  10.098
30647SOL     OW93837   1.270   4.635  14.000
30647SOL    HW193838   1.349   4.582  13.987
30647SOL    HW293839   1.299   4.707  14.056
30648SOL     OW93840   7.038   3.895   2.142
30648SOL    HW193841   6.966   3.855   2.192
30648SOL    HW293842   6.995   3.935   2.066
30649SOL     OW93843  10.626   6.938   3.207
30649SOL    HW193844  10.573   6.942   3.287
30649SOL    HW293845  10.710   6.976   3.233
30650SOL     OW93846   3.022   2.737   6.554
30650SOL    HW193847   3.038   2.802   6.485
30650SOL    HW293848   2.937   2.698   6.531
30651SOL     OW93849   0.768   7.952  14.572
30651SOL    HW193850   0.827   7.889  14.530
30651SOL    HW293851   0.775   7.931  14.666
30652SOL     OW93852   7.165   0.004  13.626
30652SOL    HW193853   7.120   0.005  13.711
30652SOL    HW293854   7.254  14.847  13.647
30653SOL     OW93855   7.292   2.478  12.818
30653SOL    HW193856   7.214   2.504  12.868
30653SOL    HW293857   7.258   2.422  12.748
30654SOL     OW93858   3.077   3.869  10.365
30654SOL    HW193859   3.031   3.892  10.446
30654SOL    HW293860   3.087   3.774  10.370
30655SOL     OW93861  12.255   8.182   7.835
30655SOL    HW193862  12.205   8.126   7.894
30655SOL    HW293863  12.345   8.177   7.867
30656SOL     OW93864  12.662   9.387   4.479
30656SOL    HW193865  12.624   9.445   4.413
30656SOL    HW293866  12.661   9.439   4.559
30657SOL     OW93867  13.612   7.165   4.068
30657SOL    HW193868  13.608   7.072   4.049
30657SOL    HW293869  13.539   7.203   4.019
30658SOL     OW93870   0.694   9.689   0.642
30658SOL    HW193871   0.732   9.631   0.576
30658SOL    HW293872   0.614   9.644   0.670
30659SOL     OW93873   0.157   2.356  12.040
30659SOL    HW193874   0.181   2.317  11.956
30659SOL    HW293875   0.156   2.282  12.101
30660SOL     OW93876  13.196   4.882  11.804
30660SOL    HW193877  13.215   4.911  11.715
30660SOL    HW293878  13.182   4.788  11.797
30661SOL     OW93879  14.591   2.828  13.265
30661SOL    HW193880  14.655   2.848  13.197
30661SOL    HW293881  14.543   2.910  13.279
30662SOL     OW93882  14.320  13.649   3.139
30662SOL    HW193883  14.226  13.651   3.121
30662SOL    HW293884  14.343  13.739   3.162
30663SOL     OW93885   1.507   4.685  11.009
30663SOL    HW193886   1.557   4.743  11.067
30663SOL    HW293887   1.421   4.678  11.051
30664SOL     OW93888   2.192   5.446  13.859
30664SOL    HW193889   2.233   5.364  13.887
30664SOL    HW293890   2.205   5.506  13.933
30665SOL     OW93891  12.851   6.564  14.134
30665SOL    HW193892  12.943   6.579  14.114
30665SOL    HW293893  12.840   6.597  14.224
30666SOL     OW93894  14.519   3.107  11.625
30666SOL    HW193895  14.512   3.142  11.536
30666SOL    HW293896  14.576   3.030  11.617
30667SOL     OW93897   4.336  10.418  12.078
30667SOL    HW193898   4.283  10.352  12.033
30667SOL    HW293899   4.273  10.470  12.128
30668SOL     OW93900  14.793  13.083   2.616
30668SOL    HW193901  14.730  13.014   2.594
30668SOL    HW293902  14.749  13.164   2.590
30669SOL     OW93903  10.187  11.845  12.544
30669SOL    HW193904  10.142  11.788  12.482
30669SOL    HW293905  10.121  11.909  12.569
30670SOL     OW93906   0.552   5.079   1.176
30670SOL    HW193907   0.467   5.036   1.178
30670SOL    HW293908   0.614   5.008   1.155
30671SOL     OW93909  13.575   2.477  14.350
30671SOL    HW193910  13.511   2.407  14.341
30671SOL    HW293911  13.618   2.482  14.264
30672SOL     OW93912   9.285  10.168   7.064
30672SOL    HW193913   9.282  10.080   7.102
30672SOL    HW293914   9.369  10.203   7.092
30673SOL     OW93915  12.062   3.655   0.014
30673SOL    HW193916  12.026   3.603   0.086
30673SOL    HW293917  12.118   3.719   0.057
30674SOL     OW93918  11.996   8.046  11.695
30674SOL    HW193919  12.072   8.040  11.637
30674SOL    HW293920  12.002   8.135  11.731
30675SOL     OW93921   3.046  11.326   3.382
30675SOL    HW193922   3.118  11.346   3.441
30675SOL    HW293923   2.973  11.378   3.415
30676SOL     OW93924   1.649   2.941   1.330
30676SOL    HW193925   1.601   2.952   1.248
30676SOL    HW293926   1.617   3.011   1.387
30677SOL     OW93927   1.890  12.635   0.920
30677SOL    HW193928   1.958  12.650   0.986
30677SOL    HW293929   1.938  12.602   0.844
30678SOL     OW93930  13.600   8.078   2.547
30678SOL    HW193931  13.595   8.134   2.624
30678SOL    HW293932  13.535   8.009   2.563
30679SOL     OW93933  14.041   4.726   7.400
30679SOL    HW193934  13.986   4.737   7.323
30679SOL    HW293935  13.982   4.745   7.474
30680SOL     OW93936  13.714  10.560  11.233
30680SOL    HW193937  13.652  10.561  11.306
30680SOL    HW293938  13.777  10.629  11.254
30681SOL     OW93939  10.324  11.872   0.134
30681SOL    HW193940  10.315  11.873   0.229
30681SOL    HW293941  10.389  11.803   0.117
30682SOL     OW93942   6.500   6.194   2.246
30682SOL    HW193943   6.550   6.270   2.218
30682SOL    HW293944   6.518   6.128   2.179
30683SOL     OW93945  13.572   7.787   7.984
30683SOL    HW193946  13.664   7.787   7.959
30683SOL    HW293947  13.545   7.879   7.981
30684SOL     OW93948   2.463   0.052  13.293
30684SOL    HW193949   2.394  14.860  13.270
30684SOL    HW293950   2.417   0.131  13.322
30685SOL     OW93951  14.166  14.198   9.490
30685SOL    HW193952  14.106  14.138   9.535
30685SOL    HW293953  14.208  14.247   9.561
30686SOL     OW93954   3.059  12.709   3.227
30686SOL    HW193955   3.017  12.627   3.200
30686SOL    HW293956   3.012  12.736   3.305
30687SOL     OW93957   0.595   3.724   6.495
30687SOL    HW193958   0.503   3.746   6.484
30687SOL    HW293959   0.602   3.691   6.585
30688SOL     OW93960   5.644   6.468   2.818
30688SOL    HW193961   5.641   6.447   2.911
30688SOL    HW293962   5.558   6.508   2.800
30689SOL     OW93963  13.622   8.088  13.234
30689SOL    HW193964  13.593   8.177  13.212
30689SOL    HW293965  13.543   8.046  13.269
30690SOL     OW93966  14.059  14.317   4.532
30690SOL    HW193967  14.075  14.223   4.539
30690SOL    HW293968  14.128  14.356   4.586
30691SOL     OW93969   8.043   0.837   6.456
30691SOL    HW193970   8.047   0.787   6.374
30691SOL    HW293971   8.114   0.801   6.509
30692SOL     OW93972  13.656   5.073  14.411
30692SOL    HW193973  13.707   5.144  14.373
30692SOL    HW293974  13.718   5.025  14.466
30693SOL     OW93975  11.318   5.302   6.758
30693SOL    HW193976  11.258   5.291   6.684
30693SOL    HW293977  11.367   5.382   6.737
30694SOL     OW93978  12.141   3.217   3.427
30694SOL    HW193979  12.227   3.259   3.420
30694SOL    HW293980  12.160   3.128   3.456
30695SOL     OW93981   7.525  11.626   3.839
30695SOL    HW193982   7.458  11.671   3.789
30695SOL    HW293983   7.587  11.694   3.864
30696SOL     OW93984  11.367   9.568  13.533
30696SOL    HW193985  11.301   9.556  13.601
30696SOL    HW293986  11.449   9.581  13.581
30697SOL     OW93987   0.027  14.585   9.409
30697SOL    HW193988   0.109  14.602   9.456
30697SOL    HW293989   0.028  14.491   9.392
30698SOL     OW93990  13.498   2.496  10.796
30698SOL    HW193991  13.498   2.494  10.701
30698SOL    HW293992  13.565   2.560  10.819
30699SOL     OW93993   5.001   8.608   1.786
30699SOL    HW193994   5.059   8.591   1.711
30699SOL    HW293995   5.031   8.692   1.821
30700SOL     OW93996   0.026   3.782   4.285
30700SOL    HW193997   0.082   3.770   4.209
30700SOL    HW293998  14.830   3.846   4.257
30701SOL     OW93999   3.170  12.802   0.806
30701SOL    HW194000   3.237  12.815   0.873
30701SOL    HW294001   3.091  12.777   0.855
30702SOL     OW94002   8.114   5.110   1.075
30702SOL    HW194003   8.203   5.139   1.053
30702SOL    HW294004   8.125   5.061   1.156
30703SOL     OW94005  14.081  10.776   8.104
30703SOL    HW194006  14.065  10.836   8.177
30703SOL    HW294007  14.038  10.694   8.130
30704SOL     OW94008   9.760   8.282  13.732
30704SOL    HW194009   9.682   8.334  13.747
30704SOL    HW294010   9.820   8.342  13.687
30705SOL     OW94011   6.629   2.460  14.139
30705SOL    HW194012   6.562   2.452  14.071
30705SOL    HW294013   6.712   2.448  14.092
30706SOL     OW94014  10.170   8.976   8.171
30706SOL    HW194015  10.131   8.908   8.226
30706SOL    HW294016  10.191   9.046   8.232
30707SOL     OW94017   5.232   5.390   2.526
30707SOL    HW194018   5.276   5.450   2.585
30707SOL    HW294019   5.241   5.430   2.439
30708SOL     OW94020   8.397  10.828  13.404
30708SOL    HW194021   8.391  10.779  13.486
30708SOL    HW294022   8.480  10.874  13.409
30709SOL     OW94023   6.291   7.228   2.544
30709SOL    HW194024   6.310   7.251   2.635
30709SOL    HW294025   6.206   7.268   2.527
30710SOL     OW94026  14.823   2.237   9.101
30710SOL    HW194027  14.729   2.253   9.099
30710SOL    HW294028  14.833   2.145   9.079
30711SOL     OW94029  11.610  12.444  14.004
30711SOL    HW194030  11.682  12.505  14.018
30711SOL    HW294031  11.618  12.420  13.911
30712SOL     OW94032   2.794  10.558   3.440
30712SOL    HW194033   2.784  10.509   3.359
30712SOL    HW294034   2.809  10.649   3.413
30713SOL     OW94035   3.085  11.341   6.160
30713SOL    HW194036   3.112  11.350   6.069
30713SOL    HW294037   3.026  11.266   6.161
30714SOL     OW94038   4.286   6.581  12.378
30714SOL    HW194039   4.332   6.542  12.453
30714SOL    HW294040   4.211   6.523  12.364
30715SOL     OW94041   3.543   7.202  10.665
30715SOL    HW194042   3.611   7.267  10.676
30715SOL    HW294043   3.568   7.130  10.723
30716SOL     OW94044   9.139  13.327  14.634
30716SOL    HW194045   9.176  13.409  14.601
30716SOL    HW294046   9.212  13.283  14.678
30717SOL     OW94047   0.963  11.988   8.408
30717SOL    HW194048   0.919  11.912   8.372
30717SOL    HW294049   0.924  11.999   8.495
30718SOL     OW94050   1.313  13.062   2.729
30718SOL    HW194051   1.342  12.973   2.709
30718SOL    HW294052   1.392  13.107   2.758
30719SOL     OW94053  14.398  12.785   2.480
30719SOL    HW194054  14.492  12.798   2.471
30719SOL    HW294055  14.378  12.708   2.427
30720SOL     OW94056  13.356   0.339   7.820
30720SOL    HW194057  13.404   0.356   7.739
30720SOL    HW294058  13.287   0.405   7.822
30721SOL     OW94059   8.088   3.383   0.503
30721SOL    HW194060   8.104   3.474   0.526
30721SOL    HW294061   8.135   3.371   0.420
30722SOL     OW94062   8.719   6.802   9.517
30722SOL    HW194063   8.763   6.718   9.505
30722SOL    HW294064   8.708   6.836   9.429
30723SOL     OW94065  10.222   0.063   7.725
30723SOL    HW194066  10.134   0.089   7.753
30723SOL    HW294067  10.213   0.040   7.633
30724SOL     OW94068   0.697   1.237  10.848
30724SOL    HW194069   0.613   1.245  10.803
30724SOL    HW294070   0.763   1.240  10.779
30725SOL     OW94071  10.755   4.977  10.822
30725SOL    HW194072  10.823   4.940  10.766
30725SOL    HW294073  10.685   4.912  10.820
30726SOL     OW94074   5.556  13.962  13.277
30726SOL    HW194075   5.499  13.953  13.353
30726SOL    HW294076   5.528  13.892  13.218
30727SOL     OW94077   4.192  12.052  10.356
30727SOL    HW194078   4.241  12.122  10.312
30727SOL    HW294079   4.174  12.087  10.444
30728SOL     OW94080   7.455  11.646  13.194
30728SOL    HW194081   7.436  11.714  13.129
30728SOL    HW294082   7.513  11.689  13.257
30729SOL     OW94083   3.389   9.027   9.771
30729SOL    HW194084   3.482   9.032   9.790
30729SOL    HW294085   3.347   9.067   9.848
30730SOL     OW94086  13.770   9.587   2.376
30730SOL    HW194087  13.759   9.616   2.467
30730SOL    HW294088  13.841   9.641   2.342
30731SOL     OW94089  11.558   4.732  13.009
30731SOL    HW194090  11.542   4.682  13.089
30731SOL    HW294091  11.483   4.712  12.952
30732SOL     OW94092   0.949   5.244  14.529
30732SOL    HW194093   0.894   5.292  14.468
30732SOL    HW294094   0.919   5.153  14.523
30733SOL     OW94095   9.775  11.057  11.894
30733SOL    HW194096   9.809  11.130  11.841
30733SOL    HW294097   9.710  11.098  11.951
30734SOL     OW94098   0.201   0.523   3.966
30734SOL    HW194099   0.178   0.506   3.875
30734SOL    HW294100   0.138   0.471   4.016
30735SOL     OW94101   5.789   0.642   3.397
30735SOL    HW194102   5.869   0.667   3.352
30735SOL    HW294103   5.730   0.613   3.327
30736SOL     OW94104   5.401  13.926   7.341
30736SOL    HW194105   5.438  14.014   7.331
30736SOL    HW294106   5.461  13.869   7.293
30737SOL     OW94107   2.745  11.838   8.888
30737SOL    HW194108   2.764  11.773   8.821
30737SOL    HW294109   2.653  11.822   8.912
30738SOL     OW94110   2.143   1.340   0.988
30738SOL    HW194111   2.231   1.357   1.019
30738SOL    HW294112   2.094   1.313   1.066
30739SOL     OW94113  14.349   3.336  13.141
30739SOL    HW194114  14.309   3.422  13.150
30739SOL    HW294115  14.399   3.324  13.222
30740SOL     OW94116  10.611   2.473  12.604
30740SOL    HW194117  10.520   2.451  12.582
30740SOL    HW294118  10.625   2.558  12.563
30741SOL     OW94119   3.948   2.870  10.781
30741SOL    HW194120   3.984   2.836  10.863
30741SOL    HW294121   4.012   2.935  10.752
30742SOL     OW94122   0.987   2.196  14.520
30742SOL    HW194123   0.991   2.265  14.586
30742SOL    HW294124   0.905   2.211  14.474
30743SOL     OW94125   1.747   0.707  12.372
30743SOL    HW194126   1.826   0.654  12.383
30743SOL    HW294127   1.675   0.649  12.395
30744SOL     OW94128   3.866   1.633  13.758
30744SOL    HW194129   3.950   1.622  13.802
30744SOL    HW294130   3.888   1.642  13.665
30745SOL     OW94131  11.511  12.955   2.859
30745SOL    HW194132  11.567  12.894   2.810
30745SOL    HW294133  11.522  13.039   2.815
30746SOL     OW94134  10.221   1.405   1.887
30746SOL    HW194135  10.256   1.334   1.940
30746SOL    HW294136  10.126   1.392   1.890
30747SOL     OW94137   3.758  14.403   5.995
30747SOL    HW194138   3.834  14.348   5.977
30747SOL    HW294139   3.794  14.488   6.019
30748SOL     OW94140   3.273   6.874   5.330
30748SOL    HW194141   3.198   6.899   5.276
30748SOL    HW294142   3.307   6.795   5.288
30749SOL     OW94143  12.582   1.693   8.698
30749SOL    HW194144  12.678   1.689   8.697
30749SOL    HW294145  12.561   1.757   8.766
30750SOL     OW94146  10.979  13.555   5.531
30750SOL    HW194147  11.035  13.551   5.609
30750SOL    HW294148  10.909  13.616   5.555
30751SOL     OW94149   9.712   0.214   8.933
30751SOL    HW194150   9.686   0.130   8.895
30751SOL    HW294151   9.806   0.222   8.914
30752SOL     OW94152   4.128  12.207  14.592
30752SOL    HW194153   4.079  12.187  14.512
30752SOL    HW294154   4.211  12.243  14.562
30753SOL     OW94155  12.408   6.759   4.724
30753SOL    HW194156  12.395   6.796   4.637
30753SOL    HW294157  12.486   6.804   4.757
30754SOL     OW94158   3.176  11.078   6.250
30754SOL    HW194159   3.089  11.087   6.211
30754SOL    HW294160   3.175  10.992   6.292
30755SOL     OW94161   6.713   4.165   6.484
30755SOL    HW194162   6.729   4.159   6.578
30755SOL    HW294163   6.760   4.091   6.447
30756SOL     OW94164  13.172   6.303   1.972
30756SOL    HW194165  13.236   6.374   1.968
30756SOL    HW294166  13.186   6.254   1.891
30757SOL     OW94167   8.126   8.787   8.995
30757SOL    HW194168   8.102   8.834   8.915
30757SOL    HW294169   8.044   8.774   9.042
30758SOL     OW94170   0.526  11.342  13.360
30758SOL    HW194171   0.501  11.329  13.451
30758SOL    HW294172   0.621  11.331  13.359
30759SOL     OW94173   7.366  10.505   7.121
30759SOL    HW194174   7.397  10.569   7.057
30759SOL    HW294175   7.406  10.422   7.094
30760SOL     OW94176   6.347   9.938   7.109
30760SOL    HW194177   6.340   9.907   7.019
30760SOL    HW294178   6.417   9.885   7.147
30761SOL     OW94179   5.280   7.979   3.549
30761SOL    HW194180   5.346   7.963   3.482
30761SOL    HW294181   5.327   8.024   3.619
30762SOL     OW94182   3.179   8.748  10.611
30762SOL    HW194183   3.234   8.780  10.540
30762SOL    HW294184   3.099   8.801  10.605
30763SOL     OW94185   8.569  13.822   0.971
30763SOL    HW194186   8.634  13.764   0.933
30763SOL    HW294187   8.588  13.908   0.932
30764SOL     OW94188  11.988   1.027   0.288
30764SOL    HW194189  12.009   1.095   0.224
30764SOL    HW294190  12.041   0.952   0.261
30765SOL     OW94191   7.035   5.086  12.966
30765SOL    HW194192   7.124   5.078  12.932
30765SOL    HW294193   7.047   5.094  13.061
30766SOL     OW94194   4.523   0.584  10.214
30766SOL    HW194195   4.584   0.619  10.278
30766SOL    HW294196   4.438   0.587  10.257
30767SOL     OW94197   4.021  14.027  12.232
30767SOL    HW194198   4.014  14.023  12.137
30767SOL    HW294199   3.953  14.088  12.259
30768SOL     OW94200  11.090   0.133  13.024
30768SOL    HW194201  11.152   0.135  12.950
30768SOL    HW294202  11.137   0.175  13.096
30769SOL     OW94203   8.109  14.409   9.927
30769SOL    HW194204   8.037  14.420   9.865
30769SOL    HW294205   8.172  14.355   9.881
30770SOL     OW94206   5.015  13.849  13.240
30770SOL    HW194207   4.979  13.935  13.216
30770SOL    HW294208   5.098  13.845  13.193
30771SOL     OW94209  13.703   1.443  12.854
30771SOL    HW194210  13.709   1.526  12.900
30771SOL    HW294211  13.627   1.400  12.893
30772SOL     OW94212  12.646   3.077  10.734
30772SOL    HW194213  12.574   3.132  10.702
30772SOL    HW294214  12.690   3.045  10.655
30773SOL     OW94215   4.933  13.625   3.883
30773SOL    HW194216   4.970  13.597   3.967
30773SOL    HW294217   4.838  13.620   3.896
30774SOL     OW94218   8.925   5.775   4.195
30774SOL    HW194219   8.932   5.848   4.134
30774SOL    HW294220   8.895   5.815   4.276
30775SOL     OW94221   6.669   8.503  14.010
30775SOL    HW194222   6.745   8.470  13.961
30775SOL    HW294223   6.610   8.535  13.942
30776SOL     OW94224   6.011   8.398   7.341
30776SOL    HW194225   5.950   8.462   7.305
30776SOL    HW294226   5.958   8.347   7.403
30777SOL     OW94227   1.531   5.279  10.133
30777SOL    HW194228   1.571   5.248  10.052
30777SOL    HW294229   1.437   5.282  10.114
30778SOL     OW94230   3.198   5.965   0.687
30778SOL    HW194231   3.146   5.958   0.607
30778SOL    HW294232   3.281   5.922   0.665
30779SOL     OW94233  14.712  12.288  10.029
30779SOL    HW194234  14.805  12.274  10.041
30779SOL    HW294235  14.705  12.370   9.980
30780SOL     OW94236  12.138   0.023   5.993
30780SOL    HW194237  12.187   0.071   5.925
30780SOL    HW294238  12.167  14.802   5.984
30781SOL     OW94239   9.017   6.452   1.321
30781SOL    HW194240   8.994   6.429   1.231
30781SOL    HW294241   8.975   6.536   1.337
30782SOL     OW94242   5.081  11.757   8.800
30782SOL    HW194243   5.115  11.690   8.859
30782SOL    HW294244   4.989  11.734   8.788
30783SOL     OW94245  11.584   1.412   1.062
30783SOL    HW194246  11.667   1.455   1.082
30783SOL    HW294247  11.558   1.446   0.976
30784SOL     OW94248   2.889   7.364  12.000
30784SOL    HW194249   2.930   7.278  12.010
30784SOL    HW294250   2.797   7.351  12.023
30785SOL     OW94251   7.377   9.064   8.786
30785SOL    HW194252   7.471   9.076   8.802
30785SOL    HW294253   7.334   9.119   8.852
30786SOL     OW94254  12.369   9.115   4.537
30786SOL    HW194255  12.290   9.077   4.577
30786SOL    HW294256  12.349   9.118   4.444
30787SOL     OW94257  10.455  10.800   6.638
30787SOL    HW194258  10.448  10.869   6.572
30787SOL    HW294259  10.372  10.752   6.631
30788SOL     OW94260   3.581  13.119  13.077
30788SOL    HW194261   3.522  13.121  13.002
30788SOL    HW294262   3.590  13.025  13.097
30789SOL     OW94263  11.239   0.431   4.567
30789SOL    HW194264  11.158   0.404   4.609
30789SOL    HW294265  11.244   0.378   4.487
30790SOL     OW94266  11.315   4.563   2.154
30790SOL    HW194267  11.278   4.556   2.242
30790SOL    HW294268  11.271   4.495   2.103
30791SOL     OW94269   6.886   6.719   4.581
30791SOL    HW194270   6.937   6.706   4.660
30791SOL    HW294271   6.855   6.632   4.557
30792SOL     OW94272   9.299   3.784   1.465
30792SOL    HW194273   9.388   3.753   1.451
30792SOL    HW294274   9.248   3.746   1.393
30793SOL     OW94275   3.736   3.985  11.364
30793SOL    HW194276   3.672   4.035  11.313
30793SOL    HW294277   3.776   3.925  11.301
30794SOL     OW94278  12.416   3.614  10.615
30794SOL    HW194279  12.365   3.613  10.696
30794SOL    HW294280  12.502   3.649  10.641
30795SOL     OW94281   5.864  13.868  13.336
30795SOL    HW194282   5.816  13.928  13.280
30795SOL    HW294283   5.797  13.824  13.388
30796SOL     OW94284  13.377   5.162  13.299
30796SOL    HW194285  13.465   5.129  13.278
30796SOL    HW294286  13.342   5.191  13.215
30797SOL     OW94287   8.651   4.165  11.339
30797SOL    HW194288   8.644   4.220  11.418
30797SOL    HW294289   8.737   4.124  11.346
30798SOL     OW94290  10.757   8.387   4.507
30798SOL    HW194291  10.802   8.417   4.428
30798SOL    HW294292  10.699   8.317   4.476
30799SOL     OW94293   3.079   9.862   6.720
30799SOL    HW194294   3.065   9.804   6.795
30799SOL    HW294295   3.091   9.949   6.759
30800SOL     OW94296  12.998   0.910   9.966
30800SOL    HW194297  13.087   0.908   9.931
30800SOL    HW294298  12.943   0.887   9.891
30801SOL     OW94299  14.563  14.312   1.306
30801SOL    HW194300  14.604  14.257   1.239
30801SOL    HW294301  14.624  14.308   1.380
30802SOL     OW94302   5.232  11.543   1.408
30802SOL    HW194303   5.181  11.508   1.334
30802SOL    HW294304   5.318  11.503   1.398
30803SOL     OW94305   3.243   0.044  12.051
30803SOL    HW194306   3.190  14.860  12.110
30803SOL    HW294307   3.332   0.038  12.085
30804SOL     OW94308  11.761   6.160  13.039
30804SOL    HW194309  11.824   6.115  12.984
30804SOL    HW294310  11.791   6.251  13.042
30805SOL     OW94311  12.565   6.475   5.672
30805SOL    HW194312  12.643   6.483   5.727
30805SOL    HW294313  12.598   6.483   5.582
30806SOL     OW94314   4.063   8.790  13.213
30806SOL    HW194315   4.138   8.735  13.192
30806SOL    HW294316   3.990   8.749  13.166
30807SOL     OW94317   4.573   5.210  10.572
30807SOL    HW194318   4.630   5.286  10.584
30807SOL    HW294319   4.611   5.143  10.628
30808SOL     OW94320   7.606  12.051  10.822
30808SOL    HW194321   7.663  12.071  10.896
30808SOL    HW294322   7.642  11.971  10.785
30809SOL     OW94323   7.059   7.009   8.459
30809SOL    HW194324   7.149   7.026   8.487
30809SOL    HW294325   7.018   6.966   8.533
30810SOL     OW94326  13.138  13.004   3.964
30810SOL    HW194327  13.202  12.933   3.970
30810SOL    HW294328  13.132  13.039   4.053
30811SOL     OW94329   5.129   9.533   1.326
30811SOL    HW194330   5.213   9.513   1.285
30811SOL    HW294331   5.083   9.449   1.331
30812SOL     OW94332   2.418  13.020  12.796
30812SOL    HW194333   2.434  13.095  12.739
30812SOL    HW294334   2.414  12.945  12.736
30813SOL     OW94335   5.355   0.726   3.671
30813SOL    HW194336   5.310   0.810   3.675
30813SOL    HW294337   5.382   0.709   3.762
30814SOL     OW94338   4.432   8.428  10.095
30814SOL    HW194339   4.524   8.404  10.098
30814SOL    HW294340   4.385   8.348  10.117
30815SOL     OW94341   3.202  10.421   1.011
30815SOL    HW194342   3.261  10.396   0.940
30815SOL    HW294343   3.249  10.397   1.091
30816SOL     OW94344   4.554  14.346  14.623
30816SOL    HW194345   4.515  14.351  14.710
30816SOL    HW294346   4.596  14.431  14.610
30817SOL     OW94347  11.403   3.538  14.235
30817SOL    HW194348  11.358   3.456  14.254
30817SOL    HW294349  11.457   3.554  14.313
30818SOL     OW94350  11.433   6.054  13.390
30818SOL    HW194351  11.507   5.999  13.412
30818SOL    HW294352  11.457   6.096  13.308
30819SOL     OW94353   7.469  12.446   9.416
30819SOL    HW194354   7.418  12.369   9.392
30819SOL    HW294355   7.547  12.411   9.457
30820SOL     OW94356   0.648  11.087  12.318
30820SOL    HW194357   0.616  11.077  12.229
30820SOL    HW294358   0.615  11.172  12.347
30821SOL     OW94359  14.140   9.111   8.132
30821SOL    HW194360  14.065   9.073   8.177
30821SOL    HW294361  14.118   9.102   8.039
30822SOL     OW94362   1.732   5.597   4.099
30822SOL    HW194363   1.693   5.602   4.012
30822SOL    HW294364   1.732   5.687   4.131
30823SOL     OW94365   4.724   4.883   1.730
30823SOL    HW194366   4.767   4.927   1.657
30823SOL    HW294367   4.652   4.941   1.754
30824SOL     OW94368   1.847   3.867  13.348
30824SOL    HW194369   1.919   3.807  13.366
30824SOL    HW294370   1.769   3.812  13.349
30825SOL     OW94371  13.893   3.403   4.633
30825SOL    HW194372  13.808   3.367   4.659
30825SOL    HW294373  13.874   3.494   4.610
30826SOL     OW94374   6.445   8.078  13.337
30826SOL    HW194375   6.410   8.152  13.289
30826SOL    HW294376   6.450   8.007  13.273
30827SOL     OW94377   1.009   8.965   3.421
30827SOL    HW194378   1.013   8.872   3.399
30827SOL    HW294379   0.966   8.969   3.506
30828SOL     OW94380   7.523  14.546   3.531
30828SOL    HW194381   7.435  14.579   3.515
30828SOL    HW294382   7.509  14.459   3.570
30829SOL     OW94383   0.406   0.518   6.342
30829SOL    HW194384   0.348   0.536   6.416
30829SOL    HW294385   0.357   0.456   6.288
30830SOL     OW94386   6.022   5.868   1.768
30830SOL    HW194387   6.066   5.947   1.797
30830SOL    HW294388   5.962   5.897   1.700
30831SOL     OW94389  12.935   4.239   4.162
30831SOL    HW194390  12.906   4.221   4.072
30831SOL    HW294391  13.002   4.173   4.179
30832SOL     OW94392   8.430   7.123   5.961
30832SOL    HW194393   8.410   7.131   6.054
30832SOL    HW294394   8.450   7.030   5.948
30833SOL     OW94395   2.651   4.054   9.690
30833SOL    HW194396   2.693   3.991   9.749
30833SOL    HW294397   2.593   4.002   9.635
30834SOL     OW94398   4.062  13.932   0.977
30834SOL    HW194399   3.993  13.905   1.038
30834SOL    HW294400   4.033  13.901   0.891
30835SOL     OW94401   9.770   5.989   6.943
30835SOL    HW194402   9.689   6.016   6.987
30835SOL    HW294403   9.762   5.895   6.931
30836SOL     OW94404   5.635   6.562   2.466
30836SOL    HW194405   5.577   6.550   2.541
30836SOL    HW294406   5.607   6.495   2.404
30837SOL     OW94407   8.932  10.847  12.369
30837SOL    HW194408   8.891  10.801  12.295
30837SOL    HW294409   8.875  10.921  12.386
30838SOL     OW94410   7.396   0.591   2.331
30838SOL    HW194411   7.390   0.660   2.265
30838SOL    HW294412   7.340   0.521   2.298
30839SOL     OW94413   6.578   1.542  14.207
30839SOL    HW194414   6.560   1.563  14.115
30839SOL    HW294415   6.596   1.448  14.207
30840SOL     OW94416   0.788   9.967   2.606
30840SOL    HW194417   0.808   9.901   2.540
30840SOL    HW294418   0.698   9.992   2.589
30841SOL     OW94419   3.580   6.950   3.788
30841SOL    HW194420   3.658   6.944   3.843
30841SOL    HW294421   3.510   6.912   3.842
30842SOL     OW94422   5.677   5.040  14.658
30842SOL    HW194423   5.734   4.995  14.594
30842SOL    HW294424   5.729   5.115  14.687
30843SOL     OW94425   4.745   9.536   3.878
30843SOL    HW194426   4.733   9.593   3.802
30843SOL    HW294427   4.746   9.596   3.953
30844SOL     OW94428   5.336   3.475   6.604
30844SOL    HW194429   5.314   3.538   6.673
30844SOL    HW294430   5.252   3.439   6.577
30845SOL     OW94431   4.090   7.777   8.056
30845SOL    HW194432   4.102   7.714   7.985
30845SOL    HW294433   4.011   7.748   8.101
30846SOL     OW94434   2.426   5.590  11.762
30846SOL    HW194435   2.356   5.650  11.738
30846SOL    HW294436   2.415   5.515  11.703
30847SOL     OW94437  13.138   1.923   2.282
30847SOL    HW194438  13.081   1.887   2.213
30847SOL    HW294439  13.086   1.917   2.362
30848SOL     OW94440   0.588   4.483   8.598
30848SOL    HW194441   0.531   4.451   8.668
30848SOL    HW294442   0.559   4.573   8.582
30849SOL     OW94443   4.672   0.449  14.106
30849SOL    HW194444   4.667   0.523  14.046
30849SOL    HW294445   4.716   0.484  14.183
30850SOL     OW94446  12.345   5.250  12.211
30850SOL    HW194447  12.412   5.260  12.278
30850SOL    HW294448  12.264   5.237  12.260
30851SOL     OW94449   8.175   3.942   2.827
30851SOL    HW194450   8.097   3.888   2.820
30851SOL    HW294451   8.202   3.956   2.737
30852SOL     OW94452  11.869   6.134  10.431
30852SOL    HW194453  11.793   6.150  10.487
30852SOL    HW294454  11.875   6.213  10.376
30853SOL     OW94455   6.820  11.032   6.192
30853SOL    HW194456   6.742  11.034   6.248
30853SOL    HW294457   6.893  11.028   6.254
30854SOL     OW94458   7.046  14.589   3.168
30854SOL    HW194459   7.047  14.509   3.221
30854SOL    HW294460   7.029  14.659   3.231
30855SOL     OW94461  14.796   3.188   9.372
30855SOL    HW194462  14.795   3.097   9.403
30855SOL    HW294463   0.018   3.204   9.349
30856SOL     OW94464  11.991  10.162   3.049
30856SOL    HW194465  12.033  10.230   2.996
30856SOL    HW294466  12.060  10.133   3.109
30857SOL     OW94467   2.886   5.661   8.765
30857SOL    HW194468   2.973   5.628   8.783
30857SOL    HW294469   2.888   5.684   8.672
30858SOL     OW94470  10.739  12.984  12.892
30858SOL    HW194471  10.795  12.989  12.969
30858SOL    HW294472  10.693  13.068  12.890
30859SOL     OW94473   0.371  10.018   7.484
30859SOL    HW194474   0.285  10.001   7.521
30859SOL    HW294475   0.405   9.932   7.461
30860SOL     OW94476   4.274  12.321   7.465
30860SOL    HW194477   4.238  12.257   7.526
30860SOL    HW294478   4.292  12.270   7.386
30861SOL     OW94479  13.067  13.670   6.362
30861SOL    HW194480  13.115  13.588   6.346
30861SOL    HW294481  13.108  13.706   6.441
30862SOL     OW94482  14.158  14.231   2.877
30862SOL    HW194483  14.227  14.191   2.823
30862SOL    HW294484  14.202  14.252   2.960
30863SOL     OW94485  12.159   0.180   1.509
30863SOL    HW194486  12.091   0.220   1.563
30863SOL    HW294487  12.231   0.244   1.511
30864SOL     OW94488   3.485   4.699  14.789
30864SOL    HW194489   3.507   4.631  14.725
30864SOL    HW294490   3.425   4.757  14.743
30865SOL     OW94491  11.472   3.456   1.968
30865SOL    HW194492  11.456   3.375   2.016
30865SOL    HW294493  11.387   3.499   1.965
30866SOL     OW94494   4.951  13.479   7.092
30866SOL    HW194495   4.893  13.439   7.156
30866SOL    HW294496   4.930  13.434   7.010
30867SOL     OW94497  10.835  11.266   4.105
30867SOL    HW194498  10.848  11.232   4.016
30867SOL    HW294499  10.739  11.269   4.115
30868SOL     OW94500   6.791   1.677   9.010
30868SOL    HW194501   6.750   1.763   9.012
30868SOL    HW294502   6.740   1.624   9.072
30869SOL     OW94503  14.699   6.687   7.358
30869SOL    HW194504  14.659   6.758   7.309
30869SOL    HW294505  14.792   6.709   7.362
30870SOL     OW94506  14.110  10.506   1.774
30870SOL    HW194507  14.088  10.564   1.701
30870SOL    HW294508  14.039  10.519   1.837
30871SOL     OW94509   0.999   1.391   8.087
30871SOL    HW194510   1.014   1.304   8.124
30871SOL    HW294511   0.958   1.374   8.002
30872SOL     OW94512  13.988   4.403   9.868
30872SOL    HW194513  13.904   4.359   9.856
30872SOL    HW294514  14.040   4.376   9.793
30873SOL     OW94515   4.589   2.671  11.487
30873SOL    HW194516   4.641   2.592  11.473
30873SOL    HW294517   4.623   2.709  11.568
30874SOL     OW94518  13.045  14.152  10.121
30874SOL    HW194519  13.018  14.073  10.169
30874SOL    HW294520  13.091  14.205  10.185
30875SOL     OW94521   1.376   6.475   0.717
30875SOL    HW194522   1.305   6.457   0.779
30875SOL    HW294523   1.429   6.396   0.718
30876SOL     OW94524  11.455  11.144   2.396
30876SOL    HW194525  11.537  11.102   2.371
30876SOL    HW294526  11.394  11.121   2.325
30877SOL     OW94527  13.119   7.212  11.028
30877SOL    HW194528  13.200   7.254  10.999
30877SOL    HW294529  13.102   7.250  11.115
30878SOL     OW94530  11.330   5.107  13.104
30878SOL    HW194531  11.297   5.105  13.015
30878SOL    HW294532  11.421   5.079  13.097
30879SOL     OW94533  10.854   2.812   3.606
30879SOL    HW194534  10.777   2.859   3.638
30879SOL    HW294535  10.819   2.748   3.544
30880SOL     OW94536   2.038  13.999   1.394
30880SOL    HW194537   2.116  13.944   1.403
30880SOL    HW294538   2.072  14.089   1.397
30881SOL     OW94539  12.802   8.977  14.040
30881SOL    HW194540  12.893   8.956  14.022
30881SOL    HW294541  12.802   9.071  14.057
30882SOL     OW94542   3.317  12.064   1.702
30882SOL    HW194543   3.351  12.139   1.751
30882SOL    HW294544   3.395  12.024   1.662
30883SOL     OW94545   6.179  11.009   1.997
30883SOL    HW194546   6.267  11.046   1.999
30883SOL    HW294547   6.160  10.994   1.905
30884SOL     OW94548   9.179  14.278   9.958
30884SOL    HW194549   9.171  14.311  10.048
30884SOL    HW294550   9.216  14.352   9.910
30885SOL     OW94551  10.832  11.031  10.538
30885SOL    HW194552  10.829  10.963  10.471
30885SOL    HW294553  10.742  11.063  10.545
30886SOL     OW94554   1.999  14.590  11.049
30886SOL    HW194555   2.092  14.567  11.039
30886SOL    HW294556   1.963  14.520  11.103
30887SOL     OW94557   0.600  10.960   2.987
30887SOL    HW194558   0.591  10.915   3.071
30887SOL    HW294559   0.514  10.951   2.946
30888SOL     OW94560   0.478   5.396   2.080
30888SOL    HW194561   0.562   5.418   2.119
30888SOL    HW294562   0.498   5.324   2.019
30889SOL     OW94563   1.485   2.187   9.861
30889SOL    HW194564   1.415   2.135   9.900
30889SOL    HW294565   1.452   2.277   9.864
30890SOL     OW94566  13.291  10.425   9.023
30890SOL    HW194567  13.284  10.411   9.118
30890SOL    HW294568  13.212  10.474   9.001
30891SOL     OW94569   0.810   0.164  11.987
30891SOL    HW194570   0.811   0.166  11.891
30891SOL    HW294571   0.731   0.114  12.009
30892SOL     OW94572   5.615   2.297   0.968
30892SOL    HW194573   5.678   2.294   0.895
30892SOL    HW294574   5.564   2.376   0.952
30893SOL     OW94575  11.210   6.420   4.433
30893SOL    HW194576  11.138   6.481   4.421
30893SOL    HW294577  11.289   6.471   4.413
30894SOL     OW94578  10.022   8.229   8.611
30894SOL    HW194579   9.953   8.287   8.580
30894SOL    HW294580  10.089   8.287   8.646
30895SOL     OW94581  13.064  12.562   3.948
30895SOL    HW194582  13.074  12.565   3.853
30895SOL    HW294583  12.969  12.554   3.962
30896SOL     OW94584   9.972   1.448   3.668
30896SOL    HW194585   9.949   1.523   3.614
30896SOL    HW294586   9.906   1.446   3.737
30897SOL     OW94587  10.810   3.675   8.478
30897SOL    HW194588  10.850   3.602   8.523
30897SOL    HW294589  10.742   3.635   8.423
30898SOL     OW94590   2.679  12.748   6.773
30898SOL    HW194591   2.642  12.833   6.748
30898SOL    HW294592   2.746  12.731   6.706
30899SOL     OW94593   3.528  11.679   7.470
30899SOL    HW194594   3.555  11.590   7.495
30899SOL    HW294595   3.484  11.667   7.386
30900SOL     OW94596   7.039   4.233   5.666
30900SOL    HW194597   7.043   4.205   5.757
30900SOL    HW294598   6.945   4.236   5.646
30901SOL     OW94599   3.991   5.316   6.726
30901SOL    HW194600   3.961   5.246   6.785
30901SOL    HW294601   4.065   5.277   6.679
30902SOL     OW94602  10.901   1.364   3.697
30902SOL    HW194603  10.931   1.386   3.609
30902SOL    HW294604  10.914   1.445   3.747
30903SOL     OW94605  11.657  11.951  10.763
30903SOL    HW194606  11.602  12.011  10.713
30903SOL    HW294607  11.697  12.006  10.831
30904SOL     OW94608  11.062  14.724  10.246
30904SOL    HW194609  11.131  14.684  10.300
30904SOL    HW294610  11.108  14.785  10.189
30905SOL     OW94611  10.893  14.795   7.988
30905SOL    HW194612  10.976  14.821   7.948
30905SOL    HW294613  10.913  14.788   8.081
30906SOL     OW94614   0.625   7.286  10.086
30906SOL    HW194615   0.654   7.215  10.143
30906SOL    HW294616   0.606   7.243  10.002
30907SOL     OW94617  10.375   5.864   3.934
30907SOL    HW194618  10.298   5.883   3.987
30907SOL    HW294619  10.354   5.783   3.888
30908SOL     OW94620   4.174   6.341   2.636
30908SOL    HW194621   4.265   6.367   2.620
30908SOL    HW294622   4.148   6.294   2.556
30909SOL     OW94623  10.900   4.229   9.722
30909SOL    HW194624  10.891   4.324   9.734
30909SOL    HW294625  10.975   4.205   9.776
30910SOL     OW94626   7.102  14.057  14.579
30910SOL    HW194627   7.110  13.975  14.627
30910SOL    HW294628   7.074  14.031  14.491
30911SOL     OW94629  13.091   9.723   8.949
30911SOL    HW194630  13.087   9.691   9.039
30911SOL    HW294631  13.136   9.653   8.901
30912SOL     OW94632  10.183   2.919  13.921
30912SOL    HW194633  10.160   2.843  13.975
30912SOL    HW294634  10.098   2.955  13.894
30913SOL     OW94635  10.002  12.988  12.184
30913SOL    HW194636  10.006  12.977  12.089
30913SOL    HW294637   9.924  12.940  12.211
30914SOL     OW94638  12.768  13.413   5.314
30914SOL    HW194639  12.863  13.407   5.316
30914SOL    HW294640  12.743  13.374   5.230
30915SOL     OW94641   3.350   1.698   7.082
30915SOL    HW194642   3.277   1.648   7.044
30915SOL    HW294643   3.428   1.660   7.043
30916SOL     OW94644   7.426  12.985   4.289
30916SOL    HW194645   7.394  13.007   4.202
30916SOL    HW294646   7.482  13.058   4.314
30917SOL     OW94647   1.842   1.356  13.675
30917SOL    HW194648   1.924   1.365  13.724
30917SOL    HW294649   1.785   1.306  13.732
30918SOL     OW94650   8.711  12.908   6.583
30918SOL    HW194651   8.764  12.979   6.621
30918SOL    HW294652   8.709  12.841   6.651
30919SOL     OW94653   9.750   3.225   8.421
30919SOL    HW194654   9.671   3.265   8.383
30919SOL    HW294655   9.811   3.297   8.431
30920SOL     OW94656   4.934   8.787   5.968
30920SOL    HW194657   4.961   8.741   5.888
30920SOL    HW294658   4.873   8.727   6.010
30921SOL     OW94659   4.238  10.540   3.797
30921SOL    HW194660   4.272  10.621   3.758
30921SOL    HW294661   4.166  10.514   3.740
30922SOL     OW94662   1.982   9.249   5.815
30922SOL    HW194663   1.979   9.334   5.857
30922SOL    HW294664   1.952   9.187   5.882
30923SOL     OW94665   1.899   4.271   9.147
30923SOL    HW194666   1.813   4.248   9.182
30923SOL    HW294667   1.905   4.222   9.065
30924SOL     OW94668  11.188   1.414   3.897
30924SOL    HW194669  11.160   1.506   3.901
30924SOL    HW294670  11.119   1.370   3.848
30925SOL     OW94671   6.587   7.249  10.779
30925SOL    HW194672   6.668   7.293  10.752
30925SOL    HW294673   6.569   7.282  10.866
30926SOL     OW94674   0.216  13.881   0.149
30926SOL    HW194675   0.250  13.856   0.235
30926SOL    HW294676   0.122  13.868   0.155
30927SOL     OW94677  10.698   1.356  13.615
30927SOL    HW194678  10.691   1.266  13.644
30927SOL    HW294679  10.732   1.350  13.526
30928SOL     OW94680   9.310  13.376   6.400
30928SOL    HW194681   9.331  13.303   6.341
30928SOL    HW294682   9.214  13.380   6.399
30929SOL     OW94683   1.810   8.011   1.871
30929SOL    HW194684   1.747   7.965   1.927
30929SOL    HW294685   1.830   8.092   1.918
30930SOL     OW94686  10.183  14.663   3.108
30930SOL    HW194687  10.149  14.611   3.181
30930SOL    HW294688  10.143  14.749   3.120
30931SOL     OW94689  14.587  10.591  10.129
30931SOL    HW194690  14.566  10.617  10.219
30931SOL    HW294691  14.513  10.537  10.101
30932SOL     OW94692   6.338  11.821   1.611
30932SOL    HW194693   6.312  11.735   1.642
30932SOL    HW294694   6.399  11.854   1.677
30933SOL     OW94695   3.658  10.934  13.172
30933SOL    HW194696   3.740  10.946  13.125
30933SOL    HW294697   3.657  11.006  13.236
30934SOL     OW94698  11.469   5.481   1.018
30934SOL    HW194699  11.376   5.503   1.022
30934SOL    HW294700  11.497   5.478   1.109
30935SOL     OW94701  12.050   0.822   2.224
30935SOL    HW194702  12.072   0.881   2.152
30935SOL    HW294703  12.116   0.839   2.291
30936SOL     OW94704   0.697   4.254  11.395
30936SOL    HW194705   0.711   4.163  11.421
30936SOL    HW294706   0.615   4.279  11.438
30937SOL     OW94707  14.666   6.187   0.097
30937SOL    HW194708  14.749   6.231   0.082
30937SOL    HW294709  14.663   6.172   0.192
30938SOL     OW94710   4.986  10.417   7.420
30938SOL    HW194711   5.010  10.378   7.503
30938SOL    HW294712   5.068  10.418   7.369
30939SOL     OW94713   3.569  11.509   6.811
30939SOL    HW194714   3.561  11.497   6.716
30939SOL    HW294715   3.526  11.592   6.828
30940SOL     OW94716   8.802   7.670  13.056
30940SOL    HW194717   8.844   7.676  13.142
30940SOL    HW294718   8.822   7.754  13.014
30941SOL     OW94719   5.197   8.297   1.392
30941SOL    HW194720   5.283   8.295   1.350
30941SOL    HW294721   5.144   8.236   1.341
30942SOL     OW94722   2.995   2.736   7.452
30942SOL    HW194723   3.069   2.790   7.425
30942SOL    HW294724   2.985   2.754   7.546
30943SOL     OW94725  11.389   3.900   2.876
30943SOL    HW194726  11.332   3.835   2.835
30943SOL    HW294727  11.369   3.895   2.969
30944SOL     OW94728   5.478  10.596  12.624
30944SOL    HW194729   5.384  10.596  12.644
30944SOL    HW294730   5.489  10.520  12.567
30945SOL     OW94731   9.845  10.631   4.006
30945SOL    HW194732   9.938  10.615   4.024
30945SOL    HW294733   9.799  10.592   4.080
30946SOL     OW94734   6.551  12.719  13.323
30946SOL    HW194735   6.514  12.645  13.372
30946SOL    HW294736   6.475  12.757  13.278
30947SOL     OW94737   7.323   7.853   4.660
30947SOL    HW194738   7.397   7.792   4.671
30947SOL    HW294739   7.309   7.889   4.747
30948SOL     OW94740   1.117   2.409  11.589
30948SOL    HW194741   1.112   2.453  11.673
30948SOL    HW294742   1.204   2.431  11.555
30949SOL     OW94743   2.513  14.071   7.863
30949SOL    HW194744   2.426  14.038   7.843
30949SOL    HW294745   2.535  14.030   7.947
30950SOL     OW94746  12.356  10.886   9.294
30950SOL    HW194747  12.423  10.914   9.357
30950SOL    HW294748  12.348  10.960   9.233
30951SOL     OW94749   3.082   0.062   0.355
30951SOL    HW194750   3.046  14.864   0.297
30951SOL    HW294751   3.141   0.014   0.413
30952SOL     OW94752   8.297   7.568  11.809
30952SOL    HW194753   8.248   7.638  11.766
30952SOL    HW294754   8.389   7.593  11.797
30953SOL     OW94755  10.110   2.972   6.143
30953SOL    HW194756  10.133   3.065   6.154
30953SOL    HW294757  10.168   2.926   6.204
30954SOL     OW94758   6.195   4.618   1.096
30954SOL    HW194759   6.134   4.544   1.097
30954SOL    HW294760   6.267   4.589   1.040
30955SOL     OW94761   0.105   7.152   7.117
30955SOL    HW194762   0.048   7.202   7.175
30955SOL    HW294763   0.119   7.209   7.041
30956SOL     OW94764   3.234   4.578   4.152
30956SOL    HW194765   3.287   4.565   4.231
30956SOL    HW294766   3.229   4.491   4.112
30957SOL     OW94767  11.515   7.217  13.655
30957SOL    HW194768  11.462   7.141  13.680
30957SOL    HW294769  11.547   7.196  13.567
30958SOL     OW94770   2.252  12.186   7.017
30958SOL    HW194771   2.231  12.253   7.082
30958SOL    HW294772   2.348  12.183   7.016
30959SOL     OW94773   4.648   4.588  13.765
30959SOL    HW194774   4.684   4.630  13.687
30959SOL    HW294775   4.690   4.502  13.768
30960SOL     OW94776   9.176   1.522   2.583
30960SOL    HW194777   9.092   1.489   2.617
30960SOL    HW294778   9.240   1.496   2.649
30961SOL     OW94779   0.281   8.023   2.264
30961SOL    HW194780   0.283   7.928   2.254
30961SOL    HW294781   0.334   8.040   2.342
30962SOL     OW94782   0.998   6.159  11.760
30962SOL    HW194783   1.053   6.223  11.804
30962SOL    HW294784   0.917   6.157  11.811
30963SOL     OW94785   7.908   5.653  11.726
30963SOL    HW194786   8.000   5.628  11.717
30963SOL    HW294787   7.871   5.587  11.784
30964SOL     OW94788   7.066   0.825   4.824
30964SOL    HW194789   7.158   0.852   4.818
30964SOL    HW294790   7.021   0.878   4.758
30965SOL     OW94791   8.898   4.394   8.510
30965SOL    HW194792   8.985   4.357   8.492
30965SOL    HW294793   8.863   4.339   8.580
30966SOL     OW94794   6.968   7.749   1.403
30966SOL    HW194795   6.902   7.681   1.418
30966SOL    HW294796   6.941   7.791   1.321
30967SOL     OW94797   6.988   1.115   8.182
30967SOL    HW194798   7.056   1.054   8.210
30967SOL    HW294799   7.027   1.201   8.193
30968SOL     OW94800   4.782   9.559   5.279
30968SOL    HW194801   4.843   9.513   5.221
30968SOL    HW294802   4.697   9.552   5.236
30969SOL     OW94803   2.999   0.155  13.490
30969SOL    HW194804   2.974   0.101  13.415
30969SOL    HW294805   2.926   0.145  13.552
30970SOL     OW94806   1.207   0.477  10.820
30970SOL    HW194807   1.146   0.537  10.864
30970SOL    HW294808   1.191   0.392  10.862
30971SOL     OW94809  10.672   6.882  11.613
30971SOL    HW194810  10.589   6.913  11.577
30971SOL    HW294811  10.725   6.861  11.536
30972SOL     OW94812   0.086  12.817  11.260
30972SOL    HW194813   0.073  12.912  11.263
30972SOL    HW294814   0.010  12.781  11.306
30973SOL     OW94815  11.012   0.300   1.509
30973SOL    HW194816  10.970   0.227   1.464
30973SOL    HW294817  11.065   0.343   1.442
30974SOL     OW94818  11.506  11.551  11.637
30974SOL    HW194819  11.600  11.560  11.622
30974SOL    HW294820  11.466  11.617  11.580
30975SOL     OW94821   6.277  14.047  11.567
30975SOL    HW194822   6.281  14.094  11.651
30975SOL    HW294823   6.186  14.057  11.538
30976SOL     OW94824  14.430   6.076  13.341
30976SOL    HW194825  14.386   6.077  13.256
30976SOL    HW294826  14.507   6.020  13.328
30977SOL     OW94827  11.165   4.336   1.404
30977SOL    HW194828  11.242   4.283   1.384
30977SOL    HW294829  11.098   4.272   1.429
30978SOL     OW94830   9.544   8.567   0.365
30978SOL    HW194831   9.454   8.554   0.393
30978SOL    HW294832   9.542   8.645   0.309
30979SOL     OW94833   8.078   2.736   7.191
30979SOL    HW194834   8.172   2.758   7.192
30979SOL    HW294835   8.068   2.674   7.263
30980SOL     OW94836   7.025  14.803   9.591
30980SOL    HW194837   7.115  14.828   9.573
30980SOL    HW294838   6.983   0.013   9.622
30981SOL     OW94839  13.257   3.473   0.546
30981SOL    HW194840  13.215   3.388   0.559
30981SOL    HW294841  13.302   3.490   0.629
30982SOL     OW94842   0.473   6.218   9.006
30982SOL    HW194843   0.466   6.308   9.037
30982SOL    HW294844   0.384   6.184   9.013
30983SOL     OW94845   6.581   7.907   1.331
30983SOL    HW194846   6.537   7.887   1.413
30983SOL    HW294847   6.512   7.942   1.274
30984SOL     OW94848   5.466   0.159  12.696
30984SOL    HW194849   5.489   0.214  12.621
30984SOL    HW294850   5.546   0.159  12.749
30985SOL     OW94851   6.915  10.700   5.068
30985SOL    HW194852   6.829  10.737   5.048
30985SOL    HW294853   6.966  10.713   4.988
30986SOL     OW94854  13.276   6.970   6.215
30986SOL    HW194855  13.259   6.932   6.129
30986SOL    HW294856  13.206   7.035   6.227
30987SOL     OW94857  12.992   4.908  10.758
30987SOL    HW194858  12.921   4.864  10.710
30987SOL    HW294859  12.974   4.888  10.850
30988SOL     OW94860  13.331   6.941  13.110
30988SOL    HW194861  13.414   6.911  13.071
30988SOL    HW294862  13.351   6.952  13.203
30989SOL     OW94863  10.917   3.236   8.050
30989SOL    HW194864  10.931   3.155   8.098
30989SOL    HW294865  10.901   3.301   8.119
30990SOL     OW94866  13.212   9.774   6.084
30990SOL    HW194867  13.154   9.849   6.085
30990SOL    HW294868  13.298   9.809   6.110
30991SOL     OW94869  13.264   0.663   8.603
30991SOL    HW194870  13.346   0.651   8.652
30991SOL    HW294871  13.275   0.747   8.559
30992SOL     OW94872  12.262   4.667  11.690
30992SOL    HW194873  12.335   4.704  11.740
30992SOL    HW294874  12.233   4.593  11.743
30993SOL     OW94875  11.735  12.824  10.988
30993SOL    HW194876  11.769  12.872  11.064
30993SOL    HW294877  11.802  12.834  10.921
30994SOL     OW94878   2.921  11.814   3.503
30994SOL    HW194879   2.933  11.727   3.541
30994SOL    HW294880   2.834  11.811   3.463
30995SOL     OW94881   6.619   1.475  13.075
30995SOL    HW194882   6.549   1.443  13.019
30995SOL    HW294883   6.647   1.399  13.126
30996SOL     OW94884   5.932  14.823  14.625
30996SOL    HW194885   5.947   0.018  14.694
30996SOL    HW294886   5.848  14.848  14.587
30997SOL     OW94887   6.604   3.253   5.475
30997SOL    HW194888   6.594   3.163   5.444
30997SOL    HW294889   6.665   3.293   5.413
30998SOL     OW94890  13.304   4.928   4.581
30998SOL    HW194891  13.366   4.940   4.652
30998SOL    HW294892  13.220   4.956   4.617
30999SOL     OW94893   0.402   1.766   1.240
30999SOL    HW194894   0.366   1.757   1.328
30999SOL    HW294895   0.330   1.802   1.188
31000SOL     OW94896   2.074   9.764   0.872
31000SOL    HW194897   2.022   9.823   0.927
31000SOL    HW294898   2.014   9.693   0.850
31001SOL     OW94899   2.568  12.765  11.867
31001SOL    HW194900   2.624  12.816  11.925
31001SOL    HW294901   2.623  12.692  11.839
31002SOL     OW94902   7.568  12.718   4.437
31002SOL    HW194903   7.575  12.765   4.520
31002SOL    HW294904   7.654  12.725   4.397
31003SOL     OW94905   4.261   7.768   6.024
31003SOL    HW194906   4.276   7.823   5.947
31003SOL    HW294907   4.194   7.814   6.074
31004SOL     OW94908   6.813   4.047   0.751
31004SOL    HW194909   6.777   3.965   0.785
31004SOL    HW294910   6.794   4.045   0.657
31005SOL     OW94911   4.785   5.471  10.060
31005SOL    HW194912   4.719   5.498  10.125
31005SOL    HW294913   4.778   5.536   9.991
31006SOL     OW94914   7.997   4.350   9.606
31006SOL    HW194915   8.000   4.353   9.701
31006SOL    HW294916   8.064   4.413   9.578
31007SOL     OW94917  13.812   9.057   8.927
31007SOL    HW194918  13.866   9.123   8.885
31007SOL    HW294919  13.726   9.068   8.887
31008SOL     OW94920  13.588  14.723  12.784
31008SOL    HW194921  13.624  14.648  12.832
31008SOL    HW294922  13.494  14.719  12.800
31009SOL     OW94923   0.616   5.444  11.311
31009SOL    HW194924   0.698   5.476  11.272
31009SOL    HW294925   0.551   5.455  11.241
31010SOL     OW94926  10.852   8.096  10.550
31010SOL    HW194927  10.896   8.026  10.503
31010SOL    HW294928  10.900   8.103  10.633
31011SOL     OW94929   0.123   9.817   2.654
31011SOL    HW194930   0.214   9.820   2.627
31011SOL    HW294931   0.078   9.878   2.596
31012SOL     OW94932   7.459  11.465  14.693
31012SOL    HW194933   7.494  11.548  14.724
31012SOL    HW294934   7.535  11.415  14.665
31013SOL     OW94935  11.951   9.263  14.195
31013SOL    HW194936  11.960   9.245  14.101
31013SOL    HW294937  11.992   9.349  14.207
31014SOL     OW94938   2.248   3.960  14.431
31014SOL    HW194939   2.313   3.911  14.482
31014SOL    HW294940   2.295   4.038  14.401
31015SOL     OW94941   5.845   6.108   6.850
31015SOL    HW194942   5.793   6.056   6.789
31015SOL    HW294943   5.895   6.168   6.794
31016SOL     OW94944   7.261   3.673   9.755
31016SOL    HW194945   7.185   3.630   9.716
31016SOL    HW294946   7.263   3.760   9.717
31017SOL     OW94947   9.146   6.616   7.815
31017SOL    HW194948   9.100   6.541   7.776
31017SOL    HW294949   9.234   6.612   7.778
31018SOL     OW94950  13.758   7.103   9.521
31018SOL    HW194951  13.717   7.102   9.435
31018SOL    HW294952  13.724   7.025   9.565
31019SOL     OW94953   9.854  11.091   7.807
31019SOL    HW194954   9.915  11.131   7.744
31019SOL    HW294955   9.869  11.139   7.888
31020SOL     OW94956   6.116   7.767  12.019
31020SOL    HW194957   6.051   7.838  12.016
31020SOL    HW294958   6.199   7.811  12.035
31021SOL     OW94959   2.016  12.070  10.646
31021SOL    HW194960   2.045  11.979  10.651
31021SOL    HW294961   2.093  12.121  10.671
31022SOL     OW94962   5.567   9.945  11.869
31022SOL    HW194963   5.584   9.954  11.775
31022SOL    HW294964   5.615   9.867  11.895
31023SOL     OW94965  14.203   1.097   3.940
31023SOL    HW194966  14.134   1.053   3.891
31023SOL    HW294967  14.277   1.036   3.939
31024SOL     OW94968   0.858   6.728   9.065
31024SOL    HW194969   0.921   6.792   9.031
31024SOL    HW294970   0.779   6.780   9.081
31025SOL     OW94971   2.803  10.182   6.723
31025SOL    HW194972   2.883  10.135   6.699
31025SOL    HW294973   2.826  10.275   6.717
31026SOL     OW94974  14.671   2.965  10.597
31026SOL    HW194975  14.718   2.974  10.515
31026SOL    HW294976  14.713   3.027  10.656
31027SOL     OW94977   5.209   3.933   8.530
31027SOL    HW194978   5.225   4.000   8.463
31027SOL    HW294979   5.280   3.944   8.593
31028SOL     OW94980   9.523   7.133  14.810
31028SOL    HW194981   9.434   7.135  14.774
31028SOL    HW294982   9.571   7.197  14.758
31029SOL     OW94983   8.879   2.589  13.931
31029SOL    HW194984   8.839   2.545  14.006
31029SOL    HW294985   8.968   2.611  13.961
31030SOL     OW94986   6.428   2.352   6.604
31030SOL    HW194987   6.456   2.332   6.693
31030SOL    HW294988   6.459   2.277   6.552
31031SOL     OW94989   2.023  10.692  12.093
31031SOL    HW194990   1.993  10.709  12.004
31031SOL    HW294991   2.119  10.689  12.086
31032SOL     OW94992   1.511   9.745   5.719
31032SOL    HW194993   1.557   9.747   5.803
31032SOL    HW294994   1.528   9.657   5.685
31033SOL     OW94995   1.374   1.131  12.116
31033SOL    HW194996   1.308   1.190  12.150
31033SOL    HW294997   1.337   1.044  12.127
31034SOL     OW94998  10.830   2.507   7.225
31034SOL    HW194999  10.865   2.579   7.277
31034SOL    HW295000  10.902   2.482   7.168
31035SOL     OW95001  12.310   5.584  11.290
31035SOL    HW195002  12.330   5.645  11.361
31035SOL    HW295003  12.300   5.641  11.213
31036SOL     OW95004  12.988   9.813  11.689
31036SOL    HW195005  12.905   9.770  11.707
31036SOL    HW295006  13.051   9.742  11.678
31037SOL     OW95007   5.506   8.853   0.922
31037SOL    HW195008   5.601   8.841   0.929
31037SOL    HW295009   5.482   8.807   0.841
31038SOL     OW95010   8.942   4.889   1.806
31038SOL    HW195011   8.981   4.802   1.812
31038SOL    HW295012   8.881   4.894   1.879
31039SOL     OW95013   2.497   0.626   5.426
31039SOL    HW195014   2.454   0.597   5.346
31039SOL    HW295015   2.476   0.558   5.491
31040SOL     OW95016  12.470   8.507   4.622
31040SOL    HW195017  12.480   8.587   4.570
31040SOL    HW295018  12.439   8.538   4.707
31041SOL     OW95019   5.313   0.515   9.943
31041SOL    HW195020   5.269   0.497   9.860
31041SOL    HW295021   5.292   0.440   9.999
31042SOL     OW95022   2.956   7.535  11.049
31042SOL    HW195023   3.045   7.569  11.055
31042SOL    HW295024   2.967   7.447  11.015
31043SOL     OW95025   4.485   0.780  10.731
31043SOL    HW195026   4.580   0.777  10.719
31043SOL    HW295027   4.465   0.872  10.744
31044SOL     OW95028  12.851  12.020  14.532
31044SOL    HW195029  12.826  12.060  14.615
31044SOL    HW295030  12.893  12.090  14.482
31045SOL     OW95031   6.601   3.263   1.388
31045SOL    HW195032   6.593   3.197   1.457
31045SOL    HW295033   6.688   3.300   1.401
31046SOL     OW95034   0.712  11.761   3.378
31046SOL    HW195035   0.636  11.816   3.397
31046SOL    HW295036   0.735  11.782   3.287
31047SOL     OW95037   4.766  13.765   3.222
31047SOL    HW195038   4.834  13.749   3.287
31047SOL    HW295039   4.698  13.812   3.270
31048SOL     OW95040   9.194   2.802   3.269
31048SOL    HW195041   9.143   2.881   3.285
31048SOL    HW295042   9.170   2.775   3.180
31049SOL     OW95043   7.398  14.276   6.798
31049SOL    HW195044   7.430  14.305   6.884
31049SOL    HW295045   7.404  14.354   6.743
31050SOL     OW95046   2.195   5.175  14.193
31050SOL    HW195047   2.131   5.177  14.122
31050SOL    HW295048   2.171   5.098  14.245
31051SOL     OW95049   5.144   1.776   9.951
31051SOL    HW195050   5.213   1.717   9.922
31051SOL    HW295051   5.084   1.781   9.876
31052SOL     OW95052   6.965   4.995  11.745
31052SOL    HW195053   6.890   5.052  11.726
31052SOL    HW295054   6.939   4.910  11.711
31053SOL     OW95055   6.813   2.657  12.579
31053SOL    HW195056   6.801   2.573  12.624
31053SOL    HW295057   6.906   2.660  12.559
31054SOL     OW95058   6.864   2.776  14.409
31054SOL    HW195059   6.946   2.784  14.361
31054SOL    HW295060   6.822   2.862  14.399
31055SOL     OW95061   5.127   0.139   4.520
31055SOL    HW195062   5.196   0.082   4.555
31055SOL    HW295063   5.113   0.109   4.430
31056SOL     OW95064   2.755   7.145   8.274
31056SOL    HW195065   2.728   7.225   8.319
31056SOL    HW295066   2.778   7.084   8.344
31057SOL     OW95067   1.203  10.717   4.151
31057SOL    HW195068   1.243  10.757   4.074
31057SOL    HW295069   1.212  10.784   4.220
31058SOL     OW95070   1.722  12.802  14.604
31058SOL    HW195071   1.721  12.841  14.516
31058SOL    HW295072   1.642  12.835  14.646
31059SOL     OW95073  14.265  14.498   8.806
31059SOL    HW195074  14.268  14.441   8.883
31059SOL    HW295075  14.341  14.555   8.816
31060SOL     OW95076  13.580   1.514  13.875
31060SOL    HW195077  13.661   1.548  13.913
31060SOL    HW295078  13.580   1.421  13.897
31061SOL     OW95079  10.777   2.944   7.452
31061SOL    HW195080  10.698   2.915   7.406
31061SOL    HW295081  10.776   3.040   7.442
31062SOL     OW95082   3.195  11.497  13.223
31062SOL    HW195083   3.274  11.490  13.168
31062SOL    HW295084   3.203  11.582  13.266
31063SOL     OW95085  11.130  13.557   6.156
31063SOL    HW195086  11.148  13.591   6.069
31063SOL    HW295087  11.037  13.573   6.170
31064SOL     OW95088   2.560   6.876   1.910
31064SOL    HW195089   2.596   6.927   1.983
31064SOL    HW295090   2.465   6.873   1.927
31065SOL     OW95091   1.816   4.178   4.323
31065SOL    HW195092   1.791   4.270   4.310
31065SOL    HW295093   1.878   4.160   4.252
31066SOL     OW95094   5.063   7.352   0.869
31066SOL    HW195095   4.969   7.341   0.861
31066SOL    HW295096   5.078   7.364   0.963
31067SOL     OW95097   0.365   9.491   0.100
31067SOL    HW195098   0.299   9.483   0.031
31067SOL    HW295099   0.441   9.528   0.056
31068SOL     OW95100   0.027   7.813   7.169
31068SOL    HW195101  14.825   7.814   7.106
31068SOL    HW295102   0.020   7.896   7.215
31069SOL     OW95103   1.485  14.357   3.179
31069SOL    HW195104   1.498  14.266   3.153
31069SOL    HW295105   1.553  14.405   3.131
31070SOL     OW95106  13.005  12.815  11.260
31070SOL    HW195107  13.023  12.827  11.354
31070SOL    HW295108  13.020  12.722  11.245
31071SOL     OW95109  11.333   6.910  12.763
31071SOL    HW195110  11.422   6.896  12.796
31071SOL    HW295111  11.343   6.969  12.688
31072SOL     OW95112  11.794  14.054  10.642
31072SOL    HW195113  11.850  14.089  10.573
31072SOL    HW295114  11.728  14.122  10.656
31073SOL     OW95115  10.001  11.672   9.938
31073SOL    HW195116  10.018  11.640   9.849
31073SOL    HW295117   9.997  11.592   9.991
31074SOL     OW95118   1.269  12.815   1.245
31074SOL    HW195119   1.204  12.763   1.197
31074SOL    HW295120   1.348  12.810   1.192
31075SOL     OW95121   4.876  14.639   0.939
31075SOL    HW195122   4.828  14.722   0.939
31075SOL    HW295123   4.832  14.586   0.873
31076SOL     OW95124   7.940   4.354  13.670
31076SOL    HW195125   7.941   4.395  13.757
31076SOL    HW295126   7.858   4.305  13.668
31077SOL     OW95127   7.688   6.904   8.716
31077SOL    HW195128   7.601   6.931   8.687
31077SOL    HW295129   7.730   6.867   8.638
31078SOL     OW95130   8.119   4.588  10.383
31078SOL    HW195131   8.191   4.554  10.330
31078SOL    HW295132   8.117   4.682  10.364
31079SOL     OW95133   0.103  14.573  11.732
31079SOL    HW195134   0.066  14.569  11.820
31079SOL    HW295135   0.106  14.666  11.711
31080SOL     OW95136   8.725  10.519   2.940
31080SOL    HW195137   8.660  10.570   2.892
31080SOL    HW295138   8.692  10.517   3.030
31081SOL     OW95139   2.033  14.416   0.466
31081SOL    HW195140   1.971  14.417   0.539
31081SOL    HW295141   2.002  14.483   0.406
31082SOL     OW95142   0.529   0.145   3.594
31082SOL    HW195143   0.575   0.166   3.513
31082SOL    HW295144   0.436   0.158   3.573
31083SOL     OW95145  12.980   8.149   6.031
31083SOL    HW195146  12.989   8.134   5.937
31083SOL    HW295147  13.046   8.093   6.071
31084SOL     OW95148  10.079  11.966   3.455
31084SOL    HW195149  10.170  11.935   3.445
31084SOL    HW295150  10.080  12.053   3.417
31085SOL     OW95151   5.024  10.380  13.362
31085SOL    HW195152   5.077  10.458  13.344
31085SOL    HW295153   4.943  10.393  13.313
31086SOL     OW95154   4.510   8.192   3.921
31086SOL    HW195155   4.462   8.262   3.877
31086SOL    HW295156   4.468   8.111   3.890
31087SOL     OW95157   6.107   9.529   5.425
31087SOL    HW195158   6.105   9.604   5.365
31087SOL    HW295159   6.167   9.557   5.495
31088SOL     OW95160   8.489   4.023   9.146
31088SOL    HW195161   8.458   3.933   9.135
31088SOL    HW295162   8.577   4.013   9.182
31089SOL     OW95163  13.118   7.945   6.147
31089SOL    HW195164  13.033   7.924   6.184
31089SOL    HW295165  13.168   7.982   6.219
31090SOL     OW95166  11.807   7.239   8.894
31090SOL    HW195167  11.790   7.149   8.922
31090SOL    HW295168  11.892   7.261   8.932
31091SOL     OW95169   6.455   6.363   1.675
31091SOL    HW195170   6.529   6.424   1.680
31091SOL    HW295171   6.489   6.289   1.625
31092SOL     OW95172  11.344  12.615   7.364
31092SOL    HW195173  11.294  12.552   7.415
31092SOL    HW295174  11.434  12.582   7.367
31093SOL     OW95175  10.607   5.945   0.317
31093SOL    HW195176  10.682   5.925   0.260
31093SOL    HW295177  10.588   5.862   0.361
31094SOL     OW95178   7.157   2.007  13.316
31094SOL    HW195179   7.161   1.919  13.354
31094SOL    HW295180   7.211   2.060  13.375
31095SOL     OW95181  10.858   6.160   3.831
31095SOL    HW195182  10.949   6.171   3.803
31095SOL    HW295183  10.858   6.074   3.875
31096SOL     OW95184   6.551  11.646  14.472
31096SOL    HW195185   6.537  11.686  14.386
31096SOL    HW295186   6.466  11.651  14.515
31097SOL     OW95187  13.923   3.077   3.020
31097SOL    HW195188  13.992   3.022   2.984
31097SOL    HW295189  13.970   3.150   3.061
31098SOL     OW95190  10.928   7.945   2.135
31098SOL    HW195191  10.990   7.882   2.173
31098SOL    HW295192  10.874   7.973   2.209
31099SOL     OW95193   5.898   5.546  14.818
31099SOL    HW195194   5.920   5.626  14.771
31099SOL    HW295195   5.979   5.520  14.861
31100SOL     OW95196   2.565   4.780   7.714
31100SOL    HW195197   2.559   4.756   7.806
31100SOL    HW295198   2.606   4.867   7.714
31101SOL     OW95199   7.581  11.788   5.904
31101SOL    HW195200   7.643  11.820   5.839
31101SOL    HW295201   7.591  11.849   5.978
31102SOL     OW95202  12.393  11.068  12.617
31102SOL    HW195203  12.315  11.022  12.648
31102SOL    HW295204  12.367  11.159  12.610
31103SOL     OW95205   9.804   9.130   5.628
31103SOL    HW195206   9.870   9.132   5.696
31103SOL    HW295207   9.848   9.165   5.550
31104SOL     OW95208   8.624   6.873   7.463
31104SOL    HW195209   8.669   6.948   7.425
31104SOL    HW295210   8.633   6.803   7.398
31105SOL     OW95211   0.597  12.770   0.462
31105SOL    HW195212   0.565  12.724   0.385
31105SOL    HW295213   0.575  12.862   0.446
31106SOL     OW95214   7.337   7.177   0.869
31106SOL    HW195215   7.404   7.111   0.847
31106SOL    HW295216   7.262   7.153   0.815
31107SOL     OW95217  11.722   2.399   5.851
31107SOL    HW195218  11.699   2.312   5.884
31107SOL    HW295219  11.685   2.402   5.763
31108SOL     OW95220   2.329   5.834   2.007
31108SOL    HW195221   2.256   5.789   2.049
31108SOL    HW295222   2.399   5.831   2.072
31109SOL     OW95223   4.973  11.615   9.395
31109SOL    HW195224   4.914  11.635   9.468
31109SOL    HW295225   5.002  11.701   9.364
31110SOL     OW95226   2.119  12.768   4.702
31110SOL    HW195227   2.165  12.851   4.691
31110SOL    HW295228   2.187  12.705   4.725
31111SOL     OW95229   4.591   9.113   3.159
31111SOL    HW195230   4.545   9.032   3.138
31111SOL    HW295231   4.549   9.144   3.239
31112SOL     OW95232  14.771   9.883   8.653
31112SOL    HW195233  14.811   9.946   8.713
31112SOL    HW295234  14.787   9.798   8.694
31113SOL     OW95235  13.322   3.366   8.373
31113SOL    HW195236  13.232   3.351   8.343
31113SOL    HW295237  13.376   3.337   8.300
31114SOL     OW95238   6.215  13.583   0.802
31114SOL    HW195239   6.240  13.673   0.820
31114SOL    HW295240   6.235  13.570   0.709
31115SOL     OW95241   0.967   5.760   6.350
31115SOL    HW195242   0.908   5.800   6.413
31115SOL    HW295243   0.966   5.667   6.371
31116SOL     OW95244   8.791  10.482   2.452
31116SOL    HW195245   8.804  10.410   2.513
31116SOL    HW295246   8.780  10.560   2.507
31117SOL     OW95247   6.177   4.693  14.779
31117SOL    HW195248   6.148   4.780  14.805
31117SOL    HW295249   6.272   4.698  14.779
31118SOL     OW95250  13.122   2.897   1.482
31118SOL    HW195251  13.165   2.922   1.564
31118SOL    HW295252  13.088   2.809   1.498
31119SOL     OW95253   6.184   7.919  11.353
31119SOL    HW195254   6.148   7.836  11.321
31119SOL    HW295255   6.110   7.964  11.394
31120SOL     OW95256  12.496   5.987   8.197
31120SOL    HW195257  12.488   6.055   8.263
31120SOL    HW295258  12.586   5.997   8.164
31121SOL     OW95259  12.332  10.138   0.573
31121SOL    HW195260  12.303  10.131   0.664
31121SOL    HW295261  12.306  10.056   0.533
31122SOL     OW95262   2.946   5.908   6.208
31122SOL    HW195263   2.895   5.976   6.251
31122SOL    HW295264   2.934   5.830   6.262
31123SOL     OW95265   8.049   2.963   9.580
31123SOL    HW195266   8.058   2.927   9.668
31123SOL    HW295267   8.002   3.045   9.592
31124SOL     OW95268   7.487   6.135  14.715
31124SOL    HW195269   7.474   6.216  14.765
31124SOL    HW295270   7.559   6.154  14.656
31125SOL     OW95271  11.453   5.651   9.682
31125SOL    HW195272  11.539   5.643   9.724
31125SOL    HW295273  11.391   5.647   9.755
31126SOL     OW95274  10.395   5.540  11.181
31126SOL    HW195275  10.420   5.632  11.193
31126SOL    HW295276  10.421   5.498  11.263
31127SOL     OW95277   0.416   8.241   7.443
31127SOL    HW195278   0.492   8.212   7.495
31127SOL    HW295279   0.358   8.165   7.444
31128SOL     OW95280  13.368  10.414   7.876
31128SOL    HW195281  13.420  10.376   7.805
31128SOL    HW295282  13.334  10.496   7.839
31129SOL     OW95283   9.501   7.520   5.027
31129SOL    HW195284   9.539   7.471   5.101
31129SOL    HW295285   9.424   7.470   5.003
31130SOL     OW95286   5.288   0.216   0.637
31130SOL    HW195287   5.343   0.254   0.706
31130SOL    HW295288   5.330   0.132   0.616
31131SOL     OW95289  12.389   8.262  13.453
31131SOL    HW195290  12.312   8.205  13.459
31131SOL    HW295291  12.463   8.203  13.445
31132SOL     OW95292  10.411   8.985   5.427
31132SOL    HW195293  10.394   8.892   5.411
31132SOL    HW295294  10.464   9.012   5.352
31133SOL     OW95295  10.543   9.461  11.730
31133SOL    HW195296  10.619   9.511  11.756
31133SOL    HW295297  10.577   9.373  11.713
31134SOL     OW95298   9.202   0.502  10.372
31134SOL    HW195299   9.170   0.584  10.410
31134SOL    HW295300   9.152   0.491  10.291
31135SOL     OW95301   4.055   1.898   1.433
31135SOL    HW195302   4.102   1.831   1.483
31135SOL    HW295303   3.986   1.928   1.492
31136SOL     OW95304   7.189   5.210   3.908
31136SOL    HW195305   7.218   5.142   3.969
31136SOL    HW295306   7.236   5.191   3.827
31137SOL     OW95307  11.669   9.722  13.436
31137SOL    HW195308  11.759   9.742  13.412
31137SOL    HW295309  11.659   9.629  13.415
31138SOL     OW95310  12.991   3.073  11.643
31138SOL    HW195311  13.074   3.110  11.674
31138SOL    HW295312  12.924   3.123  11.689
31139SOL     OW95313   7.653   9.540   2.945
31139SOL    HW195314   7.649   9.530   2.850
31139SOL    HW295315   7.747   9.547   2.964
31140SOL     OW95316  14.509   2.853   5.235
31140SOL    HW195317  14.527   2.893   5.150
31140SOL    HW295318  14.569   2.778   5.238
31141SOL     OW95319   1.675   1.443  12.305
31141SOL    HW195320   1.659   1.518  12.363
31141SOL    HW295321   1.770   1.445  12.290
31142SOL     OW95322  12.801   4.787   4.196
31142SOL    HW195323  12.878   4.730   4.192
31142SOL    HW295324  12.784   4.797   4.290
31143SOL     OW95325  11.384   2.018   1.595
31143SOL    HW195326  11.461   2.075   1.591
31143SOL    HW295327  11.335   2.050   1.671
31144SOL     OW95328  10.612   2.476   7.929
31144SOL    HW195329  10.651   2.439   7.850
31144SOL    HW295330  10.684   2.475   7.994
31145SOL     OW95331   3.992   4.429   7.501
31145SOL    HW195332   3.897   4.436   7.488
31145SOL    HW295333   4.028   4.507   7.458
31146SOL     OW95334   0.498  10.673  11.546
31146SOL    HW195335   0.524  10.582  11.562
31146SOL    HW295336   0.463  10.673  11.457
31147SOL     OW95337   6.786   5.045   4.907
31147SOL    HW195338   6.806   5.080   4.994
31147SOL    HW295339   6.759   5.121   4.856
31148SOL     OW95340   9.038   3.983  14.804
31148SOL    HW195341   8.967   3.996  14.867
31148SOL    HW295342   9.049   3.888  14.799
31149SOL     OW95343   7.877  11.710  14.151
31149SOL    HW195344   7.819  11.681  14.080
31149SOL    HW295345   7.822  11.770  14.202
31150SOL     OW95346   0.344   1.850   2.607
31150SOL    HW195347   0.258   1.890   2.623
31150SOL    HW295348   0.376   1.826   2.694
31151SOL     OW95349   2.903   1.277   8.208
31151SOL    HW195350   2.941   1.293   8.295
31151SOL    HW295351   2.817   1.319   8.212
31152SOL     OW95352  13.868   7.994   4.858
31152SOL    HW195353  13.941   7.949   4.817
31152SOL    HW295354  13.874   7.970   4.951
31153SOL     OW95355   3.756  12.310   5.394
31153SOL    HW195356   3.701  12.376   5.352
31153SOL    HW295357   3.694  12.245   5.427
31154SOL     OW95358  10.514   5.763   5.464
31154SOL    HW195359  10.565   5.844   5.456
31154SOL    HW295360  10.458   5.763   5.387
31155SOL     OW95361   1.316  11.276   8.150
31155SOL    HW195362   1.341  11.363   8.183
31155SOL    HW295363   1.290  11.291   8.059
31156SOL     OW95364   3.547   2.122   1.644
31156SOL    HW195365   3.501   2.066   1.581
31156SOL    HW295366   3.612   2.064   1.684
31157SOL     OW95367  13.831   3.432   3.291
31157SOL    HW195368  13.756   3.377   3.268
31157SOL    HW295369  13.830   3.434   3.387
31158SOL     OW95370  12.282   2.747   0.964
31158SOL    HW195371  12.273   2.801   0.886
31158SOL    HW295372  12.341   2.676   0.938
31159SOL     OW95373   6.654   9.370  10.632
31159SOL    HW195374   6.697   9.368  10.718
31159SOL    HW295375   6.710   9.317  10.576
31160SOL     OW95376  13.812   9.866   0.745
31160SOL    HW195377  13.877   9.918   0.699
31160SOL    HW295378  13.749   9.840   0.678
31161SOL     OW95379   0.490   3.081   9.873
31161SOL    HW195380   0.397   3.100   9.882
31161SOL    HW295381   0.526   3.156   9.827
31162SOL     OW95382   1.158   7.151   2.131
31162SOL    HW195383   1.116   7.153   2.045
31162SOL    HW295384   1.171   7.058   2.150
31163SOL     OW95385   3.044  12.693   9.677
31163SOL    HW195386   3.126  12.648   9.655
31163SOL    HW295387   3.013  12.728   9.594
31164SOL     OW95388   1.388   0.893   7.987
31164SOL    HW195389   1.409   0.845   7.907
31164SOL    HW295390   1.440   0.974   7.981
31165SOL     OW95391  13.029   7.117  10.029
31165SOL    HW195392  13.074   7.197  10.003
31165SOL    HW295393  12.936   7.139  10.029
31166SOL     OW95394   7.277  12.103  12.737
31166SOL    HW195395   7.254  12.154  12.659
31166SOL    HW295396   7.347  12.153  12.779
31167SOL     OW95397  11.665   5.807  12.861
31167SOL    HW195398  11.713   5.816  12.943
31167SOL    HW295399  11.727   5.765  12.801
31168SOL     OW95400  13.678   2.436  14.605
31168SOL    HW195401  13.773   2.432  14.594
31168SOL    HW295402  13.644   2.449  14.517
31169SOL     OW95403   6.029   6.038  10.376
31169SOL    HW195404   6.085   6.072  10.306
31169SOL    HW295405   5.997   5.954  10.343
31170SOL     OW95406   6.193   5.167  14.181
31170SOL    HW195407   6.125   5.191  14.244
31170SOL    HW295408   6.150   5.106  14.122
31171SOL     OW95409   0.423  10.314   3.625
31171SOL    HW195410   0.432  10.399   3.584
31171SOL    HW295411   0.494  10.311   3.690
31172SOL     OW95412   1.035  11.188   5.239
31172SOL    HW195413   1.092  11.155   5.170
31172SOL    HW295414   0.947  11.164   5.211
31173SOL     OW95415   7.380   1.929   0.749
31173SOL    HW195416   7.412   1.904   0.835
31173SOL    HW295417   7.293   1.888   0.743
31174SOL     OW95418   8.390   4.436   7.229
31174SOL    HW195419   8.343   4.411   7.150
31174SOL    HW295420   8.476   4.465   7.198
31175SOL     OW95421   0.596   4.471   7.927
31175SOL    HW195422   0.678   4.517   7.912
31175SOL    HW295423   0.529   4.528   7.888
31176SOL     OW95424   7.318   7.313   6.380
31176SOL    HW195425   7.244   7.358   6.340
31176SOL    HW295426   7.283   7.230   6.412
31177SOL     OW95427   5.461  11.006   1.540
31177SOL    HW195428   5.369  10.981   1.535
31177SOL    HW295429   5.468  11.081   1.481
31178SOL     OW95430  13.802   1.241  11.168
31178SOL    HW195431  13.894   1.215  11.166
31178SOL    HW295432  13.803   1.326  11.211
31179SOL     OW95433   7.005   1.268   2.827
31179SOL    HW195434   6.932   1.330   2.822
31179SOL    HW295435   7.013   1.233   2.739
31180SOL     OW95436   2.358   3.532   0.596
31180SOL    HW195437   2.426   3.505   0.658
31180SOL    HW295438   2.373   3.625   0.583
31181SOL     OW95439   1.892  12.293   5.876
31181SOL    HW195440   1.943  12.360   5.831
31181SOL    HW295441   1.814  12.282   5.822
31182SOL     OW95442   6.272   3.726   0.437
31182SOL    HW195443   6.287   3.777   0.357
31182SOL    HW295444   6.306   3.782   0.507
31183SOL     OW95445  13.700   5.752  13.344
31183SOL    HW195446  13.638   5.689  13.309
31183SOL    HW295447  13.653   5.796  13.414
31184SOL     OW95448  13.171  13.820  13.321
31184SOL    HW195449  13.151  13.914  13.316
31184SOL    HW295450  13.214  13.800  13.238
31185SOL     OW95451   7.336   6.135  10.417
31185SOL    HW195452   7.363   6.207  10.360
31185SOL    HW295453   7.410   6.074  10.416
31186SOL     OW95454   1.070   7.806   1.198
31186SOL    HW195455   0.975   7.794   1.188
31186SOL    HW295456   1.107   7.724   1.166
31187SOL     OW95457  14.510   8.926   4.477
31187SOL    HW195458  14.522   8.903   4.569
31187SOL    HW295459  14.496   8.842   4.433
31188SOL     OW95460  14.658   0.004  12.228
31188SOL    HW195461  14.631  14.789  12.192
31188SOL    HW295462  14.576   0.048  12.250
31189SOL     OW95463   2.770   6.457   5.115
31189SOL    HW195464   2.711   6.385   5.137
31189SOL    HW295465   2.857   6.425   5.140
31190SOL     OW95466   3.303  12.124  12.749
31190SOL    HW195467   3.358  12.082  12.682
31190SOL    HW295468   3.363  12.174  12.803
31191SOL     OW95469   6.021   1.777   4.435
31191SOL    HW195470   6.108   1.761   4.471
31191SOL    HW295471   5.969   1.701   4.462
31192SOL     OW95472   6.443  11.148   0.370
31192SOL    HW195473   6.358  11.154   0.328
31192SOL    HW295474   6.457  11.054   0.383
31193SOL     OW95475   1.222   6.243   2.873
31193SOL    HW195476   1.315   6.265   2.878
31193SOL    HW295477   1.218   6.171   2.811
31194SOL     OW95478  14.071  11.729  11.442
31194SOL    HW195479  14.015  11.746  11.518
31194SOL    HW295480  14.156  11.767  11.466
31195SOL     OW95481   2.947  11.919  14.822
31195SOL    HW195482   2.996  11.883  14.747
31195SOL    HW295483   2.969  11.860   0.024
31196SOL     OW95484   4.575   7.194  11.345
31196SOL    HW195485   4.582   7.129  11.415
31196SOL    HW295486   4.519   7.153  11.279
31197SOL     OW95487  12.316   3.732   9.625
31197SOL    HW195488  12.394   3.694   9.584
31197SOL    HW295489  12.296   3.672   9.697
31198SOL     OW95490   3.350  12.600   8.233
31198SOL    HW195491   3.287  12.606   8.161
31198SOL    HW295492   3.390  12.687   8.238
31199SOL     OW95493   2.025   8.170   2.789
31199SOL    HW195494   2.053   8.121   2.866
31199SOL    HW295495   1.995   8.103   2.727
31200SOL     OW95496  11.279   0.216  12.841
31200SOL    HW195497  11.324   0.288  12.886
31200SOL    HW295498  11.348   0.175  12.788
31201SOL     OW95499   4.417   9.045   0.560
31201SOL    HW195500   4.501   9.025   0.601
31201SOL    HW295501   4.374   8.961   0.547
31202SOL     OW95502   1.197   8.713   0.822
31202SOL    HW195503   1.166   8.801   0.845
31202SOL    HW295504   1.120   8.657   0.832
31203SOL     OW95505  12.155   1.054   8.556
31203SOL    HW195506  12.108   1.065   8.638
31203SOL    HW295507  12.168   0.959   8.548
31204SOL     OW95508   4.765   3.251  14.829
31204SOL    HW195509   4.845   3.242  14.777
31204SOL    HW295510   4.777   3.189   0.032
31205SOL     OW95511  13.293   5.561   3.003
31205SOL    HW195512  13.276   5.586   3.094
31205SOL    HW295513  13.210   5.523   2.973
31206SOL     OW95514  13.348   9.394  11.584
31206SOL    HW195515  13.378   9.315  11.539
31206SOL    HW295516  13.411   9.462  11.558
31207SOL     OW95517   6.920  14.418   4.909
31207SOL    HW195518   6.953  14.466   4.833
31207SOL    HW295519   6.975  14.340   4.913
31208SOL     OW95520   3.621  14.060   2.272
31208SOL    HW195521   3.539  14.090   2.232
31208SOL    HW295522   3.594  14.024   2.357
31209SOL     OW95523   2.910   1.624   3.838
31209SOL    HW195524   2.823   1.600   3.804
31209SOL    HW295525   2.893   1.697   3.898
31210SOL     OW95526  11.973  12.888  12.011
31210SOL    HW195527  11.968  12.874  11.916
31210SOL    HW295528  11.992  12.981  12.020
31211SOL     OW95529   8.375   1.367  13.062
31211SOL    HW195530   8.369   1.283  13.016
31211SOL    HW295531   8.374   1.433  12.992
31212SOL     OW95532  11.221   0.968  10.700
31212SOL    HW195533  11.300   0.944  10.651
31212SOL    HW295534  11.153   0.978  10.633
31213SOL     OW95535   7.902   9.783   6.203
31213SOL    HW195536   7.968   9.825   6.257
31213SOL    HW295537   7.862   9.854   6.154
31214SOL     OW95538   4.197   7.933  14.027
31214SOL    HW195539   4.121   7.875  14.030
31214SOL    HW295540   4.160   8.021  14.032
31215SOL     OW95541   4.512  11.395   5.791
31215SOL    HW195542   4.572  11.363   5.724
31215SOL    HW295543   4.486  11.316   5.839
31216SOL     OW95544   2.192   4.119   6.975
31216SOL    HW195545   2.243   4.127   7.056
31216SOL    HW295546   2.224   4.039   6.934
31217SOL     OW95547   4.066   8.966  14.239
31217SOL    HW195548   4.147   8.923  14.264
31217SOL    HW295549   4.034   8.917  14.163
31218SOL     OW95550   4.012   3.125  14.021
31218SOL    HW195551   3.930   3.076  14.028
31218SOL    HW295552   4.012   3.156  13.930
31219SOL     OW95553   5.345  13.969  13.858
31219SOL    HW195554   5.342  14.044  13.798
31219SOL    HW295555   5.431  13.930  13.842
31220SOL     OW95556   9.239   8.360   7.428
31220SOL    HW195557   9.241   8.295   7.359
31220SOL    HW295558   9.177   8.426   7.397
31221SOL     OW95559   9.823   5.199   3.050
31221SOL    HW195560   9.809   5.259   3.123
31221SOL    HW295561   9.742   5.148   3.045
31222SOL     OW95562   8.483  10.818   8.879
31222SOL    HW195563   8.458  10.781   8.795
31222SOL    HW295564   8.422  10.890   8.893
31223SOL     OW95565  14.167   3.177   4.084
31223SOL    HW195566  14.167   3.156   3.991
31223SOL    HW295567  14.077   3.205   4.103
31224SOL     OW95568  12.173   0.377   3.381
31224SOL    HW195569  12.211   0.343   3.299
31224SOL    HW295570  12.093   0.421   3.353
31225SOL     OW95571   3.736   5.599   6.205
31225SOL    HW195572   3.814   5.548   6.185
31225SOL    HW295573   3.666   5.557   6.154
31226SOL     OW95574   1.688   0.091  13.902
31226SOL    HW195575   1.688   0.161  13.967
31226SOL    HW295576   1.757   0.032  13.931
31227SOL     OW95577   6.928   2.496  13.360
31227SOL    HW195578   6.913   2.454  13.445
31227SOL    HW295579   7.006   2.452  13.326
31228SOL     OW95580   4.969  11.204  14.255
31228SOL    HW195581   4.962  11.126  14.199
31228SOL    HW295582   4.880  11.237  14.263
31229SOL     OW95583  14.042  10.255   2.774
31229SOL    HW195584  13.977  10.304   2.723
31229SOL    HW295585  14.059  10.177   2.723
31230SOL     OW95586   4.548   4.264  12.769
31230SOL    HW195587   4.571   4.260  12.861
31230SOL    HW295588   4.632   4.265  12.723
31231SOL     OW95589  14.490   7.181  13.291
31231SOL    HW195590  14.557   7.136  13.341
31231SOL    HW295591  14.463   7.118  13.224
31232SOL     OW95592  11.821  14.209   6.699
31232SOL    HW195593  11.896  14.195   6.641
31232SOL    HW295594  11.749  14.234   6.640
31233SOL     OW95595   3.530  13.345   4.520
31233SOL    HW195596   3.616  13.364   4.556
31233SOL    HW295597   3.469  13.390   4.578
31234SOL     OW95598   1.859   7.128   2.583
31234SOL    HW195599   1.911   7.181   2.522
31234SOL    HW295600   1.905   7.137   2.667
31235SOL     OW95601   3.566   6.065  11.607
31235SOL    HW195602   3.494   6.037  11.550
31235SOL    HW295603   3.525   6.120  11.673
31236SOL     OW95604   2.108   1.108   2.946
31236SOL    HW195605   2.174   1.173   2.968
31236SOL    HW295606   2.137   1.028   2.992
31237SOL     OW95607   5.057  10.346  10.711
31237SOL    HW195608   5.001  10.302  10.774
31237SOL    HW295609   5.053  10.291  10.633
31238SOL     OW95610   7.771   8.886  11.061
31238SOL    HW195611   7.786   8.967  11.013
31238SOL    HW295612   7.853   8.870  11.108
31239SOL     OW95613  13.429   2.438   5.162
31239SOL    HW195614  13.379   2.501   5.214
31239SOL    HW295615  13.458   2.488   5.086
31240SOL     OW95616  11.917   8.014  12.424
31240SOL    HW195617  11.850   7.998  12.359
31240SOL    HW295618  11.954   8.099  12.400
31241SOL     OW95619   7.753   0.747   4.846
31241SOL    HW195620   7.741   0.836   4.877
31241SOL    HW295621   7.764   0.755   4.751
31242SOL     OW95622  12.019   9.532  14.212
31242SOL    HW195623  12.017   9.620  14.249
31242SOL    HW295624  12.030   9.547  14.118
31243SOL     OW95625   7.653  10.032  14.057
31243SOL    HW195626   7.562  10.022  14.085
31243SOL    HW295627   7.649  10.098  13.989
31244SOL     OW95628   9.857   1.945  13.252
31244SOL    HW195629   9.771   1.926  13.290
31244SOL    HW295630   9.882   1.863  13.209
31245SOL     OW95631  14.386  13.383   1.586
31245SOL    HW195632  14.333  13.457   1.557
31245SOL    HW295633  14.468  13.422   1.616
31246SOL     OW95634  13.448   4.815  11.210
31246SOL    HW195635  13.399   4.830  11.129
31246SOL    HW295636  13.399   4.746  11.255
31247SOL     OW95637   9.181  13.581   7.783
31247SOL    HW195638   9.241  13.552   7.852
31247SOL    HW295639   9.155  13.501   7.738
31248SOL     OW95640   9.207  13.368   0.874
31248SOL    HW195641   9.290  13.339   0.836
31248SOL    HW295642   9.233  13.419   0.951
31249SOL     OW95643   6.559  10.243   1.501
31249SOL    HW195644   6.554  10.162   1.552
31249SOL    HW295645   6.652  10.253   1.481
31250SOL     OW95646   3.930  10.869  10.745
31250SOL    HW195647   4.005  10.892  10.800
31250SOL    HW295648   3.930  10.936  10.676
31251SOL     OW95649   2.133   8.785   4.780
31251SOL    HW195650   2.227   8.788   4.765
31251SOL    HW295651   2.123   8.734   4.860
31252SOL     OW95652  12.218  14.101  10.445
31252SOL    HW195653  12.271  14.137  10.374
31252SOL    HW295654  12.265  14.125  10.525
31253SOL     OW95655   6.306   6.731  12.063
31253SOL    HW195656   6.264   6.651  12.033
31253SOL    HW295657   6.235   6.782  12.101
31254SOL     OW95658   0.844  11.692  10.251
31254SOL    HW195659   0.920  11.715  10.304
31254SOL    HW295660   0.852  11.746  10.172
31255SOL     OW95661   1.942  10.911   7.018
31255SOL    HW195662   1.935  10.903   6.923
31255SOL    HW295663   1.982  10.997   7.032
31256SOL     OW95664   6.912   1.519   7.741
31256SOL    HW195665   6.957   1.603   7.751
31256SOL    HW295666   6.903   1.485   7.830
31257SOL     OW95667   6.913   1.976   5.849
31257SOL    HW195668   6.997   1.982   5.895
31257SOL    HW295669   6.863   2.051   5.880
31258SOL     OW95670   2.050   2.770   6.457
31258SOL    HW195671   2.104   2.848   6.468
31258SOL    HW295672   1.965   2.803   6.428
31259SOL     OW95673   0.564  11.281   7.076
31259SOL    HW195674   0.576  11.219   7.004
31259SOL    HW295675   0.487  11.249   7.122
31260SOL     OW95676  12.659   4.210   0.897
31260SOL    HW195677  12.572   4.249   0.893
31260SOL    HW295678  12.675   4.179   0.808
31261SOL     OW95679  10.954   1.967  14.359
31261SOL    HW195680  10.962   1.895  14.423
31261SOL    HW295681  10.989   1.930  14.278
31262SOL     OW95682   5.852   7.953   5.216
31262SOL    HW195683   5.764   7.922   5.238
31262SOL    HW295684   5.856   7.946   5.120
31263SOL     OW95685   0.282   4.159   1.495
31263SOL    HW195686   0.205   4.171   1.550
31263SOL    HW295687   0.321   4.247   1.490
31264SOL     OW95688  11.982   9.096   5.729
31264SOL    HW195689  11.894   9.063   5.745
31264SOL    HW295690  12.018   9.037   5.663
31265SOL     OW95691   2.213   4.678  11.364
31265SOL    HW195692   2.150   4.632  11.420
31265SOL    HW295693   2.297   4.663  11.407
31266SOL     OW95694  14.834   1.918  11.406
31266SOL    HW195695   0.059   1.908  11.421
31266SOL    HW295696  14.793   1.879  11.483
31267SOL     OW95697   7.999   7.002   8.037
31267SOL    HW195698   8.019   6.980   8.128
31267SOL    HW295699   8.083   7.026   7.998
31268SOL     OW95700  10.642  10.513  11.357
31268SOL    HW195701  10.601  10.432  11.388
31268SOL    HW295702  10.577  10.581  11.373
31269SOL     OW95703   4.696  10.252   0.140
31269SOL    HW195704   4.647  10.206   0.071
31269SOL    HW295705   4.692  10.344   0.114
31270SOL     OW95706   6.106   9.310  12.022
31270SOL    HW195707   6.108   9.287  11.929
31270SOL    HW295708   6.169   9.251  12.063
31271SOL     OW95709   0.012  14.211   8.200
31271SOL    HW195710  14.861  14.165   8.119
31271SOL    HW295711   0.064  14.286   8.172
31272SOL     OW95712   0.538   7.182   9.858
31272SOL    HW195713   0.515   7.089   9.850
31272SOL    HW295714   0.519   7.219   9.772
31273SOL     OW95715   0.025   8.680   2.109
31273SOL    HW195716   0.095   8.618   2.087
31273SOL    HW295717   0.067   8.743   2.168
31274SOL     OW95718   2.835   9.946   3.970
31274SOL    HW195719   2.794   9.999   3.901
31274SOL    HW295720   2.829  10.000   4.049
31275SOL     OW95721   5.226   2.497  12.006
31275SOL    HW195722   5.279   2.422  12.032
31275SOL    HW295723   5.259   2.520  11.919
31276SOL     OW95724   3.120  11.784   0.232
31276SOL    HW195725   3.200  11.761   0.280
31276SOL    HW295726   3.132  11.743   0.146
31277SOL     OW95727   7.910   2.503   3.341
31277SOL    HW195728   7.868   2.453   3.272
31277SOL    HW295729   7.951   2.437   3.397
31278SOL     OW95730   4.238   7.199  10.596
31278SOL    HW195731   4.242   7.247  10.514
31278SOL    HW295732   4.326   7.163  10.607
31279SOL     OW95733  10.347   1.427   7.613
31279SOL    HW195734  10.261   1.443   7.651
31279SOL    HW295735  10.332   1.430   7.519
31280SOL     OW95736   9.730  14.287   9.802
31280SOL    HW195737   9.752  14.196   9.784
31280SOL    HW295738   9.787  14.337   9.744
31281SOL     OW95739  10.405  13.619   5.795
31281SOL    HW195740  10.356  13.602   5.876
31281SOL    HW295741  10.441  13.706   5.807
31282SOL     OW95742  14.617   9.241   7.174
31282SOL    HW195743  14.640   9.167   7.231
31282SOL    HW295744  14.699   9.267   7.133
31283SOL     OW95745   6.123   6.518  14.277
31283SOL    HW195746   6.217   6.517  14.298
31283SOL    HW295747   6.088   6.591  14.328
31284SOL     OW95748   7.116   1.828   6.096
31284SOL    HW195749   7.158   1.772   6.031
31284SOL    HW295750   7.137   1.787   6.180
31285SOL     OW95751   2.336   4.232   2.774
31285SOL    HW195752   2.396   4.261   2.843
31285SOL    HW295753   2.276   4.305   2.761
31286SOL     OW95754   1.664   9.671   1.103
31286SOL    HW195755   1.701   9.747   1.147
31286SOL    HW295756   1.570   9.676   1.121
31287SOL     OW95757   6.833   5.618   2.547
31287SOL    HW195758   6.892   5.679   2.504
31287SOL    HW295759   6.745   5.653   2.529
31288SOL     OW95760  12.290  14.056   9.478
31288SOL    HW195761  12.332  14.134   9.441
31288SOL    HW295762  12.295  13.991   9.408
31289SOL     OW95763   4.665   3.576   3.623
31289SOL    HW195764   4.587   3.603   3.574
31289SOL    HW295765   4.725   3.542   3.556
31290SOL     OW95766   6.810   6.068   8.921
31290SOL    HW195767   6.760   5.988   8.937
31290SOL    HW295768   6.814   6.075   8.825
31291SOL     OW95769  10.808  10.508  12.572
31291SOL    HW195770  10.849  10.578  12.622
31291SOL    HW295771  10.722  10.543  12.548
31292SOL     OW95772  14.590  10.763   7.890
31292SOL    HW195773  14.619  10.691   7.834
31292SOL    HW295774  14.671  10.803   7.922
31293SOL     OW95775   1.366   6.788   0.878
31293SOL    HW195776   1.278   6.751   0.877
31293SOL    HW295777   1.396   6.781   0.787
31294SOL     OW95778  11.127   8.133   6.018
31294SOL    HW195779  11.223   8.129   6.025
31294SOL    HW295780  11.109   8.219   5.981
31295SOL     OW95781  14.104   0.370   4.083
31295SOL    HW195782  14.064   0.451   4.051
31295SOL    HW295783  14.147   0.332   4.007
31296SOL     OW95784  10.958  11.657  14.189
31296SOL    HW195785  11.014  11.597  14.238
31296SOL    HW295786  11.017  11.705  14.131
31297SOL     OW95787   6.273  12.394  14.799
31297SOL    HW195788   6.361  12.358  14.786
31297SOL    HW295789   6.216  12.337  14.749
31298SOL     OW95790  13.675   6.226  12.989
31298SOL    HW195791  13.613   6.188  13.051
31298SOL    HW295792  13.679   6.319  13.014
31299SOL     OW95793   5.238   4.101  11.688
31299SOL    HW195794   5.169   4.166  11.697
31299SOL    HW295795   5.262   4.079  11.779
31300SOL     OW95796  14.502   2.265  13.488
31300SOL    HW195797  14.514   2.358  13.466
31300SOL    HW295798  14.418   2.243  13.449
31301SOL     OW95799  14.277   4.733   1.209
31301SOL    HW195800  14.239   4.693   1.288
31301SOL    HW295801  14.251   4.825   1.213
31302SOL     OW95802  11.632  11.491  12.635
31302SOL    HW195803  11.683  11.433  12.579
31302SOL    HW295804  11.694  11.521  12.701
31303SOL     OW95805   0.218   2.332   9.372
31303SOL    HW195806   0.215   2.403   9.437
31303SOL    HW295807   0.310   2.305   9.370
31304SOL     OW95808   1.073   6.589  11.545
31304SOL    HW195809   1.013   6.645  11.595
31304SOL    HW295810   1.091   6.516  11.603
31305SOL     OW95811   0.115  10.032  10.113
31305SOL    HW195812   0.135   9.991  10.029
31305SOL    HW295813   0.064  10.109  10.090
31306SOL     OW95814   0.443   7.922  11.237
31306SOL    HW195815   0.503   7.848  11.249
31306SOL    HW295816   0.457   7.977  11.314
31307SOL     OW95817   9.737   3.309  12.902
31307SOL    HW195818   9.822   3.278  12.933
31307SOL    HW295819   9.757   3.367  12.829
31308SOL     OW95820   5.244   3.017  12.499
31308SOL    HW195821   5.330   2.984  12.471
31308SOL    HW295822   5.200   3.042  12.417
31309SOL     OW95823   3.130  12.709  11.642
31309SOL    HW195824   3.121  12.615  11.625
31309SOL    HW295825   3.153  12.747  11.557
31310SOL     OW95826  13.398  13.869   5.386
31310SOL    HW195827  13.386  13.959   5.415
31310SOL    HW295828  13.388  13.873   5.291
31311SOL     OW95829   7.784   2.165   8.998
31311SOL    HW195830   7.726   2.100   8.957
31311SOL    HW295831   7.811   2.222   8.926
31312SOL     OW95832   9.832  13.438   5.041
31312SOL    HW195833   9.832  13.350   5.003
31312SOL    HW295834   9.922  13.453   5.068
31313SOL     OW95835   7.786   3.670   7.440
31313SOL    HW195836   7.735   3.745   7.470
31313SOL    HW295837   7.861   3.665   7.500
31314SOL     OW95838  14.048   0.545  11.023
31314SOL    HW195839  13.968   0.502  10.996
31314SOL    HW295840  14.032   0.638  11.007
31315SOL     OW95841  10.523   8.792  11.580
31315SOL    HW195842  10.472   8.774  11.501
31315SOL    HW295843  10.459   8.822  11.644
31316SOL     OW95844   5.668   9.023   3.991
31316SOL    HW195845   5.678   9.117   4.002
31316SOL    HW295846   5.750   8.994   3.951
31317SOL     OW95847   0.166   2.863  13.792
31317SOL    HW195848   0.146   2.935  13.852
31317SOL    HW295849   0.224   2.902  13.727
31318SOL     OW95850  12.544   0.599   1.916
31318SOL    HW195851  12.568   0.566   1.829
31318SOL    HW295852  12.572   0.529   1.976
31319SOL     OW95853  11.186   0.951  14.759
31319SOL    HW195854  11.236   0.953  14.840
31319SOL    HW295855  11.247   0.918  14.693
31320SOL     OW95856   7.687   7.635   8.477
31320SOL    HW195857   7.764   7.678   8.515
31320SOL    HW295858   7.615   7.697   8.494
31321SOL     OW95859   5.704   2.679   5.441
31321SOL    HW195860   5.750   2.695   5.358
31321SOL    HW295861   5.679   2.587   5.437
31322SOL     OW95862  12.186   5.696  11.619
31322SOL    HW195863  12.093   5.674  11.627
31322SOL    HW295864  12.230   5.641  11.684
31323SOL     OW95865  10.011   5.608  13.961
31323SOL    HW195866   9.988   5.531  13.910
31323SOL    HW295867  10.106   5.602  13.973
31324SOL     OW95868   7.110   0.911   8.317
31324SOL    HW195869   7.198   0.878   8.335
31324SOL    HW295870   7.060   0.833   8.293
31325SOL     OW95871  11.466   2.894   9.288
31325SOL    HW195872  11.512   2.876   9.206
31325SOL    HW295873  11.409   2.969   9.267
31326SOL     OW95874   5.905  14.626  13.511
31326SOL    HW195875   5.821  14.660  13.478
31326SOL    HW295876   5.891  14.532  13.520
31327SOL     OW95877   7.849   6.174   1.674
31327SOL    HW195878   7.754   6.159   1.674
31327SOL    HW295879   7.871   6.188   1.767
31328SOL     OW95880   3.466  11.731  11.218
31328SOL    HW195881   3.393  11.765  11.167
31328SOL    HW295882   3.452  11.766  11.307
31329SOL     OW95883  13.653  13.779   7.947
31329SOL    HW195884  13.741  13.748   7.926
31329SOL    HW295885  13.624  13.824   7.867
31330SOL     OW95886   0.962   5.378  10.871
31330SOL    HW195887   0.926   5.403  10.786
31330SOL    HW295888   0.940   5.285  10.879
31331SOL     OW95889   8.786   9.753   1.032
31331SOL    HW195890   8.742   9.822   1.082
31331SOL    HW295891   8.765   9.672   1.080
31332SOL     OW95892  10.773   4.706   7.058
31332SOL    HW195893  10.773   4.616   7.026
31332SOL    HW295894  10.722   4.703   7.138
31333SOL     OW95895  11.588   4.340  11.883
31333SOL    HW195896  11.558   4.431  11.882
31333SOL    HW295897  11.583   4.314  11.975
31334SOL     OW95898   1.773   4.796   3.572
31334SOL    HW195899   1.837   4.748   3.519
31334SOL    HW295900   1.813   4.883   3.585
31335SOL     OW95901  10.296  13.031   7.709
31335SOL    HW195902  10.323  12.954   7.757
31335SOL    HW295903  10.232  13.074   7.765
31336SOL     OW95904   3.626   2.819  14.651
31336SOL    HW195905   3.596   2.733  14.620
31336SOL    HW295906   3.550   2.858  14.693
31337SOL     OW95907   3.957  10.949   1.608
31337SOL    HW195908   3.883  10.888   1.615
31337SOL    HW295909   3.928  11.028   1.654
31338SOL     OW95910  11.847   2.739  11.300
31338SOL    HW195911  11.898   2.789  11.237
31338SOL    HW295912  11.887   2.758  11.384
31339SOL     OW95913   2.121   2.955   4.556
31339SOL    HW195914   2.189   2.890   4.573
31339SOL    HW295915   2.111   3.001   4.640
31340SOL     OW95916   2.258   7.070   1.808
31340SOL    HW195917   2.324   7.061   1.740
31340SOL    HW295918   2.214   7.153   1.789
31341SOL     OW95919  14.505   7.142  13.013
31341SOL    HW195920  14.448   7.108  12.945
31341SOL    HW295921  14.583   7.087  13.009
31342SOL     OW95922   4.398   2.915   7.024
31342SOL    HW195923   4.308   2.940   7.045
31342SOL    HW295924   4.452   2.970   7.081
31343SOL     OW95925   2.044   2.633   6.676
31343SOL    HW195926   1.954   2.634   6.708
31343SOL    HW295927   2.040   2.680   6.592
31344SOL     OW95928  11.768  11.171   3.008
31344SOL    HW195929  11.734  11.131   2.928
31344SOL    HW295930  11.783  11.098   3.067
31345SOL     OW95931   7.735   0.390  10.848
31345SOL    HW195932   7.758   0.297  10.855
31345SOL    HW295933   7.816   0.437  10.865
31346SOL     OW95934   9.933  10.043   6.567
31346SOL    HW195935   9.895  10.057   6.654
31346SOL    HW295936   9.984   9.962   6.575
31347SOL     OW95937   0.438   1.810  12.417
31347SOL    HW195938   0.430   1.774  12.329
31347SOL    HW295939   0.517   1.770  12.452
31348SOL     OW95940  13.814   9.772   4.986
31348SOL    HW195941  13.891   9.827   4.998
31348SOL    HW295942  13.764   9.781   5.067
31349SOL     OW95943   0.096   3.743   9.180
31349SOL    HW195944   0.066   3.740   9.089
31349SOL    HW295945   0.185   3.778   9.175
31350SOL     OW95946   1.914   9.263  10.387
31350SOL    HW195947   1.840   9.281  10.329
31350SOL    HW295948   1.967   9.199  10.339
31351SOL     OW95949   3.258   8.058  14.425
31351SOL    HW195950   3.290   7.994  14.488
31351SOL    HW295951   3.186   8.014  14.380
31352SOL     OW95952   8.905  13.842   5.089
31352SOL    HW195953   8.961  13.853   5.012
31352SOL    HW295954   8.838  13.910   5.079
31353SOL     OW95955   2.095   8.971  12.634
31353SOL    HW195956   2.039   9.014  12.570
31353SOL    HW295957   2.172   8.943  12.584
31354SOL     OW95958   1.006   9.332  12.863
31354SOL    HW195959   0.935   9.310  12.924
31354SOL    HW295960   1.078   9.361  12.920
31355SOL     OW95961   9.512   2.998   2.533
31355SOL    HW195962   9.467   2.919   2.561
31355SOL    HW295963   9.605   2.980   2.548
31356SOL     OW95964   4.662   8.400   2.978
31356SOL    HW195965   4.638   8.319   2.933
31356SOL    HW295966   4.740   8.431   2.932
31357SOL     OW95967  10.111  13.449   5.087
31357SOL    HW195968  10.149  13.417   5.168
31357SOL    HW295969  10.147  13.392   5.019
31358SOL     OW95970   7.892  12.413   7.444
31358SOL    HW195971   7.909  12.466   7.367
31358SOL    HW295972   7.967  12.354   7.451
31359SOL     OW95973   2.369   1.544   5.666
31359SOL    HW195974   2.353   1.548   5.760
31359SOL    HW295975   2.363   1.451   5.645
31360SOL     OW95976   3.172   5.607   7.009
31360SOL    HW195977   3.102   5.621   7.072
31360SOL    HW295978   3.164   5.516   6.983
31361SOL     OW95979  10.496   1.272  10.213
31361SOL    HW195980  10.496   1.334  10.286
31361SOL    HW295981  10.415   1.292  10.165
31362SOL     OW95982   0.232   6.565   8.496
31362SOL    HW195983   0.288   6.489   8.514
31362SOL    HW295984   0.167   6.532   8.434
31363SOL     OW95985   3.029   6.639   8.698
31363SOL    HW195986   2.940   6.604   8.694
31363SOL    HW295987   3.019   6.728   8.731
31364SOL     OW95988   3.667   7.153   0.833
31364SOL    HW195989   3.743   7.102   0.807
31364SOL    HW295990   3.635   7.110   0.912
31365SOL     OW95991  11.340   6.534  10.537
31365SOL    HW195992  11.309   6.471  10.602
31365SOL    HW295993  11.396   6.594  10.586
31366SOL     OW95994  13.774   9.835  14.144
31366SOL    HW195995  13.825   9.897  14.093
31366SOL    HW295996  13.702   9.809  14.087
31367SOL     OW95997  10.808  11.578   4.401
31367SOL    HW195998  10.856  11.568   4.318
31367SOL    HW295999  10.728  11.527   4.388
31368SOL     OW96000  13.848   1.151   6.439
31368SOL    HW196001  13.914   1.184   6.501
31368SOL    HW296002  13.815   1.230   6.396
31369SOL     OW96003   0.214   3.877   0.847
31369SOL    HW196004   0.148   3.844   0.909
31369SOL    HW296005   0.291   3.894   0.902
31370SOL     OW96006   9.885   9.200   8.628
31370SOL    HW196007   9.925   9.159   8.704
31370SOL    HW296008   9.840   9.277   8.663
31371SOL     OW96009  11.710   4.144   1.402
31371SOL    HW196010  11.674   4.056   1.416
31371SOL    HW296011  11.642   4.203   1.433
31372SOL     OW96012   5.319   6.223  14.527
31372SOL    HW196013   5.234   6.178  14.527
31372SOL    HW296014   5.300   6.311  14.561
31373SOL     OW96015   8.292   8.897   5.245
31373SOL    HW196016   8.311   8.949   5.166
31373SOL    HW296017   8.326   8.949   5.317
31374SOL     OW96018   1.885  11.917  14.317
31374SOL    HW196019   1.866  11.878  14.402
31374SOL    HW296020   1.899  11.841  14.259
31375SOL     OW96021   9.519  14.345   2.061
31375SOL    HW196022   9.504  14.315   2.151
31375SOL    HW296023   9.493  14.437   2.062
31376SOL     OW96024   3.701   3.565  13.717
31376SOL    HW196025   3.700   3.472  13.740
31376SOL    HW296026   3.631   3.603  13.771
31377SOL     OW96027  13.160   2.850  11.655
31377SOL    HW196028  13.105   2.926  11.673
31377SOL    HW296029  13.101   2.788  11.612
31378SOL     OW96030   2.893   9.198  10.620
31378SOL    HW196031   2.800   9.219  10.608
31378SOL    HW296032   2.931   9.205  10.533
31379SOL     OW96033  12.774  14.003   5.690
31379SOL    HW196034  12.816  13.937   5.744
31379SOL    HW296035  12.719  13.953   5.630
31380SOL     OW96036   0.573   5.799   8.264
31380SOL    HW196037   0.497   5.798   8.322
31380SOL    HW296038   0.579   5.890   8.235
31381SOL     OW96039  12.652  13.651   0.331
31381SOL    HW196040  12.614  13.614   0.411
31381SOL    HW296041  12.746  13.650   0.346
31382SOL     OW96042   4.375   7.051  11.139
31382SOL    HW196043   4.412   6.991  11.074
31382SOL    HW296044   4.314   7.105  11.089
31383SOL     OW96045   8.884   4.362   9.734
31383SOL    HW196046   8.817   4.296   9.752
31383SOL    HW296047   8.838   4.446   9.741
31384SOL     OW96048   3.681  14.384   4.454
31384SOL    HW196049   3.713  14.387   4.364
31384SOL    HW296050   3.760  14.389   4.508
31385SOL     OW96051   4.145  12.599  11.911
31385SOL    HW196052   4.206  12.645  11.853
31385SOL    HW296053   4.076  12.663  11.929
31386SOL     OW96054  13.961   8.447   0.476
31386SOL    HW196055  13.919   8.422   0.394
31386SOL    HW296056  13.889   8.450   0.540
31387SOL     OW96057   3.293  11.634   7.979
31387SOL    HW196058   3.268  11.546   7.950
31387SOL    HW296059   3.370  11.655   7.925
31388SOL     OW96060   8.290   8.982  11.462
31388SOL    HW196061   8.299   8.920  11.389
31388SOL    HW296062   8.227   8.941  11.521
31389SOL     OW96063   1.295   5.418   4.636
31389SOL    HW196064   1.374   5.467   4.660
31389SOL    HW296065   1.231   5.440   4.703
31390SOL     OW96066   9.190   3.980   3.796
31390SOL    HW196067   9.250   3.929   3.852
31390SOL    HW296068   9.135   4.028   3.858
31391SOL     OW96069   0.419   3.426   3.871
31391SOL    HW196070   0.379   3.485   3.807
31391SOL    HW296071   0.387   3.339   3.847
31392SOL     OW96072  10.702  13.735  13.450
31392SOL    HW196073  10.768  13.804  13.448
31392SOL    HW296074  10.635  13.767  13.510
31393SOL     OW96075  12.147   9.378  13.753
31393SOL    HW196076  12.131   9.284  13.762
31393SOL    HW296077  12.074   9.411  13.700
31394SOL     OW96078   9.160   5.465  13.508
31394SOL    HW196079   9.181   5.507  13.591
31394SOL    HW296080   9.066   5.447  13.513
31395SOL     OW96081   7.074   2.657   4.912
31395SOL    HW196082   7.120   2.639   4.994
31395SOL    HW296083   7.067   2.753   4.909
31396SOL     OW96084   7.470   9.985   8.665
31396SOL    HW196085   7.377   9.967   8.651
31396SOL    HW296086   7.472  10.071   8.706
31397SOL     OW96087   8.386   8.899  12.039
31397SOL    HW196088   8.467   8.946  12.055
31397SOL    HW296089   8.395   8.863  11.950
31398SOL     OW96090  13.322   2.278  13.445
31398SOL    HW196091  13.275   2.352  13.484
31398SOL    HW296092  13.415   2.302  13.454
31399SOL     OW96093   2.181   0.640   0.120
31399SOL    HW196094   2.258   0.671   0.168
31399SOL    HW296095   2.107   0.662   0.178
31400SOL     OW96096   5.829   4.191   1.410
31400SOL    HW196097   5.855   4.145   1.331
31400SOL    HW296098   5.733   4.186   1.411
31401SOL     OW96099   8.311   3.721  14.779
31401SOL    HW196100   8.325   3.813  14.802
31401SOL    HW296101   8.269   3.723  14.693
31402SOL     OW96102  11.763   0.390   4.062
31402SOL    HW196103  11.810   0.321   4.015
31402SOL    HW296104  11.751   0.459   3.996
31403SOL     OW96105   7.307   4.147   2.058
31403SOL    HW196106   7.323   4.151   2.153
31403SOL    HW296107   7.393   4.132   2.020
31404SOL     OW96108  13.699  11.260   8.799
31404SOL    HW196109  13.629  11.323   8.783
31404SOL    HW296110  13.765  11.309   8.848
31405SOL     OW96111  14.435   7.361  13.529
31405SOL    HW196112  14.414   7.291  13.467
31405SOL    HW296113  14.518   7.396  13.499
31406SOL     OW96114   4.189   5.314   2.286
31406SOL    HW196115   4.197   5.317   2.381
31406SOL    HW296116   4.270   5.353   2.254
31407SOL     OW96117   6.433   4.923  12.086
31407SOL    HW196118   6.421   4.891  12.175
31407SOL    HW296119   6.365   4.991  12.076
31408SOL     OW96120   9.354   5.920   3.054
31408SOL    HW196121   9.294   5.962   3.116
31408SOL    HW296122   9.301   5.851   3.013
31409SOL     OW96123   1.125  11.115  10.276
31409SOL    HW196124   1.063  11.122  10.348
31409SOL    HW296125   1.172  11.198  10.277
31410SOL     OW96126  14.380   3.715  13.693
31410SOL    HW196127  14.354   3.723  13.601
31410SOL    HW296128  14.314   3.767  13.740
31411SOL     OW96129   2.134   3.114  10.965
31411SOL    HW196130   2.218   3.088  10.927
31411SOL    HW296131   2.157   3.163  11.044
31412SOL     OW96132   6.423  12.463  11.601
31412SOL    HW196133   6.503  12.411  11.600
31412SOL    HW296134   6.435  12.526  11.671
31413SOL     OW96135  11.287   1.321  13.997
31413SOL    HW196136  11.263   1.287  14.084
31413SOL    HW296137  11.203   1.332  13.952
31414SOL     OW96138  12.317   5.657   0.888
31414SOL    HW196139  12.229   5.686   0.911
31414SOL    HW296140  12.304   5.594   0.817
31415SOL     OW96141   5.205  10.141   0.558
31415SOL    HW196142   5.189  10.100   0.473
31415SOL    HW296143   5.129  10.117   0.611
31416SOL     OW96144  13.101   8.977   2.248
31416SOL    HW196145  13.054   9.037   2.306
31416SOL    HW296146  13.041   8.905   2.235
31417SOL     OW96147   8.762   0.176   7.242
31417SOL    HW196148   8.720   0.225   7.171
31417SOL    HW296149   8.854   0.173   7.217
31418SOL     OW96150   4.222   6.451  14.197
31418SOL    HW196151   4.173   6.484  14.121
31418SOL    HW296152   4.191   6.505  14.270
31419SOL     OW96153   4.117   7.870  10.010
31419SOL    HW196154   4.161   7.938   9.959
31419SOL    HW296155   4.026   7.898  10.014
31420SOL     OW96156   9.056  11.687   0.179
31420SOL    HW196157   8.962  11.674   0.172
31420SOL    HW296158   9.093  11.599   0.176
31421SOL     OW96159   4.072  13.780  10.495
31421SOL    HW196160   4.138  13.817  10.437
31421SOL    HW296161   4.122  13.734  10.563
31422SOL     OW96162   3.035   6.913   3.086
31422SOL    HW196163   3.073   6.868   3.161
31422SOL    HW296164   2.987   6.845   3.038
31423SOL     OW96165  14.298  10.761  10.151
31423SOL    HW196166  14.378  10.809  10.172
31423SOL    HW296167  14.262  10.737  10.237
31424SOL     OW96168   0.359   3.092   9.495
31424SOL    HW196169   0.274   3.055   9.469
31424SOL    HW296170   0.343   3.129   9.582
31425SOL     OW96171   4.065  10.108  10.727
31425SOL    HW196172   4.061  10.024  10.680
31425SOL    HW296173   4.131  10.094  10.795
31426SOL     OW96174  12.746   9.533   1.664
31426SOL    HW196175  12.697   9.575   1.734
31426SOL    HW296176  12.771   9.448   1.699
31427SOL     OW96177   1.347   0.859   8.929
31427SOL    HW196178   1.440   0.864   8.951
31427SOL    HW296179   1.302   0.903   9.001
31428SOL     OW96180   9.721   7.716   5.894
31428SOL    HW196181   9.816   7.714   5.888
31428SOL    HW296182   9.699   7.809   5.903
31429SOL     OW96183  10.808  10.782   8.919
31429SOL    HW196184  10.838  10.730   8.993
31429SOL    HW296185  10.752  10.849   8.958
31430SOL     OW96186  14.246   2.172   2.342
31430SOL    HW196187  14.208   2.258   2.326
31430SOL    HW296188  14.316   2.165   2.277
31431SOL     OW96189   0.519   9.653   1.502
31431SOL    HW196190   0.470   9.591   1.448
31431SOL    HW296191   0.519   9.734   1.452
31432SOL     OW96192   5.052   2.055   3.027
31432SOL    HW196193   4.973   2.001   3.032
31432SOL    HW296194   5.023   2.138   2.989
31433SOL     OW96195   8.954   7.944   5.191
31433SOL    HW196196   8.900   7.940   5.270
31433SOL    HW296197   9.039   7.909   5.218
31434SOL     OW96198  11.763  14.541   0.030
31434SOL    HW196199  11.732  14.480   0.097
31434SOL    HW296200  11.684  14.590   0.005
31435SOL     OW96201   9.094  11.743  11.798
31435SOL    HW196202   9.080  11.668  11.856
31435SOL    HW296203   9.051  11.718  11.716
31436SOL     OW96204   7.035   2.640  11.396
31436SOL    HW196205   7.117   2.611  11.355
31436SOL    HW296206   7.025   2.583  11.472
31437SOL     OW96207   4.582  10.935   1.997
31437SOL    HW196208   4.652  10.959   1.936
31437SOL    HW296209   4.628  10.896   2.071
31438SOL     OW96210  11.002  11.286   7.702
31438SOL    HW196211  10.941  11.216   7.678
31438SOL    HW296212  11.010  11.338   7.622
31439SOL     OW96213  12.856  11.162   0.915
31439SOL    HW196214  12.933  11.202   0.873
31439SOL    HW296215  12.844  11.211   0.995
31440SOL     OW96216  13.742   4.763   4.280
31440SOL    HW196217  13.774   4.823   4.348
31440SOL    HW296218  13.804   4.690   4.281
31441SOL     OW96219  13.571  10.073   5.320
31441SOL    HW196220  13.476  10.057   5.317
31441SOL    HW296221  13.607   9.994   5.362
31442SOL     OW96222  12.202   5.473   9.692
31442SOL    HW196223  12.127   5.493   9.748
31442SOL    HW296224  12.259   5.550   9.700
31443SOL     OW96225   7.373  10.317   8.522
31443SOL    HW196226   7.401  10.262   8.449
31443SOL    HW296227   7.438  10.388   8.524
31444SOL     OW96228   1.704  10.953   3.796
31444SOL    HW196229   1.732  10.875   3.748
31444SOL    HW296230   1.781  11.010   3.798
31445SOL     OW96231  11.464   3.008   3.939
31445SOL    HW196232  11.530   3.072   3.913
31445SOL    HW296233  11.460   2.946   3.867
31446SOL     OW96234   1.509   2.343   9.546
31446SOL    HW196235   1.590   2.366   9.590
31446SOL    HW296236   1.498   2.249   9.563
31447SOL     OW96237   7.339   8.420  11.674
31447SOL    HW196238   7.273   8.366  11.718
31447SOL    HW296239   7.312   8.510  11.691
31448SOL     OW96240   9.281   5.018  13.101
31448SOL    HW196241   9.244   4.962  13.033
31448SOL    HW296242   9.246   4.983  13.183
31449SOL     OW96243  11.811   1.319   8.960
31449SOL    HW196244  11.772   1.327   9.047
31449SOL    HW296245  11.803   1.406   8.922
31450SOL     OW96246  13.668   1.010   0.479
31450SOL    HW196247  13.675   0.915   0.471
31450SOL    HW296248  13.758   1.040   0.492
31451SOL     OW96249   9.914   7.722   1.033
31451SOL    HW196250   9.882   7.785   1.097
31451SOL    HW296251  10.009   7.734   1.033
31452SOL     OW96252   4.980   4.634   6.981
31452SOL    HW196253   4.989   4.614   7.074
31452SOL    HW296254   5.006   4.554   6.936
31453SOL     OW96255   5.094  12.023   3.741
31453SOL    HW196256   5.007  12.053   3.768
31453SOL    HW296257   5.140  12.103   3.715
31454SOL     OW96258  11.506  14.413   4.513
31454SOL    HW196259  11.598  14.424   4.489
31454SOL    HW296260  11.482  14.497   4.551
31455SOL     OW96261   9.739   6.669  13.083
31455SOL    HW196262   9.664   6.728  13.089
31455SOL    HW296263   9.794   6.707  13.014
31456SOL     OW96264   2.118   4.949  14.848
31456SOL    HW196265   2.165   4.934   0.060
31456SOL    HW296266   2.187   4.957  14.782
31457SOL     OW96267   5.811   2.380   9.866
31457SOL    HW196268   5.742   2.393   9.931
31457SOL    HW296269   5.840   2.468   9.843
31458SOL     OW96270   2.617   7.637  13.460
31458SOL    HW196271   2.541   7.664  13.409
31458SOL    HW296272   2.630   7.545  13.436
31459SOL     OW96273   8.852   5.525   1.859
31459SOL    HW196274   8.772   5.473   1.867
31459SOL    HW296275   8.892   5.496   1.778
31460SOL     OW96276  13.099   6.225   6.748
31460SOL    HW196277  13.081   6.309   6.705
31460SOL    HW296278  13.157   6.179   6.688
31461SOL     OW96279   6.228   4.904  12.931
31461SOL    HW196280   6.139   4.874  12.944
31461SOL    HW296281   6.220   4.976  12.867
31462SOL     OW96282   1.819   1.913   5.737
31462SOL    HW196283   1.878   1.855   5.689
31462SOL    HW296284   1.761   1.853   5.785
31463SOL     OW96285   3.025   8.318   7.023
31463SOL    HW196286   3.102   8.268   6.998
31463SOL    HW296287   2.973   8.323   6.943
31464SOL     OW96288  13.837  11.366  11.899
31464SOL    HW196289  13.782  11.295  11.930
31464SOL    HW296290  13.879  11.400  11.979
31465SOL     OW96291   4.631   6.880   9.550
31465SOL    HW196292   4.628   6.785   9.556
31465SOL    HW296293   4.596   6.900   9.464
31466SOL     OW96294  13.441   1.480   9.315
31466SOL    HW196295  13.467   1.463   9.406
31466SOL    HW296296  13.372   1.416   9.298
31467SOL     OW96297   6.115   3.282   9.465
31467SOL    HW196298   6.098   3.188   9.458
31467SOL    HW296299   6.137   3.294   9.558
31468SOL     OW96300  12.295  13.476  11.053
31468SOL    HW196301  12.335  13.562  11.067
31468SOL    HW296302  12.274  13.475  10.959
31469SOL     OW96303   1.401  11.190  14.351
31469SOL    HW196304   1.441  11.137  14.419
31469SOL    HW296305   1.466  11.257  14.331
31470SOL     OW96306   8.734  12.553   8.717
31470SOL    HW196307   8.724  12.640   8.679
31470SOL    HW296308   8.824  12.551   8.750
31471SOL     OW96309   8.986   5.252   4.572
31471SOL    HW196310   9.045   5.325   4.551
31471SOL    HW296311   8.965   5.265   4.664
31472SOL     OW96312   3.040   9.411   4.902
31472SOL    HW196313   3.019   9.412   4.995
31472SOL    HW296314   3.016   9.498   4.870
31473SOL     OW96315  14.748   7.104   4.882
31473SOL    HW196316  14.792   7.176   4.926
31473SOL    HW296317  14.725   7.043   4.952
31474SOL     OW96318  11.527   5.577  12.479
31474SOL    HW196319  11.447   5.547  12.522
31474SOL    HW296320  11.537   5.668  12.507
31475SOL     OW96321   2.718  13.701  12.069
31475SOL    HW196322   2.797  13.703  12.014
31475SOL    HW296323   2.676  13.785  12.053
31476SOL     OW96324  10.652   7.239   4.365
31476SOL    HW196325  10.679   7.320   4.322
31476SOL    HW296326  10.562   7.256   4.394
31477SOL     OW96327   0.326   3.866  12.008
31477SOL    HW196328   0.341   3.791  12.064
31477SOL    HW296329   0.306   3.938  12.068
31478SOL     OW96330   1.243  13.736  12.286
31478SOL    HW196331   1.252  13.796  12.212
31478SOL    HW296332   1.159  13.692  12.272
31479SOL     OW96333  10.795   6.319  12.325
31479SOL    HW196334  10.888   6.340  12.319
31479SOL    HW296335  10.761   6.330  12.237
31480SOL     OW96336   3.915   7.715  10.532
31480SOL    HW196337   3.853   7.735  10.462
31480SOL    HW296338   3.875   7.752  10.611
31481SOL     OW96339   2.374   6.554   9.987
31481SOL    HW196340   2.362   6.597   9.902
31481SOL    HW296341   2.468   6.562  10.004
31482SOL     OW96342  14.035  12.154  13.820
31482SOL    HW196343  14.091  12.077  13.825
31482SOL    HW296344  13.961  12.127  13.766
31483SOL     OW96345  14.476   3.208  11.360
31483SOL    HW196346  14.505   3.184  11.272
31483SOL    HW296347  14.419   3.284  11.346
31484SOL     OW96348   4.177  12.987   5.621
31484SOL    HW196349   4.094  12.939   5.631
31484SOL    HW296350   4.159  13.053   5.554
31485SOL     OW96351   7.178  12.581   3.615
31485SOL    HW196352   7.197  12.587   3.521
31485SOL    HW296353   7.096  12.533   3.619
31486SOL     OW96354   7.020   7.925   2.165
31486SOL    HW196355   6.964   7.995   2.199
31486SOL    HW296356   7.103   7.935   2.212
31487SOL     OW96357  14.506   1.061   8.906
31487SOL    HW196358  14.581   1.095   8.856
31487SOL    HW296359  14.432   1.071   8.846
31488SOL     OW96360  10.262   8.397  10.481
31488SOL    HW196361  10.221   8.333  10.424
31488SOL    HW296362  10.290   8.348  10.558
31489SOL     OW96363   0.939   8.774   2.737
31489SOL    HW196364   0.931   8.870   2.740
31489SOL    HW296365   0.859   8.745   2.692
31490SOL     OW96366   1.176   6.804   8.669
31490SOL    HW196367   1.137   6.758   8.744
31490SOL    HW296368   1.261   6.834   8.701
31491SOL     OW96369   0.219   5.532   9.227
31491SOL    HW196370   0.261   5.510   9.144
31491SOL    HW296371   0.248   5.464   9.288
31492SOL     OW96372   4.174   9.396   6.798
31492SOL    HW196373   4.238   9.354   6.855
31492SOL    HW296374   4.111   9.437   6.857
31493SOL     OW96375  10.380   4.163   9.226
31493SOL    HW196376  10.380   4.175   9.131
31493SOL    HW296377  10.469   4.136   9.247
31494SOL     OW96378  14.359   2.315   7.626
31494SOL    HW196379  14.421   2.298   7.555
31494SOL    HW296380  14.408   2.295   7.706
31495SOL     OW96381  13.525   2.776   9.812
31495SOL    HW196382  13.453   2.837   9.798
31495SOL    HW296383  13.557   2.755   9.724
31496SOL     OW96384   7.644   2.037   9.342
31496SOL    HW196385   7.607   1.967   9.288
31496SOL    HW296386   7.687   1.991   9.414
31497SOL     OW96387  10.810   3.825   1.886
31497SOL    HW196388  10.860   3.832   1.805
31497SOL    HW296389  10.845   3.894   1.943
31498SOL     OW96390   2.048   9.122  14.246
31498SOL    HW196391   2.097   9.133  14.328
31498SOL    HW296392   2.061   9.031  14.223
31499SOL     OW96393  13.130  10.558  14.339
31499SOL    HW196394  13.211  10.601  14.366
31499SOL    HW296395  13.083  10.542  14.421
31500SOL     OW96396  12.412   9.974   4.099
31500SOL    HW196397  12.317   9.964   4.104
31500SOL    HW296398  12.446   9.887   4.122
31501SOL     OW96399   0.502  10.384   3.034
31501SOL    HW196400   0.586  10.412   3.069
31501SOL    HW296401   0.523  10.312   2.974
31502SOL     OW96402   1.064   3.637  13.223
31502SOL    HW196403   1.152   3.633  13.185
31502SOL    HW296404   1.027   3.719  13.192
31503SOL     OW96405  11.635   4.309   4.192
31503SOL    HW196406  11.579   4.358   4.132
31503SOL    HW296407  11.713   4.363   4.202
31504SOL     OW96408  10.434   1.692   2.959
31504SOL    HW196409  10.419   1.664   3.049
31504SOL    HW296410  10.523   1.661   2.939
31505SOL     OW96411  10.382  11.075  12.472
31505SOL    HW196412  10.452  11.141  12.474
31505SOL    HW296413  10.337  11.091  12.389
31506SOL     OW96414  11.759  12.841   5.340
31506SOL    HW196415  11.705  12.901   5.289
31506SOL    HW296416  11.740  12.754   5.304
31507SOL     OW96417  12.734  11.876   8.915
31507SOL    HW196418  12.682  11.844   8.841
31507SOL    HW296419  12.814  11.823   8.913
31508SOL     OW96420   9.883   4.388   9.103
31508SOL    HW196421   9.835   4.422   9.028
31508SOL    HW296422   9.875   4.293   9.096
31509SOL     OW96423   3.603  14.578   5.299
31509SOL    HW196424   3.556  14.496   5.283
31509SOL    HW296425   3.557  14.618   5.372
31510SOL     OW96426   6.007  12.261  12.262
31510SOL    HW196427   5.965  12.347  12.265
31510SOL    HW296428   5.935  12.199  12.258
31511SOL     OW96429   1.294   0.511  11.136
31511SOL    HW196430   1.241   0.522  11.057
31511SOL    HW296431   1.231   0.490  11.204
31512SOL     OW96432   1.526   0.815   7.081
31512SOL    HW196433   1.577   0.875   7.026
31512SOL    HW296434   1.530   0.731   7.035
31513SOL     OW96435  12.947   4.808   7.889
31513SOL    HW196436  12.883   4.741   7.913
31513SOL    HW296437  13.022   4.759   7.855
31514SOL     OW96438   7.311   8.050  14.709
31514SOL    HW196439   7.320   8.131  14.760
31514SOL    HW296440   7.238   8.003  14.750
31515SOL     OW96441  11.349   2.259  10.404
31515SOL    HW196442  11.355   2.190  10.470
31515SOL    HW296443  11.290   2.225  10.338
31516SOL     OW96444  12.357  10.744  13.056
31516SOL    HW196445  12.262  10.734  13.058
31516SOL    HW296446  12.378  10.764  12.965
31517SOL     OW96447  10.178   3.602  11.636
31517SOL    HW196448  10.160   3.677  11.692
31517SOL    HW296449  10.149   3.629  11.549
31518SOL     OW96450   9.217   8.206   4.951
31518SOL    HW196451   9.274   8.160   4.890
31518SOL    HW296452   9.276   8.246   5.015
31519SOL     OW96453  11.757   5.686   7.565
31519SOL    HW196454  11.778   5.775   7.539
31519SOL    HW296455  11.829   5.633   7.530
31520SOL     OW96456   6.195   6.914  12.887
31520SOL    HW196457   6.188   6.884  12.796
31520SOL    HW296458   6.224   6.836  12.935
31521SOL     OW96459   7.747  14.001   4.230
31521SOL    HW196460   7.781  14.073   4.176
31521SOL    HW296461   7.823  13.947   4.249
31522SOL     OW96462  12.074   6.157  14.330
31522SOL    HW196463  11.987   6.121  14.312
31522SOL    HW296464  12.126   6.132  14.254
31523SOL     OW96465  12.438   6.817  10.291
31523SOL    HW196466  12.506   6.801  10.356
31523SOL    HW296467  12.459   6.758  10.219
31524SOL     OW96468  13.352   2.043   6.555
31524SOL    HW196469  13.302   2.010   6.630
31524SOL    HW296470  13.376   1.964   6.506
31525SOL     OW96471  14.232   7.920   0.759
31525SOL    HW196472  14.221   7.834   0.798
31525SOL    HW296473  14.193   7.913   0.672
31526SOL     OW96474   8.388  13.953  13.705
31526SOL    HW196475   8.404  13.893  13.779
31526SOL    HW296476   8.428  13.909  13.630
31527SOL     OW96477  10.984   8.038  14.393
31527SOL    HW196478  11.050   8.056  14.460
31527SOL    HW296479  10.924   7.975  14.434
31528SOL     OW96480  11.239  13.588   0.504
31528SOL    HW196481  11.201  13.514   0.457
31528SOL    HW296482  11.170  13.654   0.507
31529SOL     OW96483   3.323   6.817  12.926
31529SOL    HW196484   3.378   6.878  12.975
31529SOL    HW296485   3.260   6.872  12.880
31530SOL     OW96486  12.248   8.249   8.363
31530SOL    HW196487  12.213   8.304   8.292
31530SOL    HW296488  12.206   8.164   8.349
31531SOL     OW96489   7.988  10.075   0.665
31531SOL    HW196490   7.926  10.143   0.639
31531SOL    HW296491   8.032  10.111   0.742
31532SOL     OW96492   9.708   2.475   5.661
31532SOL    HW196493   9.663   2.403   5.706
31532SOL    HW296494   9.667   2.554   5.695
31533SOL     OW96495   7.241   6.229   7.125
31533SOL    HW196496   7.149   6.243   7.106
31533SOL    HW296497   7.287   6.254   7.045
31534SOL     OW96498  14.283   4.162   7.692
31534SOL    HW196499  14.214   4.197   7.748
31534SOL    HW296500  14.268   4.203   7.607
31535SOL     OW96501   3.613   3.171   7.312
31535SOL    HW196502   3.539   3.231   7.316
31535SOL    HW296503   3.687   3.221   7.346
31536SOL     OW96504  11.833   5.351  11.513
31536SOL    HW196505  11.790   5.283  11.564
31536SOL    HW296506  11.797   5.342  11.425
31537SOL     OW96507   5.060   2.075  11.814
31537SOL    HW196508   4.981   2.022  11.823
31537SOL    HW296509   5.027   2.163  11.796
31538SOL     OW96510   3.950   8.385  10.871
31538SOL    HW196511   3.864   8.406  10.906
31538SOL    HW296512   3.973   8.460  10.816
31539SOL     OW96513  13.914   0.421  11.563
31539SOL    HW196514  13.905   0.389  11.652
31539SOL    HW296515  13.826   0.449  11.538
31540SOL     OW96516  12.071  11.708   5.246
31540SOL    HW196517  12.011  11.746   5.310
31540SOL    HW296518  12.068  11.614   5.263
31541SOL     OW96519   9.623  12.664   6.432
31541SOL    HW196520   9.666  12.611   6.365
31541SOL    HW296521   9.658  12.752   6.420
31542SOL     OW96522   8.785  13.893   9.379
31542SOL    HW196523   8.860  13.904   9.438
31542SOL    HW296524   8.710  13.927   9.428
31543SOL     OW96525  14.389   5.418   1.838
31543SOL    HW196526  14.301   5.440   1.808
31543SOL    HW296527  14.446   5.480   1.792
31544SOL     OW96528   4.594  13.687   7.822
31544SOL    HW196529   4.513  13.636   7.820
31544SOL    HW296530   4.645  13.648   7.893
31545SOL     OW96531   6.494  12.361  14.410
31545SOL    HW196532   6.583  12.339  14.386
31545SOL    HW296533   6.449  12.375  14.327
31546SOL     OW96534   1.439  10.868   1.202
31546SOL    HW196535   1.445  10.864   1.107
31546SOL    HW296536   1.486  10.949   1.226
31547SOL     OW96537   0.597   6.827   6.116
31547SOL    HW196538   0.520   6.799   6.066
31547SOL    HW296539   0.564   6.896   6.173
31548SOL     OW96540   0.585   5.940   6.820
31548SOL    HW196541   0.554   5.913   6.734
31548SOL    HW296542   0.588   6.035   6.816
31549SOL     OW96543  14.296  10.440   8.220
31549SOL    HW196544  14.344  10.505   8.169
31549SOL    HW296545  14.238  10.398   8.155
31550SOL     OW96546   7.102   4.624   8.381
31550SOL    HW196547   7.096   4.690   8.450
31550SOL    HW296548   7.187   4.582   8.395
31551SOL     OW96549  11.156  10.889   5.997
31551SOL    HW196550  11.089  10.953   5.972
31551SOL    HW296551  11.184  10.849   5.915
31552SOL     OW96552  12.063   2.730   3.987
31552SOL    HW196553  11.972   2.701   3.987
31552SOL    HW296554  12.062   2.813   3.940
31553SOL     OW96555   0.671   8.254   2.417
31553SOL    HW196556   0.690   8.333   2.366
31553SOL    HW296557   0.679   8.281   2.508
31554SOL     OW96558   5.831   2.699   5.206
31554SOL    HW196559   5.881   2.779   5.219
31554SOL    HW296560   5.896   2.633   5.182
31555SOL     OW96561   5.954  12.124   1.128
31555SOL    HW196562   5.864  12.141   1.102
31555SOL    HW296563   6.007  12.181   1.072
31556SOL     OW96564   6.334  12.184   2.290
31556SOL    HW196565   6.386  12.243   2.236
31556SOL    HW296566   6.364  12.096   2.266
31557SOL     OW96567   7.506   2.900   1.940
31557SOL    HW196568   7.453   2.972   1.906
31557SOL    HW296569   7.594   2.919   1.909
31558SOL     OW96570   6.908   6.104   1.399
31558SOL    HW196571   6.902   6.053   1.480
31558SOL    HW296572   7.001   6.107   1.379
31559SOL     OW96573  13.866   0.343  10.993
31559SOL    HW196574  13.821   0.280  10.937
31559SOL    HW296575  13.833   0.326  11.081
31560SOL     OW96576  11.383  10.747  12.787
31560SOL    HW196577  11.451  10.685  12.759
31560SOL    HW296578  11.379  10.811  12.716
31561SOL     OW96579   4.369   8.060   0.937
31561SOL    HW196580   4.339   8.147   0.913
31561SOL    HW296581   4.307   8.000   0.895
31562SOL     OW96582   2.643  14.473  12.849
31562SOL    HW196583   2.665  14.465  12.941
31562SOL    HW296584   2.707  14.535  12.814
31563SOL     OW96585  12.404  14.708   2.530
31563SOL    HW196586  12.367  14.730   2.615
31563SOL    HW296587  12.337  14.654   2.488
31564SOL     OW96588   3.468   6.541  12.718
31564SOL    HW196589   3.382   6.572  12.747
31564SOL    HW296590   3.451   6.455  12.679
31565SOL     OW96591   3.918  14.574   8.305
31565SOL    HW196592   3.977  14.500   8.323
31565SOL    HW296593   3.930  14.591   8.212
31566SOL     OW96594  10.933   8.704   9.827
31566SOL    HW196595  10.876   8.688   9.902
31566SOL    HW296596  10.902   8.786   9.790
31567SOL     OW96597   1.314   6.833   9.091
31567SOL    HW196598   1.347   6.881   9.167
31567SOL    HW296599   1.388   6.828   9.031
31568SOL     OW96600   6.406  13.203   0.506
31568SOL    HW196601   6.461  13.274   0.542
31568SOL    HW296602   6.404  13.221   0.411
31569SOL     OW96603  13.457  10.492   1.837
31569SOL    HW196604  13.423  10.403   1.836
31569SOL    HW296605  13.412  10.535   1.910
31570SOL     OW96606  14.456   7.676   2.896
31570SOL    HW196607  14.440   7.593   2.852
31570SOL    HW296608  14.379   7.690   2.951
31571SOL     OW96609   4.662   5.497   7.682
31571SOL    HW196610   4.647   5.451   7.764
31571SOL    HW296611   4.687   5.586   7.709
31572SOL     OW96612  11.090   8.067   9.149
31572SOL    HW196613  11.005   8.102   9.174
31572SOL    HW296614  11.150   8.097   9.217
31573SOL     OW96615   6.148  11.436   0.167
31573SOL    HW196616   6.106  11.491   0.233
31573SOL    HW296617   6.077  11.412   0.107
31574SOL     OW96618   5.957   5.503   3.404
31574SOL    HW196619   6.003   5.560   3.465
31574SOL    HW296620   5.894   5.560   3.360
31575SOL     OW96621  10.482   9.591   0.402
31575SOL    HW196622  10.390   9.569   0.412
31575SOL    HW296623  10.521   9.513   0.362
31576SOL     OW96624   6.778  12.647  12.379
31576SOL    HW196625   6.698  12.623  12.331
31576SOL    HW296626   6.768  12.606  12.465
31577SOL     OW96627  10.319   4.003  11.771
31577SOL    HW196628  10.403   4.016  11.814
31577SOL    HW296629  10.334   4.031  11.680
31578SOL     OW96630   3.319   8.799   4.499
31578SOL    HW196631   3.297   8.857   4.572
31578SOL    HW296632   3.370   8.729   4.539
31579SOL     OW96633   0.455  12.119   1.870
31579SOL    HW196634   0.381  12.060   1.879
31579SOL    HW296635   0.514  12.074   1.809
31580SOL     OW96636  14.324   7.896  11.060
31580SOL    HW196637  14.412   7.898  11.099
31580SOL    HW296638  14.270   7.852  11.126
31581SOL     OW96639   0.031   5.354  11.541
31581SOL    HW196640   0.089   5.421  11.577
31581SOL    HW296641   0.068   5.272  11.572
31582SOL     OW96642   4.161  11.770   5.186
31582SOL    HW196643   4.184  11.708   5.116
31582SOL    HW296644   4.079  11.810   5.155
31583SOL     OW96645   9.776   2.411   6.657
31583SOL    HW196646   9.862   2.398   6.618
31583SOL    HW296647   9.775   2.504   6.682
31584SOL     OW96648   2.997   6.589   9.592
31584SOL    HW196649   2.988   6.677   9.554
31584SOL    HW296650   2.907   6.560   9.607
31585SOL     OW96651   8.457   6.285   0.163
31585SOL    HW196652   8.494   6.205   0.200
31585SOL    HW296653   8.442   6.265   0.071
31586SOL     OW96654  13.894  12.399  13.050
31586SOL    HW196655  13.827  12.444  12.998
31586SOL    HW296656  13.961  12.374  12.986
31587SOL     OW96657  10.353   8.972  11.744
31587SOL    HW196658  10.423   8.980  11.808
31587SOL    HW296659  10.286   9.034  11.773
31588SOL     OW96660  11.040   6.007   5.543
31588SOL    HW196661  11.100   5.953   5.492
31588SOL    HW296662  11.086   6.090   5.554
31589SOL     OW96663  12.444   1.056  13.800
31589SOL    HW196664  12.435   1.138  13.849
31589SOL    HW296665  12.354   1.036  13.771
31590SOL     OW96666  10.286  12.048   6.874
31590SOL    HW196667  10.375  12.048   6.839
31590SOL    HW296668  10.284  11.975   6.936
31591SOL     OW96669  14.134   5.896   1.782
31591SOL    HW196670  14.220   5.876   1.818
31591SOL    HW296671  14.082   5.924   1.857
31592SOL     OW96672  13.559  13.526   9.244
31592SOL    HW196673  13.634  13.547   9.300
31592SOL    HW296674  13.596  13.521   9.156
31593SOL     OW96675  13.765  12.511   8.630
31593SOL    HW196676  13.835  12.558   8.676
31593SOL    HW296677  13.714  12.470   8.699
31594SOL     OW96678  10.328   2.578   7.561
31594SOL    HW196679  10.245   2.625   7.556
31594SOL    HW296680  10.365   2.604   7.645
31595SOL     OW96681  11.420  10.675  12.082
31595SOL    HW196682  11.372  10.667  11.999
31595SOL    HW296683  11.384  10.754  12.122
31596SOL     OW96684  11.056   1.707   8.061
31596SOL    HW196685  11.077   1.787   8.013
31596SOL    HW296686  11.013   1.736   8.141
31597SOL     OW96687   3.449   8.622   2.636
31597SOL    HW196688   3.382   8.564   2.672
31597SOL    HW296689   3.470   8.585   2.550
31598SOL     OW96690  11.573  14.197  11.957
31598SOL    HW196691  11.585  14.117  11.907
31598SOL    HW296692  11.611  14.177  12.043
31599SOL     OW96693  14.409   0.126  12.192
31599SOL    HW196694  14.376   0.208  12.230
31599SOL    HW296695  14.333   0.068  12.191
31600SOL     OW96696   0.986   6.056   2.344
31600SOL    HW196697   0.939   6.137   2.363
31600SOL    HW296698   1.027   6.070   2.259
31601SOL     OW96699   0.972   1.948   1.710
31601SOL    HW196700   1.059   1.956   1.671
31601SOL    HW296701   0.983   1.887   1.783
31602SOL     OW96702   8.388  14.476   2.033
31602SOL    HW196703   8.377  14.565   2.066
31602SOL    HW296704   8.481  14.457   2.046
31603SOL     OW96705   4.115  11.993   2.440
31603SOL    HW196706   4.182  12.061   2.434
31603SOL    HW296707   4.123  11.959   2.529
31604SOL     OW96708   2.363   4.630   6.618
31604SOL    HW196709   2.326   4.635   6.530
31604SOL    HW296710   2.345   4.541   6.647
31605SOL     OW96711  10.915   8.926   5.134
31605SOL    HW196712  10.874   9.013   5.133
31605SOL    HW296713  10.981   8.931   5.202
31606SOL     OW96714   0.557   8.272  10.184
31606SOL    HW196715   0.627   8.227  10.230
31606SOL    HW296716   0.569   8.365  10.206
31607SOL     OW96717  11.907  10.233   2.458
31607SOL    HW196718  11.968  10.274   2.519
31607SOL    HW296719  11.957  10.163   2.418
31608SOL     OW96720   3.574   0.077   7.223
31608SOL    HW196721   3.514   0.003   7.236
31608SOL    HW296722   3.517   0.154   7.220
31609SOL     OW96723   2.334   4.404   0.877
31609SOL    HW196724   2.247   4.399   0.836
31609SOL    HW296725   2.339   4.326   0.932
31610SOL     OW96726   1.659   0.654  11.578
31610SOL    HW196727   1.669   0.559  11.576
31610SOL    HW296728   1.603   0.671  11.653
31611SOL     OW96729   5.427   4.579  12.752
31611SOL    HW196730   5.466   4.651  12.803
31611SOL    HW296731   5.351   4.552  12.803
31612SOL     OW96732  11.644  14.317   6.256
31612SOL    HW196733  11.558  14.335   6.220
31612SOL    HW296734  11.670  14.397   6.301
31613SOL     OW96735   7.480  13.730   3.972
31613SOL    HW196736   7.392  13.718   4.008
31613SOL    HW296737   7.493  13.825   3.970
31614SOL     OW96738  13.196   7.380   3.395
31614SOL    HW196739  13.118   7.430   3.370
31614SOL    HW296740  13.161   7.304   3.442
31615SOL     OW96741   2.339   0.487   6.163
31615SOL    HW196742   2.370   0.568   6.203
31615SOL    HW296743   2.332   0.508   6.070
31616SOL     OW96744  10.965   7.801   8.170
31616SOL    HW196745  11.000   7.875   8.121
31616SOL    HW296746  10.940   7.737   8.104
31617SOL     OW96747  12.783   4.579  10.281
31617SOL    HW196748  12.723   4.623  10.341
31617SOL    HW296749  12.837   4.649  10.244
31618SOL     OW96750   5.564  12.662   8.241
31618SOL    HW196751   5.563  12.629   8.331
31618SOL    HW296752   5.495  12.613   8.197
31619SOL     OW96753   4.819  13.844   7.768
31619SOL    HW196754   4.746  13.791   7.800
31619SOL    HW296755   4.832  13.911   7.836
31620SOL     OW96756   2.411  12.778   6.227
31620SOL    HW196757   2.321  12.746   6.228
31620SOL    HW296758   2.445  12.758   6.314
31621SOL     OW96759  10.246  10.537   7.077
31621SOL    HW196760  10.335  10.574   7.076
31621SOL    HW296761  10.196  10.598   7.131
31622SOL     OW96762   7.677  13.695  10.022
31622SOL    HW196763   7.762  13.729   9.994
31622SOL    HW296764   7.690  13.601  10.029
31623SOL     OW96765   7.243   3.466  12.608
31623SOL    HW196766   7.238   3.560  12.589
31623SOL    HW296767   7.281   3.462  12.696
31624SOL     OW96768   0.469   3.316   3.302
31624SOL    HW196769   0.463   3.270   3.219
31624SOL    HW296770   0.549   3.283   3.342
31625SOL     OW96771   6.046   4.068   8.085
31625SOL    HW196772   6.079   3.990   8.128
31625SOL    HW296773   6.000   4.116   8.154
31626SOL     OW96774   2.227   8.057   7.510
31626SOL    HW196775   2.243   8.150   7.522
31626SOL    HW296776   2.283   8.033   7.436
31627SOL     OW96777   8.009  13.919   0.484
31627SOL    HW196778   8.045  13.842   0.440
31627SOL    HW296779   8.052  13.993   0.442
31628SOL     OW96780   1.335   7.609  10.452
31628SOL    HW196781   1.253   7.658  10.454
31628SOL    HW296782   1.352   7.585  10.543
31629SOL     OW96783  12.194   0.160   2.679
31629SOL    HW196784  12.257   0.231   2.693
31629SOL    HW296785  12.109   0.204   2.675
31630SOL     OW96786   1.689   3.351   8.983
31630SOL    HW196787   1.747   3.339   8.907
31630SOL    HW296788   1.607   3.308   8.957
31631SOL     OW96789   5.329  13.096   6.557
31631SOL    HW196790   5.355  13.004   6.549
31631SOL    HW296791   5.234  13.095   6.553
31632SOL     OW96792   2.785   5.129  11.076
31632SOL    HW196793   2.726   5.129  11.152
31632SOL    HW296794   2.845   5.056  11.092
31633SOL     OW96795   4.011   0.506   1.607
31633SOL    HW196796   4.040   0.521   1.697
31633SOL    HW296797   3.950   0.578   1.589
31634SOL     OW96798   6.442   8.489   2.708
31634SOL    HW196799   6.374   8.453   2.765
31634SOL    HW296800   6.444   8.582   2.730
31635SOL     OW96801   4.933  10.020   1.061
31635SOL    HW196802   4.866   9.959   1.090
31635SOL    HW296803   4.996  10.024   1.133
31636SOL     OW96804  11.626   1.831   4.085
31636SOL    HW196805  11.686   1.904   4.076
31636SOL    HW296806  11.677   1.762   4.126
31637SOL     OW96807   0.673  11.381   9.115
31637SOL    HW196808   0.621  11.381   9.034
31637SOL    HW296809   0.760  11.407   9.087
31638SOL     OW96810   0.571  11.150  13.800
31638SOL    HW196811   0.497  11.139  13.860
31638SOL    HW296812   0.637  11.089  13.832
31639SOL     OW96813   9.420   6.484   8.963
31639SOL    HW196814   9.347   6.474   9.023
31639SOL    HW296815   9.475   6.407   8.978
31640SOL     OW96816  10.416  11.689   1.446
31640SOL    HW196817  10.472  11.613   1.463
31640SOL    HW296818  10.340  11.677   1.502
31641SOL     OW96819  13.500   4.430   9.538
31641SOL    HW196820  13.447   4.399   9.464
31641SOL    HW296821  13.436   4.460   9.602
31642SOL     OW96822   8.643   3.135   9.299
31642SOL    HW196823   8.665   3.219   9.259
31642SOL    HW296824   8.726   3.087   9.302
31643SOL     OW96825   6.583   8.932   3.151
31643SOL    HW196826   6.671   8.899   3.167
31643SOL    HW296827   6.554   8.884   3.073
31644SOL     OW96828  11.486   2.180   4.706
31644SOL    HW196829  11.396   2.157   4.730
31644SOL    HW296830  11.495   2.148   4.616
31645SOL     OW96831   6.054   9.810   4.005
31645SOL    HW196832   6.100   9.886   4.043
31645SOL    HW296833   6.122   9.743   3.997
31646SOL     OW96834   7.627   8.356   5.273
31646SOL    HW196835   7.681   8.363   5.194
31646SOL    HW296836   7.546   8.315   5.243
31647SOL     OW96837   0.384   8.781   0.798
31647SOL    HW196838   0.376   8.695   0.757
31647SOL    HW296839   0.431   8.835   0.735
31648SOL     OW96840   6.141   3.602  10.077
31648SOL    HW196841   6.059   3.647  10.099
31648SOL    HW296842   6.196   3.613  10.155
31649SOL     OW96843   5.536   3.291   3.412
31649SOL    HW196844   5.630   3.275   3.424
31649SOL    HW296845   5.505   3.318   3.499
31650SOL     OW96846  12.602   8.510   8.457
31650SOL    HW196847  12.565   8.598   8.451
31650SOL    HW296848  12.696   8.523   8.449
31651SOL     OW96849   6.265   9.044  14.374
31651SOL    HW196850   6.209   9.112  14.411
31651SOL    HW296851   6.284   9.074  14.285
31652SOL     OW96852   2.038   7.605   4.702
31652SOL    HW196853   2.077   7.619   4.616
31652SOL    HW296854   1.958   7.556   4.684
31653SOL     OW96855   1.712   4.694  11.839
31653SOL    HW196856   1.697   4.788  11.829
31653SOL    HW296857   1.663   4.653  11.768
31654SOL     OW96858   9.157   7.909   3.216
31654SOL    HW196859   9.158   8.004   3.205
31654SOL    HW296860   9.137   7.895   3.308
31655SOL     OW96861   7.509   8.097   5.612
31655SOL    HW196862   7.511   8.119   5.519
31655SOL    HW296863   7.580   8.034   5.624
31656SOL     OW96864   4.004   3.854   8.703
31656SOL    HW196865   4.001   3.926   8.766
31656SOL    HW296866   3.995   3.775   8.756
31657SOL     OW96867  12.546   6.517  12.441
31657SOL    HW196868  12.515   6.603  12.415
31657SOL    HW296869  12.509   6.457  12.376
31658SOL     OW96870   9.540   0.512   0.277
31658SOL    HW196871   9.597   0.535   0.204
31658SOL    HW296872   9.593   0.529   0.355
31659SOL     OW96873   7.417   2.104   9.484
31659SOL    HW196874   7.394   2.012   9.475
31659SOL    HW296875   7.502   2.112   9.440
31660SOL     OW96876  10.565   1.072   6.645
31660SOL    HW196877  10.527   1.057   6.731
31660SOL    HW296878  10.635   1.136   6.660
31661SOL     OW96879  12.263   2.557  12.799
31661SOL    HW196880  12.225   2.641  12.774
31661SOL    HW296881  12.226   2.494  12.736
31662SOL     OW96882  10.976   5.058  11.127
31662SOL    HW196883  10.885   5.036  11.106
31662SOL    HW296884  10.969   5.132  11.188
31663SOL     OW96885   6.380   0.491   4.218
31663SOL    HW196886   6.323   0.415   4.226
31663SOL    HW296887   6.450   0.462   4.159
31664SOL     OW96888  12.551  10.620   7.939
31664SOL    HW196889  12.603  10.539   7.945
31664SOL    HW296890  12.572  10.655   7.852
31665SOL     OW96891  11.233   7.078  10.117
31665SOL    HW196892  11.172   7.117  10.179
31665SOL    HW296893  11.312   7.060  10.168
31666SOL     OW96894  10.325   1.355   3.650
31666SOL    HW196895  10.334   1.320   3.738
31666SOL    HW296896  10.232   1.378   3.643
31667SOL     OW96897  14.731   8.289   8.851
31667SOL    HW196898  14.650   8.330   8.819
31667SOL    HW296899  14.704   8.242   8.930
31668SOL     OW96900  14.080   1.862  13.613
31668SOL    HW196901  14.164   1.894  13.646
31668SOL    HW296902  14.020   1.869  13.688
31669SOL     OW96903  13.510  13.254  11.001
31669SOL    HW196904  13.436  13.248  11.061
31669SOL    HW296905  13.586  13.228  11.054
31670SOL     OW96906  12.572  13.797   0.663
31670SOL    HW196907  12.600  13.851   0.737
31670SOL    HW296908  12.636  13.814   0.594
31671SOL     OW96909   8.774  14.083  12.709
31671SOL    HW196910   8.807  13.995  12.690
31671SOL    HW296911   8.690  14.087  12.664
31672SOL     OW96912  13.575  14.003   4.254
31672SOL    HW196913  13.547  14.015   4.345
31672SOL    HW296914  13.575  14.092   4.218
31673SOL     OW96915   6.140   8.397  11.695
31673SOL    HW196916   6.099   8.333  11.753
31673SOL    HW296917   6.066   8.441  11.653
31674SOL     OW96918  13.857   9.344   8.522
31674SOL    HW196919  13.770   9.331   8.559
31674SOL    HW296920  13.846   9.413   8.457
31675SOL     OW96921   3.471  11.850   1.115
31675SOL    HW196922   3.428  11.803   1.186
31675SOL    HW296923   3.564  11.846   1.136
31676SOL     OW96924   3.528   9.236   4.648
31676SOL    HW196925   3.473   9.253   4.572
31676SOL    HW296926   3.574   9.319   4.663
31677SOL     OW96927   4.845  14.489  13.199
31677SOL    HW196928   4.854  14.503  13.105
31677SOL    HW296929   4.775  14.424  13.207
31678SOL     OW96930  10.632   4.268   9.842
31678SOL    HW196931  10.604   4.320   9.767
31678SOL    HW296932  10.723   4.245   9.823
31679SOL     OW96933   1.265  13.851   8.547
31679SOL    HW196934   1.293  13.793   8.476
31679SOL    HW296935   1.281  13.939   8.514
31680SOL     OW96936   4.289  11.943  12.284
31680SOL    HW196937   4.277  12.004  12.357
31680SOL    HW296938   4.209  11.951  12.232
31681SOL     OW96939   6.302   3.182   9.278
31681SOL    HW196940   6.377   3.234   9.249
31681SOL    HW296941   6.256   3.238   9.341
31682SOL     OW96942   6.225  12.956   1.493
31682SOL    HW196943   6.139  12.997   1.478
31682SOL    HW296944   6.216  12.916   1.580
31683SOL     OW96945   7.163  11.023   6.750
31683SOL    HW196946   7.189  10.942   6.707
31683SOL    HW296947   7.242  11.076   6.753
31684SOL     OW96948   9.369   6.983   4.426
31684SOL    HW196949   9.329   6.955   4.508
31684SOL    HW296950   9.322   6.934   4.358
31685SOL     OW96951   3.449  11.882  13.520
31685SOL    HW196952   3.499  11.943  13.466
31685SOL    HW296953   3.419  11.933  13.595
31686SOL     OW96954   3.880   2.918  13.562
31686SOL    HW196955   3.845   3.003  13.533
31686SOL    HW296956   3.962   2.908  13.513
31687SOL     OW96957  10.570   8.894  10.063
31687SOL    HW196958  10.538   8.807  10.089
31687SOL    HW296959  10.507   8.925   9.999
31688SOL     OW96960  10.871  13.053   0.115
31688SOL    HW196961  10.870  13.014   0.202
31688SOL    HW296962  10.839  12.984   0.057
31689SOL     OW96963   3.062  10.135   7.416
31689SOL    HW196964   3.020  10.221   7.415
31689SOL    HW296965   3.060  10.106   7.324
31690SOL     OW96966  10.489  13.922  10.929
31690SOL    HW196967  10.524  14.008  10.909
31690SOL    HW296968  10.412  13.939  10.984
31691SOL     OW96969  11.998   6.493  11.414
31691SOL    HW196970  11.904   6.482  11.399
31691SOL    HW296971  12.039   6.430  11.356
31692SOL     OW96972  14.629  12.330   6.494
31692SOL    HW196973  14.596  12.265   6.431
31692SOL    HW296974  14.556  12.391   6.505
31693SOL     OW96975  12.883   5.420   8.979
31693SOL    HW196976  12.933   5.483   8.927
31693SOL    HW296977  12.796   5.459   8.986
31694SOL     OW96978   5.495   7.729   1.618
31694SOL    HW196979   5.406   7.745   1.649
31694SOL    HW296980   5.490   7.646   1.571
31695SOL     OW96981   8.167   7.109   2.038
31695SOL    HW196982   8.163   7.065   1.953
31695SOL    HW296983   8.097   7.174   2.034
31696SOL     OW96984   7.651   5.024  10.827
31696SOL    HW196985   7.711   5.048  10.898
31696SOL    HW296986   7.644   4.928  10.833
31697SOL     OW96987   5.359  14.776  13.527
31697SOL    HW196988   5.428  14.804  13.467
31697SOL    HW296989   5.405  14.752  13.607
31698SOL     OW96990   1.765   6.594   4.962
31698SOL    HW196991   1.695   6.566   4.903
31698SOL    HW296992   1.755   6.538   5.039
31699SOL     OW96993  10.768   4.606  13.881
31699SOL    HW196994  10.822   4.685  13.884
31699SOL    HW296995  10.749   4.586  13.973
31700SOL     OW96996   5.796  12.254  11.545
31700SOL    HW196997   5.734  12.186  11.571
31700SOL    HW296998   5.867  12.208  11.502
31701SOL     OW96999   5.404  10.752   0.394
31701SOL    HW197000   5.479  10.697   0.373
31701SOL    HW297001   5.365  10.774   0.309
31702SOL     OW97002   8.769  13.009  14.213
31702SOL    HW197003   8.861  13.017  14.238
31702SOL    HW297004   8.726  12.973  14.291
31703SOL     OW97005  10.646   4.368   4.089
31703SOL    HW197006  10.670   4.422   4.013
31703SOL    HW297007  10.730   4.337   4.123
31704SOL     OW97008   8.622   3.263   4.598
31704SOL    HW197009   8.570   3.197   4.552
31704SOL    HW297010   8.558   3.317   4.644
31705SOL     OW97011   4.551   1.061   1.558
31705SOL    HW197012   4.561   1.148   1.596
31705SOL    HW297013   4.460   1.058   1.529
31706SOL     OW97014   7.694  12.217   6.983
31706SOL    HW197015   7.717  12.124   6.978
31706SOL    HW297016   7.626  12.221   7.051
31707SOL     OW97017  14.552   6.776   4.458
31707SOL    HW197018  14.537   6.682   4.466
31707SOL    HW297019  14.523   6.798   4.369
31708SOL     OW97020   3.440  11.978  12.990
31708SOL    HW197021   3.432  11.903  13.049
31708SOL    HW297022   3.529  11.973  12.956
31709SOL     OW97023   0.716  14.383   6.404
31709SOL    HW197024   0.667  14.437   6.466
31709SOL    HW297025   0.671  14.395   6.320
31710SOL     OW97026  14.826  11.804   5.444
31710SOL    HW197027   0.025  11.777   5.506
31710SOL    HW297028  14.866  11.875   5.394
31711SOL     OW97029  14.097   3.994  13.305
31711SOL    HW197030  14.189   4.013  13.285
31711SOL    HW297031  14.049   4.068  13.269
31712SOL     OW97032   8.919   9.081  13.238
31712SOL    HW197033   8.913   9.166  13.194
31712SOL    HW297034   9.007   9.050  13.218
31713SOL     OW97035  13.383   3.697  14.389
31713SOL    HW197036  13.398   3.606  14.362
31713SOL    HW297037  13.440   3.709  14.465
31714SOL     OW97038   3.577   1.597   4.264
31714SOL    HW197039   3.590   1.572   4.173
31714SOL    HW297040   3.502   1.656   4.262
31715SOL     OW97041   5.012   2.493   5.927
31715SOL    HW197042   5.065   2.458   5.856
31715SOL    HW297043   5.074   2.534   5.986
31716SOL     OW97044  10.844  13.103   7.758
31716SOL    HW197045  10.863  13.192   7.729
31716SOL    HW297046  10.749  13.098   7.762
31717SOL     OW97047   7.818   3.471  12.290
31717SOL    HW197048   7.845   3.380  12.303
31717SOL    HW297049   7.736   3.479  12.338
31718SOL     OW97050   6.305   5.909   0.348
31718SOL    HW197051   6.395   5.897   0.320
31718SOL    HW297052   6.277   5.990   0.305
31719SOL     OW97053  13.092  11.998   6.059
31719SOL    HW197054  13.129  12.070   6.006
31719SOL    HW297055  13.156  11.986   6.129
31720SOL     OW97056   0.144   7.847   7.800
31720SOL    HW197057   0.131   7.928   7.850
31720SOL    HW297058   0.099   7.780   7.852
31721SOL     OW97059   4.606   2.979  14.309
31721SOL    HW197060   4.666   2.982  14.235
31721SOL    HW297061   4.646   2.918  14.370
31722SOL     OW97062   3.063  10.216  10.222
31722SOL    HW197063   3.049  10.126  10.192
31722SOL    HW297064   3.109  10.207  10.305
31723SOL     OW97065   9.400   6.984   9.962
31723SOL    HW197066   9.358   6.977   9.876
31723SOL    HW297067   9.475   7.041   9.948
31724SOL     OW97068   6.061   1.960   2.629
31724SOL    HW197069   6.032   1.895   2.565
31724SOL    HW297070   6.150   1.983   2.600
31725SOL     OW97071  14.051   3.757   3.919
31725SOL    HW197072  14.146   3.768   3.930
31725SOL    HW297073  14.036   3.776   3.826
31726SOL     OW97074   6.244  14.708   2.645
31726SOL    HW197075   6.265  14.657   2.724
31726SOL    HW297076   6.163  14.753   2.666
31727SOL     OW97077   0.100   1.586   9.397
31727SOL    HW197078   0.169   1.650   9.384
31727SOL    HW297079   0.019   1.635   9.384
31728SOL     OW97080   0.730   1.614  13.521
31728SOL    HW197081   0.792   1.638  13.452
31728SOL    HW297082   0.655   1.578  13.474
31729SOL     OW97083   2.817   7.074   7.598
31729SOL    HW197084   2.778   7.094   7.513
31729SOL    HW297085   2.864   6.992   7.585
31730SOL     OW97086   7.903  13.052  13.577
31730SOL    HW197087   7.896  12.965  13.615
31730SOL    HW297088   7.896  13.111  13.652
31731SOL     OW97089   2.154  12.614   5.064
31731SOL    HW197090   2.165  12.521   5.046
31731SOL    HW297091   2.226  12.636   5.123
31732SOL     OW97092   1.758   9.279   9.168
31732SOL    HW197093   1.775   9.373   9.174
31732SOL    HW297094   1.672   9.268   9.210
31733SOL     OW97095   1.933   1.349   5.764
31733SOL    HW197096   1.961   1.391   5.683
31733SOL    HW297097   1.839   1.335   5.754
31734SOL     OW97098  13.402  12.950   9.731
31734SOL    HW197099  13.476  12.908   9.687
31734SOL    HW297100  13.397  12.906   9.816
31735SOL     OW97101  10.089  10.240   9.565
31735SOL    HW197102  10.064  10.328   9.536
31735SOL    HW297103  10.025  10.219   9.633
31736SOL     OW97104   9.046   1.645   7.581
31736SOL    HW197105   9.081   1.630   7.494
31736SOL    HW297106   9.117   1.621   7.641
31737SOL     OW97107   9.571   3.201  13.166
31737SOL    HW197108   9.506   3.272  13.160
31737SOL    HW297109   9.650   3.244  13.196
31738SOL     OW97110   6.494  13.154   8.860
31738SOL    HW197111   6.498  13.201   8.777
31738SOL    HW297112   6.554  13.080   8.848
31739SOL     OW97113  13.558   3.456   6.642
31739SOL    HW197114  13.609   3.378   6.622
31739SOL    HW297115  13.472   3.423   6.668
31740SOL     OW97116   3.242   7.887  12.430
31740SOL    HW197117   3.287   7.809  12.463
31740SOL    HW297118   3.296   7.917  12.357
31741SOL     OW97119   0.351   6.298  12.371
31741SOL    HW197120   0.353   6.361  12.443
31741SOL    HW297121   0.258   6.290  12.349
31742SOL     OW97122   9.809   6.434  10.298
31742SOL    HW197123   9.809   6.369  10.227
31742SOL    HW297124   9.872   6.500  10.269
31743SOL     OW97125   8.941  10.637   0.806
31743SOL    HW197126   9.000  10.612   0.878
31743SOL    HW297127   8.888  10.559   0.791
31744SOL     OW97128   8.153   5.448   0.382
31744SOL    HW197129   8.207   5.435   0.459
31744SOL    HW297130   8.065   5.464   0.416
31745SOL     OW97131   2.936   5.748  10.826
31745SOL    HW197132   3.012   5.784  10.781
31745SOL    HW297133   2.969   5.670  10.871
31746SOL     OW97134  10.500  13.879   1.160
31746SOL    HW197135  10.591  13.887   1.188
31746SOL    HW297136  10.474  13.791   1.188
31747SOL     OW97137   7.242   3.753  11.587
31747SOL    HW197138   7.147   3.767  11.597
31747SOL    HW297139   7.253   3.658  11.592
31748SOL     OW97140   2.223   0.031  11.614
31748SOL    HW197141   2.255   0.110  11.571
31748SOL    HW297142   2.222   0.053  11.707
31749SOL     OW97143   1.828   9.558   8.815
31749SOL    HW197144   1.894   9.590   8.876
31749SOL    HW297145   1.827   9.463   8.827
31750SOL     OW97146  10.790   2.938  14.101
31750SOL    HW197147  10.786   3.032  14.119
31750SOL    HW297148  10.871   2.909  14.143
31751SOL     OW97149   5.654  12.789  13.278
31751SOL    HW197150   5.668  12.696  13.264
31751SOL    HW297151   5.647  12.826  13.190
31752SOL     OW97152   7.799   6.190   1.409
31752SOL    HW197153   7.841   6.119   1.359
31752SOL    HW297154   7.829   6.176   1.499
31753SOL     OW97155   1.029   7.365   8.753
31753SOL    HW197156   0.943   7.394   8.726
31753SOL    HW297157   1.078   7.446   8.770
31754SOL     OW97158  13.481   1.292  11.722
31754SOL    HW197159  13.510   1.277  11.812
31754SOL    HW297160  13.387   1.309  11.730
31755SOL     OW97161   4.703   8.536  10.168
31755SOL    HW197162   4.771   8.592  10.130
31755SOL    HW297163   4.674   8.582  10.247
31756SOL     OW97164   6.380  10.519   5.987
31756SOL    HW197165   6.454  10.568   6.023
31756SOL    HW297166   6.335  10.581   5.930
31757SOL     OW97167  14.473   8.202  12.771
31757SOL    HW197168  14.440   8.145  12.702
31757SOL    HW297169  14.396   8.227  12.821
31758SOL     OW97170   8.217  14.456   4.515
31758SOL    HW197171   8.231  14.481   4.423
31758SOL    HW297172   8.209  14.539   4.561
31759SOL     OW97173   5.815   3.979   6.667
31759SOL    HW197174   5.908   3.998   6.672
31759SOL    HW297175   5.809   3.884   6.680
31760SOL     OW97176  13.092   0.093   2.244
31760SOL    HW197177  13.042   0.020   2.209
31760SOL    HW297178  13.029   0.165   2.249
31761SOL     OW97179   3.363   8.516   3.951
31761SOL    HW197180   3.289   8.548   4.001
31761SOL    HW297181   3.416   8.467   4.014
31762SOL     OW97182   2.475   6.692  10.939
31762SOL    HW197183   2.567   6.666  10.927
31762SOL    HW297184   2.480   6.777  10.983
31763SOL     OW97185   3.535   1.701   8.140
31763SOL    HW197186   3.465   1.701   8.075
31763SOL    HW297187   3.527   1.786   8.184
31764SOL     OW97188   7.593   9.026  10.835
31764SOL    HW197189   7.655   9.097  10.853
31764SOL    HW297190   7.536   9.025  10.912
31765SOL     OW97191  10.067   1.332   6.080
31765SOL    HW197192  10.146   1.289   6.115
31765SOL    HW297193  10.007   1.260   6.062
31766SOL     OW97194   4.531   8.335   7.172
31766SOL    HW197195   4.622   8.340   7.200
31766SOL    HW297196   4.515   8.241   7.159
31767SOL     OW97197  13.967   4.815   0.208
31767SOL    HW197198  13.876   4.827   0.182
31767SOL    HW297199  13.963   4.756   0.283
31768SOL     OW97200   9.870   4.065  10.800
31768SOL    HW197201   9.928   4.073  10.875
31768SOL    HW297202   9.854   3.971  10.792
31769SOL     OW97203   2.617  14.845   3.066
31769SOL    HW197204   2.605  14.827   3.159
31769SOL    HW297205   2.556  14.786   3.022
31770SOL     OW97206   9.628   1.123   2.510
31770SOL    HW197207   9.580   1.053   2.467
31770SOL    HW297208   9.652   1.087   2.595
31771SOL     OW97209   9.944  10.722   8.733
31771SOL    HW197210   9.916  10.708   8.823
31771SOL    HW297211  10.014  10.787   8.739
31772SOL     OW97212  12.570  14.028   2.996
31772SOL    HW197213  12.577  14.118   3.027
31772SOL    HW297214  12.552  13.977   3.076
31773SOL     OW97215   8.334  12.138   0.802
31773SOL    HW197216   8.384  12.073   0.850
31773SOL    HW297217   8.306  12.201   0.868
31774SOL     OW97218   4.629  13.723   8.244
31774SOL    HW197219   4.597  13.805   8.282
31774SOL    HW297220   4.597  13.655   8.304
31775SOL     OW97221   8.813  12.968   6.027
31775SOL    HW197222   8.819  12.956   6.122
31775SOL    HW297223   8.829  12.881   5.991
31776SOL     OW97224  12.613   7.543   7.464
31776SOL    HW197225  12.578   7.562   7.377
31776SOL    HW297226  12.565   7.601   7.523
31777SOL     OW97227   3.783   2.635   1.969
31777SOL    HW197228   3.733   2.557   1.995
31777SOL    HW297229   3.849   2.601   1.908
31778SOL     OW97230   4.262   5.391  12.943
31778SOL    HW197231   4.212   5.472  12.951
31778SOL    HW297232   4.236   5.354  12.859
31779SOL     OW97233   8.941  13.420   6.600
31779SOL    HW197234   8.846  13.418   6.593
31779SOL    HW297235   8.972  13.447   6.514
31780SOL     OW97236   3.786  14.566   8.625
31780SOL    HW197237   3.767  14.478   8.593
31780SOL    HW297238   3.771  14.561   8.720
31781SOL     OW97239   7.119  12.681  11.122
31781SOL    HW197240   7.083  12.594  11.106
31781SOL    HW297241   7.078  12.736  11.055
31782SOL     OW97242   1.655  10.579   4.051
31782SOL    HW197243   1.632  10.666   4.017
31782SOL    HW297244   1.688  10.596   4.139
31783SOL     OW97245  10.149   0.443   8.695
31783SOL    HW197246  10.084   0.385   8.656
31783SOL    HW297247  10.101   0.490   8.763
31784SOL     OW97248  13.955  12.768   0.382
31784SOL    HW197249  14.022  12.830   0.355
31784SOL    HW297250  13.948  12.780   0.477
31785SOL     OW97251  11.480  10.762   1.005
31785SOL    HW197252  11.574  10.752   0.990
31785SOL    HW297253  11.473  10.783   1.098
31786SOL     OW97254  14.730   5.192  14.737
31786SOL    HW197255  14.797   5.125  14.749
31786SOL    HW297256  14.757   5.263  14.795
31787SOL     OW97257  11.958  12.740   6.401
31787SOL    HW197258  11.957  12.777   6.313
31787SOL    HW297259  11.921  12.653   6.391
31788SOL     OW97260   4.071   4.885   1.925
31788SOL    HW197261   4.048   4.798   1.958
31788SOL    HW297262   4.156   4.904   1.966
31789SOL     OW97263   1.571   1.475  11.263
31789SOL    HW197264   1.542   1.544  11.203
31789SOL    HW297265   1.551   1.393  11.216
31790SOL     OW97266  10.639  11.466  10.719
31790SOL    HW197267  10.567  11.426  10.671
31790SOL    HW297268  10.647  11.413  10.798
31791SOL     OW97269   4.369   9.317   4.628
31791SOL    HW197270   4.360   9.317   4.723
31791SOL    HW297271   4.286   9.353   4.596
31792SOL     OW97272   8.788  11.067   2.508
31792SOL    HW197273   8.799  10.974   2.489
31792SOL    HW297274   8.725  11.098   2.444
31793SOL     OW97275   3.052  11.485   2.987
31793SOL    HW197276   3.003  11.427   3.045
31793SOL    HW297277   2.986  11.520   2.927
31794SOL     OW97278   7.145  10.076   5.278
31794SOL    HW197279   7.133   9.991   5.235
31794SOL    HW297280   7.178  10.134   5.209
31795SOL     OW97281   2.240   4.095   5.629
31795SOL    HW197282   2.247   4.099   5.724
31795SOL    HW297283   2.275   4.009   5.606
31796SOL     OW97284   8.843  14.437   7.903
31796SOL    HW197285   8.782  14.511   7.904
31796SOL    HW297286   8.901  14.455   7.830
31797SOL     OW97287  13.943  11.168   1.947
31797SOL    HW197288  13.995  11.229   1.894
31797SOL    HW297289  13.947  11.204   2.036
31798SOL     OW97290   0.049  13.491   5.257
31798SOL    HW197291   0.120  13.445   5.302
31798SOL    HW297292   0.052  13.456   5.167
31799SOL     OW97293   7.522   3.095   9.530
31799SOL    HW197294   7.526   3.005   9.499
31799SOL    HW297295   7.612   3.117   9.554
31800SOL     OW97296   8.747  13.303   3.988
31800SOL    HW197297   8.699  13.220   3.989
31800SOL    HW297298   8.836  13.280   3.962
31801SOL     OW97299  10.482   3.425  13.264
31801SOL    HW197300  10.458   3.340  13.301
31801SOL    HW297301  10.402   3.477  13.269
31802SOL     OW97302   0.859   2.120   6.361
31802SOL    HW197303   0.806   2.047   6.394
31802SOL    HW297304   0.796   2.181   6.324
31803SOL     OW97305   4.957   8.099   2.383
31803SOL    HW197306   4.988   8.096   2.293
31803SOL    HW297307   4.887   8.165   2.383
31804SOL     OW97308  14.724   0.272   1.812
31804SOL    HW197309  14.686   0.244   1.729
31804SOL    HW297310  14.737   0.366   1.803
31805SOL     OW97311   4.938  14.003   2.749
31805SOL    HW197312   4.980  13.918   2.739
31805SOL    HW297313   4.973  14.039   2.830
31806SOL     OW97314   8.124  11.509  10.889
31806SOL    HW197315   8.150  11.418  10.871
31806SOL    HW297316   8.170  11.560  10.822
31807SOL     OW97317  11.398   5.974   5.843
31807SOL    HW197318  11.345   6.026   5.904
31807SOL    HW297319  11.392   6.020   5.760
31808SOL     OW97320   4.868  14.074   8.977
31808SOL    HW197321   4.911  14.123   8.906
31808SOL    HW297322   4.920  13.994   8.985
31809SOL     OW97323  12.149  14.747  13.653
31809SOL    HW197324  12.225  14.701  13.616
31809SOL    HW297325  12.186  14.804  13.720
31810SOL     OW97326  12.297   6.816  14.424
31810SOL    HW197327  12.288   6.844  14.332
31810SOL    HW297328  12.212   6.780  14.447
31811SOL     OW97329   7.038   7.240  11.261
31811SOL    HW197330   7.127   7.209  11.276
31811SOL    HW297331   7.036   7.327  11.301
31812SOL     OW97332   6.169   0.127  11.560
31812SOL    HW197333   6.136   0.144  11.472
31812SOL    HW297334   6.209   0.210  11.587
31813SOL     OW97335   7.180  11.940   2.231
31813SOL    HW197336   7.263  11.897   2.249
31813SOL    HW297337   7.204  12.025   2.193
31814SOL     OW97338   7.965   1.118   4.227
31814SOL    HW197339   8.006   1.121   4.140
31814SOL    HW297340   7.875   1.093   4.211
31815SOL     OW97341  12.867  10.388   9.420
31815SOL    HW197342  12.830  10.395   9.508
31815SOL    HW297343  12.821  10.315   9.380
31816SOL     OW97344   8.103  13.989   2.632
31816SOL    HW197345   8.073  14.067   2.678
31816SOL    HW297346   8.194  14.007   2.610
31817SOL     OW97347   1.167   7.888   8.444
31817SOL    HW197348   1.236   7.950   8.418
31817SOL    HW297349   1.190   7.863   8.533
31818SOL     OW97350   6.711   0.768  11.640
31818SOL    HW197351   6.782   0.733  11.587
31818SOL    HW297352   6.642   0.789  11.577
31819SOL     OW97353   1.269   2.137   8.249
31819SOL    HW197354   1.311   2.170   8.169
31819SOL    HW297355   1.317   2.057   8.270
31820SOL     OW97356   3.105   6.698  11.368
31820SOL    HW197357   3.149   6.748  11.299
31820SOL    HW297358   3.076   6.618  11.325
31821SOL     OW97359  13.884   7.781   1.110
31821SOL    HW197360  13.804   7.728   1.105
31821SOL    HW297361  13.861   7.851   1.172
31822SOL     OW97362   3.798   8.191   0.860
31822SOL    HW197363   3.755   8.265   0.902
31822SOL    HW297364   3.770   8.115   0.912
31823SOL     OW97365   4.689   5.343   1.741
31823SOL    HW197366   4.628   5.269   1.743
31823SOL    HW297367   4.702   5.361   1.648
31824SOL     OW97368   8.457   1.734   6.593
31824SOL    HW197369   8.408   1.755   6.672
31824SOL    HW297370   8.521   1.804   6.585
31825SOL     OW97371  14.830   4.670   7.760
31825SOL    HW197372  14.838   4.764   7.773
31825SOL    HW297373   0.050   4.637   7.766
31826SOL     OW97374   4.578   1.503  14.719
31826SOL    HW197375   4.574   1.501  14.624
31826SOL    HW297376   4.666   1.536  14.738
31827SOL     OW97377   4.477   5.423  12.686
31827SOL    HW197378   4.395   5.379  12.708
31827SOL    HW297379   4.544   5.355  12.693
31828SOL     OW97380  12.223   9.790  13.820
31828SOL    HW197381  12.169   9.865  13.842
31828SOL    HW297382  12.313   9.820  13.835
31829SOL     OW97383   4.268  11.500   6.811
31829SOL    HW197384   4.221  11.584   6.813
31829SOL    HW297385   4.344  11.514   6.868
31830SOL     OW97386   9.369  11.010  10.320
31830SOL    HW197387   9.407  11.004  10.233
31830SOL    HW297388   9.341  11.101  10.328
31831SOL     OW97389   5.972   4.191  12.729
31831SOL    HW197390   5.949   4.102  12.703
31831SOL    HW297391   6.047   4.180  12.787
31832SOL     OW97392   1.557   6.064  14.183
31832SOL    HW197393   1.652   6.077  14.180
31832SOL    HW297394   1.522   6.148  14.213
31833SOL     OW97395  14.150   7.994   8.263
31833SOL    HW197396  14.230   8.047   8.264
31833SOL    HW297397  14.169   7.921   8.322
31834SOL     OW97398   4.991  11.167  12.051
31834SOL    HW197399   4.969  11.242  12.106
31834SOL    HW297400   5.005  11.204  11.964
31835SOL     OW97401  10.744   8.797   9.500
31835SOL    HW197402  10.819   8.852   9.525
31835SOL    HW297403  10.675   8.820   9.562
31836SOL     OW97404  11.944  11.417  10.918
31836SOL    HW197405  11.865  11.466  10.942
31836SOL    HW297406  11.912  11.336  10.881
31837SOL     OW97407   7.563   8.272   7.352
31837SOL    HW197408   7.586   8.212   7.281
31837SOL    HW297409   7.630   8.257   7.418
31838SOL     OW97410   0.515  10.022  13.699
31838SOL    HW197411   0.581  10.022  13.768
31838SOL    HW297412   0.565  10.030  13.618
31839SOL     OW97413  13.890   6.601   7.495
31839SOL    HW197414  13.959   6.666   7.481
31839SOL    HW297415  13.936   6.524   7.527
31840SOL     OW97416   9.199   6.587   7.366
31840SOL    HW197417   9.218   6.680   7.379
31840SOL    HW297418   9.261   6.559   7.298
31841SOL     OW97419  14.654  11.054   9.117
31841SOL    HW197420  14.730  11.000   9.098
31841SOL    HW297421  14.684  11.144   9.101
31842SOL     OW97422   8.115   2.596  10.439
31842SOL    HW197423   8.193   2.652  10.437
31842SOL    HW297424   8.053   2.640  10.381
31843SOL     OW97425   9.383   5.815   7.540
31843SOL    HW197426   9.411   5.748   7.602
31843SOL    HW297427   9.358   5.889   7.594
31844SOL     OW97428   3.656  12.749  12.231
31844SOL    HW197429   3.716  12.780  12.163
31844SOL    HW297430   3.677  12.656  12.241
31845SOL     OW97431   4.001   5.286   3.598
31845SOL    HW197432   3.905   5.289   3.598
31845SOL    HW297433   4.023   5.225   3.528
31846SOL     OW97434   8.836  11.747   3.938
31846SOL    HW197435   8.886  11.703   3.869
31846SOL    HW297436   8.806  11.676   3.995
31847SOL     OW97437   4.616   4.339   3.195
31847SOL    HW197438   4.523   4.344   3.217
31847SOL    HW297439   4.653   4.282   3.263
31848SOL     OW97440  14.789   6.642   7.942
31848SOL    HW197441  14.799   6.618   7.849
31848SOL    HW297442  14.696   6.628   7.960
31849SOL     OW97443  12.638  11.953  10.427
31849SOL    HW197444  12.548  11.962  10.460
31849SOL    HW297445  12.628  11.951  10.332
31850SOL     OW97446  13.236  10.687   4.491
31850SOL    HW197447  13.307  10.635   4.530
31850SOL    HW297448  13.275  10.726   4.413
31851SOL     OW97449   2.372   8.160   7.840
31851SOL    HW197450   2.410   8.173   7.927
31851SOL    HW297451   2.345   8.248   7.813
31852SOL     OW97452   5.167   8.971   4.225
31852SOL    HW197453   5.217   8.978   4.144
31852SOL    HW297454   5.103   8.902   4.208
31853SOL     OW97455   3.106   5.438   7.927
31853SOL    HW197456   3.151   5.391   7.998
31853SOL    HW297457   3.165   5.430   7.852
31854SOL     OW97458   4.733   1.535   7.168
31854SOL    HW197459   4.795   1.487   7.113
31854SOL    HW297460   4.686   1.467   7.216
31855SOL     OW97461   2.093   1.024   8.950
31855SOL    HW197462   2.089   0.944   9.001
31855SOL    HW297463   2.059   1.000   8.864
31856SOL     OW97464   1.096  13.452   8.029
31856SOL    HW197465   1.118  13.522   7.967
31856SOL    HW297466   1.181  13.416   8.054
31857SOL     OW97467   0.699   0.884  14.423
31857SOL    HW197468   0.723   0.934  14.345
31857SOL    HW297469   0.731   0.796  14.406
31858SOL     OW97470  11.101   5.182  10.778
31858SOL    HW197471  11.167   5.251  10.777
31858SOL    HW297472  11.022   5.224  10.746
31859SOL     OW97473   1.737  12.057   1.427
31859SOL    HW197474   1.751  12.012   1.510
31859SOL    HW297475   1.673  12.003   1.381
31860SOL     OW97476  14.389   2.920  11.297
31860SOL    HW197477  14.401   3.013  11.316
31860SOL    HW297478  14.426   2.907  11.210
31861SOL     OW97479  11.839   8.427  10.309
31861SOL    HW197480  11.932   8.446  10.293
31861SOL    HW297481  11.803   8.412  10.221
31862SOL     OW97482  13.035   4.300   9.864
31862SOL    HW197483  12.998   4.387   9.845
31862SOL    HW297484  13.130   4.314   9.863
31863SOL     OW97485  14.789  12.747  10.600
31863SOL    HW197486  14.781  12.708  10.513
31863SOL    HW297487  14.865  12.805  10.594
31864SOL     OW97488   8.060   8.221  10.803
31864SOL    HW197489   8.023   8.166  10.872
31864SOL    HW297490   8.152   8.233  10.829
31865SOL     OW97491   7.930   4.850  11.812
31865SOL    HW197492   7.990   4.813  11.746
31865SOL    HW297493   7.953   4.806  11.893
31866SOL     OW97494  14.161   3.181  11.795
31866SOL    HW197495  14.188   3.203  11.884
31866SOL    HW297496  14.191   3.091  11.782
31867SOL     OW97497   0.880  10.677   5.778
31867SOL    HW197498   0.871  10.692   5.873
31867SOL    HW297499   0.974  10.684   5.761
31868SOL     OW97500   5.743   2.100   0.687
31868SOL    HW197501   5.729   2.006   0.672
31868SOL    HW297502   5.700   2.142   0.613
31869SOL     OW97503  10.537  13.365  10.429
31869SOL    HW197504  10.520  13.280  10.470
31869SOL    HW297505  10.450  13.405  10.421
31870SOL     OW97506   9.577   2.319   8.811
31870SOL    HW197507   9.645   2.333   8.877
31870SOL    HW297508   9.496   2.310   8.862
31871SOL     OW97509   8.843   1.167   4.354
31871SOL    HW197510   8.806   1.245   4.313
31871SOL    HW297511   8.883   1.119   4.281
31872SOL     OW97512   2.018   4.726   6.628
31872SOL    HW197513   1.943   4.740   6.571
31872SOL    HW297514   2.066   4.654   6.586
31873SOL     OW97515   3.901  13.571   0.239
31873SOL    HW197516   3.836  13.503   0.219
31873SOL    HW297517   3.865  13.649   0.196
31874SOL     OW97518   4.877   2.691   7.197
31874SOL    HW197519   4.794   2.656   7.229
31874SOL    HW297520   4.874   2.784   7.218
31875SOL     OW97521   7.394   1.601  11.940
31875SOL    HW197522   7.450   1.643  11.873
31875SOL    HW297523   7.455   1.578  12.010
31876SOL     OW97524   3.090   1.713   3.624
31876SOL    HW197525   3.093   1.805   3.652
31876SOL    HW297526   3.020   1.675   3.676
31877SOL     OW97527  12.936   5.139   0.072
31877SOL    HW197528  13.007   5.179   0.022
31877SOL    HW297529  12.979   5.102   0.149
31878SOL     OW97530  11.477  14.782   2.512
31878SOL    HW197531  11.496  14.815   2.600
31878SOL    HW297532  11.384  14.759   2.515
31879SOL     OW97533  11.217  10.525   9.140
31879SOL    HW197534  11.268  10.527   9.221
31879SOL    HW297535  11.127  10.506   9.169
31880SOL     OW97536   4.944   2.664   4.156
31880SOL    HW197537   4.885   2.737   4.175
31880SOL    HW297538   4.970   2.632   4.243
31881SOL     OW97539  14.459  14.689  14.202
31881SOL    HW197540  14.533  14.628  14.195
31881SOL    HW297541  14.491  14.770  14.162
31882SOL     OW97542   3.874   3.394  10.714
31882SOL    HW197543   3.825   3.458  10.662
31882SOL    HW297544   3.951   3.374  10.661
31883SOL     OW97545   6.993   1.811   5.142
31883SOL    HW197546   6.972   1.718   5.140
31883SOL    HW297547   6.921   1.851   5.190
31884SOL     OW97548  10.801   3.227   5.545
31884SOL    HW197549  10.888   3.192   5.561
31884SOL    HW297550  10.745   3.150   5.537
31885SOL     OW97551  12.817   0.844   3.188
31885SOL    HW197552  12.874   0.860   3.113
31885SOL    HW297553  12.793   0.932   3.218
31886SOL     OW97554  10.076  12.724  13.677
31886SOL    HW197555  10.004  12.681  13.724
31886SOL    HW297556  10.128  12.766  13.745
31887SOL     OW97557   4.588  12.332   9.627
31887SOL    HW197558   4.649  12.314   9.556
31887SOL    HW297559   4.568  12.425   9.618
31888SOL     OW97560   9.332  13.255   4.153
31888SOL    HW197561   9.342  13.349   4.141
31888SOL    HW297562   9.246  13.235   4.117
31889SOL     OW97563   1.912   5.387  13.133
31889SOL    HW197564   1.847   5.414  13.067
31889SOL    HW297565   1.898   5.446  13.206
31890SOL     OW97566  10.011   6.499   3.223
31890SOL    HW197567   9.931   6.446   3.222
31890SOL    HW297568  10.057   6.473   3.143
31891SOL     OW97569  13.937  14.628  10.538
31891SOL    HW197570  14.019  14.581  10.524
31891SOL    HW297571  13.963  14.717  10.560
31892SOL     OW97572  11.895  11.875  10.653
31892SOL    HW197573  11.855  11.844  10.572
31892SOL    HW297574  11.821  11.889  10.712
31893SOL     OW97575   8.884  10.333   4.049
31893SOL    HW197576   8.811  10.384   4.014
31893SOL    HW297577   8.843  10.254   4.085
31894SOL     OW97578   4.002   4.869  10.451
31894SOL    HW197579   4.014   4.950  10.500
31894SOL    HW297580   4.090   4.831  10.447
31895SOL     OW97581   6.869   2.240   5.941
31895SOL    HW197582   6.950   2.272   5.902
31895SOL    HW297583   6.868   2.278   6.029
31896SOL     OW97584  13.694   3.196   3.044
31896SOL    HW197585  13.723   3.284   3.018
31896SOL    HW297586  13.767   3.139   3.021
31897SOL     OW97587   7.311  13.592   7.045
31897SOL    HW197588   7.395  13.547   7.038
31897SOL    HW297589   7.322  13.671   6.992
31898SOL     OW97590  11.058   3.718  13.421
31898SOL    HW197591  11.136   3.675  13.387
31898SOL    HW297592  11.079   3.739  13.512
31899SOL     OW97593  12.298  13.824   1.438
31899SOL    HW197594  12.372  13.872   1.402
31899SOL    HW297595  12.333  13.736   1.456
31900SOL     OW97596   8.098   9.611   2.594
31900SOL    HW197597   8.133   9.692   2.558
31900SOL    HW297598   8.117   9.616   2.688
31901SOL     OW97599   0.987   8.714   3.423
31901SOL    HW197600   0.905   8.691   3.379
31901SOL    HW297601   0.980   8.674   3.510
31902SOL     OW97602  14.168  13.659   7.876
31902SOL    HW197603  14.208  13.726   7.821
31902SOL    HW297604  14.239  13.596   7.891
31903SOL     OW97605  13.729   9.349   4.188
31903SOL    HW197606  13.746   9.258   4.162
31903SOL    HW297607  13.808   9.375   4.235
31904SOL     OW97608  12.610  10.221   9.205
31904SOL    HW197609  12.609  10.133   9.168
31904SOL    HW297610  12.646  10.210   9.293
31905SOL     OW97611   6.189  12.229   4.083
31905SOL    HW197612   6.280  12.228   4.113
31905SOL    HW297613   6.151  12.149   4.119
31906SOL     OW97614  12.036   2.933   4.348
31906SOL    HW197615  11.968   2.940   4.281
31906SOL    HW297616  12.111   2.980   4.311
31907SOL     OW97617  13.400   5.357   8.798
31907SOL    HW197618  13.339   5.288   8.824
31907SOL    HW297619  13.462   5.364   8.870
31908SOL     OW97620  13.990   8.054   3.101
31908SOL    HW197621  14.047   8.076   3.028
31908SOL    HW297622  14.049   8.028   3.171
31909SOL     OW97623   1.455  14.658   5.408
31909SOL    HW197624   1.522  14.612   5.358
31909SOL    HW297625   1.503  14.719   5.463
31910SOL     OW97626   3.381   2.829  10.907
31910SOL    HW197627   3.372   2.878  10.988
31910SOL    HW297628   3.463   2.860  10.869
31911SOL     OW97629   2.456  10.579   1.936
31911SOL    HW197630   2.453  10.536   1.851
31911SOL    HW297631   2.366  10.608   1.952
31912SOL     OW97632   7.007   9.537   2.394
31912SOL    HW197633   7.002   9.442   2.398
31912SOL    HW297634   7.050   9.555   2.310
31913SOL     OW97635   6.634  13.058  10.405
31913SOL    HW197636   6.707  13.029  10.351
31913SOL    HW297637   6.656  13.149  10.428
31914SOL     OW97638   7.260   7.913  14.172
31914SOL    HW197639   7.180   7.923  14.120
31914SOL    HW297640   7.235   7.942  14.260
31915SOL     OW97641   2.679   4.593  14.291
31915SOL    HW197642   2.710   4.588  14.201
31915SOL    HW297643   2.613   4.663  14.289
31916SOL     OW97644   4.831   3.888   6.062
31916SOL    HW197645   4.909   3.910   6.112
31916SOL    HW297646   4.831   3.950   5.989
31917SOL     OW97647   8.698   2.233   6.096
31917SOL    HW197648   8.788   2.265   6.089
31917SOL    HW297649   8.706   2.146   6.137
31918SOL     OW97650  11.036   6.860   8.816
31918SOL    HW197651  11.097   6.862   8.890
31918SOL    HW297652  11.071   6.924   8.754
31919SOL     OW97653  12.541  10.519   3.755
31919SOL    HW197654  12.637  10.519   3.757
31919SOL    HW297655  12.516  10.590   3.814
31920SOL     OW97656   7.533  10.941   8.393
31920SOL    HW197657   7.605  10.945   8.457
31920SOL    HW297658   7.486  10.860   8.415
31921SOL     OW97659  13.868   9.329  10.026
31921SOL    HW197660  13.957   9.305  10.051
31921SOL    HW297661  13.872   9.341   9.931
31922SOL     OW97662   6.738   9.560   1.154
31922SOL    HW197663   6.688   9.526   1.080
31922SOL    HW297664   6.766   9.483   1.203
31923SOL     OW97665   2.005   3.015   1.093
31923SOL    HW197666   1.987   3.106   1.067
31923SOL    HW297667   1.955   2.963   1.030
31924SOL     OW97668   2.736   8.288   7.154
31924SOL    HW197669   2.739   8.194   7.170
31924SOL    HW297670   2.828   8.314   7.145
31925SOL     OW97671   7.932   3.534   4.483
31925SOL    HW197672   7.856   3.585   4.453
31925SOL    HW297673   7.932   3.545   4.578
31926SOL     OW97674   4.793   4.748   7.837
31926SOL    HW197675   4.839   4.711   7.912
31926SOL    HW297676   4.749   4.825   7.871
31927SOL     OW97677   6.998  10.330   5.433
31927SOL    HW197678   7.024  10.241   5.412
31927SOL    HW297679   6.970  10.367   5.349
31928SOL     OW97680   3.838   8.752  13.498
31928SOL    HW197681   3.896   8.741  13.423
31928SOL    HW297682   3.879   8.702  13.569
31929SOL     OW97683  13.512   9.116   8.943
31929SOL    HW197684  13.481   9.025   8.944
31929SOL    HW297685  13.492   9.149   9.030
31930SOL     OW97686  13.302   9.815   8.784
31930SOL    HW197687  13.217   9.783   8.813
31930SOL    HW297688  13.353   9.824   8.865
31931SOL     OW97689   9.610   8.082  14.708
31931SOL    HW197690   9.542   8.021  14.680
31931SOL    HW297691   9.692   8.034  14.697
31932SOL     OW97692   8.483   8.255  12.553
31932SOL    HW197693   8.575   8.248  12.575
31932SOL    HW297694   8.437   8.200  12.617
31933SOL     OW97695  13.005   3.405   8.739
31933SOL    HW197696  12.965   3.458   8.669
31933SOL    HW297697  13.099   3.412   8.724
31934SOL     OW97698  10.206   2.050   3.933
31934SOL    HW197699  10.112   2.035   3.920
31934SOL    HW297700  10.226   2.127   3.881
31935SOL     OW97701   0.285   6.363   7.186
31935SOL    HW197702   0.241   6.395   7.264
31935SOL    HW297703   0.227   6.387   7.114
31936SOL     OW97704   9.421   3.642   7.815
31936SOL    HW197705   9.492   3.577   7.819
31936SOL    HW297706   9.432   3.683   7.729
31937SOL     OW97707   4.429   1.043   3.230
31937SOL    HW197708   4.396   0.953   3.232
31937SOL    HW297709   4.412   1.077   3.318
31938SOL     OW97710  11.478   8.387  11.914
31938SOL    HW197711  11.410   8.334  11.956
31938SOL    HW297712  11.438   8.474  11.906
31939SOL     OW97713   6.404  12.116   9.867
31939SOL    HW197714   6.437  12.195   9.823
31939SOL    HW297715   6.353  12.148   9.941
31940SOL     OW97716  13.078  13.784   7.158
31940SOL    HW197717  13.140  13.801   7.087
31940SOL    HW297718  13.023  13.862   7.161
31941SOL     OW97719   5.997  14.476   3.510
31941SOL    HW197720   6.004  14.558   3.460
31941SOL    HW297721   6.015  14.503   3.600
31942SOL     OW97722  11.452   5.960   7.962
31942SOL    HW197723  11.459   5.922   7.874
31942SOL    HW297724  11.362   5.943   7.988
31943SOL     OW97725   7.721   2.548   5.671
31943SOL    HW197726   7.752   2.625   5.624
31943SOL    HW297727   7.641   2.522   5.626
31944SOL     OW97728  11.529   4.839   7.618
31944SOL    HW197729  11.582   4.895   7.562
31944SOL    HW297730  11.565   4.751   7.604
31945SOL     OW97731   8.179  13.639   6.299
31945SOL    HW197732   8.104  13.698   6.287
31945SOL    HW297733   8.196  13.603   6.212
31946SOL     OW97734  11.921   5.577  11.628
31946SOL    HW197735  11.879   5.503  11.584
31946SOL    HW297736  11.951   5.541  11.712
31947SOL     OW97737   4.549   5.589   4.228
31947SOL    HW197738   4.529   5.608   4.136
31947SOL    HW297739   4.532   5.495   4.236
31948SOL     OW97740  10.387   4.733  10.153
31948SOL    HW197741  10.472   4.707  10.118
31948SOL    HW297742  10.324   4.706  10.087
31949SOL     OW97743   3.048  12.360   6.371
31949SOL    HW197744   3.093  12.301   6.432
31949SOL    HW297745   2.973  12.310   6.339
31950SOL     OW97746   2.267   0.127   9.109
31950SOL    HW197747   2.346   0.081   9.135
31950SOL    HW297748   2.293   0.174   9.029
31951SOL     OW97749  12.201   4.398   1.498
31951SOL    HW197750  12.181   4.398   1.592
31951SOL    HW297751  12.145   4.329   1.462
31952SOL     OW97752  13.871   4.453  12.244
31952SOL    HW197753  13.793   4.399  12.260
31952SOL    HW297754  13.928   4.435  12.318
31953SOL     OW97755  13.292   5.952   3.391
31953SOL    HW197756  13.373   5.917   3.426
31953SOL    HW297757  13.305   6.047   3.390
31954SOL     OW97758  13.129  11.577   8.515
31954SOL    HW197759  13.128  11.527   8.596
31954SOL    HW297760  13.044  11.558   8.474
31955SOL     OW97761   1.100  11.521   1.232
31955SOL    HW197762   1.067  11.601   1.193
31955SOL    HW297763   1.032  11.493   1.293
31956SOL     OW97764  14.773   9.121  11.320
31956SOL    HW197765  14.866   9.116  11.343
31956SOL    HW297766  14.773   9.145  11.227
31957SOL     OW97767  14.799  12.739  12.776
31957SOL    HW197768   0.020  12.742  12.808
31957SOL    HW297769  14.787  12.821  12.728
31958SOL     OW97770   2.980   5.021   1.808
31958SOL    HW197771   3.055   4.977   1.766
31958SOL    HW297772   3.019   5.071   1.879
31959SOL     OW97773  12.092   4.137   8.390
31959SOL    HW197774  12.155   4.082   8.344
31959SOL    HW297775  12.068   4.087   8.468
31960SOL     OW97776  14.839   6.183  10.749
31960SOL    HW197777  14.821   6.277  10.747
31960SOL    HW297778   0.006   6.167  10.836
31961SOL     OW97779   2.521   9.729   5.931
31961SOL    HW197780   2.453   9.704   5.993
31961SOL    HW297781   2.562   9.646   5.905
31962SOL     OW97782   3.808  13.956   8.603
31962SOL    HW197783   3.730  13.911   8.572
31962SOL    HW297784   3.865  13.886   8.636
31963SOL     OW97785  12.703  13.266   0.145
31963SOL    HW197786  12.638  13.333   0.165
31963SOL    HW297787  12.665  13.216   0.072
31964SOL     OW97788  13.675  13.121   3.236
31964SOL    HW197789  13.608  13.053   3.244
31964SOL    HW297790  13.679  13.139   3.142
31965SOL     OW97791   0.240   0.044  12.332
31965SOL    HW197792   0.288   0.099  12.394
31965SOL    HW297793   0.182   0.105  12.287
31966SOL     OW97794   1.663   3.851   4.505
31966SOL    HW197795   1.657   3.874   4.412
31966SOL    HW297796   1.685   3.758   4.506
31967SOL     OW97797   1.580  12.225   7.369
31967SOL    HW197798   1.658  12.259   7.324
31967SOL    HW297799   1.605  12.137   7.396
31968SOL     OW97800   8.583   2.971   6.094
31968SOL    HW197801   8.628   3.049   6.127
31968SOL    HW297802   8.651   2.903   6.093
31969SOL     OW97803   1.417   6.670  11.066
31969SOL    HW197804   1.436   6.602  11.002
31969SOL    HW297805   1.475   6.652  11.140
31970SOL     OW97806   2.351  12.130  10.531
31970SOL    HW197807   2.412  12.140  10.458
31970SOL    HW297808   2.377  12.197  10.594
31971SOL     OW97809   6.978   2.821   4.174
31971SOL    HW197810   7.046   2.883   4.201
31971SOL    HW297811   6.954   2.775   4.254
31972SOL     OW97812   2.383  14.017   8.746
31972SOL    HW197813   2.312  14.015   8.810
31972SOL    HW297814   2.350  13.968   8.671
31973SOL     OW97815   3.012   1.797  10.476
31973SOL    HW197816   3.043   1.887  10.484
31973SOL    HW297817   3.012   1.763  10.566
31974SOL     OW97818  12.835   2.175   3.510
31974SOL    HW197819  12.858   2.170   3.417
31974SOL    HW297820  12.907   2.224   3.550
31975SOL     OW97821   9.464  14.607  11.352
31975SOL    HW197822   9.533  14.670  11.331
31975SOL    HW297823   9.512  14.527  11.375
31976SOL     OW97824   6.312   4.969   7.624
31976SOL    HW197825   6.344   4.903   7.684
31976SOL    HW297826   6.218   4.970   7.637
31977SOL     OW97827   5.859   5.158  11.918
31977SOL    HW197828   5.820   5.246  11.919
31977SOL    HW297829   5.833   5.121  11.833
31978SOL     OW97830   6.054   3.799   2.941
31978SOL    HW197831   5.972   3.791   2.989
31978SOL    HW297832   6.097   3.876   2.979
31979SOL     OW97833   9.610   5.234   0.124
31979SOL    HW197834   9.544   5.228   0.193
31979SOL    HW297835   9.561   5.264   0.047
31980SOL     OW97836  10.254  13.967  10.696
31980SOL    HW197837  10.335  14.017  10.684
31980SOL    HW297838  10.231  13.938  10.608
31981SOL     OW97839  11.440   3.004   5.727
31981SOL    HW197840  11.353   2.965   5.740
31981SOL    HW297841  11.465   2.977   5.639
31982SOL     OW97842   4.763   2.796   1.488
31982SOL    HW197843   4.683   2.814   1.438
31982SOL    HW297844   4.830   2.849   1.444
31983SOL     OW97845  10.271   8.947   0.288
31983SOL    HW197846  10.350   8.972   0.240
31983SOL    HW297847  10.205   8.931   0.220
31984SOL     OW97848   3.590   3.234   8.444
31984SOL    HW197849   3.585   3.170   8.516
31984SOL    HW297850   3.669   3.285   8.463
31985SOL     OW97851   1.451  12.761   2.742
31985SOL    HW197852   1.357  12.751   2.727
31985SOL    HW297853   1.464  12.736   2.834
31986SOL     OW97854   4.501   3.066  12.668
31986SOL    HW197855   4.493   3.132  12.599
31986SOL    HW297856   4.513   2.984  12.621
31987SOL     OW97857  12.515   8.155  14.086
31987SOL    HW197858  12.510   8.099  14.164
31987SOL    HW297859  12.478   8.102  14.015
31988SOL     OW97860  12.714  10.173  14.016
31988SOL    HW197861  12.722  10.242  13.951
31988SOL    HW297862  12.713  10.220  14.100
31989SOL     OW97863   4.161  10.318  10.607
31989SOL    HW197864   4.124  10.391  10.656
31989SOL    HW297865   4.130  10.240  10.653
31990SOL     OW97866   5.987   8.304   8.373
31990SOL    HW197867   6.047   8.245   8.419
31990SOL    HW297868   5.982   8.268   8.284
31991SOL     OW97869   7.358  11.853  10.165
31991SOL    HW197870   7.429  11.906  10.200
31991SOL    HW297871   7.375  11.849  10.071
31992SOL     OW97872   0.649   8.942   7.548
31992SOL    HW197873   0.554   8.931   7.536
31992SOL    HW297874   0.665   8.912   7.637
31993SOL     OW97875  10.322   3.780   2.479
31993SOL    HW197876  10.242   3.795   2.529
31993SOL    HW297877  10.332   3.858   2.424
31994SOL     OW97878   8.765  14.810   2.127
31994SOL    HW197879   8.682  14.837   2.166
31994SOL    HW297880   8.768  14.857   2.043
31995SOL     OW97881  12.476   5.557   5.070
31995SOL    HW197882  12.505   5.554   4.980
31995SOL    HW297883  12.540   5.611   5.115
31996SOL     OW97884   4.994   3.703  12.359
31996SOL    HW197885   4.990   3.612  12.330
31996SOL    HW297886   4.974   3.754  12.280
31997SOL     OW97887   7.256   1.678   0.283
31997SOL    HW197888   7.181   1.712   0.235
31997SOL    HW297889   7.228   1.680   0.375
31998SOL     OW97890   4.843   7.168   6.249
31998SOL    HW197891   4.908   7.117   6.296
31998SOL    HW297892   4.779   7.193   6.315
31999SOL     OW97893   2.591   5.103   0.227
31999SOL    HW197894   2.577   5.178   0.284
31999SOL    HW297895   2.667   5.058   0.264
32000SOL     OW97896   4.305   5.348   1.731
32000SOL    HW197897   4.262   5.407   1.793
32000SOL    HW297898   4.356   5.406   1.675
32001SOL     OW97899   8.377   6.981  14.250
32001SOL    HW197900   8.338   6.960  14.335
32001SOL    HW297901   8.359   7.075  14.239
32002SOL     OW97902   3.171  13.275  11.868
32002SOL    HW197903   3.180  13.257  11.775
32002SOL    HW297904   3.261  13.279  11.900
32003SOL     OW97905   1.023   6.342  11.236
32003SOL    HW197906   1.067   6.421  11.269
32003SOL    HW297907   1.092   6.293  11.192
32004SOL     OW97908  14.346   0.873   3.732
32004SOL    HW197909  14.314   0.787   3.705
32004SOL    HW297910  14.287   0.935   3.689
32005SOL     OW97911  12.184   8.860  14.411
32005SOL    HW197912  12.163   8.953  14.403
32005SOL    HW297913  12.117   8.825  14.470
32006SOL     OW97914   4.143  10.876   4.066
32006SOL    HW197915   4.229  10.893   4.104
32006SOL    HW297916   4.148  10.913   3.978
32007SOL     OW97917   2.554  11.868   2.468
32007SOL    HW197918   2.518  11.811   2.400
32007SOL    HW297919   2.557  11.813   2.546
32008SOL     OW97920   7.209  12.459  14.829
32008SOL    HW197921   7.237  12.543  14.866
32008SOL    HW297922   7.256  12.453  14.746
32009SOL     OW97923   1.652   8.803   2.671
32009SOL    HW197924   1.593   8.852   2.728
32009SOL    HW297925   1.688   8.735   2.727
32010SOL     OW97926  14.827   3.398   3.202
32010SOL    HW197927  14.801   3.320   3.251
32010SOL    HW297928   0.048   3.382   3.176
32011SOL     OW97929   7.073  11.106   6.303
32011SOL    HW197930   7.046  11.113   6.395
32011SOL    HW297931   7.066  11.195   6.269
32012SOL     OW97932   1.325  14.331   1.566
32012SOL    HW197933   1.372  14.409   1.536
32012SOL    HW297934   1.326  14.338   1.661
32013SOL     OW97935   5.431   9.049  14.470
32013SOL    HW197936   5.521   9.044  14.439
32013SOL    HW297937   5.438   9.069  14.563
32014SOL     OW97938   6.247   9.981   1.165
32014SOL    HW197939   6.233   9.918   1.235
32014SOL    HW297940   6.308   9.938   1.105
32015SOL     OW97941   5.970   2.867   6.282
32015SOL    HW197942   5.912   2.849   6.208
32015SOL    HW297943   5.930   2.943   6.326
32016SOL     OW97944   1.189  13.509   3.973
32016SOL    HW197945   1.205  13.492   4.065
32016SOL    HW297946   1.220  13.430   3.928
32017SOL     OW97947   4.878   4.228   5.992
32017SOL    HW197948   4.924   4.154   5.954
32017SOL    HW297949   4.905   4.303   5.939
32018SOL     OW97950   8.041   3.541   4.152
32018SOL    HW197951   8.099   3.600   4.103
32018SOL    HW297952   8.004   3.597   4.220
32019SOL     OW97953   6.167   5.161   5.676
32019SOL    HW197954   6.102   5.146   5.608
32019SOL    HW297955   6.137   5.108   5.750
32020SOL     OW97956  10.351   5.334   1.924
32020SOL    HW197957  10.296   5.258   1.940
32020SOL    HW297958  10.425   5.300   1.873
32021SOL     OW97959  11.117   1.641   4.323
32021SOL    HW197960  11.178   1.607   4.257
32021SOL    HW297961  11.073   1.563   4.357
32022SOL     OW97962   8.889  10.669  13.996
32022SOL    HW197963   8.830  10.659  14.071
32022SOL    HW297964   8.949  10.595  14.004
32023SOL     OW97965  10.616  11.900   7.773
32023SOL    HW197966  10.602  11.876   7.682
32023SOL    HW297967  10.528  11.899   7.812
32024SOL     OW97968   8.262  14.095   6.733
32024SOL    HW197969   8.246  14.155   6.806
32024SOL    HW297970   8.336  14.042   6.761
32025SOL     OW97971   8.117   5.646   9.002
32025SOL    HW197972   8.208   5.623   9.019
32025SOL    HW297973   8.091   5.700   9.077
32026SOL     OW97974   6.443  10.467   9.472
32026SOL    HW197975   6.476  10.536   9.413
32026SOL    HW297976   6.348  10.477   9.468
32027SOL     OW97977   8.462   0.657   1.638
32027SOL    HW197978   8.456   0.752   1.633
32027SOL    HW297979   8.380   0.629   1.679
32028SOL     OW97980   6.343   7.434   4.171
32028SOL    HW197981   6.344   7.340   4.153
32028SOL    HW297982   6.300   7.442   4.256
32029SOL     OW97983   1.663   9.002   0.577
32029SOL    HW197984   1.669   9.077   0.635
32029SOL    HW297985   1.589   8.951   0.611
32030SOL     OW97986   3.936   9.342   0.009
32030SOL    HW197987   3.981   9.343   0.094
32030SOL    HW297988   3.958   9.257  14.841
32031SOL     OW97989   2.544   2.429   1.092
32031SOL    HW197990   2.546   2.470   1.005
32031SOL    HW297991   2.500   2.494   1.147
32032SOL     OW97992   7.052   8.927   2.806
32032SOL    HW197993   7.115   8.857   2.792
32032SOL    HW297994   6.968   8.883   2.817
32033SOL     OW97995   5.179   1.133   0.591
32033SOL    HW197996   5.112   1.077   0.552
32033SOL    HW297997   5.173   1.116   0.685
32034SOL     OW97998   4.458  14.236   8.347
32034SOL    HW197999   4.375  14.241   8.300
32034SOL    HW298000   4.478  14.326   8.371
32035SOL     OW98001  11.823   6.773   5.443
32035SOL    HW198002  11.830   6.757   5.349
32035SOL    HW298003  11.795   6.865   5.450
32036SOL     OW98004  14.432   9.845   4.208
32036SOL    HW198005  14.471   9.763   4.178
32036SOL    HW298006  14.338   9.826   4.210
32037SOL     OW98007  11.854   9.845  11.910
32037SOL    HW198008  11.805   9.766  11.887
32037SOL    HW298009  11.796   9.893  11.969
32038SOL     OW98010  13.095  12.448  10.924
32038SOL    HW198011  13.013  12.498  10.932
32038SOL    HW298012  13.126  12.469  10.835
32039SOL     OW98013   1.610   1.839  13.562
32039SOL    HW198014   1.667   1.893  13.506
32039SOL    HW298015   1.573   1.900  13.625
32040SOL     OW98016   1.642   2.791   9.150
32040SOL    HW198017   1.626   2.707   9.194
32040SOL    HW298018   1.695   2.840   9.213
32041SOL     OW98019   2.292   1.519  11.102
32041SOL    HW198020   2.253   1.473  11.028
32041SOL    HW298021   2.369   1.467  11.125
32042SOL     OW98022  10.109   0.273  13.817
32042SOL    HW198023  10.046   0.313  13.757
32042SOL    HW298024  10.137   0.344  13.874
32043SOL     OW98025   6.709   5.802   6.536
32043SOL    HW198026   6.801   5.816   6.554
32043SOL    HW298027   6.707   5.769   6.446
32044SOL     OW98028   7.809   4.754   6.337
32044SOL    HW198029   7.764   4.837   6.348
32044SOL    HW298030   7.760   4.692   6.391
32045SOL     OW98031  10.733   8.617  10.907
32045SOL    HW198032  10.661   8.574  10.860
32045SOL    HW298033  10.690   8.667  10.976
32046SOL     OW98034   0.842  13.825   0.309
32046SOL    HW198035   0.788  13.826   0.231
32046SOL    HW298036   0.831  13.738   0.346
32047SOL     OW98037  13.670   7.199   8.400
32047SOL    HW198038  13.754   7.239   8.422
32047SOL    HW298039  13.623   7.267   8.351
32048SOL     OW98040  13.142   9.581   0.793
32048SOL    HW198041  13.103   9.656   0.750
32048SOL    HW298042  13.155   9.516   0.724
32049SOL     OW98043   2.114  11.444   3.807
32049SOL    HW198044   2.062  11.387   3.863
32049SOL    HW298045   2.165  11.498   3.867
32050SOL     OW98046   7.086  10.097  10.719
32050SOL    HW198047   7.095  10.172  10.777
32050SOL    HW298048   7.117  10.128  10.634
32051SOL     OW98049   6.551   7.616   8.060
32051SOL    HW198050   6.555   7.525   8.032
32051SOL    HW298051   6.639   7.651   8.044
32052SOL     OW98052  12.238  12.096   1.314
32052SOL    HW198053  12.197  12.066   1.233
32052SOL    HW298054  12.247  12.017   1.368
32053SOL     OW98055  14.848  13.792   8.189
32053SOL    HW198056  14.803  13.875   8.203
32053SOL    HW298057   0.003  13.763   8.277
32054SOL     OW98058   9.234   3.329   4.263
32054SOL    HW198059   9.311   3.290   4.303
32054SOL    HW298060   9.216   3.408   4.315
32055SOL     OW98061  14.060  12.721   8.463
32055SOL    HW198062  14.039  12.642   8.513
32055SOL    HW298063  13.984  12.777   8.474
32056SOL     OW98064   6.245   8.562   1.373
32056SOL    HW198065   6.261   8.492   1.436
32056SOL    HW298066   6.315   8.551   1.308
32057SOL     OW98067  11.312   4.548  13.439
32057SOL    HW198068  11.241   4.603  13.471
32057SOL    HW298069  11.365   4.529  13.517
32058SOL     OW98070  10.214  10.442   6.363
32058SOL    HW198071  10.152  10.461   6.292
32058SOL    HW298072  10.165  10.386   6.423
32059SOL     OW98073   5.998   3.271   4.429
32059SOL    HW198074   5.923   3.328   4.415
32059SOL    HW298075   6.027   3.247   4.341
32060SOL     OW98076   1.221  10.446  14.509
32060SOL    HW198077   1.294  10.475  14.454
32060SOL    HW298078   1.192  10.526  14.554
32061SOL     OW98079   2.780  10.769   0.164
32061SOL    HW198080   2.771  10.782   0.258
32061SOL    HW298081   2.696  10.734   0.136
32062SOL     OW98082   9.713   2.278   6.161
32062SOL    HW198083   9.690   2.328   6.083
32062SOL    HW298084   9.630   2.248   6.196
32063SOL     OW98085  11.035  13.498  14.580
32063SOL    HW198086  11.065  13.587  14.599
32063SOL    HW298087  11.050  13.487  14.486
32064SOL     OW98088   5.885  13.646  13.195
32064SOL    HW198089   5.823  13.590  13.241
32064SOL    HW298090   5.874  13.732  13.236
32065SOL     OW98091   1.671  13.018   5.157
32065SOL    HW198092   1.580  12.989   5.155
32065SOL    HW298093   1.721  12.946   5.117
32066SOL     OW98094   9.703   8.584   8.646
32066SOL    HW198095   9.751   8.522   8.700
32066SOL    HW298096   9.722   8.558   8.556
32067SOL     OW98097  14.442   1.056   9.509
32067SOL    HW198098  14.430   0.999   9.433
32067SOL    HW298099  14.444   1.145   9.472
32068SOL     OW98100   9.723  10.330   3.040
32068SOL    HW198101   9.776  10.314   3.118
32068SOL    HW298102   9.674  10.248   3.027
32069SOL     OW98103   9.555   4.299  14.464
32069SOL    HW198104   9.556   4.375  14.405
32069SOL    HW298105   9.466   4.264  14.456
32070SOL     OW98106   2.725  14.427   5.122
32070SOL    HW198107   2.738  14.440   5.215
32070SOL    HW298108   2.663  14.495   5.096
32071SOL     OW98109   2.046   2.678   7.016
32071SOL    HW198110   2.122   2.734   7.033
32071SOL    HW298111   2.068   2.594   7.057
32072SOL     OW98112  11.166   4.665  13.048
32072SOL    HW198113  11.238   4.652  12.987
32072SOL    HW298114  11.181   4.600  13.116
32073SOL     OW98115  14.273  10.246   1.591
32073SOL    HW198116  14.266  10.177   1.657
32073SOL    HW298117  14.347  10.219   1.536
32074SOL     OW98118  13.873  10.611   1.909
32074SOL    HW198119  13.857  10.653   1.824
32074SOL    HW298120  13.792  10.563   1.928
32075SOL     OW98121   4.353   3.471  10.178
32075SOL    HW198122   4.374   3.538  10.113
32075SOL    HW298123   4.432   3.418  10.185
32076SOL     OW98124   0.364  13.509   7.954
32076SOL    HW198125   0.383  13.491   8.046
32076SOL    HW298126   0.393  13.431   7.907
32077SOL     OW98127   0.441   6.044   6.286
32077SOL    HW198128   0.521   5.996   6.262
32077SOL    HW298129   0.451   6.129   6.243
32078SOL     OW98130   7.990   9.338   1.880
32078SOL    HW198131   7.907   9.323   1.926
32078SOL    HW298132   8.052   9.357   1.950
32079SOL     OW98133   2.000   2.743   5.640
32079SOL    HW198134   1.934   2.692   5.686
32079SOL    HW298135   1.982   2.728   5.547
32080SOL     OW98136   0.356   5.501  11.893
32080SOL    HW198137   0.379   5.581  11.941
32080SOL    HW298138   0.320   5.533  11.810
32081SOL     OW98139   2.253   2.908   4.292
32081SOL    HW198140   2.250   2.935   4.200
32081SOL    HW298141   2.161   2.899   4.317
32082SOL     OW98142  10.385  14.022   7.913
32082SOL    HW198143  10.299  14.063   7.915
32082SOL    HW298144  10.445  14.092   7.886
32083SOL     OW98145   7.290   1.677   6.255
32083SOL    HW198146   7.368   1.689   6.310
32083SOL    HW298147   7.318   1.618   6.186
32084SOL     OW98148   1.635  14.300   2.056
32084SOL    HW198149   1.725  14.301   2.026
32084SOL    HW298150   1.606  14.210   2.045
32085SOL     OW98151   9.513  13.998   7.555
32085SOL    HW198152   9.548  13.919   7.596
32085SOL    HW298153   9.438  14.023   7.608
32086SOL     OW98154   2.637   9.320  10.076
32086SOL    HW198155   2.579   9.360  10.141
32086SOL    HW298156   2.626   9.373   9.998
32087SOL     OW98157  13.042  11.946   4.102
32087SOL    HW198158  13.035  11.931   4.008
32087SOL    HW298159  13.134  11.968   4.116
32088SOL     OW98160   0.912   3.062   9.188
32088SOL    HW198161   0.871   2.977   9.174
32088SOL    HW298162   0.855   3.106   9.252
32089SOL     OW98163   7.948   9.956   4.736
32089SOL    HW198164   8.006   9.939   4.662
32089SOL    HW298165   7.968  10.046   4.762
32090SOL     OW98166   7.391   2.734   7.378
32090SOL    HW198167   7.468   2.679   7.364
32090SOL    HW298168   7.317   2.677   7.359
32091SOL     OW98169  12.840   6.914   0.799
32091SOL    HW198170  12.916   6.888   0.851
32091SOL    HW298171  12.830   7.007   0.816
32092SOL     OW98172   7.921   7.469   7.003
32092SOL    HW198173   7.946   7.453   7.094
32092SOL    HW298174   7.934   7.386   6.958
32093SOL     OW98175   7.171   3.456   3.639
32093SOL    HW198176   7.085   3.418   3.622
32093SOL    HW298177   7.218   3.449   3.556
32094SOL     OW98178  12.824   3.219   2.759
32094SOL    HW198179  12.806   3.306   2.795
32094SOL    HW298180  12.915   3.222   2.730
32095SOL     OW98181   4.847   9.498  14.302
32095SOL    HW198182   4.774   9.470  14.246
32095SOL    HW298183   4.831   9.455  14.386
32096SOL     OW98184   8.470   3.231   2.582
32096SOL    HW198185   8.489   3.168   2.652
32096SOL    HW298186   8.552   3.280   2.571
32097SOL     OW98187   0.077   1.998   1.307
32097SOL    HW198188   0.004   2.060   1.299
32097SOL    HW298189   0.128   2.031   1.381
32098SOL     OW98190   3.542  13.137  13.726
32098SOL    HW198191   3.485  13.070  13.688
32098SOL    HW298192   3.488  13.181  13.791
32099SOL     OW98193   6.606   1.903  14.714
32099SOL    HW198194   6.606   1.972  14.780
32099SOL    HW298195   6.558   1.940  14.640
32100SOL     OW98196  11.145   3.003   8.507
32100SOL    HW198197  11.215   2.937   8.514
32100SOL    HW298198  11.185   3.083   8.541
32101SOL     OW98199   3.186   8.766   3.558
32101SOL    HW198200   3.178   8.672   3.546
32101SOL    HW298201   3.162   8.782   3.649
32102SOL     OW98202  14.308   7.789   6.659
32102SOL    HW198203  14.240   7.753   6.602
32102SOL    HW298204  14.312   7.728   6.733
32103SOL     OW98205   6.086   0.195  14.203
32103SOL    HW198206   6.012   0.152  14.246
32103SOL    HW298207   6.053   0.282  14.181
32104SOL     OW98208   1.071   8.563   4.344
32104SOL    HW198209   1.138   8.620   4.382
32104SOL    HW298210   1.069   8.487   4.402
32105SOL     OW98211   7.779   8.259  12.440
32105SOL    HW198212   7.735   8.283  12.522
32105SOL    HW298213   7.824   8.338  12.413
32106SOL     OW98214   3.117   1.130  14.027
32106SOL    HW198215   3.187   1.105  14.087
32106SOL    HW298216   3.134   1.077  13.948
32107SOL     OW98217   4.356   3.464   7.437
32107SOL    HW198218   4.421   3.499   7.498
32107SOL    HW298219   4.409   3.430   7.364
32108SOL     OW98220   6.739   7.234   6.950
32108SOL    HW198221   6.689   7.315   6.938
32108SOL    HW298222   6.732   7.215   7.044
32109SOL     OW98223   8.769  13.320   9.447
32109SOL    HW198224   8.768  13.415   9.438
32109SOL    HW298225   8.859  13.298   9.467
32110SOL     OW98226   7.944   2.223  12.989
32110SOL    HW198227   7.902   2.158  13.046
32110SOL    HW298228   7.909   2.307  13.019
32111SOL     OW98229   8.429   8.901   2.494
32111SOL    HW198230   8.452   8.818   2.537
32111SOL    HW298231   8.404   8.875   2.405
32112SOL     OW98232  14.590   0.351  11.510
32112SOL    HW198233  14.522   0.393  11.458
32112SOL    HW298234  14.585   0.258  11.486
32113SOL     OW98235   3.002  13.072   6.937
32113SOL    HW198236   2.913  13.100   6.916
32113SOL    HW298237   3.008  13.080   7.032
32114SOL     OW98238  10.571  10.602  14.772
32114SOL    HW198239  10.655  10.644  14.754
32114SOL    HW298240  10.506  10.672  14.766
32115SOL     OW98241  13.746   9.267  14.114
32115SOL    HW198242  13.718   9.262  14.205
32115SOL    HW298243  13.677   9.223  14.065
32116SOL     OW98244  14.257  14.413  11.095
32116SOL    HW198245  14.173  14.400  11.140
32116SOL    HW298246  14.316  14.348  11.133
32117SOL     OW98247  10.038  12.539   1.035
32117SOL    HW198248  10.012  12.463   1.088
32117SOL    HW298249  10.055  12.502   0.948
32118SOL     OW98250  13.738  14.203  13.490
32118SOL    HW198251  13.673  14.198  13.419
32118SOL    HW298252  13.708  14.139  13.554
32119SOL     OW98253  11.608  14.481   9.585
32119SOL    HW198254  11.600  14.507   9.676
32119SOL    HW298255  11.669  14.407   9.586
32120SOL     OW98256   5.324   2.766   1.751
32120SOL    HW198257   5.363   2.815   1.823
32120SOL    HW298258   5.376   2.791   1.674
32121SOL     OW98259   1.927   0.903  13.530
32121SOL    HW198260   1.874   0.885  13.608
32121SOL    HW298261   1.931   0.820  13.484
32122SOL     OW98262   5.254   6.657   2.486
32122SOL    HW198263   5.189   6.601   2.443
32122SOL    HW298264   5.279   6.721   2.419
32123SOL     OW98265   5.071   8.692   2.584
32123SOL    HW198266   5.007   8.696   2.512
32123SOL    HW298267   5.098   8.600   2.587
32124SOL     OW98268  13.359   7.244   3.172
32124SOL    HW198269  13.396   7.323   3.131
32124SOL    HW298270  13.324   7.275   3.255
32125SOL     OW98271   7.140   5.542  12.289
32125SOL    HW198272   7.208   5.548  12.355
32125SOL    HW298273   7.083   5.471  12.319
32126SOL     OW98274  10.601   0.458   0.853
32126SOL    HW198275  10.569   0.371   0.877
32126SOL    HW298276  10.689   0.462   0.889
32127SOL     OW98277  12.139   8.095   0.132
32127SOL    HW198278  12.221   8.095   0.082
32127SOL    HW298279  12.092   8.172   0.099
32128SOL     OW98280   2.457   8.897   8.439
32128SOL    HW198281   2.525   8.876   8.374
32128SOL    HW298282   2.486   8.854   8.519
32129SOL     OW98283   6.422   5.032   6.994
32129SOL    HW198284   6.422   5.113   6.942
32129SOL    HW298285   6.502   5.037   7.046
32130SOL     OW98286   8.097   8.479   7.490
32130SOL    HW198287   8.061   8.392   7.470
32130SOL    HW298288   8.177   8.485   7.438
32131SOL     OW98289   0.226  11.281   0.360
32131SOL    HW198290   0.246  11.348   0.295
32131SOL    HW298291   0.133  11.262   0.348
32132SOL     OW98292   0.764   7.534   9.417
32132SOL    HW198293   0.793   7.617   9.456
32132SOL    HW298294   0.668   7.543   9.412
32133SOL     OW98295  10.396   5.592   4.455
32133SOL    HW198296  10.490   5.593   4.436
32133SOL    HW298297  10.358   5.656   4.394
32134SOL     OW98298   4.965   2.786  10.200
32134SOL    HW198299   4.955   2.696  10.167
32134SOL    HW298300   4.976   2.775  10.294
32135SOL     OW98301  10.108   4.225   1.144
32135SOL    HW198302  10.175   4.247   1.080
32135SOL    HW298303  10.027   4.218   1.092
32136SOL     OW98304  13.077  12.154   6.506
32136SOL    HW198305  12.991  12.147   6.548
32136SOL    HW298306  13.085  12.072   6.456
32137SOL     OW98307   6.370   2.487  11.318
32137SOL    HW198308   6.341   2.510  11.407
32137SOL    HW298309   6.464   2.473  11.327
32138SOL     OW98310   8.691  13.766   2.432
32138SOL    HW198311   8.613  13.774   2.487
32138SOL    HW298312   8.659  13.781   2.343
32139SOL     OW98313   2.022   7.610   9.824
32139SOL    HW198314   1.997   7.620   9.732
32139SOL    HW298315   2.025   7.699   9.858
32140SOL     OW98316   5.455   1.215   4.355
32140SOL    HW198317   5.531   1.179   4.309
32140SOL    HW298318   5.388   1.147   4.349
32141SOL     OW98319  13.112   9.077   8.869
32141SOL    HW198320  13.057   9.116   8.801
32141SOL    HW298321  13.196   9.063   8.827
32142SOL     OW98322  13.966   6.751   4.080
32142SOL    HW198323  14.042   6.784   4.129
32142SOL    HW298324  13.891   6.796   4.119
32143SOL     OW98325   9.859  14.257  14.469
32143SOL    HW198326   9.779  14.297  14.503
32143SOL    HW298327   9.914  14.331  14.444
32144SOL     OW98328   6.230   9.248   5.201
32144SOL    HW198329   6.152   9.214   5.243
32144SOL    HW298330   6.199   9.284   5.118
32145SOL     OW98331   5.819   9.901   4.444
32145SOL    HW198332   5.844   9.920   4.534
32145SOL    HW298333   5.748   9.963   4.425
32146SOL     OW98334   0.646   2.317   6.119
32146SOL    HW198335   0.604   2.327   6.034
32146SOL    HW298336   0.730   2.363   6.110
32147SOL     OW98337   4.785   4.551   3.949
32147SOL    HW198338   4.825   4.573   4.033
32147SOL    HW298339   4.743   4.633   3.921
32148SOL     OW98340   0.361  11.778  13.200
32148SOL    HW198341   0.401  11.846  13.146
32148SOL    HW298342   0.394  11.696  13.163
32149SOL     OW98343  11.139   9.594  11.136
32149SOL    HW198344  11.050   9.599  11.102
32149SOL    HW298345  11.170   9.507  11.109
32150SOL     OW98346  12.903  12.181   1.122
32150SOL    HW198347  12.812  12.187   1.094
32150SOL    HW298348  12.908  12.099   1.171
32151SOL     OW98349   0.067   8.727   7.829
32151SOL    HW198350   0.016   8.777   7.892
32151SOL    HW298351   0.002   8.686   7.772
32152SOL     OW98352  14.520  10.339  11.968
32152SOL    HW198353  14.454  10.271  11.958
32152SOL    HW298354  14.592  10.312  11.911
32153SOL     OW98355  14.481  14.839   3.741
32153SOL    HW198356  14.513  14.850   3.830
32153SOL    HW298357  14.395   0.011   3.740
32154SOL     OW98358  12.265   0.158  14.249
32154SOL    HW198359  12.304   0.147  14.336
32154SOL    HW298360  12.262   0.253  14.237
32155SOL     OW98361  13.998  12.418   9.794
32155SOL    HW198362  13.984  12.325   9.777
32155SOL    HW298363  14.061  12.419   9.867
32156SOL     OW98364  13.944  14.384  14.382
32156SOL    HW198365  13.992  14.385  14.465
32156SOL    HW298366  14.011  14.393  14.315
32157SOL     OW98367  13.383   7.234  11.511
32157SOL    HW198368  13.411   7.200  11.596
32157SOL    HW298369  13.315   7.298  11.532
32158SOL     OW98370  11.498  11.470   5.189
32158SOL    HW198371  11.532  11.410   5.123
32158SOL    HW298372  11.474  11.413   5.262
32159SOL     OW98373  11.326   4.395   5.175
32159SOL    HW198374  11.391   4.325   5.173
32159SOL    HW298375  11.244   4.352   5.201
32160SOL     OW98376   0.501  11.947   8.639
32160SOL    HW198377   0.462  11.868   8.677
32160SOL    HW298378   0.457  11.957   8.555
32161SOL     OW98379   2.215   9.128   5.718
32161SOL    HW198380   2.125   9.160   5.713
32161SOL    HW298381   2.262   9.199   5.763
32162SOL     OW98382  13.225   4.148   2.279
32162SOL    HW198383  13.319   4.134   2.288
32162SOL    HW298384  13.199   4.190   2.362
32163SOL     OW98385   7.013   4.911   8.187
32163SOL    HW198386   6.949   4.922   8.116
32163SOL    HW298387   7.093   4.952   8.153
32164SOL     OW98388  11.978   8.330   6.796
32164SOL    HW198389  11.897   8.279   6.794
32164SOL    HW298390  12.044   8.269   6.829
32165SOL     OW98391  11.305   9.999   2.660
32165SOL    HW198392  11.386   9.957   2.690
32165SOL    HW298393  11.329  10.090   2.646
32166SOL     OW98394   2.689   3.031   9.475
32166SOL    HW198395   2.784   3.023   9.473
32166SOL    HW298396   2.658   2.947   9.506
32167SOL     OW98397   9.296   6.574  13.955
32167SOL    HW198398   9.248   6.548  14.034
32167SOL    HW298399   9.381   6.604  13.988
32168SOL     OW98400   7.376  10.318   0.090
32168SOL    HW198401   7.330  10.402   0.093
32168SOL    HW298402   7.462  10.338   0.054
32169SOL     OW98403  10.149   8.726   0.502
32169SOL    HW198404  10.129   8.819   0.511
32169SOL    HW298405  10.065   8.682   0.515
32170SOL     OW98406  10.948  13.956   3.780
32170SOL    HW198407  10.971  13.969   3.872
32170SOL    HW298408  11.019  13.903   3.745
32171SOL     OW98409   7.406   4.823   2.501
32171SOL    HW198410   7.319   4.835   2.462
32171SOL    HW298411   7.467   4.843   2.430
32172SOL     OW98412  14.828   0.677   4.718
32172SOL    HW198413   0.045   0.708   4.693
32172SOL    HW298414  14.776   0.756   4.730
32173SOL     OW98415   9.235   2.983   9.963
32173SOL    HW198416   9.301   2.933  10.011
32173SOL    HW298417   9.247   3.074   9.993
32174SOL     OW98418  12.349   5.672   2.280
32174SOL    HW198419  12.438   5.636   2.286
32174SOL    HW298420  12.311   5.658   2.366
32175SOL     OW98421   1.660   5.173   9.645
32175SOL    HW198422   1.587   5.216   9.602
32175SOL    HW298423   1.678   5.096   9.591
32176SOL     OW98424   3.382   4.239   1.882
32176SOL    HW198425   3.418   4.299   1.948
32176SOL    HW298426   3.459   4.195   1.846
32177SOL     OW98427   1.551   4.908  14.480
32177SOL    HW198428   1.609   4.852  14.428
32177SOL    HW298429   1.542   4.987  14.427
32178SOL     OW98430   7.828   6.381   5.276
32178SOL    HW198431   7.771   6.453   5.250
32178SOL    HW298432   7.905   6.423   5.313
32179SOL     OW98433   0.811  10.997  12.946
32179SOL    HW198434   0.764  10.954  13.018
32179SOL    HW298435   0.775  10.958  12.867
32180SOL     OW98436   7.247  14.731   5.399
32180SOL    HW198437   7.336  14.733   5.435
32180SOL    HW298438   7.260  14.721   5.305
32181SOL     OW98439   6.441   6.256   3.597
32181SOL    HW198440   6.372   6.297   3.544
32181SOL    HW298441   6.435   6.299   3.682
32182SOL     OW98442   0.169   1.697   7.736
32182SOL    HW198443   0.110   1.722   7.808
32182SOL    HW298444   0.136   1.748   7.662
32183SOL     OW98445   7.197   1.308   5.780
32183SOL    HW198446   7.220   1.277   5.693
32183SOL    HW298447   7.271   1.362   5.808
32184SOL     OW98448   9.281   2.630  13.382
32184SOL    HW198449   9.187   2.633  13.368
32184SOL    HW298450   9.319   2.668  13.303
32185SOL     OW98451  10.124   3.116  14.141
32185SOL    HW198452  10.077   3.192  14.108
32185SOL    HW298453  10.156   3.071  14.063
32186SOL     OW98454   3.701   6.787   4.035
32186SOL    HW198455   3.669   6.842   4.107
32186SOL    HW298456   3.621   6.753   3.994
32187SOL     OW98457   9.456   8.006   1.255
32187SOL    HW198458   9.518   7.942   1.287
32187SOL    HW298459   9.411   8.038   1.333
32188SOL     OW98460   3.271   0.418   1.210
32188SOL    HW198461   3.203   0.363   1.172
32188SOL    HW298462   3.345   0.411   1.149
32189SOL     OW98463  13.027   3.339   5.827
32189SOL    HW198464  12.969   3.283   5.776
32189SOL    HW298465  13.019   3.306   5.917
32190SOL     OW98466   7.866  10.244  12.406
32190SOL    HW198467   7.793  10.197  12.447
32190SOL    HW298468   7.853  10.335  12.433
32191SOL     OW98469   4.953  10.499   7.953
32191SOL    HW198470   4.931  10.439   8.024
32191SOL    HW298471   4.975  10.581   7.998
32192SOL     OW98472   4.737   6.986   3.127
32192SOL    HW198473   4.668   7.002   3.063
32192SOL    HW298474   4.735   7.061   3.185
32193SOL     OW98475   4.879   8.736   8.915
32193SOL    HW198476   4.896   8.778   9.000
32193SOL    HW298477   4.791   8.700   8.923
32194SOL     OW98478   4.366   0.933  11.102
32194SOL    HW198479   4.370   0.850  11.055
32194SOL    HW298480   4.457   0.951  11.126
32195SOL     OW98481   7.981   1.798   5.819
32195SOL    HW198482   8.063   1.751   5.807
32195SOL    HW298483   7.929   1.777   5.741
32196SOL     OW98484   1.753   2.050   6.247
32196SOL    HW198485   1.692   2.122   6.263
32196SOL    HW298486   1.718   2.005   6.170
32197SOL     OW98487   1.608  12.251   3.929
32197SOL    HW198488   1.575  12.316   3.866
32197SOL    HW298489   1.563  12.170   3.906
32198SOL     OW98490  14.635   5.115   1.381
32198SOL    HW198491  14.581   5.167   1.439
32198SOL    HW298492  14.709   5.172   1.359
32199SOL     OW98493   2.547   9.933   8.289
32199SOL    HW198494   2.532   9.843   8.260
32199SOL    HW298495   2.537   9.930   8.384
32200SOL     OW98496  14.354   9.637   1.879
32200SOL    HW198497  14.353   9.609   1.787
32200SOL    HW298498  14.447   9.644   1.901
32201SOL     OW98499  11.262   4.191   1.957
32201SOL    HW198500  11.288   4.140   2.033
32201SOL    HW298501  11.343   4.230   1.925
32202SOL     OW98502   6.468   7.590  11.228
32202SOL    HW198503   6.467   7.495  11.241
32202SOL    HW298504   6.553   7.618  11.262
32203SOL     OW98505   1.575  12.868   0.275
32203SOL    HW198506   1.549  12.960   0.279
32203SOL    HW298507   1.669  12.871   0.256
32204SOL     OW98508  12.412  11.042   3.001
32204SOL    HW198509  12.400  11.136   3.013
32204SOL    HW298510  12.344  11.001   3.054
32205SOL     OW98511   5.261   5.886   1.034
32205SOL    HW198512   5.267   5.911   1.126
32205SOL    HW298513   5.300   5.799   1.030
32206SOL     OW98514   1.270  12.097   7.643
32206SOL    HW198515   1.280  12.005   7.617
32206SOL    HW298516   1.246  12.143   7.563
32207SOL     OW98517  13.742   3.860   2.205
32207SOL    HW198518  13.775   3.783   2.251
32207SOL    HW298519  13.809   3.879   2.139
32208SOL     OW98520   7.310  13.084  13.429
32208SOL    HW198521   7.257  13.162  13.445
32208SOL    HW298522   7.347  13.098  13.342
32209SOL     OW98523   7.124   1.219   9.637
32209SOL    HW198524   7.119   1.308   9.602
32209SOL    HW298525   7.193   1.177   9.586
32210SOL     OW98526  14.763   4.533  10.857
32210SOL    HW198527  14.755   4.567  10.946
32210SOL    HW298528  14.855   4.507  10.849
32211SOL     OW98529  13.351   4.184   1.781
32211SOL    HW198530  13.365   4.234   1.862
32211SOL    HW298531  13.268   4.217   1.747
32212SOL     OW98532   5.283  11.170   9.297
32212SOL    HW198533   5.305  11.202   9.384
32212SOL    HW298534   5.220  11.099   9.312
32213SOL     OW98535   8.556   3.840  10.383
32213SOL    HW198536   8.509   3.889  10.450
32213SOL    HW298537   8.594   3.766  10.429
32214SOL     OW98538  12.303  14.137   4.593
32214SOL    HW198539  12.342  14.140   4.506
32214SOL    HW298540  12.211  14.115   4.577
32215SOL     OW98541   7.442   8.818  12.265
32215SOL    HW198542   7.474   8.870  12.339
32215SOL    HW298543   7.366   8.771  12.299
32216SOL     OW98544  14.447   1.197   5.192
32216SOL    HW198545  14.542   1.192   5.209
32216SOL    HW298546  14.412   1.117   5.231
32217SOL     OW98547  10.499   2.036   2.850
32217SOL    HW198548  10.487   2.124   2.815
32217SOL    HW298549  10.420   2.020   2.901
32218SOL     OW98550  11.920  12.662   9.618
32218SOL    HW198551  11.974  12.607   9.675
32218SOL    HW298552  11.830  12.647   9.649
32219SOL     OW98553   2.024  14.288  11.254
32219SOL    HW198554   2.040  14.370  11.300
32219SOL    HW298555   1.954  14.308  11.192
32220SOL     OW98556   5.296   8.109   3.831
32220SOL    HW198557   5.265   8.194   3.802
32220SOL    HW298558   5.297   8.115   3.927
32221SOL     OW98559  13.930  13.391  10.144
32221SOL    HW198560  13.951  13.457  10.210
32221SOL    HW298561  13.879  13.438  10.078
32222SOL     OW98562   4.449  13.912   2.180
32222SOL    HW198563   4.529  13.871   2.146
32222SOL    HW298564   4.419  13.851   2.248
32223SOL     OW98565   0.608   4.670  10.665
32223SOL    HW198566   0.686   4.639  10.712
32223SOL    HW298567   0.546   4.596  10.670
32224SOL     OW98568  13.126  11.498  10.247
32224SOL    HW198569  13.168  11.531  10.327
32224SOL    HW298570  13.136  11.403  10.253
32225SOL     OW98571   3.911  13.300   0.479
32225SOL    HW198572   3.983  13.337   0.428
32225SOL    HW298573   3.929  13.328   0.569
32226SOL     OW98574   5.575  11.057   8.900
32226SOL    HW198575   5.549  11.038   8.990
32226SOL    HW298576   5.559  11.151   8.890
32227SOL     OW98577   7.785   7.136   8.936
32227SOL    HW198578   7.776   7.201   9.005
32227SOL    HW298579   7.723   7.164   8.868
32228SOL     OW98580   1.262   9.297  10.185
32228SOL    HW198581   1.232   9.372  10.237
32228SOL    HW298582   1.208   9.300  10.106
32229SOL     OW98583   9.915   7.647  14.090
32229SOL    HW198584   9.930   7.734  14.128
32229SOL    HW298585   9.987   7.636  14.028
32230SOL     OW98586   1.663   3.776  14.217
32230SOL    HW198587   1.636   3.780  14.309
32230SOL    HW298588   1.757   3.755  14.220
32231SOL     OW98589   6.168   3.592   3.537
32231SOL    HW198590   6.196   3.553   3.454
32231SOL    HW298591   6.072   3.586   3.535
32232SOL     OW98592   5.661  14.801   9.408
32232SOL    HW198593   5.743  14.849   9.402
32232SOL    HW298594   5.677  14.719   9.362
32233SOL     OW98595   0.566   5.060   7.498
32233SOL    HW198596   0.505   5.115   7.549
32233SOL    HW298597   0.652   5.095   7.518
32234SOL     OW98598   6.746  10.606   4.681
32234SOL    HW198599   6.702  10.565   4.756
32234SOL    HW298600   6.777  10.533   4.628
32235SOL     OW98601   1.602   7.041   2.097
32235SOL    HW198602   1.570   7.130   2.112
32235SOL    HW298603   1.682   7.035   2.149
32236SOL     OW98604  10.464   0.659   4.737
32236SOL    HW198605  10.551   0.645   4.775
32236SOL    HW298606  10.430   0.737   4.781
32237SOL     OW98607  11.970   0.582   9.209
32237SOL    HW198608  11.941   0.672   9.222
32237SOL    HW298609  11.944   0.536   9.289
32238SOL     OW98610   5.668   4.181  12.352
32238SOL    HW198611   5.693   4.223  12.434
32238SOL    HW298612   5.643   4.253  12.295
32239SOL     OW98613  13.768  11.539  11.494
32239SOL    HW198614  13.815  11.561  11.414
32239SOL    HW298615  13.798  11.604  11.558
32240SOL     OW98616   9.400   8.748  11.319
32240SOL    HW198617   9.412   8.751  11.413
32240SOL    HW298618   9.474   8.798  11.283
32241SOL     OW98619   8.099  11.452  11.297
32241SOL    HW198620   8.113  11.463  11.392
32241SOL    HW298621   8.143  11.528  11.258
32242SOL     OW98622   2.542   4.766   6.475
32242SOL    HW198623   2.583   4.691   6.431
32242SOL    HW298624   2.497   4.727   6.551
32243SOL     OW98625  14.481   4.652   5.696
32243SOL    HW198626  14.487   4.645   5.600
32243SOL    HW298627  14.539   4.582   5.728
32244SOL     OW98628   2.769   3.576  14.415
32244SOL    HW198629   2.774   3.668  14.439
32244SOL    HW298630   2.860   3.547  14.413
32245SOL     OW98631  12.659   1.176   3.569
32245SOL    HW198632  12.723   1.236   3.531
32245SOL    HW298633  12.641   1.212   3.656
32246SOL     OW98634   2.122   4.436   2.883
32246SOL    HW198635   2.173   4.492   2.942
32246SOL    HW298636   2.074   4.497   2.827
32247SOL     OW98637   2.673  12.776   5.428
32247SOL    HW198638   2.579  12.759   5.441
32247SOL    HW298639   2.712  12.689   5.423
32248SOL     OW98640   7.339  13.592  10.846
32248SOL    HW198641   7.423  13.557  10.876
32248SOL    HW298642   7.329  13.675  10.894
32249SOL     OW98643   6.456  12.878   9.495
32249SOL    HW198644   6.431  12.921   9.413
32249SOL    HW298645   6.436  12.785   9.481
32250SOL     OW98646   1.961  12.469  10.757
32250SOL    HW198647   1.866  12.469  10.755
32250SOL    HW298648   1.987  12.484  10.666
32251SOL     OW98649  11.953   6.860  10.218
32251SOL    HW198650  11.866   6.838  10.250
32251SOL    HW298651  11.939   6.890  10.128
32252SOL     OW98652   8.037   9.599  14.647
32252SOL    HW198653   7.970   9.531  14.650
32252SOL    HW298654   7.988   9.681  14.657
32253SOL     OW98655   9.400   2.701   2.168
32253SOL    HW198656   9.456   2.625   2.186
32253SOL    HW298657   9.332   2.668   2.110
32254SOL     OW98658   3.617  11.944   0.189
32254SOL    HW198659   3.542  11.885   0.186
32254SOL    HW298660   3.677  11.903   0.252
32255SOL     OW98661   6.101  12.002   7.364
32255SOL    HW198662   6.064  11.915   7.351
32255SOL    HW298663   6.150  11.995   7.446
32256SOL     OW98664   0.178  12.109   8.505
32256SOL    HW198665   0.087  12.122   8.530
32256SOL    HW298666   0.193  12.174   8.435
32257SOL     OW98667  12.241  13.796   3.450
32257SOL    HW198668  12.172  13.794   3.384
32257SOL    HW298669  12.321  13.773   3.401
32258SOL     OW98670   6.835   6.690   1.833
32258SOL    HW198671   6.821   6.768   1.886
32258SOL    HW298672   6.890   6.720   1.760
32259SOL     OW98673   9.894  12.314   6.125
32259SOL    HW198674   9.968  12.370   6.148
32259SOL    HW298675   9.906  12.295   6.032
32260SOL     OW98676  13.396  10.964   5.537
32260SOL    HW198677  13.310  10.991   5.568
32260SOL    HW298678  13.458  11.016   5.589
32261SOL     OW98679  10.953  10.476  14.422
32261SOL    HW198680  11.031  10.428  14.450
32261SOL    HW298681  10.907  10.415  14.364
32262SOL     OW98682   7.242   3.952   2.847
32262SOL    HW198683   7.228   4.021   2.912
32262SOL    HW298684   7.219   3.992   2.763
32263SOL     OW98685   0.508  10.351  10.431
32263SOL    HW198686   0.423  10.306  10.433
32263SOL    HW298687   0.485  10.444  10.435
32264SOL     OW98688   3.414   1.934   8.250
32264SOL    HW198689   3.482   1.971   8.306
32264SOL    HW298690   3.335   1.984   8.272
32265SOL     OW98691  11.637   8.758   1.158
32265SOL    HW198692  11.726   8.725   1.172
32265SOL    HW298693  11.642   8.851   1.183
32266SOL     OW98694   2.910   6.116   1.519
32266SOL    HW198695   2.867   6.110   1.604
32266SOL    HW298696   3.003   6.125   1.540
32267SOL     OW98697  11.359   2.506  13.163
32267SOL    HW198698  11.315   2.446  13.103
32267SOL    HW298699  11.423   2.552  13.108
32268SOL     OW98700  14.152   8.869  10.978
32268SOL    HW198701  14.183   8.912  10.898
32268SOL    HW298702  14.131   8.941  11.037
32269SOL     OW98703   2.550  14.049   7.419
32269SOL    HW198704   2.516  13.981   7.478
32269SOL    HW298705   2.479  14.112   7.412
32270SOL     OW98706   2.699  13.542   4.498
32270SOL    HW198707   2.677  13.529   4.590
32270SOL    HW298708   2.787  13.579   4.500
32271SOL     OW98709   5.921   7.036  11.581
32271SOL    HW198710   5.845   7.018  11.526
32271SOL    HW298711   5.891   7.021  11.671
32272SOL     OW98712   3.930   5.258   8.825
32272SOL    HW198713   3.924   5.181   8.769
32272SOL    HW298714   3.885   5.327   8.776
32273SOL     OW98715   3.208   2.570   2.975
32273SOL    HW198716   3.242   2.643   2.924
32273SOL    HW298717   3.275   2.555   3.043
32274SOL     OW98718   5.410  11.220   8.350
32274SOL    HW198719   5.345  11.284   8.377
32274SOL    HW298720   5.474  11.269   8.298
32275SOL     OW98721  10.229   4.629   2.201
32275SOL    HW198722  10.156   4.574   2.229
32275SOL    HW298723  10.209   4.652   2.111
32276SOL     OW98724   3.649   2.779  11.249
32276SOL    HW198725   3.688   2.693  11.232
32276SOL    HW298726   3.558   2.759  11.272
32277SOL     OW98727   6.250   8.111   0.174
32277SOL    HW198728   6.242   8.205   0.160
32277SOL    HW298729   6.224   8.071   0.090
32278SOL     OW98730  12.299   4.004   8.215
32278SOL    HW198731  12.347   4.052   8.283
32278SOL    HW298732  12.322   4.049   8.133
32279SOL     OW98733   9.363  10.028   2.308
32279SOL    HW198734   9.326  10.096   2.251
32279SOL    HW298735   9.312  10.034   2.389
32280SOL     OW98736   2.271   6.749   0.893
32280SOL    HW198737   2.230   6.798   0.963
32280SOL    HW298738   2.292   6.814   0.826
32281SOL     OW98739  13.326  11.516   9.319
32281SOL    HW198740  13.379  11.474   9.253
32281SOL    HW298741  13.388  11.547   9.385
32282SOL     OW98742   6.753   4.131   5.668
32282SOL    HW198743   6.659   4.149   5.658
32282SOL    HW298744   6.781   4.101   5.582
32283SOL     OW98745   7.878   9.239   0.149
32283SOL    HW198746   7.962   9.213   0.111
32283SOL    HW298747   7.882   9.334   0.153
32284SOL     OW98748   9.877   5.931   1.790
32284SOL    HW198749   9.908   5.922   1.881
32284SOL    HW298750   9.913   6.015   1.761
32285SOL     OW98751   5.162  14.422   4.217
32285SOL    HW198752   5.183  14.507   4.177
32285SOL    HW298753   5.137  14.367   4.143
32286SOL     OW98754  11.039   3.398   1.724
32286SOL    HW198755  10.954   3.442   1.729
32286SOL    HW298756  11.099   3.466   1.694
32287SOL     OW98757   2.803  10.710   0.746
32287SOL    HW198758   2.835  10.632   0.793
32287SOL    HW298759   2.843  10.703   0.659
32288SOL     OW98760  11.709   9.571  14.340
32288SOL    HW198761  11.784   9.628  14.322
32288SOL    HW298762  11.721   9.544  14.432
32289SOL     OW98763  14.842   9.866   3.462
32289SOL    HW198764  14.787   9.922   3.517
32289SOL    HW298765   0.017   9.926   3.403
32290SOL     OW98766   4.137  12.185   3.958
32290SOL    HW198767   4.215  12.133   3.939
32290SOL    HW298768   4.081  12.127   4.009
32291SOL     OW98769   3.713  12.937   5.379
32291SOL    HW198770   3.684  12.974   5.296
32291SOL    HW298771   3.772  12.865   5.354
32292SOL     OW98772   6.835  11.209   3.959
32292SOL    HW198773   6.872  11.142   3.901
32292SOL    HW298774   6.816  11.162   4.041
32293SOL     OW98775  11.467   8.152  10.260
32293SOL    HW198776  11.388   8.148  10.314
32293SOL    HW298777  11.476   8.245  10.238
32294SOL     OW98778  11.982   4.883   2.206
32294SOL    HW198779  11.926   4.924   2.272
32294SOL    HW298780  11.923   4.825   2.157
32295SOL     OW98781   8.362  11.663  10.323
32295SOL    HW198782   8.327  11.663  10.234
32295SOL    HW298783   8.386  11.572  10.340
32296SOL     OW98784   4.040   0.427   9.319
32296SOL    HW198785   4.063   0.341   9.285
32296SOL    HW298786   3.945   0.432   9.311
32297SOL     OW98787  13.314  13.932   8.133
32297SOL    HW198788  13.228  13.974   8.130
32297SOL    HW298789  13.376  14.005   8.122
32298SOL     OW98790  10.098   3.997   0.795
32298SOL    HW198791  10.167   4.036   0.742
32298SOL    HW298792  10.088   3.908   0.759
32299SOL     OW98793  12.177   7.799   2.320
32299SOL    HW198794  12.178   7.895   2.314
32299SOL    HW298795  12.084   7.776   2.317
32300SOL     OW98796   8.814  13.112   6.742
32300SOL    HW198797   8.903  13.146   6.742
32300SOL    HW298798   8.788  13.111   6.834
32301SOL     OW98799   3.828   9.870   6.052
32301SOL    HW198800   3.756   9.862   6.114
32301SOL    HW298801   3.797   9.827   5.973
32302SOL     OW98802   4.359  14.858   0.742
32302SOL    HW198803   4.281   0.017   0.790
32302SOL    HW298804   4.402  14.795   0.800
32303SOL     OW98805  12.210  11.145   3.795
32303SOL    HW198806  12.134  11.157   3.852
32303SOL    HW298807  12.263  11.078   3.839
32304SOL     OW98808  14.509   2.293   1.533
32304SOL    HW198809  14.481   2.329   1.449
32304SOL    HW298810  14.508   2.368   1.593
32305SOL     OW98811   9.107  11.419  13.398
32305SOL    HW198812   9.113  11.421  13.493
32305SOL    HW298813   9.053  11.495  13.375
32306SOL     OW98814  12.647   2.195  12.479
32306SOL    HW198815  12.666   2.103  12.497
32306SOL    HW298816  12.656   2.203  12.384
32307SOL     OW98817   5.977  14.546  12.545
32307SOL    HW198818   5.931  14.580  12.622
32307SOL    HW298819   5.928  14.580  12.470
32308SOL     OW98820  11.575  10.545  12.722
32308SOL    HW198821  11.594  10.531  12.630
32308SOL    HW298822  11.577  10.457  12.761
32309SOL     OW98823   6.192   9.344  14.543
32309SOL    HW198824   6.115   9.290  14.560
32309SOL    HW298825   6.181   9.420  14.600
32310SOL     OW98826   6.105   2.091  12.828
32310SOL    HW198827   6.081   2.160  12.767
32310SOL    HW298828   6.191   2.060  12.796
32311SOL     OW98829   2.342   3.980   4.951
32311SOL    HW198830   2.324   3.992   5.044
32311SOL    HW298831   2.330   3.886   4.936
32312SOL     OW98832   6.796  12.538  13.407
32312SOL    HW198833   6.811  12.509  13.317
32312SOL    HW298834   6.729  12.606  13.400
32313SOL     OW98835  11.551   6.585   9.908
32313SOL    HW198836  11.486   6.622   9.968
32313SOL    HW298837  11.529   6.624   9.823
32314SOL     OW98838   8.197   8.104   0.518
32314SOL    HW198839   8.160   8.191   0.532
32314SOL    HW298840   8.277   8.103   0.571
32315SOL     OW98841   8.724   5.824   2.667
32315SOL    HW198842   8.716   5.737   2.705
32315SOL    HW298843   8.692   5.814   2.577
32316SOL     OW98844   9.684  12.445   4.663
32316SOL    HW198845   9.730  12.476   4.741
32316SOL    HW298846   9.596  12.480   4.672
32317SOL     OW98847   9.304   9.534   2.962
32317SOL    HW198848   9.369   9.579   3.016
32317SOL    HW298849   9.325   9.441   2.973
32318SOL     OW98850   5.340   9.528   5.911
32318SOL    HW198851   5.324   9.558   6.001
32318SOL    HW298852   5.303   9.598   5.856
32319SOL     OW98853   0.731   1.451   8.990
32319SOL    HW198854   0.692   1.424   8.907
32319SOL    HW298855   0.681   1.403   9.056
32320SOL     OW98856   1.348  11.705   2.565
32320SOL    HW198857   1.420  11.650   2.534
32320SOL    HW298858   1.386  11.792   2.576
32321SOL     OW98859   7.021   1.487   5.075
32321SOL    HW198860   6.940   1.460   5.031
32321SOL    HW298861   7.071   1.530   5.006
32322SOL     OW98862   9.136   8.679   6.809
32322SOL    HW198863   9.172   8.726   6.734
32322SOL    HW298864   9.153   8.737   6.884
32323SOL     OW98865   4.318   2.103   8.988
32323SOL    HW198866   4.362   2.152   8.919
32323SOL    HW298867   4.381   2.037   9.016
32324SOL     OW98868   6.170  12.847   3.127
32324SOL    HW198869   6.188  12.780   3.062
32324SOL    HW298870   6.240  12.912   3.115
32325SOL     OW98871  11.361  14.546   7.467
32325SOL    HW198872  11.361  14.602   7.389
32325SOL    HW298873  11.441  14.571   7.514
32326SOL     OW98874  13.287   0.646  13.812
32326SOL    HW198875  13.263   0.669  13.723
32326SOL    HW298876  13.283   0.728  13.861
32327SOL     OW98877   4.620  11.632   9.963
32327SOL    HW198878   4.660  11.700  10.018
32327SOL    HW298879   4.599  11.676   9.881
32328SOL     OW98880   1.860  13.935   4.772
32328SOL    HW198881   1.832  13.844   4.761
32328SOL    HW298882   1.784  13.987   4.744
32329SOL     OW98883  14.702   4.403   3.201
32329SOL    HW198884  14.651   4.376   3.277
32329SOL    HW298885  14.744   4.484   3.228
32330SOL     OW98886  10.274   3.565  13.234
32330SOL    HW198887  10.309   3.591  13.148
32330SOL    HW298888  10.180   3.583  13.228
32331SOL     OW98889  12.042   4.864   3.392
32331SOL    HW198890  12.117   4.810   3.367
32331SOL    HW298891  12.048   4.871   3.487
32332SOL     OW98892   7.564   4.168  12.496
32332SOL    HW198893   7.499   4.211  12.441
32332SOL    HW298894   7.645   4.217  12.481
32333SOL     OW98895   0.051   4.033   1.327
32333SOL    HW198896   0.124   4.092   1.347
32333SOL    HW298897   0.093   3.953   1.297
32334SOL     OW98898   2.631   4.876   3.034
32334SOL    HW198899   2.687   4.915   2.966
32334SOL    HW298900   2.656   4.921   3.115
32335SOL     OW98901   6.284   0.138  10.366
32335SOL    HW198902   6.229   0.089  10.427
32335SOL    HW298903   6.225   0.160  10.294
32336SOL     OW98904   8.728   6.849  11.165
32336SOL    HW198905   8.725   6.878  11.256
32336SOL    HW298906   8.754   6.927  11.116
32337SOL     OW98907   6.301   2.089  14.161
32337SOL    HW198908   6.371   2.081  14.225
32337SOL    HW298909   6.345   2.117  14.081
32338SOL     OW98910  13.981   1.416   0.197
32338SOL    HW198911  14.070   1.423   0.161
32338SOL    HW298912  13.924   1.441   0.125
32339SOL     OW98913   0.576   6.554   4.507
32339SOL    HW198914   0.581   6.568   4.601
32339SOL    HW298915   0.619   6.469   4.493
32340SOL     OW98916   8.063  10.904  10.505
32340SOL    HW198917   8.123  10.859  10.446
32340SOL    HW298918   7.980  10.857  10.496
32341SOL     OW98919   3.262   2.669   0.804
32341SOL    HW198920   3.307   2.614   0.740
32341SOL    HW298921   3.281   2.628   0.888
32342SOL     OW98922  12.911   2.496   4.055
32342SOL    HW198923  12.840   2.431   4.055
32342SOL    HW298924  12.885   2.559   4.122
32343SOL     OW98925   9.630  10.126   0.999
32343SOL    HW198926   9.675  10.041   1.001
32343SOL    HW298927   9.625  10.148   0.906
32344SOL     OW98928  11.616  13.839  10.121
32344SOL    HW198929  11.700  13.880  10.141
32344SOL    HW298930  11.593  13.792  10.201
32345SOL     OW98931   5.666  10.675   5.833
32345SOL    HW198932   5.578  10.700   5.859
32345SOL    HW298933   5.657  10.587   5.797
32346SOL     OW98934  10.508   4.018   1.774
32346SOL    HW198935  10.473   4.095   1.730
32346SOL    HW298936  10.590   4.000   1.728
32347SOL     OW98937   0.821   2.808   5.139
32347SOL    HW198938   0.761   2.835   5.069
32347SOL    HW298939   0.866   2.731   5.105
32348SOL     OW98940   3.609  10.540   2.073
32348SOL    HW198941   3.609  10.627   2.111
32348SOL    HW298942   3.518  10.522   2.052
32349SOL     OW98943   7.171   8.393   3.433
32349SOL    HW198944   7.265   8.412   3.441
32349SOL    HW298945   7.131   8.435   3.509
32350SOL     OW98946   8.376   7.538   5.572
32350SOL    HW198947   8.353   7.555   5.480
32350SOL    HW298948   8.419   7.453   5.571
32351SOL     OW98949  14.749  13.102   2.926
32351SOL    HW198950  14.709  13.021   2.893
32351SOL    HW298951  14.826  13.114   2.872
32352SOL     OW98952  13.936   9.855   2.075
32352SOL    HW198953  13.929   9.949   2.088
32352SOL    HW298954  13.933   9.844   1.979
32353SOL     OW98955  12.311  13.934   6.569
32353SOL    HW198956  12.291  14.027   6.572
32353SOL    HW298957  12.365  13.924   6.490
32354SOL     OW98958  11.622   9.034   1.357
32354SOL    HW198959  11.631   9.091   1.280
32354SOL    HW298960  11.577   9.088   1.421
32355SOL     OW98961   5.998   8.034  10.798
32355SOL    HW198962   6.028   7.981  10.872
32355SOL    HW298963   6.003   7.974  10.723
32356SOL     OW98964   8.980  11.925  12.953
32356SOL    HW198965   8.978  11.919  13.049
32356SOL    HW298966   8.891  11.903  12.926
32357SOL     OW98967   6.678   3.472   3.638
32357SOL    HW198968   6.719   3.543   3.688
32357SOL    HW298969   6.601   3.512   3.599
32358SOL     OW98970   5.307   0.377  11.088
32358SOL    HW198971   5.231   0.421  11.125
32358SOL    HW298972   5.382   0.416  11.132
32359SOL     OW98973   6.678  12.242  13.486
32359SOL    HW198974   6.748  12.294  13.525
32359SOL    HW298975   6.702  12.235  13.393
32360SOL     OW98976   1.718  14.711   0.170
32360SOL    HW198977   1.717  14.660   0.089
32360SOL    HW298978   1.630  14.702   0.205
32361SOL     OW98979   0.196   8.918   4.655
32361SOL    HW198980   0.131   8.852   4.679
32361SOL    HW298981   0.148   8.981   4.601
32362SOL     OW98982   0.576   5.340  10.491
32362SOL    HW198983   0.638   5.279  10.532
32362SOL    HW298984   0.540   5.290  10.417
32363SOL     OW98985  12.354  14.117   5.825
32363SOL    HW198986  12.402  14.034   5.819
32363SOL    HW298987  12.418  14.184   5.804
32364SOL     OW98988   7.652   0.745   0.328
32364SOL    HW198989   7.617   0.738   0.417
32364SOL    HW298990   7.721   0.810   0.334
32365SOL     OW98991   0.822  10.253  14.069
32365SOL    HW198992   0.899  10.310  14.072
32365SOL    HW298993   0.753  10.308  14.033
32366SOL     OW98994   5.757   4.721  13.403
32366SOL    HW198995   5.678   4.767  13.373
32366SOL    HW298996   5.742   4.630  13.379
32367SOL     OW98997  12.126  11.445   5.313
32367SOL    HW198998  12.213  11.422   5.281
32367SOL    HW298999  12.131  11.437   5.408
32368SOL     OW99000  11.000   8.247   8.083
32368SOL    HW199001  11.085   8.242   8.127
32368SOL    HW299002  10.977   8.340   8.088
32369SOL     OW99003   7.126   1.835   0.751
32369SOL    HW199004   7.074   1.898   0.802
32369SOL    HW299005   7.096   1.750   0.781
32370SOL     OW99006  13.653   1.379   7.527
32370SOL    HW199007  13.601   1.325   7.468
32370SOL    HW299008  13.685   1.450   7.472
32371SOL     OW99009  11.652   4.511  11.095
32371SOL    HW199010  11.594   4.588  11.093
32371SOL    HW299011  11.684   4.508  11.186
32372SOL     OW99012   8.573  14.601  13.661
32372SOL    HW199013   8.592  14.509  13.680
32372SOL    HW299014   8.630  14.622  13.587
32373SOL     OW99015  10.393   6.537  12.814
32373SOL    HW199016  10.323   6.473  12.816
32373SOL    HW299017  10.473   6.486  12.829
32374SOL     OW99018   8.016  12.559   0.383
32374SOL    HW199019   7.987  12.642   0.421
32374SOL    HW299020   8.048  12.508   0.458
32375SOL     OW99021   6.427   4.838   5.129
32375SOL    HW199022   6.334   4.850   5.147
32375SOL    HW299023   6.463   4.927   5.130
32376SOL     OW99024   6.699   7.444  10.237
32376SOL    HW199025   6.656   7.528  10.255
32376SOL    HW299026   6.652   7.381  10.290
32377SOL     OW99027   8.422   0.309   6.388
32377SOL    HW199028   8.342   0.354   6.359
32377SOL    HW299029   8.480   0.379   6.417
32378SOL     OW99030  12.896  11.133   1.996
32378SOL    HW199031  12.863  11.058   1.946
32378SOL    HW299032  12.817  11.181   2.021
32379SOL     OW99033  12.712   0.563   0.672
32379SOL    HW199034  12.655   0.510   0.728
32379SOL    HW299035  12.652   0.626   0.631
32380SOL     OW99036   7.084  10.974   9.303
32380SOL    HW199037   7.039  10.897   9.338
32380SOL    HW299038   7.115  10.947   9.217
32381SOL     OW99039   9.784  11.596   5.041
32381SOL    HW199040   9.735  11.526   4.997
32381SOL    HW299041   9.779  11.573   5.134
32382SOL     OW99042   1.700   5.285  11.326
32382SOL    HW199043   1.791   5.265  11.349
32382SOL    HW299044   1.701   5.294  11.230
32383SOL     OW99045   3.464   4.007   6.854
32383SOL    HW199046   3.529   3.937   6.863
32383SOL    HW299047   3.506   4.072   6.797
32384SOL     OW99048   0.844   8.187   4.975
32384SOL    HW199049   0.884   8.176   5.061
32384SOL    HW299050   0.884   8.267   4.941
32385SOL     OW99051   5.648  11.648   6.499
32385SOL    HW199052   5.712  11.597   6.448
32385SOL    HW299053   5.689  11.735   6.508
32386SOL     OW99054  11.565  10.616   4.865
32386SOL    HW199055  11.637  10.572   4.910
32386SOL    HW299056  11.600  10.638   4.779
32387SOL     OW99057  12.518  12.483  10.679
32387SOL    HW199058  12.449  12.543  10.653
32387SOL    HW299059  12.500  12.463  10.770
32388SOL     OW99060  10.562   5.465   5.755
32388SOL    HW199061  10.480   5.428   5.722
32388SOL    HW299062  10.574   5.425   5.841
32389SOL     OW99063   8.227   4.080   1.085
32389SOL    HW199064   8.156   4.137   1.114
32389SOL    HW299065   8.242   4.104   0.994
32390SOL     OW99066   3.821   5.787   9.981
32390SOL    HW199067   3.885   5.852  10.011
32390SOL    HW299068   3.799   5.815   9.892
32391SOL     OW99069   6.784   2.397   2.253
32391SOL    HW199070   6.814   2.319   2.300
32391SOL    HW299071   6.738   2.448   2.320
32392SOL     OW99072  11.943   0.183   8.809
32392SOL    HW199073  11.940   0.199   8.903
32392SOL    HW299074  11.857   0.147   8.788
32393SOL     OW99075   3.150  10.666  11.807
32393SOL    HW199076   3.142  10.571  11.812
32393SOL    HW299077   3.229  10.687  11.856
32394SOL     OW99078  13.022   7.685  11.581
32394SOL    HW199079  13.102   7.725  11.546
32394SOL    HW299080  13.052   7.600  11.616
32395SOL     OW99081  13.221  13.856  11.457
32395SOL    HW199082  13.259  13.785  11.407
32395SOL    HW299083  13.246  13.936  11.411
32396SOL     OW99084  12.908   4.664   0.321
32396SOL    HW199085  12.989   4.652   0.271
32396SOL    HW299086  12.932   4.642   0.411
32397SOL     OW99087  11.135   1.568   1.197
32397SOL    HW199088  11.136   1.488   1.143
32397SOL    HW299089  11.215   1.614   1.172
32398SOL     OW99090  12.161   9.557  10.580
32398SOL    HW199091  12.163   9.610  10.501
32398SOL    HW299092  12.188   9.616  10.650
32399SOL     OW99093   7.787  14.174   4.863
32399SOL    HW199094   7.733  14.197   4.788
32399SOL    HW299095   7.867  14.137   4.825
32400SOL     OW99096   2.369   0.406   4.952
32400SOL    HW199097   2.351   0.330   5.007
32400SOL    HW299098   2.405   0.370   4.871
32401SOL     OW99099   2.459   7.429   2.878
32401SOL    HW199100   2.544   7.393   2.902
32401SOL    HW299101   2.456   7.515   2.921
32402SOL     OW99102   7.294  10.651   7.429
32402SOL    HW199103   7.378  10.605   7.423
32402SOL    HW299104   7.307  10.717   7.497
32403SOL     OW99105  13.245   9.518   8.632
32403SOL    HW199106  13.237   9.551   8.722
32403SOL    HW299107  13.210   9.429   8.635
32404SOL     OW99108   8.977  12.489  14.316
32404SOL    HW199109   8.990  12.454  14.404
32404SOL    HW299110   8.959  12.582  14.328
32405SOL     OW99111   6.081   5.399   8.627
32405SOL    HW199112   6.107   5.346   8.702
32405SOL    HW299113   6.017   5.345   8.580
32406SOL     OW99114  13.657   2.044  14.017
32406SOL    HW199115  13.715   2.029  14.092
32406SOL    HW299116  13.619   2.131  14.034
32407SOL     OW99117  12.026   7.967   4.180
32407SOL    HW199118  12.096   7.990   4.118
32407SOL    HW299119  12.001   8.051   4.218
32408SOL     OW99120   1.842   0.386  13.485
32408SOL    HW199121   1.798   0.359  13.404
32408SOL    HW299122   1.771   0.392  13.549
32409SOL     OW99123   4.822  14.556  11.765
32409SOL    HW199124   4.895  14.509  11.724
32409SOL    HW299125   4.767  14.487  11.802
32410SOL     OW99126  12.572  10.616  12.628
32410SOL    HW199127  12.614  10.662  12.556
32410SOL    HW299128  12.644  10.580  12.680
32411SOL     OW99129   0.918   0.015  14.325
32411SOL    HW199130   0.836   0.028  14.276
32411SOL    HW299131   0.946   0.104  14.347
32412SOL     OW99132   1.507  10.866  10.520
32412SOL    HW199133   1.434  10.925  10.501
32412SOL    HW299134   1.522  10.876  10.614
32413SOL     OW99135   6.448   5.908   1.335
32413SOL    HW199136   6.477   5.989   1.376
32413SOL    HW299137   6.364   5.888   1.377
32414SOL     OW99138   1.187   8.499  10.535
32414SOL    HW199139   1.176   8.585  10.494
32414SOL    HW299140   1.192   8.518  10.629
32415SOL     OW99141   1.714   0.489  14.432
32415SOL    HW199142   1.789   0.476  14.375
32415SOL    HW299143   1.735   0.439  14.511
32416SOL     OW99144   5.808  10.760   1.833
32416SOL    HW199145   5.802  10.840   1.781
32416SOL    HW299146   5.808  10.790   1.924
32417SOL     OW99147   5.983   6.290   0.665
32417SOL    HW199148   5.891   6.311   0.649
32417SOL    HW299149   6.021   6.282   0.577
32418SOL     OW99150   6.856   8.657   2.530
32418SOL    HW199151   6.819   8.582   2.483
32418SOL    HW299152   6.780   8.713   2.548
32419SOL     OW99153  11.083  14.751   1.625
32419SOL    HW199154  11.105  14.832   1.672
32419SOL    HW299155  11.152  14.690   1.649
32420SOL     OW99156   8.681   1.438   5.071
32420SOL    HW199157   8.752   1.388   5.030
32420SOL    HW299158   8.616   1.448   5.002
32421SOL     OW99159  11.726  11.149   4.552
32421SOL    HW199160  11.780  11.080   4.515
32421SOL    HW299161  11.636  11.122   4.533
32422SOL     OW99162   9.679  13.162   6.216
32422SOL    HW199163   9.695  13.132   6.126
32422SOL    HW299164   9.759  13.138   6.264
32423SOL     OW99165  10.896   4.285   1.995
32423SOL    HW199166  10.902   4.192   2.015
32423SOL    HW299167  10.848   4.290   1.912
32424SOL     OW99168  10.859  12.592   8.672
32424SOL    HW199169  10.906  12.568   8.752
32424SOL    HW299170  10.774  12.626   8.703
32425SOL     OW99171   0.266  13.444  11.785
32425SOL    HW199172   0.335  13.437  11.719
32425SOL    HW299173   0.273  13.534  11.817
32426SOL     OW99174   7.425   7.174  14.509
32426SOL    HW199175   7.487   7.180  14.436
32426SOL    HW299176   7.342   7.205  14.473
32427SOL     OW99177  11.632  13.918   9.841
32427SOL    HW199178  11.570  13.975   9.796
32427SOL    HW299179  11.590  13.896   9.923
32428SOL     OW99180   6.757   6.668   5.300
32428SOL    HW199181   6.763   6.573   5.310
32428SOL    HW299182   6.695   6.681   5.229
32429SOL     OW99183   0.687   3.219  11.889
32429SOL    HW199184   0.719   3.268  11.965
32429SOL    HW299185   0.597   3.249  11.877
32430SOL     OW99186   0.484   4.457   0.095
32430SOL    HW199187   0.540   4.504   0.158
32430SOL    HW299188   0.426   4.525   0.060
32431SOL     OW99189   3.366   0.392   4.772
32431SOL    HW199190   3.389   0.437   4.691
32431SOL    HW299191   3.447   0.393   4.824
32432SOL     OW99192   4.239   8.441   8.795
32432SOL    HW199193   4.236   8.345   8.799
32432SOL    HW299194   4.191   8.469   8.873
32433SOL     OW99195   8.791   2.035  12.065
32433SOL    HW199196   8.782   1.943  12.042
32433SOL    HW299197   8.884   2.047  12.084
32434SOL     OW99198  10.347  13.654  10.258
32434SOL    HW199199  10.288  13.698  10.197
32434SOL    HW299200  10.290  13.622  10.328
32435SOL     OW99201  12.464   7.215   7.679
32435SOL    HW199202  12.553   7.251   7.689
32435SOL    HW299203  12.421   7.276   7.618
32436SOL     OW99204   5.568   4.895   5.476
32436SOL    HW199205   5.618   4.866   5.399
32436SOL    HW299206   5.636   4.918   5.540
32437SOL     OW99207   6.752  12.404   1.311
32437SOL    HW199208   6.811  12.424   1.238
32437SOL    HW299209   6.731  12.312   1.300
32438SOL     OW99210   1.320   0.098   1.476
32438SOL    HW199211   1.339   0.032   1.409
32438SOL    HW299212   1.271   0.166   1.428
32439SOL     OW99213  14.241  12.891   5.140
32439SOL    HW199214  14.213  12.915   5.052
32439SOL    HW299215  14.323  12.939   5.153
32440SOL     OW99216   4.691  13.017   5.916
32440SOL    HW199217   4.702  13.091   5.857
32440SOL    HW299218   4.629  12.960   5.872
32441SOL     OW99219   5.580   2.767  13.816
32441SOL    HW199220   5.559   2.859  13.801
32441SOL    HW299221   5.545   2.748  13.903
32442SOL     OW99222   0.267   9.651   3.794
32442SOL    HW199223   0.282   9.621   3.884
32442SOL    HW299224   0.352   9.681   3.764
32443SOL     OW99225   3.183  12.515  10.319
32443SOL    HW199226   3.089  12.520  10.335
32443SOL    HW299227   3.222  12.562  10.393
32444SOL     OW99228   0.756   9.241   2.621
32444SOL    HW199229   0.848   9.231   2.597
32444SOL    HW299230   0.733   9.157   2.660
32445SOL     OW99231  10.650  14.034   0.198
32445SOL    HW199232  10.602  14.044   0.280
32445SOL    HW299233  10.598  14.082   0.133
32446SOL     OW99234   7.697   5.173  12.611
32446SOL    HW199235   7.604   5.152  12.596
32446SOL    HW299236   7.705   5.264  12.583
32447SOL     OW99237  12.523   9.791  13.867
32447SOL    HW199238  12.581   9.836  13.807
32447SOL    HW299239  12.540   9.698  13.853
32448SOL     OW99240  10.700   8.050   7.307
32448SOL    HW199241  10.768   7.992   7.341
32448SOL    HW299242  10.625   7.993   7.291
32449SOL     OW99243  10.862  14.246   0.132
32449SOL    HW199244  10.952  14.226   0.105
32449SOL    HW299245  10.815  14.163   0.125
32450SOL     OW99246  11.791  11.998  12.251
32450SOL    HW199247  11.806  12.073  12.309
32450SOL    HW299248  11.778  11.924  12.311
32451SOL     OW99249  10.892   2.427  10.986
32451SOL    HW199250  10.947   2.356  11.017
32451SOL    HW299251  10.838   2.387  10.917
32452SOL     OW99252   2.669   0.461   0.264
32452SOL    HW199253   2.759   0.457   0.296
32452SOL    HW299254   2.652   0.374   0.228
32453SOL     OW99255   3.034  11.090   6.598
32453SOL    HW199256   3.049  11.025   6.667
32453SOL    HW299257   3.119  11.099   6.555
32454SOL     OW99258   3.351   4.784   0.147
32454SOL    HW199259   3.272   4.730   0.141
32454SOL    HW299260   3.416   4.737   0.094
32455SOL     OW99261  13.268  12.254   1.329
32455SOL    HW199262  13.322  12.220   1.400
32455SOL    HW299263  13.191  12.198   1.328
32456SOL     OW99264   8.691   2.314  13.475
32456SOL    HW199265   8.713   2.226  13.447
32456SOL    HW299266   8.605   2.305  13.518
32457SOL     OW99267   2.627  11.627   4.680
32457SOL    HW199268   2.685  11.596   4.611
32457SOL    HW299269   2.663  11.712   4.705
32458SOL     OW99270   0.814   7.435  10.390
32458SOL    HW199271   0.836   7.343  10.382
32458SOL    HW299272   0.719   7.438  10.383
32459SOL     OW99273   1.284   2.290   7.738
32459SOL    HW199274   1.353   2.229   7.716
32459SOL    HW299275   1.214   2.272   7.676
32460SOL     OW99276   6.202   5.339   8.161
32460SOL    HW199277   6.107   5.349   8.151
32460SOL    HW299278   6.229   5.290   8.083
32461SOL     OW99279  14.325  10.731   0.438
32461SOL    HW199280  14.301  10.794   0.370
32461SOL    HW299281  14.392  10.777   0.490
32462SOL     OW99282   2.682   1.402   6.160
32462SOL    HW199283   2.694   1.402   6.255
32462SOL    HW299284   2.634   1.483   6.142
32463SOL     OW99285   8.782   8.567   9.677
32463SOL    HW199286   8.775   8.544   9.770
32463SOL    HW299287   8.771   8.662   9.674
32464SOL     OW99288  13.894   0.806  10.473
32464SOL    HW199289  13.855   0.892  10.456
32464SOL    HW299290  13.941   0.817  10.555
32465SOL     OW99291   7.141   5.517  11.022
32465SOL    HW199292   7.108   5.533  11.110
32465SOL    HW299293   7.086   5.572  10.966
32466SOL     OW99294  13.267   9.523   7.942
32466SOL    HW199295  13.184   9.532   7.895
32466SOL    HW299296  13.314   9.455   7.895
32467SOL     OW99297   3.847   7.223   6.679
32467SOL    HW199298   3.770   7.236   6.734
32467SOL    HW299299   3.825   7.149   6.623
32468SOL     OW99300   9.847  14.307  10.041
32468SOL    HW199301   9.798  14.297   9.960
32468SOL    HW299302   9.785  14.284  10.110
32469SOL     OW99303   2.845   6.020   4.927
32469SOL    HW199304   2.867   6.013   4.834
32469SOL    HW299305   2.886   6.102   4.954
32470SOL     OW99306   5.518   8.078   6.979
32470SOL    HW199307   5.463   8.120   6.913
32470SOL    HW299308   5.456   8.031   7.035
32471SOL     OW99309   8.859   9.801  14.306
32471SOL    HW199310   8.845   9.780  14.214
32471SOL    HW299311   8.910   9.882  14.305
32472SOL     OW99312  11.332  10.223  10.664
32472SOL    HW199313  11.269  10.262  10.604
32472SOL    HW299314  11.367  10.297  10.714
32473SOL     OW99315  13.722   5.912   5.360
32473SOL    HW199316  13.740   5.921   5.453
32473SOL    HW299317  13.797   5.952   5.317
32474SOL     OW99318   4.305   0.625   5.477
32474SOL    HW199319   4.358   0.581   5.544
32474SOL    HW299320   4.363   0.692   5.440
32475SOL     OW99321   5.176  13.012   4.351
32475SOL    HW199322   5.106  13.067   4.315
32475SOL    HW299323   5.150  12.996   4.441
32476SOL     OW99324   4.726   1.928   8.769
32476SOL    HW199325   4.760   1.838   8.775
32476SOL    HW299326   4.774   1.966   8.695
32477SOL     OW99327  13.221   9.848   0.299
32477SOL    HW199328  13.201   9.770   0.247
32477SOL    HW299329  13.141   9.867   0.348
32478SOL     OW99330   3.553  14.460   9.767
32478SOL    HW199331   3.459  14.467   9.783
32478SOL    HW299332   3.591  14.535   9.812
32479SOL     OW99333   5.040  11.036   3.534
32479SOL    HW199334   5.086  10.952   3.531
32479SOL    HW299335   5.063  11.079   3.451
32480SOL     OW99336  13.188   7.993   2.610
32480SOL    HW199337  13.253   7.922   2.613
32480SOL    HW299338  13.212   8.045   2.533
32481SOL     OW99339   7.307  10.735   3.227
32481SOL    HW199340   7.281  10.713   3.137
32481SOL    HW299341   7.296  10.830   3.232
32482SOL     OW99342  14.283   1.064  11.072
32482SOL    HW199343  14.360   1.021  11.035
32482SOL    HW299344  14.304   1.075  11.165
32483SOL     OW99345  13.592   1.356   2.934
32483SOL    HW199346  13.543   1.351   2.852
32483SOL    HW299347  13.662   1.292   2.923
32484SOL     OW99348   8.182   7.079  12.559
32484SOL    HW199349   8.201   7.102  12.650
32484SOL    HW299350   8.102   7.127  12.538
32485SOL     OW99351  12.109   6.066   6.586
32485SOL    HW199352  12.110   5.978   6.625
32485SOL    HW299353  12.082   6.123   6.658
32486SOL     OW99354   5.450   9.507   2.456
32486SOL    HW199355   5.414   9.595   2.470
32486SOL    HW299356   5.437   9.491   2.363
32487SOL     OW99357  12.538  12.254  13.840
32487SOL    HW199358  12.602  12.316  13.877
32487SOL    HW299359  12.585  12.171  13.837
32488SOL     OW99360   1.787   8.451  11.373
32488SOL    HW199361   1.702   8.495  11.376
32488SOL    HW299362   1.845   8.514  11.330
32489SOL     OW99363   1.021   7.167   4.538
32489SOL    HW199364   1.063   7.253   4.535
32489SOL    HW299365   0.967   7.164   4.459
32490SOL     OW99366   2.705   0.699   0.477
32490SOL    HW199367   2.758   0.633   0.432
32490SOL    HW299368   2.736   0.698   0.567
32491SOL     OW99369  13.519  10.867  10.467
32491SOL    HW199370  13.472  10.942  10.501
32491SOL    HW299371  13.566  10.832  10.542
32492SOL     OW99372   9.866   2.909   7.933
32492SOL    HW199373   9.861   2.995   7.976
32492SOL    HW299374   9.952   2.909   7.891
32493SOL     OW99375   8.778   8.192  12.497
32493SOL    HW199376   8.872   8.176  12.507
32493SOL    HW299377   8.767   8.220  12.407
32494SOL     OW99378  11.452   1.151  12.480
32494SOL    HW199379  11.496   1.229  12.513
32494SOL    HW299380  11.411   1.112  12.558
32495SOL     OW99381   9.542   0.230  14.448
32495SOL    HW199382   9.504   0.152  14.489
32495SOL    HW299383   9.513   0.226  14.357
32496SOL     OW99384   9.923   3.812   7.889
32496SOL    HW199385  10.011   3.815   7.851
32496SOL    HW299386   9.874   3.880   7.843
32497SOL     OW99387   0.268  13.097   9.480
32497SOL    HW199388   0.288  13.082   9.388
32497SOL    HW299389   0.347  13.138   9.516
32498SOL     OW99390   5.832   4.987   6.141
32498SOL    HW199391   5.814   4.936   6.220
32498SOL    HW299392   5.752   5.037   6.126
32499SOL     OW99393  10.638  12.366   0.845
32499SOL    HW199394  10.700  12.347   0.915
32499SOL    HW299395  10.553  12.339   0.880
32500SOL     OW99396   2.980  10.092  14.808
32500SOL    HW199397   3.048  10.039  14.767
32500SOL    HW299398   2.900  10.070  14.760
32501SOL     OW99399  10.784  11.944  10.617
32501SOL    HW199400  10.787  11.935  10.521
32501SOL    HW299401  10.736  11.866  10.646
32502SOL     OW99402   4.810   6.014   6.832
32502SOL    HW199403   4.887   6.058   6.867
32502SOL    HW299404   4.739   6.040   6.890
32503SOL     OW99405   2.405  13.147   9.683
32503SOL    HW199406   2.396  13.158   9.589
32503SOL    HW299407   2.488  13.101   9.695
32504SOL     OW99408   9.291   8.207   9.800
32504SOL    HW199409   9.334   8.172   9.878
32504SOL    HW299410   9.345   8.175   9.727
32505SOL     OW99411  13.293   6.338   5.810
32505SOL    HW199412  13.284   6.311   5.719
32505SOL    HW299413  13.211   6.313   5.851
32506SOL     OW99414   8.482   1.320   0.842
32506SOL    HW199415   8.479   1.411   0.871
32506SOL    HW299416   8.451   1.269   0.917
32507SOL     OW99417  11.223   9.049  13.068
32507SOL    HW199418  11.281   9.098  13.010
32507SOL    HW299419  11.178   9.115  13.121
32508SOL     OW99420  13.393   4.690   3.427
32508SOL    HW199421  13.350   4.657   3.348
32508SOL    HW299422  13.474   4.640   3.433
32509SOL     OW99423   6.471   0.520   7.186
32509SOL    HW199424   6.470   0.453   7.117
32509SOL    HW299425   6.525   0.590   7.151
32510SOL     OW99426   8.631   1.932   4.886
32510SOL    HW199427   8.653   1.997   4.819
32510SOL    HW299428   8.715   1.908   4.925
32511SOL     OW99429   9.104   4.843  13.284
32511SOL    HW199430   9.146   4.761  13.309
32511SOL    HW299431   9.091   4.835  13.189
32512SOL     OW99432   1.138   9.541   2.145
32512SOL    HW199433   1.080   9.550   2.220
32512SOL    HW299434   1.219   9.504   2.180
32513SOL     OW99435  14.281  14.343   6.543
32513SOL    HW199436  14.359  14.338   6.599
32513SOL    HW299437  14.236  14.259   6.556
32514SOL     OW99438   7.137  11.875  10.798
32514SOL    HW199439   7.163  11.916  10.715
32514SOL    HW299440   7.212  11.887  10.855
32515SOL     OW99441   5.618   2.685   1.100
32515SOL    HW199442   5.623   2.633   1.020
32515SOL    HW299443   5.623   2.775   1.070
32516SOL     OW99444   5.651  13.651  11.157
32516SOL    HW199445   5.632  13.745  11.152
32516SOL    HW299446   5.565  13.610  11.170
32517SOL     OW99447   3.976   3.511  11.826
32517SOL    HW199448   4.001   3.481  11.739
32517SOL    HW299449   3.887   3.543  11.817
32518SOL     OW99450   9.341   6.652  14.752
32518SOL    HW199451   9.311   6.562  14.763
32518SOL    HW299452   9.406   6.665  14.821
32519SOL     OW99453   3.484   9.944  11.890
32519SOL    HW199454   3.558   9.947  11.829
32519SOL    HW299455   3.418   9.891  11.846
32520SOL     OW99456  12.201  13.393   1.664
32520SOL    HW199457  12.195  13.306   1.706
32520SOL    HW299458  12.294  13.407   1.651
32521SOL     OW99459   6.611   8.354   9.187
32521SOL    HW199460   6.634   8.443   9.161
32521SOL    HW299461   6.659   8.299   9.125
32522SOL     OW99462   7.262  14.108   2.130
32522SOL    HW199463   7.323  14.168   2.086
32522SOL    HW299464   7.251  14.035   2.069
32523SOL     OW99465  13.290   8.561  13.597
32523SOL    HW199466  13.250   8.647  13.585
32523SOL    HW299467  13.359   8.575  13.662
32524SOL     OW99468   1.815   6.604  11.149
32524SOL    HW199469   1.815   6.685  11.097
32524SOL    HW299470   1.815   6.534  11.083
32525SOL     OW99471   6.930  12.975   4.234
32525SOL    HW199472   6.914  12.898   4.180
32525SOL    HW299473   6.872  12.964   4.310
32526SOL     OW99474  12.041  13.608  13.155
32526SOL    HW199475  12.040  13.545  13.227
32526SOL    HW299476  12.124  13.655  13.167
32527SOL     OW99477   3.161   6.293   9.424
32527SOL    HW199478   3.187   6.247   9.344
32527SOL    HW299479   3.223   6.264   9.490
32528SOL     OW99480   8.462   6.635  12.728
32528SOL    HW199481   8.478   6.552  12.684
32528SOL    HW299482   8.368   6.649  12.720
32529SOL     OW99483  14.770   2.824  14.718
32529SOL    HW199484  14.700   2.888  14.726
32529SOL    HW299485  14.794   2.825  14.625
32530SOL     OW99486   0.601  13.409   9.431
32530SOL    HW199487   0.641  13.465   9.365
32530SOL    HW299488   0.647  13.430   9.512
32531SOL     OW99489  14.548  12.197  11.115
32531SOL    HW199490  14.548  12.205  11.020
32531SOL    HW299491  14.502  12.275  11.145
32532SOL     OW99492   0.964  13.156   9.013
32532SOL    HW199493   1.050  13.116   9.026
32532SOL    HW299494   0.906  13.082   8.993
32533SOL     OW99495  13.865   8.950   6.050
32533SOL    HW199496  13.845   8.908   5.966
32533SOL    HW299497  13.894   8.878   6.106
32534SOL     OW99498  12.466  13.823   2.847
32534SOL    HW199499  12.477  13.905   2.896
32534SOL    HW299500  12.542  13.820   2.788
32535SOL     OW99501   0.184   7.763   8.775
32535SOL    HW199502   0.146   7.699   8.714
32535SOL    HW299503   0.114   7.783   8.837
32536SOL     OW99504  13.127  12.716  10.582
32536SOL    HW199505  13.192  12.760  10.636
32536SOL    HW299506  13.163  12.721  10.493
32537SOL     OW99507   3.106   2.401   7.325
32537SOL    HW199508   3.163   2.475   7.304
32537SOL    HW299509   3.030   2.440   7.369
32538SOL     OW99510   9.728   5.825  11.311
32538SOL    HW199511   9.648   5.830  11.363
32538SOL    HW299512   9.701   5.851  11.223
32539SOL     OW99513   4.527   4.498   8.248
32539SOL    HW199514   4.589   4.499   8.175
32539SOL    HW299515   4.566   4.440   8.313
32540SOL     OW99516   2.606  10.864   2.089
32540SOL    HW199517   2.595  10.784   2.141
32540SOL    HW299518   2.699  10.884   2.096
32541SOL     OW99519   2.779  10.640  11.476
32541SOL    HW199520   2.764  10.700  11.549
32541SOL    HW299521   2.818  10.695  11.408
32542SOL     OW99522   5.279  13.592   1.736
32542SOL    HW199523   5.316  13.677   1.756
32542SOL    HW299524   5.294  13.581   1.642
32543SOL     OW99525   7.341   6.615   8.787
32543SOL    HW199526   7.311   6.700   8.755
32543SOL    HW299527   7.377   6.572   8.710
32544SOL     OW99528   6.876  13.780   8.132
32544SOL    HW199529   6.849  13.689   8.145
32544SOL    HW299530   6.877  13.791   8.037
32545SOL     OW99531  14.775  10.892   2.560
32545SOL    HW199532  14.744  10.895   2.470
32545SOL    HW299533  14.698  10.915   2.612
32546SOL     OW99534  10.749   9.526   4.487
32546SOL    HW199535  10.664   9.524   4.443
32546SOL    HW299536  10.782   9.437   4.480
32547SOL     OW99537  10.535   5.353   2.700
32547SOL    HW199538  10.544   5.378   2.608
32547SOL    HW299539  10.449   5.387   2.725
32548SOL     OW99540   6.930  14.791   0.925
32548SOL    HW199541   6.993  14.723   0.901
32548SOL    HW299542   6.844  14.751   0.911
32549SOL     OW99543   6.542   8.719   6.322
32549SOL    HW199544   6.583   8.634   6.335
32549SOL    HW299545   6.452   8.708   6.352
32550SOL     OW99546   8.574   2.906   4.757
32550SOL    HW199547   8.575   2.965   4.833
32550SOL    HW299548   8.503   2.845   4.775
32551SOL     OW99549  11.158   2.678   4.131
32551SOL    HW199550  11.253   2.676   4.122
32551SOL    HW299551  11.138   2.609   4.194
32552SOL     OW99552   0.522  14.587   9.718
32552SOL    HW199553   0.585  14.563   9.650
32552SOL    HW299554   0.447  14.530   9.701
32553SOL     OW99555   1.073   6.526   3.579
32553SOL    HW199556   1.024   6.448   3.606
32553SOL    HW299557   1.007   6.584   3.541
32554SOL     OW99558   1.899   6.785   3.037
32554SOL    HW199559   1.826   6.845   3.047
32554SOL    HW299560   1.974   6.833   3.072
32555SOL     OW99561   4.289  10.642   3.427
32555SOL    HW199562   4.232  10.709   3.388
32555SOL    HW299563   4.374  10.685   3.434
32556SOL     OW99564   7.727  11.655  13.936
32556SOL    HW199565   7.660  11.587  13.926
32556SOL    HW299566   7.677  11.737  13.934
32557SOL     OW99567   4.180   7.296   5.282
32557SOL    HW199568   4.185   7.380   5.236
32557SOL    HW299569   4.256   7.296   5.340
32558SOL     OW99570  10.478   5.572   9.032
32558SOL    HW199571  10.436   5.637   9.088
32558SOL    HW299572  10.425   5.493   9.043
32559SOL     OW99573  10.019   3.979  14.364
32559SOL    HW199574  10.012   3.995  14.458
32559SOL    HW299575  10.077   4.048  14.332
32560SOL     OW99576  10.957   0.747   1.458
32560SOL    HW199577  10.986   0.836   1.437
32560SOL    HW299578  11.002   0.692   1.393
32561SOL     OW99579   9.550  13.877   8.782
32561SOL    HW199580   9.543  13.944   8.849
32561SOL    HW299581   9.485  13.902   8.716
32562SOL     OW99582   1.075  12.032  11.423
32562SOL    HW199583   1.122  11.991  11.496
32562SOL    HW299584   1.052  12.119  11.455
32563SOL     OW99585  12.746   4.109  11.340
32563SOL    HW199586  12.830   4.124  11.295
32563SOL    HW299587  12.764   4.134  11.431
32564SOL     OW99588   9.841   1.257  13.569
32564SOL    HW199589   9.778   1.225  13.633
32564SOL    HW299590   9.912   1.296  13.620
32565SOL     OW99591   5.790   6.694   2.831
32565SOL    HW199592   5.742   6.613   2.845
32565SOL    HW299593   5.801   6.731   2.919
32566SOL     OW99594  11.837   9.622   8.249
32566SOL    HW199595  11.777   9.625   8.324
32566SOL    HW299596  11.801   9.686   8.187
32567SOL     OW99597   0.410   5.891   0.035
32567SOL    HW199598   0.327   5.847   0.013
32567SOL    HW299599   0.476   5.822   0.027
32568SOL     OW99600   9.410   7.381  13.617
32568SOL    HW199601   9.456   7.385  13.701
32568SOL    HW299602   9.419   7.469  13.580
32569SOL     OW99603  10.548  11.605  11.391
32569SOL    HW199604  10.533  11.700  11.395
32569SOL    HW299605  10.614  11.588  11.458
32570SOL     OW99606   7.089   8.858  13.651
32570SOL    HW199607   7.120   8.804  13.724
32570SOL    HW299608   7.169   8.880  13.602
32571SOL     OW99609  11.465   0.872   8.026
32571SOL    HW199610  11.528   0.848   8.094
32571SOL    HW299611  11.420   0.949   8.060
32572SOL     OW99612   8.814   9.649   2.539
32572SOL    HW199613   8.901   9.628   2.572
32572SOL    HW299614   8.823   9.647   2.444
32573SOL     OW99615   8.451  13.700   0.674
32573SOL    HW199616   8.485  13.631   0.731
32573SOL    HW299617   8.475  13.782   0.717
32574SOL     OW99618   3.338  11.818  14.433
32574SOL    HW199619   3.289  11.861  14.363
32574SOL    HW299620   3.389  11.887  14.474
32575SOL     OW99621  11.518   5.596   0.772
32575SOL    HW199622  11.499   5.531   0.840
32575SOL    HW299623  11.521   5.545   0.691
32576SOL     OW99624   9.900   3.901   0.375
32576SOL    HW199625   9.914   3.978   0.429
32576SOL    HW299626   9.807   3.881   0.385
32577SOL     OW99627   8.681   7.565   4.097
32577SOL    HW199628   8.617   7.517   4.044
32577SOL    HW299629   8.696   7.509   4.173
32578SOL     OW99630   3.549   2.591   3.501
32578SOL    HW199631   3.592   2.624   3.579
32578SOL    HW299632   3.510   2.508   3.529
32579SOL     OW99633   2.018   7.345   1.713
32579SOL    HW199634   1.971   7.262   1.707
32579SOL    HW299635   2.084   7.339   1.643
32580SOL     OW99636   2.043  11.405   5.702
32580SOL    HW199637   2.133  11.437   5.709
32580SOL    HW299638   2.022  11.375   5.791
32581SOL     OW99639   4.928   8.180  13.053
32581SOL    HW199640   5.001   8.124  13.079
32581SOL    HW299641   4.900   8.222  13.134
32582SOL     OW99642   4.110  13.791   1.621
32582SOL    HW199643   4.046  13.855   1.652
32582SOL    HW299644   4.077  13.763   1.536
32583SOL     OW99645   7.464   1.007  12.813
32583SOL    HW199646   7.414   1.084  12.785
32583SOL    HW299647   7.553   1.039  12.825
32584SOL     OW99648  11.801   2.502   9.606
32584SOL    HW199649  11.779   2.478   9.516
32584SOL    HW299650  11.895   2.521   9.603
32585SOL     OW99651   2.995   4.700   4.247
32585SOL    HW199652   3.007   4.679   4.339
32585SOL    HW299653   3.080   4.680   4.206
32586SOL     OW99654   9.820   7.219   2.265
32586SOL    HW199655   9.770   7.198   2.343
32586SOL    HW299656   9.756   7.216   2.194
32587SOL     OW99657   1.505   4.238   2.086
32587SOL    HW199658   1.523   4.242   2.180
32587SOL    HW299659   1.557   4.163   2.055
32588SOL     OW99660   1.312   6.851   8.226
32588SOL    HW199661   1.270   6.880   8.307
32588SOL    HW299662   1.388   6.909   8.218
32589SOL     OW99663  13.030   3.005   9.977
32589SOL    HW199664  12.982   3.084   9.950
32589SOL    HW299665  13.039   2.954   9.896
32590SOL     OW99666  12.013   0.015   0.237
32590SOL    HW199667  12.101  14.864   0.269
32590SOL    HW299668  11.967  14.801   0.241
32591SOL     OW99669  14.107   4.555   2.991
32591SOL    HW199670  14.096   4.568   3.085
32591SOL    HW299671  14.195   4.519   2.981
32592SOL     OW99672  14.795   3.448   1.471
32592SOL    HW199673  14.712   3.471   1.514
32592SOL    HW299674  14.778   3.464   1.378
32593SOL     OW99675   9.226   1.226  12.284
32593SOL    HW199676   9.271   1.233  12.368
32593SOL    HW299677   9.138   1.195  12.306
32594SOL     OW99678  11.738   1.334  14.476
32594SOL    HW199679  11.818   1.363  14.432
32594SOL    HW299680  11.669   1.390  14.439
32595SOL     OW99681   3.556  11.438   7.745
32595SOL    HW199682   3.645  11.450   7.713
32595SOL    HW299683   3.539  11.517   7.796
32596SOL     OW99684   9.560  10.715  12.301
32596SOL    HW199685   9.609  10.644  12.260
32596SOL    HW299686   9.625  10.784  12.316
32597SOL     OW99687   9.838   7.832   2.337
32597SOL    HW199688   9.836   7.736   2.331
32597SOL    HW299689   9.834   7.850   2.431
32598SOL     OW99690   9.851  10.062   5.461
32598SOL    HW199691   9.762  10.065   5.428
32598SOL    HW299692   9.853   9.985   5.518
32599SOL     OW99693  13.757   0.084   2.352
32599SOL    HW199694  13.838   0.134   2.350
32599SOL    HW299695  13.707   0.115   2.276
32600SOL     OW99696   0.332   7.530  12.880
32600SOL    HW199697   0.352   7.601  12.819
32600SOL    HW299698   0.343   7.451  12.827
32601SOL     OW99699  14.026  14.742   5.519
32601SOL    HW199700  14.121  14.735   5.522
32601SOL    HW299701  14.009  14.808   5.452
32602SOL     OW99702   7.746   4.870   7.766
32602SOL    HW199703   7.841   4.879   7.774
32602SOL    HW299704   7.721   4.936   7.701
32603SOL     OW99705   8.708  12.737   6.824
32603SOL    HW199706   8.700  12.737   6.920
32603SOL    HW299707   8.618  12.746   6.792
32604SOL     OW99708  13.553  13.238  13.297
32604SOL    HW199709  13.514  13.273  13.217
32604SOL    HW299710  13.613  13.307  13.326
32605SOL     OW99711   6.352   8.690  11.270
32605SOL    HW199712   6.314   8.631  11.334
32605SOL    HW299713   6.284   8.702  11.204
32606SOL     OW99714   7.522   2.916  13.266
32606SOL    HW199715   7.478   3.001  13.267
32606SOL    HW299716   7.604   2.932  13.313
32607SOL     OW99717  12.407   1.727   0.512
32607SOL    HW199718  12.343   1.708   0.580
32607SOL    HW299719  12.368   1.797   0.460
32608SOL     OW99720   0.400   8.165   2.817
32608SOL    HW199721   0.333   8.106   2.852
32608SOL    HW299722   0.352   8.244   2.793
32609SOL     OW99723  14.616  12.709  13.002
32609SOL    HW199724  14.557  12.634  12.997
32609SOL    HW299725  14.658  12.712  12.916
32610SOL     OW99726   0.597  13.790  13.306
32610SOL    HW199727   0.555  13.706  13.288
32610SOL    HW299728   0.577  13.844  13.229
32611SOL     OW99729   5.954   4.845  12.961
32611SOL    HW199730   5.901   4.779  13.006
32611SOL    HW299731   5.893   4.916  12.942
32612SOL     OW99732   6.600   4.310   4.250
32612SOL    HW199733   6.645   4.226   4.257
32612SOL    HW299734   6.511   4.288   4.224
32613SOL     OW99735  13.612   8.776   0.030
32613SOL    HW199736  13.615   8.682   0.047
32613SOL    HW299737  13.579   8.782  14.810
32614SOL     OW99738   7.198  12.529   8.621
32614SOL    HW199739   7.241  12.526   8.536
32614SOL    HW299740   7.203  12.438   8.653
32615SOL     OW99741   9.751  12.637  10.928
32615SOL    HW199742   9.736  12.717  10.878
32615SOL    HW299743   9.663  12.606  10.951
32616SOL     OW99744  10.534   9.534   0.068
32616SOL    HW199745  10.609   9.572   0.115
32616SOL    HW299746  10.502   9.465   0.126
32617SOL     OW99747  12.136  13.018   2.114
32617SOL    HW199748  12.224  13.020   2.152
32617SOL    HW299749  12.137  12.945   2.053
32618SOL     OW99750  14.467   5.783   2.889
32618SOL    HW199751  14.503   5.756   2.973
32618SOL    HW299752  14.372   5.776   2.900
32619SOL     OW99753   8.701   1.965  10.802
32619SOL    HW199754   8.663   2.028  10.863
32619SOL    HW299755   8.699   2.009  10.717
32620SOL     OW99756  13.763  11.950  14.814
32620SOL    HW199757  13.787  12.034  14.775
32620SOL    HW299758  13.846  11.910  14.839
32621SOL     OW99759   6.610   0.114   5.369
32621SOL    HW199760   6.554   0.150   5.301
32621SOL    HW299761   6.698   0.142   5.344
32622SOL     OW99762   9.078  11.455  11.797
32622SOL    HW199763   8.991  11.424  11.770
32622SOL    HW299764   9.090  11.418  11.884
32623SOL     OW99765  11.413   8.627   3.312
32623SOL    HW199766  11.407   8.533   3.294
32623SOL    HW299767  11.506   8.644   3.320
32624SOL     OW99768  10.813   1.858   4.028
32624SOL    HW199769  10.833   1.855   3.934
32624SOL    HW299770  10.721   1.883   4.032
32625SOL     OW99771   6.700   5.412  14.820
32625SOL    HW199772   6.696   5.485  14.758
32625SOL    HW299773   6.637   5.348  14.785
32626SOL     OW99774   9.407   2.164   1.455
32626SOL    HW199775   9.457   2.199   1.382
32626SOL    HW299776   9.333   2.119   1.415
32627SOL     OW99777   4.536   6.570   9.447
32627SOL    HW199778   4.538   6.490   9.396
32627SOL    HW299779   4.549   6.542   9.538
32628SOL     OW99780  11.081   5.707  14.130
32628SOL    HW199781  11.120   5.723  14.045
32628SOL    HW299782  10.987   5.703  14.113
32629SOL     OW99783   1.641  14.086  14.461
32629SOL    HW199784   1.549  14.067  14.441
32629SOL    HW299785   1.690  14.025  14.405
32630SOL     OW99786   6.124  11.641   7.710
32630SOL    HW199787   6.205  11.630   7.758
32630SOL    HW299788   6.138  11.593   7.628
32631SOL     OW99789   9.738   7.693  14.597
32631SOL    HW199790   9.698   7.676  14.512
32631SOL    HW299791   9.674   7.662  14.661
32632SOL     OW99792  13.308  10.854   6.484
32632SOL    HW199793  13.378  10.919   6.488
32632SOL    HW299794  13.263  10.862   6.569
32633SOL     OW99795  13.342   6.735   4.285
32633SOL    HW199796  13.424   6.765   4.245
32633SOL    HW299797  13.346   6.767   4.375
32634SOL     OW99798  11.704   4.446   9.522
32634SOL    HW199799  11.642   4.452   9.595
32634SOL    HW299800  11.709   4.535   9.487
32635SOL     OW99801   9.122   3.966  12.963
32635SOL    HW199802   9.080   3.923  12.888
32635SOL    HW299803   9.081   3.926  13.040
32636SOL     OW99804  13.079  13.783   4.688
32636SOL    HW199805  12.997  13.735   4.682
32636SOL    HW299806  13.096  13.813   4.599
32637SOL     OW99807   5.703   6.249   2.630
32637SOL    HW199808   5.684   6.307   2.704
32637SOL    HW299809   5.693   6.161   2.667
32638SOL     OW99810  12.223   2.193  11.570
32638SOL    HW199811  12.309   2.203  11.612
32638SOL    HW299812  12.214   2.270  11.514
32639SOL     OW99813   1.344   2.248   8.504
32639SOL    HW199814   1.353   2.343   8.491
32639SOL    HW299815   1.304   2.216   8.423
32640SOL     OW99816   6.877   0.926   8.011
32640SOL    HW199817   6.901   0.847   8.060
32640SOL    HW299818   6.915   0.998   8.062
32641SOL     OW99819   5.862   3.031  13.041
32641SOL    HW199820   5.808   3.091  13.092
32641SOL    HW299821   5.873   3.075  12.956
32642SOL     OW99822   2.496   5.248   2.711
32642SOL    HW199823   2.439   5.276   2.782
32642SOL    HW299824   2.436   5.212   2.645
32643SOL     OW99825   9.759   4.661   9.968
32643SOL    HW199826   9.716   4.699   9.892
32643SOL    HW299827   9.715   4.701  10.044
32644SOL     OW99828   6.992   5.173   9.420
32644SOL    HW199829   7.020   5.119   9.346
32644SOL    HW299830   6.901   5.196   9.400
32645SOL     OW99831  12.522   0.434   8.155
32645SOL    HW199832  12.602   0.486   8.150
32645SOL    HW299833  12.552   0.343   8.144
32646SOL     OW99834   2.779  12.982   3.821
32646SOL    HW199835   2.786  13.071   3.855
32646SOL    HW299836   2.822  12.927   3.887
32647SOL     OW99837  11.026   0.345  10.414
32647SOL    HW199838  10.991   0.280  10.475
32647SOL    HW299839  10.997   0.429  10.450
32648SOL     OW99840   7.995   5.715  14.862
32648SOL    HW199841   7.899   5.708  14.861
32648SOL    HW299842   8.017   5.748  14.775
32649SOL     OW99843   5.032  13.780   0.294
32649SOL    HW199844   5.050  13.811   0.205
32649SOL    HW299845   4.937  13.777   0.299
32650SOL     OW99846   5.512  12.425  11.387
32650SOL    HW199847   5.496  12.488  11.458
32650SOL    HW299848   5.608  12.419  11.382
32651SOL     OW99849   6.650  14.504  10.347
32651SOL    HW199850   6.643  14.538  10.436
32651SOL    HW299851   6.584  14.553  10.298
32652SOL     OW99852  13.767   5.522   8.846
32652SOL    HW199853  13.808   5.574   8.916
32652SOL    HW299854  13.837   5.510   8.782
32653SOL     OW99855   9.939   6.800   6.837
32653SOL    HW199856   9.900   6.721   6.874
32653SOL    HW299857   9.943   6.784   6.743
32654SOL     OW99858   1.846   9.969   8.984
32654SOL    HW199859   1.931  10.011   8.996
32654SOL    HW299860   1.785  10.026   9.031
32655SOL     OW99861   8.941   0.958   2.360
32655SOL    HW199862   8.898   0.875   2.380
32655SOL    HW299863   8.894   0.992   2.284
32656SOL     OW99864   3.669   6.093  10.789
32656SOL    HW199865   3.742   6.037  10.815
32656SOL    HW299866   3.700   6.182  10.806
32657SOL     OW99867  12.055   7.260   3.960
32657SOL    HW199868  12.091   7.267   3.872
32657SOL    HW299869  11.971   7.215   3.948
32658SOL     OW99870   9.028   3.617   6.630
32658SOL    HW199871   9.093   3.687   6.628
32658SOL    HW299872   8.945   3.661   6.612
32659SOL     OW99873   1.788   9.459   1.307
32659SOL    HW199874   1.831   9.377   1.285
32659SOL    HW299875   1.760   9.496   1.223
32660SOL     OW99876   3.828  14.337   0.173
32660SOL    HW199877   3.775  14.416   0.174
32660SOL    HW299878   3.887  14.346   0.248
32661SOL     OW99879  11.802   1.974  10.439
32661SOL    HW199880  11.771   2.065  10.441
32661SOL    HW299881  11.877   1.973  10.498
32662SOL     OW99882   7.899   6.215  10.171
32662SOL    HW199883   7.835   6.260  10.227
32662SOL    HW299884   7.977   6.205  10.226
32663SOL     OW99885   2.804  14.633   3.666
32663SOL    HW199886   2.808  14.579   3.587
32663SOL    HW299887   2.763  14.576   3.731
32664SOL     OW99888  10.191   4.321   0.898
32664SOL    HW199889  10.125   4.278   0.844
32664SOL    HW299890  10.257   4.253   0.915
32665SOL     OW99891   5.146  14.623   6.159
32665SOL    HW199892   5.170  14.641   6.250
32665SOL    HW299893   5.054  14.596   6.163
32666SOL     OW99894   6.493  11.639   3.346
32666SOL    HW199895   6.435  11.670   3.416
32666SOL    HW299896   6.567  11.598   3.392
32667SOL     OW99897   6.117   6.004   5.408
32667SOL    HW199898   6.187   5.969   5.463
32667SOL    HW299899   6.041   5.950   5.429
32668SOL     OW99900   0.622  11.893  14.597
32668SOL    HW199901   0.601  11.825  14.534
32668SOL    HW299902   0.706  11.866  14.635
32669SOL     OW99903  14.482   7.004   5.053
32669SOL    HW199904  14.563   6.961   5.080
32669SOL    HW299905  14.470   7.075   5.116
32670SOL     OW99906   7.865   8.193   9.834
32670SOL    HW199907   7.790   8.225   9.884
32670SOL    HW299908   7.924   8.268   9.830
32671SOL     OW99909   4.832  12.142  10.489
32671SOL    HW199910   4.889  12.214  10.516
32671SOL    HW299911   4.891  12.078  10.450
32672SOL     OW99912  14.211  14.612   7.436
32672SOL    HW199913  14.156  14.578   7.507
32672SOL    HW299914  14.162  14.593   7.357
32673SOL     OW99915   0.599   8.703  11.094
32673SOL    HW199916   0.563   8.683  11.180
32673SOL    HW299917   0.689   8.673  11.098
32674SOL     OW99918  12.510  12.607  11.963
32674SOL    HW199919  12.543  12.565  11.883
32674SOL    HW299920  12.585  12.656  11.997
32675SOL     OW99921   8.882   3.937   6.500
32675SOL    HW199922   8.837   3.871   6.552
32675SOL    HW299923   8.971   3.939   6.537
32676SOL     OW99924  10.611   4.812   6.147
32676SOL    HW199925  10.516   4.811   6.151
32676SOL    HW299926  10.634   4.904   6.135
32677SOL     OW99927  14.047  10.496   4.185
32677SOL    HW199928  14.076  10.562   4.248
32677SOL    HW299929  14.127  10.451   4.158
32678SOL     OW99930   1.637   9.893   4.239
32678SOL    HW199931   1.719   9.923   4.279
32678SOL    HW299932   1.570   9.948   4.279
32679SOL     OW99933  13.685   1.001   2.821
32679SOL    HW199934  13.689   0.977   2.914
32679SOL    HW299935  13.758   1.062   2.809
32680SOL     OW99936   5.950   8.525   1.704
32680SOL    HW199937   6.012   8.564   1.642
32680SOL    HW299938   5.916   8.600   1.754
32681SOL     OW99939   0.589   9.835   5.151
32681SOL    HW199940   0.532   9.769   5.189
32681SOL    HW299941   0.579   9.911   5.209
32682SOL     OW99942  12.614   3.932   3.892
32682SOL    HW199943  12.529   3.975   3.893
32682SOL    HW299944  12.670   3.990   3.840
32683SOL     OW99945   3.771  12.662   2.241
32683SOL    HW199946   3.767  12.682   2.148
32683SOL    HW299947   3.691  12.611   2.258
32684SOL     OW99948   4.609   8.989  11.425
32684SOL    HW199949   4.674   8.980  11.355
32684SOL    HW299950   4.660   9.009  11.503
32685SOL     OW99951   5.310   4.895  12.819
32685SOL    HW199952   5.228   4.851  12.795
32685SOL    HW299953   5.290   4.938  12.902
32686SOL     OW99954   1.156   2.949   5.823
32686SOL    HW199955   1.188   2.901   5.899
32686SOL    HW299956   1.061   2.956   5.837
32687SOL     OW99957   8.272   9.458  14.852
32687SOL    HW199958   8.234   9.526  14.796
32687SOL    HW299959   8.331   9.505   0.041
32688SOL     OW99960   3.541   2.083   7.415
32688SOL    HW199961   3.507   2.151   7.358
32688SOL    HW299962   3.469   2.021   7.425
32689SOL     OW99963   5.303  13.196   2.550
32689SOL    HW199964   5.219  13.192   2.506
32689SOL    HW299965   5.288  13.150   2.633
32690SOL     OW99966  11.227  10.232   3.373
32690SOL    HW199967  11.149  10.248   3.319
32690SOL    HW299968  11.221  10.140   3.398
32691SOL     OW99969   6.143  10.080  14.751
32691SOL    HW199970   6.233  10.089  14.782
32691SOL    HW299971   6.141   9.995  14.707
32692SOL     OW99972  11.308   6.480   9.454
32692SOL    HW199973  11.382   6.541   9.459
32692SOL    HW299974  11.341   6.399   9.494
32693SOL     OW99975   0.989   4.716  12.633
32693SOL    HW199976   1.027   4.746  12.716
32693SOL    HW299977   0.895   4.712  12.650
32694SOL     OW99978  13.651  11.108   6.662
32694SOL    HW199979  13.616  11.195   6.642
32694SOL    HW299980  13.638  11.097   6.756
32695SOL     OW99981   3.278  11.131  14.030
32695SOL    HW199982   3.222  11.073  14.082
32695SOL    HW299983   3.272  11.096  13.941
32696SOL     OW99984   5.551   5.522   7.239
32696SOL    HW199985   5.474   5.514   7.296
32696SOL    HW299986   5.542   5.608   7.198
32697SOL     OW99987   3.110   2.835  12.553
32697SOL    HW199988   3.150   2.901  12.609
32697SOL    HW299989   3.171   2.761  12.555
32698SOL     OW99990  12.479  11.844   3.197
32698SOL    HW199991  12.491  11.832   3.291
32698SOL    HW299992  12.478  11.756   3.161
32699SOL     OW99993   4.961  14.627  11.166
32699SOL    HW199994   4.997  14.553  11.214
32699SOL    HW299995   5.024  14.698  11.180
32700SOL     OW99996   4.915  10.480   3.374
32700SOL    HW199997   4.938  10.419   3.443
32700SOL    HW299998   4.982  10.549   3.378
32701SOL     OW99999   1.838   5.660   2.671
32701SOL    HW1    0   1.768   5.636   2.732
32701SOL    HW2    1   1.833   5.593   2.602
32702SOL     OW    2   3.641  14.508   6.372
32702SOL    HW1    3   3.716  14.448   6.366
32702SOL    HW2    4   3.612  14.500   6.462
32703SOL     OW    5  11.798  11.808  14.304
32703SOL    HW1    6  11.776  11.844  14.218
32703SOL    HW2    7  11.845  11.726  14.284
32704SOL     OW    8  10.277   4.387   4.945
32704SOL    HW1    9  10.348   4.446   4.972
32704SOL    HW2   10  10.314   4.338   4.872
32705SOL     OW   11   3.015  12.555   3.938
32705SOL    HW1   12   2.944  12.496   3.965
32705SOL    HW2   13   3.070  12.503   3.881
32706SOL     OW   14   2.118   6.408   1.950
32706SOL    HW1   15   2.148   6.342   2.012
32706SOL    HW2   16   2.035   6.440   1.987
32707SOL     OW   17   8.469  14.376   5.588
32707SOL    HW1   18   8.416  14.346   5.514
32707SOL    HW2   19   8.496  14.295   5.631
32708SOL     OW   20  13.927   9.202   0.819
32708SOL    HW1   21  13.964   9.154   0.744
32708SOL    HW2   22  13.997   9.260   0.847
32709SOL     OW   23   9.249   8.743  11.800
32709SOL    HW1   24   9.293   8.681  11.857
32709SOL    HW2   25   9.176   8.776  11.852
32710SOL     OW   26   7.535   8.238   0.151
32710SOL    HW1   27   7.573   8.179   0.086
32710SOL    HW2   28   7.441   8.237   0.133
32711SOL     OW   29   2.041   4.492   0.258
32711SOL    HW1   30   2.115   4.460   0.309
32711SOL    HW2   31   1.984   4.415   0.248
32712SOL     OW   32  10.057  13.709   3.313
32712SOL    HW1   33  10.139  13.757   3.325
32712SOL    HW2   34  10.048  13.700   3.218
32713SOL     OW   35   0.915  13.278  11.617
32713SOL    HW1   36   0.832  13.236  11.640
32713SOL    HW2   37   0.944  13.233  11.538
32714SOL     OW   38   4.944  14.635   9.870
32714SOL    HW1   39   5.015  14.615   9.930
32714SOL    HW2   40   4.970  14.593   9.788
32715SOL     OW   41  13.168   6.813   7.237
32715SOL    HW1   42  13.172   6.894   7.186
32715SOL    HW2   43  13.228   6.828   7.310
32716SOL     OW   44   1.195   4.039   0.048
32716SOL    HW1   45   1.211   3.952   0.010
32716SOL    HW2   46   1.217   4.100  14.847
32717SOL     OW   47   0.940   1.445   7.508
32717SOL    HW1   48   0.967   1.368   7.458
32717SOL    HW2   49   0.845   1.438   7.514
32718SOL     OW   50   4.926   4.676  11.291
32718SOL    HW1   51   4.907   4.705  11.380
32718SOL    HW2   52   4.901   4.750  11.236
32719SOL     OW   53   7.563   3.617   3.405
32719SOL    HW1   54   7.530   3.536   3.367
32719SOL    HW2   55   7.620   3.589   3.477
32720SOL     OW   56  14.194  13.819   9.221
32720SOL    HW1   57  14.266  13.758   9.239
32720SOL    HW2   58  14.229  13.905   9.243
32721SOL     OW   59   9.838  11.490   8.515
32721SOL    HW1   60   9.915  11.434   8.503
32721SOL    HW2   61   9.781  11.468   8.441
32722SOL     OW   62   9.840   8.795  13.867
32722SOL    HW1   63   9.918   8.824  13.914
32722SOL    HW2   64   9.812   8.871  13.816
32723SOL     OW   65   1.270   8.571   2.213
32723SOL    HW1   66   1.349   8.522   2.236
32723SOL    HW2   67   1.207   8.548   2.281
32724SOL     OW   68  12.690   7.275  11.596
32724SOL    HW1   69  12.734   7.354  11.566
32724SOL    HW2   70  12.597   7.292  11.580
32725SOL     OW   71  10.639   8.033  14.076
32725SOL    HW1   72  10.560   8.034  14.023
32725SOL    HW2   73  10.609   8.050  14.165
32726SOL     OW   74   3.390  13.285   7.193
32726SOL    HW1   75   3.390  13.189   7.202
32726SOL    HW2   76   3.435  13.317   7.271
32727SOL     OW   77   4.995  11.360   6.316
32727SOL    HW1   78   5.086  11.372   6.289
32727SOL    HW2   79   4.950  11.331   6.237
32728SOL     OW   80   8.421   7.067   4.440
32728SOL    HW1   81   8.470   7.088   4.361
32728SOL    HW2   82   8.340   7.026   4.408
32729SOL     OW   83   6.456   8.705   9.966
32729SOL    HW1   84   6.408   8.756   9.900
32729SOL    HW2   85   6.547   8.715   9.941
32730SOL     OW   86  14.447   4.117   9.322
32730SOL    HW1   87  14.524   4.062   9.310
32730SOL    HW2   88  14.416   4.136   9.233
32731SOL     OW   89  14.743   7.663   7.608
32731SOL    HW1   90  14.837   7.679   7.596
32731SOL    HW2   91  14.729   7.671   7.702
32732SOL     OW   92  13.914   1.056   1.025
32732SOL    HW1   93  13.904   1.141   0.981
32732SOL    HW2   94  13.985   1.012   0.977
32733SOL     OW   95  10.714  11.612  13.238
32733SOL    HW1   96  10.688  11.554  13.166
32733SOL    HW2   97  10.780  11.561  13.286
32734SOL     OW   98   8.594   3.318  14.824
32734SOL    HW1   99   8.588   3.413  14.832
32734SOL    HW2  100   8.509   3.286  14.854
32735SOL     OW  101  10.279   2.173  10.251
32735SOL    HW1  102  10.292   2.259  10.290
32735SOL    HW2  103  10.322   2.113  10.312
32736SOL     OW  104   2.189  13.747   6.707
32736SOL    HW1  105   2.158  13.770   6.620
32736SOL    HW2  106   2.166  13.822   6.761
32737SOL     OW  107  13.056   9.621  14.335
32737SOL    HW1  108  13.069   9.700  14.283
32737SOL    HW2  109  13.127   9.622  14.399
32738SOL     OW  110  13.282  10.578  10.069
32738SOL    HW1  111  13.269  10.485  10.092
32738SOL    HW2  112  13.256  10.625  10.148
32739SOL     OW  113  10.723  11.366   1.710
32739SOL    HW1  114  10.774  11.444   1.733
32739SOL    HW2  115  10.727  11.311   1.789
32740SOL     OW  116   1.841  10.378  10.584
32740SOL    HW1  117   1.845  10.418  10.497
32740SOL    HW2  118   1.779  10.432  10.633
32741SOL     OW  119   8.598   7.529  11.774
32741SOL    HW1  120   8.612   7.530  11.869
32741SOL    HW2  121   8.551   7.448  11.757
32742SOL     OW  122   5.465  13.046  12.227
32742SOL    HW1  123   5.545  13.097  12.217
32742SOL    HW2  124   5.458  13.029  12.321
32743SOL     OW  125   9.054   1.909   0.712
32743SOL    HW1  126   9.054   1.870   0.624
32743SOL    HW2  127   8.963   1.932   0.728
32744SOL     OW  128   6.155   6.925  14.570
32744SOL    HW1  129   6.197   6.973  14.642
32744SOL    HW2  130   6.158   6.986  14.496
32745SOL     OW  131   8.195   0.619   9.380
32745SOL    HW1  132   8.248   0.674   9.437
32745SOL    HW2  133   8.243   0.617   9.297
32746SOL     OW  134   1.315   7.810  11.756
32746SOL    HW1  135   1.315   7.839  11.847
32746SOL    HW2  136   1.327   7.716  11.760
32747SOL     OW  137   5.964   4.412   7.497
32747SOL    HW1  138   5.903   4.416   7.424
32747SOL    HW2  139   6.028   4.345   7.472
32748SOL     OW  140   4.440  10.079   3.107
32748SOL    HW1  141   4.384  10.096   3.031
32748SOL    HW2  142   4.492  10.003   3.081
32749SOL     OW  143  12.956   9.267   4.078
32749SOL    HW1  144  13.003   9.209   4.137
32749SOL    HW2  145  12.877   9.219   4.054
32750SOL     OW  146  12.169  11.888  13.108
32750SOL    HW1  147  12.260  11.916  13.114
32750SOL    HW2  148  12.172  11.805  13.060
32751SOL     OW  149   0.321   5.147   3.569
32751SOL    HW1  150   0.244   5.091   3.561
32751SOL    HW2  151   0.294   5.231   3.531
32752SOL     OW  152   0.945  11.596  12.660
32752SOL    HW1  153   0.903  11.621  12.742
32752SOL    HW2  154   0.876  11.607  12.594
32753SOL     OW  155   5.319   6.270   3.271
32753SOL    HW1  156   5.291   6.309   3.354
32753SOL    HW2  157   5.261   6.195   3.260
32754SOL     OW  158   8.756   4.145   6.648
32754SOL    HW1  159   8.715   4.192   6.574
32754SOL    HW2  160   8.830   4.099   6.609
32755SOL     OW  161  10.694  10.866  14.862
32755SOL    HW1  162  10.620  10.927  14.855
32755SOL    HW2  163  10.693  10.838   0.084
32756SOL     OW  164   0.355   3.833   9.213
32756SOL    HW1  165   0.431   3.819   9.269
32756SOL    HW2  166   0.389   3.883   9.138
32757SOL     OW  167   3.691  13.813   4.101
32757SOL    HW1  168   3.600  13.829   4.077
32757SOL    HW2  169   3.739  13.819   4.018
32758SOL     OW  170  10.612  13.019   5.091
32758SOL    HW1  171  10.639  13.023   4.999
32758SOL    HW2  172  10.691  12.989   5.137
32759SOL     OW  173   5.740   2.578   4.307
32759SOL    HW1  174   5.743   2.491   4.270
32759SOL    HW2  175   5.829   2.596   4.335
32760SOL     OW  176   7.045  12.030   7.777
32760SOL    HW1  177   7.105  12.025   7.852
32760SOL    HW2  178   6.958  12.035   7.816
32761SOL     OW  179  10.961  10.508  11.981
32761SOL    HW1  180  11.034  10.462  12.022
32761SOL    HW2  181  10.903  10.529  12.054
32762SOL     OW  182   3.575  12.143   7.535
32762SOL    HW1  183   3.630  12.065   7.546
32762SOL    HW2  184   3.485  12.109   7.532
32763SOL     OW  185   8.093   4.254   9.930
32763SOL    HW1  186   8.144   4.202   9.868
32763SOL    HW2  187   8.156   4.316   9.967
32764SOL     OW  188   0.747   1.647  14.274
32764SOL    HW1  189   0.777   1.630  14.185
32764SOL    HW2  190   0.666   1.598  14.282
32765SOL     OW  191  10.843  11.342  14.738
32765SOL    HW1  192  10.885  11.288  14.672
32765SOL    HW2  193  10.751  11.345  14.713
32766SOL     OW  194  10.178   7.351  11.264
32766SOL    HW1  195  10.121   7.285  11.302
32766SOL    HW2  196  10.206   7.313  11.180
32767SOL     OW  197   9.796  14.404   3.199
32767SOL    HW1  198   9.775  14.320   3.157
32767SOL    HW2  199   9.710  14.445   3.211
32768SOL     OW  200  12.854   9.831   1.062
32768SOL    HW1  201  12.939   9.875   1.057
32768SOL    HW2  202  12.867   9.749   1.015
32769SOL     OW  203   2.778   4.305   8.148
32769SOL    HW1  204   2.831   4.359   8.207
32769SOL    HW2  205   2.719   4.257   8.206
32770SOL     OW  206   5.881   0.361   9.276
32770SOL    HW1  207   5.867   0.397   9.189
32770SOL    HW2  208   5.967   0.394   9.302
32771SOL     OW  209   3.219   3.266  12.915
32771SOL    HW1  210   3.236   3.229  13.002
32771SOL    HW2  211   3.124   3.260  12.905
32772SOL     OW  212   8.949   5.250   8.829
32772SOL    HW1  213   9.030   5.199   8.829
32772SOL    HW2  214   8.978   5.341   8.821
32773SOL     OW  215  11.553   3.349   6.577
32773SOL    HW1  216  11.539   3.430   6.626
32773SOL    HW2  217  11.476   3.296   6.597
32774SOL     OW  218   2.882  14.141   5.408
32774SOL    HW1  219   2.869  14.081   5.334
32774SOL    HW2  220   2.914  14.085   5.479
32775SOL     OW  221   5.756  12.491   5.338
32775SOL    HW1  222   5.797  12.441   5.409
32775SOL    HW2  223   5.731  12.574   5.378
32776SOL     OW  224   5.475  14.300   8.104
32776SOL    HW1  225   5.457  14.213   8.139
32776SOL    HW2  226   5.396  14.322   8.054
32777SOL     OW  227   6.427  10.307   2.171
32777SOL    HW1  228   6.418  10.376   2.237
32777SOL    HW2  229   6.462  10.232   2.220
32778SOL     OW  230   2.620   5.337  14.326
32778SOL    HW1  231   2.657   5.334  14.237
32778SOL    HW2  232   2.665   5.410  14.368
32779SOL     OW  233  13.021   6.702   1.301
32779SOL    HW1  234  13.102   6.733   1.342
32779SOL    HW2  235  12.968   6.669   1.373
32780SOL     OW  236  10.121   4.765   8.392
32780SOL    HW1  237  10.063   4.827   8.348
32780SOL    HW2  238  10.200   4.817   8.411
32781SOL     OW  239  11.794   6.380  14.092
32781SOL    HW1  240  11.811   6.436  14.016
32781SOL    HW2  241  11.766   6.297  14.054
32782SOL     OW  242   6.708   8.630  12.204
32782SOL    HW1  243   6.614   8.613  12.206
32782SOL    HW2  244   6.721   8.686  12.127
32783SOL     OW  245   6.322   1.626   2.403
32783SOL    HW1  246   6.382   1.567   2.448
32783SOL    HW2  247   6.237   1.583   2.406
32784SOL     OW  248   2.157   5.519   4.999
32784SOL    HW1  249   2.077   5.540   4.951
32784SOL    HW2  250   2.206   5.601   5.002
32785SOL     OW  251  11.130   5.005   0.741
32785SOL    HW1  252  11.038   4.982   0.732
32785SOL    HW2  253  11.139   5.087   0.692
32786SOL     OW  254   8.171   5.257   3.322
32786SOL    HW1  255   8.153   5.168   3.354
32786SOL    HW2  256   8.086   5.289   3.292
32787SOL     OW  257   6.085   6.465  10.053
32787SOL    HW1  258   6.028   6.421  10.115
32787SOL    HW2  259   6.159   6.405  10.041
32788SOL     OW  260  11.524  11.528   8.208
32788SOL    HW1  261  11.582  11.526   8.131
32788SOL    HW2  262  11.502  11.436   8.223
32789SOL     OW  263   3.310  13.523   1.828
32789SOL    HW1  264   3.309  13.466   1.751
32789SOL    HW2  265   3.240  13.488   1.884
32790SOL     OW  266   0.647   7.761  11.609
32790SOL    HW1  267   0.614   7.848  11.633
32790SOL    HW2  268   0.596   7.700  11.662
32791SOL     OW  269   8.595  13.100   5.160
32791SOL    HW1  270   8.673  13.093   5.105
32791SOL    HW2  271   8.550  13.178   5.128
32792SOL     OW  272   1.125   6.989   4.102
32792SOL    HW1  273   1.148   7.022   4.189
32792SOL    HW2  274   1.209   6.967   4.062
32793SOL     OW  275   0.315   1.553  12.617
32793SOL    HW1  276   0.263   1.487  12.665
32793SOL    HW2  277   0.255   1.627  12.606
32794SOL     OW  278  13.522   4.732   7.823
32794SOL    HW1  279  13.529   4.762   7.733
32794SOL    HW2  280  13.559   4.644   7.821
32795SOL     OW  281  11.194   8.396  12.296
32795SOL    HW1  282  11.107   8.431  12.277
32795SOL    HW2  283  11.209   8.419  12.388
32796SOL     OW  284  13.894  11.350   8.972
32796SOL    HW1  285  13.872  11.383   9.059
32796SOL    HW2  286  13.937  11.423   8.928
32797SOL     OW  287   9.114   9.053   8.572
32797SOL    HW1  288   9.141   8.995   8.501
32797SOL    HW2  289   9.178   9.037   8.642
32798SOL     OW  290   4.126   7.205   3.314
32798SOL    HW1  291   4.194   7.236   3.254
32798SOL    HW2  292   4.051   7.263   3.297
32799SOL     OW  293  11.992   2.665   0.706
32799SOL    HW1  294  11.915   2.646   0.760
32799SOL    HW2  295  11.991   2.760   0.695
32800SOL     OW  296   7.413   5.896   2.163
32800SOL    HW1  297   7.350   5.912   2.093
32800SOL    HW2  298   7.427   5.981   2.204
32801SOL     OW  299  14.357  14.737   8.893
32801SOL    HW1  300  14.406  14.800   8.840
32801SOL    HW2  301  14.306  14.791   8.953
32802SOL     OW  302   9.724  14.133   1.183
32802SOL    HW1  303   9.705  14.043   1.209
32802SOL    HW2  304   9.805  14.154   1.229
32803SOL     OW  305   5.754  10.861   2.088
32803SOL    HW1  306   5.760  10.799   2.161
32803SOL    HW2  307   5.797  10.940   2.120
32804SOL     OW  308   7.441   0.778   4.130
32804SOL    HW1  309   7.430   0.718   4.056
32804SOL    HW2  310   7.432   0.865   4.093
32805SOL     OW  311   5.916  12.429   8.263
32805SOL    HW1  312   5.923  12.505   8.207
32805SOL    HW2  313   5.888  12.464   8.348
32806SOL     OW  314  14.055  14.091   0.740
32806SOL    HW1  315  14.016  14.060   0.658
32806SOL    HW2  316  14.105  14.169   0.715
32807SOL     OW  317   1.273  11.931   8.576
32807SOL    HW1  318   1.324  11.913   8.655
32807SOL    HW2  319   1.265  12.027   8.575
32808SOL     OW  320   7.842   7.268   5.097
32808SOL    HW1  321   7.816   7.222   5.017
32808SOL    HW2  322   7.831   7.361   5.076
32809SOL     OW  323   3.727  13.762   3.819
32809SOL    HW1  324   3.761  13.673   3.808
32809SOL    HW2  325   3.632  13.751   3.818
32810SOL     OW  326  13.286   8.296   8.890
32810SOL    HW1  327  13.290   8.304   8.985
32810SOL    HW2  328  13.362   8.343   8.858
32811SOL     OW  329   5.702  10.554   8.665
32811SOL    HW1  330   5.699  10.649   8.661
32811SOL    HW2  331   5.740  10.528   8.581
32812SOL     OW  332   8.311   1.642  12.466
32812SOL    HW1  333   8.324   1.694  12.545
32812SOL    HW2  334   8.318   1.551  12.496
32813SOL     OW  335   5.479  12.014   9.294
32813SOL    HW1  336   5.401  12.037   9.244
32813SOL    HW2  337   5.551  12.031   9.234
32814SOL     OW  338  12.922   4.431  13.691
32814SOL    HW1  339  12.926   4.471  13.778
32814SOL    HW2  340  12.997   4.468  13.645
32815SOL     OW  341  11.378  14.422   0.294
32815SOL    HW1  342  11.382  14.332   0.262
32815SOL    HW2  343  11.413  14.474   0.222
32816SOL     OW  344  13.970   3.266   0.361
32816SOL    HW1  345  14.025   3.332   0.319
32816SOL    HW2  346  13.993   3.270   0.454
32817SOL     OW  347  10.307   4.547   5.501
32817SOL    HW1  348  10.356   4.583   5.575
32817SOL    HW2  349  10.226   4.515   5.540
32818SOL     OW  350   5.016   0.796  13.206
32818SOL    HW1  351   4.948   0.852  13.242
32818SOL    HW2  352   5.097   0.826  13.248
32819SOL     OW  353   0.487  10.618   2.745
32819SOL    HW1  354   0.571  10.644   2.783
32819SOL    HW2  355   0.423  10.630   2.815
32820SOL     OW  356  13.730  14.370   3.808
32820SOL    HW1  357  13.701  14.352   3.718
32820SOL    HW2  358  13.698  14.458   3.827
32821SOL     OW  359  11.896   6.678  12.514
32821SOL    HW1  360  11.840   6.677  12.592
32821SOL    HW2  361  11.984   6.690  12.548
32822SOL     OW  362   7.366   3.417   3.383
32822SOL    HW1  363   7.315   3.479   3.331
32822SOL    HW2  364   7.401   3.355   3.320
32823SOL     OW  365   3.311  11.787   1.342
32823SOL    HW1  366   3.215  11.785   1.348
32823SOL    HW2  367   3.340  11.794   1.433
32824SOL     OW  368   1.748  13.017   6.115
32824SOL    HW1  369   1.801  12.988   6.041
32824SOL    HW2  370   1.721  13.106   6.093
32825SOL     OW  371   0.776  12.865  11.403
32825SOL    HW1  372   0.716  12.901  11.338
32825SOL    HW2  373   0.720  12.839  11.476
32826SOL     OW  374   2.723   7.191   6.915
32826SOL    HW1  375   2.694   7.107   6.948
32826SOL    HW2  376   2.689   7.195   6.825
32827SOL     OW  377   1.230   4.636   2.236
32827SOL    HW1  378   1.178   4.702   2.190
32827SOL    HW2  379   1.245   4.673   2.322
32828SOL     OW  380   7.036   5.065  14.197
32828SOL    HW1  381   7.045   5.031  14.286
32828SOL    HW2  382   7.114   5.033  14.152
32829SOL     OW  383   8.056   7.789  10.759
32829SOL    HW1  384   8.012   7.720  10.710
32829SOL    HW2  385   8.115   7.830  10.695
32830SOL     OW  386   2.532   1.379   7.098
32830SOL    HW1  387   2.512   1.416   7.184
32830SOL    HW2  388   2.626   1.359   7.102
32831SOL     OW  389   8.331   4.471  10.271
32831SOL    HW1  390   8.393   4.407  10.307
32831SOL    HW2  391   8.386   4.540  10.234
32832SOL     OW  392   5.321  11.559  13.127
32832SOL    HW1  393   5.318  11.636  13.070
32832SOL    HW2  394   5.229  11.542  13.149
32833SOL     OW  395   2.979  14.783   7.350
32833SOL    HW1  396   3.033  14.732   7.291
32833SOL    HW2  397   2.962  14.725   7.424
32834SOL     OW  398   8.330   7.772   8.348
32834SOL    HW1  399   8.244   7.792   8.386
32834SOL    HW2  400   8.381   7.736   8.421
32835SOL     OW  401   7.580   7.064   0.527
32835SOL    HW1  402   7.621   7.041   0.444
32835SOL    HW2  403   7.601   7.157   0.539
32836SOL     OW  404   6.873   6.515   1.482
32836SOL    HW1  405   6.884   6.571   1.405
32836SOL    HW2  406   6.961   6.484   1.502
32837SOL     OW  407   1.202  13.533  12.517
32837SOL    HW1  408   1.291  13.523  12.552
32837SOL    HW2  409   1.215  13.574  12.431
32838SOL     OW  410   8.483  10.371   5.463
32838SOL    HW1  411   8.429  10.356   5.386
32838SOL    HW2  412   8.459  10.300   5.523
32839SOL     OW  413  10.303  13.715   0.044
32839SOL    HW1  414  10.258  13.665  14.846
32839SOL    HW2  415  10.337  13.792  14.868
32840SOL     OW  416   6.467   3.186   7.255
32840SOL    HW1  417   6.535   3.153   7.197
32840SOL    HW2  418   6.434   3.265   7.212
32841SOL     OW  419  11.771   5.873   9.797
32841SOL    HW1  420  11.821   5.884   9.715
32841SOL    HW2  421  11.755   5.779   9.802
32842SOL     OW  422   3.154  13.192   5.565
32842SOL    HW1  423   3.075  13.228   5.523
32842SOL    HW2  424   3.158  13.236   5.650
32843SOL     OW  425   6.193   3.136   8.166
32843SOL    HW1  426   6.143   3.079   8.108
32843SOL    HW2  427   6.130   3.201   8.197
32844SOL     OW  428  11.102   4.730   9.749
32844SOL    HW1  429  11.065   4.727   9.661
32844SOL    HW2  430  11.165   4.658   9.750
32845SOL     OW  431   5.961  12.556  13.969
32845SOL    HW1  432   5.920  12.494  13.908
32845SOL    HW2  433   5.912  12.546  14.051
32846SOL     OW  434  11.117  14.187  14.836
32846SOL    HW1  435  11.205  14.169  14.803
32846SOL    HW2  436  11.060  14.131  14.784
32847SOL     OW  437   0.857   3.444   6.911
32847SOL    HW1  438   0.931   3.494   6.874
32847SOL    HW2  439   0.869   3.450   7.006
32848SOL     OW  440   4.633  14.013   2.875
32848SOL    HW1  441   4.665  13.941   2.931
32848SOL    HW2  442   4.538  14.002   2.873
32849SOL     OW  443  10.954   8.278   6.417
32849SOL    HW1  444  10.878   8.292   6.474
32849SOL    HW2  445  11.009   8.216   6.464
32850SOL     OW  446   9.426  11.384   8.096
32850SOL    HW1  447   9.363  11.337   8.041
32850SOL    HW2  448   9.462  11.317   8.154
32851SOL     OW  449   1.504  11.145   0.637
32851SOL    HW1  450   1.553  11.191   0.705
32851SOL    HW2  451   1.426  11.198   0.624
32852SOL     OW  452   0.137  13.019   4.769
32852SOL    HW1  453   0.097  12.973   4.843
32852SOL    HW2  454   0.209  12.962   4.742
32853SOL     OW  455   9.940  10.656   5.381
32853SOL    HW1  456  10.003  10.725   5.403
32853SOL    HW2  457   9.951  10.590   5.449
32854SOL     OW  458   9.248   0.127  10.790
32854SOL    HW1  459   9.315   0.195  10.780
32854SOL    HW2  460   9.190   0.160  10.859
32855SOL     OW  461  14.491   3.580  12.985
32855SOL    HW1  462  14.419   3.544  12.932
32855SOL    HW2  463  14.560   3.514  12.980
32856SOL     OW  464   2.942   5.062  12.200
32856SOL    HW1  465   3.028   5.093  12.172
32856SOL    HW2  466   2.908   5.132  12.256
32857SOL     OW  467  12.524  13.142  13.893
32857SOL    HW1  468  12.471  13.183  13.961
32857SOL    HW2  469  12.574  13.214  13.854
32858SOL     OW  470   5.527   0.422   4.148
32858SOL    HW1  471   5.492   0.340   4.182
32858SOL    HW2  472   5.543   0.476   4.226
32859SOL     OW  473   1.339   0.458   2.075
32859SOL    HW1  474   1.342   0.486   2.167
32859SOL    HW2  475   1.362   0.536   2.026
32860SOL     OW  476  11.408   9.790   9.460
32860SOL    HW1  477  11.435   9.714   9.512
32860SOL    HW2  478  11.455   9.863   9.499
32861SOL     OW  479   2.565   4.269  14.685
32861SOL    HW1  480   2.651   4.254  14.647
32861SOL    HW2  481   2.519   4.322  14.621
32862SOL     OW  482   2.435   4.883  10.550
32862SOL    HW1  483   2.418   4.826  10.475
32862SOL    HW2  484   2.360   4.942  10.552
32863SOL     OW  485  10.086   4.692  14.004
32863SOL    HW1  486  10.149   4.762  13.990
32863SOL    HW2  487  10.103   4.661  14.093
32864SOL     OW  488  14.033   7.195   2.543
32864SOL    HW1  489  14.032   7.173   2.450
32864SOL    HW2  490  14.076   7.280   2.548
32865SOL     OW  491   6.156  10.608   3.469
32865SOL    HW1  492   6.080  10.562   3.504
32865SOL    HW2  493   6.130  10.700   3.468
32866SOL     OW  494   5.276   4.940   1.734
32866SOL    HW1  495   5.352   4.886   1.712
32866SOL    HW2  496   5.299   4.981   1.817
32867SOL     OW  497   1.648   7.843  13.871
32867SOL    HW1  498   1.597   7.792  13.933
32867SOL    HW2  499   1.709   7.893  13.925
32868SOL     OW  500   0.076  11.885   6.851
32868SOL    HW1  501   0.045  11.916   6.766
32868SOL    HW2  502  14.866  11.872   6.902
32869SOL     OW  503   6.247  10.669   1.864
32869SOL    HW1  504   6.194  10.625   1.797
32869SOL    HW2  505   6.337  10.656   1.835
32870SOL     OW  506  14.083   4.422   1.164
32870SOL    HW1  507  14.071   4.345   1.107
32870SOL    HW2  508  13.995   4.459   1.172
32871SOL     OW  509   1.070   2.479   6.809
32871SOL    HW1  510   1.160   2.501   6.785
32871SOL    HW2  511   1.068   2.486   6.904
32872SOL     OW  512   3.992   1.636   6.534
32872SOL    HW1  513   3.928   1.681   6.479
32872SOL    HW2  514   4.066   1.618   6.476
32873SOL     OW  515   0.281  14.200  13.687
32873SOL    HW1  516   0.231  14.273  13.651
32873SOL    HW2  517   0.250  14.123  13.638
32874SOL     OW  518  11.266   5.022   6.398
32874SOL    HW1  519  11.349   5.016   6.444
32874SOL    HW2  520  11.286   5.073   6.319
32875SOL     OW  521   3.667   7.969   8.187
32875SOL    HW1  522   3.743   8.023   8.209
32875SOL    HW2  523   3.700   7.879   8.190
32876SOL     OW  524   3.729   1.292   0.463
32876SOL    HW1  525   3.765   1.204   0.446
32876SOL    HW2  526   3.806   1.347   0.476
32877SOL     OW  527  11.453   8.014   2.674
32877SOL    HW1  528  11.543   8.012   2.706
32877SOL    HW2  529  11.432   7.922   2.654
32878SOL     OW  530  11.229   6.407  11.357
32878SOL    HW1  531  11.226   6.460  11.277
32878SOL    HW2  532  11.143   6.419  11.396
32879SOL     OW  533  10.612  11.324  12.806
32879SOL    HW1  534  10.526  11.336  12.766
32879SOL    HW2  535  10.642  11.413  12.825
32880SOL     OW  536   4.081   9.725   1.993
32880SOL    HW1  537   4.144   9.770   1.937
32880SOL    HW2  538   4.131   9.653   2.031
32881SOL     OW  539   6.405   3.798   5.147
32881SOL    HW1  540   6.366   3.842   5.223
32881SOL    HW2  541   6.412   3.706   5.174
32882SOL     OW  542  12.357  12.080   9.939
32882SOL    HW1  543  12.396  12.112   9.857
32882SOL    HW2  544  12.351  12.157   9.995
32883SOL     OW  545  12.518  13.065   4.018
32883SOL    HW1  546  12.540  13.140   4.074
32883SOL    HW2  547  12.539  12.989   4.072
32884SOL     OW  548   2.970   9.424   0.474
32884SOL    HW1  549   2.988   9.338   0.513
32884SOL    HW2  550   3.002   9.416   0.384
32885SOL     OW  551  12.382   2.046   3.365
32885SOL    HW1  552  12.434   2.122   3.391
32885SOL    HW2  553  12.291   2.073   3.381
32886SOL     OW  554   4.299   8.416   0.656
32886SOL    HW1  555   4.228   8.358   0.627
32886SOL    HW2  556   4.325   8.462   0.576
32887SOL     OW  557  10.390  11.352   2.810
32887SOL    HW1  558  10.432  11.358   2.725
32887SOL    HW2  559  10.296  11.353   2.791
32888SOL     OW  560  13.329  14.717  10.489
32888SOL    HW1  561  13.250  14.769  10.506
32888SOL    HW2  562  13.401  14.772  10.521
32889SOL     OW  563  12.333   0.451   5.491
32889SOL    HW1  564  12.275   0.495   5.554
32889SOL    HW2  565  12.383   0.389   5.543
32890SOL     OW  566   3.541  11.458  14.578
32890SOL    HW1  567   3.460  11.414  14.552
32890SOL    HW2  568   3.586  11.476  14.495
32891SOL     OW  569  13.473  14.360   9.586
32891SOL    HW1  570  13.494  14.268   9.569
32891SOL    HW2  571  13.388  14.373   9.545
32892SOL     OW  572   3.728  14.545   7.637
32892SOL    HW1  573   3.738  14.496   7.718
32892SOL    HW2  574   3.747  14.635   7.661
32893SOL     OW  575   2.953  10.417  10.493
32893SOL    HW1  576   2.907  10.475  10.433
32893SOL    HW2  577   2.906  10.335  10.489
32894SOL     OW  578   7.760  11.732  13.522
32894SOL    HW1  579   7.789  11.710  13.433
32894SOL    HW2  580   7.829  11.697  13.579
32895SOL     OW  581   8.165   7.254  14.461
32895SOL    HW1  582   8.102   7.253  14.389
32895SOL    HW2  583   8.242   7.298  14.425
32896SOL     OW  584   3.879   4.053   4.806
32896SOL    HW1  585   3.967   4.055   4.770
32896SOL    HW2  586   3.843   3.968   4.777
32897SOL     OW  587   4.547   2.809  12.537
32897SOL    HW1  588   4.495   2.731  12.556
32897SOL    HW2  589   4.510   2.843  12.455
32898SOL     OW  590   8.541   1.158   0.347
32898SOL    HW1  591   8.564   1.079   0.397
32898SOL    HW2  592   8.448   1.150   0.331
32899SOL     OW  593  12.619   6.675   6.374
32899SOL    HW1  594  12.625   6.653   6.467
32899SOL    HW2  595  12.657   6.599   6.329
32900SOL     OW  596   9.462   7.403   0.190
32900SOL    HW1  597   9.380   7.365   0.160
32900SOL    HW2  598   9.520   7.329   0.203
32901SOL     OW  599  10.995   1.419   0.468
32901SOL    HW1  600  10.974   1.400   0.376
32901SOL    HW2  601  10.918   1.464   0.502
32902SOL     OW  602  14.081   5.835  13.722
32902SOL    HW1  603  14.036   5.918  13.705
32902SOL    HW2  604  14.173   5.854  13.704
32903SOL     OW  605   2.029   2.687  11.923
32903SOL    HW1  606   1.976   2.752  11.970
32903SOL    HW2  607   2.080   2.739  11.861
32904SOL     OW  608   7.211  13.930   4.690
32904SOL    HW1  609   7.290  13.983   4.689
32904SOL    HW2  610   7.174  13.942   4.602
32905SOL     OW  611   2.789   7.785   1.464
32905SOL    HW1  612   2.832   7.865   1.496
32905SOL    HW2  613   2.695   7.804   1.471
32906SOL     OW  614   2.695   3.473   1.361
32906SOL    HW1  615   2.648   3.411   1.306
32906SOL    HW2  616   2.639   3.485   1.437
32907SOL     OW  617   4.967   8.845  11.396
32907SOL    HW1  618   4.989   8.883  11.481
32907SOL    HW2  619   5.023   8.768  11.389
32908SOL     OW  620   4.636   6.815   0.618
32908SOL    HW1  621   4.554   6.778   0.651
32908SOL    HW2  622   4.676   6.857   0.693
32909SOL     OW  623  10.354   2.880   9.663
32909SOL    HW1  624  10.382   2.836   9.743
32909SOL    HW2  625  10.259   2.866   9.659
32910SOL     OW  626   1.453   7.635   4.497
32910SOL    HW1  627   1.370   7.678   4.514
32910SOL    HW2  628   1.464   7.639   4.402
32911SOL     OW  629   3.669   3.454   0.213
32911SOL    HW1  630   3.726   3.422   0.284
32911SOL    HW2  631   3.729   3.496   0.151
32912SOL     OW  632   0.517   4.649   2.600
32912SOL    HW1  633   0.540   4.558   2.586
32912SOL    HW2  634   0.580   4.698   2.547
32913SOL     OW  635   3.679   0.523   5.472
32913SOL    HW1  636   3.748   0.508   5.408
32913SOL    HW2  637   3.615   0.578   5.427
32914SOL     OW  638   8.892  11.470   5.821
32914SOL    HW1  639   8.860  11.447   5.908
32914SOL    HW2  640   8.924  11.388   5.784
32915SOL     OW  641   6.492   0.379  12.817
32915SOL    HW1  642   6.528   0.406  12.902
32915SOL    HW2  643   6.397   0.386  12.828
32916SOL     OW  644   5.434   5.019  12.193
32916SOL    HW1  645   5.421   4.952  12.260
32916SOL    HW2  646   5.435   5.102  12.240
32917SOL     OW  647  13.882   7.108   2.754
32917SOL    HW1  648  13.930   7.128   2.674
32917SOL    HW2  649  13.847   7.193   2.782
32918SOL     OW  650   6.595  14.291   1.172
32918SOL    HW1  651   6.671  14.335   1.133
32918SOL    HW2  652   6.524  14.354   1.161
32919SOL     OW  653   3.082  11.179   8.254
32919SOL    HW1  654   3.125  11.224   8.181
32919SOL    HW2  655   3.044  11.249   8.307
32920SOL     OW  656   1.414   5.596   4.983
32920SOL    HW1  657   1.432   5.585   4.890
32920SOL    HW2  658   1.413   5.508   5.019
32921SOL     OW  659  14.248   7.088   3.517
32921SOL    HW1  660  14.220   7.154   3.581
32921SOL    HW2  661  14.333   7.059   3.548
32922SOL     OW  662   2.971   1.217   2.704
32922SOL    HW1  663   3.018   1.191   2.624
32922SOL    HW2  664   2.933   1.302   2.682
32923SOL     OW  665   9.212   6.964  11.719
32923SOL    HW1  666   9.287   7.023  11.715
32923SOL    HW2  667   9.250   6.876  11.716
32924SOL     OW  668   8.212   3.797   5.586
32924SOL    HW1  669   8.144   3.735   5.559
32924SOL    HW2  670   8.292   3.763   5.547
32925SOL     OW  671  10.385   9.742   4.129
32925SOL    HW1  672  10.335   9.816   4.093
32925SOL    HW2  673  10.455   9.784   4.180
32926SOL     OW  674  11.569   3.519   6.797
32926SOL    HW1  675  11.599   3.531   6.887
32926SOL    HW2  676  11.525   3.434   6.797
32927SOL     OW  677  14.093  14.544  12.995
32927SOL    HW1  678  14.021  14.606  13.004
32927SOL    HW2  679  14.089  14.515  12.904
32928SOL     OW  680  13.931   2.933  12.190
32928SOL    HW1  681  14.012   2.917  12.142
32928SOL    HW2  682  13.896   2.846  12.208
32929SOL     OW  683   9.155   3.158   4.887
32929SOL    HW1  684   9.084   3.205   4.931
32929SOL    HW2  685   9.235   3.194   4.924
32930SOL     OW  686  11.243   4.491   9.758
32930SOL    HW1  687  11.253   4.464   9.667
32930SOL    HW2  688  11.198   4.418   9.800
32931SOL     OW  689   0.822   3.039   7.716
32931SOL    HW1  690   0.744   3.043   7.661
32931SOL    HW2  691   0.790   3.008   7.801
32932SOL     OW  692   7.112  12.245  13.040
32932SOL    HW1  693   7.143  12.308  12.976
32932SOL    HW2  694   7.105  12.163  12.991
32933SOL     OW  695   0.048   6.963   0.590
32933SOL    HW1  696   0.110   6.893   0.568
32933SOL    HW2  697  14.844   6.918   0.632
32934SOL     OW  698   6.083   4.561  14.528
32934SOL    HW1  699   6.156   4.608  14.489
32934SOL    HW2  700   6.093   4.575  14.622
32935SOL     OW  701   2.438   7.982   3.089
32935SOL    HW1  702   2.496   8.013   3.159
32935SOL    HW2  703   2.354   8.023   3.109
32936SOL     OW  704  12.700   6.848   4.421
32936SOL    HW1  705  12.607   6.866   4.407
32936SOL    HW2  706  12.702   6.766   4.470
32937SOL     OW  707   8.526   7.621  13.003
32937SOL    HW1  708   8.492   7.684  12.938
32937SOL    HW2  709   8.621   7.632  13.000
32938SOL     OW  710   0.907   2.194   3.570
32938SOL    HW1  711   0.841   2.190   3.500
32938SOL    HW2  712   0.958   2.272   3.549
32939SOL     OW  713   7.648   1.716   7.592
32939SOL    HW1  714   7.586   1.653   7.554
32939SOL    HW2  715   7.605   1.747   7.672
32940SOL     OW  716  14.370   0.109   1.233
32940SOL    HW1  717  14.341   0.082   1.320
32940SOL    HW2  718  14.307   0.068   1.173
32941SOL     OW  719   8.722  11.996   7.613
32941SOL    HW1  720   8.698  12.002   7.520
32941SOL    HW2  721   8.783  12.068   7.626
32942SOL     OW  722   7.358   9.249  13.810
32942SOL    HW1  723   7.404   9.303  13.745
32942SOL    HW2  724   7.269   9.285  13.812
32943SOL     OW  725  13.128   6.396   1.373
32943SOL    HW1  726  13.141   6.373   1.281
32943SOL    HW2  727  13.034   6.390   1.386
32944SOL     OW  728   9.236  11.559   6.839
32944SOL    HW1  729   9.207  11.523   6.923
32944SOL    HW2  730   9.170  11.528   6.777
32945SOL     OW  731   0.643   3.832  12.706
32945SOL    HW1  732   0.732   3.820  12.674
32945SOL    HW2  733   0.587   3.799  12.636
32946SOL     OW  734   0.306   7.154   0.000
32946SOL    HW1  735   0.253   7.232  14.863
32946SOL    HW2  736   0.256   7.095   0.056
32947SOL     OW  737   5.570   7.133  13.886
32947SOL    HW1  738   5.478   7.158  13.872
32947SOL    HW2  739   5.568   7.038  13.899
32948SOL     OW  740   0.833   5.646   1.162
32948SOL    HW1  741   0.817   5.646   1.067
32948SOL    HW2  742   0.850   5.555   1.184
32949SOL     OW  743   3.453   3.343   6.709
32949SOL    HW1  744   3.429   3.408   6.775
32949SOL    HW2  745   3.496   3.393   6.640
32950SOL     OW  746   0.732  13.878   7.810
32950SOL    HW1  747   0.653  13.904   7.763
32950SOL    HW2  748   0.704  13.868   7.901
32951SOL     OW  749   9.892  12.854   6.203
32951SOL    HW1  750   9.857  12.890   6.122
32951SOL    HW2  751   9.987  12.863   6.193
32952SOL     OW  752  13.205   1.334   0.568
32952SOL    HW1  753  13.278   1.299   0.619
32952SOL    HW2  754  13.129   1.283   0.597
32953SOL     OW  755  11.999   8.937  10.655
32953SOL    HW1  756  11.945   8.887  10.717
32953SOL    HW2  757  12.001   8.883  10.576
32954SOL     OW  758   2.931   4.749   1.922
32954SOL    HW1  759   2.961   4.826   1.873
32954SOL    HW2  760   2.848   4.726   1.880
32955SOL     OW  761  10.188   1.374   2.917
32955SOL    HW1  762  10.274   1.354   2.879
32955SOL    HW2  763  10.173   1.305   2.981
32956SOL     OW  764  10.442   9.907   9.720
32956SOL    HW1  765  10.417   9.975   9.657
32956SOL    HW2  766  10.415   9.941   9.805
32957SOL     OW  767   2.740   4.872  12.294
32957SOL    HW1  768   2.797   4.795  12.305
32957SOL    HW2  769   2.784   4.925  12.228
32958SOL     OW  770   2.069   7.297   0.317
32958SOL    HW1  771   2.125   7.374   0.311
32958SOL    HW2  772   2.130   7.223   0.318
32959SOL     OW  773   2.729   4.455   0.983
32959SOL    HW1  774   2.669   4.411   0.923
32959SOL    HW2  775   2.750   4.537   0.938
32960SOL     OW  776   1.250   1.616   8.307
32960SOL    HW1  777   1.235   1.573   8.222
32960SOL    HW2  778   1.314   1.684   8.288
32961SOL     OW  779   7.687   8.151   9.008
32961SOL    HW1  780   7.653   8.116   9.090
32961SOL    HW2  781   7.700   8.075   8.952
32962SOL     OW  782  13.990   6.503  13.893
32962SOL    HW1  783  13.908   6.496  13.844
32962SOL    HW2  784  14.023   6.590  13.871
32963SOL     OW  785  12.505  12.830   6.342
32963SOL    HW1  786  12.543  12.874   6.266
32963SOL    HW2  787  12.581  12.796   6.390
32964SOL     OW  788   1.822  11.242   0.379
32964SOL    HW1  789   1.783  11.168   0.425
32964SOL    HW2  790   1.817  11.314   0.442
32965SOL     OW  791   2.522  12.453   3.406
32965SOL    HW1  792   2.553  12.442   3.495
32965SOL    HW2  793   2.492  12.366   3.379
32966SOL     OW  794   4.744   0.084   6.573
32966SOL    HW1  795   4.723   0.144   6.502
32966SOL    HW2  796   4.729  14.866   6.537
32967SOL     OW  797  10.040   8.790  10.953
32967SOL    HW1  798  10.089   8.755  10.880
32967SOL    HW2  799  10.034   8.884  10.936
32968SOL     OW  800   7.562  13.126  14.236
32968SOL    HW1  801   7.552  13.032  14.244
32968SOL    HW2  802   7.651  13.144  14.267
32969SOL     OW  803   6.172   9.185   4.510
32969SOL    HW1  804   6.136   9.133   4.439
32969SOL    HW2  805   6.137   9.145   4.590
32970SOL     OW  806  13.848   9.795   8.563
32970SOL    HW1  807  13.879   9.857   8.496
32970SOL    HW2  808  13.775   9.750   8.521
32971SOL     OW  809   7.976   9.379   1.499
32971SOL    HW1  810   8.014   9.337   1.576
32971SOL    HW2  811   7.995   9.472   1.510
32972SOL     OW  812   8.596   6.818  14.670
32972SOL    HW1  813   8.589   6.725  14.648
32972SOL    HW2  814   8.690   6.836  14.670
32973SOL     OW  815   8.603  14.701  11.505
32973SOL    HW1  816   8.594  14.786  11.548
32973SOL    HW2  817   8.614  14.639  11.577
32974SOL     OW  818   0.921   6.462   9.015
32974SOL    HW1  819   0.917   6.408   9.094
32974SOL    HW2  820   0.893   6.549   9.044
32975SOL     OW  821   6.221  13.053   8.429
32975SOL    HW1  822   6.241  12.975   8.378
32975SOL    HW2  823   6.261  13.037   8.514
32976SOL     OW  824   1.296   9.951   3.827
32976SOL    HW1  825   1.293   9.975   3.734
32976SOL    HW2  826   1.278  10.033   3.873
32977SOL     OW  827  12.222   5.922   8.134
32977SOL    HW1  828  12.306   5.966   8.148
32977SOL    HW2  829  12.176   5.929   8.218
32978SOL     OW  830  12.929   9.357   0.265
32978SOL    HW1  831  13.014   9.323   0.292
32978SOL    HW2  832  12.936   9.368   0.171
32979SOL     OW  833   6.455  10.478   0.930
32979SOL    HW1  834   6.533  10.474   0.985
32979SOL    HW2  835   6.409  10.396   0.948
32980SOL     OW  836   4.568   1.581   6.215
32980SOL    HW1  837   4.596   1.561   6.126
32980SOL    HW2  838   4.543   1.674   6.213
32981SOL     OW  839  10.140   3.042  10.168
32981SOL    HW1  840  10.054   3.084  10.171
32981SOL    HW2  841  10.181   3.076  10.088
32982SOL     OW  842  11.147   5.750  14.426
32982SOL    HW1  843  11.240   5.771  14.421
32982SOL    HW2  844  11.122   5.731  14.335
32983SOL     OW  845   1.794   8.134   7.552
32983SOL    HW1  846   1.777   8.174   7.467
32983SOL    HW2  847   1.743   8.188   7.614
32984SOL     OW  848  13.164   6.702   2.952
32984SOL    HW1  849  13.100   6.741   3.012
32984SOL    HW2  850  13.131   6.614   2.935
32985SOL     OW  851  14.168  10.919   3.438
32985SOL    HW1  852  14.157  11.012   3.456
32985SOL    HW2  853  14.230  10.917   3.365
32986SOL     OW  854   9.125  10.282  14.092
32986SOL    HW1  855   9.125  10.334  14.011
32986SOL    HW2  856   9.215  10.253  14.102
32987SOL     OW  857  13.384   2.692   3.634
32987SOL    HW1  858  13.341   2.767   3.675
32987SOL    HW2  859  13.395   2.629   3.704
32988SOL     OW  860   8.736   5.626  10.637
32988SOL    HW1  861   8.826   5.652  10.616
32988SOL    HW2  862   8.746   5.565  10.710
32989SOL     OW  863   8.048  14.703  14.160
32989SOL    HW1  864   7.967  14.674  14.202
32989SOL    HW2  865   8.060  14.641  14.088
32990SOL     OW  866   8.098  10.003  11.852
32990SOL    HW1  867   8.147  10.043  11.925
32990SOL    HW2  868   8.160   9.943  11.812
32991SOL     OW  869   0.408   5.002  14.672
32991SOL    HW1  870   0.497   5.027  14.649
32991SOL    HW2  871   0.356   5.029  14.596
32992SOL     OW  872   9.589  12.889   4.559
32992SOL    HW1  873   9.652  12.913   4.627
32992SOL    HW2  874   9.620  12.804   4.527
32993SOL     OW  875   6.908  12.789   9.182
32993SOL    HW1  876   6.875  12.795   9.272
32993SOL    HW2  877   6.834  12.818   9.128
32994SOL     OW  878   1.867   0.969  12.328
32994SOL    HW1  879   1.890   0.953  12.420
32994SOL    HW2  880   1.789   0.914  12.314
32995SOL     OW  881   0.329   2.333  13.100
32995SOL    HW1  882   0.235   2.335  13.083
32995SOL    HW2  883   0.355   2.243  13.080
32996SOL     OW  884  11.478   9.388   1.398
32996SOL    HW1  885  11.436   9.471   1.374
32996SOL    HW2  886  11.512   9.403   1.486
32997SOL     OW  887  14.653   5.254  10.544
32997SOL    HW1  888  14.642   5.202  10.623
32997SOL    HW2  889  14.689   5.337  10.575
32998SOL     OW  890   6.492   5.379  10.639
32998SOL    HW1  891   6.401   5.397  10.663
32998SOL    HW2  892   6.521   5.313  10.701
32999SOL     OW  893  11.851   6.655   1.240
32999SOL    HW1  894  11.933   6.611   1.218
32999SOL    HW2  895  11.866   6.747   1.220
33000SOL     OW  896  14.840   6.679   1.498
33000SOL    HW1  897   0.063   6.700   1.487
33000SOL    HW2  898  14.806   6.749   1.553
33001SOL     OW  899  13.510  11.815  13.582
33001SOL    HW1  900  13.421  11.847  13.594
33001SOL    HW2  901  13.561  11.858  13.651
33002SOL     OW  902   8.104   0.375  11.893
33002SOL    HW1  903   8.078   0.318  11.964
33002SOL    HW2  904   8.124   0.459  11.935
33003SOL     OW  905   8.410   8.037  11.374
33003SOL    HW1  906   8.468   8.073  11.307
33003SOL    HW2  907   8.338   7.997  11.325
33004SOL     OW  908   8.712  11.663   7.954
33004SOL    HW1  909   8.781  11.622   8.007
33004SOL    HW2  910   8.757  11.688   7.873
33005SOL     OW  911   6.111  12.534  11.097
33005SOL    HW1  912   6.026  12.495  11.078
33005SOL    HW2  913   6.174  12.464  11.080
33006SOL     OW  914  11.513   7.416  10.098
33006SOL    HW1  915  11.555   7.479  10.039
33006SOL    HW2  916  11.583   7.384  10.155
33007SOL     OW  917   0.670   1.259   9.933
33007SOL    HW1  918   0.730   1.217   9.872
33007SOL    HW2  919   0.715   1.339   9.961
33008SOL     OW  920   0.667  11.992   4.457
33008SOL    HW1  921   0.601  12.056   4.430
33008SOL    HW2  922   0.750  12.035   4.440
33009SOL     OW  923   7.187  13.699   8.994
33009SOL    HW1  924   7.268  13.700   9.045
33009SOL    HW2  925   7.141  13.778   9.021
33010SOL     OW  926   4.946   3.429  11.962
33010SOL    HW1  927   4.895   3.463  11.888
33010SOL    HW2  928   5.031   3.405  11.923
33011SOL     OW  929   3.191   5.497  10.228
33011SOL    HW1  930   3.171   5.529  10.316
33011SOL    HW2  931   3.251   5.425  10.242
33012SOL     OW  932   6.864  14.673  11.208
33012SOL    HW1  933   6.919  14.607  11.165
33012SOL    HW2  934   6.925  14.731  11.252
33013SOL     OW  935   6.563   0.738  10.447
33013SOL    HW1  936   6.489   0.680  10.465
33013SOL    HW2  937   6.627   0.718  10.516
33014SOL     OW  938   3.838   6.926   5.221
33014SOL    HW1  939   3.877   6.892   5.141
33014SOL    HW2  940   3.745   6.904   5.214
33015SOL     OW  941   4.465   5.790  11.750
33015SOL    HW1  942   4.488   5.851  11.820
33015SOL    HW2  943   4.369   5.789  11.750
33016SOL     OW  944   7.097   9.343   3.859
33016SOL    HW1  945   7.122   9.259   3.820
33016SOL    HW2  946   7.024   9.322   3.917
33017SOL     OW  947  14.295   8.661  10.085
33017SOL    HW1  948  14.265   8.747  10.114
33017SOL    HW2  949  14.289   8.665   9.990
33018SOL     OW  950   0.396  14.250   3.344
33018SOL    HW1  951   0.426  14.194   3.273
33018SOL    HW2  952   0.325  14.201   3.385
33019SOL     OW  953   2.840   8.791   2.484
33019SOL    HW1  954   2.870   8.854   2.550
33019SOL    HW2  955   2.868   8.706   2.517
33020SOL     OW  956   1.604   4.456   8.630
33020SOL    HW1  957   1.623   4.365   8.653
33020SOL    HW2  958   1.580   4.454   8.537
33021SOL     OW  959   0.237   6.110  10.627
33021SOL    HW1  960   0.152   6.154  10.625
33021SOL    HW2  961   0.284   6.144  10.551
33022SOL     OW  962   5.206  13.997   5.174
33022SOL    HW1  963   5.232  13.925   5.231
33022SOL    HW2  964   5.111  13.992   5.170
33023SOL     OW  965   2.445   7.171  14.535
33023SOL    HW1  966   2.494   7.199  14.612
33023SOL    HW2  967   2.416   7.252  14.494
33024SOL     OW  968  13.209  14.319  11.818
33024SOL    HW1  969  13.304  14.309  11.809
33024SOL    HW2  970  13.179  14.235  11.853
33025SOL     OW  971  13.003  11.059   0.623
33025SOL    HW1  972  12.976  11.000   0.693
33025SOL    HW2  973  12.924  11.109   0.603
33026SOL     OW  974   7.750   5.752   6.120
33026SOL    HW1  975   7.789   5.840   6.124
33026SOL    HW2  976   7.797   5.702   6.187
33027SOL     OW  977   4.110  12.208   9.127
33027SOL    HW1  978   4.023  12.246   9.137
33027SOL    HW2  979   4.170  12.271   9.168
33028SOL     OW  980   1.072   4.869   4.839
33028SOL    HW1  981   1.104   4.814   4.911
33028SOL    HW2  982   0.997   4.821   4.804
33029SOL     OW  983  12.833  14.687   9.376
33029SOL    HW1  984  12.851  14.625   9.447
33029SOL    HW2  985  12.920  14.722   9.352
33030SOL     OW  986  14.655  14.630   9.979
33030SOL    HW1  987  14.596  14.639  10.054
33030SOL    HW2  988  14.735  14.592  10.016
33031SOL     OW  989   0.365  11.207  10.670
33031SOL    HW1  990   0.417  11.170  10.741
33031SOL    HW2  991   0.286  11.152  10.667
33032SOL     OW  992  13.855   8.076   2.434
33032SOL    HW1  993  13.761   8.078   2.454
33032SOL    HW2  994  13.859   8.095   2.340
33033SOL     OW  995  12.441  11.061   6.619
33033SOL    HW1  996  12.422  11.141   6.668
33033SOL    HW2  997  12.415  10.991   6.679
33034SOL     OW  998   7.140   4.214  14.309
33034SOL    HW1  999   7.086   4.141  14.339
33034SOL    HW2 1000   7.152   4.197  14.215
33035SOL     OW 1001  11.536  10.074  13.810
33035SOL    HW1 1002  11.527  10.009  13.740
33035SOL    HW2 1003  11.536  10.024  13.891
33036SOL     OW 1004   0.501  11.411   6.191
33036SOL    HW1 1005   0.594  11.394   6.206
33036SOL    HW2 1006   0.498  11.501   6.159
33037SOL     OW 1007   0.326   0.785  13.074
33037SOL    HW1 1008   0.271   0.858  13.045
33037SOL    HW2 1009   0.269   0.733  13.131
33038SOL     OW 1010   9.922   1.906   0.930
33038SOL    HW1 1011   9.993   1.876   0.987
33038SOL    HW2 1012   9.939   1.863   0.846
33039SOL     OW 1013   3.814  12.027   7.853
33039SOL    HW1 1014   3.804  12.121   7.835
33039SOL    HW2 1015   3.727  11.999   7.880
33040SOL     OW 1016   6.801  12.475   3.933
33040SOL    HW1 1017   6.755  12.553   3.963
33040SOL    HW2 1018   6.804  12.484   3.837
33041SOL     OW 1019   3.103  10.488   5.810
33041SOL    HW1 1020   3.012  10.497   5.781
33041SOL    HW2 1021   3.097  10.455   5.899
33042SOL     OW 1022   9.549   1.811   8.225
33042SOL    HW1 1023   9.629   1.784   8.270
33042SOL    HW2 1024   9.578   1.844   8.140
33043SOL     OW 1025   6.241   3.249  13.915
33043SOL    HW1 1026   6.308   3.270  13.851
33043SOL    HW2 1027   6.188   3.329  13.922
33044SOL     OW 1028   5.295   9.797  10.233
33044SOL    HW1 1029   5.304   9.835  10.321
33044SOL    HW2 1030   5.254   9.866  10.181
33045SOL     OW 1031   1.934   5.788   8.340
33045SOL    HW1 1032   1.934   5.883   8.355
33045SOL    HW2 1033   1.897   5.751   8.419
33046SOL     OW 1034  14.107  13.602  13.105
33046SOL    HW1 1035  14.173  13.559  13.158
33046SOL    HW2 1036  14.120  13.566  13.017
33047SOL     OW 1037  14.693  12.112  14.166
33047SOL    HW1 1038  14.636  12.083  14.094
33047SOL    HW2 1039  14.658  12.198  14.191
33048SOL     OW 1040   8.834  11.930   1.964
33048SOL    HW1 1041   8.884  11.854   1.937
33048SOL    HW2 1042   8.749  11.895   1.992
33049SOL     OW 1043  14.405  13.907  13.869
33049SOL    HW1 1044  14.492  13.895  13.831
33049SOL    HW2 1045  14.383  13.821  13.906
33050SOL     OW 1046   5.184   3.595  13.468
33050SOL    HW1 1047   5.090   3.581  13.456
33050SOL    HW2 1048   5.202   3.677  13.424
33051SOL     OW 1049   5.875   4.991   2.119
33051SOL    HW1 1050   5.905   5.066   2.068
33051SOL    HW2 1051   5.951   4.935   2.127
33052SOL     OW 1052  14.616   7.932   1.407
33052SOL    HW1 1053  14.529   7.931   1.447
33052SOL    HW2 1054  14.676   7.945   1.480
33053SOL     OW 1055   7.686   5.011   8.266
33053SOL    HW1 1056   7.677   4.981   8.175
33053SOL    HW2 1057   7.697   4.931   8.317
33054SOL     OW 1058   8.854  14.789   6.486
33054SOL    HW1 1059   8.802  14.836   6.421
33054SOL    HW2 1060   8.928  14.848   6.505
33055SOL     OW 1061   0.841   6.442   4.698
33055SOL    HW1 1062   0.888   6.472   4.619
33055SOL    HW2 1063   0.905   6.390   4.746
33056SOL     OW 1064   1.818   6.589   8.876
33056SOL    HW1 1065   1.739   6.614   8.924
33056SOL    HW2 1066   1.879   6.661   8.893
33057SOL     OW 1067   5.009   2.539   6.344
33057SOL    HW1 1068   4.969   2.531   6.257
33057SOL    HW2 1069   5.063   2.461   6.353
33058SOL     OW 1070   4.684  11.930  14.778
33058SOL    HW1 1071   4.648  12.007  14.822
33058SOL    HW2 1072   4.646  11.933  14.691
33059SOL     OW 1073   3.874   9.673   0.762
33059SOL    HW1 1074   3.916   9.702   0.843
33059SOL    HW2 1075   3.791   9.721   0.760
33060SOL     OW 1076  14.669  10.476   1.799
33060SOL    HW1 1077  14.577  10.484   1.773
33060SOL    HW2 1078  14.711  10.431   1.726
33061SOL     OW 1079   8.819   3.065   7.673
33061SOL    HW1 1080   8.771   3.043   7.753
33061SOL    HW2 1081   8.874   2.988   7.657
33062SOL     OW 1082   1.364   3.912   2.032
33062SOL    HW1 1083   1.340   3.828   1.993
33062SOL    HW2 1084   1.450   3.931   1.996
33063SOL     OW 1085   6.041   4.795  14.369
33063SOL    HW1 1086   6.040   4.855  14.444
33063SOL    HW2 1087   5.974   4.729  14.391
33064SOL     OW 1088   7.558   3.118   5.581
33064SOL    HW1 1089   7.583   3.185   5.644
33064SOL    HW2 1090   7.584   3.036   5.622
33065SOL     OW 1091   7.271  14.246   7.438
33065SOL    HW1 1092   7.208  14.305   7.398
33065SOL    HW2 1093   7.218  14.175   7.475
33066SOL     OW 1094  10.238   6.403   8.375
33066SOL    HW1 1095  10.254   6.328   8.432
33066SOL    HW2 1096  10.313   6.461   8.389
33067SOL     OW 1097   8.729   4.155  14.758
33067SOL    HW1 1098   8.696   4.065  14.749
33067SOL    HW2 1099   8.688   4.188  14.837
33068SOL     OW 1100   2.878   2.944   7.812
33068SOL    HW1 1101   2.804   2.965   7.755
33068SOL    HW2 1102   2.895   3.025   7.860
33069SOL     OW 1103   5.096   1.063  12.051
33069SOL    HW1 1104   5.070   0.986  11.999
33069SOL    HW2 1105   5.014   1.107  12.072
33070SOL     OW 1106   2.936  13.093  14.032
33070SOL    HW1 1107   2.989  13.122  14.106
33070SOL    HW2 1108   2.882  13.168  14.009
33071SOL     OW 1109   9.810   0.263  12.325
33071SOL    HW1 1110   9.826   0.327  12.393
33071SOL    HW2 1111   9.807   0.313  12.244
33072SOL     OW 1112  14.815  12.327  14.390
33072SOL    HW1 1113  14.762  12.365  14.320
33072SOL    HW2 1114  14.751  12.295  14.454
33073SOL     OW 1115  14.349   4.294   3.583
33073SOL    HW1 1116  14.299   4.361   3.630
33073SOL    HW2 1117  14.355   4.221   3.645
33074SOL     OW 1118   1.767  13.306  12.517
33074SOL    HW1 1119   1.774  13.389  12.565
33074SOL    HW2 1120   1.749  13.333  12.426
33075SOL     OW 1121   8.104  12.643   5.906
33075SOL    HW1 1122   8.185  12.596   5.888
33075SOL    HW2 1123   8.079  12.616   5.995
33076SOL     OW 1124  13.360   0.342  13.990
33076SOL    HW1 1125  13.412   0.371  13.915
33076SOL    HW2 1126  13.278   0.312  13.952
33077SOL     OW 1127  13.292   3.257  11.461
33077SOL    HW1 1128  13.317   3.180  11.513
33077SOL    HW2 1129  13.318   3.235  11.372
33078SOL     OW 1130  11.032   7.149  11.317
33078SOL    HW1 1131  11.042   7.055  11.328
33078SOL    HW2 1132  10.968   7.174  11.383
33079SOL     OW 1133  14.403   0.625   9.618
33079SOL    HW1 1134  14.459   0.623   9.541
33079SOL    HW2 1135  14.377   0.717   9.627
33080SOL     OW 1136   1.769  14.691  11.769
33080SOL    HW1 1137   1.800  14.778  11.746
33080SOL    HW2 1138   1.796  14.678  11.860
33081SOL     OW 1139   2.634   7.008   4.210
33081SOL    HW1 1140   2.541   7.029   4.208
33081SOL    HW2 1141   2.667   7.031   4.123
33082SOL     OW 1142   5.253  10.952   4.950
33082SOL    HW1 1143   5.184  10.950   4.883
33082SOL    HW2 1144   5.207  10.933   5.032
33083SOL     OW 1145  12.332  10.402   0.863
33083SOL    HW1 1146  12.292  10.315   0.859
33083SOL    HW2 1147  12.285  10.453   0.797
33084SOL     OW 1148   8.222   5.135   0.467
33084SOL    HW1 1149   8.193   5.060   0.414
33084SOL    HW2 1150   8.161   5.138   0.540
33085SOL     OW 1151  11.395   0.756  14.227
33085SOL    HW1 1152  11.378   0.761  14.321
33085SOL    HW2 1153  11.481   0.714  14.221
33086SOL     OW 1154  10.115   8.051   1.570
33086SOL    HW1 1155  10.172   7.975   1.562
33086SOL    HW2 1156  10.106   8.065   1.664
33087SOL     OW 1157   0.081  11.225  10.453
33087SOL    HW1 1158  14.855  11.235  10.448
33087SOL    HW2 1159   0.098  11.200  10.544
33088SOL     OW 1160   5.780   9.074   9.973
33088SOL    HW1 1161   5.836   9.034   9.907
33088SOL    HW2 1162   5.824   9.156   9.995
33089SOL     OW 1163  10.118  13.251   1.343
33089SOL    HW1 1164  10.118  13.333   1.293
33089SOL    HW2 1165  10.131  13.183   1.278
33090SOL     OW 1166   6.805   0.145  10.751
33090SOL    HW1 1167   6.844   0.085  10.813
33090SOL    HW2 1168   6.866   0.219  10.747
33091SOL     OW 1169  10.896   4.276   6.382
33091SOL    HW1 1170  10.927   4.342   6.443
33091SOL    HW2 1171  10.888   4.322   6.298
33092SOL     OW 1172   0.597   1.170   3.462
33092SOL    HW1 1173   0.606   1.138   3.552
33092SOL    HW2 1174   0.661   1.240   3.454
33093SOL     OW 1175   0.737   2.092   2.861
33093SOL    HW1 1176   0.665   2.155   2.871
33093SOL    HW2 1177   0.695   2.006   2.871
33094SOL     OW 1178   3.510  11.740   7.836
33094SOL    HW1 1179   3.556  11.784   7.907
33094SOL    HW2 1180   3.527  11.793   7.758
33095SOL     OW 1181   4.159   3.955  13.684
33095SOL    HW1 1182   4.108   3.916  13.755
33095SOL    HW2 1183   4.105   4.029  13.654
33096SOL     OW 1184  10.515   6.368  13.590
33096SOL    HW1 1185  10.513   6.458  13.558
33096SOL    HW2 1186  10.587   6.327  13.541
33097SOL     OW 1187  10.968   0.214   8.154
33097SOL    HW1 1188  10.935   0.244   8.238
33097SOL    HW2 1189  10.912   0.141   8.130
33098SOL     OW 1190   0.353   5.607   9.921
33098SOL    HW1 1191   0.412   5.651   9.861
33098SOL    HW2 1192   0.281   5.668   9.934
33099SOL     OW 1193  12.200   6.538  12.017
33099SOL    HW1 1194  12.211   6.585  11.934
33099SOL    HW2 1195  12.254   6.460  12.008
33100SOL     OW 1196   7.891   3.036   1.589
33100SOL    HW1 1197   7.861   2.987   1.513
33100SOL    HW2 1198   7.987   3.036   1.581
33101SOL     OW 1199   4.350   8.417   4.420
33101SOL    HW1 1200   4.311   8.364   4.489
33101SOL    HW2 1201   4.291   8.406   4.345
33102SOL     OW 1202  11.763   0.665   3.936
33102SOL    HW1 1203  11.766   0.699   3.847
33102SOL    HW2 1204  11.772   0.742   3.992
33103SOL     OW 1205   3.948   8.013   3.711
33103SOL    HW1 1206   3.934   8.012   3.806
33103SOL    HW2 1207   3.897   7.939   3.678
33104SOL     OW 1208   2.820  10.950  13.990
33104SOL    HW1 1209   2.801  11.013  14.059
33104SOL    HW2 1210   2.861  10.877  14.035
33105SOL     OW 1211  10.219   2.643   6.592
33105SOL    HW1 1212  10.200   2.574   6.655
33105SOL    HW2 1213  10.153   2.711   6.610
33106SOL     OW 1214   4.643   0.637  11.176
33106SOL    HW1 1215   4.734   0.654  11.201
33106SOL    HW2 1216   4.592   0.664  11.252
33107SOL     OW 1217   8.212   1.685   0.071
33107SOL    HW1 1218   8.297   1.660   0.104
33107SOL    HW2 1219   8.224   1.775   0.039
33108SOL     OW 1220   9.384  12.366  10.977
33108SOL    HW1 1221   9.375  12.288  11.032
33108SOL    HW2 1222   9.387  12.332  10.888
33109SOL     OW 1223   9.502   9.822   5.942
33109SOL    HW1 1224   9.432   9.840   5.879
33109SOL    HW2 1225   9.456   9.802   6.024
33110SOL     OW 1226   8.328   9.104  12.757
33110SOL    HW1 1227   8.267   9.177  12.767
33110SOL    HW2 1228   8.397   9.121  12.822
33111SOL     OW 1229   2.353  11.098  14.433
33111SOL    HW1 1230   2.427  11.041  14.454
33111SOL    HW2 1231   2.347  11.158  14.507
33112SOL     OW 1232  13.111   5.886   3.033
33112SOL    HW1 1233  13.101   5.792   3.045
33112SOL    HW2 1234  13.031   5.924   3.069
33113SOL     OW 1235  13.891   2.602  14.371
33113SOL    HW1 1236  13.815   2.658  14.386
33113SOL    HW2 1237  13.953   2.627  14.440
33114SOL     OW 1238   9.182  12.896   9.654
33114SOL    HW1 1239   9.092  12.907   9.688
33114SOL    HW2 1240   9.204  12.981   9.617
33115SOL     OW 1241   8.297   5.856  11.841
33115SOL    HW1 1242   8.280   5.762  11.832
33115SOL    HW2 1243   8.392   5.862  11.855
33116SOL     OW 1244  12.090  14.403  12.569
33116SOL    HW1 1245  12.029  14.349  12.519
33116SOL    HW2 1246  12.069  14.384  12.661
33117SOL     OW 1247   0.646  13.649   5.603
33117SOL    HW1 1248   0.567  13.694   5.634
33117SOL    HW2 1249   0.703  13.720   5.574
33118SOL     OW 1250   6.859  11.545  13.094
33118SOL    HW1 1251   6.832  11.630  13.128
33118SOL    HW2 1252   6.915  11.509  13.163
33119SOL     OW 1253   4.945   1.303   4.423
33119SOL    HW1 1254   4.969   1.300   4.516
33119SOL    HW2 1255   4.947   1.212   4.394
33120SOL     OW 1256  13.272  13.744  13.788
33120SOL    HW1 1257  13.246  13.798  13.713
33120SOL    HW2 1258  13.366  13.759  13.797
33121SOL     OW 1259  13.794   3.714  12.055
33121SOL    HW1 1260  13.699   3.722  12.059
33121SOL    HW2 1261  13.816   3.656  12.129
33122SOL     OW 1262   6.350   7.171   5.473
33122SOL    HW1 1263   6.445   7.158   5.479
33122SOL    HW2 1264   6.336   7.202   5.383
33123SOL     OW 1265   3.258  12.389   0.103
33123SOL    HW1 1266   3.194  12.459   0.120
33123SOL    HW2 1267   3.217  12.310   0.136
33124SOL     OW 1268  10.758  13.666   6.723
33124SOL    HW1 1269  10.733  13.699   6.809
33124SOL    HW2 1270  10.747  13.571   6.729
33125SOL     OW 1271   8.701  13.460  12.500
33125SOL    HW1 1272   8.663  13.540  12.464
33125SOL    HW2 1273   8.691  13.470  12.595
33126SOL     OW 1274   5.220  10.247  10.185
33126SOL    HW1 1275   5.222  10.185  10.113
33126SOL    HW2 1276   5.182  10.198  10.258
33127SOL     OW 1277   5.624   9.682   4.667
33127SOL    HW1 1278   5.597   9.773   4.680
33127SOL    HW2 1279   5.602   9.639   4.750
33128SOL     OW 1280  14.264  14.547   3.568
33128SOL    HW1 1281  14.312  14.475   3.611
33128SOL    HW2 1282  14.330  14.590   3.513
33129SOL     OW 1283   0.597   4.524  12.674
33129SOL    HW1 1284   0.535   4.566  12.616
33129SOL    HW2 1285   0.604   4.582  12.750
33130SOL     OW 1286  10.721  14.801   7.581
33130SOL    HW1 1287  10.775  14.754   7.518
33130SOL    HW2 1288  10.711   0.020   7.544
33131SOL     OW 1289   3.629   5.902  12.961
33131SOL    HW1 1290   3.579   5.934  12.886
33131SOL    HW2 1291   3.566   5.850  13.011
33132SOL     OW 1292  14.587   8.528   3.093
33132SOL    HW1 1293  14.623   8.607   3.052
33132SOL    HW2 1294  14.577   8.466   3.020
33133SOL     OW 1295   1.412   3.730   9.980
33133SOL    HW1 1296   1.407   3.643  10.021
33133SOL    HW2 1297   1.334   3.775  10.012
33134SOL     OW 1298   3.068   2.785   0.633
33134SOL    HW1 1299   3.122   2.776   0.712
33134SOL    HW2 1300   3.086   2.873   0.601
33135SOL     OW 1301  14.297   9.574   6.690
33135SOL    HW1 1302  14.204   9.557   6.676
33135SOL    HW2 1303  14.309   9.568   6.785
33136SOL     OW 1304   3.806   2.432   8.633
33136SOL    HW1 1305   3.817   2.351   8.583
33136SOL    HW2 1306   3.740   2.481   8.584
33137SOL     OW 1307  12.432   0.464   1.176
33137SOL    HW1 1308  12.383   0.442   1.097
33137SOL    HW2 1309  12.411   0.556   1.194
33138SOL     OW 1310  14.022   6.640  12.370
33138SOL    HW1 1311  13.990   6.666  12.456
33138SOL    HW2 1312  14.098   6.584  12.389
33139SOL     OW 1313  13.052   7.094   5.239
33139SOL    HW1 1314  13.031   7.058   5.153
33139SOL    HW2 1315  12.972   7.083   5.290
33140SOL     OW 1316   7.271   6.227  12.142
33140SOL    HW1 1317   7.310   6.300  12.189
33140SOL    HW2 1318   7.180   6.225  12.171
33141SOL     OW 1319  11.069   8.680   7.536
33141SOL    HW1 1320  11.036   8.680   7.626
33141SOL    HW2 1321  11.040   8.763   7.500
33142SOL     OW 1322  10.911   9.675   5.730
33142SOL    HW1 1323  10.855   9.740   5.689
33142SOL    HW2 1324  10.919   9.604   5.666
33143SOL     OW 1325   7.847   7.335   3.066
33143SOL    HW1 1326   7.838   7.403   3.133
33143SOL    HW2 1327   7.807   7.257   3.106
33144SOL     OW 1328   6.101   0.664  10.706
33144SOL    HW1 1329   6.152   0.665  10.787
33144SOL    HW2 1330   6.133   0.587  10.658
33145SOL     OW 1331  10.276   6.599   0.681
33145SOL    HW1 1332  10.239   6.590   0.769
33145SOL    HW2 1333  10.265   6.692   0.660
33146SOL     OW 1334  10.982  13.938   6.818
33146SOL    HW1 1335  10.921  13.869   6.792
33146SOL    HW2 1336  10.961  13.955   6.910
33147SOL     OW 1337   9.673  14.414   0.414
33147SOL    HW1 1338   9.748  14.411   0.473
33147SOL    HW2 1339   9.598  14.426   0.473
33148SOL     OW 1340   4.612   3.879  14.493
33148SOL    HW1 1341   4.668   3.890  14.416
33148SOL    HW2 1342   4.568   3.795  14.479
33149SOL     OW 1343  13.574   5.910   4.449
33149SOL    HW1 1344  13.514   5.857   4.397
33149SOL    HW2 1345  13.544   5.897   4.539
33150SOL     OW 1346   7.928   1.653   6.678
33150SOL    HW1 1347   8.017   1.641   6.645
33150SOL    HW2 1348   7.893   1.565   6.685
33151SOL     OW 1349   2.106  14.602   2.574
33151SOL    HW1 1350   2.089  14.696   2.578
33151SOL    HW2 1351   2.112  14.582   2.481
33152SOL     OW 1352  10.896   5.165  13.818
33152SOL    HW1 1353  10.843   5.093  13.853
33152SOL    HW2 1354  10.831   5.227  13.784
33153SOL     OW 1355  10.032  12.294   2.674
33153SOL    HW1 1356  10.058  12.378   2.635
33153SOL    HW2 1357   9.941  12.307   2.701
33154SOL     OW 1358  12.188   1.814  12.209
33154SOL    HW1 1359  12.271   1.770  12.190
33154SOL    HW2 1360  12.127   1.778  12.145
33155SOL     OW 1361   5.147   8.568  12.876
33155SOL    HW1 1362   5.128   8.507  12.805
33155SOL    HW2 1363   5.165   8.651  12.833
33156SOL     OW 1364  10.718   9.431  10.577
33156SOL    HW1 1365  10.764   9.349  10.594
33156SOL    HW2 1366  10.779   9.499  10.606
33157SOL     OW 1367   9.967   8.414   1.890
33157SOL    HW1 1368   9.974   8.479   1.960
33157SOL    HW2 1369   9.895   8.357   1.918
33158SOL     OW 1370   8.099   5.787  14.611
33158SOL    HW1 1371   8.016   5.794  14.565
33158SOL    HW2 1372   8.122   5.877  14.634
33159SOL     OW 1373   7.817   8.416  13.071
33159SOL    HW1 1374   7.843   8.469  13.146
33159SOL    HW2 1375   7.738   8.370  13.101
33160SOL     OW 1376   5.109   9.226  11.685
33160SOL    HW1 1377   5.171   9.202  11.617
33160SOL    HW2 1378   5.091   9.319  11.669
33161SOL     OW 1379  12.141  14.254  14.429
33161SOL    HW1 1380  12.203  14.181  14.439
33161SOL    HW2 1381  12.109  14.270  14.517
33162SOL     OW 1382   4.810   9.858  11.612
33162SOL    HW1 1383   4.860   9.821  11.684
33162SOL    HW2 1384   4.857   9.939  11.590
33163SOL     OW 1385   1.458   1.307   6.769
33163SOL    HW1 1386   1.415   1.313   6.685
33163SOL    HW2 1387   1.438   1.390   6.813
33164SOL     OW 1388   8.120   3.866   9.564
33164SOL    HW1 1389   8.079   3.902   9.486
33164SOL    HW2 1390   8.214   3.869   9.545
33165SOL     OW 1391   7.357  11.063   0.652
33165SOL    HW1 1392   7.309  11.111   0.584
33165SOL    HW2 1393   7.328  11.103   0.734
33166SOL     OW 1394   1.473   2.913   2.601
33166SOL    HW1 1395   1.490   2.858   2.525
33166SOL    HW2 1396   1.379   2.902   2.617
33167SOL     OW 1397   4.701  13.794   5.188
33167SOL    HW1 1398   4.695  13.840   5.272
33167SOL    HW2 1399   4.675  13.704   5.208
33168SOL     OW 1400   3.438  13.275  12.230
33168SOL    HW1 1401   3.501  13.324  12.282
33168SOL    HW2 1402   3.490  13.206  12.188
33169SOL     OW 1403  10.090   3.254  13.879
33169SOL    HW1 1404   9.999   3.278  13.898
33169SOL    HW2 1405  10.098   3.266  13.784
33170SOL     OW 1406   0.916   1.371   0.737
33170SOL    HW1 1407   0.880   1.343   0.653
33170SOL    HW2 1408   0.882   1.459   0.749
33171SOL     OW 1409  13.073  10.228   5.012
33171SOL    HW1 1410  13.084  10.319   5.040
33171SOL    HW2 1411  13.161  10.200   4.986
33172SOL     OW 1412  10.432  13.934   8.722
33172SOL    HW1 1413  10.510  13.879   8.712
33172SOL    HW2 1414  10.364  13.873   8.752
33173SOL     OW 1415   5.879  10.525   5.613
33173SOL    HW1 1416   5.811  10.592   5.611
33173SOL    HW2 1417   5.933  10.548   5.689
33174SOL     OW 1418   3.157   6.072  10.941
33174SOL    HW1 1419   3.241   6.075  10.896
33174SOL    HW2 1420   3.093   6.095  10.874
33175SOL     OW 1421   1.956   7.803   6.168
33175SOL    HW1 1422   1.870   7.844   6.173
33175SOL    HW2 1423   1.956   7.758   6.083
33176SOL     OW 1424   2.932   3.225  12.048
33176SOL    HW1 1425   3.002   3.225  11.983
33176SOL    HW2 1426   2.951   3.149  12.103
33177SOL     OW 1427  12.711   4.770  13.456
33177SOL    HW1 1428  12.762   4.768  13.537
33177SOL    HW2 1429  12.733   4.689  13.411
33178SOL     OW 1430  10.196  10.291   0.239
33178SOL    HW1 1431  10.156  10.375   0.259
33178SOL    HW2 1432  10.177  10.237   0.316
33179SOL     OW 1433   9.556   0.319   4.480
33179SOL    HW1 1434   9.638   0.277   4.452
33179SOL    HW2 1435   9.534   0.377   4.407
33180SOL     OW 1436  10.283  11.116  12.171
33180SOL    HW1 1437  10.249  11.083  12.088
33180SOL    HW2 1438  10.367  11.157  12.148
33181SOL     OW 1439  12.796   1.637  14.582
33181SOL    HW1 1440  12.806   1.671  14.671
33181SOL    HW2 1441  12.707   1.601  14.580
33182SOL     OW 1442   0.485  11.534   4.328
33182SOL    HW1 1443   0.564  11.480   4.334
33182SOL    HW2 1444   0.517  11.624   4.329
33183SOL     OW 1445   4.051   9.040   8.682
33183SOL    HW1 1446   4.030   8.951   8.712
33183SOL    HW2 1447   4.020   9.097   8.752
33184SOL     OW 1448   2.475  14.502   4.021
33184SOL    HW1 1449   2.379  14.502   4.025
33184SOL    HW2 1450   2.495  14.499   3.927
33185SOL     OW 1451  13.078   0.816   2.110
33185SOL    HW1 1452  13.135   0.759   2.162
33185SOL    HW2 1453  13.003   0.761   2.088
33186SOL     OW 1454  12.890   0.379   1.906
33186SOL    HW1 1455  12.962   0.352   1.963
33186SOL    HW2 1456  12.907   0.471   1.888
33187SOL     OW 1457  14.788   1.440   0.876
33187SOL    HW1 1458  14.840   1.516   0.848
33187SOL    HW2 1459  14.786   1.383   0.800
33188SOL     OW 1460  13.229   3.397   5.018
33188SOL    HW1 1461  13.231   3.397   5.114
33188SOL    HW2 1462  13.285   3.470   4.993
33189SOL     OW 1463  12.423  14.588  11.987
33189SOL    HW1 1464  12.446  14.497  11.965
33189SOL    HW2 1465  12.454  14.600  12.077
33190SOL     OW 1466   2.837   3.091  13.550
33190SOL    HW1 1467   2.846   3.005  13.510
33190SOL    HW2 1468   2.786   3.075  13.630
33191SOL     OW 1469   5.252   8.582   6.947
33191SOL    HW1 1470   5.286   8.534   7.023
33191SOL    HW2 1471   5.159   8.595   6.966
33192SOL     OW 1472   3.724  13.142  11.863
33192SOL    HW1 1473   3.734  13.112  11.772
33192SOL    HW2 1474   3.744  13.236  11.860
33193SOL     OW 1475   7.975  14.734   9.407
33193SOL    HW1 1476   7.948  14.823   9.382
33193SOL    HW2 1477   7.896  14.696   9.446
33194SOL     OW 1478   7.455   2.245   5.846
33194SOL    HW1 1479   7.531   2.294   5.878
33194SOL    HW2 1480   7.434   2.184   5.917
33195SOL     OW 1481  13.212   2.796  11.037
33195SOL    HW1 1482  13.155   2.873  11.037
33195SOL    HW2 1483  13.244   2.790  11.127
33196SOL     OW 1484   3.470  10.790   1.924
33196SOL    HW1 1485   3.521  10.725   1.876
33196SOL    HW2 1486   3.380  10.776   1.895
33197SOL     OW 1487   2.586   4.815  10.766
33197SOL    HW1 1488   2.637   4.880  10.813
33197SOL    HW2 1489   2.551   4.862  10.690
33198SOL     OW 1490  11.894   8.246   8.456
33198SOL    HW1 1491  11.937   8.162   8.438
33198SOL    HW2 1492  11.945   8.310   8.408
33199SOL     OW 1493   2.517  12.952   3.003
33199SOL    HW1 1494   2.546  13.041   2.983
33199SOL    HW2 1495   2.591  12.897   2.976
33200SOL     OW 1496   8.469   2.673   9.793
33200SOL    HW1 1497   8.491   2.597   9.847
33200SOL    HW2 1498   8.500   2.748   9.842
33201SOL     OW 1499   8.624   9.508   2.851
33201SOL    HW1 1500   8.542   9.461   2.868
33201SOL    HW2 1501   8.597   9.590   2.810
33202SOL     OW 1502   9.320   9.449   3.375
33202SOL    HW1 1503   9.276   9.391   3.312
33202SOL    HW2 1504   9.249   9.499   3.414
33203SOL     OW 1505  13.307  11.259   6.793
33203SOL    HW1 1506  13.253  11.321   6.844
33203SOL    HW2 1507  13.250  11.231   6.721
33204SOL     OW 1508  12.646   4.138  11.795
33204SOL    HW1 1509  12.640   4.083  11.716
33204SOL    HW2 1510  12.561   4.181  11.800
33205SOL     OW 1511   2.811   3.951  14.682
33205SOL    HW1 1512   2.860   4.019  14.637
33205SOL    HW2 1513   2.721   3.983  14.684
33206SOL     OW 1514  10.229  11.164  10.759
33206SOL    HW1 1515  10.300  11.113  10.799
33206SOL    HW2 1516  10.162  11.100  10.738
33207SOL     OW 1517   4.291   1.384   6.590
33207SOL    HW1 1518   4.211   1.364   6.640
33207SOL    HW2 1519   4.272   1.354   6.501
33208SOL     OW 1520   5.756   4.282  12.582
33208SOL    HW1 1521   5.791   4.231  12.655
33208SOL    HW2 1522   5.828   4.342  12.558
33209SOL     OW 1523  10.949  12.088   1.557
33209SOL    HW1 1524  10.978  12.152   1.622
33209SOL    HW2 1525  10.879  12.132   1.509
33210SOL     OW 1526   5.821   4.020   9.279
33210SOL    HW1 1527   5.843   3.948   9.339
33210SOL    HW2 1528   5.807   3.976   9.194
33211SOL     OW 1529   3.544   7.091   1.084
33211SOL    HW1 1530   3.531   6.996   1.082
33211SOL    HW2 1531   3.461   7.127   1.052
33212SOL     OW 1532  14.346   7.642  12.383
33212SOL    HW1 1533  14.365   7.646  12.289
33212SOL    HW2 1534  14.258   7.606  12.388
33213SOL     OW 1535   0.639   3.430   8.619
33213SOL    HW1 1536   0.612   3.518   8.591
33213SOL    HW2 1537   0.714   3.409   8.564
33214SOL     OW 1538  14.853  13.794   5.818
33214SOL    HW1 1539  14.811  13.741   5.885
33214SOL    HW2 1540   0.040  13.855   5.867
33215SOL     OW 1541   1.862   2.694   0.247
33215SOL    HW1 1542   1.813   2.718   0.169
33215SOL    HW2 1543   1.952   2.719   0.227
33216SOL     OW 1544   4.765   6.876  10.051
33216SOL    HW1 1545   4.683   6.903  10.093
33216SOL    HW2 1546   4.829   6.940  10.082
33217SOL     OW 1547  13.468  11.034   5.959
33217SOL    HW1 1548  13.389  11.053   5.908
33217SOL    HW2 1549  13.489  10.943   5.938
33218SOL     OW 1550  11.700  11.014   2.336
33218SOL    HW1 1551  11.732  10.934   2.295
33218SOL    HW2 1552  11.777  11.070   2.346
33219SOL     OW 1553   2.852  10.822  10.302
33219SOL    HW1 1554   2.861  10.893  10.365
33219SOL    HW2 1555   2.938  10.816  10.260
33220SOL     OW 1556   2.129   8.959   7.486
33220SOL    HW1 1557   2.204   8.923   7.532
33220SOL    HW2 1558   2.079   8.883   7.457
33221SOL     OW 1559   3.674   9.427  12.143
33221SOL    HW1 1560   3.718   9.511  12.157
33221SOL    HW2 1561   3.667   9.420  12.047
33222SOL     OW 1562  12.196   5.710   3.234
33222SOL    HW1 1563  12.196   5.794   3.281
33222SOL    HW2 1564  12.271   5.717   3.175
33223SOL     OW 1565  11.765   9.583   4.140
33223SOL    HW1 1566  11.803   9.666   4.168
33223SOL    HW2 1567  11.684   9.576   4.190
33224SOL     OW 1568   8.632   5.434   2.538
33224SOL    HW1 1569   8.676   5.486   2.605
33224SOL    HW2 1570   8.633   5.344   2.571
33225SOL     OW 1571  12.647  12.121   7.770
33225SOL    HW1 1572  12.556  12.134   7.797
33225SOL    HW2 1573  12.656  12.175   7.691
33226SOL     OW 1574   3.034   0.510   6.188
33226SOL    HW1 1575   3.124   0.540   6.181
33226SOL    HW2 1576   3.039   0.432   6.244
33227SOL     OW 1577   6.211  10.075   7.309
33227SOL    HW1 1578   6.177  10.004   7.364
33227SOL    HW2 1579   6.277  10.033   7.254
33228SOL     OW 1580  11.251   3.482   4.833
33228SOL    HW1 1581  11.284   3.496   4.744
33228SOL    HW2 1582  11.231   3.389   4.837
33229SOL     OW 1583  11.660   3.922  13.524
33229SOL    HW1 1584  11.713   3.885  13.453
33229SOL    HW2 1585  11.717   3.987  13.565
33230SOL     OW 1586  10.119   9.440   3.179
33230SOL    HW1 1587  10.160   9.517   3.217
33230SOL    HW2 1588  10.129   9.371   3.245
33231SOL     OW 1589  14.358   0.098  10.480
33231SOL    HW1 1590  14.419   0.123  10.411
33231SOL    HW2 1591  14.311   0.179  10.501
33232SOL     OW 1592   4.613  14.140   9.650
33232SOL    HW1 1593   4.682  14.195   9.689
33232SOL    HW2 1594   4.659  14.088   9.584
33233SOL     OW 1595  10.354  11.099   8.461
33233SOL    HW1 1596  10.304  11.173   8.426
33233SOL    HW2 1597  10.306  11.022   8.431
33234SOL     OW 1598   9.695   3.085   1.918
33234SOL    HW1 1599   9.612   3.038   1.907
33234SOL    HW2 1600   9.702   3.099   2.012
33235SOL     OW 1601  10.567   3.896  13.901
33235SOL    HW1 1602  10.569   3.803  13.927
33235SOL    HW2 1603  10.582   3.944  13.982
33236SOL     OW 1604  14.259   3.646  13.178
33236SOL    HW1 1605  14.246   3.680  13.266
33236SOL    HW2 1606  14.340   3.687  13.148
33237SOL     OW 1607  13.031   8.506   9.027
33237SOL    HW1 1608  13.023   8.418   8.990
33237SOL    HW2 1609  13.023   8.564   8.952
33238SOL     OW 1610   0.068   5.745   8.229
33238SOL    HW1 1611   0.113   5.726   8.146
33238SOL    HW2 1612   0.037   5.659   8.259
33239SOL     OW 1613  10.342   0.955  10.569
33239SOL    HW1 1614  10.253   0.973  10.600
33239SOL    HW2 1615  10.398   0.981  10.642
33240SOL     OW 1616   0.326   0.666  10.705
33240SOL    HW1 1617   0.389   0.735  10.725
33240SOL    HW2 1618   0.343   0.645  10.613
33241SOL     OW 1619  12.365   5.837  12.785
33241SOL    HW1 1620  12.394   5.866  12.871
33241SOL    HW2 1621  12.309   5.761  12.802
33242SOL     OW 1622  10.440   3.454  10.532
33242SOL    HW1 1623  10.380   3.522  10.564
33242SOL    HW2 1624  10.464   3.404  10.611
33243SOL     OW 1625   3.644   3.564   8.918
33243SOL    HW1 1626   3.663   3.632   8.983
33243SOL    HW2 1627   3.581   3.507   8.962
33244SOL     OW 1628   9.684   0.097  12.531
33244SOL    HW1 1629   9.737   0.112  12.453
33244SOL    HW2 1630   9.630   0.021  12.510
33245SOL     OW 1631   7.005   8.322  12.123
33245SOL    HW1 1632   6.987   8.397  12.178
33245SOL    HW2 1633   6.936   8.259  12.145
33246SOL     OW 1634   9.875  14.079  12.603
33246SOL    HW1 1635   9.855  14.052  12.514
33246SOL    HW2 1636   9.862  14.174  12.602
33247SOL     OW 1637   8.420   2.376  10.001
33247SOL    HW1 1638   8.356   2.421  10.057
33247SOL    HW2 1639   8.393   2.399   9.912
33248SOL     OW 1640   8.657   1.701   2.762
33248SOL    HW1 1641   8.674   1.654   2.844
33248SOL    HW2 1642   8.712   1.780   2.769
33249SOL     OW 1643   8.798   3.116   0.180
33249SOL    HW1 1644   8.799   3.212   0.187
33249SOL    HW2 1645   8.805   3.099   0.086
33250SOL     OW 1646  10.558  14.071  11.912
33250SOL    HW1 1647  10.529  13.980  11.924
33250SOL    HW2 1648  10.550  14.086  11.818
33251SOL     OW 1649  14.823  13.358   9.601
33251SOL    HW1 1650  14.737  13.395   9.583
33251SOL    HW2 1651  14.811  13.263   9.597
33252SOL     OW 1652   2.496   4.114  10.836
33252SOL    HW1 1653   2.446   4.159  10.768
33252SOL    HW2 1654   2.568   4.173  10.856
33253SOL     OW 1655  12.335   0.725   1.748
33253SOL    HW1 1656  12.378   0.744   1.665
33253SOL    HW2 1657  12.392   0.660   1.790
33254SOL     OW 1658  10.493   8.941   3.073
33254SOL    HW1 1659  10.469   8.866   3.128
33254SOL    HW2 1660  10.414   8.960   3.023
33255SOL     OW 1661  11.447   0.573   2.236
33255SOL    HW1 1662  11.515   0.511   2.263
33255SOL    HW2 1663  11.420   0.615   2.318
33256SOL     OW 1664   6.862  14.205  14.753
33256SOL    HW1 1665   6.937  14.244  14.708
33256SOL    HW2 1666   6.877  14.111  14.748
33257SOL     OW 1667   6.641   3.562   4.999
33257SOL    HW1 1668   6.622   3.471   4.976
33257SOL    HW2 1669   6.600   3.573   5.085
33258SOL     OW 1670   0.124   4.051   9.830
33258SOL    HW1 1671   0.033   4.030   9.811
33258SOL    HW2 1672   0.160   4.080   9.747
33259SOL     OW 1673  10.680   9.494   3.081
33259SOL    HW1 1674  10.601   9.546   3.095
33259SOL    HW2 1675  10.717   9.482   3.168
33260SOL     OW 1676   9.969   5.858   8.111
33260SOL    HW1 1677   9.998   5.891   8.196
33260SOL    HW2 1678  10.045   5.814   8.074
33261SOL     OW 1679  10.294   5.549   7.840
33261SOL    HW1 1680  10.316   5.554   7.933
33261SOL    HW2 1681  10.329   5.464   7.811
33262SOL     OW 1682   8.590  13.021   0.683
33262SOL    HW1 1683   8.639  13.043   0.762
33262SOL    HW2 1684   8.653  13.030   0.612
33263SOL     OW 1685  11.647   5.193  11.620
33263SOL    HW1 1686  11.568   5.181  11.672
33263SOL    HW2 1687  11.695   5.110  11.629
33264SOL     OW 1688  14.786  14.311   9.324
33264SOL    HW1 1689  14.860  14.325   9.264
33264SOL    HW2 1690  14.739  14.236   9.287
33265SOL     OW 1691   5.301  13.160   8.817
33265SOL    HW1 1692   5.347  13.228   8.866
33265SOL    HW2 1693   5.229  13.134   8.874
33266SOL     OW 1694   0.097   8.508   2.889
33266SOL    HW1 1695   0.052   8.590   2.910
33266SOL    HW2 1696   0.105   8.463   2.973
33267SOL     OW 1697   8.318  14.803   4.354
33267SOL    HW1 1698   8.359   0.018   4.372
33267SOL    HW2 1699   8.230  14.826   4.324
33268SOL     OW 1700  10.050   8.263   6.662
33268SOL    HW1 1701  10.144   8.248   6.676
33268SOL    HW2 1702  10.016   8.178   6.635
33269SOL     OW 1703  12.347   8.913  11.500
33269SOL    HW1 1704  12.314   8.982  11.441
33269SOL    HW2 1705  12.276   8.899  11.562
33270SOL     OW 1706   9.799   4.219   3.903
33270SOL    HW1 1707   9.867   4.278   3.937
33270SOL    HW2 1708   9.716   4.264   3.923
33271SOL     OW 1709   2.263  11.722   6.124
33271SOL    HW1 1710   2.186  11.779   6.127
33271SOL    HW2 1711   2.299  11.735   6.037
33272SOL     OW 1712   5.048   8.287  11.980
33272SOL    HW1 1713   4.976   8.293  11.917
33272SOL    HW2 1714   5.090   8.373  11.977
33273SOL     OW 1715   8.186  11.099   9.906
33273SOL    HW1 1716   8.136  11.180   9.897
33273SOL    HW2 1717   8.126  11.038   9.949
33274SOL     OW 1718  14.681   9.765   9.326
33274SOL    HW1 1719  14.737   9.841   9.339
33274SOL    HW2 1720  14.690   9.744   9.233
33275SOL     OW 1721   0.519   8.185  14.278
33275SOL    HW1 1722   0.432   8.160  14.309
33275SOL    HW2 1723   0.524   8.280  14.293
33276SOL     OW 1724  13.397   3.066  10.498
33276SOL    HW1 1725  13.332   3.110  10.442
33276SOL    HW2 1726  13.346   3.034  10.573
33277SOL     OW 1727   6.336   3.482   5.370
33277SOL    HW1 1728   6.347   3.389   5.355
33277SOL    HW2 1729   6.241   3.496   5.365
33278SOL     OW 1730  12.219   4.397   6.244
33278SOL    HW1 1731  12.200   4.485   6.211
33278SOL    HW2 1732  12.298   4.370   6.198
33279SOL     OW 1733   6.668   8.404  14.262
33279SOL    HW1 1734   6.617   8.466  14.314
33279SOL    HW2 1735   6.664   8.439  14.173
33280SOL     OW 1736  13.790   9.826   1.185
33280SOL    HW1 1737  13.756   9.855   1.100
33280SOL    HW2 1738  13.797   9.907   1.236
33281SOL     OW 1739   3.139   6.467   3.233
33281SOL    HW1 1740   3.129   6.503   3.146
33281SOL    HW2 1741   3.130   6.372   3.222
33282SOL     OW 1742   0.014  13.517  14.164
33282SOL    HW1 1743   0.003  13.436  14.113
33282SOL    HW2 1744   0.037  13.487  14.252
33283SOL     OW 1745   9.224   0.299  11.062
33283SOL    HW1 1746   9.297   0.311  11.123
33283SOL    HW2 1747   9.172   0.229  11.102
33284SOL     OW 1748   9.657  10.176   4.696
33284SOL    HW1 1749   9.651  10.186   4.791
33284SOL    HW2 1750   9.750  10.157   4.680
33285SOL     OW 1751  14.671  14.386   1.558
33285SOL    HW1 1752  14.747  14.407   1.612
33285SOL    HW2 1753  14.600  14.439   1.595
33286SOL     OW 1754   4.155   7.129   0.932
33286SOL    HW1 1755   4.162   7.040   0.966
33286SOL    HW2 1756   4.224   7.136   0.866
33287SOL     OW 1757  11.543  10.208   1.369
33287SOL    HW1 1758  11.485  10.245   1.436
33287SOL    HW2 1759  11.527  10.261   1.291
33288SOL     OW 1760   1.152   5.009   2.881
33288SOL    HW1 1761   1.100   5.086   2.855
33288SOL    HW2 1762   1.237   5.045   2.907
33289SOL     OW 1763   4.264   3.897   4.233
33289SOL    HW1 1764   4.288   3.812   4.269
33289SOL    HW2 1765   4.347   3.943   4.224
33290SOL     OW 1766  14.518   6.877  13.246
33290SOL    HW1 1767  14.466   6.830  13.180
33290SOL    HW2 1768  14.500   6.831  13.328
33291SOL     OW 1769   8.086   7.483  10.858
33291SOL    HW1 1770   8.091   7.575  10.833
33291SOL    HW2 1771   8.068   7.485  10.952
33292SOL     OW 1772   2.153   1.568   9.916
33292SOL    HW1 1773   2.227   1.507   9.927
33292SOL    HW2 1774   2.079   1.521   9.955
33293SOL     OW 1775  11.063   5.916   1.497
33293SOL    HW1 1776  10.996   5.848   1.493
33293SOL    HW2 1777  11.019   5.989   1.541
33294SOL     OW 1778   2.955   4.454   3.608
33294SOL    HW1 1779   2.878   4.498   3.574
33294SOL    HW2 1780   3.021   4.523   3.618
33295SOL     OW 1781  12.244   6.816   4.948
33295SOL    HW1 1782  12.272   6.773   4.868
33295SOL    HW2 1783  12.304   6.785   5.015
33296SOL     OW 1784   1.218  11.671   9.027
33296SOL    HW1 1785   1.256  11.624   8.953
33296SOL    HW2 1786   1.128  11.689   9.000
33297SOL     OW 1787   5.063   3.093  14.300
33297SOL    HW1 1788   5.015   3.033  14.244
33297SOL    HW2 1789   5.009   3.101  14.379
33298SOL     OW 1790   2.798  11.529  13.277
33298SOL    HW1 1791   2.835  11.544  13.190
33298SOL    HW2 1792   2.722  11.473  13.261
33299SOL     OW 1793  14.827   5.152   4.007
33299SOL    HW1 1794  14.786   5.105   4.079
33299SOL    HW2 1795   0.030   5.199   4.047
33300SOL     OW 1796   2.186   8.517   9.502
33300SOL    HW1 1797   2.117   8.464   9.461
33300SOL    HW2 1798   2.252   8.526   9.434
33301SOL     OW 1799   7.120   3.605   5.901
33301SOL    HW1 1800   7.170   3.670   5.951
33301SOL    HW2 1801   7.028   3.629   5.915
33302SOL     OW 1802  11.268   9.947   1.535
33302SOL    HW1 1803  11.176   9.973   1.536
33302SOL    HW2 1804  11.300   9.976   1.450
33303SOL     OW 1805   1.542  12.635   9.187
33303SOL    HW1 1806   1.509  12.668   9.270
33303SOL    HW2 1807   1.547  12.540   9.200
33304SOL     OW 1808   1.169   8.771  10.420
33304SOL    HW1 1809   1.139   8.852  10.379
33304SOL    HW2 1810   1.264   8.774  10.412
33305SOL     OW 1811   1.184   4.275  10.090
33305SOL    HW1 1812   1.213   4.213  10.157
33305SOL    HW2 1813   1.229   4.356  10.112
33306SOL     OW 1814   7.748  11.858   4.635
33306SOL    HW1 1815   7.771  11.937   4.683
33306SOL    HW2 1816   7.793  11.866   4.552
33307SOL     OW 1817  11.778  13.289   4.440
33307SOL    HW1 1818  11.711  13.220   4.438
33307SOL    HW2 1819  11.792  13.305   4.533
33308SOL     OW 1820   4.879  13.642  13.887
33308SOL    HW1 1821   4.914  13.590  13.959
33308SOL    HW2 1822   4.918  13.604  13.808
33309SOL     OW 1823   8.601   8.741  13.754
33309SOL    HW1 1824   8.647   8.660  13.731
33309SOL    HW2 1825   8.578   8.779  13.669
33310SOL     OW 1826   3.676   1.687   3.043
33310SOL    HW1 1827   3.690   1.615   3.105
33310SOL    HW2 1828   3.715   1.763   3.085
33311SOL     OW 1829   0.604  11.679   4.032
33311SOL    HW1 1830   0.582  11.716   4.117
33311SOL    HW2 1831   0.644  11.595   4.051
33312SOL     OW 1832  13.350   9.219   7.519
33312SOL    HW1 1833  13.376   9.257   7.435
33312SOL    HW2 1834  13.380   9.128   7.514
33313SOL     OW 1835  10.459   4.736   0.729
33313SOL    HW1 1836  10.418   4.668   0.783
33313SOL    HW2 1837  10.408   4.736   0.648
33314SOL     OW 1838  10.114   4.562   5.896
33314SOL    HW1 1839  10.037   4.592   5.848
33314SOL    HW2 1840  10.185   4.568   5.833
33315SOL     OW 1841   5.499   7.878   9.891
33315SOL    HW1 1842   5.492   7.934   9.968
33315SOL    HW2 1843   5.479   7.790   9.923
33316SOL     OW 1844   5.438   9.579   4.175
33316SOL    HW1 1845   5.398   9.607   4.257
33316SOL    HW2 1846   5.476   9.659   4.138
33317SOL     OW 1847  12.053   3.831   0.673
33317SOL    HW1 1848  12.108   3.899   0.635
33317SOL    HW2 1849  11.967   3.845   0.633
33318SOL     OW 1850   5.678   1.198  13.870
33318SOL    HW1 1851   5.731   1.238  13.801
33318SOL    HW2 1852   5.596   1.247  13.869
33319SOL     OW 1853  13.493  11.964   8.093
33319SOL    HW1 1854  13.430  11.990   8.026
33319SOL    HW2 1855  13.501  12.040   8.150
33320SOL     OW 1856   2.029   9.384   4.891
33320SOL    HW1 1857   2.053   9.477   4.894
33320SOL    HW2 1858   2.088   9.343   4.954
33321SOL     OW 1859   3.976  14.776   1.314
33321SOL    HW1 1860   3.989  14.743   1.402
33321SOL    HW2 1861   4.030  14.719   1.259
33322SOL     OW 1862   4.044   7.290   4.983
33322SOL    HW1 1863   4.049   7.198   4.959
33322SOL    HW2 1864   4.078   7.294   5.072
33323SOL     OW 1865   9.797  11.300   6.254
33323SOL    HW1 1866   9.733  11.311   6.183
33323SOL    HW2 1867   9.796  11.383   6.301
33324SOL     OW 1868   3.503   4.681  11.769
33324SOL    HW1 1869   3.540   4.768  11.785
33324SOL    HW2 1870   3.421   4.681  11.817
33325SOL     OW 1871   8.331   3.744  11.943
33325SOL    HW1 1872   8.357   3.831  11.912
33325SOL    HW2 1873   8.270   3.761  12.015
33326SOL     OW 1874   4.194   8.505   4.123
33326SOL    HW1 1875   4.271   8.499   4.068
33326SOL    HW2 1876   4.177   8.599   4.129
33327SOL     OW 1877   9.684  13.491  13.848
33327SOL    HW1 1878   9.666  13.450  13.763
33327SOL    HW2 1879   9.675  13.421  13.912
33328SOL     OW 1880   8.942  14.623   8.516
33328SOL    HW1 1881   8.928  14.541   8.469
33328SOL    HW2 1882   8.895  14.611   8.599
33329SOL     OW 1883  10.222   7.806   0.284
33329SOL    HW1 1884  10.191   7.768   0.202
33329SOL    HW2 1885  10.167   7.767   0.352
33330SOL     OW 1886   5.706   7.937   4.705
33330SOL    HW1 1887   5.675   7.855   4.745
33330SOL    HW2 1888   5.784   7.912   4.656
33331SOL     OW 1889  13.162  10.865   1.102
33331SOL    HW1 1890  13.183  10.935   1.039
33331SOL    HW2 1891  13.191  10.785   1.060
33332SOL     OW 1892   7.428   7.923   5.382
33332SOL    HW1 1893   7.445   7.899   5.291
33332SOL    HW2 1894   7.343   7.883   5.401
33333SOL     OW 1895   1.153   0.950  11.970
33333SOL    HW1 1896   1.072   0.992  11.942
33333SOL    HW2 1897   1.222   1.009  11.940
33334SOL     OW 1898  12.958   8.692   4.699
33334SOL    HW1 1899  13.039   8.722   4.740
33334SOL    HW2 1900  12.945   8.753   4.625
33335SOL     OW 1901   9.636   9.331  13.477
33335SOL    HW1 1902   9.677   9.297  13.556
33335SOL    HW2 1903   9.709   9.359  13.422
33336SOL     OW 1904   4.712   1.121   9.660
33336SOL    HW1 1905   4.641   1.115   9.723
33336SOL    HW2 1906   4.700   1.046   9.602
33337SOL     OW 1907   7.162   4.801   3.777
33337SOL    HW1 1908   7.228   4.797   3.708
33337SOL    HW2 1909   7.116   4.718   3.771
33338SOL     OW 1910   4.540   1.616   4.100
33338SOL    HW1 1911   4.552   1.682   4.168
33338SOL    HW2 1912   4.617   1.560   4.107
33339SOL     OW 1913   9.577  10.891   1.124
33339SOL    HW1 1914   9.601  10.932   1.041
33339SOL    HW2 1915   9.534  10.810   1.099
33340SOL     OW 1916   6.335  10.704   3.819
33340SOL    HW1 1917   6.262  10.644   3.832
33340SOL    HW2 1918   6.393  10.687   3.893
33341SOL     OW 1919  13.539  10.335  14.028
33341SOL    HW1 1920  13.555  10.328  14.122
33341SOL    HW2 1921  13.624  10.315  13.988
33342SOL     OW 1922   6.705   2.437   7.142
33342SOL    HW1 1923   6.636   2.501   7.126
33342SOL    HW2 1924   6.704   2.424   7.237
33343SOL     OW 1925   8.038   3.686   2.587
33343SOL    HW1 1926   8.026   3.756   2.524
33343SOL    HW2 1927   7.988   3.714   2.664
33344SOL     OW 1928   1.457   7.757   4.100
33344SOL    HW1 1929   1.364   7.738   4.105
33344SOL    HW2 1930   1.466   7.845   4.136
33345SOL     OW 1931   0.311  13.633   3.925
33345SOL    HW1 1932   0.266  13.550   3.946
33345SOL    HW2 1933   0.378  13.609   3.862
33346SOL     OW 1934  10.419   7.781   6.106
33346SOL    HW1 1935  10.378   7.805   6.188
33346SOL    HW2 1936  10.383   7.842   6.042
33347SOL     OW 1937   1.153   1.716   4.307
33347SOL    HW1 1938   1.212   1.774   4.355
33347SOL    HW2 1939   1.065   1.744   4.334
33348SOL     OW 1940   9.233  10.776   7.324
33348SOL    HW1 1941   9.139  10.790   7.332
33348SOL    HW2 1942   9.244  10.681   7.329
33349SOL     OW 1943   0.627   7.610   8.898
33349SOL    HW1 1944   0.543   7.580   8.931
33349SOL    HW2 1945   0.648   7.687   8.951
33350SOL     OW 1946   8.161   7.457   9.057
33350SOL    HW1 1947   8.114   7.516   9.117
33350SOL    HW2 1948   8.253   7.481   9.067
33351SOL     OW 1949  12.483  13.988   1.288
33351SOL    HW1 1950  12.450  14.056   1.229
33351SOL    HW2 1951  12.540  13.935   1.233
33352SOL     OW 1952   5.273   6.684  10.669
33352SOL    HW1 1953   5.231   6.626  10.604
33352SOL    HW2 1954   5.343   6.728  10.620
33353SOL     OW 1955  10.833   4.616  13.629
33353SOL    HW1 1956  10.810   4.605  13.721
33353SOL    HW2 1957  10.782   4.549  13.583
33354SOL     OW 1958   1.286   0.478   4.404
33354SOL    HW1 1959   1.316   0.517   4.322
33354SOL    HW2 1960   1.356   0.419   4.430
33355SOL     OW 1961   2.853   0.102   4.159
33355SOL    HW1 1962   2.873   0.038   4.227
33355SOL    HW2 1963   2.931   0.157   4.152
33356SOL     OW 1964  12.112   9.024   0.640
33356SOL    HW1 1965  12.188   8.977   0.674
33356SOL    HW2 1966  12.066   8.959   0.586
33357SOL     OW 1967   7.305   1.685   5.926
33357SOL    HW1 1968   7.309   1.777   5.901
33357SOL    HW2 1969   7.391   1.667   5.965
33358SOL     OW 1970   3.373   1.237  12.363
33358SOL    HW1 1971   3.378   1.215  12.456
33358SOL    HW2 1972   3.287   1.277  12.352
33359SOL     OW 1973   3.931  13.445   5.441
33359SOL    HW1 1974   3.927  13.349   5.450
33359SOL    HW2 1975   3.851  13.476   5.483
33360SOL     OW 1976   2.666  11.330   7.533
33360SOL    HW1 1977   2.742  11.274   7.516
33360SOL    HW2 1978   2.702  11.416   7.553
33361SOL     OW 1979   4.093   9.572  11.812
33361SOL    HW1 1980   4.165   9.606  11.757
33361SOL    HW2 1981   4.113   9.603  11.900
33362SOL     OW 1982   5.862  14.093   1.282
33362SOL    HW1 1983   5.940  14.126   1.326
33362SOL    HW2 1984   5.804  14.065   1.353
33363SOL     OW 1985   2.932   9.558  11.615
33363SOL    HW1 1986   3.022   9.557  11.648
33363SOL    HW2 1987   2.917   9.648  11.588
33364SOL     OW 1988  13.618   4.511   1.383
33364SOL    HW1 1989  13.683   4.537   1.449
33364SOL    HW2 1990  13.574   4.435   1.421
33365SOL     OW 1991  13.332   3.655  10.960
33365SOL    HW1 1992  13.278   3.627  11.034
33365SOL    HW2 1993  13.416   3.610  10.973
33366SOL     OW 1994  14.374   3.152   5.029
33366SOL    HW1 1995  14.371   3.247   5.018
33366SOL    HW2 1996  14.293   3.130   5.074
33367SOL     OW 1997  14.404   3.910   1.668
33367SOL    HW1 1998  14.492   3.945   1.652
33367SOL    HW2 1999  14.415   3.848   1.740
33368SOL     OW 2000   6.994   0.781   7.251
33368SOL    HW1 2001   6.976   0.789   7.345
33368SOL    HW2 2002   7.006   0.871   7.221
33369SOL     OW 2003   1.648   7.119   3.571
33369SOL    HW1 2004   1.662   7.054   3.640
33369SOL    HW2 2005   1.626   7.200   3.618
33370SOL     OW 2006  13.801   1.691   2.847
33370SOL    HW1 2007  13.710   1.704   2.822
33370SOL    HW2 2008  13.825   1.607   2.807
33371SOL     OW 2009  11.694   2.716   7.049
33371SOL    HW1 2010  11.722   2.754   6.966
33371SOL    HW2 2011  11.743   2.634   7.056
33372SOL     OW 2012   6.283   2.219   8.305
33372SOL    HW1 2013   6.285   2.176   8.391
33372SOL    HW2 2014   6.292   2.147   8.242
33373SOL     OW 2015  13.945   1.738   4.873
33373SOL    HW1 2016  13.885   1.803   4.835
33373SOL    HW2 2017  13.944   1.757   4.966
33374SOL     OW 2018  14.090   9.592   8.359
33374SOL    HW1 2019  14.105   9.531   8.286
33374SOL    HW2 2020  13.997   9.615   8.351
33375SOL     OW 2021   8.527   3.934   6.724
33375SOL    HW1 2022   8.547   4.003   6.788
33375SOL    HW2 2023   8.439   3.903   6.749
33376SOL     OW 2024  14.810   9.298   5.258
33376SOL    HW1 2025  14.731   9.312   5.310
33376SOL    HW2 2026  14.817   9.203   5.250
33377SOL     OW 2027   7.634  11.660   9.110
33377SOL    HW1 2028   7.669  11.746   9.129
33377SOL    HW2 2029   7.690  11.599   9.159
33378SOL     OW 2030  12.217   4.132   5.857
33378SOL    HW1 2031  12.299   4.180   5.858
33378SOL    HW2 2032  12.205   4.103   5.947
33379SOL     OW 2033  11.038   1.399   8.625
33379SOL    HW1 2034  11.095   1.350   8.567
33379SOL    HW2 2035  11.089   1.409   8.706
33380SOL     OW 2036  13.023   3.915   3.133
33380SOL    HW1 2037  12.977   3.998   3.129
33380SOL    HW2 2038  13.010   3.883   3.223
33381SOL     OW 2039   1.844   5.341   9.745
33381SOL    HW1 2040   1.786   5.339   9.821
33381SOL    HW2 2041   1.789   5.312   9.672
33382SOL     OW 2042  14.076   5.092   9.672
33382SOL    HW1 2043  14.008   5.033   9.640
33382SOL    HW2 2044  14.108   5.136   9.593
33383SOL     OW 2045  13.993   5.944   2.010
33383SOL    HW1 2046  13.936   6.020   2.009
33383SOL    HW2 2047  14.014   5.930   2.102
33384SOL     OW 2048   5.871   5.967   3.543
33384SOL    HW1 2049   5.856   6.010   3.627
33384SOL    HW2 2050   5.875   6.039   3.479
33385SOL     OW 2051   2.814   3.726   5.028
33385SOL    HW1 2052   2.864   3.807   5.026
33385SOL    HW2 2053   2.824   3.690   4.940
33386SOL     OW 2054   0.566   6.409  10.948
33386SOL    HW1 2055   0.498   6.376  10.889
33386SOL    HW2 2056   0.648   6.387  10.906
33387SOL     OW 2057   4.707   3.502  13.726
33387SOL    HW1 2058   4.690   3.565  13.796
33387SOL    HW2 2059   4.696   3.553  13.645
33388SOL     OW 2060   5.848   6.805   5.682
33388SOL    HW1 2061   5.841   6.709   5.675
33388SOL    HW2 2062   5.757   6.833   5.697
33389SOL     OW 2063   8.606   0.619   4.072
33389SOL    HW1 2064   8.518   0.658   4.076
33389SOL    HW2 2065   8.657   0.668   4.136
33390SOL     OW 2066  11.327   9.757  12.362
33390SOL    HW1 2067  11.251   9.699  12.354
33390SOL    HW2 2068  11.375   9.745  12.281
33391SOL     OW 2069  10.480  13.062   1.694
33391SOL    HW1 2070  10.471  12.982   1.642
33391SOL    HW2 2071  10.454  13.132   1.634
33392SOL     OW 2072  13.432   1.862   4.684
33392SOL    HW1 2073  13.485   1.894   4.611
33392SOL    HW2 2074  13.426   1.937   4.744
33393SOL     OW 2075   7.598   0.612   6.155
33393SOL    HW1 2076   7.644   0.696   6.148
33393SOL    HW2 2077   7.505   0.636   6.155
33394SOL     OW 2078   3.410   8.930   2.930
33394SOL    HW1 2079   3.420   8.977   2.848
33394SOL    HW2 2080   3.468   8.976   2.991
33395SOL     OW 2081   7.145   9.507   1.209
33395SOL    HW1 2082   7.162   9.463   1.126
33395SOL    HW2 2083   7.094   9.444   1.260
33396SOL     OW 2084  10.622  10.829  11.603
33396SOL    HW1 2085  10.661  10.909  11.637
33396SOL    HW2 2086  10.627  10.767  11.676
33397SOL     OW 2087   9.720   7.080   0.656
33397SOL    HW1 2088   9.675   7.096   0.573
33397SOL    HW2 2089   9.668   7.128   0.721
33398SOL     OW 2090  13.087   8.953  12.463
33398SOL    HW1 2091  13.006   8.967  12.414
33398SOL    HW2 2092  13.073   8.998  12.546
33399SOL     OW 2093   4.258   2.527   8.952
33399SOL    HW1 2094   4.270   2.514   9.046
33399SOL    HW2 2095   4.334   2.485   8.912
33400SOL     OW 2096   7.455  12.236   3.455
33400SOL    HW1 2097   7.507  12.190   3.390
33400SOL    HW2 2098   7.514  12.302   3.492
33401SOL     OW 2099  10.764   0.997   5.435
33401SOL    HW1 2100  10.731   0.984   5.524
33401SOL    HW2 2101  10.687   1.027   5.386
33402SOL     OW 2102   8.921   5.295  14.754
33402SOL    HW1 2103   8.948   5.207  14.781
33402SOL    HW2 2104   8.825   5.291  14.752
33403SOL     OW 2105   8.202   2.994   5.678
33403SOL    HW1 2106   8.253   2.923   5.715
33403SOL    HW2 2107   8.254   3.073   5.696
33404SOL     OW 2108   1.099   6.669   1.768
33404SOL    HW1 2109   1.184   6.640   1.735
33404SOL    HW2 2110   1.109   6.668   1.863
33405SOL     OW 2111   9.395   3.263   6.482
33405SOL    HW1 2112   9.300   3.258   6.467
33405SOL    HW2 2113   9.432   3.277   6.395
33406SOL     OW 2114   3.390   9.461  13.252
33406SOL    HW1 2115   3.409   9.378  13.207
33406SOL    HW2 2116   3.295   9.462  13.262
33407SOL     OW 2117  10.737  12.017   9.033
33407SOL    HW1 2118  10.814  12.006   9.089
33407SOL    HW2 2119  10.698  12.100   9.061
33408SOL     OW 2120   2.553  12.128   9.010
33408SOL    HW1 2121   2.635  12.111   9.056
33408SOL    HW2 2122   2.484  12.102   9.072
33409SOL     OW 2123   6.277  11.095  11.117
33409SOL    HW1 2124   6.217  11.028  11.082
33409SOL    HW2 2125   6.270  11.167  11.055
33410SOL     OW 2126   6.805   8.430   2.393
33410SOL    HW1 2127   6.896   8.400   2.387
33410SOL    HW2 2128   6.756   8.351   2.417
33411SOL     OW 2129   8.629   2.316   1.117
33411SOL    HW1 2130   8.701   2.378   1.129
33411SOL    HW2 2131   8.565   2.364   1.064
33412SOL     OW 2132   6.868   6.419   4.691
33412SOL    HW1 2133   6.951   6.468   4.698
33412SOL    HW2 2134   6.823   6.438   4.774
33413SOL     OW 2135  14.673   8.782   1.938
33413SOL    HW1 2136  14.699   8.787   1.846
33413SOL    HW2 2137  14.747   8.740   1.982
33414SOL     OW 2138   7.545  10.857  12.729
33414SOL    HW1 2139   7.578  10.928  12.784
33414SOL    HW2 2140   7.476  10.897  12.676
33415SOL     OW 2141   4.248  10.942   2.204
33415SOL    HW1 2142   4.158  10.971   2.216
33415SOL    HW2 2143   4.262  10.947   2.109
33416SOL     OW 2144  12.002   7.476  12.965
33416SOL    HW1 2145  11.991   7.456  12.872
33416SOL    HW2 2146  11.921   7.521  12.990
33417SOL     OW 2147   5.805   0.181  13.333
33417SOL    HW1 2148   5.816   0.261  13.384
33417SOL    HW2 2149   5.894   0.160  13.303
33418SOL     OW 2150   4.961  13.718   3.411
33418SOL    HW1 2151   4.906  13.643   3.430
33418SOL    HW2 2152   5.007  13.736   3.493
33419SOL     OW 2153   7.714   4.342   4.376
33419SOL    HW1 2154   7.619   4.346   4.361
33419SOL    HW2 2155   7.731   4.417   4.434
33420SOL     OW 2156  12.243  13.260   0.515
33420SOL    HW1 2157  12.203  13.285   0.432
33420SOL    HW2 2158  12.170  13.249   0.575
33421SOL     OW 2159  10.567  11.073  13.003
33421SOL    HW1 2160  10.563  11.150  13.059
33421SOL    HW2 2161  10.489  11.078  12.948
33422SOL     OW 2162   6.774   5.571   4.274
33422SOL    HW1 2163   6.695   5.594   4.324
33422SOL    HW2 2164   6.760   5.612   4.188
33423SOL     OW 2165   6.661   8.436   1.012
33423SOL    HW1 2166   6.638   8.514   0.961
33423SOL    HW2 2167   6.715   8.384   0.952
33424SOL     OW 2168  10.283   8.131   8.350
33424SOL    HW1 2169  10.275   8.038   8.328
33424SOL    HW2 2170  10.378   8.148   8.346
33425SOL     OW 2171   7.581   0.246   4.047
33425SOL    HW1 2172   7.669   0.276   4.022
33425SOL    HW2 2173   7.593   0.155   4.071
33426SOL     OW 2174  10.269   8.554   1.190
33426SOL    HW1 2175  10.259   8.473   1.140
33426SOL    HW2 2176  10.290   8.525   1.279
33427SOL     OW 2177   6.180  13.965   1.980
33427SOL    HW1 2178   6.231  14.011   1.914
33427SOL    HW2 2179   6.096  14.010   1.981
33428SOL     OW 2180   7.297   6.481   6.761
33428SOL    HW1 2181   7.215   6.447   6.798
33428SOL    HW2 2182   7.270   6.530   6.683
33429SOL     OW 2183   6.166  11.186   2.693
33429SOL    HW1 2184   6.195  11.158   2.606
33429SOL    HW2 2185   6.222  11.260   2.715
33430SOL     OW 2186   8.161  13.766   7.812
33430SOL    HW1 2187   8.162  13.676   7.780
33430SOL    HW2 2188   8.071  13.779   7.844
33431SOL     OW 2189   0.580  13.108   4.727
33431SOL    HW1 2190   0.568  13.196   4.764
33431SOL    HW2 2191   0.670  13.108   4.694
33432SOL     OW 2192   0.435   7.878   8.833
33432SOL    HW1 2193   0.346   7.848   8.817
33432SOL    HW2 2194   0.434   7.906   8.925
33433SOL     OW 2195   9.191  12.992  13.559
33433SOL    HW1 2196   9.284  12.973  13.576
33433SOL    HW2 2197   9.145  12.953  13.633
33434SOL     OW 2198  12.873  10.109   3.187
33434SOL    HW1 2199  12.960  10.141   3.212
33434SOL    HW2 2200  12.877  10.015   3.203
33435SOL     OW 2201   5.820  13.383  13.508
33435SOL    HW1 2202   5.905  13.424  13.526
33435SOL    HW2 2203   5.807  13.323  13.582
33436SOL     OW 2204  10.975   9.014  11.152
33436SOL    HW1 2205  11.020   8.994  11.234
33436SOL    HW2 2206  11.044   9.048  11.094
33437SOL     OW 2207   3.504   4.895   7.894
33437SOL    HW1 2208   3.503   4.940   7.979
33437SOL    HW2 2209   3.466   4.809   7.912
33438SOL     OW 2210   6.639  12.040  12.263
33438SOL    HW1 2211   6.658  11.969  12.202
33438SOL    HW2 2212   6.569  12.005  12.318
33439SOL     OW 2213   8.298   0.883   2.827
33439SOL    HW1 2214   8.392   0.900   2.828
33439SOL    HW2 2215   8.264   0.938   2.898
33440SOL     OW 2216  12.900   6.275  11.388
33440SOL    HW1 2217  12.879   6.247  11.477
33440SOL    HW2 2218  12.909   6.370  11.395
33441SOL     OW 2219   3.375   1.384   4.901
33441SOL    HW1 2220   3.439   1.367   4.832
33441SOL    HW2 2221   3.356   1.477   4.894
33442SOL     OW 2222   6.945   7.157   8.826
33442SOL    HW1 2223   6.894   7.099   8.882
33442SOL    HW2 2224   6.882   7.190   8.762
33443SOL     OW 2225   2.006   8.132   6.203
33443SOL    HW1 2226   2.074   8.195   6.225
33443SOL    HW2 2227   2.052   8.048   6.194
33444SOL     OW 2228   6.301   9.588   8.226
33444SOL    HW1 2229   6.273   9.663   8.280
33444SOL    HW2 2230   6.238   9.586   8.155
33445SOL     OW 2231   4.089  12.622   3.456
33445SOL    HW1 2232   4.158  12.557   3.437
33445SOL    HW2 2233   4.017  12.570   3.492
33446SOL     OW 2234   9.660  10.881  14.763
33446SOL    HW1 2235   9.750  10.851  14.773
33446SOL    HW2 2236   9.607  10.814  14.807
33447SOL     OW 2237   4.405   9.198  11.369
33447SOL    HW1 2238   4.356   9.162  11.295
33447SOL    HW2 2239   4.464   9.127  11.395
33448SOL     OW 2240  13.291  13.466  14.729
33448SOL    HW1 2241  13.315  13.388  14.779
33448SOL    HW2 2242  13.217  13.438  14.675
33449SOL     OW 2243   7.642   7.172   3.174
33449SOL    HW1 2244   7.566   7.196   3.227
33449SOL    HW2 2245   7.643   7.077   3.176
33450SOL     OW 2246   1.440  12.814  14.644
33450SOL    HW1 2247   1.448  12.770  14.729
33450SOL    HW2 2248   1.390  12.752  14.591
33451SOL     OW 2249   3.249  12.187   8.225
33451SOL    HW1 2250   3.233  12.195   8.131
33451SOL    HW2 2251   3.273  12.095   8.238
33452SOL     OW 2252   5.351   9.885  14.503
33452SOL    HW1 2253   5.339   9.971  14.543
33452SOL    HW2 2254   5.295   9.886  14.426
33453SOL     OW 2255   8.286  11.460   7.310
33453SOL    HW1 2256   8.256  11.535   7.361
33453SOL    HW2 2257   8.216  11.446   7.246
33454SOL     OW 2258  11.079   4.935   8.230
33454SOL    HW1 2259  11.003   4.912   8.177
33454SOL    HW2 2260  11.153   4.924   8.171
33455SOL     OW 2261   6.893  11.355   0.228
33455SOL    HW1 2262   6.897  11.278   0.172
33455SOL    HW2 2263   6.822  11.408   0.191
33456SOL     OW 2264   3.074  13.551  10.405
33456SOL    HW1 2265   3.074  13.469  10.355
33456SOL    HW2 2266   3.023  13.612  10.352
33457SOL     OW 2267   9.037  11.364  10.641
33457SOL    HW1 2268   8.966  11.374  10.704
33457SOL    HW2 2269   9.106  11.320  10.689
33458SOL     OW 2270  12.821   9.815  10.065
33458SOL    HW1 2271  12.839   9.773   9.981
33458SOL    HW2 2272  12.783   9.745  10.118
33459SOL     OW 2273  13.911   2.594   0.759
33459SOL    HW1 2274  13.891   2.652   0.832
33459SOL    HW2 2275  13.982   2.539   0.791
33460SOL     OW 2276   9.788   6.972   1.373
33460SOL    HW1 2277   9.731   7.049   1.370
33460SOL    HW2 2278   9.871   7.002   1.338
33461SOL     OW 2279   9.651   3.922   6.316
33461SOL    HW1 2280   9.617   3.986   6.254
33461SOL    HW2 2281   9.649   3.966   6.401
33462SOL     OW 2282   0.395  12.558   5.980
33462SOL    HW1 2283   0.394  12.483   6.039
33462SOL    HW2 2284   0.447  12.529   5.905
33463SOL     OW 2285  11.803   0.393   6.841
33463SOL    HW1 2286  11.884   0.443   6.831
33463SOL    HW2 2287  11.787   0.357   6.754
33464SOL     OW 2288  11.303  13.741   7.023
33464SOL    HW1 2289  11.258  13.719   7.104
33464SOL    HW2 2290  11.392  13.764   7.051
33465SOL     OW 2291   8.229   2.257   0.424
33465SOL    HW1 2292   8.170   2.277   0.497
33465SOL    HW2 2293   8.179   2.282   0.346
33466SOL     OW 2294  14.468   4.331   9.504
33466SOL    HW1 2295  14.448   4.262   9.440
33466SOL    HW2 2296  14.404   4.399   9.486
33467SOL     OW 2297   2.218   5.675  10.894
33467SOL    HW1 2298   2.241   5.584  10.876
33467SOL    HW2 2299   2.125   5.674  10.914
33468SOL     OW 2300   5.184   8.259  14.693
33468SOL    HW1 2301   5.255   8.321  14.679
33468SOL    HW2 2302   5.226   8.180  14.725
33469SOL     OW 2303   8.367   3.866   8.249
33469SOL    HW1 2304   8.423   3.845   8.174
33469SOL    HW2 2305   8.395   3.953   8.277
33470SOL     OW 2306  11.886  12.713   0.916
33470SOL    HW1 2307  11.944  12.666   0.976
33470SOL    HW2 2308  11.798  12.679   0.936
33471SOL     OW 2309  14.052  13.949   1.023
33471SOL    HW1 2310  13.978  13.909   1.069
33471SOL    HW2 2311  14.015  13.980   0.940
33472SOL     OW 2312   3.020   7.358   1.327
33472SOL    HW1 2313   2.957   7.313   1.384
33472SOL    HW2 2314   2.979   7.443   1.309
33473SOL     OW 2315   3.698  14.374  11.726
33473SOL    HW1 2316   3.763  14.374  11.656
33473SOL    HW2 2317   3.724  14.301  11.782
33474SOL     OW 2318   2.653  13.871   0.318
33474SOL    HW1 2319   2.737  13.825   0.320
33474SOL    HW2 2320   2.598  13.822   0.379
33475SOL     OW 2321   5.629   8.791  11.076
33475SOL    HW1 2322   5.675   8.708  11.065
33475SOL    HW2 2323   5.698   8.857  11.066
33476SOL     OW 2324  12.806   8.996   6.609
33476SOL    HW1 2325  12.747   8.922   6.598
33476SOL    HW2 2326  12.890   8.957   6.632
33477SOL     OW 2327  11.034   5.095   8.757
33477SOL    HW1 2328  11.054   5.023   8.817
33477SOL    HW2 2329  11.042   5.056   8.670
33478SOL     OW 2330   6.343   8.114  10.804
33478SOL    HW1 2331   6.302   8.034  10.772
33478SOL    HW2 2332   6.280   8.183  10.783
33479SOL     OW 2333   3.611   1.708   4.520
33479SOL    HW1 2334   3.598   1.795   4.481
33479SOL    HW2 2335   3.593   1.647   4.448
33480SOL     OW 2336   2.453   8.228  11.481
33480SOL    HW1 2337   2.411   8.149  11.516
33480SOL    HW2 2338   2.546   8.216  11.499
33481SOL     OW 2339   5.676   1.590   7.856
33481SOL    HW1 2340   5.654   1.655   7.789
33481SOL    HW2 2341   5.769   1.572   7.842
33482SOL     OW 2342   4.684   0.413  11.664
33482SOL    HW1 2343   4.704   0.327  11.702
33482SOL    HW2 2344   4.593   0.406  11.637
33483SOL     OW 2345   2.833  12.053  10.269
33483SOL    HW1 2346   2.816  12.030  10.360
33483SOL    HW2 2347   2.928  12.044  10.259
33484SOL     OW 2348   6.306   3.134   5.449
33484SOL    HW1 2349   6.267   3.051   5.423
33484SOL    HW2 2350   6.321   3.125   5.544
33485SOL     OW 2351   2.326   7.305  14.303
33485SOL    HW1 2352   2.363   7.388  14.274
33485SOL    HW2 2353   2.290   7.265  14.223
33486SOL     OW 2354   7.473  14.238  14.680
33486SOL    HW1 2355   7.568  14.242  14.670
33486SOL    HW2 2356   7.460  14.215  14.772
33487SOL     OW 2357   4.898   1.606  13.694
33487SOL    HW1 2358   4.952   1.591  13.772
33487SOL    HW2 2359   4.945   1.673  13.645
33488SOL     OW 2360   1.909   9.188   7.923
33488SOL    HW1 2361   1.933   9.159   7.835
33488SOL    HW2 2362   1.927   9.282   7.922
33489SOL     OW 2363   1.290  12.690   7.954
33489SOL    HW1 2364   1.212  12.648   7.991
33489SOL    HW2 2365   1.256  12.763   7.902
33490SOL     OW 2366   5.469   3.862  11.369
33490SOL    HW1 2367   5.448   3.905  11.286
33490SOL    HW2 2368   5.384   3.841  11.408
33491SOL     OW 2369  13.554   5.351  14.167
33491SOL    HW1 2370  13.607   5.318  14.095
33491SOL    HW2 2371  13.612   5.349  14.243
33492SOL     OW 2372   6.948   5.873   3.844
33492SOL    HW1 2373   6.920   5.797   3.895
33492SOL    HW2 2374   6.940   5.947   3.905
33493SOL     OW 2375   5.937  12.256   1.437
33493SOL    HW1 2376   5.993  12.196   1.387
33493SOL    HW2 2377   5.854  12.208   1.447
33494SOL     OW 2378   8.784   5.745  13.521
33494SOL    HW1 2379   8.768   5.803  13.596
33494SOL    HW2 2380   8.876   5.721  13.528
33495SOL     OW 2381  14.446   0.948  10.762
33495SOL    HW1 2382  14.452   1.022  10.823
33495SOL    HW2 2383  14.535   0.937  10.730
33496SOL     OW 2384   3.600   8.637   9.814
33496SOL    HW1 2385   3.566   8.666   9.898
33496SOL    HW2 2386   3.617   8.718   9.766
33497SOL     OW 2387   5.294   0.716  12.668
33497SOL    HW1 2388   5.302   0.737  12.761
33497SOL    HW2 2389   5.247   0.632  12.666
33498SOL     OW 2390  10.895   3.942   3.259
33498SOL    HW1 2391  10.879   3.879   3.189
33498SOL    HW2 2392  10.902   4.027   3.214
33499SOL     OW 2393   2.879   3.176   5.417
33499SOL    HW1 2394   2.945   3.186   5.486
33499SOL    HW2 2395   2.853   3.266   5.397
33500SOL     OW 2396   0.752   4.646  12.418
33500SOL    HW1 2397   0.844   4.653  12.395
33500SOL    HW2 2398   0.745   4.563  12.465
33501SOL     OW 2399   6.670   5.248   4.787
33501SOL    HW1 2400   6.687   5.272   4.696
33501SOL    HW2 2401   6.585   5.286   4.806
33502SOL     OW 2402   0.040   4.175   8.734
33502SOL    HW1 2403   0.106   4.214   8.676
33502SOL    HW2 2404  14.855   4.122   8.677
33503SOL     OW 2405   0.727   4.706   3.569
33503SOL    HW1 2406   0.670   4.632   3.549
33503SOL    HW2 2407   0.709   4.726   3.661
33504SOL     OW 2408   2.193  11.425   9.415
33504SOL    HW1 2409   2.148  11.478   9.350
33504SOL    HW2 2410   2.137  11.348   9.427
33505SOL     OW 2411   9.540   0.142  12.760
33505SOL    HW1 2412   9.464   0.182  12.716
33505SOL    HW2 2413   9.604   0.129  12.690
33506SOL     OW 2414   0.600   6.675  14.019
33506SOL    HW1 2415   0.680   6.724  14.000
33506SOL    HW2 2416   0.602   6.662  14.113
33507SOL     OW 2417  10.189  14.861  14.137
33507SOL    HW1 2418  10.225   0.004  14.049
33507SOL    HW2 2419  10.258  14.816  14.185
33508SOL     OW 2420  14.549   0.941   7.471
33508SOL    HW1 2421  14.522   0.849   7.474
33508SOL    HW2 2422  14.476   0.988   7.511
33509SOL     OW 2423   0.060   0.843   7.259
33509SOL    HW1 2424  14.867   0.772   7.268
33509SOL    HW2 2425   0.009   0.923   7.270
33510SOL     OW 2426   7.961  13.799   6.251
33510SOL    HW1 2427   7.986  13.885   6.286
33510SOL    HW2 2428   7.880  13.815   6.202
33511SOL     OW 2429   8.795   0.793   1.827
33511SOL    HW1 2430   8.813   0.757   1.914
33511SOL    HW2 2431   8.743   0.871   1.844
33512SOL     OW 2432  14.273   8.957  14.168
33512SOL    HW1 2433  14.244   9.026  14.228
33512SOL    HW2 2434  14.297   9.004  14.088
33513SOL     OW 2435  10.097  12.224   6.836
33513SOL    HW1 2436  10.030  12.189   6.893
33513SOL    HW2 2437  10.169  12.162   6.841
33514SOL     OW 2438   2.085  11.104  11.795
33514SOL    HW1 2439   2.005  11.135  11.753
33514SOL    HW2 2440   2.067  11.113  11.889
33515SOL     OW 2441   8.569  14.387   6.903
33515SOL    HW1 2442   8.592  14.389   6.810
33515SOL    HW2 2443   8.645  14.347   6.945
33516SOL     OW 2444  10.686   0.728   1.439
33516SOL    HW1 2445  10.780   0.727   1.455
33516SOL    HW2 2446  10.673   0.800   1.377
33517SOL     OW 2447  10.059   9.386  11.246
33517SOL    HW1 2448  10.056   9.466  11.193
33517SOL    HW2 2449  10.151   9.362  11.248
33518SOL     OW 2450   8.280  10.352   1.672
33518SOL    HW1 2451   8.317  10.417   1.732
33518SOL    HW2 2452   8.338  10.276   1.680
33519SOL     OW 2453  11.404  10.504   3.097
33519SOL    HW1 2454  11.330  10.451   3.067
33519SOL    HW2 2455  11.481  10.455   3.067
33520SOL     OW 2456   2.232   9.102   7.824
33520SOL    HW1 2457   2.152   9.123   7.775
33520SOL    HW2 2458   2.286   9.054   7.761
33521SOL     OW 2459   4.846   9.236   5.805
33521SOL    HW1 2460   4.894   9.219   5.724
33521SOL    HW2 2461   4.889   9.311   5.844
33522SOL     OW 2462  13.919   4.738   6.021
33522SOL    HW1 2463  13.868   4.805   6.066
33522SOL    HW2 2464  13.935   4.671   6.088
33523SOL     OW 2465   9.202   2.358   7.803
33523SOL    HW1 2466   9.269   2.425   7.785
33523SOL    HW2 2467   9.241   2.276   7.774
33524SOL     OW 2468   2.850   9.181   0.049
33524SOL    HW1 2469   2.762   9.173   0.086
33524SOL    HW2 2470   2.846   9.134  14.836
33525SOL     OW 2471   0.573  12.705   2.435
33525SOL    HW1 2472   0.621  12.691   2.516
33525SOL    HW2 2473   0.505  12.768   2.458
33526SOL     OW 2474  11.383   1.184  11.557
33526SOL    HW1 2475  11.456   1.183  11.496
33526SOL    HW2 2476  11.367   1.092  11.577
33527SOL     OW 2477  12.062  10.471  13.163
33527SOL    HW1 2478  11.994  10.404  13.166
33527SOL    HW2 2479  12.144  10.422  13.157
33528SOL     OW 2480   7.942   8.891   9.664
33528SOL    HW1 2481   7.940   8.971   9.716
33528SOL    HW2 2482   7.850   8.872   9.647
33529SOL     OW 2483  14.005   7.727  12.190
33529SOL    HW1 2484  13.912   7.716  12.171
33529SOL    HW2 2485  14.030   7.647  12.236
33530SOL     OW 2486  13.021   5.573   6.326
33530SOL    HW1 2487  13.032   5.629   6.249
33530SOL    HW2 2488  13.111   5.547   6.349
33531SOL     OW 2489  11.555   5.945   9.956
33531SOL    HW1 2490  11.599   5.887   9.895
33531SOL    HW2 2491  11.611   6.022   9.961
33532SOL     OW 2492   0.648   8.472   7.495
33532SOL    HW1 2493   0.556   8.479   7.520
33532SOL    HW2 2494   0.665   8.551   7.444
33533SOL     OW 2495   7.327   7.512   4.038
33533SOL    HW1 2496   7.277   7.478   4.112
33533SOL    HW2 2497   7.342   7.604   4.058
33534SOL     OW 2498   4.231   8.955   3.012
33534SOL    HW1 2499   4.326   8.942   3.009
33534SOL    HW2 2500   4.203   8.946   2.921
33535SOL     OW 2501  11.776   9.013   6.882
33535SOL    HW1 2502  11.771   9.094   6.933
33535SOL    HW2 2503  11.692   8.969   6.897
33536SOL     OW 2504   3.452   3.368   1.638
33536SOL    HW1 2505   3.423   3.459   1.641
33536SOL    HW2 2506   3.506   3.362   1.559
33537SOL     OW 2507   0.386  10.864   9.179
33537SOL    HW1 2508   0.395  10.769   9.172
33537SOL    HW2 2509   0.428  10.898   9.100
33538SOL     OW 2510   6.281   8.797   7.921
33538SOL    HW1 2511   6.316   8.851   7.991
33538SOL    HW2 2512   6.240   8.859   7.861
33539SOL     OW 2513   0.079  10.141   0.623
33539SOL    HW1 2514   0.114  10.179   0.543
33539SOL    HW2 2515   0.156  10.110   0.671
33540SOL     OW 2516  12.104  12.530   9.777
33540SOL    HW1 2517  12.174  12.504   9.717
33540SOL    HW2 2518  12.104  12.462   9.845
33541SOL     OW 2519   8.708   5.252   4.576
33541SOL    HW1 2520   8.669   5.216   4.656
33541SOL    HW2 2521   8.799   5.269   4.600
33542SOL     OW 2522  13.567  11.681   9.785
33542SOL    HW1 2523  13.597  11.676   9.876
33542SOL    HW2 2524  13.483  11.634   9.785
33543SOL     OW 2525  10.522   1.659   5.710
33543SOL    HW1 2526  10.543   1.622   5.624
33543SOL    HW2 2527  10.528   1.753   5.698
33544SOL     OW 2528  10.741   0.623   8.047
33544SOL    HW1 2529  10.696   0.683   8.105
33544SOL    HW2 2530  10.691   0.542   8.053
33545SOL     OW 2531   9.191  10.702  10.724
33545SOL    HW1 2532   9.122  10.635  10.726
33545SOL    HW2 2533   9.152  10.774  10.674
33546SOL     OW 2534  12.602   8.260   0.209
33546SOL    HW1 2535  12.691   8.283   0.237
33546SOL    HW2 2536  12.567   8.340   0.170
33547SOL     OW 2537   1.726   5.231   6.267
33547SOL    HW1 2538   1.665   5.233   6.193
33547SOL    HW2 2539   1.671   5.251   6.344
33548SOL     OW 2540   9.072  10.462  10.400
33548SOL    HW1 2541   9.156  10.506  10.383
33548SOL    HW2 2542   9.066  10.460  10.496
33549SOL     OW 2543   6.919   3.475  11.405
33549SOL    HW1 2544   6.965   3.481  11.322
33549SOL    HW2 2545   6.940   3.557  11.450
33550SOL     OW 2546   8.497  11.242  10.814
33550SOL    HW1 2547   8.503  11.189  10.734
33550SOL    HW2 2548   8.403  11.250  10.829
33551SOL     OW 2549  14.868   2.955   7.657
33551SOL    HW1 2550  14.824   3.029   7.617
33551SOL    HW2 2551   0.077   2.941   7.603
33552SOL     OW 2552   1.226   3.229  13.194
33552SOL    HW1 2553   1.271   3.161  13.144
33552SOL    HW2 2554   1.288   3.302  13.196
33553SOL     OW 2555   5.202   6.730   1.307
33553SOL    HW1 2556   5.113   6.698   1.326
33553SOL    HW2 2557   5.224   6.784   1.382
33554SOL     OW 2558   8.246  10.053   8.402
33554SOL    HW1 2559   8.284   9.976   8.358
33554SOL    HW2 2560   8.319  10.089   8.453
33555SOL     OW 2561  12.051  12.557   2.981
33555SOL    HW1 2562  12.010  12.548   3.067
33555SOL    HW2 2563  12.145  12.556   2.999
33556SOL     OW 2564  14.745   4.832  13.350
33556SOL    HW1 2565  14.678   4.828  13.418
33556SOL    HW2 2566  14.756   4.741  13.321
33557SOL     OW 2567   4.195   4.750   7.755
33557SOL    HW1 2568   4.177   4.818   7.820
33557SOL    HW2 2569   4.186   4.794   7.670
33558SOL     OW 2570  10.539   1.049  12.378
33558SOL    HW1 2571  10.531   0.954  12.390
33558SOL    HW2 2572  10.466   1.085  12.428
33559SOL     OW 2573   4.313   9.861  10.198
33559SOL    HW1 2574   4.342   9.951  10.208
33559SOL    HW2 2575   4.250   9.848  10.269
33560SOL     OW 2576   9.133   9.562   1.265
33560SOL    HW1 2577   9.227   9.545   1.268
33560SOL    HW2 2578   9.126   9.652   1.234
33561SOL     OW 2579   9.647   7.413   9.787
33561SOL    HW1 2580   9.658   7.468   9.710
33561SOL    HW2 2581   9.585   7.345   9.760
33562SOL     OW 2582   7.757   7.534   4.294
33562SOL    HW1 2583   7.834   7.545   4.349
33562SOL    HW2 2584   7.684   7.566   4.347
33563SOL     OW 2585   5.865   9.006  11.164
33563SOL    HW1 2586   5.818   9.085  11.190
33563SOL    HW2 2587   5.901   9.026  11.078
33564SOL     OW 2588  14.812   6.730   6.837
33564SOL    HW1 2589  14.799   6.767   6.924
33564SOL    HW2 2590  14.736   6.759   6.787
33565SOL     OW 2591   0.016   1.183  10.066
33565SOL    HW1 2592  14.853   1.108  10.016
33565SOL    HW2 2593  14.829   1.186  10.144
33566SOL     OW 2594   0.943   5.026  11.969
33566SOL    HW1 2595   0.897   5.085  12.028
33566SOL    HW2 2596   0.912   5.049  11.882
33567SOL     OW 2597   8.400   5.395  13.097
33567SOL    HW1 2598   8.468   5.462  13.102
33567SOL    HW2 2599   8.448   5.312  13.100
33568SOL     OW 2600  12.224   0.324   5.266
33568SOL    HW1 2601  12.260   0.364   5.345
33568SOL    HW2 2602  12.133   0.302   5.289
33569SOL     OW 2603   3.020  13.375   2.471
33569SOL    HW1 2604   3.075  13.431   2.525
33569SOL    HW2 2605   2.964  13.329   2.534
33570SOL     OW 2606  14.631  14.575   4.741
33570SOL    HW1 2607  14.639  14.503   4.803
33570SOL    HW2 2608  14.699  14.557   4.675
33571SOL     OW 2609   0.488   1.415   0.147
33571SOL    HW1 2610   0.480   1.370   0.063
33571SOL    HW2 2611   0.403   1.458   0.159
33572SOL     OW 2612   0.409   4.147   9.443
33572SOL    HW1 2613   0.320   4.169   9.469
33572SOL    HW2 2614   0.399   4.072   9.384
33573SOL     OW 2615   8.097   6.831  11.175
33573SOL    HW1 2616   8.064   6.746  11.146
33573SOL    HW2 2617   8.035   6.860  11.242
33574SOL     OW 2618   9.477   4.884   4.574
33574SOL    HW1 2619   9.474   4.790   4.589
33574SOL    HW2 2620   9.416   4.920   4.639
33575SOL     OW 2621   6.886   6.160  12.839
33575SOL    HW1 2622   6.962   6.210  12.808
33575SOL    HW2 2623   6.876   6.186  12.930
33576SOL     OW 2624   5.997   9.772   5.991
33576SOL    HW1 2625   6.020   9.768   5.898
33576SOL    HW2 2626   5.935   9.700   6.003
33577SOL     OW 2627  10.694  14.689  14.518
33577SOL    HW1 2628  10.740  14.639  14.586
33577SOL    HW2 2629  10.671  14.624  14.452
33578SOL     OW 2630   0.208  10.763   3.725
33578SOL    HW1 2631   0.194  10.773   3.631
33578SOL    HW2 2632   0.232  10.671   3.737
33579SOL     OW 2633  13.772  11.633   9.630
33579SOL    HW1 2634  13.698  11.647   9.688
33579SOL    HW2 2635  13.830  11.575   9.679
33580SOL     OW 2636   2.833   4.699   0.249
33580SOL    HW1 2637   2.904   4.654   0.294
33580SOL    HW2 2638   2.761   4.698   0.312
33581SOL     OW 2639  14.551   9.636  13.317
33581SOL    HW1 2640  14.513   9.661  13.401
33581SOL    HW2 2641  14.644   9.621  13.336
33582SOL     OW 2642   8.641   2.128   2.234
33582SOL    HW1 2643   8.626   2.097   2.144
33582SOL    HW2 2644   8.616   2.220   2.232
33583SOL     OW 2645   2.924   7.883   1.139
33583SOL    HW1 2646   2.876   7.844   1.066
33583SOL    HW2 2647   2.857   7.929   1.190
33584SOL     OW 2648   6.039   0.864   1.004
33584SOL    HW1 2649   6.092   0.796   0.963
33584SOL    HW2 2650   6.099   0.908   1.064
33585SOL     OW 2651   4.616   0.150  14.335
33585SOL    HW1 2652   4.554   0.166  14.264
33585SOL    HW2 2653   4.592   0.214  14.402
33586SOL     OW 2654  11.806   4.202  12.290
33586SOL    HW1 2655  11.891   4.158  12.286
33586SOL    HW2 2656  11.791   4.214  12.384
33587SOL     OW 2657   6.489   0.286   4.919
33587SOL    HW1 2658   6.568   0.297   4.866
33587SOL    HW2 2659   6.461   0.196   4.901
33588SOL     OW 2660   6.426  11.970  12.009
33588SOL    HW1 2661   6.443  11.920  11.929
33588SOL    HW2 2662   6.401  11.904  12.074
33589SOL     OW 2663   3.359   3.448   7.649
33589SOL    HW1 2664   3.348   3.405   7.565
33589SOL    HW2 2665   3.341   3.540   7.632
33590SOL     OW 2666   7.833   6.159   8.608
33590SOL    HW1 2667   7.816   6.183   8.517
33590SOL    HW2 2668   7.896   6.225   8.639
33591SOL     OW 2669  12.459   2.032   1.461
33591SOL    HW1 2670  12.545   2.030   1.419
33591SOL    HW2 2671  12.445   2.123   1.484
33592SOL     OW 2672  14.584  12.439   8.420
33592SOL    HW1 2673  14.575  12.407   8.330
33592SOL    HW2 2674  14.590  12.361   8.474
33593SOL     OW 2675   7.369   9.426  12.462
33593SOL    HW1 2676   7.301   9.444  12.397
33593SOL    HW2 2677   7.328   9.366  12.524
33594SOL     OW 2678   9.391   8.373   1.159
33594SOL    HW1 2679   9.357   8.285   1.143
33594SOL    HW2 2680   9.415   8.405   1.073
33595SOL     OW 2681   1.058   3.778  10.996
33595SOL    HW1 2682   1.143   3.821  11.004
33595SOL    HW2 2683   1.005   3.818  11.065
33596SOL     OW 2684  12.047   8.878  10.371
33596SOL    HW1 2685  12.073   8.788  10.353
33596SOL    HW2 2686  12.130   8.925  10.382
33597SOL     OW 2687  14.505   0.174   9.045
33597SOL    HW1 2688  14.421   0.191   9.087
33597SOL    HW2 2689  14.518   0.249   8.986
33598SOL     OW 2690  12.226  11.044   8.065
33598SOL    HW1 2691  12.185  10.985   8.128
33598SOL    HW2 2692  12.312  11.005   8.048
33599SOL     OW 2693   2.062   5.151   9.810
33599SOL    HW1 2694   2.062   5.160   9.905
33599SOL    HW2 2695   1.987   5.202   9.781
33600SOL     OW 2696  11.271   1.779   3.688
33600SOL    HW1 2697  11.344   1.765   3.748
33600SOL    HW2 2698  11.294   1.730   3.609
33601SOL     OW 2699  14.450   0.352  14.061
33601SOL    HW1 2700  14.499   0.434  14.060
33601SOL    HW2 2701  14.361   0.378  14.083
33602SOL     OW 2702  10.625   8.286  12.468
33602SOL    HW1 2703  10.591   8.346  12.534
33602SOL    HW2 2704  10.720   8.297  12.472
33603SOL     OW 2705  10.591   0.275   8.891
33603SOL    HW1 2706  10.672   0.325   8.883
33603SOL    HW2 2707  10.528   0.323   8.837
33604SOL     OW 2708   6.540   0.573   8.931
33604SOL    HW1 2709   6.633   0.597   8.920
33604SOL    HW2 2710   6.535   0.538   9.020
33605SOL     OW 2711   1.942   5.716  12.267
33605SOL    HW1 2712   2.027   5.732  12.227
33605SOL    HW2 2713   1.890   5.675  12.197
33606SOL     OW 2714   3.390   0.201   6.381
33606SOL    HW1 2715   3.417   0.119   6.424
33606SOL    HW2 2716   3.398   0.182   6.288
33607SOL     OW 2717  14.295   5.447   5.883
33607SOL    HW1 2718  14.213   5.494   5.901
33607SOL    HW2 2719  14.357   5.515   5.858
33608SOL     OW 2720  13.224  12.816   7.500
33608SOL    HW1 2721  13.218  12.770   7.584
33608SOL    HW2 2722  13.295  12.771   7.453
33609SOL     OW 2723   9.373   3.298   4.697
33609SOL    HW1 2724   9.312   3.228   4.672
33609SOL    HW2 2725   9.377   3.294   4.792
33610SOL     OW 2726  10.453   1.981  13.317
33610SOL    HW1 2727  10.404   2.022  13.388
33610SOL    HW2 2728  10.393   1.981  13.243
33611SOL     OW 2729   6.408  11.593  13.478
33611SOL    HW1 2730   6.370  11.597  13.390
33611SOL    HW2 2731   6.347  11.538  13.528
33612SOL     OW 2732  11.950  14.716  11.010
33612SOL    HW1 2733  11.911  14.778  11.071
33612SOL    HW2 2734  12.014  14.668  11.063
33613SOL     OW 2735   2.691   7.961   8.643
33613SOL    HW1 2736   2.637   8.040   8.641
33613SOL    HW2 2737   2.657   7.908   8.571
33614SOL     OW 2738  11.070  11.254  13.487
33614SOL    HW1 2739  11.148  11.208  13.456
33614SOL    HW2 2740  11.050  11.215  13.572
33615SOL     OW 2741   1.059   7.300   3.404
33615SOL    HW1 2742   1.057   7.333   3.314
33615SOL    HW2 2743   1.059   7.379   3.458
33616SOL     OW 2744   6.826   0.362  11.090
33616SOL    HW1 2745   6.792   0.447  11.119
33616SOL    HW2 2746   6.849   0.376  10.998
33617SOL     OW 2747  10.245  12.262   4.334
33617SOL    HW1 2748  10.161  12.265   4.289
33617SOL    HW2 2749  10.223  12.255   4.427
33618SOL     OW 2750   5.727   7.232  10.718
33618SOL    HW1 2751   5.664   7.215  10.788
33618SOL    HW2 2752   5.755   7.323  10.731
33619SOL     OW 2753   0.645   3.117   3.225
33619SOL    HW1 2754   0.717   3.064   3.194
33619SOL    HW2 2755   0.631   3.182   3.156
33620SOL     OW 2756  12.703  14.079   6.914
33620SOL    HW1 2757  12.635  14.030   6.869
33620SOL    HW2 2758  12.658  14.123   6.986
33621SOL     OW 2759   7.443  13.186  13.195
33621SOL    HW1 2760   7.434  13.277  13.165
33621SOL    HW2 2761   7.538  13.172  13.200
33622SOL     OW 2762   2.285   3.442   7.094
33622SOL    HW1 2763   2.372   3.405   7.110
33622SOL    HW2 2764   2.225   3.382   7.138
33623SOL     OW 2765   4.888   3.315   7.985
33623SOL    HW1 2766   4.850   3.402   7.997
33623SOL    HW2 2767   4.813   3.259   7.962
33624SOL     OW 2768   2.661   3.593   5.927
33624SOL    HW1 2769   2.618   3.677   5.909
33624SOL    HW2 2770   2.732   3.615   5.987
33625SOL     OW 2771  12.656   9.190   9.317
33625SOL    HW1 2772  12.708   9.124   9.273
33625SOL    HW2 2773  12.592   9.140   9.368
33626SOL     OW 2774  14.209   4.332  14.073
33626SOL    HW1 2775  14.267   4.372  14.137
33626SOL    HW2 2776  14.255   4.254  14.043
33627SOL     OW 2777  10.726   6.421  14.613
33627SOL    HW1 2778  10.773   6.396  14.693
33627SOL    HW2 2779  10.731   6.343  14.557
33628SOL     OW 2780  10.814  11.799   2.623
33628SOL    HW1 2781  10.872  11.800   2.546
33628SOL    HW2 2782  10.860  11.744   2.687
33629SOL     OW 2783   7.945   8.676  13.560
33629SOL    HW1 2784   7.943   8.593  13.608
33629SOL    HW2 2785   7.899   8.738  13.618
33630SOL     OW 2786   2.668  13.319   6.946
33630SOL    HW1 2787   2.597  13.382   6.933
33630SOL    HW2 2788   2.716  13.353   7.022
33631SOL     OW 2789  11.059  14.521   3.152
33631SOL    HW1 2790  11.153  14.538   3.156
33631SOL    HW2 2791  11.051  14.427   3.171
33632SOL     OW 2792   6.818   5.340   7.954
33632SOL    HW1 2793   6.795   5.357   8.045
33632SOL    HW2 2794   6.829   5.427   7.915
33633SOL     OW 2795  13.117   9.065   3.821
33633SOL    HW1 2796  13.108   9.137   3.883
33633SOL    HW2 2797  13.100   8.987   3.873
33634SOL     OW 2798   8.833   2.677   0.701
33634SOL    HW1 2799   8.922   2.656   0.730
33634SOL    HW2 2800   8.803   2.744   0.763
33635SOL     OW 2801   0.156   1.354  12.724
33635SOL    HW1 2802   0.113   1.372  12.807
33635SOL    HW2 2803   0.177   1.260  12.727
33636SOL     OW 2804   7.024   0.312   9.181
33636SOL    HW1 2805   7.119   0.302   9.172
33636SOL    HW2 2806   6.991   0.309   9.091
33637SOL     OW 2807   4.897  13.589   8.513
33637SOL    HW1 2808   4.804  13.568   8.506
33637SOL    HW2 2809   4.922  13.615   8.424
33638SOL     OW 2810  10.607   6.442   4.112
33638SOL    HW1 2811  10.594   6.533   4.084
33638SOL    HW2 2812  10.539   6.393   4.066
33639SOL     OW 2813  14.800   7.453  12.074
33639SOL    HW1 2814  14.728   7.506  12.040
33639SOL    HW2 2815  14.758   7.378  12.115
33640SOL     OW 2816  12.696   5.414   0.506
33640SOL    HW1 2817  12.699   5.323   0.477
33640SOL    HW2 2818  12.651   5.460   0.435
33641SOL     OW 2819   0.883  11.477   8.962
33641SOL    HW1 2820   0.955  11.417   8.985
33641SOL    HW2 2821   0.917  11.564   8.980
33642SOL     OW 2822   6.286   0.218   2.509
33642SOL    HW1 2823   6.325   0.274   2.442
33642SOL    HW2 2824   6.342   0.140   2.510
33643SOL     OW 2825  13.039   5.334   3.896
33643SOL    HW1 2826  12.986   5.255   3.903
33643SOL    HW2 2827  12.975   5.405   3.887
33644SOL     OW 2828   7.723   7.677   5.848
33644SOL    HW1 2829   7.815   7.703   5.852
33644SOL    HW2 2830   7.712   7.615   5.920
33645SOL     OW 2831   6.651   6.454  10.029
33645SOL    HW1 2832   6.639   6.367  10.068
33645SOL    HW2 2833   6.735   6.484  10.064
33646SOL     OW 2834   4.584  13.477  10.971
33646SOL    HW1 2835   4.558  13.430  10.892
33646SOL    HW2 2836   4.508  13.472  11.029
33647SOL     OW 2837   4.214   9.838   8.027
33647SOL    HW1 2838   4.167   9.831   8.110
33647SOL    HW2 2839   4.253   9.925   8.028
33648SOL     OW 2840  11.042   7.183   1.340
33648SOL    HW1 2841  11.115   7.244   1.336
33648SOL    HW2 2842  11.083   7.096   1.335
33649SOL     OW 2843   7.293  13.676   9.425
33649SOL    HW1 2844   7.319  13.746   9.484
33649SOL    HW2 2845   7.291  13.598   9.479
33650SOL     OW 2846   6.951   2.011   4.470
33650SOL    HW1 2847   6.925   1.927   4.433
33650SOL    HW2 2848   6.880   2.071   4.445
33651SOL     OW 2849   6.584  13.301  14.076
33651SOL    HW1 2850   6.510  13.256  14.035
33651SOL    HW2 2851   6.657  13.287  14.015
33652SOL     OW 2852   6.333   4.883   1.930
33652SOL    HW1 2853   6.352   4.817   1.863
33652SOL    HW2 2854   6.374   4.963   1.896
33653SOL     OW 2855   9.186   2.669  12.525
33653SOL    HW1 2856   9.165   2.730  12.454
33653SOL    HW2 2857   9.116   2.604  12.522
33654SOL     OW 2858  13.290   8.069  13.850
33654SOL    HW1 2859  13.251   8.067  13.763
33654SOL    HW2 2860  13.216   8.056  13.910
33655SOL     OW 2861  13.087   9.358   1.791
33655SOL    HW1 2862  13.116   9.268   1.802
33655SOL    HW2 2863  12.993   9.356   1.809
33656SOL     OW 2864  14.415   0.279  13.186
33656SOL    HW1 2865  14.463   0.222  13.125
33656SOL    HW2 2866  14.403   0.226  13.264
33657SOL     OW 2867   2.286   5.144  12.763
33657SOL    HW1 2868   2.327   5.137  12.677
33657SOL    HW2 2869   2.247   5.058  12.779
33658SOL     OW 2870   7.898  13.708   5.646
33658SOL    HW1 2871   7.959  13.701   5.719
33658SOL    HW2 2872   7.842  13.783   5.668
33659SOL     OW 2873  10.344   7.976   1.960
33659SOL    HW1 2874  10.325   8.055   1.911
33659SOL    HW2 2875  10.280   7.912   1.930
33660SOL     OW 2876   1.104  10.138   9.471
33660SOL    HW1 2877   1.186  10.097   9.445
33660SOL    HW2 2878   1.129  10.225   9.503
33661SOL     OW 2879   9.311  13.436   1.149
33661SOL    HW1 2880   9.364  13.490   1.208
33661SOL    HW2 2881   9.339  13.346   1.167
33662SOL     OW 2882   6.007  11.318  10.255
33662SOL    HW1 2883   5.990  11.300  10.162
33662SOL    HW2 2884   6.000  11.413  10.262
33663SOL     OW 2885   6.316   3.407   6.027
33663SOL    HW1 2886   6.399   3.455   6.019
33663SOL    HW2 2887   6.312   3.355   5.947
33664SOL     OW 2888   7.216  12.837   8.847
33664SOL    HW1 2889   7.272  12.886   8.907
33664SOL    HW2 2890   7.258  12.847   8.762
33665SOL     OW 2891   4.314  10.654  13.832
33665SOL    HW1 2892   4.366  10.602  13.892
33665SOL    HW2 2893   4.272  10.720  13.888
33666SOL     OW 2894   6.385   7.579   3.437
33666SOL    HW1 2895   6.444   7.508   3.411
33666SOL    HW2 2896   6.421   7.657   3.394
33667SOL     OW 2897  10.574  13.137  14.485
33667SOL    HW1 2898  10.558  13.079  14.411
33667SOL    HW2 2899  10.487  13.152  14.522
33668SOL     OW 2900   2.276   6.388   6.495
33668SOL    HW1 2901   2.331   6.362   6.568
33668SOL    HW2 2902   2.258   6.307   6.448
33669SOL     OW 2903  13.223   8.905   0.630
33669SOL    HW1 2904  13.256   8.901   0.540
33669SOL    HW2 2905  13.264   8.983   0.667
33670SOL     OW 2906   9.468   9.817  14.441
33670SOL    HW1 2907   9.514   9.811  14.525
33670SOL    HW2 2908   9.538   9.823  14.376
33671SOL     OW 2909  10.022   7.669  13.023
33671SOL    HW1 2910  10.065   7.709  13.099
33671SOL    HW2 2911  10.031   7.575  13.037
33672SOL     OW 2912  13.258  11.915  12.357
33672SOL    HW1 2913  13.308  11.852  12.407
33672SOL    HW2 2914  13.172  11.918  12.400
33673SOL     OW 2915   3.611   1.119   8.770
33673SOL    HW1 2916   3.565   1.097   8.690
33673SOL    HW2 2917   3.585   1.209   8.788
33674SOL     OW 2918  11.889   8.214   7.109
33674SOL    HW1 2919  11.936   8.296   7.094
33674SOL    HW2 2920  11.951   8.160   7.159
33675SOL     OW 2921   6.804   3.510   3.055
33675SOL    HW1 2922   6.810   3.570   2.981
33675SOL    HW2 2923   6.710   3.495   3.066
33676SOL     OW 2924   3.724  12.709   1.926
33676SOL    HW1 2925   3.783  12.781   1.950
33676SOL    HW2 2926   3.783  12.639   1.899
33677SOL     OW 2927   7.204   7.722   4.445
33677SOL    HW1 2928   7.252   7.775   4.509
33677SOL    HW2 2929   7.130   7.687   4.494
33678SOL     OW 2930   9.639  11.224   3.207
33678SOL    HW1 2931   9.678  11.159   3.148
33678SOL    HW2 2932   9.569  11.177   3.251
33679SOL     OW 2933   8.878   9.110   6.233
33679SOL    HW1 2934   8.906   9.182   6.176
33679SOL    HW2 2935   8.869   9.149   6.319
33680SOL     OW 2936  13.701   6.931   3.959
33680SOL    HW1 2937  13.756   6.988   3.905
33680SOL    HW2 2938  13.645   6.885   3.896
33681SOL     OW 2939   8.676  10.463   4.376
33681SOL    HW1 2940   8.738  10.410   4.327
33681SOL    HW2 2941   8.592  10.419   4.365
33682SOL     OW 2942   9.001  13.657  11.895
33682SOL    HW1 2943   9.039  13.621  11.975
33682SOL    HW2 2944   8.961  13.740  11.923
33683SOL     OW 2945  12.988   3.925  11.782
33683SOL    HW1 2946  13.083   3.933  11.787
33683SOL    HW2 2947  12.969   3.839  11.820
33684SOL     OW 2948  12.288  12.449  12.019
33684SOL    HW1 2949  12.327  12.363  12.029
33684SOL    HW2 2950  12.360  12.506  11.994
33685SOL     OW 2951   1.389   7.314   5.450
33685SOL    HW1 2952   1.343   7.397   5.437
33685SOL    HW2 2953   1.385   7.271   5.364
33686SOL     OW 2954  10.107   9.739   7.118
33686SOL    HW1 2955  10.142   9.684   7.188
33686SOL    HW2 2956  10.141   9.699   7.038
33687SOL     OW 2957   0.661   3.802   7.326
33687SOL    HW1 2958   0.645   3.795   7.420
33687SOL    HW2 2959   0.631   3.889   7.303
33688SOL     OW 2960   6.915   8.588   0.900
33688SOL    HW1 2961   6.894   8.572   0.992
33688SOL    HW2 2962   6.978   8.660   0.902
33689SOL     OW 2963   7.654  11.689   2.108
33689SOL    HW1 2964   7.599  11.616   2.078
33689SOL    HW2 2965   7.673  11.668   2.199
33690SOL     OW 2966   0.738   2.866   1.258
33690SOL    HW1 2967   0.728   2.794   1.320
33690SOL    HW2 2968   0.655   2.914   1.263
33691SOL     OW 2969   0.753  12.232  14.169
33691SOL    HW1 2970   0.733  12.258  14.259
33691SOL    HW2 2971   0.812  12.300  14.137
33692SOL     OW 2972  10.483   1.332   5.964
33692SOL    HW1 2973  10.573   1.309   5.986
33692SOL    HW2 2974  10.475   1.316   5.870
33693SOL     OW 2975  13.184   0.716   4.051
33693SOL    HW1 2976  13.097   0.705   4.089
33693SOL    HW2 2977  13.169   0.762   3.969
33694SOL     OW 2978   6.861  11.308   9.424
33694SOL    HW1 2979   6.880  11.328   9.516
33694SOL    HW2 2980   6.911  11.374   9.376
33695SOL     OW 2981  12.642   4.638  13.167
33695SOL    HW1 2982  12.571   4.656  13.228
33695SOL    HW2 2983  12.632   4.704  13.098
33696SOL     OW 2984  11.783  12.564   4.442
33696SOL    HW1 2985  11.765  12.557   4.348
33696SOL    HW2 2986  11.764  12.476   4.476
33697SOL     OW 2987  13.162  10.205   8.603
33697SOL    HW1 2988  13.240  10.149   8.596
33697SOL    HW2 2989  13.180  10.278   8.544
33698SOL     OW 2990   1.529   9.674   9.082
33698SOL    HW1 2991   1.535   9.579   9.069
33698SOL    HW2 2992   1.574   9.711   9.006
33699SOL     OW 2993   3.212  14.508  10.240
33699SOL    HW1 2994   3.181  14.439  10.182
33699SOL    HW2 2995   3.157  14.502  10.318
33700SOL     OW 2996   7.761   7.899  14.409
33700SOL    HW1 2997   7.782   7.968  14.345
33700SOL    HW2 2998   7.692   7.848  14.367
33701SOL     OW 2999   6.404   8.567   8.411
33701SOL    HW1 3000   6.423   8.629   8.341
33701SOL    HW2 3001   6.484   8.563   8.463
33702SOL     OW 3002   3.377  13.627  13.427
33702SOL    HW1 3003   3.411  13.577  13.353
33702SOL    HW2 3004   3.445  13.617  13.495
33703SOL     OW 3005   8.755  10.707   8.941
33703SOL    HW1 3006   8.719  10.622   8.915
33703SOL    HW2 3007   8.687  10.770   8.919
33704SOL     OW 3008   7.296   4.604  14.450
33704SOL    HW1 3009   7.216   4.625  14.401
33704SOL    HW2 3010   7.326   4.688  14.484
33705SOL     OW 3011   4.926   4.174   5.213
33705SOL    HW1 3012   4.994   4.158   5.148
33705SOL    HW2 3013   4.917   4.091   5.259
33706SOL     OW 3014   0.592  11.201   3.151
33706SOL    HW1 3015   0.683  11.217   3.179
33706SOL    HW2 3016   0.600  11.136   3.082
33707SOL     OW 3017  11.336  13.062   2.315
33707SOL    HW1 3018  11.267  13.109   2.269
33707SOL    HW2 3019  11.292  13.018   2.388
33708SOL     OW 3020   3.727   3.888   6.850
33708SOL    HW1 3021   3.695   3.802   6.876
33708SOL    HW2 3022   3.737   3.883   6.755
33709SOL     OW 3023   5.134   3.825  11.047
33709SOL    HW1 3024   5.222   3.861  11.042
33709SOL    HW2 3025   5.078   3.901  11.066
33710SOL     OW 3026   1.307   5.651   7.877
33710SOL    HW1 3027   1.378   5.653   7.813
33710SOL    HW2 3028   1.234   5.694   7.834
33711SOL     OW 3029   3.584  13.904   4.397
33711SOL    HW1 3030   3.501  13.922   4.441
33711SOL    HW2 3031   3.559  13.861   4.315
33712SOL     OW 3032  13.310  11.126   0.338
33712SOL    HW1 3033  13.313  11.104   0.431
33712SOL    HW2 3034  13.280  11.045   0.296
33713SOL     OW 3035   3.008   9.156   0.567
33713SOL    HW1 3036   2.989   9.097   0.494
33713SOL    HW2 3037   2.930   9.153   0.622
33714SOL     OW 3038   9.125   0.289  10.001
33714SOL    HW1 3039   9.116   0.254  10.090
33714SOL    HW2 3040   9.174   0.370  10.012
33715SOL     OW 3041   6.324   7.108   3.604
33715SOL    HW1 3042   6.404   7.158   3.623
33715SOL    HW2 3043   6.342   7.020   3.636
33716SOL     OW 3044   1.966   6.402   6.411
33716SOL    HW1 3045   1.984   6.490   6.443
33716SOL    HW2 3046   1.981   6.345   6.486
33717SOL     OW 3047  13.164  13.455  14.249
33717SOL    HW1 3048  13.115  13.405  14.183
33717SOL    HW2 3049  13.121  13.541  14.250
33718SOL     OW 3050   7.367   7.303   9.854
33718SOL    HW1 3051   7.377   7.221   9.902
33718SOL    HW2 3052   7.357   7.370   9.922
33719SOL     OW 3053   9.400   0.024   7.521
33719SOL    HW1 3054   9.409  14.798   7.533
33719SOL    HW2 3055   9.306   0.039   7.520
33720SOL     OW 3056  13.838  10.560   4.723
33720SOL    HW1 3057  13.910  10.623   4.724
33720SOL    HW2 3058  13.838  10.524   4.634
33721SOL     OW 3059  13.583   8.889  14.669
33721SOL    HW1 3060  13.674   8.864  14.689
33721SOL    HW2 3061  13.583   8.905  14.575
33722SOL     OW 3062  10.813  11.680   7.391
33722SOL    HW1 3063  10.878  11.689   7.322
33722SOL    HW2 3064  10.819  11.763   7.440
33723SOL     OW 3065   2.546   4.128  10.444
33723SOL    HW1 3066   2.586   4.214  10.428
33723SOL    HW2 3067   2.490   4.142  10.520
33724SOL     OW 3068   1.511   6.712  13.559
33724SOL    HW1 3069   1.542   6.764  13.485
33724SOL    HW2 3070   1.416   6.720  13.556
33725SOL     OW 3071  10.683   6.712  12.271
33725SOL    HW1 3072  10.698   6.677  12.358
33725SOL    HW2 3073  10.655   6.637  12.219
33726SOL     OW 3074   1.275   6.999   4.358
33726SOL    HW1 3075   1.361   6.981   4.395
33726SOL    HW2 3076   1.264   7.093   4.369
33727SOL     OW 3077   2.445   0.945   3.844
33727SOL    HW1 3078   2.450   0.994   3.926
33727SOL    HW2 3079   2.352   0.941   3.824
33728SOL     OW 3080   0.506   4.692  10.992
33728SOL    HW1 3081   0.533   4.750  10.921
33728SOL    HW2 3082   0.427   4.650  10.961
33729SOL     OW 3083   8.422  12.707   2.050
33729SOL    HW1 3084   8.473  12.720   2.130
33729SOL    HW2 3085   8.433  12.615   2.029
33730SOL     OW 3086   1.912   9.753   3.888
33730SOL    HW1 3087   1.981   9.728   3.827
33730SOL    HW2 3088   1.835   9.765   3.834
33731SOL     OW 3089  13.748   4.416  13.823
33731SOL    HW1 3090  13.840   4.439  13.832
33731SOL    HW2 3091  13.701   4.499  13.829
33732SOL     OW 3092  13.007   6.024   7.803
33732SOL    HW1 3093  13.070   5.954   7.821
33732SOL    HW2 3094  12.937   5.981   7.754
33733SOL     OW 3095   6.887   8.191   6.098
33733SOL    HW1 3096   6.853   8.259   6.156
33733SOL    HW2 3097   6.862   8.108   6.138
33734SOL     OW 3098   5.087  11.121  11.488
33734SOL    HW1 3099   5.047  11.207  11.477
33734SOL    HW2 3100   5.174  11.130  11.449
33735SOL     OW 3101   6.244   6.903   1.658
33735SOL    HW1 3102   6.247   6.889   1.753
33735SOL    HW2 3103   6.303   6.838   1.622
33736SOL     OW 3104   6.190   9.240  10.113
33736SOL    HW1 3105   6.238   9.320  10.131
33736SOL    HW2 3106   6.255   9.180  10.076
33737SOL     OW 3107  14.359   6.721   6.746
33737SOL    HW1 3108  14.288   6.728   6.810
33737SOL    HW2 3109  14.391   6.631   6.755
33738SOL     OW 3110   8.555   3.982   3.479
33738SOL    HW1 3111   8.472   4.002   3.523
33738SOL    HW2 3112   8.589   4.067   3.451
33739SOL     OW 3113  12.061   9.347   7.929
33739SOL    HW1 3114  12.040   9.436   7.899
33739SOL    HW2 3115  12.134   9.358   7.990
33740SOL     OW 3116   5.791  11.369   2.250
33740SOL    HW1 3117   5.695  11.370   2.250
33740SOL    HW2 3118   5.815  11.390   2.340
33741SOL     OW 3119   6.466   2.555   2.609
33741SOL    HW1 3120   6.501   2.643   2.620
33741SOL    HW2 3121   6.382   2.557   2.655
33742SOL     OW 3122  11.838  12.905   0.370
33742SOL    HW1 3123  11.865  12.997   0.369
33742SOL    HW2 3124  11.890  12.865   0.300
33743SOL     OW 3125   3.942   6.938  11.586
33743SOL    HW1 3126   3.930   7.032  11.601
33743SOL    HW2 3127   4.011   6.934  11.519
33744SOL     OW 3128  12.652   3.050  11.577
33744SOL    HW1 3129  12.572   3.103  11.582
33744SOL    HW2 3130  12.679   3.056  11.486
33745SOL     OW 3131  14.625  14.772  13.261
33745SOL    HW1 3132  14.660  14.687  13.233
33745SOL    HW2 3133  14.533  14.753  13.283
33746SOL     OW 3134  14.417  12.705   6.979
33746SOL    HW1 3135  14.378  12.747   7.056
33746SOL    HW2 3136  14.344  12.658   6.938
33747SOL     OW 3137   2.165   1.696   7.024
33747SOL    HW1 3138   2.180   1.604   7.047
33747SOL    HW2 3139   2.251   1.737   7.031
33748SOL     OW 3140   4.319   3.703  12.551
33748SOL    HW1 3141   4.371   3.713  12.631
33748SOL    HW2 3142   4.228   3.697  12.582
33749SOL     OW 3143   0.667  11.593   4.835
33749SOL    HW1 3144   0.643  11.657   4.768
33749SOL    HW2 3145   0.715  11.644   4.901
33750SOL     OW 3146  11.265   6.401   3.812
33750SOL    HW1 3147  11.202   6.355   3.756
33750SOL    HW2 3148  11.253   6.361   3.899
33751SOL     OW 3149   7.995  12.316   6.040
33751SOL    HW1 3150   8.088  12.299   6.027
33751SOL    HW2 3151   7.960  12.329   5.952
33752SOL     OW 3152  11.752   4.262  14.301
33752SOL    HW1 3153  11.695   4.255  14.378
33752SOL    HW2 3154  11.699   4.309  14.237
33753SOL     OW 3155   8.906   8.660  13.632
33753SOL    HW1 3156   8.913   8.730  13.566
33753SOL    HW2 3157   8.845   8.597  13.593
33754SOL     OW 3158  11.046   0.733  10.728
33754SOL    HW1 3159  11.082   0.698  10.647
33754SOL    HW2 3160  11.120   0.776  10.771
33755SOL     OW 3161   1.662   3.283   0.083
33755SOL    HW1 3162   1.717   3.350   0.124
33755SOL    HW2 3163   1.613   3.330   0.016
33756SOL     OW 3164   6.989   2.933   3.213
33756SOL    HW1 3165   6.901   2.900   3.233
33756SOL    HW2 3166   6.976   3.026   3.198
33757SOL     OW 3167  12.589   0.202  12.871
33757SOL    HW1 3168  12.601   0.228  12.780
33757SOL    HW2 3169  12.647   0.126  12.882
33758SOL     OW 3170   3.564   6.941   7.550
33758SOL    HW1 3171   3.567   6.865   7.492
33758SOL    HW2 3172   3.492   6.994   7.516
33759SOL     OW 3173   1.397  13.930   7.863
33759SOL    HW1 3174   1.400  14.023   7.886
33759SOL    HW2 3175   1.330  13.893   7.922
33760SOL     OW 3176   5.377   4.569   0.127
33760SOL    HW1 3177   5.375   4.563   0.032
33760SOL    HW2 3178   5.418   4.654   0.146
33761SOL     OW 3179   4.358   5.989  11.109
33761SOL    HW1 3180   4.375   6.002  11.202
33761SOL    HW2 3181   4.402   6.062  11.066
33762SOL     OW 3182   9.116   0.651   4.408
33762SOL    HW1 3183   9.080   0.570   4.372
33762SOL    HW2 3184   9.206   0.654   4.374
33763SOL     OW 3185  13.962  12.001  11.769
33763SOL    HW1 3186  13.935  12.087  11.739
33763SOL    HW2 3187  13.978  12.011  11.863
33764SOL     OW 3188   0.405  14.176  12.670
33764SOL    HW1 3189   0.353  14.247  12.707
33764SOL    HW2 3190   0.343  14.127  12.615
33765SOL     OW 3191  13.134   7.641   2.659
33765SOL    HW1 3192  13.102   7.710   2.718
33765SOL    HW2 3193  13.087   7.657   2.577
33766SOL     OW 3194  10.250  13.170  14.351
33766SOL    HW1 3195  10.273  13.183  14.443
33766SOL    HW2 3196  10.289  13.085  14.328
33767SOL     OW 3197   6.583   2.591   6.273
33767SOL    HW1 3198   6.636   2.515   6.297
33767SOL    HW2 3199   6.494   2.568   6.301
33768SOL     OW 3200   0.782   8.678  13.498
33768SOL    HW1 3201   0.755   8.625  13.423
33768SOL    HW2 3202   0.878   8.671  13.499
33769SOL     OW 3203   1.281  12.303   3.401
33769SOL    HW1 3204   1.243  12.239   3.340
33769SOL    HW2 3205   1.250  12.388   3.369
33770SOL     OW 3206   0.245   2.087   6.845
33770SOL    HW1 3207   0.287   2.034   6.778
33770SOL    HW2 3208   0.274   2.176   6.827
33771SOL     OW 3209  13.322   4.660   4.874
33771SOL    HW1 3210  13.256   4.723   4.901
33771SOL    HW2 3211  13.280   4.575   4.884
33772SOL     OW 3212  12.059   2.627   3.046
33772SOL    HW1 3213  12.139   2.586   3.079
33772SOL    HW2 3214  11.988   2.577   3.087
33773SOL     OW 3215  12.929   8.999  11.273
33773SOL    HW1 3216  12.986   8.997  11.349
33773SOL    HW2 3217  12.908   9.092  11.261
33774SOL     OW 3218  14.856  12.802  11.601
33774SOL    HW1 3219   0.039  12.879  11.624
33774SOL    HW2 3220  14.803  12.830  11.527
33775SOL     OW 3221   7.359  10.729   9.763
33775SOL    HW1 3222   7.367  10.782   9.842
33775SOL    HW2 3223   7.265  10.713   9.753
33776SOL     OW 3224   7.503   0.010   3.333
33776SOL    HW1 3225   7.435  14.828   3.290
33776SOL    HW2 3226   7.585  14.847   3.296
33777SOL     OW 3227   8.281   7.206   5.706
33777SOL    HW1 3228   8.315   7.188   5.793
33777SOL    HW2 3229   8.359   7.209   5.650
33778SOL     OW 3230   8.885   6.699  10.919
33778SOL    HW1 3231   8.941   6.768  10.954
33778SOL    HW2 3232   8.796   6.727  10.939
33779SOL     OW 3233  12.764   3.568   5.603
33779SOL    HW1 3234  12.698   3.619   5.557
33779SOL    HW2 3235  12.784   3.620   5.681
33780SOL     OW 3236   4.143   9.052   4.612
33780SOL    HW1 3237   4.052   9.023   4.614
33780SOL    HW2 3238   4.142   9.129   4.554
33781SOL     OW 3239  10.409   0.500  13.719
33781SOL    HW1 3240  10.399   0.445  13.797
33781SOL    HW2 3241  10.487   0.465  13.675
33782SOL     OW 3242   7.744   4.742   8.313
33782SOL    HW1 3243   7.757   4.721   8.405
33782SOL    HW2 3244   7.817   4.701   8.268
33783SOL     OW 3245  12.210  12.296   2.882
33783SOL    HW1 3246  12.126  12.289   2.836
33783SOL    HW2 3247  12.275  12.298   2.812
33784SOL     OW 3248   9.940   6.369   2.166
33784SOL    HW1 3249   9.963   6.324   2.247
33784SOL    HW2 3250   9.891   6.446   2.194
33785SOL     OW 3251   9.498  13.936  11.135
33785SOL    HW1 3252   9.403  13.922  11.124
33785SOL    HW2 3253   9.504  14.019  11.182
33786SOL     OW 3254   3.045  13.983   7.379
33786SOL    HW1 3255   2.980  13.943   7.437
33786SOL    HW2 3256   3.060  13.917   7.311
33787SOL     OW 3257   0.425  10.028   0.379
33787SOL    HW1 3258   0.449  10.121   0.374
33787SOL    HW2 3259   0.371  10.021   0.458
33788SOL     OW 3260   5.039  11.960   0.139
33788SOL    HW1 3261   4.996  12.044   0.121
33788SOL    HW2 3262   5.015  11.904   0.065
33789SOL     OW 3263   6.604  14.021   6.524
33789SOL    HW1 3264   6.601  14.067   6.440
33789SOL    HW2 3265   6.598  14.090   6.590
33790SOL     OW 3266   5.799   7.241   3.669
33790SOL    HW1 3267   5.807   7.299   3.744
33790SOL    HW2 3268   5.882   7.250   3.622
33791SOL     OW 3269   4.089   3.750  10.485
33791SOL    HW1 3270   4.069   3.672  10.433
33791SOL    HW2 3271   4.075   3.823  10.425
33792SOL     OW 3272  14.302  11.369   7.040
33792SOL    HW1 3273  14.288  11.436   7.108
33792SOL    HW2 3274  14.368  11.407   6.982
33793SOL     OW 3275   4.052   2.867  14.567
33793SOL    HW1 3276   4.129   2.906  14.526
33793SOL    HW2 3277   4.040   2.783  14.522
33794SOL     OW 3278   9.691   3.779   9.159
33794SOL    HW1 3279   9.667   3.688   9.143
33794SOL    HW2 3280   9.607   3.825   9.165
33795SOL     OW 3281  10.116  14.149  13.646
33795SOL    HW1 3282  10.108  14.234  13.604
33795SOL    HW2 3283  10.029  14.108  13.634
33796SOL     OW 3284  12.547   7.611  12.159
33796SOL    HW1 3285  12.626   7.653  12.125
33796SOL    HW2 3286  12.577   7.524  12.188
33797SOL     OW 3287   7.162   1.610   6.633
33797SOL    HW1 3288   7.126   1.522   6.641
33797SOL    HW2 3289   7.094   1.667   6.670
33798SOL     OW 3290   2.016  11.531  11.263
33798SOL    HW1 3291   2.069  11.551  11.340
33798SOL    HW2 3292   2.079  11.525  11.191
33799SOL     OW 3293   5.983   6.182  12.466
33799SOL    HW1 3294   5.905   6.199  12.415
33799SOL    HW2 3295   5.952   6.170  12.556
33800SOL     OW 3296   5.220  11.824   7.953
33800SOL    HW1 3297   5.230  11.848   7.861
33800SOL    HW2 3298   5.159  11.750   7.952
33801SOL     OW 3299   5.491   1.133   5.189
33801SOL    HW1 3300   5.545   1.158   5.264
33801SOL    HW2 3301   5.498   1.037   5.186
33802SOL     OW 3302   4.864   9.788   4.875
33802SOL    HW1 3303   4.956   9.812   4.871
33802SOL    HW2 3304   4.821   9.861   4.919
33803SOL     OW 3305  13.121  14.549   1.399
33803SOL    HW1 3306  13.177  14.604   1.454
33803SOL    HW2 3307  13.143  14.574   1.310
33804SOL     OW 3308  12.831   5.825   6.712
33804SOL    HW1 3309  12.804   5.780   6.632
33804SOL    HW2 3310  12.771   5.899   6.719
33805SOL     OW 3311   5.291   7.825  14.018
33805SOL    HW1 3312   5.237   7.747  14.027
33805SOL    HW2 3313   5.249   7.891  14.073
33806SOL     OW 3314  10.681  13.106   2.081
33806SOL    HW1 3315  10.703  13.046   2.010
33806SOL    HW2 3316  10.586  13.096   2.093
33807SOL     OW 3317   6.151   7.858   8.432
33807SOL    HW1 3318   6.133   7.938   8.383
33807SOL    HW2 3319   6.204   7.805   8.372
33808SOL     OW 3320  11.451  14.605   6.390
33808SOL    HW1 3321  11.422  14.537   6.329
33808SOL    HW2 3322  11.448  14.686   6.338
33809SOL     OW 3323  10.668   5.476  13.265
33809SOL    HW1 3324  10.658   5.504  13.356
33809SOL    HW2 3325  10.667   5.558  13.215
33810SOL     OW 3326  14.115   9.051  11.194
33810SOL    HW1 3327  14.123   9.130  11.248
33810SOL    HW2 3328  14.071   8.988  11.251
33811SOL     OW 3329   0.480   9.554  13.655
33811SOL    HW1 3330   0.497   9.490  13.586
33811SOL    HW2 3331   0.437   9.627  13.609
33812SOL     OW 3332  10.450   8.419   6.316
33812SOL    HW1 3333  10.405   8.498   6.286
33812SOL    HW2 3334  10.446   8.424   6.412
33813SOL     OW 3335   9.714  10.410   1.369
33813SOL    HW1 3336   9.757  10.326   1.385
33813SOL    HW2 3337   9.682  10.438   1.455
33814SOL     OW 3338   2.036   7.002   1.960
33814SOL    HW1 3339   2.117   6.987   1.911
33814SOL    HW2 3340   2.055   6.969   2.048
33815SOL     OW 3341  12.236  12.899  14.319
33815SOL    HW1 3342  12.161  12.900  14.260
33815SOL    HW2 3343  12.285  12.820  14.296
33816SOL     OW 3344  10.863  12.292  13.896
33816SOL    HW1 3345  10.895  12.382  13.884
33816SOL    HW2 3346  10.853  12.284  13.991
33817SOL     OW 3347   9.719   9.027  11.361
33817SOL    HW1 3348   9.795   8.977  11.391
33817SOL    HW2 3349   9.691   8.981  11.282
33818SOL     OW 3350   0.667   4.277  10.372
33818SOL    HW1 3351   0.585   4.294  10.419
33818SOL    HW2 3352   0.660   4.328  10.292
33819SOL     OW 3353  11.284   8.678   8.041
33819SOL    HW1 3354  11.286   8.697   7.947
33819SOL    HW2 3355  11.292   8.583   8.046
33820SOL     OW 3356   0.692   8.259   9.612
33820SOL    HW1 3357   0.637   8.236   9.688
33820SOL    HW2 3358   0.742   8.336   9.641
33821SOL     OW 3359   5.116  10.843  10.757
33821SOL    HW1 3360   5.041  10.860  10.701
33821SOL    HW2 3361   5.192  10.875  10.708
33822SOL     OW 3362   0.720   0.686   3.679
33822SOL    HW1 3363   0.750   0.598   3.701
33822SOL    HW2 3364   0.758   0.704   3.593
33823SOL     OW 3365   7.006  13.190   3.854
33823SOL    HW1 3366   6.983  13.162   3.943
33823SOL    HW2 3367   7.082  13.137   3.831
33824SOL     OW 3368   9.400  13.678   9.286
33824SOL    HW1 3369   9.318  13.675   9.334
33824SOL    HW2 3370   9.445  13.755   9.321
33825SOL     OW 3371  10.184   1.330   0.603
33825SOL    HW1 3372  10.143   1.412   0.631
33825SOL    HW2 3373  10.168   1.326   0.509
33826SOL     OW 3374   1.082   8.092  11.162
33826SOL    HW1 3375   1.085   8.012  11.109
33826SOL    HW2 3376   1.034   8.155  11.108
33827SOL     OW 3377   4.676   8.643  13.906
33827SOL    HW1 3378   4.649   8.735  13.900
33827SOL    HW2 3379   4.720   8.637  13.991
33828SOL     OW 3380   1.325  14.570   2.475
33828SOL    HW1 3381   1.365  14.565   2.388
33828SOL    HW2 3382   1.247  14.624   2.462
33829SOL     OW 3383  14.297  10.925   9.799
33829SOL    HW1 3384  14.230  10.927   9.867
33829SOL    HW2 3385  14.248  10.929   9.717
33830SOL     OW 3386   8.893  11.044   3.964
33830SOL    HW1 3387   8.914  10.973   4.025
33830SOL    HW2 3388   8.829  11.098   4.011
33831SOL     OW 3389   3.484  12.333   6.142
33831SOL    HW1 3390   3.460  12.406   6.200
33831SOL    HW2 3391   3.526  12.375   6.067
33832SOL     OW 3392   4.163   2.221   8.559
33832SOL    HW1 3393   4.133   2.290   8.619
33832SOL    HW2 3394   4.259   2.227   8.563
33833SOL     OW 3395   5.583   4.540  11.241
33833SOL    HW1 3396   5.611   4.449  11.257
33833SOL    HW2 3397   5.664   4.585  11.215
33834SOL     OW 3398   7.042   1.591   2.723
33834SOL    HW1 3399   7.132   1.611   2.749
33834SOL    HW2 3400   7.013   1.525   2.785
33835SOL     OW 3401  12.732   5.490   5.982
33835SOL    HW1 3402  12.665   5.533   5.929
33835SOL    HW2 3403  12.704   5.399   5.988
33836SOL     OW 3404  14.077   2.746  10.680
33836SOL    HW1 3405  14.122   2.817  10.727
33836SOL    HW2 3406  13.986   2.774  10.676
33837SOL     OW 3407   0.694   8.624   8.170
33837SOL    HW1 3408   0.735   8.647   8.087
33837SOL    HW2 3409   0.765   8.627   8.234
33838SOL     OW 3410  11.554   9.851   2.757
33838SOL    HW1 3411  11.548   9.766   2.712
33838SOL    HW2 3412  11.640   9.885   2.733
33839SOL     OW 3413   7.693   2.063  14.019
33839SOL    HW1 3414   7.709   2.156  14.036
33839SOL    HW2 3415   7.683   2.024  14.106
33840SOL     OW 3416  13.808   0.138  10.827
33840SOL    HW1 3417  13.730   0.172  10.784
33840SOL    HW2 3418  13.865   0.109  10.756
33841SOL     OW 3419  13.014  12.223   7.155
33841SOL    HW1 3420  13.037  12.238   7.063
33841SOL    HW2 3421  13.060  12.142   7.178
33842SOL     OW 3422   7.429  12.504  10.677
33842SOL    HW1 3423   7.462  12.561  10.608
33842SOL    HW2 3424   7.450  12.550  10.758
33843SOL     OW 3425  14.348   8.766   1.779
33843SOL    HW1 3426  14.418   8.701   1.783
33843SOL    HW2 3427  14.314   8.760   1.689
33844SOL     OW 3428  10.892  10.394   0.497
33844SOL    HW1 3429  10.840  10.467   0.531
33844SOL    HW2 3430  10.914  10.420   0.408
33845SOL     OW 3431   3.617  12.432   2.002
33845SOL    HW1 3432   3.691  12.375   1.980
33845SOL    HW2 3433   3.593  12.407   2.092
33846SOL     OW 3434  10.238   4.967   5.247
33846SOL    HW1 3435  10.187   5.047   5.235
33846SOL    HW2 3436  10.303   4.968   5.177
33847SOL     OW 3437  12.677  12.234   4.287
33847SOL    HW1 3438  12.755  12.276   4.323
33847SOL    HW2 3439  12.604  12.285   4.322
33848SOL     OW 3440   8.165   4.163   0.798
33848SOL    HW1 3441   8.073   4.156   0.774
33848SOL    HW2 3442   8.200   4.233   0.743
33849SOL     OW 3443   6.098   7.650  10.329
33849SOL    HW1 3444   6.076   7.733  10.288
33849SOL    HW2 3445   6.013   7.611  10.350
33850SOL     OW 3446  14.563   7.675  13.106
33850SOL    HW1 3447  14.631   7.676  13.039
33850SOL    HW2 3448  14.545   7.583  13.121
33851SOL     OW 3449  14.199  11.622  13.261
33851SOL    HW1 3450  14.132  11.569  13.218
33851SOL    HW2 3451  14.221  11.690  13.197
33852SOL     OW 3452   5.473   9.038   2.585
33852SOL    HW1 3453   5.436   8.954   2.556
33852SOL    HW2 3454   5.446   9.100   2.518
33853SOL     OW 3455  10.057   8.493   8.147
33853SOL    HW1 3456  10.100   8.493   8.232
33853SOL    HW2 3457  10.029   8.583   8.133
33854SOL     OW 3458  12.388  10.382   7.432
33854SOL    HW1 3459  12.324  10.435   7.384
33854SOL    HW2 3460  12.380  10.410   7.523
33855SOL     OW 3461   5.643  11.165   4.686
33855SOL    HW1 3462   5.553  11.132   4.687
33855SOL    HW2 3463   5.635  11.257   4.711
33856SOL     OW 3464   4.870  14.081  13.129
33856SOL    HW1 3465   4.897  14.140  13.058
33856SOL    HW2 3466   4.883  14.132  13.208
33857SOL     OW 3467   4.647   3.379   8.942
33857SOL    HW1 3468   4.585   3.342   9.006
33857SOL    HW2 3469   4.668   3.465   8.978
33858SOL     OW 3470  12.873   3.597   6.788
33858SOL    HW1 3471  12.801   3.579   6.729
33858SOL    HW2 3472  12.917   3.512   6.799
33859SOL     OW 3473   5.055   9.439   0.819
33859SOL    HW1 3474   5.081   9.531   0.821
33859SOL    HW2 3475   5.020   9.422   0.906
33860SOL     OW 3476   3.766   7.886   5.470
33860SOL    HW1 3477   3.810   7.930   5.397
33860SOL    HW2 3478   3.749   7.798   5.437
33861SOL     OW 3479   7.466   0.174  10.168
33861SOL    HW1 3480   7.453   0.259  10.209
33861SOL    HW2 3481   7.418   0.113  10.223
33862SOL     OW 3482   3.640  13.450  14.758
33862SOL    HW1 3483   3.582  13.463  14.684
33862SOL    HW2 3484   3.712  13.511  14.744
33863SOL     OW 3485   3.416   4.709   1.090
33863SOL    HW1 3486   3.428   4.614   1.087
33863SOL    HW2 3487   3.363   4.724   1.168
33864SOL     OW 3488  12.715   0.739  13.383
33864SOL    HW1 3489  12.704   0.828  13.350
33864SOL    HW2 3490  12.750   0.750  13.471
33865SOL     OW 3491   8.607   9.249   8.775
33865SOL    HW1 3492   8.672   9.294   8.721
33865SOL    HW2 3493   8.655   9.220   8.852
33866SOL     OW 3494   1.160   5.643  11.733
33866SOL    HW1 3495   1.137   5.553  11.755
33866SOL    HW2 3496   1.101   5.667  11.662
33867SOL     OW 3497   8.320  14.176   1.584
33867SOL    HW1 3498   8.333  14.270   1.595
33867SOL    HW2 3499   8.229  14.167   1.558
33868SOL     OW 3500   3.614  13.402   5.210
33868SOL    HW1 3501   3.559  13.450   5.147
33868SOL    HW2 3502   3.660  13.338   5.156
33869SOL     OW 3503   7.714  10.188   0.842
33869SOL    HW1 3504   7.715  10.158   0.933
33869SOL    HW2 3505   7.677  10.115   0.793
33870SOL     OW 3506   5.225   1.052   4.314
33870SOL    HW1 3507   5.227   1.065   4.219
33870SOL    HW2 3508   5.203   0.959   4.325
33871SOL     OW 3509  10.254  13.776   1.867
33871SOL    HW1 3510  10.236  13.760   1.960
33871SOL    HW2 3511  10.170  13.758   1.824
33872SOL     OW 3512   8.690  13.321   0.358
33872SOL    HW1 3513   8.688  13.404   0.405
33872SOL    HW2 3514   8.622  13.268   0.400
33873SOL     OW 3515   6.015   0.380   2.438
33873SOL    HW1 3516   6.067   0.408   2.363
33873SOL    HW2 3517   6.044   0.437   2.510
33874SOL     OW 3518   7.950   8.992   2.369
33874SOL    HW1 3519   7.872   9.039   2.397
33874SOL    HW2 3520   7.938   8.903   2.403
33875SOL     OW 3521  11.170  14.273   5.833
33875SOL    HW1 3522  11.119  14.206   5.787
33875SOL    HW2 3523  11.230  14.307   5.766
33876SOL     OW 3524   0.729   0.349  11.201
33876SOL    HW1 3525   0.709   0.304  11.283
33876SOL    HW2 3526   0.684   0.433  11.208
33877SOL     OW 3527   4.688   1.376   3.921
33877SOL    HW1 3528   4.695   1.434   3.997
33877SOL    HW2 3529   4.630   1.306   3.950
33878SOL     OW 3530   7.635   1.502   8.597
33878SOL    HW1 3531   7.672   1.579   8.555
33878SOL    HW2 3532   7.636   1.434   8.529
33879SOL     OW 3533  14.690   6.016  10.056
33879SOL    HW1 3534  14.601   6.042  10.034
33879SOL    HW2 3535  14.740   6.032   9.976
33880SOL     OW 3536  10.262  10.680   9.961
33880SOL    HW1 3537  10.269  10.605   9.901
33880SOL    HW2 3538  10.266  10.757   9.904
33881SOL     OW 3539   2.711  10.120  11.534
33881SOL    HW1 3540   2.665  10.199  11.562
33881SOL    HW2 3541   2.804  10.139  11.549
33882SOL     OW 3542   3.343  10.828   4.408
33882SOL    HW1 3543   3.418  10.862   4.359
33882SOL    HW2 3544   3.320  10.898   4.469
33883SOL     OW 3545   7.133   7.416   3.407
33883SOL    HW1 3546   7.207   7.432   3.465
33883SOL    HW2 3547   7.128   7.493   3.351
33884SOL     OW 3548   2.155  10.815   0.172
33884SOL    HW1 3549   2.236  10.787   0.215
33884SOL    HW2 3550   2.132  10.897   0.215
33885SOL     OW 3551   1.178  14.040   1.771
33885SOL    HW1 3552   1.206  14.033   1.680
33885SOL    HW2 3553   1.237  14.105   1.809
33886SOL     OW 3554  10.391  14.566   1.459
33886SOL    HW1 3555  10.421  14.623   1.388
33886SOL    HW2 3556  10.409  14.616   1.539
33887SOL     OW 3557   3.526   8.435   4.164
33887SOL    HW1 3558   3.510   8.347   4.197
33887SOL    HW2 3559   3.619   8.438   4.144
33888SOL     OW 3560  12.995  10.483  14.570
33888SOL    HW1 3561  13.068  10.494  14.631
33888SOL    HW2 3562  12.925  10.445  14.623
33889SOL     OW 3563  11.424   7.123   2.870
33889SOL    HW1 3564  11.430   7.170   2.953
33889SOL    HW2 3565  11.331   7.126   2.847
33890SOL     OW 3566   8.338  10.735   1.738
33890SOL    HW1 3567   8.253  10.769   1.765
33890SOL    HW2 3568   8.353  10.771   1.651
33891SOL     OW 3569   2.395   1.630  14.052
33891SOL    HW1 3570   2.375   1.688  13.978
33891SOL    HW2 3571   2.489   1.640  14.066
33892SOL     OW 3572   1.986  14.137   0.737
33892SOL    HW1 3573   2.077  14.118   0.713
33892SOL    HW2 3574   1.979  14.109   0.828
33893SOL     OW 3575   5.310   5.883   8.829
33893SOL    HW1 3576   5.376   5.924   8.773
33893SOL    HW2 3577   5.359   5.820   8.882
33894SOL     OW 3578  14.843   1.634  12.007
33894SOL    HW1 3579  14.861   1.609  12.097
33894SOL    HW2 3580  14.834   1.552  11.960
33895SOL     OW 3581   9.175   3.558   4.411
33895SOL    HW1 3582   9.250   3.555   4.470
33895SOL    HW2 3583   9.099   3.548   4.468
33896SOL     OW 3584   7.329  11.001  12.598
33896SOL    HW1 3585   7.272  10.993  12.521
33896SOL    HW2 3586   7.334  11.095  12.615
33897SOL     OW 3587   5.207   1.532  11.429
33897SOL    HW1 3588   5.163   1.610  11.398
33897SOL    HW2 3589   5.164   1.460  11.383
33898SOL     OW 3590   3.820  12.447  13.642
33898SOL    HW1 3591   3.897  12.479  13.689
33898SOL    HW2 3592   3.797  12.518  13.582
33899SOL     OW 3593   9.319   7.798   1.004
33899SOL    HW1 3594   9.336   7.797   1.098
33899SOL    HW2 3595   9.390   7.747   0.966
33900SOL     OW 3596  11.292  11.539   1.642
33900SOL    HW1 3597  11.347  11.601   1.595
33900SOL    HW2 3598  11.210  11.537   1.593
33901SOL     OW 3599   2.698   1.252   4.890
33901SOL    HW1 3600   2.747   1.231   4.969
33901SOL    HW2 3601   2.606   1.241   4.915
33902SOL     OW 3602   4.234  10.692   2.733
33902SOL    HW1 3603   4.276  10.751   2.796
33902SOL    HW2 3604   4.176  10.749   2.682
33903SOL     OW 3605   1.212  12.651  10.532
33903SOL    HW1 3606   1.214  12.568  10.579
33903SOL    HW2 3607   1.296  12.657  10.488
33904SOL     OW 3608   5.842   8.862   5.330
33904SOL    HW1 3609   5.792   8.781   5.321
33904SOL    HW2 3610   5.842   8.880   5.425
33905SOL     OW 3611   8.127   3.343  13.897
33905SOL    HW1 3612   8.141   3.268  13.841
33905SOL    HW2 3613   8.078   3.405  13.843
33906SOL     OW 3614  12.694   2.502   0.486
33906SOL    HW1 3615  12.612   2.495   0.536
33906SOL    HW2 3616  12.665   2.519   0.396
33907SOL     OW 3617  10.191  13.288   7.065
33907SOL    HW1 3618  10.268  13.234   7.044
33907SOL    HW2 3619  10.117  13.238   7.032
33908SOL     OW 3620   4.488   9.710   6.990
33908SOL    HW1 3621   4.449   9.753   7.066
33908SOL    HW2 3622   4.449   9.754   6.914
33909SOL     OW 3623  14.639   9.593   5.980
33909SOL    HW1 3624  14.654   9.507   5.942
33909SOL    HW2 3625  14.719   9.613   6.029
33910SOL     OW 3626  11.718   0.237   2.494
33910SOL    HW1 3627  11.724   0.145   2.519
33910SOL    HW2 3628  11.808   0.264   2.475
33911SOL     OW 3629  13.083   8.374   0.934
33911SOL    HW1 3630  13.171   8.406   0.914
33911SOL    HW2 3631  13.068   8.397   1.025
33912SOL     OW 3632  12.184   5.206   6.717
33912SOL    HW1 3633  12.096   5.170   6.708
33912SOL    HW2 3634  12.182   5.255   6.799
33913SOL     OW 3635  12.377  10.400   1.519
33913SOL    HW1 3636  12.327  10.481   1.512
33913SOL    HW2 3637  12.424  10.408   1.602
33914SOL     OW 3638  14.426   3.974   0.194
33914SOL    HW1 3639  14.518   3.984   0.216
33914SOL    HW2 3640  14.415   3.881   0.175
33915SOL     OW 3641  12.015   1.908   5.990
33915SOL    HW1 3642  12.104   1.943   5.994
33915SOL    HW2 3643  11.999   1.873   6.078
33916SOL     OW 3644   9.835   9.948   4.994
33916SOL    HW1 3645   9.915   9.898   5.003
33916SOL    HW2 3646   9.803   9.960   5.083
33917SOL     OW 3647   1.953   9.369  14.143
33917SOL    HW1 3648   1.929   9.350  14.052
33917SOL    HW2 3649   1.966   9.282  14.183
33918SOL     OW 3650   4.676   7.886  10.008
33918SOL    HW1 3651   4.743   7.860  10.071
33918SOL    HW2 3652   4.622   7.807   9.997
33919SOL     OW 3653  11.445  13.169   3.687
33919SOL    HW1 3654  11.480  13.213   3.609
33919SOL    HW2 3655  11.351  13.161   3.669
33920SOL     OW 3656  10.550   6.481   9.934
33920SOL    HW1 3657  10.543   6.574   9.955
33920SOL    HW2 3658  10.539   6.436  10.018
33921SOL     OW 3659  10.291   8.312   6.724
33921SOL    HW1 3660  10.331   8.258   6.792
33921SOL    HW2 3661  10.366   8.353   6.680
33922SOL     OW 3662   0.389   2.632   9.292
33922SOL    HW1 3663   0.389   2.687   9.214
33922SOL    HW2 3664   0.316   2.572   9.279
33923SOL     OW 3665   8.806   0.024  10.274
33923SOL    HW1 3666   8.827   0.051  10.364
33923SOL    HW2 3667   8.725  14.843  10.282
33924SOL     OW 3668   5.677   3.209   7.555
33924SOL    HW1 3669   5.759   3.244   7.590
33924SOL    HW2 3670   5.618   3.206   7.631
33925SOL     OW 3671   6.412  12.925  11.411
33925SOL    HW1 3672   6.319  12.904  11.420
33925SOL    HW2 3673   6.415  13.020  11.405
33926SOL     OW 3674   1.524  11.458   9.373
33926SOL    HW1 3675   1.475  11.531   9.335
33926SOL    HW2 3676   1.470  11.381   9.354
33927SOL     OW 3677   2.745  13.062   9.371
33927SOL    HW1 3678   2.840  13.056   9.382
33927SOL    HW2 3679   2.731  13.050   9.277
33928SOL     OW 3680   7.131  12.987   6.052
33928SOL    HW1 3681   7.191  13.061   6.056
33928SOL    HW2 3682   7.188  12.910   6.052
33929SOL     OW 3683   0.161  11.637   4.340
33929SOL    HW1 3684   0.176  11.587   4.259
33929SOL    HW2 3685   0.215  11.593   4.405
33930SOL     OW 3686  14.756  13.889   6.624
33930SOL    HW1 3687  14.770  13.892   6.719
33930SOL    HW2 3688  14.843  13.901   6.587
33931SOL     OW 3689   8.478  12.064   4.000
33931SOL    HW1 3690   8.418  12.017   4.058
33931SOL    HW2 3691   8.421  12.098   3.930
33932SOL     OW 3692   2.922   5.454  10.009
33932SOL    HW1 3693   3.005   5.456   9.961
33932SOL    HW2 3694   2.918   5.365  10.046
33933SOL     OW 3695   6.511   1.288  14.266
33933SOL    HW1 3696   6.526   1.231  14.341
33933SOL    HW2 3697   6.429   1.257  14.228
33934SOL     OW 3698   1.691  10.704  14.730
33934SOL    HW1 3699   1.748  10.633  14.698
33934SOL    HW2 3700   1.701  10.701  14.826
33935SOL     OW 3701  12.410   7.178   9.276
33935SOL    HW1 3702  12.420   7.188   9.182
33935SOL    HW2 3703  12.500   7.168   9.309
33936SOL     OW 3704  14.082   6.722  13.767
33936SOL    HW1 3705  14.045   6.800  13.808
33936SOL    HW2 3706  14.125   6.754  13.689
33937SOL     OW 3707   9.463   1.479   6.918
33937SOL    HW1 3708   9.485   1.568   6.892
33937SOL    HW2 3709   9.540   1.448   6.966
33938SOL     OW 3710  12.006   9.532  12.877
33938SOL    HW1 3711  11.949   9.578  12.938
33938SOL    HW2 3712  12.075   9.595  12.856
33939SOL     OW 3713   0.087  10.406   8.264
33939SOL    HW1 3714   0.115  10.421   8.354
33939SOL    HW2 3715   0.025  10.476   8.245
33940SOL     OW 3716   5.791  13.572   2.500
33940SOL    HW1 3717   5.885  13.585   2.514
33940SOL    HW2 3718   5.761  13.527   2.579
33941SOL     OW 3719   1.528   0.528   9.244
33941SOL    HW1 3720   1.529   0.508   9.338
33941SOL    HW2 3721   1.507   0.621   9.239
33942SOL     OW 3722   5.255  14.601  10.777
33942SOL    HW1 3723   5.174  14.589  10.828
33942SOL    HW2 3724   5.253  14.531  10.712
33943SOL     OW 3725   2.140   9.650  12.050
33943SOL    HW1 3726   2.158   9.558  12.068
33943SOL    HW2 3727   2.078   9.649  11.977
33944SOL     OW 3728   1.884  13.519   3.762
33944SOL    HW1 3729   1.817  13.506   3.696
33944SOL    HW2 3730   1.848  13.480   3.842
33945SOL     OW 3731   2.460  14.648   2.984
33945SOL    HW1 3732   2.522  14.595   2.933
33945SOL    HW2 3733   2.374  14.619   2.953
33946SOL     OW 3734   3.500   7.475  14.233
33946SOL    HW1 3735   3.517   7.561  14.196
33946SOL    HW2 3736   3.543   7.478  14.319
33947SOL     OW 3737   1.682   3.446   8.573
33947SOL    HW1 3738   1.693   3.496   8.654
33947SOL    HW2 3739   1.665   3.356   8.602
33948SOL     OW 3740   8.293   4.944  12.108
33948SOL    HW1 3741   8.234   4.969  12.037
33948SOL    HW2 3742   8.376   4.925  12.064
33949SOL     OW 3743   9.075   1.697   6.611
33949SOL    HW1 3744   9.107   1.757   6.678
33949SOL    HW2 3745   9.096   1.610   6.645
33950SOL     OW 3746  10.266   7.758   2.629
33950SOL    HW1 3747  10.330   7.750   2.700
33950SOL    HW2 3748  10.275   7.848   2.599
33951SOL     OW 3749   0.230   6.089   9.120
33951SOL    HW1 3750   0.214   6.009   9.170
33951SOL    HW2 3751   0.173   6.155   9.159
33952SOL     OW 3752   6.176   3.959   5.665
33952SOL    HW1 3753   6.243   3.891   5.676
33952SOL    HW2 3754   6.138   3.970   5.752
33953SOL     OW 3755  12.829   1.399   7.420
33953SOL    HW1 3756  12.810   1.310   7.390
33953SOL    HW2 3757  12.874   1.440   7.346
33954SOL     OW 3758  14.608   0.434   2.323
33954SOL    HW1 3759  14.618   0.360   2.262
33954SOL    HW2 3760  14.601   0.511   2.266
33955SOL     OW 3761  14.601   5.956   5.348
33955SOL    HW1 3762  14.541   6.016   5.305
33955SOL    HW2 3763  14.638   5.904   5.276
33956SOL     OW 3764   8.713   8.135   6.445
33956SOL    HW1 3765   8.714   8.223   6.406
33956SOL    HW2 3766   8.630   8.097   6.415
33957SOL     OW 3767  11.992   1.852  11.680
33957SOL    HW1 3768  12.032   1.917  11.738
33957SOL    HW2 3769  11.942   1.904  11.617
33958SOL     OW 3770   1.400   2.591   6.675
33958SOL    HW1 3771   1.345   2.576   6.598
33958SOL    HW2 3772   1.413   2.504   6.713
33959SOL     OW 3773  14.094  14.571  11.413
33959SOL    HW1 3774  14.079  14.663  11.435
33959SOL    HW2 3775  14.156  14.540  11.479
33960SOL     OW 3776  13.128  14.796  13.788
33960SOL    HW1 3777  13.108  14.768  13.699
33960SOL    HW2 3778  13.129   0.022  13.784
33961SOL     OW 3779   8.316   6.086   9.255
33961SOL    HW1 3780   8.327   6.181   9.254
33961SOL    HW2 3781   8.345   6.060   9.343
33962SOL     OW 3782  10.682  14.665   2.547
33962SOL    HW1 3783  10.676  14.718   2.626
33962SOL    HW2 3784  10.593  14.637   2.530
33963SOL     OW 3785   9.248   7.040  12.955
33963SOL    HW1 3786   9.319   7.101  12.934
33963SOL    HW2 3787   9.201   7.031  12.872
33964SOL     OW 3788  12.568   8.305  12.906
33964SOL    HW1 3789  12.534   8.307  12.995
33964SOL    HW2 3790  12.644   8.364  12.908
33965SOL     OW 3791   0.860   3.176  10.486
33965SOL    HW1 3792   0.811   3.258  10.488
33965SOL    HW2 3793   0.943   3.199  10.444
33966SOL     OW 3794  12.124   5.787  13.947
33966SOL    HW1 3795  12.121   5.734  14.026
33966SOL    HW2 3796  12.199   5.754  13.898
33967SOL     OW 3797  12.732   3.341  13.949
33967SOL    HW1 3798  12.725   3.361  14.043
33967SOL    HW2 3799  12.776   3.256  13.946
33968SOL     OW 3800  10.866   7.547   3.377
33968SOL    HW1 3801  10.822   7.632   3.387
33968SOL    HW2 3802  10.852   7.503   3.461
33969SOL     OW 3803  11.790  14.405   7.556
33969SOL    HW1 3804  11.846  14.447   7.491
33969SOL    HW2 3805  11.851  14.357   7.612
33970SOL     OW 3806  12.932   0.318  11.420
33970SOL    HW1 3807  12.854   0.293  11.470
33970SOL    HW2 3808  12.899   0.342  11.334
33971SOL     OW 3809   7.526   7.303   0.328
33971SOL    HW1 3810   7.572   7.295   0.412
33971SOL    HW2 3811   7.588   7.269   0.263
33972SOL     OW 3812  11.855   9.869   0.509
33972SOL    HW1 3813  11.800   9.926   0.563
33972SOL    HW2 3814  11.807   9.787   0.504
33973SOL     OW 3815   8.357  11.469   9.702
33973SOL    HW1 3816   8.325  11.445   9.615
33973SOL    HW2 3817   8.432  11.527   9.684
33974SOL     OW 3818   4.967   1.765   2.804
33974SOL    HW1 3819   5.045   1.709   2.808
33974SOL    HW2 3820   4.895   1.707   2.831
33975SOL     OW 3821   4.606   5.275  13.926
33975SOL    HW1 3822   4.675   5.220  13.963
33975SOL    HW2 3823   4.532   5.263  13.984
33976SOL     OW 3824   6.471   2.783  12.029
33976SOL    HW1 3825   6.511   2.871  12.029
33976SOL    HW2 3826   6.437   2.773  12.118
33977SOL     OW 3827  11.010   8.862   6.784
33977SOL    HW1 3828  10.990   8.938   6.728
33977SOL    HW2 3829  11.004   8.787   6.725
33978SOL     OW 3830  13.071  12.736   2.826
33978SOL    HW1 3831  13.009  12.754   2.897
33978SOL    HW2 3832  13.109  12.821   2.805
33979SOL     OW 3833  13.516   5.038  10.484
33979SOL    HW1 3834  13.506   5.001  10.572
33979SOL    HW2 3835  13.596   5.090  10.489
33980SOL     OW 3836  10.792  10.684   2.946
33980SOL    HW1 3837  10.824  10.765   2.907
33980SOL    HW2 3838  10.823  10.615   2.888
33981SOL     OW 3839  13.440   6.411   0.775
33981SOL    HW1 3840  13.380   6.337   0.782
33981SOL    HW2 3841  13.481   6.418   0.861
33982SOL     OW 3842   9.702   6.127   0.799
33982SOL    HW1 3843   9.613   6.095   0.820
33982SOL    HW2 3844   9.702   6.218   0.828
33983SOL     OW 3845   0.447   7.641   4.523
33983SOL    HW1 3846   0.515   7.606   4.580
33983SOL    HW2 3847   0.404   7.564   4.486
33984SOL     OW 3848   3.604   2.231   9.918
33984SOL    HW1 3849   3.689   2.191   9.899
33984SOL    HW2 3850   3.568   2.178   9.989
33985SOL     OW 3851   8.469  10.890   8.063
33985SOL    HW1 3852   8.453  10.802   8.097
33985SOL    HW2 3853   8.382  10.927   8.050
33986SOL     OW 3854  11.401   0.875   7.132
33986SOL    HW1 3855  11.368   0.883   7.222
33986SOL    HW2 3856  11.368   0.790   7.102
33987SOL     OW 3857   6.921  11.998   7.332
33987SOL    HW1 3858   6.888  11.909   7.318
33987SOL    HW2 3859   6.861  12.054   7.283
33988SOL     OW 3860   8.672  13.626  13.062
33988SOL    HW1 3861   8.648  13.547  13.112
33988SOL    HW2 3862   8.676  13.695  13.128
33989SOL     OW 3863   5.022  13.516  10.299
33989SOL    HW1 3864   4.938  13.508  10.345
33989SOL    HW2 3865   5.065  13.431  10.313
33990SOL     OW 3866  13.860   1.521   2.406
33990SOL    HW1 3867  13.923   1.503   2.337
33990SOL    HW2 3868  13.902   1.588   2.461
33991SOL     OW 3869   8.679  12.587  14.398
33991SOL    HW1 3870   8.663  12.509  14.451
33991SOL    HW2 3871   8.647  12.564  14.311
33992SOL     OW 3872   6.902  12.562   2.308
33992SOL    HW1 3873   6.867  12.530   2.391
33992SOL    HW2 3874   6.993  12.532   2.307
33993SOL     OW 3875   9.254   2.245   4.392
33993SOL    HW1 3876   9.245   2.150   4.398
33993SOL    HW2 3877   9.165   2.276   4.373
33994SOL     OW 3878  11.935   0.025   1.047
33994SOL    HW1 3879  11.980   0.022   1.132
33994SOL    HW2 3880  11.988   0.085   0.995
33995SOL     OW 3881   2.463  13.055   2.523
33995SOL    HW1 3882   2.397  13.106   2.475
33995SOL    HW2 3883   2.412  13.005   2.587
33996SOL     OW 3884   6.281   1.112   5.146
33996SOL    HW1 3885   6.238   1.089   5.228
33996SOL    HW2 3886   6.216   1.093   5.078
33997SOL     OW 3887  13.737   7.595   8.175
33997SOL    HW1 3888  13.663   7.641   8.216
33997SOL    HW2 3889  13.696   7.527   8.122
33998SOL     OW 3890   6.368  12.051  10.412
33998SOL    HW1 3891   6.411  11.985  10.359
33998SOL    HW2 3892   6.280  12.060  10.374
33999SOL     OW 3893   3.003   0.210   3.848
33999SOL    HW1 3894   2.960   0.288   3.883
33999SOL    HW2 3895   3.061   0.181   3.919
34000SOL     OW 3896   7.486   2.448   4.056
34000SOL    HW1 3897   7.570   2.484   4.026
34000SOL    HW2 3898   7.491   2.355   4.034
34001SOL     OW 3899   5.024   0.199   1.964
34001SOL    HW1 3900   5.031   0.155   2.048
34001SOL    HW2 3901   5.106   0.179   1.919
34002SOL     OW 3902  11.358  11.546   2.360
34002SOL    HW1 3903  11.390  11.488   2.429
34002SOL    HW2 3904  11.311  11.488   2.300
34003SOL     OW 3905   7.215   4.740   2.299
34003SOL    HW1 3906   7.159   4.697   2.234
34003SOL    HW2 3907   7.249   4.817   2.253
34004SOL     OW 3908   1.412  14.328  14.744
34004SOL    HW1 3909   1.368  14.350  14.662
34004SOL    HW2 3910   1.505  14.327  14.721
34005SOL     OW 3911  13.847   3.816   3.409
34005SOL    HW1 3912  13.765   3.836   3.364
34005SOL    HW2 3913  13.913   3.865   3.361
34006SOL     OW 3914  11.502  10.132  10.031
34006SOL    HW1 3915  11.408  10.147  10.019
34006SOL    HW2 3916  11.542  10.218  10.016
34007SOL     OW 3917   7.928   7.716   1.486
34007SOL    HW1 3918   7.906   7.771   1.412
34007SOL    HW2 3919   8.003   7.665   1.458
34008SOL     OW 3920  13.824  12.323   9.158
34008SOL    HW1 3921  13.815  12.373   9.240
34008SOL    HW2 3922  13.918  12.309   9.149
34009SOL     OW 3923  12.906   6.618   1.535
34009SOL    HW1 3924  12.824   6.666   1.545
34009SOL    HW2 3925  12.932   6.596   1.625
34010SOL     OW 3926   4.942  11.104   8.706
34010SOL    HW1 3927   4.973  11.177   8.760
34010SOL    HW2 3928   4.985  11.117   8.621
34011SOL     OW 3929  11.635   8.222  14.373
34011SOL    HW1 3930  11.665   8.132  14.386
34011SOL    HW2 3931  11.605   8.250  14.459
34012SOL     OW 3932   7.078  14.723   2.935
34012SOL    HW1 3933   7.147  14.686   2.882
34012SOL    HW2 3934   7.074  14.667   3.013
34013SOL     OW 3935   3.119   2.852   8.196
34013SOL    HW1 3936   3.139   2.857   8.102
34013SOL    HW2 3937   3.203   2.829   8.237
34014SOL     OW 3938  12.587  13.308   5.963
34014SOL    HW1 3939  12.639  13.233   5.936
34014SOL    HW2 3940  12.517  13.314   5.898
34015SOL     OW 3941  13.516   4.919   1.821
34015SOL    HW1 3942  13.571   4.959   1.888
34015SOL    HW2 3943  13.428   4.953   1.839
34016SOL     OW 3944   4.986   1.529   8.927
34016SOL    HW1 3945   4.982   1.602   8.865
34016SOL    HW2 3946   4.895   1.503   8.939
34017SOL     OW 3947   4.823   2.017   1.249
34017SOL    HW1 3948   4.791   2.055   1.331
34017SOL    HW2 3949   4.917   2.001   1.265
34018SOL     OW 3950   5.379  13.694  12.588
34018SOL    HW1 3951   5.387  13.613  12.537
34018SOL    HW2 3952   5.324  13.751  12.533
34019SOL     OW 3953   4.957  11.342   4.200
34019SOL    HW1 3954   5.016  11.411   4.168
34019SOL    HW2 3955   4.875  11.358   4.152
34020SOL     OW 3956  11.975   5.585   8.535
34020SOL    HW1 3957  11.895   5.633   8.552
34020SOL    HW2 3958  11.948   5.512   8.479
34021SOL     OW 3959   9.523   3.377   3.002
34021SOL    HW1 3960   9.428   3.386   3.005
34021SOL    HW2 3961   9.537   3.292   2.960
34022SOL     OW 3962   7.915  13.461  10.278
34022SOL    HW1 3963   7.854  13.442  10.205
34022SOL    HW2 3964   7.929  13.555  10.273
34023SOL     OW 3965   2.963   5.380  11.422
34023SOL    HW1 3966   3.052   5.395  11.389
34023SOL    HW2 3967   2.929   5.310  11.367
34024SOL     OW 3968   0.159  11.279  13.511
34024SOL    HW1 3969   0.105  11.292  13.589
34024SOL    HW2 3970   0.245  11.312  13.536
34025SOL     OW 3971   1.659   8.705   9.245
34025SOL    HW1 3972   1.652   8.652   9.165
34025SOL    HW2 3973   1.599   8.664   9.307
34026SOL     OW 3974   2.562   1.972  11.710
34026SOL    HW1 3975   2.584   1.914  11.783
34026SOL    HW2 3976   2.602   1.930  11.634
34027SOL     OW 3977   9.001   4.808   5.156
34027SOL    HW1 3978   8.964   4.850   5.233
34027SOL    HW2 3979   9.033   4.881   5.102
34028SOL     OW 3980   7.827   9.294   4.592
34028SOL    HW1 3981   7.858   9.236   4.521
34028SOL    HW2 3982   7.851   9.248   4.672
34029SOL     OW 3983   9.869   9.841   6.763
34029SOL    HW1 3984   9.809   9.790   6.817
34029SOL    HW2 3985   9.928   9.776   6.724
34030SOL     OW 3986   3.797   0.838   2.093
34030SOL    HW1 3987   3.741   0.822   2.170
34030SOL    HW2 3988   3.738   0.832   2.019
34031SOL     OW 3989  11.896  13.905   5.685
34031SOL    HW1 3990  11.806  13.874   5.678
34031SOL    HW2 3991  11.949  13.825   5.686
34032SOL     OW 3992  12.018   5.870  12.501
34032SOL    HW1 3993  12.054   5.941  12.553
34032SOL    HW2 3994  12.089   5.845  12.442
34033SOL     OW 3995  10.279   8.137   9.113
34033SOL    HW1 3996  10.297   8.059   9.061
34033SOL    HW2 3997  10.188   8.128   9.139
34034SOL     OW 3998   0.180   4.637  14.416
34034SOL    HW1 3999   0.135   4.617  14.334
34034SOL    HW2 4000   0.119   4.693  14.464
34035SOL     OW 4001   5.653   8.348   8.903
34035SOL    HW1 4002   5.558   8.350   8.916
34035SOL    HW2 4003   5.672   8.427   8.853
34036SOL     OW 4004   1.444   7.081  14.370
34036SOL    HW1 4005   1.513   7.143  14.391
34036SOL    HW2 4006   1.432   7.090  14.275
34037SOL     OW 4007   8.294   2.346   8.822
34037SOL    HW1 4008   8.316   2.254   8.810
34037SOL    HW2 4009   8.243   2.348   8.903
34038SOL     OW 4010   4.661   5.554  11.646
34038SOL    HW1 4011   4.705   5.602  11.576
34038SOL    HW2 4012   4.597   5.615  11.682
34039SOL     OW 4013   8.744   1.396   7.480
34039SOL    HW1 4014   8.803   1.449   7.426
34039SOL    HW2 4015   8.802   1.337   7.529
34040SOL     OW 4016   7.137   1.256   4.853
34040SOL    HW1 4017   7.041   1.259   4.858
34040SOL    HW2 4018   7.164   1.348   4.852
34041SOL     OW 4019   4.905  14.546   5.938
34041SOL    HW1 4020   4.910  14.539   6.033
34041SOL    HW2 4021   4.931  14.460   5.906
34042SOL     OW 4022   3.031   7.680   4.340
34042SOL    HW1 4023   3.054   7.771   4.358
34042SOL    HW2 4024   3.088   7.630   4.399
34043SOL     OW 4025   9.230   9.657   9.260
34043SOL    HW1 4026   9.315   9.651   9.215
34043SOL    HW2 4027   9.166   9.663   9.188
34044SOL     OW 4028  11.507  14.084  12.532
34044SOL    HW1 4029  11.519  14.057  12.441
34044SOL    HW2 4030  11.590  14.064  12.574
34045SOL     OW 4031   5.677   1.957   1.740
34045SOL    HW1 4032   5.599   2.003   1.769
34045SOL    HW2 4033   5.748   1.993   1.793
34046SOL     OW 4034   6.722   2.354   5.716
34046SOL    HW1 4035   6.790   2.316   5.660
34046SOL    HW2 4036   6.728   2.305   5.798
34047SOL     OW 4037   9.928   3.477   3.300
34047SOL    HW1 4038   9.928   3.550   3.361
34047SOL    HW2 4039   9.846   3.486   3.251
34048SOL     OW 4040   9.519   2.786   7.020
34048SOL    HW1 4041   9.468   2.862   6.993
34048SOL    HW2 4042   9.487   2.766   7.108
34049SOL     OW 4043   5.666   3.238  13.171
34049SOL    HW1 4044   5.714   3.291  13.108
34049SOL    HW2 4045   5.676   3.284  13.254
34050SOL     OW 4046   0.711   2.514   2.865
34050SOL    HW1 4047   0.642   2.467   2.818
34050SOL    HW2 4048   0.775   2.447   2.887
34051SOL     OW 4049   5.239   2.954   8.626
34051SOL    HW1 4050   5.239   2.865   8.663
34051SOL    HW2 4051   5.178   3.003   8.681
34052SOL     OW 4052   5.838   6.750   2.200
34052SOL    HW1 4053   5.758   6.711   2.234
34052SOL    HW2 4054   5.908   6.691   2.228
34053SOL     OW 4055   6.557   2.421   3.817
34053SOL    HW1 4056   6.468   2.446   3.842
34053SOL    HW2 4057   6.568   2.333   3.852
34054SOL     OW 4058   1.552   8.921   9.661
34054SOL    HW1 4059   1.618   8.851   9.664
34054SOL    HW2 4060   1.580   8.976   9.587
34055SOL     OW 4061   8.282   4.490  13.410
34055SOL    HW1 4062   8.267   4.544  13.487
34055SOL    HW2 4063   8.282   4.551  13.336
34056SOL     OW 4064  14.858   0.499   1.489
34056SOL    HW1 4065  14.858   0.581   1.440
34056SOL    HW2 4066  14.802   0.517   1.565
34057SOL     OW 4067   5.155  11.329   4.568
34057SOL    HW1 4068   5.215  11.268   4.611
34057SOL    HW2 4069   5.115  11.378   4.640
34058SOL     OW 4070   4.618   5.364   2.461
34058SOL    HW1 4071   4.606   5.448   2.503
34058SOL    HW2 4072   4.550   5.361   2.393
34059SOL     OW 4073   0.006  14.114  14.355
34059SOL    HW1 4074   0.101  14.125  14.353
34059SOL    HW2 4075  14.863  14.019  14.359
34060SOL     OW 4076   0.500  13.684   7.197
34060SOL    HW1 4077   0.404  13.679   7.192
34060SOL    HW2 4078   0.524  13.750   7.132
34061SOL     OW 4079   9.549   9.300  14.358
34061SOL    HW1 4080   9.487   9.371  14.342
34061SOL    HW2 4081   9.562   9.261  14.272
34062SOL     OW 4082   8.587   8.881  12.341
34062SOL    HW1 4083   8.544   8.931  12.411
34062SOL    HW2 4084   8.602   8.945  12.272
34063SOL     OW 4085   7.776   7.755   7.723
34063SOL    HW1 4086   7.705   7.813   7.696
34063SOL    HW2 4087   7.740   7.667   7.716
34064SOL     OW 4088  13.949  14.452   4.170
34064SOL    HW1 4089  13.959  14.488   4.082
34064SOL    HW2 4090  13.949  14.357   4.157
34065SOL     OW 4091   3.249  12.338   4.431
34065SOL    HW1 4092   3.308  12.298   4.495
34065SOL    HW2 4093   3.303  12.400   4.383
34066SOL     OW 4094  10.053   3.289   7.736
34066SOL    HW1 4095  10.104   3.333   7.804
34066SOL    HW2 4096  10.001   3.224   7.784
34067SOL     OW 4097   5.874   9.179   8.853
34067SOL    HW1 4098   5.824   9.256   8.825
34067SOL    HW2 4099   5.941   9.167   8.786
34068SOL     OW 4100   3.596  13.034   5.146
34068SOL    HW1 4101   3.602  13.126   5.118
34068SOL    HW2 4102   3.549  12.990   5.076
34069SOL     OW 4103   0.805   7.772   1.150
34069SOL    HW1 4104   0.795   7.684   1.115
34069SOL    HW2 4105   0.784   7.830   1.077
34070SOL     OW 4106  11.494   6.512   6.811
34070SOL    HW1 4107  11.456   6.542   6.729
34070SOL    HW2 4108  11.435   6.443   6.841
34071SOL     OW 4109   5.740  13.417   6.562
34071SOL    HW1 4110   5.722  13.449   6.474
34071SOL    HW2 4111   5.675  13.461   6.617
34072SOL     OW 4112   2.566   9.394   4.400
34072SOL    HW1 4113   2.516   9.430   4.328
34072SOL    HW2 4114   2.537   9.302   4.406
34073SOL     OW 4115  13.127   5.136   9.958
34073SOL    HW1 4116  13.034   5.128   9.977
34073SOL    HW2 4117  13.149   5.225   9.985
34074SOL     OW 4118   0.151   3.652   5.256
34074SOL    HW1 4119   0.215   3.694   5.198
34074SOL    HW2 4120   0.115   3.581   5.203
34075SOL     OW 4121   0.998  10.510   7.702
34075SOL    HW1 4122   1.054  10.441   7.737
34075SOL    HW2 4123   0.946  10.539   7.778
34076SOL     OW 4124   5.458  14.152   3.904
34076SOL    HW1 4125   5.423  14.063   3.904
34076SOL    HW2 4126   5.486  14.167   3.995
34077SOL     OW 4127  13.310   4.661   5.641
34077SOL    HW1 4128  13.378   4.638   5.704
34077SOL    HW2 4129  13.272   4.742   5.676
34078SOL     OW 4130   4.625   3.350  14.605
34078SOL    HW1 4131   4.672   3.313  14.680
34078SOL    HW2 4132   4.694   3.374  14.543
34079SOL     OW 4133   4.596   8.644   4.960
34079SOL    HW1 4134   4.672   8.701   4.976
34079SOL    HW2 4135   4.539   8.658   5.035
34080SOL     OW 4136   1.085   1.708   6.485
34080SOL    HW1 4137   1.160   1.713   6.426
34080SOL    HW2 4138   1.009   1.704   6.428
34081SOL     OW 4139   8.640  13.688  12.301
34081SOL    HW1 4140   8.680  13.621  12.246
34081SOL    HW2 4141   8.546  13.677  12.288
34082SOL     OW 4142   8.391  11.125   6.412
34082SOL    HW1 4143   8.403  11.202   6.468
34082SOL    HW2 4144   8.332  11.068   6.462
34083SOL     OW 4145   7.355   6.294   1.472
34083SOL    HW1 4146   7.376   6.251   1.555
34083SOL    HW2 4147   7.427   6.268   1.414
34084SOL     OW 4148   5.713  14.457  11.677
34084SOL    HW1 4149   5.708  14.551  11.689
34084SOL    HW2 4150   5.754  14.424  11.757
34085SOL     OW 4151   4.851  11.850   1.602
34085SOL    HW1 4152   4.939  11.813   1.606
34085SOL    HW2 4153   4.794  11.777   1.628
34086SOL     OW 4154  11.958  12.597   7.509
34086SOL    HW1 4155  11.999  12.621   7.592
34086SOL    HW2 4156  11.903  12.672   7.487
34087SOL     OW 4157   8.783  14.768  14.399
34087SOL    HW1 4158   8.739  14.684  14.384
34087SOL    HW2 4159   8.855  14.768  14.335
34088SOL     OW 4160   9.316   9.754   2.497
34088SOL    HW1 4161   9.347   9.805   2.422
34088SOL    HW2 4162   9.367   9.673   2.493
34089SOL     OW 4163   0.738   3.597   8.040
34089SOL    HW1 4164   0.766   3.635   7.957
34089SOL    HW2 4165   0.793   3.519   8.050
34090SOL     OW 4166   7.483  12.090  10.350
34090SOL    HW1 4167   7.488  12.076  10.444
34090SOL    HW2 4168   7.505  12.183  10.338
34091SOL     OW 4169   9.276   4.277  10.156
34091SOL    HW1 4170   9.251   4.315  10.072
34091SOL    HW2 4171   9.193   4.263  10.201
34092SOL     OW 4172  10.382   5.042  11.206
34092SOL    HW1 4173  10.386   5.128  11.165
34092SOL    HW2 4174  10.290   5.032  11.232
34093SOL     OW 4175   7.328   4.341   6.311
34093SOL    HW1 4176   7.299   4.391   6.234
34093SOL    HW2 4177   7.408   4.297   6.282
34094SOL     OW 4178  14.856   5.777   3.526
34094SOL    HW1 4179   0.063   5.810   3.573
34094SOL    HW2 4180   0.023   5.725   3.454
34095SOL     OW 4181   9.325  10.717   5.754
34095SOL    HW1 4182   9.250  10.683   5.706
34095SOL    HW2 4183   9.396  10.655   5.735
34096SOL     OW 4184   0.427   2.152   4.822
34096SOL    HW1 4185   0.355   2.210   4.799
34096SOL    HW2 4186   0.407   2.070   4.776
34097SOL     OW 4187   3.173   4.136  11.967
34097SOL    HW1 4188   3.079   4.151  11.974
34097SOL    HW2 4189   3.201   4.116  12.056
34098SOL     OW 4190  12.601  10.790   1.002
34098SOL    HW1 4191  12.691  10.808   1.028
34098SOL    HW2 4192  12.589  10.697   1.020
34099SOL     OW 4193  13.596   3.885   3.235
34099SOL    HW1 4194  13.529   3.952   3.218
34099SOL    HW2 4195  13.560   3.805   3.196
34100SOL     OW 4196  13.063  10.024   2.840
34100SOL    HW1 4197  13.120   9.954   2.871
34100SOL    HW2 4198  12.998   9.980   2.785
34101SOL     OW 4199  10.142  13.508   7.230
34101SOL    HW1 4200  10.067  13.472   7.277
34101SOL    HW2 4201  10.174  13.435   7.176
34102SOL     OW 4202   3.280   1.667   6.276
34102SOL    HW1 4203   3.238   1.720   6.344
34102SOL    HW2 4204   3.370   1.656   6.307
34103SOL     OW 4205   7.866  10.308  10.623
34103SOL    HW1 4206   7.820  10.308  10.538
34103SOL    HW2 4207   7.816  10.246  10.677
34104SOL     OW 4208   5.963   0.741   6.111
34104SOL    HW1 4209   5.984   0.730   6.018
34104SOL    HW2 4210   5.907   0.818   6.114
34105SOL     OW 4211  14.612  11.843  12.863
34105SOL    HW1 4212  14.662  11.872  12.939
34105SOL    HW2 4213  14.598  11.922  12.811
34106SOL     OW 4214   2.967   8.492   7.677
34106SOL    HW1 4215   3.029   8.509   7.749
34106SOL    HW2 4216   3.001   8.544   7.604
34107SOL     OW 4217   6.413   7.207   8.483
34107SOL    HW1 4218   6.321   7.206   8.510
34107SOL    HW2 4219   6.425   7.126   8.434
34108SOL     OW 4220   2.625   3.821   1.495
34108SOL    HW1 4221   2.623   3.916   1.495
34108SOL    HW2 4222   2.615   3.796   1.403
34109SOL     OW 4223   5.910   9.845   0.598
34109SOL    HW1 4224   5.940   9.932   0.572
34109SOL    HW2 4225   5.849   9.862   0.670
34110SOL     OW 4226   6.346   8.535   1.024
34110SOL    HW1 4227   6.351   8.628   1.002
34110SOL    HW2 4228   6.425   8.518   1.076
34111SOL     OW 4229  12.918   4.504  11.028
34111SOL    HW1 4230  12.949   4.504  10.938
34111SOL    HW2 4231  12.982   4.450  11.075
34112SOL     OW 4232  10.609   0.470   0.091
34112SOL    HW1 4233  10.519   0.447   0.068
34112SOL    HW2 4234  10.658   0.388   0.081
34113SOL     OW 4235   5.928  10.624   9.144
34113SOL    HW1 4236   5.980  10.550   9.178
34113SOL    HW2 4237   5.987  10.699   9.149
34114SOL     OW 4238  13.851  14.119   2.084
34114SOL    HW1 4239  13.857  14.064   2.006
34114SOL    HW2 4240  13.820  14.060   2.153
34115SOL     OW 4241  11.842   7.808   0.732
34115SOL    HW1 4242  11.870   7.788   0.642
34115SOL    HW2 4243  11.775   7.875   0.721
34116SOL     OW 4244  11.677   0.639  14.747
34116SOL    HW1 4245  11.641   0.556  14.717
34116SOL    HW2 4246  11.721   0.618  14.829
34117SOL     OW 4247  11.372  12.412   8.029
34117SOL    HW1 4248  11.321  12.368   7.961
34117SOL    HW2 4249  11.391  12.499   7.993
34118SOL     OW 4250   4.919   7.121   0.504
34118SOL    HW1 4251   4.970   7.130   0.423
34118SOL    HW2 4252   4.859   7.195   0.502
34119SOL     OW 4253  13.862   6.310   6.886
34119SOL    HW1 4254  13.950   6.303   6.924
34119SOL    HW2 4255  13.862   6.395   6.841
34120SOL     OW 4256   9.306   0.162   8.937
34120SOL    HW1 4257   9.227   0.109   8.945
34120SOL    HW2 4258   9.313   0.182   8.844
34121SOL     OW 4259   2.360   2.826   8.805
34121SOL    HW1 4260   2.390   2.854   8.718
34121SOL    HW2 4261   2.293   2.760   8.787
34122SOL     OW 4262   4.097  13.860   9.965
34122SOL    HW1 4263   4.022  13.821  10.010
34122SOL    HW2 4264   4.067  13.873   9.875
34123SOL     OW 4265   3.122   0.843   5.422
34123SOL    HW1 4266   3.095   0.829   5.513
34123SOL    HW2 4267   3.215   0.821   5.421
34124SOL     OW 4268  13.457   3.317   2.731
34124SOL    HW1 4269  13.460   3.304   2.826
34124SOL    HW2 4270  13.400   3.393   2.718
34125SOL     OW 4271   5.006  13.454  11.515
34125SOL    HW1 4272   4.910  13.450  11.516
34125SOL    HW2 4273   5.029  13.453  11.423
34126SOL     OW 4274   1.093   6.972   0.989
34126SOL    HW1 4275   1.021   6.983   1.051
34126SOL    HW2 4276   1.056   6.916   0.920
34127SOL     OW 4277   4.985   0.456  14.088
34127SOL    HW1 4278   4.960   0.547  14.073
34127SOL    HW2 4279   5.063   0.461  14.142
34128SOL     OW 4280   8.061   3.958  11.032
34128SOL    HW1 4281   7.994   4.005  10.983
34128SOL    HW2 4282   8.065   4.003  11.117
34129SOL     OW 4283  14.166  10.590   0.751
34129SOL    HW1 4284  14.094  10.556   0.804
34129SOL    HW2 4285  14.213  10.648   0.810
34130SOL     OW 4286   2.578   4.344   7.499
34130SOL    HW1 4287   2.617   4.263   7.531
34130SOL    HW2 4288   2.596   4.409   7.567
34131SOL     OW 4289   6.016   2.035   4.141
34131SOL    HW1 4290   6.100   2.069   4.174
34131SOL    HW2 4291   5.981   1.985   4.214
34132SOL     OW 4292  13.348  13.415   6.619
34132SOL    HW1 4293  13.376  13.355   6.688
34132SOL    HW2 4294  13.257  13.390   6.601
34133SOL     OW 4295  13.079   8.867  11.077
34133SOL    HW1 4296  13.029   8.926  11.133
34133SOL    HW2 4297  13.085   8.913  10.994
34134SOL     OW 4298  14.057   8.742   0.530
34134SOL    HW1 4299  14.048   8.651   0.501
34134SOL    HW2 4300  14.100   8.735   0.615
34135SOL     OW 4301   2.850  13.899   7.556
34135SOL    HW1 4302   2.784  13.836   7.587
34135SOL    HW2 4303   2.860  13.961   7.628
34136SOL     OW 4304  12.359   0.205   7.302
34136SOL    HW1 4305  12.445   0.170   7.276
34136SOL    HW2 4306  12.351   0.286   7.251
34137SOL     OW 4307  10.213   1.759  12.894
34137SOL    HW1 4308  10.180   1.827  12.834
34137SOL    HW2 4309  10.298   1.734  12.857
34138SOL     OW 4310   2.392   7.416   6.765
34138SOL    HW1 4311   2.396   7.359   6.689
34138SOL    HW2 4312   2.387   7.356   6.840
34139SOL     OW 4313  13.358   2.259  12.786
34139SOL    HW1 4314  13.297   2.265  12.713
34139SOL    HW2 4315  13.433   2.313  12.759
34140SOL     OW 4316   5.227   3.191  11.692
34140SOL    HW1 4317   5.173   3.155  11.621
34140SOL    HW2 4318   5.316   3.163  11.670
34141SOL     OW 4319   7.132  11.318   9.925
34141SOL    HW1 4320   7.048  11.352   9.956
34141SOL    HW2 4321   7.191  11.330   9.999
34142SOL     OW 4322   0.878   3.474  11.359
34142SOL    HW1 4323   0.865   3.523  11.277
34142SOL    HW2 4324   0.858   3.537  11.428
34143SOL     OW 4325   0.674  10.646  10.126
34143SOL    HW1 4326   0.583  10.616  10.114
34143SOL    HW2 4327   0.699  10.678  10.039
34144SOL     OW 4328   3.087  11.084   8.602
34144SOL    HW1 4329   3.073  11.054   8.513
34144SOL    HW2 4330   3.182  11.087   8.612
34145SOL     OW 4331  13.063   5.716  13.587
34145SOL    HW1 4332  13.078   5.803  13.625
34145SOL    HW2 4333  13.104   5.721  13.501
34146SOL     OW 4334   0.340  10.461   0.767
34146SOL    HW1 4335   0.411  10.406   0.735
34146SOL    HW2 4336   0.269  10.448   0.704
34147SOL     OW 4337   5.914   1.859   8.703
34147SOL    HW1 4338   5.989   1.807   8.732
34147SOL    HW2 4339   5.920   1.858   8.607
34148SOL     OW 4340   1.803  10.390   3.446
34148SOL    HW1 4341   1.810  10.419   3.355
34148SOL    HW2 4342   1.853  10.455   3.495
34149SOL     OW 4343   3.358   0.656   1.455
34149SOL    HW1 4344   3.271   0.671   1.491
34149SOL    HW2 4345   3.408   0.733   1.481
34150SOL     OW 4346  12.063  11.892   6.491
34150SOL    HW1 4347  12.059  11.988   6.486
34150SOL    HW2 4348  12.101  11.866   6.407
34151SOL     OW 4349  13.793  11.623   2.939
34151SOL    HW1 4350  13.777  11.551   3.001
34151SOL    HW2 4351  13.705  11.654   2.917
34152SOL     OW 4352   5.522   8.331  12.412
34152SOL    HW1 4353   5.449   8.272  12.394
34152SOL    HW2 4354   5.542   8.317  12.505
34153SOL     OW 4355  10.506  13.660   6.978
34153SOL    HW1 4356  10.448  13.654   7.054
34153SOL    HW2 4357  10.587  13.696   7.013
34154SOL     OW 4358   2.255   8.379   4.400
34154SOL    HW1 4359   2.187   8.444   4.382
34154SOL    HW2 4360   2.250   8.365   4.494
34155SOL     OW 4361  12.113   3.686  11.481
34155SOL    HW1 4362  12.159   3.610  11.445
34155SOL    HW2 4363  12.079   3.732  11.404
34156SOL     OW 4364   2.675   3.958   1.811
34156SOL    HW1 4365   2.656   3.995   1.897
34156SOL    HW2 4366   2.720   3.876   1.831
34157SOL     OW 4367   6.385  13.661   9.835
34157SOL    HW1 4368   6.343  13.729   9.783
34157SOL    HW2 4369   6.478  13.669   9.814
34158SOL     OW 4370   0.277  13.583  10.549
34158SOL    HW1 4371   0.329  13.609  10.473
34158SOL    HW2 4372   0.324  13.621  10.624
34159SOL     OW 4373  14.683   9.191   2.349
34159SOL    HW1 4374  14.654   9.149   2.268
34159SOL    HW2 4375  14.706   9.280   2.323
34160SOL     OW 4376  14.332  11.997   0.611
34160SOL    HW1 4377  14.272  11.998   0.686
34160SOL    HW2 4378  14.284  12.041   0.541
34161SOL     OW 4379   5.931   0.886   6.842
34161SOL    HW1 4380   5.965   0.798   6.828
34161SOL    HW2 4381   5.886   0.881   6.927
34162SOL     OW 4382   8.986   3.792  13.163
34162SOL    HW1 4383   9.055   3.817  13.224
34162SOL    HW2 4384   8.923   3.744  13.217
34163SOL     OW 4385  12.014   7.045   7.664
34163SOL    HW1 4386  12.007   6.998   7.747
34163SOL    HW2 4387  12.040   6.978   7.601
34164SOL     OW 4388  11.375  11.309   6.486
34164SOL    HW1 4389  11.341  11.249   6.553
34164SOL    HW2 4390  11.351  11.269   6.403
34165SOL     OW 4391  12.383   0.511   7.826
34165SOL    HW1 4392  12.357   0.477   7.740
34165SOL    HW2 4393  12.474   0.538   7.816
34166SOL     OW 4394   5.727   8.494  11.412
34166SOL    HW1 4395   5.669   8.562  11.448
34166SOL    HW2 4396   5.670   8.418  11.401
34167SOL     OW 4397  14.678   6.729   9.974
34167SOL    HW1 4398  14.667   6.755   9.882
34167SOL    HW2 4399  14.678   6.812  10.022
34168SOL     OW 4400   8.776   0.336   2.318
34168SOL    HW1 4401   8.738   0.380   2.394
34168SOL    HW2 4402   8.715   0.352   2.247
34169SOL     OW 4403   2.830   9.524  13.267
34169SOL    HW1 4404   2.831   9.614  13.300
34169SOL    HW2 4405   2.894   9.478  13.322
34170SOL     OW 4406   3.164  10.889   9.154
34170SOL    HW1 4407   3.129  10.811   9.112
34170SOL    HW2 4408   3.134  10.961   9.098
34171SOL     OW 4409   7.789   1.821   4.336
34171SOL    HW1 4410   7.758   1.870   4.412
34171SOL    HW2 4411   7.836   1.747   4.373
34172SOL     OW 4412   3.148  12.320   9.392
34172SOL    HW1 4413   3.239  12.308   9.364
34172SOL    HW2 4414   3.154  12.379   9.468
34173SOL     OW 4415   9.286   5.249   5.463
34173SOL    HW1 4416   9.220   5.180   5.453
34173SOL    HW2 4417   9.351   5.229   5.395
34174SOL     OW 4418   6.162   2.378   4.834
34174SOL    HW1 4419   6.220   2.419   4.898
34174SOL    HW2 4420   6.193   2.287   4.828
34175SOL     OW 4421  10.312   9.669   8.016
34175SOL    HW1 4422  10.315   9.584   8.060
34175SOL    HW2 4423  10.254   9.722   8.071
34176SOL     OW 4424  13.891   0.456   3.320
34176SOL    HW1 4425  13.878   0.410   3.237
34176SOL    HW2 4426  13.951   0.527   3.299
34177SOL     OW 4427  11.080   3.424   7.108
34177SOL    HW1 4428  11.021   3.409   7.034
34177SOL    HW2 4429  11.022   3.433   7.184
34178SOL     OW 4430   8.017   5.938  11.491
34178SOL    HW1 4431   7.933   5.939  11.536
34178SOL    HW2 4432   8.080   5.965  11.557
34179SOL     OW 4433   9.166   2.543  10.312
34179SOL    HW1 4434   9.180   2.591  10.394
34179SOL    HW2 4435   9.126   2.607  10.253
34180SOL     OW 4436   8.622   9.232  10.952
34180SOL    HW1 4437   8.572   9.307  10.922
34180SOL    HW2 4438   8.707   9.241  10.907
34181SOL     OW 4439   0.158   4.999   6.087
34181SOL    HW1 4440   0.214   4.947   6.145
34181SOL    HW2 4441   0.155   4.950   6.005
34182SOL     OW 4442  12.552  13.826   9.900
34182SOL    HW1 4443  12.490  13.898   9.898
34182SOL    HW2 4444  12.571  13.813   9.993
34183SOL     OW 4445  14.694   6.868   8.745
34183SOL    HW1 4446  14.660   6.810   8.813
34183SOL    HW2 4447  14.766   6.819   8.705
34184SOL     OW 4448  14.679  10.028   5.287
34184SOL    HW1 4449  14.622   9.968   5.335
34184SOL    HW2 4450  14.658  10.115   5.322
34185SOL     OW 4451   5.313   8.566  13.154
34185SOL    HW1 4452   5.376   8.638  13.158
34185SOL    HW2 4453   5.246   8.590  13.218
34186SOL     OW 4454   2.428   1.325  14.637
34186SOL    HW1 4455   2.452   1.355  14.725
34186SOL    HW2 4456   2.337   1.350  14.627
34187SOL     OW 4457   9.736   8.870   0.567
34187SOL    HW1 4458   9.749   8.917   0.485
34187SOL    HW2 4459   9.789   8.791   0.558
34188SOL     OW 4460   9.344   8.171   7.172
34188SOL    HW1 4461   9.436   8.198   7.176
34188SOL    HW2 4462   9.313   8.202   7.087
34189SOL     OW 4463  14.221   2.523   9.380
34189SOL    HW1 4464  14.199   2.432   9.360
34189SOL    HW2 4465  14.176   2.574   9.313
34190SOL     OW 4466   1.520  12.425   1.685
34190SOL    HW1 4467   1.597  12.468   1.723
34190SOL    HW2 4468   1.512  12.343   1.735
34191SOL     OW 4469   6.246   0.995   1.161
34191SOL    HW1 4470   6.304   0.984   1.085
34191SOL    HW2 4471   6.206   1.081   1.148
34192SOL     OW 4472  11.035   0.586   4.126
34192SOL    HW1 4473  11.105   0.651   4.132
34192SOL    HW2 4474  11.030   0.547   4.213
34193SOL     OW 4475  11.344   2.661   3.708
34193SOL    HW1 4476  11.371   2.753   3.698
34193SOL    HW2 4477  11.256   2.658   3.671
34194SOL     OW 4478   2.075   6.970   2.388
34194SOL    HW1 4479   2.132   6.896   2.371
34194SOL    HW2 4480   2.009   6.937   2.449
34195SOL     OW 4481   4.064   9.018   2.457
34195SOL    HW1 4482   4.116   9.040   2.535
34195SOL    HW2 4483   3.973   9.027   2.485
34196SOL     OW 4484   2.125  10.443  10.672
34196SOL    HW1 4485   2.049  10.393  10.641
34196SOL    HW2 4486   2.129  10.519  10.614
34197SOL     OW 4487  13.324   7.046  11.996
34197SOL    HW1 4488  13.257   6.998  12.043
34197SOL    HW2 4489  13.395   7.058  12.061
34198SOL     OW 4490   2.696  11.405  11.442
34198SOL    HW1 4491   2.687  11.311  11.459
34198SOL    HW2 4492   2.789  11.423  11.455
34199SOL     OW 4493  14.420   9.843  12.516
34199SOL    HW1 4494  14.390   9.824  12.605
34199SOL    HW2 4495  14.511   9.813  12.514
34200SOL     OW 4496   8.087   4.260   6.986
34200SOL    HW1 4497   8.094   4.208   7.066
34200SOL    HW2 4498   8.156   4.326   6.994
34201SOL     OW 4499   7.341  10.861   9.994
34201SOL    HW1 4500   7.302  10.949   9.997
34201SOL    HW2 4501   7.276  10.805  10.035
34202SOL     OW 4502   0.994   3.472   7.774
34202SOL    HW1 4503   1.033   3.512   7.852
34202SOL    HW2 4504   0.916   3.524   7.756
34203SOL     OW 4505  14.721  12.231   4.158
34203SOL    HW1 4506  14.775  12.216   4.081
34203SOL    HW2 4507  14.724  12.326   4.171
34204SOL     OW 4508   7.995  13.406   7.324
34204SOL    HW1 4509   7.996  13.452   7.240
34204SOL    HW2 4510   7.921  13.445   7.372
34205SOL     OW 4511   0.869  13.805  13.366
34205SOL    HW1 4512   0.894  13.801  13.274
34205SOL    HW2 4513   0.776  13.830  13.365
34206SOL     OW 4514   6.297  12.746  10.378
34206SOL    HW1 4515   6.362  12.701  10.431
34206SOL    HW2 4516   6.258  12.811  10.437
34207SOL     OW 4517  10.155  13.024   2.042
34207SOL    HW1 4518  10.141  13.094   1.978
34207SOL    HW2 4519  10.068  13.006   2.078
34208SOL     OW 4520   4.433   2.704   6.837
34208SOL    HW1 4521   4.500   2.652   6.882
34208SOL    HW2 4522   4.382   2.744   6.908
34209SOL     OW 4523   3.297   9.665   4.794
34209SOL    HW1 4524   3.349   9.738   4.759
34209SOL    HW2 4525   3.206   9.692   4.783
34210SOL     OW 4526   5.879  11.936  11.113
34210SOL    HW1 4527   5.816  12.007  11.101
34210SOL    HW2 4528   5.917  11.922  11.027
34211SOL     OW 4529  12.903  13.674   8.710
34211SOL    HW1 4530  12.881  13.763   8.683
34211SOL    HW2 4531  12.951  13.686   8.792
34212SOL     OW 4532   5.605   5.800  10.470
34212SOL    HW1 4533   5.603   5.869  10.537
34212SOL    HW2 4534   5.571   5.843  10.391
34213SOL     OW 4535   9.509   4.561   9.024
34213SOL    HW1 4536   9.520   4.646   9.068
34213SOL    HW2 4537   9.595   4.542   8.987
34214SOL     OW 4538   8.088   1.303   8.950
34214SOL    HW1 4539   8.107   1.330   9.040
34214SOL    HW2 4540   8.122   1.373   8.896
34215SOL     OW 4541   4.274  14.592   6.919
34215SOL    HW1 4542   4.346  14.643   6.882
34215SOL    HW2 4543   4.292  14.591   7.013
34216SOL     OW 4544   4.392  10.225   9.195
34216SOL    HW1 4545   4.474  10.266   9.168
34216SOL    HW2 4546   4.359  10.181   9.116
34217SOL     OW 4547   5.757   9.100   6.727
34217SOL    HW1 4548   5.662   9.099   6.712
34217SOL    HW2 4549   5.770   9.044   6.803
34218SOL     OW 4550   6.225  12.217  12.784
34218SOL    HW1 4551   6.285  12.156  12.827
34218SOL    HW2 4552   6.254  12.221  12.693
34219SOL     OW 4553   3.892  10.788   5.421
34219SOL    HW1 4554   3.870  10.806   5.330
34219SOL    HW2 4555   3.985  10.769   5.421
34220SOL     OW 4556   9.278   2.435   7.526
34220SOL    HW1 4557   9.282   2.441   7.430
34220SOL    HW2 4558   9.205   2.492   7.550
34221SOL     OW 4559  14.725   6.977   1.003
34221SOL    HW1 4560  14.719   7.072   1.018
34221SOL    HW2 4561  14.637   6.945   1.020
34222SOL     OW 4562   8.499  13.838  10.257
34222SOL    HW1 4563   8.548  13.871  10.332
34222SOL    HW2 4564   8.501  13.909  10.193
34223SOL     OW 4565   2.846   8.750   3.269
34223SOL    HW1 4566   2.754   8.772   3.257
34223SOL    HW2 4567   2.881   8.819   3.325
34224SOL     OW 4568   7.730   9.487   6.665
34224SOL    HW1 4569   7.696   9.575   6.648
34224SOL    HW2 4570   7.675   9.453   6.736
34225SOL     OW 4571   2.629   2.708   3.681
34225SOL    HW1 4572   2.710   2.655   3.679
34225SOL    HW2 4573   2.656   2.792   3.717
34226SOL     OW 4574  13.035   5.254   7.559
34226SOL    HW1 4575  13.082   5.192   7.616
34226SOL    HW2 4576  13.035   5.211   7.474
34227SOL     OW 4577   5.868  13.952  11.030
34227SOL    HW1 4578   5.860  13.979  11.122
34227SOL    HW2 4579   5.778  13.936  11.002
34228SOL     OW 4580   7.360   5.156   9.471
34228SOL    HW1 4581   7.320   5.222   9.528
34228SOL    HW2 4582   7.286   5.116   9.425
34229SOL     OW 4583  10.993   3.927   5.193
34229SOL    HW1 4584  11.026   4.007   5.152
34229SOL    HW2 4585  10.995   3.946   5.287
34230SOL     OW 4586   0.826  10.932   4.358
34230SOL    HW1 4587   0.820  10.840   4.384
34230SOL    HW2 4588   0.755  10.944   4.296
34231SOL     OW 4589  10.529   1.892   1.840
34231SOL    HW1 4590  10.546   1.904   1.933
34231SOL    HW2 4591  10.443   1.849   1.837
34232SOL     OW 4592   4.677  12.494  12.364
34232SOL    HW1 4593   4.645  12.486  12.274
34232SOL    HW2 4594   4.749  12.557  12.358
34233SOL     OW 4595   2.965   4.448   8.741
34233SOL    HW1 4596   3.046   4.497   8.752
34233SOL    HW2 4597   2.994   4.359   8.721
34234SOL     OW 4598  10.192   5.815  14.206
34234SOL    HW1 4599  10.201   5.897  14.158
34234SOL    HW2 4600  10.105   5.783  14.182
34235SOL     OW 4601   0.687   4.109  14.706
34235SOL    HW1 4602   0.678   4.133  14.613
34235SOL    HW2 4603   0.603   4.071  14.729
34236SOL     OW 4604   1.614  11.537   2.697
34236SOL    HW1 4605   1.607  11.568   2.788
34236SOL    HW2 4606   1.618  11.441   2.705
34237SOL     OW 4607   7.574   6.193  10.031
34237SOL    HW1 4608   7.656   6.223  10.071
34237SOL    HW2 4609   7.506   6.223  10.090
34238SOL     OW 4610   0.063   3.444   8.742
34238SOL    HW1 4611   0.142   3.403   8.778
34238SOL    HW2 4612   0.076   3.538   8.757
34239SOL     OW 4613  12.390   0.335   1.409
34239SOL    HW1 4614  12.427   0.248   1.395
34239SOL    HW2 4615  12.390   0.375   1.322
34240SOL     OW 4616  13.466   2.523   6.076
34240SOL    HW1 4617  13.466   2.566   6.162
34240SOL    HW2 4618  13.555   2.535   6.043
34241SOL     OW 4619   2.013   9.500   6.207
34241SOL    HW1 4620   1.958   9.435   6.251
34241SOL    HW2 4621   2.031   9.566   6.274
34242SOL     OW 4622   4.227   9.334   5.334
34242SOL    HW1 4623   4.246   9.323   5.427
34242SOL    HW2 4624   4.164   9.265   5.313
34243SOL     OW 4625  12.518   5.677   1.553
34243SOL    HW1 4626  12.444   5.733   1.529
34243SOL    HW2 4627  12.515   5.605   1.491
34244SOL     OW 4628   3.990  11.748   8.632
34244SOL    HW1 4629   3.927  11.676   8.641
34244SOL    HW2 4630   3.994  11.763   8.537
34245SOL     OW 4631   8.044  10.384   0.266
34245SOL    HW1 4632   8.123  10.437   0.255
34245SOL    HW2 4633   8.059  10.334   0.346
34246SOL     OW 4634   1.534   0.381   5.570
34246SOL    HW1 4635   1.491   0.456   5.610
34246SOL    HW2 4636   1.544   0.318   5.641
34247SOL     OW 4637   3.051   1.751  10.192
34247SOL    HW1 4638   3.017   1.663  10.176
34247SOL    HW2 4639   3.030   1.768  10.284
34248SOL     OW 4640   2.642   7.345   1.197
34248SOL    HW1 4641   2.568   7.372   1.144
34248SOL    HW2 4642   2.717   7.391   1.159
34249SOL     OW 4643  13.221   0.606   2.758
34249SOL    HW1 4644  13.245   0.667   2.828
34249SOL    HW2 4645  13.141   0.564   2.789
34250SOL     OW 4646  10.538   8.240   1.399
34250SOL    HW1 4647  10.592   8.174   1.442
34250SOL    HW2 4648  10.514   8.301   1.468
34251SOL     OW 4649  12.387  11.683  12.097
34251SOL    HW1 4650  12.316  11.728  12.052
34251SOL    HW2 4651  12.443  11.648  12.027
34252SOL     OW 4652   6.095  13.962   9.032
34252SOL    HW1 4653   6.125  13.872   9.044
34252SOL    HW2 4654   6.108  13.978   8.938
34253SOL     OW 4655   3.709   4.149   6.443
34253SOL    HW1 4656   3.668   4.143   6.357
34253SOL    HW2 4657   3.803   4.143   6.426
34254SOL     OW 4658   5.672  14.044   1.499
34254SOL    HW1 4659   5.674  13.964   1.552
34254SOL    HW2 4660   5.579  14.065   1.490
34255SOL     OW 4661   6.170   9.064  14.741
34255SOL    HW1 4662   6.157   9.133  14.806
34255SOL    HW2 4663   6.130   9.098  14.661
34256SOL     OW 4664  12.666   3.113   0.643
34256SOL    HW1 4665  12.600   3.172   0.679
34256SOL    HW2 4666  12.742   3.122   0.700
34257SOL     OW 4667  12.409   2.369   3.760
34257SOL    HW1 4668  12.316   2.393   3.755
34257SOL    HW2 4669  12.451   2.443   3.804
34258SOL     OW 4670   7.943   5.063   3.669
34258SOL    HW1 4671   7.927   5.148   3.709
34258SOL    HW2 4672   8.010   5.022   3.723
34259SOL     OW 4673   5.762  10.268   2.168
34259SOL    HW1 4674   5.776  10.190   2.114
34259SOL    HW2 4675   5.800  10.245   2.253
34260SOL     OW 4676  13.972  10.694  13.327
34260SOL    HW1 4677  13.934  10.621  13.375
34260SOL    HW2 4678  14.066  10.684  13.338
34261SOL     OW 4679   3.657  14.453   9.129
34261SOL    HW1 4680   3.571  14.430   9.162
34261SOL    HW2 4681   3.693  14.371   9.094
34262SOL     OW 4682   4.903   9.381   4.109
34262SOL    HW1 4683   4.828   9.400   4.166
34262SOL    HW2 4684   4.869   9.395   4.021
34263SOL     OW 4685  13.833   6.367   8.899
34263SOL    HW1 4686  13.790   6.422   8.834
34263SOL    HW2 4687  13.919   6.348   8.861
34264SOL     OW 4688   4.352   9.543  12.070
34264SOL    HW1 4689   4.344   9.471  12.008
34264SOL    HW2 4690   4.437   9.583  12.049
34265SOL     OW 4691  11.525   4.141   7.574
34265SOL    HW1 4692  11.445   4.138   7.521
34265SOL    HW2 4693  11.529   4.232   7.606
34266SOL     OW 4694  14.532  10.822  10.368
34266SOL    HW1 4695  14.558  10.830  10.460
34266SOL    HW2 4696  14.528  10.912  10.337
34267SOL     OW 4697   4.955   2.072   9.593
34267SOL    HW1 4698   4.964   1.977   9.584
34267SOL    HW2 4699   4.940   2.085   9.687
34268SOL     OW 4700  11.292   9.495   3.654
34268SOL    HW1 4701  11.362   9.516   3.593
34268SOL    HW2 4702  11.213   9.491   3.600
34269SOL     OW 4703   6.842  14.575   7.582
34269SOL    HW1 4704   6.929  14.615   7.575
34269SOL    HW2 4705   6.859  14.489   7.621
34270SOL     OW 4706   4.822   7.775   1.556
34270SOL    HW1 4707   4.894   7.810   1.609
34270SOL    HW2 4708   4.752   7.840   1.566
34271SOL     OW 4709  13.405   9.774  10.985
34271SOL    HW1 4710  13.385   9.848  10.928
34271SOL    HW2 4711  13.393   9.697  10.929
34272SOL     OW 4712  14.331  12.504  10.089
34272SOL    HW1 4713  14.242  12.536  10.107
34272SOL    HW2 4714  14.318  12.434  10.025
34273SOL     OW 4715   3.803   0.209   9.593
34273SOL    HW1 4716   3.885   0.182   9.551
34273SOL    HW2 4717   3.735   0.178   9.534
34274SOL     OW 4718   9.177  12.278   7.988
34274SOL    HW1 4719   9.269  12.297   8.009
34274SOL    HW2 4720   9.154  12.342   7.921
34275SOL     OW 4721   8.255  10.922  14.711
34275SOL    HW1 4722   8.189  10.898  14.776
34275SOL    HW2 4723   8.339  10.898  14.752
34276SOL     OW 4724   3.125  10.280   0.461
34276SOL    HW1 4725   3.146  10.325   0.379
34276SOL    HW2 4726   3.030  10.269   0.458
34277SOL     OW 4727   0.302   2.107   0.437
34277SOL    HW1 4728   0.274   2.194   0.409
34277SOL    HW2 4729   0.349   2.072   0.361
34278SOL     OW 4730   2.016   5.426  14.198
34278SOL    HW1 4731   2.067   5.350  14.171
34278SOL    HW2 4732   1.925   5.398  14.190
34279SOL     OW 4733   0.884  11.807  14.675
34279SOL    HW1 4734   0.903  11.717  14.650
34279SOL    HW2 4735   0.949  11.859  14.628
34280SOL     OW 4736  13.301  12.548  12.437
34280SOL    HW1 4737  13.302  12.584  12.526
34280SOL    HW2 4738  13.224  12.491  12.435
34281SOL     OW 4739   7.487  12.019   8.132
34281SOL    HW1 4740   7.529  11.988   8.212
34281SOL    HW2 4741   7.467  11.939   8.083
34282SOL     OW 4742  13.983   6.542   7.067
34282SOL    HW1 4743  14.038   6.532   6.989
34282SOL    HW2 4744  14.005   6.465   7.121
34283SOL     OW 4745  10.199   1.393   9.804
34283SOL    HW1 4746  10.185   1.476   9.850
34283SOL    HW2 4747  10.294   1.380   9.804
34284SOL     OW 4748   7.032  11.166  12.905
34284SOL    HW1 4749   7.055  11.251  12.870
34284SOL    HW2 4750   6.982  11.123  12.835
34285SOL     OW 4751   4.748   2.145   5.278
34285SOL    HW1 4752   4.744   2.085   5.203
34285SOL    HW2 4753   4.842   2.161   5.290
34286SOL     OW 4754  12.342  11.840  13.990
34286SOL    HW1 4755  12.430  11.864  14.017
34286SOL    HW2 4756  12.303  11.921  13.957
34287SOL     OW 4757   1.351  11.775   3.418
34287SOL    HW1 4758   1.406  11.705   3.453
34287SOL    HW2 4759   1.398  11.856   3.442
34288SOL     OW 4760   2.327  10.606   9.946
34288SOL    HW1 4761   2.232  10.611   9.958
34288SOL    HW2 4762   2.350  10.686   9.899
34289SOL     OW 4763   5.001   2.735  11.245
34289SOL    HW1 4764   5.008   2.829  11.229
34289SOL    HW2 4765   4.917   2.710  11.208
34290SOL     OW 4766   8.324   4.969   7.225
34290SOL    HW1 4767   8.397   4.992   7.281
34290SOL    HW2 4768   8.364   4.929   7.148
34291SOL     OW 4769   6.159   7.145   8.526
34291SOL    HW1 4770   6.175   7.080   8.457
34291SOL    HW2 4771   6.067   7.132   8.550
34292SOL     OW 4772   0.645   0.482  12.277
34292SOL    HW1 4773   0.620   0.393  12.253
34292SOL    HW2 4774   0.637   0.485  12.372
34293SOL     OW 4775  13.919  14.606  10.168
34293SOL    HW1 4776  14.009  14.627  10.192
34293SOL    HW2 4777  13.866  14.662  10.224
34294SOL     OW 4778   2.729  13.626   3.800
34294SOL    HW1 4779   2.788  13.593   3.732
34294SOL    HW2 4780   2.643  13.589   3.778
34295SOL     OW 4781   4.208   9.982   3.273
34295SOL    HW1 4782   4.211  10.069   3.311
34295SOL    HW2 4783   4.294   9.969   3.234
34296SOL     OW 4784   2.014   4.303  14.866
34296SOL    HW1 4785   2.031   4.232   0.058
34296SOL    HW2 4786   1.926   4.333   0.019
34297SOL     OW 4787   1.586   4.665  13.225
34297SOL    HW1 4788   1.557   4.756  13.236
34297SOL    HW2 4789   1.512   4.613  13.255
34298SOL     OW 4790   6.683   7.182  14.650
34298SOL    HW1 4791   6.756   7.238  14.621
34298SOL    HW2 4792   6.644   7.150  14.569
34299SOL     OW 4793  13.592   9.535   6.169
34299SOL    HW1 4794  13.511   9.495   6.201
34299SOL    HW2 4795  13.643   9.552   6.248
34300SOL     OW 4796  11.906  13.494   6.378
34300SOL    HW1 4797  11.859  13.413   6.399
34300SOL    HW2 4798  11.924  13.487   6.284
34301SOL     OW 4799   7.304  11.064  10.850
34301SOL    HW1 4800   7.295  11.071  10.755
34301SOL    HW2 4801   7.301  10.971  10.868
34302SOL     OW 4802   4.866   2.095  11.386
34302SOL    HW1 4803   4.813   2.165  11.347
34302SOL    HW2 4804   4.817   2.069  11.464
34303SOL     OW 4805   4.251   0.792  14.192
34303SOL    HW1 4806   4.284   0.872  14.233
34303SOL    HW2 4807   4.309   0.723  14.225
34304SOL     OW 4808  13.812   0.428   6.747
34304SOL    HW1 4809  13.779   0.395   6.663
34304SOL    HW2 4810  13.904   0.402   6.748
34305SOL     OW 4811   1.208   7.642   4.119
34305SOL    HW1 4812   1.160   7.639   4.202
34305SOL    HW2 4813   1.140   7.635   4.052
34306SOL     OW 4814   5.314   2.397   8.699
34306SOL    HW1 4815   5.398   2.436   8.673
34306SOL    HW2 4816   5.322   2.387   8.794
34307SOL     OW 4817  11.215   0.808   8.573
34307SOL    HW1 4818  11.217   0.737   8.637
34307SOL    HW2 4819  11.151   0.870   8.607
34308SOL     OW 4820  12.575   5.095   2.148
34308SOL    HW1 4821  12.628   5.150   2.090
34308SOL    HW2 4822  12.487   5.133   2.144
34309SOL     OW 4823  11.172   4.416   6.057
34309SOL    HW1 4824  11.105   4.364   6.101
34309SOL    HW2 4825  11.135   4.504   6.052
34310SOL     OW 4826   1.496  11.388   0.124
34310SOL    HW1 4827   1.551  11.321   0.083
34310SOL    HW2 4828   1.465  11.442   0.051
34311SOL     OW 4829  14.820  12.876  12.192
34311SOL    HW1 4830  14.841  12.803  12.250
34311SOL    HW2 4831  14.725  12.883  12.195
34312SOL     OW 4832   4.877   0.723   7.468
34312SOL    HW1 4833   4.900   0.797   7.412
34312SOL    HW2 4834   4.904   0.750   7.556
34313SOL     OW 4835   7.418   5.469   5.975
34313SOL    HW1 4836   7.451   5.493   5.888
34313SOL    HW2 4837   7.493   5.477   6.033
34314SOL     OW 4838   4.009   7.118   2.871
34314SOL    HW1 4839   3.919   7.123   2.839
34314SOL    HW2 4840   4.063   7.112   2.793
34315SOL     OW 4841  14.670   4.172   5.122
34315SOL    HW1 4842  14.603   4.216   5.174
34315SOL    HW2 4843  14.679   4.086   5.164
34316SOL     OW 4844   1.578   7.060  10.693
34316SOL    HW1 4845   1.561   6.990  10.755
34316SOL    HW2 4846   1.493   7.082  10.656
34317SOL     OW 4847   6.803  14.003  13.859
34317SOL    HW1 4848   6.791  14.095  13.882
34317SOL    HW2 4849   6.887  13.979  13.898
34318SOL     OW 4850   5.494  12.674  11.594
34318SOL    HW1 4851   5.419  12.668  11.653
34318SOL    HW2 4852   5.545  12.748  11.627
34319SOL     OW 4853   0.325  12.016   0.994
34319SOL    HW1 4854   0.293  11.965   1.069
34319SOL    HW2 4855   0.265  11.993   0.922
34320SOL     OW 4856   4.506   3.020   4.925
34320SOL    HW1 4857   4.501   3.089   4.991
34320SOL    HW2 4858   4.442   3.045   4.859
34321SOL     OW 4859  12.550   5.922  11.134
34321SOL    HW1 4860  12.636   5.941  11.095
34321SOL    HW2 4861  12.552   5.965  11.220
34322SOL     OW 4862   4.623   9.890   0.012
34322SOL    HW1 4863   4.548   9.857  14.833
34322SOL    HW2 4864   4.649   9.969  14.835
34323SOL     OW 4865   3.637   7.604   6.432
34323SOL    HW1 4866   3.667   7.546   6.362
34323SOL    HW2 4867   3.627   7.689   6.390
34324SOL     OW 4868  12.967   9.471   8.470
34324SOL    HW1 4869  12.907   9.403   8.438
34324SOL    HW2 4870  13.024   9.426   8.532
34325SOL     OW 4871  12.806  14.835   4.493
34325SOL    HW1 4872  12.778  14.816   4.583
34325SOL    HW2 4873  12.792   0.060   4.483
34326SOL     OW 4874  13.229  11.112   1.549
34326SOL    HW1 4875  13.157  11.063   1.510
34326SOL    HW2 4876  13.308  11.076   1.508
34327SOL     OW 4877   8.530  11.618   6.050
34327SOL    HW1 4878   8.530  11.661   5.964
34327SOL    HW2 4879   8.481  11.537   6.035
34328SOL     OW 4880  12.549   7.511  11.824
34328SOL    HW1 4881  12.588   7.459  11.894
34328SOL    HW2 4882  12.556   7.456  11.746
34329SOL     OW 4883   2.129   7.040   6.577
34329SOL    HW1 4884   2.120   6.968   6.515
34329SOL    HW2 4885   2.041   7.051   6.614
34330SOL     OW 4886   2.027   7.144  10.586
34330SOL    HW1 4887   2.094   7.128  10.519
34330SOL    HW2 4888   2.025   7.064  10.638
34331SOL     OW 4889   2.946  12.820   5.923
34331SOL    HW1 4890   2.863  12.810   5.876
34331SOL    HW2 4891   2.968  12.913   5.912
34332SOL     OW 4892  12.686   7.566   5.078
34332SOL    HW1 4893  12.671   7.583   5.171
34332SOL    HW2 4894  12.780   7.548   5.071
34333SOL     OW 4895   2.907   4.417   2.089
34333SOL    HW1 4896   2.820   4.387   2.115
34333SOL    HW2 4897   2.918   4.501   2.134
34334SOL     OW 4898   6.065   2.868  14.341
34334SOL    HW1 4899   6.047   2.916  14.260
34334SOL    HW2 4900   6.153   2.833  14.329
34335SOL     OW 4901   6.432   8.193  12.857
34335SOL    HW1 4902   6.416   8.202  12.951
34335SOL    HW2 4903   6.513   8.142  12.851
34336SOL     OW 4904   2.807   2.155  13.646
34336SOL    HW1 4905   2.822   2.172  13.553
34336SOL    HW2 4906   2.716   2.123  13.651
34337SOL     OW 4907   0.212  11.537  14.827
34337SOL    HW1 4908   0.170  11.558   0.041
34337SOL    HW2 4909   0.256  11.618  14.801
34338SOL     OW 4910   6.028   7.056   1.901
34338SOL    HW1 4911   6.104   7.003   1.879
34338SOL    HW2 4912   5.986   7.074   1.817
34339SOL     OW 4913   4.534   6.277   0.132
34339SOL    HW1 4914   4.559   6.212   0.066
34339SOL    HW2 4915   4.447   6.249   0.161
34340SOL     OW 4916   3.928   0.200   0.197
34340SOL    HW1 4917   3.967   0.281   0.165
34340SOL    HW2 4918   4.000   0.153   0.239
34341SOL     OW 4919  12.341   4.168  12.748
34341SOL    HW1 4920  12.421   4.218  12.763
34341SOL    HW2 4921  12.333   4.112  12.826
34342SOL     OW 4922  14.272  12.218   8.076
34342SOL    HW1 4923  14.222  12.138   8.094
34342SOL    HW2 4924  14.299  12.210   7.985
34343SOL     OW 4925   1.410   8.316   0.545
34343SOL    HW1 4926   1.323   8.336   0.510
34343SOL    HW2 4927   1.397   8.241   0.602
34344SOL     OW 4928  13.114  14.091  14.798
34344SOL    HW1 4929  13.161  14.129   0.002
34344SOL    HW2 4930  13.102  13.999  14.821
34345SOL     OW 4931   5.608   8.601   9.426
34345SOL    HW1 4932   5.611   8.656   9.348
34345SOL    HW2 4933   5.700   8.579   9.443
34346SOL     OW 4934   5.471   2.831   1.510
34346SOL    HW1 4935   5.459   2.886   1.433
34346SOL    HW2 4936   5.564   2.837   1.530
34347SOL     OW 4937   7.084   3.273   9.443
34347SOL    HW1 4938   7.180   3.282   9.448
34347SOL    HW2 4939   7.069   3.179   9.435
34348SOL     OW 4940  11.678   8.525  14.493
34348SOL    HW1 4941  11.768   8.525  14.526
34348SOL    HW2 4942  11.662   8.435  14.466
34349SOL     OW 4943   0.813  13.419   8.110
34349SOL    HW1 4944   0.835  13.431   8.202
34349SOL    HW2 4945   0.895  13.436   8.063
34350SOL     OW 4946   0.579  14.347   5.885
34350SOL    HW1 4947   0.575  14.394   5.801
34350SOL    HW2 4948   0.578  14.255   5.861
34351SOL     OW 4949   9.149   1.819  14.808
34351SOL    HW1 4950   9.102   1.792  14.729
34351SOL    HW2 4951   9.103   1.898  14.838
34352SOL     OW 4952   6.113   6.811   1.414
34352SOL    HW1 4953   6.139   6.843   1.501
34352SOL    HW2 4954   6.125   6.717   1.419
34353SOL     OW 4955   9.389   7.897  13.263
34353SOL    HW1 4956   9.397   7.844  13.183
34353SOL    HW2 4957   9.468   7.950  13.265
34354SOL     OW 4958   5.829   7.274   5.965
34354SOL    HW1 4959   5.760   7.327   6.006
34354SOL    HW2 4960   5.887   7.251   6.037
34355SOL     OW 4961  11.378   4.381   4.874
34355SOL    HW1 4962  11.357   4.295   4.838
34355SOL    HW2 4963  11.463   4.369   4.918
34356SOL     OW 4964  13.569  14.471  10.767
34356SOL    HW1 4965  13.537  14.404  10.707
34356SOL    HW2 4966  13.490  14.519  10.794
34357SOL     OW 4967  13.266  11.170   8.046
34357SOL    HW1 4968  13.179  11.209   8.045
34357SOL    HW2 4969  13.277  11.133   7.958
34358SOL     OW 4970   3.662   1.888   7.006
34358SOL    HW1 4971   3.583   1.874   6.954
34358SOL    HW2 4972   3.717   1.946   6.952
34359SOL     OW 4973  14.620   0.996   0.818
34359SOL    HW1 4974  14.706   0.996   0.775
34359SOL    HW2 4975  14.627   0.931   0.887
34360SOL     OW 4976   9.972   7.073  13.825
34360SOL    HW1 4977  10.009   7.023  13.897
34360SOL    HW2 4978   9.978   7.014  13.749
34361SOL     OW 4979  10.481   1.764   6.340
34361SOL    HW1 4980  10.576   1.759   6.343
34361SOL    HW2 4981  10.455   1.795   6.427
34362SOL     OW 4982  10.935  10.221   9.590
34362SOL    HW1 4983  10.943  10.209   9.684
34362SOL    HW2 4984  10.884  10.145   9.561
34363SOL     OW 4985   7.147   8.532   5.294
34363SOL    HW1 4986   7.197   8.540   5.375
34363SOL    HW2 4987   7.055   8.531   5.322
34364SOL     OW 4988   3.677   5.954   1.408
34364SOL    HW1 4989   3.681   5.992   1.496
34364SOL    HW2 4990   3.584   5.944   1.390
34365SOL     OW 4991  13.424   5.474   3.603
34365SOL    HW1 4992  13.470   5.401   3.646
34365SOL    HW2 4993  13.333   5.466   3.634
34366SOL     OW 4994  10.603   7.243  14.800
34366SOL    HW1 4995  10.579   7.335  14.789
34366SOL    HW2 4996  10.564   7.218   0.014
34367SOL     OW 4997   4.181   4.027   2.254
34367SOL    HW1 4998   4.213   3.937   2.261
34367SOL    HW2 4999   4.234   4.075   2.318
34368SOL     OW 5000   0.141   1.637   1.748
34368SOL    HW1 5001   0.139   1.720   1.701
34368SOL    HW2 5002   0.065   1.640   1.806
34369SOL     OW 5003  12.306   8.358   9.573
34369SOL    HW1 5004  12.211   8.367   9.568
34369SOL    HW2 5005  12.336   8.438   9.616
34370SOL     OW 5006  11.827   0.997   2.389
34370SOL    HW1 5007  11.808   0.904   2.401
34370SOL    HW2 5008  11.922   1.000   2.376
34371SOL     OW 5009   5.179   1.971   2.059
34371SOL    HW1 5010   5.179   2.042   2.123
34371SOL    HW2 5011   5.166   1.892   2.110
34372SOL     OW 5012  11.535   0.027   8.528
34372SOL    HW1 5013  11.444  14.867   8.522
34372SOL    HW2 5014  11.578  14.861   8.451
34373SOL     OW 5015   7.235  12.804   7.065
34373SOL    HW1 5016   7.233  12.876   7.127
34373SOL    HW2 5017   7.147  12.803   7.026
34374SOL     OW 5018   0.458   9.752  12.966
34374SOL    HW1 5019   0.541   9.755  12.918
34374SOL    HW2 5020   0.480   9.780  13.054
34375SOL     OW 5021   1.986   7.164   0.529
34375SOL    HW1 5022   2.032   7.216   0.462
34375SOL    HW2 5023   2.055   7.115   0.573
34376SOL     OW 5024   6.088   2.421  10.740
34376SOL    HW1 5025   6.023   2.489  10.721
34376SOL    HW2 5026   6.162   2.467  10.777
34377SOL     OW 5027  10.737   0.836  14.301
34377SOL    HW1 5028  10.773   0.753  14.270
34377SOL    HW2 5029  10.727   0.823  14.396
34378SOL     OW 5030   9.291   3.253   1.505
34378SOL    HW1 5031   9.202   3.219   1.518
34378SOL    HW2 5032   9.291   3.337   1.551
34379SOL     OW 5033   9.677  10.028   6.906
34379SOL    HW1 5034   9.633  10.060   6.827
34379SOL    HW2 5035   9.617   9.961   6.940
34380SOL     OW 5036  11.958  13.830  14.211
34380SOL    HW1 5037  11.971  13.903  14.149
34380SOL    HW2 5038  11.925  13.759  14.156
34381SOL     OW 5039  11.530   2.885  10.883
34381SOL    HW1 5040  11.553   2.854  10.970
34381SOL    HW2 5041  11.562   2.817  10.824
34382SOL     OW 5042   6.256   8.514  11.416
34382SOL    HW1 5043   6.201   8.506  11.495
34382SOL    HW2 5044   6.241   8.432  11.369
34383SOL     OW 5045  13.567   5.250  10.855
34383SOL    HW1 5046  13.521   5.233  10.773
34383SOL    HW2 5047  13.501   5.288  10.912
34384SOL     OW 5048   0.025   2.274   7.305
34384SOL    HW1 5049   0.009   2.180   7.309
34384SOL    HW2 5050   0.014   2.296   7.212
34385SOL     OW 5051   4.934   5.984  12.365
34385SOL    HW1 5052   4.920   6.013  12.455
34385SOL    HW2 5053   5.029   5.990  12.352
34386SOL     OW 5054   8.834   9.148   0.474
34386SOL    HW1 5055   8.808   9.170   0.563
34386SOL    HW2 5056   8.914   9.097   0.484
34387SOL     OW 5057   3.050   5.856   8.979
34387SOL    HW1 5058   3.045   5.872   8.885
34387SOL    HW2 5059   3.062   5.943   9.017
34388SOL     OW 5060  12.292   6.042  11.042
34388SOL    HW1 5061  12.292   6.123  10.992
34388SOL    HW2 5062  12.381   6.036  11.078
34389SOL     OW 5063   7.340   3.653   7.525
34389SOL    HW1 5064   7.307   3.599   7.453
34389SOL    HW2 5065   7.424   3.614   7.548
34390SOL     OW 5066  10.920   9.253   9.295
34390SOL    HW1 5067  10.926   9.166   9.256
34390SOL    HW2 5068  10.858   9.299   9.238
34391SOL     OW 5069  11.833  13.851   6.635
34391SOL    HW1 5070  11.828  13.884   6.725
34391SOL    HW2 5071  11.878  13.920   6.587
34392SOL     OW 5072   1.834  12.609   9.479
34392SOL    HW1 5073   1.845  12.580   9.570
34392SOL    HW2 5074   1.746  12.645   9.476
34393SOL     OW 5075   0.126   6.885   5.993
34393SOL    HW1 5076   0.095   6.938   5.920
34393SOL    HW2 5077   0.051   6.830   6.017
34394SOL     OW 5078   3.697   5.905  14.843
34394SOL    HW1 5079   3.615   5.889  14.795
34394SOL    HW2 5080   3.738   5.819  14.852
34395SOL     OW 5081   7.885   1.907   8.254
34395SOL    HW1 5082   7.876   1.835   8.191
34395SOL    HW2 5083   7.972   1.944   8.235
34396SOL     OW 5084   9.607  14.140  14.850
34396SOL    HW1 5085   9.631  14.050  14.829
34396SOL    HW2 5086   9.541  14.131   0.049
34397SOL     OW 5087   4.077   4.826  13.568
34397SOL    HW1 5088   4.110   4.913  13.547
34397SOL    HW2 5089   4.077   4.779  13.485
34398SOL     OW 5090   9.181   5.712  10.173
34398SOL    HW1 5091   9.199   5.669  10.256
34398SOL    HW2 5092   9.267   5.730  10.136
34399SOL     OW 5093   8.204   2.329   6.567
34399SOL    HW1 5094   8.220   2.264   6.635
34399SOL    HW2 5095   8.122   2.372   6.593
34400SOL     OW 5096   2.831  11.514   1.553
34400SOL    HW1 5097   2.737  11.517   1.569
34400SOL    HW2 5098   2.845  11.431   1.507
34401SOL     OW 5099   7.779   3.787  13.894
34401SOL    HW1 5100   7.771   3.839  13.974
34401SOL    HW2 5101   7.874   3.785  13.877
34402SOL     OW 5102   3.564   0.500  13.009
34402SOL    HW1 5103   3.546   0.581  13.057
34402SOL    HW2 5104   3.489   0.444  13.030
34403SOL     OW 5105   5.112   3.640   8.181
34403SOL    HW1 5106   5.160   3.559   8.196
34403SOL    HW2 5107   5.023   3.622   8.213
34404SOL     OW 5108   1.433   0.304  12.916
34404SOL    HW1 5109   1.398   0.371  12.975
34404SOL    HW2 5110   1.500   0.350  12.865
34405SOL     OW 5111  14.052   6.829   2.238
34405SOL    HW1 5112  14.110   6.755   2.216
34405SOL    HW2 5113  14.112   6.900   2.260
34406SOL     OW 5114   6.725   6.309   0.036
34406SOL    HW1 5115   6.748   6.388   0.084
34406SOL    HW2 5116   6.640   6.283   0.070
34407SOL     OW 5117  12.626   4.253   0.065
34407SOL    HW1 5118  12.585   4.167   0.076
34407SOL    HW2 5119  12.681   4.243  14.857
34408SOL     OW 5120   1.839   9.770   5.248
34408SOL    HW1 5121   1.883   9.789   5.165
34408SOL    HW2 5122   1.909   9.772   5.313
34409SOL     OW 5123   8.899   3.907  12.242
34409SOL    HW1 5124   8.918   3.953  12.160
34409SOL    HW2 5125   8.984   3.875  12.271
34410SOL     OW 5126   5.221  12.202   4.159
34410SOL    HW1 5127   5.313  12.228   4.172
34410SOL    HW2 5128   5.225  12.130   4.097
34411SOL     OW 5129   3.009   5.284   1.129
34411SOL    HW1 5130   3.075   5.283   1.198
34411SOL    HW2 5131   2.927   5.303   1.174
34412SOL     OW 5132   8.219   7.055   9.081
34412SOL    HW1 5133   8.263   6.990   9.135
34412SOL    HW2 5134   8.289   7.112   9.049
34413SOL     OW 5135   8.106   7.636   6.702
34413SOL    HW1 5136   8.072   7.699   6.638
34413SOL    HW2 5137   8.099   7.681   6.786
34414SOL     OW 5138  14.101   4.089   1.321
34414SOL    HW1 5139  14.188   4.065   1.288
34414SOL    HW2 5140  14.100   4.055   1.410
34415SOL     OW 5141   7.996  10.057   1.774
34415SOL    HW1 5142   7.998  10.064   1.678
34415SOL    HW2 5143   7.905  10.037   1.795
34416SOL     OW 5144  10.433  10.572   3.882
34416SOL    HW1 5145  10.493  10.502   3.907
34416SOL    HW2 5146  10.351  10.527   3.862
34417SOL     OW 5147  14.106   5.783  12.332
34417SOL    HW1 5148  14.166   5.761  12.403
34417SOL    HW2 5149  14.030   5.727  12.346
34418SOL     OW 5150   4.743   5.711  13.343
34418SOL    HW1 5151   4.672   5.695  13.282
34418SOL    HW2 5152   4.727   5.652  13.417
34419SOL     OW 5153  13.834  12.596   9.044
34419SOL    HW1 5154  13.923  12.630   9.041
34419SOL    HW2 5155  13.842  12.512   9.089
34420SOL     OW 5156   0.687  10.632   7.247
34420SOL    HW1 5157   0.728  10.619   7.333
34420SOL    HW2 5158   0.722  10.716   7.217
34421SOL     OW 5159   9.175  11.223   6.647
34421SOL    HW1 5160   9.183  11.209   6.741
34421SOL    HW2 5161   9.085  11.198   6.626
34422SOL     OW 5162   0.550   3.699   3.908
34422SOL    HW1 5163   0.555   3.608   3.879
34422SOL    HW2 5164   0.585   3.697   3.997
34423SOL     OW 5165  13.868  10.347   1.168
34423SOL    HW1 5166  13.927  10.415   1.202
34423SOL    HW2 5167  13.785  10.362   1.214
34424SOL     OW 5168   5.401   1.146   5.867
34424SOL    HW1 5169   5.314   1.182   5.854
34424SOL    HW2 5170   5.442   1.205   5.930
34425SOL     OW 5171   0.754   3.615  11.795
34425SOL    HW1 5172   0.771   3.693  11.848
34425SOL    HW2 5173   0.832   3.561  11.806
34426SOL     OW 5174   6.868   0.032  14.305
34426SOL    HW1 5175   6.785   0.076  14.322
34426SOL    HW2 5176   6.900   0.071  14.224
34427SOL     OW 5177   4.923  14.303   0.810
34427SOL    HW1 5178   4.871  14.227   0.784
34427SOL    HW2 5179   4.992  14.267   0.866
34428SOL     OW 5180   3.488   5.668  10.700
34428SOL    HW1 5181   3.460   5.714  10.621
34428SOL    HW2 5182   3.446   5.716  10.772
34429SOL     OW 5183   0.705   8.771   5.562
34429SOL    HW1 5184   0.701   8.778   5.658
34429SOL    HW2 5185   0.718   8.861   5.533
34430SOL     OW 5186  13.459   6.463  12.801
34430SOL    HW1 5187  13.534   6.512  12.769
34430SOL    HW2 5188  13.443   6.496  12.889
34431SOL     OW 5189   9.328   0.638  11.382
34431SOL    HW1 5190   9.300   0.699  11.451
34431SOL    HW2 5191   9.257   0.639  11.318
34432SOL     OW 5192  12.805   7.148  14.827
34432SOL    HW1 5193  12.817   7.161  14.733
34432SOL    HW2 5194  12.711   7.132  14.836
34433SOL     OW 5195  11.109   3.451  12.399
34433SOL    HW1 5196  11.017   3.430  12.382
34433SOL    HW2 5197  11.133   3.512  12.330
34434SOL     OW 5198   2.173  13.164   9.812
34434SOL    HW1 5199   2.265  13.164   9.783
34434SOL    HW2 5200   2.127  13.215   9.746
34435SOL     OW 5201   2.922   4.476   5.720
34435SOL    HW1 5202   3.001   4.422   5.723
34435SOL    HW2 5203   2.864   4.431   5.659
34436SOL     OW 5204  10.223  10.220  14.836
34436SOL    HW1 5205  10.244  10.269   0.046
34436SOL    HW2 5206  10.299  10.164  14.822
34437SOL     OW 5207  11.750   5.278   7.358
34437SOL    HW1 5208  11.697   5.352   7.328
34437SOL    HW2 5209  11.703   5.244   7.434
34438SOL     OW 5210   3.135   2.795   2.126
34438SOL    HW1 5211   3.180   2.731   2.070
34438SOL    HW2 5212   3.112   2.866   2.067
34439SOL     OW 5213  14.191   0.097   4.839
34439SOL    HW1 5214  14.157   0.179   4.803
34439SOL    HW2 5215  14.272   0.122   4.883
34440SOL     OW 5216  14.004   4.182   0.483
34440SOL    HW1 5217  14.076   4.235   0.447
34440SOL    HW2 5218  14.008   4.197   0.577
34441SOL     OW 5219   4.175   5.967   2.799
34441SOL    HW1 5220   4.150   5.884   2.758
34441SOL    HW2 5221   4.182   6.029   2.726
34442SOL     OW 5222  11.056   0.086  11.892
34442SOL    HW1 5223  11.087   0.088  11.983
34442SOL    HW2 5224  11.136   0.087  11.839
34443SOL     OW 5225   1.008   3.372   7.173
34443SOL    HW1 5226   1.027   3.438   7.239
34443SOL    HW2 5227   0.932   3.325   7.207
34444SOL     OW 5228  14.673   5.707   4.053
34444SOL    HW1 5229  14.615   5.642   4.016
34444SOL    HW2 5230  14.649   5.789   4.010
34445SOL     OW 5231  12.091  12.222   3.127
34445SOL    HW1 5232  12.126  12.141   3.164
34445SOL    HW2 5233  12.147  12.241   3.052
34446SOL     OW 5234  13.023   0.252   6.155
34446SOL    HW1 5235  13.044   0.317   6.222
34446SOL    HW2 5236  12.928   0.240   6.162
34447SOL     OW 5237   7.728   8.807   1.599
34447SOL    HW1 5238   7.705   8.769   1.514
34447SOL    HW2 5239   7.738   8.900   1.583
34448SOL     OW 5240  10.855   6.261   9.670
34448SOL    HW1 5241  10.806   6.297   9.744
34448SOL    HW2 5242  10.787   6.236   9.607
34449SOL     OW 5243  12.042  13.426   4.395
34449SOL    HW1 5244  12.000  13.426   4.481
34449SOL    HW2 5245  11.979  13.381   4.338
34450SOL     OW 5246   2.358   4.500   5.953
34450SOL    HW1 5247   2.396   4.442   5.887
34450SOL    HW2 5248   2.264   4.499   5.936
34451SOL     OW 5249   3.473   4.244  13.152
34451SOL    HW1 5250   3.460   4.338  13.164
34451SOL    HW2 5251   3.478   4.233  13.057
34452SOL     OW 5252   8.233  11.487   1.903
34452SOL    HW1 5253   8.169  11.416   1.914
34452SOL    HW2 5254   8.192  11.546   1.839
34453SOL     OW 5255   4.688  14.072   4.736
34453SOL    HW1 5256   4.654  14.021   4.662
34453SOL    HW2 5257   4.763  14.119   4.700
34454SOL     OW 5258   2.016   5.709   2.860
34454SOL    HW1 5259   2.014   5.803   2.880
34454SOL    HW2 5260   1.958   5.699   2.785
34455SOL     OW 5261  12.507   8.264   8.404
34455SOL    HW1 5262  12.414   8.261   8.380
34455SOL    HW2 5263  12.524   8.357   8.421
34456SOL     OW 5264   7.376   3.404   9.793
34456SOL    HW1 5265   7.302   3.351   9.821
34456SOL    HW2 5266   7.350   3.494   9.814
34457SOL     OW 5267  12.977   1.094   8.327
34457SOL    HW1 5268  13.020   1.136   8.401
34457SOL    HW2 5269  12.984   1.158   8.256
34458SOL     OW 5270  13.136   8.442   1.635
34458SOL    HW1 5271  13.203   8.418   1.571
34458SOL    HW2 5272  13.058   8.460   1.582
34459SOL     OW 5273   8.812  13.002   3.540
34459SOL    HW1 5274   8.767  12.989   3.456
34459SOL    HW2 5275   8.747  12.980   3.606
34460SOL     OW 5276   8.237  12.972   9.318
34460SOL    HW1 5277   8.167  12.940   9.261
34460SOL    HW2 5278   8.310  12.989   9.259
34461SOL     OW 5279  12.025   4.127   7.688
34461SOL    HW1 5280  12.014   4.205   7.634
34461SOL    HW2 5281  11.993   4.152   7.775
34462SOL     OW 5282   6.650  13.791   4.870
34462SOL    HW1 5283   6.559  13.805   4.896
34462SOL    HW2 5284   6.645  13.725   4.801
34463SOL     OW 5285   6.787   3.758   0.798
34463SOL    HW1 5286   6.772   3.686   0.860
34463SOL    HW2 5287   6.881   3.756   0.782
34464SOL     OW 5288   2.146   4.288  11.224
34464SOL    HW1 5289   2.158   4.203  11.267
34464SOL    HW2 5290   2.091   4.268  11.148
34465SOL     OW 5291  12.652   4.483   8.314
34465SOL    HW1 5292  12.574   4.533   8.336
34465SOL    HW2 5293  12.647   4.405   8.369
34466SOL     OW 5294  13.781   3.039  11.288
34466SOL    HW1 5295  13.827   2.998  11.215
34466SOL    HW2 5296  13.834   3.018  11.365
34467SOL     OW 5297   7.512  12.056  11.771
34467SOL    HW1 5298   7.440  12.058  11.835
34467SOL    HW2 5299   7.472  12.022  11.691
34468SOL     OW 5300   2.594   9.319   8.077
34468SOL    HW1 5301   2.553   9.260   8.014
34468SOL    HW2 5302   2.672   9.351   8.032
34469SOL     OW 5303   3.712   0.842  11.465
34469SOL    HW1 5304   3.752   0.796  11.391
34469SOL    HW2 5305   3.639   0.891  11.427
34470SOL     OW 5306   0.613   6.749   0.165
34470SOL    HW1 5307   0.704   6.758   0.135
34470SOL    HW2 5308   0.562   6.799   0.101
34471SOL     OW 5309   5.367  10.241   4.017
34471SOL    HW1 5310   5.370  10.230   4.112
34471SOL    HW2 5311   5.453  10.277   3.994
34472SOL     OW 5312  13.928   3.009  14.171
34472SOL    HW1 5313  14.005   3.065  14.178
34472SOL    HW2 5314  13.880   3.024  14.252
34473SOL     OW 5315   8.284  13.548   6.064
34473SOL    HW1 5316   8.223  13.489   6.019
34473SOL    HW2 5317   8.333  13.591   5.995
34474SOL     OW 5318   7.838  11.930   4.997
34474SOL    HW1 5319   7.930  11.955   4.982
34474SOL    HW2 5320   7.808  11.989   5.066
34475SOL     OW 5321   0.976  11.158  12.794
34475SOL    HW1 5322   0.912  11.124  12.857
34475SOL    HW2 5323   1.025  11.080  12.767
34476SOL     OW 5324  10.990   0.945   8.996
34476SOL    HW1 5325  11.055   0.997   9.044
34476SOL    HW2 5326  10.989   0.860   9.041
34477SOL     OW 5327   5.572  11.992   3.648
34477SOL    HW1 5328   5.659  11.990   3.607
34477SOL    HW2 5329   5.531  11.910   3.623
34478SOL     OW 5330   2.996  14.602   2.803
34478SOL    HW1 5331   2.941  14.637   2.873
34478SOL    HW2 5332   2.953  14.631   2.722
34479SOL     OW 5333  11.078   5.693  12.531
34479SOL    HW1 5334  10.985   5.670  12.534
34479SOL    HW2 5335  11.085   5.770  12.587
34480SOL     OW 5336   4.752   8.932   2.640
34480SOL    HW1 5337   4.763   8.840   2.614
34480SOL    HW2 5338   4.749   8.929   2.736
34481SOL     OW 5339  10.038   3.557  14.441
34481SOL    HW1 5340   9.955   3.515  14.415
34481SOL    HW2 5341  10.070   3.598  14.360
34482SOL     OW 5342   4.306   9.651   0.185
34482SOL    HW1 5343   4.335   9.566   0.218
34482SOL    HW2 5344   4.236   9.630   0.123
34483SOL     OW 5345  11.408   4.644   6.785
34483SOL    HW1 5346  11.366   4.564   6.754
34483SOL    HW2 5347  11.426   4.694   6.705
34484SOL     OW 5348   3.709   0.334   6.574
34484SOL    HW1 5349   3.789   0.353   6.624
34484SOL    HW2 5350   3.682   0.248   6.604
34485SOL     OW 5351   9.274   7.562  12.670
34485SOL    HW1 5352   9.189   7.604  12.656
34485SOL    HW2 5353   9.288   7.510  12.591
34486SOL     OW 5354  14.625  11.924   3.093
34486SOL    HW1 5355  14.632  12.009   3.050
34486SOL    HW2 5356  14.574  11.942   3.172
34487SOL     OW 5357  11.540   0.348  11.700
34487SOL    HW1 5358  11.549   0.274  11.761
34487SOL    HW2 5359  11.624   0.351  11.654
34488SOL     OW 5360   9.897   2.114   2.774
34488SOL    HW1 5361   9.873   2.056   2.847
34488SOL    HW2 5362   9.818   2.121   2.721
34489SOL     OW 5363   4.298   4.287   2.805
34489SOL    HW1 5364   4.309   4.205   2.854
34489SOL    HW2 5365   4.204   4.290   2.785
34490SOL     OW 5366  12.232   9.943   6.764
34490SOL    HW1 5367  12.144   9.975   6.779
34490SOL    HW2 5368  12.220   9.860   6.717
34491SOL     OW 5369   4.635   7.943  13.458
34491SOL    HW1 5370   4.653   7.853  13.485
34491SOL    HW2 5371   4.602   7.985  13.537
34492SOL     OW 5372   1.023   4.576  13.994
34492SOL    HW1 5373   1.117   4.594  13.996
34492SOL    HW2 5374   0.981   4.661  14.007
34493SOL     OW 5375   0.398   5.622   7.553
34493SOL    HW1 5376   0.353   5.538   7.564
34493SOL    HW2 5377   0.415   5.628   7.459
34494SOL     OW 5378   5.532  10.637   7.952
34494SOL    HW1 5379   5.460  10.688   7.915
34494SOL    HW2 5380   5.525  10.551   7.911
34495SOL     OW 5381  14.730   4.625   5.125
34495SOL    HW1 5382  14.779   4.543   5.127
34495SOL    HW2 5383  14.759   4.672   5.203
34496SOL     OW 5384  10.192   9.969   0.658
34496SOL    HW1 5385  10.130  10.015   0.602
34496SOL    HW2 5386  10.246  10.038   0.696
34497SOL     OW 5387  11.463   8.381   1.464
34497SOL    HW1 5388  11.384   8.386   1.411
34497SOL    HW2 5389  11.431   8.371   1.554
34498SOL     OW 5390   1.319   8.973  14.209
34498SOL    HW1 5391   1.248   9.021  14.167
34498SOL    HW2 5392   1.388   9.039  14.221
34499SOL     OW 5393   9.523   5.680  12.223
34499SOL    HW1 5394   9.458   5.654  12.158
34499SOL    HW2 5395   9.500   5.771  12.244
34500SOL     OW 5396   9.542  13.347   5.870
34500SOL    HW1 5397   9.630  13.320   5.844
34500SOL    HW2 5398   9.501  13.374   5.787
34501SOL     OW 5399   9.564   3.573  13.877
34501SOL    HW1 5400   9.548   3.517  13.801
34501SOL    HW2 5401   9.553   3.662  13.845
34502SOL     OW 5402   5.274   1.667  10.268
34502SOL    HW1 5403   5.293   1.580  10.304
34502SOL    HW2 5404   5.330   1.672  10.190
34503SOL     OW 5405  10.001   7.247   0.362
34503SOL    HW1 5406  10.073   7.185   0.372
34503SOL    HW2 5407   9.982   7.276   0.452
34504SOL     OW 5408   5.763   5.023  12.152
34504SOL    HW1 5409   5.667   5.025  12.153
34504SOL    HW2 5410   5.788   5.086  12.084
34505SOL     OW 5411   7.674   6.656   4.643
34505SOL    HW1 5412   7.734   6.594   4.684
34505SOL    HW2 5413   7.681   6.637   4.549
34506SOL     OW 5414   6.042   4.115   8.700
34506SOL    HW1 5415   5.951   4.101   8.726
34506SOL    HW2 5416   6.087   4.034   8.723
34507SOL     OW 5417  12.354   1.097   0.258
34507SOL    HW1 5418  12.273   1.112   0.209
34507SOL    HW2 5419  12.326   1.089   0.349
34508SOL     OW 5420  12.096   0.064   7.301
34508SOL    HW1 5421  12.018   0.100   7.344
34508SOL    HW2 5422  12.157   0.046   7.372
34509SOL     OW 5423   2.573   7.421  10.146
34509SOL    HW1 5424   2.615   7.483  10.087
34509SOL    HW2 5425   2.487   7.406  10.107
34510SOL     OW 5426  10.419   3.804   7.242
34510SOL    HW1 5427  10.450   3.823   7.331
34510SOL    HW2 5428  10.350   3.739   7.254
34511SOL     OW 5429   8.445  11.281   9.061
34511SOL    HW1 5430   8.530  11.324   9.058
34511SOL    HW2 5431   8.463  11.190   9.036
34512SOL     OW 5432  13.629   4.815   3.796
34512SOL    HW1 5433  13.628   4.733   3.845
34512SOL    HW2 5434  13.685   4.796   3.720
34513SOL     OW 5435   9.286   2.021  13.029
34513SOL    HW1 5436   9.307   1.934  12.995
34513SOL    HW2 5437   9.192   2.019  13.044
34514SOL     OW 5438   7.418  11.079   1.224
34514SOL    HW1 5439   7.373  11.120   1.297
34514SOL    HW2 5440   7.491  11.138   1.204
34515SOL     OW 5441   8.315   9.414  13.346
34515SOL    HW1 5442   8.368   9.493  13.357
34515SOL    HW2 5443   8.335   9.384  13.257
34516SOL     OW 5444   3.150   4.655   1.533
34516SOL    HW1 5445   3.202   4.618   1.462
34516SOL    HW2 5446   3.089   4.586   1.556
34517SOL     OW 5447   0.817   1.407   5.975
34517SOL    HW1 5448   0.794   1.339   5.912
34517SOL    HW2 5449   0.912   1.399   5.984
34518SOL     OW 5450  12.453   2.800   1.985
34518SOL    HW1 5451  12.537   2.775   2.023
34518SOL    HW2 5452  12.416   2.718   1.952
34519SOL     OW 5453  12.696   0.926   0.532
34519SOL    HW1 5454  12.683   1.017   0.504
34519SOL    HW2 5455  12.741   0.884   0.458
34520SOL     OW 5456   1.975   0.761  11.378
34520SOL    HW1 5457   1.998   0.674  11.346
34520SOL    HW2 5458   1.928   0.802  11.305
34521SOL     OW 5459   0.032   3.219   5.400
34521SOL    HW1 5460   0.026   3.243   5.308
34521SOL    HW2 5461  14.864   3.293   5.447
34522SOL     OW 5462   0.149   1.440   2.357
34522SOL    HW1 5463   0.178   1.518   2.404
34522SOL    HW2 5464   0.204   1.437   2.279
34523SOL     OW 5465   0.026   2.891  12.674
34523SOL    HW1 5466   0.036   2.828  12.602
34523SOL    HW2 5467   0.096   2.954  12.660
34524SOL     OW 5468   3.485   3.197  12.898
34524SOL    HW1 5469   3.397   3.234  12.886
34524SOL    HW2 5470   3.485   3.117  12.845
34525SOL     OW 5471  12.511   2.707   4.313
34525SOL    HW1 5472  12.593   2.743   4.348
34525SOL    HW2 5473  12.460   2.685   4.391
34526SOL     OW 5474   3.849  10.883   4.588
34526SOL    HW1 5475   3.803  10.855   4.667
34526SOL    HW2 5476   3.804  10.837   4.517
34527SOL     OW 5477   9.620  13.765   2.476
34527SOL    HW1 5478   9.608  13.858   2.493
34527SOL    HW2 5479   9.700  13.760   2.423
34528SOL     OW 5480   7.624   8.509   4.092
34528SOL    HW1 5481   7.688   8.569   4.054
34528SOL    HW2 5482   7.672   8.428   4.107
34529SOL     OW 5483   4.265   4.497  12.917
34529SOL    HW1 5484   4.254   4.402  12.928
34529SOL    HW2 5485   4.293   4.529  13.002
34530SOL     OW 5486   0.855   5.769   8.122
34530SOL    HW1 5487   0.898   5.842   8.165
34530SOL    HW2 5488   0.762   5.780   8.143
34531SOL     OW 5489  11.290  12.593  12.631
34531SOL    HW1 5490  11.290  12.552  12.545
34531SOL    HW2 5491  11.374  12.569  12.670
34532SOL     OW 5492   3.264   6.675  13.288
34532SOL    HW1 5493   3.194   6.639  13.342
34532SOL    HW2 5494   3.300   6.747  13.339
34533SOL     OW 5495   5.251   4.652   5.475
34533SOL    HW1 5496   5.319   4.656   5.542
34533SOL    HW2 5497   5.259   4.735   5.427
34534SOL     OW 5498   1.561   3.321  12.009
34534SOL    HW1 5499   1.482   3.299  12.059
34534SOL    HW2 5500   1.568   3.252  11.943
34535SOL     OW 5501  12.298   6.310  11.882
34535SOL    HW1 5502  12.352   6.232  11.882
34535SOL    HW2 5503  12.220   6.286  11.831
34536SOL     OW 5504   8.401   0.655  12.680
34536SOL    HW1 5505   8.456   0.579  12.663
34536SOL    HW2 5506   8.348   0.665  12.601
34537SOL     OW 5507  13.434  10.751  14.027
34537SOL    HW1 5508  13.364  10.686  14.034
34537SOL    HW2 5509  13.419  10.811  14.100
34538SOL     OW 5510   5.485   0.313   1.858
34538SOL    HW1 5511   5.397   0.286   1.885
34538SOL    HW2 5512   5.542   0.281   1.928
34539SOL     OW 5513   1.910  14.307   1.539
34539SOL    HW1 5514   1.922  14.216   1.566
34539SOL    HW2 5515   1.974  14.320   1.469
34540SOL     OW 5516  13.028   3.169   4.536
34540SOL    HW1 5517  13.086   3.190   4.609
34540SOL    HW2 5518  13.080   3.188   4.458
34541SOL     OW 5519   6.584   1.771   7.882
34541SOL    HW1 5520   6.679   1.774   7.869
34541SOL    HW2 5521   6.550   1.749   7.796
34542SOL     OW 5522   9.927  11.953   0.303
34542SOL    HW1 5523   9.992  11.966   0.235
34542SOL    HW2 5524   9.845  11.934   0.256
34543SOL     OW 5525   1.513  13.350  13.531
34543SOL    HW1 5526   1.597  13.317  13.498
34543SOL    HW2 5527   1.464  13.271  13.553
34544SOL     OW 5528   9.965  10.552   6.599
34544SOL    HW1 5529   9.976  10.647   6.599
34544SOL    HW2 5530  10.050  10.517   6.626
34545SOL     OW 5531   4.436  14.809  12.619
34545SOL    HW1 5532   4.472  14.741  12.562
34545SOL    HW2 5533   4.497   0.013  12.610
34546SOL     OW 5534   8.620   0.304   8.465
34546SOL    HW1 5535   8.708   0.298   8.502
34546SOL    HW2 5536   8.563   0.267   8.533
34547SOL     OW 5537   5.142  10.948   9.370
34547SOL    HW1 5538   5.220  10.892   9.369
34547SOL    HW2 5539   5.069  10.888   9.357
34548SOL     OW 5540   0.592   5.374   7.940
34548SOL    HW1 5541   0.599   5.446   8.003
34548SOL    HW2 5542   0.615   5.414   7.856
34549SOL     OW 5543   3.894   6.128   9.015
34549SOL    HW1 5544   3.829   6.077   9.064
34549SOL    HW2 5545   3.863   6.218   9.022
34550SOL     OW 5546   5.147  13.419   9.369
34550SOL    HW1 5547   5.237  13.433   9.338
34550SOL    HW2 5548   5.153  13.344   9.427
34551SOL     OW 5549  11.496   2.088   4.417
34551SOL    HW1 5550  11.489   2.159   4.354
34551SOL    HW2 5551  11.421   2.032   4.399
34552SOL     OW 5552   0.661  11.220   1.264
34552SOL    HW1 5553   0.718  11.144   1.276
34552SOL    HW2 5554   0.696  11.264   1.186
34553SOL     OW 5555   4.279   5.413  11.150
34553SOL    HW1 5556   4.307   5.478  11.215
34553SOL    HW2 5557   4.278   5.460  11.067
34554SOL     OW 5558   3.217  10.319  12.796
34554SOL    HW1 5559   3.311  10.319  12.778
34554SOL    HW2 5560   3.186  10.233  12.765
34555SOL     OW 5561   7.473   3.313   0.393
34555SOL    HW1 5562   7.439   3.355   0.472
34555SOL    HW2 5563   7.404   3.251   0.367
34556SOL     OW 5564  11.671   4.146   3.692
34556SOL    HW1 5565  11.657   4.069   3.637
34556SOL    HW2 5566  11.694   4.216   3.632
34557SOL     OW 5567  12.938  13.391   1.268
34557SOL    HW1 5568  12.922  13.456   1.199
34557SOL    HW2 5569  12.931  13.307   1.223
34558SOL     OW 5570   2.149  13.147   6.059
34558SOL    HW1 5571   2.073  13.189   6.101
34558SOL    HW2 5572   2.163  13.198   5.979
34559SOL     OW 5573   6.910   3.368   8.081
34559SOL    HW1 5574   6.828   3.395   8.122
34559SOL    HW2 5575   6.978   3.386   8.146
34560SOL     OW 5576   0.749   4.408   3.770
34560SOL    HW1 5577   0.723   4.333   3.718
34560SOL    HW2 5578   0.667   4.442   3.807
34561SOL     OW 5579   0.970  11.766  13.499
34561SOL    HW1 5580   0.935  11.852  13.522
34561SOL    HW2 5581   1.032  11.746  13.569
34562SOL     OW 5582  13.049   0.375   4.129
34562SOL    HW1 5583  13.046   0.421   4.045
34562SOL    HW2 5584  12.958   0.353   4.147
34563SOL     OW 5585   9.028  10.474  10.673
34563SOL    HW1 5586   8.941  10.512  10.684
34563SOL    HW2 5587   9.028  10.399  10.733
34564SOL     OW 5588   8.518  13.353  10.355
34564SOL    HW1 5589   8.475  13.411  10.292
34564SOL    HW2 5590   8.463  13.274  10.356
34565SOL     OW 5591   4.694  13.949   4.499
34565SOL    HW1 5592   4.695  13.854   4.511
34565SOL    HW2 5593   4.756  13.965   4.428
34566SOL     OW 5594   9.994   7.853   6.877
34566SOL    HW1 5595  10.033   7.869   6.963
34566SOL    HW2 5596   9.900   7.871   6.890
34567SOL     OW 5597   0.500  12.567   4.103
34567SOL    HW1 5598   0.533  12.487   4.143
34567SOL    HW2 5599   0.424  12.539   4.052
34568SOL     OW 5600   4.938  10.856  11.364
34568SOL    HW1 5601   5.000  10.929  11.373
34568SOL    HW2 5602   4.992  10.778  11.369
34569SOL     OW 5603   5.474   2.401  10.962
34569SOL    HW1 5604   5.406   2.400  11.030
34569SOL    HW2 5605   5.516   2.487  10.972
34570SOL     OW 5606   4.510  12.588   6.474
34570SOL    HW1 5607   4.494  12.654   6.406
34570SOL    HW2 5608   4.489  12.633   6.556
34571SOL     OW 5609  11.197   8.781  13.720
34571SOL    HW1 5610  11.267   8.741  13.668
34571SOL    HW2 5611  11.234   8.792  13.807
34572SOL     OW 5612   9.741   3.137  14.344
34572SOL    HW1 5613   9.685   3.086  14.403
34572SOL    HW2 5614   9.707   3.118  14.257
34573SOL     OW 5615   3.444  12.597   4.072
34573SOL    HW1 5616   3.453  12.525   4.134
34573SOL    HW2 5617   3.384  12.659   4.115
34574SOL     OW 5618   3.314   6.866   6.519
34574SOL    HW1 5619   3.315   6.772   6.542
34574SOL    HW2 5620   3.266   6.907   6.591
34575SOL     OW 5621   9.419  12.399   9.686
34575SOL    HW1 5622   9.442  12.393   9.779
34575SOL    HW2 5623   9.473  12.470   9.653
34576SOL     OW 5624   3.575   8.505   9.516
34576SOL    HW1 5625   3.598   8.580   9.570
34576SOL    HW2 5626   3.499   8.534   9.465
34577SOL     OW 5627   7.587   4.390   9.969
34577SOL    HW1 5628   7.668   4.413   9.925
34577SOL    HW2 5629   7.560   4.471  10.012
34578SOL     OW 5630  13.152   0.622   0.155
34578SOL    HW1 5631  13.209   0.548   0.134
34578SOL    HW2 5632  13.124   0.607   0.245
34579SOL     OW 5633  14.580   5.673   8.406
34579SOL    HW1 5634  14.626   5.700   8.326
34579SOL    HW2 5635  14.601   5.579   8.414
34580SOL     OW 5636   6.533   5.785  12.170
34580SOL    HW1 5637   6.530   5.757  12.078
34580SOL    HW2 5638   6.499   5.874  12.169
34581SOL     OW 5639  14.096  10.179   5.941
34581SOL    HW1 5640  14.011  10.139   5.923
34581SOL    HW2 5641  14.160  10.113   5.915
34582SOL     OW 5642   9.094  11.873   1.245
34582SOL    HW1 5643   9.142  11.790   1.255
34582SOL    HW2 5644   9.041  11.860   1.167
34583SOL     OW 5645  11.976  11.019   1.545
34583SOL    HW1 5646  12.040  11.024   1.616
34583SOL    HW2 5647  11.976  10.927   1.520
34584SOL     OW 5648   8.420   1.881  10.323
34584SOL    HW1 5649   8.376   1.878  10.238
34584SOL    HW2 5650   8.358   1.923  10.382
34585SOL     OW 5651  12.293   8.471   2.785
34585SOL    HW1 5652  12.315   8.504   2.872
34585SOL    HW2 5653  12.243   8.542   2.744
34586SOL     OW 5654   5.629  12.490   6.950
34586SOL    HW1 5655   5.700  12.508   6.889
34586SOL    HW2 5656   5.625  12.395   6.956
34587SOL     OW 5657   1.341  10.465   7.374
34587SOL    HW1 5658   1.251  10.436   7.357
34587SOL    HW2 5659   1.344  10.554   7.338
34588SOL     OW 5660  14.168  12.162   0.818
34588SOL    HW1 5661  14.151  12.137   0.909
34588SOL    HW2 5662  14.125  12.246   0.807
34589SOL     OW 5663  13.030   9.675   3.612
34589SOL    HW1 5664  13.049   9.592   3.657
34589SOL    HW2 5665  12.935   9.682   3.614
34590SOL     OW 5666   8.330   3.298  12.274
34590SOL    HW1 5667   8.407   3.259  12.316
34590SOL    HW2 5668   8.261   3.234  12.288
34591SOL     OW 5669   9.577   4.402   7.760
34591SOL    HW1 5670   9.535   4.479   7.799
34591SOL    HW2 5671   9.505   4.354   7.719
34592SOL     OW 5672   4.913  14.586   0.057
34592SOL    HW1 5673   4.970  14.637  14.869
34592SOL    HW2 5674   4.846  14.549  14.869
34593SOL     OW 5675  13.440   6.391   6.585
34593SOL    HW1 5676  13.474   6.302   6.586
34593SOL    HW2 5677  13.487   6.434   6.513
34594SOL     OW 5678   2.712   6.264   9.373
34594SOL    HW1 5679   2.769   6.325   9.326
34594SOL    HW2 5680   2.747   6.264   9.462
34595SOL     OW 5681   0.377   3.301  11.944
34595SOL    HW1 5682   0.286   3.327  11.960
34595SOL    HW2 5683   0.412   3.371  11.888
34596SOL     OW 5684   4.093  10.405  11.901
34596SOL    HW1 5685   4.075  10.358  11.820
34596SOL    HW2 5686   4.125  10.491  11.873
34597SOL     OW 5687  11.975  11.069   8.901
34597SOL    HW1 5688  11.913  11.029   8.840
34597SOL    HW2 5689  12.019  10.994   8.942
34598SOL     OW 5690   6.788   4.274   0.905
34598SOL    HW1 5691   6.870   4.311   0.874
34598SOL    HW2 5692   6.775   4.195   0.853
34599SOL     OW 5693   0.283  12.092  12.333
34599SOL    HW1 5694   0.280  12.188  12.330
34599SOL    HW2 5695   0.266  12.071  12.425
34600SOL     OW 5696   6.527  12.703   7.300
34600SOL    HW1 5697   6.582  12.632   7.335
34600SOL    HW2 5698   6.583  12.781   7.304
34601SOL     OW 5699   9.479  11.594   2.131
34601SOL    HW1 5700   9.538  11.596   2.056
34601SOL    HW2 5701   9.508  11.666   2.187
34602SOL     OW 5702   4.568  10.086   5.329
34602SOL    HW1 5703   4.649  10.097   5.378
34602SOL    HW2 5704   4.575  10.000   5.288
34603SOL     OW 5705   9.813   0.923   6.897
34603SOL    HW1 5706   9.811   1.019   6.895
34603SOL    HW2 5707   9.863   0.902   6.977
34604SOL     OW 5708  13.422   9.007   9.696
34604SOL    HW1 5709  13.481   8.936   9.670
34604SOL    HW2 5710  13.480   9.080   9.717
34605SOL     OW 5711   1.080  12.242   7.066
34605SOL    HW1 5712   1.142  12.261   6.996
34605SOL    HW2 5713   1.133  12.245   7.146
34606SOL     OW 5714  13.172   3.626   8.395
34606SOL    HW1 5715  13.205   3.693   8.455
34606SOL    HW2 5716  13.106   3.578   8.447
34607SOL     OW 5717   7.163   4.322   4.189
34607SOL    HW1 5718   7.189   4.394   4.131
34607SOL    HW2 5719   7.161   4.246   4.131
34608SOL     OW 5720  10.443   3.927   4.439
34608SOL    HW1 5721  10.504   3.988   4.396
34608SOL    HW2 5722  10.375   3.912   4.373
34609SOL     OW 5723   0.273   2.446   7.176
34609SOL    HW1 5724   0.248   2.465   7.085
34609SOL    HW2 5725   0.325   2.365   7.169
34610SOL     OW 5726   3.227  11.551   3.193
34610SOL    HW1 5727   3.210  11.484   3.260
34610SOL    HW2 5728   3.167  11.529   3.122
34611SOL     OW 5729   4.873   2.282   6.926
34611SOL    HW1 5730   4.922   2.344   6.873
34611SOL    HW2 5731   4.894   2.305   7.016
34612SOL     OW 5732   5.062   6.223   8.303
34612SOL    HW1 5733   4.992   6.272   8.347
34612SOL    HW2 5734   5.114   6.291   8.260
34613SOL     OW 5735  11.508   8.943   6.914
34613SOL    HW1 5736  11.523   8.851   6.894
34613SOL    HW2 5737  11.486   8.944   7.007
34614SOL     OW 5738   0.334   8.550  12.966
34614SOL    HW1 5739   0.356   8.485  12.899
34614SOL    HW2 5740   0.384   8.628  12.942
34615SOL     OW 5741  14.772   7.563   6.750
34615SOL    HW1 5742  14.855   7.603   6.725
34615SOL    HW2 5743  14.715   7.638   6.768
34616SOL     OW 5744  12.983  13.117   0.523
34616SOL    HW1 5745  12.917  13.141   0.458
34616SOL    HW2 5746  12.951  13.156   0.605
34617SOL     OW 5747   5.494   1.058   3.693
34617SOL    HW1 5748   5.555   0.996   3.732
34617SOL    HW2 5749   5.410   1.012   3.693
34618SOL     OW 5750   1.325   5.176  11.899
34618SOL    HW1 5751   1.317   5.158  11.806
34618SOL    HW2 5752   1.360   5.265  11.904
34619SOL     OW 5753  12.569   1.821  14.805
34619SOL    HW1 5754  12.544   1.770   0.013
34619SOL    HW2 5755  12.531   1.907  14.819
34620SOL     OW 5756   8.556   1.139   9.821
34620SOL    HW1 5757   8.467   1.166   9.797
34620SOL    HW2 5758   8.613   1.198   9.772
34621SOL     OW 5759   0.803  13.728  14.366
34621SOL    HW1 5760   0.714  13.758  14.352
34621SOL    HW2 5761   0.797  13.661  14.434
34622SOL     OW 5762  13.207   9.172  11.689
34622SOL    HW1 5763  13.214   9.261  11.656
34622SOL    HW2 5764  13.116   9.166  11.720
34623SOL     OW 5765  12.342   6.073   4.483
34623SOL    HW1 5766  12.298   6.002   4.529
34623SOL    HW2 5767  12.280   6.145   4.484
34624SOL     OW 5768  11.976   9.092   5.231
34624SOL    HW1 5769  11.940   9.152   5.296
34624SOL    HW2 5770  11.904   9.078   5.170
34625SOL     OW 5771   1.566  10.894  10.776
34625SOL    HW1 5772   1.590  10.872  10.866
34625SOL    HW2 5773   1.556  10.990  10.777
34626SOL     OW 5774  13.936   1.159   8.781
34626SOL    HW1 5775  13.949   1.069   8.750
34626SOL    HW2 5776  14.010   1.175   8.840
34627SOL     OW 5777   1.803   0.819   6.328
34627SOL    HW1 5778   1.803   0.881   6.254
34627SOL    HW2 5779   1.871   0.852   6.386
34628SOL     OW 5780  13.137   4.298   1.621
34628SOL    HW1 5781  13.153   4.388   1.593
34628SOL    HW2 5782  13.138   4.247   1.540
34629SOL     OW 5783   3.854   1.375  12.231
34629SOL    HW1 5784   3.796   1.375  12.155
34629SOL    HW2 5785   3.795   1.372  12.307
34630SOL     OW 5786   6.365   8.823  14.511
34630SOL    HW1 5787   6.435   8.831  14.576
34630SOL    HW2 5788   6.348   8.913  14.483
34631SOL     OW 5789  13.353   0.454   0.063
34631SOL    HW1 5790  13.437   0.416   0.087
34631SOL    HW2 5791  13.311   0.387   0.008
34632SOL     OW 5792   2.876  13.051   9.821
34632SOL    HW1 5793   2.956  13.062   9.770
34632SOL    HW2 5794   2.810  13.025   9.757
34633SOL     OW 5795   2.644   3.604   8.757
34633SOL    HW1 5796   2.602   3.529   8.714
34633SOL    HW2 5797   2.696   3.565   8.827
34634SOL     OW 5798   3.573  11.203  14.233
34634SOL    HW1 5799   3.512  11.263  14.189
34634SOL    HW2 5800   3.639  11.260  14.272
34635SOL     OW 5801   1.869   3.026   2.516
34635SOL    HW1 5802   1.906   2.997   2.599
34635SOL    HW2 5803   1.787   3.070   2.540
34636SOL     OW 5804   0.345   4.813   7.038
34636SOL    HW1 5805   0.278   4.796   6.972
34636SOL    HW2 5806   0.428   4.802   6.991
34637SOL     OW 5807  12.408   7.370   6.885
34637SOL    HW1 5808  12.404   7.324   6.969
34637SOL    HW2 5809  12.484   7.333   6.841
34638SOL     OW 5810  12.058   0.464  12.395
34638SOL    HW1 5811  12.031   0.555  12.414
34638SOL    HW2 5812  12.128   0.473  12.330
34639SOL     OW 5813   0.098   0.587  10.806
34639SOL    HW1 5814   0.178   0.627  10.772
34639SOL    HW2 5815   0.032   0.604  10.738
34640SOL     OW 5816   6.762   9.775   5.831
34640SOL    HW1 5817   6.719   9.838   5.889
34640SOL    HW2 5818   6.719   9.692   5.850
34641SOL     OW 5819   2.919   4.130   8.443
34641SOL    HW1 5820   2.942   4.144   8.535
34641SOL    HW2 5821   2.826   4.154   8.438
34642SOL     OW 5822   6.344  10.953   4.175
34642SOL    HW1 5823   6.255  10.979   4.151
34642SOL    HW2 5824   6.396  10.972   4.097
34643SOL     OW 5825   4.653   4.000   0.847
34643SOL    HW1 5826   4.598   3.931   0.810
34643SOL    HW2 5827   4.657   3.978   0.941
34644SOL     OW 5828   3.392   6.887  11.855
34644SOL    HW1 5829   3.307   6.925  11.833
34644SOL    HW2 5830   3.414   6.925  11.941
34645SOL     OW 5831   2.366  13.332   1.343
34645SOL    HW1 5832   2.323  13.404   1.298
34645SOL    HW2 5833   2.434  13.301   1.283
34646SOL     OW 5834   3.576  13.997  12.675
34646SOL    HW1 5835   3.536  14.005  12.588
34646SOL    HW2 5836   3.650  13.937  12.662
34647SOL     OW 5837   1.293   2.740  12.552
34647SOL    HW1 5838   1.381   2.771  12.531
34647SOL    HW2 5839   1.304   2.690  12.633
34648SOL     OW 5840   3.085   1.398  14.120
34648SOL    HW1 5841   3.094   1.307  14.093
34648SOL    HW2 5842   3.030   1.438  14.054
34649SOL     OW 5843   6.838   6.550   4.090
34649SOL    HW1 5844   6.831   6.471   4.143
34649SOL    HW2 5845   6.881   6.614   4.147
34650SOL     OW 5846   1.838  11.473   6.331
34650SOL    HW1 5847   1.791  11.395   6.301
34650SOL    HW2 5848   1.924  11.440   6.357
34651SOL     OW 5849  12.242   0.820  14.526
34651SOL    HW1 5850  12.184   0.845  14.453
34651SOL    HW2 5851  12.316   0.880  14.519
34652SOL     OW 5852   3.981   5.026   6.508
34652SOL    HW1 5853   4.036   5.050   6.582
34652SOL    HW2 5854   3.918   4.963   6.543
34653SOL     OW 5855   7.769   5.452  14.382
34653SOL    HW1 5856   7.706   5.380  14.388
34653SOL    HW2 5857   7.832   5.423  14.316
34654SOL     OW 5858   3.558   8.751   4.136
34654SOL    HW1 5859   3.490   8.687   4.157
34654SOL    HW2 5860   3.589   8.725   4.050
34655SOL     OW 5861   9.496   7.387  14.574
34655SOL    HW1 5862   9.571   7.327  14.574
34655SOL    HW2 5863   9.535   7.474  14.583
34656SOL     OW 5864   6.256   2.176   5.579
34656SOL    HW1 5865   6.238   2.146   5.669
34656SOL    HW2 5866   6.228   2.267   5.578
34657SOL     OW 5867  14.111   6.333   4.425
34657SOL    HW1 5868  14.085   6.425   4.432
34657SOL    HW2 5869  14.186   6.334   4.366
34658SOL     OW 5870  12.536   6.331  11.169
34658SOL    HW1 5871  12.508   6.284  11.248
34658SOL    HW2 5872  12.566   6.416  11.201
34659SOL     OW 5873   1.890  12.323   2.111
34659SOL    HW1 5874   1.847  12.368   2.183
34659SOL    HW2 5875   1.868  12.230   2.124
34660SOL     OW 5876   4.097   4.970  14.662
34660SOL    HW1 5877   4.068   4.945  14.750
34660SOL    HW2 5878   4.046   5.049  14.641
34661SOL     OW 5879   3.276   2.205  11.894
34661SOL    HW1 5880   3.292   2.113  11.915
34661SOL    HW2 5881   3.189   2.205  11.853
34662SOL     OW 5882   1.843   2.110  10.801
34662SOL    HW1 5883   1.906   2.038  10.806
34662SOL    HW2 5884   1.772   2.084  10.860
34663SOL     OW 5885  11.464  13.845   8.745
34663SOL    HW1 5886  11.541  13.891   8.779
34663SOL    HW2 5887  11.451  13.772   8.806
34664SOL     OW 5888  14.530   7.463   6.000
34664SOL    HW1 5889  14.450   7.461   6.052
34664SOL    HW2 5890  14.575   7.381   6.022
34665SOL     OW 5891   7.301   8.115   9.874
34665SOL    HW1 5892   7.223   8.084   9.919
34665SOL    HW2 5893   7.289   8.089   9.783
34666SOL     OW 5894  12.824   2.306   1.068
34666SOL    HW1 5895  12.791   2.360   0.997
34666SOL    HW2 5896  12.879   2.364   1.120
34667SOL     OW 5897   2.534  14.223  11.148
34667SOL    HW1 5898   2.601  14.288  11.168
34667SOL    HW2 5899   2.460  14.246  11.205
34668SOL     OW 5900  13.214   6.740  14.171
34668SOL    HW1 5901  13.204   6.835  14.180
34668SOL    HW2 5902  13.193   6.705  14.258
34669SOL     OW 5903   5.288  13.087   9.880
34669SOL    HW1 5904   5.208  13.134   9.860
34669SOL    HW2 5905   5.260  13.013   9.934
34670SOL     OW 5906   5.097   0.302  11.868
34670SOL    HW1 5907   5.127   0.342  11.786
34670SOL    HW2 5908   5.063   0.375  11.920
34671SOL     OW 5909  12.765   6.060   8.082
34671SOL    HW1 5910  12.810   6.139   8.053
34671SOL    HW2 5911  12.793   6.048   8.173
34672SOL     OW 5912   1.061  13.360   7.599
34672SOL    HW1 5913   0.967  13.380   7.607
34672SOL    HW2 5914   1.098  13.434   7.551
34673SOL     OW 5915  12.114   7.805   5.241
34673SOL    HW1 5916  12.126   7.855   5.322
34673SOL    HW2 5917  12.025   7.826   5.212
34674SOL     OW 5918   8.626  11.982   6.387
34674SOL    HW1 5919   8.612  11.961   6.294
34674SOL    HW2 5920   8.714  12.019   6.390
34675SOL     OW 5921   8.149  14.506  12.001
34675SOL    HW1 5922   8.103  14.582  11.966
34675SOL    HW2 5923   8.133  14.437  11.936
34676SOL     OW 5924   5.993  11.378  13.828
34676SOL    HW1 5925   6.044  11.354  13.905
34676SOL    HW2 5926   5.905  11.392  13.861
34677SOL     OW 5927  11.265  14.316   8.999
34677SOL    HW1 5928  11.303  14.403   8.987
34677SOL    HW2 5929  11.176  14.324   8.965
34678SOL     OW 5930  14.070   3.723   7.549
34678SOL    HW1 5931  13.992   3.683   7.510
34678SOL    HW2 5932  14.088   3.798   7.493
34679SOL     OW 5933   3.765   3.972   5.046
34679SOL    HW1 5934   3.795   4.025   5.119
34679SOL    HW2 5935   3.809   4.009   4.970
34680SOL     OW 5936   3.565   3.962   4.369
34680SOL    HW1 5937   3.507   4.015   4.314
34680SOL    HW2 5938   3.623   4.026   4.410
34681SOL     OW 5939   5.417   8.509  12.869
34681SOL    HW1 5940   5.322   8.509  12.881
34681SOL    HW2 5941   5.453   8.530  12.956
34682SOL     OW 5942  12.530  12.221  14.462
34682SOL    HW1 5943  12.516  12.229  14.367
34682SOL    HW2 5944  12.623  12.242  14.474
34683SOL     OW 5945  11.138   7.096   5.355
34683SOL    HW1 5946  11.139   7.175   5.409
34683SOL    HW2 5947  11.054   7.100   5.309
34684SOL     OW 5948   7.773   4.197   9.553
34684SOL    HW1 5949   7.757   4.195   9.459
34684SOL    HW2 5950   7.846   4.258   9.564
34685SOL     OW 5951  13.771   6.780   8.994
34685SOL    HW1 5952  13.825   6.703   9.007
34685SOL    HW2 5953  13.831   6.854   9.004
34686SOL     OW 5954   3.102   6.345  13.544
34686SOL    HW1 5955   3.076   6.437  13.548
34686SOL    HW2 5956   3.194   6.346  13.569
34687SOL     OW 5957   7.487   1.835   7.770
34687SOL    HW1 5958   7.404   1.883   7.760
34687SOL    HW2 5959   7.495   1.822   7.865
34688SOL     OW 5960   8.756   3.819   3.599
34688SOL    HW1 5961   8.820   3.811   3.529
34688SOL    HW2 5962   8.686   3.872   3.561
34689SOL     OW 5963   1.792   6.847   6.420
34689SOL    HW1 5964   1.742   6.767   6.432
34689SOL    HW2 5965   1.782   6.869   6.327
34690SOL     OW 5966  10.040   4.116  13.458
34690SOL    HW1 5967  10.091   4.036  13.470
34690SOL    HW2 5968  10.105   4.184  13.441
34691SOL     OW 5969   9.920  10.110   2.216
34691SOL    HW1 5970   9.830  10.098   2.186
34691SOL    HW2 5971   9.969  10.129   2.136
34692SOL     OW 5972  13.629  10.816   8.668
34692SOL    HW1 5973  13.545  10.782   8.700
34692SOL    HW2 5974  13.654  10.757   8.598
34693SOL     OW 5975  11.236   3.201   0.474
34693SOL    HW1 5976  11.249   3.223   0.567
34693SOL    HW2 5977  11.151   3.157   0.472
34694SOL     OW 5978   9.841   8.643  14.209
34694SOL    HW1 5979   9.845   8.649  14.305
34694SOL    HW2 5980   9.891   8.565  14.188
34695SOL     OW 5981  12.541  11.314  14.442
34695SOL    HW1 5982  12.446  11.305  14.448
34695SOL    HW2 5983  12.572  11.302  14.532
34696SOL     OW 5984   5.328   8.623   2.237
34696SOL    HW1 5985   5.305   8.530   2.226
34696SOL    HW2 5986   5.400   8.622   2.300
34697SOL     OW 5987  10.982   7.482   6.127
34697SOL    HW1 5988  10.993   7.508   6.036
34697SOL    HW2 5989  10.888   7.478   6.140
34698SOL     OW 5990   1.000   6.874   7.353
34698SOL    HW1 5991   1.057   6.798   7.356
34698SOL    HW2 5992   0.953   6.873   7.437
34699SOL     OW 5993   6.605  11.235   5.675
34699SOL    HW1 5994   6.608  11.212   5.582
34699SOL    HW2 5995   6.691  11.272   5.693
34700SOL     OW 5996   5.103   4.410   4.086
34700SOL    HW1 5997   5.029   4.471   4.094
34700SOL    HW2 5998   5.133   4.421   3.996
34701SOL     OW 5999  13.778  12.965   4.653
34701SOL    HW1 6000  13.831  12.981   4.731
34701SOL    HW2 6001  13.769  12.870   4.650
34702SOL     OW 6002   3.296   3.710   6.500
34702SOL    HW1 6003   3.305   3.805   6.504
34702SOL    HW2 6004   3.323   3.686   6.411
34703SOL     OW 6005  10.178  14.051   2.837
34703SOL    HW1 6006  10.212  13.965   2.810
34703SOL    HW2 6007  10.193  14.054   2.931
34704SOL     OW 6008  14.680   9.640   4.889
34704SOL    HW1 6009  14.702   9.560   4.938
34704SOL    HW2 6010  14.697   9.711   4.950
34705SOL     OW 6011  11.923  12.352   3.296
34705SOL    HW1 6012  11.877  12.269   3.309
34705SOL    HW2 6013  11.980  12.336   3.221
34706SOL     OW 6014  14.247  10.932   0.289
34706SOL    HW1 6015  14.180  10.998   0.272
34706SOL    HW2 6016  14.310  10.942   0.217
34707SOL     OW 6017   3.158   0.494   1.609
34707SOL    HW1 6018   3.229   0.430   1.603
34707SOL    HW2 6019   3.181   0.549   1.684
34708SOL     OW 6020   4.520   1.805  12.994
34708SOL    HW1 6021   4.444   1.781  13.046
34708SOL    HW2 6022   4.568   1.868  13.047
34709SOL     OW 6023   5.033   8.358  14.176
34709SOL    HW1 6024   5.012   8.318  14.092
34709SOL    HW2 6025   5.085   8.292  14.222
34710SOL     OW 6026  13.735   7.027   8.155
34710SOL    HW1 6027  13.714   7.058   8.243
34710SOL    HW2 6028  13.677   6.952   8.142
34711SOL     OW 6029   7.179   7.294   5.587
34711SOL    HW1 6030   7.245   7.343   5.636
34711SOL    HW2 6031   7.098   7.344   5.599
34712SOL     OW 6032   8.300  14.152   5.453
34712SOL    HW1 6033   8.355  14.134   5.529
34712SOL    HW2 6034   8.314  14.077   5.395
34713SOL     OW 6035   0.342  14.371   9.604
34713SOL    HW1 6036   0.287  14.448   9.588
34713SOL    HW2 6037   0.302  14.302   9.550
34714SOL     OW 6038  11.884  10.679   8.385
34714SOL    HW1 6039  11.879  10.628   8.466
34714SOL    HW2 6040  11.815  10.643   8.329
34715SOL     OW 6041   0.117  12.536   0.685
34715SOL    HW1 6042   0.064  12.615   0.698
34715SOL    HW2 6043   0.172  12.532   0.764
34716SOL     OW 6044  10.660  11.318   3.312
34716SOL    HW1 6045  10.670  11.286   3.222
34716SOL    HW2 6046  10.662  11.239   3.366
34717SOL     OW 6047   5.610   2.731   2.578
34717SOL    HW1 6048   5.601   2.640   2.550
34717SOL    HW2 6049   5.520   2.761   2.592
34718SOL     OW 6050  11.437   7.284   3.144
34718SOL    HW1 6051  11.378   7.215   3.175
34718SOL    HW2 6052  11.384   7.364   3.146
34719SOL     OW 6053   8.033  12.173   4.126
34719SOL    HW1 6054   8.061  12.095   4.078
34719SOL    HW2 6055   8.098  12.183   4.196
34720SOL     OW 6056   1.844  13.888   5.482
34720SOL    HW1 6057   1.920  13.858   5.531
34720SOL    HW2 6058   1.863  13.980   5.462
34721SOL     OW 6059   7.078  11.573   2.593
34721SOL    HW1 6060   7.054  11.606   2.506
34721SOL    HW2 6061   7.089  11.479   2.581
34722SOL     OW 6062  13.516   7.804  13.891
34722SOL    HW1 6063  13.505   7.889  13.848
34722SOL    HW2 6064  13.597   7.769  13.854
34723SOL     OW 6065   0.166   9.960  12.308
34723SOL    HW1 6066   0.147   9.891  12.371
34723SOL    HW2 6067   0.079   9.990  12.280
34724SOL     OW 6068   0.615   0.470  12.564
34724SOL    HW1 6069   0.673   0.429  12.628
34724SOL    HW2 6070   0.591   0.554  12.603
34725SOL     OW 6071   8.617  11.515  13.484
34725SOL    HW1 6072   8.618  11.605  13.518
34725SOL    HW2 6073   8.595  11.461  13.561
34726SOL     OW 6074  13.362   6.114  10.409
34726SOL    HW1 6075  13.402   6.066  10.482
34726SOL    HW2 6076  13.276   6.139  10.442
34727SOL     OW 6077   5.183  10.229   7.119
34727SOL    HW1 6078   5.215  10.253   7.032
34727SOL    HW2 6079   5.189  10.310   7.170
34728SOL     OW 6080  10.407   3.161   5.448
34728SOL    HW1 6081  10.362   3.078   5.433
34728SOL    HW2 6082  10.345   3.228   5.420
34729SOL     OW 6083  10.941   0.855   0.613
34729SOL    HW1 6084  10.887   0.874   0.689
34729SOL    HW2 6085  11.018   0.910   0.623
34730SOL     OW 6086  12.674  13.911   7.186
34730SOL    HW1 6087  12.613  13.970   7.231
34730SOL    HW2 6088  12.653  13.824   7.220
34731SOL     OW 6089  10.706   5.029   9.431
34731SOL    HW1 6090  10.732   5.075   9.351
34731SOL    HW2 6091  10.658   5.095   9.481
34732SOL     OW 6092   8.346   1.377   8.673
34732SOL    HW1 6093   8.345   1.403   8.581
34732SOL    HW2 6094   8.296   1.445   8.718
34733SOL     OW 6095  14.837  11.377   2.776
34733SOL    HW1 6096  14.746  11.365   2.748
34733SOL    HW2 6097  14.836  11.359   2.870
34734SOL     OW 6098   0.288   3.160   0.553
34734SOL    HW1 6099   0.202   3.118   0.544
34734SOL    HW2 6100   0.350   3.096   0.516
34735SOL     OW 6101  10.919   3.027  13.095
34735SOL    HW1 6102  10.895   3.100  13.038
34735SOL    HW2 6103  10.853   2.960  13.076
34736SOL     OW 6104   3.925   0.682   6.643
34736SOL    HW1 6105   3.929   0.747   6.714
34736SOL    HW2 6106   3.965   0.727   6.568
34737SOL     OW 6107   2.087   2.507   2.112
34737SOL    HW1 6108   2.037   2.572   2.064
34737SOL    HW2 6109   2.162   2.554   2.147
34738SOL     OW 6110  10.258  12.601   0.418
34738SOL    HW1 6111  10.168  12.574   0.437
34738SOL    HW2 6112  10.295  12.527   0.370
34739SOL     OW 6113   3.901   6.313   6.025
34739SOL    HW1 6114   3.884   6.378   6.093
34739SOL    HW2 6115   3.991   6.330   5.998
34740SOL     OW 6116   1.901   0.941   4.351
34740SOL    HW1 6117   1.907   0.846   4.348
34740SOL    HW2 6118   1.898   0.968   4.260
34741SOL     OW 6119  13.982  12.715   0.885
34741SOL    HW1 6120  13.892  12.685   0.897
34741SOL    HW2 6121  14.016  12.726   0.973
34742SOL     OW 6122   5.245  14.211  14.800
34742SOL    HW1 6123   5.154  14.239  14.799
34742SOL    HW2 6124   5.255  14.157  14.722
34743SOL     OW 6125  12.695  11.981  12.493
34743SOL    HW1 6126  12.621  12.038  12.514
34743SOL    HW2 6127  12.680  11.956  12.401
34744SOL     OW 6128   1.546  11.665   7.689
34744SOL    HW1 6129   1.634  11.627   7.682
34744SOL    HW2 6130   1.491  11.591   7.715
34745SOL     OW 6131   1.024   1.923   0.016
34745SOL    HW1 6132   1.065   1.962   0.093
34745SOL    HW2 6133   0.997   1.836   0.043
34746SOL     OW 6134   1.302   7.754   7.009
34746SOL    HW1 6135   1.279   7.822   6.947
34746SOL    HW2 6136   1.291   7.794   7.095
34747SOL     OW 6137  13.771   0.838   3.823
34747SOL    HW1 6138  13.722   0.847   3.905
34747SOL    HW2 6139  13.705   0.847   3.754
34748SOL     OW 6140  10.335   3.728   0.637
34748SOL    HW1 6141  10.262   3.717   0.697
34748SOL    HW2 6142  10.336   3.648   0.585
34749SOL     OW 6143  14.354   6.123   0.141
34749SOL    HW1 6144  14.437   6.164   0.119
34749SOL    HW2 6145  14.374   6.066   0.215
34750SOL     OW 6146   9.835   2.593  10.240
34750SOL    HW1 6147   9.916   2.589  10.291
34750SOL    HW2 6148   9.777   2.530  10.283
34751SOL     OW 6149   0.567   4.788   7.253
34751SOL    HW1 6150   0.486   4.738   7.248
34751SOL    HW2 6151   0.554   4.861   7.192
34752SOL     OW 6152   8.237   2.013   6.085
34752SOL    HW1 6153   8.150   1.989   6.053
34752SOL    HW2 6154   8.226   2.024   6.179
34753SOL     OW 6155   0.325   1.696   4.722
34753SOL    HW1 6156   0.311   1.791   4.719
34753SOL    HW2 6157   0.237   1.659   4.712
34754SOL     OW 6158   1.420   0.120   9.908
34754SOL    HW1 6159   1.346   0.085   9.857
34754SOL    HW2 6160   1.486   0.050   9.905
34755SOL     OW 6161   4.644  10.174   2.457
34755SOL    HW1 6162   4.630  10.124   2.377
34755SOL    HW2 6163   4.713  10.236   2.436
34756SOL     OW 6164  11.472   1.980  10.268
34756SOL    HW1 6165  11.474   2.002  10.361
34756SOL    HW2 6166  11.563   1.989  10.239
34757SOL     OW 6167   3.098  12.685  13.856
34757SOL    HW1 6168   3.109  12.780  13.864
34757SOL    HW2 6169   3.131  12.650  13.939
34758SOL     OW 6170   6.605   1.908   7.609
34758SOL    HW1 6171   6.522   1.939   7.644
34758SOL    HW2 6172   6.620   1.963   7.531
34759SOL     OW 6173   3.599   1.561  11.828
34759SOL    HW1 6174   3.519   1.513  11.807
34759SOL    HW2 6175   3.646   1.566  11.745
34760SOL     OW 6176   3.410   8.533  14.278
34760SOL    HW1 6177   3.400   8.459  14.338
34760SOL    HW2 6178   3.382   8.610  14.328
34761SOL     OW 6179   6.729  10.946  13.667
34761SOL    HW1 6180   6.788  11.021  13.655
34761SOL    HW2 6181   6.646  10.985  13.693
34762SOL     OW 6182   3.025  10.603   8.079
34762SOL    HW1 6183   2.962  10.535   8.055
34762SOL    HW2 6184   3.101  10.585   8.024
34763SOL     OW 6185   5.491  12.606  13.564
34763SOL    HW1 6186   5.573  12.653  13.576
34763SOL    HW2 6187   5.516  12.523  13.523
34764SOL     OW 6188  10.774   5.581   1.983
34764SOL    HW1 6189  10.796   5.539   1.900
34764SOL    HW2 6190  10.680   5.569   1.992
34765SOL     OW 6191   7.250   5.476  14.456
34765SOL    HW1 6192   7.276   5.406  14.515
34765SOL    HW2 6193   7.238   5.552  14.513
34766SOL     OW 6194   1.471  13.407  12.550
34766SOL    HW1 6195   1.562  13.435  12.539
34766SOL    HW2 6196   1.463  13.330  12.493
34767SOL     OW 6197   3.934   1.323  12.746
34767SOL    HW1 6198   3.980   1.297  12.666
34767SOL    HW2 6199   3.951   1.254  12.809
34768SOL     OW 6200   7.049   1.053   7.200
34768SOL    HW1 6201   7.139   1.058   7.167
34768SOL    HW2 6202   7.027   1.143   7.224
34769SOL     OW 6203  13.917   1.164   4.360
34769SOL    HW1 6204  13.957   1.159   4.273
34769SOL    HW2 6205  13.983   1.210   4.413
34770SOL     OW 6206  12.928  11.314  13.566
34770SOL    HW1 6207  13.015  11.288  13.533
34770SOL    HW2 6208  12.873  11.317  13.488
34771SOL     OW 6209   6.568   5.996  10.345
34771SOL    HW1 6210   6.581   6.087  10.316
34771SOL    HW2 6211   6.614   5.943  10.280
34772SOL     OW 6212   0.564  14.490  10.179
34772SOL    HW1 6213   0.546  14.584  10.178
34772SOL    HW2 6214   0.507  14.454  10.112
34773SOL     OW 6215   4.783   0.564  14.346
34773SOL    HW1 6216   4.857   0.553  14.406
34773SOL    HW2 6217   4.773   0.659  14.338
34774SOL     OW 6218   1.400  10.355  13.137
34774SOL    HW1 6219   1.348  10.428  13.168
34774SOL    HW2 6220   1.487  10.370  13.172
34775SOL     OW 6221   2.705   5.175  14.068
34775SOL    HW1 6222   2.736   5.187  13.978
34775SOL    HW2 6223   2.612   5.195  14.065
34776SOL     OW 6224  12.306   0.508   8.850
34776SOL    HW1 6225  12.332   0.422   8.816
34776SOL    HW2 6226  12.293   0.493   8.944
34777SOL     OW 6227   0.343   5.532  13.292
34777SOL    HW1 6228   0.438   5.534  13.299
34777SOL    HW2 6229   0.314   5.617  13.325
34778SOL     OW 6230   3.555  10.200  12.609
34778SOL    HW1 6231   3.567  10.114  12.570
34778SOL    HW2 6232   3.616  10.202  12.683
34779SOL     OW 6233   5.837   6.983   0.108
34779SOL    HW1 6234   5.903   6.995   0.176
34779SOL    HW2 6235   5.884   6.940   0.036
34780SOL     OW 6236   9.416  10.667   4.296
34780SOL    HW1 6237   9.396  10.591   4.241
34780SOL    HW2 6238   9.466  10.631   4.370
34781SOL     OW 6239   4.408   4.532  10.660
34781SOL    HW1 6240   4.390   4.587  10.583
34781SOL    HW2 6241   4.504   4.529  10.665
34782SOL     OW 6242  11.608   1.614   2.866
34782SOL    HW1 6243  11.562   1.576   2.792
34782SOL    HW2 6244  11.585   1.557   2.940
34783SOL     OW 6245   0.531   0.712   1.769
34783SOL    HW1 6246   0.528   0.769   1.847
34783SOL    HW2 6247   0.528   0.624   1.805
34784SOL     OW 6248   7.670  12.800   3.780
34784SOL    HW1 6249   7.611  12.793   3.704
34784SOL    HW2 6250   7.752  12.762   3.750
34785SOL     OW 6251  11.092   3.536   9.463
34785SOL    HW1 6252  11.165   3.505   9.409
34785SOL    HW2 6253  11.127   3.537   9.552
34786SOL     OW 6254   2.303   0.002   2.765
34786SOL    HW1 6255   2.385   0.030   2.724
34786SOL    HW2 6256   2.236   0.057   2.724
34787SOL     OW 6257   9.454  14.498  14.005
34787SOL    HW1 6258   9.463  14.421  14.061
34787SOL    HW2 6259   9.364  14.528  14.020
34788SOL     OW 6260   6.350  11.147   8.490
34788SOL    HW1 6261   6.296  11.222   8.515
34788SOL    HW2 6262   6.297  11.099   8.427
34789SOL     OW 6263   4.218   0.348   8.040
34789SOL    HW1 6264   4.208   0.355   8.135
34789SOL    HW2 6265   4.215   0.253   8.023
34790SOL     OW 6266   9.097   4.651  14.540
34790SOL    HW1 6267   9.098   4.579  14.477
34790SOL    HW2 6268   9.162   4.626  14.606
34791SOL     OW 6269   9.433   9.445   9.469
34791SOL    HW1 6270   9.338   9.452   9.469
34791SOL    HW2 6271   9.462   9.509   9.404
34792SOL     OW 6272   6.725   1.077   6.334
34792SOL    HW1 6273   6.710   1.103   6.243
34792SOL    HW2 6274   6.678   0.994   6.344
34793SOL     OW 6275   4.377  14.108  10.185
34793SOL    HW1 6276   4.404  14.186  10.233
34793SOL    HW2 6277   4.416  14.119  10.098
34794SOL     OW 6278   4.089  12.870   0.529
34794SOL    HW1 6279   4.085  12.778   0.502
34794SOL    HW2 6280   4.006  12.886   0.574
34795SOL     OW 6281  12.493   8.999   5.614
34795SOL    HW1 6282  12.523   9.086   5.588
34795SOL    HW2 6283  12.572   8.945   5.612
34796SOL     OW 6284  13.274  13.138   8.445
34796SOL    HW1 6285  13.259  13.232   8.438
34796SOL    HW2 6286  13.355  13.122   8.396
34797SOL     OW 6287  14.279  11.149   1.950
34797SOL    HW1 6288  14.336  11.120   2.021
34797SOL    HW2 6289  14.282  11.245   1.955
34798SOL     OW 6290  14.198   6.488  12.058
34798SOL    HW1 6291  14.225   6.453  12.142
34798SOL    HW2 6292  14.165   6.411  12.010
34799SOL     OW 6293  13.844  11.962   3.793
34799SOL    HW1 6294  13.873  12.051   3.814
34799SOL    HW2 6295  13.832  11.963   3.698
34800SOL     OW 6296   1.473  14.317  10.677
34800SOL    HW1 6297   1.401  14.356  10.726
34800SOL    HW2 6298   1.507  14.388  10.623
34801SOL     OW 6299   1.423   3.425  10.071
34801SOL    HW1 6300   1.377   3.359  10.019
34801SOL    HW2 6301   1.422   3.391  10.160
34802SOL     OW 6302   9.534  12.510   2.514
34802SOL    HW1 6303   9.492  12.534   2.597
34802SOL    HW2 6304   9.483  12.434   2.483
34803SOL     OW 6305  12.901   6.142  12.404
34803SOL    HW1 6306  12.876   6.060  12.361
34803SOL    HW2 6307  12.833   6.204  12.377
34804SOL     OW 6308   5.320   8.730   6.010
34804SOL    HW1 6309   5.292   8.640   5.997
34804SOL    HW2 6310   5.286   8.753   6.097
34805SOL     OW 6311  14.842   7.333   5.530
34805SOL    HW1 6312  14.868   7.304   5.618
34805SOL    HW2 6313   0.009   7.421   5.522
34806SOL     OW 6314   8.113   7.343   5.174
34806SOL    HW1 6315   8.170   7.322   5.248
34806SOL    HW2 6316   8.031   7.297   5.192
34807SOL     OW 6317   3.524   5.116   7.382
34807SOL    HW1 6318   3.593   5.136   7.445
34807SOL    HW2 6319   3.454   5.077   7.435
34808SOL     OW 6320   6.546   2.216   1.825
34808SOL    HW1 6321   6.459   2.220   1.865
34808SOL    HW2 6322   6.594   2.289   1.865
34809SOL     OW 6323   1.102  14.053  12.802
34809SOL    HW1 6324   1.148  14.021  12.723
34809SOL    HW2 6325   1.160  14.119  12.839
34810SOL     OW 6326   7.740   7.417   0.750
34810SOL    HW1 6327   7.646   7.431   0.754
34810SOL    HW2 6328   7.777   7.501   0.778
34811SOL     OW 6329   9.354   0.862   3.210
34811SOL    HW1 6330   9.384   0.806   3.138
34811SOL    HW2 6331   9.366   0.809   3.288
34812SOL     OW 6332  13.166   6.550  11.145
34812SOL    HW1 6333  13.136   6.604  11.219
34812SOL    HW2 6334  13.188   6.466  11.185
34813SOL     OW 6335   1.084  11.991   7.871
34813SOL    HW1 6336   1.141  12.001   7.795
34813SOL    HW2 6337   1.144  11.975   7.944
34814SOL     OW 6338   9.732   5.733   6.818
34814SOL    HW1 6339   9.733   5.725   6.722
34814SOL    HW2 6340   9.643   5.711   6.843
34815SOL     OW 6341   7.443  12.709  13.904
34815SOL    HW1 6342   7.490  12.641  13.857
34815SOL    HW2 6343   7.366  12.727  13.850
34816SOL     OW 6344   3.226   6.102  12.328
34816SOL    HW1 6345   3.208   6.195  12.343
34816SOL    HW2 6346   3.171   6.057  12.393
34817SOL     OW 6347  11.074   6.483   9.621
34817SOL    HW1 6348  11.039   6.397   9.599
34817SOL    HW2 6349  11.141   6.499   9.555
34818SOL     OW 6350   0.401   7.074   2.953
34818SOL    HW1 6351   0.351   7.032   2.884
34818SOL    HW2 6352   0.489   7.085   2.917
34819SOL     OW 6353   9.517  10.774   9.872
34819SOL    HW1 6354   9.597  10.721   9.865
34819SOL    HW2 6355   9.521  10.834   9.798
34820SOL     OW 6356   3.914   3.257   8.724
34820SOL    HW1 6357   3.934   3.173   8.766
34820SOL    HW2 6358   3.985   3.315   8.752
34821SOL     OW 6359   5.085   1.316   6.860
34821SOL    HW1 6360   5.135   1.374   6.802
34821SOL    HW2 6361   5.058   1.243   6.804
34822SOL     OW 6362  11.520   2.181   8.062
34822SOL    HW1 6363  11.503   2.153   7.971
34822SOL    HW2 6364  11.597   2.130   8.088
34823SOL     OW 6365   1.767  10.384  13.838
34823SOL    HW1 6366   1.722  10.410  13.758
34823SOL    HW2 6367   1.810  10.463  13.869
34824SOL     OW 6368   0.579   2.853   4.688
34824SOL    HW1 6369   0.606   2.933   4.642
34824SOL    HW2 6370   0.594   2.872   4.780
34825SOL     OW 6371  11.015   4.767   4.964
34825SOL    HW1 6372  11.067   4.843   4.987
34825SOL    HW2 6373  11.061   4.693   5.004
34826SOL     OW 6374   7.437   7.957  14.482
34826SOL    HW1 6375   7.430   7.863  14.498
34826SOL    HW2 6376   7.419   7.997  14.567
34827SOL     OW 6377  12.136   6.182   2.091
34827SOL    HW1 6378  12.144   6.126   2.168
34827SOL    HW2 6379  12.165   6.127   2.018
34828SOL     OW 6380   7.465  10.051   8.998
34828SOL    HW1 6381   7.491  10.105   8.923
34828SOL    HW2 6382   7.389  10.001   8.967
34829SOL     OW 6383  12.507  14.534   7.688
34829SOL    HW1 6384  12.479  14.509   7.776
34829SOL    HW2 6385  12.600  14.552   7.696
34830SOL     OW 6386   1.399   2.803   5.012
34830SOL    HW1 6387   1.378   2.710   5.023
34830SOL    HW2 6388   1.314   2.847   5.009
34831SOL     OW 6389   1.283   5.853  10.875
34831SOL    HW1 6390   1.219   5.812  10.933
34831SOL    HW2 6391   1.321   5.923  10.929
34832SOL     OW 6392  12.492   4.691   4.525
34832SOL    HW1 6393  12.585   4.704   4.542
34832SOL    HW2 6394  12.467   4.766   4.471
34833SOL     OW 6395   4.988   4.740  13.474
34833SOL    HW1 6396   5.023   4.788  13.399
34833SOL    HW2 6397   4.993   4.802  13.546
34834SOL     OW 6398   2.339   0.675   4.773
34834SOL    HW1 6399   2.300   0.758   4.746
34834SOL    HW2 6400   2.297   0.655   4.857
34835SOL     OW 6401   7.783   7.342   2.732
34835SOL    HW1 6402   7.748   7.404   2.795
34835SOL    HW2 6403   7.877   7.340   2.750
34836SOL     OW 6404   1.020  13.933   4.945
34836SOL    HW1 6405   0.954  13.866   4.963
34836SOL    HW2 6406   1.087  13.919   5.011
34837SOL     OW 6407   5.996   8.687  13.732
34837SOL    HW1 6408   5.991   8.777  13.699
34837SOL    HW2 6409   6.084   8.679  13.769
34838SOL     OW 6410   6.366  11.733   4.690
34838SOL    HW1 6411   6.405  11.768   4.770
34838SOL    HW2 6412   6.272  11.726   4.710
34839SOL     OW 6413   4.093  13.098   3.120
34839SOL    HW1 6414   4.115  13.085   3.212
34839SOL    HW2 6415   4.175  13.128   3.080
34840SOL     OW 6416   2.262  10.067   8.312
34840SOL    HW1 6417   2.220   9.983   8.291
34840SOL    HW2 6418   2.353  10.043   8.330
34841SOL     OW 6419   5.744   9.660   7.971
34841SOL    HW1 6420   5.828   9.700   7.947
34841SOL    HW2 6421   5.680   9.730   7.959
34842SOL     OW 6422  14.314   0.381   5.968
34842SOL    HW1 6423  14.309   0.394   5.873
34842SOL    HW2 6424  14.240   0.430   6.002
34843SOL     OW 6425   5.809   0.722   5.100
34843SOL    HW1 6426   5.873   0.681   5.042
34843SOL    HW2 6427   5.806   0.664   5.176
34844SOL     OW 6428  10.326   7.278   8.323
34844SOL    HW1 6429  10.358   7.217   8.389
34844SOL    HW2 6430  10.272   7.341   8.371
34845SOL     OW 6431   0.064   9.358  14.833
34845SOL    HW1 6432   0.093   9.335  14.745
34845SOL    HW2 6433  14.843   9.327  14.837
34846SOL     OW 6434   0.296   0.351  13.875
34846SOL    HW1 6435   0.309   0.357  13.780
34846SOL    HW2 6436   0.352   0.279  13.903
34847SOL     OW 6437  12.759  12.268   9.275
34847SOL    HW1 6438  12.825  12.304   9.335
34847SOL    HW2 6439  12.808  12.211   9.216
34848SOL     OW 6440  14.680  12.476   5.254
34848SOL    HW1 6441  14.620  12.407   5.225
34848SOL    HW2 6442  14.652  12.497   5.343
34849SOL     OW 6443   5.470  13.851   2.065
34849SOL    HW1 6444   5.493  13.895   2.147
34849SOL    HW2 6445   5.513  13.765   2.072
34850SOL     OW 6446   6.335   6.301   7.943
34850SOL    HW1 6447   6.275   6.261   8.005
34850SOL    HW2 6448   6.372   6.227   7.894
34851SOL     OW 6449   4.048   0.779   2.835
34851SOL    HW1 6450   4.078   0.869   2.821
34851SOL    HW2 6451   4.119   0.736   2.882
34852SOL     OW 6452  14.438   4.556  13.273
34852SOL    HW1 6453  14.396   4.474  13.301
34852SOL    HW2 6454  14.366   4.609  13.240
34853SOL     OW 6455   0.369   1.599   6.892
34853SOL    HW1 6456   0.314   1.647   6.830
34853SOL    HW2 6457   0.345   1.507   6.878
34854SOL     OW 6458   1.095  13.105  10.974
34854SOL    HW1 6459   1.008  13.067  10.957
34854SOL    HW2 6460   1.156  13.040  10.939
34855SOL     OW 6461  12.093   9.955   0.172
34855SOL    HW1 6462  12.088  10.047   0.198
34855SOL    HW2 6463  12.182   9.945   0.138
34856SOL     OW 6464   7.661   0.253   7.389
34856SOL    HW1 6465   7.636   0.284   7.302
34856SOL    HW2 6466   7.757   0.253   7.388
34857SOL     OW 6467   1.517   6.483  10.916
34857SOL    HW1 6468   1.516   6.388  10.926
34857SOL    HW2 6469   1.553   6.497  10.828
34858SOL     OW 6470   9.554   3.012  14.549
34858SOL    HW1 6471   9.480   2.988  14.494
34858SOL    HW2 6472   9.516   3.020  14.637
34859SOL     OW 6473  10.458   8.547   3.907
34859SOL    HW1 6474  10.403   8.469   3.901
34859SOL    HW2 6475  10.526   8.523   3.971
34860SOL     OW 6476   0.713  13.173  10.359
34860SOL    HW1 6477   0.747  13.208  10.277
34860SOL    HW2 6478   0.690  13.250  10.410
34861SOL     OW 6479   0.679   9.516   7.447
34861SOL    HW1 6480   0.766   9.520   7.407
34861SOL    HW2 6481   0.677   9.432   7.492
34862SOL     OW 6482   3.239  12.365   5.813
34862SOL    HW1 6483   3.204  12.449   5.782
34862SOL    HW2 6484   3.173  12.333   5.874
34863SOL     OW 6485   3.906   2.254   9.632
34863SOL    HW1 6486   3.880   2.309   9.706
34863SOL    HW2 6487   3.934   2.317   9.565
34864SOL     OW 6488   6.299  11.243   8.215
34864SOL    HW1 6489   6.336  11.166   8.258
34864SOL    HW2 6490   6.351  11.252   8.135
34865SOL     OW 6491  11.729   3.960  12.474
34865SOL    HW1 6492  11.749   3.960  12.380
34865SOL    HW2 6493  11.778   3.885  12.509
34866SOL     OW 6494  14.835   4.168   4.333
34866SOL    HW1 6495  14.837   4.260   4.359
34866SOL    HW2 6496  14.751   4.158   4.288
34867SOL     OW 6497   8.225   7.813   9.059
34867SOL    HW1 6498   8.302   7.842   9.010
34867SOL    HW2 6499   8.253   7.815   9.151
34868SOL     OW 6500  11.920   5.607  10.710
34868SOL    HW1 6501  11.920   5.675  10.643
34868SOL    HW2 6502  11.828   5.582  10.719
34869SOL     OW 6503  10.023  11.415   7.422
34869SOL    HW1 6504  10.015  11.371   7.338
34869SOL    HW2 6505   9.971  11.495   7.413
34870SOL     OW 6506   4.417   1.539   4.655
34870SOL    HW1 6507   4.414   1.631   4.681
34870SOL    HW2 6508   4.382   1.492   4.730
34871SOL     OW 6509  10.742   8.219   8.808
34871SOL    HW1 6510  10.810   8.271   8.851
34871SOL    HW2 6511  10.776   8.130   8.810
34872SOL     OW 6512   3.899   1.594   0.083
34872SOL    HW1 6513   3.968   1.576   0.147
34872SOL    HW2 6514   3.945   1.627   0.006
34873SOL     OW 6515  10.377   4.489   6.160
34873SOL    HW1 6516  10.324   4.493   6.240
34873SOL    HW2 6517  10.329   4.430   6.102
34874SOL     OW 6518   9.719   7.368   1.136
34874SOL    HW1 6519   9.769   7.362   1.218
34874SOL    HW2 6520   9.784   7.357   1.067
34875SOL     OW 6521   5.508  13.419  13.556
34875SOL    HW1 6522   5.507  13.345  13.496
34875SOL    HW2 6523   5.574  13.395  13.622
34876SOL     OW 6524   2.289  14.664  12.184
34876SOL    HW1 6525   2.285  14.590  12.244
34876SOL    HW2 6526   2.374  14.655  12.140
34877SOL     OW 6527   1.207   6.901  11.781
34877SOL    HW1 6528   1.154   6.891  11.860
34877SOL    HW2 6529   1.143   6.921  11.712
34878SOL     OW 6530   1.100  11.333   2.960
34878SOL    HW1 6531   1.114  11.412   2.908
34878SOL    HW2 6532   1.165  11.270   2.928
34879SOL     OW 6533   9.160  14.232   3.069
34879SOL    HW1 6534   9.093  14.186   3.119
34879SOL    HW2 6535   9.131  14.323   3.068
34880SOL     OW 6536  10.389   0.541  14.216
34880SOL    HW1 6537  10.400   0.535  14.311
34880SOL    HW2 6538  10.362   0.453  14.190
34881SOL     OW 6539   9.422  10.367   5.791
34881SOL    HW1 6540   9.456  10.355   5.880
34881SOL    HW2 6541   9.373  10.286   5.773
34882SOL     OW 6542  10.814   0.568   9.227
34882SOL    HW1 6543  10.778   0.654   9.247
34882SOL    HW2 6544  10.891   0.586   9.173
34883SOL     OW 6545   1.414   6.243   3.774
34883SOL    HW1 6546   1.414   6.284   3.687
34883SOL    HW2 6547   1.332   6.194   3.778
34884SOL     OW 6548  10.125   8.741   7.136
34884SOL    HW1 6549  10.207   8.788   7.120
34884SOL    HW2 6550  10.149   8.670   7.196
34885SOL     OW 6551  12.935  11.846   6.997
34885SOL    HW1 6552  12.862  11.893   7.036
34885SOL    HW2 6553  13.007  11.910   6.994
34886SOL     OW 6554  13.189  14.256   5.672
34886SOL    HW1 6555  13.261  14.318   5.673
34886SOL    HW2 6556  13.120  14.298   5.722
34887SOL     OW 6557  10.417  10.998   1.777
34887SOL    HW1 6558  10.373  10.981   1.860
34887SOL    HW2 6559  10.402  10.918   1.726
34888SOL     OW 6560  11.731  12.833   2.218
34888SOL    HW1 6561  11.813  12.879   2.235
34888SOL    HW2 6562  11.736  12.755   2.272
34889SOL     OW 6563   4.296   5.421  10.331
34889SOL    HW1 6564   4.208   5.457  10.335
34889SOL    HW2 6565   4.312   5.407  10.237
34890SOL     OW 6566   7.130   8.816   7.311
34890SOL    HW1 6567   7.134   8.726   7.281
34890SOL    HW2 6568   7.151   8.868   7.233
34891SOL     OW 6569   8.261   3.499  12.112
34891SOL    HW1 6570   8.302   3.481  12.028
34891SOL    HW2 6571   8.283   3.423  12.166
34892SOL     OW 6572   6.098   0.139   7.640
34892SOL    HW1 6573   6.046   0.059   7.634
34892SOL    HW2 6574   6.153   0.127   7.718
34893SOL     OW 6575   1.248   0.174   5.885
34893SOL    HW1 6576   1.326   0.140   5.928
34893SOL    HW2 6577   1.178   0.112   5.909
34894SOL     OW 6578  10.378   0.493   1.416
34894SOL    HW1 6579  10.410   0.582   1.398
34894SOL    HW2 6580  10.441   0.436   1.372
34895SOL     OW 6581   3.371   3.196  12.030
34895SOL    HW1 6582   3.295   3.226  11.981
34895SOL    HW2 6583   3.335   3.153  12.108
34896SOL     OW 6584   3.536   9.022   4.140
34896SOL    HW1 6585   3.457   9.053   4.096
34896SOL    HW2 6586   3.535   8.928   4.128
34897SOL     OW 6587  10.561  12.154   3.465
34897SOL    HW1 6588  10.571  12.081   3.404
34897SOL    HW2 6589  10.469  12.150   3.492
34898SOL     OW 6590  13.898   8.550  10.543
34898SOL    HW1 6591  13.812   8.516  10.567
34898SOL    HW2 6592  13.904   8.535  10.448
34899SOL     OW 6593   4.234  12.498   0.202
34899SOL    HW1 6594   4.291  12.421   0.208
34899SOL    HW2 6595   4.147  12.463   0.183
34900SOL     OW 6596   4.069   6.350   0.126
34900SOL    HW1 6597   3.997   6.405   0.158
34900SOL    HW2 6598   4.142   6.410   0.112
34901SOL     OW 6599   2.318  12.482   7.214
34901SOL    HW1 6600   2.351  12.473   7.125
34901SOL    HW2 6601   2.230  12.444   7.211
34902SOL     OW 6602   7.822   7.298   7.462
34902SOL    HW1 6603   7.847   7.273   7.373
34902SOL    HW2 6604   7.732   7.266   7.472
34903SOL     OW 6605   4.347   7.926   4.678
34903SOL    HW1 6606   4.347   7.979   4.598
34903SOL    HW2 6607   4.352   7.836   4.647
34904SOL     OW 6608  11.813   1.335  14.836
34904SOL    HW1 6609  11.842   1.400   0.030
34904SOL    HW2 6610  11.821   1.379  14.751
34905SOL     OW 6611   7.556   4.408  10.344
34905SOL    HW1 6612   7.637   4.404  10.293
34905SOL    HW2 6613   7.486   4.405  10.279
34906SOL     OW 6614   0.468  10.682   0.217
34906SOL    HW1 6615   0.381  10.652   0.189
34906SOL    HW2 6616   0.529  10.638   0.158
34907SOL     OW 6617   4.819   6.260  13.761
34907SOL    HW1 6618   4.822   6.267  13.856
34907SOL    HW2 6619   4.860   6.341  13.730
34908SOL     OW 6620   4.680   5.235  10.208
34908SOL    HW1 6621   4.605   5.201  10.159
34908SOL    HW2 6622   4.736   5.273  10.140
34909SOL     OW 6623   0.962   0.953   9.162
34909SOL    HW1 6624   0.910   0.897   9.104
34909SOL    HW2 6625   0.917   1.038   9.158
34910SOL     OW 6626  12.330   1.781  10.468
34910SOL    HW1 6627  12.336   1.840  10.543
34910SOL    HW2 6628  12.237   1.780  10.446
34911SOL     OW 6629   1.069   6.292   4.837
34911SOL    HW1 6630   1.104   6.282   4.925
34911SOL    HW2 6631   1.107   6.375   4.806
34912SOL     OW 6632   2.502   0.476  12.968
34912SOL    HW1 6633   2.585   0.439  12.939
34912SOL    HW2 6634   2.526   0.554  13.019
34913SOL     OW 6635   7.099   2.334   8.149
34913SOL    HW1 6636   7.008   2.304   8.144
34913SOL    HW2 6637   7.092   2.430   8.152
34914SOL     OW 6638   8.159   5.313   1.341
34914SOL    HW1 6639   8.076   5.326   1.387
34914SOL    HW2 6640   8.206   5.248   1.394
34915SOL     OW 6641   4.124   6.597  13.638
34915SOL    HW1 6642   4.097   6.557  13.721
34915SOL    HW2 6643   4.202   6.649  13.661
34916SOL     OW 6644   8.570  13.216  12.567
34916SOL    HW1 6645   8.617  13.297  12.546
34916SOL    HW2 6646   8.480  13.233  12.540
34917SOL     OW 6647  10.963  14.794  13.497
34917SOL    HW1 6648  10.880  14.830  13.527
34917SOL    HW2 6649  11.017   0.001  13.476
34918SOL     OW 6650   3.149   4.221   2.840
34918SOL    HW1 6651   3.143   4.131   2.873
34918SOL    HW2 6652   3.160   4.274   2.919
34919SOL     OW 6653   3.766   1.751   6.398
34919SOL    HW1 6654   3.672   1.736   6.411
34919SOL    HW2 6655   3.778   1.748   6.303
34920SOL     OW 6656   6.529   4.342   1.285
34920SOL    HW1 6657   6.539   4.437   1.283
34920SOL    HW2 6658   6.609   4.308   1.245
34921SOL     OW 6659  13.577   1.128  12.342
34921SOL    HW1 6660  13.606   1.054  12.289
34921SOL    HW2 6661  13.658   1.161  12.383
34922SOL     OW 6662   7.213   2.479   7.415
34922SOL    HW1 6663   7.198   2.488   7.510
34922SOL    HW2 6664   7.130   2.506   7.376
34923SOL     OW 6665  11.193   9.311   5.562
34923SOL    HW1 6666  11.187   9.396   5.607
34923SOL    HW2 6667  11.271   9.319   5.507
34924SOL     OW 6668   9.081   4.854  12.226
34924SOL    HW1 6669   9.111   4.850  12.136
34924SOL    HW2 6670   9.156   4.822  12.278
34925SOL     OW 6671   9.698   6.765   8.715
34925SOL    HW1 6672   9.739   6.752   8.629
34925SOL    HW2 6673   9.615   6.807   8.696
34926SOL     OW 6674  14.836  12.742   5.283
34926SOL    HW1 6675  14.801  12.653   5.278
34926SOL    HW2 6676  14.759  12.798   5.275
34927SOL     OW 6677   2.965   1.377   4.440
34927SOL    HW1 6678   3.008   1.291   4.443
34927SOL    HW2 6679   3.033   1.437   4.410
34928SOL     OW 6680  13.407   2.830   5.081
34928SOL    HW1 6681  13.442   2.771   5.014
34928SOL    HW2 6682  13.427   2.788   5.164
34929SOL     OW 6683  11.937  11.009   5.993
34929SOL    HW1 6684  11.947  11.010   6.088
34929SOL    HW2 6685  11.844  10.991   5.979
34930SOL     OW 6686  11.040  13.129  11.436
34930SOL    HW1 6687  10.947  13.143  11.453
34930SOL    HW2 6688  11.084  13.153  11.517
34931SOL     OW 6689  14.284  12.164  12.175
34931SOL    HW1 6690  14.311  12.104  12.244
34931SOL    HW2 6691  14.232  12.231  12.219
34932SOL     OW 6692   8.387   8.330  14.269
34932SOL    HW1 6693   8.407   8.407  14.215
34932SOL    HW2 6694   8.447   8.263  14.237
34933SOL     OW 6695   6.100   5.207   9.479
34933SOL    HW1 6696   6.009   5.236   9.476
34933SOL    HW2 6697   6.110   5.168   9.566
34934SOL     OW 6698   7.480   6.575   6.385
34934SOL    HW1 6699   7.524   6.552   6.467
34934SOL    HW2 6700   7.465   6.669   6.391
34935SOL     OW 6701  10.437  11.210   9.911
34935SOL    HW1 6702  10.414  11.259   9.833
34935SOL    HW2 6703  10.459  11.278   9.976
34936SOL     OW 6704   8.067  14.006   0.744
34936SOL    HW1 6705   8.112  13.942   0.799
34936SOL    HW2 6706   8.036  13.956   0.669
34937SOL     OW 6707   7.965  12.585   4.767
34937SOL    HW1 6708   8.048  12.570   4.723
34937SOL    HW2 6709   7.976  12.669   4.813
34938SOL     OW 6710   2.760  14.244   1.344
34938SOL    HW1 6711   2.833  14.220   1.401
34938SOL    HW2 6712   2.690  14.184   1.368
34939SOL     OW 6713  11.293  13.674  12.594
34939SOL    HW1 6714  11.338  13.592  12.572
34939SOL    HW2 6715  11.318  13.734  12.524
34940SOL     OW 6716   0.846   5.486   9.057
34940SOL    HW1 6717   0.781   5.556   9.052
34940SOL    HW2 6718   0.806   5.413   9.010
34941SOL     OW 6719   7.506   0.477   7.502
34941SOL    HW1 6720   7.457   0.419   7.560
34941SOL    HW2 6721   7.570   0.420   7.459
34942SOL     OW 6722   2.275  12.863  12.594
34942SOL    HW1 6723   2.201  12.895  12.543
34942SOL    HW2 6724   2.307  12.787  12.546
34943SOL     OW 6725   5.243  12.181  11.022
34943SOL    HW1 6726   5.297  12.113  11.062
34943SOL    HW2 6727   5.294  12.261  11.034
34944SOL     OW 6728   8.335   2.581  11.517
34944SOL    HW1 6729   8.305   2.663  11.478
34944SOL    HW2 6730   8.418   2.603  11.558
34945SOL     OW 6731  13.746  14.315  11.305
34945SOL    HW1 6732  13.686  14.251  11.267
34945SOL    HW2 6733  13.722  14.398  11.265
34946SOL     OW 6734  10.279   4.261   3.415
34946SOL    HW1 6735  10.185   4.266   3.399
34946SOL    HW2 6736  10.318   4.245   3.329
34947SOL     OW 6737   5.186  13.052   2.274
34947SOL    HW1 6738   5.251  13.003   2.224
34947SOL    HW2 6739   5.228  13.071   2.357
34948SOL     OW 6740   5.393   6.792   7.562
34948SOL    HW1 6741   5.481   6.820   7.534
34948SOL    HW2 6742   5.373   6.717   7.506
34949SOL     OW 6743  12.178  12.063   3.473
34949SOL    HW1 6744  12.268  12.076   3.502
34949SOL    HW2 6745  12.132  12.142   3.502
34950SOL     OW 6746   6.871  14.119  10.328
34950SOL    HW1 6747   6.877  14.044  10.387
34950SOL    HW2 6748   6.858  14.194  10.386
34951SOL     OW 6749   0.588   8.977   0.957
34951SOL    HW1 6750   0.561   9.055   0.908
34951SOL    HW2 6751   0.524   8.910   0.932
34952SOL     OW 6752  12.119   7.919   1.271
34952SOL    HW1 6753  12.150   7.875   1.192
34952SOL    HW2 6754  12.121   7.851   1.338
34953SOL     OW 6755  10.312   2.494   8.827
34953SOL    HW1 6756  10.352   2.484   8.914
34953SOL    HW2 6757  10.272   2.581   8.829
34954SOL     OW 6758  14.562  10.330   0.035
34954SOL    HW1 6759  14.653  10.309   0.013
34954SOL    HW2 6760  14.568  10.375   0.120
34955SOL     OW 6761   9.990   2.744  13.338
34955SOL    HW1 6762   9.922   2.717  13.399
34955SOL    HW2 6763   9.994   2.839  13.346
34956SOL     OW 6764   6.577   1.841   4.750
34956SOL    HW1 6765   6.521   1.836   4.827
34956SOL    HW2 6766   6.527   1.891   4.686
34957SOL     OW 6767  12.673  14.682   1.083
34957SOL    HW1 6768  12.582  14.656   1.071
34957SOL    HW2 6769  12.670  14.753   1.147
34958SOL     OW 6770  14.273  12.376  11.856
34958SOL    HW1 6771  14.315  12.323  11.924
34958SOL    HW2 6772  14.346  12.407  11.802
34959SOL     OW 6773   4.264   2.415   5.131
34959SOL    HW1 6774   4.244   2.345   5.068
34959SOL    HW2 6775   4.265   2.495   5.078
34960SOL     OW 6776   5.747  13.604   5.587
34960SOL    HW1 6777   5.757  13.689   5.630
34960SOL    HW2 6778   5.830  13.591   5.540
34961SOL     OW 6779   4.923   6.565   5.059
34961SOL    HW1 6780   4.979   6.500   5.016
34961SOL    HW2 6781   4.955   6.649   5.027
34962SOL     OW 6782   5.822   3.650   6.926
34962SOL    HW1 6783   5.799   3.733   6.969
34962SOL    HW2 6784   5.798   3.583   6.990
34963SOL     OW 6785  12.892   3.142   5.700
34963SOL    HW1 6786  12.800   3.166   5.685
34963SOL    HW2 6787  12.904   3.063   5.648
34964SOL     OW 6788   3.563   5.937   9.991
34964SOL    HW1 6789   3.514   5.942  10.073
34964SOL    HW2 6790   3.632   5.872  10.008
34965SOL     OW 6791   5.903  11.115   6.313
34965SOL    HW1 6792   5.851  11.034   6.308
34965SOL    HW2 6793   5.981  11.090   6.362
34966SOL     OW 6794   6.606   9.369   3.182
34966SOL    HW1 6795   6.616   9.320   3.264
34966SOL    HW2 6796   6.695   9.394   3.157
34967SOL     OW 6797  10.647   8.085  14.353
34967SOL    HW1 6798  10.686   8.003  14.324
34967SOL    HW2 6799  10.625   8.070  14.445
34968SOL     OW 6800   5.022   8.251   5.718
34968SOL    HW1 6801   5.074   8.219   5.792
34968SOL    HW2 6802   5.074   8.323   5.682
34969SOL     OW 6803   7.486  13.293  10.502
34969SOL    HW1 6804   7.427  13.311  10.575
34969SOL    HW2 6805   7.561  13.250  10.542
34970SOL     OW 6806   9.197  14.555  12.827
34970SOL    HW1 6807   9.181  14.466  12.860
34970SOL    HW2 6808   9.217  14.544  12.735
34971SOL     OW 6809   4.762   5.219   1.241
34971SOL    HW1 6810   4.833   5.218   1.176
34971SOL    HW2 6811   4.683   5.205   1.190
34972SOL     OW 6812  11.979   3.604  12.143
34972SOL    HW1 6813  11.984   3.666  12.215
34972SOL    HW2 6814  12.058   3.552  12.150
34973SOL     OW 6815  12.882  11.910   1.183
34973SOL    HW1 6816  12.859  11.909   1.090
34973SOL    HW2 6817  12.813  11.858   1.225
34974SOL     OW 6818   7.457   1.430   1.643
34974SOL    HW1 6819   7.540   1.462   1.679
34974SOL    HW2 6820   7.456   1.462   1.553
34975SOL     OW 6821   1.813   9.954  12.808
34975SOL    HW1 6822   1.812  10.004  12.890
34975SOL    HW2 6823   1.725   9.919  12.800
34976SOL     OW 6824   1.553   6.354   1.085
34976SOL    HW1 6825   1.588   6.286   1.027
34976SOL    HW2 6826   1.618   6.424   1.081
34977SOL     OW 6827   1.575   5.775  11.485
34977SOL    HW1 6828   1.539   5.719  11.554
34977SOL    HW2 6829   1.611   5.851  11.531
34978SOL     OW 6830  10.102  12.500   7.697
34978SOL    HW1 6831  10.019  12.466   7.665
34978SOL    HW2 6832  10.082  12.537   7.783
34979SOL     OW 6833  13.763  10.713   0.647
34979SOL    HW1 6834  13.772  10.714   0.742
34979SOL    HW2 6835  13.668  10.719   0.632
34980SOL     OW 6836  14.534   7.479  10.600
34980SOL    HW1 6837  14.612   7.473  10.544
34980SOL    HW2 6838  14.509   7.572  10.595
34981SOL     OW 6839  11.628   0.741   9.247
34981SOL    HW1 6840  11.711   0.779   9.276
34981SOL    HW2 6841  11.639   0.647   9.261
34982SOL     OW 6842   1.766   0.459   7.307
34982SOL    HW1 6843   1.695   0.421   7.255
34982SOL    HW2 6844   1.723   0.503   7.379
34983SOL     OW 6845  12.110   3.625   6.549
34983SOL    HW1 6846  12.078   3.574   6.475
34983SOL    HW2 6847  12.108   3.716   6.519
34984SOL     OW 6848  11.335   6.437   2.302
34984SOL    HW1 6849  11.303   6.471   2.219
34984SOL    HW2 6850  11.328   6.342   2.293
34985SOL     OW 6851   5.322  13.900   7.978
34985SOL    HW1 6852   5.371  13.947   7.911
34985SOL    HW2 6853   5.364  13.814   7.983
34986SOL     OW 6854   4.552  14.798  12.866
34986SOL    HW1 6855   4.504  14.795  12.783
34986SOL    HW2 6856   4.493  14.840  12.927
34987SOL     OW 6857   7.498  14.043   3.839
34987SOL    HW1 6858   7.507  14.100   3.915
34987SOL    HW2 6859   7.403  14.041   3.822
34988SOL     OW 6860  10.568   6.201   0.304
34988SOL    HW1 6861  10.473   6.203   0.317
34988SOL    HW2 6862  10.590   6.108   0.295
34989SOL     OW 6863   4.273   3.572   1.022
34989SOL    HW1 6864   4.276   3.664   0.996
34989SOL    HW2 6865   4.325   3.526   0.956
34990SOL     OW 6866   1.862   2.256  10.571
34990SOL    HW1 6867   1.834   2.244  10.662
34990SOL    HW2 6868   1.809   2.195  10.521
34991SOL     OW 6869  12.913   2.832   0.902
34991SOL    HW1 6870  12.970   2.909   0.914
34991SOL    HW2 6871  12.950   2.788   0.826
34992SOL     OW 6872   1.264   1.635  13.241
34992SOL    HW1 6873   1.298   1.663  13.325
34992SOL    HW2 6874   1.321   1.675  13.176
34993SOL     OW 6875   6.703  10.459  14.664
34993SOL    HW1 6876   6.626  10.428  14.616
34993SOL    HW2 6877   6.727  10.385  14.720
34994SOL     OW 6878  14.449  12.232   7.337
34994SOL    HW1 6879  14.371  12.268   7.379
34994SOL    HW2 6880  14.419  12.148   7.300
34995SOL     OW 6881  13.598  13.160  13.817
34995SOL    HW1 6882  13.528  13.191  13.875
34995SOL    HW2 6883  13.679  13.194  13.856
34996SOL     OW 6884   6.295   7.402   0.351
34996SOL    HW1 6885   6.325   7.424   0.439
34996SOL    HW2 6886   6.335   7.317   0.333
34997SOL     OW 6887  13.347   6.410   3.500
34997SOL    HW1 6888  13.261   6.369   3.494
34997SOL    HW2 6889  13.409   6.337   3.492
34998SOL     OW 6890  12.540   9.707   9.365
34998SOL    HW1 6891  12.542   9.776   9.431
34998SOL    HW2 6892  12.632   9.691   9.344
34999SOL     OW 6893   2.676  14.196   6.456
34999SOL    HW1 6894   2.766  14.219   6.480
34999SOL    HW2 6895   2.624  14.216   6.534
35000SOL     OW 6896  12.245   2.952  11.294
35000SOL    HW1 6897  12.156   2.986  11.288
35000SOL    HW2 6898  12.291   2.991  11.219
35001SOL     OW 6899  11.693   3.488   0.590
35001SOL    HW1 6900  11.781   3.517   0.613
35001SOL    HW2 6901  11.635   3.550   0.636
35002SOL     OW 6902  14.728  11.065  14.223
35002SOL    HW1 6903  14.698  11.107  14.304
35002SOL    HW2 6904  14.672  11.103  14.154
35003SOL     OW 6905   4.750   8.804   6.606
35003SOL    HW1 6906   4.743   8.709   6.602
35003SOL    HW2 6907   4.843   8.822   6.595
35004SOL     OW 6908   3.074   9.071   1.560
35004SOL    HW1 6909   3.012   9.103   1.495
35004SOL    HW2 6910   3.029   8.998   1.602
35005SOL     OW 6911   1.278   3.127   3.263
35005SOL    HW1 6912   1.282   3.045   3.213
35005SOL    HW2 6913   1.361   3.130   3.310
35006SOL     OW 6914   4.218   6.684  14.350
35006SOL    HW1 6915   4.136   6.721  14.382
35006SOL    HW2 6916   4.275   6.681  14.426
35007SOL     OW 6917  12.744  11.744  12.051
35007SOL    HW1 6918  12.820  11.720  11.998
35007SOL    HW2 6919  12.745  11.682  12.124
35008SOL     OW 6920   3.009   9.375   7.116
35008SOL    HW1 6921   2.930   9.411   7.157
35008SOL    HW2 6922   3.008   9.412   7.028
35009SOL     OW 6923  14.560   8.523   8.008
35009SOL    HW1 6924  14.573   8.462   8.081
35009SOL    HW2 6925  14.500   8.478   7.949
35010SOL     OW 6926   1.100  11.745   6.451
35010SOL    HW1 6927   1.075  11.837   6.451
35010SOL    HW2 6928   1.131  11.728   6.362
35011SOL     OW 6929  12.671   7.665   3.434
35011SOL    HW1 6930  12.712   7.746   3.405
35011SOL    HW2 6931  12.729   7.596   3.402
35012SOL     OW 6932  12.480   8.974  12.436
35012SOL    HW1 6933  12.518   8.887  12.433
35012SOL    HW2 6934  12.459   8.994  12.344
35013SOL     OW 6935  14.075   1.310   2.628
35013SOL    HW1 6936  14.097   1.403   2.627
35013SOL    HW2 6937  14.116   1.276   2.708
35014SOL     OW 6938   6.184  10.224   0.302
35014SOL    HW1 6939   6.269  10.214   0.258
35014SOL    HW2 6940   6.199  10.295   0.365
35015SOL     OW 6941   8.046  13.300   1.769
35015SOL    HW1 6942   8.028  13.225   1.712
35015SOL    HW2 6943   8.141  13.306   1.772
35016SOL     OW 6944   3.899   1.352   4.011
35016SOL    HW1 6945   3.868   1.277   3.959
35016SOL    HW2 6946   3.993   1.355   3.994
35017SOL     OW 6947   8.376   7.493   7.431
35017SOL    HW1 6948   8.301   7.539   7.395
35017SOL    HW2 6949   8.338   7.419   7.479
35018SOL     OW 6950  12.504   8.821   8.543
35018SOL    HW1 6951  12.452   8.879   8.599
35018SOL    HW2 6952  12.439   8.775   8.489
35019SOL     OW 6953   0.587   9.988  11.568
35019SOL    HW1 6954   0.606   9.896  11.583
35019SOL    HW2 6955   0.511   9.988  11.510
35020SOL     OW 6956   8.615   6.685   8.567
35020SOL    HW1 6957   8.597   6.635   8.647
35020SOL    HW2 6958   8.553   6.651   8.503
35021SOL     OW 6959   6.401  10.884  11.830
35021SOL    HW1 6960   6.461  10.820  11.869
35021SOL    HW2 6961   6.333  10.831  11.789
35022SOL     OW 6962  14.377  12.965  14.402
35022SOL    HW1 6963  14.368  13.028  14.331
35022SOL    HW2 6964  14.364  13.016  14.482
35023SOL     OW 6965  11.353   5.992   2.048
35023SOL    HW1 6966  11.374   5.993   2.141
35023SOL    HW2 6967  11.434   5.966   2.004
35024SOL     OW 6968   4.504   3.550   8.522
35024SOL    HW1 6969   4.538   3.633   8.487
35024SOL    HW2 6970   4.413   3.546   8.491
35025SOL     OW 6971   5.360   5.217   9.208
35025SOL    HW1 6972   5.330   5.164   9.134
35025SOL    HW2 6973   5.298   5.197   9.278
35026SOL     OW 6974  14.448   5.941   9.091
35026SOL    HW1 6975  14.426   5.914   9.002
35026SOL    HW2 6976  14.416   5.870   9.146
35027SOL     OW 6977   7.287   3.053   6.316
35027SOL    HW1 6978   7.340   3.128   6.344
35027SOL    HW2 6979   7.296   2.989   6.386
35028SOL     OW 6980  10.706  11.777   5.287
35028SOL    HW1 6981  10.695  11.720   5.362
35028SOL    HW2 6982  10.778  11.835   5.311
35029SOL     OW 6983   7.530   4.478   9.311
35029SOL    HW1 6984   7.534   4.459   9.217
35029SOL    HW2 6985   7.597   4.545   9.325
35030SOL     OW 6986   3.144   6.095  12.018
35030SOL    HW1 6987   3.150   6.081  11.924
35030SOL    HW2 6988   3.124   6.009  12.055
35031SOL     OW 6989   1.422  12.059  13.250
35031SOL    HW1 6990   1.460  12.016  13.174
35031SOL    HW2 6991   1.481  12.132  13.268
35032SOL     OW 6992   7.709   5.462   1.944
35032SOL    HW1 6993   7.649   5.393   1.914
35032SOL    HW2 6994   7.675   5.487   2.030
35033SOL     OW 6995   3.110   1.320   6.119
35033SOL    HW1 6996   3.030   1.275   6.094
35033SOL    HW2 6997   3.149   1.348   6.037
35034SOL     OW 6998   6.246   9.759  11.570
35034SOL    HW1 6999   6.292   9.781  11.650
35034SOL    HW2 7000   6.314   9.728  11.510
35035SOL     OW 7001   0.578   0.058   0.075
35035SOL    HW1 7002   0.561  14.847   0.027
35035SOL    HW2 7003   0.494   0.103   0.078
35036SOL     OW 7004  14.279   9.982   5.843
35036SOL    HW1 7005  14.289   9.939   5.758
35036SOL    HW2 7006  14.276   9.910   5.906
35037SOL     OW 7007  13.289   5.599   7.458
35037SOL    HW1 7008  13.291   5.673   7.397
35037SOL    HW2 7009  13.340   5.531   7.414
35038SOL     OW 7010  13.687  10.170   8.178
35038SOL    HW1 7011  13.595  10.143   8.188
35038SOL    HW2 7012  13.704  10.161   8.085
35039SOL     OW 7013   5.120   4.988   6.073
35039SOL    HW1 7014   5.047   4.927   6.065
35039SOL    HW2 7015   5.107   5.051   6.002
35040SOL     OW 7016   0.304  11.192   3.063
35040SOL    HW1 7017   0.381  11.185   3.119
35040SOL    HW2 7018   0.316  11.123   2.997
35041SOL     OW 7019  10.899   0.173   3.585
35041SOL    HW1 7020  10.874   0.097   3.638
35041SOL    HW2 7021  10.896   0.141   3.495
35042SOL     OW 7022   6.148   7.148  11.640
35042SOL    HW1 7023   6.110   7.229  11.673
35042SOL    HW2 7024   6.074   7.100  11.602
35043SOL     OW 7025   6.800   0.432   0.129
35043SOL    HW1 7026   6.742   0.358   0.145
35043SOL    HW2 7027   6.777   0.496   0.196
35044SOL     OW 7028   9.586   3.057   3.074
35044SOL    HW1 7029   9.493   3.079   3.082
35044SOL    HW2 7030   9.608   3.081   2.984
35045SOL     OW 7031   8.092   4.952  10.008
35045SOL    HW1 7032   8.158   4.990   9.950
35045SOL    HW2 7033   8.141   4.925  10.086
35046SOL     OW 7034  14.108   2.823  10.268
35046SOL    HW1 7035  14.019   2.857  10.260
35046SOL    HW2 7036  14.163   2.890  10.228
35047SOL     OW 7037  10.041   9.021   0.094
35047SOL    HW1 7038  10.092   8.951   0.052
35047SOL    HW2 7039   9.977   9.047   0.028
35048SOL     OW 7040   7.262  14.456   5.419
35048SOL    HW1 7041   7.261  14.551   5.426
35048SOL    HW2 7042   7.241  14.424   5.507
35049SOL     OW 7043  14.389   6.414   6.728
35049SOL    HW1 7044  14.481   6.387   6.730
35049SOL    HW2 7045  14.366   6.416   6.636
35050SOL     OW 7046   9.882   2.211   5.241
35050SOL    HW1 7047   9.870   2.129   5.288
35050SOL    HW2 7048   9.841   2.277   5.297
35051SOL     OW 7049   5.068   5.260  13.261
35051SOL    HW1 7050   5.117   5.259  13.179
35051SOL    HW2 7051   5.010   5.336  13.253
35052SOL     OW 7052   7.467   8.970   7.859
35052SOL    HW1 7053   7.521   8.991   7.935
35052SOL    HW2 7054   7.519   8.908   7.808
35053SOL     OW 7055  14.863   9.895   7.087
35053SOL    HW1 7056  14.798   9.852   7.142
35053SOL    HW2 7057   0.046   9.947   7.147
35054SOL     OW 7058   0.670  14.712  13.350
35054SOL    HW1 7059   0.663  14.786  13.290
35054SOL    HW2 7060   0.611  14.646  13.314
35055SOL     OW 7061  14.539   4.467  13.689
35055SOL    HW1 7062  14.628   4.489  13.715
35055SOL    HW2 7063  14.484   4.527  13.739
35056SOL     OW 7064   3.321  11.122   0.319
35056SOL    HW1 7065   3.273  11.205   0.321
35056SOL    HW2 7066   3.387  11.131   0.388
35057SOL     OW 7067   9.558  12.743  13.939
35057SOL    HW1 7068   9.471  12.781  13.955
35057SOL    HW2 7069   9.619  12.810  13.968
35058SOL     OW 7070   2.540   3.491  14.854
35058SOL    HW1 7071   2.577   3.568  14.812
35058SOL    HW2 7072   2.547   3.509   0.078
35059SOL     OW 7073   8.270   1.195   4.671
35059SOL    HW1 7074   8.192   1.164   4.625
35059SOL    HW2 7075   8.312   1.254   4.609
35060SOL     OW 7076  14.495  14.148  12.241
35060SOL    HW1 7077  14.513  14.151  12.335
35060SOL    HW2 7078  14.495  14.055  12.219
35061SOL     OW 7079   1.619  11.977   8.436
35061SOL    HW1 7080   1.706  12.017   8.435
35061SOL    HW2 7081   1.583  12.001   8.521
35062SOL     OW 7082   2.391   7.730  13.360
35062SOL    HW1 7083   2.343   7.797  13.313
35062SOL    HW2 7084   2.341   7.649  13.345
35063SOL     OW 7085   9.163   7.504   1.357
35063SOL    HW1 7086   9.153   7.414   1.326
35063SOL    HW2 7087   9.101   7.554   1.304
35064SOL     OW 7088   8.644  10.556   3.972
35064SOL    HW1 7089   8.602  10.619   3.913
35064SOL    HW2 7090   8.673  10.609   4.046
35065SOL     OW 7091  12.531  14.671   9.639
35065SOL    HW1 7092  12.486  14.747   9.677
35065SOL    HW2 7093  12.521  14.602   9.705
35066SOL     OW 7094   7.227   8.903   2.038
35066SOL    HW1 7095   7.310   8.860   2.056
35066SOL    HW2 7096   7.169   8.832   2.009
35067SOL     OW 7097  11.663   6.106   9.149
35067SOL    HW1 7098  11.677   6.088   9.056
35067SOL    HW2 7099  11.602   6.038   9.178
35068SOL     OW 7100  13.305  13.606   7.552
35068SOL    HW1 7101  13.247  13.671   7.512
35068SOL    HW2 7102  13.332  13.646   7.635
35069SOL     OW 7103   4.718  12.449   4.506
35069SOL    HW1 7104   4.672  12.425   4.587
35069SOL    HW2 7105   4.753  12.367   4.473
35070SOL     OW 7106   6.942   5.721  12.202
35070SOL    HW1 7107   7.012   5.663  12.233
35070SOL    HW2 7108   6.865   5.691  12.250
35071SOL     OW 7109  10.358  13.341   8.603
35071SOL    HW1 7110  10.410  13.265   8.626
35071SOL    HW2 7111  10.409  13.386   8.536
35072SOL     OW 7112   7.089   7.637  14.594
35072SOL    HW1 7113   7.029   7.710  14.608
35072SOL    HW2 7114   7.099   7.598  14.681
35073SOL     OW 7115  11.568   2.082   6.669
35073SOL    HW1 7116  11.481   2.114   6.646
35073SOL    HW2 7117  11.562   1.987   6.659
35074SOL     OW 7118   1.577   1.240   4.630
35074SOL    HW1 7119   1.664   1.245   4.669
35074SOL    HW2 7120   1.537   1.162   4.670
35075SOL     OW 7121  10.980   5.685   6.184
35075SOL    HW1 7122  11.034   5.747   6.135
35075SOL    HW2 7123  10.932   5.636   6.117
35076SOL     OW 7124   2.498   8.313  12.164
35076SOL    HW1 7125   2.502   8.218  12.173
35076SOL    HW2 7126   2.539   8.330  12.079
35077SOL     OW 7127   4.190   1.685   2.238
35077SOL    HW1 7128   4.240   1.759   2.204
35077SOL    HW2 7129   4.243   1.653   2.311
35078SOL     OW 7130  13.295   3.477  13.964
35078SOL    HW1 7131  13.215   3.428  13.983
35078SOL    HW2 7132  13.267   3.568  13.958
35079SOL     OW 7133  13.234  12.842   9.006
35079SOL    HW1 7134  13.192  12.882   8.930
35079SOL    HW2 7135  13.162  12.827   9.068
35080SOL     OW 7136  10.048   5.046   3.002
35080SOL    HW1 7137  10.042   4.972   3.062
35080SOL    HW2 7138   9.967   5.094   3.015
35081SOL     OW 7139   5.869  11.486  10.054
35081SOL    HW1 7140   5.944  11.546  10.054
35081SOL    HW2 7141   5.805  11.528  10.111
35082SOL     OW 7142   1.655   5.559   2.847
35082SOL    HW1 7143   1.698   5.499   2.907
35082SOL    HW2 7144   1.655   5.644   2.892
35083SOL     OW 7145  11.732  12.965   1.190
35083SOL    HW1 7146  11.704  13.016   1.114
35083SOL    HW2 7147  11.686  12.882   1.182
35084SOL     OW 7148   5.924   8.359   2.346
35084SOL    HW1 7149   5.852   8.417   2.322
35084SOL    HW2 7150   5.998   8.418   2.365
35085SOL     OW 7151   0.015   2.410   0.040
35085SOL    HW1 7152   0.033   2.376  14.822
35085SOL    HW2 7153   0.035   2.337   0.099
35086SOL     OW 7154   7.292  14.429   6.469
35086SOL    HW1 7155   7.229  14.358   6.455
35086SOL    HW2 7156   7.240  14.509   6.464
35087SOL     OW 7157   1.228  12.213   8.582
35087SOL    HW1 7158   1.264  12.301   8.579
35087SOL    HW2 7159   1.192  12.199   8.494
35088SOL     OW 7160  12.684   9.552   2.182
35088SOL    HW1 7161  12.739   9.625   2.207
35088SOL    HW2 7162  12.635   9.583   2.106
35089SOL     OW 7163   8.194  10.584  10.561
35089SOL    HW1 7164   8.232  10.557  10.645
35089SOL    HW2 7165   8.140  10.510  10.535
35090SOL     OW 7166  13.498  12.217   3.097
35090SOL    HW1 7167  13.405  12.219   3.116
35090SOL    HW2 7168  13.519  12.307   3.072
35091SOL     OW 7169   5.780  10.537   4.197
35091SOL    HW1 7170   5.764  10.594   4.122
35091SOL    HW2 7171   5.693  10.510   4.226
35092SOL     OW 7172  14.249   5.649   0.852
35092SOL    HW1 7173  14.232   5.688   0.766
35092SOL    HW2 7174  14.343   5.662   0.865
35093SOL     OW 7175   3.783   5.214   0.454
35093SOL    HW1 7176   3.731   5.182   0.528
35093SOL    HW2 7177   3.757   5.160   0.380
35094SOL     OW 7178   1.330   2.427  10.922
35094SOL    HW1 7179   1.399   2.398  10.863
35094SOL    HW2 7180   1.251   2.384  10.890
35095SOL     OW 7181  13.549  14.248  13.314
35095SOL    HW1 7182  13.460  14.260  13.347
35095SOL    HW2 7183  13.565  14.326  13.261
35096SOL     OW 7184  11.605   1.114   3.823
35096SOL    HW1 7185  11.573   1.122   3.913
35096SOL    HW2 7186  11.532   1.078   3.774
35097SOL     OW 7187  13.058   2.486   5.588
35097SOL    HW1 7188  12.995   2.520   5.524
35097SOL    HW2 7189  13.074   2.395   5.560
35098SOL     OW 7190  12.604   7.273   6.694
35098SOL    HW1 7191  12.648   7.189   6.683
35098SOL    HW2 7192  12.570   7.294   6.607
35099SOL     OW 7193  10.718   0.253   2.790
35099SOL    HW1 7194  10.684   0.262   2.700
35099SOL    HW2 7195  10.730   0.159   2.801
35100SOL     OW 7196   1.234   6.103  12.460
35100SOL    HW1 7197   1.266   6.021  12.495
35100SOL    HW2 7198   1.212   6.155  12.537
35101SOL     OW 7199  14.811  13.839   0.421
35101SOL    HW1 7200  14.821  13.934   0.413
35101SOL    HW2 7201  14.794  13.825   0.514
35102SOL     OW 7202  10.038  11.685   1.809
35102SOL    HW1 7203   9.980  11.760   1.796
35102SOL    HW2 7204  10.085  11.704   1.890
35103SOL     OW 7205  10.423   6.105  12.618
35103SOL    HW1 7206  10.398   6.114  12.526
35103SOL    HW2 7207  10.517   6.086  12.616
35104SOL     OW 7208   3.528  10.342   7.612
35104SOL    HW1 7209   3.534  10.357   7.518
35104SOL    HW2 7210   3.619  10.340   7.642
35105SOL     OW 7211  12.047  12.757   0.525
35105SOL    HW1 7212  11.974  12.767   0.463
35105SOL    HW2 7213  12.048  12.663   0.545
35106SOL     OW 7214   3.726   9.688   8.359
35106SOL    HW1 7215   3.631   9.686   8.367
35106SOL    HW2 7216   3.755   9.739   8.435
35107SOL     OW 7217  14.268   0.272   3.276
35107SOL    HW1 7218  14.364   0.269   3.278
35107SOL    HW2 7219  14.245   0.341   3.339
35108SOL     OW 7220   7.087   6.350   2.987
35108SOL    HW1 7221   7.166   6.296   2.983
35108SOL    HW2 7222   7.015   6.286   2.986
35109SOL     OW 7223  14.623  14.134   3.859
35109SOL    HW1 7224  14.554  14.068   3.849
35109SOL    HW2 7225  14.641  14.163   3.770
35110SOL     OW 7226   2.503   0.271   6.160
35110SOL    HW1 7227   2.596   0.285   6.181
35110SOL    HW2 7228   2.461   0.355   6.178
35111SOL     OW 7229  13.373   6.930   8.264
35111SOL    HW1 7230  13.301   6.871   8.286
35111SOL    HW2 7231  13.443   6.874   8.232
35112SOL     OW 7232   4.737   0.401  12.402
35112SOL    HW1 7233   4.701   0.488  12.384
35112SOL    HW2 7234   4.704   0.347  12.330
35113SOL     OW 7235   1.313   7.799   1.485
35113SOL    HW1 7236   1.233   7.847   1.506
35113SOL    HW2 7237   1.303   7.715   1.531
35114SOL     OW 7238   3.865  14.222   6.521
35114SOL    HW1 7239   3.880  14.216   6.616
35114SOL    HW2 7240   3.922  14.293   6.492
35115SOL     OW 7241   0.550   3.757   1.561
35115SOL    HW1 7242   0.462   3.735   1.593
35115SOL    HW2 7243   0.595   3.672   1.556
35116SOL     OW 7244  14.249   0.021   5.790
35116SOL    HW1 7245  14.281  14.839   5.715
35116SOL    HW2 7246  14.226   0.105   5.752
35117SOL     OW 7247   5.604  10.785   6.757
35117SOL    HW1 7248   5.689  10.747   6.778
35117SOL    HW2 7249   5.568  10.813   6.841
35118SOL     OW 7250  13.728   9.985   3.910
35118SOL    HW1 7251  13.793   9.952   3.850
35118SOL    HW2 7252  13.671   9.911   3.928
35119SOL     OW 7253  10.034   5.954  12.568
35119SOL    HW1 7254   9.972   5.885  12.589
35119SOL    HW2 7255  10.040   5.954  12.472
35120SOL     OW 7256   4.175   3.193   9.530
35120SOL    HW1 7257   4.239   3.167   9.464
35120SOL    HW2 7258   4.129   3.267   9.492
35121SOL     OW 7259   3.515  10.117   2.676
35121SOL    HW1 7260   3.442  10.177   2.659
35121SOL    HW2 7261   3.526  10.068   2.594
35122SOL     OW 7262  12.310  14.111   8.088
35122SOL    HW1 7263  12.347  14.163   8.159
35122SOL    HW2 7264  12.297  14.174   8.017
35123SOL     OW 7265  11.300   5.697   8.444
35123SOL    HW1 7266  11.261   5.616   8.479
35123SOL    HW2 7267  11.336   5.741   8.521
35124SOL     OW 7268   2.333   7.363   6.170
35124SOL    HW1 7269   2.425   7.348   6.150
35124SOL    HW2 7270   2.286   7.330   6.094
35125SOL     OW 7271  13.581   9.371  11.896
35125SOL    HW1 7272  13.546   9.439  11.837
35125SOL    HW2 7273  13.632   9.420  11.961
35126SOL     OW 7274   7.228   9.489  11.917
35126SOL    HW1 7275   7.254   9.403  11.949
35126SOL    HW2 7276   7.143   9.474  11.875
35127SOL     OW 7277  14.416   5.631   8.016
35127SOL    HW1 7278  14.385   5.703   7.961
35127SOL    HW2 7279  14.503   5.658   8.044
35128SOL     OW 7280   5.076   5.528   3.724
35128SOL    HW1 7281   4.997   5.547   3.673
35128SOL    HW2 7282   5.087   5.433   3.718
35129SOL     OW 7283  12.315   7.870  11.867
35129SOL    HW1 7284  12.255   7.921  11.921
35129SOL    HW2 7285  12.295   7.779  11.888
35130SOL     OW 7286   1.546  12.231   1.863
35130SOL    HW1 7287   1.597  12.155   1.893
35130SOL    HW2 7288   1.474  12.238   1.925
35131SOL     OW 7289   0.347   1.518  11.833
35131SOL    HW1 7290   0.265   1.544  11.792
35131SOL    HW2 7291   0.414   1.533  11.766
35132SOL     OW 7292   9.557   8.994   7.559
35132SOL    HW1 7293   9.475   8.959   7.525
35132SOL    HW2 7294   9.581   8.936   7.631
35133SOL     OW 7295  13.050   9.830   6.423
35133SOL    HW1 7296  13.029   9.743   6.456
35133SOL    HW2 7297  12.981   9.849   6.359
35134SOL     OW 7298   4.606  12.629  11.534
35134SOL    HW1 7299   4.641  12.692  11.596
35134SOL    HW2 7300   4.581  12.554  11.588
35135SOL     OW 7301   4.361  12.126   0.427
35135SOL    HW1 7302   4.302  12.050   0.434
35135SOL    HW2 7303   4.430  12.108   0.491
35136SOL     OW 7304  10.842  13.695   2.954
35136SOL    HW1 7305  10.870  13.785   2.939
35136SOL    HW2 7306  10.821  13.691   3.047
35137SOL     OW 7307   0.027   6.204   4.459
35137SOL    HW1 7308  14.865   6.286   4.495
35137SOL    HW2 7309   0.002   6.138   4.524
35138SOL     OW 7310   1.405  13.464   2.784
35138SOL    HW1 7311   1.386  13.406   2.858
35138SOL    HW2 7312   1.337  13.444   2.720
35139SOL     OW 7313  13.059   3.100   4.010
35139SOL    HW1 7314  12.978   3.069   4.052
35139SOL    HW2 7315  13.031   3.171   3.953
35140SOL     OW 7316  11.179  12.048   9.055
35140SOL    HW1 7317  11.124  12.119   9.021
35140SOL    HW2 7318  11.258  12.092   9.087
35141SOL     OW 7319   1.465   7.233  13.395
35141SOL    HW1 7320   1.420   7.227  13.479
35141SOL    HW2 7321   1.402   7.198  13.331
35142SOL     OW 7322   1.002   0.038   2.200
35142SOL    HW1 7323   1.038   0.126   2.186
35142SOL    HW2 7324   0.965   0.042   2.288
35143SOL     OW 7325   9.432   2.479   0.941
35143SOL    HW1 7326   9.347   2.523   0.933
35143SOL    HW2 7327   9.421   2.397   0.893
35144SOL     OW 7328   5.918   6.127   1.615
35144SOL    HW1 7329   5.859   6.092   1.549
35144SOL    HW2 7330   6.006   6.109   1.581
35145SOL     OW 7331   6.610  11.935   8.028
35145SOL    HW1 7332   6.597  11.978   8.113
35145SOL    HW2 7333   6.587  12.001   7.963
35146SOL     OW 7334   5.013   0.629  10.199
35146SOL    HW1 7335   4.976   0.598  10.117
35146SOL    HW2 7336   5.061   0.554  10.234
35147SOL     OW 7337  12.161  12.451  12.638
35147SOL    HW1 7338  12.147  12.536  12.679
35147SOL    HW2 7339  12.254  12.448  12.617
35148SOL     OW 7340  14.657   7.466  13.425
35148SOL    HW1 7341  14.676   7.553  13.461
35148SOL    HW2 7342  14.742   7.423  13.420
35149SOL     OW 7343   2.863   8.262  13.985
35149SOL    HW1 7344   2.776   8.269  13.946
35149SOL    HW2 7345   2.876   8.346  14.029
35150SOL     OW 7346  11.927   9.281   3.057
35150SOL    HW1 7347  11.893   9.310   2.972
35150SOL    HW2 7348  11.849   9.256   3.106
35151SOL     OW 7349   6.899   4.854  14.790
35151SOL    HW1 7350   6.931   4.939  14.760
35151SOL    HW2 7351   6.805   4.857  14.774
35152SOL     OW 7352   0.975   4.358   9.495
35152SOL    HW1 7353   0.949   4.417   9.566
35152SOL    HW2 7354   0.952   4.271   9.527
35153SOL     OW 7355   2.556  13.739   2.213
35153SOL    HW1 7356   2.549  13.833   2.223
35153SOL    HW2 7357   2.564  13.725   2.118
35154SOL     OW 7358   1.074   8.604  12.890
35154SOL    HW1 7359   0.999   8.544  12.894
35154SOL    HW2 7360   1.035   8.690  12.875
35155SOL     OW 7361   2.506   3.937   1.235
35155SOL    HW1 7362   2.558   4.006   1.276
35155SOL    HW2 7363   2.566   3.894   1.175
35156SOL     OW 7364   1.197  14.447  12.705
35156SOL    HW1 7365   1.232  14.363  12.734
35156SOL    HW2 7366   1.180  14.435  12.612
35157SOL     OW 7367   1.350   8.829   8.320
35157SOL    HW1 7368   1.255   8.813   8.318
35157SOL    HW2 7369   1.389   8.743   8.337
35158SOL     OW 7370   5.563   8.094   2.755
35158SOL    HW1 7371   5.520   8.178   2.773
35158SOL    HW2 7372   5.508   8.052   2.689
35159SOL     OW 7373  11.674   4.279   1.143
35159SOL    HW1 7374  11.728   4.238   1.210
35159SOL    HW2 7375  11.736   4.305   1.074
35160SOL     OW 7376   2.405   2.816   4.008
35160SOL    HW1 7377   2.348   2.788   3.936
35160SOL    HW2 7378   2.374   2.903   4.031
35161SOL     OW 7379   9.409  13.045   3.007
35161SOL    HW1 7380   9.464  13.008   2.938
35161SOL    HW2 7381   9.396  12.972   3.069
35162SOL     OW 7382   4.045  10.885  10.108
35162SOL    HW1 7383   3.961  10.922  10.083
35162SOL    HW2 7384   4.098  10.960  10.136
35163SOL     OW 7385   0.029   2.911   1.642
35163SOL    HW1 7386   0.027   2.997   1.601
35163SOL    HW2 7387   0.110   2.871   1.611
35164SOL     OW 7388   1.592   3.328   7.882
35164SOL    HW1 7389   1.639   3.359   7.960
35164SOL    HW2 7390   1.540   3.404   7.854
35165SOL     OW 7391  10.038  11.225   7.634
35165SOL    HW1 7392  10.017  11.281   7.559
35165SOL    HW2 7393  10.073  11.145   7.595
35166SOL     OW 7394  12.582   3.525  12.794
35166SOL    HW1 7395  12.653   3.580  12.828
35166SOL    HW2 7396  12.562   3.465  12.865
35167SOL     OW 7397   0.262   1.975   4.706
35167SOL    HW1 7398   0.267   2.002   4.615
35167SOL    HW2 7399   0.169   1.958   4.721
35168SOL     OW 7400   7.334   1.455   1.298
35168SOL    HW1 7401   7.388   1.386   1.261
35168SOL    HW2 7402   7.274   1.479   1.227
35169SOL     OW 7403  10.442   7.081  11.960
35169SOL    HW1 7404  10.425   7.173  11.978
35169SOL    HW2 7405  10.411   7.035  12.039
35170SOL     OW 7406   9.131   2.924   1.406
35170SOL    HW1 7407   9.093   2.836   1.408
35170SOL    HW2 7408   9.224   2.911   1.425
35171SOL     OW 7409  11.156   3.781   2.806
35171SOL    HW1 7410  11.068   3.793   2.770
35171SOL    HW2 7411  11.152   3.698   2.852
35172SOL     OW 7412  12.058   8.061  11.260
35172SOL    HW1 7413  12.046   8.104  11.175
35172SOL    HW2 7414  12.056   8.132  11.324
35173SOL     OW 7415  13.234  13.297   0.410
35173SOL    HW1 7416  13.235  13.223   0.470
35173SOL    HW2 7417  13.207  13.260   0.326
35174SOL     OW 7418   4.308   4.528  13.687
35174SOL    HW1 7419   4.361   4.605  13.707
35174SOL    HW2 7420   4.335   4.463  13.751
35175SOL     OW 7421  13.213  14.170  13.763
35175SOL    HW1 7422  13.191  14.094  13.709
35175SOL    HW2 7423  13.308  14.169  13.770
35176SOL     OW 7424   4.808  13.180   2.979
35176SOL    HW1 7425   4.781  13.264   2.942
35176SOL    HW2 7426   4.755  13.170   3.058
35177SOL     OW 7427   8.272  14.282   6.983
35177SOL    HW1 7428   8.341  14.217   6.998
35177SOL    HW2 7429   8.318  14.365   6.979
35178SOL     OW 7430   2.806   9.822   8.091
35178SOL    HW1 7431   2.735   9.872   8.051
35178SOL    HW2 7432   2.812   9.856   8.180
35179SOL     OW 7433  10.992  12.744   3.544
35179SOL    HW1 7434  10.929  12.803   3.585
35179SOL    HW2 7435  10.952  12.720   3.461
35180SOL     OW 7436  11.786   6.623  12.805
35180SOL    HW1 7437  11.776   6.547  12.748
35180SOL    HW2 7438  11.880   6.629  12.821
35181SOL     OW 7439  13.786   3.855  13.419
35181SOL    HW1 7440  13.736   3.876  13.499
35181SOL    HW2 7441  13.877   3.872  13.443
35182SOL     OW 7442   0.876   0.635   6.203
35182SOL    HW1 7443   0.844   0.591   6.125
35182SOL    HW2 7444   0.970   0.615   6.205
35183SOL     OW 7445   4.275   3.804   7.388
35183SOL    HW1 7446   4.355   3.756   7.370
35183SOL    HW2 7447   4.301   3.896   7.387
35184SOL     OW 7448   2.510   0.729   8.703
35184SOL    HW1 7449   2.466   0.701   8.623
35184SOL    HW2 7450   2.493   0.823   8.709
35185SOL     OW 7451  12.064  12.480  11.851
35185SOL    HW1 7452  12.148  12.485  11.897
35185SOL    HW2 7453  12.043  12.387  11.850
35186SOL     OW 7454   3.198   8.421  11.717
35186SOL    HW1 7455   3.116   8.457  11.682
35186SOL    HW2 7456   3.215   8.473  11.795
35187SOL     OW 7457  14.420  11.799   6.996
35187SOL    HW1 7458  14.445  11.884   7.033
35187SOL    HW2 7459  14.391  11.747   7.071
35188SOL     OW 7460  13.328   5.155  12.168
35188SOL    HW1 7461  13.259   5.109  12.120
35188SOL    HW2 7462  13.282   5.208  12.233
35189SOL     OW 7463   8.171  13.508  14.607
35189SOL    HW1 7464   8.242  13.487  14.668
35189SOL    HW2 7465   8.200  13.470  14.524
35190SOL     OW 7466   8.650  14.168   6.534
35190SOL    HW1 7467   8.614  14.152   6.447
35190SOL    HW2 7468   8.638  14.261   6.549
35191SOL     OW 7469  11.274   3.423   7.550
35191SOL    HW1 7470  11.283   3.415   7.455
35191SOL    HW2 7471  11.198   3.369   7.572
35192SOL     OW 7472   0.438   7.980   9.092
35192SOL    HW1 7473   0.379   7.958   9.164
35192SOL    HW2 7474   0.515   8.017   9.134
35193SOL     OW 7475   5.123   5.244  14.508
35193SOL    HW1 7476   5.085   5.308  14.448
35193SOL    HW2 7477   5.178   5.188  14.452
35194SOL     OW 7478   0.074   6.466  11.814
35194SOL    HW1 7479   0.032   6.522  11.879
35194SOL    HW2 7480   0.002   6.424  11.768
35195SOL     OW 7481  11.176  12.466  11.568
35195SOL    HW1 7482  11.134  12.494  11.649
35195SOL    HW2 7483  11.186  12.547  11.517
35196SOL     OW 7484  12.351  11.583  13.645
35196SOL    HW1 7485  12.399  11.501  13.639
35196SOL    HW2 7486  12.354  11.619  13.556
35197SOL     OW 7487   4.829   5.129   3.214
35197SOL    HW1 7488   4.736   5.141   3.232
35197SOL    HW2 7489   4.841   5.167   3.127
35198SOL     OW 7490  10.283  14.441   7.336
35198SOL    HW1 7491  10.278  14.346   7.332
35198SOL    HW2 7492  10.193  14.469   7.347
35199SOL     OW 7493   6.596   8.987   7.636
35199SOL    HW1 7494   6.550   8.912   7.597
35199SOL    HW2 7495   6.530   9.056   7.641
35200SOL     OW 7496   0.776   9.825  11.898
35200SOL    HW1 7497   0.778   9.831  11.803
35200SOL    HW2 7498   0.684   9.809  11.919
35201SOL     OW 7499   2.078   0.203   8.055
35201SOL    HW1 7500   2.088   0.248   8.139
35201SOL    HW2 7501   2.048   0.270   7.994
35202SOL     OW 7502   8.746   5.190   0.178
35202SOL    HW1 7503   8.809   5.145   0.123
35202SOL    HW2 7504   8.799   5.227   0.250
35203SOL     OW 7505   6.521   3.080   5.711
35203SOL    HW1 7506   6.524   3.033   5.628
35203SOL    HW2 7507   6.607   3.119   5.719
35204SOL     OW 7508   3.483   0.029   9.038
35204SOL    HW1 7509   3.530   0.111   9.055
35204SOL    HW2 7510   3.479  14.855   9.123
35205SOL     OW 7511   6.295   6.280  10.600
35205SOL    HW1 7512   6.318   6.354  10.543
35205SOL    HW2 7513   6.295   6.317  10.688
35206SOL     OW 7514  13.409   5.005   4.326
35206SOL    HW1 7515  13.399   4.996   4.421
35206SOL    HW2 7516  13.495   5.045   4.315
35207SOL     OW 7517   1.769   8.341   2.313
35207SOL    HW1 7518   1.829   8.291   2.368
35207SOL    HW2 7519   1.803   8.431   2.317
35208SOL     OW 7520   1.695  14.382   4.662
35208SOL    HW1 7521   1.786  14.385   4.633
35208SOL    HW2 7522   1.647  14.428   4.593
35209SOL     OW 7523   0.677   0.404   3.006
35209SOL    HW1 7524   0.624   0.328   3.029
35209SOL    HW2 7525   0.620   0.455   2.947
35210SOL     OW 7526  10.721  13.125   9.653
35210SOL    HW1 7527  10.719  13.144   9.559
35210SOL    HW2 7528  10.650  13.062   9.665
35211SOL     OW 7529  11.363  12.808   9.653
35211SOL    HW1 7530  11.304  12.858   9.710
35211SOL    HW2 7531  11.377  12.726   9.700
35212SOL     OW 7532  11.015  10.121  11.110
35212SOL    HW1 7533  11.095  10.122  11.057
35212SOL    HW2 7534  11.023  10.044  11.166
35213SOL     OW 7535   7.697   6.843  10.774
35213SOL    HW1 7536   7.601   6.839  10.776
35213SOL    HW2 7537   7.725   6.762  10.817
35214SOL     OW 7538   8.872   0.656   7.651
35214SOL    HW1 7539   8.886   0.672   7.744
35214SOL    HW2 7540   8.780   0.628   7.645
35215SOL     OW 7541   7.491   0.880   2.518
35215SOL    HW1 7542   7.551   0.936   2.569
35215SOL    HW2 7543   7.432   0.842   2.583
35216SOL     OW 7544   4.892  14.442   6.483
35216SOL    HW1 7545   4.981  14.430   6.517
35216SOL    HW2 7546   4.835  14.419   6.556
35217SOL     OW 7547   5.727  12.523  12.514
35217SOL    HW1 7548   5.688  12.450  12.467
35217SOL    HW2 7549   5.811  12.489  12.545
35218SOL     OW 7550  14.428  12.490   6.502
35218SOL    HW1 7551  14.427  12.570   6.554
35218SOL    HW2 7552  14.428  12.521   6.411
35219SOL     OW 7553   3.783  10.142  14.257
35219SOL    HW1 7554   3.791  10.059  14.303
35219SOL    HW2 7555   3.732  10.197  14.316
35220SOL     OW 7556  10.859   4.429   8.085
35220SOL    HW1 7557  10.838   4.362   8.019
35220SOL    HW2 7558  10.918   4.386   8.145
35221SOL     OW 7559  13.999   5.651   6.497
35221SOL    HW1 7560  13.906   5.671   6.488
35221SOL    HW2 7561  14.044   5.726   6.457
35222SOL     OW 7562   8.620  13.562   1.153
35222SOL    HW1 7563   8.652  13.474   1.176
35222SOL    HW2 7564   8.582  13.551   1.065
35223SOL     OW 7565   4.302  11.732   4.741
35223SOL    HW1 7566   4.262  11.743   4.655
35223SOL    HW2 7567   4.397  11.738   4.724
35224SOL     OW 7568   1.001   4.282   6.277
35224SOL    HW1 7569   1.070   4.218   6.296
35224SOL    HW2 7570   1.044   4.367   6.282
35225SOL     OW 7571   3.996   4.024  14.626
35225SOL    HW1 7572   4.055   4.021  14.702
35225SOL    HW2 7573   4.028   4.098  14.574
35226SOL     OW 7574   6.128   3.796   6.749
35226SOL    HW1 7575   6.212   3.756   6.771
35226SOL    HW2 7576   6.090   3.823   6.833
35227SOL     OW 7577  12.313   1.482  13.009
35227SOL    HW1 7578  12.223   1.515  13.005
35227SOL    HW2 7579  12.332   1.455  12.919
35228SOL     OW 7580   7.251   3.590  11.016
35228SOL    HW1 7581   7.275   3.554  10.931
35228SOL    HW2 7582   7.333   3.624  11.052
35229SOL     OW 7583   9.950   6.549   4.385
35229SOL    HW1 7584   9.978   6.522   4.472
35229SOL    HW2 7585   9.945   6.644   4.390
35230SOL     OW 7586  13.525   2.527  10.532
35230SOL    HW1 7587  13.479   2.506  10.451
35230SOL    HW2 7588  13.559   2.616  10.518
35231SOL     OW 7589   5.947  10.147  12.983
35231SOL    HW1 7590   5.929  10.178  13.072
35231SOL    HW2 7591   5.862  10.115  12.952
35232SOL     OW 7592  11.502   2.702   4.093
35232SOL    HW1 7593  11.454   2.784   4.098
35232SOL    HW2 7594  11.439   2.641   4.053
35233SOL     OW 7595   2.541   7.986   2.266
35233SOL    HW1 7596   2.461   7.955   2.224
35233SOL    HW2 7597   2.511   8.038   2.341
35234SOL     OW 7598  14.544  11.129   9.392
35234SOL    HW1 7599  14.604  11.090   9.456
35234SOL    HW2 7600  14.587  11.113   9.307
35235SOL     OW 7601  14.316  13.244   0.010
35235SOL    HW1 7602  14.357  13.328   0.027
35235SOL    HW2 7603  14.389  13.182   0.003
35236SOL     OW 7604   0.410   7.702   0.135
35236SOL    HW1 7605   0.475   7.648   0.180
35236SOL    HW2 7606   0.330   7.692   0.187
35237SOL     OW 7607   0.742   9.490   2.978
35237SOL    HW1 7608   0.734   9.558   2.911
35237SOL    HW2 7609   0.806   9.428   2.943
35238SOL     OW 7610   3.989   8.108  14.538
35238SOL    HW1 7611   4.071   8.060  14.548
35238SOL    HW2 7612   4.003   8.190  14.585
35239SOL     OW 7613   0.962  12.026   5.510
35239SOL    HW1 7614   1.019  12.091   5.552
35239SOL    HW2 7615   1.021  11.954   5.486
35240SOL     OW 7616   0.426  11.223   5.222
35240SOL    HW1 7617   0.446  11.161   5.153
35240SOL    HW2 7618   0.377  11.293   5.178
35241SOL     OW 7619  10.800   7.260  10.532
35241SOL    HW1 7620  10.856   7.271  10.609
35241SOL    HW2 7621  10.769   7.170  10.538
35242SOL     OW 7622   5.503  14.138   8.762
35242SOL    HW1 7623   5.574  14.106   8.817
35242SOL    HW2 7624   5.545  14.202   8.704
35243SOL     OW 7625   9.217  10.048   2.057
35243SOL    HW1 7626   9.247  10.003   1.978
35243SOL    HW2 7627   9.138  10.095   2.028
35244SOL     OW 7628   1.167   1.001   5.799
35244SOL    HW1 7629   1.222   1.078   5.787
35244SOL    HW2 7630   1.187   0.945   5.724
35245SOL     OW 7631  10.906   8.384   5.697
35245SOL    HW1 7632  10.881   8.476   5.713
35245SOL    HW2 7633  10.891   8.371   5.603
35246SOL     OW 7634   0.597  11.315   5.414
35246SOL    HW1 7635   0.548  11.292   5.336
35246SOL    HW2 7636   0.601  11.234   5.465
35247SOL     OW 7637  11.751   5.575   7.812
35247SOL    HW1 7638  11.670   5.536   7.844
35247SOL    HW2 7639  11.732   5.599   7.721
35248SOL     OW 7640   8.790   1.894   2.058
35248SOL    HW1 7641   8.817   1.936   1.977
35248SOL    HW2 7642   8.872   1.870   2.102
35249SOL     OW 7643  12.871   2.795   6.097
35249SOL    HW1 7644  12.940   2.737   6.128
35249SOL    HW2 7645  12.794   2.738   6.088
35250SOL     OW 7646  12.422   2.572  10.405
35250SOL    HW1 7647  12.399   2.516  10.331
35250SOL    HW2 7648  12.490   2.630  10.371
35251SOL     OW 7649  13.960   9.449  14.058
35251SOL    HW1 7650  13.866   9.444  14.042
35251SOL    HW2 7651  13.996   9.372  14.013
35252SOL     OW 7652   1.545  11.447  14.519
35252SOL    HW1 7653   1.506  11.525  14.559
35252SOL    HW2 7654   1.500  11.374  14.560
35253SOL     OW 7655   9.670  14.064   8.383
35253SOL    HW1 7656   9.676  14.099   8.472
35253SOL    HW2 7657   9.577  14.071   8.361
35254SOL     OW 7658   7.980   1.872   1.297
35254SOL    HW1 7659   7.903   1.853   1.349
35254SOL    HW2 7660   8.005   1.961   1.323
35255SOL     OW 7661   9.566   2.767   2.919
35255SOL    HW1 7662   9.569   2.813   3.003
35255SOL    HW2 7663   9.553   2.675   2.942
35256SOL     OW 7664  10.390   0.439   3.509
35256SOL    HW1 7665  10.431   0.439   3.423
35256SOL    HW2 7666  10.357   0.529   3.520
35257SOL     OW 7667   1.184   5.288  11.160
35257SOL    HW1 7668   1.275   5.291  11.190
35257SOL    HW2 7669   1.171   5.196  11.136
35258SOL     OW 7670   1.805  11.334   4.237
35258SOL    HW1 7671   1.793  11.269   4.307
35258SOL    HW2 7672   1.873  11.393   4.270
35259SOL     OW 7673  10.041  14.668  10.768
35259SOL    HW1 7674  10.120  14.615  10.758
35259SOL    HW2 7675  10.046  14.733  10.698
35260SOL     OW 7676   9.878   0.188   0.695
35260SOL    HW1 7677   9.905   0.233   0.775
35260SOL    HW2 7678   9.814   0.124   0.724
35261SOL     OW 7679   0.748   1.123   6.630
35261SOL    HW1 7680   0.785   1.204   6.594
35261SOL    HW2 7681   0.754   1.135   6.725
35262SOL     OW 7682   3.277   5.664   8.839
35262SOL    HW1 7683   3.270   5.668   8.935
35262SOL    HW2 7684   3.237   5.580   8.816
35263SOL     OW 7685  13.097   4.042  11.418
35263SOL    HW1 7686  13.127   4.040  11.509
35263SOL    HW2 7687  13.174   4.015  11.367
35264SOL     OW 7688  10.125  12.639   7.164
35264SOL    HW1 7689  10.152  12.550   7.139
35264SOL    HW2 7690  10.120  12.637   7.259
35265SOL     OW 7691   4.097   1.947  13.262
35265SOL    HW1 7692   4.120   1.867  13.215
35265SOL    HW2 7693   4.144   2.016  13.217
35266SOL     OW 7694   3.588  14.067   9.416
35266SOL    HW1 7695   3.531  14.000   9.379
35266SOL    HW2 7696   3.549  14.086   9.501
35267SOL     OW 7697  11.667   3.743   3.172
35267SOL    HW1 7698  11.634   3.717   3.258
35267SOL    HW2 7699  11.654   3.838   3.169
35268SOL     OW 7700  11.155   6.246   4.026
35268SOL    HW1 7701  11.127   6.155   4.028
35268SOL    HW2 7702  11.073   6.296   4.026
35269SOL     OW 7703   3.002   3.762   1.172
35269SOL    HW1 7704   2.963   3.847   1.150
35269SOL    HW2 7705   3.051   3.778   1.253
35270SOL     OW 7706  10.152   4.003  10.119
35270SOL    HW1 7707  10.158   3.917  10.080
35270SOL    HW2 7708  10.061   4.011  10.147
35271SOL     OW 7709   0.706   7.505   1.767
35271SOL    HW1 7710   0.711   7.458   1.851
35271SOL    HW2 7711   0.704   7.598   1.792
35272SOL     OW 7712   7.405   0.078   3.763
35272SOL    HW1 7713   7.396   0.156   3.818
35272SOL    HW2 7714   7.356   0.099   3.684
35273SOL     OW 7715  13.358   6.313   1.647
35273SOL    HW1 7716  13.312   6.238   1.685
35273SOL    HW2 7717  13.444   6.279   1.623
35274SOL     OW 7718   6.320   2.516   1.187
35274SOL    HW1 7719   6.278   2.490   1.269
35274SOL    HW2 7720   6.253   2.499   1.120
35275SOL     OW 7721   0.184   3.090  11.096
35275SOL    HW1 7722   0.101   3.131  11.119
35275SOL    HW2 7723   0.184   3.007  11.144
35276SOL     OW 7724   7.394   6.074  12.323
35276SOL    HW1 7725   7.354   6.108  12.243
35276SOL    HW2 7726   7.471   6.027  12.292
35277SOL     OW 7727   7.330   6.228   8.626
35277SOL    HW1 7728   7.247   6.202   8.666
35277SOL    HW2 7729   7.392   6.231   8.699
35278SOL     OW 7730   1.470   9.447   2.120
35278SOL    HW1 7731   1.533   9.515   2.141
35278SOL    HW2 7732   1.500   9.411   2.036
35279SOL     OW 7733   4.134   1.379  10.233
35279SOL    HW1 7734   4.180   1.329  10.166
35279SOL    HW2 7735   4.115   1.463  10.192
35280SOL     OW 7736  11.865   6.924  12.410
35280SOL    HW1 7737  11.889   6.847  12.461
35280SOL    HW2 7738  11.826   6.888  12.330
35281SOL     OW 7739   9.619   8.781   6.034
35281SOL    HW1 7740   9.575   8.857   6.072
35281SOL    HW2 7741   9.570   8.706   6.067
35282SOL     OW 7742   7.800   6.926   2.543
35282SOL    HW1 7743   7.772   6.966   2.625
35282SOL    HW2 7744   7.722   6.881   2.510
35283SOL     OW 7745   7.344  12.773   2.834
35283SOL    HW1 7746   7.314  12.855   2.873
35283SOL    HW2 7747   7.282  12.707   2.865
35284SOL     OW 7748   6.163  12.274  10.779
35284SOL    HW1 7749   6.134  12.320  10.700
35284SOL    HW2 7750   6.257  12.292  10.784
35285SOL     OW 7751   4.011  13.206   4.228
35285SOL    HW1 7752   3.987  13.125   4.184
35285SOL    HW2 7753   3.953  13.210   4.304
35286SOL     OW 7754   1.117   7.438   2.421
35286SOL    HW1 7755   1.103   7.376   2.493
35286SOL    HW2 7756   1.030   7.469   2.399
35287SOL     OW 7757  14.719   4.696  11.610
35287SOL    HW1 7758  14.732   4.787  11.585
35287SOL    HW2 7759  14.681   4.655  11.532
35288SOL     OW 7760   3.055  14.577  13.434
35288SOL    HW1 7761   2.995  14.578  13.508
35288SOL    HW2 7762   3.052  14.666  13.399
35289SOL     OW 7763   2.166   3.467   8.660
35289SOL    HW1 7764   2.126   3.493   8.742
35289SOL    HW2 7765   2.094   3.461   8.598
35290SOL     OW 7766   1.006  14.589   7.091
35290SOL    HW1 7767   1.072  14.653   7.118
35290SOL    HW2 7768   1.031  14.508   7.136
35291SOL     OW 7769   4.477   1.104   5.866
35291SOL    HW1 7770   4.392   1.111   5.910
35291SOL    HW2 7771   4.503   1.195   5.851
35292SOL     OW 7772   9.691  10.473  14.839
35292SOL    HW1 7773   9.697  10.393   0.021
35292SOL    HW2 7774   9.782  10.498  14.822
35293SOL     OW 7775  11.725   1.394   5.000
35293SOL    HW1 7776  11.766   1.326   5.054
35293SOL    HW2 7777  11.697   1.461   5.063
35294SOL     OW 7778   8.645   6.449   1.811
35294SOL    HW1 7779   8.619   6.521   1.754
35294SOL    HW2 7780   8.625   6.479   1.900
35295SOL     OW 7781   4.740   1.406  11.379
35295SOL    HW1 7782   4.658   1.426  11.334
35295SOL    HW2 7783   4.714   1.357  11.457
35296SOL     OW 7784   6.386   6.466   7.188
35296SOL    HW1 7785   6.403   6.536   7.126
35296SOL    HW2 7786   6.458   6.470   7.250
35297SOL     OW 7787  13.777  10.193  11.958
35297SOL    HW1 7788  13.728  10.236  12.029
35297SOL    HW2 7789  13.818  10.118  12.000
35298SOL     OW 7790   9.762   2.605   8.724
35298SOL    HW1 7791   9.755   2.696   8.696
35298SOL    HW2 7792   9.706   2.557   8.663
35299SOL     OW 7793   8.384   5.853   8.647
35299SOL    HW1 7794   8.383   5.861   8.742
35299SOL    HW2 7795   8.294   5.829   8.624
35300SOL     OW 7796   2.172  11.286   3.429
35300SOL    HW1 7797   2.212  11.227   3.493
35300SOL    HW2 7798   2.243  11.306   3.368
35301SOL     OW 7799   6.944   6.818   7.908
35301SOL    HW1 7800   6.893   6.785   7.834
35301SOL    HW2 7801   7.034   6.793   7.889
35302SOL     OW 7802  12.774  13.940   3.367
35302SOL    HW1 7803  12.839  13.969   3.303
35302SOL    HW2 7804  12.816  13.955   3.452
35303SOL     OW 7805  12.623   5.189   8.255
35303SOL    HW1 7806  12.618   5.145   8.340
35303SOL    HW2 7807  12.705   5.157   8.216
35304SOL     OW 7808   6.075   2.122   8.800
35304SOL    HW1 7809   6.036   2.065   8.866
35304SOL    HW2 7810   6.043   2.209   8.821
35305SOL     OW 7811   1.734  11.019   0.962
35305SOL    HW1 7812   1.779  10.963   0.898
35305SOL    HW2 7813   1.704  11.094   0.910
35306SOL     OW 7814   7.366   5.197  13.479
35306SOL    HW1 7815   7.382   5.223  13.388
35306SOL    HW2 7816   7.413   5.262  13.531
35307SOL     OW 7817  10.504  13.539   6.384
35307SOL    HW1 7818  10.504  13.614   6.443
35307SOL    HW2 7819  10.460  13.470   6.433
35308SOL     OW 7820   1.094   0.494   4.839
35308SOL    HW1 7821   1.140   0.508   4.756
35308SOL    HW2 7822   1.124   0.408   4.868
35309SOL     OW 7823   2.017   8.789   2.789
35309SOL    HW1 7824   2.087   8.733   2.822
35309SOL    HW2 7825   1.957   8.728   2.746
35310SOL     OW 7826   2.798  12.725   4.608
35310SOL    HW1 7827   2.841  12.793   4.660
35310SOL    HW2 7828   2.709  12.758   4.594
35311SOL     OW 7829  11.714   8.933   4.370
35311SOL    HW1 7830  11.639   8.926   4.311
35311SOL    HW2 7831  11.689   9.001   4.433
35312SOL     OW 7832   5.366  13.053   7.034
35312SOL    HW1 7833   5.452  13.072   7.072
35312SOL    HW2 7834   5.307  13.118   7.073
35313SOL     OW 7835   4.001   8.032   7.949
35313SOL    HW1 7836   3.911   8.010   7.925
35313SOL    HW2 7837   4.048   7.949   7.945
35314SOL     OW 7838  14.235  12.212   4.933
35314SOL    HW1 7839  14.163  12.267   4.963
35314SOL    HW2 7840  14.313  12.253   4.970
35315SOL     OW 7841   3.352  14.609   3.506
35315SOL    HW1 7842   3.356  14.653   3.591
35315SOL    HW2 7843   3.284  14.656   3.457
35316SOL     OW 7844   8.391   5.079  13.588
35316SOL    HW1 7845   8.461   5.052  13.647
35316SOL    HW2 7846   8.433   5.138  13.526
35317SOL     OW 7847  12.747   6.027  14.653
35317SOL    HW1 7848  12.716   6.044  14.564
35317SOL    HW2 7849  12.841   6.013  14.644
35318SOL     OW 7850   2.259   8.819  10.528
35318SOL    HW1 7851   2.275   8.741  10.582
35318SOL    HW2 7852   2.197   8.790  10.461
35319SOL     OW 7853   8.356   7.067   0.157
35319SOL    HW1 7854   8.411   6.995   0.127
35319SOL    HW2 7855   8.267   7.032   0.153
35320SOL     OW 7856   5.022   7.450   3.459
35320SOL    HW1 7857   5.079   7.479   3.531
35320SOL    HW2 7858   5.039   7.357   3.452
35321SOL     OW 7859   2.364   1.503  11.550
35321SOL    HW1 7860   2.438   1.519  11.491
35321SOL    HW2 7861   2.378   1.414  11.581
35322SOL     OW 7862   6.960   1.224  13.678
35322SOL    HW1 7863   6.926   1.185  13.597
35322SOL    HW2 7864   6.889   1.281  13.709
35323SOL     OW 7865  12.100  12.140   9.777
35323SOL    HW1 7866  12.161  12.196   9.730
35323SOL    HW2 7867  12.148  12.111   9.854
35324SOL     OW 7868  13.683   2.603  14.854
35324SOL    HW1 7869  13.778   2.603  14.844
35324SOL    HW2 7870  13.651   2.546  14.784
35325SOL     OW 7871   2.987  10.752   8.546
35325SOL    HW1 7872   2.916  10.802   8.586
35325SOL    HW2 7873   2.997  10.791   8.459
35326SOL     OW 7874   2.340   9.724   2.968
35326SOL    HW1 7875   2.393   9.673   2.906
35326SOL    HW2 7876   2.394   9.800   2.988
35327SOL     OW 7877  10.960  13.046   3.927
35327SOL    HW1 7878  10.924  13.089   4.005
35327SOL    HW2 7879  10.953  13.112   3.858
35328SOL     OW 7880   2.764   8.099   7.769
35328SOL    HW1 7881   2.746   8.189   7.744
35328SOL    HW2 7882   2.688   8.050   7.739
35329SOL     OW 7883   3.272  14.571  11.794
35329SOL    HW1 7884   3.237  14.524  11.870
35329SOL    HW2 7885   3.366  14.576  11.810
35330SOL     OW 7886   9.648   1.356  14.013
35330SOL    HW1 7887   9.581   1.288  14.005
35330SOL    HW2 7888   9.729   1.308  14.030
35331SOL     OW 7889  10.226   9.696   6.847
35331SOL    HW1 7890  10.263   9.608   6.844
35331SOL    HW2 7891  10.302   9.753   6.862
35332SOL     OW 7892  14.097   3.763   8.390
35332SOL    HW1 7893  14.133   3.676   8.406
35332SOL    HW2 7894  14.024   3.748   8.329
35333SOL     OW 7895   2.629   4.511   0.515
35333SOL    HW1 7896   2.540   4.542   0.497
35333SOL    HW2 7897   2.619   4.455   0.593
35334SOL     OW 7898  10.500   0.695   1.995
35334SOL    HW1 7899  10.590   0.721   1.975
35334SOL    HW2 7900  10.503   0.663   2.085
35335SOL     OW 7901   3.180   1.497  14.864
35335SOL    HW1 7902   3.252   1.511   0.057
35335SOL    HW2 7903   3.205   1.419  14.815
35336SOL     OW 7904  11.987   3.878  12.696
35336SOL    HW1 7905  12.082   3.887  12.690
35336SOL    HW2 7906  11.972   3.784  12.703
35337SOL     OW 7907   3.551  13.638   9.024
35337SOL    HW1 7908   3.531  13.600   9.110
35337SOL    HW2 7909   3.604  13.571   8.980
35338SOL     OW 7910  14.045   1.572   5.115
35338SOL    HW1 7911  14.136   1.588   5.140
35338SOL    HW2 7912  14.049   1.556   5.021
35339SOL     OW 7913  11.913  11.447  14.508
35339SOL    HW1 7914  11.869  11.455  14.423
35339SOL    HW2 7915  11.983  11.512  14.504
35340SOL     OW 7916   5.769  14.007   3.108
35340SOL    HW1 7917   5.766  13.929   3.053
35340SOL    HW2 7918   5.726  13.980   3.189
35341SOL     OW 7919   8.926   2.919   8.998
35341SOL    HW1 7920   8.900   2.889   9.085
35341SOL    HW2 7921   8.989   2.989   9.015
35342SOL     OW 7922   9.388   0.242  11.790
35342SOL    HW1 7923   9.385   0.283  11.704
35342SOL    HW2 7924   9.311   0.277  11.836
35343SOL     OW 7925   2.353  10.486   4.682
35343SOL    HW1 7926   2.448  10.476   4.680
35343SOL    HW2 7927   2.336  10.539   4.760
35344SOL     OW 7928  14.223  14.449   0.005
35344SOL    HW1 7929  14.288  14.515  14.851
35344SOL    HW2 7930  14.163  14.495   0.065
35345SOL     OW 7931  10.794   2.477  14.215
35345SOL    HW1 7932  10.887   2.461  14.233
35345SOL    HW2 7933  10.793   2.520  14.129
35346SOL     OW 7934  11.922   7.487   4.065
35346SOL    HW1 7935  11.986   7.415   4.057
35346SOL    HW2 7936  11.976   7.565   4.078
35347SOL     OW 7937  12.819  12.355   8.028
35347SOL    HW1 7938  12.860  12.304   7.958
35347SOL    HW2 7939  12.812  12.294   8.101
35348SOL     OW 7940   5.477   3.033   2.400
35348SOL    HW1 7941   5.549   3.010   2.459
35348SOL    HW2 7942   5.412   2.964   2.412
35349SOL     OW 7943   1.676   2.024   3.606
35349SOL    HW1 7944   1.581   2.014   3.613
35349SOL    HW2 7945   1.697   1.992   3.518
35350SOL     OW 7946  11.829   0.408  13.103
35350SOL    HW1 7947  11.905   0.356  13.075
35350SOL    HW2 7948  11.790   0.440  13.022
35351SOL     OW 7949   0.857   0.231   9.318
35351SOL    HW1 7950   0.917   0.287   9.268
35351SOL    HW2 7951   0.854   0.270   9.405
35352SOL     OW 7952   1.243   2.377   9.508
35352SOL    HW1 7953   1.239   2.358   9.415
35352SOL    HW2 7954   1.334   2.357   9.533
35353SOL     OW 7955   8.849   7.778  12.011
35353SOL    HW1 7956   8.824   7.830  11.935
35353SOL    HW2 7957   8.814   7.826  12.086
35354SOL     OW 7958   9.605   8.894   8.920
35354SOL    HW1 7959   9.571   8.837   8.850
35354SOL    HW2 7960   9.672   8.841   8.963
35355SOL     OW 7961   2.043   9.177   7.018
35355SOL    HW1 7962   2.005   9.150   7.101
35355SOL    HW2 7963   2.022   9.106   6.957
35356SOL     OW 7964  12.247   4.881   5.357
35356SOL    HW1 7965  12.222   4.965   5.320
35356SOL    HW2 7966  12.236   4.891   5.452
35357SOL     OW 7967   2.837   3.691  12.574
35357SOL    HW1 7968   2.912   3.699  12.515
35357SOL    HW2 7969   2.854   3.611  12.623
35358SOL     OW 7970  14.634  12.534   9.235
35358SOL    HW1 7971  14.591  12.581   9.163
35358SOL    HW2 7972  14.718  12.506   9.199
35359SOL     OW 7973   3.320  13.009   8.824
35359SOL    HW1 7974   3.308  13.096   8.785
35359SOL    HW2 7975   3.251  12.956   8.786
35360SOL     OW 7976   4.526   3.515   0.315
35360SOL    HW1 7977   4.479   3.453   0.371
35360SOL    HW2 7978   4.581   3.565   0.375
35361SOL     OW 7979   5.233  10.498   8.859
35361SOL    HW1 7980   5.293  10.446   8.805
35361SOL    HW2 7981   5.153  10.505   8.806
35362SOL     OW 7982  11.878   7.954  14.500
35362SOL    HW1 7983  11.907   7.949  14.409
35362SOL    HW2 7984  11.784   7.937  14.496
35363SOL     OW 7985   6.806   6.943  14.442
35363SOL    HW1 7986   6.895   6.938  14.476
35363SOL    HW2 7987   6.750   6.935  14.519
35364SOL     OW 7988   7.198   5.792  14.001
35364SOL    HW1 7989   7.232   5.752  14.082
35364SOL    HW2 7990   7.106   5.766  14.000
35365SOL     OW 7991   0.666   3.680   5.560
35365SOL    HW1 7992   0.650   3.620   5.488
35365SOL    HW2 7993   0.689   3.763   5.518
35366SOL     OW 7994   3.816   8.504   2.940
35366SOL    HW1 7995   3.754   8.564   2.899
35366SOL    HW2 7996   3.899   8.521   2.895
35367SOL     OW 7997   6.574   6.885   1.420
35367SOL    HW1 7998   6.571   6.869   1.325
35367SOL    HW2 7999   6.520   6.816   1.458
35368SOL     OW 8000   6.383  11.740  12.909
35368SOL    HW1 8001   6.326  11.814  12.888
35368SOL    HW2 8002   6.434  11.769  12.985
35369SOL     OW 8003  11.806   4.025  10.208
35369SOL    HW1 8004  11.889   3.985  10.234
35369SOL    HW2 8005  11.742   3.990  10.270
35370SOL     OW 8006   0.597   2.078  10.273
35370SOL    HW1 8007   0.522   2.104  10.220
35370SOL    HW2 8008   0.664   2.143  10.252
35371SOL     OW 8009  12.219  13.737   5.029
35371SOL    HW1 8010  12.189  13.730   4.939
35371SOL    HW2 8011  12.152  13.693   5.081
35372SOL     OW 8012   4.570   0.935   5.682
35372SOL    HW1 8013   4.653   0.890   5.701
35372SOL    HW2 8014   4.541   0.968   5.767
35373SOL     OW 8015   5.802   1.302   8.275
35373SOL    HW1 8016   5.766   1.348   8.351
35373SOL    HW2 8017   5.729   1.296   8.213
35374SOL     OW 8018   4.813   0.960  13.352
35374SOL    HW1 8019   4.773   0.947  13.266
35374SOL    HW2 8020   4.810   1.054  13.366
35375SOL     OW 8021   3.806  13.251  13.056
35375SOL    HW1 8022   3.853  13.218  12.980
35375SOL    HW2 8023   3.729  13.194  13.062
35376SOL     OW 8024  12.836   8.623   3.513
35376SOL    HW1 8025  12.874   8.539   3.541
35376SOL    HW2 8026  12.773   8.645   3.583
35377SOL     OW 8027   9.047   4.037   4.289
35377SOL    HW1 8028   8.973   4.054   4.230
35377SOL    HW2 8029   9.084   4.124   4.305
35378SOL     OW 8030   2.322   7.187  12.535
35378SOL    HW1 8031   2.388   7.250  12.506
35378SOL    HW2 8032   2.364   7.142  12.609
35379SOL     OW 8033   4.761   6.148   8.535
35379SOL    HW1 8034   4.802   6.224   8.495
35379SOL    HW2 8035   4.782   6.156   8.629
35380SOL     OW 8036  10.113  10.820  11.733
35380SOL    HW1 8037  10.079  10.763  11.802
35380SOL    HW2 8038  10.206  10.799  11.727
35381SOL     OW 8039   5.567   6.863   5.739
35381SOL    HW1 8040   5.570   6.954   5.767
35381SOL    HW2 8041   5.504   6.861   5.667
35382SOL     OW 8042  12.252   9.154   3.017
35382SOL    HW1 8043  12.333   9.112   2.990
35382SOL    HW2 8044  12.184   9.090   2.997
35383SOL     OW 8045   0.577   1.087   4.369
35383SOL    HW1 8046   0.620   1.094   4.284
35383SOL    HW2 8047   0.507   1.023   4.355
35384SOL     OW 8048  13.464   7.793   3.350
35384SOL    HW1 8049  13.515   7.790   3.431
35384SOL    HW2 8050  13.526   7.821   3.283
35385SOL     OW 8051   8.368  13.220   3.660
35385SOL    HW1 8052   8.427  13.222   3.585
35385SOL    HW2 8053   8.417  13.264   3.730
35386SOL     OW 8054   5.567  14.473   9.286
35386SOL    HW1 8055   5.556  14.401   9.223
35386SOL    HW2 8056   5.655  14.507   9.268
35387SOL     OW 8057   5.813   3.797   8.289
35387SOL    HW1 8058   5.873   3.723   8.291
35387SOL    HW2 8059   5.802   3.816   8.195
35388SOL     OW 8060   2.462  11.770   1.990
35388SOL    HW1 8061   2.393  11.820   1.947
35388SOL    HW2 8062   2.490  11.706   1.925
35389SOL     OW 8063   2.884   6.589  12.731
35389SOL    HW1 8064   2.816   6.522  12.743
35389SOL    HW2 8065   2.884   6.638  12.813
35390SOL     OW 8066   3.053   8.272   1.373
35390SOL    HW1 8067   3.140   8.295   1.341
35390SOL    HW2 8068   3.020   8.351   1.414
35391SOL     OW 8069   2.691  14.238   1.043
35391SOL    HW1 8070   2.604  14.277   1.047
35391SOL    HW2 8071   2.711  14.215   1.134
35392SOL     OW 8072  13.844   5.548   2.329
35392SOL    HW1 8073  13.779   5.510   2.388
35392SOL    HW2 8074  13.924   5.554   2.381
35393SOL     OW 8075   0.299   1.779   6.662
35393SOL    HW1 8076   0.296   1.750   6.571
35393SOL    HW2 8077   0.391   1.802   6.677
35394SOL     OW 8078  13.063  13.506  12.193
35394SOL    HW1 8079  13.083  13.412  12.186
35394SOL    HW2 8080  13.126  13.539  12.257
35395SOL     OW 8081   6.387   1.967  13.720
35395SOL    HW1 8082   6.342   1.944  13.639
35395SOL    HW2 8083   6.464   1.911  13.722
35396SOL     OW 8084  14.048  11.120   9.850
35396SOL    HW1 8085  14.102  11.130   9.928
35396SOL    HW2 8086  14.090  11.174   9.784
35397SOL     OW 8087   1.167   6.108   3.739
35397SOL    HW1 8088   1.178   6.093   3.645
35397SOL    HW2 8089   1.118   6.032   3.770
35398SOL     OW 8090   8.350  10.233  11.903
35398SOL    HW1 8091   8.258  10.256  11.913
35398SOL    HW2 8092   8.369  10.246  11.811
35399SOL     OW 8093   1.781   4.452  10.904
35399SOL    HW1 8094   1.866   4.445  10.860
35399SOL    HW2 8095   1.735   4.520  10.855
35400SOL     OW 8096   7.488   7.567  13.611
35400SOL    HW1 8097   7.555   7.634  13.621
35400SOL    HW2 8098   7.426   7.585  13.682
35401SOL     OW 8099   4.117   9.125   7.412
35401SOL    HW1 8100   4.063   9.099   7.339
35401SOL    HW2 8101   4.172   9.049   7.431
35402SOL     OW 8102   6.570   7.182   7.725
35402SOL    HW1 8103   6.608   7.105   7.683
35402SOL    HW2 8104   6.537   7.235   7.653
35403SOL     OW 8105   5.922   1.676   9.026
35403SOL    HW1 8106   5.893   1.585   9.015
35403SOL    HW2 8107   5.966   1.677   9.111
35404SOL     OW 8108  11.300  13.534   3.868
35404SOL    HW1 8109  11.344  13.617   3.846
35404SOL    HW2 8110  11.370  13.469   3.864
35405SOL     OW 8111   1.595   4.899  12.296
35405SOL    HW1 8112   1.690   4.904  12.281
35405SOL    HW2 8113   1.556   4.911  12.210
35406SOL     OW 8114   8.248   6.495   1.592
35406SOL    HW1 8115   8.297   6.417   1.566
35406SOL    HW2 8116   8.238   6.487   1.687
35407SOL     OW 8117  13.841  12.266   3.443
35407SOL    HW1 8118  13.810  12.323   3.372
35407SOL    HW2 8119  13.763  12.219   3.471
35408SOL     OW 8120  11.069  13.725  10.031
35408SOL    HW1 8121  10.978  13.737  10.004
35408SOL    HW2 8122  11.068  13.648  10.087
35409SOL     OW 8123  10.732  10.432   8.480
35409SOL    HW1 8124  10.675  10.433   8.557
35409SOL    HW2 8125  10.797  10.500   8.498
35410SOL     OW 8126  13.464   0.764   3.433
35410SOL    HW1 8127  13.509   0.737   3.354
35410SOL    HW2 8128  13.459   0.685   3.487
35411SOL     OW 8129   9.037  13.357  14.357
35411SOL    HW1 8130   9.069  13.367  14.447
35411SOL    HW2 8131   9.113  13.331  14.307
35412SOL     OW 8132   7.397   8.216   3.674
35412SOL    HW1 8133   7.306   8.192   3.686
35412SOL    HW2 8134   7.413   8.284   3.739
35413SOL     OW 8135   5.880  13.252   0.128
35413SOL    HW1 8136   5.856  13.160   0.114
35413SOL    HW2 8137   5.860  13.295   0.045
35414SOL     OW 8138   3.607  10.735   9.726
35414SOL    HW1 8139   3.642  10.647   9.714
35414SOL    HW2 8140   3.514  10.723   9.745
35415SOL     OW 8141   7.742   3.310   0.331
35415SOL    HW1 8142   7.656   3.306   0.372
35415SOL    HW2 8143   7.796   3.249   0.383
35416SOL     OW 8144  14.511  10.907  11.971
35416SOL    HW1 8145  14.505  10.812  11.966
35416SOL    HW2 8146  14.428  10.934  12.011
35417SOL     OW 8147   1.064   5.342   0.732
35417SOL    HW1 8148   1.113   5.260   0.741
35417SOL    HW2 8149   1.129   5.411   0.743
35418SOL     OW 8150   4.219   9.196   2.043
35418SOL    HW1 8151   4.214   9.100   2.043
35418SOL    HW2 8152   4.233   9.219   2.134
35419SOL     OW 8153  14.545   5.751   4.532
35419SOL    HW1 8154  14.538   5.843   4.506
35419SOL    HW2 8155  14.493   5.704   4.467
35420SOL     OW 8156   7.538   4.315  11.370
35420SOL    HW1 8157   7.507   4.395  11.412
35420SOL    HW2 8158   7.462   4.257  11.371
35421SOL     OW 8159   2.740   4.752   9.987
35421SOL    HW1 8160   2.722   4.809   9.912
35421SOL    HW2 8161   2.700   4.797  10.062
35422SOL     OW 8162   6.434   2.854   6.174
35422SOL    HW1 8163   6.449   2.805   6.093
35422SOL    HW2 8164   6.475   2.801   6.242
35423SOL     OW 8165   3.739   7.999  12.913
35423SOL    HW1 8166   3.756   8.031  12.824
35423SOL    HW2 8167   3.822   7.961  12.941
35424SOL     OW 8168   5.166   5.099   2.943
35424SOL    HW1 8169   5.162   5.167   2.875
35424SOL    HW2 8170   5.081   5.056   2.939
35425SOL     OW 8171  13.968   0.669   8.459
35425SOL    HW1 8172  13.879   0.634   8.455
35425SOL    HW2 8173  13.957   0.760   8.486
35426SOL     OW 8174   6.317   4.522   3.959
35426SOL    HW1 8175   6.305   4.617   3.971
35426SOL    HW2 8176   6.229   4.487   3.958
35427SOL     OW 8177   4.686   6.199   5.188
35427SOL    HW1 8178   4.776   6.168   5.195
35427SOL    HW2 8179   4.694   6.292   5.169
35428SOL     OW 8180   5.142  14.615   0.520
35428SOL    HW1 8181   5.221  14.583   0.478
35428SOL    HW2 8182   5.075  14.612   0.451
35429SOL     OW 8183   4.130   4.058   9.762
35429SOL    HW1 8184   4.176   3.994   9.816
35429SOL    HW2 8185   4.094   4.120   9.825
35430SOL     OW 8186   9.006  10.439   2.968
35430SOL    HW1 8187   8.994  10.374   2.899
35430SOL    HW2 8188   8.918  10.473   2.985
35431SOL     OW 8189  14.815   1.937  10.221
35431SOL    HW1 8190   0.010   2.001  10.253
35431SOL    HW2 8191  14.866   1.878  10.165
35432SOL     OW 8192   2.905  10.188   8.240
35432SOL    HW1 8193   2.816  10.222   8.226
35432SOL    HW2 8194   2.920  10.130   8.165
35433SOL     OW 8195   9.791   6.504   4.134
35433SOL    HW1 8196   9.854   6.476   4.200
35433SOL    HW2 8197   9.752   6.583   4.170
35434SOL     OW 8198  13.202  12.931   0.293
35434SOL    HW1 8199  13.138  12.860   0.297
35434SOL    HW2 8200  13.282  12.894   0.331
35435SOL     OW 8201   7.804   0.226   9.658
35435SOL    HW1 8202   7.876   0.196   9.714
35435SOL    HW2 8203   7.845   0.288   9.597
35436SOL     OW 8204   1.691   2.781   3.197
35436SOL    HW1 8205   1.763   2.718   3.204
35436SOL    HW2 8206   1.619   2.731   3.159
35437SOL     OW 8207   0.959  14.049   6.537
35437SOL    HW1 8208   0.940  14.128   6.588
35437SOL    HW2 8209   1.042  14.067   6.494
35438SOL     OW 8210  10.049   8.714   1.219
35438SOL    HW1 8211  10.132   8.667   1.231
35438SOL    HW2 8212  10.053   8.747   1.129
35439SOL     OW 8213  10.817   0.584   7.446
35439SOL    HW1 8214  10.729   0.610   7.474
35439SOL    HW2 8215  10.825   0.618   7.357
35440SOL     OW 8216   0.242  10.659   8.675
35440SOL    HW1 8217   0.313  10.692   8.620
35440SOL    HW2 8218   0.239  10.719   8.750
35441SOL     OW 8219   9.655   3.572   5.132
35441SOL    HW1 8220   9.742   3.539   5.109
35441SOL    HW2 8221   9.602   3.559   5.054
35442SOL     OW 8222  10.973   5.904  12.928
35442SOL    HW1 8223  10.955   5.810  12.928
35442SOL    HW2 8224  10.889   5.944  12.904
35443SOL     OW 8225  14.735  12.683   4.343
35443SOL    HW1 8226  14.732  12.650   4.433
35443SOL    HW2 8227  14.751  12.777   4.351
35444SOL     OW 8228   6.761  14.743  11.754
35444SOL    HW1 8229   6.692  14.786  11.704
35444SOL    HW2 8230   6.714  14.690  11.819
35445SOL     OW 8231  13.251   0.297  14.740
35445SOL    HW1 8232  13.235   0.216  14.693
35445SOL    HW2 8233  13.170   0.347  14.731
35446SOL     OW 8234   5.845   6.065  11.000
35446SOL    HW1 8235   5.866   6.114  11.080
35446SOL    HW2 8236   5.927   6.020  10.978
35447SOL     OW 8237   4.806   2.124   6.009
35447SOL    HW1 8238   4.774   2.038   5.982
35447SOL    HW2 8239   4.748   2.186   5.965
35448SOL     OW 8240   2.156   3.397   2.736
35448SOL    HW1 8241   2.160   3.397   2.640
35448SOL    HW2 8242   2.086   3.334   2.756
35449SOL     OW 8243   0.089  10.905   2.099
35449SOL    HW1 8244   0.126  10.958   2.028
35449SOL    HW2 8245   0.066  10.969   2.167
35450SOL     OW 8246   7.908  14.634   8.738
35450SOL    HW1 8247   7.991  14.609   8.695
35450SOL    HW2 8248   7.865  14.551   8.757
35451SOL     OW 8249   0.762  14.438   1.322
35451SOL    HW1 8250   0.702  14.506   1.290
35451SOL    HW2 8251   0.848  14.465   1.288
35452SOL     OW 8252   1.324  11.125  11.865
35452SOL    HW1 8253   1.415  11.115  11.836
35452SOL    HW2 8254   1.295  11.207  11.826
35453SOL     OW 8255   2.203   9.551   1.097
35453SOL    HW1 8256   2.118   9.590   1.077
35453SOL    HW2 8257   2.232   9.513   1.014
35454SOL     OW 8258  10.161  11.917   8.635
35454SOL    HW1 8259  10.106  11.961   8.700
35454SOL    HW2 8260  10.099  11.882   8.571
35455SOL     OW 8261   3.538   5.035  10.605
35455SOL    HW1 8262   3.498   4.967  10.551
35455SOL    HW2 8263   3.541   4.996  10.693
35456SOL     OW 8264  12.007  11.249  13.041
35456SOL    HW1 8265  12.092  11.211  13.063
35456SOL    HW2 8266  11.998  11.234  12.946
35457SOL     OW 8267  14.624   8.740   2.242
35457SOL    HW1 8268  14.677   8.763   2.165
35457SOL    HW2 8269  14.577   8.661   2.216
35458SOL     OW 8270  11.678   1.990   5.126
35458SOL    HW1 8271  11.721   2.000   5.041
35458SOL    HW2 8272  11.633   2.073   5.140
35459SOL     OW 8273   9.363   2.703  14.000
35459SOL    HW1 8274   9.295   2.662  13.946
35459SOL    HW2 8275   9.410   2.760  13.940
35460SOL     OW 8276   1.972   3.961   8.418
35460SOL    HW1 8277   1.958   3.988   8.327
35460SOL    HW2 8278   1.932   4.031   8.470
35461SOL     OW 8279   3.972   9.673   7.207
35461SOL    HW1 8280   3.932   9.660   7.293
35461SOL    HW2 8281   4.015   9.758   7.213
35462SOL     OW 8282   9.811  11.034  14.450
35462SOL    HW1 8283   9.893  11.074  14.477
35462SOL    HW2 8284   9.820  10.941  14.473
35463SOL     OW 8285   9.269  12.560  13.159
35463SOL    HW1 8286   9.183  12.535  13.193
35463SOL    HW2 8287   9.329  12.542  13.231
35464SOL     OW 8288   5.483  11.116  13.272
35464SOL    HW1 8289   5.524  11.200  13.250
35464SOL    HW2 8290   5.542  11.050  13.234
35465SOL     OW 8291  12.584   7.211  13.286
35465SOL    HW1 8292  12.625   7.298  13.285
35465SOL    HW2 8293  12.492   7.228  13.303
35466SOL     OW 8294   2.773  12.224  13.121
35466SOL    HW1 8295   2.696  12.274  13.094
35466SOL    HW2 8296   2.824  12.213  13.041
35467SOL     OW 8297   5.177  12.896   5.007
35467SOL    HW1 8298   5.235  12.884   5.082
35467SOL    HW2 8299   5.094  12.857   5.033
35468SOL     OW 8300   2.712   1.213   9.913
35468SOL    HW1 8301   2.677   1.301   9.904
35468SOL    HW2 8302   2.717   1.198  10.008
35469SOL     OW 8303  14.318   7.202   6.301
35469SOL    HW1 8304  14.314   7.133   6.367
35469SOL    HW2 8305  14.394   7.180   6.248
35470SOL     OW 8306   5.688   6.535   6.788
35470SOL    HW1 8307   5.749   6.480   6.739
35470SOL    HW2 8308   5.646   6.476   6.850
35471SOL     OW 8309   1.619   0.809   7.791
35471SOL    HW1 8310   1.688   0.761   7.836
35471SOL    HW2 8311   1.662   0.886   7.755
35472SOL     OW 8312   4.147  13.513  13.807
35472SOL    HW1 8313   4.073  13.556  13.849
35472SOL    HW2 8314   4.196  13.474  13.879
35473SOL     OW 8315  14.119  10.932   9.572
35473SOL    HW1 8316  14.042  10.977   9.536
35473SOL    HW2 8317  14.129  10.854   9.518
35474SOL     OW 8318   9.360   7.268   5.855
35474SOL    HW1 8319   9.455   7.272   5.868
35474SOL    HW2 8320   9.348   7.233   5.767
35475SOL     OW 8321   4.710   6.382  12.253
35475SOL    HW1 8322   4.711   6.293  12.216
35475SOL    HW2 8323   4.790   6.387  12.305
35476SOL     OW 8324   7.595  11.652   6.682
35476SOL    HW1 8325   7.655  11.679   6.613
35476SOL    HW2 8326   7.619  11.705   6.758
35477SOL     OW 8327   7.453   3.401   7.079
35477SOL    HW1 8328   7.534   3.434   7.118
35477SOL    HW2 8329   7.482   3.352   7.001
35478SOL     OW 8330   3.109   7.673  10.332
35478SOL    HW1 8331   3.194   7.711  10.352
35478SOL    HW2 8332   3.046   7.743  10.348
35479SOL     OW 8333   1.587   1.020   3.844
35479SOL    HW1 8334   1.505   0.994   3.885
35479SOL    HW2 8335   1.581   1.115   3.837
35480SOL     OW 8336   1.598  14.811   9.913
35480SOL    HW1 8337   1.668  14.781   9.971
35480SOL    HW2 8338   1.545  14.734   9.897
35481SOL     OW 8339  11.961   3.519   8.517
35481SOL    HW1 8340  11.983   3.559   8.602
35481SOL    HW2 8341  11.922   3.590   8.466
35482SOL     OW 8342   5.646  13.631   3.928
35482SOL    HW1 8343   5.604  13.571   3.989
35482SOL    HW2 8344   5.636  13.589   3.842
35483SOL     OW 8345  14.288   3.434   4.120
35483SOL    HW1 8346  14.261   3.346   4.094
35483SOL    HW2 8347  14.256   3.443   4.210
35484SOL     OW 8348  12.269  12.136   8.672
35484SOL    HW1 8349  12.287  12.146   8.766
35484SOL    HW2 8350  12.318  12.206   8.631
35485SOL     OW 8351   3.124  11.394   0.996
35485SOL    HW1 8352   3.056  11.326   0.992
35485SOL    HW2 8353   3.204  11.350   0.966
35486SOL     OW 8354   3.800  10.235  12.737
35486SOL    HW1 8355   3.770  10.266  12.823
35486SOL    HW2 8356   3.811  10.314  12.685
35487SOL     OW 8357   0.903  11.372   8.387
35487SOL    HW1 8358   0.950  11.441   8.339
35487SOL    HW2 8359   0.899  11.404   8.477
35488SOL     OW 8360   6.465   3.688   3.293
35488SOL    HW1 8361   6.541   3.710   3.346
35488SOL    HW2 8362   6.500   3.637   3.220
35489SOL     OW 8363  13.183   4.932   8.624
35489SOL    HW1 8364  13.092   4.952   8.645
35489SOL    HW2 8365  13.182   4.907   8.532
35490SOL     OW 8366   2.398  11.896   3.543
35490SOL    HW1 8367   2.370  11.806   3.559
35490SOL    HW2 8368   2.317  11.947   3.545
35491SOL     OW 8369   5.168   1.396  10.019
35491SOL    HW1 8370   5.198   1.480   9.983
35491SOL    HW2 8371   5.245   1.339  10.012
35492SOL     OW 8372   1.483  14.117  11.818
35492SOL    HW1 8373   1.431  14.044  11.784
35492SOL    HW2 8374   1.563  14.076  11.852
35493SOL     OW 8375  12.898  14.178   9.899
35493SOL    HW1 8376  12.958  14.166   9.973
35493SOL    HW2 8377  12.888  14.091   9.861
35494SOL     OW 8378   0.527   2.005   4.316
35494SOL    HW1 8379   0.453   1.983   4.261
35494SOL    HW2 8380   0.542   1.928   4.370
35495SOL     OW 8381   3.060  13.842   4.679
35495SOL    HW1 8382   3.102  13.927   4.668
35495SOL    HW2 8383   3.068  13.823   4.772
35496SOL     OW 8384   3.649  13.207  12.608
35496SOL    HW1 8385   3.591  13.219  12.683
35496SOL    HW2 8386   3.736  13.201  12.645
35497SOL     OW 8387  11.068  13.471   1.199
35497SOL    HW1 8388  11.068  13.378   1.222
35497SOL    HW2 8389  11.083  13.473   1.105
35498SOL     OW 8390   3.643  13.816   2.812
35498SOL    HW1 8391   3.613  13.818   2.903
35498SOL    HW2 8392   3.593  13.746   2.772
35499SOL     OW 8393  12.565   1.533   3.656
35499SOL    HW1 8394  12.502   1.605   3.649
35499SOL    HW2 8395  12.638   1.561   3.601
35500SOL     OW 8396   6.288   5.287  13.035
35500SOL    HW1 8397   6.366   5.341  13.048
35500SOL    HW2 8398   6.215   5.347  13.050
35501SOL     OW 8399   6.260   2.784   4.618
35501SOL    HW1 8400   6.178   2.743   4.592
35501SOL    HW2 8401   6.328   2.731   4.575
35502SOL     OW 8402   8.802   0.341   9.578
35502SOL    HW1 8403   8.734   0.295   9.528
35502SOL    HW2 8404   8.845   0.272   9.627
35503SOL     OW 8405   6.037   3.751   7.660
35503SOL    HW1 8406   6.022   3.835   7.617
35503SOL    HW2 8407   6.098   3.705   7.602
35504SOL     OW 8408  11.063   7.477  13.114
35504SOL    HW1 8409  10.998   7.493  13.182
35504SOL    HW2 8410  11.139   7.442  13.161
35505SOL     OW 8411   1.445   6.786   5.086
35505SOL    HW1 8412   1.532   6.748   5.090
35505SOL    HW2 8413   1.394   6.736   5.149
35506SOL     OW 8414  11.317  10.537   9.394
35506SOL    HW1 8415  11.278  10.610   9.441
35506SOL    HW2 8416  11.373  10.494   9.459
35507SOL     OW 8417   0.770   1.439  12.545
35507SOL    HW1 8418   0.805   1.379  12.611
35507SOL    HW2 8419   0.715   1.500  12.594
35508SOL     OW 8420  12.010  14.128   7.421
35508SOL    HW1 8421  12.078  14.168   7.366
35508SOL    HW2 8422  11.928  14.146   7.374
35509SOL     OW 8423  14.039   9.559  13.743
35509SOL    HW1 8424  14.065   9.502  13.816
35509SOL    HW2 8425  13.950   9.586  13.764
35510SOL     OW 8426   4.342   5.152   2.648
35510SOL    HW1 8427   4.398   5.221   2.685
35510SOL    HW2 8428   4.373   5.072   2.691
35511SOL     OW 8429   8.527   0.613  11.762
35511SOL    HW1 8430   8.442   0.634  11.723
35511SOL    HW2 8431   8.513   0.624  11.856
35512SOL     OW 8432   7.641   8.017  11.883
35512SOL    HW1 8433   7.620   8.101  11.924
35512SOL    HW2 8434   7.574   8.006  11.815
35513SOL     OW 8435   2.911   6.155   4.340
35513SOL    HW1 8436   2.835   6.097   4.335
35513SOL    HW2 8437   2.892   6.214   4.413
35514SOL     OW 8438   3.692   0.480  13.949
35514SOL    HW1 8439   3.736   0.495  14.033
35514SOL    HW2 8440   3.599   0.481  13.970
35515SOL     OW 8441  12.634  14.741  14.806
35515SOL    HW1 8442  12.554  14.732  14.754
35515SOL    HW2 8443  12.609  14.800   0.008
35516SOL     OW 8444   4.386   9.101  10.802
35516SOL    HW1 8445   4.480   9.099  10.819
35516SOL    HW2 8446   4.375   9.048  10.722
35517SOL     OW 8447  12.136   1.524   1.853
35517SOL    HW1 8448  12.141   1.614   1.822
35517SOL    HW2 8449  12.102   1.475   1.777
35518SOL     OW 8450   2.548   0.053  12.913
35518SOL    HW1 8451   2.522  14.842  12.869
35518SOL    HW2 8452   2.468   0.104  12.919
35519SOL     OW 8453   2.985  12.241  14.033
35519SOL    HW1 8454   2.950  12.330  14.042
35519SOL    HW2 8455   2.945  12.193  14.105
35520SOL     OW 8456   6.677  14.546   4.786
35520SOL    HW1 8457   6.743  14.590   4.732
35520SOL    HW2 8458   6.727  14.497   4.850
35521SOL     OW 8459  12.002   4.831   6.109
35521SOL    HW1 8460  12.039   4.754   6.066
35521SOL    HW2 8461  12.029   4.904   6.053
35522SOL     OW 8462  11.944   6.484   8.068
35522SOL    HW1 8463  11.904   6.404   8.102
35522SOL    HW2 8464  12.007   6.454   8.003
35523SOL     OW 8465   7.557   1.186  11.661
35523SOL    HW1 8466   7.496   1.125  11.702
35523SOL    HW2 8467   7.522   1.198  11.572
35524SOL     OW 8468  13.327   4.786   5.198
35524SOL    HW1 8469  13.271   4.743   5.262
35524SOL    HW2 8470  13.339   4.875   5.232
35525SOL     OW 8471   2.160   2.704   9.189
35525SOL    HW1 8472   2.252   2.713   9.162
35525SOL    HW2 8473   2.121   2.648   9.122
35526SOL     OW 8474   0.346  12.611   9.795
35526SOL    HW1 8475   0.406  12.609   9.869
35526SOL    HW2 8476   0.314  12.701   9.792
35527SOL     OW 8477   9.585   2.758   5.304
35527SOL    HW1 8478   9.668   2.711   5.313
35527SOL    HW2 8479   9.594   2.834   5.361
35528SOL     OW 8480   9.069   8.169   0.540
35528SOL    HW1 8481   9.014   8.091   0.540
35528SOL    HW2 8482   9.072   8.197   0.449
35529SOL     OW 8483  13.128   9.698   6.942
35529SOL    HW1 8484  13.033   9.705   6.952
35529SOL    HW2 8485  13.150   9.758   6.871
35530SOL     OW 8486   5.871   6.985   8.181
35530SOL    HW1 8487   5.912   7.068   8.205
35530SOL    HW2 8488   5.939   6.919   8.194
35531SOL     OW 8489   0.005   1.625   6.393
35531SOL    HW1 8490   0.013   1.533   6.366
35531SOL    HW2 8491  14.781   1.639   6.404
35532SOL     OW 8492  11.518  10.327   8.588
35532SOL    HW1 8493  11.577  10.396   8.556
35532SOL    HW2 8494  11.575  10.267   8.636
35533SOL     OW 8495  12.821   5.777   5.796
35533SOL    HW1 8496  12.766   5.712   5.752
35533SOL    HW2 8497  12.783   5.784   5.883
35534SOL     OW 8498  12.154  10.500   3.487
35534SOL    HW1 8499  12.085  10.442   3.518
35534SOL    HW2 8500  12.119  10.537   3.406
35535SOL     OW 8501   9.762  14.473  14.132
35535SOL    HW1 8502   9.797  14.562  14.123
35535SOL    HW2 8503   9.839  14.419  14.149
35536SOL     OW 8504   1.579   4.746   7.157
35536SOL    HW1 8505   1.483   4.748   7.153
35536SOL    HW2 8506   1.602   4.666   7.109
35537SOL     OW 8507   7.530  10.641   8.035
35537SOL    HW1 8508   7.466  10.705   8.066
35537SOL    HW2 8509   7.572  10.682   7.960
35538SOL     OW 8510   6.447   4.838   9.609
35538SOL    HW1 8511   6.405   4.867   9.529
35538SOL    HW2 8512   6.502   4.764   9.582
35539SOL     OW 8513  10.419   9.937   1.763
35539SOL    HW1 8514  10.374  10.012   1.801
35539SOL    HW2 8515  10.494   9.975   1.717
35540SOL     OW 8516  13.058   6.044  10.257
35540SOL    HW1 8517  13.113   6.086  10.190
35540SOL    HW2 8518  12.976   6.025  10.211
35541SOL     OW 8519  12.639   6.359   7.031
35541SOL    HW1 8520  12.555   6.336   6.991
35541SOL    HW2 8521  12.704   6.309   6.982
35542SOL     OW 8522   1.509   8.319  10.023
35542SOL    HW1 8523   1.439   8.290   9.965
35542SOL    HW2 8524   1.554   8.238  10.048
35543SOL     OW 8525   0.475   2.302  14.783
35543SOL    HW1 8526   0.410   2.231  14.777
35543SOL    HW2 8527   0.478   2.323   0.007
35544SOL     OW 8528   1.831   2.823  10.910
35544SOL    HW1 8529   1.916   2.807  10.869
35544SOL    HW2 8530   1.767   2.808  10.840
35545SOL     OW 8531   0.875   9.040   6.560
35545SOL    HW1 8532   0.932   9.049   6.636
35545SOL    HW2 8533   0.805   8.982   6.588
35546SOL     OW 8534   8.404   1.213  10.887
35546SOL    HW1 8535   8.462   1.251  10.822
35546SOL    HW2 8536   8.316   1.234  10.856
35547SOL     OW 8537  14.585   8.117   8.475
35547SOL    HW1 8538  14.644   8.056   8.518
35547SOL    HW2 8539  14.634   8.198   8.469
35548SOL     OW 8540   3.095  14.504  12.977
35548SOL    HW1 8541   3.038  14.471  13.047
35548SOL    HW2 8542   3.040  14.503  12.899
35549SOL     OW 8543   2.514  12.653  11.248
35549SOL    HW1 8544   2.440  12.650  11.187
35549SOL    HW2 8545   2.475  12.668  11.334
35550SOL     OW 8546   3.617  14.848  14.183
35550SOL    HW1 8547   3.652  14.835  14.270
35550SOL    HW2 8548   3.688   0.019  14.133
35551SOL     OW 8549   8.716  11.825  11.799
35551SOL    HW1 8550   8.664  11.753  11.836
35551SOL    HW2 8551   8.730  11.800  11.708
35552SOL     OW 8552   6.526  11.015   3.456
35552SOL    HW1 8553   6.577  10.982   3.383
35552SOL    HW2 8554   6.490  10.936   3.497
35553SOL     OW 8555  11.257   5.680   6.913
35553SOL    HW1 8556  11.347   5.691   6.946
35553SOL    HW2 8557  11.267   5.682   6.818
35554SOL     OW 8558   0.401   2.414   7.555
35554SOL    HW1 8559   0.494   2.413   7.535
35554SOL    HW2 8560   0.365   2.481   7.497
35555SOL     OW 8561  10.915   3.299   5.069
35555SOL    HW1 8562  11.002   3.268   5.042
35555SOL    HW2 8563  10.900   3.376   5.014
35556SOL     OW 8564  14.353   8.189   8.966
35556SOL    HW1 8565  14.318   8.276   8.985
35556SOL    HW2 8566  14.343   8.180   8.871
35557SOL     OW 8567   7.328   0.442   6.602
35557SOL    HW1 8568   7.269   0.470   6.672
35557SOL    HW2 8569   7.380   0.371   6.640
35558SOL     OW 8570   7.497   4.249   2.893
35558SOL    HW1 8571   7.533   4.233   2.980
35558SOL    HW2 8572   7.446   4.329   2.901
35559SOL     OW 8573  10.331  13.189  14.634
35559SOL    HW1 8574  10.389  13.235  14.694
35559SOL    HW2 8575  10.294  13.117  14.685
35560SOL     OW 8576  11.351   0.981   3.675
35560SOL    HW1 8577  11.298   0.946   3.603
35560SOL    HW2 8578  11.344   0.916   3.744
35561SOL     OW 8579  12.262   1.691   3.021
35561SOL    HW1 8580  12.198   1.622   3.042
35561SOL    HW2 8581  12.304   1.662   2.941
35562SOL     OW 8582  13.172   1.261  11.315
35562SOL    HW1 8583  13.212   1.344  11.340
35562SOL    HW2 8584  13.157   1.269  11.220
35563SOL     OW 8585   8.037   7.561  14.242
35563SOL    HW1 8586   8.007   7.609  14.319
35563SOL    HW2 8587   7.956   7.536  14.197
35564SOL     OW 8588   6.761   5.011   5.616
35564SOL    HW1 8589   6.666   5.020   5.606
35564SOL    HW2 8590   6.781   4.926   5.576
35565SOL     OW 8591   2.063   5.866   2.594
35565SOL    HW1 8592   2.039   5.953   2.565
35565SOL    HW2 8593   1.982   5.816   2.592
35566SOL     OW 8594   5.897   3.688   6.387
35566SOL    HW1 8595   5.928   3.649   6.468
35566SOL    HW2 8596   5.920   3.624   6.319
35567SOL     OW 8597  12.337  13.066   0.046
35567SOL    HW1 8598  12.340  13.141  14.857
35567SOL    HW2 8599  12.419  13.019   0.030
35568SOL     OW 8600   5.069   3.434   5.143
35568SOL    HW1 8601   5.111   3.421   5.229
35568SOL    HW2 8602   5.084   3.526   5.123
35569SOL     OW 8603   9.911  11.032   9.481
35569SOL    HW1 8604   9.879  11.115   9.445
35569SOL    HW2 8605   9.919  10.974   9.406
35570SOL     OW 8606   1.411   0.041   2.556
35570SOL    HW1 8607   1.466  14.843   2.518
35570SOL    HW2 8608   1.470   0.115   2.569
35571SOL     OW 8609   8.824   3.702   7.520
35571SOL    HW1 8610   8.794   3.619   7.484
35571SOL    HW2 8611   8.749   3.761   7.511
35572SOL     OW 8612   7.032   9.154   5.772
35572SOL    HW1 8613   7.040   9.195   5.686
35572SOL    HW2 8614   6.994   9.068   5.754
35573SOL     OW 8615   5.412   3.223   1.208
35573SOL    HW1 8616   5.504   3.250   1.207
35573SOL    HW2 8617   5.364   3.304   1.190
35574SOL     OW 8618  14.360   9.737  13.155
35574SOL    HW1 8619  14.275   9.732  13.200
35574SOL    HW2 8620  14.417   9.681  13.207
35575SOL     OW 8621   3.798   4.006  14.274
35575SOL    HW1 8622   3.851   4.015  14.195
35575SOL    HW2 8623   3.776   3.913  14.278
35576SOL     OW 8624   7.336   1.368  13.411
35576SOL    HW1 8625   7.427   1.345  13.433
35576SOL    HW2 8626   7.298   1.286  13.380
35577SOL     OW 8627   5.112  12.667   9.941
35577SOL    HW1 8628   5.018  12.653   9.932
35577SOL    HW2 8629   5.150  12.579   9.938
35578SOL     OW 8630  11.833  12.726   3.996
35578SOL    HW1 8631  11.763  12.704   4.058
35578SOL    HW2 8632  11.791  12.778   3.928
35579SOL     OW 8633  10.712   9.299  14.492
35579SOL    HW1 8634  10.630   9.253  14.508
35579SOL    HW2 8635  10.743   9.325  14.579
35580SOL     OW 8636  13.372   7.304   9.522
35580SOL    HW1 8637  13.406   7.231   9.470
35580SOL    HW2 8638  13.407   7.383   9.479
35581SOL     OW 8639   3.918   3.143   4.471
35581SOL    HW1 8640   3.855   3.084   4.430
35581SOL    HW2 8641   3.926   3.111   4.561
35582SOL     OW 8642   6.795   7.368  13.121
35582SOL    HW1 8643   6.715   7.344  13.075
35582SOL    HW2 8644   6.825   7.287  13.162
35583SOL     OW 8645  11.646  11.821   5.745
35583SOL    HW1 8646  11.651  11.760   5.819
35583SOL    HW2 8647  11.735  11.855   5.736
35584SOL     OW 8648  14.245   4.709   6.916
35584SOL    HW1 8649  14.267   4.619   6.890
35584SOL    HW2 8650  14.162   4.727   6.873
35585SOL     OW 8651  14.219  11.190  10.080
35585SOL    HW1 8652  14.287  11.238  10.033
35585SOL    HW2 8653  14.234  11.212  10.172
35586SOL     OW 8654   2.331  12.113   8.776
35586SOL    HW1 8655   2.402  12.085   8.834
35586SOL    HW2 8656   2.329  12.048   8.707
35587SOL     OW 8657   4.378   4.460   7.105
35587SOL    HW1 8658   4.353   4.540   7.151
35587SOL    HW2 8659   4.320   4.457   7.029
35588SOL     OW 8660   1.713   8.988   3.186
35588SOL    HW1 8661   1.768   8.972   3.108
35588SOL    HW2 8662   1.768   8.959   3.259
35589SOL     OW 8663   8.507   9.494  10.913
35589SOL    HW1 8664   8.423   9.498  10.958
35589SOL    HW2 8665   8.553   9.573  10.940
35590SOL     OW 8666   9.851   0.238   1.992
35590SOL    HW1 8667   9.802   0.214   1.913
35590SOL    HW2 8668   9.943   0.231   1.966
35591SOL     OW 8669  11.546   9.286   9.527
35591SOL    HW1 8670  11.619   9.341   9.501
35591SOL    HW2 8671  11.580   9.196   9.525
35592SOL     OW 8672   0.251  10.600   8.150
35592SOL    HW1 8673   0.178  10.539   8.153
35592SOL    HW2 8674   0.253  10.640   8.237
35593SOL     OW 8675   2.295  13.711  10.364
35593SOL    HW1 8676   2.332  13.650  10.428
35593SOL    HW2 8677   2.292  13.661  10.283
35594SOL     OW 8678   4.234   7.748   1.207
35594SOL    HW1 8679   4.192   7.707   1.131
35594SOL    HW2 8680   4.160   7.773   1.263
35595SOL     OW 8681   0.895  10.061   8.864
35595SOL    HW1 8682   0.963  10.035   8.801
35595SOL    HW2 8683   0.943  10.078   8.945
35596SOL     OW 8684   4.991   6.620   7.455
35596SOL    HW1 8685   4.994   6.624   7.551
35596SOL    HW2 8686   4.988   6.712   7.427
35597SOL     OW 8687   0.625   5.079  13.689
35597SOL    HW1 8688   0.611   4.991  13.726
35597SOL    HW2 8689   0.542   5.124  13.705
35598SOL     OW 8690   6.640   4.699   0.798
35598SOL    HW1 8691   6.590   4.770   0.838
35598SOL    HW2 8692   6.640   4.629   0.863
35599SOL     OW 8693  11.704   4.393   2.545
35599SOL    HW1 8694  11.640   4.457   2.576
35599SOL    HW2 8695  11.784   4.415   2.592
35600SOL     OW 8696   7.411   4.987   7.987
35600SOL    HW1 8697   7.417   5.076   8.021
35600SOL    HW2 8698   7.361   4.996   7.905
35601SOL     OW 8699  10.371   5.167   6.878
35601SOL    HW1 8700  10.336   5.254   6.856
35601SOL    HW2 8701  10.438   5.151   6.812
35602SOL     OW 8702   4.527   7.706   3.193
35602SOL    HW1 8703   4.539   7.714   3.287
35602SOL    HW2 8704   4.611   7.674   3.160
35603SOL     OW 8705   1.912   7.087   1.736
35603SOL    HW1 8706   1.947   7.038   1.810
35603SOL    HW2 8707   1.915   7.026   1.663
35604SOL     OW 8708  10.176  11.600   1.567
35604SOL    HW1 8709  10.145  11.510   1.554
35604SOL    HW2 8710  10.120  11.635   1.636
35605SOL     OW 8711   8.271  10.949   6.620
35605SOL    HW1 8712   8.286  10.855   6.612
35605SOL    HW2 8713   8.185  10.957   6.661
35606SOL     OW 8714  13.717   5.138   5.247
35606SOL    HW1 8715  13.630   5.176   5.259
35606SOL    HW2 8716  13.719   5.064   5.308
35607SOL     OW 8717   2.646  14.502   9.082
35607SOL    HW1 8718   2.656  14.467   8.994
35607SOL    HW2 8719   2.608  14.430   9.132
35608SOL     OW 8720   2.585   3.452   7.287
35608SOL    HW1 8721   2.558   3.419   7.201
35608SOL    HW2 8722   2.672   3.489   7.271
35609SOL     OW 8723   8.795   3.400   4.416
35609SOL    HW1 8724   8.762   3.323   4.463
35609SOL    HW2 8725   8.766   3.386   4.326
35610SOL     OW 8726   7.485  14.059   5.820
35610SOL    HW1 8727   7.535  13.996   5.769
35610SOL    HW2 8728   7.457  14.010   5.898
35611SOL     OW 8729   4.861   1.526   2.675
35611SOL    HW1 8730   4.918   1.451   2.658
35611SOL    HW2 8731   4.918   1.602   2.670
35612SOL     OW 8732   6.498   4.495   4.833
35612SOL    HW1 8733   6.414   4.541   4.825
35612SOL    HW2 8734   6.548   4.549   4.894
35613SOL     OW 8735   7.534   1.732   2.190
35613SOL    HW1 8736   7.474   1.658   2.191
35613SOL    HW2 8737   7.615   1.697   2.153
35614SOL     OW 8738  10.746  14.106   4.011
35614SOL    HW1 8739  10.781  14.135   3.926
35614SOL    HW2 8740  10.653  14.092   3.994
35615SOL     OW 8741   1.083   6.987  13.064
35615SOL    HW1 8742   1.013   6.987  13.129
35615SOL    HW2 8743   1.061   6.914  13.006
35616SOL     OW 8744   2.577   0.308   0.837
35616SOL    HW1 8745   2.555   0.271   0.752
35616SOL    HW2 8746   2.597   0.232   0.892
35617SOL     OW 8747  12.456   4.409  12.042
35617SOL    HW1 8748  12.446   4.353  11.965
35617SOL    HW2 8749  12.369   4.447  12.054
35618SOL     OW 8750  10.876  12.595   7.115
35618SOL    HW1 8751  10.908  12.577   7.203
35618SOL    HW2 8752  10.781  12.582   7.120
35619SOL     OW 8753   9.948   2.001   1.991
35619SOL    HW1 8754   9.982   2.089   1.973
35619SOL    HW2 8755   9.882   1.987   1.923
35620SOL     OW 8756   1.739  11.662   9.081
35620SOL    HW1 8757   1.731  11.728   9.149
35620SOL    HW2 8758   1.730  11.711   8.999
35621SOL     OW 8759   1.290   2.391  14.234
35621SOL    HW1 8760   1.314   2.380  14.142
35621SOL    HW2 8761   1.228   2.321  14.252
35622SOL     OW 8762   6.332   9.987  13.770
35622SOL    HW1 8763   6.308   9.987  13.863
35622SOL    HW2 8764   6.364   9.898  13.753
35623SOL     OW 8765   0.968   2.181  14.112
35623SOL    HW1 8766   0.985   2.274  14.093
35623SOL    HW2 8767   1.040   2.154  14.168
35624SOL     OW 8768  10.921   6.794   5.252
35624SOL    HW1 8769  10.917   6.732   5.179
35624SOL    HW2 8770  10.914   6.740   5.330
35625SOL     OW 8771   6.729  11.408  12.884
35625SOL    HW1 8772   6.755  11.418  12.976
35625SOL    HW2 8773   6.778  11.476  12.838
35626SOL     OW 8774   8.039  10.433  13.445
35626SOL    HW1 8775   8.122  10.427  13.397
35626SOL    HW2 8776   7.986  10.494  13.396
35627SOL     OW 8777   7.244   3.598  10.177
35627SOL    HW1 8778   7.164   3.587  10.125
35627SOL    HW2 8779   7.225   3.555  10.260
35628SOL     OW 8780   1.214   3.146   0.999
35628SOL    HW1 8781   1.120   3.125   0.993
35628SOL    HW2 8782   1.218   3.239   0.981
35629SOL     OW 8783  13.870   6.017   5.948
35629SOL    HW1 8784  13.948   5.967   5.926
35629SOL    HW2 8785  13.901   6.107   5.957
35630SOL     OW 8786  11.029   9.331   2.962
35630SOL    HW1 8787  11.066   9.339   3.050
35630SOL    HW2 8788  11.079   9.259   2.922
35631SOL     OW 8789   1.748   6.804  10.546
35631SOL    HW1 8790   1.810   6.868  10.510
35631SOL    HW2 8791   1.669   6.817  10.495
35632SOL     OW 8792  12.959   1.668   2.888
35632SOL    HW1 8793  12.989   1.577   2.886
35632SOL    HW2 8794  12.935   1.688   2.797
35633SOL     OW 8795   5.486   1.946  13.930
35633SOL    HW1 8796   5.465   1.995  14.009
35633SOL    HW2 8797   5.562   1.991  13.894
35634SOL     OW 8798   4.277   1.627   4.988
35634SOL    HW1 8799   4.301   1.719   4.975
35634SOL    HW2 8800   4.330   1.579   4.923
35635SOL     OW 8801  14.457   0.915   8.272
35635SOL    HW1 8802  14.493   0.845   8.328
35635SOL    HW2 8803  14.517   0.920   8.198
35636SOL     OW 8804  12.651   5.821   9.978
35636SOL    HW1 8805  12.654   5.731  10.012
35636SOL    HW2 8806  12.559   5.836   9.958
35637SOL     OW 8807   5.768   8.390   2.620
35637SOL    HW1 8808   5.805   8.338   2.549
35637SOL    HW2 8809   5.757   8.478   2.582
35638SOL     OW 8810   5.219   2.198   5.973
35638SOL    HW1 8811   5.313   2.184   5.971
35638SOL    HW2 8812   5.198   2.236   5.888
35639SOL     OW 8813   5.513  10.729   3.375
35639SOL    HW1 8814   5.505  10.663   3.306
35639SOL    HW2 8815   5.590  10.779   3.350
35640SOL     OW 8816   2.814   9.427  14.420
35640SOL    HW1 8817   2.859   9.431  14.504
35640SOL    HW2 8818   2.771   9.512  14.411
35641SOL     OW 8819   5.975   2.533   6.878
35641SOL    HW1 8820   5.916   2.605   6.858
35641SOL    HW2 8821   6.011   2.506   6.794
35642SOL     OW 8822   3.180   4.339   8.455
35642SOL    HW1 8823   3.254   4.397   8.439
35642SOL    HW2 8824   3.204   4.290   8.534
35643SOL     OW 8825   7.134  12.037   1.652
35643SOL    HW1 8826   7.165  11.951   1.625
35643SOL    HW2 8827   7.052  12.019   1.699
35644SOL     OW 8828  11.985  13.516   7.890
35644SOL    HW1 8829  11.922  13.451   7.924
35644SOL    HW2 8830  11.936  13.564   7.823
35645SOL     OW 8831  13.827  10.855  14.467
35645SOL    HW1 8832  13.831  10.801  14.389
35645SOL    HW2 8833  13.901  10.916  14.459
35646SOL     OW 8834  13.289  12.760   3.423
35646SOL    HW1 8835  13.267  12.851   3.442
35646SOL    HW2 8836  13.205  12.717   3.407
35647SOL     OW 8837   1.275   4.525   0.849
35647SOL    HW1 8838   1.339   4.484   0.907
35647SOL    HW2 8839   1.201   4.546   0.907
35648SOL     OW 8840   5.808   4.558   7.704
35648SOL    HW1 8841   5.772   4.642   7.678
35648SOL    HW2 8842   5.900   4.562   7.677
35649SOL     OW 8843  11.287  11.469   3.369
35649SOL    HW1 8844  11.308  11.512   3.287
35649SOL    HW2 8845  11.230  11.532   3.415
35650SOL     OW 8846  11.982  13.553   1.275
35650SOL    HW1 8847  12.018  13.475   1.318
35650SOL    HW2 8848  11.905  13.521   1.228
35651SOL     OW 8849   8.584   4.381  12.404
35651SOL    HW1 8850   8.651   4.411  12.464
35651SOL    HW2 8851   8.519   4.451  12.402
35652SOL     OW 8852  13.434  12.899   2.290
35652SOL    HW1 8853  13.430  12.812   2.251
35652SOL    HW2 8854  13.521  12.932   2.267
35653SOL     OW 8855  12.962  12.379   6.212
35653SOL    HW1 8856  13.047  12.335   6.211
35653SOL    HW2 8857  12.918  12.347   6.133
35654SOL     OW 8858   0.263   9.485  13.237
35654SOL    HW1 8859   0.274   9.433  13.157
35654SOL    HW2 8860   0.181   9.455  13.275
35655SOL     OW 8861   6.034   8.204  11.042
35655SOL    HW1 8862   6.082   8.122  11.051
35655SOL    HW2 8863   6.011   8.209  10.949
35656SOL     OW 8864   6.305   2.857   7.071
35656SOL    HW1 8865   6.238   2.925   7.066
35656SOL    HW2 8866   6.368   2.889   7.135
35657SOL     OW 8867   5.244  11.187  11.197
35657SOL    HW1 8868   5.195  11.140  11.130
35657SOL    HW2 8869   5.180  11.244  11.239
35658SOL     OW 8870   4.786   8.155   5.487
35658SOL    HW1 8871   4.692   8.148   5.501
35658SOL    HW2 8872   4.824   8.090   5.547
35659SOL     OW 8873  10.690   8.595   6.256
35659SOL    HW1 8874  10.650   8.589   6.169
35659SOL    HW2 8875  10.665   8.514   6.300
35660SOL     OW 8876  13.356  12.622   9.679
35660SOL    HW1 8877  13.315  12.556   9.622
35660SOL    HW2 8878  13.388  12.689   9.618
35661SOL     OW 8879  14.237   4.543   9.156
35661SOL    HW1 8880  14.222   4.627   9.111
35661SOL    HW2 8881  14.185   4.480   9.106
35662SOL     OW 8882   2.385  10.791   7.563
35662SOL    HW1 8883   2.375  10.770   7.471
35662SOL    HW2 8884   2.302  10.764   7.603
35663SOL     OW 8885  11.729   3.319  13.789
35663SOL    HW1 8886  11.688   3.398  13.823
35663SOL    HW2 8887  11.675   3.247  13.823
35664SOL     OW 8888  10.569  10.860   8.368
35664SOL    HW1 8889  10.499  10.804   8.403
35664SOL    HW2 8890  10.557  10.857   8.273
35665SOL     OW 8891   5.283  14.859   8.812
35665SOL    HW1 8892   5.280   0.084   8.828
35665SOL    HW2 8893   5.375  14.841   8.792
35666SOL     OW 8894   0.532  12.223   7.629
35666SOL    HW1 8895   0.544  12.318   7.626
35666SOL    HW2 8896   0.566  12.191   7.546
35667SOL     OW 8897  14.109   4.322   9.627
35667SOL    HW1 8898  14.149   4.379   9.561
35667SOL    HW2 8899  14.140   4.234   9.605
35668SOL     OW 8900   7.387   0.384   2.770
35668SOL    HW1 8901   7.372   0.355   2.680
35668SOL    HW2 8902   7.314   0.443   2.789
35669SOL     OW 8903  14.309   8.913  10.240
35669SOL    HW1 8904  14.301   8.904  10.335
35669SOL    HW2 8905  14.219   8.914  10.208
35670SOL     OW 8906   8.761   4.117  11.963
35670SOL    HW1 8907   8.854   4.094  11.958
35670SOL    HW2 8908   8.728   4.098  11.875
35671SOL     OW 8909   4.202  12.543  13.188
35671SOL    HW1 8910   4.177  12.471  13.245
35671SOL    HW2 8911   4.297  12.539  13.183
35672SOL     OW 8912   2.794   7.485  14.770
35672SOL    HW1 8913   2.745   7.565  14.749
35672SOL    HW2 8914   2.831   7.457  14.686
35673SOL     OW 8915   4.430  13.142  14.021
35673SOL    HW1 8916   4.502  13.096  14.062
35673SOL    HW2 8917   4.453  13.146  13.928
35674SOL     OW 8918   5.371   6.394   9.280
35674SOL    HW1 8919   5.451   6.440   9.307
35674SOL    HW2 8920   5.373   6.313   9.331
35675SOL     OW 8921   6.142   8.688  12.348
35675SOL    HW1 8922   6.112   8.600  12.323
35675SOL    HW2 8923   6.127   8.692  12.443
35676SOL     OW 8924  10.795   6.807  10.001
35676SOL    HW1 8925  10.860   6.764   9.945
35676SOL    HW2 8926  10.846   6.866  10.056
35677SOL     OW 8927  10.755   7.422  13.396
35677SOL    HW1 8928  10.712   7.392  13.476
35677SOL    HW2 8929  10.687   7.469  13.348
35678SOL     OW 8930   6.066  14.258  12.872
35678SOL    HW1 8931   6.037  14.187  12.928
35678SOL    HW2 8932   6.132  14.219  12.815
35679SOL     OW 8933   3.694   7.711   8.121
35679SOL    HW1 8934   3.631   7.709   8.049
35679SOL    HW2 8935   3.730   7.622   8.124
35680SOL     OW 8936   8.258   6.781  13.561
35680SOL    HW1 8937   8.271   6.754  13.470
35680SOL    HW2 8938   8.327   6.737  13.610
35681SOL     OW 8939   6.277  14.182   1.785
35681SOL    HW1 8940   6.285  14.209   1.694
35681SOL    HW2 8941   6.363  14.147   1.807
35682SOL     OW 8942   5.909   7.861   1.270
35682SOL    HW1 8943   5.912   7.953   1.244
35682SOL    HW2 8944   5.973   7.854   1.341
35683SOL     OW 8945   8.696   5.927   2.980
35683SOL    HW1 8946   8.603   5.922   2.998
35683SOL    HW2 8947   8.738   5.914   3.066
35684SOL     OW 8948  10.982  12.989  10.278
35684SOL    HW1 8949  10.932  13.028  10.207
35684SOL    HW2 8950  11.047  12.934  10.235
35685SOL     OW 8951  14.134   9.097  10.033
35685SOL    HW1 8952  14.180   9.180  10.043
35685SOL    HW2 8953  14.176   9.055   9.958
35686SOL     OW 8954   7.216  11.732   9.479
35686SOL    HW1 8955   7.270  11.808   9.503
35686SOL    HW2 8956   7.278  11.671   9.440
35687SOL     OW 8957   1.822   3.914  13.856
35687SOL    HW1 8958   1.916   3.904  13.838
35687SOL    HW2 8959   1.780   3.890  13.773
35688SOL     OW 8960  14.350   6.395   8.036
35688SOL    HW1 8961  14.363   6.335   8.110
35688SOL    HW2 8962  14.265   6.369   7.999
35689SOL     OW 8963   9.556  13.274   9.233
35689SOL    HW1 8964   9.472  13.230   9.220
35689SOL    HW2 8965   9.578  13.309   9.147
35690SOL     OW 8966  10.934  10.868   2.805
35690SOL    HW1 8967  11.025  10.864   2.835
35690SOL    HW2 8968  10.937  10.837   2.715
35691SOL     OW 8969   1.440  12.376   3.758
35691SOL    HW1 8970   1.354  12.358   3.797
35691SOL    HW2 8971   1.419  12.420   3.675
35692SOL     OW 8972   4.727  14.648   8.513
35692SOL    HW1 8973   4.674  14.656   8.434
35692SOL    HW2 8974   4.719  14.556   8.539
35693SOL     OW 8975   1.865   1.986   8.178
35693SOL    HW1 8976   1.845   2.026   8.094
35693SOL    HW2 8977   1.892   2.059   8.234
35694SOL     OW 8978   1.037   2.799  12.621
35694SOL    HW1 8979   1.111   2.782  12.564
35694SOL    HW2 8980   0.969   2.738  12.593
35695SOL     OW 8981   9.537   1.991  12.211
35695SOL    HW1 8982   9.562   2.049  12.283
35695SOL    HW2 8983   9.575   1.907  12.232
35696SOL     OW 8984   6.778  10.146   7.065
35696SOL    HW1 8985   6.769  10.076   7.000
35696SOL    HW2 8986   6.863  10.130   7.107
35697SOL     OW 8987  12.567  10.532   1.024
35697SOL    HW1 8988  12.629  10.460   1.040
35697SOL    HW2 8989  12.492  10.490   0.983
35698SOL     OW 8990  10.077   5.116   0.442
35698SOL    HW1 8991  10.109   5.193   0.490
35698SOL    HW2 8992  10.073   5.046   0.507
35699SOL     OW 8993  14.435  10.038   3.536
35699SOL    HW1 8994  14.446   9.943   3.535
35699SOL    HW2 8995  14.424  10.062   3.444
35700SOL     OW 8996   9.601   7.243   4.813
35700SOL    HW1 8997   9.582   7.223   4.904
35700SOL    HW2 8998   9.556   7.175   4.763
35701SOL     OW 8999   8.613  10.577   9.190
35701SOL    HW1 9000   8.551  10.650   9.188
35701SOL    HW2 9001   8.618  10.548   9.099
35702SOL     OW 9002  10.432  13.502  12.049
35702SOL    HW1 9003  10.445  13.596  12.034
35702SOL    HW2 9004  10.500  13.460  11.997
35703SOL     OW 9005   1.358   9.919  14.183
35703SOL    HW1 9006   1.425   9.987  14.177
35703SOL    HW2 9007   1.356   9.880  14.096
35704SOL     OW 9008   6.798   7.780   8.684
35704SOL    HW1 9009   6.757   7.800   8.768
35704SOL    HW2 9010   6.743   7.823   8.619
35705SOL     OW 9011   5.767  10.506   6.611
35705SOL    HW1 9012   5.802  10.540   6.694
35705SOL    HW2 9013   5.821  10.429   6.593
35706SOL     OW 9014   0.762   1.766   5.391
35706SOL    HW1 9015   0.728   1.801   5.473
35706SOL    HW2 9016   0.715   1.684   5.379
35707SOL     OW 9017   6.292   6.728   5.883
35707SOL    HW1 9018   6.309   6.636   5.902
35707SOL    HW2 9019   6.335   6.743   5.799
35708SOL     OW 9020   3.165  13.842   8.305
35708SOL    HW1 9021   3.071  13.835   8.316
35708SOL    HW2 9022   3.179  13.834   8.211
35709SOL     OW 9023  10.080  13.529   3.574
35709SOL    HW1 9024  10.050  13.581   3.499
35709SOL    HW2 9025  10.150  13.582   3.614
35710SOL     OW 9026   6.116  10.593  12.226
35710SOL    HW1 9027   6.163  10.619  12.147
35710SOL    HW2 9028   6.183  10.553  12.282
35711SOL     OW 9029   4.101  14.579   0.059
35711SOL    HW1 9030   4.040  14.644   0.024
35711SOL    HW2 9031   4.067  14.558   0.146
35712SOL     OW 9032  12.179  12.123   2.173
35712SOL    HW1 9033  12.218  12.129   2.261
35712SOL    HW2 9034  12.125  12.202   2.166
35713SOL     OW 9035   9.190   2.511   2.089
35713SOL    HW1 9036   9.119   2.520   2.026
35713SOL    HW2 9037   9.160   2.559   2.166
35714SOL     OW 9038  13.161   7.889   7.989
35714SOL    HW1 9039  13.076   7.917   8.023
35714SOL    HW2 9040  13.140   7.851   7.904
35715SOL     OW 9041   3.566   2.358  13.729
35715SOL    HW1 9042   3.572   2.409  13.809
35715SOL    HW2 9043   3.656   2.356  13.695
35716SOL     OW 9044  12.193  12.867  13.240
35716SOL    HW1 9045  12.243  12.930  13.187
35716SOL    HW2 9046  12.166  12.800  13.178
35717SOL     OW 9047   3.968   2.202   7.513
35717SOL    HW1 9048   3.921   2.284   7.524
35717SOL    HW2 9049   3.909   2.135   7.548
35718SOL     OW 9050  11.518  14.499   1.545
35718SOL    HW1 9051  11.521  14.412   1.508
35718SOL    HW2 9052  11.607  14.514   1.579
35719SOL     OW 9053  12.707   5.076   6.720
35719SOL    HW1 9054  12.774   5.114   6.663
35719SOL    HW2 9055  12.742   5.087   6.808
35720SOL     OW 9056  13.164  11.547  13.977
35720SOL    HW1 9057  13.195  11.474  14.032
35720SOL    HW2 9058  13.168  11.623  14.034
35721SOL     OW 9059   8.741   0.353   4.974
35721SOL    HW1 9060   8.705   0.427   4.925
35721SOL    HW2 9061   8.712   0.276   4.926
35722SOL     OW 9062  10.366   0.872   1.838
35722SOL    HW1 9063  10.418   0.821   1.901
35722SOL    HW2 9064  10.411   0.860   1.754
35723SOL     OW 9065  10.090   9.982   1.566
35723SOL    HW1 9066  10.052  10.060   1.605
35723SOL    HW2 9067  10.103   9.922   1.640
35724SOL     OW 9068   5.513   8.924   7.883
35724SOL    HW1 9069   5.535   9.004   7.834
35724SOL    HW2 9070   5.418   8.917   7.875
35725SOL     OW 9071   3.746   3.325   4.260
35725SOL    HW1 9072   3.665   3.373   4.242
35725SOL    HW2 9073   3.719   3.255   4.320
35726SOL     OW 9074  14.302   3.752  10.837
35726SOL    HW1 9075  14.274   3.699  10.762
35726SOL    HW2 9076  14.283   3.842  10.812
35727SOL     OW 9077   7.587   8.960   9.840
35727SOL    HW1 9078   7.617   8.951   9.749
35727SOL    HW2 9079   7.570   8.870   9.868
35728SOL     OW 9080  13.459   5.005   5.986
35728SOL    HW1 9081  13.487   5.083   5.939
35728SOL    HW2 9082  13.418   5.039   6.066
35729SOL     OW 9083  14.681   0.838   4.008
35729SOL    HW1 9084  14.772   0.864   3.993
35729SOL    HW2 9085  14.687   0.760   4.062
35730SOL     OW 9086   9.793  11.092   2.332
35730SOL    HW1 9087   9.703  11.070   2.357
35730SOL    HW2 9088   9.825  11.145   2.405
35731SOL     OW 9089   1.539  14.552   6.036
35731SOL    HW1 9090   1.598  14.627   6.042
35731SOL    HW2 9091   1.475  14.578   5.970
35732SOL     OW 9092   4.664  11.879  12.972
35732SOL    HW1 9093   4.663  11.843  12.883
35732SOL    HW2 9094   4.696  11.969  12.961
35733SOL     OW 9095   6.355   9.450  10.187
35733SOL    HW1 9096   6.419   9.486  10.125
35733SOL    HW2 9097   6.399   9.453  10.272
35734SOL     OW 9098  13.594  11.847  10.546
35734SOL    HW1 9099  13.555  11.930  10.574
35734SOL    HW2 9100  13.664  11.832  10.610
35735SOL     OW 9101  11.084  11.446  11.331
35735SOL    HW1 9102  10.995  11.467  11.303
35735SOL    HW2 9103  11.079  11.356  11.363
35736SOL     OW 9104   2.457   1.192  14.072
35736SOL    HW1 9105   2.400   1.257  14.114
35736SOL    HW2 9106   2.398   1.139  14.019
35737SOL     OW 9107  10.258  10.593   2.953
35737SOL    HW1 9108  10.193  10.663   2.944
35737SOL    HW2 9109  10.206  10.515   2.976
35738SOL     OW 9110   7.840  11.198   0.189
35738SOL    HW1 9111   7.757  11.247   0.192
35738SOL    HW2 9112   7.882  11.229   0.109
35739SOL     OW 9113   5.510  11.821   7.466
35739SOL    HW1 9114   5.483  11.822   7.375
35739SOL    HW2 9115   5.451  11.883   7.510
35740SOL     OW 9116   2.572   3.701   6.353
35740SOL    HW1 9117   2.529   3.729   6.434
35740SOL    HW2 9118   2.644   3.763   6.341
35741SOL     OW 9119   3.560   1.302   7.699
35741SOL    HW1 9120   3.531   1.226   7.750
35741SOL    HW2 9121   3.480   1.336   7.659
35742SOL     OW 9122  11.545   7.122   5.480
35742SOL    HW1 9123  11.564   7.083   5.394
35742SOL    HW2 9124  11.586   7.063   5.543
35743SOL     OW 9125   9.167   9.462   4.167
35743SOL    HW1 9126   9.116   9.398   4.217
35743SOL    HW2 9127   9.105   9.498   4.104
35744SOL     OW 9128   6.892   7.716   3.334
35744SOL    HW1 9129   6.981   7.682   3.325
35744SOL    HW2 9130   6.845   7.646   3.381
35745SOL     OW 9131   2.156   9.559   5.987
35745SOL    HW1 9132   2.105   9.524   6.060
35745SOL    HW2 9133   2.199   9.637   6.023
35746SOL     OW 9134   3.765   8.239   5.615
35746SOL    HW1 9135   3.842   8.185   5.598
35746SOL    HW2 9136   3.730   8.206   5.698
35747SOL     OW 9137   7.602  14.151  10.781
35747SOL    HW1 9138   7.648  14.112  10.855
35747SOL    HW2 9139   7.655  14.227  10.757
35748SOL     OW 9140   2.398   1.630  12.438
35748SOL    HW1 9141   2.360   1.551  12.476
35748SOL    HW2 9142   2.398   1.693  12.510
35749SOL     OW 9143  12.287   7.257  12.182
35749SOL    HW1 9144  12.341   7.177  12.182
35749SOL    HW2 9145  12.278   7.280  12.090
35750SOL     OW 9146  12.813  13.738   4.836
35750SOL    HW1 9147  12.824  13.743   4.741
35750SOL    HW2 9148  12.735  13.683   4.848
35751SOL     OW 9149   5.699   3.787   0.586
35751SOL    HW1 9150   5.774   3.748   0.542
35751SOL    HW2 9151   5.647   3.825   0.516
35752SOL     OW 9152   5.990   3.321   8.157
35752SOL    HW1 9153   6.045   3.387   8.115
35752SOL    HW2 9154   5.902   3.359   8.155
35753SOL     OW 9155   7.967   1.844   3.987
35753SOL    HW1 9156   7.874   1.849   4.010
35753SOL    HW2 9157   8.008   1.915   4.036
35754SOL     OW 9158  13.921   5.679  13.229
35754SOL    HW1 9159  13.855   5.720  13.285
35754SOL    HW2 9160  13.986   5.748  13.215
35755SOL     OW 9161   1.167   4.634  11.026
35755SOL    HW1 9162   1.108   4.709  11.015
35755SOL    HW2 9163   1.109   4.558  11.026
35756SOL     OW 9164   6.981   5.215   9.835
35756SOL    HW1 9165   6.916   5.180   9.896
35756SOL    HW2 9166   6.989   5.147   9.768
35757SOL     OW 9167   7.046  10.644   0.728
35757SOL    HW1 9168   7.062  10.737   0.742
35757SOL    HW2 9169   7.118  10.599   0.772
35758SOL     OW 9170  11.598   6.169   2.146
35758SOL    HW1 9171  11.647   6.100   2.191
35758SOL    HW2 9172  11.509   6.160   2.180
35759SOL     OW 9173  10.454  13.048   7.304
35759SOL    HW1 9174  10.465  13.077   7.214
35759SOL    HW2 9175  10.440  13.128   7.354
35760SOL     OW 9176  11.574  10.049   3.925
35760SOL    HW1 9177  11.612  10.016   3.843
35760SOL    HW2 9178  11.480  10.031   3.917
35761SOL     OW 9179   3.915   0.969   8.048
35761SOL    HW1 9180   3.865   1.028   8.104
35761SOL    HW2 9181   3.928   0.891   8.101
35762SOL     OW 9182   5.835   5.062  10.914
35762SOL    HW1 9183   5.760   5.121  10.917
35762SOL    HW2 9184   5.862   5.052  11.005
35763SOL     OW 9185   2.234   9.473   9.756
35763SOL    HW1 9186   2.301   9.422   9.710
35763SOL    HW2 9187   2.153   9.424   9.744
35764SOL     OW 9188   5.471   7.399   8.767
35764SOL    HW1 9189   5.547   7.452   8.789
35764SOL    HW2 9190   5.424   7.388   8.850
35765SOL     OW 9191   7.715   9.275   6.360
35765SOL    HW1 9192   7.690   9.282   6.452
35765SOL    HW2 9193   7.760   9.357   6.341
35766SOL     OW 9194   9.720   9.505   6.400
35766SOL    HW1 9195   9.658   9.577   6.408
35766SOL    HW2 9196   9.669   9.434   6.360
35767SOL     OW 9197   0.571   3.103   5.893
35767SOL    HW1 9198   0.534   3.122   5.979
35767SOL    HW2 9199   0.613   3.185   5.866
35768SOL     OW 9200   8.210  10.732  10.334
35768SOL    HW1 9201   8.224  10.681  10.414
35768SOL    HW2 9202   8.293  10.727  10.287
35769SOL     OW 9203   4.793  10.817   2.610
35769SOL    HW1 9204   4.877  10.855   2.637
35769SOL    HW2 9205   4.731  10.844   2.677
35770SOL     OW 9206   9.123   7.935   1.134
35770SOL    HW1 9207   9.183   7.895   1.071
35770SOL    HW2 9208   9.095   7.863   1.190
35771SOL     OW 9209  12.346  12.960   6.516
35771SOL    HW1 9210  12.412  12.969   6.586
35771SOL    HW2 9211  12.394  12.922   6.443
35772SOL     OW 9212  10.679  14.245  12.899
35772SOL    HW1 9213  10.731  14.320  12.871
35772SOL    HW2 9214  10.727  14.169  12.865
35773SOL     OW 9215   4.885   6.979  10.623
35773SOL    HW1 9216   4.942   7.046  10.585
35773SOL    HW2 9217   4.893   6.991  10.717
35774SOL     OW 9218   5.182   8.494   5.880
35774SOL    HW1 9219   5.116   8.550   5.839
35774SOL    HW2 9220   5.227   8.453   5.807
35775SOL     OW 9221   2.945  12.567  13.631
35775SOL    HW1 9222   3.027  12.563  13.584
35775SOL    HW2 9223   2.969  12.599  13.718
35776SOL     OW 9224  11.276   5.897   9.884
35776SOL    HW1 9225  11.270   5.806   9.912
35776SOL    HW2 9226  11.366   5.923   9.905
35777SOL     OW 9227  12.871   0.605   6.361
35777SOL    HW1 9228  12.881   0.685   6.309
35777SOL    HW2 9229  12.792   0.621   6.413
35778SOL     OW 9230   5.285  10.669   1.722
35778SOL    HW1 9231   5.374  10.635   1.710
35778SOL    HW2 9232   5.274  10.674   1.817
35779SOL     OW 9233   1.882   0.769  10.711
35779SOL    HW1 9234   1.852   0.781  10.621
35779SOL    HW2 9235   1.804   0.738  10.758
35780SOL     OW 9236   6.262   7.298   7.143
35780SOL    HW1 9237   6.326   7.247   7.192
35780SOL    HW2 9238   6.179   7.281   7.188
35781SOL     OW 9239   8.495   9.745   0.797
35781SOL    HW1 9240   8.548   9.667   0.814
35781SOL    HW2 9241   8.411   9.725   0.837
35782SOL     OW 9242   4.222  11.828   3.382
35782SOL    HW1 9243   4.165  11.787   3.447
35782SOL    HW2 9244   4.175  11.907   3.355
35783SOL     OW 9245   0.281   6.853  11.012
35783SOL    HW1 9246   0.361   6.890  10.975
35783SOL    HW2 9247   0.312   6.804  11.089
35784SOL     OW 9248   2.916  13.972   1.109
35784SOL    HW1 9249   2.952  13.989   1.196
35784SOL    HW2 9250   2.948  14.044   1.055
35785SOL     OW 9251   1.026  12.440   7.904
35785SOL    HW1 9252   1.016  12.499   7.979
35785SOL    HW2 9253   1.116  12.408   7.911
35786SOL     OW 9254   6.972   5.586   0.719
35786SOL    HW1 9255   7.056   5.544   0.740
35786SOL    HW2 9256   6.979   5.674   0.756
35787SOL     OW 9257   5.204   7.585   9.073
35787SOL    HW1 9258   5.123   7.632   9.053
35787SOL    HW2 9259   5.181   7.530   9.149
35788SOL     OW 9260   5.821  13.738  12.718
35788SOL    HW1 9261   5.865  13.732  12.802
35788SOL    HW2 9262   5.853  13.819  12.679
35789SOL     OW 9263  10.099   3.456   9.940
35789SOL    HW1 9264  10.097   3.379   9.884
35789SOL    HW2 9265  10.008   3.468   9.968
35790SOL     OW 9266   0.762   7.321   1.950
35790SOL    HW1 9267   0.784   7.230   1.934
35790SOL    HW2 9268   0.773   7.333   2.045
35791SOL     OW 9269   8.074  14.839   4.231
35791SOL    HW1 9270   8.042  14.750   4.217
35791SOL    HW2 9271   8.121  14.861   4.150
35792SOL     OW 9272   8.176   0.367   6.062
35792SOL    HW1 9273   8.183   0.273   6.047
35792SOL    HW2 9274   8.202   0.407   5.978
35793SOL     OW 9275  10.583   0.767  11.800
35793SOL    HW1 9276  10.555   0.818  11.724
35793SOL    HW2 9277  10.660   0.813  11.833
35794SOL     OW 9278   7.704   3.595   1.385
35794SOL    HW1 9279   7.689   3.524   1.447
35794SOL    HW2 9280   7.680   3.558   1.300
35795SOL     OW 9281   4.612  14.843   4.197
35795SOL    HW1 9282   4.665  14.831   4.276
35795SOL    HW2 9283   4.527  14.805   4.220
35796SOL     OW 9284  11.474  12.554  13.632
35796SOL    HW1 9285  11.546  12.616  13.643
35796SOL    HW2 9286  11.479  12.528  13.540
35797SOL     OW 9287  12.508   0.191  13.521
35797SOL    HW1 9288  12.509   0.245  13.600
35797SOL    HW2 9289  12.573   0.123  13.537
35798SOL     OW 9290   1.184   0.565   1.708
35798SOL    HW1 9291   1.160   0.643   1.758
35798SOL    HW2 9292   1.173   0.492   1.769
35799SOL     OW 9293   7.018  13.329   9.065
35799SOL    HW1 9294   6.991  13.337   8.973
35799SOL    HW2 9295   6.964  13.258   9.099
35800SOL     OW 9296   0.274   7.098   0.967
35800SOL    HW1 9297   0.207   7.044   1.010
35800SOL    HW2 9298   0.242   7.188   0.977
35801SOL     OW 9299  10.218   0.345   9.555
35801SOL    HW1 9300  10.211   0.381   9.467
35801SOL    HW2 9301  10.284   0.277   9.547
35802SOL     OW 9302   0.857   3.423   4.151
35802SOL    HW1 9303   0.794   3.422   4.223
35802SOL    HW2 9304   0.804   3.402   4.073
35803SOL     OW 9305   0.312  10.094   2.808
35803SOL    HW1 9306   0.302  10.006   2.772
35803SOL    HW2 9307   0.259  10.149   2.750
35804SOL     OW 9308   8.628   2.743   7.584
35804SOL    HW1 9309   8.654   2.742   7.491
35804SOL    HW2 9310   8.572   2.820   7.592
35805SOL     OW 9311   0.227   0.012  13.010
35805SOL    HW1 9312   0.292  14.818  12.980
35805SOL    HW2 9313   0.245   0.090  12.957
35806SOL     OW 9314   9.134  11.119   0.239
35806SOL    HW1 9315   9.109  11.206   0.207
35806SOL    HW2 9316   9.194  11.085   0.173
35807SOL     OW 9317  13.247  13.420   7.918
35807SOL    HW1 9318  13.229  13.508   7.951
35807SOL    HW2 9319  13.195  13.362   7.974
35808SOL     OW 9320   2.426   6.731   3.012
35808SOL    HW1 9321   2.408   6.668   3.082
35808SOL    HW2 9322   2.347   6.728   2.957
35809SOL     OW 9323   8.071   7.101   4.403
35809SOL    HW1 9324   8.119   7.178   4.374
35809SOL    HW2 9325   8.105   7.029   4.350
35810SOL     OW 9326  11.317  14.628   7.814
35810SOL    HW1 9327  11.331  14.683   7.737
35810SOL    HW2 9328  11.398  14.636   7.864
35811SOL     OW 9329   3.521   4.383   5.007
35811SOL    HW1 9330   3.535   4.397   4.913
35811SOL    HW2 9331   3.467   4.304   5.011
35812SOL     OW 9332  11.636   1.128  13.468
35812SOL    HW1 9333  11.640   1.075  13.548
35812SOL    HW2 9334  11.626   1.218  13.500
35813SOL     OW 9335   5.834  12.983   2.528
35813SOL    HW1 9336   5.795  12.900   2.556
35813SOL    HW2 9337   5.919  12.986   2.572
35814SOL     OW 9338   9.771   9.724   4.077
35814SOL    HW1 9339   9.696   9.695   4.024
35814SOL    HW2 9340   9.740   9.720   4.167
35815SOL     OW 9341  14.456  13.051   5.146
35815SOL    HW1 9342  14.396  13.123   5.128
35815SOL    HW2 9343  14.540  13.081   5.112
35816SOL     OW 9344   9.993  14.601   2.923
35816SOL    HW1 9345   9.946  14.684   2.927
35816SOL    HW2 9346  10.067  14.612   2.983
35817SOL     OW 9347   2.222   6.131   2.025
35817SOL    HW1 9348   2.298   6.078   2.050
35817SOL    HW2 9349   2.164   6.127   2.101
35818SOL     OW 9350   9.456   8.220   4.010
35818SOL    HW1 9351   9.366   8.196   3.987
35818SOL    HW2 9352   9.472   8.174   4.093
35819SOL     OW 9353  13.857  14.368   2.484
35819SOL    HW1 9354  13.921  14.384   2.553
35819SOL    HW2 9355  13.872  14.276   2.460
35820SOL     OW 9356   8.170   5.163   9.570
35820SOL    HW1 9357   8.080   5.145   9.597
35820SOL    HW2 9358   8.176   5.128   9.481
35821SOL     OW 9359   3.714  14.141   8.265
35821SOL    HW1 9360   3.768  14.207   8.222
35821SOL    HW2 9361   3.768  14.062   8.264
35822SOL     OW 9362  12.444   2.362  13.952
35822SOL    HW1 9363  12.399   2.369  14.036
35822SOL    HW2 9364  12.404   2.285  13.911
35823SOL     OW 9365   8.984   2.304   0.370
35823SOL    HW1 9366   8.931   2.298   0.290
35823SOL    HW2 9367   8.940   2.370   0.423
35824SOL     OW 9368  12.903  13.762  13.308
35824SOL    HW1 9369  12.871  13.699  13.244
35824SOL    HW2 9370  12.997  13.767  13.292
35825SOL     OW 9371   2.036   7.805   8.307
35825SOL    HW1 9372   1.945   7.817   8.282
35825SOL    HW2 9373   2.037   7.727   8.362
35826SOL     OW 9374  12.617   4.778   9.716
35826SOL    HW1 9375  12.601   4.752   9.626
35826SOL    HW2 9376  12.696   4.832   9.712
35827SOL     OW 9377   1.400  14.815   4.198
35827SOL    HW1 9378   1.413  14.848   4.287
35827SOL    HW2 9379   1.457   0.000   4.144
35828SOL     OW 9380   4.003   7.878  12.907
35828SOL    HW1 9381   3.968   7.838  12.986
35828SOL    HW2 9382   3.994   7.811  12.840
35829SOL     OW 9383   1.325   1.288   3.069
35829SOL    HW1 9384   1.357   1.340   3.143
35829SOL    HW2 9385   1.389   1.303   2.999
35830SOL     OW 9386   8.245   8.967   1.652
35830SOL    HW1 9387   8.159   9.002   1.630
35830SOL    HW2 9388   8.293   8.966   1.569
35831SOL     OW 9389   3.856   0.502   7.223
35831SOL    HW1 9390   3.930   0.502   7.163
35831SOL    HW2 9391   3.828   0.410   7.226
35832SOL     OW 9392   7.881   8.837   7.849
35832SOL    HW1 9393   7.866   8.931   7.863
35832SOL    HW2 9394   7.880   8.826   7.754
35833SOL     OW 9395   6.781  14.481  12.666
35833SOL    HW1 9396   6.690  14.491  12.637
35833SOL    HW2 9397   6.832  14.479  12.585
35834SOL     OW 9398   3.093  10.129   6.786
35834SOL    HW1 9399   3.176  10.176   6.782
35834SOL    HW2 9400   3.054  10.154   6.869
35835SOL     OW 9401   7.497  12.164   7.900
35835SOL    HW1 9402   7.446  12.116   7.834
35835SOL    HW2 9403   7.505  12.102   7.973
35836SOL     OW 9404   2.020   3.877   4.309
35836SOL    HW1 9405   2.110   3.880   4.279
35836SOL    HW2 9406   1.967   3.882   4.229
35837SOL     OW 9407   7.388   9.894   5.741
35837SOL    HW1 9408   7.306   9.935   5.715
35837SOL    HW2 9409   7.456   9.943   5.695
35838SOL     OW 9410   3.379   4.598   7.140
35838SOL    HW1 9411   3.457   4.605   7.195
35838SOL    HW2 9412   3.376   4.506   7.114
35839SOL     OW 9413  10.889   5.692   9.649
35839SOL    HW1 9414  10.835   5.635   9.704
35839SOL    HW2 9415  10.908   5.640   9.571
35840SOL     OW 9416   3.999  14.710   7.373
35840SOL    HW1 9417   3.934  14.737   7.309
35840SOL    HW2 9418   4.051  14.789   7.390
35841SOL     OW 9419  13.421   6.575   3.860
35841SOL    HW1 9420  13.356   6.628   3.907
35841SOL    HW2 9421  13.492   6.636   3.839
35842SOL     OW 9422   2.906   4.537  11.002
35842SOL    HW1 9423   2.972   4.517  10.936
35842SOL    HW2 9424   2.916   4.469  11.068
35843SOL     OW 9425   5.431   2.363   9.169
35843SOL    HW1 9426   5.480   2.370   9.251
35843SOL    HW2 9427   5.484   2.304   9.115
35844SOL     OW 9428   5.584   6.071   8.965
35844SOL    HW1 9429   5.671   6.089   8.999
35844SOL    HW2 9430   5.555   5.993   9.012
35845SOL     OW 9431   4.511  14.581  10.902
35845SOL    HW1 9432   4.573  14.653  10.890
35845SOL    HW2 9433   4.425  14.622  10.891
35846SOL     OW 9434  12.894  10.413   8.452
35846SOL    HW1 9435  12.857  10.473   8.516
35846SOL    HW2 9436  12.941  10.469   8.390
35847SOL     OW 9437   2.834   8.836   6.159
35847SOL    HW1 9438   2.906   8.776   6.175
35847SOL    HW2 9439   2.816   8.876   6.244
35848SOL     OW 9440   4.283   5.453  11.865
35848SOL    HW1 9441   4.306   5.503  11.943
35848SOL    HW2 9442   4.318   5.505  11.792
35849SOL     OW 9443   2.116  12.964   7.386
35849SOL    HW1 9444   2.050  12.938   7.322
35849SOL    HW2 9445   2.191  12.990   7.332
35850SOL     OW 9446   1.932   5.902  11.948
35850SOL    HW1 9447   2.003   5.920  12.010
35850SOL    HW2 9448   1.906   5.812  11.967
35851SOL     OW 9449  10.651   0.740  13.056
35851SOL    HW1 9450  10.601   0.753  13.136
35851SOL    HW2 9451  10.625   0.653  13.025
35852SOL     OW 9452  14.490   4.256  13.505
35852SOL    HW1 9453  14.500   4.297  13.419
35852SOL    HW2 9454  14.506   4.327  13.567
35853SOL     OW 9455   7.592   6.376  10.458
35853SOL    HW1 9456   7.638   6.459  10.465
35853SOL    HW2 9457   7.661   6.310  10.461
35854SOL     OW 9458  12.650   1.192  11.554
35854SOL    HW1 9459  12.737   1.175  11.517
35854SOL    HW2 9460  12.593   1.200  11.478
35855SOL     OW 9461   9.402   0.674  14.314
35855SOL    HW1 9462   9.457   0.601  14.341
35855SOL    HW2 9463   9.373   0.714  14.396
35856SOL     OW 9464  13.571  12.453   0.315
35856SOL    HW1 9465  13.574  12.433   0.221
35856SOL    HW2 9466  13.655  12.493   0.333
35857SOL     OW 9467   5.727   9.024  14.020
35857SOL    HW1 9468   5.659   8.968  13.984
35857SOL    HW2 9469   5.713   9.109  13.979
35858SOL     OW 9470   7.124   5.305  10.848
35858SOL    HW1 9471   7.089   5.327  10.762
35858SOL    HW2 9472   7.118   5.387  10.897
35859SOL     OW 9473  12.722   0.993  13.232
35859SOL    HW1 9474  12.771   1.069  13.263
35859SOL    HW2 9475  12.630   1.014  13.251
35860SOL     OW 9476   9.603   0.757   1.538
35860SOL    HW1 9477   9.625   0.676   1.493
35860SOL    HW2 9478   9.671   0.819   1.512
35861SOL     OW 9479   7.444   9.475   1.389
35861SOL    HW1 9480   7.466   9.561   1.353
35861SOL    HW2 9481   7.527   9.441   1.421
35862SOL     OW 9482   1.626   9.633   6.857
35862SOL    HW1 9483   1.599   9.699   6.793
35862SOL    HW2 9484   1.663   9.562   6.804
35863SOL     OW 9485   7.472   8.700   4.801
35863SOL    HW1 9486   7.565   8.703   4.824
35863SOL    HW2 9487   7.452   8.788   4.769
35864SOL     OW 9488   5.714  12.636   6.594
35864SOL    HW1 9489   5.700  12.689   6.516
35864SOL    HW2 9490   5.630  12.639   6.641
35865SOL     OW 9491   9.794   0.434   3.812
35865SOL    HW1 9492   9.809   0.490   3.889
35865SOL    HW2 9493   9.848   0.472   3.744
35866SOL     OW 9494   2.647   9.027   6.627
35866SOL    HW1 9495   2.740   9.045   6.617
35866SOL    HW2 9496   2.640   8.981   6.711
35867SOL     OW 9497  11.348   0.384  10.008
35867SOL    HW1 9498  11.311   0.430   9.932
35867SOL    HW2 9499  11.290   0.308  10.020
35868SOL     OW 9500   3.643   2.765  13.648
35868SOL    HW1 9501   3.703   2.700  13.611
35868SOL    HW2 9502   3.696   2.843  13.660
35869SOL     OW 9503   7.292  13.002  14.328
35869SOL    HW1 9504   7.320  12.939  14.262
35869SOL    HW2 9505   7.368  13.059  14.341
35870SOL     OW 9506   1.433   1.335  13.092
35870SOL    HW1 9507   1.523   1.302  13.083
35870SOL    HW2 9508   1.442   1.430  13.090
35871SOL     OW 9509   5.408   5.723   4.783
35871SOL    HW1 9510   5.386   5.635   4.754
35871SOL    HW2 9511   5.494   5.715   4.823
35872SOL     OW 9512   6.077   8.971  12.964
35872SOL    HW1 9513   6.137   9.022  13.018
35872SOL    HW2 9514   6.100   8.995  12.874
35873SOL     OW 9515   1.565   8.726  13.300
35873SOL    HW1 9516   1.482   8.682  13.315
35873SOL    HW2 9517   1.607   8.675  13.230
35874SOL     OW 9518  13.678  13.163  10.616
35874SOL    HW1 9519  13.768  13.187  10.639
35874SOL    HW2 9520  13.683  13.137  10.524
35875SOL     OW 9521  12.882  10.670   7.311
35875SOL    HW1 9522  12.921  10.672   7.224
35875SOL    HW2 9523  12.955  10.691   7.370
35876SOL     OW 9524   9.462   3.084   9.404
35876SOL    HW1 9525   9.378   3.082   9.450
35876SOL    HW2 9526   9.460   3.007   9.347
35877SOL     OW 9527   0.974  10.828   7.582
35877SOL    HW1 9528   0.995  10.919   7.562
35877SOL    HW2 9529   0.999  10.816   7.674
35878SOL     OW 9530  11.725   7.827   7.152
35878SOL    HW1 9531  11.721   7.909   7.201
35878SOL    HW2 9532  11.687   7.762   7.210
35879SOL     OW 9533  12.464   5.052   4.093
35879SOL    HW1 9534  12.436   4.967   4.058
35879SOL    HW2 9535  12.550   5.067   4.054
35880SOL     OW 9536   9.110  14.813   8.367
35880SOL    HW1 9537   9.074  14.726   8.387
35880SOL    HW2 9538   9.061  14.841   8.289
35881SOL     OW 9539   9.703   2.756  14.468
35881SOL    HW1 9540   9.693   2.843  14.508
35881SOL    HW2 9541   9.615   2.720  14.467
35882SOL     OW 9542  11.005  11.282   2.376
35882SOL    HW1 9543  11.024  11.243   2.461
35882SOL    HW2 9544  10.969  11.368   2.397
35883SOL     OW 9545   8.897  11.493   8.970
35883SOL    HW1 9546   8.945  11.550   8.909
35883SOL    HW2 9547   8.890  11.409   8.923
35884SOL     OW 9548  10.350   9.040   4.596
35884SOL    HW1 9549  10.311   9.085   4.671
35884SOL    HW2 9550  10.354   9.107   4.527
35885SOL     OW 9551   7.302   6.722  12.401
35885SOL    HW1 9552   7.312   6.801  12.349
35885SOL    HW2 9553   7.348   6.741  12.483
35886SOL     OW 9554   2.794   6.562   5.432
35886SOL    HW1 9555   2.726   6.503   5.465
35886SOL    HW2 9556   2.855   6.505   5.385
35887SOL     OW 9557   8.751   6.854   7.710
35887SOL    HW1 9558   8.829   6.850   7.655
35887SOL    HW2 9559   8.678   6.846   7.648
35888SOL     OW 9560   2.743   4.784   4.304
35888SOL    HW1 9561   2.751   4.858   4.365
35888SOL    HW2 9562   2.834   4.755   4.291
35889SOL     OW 9563   2.970   4.654   6.935
35889SOL    HW1 9564   2.990   4.675   6.844
35889SOL    HW2 9565   2.896   4.712   6.957
35890SOL     OW 9566  13.429   5.846   3.737
35890SOL    HW1 9567  13.391   5.933   3.750
35890SOL    HW2 9568  13.354   5.788   3.727
35891SOL     OW 9569  13.955  13.391   6.299
35891SOL    HW1 9570  13.960  13.400   6.394
35891SOL    HW2 9571  13.907  13.469   6.271
35892SOL     OW 9572  14.634   0.804   3.701
35892SOL    HW1 9573  14.539   0.806   3.712
35892SOL    HW2 9574  14.669   0.798   3.790
35893SOL     OW 9575  14.223   0.651   5.655
35893SOL    HW1 9576  14.138   0.621   5.624
35893SOL    HW2 9577  14.276   0.571   5.660
35894SOL     OW 9578   1.796  13.665  14.350
35894SOL    HW1 9579   1.770  13.593  14.408
35894SOL    HW2 9580   1.891  13.655  14.340
35895SOL     OW 9581   6.058   9.278   2.672
35895SOL    HW1 9582   6.152   9.291   2.659
35895SOL    HW2 9583   6.046   9.280   2.767
35896SOL     OW 9584  10.027   5.959   9.741
35896SOL    HW1 9585   9.989   5.988   9.658
35896SOL    HW2 9586   9.958   5.907   9.783
35897SOL     OW 9587  13.387   0.055   4.640
35897SOL    HW1 9588  13.303   0.009   4.632
35897SOL    HW2 9589  13.435   0.006   4.706
35898SOL     OW 9590  12.293   2.698   6.400
35898SOL    HW1 9591  12.355   2.659   6.339
35898SOL    HW2 9592  12.295   2.792   6.380
35899SOL     OW 9593   2.356   5.238   6.425
35899SOL    HW1 9594   2.379   5.328   6.446
35899SOL    HW2 9595   2.417   5.185   6.476
35900SOL     OW 9596  10.318   0.536   7.568
35900SOL    HW1 9597  10.264   0.614   7.576
35900SOL    HW2 9598  10.326   0.503   7.657
35901SOL     OW 9599  10.302   2.244   1.833
35901SOL    HW1 9600  10.344   2.276   1.753
35901SOL    HW2 9601  10.272   2.156   1.811
35902SOL     OW 9602  11.252   5.405   9.033
35902SOL    HW1 9603  11.308   5.394   9.110
35902SOL    HW2 9604  11.305   5.374   8.960
35903SOL     OW 9605   3.683   4.241  13.516
35903SOL    HW1 9606   3.649   4.159  13.552
35903SOL    HW2 9607   3.750   4.213  13.453
35904SOL     OW 9608   0.515  10.947   6.455
35904SOL    HW1 9609   0.500  11.040   6.468
35904SOL    HW2 9610   0.609  10.936   6.467
35905SOL     OW 9611   8.245   1.924   2.570
35905SOL    HW1 9612   8.278   1.900   2.483
35905SOL    HW2 9613   8.282   1.859   2.629
35906SOL     OW 9614   8.102  14.500   9.535
35906SOL    HW1 9615   8.185  14.489   9.487
35906SOL    HW2 9616   8.067  14.583   9.503
35907SOL     OW 9617   0.837   5.309   0.138
35907SOL    HW1 9618   0.861   5.239   0.199
35907SOL    HW2 9619   0.883   5.386   0.170
35908SOL     OW 9620   4.635  13.572  13.257
35908SOL    HW1 9621   4.577  13.546  13.186
35908SOL    HW2 9622   4.582  13.630  13.311
35909SOL     OW 9623   6.823  12.942   8.526
35909SOL    HW1 9624   6.820  12.873   8.461
35909SOL    HW2 9625   6.883  12.908   8.593
35910SOL     OW 9626   3.216   6.177   6.755
35910SOL    HW1 9627   3.285   6.191   6.820
35910SOL    HW2 9628   3.262   6.140   6.679
35911SOL     OW 9629  10.291   8.577   2.375
35911SOL    HW1 9630  10.197   8.572   2.392
35911SOL    HW2 9631  10.298   8.590   2.280
35912SOL     OW 9632   6.108  10.824   4.394
35912SOL    HW1 9633   6.020  10.831   4.357
35912SOL    HW2 9634   6.160  10.784   4.324
35913SOL     OW 9635  12.165   6.272   4.529
35913SOL    HW1 9636  12.126   6.259   4.615
35913SOL    HW2 9637  12.157   6.366   4.513
35914SOL     OW 9638   9.780   9.186   3.974
35914SOL    HW1 9639   9.763   9.092   3.984
35914SOL    HW2 9640   9.764   9.222   4.061
35915SOL     OW 9641   0.102   8.368  11.731
35915SOL    HW1 9642   0.050   8.306  11.783
35915SOL    HW2 9643   0.058   8.370  11.646
35916SOL     OW 9644  12.028   4.331   5.865
35916SOL    HW1 9645  11.936   4.306   5.860
35916SOL    HW2 9646  12.076   4.249   5.853
35917SOL     OW 9647  14.630   7.288  13.825
35917SOL    HW1 9648  14.623   7.237  13.906
35917SOL    HW2 9649  14.667   7.227  13.761
35918SOL     OW 9650   3.327  12.881   1.022
35918SOL    HW1 9651   3.400  12.923   0.977
35918SOL    HW2 9652   3.360  12.864   1.110
35919SOL     OW 9653   9.161   7.365   8.616
35919SOL    HW1 9654   9.191   7.447   8.578
35919SOL    HW2 9655   9.093   7.334   8.556
35920SOL     OW 9656   2.346   9.988   5.849
35920SOL    HW1 9657   2.289   9.948   5.915
35920SOL    HW2 9658   2.405   9.917   5.824
35921SOL     OW 9659   2.887  12.835  12.818
35921SOL    HW1 9660   2.878  12.767  12.884
35921SOL    HW2 9661   2.959  12.806  12.762
35922SOL     OW 9662   4.455   8.350   5.943
35922SOL    HW1 9663   4.438   8.420   5.879
35922SOL    HW2 9664   4.445   8.393   6.028
35923SOL     OW 9665   2.114   4.329  10.167
35923SOL    HW1 9666   2.191   4.359  10.119
35923SOL    HW2 9667   2.040   4.367  10.119
35924SOL     OW 9668   9.002  11.629   8.479
35924SOL    HW1 9669   8.949  11.707   8.496
35924SOL    HW2 9670   9.092  11.661   8.476
35925SOL     OW 9671   4.990  14.450   9.665
35925SOL    HW1 9672   5.039  14.476   9.587
35925SOL    HW2 9673   5.021  14.361   9.684
35926SOL     OW 9674  13.587   8.598   5.030
35926SOL    HW1 9675  13.606   8.669   4.969
35926SOL    HW2 9676  13.492   8.590   5.029
35927SOL     OW 9677   2.689   1.980   7.553
35927SOL    HW1 9678   2.759   2.043   7.568
35927SOL    HW2 9679   2.689   1.925   7.631
35928SOL     OW 9680   5.967   8.854  11.512
35928SOL    HW1 9681   5.985   8.811  11.429
35928SOL    HW2 9682   6.018   8.936  11.508
35929SOL     OW 9683   2.255   6.652   7.813
35929SOL    HW1 9684   2.271   6.569   7.768
35929SOL    HW2 9685   2.337   6.701   7.804
35930SOL     OW 9686  12.499   6.637  14.714
35930SOL    HW1 9687  12.429   6.687  14.757
35930SOL    HW2 9688  12.457   6.599  14.637
35931SOL     OW 9689   3.242  14.698  14.262
35931SOL    HW1 9690   3.222  14.779  14.215
35931SOL    HW2 9691   3.232  14.629  14.197
35932SOL     OW 9692   9.951   5.560   1.985
35932SOL    HW1 9693   9.983   5.478   2.024
35932SOL    HW2 9694   9.978   5.628   2.047
35933SOL     OW 9695   5.088   8.522  13.758
35933SOL    HW1 9696   5.078   8.429  13.777
35933SOL    HW2 9697   5.162   8.526  13.698
35934SOL     OW 9698  12.481   5.494  13.038
35934SOL    HW1 9699  12.561   5.500  13.091
35934SOL    HW2 9700  12.512   5.498  12.948
35935SOL     OW 9701   3.894   4.743  13.765
35935SOL    HW1 9702   3.934   4.694  13.837
35935SOL    HW2 9703   3.966   4.761  13.705
35936SOL     OW 9704  10.139   9.224   3.393
35936SOL    HW1 9705  10.141   9.284   3.467
35936SOL    HW2 9706  10.092   9.147   3.425
35937SOL     OW 9707   6.490  12.890   4.162
35937SOL    HW1 9708   6.585  12.890   4.177
35937SOL    HW2 9709   6.453  12.896   4.250
35938SOL     OW 9710  12.641  11.994   2.531
35938SOL    HW1 9711  12.552  11.959   2.538
35938SOL    HW2 9712  12.630  12.075   2.481
35939SOL     OW 9713   7.933   6.708   3.044
35939SOL    HW1 9714   7.981   6.684   2.965
35939SOL    HW2 9715   7.904   6.625   3.080
35940SOL     OW 9716   6.448   8.545   3.174
35940SOL    HW1 9717   6.440   8.599   3.096
35940SOL    HW2 9718   6.510   8.476   3.150
35941SOL     OW 9719   0.137  10.804   9.780
35941SOL    HW1 9720   0.098  10.718   9.791
35941SOL    HW2 9721   0.088  10.843   9.707
35942SOL     OW 9722   9.249   5.717   8.396
35942SOL    HW1 9723   9.154   5.730   8.399
35942SOL    HW2 9724   9.285   5.787   8.450
35943SOL     OW 9725   0.034  14.815  12.588
35943SOL    HW1 9726   0.041  14.735  12.641
35943SOL    HW2 9727   0.119  14.858  12.599
35944SOL     OW 9728   0.359   3.533   2.170
35944SOL    HW1 9729   0.433   3.588   2.196
35944SOL    HW2 9730   0.303   3.531   2.247
35945SOL     OW 9731   2.347   2.120  14.785
35945SOL    HW1 9732   2.285   2.150  14.851
35945SOL    HW2 9733   2.311   2.036  14.755
35946SOL     OW 9734   1.469   5.976   3.534
35946SOL    HW1 9735   1.395   6.036   3.529
35946SOL    HW2 9736   1.451   5.909   3.468
35947SOL     OW 9737   3.526   9.179   8.304
35947SOL    HW1 9738   3.485   9.111   8.250
35947SOL    HW2 9739   3.600   9.210   8.252
35948SOL     OW 9740   7.680   9.374   1.464
35948SOL    HW1 9741   7.695   9.317   1.388
35948SOL    HW2 9742   7.747   9.442   1.455
35949SOL     OW 9743  14.618   6.359  10.882
35949SOL    HW1 9744  14.638   6.301  10.808
35949SOL    HW2 9745  14.599   6.444  10.841
35950SOL     OW 9746   4.208  12.708  10.245
35950SOL    HW1 9747   4.239  12.669  10.327
35950SOL    HW2 9748   4.234  12.645  10.178
35951SOL     OW 9749  12.313   1.826  13.989
35951SOL    HW1 9750  12.372   1.762  13.948
35951SOL    HW2 9751  12.300   1.893  13.922
35952SOL     OW 9752   4.186  10.223  13.229
35952SOL    HW1 9753   4.129  10.176  13.168
35952SOL    HW2 9754   4.126  10.260  13.294
35953SOL     OW 9755   9.223  13.682  14.705
35953SOL    HW1 9756   9.262  13.756  14.658
35953SOL    HW2 9757   9.290  13.655  14.767
35954SOL     OW 9758   6.672   5.466   6.133
35954SOL    HW1 9759   6.595   5.425   6.173
35954SOL    HW2 9760   6.743   5.449   6.195
35955SOL     OW 9761  12.483  10.070   1.551
35955SOL    HW1 9762  12.402  10.036   1.589
35955SOL    HW2 9763  12.466  10.071   1.457
35956SOL     OW 9764   1.512  10.991   6.345
35956SOL    HW1 9765   1.442  11.016   6.285
35956SOL    HW2 9766   1.507  11.055   6.416
35957SOL     OW 9767   5.582   5.277  12.220
35957SOL    HW1 9768   5.525   5.328  12.277
35957SOL    HW2 9769   5.621   5.341  12.161
35958SOL     OW 9770  14.569   3.152   5.244
35958SOL    HW1 9771  14.484   3.120   5.214
35958SOL    HW2 9772  14.627   3.077   5.236
35959SOL     OW 9773   9.374   8.857   6.714
35959SOL    HW1 9774   9.393   8.941   6.755
35959SOL    HW2 9775   9.434   8.795   6.756
35960SOL     OW 9776  12.308   7.594  12.031
35960SOL    HW1 9777  12.390   7.588  12.081
35960SOL    HW2 9778  12.246   7.635  12.092
35961SOL     OW 9779   3.518   9.802   6.516
35961SOL    HW1 9780   3.536   9.770   6.427
35961SOL    HW2 9781   3.446   9.864   6.505
35962SOL     OW 9782   9.225  14.495  11.428
35962SOL    HW1 9783   9.315  14.525  11.417
35962SOL    HW2 9784   9.230  14.400  11.418
35963SOL     OW 9785  10.664   8.656  14.356
35963SOL    HW1 9786  10.645   8.579  14.410
35963SOL    HW2 9787  10.683   8.619  14.269
35964SOL     OW 9788   2.350  11.296   0.201
35964SOL    HW1 9789   2.417  11.277   0.135
35964SOL    HW2 9790   2.267  11.286   0.155
35965SOL     OW 9791  13.684   0.506   2.830
35965SOL    HW1 9792  13.710   0.432   2.774
35965SOL    HW2 9793  13.762   0.525   2.881
35966SOL     OW 9794   7.880   6.899   5.187
35966SOL    HW1 9795   7.863   6.951   5.108
35966SOL    HW2 9796   7.969   6.866   5.175
35967SOL     OW 9797  13.965  12.676   6.121
35967SOL    HW1 9798  13.878  12.640   6.138
35967SOL    HW2 9799  13.971  12.753   6.178
35968SOL     OW 9800   3.753  13.518  10.492
35968SOL    HW1 9801   3.755  13.516  10.396
35968SOL    HW2 9802   3.684  13.456  10.515
35969SOL     OW 9803   7.450   3.721   0.145
35969SOL    HW1 9804   7.357   3.701   0.131
35969SOL    HW2 9805   7.494   3.637   0.135
35970SOL     OW 9806  12.931  13.962   8.662
35970SOL    HW1 9807  12.915  13.986   8.754
35970SOL    HW2 9808  12.925  14.045   8.614
35971SOL     OW 9809   6.129   8.263   5.176
35971SOL    HW1 9810   6.050   8.277   5.123
35971SOL    HW2 9811   6.101   8.203   5.245
35972SOL     OW 9812   2.337   3.463  11.697
35972SOL    HW1 9813   2.382   3.422  11.771
35972SOL    HW2 9814   2.344   3.557  11.713
35973SOL     OW 9815   6.019   2.456   7.990
35973SOL    HW1 9816   5.975   2.531   8.031
35973SOL    HW2 9817   6.085   2.495   7.933
35974SOL     OW 9818  13.036   9.997   8.860
35974SOL    HW1 9819  13.037   9.986   8.765
35974SOL    HW2 9820  13.060   9.911   8.894
35975SOL     OW 9821   0.344   6.781   7.315
35975SOL    HW1 9822   0.429   6.751   7.347
35975SOL    HW2 9823   0.364   6.856   7.260
35976SOL     OW 9824   6.089   0.146  11.295
35976SOL    HW1 9825   6.014   0.195  11.261
35976SOL    HW2 9826   6.078   0.058  11.261
35977SOL     OW 9827   2.724  14.861   0.110
35977SOL    HW1 9828   2.733  14.819   0.024
35977SOL    HW2 9829   2.692  14.792   0.168
35978SOL     OW 9830  13.094   3.026   4.807
35978SOL    HW1 9831  13.160   3.054   4.870
35978SOL    HW2 9832  13.122   2.938   4.780
35979SOL     OW 9833   8.601  14.179  14.563
35979SOL    HW1 9834   8.668  14.159  14.628
35979SOL    HW2 9835   8.637  14.252  14.513
35980SOL     OW 9836   6.004   3.793   8.942
35980SOL    HW1 9837   5.983   3.711   8.897
35980SOL    HW2 9838   6.080   3.827   8.895
35981SOL     OW 9839   3.010   5.164   5.157
35981SOL    HW1 9840   2.919   5.135   5.168
35981SOL    HW2 9841   3.035   5.199   5.242
35982SOL     OW 9842  13.032   7.324   0.084
35982SOL    HW1 9843  13.063   7.351   0.169
35982SOL    HW2 9844  13.067   7.235   0.072
35983SOL     OW 9845  11.883   4.767  12.474
35983SOL    HW1 9846  11.874   4.820  12.554
35983SOL    HW2 9847  11.969   4.727  12.481
35984SOL     OW 9848  10.452  13.020   5.304
35984SOL    HW1 9849  10.360  12.998   5.295
35984SOL    HW2 9850  10.489  13.007   5.217
35985SOL     OW 9851  11.883   6.887   1.496
35985SOL    HW1 9852  11.879   6.982   1.495
35985SOL    HW2 9853  11.874   6.861   1.404
35986SOL     OW 9854   9.786   5.873   1.072
35986SOL    HW1 9855   9.825   5.824   1.145
35986SOL    HW2 9856   9.770   5.807   1.005
35987SOL     OW 9857  11.412   5.151   2.160
35987SOL    HW1 9858  11.408   5.069   2.209
35987SOL    HW2 9859  11.336   5.201   2.190
35988SOL     OW 9860  13.090  14.835  10.058
35988SOL    HW1 9861  13.034   0.027  10.011
35988SOL    HW2 9862  13.030  14.770  10.094
35989SOL     OW 9863  14.465  10.050   2.230
35989SOL    HW1 9864  14.555  10.027   2.255
35989SOL    HW2 9865  14.414  10.033   2.309
35990SOL     OW 9866   4.994   0.567   2.871
35990SOL    HW1 9867   4.950   0.644   2.908
35990SOL    HW2 9868   4.928   0.526   2.816
35991SOL     OW 9869  12.624   5.157   3.855
35991SOL    HW1 9870  12.680   5.223   3.896
35991SOL    HW2 9871  12.676   5.122   3.783
35992SOL     OW 9872   5.486  12.853  11.112
35992SOL    HW1 9873   5.470  12.837  11.205
35992SOL    HW2 9874   5.536  12.935  11.111
35993SOL     OW 9875   9.098  13.465  10.916
35993SOL    HW1 9876   9.139  13.391  10.960
35993SOL    HW2 9877   9.168  13.530  10.909
35994SOL     OW 9878  14.001   7.714   2.329
35994SOL    HW1 9879  13.957   7.729   2.412
35994SOL    HW2 9880  13.954   7.641   2.289
35995SOL     OW 9881   5.135   3.078   2.156
35995SOL    HW1 9882   5.047   3.049   2.133
35995SOL    HW2 9883   5.156   3.030   2.236
35996SOL     OW 9884   7.742  12.958  13.360
35996SOL    HW1 9885   7.666  12.929  13.410
35996SOL    HW2 9886   7.800  12.997  13.425
35997SOL     OW 9887   7.878   1.332  11.103
35997SOL    HW1 9888   7.898   1.315  11.011
35997SOL    HW2 9889   7.846   1.248  11.136
35998SOL     OW 9890   8.811   8.474  11.976
35998SOL    HW1 9891   8.727   8.477  11.929
35998SOL    HW2 9892   8.847   8.388  11.956
35999SOL     OW 9893  13.873   8.628  11.258
35999SOL    HW1 9894  13.943   8.686  11.287
35999SOL    HW2 9895  13.849   8.660  11.171
36000SOL     OW 9896   0.025  11.795   3.313
36000SOL    HW1 9897   0.107  11.746   3.324
36000SOL    HW2 9898  14.864  11.772   3.226
36001SOL     OW 9899  11.126   0.691  14.522
36001SOL    HW1 9900  11.191   0.742  14.473
36001SOL    HW2 9901  11.160   0.688  14.611
36002SOL     OW 9902   2.793  12.945   4.310
36002SOL    HW1 9903   2.715  12.990   4.345
36002SOL    HW2 9904   2.828  13.005   4.244
36003SOL     OW 9905   7.149   2.832   7.841
36003SOL    HW1 9906   7.142   2.739   7.818
36003SOL    HW2 9907   7.213   2.867   7.780
36004SOL     OW 9908   5.586   5.591   8.196
36004SOL    HW1 9909   5.673   5.553   8.208
36004SOL    HW2 9910   5.559   5.617   8.284
36005SOL     OW 9911   5.642  14.651   8.317
36005SOL    HW1 9912   5.580  14.580   8.332
36005SOL    HW2 9913   5.587  14.728   8.301
36006SOL     OW 9914  12.470   8.067   8.590
36006SOL    HW1 9915  12.446   8.127   8.519
36006SOL    HW2 9916  12.391   8.014   8.603
36007SOL     OW 9917   8.540   3.281   8.742
36007SOL    HW1 9918   8.628   3.266   8.779
36007SOL    HW2 9919   8.500   3.345   8.801
36008SOL     OW 9920   3.635   1.010   2.532
36008SOL    HW1 9921   3.582   1.052   2.465
36008SOL    HW2 9922   3.577   0.943   2.569
36009SOL     OW 9923   0.717   0.337   6.723
36009SOL    HW1 9924   0.628   0.340   6.688
36009SOL    HW2 9925   0.718   0.259   6.779
36010SOL     OW 9926   1.402   6.706  11.518
36010SOL    HW1 9927   1.411   6.773  11.587
36010SOL    HW2 9928   1.312   6.716  11.487
36011SOL     OW 9929   7.545  10.222  12.921
36011SOL    HW1 9930   7.541  10.315  12.902
36011SOL    HW2 9931   7.477  10.183  12.866
36012SOL     OW 9932   7.382   9.541   3.001
36012SOL    HW1 9933   7.358   9.633   3.000
36012SOL    HW2 9934   7.476   9.541   2.984
36013SOL     OW 9935   2.961   1.984   9.215
36013SOL    HW1 9936   2.936   2.060   9.268
36013SOL    HW2 9937   2.969   1.913   9.279
36014SOL     OW 9938  11.774   9.483   9.883
36014SOL    HW1 9939  11.829   9.432   9.823
36014SOL    HW2 9940  11.797   9.574   9.865
36015SOL     OW 9941  14.145   4.291   1.623
36015SOL    HW1 9942  14.174   4.270   1.712
36015SOL    HW2 9943  14.194   4.232   1.566
36016SOL     OW 9944   2.383  11.367  10.622
36016SOL    HW1 9945   2.295  11.344  10.591
36016SOL    HW2 9946   2.405  11.298  10.684
36017SOL     OW 9947  14.239   5.736   6.287
36017SOL    HW1 9948  14.283   5.664   6.333
36017SOL    HW2 9949  14.187   5.693   6.219
36018SOL     OW 9950  14.364  12.118   7.041
36018SOL    HW1 9951  14.366  12.203   6.996
36018SOL    HW2 9952  14.274  12.110   7.073
36019SOL     OW 9953   2.129  14.175   4.213
36019SOL    HW1 9954   2.063  14.129   4.160
36019SOL    HW2 9955   2.091  14.261   4.229
36020SOL     OW 9956  14.004   1.704   2.072
36020SOL    HW1 9957  14.087   1.657   2.088
36020SOL    HW2 9958  13.998   1.765   2.145
36021SOL     OW 9959   4.309  14.389   6.553
36021SOL    HW1 9960   4.335  14.424   6.638
36021SOL    HW2 9961   4.388  14.397   6.498
36022SOL     OW 9962   0.403   9.463   9.702
36022SOL    HW1 9963   0.386   9.370   9.722
36022SOL    HW2 9964   0.416   9.504   9.788
36023SOL     OW 9965  10.070   6.352   1.763
36023SOL    HW1 9966  10.059   6.317   1.851
36023SOL    HW2 9967  10.039   6.283   1.705
36024SOL     OW 9968   6.833  11.670   4.944
36024SOL    HW1 9969   6.753  11.716   4.971
36024SOL    HW2 9970   6.887  11.739   4.905
36025SOL     OW 9971  12.178   8.031   5.850
36025SOL    HW1 9972  12.171   7.948   5.897
36025SOL    HW2 9973  12.209   8.006   5.763
36026SOL     OW 9974  12.214  14.557   1.426
36026SOL    HW1 9975  12.285  14.569   1.363
36026SOL    HW2 9976  12.221  14.632   1.485
36027SOL     OW 9977   3.821   2.124   0.699
36027SOL    HW1 9978   3.839   2.207   0.654
36027SOL    HW2 9979   3.778   2.150   0.780
36028SOL     OW 9980  14.617   3.290   2.470
36028SOL    HW1 9981  14.550   3.272   2.536
36028SOL    HW2 9982  14.599   3.227   2.400
36029SOL     OW 9983   9.039   9.242  14.077
36029SOL    HW1 9984   8.953   9.233  14.037
36029SOL    HW2 9985   9.093   9.282  14.009
36030SOL     OW 9986   1.858   8.292  14.766
36030SOL    HW1 9987   1.826   8.230  14.832
36030SOL    HW2 9988   1.784   8.350  14.751
36031SOL     OW 9989  14.283  13.202   4.985
36031SOL    HW1 9990  14.259  13.260   5.057
36031SOL    HW2 9991  14.335  13.257   4.926
36032SOL     OW 9992   0.040   7.364   3.516
36032SOL    HW1 9993  14.817   7.339   3.507
36032SOL    HW2 9994   0.039   7.431   3.584
36033SOL     OW 9995   9.990   3.528  11.042
36033SOL    HW1 9996   9.977   3.537  10.948
36033SOL    HW2 9997   9.961   3.611  11.079
36034SOL     OW 9998  12.913  10.614   2.950
36034SOL    HW1 9999  12.906  10.577   3.038
36034SOL    HW210000  12.872  10.700   2.957
36035SOL     OW10001  11.448   7.644   1.205
36035SOL    HW110002  11.393   7.697   1.262
36035SOL    HW210003  11.476   7.570   1.259
36036SOL     OW10004  12.685   8.351  10.859
36036SOL    HW110005  12.597   8.327  10.831
36036SOL    HW210006  12.673   8.388  10.946
36037SOL     OW10007   5.867   5.038   3.986
36037SOL    HW110008   5.934   5.002   3.928
36037SOL    HW210009   5.917   5.082   4.055
36038SOL     OW10010   5.897   6.842   3.062
36038SOL    HW110011   5.970   6.904   3.071
36038SOL    HW210012   5.838   6.863   3.134
36039SOL     OW10013   4.610   6.333  13.276
36039SOL    HW110014   4.645   6.403  13.330
36039SOL    HW210015   4.526   6.366  13.245
36040SOL     OW10016   0.826  10.459   9.554
36040SOL    HW110017   0.904  10.499   9.593
36040SOL    HW210018   0.771  10.436   9.629
36041SOL     OW10019   1.712   9.099   6.749
36041SOL    HW110020   1.716   9.148   6.831
36041SOL    HW210021   1.640   9.038   6.761
36042SOL     OW10022  11.434  11.057  13.593
36042SOL    HW110023  11.375  11.006  13.649
36042SOL    HW210024  11.428  11.146  13.626
36043SOL     OW10025   1.248  14.840   4.833
36043SOL    HW110026   1.174   0.022   4.867
36043SOL    HW210027   1.250  14.762   4.888
36044SOL     OW10028  12.859   5.268  14.216
36044SOL    HW110029  12.789   5.307  14.269
36044SOL    HW210030  12.937   5.274  14.271
36045SOL     OW10031   6.679   3.864   2.504
36045SOL    HW110032   6.633   3.817   2.574
36045SOL    HW210033   6.609   3.900   2.449
36046SOL     OW10034   5.219  10.474   7.262
36046SOL    HW110035   5.313  10.459   7.249
36046SOL    HW210036   5.211  10.569   7.272
36047SOL     OW10037   4.912  10.037  13.470
36047SOL    HW110038   4.917   9.964  13.532
36047SOL    HW210039   4.836  10.016  13.415
36048SOL     OW10040   7.209  13.793   7.831
36048SOL    HW110041   7.247  13.812   7.917
36048SOL    HW210042   7.257  13.850   7.770
36049SOL     OW10043  12.619   9.959   9.123
36049SOL    HW110044  12.635   9.865   9.133
36049SOL    HW210045  12.705   9.997   9.111
36050SOL     OW10046   1.007  12.505  10.407
36050SOL    HW110047   1.072  12.576  10.404
36050SOL    HW210048   1.049  12.436  10.457
36051SOL     OW10049  12.897   3.816  12.168
36051SOL    HW110050  12.894   3.878  12.241
36051SOL    HW210051  12.863   3.866  12.094
36052SOL     OW10052   1.783   4.048  13.142
36052SOL    HW110053   1.835   4.024  13.219
36052SOL    HW210054   1.780   3.968  13.090
36053SOL     OW10055  13.884   1.369  12.403
36053SOL    HW110056  13.965   1.319  12.392
36053SOL    HW210057  13.833   1.317  12.466
36054SOL     OW10058   7.151   1.313   3.703
36054SOL    HW110059   7.218   1.367   3.660
36054SOL    HW210060   7.197   1.233   3.729
36055SOL     OW10061   1.410   4.437   9.585
36055SOL    HW110062   1.390   4.363   9.642
36055SOL    HW210063   1.354   4.424   9.509
36056SOL     OW10064   5.236   4.569   4.340
36056SOL    HW110065   5.173   4.631   4.376
36056SOL    HW210066   5.185   4.517   4.278
36057SOL     OW10067   0.224   3.492   9.275
36057SOL    HW110068   0.215   3.482   9.369
36057SOL    HW210069   0.183   3.576   9.255
36058SOL     OW10070   3.227   8.073   4.244
36058SOL    HW110071   3.163   8.100   4.310
36058SOL    HW210072   3.242   8.151   4.191
36059SOL     OW10073  11.389   6.814   1.310
36059SOL    HW110074  11.330   6.855   1.373
36059SOL    HW210075  11.475   6.851   1.329
36060SOL     OW10076  14.286   7.740   2.045
36060SOL    HW110077  14.197   7.774   2.051
36060SOL    HW210078  14.340   7.810   2.083
36061SOL     OW10079   2.413   7.484   7.393
36061SOL    HW110080   2.354   7.542   7.441
36061SOL    HW210081   2.499   7.497   7.433
36062SOL     OW10082  14.829   7.042   7.796
36062SOL    HW110083  14.821   7.022   7.889
36062SOL    HW210084   0.052   7.063   7.783
36063SOL     OW10085  13.931   8.699   6.172
36063SOL    HW110086  13.995   8.689   6.102
36063SOL    HW210087  13.983   8.726   6.248
36064SOL     OW10088  12.454   1.010   7.439
36064SOL    HW110089  12.479   0.939   7.497
36064SOL    HW210090  12.455   1.088   7.495
36065SOL     OW10091  10.361   8.921   8.921
36065SOL    HW110092  10.350   8.854   8.989
36065SOL    HW210093  10.284   8.977   8.930
36066SOL     OW10094   6.964   4.462   6.309
36066SOL    HW110095   6.900   4.509   6.256
36066SOL    HW210096   7.014   4.530   6.353
36067SOL     OW10097   0.140   4.783   4.160
36067SOL    HW110098   0.209   4.755   4.220
36067SOL    HW210099   0.186   4.825   4.088
36068SOL     OW10100   8.980   1.063   1.507
36068SOL    HW110101   8.975   1.072   1.412
36068SOL    HW210102   9.073   1.058   1.526
36069SOL     OW10103   9.376   1.877  13.951
36069SOL    HW110104   9.328   1.885  13.869
36069SOL    HW210105   9.464   1.911  13.932
36070SOL     OW10106  10.140  11.928  12.912
36070SOL    HW110107  10.190  11.849  12.893
36070SOL    HW210108  10.049  11.901  12.904
36071SOL     OW10109   2.749  11.147   2.170
36071SOL    HW110110   2.810  11.208   2.129
36071SOL    HW210111   2.747  11.072   2.110
36072SOL     OW10112  12.229  10.835   5.659
36072SOL    HW110113  12.230  10.817   5.753
36072SOL    HW210114  12.149  10.885   5.645
36073SOL     OW10115   0.723   6.979  10.103
36073SOL    HW110116   0.631   6.953  10.099
36073SOL    HW210117   0.766   6.928  10.034
36074SOL     OW10118   6.517   1.705   8.809
36074SOL    HW110119   6.554   1.759   8.739
36074SOL    HW210120   6.446   1.757   8.846
36075SOL     OW10121  10.101  13.657   3.051
36075SOL    HW110122  10.178  13.620   3.008
36075SOL    HW210123  10.027  13.624   3.001
36076SOL     OW10124  14.575  14.839   2.808
36076SOL    HW110125  14.610   0.010   2.729
36076SOL    HW210126  14.502  14.786   2.777
36077SOL     OW10127   2.673   1.981   1.181
36077SOL    HW110128   2.673   1.894   1.140
36077SOL    HW210129   2.581   1.998   1.200
36078SOL     OW10130   5.127  10.467   2.437
36078SOL    HW110131   5.175  10.493   2.358
36078SOL    HW210132   5.189  10.413   2.486
36079SOL     OW10133   0.696  11.631   8.370
36079SOL    HW110134   0.687  11.537   8.356
36079SOL    HW210135   0.617  11.656   8.419
36080SOL     OW10136   1.526   4.575   5.280
36080SOL    HW110137   1.519   4.506   5.345
36080SOL    HW210138   1.532   4.656   5.331
36081SOL     OW10139   2.235   1.741  13.523
36081SOL    HW110140   2.270   1.738  13.612
36081SOL    HW210141   2.289   1.805  13.478
36082SOL     OW10142   4.309   7.486   6.845
36082SOL    HW110143   4.239   7.549   6.864
36082SOL    HW210144   4.277   7.437   6.769
36083SOL     OW10145  11.922  13.500  10.813
36083SOL    HW110146  11.849  13.439  10.819
36083SOL    HW210147  11.978  13.477  10.888
36084SOL     OW10148  10.775  10.750   2.210
36084SOL    HW110149  10.734  10.836   2.211
36084SOL    HW210150  10.724  10.698   2.272
36085SOL     OW10151   6.235   7.890   6.474
36085SOL    HW110152   6.233   7.800   6.507
36085SOL    HW210153   6.195   7.942   6.543
36086SOL     OW10154   6.938  10.463   4.190
36086SOL    HW110155   6.963  10.373   4.170
36086SOL    HW210156   6.843  10.458   4.202
36087SOL     OW10157   0.274   6.663  12.408
36087SOL    HW110158   0.266   6.624  12.495
36087SOL    HW210159   0.190   6.705  12.392
36088SOL     OW10160   6.631   1.719   2.499
36088SOL    HW110161   6.572   1.708   2.573
36088SOL    HW210162   6.686   1.641   2.499
36089SOL     OW10163   5.708   5.314   4.321
36089SOL    HW110164   5.804   5.315   4.329
36089SOL    HW210165   5.677   5.368   4.392
36090SOL     OW10166   0.716  12.653   4.412
36090SOL    HW110167   0.731  12.696   4.496
36090SOL    HW210168   0.622  12.640   4.408
36091SOL     OW10169  12.839  10.666   0.528
36091SOL    HW110170  12.900  10.673   0.601
36091SOL    HW210171  12.842  10.574   0.503
36092SOL     OW10172   6.879   1.578   1.834
36092SOL    HW110173   6.784   1.575   1.828
36092SOL    HW210174   6.901   1.671   1.836
36093SOL     OW10175   8.181   1.637   6.561
36093SOL    HW110176   8.167   1.696   6.487
36093SOL    HW210177   8.252   1.677   6.611
36094SOL     OW10178   7.486   3.440   4.315
36094SOL    HW110179   7.458   3.505   4.379
36094SOL    HW210180   7.418   3.374   4.316
36095SOL     OW10181   0.427   9.500   8.335
36095SOL    HW110182   0.352   9.499   8.275
36095SOL    HW210183   0.434   9.410   8.365
36096SOL     OW10184   1.654   5.629   3.855
36096SOL    HW110185   1.703   5.578   3.790
36096SOL    HW210186   1.563   5.601   3.845
36097SOL     OW10187   3.422   2.370   9.606
36097SOL    HW110188   3.351   2.340   9.550
36097SOL    HW210189   3.481   2.294   9.612
36098SOL     OW10190   1.520   2.246  12.707
36098SOL    HW110191   1.539   2.270  12.617
36098SOL    HW210192   1.444   2.188  12.701
36099SOL     OW10193  10.242  10.732   0.150
36099SOL    HW110194  10.289  10.716   0.232
36099SOL    HW210195  10.163  10.780   0.177
36100SOL     OW10196   9.713   4.629   8.072
36100SOL    HW110197   9.679   4.704   8.120
36100SOL    HW210198   9.635   4.583   8.040
36101SOL     OW10199   6.678   3.359   6.210
36101SOL    HW110200   6.615   3.389   6.275
36101SOL    HW210201   6.650   3.271   6.187
36102SOL     OW10202   5.000   6.189  11.738
36102SOL    HW110203   5.058   6.258  11.706
36102SOL    HW210204   4.948   6.231  11.807
36103SOL     OW10205  12.856   9.131  14.387
36103SOL    HW110206  12.922   9.199  14.404
36103SOL    HW210207  12.795   9.139  14.461
36104SOL     OW10208   8.932  12.916   1.787
36104SOL    HW110209   9.002  12.980   1.775
36104SOL    HW210210   8.958  12.841   1.733
36105SOL     OW10211   8.866  14.439  11.703
36105SOL    HW110212   8.941  14.492  11.729
36105SOL    HW210213   8.885  14.414  11.613
36106SOL     OW10214   1.772   6.679   7.430
36106SOL    HW110215   1.729   6.693   7.515
36106SOL    HW210216   1.762   6.763   7.385
36107SOL     OW10217   8.241  10.175   6.699
36107SOL    HW110218   8.294  10.097   6.688
36107SOL    HW210219   8.194  10.184   6.616
36108SOL     OW10220  10.429   5.390  10.213
36108SOL    HW110221  10.406   5.477  10.181
36108SOL    HW210222  10.451   5.340  10.134
36109SOL     OW10223   4.979   5.695  14.760
36109SOL    HW110224   4.977   5.624  14.696
36109SOL    HW210225   5.070   5.724  14.761
36110SOL     OW10226   5.392   0.604   0.038
36110SOL    HW110227   5.334   0.604   0.114
36110SOL    HW210228   5.472   0.563   0.068
36111SOL     OW10229   6.865   4.590   7.096
36111SOL    HW110230   6.873   4.685   7.104
36111SOL    HW210231   6.935   4.556   7.152
36112SOL     OW10232   9.739  11.845   7.054
36112SOL    HW110233   9.700  11.817   6.971
36112SOL    HW210234   9.667  11.886   7.102
36113SOL     OW10235  13.311   4.751   1.280
36113SOL    HW110236  13.273   4.749   1.368
36113SOL    HW210237  13.270   4.678   1.234
36114SOL     OW10238   9.429   9.194  12.529
36114SOL    HW110239   9.344   9.231  12.554
36114SOL    HW210240   9.490   9.267  12.539
36115SOL     OW10241   0.877  12.152   1.550
36115SOL    HW110242   0.831  12.128   1.631
36115SOL    HW210243   0.822  12.117   1.480
36116SOL     OW10244   7.361   1.554  12.326
36116SOL    HW110245   7.356   1.627  12.387
36116SOL    HW210246   7.327   1.479  12.375
36117SOL     OW10247  14.273   1.761   3.125
36117SOL    HW110248  14.218   1.747   3.048
36117SOL    HW210249  14.313   1.846   3.111
36118SOL     OW10250   8.361   7.253   9.913
36118SOL    HW110251   8.359   7.313   9.988
36118SOL    HW210252   8.448   7.265   9.875
36119SOL     OW10253   0.755   0.916   5.563
36119SOL    HW110254   0.780   0.855   5.632
36119SOL    HW210255   0.801   0.885   5.485
36120SOL     OW10256  12.440   4.517   5.772
36120SOL    HW110257  12.420   4.562   5.854
36120SOL    HW210258  12.527   4.549   5.747
36121SOL     OW10259   4.880  10.383  14.469
36121SOL    HW110260   4.900  10.425  14.553
36121SOL    HW210261   4.954  10.407  14.413
36122SOL     OW10262   7.696   7.233   9.784
36122SOL    HW110263   7.703   7.270   9.872
36122SOL    HW210264   7.602   7.227   9.768
36123SOL     OW10265  10.865   0.595   6.844
36123SOL    HW110266  10.944   0.608   6.896
36123SOL    HW210267  10.896   0.593   6.754
36124SOL     OW10268   1.633  14.832   1.150
36124SOL    HW110269   1.722  14.853   1.124
36124SOL    HW210270   1.614   0.021   1.223
36125SOL     OW10271  12.826   7.347   9.368
36125SOL    HW110272  12.875   7.421   9.332
36125SOL    HW210273  12.845   7.350   9.462
36126SOL     OW10274   6.119  11.394   1.303
36126SOL    HW110275   6.210  11.376   1.281
36126SOL    HW210276   6.113  11.376   1.397
36127SOL     OW10277  10.087  10.898  14.605
36127SOL    HW110278  10.107  10.992  14.598
36127SOL    HW210279  10.117  10.861  14.522
36128SOL     OW10280   3.572   8.386   7.944
36128SOL    HW110281   3.584   8.381   8.039
36128SOL    HW210282   3.660   8.394   7.909
36129SOL     OW10283   8.025   7.889   7.102
36129SOL    HW110284   7.987   7.872   7.188
36129SOL    HW210285   7.960   7.855   7.040
36130SOL     OW10286  13.762   6.047   6.886
36130SOL    HW110287  13.778   6.141   6.894
36130SOL    HW210288  13.836   6.014   6.835
36131SOL     OW10289   0.957   2.751   2.417
36131SOL    HW110290   0.978   2.834   2.374
36131SOL    HW210291   1.041   2.717   2.445
36132SOL     OW10292  13.919   8.979   9.763
36132SOL    HW110293  13.861   9.025   9.824
36132SOL    HW210294  13.960   9.048   9.712
36133SOL     OW10295  14.688  12.645   3.896
36133SOL    HW110296  14.746  12.664   3.971
36133SOL    HW210297  14.712  12.557   3.869
36134SOL     OW10298   0.788  12.461   3.796
36134SOL    HW110299   0.766  12.554   3.805
36134SOL    HW210300   0.881  12.460   3.774
36135SOL     OW10301   4.941   5.364  10.432
36135SOL    HW110302   4.965   5.302  10.362
36135SOL    HW210303   4.956   5.450  10.394
36136SOL     OW10304   4.871  12.433   0.831
36136SOL    HW110305   4.900  12.352   0.874
36136SOL    HW210306   4.782  12.447   0.863
36137SOL     OW10307   5.213   8.472   4.475
36137SOL    HW110308   5.240   8.387   4.509
36137SOL    HW210309   5.219   8.462   4.380
36138SOL     OW10310   0.452   2.347   2.303
36138SOL    HW110311   0.465   2.441   2.289
36138SOL    HW210312   0.507   2.305   2.237
36139SOL     OW10313   5.281   6.845  11.425
36139SOL    HW110314   5.324   6.768  11.463
36139SOL    HW210315   5.263   6.820  11.335
36140SOL     OW10316   5.110   0.722   2.510
36140SOL    HW110317   5.105   0.628   2.528
36140SOL    HW210318   5.050   0.761   2.574
36141SOL     OW10319   6.564   8.284  10.858
36141SOL    HW110320   6.484   8.232  10.864
36141SOL    HW210321   6.534   8.374  10.849
36142SOL     OW10322   0.866   8.792   8.628
36142SOL    HW110323   0.862   8.831   8.541
36142SOL    HW210324   0.845   8.864   8.687
36143SOL     OW10325  14.826   6.043   7.499
36143SOL    HW110326  14.824   5.956   7.537
36143SOL    HW210327  14.744   6.084   7.527
36144SOL     OW10328   7.795  14.456  10.489
36144SOL    HW110329   7.885  14.468  10.458
36144SOL    HW210330   7.755  14.542  10.476
36145SOL     OW10331   3.932   7.382   9.604
36145SOL    HW110332   4.011   7.338   9.572
36145SOL    HW210333   3.956   7.474   9.609
36146SOL     OW10334   0.941  11.456   8.686
36146SOL    HW110335   0.903  11.485   8.768
36146SOL    HW210336   1.030  11.428   8.709
36147SOL     OW10337   8.240   8.235  11.521
36147SOL    HW110338   8.224   8.206  11.611
36147SOL    HW210339   8.312   8.180  11.491
36148SOL     OW10340   8.310  11.438   4.991
36148SOL    HW110341   8.378  11.503   5.009
36148SOL    HW210342   8.235  11.490   4.961
36149SOL     OW10343   6.376  10.774  10.905
36149SOL    HW110344   6.448  10.714  10.885
36149SOL    HW210345   6.302  10.740  10.854
36150SOL     OW10346  12.779   3.117   3.077
36150SOL    HW110347  12.718   3.142   3.146
36150SOL    HW210348  12.779   3.191   3.016
36151SOL     OW10349   0.728   2.668  14.450
36151SOL    HW110350   0.712   2.671  14.356
36151SOL    HW210351   0.652   2.622  14.486
36152SOL     OW10352   0.983   9.345  10.502
36152SOL    HW110353   0.924   9.345  10.428
36152SOL    HW210354   0.940   9.401  10.567
36153SOL     OW10355  12.648  11.749   7.870
36153SOL    HW110356  12.648  11.807   7.946
36153SOL    HW210357  12.666  11.662   7.905
36154SOL     OW10358  11.446   6.624  11.721
36154SOL    HW110359  11.465   6.569  11.797
36154SOL    HW210360  11.462   6.713  11.752
36155SOL     OW10361  11.745   9.755  11.442
36155SOL    HW110362  11.714   9.702  11.368
36155SOL    HW210363  11.668   9.766  11.497
36156SOL     OW10364   2.193   0.327   6.350
36156SOL    HW110365   2.100   0.349   6.350
36156SOL    HW210366   2.234   0.393   6.294
36157SOL     OW10367   9.335   0.314   8.129
36157SOL    HW110368   9.317   0.366   8.051
36157SOL    HW210369   9.427   0.330   8.149
36158SOL     OW10370   2.680   8.485  11.549
36158SOL    HW110371   2.739   8.412  11.533
36158SOL    HW210372   2.644   8.506  11.462
36159SOL     OW10373  13.229   6.851   1.412
36159SOL    HW110374  13.304   6.804   1.448
36159SOL    HW210375  13.214   6.923   1.473
36160SOL     OW10376  11.595  11.262   3.620
36160SOL    HW110377  11.579  11.297   3.532
36160SOL    HW210378  11.672  11.205   3.610
36161SOL     OW10379  12.794   8.415   7.494
36161SOL    HW110380  12.761   8.502   7.471
36161SOL    HW210381  12.796   8.368   7.411
36162SOL     OW10382   4.176   6.278  13.266
36162SOL    HW110383   4.193   6.334  13.343
36162SOL    HW210384   4.092   6.237  13.285
36163SOL     OW10385   5.557   8.476   7.240
36163SOL    HW110386   5.464   8.491   7.225
36163SOL    HW210387   5.564   8.382   7.258
36164SOL     OW10388   3.415   6.291   1.103
36164SOL    HW110389   3.346   6.229   1.128
36164SOL    HW210390   3.493   6.260   1.148
36165SOL     OW10391   4.459   2.662  13.054
36165SOL    HW110392   4.418   2.733  13.104
36165SOL    HW210393   4.432   2.678  12.964
36166SOL     OW10394   4.545   5.881   4.874
36166SOL    HW110395   4.608   5.815   4.903
36166SOL    HW210396   4.470   5.830   4.843
36167SOL     OW10397  12.274  12.200  11.885
36167SOL    HW110398  12.266  12.222  11.792
36167SOL    HW210399  12.196  12.147  11.904
36168SOL     OW10400   8.655   4.149  13.503
36168SOL    HW110401   8.561   4.156  13.520
36168SOL    HW210402   8.672   4.211  13.432
36169SOL     OW10403   5.010   4.276   3.636
36169SOL    HW110404   5.041   4.276   3.545
36169SOL    HW210405   4.949   4.350   3.640
36170SOL     OW10406   7.097   0.288  13.941
36170SOL    HW110407   7.162   0.324  14.002
36170SOL    HW210408   7.040   0.362  13.920
36171SOL     OW10409   7.966   7.362   1.716
36171SOL    HW110410   7.925   7.336   1.633
36171SOL    HW210411   8.057   7.379   1.693
36172SOL     OW10412   2.611  10.353   4.950
36172SOL    HW110413   2.659  10.414   5.007
36172SOL    HW210414   2.605  10.400   4.866
36173SOL     OW10415   9.186   8.407  11.047
36173SOL    HW110416   9.104   8.455  11.039
36173SOL    HW210417   9.186   8.376  11.138
36174SOL     OW10418  13.819   5.040   4.514
36174SOL    HW110419  13.779   4.957   4.540
36174SOL    HW210420  13.746   5.090   4.477
36175SOL     OW10421  12.880   7.029   6.231
36175SOL    HW110422  12.923   7.007   6.148
36175SOL    HW210423  12.913   6.965   6.294
36176SOL     OW10424   6.307  12.364  11.032
36176SOL    HW110425   6.385  12.402  11.073
36176SOL    HW210426   6.332  12.349  10.941
36177SOL     OW10427   2.473   9.514   8.605
36177SOL    HW110428   2.390   9.562   8.596
36177SOL    HW210429   2.467   9.444   8.540
36178SOL     OW10430   0.934   2.360  14.730
36178SOL    HW110431   0.885   2.392  14.806
36178SOL    HW210432   1.022   2.394  14.742
36179SOL     OW10433   3.994  13.514  10.639
36179SOL    HW110434   4.056  13.492  10.570
36179SOL    HW210435   3.909  13.513  10.596
36180SOL     OW10436   6.849  11.187  13.590
36180SOL    HW110437   6.796  11.267  13.587
36180SOL    HW210438   6.838  11.148  13.503
36181SOL     OW10439   6.194   2.041   8.524
36181SOL    HW110440   6.119   2.053   8.582
36181SOL    HW210441   6.224   1.952   8.542
36182SOL     OW10442   9.727   8.420  13.047
36182SOL    HW110443   9.694   8.363  13.116
36182SOL    HW210444   9.817   8.440  13.073
36183SOL     OW10445   0.562   5.983   5.063
36183SOL    HW110446   0.566   5.942   5.150
36183SOL    HW210447   0.590   5.915   5.003
36184SOL     OW10448   8.622   6.134  11.614
36184SOL    HW110449   8.537   6.128  11.571
36184SOL    HW210450   8.678   6.075  11.564
36185SOL     OW10451   3.032   3.906  13.926
36185SOL    HW110452   3.010   3.926  14.017
36185SOL    HW210453   3.121   3.940  13.915
36186SOL     OW10454   1.121   1.959  12.843
36186SOL    HW110455   1.100   2.008  12.922
36186SOL    HW210456   1.053   1.893  12.836
36187SOL     OW10457   7.208   1.794   5.561
36187SOL    HW110458   7.132   1.736   5.562
36187SOL    HW210459   7.188   1.861   5.627
36188SOL     OW10460   9.159  13.030   6.431
36188SOL    HW110461   9.159  13.076   6.346
36188SOL    HW210462   9.089  12.965   6.422
36189SOL     OW10463  10.517  12.883   6.861
36189SOL    HW110464  10.534  12.810   6.802
36189SOL    HW210465  10.494  12.842   6.944
36190SOL     OW10466   1.156   7.237   1.551
36190SOL    HW110467   1.076   7.280   1.581
36190SOL    HW210468   1.185   7.184   1.626
36191SOL     OW10469   3.830   9.347   4.484
36191SOL    HW110470   3.790   9.286   4.422
36191SOL    HW210471   3.760   9.408   4.507
36192SOL     OW10472   1.553   1.864  12.797
36192SOL    HW110473   1.522   1.875  12.707
36192SOL    HW210474   1.646   1.845  12.788
36193SOL     OW10475   5.165   2.137   6.887
36193SOL    HW110476   5.246   2.106   6.847
36193SOL    HW210477   5.127   2.059   6.927
36194SOL     OW10478   8.470  11.576   2.451
36194SOL    HW110479   8.498  11.609   2.536
36194SOL    HW210480   8.551  11.547   2.408
36195SOL     OW10481   7.116   5.083   6.282
36195SOL    HW110482   7.206   5.056   6.267
36195SOL    HW210483   7.081   5.101   6.195
36196SOL     OW10484  13.584   1.370   3.200
36196SOL    HW110485  13.659   1.429   3.197
36196SOL    HW210486  13.581   1.330   3.113
36197SOL     OW10487   4.973   4.735   2.550
36197SOL    HW110488   5.047   4.771   2.599
36197SOL    HW210489   4.934   4.670   2.608
36198SOL     OW10490   4.246   9.881   8.747
36198SOL    HW110491   4.287   9.927   8.673
36198SOL    HW210492   4.180   9.825   8.707
36199SOL     OW10493  12.824   6.347   9.091
36199SOL    HW110494  12.910   6.373   9.059
36199SOL    HW210495  12.764   6.376   9.022
36200SOL     OW10496   9.581  11.997  10.719
36200SOL    HW110497   9.509  11.935  10.703
36200SOL    HW210498   9.660  11.944  10.713
36201SOL     OW10499  13.644   5.463   1.350
36201SOL    HW110500  13.549   5.471   1.339
36201SOL    HW210501  13.676   5.440   1.262
36202SOL     OW10502   0.988   3.906   1.253
36202SOL    HW110503   0.907   3.897   1.303
36202SOL    HW210504   0.963   3.960   1.178
36203SOL     OW10505  10.284  13.672   3.701
36203SOL    HW110506  10.314  13.759   3.674
36203SOL    HW210507  10.291  13.673   3.797
36204SOL     OW10508   6.098   3.234   7.846
36204SOL    HW110509   6.046   3.287   7.785
36204SOL    HW210510   6.133   3.298   7.908
36205SOL     OW10511   9.727  13.050   5.962
36205SOL    HW110512   9.706  13.119   5.899
36205SOL    HW210513   9.710  12.968   5.915
36206SOL     OW10514   2.116   3.148   4.771
36206SOL    HW110515   2.147   3.235   4.746
36206SOL    HW210516   2.137   3.140   4.864
36207SOL     OW10517  14.754   7.257   2.359
36207SOL    HW110518  14.715   7.344   2.356
36207SOL    HW210519  14.840   7.271   2.400
36208SOL     OW10520   1.001   2.223   1.958
36208SOL    HW110521   1.084   2.177   1.969
36208SOL    HW210522   1.005   2.261   1.871
36209SOL     OW10523   7.016   3.261  10.353
36209SOL    HW110524   7.054   3.221  10.274
36209SOL    HW210525   7.059   3.215  10.425
36210SOL     OW10526   0.866  11.684   2.259
36210SOL    HW110527   0.821  11.602   2.239
36210SOL    HW210528   0.831  11.746   2.196
36211SOL     OW10529   9.951   0.386   7.429
36211SOL    HW110530   9.916   0.463   7.473
36211SOL    HW210531   9.898   0.376   7.350
36212SOL     OW10532  10.168  11.393   1.985
36212SOL    HW110533  10.236  11.384   1.919
36212SOL    HW210534  10.087  11.403   1.935
36213SOL     OW10535  13.448   9.340   0.165
36213SOL    HW110536  13.488   9.289   0.236
36213SOL    HW210537  13.513   9.408   0.146
36214SOL     OW10538  12.282  13.771  12.439
36214SOL    HW110539  12.204  13.732  12.400
36214SOL    HW210540  12.331  13.805  12.364
36215SOL     OW10541   6.963   2.644   6.023
36215SOL    HW110542   6.920   2.708   6.080
36215SOL    HW210543   7.006   2.697   5.956
36216SOL     OW10544  11.900   8.212   8.781
36216SOL    HW110545  11.869   8.143   8.723
36216SOL    HW210546  11.850   8.200   8.862
36217SOL     OW10547   8.115   2.124   7.759
36217SOL    HW110548   8.170   2.158   7.830
36217SOL    HW210549   8.083   2.202   7.714
36218SOL     OW10550   3.101   7.370   5.642
36218SOL    HW110551   3.084   7.277   5.658
36218SOL    HW210552   3.020   7.404   5.606
36219SOL     OW10553   3.931   9.739  13.766
36219SOL    HW110554   3.923   9.831  13.789
36219SOL    HW210555   3.842   9.712  13.743
36220SOL     OW10556   9.770   1.538   2.606
36220SOL    HW110557   9.864   1.539   2.594
36220SOL    HW210558   9.734   1.548   2.518
36221SOL     OW10559  14.033  13.307   7.337
36221SOL    HW110560  14.096  13.345   7.276
36221SOL    HW210561  13.982  13.382   7.369
36222SOL     OW10562   1.646  14.704   0.814
36222SOL    HW110563   1.675  14.790   0.785
36222SOL    HW210564   1.620  14.716   0.905
36223SOL     OW10565   0.074   0.782   7.729
36223SOL    HW110566   0.023   0.844   7.676
36223SOL    HW210567   0.129   0.736   7.665
36224SOL     OW10568  10.784  13.109  10.087
36224SOL    HW110569  10.816  13.174  10.150
36224SOL    HW210570  10.742  13.160  10.019
36225SOL     OW10571   7.962  12.246   9.942
36225SOL    HW110572   8.010  12.297   9.876
36225SOL    HW210573   7.997  12.276  10.026
36226SOL     OW10574  13.405  10.887   7.610
36226SOL    HW110575  13.373  10.955   7.550
36226SOL    HW210576  13.500  10.886   7.596
36227SOL     OW10577  11.232  12.856  11.770
36227SOL    HW110578  11.284  12.906  11.834
36227SOL    HW210579  11.268  12.883  11.685
36228SOL     OW10580   7.670   8.930  14.605
36228SOL    HW110581   7.728   8.859  14.577
36228SOL    HW210582   7.603   8.887  14.659
36229SOL     OW10583   8.704  10.812  13.731
36229SOL    HW110584   8.793  10.779  13.745
36229SOL    HW210585   8.690  10.874  13.803
36230SOL     OW10586   4.938  10.964  14.712
36230SOL    HW110587   5.010  10.977  14.775
36230SOL    HW210588   4.933  11.047  14.665
36231SOL     OW10589   2.905  10.690   4.080
36231SOL    HW110590   2.888  10.783   4.089
36231SOL    HW210591   2.968  10.684   4.008
36232SOL     OW10592   8.594   1.521  11.772
36232SOL    HW110593   8.665   1.585  11.765
36232SOL    HW210594   8.534   1.559  11.836
36233SOL     OW10595   9.759   3.429  11.227
36233SOL    HW110596   9.773   3.365  11.297
36233SOL    HW210597   9.845   3.439  11.187
36234SOL     OW10598  10.988  12.862   1.212
36234SOL    HW110599  10.991  12.912   1.293
36234SOL    HW210600  10.910  12.807   1.220
36235SOL     OW10601   8.758  11.377  11.526
36235SOL    HW110602   8.830  11.431  11.494
36235SOL    HW210603   8.763  11.297  11.473
36236SOL     OW10604   9.830   7.741   5.075
36236SOL    HW110605   9.817   7.708   5.164
36236SOL    HW210606   9.836   7.661   5.021
36237SOL     OW10607   3.503  12.161   4.367
36237SOL    HW110608   3.543  12.079   4.397
36237SOL    HW210609   3.523  12.225   4.435
36238SOL     OW10610  14.082  13.465   8.344
36238SOL    HW110611  14.107  13.537   8.402
36238SOL    HW210612  13.987  13.472   8.337
36239SOL     OW10613   7.845  10.648   2.816
36239SOL    HW110614   7.786  10.619   2.885
36239SOL    HW210615   7.931  10.654   2.859
36240SOL     OW10616   9.815  12.680  14.645
36240SOL    HW110617   9.811  12.625  14.567
36240SOL    HW210618   9.726  12.713  14.655
36241SOL     OW10619   1.814   6.595   9.342
36241SOL    HW110620   1.829   6.533   9.413
36241SOL    HW210621   1.759   6.663   9.382
36242SOL     OW10622   9.388   0.724   7.693
36242SOL    HW110623   9.304   0.684   7.671
36242SOL    HW210624   9.365   0.801   7.744
36243SOL     OW10625   0.932   6.598   6.202
36243SOL    HW110626   1.023   6.628   6.209
36243SOL    HW210627   0.940   6.503   6.193
36244SOL     OW10628   1.129   3.466  10.546
36244SOL    HW110629   1.073   3.423  10.482
36244SOL    HW210630   1.127   3.408  10.622
36245SOL     OW10631  13.818   9.289   4.663
36245SOL    HW110632  13.874   9.242   4.725
36245SOL    HW210633  13.864   9.371   4.647
36246SOL     OW10634   2.408   7.727  11.775
36246SOL    HW110635   2.363   7.652  11.735
36246SOL    HW210636   2.473   7.688  11.833
36247SOL     OW10637   5.586   5.629  12.130
36247SOL    HW110638   5.615   5.693  12.065
36247SOL    HW210639   5.649   5.638  12.201
36248SOL     OW10640  12.259   6.235   0.237
36248SOL    HW110641  12.299   6.148   0.232
36248SOL    HW210642  12.231   6.243   0.328
36249SOL     OW10643   7.008   2.703   5.198
36249SOL    HW110644   6.994   2.784   5.247
36249SOL    HW210645   6.928   2.653   5.212
36250SOL     OW10646   5.809   5.557   4.837
36250SOL    HW110647   5.874   5.577   4.770
36250SOL    HW210648   5.760   5.639   4.847
36251SOL     OW10649   5.797   3.183   8.344
36251SOL    HW110650   5.876   3.234   8.325
36251SOL    HW210651   5.735   3.246   8.380
36252SOL     OW10652   8.166  14.331   8.196
36252SOL    HW110653   8.074  14.344   8.173
36252SOL    HW210654   8.209  14.309   8.113
36253SOL     OW10655  11.342   2.974  11.704
36253SOL    HW110656  11.295   3.015  11.778
36253SOL    HW210657  11.325   3.032  11.630
36254SOL     OW10658   2.829   2.049   2.340
36254SOL    HW110659   2.831   2.133   2.293
36254SOL    HW210660   2.920   2.017   2.335
36255SOL     OW10661   1.765   8.381   1.837
36255SOL    HW110662   1.682   8.398   1.882
36255SOL    HW210663   1.832   8.412   1.898
36256SOL     OW10664   3.529   0.435  14.535
36256SOL    HW110665   3.574   0.354  14.510
36256SOL    HW210666   3.598   0.501  14.540
36257SOL     OW10667   3.859  11.250  11.189
36257SOL    HW110668   3.885  11.162  11.162
36257SOL    HW210669   3.916  11.270  11.263
36258SOL     OW10670   8.611   9.184   9.754
36258SOL    HW110671   8.600   9.274   9.725
36258SOL    HW210672   8.569   9.182   9.841
36259SOL     OW10673   4.763  11.064   3.527
36259SOL    HW110674   4.757  10.973   3.554
36259SOL    HW210675   4.858  11.081   3.523
36260SOL     OW10676  13.349  10.936  14.204
36260SOL    HW110677  13.441  10.959  14.216
36260SOL    HW210678  13.305  11.020  14.192
36261SOL     OW10679   2.531  14.029   2.225
36261SOL    HW110680   2.517  14.023   2.130
36261SOL    HW210681   2.446  14.007   2.263
36262SOL     OW10682  12.483   7.322   1.731
36262SOL    HW110683  12.521   7.387   1.790
36262SOL    HW210684  12.515   7.238   1.764
36263SOL     OW10685   7.034  10.569   6.557
36263SOL    HW110686   7.101  10.619   6.604
36263SOL    HW210687   7.083  10.523   6.488
36264SOL     OW10688  12.739   1.538   1.659
36264SOL    HW110689  12.749   1.463   1.718
36264SOL    HW210690  12.791   1.514   1.582
36265SOL     OW10691   8.834   1.930   8.663
36265SOL    HW110692   8.925   1.961   8.661
36265SOL    HW210693   8.799   1.954   8.577
36266SOL     OW10694  11.759  12.373   5.032
36266SOL    HW110695  11.829  12.318   4.996
36266SOL    HW210696  11.733  12.429   4.959
36267SOL     OW10697   1.540  11.703   7.994
36267SOL    HW110698   1.481  11.777   8.008
36267SOL    HW210699   1.550  11.697   7.899
36268SOL     OW10700   7.769   8.355   2.272
36268SOL    HW110701   7.756   8.382   2.363
36268SOL    HW210702   7.816   8.272   2.277
36269SOL     OW10703   5.674   0.462   4.848
36269SOL    HW110704   5.659   0.507   4.931
36269SOL    HW210705   5.768   0.442   4.848
36270SOL     OW10706  13.560   4.963  11.419
36270SOL    HW110707  13.555   4.901  11.346
36270SOL    HW210708  13.612   4.918  11.485
36271SOL     OW10709  13.848  11.869   3.433
36271SOL    HW110710  13.926  11.856   3.379
36271SOL    HW210711  13.812  11.952   3.403
36272SOL     OW10712   4.462   0.228   0.195
36272SOL    HW110713   4.493   0.313   0.165
36272SOL    HW210714   4.519   0.208   0.270
36273SOL     OW10715  12.001   6.621   4.019
36273SOL    HW110716  12.077   6.678   4.019
36273SOL    HW210717  11.989   6.597   3.927
36274SOL     OW10718  10.599  14.187   9.928
36274SOL    HW110719  10.661  14.230   9.987
36274SOL    HW210720  10.571  14.256   9.867
36275SOL     OW10721  13.048   9.904   7.380
36275SOL    HW110722  13.013   9.969   7.441
36275SOL    HW210723  12.970   9.871   7.334
36276SOL     OW10724   9.768   2.476   5.381
36276SOL    HW110725   9.826   2.551   5.373
36276SOL    HW210726   9.736   2.479   5.471
36277SOL     OW10727  11.499   2.167  12.988
36277SOL    HW110728  11.500   2.235  12.921
36277SOL    HW210729  11.457   2.092  12.946
36278SOL     OW10730   6.668   7.963  12.033
36278SOL    HW110731   6.731   7.891  12.019
36278SOL    HW210732   6.694   8.002  12.116
36279SOL     OW10733   8.141   0.034   6.671
36279SOL    HW110734   8.223   0.024   6.719
36279SOL    HW210735   8.123  14.817   6.635
36280SOL     OW10736   4.317   8.217   4.189
36280SOL    HW110737   4.266   8.213   4.108
36280SOL    HW210738   4.381   8.287   4.174
36281SOL     OW10739   3.788   2.681   1.364
36281SOL    HW110740   3.781   2.753   1.427
36281SOL    HW210741   3.704   2.680   1.318
36282SOL     OW10742  10.835  14.625  10.131
36282SOL    HW110743  10.923  14.655  10.154
36282SOL    HW210744  10.785  14.705  10.114
36283SOL     OW10745  10.183  11.623   7.153
36283SOL    HW110746  10.093  11.654   7.151
36283SOL    HW210747  10.176  11.528   7.159
36284SOL     OW10748   4.303   5.657   4.285
36284SOL    HW110749   4.390   5.623   4.263
36284SOL    HW210750   4.297   5.740   4.237
36285SOL     OW10751  10.156  12.153  12.735
36285SOL    HW110752  10.176  12.087  12.801
36285SOL    HW210753  10.061  12.149  12.724
36286SOL     OW10754   0.316   1.007  13.384
36286SOL    HW110755   0.314   1.030  13.291
36286SOL    HW210756   0.239   1.050  13.421
36287SOL     OW10757   3.357   3.966   1.239
36287SOL    HW110758   3.380   3.989   1.329
36287SOL    HW210759   3.438   3.933   1.201
36288SOL     OW10760   3.247   6.284   2.070
36288SOL    HW110761   3.220   6.208   2.121
36288SOL    HW210762   3.240   6.256   1.979
36289SOL     OW10763   8.136  11.360   5.444
36289SOL    HW110764   8.175  11.327   5.363
36289SOL    HW210765   8.082  11.434   5.416
36290SOL     OW10766  10.510   7.990   2.572
36290SOL    HW110767  10.460   8.069   2.552
36290SOL    HW210768  10.589   8.022   2.616
36291SOL     OW10769  12.155   8.122   2.250
36291SOL    HW110770  12.175   8.175   2.173
36291SOL    HW210771  12.239   8.109   2.294
36292SOL     OW10772  13.457   2.775   8.989
36292SOL    HW110773  13.484   2.843   8.927
36292SOL    HW210774  13.503   2.696   8.960
36293SOL     OW10775  14.510  11.611  13.005
36293SOL    HW110776  14.431  11.572  12.967
36293SOL    HW210777  14.520  11.694  12.959
36294SOL     OW10778   8.313   3.045  13.467
36294SOL    HW110779   8.369   3.072  13.540
36294SOL    HW210780   8.374   3.025  13.396
36295SOL     OW10781   4.880  11.509   1.951
36295SOL    HW110782   4.950  11.498   1.886
36295SOL    HW210783   4.892  11.598   1.983
36296SOL     OW10784   6.642  14.245   4.691
36296SOL    HW110785   6.712  14.200   4.739
36296SOL    HW210786   6.653  14.337   4.713
36297SOL     OW10787  13.947   8.159   8.495
36297SOL    HW110788  14.019   8.098   8.478
36297SOL    HW210789  13.873   8.103   8.519
36298SOL     OW10790   9.161   1.773  12.187
36298SOL    HW110791   9.165   1.678  12.187
36298SOL    HW210792   9.234   1.800  12.131
36299SOL     OW10793   7.668  14.428  13.228
36299SOL    HW110794   7.664  14.492  13.156
36299SOL    HW210795   7.658  14.343  13.185
36300SOL     OW10796   6.654  12.766   1.079
36300SOL    HW110797   6.612  12.685   1.109
36300SOL    HW210798   6.589  12.808   1.024
36301SOL     OW10799   6.367   7.597   1.328
36301SOL    HW110800   6.385   7.522   1.271
36301SOL    HW210801   6.446   7.605   1.382
36302SOL     OW10802   6.604   3.080   6.766
36302SOL    HW110803   6.571   2.990   6.762
36302SOL    HW210804   6.695   3.072   6.738
36303SOL     OW10805   9.802   6.717  13.375
36303SOL    HW110806   9.741   6.656  13.417
36303SOL    HW210807   9.776   6.718  13.283
36304SOL     OW10808   7.802   1.065   3.554
36304SOL    HW110809   7.896   1.084   3.558
36304SOL    HW210810   7.790   0.989   3.611
36305SOL     OW10811  14.252  13.173   8.417
36305SOL    HW110812  14.231  13.225   8.340
36305SOL    HW210813  14.274  13.087   8.382
36306SOL     OW10814   5.626  10.195   8.340
36306SOL    HW110815   5.708  10.182   8.291
36306SOL    HW210816   5.622  10.120   8.399
36307SOL     OW10817   4.557   4.296   1.337
36307SOL    HW110818   4.515   4.265   1.257
36307SOL    HW210819   4.484   4.314   1.397
36308SOL     OW10820   4.632   3.344  12.283
36308SOL    HW110821   4.606   3.395  12.207
36308SOL    HW210822   4.726   3.329  12.272
36309SOL     OW10823   6.653  12.938   7.221
36309SOL    HW110824   6.676  13.011   7.164
36309SOL    HW210825   6.682  12.965   7.308
36310SOL     OW10826   4.347  13.307  10.508
36310SOL    HW110827   4.256  13.317  10.482
36310SOL    HW210828   4.395  13.373  10.458
36311SOL     OW10829   8.849   3.531   4.812
36311SOL    HW110830   8.757   3.557   4.812
36311SOL    HW210831   8.847   3.436   4.800
36312SOL     OW10832   5.999   1.565  12.557
36312SOL    HW110833   5.994   1.528  12.469
36312SOL    HW210834   5.921   1.531  12.602
36313SOL     OW10835  13.847  14.624   2.359
36313SOL    HW110836  13.835  14.579   2.443
36313SOL    HW210837  13.822  14.715   2.377
36314SOL     OW10838  10.540  14.743  12.427
36314SOL    HW110839  10.568  14.833  12.441
36314SOL    HW210840  10.450  14.749  12.396
36315SOL     OW10841   4.156   1.384   9.030
36315SOL    HW110842   4.071   1.340   9.025
36315SOL    HW210843   4.215   1.327   8.980
36316SOL     OW10844  13.957   4.130   1.905
36316SOL    HW110845  14.039   4.099   1.868
36316SOL    HW210846  13.933   4.206   1.852
36317SOL     OW10847   4.609   3.941   5.181
36317SOL    HW110848   4.535   3.881   5.180
36317SOL    HW210849   4.572   4.025   5.208
36318SOL     OW10850  11.644  11.698   7.836
36318SOL    HW110851  11.729  11.740   7.826
36318SOL    HW210852  11.585  11.748   7.779
36319SOL     OW10853   5.643   2.954   1.046
36319SOL    HW110854   5.639   3.044   1.077
36319SOL    HW210855   5.621   2.959   0.953
36320SOL     OW10856   2.001   3.062  10.669
36320SOL    HW110857   1.950   3.108  10.735
36320SOL    HW210858   2.090   3.096  10.679
36321SOL     OW10859   4.834   9.316  11.469
36321SOL    HW110860   4.835   9.229  11.429
36321SOL    HW210861   4.888   9.370  11.412
36322SOL     OW10862   4.355   6.086   2.975
36322SOL    HW110863   4.275   6.040   2.951
36322SOL    HW210864   4.385   6.125   2.893
36323SOL     OW10865   7.060   5.630   0.091
36323SOL    HW110866   6.967   5.638   0.113
36323SOL    HW210867   7.106   5.649   0.173
36324SOL     OW10868  10.217  10.730   8.581
36324SOL    HW110869  10.188  10.782   8.506
36324SOL    HW210870  10.170  10.647   8.572
36325SOL     OW10871   6.793   2.306   6.919
36325SOL    HW110872   6.745   2.350   6.988
36325SOL    HW210873   6.882   2.342   6.924
36326SOL     OW10874   8.441   1.404   9.592
36326SOL    HW110875   8.409   1.320   9.627
36326SOL    HW210876   8.516   1.379   9.537
36327SOL     OW10877   9.746  11.373  14.715
36327SOL    HW110878   9.684  11.301  14.726
36327SOL    HW210879   9.705  11.431  14.651
36328SOL     OW10880  12.929   4.316  12.886
36328SOL    HW110881  12.887   4.338  12.804
36328SOL    HW210882  12.871   4.350  12.954
36329SOL     OW10883   4.523   1.043   9.400
36329SOL    HW110884   4.447   1.085   9.439
36329SOL    HW210885   4.545   0.972   9.461
36330SOL     OW10886  12.225  10.510  10.128
36330SOL    HW110887  12.293  10.545  10.185
36330SOL    HW210888  12.223  10.416  10.147
36331SOL     OW10889   4.118   2.618  12.300
36331SOL    HW110890   4.096   2.679  12.230
36331SOL    HW210891   4.213   2.621  12.306
36332SOL     OW10892  11.479   9.289   3.947
36332SOL    HW110893  11.412   9.349   3.914
36332SOL    HW210894  11.559   9.315   3.900
36333SOL     OW10895   5.080   2.122   9.174
36333SOL    HW110896   5.084   2.104   9.268
36333SOL    HW210897   5.118   2.044   9.133
36334SOL     OW10898   4.775  11.908   3.649
36334SOL    HW110899   4.804  11.983   3.702
36334SOL    HW210900   4.768  11.836   3.711
36335SOL     OW10901   3.220  12.452  11.230
36335SOL    HW110902   3.152  12.496  11.178
36335SOL    HW210903   3.292  12.515  11.234
36336SOL     OW10904  11.852   5.111   8.863
36336SOL    HW110905  11.892   5.065   8.790
36336SOL    HW210906  11.920   5.171   8.894
36337SOL     OW10907   5.923   5.956   4.893
36337SOL    HW110908   5.990   5.926   4.832
36337SOL    HW210909   5.938   6.050   4.903
36338SOL     OW10910   8.110   4.009   4.481
36338SOL    HW110911   8.120   4.027   4.387
36338SOL    HW210912   8.197   4.027   4.518
36339SOL     OW10913  13.481  14.747  11.896
36339SOL    HW110914  13.489  14.825  11.841
36339SOL    HW210915  13.554  14.691  11.868
36340SOL     OW10916   9.234   1.873  13.309
36340SOL    HW110917   9.156   1.843  13.263
36340SOL    HW210918   9.206   1.880  13.400
36341SOL     OW10919   8.727   5.258   0.805
36341SOL    HW110920   8.771   5.322   0.861
36341SOL    HW210921   8.714   5.182   0.861
36342SOL     OW10922  14.232   6.470  12.422
36342SOL    HW110923  14.181   6.406  12.372
36342SOL    HW210924  14.286   6.417  12.480
36343SOL     OW10925   8.011  11.505   0.667
36343SOL    HW110926   8.099  11.538   0.645
36343SOL    HW210927   7.980  11.466   0.585
36344SOL     OW10928  10.526  10.174  13.527
36344SOL    HW110929  10.480  10.248  13.567
36344SOL    HW210930  10.597  10.214  13.477
36345SOL     OW10931  13.722  10.692   5.434
36345SOL    HW110932  13.787  10.668   5.368
36345SOL    HW210933  13.724  10.620   5.497
36346SOL     OW10934  11.846   5.963   4.785
36346SOL    HW110935  11.781   5.899   4.756
36346SOL    HW210936  11.850   5.952   4.880
36347SOL     OW10937  12.034   3.269   6.427
36347SOL    HW110938  11.946   3.246   6.456
36347SOL    HW210939  12.063   3.193   6.376
36348SOL     OW10940   2.299   6.841  11.460
36348SOL    HW110941   2.345   6.795  11.389
36348SOL    HW210942   2.207   6.831  11.439
36349SOL     OW10943   7.384   1.229   3.332
36349SOL    HW110944   7.456   1.271   3.285
36349SOL    HW210945   7.397   1.255   3.423
36350SOL     OW10946   8.389   6.057  13.119
36350SOL    HW110947   8.296   6.038  13.126
36350SOL    HW210948   8.424   5.987  13.063
36351SOL     OW10949  13.416  13.643  14.310
36351SOL    HW110950  13.436  13.639  14.404
36351SOL    HW210951  13.388  13.555  14.288
36352SOL     OW10952  11.189  10.900  11.669
36352SOL    HW110953  11.139  10.901  11.751
36352SOL    HW210954  11.215  10.991  11.656
36353SOL     OW10955   0.372   7.977  10.368
36353SOL    HW110956   0.380   8.016  10.281
36353SOL    HW210957   0.330   8.045  10.420
36354SOL     OW10958   3.405  12.660  11.214
36354SOL    HW110959   3.483  12.613  11.183
36354SOL    HW210960   3.362  12.690  11.134
36355SOL     OW10961   0.536   0.553   8.449
36355SOL    HW110962   0.582   0.472   8.428
36355SOL    HW210963   0.468   0.526   8.511
36356SOL     OW10964  12.597  11.594   9.248
36356SOL    HW110965  12.540  11.572   9.174
36356SOL    HW210966  12.684  11.603   9.208
36357SOL     OW10967   6.339   8.226  10.022
36357SOL    HW110968   6.365   8.206   9.932
36357SOL    HW210969   6.325   8.140  10.062
36358SOL     OW10970   8.890   7.661   2.663
36358SOL    HW110971   8.795   7.647   2.669
36358SOL    HW210972   8.910   7.647   2.570
36359SOL     OW10973  14.754   9.260  13.233
36359SOL    HW110974  14.752   9.256  13.138
36359SOL    HW210975  14.841   9.228  13.256
36360SOL     OW10976   3.916  12.598   2.622
36360SOL    HW110977   3.990  12.551   2.583
36360SOL    HW210978   3.843  12.583   2.562
36361SOL     OW10979  14.253   7.630  14.050
36361SOL    HW110980  14.306   7.593  13.980
36361SOL    HW210981  14.163   7.605  14.028
36362SOL     OW10982   6.031  13.870   3.395
36362SOL    HW110983   6.118  13.841   3.422
36362SOL    HW210984   6.045  13.957   3.358
36363SOL     OW10985  11.311   5.080   8.127
36363SOL    HW110986  11.314   5.088   8.032
36363SOL    HW210987  11.311   4.986   8.144
36364SOL     OW10988   6.798   4.844  14.355
36364SOL    HW110989   6.796   4.915  14.419
36364SOL    HW210990   6.790   4.887  14.270
36365SOL     OW10991  14.715   1.345  12.320
36365SOL    HW110992  14.767   1.291  12.259
36365SOL    HW210993  14.780   1.386  12.377
36366SOL     OW10994   0.116   4.044   4.864
36366SOL    HW110995   0.064   4.124   4.859
36366SOL    HW210996   0.051   3.975   4.880
36367SOL     OW10997   1.701   5.217   0.334
36367SOL    HW110998   1.759   5.274   0.385
36367SOL    HW210999   1.614   5.252   0.348
36368SOL     OW11000  10.452   4.787   5.342
36368SOL    HW111001  10.384   4.853   5.345
36368SOL    HW211002  10.405   4.704   5.342
36369SOL     OW11003  14.837   2.674   1.826
36369SOL    HW111004   0.014   2.609   1.773
36369SOL    HW211005  14.845   2.755   1.777
36370SOL     OW11006   2.391  11.223   0.681
36370SOL    HW111007   2.418  11.142   0.725
36370SOL    HW211008   2.319  11.256   0.733
36371SOL     OW11009   9.338   4.604   1.189
36371SOL    HW111010   9.311   4.514   1.171
36371SOL    HW211011   9.349   4.643   1.102
36372SOL     OW11012   0.334   5.541  10.827
36372SOL    HW111013   0.273   5.501  10.889
36372SOL    HW211014   0.369   5.617  10.875
36373SOL     OW11015   1.548   3.615  12.367
36373SOL    HW111016   1.619   3.666  12.328
36373SOL    HW211017   1.582   3.525  12.369
36374SOL     OW11018  10.555   0.247   9.727
36374SOL    HW111019  10.570   0.287   9.813
36374SOL    HW211020  10.508   0.166   9.746
36375SOL     OW11021   3.877   2.311  13.177
36375SOL    HW111022   3.891   2.237  13.117
36375SOL    HW211023   3.963   2.352  13.184
36376SOL     OW11024  14.631   3.180   8.662
36376SOL    HW111025  14.680   3.255   8.695
36376SOL    HW211026  14.539   3.201   8.680
36377SOL     OW11027  13.713   3.900  12.663
36377SOL    HW111028  13.750   3.857  12.740
36377SOL    HW211029  13.650   3.837  12.629
36378SOL     OW11030   2.472   6.135   8.049
36378SOL    HW111031   2.508   6.124   8.137
36378SOL    HW211032   2.522   6.075   7.995
36379SOL     OW11033   2.941   1.749   1.118
36379SOL    HW111034   2.920   1.733   1.210
36379SOL    HW211035   2.914   1.669   1.073
36380SOL     OW11036   2.791   1.969   3.817
36380SOL    HW111037   2.804   1.924   3.900
36380SOL    HW211038   2.726   2.037   3.835
36381SOL     OW11039  10.737  13.271  14.816
36381SOL    HW111040  10.742  13.260   0.041
36381SOL    HW211041  10.657  13.225  14.790
36382SOL     OW11042   7.289   3.425   8.711
36382SOL    HW111043   7.308   3.442   8.803
36382SOL    HW211044   7.364   3.375   8.680
36383SOL     OW11045  10.079   7.321   5.236
36383SOL    HW111046  10.038   7.392   5.286
36383SOL    HW211047  10.019   7.247   5.245
36384SOL     OW11048   6.705   1.927  13.896
36384SOL    HW111049   6.670   1.890  13.815
36384SOL    HW211050   6.789   1.883  13.908
36385SOL     OW11051   5.293  12.637  11.793
36385SOL    HW111052   5.226  12.687  11.839
36385SOL    HW211053   5.261  12.547  11.793
36386SOL     OW11054   7.285  14.429  14.205
36386SOL    HW111055   7.293  14.363  14.274
36386SOL    HW211056   7.259  14.509  14.252
36387SOL     OW11057   4.116   8.096   2.586
36387SOL    HW111058   4.126   8.026   2.651
36387SOL    HW211059   4.023   8.094   2.564
36388SOL     OW11060   1.071   5.267   3.274
36388SOL    HW111061   1.140   5.282   3.338
36388SOL    HW211062   1.000   5.226   3.324
36389SOL     OW11063   5.179   6.920  10.416
36389SOL    HW111064   5.112   6.851  10.424
36389SOL    HW211065   5.189   6.933  10.322
36390SOL     OW11066   5.465   3.229  11.182
36390SOL    HW111067   5.426   3.265  11.102
36390SOL    HW211068   5.403   3.163  11.211
36391SOL     OW11069  12.478   2.592   6.250
36391SOL    HW111070  12.462   2.499   6.264
36391SOL    HW211071  12.554   2.595   6.192
36392SOL     OW11072   4.697   2.257   8.172
36392SOL    HW111073   4.688   2.246   8.077
36392SOL    HW211074   4.661   2.177   8.209
36393SOL     OW11075   2.514  13.325   5.129
36393SOL    HW111076   2.471  13.254   5.176
36393SOL    HW211077   2.469  13.404   5.159
36394SOL     OW11078   1.021  14.557   8.170
36394SOL    HW111079   1.037  14.647   8.142
36394SOL    HW211080   0.941  14.531   8.124
36395SOL     OW11081  13.155   4.908  13.029
36395SOL    HW111082  13.231   4.851  13.044
36395SOL    HW211083  13.094   4.884  13.099
36396SOL     OW11084   9.856  11.637  13.832
36396SOL    HW111085   9.900  11.553  13.825
36396SOL    HW211086   9.848  11.652  13.927
36397SOL     OW11087   9.001  11.232   3.676
36397SOL    HW111088   8.952  11.161   3.635
36397SOL    HW211089   9.053  11.190   3.744
36398SOL     OW11090   0.753   9.798  14.367
36398SOL    HW111091   0.738   9.741  14.291
36398SOL    HW211092   0.743   9.740  14.443
36399SOL     OW11093  10.831  12.746  13.426
36399SOL    HW111094  10.838  12.838  13.453
36399SOL    HW211095  10.764  12.709  13.483
36400SOL     OW11096   5.022   8.767   8.594
36400SOL    HW111097   4.950   8.823   8.625
36400SOL    HW211098   5.094   8.828   8.579
36401SOL     OW11099  10.074  10.828   7.118
36401SOL    HW111100  10.094  10.865   7.032
36401SOL    HW211101  10.140  10.865   7.176
36402SOL     OW11102  13.387   8.539   0.022
36402SOL    HW111103  13.335   8.459   0.032
36402SOL    HW211104  13.461   8.528   0.082
36403SOL     OW11105   7.427  12.977   5.394
36403SOL    HW111106   7.465  12.913   5.453
36403SOL    HW211107   7.420  12.932   5.310
36404SOL     OW11108   9.297   1.537  10.989
36404SOL    HW111109   9.290   1.507  11.079
36404SOL    HW211110   9.223   1.598  10.978
36405SOL     OW11111  10.840   2.820   6.057
36405SOL    HW111112  10.832   2.914   6.071
36405SOL    HW211113  10.788   2.802   5.979
36406SOL     OW11114   1.716  13.534   0.822
36406SOL    HW111115   1.722  13.451   0.869
36406SOL    HW211116   1.789  13.586   0.856
36407SOL     OW11117   8.469  10.502   0.989
36407SOL    HW111118   8.374  10.494   0.979
36407SOL    HW211119   8.481  10.529   1.080
36408SOL     OW11120   3.629  11.326   1.266
36408SOL    HW111121   3.539  11.309   1.296
36408SOL    HW211122   3.625  11.415   1.230
36409SOL     OW11123   8.888   0.761   1.551
36409SOL    HW111124   8.934   0.844   1.539
36409SOL    HW211125   8.859   0.763   1.642
36410SOL     OW11126   2.984   6.408   4.124
36410SOL    HW111127   2.896   6.370   4.122
36410SOL    HW211128   2.980   6.474   4.193
36411SOL     OW11129   0.057  12.433  10.524
36411SOL    HW111130   0.021  12.499  10.465
36411SOL    HW211131   0.106  12.374  10.467
36412SOL     OW11132   9.450  13.957   8.019
36412SOL    HW111133   9.415  13.952   8.108
36412SOL    HW211134   9.512  13.885   8.014
36413SOL     OW11135   5.507   1.271  11.913
36413SOL    HW111136   5.501   1.178  11.937
36413SOL    HW211137   5.430   1.285  11.857
36414SOL     OW11138  12.039   3.083   7.968
36414SOL    HW111139  12.019   3.007   7.913
36414SOL    HW211140  12.044   3.156   7.907
36415SOL     OW11141  13.360   8.647  14.665
36415SOL    HW111142  13.370   8.616  14.755
36415SOL    HW211143  13.410   8.729  14.662
36416SOL     OW11144  10.407   1.082  13.177
36416SOL    HW111145  10.409   1.157  13.235
36416SOL    HW211146  10.498   1.068  13.152
36417SOL     OW11147   6.379   5.791   3.536
36417SOL    HW111148   6.325   5.848   3.481
36417SOL    HW211149   6.449   5.848   3.567
36418SOL     OW11150  13.099   0.098  12.708
36418SOL    HW111151  13.195   0.094  12.702
36418SOL    HW211152  13.077   0.186  12.679
36419SOL     OW11153   0.441   9.662   8.584
36419SOL    HW111154   0.432   9.653   8.490
36419SOL    HW211155   0.534   9.647   8.601
36420SOL     OW11156   7.842  13.217  14.312
36420SOL    HW111157   7.917  13.231  14.370
36420SOL    HW211158   7.776  13.279  14.344
36421SOL     OW11159  12.878   1.337   3.544
36421SOL    HW111160  12.916   1.408   3.493
36421SOL    HW211161  12.942   1.321   3.614
36422SOL     OW11162   1.302   3.175   0.681
36422SOL    HW111163   1.347   3.177   0.766
36422SOL    HW211164   1.277   3.266   0.665
36423SOL     OW11165   6.742  10.103  11.195
36423SOL    HW111166   6.827  10.087  11.155
36423SOL    HW211167   6.748  10.192  11.230
36424SOL     OW11168  10.506   9.320   5.134
36424SOL    HW111169  10.448   9.397   5.133
36424SOL    HW211170  10.453   9.250   5.096
36425SOL     OW11171  12.754  14.846   1.735
36425SOL    HW111172  12.769   0.070   1.718
36425SOL    HW211173  12.670  14.828   1.693
36426SOL     OW11174   5.512   9.211  10.320
36426SOL    HW111175   5.458   9.169  10.387
36426SOL    HW211176   5.506   9.153  10.244
36427SOL     OW11177   0.056  14.247   9.566
36427SOL    HW111178   0.049  14.153   9.547
36427SOL    HW211179  14.868  14.288   9.501
36428SOL     OW11180   1.478   3.014   9.491
36428SOL    HW111181   1.430   3.095   9.512
36428SOL    HW211182   1.414   2.944   9.502
36429SOL     OW11183  13.546   2.024   4.893
36429SOL    HW111184  13.549   2.119   4.906
36429SOL    HW211185  13.622   1.991   4.940
36430SOL     OW11186  14.849  10.167   7.300
36430SOL    HW111187   0.014  10.245   7.342
36430SOL    HW211188   0.001  10.178   7.208
36431SOL     OW11189  10.614   0.543   8.393
36431SOL    HW111190  10.567   0.618   8.430
36431SOL    HW211191  10.597   0.548   8.299
36432SOL     OW11192  10.187  10.727   9.370
36432SOL    HW111193  10.242  10.680   9.307
36432SOL    HW211194  10.160  10.660   9.433
36433SOL     OW11195  10.003   0.573   9.219
36433SOL    HW111196   9.930   0.536   9.270
36433SOL    HW211197  10.011   0.663   9.251
36434SOL     OW11198   8.138   0.820  14.107
36434SOL    HW111199   8.053   0.819  14.151
36434SOL    HW211200   8.146   0.733  14.069
36435SOL     OW11201   7.832  12.216  11.386
36435SOL    HW111202   7.858  12.305  11.359
36435SOL    HW211203   7.750  12.229  11.434
36436SOL     OW11204  12.917  14.161  11.974
36436SOL    HW111205  12.841  14.189  12.025
36436SOL    HW211206  12.886  14.160  11.884
36437SOL     OW11207  14.161   8.374   4.447
36437SOL    HW111208  14.152   8.463   4.482
36437SOL    HW211209  14.252   8.370   4.417
36438SOL     OW11210  14.103  13.867  11.923
36438SOL    HW111211  14.188  13.890  11.886
36438SOL    HW211212  14.040  13.913  11.868
36439SOL     OW11213   1.805   4.461   8.242
36439SOL    HW111214   1.716   4.463   8.279
36439SOL    HW211215   1.794   4.428   8.153
36440SOL     OW11216   8.826   5.501   6.023
36440SOL    HW111217   8.837   5.516   5.930
36440SOL    HW211218   8.785   5.582   6.056
36441SOL     OW11219   5.191   9.724   0.004
36441SOL    HW111220   5.204   9.682  14.788
36441SOL    HW211221   5.128   9.668   0.049
36442SOL     OW11222   8.580   4.536   5.071
36442SOL    HW111223   8.656   4.594   5.080
36442SOL    HW211224   8.607   4.454   5.112
36443SOL     OW11225   1.401  10.014  13.126
36443SOL    HW111226   1.307  10.027  13.141
36443SOL    HW211227   1.421   9.931  13.171
36444SOL     OW11228  11.820   2.589   7.856
36444SOL    HW111229  11.773   2.638   7.924
36444SOL    HW211230  11.833   2.502   7.893
36445SOL     OW11231   1.498   9.049   7.826
36445SOL    HW111232   1.542   9.121   7.871
36445SOL    HW211233   1.497   9.074   7.734
36446SOL     OW11234   0.460   5.218   4.425
36446SOL    HW111235   0.403   5.287   4.391
36446SOL    HW211236   0.549   5.250   4.409
36447SOL     OW11237   0.707   8.443   4.226
36447SOL    HW111238   0.795   8.428   4.191
36447SOL    HW211239   0.715   8.430   4.320
36448SOL     OW11240  13.785   4.755   3.586
36448SOL    HW111241  13.753   4.717   3.504
36448SOL    HW211242  13.868   4.797   3.562
36449SOL     OW11243  14.669   0.645  11.342
36449SOL    HW111244  14.748   0.591  11.345
36449SOL    HW211245  14.630   0.626  11.257
36450SOL     OW11246   3.592   1.753   8.829
36450SOL    HW111247   3.554   1.819   8.887
36450SOL    HW211248   3.634   1.691   8.888
36451SOL     OW11249   4.265   3.306  11.310
36451SOL    HW111250   4.181   3.320  11.352
36451SOL    HW211251   4.328   3.352  11.366
36452SOL     OW11252   5.030   2.508  14.661
36452SOL    HW111253   5.109   2.544  14.701
36452SOL    HW211254   4.991   2.581  14.613
36453SOL     OW11255  12.330  11.269   4.870
36453SOL    HW111256  12.314  11.197   4.931
36453SOL    HW211257  12.259  11.331   4.887
36454SOL     OW11258  10.696   6.216  13.467
36454SOL    HW111259  10.711   6.141  13.524
36454SOL    HW211260  10.644   6.180  13.394
36455SOL     OW11261  11.839   2.010   4.071
36455SOL    HW111262  11.788   2.072   4.019
36455SOL    HW211263  11.890   2.066   4.130
36456SOL     OW11264   8.567  11.477  13.205
36456SOL    HW111265   8.583  11.469  13.299
36456SOL    HW211266   8.515  11.557  13.196
36457SOL     OW11267   7.074   4.927   1.640
36457SOL    HW111268   7.087   4.832   1.638
36457SOL    HW211269   7.018   4.942   1.717
36458SOL     OW11270   5.658  14.034  14.399
36458SOL    HW111271   5.642  14.048  14.492
36458SOL    HW211272   5.741  13.985  14.396
36459SOL     OW11273   2.994   4.274  13.584
36459SOL    HW111274   3.082   4.262  13.620
36459SOL    HW211275   2.936   4.233  13.648
36460SOL     OW11276   9.667   9.691   6.875
36460SOL    HW111277   9.609   9.713   6.948
36460SOL    HW211278   9.709   9.610   6.902
36461SOL     OW11279   1.997   3.864  10.739
36461SOL    HW111280   1.939   3.858  10.663
36461SOL    HW211281   1.970   3.790  10.794
36462SOL     OW11282  11.617   3.187   1.876
36462SOL    HW111283  11.607   3.096   1.907
36462SOL    HW211284  11.711   3.205   1.885
36463SOL     OW11285   2.117  10.083   1.901
36463SOL    HW111286   2.110  10.002   1.850
36463SOL    HW211287   2.029  10.097   1.936
36464SOL     OW11288  11.726   2.816  10.455
36464SOL    HW111289  11.813   2.788  10.426
36464SOL    HW211290  11.673   2.816  10.375
36465SOL     OW11291  10.695   4.401   5.376
36465SOL    HW111292  10.759   4.332   5.394
36465SOL    HW211293  10.725   4.477   5.426
36466SOL     OW11294  12.339   1.686   7.072
36466SOL    HW111295  12.391   1.765   7.088
36466SOL    HW211296  12.285   1.707   6.996
36467SOL     OW11297  13.188   2.896   0.711
36467SOL    HW111298  13.148   2.895   0.624
36467SOL    HW211299  13.263   2.836   0.704
36468SOL     OW11300   4.559   7.550   0.189
36468SOL    HW111301   4.587   7.627   0.239
36468SOL    HW211302   4.632   7.533   0.129
36469SOL     OW11303   2.663  14.426  11.516
36469SOL    HW111304   2.696  14.437  11.605
36469SOL    HW211305   2.619  14.340  11.517
36470SOL     OW11306   9.521   6.389   9.815
36470SOL    HW111307   9.540   6.320   9.752
36470SOL    HW211308   9.570   6.365   9.893
36471SOL     OW11309   7.849   1.300  13.574
36471SOL    HW111310   7.882   1.214  13.603
36471SOL    HW211311   7.908   1.363  13.614
36472SOL     OW11312   6.680   8.401  14.656
36472SOL    HW111313   6.671   8.307  14.670
36472SOL    HW211314   6.593   8.437  14.676
36473SOL     OW11315  11.564   4.446   3.202
36473SOL    HW111316  11.567   4.401   3.286
36473SOL    HW211317  11.508   4.523   3.218
36474SOL     OW11318   8.388  11.045  10.164
36474SOL    HW111319   8.302  11.084  10.143
36474SOL    HW211320   8.409  11.080  10.250
36475SOL     OW11321   0.156   9.134  11.373
36475SOL    HW111322   0.230   9.073  11.377
36475SOL    HW211323   0.194   9.214  11.335
36476SOL     OW11324   2.217   6.447   5.535
36476SOL    HW111325   2.204   6.390   5.459
36476SOL    HW211326   2.299   6.493   5.516
36477SOL     OW11327   9.591  11.920   8.572
36477SOL    HW111328   9.625  11.834   8.597
36477SOL    HW211329   9.653  11.982   8.610
36478SOL     OW11330   2.102   7.389   8.820
36478SOL    HW111331   2.120   7.433   8.737
36478SOL    HW211332   2.007   7.396   8.831
36479SOL     OW11333   1.829   5.291   2.988
36479SOL    HW111334   1.893   5.355   3.020
36479SOL    HW211335   1.880   5.232   2.933
36480SOL     OW11336   7.720   6.668  10.464
36480SOL    HW111337   7.755   6.700  10.381
36480SOL    HW211338   7.773   6.711  10.531
36481SOL     OW11339  14.715   1.566   5.768
36481SOL    HW111340  14.719   1.488   5.823
36481SOL    HW211341  14.622   1.586   5.761
36482SOL     OW11342  11.768   7.424  13.488
36482SOL    HW111343  11.719   7.348  13.457
36482SOL    HW211344  11.700   7.488  13.510
36483SOL     OW11345   2.226   7.082   8.562
36483SOL    HW111346   2.306   7.095   8.612
36483SOL    HW211347   2.159   7.062   8.628
36484SOL     OW11348   3.996  13.374   7.301
36484SOL    HW111349   4.082  13.337   7.284
36484SOL    HW211350   3.987  13.445   7.239
36485SOL     OW11351  12.577   0.733  10.696
36485SOL    HW111352  12.482   0.725  10.698
36485SOL    HW211353  12.602   0.755  10.786
36486SOL     OW11354   6.542   5.265  10.096
36486SOL    HW111355   6.530   5.346  10.145
36486SOL    HW211356   6.492   5.277  10.016
36487SOL     OW11357   6.489  13.296   3.053
36487SOL    HW111358   6.518  13.370   3.106
36487SOL    HW211359   6.510  13.320   2.963
36488SOL     OW11360  11.173  11.156   7.168
36488SOL    HW111361  11.171  11.063   7.144
36488SOL    HW211362  11.130  11.159   7.253
36489SOL     OW11363   0.069   1.282   1.109
36489SOL    HW111364   0.077   1.186   1.110
36489SOL    HW211365   0.013   1.301   1.185
36490SOL     OW11366   1.895   9.513  10.521
36490SOL    HW111367   1.906   9.426  10.482
36490SOL    HW211368   1.907   9.498  10.615
36491SOL     OW11369   0.093  14.142  11.093
36491SOL    HW111370   0.026  14.210  11.093
36491SOL    HW211371   0.094  14.110  11.183
36492SOL     OW11372   2.875   9.669  13.777
36492SOL    HW111373   2.873   9.589  13.831
36492SOL    HW211374   2.961   9.707  13.795
36493SOL     OW11375   5.797   2.157  13.450
36493SOL    HW111376   5.850   2.234  13.432
36493SOL    HW211377   5.726   2.162  13.385
36494SOL     OW11378   1.328  10.604  10.562
36494SOL    HW111379   1.313  10.685  10.514
36494SOL    HW211380   1.243  10.560  10.560
36495SOL     OW11381   7.991   8.136   2.064
36495SOL    HW111382   8.003   8.169   2.153
36495SOL    HW211383   8.003   8.041   2.071
36496SOL     OW11384   7.645  12.468  11.376
36496SOL    HW111385   7.675  12.545  11.425
36496SOL    HW211386   7.561  12.446  11.417
36497SOL     OW11387  12.317   8.856   0.675
36497SOL    HW111388  12.288   8.794   0.742
36497SOL    HW211389  12.326   8.803   0.595
36498SOL     OW11390   5.743   5.020  13.181
36498SOL    HW111391   5.726   5.029  13.087
36498SOL    HW211392   5.667   4.973  13.214
36499SOL     OW11393  11.742  10.030   6.241
36499SOL    HW111394  11.652  10.029   6.272
36499SOL    HW211395  11.749  10.112   6.192
36500SOL     OW11396   8.460   2.897   6.631
36500SOL    HW111397   8.447   2.958   6.558
36500SOL    HW211398   8.461   2.811   6.590
36501SOL     OW11399   2.897  12.740   0.885
36501SOL    HW111400   2.873  12.805   0.819
36501SOL    HW211401   2.814  12.697   0.906
36502SOL     OW11402   8.212  10.893   6.277
36502SOL    HW111403   8.259  10.970   6.244
36502SOL    HW211404   8.277  10.846   6.329
36503SOL     OW11405   2.367   5.713   7.991
36503SOL    HW111406   2.451   5.759   7.988
36503SOL    HW211407   2.336   5.726   8.080
36504SOL     OW11408   0.550   3.072  13.239
36504SOL    HW111409   0.596   3.064  13.156
36504SOL    HW211410   0.606   3.127  13.293
36505SOL     OW11411   8.491   0.919  11.403
36505SOL    HW111412   8.537   0.851  11.452
36505SOL    HW211413   8.558   0.957  11.346
36506SOL     OW11414  12.945   2.035   6.913
36506SOL    HW111415  12.919   1.973   6.980
36506SOL    HW211416  12.864   2.058   6.868
36507SOL     OW11417   2.141   5.321   4.514
36507SOL    HW111418   2.099   5.279   4.439
36507SOL    HW211419   2.069   5.364   4.560
36508SOL     OW11420   8.906   0.006   3.650
36508SOL    HW111421   8.977   0.001   3.713
36508SOL    HW211422   8.829   0.027   3.703
36509SOL     OW11423   8.701  13.644  10.415
36509SOL    HW111424   8.656  13.666  10.333
36509SOL    HW211425   8.753  13.567  10.394
36510SOL     OW11426   3.941   6.712   7.885
36510SOL    HW111427   3.849   6.729   7.905
36510SOL    HW211428   3.951   6.734   7.792
36511SOL     OW11429   4.581  10.901   2.450
36511SOL    HW111430   4.520  10.863   2.513
36511SOL    HW211431   4.667  10.879   2.485
36512SOL     OW11432   7.158  10.277  14.142
36512SOL    HW111433   7.144  10.189  14.107
36512SOL    HW211434   7.211  10.322  14.075
36513SOL     OW11435  11.085   0.460  11.106
36513SOL    HW111436  11.116   0.371  11.088
36513SOL    HW211437  11.036   0.485  11.027
36514SOL     OW11438  12.242  11.878   3.911
36514SOL    HW111439  12.278  11.851   3.995
36514SOL    HW211440  12.272  11.811   3.849
36515SOL     OW11441  13.376   7.605  13.266
36515SOL    HW111442  13.436   7.546  13.220
36515SOL    HW211443  13.290   7.564  13.254
36516SOL     OW11444  12.052   0.658   7.557
36516SOL    HW111445  12.004   0.732   7.594
36516SOL    HW211446  12.069   0.684   7.466
36517SOL     OW11447   4.375   3.365  13.778
36517SOL    HW111448   4.332   3.280  13.791
36517SOL    HW211449   4.461   3.342  13.743
36518SOL     OW11450  12.427   5.268   8.532
36518SOL    HW111451  12.366   5.194   8.533
36518SOL    HW211452  12.513   5.228   8.523
36519SOL     OW11453   8.201  12.526   8.250
36519SOL    HW111454   8.211  12.445   8.201
36519SOL    HW211455   8.247  12.592   8.197
36520SOL     OW11456   5.064  13.842   7.960
36520SOL    HW111457   5.153  13.867   7.984
36520SOL    HW211458   5.014  13.848   8.042
36521SOL     OW11459   8.938   6.800   0.411
36521SOL    HW111460   8.876   6.729   0.428
36521SOL    HW211461   8.883   6.878   0.404
36522SOL     OW11462  13.622   6.333   4.911
36522SOL    HW111463  13.681   6.281   4.965
36522SOL    HW211464  13.554   6.272   4.884
36523SOL     OW11465   6.875   5.325   4.336
36523SOL    HW111466   6.922   5.292   4.260
36523SOL    HW211467   6.842   5.411   4.308
36524SOL     OW11468   6.586   3.311   9.151
36524SOL    HW111469   6.670   3.337   9.114
36524SOL    HW211470   6.608   3.246   9.218
36525SOL     OW11471   9.280   1.922   6.529
36525SOL    HW111472   9.241   1.882   6.606
36525SOL    HW211473   9.225   1.997   6.510
36526SOL     OW11474   0.001   3.682   4.545
36526SOL    HW111475  14.776   3.672   4.535
36526SOL    HW211476   0.031   3.713   4.460
36527SOL     OW11477   8.845   7.170  11.430
36527SOL    HW111478   8.822   7.263  11.435
36527SOL    HW211479   8.761   7.125  11.426
36528SOL     OW11480  11.077   7.251  12.652
36528SOL    HW111481  11.074   7.156  12.663
36528SOL    HW211482  11.066   7.265  12.558
36529SOL     OW11483  11.740   9.488   7.137
36529SOL    HW111484  11.740   9.543   7.059
36529SOL    HW211485  11.739   9.550   7.210
36530SOL     OW11486  13.087   2.345   3.262
36530SOL    HW111487  13.166   2.305   3.298
36530SOL    HW211488  13.050   2.395   3.335
36531SOL     OW11489  12.006   1.167   6.288
36531SOL    HW111490  12.080   1.116   6.321
36531SOL    HW211491  12.006   1.151   6.193
36532SOL     OW11492   6.171   5.308  11.854
36532SOL    HW111493   6.084   5.278  11.882
36532SOL    HW211494   6.156   5.347  11.768
36533SOL     OW11495   1.905   1.557  12.504
36533SOL    HW111496   1.917   1.610  12.425
36533SOL    HW211497   1.950   1.605  12.573
36534SOL     OW11498   7.585  13.656  11.884
36534SOL    HW111499   7.609  13.670  11.976
36534SOL    HW211500   7.548  13.567  11.882
36535SOL     OW11501   2.030   6.296  13.952
36535SOL    HW111502   1.975   6.335  13.884
36535SOL    HW211503   2.099   6.251  13.904
36536SOL     OW11504   7.516   6.708   9.231
36536SOL    HW111505   7.590   6.700   9.172
36536SOL    HW211506   7.448   6.752   9.179
36537SOL     OW11507   8.011   7.857   7.806
36537SOL    HW111508   7.933   7.830   7.757
36537SOL    HW211509   8.039   7.779   7.853
36538SOL     OW11510   2.882   9.340   8.007
36538SOL    HW111511   2.962   9.359   7.958
36538SOL    HW211512   2.889   9.247   8.030
36539SOL     OW11513   5.592   6.859   0.643
36539SOL    HW111514   5.627   6.899   0.564
36539SOL    HW211515   5.498   6.873   0.638
36540SOL     OW11516  13.103   8.784   5.090
36540SOL    HW111517  13.104   8.805   5.184
36540SOL    HW211518  13.088   8.868   5.047
36541SOL     OW11519   2.324   6.857   4.881
36541SOL    HW111520   2.327   6.829   4.790
36541SOL    HW211521   2.264   6.795   4.923
36542SOL     OW11522  14.318   1.409  12.555
36542SOL    HW111523  14.322   1.371  12.643
36542SOL    HW211524  14.370   1.349  12.502
36543SOL     OW11525  11.091   3.099   4.199
36543SOL    HW111526  11.153   3.150   4.252
36543SOL    HW211527  11.076   3.153   4.121
36544SOL     OW11528   1.514  11.387   6.205
36544SOL    HW111529   1.562  11.370   6.286
36544SOL    HW211530   1.446  11.449   6.229
36545SOL     OW11531   0.720  11.876  12.061
36545SOL    HW111532   0.658  11.913  12.124
36545SOL    HW211533   0.793  11.846  12.115
36546SOL     OW11534   5.220   4.385   5.436
36546SOL    HW111535   5.214   4.476   5.466
36546SOL    HW211536   5.138   4.370   5.389
36547SOL     OW11537  14.630   4.064   5.798
36547SOL    HW111538  14.577   4.143   5.785
36547SOL    HW211539  14.633   4.023   5.712
36548SOL     OW11540   9.557  14.627   3.778
36548SOL    HW111541   9.476  14.605   3.823
36548SOL    HW211542   9.600  14.543   3.763
36549SOL     OW11543   6.737   4.002   8.433
36549SOL    HW111544   6.804   4.042   8.489
36549SOL    HW211545   6.765   4.022   8.344
36550SOL     OW11546   2.181   3.831   7.176
36550SOL    HW111547   2.225   3.908   7.140
36550SOL    HW211548   2.251   3.779   7.217
36551SOL     OW11549   8.216  13.935  10.991
36551SOL    HW111550   8.175  13.848  10.996
36551SOL    HW211551   8.178  13.983  11.065
36552SOL     OW11552   2.785   5.413   3.509
36552SOL    HW111553   2.751   5.324   3.518
36552SOL    HW211554   2.722   5.467   3.557
36553SOL     OW11555   7.101   1.096  10.491
36553SOL    HW111556   7.177   1.066  10.540
36553SOL    HW211557   7.031   1.102  10.555
36554SOL     OW11558   0.207   6.981  12.207
36554SOL    HW111559   0.250   6.932  12.138
36554SOL    HW211560   0.166   7.055  12.162
36555SOL     OW11561   8.663  13.488   2.051
36555SOL    HW111562   8.681  13.482   2.145
36555SOL    HW211563   8.737  13.538   2.016
36556SOL     OW11564   1.889   4.204   6.493
36556SOL    HW111565   1.797   4.222   6.472
36556SOL    HW211566   1.910   4.127   6.439
36557SOL     OW11567   6.846  11.014  12.710
36557SOL    HW111568   6.895  10.935  12.687
36557SOL    HW211569   6.848  11.067  12.630
36558SOL     OW11570   5.606   5.595  11.792
36558SOL    HW111571   5.643   5.683  11.790
36558SOL    HW211572   5.590   5.574  11.700
36559SOL     OW11573   2.350   3.542   5.639
36559SOL    HW111574   2.361   3.508   5.728
36559SOL    HW211575   2.401   3.483   5.584
36560SOL     OW11576   9.038   0.070   4.877
36560SOL    HW111577   9.091   0.132   4.827
36560SOL    HW211578   8.991   0.124   4.941
36561SOL     OW11579  14.459   1.255  12.385
36561SOL    HW111580  14.467   1.176  12.331
36561SOL    HW211581  14.546   1.295  12.382
36562SOL     OW11582   6.346  14.338   4.269
36562SOL    HW111583   6.384  14.308   4.352
36562SOL    HW211584   6.412  14.397   4.233
36563SOL     OW11585   3.849   4.951  13.369
36563SOL    HW111586   3.771   5.000  13.344
36563SOL    HW211587   3.840   4.937  13.463
36564SOL     OW11588   3.715   0.607   2.437
36564SOL    HW111589   3.684   0.604   2.528
36564SOL    HW211590   3.810   0.593   2.444
36565SOL     OW11591  12.227   3.892   7.956
36565SOL    HW111592  12.319   3.911   7.937
36565SOL    HW211593  12.187   3.880   7.871
36566SOL     OW11594   5.324  12.332  14.491
36566SOL    HW111595   5.297  12.411  14.446
36566SOL    HW211596   5.247  12.304  14.541
36567SOL     OW11597  13.855  13.362   2.730
36567SOL    HW111598  13.859  13.297   2.801
36567SOL    HW211599  13.944  13.366   2.696
36568SOL     OW11600  14.532   9.804   7.761
36568SOL    HW111601  14.524   9.891   7.722
36568SOL    HW211602  14.611   9.809   7.815
36569SOL     OW11603   1.377   3.334   8.761
36569SOL    HW111604   1.464   3.299   8.745
36569SOL    HW211605   1.391   3.423   8.793
36570SOL     OW11606   4.314   6.075  10.396
36570SOL    HW111607   4.408   6.086  10.382
36570SOL    HW211608   4.287   6.152  10.446
36571SOL     OW11609   5.225   5.647   1.199
36571SOL    HW111610   5.307   5.603   1.177
36571SOL    HW211611   5.157   5.583   1.180
36572SOL     OW11612  12.083   7.753   6.290
36572SOL    HW111613  11.998   7.712   6.310
36572SOL    HW211614  12.138   7.728   6.364
36573SOL     OW11615   0.197  10.240   3.723
36573SOL    HW111616   0.287  10.261   3.697
36573SOL    HW211617   0.203  10.155   3.766
36574SOL     OW11618  14.534   6.849   2.646
36574SOL    HW111619  14.444   6.863   2.616
36574SOL    HW211620  14.586   6.915   2.600
36575SOL     OW11621   1.364   2.280   1.381
36575SOL    HW111622   1.443   2.305   1.429
36575SOL    HW211623   1.391   2.280   1.289
36576SOL     OW11624  11.764  10.777  10.437
36576SOL    HW111625  11.851  10.735  10.440
36576SOL    HW211626  11.776  10.859  10.485
36577SOL     OW11627  11.928   6.198  13.605
36577SOL    HW111628  11.941   6.130  13.671
36577SOL    HW211629  11.915   6.279  13.655
36578SOL     OW11630   4.981   9.131   8.647
36578SOL    HW111631   4.926   9.055   8.664
36578SOL    HW211632   4.933   9.204   8.686
36579SOL     OW11633  11.269   7.039   5.111
36579SOL    HW111634  11.275   7.060   5.204
36579SOL    HW211635  11.228   6.953   5.109
36580SOL     OW11636   7.872   2.587  12.186
36580SOL    HW111637   7.799   2.604  12.127
36580SOL    HW211638   7.946   2.569  12.128
36581SOL     OW11639   3.811  14.271   2.324
36581SOL    HW111640   3.754  14.348   2.327
36581SOL    HW211641   3.750  14.197   2.317
36582SOL     OW11642   1.536  10.876  14.334
36582SOL    HW111643   1.592  10.809  14.295
36582SOL    HW211644   1.581  10.900  14.415
36583SOL     OW11645   9.862   4.345   2.998
36583SOL    HW111646   9.944   4.353   2.949
36583SOL    HW211647   9.794   4.345   2.931
36584SOL     OW11648   5.431  14.809   3.231
36584SOL    HW111649   5.417  14.733   3.175
36584SOL    HW211650   5.472   0.004   3.174
36585SOL     OW11651  12.703  13.734   2.238
36585SOL    HW111652  12.784  13.753   2.285
36585SOL    HW211653  12.634  13.757   2.300
36586SOL     OW11654  12.516   4.852   6.673
36586SOL    HW111655  12.545   4.943   6.680
36586SOL    HW211656  12.586   4.801   6.714
36587SOL     OW11657  14.767  11.386   3.822
36587SOL    HW111658  14.700  11.353   3.764
36587SOL    HW211659  14.719  11.428   3.894
36588SOL     OW11660  14.506   6.646  14.465
36588SOL    HW111661  14.531   6.573  14.522
36588SOL    HW211662  14.536   6.619  14.378
36589SOL     OW11663   8.950   3.467   6.006
36589SOL    HW111664   8.988   3.407   6.070
36589SOL    HW211665   8.910   3.536   6.058
36590SOL     OW11666  12.672   5.837   7.244
36590SOL    HW111667  12.631   5.864   7.163
36590SOL    HW211668  12.714   5.916   7.278
36591SOL     OW11669   3.899   7.910   9.569
36591SOL    HW111670   3.825   7.960   9.602
36591SOL    HW211671   3.912   7.943   9.480
36592SOL     OW11672  13.415   9.193  13.844
36592SOL    HW111673  13.419   9.208  13.750
36592SOL    HW211674  13.360   9.264  13.877
36593SOL     OW11675  13.744  11.484   7.919
36593SOL    HW111676  13.658  11.456   7.950
36593SOL    HW211677  13.802  11.410   7.939
36594SOL     OW11678  13.188  13.837   2.556
36594SOL    HW111679  13.223  13.864   2.471
36594SOL    HW211680  13.234  13.892   2.619
36595SOL     OW11681   8.294   9.687  13.597
36595SOL    HW111682   8.221   9.747  13.584
36595SOL    HW211683   8.341   9.687  13.514
36596SOL     OW11684   1.776   2.475   7.323
36596SOL    HW111685   1.807   2.479   7.232
36596SOL    HW211686   1.825   2.544   7.368
36597SOL     OW11687  11.635   1.196  11.443
36597SOL    HW111688  11.689   1.213  11.521
36597SOL    HW211689  11.676   1.248  11.374
36598SOL     OW11690  14.195   5.589   7.242
36598SOL    HW111691  14.139   5.646   7.189
36598SOL    HW211692  14.189   5.503   7.199
36599SOL     OW11693   3.452   8.238   3.482
36599SOL    HW111694   3.536   8.283   3.479
36599SOL    HW211695   3.395   8.297   3.531
36600SOL     OW11696   5.448   7.717   9.002
36600SOL    HW111697   5.455   7.688   8.911
36600SOL    HW211698   5.373   7.669   9.037
36601SOL     OW11699   3.827   4.294  12.716
36601SOL    HW111700   3.829   4.198  12.726
36601SOL    HW211701   3.843   4.327  12.804
36602SOL     OW11702   2.288   2.917   5.792
36602SOL    HW111703   2.265   2.866   5.714
36602SOL    HW211704   2.377   2.947   5.775
36603SOL     OW11705   3.156   2.964   0.439
36603SOL    HW111706   3.245   2.930   0.427
36603SOL    HW211707   3.108   2.931   0.363
36604SOL     OW11708   3.935   0.666   7.842
36604SOL    HW111709   4.016   0.710   7.816
36604SOL    HW211710   3.948   0.646   7.935
36605SOL     OW11711   2.055   5.547   7.753
36605SOL    HW111712   1.988   5.599   7.797
36605SOL    HW211713   2.069   5.472   7.811
36606SOL     OW11714  12.463   0.751   1.483
36606SOL    HW111715  12.543   0.795   1.455
36606SOL    HW211716  12.392   0.802   1.445
36607SOL     OW11717   8.315   5.003   2.270
36607SOL    HW111718   8.351   5.092   2.266
36607SOL    HW211719   8.256   5.004   2.345
36608SOL     OW11720  13.103  13.075  12.465
36608SOL    HW111721  13.122  12.992  12.422
36608SOL    HW211722  13.189  13.110  12.489
36609SOL     OW11723   4.811   1.445   1.720
36609SOL    HW111724   4.858   1.527   1.709
36609SOL    HW211725   4.843   1.410   1.803
36610SOL     OW11726   3.201   7.156  13.234
36610SOL    HW111727   3.226   7.204  13.155
36610SOL    HW211728   3.241   7.206  13.306
36611SOL     OW11729  14.066   0.632   1.659
36611SOL    HW111730  14.079   0.670   1.572
36611SOL    HW211731  13.971   0.634   1.672
36612SOL     OW11732  12.642   6.204   1.301
36612SOL    HW111733  12.650   6.190   1.207
36612SOL    HW211734  12.702   6.277   1.319
36613SOL     OW11735   9.557   0.471  11.749
36613SOL    HW111736   9.616   0.545  11.764
36613SOL    HW211737   9.613   0.394  11.756
36614SOL     OW11738   9.102   9.431   8.012
36614SOL    HW111739   9.044   9.507   8.021
36614SOL    HW211740   9.145   9.444   7.927
36615SOL     OW11741   0.356   6.734  14.094
36615SOL    HW111742   0.442   6.718  14.055
36615SOL    HW211743   0.373   6.744  14.187
36616SOL     OW11744   0.455   1.611  10.430
36616SOL    HW111745   0.370   1.579  10.459
36616SOL    HW211746   0.465   1.577  10.341
36617SOL     OW11747   8.147   5.756   5.036
36617SOL    HW111748   8.217   5.733   4.975
36617SOL    HW211749   8.107   5.835   4.999
36618SOL     OW11750   4.669   3.659   0.119
36618SOL    HW111751   4.604   3.596   0.151
36618SOL    HW211752   4.620   3.741   0.108
36619SOL     OW11753  12.336   5.271   7.061
36619SOL    HW111754  12.403   5.266   6.993
36619SOL    HW211755  12.286   5.189   7.051
36620SOL     OW11756   1.807   7.709   7.568
36620SOL    HW111757   1.883   7.767   7.572
36620SOL    HW211758   1.737   7.758   7.611
36621SOL     OW11759   5.055  14.643  12.300
36621SOL    HW111760   5.049  14.724  12.249
36621SOL    HW211761   5.142  14.609  12.280
36622SOL     OW11762   2.804  13.209  10.513
36622SOL    HW111763   2.871  13.271  10.542
36622SOL    HW211764   2.849  13.124  10.511
36623SOL     OW11765   6.803   8.648  13.525
36623SOL    HW111766   6.883   8.597  13.531
36623SOL    HW211767   6.765   8.623  13.441
36624SOL     OW11768   8.356   3.811  11.629
36624SOL    HW111769   8.266   3.810  11.661
36624SOL    HW211770   8.357   3.747  11.558
36625SOL     OW11771  11.422  11.636   8.698
36625SOL    HW111772  11.405  11.589   8.616
36625SOL    HW211773  11.492  11.698   8.675
36626SOL     OW11774   0.757   0.769   3.423
36626SOL    HW111775   0.792   0.845   3.377
36626SOL    HW211776   0.665   0.764   3.396
36627SOL     OW11777  10.168   3.852   7.493
36627SOL    HW111778  10.115   3.777   7.467
36627SOL    HW211779  10.166   3.850   7.589
36628SOL     OW11780   2.473   0.153  10.132
36628SOL    HW111781   2.533   0.098  10.182
36628SOL    HW211782   2.491   0.132  10.040
36629SOL     OW11783   7.014   9.045   1.606
36629SOL    HW111784   7.018   9.019   1.698
36629SOL    HW211785   7.003   8.962   1.559
36630SOL     OW11786   9.069   2.266  12.368
36630SOL    HW111787   9.063   2.361  12.364
36630SOL    HW211788   9.012   2.235  12.297
36631SOL     OW11789   8.319  12.500  14.647
36631SOL    HW111790   8.281  12.424  14.604
36631SOL    HW211791   8.288  12.495  14.738
36632SOL     OW11792   9.289   3.337   5.940
36632SOL    HW111793   9.203   3.302   5.914
36632SOL    HW211794   9.348   3.309   5.869
36633SOL     OW11795   2.607  10.056  12.747
36633SOL    HW111796   2.680  10.117  12.740
36633SOL    HW211797   2.545  10.099  12.806
36634SOL     OW11798   1.040   4.524   8.924
36634SOL    HW111799   0.980   4.496   8.856
36634SOL    HW211800   1.117   4.555   8.877
36635SOL     OW11801  10.599   3.329  11.239
36635SOL    HW111802  10.646   3.332  11.155
36635SOL    HW211803  10.659   3.371  11.301
36636SOL     OW11804  12.167   0.387   8.057
36636SOL    HW111805  12.143   0.478   8.075
36636SOL    HW211806  12.258   0.393   8.027
36637SOL     OW11807   5.875   0.265   4.899
36637SOL    HW111808   5.963   0.230   4.912
36637SOL    HW211809   5.850   0.301   4.984
36638SOL     OW11810  11.573  11.121   9.406
36638SOL    HW111811  11.501  11.172   9.371
36638SOL    HW211812  11.596  11.165   9.488
36639SOL     OW11813   6.653  14.094   6.978
36639SOL    HW111814   6.708  14.043   6.919
36639SOL    HW211815   6.565  14.088   6.939
36640SOL     OW11816   4.016  12.942  12.647
36640SOL    HW111817   4.009  12.851  12.618
36640SOL    HW211818   3.991  12.994  12.571
36641SOL     OW11819   0.371   7.827  12.897
36641SOL    HW111820   0.441   7.769  12.869
36641SOL    HW211821   0.378   7.904  12.840
36642SOL     OW11822   3.631   5.263   8.681
36642SOL    HW111823   3.718   5.300   8.665
36642SOL    HW211824   3.632   5.178   8.637
36643SOL     OW11825  10.824   6.682   8.003
36643SOL    HW111826  10.913   6.651   7.986
36643SOL    HW211827  10.817   6.684   8.098
36644SOL     OW11828   4.989  11.711  10.234
36644SOL    HW111829   5.047  11.645  10.196
36644SOL    HW211830   4.931  11.662  10.292
36645SOL     OW11831  12.159   2.400   5.483
36645SOL    HW111832  12.116   2.326   5.526
36645SOL    HW211833  12.093   2.436   5.424
36646SOL     OW11834   4.692  11.659   1.230
36646SOL    HW111835   4.672  11.687   1.319
36646SOL    HW211836   4.665  11.732   1.175
36647SOL     OW11837  12.922  12.103   1.465
36647SOL    HW111838  12.883  12.090   1.551
36647SOL    HW211839  12.855  12.150   1.415
36648SOL     OW11840   0.787   8.805  14.573
36648SOL    HW111841   0.699   8.812  14.610
36648SOL    HW211842   0.824   8.727  14.614
36649SOL     OW11843  10.564   7.866   5.480
36649SOL    HW111844  10.526   7.847   5.565
36649SOL    HW211845  10.606   7.952   5.491
36650SOL     OW11846  14.093   6.658   2.961
36650SOL    HW111847  14.076   6.707   3.041
36650SOL    HW211848  14.006   6.638   2.926
36651SOL     OW11849  10.976   8.055   7.093
36651SOL    HW111850  10.900   8.015   7.134
36651SOL    HW211851  10.949   8.145   7.076
36652SOL     OW11852  13.358  14.618   7.552
36652SOL    HW111853  13.395  14.684   7.494
36652SOL    HW211854  13.292  14.574   7.499
36653SOL     OW11855   0.037   8.484  11.311
36653SOL    HW111856   0.017   8.526  11.395
36653SOL    HW211857  14.858   8.535  11.246
36654SOL     OW11858   7.161   5.455   3.077
36654SOL    HW111859   7.188   5.378   3.127
36654SOL    HW211860   7.234   5.473   3.018
36655SOL     OW11861   3.628  13.359   0.769
36655SOL    HW111862   3.718  13.358   0.800
36655SOL    HW211863   3.575  13.352   0.848
36656SOL     OW11864   7.408  13.832   6.625
36656SOL    HW111865   7.326  13.850   6.578
36656SOL    HW211866   7.389  13.754   6.676
36657SOL     OW11867   1.447   1.657   4.911
36657SOL    HW111868   1.538   1.681   4.892
36657SOL    HW211869   1.407   1.740   4.937
36658SOL     OW11870  10.331   3.990   2.312
36658SOL    HW111871  10.290   4.073   2.288
36658SOL    HW211872  10.377   3.963   2.232
36659SOL     OW11873   6.800  10.911   3.063
36659SOL    HW111874   6.857  10.988   3.072
36659SOL    HW211875   6.718  10.938   3.105
36660SOL     OW11876   1.857   1.251  12.541
36660SOL    HW111877   1.763   1.258  12.561
36660SOL    HW211878   1.884   1.341  12.523
36661SOL     OW11879   5.786   7.702   0.835
36661SOL    HW111880   5.748   7.725   0.750
36661SOL    HW211881   5.711   7.679   0.889
36662SOL     OW11882   0.649   5.889   7.894
36662SOL    HW111883   0.714   5.917   7.829
36662SOL    HW211884   0.676   5.932   7.975
36663SOL     OW11885   9.005   1.974   5.335
36663SOL    HW111886   9.072   1.966   5.402
36663SOL    HW211887   9.029   1.908   5.269
36664SOL     OW11888  10.922   2.961   6.375
36664SOL    HW111889  10.882   3.046   6.357
36664SOL    HW211890  10.957   2.969   6.464
36665SOL     OW11891   0.121   4.521  11.833
36665SOL    HW111892   0.178   4.451  11.803
36665SOL    HW211893   0.036   4.502  11.795
36666SOL     OW11894   1.922   9.096   5.304
36666SOL    HW111895   1.858   9.116   5.236
36666SOL    HW211896   1.930   9.178   5.354
36667SOL     OW11897  12.331   9.552   6.366
36667SOL    HW111898  12.330   9.504   6.283
36667SOL    HW211899  12.281   9.498   6.426
36668SOL     OW11900  11.864   8.347   2.913
36668SOL    HW111901  11.835   8.412   2.849
36668SOL    HW211902  11.790   8.336   2.972
36669SOL     OW11903  14.837   3.790   7.934
36669SOL    HW111904  14.743   3.807   7.941
36669SOL    HW211905   0.009   3.859   7.987
36670SOL     OW11906   6.883   1.912   6.193
36670SOL    HW111907   6.899   1.886   6.284
36670SOL    HW211908   6.966   1.896   6.149
36671SOL     OW11909  12.472   1.024  11.815
36671SOL    HW111910  12.388   1.027  11.768
36671SOL    HW211911  12.529   0.973  11.758
36672SOL     OW11912   1.058   9.702  13.391
36672SOL    HW111913   1.031   9.763  13.323
36672SOL    HW211914   1.109   9.635  13.345
36673SOL     OW11915   9.162   7.379   6.117
36673SOL    HW111916   9.252   7.344   6.116
36673SOL    HW211917   9.109   7.309   6.079
36674SOL     OW11918   2.333   0.235  11.511
36674SOL    HW111919   2.285   0.304  11.557
36674SOL    HW211920   2.416   0.275  11.488
36675SOL     OW11921  10.242   2.689   0.389
36675SOL    HW111922  10.334   2.677   0.415
36675SOL    HW211923  10.218   2.775   0.424
36676SOL     OW11924   1.743   0.256   3.788
36676SOL    HW111925   1.693   0.333   3.814
36676SOL    HW211926   1.834   0.283   3.792
36677SOL     OW11927   5.022  14.601  11.493
36677SOL    HW111928   5.032  14.538  11.422
36677SOL    HW211929   5.106  14.647  11.495
36678SOL     OW11930   0.949  14.066  14.152
36678SOL    HW111931   0.926  14.046  14.243
36678SOL    HW211932   0.864  14.077  14.108
36679SOL     OW11933   4.487   0.717  13.238
36679SOL    HW111934   4.515   0.638  13.284
36679SOL    HW211935   4.546   0.724  13.163
36680SOL     OW11936  10.131   4.666  10.353
36680SOL    HW111937  10.185   4.646  10.276
36680SOL    HW211938  10.101   4.756  10.338
36681SOL     OW11939   9.524  12.133   1.617
36681SOL    HW111940   9.606  12.159   1.659
36681SOL    HW211941   9.518  12.190   1.540
36682SOL     OW11942  14.701  13.564   5.429
36682SOL    HW111943  14.784  13.588   5.389
36682SOL    HW211944  14.634  13.599   5.370
36683SOL     OW11945   9.639   2.698   2.569
36683SOL    HW111946   9.676   2.691   2.657
36683SOL    HW211947   9.688   2.770   2.529
36684SOL     OW11948   8.150   2.922  11.076
36684SOL    HW111949   8.210   2.877  11.018
36684SOL    HW211950   8.078   2.950  11.019
36685SOL     OW11951  14.831   2.333   2.444
36685SOL    HW111952   0.049   2.296   2.434
36685SOL    HW211953  14.778   2.260   2.475
36686SOL     OW11954   1.834   7.281   6.575
36686SOL    HW111955   1.799   7.198   6.605
36686SOL    HW211956   1.827   7.277   6.480
36687SOL     OW11957   8.307   6.834  14.468
36687SOL    HW111958   8.370   6.767  14.496
36687SOL    HW211959   8.251   6.790  14.404
36688SOL     OW11960   3.707   0.616  13.723
36688SOL    HW111961   3.614   0.606  13.701
36688SOL    HW211962   3.727   0.540  13.777
36689SOL     OW11963   3.341   5.394   6.744
36689SOL    HW111964   3.363   5.306   6.774
36689SOL    HW211965   3.253   5.386   6.707
36690SOL     OW11966   0.793   3.591   9.415
36690SOL    HW111967   0.882   3.561   9.436
36690SOL    HW211968   0.800   3.686   9.414
36691SOL     OW11969   0.018   9.611  12.229
36691SOL    HW111970   0.042   9.702  12.209
36691SOL    HW211971   0.097   9.574  12.268
36692SOL     OW11972   5.489   4.285  12.774
36692SOL    HW111973   5.394   4.289  12.785
36692SOL    HW211974   5.502   4.282  12.679
36693SOL     OW11975  10.780  10.311   1.432
36693SOL    HW111976  10.760  10.221   1.457
36693SOL    HW211977  10.869  10.327   1.465
36694SOL     OW11978   7.313   2.621  14.555
36694SOL    HW111979   7.399   2.579  14.554
36694SOL    HW211980   7.291   2.627  14.648
36695SOL     OW11981   5.646   8.835   9.872
36695SOL    HW111982   5.697   8.913   9.892
36695SOL    HW211983   5.698   8.789   9.806
36696SOL     OW11984   6.236  12.346  11.956
36696SOL    HW111985   6.232  12.387  12.042
36696SOL    HW211986   6.329  12.347  11.933
36697SOL     OW11987   0.827   0.459   2.409
36697SOL    HW111988   0.804   0.549   2.387
36697SOL    HW211989   0.777   0.406   2.347
36698SOL     OW11990   4.678   9.415   4.266
36698SOL    HW111991   4.692   9.438   4.358
36698SOL    HW211992   4.601   9.466   4.241
36699SOL     OW11993   8.497   1.504   2.987
36699SOL    HW111994   8.406   1.499   3.016
36699SOL    HW211995   8.547   1.518   3.068
36700SOL     OW11996  10.458   9.125  14.283
36700SOL    HW111997  10.524   9.067  14.320
36700SOL    HW211998  10.433   9.182  14.356
36701SOL     OW11999   0.360   9.528  12.762
36701SOL    HW112000   0.302   9.478  12.820
36701SOL    HW212001   0.341   9.620  12.783
36702SOL     OW12002   0.241  11.032   4.127
36702SOL    HW112003   0.218  11.075   4.045
36702SOL    HW212004   0.162  10.983   4.151
36703SOL     OW12005  14.428  13.412  12.386
36703SOL    HW112006  14.366  13.352  12.344
36703SOL    HW212007  14.513  13.370  12.376
36704SOL     OW12008   2.699  10.945  13.761
36704SOL    HW112009   2.756  10.888  13.709
36704SOL    HW212010   2.749  10.961  13.841
36705SOL     OW12011   3.981  11.118   4.453
36705SOL    HW112012   4.072  11.092   4.471
36705SOL    HW212013   3.929  11.046   4.488
36706SOL     OW12014  11.269  12.018   1.458
36706SOL    HW112015  11.292  12.001   1.550
36706SOL    HW212016  11.175  12.000   1.453
36707SOL     OW12017   5.283   7.522   8.610
36707SOL    HW112018   5.311   7.606   8.575
36707SOL    HW212019   5.351   7.499   8.674
36708SOL     OW12020  13.297   7.111   1.895
36708SOL    HW112021  13.340   7.025   1.901
36708SOL    HW212022  13.250   7.108   1.811
36709SOL     OW12023  11.092   0.737   6.591
36709SOL    HW112024  11.187   0.725   6.583
36709SOL    HW212025  11.055   0.651   6.573
36710SOL     OW12026   7.799  12.733   8.811
36710SOL    HW112027   7.861  12.803   8.833
36710SOL    HW212028   7.827  12.702   8.725
36711SOL     OW12029  13.395   3.781  13.588
36711SOL    HW112030  13.380   3.853  13.650
36711SOL    HW212031  13.430   3.824  13.510
36712SOL     OW12032  13.218  13.532   5.353
36712SOL    HW112033  13.182  13.444   5.347
36712SOL    HW212034  13.163  13.585   5.295
36713SOL     OW12035  10.552   2.337   9.242
36713SOL    HW112036  10.568   2.389   9.321
36713SOL    HW212037  10.470   2.372   9.207
36714SOL     OW12038  14.033   0.848   9.660
36714SOL    HW112039  14.021   0.928   9.711
36714SOL    HW212040  13.994   0.868   9.575
36715SOL     OW12041   4.691  12.897  10.902
36715SOL    HW112042   4.658  12.956  10.835
36715SOL    HW212043   4.762  12.849  10.859
36716SOL     OW12044  11.123   9.444  11.864
36716SOL    HW112045  11.134   9.474  11.773
36716SOL    HW212046  11.118   9.525  11.915
36717SOL     OW12047   7.750   8.385   5.011
36717SOL    HW112048   7.815   8.439   4.967
36717SOL    HW212049   7.667   8.429   4.996
36718SOL     OW12050   8.342  14.523  14.527
36718SOL    HW112051   8.393  14.585  14.580
36718SOL    HW212052   8.344  14.561  14.439
36719SOL     OW12053   9.839  11.841   5.445
36719SOL    HW112054   9.783  11.832   5.522
36719SOL    HW212055   9.874  11.753   5.430
36720SOL     OW12056   1.462   5.533   6.546
36720SOL    HW112057   1.545   5.529   6.497
36720SOL    HW212058   1.472   5.468   6.615
36721SOL     OW12059  10.765   7.410  11.135
36721SOL    HW112060  10.805   7.366  11.060
36721SOL    HW212061  10.685   7.361  11.152
36722SOL     OW12062   3.254   1.058  11.965
36722SOL    HW112063   3.252   1.006  11.884
36722SOL    HW212064   3.228   1.146  11.938
36723SOL     OW12065   8.964   3.318   0.413
36723SOL    HW112066   8.950   3.248   0.475
36723SOL    HW212067   8.878   3.334   0.373
36724SOL     OW12068  11.010   0.909   7.412
36724SOL    HW112069  10.918   0.889   7.392
36724SOL    HW212070  11.052   0.916   7.326
36725SOL     OW12071   2.814   6.478   7.305
36725SOL    HW112072   2.829   6.561   7.351
36725SOL    HW212073   2.901   6.439   7.297
36726SOL     OW12074  10.289   9.691   9.074
36726SOL    HW112075  10.246   9.766   9.033
36726SOL    HW212076  10.328   9.726   9.154
36727SOL     OW12077  10.797  12.933  10.807
36727SOL    HW112078  10.765  12.912  10.895
36727SOL    HW212079  10.868  12.995  10.821
36728SOL     OW12080   4.083  10.769   8.090
36728SOL    HW112081   3.994  10.804   8.102
36728SOL    HW212082   4.113  10.807   8.008
36729SOL     OW12083   0.302   0.387  11.160
36729SOL    HW112084   0.294   0.309  11.104
36729SOL    HW212085   0.220   0.434  11.147
36730SOL     OW12086   6.196   5.610   9.308
36730SOL    HW112087   6.241   5.611   9.224
36730SOL    HW212088   6.103   5.613   9.285
36731SOL     OW12089  11.321   0.392   6.827
36731SOL    HW112090  11.244   0.345   6.859
36731SOL    HW212091  11.376   0.324   6.787
36732SOL     OW12092  13.688   5.887   3.714
36732SOL    HW112093  13.710   5.794   3.706
36732SOL    HW212094  13.596   5.888   3.739
36733SOL     OW12095   3.849  13.345   1.641
36733SOL    HW112096   3.797  13.368   1.718
36733SOL    HW212097   3.864  13.428   1.596
36734SOL     OW12098   7.461  13.084  10.082
36734SOL    HW112099   7.504  13.088   9.996
36734SOL    HW212100   7.396  13.154  10.079
36735SOL     OW12101   5.051  10.811  11.719
36735SOL    HW112102   4.967  10.792  11.678
36735SOL    HW212103   5.112  10.749  11.679
36736SOL     OW12104   7.339   5.759  10.310
36736SOL    HW112105   7.426   5.765  10.269
36736SOL    HW212106   7.347   5.814  10.388
36737SOL     OW12107  11.408   2.527   2.948
36737SOL    HW112108  11.498   2.545   2.975
36737SOL    HW212109  11.402   2.431   2.948
36738SOL     OW12110  13.402   3.479  12.760
36738SOL    HW112111  13.423   3.426  12.683
36738SOL    HW212112  13.311   3.505  12.748
36739SOL     OW12113   2.765   0.395  12.855
36739SOL    HW112114   2.805   0.478  12.829
36739SOL    HW212115   2.821   0.362  12.925
36740SOL     OW12116   6.601  14.822  11.290
36740SOL    HW112117   6.663  14.750  11.281
36740SOL    HW212118   6.562  14.811  11.376
36741SOL     OW12119   8.826   6.275  13.868
36741SOL    HW112120   8.891   6.317  13.811
36741SOL    HW212121   8.768   6.347  13.894
36742SOL     OW12122  11.090   3.506   6.249
36742SOL    HW112123  11.185   3.499   6.251
36742SOL    HW212124  11.072   3.579   6.190
36743SOL     OW12125   7.978   8.665   5.115
36743SOL    HW112126   7.972   8.645   5.022
36743SOL    HW212127   7.887   8.668   5.145
36744SOL     OW12128  13.534  13.544   1.876
36744SOL    HW112129  13.556  13.617   1.933
36744SOL    HW212130  13.458  13.503   1.917
36745SOL     OW12131   9.463  13.219   1.162
36745SOL    HW112132   9.488  13.296   1.110
36745SOL    HW212133   9.480  13.145   1.104
36746SOL     OW12134  10.048   9.821   7.897
36746SOL    HW112135   9.985   9.862   7.838
36746SOL    HW212136  10.133   9.848   7.863
36747SOL     OW12137  13.319  13.117   2.797
36747SOL    HW112138  13.298  13.201   2.757
36747SOL    HW212139  13.235  13.072   2.804
36748SOL     OW12140   3.272   5.825   8.624
36748SOL    HW112141   3.193   5.879   8.630
36748SOL    HW212142   3.262   5.761   8.694
36749SOL     OW12143  14.080   3.635  12.009
36749SOL    HW112144  14.040   3.586  12.081
36749SOL    HW212145  14.019   3.706  11.991
36750SOL     OW12146   2.511   1.346   9.055
36750SOL    HW112147   2.510   1.262   9.009
36750SOL    HW212148   2.473   1.327   9.141
36751SOL     OW12149  12.647   3.208  11.035
36751SOL    HW112150  12.692   3.152  10.972
36751SOL    HW212151  12.606   3.277  10.981
36752SOL     OW12152  13.213   5.255  13.068
36752SOL    HW112153  13.121   5.229  13.076
36752SOL    HW212154  13.214   5.314  12.993
36753SOL     OW12155   2.031   6.251   3.149
36753SOL    HW112156   2.035   6.254   3.245
36753SOL    HW212157   1.953   6.199   3.130
36754SOL     OW12158   4.036  13.070   6.325
36754SOL    HW112159   4.027  13.164   6.310
36754SOL    HW212160   4.085  13.064   6.407
36755SOL     OW12161  13.496   3.590   8.431
36755SOL    HW112162  13.536   3.536   8.364
36755SOL    HW212163  13.403   3.592   8.408
36756SOL     OW12164   6.124  10.056   8.951
36756SOL    HW112165   6.107   9.962   8.954
36756SOL    HW212166   6.214  10.064   8.922
36757SOL     OW12167   6.614   3.965  13.815
36757SOL    HW112168   6.574   3.980  13.730
36757SOL    HW212169   6.708   3.970  13.798
36758SOL     OW12170   1.381   2.803  10.308
36758SOL    HW112171   1.368   2.897  10.324
36758SOL    HW212172   1.404   2.798  10.215
36759SOL     OW12173   3.016  13.681   3.600
36759SOL    HW112174   3.016  13.594   3.641
36759SOL    HW212175   3.089  13.677   3.537
36760SOL     OW12176  11.935  13.291  11.657
36760SOL    HW112177  11.920  13.214  11.602
36760SOL    HW212178  11.945  13.256  11.745
36761SOL     OW12179   2.366   4.155   0.187
36761SOL    HW112180   2.439   4.218   0.187
36761SOL    HW212181   2.319   4.173   0.105
36762SOL     OW12182   7.532   4.117   3.966
36762SOL    HW112183   7.568   4.163   4.042
36762SOL    HW212184   7.608   4.086   3.918
36763SOL     OW12185  12.689  14.492  12.436
36763SOL    HW112186  12.614  14.476  12.378
36763SOL    HW212187  12.754  14.534  12.380
36764SOL     OW12188  11.871   7.482   4.327
36764SOL    HW112189  11.820   7.400   4.328
36764SOL    HW212190  11.895   7.494   4.235
36765SOL     OW12191   2.801   7.210   3.006
36765SOL    HW112192   2.738   7.141   2.986
36765SOL    HW212193   2.879   7.187   2.956
36766SOL     OW12194   8.001   5.705  11.322
36766SOL    HW112195   8.009   5.777  11.384
36766SOL    HW212196   7.949   5.639  11.367
36767SOL     OW12197  10.806   4.951   3.224
36767SOL    HW112198  10.712   4.942   3.205
36767SOL    HW212199  10.816   5.040   3.256
36768SOL     OW12200  14.327   2.400  10.005
36768SOL    HW112201  14.418   2.378   9.985
36768SOL    HW212202  14.322   2.495   9.995
36769SOL     OW12203  12.057   5.787   1.538
36769SOL    HW112204  11.983   5.756   1.590
36769SOL    HW212205  12.037   5.879   1.521
36770SOL     OW12206   9.300   0.426   3.857
36770SOL    HW112207   9.249   0.476   3.920
36770SOL    HW212208   9.298   0.478   3.777
36771SOL     OW12209  12.988   7.780  14.614
36771SOL    HW112210  13.055   7.770  14.546
36771SOL    HW212211  12.990   7.698  14.663
36772SOL     OW12212  11.697   5.128  14.498
36772SOL    HW112213  11.727   5.098  14.584
36772SOL    HW212214  11.610   5.088  14.487
36773SOL     OW12215   2.164   6.090  11.193
36773SOL    HW112216   2.081   6.134  11.174
36773SOL    HW212217   2.225   6.123  11.127
36774SOL     OW12218   4.030   8.068   4.011
36774SOL    HW112219   4.107   8.110   3.973
36774SOL    HW212220   3.995   8.133   4.072
36775SOL     OW12221   1.690   8.476   6.887
36775SOL    HW112222   1.609   8.513   6.922
36775SOL    HW212223   1.667   8.386   6.864
36776SOL     OW12224   0.284   4.957   7.899
36776SOL    HW112225   0.284   4.997   7.986
36776SOL    HW212226   0.372   4.922   7.888
36777SOL     OW12227   7.280   2.844   6.485
36777SOL    HW112228   7.212   2.813   6.425
36777SOL    HW212229   7.250   2.816   6.572
36778SOL     OW12230   2.310   8.921  13.537
36778SOL    HW112231   2.348   8.887  13.618
36778SOL    HW212232   2.234   8.864  13.521
36779SOL     OW12233   4.943   0.369   7.882
36779SOL    HW112234   5.015   0.418   7.920
36779SOL    HW212235   4.893   0.434   7.833
36780SOL     OW12236  10.849   5.337  14.727
36780SOL    HW112237  10.828   5.417  14.679
36780SOL    HW212238  10.931   5.357  14.772
36781SOL     OW12239   5.130  11.577   0.258
36781SOL    HW112240   5.061  11.639   0.280
36781SOL    HW212241   5.141  11.525   0.338
36782SOL     OW12242   2.671   0.388   7.881
36782SOL    HW112243   2.652   0.297   7.856
36782SOL    HW212244   2.745   0.381   7.941
36783SOL     OW12245   1.218   1.899   3.801
36783SOL    HW112246   1.257   1.955   3.868
36783SOL    HW212247   1.128   1.932   3.792
36784SOL     OW12248  12.093   7.903   9.198
36784SOL    HW112249  12.138   7.916   9.115
36784SOL    HW212250  12.146   7.839   9.245
36785SOL     OW12251   7.921  12.244   6.766
36785SOL    HW112252   7.937  12.265   6.858
36785SOL    HW212253   7.829  12.269   6.751
36786SOL     OW12254   1.382  12.757  13.932
36786SOL    HW112255   1.372  12.669  13.967
36786SOL    HW212256   1.390  12.813  14.009
36787SOL     OW12257  12.192  10.174  10.114
36787SOL    HW112258  12.198  10.123  10.194
36787SOL    HW212259  12.279  10.167  10.074
36788SOL     OW12260   1.797  13.773  11.024
36788SOL    HW112261   1.861  13.706  11.002
36788SOL    HW212262   1.792  13.772  11.119
36789SOL     OW12263  13.784  10.707   3.259
36789SOL    HW112264  13.812  10.693   3.350
36789SOL    HW212265  13.726  10.633   3.240
36790SOL     OW12266   7.764  12.713   9.612
36790SOL    HW112267   7.859  12.709   9.608
36790SOL    HW212268   7.736  12.621   9.606
36791SOL     OW12269   1.740   4.511  12.046
36791SOL    HW112270   1.719   4.558  11.965
36791SOL    HW212271   1.759   4.581  12.109
36792SOL     OW12272  11.667   0.866   5.685
36792SOL    HW112273  11.755   0.898   5.702
36792SOL    HW212274  11.661   0.859   5.589
36793SOL     OW12275   2.538   5.284   7.174
36793SOL    HW112276   2.565   5.369   7.137
36793SOL    HW212277   2.503   5.235   7.100
36794SOL     OW12278  10.484   3.149   2.289
36794SOL    HW112279  10.484   3.214   2.219
36794SOL    HW212280  10.395   3.114   2.290
36795SOL     OW12281   0.046   4.892   0.809
36795SOL    HW112282   0.085   4.963   0.861
36795SOL    HW212283   0.045   4.926   0.720
36796SOL     OW12284   4.206  13.691   5.634
36796SOL    HW112285   4.268  13.760   5.612
36796SOL    HW212286   4.121  13.735   5.636
36797SOL     OW12287   4.567   1.059   4.222
36797SOL    HW112288   4.506   0.986   4.230
36797SOL    HW212289   4.535   1.123   4.285
36798SOL     OW12290   3.738   2.417   6.472
36798SOL    HW112291   3.816   2.459   6.509
36798SOL    HW212292   3.719   2.345   6.532
36799SOL     OW12293   2.668   7.793   5.909
36799SOL    HW112294   2.602   7.724   5.897
36799SOL    HW212295   2.669   7.840   5.826
36800SOL     OW12296   0.268   8.066  14.310
36800SOL    HW112297   0.288   7.998  14.374
36800SOL    HW212298   0.196   8.031  14.258
36801SOL     OW12299   9.725   6.886  13.782
36801SOL    HW112300   9.653   6.823  13.779
36801SOL    HW212301   9.802   6.835  13.808
36802SOL     OW12302   8.682  13.535  12.787
36802SOL    HW112303   8.713  13.455  12.829
36802SOL    HW212304   8.698  13.604  12.851
36803SOL     OW12305   5.715   4.852  11.234
36803SOL    HW112306   5.659   4.929  11.226
36803SOL    HW212307   5.710   4.828  11.326
36804SOL     OW12308  13.998   6.588   7.795
36804SOL    HW112309  13.973   6.534   7.870
36804SOL    HW212310  13.955   6.672   7.811
36805SOL     OW12311   1.654   2.029  11.427
36805SOL    HW112312   1.630   1.957  11.370
36805SOL    HW212313   1.693   2.094  11.369
36806SOL     OW12314   0.562   3.679  14.013
36806SOL    HW112315   0.650   3.714  13.997
36806SOL    HW212316   0.517   3.750  14.058
36807SOL     OW12317  12.673   9.103   1.664
36807SOL    HW112318  12.591   9.131   1.705
36807SOL    HW212319  12.738   9.107   1.734
36808SOL     OW12320   8.501  12.651  12.209
36808SOL    HW112321   8.532  12.643  12.119
36808SOL    HW212322   8.528  12.739  12.236
36809SOL     OW12323   3.555  12.817   1.712
36809SOL    HW112324   3.612  12.780   1.780
36809SOL    HW212325   3.542  12.908   1.738
36810SOL     OW12326   4.893   7.053  10.214
36810SOL    HW112327   4.820   7.094  10.167
36810SOL    HW212328   4.854   7.019  10.295
36811SOL     OW12329   2.672   3.194   1.535
36811SOL    HW112330   2.695   3.144   1.456
36811SOL    HW212331   2.598   3.248   1.508
36812SOL     OW12332   5.578   3.730  10.426
36812SOL    HW112333   5.527   3.809  10.410
36812SOL    HW212334   5.665   3.762  10.452
36813SOL     OW12335  13.069  13.779  14.221
36813SOL    HW112336  13.159  13.798  14.196
36813SOL    HW212337  13.016  13.827  14.157
36814SOL     OW12338   6.196   4.073  11.356
36814SOL    HW112339   6.245   4.069  11.438
36814SOL    HW212340   6.164   4.163  11.351
36815SOL     OW12341   0.662  14.856  11.052
36815SOL    HW112342   0.748   0.027  11.058
36815SOL    HW212343   0.668  14.797  10.977
36816SOL     OW12344   3.681  12.143   6.220
36816SOL    HW112345   3.772  12.173   6.216
36816SOL    HW212346   3.629  12.223   6.215
36817SOL     OW12347  10.666   9.427   1.954
36817SOL    HW112348  10.615   9.475   1.889
36817SOL    HW212349  10.626   9.448   2.038
36818SOL     OW12350  13.544   9.732   1.219
36818SOL    HW112351  13.494   9.806   1.186
36818SOL    HW212352  13.636   9.760   1.210
36819SOL     OW12353   1.825   9.308   5.106
36819SOL    HW112354   1.820   9.374   5.038
36819SOL    HW212355   1.870   9.352   5.179
36820SOL     OW12356   8.378   2.692  13.153
36820SOL    HW112357   8.350   2.673  13.064
36820SOL    HW212358   8.398   2.607  13.191
36821SOL     OW12359  10.829   0.468  12.051
36821SOL    HW112360  10.909   0.418  12.035
36821SOL    HW212361  10.860   0.548  12.095
36822SOL     OW12362   5.732  13.499   3.422
36822SOL    HW112363   5.767  13.559   3.356
36822SOL    HW212364   5.645  13.475   3.390
36823SOL     OW12365  12.145   9.356   9.980
36823SOL    HW112366  12.106   9.284   9.930
36823SOL    HW212367  12.194   9.313  10.050
36824SOL     OW12368   5.253   7.803   2.802
36824SOL    HW112369   5.282   7.851   2.725
36824SOL    HW212370   5.162   7.780   2.783
36825SOL     OW12371   2.780  13.478   1.094
36825SOL    HW112372   2.741  13.439   1.016
36825SOL    HW212373   2.872  13.453   1.090
36826SOL     OW12374  10.588   0.646   2.246
36826SOL    HW112375  10.665   0.593   2.229
36826SOL    HW212376  10.590   0.661   2.341
36827SOL     OW12377  11.146   5.724   4.116
36827SOL    HW112378  11.088   5.649   4.126
36827SOL    HW212379  11.223   5.702   4.167
36828SOL     OW12380   1.459   9.702  10.826
36828SOL    HW112381   1.425   9.790  10.812
36828SOL    HW212382   1.382   9.650  10.849
36829SOL     OW12383   1.426   6.172  10.546
36829SOL    HW112384   1.363   6.104  10.569
36829SOL    HW212385   1.511   6.136  10.573
36830SOL     OW12386   0.689  11.834   0.017
36830SOL    HW112387   0.656  11.900  14.826
36830SOL    HW212388   0.760  11.791  14.838
36831SOL     OW12389  10.022   7.755   8.990
36831SOL    HW112390  10.083   7.818   8.952
36831SOL    HW212391   9.936   7.787   8.963
36832SOL     OW12392   9.024  10.197  10.317
36832SOL    HW112393   9.085  10.153  10.377
36832SOL    HW212394   9.047  10.290  10.324
36833SOL     OW12395   5.359  11.998   4.733
36833SOL    HW112396   5.317  11.930   4.681
36833SOL    HW212397   5.300  12.073   4.727
36834SOL     OW12398  14.403   0.196   0.131
36834SOL    HW112399  14.445   0.282   0.132
36834SOL    HW212400  14.460   0.141   0.078
36835SOL     OW12401   7.109   0.628   8.535
36835SOL    HW112402   7.129   0.565   8.465
36835SOL    HW212403   7.190   0.678   8.545
36836SOL     OW12404   1.725   2.727   6.217
36836SOL    HW112405   1.716   2.723   6.122
36836SOL    HW212406   1.770   2.646   6.241
36837SOL     OW12407  10.252  10.324   2.082
36837SOL    HW112408  10.198  10.358   2.153
36837SOL    HW212409  10.261  10.397   2.021
36838SOL     OW12410   6.284  13.068   5.828
36838SOL    HW112411   6.363  13.064   5.774
36838SOL    HW212412   6.249  13.156   5.812
36839SOL     OW12413   2.963  14.108   8.206
36839SOL    HW112414   2.981  14.202   8.217
36839SOL    HW212415   2.888  14.092   8.262
36840SOL     OW12416   2.383  11.404  11.734
36840SOL    HW112417   2.357  11.312  11.741
36840SOL    HW212418   2.331  11.448  11.802
36841SOL     OW12419  12.336   2.015   2.871
36841SOL    HW112420  12.375   1.931   2.844
36841SOL    HW212421  12.296   2.049   2.791
36842SOL     OW12422   7.361  10.699  12.863
36842SOL    HW112423   7.291  10.762  12.878
36842SOL    HW212424   7.426  10.747  12.813
36843SOL     OW12425   8.070   0.414  13.263
36843SOL    HW112426   8.008   0.344  13.285
36843SOL    HW212427   8.154   0.382  13.295
36844SOL     OW12428  14.196  10.031   9.205
36844SOL    HW112429  14.138   9.970   9.161
36844SOL    HW212430  14.278   9.983   9.217
36845SOL     OW12431  13.402   9.265   7.793
36845SOL    HW112432  13.367   9.247   7.705
36845SOL    HW212433  13.496   9.248   7.785
36846SOL     OW12434   9.925   3.528  12.367
36846SOL    HW112435   9.872   3.579  12.306
36846SOL    HW212436   9.980   3.592  12.411
36847SOL     OW12437  14.403  11.604  10.819
36847SOL    HW112438  14.447  11.687  10.839
36847SOL    HW212439  14.310  11.624  10.828
36848SOL     OW12440   6.102  14.625   7.484
36848SOL    HW112441   6.111  14.583   7.569
36848SOL    HW212442   6.030  14.687   7.495
36849SOL     OW12443  10.622  10.746   1.773
36849SOL    HW112444  10.680  10.809   1.817
36849SOL    HW212445  10.674  10.666   1.768
36850SOL     OW12446   1.126   8.818   2.080
36850SOL    HW112447   1.171   8.735   2.099
36850SOL    HW212448   1.034   8.795   2.072
36851SOL     OW12449  10.672   1.453   9.500
36851SOL    HW112450  10.758   1.440   9.459
36851SOL    HW212451  10.675   1.542   9.533
36852SOL     OW12452  11.405   4.144   2.781
36852SOL    HW112453  11.423   4.189   2.863
36852SOL    HW212454  11.456   4.063   2.786
36853SOL     OW12455   8.555   0.894   0.478
36853SOL    HW112456   8.502   0.846   0.414
36853SOL    HW212457   8.591   0.826   0.534
36854SOL     OW12458   6.161  14.751   3.611
36854SOL    HW112459   6.154  14.753   3.515
36854SOL    HW212460   6.203  14.667   3.630
36855SOL     OW12461  13.790   9.165   2.471
36855SOL    HW112462  13.834   9.085   2.500
36855SOL    HW212463  13.703   9.160   2.512
36856SOL     OW12464   3.630   4.100   6.173
36856SOL    HW112465   3.535   4.097   6.164
36856SOL    HW212466   3.656   4.009   6.189
36857SOL     OW12467  12.305   4.674   8.980
36857SOL    HW112468  12.216   4.648   9.006
36857SOL    HW212469  12.352   4.685   9.062
36858SOL     OW12470   0.282   6.646  12.680
36858SOL    HW112471   0.340   6.706  12.728
36858SOL    HW212472   0.196   6.686  12.685
36859SOL     OW12473  14.412  12.066  12.396
36859SOL    HW112474  14.454  11.982  12.413
36859SOL    HW212475  14.333  12.065  12.450
36860SOL     OW12476  12.887   0.842   8.411
36860SOL    HW112477  12.896   0.937   8.405
36860SOL    HW212478  12.857   0.826   8.500
36861SOL     OW12479   0.279   8.475   5.718
36861SOL    HW112480   0.361   8.427   5.731
36861SOL    HW212481   0.302   8.567   5.729
36862SOL     OW12482   2.271  11.798   3.916
36862SOL    HW112483   2.247  11.714   3.956
36862SOL    HW212484   2.278  11.778   3.822
36863SOL     OW12485   4.223  13.613   1.402
36863SOL    HW112486   4.296  13.669   1.376
36863SOL    HW212487   4.251  13.574   1.485
36864SOL     OW12488   5.905   4.004   1.201
36864SOL    HW112489   5.907   4.036   1.111
36864SOL    HW212490   5.972   3.935   1.203
36865SOL     OW12491   9.931   0.448   3.362
36865SOL    HW112492   9.989   0.381   3.397
36865SOL    HW212493   9.930   0.432   3.267
36866SOL     OW12494   2.098  14.313   8.938
36866SOL    HW112495   2.175  14.356   8.973
36866SOL    HW212496   2.038  14.384   8.916
36867SOL     OW12497  13.827   0.260  14.575
36867SOL    HW112498  13.860   0.227  14.492
36867SOL    HW212499  13.832   0.186  14.635
36868SOL     OW12500   1.732  14.008   0.394
36868SOL    HW112501   1.640  14.010   0.367
36868SOL    HW212502   1.737  14.069   0.468
36869SOL     OW12503   5.442   1.768   9.222
36869SOL    HW112504   5.502   1.841   9.206
36869SOL    HW212505   5.386   1.766   9.144
36870SOL     OW12506   9.282   9.306   1.180
36870SOL    HW112507   9.329   9.268   1.106
36870SOL    HW212508   9.218   9.365   1.140
36871SOL     OW12509   1.490   3.542   0.682
36871SOL    HW112510   1.536   3.595   0.747
36871SOL    HW212511   1.523   3.453   0.695
36872SOL     OW12512   6.201  11.955  11.848
36872SOL    HW112513   6.242  11.916  11.925
36872SOL    HW212514   6.137  12.016  11.884
36873SOL     OW12515   5.939   2.464  10.239
36873SOL    HW112516   6.002   2.433  10.304
36873SOL    HW212517   5.860   2.482  10.290
36874SOL     OW12518   0.365   4.139  12.922
36874SOL    HW112519   0.449   4.092  12.921
36874SOL    HW212520   0.313   4.095  12.855
36875SOL     OW12521   3.563   8.110   1.813
36875SOL    HW112522   3.566   8.203   1.790
36875SOL    HW212523   3.649   8.076   1.785
36876SOL     OW12524   5.730   8.546   2.276
36876SOL    HW112525   5.715   8.625   2.225
36876SOL    HW212526   5.649   8.534   2.326
36877SOL     OW12527  12.501   0.669   0.897
36877SOL    HW112528  12.450   0.706   0.824
36877SOL    HW212529  12.440   0.667   0.970
36878SOL     OW12530   0.793  12.243   5.777
36878SOL    HW112531   0.765  12.279   5.693
36878SOL    HW212532   0.757  12.154   5.779
36879SOL     OW12533   5.997  11.904   0.000
36879SOL    HW112534   5.935  11.831  14.865
36879SOL    HW212535   5.981  11.954  14.789
36880SOL     OW12536  13.206   4.890   9.772
36880SOL    HW112537  13.143   4.943   9.724
36880SOL    HW212538  13.204   4.925   9.861
36881SOL     OW12539   7.536   9.744   7.943
36881SOL    HW112540   7.473   9.770   7.876
36881SOL    HW212541   7.557   9.653   7.921
36882SOL     OW12542   6.253   7.540  12.833
36882SOL    HW112543   6.331   7.596  12.837
36882SOL    HW212544   6.180   7.602  12.830
36883SOL     OW12545   5.217   8.406   0.342
36883SOL    HW112546   5.140   8.389   0.396
36883SOL    HW212547   5.183   8.408   0.252
36884SOL     OW12548  14.739  13.696   4.964
36884SOL    HW112549  14.828  13.725   4.941
36884SOL    HW212550  14.702  13.667   4.880
36885SOL     OW12551  14.404   8.166  13.904
36885SOL    HW112552  14.323   8.117  13.922
36885SOL    HW212553  14.423   8.147  13.812
36886SOL     OW12554  11.650   1.807  10.777
36886SOL    HW112555  11.681   1.814  10.867
36886SOL    HW212556  11.636   1.898  10.749
36887SOL     OW12557   9.112   9.574   2.162
36887SOL    HW112558   9.142   9.549   2.074
36887SOL    HW212559   9.147   9.662   2.175
36888SOL     OW12560   1.996   5.524   0.053
36888SOL    HW112561   2.021   5.577   0.129
36888SOL    HW212562   2.007   5.434   0.082
36889SOL     OW12563  13.455  12.513  14.726
36889SOL    HW112564  13.373  12.545  14.687
36889SOL    HW212565  13.472  12.573  14.798
36890SOL     OW12566   6.579   0.908   4.694
36890SOL    HW112567   6.537   0.845   4.753
36890SOL    HW212568   6.507   0.951   4.649
36891SOL     OW12569   1.337  12.111   6.606
36891SOL    HW112570   1.263  12.171   6.594
36891SOL    HW212571   1.415  12.168   6.599
36892SOL     OW12572   1.897  12.795  13.896
36892SOL    HW112573   1.893  12.788  13.992
36892SOL    HW212574   1.822  12.744  13.865
36893SOL     OW12575  10.699   1.451   1.913
36893SOL    HW112576  10.747   1.443   1.830
36893SOL    HW212577  10.704   1.544   1.934
36894SOL     OW12578  10.934   7.636   6.474
36894SOL    HW112579  10.860   7.673   6.427
36894SOL    HW212580  11.007   7.642   6.412
36895SOL     OW12581   5.565   0.160   7.793
36895SOL    HW112582   5.481   0.115   7.805
36895SOL    HW212583   5.548   0.225   7.724
36896SOL     OW12584   6.549  14.104  14.531
36896SOL    HW112585   6.561  14.193  14.497
36896SOL    HW212586   6.466  14.075  14.493
36897SOL     OW12587  13.784   1.312  13.735
36897SOL    HW112588  13.822   1.399  13.745
36897SOL    HW212589  13.764   1.305  13.641
36898SOL     OW12590   8.831   8.221  14.303
36898SOL    HW112591   8.817   8.145  14.360
36898SOL    HW212592   8.891   8.277  14.352
36899SOL     OW12593   8.611  10.397   6.199
36899SOL    HW112594   8.612  10.412   6.104
36899SOL    HW212595   8.556  10.320   6.211
36900SOL     OW12596   4.401   5.101   7.632
36900SOL    HW112597   4.414   5.100   7.537
36900SOL    HW212598   4.331   5.165   7.646
36901SOL     OW12599   7.411   5.329   7.072
36901SOL    HW112600   7.502   5.353   7.091
36901SOL    HW212601   7.384   5.274   7.146
36902SOL     OW12602   6.235  14.726   6.671
36902SOL    HW112603   6.258  14.772   6.752
36902SOL    HW212604   6.207  14.639   6.701
36903SOL     OW12605   3.678   9.319   9.395
36903SOL    HW112606   3.646   9.318   9.485
36903SOL    HW212607   3.712   9.408   9.383
36904SOL     OW12608   4.722   8.523   6.975
36904SOL    HW112609   4.758   8.579   7.043
36904SOL    HW212610   4.706   8.439   7.018
36905SOL     OW12611  13.044  12.680  10.076
36905SOL    HW112612  13.082  12.766  10.095
36905SOL    HW212613  13.109  12.636  10.021
36906SOL     OW12614   0.080  11.691   8.294
36906SOL    HW112615   0.051  11.734   8.213
36906SOL    HW212616   0.088  11.599   8.270
36907SOL     OW12617   7.323   6.636   1.321
36907SOL    HW112618   7.329   6.630   1.417
36907SOL    HW212619   7.362   6.555   1.289
36908SOL     OW12620   7.724   7.533  11.049
36908SOL    HW112621   7.701   7.625  11.054
36908SOL    HW212622   7.728   7.504  11.140
36909SOL     OW12623  14.283   9.652   9.129
36909SOL    HW112624  14.294   9.607   9.045
36909SOL    HW212625  14.373   9.665   9.160
36910SOL     OW12626   4.941   7.600   1.272
36910SOL    HW112627   5.013   7.601   1.334
36910SOL    HW212628   4.863   7.587   1.326
36911SOL     OW12629   2.523   3.889  11.828
36911SOL    HW112630   2.517   3.978  11.793
36911SOL    HW212631   2.608   3.857  11.799
36912SOL     OW12632   1.088   6.764  13.782
36912SOL    HW112633   1.033   6.740  13.858
36912SOL    HW212634   1.086   6.686  13.727
36913SOL     OW12635   1.470   5.398   5.214
36913SOL    HW112636   1.424   5.339   5.274
36913SOL    HW212637   1.453   5.486   5.248
36914SOL     OW12638  12.658   4.006   4.515
36914SOL    HW112639  12.641   4.064   4.440
36914SOL    HW212640  12.748   3.976   4.501
36915SOL     OW12641  12.323  10.322   3.365
36915SOL    HW112642  12.402  10.287   3.405
36915SOL    HW212643  12.293  10.390   3.425
36916SOL     OW12644   9.874   4.683   0.846
36916SOL    HW112645   9.812   4.721   0.907
36916SOL    HW212646   9.931   4.628   0.900
36917SOL     OW12647   6.307   7.683   0.223
36917SOL    HW112648   6.228   7.684   0.277
36917SOL    HW212649   6.332   7.591   0.218
36918SOL     OW12650  12.582   0.295   3.277
36918SOL    HW112651  12.544   0.343   3.350
36918SOL    HW212652  12.621   0.362   3.221
36919SOL     OW12653   5.375  10.290  10.916
36919SOL    HW112654   5.421  10.292  10.999
36919SOL    HW212655   5.380  10.379  10.883
36920SOL     OW12656   5.974   4.908  13.450
36920SOL    HW112657   5.918   4.835  13.422
36920SOL    HW212658   6.063   4.874  13.443
36921SOL     OW12659   6.342   5.936   1.658
36921SOL    HW112660   6.406   5.994   1.616
36921SOL    HW212661   6.361   5.942   1.751
36922SOL     OW12662   5.590  12.351   0.833
36922SOL    HW112663   5.501  12.319   0.818
36922SOL    HW212664   5.637  12.328   0.753
36923SOL     OW12665   7.498   2.657   5.918
36923SOL    HW112666   7.466   2.746   5.905
36923SOL    HW212667   7.420   2.607   5.944
36924SOL     OW12668   0.274   1.773  14.827
36924SOL    HW112669   0.354   1.749  14.781
36924SOL    HW212670   0.295   1.764   0.050
36925SOL     OW12671   2.843   0.664   7.427
36925SOL    HW112672   2.827   0.722   7.501
36925SOL    HW212673   2.774   0.598   7.433
36926SOL     OW12674   9.829  12.691   0.165
36926SOL    HW112675   9.883  12.763   0.132
36926SOL    HW212676   9.842  12.692   0.260
36927SOL     OW12677  11.458   2.660  14.705
36927SOL    HW112678  11.554   2.661  14.699
36927SOL    HW212679  11.432   2.575  14.669
36928SOL     OW12680   5.024   8.776   6.628
36928SOL    HW112681   5.110   8.747   6.595
36928SOL    HW212682   4.995   8.706   6.686
36929SOL     OW12683  14.205  12.332   1.325
36929SOL    HW112684  14.133  12.376   1.371
36929SOL    HW212685  14.202  12.242   1.358
36930SOL     OW12686   7.232  10.470   0.880
36930SOL    HW112687   7.242  10.383   0.843
36930SOL    HW212688   7.290  10.472   0.956
36931SOL     OW12689   8.397   9.385   4.830
36931SOL    HW112690   8.305   9.412   4.838
36931SOL    HW212691   8.434   9.403   4.917
36932SOL     OW12692   4.381   6.070   8.342
36932SOL    HW112693   4.462   6.111   8.313
36932SOL    HW212694   4.321   6.078   8.267
36933SOL     OW12695   4.764   0.792  10.698
36933SOL    HW112696   4.842   0.735  10.695
36933SOL    HW212697   4.761   0.833  10.611
36934SOL     OW12698   4.315  14.766   9.291
36934SOL    HW112699   4.407  14.785   9.311
36934SOL    HW212700   4.276  14.748   9.376
36935SOL     OW12701   4.295   0.706  10.922
36935SOL    HW112702   4.274   0.613  10.918
36935SOL    HW212703   4.358   0.719  10.852
36936SOL     OW12704   1.783  12.122  14.183
36936SOL    HW112705   1.691  12.099  14.199
36936SOL    HW212706   1.832  12.047  14.217
36937SOL     OW12707  13.285  14.660   8.070
36937SOL    HW112708  13.356  14.597   8.084
36937SOL    HW212709  13.303  14.697   7.984
36938SOL     OW12710   5.475  13.400   2.215
36938SOL    HW112711   5.470  13.344   2.138
36938SOL    HW212712   5.384  13.415   2.241
36939SOL     OW12713   2.943   9.611   3.618
36939SOL    HW112714   2.991   9.529   3.632
36939SOL    HW212715   2.953   9.659   3.700
36940SOL     OW12716   6.432   7.793   3.265
36940SOL    HW112717   6.395   7.882   3.263
36940SOL    HW212718   6.516   7.804   3.310
36941SOL     OW12719   2.221   2.886   7.217
36941SOL    HW112720   2.146   2.878   7.157
36941SOL    HW212721   2.292   2.841   7.173
36942SOL     OW12722  10.514   3.236  13.884
36942SOL    HW112723  10.487   3.155  13.840
36942SOL    HW212724  10.454   3.303  13.851
36943SOL     OW12725   9.716   5.076  14.773
36943SOL    HW112726   9.808   5.049  14.780
36943SOL    HW212727   9.698   5.122  14.855
36944SOL     OW12728   1.403   2.064   6.709
36944SOL    HW112729   1.329   2.005   6.723
36944SOL    HW212730   1.458   2.053   6.786
36945SOL     OW12731   9.047  10.191  11.316
36945SOL    HW112732   9.057  10.263  11.253
36945SOL    HW212733   8.997  10.125  11.269
36946SOL     OW12734   3.924  12.091  11.776
36946SOL    HW112735   3.922  12.065  11.684
36946SOL    HW212736   3.998  12.152  11.783
36947SOL     OW12737  14.157   9.496  14.542
36947SOL    HW112738  14.251   9.481  14.531
36947SOL    HW212739  14.141   9.580  14.500
36948SOL     OW12740   4.798   1.682   5.581
36948SOL    HW112741   4.727   1.681   5.517
36948SOL    HW212742   4.802   1.592   5.614
36949SOL     OW12743   4.541   8.742   4.700
36949SOL    HW112744   4.464   8.690   4.678
36949SOL    HW212745   4.577   8.699   4.778
36950SOL     OW12746   9.983   7.339   4.102
36950SOL    HW112747   9.960   7.250   4.130
36950SOL    HW212748   9.988   7.333   4.006
36951SOL     OW12749  14.827   8.635  12.293
36951SOL    HW112750  14.852   8.604  12.206
36951SOL    HW212751  14.750   8.690  12.277
36952SOL     OW12752   0.341  13.699   6.072
36952SOL    HW112753   0.298  13.616   6.093
36952SOL    HW212754   0.340  13.748   6.154
36953SOL     OW12755  10.510   6.666   6.490
36953SOL    HW112756  10.451   6.591   6.499
36953SOL    HW212757  10.501   6.713   6.573
36954SOL     OW12758   8.332  11.648   3.441
36954SOL    HW112759   8.321  11.723   3.382
36954SOL    HW212760   8.283  11.577   3.399
36955SOL     OW12761  12.912   5.109  10.463
36955SOL    HW112762  12.900   5.105  10.558
36955SOL    HW212763  12.944   5.197  10.447
36956SOL     OW12764   9.038   5.969  10.193
36956SOL    HW112765   9.067   6.019  10.269
36956SOL    HW212766   9.079   5.883  10.203
36957SOL     OW12767   7.169   0.983   4.347
36957SOL    HW112768   7.102   0.916   4.347
36957SOL    HW212769   7.144   1.043   4.418
36958SOL     OW12770   0.049  11.500   7.333
36958SOL    HW112771   0.065  11.409   7.309
36958SOL    HW212772   0.136  11.536   7.350
36959SOL     OW12773   0.595   0.083  13.918
36959SOL    HW112774   0.658   0.040  13.860
36959SOL    HW212775   0.615   0.176  13.911
36960SOL     OW12776   0.241   9.502   8.129
36960SOL    HW112777   0.325   9.509   8.084
36960SOL    HW212778   0.217   9.593   8.149
36961SOL     OW12779   4.831   3.150   1.604
36961SOL    HW112780   4.894   3.198   1.658
36961SOL    HW212781   4.883   3.083   1.560
36962SOL     OW12782   8.257  11.869   3.618
36962SOL    HW112783   8.280  11.820   3.539
36962SOL    HW212784   8.266  11.806   3.690
36963SOL     OW12785   7.612   8.270   2.788
36963SOL    HW112786   7.646   8.302   2.704
36963SOL    HW212787   7.549   8.337   2.816
36964SOL     OW12788   2.941  10.581   7.153
36964SOL    HW112789   2.935  10.486   7.144
36964SOL    HW212790   2.971  10.595   7.243
36965SOL     OW12791  10.453   1.884   8.710
36965SOL    HW112792  10.400   1.870   8.788
36965SOL    HW212793  10.532   1.928   8.742
36966SOL     OW12794   9.427  10.646  11.166
36966SOL    HW112795   9.521  10.642  11.150
36966SOL    HW212796   9.401  10.554  11.179
36967SOL     OW12797   0.542   9.700   3.767
36967SOL    HW112798   0.588   9.734   3.844
36967SOL    HW212799   0.595   9.625   3.738
36968SOL     OW12800   6.899  10.695   2.873
36968SOL    HW112801   6.984  10.699   2.828
36968SOL    HW212802   6.908  10.755   2.947
36969SOL     OW12803  10.871   0.310   9.291
36969SOL    HW112804  10.851   0.374   9.222
36969SOL    HW212805  10.807   0.329   9.360
36970SOL     OW12806   4.961  10.801   9.961
36970SOL    HW112807   5.000  10.715   9.977
36970SOL    HW212808   4.871  10.793   9.993
36971SOL     OW12809   7.781   5.398   4.915
36971SOL    HW112810   7.753   5.486   4.895
36971SOL    HW212811   7.837   5.373   4.841
36972SOL     OW12812   7.127  13.206   9.488
36972SOL    HW112813   7.067  13.280   9.478
36972SOL    HW212814   7.092  13.156   9.561
36973SOL     OW12815   0.057   6.358   7.718
36973SOL    HW112816  14.847   6.342   7.770
36973SOL    HW212817   0.031   6.426   7.656
36974SOL     OW12818   9.135   6.304   8.460
36974SOL    HW112819   9.050   6.262   8.472
36974SOL    HW212820   9.114   6.388   8.417
36975SOL     OW12821   4.476   5.060   7.370
36975SOL    HW112822   4.489   5.069   7.276
36975SOL    HW212823   4.453   4.968   7.382
36976SOL     OW12824   4.387   3.785   1.823
36976SOL    HW112825   4.379   3.690   1.837
36976SOL    HW212826   4.466   3.809   1.871
36977SOL     OW12827   3.741  12.747  13.984
36977SOL    HW112828   3.734  12.722  14.077
36977SOL    HW212829   3.754  12.841  13.986
36978SOL     OW12830   7.868   3.935   9.727
36978SOL    HW112831   7.939   3.889   9.681
36978SOL    HW212832   7.790   3.882   9.709
36979SOL     OW12833   3.916   2.227   6.652
36979SOL    HW112834   3.926   2.190   6.740
36979SOL    HW212835   4.005   2.247   6.624
36980SOL     OW12836   2.993   7.912   9.042
36980SOL    HW112837   2.960   7.997   9.012
36980SOL    HW212838   3.004   7.861   8.962
36981SOL     OW12839   8.570   7.342  13.385
36981SOL    HW112840   8.623   7.327  13.307
36981SOL    HW212841   8.634   7.356  13.455
36982SOL     OW12842  11.701  11.021   1.616
36982SOL    HW112843  11.737  10.956   1.556
36982SOL    HW212844  11.732  11.105   1.581
36983SOL     OW12845   5.608  13.381   0.807
36983SOL    HW112846   5.566  13.299   0.781
36983SOL    HW212847   5.701  13.362   0.804
36984SOL     OW12848   9.392   2.264  11.959
36984SOL    HW112849   9.371   2.224  12.044
36984SOL    HW212850   9.437   2.345  11.981
36985SOL     OW12851  10.917   0.554  11.287
36985SOL    HW112852  10.955   0.536  11.374
36985SOL    HW212853  10.990   0.543  11.227
36986SOL     OW12854   2.180  13.525   3.794
36986SOL    HW112855   2.179  13.435   3.824
36986SOL    HW212856   2.092  13.541   3.760
36987SOL     OW12857   2.186   2.552   7.279
36987SOL    HW112858   2.275   2.574   7.306
36987SOL    HW212859   2.193   2.463   7.245
36988SOL     OW12860  14.322  13.475   5.590
36988SOL    HW112861  14.395  13.492   5.649
36988SOL    HW212862  14.353  13.406   5.531
36989SOL     OW12863   8.715  12.057   9.180
36989SOL    HW112864   8.762  12.112   9.117
36989SOL    HW212865   8.782  11.998   9.215
36990SOL     OW12866   5.954  12.290   7.661
36990SOL    HW112867   5.972  12.228   7.732
36990SOL    HW212868   6.040  12.323   7.635
36991SOL     OW12869   9.744  13.534  14.246
36991SOL    HW112870   9.730  13.606  14.308
36991SOL    HW212871   9.734  13.574  14.160
36992SOL     OW12872   2.388   3.937  11.023
36992SOL    HW112873   2.469   3.915  11.070
36992SOL    HW212874   2.411   4.014  10.971
36993SOL     OW12875   6.000   3.614  12.228
36993SOL    HW112876   5.927   3.590  12.286
36993SOL    HW212877   5.982   3.567  12.147
36994SOL     OW12878   3.032  11.655   3.696
36994SOL    HW112879   3.049  11.712   3.771
36994SOL    HW212880   3.117  11.649   3.651
36995SOL     OW12881   7.431   5.180   4.631
36995SOL    HW112882   7.485   5.101   4.637
36995SOL    HW212883   7.344   5.149   4.605
36996SOL     OW12884   6.287   4.867  10.631
36996SOL    HW112885   6.294   4.838  10.540
36996SOL    HW212886   6.309   4.960  10.627
36997SOL     OW12887   4.756  14.553   9.226
36997SOL    HW112888   4.765  14.594   9.312
36997SOL    HW212889   4.839  14.572   9.181
36998SOL     OW12890   8.326   9.151  14.036
36998SOL    HW112891   8.364   9.105  14.111
36998SOL    HW212892   8.275   9.084  13.991
36999SOL     OW12893   8.927   2.642   1.517
36999SOL    HW112894   8.959   2.552   1.529
36999SOL    HW212895   8.953   2.665   1.428
37000SOL     OW12896   9.508   8.850  10.578
37000SOL    HW112897   9.413   8.861  10.570
37000SOL    HW212898   9.544   8.898  10.503
37001SOL     OW12899   9.411   3.599   8.277
37001SOL    HW112900   9.505   3.613   8.271
37001SOL    HW212901   9.375   3.686   8.296
37002SOL     OW12902   3.814   8.410  12.013
37002SOL    HW112903   3.772   8.493  12.036
37002SOL    HW212904   3.788   8.395  11.922
37003SOL     OW12905  11.882   4.365  14.656
37003SOL    HW112906  11.900   4.300  14.588
37003SOL    HW212907  11.861   4.445  14.608
37004SOL     OW12908   1.316   6.767  14.487
37004SOL    HW112909   1.403   6.768  14.447
37004SOL    HW212910   1.309   6.850  14.534
37005SOL     OW12911   9.595  13.667   9.110
37005SOL    HW112912   9.537  13.677   9.035
37005SOL    HW212913   9.537  13.672   9.186
37006SOL     OW12914   3.435  14.376   5.202
37006SOL    HW112915   3.521  14.335   5.192
37006SOL    HW212916   3.386  14.317   5.260
37007SOL     OW12917  14.754  12.939   8.165
37007SOL    HW112918  14.744  12.888   8.245
37007SOL    HW212919  14.673  12.991   8.160
37008SOL     OW12920   5.328  13.523  12.320
37008SOL    HW112921   5.398  13.580  12.288
37008SOL    HW212922   5.284  13.491  12.242
37009SOL     OW12923  10.282   9.312   7.582
37009SOL    HW112924  10.336   9.383   7.616
37009SOL    HW212925  10.208   9.356   7.539
37010SOL     OW12926  10.937  10.183  10.447
37010SOL    HW112927  10.955  10.098  10.488
37010SOL    HW212928  10.976  10.176  10.360
37011SOL     OW12929   4.116   6.715  13.145
37011SOL    HW112930   4.166   6.708  13.064
37011SOL    HW212931   4.030   6.747  13.119
37012SOL     OW12932   0.864  13.898   8.738
37012SOL    HW112933   0.817  13.969   8.693
37012SOL    HW212934   0.795  13.837   8.763
37013SOL     OW12935  13.355  12.958   8.647
37013SOL    HW112936  13.349  13.036   8.592
37013SOL    HW212937  13.389  12.990   8.731
37014SOL     OW12938  13.866   4.973   8.677
37014SOL    HW112939  13.940   5.031   8.695
37014SOL    HW212940  13.792   5.032   8.666
37015SOL     OW12941   1.644   9.661   1.856
37015SOL    HW112942   1.739   9.648   1.861
37015SOL    HW212943   1.625   9.666   1.762
37016SOL     OW12944   7.972  13.440  11.744
37016SOL    HW112945   7.924  13.393  11.676
37016SOL    HW212946   8.062  13.444  11.712
37017SOL     OW12947   5.284   1.938   1.821
37017SOL    HW112948   5.232   1.957   1.898
37017SOL    HW212949   5.362   1.993   1.829
37018SOL     OW12950   3.141   8.853   5.376
37018SOL    HW112951   3.157   8.771   5.423
37018SOL    HW212952   3.052   8.878   5.402
37019SOL     OW12953   6.173   5.648  10.865
37019SOL    HW112954   6.216   5.705  10.928
37019SOL    HW212955   6.211   5.561  10.882
37020SOL     OW12956   5.160  11.281   2.351
37020SOL    HW112957   5.126  11.367   2.378
37020SOL    HW212958   5.246  11.276   2.391
37021SOL     OW12959   2.567   5.792  11.005
37021SOL    HW112960   2.647   5.844  11.013
37021SOL    HW212961   2.535   5.810  10.917
37022SOL     OW12962   2.673   7.748   6.282
37022SOL    HW112963   2.763   7.780   6.274
37022SOL    HW212964   2.678   7.655   6.259
37023SOL     OW12965   4.231   4.415  12.499
37023SOL    HW112966   4.254   4.506  12.481
37023SOL    HW212967   4.135   4.415  12.505
37024SOL     OW12968   5.348   6.126   9.384
37024SOL    HW112969   5.276   6.113   9.323
37024SOL    HW212970   5.363   6.040   9.423
37025SOL     OW12971   8.040  12.894   1.343
37025SOL    HW112972   8.082  12.912   1.259
37025SOL    HW212973   8.095  12.941   1.407
37026SOL     OW12974   9.550   3.983   0.951
37026SOL    HW112975   9.639   3.997   0.917
37026SOL    HW212976   9.562   3.978   1.046
37027SOL     OW12977   2.960   3.836  10.605
37027SOL    HW112978   2.956   3.744  10.632
37027SOL    HW212979   2.869   3.858  10.581
37028SOL     OW12980   3.583  14.329  14.246
37028SOL    HW112981   3.614  14.331  14.156
37028SOL    HW212982   3.552  14.418  14.262
37029SOL     OW12983  12.603   9.373  11.019
37029SOL    HW112984  12.685   9.414  11.048
37029SOL    HW212985  12.564   9.337  11.098
37030SOL     OW12986   6.876   8.820   7.451
37030SOL    HW112987   6.861   8.770   7.532
37030SOL    HW212988   6.838   8.766   7.382
37031SOL     OW12989   3.873   1.064   5.986
37031SOL    HW112990   3.880   1.138   5.926
37031SOL    HW212991   3.898   1.100   6.071
37032SOL     OW12992   2.922   7.626   5.762
37032SOL    HW112993   2.939   7.590   5.675
37032SOL    HW212994   2.830   7.654   5.759
37033SOL     OW12995   4.293  14.475   4.520
37033SOL    HW112996   4.341  14.546   4.563
37033SOL    HW212997   4.319  14.396   4.565
37034SOL     OW12998  13.873   5.849   1.119
37034SOL    HW112999  13.894   5.908   1.047
37034SOL    HW213000  13.943   5.785   1.120
37035SOL     OW13001   5.566   0.584   8.247
37035SOL    HW113002   5.565   0.517   8.315
37035SOL    HW213003   5.619   0.654   8.283
37036SOL     OW13004   9.268   9.412   9.115
37036SOL    HW113005   9.362   9.398   9.106
37036SOL    HW213006   9.243   9.360   9.192
37037SOL     OW13007   0.896   8.731   9.030
37037SOL    HW113008   0.974   8.697   9.074
37037SOL    HW213009   0.920   8.735   8.937
37038SOL     OW13010   4.216  12.632   3.929
37038SOL    HW113011   4.130  12.619   3.889
37038SOL    HW213012   4.267  12.678   3.863
37039SOL     OW13013   6.142   7.628   7.878
37039SOL    HW113014   6.208   7.582   7.827
37039SOL    HW213015   6.183   7.643   7.963
37040SOL     OW13016   8.877   2.490   7.316
37040SOL    HW113017   8.873   2.431   7.391
37040SOL    HW213018   8.958   2.465   7.270
37041SOL     OW13019  14.362  10.431   0.947
37041SOL    HW113020  14.385  10.393   1.032
37041SOL    HW213021  14.360  10.525   0.962
37042SOL     OW13022  11.860   0.758  14.528
37042SOL    HW113023  11.827   0.690  14.586
37042SOL    HW213024  11.923   0.714  14.471
37043SOL     OW13025   3.605  10.532   2.408
37043SOL    HW113026   3.664  10.604   2.432
37043SOL    HW213027   3.604  10.533   2.313
37044SOL     OW13028   8.421   6.812   3.563
37044SOL    HW113029   8.491   6.866   3.528
37044SOL    HW213030   8.464   6.751   3.623
37045SOL     OW13031   2.701  12.998   8.302
37045SOL    HW113032   2.782  12.962   8.264
37045SOL    HW213033   2.700  12.964   8.392
37046SOL     OW13034   2.818   2.363   0.196
37046SOL    HW113035   2.903   2.399   0.171
37046SOL    HW213036   2.755   2.432   0.175
37047SOL     OW13037   5.355  14.149   3.174
37047SOL    HW113038   5.368  14.055   3.187
37047SOL    HW213039   5.433  14.190   3.213
37048SOL     OW13040   0.636   4.372   2.307
37048SOL    HW113041   0.663   4.295   2.258
37048SOL    HW213042   0.693   4.442   2.276
37049SOL     OW13043  11.905   1.957  11.409
37049SOL    HW113044  11.899   2.045  11.372
37049SOL    HW213045  11.819   1.917  11.391
37050SOL     OW13046   7.997   9.987   9.618
37050SOL    HW113047   8.017   9.896   9.598
37050SOL    HW213048   8.079  10.034   9.606
37051SOL     OW13049   4.043   6.934   5.889
37051SOL    HW113050   4.107   6.964   5.823
37051SOL    HW213051   3.958   6.944   5.846
37052SOL     OW13052  13.853  13.366  12.363
37052SOL    HW113053  13.931  13.337  12.316
37052SOL    HW213054  13.859  13.461  12.365
37053SOL     OW13055   6.601   9.330  13.333
37053SOL    HW113056   6.573   9.240  13.352
37053SOL    HW213057   6.695   9.329  13.352
37054SOL     OW13058   5.060   6.531  14.413
37054SOL    HW113059   5.034   6.622  14.425
37054SOL    HW213060   5.128   6.518  14.479
37055SOL     OW13061   7.878   4.014   0.355
37055SOL    HW113062   7.943   3.946   0.341
37055SOL    HW213063   7.794   3.971   0.336
37056SOL     OW13064   3.398   1.805   0.577
37056SOL    HW113065   3.327   1.864   0.602
37056SOL    HW213066   3.458   1.807   0.652
37057SOL     OW13067  10.068   0.156   2.725
37057SOL    HW113068  10.031   0.238   2.693
37057SOL    HW213069   9.996   0.093   2.718
37058SOL     OW13070   0.847   4.754  12.131
37058SOL    HW113071   0.814   4.665  12.125
37058SOL    HW213072   0.921   4.757  12.071
37059SOL     OW13073  10.501  14.017   4.384
37059SOL    HW113074  10.574  14.004   4.323
37059SOL    HW213075  10.505  14.110   4.405
37060SOL     OW13076   7.014   3.506   0.794
37060SOL    HW113077   6.976   3.473   0.713
37060SOL    HW213078   7.057   3.588   0.768
37061SOL     OW13079  11.847  14.297  11.613
37061SOL    HW113080  11.818  14.364  11.676
37061SOL    HW213081  11.894  14.233  11.666
37062SOL     OW13082  13.343  10.659   5.554
37062SOL    HW113083  13.435  10.672   5.576
37062SOL    HW213084  13.304  10.746   5.561
37063SOL     OW13085  12.355   7.935   8.233
37063SOL    HW113086  12.376   7.957   8.324
37063SOL    HW213087  12.427   7.878   8.206
37064SOL     OW13088  14.178   1.998   6.007
37064SOL    HW113089  14.155   1.943   6.082
37064SOL    HW213090  14.215   2.077   6.046
37065SOL     OW13091   6.890   3.834   8.005
37065SOL    HW113092   6.929   3.815   8.091
37065SOL    HW213093   6.826   3.902   8.022
37066SOL     OW13094  13.132   9.739  13.960
37066SOL    HW113095  13.054   9.755  13.906
37066SOL    HW213096  13.120   9.796  14.037
37067SOL     OW13097  14.698   9.650   5.605
37067SOL    HW113098  14.772   9.618   5.553
37067SOL    HW213099  14.635   9.577   5.604
37068SOL     OW13100   7.548   2.904  10.891
37068SOL    HW113101   7.457   2.909  10.921
37068SOL    HW213102   7.563   2.988  10.847
37069SOL     OW13103   0.287   4.993  12.103
37069SOL    HW113104   0.262   5.085  12.114
37069SOL    HW213105   0.305   4.963  12.192
37070SOL     OW13106   7.892   1.999   5.498
37070SOL    HW113107   7.885   1.911   5.535
37070SOL    HW213108   7.803   2.021   5.472
37071SOL     OW13109   9.916   8.309   6.004
37071SOL    HW113110   9.904   8.368   5.930
37071SOL    HW213111   9.830   8.268   6.017
37072SOL     OW13112  14.619   7.869  12.759
37072SOL    HW113113  14.655   7.829  12.680
37072SOL    HW213114  14.531   7.831  12.766
37073SOL     OW13115   1.972   7.148   5.005
37073SOL    HW113116   2.001   7.237   4.987
37073SOL    HW213117   1.880   7.157   5.029
37074SOL     OW13118  11.538   5.935   3.654
37074SOL    HW113119  11.497   6.011   3.693
37074SOL    HW213120  11.521   5.864   3.715
37075SOL     OW13121  14.677   9.449  10.650
37075SOL    HW113122  14.647   9.487  10.567
37075SOL    HW213123  14.625   9.369  10.659
37076SOL     OW13124   5.942   3.112   2.428
37076SOL    HW113125   5.883   3.041   2.452
37076SOL    HW213126   6.005   3.072   2.369
37077SOL     OW13127   3.176  13.909   3.131
37077SOL    HW113128   3.155  13.816   3.142
37077SOL    HW213129   3.091  13.951   3.116
37078SOL     OW13130   4.508   1.191   7.641
37078SOL    HW113131   4.419   1.183   7.610
37078SOL    HW213132   4.503   1.169   7.734
37079SOL     OW13133   4.625   0.608   6.709
37079SOL    HW113134   4.690   0.670   6.676
37079SOL    HW213135   4.647   0.525   6.667
37080SOL     OW13136  14.100   7.115  13.413
37080SOL    HW113137  14.150   7.198  13.414
37080SOL    HW213138  14.167   7.048  13.403
37081SOL     OW13139   7.672  13.607   7.147
37081SOL    HW113140   7.697  13.673   7.212
37081SOL    HW213141   7.602  13.649   7.097
37082SOL     OW13142  14.556  11.706  14.737
37082SOL    HW113143  14.616  11.644  14.696
37082SOL    HW213144  14.584  11.711  14.828
37083SOL     OW13145   5.493   7.818   7.655
37083SOL    HW113146   5.425   7.882   7.674
37083SOL    HW213147   5.474   7.746   7.715
37084SOL     OW13148   8.440  13.658   6.408
37084SOL    HW113149   8.500  13.622   6.343
37084SOL    HW213150   8.363  13.686   6.358
37085SOL     OW13151  10.815   7.449  13.745
37085SOL    HW113152  10.756   7.505  13.695
37085SOL    HW213153  10.901   7.463  13.705
37086SOL     OW13154   0.741  10.828   6.899
37086SOL    HW113155   0.670  10.764   6.905
37086SOL    HW213156   0.761  10.851   6.990
37087SOL     OW13157   9.592   2.533   4.138
37087SOL    HW113158   9.625   2.486   4.214
37087SOL    HW213159   9.645   2.613   4.135
37088SOL     OW13160   1.303   7.245  13.881
37088SOL    HW113161   1.233   7.183  13.904
37088SOL    HW213162   1.284   7.322  13.934
37089SOL     OW13163   6.359  10.343   9.166
37089SOL    HW113164   6.437  10.396   9.153
37089SOL    HW213165   6.390  10.267   9.215
37090SOL     OW13166  10.043   0.319   8.359
37090SOL    HW113167  10.107   0.375   8.314
37090SOL    HW213168   9.968   0.318   8.300
37091SOL     OW13169   7.139  14.631   6.890
37091SOL    HW113170   7.092  14.679   6.822
37091SOL    HW213171   7.230  14.658   6.881
37092SOL     OW13172  14.475   9.476   3.502
37092SOL    HW113173  14.416   9.426   3.557
37092SOL    HW213174  14.520   9.410   3.449
37093SOL     OW13175  13.462   3.351  13.645
37093SOL    HW113176  13.517   3.396  13.709
37093SOL    HW213177  13.426   3.276  13.691
37094SOL     OW13178  14.687  12.193   8.981
37094SOL    HW113179  14.722  12.206   9.069
37094SOL    HW213180  14.759  12.155   8.931
37095SOL     OW13181   6.836   6.156   2.716
37095SOL    HW113182   6.875   6.081   2.671
37095SOL    HW213183   6.873   6.152   2.805
37096SOL     OW13184   9.262   3.115  12.851
37096SOL    HW113185   9.314   3.053  12.903
37096SOL    HW213186   9.308   3.120  12.767
37097SOL     OW13187  14.224  14.781   4.348
37097SOL    HW113188  14.199  14.689   4.336
37097SOL    HW213189  14.236  14.790   4.443
37098SOL     OW13190   8.185   5.741  10.329
37098SOL    HW113191   8.153   5.719  10.242
37098SOL    HW213192   8.275   5.772  10.315
37099SOL     OW13193   5.665   4.840   2.471
37099SOL    HW113194   5.641   4.837   2.378
37099SOL    HW213195   5.625   4.762   2.509
37100SOL     OW13196   8.386  11.618   1.004
37100SOL    HW113197   8.341  11.643   1.085
37100SOL    HW213198   8.386  11.698   0.951
37101SOL     OW13199   5.792   4.715  12.721
37101SOL    HW113200   5.720   4.733  12.782
37101SOL    HW213201   5.857   4.669  12.774
37102SOL     OW13202   3.912  14.638  14.587
37102SOL    HW113203   3.840  14.582  14.560
37102SOL    HW213204   3.975  14.632  14.514
37103SOL     OW13205   4.383  11.590   6.261
37103SOL    HW113206   4.303  11.587   6.209
37103SOL    HW213207   4.454  11.586   6.197
37104SOL     OW13208   9.486  14.126   1.053
37104SOL    HW113209   9.438  14.206   1.073
37104SOL    HW213210   9.573  14.139   1.089
37105SOL     OW13211   3.384  12.134   5.756
37105SOL    HW113212   3.332  12.215   5.760
37105SOL    HW213213   3.410  12.118   5.847
37106SOL     OW13214   0.724   8.806   1.387
37106SOL    HW113215   0.757   8.890   1.355
37106SOL    HW213216   0.649   8.787   1.331
37107SOL     OW13217  10.884  10.029   0.045
37107SOL    HW113218  10.886  10.032  14.818
37107SOL    HW213219  10.901   9.937   0.066
37108SOL     OW13220  13.155  14.551   9.734
37108SOL    HW113221  13.100  14.624   9.761
37108SOL    HW213222  13.236  14.592   9.705
37109SOL     OW13223   4.846  12.918   3.869
37109SOL    HW113224   4.872  12.829   3.843
37109SOL    HW213225   4.906  12.975   3.822
37110SOL     OW13226   3.024   7.945   7.094
37110SOL    HW113227   3.117   7.962   7.077
37110SOL    HW213228   2.992   7.906   7.013
37111SOL     OW13229  13.700  10.442   5.624
37111SOL    HW113230  13.660  10.382   5.561
37111SOL    HW213231  13.765  10.389   5.670
37112SOL     OW13232  13.659   4.423   0.777
37112SOL    HW113233  13.591   4.466   0.830
37112SOL    HW213234  13.708   4.370   0.839
37113SOL     OW13235   7.126  12.874  12.148
37113SOL    HW113236   7.168  12.801  12.101
37113SOL    HW213237   7.192  12.944  12.147
37114SOL     OW13238   7.048   3.554   9.623
37114SOL    HW113239   7.078   3.547   9.532
37114SOL    HW213240   6.988   3.481   9.634
37115SOL     OW13241  14.321   0.718  10.814
37115SOL    HW113242  14.372   0.797  10.798
37115SOL    HW213243  14.290   0.727  10.905
37116SOL     OW13244   9.629  10.982  14.269
37116SOL    HW113245   9.682  11.039  14.324
37116SOL    HW213246   9.613  11.034  14.190
37117SOL     OW13247   6.476  10.201   3.718
37117SOL    HW113248   6.423  10.123   3.704
37117SOL    HW213249   6.423  10.272   3.681
37118SOL     OW13250   3.932   5.014  12.801
37118SOL    HW113251   3.852   4.962  12.795
37118SOL    HW213252   3.915   5.076  12.872
37119SOL     OW13253  11.479  12.537  11.734
37119SOL    HW113254  11.504  12.444  11.732
37119SOL    HW213255  11.389  12.536  11.768
37120SOL     OW13256  10.040  10.679   7.519
37120SOL    HW113257   9.945  10.696   7.517
37120SOL    HW213258  10.064  10.692   7.611
37121SOL     OW13259   3.668   7.708  14.227
37121SOL    HW113260   3.749   7.757  14.243
37121SOL    HW213261   3.667   7.694  14.132
37122SOL     OW13262  11.726   7.001   9.293
37122SOL    HW113263  11.659   6.954   9.243
37122SOL    HW213264  11.683   7.020   9.377
37123SOL     OW13265   6.748  12.961   4.003
37123SOL    HW113266   6.770  12.991   3.915
37123SOL    HW213267   6.685  13.026   4.036
37124SOL     OW13268   2.438  14.506   6.224
37124SOL    HW113269   2.502  14.533   6.289
37124SOL    HW213270   2.450  14.411   6.217
37125SOL     OW13271  14.442   9.027   1.865
37125SOL    HW113272  14.403   8.949   1.824
37125SOL    HW213273  14.424   9.098   1.804
37126SOL     OW13274   5.998  14.599  11.781
37126SOL    HW113275   5.964  14.519  11.821
37126SOL    HW213276   5.920  14.645  11.749
37127SOL     OW13277  10.919  11.580  12.563
37127SOL    HW113278  10.978  11.572  12.488
37127SOL    HW213279  10.835  11.603  12.525
37128SOL     OW13280  11.121  12.736  10.100
37128SOL    HW113281  11.064  12.666  10.131
37128SOL    HW213282  11.163  12.701  10.022
37129SOL     OW13283   8.425   4.737   8.884
37129SOL    HW113284   8.466   4.714   8.801
37129SOL    HW213285   8.394   4.827   8.872
37130SOL     OW13286   1.183  10.826   0.183
37130SOL    HW113287   1.248  10.777   0.233
37130SOL    HW213288   1.122  10.760   0.151
37131SOL     OW13289   9.264   2.280   3.396
37131SOL    HW113290   9.287   2.279   3.303
37131SOL    HW213291   9.265   2.373   3.420
37132SOL     OW13292   9.166   8.604   0.427
37132SOL    HW113293   9.217   8.651   0.494
37132SOL    HW213294   9.079   8.642   0.433
37133SOL     OW13295  13.207  11.219   3.663
37133SOL    HW113296  13.210  11.169   3.582
37133SOL    HW213297  13.136  11.179   3.713
37134SOL     OW13298  11.496   2.500  12.188
37134SOL    HW113299  11.473   2.532  12.276
37134SOL    HW213300  11.456   2.413  12.183
37135SOL     OW13301   0.035   0.626  12.628
37135SOL    HW113302   0.117   0.654  12.587
37135SOL    HW213303   0.053   0.539  12.662
37136SOL     OW13304   8.643   7.090  14.189
37136SOL    HW113305   8.628   7.044  14.272
37136SOL    HW213306   8.606   7.177  14.203
37137SOL     OW13307   3.635   6.276   6.121
37137SOL    HW113308   3.727   6.298   6.105
37137SOL    HW213309   3.634   6.245   6.211
37138SOL     OW13310   8.121   0.133   5.818
37138SOL    HW113311   8.185   0.160   5.753
37138SOL    HW213312   8.172   0.086   5.885
37139SOL     OW13313   9.512  12.545   5.359
37139SOL    HW113314   9.584  12.510   5.307
37139SOL    HW213315   9.437  12.547   5.299
37140SOL     OW13316   3.190  11.285   2.564
37140SOL    HW113317   3.118  11.281   2.627
37140SOL    HW213318   3.157  11.238   2.487
37141SOL     OW13319  14.822  11.406   2.326
37141SOL    HW113320  14.785  11.378   2.410
37141SOL    HW213321  14.747  11.407   2.267
37142SOL     OW13322  11.460   1.529  12.940
37142SOL    HW113323  11.400   1.465  12.904
37142SOL    HW213324  11.543   1.482  12.949
37143SOL     OW13325   7.870   9.508  10.291
37143SOL    HW113326   7.855   9.602  10.297
37143SOL    HW213327   7.862   9.488  10.198
37144SOL     OW13328  10.136   0.842   2.068
37144SOL    HW113329  10.070   0.775   2.087
37144SOL    HW213330  10.164   0.823   1.978
37145SOL     OW13331   4.295  11.549   3.284
37145SOL    HW113332   4.334  11.563   3.370
37145SOL    HW213333   4.225  11.614   3.279
37146SOL     OW13334  10.787   2.649  11.604
37146SOL    HW113335  10.729   2.576  11.622
37146SOL    HW213336  10.730   2.725  11.599
37147SOL     OW13337   2.172   3.523   6.431
37147SOL    HW113338   2.195   3.480   6.514
37147SOL    HW213339   2.110   3.463   6.390
37148SOL     OW13340   6.682   1.829  12.939
37148SOL    HW113341   6.611   1.764  12.940
37148SOL    HW213342   6.719   1.823  12.851
37149SOL     OW13343  11.390  10.028   1.007
37149SOL    HW113344  11.482  10.052   1.014
37149SOL    HW213345  11.358  10.077   0.931
37150SOL     OW13346   3.005  12.029  13.854
37150SOL    HW113347   2.996  12.104  13.913
37150SOL    HW213348   3.057  12.062  13.781
37151SOL     OW13349  11.447   0.738  13.895
37151SOL    HW113350  11.501   0.662  13.876
37151SOL    HW213351  11.401   0.715  13.977
37152SOL     OW13352   1.585  10.365   6.999
37152SOL    HW113353   1.621  10.346   6.912
37152SOL    HW213354   1.500  10.405   6.981
37153SOL     OW13355   0.689  12.166   7.426
37153SOL    HW113356   0.731  12.081   7.420
37153SOL    HW213357   0.621  12.165   7.359
37154SOL     OW13358   4.941   9.354   7.598
37154SOL    HW113359   4.997   9.297   7.544
37154SOL    HW213360   4.983   9.440   7.593
37155SOL     OW13361   6.621   1.769  13.650
37155SOL    HW113362   6.576   1.731  13.575
37155SOL    HW213363   6.705   1.723  13.654
37156SOL     OW13364   0.258   4.779  10.624
37156SOL    HW113365   0.250   4.743  10.536
37156SOL    HW213366   0.235   4.872  10.613
37157SOL     OW13367   8.021   1.585   4.295
37157SOL    HW113368   8.017   1.617   4.385
37157SOL    HW213369   8.084   1.513   4.299
37158SOL     OW13370   7.837   0.551   8.937
37158SOL    HW113371   7.857   0.465   8.974
37158SOL    HW213372   7.768   0.586   8.993
37159SOL     OW13373   3.404   2.396   6.459
37159SOL    HW113374   3.323   2.443   6.477
37159SOL    HW213375   3.388   2.350   6.377
37160SOL     OW13376   5.522   2.923  14.800
37160SOL    HW113377   5.527   2.848  14.740
37160SOL    HW213378   5.602   2.973  14.782
37161SOL     OW13379   3.122   8.636   6.751
37161SOL    HW113380   3.191   8.616   6.814
37161SOL    HW213381   3.158   8.609   6.667
37162SOL     OW13382   0.830  12.876  13.713
37162SOL    HW113383   0.913  12.868  13.665
37162SOL    HW213384   0.766  12.836  13.654
37163SOL     OW13385   0.328   1.759   9.245
37163SOL    HW113386   0.401   1.700   9.227
37163SOL    HW213387   0.280   1.763   9.162
37164SOL     OW13388  13.969  13.769   2.232
37164SOL    HW113389  13.913  13.833   2.277
37164SOL    HW213390  13.912  13.694   2.218
37165SOL     OW13391   6.542   1.381   7.809
37165SOL    HW113392   6.547   1.421   7.897
37165SOL    HW213393   6.463   1.419   7.771
37166SOL     OW13394   3.000  13.398  10.618
37166SOL    HW113395   3.024  13.442  10.700
37166SOL    HW213396   3.041  13.452  10.550
37167SOL     OW13397   3.609  14.399   6.611
37167SOL    HW113398   3.701  14.372   6.611
37167SOL    HW213399   3.601  14.457   6.686
37168SOL     OW13400   3.437   5.126   0.703
37168SOL    HW113401   3.523   5.150   0.736
37168SOL    HW213402   3.454   5.090   0.615
37169SOL     OW13403   4.587   3.876   3.430
37169SOL    HW113404   4.662   3.934   3.420
37169SOL    HW213405   4.554   3.894   3.519
37170SOL     OW13406  11.022  11.702  14.543
37170SOL    HW113407  10.952  11.642  14.569
37170SOL    HW213408  11.077  11.651  14.484
37171SOL     OW13409   0.233   0.658   0.849
37171SOL    HW113410   0.265   0.694   0.932
37171SOL    HW213411   0.256   0.724   0.784
37172SOL     OW13412  11.897   1.790   6.209
37172SOL    HW113413  11.933   1.749   6.288
37172SOL    HW213414  11.869   1.877   6.238
37173SOL     OW13415   9.926   9.232   1.541
37173SOL    HW113416   9.924   9.149   1.493
37173SOL    HW213417   9.861   9.220   1.611
37174SOL     OW13418   2.249   0.662  13.424
37174SOL    HW113419   2.304   0.737  13.448
37174SOL    HW213420   2.244   0.666  13.329
37175SOL     OW13421  14.419  12.975   9.257
37175SOL    HW113422  14.447  12.902   9.312
37175SOL    HW213423  14.354  13.021   9.311
37176SOL     OW13424   7.818  13.136   9.374
37176SOL    HW113425   7.837  13.198   9.303
37176SOL    HW213426   7.730  13.160   9.404
37177SOL     OW13427   5.372   0.337  10.626
37177SOL    HW113428   5.325   0.256  10.606
37177SOL    HW213429   5.304   0.404  10.626
37178SOL     OW13430  14.405   3.952   5.308
37178SOL    HW113431  14.399   3.871   5.257
37178SOL    HW213432  14.394   3.924   5.399
37179SOL     OW13433  10.481   0.825   0.646
37179SOL    HW113434  10.423   0.892   0.610
37179SOL    HW213435  10.560   0.830   0.592
37180SOL     OW13436  10.131  12.121  13.978
37180SOL    HW113437  10.096  12.182  13.913
37180SOL    HW213438  10.226  12.139  13.979
37181SOL     OW13439  14.438   1.618   5.784
37181SOL    HW113440  14.365   1.646   5.729
37181SOL    HW213441  14.444   1.686   5.852
37182SOL     OW13442  13.038   8.871   2.991
37182SOL    HW113443  13.001   8.912   2.913
37182SOL    HW213444  13.009   8.780   2.987
37183SOL     OW13445  14.404   3.015   5.739
37183SOL    HW113446  14.397   3.098   5.788
37183SOL    HW213447  14.464   3.035   5.667
37184SOL     OW13448   2.911  14.065   3.103
37184SOL    HW113449   2.898  14.087   3.010
37184SOL    HW213450   2.823  14.072   3.142
37185SOL     OW13451   4.096   5.582  13.567
37185SOL    HW113452   4.141   5.613  13.646
37185SOL    HW213453   4.003   5.600  13.583
37186SOL     OW13454  12.844   2.852   5.753
37186SOL    HW113455  12.842   2.762   5.787
37186SOL    HW213456  12.930   2.860   5.711
37187SOL     OW13457  13.567  12.010   3.908
37187SOL    HW113458  13.513  11.930   3.910
37187SOL    HW213459  13.651  11.983   3.944
37188SOL     OW13460   2.351   9.709   7.169
37188SOL    HW113461   2.366   9.733   7.261
37188SOL    HW213462   2.389   9.622   7.161
37189SOL     OW13463  13.902   2.233   3.499
37189SOL    HW113464  13.874   2.314   3.457
37189SOL    HW213465  13.991   2.251   3.530
37190SOL     OW13466   7.179   9.732  10.981
37190SOL    HW113467   7.167   9.670  10.909
37190SOL    HW213468   7.255   9.699  11.029
37191SOL     OW13469  11.203  11.969   1.725
37191SOL    HW113470  11.264  11.927   1.786
37191SOL    HW213471  11.134  11.904   1.711
37192SOL     OW13472  10.657   1.089  12.126
37192SOL    HW113473  10.623   1.076  12.215
37192SOL    HW213474  10.741   1.134  12.139
37193SOL     OW13475  14.610   5.087   8.155
37193SOL    HW113476  14.540   5.074   8.219
37193SOL    HW213477  14.572   5.146   8.089
37194SOL     OW13478   1.046  10.633   6.963
37194SOL    HW113479   1.088  10.591   6.888
37194SOL    HW213480   1.064  10.726   6.951
37195SOL     OW13481  13.130   6.298   9.607
37195SOL    HW113482  13.085   6.284   9.690
37195SOL    HW213483  13.060   6.303   9.542
37196SOL     OW13484   9.307   0.906  11.867
37196SOL    HW113485   9.217   0.880  11.850
37196SOL    HW213486   9.337   0.848  11.937
37197SOL     OW13487   6.726   8.288   8.325
37197SOL    HW113488   6.653   8.230   8.349
37197SOL    HW213489   6.771   8.242   8.254
37198SOL     OW13490   7.262   7.680   0.161
37198SOL    HW113491   7.204   7.606   0.143
37198SOL    HW213492   7.306   7.697   0.077
37199SOL     OW13493   7.678  10.132   1.758
37199SOL    HW113494   7.711  10.103   1.843
37199SOL    HW213495   7.583  10.123   1.765
37200SOL     OW13496  10.336   8.632   9.141
37200SOL    HW113497  10.400   8.568   9.174
37200SOL    HW213498  10.286   8.584   9.075
37201SOL     OW13499   3.450  12.182   4.102
37201SOL    HW113500   3.445  12.274   4.076
37201SOL    HW213501   3.471  12.185   4.196
37202SOL     OW13502   4.219   6.117   0.143
37202SOL    HW113503   4.202   6.073   0.226
37202SOL    HW213504   4.178   6.203   0.152
37203SOL     OW13505   3.184   3.977   8.994
37203SOL    HW113506   3.191   3.942   8.905
37203SOL    HW213507   3.250   3.928   9.044
37204SOL     OW13508  13.993   9.080  12.441
37204SOL    HW113509  14.067   9.094  12.501
37204SOL    HW213510  13.916   9.079  12.498
37205SOL     OW13511   8.163   7.024  13.845
37205SOL    HW113512   8.171   6.991  13.756
37205SOL    HW213513   8.181   7.118  13.838
37206SOL     OW13514   0.424  11.487   0.280
37206SOL    HW113515   0.438  11.410   0.334
37206SOL    HW213516   0.424  11.560   0.342
37207SOL     OW13517  14.173   3.459   1.452
37207SOL    HW113518  14.235   3.488   1.519
37207SOL    HW213519  14.228   3.432   1.378
37208SOL     OW13520  14.733   1.751  10.710
37208SOL    HW113521  14.681   1.672  10.726
37208SOL    HW213522  14.786   1.729  10.633
37209SOL     OW13523   2.598  12.237   2.022
37209SOL    HW113524   2.515  12.266   1.984
37209SOL    HW213525   2.655  12.314   2.016
37210SOL     OW13526   4.486   9.543   2.663
37210SOL    HW113527   4.399   9.506   2.646
37210SOL    HW213528   4.471   9.611   2.728
37211SOL     OW13529  10.551   4.182  14.061
37211SOL    HW113530  10.483   4.242  14.029
37211SOL    HW213531  10.520   4.154  14.147
37212SOL     OW13532   2.320   2.859   8.008
37212SOL    HW113533   2.412   2.864   7.981
37212SOL    HW213534   2.322   2.807   8.088
37213SOL     OW13535  12.108  14.315  14.789
37213SOL    HW113536  12.050  14.388  14.808
37213SOL    HW213537  12.091  14.251  14.858
37214SOL     OW13538   2.184   6.499   1.165
37214SOL    HW113539   2.239   6.428   1.198
37214SOL    HW213540   2.155   6.545   1.244
37215SOL     OW13541   0.960   0.025   7.345
37215SOL    HW113542   0.982  14.804   7.368
37215SOL    HW213543   0.959   0.071   7.429
37216SOL     OW13544   9.506   9.026  12.324
37216SOL    HW113545   9.423   8.996  12.287
37216SOL    HW213546   9.480   9.080  12.399
37217SOL     OW13547   2.036   7.822  12.487
37217SOL    HW113548   2.097   7.804  12.558
37217SOL    HW213549   2.054   7.912  12.461
37218SOL     OW13550  10.549   4.940   1.075
37218SOL    HW113551  10.476   4.966   1.130
37218SOL    HW213552  10.594   4.872   1.125
37219SOL     OW13553  12.806   5.095  13.302
37219SOL    HW113554  12.714   5.069  13.289
37219SOL    HW213555  12.823   5.075  13.394
37220SOL     OW13556  14.067   2.123   0.615
37220SOL    HW113557  14.136   2.186   0.636
37220SOL    HW213558  14.037   2.091   0.700
37221SOL     OW13559   0.510  11.843  10.127
37221SOL    HW113560   0.554  11.761  10.149
37221SOL    HW213561   0.566  11.911  10.163
37222SOL     OW13562  11.091  13.374   9.962
37222SOL    HW113563  11.143  13.393   9.884
37222SOL    HW213564  11.124  13.289   9.993
37223SOL     OW13565   6.783   2.750   1.868
37223SOL    HW113566   6.830   2.786   1.943
37223SOL    HW213567   6.696   2.789   1.872
37224SOL     OW13568   8.229  10.921   3.447
37224SOL    HW113569   8.308  10.927   3.393
37224SOL    HW213570   8.175  10.994   3.419
37225SOL     OW13571   0.318   9.518  10.183
37225SOL    HW113572   0.335   9.577  10.110
37225SOL    HW213573   0.227   9.491  10.173
37226SOL     OW13574  12.666  13.852  10.194
37226SOL    HW113575  12.731  13.900  10.245
37226SOL    HW213576  12.711  13.771  10.170
37227SOL     OW13577   3.165  11.735   5.641
37227SOL    HW113578   3.200  11.780   5.717
37227SOL    HW213579   3.070  11.737   5.651
37228SOL     OW13580   5.793   9.740  10.300
37228SOL    HW113581   5.749   9.676  10.356
37228SOL    HW213582   5.880   9.704  10.286
37229SOL     OW13583   0.834   1.843   4.165
37229SOL    HW113584   0.878   1.866   4.246
37229SOL    HW213585   0.800   1.926   4.130
37230SOL     OW13586   5.234  14.647   4.106
37230SOL    HW113587   5.316  14.635   4.058
37230SOL    HW213588   5.177  14.694   4.045
37231SOL     OW13589   9.637   7.015   8.381
37231SOL    HW113590   9.616   6.959   8.456
37231SOL    HW213591   9.566   7.079   8.379
37232SOL     OW13592   3.017   7.765   5.398
37232SOL    HW113593   3.099   7.718   5.414
37232SOL    HW213594   2.976   7.719   5.326
37233SOL     OW13595   3.663   5.722   8.951
37233SOL    HW113596   3.758   5.714   8.958
37233SOL    HW213597   3.631   5.694   9.037
37234SOL     OW13598   3.167   6.265   4.351
37234SOL    HW113599   3.219   6.280   4.272
37234SOL    HW213600   3.081   6.239   4.318
37235SOL     OW13601  12.573  10.852   6.114
37235SOL    HW113602  12.492  10.902   6.105
37235SOL    HW213603  12.629  10.883   6.043
37236SOL     OW13604   4.589  10.764   5.792
37236SOL    HW113605   4.636  10.789   5.872
37236SOL    HW213606   4.496  10.768   5.817
37237SOL     OW13607  14.806  12.468   0.276
37237SOL    HW113608  14.728  12.460   0.331
37237SOL    HW213609   0.001  12.412   0.319
37238SOL     OW13610   5.781  14.481   4.047
37238SOL    HW113611   5.779  14.522   3.960
37238SOL    HW213612   5.704  14.515   4.092
37239SOL     OW13613   2.879   3.212  11.165
37239SOL    HW113614   2.869   3.284  11.103
37239SOL    HW213615   2.807   3.224  11.227
37240SOL     OW13616   3.408   1.813   3.832
37240SOL    HW113617   3.371   1.726   3.847
37240SOL    HW213618   3.502   1.797   3.824
37241SOL     OW13619   6.100  10.782  11.767
37241SOL    HW113620   6.161  10.723  11.720
37241SOL    HW213621   6.030  10.798  11.704
37242SOL     OW13622  11.512  13.214   5.932
37242SOL    HW113623  11.467  13.221   5.848
37242SOL    HW213624  11.513  13.120   5.950
37243SOL     OW13625   7.631   3.875   7.560
37243SOL    HW113626   7.571   3.907   7.493
37243SOL    HW213627   7.655   3.952   7.610
37244SOL     OW13628   8.235  11.923  14.747
37244SOL    HW113629   8.186  11.907  14.667
37244SOL    HW213630   8.323  11.890  14.729
37245SOL     OW13631  14.468  12.200   0.789
37245SOL    HW113632  14.514  12.142   0.728
37245SOL    HW213633  14.377  12.172   0.785
37246SOL     OW13634   7.904  11.851   2.363
37246SOL    HW113635   7.974  11.822   2.421
37246SOL    HW213636   7.867  11.928   2.405
37247SOL     OW13637   4.349  13.260   4.558
37247SOL    HW113638   4.308  13.261   4.471
37247SOL    HW213639   4.360  13.167   4.578
37248SOL     OW13640  13.823   7.737  10.495
37248SOL    HW113641  13.847   7.733  10.588
37248SOL    HW213642  13.845   7.651  10.461
37249SOL     OW13643   8.452   7.605   9.887
37249SOL    HW113644   8.454   7.659   9.966
37249SOL    HW213645   8.526   7.545   9.896
37250SOL     OW13646   3.620   4.921  12.088
37250SOL    HW113647   3.639   5.014  12.083
37250SOL    HW213648   3.609   4.894  11.996
37251SOL     OW13649  13.258   0.978  11.740
37251SOL    HW113650  13.190   0.948  11.680
37251SOL    HW213651  13.334   0.993  11.683
37252SOL     OW13652   5.490  14.137   2.147
37252SOL    HW113653   5.426  14.081   2.103
37252SOL    HW213654   5.529  14.080   2.214
37253SOL     OW13655   8.425  13.642   5.838
37253SOL    HW113656   8.478  13.606   5.767
37253SOL    HW213657   8.471  13.720   5.867
37254SOL     OW13658   0.921   4.998   2.247
37254SOL    HW113659   0.913   4.969   2.338
37254SOL    HW213660   0.831   5.007   2.216
37255SOL     OW13661  13.578  14.008   3.292
37255SOL    HW113662  13.489  13.986   3.319
37255SOL    HW213663  13.574  14.102   3.272
37256SOL     OW13664  13.130   4.671   4.267
37256SOL    HW113665  13.154   4.743   4.209
37256SOL    HW213666  13.198   4.671   4.334
37257SOL     OW13667  14.535   3.501  13.827
37257SOL    HW113668  14.538   3.420  13.775
37257SOL    HW213669  14.442   3.517  13.842
37258SOL     OW13670  10.605   3.880   5.203
37258SOL    HW113671  10.606   3.944   5.132
37258SOL    HW213672  10.516   3.887   5.240
37259SOL     OW13673   4.484   1.946   7.981
37259SOL    HW113674   4.456   1.855   7.992
37259SOL    HW213675   4.571   1.949   8.022
37260SOL     OW13676   1.776   5.580  12.531
37260SOL    HW113677   1.824   5.649  12.484
37260SOL    HW213678   1.810   5.584  12.620
37261SOL     OW13679   8.558   6.866   8.350
37261SOL    HW113680   8.603   6.843   8.431
37261SOL    HW213681   8.624   6.856   8.281
37262SOL     OW13682  13.300   4.196   6.201
37262SOL    HW113683  13.275   4.110   6.236
37262SOL    HW213684  13.368   4.227   6.260
37263SOL     OW13685   3.643   9.321  11.494
37263SOL    HW113686   3.720   9.369  11.523
37263SOL    HW213687   3.669   9.229  11.497
37264SOL     OW13688  10.038  13.741   9.021
37264SOL    HW113689  10.002  13.654   9.002
37264SOL    HW213690   9.965  13.801   9.002
37265SOL     OW13691   7.402   7.765   9.911
37265SOL    HW113692   7.363   7.820   9.979
37265SOL    HW213693   7.467   7.822   9.869
37266SOL     OW13694   7.343  13.969  12.828
37266SOL    HW113695   7.296  13.885  12.830
37266SOL    HW213696   7.433  13.945  12.807
37267SOL     OW13697   4.631   2.092   1.002
37267SOL    HW113698   4.670   2.072   1.087
37267SOL    HW213699   4.543   2.055   1.007
37268SOL     OW13700   9.538   2.875  12.340
37268SOL    HW113701   9.612   2.897  12.396
37268SOL    HW213702   9.510   2.789  12.370
37269SOL     OW13703   3.426   9.567   1.348
37269SOL    HW113704   3.492   9.514   1.304
37269SOL    HW213705   3.475   9.619   1.412
37270SOL     OW13706   6.413   8.206  12.176
37270SOL    HW113707   6.492   8.258  12.171
37270SOL    HW213708   6.419   8.145  12.102
37271SOL     OW13709   6.383  10.048   9.000
37271SOL    HW113710   6.391  10.077   9.091
37271SOL    HW213711   6.428   9.964   8.998
37272SOL     OW13712   3.283  13.716   3.467
37272SOL    HW113713   3.346  13.787   3.483
37272SOL    HW213714   3.309  13.648   3.529
37273SOL     OW13715   9.857  11.873   1.689
37273SOL    HW113716   9.805  11.915   1.757
37273SOL    HW213717   9.792  11.826   1.635
37274SOL     OW13718  11.403  13.343   8.665
37274SOL    HW113719  11.392  13.252   8.690
37274SOL    HW213720  11.317  13.383   8.681
37275SOL     OW13721   1.846   2.548   1.689
37275SOL    HW113722   1.836   2.641   1.707
37275SOL    HW213723   1.934   2.539   1.653
37276SOL     OW13724  14.453   5.018   0.972
37276SOL    HW113725  14.419   5.050   1.056
37276SOL    HW213726  14.430   4.925   0.972
37277SOL     OW13727   0.724  12.857   5.952
37277SOL    HW113728   0.793  12.907   5.909
37277SOL    HW213729   0.734  12.876   6.045
37278SOL     OW13730   5.225   7.651   2.451
37278SOL    HW113731   5.275   7.570   2.443
37278SOL    HW213732   5.247   7.685   2.537
37279SOL     OW13733  14.640   6.161  12.210
37279SOL    HW113734  14.572   6.173  12.144
37279SOL    HW213735  14.593   6.168  12.294
37280SOL     OW13736   4.072   0.611   3.613
37280SOL    HW113737   4.072   0.543   3.545
37280SOL    HW213738   4.164   0.623   3.635
37281SOL     OW13739  14.463   3.698   1.408
37281SOL    HW113740  14.407   3.637   1.456
37281SOL    HW213741  14.520   3.736   1.475
37282SOL     OW13742   7.681   3.144   7.218
37282SOL    HW113743   7.619   3.132   7.145
37282SOL    HW213744   7.716   3.056   7.234
37283SOL     OW13745   1.876  10.393   5.814
37283SOL    HW113746   1.968  10.407   5.832
37283SOL    HW213747   1.870  10.300   5.790
37284SOL     OW13748   5.155  14.192   0.173
37284SOL    HW113749   5.218  14.128   0.207
37284SOL    HW213750   5.172  14.195   0.079
37285SOL     OW13751   6.094   9.736  11.282
37285SOL    HW113752   6.082   9.675  11.210
37285SOL    HW213753   6.189   9.750  11.287
37286SOL     OW13754  11.670   1.406   2.555
37286SOL    HW113755  11.701   1.376   2.640
37286SOL    HW213756  11.750   1.419   2.504
37287SOL     OW13757   1.318   7.944   0.069
37287SOL    HW113758   1.265   7.983   0.138
37287SOL    HW213759   1.350   7.862   0.106
37288SOL     OW13760   8.246  13.794   8.498
37288SOL    HW113761   8.269  13.737   8.425
37288SOL    HW213762   8.323  13.851   8.508
37289SOL     OW13763   8.143   4.929   1.289
37289SOL    HW113764   8.107   4.845   1.260
37289SOL    HW213765   8.236   4.913   1.301
37290SOL     OW13766  10.205  11.807  10.080
37290SOL    HW113767  10.154  11.801  10.160
37290SOL    HW213768  10.143  11.785  10.010
37291SOL     OW13769  13.246   8.934  13.309
37291SOL    HW113770  13.222   9.025  13.322
37291SOL    HW213771  13.317   8.937  13.245
37292SOL     OW13772  10.642  12.202   1.139
37292SOL    HW113773  10.658  12.238   1.226
37292SOL    HW213774  10.554  12.164   1.145
37293SOL     OW13775   1.672   7.883   9.057
37293SOL    HW113776   1.662   7.945   9.130
37293SOL    HW213777   1.629   7.803   9.088
37294SOL     OW13778   3.366   4.499   2.773
37294SOL    HW113779   3.294   4.468   2.828
37294SOL    HW213780   3.390   4.584   2.810
37295SOL     OW13781  14.525   3.523   6.891
37295SOL    HW113782  14.479   3.582   6.952
37295SOL    HW213783  14.618   3.545   6.903
37296SOL     OW13784   4.973   0.933  14.716
37296SOL    HW113785   5.016   0.899  14.794
37296SOL    HW213786   5.045   0.955  14.657
37297SOL     OW13787  14.083  11.848   3.961
37297SOL    HW113788  14.071  11.767   4.011
37297SOL    HW213789  13.994  11.873   3.935
37298SOL     OW13790  10.593   1.815   0.589
37298SOL    HW113791  10.603   1.894   0.642
37298SOL    HW213792  10.527   1.839   0.523
37299SOL     OW13793   6.658  14.841   3.165
37299SOL    HW113794   6.677   0.007   3.252
37299SOL    HW213795   6.574  14.797   3.176
37300SOL     OW13796  11.309  12.247   5.420
37300SOL    HW113797  11.300  12.300   5.341
37300SOL    HW213798  11.366  12.298   5.477
37301SOL     OW13799   1.974  11.664   1.214
37301SOL    HW113800   1.928  11.679   1.296
37301SOL    HW213801   2.036  11.736   1.208
37302SOL     OW13802   3.863  11.721   2.757
37302SOL    HW113803   3.839  11.717   2.850
37302SOL    HW213804   3.781  11.705   2.710
37303SOL     OW13805   5.985   5.056   6.843
37303SOL    HW113806   5.938   5.139   6.845
37303SOL    HW213807   5.965   5.015   6.927
37304SOL     OW13808   0.274   3.561   2.447
37304SOL    HW113809   0.223   3.639   2.424
37304SOL    HW213810   0.241   3.535   2.532
37305SOL     OW13811  11.338   8.720  14.853
37305SOL    HW113812  11.423   8.678  14.843
37305SOL    HW213813  11.351   8.809  14.820
37306SOL     OW13814   5.706   8.156  10.267
37306SOL    HW113815   5.711   8.192  10.355
37306SOL    HW213816   5.629   8.198  10.228
37307SOL     OW13817  10.611   3.806   8.077
37307SOL    HW113818  10.702   3.820   8.050
37307SOL    HW213819  10.617   3.761   8.161
37308SOL     OW13820  14.118   3.632  11.148
37308SOL    HW113821  14.140   3.715  11.190
37308SOL    HW213822  14.070   3.657  11.069
37309SOL     OW13823   0.987   7.555   5.815
37309SOL    HW113824   1.035   7.592   5.889
37309SOL    HW213825   1.025   7.598   5.738
37310SOL     OW13826  13.162   0.658   2.318
37310SOL    HW113827  13.252   0.659   2.350
37310SOL    HW213828  13.107   0.657   2.397
37311SOL     OW13829   1.512   0.117  14.237
37311SOL    HW113830   1.486   0.043  14.182
37311SOL    HW213831   1.435   0.172  14.242
37312SOL     OW13832  12.019   7.069  12.135
37312SOL    HW113833  12.020   7.163  12.120
37312SOL    HW213834  11.926   7.046  12.140
37313SOL     OW13835   4.517  11.354  13.813
37313SOL    HW113836   4.582  11.423  13.796
37313SOL    HW213837   4.545  11.280  13.759
37314SOL     OW13838  14.558  12.653  11.566
37314SOL    HW113839  14.586  12.579  11.621
37314SOL    HW213840  14.476  12.682  11.605
37315SOL     OW13841  14.715   2.097  10.547
37315SOL    HW113842  14.717   2.049  10.630
37315SOL    HW213843  14.657   2.045  10.491
37316SOL     OW13844   4.588  11.912   8.815
37316SOL    HW113845   4.629  11.978   8.870
37316SOL    HW213846   4.648  11.837   8.819
37317SOL     OW13847   9.865   6.129   5.066
37317SOL    HW113848   9.850   6.146   5.159
37317SOL    HW213849   9.944   6.075   5.063
37318SOL     OW13850   2.023   4.965   9.621
37318SOL    HW113851   2.047   5.017   9.698
37318SOL    HW213852   2.091   4.986   9.557
37319SOL     OW13853   9.823  14.825   2.848
37319SOL    HW113854   9.757   0.011   2.891
37319SOL    HW213855   9.823  14.855   2.757
37320SOL     OW13856   9.736  11.410   5.700
37320SOL    HW113857   9.685  11.372   5.629
37320SOL    HW213858   9.728  11.346   5.771
37321SOL     OW13859  14.453   7.420   5.056
37321SOL    HW113860  14.513   7.473   5.108
37321SOL    HW213861  14.459   7.332   5.095
37322SOL     OW13862   1.407   8.457   4.291
37322SOL    HW113863   1.343   8.452   4.220
37322SOL    HW213864   1.484   8.498   4.251
37323SOL     OW13865   8.374   1.042  12.054
37323SOL    HW113866   8.446   1.021  12.114
37323SOL    HW213867   8.404   1.120  12.007
37324SOL     OW13868  13.375   3.850   9.778
37324SOL    HW113869  13.425   3.770   9.761
37324SOL    HW213870  13.300   3.845   9.718
37325SOL     OW13871   6.788   0.824   9.996
37325SOL    HW113872   6.737   0.796   9.920
37325SOL    HW213873   6.729   0.812  10.071
37326SOL     OW13874  12.903   7.673   8.263
37326SOL    HW113875  12.866   7.630   8.341
37326SOL    HW213876  12.926   7.600   8.205
37327SOL     OW13877   3.105   3.878   5.189
37327SOL    HW113878   3.085   3.876   5.282
37327SOL    HW213879   3.126   3.788   5.166
37328SOL     OW13880   4.330   7.881   7.212
37328SOL    HW113881   4.309   7.812   7.149
37328SOL    HW213882   4.345   7.959   7.158
37329SOL     OW13883   7.603  13.031   9.093
37329SOL    HW113884   7.658  13.104   9.122
37329SOL    HW213885   7.613  12.964   9.161
37330SOL     OW13886   9.118   9.149   7.029
37330SOL    HW113887   9.171   9.101   6.966
37330SOL    HW213888   9.145   9.240   7.018
37331SOL     OW13889   0.136   8.316   1.432
37331SOL    HW113890   0.169   8.293   1.345
37331SOL    HW213891   0.081   8.242   1.456
37332SOL     OW13892  11.386  10.854   2.767
37332SOL    HW113893  11.372  10.778   2.711
37332SOL    HW213894  11.367  10.929   2.710
37333SOL     OW13895   4.019   0.035   3.688
37333SOL    HW113896   3.981   0.007   3.772
37333SOL    HW213897   4.063  14.826   3.654
37334SOL     OW13898  10.890   7.975  13.998
37334SOL    HW113899  10.911   7.882  14.003
37334SOL    HW213900  10.798   7.981  14.022
37335SOL     OW13901   0.989  13.785  11.501
37335SOL    HW113902   0.909  13.735  11.482
37335SOL    HW213903   0.971  13.873  11.467
37336SOL     OW13904  10.494  12.041  11.780
37336SOL    HW113905  10.505  12.035  11.875
37336SOL    HW213906  10.509  12.134  11.760
37337SOL     OW13907  13.722  12.858   7.769
37337SOL    HW113908  13.780  12.917   7.721
37337SOL    HW213909  13.779  12.813   7.831
37338SOL     OW13910  11.078   7.136   2.610
37338SOL    HW113911  10.997   7.104   2.571
37338SOL    HW213912  11.081   7.228   2.587
37339SOL     OW13913  14.438   2.376   1.271
37339SOL    HW113914  14.403   2.330   1.195
37339SOL    HW213915  14.475   2.456   1.235
37340SOL     OW13916   7.318   3.212   5.004
37340SOL    HW113917   7.261   3.276   5.046
37340SOL    HW213918   7.294   3.215   4.911
37341SOL     OW13919  13.744   7.939  14.430
37341SOL    HW113920  13.777   8.001  14.365
37341SOL    HW213921  13.801   7.863  14.423
37342SOL     OW13922  13.177   4.416   9.086
37342SOL    HW113923  13.179   4.489   9.024
37342SOL    HW213924  13.092   4.423   9.128
37343SOL     OW13925  10.883  10.845  13.217
37343SOL    HW113926  10.922  10.758  13.216
37343SOL    HW213927  10.957  10.905  13.225
37344SOL     OW13928   0.279  12.749   6.298
37344SOL    HW113929   0.236  12.815   6.352
37344SOL    HW213930   0.214  12.725   6.232
37345SOL     OW13931  11.295   2.623   7.293
37345SOL    HW113932  11.370   2.585   7.340
37345SOL    HW213933  11.332   2.656   7.212
37346SOL     OW13934  14.410  12.679   7.867
37346SOL    HW113935  14.457  12.603   7.833
37346SOL    HW213936  14.428  12.749   7.805
37347SOL     OW13937   2.353   3.516   1.501
37347SOL    HW113938   2.334   3.480   1.415
37347SOL    HW213939   2.293   3.590   1.511
37348SOL     OW13940   5.287   7.041   0.409
37348SOL    HW113941   5.198   7.022   0.381
37348SOL    HW213942   5.280   7.124   0.456
37349SOL     OW13943   6.619  10.679   9.312
37349SOL    HW113944   6.601  10.701   9.221
37349SOL    HW213945   6.708  10.646   9.311
37350SOL     OW13946   2.587  13.934   6.904
37350SOL    HW113947   2.561  14.014   6.858
37350SOL    HW213948   2.556  13.863   6.849
37351SOL     OW13949   0.946   7.034  12.457
37351SOL    HW113950   1.008   7.032  12.530
37351SOL    HW213951   0.978   6.967  12.397
37352SOL     OW13952   2.783  14.697   1.669
37352SOL    HW113953   2.763  14.694   1.575
37352SOL    HW213954   2.761  14.786   1.696
37353SOL     OW13955  12.951   9.810  11.278
37353SOL    HW113956  12.946   9.897  11.317
37353SOL    HW213957  12.961   9.826  11.185
37354SOL     OW13958   6.829   4.054  10.007
37354SOL    HW113959   6.752   4.044   9.950
37354SOL    HW213960   6.857   3.965  10.026
37355SOL     OW13961  11.701   9.962   5.007
37355SOL    HW113962  11.687   9.933   4.917
37355SOL    HW213963  11.785   9.925   5.032
37356SOL     OW13964   0.917   0.367  10.650
37356SOL    HW113965   0.892   0.296  10.708
37356SOL    HW213966   0.985   0.414  10.698
37357SOL     OW13967  11.841   5.942   7.448
37357SOL    HW113968  11.920   5.934   7.394
37357SOL    HW213969  11.832   6.036   7.463
37358SOL     OW13970   7.021  12.252   0.096
37358SOL    HW113971   7.058  12.297   0.173
37358SOL    HW213972   7.036  12.312   0.023
37359SOL     OW13973  13.041   0.858  13.281
37359SOL    HW113974  12.950   0.848  13.307
37359SOL    HW213975  13.059   0.781  13.227
37360SOL     OW13976  12.975  13.961   4.343
37360SOL    HW113977  13.018  13.995   4.265
37360SOL    HW213978  13.041  13.966   4.412
37361SOL     OW13979   2.497  12.141   6.012
37361SOL    HW113980   2.535  12.124   6.097
37361SOL    HW213981   2.405  12.113   6.020
37362SOL     OW13982   1.104   4.848   1.428
37362SOL    HW113983   1.032   4.787   1.414
37362SOL    HW213984   1.126   4.839   1.520
37363SOL     OW13985   2.566   7.883   3.909
37363SOL    HW113986   2.472   7.877   3.925
37363SOL    HW213987   2.593   7.963   3.955
37364SOL     OW13988  10.169   5.329  13.533
37364SOL    HW113989  10.147   5.267  13.464
37364SOL    HW213990  10.112   5.404  13.516
37365SOL     OW13991   3.310  13.468   4.653
37365SOL    HW113992   3.328  13.555   4.617
37365SOL    HW213993   3.227  13.442   4.614
37366SOL     OW13994   3.464   9.526   0.613
37366SOL    HW113995   3.525   9.453   0.620
37366SOL    HW213996   3.393   9.503   0.674
37367SOL     OW13997   8.191  11.947  10.016
37367SOL    HW113998   8.119  11.947  10.079
37367SOL    HW213999   8.154  11.984   9.936
37368SOL     OW14000   0.160  13.596   9.030
37368SOL    HW114001   0.228  13.536   9.061
37368SOL    HW214002   0.118  13.627   9.110
37369SOL     OW14003   4.238  12.017  14.112
37369SOL    HW114004   4.311  12.051  14.163
37369SOL    HW214005   4.181  11.974  14.176
37370SOL     OW14006  11.333   9.402   4.778
37370SOL    HW114007  11.329   9.497   4.794
37370SOL    HW214008  11.359   9.365   4.863
37371SOL     OW14009  13.815   8.947  13.964
37371SOL    HW114010  13.864   9.010  14.016
37371SOL    HW214011  13.723   8.963  13.986
37372SOL     OW14012   6.962   7.429   5.675
37372SOL    HW114013   6.986   7.498   5.737
37372SOL    HW214014   6.876   7.399   5.706
37373SOL     OW14015   3.036   4.267   1.408
37373SOL    HW114016   3.006   4.309   1.327
37373SOL    HW214017   3.023   4.334   1.475
37374SOL     OW14018  14.304   8.921   4.778
37374SOL    HW114019  14.307   9.017   4.779
37374SOL    HW214020  14.298   8.897   4.870
37375SOL     OW14021   4.142  12.078   3.285
37375SOL    HW114022   4.113  12.055   3.197
37375SOL    HW214023   4.061  12.081   3.337
37376SOL     OW14024   9.810   0.093  14.351
37376SOL    HW114025   9.776   0.005  14.363
37376SOL    HW214026   9.733   0.150  14.352
37377SOL     OW14027  13.346  13.099  12.582
37377SOL    HW114028  13.426  13.050  12.562
37377SOL    HW214029  13.374  13.191  12.584
37378SOL     OW14030  10.441  12.947  12.740
37378SOL    HW114031  10.364  12.999  12.719
37378SOL    HW214032  10.500  13.009  12.784
37379SOL     OW14033   5.306  11.727   1.186
37379SOL    HW114034   5.237  11.686   1.133
37379SOL    HW214035   5.282  11.706   1.276
37380SOL     OW14036   7.887   8.084   4.521
37380SOL    HW114037   7.896   8.097   4.615
37380SOL    HW214038   7.873   8.172   4.485
37381SOL     OW14039   1.363   6.423  11.822
37381SOL    HW114040   1.336   6.347  11.874
37381SOL    HW214041   1.399   6.385  11.742
37382SOL     OW14042  13.761  10.242   1.712
37382SOL    HW114043  13.723  10.192   1.785
37382SOL    HW214044  13.855  10.241   1.729
37383SOL     OW14045  13.730   3.689  11.472
37383SOL    HW114046  13.691   3.776  11.464
37383SOL    HW214047  13.708   3.662  11.561
37384SOL     OW14048  11.055   6.032   6.685
37384SOL    HW114049  10.999   5.987   6.748
37384SOL    HW214050  11.045   6.125   6.706
37385SOL     OW14051  11.773  14.304   7.209
37385SOL    HW114052  11.684  14.327   7.182
37385SOL    HW214053  11.819  14.288   7.126
37386SOL     OW14054   0.624   5.080   9.571
37386SOL    HW114055   0.695   5.131   9.533
37386SOL    HW214056   0.629   4.995   9.528
37387SOL     OW14057   0.355   6.716  11.787
37387SOL    HW114058   0.280   6.752  11.741
37387SOL    HW214059   0.368   6.629  11.750
37388SOL     OW14060  12.357  12.047   7.045
37388SOL    HW114061  12.416  11.997   6.988
37388SOL    HW214062  12.315  12.110   6.987
37389SOL     OW14063   9.014   6.689   6.524
37389SOL    HW114064   9.086   6.659   6.468
37389SOL    HW214065   8.956   6.613   6.531
37390SOL     OW14066   5.324   2.843   6.615
37390SOL    HW114067   5.293   2.922   6.571
37390SOL    HW214068   5.257   2.777   6.599
37391SOL     OW14069   1.785   2.085   6.587
37391SOL    HW114070   1.827   1.999   6.588
37391SOL    HW214071   1.857   2.147   6.571
37392SOL     OW14072   8.088   3.817   7.048
37392SOL    HW114073   8.074   3.762   6.971
37392SOL    HW214074   8.040   3.898   7.030
37393SOL     OW14075   9.546  14.375  11.449
37393SOL    HW114076   9.555  14.418  11.534
37393SOL    HW214077   9.482  14.305  11.464
37394SOL     OW14078  13.400   6.682   6.665
37394SOL    HW114079  13.391   6.619   6.736
37394SOL    HW214080  13.431   6.631   6.590
37395SOL     OW14081   1.323   7.606   2.382
37395SOL    HW114082   1.406   7.567   2.353
37395SOL    HW214083   1.257   7.540   2.363
37396SOL     OW14084  14.455   3.549   5.919
37396SOL    HW114085  14.479   3.516   5.833
37396SOL    HW214086  14.359   3.545   5.920
37397SOL     OW14087  10.488   5.692  11.917
37397SOL    HW114088  10.407   5.659  11.956
37397SOL    HW214089  10.502   5.636  11.840
37398SOL     OW14090  11.160  14.262  12.181
37398SOL    HW114091  11.215  14.185  12.189
37398SOL    HW214092  11.214  14.327  12.136
37399SOL     OW14093   2.406  11.793  13.728
37399SOL    HW114094   2.375  11.763  13.813
37399SOL    HW214095   2.496  11.822  13.743
37400SOL     OW14096   0.811   1.103   6.902
37400SOL    HW114097   0.850   1.016   6.911
37400SOL    HW214098   0.881   1.164   6.926
37401SOL     OW14099   4.725   4.485   8.034
37401SOL    HW114100   4.806   4.534   8.047
37401SOL    HW214101   4.753   4.393   8.029
37402SOL     OW14102   9.353  14.297  13.561
37402SOL    HW114103   9.441  14.273  13.534
37402SOL    HW214104   9.311  14.328  13.480
37403SOL     OW14105   2.067   2.572   6.271
37403SOL    HW114106   2.053   2.653   6.319
37403SOL    HW214107   2.147   2.536   6.308
37404SOL     OW14108   4.686  10.226   5.760
37404SOL    HW114109   4.613  10.191   5.709
37404SOL    HW214110   4.679  10.321   5.748
37405SOL     OW14111   6.235  12.388   6.967
37405SOL    HW114112   6.313  12.370   6.915
37405SOL    HW214113   6.227  12.314   7.026
37406SOL     OW14114   8.745  11.155   1.452
37406SOL    HW114115   8.751  11.072   1.404
37406SOL    HW214116   8.799  11.141   1.530
37407SOL     OW14117   6.003   0.906  14.008
37407SOL    HW114118   6.006   0.813  14.029
37407SOL    HW214119   5.923   0.916  13.955
37408SOL     OW14120  10.753  13.402   6.779
37408SOL    HW114121  10.719  13.370   6.696
37408SOL    HW214122  10.840  13.361   6.787
37409SOL     OW14123   6.574   3.910  12.346
37409SOL    HW114124   6.554   3.817  12.356
37409SOL    HW214125   6.668   3.912  12.326
37410SOL     OW14126   0.833   4.887   6.337
37410SOL    HW114127   0.841   4.910   6.244
37410SOL    HW214128   0.783   4.959   6.375
37411SOL     OW14129  13.682   5.682   0.037
37411SOL    HW114130  13.602   5.662  14.858
37411SOL    HW214131  13.736   5.733  14.846
37412SOL     OW14132  13.204   7.889   7.711
37412SOL    HW114133  13.267   7.817   7.718
37412SOL    HW214134  13.171   7.883   7.621
37413SOL     OW14135   0.482   8.947   2.635
37413SOL    HW114136   0.472   9.020   2.575
37413SOL    HW214137   0.488   8.987   2.722
37414SOL     OW14138  10.970   2.725   0.990
37414SOL    HW114139  11.020   2.805   0.977
37414SOL    HW214140  11.006   2.663   0.926
37415SOL     OW14141   6.426   2.121   2.176
37415SOL    HW114142   6.436   2.031   2.208
37415SOL    HW214143   6.340   2.122   2.134
37416SOL     OW14144   2.989  14.029   4.093
37416SOL    HW114145   2.954  13.960   4.037
37416SOL    HW214146   2.938  14.107   4.070
37417SOL     OW14147   2.274  12.503   3.987
37417SOL    HW114148   2.341  12.443   4.022
37417SOL    HW214149   2.216  12.446   3.936
37418SOL     OW14150   0.754   6.838  13.827
37418SOL    HW114151   0.669   6.825  13.785
37418SOL    HW214152   0.766   6.933  13.826
37419SOL     OW14153   5.171  11.836   8.560
37419SOL    HW114154   5.133  11.918   8.528
37419SOL    HW214155   5.131  11.823   8.646
37420SOL     OW14156  12.627   0.333   0.469
37420SOL    HW114157  12.621   0.403   0.534
37420SOL    HW214158  12.612   0.252   0.519
37421SOL     OW14159   3.180   0.349   0.766
37421SOL    HW114160   3.119   0.320   0.698
37421SOL    HW214161   3.247   0.397   0.719
37422SOL     OW14162  14.375  13.267   4.060
37422SOL    HW114163  14.404  13.319   4.134
37422SOL    HW214164  14.337  13.331   3.999
37423SOL     OW14165  12.335   0.850   8.459
37423SOL    HW114166  12.264   0.805   8.414
37423SOL    HW214167  12.411   0.838   8.402
37424SOL     OW14168   5.296   6.144  11.359
37424SOL    HW114169   5.382   6.104  11.369
37424SOL    HW214170   5.246   6.081  11.308
37425SOL     OW14171  10.783   4.936  14.771
37425SOL    HW114172  10.789   5.010  14.832
37425SOL    HW214173  10.761   4.976  14.687
37426SOL     OW14174   1.953  13.569   4.183
37426SOL    HW114175   1.918  13.529   4.263
37426SOL    HW214176   1.919  13.515   4.112
37427SOL     OW14177  12.227   0.488  11.899
37427SOL    HW114178  12.274   0.544  11.837
37427SOL    HW214179  12.136   0.489  11.869
37428SOL     OW14180  11.592   8.604   5.770
37428SOL    HW114181  11.530   8.539   5.736
37428SOL    HW214182  11.549   8.641   5.847
37429SOL     OW14183  14.667   7.765   3.107
37429SOL    HW114184  14.585   7.766   3.156
37429SOL    HW214185  14.645   7.726   3.023
37430SOL     OW14186   2.574  10.621   0.791
37430SOL    HW114187   2.651  10.672   0.766
37430SOL    HW214188   2.502  10.657   0.738
37431SOL     OW14189   3.889  13.055  10.593
37431SOL    HW114190   3.846  13.041  10.677
37431SOL    HW214191   3.982  13.038  10.611
37432SOL     OW14192  12.293  12.458   1.131
37432SOL    HW114193  12.331  12.543   1.150
37432SOL    HW214194  12.218  12.451   1.190
37433SOL     OW14195   7.073   9.924   0.154
37433SOL    HW114196   6.992   9.973   0.161
37433SOL    HW214197   7.126   9.974   0.092
37434SOL     OW14198   2.627  11.680  11.427
37434SOL    HW114199   2.663  11.592  11.420
37434SOL    HW214200   2.577  11.692  11.346
37435SOL     OW14201   7.879   7.525   4.999
37435SOL    HW114202   7.902   7.500   4.909
37435SOL    HW214203   7.958   7.567   5.033
37436SOL     OW14204   6.399  10.299   0.145
37436SOL    HW114205   6.493  10.316   0.146
37436SOL    HW214206   6.387  10.234   0.076
37437SOL     OW14207  14.714   0.929   9.642
37437SOL    HW114208  14.712   1.009   9.591
37437SOL    HW214209  14.684   0.861   9.582
37438SOL     OW14210   9.960   6.666   8.725
37438SOL    HW114211   9.872   6.703   8.730
37438SOL    HW214212   9.963   6.623   8.640
37439SOL     OW14213   3.827  13.917  10.058
37439SOL    HW114214   3.863  14.002  10.084
37439SOL    HW214215   3.780  13.934   9.977
37440SOL     OW14216  13.455  12.206   8.710
37440SOL    HW114217  13.448  12.204   8.614
37440SOL    HW214218  13.535  12.157   8.729
37441SOL     OW14219  12.682   4.158   4.284
37441SOL    HW114220  12.750   4.204   4.236
37441SOL    HW214221  12.600   4.192   4.247
37442SOL     OW14222   6.970   3.696   5.465
37442SOL    HW114223   7.031   3.748   5.413
37442SOL    HW214224   6.884   3.735   5.449
37443SOL     OW14225   7.404  13.290   5.218
37443SOL    HW114226   7.419  13.362   5.157
37443SOL    HW214227   7.491  13.274   5.256
37444SOL     OW14228  14.708  12.841   3.503
37444SOL    HW114229  14.767  12.916   3.509
37444SOL    HW214230  14.693  12.830   3.409
37445SOL     OW14231  13.094   2.803   7.281
37445SOL    HW114232  13.149   2.831   7.208
37445SOL    HW214233  13.126   2.854   7.355
37446SOL     OW14234  12.897   8.443   8.735
37446SOL    HW114235  12.949   8.517   8.768
37446SOL    HW214236  12.953   8.402   8.669
37447SOL     OW14237   6.149  12.992   2.318
37447SOL    HW114238   6.232  12.951   2.292
37447SOL    HW214239   6.081  12.934   2.284
37448SOL     OW14240   3.414   1.857  10.349
37448SOL    HW114241   3.451   1.944  10.362
37448SOL    HW214242   3.490   1.799  10.350
37449SOL     OW14243   9.007   2.579  13.585
37449SOL    HW114244   9.008   2.569  13.490
37449SOL    HW214245   9.065   2.510  13.617
37450SOL     OW14246   8.902   8.604   0.094
37450SOL    HW114247   8.865   8.567   0.013
37450SOL    HW214248   8.875   8.696   0.093
37451SOL     OW14249   7.185  10.902   9.068
37451SOL    HW114250   7.137  10.854   9.002
37451SOL    HW214251   7.276  10.899   9.039
37452SOL     OW14252  10.239   3.512   3.090
37452SOL    HW114253  10.298   3.543   3.022
37452SOL    HW214254  10.218   3.590   3.141
37453SOL     OW14255  14.376  13.674  13.972
37453SOL    HW114256  14.454  13.666  14.028
37453SOL    HW214257  14.303  13.676  14.034
37454SOL     OW14258   3.506  14.018  13.406
37454SOL    HW114259   3.494  13.960  13.330
37454SOL    HW214260   3.549  14.096  13.370
37455SOL     OW14261  13.424   0.417   4.692
37455SOL    HW114262  13.506   0.423   4.740
37455SOL    HW214263  13.451   0.403   4.601
37456SOL     OW14264   7.177   6.019   1.614
37456SOL    HW114265   7.172   6.008   1.519
37456SOL    HW214266   7.113   5.957   1.649
37457SOL     OW14267   7.753   4.418   8.633
37457SOL    HW114268   7.750   4.511   8.613
37457SOL    HW214269   7.736   4.414   8.727
37458SOL     OW14270   6.734  13.177   3.235
37458SOL    HW114271   6.790  13.179   3.312
37458SOL    HW214272   6.654  13.223   3.261
37459SOL     OW14273   0.334   8.421   2.735
37459SOL    HW114274   0.257   8.447   2.785
37459SOL    HW214275   0.372   8.503   2.705
37460SOL     OW14276  13.961   5.994   4.246
37460SOL    HW114277  14.055   6.000   4.264
37460SOL    HW214278  13.922   6.067   4.295
37461SOL     OW14279   8.251  14.491   0.222
37461SOL    HW114280   8.158  14.502   0.242
37461SOL    HW214281   8.271  14.560   0.159
37462SOL     OW14282   6.778  10.034   9.312
37462SOL    HW114283   6.740   9.954   9.348
37462SOL    HW214284   6.852  10.054   9.370
37463SOL     OW14285  14.370  14.126   2.356
37463SOL    HW114286  14.353  14.220   2.354
37463SOL    HW214287  14.461  14.120   2.386
37464SOL     OW14288  13.337   9.893   7.857
37464SOL    HW114289  13.305   9.952   7.925
37464SOL    HW214290  13.308   9.806   7.886
37465SOL     OW14291  13.512   1.697   8.293
37465SOL    HW114292  13.566   1.766   8.331
37465SOL    HW214293  13.548   1.684   8.205
37466SOL     OW14294   2.349   7.491   0.531
37466SOL    HW114295   2.396   7.467   0.451
37466SOL    HW214296   2.258   7.468   0.513
37467SOL     OW14297   1.646   6.643   7.681
37467SOL    HW114298   1.689   6.564   7.714
37467SOL    HW214299   1.569   6.610   7.634
37468SOL     OW14300   4.560   2.000   9.009
37468SOL    HW114301   4.637   1.966   9.056
37468SOL    HW214302   4.582   1.990   8.916
37469SOL     OW14303  12.622   8.427   2.338
37469SOL    HW114304  12.631   8.371   2.260
37469SOL    HW214305  12.528   8.443   2.346
37470SOL     OW14306   9.364  14.786  11.074
37470SOL    HW114307   9.317  14.728  11.014
37470SOL    HW214308   9.296  14.826  11.127
37471SOL     OW14309   0.183  11.322   9.301
37471SOL    HW114310   0.093  11.321   9.334
37471SOL    HW214311   0.211  11.413   9.311
37472SOL     OW14312   6.418   6.874   7.868
37472SOL    HW114313   6.461   6.948   7.911
37472SOL    HW214314   6.458   6.797   7.909
37473SOL     OW14315   6.940  13.162   7.219
37473SOL    HW114316   6.992  13.191   7.145
37473SOL    HW214317   6.862  13.217   7.216
37474SOL     OW14318  14.496   7.417  13.116
37474SOL    HW114319  14.507   7.416  13.211
37474SOL    HW214320  14.491   7.325  13.091
37475SOL     OW14321   7.897   5.219   8.736
37475SOL    HW114322   7.987   5.210   8.705
37475SOL    HW214323   7.878   5.313   8.730
37476SOL     OW14324   2.422   1.889  11.021
37476SOL    HW114325   2.449   1.822  10.958
37476SOL    HW214326   2.441   1.850  11.106
37477SOL     OW14327  11.809  13.205   8.345
37477SOL    HW114328  11.763  13.289   8.334
37477SOL    HW214329  11.752  13.141   8.303
37478SOL     OW14330  12.533  10.274   5.841
37478SOL    HW114331  12.444  10.288   5.876
37478SOL    HW214332  12.546  10.347   5.780
37479SOL     OW14333  10.315   4.412  14.023
37479SOL    HW114334  10.341   4.476  14.089
37479SOL    HW214335  10.272   4.464  13.955
37480SOL     OW14336   1.670   3.006   7.882
37480SOL    HW114337   1.649   3.026   7.791
37480SOL    HW214338   1.606   3.056   7.933
37481SOL     OW14339  13.485   7.805  12.836
37481SOL    HW114340  13.411   7.745  12.825
37481SOL    HW214341  13.514   7.791  12.926
37482SOL     OW14342   4.213  12.268  10.860
37482SOL    HW114343   4.171  12.298  10.780
37482SOL    HW214344   4.165  12.189  10.884
37483SOL     OW14345  12.561  14.070   3.461
37483SOL    HW114346  12.579  14.078   3.555
37483SOL    HW214347  12.631  14.014   3.427
37484SOL     OW14348   8.137  10.217   0.485
37484SOL    HW114349   8.116  10.138   0.535
37484SOL    HW214350   8.164  10.185   0.399
37485SOL     OW14351  14.508  11.656   2.663
37485SOL    HW114352  14.444  11.669   2.592
37485SOL    HW214353  14.482  11.719   2.730
37486SOL     OW14354  12.096   3.227   1.704
37486SOL    HW114355  12.136   3.151   1.746
37486SOL    HW214356  12.105   3.297   1.768
37487SOL     OW14357   6.922   3.585   5.060
37487SOL    HW114358   6.832   3.567   5.032
37487SOL    HW214359   6.923   3.679   5.078
37488SOL     OW14360   7.544   8.977  14.203
37488SOL    HW114361   7.456   9.013  14.206
37488SOL    HW214362   7.553   8.942  14.114
37489SOL     OW14363   2.443  13.342  12.899
37489SOL    HW114364   2.386  13.406  12.856
37489SOL    HW214365   2.467  13.281  12.830
37490SOL     OW14366   6.634  14.456   5.652
37490SOL    HW114367   6.670  14.459   5.741
37490SOL    HW214368   6.621  14.363   5.635
37491SOL     OW14369  11.685   0.412  12.175
37491SOL    HW114370  11.779   0.408  12.161
37491SOL    HW214371  11.676   0.445  12.265
37492SOL     OW14372   8.552   4.125   8.817
37492SOL    HW114373   8.603   4.056   8.859
37492SOL    HW214374   8.472   4.082   8.788
37493SOL     OW14375   6.375  10.355  12.724
37493SOL    HW114376   6.347  10.446  12.729
37493SOL    HW214377   6.294  10.305  12.716
37494SOL     OW14378   3.651   6.359   6.939
37494SOL    HW114379   3.682   6.444   6.909
37494SOL    HW214380   3.555   6.364   6.931
37495SOL     OW14381   4.825   5.194   7.884
37495SOL    HW114382   4.799   5.105   7.907
37495SOL    HW214383   4.743   5.244   7.883
37496SOL     OW14384   4.780   9.487   2.603
37496SOL    HW114385   4.684   9.487   2.609
37496SOL    HW214386   4.798   9.447   2.518
37497SOL     OW14387   8.005   2.569   4.305
37497SOL    HW114388   7.928   2.515   4.287
37497SOL    HW214389   7.980   2.622   4.380
37498SOL     OW14390   3.539   9.708  13.145
37498SOL    HW114391   3.466   9.739  13.091
37498SOL    HW214392   3.518   9.616  13.162
37499SOL     OW14393  14.044  10.043  14.310
37499SOL    HW114394  13.953  10.075  14.309
37499SOL    HW214395  14.070  10.043  14.218
37500SOL     OW14396   1.593   6.234  12.260
37500SOL    HW114397   1.606   6.325  12.234
37500SOL    HW214398   1.639   6.183  12.193
37501SOL     OW14399   3.724   1.547   0.756
37501SOL    HW114400   3.632   1.549   0.783
37501SOL    HW214401   3.767   1.613   0.811
37502SOL     OW14402   0.069   0.911  12.455
37502SOL    HW114403   0.076   1.004  12.477
37502SOL    HW214404  14.846   0.897  12.436
37503SOL     OW14405  14.705   5.204   3.037
37503SOL    HW114406  14.642   5.215   2.966
37503SOL    HW214407  14.788   5.186   2.993
37504SOL     OW14408   2.537   0.542   7.712
37504SOL    HW114409   2.579   0.493   7.783
37504SOL    HW214410   2.542   0.633   7.740
37505SOL     OW14411  10.808   5.613   2.508
37505SOL    HW114412  10.755   5.535   2.489
37505SOL    HW214413  10.888   5.579   2.547
37506SOL     OW14414  11.041   3.508   4.286
37506SOL    HW114415  10.998   3.426   4.309
37506SOL    HW214416  10.971   3.566   4.258
37507SOL     OW14417   8.557  14.337  11.300
37507SOL    HW114418   8.551  14.283  11.221
37507SOL    HW214419   8.631  14.395  11.283
37508SOL     OW14420  13.382   0.079   5.858
37508SOL    HW114421  13.312   0.093   5.920
37508SOL    HW214422  13.372   0.150   5.794
37509SOL     OW14423   3.081   4.419   6.097
37509SOL    HW114424   3.064   4.447   6.187
37509SOL    HW214425   2.996   4.390   6.065
37510SOL     OW14426   1.276   9.734   4.968
37510SOL    HW114427   1.359   9.688   4.963
37510SOL    HW214428   1.246   9.740   4.877
37511SOL     OW14429   1.450   2.522  13.690
37511SOL    HW114430   1.442   2.589  13.758
37511SOL    HW214431   1.465   2.571  13.610
37512SOL     OW14432   6.820   2.436  12.794
37512SOL    HW114433   6.733   2.442  12.832
37512SOL    HW214434   6.868   2.379  12.855
37513SOL     OW14435  10.088   7.790  11.115
37513SOL    HW114436  10.100   7.881  11.145
37513SOL    HW214437  10.059   7.743  11.193
37514SOL     OW14438  13.465   7.926   1.984
37514SOL    HW114439  13.381   7.927   2.029
37514SOL    HW214440  13.495   7.835   1.993
37515SOL     OW14441   7.486  11.730   0.165
37515SOL    HW114442   7.531  11.793   0.223
37515SOL    HW214443   7.460  11.659   0.224
37516SOL     OW14444  10.429   2.848   2.494
37516SOL    HW114445  10.333   2.848   2.492
37516SOL    HW214446  10.453   2.919   2.435
37517SOL     OW14447   5.010  14.564   9.090
37517SOL    HW114448   5.097  14.560   9.130
37517SOL    HW214449   5.021  14.624   9.015
37518SOL     OW14450   7.326   7.476   9.100
37518SOL    HW114451   7.392   7.427   9.050
37518SOL    HW214452   7.258   7.497   9.036
37519SOL     OW14453  11.105   4.166  13.807
37519SOL    HW114454  11.046   4.096  13.835
37519SOL    HW214455  11.125   4.214  13.887
37520SOL     OW14456   6.610  13.567   2.251
37520SOL    HW114457   6.581  13.649   2.210
37520SOL    HW214458   6.636  13.511   2.178
37521SOL     OW14459  11.264   7.257   6.782
37521SOL    HW114460  11.251   7.165   6.806
37521SOL    HW214461  11.265   7.257   6.686
37522SOL     OW14462   7.818   6.051   6.107
37522SOL    HW114463   7.909   6.054   6.137
37522SOL    HW214464   7.773   6.114   6.163
37523SOL     OW14465   4.943   6.475   3.807
37523SOL    HW114466   4.969   6.383   3.801
37523SOL    HW214467   4.966   6.511   3.722
37524SOL     OW14468  12.027   1.711  12.897
37524SOL    HW114469  11.947   1.699  12.846
37524SOL    HW214470  12.008   1.784  12.956
37525SOL     OW14471   4.041   8.595   2.841
37525SOL    HW114472   4.037   8.682   2.799
37525SOL    HW214473   4.111   8.603   2.905
37526SOL     OW14474   6.956   4.224   8.183
37526SOL    HW114475   6.971   4.179   8.100
37526SOL    HW214476   6.891   4.291   8.163
37527SOL     OW14477  14.289   0.235   4.471
37527SOL    HW114478  14.210   0.249   4.524
37527SOL    HW214479  14.351   0.193   4.531
37528SOL     OW14480   8.762   2.889   3.839
37528SOL    HW114481   8.798   2.937   3.913
37528SOL    HW214482   8.720   2.956   3.785
37529SOL     OW14483  11.962   5.057   1.191
37529SOL    HW114484  11.871   5.088   1.193
37529SOL    HW214485  11.956   4.965   1.164
37530SOL     OW14486  11.874   8.783  10.824
37530SOL    HW114487  11.829   8.759  10.743
37530SOL    HW214488  11.854   8.713  10.885
37531SOL     OW14489  13.841   5.722  13.694
37531SOL    HW114490  13.765   5.765  13.655
37531SOL    HW214491  13.916   5.763  13.652
37532SOL     OW14492   9.629   1.356  12.453
37532SOL    HW114493   9.610   1.268  12.421
37532SOL    HW214494   9.600   1.414  12.383
37533SOL     OW14495   8.000   7.194   9.191
37533SOL    HW114496   8.064   7.129   9.162
37533SOL    HW214497   8.052   7.265   9.227
37534SOL     OW14498  14.707   3.595   1.928
37534SOL    HW114499  14.802   3.605   1.937
37534SOL    HW214500  14.673   3.609   2.017
37535SOL     OW14501   8.078  12.003  13.260
37535SOL    HW114502   8.166  11.979  13.230
37535SOL    HW214503   8.089  12.027  13.352
37536SOL     OW14504  12.387   0.600  10.402
37536SOL    HW114505  12.466   0.590  10.349
37536SOL    HW214506  12.352   0.511  10.411
37537SOL     OW14507   0.431   7.549   5.020
37537SOL    HW114508   0.471   7.463   5.036
37537SOL    HW214509   0.481   7.585   4.947
37538SOL     OW14510  11.173  10.341  14.491
37538SOL    HW114511  11.253  10.370  14.448
37538SOL    HW214512  11.156  10.254  14.454
37539SOL     OW14513  14.188   2.111   5.307
37539SOL    HW114514  14.107   2.154   5.333
37539SOL    HW214515  14.177   2.020   5.333
37540SOL     OW14516  11.749   2.536   1.585
37540SOL    HW114517  11.742   2.542   1.490
37540SOL    HW214518  11.690   2.465   1.609
37541SOL     OW14519   0.812   8.941   9.723
37541SOL    HW114520   0.778   8.869   9.669
37541SOL    HW214521   0.813   8.906   9.812
37542SOL     OW14522   4.940   5.490   4.628
37542SOL    HW114523   4.950   5.565   4.686
37542SOL    HW214524   4.866   5.442   4.664
37543SOL     OW14525  14.118   5.622   0.388
37543SOL    HW114526  14.177   5.548   0.384
37543SOL    HW214527  14.165   5.693   0.345
37544SOL     OW14528   4.231  12.418   4.089
37544SOL    HW114529   4.197  12.352   4.028
37544SOL    HW214530   4.227  12.500   4.040
37545SOL     OW14531   1.847   0.312  12.341
37545SOL    HW114532   1.857   0.341  12.250
37545SOL    HW214533   1.857   0.217  12.337
37546SOL     OW14534   3.177   3.985   3.012
37546SOL    HW114535   3.152   3.893   3.003
37546SOL    HW214536   3.267   3.982   3.047
37547SOL     OW14537   7.507   5.306  13.876
37547SOL    HW114538   7.553   5.314  13.793
37547SOL    HW214539   7.559   5.357  13.938
37548SOL     OW14540   9.410   5.364  11.467
37548SOL    HW114541   9.437   5.297  11.529
37548SOL    HW214542   9.344   5.322  11.412
37549SOL     OW14543   7.080  14.437   1.923
37549SOL    HW114544   7.159  14.387   1.902
37549SOL    HW214545   7.041  14.457   1.838
37550SOL     OW14546  14.573   0.412   5.219
37550SOL    HW114547  14.653   0.459   5.243
37550SOL    HW214548  14.570   0.419   5.123
37551SOL     OW14549  11.606   7.807   2.996
37551SOL    HW114550  11.514   7.783   2.991
37551SOL    HW214551  11.649   7.730   3.032
37552SOL     OW14552   3.215   2.132  13.523
37552SOL    HW114553   3.272   2.177  13.460
37552SOL    HW214554   3.268   2.125  13.603
37553SOL     OW14555   6.152  10.013  11.566
37553SOL    HW114556   6.069  10.020  11.612
37553SOL    HW214557   6.164   9.919  11.552
37554SOL     OW14558   2.042  13.844   7.322
37554SOL    HW114559   2.036  13.915   7.259
37554SOL    HW214560   2.050  13.888   7.407
37555SOL     OW14561  11.198  12.932  13.898
37555SOL    HW114562  11.200  12.887  13.982
37555SOL    HW214563  11.276  12.987  13.899
37556SOL     OW14564   5.035   5.175   1.148
37556SOL    HW114565   5.053   5.104   1.209
37556SOL    HW214566   5.051   5.137   1.061
37557SOL     OW14567  10.374   7.926  11.680
37557SOL    HW114568  10.326   7.904  11.600
37557SOL    HW214569  10.410   7.843  11.710
37558SOL     OW14570   7.054   4.638  12.073
37558SOL    HW114571   7.129   4.617  12.016
37558SOL    HW214572   7.075   4.596  12.156
37559SOL     OW14573   7.416   4.201   7.500
37559SOL    HW114574   7.453   4.140   7.436
37559SOL    HW214575   7.437   4.288   7.466
37560SOL     OW14576   8.230  12.945   0.117
37560SOL    HW114577   8.176  12.875   0.080
37560SOL    HW214578   8.288  12.971   0.045
37561SOL     OW14579   9.969   7.000   7.738
37561SOL    HW114580  10.049   6.979   7.786
37561SOL    HW214581   9.964   7.096   7.742
37562SOL     OW14582   0.995   1.338   9.090
37562SOL    HW114583   0.914   1.358   9.044
37562SOL    HW214584   1.046   1.284   9.029
37563SOL     OW14585   9.804  12.519   2.636
37563SOL    HW114586   9.785  12.492   2.726
37563SOL    HW214587   9.721  12.553   2.603
37564SOL     OW14588   1.360   6.309   0.336
37564SOL    HW114589   1.292   6.348   0.282
37564SOL    HW214590   1.422   6.380   0.353
37565SOL     OW14591   8.428   8.308   2.227
37565SOL    HW114592   8.514   8.309   2.269
37565SOL    HW214593   8.426   8.387   2.174
37566SOL     OW14594  10.622   7.777   4.719
37566SOL    HW114595  10.567   7.755   4.644
37566SOL    HW214596  10.606   7.870   4.734
37567SOL     OW14597   4.958  13.963  11.949
37567SOL    HW114598   4.971  13.946  12.042
37567SOL    HW214599   5.045  13.982  11.915
37568SOL     OW14600   6.355   8.823   4.315
37568SOL    HW114601   6.436   8.856   4.354
37568SOL    HW214602   6.344   8.736   4.353
37569SOL     OW14603   9.883   0.708  14.364
37569SOL    HW114604   9.921   0.786  14.324
37569SOL    HW214605   9.938   0.692  14.442
37570SOL     OW14606   9.830  10.448  11.716
37570SOL    HW114607   9.735  10.444  11.707
37570SOL    HW214608   9.863  10.431  11.628
37571SOL     OW14609   2.287  12.894  13.327
37571SOL    HW114610   2.318  12.872  13.414
37571SOL    HW214611   2.219  12.830  13.308
37572SOL     OW14612   2.658   6.169  13.816
37572SOL    HW114613   2.697   6.087  13.847
37572SOL    HW214614   2.733   6.222  13.788
37573SOL     OW14615   9.434   0.974   2.424
37573SOL    HW114616   9.390   0.929   2.495
37573SOL    HW214617   9.374   0.966   2.350
37574SOL     OW14618   8.072   8.621   9.313
37574SOL    HW114619   8.072   8.526   9.322
37574SOL    HW214620   7.981   8.644   9.293
37575SOL     OW14621  10.743   4.226  10.200
37575SOL    HW114622  10.709   4.264  10.119
37575SOL    HW214623  10.670   4.232  10.261
37576SOL     OW14624   3.862   0.142   8.757
37576SOL    HW114625   3.911   0.191   8.823
37576SOL    HW214626   3.783   0.114   8.803
37577SOL     OW14627   9.819   2.133   0.824
37577SOL    HW114628   9.735   2.101   0.792
37577SOL    HW214629   9.853   2.062   0.878
37578SOL     OW14630   5.793   4.106   0.106
37578SOL    HW114631   5.803   4.112   0.011
37578SOL    HW214632   5.821   4.018   0.127
37579SOL     OW14633   9.568   8.290   2.949
37579SOL    HW114634   9.494   8.281   2.889
37579SOL    HW214635   9.590   8.201   2.975
37580SOL     OW14636  10.375   4.240   2.065
37580SOL    HW114637  10.322   4.249   2.144
37580SOL    HW214638  10.315   4.205   1.999
37581SOL     OW14639  13.792   1.402   4.269
37581SOL    HW114640  13.815   1.320   4.311
37581SOL    HW214641  13.805   1.468   4.337
37582SOL     OW14642   0.966   0.140  13.683
37582SOL    HW114643   0.878   0.129  13.719
37582SOL    HW214644   1.012   0.193  13.748
37583SOL     OW14645   6.247  13.272  14.329
37583SOL    HW114646   6.296  13.192  14.314
37583SOL    HW214647   6.162  13.243  14.363
37584SOL     OW14648   8.839  14.845  11.157
37584SOL    HW114649   8.898  14.781  11.197
37584SOL    HW214650   8.800  14.799  11.083
37585SOL     OW14651  12.557   4.983   8.891
37585SOL    HW114652  12.517   5.043   8.828
37585SOL    HW214653  12.606   5.040   8.950
37586SOL     OW14654   8.559  14.148   4.146
37586SOL    HW114655   8.612  14.160   4.224
37586SOL    HW214656   8.546  14.053   4.139
37587SOL     OW14657   8.256   0.611   1.206
37587SOL    HW114658   8.288   0.701   1.197
37587SOL    HW214659   8.200   0.614   1.284
37588SOL     OW14660   4.878   1.334   5.372
37588SOL    HW114661   4.935   1.404   5.339
37588SOL    HW214662   4.931   1.255   5.365
37589SOL     OW14663   7.966  12.301  13.999
37589SOL    HW114664   7.890  12.357  14.007
37589SOL    HW214665   8.014  12.335  13.924
37590SOL     OW14666   3.174  13.127   1.055
37590SOL    HW114667   3.209  13.038   1.057
37590SOL    HW214668   3.114  13.131   1.130
37591SOL     OW14669   6.926  12.863   1.076
37591SOL    HW114670   6.840  12.824   1.061
37591SOL    HW214671   6.957  12.886   0.988
37592SOL     OW14672   9.745   7.924  12.738
37592SOL    HW114673   9.768   7.864  12.809
37592SOL    HW214674   9.822   7.980  12.729
37593SOL     OW14675  14.803   3.511  14.260
37593SOL    HW114676  14.750   3.553  14.192
37593SOL    HW214677   0.001   3.576  14.281
37594SOL     OW14678   7.811  12.616  10.359
37594SOL    HW114679   7.897  12.657  10.368
37594SOL    HW214680   7.800  12.603  10.265
37595SOL     OW14681  11.173  11.173   9.113
37595SOL    HW114682  11.240  11.199   9.177
37595SOL    HW214683  11.209  11.199   9.028
37596SOL     OW14684  12.308  11.432   1.457
37596SOL    HW114685  12.311  11.397   1.368
37596SOL    HW214686  12.332  11.359   1.513
37597SOL     OW14687   5.293   1.120   1.582
37597SOL    HW114688   5.374   1.069   1.592
37597SOL    HW214689   5.228   1.074   1.635
37598SOL     OW14690   5.308   8.144  12.426
37598SOL    HW114691   5.313   8.055  12.392
37598SOL    HW214692   5.258   8.136  12.507
37599SOL     OW14693   5.804   0.468  14.751
37599SOL    HW114694   5.741   0.403  14.782
37599SOL    HW214695   5.887   0.421  14.745
37600SOL     OW14696   1.084  11.615   9.955
37600SOL    HW114697   1.013  11.551   9.960
37600SOL    HW214698   1.134  11.603  10.036
37601SOL     OW14699  10.165  12.448  13.792
37601SOL    HW114700  10.179  12.525  13.847
37601SOL    HW214701  10.252  12.424  13.762
37602SOL     OW14702   2.854  12.373   0.847
37602SOL    HW114703   2.915  12.371   0.920
37602SOL    HW214704   2.909  12.361   0.769
37603SOL     OW14705  12.315   6.090   4.953
37603SOL    HW114706  12.384   6.023   4.947
37603SOL    HW214707  12.356   6.161   5.003
37604SOL     OW14708   1.488   7.365   0.883
37604SOL    HW114709   1.527   7.298   0.940
37604SOL    HW214710   1.424   7.317   0.830
37605SOL     OW14711  13.272  12.788   9.406
37605SOL    HW114712  13.279  12.884   9.403
37605SOL    HW214713  13.178  12.771   9.407
37606SOL     OW14714   9.774   7.475   2.577
37606SOL    HW114715   9.818   7.489   2.494
37606SOL    HW214716   9.701   7.538   2.577
37607SOL     OW14717   9.889   0.176   6.037
37607SOL    HW114718   9.834   0.249   6.007
37607SOL    HW214719   9.972   0.217   6.061
37608SOL     OW14720   5.239   9.660  11.229
37608SOL    HW114721   5.306   9.660  11.297
37608SOL    HW214722   5.157   9.673  11.276
37609SOL     OW14723   7.516  12.990   8.420
37609SOL    HW114724   7.598  13.001   8.371
37609SOL    HW214725   7.452  12.962   8.354
37610SOL     OW14726   6.739   3.791  10.208
37610SOL    HW114727   6.806   3.725  10.226
37610SOL    HW214728   6.721   3.782  10.114
37611SOL     OW14729   6.589   8.518  11.336
37611SOL    HW114730   6.573   8.473  11.253
37611SOL    HW214731   6.526   8.590  11.337
37612SOL     OW14732   4.450  10.880   6.246
37612SOL    HW114733   4.471  10.964   6.288
37612SOL    HW214734   4.467  10.815   6.314
37613SOL     OW14735   8.288   6.720   8.175
37613SOL    HW114736   8.298   6.795   8.117
37613SOL    HW214737   8.236   6.657   8.125
37614SOL     OW14738   0.674   4.787  13.837
37614SOL    HW114739   0.747   4.775  13.776
37614SOL    HW214740   0.710   4.843  13.906
37615SOL     OW14741   6.553   5.945   0.670
37615SOL    HW114742   6.637   5.972   0.633
37615SOL    HW214743   6.503   5.914   0.595
37616SOL     OW14744   2.967   0.020   0.626
37616SOL    HW114745   2.916  14.812   0.606
37616SOL    HW214746   3.057  14.867   0.600
37617SOL     OW14747   9.521   9.338  13.210
37617SOL    HW114748   9.558   9.341  13.298
37617SOL    HW214749   9.554   9.256  13.172
37618SOL     OW14750  10.423   8.124   6.905
37618SOL    HW114751  10.458   8.130   6.994
37618SOL    HW214752  10.434   8.032   6.881
37619SOL     OW14753   8.633  14.838  13.791
37619SOL    HW114754   8.716  14.825  13.746
37619SOL    HW214755   8.574  14.773  13.752
37620SOL     OW14756   7.735  10.751  13.579
37620SOL    HW114757   7.792  10.809  13.530
37620SOL    HW214758   7.789  10.719  13.651
37621SOL     OW14759   8.601  12.886   8.186
37621SOL    HW114760   8.560  12.966   8.219
37621SOL    HW214761   8.554  12.866   8.105
37622SOL     OW14762   0.977   5.091   5.760
37622SOL    HW114763   0.915   5.066   5.828
37622SOL    HW214764   0.922   5.119   5.686
37623SOL     OW14765   8.163   8.850   3.178
37623SOL    HW114766   8.191   8.766   3.215
37623SOL    HW214767   8.128   8.898   3.253
37624SOL     OW14768  12.875   2.775   0.507
37624SOL    HW114769  12.825   2.799   0.585
37624SOL    HW214770  12.809   2.760   0.440
37625SOL     OW14771   6.984   9.319  14.330
37625SOL    HW114772   6.922   9.290  14.263
37625SOL    HW214773   7.010   9.239  14.375
37626SOL     OW14774   0.931   9.357   2.844
37626SOL    HW114775   0.957   9.440   2.803
37626SOL    HW214776   1.013   9.317   2.871
37627SOL     OW14777   9.792  14.748  10.448
37627SOL    HW114778   9.836  14.769  10.530
37627SOL    HW214779   9.811  14.822  10.391
37628SOL     OW14780   8.977   6.785  12.798
37628SOL    HW114781   9.035   6.802  12.872
37628SOL    HW214782   8.928   6.707  12.822
37629SOL     OW14783   0.304   7.769   2.213
37629SOL    HW114784   0.238   7.701   2.203
37629SOL    HW214785   0.371   7.730   2.269
37630SOL     OW14786   7.700  13.836  14.240
37630SOL    HW114787   7.667  13.829  14.150
37630SOL    HW214788   7.795  13.834  14.230
37631SOL     OW14789   5.058   8.450  10.701
37631SOL    HW114790   5.102   8.375  10.740
37631SOL    HW214791   5.128   8.506  10.668
37632SOL     OW14792  13.987   3.406   9.903
37632SOL    HW114793  14.024   3.348   9.969
37632SOL    HW214794  14.049   3.478   9.896
37633SOL     OW14795   3.702   9.717   4.816
37633SOL    HW114796   3.794   9.691   4.818
37633SOL    HW214797   3.701   9.806   4.851
37634SOL     OW14798  12.488   4.502  11.606
37634SOL    HW114799  12.541   4.569  11.649
37634SOL    HW214800  12.437   4.549  11.541
37635SOL     OW14801   0.398   5.691   1.559
37635SOL    HW114802   0.360   5.635   1.492
37635SOL    HW214803   0.479   5.724   1.520
37636SOL     OW14804   0.385   8.731   8.326
37636SOL    HW114805   0.462   8.778   8.293
37636SOL    HW214806   0.348   8.789   8.392
37637SOL     OW14807  14.494   2.588   7.733
37637SOL    HW114808  14.433   2.544   7.674
37637SOL    HW214809  14.511   2.525   7.803
37638SOL     OW14810  12.602   4.051   1.202
37638SOL    HW114811  12.667   4.082   1.265
37638SOL    HW214812  12.597   3.957   1.217
37639SOL     OW14813   1.360  10.859   9.421
37639SOL    HW114814   1.319  10.908   9.349
37639SOL    HW214815   1.454  10.864   9.404
37640SOL     OW14816   9.438   2.110  14.415
37640SOL    HW114817   9.482   2.131  14.333
37640SOL    HW214818   9.492   2.041  14.455
37641SOL     OW14819   0.461   5.086   5.283
37641SOL    HW114820   0.372   5.086   5.247
37641SOL    HW214821   0.509   5.148   5.227
37642SOL     OW14822   4.860  13.415  10.051
37642SOL    HW114823   4.780  13.382  10.011
37642SOL    HW214824   4.830  13.468  10.125
37643SOL     OW14825   9.990  13.486   4.039
37643SOL    HW114826  10.026  13.558   4.092
37643SOL    HW214827   9.922  13.528   3.986
37644SOL     OW14828   0.060   6.675  10.764
37644SOL    HW114829   0.122   6.734  10.722
37644SOL    HW214830   0.011   6.730  10.825
37645SOL     OW14831   3.740  10.934   5.185
37645SOL    HW114832   3.658  10.907   5.227
37645SOL    HW214833   3.764  11.015   5.230
37646SOL     OW14834  10.741   8.637  12.153
37646SOL    HW114835  10.703   8.667  12.235
37646SOL    HW214836  10.792   8.560  12.177
37647SOL     OW14837   5.489  12.897  14.212
37647SOL    HW114838   5.568  12.844  14.226
37647SOL    HW214839   5.417  12.834  14.218
37648SOL     OW14840  12.691   6.128   3.708
37648SOL    HW114841  12.600   6.106   3.726
37648SOL    HW214842  12.739   6.101   3.787
37649SOL     OW14843   7.858   0.568  13.368
37649SOL    HW114844   7.948   0.570  13.336
37649SOL    HW214845   7.811   0.630  13.312
37650SOL     OW14846   8.865  10.849   9.613
37650SOL    HW114847   8.850  10.778   9.551
37650SOL    HW214848   8.796  10.839   9.678
37651SOL     OW14849   1.674  10.296   2.497
37651SOL    HW114850   1.679  10.201   2.509
37651SOL    HW214851   1.605  10.308   2.431
37652SOL     OW14852  13.028   9.097   7.426
37652SOL    HW114853  13.006   9.178   7.472
37652SOL    HW214854  13.087   9.125   7.356
37653SOL     OW14855   0.630   6.630   7.260
37653SOL    HW114856   0.715   6.631   7.217
37653SOL    HW214857   0.567   6.636   7.189
37654SOL     OW14858  11.029   5.769   4.360
37654SOL    HW114859  10.992   5.681   4.374
37654SOL    HW214860  11.017   5.784   4.266
37655SOL     OW14861   8.719  13.499   2.341
37655SOL    HW114862   8.769  13.440   2.397
37655SOL    HW214863   8.731  13.586   2.381
37656SOL     OW14864   5.061  10.726   7.352
37656SOL    HW114865   5.040  10.816   7.377
37656SOL    HW214866   5.075  10.680   7.436
37657SOL     OW14867  11.104  12.693  13.580
37657SOL    HW114868  11.025  12.742  13.557
37657SOL    HW214869  11.151  12.681  13.497
37658SOL     OW14870   4.706  10.921   7.790
37658SOL    HW114871   4.783  10.966   7.754
37658SOL    HW214872   4.684  10.970   7.869
37659SOL     OW14873   1.164   5.357   4.884
37659SOL    HW114874   1.200   5.309   4.958
37659SOL    HW214875   1.121   5.290   4.831
37660SOL     OW14876   1.805  12.919   9.246
37660SOL    HW114877   1.783  12.981   9.316
37660SOL    HW214878   1.727  12.915   9.191
37661SOL     OW14879   3.443  10.176   2.397
37661SOL    HW114880   3.376  10.228   2.353
37661SOL    HW214881   3.523  10.194   2.347
37662SOL     OW14882   7.455   4.495  14.012
37662SOL    HW114883   7.515   4.427  13.979
37662SOL    HW214884   7.369   4.454  14.010
37663SOL     OW14885   0.009   7.088   5.407
37663SOL    HW114886   0.033   7.112   5.317
37663SOL    HW214887  14.852   7.171   5.447
37664SOL     OW14888   9.976   3.534   8.624
37664SOL    HW114889  10.054   3.541   8.568
37664SOL    HW214890   9.948   3.624   8.638
37665SOL     OW14891  14.593  13.761   9.031
37665SOL    HW114892  14.518  13.774   8.974
37665SOL    HW214893  14.637  13.846   9.034
37666SOL     OW14894   8.406   7.898  12.503
37666SOL    HW114895   8.450   7.816  12.527
37666SOL    HW214896   8.319   7.891  12.543
37667SOL     OW14897   6.280   4.751  13.183
37667SOL    HW114898   6.373   4.770  13.178
37667SOL    HW214899   6.243   4.789  13.103
37668SOL     OW14900   3.525   1.347   8.056
37668SOL    HW114901   3.612   1.323   8.024
37668SOL    HW214902   3.540   1.381   8.144
37669SOL     OW14903  12.269   9.662   2.458
37669SOL    HW114904  12.246   9.638   2.548
37669SOL    HW214905  12.362   9.642   2.451
37670SOL     OW14906   8.648   9.298   7.190
37670SOL    HW114907   8.633   9.204   7.188
37670SOL    HW214908   8.618   9.329   7.105
37671SOL     OW14909   0.496   5.708  12.487
37671SOL    HW114910   0.409   5.736  12.460
37671SOL    HW214911   0.519   5.639  12.424
37672SOL     OW14912   9.276   9.236   1.974
37672SOL    HW114913   9.314   9.204   1.892
37672SOL    HW214914   9.189   9.196   1.977
37673SOL     OW14915   5.587   0.850   7.604
37673SOL    HW114916   5.646   0.818   7.673
37673SOL    HW214917   5.555   0.933   7.637
37674SOL     OW14918  11.600  14.660  13.687
37674SOL    HW114919  11.674  14.626  13.637
37674SOL    HW214920  11.524  14.616  13.650
37675SOL     OW14921   8.347   7.037  14.651
37675SOL    HW114922   8.319   6.967  14.591
37675SOL    HW214923   8.400   6.991  14.717
37676SOL     OW14924  10.110   2.256   5.421
37676SOL    HW114925  10.092   2.347   5.441
37676SOL    HW214926  10.057   2.236   5.344
37677SOL     OW14927   1.608  13.417   3.594
37677SOL    HW114928   1.608  13.468   3.514
37677SOL    HW214929   1.551  13.465   3.654
37678SOL     OW14930  10.808   5.536  11.294
37678SOL    HW114931  10.771   5.451  11.270
37678SOL    HW214932  10.868   5.556  11.223
37679SOL     OW14933   7.723  14.787   4.621
37679SOL    HW114934   7.739  14.695   4.641
37679SOL    HW214935   7.789  14.809   4.556
37680SOL     OW14936   4.619  11.162   0.019
37680SOL    HW114937   4.666  11.080   0.038
37680SOL    HW214938   4.688  11.225  14.866
37681SOL     OW14939   2.353   6.533   8.591
37681SOL    HW114940   2.427   6.583   8.627
37681SOL    HW214941   2.384   6.501   8.507
37682SOL     OW14942   0.243  12.509   1.400
37682SOL    HW114943   0.234  12.591   1.351
37682SOL    HW214944   0.336  12.503   1.420
37683SOL     OW14945   6.193  12.873   3.648
37683SOL    HW114946   6.121  12.855   3.709
37683SOL    HW214947   6.217  12.788   3.613
37684SOL     OW14948   9.029   2.791  10.050
37684SOL    HW114949   9.083   2.862  10.086
37684SOL    HW214950   8.947   2.796  10.099
37685SOL     OW14951   1.171   1.912  12.005
37685SOL    HW114952   1.192   1.930  12.096
37685SOL    HW214953   1.205   1.987  11.957
37686SOL     OW14954  10.802   3.716   5.280
37686SOL    HW114955  10.722   3.766   5.263
37686SOL    HW214956  10.873   3.778   5.263
37687SOL     OW14957   2.634   1.839  10.061
37687SOL    HW114958   2.541   1.817  10.062
37687SOL    HW214959   2.679   1.755  10.075
37688SOL     OW14960  14.391   8.556   2.204
37688SOL    HW114961  14.409   8.636   2.154
37688SOL    HW214962  14.308   8.524   2.169
37689SOL     OW14963   6.273   2.680   0.276
37689SOL    HW114964   6.302   2.696   0.186
37689SOL    HW214965   6.181   2.654   0.267
37690SOL     OW14966   8.350   2.442   2.071
37690SOL    HW114967   8.279   2.399   2.025
37690SOL    HW214968   8.308   2.482   2.148
37691SOL     OW14969  10.983   9.190   4.329
37691SOL    HW114970  11.032   9.113   4.359
37691SOL    HW214971  10.996   9.255   4.397
37692SOL     OW14972   6.573   5.389   5.598
37692SOL    HW114973   6.513   5.441   5.544
37692SOL    HW214974   6.595   5.447   5.671
37693SOL     OW14975  10.182   3.081  10.473
37693SOL    HW114976  10.156   3.126  10.554
37693SOL    HW214977  10.102   3.080  10.420
37694SOL     OW14978   7.341  11.460  10.588
37694SOL    HW114979   7.435  11.478  10.577
37694SOL    HW214980   7.319  11.495  10.673
37695SOL     OW14981   5.954   2.020  13.249
37695SOL    HW114982   5.958   2.088  13.182
37695SOL    HW214983   5.888   2.052  13.311
37696SOL     OW14984   1.170   3.087   6.161
37696SOL    HW114985   1.137   2.998   6.151
37696SOL    HW214986   1.092   3.142   6.150
37697SOL     OW14987  11.734   2.523   7.617
37697SOL    HW114988  11.778   2.577   7.550
37697SOL    HW214989  11.765   2.558   7.700
37698SOL     OW14990   3.377  14.345  13.639
37698SOL    HW114991   3.308  14.289  13.674
37698SOL    HW214992   3.415  14.388  13.716
37699SOL     OW14993  11.416  13.143  13.863
37699SOL    HW114994  11.413  13.227  13.909
37699SOL    HW214995  11.505  13.137  13.829
37700SOL     OW14996   0.784  10.348   1.009
37700SOL    HW114997   0.765  10.438   1.034
37700SOL    HW214998   0.879  10.340   1.017
37701SOL     OW14999   7.528   0.943   3.091
37701SOL    HW115000   7.516   0.932   2.997
37701SOL    HW215001   7.621   0.925   3.106
37702SOL     OW15002   7.143  12.857   7.960
37702SOL    HW115003   7.230  12.891   7.940
37702SOL    HW215004   7.092  12.934   7.987
37703SOL     OW15005  13.465   8.944   0.460
37703SOL    HW115006  13.472   8.869   0.519
37703SOL    HW215007  13.548   8.990   0.470
37704SOL     OW15008   0.165   4.684  13.114
37704SOL    HW115009   0.219   4.624  13.163
37704SOL    HW215010   0.095   4.630  13.077
37705SOL     OW15011   6.191  10.897   0.109
37705SOL    HW115012   6.218  10.854   0.191
37705SOL    HW215013   6.146  10.977   0.137
37706SOL     OW15014   8.499  12.619  13.884
37706SOL    HW115015   8.533  12.707  13.896
37706SOL    HW215016   8.524  12.572  13.964
37707SOL     OW15017   4.327  11.144   3.875
37707SOL    HW115018   4.414  11.132   3.913
37707SOL    HW215019   4.326  11.087   3.799
37708SOL     OW15020   7.898   6.294  14.074
37708SOL    HW115021   7.931   6.220  14.024
37708SOL    HW215022   7.898   6.367  14.012
37709SOL     OW15023   7.314  13.487   1.271
37709SOL    HW115024   7.385  13.530   1.320
37709SOL    HW215025   7.300  13.404   1.316
37710SOL     OW15026   1.155  12.150   8.881
37710SOL    HW115027   1.160  12.209   8.806
37710SOL    HW215028   1.063  12.153   8.908
37711SOL     OW15029  12.298   8.747   1.518
37711SOL    HW115030  12.382   8.774   1.554
37711SOL    HW215031  12.256   8.698   1.589
37712SOL     OW15032   9.711  12.667   4.092
37712SOL    HW115033   9.683  12.586   4.049
37712SOL    HW215034   9.692  12.736   4.028
37713SOL     OW15035  10.267   9.725  14.040
37713SOL    HW115036  10.360   9.721  14.018
37713SOL    HW215037  10.254   9.654  14.102
37714SOL     OW15038  10.027   7.199  13.272
37714SOL    HW115039  10.101   7.141  13.290
37714SOL    HW215040   9.951   7.154  13.309
37715SOL     OW15041  14.567   1.225   4.409
37715SOL    HW115042  14.630   1.291   4.435
37715SOL    HW215043  14.618   1.145   4.398
37716SOL     OW15044  11.022  10.791  10.234
37716SOL    HW115045  10.960  10.859  10.208
37716SOL    HW215046  11.061  10.761  10.152
37717SOL     OW15047   7.280   4.633   8.958
37717SOL    HW115048   7.214   4.569   8.985
37717SOL    HW215049   7.363   4.596   8.989
37718SOL     OW15050   1.857   4.754   8.334
37718SOL    HW115051   1.933   4.789   8.288
37718SOL    HW215052   1.849   4.664   8.303
37719SOL     OW15053   7.117   8.429   4.170
37719SOL    HW115054   7.102   8.371   4.245
37719SOL    HW215055   7.208   8.458   4.181
37720SOL     OW15056   8.284   5.093   9.884
37720SOL    HW115057   8.373   5.071   9.856
37720SOL    HW215058   8.245   5.138   9.808
37721SOL     OW15059   5.534   1.696  10.088
37721SOL    HW115060   5.601   1.628  10.094
37721SOL    HW215061   5.571   1.770  10.137
37722SOL     OW15062   9.898   8.801  11.316
37722SOL    HW115063   9.876   8.740  11.245
37722SOL    HW215064   9.904   8.745  11.393
37723SOL     OW15065   7.803   3.804   5.090
37723SOL    HW115066   7.885   3.783   5.136
37723SOL    HW215067   7.753   3.722   5.091
37724SOL     OW15068   5.902   7.688  13.913
37724SOL    HW115069   5.849   7.639  13.975
37724SOL    HW215070   5.987   7.699  13.957
37725SOL     OW15071  13.046   9.499   3.967
37725SOL    HW115072  13.024   9.411   3.999
37725SOL    HW215073  13.042   9.491   3.872
37726SOL     OW15074  14.535   5.851  14.750
37726SOL    HW115075  14.508   5.762  14.772
37726SOL    HW215076  14.624   5.859  14.784
37727SOL     OW15077   5.879   7.363  11.460
37727SOL    HW115078   5.930   7.441  11.439
37727SOL    HW215079   5.933   7.290  11.429
37728SOL     OW15080   5.974   1.138  12.456
37728SOL    HW115081   5.994   1.157  12.548
37728SOL    HW215082   6.055   1.100  12.421
37729SOL     OW15083   2.967  12.937  10.092
37729SOL    HW115084   2.938  12.988  10.016
37729SOL    HW215085   2.989  12.850  10.056
37730SOL     OW15086   6.757   1.939   9.308
37730SOL    HW115087   6.764   2.017   9.363
37730SOL    HW215088   6.821   1.878   9.344
37731SOL     OW15089   7.034   7.307   4.754
37731SOL    HW115090   7.065   7.233   4.702
37731SOL    HW215091   7.055   7.283   4.844
37732SOL     OW15092   3.685   2.909   8.284
37732SOL    HW115093   3.738   2.883   8.359
37732SOL    HW215094   3.723   2.861   8.210
37733SOL     OW15095  11.450  14.072  14.414
37733SOL    HW115096  11.403  14.153  14.393
37733SOL    HW215097  11.524  14.071  14.354
37734SOL     OW15098   9.819   4.186  13.336
37734SOL    HW115099   9.902   4.166  13.378
37734SOL    HW215100   9.794   4.272  13.371
37735SOL     OW15101  14.806  12.709  12.417
37735SOL    HW115102  14.777  12.635  12.469
37735SOL    HW215103  14.783  12.786  12.469
37736SOL     OW15104  10.616   6.263   8.341
37736SOL    HW115105  10.546   6.270   8.277
37736SOL    HW215106  10.677   6.199   8.304
37737SOL     OW15107   3.805   5.684   4.402
37737SOL    HW115108   3.848   5.754   4.450
37737SOL    HW215109   3.876   5.643   4.352
37738SOL     OW15110  13.865   0.601   9.341
37738SOL    HW115111  13.874   0.636   9.429
37738SOL    HW215112  13.941   0.543   9.330
37739SOL     OW15113   3.027   9.942   8.003
37739SOL    HW115114   2.984   9.877   8.059
37739SOL    HW215115   2.955   9.992   7.965
37740SOL     OW15116   4.391   5.782   5.511
37740SOL    HW115117   4.466   5.723   5.514
37740SOL    HW215118   4.428   5.870   5.519
37741SOL     OW15119   4.339  13.909   3.222
37741SOL    HW115120   4.244  13.893   3.219
37741SOL    HW215121   4.377  13.837   3.173
37742SOL     OW15122   1.754  13.270   1.661
37742SOL    HW115123   1.701  13.330   1.713
37742SOL    HW215124   1.842  13.308   1.663
37743SOL     OW15125  13.410  12.760  11.856
37743SOL    HW115126  13.407  12.693  11.925
37743SOL    HW215127  13.407  12.843  11.903
37744SOL     OW15128   4.152   1.388  10.494
37744SOL    HW115129   4.159   1.381  10.399
37744SOL    HW215130   4.124   1.478  10.510
37745SOL     OW15131   3.445  14.558   0.208
37745SOL    HW115132   3.430  14.642   0.166
37745SOL    HW215133   3.540  14.554   0.222
37746SOL     OW15134   4.264   2.059   7.589
37746SOL    HW115135   4.214   1.978   7.591
37746SOL    HW215136   4.202   2.126   7.620
37747SOL     OW15137   9.891   0.558   8.574
37747SOL    HW115138   9.883   0.464   8.588
37747SOL    HW215139   9.820   0.596   8.625
37748SOL     OW15140   8.108  14.138   5.059
37748SOL    HW115141   8.092  14.209   5.122
37748SOL    HW215142   8.061  14.165   4.980
37749SOL     OW15143   7.498   4.915   0.864
37749SOL    HW115144   7.571   4.933   0.924
37749SOL    HW215145   7.459   4.835   0.898
37750SOL     OW15146   1.048   7.370   0.022
37750SOL    HW115147   1.107   7.382   0.096
37750SOL    HW215148   0.966   7.340   0.061
37751SOL     OW15149   8.835   8.604   1.487
37751SOL    HW115150   8.846   8.626   1.579
37751SOL    HW215151   8.916   8.632   1.445
37752SOL     OW15152   4.773   5.401   0.643
37752SOL    HW115153   4.701   5.449   0.602
37752SOL    HW215154   4.759   5.310   0.618
37753SOL     OW15155   1.028   5.099   0.545
37753SOL    HW115156   1.042   5.049   0.465
37753SOL    HW215157   1.057   5.041   0.615
37754SOL     OW15158  10.695  14.507  12.369
37754SOL    HW115159  10.679  14.568  12.441
37754SOL    HW215160  10.632  14.533  12.302
37755SOL     OW15161   5.162   6.262  13.874
37755SOL    HW115162   5.113   6.277  13.955
37755SOL    HW215163   5.187   6.349  13.845
37756SOL     OW15164   5.725  11.667  12.930
37756SOL    HW115165   5.817  11.685  12.909
37756SOL    HW215166   5.716  11.573  12.916
37757SOL     OW15167  13.800   0.113   6.977
37757SOL    HW115168  13.820   0.207   6.977
37757SOL    HW215169  13.862   0.075   6.914
37758SOL     OW15170   3.770  12.028  14.229
37758SOL    HW115171   3.675  12.022  14.214
37758SOL    HW215172   3.809  11.982  14.154
37759SOL     OW15173   3.871   9.806   2.869
37759SOL    HW115174   3.950   9.759   2.841
37759SOL    HW215175   3.828   9.745   2.929
37760SOL     OW15176  10.944  14.419   5.918
37760SOL    HW115177  10.885  14.369   5.975
37760SOL    HW215178  11.018  14.361   5.903
37761SOL     OW15179   2.638   9.947  11.834
37761SOL    HW115180   2.727   9.946  11.798
37761SOL    HW215181   2.617  10.040  11.844
37762SOL     OW15182   6.704   3.160  12.904
37762SOL    HW115183   6.666   3.176  12.817
37762SOL    HW215184   6.719   3.248  12.939
37763SOL     OW15185   7.822  10.047  10.779
37763SOL    HW115186   7.793   9.976  10.721
37763SOL    HW215187   7.749  10.059  10.840
37764SOL     OW15188   7.952  10.626  12.963
37764SOL    HW115189   7.907  10.546  12.935
37764SOL    HW215190   7.934  10.632  13.057
37765SOL     OW15191  14.159   9.052   3.678
37765SOL    HW115192  14.181   9.018   3.765
37765SOL    HW215193  14.068   9.025   3.664
37766SOL     OW15194   2.376  10.288   4.284
37766SOL    HW115195   2.286  10.278   4.253
37766SOL    HW215196   2.386  10.219   4.350
37767SOL     OW15197   4.730   6.742   9.800
37767SOL    HW115198   4.738   6.791   9.882
37767SOL    HW215199   4.709   6.809   9.735
37768SOL     OW15200   0.626   5.353   1.614
37768SOL    HW115201   0.666   5.407   1.545
37768SOL    HW215202   0.613   5.267   1.573
37769SOL     OW15203   5.120  14.604   1.753
37769SOL    HW115204   5.058  14.534   1.771
37769SOL    HW215205   5.206  14.567   1.774
37770SOL     OW15206   2.744   9.453  13.020
37770SOL    HW115207   2.793   9.474  13.100
37770SOL    HW215208   2.670   9.513  13.021
37771SOL     OW15209  12.535  13.416   9.405
37771SOL    HW115210  12.454  13.465   9.416
37771SOL    HW215211  12.604  13.482   9.416
37772SOL     OW15212   4.850   8.641  13.410
37772SOL    HW115213   4.908   8.564  13.414
37772SOL    HW215214   4.907   8.715  13.429
37773SOL     OW15215   1.130   4.302   6.544
37773SOL    HW115216   1.048   4.328   6.587
37773SOL    HW215217   1.102   4.245   6.472
37774SOL     OW15218  10.690   9.267   7.760
37774SOL    HW115219  10.601   9.254   7.792
37774SOL    HW215220  10.697   9.210   7.684
37775SOL     OW15221   1.350   8.600   0.345
37775SOL    HW115222   1.380   8.692   0.346
37775SOL    HW215223   1.344   8.576   0.438
37776SOL     OW15224   6.296  12.739   2.613
37776SOL    HW115225   6.384  12.768   2.587
37776SOL    HW215226   6.276  12.668   2.552
37777SOL     OW15227  10.764   6.836   1.841
37777SOL    HW115228  10.733   6.883   1.763
37777SOL    HW215229  10.850   6.873   1.858
37778SOL     OW15230  13.206   9.627  12.425
37778SOL    HW115231  13.175   9.635  12.515
37778SOL    HW215232  13.132   9.589  12.377
37779SOL     OW15233  14.166   4.606   5.070
37779SOL    HW115234  14.095   4.623   5.132
37779SOL    HW215235  14.129   4.544   5.007
37780SOL     OW15236   1.055  11.577  12.215
37780SOL    HW115237   1.047  11.520  12.139
37780SOL    HW215238   1.018  11.526  12.287
37781SOL     OW15239   7.173   7.924  13.282
37781SOL    HW115240   7.179   7.974  13.363
37781SOL    HW215241   7.159   7.833  13.311
37782SOL     OW15242  12.663   8.553  13.376
37782SOL    HW115243  12.716   8.479  13.405
37782SOL    HW215244  12.657   8.610  13.452
37783SOL     OW15245   7.895   7.732   6.942
37783SOL    HW115246   7.840   7.730   6.864
37783SOL    HW215247   7.892   7.643   6.976
37784SOL     OW15248   9.836  10.555   2.967
37784SOL    HW115249   9.810  10.466   2.992
37784SOL    HW215250   9.756  10.606   2.972
37785SOL     OW15251  11.323  13.468  14.740
37785SOL    HW115252  11.291  13.541  14.794
37785SOL    HW215253  11.251  13.451  14.679
37786SOL     OW15254  11.792   5.001   3.597
37786SOL    HW115255  11.886   4.990   3.588
37786SOL    HW215256  11.780   5.031   3.687
37787SOL     OW15257   7.732   3.067   4.690
37787SOL    HW115258   7.732   3.140   4.628
37787SOL    HW215259   7.676   3.096   4.762
37788SOL     OW15260   0.409   2.025  11.766
37788SOL    HW115261   0.501   1.999  11.776
37788SOL    HW215262   0.364   1.945  11.740
37789SOL     OW15263  12.949   0.822   6.203
37789SOL    HW115264  12.862   0.813   6.165
37789SOL    HW215265  12.959   0.916   6.218
37790SOL     OW15266  13.936   3.485   3.967
37790SOL    HW115267  14.012   3.544   3.963
37790SOL    HW215268  13.862   3.542   3.947
37791SOL     OW15269  14.347  14.455  14.062
37791SOL    HW115270  14.277  14.494  14.010
37791SOL    HW215271  14.401  14.529  14.090
37792SOL     OW15272   2.469   6.817   7.783
37792SOL    HW115273   2.432   6.894   7.740
37792SOL    HW215274   2.533   6.853   7.845
37793SOL     OW15275   9.181   0.505  12.021
37793SOL    HW115276   9.160   0.414  12.043
37793SOL    HW215277   9.108   0.534  11.966
37794SOL     OW15278   7.533   3.918   8.415
37794SOL    HW115279   7.617   3.948   8.380
37794SOL    HW215280   7.552   3.898   8.507
37795SOL     OW15281   1.078   7.453   4.382
37795SOL    HW115282   1.065   7.547   4.368
37795SOL    HW215283   0.995   7.413   4.355
37796SOL     OW15284  11.326   6.816   0.630
37796SOL    HW115285  11.297   6.900   0.665
37796SOL    HW215286  11.307   6.753   0.699
37797SOL     OW15287   4.797   6.911   3.838
37797SOL    HW115288   4.753   6.915   3.923
37797SOL    HW215289   4.795   7.002   3.806
37798SOL     OW15290  13.666   2.402   9.908
37798SOL    HW115291  13.579   2.440   9.900
37798SOL    HW215292  13.725   2.471   9.878
37799SOL     OW15293  14.791   0.985   1.411
37799SOL    HW115294  14.859   0.986   1.479
37799SOL    HW215295  14.711   1.010   1.457
37800SOL     OW15296  10.367  10.289   9.842
37800SOL    HW115297  10.451  10.335   9.850
37800SOL    HW215298  10.378  10.209   9.893
37801SOL     OW15299   7.847  13.843   3.973
37801SOL    HW115300   7.941  13.845   3.956
37801SOL    HW215301   7.839  13.833   4.067
37802SOL     OW15302   6.390   8.154   5.785
37802SOL    HW115303   6.342   8.158   5.867
37802SOL    HW215304   6.474   8.114   5.807
37803SOL     OW15305  10.625   8.056   4.697
37803SOL    HW115306  10.687   8.126   4.720
37803SOL    HW215307  10.589   8.084   4.612
37804SOL     OW15308   8.584  13.834  13.204
37804SOL    HW115309   8.494  13.812  13.229
37804SOL    HW215310   8.577  13.921  13.165
37805SOL     OW15311  13.132   8.959   3.220
37805SOL    HW115312  13.074   8.915   3.281
37805SOL    HW215313  13.108   8.924   3.134
37806SOL     OW15314   4.096   6.271   4.537
37806SOL    HW115315   4.084   6.322   4.457
37806SOL    HW215316   4.097   6.337   4.607
37807SOL     OW15317   9.720   7.713   3.922
37807SOL    HW115318   9.737   7.657   3.998
37807SOL    HW215319   9.658   7.778   3.954
37808SOL     OW15320   5.335   2.819   3.348
37808SOL    HW115321   5.315   2.814   3.441
37808SOL    HW215322   5.416   2.870   3.344
37809SOL     OW15323  13.122   9.888  12.680
37809SOL    HW115324  13.074   9.898  12.762
37809SOL    HW215325  13.094   9.961  12.626
37810SOL     OW15326   4.503   5.325   4.233
37810SOL    HW115327   4.521   5.232   4.250
37810SOL    HW215328   4.419   5.324   4.186
37811SOL     OW15329  14.152  13.898   5.346
37811SOL    HW115330  14.185  13.834   5.409
37811SOL    HW215331  14.093  13.848   5.289
37812SOL     OW15332   8.386   7.142   3.049
37812SOL    HW115333   8.358   7.078   3.115
37812SOL    HW215334   8.482   7.133   3.048
37813SOL     OW15335   5.031   9.906   2.123
37813SOL    HW115336   5.102   9.843   2.134
37813SOL    HW215337   5.026   9.920   2.028
37814SOL     OW15338   5.665   6.239  10.915
37814SOL    HW115339   5.726   6.306  10.884
37814SOL    HW215340   5.721   6.170  10.950
37815SOL     OW15341   9.713   7.996  12.112
37815SOL    HW115342   9.758   8.076  12.086
37815SOL    HW215343   9.780   7.943  12.155
37816SOL     OW15344  11.725  11.369   4.767
37816SOL    HW115345  11.731  11.291   4.712
37816SOL    HW215346  11.677  11.432   4.713
37817SOL     OW15347   5.564   7.890   8.142
37817SOL    HW115348   5.590   7.806   8.105
37817SOL    HW215349   5.469   7.885   8.150
37818SOL     OW15350  10.381   7.210   2.044
37818SOL    HW115351  10.289   7.209   2.071
37818SOL    HW215352  10.414   7.294   2.076
37819SOL     OW15353   5.751   5.553  14.208
37819SOL    HW115354   5.687   5.557  14.136
37819SOL    HW215355   5.739   5.466  14.246
37820SOL     OW15356  11.750   4.245  12.568
37820SOL    HW115357  11.664   4.226  12.607
37820SOL    HW215358  11.811   4.190  12.617
37821SOL     OW15359   1.834   5.028   1.808
37821SOL    HW115360   1.919   4.987   1.819
37821SOL    HW215361   1.821   5.080   1.887
37822SOL     OW15362  10.647  12.252   9.125
37822SOL    HW115363  10.633  12.341   9.093
37822SOL    HW215364  10.564  12.207   9.108
37823SOL     OW15365   2.612  12.567   8.377
37823SOL    HW115366   2.637  12.476   8.362
37823SOL    HW215367   2.533  12.579   8.323
37824SOL     OW15368   2.661   3.063   2.384
37824SOL    HW115369   2.715   3.046   2.462
37824SOL    HW215370   2.667   2.982   2.333
37825SOL     OW15371  10.685   5.941  12.979
37825SOL    HW115372  10.625   6.011  13.003
37825SOL    HW215373  10.706   5.957  12.887
37826SOL     OW15374   3.417  14.824   1.575
37826SOL    HW115375   3.500  14.776   1.573
37826SOL    HW215376   3.435   0.031   1.629
37827SOL     OW15377   7.921   8.671   2.778
37827SOL    HW115378   7.939   8.592   2.829
37827SOL    HW215379   7.913   8.741   2.843
37828SOL     OW15380   4.178   5.181  13.087
37828SOL    HW115381   4.204   5.233  13.011
37828SOL    HW215382   4.124   5.241  13.139
37829SOL     OW15383  13.781  13.988   7.264
37829SOL    HW115384  13.707  14.047   7.250
37829SOL    HW215385  13.758  13.910   7.213
37830SOL     OW15386   0.292  13.734   9.894
37830SOL    HW115387   0.234  13.676   9.845
37830SOL    HW215388   0.375  13.685   9.900
37831SOL     OW15389   5.075   4.166   1.732
37831SOL    HW115390   4.993   4.121   1.753
37831SOL    HW215391   5.104   4.126   1.650
37832SOL     OW15392   6.163  14.510  11.219
37832SOL    HW115393   6.256  14.531  11.224
37832SOL    HW215394   6.147  14.453  11.295
37833SOL     OW15395   6.532  11.519   2.528
37833SOL    HW115396   6.485  11.584   2.580
37833SOL    HW215397   6.621  11.553   2.522
37834SOL     OW15398  11.410   7.988   9.100
37834SOL    HW115399  11.436   7.911   9.150
37834SOL    HW215400  11.410   8.060   9.164
37835SOL     OW15401   4.377  10.339   1.540
37835SOL    HW115402   4.437  10.387   1.483
37835SOL    HW215403   4.411  10.250   1.541
37836SOL     OW15404   8.039   0.122  10.591
37836SOL    HW115405   7.973   0.053  10.600
37836SOL    HW215406   8.010   0.172  10.514
37837SOL     OW15407  10.605  11.780   7.120
37837SOL    HW115408  10.680  11.793   7.063
37837SOL    HW215409  10.529  11.782   7.061
37838SOL     OW15410   1.203   2.233   4.837
37838SOL    HW115411   1.189   2.326   4.854
37838SOL    HW215412   1.116   2.198   4.819
37839SOL     OW15413   9.648   5.184  13.943
37839SOL    HW115414   9.735   5.152  13.918
37839SOL    HW215415   9.633   5.260  13.887
37840SOL     OW15416   0.565  14.845  13.612
37840SOL    HW115417   0.580  14.772  13.552
37840SOL    HW215418   0.624   0.044  13.583
37841SOL     OW15419   2.486   2.807   0.274
37841SOL    HW115420   2.447   2.837   0.193
37841SOL    HW215421   2.504   2.714   0.260
37842SOL     OW15422   9.152   0.569   7.661
37842SOL    HW115423   9.059   0.574   7.637
37842SOL    HW215424   9.166   0.477   7.683
37843SOL     OW15425  10.126   5.531   0.016
37843SOL    HW115426  10.203   5.484   0.048
37843SOL    HW215427  10.053   5.492   0.064
37844SOL     OW15428  12.060   1.020   1.686
37844SOL    HW115429  12.091   1.104   1.720
37844SOL    HW215430  11.978   1.041   1.642
37845SOL     OW15431   8.706  14.296  10.556
37845SOL    HW115432   8.724  14.371  10.612
37845SOL    HW215433   8.790  14.276  10.515
37846SOL     OW15434   4.340   2.994   2.998
37846SOL    HW115435   4.369   2.925   2.939
37846SOL    HW215436   4.319   2.949   3.080
37847SOL     OW15437  13.758  10.969   9.533
37847SOL    HW115438  13.810  10.901   9.492
37847SOL    HW215439  13.707  10.923   9.600
37848SOL     OW15440  10.371  14.762  14.308
37848SOL    HW115441  10.357  14.781  14.401
37848SOL    HW215442  10.392  14.668  14.306
37849SOL     OW15443   9.672   1.609   2.346
37849SOL    HW115444   9.584   1.572   2.351
37849SOL    HW215445   9.659   1.699   2.319
37850SOL     OW15446  14.443   4.192   8.369
37850SOL    HW115447  14.520   4.145   8.337
37850SOL    HW215448  14.412   4.141   8.444
37851SOL     OW15449   3.838   3.025  12.252
37851SOL    HW115450   3.895   3.027  12.175
37851SOL    HW215451   3.757   2.985  12.221
37852SOL     OW15452   7.490   4.184   1.276
37852SOL    HW115453   7.468   4.184   1.369
37852SOL    HW215454   7.405   4.190   1.231
37853SOL     OW15455  10.831   7.928   1.339
37853SOL    HW115456  10.913   7.878   1.342
37853SOL    HW215457  10.792   7.905   1.255
37854SOL     OW15458   8.984   3.401  10.747
37854SOL    HW115459   8.998   3.415  10.840
37854SOL    HW215460   9.031   3.473  10.704
37855SOL     OW15461   8.961   0.751   7.252
37855SOL    HW115462   8.974   0.806   7.329
37855SOL    HW215463   9.036   0.769   7.196
37856SOL     OW15464   1.838  14.091   3.231
37856SOL    HW115465   1.868  14.162   3.174
37856SOL    HW215466   1.756  14.061   3.191
37857SOL     OW15467   7.623   4.136   2.197
37857SOL    HW115468   7.611   4.088   2.279
37857SOL    HW215469   7.588   4.223   2.216
37858SOL     OW15470   1.719   4.879  10.811
37858SOL    HW115471   1.776   4.875  10.734
37858SOL    HW215472   1.637   4.840  10.782
37859SOL     OW15473   0.328  11.641  10.809
37859SOL    HW115474   0.364  11.640  10.720
37859SOL    HW215475   0.285  11.556  10.819
37860SOL     OW15476  13.126   6.304  12.432
37860SOL    HW115477  13.046   6.251  12.438
37860SOL    HW215478  13.195   6.247  12.465
37861SOL     OW15479   8.112  10.067   9.275
37861SOL    HW115480   8.089  10.138   9.334
37861SOL    HW215481   8.169  10.010   9.327
37862SOL     OW15482  13.955   1.886  10.227
37862SOL    HW115483  13.948   1.903  10.133
37862SOL    HW215484  13.864   1.887  10.258
37863SOL     OW15485   0.859  12.175  12.031
37863SOL    HW115486   0.822  12.219  12.107
37863SOL    HW215487   0.784  12.158  11.973
37864SOL     OW15488  12.828   4.814   2.817
37864SOL    HW115489  12.834   4.811   2.722
37864SOL    HW215490  12.794   4.727   2.842
37865SOL     OW15491  12.249   0.190   9.865
37865SOL    HW115492  12.174   0.235   9.828
37865SOL    HW215493  12.221   0.163   9.952
37866SOL     OW15494   0.419   9.413   6.606
37866SOL    HW115495   0.468   9.436   6.685
37866SOL    HW215496   0.485   9.385   6.543
37867SOL     OW15497   2.107  12.546  10.486
37867SOL    HW115498   2.172  12.613  10.507
37867SOL    HW215499   2.023  12.592  10.492
37868SOL     OW15500  13.287   1.604   0.276
37868SOL    HW115501  13.327   1.521   0.250
37868SOL    HW215502  13.357   1.669   0.267
37869SOL     OW15503  11.353   6.434   5.134
37869SOL    HW115504  11.259   6.439   5.114
37869SOL    HW215505  11.356   6.415   5.228
37870SOL     OW15506   5.521   2.426   9.435
37870SOL    HW115507   5.580   2.500   9.423
37870SOL    HW215508   5.563   2.373   9.503
37871SOL     OW15509   1.874   0.241   7.716
37871SOL    HW115510   1.841   0.222   7.803
37871SOL    HW215511   1.796   0.256   7.663
37872SOL     OW15512  10.336  14.699   1.881
37872SOL    HW115513  10.402  14.750   1.927
37872SOL    HW215514  10.311  14.753   1.806
37873SOL     OW15515   7.662  12.875  13.918
37873SOL    HW115516   7.580  12.826  13.916
37873SOL    HW215517   7.678  12.900  13.827
37874SOL     OW15518   0.281   9.362   7.834
37874SOL    HW115519   0.210   9.425   7.848
37874SOL    HW215520   0.238   9.284   7.799
37875SOL     OW15521   2.099   5.638   0.305
37875SOL    HW115522   2.191   5.615   0.317
37875SOL    HW215523   2.068   5.665   0.391
37876SOL     OW15524   4.274   0.889  10.521
37876SOL    HW115525   4.234   0.970  10.551
37876SOL    HW215526   4.368   0.906  10.522
37877SOL     OW15527   5.118   0.616   3.837
37877SOL    HW115528   5.102   0.524   3.859
37877SOL    HW215529   5.127   0.617   3.742
37878SOL     OW15530   9.780   4.497   4.715
37878SOL    HW115531   9.855   4.479   4.771
37878SOL    HW215532   9.810   4.567   4.657
37879SOL     OW15533  11.109  12.254   6.641
37879SOL    HW115534  11.077  12.250   6.731
37879SOL    HW215535  11.142  12.166   6.624
37880SOL     OW15536   3.724   8.182   1.480
37880SOL    HW115537   3.735   8.249   1.412
37880SOL    HW215538   3.636   8.146   1.464
37881SOL     OW15539   9.586   8.631  13.172
37881SOL    HW115540   9.506   8.592  13.208
37881SOL    HW215541   9.624   8.562  13.117
37882SOL     OW15542   6.778  12.103   9.605
37882SOL    HW115543   6.776  12.100   9.510
37882SOL    HW215544   6.693  12.068   9.632
37883SOL     OW15545   8.698  12.231  10.944
37883SOL    HW115546   8.718  12.307  10.890
37883SOL    HW215547   8.777  12.218  10.997
37884SOL     OW15548   2.478   6.382  13.036
37884SOL    HW115549   2.555   6.381  13.093
37884SOL    HW215550   2.408   6.345  13.089
37885SOL     OW15551   1.246   2.733   3.718
37885SOL    HW115552   1.278   2.722   3.808
37885SOL    HW215553   1.316   2.781   3.674
37886SOL     OW15554   3.955  14.213   9.561
37886SOL    HW115555   4.041  14.242   9.529
37886SOL    HW215556   3.901  14.292   9.560
37887SOL     OW15557   5.855   6.158   9.752
37887SOL    HW115558   5.805   6.233   9.720
37887SOL    HW215559   5.940   6.166   9.710
37888SOL     OW15560  13.819   9.546   8.054
37888SOL    HW115561  13.778   9.605   8.118
37888SOL    HW215562  13.892   9.506   8.101
37889SOL     OW15563  10.702   0.786  10.864
37889SOL    HW115564  10.781   0.821  10.906
37889SOL    HW215565  10.648   0.755  10.936
37890SOL     OW15566   4.324   2.476  14.555
37890SOL    HW115567   4.397   2.512  14.606
37890SOL    HW215568   4.356   2.391  14.525
37891SOL     OW15569   7.466   8.498   6.366
37891SOL    HW115570   7.424   8.561   6.424
37891SOL    HW215571   7.425   8.414   6.387
37892SOL     OW15572   8.557   5.214  10.893
37892SOL    HW115573   8.568   5.120  10.907
37892SOL    HW215574   8.625   5.237  10.830
37893SOL     OW15575   6.628  10.372   9.097
37893SOL    HW115576   6.662  10.292   9.057
37893SOL    HW215577   6.657  10.367   9.188
37894SOL     OW15578  10.560   1.127   5.272
37894SOL    HW115579  10.514   1.202   5.310
37894SOL    HW215580  10.494   1.057   5.271
37895SOL     OW15581   1.070   8.765   8.290
37895SOL    HW115582   1.065   8.725   8.203
37895SOL    HW215583   1.000   8.723   8.340
37896SOL     OW15584   4.454  12.802  11.104
37896SOL    HW115585   4.511  12.836  11.034
37896SOL    HW215586   4.366  12.833  11.080
37897SOL     OW15587  11.390   4.205   1.343
37897SOL    HW115588  11.442   4.194   1.264
37897SOL    HW215589  11.442   4.264   1.398
37898SOL     OW15590   3.651   6.177   1.236
37898SOL    HW115591   3.675   6.229   1.313
37898SOL    HW215592   3.657   6.086   1.266
37899SOL     OW15593   2.801   8.633  14.661
37899SOL    HW115594   2.831   8.655  14.749
37899SOL    HW215595   2.881   8.625  14.609
37900SOL     OW15596   9.661   1.996  14.744
37900SOL    HW115597   9.603   1.999  14.820
37900SOL    HW215598   9.706   2.080  14.745
37901SOL     OW15599   5.840   7.292   8.487
37901SOL    HW115600   5.846   7.206   8.528
37901SOL    HW215601   5.931   7.314   8.464
37902SOL     OW15602  13.519   4.655   5.059
37902SOL    HW115603  13.469   4.630   4.982
37902SOL    HW215604  13.454   4.689   5.121
37903SOL     OW15605   4.774  10.301  10.631
37903SOL    HW115606   4.800  10.377  10.684
37903SOL    HW215607   4.689  10.275  10.666
37904SOL     OW15608   1.282  11.549   7.743
37904SOL    HW115609   1.248  11.541   7.654
37904SOL    HW215610   1.206  11.576   7.795
37905SOL     OW15611  11.145   2.595   7.924
37905SOL    HW115612  11.187   2.671   7.963
37905SOL    HW215613  11.208   2.524   7.935
37906SOL     OW15614   1.310  14.392  13.897
37906SOL    HW115615   1.331  14.316  13.843
37906SOL    HW215616   1.256  14.357  13.968
37907SOL     OW15617   4.225  10.282   4.087
37907SOL    HW115618   4.206  10.337   4.163
37907SOL    HW215619   4.311  10.244   4.106
37908SOL     OW15620   8.019   0.850   2.193
37908SOL    HW115621   8.098   0.865   2.244
37908SOL    HW215622   7.970   0.932   2.201
37909SOL     OW15623  13.151   6.043   9.949
37909SOL    HW115624  13.107   5.961   9.974
37909SOL    HW215625  13.227   6.048  10.007
37910SOL     OW15626   4.305  14.731   8.052
37910SOL    HW115627   4.338  14.718   7.963
37910SOL    HW215628   4.384  14.735   8.106
37911SOL     OW15629   8.399   0.172  13.152
37911SOL    HW115630   8.475   0.118  13.131
37911SOL    HW215631   8.383   0.222  13.072
37912SOL     OW15632   6.226  13.203   8.186
37912SOL    HW115633   6.222  13.138   8.256
37912SOL    HW215634   6.259  13.282   8.228
37913SOL     OW15635   4.211   3.246   8.750
37913SOL    HW115636   4.175   3.332   8.773
37913SOL    HW215637   4.299   3.266   8.718
37914SOL     OW15638  12.588   3.654   9.258
37914SOL    HW115639  12.528   3.686   9.191
37914SOL    HW215640  12.673   3.690   9.234
37915SOL     OW15641   8.691   8.798   6.906
37915SOL    HW115642   8.774   8.826   6.945
37915SOL    HW215643   8.717   8.734   6.839
37916SOL     OW15644   1.067  10.337   3.671
37916SOL    HW115645   1.010  10.407   3.638
37916SOL    HW215646   1.132  10.324   3.602
37917SOL     OW15647   2.549   4.416   8.015
37917SOL    HW115648   2.614   4.349   8.039
37917SOL    HW215649   2.472   4.393   8.067
37918SOL     OW15650  14.063  14.227   3.536
37918SOL    HW115651  14.014  14.173   3.474
37918SOL    HW215652  14.065  14.175   3.617
37919SOL     OW15653   7.778   9.264   9.256
37919SOL    HW115654   7.697   9.312   9.273
37919SOL    HW215655   7.783   9.259   9.161
37920SOL     OW15656   0.250   1.333   6.352
37920SOL    HW115657   0.297   1.269   6.405
37920SOL    HW215658   0.320   1.381   6.306
37921SOL     OW15659   8.059  11.335   2.767
37921SOL    HW115660   8.114  11.309   2.841
37921SOL    HW215661   8.116  11.325   2.691
37922SOL     OW15662  13.274  12.989  14.094
37922SOL    HW115663  13.254  13.049  14.021
37922SOL    HW215664  13.293  13.047  14.168
37923SOL     OW15665  10.058   5.629  11.522
37923SOL    HW115666  10.007   5.548  11.511
37923SOL    HW215667  10.149   5.599  11.524
37924SOL     OW15668  10.971   2.301   3.016
37924SOL    HW115669  10.927   2.363   2.958
37924SOL    HW215670  11.014   2.356   3.081
37925SOL     OW15671  11.906   2.884  12.328
37925SOL    HW115672  11.968   2.859  12.259
37925SOL    HW215673  11.886   2.976  12.309
37926SOL     OW15674   2.070   6.799   9.883
37926SOL    HW115675   2.022   6.725   9.921
37926SOL    HW215676   2.077   6.778   9.790
37927SOL     OW15677   3.982  12.772   6.333
37927SOL    HW115678   4.048  12.742   6.271
37927SOL    HW215679   3.994  12.867   6.336
37928SOL     OW15680  11.979   7.634   9.605
37928SOL    HW115681  12.050   7.677   9.654
37928SOL    HW215682  12.010   7.544   9.593
37929SOL     OW15683   3.280   8.708   2.142
37929SOL    HW115684   3.192   8.713   2.103
37929SOL    HW215685   3.317   8.795   2.129
37930SOL     OW15686   3.654  10.778  12.755
37930SOL    HW115687   3.622  10.725  12.828
37930SOL    HW215688   3.737  10.737  12.729
37931SOL     OW15689   8.527   7.762   1.418
37931SOL    HW115690   8.577   7.833   1.459
37931SOL    HW215691   8.592   7.695   1.398
37932SOL     OW15692  13.024   5.756   9.213
37932SOL    HW115693  13.108   5.712   9.224
37932SOL    HW215694  13.025   5.825   9.280
37933SOL     OW15695   6.333   7.970   7.470
37933SOL    HW115696   6.315   8.061   7.494
37933SOL    HW215697   6.418   7.952   7.510
37934SOL     OW15698  14.413   2.081  14.395
37934SOL    HW115699  14.404   1.991  14.364
37934SOL    HW215700  14.496   2.111  14.356
37935SOL     OW15701   5.643  10.778   5.267
37935SOL    HW115702   5.652  10.834   5.344
37935SOL    HW215703   5.552  10.790   5.238
37936SOL     OW15704   2.114   3.706   2.226
37936SOL    HW115705   2.158   3.621   2.223
37936SOL    HW215706   2.069   3.713   2.142
37937SOL     OW15707  10.582   2.701   2.075
37937SOL    HW115708  10.663   2.679   2.028
37937SOL    HW215709  10.524   2.737   2.008
37938SOL     OW15710   6.226  13.229   9.933
37938SOL    HW115711   6.140  13.187   9.941
37938SOL    HW215712   6.212  13.319   9.963
37939SOL     OW15713   8.691   2.663   3.481
37939SOL    HW115714   8.761   2.705   3.430
37939SOL    HW215715   8.736   2.595   3.531
37940SOL     OW15716  14.730   6.848  14.841
37940SOL    HW115717  14.746   6.768  14.792
37940SOL    HW215718  14.816   6.891  14.845
37941SOL     OW15719  13.946   8.330   9.475
37941SOL    HW115720  14.034   8.293   9.479
37941SOL    HW215721  13.943   8.377   9.392
37942SOL     OW15722   0.939   7.764  11.580
37942SOL    HW115723   0.944   7.857  11.602
37942SOL    HW215724   0.854   7.736  11.615
37943SOL     OW15725  12.735   4.578  12.463
37943SOL    HW115726  12.785   4.523  12.523
37943SOL    HW215727  12.685   4.516  12.410
37944SOL     OW15728  12.919   9.343   5.528
37944SOL    HW115729  13.009   9.328   5.499
37944SOL    HW215730  12.925   9.420   5.585
37945SOL     OW15731  13.912   4.615   1.890
37945SOL    HW115732  13.858   4.613   1.969
37945SOL    HW215733  13.917   4.708   1.867
37946SOL     OW15734   8.277   0.042   5.091
37946SOL    HW115735   8.217   0.115   5.076
37946SOL    HW215736   8.338   0.074   5.157
37947SOL     OW15737  14.708   4.510  10.415
37947SOL    HW115738  14.765   4.574  10.371
37947SOL    HW215739  14.676   4.455  10.343
37948SOL     OW15740  10.866   2.684   7.430
37948SOL    HW115741  10.836   2.774   7.443
37948SOL    HW215742  10.850   2.641   7.514
37949SOL     OW15743  12.854   9.262   2.942
37949SOL    HW115744  12.909   9.323   2.989
37949SOL    HW215745  12.765   9.296   2.954
37950SOL     OW15746   8.170   3.344   0.221
37950SOL    HW115747   8.249   3.290   0.227
37950SOL    HW215748   8.203   3.433   0.209
37951SOL     OW15749   3.410   4.458   8.385
37951SOL    HW115750   3.431   4.540   8.431
37951SOL    HW215751   3.478   4.397   8.413
37952SOL     OW15752   1.324   8.439  14.634
37952SOL    HW115753   1.292   8.351  14.655
37952SOL    HW215754   1.371   8.428  14.552
37953SOL     OW15755   9.735  10.022   1.703
37953SOL    HW115756   9.665  10.049   1.764
37953SOL    HW215757   9.790   9.964   1.754
37954SOL     OW15758   0.721  14.854   7.206
37954SOL    HW115759   0.652   0.025   7.258
37954SOL    HW215760   0.795  14.847   7.267
37955SOL     OW15761  10.031  12.195  11.676
37955SOL    HW115762   9.972  12.137  11.627
37955SOL    HW215763  10.044  12.150  11.760
37956SOL     OW15764  12.084   6.936   0.318
37956SOL    HW115765  12.082   6.841   0.329
37956SOL    HW215766  12.035   6.951   0.237
37957SOL     OW15767  10.405   5.432   9.321
37957SOL    HW115768  10.406   5.348   9.368
37957SOL    HW215769  10.378   5.408   9.232
37958SOL     OW15770   0.547   0.862   8.403
37958SOL    HW115771   0.618   0.910   8.361
37958SOL    HW215772   0.591   0.803   8.464
37959SOL     OW15773  11.979   3.245   3.743
37959SOL    HW115774  11.953   3.333   3.720
37959SOL    HW215775  11.909   3.189   3.710
37960SOL     OW15776  13.906  10.579   2.637
37960SOL    HW115777  13.872  10.661   2.671
37960SOL    HW215778  13.995  10.600   2.608
37961SOL     OW15779   8.478   9.001   7.392
37961SOL    HW115780   8.549   9.050   7.432
37961SOL    HW215781   8.436   9.064   7.333
37962SOL     OW15782   0.079   5.310   7.372
37962SOL    HW115783   0.117   5.258   7.302
37962SOL    HW215784   0.002   5.351   7.333
37963SOL     OW15785  10.655  11.943   7.314
37963SOL    HW115786  10.620  11.901   7.235
37963SOL    HW215787  10.608  11.902   7.386
37964SOL     OW15788   9.904   1.895   0.043
37964SOL    HW115789   9.969   1.965   0.048
37964SOL    HW215790   9.861   1.908  14.828
37965SOL     OW15791  10.463   6.372   9.385
37965SOL    HW115792  10.468   6.460   9.424
37965SOL    HW215793  10.370   6.356   9.374
37966SOL     OW15794   4.563  12.303   2.218
37966SOL    HW115795   4.652  12.285   2.248
37966SOL    HW215796   4.544  12.233   2.155
37967SOL     OW15797   4.845  10.822   9.636
37967SOL    HW115798   4.758  10.832   9.600
37967SOL    HW215799   4.831  10.810   9.730
37968SOL     OW15800  13.076  13.908   2.101
37968SOL    HW115801  13.043  13.838   2.044
37968SOL    HW215802  13.050  13.881   2.189
37969SOL     OW15803   2.641   0.666   3.120
37969SOL    HW115804   2.596   0.662   3.036
37969SOL    HW215805   2.616   0.752   3.156
37970SOL     OW15806   1.196   6.827   5.247
37970SOL    HW115807   1.230   6.905   5.204
37970SOL    HW215808   1.102   6.843   5.256
37971SOL     OW15809   0.337   1.900   4.102
37971SOL    HW115810   0.283   1.837   4.150
37971SOL    HW215811   0.274   1.956   4.057
37972SOL     OW15812   8.616   0.598   1.863
37972SOL    HW115813   8.557   0.631   1.795
37972SOL    HW215814   8.700   0.641   1.844
37973SOL     OW15815   0.513  10.355   1.264
37973SOL    HW115816   0.508  10.322   1.174
37973SOL    HW215817   0.523  10.449   1.254
37974SOL     OW15818   6.467   0.288   3.106
37974SOL    HW115819   6.414   0.214   3.135
37974SOL    HW215820   6.508   0.321   3.186
37975SOL     OW15821  11.867  10.994   5.520
37975SOL    HW115822  11.808  10.923   5.496
37975SOL    HW215823  11.928  11.001   5.446
37976SOL     OW15824   0.575   9.210  14.093
37976SOL    HW115825   0.569   9.267  14.170
37976SOL    HW215826   0.489   9.218  14.051
37977SOL     OW15827   8.956  13.798   7.834
37977SOL    HW115828   8.998  13.728   7.785
37977SOL    HW215829   9.016  13.815   7.907
37978SOL     OW15830  10.475  14.695   8.673
37978SOL    HW115831  10.531  14.771   8.662
37978SOL    HW215832  10.386  14.732   8.679
37979SOL     OW15833  11.324  10.678   7.219
37979SOL    HW115834  11.234  10.646   7.213
37979SOL    HW215835  11.351  10.690   7.128
37980SOL     OW15836  14.316  11.743   3.221
37980SOL    HW115837  14.235  11.753   3.271
37980SOL    HW215838  14.290  11.754   3.129
37981SOL     OW15839   1.604  12.446   5.507
37981SOL    HW115840   1.602  12.389   5.430
37981SOL    HW215841   1.553  12.523   5.481
37982SOL     OW15842   4.863  11.795  14.620
37982SOL    HW115843   4.788  11.855  14.627
37982SOL    HW215844   4.900  11.813  14.534
37983SOL     OW15845   6.840   0.023   4.281
37983SOL    HW115846   6.763   0.038   4.335
37983SOL    HW215847   6.905   0.086   4.314
37984SOL     OW15848  10.194   7.332   5.697
37984SOL    HW115849  10.183   7.427   5.695
37984SOL    HW215850  10.240   7.312   5.615
37985SOL     OW15851   2.508  10.279   4.053
37985SOL    HW115852   2.588  10.251   4.098
37985SOL    HW215853   2.445  10.295   4.124
37986SOL     OW15854   8.129   5.035  11.895
37986SOL    HW115855   8.038   5.016  11.872
37986SOL    HW215856   8.178   5.013  11.815
37987SOL     OW15857   5.757  12.686  11.864
37987SOL    HW115858   5.788  12.595  11.862
37987SOL    HW215859   5.815  12.732  11.803
37988SOL     OW15860  10.038   3.699   2.189
37988SOL    HW115861  10.120   3.671   2.149
37988SOL    HW215862   9.970   3.668   2.129
37989SOL     OW15863   5.113   6.002   7.967
37989SOL    HW115864   5.177   6.037   8.029
37989SOL    HW215865   5.156   6.007   7.882
37990SOL     OW15866   6.154   8.887   3.812
37990SOL    HW115867   6.132   8.879   3.719
37990SOL    HW215868   6.229   8.829   3.825
37991SOL     OW15869   1.117   3.653   9.958
37991SOL    HW115870   1.136   3.625   9.868
37991SOL    HW215871   1.120   3.572  10.010
37992SOL     OW15872   5.120   1.471   2.378
37992SOL    HW115873   5.116   1.419   2.298
37992SOL    HW215874   5.091   1.411   2.447
37993SOL     OW15875   7.321   4.580   9.680
37993SOL    HW115876   7.326   4.572   9.775
37993SOL    HW215877   7.354   4.496   9.647
37994SOL     OW15878  11.343   4.443   0.446
37994SOL    HW115879  11.301   4.360   0.472
37994SOL    HW215880  11.273   4.508   0.456
37995SOL     OW15881  11.861  14.012   6.867
37995SOL    HW115882  11.793  14.043   6.927
37995SOL    HW215883  11.866  14.079   6.799
37996SOL     OW15884   6.608   7.811  13.751
37996SOL    HW115885   6.551   7.755  13.698
37996SOL    HW215886   6.630   7.884  13.694
37997SOL     OW15887  11.058   3.151   3.778
37997SOL    HW115888  11.085   3.071   3.823
37997SOL    HW215889  11.129   3.169   3.716
37998SOL     OW15890   0.517  14.452   3.186
37998SOL    HW115891   0.609  14.424   3.188
37998SOL    HW215892   0.471  14.390   3.243
37999SOL     OW15893   2.261  12.847   3.925
37999SOL    HW115894   2.323  12.912   3.955
37999SOL    HW215895   2.206  12.829   4.001
38000SOL     OW15896   4.940  10.018   0.570
38000SOL    HW115897   4.967  10.022   0.662
38000SOL    HW215898   4.855  10.061   0.568
38001SOL     OW15899  13.668   7.943   2.819
38001SOL    HW115900  13.619   7.861   2.831
38001SOL    HW215901  13.604   8.012   2.833
38002SOL     OW15902   9.075  13.041  14.689
38002SOL    HW115903   9.053  13.132  14.666
38002SOL    HW215904   9.001  13.011  14.741
38003SOL     OW15905  12.564   9.215   0.727
38003SOL    HW115906  12.538   9.155   0.797
38003SOL    HW215907  12.483   9.235   0.680
38004SOL     OW15908   0.939   2.691  14.697
38004SOL    HW115909   0.850   2.663  14.676
38004SOL    HW215910   0.927   2.767  14.755
38005SOL     OW15911  11.111  10.029   4.180
38005SOL    HW115912  11.030  10.006   4.227
38005SOL    HW215913  11.101   9.987   4.095
38006SOL     OW15914   4.077   0.426   7.074
38006SOL    HW115915   4.162   0.383   7.069
38006SOL    HW215916   4.087   0.504   7.020
38007SOL     OW15917   4.010   7.165   8.234
38007SOL    HW115918   3.973   7.215   8.307
38007SOL    HW215919   3.970   7.079   8.241
38008SOL     OW15920   4.650  14.396  11.886
38008SOL    HW115921   4.601  14.418  11.966
38008SOL    HW215922   4.585  14.355  11.829
38009SOL     OW15923   5.555  11.423   8.276
38009SOL    HW115924   5.639  11.430   8.230
38009SOL    HW215925   5.577  11.427   8.369
38010SOL     OW15926  13.830   0.018   4.482
38010SOL    HW115927  13.838  14.805   4.434
38010SOL    HW215928  13.769   0.070   4.431
38011SOL     OW15929   6.828   5.268  11.020
38011SOL    HW115930   6.916   5.258  10.983
38011SOL    HW215931   6.818   5.194  11.080
38012SOL     OW15932  11.439  10.642   6.179
38012SOL    HW115933  11.357  10.615   6.137
38012SOL    HW215934  11.506  10.589   6.136
38013SOL     OW15935   5.516  12.671  10.155
38013SOL    HW115936   5.484  12.759  10.176
38013SOL    HW215937   5.517  12.667  10.060
38014SOL     OW15938   2.146   9.778   8.385
38014SOL    HW115939   2.074   9.760   8.325
38014SOL    HW215940   2.113   9.755   8.471
38015SOL     OW15941  12.273   5.192   9.802
38015SOL    HW115942  12.289   5.126   9.735
38015SOL    HW215943  12.256   5.272   9.753
38016SOL     OW15944   2.020  11.258   9.536
38016SOL    HW115945   1.953  11.325   9.548
38016SOL    HW215946   2.070  11.259   9.617
38017SOL     OW15947   4.160   8.454   3.683
38017SOL    HW115948   4.154   8.546   3.657
38017SOL    HW215949   4.175   8.407   3.600
38018SOL     OW15950  13.549   1.536   1.052
38018SOL    HW115951  13.630   1.513   1.006
38018SOL    HW215952  13.488   1.465   1.030
38019SOL     OW15953   9.677   9.788   2.169
38019SOL    HW115954   9.751   9.747   2.124
38019SOL    HW215955   9.607   9.724   2.164
38020SOL     OW15956  10.017   7.485  14.665
38020SOL    HW115957   9.996   7.509  14.755
38020SOL    HW215958   9.947   7.524  14.613
38021SOL     OW15959  11.002   8.768   0.929
38021SOL    HW115960  11.066   8.696   0.935
38021SOL    HW215961  10.917   8.725   0.924
38022SOL     OW15962   6.797   7.277  14.353
38022SOL    HW115963   6.866   7.215  14.375
38022SOL    HW215964   6.836   7.363  14.368
38023SOL     OW15965   6.140  10.693  14.093
38023SOL    HW115966   6.046  10.673  14.100
38023SOL    HW215967   6.182  10.634  14.156
38024SOL     OW15968   9.441   9.776   5.380
38024SOL    HW115969   9.358   9.728   5.373
38024SOL    HW215970   9.418   9.867   5.361
38025SOL     OW15971  10.379   9.032   6.764
38025SOL    HW115972  10.344   9.121   6.768
38025SOL    HW215973  10.332   8.985   6.833
38026SOL     OW15974   5.330   9.559  12.253
38026SOL    HW115975   5.299   9.481  12.300
38026SOL    HW215976   5.260   9.578  12.190
38027SOL     OW15977   9.852  13.376   4.320
38027SOL    HW115978   9.901  13.429   4.257
38027SOL    HW215979   9.826  13.298   4.270
38028SOL     OW15980   8.449   6.935   4.726
38028SOL    HW115981   8.451   6.889   4.642
38028SOL    HW215982   8.456   7.028   4.702
38029SOL     OW15983   3.798   1.965   5.700
38029SOL    HW115984   3.727   1.930   5.754
38029SOL    HW215985   3.788   2.060   5.705
38030SOL     OW15986  13.093   6.019   9.283
38030SOL    HW115987  13.082   6.023   9.188
38030SOL    HW215988  13.029   6.081   9.317
38031SOL     OW15989  11.459   3.310   8.800
38031SOL    HW115990  11.468   3.224   8.840
38031SOL    HW215991  11.548   3.344   8.795
38032SOL     OW15992   1.681  11.549   4.836
38032SOL    HW115993   1.750  11.500   4.882
38032SOL    HW215994   1.674  11.631   4.885
38033SOL     OW15995   5.842   9.521  11.837
38033SOL    HW115996   5.880   9.564  11.760
38033SOL    HW215997   5.841   9.428  11.813
38034SOL     OW15998   4.112  12.372   8.048
38034SOL    HW115999   4.027  12.356   8.089
38034SOL    HW216000   4.152  12.439   8.103
38035SOL     OW16001  12.269   4.771  11.439
38035SOL    HW116002  12.251   4.737  11.527
38035SOL    HW216003  12.220   4.714  11.381
38036SOL     OW16004  10.096   8.438  10.840
38036SOL    HW116005  10.055   8.444  10.754
38036SOL    HW216006  10.025   8.417  10.900
38037SOL     OW16007   4.638   8.995  14.422
38037SOL    HW116008   4.651   9.037  14.337
38037SOL    HW216009   4.563   9.040  14.460
38038SOL     OW16010   2.290  14.114  11.445
38038SOL    HW116011   2.311  14.186  11.386
38038SOL    HW216012   2.280  14.038  11.387
38039SOL     OW16013  10.282   7.436   6.833
38039SOL    HW116014  10.202   7.421   6.882
38039SOL    HW216015  10.318   7.349   6.818
38040SOL     OW16016   6.110   0.668   6.782
38040SOL    HW116017   6.032   0.613   6.772
38040SOL    HW216018   6.119   0.713   6.699
38041SOL     OW16019  10.955   8.589  11.777
38041SOL    HW116020  10.946   8.521  11.710
38041SOL    HW216021  10.949   8.671  11.729
38042SOL     OW16022  10.478   0.128  13.460
38042SOL    HW116023  10.503   0.207  13.413
38042SOL    HW216024  10.396   0.149  13.503
38043SOL     OW16025   9.275  10.320   7.626
38043SOL    HW116026   9.362  10.357   7.616
38043SOL    HW216027   9.217  10.382   7.581
38044SOL     OW16028   7.144  12.640   9.344
38044SOL    HW116029   7.232  12.602   9.351
38044SOL    HW216030   7.138  12.670   9.253
38045SOL     OW16031  12.878   4.434   3.077
38045SOL    HW116032  12.852   4.505   3.136
38045SOL    HW216033  12.828   4.450   2.997
38046SOL     OW16034   4.571   4.233   2.596
38046SOL    HW116035   4.549   4.326   2.602
38046SOL    HW216036   4.637   4.229   2.526
38047SOL     OW16037   2.382   9.838   2.682
38047SOL    HW116038   2.466   9.881   2.669
38047SOL    HW216039   2.404   9.745   2.695
38048SOL     OW16040   0.284  14.238  11.537
38048SOL    HW116041   0.232  14.314  11.510
38048SOL    HW216042   0.238  14.204  11.614
38049SOL     OW16043   1.296   0.618  14.185
38049SOL    HW116044   1.322   0.634  14.095
38049SOL    HW216045   1.200   0.623  14.185
38050SOL     OW16046   0.061   3.024  13.189
38050SOL    HW116047   0.145   3.065  13.206
38050SOL    HW216048   0.076   2.930  13.204
38051SOL     OW16049  11.759   1.625   2.349
38051SOL    HW116050  11.679   1.627   2.403
38051SOL    HW216051  11.794   1.538   2.363
38052SOL     OW16052  10.858  12.608  10.629
38052SOL    HW116053  10.953  12.609  10.630
38052SOL    HW216054  10.833  12.695  10.595
38053SOL     OW16055  10.144   5.355   0.574
38053SOL    HW116056  10.219   5.350   0.633
38053SOL    HW216057  10.087   5.421   0.613
38054SOL     OW16058  10.956   8.619   1.807
38054SOL    HW116059  11.051   8.614   1.791
38054SOL    HW216060  10.917   8.593   1.724
38055SOL     OW16061  11.802   6.082  14.325
38055SOL    HW116062  11.736   6.097  14.256
38055SOL    HW216063  11.762   6.017  14.382
38056SOL     OW16064   8.345   0.911   2.253
38056SOL    HW116065   8.376   0.926   2.163
38056SOL    HW216066   8.336   0.999   2.289
38057SOL     OW16067  12.114  13.124  12.523
38057SOL    HW116068  12.045  13.138  12.587
38057SOL    HW216069  12.093  13.182  12.451
38058SOL     OW16070  10.834  14.690   7.144
38058SOL    HW116071  10.769  14.636   7.099
38058SOL    HW216072  10.864  14.637   7.217
38059SOL     OW16073   3.159  14.407   4.751
38059SOL    HW116074   3.189  14.334   4.697
38059SOL    HW216075   3.069  14.423   4.721
38060SOL     OW16076  12.982   5.766  10.019
38060SOL    HW116077  12.916   5.715  10.065
38060SOL    HW216078  13.066   5.727  10.045
38061SOL     OW16079  10.926   2.302  10.185
38061SOL    HW116080  10.852   2.278  10.129
38061SOL    HW216081  10.938   2.396  10.169
38062SOL     OW16082   4.079   2.084   7.253
38062SOL    HW116083   4.147   2.024   7.282
38062SOL    HW216084   4.025   2.098   7.331
38063SOL     OW16085   4.815   7.996   9.030
38063SOL    HW116086   4.788   8.088   9.028
38063SOL    HW216087   4.761   7.956   9.097
38064SOL     OW16088   0.896   8.621   5.207
38064SOL    HW116089   0.872   8.707   5.241
38064SOL    HW216090   0.857   8.617   5.120
38065SOL     OW16091   3.499  11.992  12.535
38065SOL    HW116092   3.554  12.040  12.597
38065SOL    HW216093   3.544  11.908  12.523
38066SOL     OW16094   4.325  11.423   1.616
38066SOL    HW116095   4.414  11.387   1.614
38066SOL    HW216096   4.327  11.495   1.553
38067SOL     OW16097   9.461   7.044   1.165
38067SOL    HW116098   9.372   7.045   1.199
38067SOL    HW216099   9.509   6.984   1.224
38068SOL     OW16100   5.863   3.019  10.877
38068SOL    HW116101   5.879   3.008  10.971
38068SOL    HW216102   5.947   3.000  10.836
38069SOL     OW16103   7.114   6.505   0.510
38069SOL    HW116104   7.126   6.498   0.604
38069SOL    HW216105   7.128   6.416   0.477
38070SOL     OW16106   4.169   8.272   5.547
38070SOL    HW116107   4.168   8.311   5.459
38070SOL    HW216108   4.080   8.241   5.561
38071SOL     OW16109  14.153   1.388   6.005
38071SOL    HW116110  14.096   1.419   5.935
38071SOL    HW216111  14.215   1.329   5.962
38072SOL     OW16112  14.209  10.819  14.682
38072SOL    HW116113  14.138  10.785  14.735
38072SOL    HW216114  14.211  10.912  14.701
38073SOL     OW16115   3.036   7.727   8.419
38073SOL    HW116116   3.005   7.649   8.465
38073SOL    HW216117   3.063   7.696   8.333
38074SOL     OW16118   6.099   2.550   5.967
38074SOL    HW116119   6.094   2.645   5.955
38074SOL    HW216120   6.008   2.520   5.966
38075SOL     OW16121  11.849   0.644   7.318
38075SOL    HW116122  11.894   0.587   7.381
38075SOL    HW216123  11.791   0.698   7.371
38076SOL     OW16124   7.378  13.624   8.607
38076SOL    HW116125   7.327  13.580   8.674
38076SOL    HW216126   7.463  13.581   8.608
38077SOL     OW16127  13.939   8.577   5.347
38077SOL    HW116128  13.894   8.494   5.356
38077SOL    HW216129  13.950   8.589   5.252
38078SOL     OW16130   3.182   0.172   1.766
38078SOL    HW116131   3.256   0.149   1.822
38078SOL    HW216132   3.146   0.252   1.805
38079SOL     OW16133   0.696  12.341   1.956
38079SOL    HW116134   0.732  12.347   1.868
38079SOL    HW216135   0.643  12.261   1.955
38080SOL     OW16136   9.141   3.143  12.196
38080SOL    HW116137   9.138   3.237  12.178
38080SOL    HW216138   9.228   3.129  12.234
38081SOL     OW16139   0.286   3.983  12.293
38081SOL    HW116140   0.360   3.922  12.285
38081SOL    HW216141   0.317   4.051  12.353
38082SOL     OW16142   8.536   0.299   5.429
38082SOL    HW116143   8.593   0.334   5.360
38082SOL    HW216144   8.510   0.213   5.396
38083SOL     OW16145   5.661   9.296   4.022
38083SOL    HW116146   5.569   9.292   4.047
38083SOL    HW216147   5.705   9.340   4.095
38084SOL     OW16148  13.159  14.060  11.964
38084SOL    HW116149  13.068  14.088  11.978
38084SOL    HW216150  13.154  13.988  11.902
38085SOL     OW16151   7.736   0.342   7.656
38085SOL    HW116152   7.746   0.403   7.583
38085SOL    HW216153   7.657   0.292   7.634
38086SOL     OW16154   6.369   0.072   6.269
38086SOL    HW116155   6.427   0.106   6.200
38086SOL    HW216156   6.394   0.120   6.347
38087SOL     OW16157   5.991   6.476  11.901
38087SOL    HW116158   6.084   6.461  11.918
38087SOL    HW216159   5.988   6.562  11.858
38088SOL     OW16160  10.300   8.951   3.527
38088SOL    HW116161  10.211   8.960   3.493
38088SOL    HW216162  10.354   9.001   3.465
38089SOL     OW16163   3.777  10.380   7.702
38089SOL    HW116164   3.861  10.419   7.677
38089SOL    HW216165   3.790  10.286   7.691
38090SOL     OW16166   4.659   9.651  11.549
38090SOL    HW116167   4.713   9.730  11.555
38090SOL    HW216168   4.658   9.631  11.455
38091SOL     OW16169   6.775   8.225   0.865
38091SOL    HW116170   6.703   8.168   0.893
38091SOL    HW216171   6.853   8.170   0.871
38092SOL     OW16172  10.343   1.415   6.850
38092SOL    HW116173  10.309   1.327   6.867
38092SOL    HW216174  10.306   1.469   6.919
38093SOL     OW16175   7.037   0.194  11.078
38093SOL    HW116176   6.956   0.243  11.063
38093SOL    HW216177   7.083   0.199  10.994
38094SOL     OW16178  11.785   0.869  14.150
38094SOL    HW116179  11.794   0.931  14.222
38094SOL    HW216180  11.751   0.922  14.078
38095SOL     OW16181   2.086   6.460  13.007
38095SOL    HW116182   2.033   6.476  13.085
38095SOL    HW216183   2.152   6.530  13.008
38096SOL     OW16184   7.942  13.381  13.111
38096SOL    HW116185   7.916  13.298  13.152
38096SOL    HW216186   7.998  13.355  13.038
38097SOL     OW16187   4.491  14.080  12.243
38097SOL    HW116188   4.574  14.093  12.197
38097SOL    HW216189   4.511  14.095  12.335
38098SOL     OW16190   9.667  11.562   1.924
38098SOL    HW116191   9.760  11.541   1.916
38098SOL    HW216192   9.634  11.564   1.834
38099SOL     OW16193   4.625   3.359  13.291
38099SOL    HW116194   4.718   3.380  13.279
38099SOL    HW216195   4.581   3.399  13.216
38100SOL     OW16196   6.491   7.494  13.925
38100SOL    HW116197   6.473   7.587  13.938
38100SOL    HW216198   6.422   7.464  13.865
38101SOL     OW16199   6.916   0.749   0.437
38101SOL    HW116200   6.923   0.666   0.388
38101SOL    HW216201   7.006   0.770   0.460
38102SOL     OW16202   8.452  12.572   3.264
38102SOL    HW116203   8.509  12.507   3.223
38102SOL    HW216204   8.415  12.621   3.191
38103SOL     OW16205   5.414   0.214   7.368
38103SOL    HW116206   5.421   0.213   7.273
38103SOL    HW216207   5.324   0.241   7.386
38104SOL     OW16208  10.423   5.113   1.249
38104SOL    HW116209  10.471   5.111   1.332
38104SOL    HW216210  10.450   5.196   1.208
38105SOL     OW16211   0.348  10.937   8.561
38105SOL    HW116212   0.351  10.983   8.645
38105SOL    HW216213   0.350  11.006   8.495
38106SOL     OW16214   9.588   2.869   2.292
38106SOL    HW116215   9.550   2.923   2.361
38106SOL    HW216216   9.516   2.815   2.261
38107SOL     OW16217   5.531   7.999   8.754
38107SOL    HW116218   5.615   8.027   8.716
38107SOL    HW216219   5.555   7.957   8.836
38108SOL     OW16220   2.584   0.753   4.697
38108SOL    HW116221   2.500   0.748   4.743
38108SOL    HW216222   2.645   0.706   4.754
38109SOL     OW16223   5.790   2.483   0.662
38109SOL    HW116224   5.764   2.439   0.581
38109SOL    HW216225   5.756   2.572   0.653
38110SOL     OW16226   6.252   4.573  10.928
38110SOL    HW116227   6.281   4.510  10.863
38110SOL    HW216228   6.158   4.556  10.938
38111SOL     OW16229   6.236  12.051   5.393
38111SOL    HW116230   6.314  12.021   5.347
38111SOL    HW216231   6.218  11.982   5.457
38112SOL     OW16232  13.219   9.364  13.924
38112SOL    HW116233  13.164   9.371  14.003
38112SOL    HW216234  13.163   9.397  13.854
38113SOL     OW16235   2.327  11.232   2.076
38113SOL    HW116236   2.345  11.144   2.043
38113SOL    HW216237   2.394  11.287   2.035
38114SOL     OW16238  13.062   8.661   8.142
38114SOL    HW116239  13.084   8.744   8.099
38114SOL    HW216240  13.141   8.609   8.136
38115SOL     OW16241   4.192  14.709  12.689
38115SOL    HW116242   4.284  14.732  12.672
38115SOL    HW216243   4.144  14.745  12.614
38116SOL     OW16244  13.552   6.003  14.472
38116SOL    HW116245  13.565   6.068  14.542
38116SOL    HW216246  13.475   6.035  14.424
38117SOL     OW16247   4.188   2.749  13.718
38117SOL    HW116248   4.143   2.691  13.779
38117SOL    HW216249   4.272   2.706  13.702
38118SOL     OW16250   1.794   0.240  10.825
38118SOL    HW116251   1.869   0.294  10.851
38118SOL    HW216252   1.752   0.216  10.907
38119SOL     OW16253   0.191   5.924  10.267
38119SOL    HW116254   0.144   6.004  10.292
38119SOL    HW216255   0.276   5.956  10.235
38120SOL     OW16256   3.080  14.158   4.977
38120SOL    HW116257   2.996  14.205   4.976
38120SOL    HW216258   3.102  14.152   5.070
38121SOL     OW16259   2.407  13.860   8.535
38121SOL    HW116260   2.363  13.775   8.531
38121SOL    HW216261   2.401  13.895   8.446
38122SOL     OW16262  13.649   9.073  10.753
38122SOL    HW116263  13.663   9.160  10.791
38122SOL    HW216264  13.737   9.035  10.746
38123SOL     OW16265   2.337  14.387  12.828
38123SOL    HW116266   2.375  14.399  12.915
38123SOL    HW216267   2.361  14.298  12.803
38124SOL     OW16268  14.492   9.457  12.908
38124SOL    HW116269  14.444   9.412  12.977
38124SOL    HW216270  14.487   9.398  12.833
38125SOL     OW16271  13.803   1.408  13.413
38125SOL    HW116272  13.785   1.497  13.443
38125SOL    HW216273  13.885   1.415  13.364
38126SOL     OW16274   8.382  10.561   9.948
38126SOL    HW116275   8.338  10.646   9.943
38126SOL    HW216276   8.399  10.548  10.041
38127SOL     OW16277   7.629   0.117   6.869
38127SOL    HW116278   7.696   0.175   6.833
38127SOL    HW216279   7.677   0.059   6.929
38128SOL     OW16280  13.160  10.970   5.226
38128SOL    HW116281  13.117  11.006   5.149
38128SOL    HW216282  13.099  10.905   5.260
38129SOL     OW16283   3.606   5.718   2.501
38129SOL    HW116284   3.648   5.655   2.443
38129SOL    HW216285   3.604   5.800   2.451
38130SOL     OW16286   1.609   2.676   8.304
38130SOL    HW116287   1.666   2.751   8.284
38130SOL    HW216288   1.607   2.625   8.223
38131SOL     OW16289   7.653  12.894   0.926
38131SOL    HW116290   7.714  12.889   0.852
38131SOL    HW216291   7.628  12.803   0.942
38132SOL     OW16292  10.808  11.164   0.814
38132SOL    HW116293  10.881  11.135   0.758
38132SOL    HW216294  10.826  11.256   0.831
38133SOL     OW16295   9.004   8.863  10.168
38133SOL    HW116296   9.008   8.768  10.155
38133SOL    HW216297   8.913   8.886  10.150
38134SOL     OW16298  13.912   2.452  13.930
38134SOL    HW116299  13.894   2.433  13.838
38134SOL    HW216300  13.991   2.506  13.928
38135SOL     OW16301   9.470   7.359   9.402
38135SOL    HW116302   9.413   7.427   9.439
38135SOL    HW216303   9.410   7.288   9.380
38136SOL     OW16304   6.707  13.079   0.224
38136SOL    HW116305   6.662  13.017   0.280
38136SOL    HW216306   6.795  13.042   0.212
38137SOL     OW16307  14.667  11.059   1.313
38137SOL    HW116308  14.660  10.981   1.257
38137SOL    HW216309  14.625  11.129   1.262
38138SOL     OW16310   7.521   9.777  13.772
38138SOL    HW116311   7.437   9.772  13.727
38138SOL    HW216312   7.565   9.853  13.732
38139SOL     OW16313  11.865   2.386   2.392
38139SOL    HW116314  11.838   2.408   2.303
38139SOL    HW216315  11.796   2.329   2.425
38140SOL     OW16316   6.416   3.178   1.679
38140SOL    HW116317   6.360   3.195   1.754
38140SOL    HW216318   6.365   3.208   1.604
38141SOL     OW16319   4.772   9.956  11.891
38141SOL    HW116320   4.766  10.009  11.970
38141SOL    HW216321   4.687   9.965  11.849
38142SOL     OW16322   2.231   8.534   8.085
38142SOL    HW116323   2.209   8.627   8.088
38142SOL    HW216324   2.257   8.512   8.175
38143SOL     OW16325   5.983   1.514   6.653
38143SOL    HW116326   5.903   1.469   6.680
38143SOL    HW216327   5.975   1.602   6.690
38144SOL     OW16328  12.061   5.517   6.710
38144SOL    HW116329  11.988   5.456   6.698
38144SOL    HW216330  12.121   5.497   6.638
38145SOL     OW16331  14.043  11.689   4.880
38145SOL    HW116332  14.021  11.764   4.935
38145SOL    HW216333  14.057  11.726   4.793
38146SOL     OW16334  14.520   1.638  14.626
38146SOL    HW116335  14.529   1.617  14.533
38146SOL    HW216336  14.602   1.682  14.648
38147SOL     OW16337   9.074   0.711  10.479
38147SOL    HW116338   9.022   0.747  10.407
38147SOL    HW216339   9.086   0.784  10.540
38148SOL     OW16340  13.818   2.455   3.384
38148SOL    HW116341  13.723   2.453   3.398
38148SOL    HW216342  13.828   2.472   3.290
38149SOL     OW16343   7.480  10.817  11.440
38149SOL    HW116344   7.457  10.758  11.368
38149SOL    HW216345   7.442  10.776  11.517
38150SOL     OW16346   2.518   7.079  13.944
38150SOL    HW116347   2.530   7.170  13.918
38150SOL    HW216348   2.438   7.080  13.997
38151SOL     OW16349  13.598  10.464  10.674
38151SOL    HW116350  13.573  10.522  10.746
38151SOL    HW216351  13.527  10.471  10.611
38152SOL     OW16352   9.300   1.371   7.798
38152SOL    HW116353   9.259   1.351   7.883
38152SOL    HW216354   9.271   1.460   7.778
38153SOL     OW16355   2.223   5.749   2.376
38153SOL    HW116356   2.278   5.685   2.423
38153SOL    HW216357   2.179   5.798   2.445
38154SOL     OW16358   1.819  10.340  14.597
38154SOL    HW116359   1.761  10.274  14.633
38154SOL    HW216360   1.905  10.319  14.633
38155SOL     OW16361  12.539   9.785   3.142
38155SOL    HW116362  12.508   9.740   3.063
38155SOL    HW216363  12.609   9.728   3.176
38156SOL     OW16364  12.831   3.463   2.263
38156SOL    HW116365  12.785   3.509   2.333
38156SOL    HW216366  12.831   3.525   2.190
38157SOL     OW16367   2.185   9.918  13.578
38157SOL    HW116368   2.227   9.985  13.631
38157SOL    HW216369   2.095   9.916  13.609
38158SOL     OW16370   5.107   2.315  12.871
38158SOL    HW116371   5.126   2.222  12.861
38158SOL    HW216372   5.186   2.352  12.909
38159SOL     OW16373   3.059  13.333   7.987
38159SOL    HW116374   3.028  13.376   7.907
38159SOL    HW216375   3.151  13.314   7.970
38160SOL     OW16376  12.097  11.833   8.014
38160SOL    HW116377  12.186  11.828   7.977
38160SOL    HW216378  12.070  11.742   8.023
38161SOL     OW16379   0.068  12.308   5.837
38161SOL    HW116380   0.148  12.269   5.872
38161SOL    HW216381  14.867  12.265   5.886
38162SOL     OW16382  13.790  10.359   2.330
38162SOL    HW116383  13.804  10.440   2.281
38162SOL    HW216384  13.737  10.305   2.272
38163SOL     OW16385   7.216   4.434   5.779
38163SOL    HW116386   7.133   4.387   5.765
38163SOL    HW216387   7.268   4.415   5.701
38164SOL     OW16388   9.075   2.310   4.959
38164SOL    HW116389   9.019   2.388   4.956
38164SOL    HW216390   9.164   2.344   4.960
38165SOL     OW16391  13.706   0.050   5.636
38165SOL    HW116392  13.639   0.115   5.613
38165SOL    HW216393  13.659  14.853   5.686
38166SOL     OW16394   8.562   3.566  10.164
38166SOL    HW116395   8.592   3.611  10.243
38166SOL    HW216396   8.540   3.477  10.194
38167SOL     OW16397  10.718  10.822   0.841
38167SOL    HW116398  10.715  10.784   0.928
38167SOL    HW216399  10.808  10.853   0.832
38168SOL     OW16400  11.430   3.146  13.147
38168SOL    HW116401  11.404   3.135  13.055
38168SOL    HW216402  11.347   3.155  13.194
38169SOL     OW16403   3.438   6.543   4.040
38169SOL    HW116404   3.444   6.589   4.124
38169SOL    HW216405   3.360   6.488   4.048
38170SOL     OW16406   7.558   8.054  12.572
38170SOL    HW116407   7.523   7.966  12.563
38170SOL    HW216408   7.641   8.042  12.619
38171SOL     OW16409   0.849   4.558   6.112
38171SOL    HW116410   0.910   4.631   6.099
38171SOL    HW216411   0.794   4.585   6.185
38172SOL     OW16412   4.863  11.697   3.906
38172SOL    HW116413   4.817  11.738   3.978
38172SOL    HW216414   4.953  11.729   3.913
38173SOL     OW16415   5.493   0.613   1.513
38173SOL    HW116416   5.463   0.648   1.597
38173SOL    HW216417   5.479   0.519   1.519
38174SOL     OW16418  12.674   4.995   9.295
38174SOL    HW116419  12.737   4.986   9.224
38174SOL    HW216420  12.692   5.081   9.332
38175SOL     OW16421   5.177   4.495  10.435
38175SOL    HW116422   5.099   4.523  10.388
38175SOL    HW216423   5.239   4.472  10.366
38176SOL     OW16424   1.546   8.880   3.661
38176SOL    HW116425   1.453   8.860   3.649
38176SOL    HW216426   1.553   8.974   3.642
38177SOL     OW16427  10.860   9.485  12.493
38177SOL    HW116428  10.939   9.500  12.545
38177SOL    HW216429  10.883   9.413  12.435
38178SOL     OW16430   7.545  13.506   7.401
38178SOL    HW116431   7.486  13.433   7.381
38178SOL    HW216432   7.578  13.533   7.315
38179SOL     OW16433   4.572   5.693   5.212
38179SOL    HW116434   4.599   5.703   5.120
38179SOL    HW216435   4.477   5.695   5.209
38180SOL     OW16436   7.088  11.815  12.359
38180SOL    HW116437   6.994  11.806  12.375
38180SOL    HW216438   7.098  11.903  12.323
38181SOL     OW16439   0.510   3.868   5.315
38181SOL    HW116440   0.428   3.827   5.288
38181SOL    HW216441   0.483   3.949   5.358
38182SOL     OW16442   5.819   1.392   9.818
38182SOL    HW116443   5.912   1.374   9.832
38182SOL    HW216444   5.775   1.311   9.844
38183SOL     OW16445   1.690   9.982   4.809
38183SOL    HW116446   1.595   9.991   4.818
38183SOL    HW216447   1.726  10.047   4.869
38184SOL     OW16448   2.643   6.877  14.038
38184SOL    HW116449   2.659   6.828  13.957
38184SOL    HW216450   2.588   6.951  14.011
38185SOL     OW16451   7.637   3.867   1.287
38185SOL    HW116452   7.653   3.787   1.338
38185SOL    HW216453   7.638   3.937   1.352
38186SOL     OW16454  11.095   2.814   7.337
38186SOL    HW116455  11.016   2.772   7.370
38186SOL    HW216456  11.153   2.742   7.314
38187SOL     OW16457   4.064  12.159   5.781
38187SOL    HW116458   4.122  12.209   5.839
38187SOL    HW216459   4.053  12.216   5.704
38188SOL     OW16460  11.505   1.295   4.860
38188SOL    HW116461  11.580   1.329   4.909
38188SOL    HW216462  11.434   1.291   4.923
38189SOL     OW16463   9.056   2.995  14.012
38189SOL    HW116464   8.976   3.043  14.032
38189SOL    HW216465   9.073   3.014  13.920
38190SOL     OW16466   0.960   1.889  14.341
38190SOL    HW116467   0.993   1.819  14.284
38190SOL    HW216468   0.997   1.869  14.427
38191SOL     OW16469   2.953   7.632  12.046
38191SOL    HW116470   3.038   7.644  12.005
38191SOL    HW216471   2.926   7.544  12.020
38192SOL     OW16472  14.049   8.858   9.466
38192SOL    HW116473  14.019   8.770   9.443
38192SOL    HW216474  13.975   8.897   9.513
38193SOL     OW16475   3.412  12.152   7.205
38193SOL    HW116476   3.416  12.155   7.110
38193SOL    HW216477   3.493  12.195   7.234
38194SOL     OW16478  12.015  10.623  14.687
38194SOL    HW116479  11.950  10.665  14.631
38194SOL    HW216480  12.009  10.670  14.771
38195SOL     OW16481   4.726   9.661   0.629
38195SOL    HW116482   4.804   9.631   0.581
38195SOL    HW216483   4.746   9.752   0.651
38196SOL     OW16484   7.910   7.362  11.725
38196SOL    HW116485   8.003   7.349  11.741
38196SOL    HW216486   7.897   7.457  11.727
38197SOL     OW16487   4.493   1.940   7.503
38197SOL    HW116488   4.420   1.995   7.531
38197SOL    HW216489   4.495   1.869   7.567
38198SOL     OW16490   0.825   6.372   7.029
38198SOL    HW116491   0.875   6.290   7.031
38198SOL    HW216492   0.734   6.344   7.042
38199SOL     OW16493   6.979   5.234   6.781
38199SOL    HW116494   6.954   5.175   6.852
38199SOL    HW216495   6.994   5.177   6.706
38200SOL     OW16496   5.447   2.938   3.014
38200SOL    HW116497   5.357   2.908   3.026
38200SOL    HW216498   5.457   3.009   3.078
38201SOL     OW16499   4.536  10.783   6.508
38201SOL    HW116500   4.527  10.696   6.546
38201SOL    HW216501   4.518  10.842   6.581
38202SOL     OW16502  11.536   5.086  13.712
38202SOL    HW116503  11.537   5.051  13.623
38202SOL    HW216504  11.457   5.050  13.751
38203SOL     OW16505  13.159   2.351   4.385
38203SOL    HW116506  13.164   2.439   4.347
38203SOL    HW216507  13.134   2.295   4.312
38204SOL     OW16508   2.889  14.847   5.734
38204SOL    HW116509   2.876   0.042   5.804
38204SOL    HW216510   2.983  14.849   5.717
38205SOL     OW16511  14.784   8.922   3.246
38205SOL    HW116512  14.757   8.938   3.336
38205SOL    HW216513  14.733   8.985   3.194
38206SOL     OW16514  13.815  13.547   2.188
38206SOL    HW116515  13.745  13.507   2.136
38206SOL    HW216516  13.819  13.494   2.267
38207SOL     OW16517  12.479   7.759  13.771
38207SOL    HW116518  12.554   7.702  13.786
38207SOL    HW216519  12.492   7.792  13.682
38208SOL     OW16520   9.539   7.400   8.614
38208SOL    HW116521   9.500   7.325   8.658
38208SOL    HW216522   9.609   7.363   8.561
38209SOL     OW16523  10.475   2.196   7.199
38209SOL    HW116524  10.504   2.163   7.113
38209SOL    HW216525  10.380   2.207   7.189
38210SOL     OW16526   3.026   6.489   1.120
38210SOL    HW116527   3.025   6.394   1.112
38210SOL    HW216528   2.988   6.507   1.206
38211SOL     OW16529  12.980   8.835   9.110
38211SOL    HW116530  12.956   8.755   9.157
38211SOL    HW216531  12.970   8.812   9.017
38212SOL     OW16532   2.458  13.477   3.797
38212SOL    HW116533   2.487  13.482   3.706
38212SOL    HW216534   2.362  13.479   3.792
38213SOL     OW16535  10.559   4.754   9.673
38213SOL    HW116536  10.641   4.708   9.655
38213SOL    HW216537  10.499   4.726   9.604
38214SOL     OW16538   0.807   2.574   9.933
38214SOL    HW116539   0.876   2.632   9.967
38214SOL    HW216540   0.853   2.508   9.882
38215SOL     OW16541  13.681   5.596  10.264
38215SOL    HW116542  13.626   5.666  10.300
38215SOL    HW216543  13.726   5.637  10.190
38216SOL     OW16544   8.731  10.162   4.405
38216SOL    HW116545   8.671  10.197   4.339
38216SOL    HW216546   8.675  10.142   4.480
38217SOL     OW16547   4.158   1.209   8.427
38217SOL    HW116548   4.175   1.139   8.490
38217SOL    HW216549   4.110   1.275   8.477
38218SOL     OW16550   3.236   9.543   2.892
38218SOL    HW116551   3.276   9.491   2.962
38218SOL    HW216552   3.293   9.530   2.817
38219SOL     OW16553   9.328  12.430  13.456
38219SOL    HW116554   9.366  12.491  13.520
38219SOL    HW216555   9.235  12.451  13.455
38220SOL     OW16556  14.401  14.834   6.523
38220SOL    HW116557  14.407  14.769   6.593
38220SOL    HW216558  14.308  14.845   6.508
38221SOL     OW16559  10.530  10.560   6.443
38221SOL    HW116560  10.479  10.638   6.467
38221SOL    HW216561  10.520  10.555   6.347
38222SOL     OW16562  12.896   4.375   4.385
38222SOL    HW116563  12.896   4.313   4.311
38222SOL    HW216564  12.856   4.454   4.349
38223SOL     OW16565  12.360   3.057   5.698
38223SOL    HW116566  12.358   2.987   5.763
38223SOL    HW216567  12.267   3.079   5.684
38224SOL     OW16568   3.713   4.756   4.409
38224SOL    HW116569   3.784   4.819   4.392
38224SOL    HW216570   3.642   4.809   4.445
38225SOL     OW16571   1.209  14.100   9.510
38225SOL    HW116572   1.177  14.010   9.505
38225SOL    HW216573   1.207  14.122   9.604
38226SOL     OW16574  11.751   5.742  13.153
38226SOL    HW116575  11.788   5.823  13.188
38226SOL    HW216576  11.672   5.726  13.205
38227SOL     OW16577   6.088   3.052   9.176
38227SOL    HW116578   6.016   3.110   9.200
38227SOL    HW216579   6.166   3.096   9.207
38228SOL     OW16580   8.487   3.653   0.743
38228SOL    HW116581   8.444   3.714   0.804
38228SOL    HW216582   8.461   3.566   0.774
38229SOL     OW16583  14.579   2.168   7.055
38229SOL    HW116584  14.615   2.082   7.079
38229SOL    HW216585  14.491   2.169   7.094
38230SOL     OW16586   6.530   2.807   7.246
38230SOL    HW116587   6.530   2.820   7.341
38230SOL    HW216588   6.617   2.834   7.218
38231SOL     OW16589  14.611  14.612   9.365
38231SOL    HW116590  14.695  14.575   9.389
38231SOL    HW216591  14.623  14.645   9.277
38232SOL     OW16592   9.959   5.396   3.707
38232SOL    HW116593   9.936   5.473   3.760
38232SOL    HW216594   9.926   5.416   3.620
38233SOL     OW16595   5.694  10.752   7.533
38233SOL    HW116596   5.780  10.739   7.571
38233SOL    HW216597   5.632  10.728   7.603
38234SOL     OW16598  11.850  13.643  14.049
38234SOL    HW116599  11.815  13.605  13.969
38234SOL    HW216600  11.804  13.597  14.120
38235SOL     OW16601   5.314   4.166  10.225
38235SOL    HW116602   5.304   4.151  10.319
38235SOL    HW216603   5.247   4.111  10.185
38236SOL     OW16604  12.077   4.986  10.143
38236SOL    HW116605  12.042   4.935  10.216
38236SOL    HW216606  12.171   4.967  10.145
38237SOL     OW16607  10.959   7.414  11.357
38237SOL    HW116608  10.868   7.385  11.344
38237SOL    HW216609  11.012   7.340  11.328
38238SOL     OW16610   4.095   5.656   3.837
38238SOL    HW116611   4.089   5.661   3.932
38238SOL    HW216612   4.093   5.747   3.807
38239SOL     OW16613   3.865  14.702  14.211
38239SOL    HW116614   3.778  14.688  14.175
38239SOL    HW216615   3.896  14.613  14.232
38240SOL     OW16616   6.743   0.601   7.819
38240SOL    HW116617   6.654   0.576   7.797
38240SOL    HW216618   6.738   0.692   7.848
38241SOL     OW16619   2.587  13.752   8.747
38241SOL    HW116620   2.637  13.694   8.804
38241SOL    HW216621   2.581  13.834   8.795
38242SOL     OW16622   8.899   1.728   5.723
38242SOL    HW116623   8.811   1.725   5.761
38242SOL    HW216624   8.904   1.651   5.666
38243SOL     OW16625  14.103   0.056   8.655
38243SOL    HW116626  14.073  14.838   8.631
38243SOL    HW216627  14.197   0.045   8.669
38244SOL     OW16628  14.339   1.520   7.680
38244SOL    HW116629  14.409   1.461   7.651
38244SOL    HW216630  14.324   1.578   7.605
38245SOL     OW16631   7.406   9.190   2.322
38245SOL    HW116632   7.502   9.197   2.317
38245SOL    HW216633   7.382   9.134   2.248
38246SOL     OW16634  13.290  12.055   7.202
38246SOL    HW116635  13.348  12.056   7.125
38246SOL    HW216636  13.339  12.103   7.269
38247SOL     OW16637   9.548   7.546  10.403
38247SOL    HW116638   9.543   7.530  10.497
38247SOL    HW216639   9.567   7.460  10.365
38248SOL     OW16640   6.183   6.150   6.164
38248SOL    HW116641   6.226   6.069   6.135
38248SOL    HW216642   6.219   6.167   6.251
38249SOL     OW16643   4.272   9.858   1.843
38249SOL    HW116644   4.234   9.920   1.781
38249SOL    HW216645   4.335   9.807   1.791
38250SOL     OW16646   2.391  10.609  11.797
38250SOL    HW116647   2.460  10.668  11.769
38250SOL    HW216648   2.426  10.567  11.876
38251SOL     OW16649   1.812   6.659   1.645
38251SOL    HW116650   1.880   6.721   1.672
38251SOL    HW216651   1.784   6.690   1.559
38252SOL     OW16652   8.237  10.953   3.112
38252SOL    HW116653   8.272  11.031   3.070
38252SOL    HW216654   8.178  10.987   3.179
38253SOL     OW16655  11.872  13.017  10.252
38253SOL    HW116656  11.860  13.007  10.347
38253SOL    HW216657  11.927  12.943  10.227
38254SOL     OW16658   6.573   3.626  12.583
38254SOL    HW116659   6.659   3.662  12.561
38254SOL    HW216660   6.526   3.622  12.500
38255SOL     OW16661   8.448   5.321  13.496
38255SOL    HW116662   8.379   5.385  13.476
38255SOL    HW216663   8.529   5.371  13.491
38256SOL     OW16664   3.697   7.661   3.531
38256SOL    HW116665   3.654   7.578   3.514
38256SOL    HW216666   3.697   7.706   3.446
38257SOL     OW16667   3.989  12.691   6.589
38257SOL    HW116668   4.020  12.600   6.579
38257SOL    HW216669   3.978  12.723   6.500
38258SOL     OW16670   6.669   3.451  10.020
38258SOL    HW116671   6.709   3.368  10.044
38258SOL    HW216672   6.575   3.437  10.032
38259SOL     OW16673   4.440   1.764  10.603
38259SOL    HW116674   4.503   1.796  10.539
38259SOL    HW216675   4.486   1.693  10.649
38260SOL     OW16676   2.470   0.683   9.926
38260SOL    HW116677   2.538   0.748   9.946
38260SOL    HW216678   2.509   0.628   9.858
38261SOL     OW16679   3.940   4.543   8.895
38261SOL    HW116680   4.027   4.565   8.930
38261SOL    HW216681   3.911   4.622   8.850
38262SOL     OW16682  14.422   6.448   8.399
38262SOL    HW116683  14.477   6.527   8.395
38262SOL    HW216684  14.344   6.475   8.447
38263SOL     OW16685   4.378  10.307   7.234
38263SOL    HW116686   4.285  10.289   7.217
38263SOL    HW216687   4.377  10.364   7.311
38264SOL     OW16688   6.635  13.721  14.574
38264SOL    HW116689   6.598  13.784  14.512
38264SOL    HW216690   6.560  13.684  14.619
38265SOL     OW16691   6.574  12.283  10.529
38265SOL    HW116692   6.648  12.311  10.476
38265SOL    HW216693   6.556  12.193  10.501
38266SOL     OW16694   5.101   4.620  12.442
38266SOL    HW116695   5.016   4.616  12.486
38266SOL    HW216696   5.082   4.655  12.355
38267SOL     OW16697   8.485   5.560   3.011
38267SOL    HW116698   8.437   5.641   2.994
38267SOL    HW216699   8.570   5.588   3.043
38268SOL     OW16700   5.182   0.022   2.967
38268SOL    HW116701   5.210  14.847   2.887
38268SOL    HW216702   5.137  14.824   3.018
38269SOL     OW16703  11.824   2.496   4.317
38269SOL    HW116704  11.908   2.542   4.316
38269SOL    HW216705  11.804   2.484   4.410
38270SOL     OW16706   7.790   5.433   2.568
38270SOL    HW116707   7.750   5.512   2.532
38270SOL    HW216708   7.822   5.460   2.655
38271SOL     OW16709   0.967   8.979   1.585
38271SOL    HW116710   1.055   8.956   1.616
38271SOL    HW216711   0.979   8.999   1.492
38272SOL     OW16712   3.066   8.467   1.977
38272SOL    HW116713   3.130   8.430   1.915
38272SOL    HW216714   3.074   8.561   1.966
38273SOL     OW16715   6.340   6.988   0.763
38273SOL    HW116716   6.359   7.081   0.775
38273SOL    HW216717   6.253   6.986   0.724
38274SOL     OW16718   9.828   6.433  10.727
38274SOL    HW116719   9.754   6.459  10.673
38274SOL    HW216720   9.868   6.360  10.679
38275SOL     OW16721   6.084  13.643   1.106
38275SOL    HW116722   6.123  13.558   1.083
38275SOL    HW216723   6.000  13.644   1.062
38276SOL     OW16724   4.461   9.574   2.409
38276SOL    HW116725   4.499   9.578   2.497
38276SOL    HW216726   4.388   9.635   2.412
38277SOL     OW16727  11.371  10.026   1.295
38277SOL    HW116728  11.432  10.095   1.321
38277SOL    HW216729  11.375  10.025   1.200
38278SOL     OW16730  11.021  11.890   8.904
38278SOL    HW116731  11.074  11.925   8.976
38278SOL    HW216732  11.085  11.853   8.843
38279SOL     OW16733  13.786   3.629  14.355
38279SOL    HW116734  13.757   3.659  14.269
38279SOL    HW216735  13.714   3.652  14.415
38280SOL     OW16736   8.944   0.924   3.533
38280SOL    HW116737   9.012   0.989   3.550
38280SOL    HW216738   8.952   0.905   3.439
38281SOL     OW16739   7.177   3.777   1.931
38281SOL    HW116740   7.269   3.802   1.920
38281SOL    HW216741   7.143   3.838   1.996
38282SOL     OW16742   4.970   3.952   6.318
38282SOL    HW116743   5.061   3.953   6.288
38282SOL    HW216744   4.951   3.860   6.337
38283SOL     OW16745   2.993   6.426   5.308
38283SOL    HW116746   2.989   6.338   5.272
38283SOL    HW216747   3.079   6.460   5.280
38284SOL     OW16748   2.206  10.797   6.748
38284SOL    HW116749   2.153  10.813   6.670
38284SOL    HW216750   2.252  10.716   6.730
38285SOL     OW16751   7.178   4.964  13.465
38285SOL    HW116752   7.242   5.034  13.473
38285SOL    HW216753   7.158   4.940  13.556
38286SOL     OW16754  11.389   8.651   9.244
38286SOL    HW116755  11.305   8.671   9.204
38286SOL    HW216756  11.434   8.735   9.248
38287SOL     OW16757   1.362   0.405   2.552
38287SOL    HW116758   1.435   0.406   2.491
38287SOL    HW216759   1.284   0.397   2.496
38288SOL     OW16760   6.999   8.097   4.577
38288SOL    HW116761   6.949   8.016   4.564
38288SOL    HW216762   7.004   8.106   4.673
38289SOL     OW16763   5.491   7.653   7.042
38289SOL    HW116764   5.585   7.644   7.026
38289SOL    HW216765   5.469   7.576   7.095
38290SOL     OW16766   7.914   2.763   3.440
38290SOL    HW116767   7.991   2.771   3.496
38290SOL    HW216768   7.912   2.670   3.416
38291SOL     OW16769  12.231  13.769  10.655
38291SOL    HW116770  12.148  13.796  10.694
38291SOL    HW216771  12.230  13.806  10.567
38292SOL     OW16772  10.938  14.818  14.555
38292SOL    HW116773  10.854  14.773  14.561
38292SOL    HW216774  10.921   0.026  14.503
38293SOL     OW16775   2.676  14.229   1.760
38293SOL    HW116776   2.702  14.283   1.686
38293SOL    HW216777   2.642  14.291   1.824
38294SOL     OW16778   0.229   4.224  14.489
38294SOL    HW116779   0.253   4.239  14.398
38294SOL    HW216780   0.234   4.310  14.530
38295SOL     OW16781  12.771   2.851  14.438
38295SOL    HW116782  12.741   2.914  14.503
38295SOL    HW216783  12.745   2.889  14.354
38296SOL     OW16784  10.086  13.973   2.239
38296SOL    HW116785  10.121  13.886   2.222
38296SOL    HW216786  10.118  14.027   2.166
38297SOL     OW16787   4.505  14.840  11.258
38297SOL    HW116788   4.460  14.838  11.173
38297SOL    HW216789   4.562  14.763  11.257
38298SOL     OW16790   6.418   6.236   5.154
38298SOL    HW116791   6.349   6.170   5.153
38298SOL    HW216792   6.372   6.319   5.146
38299SOL     OW16793  12.038  10.904  12.879
38299SOL    HW116794  12.078  10.852  12.949
38299SOL    HW216795  11.986  10.970  12.925
38300SOL     OW16796   0.515   4.127   7.542
38300SOL    HW116797   0.591   4.132   7.484
38300SOL    HW216798   0.534   4.054   7.600
38301SOL     OW16799   7.956   2.634   1.028
38301SOL    HW116800   8.015   2.708   1.044
38301SOL    HW216801   7.897   2.665   0.959
38302SOL     OW16802   4.967   9.964   8.412
38302SOL    HW116803   4.900  10.024   8.379
38302SOL    HW216804   4.941   9.947   8.503
38303SOL     OW16805   1.552  10.012   5.664
38303SOL    HW116806   1.483  10.054   5.612
38303SOL    HW216807   1.520   9.923   5.678
38304SOL     OW16808   6.110  13.401  14.701
38304SOL    HW116809   6.116  13.419  14.607
38304SOL    HW216810   6.198  13.423  14.734
38305SOL     OW16811  12.619  10.951   4.875
38305SOL    HW116812  12.550  10.921   4.816
38305SOL    HW216813  12.697  10.958   4.820
38306SOL     OW16814  13.021   8.013   5.737
38306SOL    HW116815  12.999   7.931   5.781
38306SOL    HW216816  12.958   8.019   5.665
38307SOL     OW16817   2.965  10.914  13.173
38307SOL    HW116818   2.928  10.828  13.157
38307SOL    HW216819   2.918  10.973  13.113
38308SOL     OW16820   8.251   8.296   8.869
38308SOL    HW116821   8.196   8.222   8.843
38308SOL    HW216822   8.324   8.294   8.807
38309SOL     OW16823   0.786  11.748   1.323
38309SOL    HW116824   0.826  11.710   1.245
38309SOL    HW216825   0.693  11.759   1.300
38310SOL     OW16826   2.526  12.119  14.456
38310SOL    HW116827   2.485  12.157  14.378
38310SOL    HW216828   2.465  12.050  14.483
38311SOL     OW16829   5.544  11.211   7.977
38311SOL    HW116830   5.600  11.280   7.941
38311SOL    HW216831   5.594  11.130   7.962
38312SOL     OW16832   5.816   0.791   4.417
38312SOL    HW116833   5.730   0.831   4.431
38312SOL    HW216834   5.877   0.865   4.412
38313SOL     OW16835  13.005   6.422   7.070
38313SOL    HW116836  13.067   6.390   7.136
38313SOL    HW216837  12.956   6.344   7.042
38314SOL     OW16838  14.561   6.543  11.435
38314SOL    HW116839  14.580   6.626  11.390
38314SOL    HW216840  14.599   6.554  11.522
38315SOL     OW16841   9.201  12.053   6.518
38315SOL    HW116842   9.173  12.142   6.500
38315SOL    HW216843   9.259  12.031   6.446
38316SOL     OW16844   4.550  13.463   4.442
38316SOL    HW116845   4.540  13.368   4.439
38316SOL    HW216846   4.470  13.497   4.401
38317SOL     OW16847  12.353   3.111  11.081
38317SOL    HW116848  12.356   3.206  11.091
38317SOL    HW216849  12.435   3.089  11.037
38318SOL     OW16850   9.050   7.127  13.642
38318SOL    HW116851   9.072   7.149  13.733
38318SOL    HW216852   9.097   7.191  13.589
38319SOL     OW16853  12.943   5.100   0.994
38319SOL    HW116854  12.986   5.016   0.979
38319SOL    HW216855  12.894   5.117   0.914
38320SOL     OW16856   4.294   8.498  11.156
38320SOL    HW116857   4.256   8.569  11.208
38320SOL    HW216858   4.342   8.444  11.219
38321SOL     OW16859  10.203   5.500   1.779
38321SOL    HW116860  10.222   5.454   1.861
38321SOL    HW216861  10.285   5.499   1.731
38322SOL     OW16862  11.124   6.614   6.553
38322SOL    HW116863  11.084   6.689   6.509
38322SOL    HW216864  11.128   6.640   6.645
38323SOL     OW16865  11.889  13.948   9.866
38323SOL    HW116866  11.911  13.950   9.959
38323SOL    HW216867  11.794  13.943   9.864
38324SOL     OW16868   8.294  12.276  10.560
38324SOL    HW116869   8.264  12.195  10.602
38324SOL    HW216870   8.213  12.319  10.531
38325SOL     OW16871  14.797   5.725  10.005
38325SOL    HW116872  14.770   5.808  10.045
38325SOL    HW216873   0.018   5.713  10.033
38326SOL     OW16874   2.117   6.099  13.196
38326SOL    HW116875   2.131   6.137  13.109
38326SOL    HW216876   2.024   6.115  13.215
38327SOL     OW16877  13.062   4.233   7.830
38327SOL    HW116878  13.133   4.183   7.790
38327SOL    HW216879  13.101   4.317   7.853
38328SOL     OW16880  14.709   9.464   7.394
38328SOL    HW116881  14.653   9.392   7.365
38328SOL    HW216882  14.742   9.503   7.313
38329SOL     OW16883   7.754   8.418   6.801
38329SOL    HW116884   7.782   8.327   6.790
38329SOL    HW216885   7.685   8.415   6.866
38330SOL     OW16886   2.915   1.547   2.994
38330SOL    HW116887   2.980   1.556   2.924
38330SOL    HW216888   2.870   1.631   2.996
38331SOL     OW16889   8.425  12.792  14.182
38331SOL    HW116890   8.472  12.832  14.109
38331SOL    HW216891   8.421  12.699  14.160
38332SOL     OW16892  10.170   9.815   1.164
38332SOL    HW116893  10.120   9.751   1.216
38332SOL    HW216894  10.240   9.763   1.124
38333SOL     OW16895   8.596   0.250   7.825
38333SOL    HW116896   8.584   0.184   7.893
38333SOL    HW216897   8.549   0.215   7.749
38334SOL     OW16898   0.243  11.385  10.909
38334SOL    HW116899   0.224  11.315  10.846
38334SOL    HW216900   0.278  11.340  10.986
38335SOL     OW16901  13.064   9.613   3.336
38335SOL    HW116902  13.048   9.640   3.426
38335SOL    HW216903  13.138   9.552   3.341
38336SOL     OW16904   8.327  13.944   9.422
38336SOL    HW116905   8.389  13.956   9.351
38336SOL    HW216906   8.248  13.991   9.394
38337SOL     OW16907   8.718   9.924   1.252
38337SOL    HW116908   8.632   9.959   1.275
38337SOL    HW216909   8.780   9.989   1.285
38338SOL     OW16910   9.587   2.341  11.372
38338SOL    HW116911   9.633   2.404  11.316
38338SOL    HW216912   9.636   2.341  11.454
38339SOL     OW16913  10.006  11.200   3.091
38339SOL    HW116914   9.968  11.116   3.115
38339SOL    HW216915  10.100  11.187   3.097
38340SOL     OW16916   1.660   3.261   4.901
38340SOL    HW116917   1.713   3.337   4.926
38340SOL    HW216918   1.571   3.283   4.928
38341SOL     OW16919   7.203   2.933   4.268
38341SOL    HW116920   7.263   3.004   4.289
38341SOL    HW216921   7.255   2.872   4.215
38342SOL     OW16922   6.785   4.924  10.875
38342SOL    HW116923   6.739   4.974  10.807
38342SOL    HW216924   6.866   4.896  10.832
38343SOL     OW16925   6.403   5.855   7.735
38343SOL    HW116926   6.363   5.815   7.813
38343SOL    HW216927   6.331   5.864   7.673
38344SOL     OW16928   8.611  11.856  10.608
38344SOL    HW116929   8.686  11.797  10.612
38344SOL    HW216930   8.647  11.942  10.631
38345SOL     OW16931   7.152   2.248  10.021
38345SOL    HW116932   7.112   2.199  10.093
38345SOL    HW216933   7.157   2.186   9.949
38346SOL     OW16934   9.302   3.052   3.766
38346SOL    HW116935   9.216   3.023   3.798
38346SOL    HW216936   9.322   3.129   3.819
38347SOL     OW16937   5.491   4.156   3.716
38347SOL    HW116938   5.504   4.181   3.624
38347SOL    HW216939   5.398   4.132   3.720
38348SOL     OW16940   7.079   6.603   4.744
38348SOL    HW116941   7.088   6.619   4.837
38348SOL    HW216942   7.166   6.620   4.708
38349SOL     OW16943   8.218  12.649  12.390
38349SOL    HW116944   8.249  12.696  12.468
38349SOL    HW216945   8.286  12.664  12.325
38350SOL     OW16946   6.061  11.902   9.535
38350SOL    HW116947   5.985  11.844   9.540
38350SOL    HW216948   6.030  11.979   9.487
38351SOL     OW16949   4.146  13.151   5.380
38351SOL    HW116950   4.057  13.154   5.414
38351SOL    HW216951   4.138  13.105   5.296
38352SOL     OW16952  13.014   5.391  12.650
38352SOL    HW116953  13.046   5.463  12.704
38352SOL    HW216954  13.092   5.340  12.629
38353SOL     OW16955   7.296   2.900   7.173
38353SOL    HW116956   7.318   2.838   7.242
38353SOL    HW216957   7.332   2.984   7.204
38354SOL     OW16958   3.153   5.397   1.536
38354SOL    HW116959   3.210   5.425   1.608
38354SOL    HW216960   3.133   5.477   1.488
38355SOL     OW16961  13.354   3.260  10.809
38355SOL    HW116962  13.325   3.172  10.786
38355SOL    HW216963  13.446   3.262  10.784
38356SOL     OW16964   0.072  14.637   6.328
38356SOL    HW116965   0.144  14.581   6.358
38356SOL    HW216966   0.017  14.650   6.405
38357SOL     OW16967   1.903  14.026  11.456
38357SOL    HW116968   1.941  14.019  11.544
38357SOL    HW216969   1.905  14.120  11.437
38358SOL     OW16970  14.399  14.001   3.552
38358SOL    HW116971  14.438  13.964   3.631
38358SOL    HW216972  14.348  13.930   3.514
38359SOL     OW16973  14.026   6.341   7.322
38359SOL    HW116974  14.030   6.353   7.417
38359SOL    HW216975  14.105   6.383   7.288
38360SOL     OW16976   2.410   4.708   0.146
38360SOL    HW116977   2.343   4.673   0.087
38360SOL    HW216978   2.491   4.664   0.119
38361SOL     OW16979   4.018   3.134   5.825
38361SOL    HW116980   3.940   3.177   5.860
38361SOL    HW216981   4.047   3.190   5.754
38362SOL     OW16982   3.753   2.184  14.238
38362SOL    HW116983   3.715   2.097  14.235
38362SOL    HW216984   3.718   2.224  14.317
38363SOL     OW16985  13.886   1.963   1.368
38363SOL    HW116986  13.885   1.923   1.455
38363SOL    HW216987  13.834   1.904   1.313
38364SOL     OW16988   5.211   2.574  12.471
38364SOL    HW116989   5.172   2.631  12.538
38364SOL    HW216990   5.201   2.623  12.389
38365SOL     OW16991   5.725   4.721   8.319
38365SOL    HW116992   5.637   4.732   8.285
38365SOL    HW216993   5.760   4.810   8.324
38366SOL     OW16994   1.645  13.162   8.492
38366SOL    HW116995   1.687  13.112   8.422
38366SOL    HW216996   1.662  13.254   8.469
38367SOL     OW16997   6.720   1.171   4.567
38367SOL    HW116998   6.761   1.203   4.486
38367SOL    HW216999   6.626   1.178   4.550
38368SOL     OW17000   5.677   8.528   0.180
38368SOL    HW117001   5.585   8.504   0.171
38368SOL    HW217002   5.712   8.468   0.246
38369SOL     OW17003   7.746   8.216   1.451
38369SOL    HW117004   7.793   8.208   1.368
38369SOL    HW217005   7.659   8.181   1.432
38370SOL     OW17006   5.355  14.393   8.902
38370SOL    HW117007   5.390  14.443   8.828
38370SOL    HW217008   5.347  14.304   8.869
38371SOL     OW17009  14.723  13.912   3.547
38371SOL    HW117010  14.643  13.862   3.534
38371SOL    HW217011  14.757  13.926   3.458
38372SOL     OW17012   3.940  10.622   7.635
38372SOL    HW117013   4.020  10.655   7.594
38372SOL    HW217014   3.909  10.696   7.688
38373SOL     OW17015  10.083  13.150  13.870
38373SOL    HW117016  10.138  13.144  13.948
38373SOL    HW217017  10.138  13.195  13.805
38374SOL     OW17018   7.420  12.993  12.017
38374SOL    HW117019   7.375  13.068  12.055
38374SOL    HW217020   7.457  12.947  12.091
38375SOL     OW17021   7.056   9.158  10.718
38375SOL    HW117022   7.036   9.080  10.770
38375SOL    HW217023   7.087   9.222  10.781
38376SOL     OW17024   8.920   6.717   0.837
38376SOL    HW117025   8.877   6.633   0.825
38376SOL    HW217026   8.848   6.780   0.842
38377SOL     OW17027  13.918  11.891  12.797
38377SOL    HW117028  14.007  11.897  12.763
38377SOL    HW217029  13.925  11.835  12.874
38378SOL     OW17030   3.462   8.114  14.245
38378SOL    HW117031   3.381   8.098  14.197
38378SOL    HW217032   3.435   8.136  14.334
38379SOL     OW17033  14.576   4.120   2.257
38379SOL    HW117034  14.567   4.098   2.350
38379SOL    HW217035  14.500   4.081   2.215
38380SOL     OW17036  11.627   6.511   9.106
38380SOL    HW117037  11.621   6.458   9.027
38380SOL    HW217038  11.546   6.493   9.154
38381SOL     OW17039   3.141   3.087  14.023
38381SOL    HW117040   3.156   3.000  14.058
38381SOL    HW217041   3.197   3.144  14.075
38382SOL     OW17042  13.227  11.698   2.309
38382SOL    HW117043  13.317  11.723   2.291
38382SOL    HW217044  13.176  11.739   2.239
38383SOL     OW17045   8.867   7.640   5.322
38383SOL    HW117046   8.787   7.642   5.376
38383SOL    HW217047   8.938   7.658   5.385
38384SOL     OW17048  14.387   8.788   4.087
38384SOL    HW117049  14.308   8.734   4.090
38384SOL    HW217050  14.364   8.867   4.136
38385SOL     OW17051   0.224   1.459  10.571
38385SOL    HW117052   0.154   1.407  10.611
38385SOL    HW217053   0.281   1.481  10.645
38386SOL     OW17054   9.723  10.481   0.388
38386SOL    HW117055   9.743  10.395   0.351
38386SOL    HW217056   9.750  10.543   0.320
38387SOL     OW17057  11.001   2.672  13.014
38387SOL    HW117058  10.957   2.587  13.013
38387SOL    HW217059  10.934   2.735  12.988
38388SOL     OW17060  13.626   9.663   0.639
38388SOL    HW117061  13.550   9.719   0.625
38388SOL    HW217062  13.592   9.588   0.687
38389SOL     OW17063  14.454   1.750  13.977
38389SOL    HW117064  14.516   1.681  13.955
38389SOL    HW217065  14.448   1.803  13.898
38390SOL     OW17066   9.133   5.084   0.227
38390SOL    HW117067   9.185   5.136   0.288
38390SOL    HW217068   9.179   5.001   0.222
38391SOL     OW17069  12.605   6.223   4.108
38391SOL    HW117070  12.581   6.169   4.184
38391SOL    HW217071  12.555   6.186   4.036
38392SOL     OW17072   6.911   7.063  11.602
38392SOL    HW117073   6.893   6.970  11.615
38392SOL    HW217074   6.983   7.065  11.539
38393SOL     OW17075  14.342  14.047  10.818
38393SOL    HW117076  14.414  13.986  10.805
38393SOL    HW217077  14.289  14.040  10.739
38394SOL     OW17078   5.605   5.211  11.487
38394SOL    HW117079   5.595   5.306  11.500
38394SOL    HW217080   5.687   5.189  11.532
38395SOL     OW17081   6.234   1.665   5.680
38395SOL    HW117082   6.297   1.640   5.747
38395SOL    HW217083   6.159   1.606   5.693
38396SOL     OW17084  10.511   8.482   9.305
38396SOL    HW117085  10.471   8.499   9.390
38396SOL    HW217086  10.539   8.390   9.310
38397SOL     OW17087  12.962   6.337   0.939
38397SOL    HW117088  12.956   6.244   0.957
38397SOL    HW217089  12.931   6.346   0.849
38398SOL     OW17090   1.061   0.121   4.012
38398SOL    HW117091   1.129   0.059   3.988
38398SOL    HW217092   1.092   0.161   4.093
38399SOL     OW17093  10.802   5.153   7.445
38399SOL    HW117094  10.838   5.065   7.435
38399SOL    HW217095  10.861   5.208   7.394
38400SOL     OW17096  13.734  12.080  11.063
38400SOL    HW117097  13.770  11.999  11.028
38400SOL    HW217098  13.768  12.149  11.006
38401SOL     OW17099   6.522   5.959   7.459
38401SOL    HW117100   6.545   5.872   7.490
38401SOL    HW217101   6.427   5.963   7.469
38402SOL     OW17102   1.567   4.908   9.580
38402SOL    HW117103   1.582   4.905   9.486
38402SOL    HW217104   1.633   4.849   9.618
38403SOL     OW17105   8.421   8.110   0.677
38403SOL    HW117106   8.407   8.159   0.758
38403SOL    HW217107   8.508   8.136   0.647
38404SOL     OW17108   1.182   7.103   0.221
38404SOL    HW117109   1.162   7.097   0.128
38404SOL    HW217110   1.098   7.085   0.264
38405SOL     OW17111   5.584  11.617   2.135
38405SOL    HW117112   5.574  11.534   2.183
38405SOL    HW217113   5.517  11.613   2.067
38406SOL     OW17114   7.130   3.998   3.708
38406SOL    HW117115   7.132   3.904   3.693
38406SOL    HW217116   7.042   4.016   3.739
38407SOL     OW17117  12.499   7.142   4.232
38407SOL    HW117118  12.498   7.189   4.148
38407SOL    HW217119  12.580   7.171   4.275
38408SOL     OW17120   9.131  12.514   4.272
38408SOL    HW117121   9.133  12.425   4.305
38408SOL    HW217122   9.221  12.531   4.244
38409SOL     OW17123   8.568  12.383  14.535
38409SOL    HW117124   8.502  12.422  14.592
38409SOL    HW217125   8.549  12.289  14.536
38410SOL     OW17126   6.366   3.948  11.583
38410SOL    HW117127   6.434   3.933  11.649
38410SOL    HW217128   6.381   3.881  11.517
38411SOL     OW17129   2.286  13.720   0.050
38411SOL    HW117130   2.325  13.799   0.011
38411SOL    HW217131   2.205  13.706  14.869
38412SOL     OW17132   3.490   9.273  10.274
38412SOL    HW117133   3.449   9.342  10.221
38412SOL    HW217134   3.473   9.192  10.225
38413SOL     OW17135   4.813  11.743   0.543
38413SOL    HW117136   4.897  11.720   0.505
38413SOL    HW217137   4.800  11.835   0.518
38414SOL     OW17138  11.606  14.156   0.999
38414SOL    HW117139  11.517  14.125   1.018
38414SOL    HW217140  11.602  14.250   1.011
38415SOL     OW17141  14.269   2.551  11.177
38415SOL    HW117142  14.304   2.499  11.105
38415SOL    HW217143  14.256   2.638  11.140
38416SOL     OW17144   4.015   1.261  14.143
38416SOL    HW117145   4.047   1.252  14.053
38416SOL    HW217146   4.058   1.339  14.176
38417SOL     OW17147  11.005   2.045   0.633
38417SOL    HW117148  10.983   1.991   0.709
38417SOL    HW217149  10.987   2.135   0.661
38418SOL     OW17150   7.242   7.510   8.100
38418SOL    HW117151   7.297   7.502   8.178
38418SOL    HW217152   7.222   7.420   8.076
38419SOL     OW17153   6.010   4.903   0.048
38419SOL    HW117154   5.977   4.814   0.032
38419SOL    HW217155   5.997   4.917   0.142
38420SOL     OW17156  10.831   5.600  12.590
38420SOL    HW117157  10.745   5.628  12.557
38420SOL    HW217158  10.819   5.591  12.684
38421SOL     OW17159   7.436   0.851  14.631
38421SOL    HW117160   7.486   0.931  14.615
38421SOL    HW217161   7.502   0.781  14.634
38422SOL     OW17162   3.235   1.307  13.742
38422SOL    HW117163   3.181   1.233  13.713
38422SOL    HW217164   3.269   1.280  13.827
38423SOL     OW17165   9.155   7.337   6.443
38423SOL    HW117166   9.162   7.280   6.520
38423SOL    HW217167   9.148   7.276   6.369
38424SOL     OW17168   3.384   4.830  14.575
38424SOL    HW117169   3.374   4.912  14.527
38424SOL    HW217170   3.329   4.768  14.527
38425SOL     OW17171  12.758   3.830   5.861
38425SOL    HW117172  12.751   3.917   5.900
38425SOL    HW217173  12.700   3.833   5.785
38426SOL     OW17174   3.031   2.453   5.837
38426SOL    HW117175   3.026   2.478   5.929
38426SOL    HW217176   3.024   2.536   5.789
38427SOL     OW17177   2.711   0.068  12.080
38427SOL    HW117178   2.768   0.141  12.103
38427SOL    HW217179   2.623   0.106  12.075
38428SOL     OW17180  11.626   7.160   7.507
38428SOL    HW117181  11.639   7.072   7.543
38428SOL    HW217182  11.532   7.164   7.489
38429SOL     OW17183   5.034   4.442   4.799
38429SOL    HW117184   5.063   4.447   4.891
38429SOL    HW217185   5.085   4.509   4.755
38430SOL     OW17186  12.254   4.993   7.645
38430SOL    HW117187  12.195   5.067   7.630
38430SOL    HW217188  12.233   4.963   7.733
38431SOL     OW17189   6.973  12.077   4.498
38431SOL    HW117190   7.034  12.004   4.485
38431SOL    HW217191   7.026  12.144   4.542
38432SOL     OW17192  10.091  11.155  14.526
38432SOL    HW117193  10.126  11.166  14.438
38432SOL    HW217194  10.064  11.243  14.553
38433SOL     OW17195  14.754   1.403   1.650
38433SOL    HW117196  14.848   1.389   1.656
38433SOL    HW217197  14.716   1.317   1.666
38434SOL     OW17198  14.550   9.049   6.874
38434SOL    HW117199  14.632   9.094   6.854
38434SOL    HW217200  14.531   8.999   6.794
38435SOL     OW17201   0.662  11.497  14.729
38435SOL    HW117202   0.595  11.466  14.791
38435SOL    HW217203   0.624  11.481  14.643
38436SOL     OW17204   4.256   0.926   9.899
38436SOL    HW117205   4.207   0.844   9.902
38436SOL    HW217206   4.198   0.988   9.857
38437SOL     OW17207   1.646   2.896   3.423
38437SOL    HW117208   1.734   2.934   3.424
38437SOL    HW217209   1.636   2.862   3.335
38438SOL     OW17210   0.125   0.434  10.452
38438SOL    HW117211   0.194   0.491  10.421
38438SOL    HW217212   0.170   0.358  10.488
38439SOL     OW17213   6.616  10.067   6.584
38439SOL    HW117214   6.628  10.092   6.492
38439SOL    HW217215   6.674   9.992   6.596
38440SOL     OW17216   0.065  14.235   3.231
38440SOL    HW117217  14.843  14.220   3.207
38440SOL    HW217218   0.115  14.194   3.160
38441SOL     OW17219   1.148  12.837   4.709
38441SOL    HW117220   1.117  12.862   4.796
38441SOL    HW217221   1.177  12.747   4.719
38442SOL     OW17222  12.398  10.591   5.589
38442SOL    HW117223  12.383  10.671   5.538
38442SOL    HW217224  12.362  10.610   5.675
38443SOL     OW17225   6.423   8.865   2.034
38443SOL    HW117226   6.505   8.846   2.078
38443SOL    HW217227   6.387   8.778   2.011
38444SOL     OW17228   4.561  11.968   3.278
38444SOL    HW117229   4.539  12.018   3.357
38444SOL    HW217230   4.488  11.985   3.218
38445SOL     OW17231   5.556  12.815   3.861
38445SOL    HW117232   5.644  12.849   3.845
38445SOL    HW217233   5.562  12.721   3.846
38446SOL     OW17234   2.659  10.928   7.709
38446SOL    HW117235   2.733  10.935   7.769
38446SOL    HW217236   2.614  11.012   7.716
38447SOL     OW17237   6.256   0.743   3.179
38447SOL    HW117238   6.333   0.728   3.234
38447SOL    HW217239   6.284   0.717   3.091
38448SOL     OW17240  11.390  11.482  11.321
38448SOL    HW117241  11.399  11.565  11.274
38448SOL    HW217242  11.296  11.475  11.338
38449SOL     OW17243   1.311   9.751   2.763
38449SOL    HW117244   1.305   9.820   2.697
38449SOL    HW217245   1.359   9.680   2.720
38450SOL     OW17246   5.037   0.675  12.512
38450SOL    HW117247   4.948   0.648  12.533
38450SOL    HW217248   5.057   0.744  12.575
38451SOL     OW17249   7.916   7.636  13.369
38451SOL    HW117250   7.879   7.719  13.399
38451SOL    HW217251   7.840   7.578  13.361
38452SOL     OW17252   3.210   6.009   5.028
38452SOL    HW117253   3.210   5.921   4.990
38452SOL    HW217254   3.133   6.052   4.991
38453SOL     OW17255  14.764   3.140  11.275
38453SOL    HW117256  14.716   3.098  11.346
38453SOL    HW217257  14.696   3.170  11.214
38454SOL     OW17258   5.681   1.390   4.969
38454SOL    HW117259   5.636   1.310   4.940
38454SOL    HW217260   5.753   1.358   5.025
38455SOL     OW17261   4.233   7.580  10.088
38455SOL    HW117262   4.209   7.554   9.999
38455SOL    HW217263   4.150   7.606  10.128
38456SOL     OW17264   7.954  14.373   1.964
38456SOL    HW117265   7.905  14.352   1.885
38456SOL    HW217266   7.985  14.288   1.996
38457SOL     OW17267  11.932   6.421   7.578
38457SOL    HW117268  12.017   6.462   7.561
38457SOL    HW217269  11.953   6.335   7.615
38458SOL     OW17270   7.859  10.456  14.436
38458SOL    HW117271   7.935  10.505  14.468
38458SOL    HW217272   7.881  10.364  14.450
38459SOL     OW17273   6.072  13.862   9.933
38459SOL    HW117274   6.159  13.881   9.968
38459SOL    HW217275   6.075  13.770   9.908
38460SOL     OW17276   4.588   4.809   6.982
38460SOL    HW117277   4.648   4.806   6.907
38460SOL    HW217278   4.509   4.765   6.951
38461SOL     OW17279   7.847  12.755  10.653
38461SOL    HW117280   7.766  12.771  10.605
38461SOL    HW217281   7.915  12.754  10.585
38462SOL     OW17282   3.136   4.737   7.126
38462SOL    HW117283   3.084   4.713   7.049
38462SOL    HW217284   3.222   4.698   7.110
38463SOL     OW17285   2.748   8.046   9.962
38463SOL    HW117286   2.781   8.135   9.951
38463SOL    HW217287   2.770   8.023  10.052
38464SOL     OW17288   9.225  12.343   1.344
38464SOL    HW117289   9.192  12.298   1.422
38464SOL    HW217290   9.201  12.286   1.271
38465SOL     OW17291   9.426   2.111   7.245
38465SOL    HW117292   9.517   2.109   7.276
38465SOL    HW217293   9.434   2.119   7.150
38466SOL     OW17294   8.689  11.837   0.245
38466SOL    HW117295   8.608  11.882   0.267
38466SOL    HW217296   8.748  11.857   0.317
38467SOL     OW17297   6.872   8.360   6.303
38467SOL    HW117298   6.932   8.423   6.344
38467SOL    HW217299   6.789   8.375   6.347
38468SOL     OW17300   3.518   3.875   2.525
38468SOL    HW117301   3.453   3.873   2.456
38468SOL    HW217302   3.602   3.870   2.479
38469SOL     OW17303   6.587  11.124   8.028
38469SOL    HW117304   6.562  11.058   8.093
38469SOL    HW217305   6.514  11.126   7.967
38470SOL     OW17306   5.836   5.468  12.499
38470SOL    HW117307   5.769   5.482  12.566
38470SOL    HW217308   5.832   5.374  12.480
38471SOL     OW17309   9.057  10.082  11.034
38471SOL    HW117310   9.127  10.021  11.057
38471SOL    HW217311   8.979  10.027  11.025
38472SOL     OW17312   8.354  14.695   4.903
38472SOL    HW117313   8.311  14.687   4.817
38472SOL    HW217314   8.327  14.781   4.935
38473SOL     OW17315  13.109  12.164   4.780
38473SOL    HW117316  13.163  12.140   4.855
38473SOL    HW217317  13.066  12.246   4.806
38474SOL     OW17318   1.687  12.598   0.123
38474SOL    HW117319   1.714  12.519   0.076
38474SOL    HW217320   1.767  12.630   0.164
38475SOL     OW17321  13.633  12.132  11.662
38475SOL    HW117322  13.562  12.076  11.694
38475SOL    HW217323  13.662  12.090  11.581
38476SOL     OW17324   4.288  14.403  12.589
38476SOL    HW117325   4.232  14.325  12.583
38476SOL    HW217326   4.233  14.469  12.630
38477SOL     OW17327  10.488   9.870  11.436
38477SOL    HW117328  10.541   9.947  11.418
38477SOL    HW217329  10.460   9.880  11.527
38478SOL     OW17330   9.453  11.774   5.145
38478SOL    HW117331   9.486  11.703   5.200
38478SOL    HW217332   9.439  11.847   5.206
38479SOL     OW17333   5.386  10.193   3.170
38479SOL    HW117334   5.363  10.118   3.114
38479SOL    HW217335   5.302  10.225   3.203
38480SOL     OW17336   9.229   2.853   9.410
38480SOL    HW117337   9.293   2.860   9.340
38480SOL    HW217338   9.249   2.926   9.468
38481SOL     OW17339   7.671   0.838   9.950
38481SOL    HW117340   7.730   0.771   9.915
38481SOL    HW217341   7.590   0.791   9.968
38482SOL     OW17342  11.687  11.193   0.621
38482SOL    HW117343  11.630  11.228   0.553
38482SOL    HW217344  11.627  11.149   0.682
38483SOL     OW17345  13.796   9.217  11.791
38483SOL    HW117346  13.744   9.153  11.743
38483SOL    HW217347  13.732   9.267  11.841
38484SOL     OW17348  13.056   4.485   4.603
38484SOL    HW117349  13.079   4.471   4.511
38484SOL    HW217350  13.118   4.551   4.634
38485SOL     OW17351  12.403  13.797   8.642
38485SOL    HW117352  12.387  13.704   8.626
38485SOL    HW217353  12.489  13.800   8.684
38486SOL     OW17354   2.225   6.391  11.852
38486SOL    HW117355   2.188   6.405  11.939
38486SOL    HW217356   2.319   6.381  11.868
38487SOL     OW17357   8.318   7.572   6.162
38487SOL    HW117358   8.413   7.585   6.163
38487SOL    HW217359   8.304   7.493   6.213
38488SOL     OW17360   6.481   4.046  13.586
38488SOL    HW117361   6.529   4.007  13.513
38488SOL    HW217362   6.449   4.130  13.551
38489SOL     OW17363   9.411   9.911   0.163
38489SOL    HW117364   9.448   9.872   0.242
38489SOL    HW217365   9.487   9.950   0.118
38490SOL     OW17366   1.430   4.113  12.940
38490SOL    HW117367   1.365   4.173  12.902
38490SOL    HW217368   1.514   4.156  12.926
38491SOL     OW17369   5.956   8.513  13.355
38491SOL    HW117370   5.869   8.551  13.354
38491SOL    HW217371   5.966   8.477  13.443
38492SOL     OW17372   8.781   2.335   8.870
38492SOL    HW117373   8.857   2.346   8.927
38492SOL    HW217374   8.807   2.378   8.787
38493SOL     OW17375   8.218  11.952   7.266
38493SOL    HW117376   8.180  11.867   7.246
38493SOL    HW217377   8.295  11.959   7.209
38494SOL     OW17378   6.612   2.186   4.696
38494SOL    HW117379   6.522   2.154   4.702
38494SOL    HW217380   6.655   2.127   4.634
38495SOL     OW17381   3.146   7.920   0.901
38495SOL    HW117382   3.230   7.881   0.926
38495SOL    HW217383   3.116   7.965   0.980
38496SOL     OW17384   5.208   5.219   8.144
38496SOL    HW117385   5.192   5.174   8.061
38496SOL    HW217386   5.221   5.310   8.119
38497SOL     OW17387   0.978  10.986   2.108
38497SOL    HW117388   0.965  11.033   2.191
38497SOL    HW217389   1.019  10.904   2.135
38498SOL     OW17390   9.050   5.577  12.447
38498SOL    HW117391   9.007   5.662  12.456
38498SOL    HW217392   8.981   5.518  12.417
38499SOL     OW17393   4.916   7.682  11.259
38499SOL    HW117394   4.916   7.703  11.165
38499SOL    HW217395   4.850   7.613  11.267
38500SOL     OW17396   3.927   8.513   1.908
38500SOL    HW117397   3.938   8.533   2.001
38500SOL    HW217398   4.000   8.557   1.865
38501SOL     OW17399   2.761   1.411   6.627
38501SOL    HW117400   2.673   1.434   6.657
38501SOL    HW217401   2.747   1.345   6.559
38502SOL     OW17402   5.234   4.111  13.974
38502SOL    HW117403   5.294   4.079  14.042
38502SOL    HW217404   5.171   4.040  13.963
38503SOL     OW17405   0.381  10.687   9.902
38503SOL    HW117406   0.423  10.646   9.827
38503SOL    HW217407   0.320  10.750   9.863
38504SOL     OW17408   6.679  12.942   8.823
38504SOL    HW117409   6.768  12.926   8.793
38504SOL    HW217410   6.685  12.940   8.918
38505SOL     OW17411   5.118  10.680   0.449
38505SOL    HW117412   5.167  10.599   0.437
38505SOL    HW217413   5.183  10.749   0.439
38506SOL     OW17414  14.630   8.076   1.188
38506SOL    HW117415  14.623   8.026   1.269
38506SOL    HW217416  14.572   8.031   1.126
38507SOL     OW17417  13.607   0.552   2.223
38507SOL    HW117418  13.519   0.590   2.228
38507SOL    HW217419  13.631   0.560   2.131
38508SOL     OW17420   0.933  11.821  12.252
38508SOL    HW117421   0.987  11.744  12.233
38508SOL    HW217422   0.906  11.810  12.343
38509SOL     OW17423   7.045   9.075  14.090
38509SOL    HW117424   6.954   9.058  14.065
38509SOL    HW217425   7.060   9.165  14.061
38510SOL     OW17426   9.220   1.564   7.387
38510SOL    HW117427   9.247   1.654   7.403
38510SOL    HW217428   9.256   1.543   7.301
38511SOL     OW17429   7.509   2.121  14.343
38511SOL    HW117430   7.457   2.046  14.312
38511SOL    HW217431   7.599   2.095  14.324
38512SOL     OW17432   9.073   3.743  12.759
38512SOL    HW117433   9.043   3.653  12.767
38512SOL    HW217434   9.158   3.744  12.802
38513SOL     OW17435  14.417   9.667   4.761
38513SOL    HW117436  14.432   9.761   4.750
38513SOL    HW217437  14.500   9.633   4.796
38514SOL     OW17438   6.312   1.988   0.915
38514SOL    HW117439   6.216   1.984   0.908
38514SOL    HW217440   6.337   1.902   0.947
38515SOL     OW17441  13.267   3.849  11.972
38515SOL    HW117442  13.269   3.942  11.996
38515SOL    HW217443  13.354   3.833  11.935
38516SOL     OW17444   0.939   7.039   7.783
38516SOL    HW117445   0.932   7.135   7.786
38516SOL    HW217446   1.034   7.023   7.779
38517SOL     OW17447  13.280   1.127   4.985
38517SOL    HW117448  13.340   1.077   5.041
38517SOL    HW217449  13.246   1.062   4.923
38518SOL     OW17450   7.379   8.519   7.031
38518SOL    HW117451   7.320   8.444   7.031
38518SOL    HW217452   7.466   8.481   7.035
38519SOL     OW17453   0.114   8.883  10.568
38519SOL    HW117454   0.193   8.927  10.599
38519SOL    HW217455   0.081   8.939  10.498
38520SOL     OW17456  14.430  11.005  11.147
38520SOL    HW117457  14.465  11.020  11.234
38520SOL    HW217458  14.369  10.932  11.158
38521SOL     OW17459   9.598   8.248  11.056
38521SOL    HW117460   9.544   8.181  11.098
38521SOL    HW217461   9.555   8.330  11.078
38522SOL     OW17462  11.063   8.552   3.106
38522SOL    HW117463  11.091   8.611   3.176
38522SOL    HW217464  10.986   8.594   3.068
38523SOL     OW17465   0.072  14.176   7.125
38523SOL    HW117466  14.847  14.180   7.140
38523SOL    HW217467   0.088  14.241   7.056
38524SOL     OW17468  11.343   4.048  12.957
38524SOL    HW117469  11.367   3.976  12.898
38524SOL    HW217470  11.404   4.119  12.935
38525SOL     OW17471   8.930   9.723   9.631
38525SOL    HW117472   8.889   9.678   9.558
38525SOL    HW217473   9.023   9.702   9.624
38526SOL     OW17474  10.022   7.586  13.839
38526SOL    HW117475   9.992   7.501  13.871
38526SOL    HW217476   9.948   7.620  13.788
38527SOL     OW17477   2.517   3.734   4.574
38527SOL    HW117478   2.454   3.798   4.608
38527SOL    HW217479   2.574   3.715   4.648
38528SOL     OW17480  10.840   1.179   8.953
38528SOL    HW117481  10.832   1.190   8.859
38528SOL    HW217482  10.855   1.085   8.965
38529SOL     OW17483  14.259  11.792   2.691
38529SOL    HW117484  14.290  11.797   2.782
38529SOL    HW217485  14.165  11.775   2.699
38530SOL     OW17486   5.792  11.928   3.942
38530SOL    HW117487   5.765  12.020   3.941
38530SOL    HW217488   5.777  11.898   3.852
38531SOL     OW17489   4.135   6.723  13.923
38531SOL    HW117490   4.156   6.752  13.834
38531SOL    HW217491   4.218   6.726  13.969
38532SOL     OW17492   6.383   4.844  12.688
38532SOL    HW117493   6.377   4.934  12.721
38532SOL    HW217494   6.410   4.792  12.763
38533SOL     OW17495   2.237  13.926   2.257
38533SOL    HW117496   2.237  13.832   2.243
38533SOL    HW217497   2.231  13.936   2.353
38534SOL     OW17498   5.099   7.099  11.955
38534SOL    HW117499   5.125   7.022  11.905
38534SOL    HW217500   5.137   7.173  11.908
38535SOL     OW17501  14.772   3.883   6.684
38535SOL    HW117502  14.689   3.880   6.732
38535SOL    HW217503  14.757   3.947   6.615
38536SOL     OW17504  12.318  11.015   6.093
38536SOL    HW117505  12.287  11.024   6.183
38536SOL    HW217506  12.314  11.104   6.058
38537SOL     OW17507  12.120   9.667   6.671
38537SOL    HW117508  12.175   9.590   6.658
38537SOL    HW217509  12.030   9.635   6.663
38538SOL     OW17510   9.697  13.231   3.865
38538SOL    HW117511   9.602  13.220   3.862
38538SOL    HW217512   9.717  13.282   3.786
38539SOL     OW17513   7.119   4.227   8.938
38539SOL    HW117514   7.149   4.251   8.850
38539SOL    HW217515   7.186   4.165   8.969
38540SOL     OW17516   0.432   0.774   7.876
38540SOL    HW117517   0.469   0.837   7.815
38540SOL    HW217518   0.508   0.739   7.923
38541SOL     OW17519  10.545   1.784   9.075
38541SOL    HW117520  10.489   1.815   9.005
38541SOL    HW217521  10.606   1.723   9.032
38542SOL     OW17522   6.337   0.466  13.440
38542SOL    HW117523   6.357   0.492  13.530
38542SOL    HW217524   6.387   0.526  13.385
38543SOL     OW17525   2.848  12.274  11.632
38543SOL    HW117526   2.761  12.251  11.599
38543SOL    HW217527   2.883  12.191  11.665
38544SOL     OW17528   8.339  10.112   0.780
38544SOL    HW117529   8.402  10.098   0.850
38544SOL    HW217530   8.261  10.063   0.807
38545SOL     OW17531  10.140  12.356  10.720
38545SOL    HW117532  10.207  12.422  10.736
38545SOL    HW217533  10.183  12.290  10.665
38546SOL     OW17534   0.475   9.072  12.605
38546SOL    HW117535   0.436   9.157  12.583
38546SOL    HW217536   0.497   9.034  12.520
38547SOL     OW17537   2.806   1.768  12.398
38547SOL    HW117538   2.791   1.843  12.340
38547SOL    HW217539   2.900   1.771  12.416
38548SOL     OW17540  14.203  11.610  10.386
38548SOL    HW117541  14.206  11.608  10.290
38548SOL    HW217542  14.287  11.647  10.412
38549SOL     OW17543   5.957   9.042   7.046
38549SOL    HW117544   6.023   9.079   6.988
38549SOL    HW217545   5.904   8.986   6.989
38550SOL     OW17546   3.744   3.898  10.652
38550SOL    HW117547   3.806   3.959  10.691
38550SOL    HW217548   3.760   3.904  10.558
38551SOL     OW17549  14.402   8.259   9.267
38551SOL    HW117550  14.351   8.216   9.336
38551SOL    HW217551  14.378   8.212   9.187
38552SOL     OW17552  12.884   9.047   0.179
38552SOL    HW117553  12.977   9.042   0.198
38552SOL    HW217554  12.879   9.071   0.087
38553SOL     OW17555  13.456  13.865   5.935
38553SOL    HW117556  13.524  13.932   5.923
38553SOL    HW217557  13.448  13.857   6.030
38554SOL     OW17558   5.387   2.322   0.538
38554SOL    HW117559   5.465   2.296   0.490
38554SOL    HW217560   5.374   2.253   0.603
38555SOL     OW17561   6.216   0.756   9.161
38555SOL    HW117562   6.222   0.704   9.242
38555SOL    HW217563   6.275   0.830   9.177
38556SOL     OW17564  11.533   7.766  13.070
38556SOL    HW117565  11.582   7.809  13.140
38556SOL    HW217566  11.501   7.838  13.015
38557SOL     OW17567  10.027   6.628   1.177
38557SOL    HW117568  10.051   6.654   1.266
38557SOL    HW217569   9.946   6.578   1.189
38558SOL     OW17570  12.453   9.606   6.626
38558SOL    HW117571  12.402   9.595   6.546
38558SOL    HW217572  12.431   9.530   6.680
38559SOL     OW17573   6.765   2.852   9.546
38559SOL    HW117574   6.771   2.869   9.641
38559SOL    HW217575   6.843   2.895   9.510
38560SOL     OW17576  11.647  10.172   4.697
38560SOL    HW117577  11.657  10.140   4.607
38560SOL    HW217578  11.575  10.235   4.691
38561SOL     OW17579   6.895   8.961   9.295
38561SOL    HW117580   6.942   8.934   9.374
38561SOL    HW217581   6.830   9.024   9.327
38562SOL     OW17582   2.721   2.393   2.992
38562SOL    HW117583   2.739   2.303   3.018
38562SOL    HW217584   2.807   2.431   2.973
38563SOL     OW17585   5.632  13.128   7.424
38563SOL    HW117586   5.639  13.220   7.451
38563SOL    HW217587   5.722  13.095   7.434
38564SOL     OW17588   6.593  10.755   7.971
38564SOL    HW117589   6.506  10.790   7.989
38564SOL    HW217590   6.609  10.693   8.042
38565SOL     OW17591   5.217  12.453   1.022
38565SOL    HW117592   5.231  12.390   0.951
38565SOL    HW217593   5.204  12.399   1.100
38566SOL     OW17594   3.519  10.459   7.026
38566SOL    HW117595   3.594  10.510   7.057
38566SOL    HW217596   3.551  10.413   6.949
38567SOL     OW17597   4.773   4.384   4.850
38567SOL    HW117598   4.861   4.384   4.813
38567SOL    HW217599   4.786   4.360   4.942
38568SOL     OW17600   8.153  12.045  11.041
38568SOL    HW117601   8.182  11.977  10.981
38568SOL    HW217602   8.077  12.085  10.998
38569SOL     OW17603  12.105  12.054   7.233
38569SOL    HW117604  12.132  12.052   7.141
38569SOL    HW217605  12.028  11.997   7.236
38570SOL     OW17606   1.661   7.543   0.594
38570SOL    HW117607   1.604   7.604   0.548
38570SOL    HW217608   1.604   7.470   0.617
38571SOL     OW17609   2.430  13.808   0.964
38571SOL    HW117610   2.451  13.719   0.936
38571SOL    HW217611   2.503  13.861   0.931
38572SOL     OW17612   6.860  13.175   1.389
38572SOL    HW117613   6.773  13.160   1.351
38572SOL    HW217614   6.920  13.158   1.317
38573SOL     OW17615  12.404   2.422   4.668
38573SOL    HW117616  12.330   2.374   4.632
38573SOL    HW217617  12.365   2.498   4.711
38574SOL     OW17618   5.443  11.097   6.346
38574SOL    HW117619   5.530  11.117   6.380
38574SOL    HW217620   5.389  11.084   6.424
38575SOL     OW17621  11.091   7.158  11.682
38575SOL    HW117622  11.141   7.096  11.628
38575SOL    HW217623  11.005   7.118  11.691
38576SOL     OW17624   6.997   0.923   0.200
38576SOL    HW117625   7.009   0.967   0.284
38576SOL    HW217626   7.082   0.883   0.182
38577SOL     OW17627   1.434  10.671  14.656
38577SOL    HW117628   1.515  10.715  14.681
38577SOL    HW217629   1.462  10.599  14.599
38578SOL     OW17630   3.769   1.761  10.896
38578SOL    HW117631   3.811   1.688  10.941
38578SOL    HW217632   3.709   1.798  10.961
38579SOL     OW17633   7.881  11.067  10.206
38579SOL    HW117634   7.937  11.033  10.136
38579SOL    HW217635   7.898  11.161  10.206
38580SOL     OW17636   9.789  14.215  10.932
38580SOL    HW117637   9.863  14.260  10.890
38580SOL    HW217638   9.756  14.156  10.865
38581SOL     OW17639  14.189   6.058  13.486
38581SOL    HW117640  14.274   6.062  13.441
38581SOL    HW217641  14.212   6.052  13.579
38582SOL     OW17642   7.291  11.518   6.927
38582SOL    HW117643   7.245  11.515   7.011
38582SOL    HW217644   7.362  11.581   6.940
38583SOL     OW17645  12.813  11.941   4.263
38583SOL    HW117646  12.819  12.035   4.279
38583SOL    HW217647  12.893  11.920   4.214
38584SOL     OW17648   9.661  13.559   7.449
38584SOL    HW117649   9.671  13.600   7.363
38584SOL    HW217650   9.740  13.504   7.458
38585SOL     OW17651  12.196   8.822  12.045
38585SOL    HW117652  12.106   8.854  12.053
38585SOL    HW217653  12.235   8.876  11.977
38586SOL     OW17654  10.762  12.659  14.730
38586SOL    HW117655  10.747  12.753  14.716
38586SOL    HW217656  10.823  12.655  14.803
38587SOL     OW17657   4.366   4.245   6.839
38587SOL    HW117658   4.452   4.273   6.871
38587SOL    HW217659   4.365   4.269   6.747
38588SOL     OW17660   8.173   4.614   9.836
38588SOL    HW117661   8.241   4.671   9.872
38588SOL    HW217662   8.092   4.663   9.849
38589SOL     OW17663   9.509   0.196  10.981
38589SOL    HW117664   9.473   0.110  11.001
38589SOL    HW217665   9.573   0.212  11.050
38590SOL     OW17666  10.124  12.454   0.765
38590SOL    HW117667  10.059  12.385   0.781
38590SOL    HW217668  10.120  12.469   0.671
38591SOL     OW17669   4.050   2.310  10.002
38591SOL    HW117670   3.987   2.304  10.074
38591SOL    HW217671   4.041   2.228   9.954
38592SOL     OW17672   1.375   3.187   9.140
38592SOL    HW117673   1.289   3.172   9.180
38592SOL    HW217674   1.415   3.255   9.194
38593SOL     OW17675   9.646   0.893   9.725
38593SOL    HW117676   9.574   0.930   9.776
38593SOL    HW217677   9.717   0.956   9.735
38594SOL     OW17678   4.648   4.084  10.925
38594SOL    HW117679   4.672   4.152  10.861
38594SOL    HW217680   4.624   4.009  10.871
38595SOL     OW17681   4.390  12.583  14.764
38595SOL    HW117682   4.303  12.544  14.755
38595SOL    HW217683   4.382  12.641  14.840
38596SOL     OW17684   1.866   6.527   1.245
38596SOL    HW117685   1.919   6.493   1.173
38596SOL    HW217686   1.847   6.449   1.298
38597SOL     OW17687   4.957  13.412   0.220
38597SOL    HW117688   4.906  13.331   0.226
38597SOL    HW217689   4.920  13.469   0.288
38598SOL     OW17690   7.469  10.020  14.409
38598SOL    HW117691   7.534  10.081  14.372
38598SOL    HW217692   7.519   9.939  14.424
38599SOL     OW17693   0.169  14.680   4.912
38599SOL    HW117694   0.134  14.594   4.892
38599SOL    HW217695   0.237  14.695   4.845
38600SOL     OW17696   1.458   3.016   1.736
38600SOL    HW117697   1.499   3.092   1.695
38600SOL    HW217698   1.519   2.944   1.720
38601SOL     OW17699  11.666  11.441   2.171
38601SOL    HW117700  11.752  11.399   2.175
38601SOL    HW217701  11.627  11.422   2.257
38602SOL     OW17702   4.775   4.900  12.318
38602SOL    HW117703   4.738   4.982  12.283
38602SOL    HW217704   4.788   4.845  12.241
38603SOL     OW17705  10.917  14.329   4.847
38603SOL    HW117706  10.871  14.271   4.785
38603SOL    HW217707  10.993  14.361   4.799
38604SOL     OW17708   4.541   3.203   5.091
38604SOL    HW117709   4.523   3.291   5.125
38604SOL    HW217710   4.636   3.195   5.095
38605SOL     OW17711  10.963   4.860  10.688
38605SOL    HW117712  10.917   4.776  10.690
38605SOL    HW217713  10.959   4.887  10.596
38606SOL     OW17714  13.623  12.888   6.064
38606SOL    HW117715  13.549  12.847   6.109
38606SOL    HW217716  13.627  12.843   5.979
38607SOL     OW17717   3.266   8.055   9.243
38607SOL    HW117718   3.211   8.034   9.167
38607SOL    HW217719   3.252   7.982   9.303
38608SOL     OW17720   5.007  10.656   2.830
38608SOL    HW117721   4.919  10.628   2.852
38608SOL    HW217722   5.054  10.575   2.808
38609SOL     OW17723   6.380   6.603   8.291
38609SOL    HW117724   6.327   6.653   8.354
38609SOL    HW217725   6.324   6.531   8.264
38610SOL     OW17726   0.713   2.681  10.621
38610SOL    HW117727   0.649   2.615  10.593
38610SOL    HW217728   0.678   2.764  10.588
38611SOL     OW17729  10.877   0.904  13.901
38611SOL    HW117730  10.834   0.887  13.817
38611SOL    HW217731  10.814   0.958  13.950
38612SOL     OW17732  10.363   6.313  14.132
38612SOL    HW117733  10.349   6.390  14.188
38612SOL    HW217734  10.373   6.349  14.044
38613SOL     OW17735   7.810   9.737   2.766
38613SOL    HW117736   7.860   9.672   2.715
38613SOL    HW217737   7.860   9.747   2.847
38614SOL     OW17738  14.574   6.789   4.740
38614SOL    HW117739  14.549   6.869   4.786
38614SOL    HW217740  14.516   6.786   4.664
38615SOL     OW17741   3.061   5.480   9.561
38615SOL    HW117742   3.116   5.456   9.486
38615SOL    HW217743   3.022   5.397   9.590
38616SOL     OW17744  11.912   0.072   2.383
38616SOL    HW117745  11.936   0.006   2.448
38616SOL    HW217746  11.842   0.031   2.332
38617SOL     OW17747   3.285  14.869  13.099
38617SOL    HW117748   3.252   0.089  13.109
38617SOL    HW217749   3.378   0.010  13.079
38618SOL     OW17750   4.113  14.238   2.705
38618SOL    HW117751   4.093  14.291   2.782
38618SOL    HW217752   4.197  14.271   2.674
38619SOL     OW17753   1.137   9.108   4.854
38619SOL    HW117754   1.071   9.154   4.906
38619SOL    HW217755   1.199   9.075   4.919
38620SOL     OW17756   9.277   5.518  12.145
38620SOL    HW117757   9.194   5.522  12.097
38620SOL    HW217758   9.339   5.482  12.081
38621SOL     OW17759   9.957  10.473   3.698
38621SOL    HW117760   9.891  10.418   3.740
38621SOL    HW217761   9.993  10.525   3.770
38622SOL     OW17762  10.009   6.623   2.015
38622SOL    HW117763  10.043   6.713   2.022
38622SOL    HW217764   9.944   6.617   2.086
38623SOL     OW17765   6.036  10.667   0.000
38623SOL    HW117766   6.121  10.682   0.042
38623SOL    HW217767   6.039  10.577  14.839
38624SOL     OW17768   1.201   4.589  10.758
38624SOL    HW117769   1.194   4.616  10.850
38624SOL    HW217770   1.248   4.505  10.762
38625SOL     OW17771  14.405   2.673   6.099
38625SOL    HW117772  14.426   2.582   6.080
38625SOL    HW217773  14.481   2.706   6.148
38626SOL     OW17774   1.233   9.464   7.123
38626SOL    HW117775   1.188   9.394   7.170
38626SOL    HW217776   1.276   9.516   7.192
38627SOL     OW17777   0.019   7.319  11.728
38627SOL    HW117778   0.109   7.322  11.760
38627SOL    HW217779   0.000   7.226  11.716
38628SOL     OW17780  12.967  14.319   9.298
38628SOL    HW117781  12.956  14.227   9.272
38628SOL    HW217782  12.892  14.336   9.356
38629SOL     OW17783   7.052  10.112   2.360
38629SOL    HW117784   6.979  10.159   2.399
38629SOL    HW217785   7.025  10.021   2.359
38630SOL     OW17786  10.507   4.391   9.646
38630SOL    HW117787  10.460   4.464   9.605
38630SOL    HW217788  10.503   4.321   9.582
38631SOL     OW17789   8.305  13.457   4.046
38631SOL    HW117790   8.334  13.373   4.079
38631SOL    HW217791   8.343  13.462   3.958
38632SOL     OW17792  10.793   5.517   1.705
38632SOL    HW117793  10.819   5.604   1.673
38632SOL    HW217794  10.876   5.473   1.724
38633SOL     OW17795   8.040  11.840   6.883
38633SOL    HW117796   8.002  11.909   6.938
38633SOL    HW217797   7.975  11.770   6.884
38634SOL     OW17798   2.238   1.179   5.705
38634SOL    HW117799   2.163   1.148   5.654
38634SOL    HW217800   2.216   1.158   5.795
38635SOL     OW17801  13.554  12.639   6.518
38635SOL    HW117802  13.515  12.578   6.581
38635SOL    HW217803  13.593  12.708   6.573
38636SOL     OW17804   0.304   3.337  14.432
38636SOL    HW117805   0.318   3.390  14.354
38636SOL    HW217806   0.257   3.395  14.492
38637SOL     OW17807   1.277  12.856  10.920
38637SOL    HW117808   1.255  12.831  11.010
38637SOL    HW217809   1.369  12.885  10.925
38638SOL     OW17810   5.322  14.150   6.677
38638SOL    HW117811   5.271  14.120   6.752
38638SOL    HW217812   5.277  14.113   6.601
38639SOL     OW17813   1.515   0.161   0.765
38639SOL    HW117814   1.498   0.090   0.827
38639SOL    HW217815   1.610   0.160   0.754
38640SOL     OW17816   9.678  12.946   0.430
38640SOL    HW117817   9.749  12.965   0.369
38640SOL    HW217818   9.598  12.967   0.381
38641SOL     OW17819   4.245   8.809   8.478
38641SOL    HW117820   4.245   8.715   8.492
38641SOL    HW217821   4.165   8.826   8.429
38642SOL     OW17822   1.061   7.908   1.506
38642SOL    HW117823   1.021   7.913   1.593
38642SOL    HW217824   1.085   7.998   1.485
38643SOL     OW17825   5.668   3.922   8.484
38643SOL    HW117826   5.623   3.991   8.435
38643SOL    HW217827   5.713   3.870   8.416
38644SOL     OW17828  13.758   4.694   8.189
38644SOL    HW117829  13.687   4.663   8.132
38644SOL    HW217830  13.808   4.754   8.134
38645SOL     OW17831   6.671   8.207   0.528
38645SOL    HW117832   6.701   8.155   0.602
38645SOL    HW217833   6.728   8.182   0.455
38646SOL     OW17834   3.522   3.307   9.988
38646SOL    HW117835   3.508   3.324  10.081
38646SOL    HW217836   3.595   3.244   9.986
38647SOL     OW17837  10.770   2.558   9.840
38647SOL    HW117838  10.851   2.588   9.882
38647SOL    HW217839  10.796   2.535   9.751
38648SOL     OW17840   8.309  10.536   7.502
38648SOL    HW117841   8.298  10.441   7.503
38648SOL    HW217842   8.231  10.568   7.456
38649SOL     OW17843  14.495   0.534  10.669
38649SOL    HW117844  14.534   0.484  10.740
38649SOL    HW217845  14.431   0.591  10.712
38650SOL     OW17846   4.019  12.368   1.051
38650SOL    HW117847   3.929  12.344   1.074
38650SOL    HW217848   4.009  12.425   0.975
38651SOL     OW17849  10.477   3.957  11.177
38651SOL    HW117850  10.386   3.941  11.153
38651SOL    HW217851  10.471   4.010  11.257
38652SOL     OW17852  12.165   1.861  14.520
38652SOL    HW117853  12.254   1.835  14.545
38652SOL    HW217854  12.175   1.900  14.434
38653SOL     OW17855  13.448  11.599   3.101
38653SOL    HW117856  13.503  11.542   3.048
38653SOL    HW217857  13.358  11.574   3.079
38654SOL     OW17858   9.754   0.208   2.408
38654SOL    HW117859   9.686   0.273   2.394
38654SOL    HW217860   9.793   0.232   2.492
38655SOL     OW17861   1.465   9.796  11.173
38655SOL    HW117862   1.393   9.736  11.189
38655SOL    HW217863   1.424   9.881  11.158
38656SOL     OW17864   8.706   2.169   4.745
38656SOL    HW117865   8.631   2.228   4.741
38656SOL    HW217866   8.782   2.228   4.754
38657SOL     OW17867  13.738   3.531   7.660
38657SOL    HW117868  13.663   3.590   7.654
38657SOL    HW217869  13.785   3.543   7.577
38658SOL     OW17870   5.897  12.927  11.180
38658SOL    HW117871   5.914  12.882  11.097
38658SOL    HW217872   5.846  12.865  11.232
38659SOL     OW17873  13.525   3.722   6.710
38659SOL    HW117874  13.607   3.767   6.691
38659SOL    HW217875  13.541   3.632   6.683
38660SOL     OW17876   0.212   9.248  10.918
38660SOL    HW117877   0.225   9.332  10.875
38660SOL    HW217878   0.297   9.203  10.910
38661SOL     OW17879  12.547   6.833  13.574
38661SOL    HW117880  12.625   6.887  13.590
38661SOL    HW217881  12.475   6.896  13.577
38662SOL     OW17882   4.766   1.432  11.709
38662SOL    HW117883   4.713   1.368  11.661
38662SOL    HW217884   4.766   1.510  11.653
38663SOL     OW17885  10.595   6.151   4.393
38663SOL    HW117886  10.539   6.186   4.461
38663SOL    HW217887  10.647   6.226   4.364
38664SOL     OW17888   4.921   2.947   7.344
38664SOL    HW117889   4.994   2.947   7.282
38664SOL    HW217890   4.932   3.027   7.395
38665SOL     OW17891   3.741  12.409  10.332
38665SOL    HW117892   3.687  12.488  10.329
38665SOL    HW217893   3.825  12.437  10.295
38666SOL     OW17894   0.568   6.062  14.362
38666SOL    HW117895   0.629   5.993  14.337
38666SOL    HW217896   0.482   6.021  14.358
38667SOL     OW17897   5.663  13.843   2.907
38667SOL    HW117898   5.568  13.842   2.902
38667SOL    HW217899   5.692  13.825   2.818
38668SOL     OW17900   0.487   5.810   8.692
38668SOL    HW117901   0.479   5.715   8.704
38668SOL    HW217902   0.522   5.842   8.775
38669SOL     OW17903   1.982   6.868  10.367
38669SOL    HW117904   1.979   6.839  10.276
38669SOL    HW217905   2.059   6.926  10.371
38670SOL     OW17906   3.700  13.705  13.409
38670SOL    HW117907   3.715  13.622  13.365
38670SOL    HW217908   3.668  13.681  13.496
38671SOL     OW17909  10.769   9.658   6.968
38671SOL    HW117910  10.700   9.698   7.020
38671SOL    HW217911  10.722   9.607   6.902
38672SOL     OW17912   9.722  14.778  11.218
38672SOL    HW117913   9.778  14.778  11.140
38672SOL    HW217914   9.747  14.699  11.266
38673SOL     OW17915  10.506  10.401  10.400
38673SOL    HW117916  10.428  10.364  10.358
38673SOL    HW217917  10.475  10.429  10.486
38674SOL     OW17918  12.421   6.597  10.938
38674SOL    HW117919  12.421   6.644  10.854
38674SOL    HW217920  12.499   6.630  10.984
38675SOL     OW17921   7.754  11.104  14.282
38675SOL    HW117922   7.710  11.172  14.332
38675SOL    HW217923   7.691  11.080  14.214
38676SOL     OW17924   5.978   4.596   4.935
38676SOL    HW117925   6.001   4.671   4.991
38676SOL    HW217926   5.910   4.550   4.985
38677SOL     OW17927  11.102   6.286   8.751
38677SOL    HW117928  11.065   6.202   8.779
38677SOL    HW217929  11.102   6.340   8.831
38678SOL     OW17930   8.013  10.728   0.895
38678SOL    HW117931   7.941  10.711   0.835
38678SOL    HW217932   8.087  10.752   0.838
38679SOL     OW17933   5.551   3.547   1.527
38679SOL    HW117934   5.522   3.594   1.449
38679SOL    HW217935   5.575   3.616   1.589
38680SOL     OW17936   6.232  10.845  11.425
38680SOL    HW117937   6.256  10.777  11.488
38680SOL    HW217938   6.268  10.926  11.461
38681SOL     OW17939   3.095   7.667  13.728
38681SOL    HW117940   3.151   7.728  13.681
38681SOL    HW217941   3.035   7.723  13.778
38682SOL     OW17942   7.749   1.144   8.535
38682SOL    HW117943   7.777   1.057   8.561
38682SOL    HW217944   7.803   1.204   8.587
38683SOL     OW17945   2.031   3.317   1.774
38683SOL    HW117946   2.029   3.407   1.807
38683SOL    HW217947   2.051   3.326   1.681
38684SOL     OW17948  11.347   8.635   5.198
38684SOL    HW117949  11.265   8.587   5.189
38684SOL    HW217950  11.337   8.685   5.279
38685SOL     OW17951   4.924   4.248  10.383
38685SOL    HW117952   4.977   4.187  10.330
38685SOL    HW217953   4.873   4.191  10.440
38686SOL     OW17954  11.640   7.667   2.260
38686SOL    HW117955  11.645   7.649   2.167
38686SOL    HW217956  11.573   7.607   2.293
38687SOL     OW17957   8.720   7.375   5.429
38687SOL    HW117958   8.789   7.356   5.493
38687SOL    HW217959   8.703   7.469   5.439
38688SOL     OW17960   8.929   1.203   3.967
38688SOL    HW117961   8.903   1.275   3.910
38688SOL    HW217962   8.992   1.153   3.916
38689SOL     OW17963   9.940  12.714   2.944
38689SOL    HW117964   9.861  12.760   2.973
38689SOL    HW217965   9.922  12.622   2.961
38690SOL     OW17966   9.004   1.315   7.794
38690SOL    HW117967   8.930   1.352   7.842
38690SOL    HW217968   9.060   1.276   7.861
38691SOL     OW17969  10.692  10.597   3.634
38691SOL    HW117970  10.706  10.575   3.541
38691SOL    HW217971  10.638  10.676   3.632
38692SOL     OW17972   1.622   3.661   8.198
38692SOL    HW117973   1.674   3.740   8.185
38692SOL    HW217974   1.533   3.686   8.175
38693SOL     OW17975   2.476   3.202   5.149
38693SOL    HW117976   2.542   3.269   5.129
38693SOL    HW217977   2.518   3.145   5.213
38694SOL     OW17978  14.538  13.399   7.694
38694SOL    HW117979  14.611  13.462   7.698
38694SOL    HW217980  14.492  13.423   7.613
38695SOL     OW17981   6.325   7.864   8.949
38695SOL    HW117982   6.261   7.795   8.968
38695SOL    HW217983   6.342   7.856   8.856
38696SOL     OW17984   4.676   4.394   8.597
38696SOL    HW117985   4.610   4.362   8.658
38696SOL    HW217986   4.663   4.489   8.594
38697SOL     OW17987  14.229  11.959   1.764
38697SOL    HW117988  14.188  12.031   1.716
38697SOL    HW217989  14.225  11.985   1.856
38698SOL     OW17990   9.417  11.384   8.792
38698SOL    HW117991   9.432  11.384   8.698
38698SOL    HW217992   9.354  11.313   8.807
38699SOL     OW17993   2.591   0.671   1.871
38699SOL    HW117994   2.631   0.756   1.890
38699SOL    HW217995   2.534   0.687   1.796
38700SOL     OW17996  14.297  12.930   3.820
38700SOL    HW117997  14.253  12.870   3.880
38700SOL    HW217998  14.368  12.878   3.783
38701SOL     OW17999  11.610  10.888   9.026
38701SOL    HW118000  11.524  10.927   9.010
38701SOL    HW218001  11.663  10.915   8.951
38702SOL     OW18002   9.919  13.776  12.194
38702SOL    HW118003   9.832  13.765  12.157
38702SOL    HW218004   9.906  13.826  12.274
38703SOL     OW18005   5.697   8.702   1.937
38703SOL    HW118006   5.679   8.608   1.943
38703SOL    HW218007   5.789   8.711   1.960
38704SOL     OW18008   7.792  10.000   1.999
38704SOL    HW118009   7.702   9.966   2.003
38704SOL    HW218010   7.807  10.040   2.084
38705SOL     OW18011   1.696   2.058  13.851
38705SOL    HW118012   1.772   2.050  13.793
38705SOL    HW218013   1.636   2.115  13.804
38706SOL     OW18014  10.836  14.727   5.250
38706SOL    HW118015  10.850  14.652   5.192
38706SOL    HW218016  10.911  14.784   5.233
38707SOL     OW18017  11.135   5.258   3.849
38707SOL    HW118018  11.067   5.323   3.868
38707SOL    HW218019  11.169   5.284   3.763
38708SOL     OW18020   9.558   1.878  14.517
38708SOL    HW118021   9.490   1.819  14.550
38708SOL    HW218022   9.602   1.911  14.596
38709SOL     OW18023   3.864   0.319  14.722
38709SOL    HW118024   3.818   0.334  14.640
38709SOL    HW218025   3.913   0.238  14.708
38710SOL     OW18026  12.065  13.669   8.145
38710SOL    HW118027  12.144  13.722   8.134
38710SOL    HW218028  12.057  13.621   8.062
38711SOL     OW18029   6.211  13.891   7.486
38711SOL    HW118030   6.303  13.912   7.500
38711SOL    HW218031   6.212  13.808   7.439
38712SOL     OW18032   4.228  10.093   1.672
38712SOL    HW118033   4.139  10.086   1.637
38712SOL    HW218034   4.285  10.070   1.598
38713SOL     OW18035  14.658   2.185   8.717
38713SOL    HW118036  14.632   2.266   8.761
38713SOL    HW218037  14.753   2.194   8.704
38714SOL     OW18038   4.578   4.839  14.399
38714SOL    HW118039   4.489   4.868  14.416
38714SOL    HW218040   4.597   4.868  14.310
38715SOL     OW18041  11.844  14.629  12.847
38715SOL    HW118042  11.770  14.625  12.908
38715SOL    HW218043  11.914  14.669  12.898
38716SOL     OW18044   4.019  11.920  11.980
38716SOL    HW118045   4.066  11.849  11.936
38716SOL    HW218046   4.002  11.984  11.910
38717SOL     OW18047  12.391   4.271  12.470
38717SOL    HW118048  12.355   4.192  12.430
38717SOL    HW218049  12.426   4.241  12.554
38718SOL     OW18050   0.266   1.636   4.197
38718SOL    HW118051   0.325   1.603   4.128
38718SOL    HW218052   0.318   1.630   4.277
38719SOL     OW18053   2.397   3.648   4.332
38719SOL    HW118054   2.391   3.554   4.347
38719SOL    HW218055   2.453   3.680   4.403
38720SOL     OW18056   8.025   2.967  13.361
38720SOL    HW118057   8.110   2.966  13.317
38720SOL    HW218058   8.045   2.958  13.454
38721SOL     OW18059  11.263   3.517  11.800
38721SOL    HW118060  11.204   3.487  11.869
38721SOL    HW218061  11.305   3.437  11.767
38722SOL     OW18062  14.206   8.025   6.432
38722SOL    HW118063  14.158   7.951   6.469
38722SOL    HW218064  14.162   8.102   6.467
38723SOL     OW18065   0.063   7.669  14.785
38723SOL    HW118066   0.033   7.639   0.002
38723SOL    HW218067  14.852   7.688  14.737
38724SOL     OW18068   5.573  13.130   4.523
38724SOL    HW118069   5.667  13.129   4.506
38724SOL    HW218070   5.535  13.175   4.447
38725SOL     OW18071   0.347   2.351   5.946
38725SOL    HW118072   0.385   2.322   5.862
38725SOL    HW218073   0.286   2.281   5.970
38726SOL     OW18074   1.552   3.292   5.818
38726SOL    HW118075   1.468   3.263   5.782
38726SOL    HW218076   1.613   3.222   5.795
38727SOL     OW18077   4.453   6.368   2.568
38727SOL    HW118078   4.533   6.315   2.561
38727SOL    HW218079   4.477   6.452   2.529
38728SOL     OW18080   5.046   2.542   2.800
38728SOL    HW118081   5.136   2.566   2.824
38728SOL    HW218082   5.051   2.517   2.708
38729SOL     OW18083  14.155  12.903  13.415
38729SOL    HW118084  14.072  12.938  13.449
38729SOL    HW218085  14.222  12.951  13.464
38730SOL     OW18086  13.322   7.464   2.598
38730SOL    HW118087  13.252   7.520   2.632
38730SOL    HW218088  13.368   7.518   2.534
38731SOL     OW18089  10.062   5.529   2.852
38731SOL    HW118090  10.042   5.575   2.933
38731SOL    HW218091   9.999   5.564   2.789
38732SOL     OW18092   3.813  12.587   8.407
38732SOL    HW118093   3.865  12.521   8.453
38732SOL    HW218094   3.865  12.667   8.413
38733SOL     OW18095   4.348  14.744   4.304
38733SOL    HW118096   4.355  14.704   4.391
38733SOL    HW218097   4.260  14.783   4.303
38734SOL     OW18098  11.166   0.072   4.729
38734SOL    HW118099  11.109   0.028   4.666
38734SOL    HW218100  11.106   0.115   4.790
38735SOL     OW18101  10.861   2.109   2.153
38735SOL    HW118102  10.777   2.095   2.196
38735SOL    HW218103  10.923   2.121   2.226
38736SOL     OW18104   8.853   9.154  12.344
38736SOL    HW118105   8.874   9.228  12.401
38736SOL    HW218106   8.936   9.132  12.302
38737SOL     OW18107   9.407   2.397  14.388
38737SOL    HW118108   9.362   2.378  14.305
38737SOL    HW218109   9.423   2.312  14.427
38738SOL     OW18110   1.964   0.914   8.287
38738SOL    HW118111   1.967   0.823   8.316
38738SOL    HW218112   1.871   0.937   8.293
38739SOL     OW18113   5.768  13.205  14.487
38739SOL    HW118114   5.719  13.232  14.409
38739SOL    HW218115   5.853  13.178  14.453
38740SOL     OW18116   7.932   8.140   4.782
38740SOL    HW118117   7.866   8.116   4.847
38740SOL    HW218118   7.969   8.222   4.815
38741SOL     OW18119  14.330   4.877   5.108
38741SOL    HW118120  14.318   4.918   5.194
38741SOL    HW218121  14.276   4.798   5.111
38742SOL     OW18122   1.410   0.514  10.624
38742SOL    HW118123   1.322   0.496  10.657
38742SOL    HW218124   1.467   0.455  10.674
38743SOL     OW18125   9.009   1.619  10.466
38743SOL    HW118126   8.967   1.589  10.546
38743SOL    HW218127   9.035   1.709  10.485
38744SOL     OW18128  10.723   8.930   2.792
38744SOL    HW118129  10.691   9.015   2.761
38744SOL    HW218130  10.646   8.887   2.828
38745SOL     OW18131   5.332  14.251  13.815
38745SOL    HW118132   5.238  14.250  13.798
38745SOL    HW218133   5.339  14.273  13.908
38746SOL     OW18134   4.575   9.510   0.376
38746SOL    HW118135   4.612   9.594   0.402
38746SOL    HW218136   4.647   9.465   0.332
38747SOL     OW18137   7.713   0.413   3.491
38747SOL    HW118138   7.709   0.391   3.584
38747SOL    HW218139   7.744   0.504   3.488
38748SOL     OW18140   3.156  12.725  11.049
38748SOL    HW118141   3.100  12.719  10.971
38748SOL    HW218142   3.155  12.818  11.071
38749SOL     OW18143  10.959   0.500  12.932
38749SOL    HW118144  10.973   0.454  13.014
38749SOL    HW218145  10.938   0.432  12.869
38750SOL     OW18146  10.960   3.436  13.458
38750SOL    HW118147  10.984   3.526  13.435
38750SOL    HW218148  10.938   3.396  13.374
38751SOL     OW18149   7.558  12.088   3.267
38751SOL    HW118150   7.516  12.019   3.216
38751SOL    HW218151   7.650  12.085   3.240
38752SOL     OW18152   5.013  11.487   0.550
38752SOL    HW118153   4.965  11.473   0.469
38752SOL    HW218154   4.967  11.435   0.615
38753SOL     OW18155  11.321  11.499   6.814
38753SOL    HW118156  11.241  11.497   6.763
38753SOL    HW218157  11.341  11.407   6.832
38754SOL     OW18158   2.083   7.387  12.629
38754SOL    HW118159   2.156   7.389  12.568
38754SOL    HW218160   2.117   7.338  12.705
38755SOL     OW18161   7.301  13.238   8.248
38755SOL    HW118162   7.327  13.183   8.173
38755SOL    HW218163   7.210  13.259   8.231
38756SOL     OW18164  14.347   0.249   8.508
38756SOL    HW118165  14.419   0.311   8.510
38756SOL    HW218166  14.268   0.304   8.508
38757SOL     OW18167  11.290   2.316   3.316
38757SOL    HW118168  11.238   2.387   3.278
38757SOL    HW218169  11.342   2.282   3.243
38758SOL     OW18170   4.196  12.573  13.573
38758SOL    HW118171   4.215  12.486  13.537
38758SOL    HW218172   4.265  12.588  13.637
38759SOL     OW18173   3.410   6.786  13.776
38759SOL    HW118174   3.326   6.741  13.781
38759SOL    HW218175   3.417   6.833  13.859
38760SOL     OW18176   3.872   6.876   2.620
38760SOL    HW118177   3.790   6.921   2.640
38760SOL    HW218178   3.868   6.796   2.673
38761SOL     OW18179   5.281   5.789  10.150
38761SOL    HW118180   5.266   5.880  10.176
38761SOL    HW218181   5.288   5.742  10.232
38762SOL     OW18182   6.353   8.847  10.189
38762SOL    HW118183   6.265   8.811  10.185
38762SOL    HW218184   6.401   8.800  10.121
38763SOL     OW18185  14.509  10.244   2.887
38763SOL    HW118186  14.447  10.293   2.833
38763SOL    HW218187  14.531  10.304   2.959
38764SOL     OW18188  13.116   8.492   4.000
38764SOL    HW118189  13.194   8.489   4.056
38764SOL    HW218190  13.146   8.535   3.920
38765SOL     OW18191  14.554   3.930  12.835
38765SOL    HW118192  14.585   3.867  12.771
38765SOL    HW218193  14.566   3.887  12.920
38766SOL     OW18194   0.125   3.458   1.686
38766SOL    HW118195   0.183   3.406   1.631
38766SOL    HW218196   0.066   3.502   1.624
38767SOL     OW18197  13.581   8.925  14.399
38767SOL    HW118198  13.580   8.846  14.345
38767SOL    HW218199  13.529   8.989  14.350
38768SOL     OW18200   6.585  10.677   2.819
38768SOL    HW118201   6.667  10.725   2.821
38768SOL    HW218202   6.595  10.609   2.886
38769SOL     OW18203   1.612   9.282   7.978
38769SOL    HW118204   1.700   9.289   8.015
38769SOL    HW218205   1.555   9.315   8.047
38770SOL     OW18206   1.017   0.052   7.635
38770SOL    HW118207   0.931   0.080   7.667
38770SOL    HW218208   1.072   0.130   7.644
38771SOL     OW18209   5.687   0.054   0.133
38771SOL    HW118210   5.757   0.119   0.140
38771SOL    HW218211   5.673   0.024   0.222
38772SOL     OW18212  13.172   1.440   7.882
38772SOL    HW118213  13.125   1.441   7.799
38772SOL    HW218214  13.231   1.365   7.875
38773SOL     OW18215  10.632   2.667   8.696
38773SOL    HW118216  10.662   2.576   8.700
38773SOL    HW218217  10.536   2.660   8.690
38774SOL     OW18218   8.680   0.512   5.235
38774SOL    HW118219   8.691   0.462   5.154
38774SOL    HW218220   8.600   0.562   5.222
38775SOL     OW18221  11.266   5.998   0.009
38775SOL    HW118222  11.216   6.062   0.059
38775SOL    HW218223  11.324   6.050  14.823
38776SOL     OW18224   0.936   7.438   1.646
38776SOL    HW118225   0.850   7.433   1.687
38776SOL    HW218226   0.953   7.532   1.638
38777SOL     OW18227   6.332   2.786  10.813
38777SOL    HW118228   6.367   2.714  10.866
38777SOL    HW218229   6.382   2.782  10.731
38778SOL     OW18230   4.364   8.848  11.894
38778SOL    HW118231   4.361   8.909  11.967
38778SOL    HW218232   4.331   8.897  11.819
38779SOL     OW18233   8.462   7.620   4.629
38779SOL    HW118234   8.529   7.551   4.636
38779SOL    HW218235   8.425   7.626   4.717
38780SOL     OW18236   9.334   1.938   2.258
38780SOL    HW118237   9.308   1.868   2.198
38780SOL    HW218238   9.285   2.014   2.228
38781SOL     OW18239   9.169   1.953   1.078
38781SOL    HW118240   9.192   2.045   1.082
38781SOL    HW218241   9.219   1.919   1.004
38782SOL     OW18242   7.897   5.590   6.308
38782SOL    HW118243   7.982   5.586   6.353
38782SOL    HW218244   7.834   5.565   6.375
38783SOL     OW18245   7.488   5.525   8.406
38783SOL    HW118246   7.411   5.576   8.383
38783SOL    HW218247   7.477   5.507   8.500
38784SOL     OW18248  11.437  10.032   0.562
38784SOL    HW118249  11.415  10.066   0.475
38784SOL    HW218250  11.353  10.026   0.608
38785SOL     OW18251  12.137   5.764  13.561
38785SOL    HW118252  12.202   5.705  13.522
38785SOL    HW218253  12.053   5.729  13.532
38786SOL     OW18254  14.658   2.765   1.538
38786SOL    HW118255  14.619   2.821   1.470
38786SOL    HW218256  14.728   2.818   1.576
38787SOL     OW18257   9.570   3.725   3.480
38787SOL    HW118258   9.507   3.665   3.442
38787SOL    HW218259   9.553   3.809   3.437
38788SOL     OW18260   6.708   0.521   0.368
38788SOL    HW118261   6.612   0.526   0.371
38788SOL    HW218262   6.733   0.483   0.452
38789SOL     OW18263   4.788  12.428  10.601
38789SOL    HW118264   4.883  12.428  10.606
38789SOL    HW218265   4.767  12.484  10.527
38790SOL     OW18266  14.477  10.474   5.745
38790SOL    HW118267  14.392  10.488   5.786
38790SOL    HW218268  14.478  10.380   5.726
38791SOL     OW18269   5.034  11.958   4.863
38791SOL    HW118270   4.946  11.944   4.897
38791SOL    HW218271   5.033  12.049   4.831
38792SOL     OW18272   9.738  14.773  14.758
38792SOL    HW118273   9.732  14.867  14.776
38792SOL    HW218274   9.828  14.750  14.779
38793SOL     OW18275   9.962  13.509  12.414
38793SOL    HW118276   9.870  13.504  12.440
38793SOL    HW218277   9.959  13.529  12.320
38794SOL     OW18278  11.603   4.712   8.074
38794SOL    HW118279  11.628   4.797   8.037
38794SOL    HW218280  11.630   4.648   8.009
38795SOL     OW18281  10.235   0.469   2.601
38795SOL    HW118282  10.207   0.393   2.550
38795SOL    HW218283  10.182   0.541   2.569
38796SOL     OW18284   9.367   5.050   4.804
38796SOL    HW118285   9.308   5.066   4.731
38796SOL    HW218286   9.420   5.130   4.810
38797SOL     OW18287   1.917   5.107   8.795
38797SOL    HW118288   1.871   5.027   8.769
38797SOL    HW218289   1.856   5.178   8.773
38798SOL     OW18290   1.001   0.199   6.355
38798SOL    HW118291   1.041   0.112   6.349
38798SOL    HW218292   0.921   0.185   6.405
38799SOL     OW18293  11.570  12.786   9.135
38799SOL    HW118294  11.543  12.732   9.060
38799SOL    HW218295  11.643  12.839   9.102
38800SOL     OW18296  13.926  13.187   1.396
38800SOL    HW118297  13.900  13.268   1.440
38800SOL    HW218298  14.007  13.208   1.350
38801SOL     OW18299  13.095   1.070   3.689
38801SOL    HW118300  13.147   1.110   3.619
38801SOL    HW218301  13.147   1.083   3.768
38802SOL     OW18302   9.668   9.146   8.974
38802SOL    HW118303   9.641   9.065   8.930
38802SOL    HW218304   9.664   9.213   8.906
38803SOL     OW18305   1.545   4.760   1.505
38803SOL    HW118306   1.484   4.782   1.435
38803SOL    HW218307   1.550   4.839   1.558
38804SOL     OW18308  12.399   9.796   1.148
38804SOL    HW118309  12.444   9.744   1.081
38804SOL    HW218310  12.430   9.885   1.135
38805SOL     OW18311   8.590  10.492  11.826
38805SOL    HW118312   8.681  10.468  11.847
38805SOL    HW218313   8.557  10.416  11.778
38806SOL     OW18314   8.785   7.655   0.146
38806SOL    HW118315   8.707   7.678   0.195
38806SOL    HW218316   8.855   7.655   0.211
38807SOL     OW18317   6.345   9.284   1.508
38807SOL    HW118318   6.285   9.223   1.553
38807SOL    HW218319   6.293   9.363   1.495
38808SOL     OW18320  13.702   4.796   4.613
38808SOL    HW118321  13.660   4.720   4.573
38808SOL    HW218322  13.635   4.834   4.669
38809SOL     OW18323  11.259   4.860   5.658
38809SOL    HW118324  11.223   4.928   5.601
38809SOL    HW218325  11.276   4.786   5.599
38810SOL     OW18326  12.024  14.111   8.794
38810SOL    HW118327  12.060  14.025   8.775
38810SOL    HW218328  11.929  14.098   8.798
38811SOL     OW18329  14.016   1.284   5.050
38811SOL    HW118330  13.970   1.253   4.972
38811SOL    HW218331  13.949   1.325   5.104
38812SOL     OW18332   1.706   0.426   5.027
38812SOL    HW118333   1.665   0.492   5.083
38812SOL    HW218334   1.719   0.351   5.085
38813SOL     OW18335   5.486   6.210   1.033
38813SOL    HW118336   5.562   6.259   1.064
38813SOL    HW218337   5.411   6.253   1.076
38814SOL     OW18338   0.831   1.735   3.206
38814SOL    HW118339   0.859   1.733   3.298
38814SOL    HW218340   0.868   1.656   3.168
38815SOL     OW18341   3.691  11.361  10.780
38815SOL    HW118342   3.705  11.277  10.823
38815SOL    HW218343   3.777  11.382  10.741
38816SOL     OW18344   4.641   2.001  13.147
38816SOL    HW118345   4.676   2.038  13.228
38816SOL    HW218346   4.614   2.077  13.095
38817SOL     OW18347  10.560  10.593   7.896
38817SOL    HW118348  10.587  10.514   7.849
38817SOL    HW218349  10.476  10.617   7.855
38818SOL     OW18350   4.119  14.342  12.848
38818SOL    HW118351   4.096  14.253  12.821
38818SOL    HW218352   4.212  14.338  12.867
38819SOL     OW18353   0.622   8.516  14.861
38819SOL    HW118354   0.610   8.485  14.772
38819SOL    HW218355   0.694   8.579  14.855
38820SOL     OW18356   5.904  13.313   9.767
38820SOL    HW118357   5.976  13.310   9.704
38820SOL    HW218358   5.834  13.263   9.725
38821SOL     OW18359   6.197   8.150   6.970
38821SOL    HW118360   6.202   8.095   7.049
38821SOL    HW218361   6.199   8.240   7.004
38822SOL     OW18362   6.093   1.358   2.319
38822SOL    HW118363   6.023   1.383   2.259
38822SOL    HW218364   6.077   1.266   2.338
38823SOL     OW18365   5.960   9.201  14.053
38823SOL    HW118366   5.944   9.259  13.978
38823SOL    HW218367   5.892   9.135  14.048
38824SOL     OW18368   5.422  13.390   9.251
38824SOL    HW118369   5.433  13.318   9.314
38824SOL    HW218370   5.504  13.391   9.202
38825SOL     OW18371   9.883  10.197   7.196
38825SOL    HW118372   9.876  10.117   7.143
38825SOL    HW218373   9.951  10.248   7.153
38826SOL     OW18374   4.060   2.785  12.792
38826SOL    HW118375   4.001   2.726  12.745
38826SOL    HW218376   4.112   2.827  12.722
38827SOL     OW18377  13.294   1.746   5.847
38827SOL    HW118378  13.204   1.715   5.838
38827SOL    HW218379  13.309   1.798   5.769
38828SOL     OW18380   0.545  14.591  13.859
38828SOL    HW118381   0.508  14.675  13.830
38828SOL    HW218382   0.574  14.549  13.778
38829SOL     OW18383   6.955   3.275   5.146
38829SOL    HW118384   7.008   3.353   5.131
38829SOL    HW218385   6.960   3.227   5.064
38830SOL     OW18386  14.539  14.040  13.294
38830SOL    HW118387  14.590  13.963  13.267
38830SOL    HW218388  14.604  14.100  13.331
38831SOL     OW18389   4.416   0.511   1.564
38831SOL    HW118390   4.353   0.578   1.538
38831SOL    HW218391   4.476   0.556   1.624
38832SOL     OW18392  10.006   2.363   7.516
38832SOL    HW118393   9.981   2.435   7.459
38832SOL    HW218394   9.941   2.365   7.587
38833SOL     OW18395  13.535  13.496   3.421
38833SOL    HW118396  13.496  13.470   3.505
38833SOL    HW218397  13.543  13.592   3.427
38834SOL     OW18398   5.270  13.054   2.834
38834SOL    HW118399   5.202  13.080   2.896
38834SOL    HW218400   5.342  13.116   2.849
38835SOL     OW18401  11.819  11.920   4.056
38835SOL    HW118402  11.841  11.854   4.121
38835SOL    HW218403  11.904  11.946   4.019
38836SOL     OW18404   0.798   4.330  12.898
38836SOL    HW118405   0.803   4.241  12.932
38836SOL    HW218406   0.879   4.371  12.928
38837SOL     OW18407  13.508  11.040  11.040
38837SOL    HW118408  13.590  11.087  11.024
38837SOL    HW218409  13.498  10.983  10.964
38838SOL     OW18410   2.303   9.356   5.849
38838SOL    HW118411   2.240   9.404   5.903
38838SOL    HW218412   2.388   9.374   5.888
38839SOL     OW18413  10.230   1.523   5.664
38839SOL    HW118414  10.266   1.585   5.601
38839SOL    HW218415  10.306   1.489   5.711
38840SOL     OW18416  11.920  12.789   6.124
38840SOL    HW118417  11.940  12.883   6.126
38840SOL    HW218418  11.941  12.762   6.035
38841SOL     OW18419   1.465  14.706   4.499
38841SOL    HW118420   1.474  14.611   4.487
38841SOL    HW218421   1.554  14.739   4.501
38842SOL     OW18422   4.644  13.334   3.858
38842SOL    HW118423   4.717  13.312   3.916
38842SOL    HW218424   4.591  13.396   3.908
38843SOL     OW18425   1.143  12.678  13.496
38843SOL    HW118426   1.149  12.748  13.561
38843SOL    HW218427   1.063  12.631  13.520
38844SOL     OW18428  11.434   5.658   6.106
38844SOL    HW118429  11.403   5.727   6.048
38844SOL    HW218430  11.362   5.645   6.168
38845SOL     OW18431   2.855   5.379  10.996
38845SOL    HW118432   2.850   5.287  11.022
38845SOL    HW218433   2.791   5.424  11.051
38846SOL     OW18434  13.229   6.278   4.936
38846SOL    HW118435  13.226   6.349   4.872
38846SOL    HW218436  13.312   6.233   4.917
38847SOL     OW18437  13.238   3.789   0.147
38847SOL    HW118438  13.151   3.815   0.118
38847SOL    HW218439  13.224   3.748   0.232
38848SOL     OW18440  12.886   1.223  11.411
38848SOL    HW118441  12.846   1.214  11.324
38848SOL    HW218442  12.978   1.238  11.393
38849SOL     OW18443  11.561  10.250   5.048
38849SOL    HW118444  11.472  10.254   5.014
38849SOL    HW218445  11.595  10.166   5.017
38850SOL     OW18446  12.984   6.258   9.840
38850SOL    HW118447  13.001   6.318   9.913
38850SOL    HW218448  13.023   6.175   9.868
38851SOL     OW18449   6.992   9.054   7.233
38851SOL    HW118450   6.932   9.098   7.293
38851SOL    HW218451   6.999   8.965   7.267
38852SOL     OW18452   0.300  13.201  12.388
38852SOL    HW118453   0.212  13.168  12.371
38852SOL    HW218454   0.286  13.290  12.422
38853SOL     OW18455   8.609   8.961  10.770
38853SOL    HW118456   8.574   8.956  10.859
38853SOL    HW218457   8.668   9.037  10.771
38854SOL     OW18458   5.414   0.870  14.825
38854SOL    HW118459   5.414   0.917   0.039
38854SOL    HW218460   5.403   0.778  14.849
38855SOL     OW18461   1.710   9.537  12.687
38855SOL    HW118462   1.622   9.502  12.701
38855SOL    HW218463   1.719   9.543  12.592
38856SOL     OW18464  12.362  10.778   7.859
38856SOL    HW118465  12.380  10.861   7.903
38856SOL    HW218466  12.414  10.714   7.908
38857SOL     OW18467  11.952   9.970  14.620
38857SOL    HW118468  11.921  10.006  14.703
38857SOL    HW218469  12.007   9.896  14.646
38858SOL     OW18470   1.661   9.760   2.767
38858SOL    HW118471   1.660   9.737   2.674
38858SOL    HW218472   1.601   9.698   2.807
38859SOL     OW18473   5.955  10.319   6.750
38859SOL    HW118474   5.917  10.244   6.704
38859SOL    HW218475   6.030  10.283   6.797
38860SOL     OW18476  12.870   9.600   6.818
38860SOL    HW118477  12.818   9.632   6.744
38860SOL    HW218478  12.816   9.618   6.895
38861SOL     OW18479   6.663   5.617   3.842
38861SOL    HW118480   6.673   5.522   3.834
38861SOL    HW218481   6.683   5.651   3.755
38862SOL     OW18482  11.472   4.741  11.604
38862SOL    HW118483  11.414   4.816  11.589
38862SOL    HW218484  11.512   4.758  11.689
38863SOL     OW18485   3.633   4.556  14.097
38863SOL    HW118486   3.566   4.548  14.166
38863SOL    HW218487   3.590   4.607  14.029
38864SOL     OW18488   6.274   9.494   9.459
38864SOL    HW118489   6.313   9.533   9.537
38864SOL    HW218490   6.198   9.549   9.439
38865SOL     OW18491   4.660   7.314  14.681
38865SOL    HW118492   4.669   7.399  14.725
38865SOL    HW218493   4.744   7.301  14.637
38866SOL     OW18494  13.071   7.400   6.973
38866SOL    HW118495  13.106   7.370   7.057
38866SOL    HW218496  13.145   7.396   6.913
38867SOL     OW18497   6.981   6.216   9.292
38867SOL    HW118498   6.902   6.230   9.240
38867SOL    HW218499   7.005   6.125   9.274
38868SOL     OW18500  13.910  11.506   5.024
38868SOL    HW118501  13.951  11.552   4.951
38868SOL    HW218502  13.847  11.568   5.059
38869SOL     OW18503  14.832   3.047   6.903
38869SOL    HW118504   0.018   3.011   6.834
38869SOL    HW218505  14.749   3.068   6.858
38870SOL     OW18506  13.711   1.164  13.343
38870SOL    HW118507  13.745   1.247  13.375
38870SOL    HW218508  13.621   1.183  13.318
38871SOL     OW18509   5.598   6.498  11.306
38871SOL    HW118510   5.611   6.406  11.285
38871SOL    HW218511   5.641   6.545  11.235
38872SOL     OW18512   4.621   6.681  11.626
38872SOL    HW118513   4.534   6.720  11.623
38872SOL    HW218514   4.652   6.685  11.535
38873SOL     OW18515   6.161  13.175   6.228
38873SOL    HW118516   6.255  13.162   6.236
38873SOL    HW218517   6.139  13.134   6.144
38874SOL     OW18518   8.250  13.719   6.659
38874SOL    HW118519   8.243  13.699   6.566
38874SOL    HW218520   8.334  13.681   6.686
38875SOL     OW18521   3.414  10.128  10.111
38875SOL    HW118522   3.503  10.110  10.082
38875SOL    HW218523   3.359  10.069  10.058
38876SOL     OW18524   3.007  12.524   4.870
38876SOL    HW118525   3.085  12.579   4.864
38876SOL    HW218526   2.967  12.528   4.783
38877SOL     OW18527   7.301   8.450  13.092
38877SOL    HW118528   7.334   8.434  13.004
38877SOL    HW218529   7.243   8.375  13.110
38878SOL     OW18530   7.648  13.354   9.707
38878SOL    HW118531   7.734  13.368   9.745
38878SOL    HW218532   7.630  13.434   9.657
38879SOL     OW18533   6.422  13.749  11.019
38879SOL    HW118534   6.516  13.733  11.014
38879SOL    HW218535   6.398  13.726  11.109
38880SOL     OW18536   8.066  12.105   6.535
38880SOL    HW118537   8.020  12.151   6.465
38880SOL    HW218538   8.024  12.134   6.615
38881SOL     OW18539   4.994  13.790  12.614
38881SOL    HW118540   5.013  13.821  12.702
38881SOL    HW218541   4.907  13.824  12.595
38882SOL     OW18542   4.512   1.297   0.604
38882SOL    HW118543   4.467   1.381   0.600
38882SOL    HW218544   4.533   1.277   0.512
38883SOL     OW18545   2.568   7.887   1.689
38883SOL    HW118546   2.593   7.828   1.759
38883SOL    HW218547   2.593   7.974   1.720
38884SOL     OW18548   1.028   0.832  10.465
38884SOL    HW118549   1.003   0.869  10.550
38884SOL    HW218550   1.056   0.742  10.486
38885SOL     OW18551   4.427  12.856   7.548
38885SOL    HW118552   4.395  12.838   7.636
38885SOL    HW218553   4.347  12.863   7.495
38886SOL     OW18554   1.387   6.088  11.682
38886SOL    HW118555   1.380   6.157  11.616
38886SOL    HW218556   1.303   6.043  11.678
38887SOL     OW18557   4.627   8.900   7.122
38887SOL    HW118558   4.554   8.955   7.152
38887SOL    HW218559   4.585   8.830   7.072
38888SOL     OW18560  13.178   4.646   0.238
38888SOL    HW118561  13.238   4.702   0.288
38888SOL    HW218562  13.225   4.563   0.229
38889SOL     OW18563   5.270  10.723  14.199
38889SOL    HW118564   5.360  10.744  14.173
38889SOL    HW218565   5.277  10.636  14.239
38890SOL     OW18566   6.121  12.692   6.537
38890SOL    HW118567   6.062  12.767   6.532
38890SOL    HW218568   6.071  12.620   6.498
38891SOL     OW18569   8.947   4.386   7.530
38891SOL    HW118570   8.990   4.306   7.501
38891SOL    HW218571   8.946   4.379   7.625
38892SOL     OW18572   4.199   3.866  14.465
38892SOL    HW118573   4.172   3.843  14.554
38892SOL    HW218574   4.119   3.899  14.424
38893SOL     OW18575   4.462   9.871   9.696
38893SOL    HW118576   4.506   9.952   9.669
38893SOL    HW218577   4.533   9.813   9.722
38894SOL     OW18578  11.546   9.824  13.658
38894SOL    HW118579  11.551   9.746  13.714
38894SOL    HW218580  11.576   9.794  13.573
38895SOL     OW18581   7.790   2.027  13.138
38895SOL    HW118582   7.828   1.953  13.185
38895SOL    HW218583   7.723   2.061  13.196
38896SOL     OW18584  12.850  13.699   6.654
38896SOL    HW118585  12.920  13.635   6.662
38896SOL    HW218586  12.840  13.735   6.743
38897SOL     OW18587  14.275   1.224   3.694
38897SOL    HW118588  14.370   1.224   3.705
38897SOL    HW218589  14.240   1.210   3.783
38898SOL     OW18590  13.921   8.048   8.127
38898SOL    HW118591  14.015   8.042   8.146
38898SOL    HW218592  13.879   8.030   8.211
38899SOL     OW18593   4.846  13.143  14.809
38899SOL    HW118594   4.834  13.136   0.034
38899SOL    HW218595   4.829  13.235  14.790
38900SOL     OW18596   0.070   3.510   7.255
38900SOL    HW118597   0.116   3.580   7.208
38900SOL    HW218598   0.065   3.439   7.192
38901SOL     OW18599  13.502   7.824  13.125
38901SOL    HW118600  13.445   7.750  13.146
38901SOL    HW218601  13.459   7.900  13.165
38902SOL     OW18602   5.170  13.490   3.334
38902SOL    HW118603   5.097  13.488   3.396
38902SOL    HW218604   5.247  13.469   3.386
38903SOL     OW18605   0.518   3.918   0.215
38903SOL    HW118606   0.507   3.994   0.157
38903SOL    HW218607   0.552   3.849   0.157
38904SOL     OW18608  12.726  12.628   7.292
38904SOL    HW118609  12.662  12.696   7.276
38904SOL    HW218610  12.803  12.674   7.325
38905SOL     OW18611   0.688  10.090  13.473
38905SOL    HW118612   0.760  10.124  13.420
38905SOL    HW218613   0.677  10.000  13.442
38906SOL     OW18614   3.774  10.644   8.154
38906SOL    HW118615   3.787  10.600   8.238
38906SOL    HW218616   3.805  10.733   8.169
38907SOL     OW18617  10.001   3.537   2.607
38907SOL    HW118618  10.020   3.444   2.601
38907SOL    HW218619   9.968   3.549   2.696
38908SOL     OW18620   7.325   7.297   0.583
38908SOL    HW118621   7.279   7.229   0.632
38908SOL    HW218622   7.257   7.345   0.538
38909SOL     OW18623  11.500  13.287   5.598
38909SOL    HW118624  11.573  13.228   5.617
38909SOL    HW218625  11.460  13.251   5.519
38910SOL     OW18626   6.132   5.823   8.758
38910SOL    HW118627   6.148   5.812   8.852
38910SOL    HW218628   6.107   5.915   8.749
38911SOL     OW18629  14.178   1.351   8.686
38911SOL    HW118630  14.227   1.432   8.670
38911SOL    HW218631  14.154   1.319   8.599
38912SOL     OW18632  11.776  10.596   6.319
38912SOL    HW118633  11.726  10.621   6.397
38912SOL    HW218634  11.716  10.611   6.246
38913SOL     OW18635   4.230  12.099   4.961
38913SOL    HW118636   4.248  12.192   4.972
38913SOL    HW218637   4.304  12.066   4.909
38914SOL     OW18638  12.879   1.142  10.067
38914SOL    HW118639  12.921   1.066  10.027
38914SOL    HW218640  12.869   1.204   9.995
38915SOL     OW18641   8.575   1.779  13.660
38915SOL    HW118642   8.542   1.781  13.750
38915SOL    HW218643   8.568   1.688  13.633
38916SOL     OW18644   0.303   9.745   5.482
38916SOL    HW118645   0.220   9.707   5.512
38916SOL    HW218646   0.283   9.837   5.468
38917SOL     OW18647   7.781   4.427  11.757
38917SOL    HW118648   7.790   4.339  11.719
38917SOL    HW218649   7.799   4.486  11.684
38918SOL     OW18650   0.367   0.162   4.882
38918SOL    HW118651   0.393   0.254   4.874
38918SOL    HW218652   0.408   0.120   4.806
38919SOL     OW18653  11.130   6.459  10.894
38919SOL    HW118654  11.191   6.408  10.947
38919SOL    HW218655  11.087   6.394  10.838
38920SOL     OW18656   5.679   1.404   4.190
38920SOL    HW118657   5.601   1.399   4.135
38920SOL    HW218658   5.749   1.366   4.136
38921SOL     OW18659  11.576  14.070   4.600
38921SOL    HW118660  11.591  13.988   4.553
38921SOL    HW218661  11.632  14.134   4.555
38922SOL     OW18662   4.503   8.396   8.780
38922SOL    HW118663   4.497   8.315   8.730
38922SOL    HW218664   4.419   8.401   8.827
38923SOL     OW18665   9.561   9.996  13.720
38923SOL    HW118666   9.545  10.003  13.815
38923SOL    HW218667   9.520  10.075  13.684
38924SOL     OW18668  14.833   0.612   2.307
38924SOL    HW118669  14.864   0.674   2.373
38924SOL    HW218670  14.767   0.560   2.353
38925SOL     OW18671  11.478   1.109   1.443
38925SOL    HW118672  11.571   1.090   1.428
38925SOL    HW218673  11.479   1.188   1.498
38926SOL     OW18674  11.386   5.188   8.431
38926SOL    HW118675  11.373   5.165   8.339
38926SOL    HW218676  11.382   5.105   8.478
38927SOL     OW18677   0.253  11.928   1.819
38927SOL    HW118678   0.217  11.854   1.868
38927SOL    HW218679   0.190  11.943   1.749
38928SOL     OW18680   8.772  13.814  12.507
38928SOL    HW118681   8.707  13.780  12.568
38928SOL    HW218682   8.747  13.777  12.422
38929SOL     OW18683   1.145   3.618   8.429
38929SOL    HW118684   1.168   3.525   8.436
38929SOL    HW218685   1.174   3.656   8.512
38930SOL     OW18686   8.683   8.774   1.774
38930SOL    HW118687   8.601   8.750   1.730
38930SOL    HW218688   8.736   8.695   1.771
38931SOL     OW18689   4.252   5.215  11.662
38931SOL    HW118690   4.166   5.199  11.701
38931SOL    HW218691   4.269   5.308  11.679
38932SOL     OW18692   9.988   8.235   4.111
38932SOL    HW118693   9.989   8.240   4.207
38932SOL    HW218694  10.077   8.258   4.085
38933SOL     OW18695  12.281  14.821   0.631
38933SOL    HW118696  12.202  14.807   0.683
38933SOL    HW218697  12.286  14.744   0.573
38934SOL     OW18698   5.048  12.442  14.231
38934SOL    HW118699   5.072  12.454  14.139
38934SOL    HW218700   5.082  12.356  14.254
38935SOL     OW18701   7.029   6.368  12.436
38935SOL    HW118702   7.105   6.331  12.480
38935SOL    HW218703   7.011   6.307  12.364
38936SOL     OW18704   7.054   8.602  13.829
38936SOL    HW118705   7.070   8.650  13.911
38936SOL    HW218706   6.995   8.531  13.854
38937SOL     OW18707   0.969  13.434   8.329
38937SOL    HW118708   1.018  13.362   8.367
38937SOL    HW218709   0.917  13.469   8.402
38938SOL     OW18710  12.054   4.106   0.320
38938SOL    HW118711  12.097   4.186   0.352
38938SOL    HW218712  11.981   4.093   0.381
38939SOL     OW18713   1.352   2.170   3.894
38939SOL    HW118714   1.276   2.221   3.865
38939SOL    HW218715   1.425   2.208   3.844
38940SOL     OW18716   6.349  13.243   2.287
38940SOL    HW118717   6.331  13.149   2.296
38940SOL    HW218718   6.284  13.285   2.343
38941SOL     OW18719   8.093   0.289   7.672
38941SOL    HW118720   8.088   0.376   7.711
38941SOL    HW218721   8.115   0.231   7.744
38942SOL     OW18722   3.718  10.575   7.126
38942SOL    HW118723   3.738  10.641   7.192
38942SOL    HW218724   3.800  10.561   7.080
38943SOL     OW18725  13.752   8.492   6.237
38943SOL    HW118726  13.755   8.452   6.324
38943SOL    HW218727  13.819   8.560   6.239
38944SOL     OW18728   8.579   1.721  10.887
38944SOL    HW118729   8.644   1.791  10.885
38944SOL    HW218730   8.628   1.642  10.909
38945SOL     OW18731   8.392   2.083   9.954
38945SOL    HW118732   8.471   2.055  10.000
38945SOL    HW218733   8.395   2.179   9.959
38946SOL     OW18734   3.738   5.799   4.132
38946SOL    HW118735   3.771   5.770   4.217
38946SOL    HW218736   3.809   5.851   4.094
38947SOL     OW18737   3.569  12.349  13.136
38947SOL    HW118738   3.531  12.330  13.223
38947SOL    HW218739   3.616  12.270  13.112
38948SOL     OW18740   8.441   3.867  14.138
38948SOL    HW118741   8.422   3.926  14.065
38948SOL    HW218742   8.477   3.924  14.206
38949SOL     OW18743  12.500   5.745   4.441
38949SOL    HW118744  12.492   5.650   4.438
38949SOL    HW218745  12.418   5.778   4.406
38950SOL     OW18746   7.976   6.678  12.523
38950SOL    HW118747   8.052   6.736  12.529
38950SOL    HW218748   7.993   6.609  12.588
38951SOL     OW18749   1.103   9.307   3.814
38951SOL    HW118750   1.077   9.232   3.868
38951SOL    HW218751   1.121   9.269   3.728
38952SOL     OW18752   5.229   3.945  10.012
38952SOL    HW118753   5.198   3.857   9.994
38952SOL    HW218754   5.227   3.990   9.928
38953SOL     OW18755  10.049  13.450   8.381
38953SOL    HW118756  10.108  13.513   8.341
38953SOL    HW218757  10.056  13.372   8.327
38954SOL     OW18758   1.587  12.570   6.632
38954SOL    HW118759   1.562  12.556   6.723
38954SOL    HW218760   1.617  12.484   6.602
38955SOL     OW18761  10.299   6.209   0.284
38955SOL    HW118762  10.267   6.287   0.329
38955SOL    HW218763  10.243   6.138   0.317
38956SOL     OW18764   6.990  10.446  10.920
38956SOL    HW118765   7.037  10.527  10.939
38956SOL    HW218766   7.037  10.409  10.845
38957SOL     OW18767   3.077  13.466   9.119
38957SOL    HW118768   3.021  13.543   9.125
38957SOL    HW218769   3.087  13.451   9.025
38958SOL     OW18770   3.616  12.860   3.210
38958SOL    HW118771   3.526  12.831   3.196
38958SOL    HW218772   3.620  12.884   3.302
38959SOL     OW18773   8.267   3.766  13.571
38959SOL    HW118774   8.357   3.797  13.583
38959SOL    HW218775   8.221   3.795  13.650
38960SOL     OW18776  14.132   0.621   3.261
38960SOL    HW118777  14.146   0.558   3.332
38960SOL    HW218778  14.169   0.703   3.293
38961SOL     OW18779   0.718   2.969   4.452
38961SOL    HW118780   0.746   2.878   4.446
38961SOL    HW218781   0.800   3.019   4.446
38962SOL     OW18782   4.618   0.392   5.305
38962SOL    HW118783   4.599   0.310   5.258
38962SOL    HW218784   4.534   0.437   5.308
38963SOL     OW18785   9.031   4.997   9.247
38963SOL    HW118786   8.999   5.036   9.166
38963SOL    HW218787   9.031   5.069   9.310
38964SOL     OW18788  12.714   7.347  11.983
38964SOL    HW118789  12.803   7.375  11.959
38964SOL    HW218790  12.718   7.334  12.077
38965SOL     OW18791   8.895   3.175   8.053
38965SOL    HW118792   8.881   3.159   8.146
38965SOL    HW218793   8.873   3.092   8.011
38966SOL     OW18794  11.032  14.387   1.511
38966SOL    HW118795  11.017  14.453   1.444
38966SOL    HW218796  11.107  14.419   1.560
38967SOL     OW18797   5.345   2.898  13.275
38967SOL    HW118798   5.266   2.951  13.269
38967SOL    HW218799   5.413   2.959  13.301
38968SOL     OW18800  10.877  14.857   9.334
38968SOL    HW118801  10.865   0.074   9.293
38968SOL    HW218802  10.910  14.802   9.263
38969SOL     OW18803   2.202  10.309   6.751
38969SOL    HW118804   2.229  10.350   6.669
38969SOL    HW218805   2.233  10.369   6.819
38970SOL     OW18806  12.975   2.654   1.565
38970SOL    HW118807  12.983   2.562   1.538
38970SOL    HW218808  13.050   2.668   1.623
38971SOL     OW18809   2.999   3.288   6.544
38971SOL    HW118810   2.939   3.333   6.484
38971SOL    HW218811   2.954   3.288   6.628
38972SOL     OW18812   6.487  10.285   0.456
38972SOL    HW118813   6.580  10.304   0.466
38972SOL    HW218814   6.451  10.365   0.416
38973SOL     OW18815   0.759  12.319   0.010
38973SOL    HW118816   0.748  12.368   0.092
38973SOL    HW218817   0.831  12.364  14.835
38974SOL     OW18818   5.438   0.245   8.415
38974SOL    HW118819   5.345   0.226   8.401
38974SOL    HW218820   5.438   0.327   8.463
38975SOL     OW18821   7.341   2.772   2.708
38975SOL    HW118822   7.402   2.698   2.706
38975SOL    HW218823   7.259   2.734   2.738
38976SOL     OW18824  13.168   8.159  11.478
38976SOL    HW118825  13.244   8.131  11.529
38976SOL    HW218826  13.169   8.254  11.484
38977SOL     OW18827   8.743  12.145  12.463
38977SOL    HW118828   8.692  12.196  12.526
38977SOL    HW218829   8.739  12.196  12.382
38978SOL     OW18830   2.078   2.952   9.658
38978SOL    HW118831   2.080   2.876   9.599
38978SOL    HW218832   2.025   3.017   9.611
38979SOL     OW18833   2.095  11.993   1.167
38979SOL    HW118834   2.017  12.044   1.190
38979SOL    HW218835   2.145  11.989   1.248
38980SOL     OW18836   1.633   9.673   2.150
38980SOL    HW118837   1.675   9.753   2.183
38980SOL    HW218838   1.647   9.676   2.056
38981SOL     OW18839  14.475   1.988   7.385
38981SOL    HW118840  14.396   2.003   7.333
38981SOL    HW218841  14.512   2.075   7.397
38982SOL     OW18842   5.591   4.113  10.339
38982SOL    HW118843   5.672   4.131  10.386
38982SOL    HW218844   5.574   4.194  10.290
38983SOL     OW18845  13.749   7.135   5.369
38983SOL    HW118846  13.675   7.138   5.308
38983SOL    HW218847  13.814   7.194   5.331
38984SOL     OW18848   6.253  14.842   4.557
38984SOL    HW118849   6.345  14.824   4.580
38984SOL    HW218850   6.206  14.763   4.585
38985SOL     OW18851   9.821   8.606   3.507
38985SOL    HW118852   9.759   8.589   3.436
38985SOL    HW218853   9.798   8.543   3.576
38986SOL     OW18854   4.580  14.171  10.694
38986SOL    HW118855   4.582  14.131  10.781
38986SOL    HW218856   4.494  14.149  10.659
38987SOL     OW18857   4.488   4.512   9.563
38987SOL    HW118858   4.490   4.571   9.488
38987SOL    HW218859   4.502   4.425   9.526
38988SOL     OW18860   1.724   7.273   1.486
38988SOL    HW118861   1.633   7.262   1.459
38988SOL    HW218862   1.751   7.357   1.447
38989SOL     OW18863   1.358  11.700  10.599
38989SOL    HW118864   1.420  11.721  10.669
38989SOL    HW218865   1.274  11.732  10.631
38990SOL     OW18866   2.390  11.174  13.360
38990SOL    HW118867   2.394  11.143  13.451
38990SOL    HW218868   2.307  11.220  13.354
38991SOL     OW18869   2.696   9.643   8.397
38991SOL    HW118870   2.762   9.711   8.379
38991SOL    HW218871   2.650   9.675   8.474
38992SOL     OW18872  13.904  13.034  14.515
38992SOL    HW118873  13.831  12.995  14.564
38992SOL    HW218874  13.962  13.070  14.582
38993SOL     OW18875   6.919   7.194   9.275
38993SOL    HW118876   6.885   7.105   9.274
38993SOL    HW218877   6.992   7.193   9.213
38994SOL     OW18878   6.026  11.388   6.279
38994SOL    HW118879   6.019  11.293   6.267
38994SOL    HW218880   6.110  11.411   6.238
38995SOL     OW18881  14.524   9.075   3.364
38995SOL    HW118882  14.552   9.088   3.273
38995SOL    HW218883  14.519   8.980   3.374
38996SOL     OW18884   6.631   2.537   9.143
38996SOL    HW118885   6.570   2.507   9.076
38996SOL    HW218886   6.676   2.611   9.103
38997SOL     OW18887  10.698  10.098   0.906
38997SOL    HW118888  10.714  10.004   0.899
38997SOL    HW218889  10.724  10.133   0.821
38998SOL     OW18890   8.172   8.113   6.101
38998SOL    HW118891   8.101   8.120   6.037
38998SOL    HW218892   8.191   8.019   6.106
38999SOL     OW18893  12.021  13.760   3.263
38999SOL    HW118894  12.050  13.681   3.218
38999SOL    HW218895  12.020  13.827   3.195
39000SOL     OW18896  14.475   9.949   4.756
39000SOL    HW118897  14.414   9.985   4.692
39000SOL    HW218898  14.483  10.017   4.823
39001SOL     OW18899  14.380   5.344   4.637
39001SOL    HW118900  14.473   5.368   4.642
39001SOL    HW218901  14.333   5.425   4.656
39002SOL     OW18902   6.320  14.069   3.498
39002SOL    HW118903   6.240  14.088   3.548
39002SOL    HW218904   6.306  13.981   3.463
39003SOL     OW18905  14.028   3.773  11.493
39003SOL    HW118906  13.941   3.733  11.485
39003SOL    HW218907  14.068   3.730  11.569
39004SOL     OW18908   8.048   9.022   0.732
39004SOL    HW118909   8.118   8.982   0.680
39004SOL    HW218910   8.019   9.097   0.680
39005SOL     OW18911   7.476   9.278  14.422
39005SOL    HW118912   7.428   9.256  14.342
39005SOL    HW218913   7.411   9.321  14.478
39006SOL     OW18914   9.110  12.461   1.649
39006SOL    HW118915   9.017  12.465   1.669
39006SOL    HW218916   9.128  12.369   1.632
39007SOL     OW18917   8.310   5.539   2.784
39007SOL    HW118918   8.309   5.632   2.807
39007SOL    HW218919   8.383   5.503   2.835
39008SOL     OW18920   8.956   7.686  14.361
39008SOL    HW118921   8.928   7.596  14.378
39008SOL    HW218922   8.920   7.736  14.435
39009SOL     OW18923   6.740   0.861   7.786
39009SOL    HW118924   6.672   0.928   7.796
39009SOL    HW218925   6.810   0.888   7.846
39010SOL     OW18926  11.943   5.851   6.689
39010SOL    HW118927  11.895   5.876   6.610
39010SOL    HW218928  12.009   5.789   6.657
39011SOL     OW18929   0.950   5.040   9.807
39011SOL    HW118930   1.002   4.995   9.873
39011SOL    HW218931   0.930   4.973   9.742
39012SOL     OW18932  14.166   4.201   9.239
39012SOL    HW118933  14.240   4.262   9.245
39012SOL    HW218934  14.153   4.188   9.145
39013SOL     OW18935   2.714  11.607   7.013
39013SOL    HW118936   2.626  11.588   7.047
39013SOL    HW218937   2.769  11.538   7.050
39014SOL     OW18938   4.141   8.884  12.190
39014SOL    HW118939   4.209   8.941  12.156
39014SOL    HW218940   4.069   8.943  12.214
39015SOL     OW18941   9.690   0.012   7.559
39015SOL    HW118942   9.675  14.790   7.582
39015SOL    HW218943   9.603   0.052   7.565
39016SOL     OW18944   4.805  12.298   5.714
39016SOL    HW118945   4.889  12.256   5.735
39016SOL    HW218946   4.784  12.265   5.626
39017SOL     OW18947  11.263   7.120   7.836
39017SOL    HW118948  11.240   7.211   7.818
39017SOL    HW218949  11.359   7.120   7.841
39018SOL     OW18950   7.516  13.455   1.484
39018SOL    HW118951   7.590  13.514   1.470
39018SOL    HW218952   7.554  13.380   1.529
39019SOL     OW18953   2.411   8.503   1.819
39019SOL    HW118954   2.334   8.522   1.765
39019SOL    HW218955   2.376   8.493   1.908
39020SOL     OW18956   2.926  13.738  10.181
39020SOL    HW118957   2.830  13.738  10.175
39020SOL    HW218958   2.945  13.792  10.257
39021SOL     OW18959   0.673   2.739  11.909
39021SOL    HW118960   0.654   2.795  11.984
39021SOL    HW218961   0.601   2.755  11.848
39022SOL     OW18962   6.569  11.852   5.680
39022SOL    HW118963   6.609  11.938   5.675
39022SOL    HW218964   6.482  11.867   5.718
39023SOL     OW18965  11.576   6.491   2.430
39023SOL    HW118966  11.634   6.428   2.387
39023SOL    HW218967  11.493   6.484   2.384
39024SOL     OW18968  12.955  10.073   2.085
39024SOL    HW118969  12.967  10.046   2.176
39024SOL    HW218970  12.939   9.991   2.038
39025SOL     OW18971   7.881   5.121  14.541
39025SOL    HW118972   7.933   5.111  14.461
39025SOL    HW218973   7.888   5.214  14.563
39026SOL     OW18974   8.438  13.034   6.233
39026SOL    HW118975   8.476  13.076   6.156
39026SOL    HW218976   8.381  12.966   6.198
39027SOL     OW18977   3.612   5.385   9.009
39027SOL    HW118978   3.560   5.445   9.062
39027SOL    HW218979   3.613   5.425   8.922
39028SOL     OW18980  13.513  14.294   8.065
39028SOL    HW118981  13.536  14.377   8.106
39028SOL    HW218982  13.540  14.227   8.127
39029SOL     OW18983  11.010  12.939   7.304
39029SOL    HW118984  11.065  12.881   7.251
39029SOL    HW218985  10.927  12.893   7.310
39030SOL     OW18986   4.547   7.133   8.667
39030SOL    HW118987   4.629   7.135   8.716
39030SOL    HW218988   4.523   7.225   8.657
39031SOL     OW18989   3.964  13.445   4.964
39031SOL    HW118990   3.894  13.506   4.944
39031SOL    HW218991   4.031  13.498   5.007
39032SOL     OW18992   4.400   1.565   2.381
39032SOL    HW118993   4.476   1.563   2.439
39032SOL    HW218994   4.437   1.553   2.293
39033SOL     OW18995   8.865  10.004   2.248
39033SOL    HW118996   8.834   9.914   2.242
39033SOL    HW218997   8.946  10.005   2.196
39034SOL     OW18998   9.827   8.261  12.190
39034SOL    HW118999   9.877   8.329  12.145
39034SOL    HW219000   9.774   8.309  12.254
39035SOL     OW19001  14.831   9.621   3.965
39035SOL    HW119002  14.792   9.684   3.904
39035SOL    HW219003  14.769   9.548   3.967
39036SOL     OW19004   4.528   2.482  10.886
39036SOL    HW119005   4.521   2.391  10.916
39036SOL    HW219006   4.506   2.534  10.964
39037SOL     OW19007  13.957  12.253   7.543
39037SOL    HW119008  13.927  12.243   7.633
39037SOL    HW219009  13.916  12.333   7.512
39038SOL     OW19010  10.175   7.596   3.610
39038SOL    HW119011  10.205   7.571   3.523
39038SOL    HW219012  10.116   7.525   3.636
39039SOL     OW19013   8.004  11.964   9.524
39039SOL    HW119014   8.021  12.043   9.473
39039SOL    HW219015   8.019  11.892   9.462
39040SOL     OW19016  12.207   8.305   3.790
39040SOL    HW119017  12.167   8.367   3.728
39040SOL    HW219018  12.218   8.225   3.740
39041SOL     OW19019  12.319   4.801   8.713
39041SOL    HW119020  12.301   4.759   8.797
39041SOL    HW219021  12.411   4.827   8.719
39042SOL     OW19022   0.379   4.833   6.207
39042SOL    HW119023   0.442   4.835   6.279
39042SOL    HW219024   0.394   4.749   6.164
39043SOL     OW19025   7.525  10.638   1.003
39043SOL    HW119026   7.564  10.660   0.919
39043SOL    HW219027   7.462  10.707   1.020
39044SOL     OW19028   2.387   6.670   7.501
39044SOL    HW119029   2.477   6.694   7.524
39044SOL    HW219030   2.380   6.577   7.525
39045SOL     OW19031  11.645  11.607   1.480
39045SOL    HW119032  11.662  11.580   1.390
39045SOL    HW219033  11.552  11.633   1.480
39046SOL     OW19034   4.016   2.026   8.448
39046SOL    HW119035   4.082   1.979   8.398
39046SOL    HW219036   4.065   2.079   8.511
39047SOL     OW19037   3.040   3.679   7.955
39047SOL    HW119038   3.085   3.730   7.888
39047SOL    HW219039   2.951   3.714   7.957
39048SOL     OW19040   3.908   0.950   6.784
39048SOL    HW119041   3.886   0.944   6.877
39048SOL    HW219042   3.859   1.026   6.752
39049SOL     OW19043   7.389   1.428  11.629
39049SOL    HW119044   7.438   1.437  11.547
39049SOL    HW219045   7.449   1.382  11.688
39050SOL     OW19046   9.778  14.057  11.283
39050SOL    HW119047   9.766  14.058  11.378
39050SOL    HW219048   9.838  13.984  11.267
39051SOL     OW19049   4.204   4.129   3.070
39051SOL    HW119050   4.118   4.170   3.082
39051SOL    HW219051   4.196   4.044   3.112
39052SOL     OW19052  10.769   3.220   6.358
39052SOL    HW119053  10.695   3.206   6.416
39052SOL    HW219054  10.825   3.282   6.404
39053SOL     OW19055  14.833   8.907   2.757
39053SOL    HW119056  14.739   8.911   2.740
39053SOL    HW219057   0.003   8.947   2.679
39054SOL     OW19058   2.151   9.840   2.803
39054SOL    HW119059   2.212   9.859   2.732
39054SOL    HW219060   2.206   9.806   2.873
39055SOL     OW19061   5.424  13.527   6.985
39055SOL    HW119062   5.373  13.456   6.946
39055SOL    HW219063   5.363  13.601   6.989
39056SOL     OW19064   4.035   8.470   1.232
39056SOL    HW119065   4.098   8.418   1.182
39056SOL    HW219066   4.089   8.528   1.285
39057SOL     OW19067  13.539   2.418   1.866
39057SOL    HW119068  13.490   2.500   1.869
39057SOL    HW219069  13.476   2.354   1.831
39058SOL     OW19070  13.236   0.535   6.399
39058SOL    HW119071  13.210   0.592   6.471
39058SOL    HW219072  13.159   0.480   6.383
39059SOL     OW19073   7.140   6.245  12.809
39059SOL    HW119074   7.223   6.257  12.764
39059SOL    HW219075   7.163   6.216  12.897
39060SOL     OW19076  11.776  14.275  12.205
39060SOL    HW119077  11.839  14.251  12.138
39060SOL    HW219078  11.717  14.199  12.211
39061SOL     OW19079  12.021  12.820  10.205
39061SOL    HW119080  11.944  12.770  10.230
39061SOL    HW219081  12.051  12.779  10.124
39062SOL     OW19082   4.866   8.826   5.357
39062SOL    HW119083   4.833   8.888   5.292
39062SOL    HW219084   4.819   8.745   5.339
39063SOL     OW19085   2.194  12.645  10.900
39063SOL    HW119086   2.112  12.669  10.856
39063SOL    HW219087   2.255  12.714  10.877
39064SOL     OW19088   9.361   8.140   5.308
39064SOL    HW119089   9.451   8.113   5.327
39064SOL    HW219090   9.370   8.204   5.238
39065SOL     OW19091   9.120   4.236   9.759
39065SOL    HW119092   9.107   4.200   9.847
39065SOL    HW219093   9.059   4.310   9.755
39066SOL     OW19094   7.408   6.334  13.470
39066SOL    HW119095   7.489   6.318  13.519
39066SOL    HW219096   7.349   6.265  13.498
39067SOL     OW19097  11.528   8.733   7.613
39067SOL    HW119098  11.472   8.803   7.647
39067SOL    HW219099  11.469   8.658   7.604
39068SOL     OW19100  12.402   3.051  10.322
39068SOL    HW119101  12.346   3.119  10.359
39068SOL    HW219102  12.463   3.099  10.266
39069SOL     OW19103  13.099   6.417   5.132
39069SOL    HW119104  13.158   6.369   5.073
39069SOL    HW219105  13.090   6.503   5.091
39070SOL     OW19106  13.231   0.104   0.152
39070SOL    HW119107  13.140   0.127   0.133
39070SOL    HW219108  13.268   0.077   0.068
39071SOL     OW19109   0.617   8.162  13.534
39071SOL    HW119110   0.652   8.191  13.450
39071SOL    HW219111   0.644   8.230  13.596
39072SOL     OW19112  11.673  13.329   6.796
39072SOL    HW119113  11.702  13.275   6.722
39072SOL    HW219114  11.750  13.382   6.818
39073SOL     OW19115   2.664   9.896   7.489
39073SOL    HW119116   2.723   9.869   7.559
39073SOL    HW219117   2.637   9.985   7.514
39074SOL     OW19118   6.558  13.109   0.841
39074SOL    HW119119   6.490  13.173   0.820
39074SOL    HW219120   6.510  13.031   0.866
39075SOL     OW19121  12.817  13.544  13.925
39075SOL    HW119122  12.880  13.601  13.880
39075SOL    HW219123  12.788  13.596  14.001
39076SOL     OW19124   0.027   7.319   7.515
39076SOL    HW119125  14.852   7.341   7.433
39076SOL    HW219126   0.093   7.387   7.525
39077SOL     OW19127   6.530   1.241   4.850
39077SOL    HW119128   6.530   1.256   4.945
39077SOL    HW219129   6.587   1.165   4.838
39078SOL     OW19130   0.943   6.427   1.121
39078SOL    HW119131   1.015   6.370   1.094
39078SOL    HW219132   0.877   6.368   1.155
39079SOL     OW19133  10.502  13.846   1.779
39079SOL    HW119134  10.411  13.837   1.806
39079SOL    HW219135  10.528  13.932   1.813
39080SOL     OW19136   6.613   3.642   6.880
39080SOL    HW119137   6.642   3.729   6.907
39080SOL    HW219138   6.692   3.587   6.889
39081SOL     OW19139  12.695   0.286  11.556
39081SOL    HW119140  12.702   0.328  11.642
39081SOL    HW219141  12.610   0.314  11.523
39082SOL     OW19142   0.574   9.951   0.806
39082SOL    HW119143   0.631  10.001   0.747
39082SOL    HW219144   0.619   9.868   0.818
39083SOL     OW19145  12.343  14.780  11.151
39083SOL    HW119146  12.407  14.736  11.207
39083SOL    HW219147  12.267  14.722  11.150
39084SOL     OW19148   3.334   0.098   2.037
39084SOL    HW119149   3.323   0.192   2.048
39084SOL    HW219150   3.382   0.071   2.116
39085SOL     OW19151   3.187   0.600   0.070
39085SOL    HW119152   3.259   0.649   0.030
39085SOL    HW219153   3.176   0.641   0.156
39086SOL     OW19154  14.745  10.258  13.453
39086SOL    HW119155  14.652  10.272  13.472
39086SOL    HW219156  14.752  10.268  13.358
39087SOL     OW19157   0.920   8.311  11.087
39087SOL    HW119158   0.844   8.298  11.145
39087SOL    HW219159   0.883   8.328  11.001
39088SOL     OW19160   6.654  14.016   5.414
39088SOL    HW119161   6.649  14.064   5.497
39088SOL    HW219162   6.739  14.039   5.378
39089SOL     OW19163   6.287   0.577   9.363
39089SOL    HW119164   6.351   0.511   9.391
39089SOL    HW219165   6.279   0.636   9.437
39090SOL     OW19166   2.632   6.761   9.446
39090SOL    HW119167   2.549   6.716   9.461
39090SOL    HW219168   2.697   6.704   9.488
39091SOL     OW19169  14.333   2.940   9.515
39091SOL    HW119170  14.397   2.875   9.544
39091SOL    HW219171  14.333   3.005   9.586
39092SOL     OW19172  14.211   6.521  13.175
39092SOL    HW119173  14.149   6.532  13.248
39092SOL    HW219174  14.252   6.436  13.191
39093SOL     OW19175   8.742   6.097   0.498
39093SOL    HW119176   8.768   6.102   0.590
39093SOL    HW219177   8.812   6.047   0.456
39094SOL     OW19178   3.809  13.262   5.044
39094SOL    HW119179   3.872  13.329   5.020
39094SOL    HW219180   3.773  13.232   4.961
39095SOL     OW19181   5.444  13.759  13.057
39095SOL    HW119182   5.456  13.670  13.091
39095SOL    HW219183   5.474  13.753  12.966
39096SOL     OW19184   8.346   5.915   0.539
39096SOL    HW119185   8.259   5.913   0.578
39096SOL    HW219186   8.331   5.944   0.449
39097SOL     OW19187   6.081   6.002  11.423
39097SOL    HW119188   6.106   6.069  11.359
39097SOL    HW219189   5.993   5.975  11.396
39098SOL     OW19190  10.857  13.525  10.032
39098SOL    HW119191  10.941  13.489  10.005
39098SOL    HW219192  10.802  13.449  10.048
39099SOL     OW19193  11.768   2.137   1.132
39099SOL    HW119194  11.690   2.172   1.089
39099SOL    HW219195  11.750   2.143   1.225
39100SOL     OW19196   3.642   4.431   0.638
39100SOL    HW119197   3.550   4.415   0.659
39100SOL    HW219198   3.675   4.346   0.610
39101SOL     OW19199   6.970  12.189  12.588
39101SOL    HW119200   7.053  12.227  12.559
39101SOL    HW219201   6.977  12.096  12.566
39102SOL     OW19202   3.537   8.786   8.964
39102SOL    HW119203   3.612   8.784   9.023
39102SOL    HW219204   3.559   8.721   8.897
39103SOL     OW19205   4.948   7.417   6.381
39103SOL    HW119206   4.911   7.425   6.469
39103SOL    HW219207   4.908   7.489   6.332
39104SOL     OW19208   3.110   8.330  13.852
39104SOL    HW119209   3.077   8.417  13.830
39104SOL    HW219210   3.032   8.276  13.859
39105SOL     OW19211  13.184   8.443  11.481
39105SOL    HW119212  13.247   8.441  11.553
39105SOL    HW219213  13.098   8.443  11.523
39106SOL     OW19214   7.473  11.926  12.160
39106SOL    HW119215   7.521  11.857  12.115
39106SOL    HW219216   7.407  11.954  12.096
39107SOL     OW19217   9.701   2.935  12.797
39107SOL    HW119218   9.635   2.996  12.765
39107SOL    HW219219   9.698   2.944  12.892
39108SOL     OW19220  12.240   3.650   5.410
39108SOL    HW119221  12.210   3.659   5.320
39108SOL    HW219222  12.182   3.584   5.448
39109SOL     OW19223   0.002   6.168   4.873
39109SOL    HW119224  14.787   6.211   4.864
39109SOL    HW219225   0.036   6.199   4.957
39110SOL     OW19226   1.166   4.846  13.578
39110SOL    HW119227   1.192   4.903  13.651
39110SOL    HW219228   1.242   4.848  13.519
39111SOL     OW19229   1.755   9.123   2.070
39111SOL    HW119230   1.786   9.204   2.029
39111SOL    HW219231   1.833   9.086   2.111
39112SOL     OW19232   6.416   5.083  12.429
39112SOL    HW119233   6.482   5.139  12.469
39112SOL    HW219234   6.361   5.144  12.379
39113SOL     OW19235  11.621  13.590   1.282
39113SOL    HW119236  11.680  13.585   1.358
39113SOL    HW219237  11.596  13.682   1.277
39114SOL     OW19238   7.926  14.223   2.383
39114SOL    HW119239   7.955  14.216   2.474
39114SOL    HW219240   7.949  14.140   2.344
39115SOL     OW19241  13.632   6.260   0.982
39115SOL    HW119242  13.680   6.266   1.065
39115SOL    HW219243  13.613   6.166   0.973
39116SOL     OW19244   7.609   3.960   3.625
39116SOL    HW119245   7.521   3.996   3.634
39116SOL    HW219246   7.618   3.942   3.532
39117SOL     OW19247  12.095   7.395   9.578
39117SOL    HW119248  12.066   7.359   9.662
39117SOL    HW219249  12.179   7.352   9.561
39118SOL     OW19250  13.401  10.401   0.961
39118SOL    HW119251  13.471  10.345   0.994
39118SOL    HW219252  13.359  10.348   0.893
39119SOL     OW19253  14.612   8.920  14.658
39119SOL    HW119254  14.586   8.830  14.681
39119SOL    HW219255  14.665   8.949  14.732
39120SOL     OW19256  14.329   3.058   2.916
39120SOL    HW119257  14.287   3.069   2.830
39120SOL    HW219258  14.287   2.981   2.953
39121SOL     OW19259   1.523   9.180  13.727
39121SOL    HW119260   1.522   9.154  13.634
39121SOL    HW219261   1.466   9.257  13.730
39122SOL     OW19262  13.668   1.275   0.886
39122SOL    HW119263  13.578   1.254   0.909
39122SOL    HW219264  13.664   1.303   0.794
39123SOL     OW19265  11.871  14.216  10.113
39123SOL    HW119266  11.880  14.296  10.166
39123SOL    HW219267  11.917  14.236  10.032
39124SOL     OW19268  12.511   9.418   3.671
39124SOL    HW119269  12.471   9.368   3.600
39124SOL    HW219270  12.470   9.505   3.665
39125SOL     OW19271  11.121   7.298  11.918
39125SOL    HW119272  11.135   7.244  11.841
39125SOL    HW219273  11.027   7.293  11.935
39126SOL     OW19274   4.685   9.500  14.095
39126SOL    HW119275   4.705   9.594  14.098
39126SOL    HW219276   4.726   9.470  14.014
39127SOL     OW19277   0.958   5.661   2.889
39127SOL    HW119278   1.006   5.740   2.914
39127SOL    HW219279   0.962   5.605   2.966
39128SOL     OW19280   8.717   6.452   5.564
39128SOL    HW119281   8.806   6.454   5.598
39128SOL    HW219282   8.683   6.540   5.580
39129SOL     OW19283   3.635   8.052  13.169
39129SOL    HW119284   3.640   8.036  13.075
39129SOL    HW219285   3.722   8.027  13.202
39130SOL     OW19286   0.302  10.244   5.678
39130SOL    HW119287   0.375  10.293   5.640
39130SOL    HW219288   0.224  10.283   5.638
39131SOL     OW19289   8.638   6.475  11.403
39131SOL    HW119290   8.548   6.460  11.434
39131SOL    HW219291   8.638   6.441  11.314
39132SOL     OW19292   5.252   1.413  12.137
39132SOL    HW119293   5.191   1.441  12.205
39132SOL    HW219294   5.267   1.320  12.155
39133SOL     OW19295  12.196   9.305   6.943
39133SOL    HW119296  12.142   9.356   7.003
39133SOL    HW219297  12.218   9.225   6.992
39134SOL     OW19298   3.847   4.430   9.899
39134SOL    HW119299   3.762   4.473   9.890
39134SOL    HW219300   3.886   4.436   9.811
39135SOL     OW19301  13.268   6.147  13.384
39135SOL    HW119302  13.294   6.133  13.475
39135SOL    HW219303  13.229   6.064  13.357
39136SOL     OW19304   0.242   9.239   1.737
39136SOL    HW119305   0.242   9.171   1.670
39136SOL    HW219306   0.149   9.256   1.754
39137SOL     OW19307   5.635   6.241   0.776
39137SOL    HW119308   5.680   6.160   0.800
39137SOL    HW219309   5.574   6.257   0.848
39138SOL     OW19310   0.100   0.095  13.855
39138SOL    HW119311   0.164   0.113  13.924
39138SOL    HW219312   0.152   0.053  13.785
39139SOL     OW19313   2.271   3.005  13.987
39139SOL    HW119314   2.360   2.977  13.968
39139SOL    HW219315   2.251   2.965  14.072
39140SOL     OW19316  14.618   1.792   4.673
39140SOL    HW119317  14.529   1.828   4.675
39140SOL    HW219318  14.605   1.701   4.647
39141SOL     OW19319   9.573   2.217  12.671
39141SOL    HW119320   9.619   2.297  12.694
39141SOL    HW219321   9.624   2.147  12.711
39142SOL     OW19322   9.236   0.857   4.833
39142SOL    HW119323   9.299   0.786   4.847
39142SOL    HW219324   9.287   0.928   4.796
39143SOL     OW19325  11.658   2.719  10.701
39143SOL    HW119326  11.691   2.762  10.622
39143SOL    HW219327  11.725   2.654  10.723
39144SOL     OW19328   6.983   8.120   1.172
39144SOL    HW119329   6.979   8.143   1.079
39144SOL    HW219330   6.917   8.176   1.213
39145SOL     OW19331   9.014  11.589   6.616
39145SOL    HW119332   9.051  11.677   6.625
39145SOL    HW219333   8.925  11.596   6.651
39146SOL     OW19334  12.121  13.953   5.384
39146SOL    HW119335  12.118  14.010   5.461
39146SOL    HW219336  12.201  13.902   5.396
39147SOL     OW19337  11.018   8.815  11.525
39147SOL    HW119338  11.056   8.889  11.477
39147SOL    HW219339  10.964   8.855  11.593
39148SOL     OW19340  10.574  11.716   4.860
39148SOL    HW119341  10.479  11.721   4.860
39148SOL    HW219342  10.598  11.716   4.767
39149SOL     OW19343  10.317   1.729   5.467
39149SOL    HW119344  10.309   1.747   5.373
39149SOL    HW219345  10.271   1.802   5.508
39150SOL     OW19346   5.506   9.879   0.585
39150SOL    HW119347   5.529   9.930   0.507
39150SOL    HW219348   5.584   9.884   0.641
39151SOL     OW19349   4.408  12.230   8.414
39151SOL    HW119350   4.324  12.201   8.377
39151SOL    HW219351   4.450  12.150   8.444
39152SOL     OW19352   4.268   9.408   2.819
39152SOL    HW119353   4.337   9.361   2.866
39152SOL    HW219354   4.226   9.462   2.886
39153SOL     OW19355   7.554   6.577   6.650
39153SOL    HW119356   7.596   6.532   6.723
39153SOL    HW219357   7.461   6.570   6.667
39154SOL     OW19358   3.293  12.081   1.061
39154SOL    HW119359   3.220  12.035   1.100
39154SOL    HW219360   3.363  12.016   1.055
39155SOL     OW19361   8.551  13.315  14.470
39155SOL    HW119362   8.510  13.381  14.526
39155SOL    HW219363   8.525  13.339  14.381
39156SOL     OW19364  14.405   4.722   4.421
39156SOL    HW119365  14.439   4.793   4.476
39156SOL    HW219366  14.392   4.649   4.482
39157SOL     OW19367   2.802   4.387   0.301
39157SOL    HW119368   2.745   4.404   0.376
39157SOL    HW219369   2.742   4.354   0.234
39158SOL     OW19370   7.722   5.699   8.291
39158SOL    HW119371   7.671   5.692   8.372
39158SOL    HW219372   7.656   5.712   8.223
39159SOL     OW19373  11.049  13.789  12.607
39159SOL    HW119374  11.134  13.745  12.609
39159SOL    HW219375  11.067  13.877  12.639
39160SOL     OW19376  12.339   0.566   6.610
39160SOL    HW119377  12.346   0.474   6.588
39160SOL    HW219378  12.264   0.598   6.560
39161SOL     OW19379  10.706  13.419   8.634
39161SOL    HW119380  10.789  13.413   8.587
39161SOL    HW219381  10.659  13.339   8.609
39162SOL     OW19382   0.644  13.548   2.832
39162SOL    HW119383   0.676  13.630   2.796
39162SOL    HW219384   0.569  13.574   2.887
39163SOL     OW19385   6.149   4.536   7.854
39163SOL    HW119386   6.236   4.534   7.895
39163SOL    HW219387   6.098   4.472   7.903
39164SOL     OW19388   7.485  10.096  12.665
39164SOL    HW119389   7.558  10.035  12.678
39164SOL    HW219390   7.500  10.134  12.578
39165SOL     OW19391  14.587   7.912   4.890
39165SOL    HW119392  14.571   8.005   4.908
39165SOL    HW219393  14.545   7.897   4.805
39166SOL     OW19394  14.226   0.733   7.883
39166SOL    HW119395  14.286   0.667   7.917
39166SOL    HW219396  14.282   0.808   7.861
39167SOL     OW19397  10.146  10.104   6.868
39167SOL    HW119398  10.114  10.155   6.942
39167SOL    HW219399  10.218  10.156   6.833
39168SOL     OW19400   5.150   4.095   9.225
39168SOL    HW119401   5.110   4.057   9.304
39168SOL    HW219402   5.109   4.049   9.152
39169SOL     OW19403   4.184   5.789   5.351
39169SOL    HW119404   4.139   5.706   5.367
39169SOL    HW219405   4.264   5.783   5.402
39170SOL     OW19406  12.636   0.902  11.392
39170SOL    HW119407  12.689   0.903  11.313
39170SOL    HW219408  12.658   0.983  11.438
39171SOL     OW19409   8.992  12.431   3.884
39171SOL    HW119410   9.073  12.420   3.834
39171SOL    HW219411   8.925  12.387   3.831
39172SOL     OW19412   2.074   8.923   9.294
39172SOL    HW119413   2.038   8.861   9.358
39172SOL    HW219414   2.153   8.880   9.261
39173SOL     OW19415   8.289  10.257   4.105
39173SOL    HW119416   8.289  10.312   4.027
39173SOL    HW219417   8.218  10.291   4.159
39174SOL     OW19418   4.687   6.393   2.837
39174SOL    HW119419   4.723   6.357   2.756
39174SOL    HW219420   4.698   6.323   2.901
39175SOL     OW19421   1.404   9.916   6.079
39175SOL    HW119422   1.489   9.893   6.041
39175SOL    HW219423   1.359   9.832   6.088
39176SOL     OW19424   2.327  13.569  12.719
39176SOL    HW119425   2.253  13.625  12.739
39176SOL    HW219426   2.397  13.629  12.694
39177SOL     OW19427   5.314  11.475   6.475
39177SOL    HW119428   5.401  11.436   6.480
39177SOL    HW219429   5.257  11.414   6.522
39178SOL     OW19430   1.732   8.199  13.674
39178SOL    HW119431   1.808   8.152  13.710
39178SOL    HW219432   1.748   8.290  13.698
39179SOL     OW19433  13.921   5.671   8.527
39179SOL    HW119434  14.009   5.639   8.544
39179SOL    HW219435  13.907   5.656   8.433
39180SOL     OW19436   4.192   2.249   5.614
39180SOL    HW119437   4.123   2.285   5.669
39180SOL    HW219438   4.161   2.261   5.525
39181SOL     OW19439   3.599   1.272   1.133
39181SOL    HW119440   3.536   1.333   1.173
39181SOL    HW219441   3.545   1.215   1.079
39182SOL     OW19442   6.843   0.155   7.631
39182SOL    HW119443   6.878   0.084   7.576
39182SOL    HW219444   6.828   0.227   7.570
39183SOL     OW19445   2.304   5.833   8.951
39183SOL    HW119446   2.239   5.768   8.978
39183SOL    HW219447   2.294   5.905   9.014
39184SOL     OW19448   0.401   1.463  12.917
39184SOL    HW119449   0.392   1.498  12.828
39184SOL    HW219450   0.462   1.523  12.960
39185SOL     OW19451  12.511  11.901   9.071
39185SOL    HW119452  12.453  11.845   9.020
39185SOL    HW219453  12.589  11.911   9.018
39186SOL     OW19454   8.321   0.075  12.880
39186SOL    HW119455   8.235   0.042  12.905
39186SOL    HW219456   8.377  14.867  12.875
39187SOL     OW19457  13.218   7.136   0.016
39187SOL    HW119458  13.284   7.199   0.045
39187SOL    HW219459  13.206   7.154  14.792
39188SOL     OW19460  12.054   5.166  14.051
39188SOL    HW119461  12.119   5.131  13.990
39188SOL    HW219462  12.063   5.261  14.043
39189SOL     OW19463  10.205  11.909   5.506
39189SOL    HW119464  10.170  11.827   5.471
39189SOL    HW219465  10.217  11.892   5.600
39190SOL     OW19466   0.339  13.300   4.445
39190SOL    HW119467   0.270  13.233   4.440
39190SOL    HW219468   0.292  13.381   4.462
39191SOL     OW19469   8.847  12.571   4.541
39191SOL    HW119470   8.909  12.627   4.493
39191SOL    HW219471   8.902  12.504   4.581
39192SOL     OW19472   6.966  10.984   3.881
39192SOL    HW119473   7.051  10.979   3.925
39192SOL    HW219474   6.977  10.932   3.802
39193SOL     OW19475   1.900   4.375   2.121
39193SOL    HW119476   1.826   4.431   2.097
39193SOL    HW219477   1.865   4.317   2.188
39194SOL     OW19478  12.214  11.128   6.353
39194SOL    HW119479  12.254  11.210   6.325
39194SOL    HW219480  12.212  11.134   6.448
39195SOL     OW19481   3.211  11.277  10.945
39195SOL    HW119482   3.234  11.187  10.922
39195SOL    HW219483   3.252  11.291  11.031
39196SOL     OW19484   5.652   2.246   4.619
39196SOL    HW119485   5.608   2.180   4.672
39196SOL    HW219486   5.676   2.200   4.539
39197SOL     OW19487   8.038   8.570  11.301
39197SOL    HW119488   7.964   8.581  11.240
39197SOL    HW219489   8.032   8.478  11.328
39198SOL     OW19490  11.291   4.181  13.216
39198SOL    HW119491  11.300   4.122  13.140
39198SOL    HW219492  11.249   4.127  13.283
39199SOL     OW19493   6.348   7.353   9.159
39199SOL    HW119494   6.270   7.392   9.118
39199SOL    HW219495   6.362   7.404   9.238
39200SOL     OW19496   4.185   2.992   5.592
39200SOL    HW119497   4.150   3.081   5.583
39200SOL    HW219498   4.112   2.941   5.627
39201SOL     OW19499   9.529   9.731   0.752
39201SOL    HW119500   9.468   9.722   0.679
39201SOL    HW219501   9.569   9.644   0.760
39202SOL     OW19502  12.382  11.720   7.525
39202SOL    HW119503  12.324  11.751   7.457
39202SOL    HW219504  12.324  11.677   7.588
39203SOL     OW19505   7.789   3.380   6.856
39203SOL    HW119506   7.696   3.370   6.836
39203SOL    HW219507   7.832   3.312   6.804
39204SOL     OW19508   3.739   2.078   6.479
39204SOL    HW119509   3.786   2.042   6.405
39204SOL    HW219510   3.807   2.103   6.542
39205SOL     OW19511   1.849   2.073   9.968
39205SOL    HW119512   1.811   2.107   9.887
39205SOL    HW219513   1.883   2.150  10.013
39206SOL     OW19514   7.156   1.485  13.583
39206SOL    HW119515   7.213   1.471  13.508
39206SOL    HW219516   7.199   1.437  13.654
39207SOL     OW19517   7.766   5.647  13.822
39207SOL    HW119518   7.735   5.665  13.733
39207SOL    HW219519   7.847   5.597  13.810
39208SOL     OW19520   6.869   2.791   8.482
39208SOL    HW119521   6.938   2.814   8.544
39208SOL    HW219522   6.798   2.757   8.536
39209SOL     OW19523   3.269   0.215   3.696
39209SOL    HW119524   3.178   0.193   3.676
39209SOL    HW219525   3.267   0.248   3.786
39210SOL     OW19526   4.241   2.879   1.495
39210SOL    HW119527   4.162   2.899   1.545
39210SOL    HW219528   4.210   2.869   1.405
39211SOL     OW19529  12.964   8.291  12.767
39211SOL    HW119530  12.916   8.240  12.833
39211SOL    HW219531  12.974   8.378  12.806
39212SOL     OW19532  14.645  11.880   5.993
39212SOL    HW119533  14.563  11.913   6.032
39212SOL    HW219534  14.624  11.791   5.967
39213SOL     OW19535   3.362   4.170   3.916
39213SOL    HW119536   3.275   4.132   3.918
39213SOL    HW219537   3.349   4.257   3.878
39214SOL     OW19538   2.511   4.619   4.771
39214SOL    HW119539   2.444   4.687   4.762
39214SOL    HW219540   2.469   4.539   4.740
39215SOL     OW19541   8.392   6.602  10.548
39215SOL    HW119542   8.440   6.676  10.587
39215SOL    HW219543   8.402   6.531  10.611
39216SOL     OW19544   8.790  13.702   0.826
39216SOL    HW119545   8.842  13.624   0.806
39216SOL    HW219546   8.817  13.766   0.760
39217SOL     OW19547   4.450   6.552  12.608
39217SOL    HW119548   4.411   6.623  12.659
39217SOL    HW219549   4.528   6.591  12.569
39218SOL     OW19550   0.501   9.441   3.374
39218SOL    HW119551   0.468   9.355   3.399
39218SOL    HW219552   0.523   9.432   3.281
39219SOL     OW19553   7.493   8.972   0.131
39219SOL    HW119554   7.411   8.986   0.178
39219SOL    HW219555   7.559   9.017   0.184
39220SOL     OW19556   8.970  12.956   7.766
39220SOL    HW119557   8.962  12.997   7.852
39220SOL    HW219558   8.927  13.016   7.705
39221SOL     OW19559   4.179   0.648   4.588
39221SOL    HW119560   4.237   0.667   4.515
39221SOL    HW219561   4.096   0.623   4.547
39222SOL     OW19562   2.060   5.497   5.833
39222SOL    HW119563   2.060   5.577   5.779
39222SOL    HW219564   2.049   5.426   5.769
39223SOL     OW19565   1.487  10.146   1.398
39223SOL    HW119566   1.421  10.173   1.462
39223SOL    HW219567   1.486  10.216   1.333
39224SOL     OW19568   8.191   7.469   0.301
39224SOL    HW119569   8.276   7.431   0.282
39224SOL    HW219570   8.194   7.556   0.260
39225SOL     OW19571  12.909  11.405  11.957
39225SOL    HW119572  12.906  11.370  11.868
39225SOL    HW219573  12.936  11.496  11.946
39226SOL     OW19574  10.943   2.342   8.575
39226SOL    HW119575  10.914   2.433   8.574
39226SOL    HW219576  10.906   2.304   8.495
39227SOL     OW19577  10.250   8.595   7.615
39227SOL    HW119578  10.187   8.541   7.567
39227SOL    HW219579  10.335   8.556   7.594
39228SOL     OW19580  14.242   6.048  11.802
39228SOL    HW119581  14.331   6.027  11.830
39228SOL    HW219582  14.226   6.135  11.838
39229SOL     OW19583  10.573   8.260   8.263
39229SOL    HW119584  10.614   8.256   8.177
39229SOL    HW219585  10.560   8.353   8.279
39230SOL     OW19586   1.966  10.036   2.619
39230SOL    HW119587   2.031   9.987   2.671
39230SOL    HW219588   1.959  10.121   2.663
39231SOL     OW19589   1.823  10.142   1.289
39231SOL    HW119590   1.800  10.234   1.304
39231SOL    HW219591   1.802  10.127   1.197
39232SOL     OW19592   2.002   5.721  12.973
39232SOL    HW119593   2.054   5.663  13.028
39232SOL    HW219594   1.929   5.749  13.029
39233SOL     OW19595   3.928   5.401   4.681
39233SOL    HW119596   3.886   5.400   4.595
39233SOL    HW219597   3.857   5.379   4.742
39234SOL     OW19598   4.799  14.262  12.378
39234SOL    HW119599   4.860  14.218  12.437
39234SOL    HW219600   4.714  14.222  12.398
39235SOL     OW19601   1.151   5.506   0.092
39235SOL    HW119602   1.113   5.472   0.011
39235SOL    HW219603   1.238   5.536   0.067
39236SOL     OW19604  14.607   2.954   1.063
39236SOL    HW119605  14.568   3.013   0.999
39236SOL    HW219606  14.652   2.887   1.011
39237SOL     OW19607  13.982   7.021   1.679
39237SOL    HW119608  13.919   6.981   1.618
39237SOL    HW219609  14.008   7.102   1.636
39238SOL     OW19610   3.712   0.774   4.823
39238SOL    HW119611   3.807   0.760   4.823
39238SOL    HW219612   3.694   0.818   4.906
39239SOL     OW19613   8.655   4.751   0.586
39239SOL    HW119614   8.636   4.662   0.613
39239SOL    HW219615   8.570   4.795   0.587
39240SOL     OW19616  11.928  10.905   9.462
39240SOL    HW119617  11.886  10.820   9.451
39240SOL    HW219618  11.968  10.901   9.549
39241SOL     OW19619   1.732   4.306   3.669
39241SOL    HW119620   1.639   4.284   3.666
39241SOL    HW219621   1.778   4.222   3.662
39242SOL     OW19622   5.279  14.368   6.345
39242SOL    HW119623   5.276  14.463   6.356
39242SOL    HW219624   5.240  14.333   6.425
39243SOL     OW19625   9.372  13.291  13.918
39243SOL    HW119626   9.459  13.293  13.959
39243SOL    HW219627   9.374  13.362  13.853
39244SOL     OW19628  14.298   7.692   5.399
39244SOL    HW119629  14.300   7.654   5.487
39244SOL    HW219630  14.383   7.736   5.390
39245SOL     OW19631   3.219   9.294   4.722
39245SOL    HW119632   3.271   9.319   4.798
39245SOL    HW219633   3.128   9.310   4.750
39246SOL     OW19634   8.846   5.047   2.271
39246SOL    HW119635   8.770   5.106   2.275
39246SOL    HW219636   8.823   4.974   2.328
39247SOL     OW19637   8.639   3.786   9.368
39247SOL    HW119638   8.710   3.851   9.369
39247SOL    HW219639   8.609   3.785   9.277
39248SOL     OW19640   1.960   5.981   4.398
39248SOL    HW119641   1.936   5.974   4.490
39248SOL    HW219642   2.054   5.997   4.399
39249SOL     OW19643   1.363  12.527   9.005
39249SOL    HW119644   1.294  12.510   9.069
39249SOL    HW219645   1.422  12.589   9.048
39250SOL     OW19646   2.399   6.547   5.039
39250SOL    HW119647   2.426   6.492   5.113
39250SOL    HW219648   2.369   6.628   5.078
39251SOL     OW19649   1.639   0.786   4.249
39251SOL    HW119650   1.652   0.733   4.328
39251SOL    HW219651   1.601   0.867   4.280
39252SOL     OW19652   2.583   5.855   6.743
39252SOL    HW119653   2.612   5.938   6.706
39252SOL    HW219654   2.508   5.829   6.690
39253SOL     OW19655   0.303  11.790   6.737
39253SOL    HW119656   0.285  11.800   6.643
39253SOL    HW219657   0.225  11.825   6.780
39254SOL     OW19658  10.116   1.574  10.337
39254SOL    HW119659  10.183   1.571  10.268
39254SOL    HW219660  10.123   1.663  10.373
39255SOL     OW19661   7.608   1.794  14.588
39255SOL    HW119662   7.650   1.809  14.504
39255SOL    HW219663   7.514   1.806  14.571
39256SOL     OW19664   5.958   0.924  10.013
39256SOL    HW119665   6.010   0.943  10.091
39256SOL    HW219666   5.892   0.862  10.044
39257SOL     OW19667   5.126   8.596   5.020
39257SOL    HW119668   5.069   8.558   5.086
39257SOL    HW219669   5.072   8.601   4.941
39258SOL     OW19670   3.006  10.411   6.089
39258SOL    HW119671   3.051  10.417   6.173
39258SOL    HW219672   2.949  10.335   6.098
39259SOL     OW19673   5.216   0.405   6.476
39259SOL    HW119674   5.307   0.432   6.463
39259SOL    HW219675   5.198   0.345   6.403
39260SOL     OW19676   4.719   4.692  11.724
39260SOL    HW119677   4.789   4.742  11.681
39260SOL    HW219678   4.638   4.731  11.691
39261SOL     OW19679   4.862   7.168   7.061
39261SOL    HW119680   4.778   7.157   7.107
39261SOL    HW219681   4.869   7.262   7.046
39262SOL     OW19682   8.043   5.828   6.042
39262SOL    HW119683   8.123   5.805   5.996
39262SOL    HW219684   8.071   5.882   6.115
39263SOL     OW19685   5.662  12.348   9.594
39263SOL    HW119686   5.601  12.333   9.666
39263SOL    HW219687   5.729  12.405   9.631
39264SOL     OW19688   2.923   7.150  12.754
39264SOL    HW119689   2.865   7.196  12.815
39264SOL    HW219690   3.009   7.189  12.769
39265SOL     OW19691   8.538   8.380  13.525
39265SOL    HW119692   8.535   8.418  13.613
39265SOL    HW219693   8.613   8.422  13.483
39266SOL     OW19694   1.735  13.236   0.312
39266SOL    HW119695   1.663  13.190   0.268
39266SOL    HW219696   1.810  13.177   0.303
39267SOL     OW19697   7.012  12.809   3.468
39267SOL    HW119698   7.093  12.763   3.446
39267SOL    HW219699   7.039  12.900   3.481
39268SOL     OW19700  13.443  13.559   6.080
39268SOL    HW119701  13.418  13.644   6.118
39268SOL    HW219702  13.411  13.494   6.142
39269SOL     OW19703  13.109  10.333   2.166
39269SOL    HW119704  13.018  10.360   2.176
39269SOL    HW219705  13.112  10.291   2.080
39270SOL     OW19706  13.346  14.484   5.610
39270SOL    HW119707  13.432  14.441   5.606
39270SOL    HW219708  13.334  14.522   5.523
39271SOL     OW19709   0.900  11.882   0.182
39271SOL    HW119710   0.816  11.852   0.146
39271SOL    HW219711   0.899  11.855   0.273
39272SOL     OW19712   4.825   2.697  14.597
39272SOL    HW119713   4.822   2.778  14.648
39272SOL    HW219714   4.746   2.699  14.544
39273SOL     OW19715   0.517  14.479   8.979
39273SOL    HW119716   0.534  14.573   8.989
39273SOL    HW219717   0.441  14.474   8.921
39274SOL     OW19718   0.632  11.646  13.625
39274SOL    HW119719   0.597  11.697  13.553
39274SOL    HW219720   0.576  11.669  13.700
39275SOL     OW19721   5.743  13.502  12.570
39275SOL    HW119722   5.699  13.462  12.645
39275SOL    HW219723   5.773  13.586  12.602
39276SOL     OW19724   0.480   5.651   0.476
39276SOL    HW119725   0.420   5.693   0.414
39276SOL    HW219726   0.549   5.615   0.420
39277SOL     OW19727   2.951   6.797   1.079
39277SOL    HW119728   2.878   6.736   1.084
39277SOL    HW219729   2.993   6.792   1.165
39278SOL     OW19730  13.996   9.112   4.364
39278SOL    HW119731  14.090   9.128   4.365
39278SOL    HW219732  13.976   9.078   4.451
39279SOL     OW19733  10.805   6.535  12.531
39279SOL    HW119734  10.746   6.541  12.606
39279SOL    HW219735  10.777   6.456  12.485
39280SOL     OW19736   4.076   3.074   0.397
39280SOL    HW119737   4.134   3.093   0.471
39280SOL    HW219738   4.077   3.154   0.344
39281SOL     OW19739   4.916   6.369   0.810
39281SOL    HW119740   4.893   6.276   0.811
39281SOL    HW219741   5.003   6.372   0.850
39282SOL     OW19742   5.898   3.666   1.594
39282SOL    HW119743   5.971   3.725   1.612
39282SOL    HW219744   5.912   3.592   1.653
39283SOL     OW19745  14.629   3.708   2.176
39283SOL    HW119746  14.578   3.726   2.255
39283SOL    HW219747  14.718   3.735   2.198
39284SOL     OW19748  12.132  12.856  10.542
39284SOL    HW119749  12.160  12.779  10.591
39284SOL    HW219750  12.133  12.829  10.451
39285SOL     OW19751  14.045  10.698  14.857
39285SOL    HW119752  14.051  10.733   0.077
39285SOL    HW219753  14.049  10.603  14.868
39286SOL     OW19754   2.414  12.189   3.417
39286SOL    HW119755   2.357  12.112   3.414
39286SOL    HW219756   2.468  12.175   3.494
39287SOL     OW19757   4.715   8.240   6.609
39287SOL    HW119758   4.796   8.196   6.581
39287SOL    HW219759   4.654   8.226   6.537
39288SOL     OW19760  11.315   1.152  14.379
39288SOL    HW119761  11.254   1.147  14.305
39288SOL    HW219762  11.290   1.232  14.426
39289SOL     OW19763   2.711   8.972  14.293
39289SOL    HW119764   2.727   9.015  14.377
39289SOL    HW219765   2.788   8.917  14.279
39290SOL     OW19766   6.202   7.179  13.239
39290SOL    HW119767   6.224   7.216  13.154
39290SOL    HW219768   6.139   7.110  13.219
39291SOL     OW19769   2.324   0.578   5.882
39291SOL    HW119770   2.392   0.646   5.882
39291SOL    HW219771   2.244   0.626   5.862
39292SOL     OW19772   5.532  13.440   7.887
39292SOL    HW119773   5.565  13.384   7.817
39292SOL    HW219774   5.496  13.379   7.951
39293SOL     OW19775  10.206   3.785   3.998
39293SOL    HW119776  10.167   3.866   3.964
39293SOL    HW219777  10.141   3.718   3.978
39294SOL     OW19778   7.753  11.479   9.290
39294SOL    HW119779   7.774  11.450   9.379
39294SOL    HW219780   7.696  11.411   9.255
39295SOL     OW19781   8.881  14.021   6.540
39295SOL    HW119782   8.839  13.948   6.495
39295SOL    HW219783   8.809  14.078   6.567
39296SOL     OW19784   8.236  10.080  12.439
39296SOL    HW119785   8.160  10.038  12.399
39296SOL    HW219786   8.206  10.168  12.462
39297SOL     OW19787   7.100  10.025  12.692
39297SOL    HW119788   7.022  10.080  12.686
39297SOL    HW219789   7.071   9.939  12.662
39298SOL     OW19790   3.659  14.722   1.618
39298SOL    HW119791   3.719  14.797   1.619
39298SOL    HW219792   3.638  14.706   1.710
39299SOL     OW19793   1.230   8.902  14.471
39299SOL    HW119794   1.188   8.975  14.517
39299SOL    HW219795   1.269   8.942  14.393
39300SOL     OW19796  11.806  11.302  12.529
39300SOL    HW119797  11.889  11.259  12.509
39300SOL    HW219798  11.741  11.231  12.530
39301SOL     OW19799   3.435   4.381   7.508
39301SOL    HW119800   3.366   4.420   7.454
39301SOL    HW219801   3.450   4.295   7.468
39302SOL     OW19802  14.820  13.997   3.989
39302SOL    HW119803  14.738  14.023   3.946
39302SOL    HW219804  14.861  13.936   3.928
39303SOL     OW19805  13.498   3.696   4.766
39303SOL    HW119806  13.440   3.735   4.701
39303SOL    HW219807  13.481   3.745   4.846
39304SOL     OW19808  14.562   4.385   6.106
39304SOL    HW119809  14.627   4.317   6.119
39304SOL    HW219810  14.515   4.389   6.189
39305SOL     OW19811   5.489   7.805  13.530
39305SOL    HW119812   5.399   7.778  13.510
39305SOL    HW219813   5.490   7.812  13.626
39306SOL     OW19814   0.260  10.917   6.322
39306SOL    HW119815   0.354  10.933   6.332
39306SOL    HW219816   0.225  10.926   6.410
39307SOL     OW19817   0.624   8.892   3.085
39307SOL    HW119818   0.603   8.888   2.992
39307SOL    HW219819   0.655   8.981   3.099
39308SOL     OW19820  12.874  10.488   1.635
39308SOL    HW119821  12.802  10.425   1.628
39308SOL    HW219822  12.918  10.484   1.550
39309SOL     OW19823   5.131  11.047   9.027
39309SOL    HW119824   5.143  11.014   8.938
39309SOL    HW219825   5.219  11.056   9.062
39310SOL     OW19826   6.085  14.581   9.350
39310SOL    HW119827   6.140  14.656   9.330
39310SOL    HW219828   6.087  14.574   9.446
39311SOL     OW19829   8.782   6.733  14.132
39311SOL    HW119830   8.873   6.758  14.143
39311SOL    HW219831   8.739   6.813  14.101
39312SOL     OW19832   4.246   8.196   8.513
39312SOL    HW119833   4.263   8.109   8.551
39312SOL    HW219834   4.315   8.207   8.447
39313SOL     OW19835   6.882   7.344  10.804
39313SOL    HW119836   6.861   7.397  10.881
39313SOL    HW219837   6.887   7.408  10.733
39314SOL     OW19838   3.259  14.219   9.428
39314SOL    HW119839   3.299  14.212   9.514
39314SOL    HW219840   3.165  14.225   9.446
39315SOL     OW19841   5.094  14.295   6.562
39315SOL    HW119842   5.034  14.223   6.582
39315SOL    HW219843   5.135  14.316   6.646
39316SOL     OW19844   1.366   2.014  10.453
39316SOL    HW119845   1.442   2.073  10.450
39316SOL    HW219846   1.396   1.935  10.408
39317SOL     OW19847  14.188   6.822  13.536
39317SOL    HW119848  14.173   6.837  13.443
39317SOL    HW219849  14.273   6.778  13.539
39318SOL     OW19850   0.035  13.655  10.474
39318SOL    HW119851   0.012  13.726  10.535
39318SOL    HW219852   0.126  13.635  10.494
39319SOL     OW19853   0.357  11.988   2.702
39319SOL    HW119854   0.390  11.898   2.698
39319SOL    HW219855   0.405  12.035   2.635
39320SOL     OW19856   9.863  13.736   2.857
39320SOL    HW119857   9.872  13.649   2.894
39320SOL    HW219858   9.796  13.778   2.911
39321SOL     OW19859   0.210   1.071   2.106
39321SOL    HW119860   0.221   1.004   2.039
39321SOL    HW219861   0.191   1.023   2.186
39322SOL     OW19862   1.672  11.413   1.226
39322SOL    HW119863   1.590  11.367   1.246
39322SOL    HW219864   1.661  11.443   1.135
39323SOL     OW19865   1.134   0.641   2.566
39323SOL    HW119866   1.204   0.656   2.629
39323SOL    HW219867   1.074   0.580   2.610
39324SOL     OW19868   2.387   7.507  11.347
39324SOL    HW119869   2.369   7.554  11.266
39324SOL    HW219870   2.379   7.414  11.324
39325SOL     OW19871   3.855   3.125   1.881
39325SOL    HW119872   3.831   3.182   1.954
39325SOL    HW219873   3.791   3.146   1.813
39326SOL     OW19874   6.988  12.396   7.991
39326SOL    HW119875   6.956  12.482   8.017
39326SOL    HW219876   6.966  12.339   8.065
39327SOL     OW19877   3.278   6.381  10.728
39327SOL    HW119878   3.202   6.419  10.685
39327SOL    HW219879   3.353   6.411  10.676
39328SOL     OW19880  10.870   2.351   6.862
39328SOL    HW119881  10.917   2.364   6.944
39328SOL    HW219882  10.877   2.257   6.845
39329SOL     OW19883   1.460   2.852   6.212
39329SOL    HW119884   1.543   2.807   6.231
39329SOL    HW219885   1.440   2.899   6.293
39330SOL     OW19886   9.605   7.367   1.733
39330SOL    HW119887   9.572   7.377   1.643
39330SOL    HW219888   9.693   7.332   1.722
39331SOL     OW19889  14.511   0.766   7.020
39331SOL    HW119890  14.436   0.731   7.069
39331SOL    HW219891  14.507   0.722   6.935
39332SOL     OW19892   7.614   1.539  10.487
39332SOL    HW119893   7.540   1.599  10.477
39332SOL    HW219894   7.667   1.576  10.557
39333SOL     OW19895  14.093   9.306   0.249
39333SOL    HW119896  14.094   9.401   0.266
39333SOL    HW219897  14.156   9.270   0.311
39334SOL     OW19898   9.877   6.349  12.528
39334SOL    HW119899   9.911   6.439  12.531
39334SOL    HW219900   9.783   6.359  12.542
39335SOL     OW19901  11.207   6.339  13.696
39335SOL    HW119902  11.116   6.324  13.671
39335SOL    HW219903  11.254   6.344  13.613
39336SOL     OW19904  11.493   6.565   7.079
39336SOL    HW119905  11.547   6.540   7.004
39336SOL    HW219906  11.427   6.624   7.042
39337SOL     OW19907  12.205   6.686  12.551
39337SOL    HW119908  12.277   6.747  12.537
39337SOL    HW219909  12.191   6.644  12.466
39338SOL     OW19910   5.255   0.254   8.008
39338SOL    HW119911   5.278   0.162   7.997
39338SOL    HW219912   5.278   0.274   8.098
39339SOL     OW19913   1.784   4.632  12.307
39339SOL    HW119914   1.848   4.703  12.315
39339SOL    HW219915   1.816   4.564  12.366
39340SOL     OW19916   2.832   4.281  11.750
39340SOL    HW119917   2.845   4.192  11.782
39340SOL    HW219918   2.779   4.271  11.671
39341SOL     OW19919  11.491  13.158  11.409
39341SOL    HW119920  11.552  13.224  11.376
39341SOL    HW219921  11.475  13.101  11.333
39342SOL     OW19922  12.045   8.827   0.440
39342SOL    HW119923  12.072   8.881   0.366
39342SOL    HW219924  11.954   8.804   0.422
39343SOL     OW19925   1.767  13.934  10.532
39343SOL    HW119926   1.767  14.021  10.572
39343SOL    HW219927   1.836  13.938  10.467
39344SOL     OW19928  10.313   4.921   8.487
39344SOL    HW119929  10.376   4.877   8.545
39344SOL    HW219930  10.296   5.004   8.531
39345SOL     OW19931   3.196   2.651  10.574
39345SOL    HW119932   3.238   2.579  10.527
39345SOL    HW219933   3.239   2.729  10.542
39346SOL     OW19934   3.917  11.657  10.268
39346SOL    HW119935   3.996  11.711  10.272
39346SOL    HW219936   3.880  11.674  10.181
39347SOL     OW19937   4.523   5.229   2.824
39347SOL    HW119938   4.594   5.165   2.823
39347SOL    HW219939   4.567   5.314   2.815
39348SOL     OW19940   3.372   3.602   8.498
39348SOL    HW119941   3.372   3.631   8.407
39348SOL    HW219942   3.348   3.509   8.494
39349SOL     OW19943  10.056   1.015  12.012
39349SOL    HW119944  10.145   0.981  12.019
39349SOL    HW219945  10.050   1.082  12.080
39350SOL     OW19946   8.353  10.480   3.903
39350SOL    HW119947   8.427  10.510   3.850
39350SOL    HW219948   8.278  10.530   3.871
39351SOL     OW19949   5.827   6.856   5.322
39351SOL    HW119950   5.871   6.876   5.239
39351SOL    HW219951   5.853   6.927   5.381
39352SOL     OW19952   8.096   2.416   6.174
39352SOL    HW119953   8.022   2.414   6.113
39352SOL    HW219954   8.171   2.392   6.121
39353SOL     OW19955   6.467   6.421  12.112
39353SOL    HW119956   6.463   6.510  12.149
39353SOL    HW219957   6.554   6.415  12.074
39354SOL     OW19958   8.019  11.011   2.549
39354SOL    HW119959   7.989  11.095   2.513
39354SOL    HW219960   8.024  10.953   2.474
39355SOL     OW19961   1.573   4.367  12.200
39355SOL    HW119962   1.657   4.391  12.160
39355SOL    HW219963   1.597   4.316  12.277
39356SOL     OW19964   9.666   0.643  12.909
39356SOL    HW119965   9.605   0.580  12.870
39356SOL    HW219966   9.644   0.726  12.867
39357SOL     OW19967   1.499   9.388   8.898
39357SOL    HW119968   1.415   9.372   8.941
39357SOL    HW219969   1.552   9.311   8.922
39358SOL     OW19970  13.215   2.776   5.976
39358SOL    HW119971  13.228   2.728   5.894
39358SOL    HW219972  13.184   2.710   6.038
39359SOL     OW19973   9.260   7.498  14.831
39359SOL    HW119974   9.201   7.494  14.755
39359SOL    HW219975   9.275   7.406  14.854
39360SOL     OW19976   8.772  12.728  10.794
39360SOL    HW119977   8.783  12.793  10.863
39360SOL    HW219978   8.730  12.776  10.722
39361SOL     OW19979   8.599   7.292   1.594
39361SOL    HW119980   8.545   7.223   1.633
39361SOL    HW219981   8.539   7.338   1.534
39362SOL     OW19982  11.554   6.393   5.769
39362SOL    HW119983  11.598   6.475   5.792
39362SOL    HW219984  11.614   6.349   5.709
39363SOL     OW19985   7.647  12.542  13.229
39363SOL    HW119986   7.588  12.564  13.157
39363SOL    HW219987   7.614  12.459  13.263
39364SOL     OW19988   5.007  12.488  10.815
39364SOL    HW119989   5.034  12.405  10.776
39364SOL    HW219990   5.089  12.529  10.843
39365SOL     OW19991   8.668  12.561   7.707
39365SOL    HW119992   8.666  12.656   7.712
39365SOL    HW219993   8.733  12.535   7.772
39366SOL     OW19994   2.508   6.368   1.382
39366SOL    HW119995   2.494   6.462   1.390
39366SOL    HW219996   2.517   6.337   1.472
39367SOL     OW19997   4.505   0.192   4.350
39367SOL    HW119998   4.521   0.124   4.285
39367SOL    HW219999   4.496   0.273   4.298
39368SOL     OW20000   0.460   5.300   9.227
39368SOL    HW120001   0.539   5.292   9.173
39368SOL    HW220002   0.440   5.210   9.252
39369SOL     OW20003  11.891  10.531   7.418
39369SOL    HW120004  11.834  10.455   7.409
39369SOL    HW220005  11.840  10.593   7.470
39370SOL     OW20006  12.950   7.726   9.134
39370SOL    HW120007  12.867   7.696   9.098
39370SOL    HW220008  13.010   7.652   9.123
39371SOL     OW20009   0.295  14.590   3.083
39371SOL    HW120010   0.371  14.555   3.129
39371SOL    HW220011   0.219  14.552   3.128
39372SOL     OW20012   8.661  14.622   2.331
39372SOL    HW120013   8.655  14.577   2.247
39372SOL    HW220014   8.730  14.688   2.318
39373SOL     OW20015   5.867   7.387   0.743
39373SOL    HW120016   5.838   7.393   0.834
39373SOL    HW220017   5.835   7.302   0.713
39374SOL     OW20018  10.099   4.808   5.409
39374SOL    HW120019  10.135   4.884   5.363
39374SOL    HW220020  10.009   4.834   5.431
39375SOL     OW20021  13.571   6.256   8.712
39375SOL    HW120022  13.661   6.268   8.681
39375SOL    HW220023  13.580   6.248   8.807
39376SOL     OW20024   8.183  13.841  10.668
39376SOL    HW120025   8.238  13.772  10.706
39376SOL    HW220026   8.207  13.920  10.717
39377SOL     OW20027  14.745   5.054   2.350
39377SOL    HW120028  14.674   5.007   2.305
39377SOL    HW220029  14.770   5.124   2.290
39378SOL     OW20030  12.891   0.753  10.709
39378SOL    HW120031  12.927   0.827  10.661
39378SOL    HW220032  12.812   0.788  10.751
39379SOL     OW20033  14.577   3.327   6.127
39379SOL    HW120034  14.579   3.298   6.036
39379SOL    HW220035  14.484   3.343   6.145
39380SOL     OW20036   2.489  13.683  11.497
39380SOL    HW120037   2.544  13.746  11.542
39380SOL    HW220038   2.544  13.650  11.425
39381SOL     OW20039   7.943   1.239   5.294
39381SOL    HW120040   7.970   1.147   5.285
39381SOL    HW220041   8.025   1.286   5.309
39382SOL     OW20042  13.136  10.368  10.705
39382SOL    HW120043  13.062  10.426  10.723
39382SOL    HW220044  13.193  10.376  10.781
39383SOL     OW20045   7.521   6.327   5.358
39383SOL    HW120046   7.491   6.238   5.377
39383SOL    HW220047   7.571   6.353   5.435
39384SOL     OW20048   8.097   4.428   1.573
39384SOL    HW120049   8.092   4.380   1.655
39384SOL    HW220050   8.105   4.520   1.599
39385SOL     OW20051   3.898   5.550   5.540
39385SOL    HW120052   3.862   5.606   5.608
39385SOL    HW220053   3.993   5.554   5.553
39386SOL     OW20054   4.503  12.433  14.286
39386SOL    HW120055   4.431  12.489  14.258
39386SOL    HW220056   4.579  12.492  14.289
39387SOL     OW20057   4.473  13.860   9.032
39387SOL    HW120058   4.501  13.940   9.077
39387SOL    HW220059   4.385  13.880   9.001
39388SOL     OW20060   4.267  11.034   1.955
39388SOL    HW120061   4.263  11.002   1.865
39388SOL    HW220062   4.359  11.057   1.968
39389SOL     OW20063   5.304   2.850   3.632
39389SOL    HW120064   5.391   2.818   3.658
39389SOL    HW220065   5.244   2.782   3.663
39390SOL     OW20066   6.519  11.706   7.419
39390SOL    HW120067   6.474  11.623   7.437
39390SOL    HW220068   6.464  11.749   7.354
39391SOL     OW20069   7.748   6.233  12.114
39391SOL    HW120070   7.838   6.223  12.082
39391SOL    HW220071   7.738   6.162  12.178
39392SOL     OW20072   1.514   4.347   6.891
39392SOL    HW120073   1.446   4.384   6.834
39392SOL    HW220074   1.471   4.275   6.937
39393SOL     OW20075   4.549  11.755  10.451
39393SOL    HW120076   4.468  11.739  10.500
39393SOL    HW220077   4.594  11.824  10.501
39394SOL     OW20078   2.678  12.126   3.509
39394SOL    HW120079   2.714  12.090   3.428
39394SOL    HW220080   2.743  12.106   3.576
39395SOL     OW20081   7.655   0.622  10.679
39395SOL    HW120082   7.711   0.594  10.752
39395SOL    HW220083   7.695   0.583  10.602
39396SOL     OW20084   0.962   6.003  12.085
39396SOL    HW120085   0.882   6.010  12.032
39396SOL    HW220086   0.998   5.917  12.062
39397SOL     OW20087   2.711   2.677  12.632
39397SOL    HW120088   2.728   2.696  12.540
39397SOL    HW220089   2.670   2.590  12.631
39398SOL     OW20090  13.965  11.494   4.603
39398SOL    HW120091  13.923  11.448   4.675
39398SOL    HW220092  13.981  11.583   4.636
39399SOL     OW20093  13.449   0.061  10.277
39399SOL    HW120094  13.495  14.850  10.252
39399SOL    HW220095  13.474   0.075  10.368
39400SOL     OW20096  12.211  10.055   8.774
39400SOL    HW120097  12.267  10.089   8.844
39400SOL    HW220098  12.266   9.993   8.727
39401SOL     OW20099   0.470   9.738   6.121
39401SOL    HW120100   0.465   9.713   6.029
39401SOL    HW220101   0.453   9.832   6.121
39402SOL     OW20102   0.211   3.312   3.143
39402SOL    HW120103   0.212   3.267   3.058
39402SOL    HW220104   0.281   3.377   3.136
39403SOL     OW20105  10.374   6.557   7.159
39403SOL    HW120106  10.463   6.570   7.129
39403SOL    HW220107  10.384   6.525   7.249
39404SOL     OW20108  12.240   0.422   0.988
39404SOL    HW120109  12.165   0.408   1.046
39404SOL    HW220110  12.203   0.463   0.910
39405SOL     OW20111   7.952   2.151  13.849
39405SOL    HW120112   7.895   2.191  13.784
39405SOL    HW220113   7.894   2.127  13.921
39406SOL     OW20114   9.924   8.376   5.087
39406SOL    HW120115   9.880   8.329   5.016
39406SOL    HW220116   9.857   8.384   5.155
39407SOL     OW20117   0.508  14.326   6.144
39407SOL    HW120118   0.537  14.327   6.053
39407SOL    HW220119   0.439  14.259   6.147
39408SOL     OW20120  14.312   7.305   3.075
39408SOL    HW120121  14.401   7.321   3.044
39408SOL    HW220122  14.320   7.231   3.136
39409SOL     OW20123   7.731   9.828  13.930
39409SOL    HW120124   7.659   9.808  13.870
39409SOL    HW220125   7.702   9.905  13.978
39410SOL     OW20126   5.399   6.376  12.838
39410SOL    HW120127   5.352   6.300  12.803
39410SOL    HW220128   5.433   6.345  12.923
39411SOL     OW20129  12.683   0.811  10.945
39411SOL    HW120130  12.714   0.762  11.022
39411SOL    HW220131  12.662   0.898  10.978
39412SOL     OW20132  14.833   7.145   8.731
39412SOL    HW120133  14.747   7.134   8.772
39412SOL    HW220134   0.011   7.066   8.754
39413SOL     OW20135   4.259   4.229  13.042
39413SOL    HW120136   4.347   4.259  13.065
39413SOL    HW220137   4.273   4.146  12.995
39414SOL     OW20138   1.186   3.807   3.155
39414SOL    HW120139   1.162   3.752   3.229
39414SOL    HW220140   1.131   3.775   3.083
39415SOL     OW20141  11.809  11.725   2.411
39415SOL    HW120142  11.863  11.672   2.352
39415SOL    HW220143  11.866  11.797   2.438
39416SOL     OW20144  10.257   2.155   8.975
39416SOL    HW120145  10.277   2.228   8.916
39416SOL    HW220146  10.280   2.188   9.062
39417SOL     OW20147   1.925   6.578   9.986
39417SOL    HW120148   1.873   6.560   9.907
39417SOL    HW220149   1.869   6.548  10.058
39418SOL     OW20150  10.747  14.432   7.485
39418SOL    HW120151  10.789  14.370   7.425
39418SOL    HW220152  10.704  14.495   7.428
39419SOL     OW20153   4.322   6.058   4.927
39419SOL    HW120154   4.298   6.078   5.017
39419SOL    HW220155   4.389   5.989   4.935
39420SOL     OW20156   7.014   5.637   3.534
39420SOL    HW120157   7.084   5.622   3.598
39420SOL    HW220158   6.995   5.549   3.499
39421SOL     OW20159   0.698   0.246   0.234
39421SOL    HW120160   0.637   0.251   0.307
39421SOL    HW220161   0.665   0.174   0.179
39422SOL     OW20162   5.479   2.478  11.534
39422SOL    HW120163   5.401   2.423  11.534
39422SOL    HW220164   5.524   2.455  11.453
39423SOL     OW20165   2.203   9.767  14.263
39423SOL    HW120166   2.263   9.788  14.191
39423SOL    HW220167   2.121   9.743  14.220
39424SOL     OW20168   4.223  11.356   6.151
39424SOL    HW120169   4.161  11.290   6.120
39424SOL    HW220170   4.173  11.407   6.214
39425SOL     OW20171   9.900   4.253  14.093
39425SOL    HW120172   9.985   4.213  14.110
39425SOL    HW220173   9.913   4.304  14.013
39426SOL     OW20174  13.896  12.385   6.474
39426SOL    HW120175  13.925  12.473   6.499
39426SOL    HW220176  13.968  12.327   6.502
39427SOL     OW20177  12.031  14.849   9.756
39427SOL    HW120178  12.007  14.768   9.711
39427SOL    HW220179  11.948   0.020   9.780
39428SOL     OW20180   4.933   2.381  12.002
39428SOL    HW120181   4.941   2.416  12.091
39428SOL    HW220182   5.017   2.401  11.960
39429SOL     OW20183  10.773  11.740  11.479
39429SOL    HW120184  10.746  11.807  11.541
39429SOL    HW220185  10.866  11.758  11.462
39430SOL     OW20186   1.948  12.980   0.201
39430SOL    HW120187   2.039  12.957   0.221
39430SOL    HW220188   1.926  12.924   0.126
39431SOL     OW20189  10.005  14.841   1.131
39431SOL    HW120190   9.912  14.825   1.120
39431SOL    HW220191  10.047  14.757   1.110
39432SOL     OW20192  12.546  12.484   4.782
39432SOL    HW120193  12.527  12.479   4.876
39432SOL    HW220194  12.485  12.550   4.748
39433SOL     OW20195   6.779  14.620   3.440
39433SOL    HW120196   6.801  14.527   3.435
39433SOL    HW220197   6.759  14.635   3.533
39434SOL     OW20198   5.881   0.796   7.366
39434SOL    HW120199   5.970   0.761   7.376
39434SOL    HW220200   5.859   0.831   7.452
39435SOL     OW20201  10.305   5.541  11.527
39435SOL    HW120202  10.341   5.467  11.478
39435SOL    HW220203  10.364   5.552  11.601
39436SOL     OW20204   6.850  11.503   0.879
39436SOL    HW120205   6.881  11.503   0.970
39436SOL    HW220206   6.929  11.503   0.826
39437SOL     OW20207   6.481   7.229   4.450
39437SOL    HW120208   6.460   7.200   4.362
39437SOL    HW220209   6.462   7.154   4.506
39438SOL     OW20210   3.574  11.450   6.544
39438SOL    HW120211   3.519  11.527   6.528
39438SOL    HW220212   3.523  11.376   6.510
39439SOL     OW20213   6.071  10.966  12.099
39439SOL    HW120214   6.001  10.939  12.040
39439SOL    HW220215   6.084  11.059  12.080
39440SOL     OW20216   2.141  13.608  14.038
39440SOL    HW120217   2.173  13.684  13.989
39440SOL    HW220218   2.146  13.536  13.975
39441SOL     OW20219  13.564  10.706   5.693
39441SOL    HW120220  13.602  10.619   5.683
39441SOL    HW220221  13.569  10.725   5.786
39442SOL     OW20222   0.778   9.766  13.290
39442SOL    HW120223   0.683   9.776  13.284
39442SOL    HW220224   0.804   9.729  13.206
39443SOL     OW20225   7.654   9.801   6.772
39443SOL    HW120226   7.724   9.866   6.764
39443SOL    HW220227   7.618   9.793   6.684
39444SOL     OW20228  13.490   9.315   1.362
39444SOL    HW120229  13.424   9.315   1.431
39444SOL    HW220230  13.546   9.390   1.382
39445SOL     OW20231  12.757   9.925   4.859
39445SOL    HW120232  12.698   9.851   4.866
39445SOL    HW220233  12.821   9.912   4.929
39446SOL     OW20234  14.837   6.537  11.258
39446SOL    HW120235  14.776   6.607  11.282
39446SOL    HW220236  14.792   6.457  11.281
39447SOL     OW20237   3.933  11.188   9.438
39447SOL    HW120238   3.900  11.264   9.486
39447SOL    HW220239   4.013  11.163   9.483
39448SOL     OW20240  12.552   1.974  13.813
39448SOL    HW120241  12.481   1.913  13.789
39448SOL    HW220242  12.565   2.027  13.735
39449SOL     OW20243  14.248   5.523   4.015
39449SOL    HW120244  14.250   5.618   4.030
39449SOL    HW220245  14.197   5.488   4.089
39450SOL     OW20246  11.544  10.711  10.962
39450SOL    HW120247  11.572  10.677  10.876
39450SOL    HW220248  11.585  10.797  10.968
39451SOL     OW20249  13.681   1.112   4.944
39451SOL    HW120250  13.750   1.158   4.895
39451SOL    HW220251  13.658   1.038   4.888
39452SOL     OW20252   4.729  12.838  13.936
39452SOL    HW120253   4.736  12.902  13.866
39452SOL    HW220254   4.635  12.821  13.944
39453SOL     OW20255   3.808   3.687  14.269
39453SOL    HW120256   3.761   3.666  14.350
39453SOL    HW220257   3.765   3.634  14.202
39454SOL     OW20258   9.810   4.056   0.717
39454SOL    HW120259   9.888   4.067   0.772
39454SOL    HW220260   9.784   4.145   0.695
39455SOL     OW20261  12.692   3.830  10.567
39455SOL    HW120262  12.677   3.778  10.646
39455SOL    HW220263  12.740   3.771  10.508
39456SOL     OW20264   0.915  10.731   5.511
39456SOL    HW120265   0.993  10.767   5.469
39456SOL    HW220266   0.946  10.699   5.596
39457SOL     OW20267  14.071  10.111   8.247
39457SOL    HW120268  14.076  10.178   8.179
39457SOL    HW220269  14.159  10.074   8.250
39458SOL     OW20270  13.985   8.711   1.408
39458SOL    HW120271  13.909   8.657   1.430
39458SOL    HW220272  13.954   8.801   1.417
39459SOL     OW20273   0.224   6.908  10.196
39459SOL    HW120274   0.153   6.970  10.215
39459SOL    HW220275   0.180   6.823  10.193
39460SOL     OW20276  14.770   1.225  14.705
39460SOL    HW120277  14.799   1.247  14.794
39460SOL    HW220278  14.785   1.305  14.655
39461SOL     OW20279  13.001   6.010  10.982
39461SOL    HW120280  12.956   6.061  11.050
39461SOL    HW220281  12.958   6.037  10.900
39462SOL     OW20282  14.852  12.462   6.971
39462SOL    HW120283   0.074  12.488   6.982
39462SOL    HW220284  14.857  12.378   6.926
39463SOL     OW20285   9.801  12.921   4.723
39463SOL    HW120286   9.862  12.985   4.759
39463SOL    HW220287   9.807  12.846   4.783
39464SOL     OW20288   4.850   7.163   2.865
39464SOL    HW120289   4.825   7.228   2.798
39464SOL    HW220290   4.793   7.182   2.939
39465SOL     OW20291   8.739   7.372   1.828
39465SOL    HW120292   8.730   7.340   1.738
39465SOL    HW220293   8.700   7.303   1.882
39466SOL     OW20294   2.366   8.672   0.190
39466SOL    HW120295   2.403   8.740   0.134
39466SOL    HW220296   2.327   8.609   0.129
39467SOL     OW20297   1.588  13.897  12.833
39467SOL    HW120298   1.616  13.973  12.883
39467SOL    HW220299   1.668  13.866  12.790
39468SOL     OW20300   4.853   0.874  10.191
39468SOL    HW120301   4.882   0.785  10.173
39468SOL    HW220302   4.934   0.922  10.211
39469SOL     OW20303   7.363  10.884   1.014
39469SOL    HW120304   7.423  10.934   0.959
39469SOL    HW220305   7.362  10.931   1.097
39470SOL     OW20306   1.886  14.837   8.593
39470SOL    HW120307   1.923   0.019   8.522
39470SOL    HW220308   1.937  14.756   8.593
39471SOL     OW20309   6.925   3.130  14.652
39471SOL    HW120310   6.850   3.188  14.660
39471SOL    HW220311   6.933   3.088  14.737
39472SOL     OW20312   1.492   8.012   2.649
39472SOL    HW120313   1.493   7.956   2.727
39472SOL    HW220314   1.524   7.955   2.579
39473SOL     OW20315  11.708   0.872   3.757
39473SOL    HW120316  11.790   0.913   3.731
39473SOL    HW220317  11.674   0.929   3.826
39474SOL     OW20318  10.623   0.112   8.249
39474SOL    HW120319  10.531   0.139   8.247
39474SOL    HW220320  10.656   0.132   8.162
39475SOL     OW20321   2.751   3.003   4.064
39475SOL    HW120322   2.793   3.072   4.013
39475SOL    HW220323   2.727   2.936   3.999
39476SOL     OW20324  14.541   5.377   2.063
39476SOL    HW120325  14.615   5.433   2.039
39476SOL    HW220326  14.475   5.394   1.996
39477SOL     OW20327   8.927   4.945   0.347
39477SOL    HW120328   8.953   4.879   0.283
39477SOL    HW220329   9.000   5.007   0.349
39478SOL     OW20330  12.774   7.840  12.224
39478SOL    HW120331  12.743   7.803  12.306
39478SOL    HW220332  12.709   7.907  12.201
39479SOL     OW20333  13.523  14.034   2.997
39479SOL    HW120334  13.592  13.969   3.012
39479SOL    HW220335  13.570  14.115   2.979
39480SOL     OW20336  10.125   7.423   8.455
39480SOL    HW120337  10.127   7.518   8.445
39480SOL    HW220338  10.155   7.408   8.544
39481SOL     OW20339   4.134  13.149  14.060
39481SOL    HW120340   4.099  13.176  13.975
39481SOL    HW220341   4.223  13.183  14.060
39482SOL     OW20342   6.408   0.081   0.015
39482SOL    HW120343   6.403   0.141  14.811
39482SOL    HW220344   6.356   0.123   0.084
39483SOL     OW20345  12.825   9.774   6.062
39483SOL    HW120346  12.741   9.737   6.037
39483SOL    HW220347  12.859   9.714   6.129
39484SOL     OW20348   4.452  12.670   8.557
39484SOL    HW120349   4.505  12.595   8.584
39484SOL    HW220350   4.375  12.631   8.516
39485SOL     OW20351  12.961   5.185  10.728
39485SOL    HW120352  13.035   5.228  10.771
39485SOL    HW220353  12.965   5.095  10.760
39486SOL     OW20354  13.272   5.802  12.541
39486SOL    HW120355  13.311   5.787  12.455
39486SOL    HW220356  13.289   5.895  12.559
39487SOL     OW20357   8.714   8.179  14.027
39487SOL    HW120358   8.772   8.206  13.956
39487SOL    HW220359   8.739   8.234  14.101
39488SOL     OW20360   2.030   9.996   1.378
39488SOL    HW120361   2.057   9.929   1.315
39488SOL    HW220362   1.963  10.046   1.332
39489SOL     OW20363   5.805   1.751  13.266
39489SOL    HW120364   5.775   1.696  13.338
39489SOL    HW220365   5.850   1.824  13.308
39490SOL     OW20366   9.245   9.336  13.308
39490SOL    HW120367   9.335   9.351  13.280
39490SOL    HW220368   9.200   9.419  13.292
39491SOL     OW20369  14.471  11.860   0.414
39491SOL    HW120370  14.436  11.919   0.481
39491SOL    HW220371  14.459  11.908   0.332
39492SOL     OW20372   4.507   2.321   7.325
39492SOL    HW120373   4.424   2.357   7.358
39492SOL    HW220374   4.555   2.297   7.405
39493SOL     OW20375   5.280   3.172  12.015
39493SOL    HW120376   5.304   3.092  11.969
39493SOL    HW220377   5.253   3.233  11.946
39494SOL     OW20378   3.106   7.125   0.568
39494SOL    HW120379   3.065   7.208   0.590
39494SOL    HW220380   3.062   7.061   0.624
39495SOL     OW20381   4.444   4.003   0.607
39495SOL    HW120382   4.447   4.079   0.549
39495SOL    HW220383   4.422   4.040   0.693
39496SOL     OW20384   6.252   6.299   7.601
39496SOL    HW120385   6.248   6.381   7.650
39496SOL    HW220386   6.162   6.283   7.573
39497SOL     OW20387   3.309   1.788  10.093
39497SOL    HW120388   3.219   1.764  10.114
39497SOL    HW220389   3.339   1.836  10.170
39498SOL     OW20390   6.497   9.459   4.313
39498SOL    HW120391   6.415   9.509   4.319
39498SOL    HW220392   6.474   9.371   4.341
39499SOL     OW20393   8.686   8.897   2.430
39499SOL    HW120394   8.593   8.897   2.452
39499SOL    HW220395   8.695   8.965   2.364
39500SOL     OW20396  10.910  11.254   2.908
39500SOL    HW120397  10.828  11.206   2.914
39500SOL    HW220398  10.887  11.335   2.863
39501SOL     OW20399   0.378   9.981   9.281
39501SOL    HW120400   0.380  10.067   9.322
39501SOL    HW220401   0.453   9.935   9.318
39502SOL     OW20402   7.312   1.290   7.323
39502SOL    HW120403   7.269   1.278   7.408
39502SOL    HW220404   7.297   1.208   7.277
39503SOL     OW20405  13.580   0.501   1.595
39503SOL    HW120406  13.493   0.542   1.599
39503SOL    HW220407  13.565   0.418   1.549
39504SOL     OW20408   2.440  13.430   4.488
39504SOL    HW120409   2.524  13.474   4.500
39504SOL    HW220410   2.439  13.404   4.395
39505SOL     OW20411   9.196   5.270  13.037
39505SOL    HW120412   9.245   5.188  13.047
39505SOL    HW220413   9.127   5.264  13.104
39506SOL     OW20414   0.459   6.483   5.490
39506SOL    HW120415   0.420   6.422   5.427
39506SOL    HW220416   0.428   6.569   5.462
39507SOL     OW20417   1.683  10.784   3.316
39507SOL    HW120418   1.732  10.736   3.249
39507SOL    HW220419   1.748  10.807   3.382
39508SOL     OW20420   1.234   3.398   0.528
39508SOL    HW120421   1.293   3.453   0.476
39508SOL    HW220422   1.146   3.423   0.498
39509SOL     OW20423  12.622   0.440  11.794
39509SOL    HW120424  12.570   0.370  11.833
39509SOL    HW220425  12.563   0.515  11.792
39510SOL     OW20426  10.995   9.937   5.476
39510SOL    HW120427  11.057   9.933   5.549
39510SOL    HW220428  11.027   9.871   5.414
39511SOL     OW20429  12.647  12.727  13.940
39511SOL    HW120430  12.657  12.801  13.880
39511SOL    HW220431  12.615  12.766  14.021
39512SOL     OW20432   4.713   3.744   2.198
39512SOL    HW120433   4.676   3.812   2.254
39512SOL    HW220434   4.659   3.667   2.215
39513SOL     OW20435   8.780   8.891   3.813
39513SOL    HW120436   8.816   8.868   3.727
39513SOL    HW220437   8.691   8.920   3.795
39514SOL     OW20438   2.465   2.158  10.244
39514SOL    HW120439   2.540   2.213  10.224
39514SOL    HW220440   2.396   2.220  10.268
39515SOL     OW20441   8.799  11.395   9.441
39515SOL    HW120442   8.759  11.419   9.524
39515SOL    HW220443   8.766  11.307   9.423
39516SOL     OW20444   8.070   4.136   1.525
39516SOL    HW120445   8.091   4.226   1.498
39516SOL    HW220446   8.111   4.127   1.612
39517SOL     OW20447   5.021   1.763  13.040
39517SOL    HW120448   5.050   1.854  13.039
39517SOL    HW220449   5.097   1.715  13.073
39518SOL     OW20450   2.605   8.300   9.007
39518SOL    HW120451   2.627   8.372   8.948
39518SOL    HW220452   2.666   8.309   9.080
39519SOL     OW20453   2.592   9.103   5.300
39519SOL    HW120454   2.595   9.009   5.284
39519SOL    HW220455   2.515   9.116   5.355
39520SOL     OW20456   3.870   6.781  10.099
39520SOL    HW120457   3.777   6.792  10.119
39520SOL    HW220458   3.884   6.829  10.017
39521SOL     OW20459  11.156  13.680  10.808
39521SOL    HW120460  11.124  13.627  10.882
39521SOL    HW220461  11.078  13.695  10.755
39522SOL     OW20462  12.943   7.974   7.571
39522SOL    HW120463  12.900   7.903   7.619
39522SOL    HW220464  12.935   8.050   7.628
39523SOL     OW20465   2.645  10.593   5.059
39523SOL    HW120466   2.637  10.654   5.131
39523SOL    HW220467   2.689  10.643   4.990
39524SOL     OW20468  14.291   4.528   1.750
39524SOL    HW120469  14.219   4.559   1.695
39524SOL    HW220470  14.361   4.505   1.689
39525SOL     OW20471   4.382   7.401  11.941
39525SOL    HW120472   4.337   7.389  12.025
39525SOL    HW220473   4.359   7.323  11.890
39526SOL     OW20474   7.209   8.895   7.063
39526SOL    HW120475   7.229   8.988   7.056
39526SOL    HW220476   7.200   8.865   6.972
39527SOL     OW20477  13.412   8.656   9.676
39527SOL    HW120478  13.466   8.702   9.612
39527SOL    HW220479  13.370   8.726   9.726
39528SOL     OW20480   0.958   9.035   1.887
39528SOL    HW120481   1.042   9.054   1.929
39528SOL    HW220482   0.970   9.060   1.796
39529SOL     OW20483   6.527  13.552   1.079
39529SOL    HW120484   6.600  13.494   1.101
39529SOL    HW220485   6.494  13.519   0.996
39530SOL     OW20486  14.005   0.958  11.559
39530SOL    HW120487  14.059   0.949  11.638
39530SOL    HW220488  13.987   1.052  11.554
39531SOL     OW20489  13.550  11.045   0.801
39531SOL    HW120490  13.519  11.126   0.760
39531SOL    HW220491  13.543  11.062   0.895
39532SOL     OW20492   6.944   5.122   8.810
39532SOL    HW120493   7.038   5.118   8.789
39532SOL    HW220494   6.905   5.167   8.735
39533SOL     OW20495   5.992   7.815  10.621
39533SOL    HW120496   5.901   7.818  10.592
39533SOL    HW220497   6.043   7.817  10.540
39534SOL     OW20498   3.769   9.823   1.629
39534SOL    HW120499   3.791   9.733   1.603
39534SOL    HW220500   3.789   9.825   1.723
39535SOL     OW20501   6.043   6.050  10.800
39535SOL    HW120502   6.076   6.128  10.844
39535SOL    HW220503   6.109   6.031  10.732
39536SOL     OW20504  13.712   0.198  12.118
39536SOL    HW120505  13.731   0.117  12.069
39536SOL    HW220506  13.689   0.262  12.051
39537SOL     OW20507  11.957   2.282   1.275
39537SOL    HW120508  12.043   2.309   1.241
39537SOL    HW220509  11.912   2.244   1.200
39538SOL     OW20510  10.863   3.529  13.122
39538SOL    HW120511  10.866   3.622  13.144
39538SOL    HW220512  10.777   3.500  13.155
39539SOL     OW20513   9.546   8.639  14.420
39539SOL    HW120514   9.534   8.552  14.459
39539SOL    HW220515   9.637   8.661  14.439
39540SOL     OW20516   0.535  10.998   4.446
39540SOL    HW120517   0.489  10.914   4.443
39540SOL    HW220518   0.614  10.980   4.496
39541SOL     OW20519  12.717   2.859   2.631
39541SOL    HW120520  12.743   2.860   2.723
39541SOL    HW220521  12.794   2.824   2.585
39542SOL     OW20522   6.183   7.828   1.984
39542SOL    HW120523   6.262   7.787   1.950
39542SOL    HW220524   6.206   7.920   1.996
39543SOL     OW20525   8.263  14.549   4.242
39543SOL    HW120526   8.308  14.529   4.159
39543SOL    HW220527   8.300  14.632   4.270
39544SOL     OW20528   0.556   5.721  14.045
39544SOL    HW120529   0.628   5.712  13.983
39544SOL    HW220530   0.478   5.699  13.993
39545SOL     OW20531   0.513  10.567   5.338
39545SOL    HW120532   0.587  10.620   5.307
39545SOL    HW220533   0.469  10.622   5.403
39546SOL     OW20534   4.536   3.010  13.683
39546SOL    HW120535   4.453   3.000  13.637
39546SOL    HW220536   4.573   3.092  13.649
39547SOL     OW20537  10.392   7.412   7.812
39547SOL    HW120538  10.391   7.317   7.807
39547SOL    HW220539  10.312   7.435   7.859
39548SOL     OW20540  14.239   7.917   4.947
39548SOL    HW120541  14.222   7.931   5.040
39548SOL    HW220542  14.193   7.836   4.926
39549SOL     OW20543   2.558   2.742  14.093
39549SOL    HW120544   2.571   2.747  14.188
39549SOL    HW220545   2.603   2.662  14.068
39550SOL     OW20546  10.848  12.877   5.208
39550SOL    HW120547  10.872  12.824   5.284
39550SOL    HW220548  10.889  12.833   5.134
39551SOL     OW20549   2.822   6.742   3.661
39551SOL    HW120550   2.734   6.768   3.686
39551SOL    HW220551   2.831   6.772   3.570
39552SOL     OW20552   1.118   3.573   5.190
39552SOL    HW120553   1.179   3.563   5.263
39552SOL    HW220554   1.174   3.585   5.113
39553SOL     OW20555   2.648   4.262  11.514
39553SOL    HW120556   2.689   4.338  11.473
39553SOL    HW220557   2.577   4.238  11.454
39554SOL     OW20558   3.753   5.156  13.711
39554SOL    HW120559   3.825   5.154  13.773
39554SOL    HW220560   3.787   5.203  13.635
39555SOL     OW20561   5.275   4.946  10.707
39555SOL    HW120562   5.307   4.950  10.797
39555SOL    HW220563   5.183   4.921  10.715
39556SOL     OW20564   9.922   7.861   3.765
39556SOL    HW120565   9.913   7.807   3.687
39556SOL    HW220566   9.859   7.823   3.827
39557SOL     OW20567   4.281  14.813   6.363
39557SOL    HW120568   4.242  14.736   6.322
39557SOL    HW220569   4.216  14.843   6.426
39558SOL     OW20570   9.731   3.458   0.616
39558SOL    HW120571   9.726   3.530   0.680
39558SOL    HW220572   9.650   3.466   0.566
39559SOL     OW20573   8.296  14.136   1.087
39559SOL    HW120574   8.288  14.043   1.065
39559SOL    HW220575   8.390  14.154   1.081
39560SOL     OW20576   0.552  13.621  14.855
39560SOL    HW120577   0.599  13.537  14.853
39560SOL    HW220578   0.467  13.600   0.023
39561SOL     OW20579  14.605   8.300   7.712
39561SOL    HW120580  14.636   8.209   7.709
39561SOL    HW220581  14.517   8.294   7.749
39562SOL     OW20582   4.320  10.987   0.716
39562SOL    HW120583   4.372  11.050   0.767
39562SOL    HW220584   4.386  10.927   0.680
39563SOL     OW20585   1.017   3.372   4.547
39563SOL    HW120586   1.007   3.341   4.637
39563SOL    HW220587   1.040   3.465   4.557
39564SOL     OW20588   3.567  11.492  11.292
39564SOL    HW120589   3.532  11.572  11.253
39564SOL    HW220590   3.601  11.441  11.218
39565SOL     OW20591   3.254   9.949   9.970
39565SOL    HW120592   3.260   9.990   9.884
39565SOL    HW220593   3.225   9.860   9.953
39566SOL     OW20594  13.909  11.437   9.246
39566SOL    HW120595  13.903  11.492   9.324
39566SOL    HW220596  13.995  11.456   9.209
39567SOL     OW20597   7.840   4.378  10.747
39567SOL    HW120598   7.840   4.455  10.804
39567SOL    HW220599   7.909   4.396  10.683
39568SOL     OW20600   3.909   1.324   0.742
39568SOL    HW120601   3.911   1.274   0.824
39568SOL    HW220602   3.838   1.387   0.754
39569SOL     OW20603  12.908   6.687   8.523
39569SOL    HW120604  12.903   6.770   8.571
39569SOL    HW220605  12.839   6.694   8.456
39570SOL     OW20606   6.158   4.227  12.446
39570SOL    HW120607   6.105   4.296  12.485
39570SOL    HW220608   6.177   4.167  12.518
39571SOL     OW20609  13.869  10.482   9.754
39571SOL    HW120610  13.858  10.473   9.849
39571SOL    HW220611  13.872  10.392   9.722
39572SOL     OW20612   4.643   8.814  10.967
39572SOL    HW120613   4.607   8.880  11.026
39572SOL    HW220614   4.609   8.838  10.881
39573SOL     OW20615   4.800   1.128   0.284
39573SOL    HW120616   4.749   1.053   0.254
39573SOL    HW220617   4.873   1.134   0.223
39574SOL     OW20618  14.360   3.798   6.055
39574SOL    HW120619  14.417   3.738   6.007
39574SOL    HW220620  14.328   3.859   5.989
39575SOL     OW20621   7.725  13.514   5.260
39575SOL    HW120622   7.808  13.552   5.288
39575SOL    HW220623   7.662  13.545   5.325
39576SOL     OW20624   9.210   6.544  14.449
39576SOL    HW120625   9.277   6.489  14.408
39576SOL    HW220626   9.260   6.615  14.490
39577SOL     OW20627  11.206  12.780   4.779
39577SOL    HW120628  11.233  12.858   4.730
39577SOL    HW220629  11.239  12.706   4.727
39578SOL     OW20630  10.288   4.961  13.623
39578SOL    HW120631  10.366   4.989  13.575
39578SOL    HW220632  10.279   5.026  13.693
39579SOL     OW20633   9.080  11.456   3.118
39579SOL    HW120634   9.100  11.519   3.049
39579SOL    HW220635   9.099  11.371   3.079
39580SOL     OW20636  14.673   1.804   7.310
39580SOL    HW120637  14.626   1.801   7.226
39580SOL    HW220638  14.622   1.866   7.363
39581SOL     OW20639  10.435   1.359   1.269
39581SOL    HW120640  10.500   1.388   1.333
39581SOL    HW220641  10.472   1.279   1.231
39582SOL     OW20642  10.649   7.055   5.528
39582SOL    HW120643  10.562   7.037   5.564
39582SOL    HW220644  10.639   7.040   5.434
39583SOL     OW20645   5.378   0.447   8.852
39583SOL    HW120646   5.349   0.483   8.935
39583SOL    HW220647   5.464   0.487   8.837
39584SOL     OW20648   8.702   1.962  12.345
39584SOL    HW120649   8.609   1.980  12.337
39584SOL    HW220650   8.742   2.013  12.275
39585SOL     OW20651  11.908   5.417   4.980
39585SOL    HW120652  11.955   5.355   4.925
39585SOL    HW220653  11.958   5.418   5.062
39586SOL     OW20654  11.517  12.495  12.726
39586SOL    HW120655  11.585  12.524  12.665
39586SOL    HW220656  11.553  12.417  12.768
39587SOL     OW20657  12.447   1.069  13.279
39587SOL    HW120658  12.427   1.148  13.229
39587SOL    HW220659  12.380   1.007  13.253
39588SOL     OW20660   3.122  10.385  12.138
39588SOL    HW120661   3.104  10.291  12.136
39588SOL    HW220662   3.149  10.406  12.049
39589SOL     OW20663   5.986  13.387   5.260
39589SOL    HW120664   5.938  13.389   5.177
39589SOL    HW220665   5.969  13.299   5.295
39590SOL     OW20666   2.919   9.589   1.677
39590SOL    HW120667   2.979   9.660   1.653
39590SOL    HW220668   2.975   9.522   1.716
39591SOL     OW20669  13.796   4.923   6.939
39591SOL    HW120670  13.701   4.930   6.942
39591SOL    HW220671  13.827   5.002   6.985
39592SOL     OW20672   2.660   6.604   1.801
39592SOL    HW120673   2.577   6.615   1.754
39592SOL    HW220674   2.656   6.667   1.873
39593SOL     OW20675   5.189   0.901  10.485
39593SOL    HW120676   5.241   0.829  10.450
39593SOL    HW220677   5.098   0.877  10.467
39594SOL     OW20678   9.009   1.055  13.433
39594SOL    HW120679   9.065   1.043  13.356
39594SOL    HW220680   8.941   1.116  13.405
39595SOL     OW20681   5.836  11.382   8.144
39595SOL    HW120682   5.862  11.463   8.101
39595SOL    HW220683   5.849  11.314   8.077
39596SOL     OW20684   9.784   8.411   9.125
39596SOL    HW120685   9.730   8.433   9.201
39596SOL    HW220686   9.830   8.492   9.104
39597SOL     OW20687   9.090   3.264   3.626
39597SOL    HW120688   9.035   3.343   3.634
39597SOL    HW220689   9.084   3.223   3.713
39598SOL     OW20690   7.260   3.561   4.813
39598SOL    HW120691   7.217   3.525   4.891
39598SOL    HW220692   7.192   3.614   4.772
39599SOL     OW20693   3.196   3.481   5.444
39599SOL    HW120694   3.290   3.465   5.458
39599SOL    HW220695   3.192   3.523   5.358
39600SOL     OW20696  13.145   6.689   2.033
39600SOL    HW120697  13.123   6.706   2.124
39600SOL    HW220698  13.221   6.630   2.037
39601SOL     OW20699  11.012  13.422  10.499
39601SOL    HW120700  11.069  13.401  10.425
39601SOL    HW220701  10.946  13.352  10.498
39602SOL     OW20702   9.391   6.471   7.190
39602SOL    HW120703   9.389   6.551   7.137
39602SOL    HW220704   9.452   6.413   7.143
39603SOL     OW20705   5.870   2.735   3.861
39603SOL    HW120706   5.915   2.669   3.916
39603SOL    HW220707   5.917   2.732   3.778
39604SOL     OW20708   8.250  11.920   4.400
39604SOL    HW120709   8.335  11.939   4.440
39604SOL    HW220710   8.224  11.836   4.437
39605SOL     OW20711   1.269   2.587   4.015
39605SOL    HW120712   1.323   2.574   3.937
39605SOL    HW220713   1.279   2.506   4.065
39606SOL     OW20714  12.487  12.538  14.171
39606SOL    HW120715  12.463  12.576  14.256
39606SOL    HW220716  12.424  12.576  14.109
39607SOL     OW20717   1.262   5.652  13.201
39607SOL    HW120718   1.219   5.693  13.127
39607SOL    HW220719   1.355   5.657  13.181
39608SOL     OW20720   7.098  10.698   9.839
39608SOL    HW120721   7.017  10.708   9.790
39608SOL    HW220722   7.079  10.733   9.926
39609SOL     OW20723   2.703   0.630   1.111
39609SOL    HW120724   2.628   0.689   1.123
39609SOL    HW220725   2.767   0.683   1.063
39610SOL     OW20726   2.720   7.411  11.170
39610SOL    HW120727   2.756   7.478  11.112
39610SOL    HW220728   2.764   7.330  11.144
39611SOL     OW20729  13.960   5.995   8.701
39611SOL    HW120730  14.019   5.981   8.627
39611SOL    HW220731  13.892   5.928   8.690
39612SOL     OW20732   6.881  11.924   6.772
39612SOL    HW120733   6.868  11.847   6.717
39612SOL    HW220734   6.798  11.935   6.818
39613SOL     OW20735   6.850   4.748   2.436
39613SOL    HW120736   6.825   4.735   2.344
39613SOL    HW220737   6.772   4.720   2.485
39614SOL     OW20738   7.599  11.108   7.820
39614SOL    HW120739   7.545  11.167   7.870
39614SOL    HW220740   7.560  11.021   7.833
39615SOL     OW20741   1.013   4.945  10.077
39615SOL    HW120742   1.044   4.922  10.164
39615SOL    HW220743   1.078   5.007  10.044
39616SOL     OW20744  13.656  11.775   2.539
39616SOL    HW120745  13.600  11.846   2.508
39616SOL    HW220746  13.728  11.818   2.584
39617SOL     OW20747   0.285   2.048   5.715
39617SOL    HW120748   0.270   2.002   5.632
39617SOL    HW220749   0.205   2.034   5.765
39618SOL     OW20750   3.540   7.051  12.741
39618SOL    HW120751   3.528   6.975  12.684
39618SOL    HW220752   3.556   7.124  12.681
39619SOL     OW20753  12.786   8.765  11.247
39619SOL    HW120754  12.852   8.706  11.284
39619SOL    HW220755  12.826   8.852  11.254
39620SOL     OW20756  10.668  12.350   3.642
39620SOL    HW120757  10.716  12.291   3.700
39620SOL    HW220758  10.637  12.293   3.572
39621SOL     OW20759   9.209   7.147   7.773
39621SOL    HW120760   9.119   7.127   7.801
39621SOL    HW220761   9.237   7.068   7.725
39622SOL     OW20762   8.277  11.116  14.345
39622SOL    HW120763   8.268  11.209  14.366
39622SOL    HW220764   8.220  11.072  14.408
39623SOL     OW20765  10.499  14.455   4.655
39623SOL    HW120766  10.478  14.476   4.564
39623SOL    HW220767  10.533  14.366   4.652
39624SOL     OW20768   9.057  11.760  13.579
39624SOL    HW120769   9.120  11.702  13.622
39624SOL    HW220770   9.101  11.788  13.499
39625SOL     OW20771  13.185   2.844   9.277
39625SOL    HW120772  13.200   2.839   9.372
39625SOL    HW220773  13.122   2.915   9.266
39626SOL     OW20774   3.791   4.076   7.826
39626SOL    HW120775   3.797   4.069   7.731
39626SOL    HW220776   3.849   4.007   7.859
39627SOL     OW20777   9.548   2.949  10.900
39627SOL    HW120778   9.606   2.923  10.828
39627SOL    HW220779   9.604   2.948  10.977
39628SOL     OW20780  11.286   6.372  12.165
39628SOL    HW120781  11.335   6.371  12.247
39628SOL    HW220782  11.352   6.372  12.096
39629SOL     OW20783   8.886   3.834   6.955
39629SOL    HW120784   8.855   3.775   6.887
39629SOL    HW220785   8.816   3.835   7.020
39630SOL     OW20786   6.880   2.766  12.144
39630SOL    HW120787   6.851   2.782  12.054
39630SOL    HW220788   6.801   2.739  12.190
39631SOL     OW20789   1.553   7.782  10.390
39631SOL    HW120790   1.549   7.770  10.296
39631SOL    HW220791   1.469   7.750  10.422
39632SOL     OW20792   6.423  13.501   5.501
39632SOL    HW120793   6.360  13.547   5.558
39632SOL    HW220794   6.374  13.485   5.421
39633SOL     OW20795  12.081   3.914   9.188
39633SOL    HW120796  12.122   3.889   9.271
39633SOL    HW220797  12.137   3.984   9.154
39634SOL     OW20798   3.587   7.416   3.557
39634SOL    HW120799   3.668   7.365   3.559
39634SOL    HW220800   3.518   7.351   3.567
39635SOL     OW20801   0.360   9.693  10.914
39635SOL    HW120802   0.277   9.709  10.957
39635SOL    HW220803   0.361   9.599  10.897
39636SOL     OW20804   0.797  11.835   3.022
39636SOL    HW120805   0.791  11.923   3.059
39636SOL    HW220806   0.728  11.832   2.956
39637SOL     OW20807   3.555   5.295   0.901
39637SOL    HW120808   3.474   5.337   0.871
39637SOL    HW220809   3.573   5.335   0.985
39638SOL     OW20810   3.998   5.624   4.228
39638SOL    HW120811   3.982   5.713   4.196
39638SOL    HW220812   4.092   5.622   4.246
39639SOL     OW20813   5.181  12.975   1.817
39639SOL    HW120814   5.187  13.038   1.889
39639SOL    HW220815   5.099  12.998   1.773
39640SOL     OW20816  11.306  13.860  10.956
39640SOL    HW120817  11.257  13.809  10.891
39640SOL    HW220818  11.249  13.862  11.033
39641SOL     OW20819  14.779  12.288   7.786
39641SOL    HW120820  14.854  12.335   7.750
39641SOL    HW220821  14.814  12.238   7.859
39642SOL     OW20822   8.132  10.349  12.503
39642SOL    HW120823   8.168  10.412  12.440
39642SOL    HW220824   8.038  10.347  12.484
39643SOL     OW20825   7.303  12.927  10.862
39643SOL    HW120826   7.233  12.989  10.879
39643SOL    HW220827   7.336  12.950  10.775
39644SOL     OW20828   8.173  10.461   3.351
39644SOL    HW120829   8.265  10.478   3.328
39644SOL    HW220830   8.177  10.409   3.430
39645SOL     OW20831   7.763   3.831   4.072
39645SOL    HW120832   7.698   3.765   4.099
39645SOL    HW220833   7.750   3.839   3.978
39646SOL     OW20834   5.242  13.173   7.240
39646SOL    HW120835   5.275  13.251   7.285
39646SOL    HW220836   5.159  13.154   7.284
39647SOL     OW20837  14.842   5.987   7.852
39647SOL    HW120838  14.848   6.043   7.929
39647SOL    HW220839   0.060   5.949   7.842
39648SOL     OW20840   3.095  14.791   4.107
39648SOL    HW120841   3.089   0.017   4.101
39648SOL    HW220842   3.045  14.759   4.033
39649SOL     OW20843   8.904  13.773   6.884
39649SOL    HW120844   8.849  13.754   6.960
39649SOL    HW220845   8.850  13.750   6.808
39650SOL     OW20846   8.041   0.252   7.129
39650SOL    HW120847   8.105   0.250   7.200
39650SOL    HW220848   7.977   0.184   7.152
39651SOL     OW20849   3.025   6.015   7.095
39651SOL    HW120850   3.034   5.986   7.004
39651SOL    HW220851   2.940   5.981   7.122
39652SOL     OW20852   4.100   1.611   3.135
39652SOL    HW120853   4.165   1.591   3.201
39652SOL    HW220854   4.144   1.668   3.073
39653SOL     OW20855  10.009  12.916  14.543
39653SOL    HW120856  10.059  12.851  14.494
39653SOL    HW220857  10.028  12.999  14.499
39654SOL     OW20858   7.239  10.441   6.397
39654SOL    HW120859   7.272  10.382   6.464
39654SOL    HW220860   7.221  10.384   6.322
39655SOL     OW20861  11.519   2.806   9.020
39655SOL    HW120862  11.527   2.717   9.055
39655SOL    HW220863  11.581   2.808   8.947
39656SOL     OW20864  13.150   0.061   6.013
39656SOL    HW120865  13.081   0.004   5.979
39656SOL    HW220866  13.103   0.128   6.063
39657SOL     OW20867   2.323   7.401   5.448
39657SOL    HW120868   2.234   7.402   5.483
39657SOL    HW220869   2.342   7.308   5.434
39658SOL     OW20870   3.086   8.758   2.802
39658SOL    HW120871   3.016   8.731   2.861
39658SOL    HW220872   3.149   8.803   2.859
39659SOL     OW20873  12.146  10.966  12.643
39659SOL    HW120874  12.117  10.944  12.732
39659SOL    HW220875  12.076  11.020  12.608
39660SOL     OW20876   9.797  10.812   9.932
39660SOL    HW120877   9.886  10.831   9.900
39660SOL    HW220878   9.758  10.898   9.945
39661SOL     OW20879  10.945   8.036   9.503
39661SOL    HW120880  10.949   8.060   9.596
39661SOL    HW220881  11.030   7.995   9.485
39662SOL     OW20882  14.437   6.567   3.659
39662SOL    HW120883  14.532   6.551   3.665
39662SOL    HW220884  14.428   6.632   3.590
39663SOL     OW20885  13.294  13.570   4.335
39663SOL    HW120886  13.272  13.490   4.383
39663SOL    HW220887  13.209  13.610   4.315
39664SOL     OW20888  11.886   0.497   8.960
39664SOL    HW120889  11.963   0.514   8.905
39664SOL    HW220890  11.901   0.547   9.040
39665SOL     OW20891   4.939   6.809   8.992
39665SOL    HW120892   5.030   6.834   8.978
39665SOL    HW220893   4.927   6.729   8.940
39666SOL     OW20894   9.716   1.695   1.666
39666SOL    HW120895   9.773   1.627   1.630
39666SOL    HW220896   9.660   1.721   1.593
39667SOL     OW20897   6.271   2.706   3.001
39667SOL    HW120898   6.358   2.683   3.033
39667SOL    HW220899   6.260   2.653   2.922
39668SOL     OW20900  11.535  14.755   5.128
39668SOL    HW120901  11.516  14.664   5.152
39668SOL    HW220902  11.449  14.793   5.111
39669SOL     OW20903  13.946  11.656   3.650
39669SOL    HW120904  13.886  11.729   3.660
39669SOL    HW220905  13.890  11.580   3.636
39670SOL     OW20906  12.358  14.211  14.143
39670SOL    HW120907  12.367  14.121  14.111
39670SOL    HW220908  12.415  14.262  14.087
39671SOL     OW20909  10.139   1.207  13.939
39671SOL    HW120910  10.123   1.271  13.869
39671SOL    HW220911  10.235   1.198  13.941
39672SOL     OW20912   6.356   4.936  10.036
39672SOL    HW120913   6.407   4.974   9.965
39672SOL    HW220914   6.266   4.935  10.002
39673SOL     OW20915   0.316   7.052  13.931
39673SOL    HW120916   0.283   6.979  13.879
39673SOL    HW220917   0.323   7.017  14.020
39674SOL     OW20918   1.065  13.151  14.188
39674SOL    HW120919   1.016  13.068  14.194
39674SOL    HW220920   1.129  13.146  14.259
39675SOL     OW20921   8.862  14.070  13.198
39675SOL    HW120922   8.781  14.097  13.242
39675SOL    HW220923   8.905  14.013  13.261
39676SOL     OW20924   2.337   7.908  11.961
39676SOL    HW120925   2.352   7.849  12.035
39676SOL    HW220926   2.356   7.855  11.884
39677SOL     OW20927   5.237  13.834   3.702
39677SOL    HW120928   5.179  13.908   3.714
39677SOL    HW220929   5.179  13.760   3.683
39678SOL     OW20930   9.071  11.484   2.056
39678SOL    HW120931   9.037  11.563   2.098
39678SOL    HW220932   9.161  11.507   2.033
39679SOL     OW20933   8.807   5.987  10.889
39679SOL    HW120934   8.758   5.981  10.971
39679SOL    HW220935   8.742   6.012  10.824
39680SOL     OW20936   4.341   0.963  12.716
39680SOL    HW120937   4.308   1.026  12.781
39680SOL    HW220938   4.323   0.877  12.754
39681SOL     OW20939  11.644   1.671   5.076
39681SOL    HW120940  11.670   1.763   5.083
39681SOL    HW220941  11.646   1.639   5.167
39682SOL     OW20942   0.907   9.048  10.991
39682SOL    HW120943   0.953   8.965  10.985
39682SOL    HW220944   0.870   9.049  11.080
39683SOL     OW20945   9.091   6.063  10.442
39683SOL    HW120946   9.054   6.025  10.522
39683SOL    HW220947   9.061   6.154  10.442
39684SOL     OW20948   3.784   5.095   0.199
39684SOL    HW120949   3.741   5.031   0.143
39684SOL    HW220950   3.767   5.179   0.157
39685SOL     OW20951   8.756   4.028   5.640
39685SOL    HW120952   8.779   3.977   5.562
39685SOL    HW220953   8.840   4.060   5.672
39686SOL     OW20954  13.772   1.078  10.756
39686SOL    HW120955  13.729   0.994  10.771
39686SOL    HW220956  13.845   1.080  10.818
39687SOL     OW20957  11.210   7.996   1.690
39687SOL    HW120958  11.115   7.999   1.684
39687SOL    HW220959  11.228   7.934   1.761
39688SOL     OW20960   7.135   0.617   7.993
39688SOL    HW120961   7.107   0.661   7.913
39688SOL    HW220962   7.194   0.679   8.036
39689SOL     OW20963   1.739  13.361   4.883
39689SOL    HW120964   1.741  13.456   4.895
39689SOL    HW220965   1.646  13.339   4.876
39690SOL     OW20966   8.921   7.890   7.248
39690SOL    HW120967   8.879   7.805   7.259
39690SOL    HW220968   9.012   7.876   7.273
39691SOL     OW20969   9.436   0.686   3.022
39691SOL    HW120970   9.526   0.709   3.047
39691SOL    HW220971   9.446   0.629   2.946
39692SOL     OW20972  11.796  13.747   8.195
39692SOL    HW120973  11.834  13.823   8.239
39692SOL    HW220974  11.858  13.726   8.125
39693SOL     OW20975   2.914   6.286  11.188
39693SOL    HW120976   2.976   6.216  11.167
39693SOL    HW220977   2.840   6.242  11.229
39694SOL     OW20978   0.536   5.884   2.524
39694SOL    HW120979   0.496   5.956   2.573
39694SOL    HW220980   0.467   5.856   2.463
39695SOL     OW20981   4.352  11.089   0.139
39695SOL    HW120982   4.263  11.105   0.168
39695SOL    HW220983   4.382  11.172   0.104
39696SOL     OW20984   9.701   8.278  10.178
39696SOL    HW120985   9.664   8.366  10.181
39696SOL    HW220986   9.714   8.259  10.085
39697SOL     OW20987   8.479  14.033   8.815
39697SOL    HW120988   8.458  14.097   8.747
39697SOL    HW220989   8.574  14.028   8.815
39698SOL     OW20990  14.390   1.267   4.211
39698SOL    HW120991  14.440   1.267   4.129
39698SOL    HW220992  14.457   1.268   4.280
39699SOL     OW20993   2.971   6.775   2.646
39699SOL    HW120994   2.920   6.701   2.612
39699SOL    HW220995   2.998   6.824   2.569
39700SOL     OW20996  11.653   7.045   2.021
39700SOL    HW120997  11.669   7.126   2.069
39700SOL    HW220998  11.717   6.983   2.056
39701SOL     OW20999   3.810   9.044   6.793
39701SOL    HW121000   3.752   8.984   6.840
39701SOL    HW221001   3.853   8.989   6.728
39702SOL     OW21002  11.864   3.142   6.923
39702SOL    HW121003  11.796   3.198   6.960
39702SOL    HW221004  11.901   3.097   7.000
39703SOL     OW21005   9.463   7.434   1.983
39703SOL    HW121006   9.370   7.430   2.006
39703SOL    HW221007   9.470   7.381   1.903
39704SOL     OW21008   6.669   8.079   7.965
39704SOL    HW121009   6.675   7.988   7.938
39704SOL    HW221010   6.727   8.086   8.041
39705SOL     OW21011   6.727   6.850   8.802
39705SOL    HW121012   6.820   6.855   8.779
39705SOL    HW221013   6.724   6.879   8.894
39706SOL     OW21014   7.894  12.466   8.658
39706SOL    HW121015   7.982  12.472   8.620
39706SOL    HW221016   7.908  12.422   8.743
39707SOL     OW21017   8.949   9.578   7.248
39707SOL    HW121018   8.863   9.574   7.205
39707SOL    HW221019   9.009   9.605   7.178
39708SOL     OW21020  11.502   7.276  10.862
39708SOL    HW121021  11.595   7.281  10.838
39708SOL    HW221022  11.497   7.319  10.948
39709SOL     OW21023  11.237   7.585  14.306
39709SOL    HW121024  11.277   7.662  14.347
39709SOL    HW221025  11.147   7.585  14.338
39710SOL     OW21026   0.003   3.169  13.441
39710SOL    HW121027   0.010   3.079  13.409
39710SOL    HW221028  14.832   3.161  13.527
39711SOL     OW21029   3.195   3.508   0.324
39711SOL    HW121030   3.236   3.536   0.243
39711SOL    HW221031   3.101   3.516   0.308
39712SOL     OW21032  12.440   1.574  13.923
39712SOL    HW121033  12.430   1.531  13.838
39712SOL    HW221034  12.407   1.509  13.986
39713SOL     OW21035   0.334   2.781   3.067
39713SOL    HW121036   0.347   2.863   3.020
39713SOL    HW221037   0.361   2.713   3.005
39714SOL     OW21038   2.559   0.982   6.590
39714SOL    HW121039   2.632   0.949   6.538
39714SOL    HW221040   2.595   0.997   6.677
39715SOL     OW21041   5.299  11.471   5.168
39715SOL    HW121042   5.351  11.535   5.216
39715SOL    HW221043   5.364  11.419   5.120
39716SOL     OW21044  12.145  14.801   8.453
39716SOL    HW121045  12.080  14.834   8.515
39716SOL    HW221046  12.122  14.842   8.370
39717SOL     OW21047   7.062   7.772  13.872
39717SOL    HW121048   6.986   7.714  13.871
39717SOL    HW221049   7.043   7.838  13.938
39718SOL     OW21050   1.650   2.791   9.435
39718SOL    HW121051   1.601   2.872   9.419
39718SOL    HW221052   1.584   2.722   9.432
39719SOL     OW21053   1.984   4.846  10.606
39719SOL    HW121054   1.907   4.804  10.568
39719SOL    HW221055   2.023   4.894  10.533
39720SOL     OW21056  10.847   2.136  13.754
39720SOL    HW121057  10.917   2.160  13.694
39720SOL    HW221058  10.779   2.098  13.698
39721SOL     OW21059   1.969   1.394  10.037
39721SOL    HW121060   1.901   1.338  10.000
39721SOL    HW221061   2.036   1.333  10.067
39722SOL     OW21062  14.788  10.963  13.268
39722SOL    HW121063  14.742  11.017  13.203
39722SOL    HW221064   0.004  10.945  13.229
39723SOL     OW21065   0.953  12.633   8.914
39723SOL    HW121066   0.885  12.609   8.851
39723SOL    HW221067   1.034  12.601   8.874
39724SOL     OW21068   2.710  14.332  14.286
39724SOL    HW121069   2.666  14.251  14.261
39724SOL    HW221070   2.767  14.351  14.211
39725SOL     OW21071   4.522   7.166   2.663
39725SOL    HW121072   4.525   7.133   2.752
39725SOL    HW221073   4.602   7.217   2.653
39726SOL     OW21074   0.146   3.302   7.850
39726SOL    HW121075   0.216   3.362   7.872
39726SOL    HW221076   0.068   3.357   7.842
39727SOL     OW21077   7.366   8.140   2.613
39727SOL    HW121078   7.274   8.116   2.606
39727SOL    HW221079   7.378   8.164   2.705
39728SOL     OW21080  13.856   8.204   7.230
39728SOL    HW121081  13.782   8.157   7.269
39728SOL    HW221082  13.871   8.161   7.147
39729SOL     OW21083   0.889  11.710  14.244
39729SOL    HW121084   0.850  11.797  14.251
39729SOL    HW221085   0.984  11.727  14.239
39730SOL     OW21086   6.874   9.333   4.019
39730SOL    HW121087   6.809   9.385   3.973
39730SOL    HW221088   6.823   9.282   4.082
39731SOL     OW21089  13.009  14.486   0.688
39731SOL    HW121090  13.026  14.550   0.619
39731SOL    HW221091  13.056  14.519   0.765
39732SOL     OW21092   8.733   1.979  13.615
39732SOL    HW121093   8.673   1.917  13.656
39732SOL    HW221094   8.803   1.991  13.680
39733SOL     OW21095   3.050   0.038   1.177
39733SOL    HW121096   3.055   0.123   1.134
39733SOL    HW221097   3.009   0.056   1.261
39734SOL     OW21098   0.334  11.044  13.934
39734SOL    HW121099   0.350  10.955  13.902
39734SOL    HW221100   0.284  11.032  14.015
39735SOL     OW21101   6.403   7.482  12.162
39735SOL    HW121102   6.494   7.506  12.145
39735SOL    HW221103   6.406   7.427  12.240
39736SOL     OW21104   4.996   3.104   2.635
39736SOL    HW121105   5.079   3.072   2.670
39736SOL    HW221106   4.935   3.100   2.709
39737SOL     OW21107  12.039   9.947   8.081
39737SOL    HW121108  12.055   9.914   7.993
39737SOL    HW221109  12.095  10.024   8.089
39738SOL     OW21110   3.017   1.748   4.473
39738SOL    HW121111   3.075   1.673   4.455
39738SOL    HW221112   3.076   1.823   4.474
39739SOL     OW21113   6.066  11.581  14.543
39739SOL    HW121114   6.159  11.591  14.561
39739SOL    HW221115   6.024  11.651  14.593
39740SOL     OW21116   7.469   5.188   3.450
39740SOL    HW121117   7.557   5.183   3.486
39740SOL    HW221118   7.447   5.282   3.452
39741SOL     OW21119  11.995   9.014   9.606
39741SOL    HW121120  12.001   8.923   9.633
39741SOL    HW221121  12.016   9.013   9.513
39742SOL     OW21122   7.362   4.367   6.667
39742SOL    HW121123   7.446   4.367   6.713
39742SOL    HW221124   7.374   4.306   6.595
39743SOL     OW21125   9.668   0.419   7.747
39743SOL    HW121126   9.714   0.335   7.740
39743SOL    HW221127   9.619   0.426   7.665
39744SOL     OW21128   5.953   7.627   5.701
39744SOL    HW121129   6.033   7.617   5.648
39744SOL    HW221130   5.891   7.670   5.642
39745SOL     OW21131  14.202   0.433  14.133
39745SOL    HW121132  14.189   0.438  14.227
39745SOL    HW221133  14.123   0.471  14.095
39746SOL     OW21134  12.200   1.324   0.176
39746SOL    HW121135  12.266   1.349   0.111
39746SOL    HW221136  12.131   1.280   0.125
39747SOL     OW21137   8.172   8.355   8.100
39747SOL    HW121138   8.103   8.346   8.166
39747SOL    HW221139   8.174   8.269   8.057
39748SOL     OW21140  11.430   4.794   6.569
39748SOL    HW121141  11.495   4.735   6.530
39748SOL    HW221142  11.466   4.881   6.556
39749SOL     OW21143   2.765   1.718  13.775
39749SOL    HW121144   2.781   1.636  13.728
39749SOL    HW221145   2.840   1.773  13.754
39750SOL     OW21146   6.995  13.806   3.239
39750SOL    HW121147   7.088  13.826   3.249
39750SOL    HW221148   6.962  13.797   3.328
39751SOL     OW21149   3.920   7.529   3.686
39751SOL    HW121150   3.984   7.504   3.620
39751SOL    HW221151   3.854   7.579   3.638
39752SOL     OW21152   6.265  13.902  12.502
39752SOL    HW121153   6.210  13.828  12.529
39752SOL    HW221154   6.352  13.864  12.491
39753SOL     OW21155   8.374   7.686   9.651
39753SOL    HW121156   8.410   7.651   9.732
39753SOL    HW221157   8.317   7.757   9.679
39754SOL     OW21158  12.446  10.657   4.481
39754SOL    HW121159  12.376  10.617   4.429
39754SOL    HW221160  12.517  10.593   4.480
39755SOL     OW21161   8.137  12.719   9.720
39755SOL    HW121162   8.154  12.725   9.627
39755SOL    HW221163   8.138  12.809   9.751
39756SOL     OW21164   2.086   7.328   9.875
39756SOL    HW121165   2.086   7.423   9.863
39756SOL    HW221166   2.001   7.309   9.915
39757SOL     OW21167  13.810   1.810   7.729
39757SOL    HW121168  13.715   1.803   7.724
39757SOL    HW221169  13.826   1.887   7.785
39758SOL     OW21170   1.835   3.942   4.081
39758SOL    HW121171   1.766   3.889   4.120
39758SOL    HW221172   1.788   4.011   4.034
39759SOL     OW21173  14.532   6.440   8.883
39759SOL    HW121174  14.537   6.534   8.902
39759SOL    HW221175  14.456   6.410   8.932
39760SOL     OW21176   1.771   6.264  14.617
39760SOL    HW121177   1.865   6.284  14.622
39760SOL    HW221178   1.743   6.304  14.534
39761SOL     OW21179   1.213   4.413  14.222
39761SOL    HW121180   1.305   4.440  14.231
39761SOL    HW221181   1.194   4.420  14.129
39762SOL     OW21182   8.562   5.068   5.347
39762SOL    HW121183   8.531   5.136   5.408
39762SOL    HW221184   8.489   5.057   5.286
39763SOL     OW21185  11.756   6.055   8.865
39763SOL    HW121186  11.791   6.104   8.790
39763SOL    HW221187  11.780   5.964   8.847
39764SOL     OW21188  14.510   7.829   7.879
39764SOL    HW121189  14.523   7.830   7.784
39764SOL    HW221190  14.415   7.831   7.891
39765SOL     OW21191   5.478   3.911   7.626
39765SOL    HW121192   5.400   3.856   7.614
39765SOL    HW221193   5.459   3.991   7.577
39766SOL     OW21194   4.135  12.129   9.631
39766SOL    HW121195   4.051  12.160   9.664
39766SOL    HW221196   4.114  12.089   9.546
39767SOL     OW21197   3.820  11.176   6.314
39767SOL    HW121198   3.837  11.266   6.340
39767SOL    HW221199   3.878  11.123   6.370
39768SOL     OW21200  10.560  12.259  14.305
39768SOL    HW121201  10.590  12.178  14.348
39768SOL    HW221202  10.610  12.262  14.223
39769SOL     OW21203   0.806   7.463   0.868
39769SOL    HW121204   0.754   7.544   0.870
39769SOL    HW221205   0.848   7.460   0.954
39770SOL     OW21206   3.052   4.292   0.233
39770SOL    HW121207   3.043   4.197   0.239
39770SOL    HW221208   2.963   4.325   0.246
39771SOL     OW21209  12.066  10.230   0.260
39771SOL    HW121210  11.993  10.272   0.214
39771SOL    HW221211  12.061  10.265   0.350
39772SOL     OW21212  11.675   7.948  14.146
39772SOL    HW121213  11.676   8.020  14.083
39772SOL    HW221214  11.707   7.872  14.097
39773SOL     OW21215  10.274   2.200   7.551
39773SOL    HW121216  10.208   2.268   7.567
39773SOL    HW221217  10.356   2.248   7.546
39774SOL     OW21218   2.462   1.359   4.287
39774SOL    HW121219   2.459   1.300   4.363
39774SOL    HW221220   2.549   1.398   4.290
39775SOL     OW21221   1.138   0.341  13.794
39775SOL    HW121222   1.218   0.330  13.845
39775SOL    HW221223   1.155   0.294  13.712
39776SOL     OW21224  11.738  12.365   8.749
39776SOL    HW121225  11.746  12.282   8.796
39776SOL    HW221226  11.698  12.342   8.665
39777SOL     OW21227   5.993  13.853   9.580
39777SOL    HW121228   5.934  13.785   9.614
39777SOL    HW221229   6.028  13.815   9.499
39778SOL     OW21230  11.061   2.888   8.923
39778SOL    HW121231  11.039   2.973   8.962
39778SOL    HW221232  10.984   2.865   8.871
39779SOL     OW21233  10.366   9.541   1.661
39779SOL    HW121234  10.375   9.446   1.674
39779SOL    HW221235  10.376   9.553   1.567
39780SOL     OW21236   7.131   2.755  14.341
39780SOL    HW121237   7.160   2.746  14.251
39780SOL    HW221238   7.185   2.692  14.390
39781SOL     OW21239   2.560   0.985   0.057
39781SOL    HW121240   2.522   0.983   0.145
39781SOL    HW221241   2.500   0.933   0.004
39782SOL     OW21242   0.330   7.275   8.021
39782SOL    HW121243   0.389   7.349   8.007
39782SOL    HW221244   0.367   7.227   8.094
39783SOL     OW21245   7.831   4.071   9.941
39783SOL    HW121246   7.743   4.106   9.926
39783SOL    HW221247   7.857   4.034   9.856
39784SOL     OW21248   1.042   4.958  13.357
39784SOL    HW121249   1.066   4.938  13.447
39784SOL    HW221250   1.067   4.880  13.308
39785SOL     OW21251   7.820   5.459   0.210
39785SOL    HW121252   7.736   5.414   0.199
39785SOL    HW221253   7.797   5.549   0.230
39786SOL     OW21254   2.124   5.405   0.762
39786SOL    HW121255   2.211   5.427   0.796
39786SOL    HW221256   2.102   5.321   0.802
39787SOL     OW21257   8.660  14.691   0.765
39787SOL    HW121258   8.701  14.606   0.780
39787SOL    HW221259   8.606  14.706   0.843
39788SOL     OW21260   5.275   2.528   1.466
39788SOL    HW121261   5.298   2.474   1.542
39788SOL    HW221262   5.358   2.537   1.418
39789SOL     OW21263   4.276   5.513   0.520
39789SOL    HW121264   4.274   5.422   0.491
39789SOL    HW221265   4.367   5.540   0.510
39790SOL     OW21266   9.714  14.498   1.281
39790SOL    HW121267   9.660  14.420   1.292
39790SOL    HW221268   9.774  14.476   1.209
39791SOL     OW21269  12.462   4.752  11.236
39791SOL    HW121270  12.396   4.754  11.306
39791SOL    HW221271  12.539   4.793  11.274
39792SOL     OW21272   1.569   0.238   8.901
39792SOL    HW121273   1.495   0.178   8.888
39792SOL    HW221274   1.614   0.240   8.817
39793SOL     OW21275   8.077   7.390  14.008
39793SOL    HW121276   8.149   7.428  14.058
39793SOL    HW221277   8.040   7.324  14.066
39794SOL     OW21278   2.920   5.229   0.578
39794SOL    HW121279   2.832   5.244   0.612
39794SOL    HW221280   2.930   5.295   0.509
39795SOL     OW21281  12.893   7.211  14.576
39795SOL    HW121282  12.943   7.129  14.578
39795SOL    HW221283  12.927   7.257  14.499
39796SOL     OW21284  13.486   0.915   1.024
39796SOL    HW121285  13.538   0.963   1.088
39796SOL    HW221286  13.459   0.835   1.069
39797SOL     OW21287   5.282   8.481  13.543
39797SOL    HW121288   5.358   8.535  13.521
39797SOL    HW221289   5.318   8.394  13.559
39798SOL     OW21290   5.787   3.628   5.266
39798SOL    HW121291   5.814   3.607   5.177
39798SOL    HW221292   5.747   3.548   5.298
39799SOL     OW21293  14.153   8.299   8.069
39799SOL    HW121294  14.094   8.251   8.011
39799SOL    HW221295  14.230   8.243   8.078
39800SOL     OW21296  12.314   5.031  14.169
39800SOL    HW121297  12.295   5.100  14.233
39800SOL    HW221298  12.238   4.972  14.175
39801SOL     OW21299   0.829   3.083   1.099
39801SOL    HW121300   0.786   3.008   1.139
39801SOL    HW221301   0.898   3.107   1.162
39802SOL     OW21302   7.912   4.507   5.994
39802SOL    HW121303   7.898   4.439   6.060
39802SOL    HW221304   7.878   4.587   6.034
39803SOL     OW21305   6.972  11.464   0.450
39803SOL    HW121306   6.948  11.411   0.374
39803SOL    HW221307   6.902  11.529   0.457
39804SOL     OW21308   7.961   1.728   2.391
39804SOL    HW121309   7.953   1.643   2.434
39804SOL    HW221310   7.871   1.760   2.383
39805SOL     OW21311  12.686  14.751  14.446
39805SOL    HW121312  12.624  14.697  14.495
39805SOL    HW221313  12.730  14.803  14.513
39806SOL     OW21314  11.506  11.028  12.925
39806SOL    HW121315  11.510  11.110  12.975
39806SOL    HW221316  11.514  11.056  12.833
39807SOL     OW21317   8.168   6.825   0.617
39807SOL    HW121318   8.092   6.767   0.618
39807SOL    HW221319   8.132   6.913   0.625
39808SOL     OW21320   1.142  10.505   0.750
39808SOL    HW121321   1.085  10.430   0.770
39808SOL    HW221322   1.140  10.512   0.655
39809SOL     OW21323   7.930   7.520   4.046
39809SOL    HW121324   7.878   7.538   4.125
39809SOL    HW221325   7.975   7.438   4.065
39810SOL     OW21326   2.048   5.040   0.476
39810SOL    HW121327   2.073   4.965   0.423
39810SOL    HW221328   1.974   5.009   0.528
39811SOL     OW21329   4.053   4.984   1.168
39811SOL    HW121330   4.084   4.934   1.093
39811SOL    HW221331   4.108   4.956   1.241
39812SOL     OW21332  14.139  11.014   5.958
39812SOL    HW121333  14.071  10.961   6.001
39812SOL    HW221334  14.200  10.949   5.922
39813SOL     OW21335  14.539   3.280  11.822
39813SOL    HW121336  14.527   3.238  11.907
39813SOL    HW221337  14.513   3.214  11.758
39814SOL     OW21338   9.900   8.277  10.349
39814SOL    HW121339   9.914   8.372  10.347
39814SOL    HW221340   9.818   8.263  10.302
39815SOL     OW21341   5.655   1.049   2.491
39815SOL    HW121342   5.600   1.009   2.424
39815SOL    HW221343   5.649   0.988   2.566
39816SOL     OW21344  11.737   4.008   8.365
39816SOL    HW121345  11.801   3.969   8.306
39816SOL    HW221346  11.757   4.101   8.365
39817SOL     OW21347   3.560   8.544  12.136
39817SOL    HW121348   3.559   8.510  12.046
39817SOL    HW221349   3.536   8.636  12.127
39818SOL     OW21350   7.075   0.789  12.551
39818SOL    HW121351   7.108   0.845  12.480
39818SOL    HW221352   7.055   0.851  12.622
39819SOL     OW21353  14.064   2.500  12.216
39819SOL    HW121354  14.014   2.421  12.239
39819SOL    HW221355  14.150   2.486  12.255
39820SOL     OW21356  13.493   7.227   0.827
39820SOL    HW121357  13.418   7.287   0.831
39820SOL    HW221358  13.505   7.209   0.734
39821SOL     OW21359   9.864  14.228   7.208
39821SOL    HW121360   9.891  14.264   7.293
39821SOL    HW221361   9.944  14.225   7.156
39822SOL     OW21362   4.303   5.105   9.132
39822SOL    HW121363   4.230   5.043   9.125
39822SOL    HW221364   4.334   5.115   9.042
39823SOL     OW21365  10.213   9.124  12.370
39823SOL    HW121366  10.275   9.197  12.370
39823SOL    HW221367  10.230   9.079  12.453
39824SOL     OW21368   3.476   4.057   3.052
39824SOL    HW121369   3.447   4.140   3.013
39824SOL    HW221370   3.531   4.083   3.126
39825SOL     OW21371   4.500   7.621  10.025
39825SOL    HW121372   4.530   7.624  10.116
39825SOL    HW221373   4.407   7.597  10.031
39826SOL     OW21374  11.047   8.439   9.768
39826SOL    HW121375  11.018   8.514   9.821
39826SOL    HW221376  10.973   8.378   9.772
39827SOL     OW21377   6.188   2.277   7.493
39827SOL    HW121378   6.120   2.221   7.529
39827SOL    HW221379   6.243   2.218   7.441
39828SOL     OW21380  14.791   6.222  11.275
39828SOL    HW121381  14.707   6.217  11.321
39828SOL    HW221382  14.769   6.211  11.183
39829SOL     OW21383  14.626   0.873  13.882
39829SOL    HW121384  14.679   0.850  13.959
39829SOL    HW221385  14.573   0.795  13.865
39830SOL     OW21386   7.026   3.608   9.354
39830SOL    HW121387   7.016   3.699   9.381
39830SOL    HW221388   6.981   3.603   9.270
39831SOL     OW21389   8.781   6.567   2.423
39831SOL    HW121390   8.753   6.493   2.369
39831SOL    HW221391   8.725   6.639   2.397
39832SOL     OW21392  13.848   0.999   7.031
39832SOL    HW121393  13.859   0.982   6.938
39832SOL    HW221394  13.776   1.061   7.037
39833SOL     OW21395   6.101   1.452  12.219
39833SOL    HW121396   6.056   1.532  12.191
39833SOL    HW221397   6.165   1.481  12.283
39834SOL     OW21398   2.410   1.840  13.302
39834SOL    HW121399   2.337   1.858  13.242
39834SOL    HW221400   2.431   1.748  13.287
39835SOL     OW21401  11.466  12.893   0.755
39835SOL    HW121402  11.501  12.904   0.667
39835SOL    HW221403  11.490  12.804   0.780
39836SOL     OW21404  11.899   6.736   5.722
39836SOL    HW121405  11.923   6.645   5.706
39836SOL    HW221406  11.860   6.766   5.640
39837SOL     OW21407   9.559   5.194   4.271
39837SOL    HW121408   9.588   5.156   4.188
39837SOL    HW221409   9.611   5.273   4.281
39838SOL     OW21410   4.458   4.727   1.339
39838SOL    HW121411   4.448   4.661   1.271
39838SOL    HW221412   4.537   4.776   1.314
39839SOL     OW21413   8.246  11.261   5.202
39839SOL    HW121414   8.324  11.207   5.210
39839SOL    HW221415   8.276  11.340   5.158
39840SOL     OW21416  10.660  14.827   7.849
39840SOL    HW121417  10.688  14.836   7.758
39840SOL    HW221418  10.742  14.829   7.899
39841SOL     OW21419   2.144   0.228   3.340
39841SOL    HW121420   2.200   0.157   3.309
39841SOL    HW221421   2.149   0.223   3.436
39842SOL     OW21422   0.992   2.185  11.686
39842SOL    HW121423   0.985   2.116  11.620
39842SOL    HW221424   1.046   2.252  11.644
39843SOL     OW21425   7.120   2.568   0.994
39843SOL    HW121426   7.054   2.539   0.931
39843SOL    HW221427   7.143   2.656   0.966
39844SOL     OW21428  12.681   2.351   3.999
39844SOL    HW121429  12.674   2.348   3.903
39844SOL    HW221430  12.622   2.423   4.024
39845SOL     OW21431   0.565  14.592   3.931
39845SOL    HW121432   0.588  14.603   3.838
39845SOL    HW221433   0.546  14.498   3.939
39846SOL     OW21434   7.246  14.345  12.486
39846SOL    HW121435   7.321  14.399  12.462
39846SOL    HW221436   7.281  14.285  12.552
39847SOL     OW21437  11.362   9.184   9.313
39847SOL    HW121438  11.389   9.208   9.224
39847SOL    HW221439  11.420   9.234   9.370
39848SOL     OW21440   3.237   3.179   6.464
39848SOL    HW121441   3.200   3.096   6.437
39848SOL    HW221442   3.161   3.234   6.484
39849SOL     OW21443   0.097   3.323  12.063
39849SOL    HW121444   0.030   3.376  12.106
39849SOL    HW221445   0.051   3.279  11.991
39850SOL     OW21446   0.394   6.733  11.294
39850SOL    HW121447   0.448   6.654  11.306
39850SOL    HW221448   0.448   6.791  11.241
39851SOL     OW21449   6.773   0.419   6.913
39851SOL    HW121450   6.827   0.474   6.970
39851SOL    HW221451   6.806   0.436   6.825
39852SOL     OW21452   7.113   2.429   4.747
39852SOL    HW121453   7.112   2.520   4.777
39852SOL    HW221454   7.203   2.399   4.761
39853SOL     OW21455   5.250  10.520  10.725
39853SOL    HW121456   5.171  10.469  10.708
39853SOL    HW221457   5.308  10.499  10.652
39854SOL     OW21458  10.667  14.443   5.340
39854SOL    HW121459  10.697  14.405   5.258
39854SOL    HW221460  10.602  14.508   5.314
39855SOL     OW21461   2.407  14.784  11.290
39855SOL    HW121462   2.355  14.756  11.215
39855SOL    HW221463   2.421  14.705  11.342
39856SOL     OW21464   0.366  11.966   9.390
39856SOL    HW121465   0.334  12.055   9.399
39856SOL    HW221466   0.298  11.912   9.430
39857SOL     OW21467   0.419  13.577   1.016
39857SOL    HW121468   0.514  13.565   1.017
39857SOL    HW221469   0.388  13.530   1.094
39858SOL     OW21470   3.060   2.438   1.542
39858SOL    HW121471   3.054   2.354   1.588
39858SOL    HW221472   3.015   2.500   1.600
39859SOL     OW21473   6.788   6.777   8.145
39859SOL    HW121474   6.711   6.726   8.119
39859SOL    HW221475   6.839   6.787   8.064
39860SOL     OW21476  14.708  10.844   9.343
39860SOL    HW121477  14.714  10.758   9.301
39860SOL    HW221478  14.734  10.905   9.274
39861SOL     OW21479  13.841   2.983  12.636
39861SOL    HW121480  13.747   2.982  12.652
39861SOL    HW221481  13.875   2.909  12.686
39862SOL     OW21482  14.468   7.560   5.736
39862SOL    HW121483  14.391   7.617   5.730
39862SOL    HW221484  14.465   7.526   5.825
39863SOL     OW21485   2.339   8.778   9.461
39863SOL    HW121486   2.316   8.759   9.552
39863SOL    HW221487   2.432   8.801   9.463
39864SOL     OW21488  11.865  10.389   5.811
39864SOL    HW121489  11.869  10.479   5.844
39864SOL    HW221490  11.938  10.344   5.855
39865SOL     OW21491   6.242   5.390   6.398
39865SOL    HW121492   6.257   5.369   6.490
39865SOL    HW221493   6.294   5.325   6.350
39866SOL     OW21494   2.057   0.065   9.301
39866SOL    HW121495   2.124   0.073   9.233
39866SOL    HW221496   1.975   0.055   9.252
39867SOL     OW21497  11.300  11.142  12.180
39867SOL    HW121498  11.284  11.059  12.136
39867SOL    HW221499  11.395  11.154  12.176
39868SOL     OW21500   2.153   8.922   4.506
39868SOL    HW121501   2.187   8.838   4.536
39868SOL    HW221502   2.141   8.974   4.585
39869SOL     OW21503  10.623   3.698   6.718
39869SOL    HW121504  10.617   3.715   6.812
39869SOL    HW221505  10.606   3.783   6.677
39870SOL     OW21506  14.331   4.976   2.640
39870SOL    HW121507  14.414   4.964   2.686
39870SOL    HW221508  14.267   4.931   2.695
39871SOL     OW21509   5.438   4.193  14.245
39871SOL    HW121510   5.456   4.201  14.151
39871SOL    HW221511   5.468   4.104  14.267
39872SOL     OW21512  14.562  11.264   0.233
39872SOL    HW121513  14.538  11.344   0.186
39872SOL    HW221514  14.560  11.288   0.325
39873SOL     OW21515   7.904  10.358   6.706
39873SOL    HW121516   7.974  10.400   6.756
39873SOL    HW221517   7.835  10.424   6.700
39874SOL     OW21518   4.303  10.841   5.913
39874SOL    HW121519   4.247  10.839   5.990
39874SOL    HW221520   4.252  10.796   5.845
39875SOL     OW21521  11.101   7.449   1.184
39875SOL    HW121522  11.150   7.443   1.266
39875SOL    HW221523  11.165   7.484   1.122
39876SOL     OW21524  10.071   9.789  11.941
39876SOL    HW121525  10.096   9.881  11.947
39876SOL    HW221526   9.983   9.790  11.904
39877SOL     OW21527   5.318  12.190  12.381
39877SOL    HW121528   5.223  12.180  12.383
39877SOL    HW221529   5.346  12.171  12.470
39878SOL     OW21530   7.984   2.118   3.235
39878SOL    HW121531   7.918   2.115   3.166
39878SOL    HW221532   8.040   2.042   3.218
39879SOL     OW21533   0.513   9.208   9.037
39879SOL    HW121534   0.516   9.251   9.122
39879SOL    HW221535   0.575   9.136   9.044
39880SOL     OW21536  12.078   7.820   6.682
39880SOL    HW121537  12.068   7.736   6.637
39880SOL    HW221538  12.032   7.809   6.765
39881SOL     OW21539   8.525   7.884  11.568
39881SOL    HW121540   8.451   7.826  11.587
39881SOL    HW221541   8.491   7.945  11.502
39882SOL     OW21542  12.398   0.888   6.392
39882SOL    HW121543  12.345   0.965   6.413
39882SOL    HW221544  12.358   0.853   6.312
39883SOL     OW21545   1.396  10.694  12.278
39883SOL    HW121546   1.348  10.663  12.201
39883SOL    HW221547   1.407  10.616  12.331
39884SOL     OW21548  14.148  10.413  10.254
39884SOL    HW121549  14.079  10.472  10.225
39884SOL    HW221550  14.112  10.371  10.332
39885SOL     OW21551   2.517  12.431   8.934
39885SOL    HW121552   2.516  12.336   8.940
39885SOL    HW221553   2.552  12.449   8.846
39886SOL     OW21554  14.291  10.436   7.422
39886SOL    HW121555  14.254  10.496   7.486
39886SOL    HW221556  14.218  10.379   7.397
39887SOL     OW21557   9.721   4.844   5.330
39887SOL    HW121558   9.715   4.856   5.235
39887SOL    HW221559   9.630   4.837   5.359
39888SOL     OW21560   4.610   8.612   0.749
39888SOL    HW121561   4.670   8.551   0.707
39888SOL    HW221562   4.605   8.582   0.840
39889SOL     OW21563   9.485  12.685  14.420
39889SOL    HW121564   9.432  12.747  14.369
39889SOL    HW221565   9.572  12.690  14.380
39890SOL     OW21566   1.650  14.408   6.560
39890SOL    HW121567   1.689  14.344   6.620
39890SOL    HW221568   1.714  14.416   6.488
39891SOL     OW21569   9.021   2.401   0.081
39891SOL    HW121570   8.958   2.442   0.021
39891SOL    HW221571   9.037   2.468   0.148
39892SOL     OW21572   8.301   2.863   8.203
39892SOL    HW121573   8.326   2.776   8.232
39892SOL    HW221574   8.206   2.867   8.219
39893SOL     OW21575   5.645   9.421   8.047
39893SOL    HW121576   5.668   9.513   8.032
39893SOL    HW221577   5.725   9.373   8.029
39894SOL     OW21578   0.528   8.903   0.579
39894SOL    HW121579   0.609   8.950   0.598
39894SOL    HW221580   0.484   8.955   0.513
39895SOL     OW21581   9.063   2.921   0.589
39895SOL    HW121582   9.115   2.960   0.519
39895SOL    HW221583   9.127   2.877   0.645
39896SOL     OW21584   6.765   2.617  10.873
39896SOL    HW121585   6.816   2.634  10.794
39896SOL    HW221586   6.750   2.704  10.910
39897SOL     OW21587   8.118   7.646   1.874
39897SOL    HW121588   8.140   7.589   1.801
39897SOL    HW221589   8.109   7.588   1.950
39898SOL     OW21590   1.382  14.696  11.179
39898SOL    HW121591   1.458  14.754  11.183
39898SOL    HW221592   1.395  14.645  11.099
39899SOL     OW21593  12.233  12.353   0.016
39899SOL    HW121594  12.212  12.410  14.811
39899SOL    HW221595  12.183  12.389   0.089
39900SOL     OW21596   5.078  13.605   3.665
39900SOL    HW121597   5.078  13.510   3.660
39900SOL    HW221598   5.039  13.625   3.750
39901SOL     OW21599   0.843  11.433  10.313
39901SOL    HW121600   0.858  11.521  10.278
39901SOL    HW221601   0.760  11.405  10.274
39902SOL     OW21602   8.845  14.817  11.695
39902SOL    HW121603   8.771   0.008  11.689
39902SOL    HW221604   8.805  14.731  11.708
39903SOL     OW21605   3.985  14.217   6.758
39903SOL    HW121606   3.970  14.183   6.847
39903SOL    HW221607   4.069  14.181   6.732
39904SOL     OW21608   7.459  12.814   6.885
39904SOL    HW121609   7.457  12.905   6.855
39904SOL    HW221610   7.373  12.800   6.924
39905SOL     OW21611   8.052   4.118  11.298
39905SOL    HW121612   7.964   4.141  11.327
39905SOL    HW221613   8.102   4.200  11.305
39906SOL     OW21614   7.941  13.447  12.452
39906SOL    HW121615   7.945  13.539  12.426
39906SOL    HW221616   8.002  13.441  12.526
39907SOL     OW21617  12.012  13.107  11.384
39907SOL    HW121618  12.065  13.034  11.418
39907SOL    HW221619  12.071  13.182  11.384
39908SOL     OW21620   1.726   9.349   4.324
39908SOL    HW121621   1.719   9.435   4.282
39908SOL    HW221622   1.680   9.358   4.407
39909SOL     OW21623   0.080   5.416   9.691
39909SOL    HW121624   0.028   5.497   9.693
39909SOL    HW221625   0.168   5.445   9.668
39910SOL     OW21626  12.657   0.187   4.270
39910SOL    HW121627  12.703   0.110   4.239
39910SOL    HW221628  12.716   0.260   4.250
39911SOL     OW21629   5.907   6.426   8.430
39911SOL    HW121630   5.832   6.410   8.487
39911SOL    HW221631   5.978   6.376   8.470
39912SOL     OW21632   7.296   9.274   3.315
39912SOL    HW121633   7.259   9.247   3.398
39912SOL    HW221634   7.318   9.367   3.327
39913SOL     OW21635   6.524   5.608  10.868
39913SOL    HW121636   6.545   5.562  10.787
39913SOL    HW221637   6.603   5.659  10.888
39914SOL     OW21638   9.653   6.623   1.618
39914SOL    HW121639   9.616   6.544   1.577
39914SOL    HW221640   9.741   6.597   1.644
39915SOL     OW21641   3.498   9.964   8.416
39915SOL    HW121642   3.404   9.952   8.409
39915SOL    HW221643   3.514   9.978   8.510
39916SOL     OW21644  10.279  10.593   1.500
39916SOL    HW121645  10.264  10.642   1.420
39916SOL    HW221646  10.222  10.517   1.493
39917SOL     OW21647   6.599   7.770  14.175
39917SOL    HW121648   6.547   7.763  14.255
39917SOL    HW221649   6.534   7.779  14.105
39918SOL     OW21650   9.017  13.082  10.892
39918SOL    HW121651   9.077  13.010  10.872
39918SOL    HW221652   9.071  13.161  10.890
39919SOL     OW21653   2.115   6.019   9.149
39919SOL    HW121654   2.070   6.045   9.069
39919SOL    HW221655   2.046   6.015   9.215
39920SOL     OW21656   6.654  11.828   1.651
39920SOL    HW121657   6.639  11.886   1.576
39920SOL    HW221658   6.594  11.860   1.718
39921SOL     OW21659   7.378   1.001   6.215
39921SOL    HW121660   7.461   1.006   6.167
39921SOL    HW221661   7.398   1.035   6.302
39922SOL     OW21662   3.628   8.107   6.292
39922SOL    HW121663   3.606   8.153   6.211
39922SOL    HW221664   3.617   8.172   6.361
39923SOL     OW21665  12.508   0.194   5.210
39923SOL    HW121666  12.557   0.241   5.277
39923SOL    HW221667  12.416   0.206   5.234
39924SOL     OW21668   0.210   1.208   2.502
39924SOL    HW121669   0.259   1.241   2.578
39924SOL    HW221670   0.155   1.282   2.476
39925SOL     OW21671  12.785   9.809   5.777
39925SOL    HW121672  12.733   9.879   5.816
39925SOL    HW221673  12.837   9.773   5.849
39926SOL     OW21674   0.282  13.885   6.285
39926SOL    HW121675   0.239  13.970   6.281
39926SOL    HW221676   0.239  13.839   6.357
39927SOL     OW21677   5.388  14.427  10.545
39927SOL    HW121678   5.355  14.361  10.605
39927SOL    HW221679   5.464  14.386  10.504
39928SOL     OW21680   6.819   9.249   9.598
39928SOL    HW121681   6.803   9.221   9.688
39928SOL    HW221682   6.913   9.239   9.586
39929SOL     OW21683  10.902  11.543   4.143
39929SOL    HW121684  10.882  11.452   4.122
39929SOL    HW221685  10.988  11.557   4.104
39930SOL     OW21686  10.727   9.175   5.937
39930SOL    HW121687  10.683   9.257   5.917
39930SOL    HW221688  10.747   9.136   5.852
39931SOL     OW21689  11.311  12.018   8.083
39931SOL    HW121690  11.388  11.964   8.072
39931SOL    HW221691  11.239  11.965   8.050
39932SOL     OW21692   4.326   8.973  13.757
39932SOL    HW121693   4.270   8.912  13.710
39932SOL    HW221694   4.409   8.971  13.709
39933SOL     OW21695   1.501   2.445   0.183
39933SOL    HW121696   1.406   2.448   0.172
39933SOL    HW221697   1.535   2.493   0.107
39934SOL     OW21698   8.251   8.184  14.494
39934SOL    HW121699   8.163   8.217  14.473
39934SOL    HW221700   8.310   8.243  14.446
39935SOL     OW21701   3.565  13.566  14.318
39935SOL    HW121702   3.561  13.613  14.402
39935SOL    HW221703   3.530  13.479  14.338
39936SOL     OW21704   1.693  13.403  10.921
39936SOL    HW121705   1.753  13.405  10.996
39936SOL    HW221706   1.609  13.378  10.959
39937SOL     OW21707   1.735  11.889   5.995
39937SOL    HW121708   1.650  11.855   6.021
39937SOL    HW221709   1.757  11.952   6.063
39938SOL     OW21710   7.485  10.721  13.687
39938SOL    HW121711   7.568  10.734  13.641
39938SOL    HW221712   7.490  10.780  13.762
39939SOL     OW21713   8.497  10.803   9.316
39939SOL    HW121714   8.500  10.765   9.403
39939SOL    HW221715   8.417  10.857   9.315
39940SOL     OW21716   2.914  10.226   6.432
39940SOL    HW121717   2.852  10.247   6.501
39940SOL    HW221718   2.947  10.311   6.402
39941SOL     OW21719   9.992   9.322  14.779
39941SOL    HW121720   9.937   9.373  14.718
39941SOL    HW221721   9.947   9.238  14.786
39942SOL     OW21722   3.074   5.467  12.011
39942SOL    HW121723   3.021   5.423  12.077
39942SOL    HW221724   3.082   5.557  12.042
39943SOL     OW21725  12.689   6.278  13.793
39943SOL    HW121726  12.656   6.191  13.771
39943SOL    HW221727  12.620   6.338  13.765
39944SOL     OW21728  12.997   8.912  13.703
39944SOL    HW121729  13.066   8.933  13.766
39944SOL    HW221730  12.948   8.841  13.744
39945SOL     OW21731   8.153   4.717   1.569
39945SOL    HW121732   8.159   4.762   1.654
39945SOL    HW221733   8.243   4.719   1.535
39946SOL     OW21734   3.410   8.687  12.621
39946SOL    HW121735   3.362   8.737  12.686
39946SOL    HW221736   3.491   8.736  12.608
39947SOL     OW21737  13.805   1.095   7.440
39947SOL    HW121738  13.803   0.999   7.434
39947SOL    HW221739  13.719   1.123   7.406
39948SOL     OW21740   5.949   2.246  13.023
39948SOL    HW121741   5.867   2.236  12.974
39948SOL    HW221742   6.014   2.197  12.973
39949SOL     OW21743   1.196   8.760   3.990
39949SOL    HW121744   1.263   8.782   4.055
39949SOL    HW221745   1.114   8.757   4.040
39950SOL     OW21746   6.036   7.592   0.618
39950SOL    HW121747   5.964   7.540   0.653
39950SOL    HW221748   6.107   7.580   0.681
39951SOL     OW21749   6.749  13.886  11.286
39951SOL    HW121750   6.766  13.976  11.314
39951SOL    HW221751   6.771  13.885  11.193
39952SOL     OW21752   6.317  11.639   3.548
39952SOL    HW121753   6.293  11.641   3.641
39952SOL    HW221754   6.366  11.558   3.537
39953SOL     OW21755   8.100   2.081  12.541
39953SOL    HW121756   8.092   2.051  12.631
39953SOL    HW221757   8.057   2.013  12.489
39954SOL     OW21758   9.978  11.839   1.417
39954SOL    HW121759  10.059  11.792   1.404
39954SOL    HW221760   9.964  11.837   1.512
39955SOL     OW21761   1.753   8.021   5.752
39955SOL    HW121762   1.669   8.052   5.787
39955SOL    HW221763   1.816   8.087   5.781
39956SOL     OW21764   4.743  10.579   2.234
39956SOL    HW121765   4.695  10.549   2.311
39956SOL    HW221766   4.826  10.612   2.268
39957SOL     OW21767   5.231   7.082   1.352
39957SOL    HW121768   5.187   7.064   1.269
39957SOL    HW221769   5.199   7.168   1.378
39958SOL     OW21770   8.821  12.617   6.368
39958SOL    HW121771   8.842  12.537   6.320
39958SOL    HW221772   8.756  12.589   6.433
39959SOL     OW21773  13.897   4.219  12.008
39959SOL    HW121774  13.937   4.291  12.057
39959SOL    HW221775  13.948   4.214  11.927
39960SOL     OW21776   3.920   8.332   7.984
39960SOL    HW121777   3.896   8.377   7.903
39960SOL    HW221778   3.975   8.259   7.956
39961SOL     OW21779   8.123   9.340   5.206
39961SOL    HW121780   8.048   9.299   5.164
39961SOL    HW221781   8.113   9.317   5.299
39962SOL     OW21782   5.115   2.314   6.208
39962SOL    HW121783   5.189   2.330   6.268
39962SOL    HW221784   5.156   2.277   6.130
39963SOL     OW21785  10.996   9.738   7.733
39963SOL    HW121786  11.091   9.739   7.722
39963SOL    HW221787  10.974   9.827   7.760
39964SOL     OW21788   4.822   0.949  11.375
39964SOL    HW121789   4.879   0.997  11.315
39964SOL    HW221790   4.735   0.988  11.363
39965SOL     OW21791   1.043  14.128   3.284
39965SOL    HW121792   1.051  14.174   3.368
39965SOL    HW221793   0.948  14.121   3.270
39966SOL     OW21794   2.109   1.700   4.698
39966SOL    HW121795   2.098   1.781   4.747
39966SOL    HW221796   2.172   1.650   4.748
39967SOL     OW21797   4.368  10.838   0.297
39967SOL    HW121798   4.343  10.913   0.242
39967SOL    HW221799   4.463  10.833   0.287
39968SOL     OW21800  11.727   1.615  10.275
39968SOL    HW121801  11.709   1.662  10.357
39968SOL    HW221802  11.656   1.550  10.270
39969SOL     OW21803   2.663   1.083  12.738
39969SOL    HW121804   2.667   1.178  12.751
39969SOL    HW221805   2.574   1.066  12.707
39970SOL     OW21806  11.458   8.071   3.702
39970SOL    HW121807  11.554   8.061   3.705
39970SOL    HW221808  11.427   8.022   3.778
39971SOL     OW21809   2.089   0.752  11.623
39971SOL    HW121810   2.072   0.838  11.661
39971SOL    HW221811   2.071   0.763  11.530
39972SOL     OW21812  10.074   3.461  12.821
39972SOL    HW121813  10.074   3.368  12.843
39972SOL    HW221814  10.166   3.482  12.807
39973SOL     OW21815   4.916   1.619  12.805
39973SOL    HW121816   4.949   1.657  12.886
39973SOL    HW221817   4.953   1.674  12.736
39974SOL     OW21818   6.316   8.386   0.424
39974SOL    HW121819   6.256   8.312   0.417
39974SOL    HW221820   6.287   8.432   0.504
39975SOL     OW21821  13.790   7.878  13.642
39975SOL    HW121822  13.790   7.786  13.670
39975SOL    HW221823  13.877   7.891  13.605
39976SOL     OW21824   2.881   7.487  12.537
39976SOL    HW121825   2.857   7.400  12.508
39976SOL    HW221826   2.962   7.474  12.588
39977SOL     OW21827   7.673   9.060  12.976
39977SOL    HW121828   7.727   9.076  12.898
39977SOL    HW221829   7.633   8.974  12.961
39978SOL     OW21830   4.439   1.610   2.687
39978SOL    HW121831   4.353   1.569   2.697
39978SOL    HW221832   4.501   1.539   2.702
39979SOL     OW21833   5.767   8.723   1.269
39979SOL    HW121834   5.774   8.690   1.358
39979SOL    HW221835   5.723   8.653   1.220
39980SOL     OW21836  11.488   7.952   1.641
39980SOL    HW121837  11.525   8.018   1.582
39980SOL    HW221838  11.423   7.906   1.588
39981SOL     OW21839   1.242  13.090   7.416
39981SOL    HW121840   1.186  13.054   7.347
39981SOL    HW221841   1.181  13.118   7.484
39982SOL     OW21842   6.078  13.391   7.288
39982SOL    HW121843   6.101  13.350   7.204
39982SOL    HW221844   5.982  13.394   7.287
39983SOL     OW21845   5.259   1.500   1.854
39983SOL    HW121846   5.242   1.528   1.943
39983SOL    HW221847   5.321   1.566   1.820
39984SOL     OW21848  10.820   0.271   8.374
39984SOL    HW121849  10.765   0.258   8.451
39984SOL    HW221850  10.759   0.279   8.301
39985SOL     OW21851   8.716   9.997   6.814
39985SOL    HW121852   8.694  10.085   6.845
39985SOL    HW221853   8.800  10.007   6.769
39986SOL     OW21854   0.181  13.256   2.270
39986SOL    HW121855   0.245  13.216   2.211
39986SOL    HW221856   0.234  13.294   2.340
39987SOL     OW21857   7.416   6.973   7.338
39987SOL    HW121858   7.438   6.884   7.365
39987SOL    HW221859   7.320   6.975   7.339
39988SOL     OW21860  13.614   8.471   1.649
39988SOL    HW121861  13.561   8.400   1.613
39988SOL    HW221862  13.676   8.428   1.708
39989SOL     OW21863   2.634  13.422   8.004
39989SOL    HW121864   2.625  13.414   8.099
39989SOL    HW221865   2.554  13.466   7.976
39990SOL     OW21866  12.322  14.240  10.194
39990SOL    HW121867  12.259  14.182  10.150
39990SOL    HW221868  12.402  14.231  10.143
39991SOL     OW21869  12.906  14.352   1.450
39991SOL    HW121870  12.917  14.271   1.499
39991SOL    HW221871  12.993  14.393   1.451
39992SOL     OW21872  10.147   8.508   5.338
39992SOL    HW121873  10.189   8.463   5.411
39992SOL    HW221874  10.103   8.438   5.289
39993SOL     OW21875   9.203   3.807   7.055
39993SOL    HW121876   9.143   3.880   7.045
39993SOL    HW221877   9.164   3.736   7.005
39994SOL     OW21878   1.880   2.859  14.218
39994SOL    HW121879   1.933   2.932  14.188
39994SOL    HW221880   1.789   2.890  14.208
39995SOL     OW21881  10.099   6.249   0.872
39995SOL    HW121882  10.178   6.199   0.893
39995SOL    HW221883  10.034   6.218   0.935
39996SOL     OW21884   6.059   2.733   3.653
39996SOL    HW121885   6.148   2.722   3.687
39996SOL    HW221886   6.071   2.774   3.567
39997SOL     OW21887   9.007   9.933   7.214
39997SOL    HW121888   8.923   9.925   7.259
39997SOL    HW221889   8.987   9.920   7.122
39998SOL     OW21890   8.451  10.272  10.459
39998SOL    HW121891   8.525  10.242  10.405
39998SOL    HW221892   8.376  10.221  10.429
39999SOL     OW21893   1.375   1.382  10.419
39999SOL    HW121894   1.429   1.377  10.340
39999SOL    HW221895   1.428   1.431  10.482
40000SOL     OW21896   9.496   7.500  14.237
40000SOL    HW121897   9.403   7.520  14.245
40000SOL    HW221898   9.499   7.406  14.218
40001SOL     OW21899  11.306   4.408   9.287
40001SOL    HW121900  11.260   4.492   9.294
40001SOL    HW221901  11.259   4.360   9.219
40002SOL     OW21902   6.580   5.087  14.261
40002SOL    HW121903   6.642   5.150  14.297
40002SOL    HW221904   6.630   5.036  14.198
40003SOL     OW21905   5.320   1.233  11.676
40003SOL    HW121906   5.228   1.229  11.650
40003SOL    HW221907   5.358   1.151  11.645
40004SOL     OW21908  13.872   5.530   3.815
40004SOL    HW121909  13.833   5.447   3.841
40004SOL    HW221910  13.818   5.561   3.743
40005SOL     OW21911   2.755   0.652   3.546
40005SOL    HW121912   2.804   0.578   3.581
40005SOL    HW221913   2.789   0.728   3.592
40006SOL     OW21914   2.800   5.153   7.159
40006SOL    HW121915   2.738   5.222   7.183
40006SOL    HW221916   2.746   5.087   7.114
40007SOL     OW21917   9.811   8.888   5.491
40007SOL    HW121918   9.860   8.830   5.549
40007SOL    HW221919   9.794   8.966   5.543
40008SOL     OW21920  11.937  10.135   4.833
40008SOL    HW121921  11.965  10.184   4.910
40008SOL    HW221922  11.841  10.142   4.834
40009SOL     OW21923   9.403   4.537   2.416
40009SOL    HW121924   9.498   4.525   2.417
40009SOL    HW221925   9.369   4.463   2.467
40010SOL     OW21926   4.981   1.420   8.221
40010SOL    HW121927   5.055   1.479   8.238
40010SOL    HW221928   4.984   1.406   8.126
40011SOL     OW21929   2.699   1.628   2.724
40011SOL    HW121930   2.605   1.623   2.703
40011SOL    HW221931   2.710   1.714   2.764
40012SOL     OW21932  12.623   6.499   2.172
40012SOL    HW121933  12.653   6.437   2.240
40012SOL    HW221934  12.537   6.467   2.146
40013SOL     OW21935  10.073   0.278  10.501
40013SOL    HW121936  10.027   0.271  10.586
40013SOL    HW221937  10.114   0.365  10.503
40014SOL     OW21938   2.094   8.409   2.285
40014SOL    HW121939   2.026   8.476   2.292
40014SOL    HW221940   2.069   8.342   2.349
40015SOL     OW21941   0.727   3.298   5.778
40015SOL    HW121942   0.743   3.391   5.794
40015SOL    HW221943   0.806   3.267   5.733
40016SOL     OW21944   3.590  13.162   4.215
40016SOL    HW121945   3.556  13.109   4.287
40016SOL    HW221946   3.664  13.209   4.253
40017SOL     OW21947   0.933  11.317  13.252
40017SOL    HW121948   0.972  11.403  13.269
40017SOL    HW221949   0.871  11.332  13.181
40018SOL     OW21950   8.017   0.960   5.241
40018SOL    HW121951   7.956   0.888   5.255
40018SOL    HW221952   8.100   0.929   5.277
40019SOL     OW21953   0.563  13.076   2.102
40019SOL    HW121954   0.596  12.996   2.142
40019SOL    HW221955   0.545  13.053   2.011
40020SOL     OW21956  13.952   2.539   1.054
40020SOL    HW121957  13.941   2.446   1.035
40020SOL    HW221958  13.879   2.559   1.113
40021SOL     OW21959   0.757   2.355  14.374
40021SOL    HW121960   0.684   2.386  14.320
40021SOL    HW221961   0.731   2.377  14.464
40022SOL     OW21962   1.364   1.722  13.511
40022SOL    HW121963   1.454   1.700  13.535
40022SOL    HW221964   1.363   1.818  13.507
40023SOL     OW21965   0.902  10.904  12.667
40023SOL    HW121966   0.886  10.876  12.577
40023SOL    HW221967   0.818  10.940  12.697
40024SOL     OW21968   3.832   8.255   4.459
40024SOL    HW121969   3.772   8.203   4.512
40024SOL    HW221970   3.831   8.341   4.501
40025SOL     OW21971   9.149  14.003   6.532
40025SOL    HW121972   9.165  13.913   6.505
40025SOL    HW221973   9.064  14.000   6.575
40026SOL     OW21974   2.266   7.712   2.038
40026SOL    HW121975   2.252   7.792   2.089
40026SOL    HW221976   2.188   7.704   1.983
40027SOL     OW21977   2.890   3.530   2.771
40027SOL    HW121978   2.886   3.620   2.805
40027SOL    HW221979   2.932   3.480   2.840
40028SOL     OW21980  10.399   2.968   8.057
40028SOL    HW121981  10.368   2.998   8.142
40028SOL    HW221982  10.410   2.874   8.067
40029SOL     OW21983   5.605  14.210   6.649
40029SOL    HW121984   5.513  14.182   6.645
40029SOL    HW221985   5.654  14.129   6.664
40030SOL     OW21986  12.897   3.169  13.551
40030SOL    HW121987  12.914   3.256  13.515
40030SOL    HW221988  12.803   3.169  13.572
40031SOL     OW21989   8.899  11.065  11.584
40031SOL    HW121990   8.811  11.093  11.607
40031SOL    HW221991   8.927  11.129  11.518
40032SOL     OW21992   1.876   8.666  12.383
40032SOL    HW121993   1.961   8.706  12.365
40032SOL    HW221994   1.845   8.711  12.461
40033SOL     OW21995  11.214   6.697   5.797
40033SOL    HW121996  11.129   6.733   5.823
40033SOL    HW221997  11.275   6.769   5.808
40034SOL     OW21998   9.455   8.709   3.760
40034SOL    HW121999   9.456   8.630   3.813
40034SOL    HW222000   9.362   8.728   3.746
40035SOL     OW22001  12.127   2.982   4.711
40035SOL    HW122002  12.216   2.978   4.677
40035SOL    HW222003  12.079   2.917   4.659
40036SOL     OW22004  13.886   5.524   1.844
40036SOL    HW122005  13.844   5.505   1.928
40036SOL    HW222006  13.868   5.446   1.791
40037SOL     OW22007   3.443   7.419   2.113
40037SOL    HW122008   3.430   7.328   2.141
40037SOL    HW222009   3.503   7.413   2.039
40038SOL     OW22010   5.675   7.875  14.673
40038SOL    HW122011   5.653   7.794  14.627
40038SOL    HW222012   5.706   7.846  14.759
40039SOL     OW22013   3.556   0.980   4.041
40039SOL    HW122014   3.532   0.970   4.133
40039SOL    HW222015   3.537   0.895   4.001
40040SOL     OW22016   0.393   5.320  11.204
40040SOL    HW122017   0.461   5.270  11.158
40040SOL    HW222018   0.366   5.262  11.275
40041SOL     OW22019  11.981   0.190   3.090
40041SOL    HW122020  12.076   0.195   3.099
40041SOL    HW222021  11.949   0.274   3.123
40042SOL     OW22022   4.281   6.704   9.378
40042SOL    HW122023   4.342   6.696   9.452
40042SOL    HW222024   4.326   6.659   9.306
40043SOL     OW22025   5.292   1.291  13.271
40043SOL    HW122026   5.287   1.244  13.354
40043SOL    HW222027   5.257   1.378  13.290
40044SOL     OW22028   6.010   6.861   1.123
40044SOL    HW122029   6.083   6.868   1.061
40044SOL    HW222030   6.052   6.864   1.209
40045SOL     OW22031   0.995  13.465   0.263
40045SOL    HW122032   1.020  13.536   0.204
40045SOL    HW222033   0.933  13.506   0.324
40046SOL     OW22034   4.221   0.606   6.536
40046SOL    HW122035   4.212   0.574   6.626
40046SOL    HW222036   4.305   0.652   6.536
40047SOL     OW22037   9.291   9.677   4.315
40047SOL    HW122038   9.230   9.605   4.302
40047SOL    HW222039   9.368   9.652   4.264
40048SOL     OW22040   8.148  13.833   8.783
40048SOL    HW122041   8.163  13.849   8.690
40048SOL    HW222042   8.059  13.864   8.799
40049SOL     OW22043   5.039  11.343   7.302
40049SOL    HW122044   5.120  11.311   7.342
40049SOL    HW222045   5.064  11.366   7.213
40050SOL     OW22046   3.028   9.892   3.184
40050SOL    HW122047   3.068   9.811   3.151
40050SOL    HW222048   3.093   9.927   3.245
40051SOL     OW22049   4.886   3.722   0.721
40051SOL    HW122050   4.855   3.631   0.718
40051SOL    HW222051   4.924   3.737   0.635
40052SOL     OW22052   3.663  13.782   3.456
40052SOL    HW122053   3.596  13.754   3.393
40052SOL    HW222054   3.615  13.802   3.536
40053SOL     OW22055  12.300   8.886  14.070
40053SOL    HW122056  12.243   8.962  14.059
40053SOL    HW222057  12.267   8.822  14.006
40054SOL     OW22058   7.255   5.471  11.531
40054SOL    HW122059   7.290   5.382  11.536
40054SOL    HW222060   7.269   5.496  11.439
40055SOL     OW22061   8.687   7.082  12.356
40055SOL    HW122062   8.598   7.117  12.361
40055SOL    HW222063   8.693   7.046  12.267
40056SOL     OW22064  14.327   2.420  10.510
40056SOL    HW122065  14.277   2.500  10.492
40056SOL    HW222066  14.273   2.349  10.475
40057SOL     OW22067   5.384   3.671   4.913
40057SOL    HW122068   5.407   3.734   4.845
40057SOL    HW222069   5.404   3.586   4.875
40058SOL     OW22070   6.770   5.178   1.825
40058SOL    HW122071   6.718   5.186   1.745
40058SOL    HW222072   6.720   5.224   1.892
40059SOL     OW22073   6.657   4.467  12.149
40059SOL    HW122074   6.585   4.504  12.097
40059SOL    HW222075   6.693   4.542  12.196
40060SOL     OW22076  14.086  10.070   4.101
40060SOL    HW122077  14.084   9.976   4.082
40060SOL    HW222078  14.179  10.090   4.111
40061SOL     OW22079   3.914  14.527  13.553
40061SOL    HW122080   3.934  14.614  13.517
40061SOL    HW222081   3.971  14.520  13.630
40062SOL     OW22082   0.218  11.963   2.145
40062SOL    HW122083   0.273  12.009   2.208
40062SOL    HW222084   0.197  12.029   2.079
40063SOL     OW22085   0.314   5.375   7.583
40063SOL    HW122086   0.332   5.291   7.625
40063SOL    HW222087   0.253   5.353   7.513
40064SOL     OW22088   8.310  13.677   7.161
40064SOL    HW122089   8.372  13.697   7.091
40064SOL    HW222090   8.309  13.755   7.216
40065SOL     OW22091   6.996  10.537   9.085
40065SOL    HW122092   7.084  10.562   9.057
40065SOL    HW222093   6.956  10.500   9.006
40066SOL     OW22094   6.471   0.184   6.500
40066SOL    HW122095   6.494   0.162   6.591
40066SOL    HW222096   6.517   0.266   6.483
40067SOL     OW22097   3.497   7.521   0.924
40067SOL    HW122098   3.510   7.597   0.867
40067SOL    HW222099   3.413   7.485   0.897
40068SOL     OW22100   6.439  11.997   5.170
40068SOL    HW122101   6.507  11.974   5.234
40068SOL    HW222102   6.404  11.913   5.140
40069SOL     OW22103  10.687  11.131   8.640
40069SOL    HW122104  10.692  11.204   8.702
40069SOL    HW222105  10.722  11.056   8.688
40070SOL     OW22106  12.766   0.846   2.203
40070SOL    HW122107  12.839   0.819   2.260
40070SOL    HW222108  12.690   0.848   2.261
40071SOL     OW22109  13.563   9.385   5.827
40071SOL    HW122110  13.526   9.333   5.898
40071SOL    HW222111  13.542   9.476   5.851
40072SOL     OW22112   8.915  14.641   1.689
40072SOL    HW122113   8.965  14.607   1.763
40072SOL    HW222114   8.825  14.610   1.705
40073SOL     OW22115  14.708   4.795   4.144
40073SOL    HW122116  14.676   4.881   4.170
40073SOL    HW222117  14.787   4.782   4.197
40074SOL     OW22118   0.616   1.868   3.103
40074SOL    HW122119   0.545   1.814   3.136
40074SOL    HW222120   0.694   1.838   3.150
40075SOL     OW22121   5.736  14.325   6.393
40075SOL    HW122122   5.730  14.232   6.370
40075SOL    HW222123   5.698  14.330   6.481
40076SOL     OW22124   4.387  14.712   4.620
40076SOL    HW122125   4.470  14.755   4.638
40076SOL    HW222126   4.326  14.783   4.597
40077SOL     OW22127   6.679   8.728   9.368
40077SOL    HW122128   6.751   8.791   9.369
40077SOL    HW222129   6.604   8.777   9.335
40078SOL     OW22130  11.477   9.443  12.667
40078SOL    HW122131  11.461   9.461  12.760
40078SOL    HW222132  11.402   9.390  12.640
40079SOL     OW22133   8.815  13.024   8.085
40079SOL    HW122134   8.739  12.969   8.105
40079SOL    HW222135   8.888  12.980   8.129
40080SOL     OW22136   8.599  10.529   8.537
40080SOL    HW122137   8.663  10.558   8.471
40080SOL    HW222138   8.575  10.440   8.510
40081SOL     OW22139   3.645  13.099  14.733
40081SOL    HW122140   3.682  13.044  14.802
40081SOL    HW222141   3.551  13.089  14.741
40082SOL     OW22142   0.428  12.775   6.533
40082SOL    HW122143   0.453  12.859   6.494
40082SOL    HW222144   0.370  12.735   6.468
40083SOL     OW22145  13.156   2.280   0.641
40083SOL    HW122146  13.101   2.211   0.679
40083SOL    HW222147  13.099   2.322   0.576
40084SOL     OW22148  11.732   1.944  13.600
40084SOL    HW122149  11.743   1.942  13.505
40084SOL    HW222150  11.789   1.875  13.633
40085SOL     OW22151   3.506  10.772  14.744
40085SOL    HW122152   3.445  10.765  14.670
40085SOL    HW222153   3.577  10.713  14.721
40086SOL     OW22154   5.939  13.781  10.543
40086SOL    HW122155   6.020  13.752  10.584
40086SOL    HW222156   5.898  13.838  10.609
40087SOL     OW22157   0.701   8.753   5.872
40087SOL    HW122158   0.671   8.841   5.849
40087SOL    HW222159   0.625   8.710   5.911
40088SOL     OW22160   2.423   2.589   8.386
40088SOL    HW122161   2.514   2.596   8.356
40088SOL    HW222162   2.426   2.521   8.454
40089SOL     OW22163  11.297   5.857   5.264
40089SOL    HW122164  11.302   5.797   5.339
40089SOL    HW222165  11.357   5.820   5.200
40090SOL     OW22166  14.338  10.494  13.962
40090SOL    HW122167  14.293  10.419  14.000
40090SOL    HW222168  14.428  10.488  13.996
40091SOL     OW22169  10.814  11.174   7.356
40091SOL    HW122170  10.808  11.238   7.285
40091SOL    HW222171  10.736  11.190   7.409
40092SOL     OW22172   7.447   1.786   9.331
40092SOL    HW122173   7.490   1.709   9.367
40092SOL    HW222174   7.364   1.792   9.379
40093SOL     OW22175  13.052   1.280   6.452
40093SOL    HW122176  13.133   1.270   6.501
40093SOL    HW222177  12.989   1.312   6.517
40094SOL     OW22178   6.644   0.257   1.277
40094SOL    HW122179   6.610   0.342   1.249
40094SOL    HW222180   6.570   0.197   1.268
40095SOL     OW22181  11.030   4.680   8.416
40095SOL    HW122182  11.012   4.735   8.340
40095SOL    HW222183  10.946   4.641   8.439
40096SOL     OW22184   0.047   7.287   4.974
40096SOL    HW122185   0.075   7.325   4.891
40096SOL    HW222186   0.002   7.358   5.020
40097SOL     OW22187   6.237   3.267   0.851
40097SOL    HW122188   6.217   3.212   0.928
40097SOL    HW222189   6.215   3.211   0.776
40098SOL     OW22190   4.421   1.686   7.961
40098SOL    HW122191   4.428   1.597   7.996
40098SOL    HW222192   4.329   1.695   7.937
40099SOL     OW22193  13.266   3.147  12.619
40099SOL    HW122194  13.251   3.053  12.612
40099SOL    HW222195  13.219   3.184  12.544
40100SOL     OW22196   7.567   6.755  13.819
40100SOL    HW122197   7.657   6.753  13.787
40100SOL    HW222198   7.522   6.688  13.769
40101SOL     OW22199   3.280   4.835  11.499
40101SOL    HW122200   3.205   4.855  11.443
40101SOL    HW222201   3.244   4.776  11.566
40102SOL     OW22202   0.099   7.088  12.665
40102SOL    HW122203   0.045   7.167  12.656
40102SOL    HW222204   0.078   7.036  12.588
40103SOL     OW22205  14.864  13.531   7.265
40103SOL    HW122206  14.808  13.568   7.333
40103SOL    HW222207   0.050  13.468   7.311
40104SOL     OW22208   1.474   3.758   1.756
40104SOL    HW122209   1.515   3.688   1.806
40104SOL    HW222210   1.429   3.713   1.684
40105SOL     OW22211   3.314   4.073   5.120
40105SOL    HW122212   3.253   4.019   5.170
40105SOL    HW222213   3.258   4.135   5.073
40106SOL     OW22214  10.960   5.066   5.857
40106SOL    HW122215  10.972   5.045   5.765
40106SOL    HW222216  10.872   5.103   5.862
40107SOL     OW22217   2.984  12.030   8.904
40107SOL    HW122218   2.985  11.949   8.955
40107SOL    HW222219   2.966  12.098   8.969
40108SOL     OW22220  13.695  14.432   2.220
40108SOL    HW122221  13.758  14.473   2.280
40108SOL    HW222222  13.610  14.463   2.251
40109SOL     OW22223  10.140  10.851   8.887
40109SOL    HW122224  10.190  10.924   8.850
40109SOL    HW222225  10.207  10.791   8.921
40110SOL     OW22226   1.637   6.545  14.777
40110SOL    HW122227   1.694   6.570  14.705
40110SOL    HW222228   1.582   6.622  14.792
40111SOL     OW22229  10.886  10.160  10.760
40111SOL    HW122230  10.863  10.208  10.681
40111SOL    HW222231  10.848  10.210  10.831
40112SOL     OW22232  12.725  14.006   7.739
40112SOL    HW122233  12.733  13.986   7.833
40112SOL    HW222234  12.664  13.941   7.706
40113SOL     OW22235  10.523  12.580   2.342
40113SOL    HW122236  10.466  12.545   2.274
40113SOL    HW222237  10.465  12.629   2.399
40114SOL     OW22238   8.821   2.536   4.179
40114SOL    HW122239   8.740   2.512   4.225
40114SOL    HW222240   8.867   2.593   4.241
40115SOL     OW22241   8.195  12.242  12.080
40115SOL    HW122242   8.150  12.325  12.092
40115SOL    HW222243   8.152  12.182  12.142
40116SOL     OW22244   0.787  13.336   6.249
40116SOL    HW122245   0.845  13.261   6.261
40116SOL    HW222246   0.831  13.390   6.183
40117SOL     OW22247  14.194   3.954   0.648
40117SOL    HW122248  14.261   3.889   0.626
40117SOL    HW222249  14.227   4.036   0.612
40118SOL     OW22250  10.380   3.315   9.363
40118SOL    HW122251  10.352   3.238   9.411
40118SOL    HW222252  10.368   3.388   9.424
40119SOL     OW22253  12.785  13.528   5.552
40119SOL    HW122254  12.861  13.476   5.579
40119SOL    HW222255  12.761  13.493   5.467
40120SOL     OW22256   1.623  11.302   0.800
40120SOL    HW122257   1.640  11.369   0.866
40120SOL    HW222258   1.601  11.352   0.721
40121SOL     OW22259   3.454  14.513   8.528
40121SOL    HW122260   3.364  14.495   8.499
40121SOL    HW222261   3.503  14.433   8.505
40122SOL     OW22262   5.785  12.976   3.732
40122SOL    HW122263   5.772  12.936   3.646
40122SOL    HW222264   5.788  13.070   3.714
40123SOL     OW22265   7.582   0.367   9.794
40123SOL    HW122266   7.517   0.382   9.725
40123SOL    HW222267   7.655   0.325   9.750
40124SOL     OW22268   6.795   0.535  14.747
40124SOL    HW122269   6.812   0.479  14.823
40124SOL    HW222270   6.861   0.604  14.753
40125SOL     OW22271   9.273   7.023  10.968
40125SOL    HW122272   9.339   7.042  10.901
40125SOL    HW222273   9.308   6.946  11.014
40126SOL     OW22274   4.267   6.998   3.063
40126SOL    HW122275   4.247   7.020   3.154
40126SOL    HW222276   4.205   7.050   3.012
40127SOL     OW22277   9.947   1.776   0.690
40127SOL    HW122278   9.975   1.712   0.625
40127SOL    HW222279   9.854   1.757   0.705
40128SOL     OW22280   3.019  11.166   5.893
40128SOL    HW122281   3.060  11.118   5.822
40128SOL    HW222282   3.071  11.246   5.901
40129SOL     OW22283  11.860  11.677  11.195
40129SOL    HW122284  11.800  11.670  11.121
40129SOL    HW222285  11.939  11.717  11.158
40130SOL     OW22286  10.579  11.050  14.080
40130SOL    HW122287  10.610  11.022  14.166
40130SOL    HW222288  10.488  11.078  14.095
40131SOL     OW22289   9.775   2.935   4.842
40131SOL    HW122290   9.864   2.901   4.848
40131SOL    HW222291   9.745   2.937   4.933
40132SOL     OW22292  14.810   5.095  11.921
40132SOL    HW122293  14.866   5.041  11.977
40132SOL    HW222294  14.866   5.118  11.846
40133SOL     OW22295   7.844  10.400  12.833
40133SOL    HW122296   7.749  10.393  12.829
40133SOL    HW222297   7.871  10.414  12.742
40134SOL     OW22298   4.926   6.857  14.591
40134SOL    HW122299   4.936   6.875  14.685
40134SOL    HW222300   5.015   6.838  14.560
40135SOL     OW22301  10.464   7.924   7.289
40135SOL    HW122302  10.372   7.909   7.310
40135SOL    HW222303  10.489   7.851   7.232
40136SOL     OW22304   3.446  13.637  10.686
40136SOL    HW122305   3.517  13.698  10.664
40136SOL    HW222306   3.471  13.555  10.643
40137SOL     OW22307   3.380   5.655   0.144
40137SOL    HW122308   3.357   5.647   0.237
40137SOL    HW222309   3.343   5.577   0.104
40138SOL     OW22310   3.476   3.542   7.928
40138SOL    HW122311   3.458   3.527   7.835
40138SOL    HW222312   3.472   3.638   7.938
40139SOL     OW22313  10.951   7.750  10.168
40139SOL    HW122314  10.965   7.778  10.077
40139SOL    HW222315  11.035   7.711  10.194
40140SOL     OW22316   6.451   2.485   3.212
40140SOL    HW122317   6.369   2.502   3.257
40140SOL    HW222318   6.492   2.415   3.263
40141SOL     OW22319  10.432  14.229  14.471
40141SOL    HW122320  10.361  14.293  14.482
40141SOL    HW222321  10.407  14.157  14.529
40142SOL     OW22322   4.325   9.749  12.427
40142SOL    HW122323   4.358   9.776  12.341
40142SOL    HW222324   4.399   9.761  12.486
40143SOL     OW22325   2.929   4.010   1.361
40143SOL    HW122326   2.873   3.979   1.432
40143SOL    HW222327   2.952   4.100   1.386
40144SOL     OW22328   5.797  13.841   3.597
40144SOL    HW122329   5.759  13.919   3.635
40144SOL    HW222330   5.872  13.872   3.546
40145SOL     OW22331   8.029   9.855   1.137
40145SOL    HW122332   8.057   9.858   1.229
40145SOL    HW222333   8.066   9.773   1.104
40146SOL     OW22334   5.948  11.631  11.566
40146SOL    HW122335   5.958  11.699  11.500
40146SOL    HW222336   6.003  11.559  11.534
40147SOL     OW22337   0.386   2.727   0.598
40147SOL    HW122338   0.387   2.751   0.690
40147SOL    HW222339   0.294   2.707   0.578
40148SOL     OW22340   9.408   7.035   6.717
40148SOL    HW122341   9.324   6.991   6.706
40148SOL    HW222342   9.420   7.041   6.812
40149SOL     OW22343   7.677   0.345   3.761
40149SOL    HW122344   7.720   0.374   3.841
40149SOL    HW222345   7.607   0.408   3.747
40150SOL     OW22346   1.523   7.196  11.871
40150SOL    HW122347   1.516   7.269  11.933
40150SOL    HW222348   1.605   7.152  11.895
40151SOL     OW22349   0.482  13.436  12.248
40151SOL    HW122350   0.434  13.360  12.215
40151SOL    HW222351   0.416  13.506  12.249
40152SOL     OW22352  13.351   7.755   3.682
40152SOL    HW122353  13.377   7.744   3.773
40152SOL    HW222354  13.418   7.709   3.631
40153SOL     OW22355   8.028   7.016  12.938
40153SOL    HW122356   8.067   7.099  12.967
40153SOL    HW222357   8.089   6.982  12.874
40154SOL     OW22358   4.012  12.033   3.037
40154SOL    HW122359   3.970  11.964   2.986
40154SOL    HW222360   4.035  12.100   2.973
40155SOL     OW22361  11.510   3.544  10.443
40155SOL    HW122362  11.601   3.519  10.429
40155SOL    HW222363  11.459   3.481  10.393
40156SOL     OW22364  14.313   3.313   9.587
40156SOL    HW122365  14.308   3.398   9.543
40156SOL    HW222366  14.343   3.252   9.519
40157SOL     OW22367   0.559  10.184   2.836
40157SOL    HW122368   0.616  10.109   2.853
40157SOL    HW222369   0.471  10.148   2.835
40158SOL     OW22370  10.169  14.328  11.306
40158SOL    HW122371  10.234  14.302  11.240
40158SOL    HW222372  10.121  14.400  11.265
40159SOL     OW22373   9.535  10.284   8.984
40159SOL    HW122374   9.600  10.354   8.985
40159SOL    HW222375   9.522  10.262   9.076
40160SOL     OW22376  10.236   2.060   9.659
40160SOL    HW122377  10.149   2.096   9.676
40160SOL    HW222378  10.285   2.079   9.739
40161SOL     OW22379   4.095   6.829   0.187
40161SOL    HW122380   4.033   6.892   0.223
40161SOL    HW222381   4.102   6.853   0.094
40162SOL     OW22382  11.288   6.941   0.388
40162SOL    HW122383  11.321   6.916   0.474
40162SOL    HW222384  11.272   7.036   0.395
40163SOL     OW22385   5.775   5.497   1.212
40163SOL    HW122386   5.783   5.487   1.307
40163SOL    HW222387   5.852   5.547   1.186
40164SOL     OW22388   0.875   7.304   4.291
40164SOL    HW122389   0.858   7.211   4.276
40164SOL    HW222390   0.794   7.348   4.265
40165SOL     OW22391  11.131  14.818   5.178
40165SOL    HW122392  11.186  14.849   5.106
40165SOL    HW222393  11.167  14.732   5.200
40166SOL     OW22394  12.405   5.923   3.602
40166SOL    HW122395  12.328   5.894   3.553
40166SOL    HW222396  12.373   5.997   3.655
40167SOL     OW22397  10.433   8.424   1.637
40167SOL    HW122398  10.502   8.491   1.633
40167SOL    HW222399  10.383   8.447   1.716
40168SOL     OW22400   3.631   6.742   5.296
40168SOL    HW122401   3.553   6.698   5.264
40168SOL    HW222402   3.656   6.693   5.375
40169SOL     OW22403  11.008  10.957   8.487
40169SOL    HW122404  11.087  10.907   8.468
40169SOL    HW222405  11.007  10.964   8.583
40170SOL     OW22406  10.893  13.265  12.159
40170SOL    HW122407  10.881  13.320  12.081
40170SOL    HW222408  10.804  13.255  12.194
40171SOL     OW22409   6.698  10.197  13.994
40171SOL    HW122410   6.614  10.243  14.003
40171SOL    HW222411   6.764  10.267  13.994
40172SOL     OW22412   2.897   4.162  12.094
40172SOL    HW122413   2.906   4.141  12.187
40172SOL    HW222414   2.808   4.132  12.071
40173SOL     OW22415  10.057   8.858  10.505
40173SOL    HW122416  10.100   8.867  10.590
40173SOL    HW222417   9.964   8.849  10.526
40174SOL     OW22418   3.916   3.853   2.916
40174SOL    HW122419   3.844   3.820   2.863
40174SOL    HW222420   3.995   3.830   2.867
40175SOL     OW22421  14.564  10.524   4.235
40175SOL    HW122422  14.568  10.525   4.140
40175SOL    HW222423  14.480  10.565   4.257
40176SOL     OW22424   4.867  10.353   5.046
40176SOL    HW122425   4.859  10.323   5.137
40176SOL    HW222426   4.829  10.441   5.047
40177SOL     OW22427  13.516  13.611  11.013
40177SOL    HW122428  13.441  13.561  11.045
40177SOL    HW222429  13.511  13.695  11.059
40178SOL     OW22430  14.046  11.839   0.324
40178SOL    HW122431  13.955  11.811   0.320
40178SOL    HW222432  14.053  11.888   0.405
40179SOL     OW22433  14.342  10.812   8.746
40179SOL    HW122434  14.255  10.853   8.744
40179SOL    HW222435  14.399  10.874   8.700
40180SOL     OW22436   5.404  12.692  13.932
40180SOL    HW122437   5.498  12.677  13.921
40180SOL    HW222438   5.363  12.627  13.876
40181SOL     OW22439   7.358  11.905   4.566
40181SOL    HW122440   7.429  11.850   4.534
40181SOL    HW222441   7.385  11.994   4.546
40182SOL     OW22442   7.578   9.575  12.953
40182SOL    HW122443   7.551   9.574  12.861
40182SOL    HW222444   7.512   9.522  12.998
40183SOL     OW22445   9.235   4.334  11.302
40183SOL    HW122446   9.213   4.407  11.360
40183SOL    HW222447   9.251   4.374  11.217
40184SOL     OW22448  12.607   1.681   5.251
40184SOL    HW122449  12.515   1.704   5.248
40184SOL    HW222450  12.645   1.724   5.174
40185SOL     OW22451   3.777   1.195   7.413
40185SOL    HW122452   3.753   1.275   7.460
40185SOL    HW222453   3.697   1.142   7.415
40186SOL     OW22454   9.111   1.183  13.005
40186SOL    HW122455   9.190   1.181  12.950
40186SOL    HW222456   9.141   1.150  13.090
40187SOL     OW22457   5.377   8.054  14.840
40187SOL    HW122458   5.428   8.107   0.032
40187SOL    HW222459   5.366   7.970   0.016
40188SOL     OW22460   3.750   3.392   0.799
40188SOL    HW122461   3.807   3.390   0.877
40188SOL    HW222462   3.712   3.305   0.795
40189SOL     OW22463   8.991  13.257   0.788
40189SOL    HW122464   9.073  13.284   0.828
40189SOL    HW222465   9.015  13.224   0.702
40190SOL     OW22466  12.725   9.327   0.429
40190SOL    HW122467  12.689   9.409   0.396
40190SOL    HW222468  12.811   9.320   0.389
40191SOL     OW22469   8.636   1.276   1.253
40191SOL    HW122470   8.692   1.227   1.192
40191SOL    HW222471   8.651   1.368   1.229
40192SOL     OW22472   7.883   0.537   4.615
40192SOL    HW122473   7.936   0.490   4.551
40192SOL    HW222474   7.931   0.619   4.630
40193SOL     OW22475   3.832  13.606   2.797
40193SOL    HW122476   3.772  13.680   2.804
40193SOL    HW222477   3.792  13.550   2.731
40194SOL     OW22478  14.392   4.377   2.031
40194SOL    HW122479  14.414   4.461   2.072
40194SOL    HW222480  14.297   4.374   2.032
40195SOL     OW22481   7.049   4.823  13.680
40195SOL    HW122482   7.060   4.757  13.749
40195SOL    HW222483   6.999   4.778  13.612
40196SOL     OW22484   7.525  11.893   4.205
40196SOL    HW122485   7.587  11.965   4.192
40196SOL    HW222486   7.566  11.837   4.271
40197SOL     OW22487   4.486   9.580  13.619
40197SOL    HW122488   4.425   9.650  13.596
40197SOL    HW222489   4.430   9.505  13.638
40198SOL     OW22490  12.676   6.928   6.825
40198SOL    HW122491  12.588   6.944   6.859
40198SOL    HW222492  12.728   6.907   6.903
40199SOL     OW22493   3.177   2.943   4.207
40199SOL    HW122494   3.174   2.848   4.203
40199SOL    HW222495   3.085   2.970   4.210
40200SOL     OW22496  12.110  11.985   1.109
40200SOL    HW122497  12.096  11.992   1.015
40200SOL    HW222498  12.034  11.937   1.142
40201SOL     OW22499   6.137  11.536   7.452
40201SOL    HW122500   6.071  11.604   7.437
40201SOL    HW222501   6.089  11.453   7.441
40202SOL     OW22502  12.121   9.191   8.186
40202SOL    HW122503  12.083   9.250   8.252
40202SOL    HW222504  12.214   9.190   8.205
40203SOL     OW22505   0.944  13.367   1.905
40203SOL    HW122506   0.939  13.432   1.835
40203SOL    HW222507   0.878  13.301   1.881
40204SOL     OW22508   9.576   1.395  10.939
40204SOL    HW122509   9.514   1.468  10.938
40204SOL    HW222510   9.522   1.317  10.929
40205SOL     OW22511   2.387   1.741  12.695
40205SOL    HW122512   2.470   1.778  12.664
40205SOL    HW222513   2.404   1.720  12.787
40206SOL     OW22514   3.406   9.422   9.122
40206SOL    HW122515   3.321   9.463   9.138
40206SOL    HW222516   3.389   9.328   9.128
40207SOL     OW22517   9.410  12.392  13.793
40207SOL    HW122518   9.499  12.364  13.815
40207SOL    HW222519   9.370  12.315  13.752
40208SOL     OW22520   7.197   5.803   1.142
40208SOL    HW122521   7.281   5.783   1.101
40208SOL    HW222522   7.211   5.785   1.235
40209SOL     OW22523   2.088   7.815  10.401
40209SOL    HW122524   2.146   7.756  10.448
40209SOL    HW222525   2.114   7.809  10.310
40210SOL     OW22526   0.191   5.778  10.501
40210SOL    HW122527   0.194   5.848  10.436
40210SOL    HW222528   0.143   5.707  10.458
40211SOL     OW22529   3.026  12.323  10.569
40211SOL    HW122530   3.075  12.264  10.511
40211SOL    HW222531   2.934  12.304  10.551
40212SOL     OW22532  11.461   8.257  13.200
40212SOL    HW122533  11.384   8.315  13.202
40212SOL    HW222534  11.448   8.198  13.274
40213SOL     OW22535  12.450  10.411  14.686
40213SOL    HW122536  12.522  10.430  14.626
40213SOL    HW222537  12.391  10.486  14.679
40214SOL     OW22538   2.158   7.642  14.190
40214SOL    HW122539   2.099   7.670  14.120
40214SOL    HW222540   2.167   7.719  14.246
40215SOL     OW22541   8.824   9.161   1.614
40215SOL    HW122542   8.841   9.254   1.623
40215SOL    HW222543   8.758   9.141   1.680
40216SOL     OW22544  11.423   6.322   5.995
40216SOL    HW122545  11.498   6.339   6.051
40216SOL    HW222546  11.454   6.343   5.907
40217SOL     OW22547  11.531   5.265   2.868
40217SOL    HW122548  11.450   5.241   2.914
40217SOL    HW222549  11.601   5.242   2.929
40218SOL     OW22550  13.989   8.526  11.917
40218SOL    HW122551  14.004   8.445  11.868
40218SOL    HW222552  14.031   8.511  12.002
40219SOL     OW22553   5.892  13.215   6.696
40219SOL    HW122554   5.810  13.264   6.696
40219SOL    HW222555   5.930  13.231   6.610
40220SOL     OW22556   8.707  13.467   4.216
40220SOL    HW122557   8.721  13.425   4.130
40220SOL    HW222558   8.627  13.425   4.249
40221SOL     OW22559   3.382   8.392  10.291
40221SOL    HW122560   3.348   8.308  10.262
40221SOL    HW222561   3.370   8.392  10.386
40222SOL     OW22562   2.004   3.028   5.629
40222SOL    HW122563   2.031   3.034   5.537
40222SOL    HW222564   2.001   2.935   5.648
40223SOL     OW22565   6.942   1.464   9.490
40223SOL    HW122566   6.892   1.383   9.484
40223SOL    HW222567   6.977   1.478   9.402
40224SOL     OW22568   4.640  13.220   3.194
40224SOL    HW122569   4.697  13.230   3.270
40224SOL    HW222570   4.560  13.181   3.229
40225SOL     OW22571  11.809   5.717  12.637
40225SOL    HW122572  11.815   5.664  12.557
40225SOL    HW222573  11.855   5.798  12.616
40226SOL     OW22574   3.964  12.796   5.613
40226SOL    HW122575   3.904  12.849   5.666
40226SOL    HW222576   3.919  12.785   5.530
40227SOL     OW22577   2.740   4.029   2.979
40227SOL    HW122578   2.652   3.992   2.986
40227SOL    HW222579   2.784   3.974   2.914
40228SOL     OW22580   8.923   6.163   8.522
40228SOL    HW122581   8.908   6.088   8.580
40228SOL    HW222582   8.854   6.156   8.456
40229SOL     OW22583   3.336   5.725  11.855
40229SOL    HW122584   3.251   5.764  11.835
40229SOL    HW222585   3.383   5.726  11.771
40230SOL     OW22586  10.989   9.781   0.109
40230SOL    HW122587  11.005   9.813   0.198
40230SOL    HW222588  10.918   9.718   0.118
40231SOL     OW22589   8.074   1.467  13.089
40231SOL    HW122590   8.141   1.456  13.156
40231SOL    HW222591   8.048   1.560  13.095
40232SOL     OW22592   2.837  13.096   4.084
40232SOL    HW122593   2.904  13.164   4.084
40232SOL    HW222594   2.756  13.142   4.064
40233SOL     OW22595  13.692   1.703  13.454
40233SOL    HW122596  13.601   1.682  13.475
40233SOL    HW222597  13.691   1.723  13.360
40234SOL     OW22598  13.332   2.298   5.982
40234SOL    HW122599  13.377   2.273   6.063
40234SOL    HW222600  13.373   2.381   5.957
40235SOL     OW22601   8.951   2.532  10.898
40235SOL    HW122602   9.026   2.589  10.914
40235SOL    HW222603   8.883   2.565  10.956
40236SOL     OW22604  14.583   6.029   2.043
40236SOL    HW122605  14.581   5.960   2.110
40236SOL    HW222606  14.676   6.045   2.027
40237SOL     OW22607   0.453   6.768   0.397
40237SOL    HW122608   0.491   6.760   0.309
40237SOL    HW222609   0.453   6.862   0.414
40238SOL     OW22610   9.707   1.443  10.094
40238SOL    HW122611   9.776   1.432  10.159
40238SOL    HW222612   9.639   1.494  10.140
40239SOL     OW22613  14.325   6.119   3.508
40239SOL    HW122614  14.304   6.061   3.434
40239SOL    HW222615  14.347   6.203   3.466
40240SOL     OW22616   4.526   7.802  14.420
40240SOL    HW122617   4.549   7.860  14.493
40240SOL    HW222618   4.603   7.804  14.363
40241SOL     OW22619   6.673   6.935   5.888
40241SOL    HW122620   6.736   6.918   5.958
40241SOL    HW222621   6.603   6.986   5.930
40242SOL     OW22622   2.575   6.421   3.782
40242SOL    HW122623   2.539   6.494   3.731
40242SOL    HW222624   2.652   6.393   3.733
40243SOL     OW22625   5.460   7.827  13.216
40243SOL    HW122626   5.514   7.834  13.294
40243SOL    HW222627   5.463   7.914  13.177
40244SOL     OW22628  13.734  14.839   2.591
40244SOL    HW122629  13.662  14.775   2.594
40244SOL    HW222630  13.733   0.003   2.502
40245SOL     OW22631   9.174   8.032  14.176
40245SOL    HW122632   9.172   8.084  14.096
40245SOL    HW222633   9.259   8.051  14.215
40246SOL     OW22634   6.119   5.502   7.718
40246SOL    HW122635   6.138   5.426   7.663
40246SOL    HW222636   6.204   5.545   7.730
40247SOL     OW22637   1.232  12.033   3.268
40247SOL    HW122638   1.185  11.971   3.211
40247SOL    HW222639   1.251  11.982   3.347
40248SOL     OW22640   0.901   5.130  11.035
40248SOL    HW122641   0.869   5.083  11.113
40248SOL    HW222642   0.824   5.177  11.003
40249SOL     OW22643   5.484   3.009   7.932
40249SOL    HW122644   5.524   3.021   8.018
40249SOL    HW222645   5.459   2.917   7.930
40250SOL     OW22646   5.761   0.510   7.888
40250SOL    HW122647   5.676   0.482   7.924
40250SOL    HW222648   5.799   0.429   7.852
40251SOL     OW22649   3.180  10.004   4.636
40251SOL    HW122650   3.141  10.089   4.618
40251SOL    HW222651   3.170   9.955   4.554
40252SOL     OW22652  10.766  12.844   8.829
40252SOL    HW122653  10.850  12.829   8.872
40252SOL    HW222654  10.751  12.938   8.837
40253SOL     OW22655   4.925  11.083  10.022
40253SOL    HW122656   4.962  10.995  10.016
40253SOL    HW222657   4.976  11.126  10.091
40254SOL     OW22658   2.769   5.476   0.096
40254SOL    HW122659   2.759   5.394   0.048
40254SOL    HW222660   2.860   5.502   0.080
40255SOL     OW22661   7.357   7.035   5.847
40255SOL    HW122662   7.407   6.966   5.890
40255SOL    HW222663   7.377   7.026   5.754
40256SOL     OW22664  13.809   7.251   7.531
40256SOL    HW122665  13.783   7.162   7.506
40256SOL    HW222666  13.800   7.302   7.451
40257SOL     OW22667   3.866   6.910   3.534
40257SOL    HW122668   3.900   6.822   3.514
40257SOL    HW222669   3.771   6.903   3.518
40258SOL     OW22670   2.674   7.777  10.734
40258SOL    HW122671   2.615   7.705  10.758
40258SOL    HW222672   2.756   7.756  10.778
40259SOL     OW22673  12.008   8.175   9.975
40259SOL    HW122674  12.051   8.118  10.038
40259SOL    HW222675  11.989   8.118   9.900
40260SOL     OW22676  10.411   5.259  11.734
40260SOL    HW122677  10.474   5.189  11.715
40260SOL    HW222678  10.395   5.252  11.828
40261SOL     OW22679   0.870  14.653   2.256
40261SOL    HW122680   0.876  14.735   2.206
40261SOL    HW222681   0.787  14.661   2.304
40262SOL     OW22682   9.256   6.869   7.632
40262SOL    HW122683   9.257   6.797   7.695
40262SOL    HW222684   9.339   6.861   7.585
40263SOL     OW22685   2.209  10.532  10.298
40263SOL    HW122686   2.193  10.442  10.327
40263SOL    HW222687   2.136  10.550  10.238
40264SOL     OW22688   4.450  11.824   2.084
40264SOL    HW122689   4.371  11.871   2.112
40264SOL    HW222690   4.457  11.750   2.145
40265SOL     OW22691   0.531   6.109   7.682
40265SOL    HW122692   0.482   6.162   7.620
40265SOL    HW222693   0.564   6.035   7.630
40266SOL     OW22694  11.785   8.709   7.761
40266SOL    HW122695  11.818   8.741   7.678
40266SOL    HW222696  11.695   8.681   7.742
40267SOL     OW22697  12.281   5.641   9.086
40267SOL    HW122698  12.364   5.690   9.091
40267SOL    HW222699  12.287   5.575   9.155
40268SOL     OW22700   6.539  10.179   9.569
40268SOL    HW122701   6.492  10.187   9.652
40268SOL    HW222702   6.515  10.257   9.520
40269SOL     OW22703  14.693   0.152   8.468
40269SOL    HW122704  14.696   0.057   8.477
40269SOL    HW222705  14.754   0.171   8.396
40270SOL     OW22706  12.194   5.611  12.820
40270SOL    HW122707  12.252   5.575  12.887
40270SOL    HW222708  12.106   5.598  12.856
40271SOL     OW22709   8.517  10.309   2.199
40271SOL    HW122710   8.548  10.226   2.234
40271SOL    HW222711   8.553  10.312   2.110
40272SOL     OW22712  14.776  11.073   7.885
40272SOL    HW122713  14.772  10.992   7.935
40272SOL    HW222714  14.709  11.129   7.924
40273SOL     OW22715   9.684  14.536   1.747
40273SOL    HW122716   9.749  14.580   1.693
40273SOL    HW222717   9.651  14.604   1.805
40274SOL     OW22718   7.704   6.222   9.628
40274SOL    HW122719   7.648   6.245   9.554
40274SOL    HW222720   7.687   6.128   9.642
40275SOL     OW22721   2.855   1.208   0.259
40275SOL    HW122722   2.799   1.167   0.194
40275SOL    HW222723   2.942   1.211   0.218
40276SOL     OW22724  11.508  12.085   5.666
40276SOL    HW122725  11.525  12.087   5.572
40276SOL    HW222726  11.512  11.993   5.690
40277SOL     OW22727   1.833   4.716   2.147
40277SOL    HW122728   1.782   4.664   2.085
40277SOL    HW222729   1.775   4.788   2.171
40278SOL     OW22730  12.761   6.833   2.344
40278SOL    HW122731  12.846   6.795   2.364
40278SOL    HW222732  12.698   6.778   2.392
40279SOL     OW22733  12.782   5.463   4.537
40279SOL    HW122734  12.865   5.510   4.532
40279SOL    HW222735  12.787   5.400   4.465
40280SOL     OW22736   5.758  11.156  10.277
40280SOL    HW122737   5.667  11.166  10.305
40280SOL    HW222738   5.809  11.174  10.356
40281SOL     OW22739   4.964   8.639  12.355
40281SOL    HW122740   4.989   8.681  12.437
40281SOL    HW222741   4.872   8.660  12.343
40282SOL     OW22742  11.820   5.058   7.078
40282SOL    HW122743  11.726   5.067   7.094
40282SOL    HW222744  11.843   4.972   7.113
40283SOL     OW22745  13.732   1.264   6.129
40283SOL    HW122746  13.794   1.302   6.192
40283SOL    HW222747  13.666   1.332   6.117
40284SOL     OW22748   8.849   2.781  13.487
40284SOL    HW122749   8.902   2.724  13.543
40284SOL    HW222750   8.776   2.727  13.459
40285SOL     OW22751   5.993   7.077   0.583
40285SOL    HW122752   5.933   7.151   0.595
40285SOL    HW222753   6.080   7.115   0.588
40286SOL     OW22754   9.668   7.120   6.799
40286SOL    HW122755   9.603   7.085   6.860
40286SOL    HW222756   9.637   7.092   6.713
40287SOL     OW22757   9.055  11.178   8.076
40287SOL    HW122758   8.987  11.149   8.015
40287SOL    HW222759   9.042  11.272   8.085
40288SOL     OW22760  10.870  12.606  10.160
40288SOL    HW122761  10.792  12.554  10.139
40288SOL    HW222762  10.837  12.695  10.171
40289SOL     OW22763   7.300   4.500  11.154
40289SOL    HW122764   7.284   4.415  11.113
40289SOL    HW222765   7.394   4.515  11.142
40290SOL     OW22766  12.079   2.545  12.119
40290SOL    HW122767  12.150   2.529  12.182
40290SOL    HW222768  12.111   2.506  12.038
40291SOL     OW22769  13.544   7.939   6.297
40291SOL    HW122770  13.574   7.948   6.207
40291SOL    HW222771  13.585   7.858   6.328
40292SOL     OW22772   3.876  14.140   2.573
40292SOL    HW122773   3.854  14.200   2.502
40292SOL    HW222774   3.961  14.171   2.605
40293SOL     OW22775   7.100  11.597   6.751
40293SOL    HW122776   7.172  11.546   6.789
40293SOL    HW222777   7.025  11.578   6.807
40294SOL     OW22778  13.727   9.834  11.845
40294SOL    HW122779  13.740   9.914  11.795
40294SOL    HW222780  13.633   9.831  11.862
40295SOL     OW22781   2.098   6.169   8.516
40295SOL    HW122782   2.096   6.260   8.545
40295SOL    HW222783   2.179   6.161   8.466
40296SOL     OW22784   2.251   3.922   8.488
40296SOL    HW122785   2.301   4.004   8.494
40296SOL    HW222786   2.159   3.950   8.487
40297SOL     OW22787  13.008   5.029   3.775
40297SOL    HW122788  12.929   5.023   3.721
40297SOL    HW222789  13.077   5.057   3.715
40298SOL     OW22790   5.529  11.605   8.797
40298SOL    HW122791   5.517  11.681   8.854
40298SOL    HW222792   5.623  11.594   8.792
40299SOL     OW22793  10.098   9.335   4.303
40299SOL    HW122794  10.003   9.342   4.297
40299SOL    HW222795  10.128   9.426   4.308
40300SOL     OW22796   4.348   8.386  14.170
40300SOL    HW122797   4.442   8.390  14.190
40300SOL    HW222798   4.305   8.422  14.248
40301SOL     OW22799   1.138   6.649   0.906
40301SOL    HW122800   1.088   6.680   0.830
40301SOL    HW222801   1.137   6.554   0.898
40302SOL     OW22802  11.615   7.004   6.903
40302SOL    HW122803  11.560   7.009   6.982
40302SOL    HW222804  11.696   7.047   6.929
40303SOL     OW22805   5.417   6.632   3.930
40303SOL    HW122806   5.443   6.561   3.871
40303SOL    HW222807   5.425   6.594   4.017
40304SOL     OW22808  10.233   9.377  12.255
40304SOL    HW122809  10.141   9.397  12.237
40304SOL    HW222810  10.280   9.404  12.177
40305SOL     OW22811   7.369   6.407   1.914
40305SOL    HW122812   7.359   6.479   1.851
40305SOL    HW222813   7.408   6.336   1.862
40306SOL     OW22814   0.784  14.623   5.644
40306SOL    HW122815   0.781  14.627   5.549
40306SOL    HW222816   0.731  14.697   5.673
40307SOL     OW22817   0.201  14.539  11.472
40307SOL    HW122818   0.138  14.550  11.543
40307SOL    HW222819   0.153  14.563  11.393
40308SOL     OW22820  14.722  14.520   2.324
40308SOL    HW122821  14.668  14.542   2.400
40308SOL    HW222822  14.660  14.503   2.254
40309SOL     OW22823   2.011   1.449   7.282
40309SOL    HW122824   2.045   1.409   7.202
40309SOL    HW222825   2.065   1.412   7.352
40310SOL     OW22826   2.121   0.509   4.996
40310SOL    HW122827   2.076   0.520   4.913
40310SOL    HW222828   2.212   0.489   4.971
40311SOL     OW22829   2.019  13.220  13.359
40311SOL    HW122830   2.095  13.198  13.305
40311SOL    HW222831   1.947  13.228  13.297
40312SOL     OW22832   7.701   3.092   2.183
40312SOL    HW122833   7.667   3.002   2.180
40312SOL    HW222834   7.667   3.127   2.266
40313SOL     OW22835   4.872  13.401   6.053
40313SOL    HW122836   4.788  13.355   6.056
40313SOL    HW222837   4.887  13.432   6.142
40314SOL     OW22838   8.748   7.806   2.231
40314SOL    HW122839   8.692   7.792   2.308
40314SOL    HW222840   8.831   7.764   2.253
40315SOL     OW22841  14.360  13.977  14.270
40315SOL    HW122842  14.438  13.923  14.281
40315SOL    HW222843  14.387  14.046  14.209
40316SOL     OW22844  11.698   0.507  12.872
40316SOL    HW122845  11.613   0.529  12.833
40316SOL    HW222846  11.761   0.558  12.821
40317SOL     OW22847   5.577   4.744   6.100
40317SOL    HW122848   5.664   4.721   6.068
40317SOL    HW222849   5.589   4.760   6.193
40318SOL     OW22850  14.108  11.128   5.709
40318SOL    HW122851  14.158  11.083   5.777
40318SOL    HW222852  14.026  11.079   5.702
40319SOL     OW22853   3.853   2.621  10.668
40319SOL    HW122854   3.881   2.705  10.703
40319SOL    HW222855   3.920   2.598  10.603
40320SOL     OW22856   8.013   3.238   9.628
40320SOL    HW122857   8.097   3.209   9.663
40320SOL    HW222858   8.012   3.333   9.640
40321SOL     OW22859  11.159   0.527  13.638
40321SOL    HW122860  11.187   0.616  13.617
40321SOL    HW222861  11.215   0.500  13.711
40322SOL     OW22862   5.650  12.099   8.444
40322SOL    HW122863   5.578  12.057   8.491
40322SOL    HW222864   5.615  12.116   8.356
40323SOL     OW22865   6.318   0.572   5.657
40323SOL    HW122866   6.272   0.494   5.626
40323SOL    HW222867   6.317   0.564   5.752
40324SOL     OW22868   5.436   9.308   4.141
40324SOL    HW122869   5.428   9.401   4.118
40324SOL    HW222870   5.367   9.293   4.205
40325SOL     OW22871   5.248   2.874  10.880
40325SOL    HW122872   5.245   2.838  10.791
40325SOL    HW222873   5.287   2.961  10.869
40326SOL     OW22874   8.965   5.726  14.133
40326SOL    HW122875   8.982   5.657  14.069
40326SOL    HW222876   8.871   5.719  14.152
40327SOL     OW22877   6.479   7.054   9.802
40327SOL    HW122878   6.529   7.016   9.875
40327SOL    HW222879   6.544   7.102   9.751
40328SOL     OW22880   6.115  10.911   9.431
40328SOL    HW122881   6.031  10.866   9.437
40328SOL    HW222882   6.115  10.971   9.505
40329SOL     OW22883  13.833  13.650  12.368
40329SOL    HW122884  13.810  13.723  12.311
40329SOL    HW222885  13.884  13.690  12.438
40330SOL     OW22886  10.309  12.155   8.883
40330SOL    HW122887  10.376  12.117   8.827
40330SOL    HW222888  10.262  12.216   8.827
40331SOL     OW22889   4.379   7.332   0.182
40331SOL    HW122890   4.443   7.402   0.165
40331SOL    HW222891   4.312   7.374   0.236
40332SOL     OW22892   8.425   9.334  11.174
40332SOL    HW122893   8.440   9.320  11.267
40332SOL    HW222894   8.508   9.365  11.140
40333SOL     OW22895  12.250  13.378   6.997
40333SOL    HW122896  12.211  13.369   6.910
40333SOL    HW222897  12.241  13.292   7.036
40334SOL     OW22898   6.173  11.351  12.598
40334SOL    HW122899   6.135  11.433  12.567
40334SOL    HW222900   6.140  11.284  12.539
40335SOL     OW22901   1.729   2.394   9.006
40335SOL    HW122902   1.751   2.318   8.952
40335SOL    HW222903   1.712   2.464   8.944
40336SOL     OW22904   0.687   5.402   3.682
40336SOL    HW122905   0.720   5.454   3.609
40336SOL    HW222906   0.688   5.312   3.650
40337SOL     OW22907   3.800   2.593  12.029
40337SOL    HW122908   3.861   2.658  12.065
40337SOL    HW222909   3.803   2.608  11.935
40338SOL     OW22910   8.794   3.310  13.365
40338SOL    HW122911   8.771   3.340  13.452
40338SOL    HW222912   8.839   3.227  13.379
40339SOL     OW22913  12.879  12.017   2.284
40339SOL    HW122914  12.891  12.107   2.314
40339SOL    HW222915  12.804  11.984   2.334
40340SOL     OW22916   5.660   5.511  11.281
40340SOL    HW122917   5.621   5.451  11.218
40340SOL    HW222918   5.716   5.568  11.229
40341SOL     OW22919   5.509   7.219   7.077
40341SOL    HW122920   5.535   7.169   7.155
40341SOL    HW222921   5.478   7.302   7.111
40342SOL     OW22922   6.971  12.707   2.677
40342SOL    HW122923   7.052  12.728   2.631
40342SOL    HW222924   6.999  12.684   2.765
40343SOL     OW22925   6.752  11.779   9.767
40343SOL    HW122926   6.788  11.698   9.804
40343SOL    HW222927   6.688  11.808   9.833
40344SOL     OW22928  13.856  10.044  10.372
40344SOL    HW122929  13.800  10.043  10.450
40344SOL    HW222930  13.913   9.968  10.383
40345SOL     OW22931   8.158  13.788   4.087
40345SOL    HW122932   8.183  13.754   4.001
40345SOL    HW222933   8.105  13.866   4.067
40346SOL     OW22934  11.242   7.434   1.436
40346SOL    HW122935  11.309   7.368   1.450
40346SOL    HW222936  11.253   7.496   1.509
40347SOL     OW22937  14.526  14.677   4.257
40347SOL    HW122938  14.436  14.702   4.239
40347SOL    HW222939  14.546  14.719   4.341
40348SOL     OW22940  12.547   0.522   6.186
40348SOL    HW122941  12.567   0.474   6.267
40348SOL    HW222942  12.458   0.495   6.164
40349SOL     OW22943   0.228  14.731   1.470
40349SOL    HW122944   0.152  14.714   1.525
40349SOL    HW222945   0.222  14.825   1.450
40350SOL     OW22946   6.894   0.592   1.089
40350SOL    HW122947   6.893   0.683   1.119
40350SOL    HW222948   6.944   0.545   1.157
40351SOL     OW22949   2.174   8.075  12.923
40351SOL    HW122950   2.248   8.032  12.967
40351SOL    HW222951   2.213   8.151  12.881
40352SOL     OW22952   3.654   9.557   2.413
40352SOL    HW122953   3.642   9.629   2.475
40352SOL    HW222954   3.708   9.594   2.343
40353SOL     OW22955   5.059  14.864   7.403
40353SOL    HW122956   4.968  14.834   7.403
40353SOL    HW222957   5.053   0.090   7.410
40354SOL     OW22958   7.387   4.618   3.166
40354SOL    HW122959   7.480   4.600   3.178
40354SOL    HW222960   7.344   4.567   3.234
40355SOL     OW22961   1.353   5.927   8.666
40355SOL    HW122962   1.424   5.981   8.700
40355SOL    HW222963   1.274   5.981   8.677
40356SOL     OW22964  10.496   4.776   1.997
40356SOL    HW122965  10.461   4.722   1.927
40356SOL    HW222966  10.473   4.866   1.973
40357SOL     OW22967  12.771   5.029   9.717
40357SOL    HW122968  12.792   5.021   9.810
40357SOL    HW222969  12.734   5.117   9.708
40358SOL     OW22970   5.220   1.772  12.445
40358SOL    HW122971   5.285   1.723  12.496
40358SOL    HW222972   5.225   1.735  12.357
40359SOL     OW22973   5.344   0.636  10.881
40359SOL    HW122974   5.343   0.543  10.902
40359SOL    HW222975   5.264   0.671  10.922
40360SOL     OW22976   8.356   3.183   1.559
40360SOL    HW122977   8.344   3.278   1.569
40360SOL    HW222978   8.323   3.165   1.471
40361SOL     OW22979   1.601  11.221   5.420
40361SOL    HW122980   1.675  11.267   5.380
40361SOL    HW222981   1.566  11.166   5.350
40362SOL     OW22982   7.323   5.955  13.819
40362SOL    HW122983   7.262   6.021  13.852
40362SOL    HW222984   7.299   5.875  13.866
40363SOL     OW22985  13.120   8.998  11.453
40363SOL    HW122986  13.215   8.992  11.467
40363SOL    HW222987  13.093   9.076  11.500
40364SOL     OW22988   8.148   0.950   0.718
40364SOL    HW122989   8.107   1.026   0.759
40364SOL    HW222990   8.207   0.986   0.652
40365SOL     OW22991   7.780   9.249   7.039
40365SOL    HW122992   7.789   9.339   7.007
40365SOL    HW222993   7.701   9.217   6.996
40366SOL     OW22994   5.124   4.045   0.590
40366SOL    HW122995   5.055   4.111   0.597
40366SOL    HW222996   5.193   4.088   0.540
40367SOL     OW22997   5.260   0.467   8.436
40367SOL    HW122998   5.336   0.525   8.430
40367SOL    HW222999   5.206   0.489   8.360
40368SOL     OW23000   1.227   3.477   7.052
40368SOL    HW123001   1.285   3.460   7.127
40368SOL    HW223002   1.140   3.453   7.084
40369SOL     OW23003  14.101  13.790   3.208
40369SOL    HW123004  14.008  13.774   3.222
40369SOL    HW223005  14.104  13.850   3.133
40370SOL     OW23006   6.432  11.014   9.643
40370SOL    HW123007   6.430  10.923   9.673
40370SOL    HW223008   6.341  11.043   9.649
40371SOL     OW23009   2.471   0.002   8.291
40371SOL    HW123010   2.388   0.037   8.324
40371SOL    HW223011   2.476   0.035   8.201
40372SOL     OW23012   7.571  13.120   9.846
40372SOL    HW123013   7.526  13.082   9.771
40372SOL    HW223014   7.632  13.183   9.808
40373SOL     OW23015   2.154   6.296   6.899
40373SOL    HW123016   2.068   6.287   6.859
40373SOL    HW223017   2.157   6.386   6.932
40374SOL     OW23018   5.904   9.024  12.633
40374SOL    HW123019   5.916   8.999  12.541
40374SOL    HW223020   5.990   9.056  12.661
40375SOL     OW23021  13.585  11.942   8.960
40375SOL    HW123022  13.622  11.989   8.885
40375SOL    HW223023  13.641  11.966   9.034
40376SOL     OW23024  11.777  12.446   5.407
40376SOL    HW123025  11.689  12.477   5.386
40376SOL    HW223026  11.797  12.383   5.338
40377SOL     OW23027   5.254  14.529  14.633
40377SOL    HW123028   5.160  14.544  14.625
40377SOL    HW223029   5.270  14.445  14.591
40378SOL     OW23030  11.742  13.453  11.883
40378SOL    HW123031  11.667  13.495  11.926
40378SOL    HW223032  11.722  13.458  11.790
40379SOL     OW23033   4.389   8.682  14.666
40379SOL    HW123034   4.357   8.596  14.642
40379SOL    HW223035   4.448   8.707  14.595
40380SOL     OW23036   0.822   1.917   1.433
40380SOL    HW123037   0.728   1.898   1.430
40380SOL    HW223038   0.836   1.957   1.519
40381SOL     OW23039   8.170   8.068   6.369
40381SOL    HW123040   8.223   7.989   6.382
40381SOL    HW223041   8.178   8.087   6.276
40382SOL     OW23042  12.758  12.786  11.742
40382SOL    HW123043  12.704  12.855  11.782
40382SOL    HW223044  12.696  12.731  11.694
40383SOL     OW23045   8.255  13.369   4.925
40383SOL    HW123046   8.288  13.459   4.926
40383SOL    HW223047   8.186  13.369   4.859
40384SOL     OW23048   4.966  10.516  13.025
40384SOL    HW123049   5.045  10.464  13.006
40384SOL    HW223050   4.903  10.452  13.058
40385SOL     OW23051   7.487  13.108   3.516
40385SOL    HW123052   7.581  13.124   3.526
40385SOL    HW223053   7.481  13.049   3.441
40386SOL     OW23054   8.189  11.275  10.455
40386SOL    HW123055   8.248  11.340  10.494
40386SOL    HW223056   8.243  11.199  10.439
40387SOL     OW23057   4.602   2.008  12.810
40387SOL    HW123058   4.679   1.955  12.790
40387SOL    HW223059   4.566   1.969  12.889
40388SOL     OW23060   5.304   5.512   6.630
40388SOL    HW123061   5.393   5.479   6.617
40388SOL    HW223062   5.310   5.606   6.617
40389SOL     OW23063  11.218   5.462  10.803
40389SOL    HW123064  11.253   5.548  10.782
40389SOL    HW223065  11.204   5.464  10.897
40390SOL     OW23066   0.853   5.319   5.069
40390SOL    HW123067   0.888   5.242   5.025
40390SOL    HW223068   0.767   5.291   5.102
40391SOL     OW23069  14.026  11.875   6.145
40391SOL    HW123070  13.995  11.936   6.078
40391SOL    HW223071  14.058  11.931   6.216
40392SOL     OW23072   9.642   3.644   9.928
40392SOL    HW123073   9.571   3.614   9.871
40392SOL    HW223074   9.692   3.705   9.874
40393SOL     OW23075  13.726   9.977   7.953
40393SOL    HW123076  13.818   9.989   7.930
40393SOL    HW223077  13.679  10.005   7.874
40394SOL     OW23078  11.578   0.586   7.222
40394SOL    HW123079  11.575   0.653   7.290
40394SOL    HW223080  11.601   0.506   7.268
40395SOL     OW23081   8.389   1.907   5.056
40395SOL    HW123082   8.329   1.899   4.982
40395SOL    HW223083   8.473   1.931   5.017
40396SOL     OW23084   2.104   9.985   0.140
40396SOL    HW123085   2.128   9.952   0.227
40396SOL    HW223086   2.076   9.908   0.092
40397SOL     OW23087   2.955   3.475   0.203
40397SOL    HW123088   2.925   3.397   0.157
40397SOL    HW223089   2.880   3.535   0.201
40398SOL     OW23090   6.470  12.304   9.362
40398SOL    HW123091   6.439  12.227   9.409
40398SOL    HW223092   6.562  12.285   9.343
40399SOL     OW23093   6.228   7.193   6.866
40399SOL    HW123094   6.318   7.210   6.838
40399SOL    HW223095   6.219   7.241   6.948
40400SOL     OW23096  12.981   1.566  11.686
40400SOL    HW123097  12.906   1.508  11.670
40400SOL    HW223098  13.018   1.581  11.600
40401SOL     OW23099   9.661   5.933  13.160
40401SOL    HW123100   9.697   5.955  13.074
40401SOL    HW223101   9.567   5.925  13.145
40402SOL     OW23102   2.240   4.077   6.655
40402SOL    HW123103   2.217   4.018   6.726
40402SOL    HW223104   2.336   4.078   6.655
40403SOL     OW23105   8.427   4.968  11.135
40403SOL    HW123106   8.360   5.021  11.177
40403SOL    HW223107   8.390   4.879  11.134
40404SOL     OW23108   0.054   4.218   1.606
40404SOL    HW123109  14.868   4.258   1.539
40404SOL    HW223110   0.008   4.232   1.688
40405SOL     OW23111  10.959   3.055   0.451
40405SOL    HW123112  10.983   2.980   0.505
40405SOL    HW223113  10.892   3.101   0.503
40406SOL     OW23114   2.562   2.450   4.504
40406SOL    HW123115   2.495   2.433   4.571
40406SOL    HW223116   2.513   2.478   4.427
40407SOL     OW23117  12.794  10.611   1.957
40407SOL    HW123118  12.848  10.558   2.015
40407SOL    HW223119  12.807  10.572   1.870
40408SOL     OW23120   8.560   9.774   0.463
40408SOL    HW123121   8.491   9.834   0.437
40408SOL    HW223122   8.634   9.830   0.485
40409SOL     OW23123   0.039   8.224   4.430
40409SOL    HW123124  14.824   8.234   4.386
40409SOL    HW223125   0.033   8.138   4.473
40410SOL     OW23126   4.893   0.975   7.264
40410SOL    HW123127   4.923   1.000   7.177
40410SOL    HW223128   4.798   0.983   7.260
40411SOL     OW23129   1.288   0.223   1.086
40411SOL    HW123130   1.378   0.244   1.111
40411SOL    HW223131   1.234   0.284   1.137
40412SOL     OW23132   6.745  12.853   9.417
40412SOL    HW123133   6.698  12.771   9.404
40412SOL    HW223134   6.676  12.918   9.433
40413SOL     OW23135  14.200   0.045  11.903
40413SOL    HW123136  14.290   0.046  11.869
40413SOL    HW223137  14.210   0.015  11.993
40414SOL     OW23138  13.676  10.829   1.807
40414SOL    HW123139  13.676  10.790   1.895
40414SOL    HW223140  13.633  10.765   1.752
40415SOL     OW23141   0.674   1.409   3.899
40415SOL    HW123142   0.676   1.436   3.807
40415SOL    HW223143   0.728   1.473   3.944
40416SOL     OW23144   1.363  11.345   2.579
40416SOL    HW123145   1.449  11.319   2.613
40416SOL    HW223146   1.342  11.277   2.515
40417SOL     OW23147  12.232   7.476   3.051
40417SOL    HW123148  12.306   7.508   3.000
40417SOL    HW223149  12.193   7.554   3.090
40418SOL     OW23150   8.408  11.053  11.103
40418SOL    HW123151   8.375  11.139  11.131
40418SOL    HW223152   8.384  11.047  11.011
40419SOL     OW23153   1.041   4.850  14.045
40419SOL    HW123154   1.014   4.854  14.137
40419SOL    HW223155   1.119   4.906  14.041
40420SOL     OW23156  11.859  10.223   4.262
40420SOL    HW123157  11.939  10.176   4.240
40420SOL    HW223158  11.834  10.267   4.181
40421SOL     OW23159   4.344   4.878   4.615
40421SOL    HW123160   4.296   4.810   4.567
40421SOL    HW223161   4.343   4.954   4.557
40422SOL     OW23162   3.283   4.551   6.368
40422SOL    HW123163   3.297   4.640   6.334
40422SOL    HW223164   3.193   4.529   6.344
40423SOL     OW23165   2.865   7.323  14.090
40423SOL    HW123166   2.908   7.398  14.049
40423SOL    HW223167   2.774   7.350  14.099
40424SOL     OW23168  10.835  13.300   2.653
40424SOL    HW123169  10.782  13.339   2.723
40424SOL    HW223170  10.777  13.300   2.577
40425SOL     OW23171   4.814   7.907   8.036
40425SOL    HW123172   4.848   7.996   8.046
40425SOL    HW223173   4.889   7.857   8.003
40426SOL     OW23174   6.936   7.839   2.933
40426SOL    HW123175   6.995   7.911   2.911
40426SOL    HW223176   6.870   7.877   2.991
40427SOL     OW23177   7.423   8.419   6.023
40427SOL    HW123178   7.438   8.345   5.964
40427SOL    HW223179   7.328   8.420   6.037
40428SOL     OW23180  10.352   7.527   7.136
40428SOL    HW123181  10.366   7.548   7.228
40428SOL    HW223182  10.342   7.431   7.135
40429SOL     OW23183   8.278   2.882  10.816
40429SOL    HW123184   8.255   2.974  10.831
40429SOL    HW223185   8.373   2.879  10.828
40430SOL     OW23186   7.419  12.213   5.296
40430SOL    HW123187   7.413  12.243   5.387
40430SOL    HW223188   7.511  12.220   5.275
40431SOL     OW23189   0.504   2.973   1.279
40431SOL    HW123190   0.451   3.028   1.220
40431SOL    HW223191   0.509   3.023   1.360
40432SOL     OW23192   2.769   6.642   8.568
40432SOL    HW123193   2.693   6.598   8.607
40432SOL    HW223194   2.749   6.735   8.575
40433SOL     OW23195  13.469   9.216   8.449
40433SOL    HW123196  13.374   9.206   8.458
40433SOL    HW223197  13.502   9.217   8.539
40434SOL     OW23198   3.654   2.377   4.329
40434SOL    HW123199   3.743   2.354   4.304
40434SOL    HW223200   3.613   2.405   4.247
40435SOL     OW23201  12.897  10.506  12.242
40435SOL    HW123202  12.989  10.532  12.255
40435SOL    HW223203  12.851  10.588  12.227
40436SOL     OW23204   5.296   3.509   3.728
40436SOL    HW123205   5.384   3.547   3.724
40436SOL    HW223206   5.237   3.583   3.713
40437SOL     OW23207   3.082   8.529   7.187
40437SOL    HW123208   3.066   8.446   7.141
40437SOL    HW223209   3.008   8.584   7.163
40438SOL     OW23210  13.991  10.054   3.021
40438SOL    HW123211  13.969  10.139   3.060
40438SOL    HW223212  14.082  10.065   2.992
40439SOL     OW23213   8.535   1.370   7.302
40439SOL    HW123214   8.604   1.363   7.368
40439SOL    HW223215   8.503   1.460   7.309
40440SOL     OW23216   1.799  13.994   5.903
40440SOL    HW123217   1.723  14.051   5.887
40440SOL    HW223218   1.845  13.991   5.819
40441SOL     OW23219   8.480  14.319   4.798
40441SOL    HW123220   8.560  14.281   4.761
40441SOL    HW223221   8.466  14.271   4.879
40442SOL     OW23222   1.195   6.048   3.488
40442SOL    HW123223   1.157   5.961   3.473
40442SOL    HW223224   1.177   6.096   3.407
40443SOL     OW23225   7.760   6.830  12.426
40443SOL    HW123226   7.825   6.775  12.471
40443SOL    HW223227   7.698   6.854  12.494
40444SOL     OW23228   8.390   5.905  10.754
40444SOL    HW123229   8.388   5.968  10.681
40444SOL    HW223230   8.379   5.820  10.712
40445SOL     OW23231   1.137  11.070   2.538
40445SOL    HW123232   1.132  11.164   2.556
40445SOL    HW223233   1.230  11.052   2.529
40446SOL     OW23234   4.796  13.287   7.275
40446SOL    HW123235   4.737  13.285   7.351
40446SOL    HW223236   4.842  13.203   7.278
40447SOL     OW23237   1.706   5.800  13.441
40447SOL    HW123238   1.681   5.779  13.530
40447SOL    HW223239   1.719   5.895  13.441
40448SOL     OW23240  13.174  11.845   2.068
40448SOL    HW123241  13.234  11.850   1.994
40448SOL    HW223242  13.087  11.862   2.030
40449SOL     OW23243   5.933   6.445   7.619
40449SOL    HW123244   5.880   6.500   7.561
40449SOL    HW223245   5.951   6.500   7.695
40450SOL     OW23246  14.737  13.299   1.847
40450SOL    HW123247  14.831  13.311   1.854
40450SOL    HW223248  14.727  13.218   1.797
40451SOL     OW23249   7.110   8.378  10.511
40451SOL    HW123250   7.184   8.322  10.532
40451SOL    HW223251   7.133   8.420  10.428
40452SOL     OW23252  12.322   0.357  10.701
40452SOL    HW123253  12.249   0.418  10.711
40452SOL    HW223254  12.335   0.351  10.606
40453SOL     OW23255   5.421   9.844   9.880
40453SOL    HW123256   5.478   9.905   9.834
40453SOL    HW223257   5.476   9.808   9.950
40454SOL     OW23258   6.458   5.001   2.512
40454SOL    HW123259   6.475   4.965   2.599
40454SOL    HW223260   6.540   5.043   2.487
40455SOL     OW23261   3.026  14.394   3.882
40455SOL    HW123262   3.063  14.309   3.859
40455SOL    HW223263   3.080  14.424   3.955
40456SOL     OW23264   8.944   9.938   3.904
40456SOL    HW123265   9.002   9.905   3.973
40456SOL    HW223266   8.877   9.988   3.952
40457SOL     OW23267   6.910   4.843   1.211
40457SOL    HW123268   6.847   4.794   1.264
40457SOL    HW223269   6.956   4.899   1.273
40458SOL     OW23270   7.427   1.583   0.935
40458SOL    HW123271   7.494   1.580   1.003
40458SOL    HW223272   7.369   1.654   0.961
40459SOL     OW23273   5.971   4.975  14.632
40459SOL    HW123274   5.979   5.036  14.705
40459SOL    HW223275   5.965   4.889  14.672
40460SOL     OW23276   6.516   8.549  14.432
40460SOL    HW123277   6.466   8.599  14.497
40460SOL    HW223278   6.576   8.496  14.484
40461SOL     OW23279  12.867   2.357  10.347
40461SOL    HW123280  12.936   2.397  10.401
40461SOL    HW223281  12.883   2.263  10.354
40462SOL     OW23282   7.082   8.761   2.350
40462SOL    HW123283   7.079   8.853   2.380
40462SOL    HW223284   7.001   8.723   2.385
40463SOL     OW23285  10.822   6.590   7.436
40463SOL    HW123286  10.795   6.639   7.514
40463SOL    HW223287  10.772   6.629   7.365
40464SOL     OW23288   6.167   6.112   1.537
40464SOL    HW123289   6.176   6.196   1.581
40464SOL    HW223290   6.231   6.055   1.581
40465SOL     OW23291   8.434  10.867  11.655
40465SOL    HW123292   8.349  10.827  11.637
40465SOL    HW223293   8.417  10.931  11.724
40466SOL     OW23294   5.496   2.099   0.051
40466SOL    HW123295   5.461   2.070   0.135
40466SOL    HW223296   5.589   2.117   0.068
40467SOL     OW23297   2.272   7.652  11.070
40467SOL    HW123298   2.239   7.564  11.050
40467SOL    HW223299   2.194   7.707  11.068
40468SOL     OW23300  12.497   1.229   5.152
40468SOL    HW123301  12.588   1.226   5.182
40468SOL    HW223302  12.457   1.151   5.192
40469SOL     OW23303  12.348  13.289  14.722
40469SOL    HW123304  12.347  13.379  14.754
40469SOL    HW223305  12.404  13.292  14.644
40470SOL     OW23306  12.982   0.131   0.100
40470SOL    HW123307  12.985   0.041   0.068
40470SOL    HW223308  12.926   0.177   0.037
40471SOL     OW23309   1.535  10.278   1.153
40471SOL    HW123310   1.567  10.273   1.063
40471SOL    HW223311   1.478  10.354   1.154
40472SOL     OW23312  13.592  13.192  12.230
40472SOL    HW123313  13.648  13.179  12.307
40472SOL    HW223314  13.545  13.273  12.248
40473SOL     OW23315   0.692   0.564   0.302
40473SOL    HW123316   0.703   0.516   0.385
40473SOL    HW223317   0.781   0.569   0.266
40474SOL     OW23318   2.638   6.564  12.924
40474SOL    HW123319   2.566   6.503  12.944
40474SOL    HW223320   2.669   6.593  13.010
40475SOL     OW23321   5.837  10.869   9.505
40475SOL    HW123322   5.799  10.814   9.435
40475SOL    HW223323   5.771  10.869   9.574
40476SOL     OW23324   6.894   9.289   2.295
40476SOL    HW123325   6.876   9.340   2.216
40476SOL    HW223326   6.944   9.214   2.263
40477SOL     OW23327  10.767  11.701   5.047
40477SOL    HW123328  10.733  11.711   5.136
40477SOL    HW223329  10.689  11.698   4.991
40478SOL     OW23330   2.157   5.884  14.245
40478SOL    HW123331   2.069   5.893  14.280
40478SOL    HW223332   2.153   5.924  14.158
40479SOL     OW23333  14.364  10.932   6.163
40479SOL    HW123334  14.305  10.971   6.099
40479SOL    HW223335  14.340  10.973   6.246
40480SOL     OW23336   3.844   5.717   5.727
40480SOL    HW123337   3.853   5.810   5.706
40480SOL    HW223338   3.831   5.715   5.822
40481SOL     OW23339  10.023   7.178   8.421
40481SOL    HW123340  10.100   7.120   8.418
40481SOL    HW223341  10.060   7.266   8.431
40482SOL     OW23342  11.589  10.543   5.963
40482SOL    HW123343  11.654  10.577   5.903
40482SOL    HW223344  11.563  10.459   5.925
40483SOL     OW23345   0.770   9.195  13.542
40483SOL    HW123346   0.767   9.099  13.544
40483SOL    HW223347   0.746   9.222  13.630
40484SOL     OW23348  11.069   4.214   4.045
40484SOL    HW123349  11.090   4.200   3.953
40484SOL    HW223350  11.104   4.301   4.064
40485SOL     OW23351   9.430  13.155   3.825
40485SOL    HW123352   9.376  13.183   3.751
40485SOL    HW223353   9.369  13.110   3.884
40486SOL     OW23354   5.980   0.031   3.923
40486SOL    HW123355   6.004   0.093   3.992
40486SOL    HW223356   6.036  14.825   3.938
40487SOL     OW23357   1.788   5.968   5.829
40487SOL    HW123358   1.710   5.925   5.864
40487SOL    HW223359   1.786   6.056   5.867
40488SOL     OW23360   3.576   3.152   4.501
40488SOL    HW123361   3.513   3.180   4.434
40488SOL    HW223362   3.598   3.232   4.549
40489SOL     OW23363   1.944   3.087  11.268
40489SOL    HW123364   1.901   3.100  11.184
40489SOL    HW223365   1.908   3.005  11.301
40490SOL     OW23366   2.018  13.821   9.925
40490SOL    HW123367   2.073  13.893   9.955
40490SOL    HW223368   2.077  13.766   9.872
40491SOL     OW23369  14.258   4.036   2.938
40491SOL    HW123370  14.184   4.088   2.906
40491SOL    HW223371  14.333   4.068   2.889
40492SOL     OW23372   4.330  14.405   3.705
40492SOL    HW123373   4.357  14.469   3.770
40492SOL    HW223374   4.290  14.334   3.755
40493SOL     OW23375  12.836   4.075   2.853
40493SOL    HW123376  12.854   4.012   2.783
40493SOL    HW223377  12.792   4.148   2.808
40494SOL     OW23378   7.298   3.015  11.234
40494SOL    HW123379   7.218   2.998  11.284
40494SOL    HW223380   7.363   3.038  11.301
40495SOL     OW23381   2.173   9.639   9.209
40495SOL    HW123382   2.120   9.599   9.278
40495SOL    HW223383   2.262   9.611   9.227
40496SOL     OW23384   1.160  11.650  12.495
40496SOL    HW123385   1.082  11.631  12.548
40496SOL    HW223386   1.187  11.564  12.462
40497SOL     OW23387   4.142   5.421  12.470
40497SOL    HW123388   4.167   5.513  12.478
40497SOL    HW223389   4.199   5.387  12.401
40498SOL     OW23390   6.591   2.830   0.255
40498SOL    HW123391   6.657   2.895   0.279
40498SOL    HW223392   6.516   2.851   0.310
40499SOL     OW23393   3.563   7.761   1.124
40499SOL    HW123394   3.509   7.685   1.145
40499SOL    HW223395   3.637   7.756   1.185
40500SOL     OW23396  14.343   4.497   1.093
40500SOL    HW123397  14.250   4.472   1.089
40500SOL    HW223398  14.343   4.582   1.136
40501SOL     OW23399  13.236   7.290   5.480
40501SOL    HW123400  13.182   7.302   5.558
40501SOL    HW223401  13.271   7.201   5.489
40502SOL     OW23402   3.903   5.870   1.934
40502SOL    HW123403   3.981   5.826   1.902
40502SOL    HW223404   3.872   5.814   2.006
40503SOL     OW23405   3.562   8.477   4.768
40503SOL    HW123406   3.550   8.571   4.755
40503SOL    HW223407   3.477   8.445   4.798
40504SOL     OW23408   3.867   4.897   9.278
40504SOL    HW123409   3.775   4.908   9.302
40504SOL    HW223410   3.903   4.985   9.276
40505SOL     OW23411  14.446  12.454  12.303
40505SOL    HW123412  14.529  12.410  12.322
40505SOL    HW223413  14.466  12.514  12.231
40506SOL     OW23414   6.836  13.619   5.529
40506SOL    HW123415   6.790  13.563   5.466
40506SOL    HW223416   6.819  13.708   5.499
40507SOL     OW23417   3.792   1.782   9.843
40507SOL    HW123418   3.779   1.705   9.787
40507SOL    HW223419   3.758   1.755   9.929
40508SOL     OW23420  10.935  10.748   4.331
40508SOL    HW123421  10.904  10.686   4.264
40508SOL    HW223422  10.977  10.818   4.281
40509SOL     OW23423   4.528   7.648  11.359
40509SOL    HW123424   4.493   7.654  11.448
40509SOL    HW223425   4.517   7.736  11.323
40510SOL     OW23426   0.649   5.420   8.497
40510SOL    HW123427   0.690   5.503   8.520
40510SOL    HW223428   0.717   5.354   8.515
40511SOL     OW23429   0.129  11.905  11.739
40511SOL    HW123430   0.148  11.914  11.646
40511SOL    HW223431   0.033  11.904  11.744
40512SOL     OW23432   0.881  13.427  10.820
40512SOL    HW123433   0.909  13.436  10.911
40512SOL    HW223434   0.815  13.358  10.822
40513SOL     OW23435   9.767   4.449   7.564
40513SOL    HW123436   9.719   4.436   7.646
40513SOL    HW223437   9.745   4.538   7.537
40514SOL     OW23438   4.840   6.375   8.394
40514SOL    HW123439   4.745   6.381   8.385
40514SOL    HW223440   4.868   6.465   8.408
40515SOL     OW23441   2.895   8.078  12.622
40515SOL    HW123442   2.864   8.065  12.532
40515SOL    HW223443   2.983   8.114  12.612
40516SOL     OW23444   3.579   9.738  11.507
40516SOL    HW123445   3.663   9.747  11.460
40516SOL    HW223446   3.515   9.778  11.448
40517SOL     OW23447   5.740   4.486   5.047
40517SOL    HW123448   5.696   4.550   4.991
40517SOL    HW223449   5.718   4.401   5.009
40518SOL     OW23450   2.180   1.125   4.891
40518SOL    HW123451   2.086   1.132   4.876
40518SOL    HW223452   2.206   1.213   4.921
40519SOL     OW23453   9.946   9.291   9.010
40519SOL    HW123454  10.019   9.346   9.038
40519SOL    HW223455   9.945   9.218   9.072
40520SOL     OW23456  13.872   8.869   3.365
40520SOL    HW123457  13.957   8.825   3.366
40520SOL    HW223458  13.879   8.933   3.294
40521SOL     OW23459   2.359  13.867   5.506
40521SOL    HW123460   2.382  13.959   5.519
40521SOL    HW223461   2.412  13.821   5.571
40522SOL     OW23462  12.158   7.167   7.050
40522SOL    HW123463  12.103   7.090   7.057
40522SOL    HW223464  12.120   7.229   7.113
40523SOL     OW23465  14.394  13.277   5.417
40523SOL    HW123466  14.477  13.259   5.372
40523SOL    HW223467  14.380  13.200   5.473
40524SOL     OW23468   8.384   7.651   9.219
40524SOL    HW123469   8.318   7.622   9.281
40524SOL    HW223470   8.466   7.613   9.252
40525SOL     OW23471  14.268  12.304   9.896
40525SOL    HW123472  14.286  12.227   9.951
40525SOL    HW223473  14.269  12.270   9.807
40526SOL     OW23474   4.828  12.985   1.003
40526SOL    HW123475   4.829  12.989   1.099
40526SOL    HW223476   4.791  12.899   0.983
40527SOL     OW23477  12.027   1.367   1.670
40527SOL    HW123478  11.955   1.349   1.609
40527SOL    HW223479  12.104   1.328   1.628
40528SOL     OW23480   1.432   7.578   3.676
40528SOL    HW123481   1.498   7.548   3.739
40528SOL    HW223482   1.388   7.498   3.647
40529SOL     OW23483   3.524   6.036   7.582
40529SOL    HW123484   3.589   6.037   7.653
40529SOL    HW223485   3.576   6.040   7.502
40530SOL     OW23486  11.110  14.531   4.528
40530SOL    HW123487  11.023  14.544   4.565
40530SOL    HW223488  11.109  14.581   4.446
40531SOL     OW23489  11.607  14.451   1.945
40531SOL    HW123490  11.552  14.472   1.869
40531SOL    HW223491  11.643  14.365   1.925
40532SOL     OW23492   8.355  12.286   6.992
40532SOL    HW123493   8.385  12.372   6.963
40532SOL    HW223494   8.325  12.243   6.911
40533SOL     OW23495   1.212  13.930   2.537
40533SOL    HW123496   1.234  14.005   2.481
40533SOL    HW223497   1.157  13.967   2.606
40534SOL     OW23498   3.606  14.689   4.685
40534SOL    HW123499   3.550  14.746   4.633
40534SOL    HW223500   3.687  14.683   4.636
40535SOL     OW23501   2.404   2.442   5.201
40535SOL    HW123502   2.321   2.486   5.184
40535SOL    HW223503   2.405   2.427   5.295
40536SOL     OW23504   0.271  13.834   0.403
40536SOL    HW123505   0.200  13.853   0.465
40536SOL    HW223506   0.351  13.861   0.450
40537SOL     OW23507   3.204  10.298   4.294
40537SOL    HW123508   3.115  10.314   4.263
40537SOL    HW223509   3.221  10.370   4.356
40538SOL     OW23510   8.713  12.373   8.460
40538SOL    HW123511   8.667  12.457   8.462
40538SOL    HW223512   8.644  12.308   8.445
40539SOL     OW23513  10.457  12.189   6.393
40539SOL    HW123514  10.432  12.130   6.322
40539SOL    HW223515  10.546  12.216   6.372
40540SOL     OW23516   0.382   6.191  10.399
40540SOL    HW123517   0.461   6.164  10.352
40540SOL    HW223518   0.372   6.284  10.377
40541SOL     OW23519   6.294  13.378   8.589
40541SOL    HW123520   6.381  13.357   8.623
40541SOL    HW223521   6.266  13.452   8.643
40542SOL     OW23522  11.688  13.100   7.331
40542SOL    HW123523  11.681  13.074   7.239
40542SOL    HW223524  11.605  13.072   7.369
40543SOL     OW23525   8.062  12.463   0.630
40543SOL    HW123526   8.133  12.509   0.675
40543SOL    HW223527   8.046  12.386   0.684
40544SOL     OW23528  13.013   6.256   0.365
40544SOL    HW123529  12.943   6.309   0.326
40544SOL    HW223530  13.049   6.206   0.291
40545SOL     OW23531  14.375   0.483   7.726
40545SOL    HW123532  14.308   0.469   7.660
40545SOL    HW223533  14.360   0.414   7.791
40546SOL     OW23534   9.512   6.246   3.238
40546SOL    HW123535   9.422   6.212   3.241
40546SOL    HW223536   9.539   6.250   3.330
40547SOL     OW23537   7.382   3.763  13.063
40547SOL    HW123538   7.420   3.761  12.976
40547SOL    HW223539   7.454   3.743  13.122
40548SOL     OW23540   0.410   6.436   2.688
40548SOL    HW123541   0.491   6.423   2.639
40548SOL    HW223542   0.424   6.391   2.771
40549SOL     OW23543   7.604  13.625   3.588
40549SOL    HW123544   7.553  13.555   3.547
40549SOL    HW223545   7.631  13.590   3.673
40550SOL     OW23546  11.376   4.597   7.064
40550SOL    HW123547  11.382   4.594   6.969
40550SOL    HW223548  11.355   4.688   7.085
40551SOL     OW23549   1.810   3.785   7.394
40551SOL    HW123550   1.823   3.826   7.308
40551SOL    HW223551   1.899   3.765   7.424
40552SOL     OW23552   8.225  13.008   9.901
40552SOL    HW123553   8.290  13.078   9.907
40552SOL    HW223554   8.158  13.042   9.842
40553SOL     OW23555  12.263   6.195  14.825
40553SOL    HW123556  12.349   6.237  14.821
40553SOL    HW223557  12.248   6.180   0.049
40554SOL     OW23558  12.210   2.425   4.281
40554SOL    HW123559  12.192   2.519   4.278
40554SOL    HW223560  12.180   2.392   4.196
40555SOL     OW23561  14.274   4.855   7.485
40555SOL    HW123562  14.349   4.799   7.506
40555SOL    HW223563  14.212   4.796   7.441
40556SOL     OW23564  13.192   0.787   7.227
40556SOL    HW123565  13.190   0.739   7.309
40556SOL    HW223566  13.126   0.856   7.238
40557SOL     OW23567  14.301  10.927   1.800
40557SOL    HW123568  14.345  10.951   1.718
40557SOL    HW223569  14.281  11.011   1.842
40558SOL     OW23570   1.533   3.904   4.735
40558SOL    HW123571   1.559   3.874   4.648
40558SOL    HW223572   1.614   3.931   4.777
40559SOL     OW23573   5.065  12.959   4.612
40559SOL    HW123574   5.000  12.994   4.550
40559SOL    HW223575   5.023  12.883   4.650
40560SOL     OW23576   1.165   1.261  12.239
40560SOL    HW123577   1.076   1.251  12.206
40560SOL    HW223578   1.154   1.306  12.323
40561SOL     OW23579   8.580   2.084  14.517
40561SOL    HW123580   8.669   2.097  14.484
40561SOL    HW223581   8.569   1.989  14.519
40562SOL     OW23582  12.900   1.997   1.818
40562SOL    HW123583  12.838   1.927   1.795
40562SOL    HW223584  12.967   1.953   1.871
40563SOL     OW23585   2.088  10.406   4.579
40563SOL    HW123586   2.183  10.411   4.589
40563SOL    HW223587   2.064  10.488   4.538
40564SOL     OW23588   1.388  13.519   3.746
40564SOL    HW123589   1.422  13.529   3.835
40564SOL    HW223590   1.331  13.442   3.750
40565SOL     OW23591   9.386   0.908   1.369
40565SOL    HW123592   9.450   0.849   1.409
40565SOL    HW223593   9.313   0.909   1.431
40566SOL     OW23594   8.538   4.160  10.750
40566SOL    HW123595   8.542   4.255  10.761
40566SOL    HW223596   8.629   4.134  10.734
40567SOL     OW23597   9.147  12.563   8.351
40567SOL    HW123598   9.149  12.483   8.299
40567SOL    HW223599   9.238  12.591   8.355
40568SOL     OW23600  12.318   8.454   5.573
40568SOL    HW123601  12.396   8.509   5.581
40568SOL    HW223602  12.339   8.391   5.504
40569SOL     OW23603   3.784   0.288  14.455
40569SOL    HW123604   3.754   0.197  14.456
40569SOL    HW223605   3.876   0.282  14.431
40570SOL     OW23606  11.586   2.437   6.115
40570SOL    HW123607  11.548   2.442   6.028
40570SOL    HW223608  11.655   2.504   6.115
40571SOL     OW23609   1.434   3.714   2.733
40571SOL    HW123610   1.470   3.640   2.782
40571SOL    HW223611   1.511   3.769   2.715
40572SOL     OW23612  13.407   5.447  13.417
40572SOL    HW123613  13.324   5.459  13.372
40572SOL    HW223614  13.403   5.356  13.449
40573SOL     OW23615   2.389   1.528   0.016
40573SOL    HW123616   2.373   1.546  14.792
40573SOL    HW223617   2.484   1.536   0.026
40574SOL     OW23618   9.514   5.371  13.806
40574SOL    HW123619   9.481   5.294  13.761
40574SOL    HW223620   9.436   5.409  13.849
40575SOL     OW23621   3.852  10.426   1.954
40575SOL    HW123622   3.789  10.489   1.989
40575SOL    HW223623   3.936  10.453   1.990
40576SOL     OW23624   7.590   3.818  12.836
40576SOL    HW123625   7.645   3.828  12.758
40576SOL    HW223626   7.631   3.875  12.901
40577SOL     OW23627   7.172   9.970   9.240
40577SOL    HW123628   7.133  10.051   9.208
40577SOL    HW223629   7.263   9.993   9.259
40578SOL     OW23630   9.395   3.168   2.693
40578SOL    HW123631   9.352   3.242   2.651
40578SOL    HW223632   9.437   3.121   2.621
40579SOL     OW23633   9.822   1.110   8.619
40579SOL    HW123634   9.833   1.051   8.544
40579SOL    HW223635   9.751   1.072   8.670
40580SOL     OW23636   0.598   0.912   6.526
40580SOL    HW123637   0.628   0.907   6.436
40580SOL    HW223638   0.651   0.980   6.566
40581SOL     OW23639  10.468   8.758  14.171
40581SOL    HW123640  10.560   8.784  14.161
40581SOL    HW223641  10.468   8.664  14.154
40582SOL     OW23642  10.955   6.254  11.938
40582SOL    HW123643  11.022   6.187  11.951
40582SOL    HW223644  10.971   6.318  12.007
40583SOL     OW23645   0.400  13.086  10.227
40583SOL    HW123646   0.350  13.006  10.211
40583SOL    HW223647   0.425  13.080  10.319
40584SOL     OW23648   9.695   6.258  10.084
40584SOL    HW123649   9.668   6.214  10.165
40584SOL    HW223650   9.779   6.218  10.061
40585SOL     OW23651   6.246  11.815   8.670
40585SOL    HW123652   6.211  11.863   8.595
40585SOL    HW223653   6.325  11.862   8.694
40586SOL     OW23654  12.618  13.584  10.825
40586SOL    HW123655  12.605  13.607  10.733
40586SOL    HW223656  12.698  13.531  10.826
40587SOL     OW23657  10.665   3.597  12.873
40587SOL    HW123658  10.635   3.524  12.927
40587SOL    HW223659  10.633   3.675  12.917
40588SOL     OW23660   4.553   0.333  12.774
40588SOL    HW123661   4.558   0.273  12.849
40588SOL    HW223662   4.561   0.276  12.698
40589SOL     OW23663   4.847  12.886   5.612
40589SOL    HW123664   4.940  12.876   5.632
40589SOL    HW223665   4.825  12.807   5.563
40590SOL     OW23666   8.919  10.820  13.464
40590SOL    HW123667   8.993  10.802  13.405
40590SOL    HW223668   8.894  10.734  13.497
40591SOL     OW23669  10.177   7.347  14.055
40591SOL    HW123670  10.249   7.355  13.992
40591SOL    HW223671  10.201   7.405  14.127
40592SOL     OW23672   5.966   9.383   4.194
40592SOL    HW123673   6.007   9.423   4.271
40592SOL    HW223674   5.872   9.382   4.215
40593SOL     OW23675  11.709   8.163   6.605
40593SOL    HW123676  11.773   8.110   6.558
40593SOL    HW223677  11.735   8.155   6.697
40594SOL     OW23678   8.441   2.310   5.299
40594SOL    HW123679   8.368   2.278   5.246
40594SOL    HW223680   8.400   2.341   5.380
40595SOL     OW23681  10.988   0.128   2.951
40595SOL    HW123682  10.938   0.162   3.026
40595SOL    HW223683  10.924   0.079   2.900
40596SOL     OW23684   6.425   5.494   2.757
40596SOL    HW123685   6.384   5.480   2.672
40596SOL    HW223686   6.518   5.505   2.738
40597SOL     OW23687   7.342   6.526   5.312
40597SOL    HW123688   7.412   6.460   5.319
40597SOL    HW223689   7.261   6.475   5.312
40598SOL     OW23690   9.201   5.056   4.583
40598SOL    HW123691   9.218   5.033   4.492
40598SOL    HW223692   9.120   5.108   4.580
40599SOL     OW23693  10.063   0.604   9.828
40599SOL    HW123694   9.987   0.656   9.802
40599SOL    HW223695  10.037   0.565   9.912
40600SOL     OW23696   6.801   2.591  13.151
40600SOL    HW123697   6.862   2.622  13.085
40600SOL    HW223698   6.857   2.554  13.220
40601SOL     OW23699   9.581   2.890   4.507
40601SOL    HW123700   9.526   2.873   4.430
40601SOL    HW223701   9.655   2.941   4.473
40602SOL     OW23702   7.729   0.022   0.306
40602SOL    HW123703   7.729   0.099   0.249
40602SOL    HW223704   7.638  14.863   0.308
40603SOL     OW23705   5.112  12.851  13.322
40603SOL    HW123706   5.023  12.825  13.343
40603SOL    HW223707   5.151  12.874  13.407
40604SOL     OW23708   3.529   8.460   2.429
40604SOL    HW123709   3.598   8.469   2.363
40604SOL    HW223710   3.572   8.415   2.502
40605SOL     OW23711   5.005  13.329   7.741
40605SOL    HW123712   4.970  13.387   7.809
40605SOL    HW223713   5.045  13.257   7.790
40606SOL     OW23714   8.562   5.331   6.015
40606SOL    HW123715   8.565   5.278   6.095
40606SOL    HW223716   8.654   5.351   5.996
40607SOL     OW23717   1.035  13.988  10.085
40607SOL    HW123718   1.071  14.033  10.161
40607SOL    HW223719   1.025  14.056  10.019
40608SOL     OW23720  10.362   9.927   7.192
40608SOL    HW123721  10.350  10.012   7.232
40608SOL    HW223722  10.281   9.880   7.209
40609SOL     OW23723   0.824   7.422  14.348
40609SOL    HW123724   0.860   7.442  14.261
40609SOL    HW223725   0.898   7.390  14.398
40610SOL     OW23726   8.911   0.583   4.901
40610SOL    HW123727   8.815   0.587   4.902
40610SOL    HW223728   8.932   0.493   4.925
40611SOL     OW23729  11.234   7.790  13.592
40611SOL    HW123730  11.317   7.802  13.546
40611SOL    HW223731  11.171   7.772  13.523
40612SOL     OW23732  14.157  11.335   2.376
40612SOL    HW123733  14.144  11.354   2.283
40612SOL    HW223734  14.171  11.421   2.416
40613SOL     OW23735   1.418   8.227   8.958
40613SOL    HW123736   1.323   8.229   8.960
40613SOL    HW223737   1.440   8.188   8.873
40614SOL     OW23738   7.383   2.342   9.923
40614SOL    HW123739   7.316   2.327   9.990
40614SOL    HW223740   7.396   2.256   9.883
40615SOL     OW23741  10.768  10.474   5.132
40615SOL    HW123742  10.708  10.468   5.206
40615SOL    HW223743  10.854  10.453   5.168
40616SOL     OW23744   9.268  10.809  13.752
40616SOL    HW123745   9.311  10.873  13.810
40616SOL    HW223746   9.216  10.863  13.692
40617SOL     OW23747   3.378  11.012   5.515
40617SOL    HW123748   3.283  11.009   5.525
40617SOL    HW223749   3.398  11.105   5.504
40618SOL     OW23750   4.421   0.369   3.460
40618SOL    HW123751   4.348   0.307   3.463
40618SOL    HW223752   4.390   0.440   3.405
40619SOL     OW23753   7.173   4.397   0.437
40619SOL    HW123754   7.150   4.480   0.479
40619SOL    HW223755   7.256   4.415   0.392
40620SOL     OW23756  14.091   2.483   1.859
40620SOL    HW123757  14.065   2.481   1.951
40620SOL    HW223758  14.078   2.393   1.828
40621SOL     OW23759   6.099   7.895   5.646
40621SOL    HW123760   6.193   7.904   5.630
40621SOL    HW223761   6.076   7.810   5.606
40622SOL     OW23762   2.870   4.608  11.960
40622SOL    HW123763   2.838   4.693  11.930
40622SOL    HW223764   2.804   4.546  11.929
40623SOL     OW23765  14.597   6.785   9.550
40623SOL    HW123766  14.557   6.775   9.464
40623SOL    HW223767  14.526   6.814   9.607
40624SOL     OW23768   6.551   9.694   6.935
40624SOL    HW123769   6.494   9.741   6.874
40624SOL    HW223770   6.584   9.619   6.885
40625SOL     OW23771   0.877   4.604   4.579
40625SOL    HW123772   0.970   4.597   4.599
40625SOL    HW223773   0.848   4.682   4.626
40626SOL     OW23774   8.962  10.217  12.627
40626SOL    HW123775   8.885  10.171  12.658
40626SOL    HW223776   8.992  10.167  12.551
40627SOL     OW23777  12.360   1.649   7.345
40627SOL    HW123778  12.352   1.639   7.250
40627SOL    HW223779  12.419   1.578   7.372
40628SOL     OW23780  11.316   9.313   2.893
40628SOL    HW123781  11.296   9.393   2.844
40628SOL    HW223782  11.277   9.243   2.841
40629SOL     OW23783   3.025   0.899  10.101
40629SOL    HW123784   3.100   0.905  10.161
40629SOL    HW223785   3.019   0.806  10.079
40630SOL     OW23786   2.994  13.080   5.168
40630SOL    HW123787   2.978  13.167   5.205
40630SOL    HW223788   2.910  13.054   5.130
40631SOL     OW23789   1.322   1.968   0.672
40631SOL    HW123790   1.414   1.986   0.691
40631SOL    HW223791   1.324   1.899   0.606
40632SOL     OW23792  13.817  13.000   9.936
40632SOL    HW123793  13.810  13.086   9.979
40632SOL    HW223794  13.732  12.959   9.950
40633SOL     OW23795   7.797   1.580  11.557
40633SOL    HW123796   7.853   1.561  11.481
40633SOL    HW223797   7.826   1.667  11.586
40634SOL     OW23798   4.152  13.926  13.672
40634SOL    HW123799   4.109  13.847  13.705
40634SOL    HW223800   4.082  13.974  13.628
40635SOL     OW23801   8.508   8.269   5.330
40635SOL    HW123802   8.569   8.342   5.323
40635SOL    HW223803   8.440   8.287   5.265
40636SOL     OW23804   4.209  10.405  12.381
40636SOL    HW123805   4.168  10.391  12.296
40636SOL    HW223806   4.139  10.386  12.444
40637SOL     OW23807   6.354  13.005   1.826
40637SOL    HW123808   6.413  13.071   1.790
40637SOL    HW223809   6.275  13.054   1.850
40638SOL     OW23810   6.956   1.902  14.713
40638SOL    HW123811   6.867   1.928  14.690
40638SOL    HW223812   6.953   1.882  14.806
40639SOL     OW23813   8.524  12.920   7.523
40639SOL    HW123814   8.476  12.838   7.512
40639SOL    HW223815   8.475  12.984   7.471
40640SOL     OW23816   5.604   1.526   6.566
40640SOL    HW123817   5.619   1.463   6.496
40640SOL    HW223818   5.567   1.474   6.637
40641SOL     OW23819   7.541   1.889   3.921
40641SOL    HW123820   7.449   1.909   3.905
40641SOL    HW223821   7.550   1.888   4.016
40642SOL     OW23822   5.511   0.023   0.361
40642SOL    HW123823   5.472  14.814   0.322
40642SOL    HW223824   5.529  14.867   0.451
40643SOL     OW23825  10.655   5.917   4.736
40643SOL    HW123826  10.607   5.999   4.745
40643SOL    HW223827  10.746   5.943   4.725
40644SOL     OW23828   8.859  11.629  13.722
40644SOL    HW123829   8.781  11.685  13.725
40644SOL    HW223830   8.927  11.684  13.684
40645SOL     OW23831   4.783   8.519   9.775
40645SOL    HW123832   4.766   8.608   9.807
40645SOL    HW223833   4.720   8.507   9.704
40646SOL     OW23834   0.822   5.154   7.600
40646SOL    HW123835   0.889   5.157   7.668
40646SOL    HW223836   0.856   5.093   7.535
40647SOL     OW23837   0.100   9.376   9.424
40647SOL    HW123838   0.106   9.444   9.357
40647SOL    HW223839   0.038   9.411   9.488
40648SOL     OW23840  10.686  13.870   3.725
40648SOL    HW123841  10.662  13.808   3.656
40648SOL    HW223842  10.782  13.870   3.725
40649SOL     OW23843  13.470   2.490   9.472
40649SOL    HW123844  13.452   2.400   9.446
40649SOL    HW223845  13.433   2.543   9.401
40650SOL     OW23846   4.593   6.086   9.283
40650SOL    HW123847   4.537   6.059   9.209
40650SOL    HW223848   4.631   6.004   9.314
40651SOL     OW23849   3.123  12.415   7.648
40651SOL    HW123850   3.215  12.440   7.640
40651SOL    HW223851   3.125  12.325   7.681
40652SOL     OW23852   0.950   0.867   5.351
40652SOL    HW123853   0.931   0.860   5.257
40652SOL    HW223854   1.036   0.827   5.361
40653SOL     OW23855   4.489   9.084   5.839
40653SOL    HW123856   4.509   8.990   5.848
40653SOL    HW223857   4.473   9.096   5.746
40654SOL     OW23858   7.373   1.629  14.322
40654SOL    HW123859   7.368   1.563  14.252
40654SOL    HW223860   7.411   1.582  14.396
40655SOL     OW23861   7.589   5.413  13.003
40655SOL    HW123862   7.548   5.383  12.922
40655SOL    HW223863   7.649   5.342  13.028
40656SOL     OW23864  11.085   6.541   7.301
40656SOL    HW123865  11.009   6.561   7.356
40656SOL    HW223866  11.105   6.623   7.257
40657SOL     OW23867  11.862   2.695  12.816
40657SOL    HW123868  11.840   2.690  12.723
40657SOL    HW223869  11.846   2.606  12.849
40658SOL     OW23870  13.559   0.223  10.769
40658SOL    HW123871  13.511   0.166  10.829
40658SOL    HW223872  13.494   0.248  10.703
40659SOL     OW23873  11.909  14.499   5.966
40659SOL    HW123874  11.945  14.419   6.005
40659SOL    HW223875  11.853  14.468   5.895
40660SOL     OW23876   3.398   7.605  14.730
40660SOL    HW123877   3.480   7.601  14.682
40660SOL    HW223878   3.337   7.551  14.679
40661SOL     OW23879   2.384   6.655  11.247
40661SOL    HW123880   2.364   6.616  11.162
40661SOL    HW223881   2.399   6.580  11.305
40662SOL     OW23882   0.557   1.216   8.537
40662SOL    HW123883   0.611   1.165   8.476
40662SOL    HW223884   0.468   1.210   8.501
40663SOL     OW23885   7.912   8.033  12.366
40663SOL    HW123886   7.859   8.112  12.378
40663SOL    HW223887   7.954   8.018  12.451
40664SOL     OW23888  13.132  14.046  13.022
40664SOL    HW123889  13.208  14.100  12.999
40664SOL    HW223890  13.076  14.104  13.074
40665SOL     OW23891   8.065   5.261   6.994
40665SOL    HW123892   8.112   5.178   6.990
40665SOL    HW223893   8.089   5.298   7.079
40666SOL     OW23894   6.776   9.395   5.874
40666SOL    HW123895   6.747   9.405   5.965
40666SOL    HW223896   6.852   9.337   5.879
40667SOL     OW23897  13.087   3.042   0.937
40667SOL    HW123898  13.118   3.132   0.932
40667SOL    HW223899  13.155   2.991   0.893
40668SOL     OW23900  10.634  12.962   0.564
40668SOL    HW123901  10.552  13.011   0.558
40668SOL    HW223902  10.608  12.870   0.554
40669SOL     OW23903  10.403   6.396   5.477
40669SOL    HW123904  10.341   6.419   5.407
40669SOL    HW223905  10.349   6.380   5.553
40670SOL     OW23906  10.076  12.616   6.585
40670SOL    HW123907  10.017  12.570   6.525
40670SOL    HW223908  10.145  12.651   6.529
40671SOL     OW23909   5.602   5.653  12.582
40671SOL    HW123910   5.670   5.719  12.573
40671SOL    HW223911   5.569   5.665  12.671
40672SOL     OW23912   7.603  13.796   4.366
40672SOL    HW123913   7.620  13.860   4.298
40672SOL    HW223914   7.680  13.801   4.423
40673SOL     OW23915   0.128   5.934  11.565
40673SOL    HW123916   0.216   5.935  11.528
40673SOL    HW223917   0.118   6.021  11.606
40674SOL     OW23918   8.322   3.465   1.525
40674SOL    HW123919   8.258   3.507   1.469
40674SOL    HW223920   8.304   3.500   1.612
40675SOL     OW23921   5.075  10.162   3.163
40675SOL    HW123922   5.129  10.093   3.125
40675SOL    HW223923   5.006  10.116   3.211
40676SOL     OW23924  13.656  12.757  10.348
40676SOL    HW123925  13.590  12.735  10.413
40676SOL    HW223926  13.738  12.766  10.398
40677SOL     OW23927  12.963  11.528   0.968
40677SOL    HW123928  12.996  11.576   1.044
40677SOL    HW223929  12.869  11.519   0.985
40678SOL     OW23930  14.567   3.332   9.735
40678SOL    HW123931  14.498   3.335   9.669
40678SOL    HW223932  14.644   3.367   9.691
40679SOL     OW23933   0.010   0.566   9.851
40679SOL    HW123934   0.049   0.549   9.937
40679SOL    HW223935  14.785   0.557   9.866
40680SOL     OW23936  11.983  13.702  14.457
40680SOL    HW123937  12.010  13.731  14.370
40680SOL    HW223938  12.027  13.618  14.469
40681SOL     OW23939  13.459  10.818   1.543
40681SOL    HW123940  13.441  10.789   1.454
40681SOL    HW223941  13.474  10.913   1.535
40682SOL     OW23942   4.294   2.728   0.778
40682SOL    HW123943   4.311   2.634   0.777
40682SOL    HW223944   4.227   2.741   0.711
40683SOL     OW23945   9.820   5.216  13.277
40683SOL    HW123946   9.758   5.215  13.204
40683SOL    HW223947   9.796   5.140  13.330
40684SOL     OW23948   8.004   0.692   1.934
40684SOL    HW123949   8.084   0.653   1.970
40684SOL    HW223950   7.973   0.751   2.003
40685SOL     OW23951   0.045   9.213   1.283
40685SOL    HW123952   0.056   9.162   1.363
40685SOL    HW223953   0.032   9.303   1.313
40686SOL     OW23954   2.421  11.185   3.033
40686SOL    HW123955   2.417  11.112   3.095
40686SOL    HW223956   2.476  11.152   2.961
40687SOL     OW23957  10.823  11.503   3.336
40687SOL    HW123958  10.894  11.493   3.273
40687SOL    HW223959  10.766  11.427   3.320
40688SOL     OW23960   0.413   1.813  14.040
40688SOL    HW123961   0.424   1.843  14.130
40688SOL    HW223962   0.502   1.793  14.010
40689SOL     OW23963   4.794  13.698  11.833
40689SOL    HW123964   4.792  13.721  11.740
40689SOL    HW223965   4.856  13.760  11.871
40690SOL     OW23966  10.795   6.600  11.694
40690SOL    HW123967  10.711   6.563  11.669
40690SOL    HW223968  10.786   6.694  11.678
40691SOL     OW23969  14.054   4.055  10.346
40691SOL    HW123970  14.102   3.974  10.326
40691SOL    HW223971  14.117   4.125  10.327
40692SOL     OW23972   6.991   8.232   1.989
40692SOL    HW123973   6.900   8.231   2.017
40692SOL    HW223974   7.041   8.231   2.070
40693SOL     OW23975   1.414   1.961   5.478
40693SOL    HW123976   1.368   2.034   5.520
40693SOL    HW223977   1.459   1.917   5.550
40694SOL     OW23978   0.801  11.467   2.512
40694SOL    HW123979   0.746  11.479   2.589
40694SOL    HW223980   0.810  11.555   2.475
40695SOL     OW23981   4.579   3.560  10.424
40695SOL    HW123982   4.624   3.598  10.349
40695SOL    HW223983   4.499   3.612  10.434
40696SOL     OW23984   4.925   5.814  10.048
40696SOL    HW123985   4.830   5.815  10.059
40696SOL    HW223986   4.955   5.894  10.091
40697SOL     OW23987   5.791   1.876  14.341
40697SOL    HW123988   5.869   1.841  14.384
40697SOL    HW223989   5.807   1.970  14.337
40698SOL     OW23990   3.615   4.932   7.128
40698SOL    HW123991   3.597   4.994   7.200
40698SOL    HW223992   3.696   4.889   7.154
40699SOL     OW23993  10.250   0.983  12.965
40699SOL    HW123994  10.203   1.058  12.930
40699SOL    HW223995  10.317   1.020  13.022
40700SOL     OW23996  13.196   4.113   4.630
40700SOL    HW123997  13.105   4.120   4.599
40700SOL    HW223998  13.247   4.102   4.550
40701SOL     OW23999  13.252   1.753  14.674
40701SOL    HW124000  13.211   1.729  14.591
40701SOL    HW224001  13.337   1.711  14.672
40702SOL     OW24002  13.808  13.266   2.424
40702SOL    HW124003  13.854  13.265   2.509
40702SOL    HW224004  13.867  13.221   2.364
40703SOL     OW24005   9.710  14.571  12.052
40703SOL    HW124006   9.758  14.640  12.099
40703SOL    HW224007   9.715  14.596  11.960
40704SOL     OW24008  14.297   9.876  13.827
40704SOL    HW124009  14.307   9.793  13.874
40704SOL    HW224010  14.375   9.926  13.851
40705SOL     OW24011  13.086   4.992  11.017
40705SOL    HW124012  13.082   5.088  11.017
40705SOL    HW224013  13.088   4.968  11.110
40706SOL     OW24014  11.024  11.841  11.417
40706SOL    HW124015  11.083  11.876  11.350
40706SOL    HW224016  11.013  11.913  11.479
40707SOL     OW24017  13.302   1.890   8.225
40707SOL    HW124018  13.290   1.952   8.296
40707SOL    HW224019  13.377   1.837   8.252
40708SOL     OW24020  13.736   3.664   9.303
40708SOL    HW124021  13.678   3.662   9.380
40708SOL    HW224022  13.813   3.712   9.333
40709SOL     OW24023   9.343   7.962  14.536
40709SOL    HW124024   9.303   7.943  14.452
40709SOL    HW224025   9.341   8.058  14.542
40710SOL     OW24026  11.427  14.275   8.190
40710SOL    HW124027  11.508  14.225   8.185
40710SOL    HW224028  11.426  14.310   8.279
40711SOL     OW24029  11.447   4.657   5.168
40711SOL    HW124030  11.540   4.641   5.152
40711SOL    HW224031  11.407   4.570   5.172
40712SOL     OW24032   0.105   7.054   3.157
40712SOL    HW124033   0.091   6.960   3.173
40712SOL    HW224034   0.020   7.086   3.126
40713SOL     OW24035   7.136  11.750   5.385
40713SOL    HW124036   7.195  11.821   5.360
40713SOL    HW224037   7.145  11.685   5.315
40714SOL     OW24038   6.465   5.746  11.423
40714SOL    HW124039   6.515   5.713  11.348
40714SOL    HW224040   6.501   5.700  11.499
40715SOL     OW24041   6.679   6.151   1.932
40715SOL    HW124042   6.637   6.237   1.927
40715SOL    HW224043   6.767   6.168   1.963
40716SOL     OW24044   1.828  11.810   7.608
40716SOL    HW124045   1.857  11.807   7.517
40716SOL    HW224046   1.907  11.796   7.660
40717SOL     OW24047  12.981   5.471   9.599
40717SOL    HW124048  12.953   5.557   9.567
40717SOL    HW224049  13.042   5.440   9.532
40718SOL     OW24050  14.538   1.206  10.694
40718SOL    HW124051  14.478   1.163  10.633
40718SOL    HW224052  14.516   1.299  10.689
40719SOL     OW24053  11.862   9.315  12.975
40719SOL    HW124054  11.923   9.356  12.913
40719SOL    HW224055  11.889   9.223  12.978
40720SOL     OW24056   4.687  13.473   2.009
40720SOL    HW124057   4.711  13.506   2.095
40720SOL    HW224058   4.648  13.549   1.964
40721SOL     OW24059   9.952   2.258  11.531
40721SOL    HW124060   9.985   2.347  11.527
40721SOL    HW224061   9.861   2.267  11.559
40722SOL     OW24062  14.690   1.131  10.259
40722SOL    HW124063  14.615   1.170  10.304
40722SOL    HW224064  14.651   1.070  10.197
40723SOL     OW24065  13.566   6.247  14.601
40723SOL    HW124066  13.488   6.292  14.633
40723SOL    HW224067  13.616   6.315  14.556
40724SOL     OW24068   7.931   3.818   7.722
40724SOL    HW124069   7.924   3.869   7.641
40724SOL    HW224070   7.844   3.781   7.735
40725SOL     OW24071   4.788   4.367   1.575
40725SOL    HW124072   4.771   4.284   1.619
40725SOL    HW224073   4.751   4.356   1.487
40726SOL     OW24074  10.022  10.504  14.205
40726SOL    HW124075  10.089  10.495  14.273
40726SOL    HW224076   9.945  10.461  14.242
40727SOL     OW24077   6.069   7.263   7.828
40727SOL    HW124078   6.160   7.247   7.852
40727SOL    HW224079   6.021   7.188   7.863
40728SOL     OW24080  11.894   1.438  11.422
40728SOL    HW124081  11.860   1.522  11.455
40728SOL    HW224082  11.896   1.381  11.499
40729SOL     OW24083   6.927   1.282  12.574
40729SOL    HW124084   6.916   1.355  12.513
40729SOL    HW224085   6.989   1.315  12.639
40730SOL     OW24086   7.962   0.789   9.314
40730SOL    HW124087   8.051   0.755   9.315
40730SOL    HW224088   7.910   0.718   9.276
40731SOL     OW24089  11.428   8.936   9.163
40731SOL    HW124090  11.407   9.014   9.213
40731SOL    HW224091  11.398   8.955   9.074
40732SOL     OW24092  13.391   2.653   1.967
40732SOL    HW124093  13.335   2.729   1.981
40732SOL    HW224094  13.339   2.579   1.998
40733SOL     OW24095  11.021  10.779   3.715
40733SOL    HW124096  11.067  10.860   3.737
40733SOL    HW224097  11.047  10.760   3.625
40734SOL     OW24098  10.976   0.928   3.507
40734SOL    HW124099  10.957   0.918   3.601
40734SOL    HW224100  10.995   0.839   3.477
40735SOL     OW24101   0.228   9.796   4.897
40735SOL    HW124102   0.314   9.835   4.917
40735SOL    HW224103   0.191   9.776   4.982
40736SOL     OW24104   6.369  14.640   7.735
40736SOL    HW124105   6.389  14.567   7.676
40736SOL    HW224106   6.446  14.647   7.791
40737SOL     OW24107   8.032   1.331   1.739
40737SOL    HW124108   8.054   1.293   1.654
40737SOL    HW224109   8.101   1.396   1.755
40738SOL     OW24110   2.010   4.435  10.730
40738SOL    HW124111   2.099   4.472  10.729
40738SOL    HW224112   2.011   4.371  10.659
40739SOL     OW24113  11.051  12.425   4.783
40739SOL    HW124114  11.006  12.486   4.841
40739SOL    HW224115  10.985  12.361   4.759
40740SOL     OW24116  12.600   0.567  10.231
40740SOL    HW124117  12.632   0.608  10.312
40740SOL    HW224118  12.659   0.599  10.163
40741SOL     OW24119   9.020   2.590  13.322
40741SOL    HW124120   9.000   2.501  13.292
40741SOL    HW224121   8.992   2.647  13.250
40742SOL     OW24122   0.021   6.787   3.015
40742SOL    HW124123  14.860   6.728   2.946
40742SOL    HW224124  14.821   6.785   3.081
40743SOL     OW24125  12.024   2.378  13.921
40743SOL    HW124126  12.085   2.390  13.847
40743SOL    HW224127  11.958   2.318  13.888
40744SOL     OW24128  10.792  12.167   8.377
40744SOL    HW124129  10.784  12.239   8.440
40744SOL    HW224130  10.875  12.184   8.332
40745SOL     OW24131   3.644   4.094  10.144
40745SOL    HW124132   3.550   4.098  10.130
40745SOL    HW224133   3.682   4.120  10.060
40746SOL     OW24134   5.759   8.070   3.571
40746SOL    HW124135   5.787   8.146   3.623
40746SOL    HW224136   5.837   8.045   3.522
40747SOL     OW24137   2.314  10.035  11.412
40747SOL    HW124138   2.345  10.125  11.417
40747SOL    HW224139   2.342   9.995  11.494
40748SOL     OW24140   0.171  14.077  14.620
40748SOL    HW124141   0.205  14.063  14.532
40748SOL    HW224142   0.183  14.171  14.636
40749SOL     OW24143   3.854  13.919  11.333
40749SOL    HW124144   3.935  13.888  11.374
40749SOL    HW224145   3.881  13.943  11.244
40750SOL     OW24146   1.256   5.179   6.382
40750SOL    HW124147   1.265   5.086   6.361
40750SOL    HW224148   1.294   5.224   6.306
40751SOL     OW24149   5.836  12.288  10.311
40751SOL    HW124150   5.818  12.378  10.285
40751SOL    HW224151   5.836  12.239  10.229
40752SOL     OW24152   4.980   1.899   8.973
40752SOL    HW124153   4.988   1.812   9.010
40752SOL    HW224154   4.931   1.948   9.039
40753SOL     OW24155  14.139   6.246   1.010
40753SOL    HW124156  14.063   6.295   1.040
40753SOL    HW224157  14.182   6.217   1.091
40754SOL     OW24158  10.399   2.959  11.227
40754SOL    HW124159  10.473   2.981  11.285
40754SOL    HW224160  10.338   3.032  11.237
40755SOL     OW24161  11.032   8.342  12.750
40755SOL    HW124162  10.950   8.349  12.798
40755SOL    HW224163  11.007   8.311  12.663
40756SOL     OW24164   7.647   4.686   6.576
40756SOL    HW124165   7.592   4.680   6.654
40756SOL    HW224166   7.716   4.748   6.600
40757SOL     OW24167  10.613   5.091  11.718
40757SOL    HW124168  10.651   5.004  11.706
40757SOL    HW224169  10.668   5.132  11.784
40758SOL     OW24170   9.611   2.590  10.985
40758SOL    HW124171   9.685   2.648  11.002
40758SOL    HW224172   9.650   2.504  10.971
40759SOL     OW24173   0.776   4.711   7.769
40759SOL    HW124174   0.741   4.684   7.684
40759SOL    HW224175   0.870   4.721   7.755
40760SOL     OW24176  10.009  14.805   8.827
40760SOL    HW124177  10.016  14.774   8.917
40760SOL    HW224178   9.944  14.747   8.786
40761SOL     OW24179   8.441   1.431   4.921
40761SOL    HW124180   8.384   1.476   4.858
40761SOL    HW224181   8.414   1.465   5.006
40762SOL     OW24182   4.160  13.391   8.078
40762SOL    HW124183   4.254  13.386   8.096
40762SOL    HW224184   4.150  13.470   8.024
40763SOL     OW24185   4.047   7.847  11.932
40763SOL    HW124186   4.110   7.919  11.931
40763SOL    HW224187   4.060   7.804  12.017
40764SOL     OW24188   3.689  11.372  13.622
40764SOL    HW124189   3.648  11.398  13.705
40764SOL    HW224190   3.640  11.420  13.555
40765SOL     OW24191  11.992  13.943   9.428
40765SOL    HW124192  12.038  13.932   9.511
40765SOL    HW224193  12.049  13.998   9.375
40766SOL     OW24194   6.747  13.260   1.036
40766SOL    HW124195   6.734  13.204   1.112
40766SOL    HW224196   6.687  13.225   0.970
40767SOL     OW24197   2.610  14.093  12.367
40767SOL    HW124198   2.642  14.169  12.318
40767SOL    HW224199   2.556  14.045  12.304
40768SOL     OW24200   2.644   1.185  12.065
40768SOL    HW124201   2.730   1.195  12.108
40768SOL    HW224202   2.603   1.271  12.076
40769SOL     OW24203   5.496  10.040   2.761
40769SOL    HW124204   5.449  10.048   2.678
40769SOL    HW224205   5.455   9.964   2.803
40770SOL     OW24206  12.204  10.687  12.653
40770SOL    HW124207  12.165  10.773  12.634
40770SOL    HW224208  12.287  10.708  12.696
40771SOL     OW24209   6.017  14.808   4.886
40771SOL    HW124210   6.028  14.762   4.803
40771SOL    HW224211   6.077   0.013   4.880
40772SOL     OW24212   2.110   1.755   9.712
40772SOL    HW124213   2.099   1.842   9.749
40772SOL    HW224214   2.127   1.698   9.787
40773SOL     OW24215   1.964  10.784   7.846
40773SOL    HW124216   1.959  10.819   7.935
40773SOL    HW224217   1.885  10.819   7.803
40774SOL     OW24218   0.638   1.398  10.538
40774SOL    HW124219   0.722   1.422  10.500
40774SOL    HW224220   0.575   1.456  10.496
40775SOL     OW24221   5.954  14.397  14.327
40775SOL    HW124222   5.952  14.460  14.400
40775SOL    HW224223   5.927  14.448  14.251
40776SOL     OW24224   3.513  14.279  12.621
40776SOL    HW124225   3.472  14.327  12.693
40776SOL    HW224226   3.565  14.211  12.664
40777SOL     OW24227   5.946   0.121  13.696
40777SOL    HW124228   5.916   0.067  13.769
40777SOL    HW224229   5.928   0.211  13.723
40778SOL     OW24230   7.748   0.731  11.355
40778SOL    HW124231   7.795   0.808  11.322
40778SOL    HW224232   7.748   0.670  11.281
40779SOL     OW24233  12.990   5.331   1.555
40779SOL    HW124234  12.973   5.399   1.491
40779SOL    HW224235  13.001   5.251   1.504
40780SOL     OW24236   9.033   7.878   2.488
40780SOL    HW124237   8.965   7.879   2.556
40780SOL    HW224238   9.000   7.815   2.423
40781SOL     OW24239  12.435   2.946   5.446
40781SOL    HW124240  12.430   2.993   5.529
40781SOL    HW224241  12.357   2.973   5.398
40782SOL     OW24242  13.008  11.803   9.030
40782SOL    HW124243  13.031  11.850   8.949
40782SOL    HW224244  13.077  11.738   9.040
40783SOL     OW24245   5.563   1.646   0.308
40783SOL    HW124246   5.562   1.694   0.391
40783SOL    HW224247   5.480   1.670   0.266
40784SOL     OW24248  10.015   1.969  13.544
40784SOL    HW124249  10.075   1.896  13.530
40784SOL    HW224250   9.953   1.964  13.471
40785SOL     OW24251   3.085   5.196   1.376
40785SOL    HW124252   3.062   5.257   1.447
40785SOL    HW224253   3.015   5.131   1.376
40786SOL     OW24254   7.005   9.193   6.333
40786SOL    HW124255   6.926   9.139   6.327
40786SOL    HW224256   7.064   9.157   6.267
40787SOL     OW24257   4.646  11.366   1.922
40787SOL    HW124258   4.726  11.418   1.926
40787SOL    HW224259   4.604  11.380   2.006
40788SOL     OW24260  11.307   8.780  12.069
40788SOL    HW124261  11.252   8.723  12.015
40788SOL    HW224262  11.382   8.801  12.014
40789SOL     OW24263   9.568   1.467   8.000
40789SOL    HW124264   9.474   1.477   8.017
40789SOL    HW224265   9.605   1.449   8.086
40790SOL     OW24266   0.766   8.842  11.956
40790SOL    HW124267   0.830   8.877  11.894
40790SOL    HW224268   0.711   8.784  11.904
40791SOL     OW24269   4.616   1.398   2.746
40791SOL    HW124270   4.699   1.442   2.734
40791SOL    HW224271   4.632   1.336   2.818
40792SOL     OW24272   8.814  10.825   2.347
40792SOL    HW124273   8.766  10.761   2.295
40792SOL    HW224274   8.819  10.787   2.435
40793SOL     OW24275   2.460   3.408  11.438
40793SOL    HW124276   2.421   3.490  11.407
40793SOL    HW224277   2.418   3.391  11.522
40794SOL     OW24278  13.950  10.406  13.389
40794SOL    HW124279  14.041  10.389  13.411
40794SOL    HW224280  13.920  10.325  13.348
40795SOL     OW24281  11.757   8.194   9.385
40795SOL    HW124282  11.850   8.178   9.369
40795SOL    HW224283  11.712   8.127   9.332
40796SOL     OW24284  10.503   5.630   8.774
40796SOL    HW124285  10.500   5.630   8.870
40796SOL    HW224286  10.486   5.539   8.750
40797SOL     OW24287  10.942  12.366   0.878
40797SOL    HW124288  11.003  12.364   0.952
40797SOL    HW224289  10.942  12.457   0.849
40798SOL     OW24290   2.392   8.166  14.632
40798SOL    HW124291   2.424   8.246  14.672
40798SOL    HW224292   2.346   8.195  14.553
40799SOL     OW24293   1.750  13.674   9.256
40799SOL    HW124294   1.722  13.692   9.346
40799SOL    HW224295   1.772  13.760   9.219
40800SOL     OW24296   2.991  10.634   4.905
40800SOL    HW124297   2.965  10.578   4.832
40800SOL    HW224298   3.023  10.574   4.972
40801SOL     OW24299   8.484  14.147   0.218
40801SOL    HW124300   8.504  14.235   0.187
40801SOL    HW224301   8.527  14.143   0.304
40802SOL     OW24302   3.732  14.671  12.838
40802SOL    HW124303   3.826  14.650  12.842
40802SOL    HW224304   3.689  14.590  12.865
40803SOL     OW24305   6.479  13.863   6.269
40803SOL    HW124306   6.465  13.934   6.206
40803SOL    HW224307   6.395  13.817   6.272
40804SOL     OW24308  12.107   1.290   6.822
40804SOL    HW124309  12.027   1.237   6.826
40804SOL    HW224310  12.116   1.312   6.729
40805SOL     OW24311  14.603  13.863   4.394
40805SOL    HW124312  14.696  13.839   4.398
40805SOL    HW224313  14.602  13.947   4.348
40806SOL     OW24314  14.456   8.126  10.163
40806SOL    HW124315  14.393   8.057  10.185
40806SOL    HW224316  14.422   8.204  10.207
40807SOL     OW24317  10.681  10.720   7.637
40807SOL    HW124318  10.765  10.697   7.598
40807SOL    HW224319  10.695  10.712   7.732
40808SOL     OW24320  14.651   1.856   8.158
40808SOL    HW124321  14.585   1.904   8.208
40808SOL    HW224322  14.732   1.905   8.171
40809SOL     OW24323  11.468  14.463  10.524
40809SOL    HW124324  11.491  14.440  10.614
40809SOL    HW224325  11.538  14.522  10.496
40810SOL     OW24326  14.797   9.399   9.883
40810SOL    HW124327  14.852   9.441   9.817
40810SOL    HW224328  14.716   9.376   9.836
40811SOL     OW24329   3.757   7.225   1.170
40811SOL    HW124330   3.665   7.203   1.152
40811SOL    HW224331   3.807   7.163   1.116
40812SOL     OW24332   9.269   5.500  14.259
40812SOL    HW124333   9.339   5.479  14.198
40812SOL    HW224334   9.284   5.591  14.283
40813SOL     OW24335   4.146   6.790   1.271
40813SOL    HW124336   4.237   6.761   1.264
40813SOL    HW224337   4.111   6.743   1.347
40814SOL     OW24338  10.218   1.606  10.719
40814SOL    HW124339  10.244   1.532  10.664
40814SOL    HW224340  10.124   1.596  10.731
40815SOL     OW24341  13.311   6.228   8.998
40815SOL    HW124342  13.339   6.145   8.960
40815SOL    HW224343  13.392   6.279   9.005
40816SOL     OW24344  14.140   7.319  13.655
40816SOL    HW124345  14.194   7.374  13.713
40816SOL    HW224346  14.147   7.231  13.693
40817SOL     OW24347   9.039  13.744   2.167
40817SOL    HW124348   8.992  13.761   2.248
40817SOL    HW224349   8.975  13.760   2.098
40818SOL     OW24350  13.035  12.733   8.673
40818SOL    HW124351  13.018  12.645   8.639
40818SOL    HW224352  12.985  12.791   8.617
40819SOL     OW24353   8.677   0.338   7.038
40819SOL    HW124354   8.677   0.416   7.094
40819SOL    HW224355   8.739   0.359   6.968
40820SOL     OW24356  14.863  12.876   9.359
40820SOL    HW124357  14.832  12.955   9.313
40820SOL    HW224358  14.850  12.805   9.296
40821SOL     OW24359  14.754   7.804  12.450
40821SOL    HW124360  14.769   7.899  12.457
40821SOL    HW224361  14.727   7.791  12.359
40822SOL     OW24362   9.021   1.001   0.548
40822SOL    HW124363   8.998   1.081   0.596
40822SOL    HW224364   9.028   1.029   0.457
40823SOL     OW24365   4.270   3.974   5.774
40823SOL    HW124366   4.293   3.881   5.774
40823SOL    HW224367   4.342   4.017   5.729
40824SOL     OW24368   6.283   7.719  10.109
40824SOL    HW124369   6.258   7.675  10.191
40824SOL    HW224370   6.239   7.668  10.041
40825SOL     OW24371   3.578   4.824  10.367
40825SOL    HW124372   3.564   4.740  10.411
40825SOL    HW224373   3.662   4.813  10.322
40826SOL     OW24374   8.047  14.362   4.229
40826SOL    HW124375   7.986  14.404   4.291
40826SOL    HW224376   8.105  14.433   4.201
40827SOL     OW24377   7.171   2.243   6.094
40827SOL    HW124378   7.098   2.244   6.155
40827SOL    HW224379   7.227   2.316   6.123
40828SOL     OW24380   6.486   4.532   2.011
40828SOL    HW124381   6.558   4.520   2.073
40828SOL    HW224382   6.528   4.569   1.933
40829SOL     OW24383   0.099   8.382   3.124
40829SOL    HW124384   0.108   8.347   3.212
40829SOL    HW224385   0.015   8.349   3.093
40830SOL     OW24386   4.274  10.066  10.890
40830SOL    HW124387   4.270  10.001  10.961
40830SOL    HW224388   4.359  10.051  10.848
40831SOL     OW24389  14.445  10.684  13.450
40831SOL    HW124390  14.456  10.779  13.460
40831SOL    HW224391  14.428  10.653  13.538
40832SOL     OW24392   5.327   0.879   8.066
40832SOL    HW124393   5.234   0.860   8.078
40832SOL    HW224394   5.330   0.973   8.046
40833SOL     OW24395  10.707   7.017  10.586
40833SOL    HW124396  10.655   7.037  10.664
40833SOL    HW224397  10.750   6.934  10.606
40834SOL     OW24398   4.993   1.342   4.023
40834SOL    HW124399   4.960   1.353   3.934
40834SOL    HW224400   4.923   1.297   4.069
40835SOL     OW24401  14.572   0.203   2.965
40835SOL    HW124402  14.626   0.170   3.037
40835SOL    HW224403  14.555   0.126   2.910
40836SOL     OW24404   3.578   2.713   1.197
40836SOL    HW124405   3.544   2.802   1.196
40836SOL    HW224406   3.522   2.665   1.136
40837SOL     OW24407   9.092   5.888   0.174
40837SOL    HW124408   9.145   5.920   0.247
40837SOL    HW224409   9.153   5.840   0.119
40838SOL     OW24410  11.105  10.768  12.281
40838SOL    HW124411  11.097  10.675  12.304
40838SOL    HW224412  11.062  10.814  12.352
40839SOL     OW24413   0.670   0.283   2.264
40839SOL    HW124414   0.590   0.231   2.264
40839SOL    HW224415   0.698   0.283   2.172
40840SOL     OW24416   8.134   7.859  12.565
40840SOL    HW124417   8.091   7.773  12.567
40840SOL    HW224418   8.110   7.899  12.648
40841SOL     OW24419   7.529   7.611   6.384
40841SOL    HW124420   7.454   7.553   6.395
40841SOL    HW224421   7.529   7.634   6.291
40842SOL     OW24422   0.089   8.529   8.094
40842SOL    HW124423   0.063   8.513   8.003
40842SOL    HW224424   0.051   8.614   8.115
40843SOL     OW24425   3.466  11.048  13.795
40843SOL    HW124426   3.540  11.037  13.736
40843SOL    HW224427   3.506  11.061  13.881
40844SOL     OW24428   0.959  10.118   9.801
40844SOL    HW124429   0.966  10.023   9.815
40844SOL    HW224430   1.023  10.155   9.863
40845SOL     OW24431   6.990   1.551   7.008
40845SOL    HW124432   6.929   1.508   6.947
40845SOL    HW224433   7.070   1.500   7.002
40846SOL     OW24434   4.099   0.485   8.596
40846SOL    HW124435   4.151   0.564   8.608
40846SOL    HW224436   4.148   0.416   8.641
40847SOL     OW24437   3.254   3.033   1.498
40847SOL    HW124438   3.262   3.050   1.404
40847SOL    HW224439   3.198   3.103   1.530
40848SOL     OW24440   5.477  10.788   9.123
40848SOL    HW124441   5.467  10.729   9.048
40848SOL    HW224442   5.395  10.780   9.171
40849SOL     OW24443  11.247   9.212  12.534
40849SOL    HW124444  11.154   9.190  12.523
40849SOL    HW224445  11.281   9.216  12.445
40850SOL     OW24446   9.716   1.844   0.232
40850SOL    HW124447   9.778   1.868   0.164
40850SOL    HW224448   9.632   1.833   0.186
40851SOL     OW24449  11.039   6.274   2.753
40851SOL    HW124450  11.026   6.367   2.773
40851SOL    HW224451  11.025   6.267   2.659
40852SOL     OW24452  13.732   9.801  13.394
40852SOL    HW124453  13.763   9.718  13.358
40852SOL    HW224454  13.755   9.867  13.328
40853SOL     OW24455   1.809   3.294   9.239
40853SOL    HW124456   1.802   3.330   9.151
40853SOL    HW224457   1.796   3.200   9.227
40854SOL     OW24458   7.679  12.537  14.534
40854SOL    HW124459   7.703  12.448  14.558
40854SOL    HW224460   7.713  12.591  14.605
40855SOL     OW24461   2.302  10.267   5.767
40855SOL    HW124462   2.307  10.174   5.787
40855SOL    HW224463   2.268  10.308   5.846
40856SOL     OW24464   7.843  12.785   2.932
40856SOL    HW124465   7.775  12.841   2.968
40856SOL    HW224466   7.796  12.711   2.893
40857SOL     OW24467   4.048   6.543  12.047
40857SOL    HW124468   4.068   6.450  12.056
40857SOL    HW224469   4.045   6.576  12.137
40858SOL     OW24470   9.352   0.438   4.233
40858SOL    HW124471   9.276   0.462   4.180
40858SOL    HW224472   9.337   0.346   4.256
40859SOL     OW24473  10.676   8.148   3.728
40859SOL    HW124474  10.610   8.217   3.715
40859SOL    HW224475  10.682   8.139   3.823
40860SOL     OW24476   7.761   5.524   3.403
40860SOL    HW124477   7.773   5.596   3.465
40860SOL    HW224478   7.674   5.538   3.366
40861SOL     OW24479  14.294   8.269   5.333
40861SOL    HW124480  14.288   8.176   5.308
40861SOL    HW224481  14.387   8.288   5.333
40862SOL     OW24482  14.598   4.813  10.850
40862SOL    HW124483  14.588   4.905  10.829
40862SOL    HW224484  14.597   4.768  10.766
40863SOL     OW24485   2.038   0.501  11.273
40863SOL    HW124486   2.008   0.547  11.194
40863SOL    HW224487   2.085   0.425  11.239
40864SOL     OW24488   1.334  11.833   7.610
40864SOL    HW124489   1.385  11.766   7.655
40864SOL    HW224490   1.282  11.785   7.546
40865SOL     OW24491   7.877  10.384   2.378
40865SOL    HW124492   7.888  10.419   2.466
40865SOL    HW224493   7.782  10.371   2.370
40866SOL     OW24494  12.429   5.448  14.847
40866SOL    HW124495  12.454   5.356  14.860
40866SOL    HW224496  12.504   5.487  14.802
40867SOL     OW24497   3.251   6.370  12.772
40867SOL    HW124498   3.252   6.292  12.717
40867SOL    HW224499   3.253   6.336  12.862
40868SOL     OW24500   3.061   2.915  11.707
40868SOL    HW124501   2.991   2.951  11.653
40868SOL    HW224502   3.031   2.826  11.728
40869SOL     OW24503  13.511   0.773   0.777
40869SOL    HW124504  13.511   0.703   0.841
40869SOL    HW224505  13.534   0.852   0.827
40870SOL     OW24506   8.192   9.524   2.253
40870SOL    HW124507   8.244   9.585   2.305
40870SOL    HW224508   8.251   9.495   2.184
40871SOL     OW24509   9.701   7.156  13.613
40871SOL    HW124510   9.606   7.158  13.600
40871SOL    HW224511   9.715   7.089  13.680
40872SOL     OW24512   5.109   2.781  12.611
40872SOL    HW124513   5.015   2.801  12.610
40872SOL    HW224514   5.151   2.860  12.577
40873SOL     OW24515   1.119  13.836   2.297
40873SOL    HW124516   1.172  13.758   2.280
40873SOL    HW224517   1.130  13.852   2.390
40874SOL     OW24518   3.706   4.845  10.816
40874SOL    HW124519   3.672   4.858  10.904
40874SOL    HW224520   3.794   4.883  10.819
40875SOL     OW24521   4.554   7.619  13.326
40875SOL    HW124522   4.615   7.655  13.262
40875SOL    HW224523   4.487   7.575  13.274
40876SOL     OW24524   0.583  12.675  11.774
40876SOL    HW124525   0.674  12.696  11.755
40876SOL    HW224526   0.545  12.652  11.690
40877SOL     OW24527   1.731   0.690   4.818
40877SOL    HW124528   1.737   0.756   4.749
40877SOL    HW224529   1.811   0.639   4.809
40878SOL     OW24530  12.686  12.881   4.180
40878SOL    HW124531  12.679  12.787   4.162
40878SOL    HW224532  12.780  12.897   4.188
40879SOL     OW24533  12.909  12.377  11.807
40879SOL    HW124534  12.818  12.404  11.823
40879SOL    HW224535  12.936  12.335  11.889
40880SOL     OW24536   1.966   3.790   0.371
40880SOL    HW124537   1.974   3.794   0.275
40880SOL    HW224538   1.947   3.698   0.389
40881SOL     OW24539   8.309  12.139   5.288
40881SOL    HW124540   8.373  12.183   5.344
40881SOL    HW224541   8.226  12.180   5.311
40882SOL     OW24542   7.993  12.135   5.499
40882SOL    HW124543   8.034  12.148   5.584
40882SOL    HW224544   7.954  12.220   5.478
40883SOL     OW24545   6.781   0.713  12.790
40883SOL    HW124546   6.860   0.672  12.755
40883SOL    HW224547   6.726   0.727  12.713
40884SOL     OW24548   5.124  14.225  12.108
40884SOL    HW124549   5.150  14.207  12.018
40884SOL    HW224550   5.044  14.276  12.100
40885SOL     OW24551   9.539   7.836   1.446
40885SOL    HW124552   9.621   7.824   1.494
40885SOL    HW224553   9.479   7.873   1.510
40886SOL     OW24554   8.677  12.425   9.299
40886SOL    HW124555   8.670  12.513   9.336
40886SOL    HW224556   8.770  12.415   9.279
40887SOL     OW24557  12.051   7.253   3.091
40887SOL    HW124558  12.007   7.254   3.005
40887SOL    HW224559  12.111   7.327   3.088
40888SOL     OW24560   7.042   3.059  13.781
40888SOL    HW124561   7.051   3.065  13.876
40888SOL    HW224562   7.112   3.114  13.747
40889SOL     OW24563   0.888  11.658   1.555
40889SOL    HW124564   0.861  11.705   1.475
40889SOL    HW224565   0.961  11.711   1.589
40890SOL     OW24566   0.358   9.759   1.881
40890SOL    HW124567   0.420   9.814   1.833
40890SOL    HW224568   0.346   9.682   1.825
40891SOL     OW24569   3.039   4.601   2.977
40891SOL    HW124570   3.087   4.531   3.021
40891SOL    HW224571   3.085   4.681   3.001
40892SOL     OW24572  12.555  11.999   9.338
40892SOL    HW124573  12.638  12.016   9.295
40892SOL    HW224574  12.490  12.004   9.268
40893SOL     OW24575   8.718   4.323   9.402
40893SOL    HW124576   8.665   4.325   9.323
40893SOL    HW224577   8.731   4.416   9.425
40894SOL     OW24578   9.214  11.562  11.564
40894SOL    HW124579   9.218  11.503  11.639
40894SOL    HW224580   9.255  11.512  11.493
40895SOL     OW24581   2.937   6.651   0.080
40895SOL    HW124582   2.949   6.702   0.160
40895SOL    HW224583   2.984   6.700   0.013
40896SOL     OW24584  11.556  13.831   4.019
40896SOL    HW124585  11.562  13.835   4.114
40896SOL    HW224586  11.623  13.892   3.988
40897SOL     OW24587   5.021   6.684  10.504
40897SOL    HW124588   5.020   6.589  10.514
40897SOL    HW224589   4.929   6.709  10.498
40898SOL     OW24590   5.525   6.276   7.548
40898SOL    HW124591   5.524   6.342   7.479
40898SOL    HW224592   5.482   6.318   7.622
40899SOL     OW24593   5.136  12.125  11.830
40899SOL    HW124594   5.216  12.095  11.873
40899SOL    HW224595   5.109  12.050  11.776
40900SOL     OW24596   3.532   2.916  14.130
40900SOL    HW124597   3.497   2.828  14.121
40900SOL    HW224598   3.513   2.941  14.220
40901SOL     OW24599  14.146   0.415   7.591
40901SOL    HW124600  14.083   0.466   7.539
40901SOL    HW224601  14.095   0.342   7.626
40902SOL     OW24602   3.224   0.880  11.746
40902SOL    HW124603   3.151   0.820  11.734
40902SOL    HW224604   3.302   0.824  11.744
40903SOL     OW24605   5.151  11.865   7.691
40903SOL    HW124606   5.079  11.924   7.712
40903SOL    HW224607   5.214  11.919   7.643
40904SOL     OW24608  10.837   3.247  12.969
40904SOL    HW124609  10.742   3.241  12.964
40904SOL    HW224610  10.854   3.334  13.003
40905SOL     OW24611  10.066   4.577   3.560
40905SOL    HW124612  10.073   4.516   3.633
40905SOL    HW224613  10.157   4.594   3.535
40906SOL     OW24614   7.014   5.848   0.505
40906SOL    HW124615   7.080   5.907   0.470
40906SOL    HW224616   7.021   5.858   0.600
40907SOL     OW24617   2.969   4.608  14.722
40907SOL    HW124618   3.046   4.588  14.670
40907SOL    HW224619   2.901   4.630  14.657
40908SOL     OW24620   5.804  11.615  11.013
40908SOL    HW124621   5.867  11.607  11.085
40908SOL    HW224622   5.776  11.525  10.996
40909SOL     OW24623   4.382  11.637  11.781
40909SOL    HW124624   4.446  11.698  11.745
40909SOL    HW224625   4.357  11.581  11.707
40910SOL     OW24626   5.116   5.334  11.861
40910SOL    HW124627   5.155   5.302  11.942
40910SOL    HW224628   5.186   5.325  11.796
40911SOL     OW24629  11.633   2.279   0.542
40911SOL    HW124630  11.716   2.321   0.521
40911SOL    HW224631  11.567   2.330   0.495
40912SOL     OW24632   9.137   0.851   7.044
40912SOL    HW124633   9.182   0.929   7.076
40912SOL    HW224634   9.080   0.883   6.975
40913SOL     OW24635   0.144   5.006  14.353
40913SOL    HW124636   0.093   4.984  14.275
40913SOL    HW224637   0.148   5.102  14.353
40914SOL     OW24638   9.204   2.353   4.001
40914SOL    HW124639   9.180   2.425   4.060
40914SOL    HW224640   9.168   2.275   4.042
40915SOL     OW24641  14.806   5.099   1.876
40915SOL    HW124642  14.721   5.061   1.899
40915SOL    HW224643  14.790   5.192   1.867
40916SOL     OW24644   5.458  12.987   1.712
40916SOL    HW124645   5.419  13.074   1.719
40916SOL    HW224646   5.519  12.982   1.786
40917SOL     OW24647   2.676   3.852   0.691
40917SOL    HW124648   2.738   3.795   0.736
40917SOL    HW224649   2.601   3.794   0.672
40918SOL     OW24650   8.586   5.993  13.322
40918SOL    HW124651   8.677   5.992  13.294
40918SOL    HW224652   8.536   6.014  13.244
40919SOL     OW24653  12.276  13.994  11.476
40919SOL    HW124654  12.351  14.003  11.534
40919SOL    HW224655  12.302  14.041  11.396
40920SOL     OW24656   3.597   1.009   5.061
40920SOL    HW124657   3.615   1.099   5.033
40920SOL    HW224658   3.534   0.977   4.996
40921SOL     OW24659  14.046  12.895  10.338
40921SOL    HW124660  13.964  12.943  10.350
40921SOL    HW224661  14.072  12.869  10.426
40922SOL     OW24662  14.376  13.500   7.905
40922SOL    HW124663  14.418  13.487   7.990
40922SOL    HW224664  14.420  13.439   7.847
40923SOL     OW24665   9.372   7.839  12.844
40923SOL    HW124666   9.401   7.797  12.764
40923SOL    HW224667   9.442   7.901  12.866
40924SOL     OW24668   0.062  11.705   0.838
40924SOL    HW124669   0.087  11.613   0.828
40924SOL    HW224670   0.073  11.722   0.932
40925SOL     OW24671   7.878   9.208   5.087
40925SOL    HW124672   7.945   9.139   5.087
40925SOL    HW224673   7.813   9.179   5.150
40926SOL     OW24674  13.255   8.687  11.740
40926SOL    HW124675  13.163   8.716  11.738
40926SOL    HW224676  13.300   8.756  11.790
40927SOL     OW24677   2.787   1.526  10.602
40927SOL    HW124678   2.841   1.573  10.666
40927SOL    HW224679   2.699   1.528  10.639
40928SOL     OW24680  13.645   6.222  11.807
40928SOL    HW124681  13.683   6.220  11.719
40928SOL    HW224682  13.625   6.315  11.821
40929SOL     OW24683  13.212   3.133   9.487
40929SOL    HW124684  13.183   3.200   9.549
40929SOL    HW224685  13.243   3.062   9.543
40930SOL     OW24686   1.422   2.974  13.639
40930SOL    HW124687   1.501   2.985  13.693
40930SOL    HW224688   1.428   2.884  13.607
40931SOL     OW24689   0.187   9.251   0.199
40931SOL    HW124690   0.188   9.280   0.108
40931SOL    HW224691   0.260   9.190   0.206
40932SOL     OW24692   5.112   5.442   6.418
40932SOL    HW124693   5.142   5.491   6.495
40932SOL    HW224694   5.022   5.471   6.405
40933SOL     OW24695   5.630   4.114  12.937
40933SOL    HW124696   5.562   4.053  12.910
40933SOL    HW224697   5.611   4.195  12.889
40934SOL     OW24698  14.751   5.769   8.601
40934SOL    HW124699  14.696   5.758   8.679
40934SOL    HW224700  14.690   5.763   8.528
40935SOL     OW24701   3.487  12.909   0.151
40935SOL    HW124702   3.482  12.901   0.247
40935SOL    HW224703   3.579  12.926   0.133
40936SOL     OW24704  14.723   1.712   9.322
40936SOL    HW124705  14.759   1.793   9.358
40936SOL    HW224706  14.747   1.714   9.229
40937SOL     OW24707   6.962   5.667  13.974
40937SOL    HW124708   6.975   5.580  13.936
40937SOL    HW224709   6.910   5.651  14.053
40938SOL     OW24710  10.335   3.844   5.900
40938SOL    HW124711  10.417   3.853   5.949
40938SOL    HW224712  10.337   3.755   5.866
40939SOL     OW24713   2.245  11.913   4.377
40939SOL    HW124714   2.276  11.829   4.412
40939SOL    HW224715   2.171  11.936   4.433
40940SOL     OW24716   1.960  14.481  10.040
40940SOL    HW124717   1.927  14.571  10.039
40940SOL    HW224718   2.054  14.492  10.055
40941SOL     OW24719  13.585   2.505   6.939
40941SOL    HW124720  13.535   2.487   7.019
40941SOL    HW224721  13.617   2.595   6.951
40942SOL     OW24722  13.493   1.627   5.106
40942SOL    HW124723  13.567   1.657   5.160
40942SOL    HW224724  13.512   1.535   5.088
40943SOL     OW24725   6.708  12.293   7.950
40943SOL    HW124726   6.649  12.356   7.991
40943SOL    HW224727   6.767  12.266   8.021
40944SOL     OW24728   3.975  10.952   2.975
40944SOL    HW124729   3.946  10.863   2.995
40944SOL    HW224730   3.940  10.969   2.887
40945SOL     OW24731  12.802  14.801   1.339
40945SOL    HW124732  12.776  14.838   1.423
40945SOL    HW224733  12.755  14.718   1.333
40946SOL     OW24734   8.297   8.972   2.778
40946SOL    HW124735   8.359   9.005   2.842
40946SOL    HW224736   8.338   8.989   2.693
40947SOL     OW24737  12.640   5.547   0.741
40947SOL    HW124738  12.679   5.526   0.657
40947SOL    HW224739  12.590   5.469   0.765
40948SOL     OW24740   5.014   6.651   5.873
40948SOL    HW124741   4.960   6.730   5.867
40948SOL    HW224742   5.096   6.673   5.830
40949SOL     OW24743   1.980   6.677   8.397
40949SOL    HW124744   1.983   6.709   8.308
40949SOL    HW224745   1.887   6.673   8.419
40950SOL     OW24746   2.719  10.587   2.009
40950SOL    HW124747   2.636  10.604   1.965
40950SOL    HW224748   2.705  10.616   2.100
40951SOL     OW24749   6.960   1.025  13.072
40951SOL    HW124750   7.012   0.961  13.023
40951SOL    HW224751   6.882   0.977  13.100
40952SOL     OW24752  14.292   9.616   0.002
40952SOL    HW124753  14.295   9.614   0.098
40952SOL    HW224754  14.256   9.702  14.850
40953SOL     OW24755   6.442   9.831   0.079
40953SOL    HW124756   6.452   9.768   0.008
40953SOL    HW224757   6.504   9.802   0.146
40954SOL     OW24758   7.255  12.194   6.886
40954SOL    HW124759   7.234  12.172   6.795
40954SOL    HW224760   7.179  12.164   6.936
40955SOL     OW24761   1.178  11.418   6.188
40955SOL    HW124762   1.218  11.385   6.107
40955SOL    HW224763   1.158  11.339   6.238
40956SOL     OW24764  11.359   9.006  11.800
40956SOL    HW124765  11.343   9.011  11.706
40956SOL    HW224766  11.349   9.096  11.831
40957SOL     OW24767   5.210   3.370   8.526
40957SOL    HW124768   5.157   3.429   8.473
40957SOL    HW224769   5.155   3.349   8.601
40958SOL     OW24770   5.122   6.057   2.112
40958SOL    HW124771   5.135   5.974   2.158
40958SOL    HW224772   5.119   6.032   2.019
40959SOL     OW24773   7.479  11.659  14.170
40959SOL    HW124774   7.473  11.638  14.077
40959SOL    HW224775   7.446  11.748  14.177
40960SOL     OW24776  14.221   5.395   7.701
40960SOL    HW124777  14.286   5.386   7.632
40960SOL    HW224778  14.173   5.475   7.680
40961SOL     OW24779  11.529   0.029   9.873
40961SOL    HW124780  11.518  14.804   9.862
40961SOL    HW224781  11.488   0.049   9.957
40962SOL     OW24782  10.667   6.483   5.601
40962SOL    HW124783  10.595   6.448   5.548
40962SOL    HW224784  10.625   6.547   5.659
40963SOL     OW24785   0.300   3.124  10.332
40963SOL    HW124786   0.264   3.195  10.385
40963SOL    HW224787   0.271   3.044  10.376
40964SOL     OW24788   7.805   6.796   2.256
40964SOL    HW124789   7.786   6.826   2.167
40964SOL    HW224790   7.721   6.800   2.301
40965SOL     OW24791   5.975   6.172   7.601
40965SOL    HW124792   5.948   6.262   7.584
40965SOL    HW224793   5.983   6.132   7.514
40966SOL     OW24794  14.759   0.115  13.365
40966SOL    HW124795  14.697   0.058  13.320
40966SOL    HW224796  14.771   0.189  13.305
40967SOL     OW24797   3.229   0.115  10.712
40967SOL    HW124798   3.290   0.053  10.751
40967SOL    HW224799   3.243   0.197  10.760
40968SOL     OW24800  11.965  11.328   0.182
40968SOL    HW124801  11.934  11.286   0.263
40968SOL    HW224802  12.025  11.396   0.213
40969SOL     OW24803  12.760  12.443   3.980
40969SOL    HW124804  12.763  12.511   4.048
40969SOL    HW224805  12.688  12.386   4.008
40970SOL     OW24806  12.535   5.048  14.003
40970SOL    HW124807  12.540   5.141  13.981
40970SOL    HW224808  12.454   5.038  14.051
40971SOL     OW24809  10.344   4.293  11.086
40971SOL    HW124810  10.398   4.238  11.029
40971SOL    HW224811  10.366   4.263  11.175
40972SOL     OW24812   6.284  14.182   5.411
40972SOL    HW124813   6.284  14.194   5.506
40972SOL    HW224814   6.361  14.230   5.381
40973SOL     OW24815   4.638   0.518  13.589
40973SOL    HW124816   4.633   0.534  13.495
40973SOL    HW224817   4.557   0.472  13.610
40974SOL     OW24818  10.349   9.966  12.606
40974SOL    HW124819  10.263   9.998  12.634
40974SOL    HW224820  10.379   9.912  12.679
40975SOL     OW24821   2.092   5.043   7.306
40975SOL    HW124822   2.004   5.057   7.340
40975SOL    HW224823   2.091   5.084   7.219
40976SOL     OW24824   9.700   9.196   2.787
40976SOL    HW124825   9.737   9.143   2.716
40976SOL    HW224826   9.742   9.164   2.866
40977SOL     OW24827   2.834   1.708   4.709
40977SOL    HW124828   2.875   1.785   4.669
40977SOL    HW224829   2.740   1.721   4.696
40978SOL     OW24830   0.216  14.067   2.905
40978SOL    HW124831   0.212  14.053   2.811
40978SOL    HW224832   0.300  14.029   2.932
40979SOL     OW24833  10.736   7.002  11.215
40979SOL    HW124834  10.829   6.977  11.216
40979SOL    HW224835  10.732   7.076  11.154
40980SOL     OW24836   5.201  12.277   4.727
40980SOL    HW124837   5.112  12.244   4.738
40980SOL    HW224838   5.218  12.273   4.633
40981SOL     OW24839   0.319   5.789  13.372
40981SOL    HW124840   0.240   5.842  13.382
40981SOL    HW224841   0.380   5.845  13.325
40982SOL     OW24842   7.429   4.821  14.572
40982SOL    HW124843   7.428   4.813  14.668
40982SOL    HW224844   7.509   4.872  14.554
40983SOL     OW24845   5.309   0.167   9.644
40983SOL    HW124846   5.293   0.224   9.568
40983SOL    HW224847   5.404   0.163   9.650
40984SOL     OW24848  14.391   9.544  13.740
40984SOL    HW124849  14.323   9.530  13.806
40984SOL    HW224850  14.448   9.468  13.749
40985SOL     OW24851   0.578   0.333   5.071
40985SOL    HW124852   0.641   0.334   5.142
40985SOL    HW224853   0.525   0.255   5.087
40986SOL     OW24854   5.872  13.932   4.998
40986SOL    HW124855   5.817  13.856   5.016
40986SOL    HW224856   5.809  14.003   4.984
40987SOL     OW24857  10.098  10.640  12.700
40987SOL    HW124858  10.150  10.593  12.765
40987SOL    HW224859  10.161  10.669  12.634
40988SOL     OW24860   5.012  14.414   8.436
40988SOL    HW124861   4.985  14.505   8.448
40988SOL    HW224862   4.937  14.362   8.465
40989SOL     OW24863  11.982   0.673   3.631
40989SOL    HW124864  12.014   0.642   3.715
40989SOL    HW224865  11.961   0.594   3.582
40990SOL     OW24866   0.633   6.570   9.912
40990SOL    HW124867   0.676   6.509   9.972
40990SOL    HW224868   0.685   6.650   9.917
40991SOL     OW24869   6.157   8.788   6.935
40991SOL    HW124870   6.153   8.863   6.876
40991SOL    HW224871   6.082   8.735   6.911
40992SOL     OW24872   7.450  13.563  12.669
40992SOL    HW124873   7.400  13.497  12.718
40992SOL    HW224874   7.400  13.644  12.679
40993SOL     OW24875  12.886  10.483   2.181
40993SOL    HW124876  12.803  10.444   2.210
40993SOL    HW224877  12.929  10.510   2.262
40994SOL     OW24878   4.410   1.383   0.046
40994SOL    HW124879   4.449   1.422  14.838
40994SOL    HW224880   4.402   1.455   0.109
40995SOL     OW24881  12.195   5.507   2.873
40995SOL    HW124882  12.276   5.456   2.870
40995SOL    HW224883  12.168   5.503   2.965
40996SOL     OW24884  13.774   0.042   4.750
40996SOL    HW124885  13.792  14.832   4.800
40996SOL    HW224886  13.801   0.020   4.661
40997SOL     OW24887   1.972   1.137   2.557
40997SOL    HW124888   1.914   1.135   2.633
40997SOL    HW224889   2.020   1.054   2.561
40998SOL     OW24890   8.385   2.262  12.934
40998SOL    HW124891   8.385   2.279  13.029
40998SOL    HW224892   8.292   2.262  12.910
40999SOL     OW24893   1.490   1.350  10.156
40999SOL    HW124894   1.571   1.300  10.157
40999SOL    HW224895   1.510   1.428  10.104
41000SOL     OW24896   2.464   2.182  14.389
41000SOL    HW124897   2.491   2.236  14.463
41000SOL    HW224898   2.369   2.191  14.387
41001SOL     OW24899   0.947   1.173   4.194
41001SOL    HW124900   0.981   1.096   4.241
41001SOL    HW224901   0.971   1.157   4.102
41002SOL     OW24902  10.078   0.533   4.480
41002SOL    HW124903  10.039   0.517   4.566
41002SOL    HW224904  10.008   0.576   4.431
41003SOL     OW24905   4.141  13.641   9.685
41003SOL    HW124906   4.054  13.642   9.726
41003SOL    HW224907   4.136  13.710   9.618
41004SOL     OW24908  11.776  11.275  13.947
41004SOL    HW124909  11.824  11.342  13.899
41004SOL    HW224910  11.711  11.243  13.884
41005SOL     OW24911   5.899   1.104   3.199
41005SOL    HW124912   5.835   1.033   3.192
41005SOL    HW224913   5.938   1.092   3.286
41006SOL     OW24914   9.966  13.347   6.111
41006SOL    HW124915   9.990  13.282   6.045
41006SOL    HW224916   9.966  13.299   6.194
41007SOL     OW24917   1.587   0.909  14.266
41007SOL    HW124918   1.539   0.991  14.271
41007SOL    HW224919   1.535   0.848  14.318
41008SOL     OW24920   6.275   0.352   3.658
41008SOL    HW124921   6.286   0.404   3.738
41008SOL    HW224922   6.228   0.411   3.598
41009SOL     OW24923   9.676  12.939   1.440
41009SOL    HW124924   9.689  12.983   1.524
41009SOL    HW224925   9.587  12.905   1.445
41010SOL     OW24926  12.857  14.329   4.499
41010SOL    HW124927  12.863  14.412   4.450
41010SOL    HW224928  12.793  14.346   4.568
41011SOL     OW24929   9.145   5.820  13.767
41011SOL    HW124930   9.231   5.792  13.734
41011SOL    HW224931   9.085   5.803  13.694
41012SOL     OW24932  13.875   9.220   6.140
41012SOL    HW124933  13.834   9.271   6.070
41012SOL    HW224934  13.868   9.129   6.111
41013SOL     OW24935   3.190  10.697  10.838
41013SOL    HW124936   3.177  10.790  10.857
41013SOL    HW224937   3.284  10.689  10.821
41014SOL     OW24938   8.869  14.415   6.699
41014SOL    HW124939   8.786  14.376   6.669
41014SOL    HW224940   8.845  14.504   6.726
41015SOL     OW24941   7.800   7.638   0.180
41015SOL    HW124942   7.797   7.705   0.111
41015SOL    HW224943   7.819   7.687   0.260
41016SOL     OW24944  13.325   2.878  12.584
41016SOL    HW124945  13.251   2.844  12.635
41016SOL    HW224946  13.393   2.811  12.594
41017SOL     OW24947   2.399   9.396  13.639
41017SOL    HW124948   2.390   9.477  13.587
41017SOL    HW224949   2.459   9.420  13.710
41018SOL     OW24950  14.416  11.108  10.341
41018SOL    HW124951  14.371  11.184  10.305
41018SOL    HW224952  14.493  11.096  10.285
41019SOL     OW24953  10.133  12.232   2.380
41019SOL    HW124954  10.149  12.226   2.474
41019SOL    HW224955  10.054  12.284   2.371
41020SOL     OW24956  12.249  13.504   6.101
41020SOL    HW124957  12.258  13.442   6.173
41020SOL    HW224958  12.255  13.590   6.143
41021SOL     OW24959   7.649   4.557   4.521
41021SOL    HW124960   7.618   4.648   4.523
41021SOL    HW224961   7.683   4.540   4.609
41022SOL     OW24962  12.322   2.863  10.016
41022SOL    HW124963  12.382   2.818  10.076
41022SOL    HW224964  12.267   2.917  10.072
41023SOL     OW24965  10.438   0.411  12.682
41023SOL    HW124966  10.388   0.406  12.764
41023SOL    HW224967  10.514   0.356  12.697
41024SOL     OW24968   2.473   5.247   1.071
41024SOL    HW124969   2.413   5.314   1.037
41024SOL    HW224970   2.507   5.202   0.994
41025SOL     OW24971  11.135   9.585   9.793
41025SOL    HW124972  11.230   9.594   9.803
41025SOL    HW224973  11.117   9.619   9.706
41026SOL     OW24974   0.381  14.098  10.183
41026SOL    HW124975   0.292  14.074  10.158
41026SOL    HW224976   0.379  14.104  10.278
41027SOL     OW24977   1.244   7.843   8.724
41027SOL    HW124978   1.300   7.855   8.801
41027SOL    HW224979   1.160   7.882   8.748
41028SOL     OW24980  13.194  12.282   6.063
41028SOL    HW124981  13.139  12.271   5.986
41028SOL    HW224982  13.278  12.243   6.039
41029SOL     OW24983   2.629   4.569   3.486
41029SOL    HW124984   2.573   4.580   3.409
41029SOL    HW224985   2.715   4.599   3.457
41030SOL     OW24986   0.265   4.936   8.889
41030SOL    HW124987   0.351   4.931   8.931
41030SOL    HW224988   0.229   5.019   8.920
41031SOL     OW24989  14.563   5.804   6.614
41031SOL    HW124990  14.608   5.859   6.678
41031SOL    HW224991  14.585   5.714   6.639
41032SOL     OW24992   5.233   6.552  13.003
41032SOL    HW124993   5.296   6.541  12.932
41032SOL    HW224994   5.287   6.571  13.080
41033SOL     OW24995   8.049   6.617  10.567
41033SOL    HW124996   8.049   6.651  10.478
41033SOL    HW224997   8.061   6.695  10.623
41034SOL     OW24998   5.094  12.563   6.329
41034SOL    HW124999   5.101  12.645   6.280
41034SOL    HW225000   5.006  12.531   6.311
41035SOL     OW25001   4.143  11.184  14.119
41035SOL    HW125002   4.126  11.212  14.030
41035SOL    HW225003   4.199  11.252  14.156
41036SOL     OW25004  12.455   7.763   7.967
41036SOL    HW125005  12.547   7.786   7.978
41036SOL    HW225006  12.423   7.824   7.900
41037SOL     OW25007   8.847   8.177   5.738
41037SOL    HW125008   8.921   8.117   5.752
41037SOL    HW225009   8.867   8.221   5.655
41038SOL     OW25010  14.556   0.516   0.565
41038SOL    HW125011  14.528   0.535   0.655
41038SOL    HW225012  14.651   0.505   0.572
41039SOL     OW25013   9.876   8.791   1.433
41039SOL    HW125014   9.796   8.738   1.435
41039SOL    HW225015   9.939   8.738   1.384
41040SOL     OW25016   5.351  12.052  10.147
41040SOL    HW125017   5.295  12.123  10.179
41040SOL    HW225018   5.290  11.980  10.127
41041SOL     OW25019   2.630  12.244   7.106
41041SOL    HW125020   2.669  12.199   7.032
41041SOL    HW225021   2.698  12.304   7.137
41042SOL     OW25022   7.135  10.197   1.134
41042SOL    HW125023   7.181  10.280   1.147
41042SOL    HW225024   7.156  10.146   1.212
41043SOL     OW25025   7.698  12.761   9.222
41043SOL    HW125026   7.668  12.730   9.308
41043SOL    HW225027   7.700  12.682   9.168
41044SOL     OW25028   5.157   0.135  10.859
41044SOL    HW125029   5.231   0.075  10.852
41044SOL    HW225030   5.105   0.101  10.932
41045SOL     OW25031   9.435  13.092   4.685
41045SOL    HW125032   9.431  13.152   4.611
41045SOL    HW225033   9.488  13.019   4.654
41046SOL     OW25034  10.215   3.085   2.278
41046SOL    HW125035  10.190   3.173   2.249
41046SOL    HW225036  10.188   3.027   2.207
41047SOL     OW25037   7.730   6.013   0.561
41047SOL    HW125038   7.767   6.065   0.631
41047SOL    HW225039   7.744   6.064   0.481
41048SOL     OW25040   9.634   7.994   7.410
41048SOL    HW125041   9.654   8.078   7.369
41048SOL    HW225042   9.583   8.017   7.488
41049SOL     OW25043   0.490  10.313   6.993
41049SOL    HW125044   0.494  10.224   7.026
41049SOL    HW225045   0.432  10.359   7.054
41050SOL     OW25046  12.789   7.976   9.093
41050SOL    HW125047  12.838   7.896   9.114
41050SOL    HW225048  12.789   8.026   9.174
41051SOL     OW25049  10.778  14.389   2.875
41051SOL    HW125050  10.702  14.401   2.819
41051SOL    HW225051  10.834  14.327   2.828
41052SOL     OW25052   4.961   7.730   1.047
41052SOL    HW125053   4.898   7.699   0.982
41052SOL    HW225054   4.948   7.672   1.122
41053SOL     OW25055  12.900   6.979  13.995
41053SOL    HW125056  12.809   6.953  13.976
41053SOL    HW225057  12.948   6.957  13.915
41054SOL     OW25058   4.355   5.023   4.879
41054SOL    HW125059   4.318   4.977   4.954
41054SOL    HW225060   4.343   4.963   4.805
41055SOL     OW25061   6.894   4.153  13.514
41055SOL    HW125062   6.898   4.221  13.446
41055SOL    HW225063   6.817   4.100  13.490
41056SOL     OW25064  13.145   7.383  14.144
41056SOL    HW125065  13.078   7.343  14.088
41056SOL    HW225066  13.227   7.344  14.115
41057SOL     OW25067   4.436   5.630   9.166
41057SOL    HW125068   4.388   5.553   9.137
41057SOL    HW225069   4.375   5.703   9.152
41058SOL     OW25070   5.107   7.967  13.762
41058SOL    HW125071   5.130   7.974  13.669
41058SOL    HW225072   5.066   7.881  13.770
41059SOL     OW25073   9.208   9.302  13.863
41059SOL    HW125074   9.142   9.265  13.804
41059SOL    HW225075   9.248   9.373  13.813
41060SOL     OW25076  10.873   5.396   6.856
41060SOL    HW125077  10.943   5.364   6.800
41060SOL    HW225078  10.870   5.490   6.840
41061SOL     OW25079  13.312  14.682   3.290
41061SOL    HW125080  13.290  14.590   3.302
41061SOL    HW225081  13.398  14.692   3.331
41062SOL     OW25082  10.034   7.138   6.648
41062SOL    HW125083   9.941   7.156   6.636
41062SOL    HW225084  10.044   7.044   6.630
41063SOL     OW25085   7.919  10.939  12.865
41063SOL    HW125086   8.013  10.919  12.859
41063SOL    HW225087   7.876  10.854  12.859
41064SOL     OW25088  10.473   5.301   3.033
41064SOL    HW125089  10.446   5.337   2.949
41064SOL    HW225090  10.501   5.377   3.084
41065SOL     OW25091   8.792   2.460   5.548
41065SOL    HW125092   8.787   2.377   5.501
41065SOL    HW225093   8.866   2.449   5.608
41066SOL     OW25094   8.443   1.990  13.149
41066SOL    HW125095   8.518   1.965  13.094
41066SOL    HW225096   8.482   2.011  13.234
41067SOL     OW25097   8.260   1.301  11.170
41067SOL    HW125098   8.290   1.260  11.089
41067SOL    HW225099   8.327   1.366  11.190
41068SOL     OW25100   5.649  12.636   0.734
41068SOL    HW125101   5.609  12.639   0.647
41068SOL    HW225102   5.631  12.548   0.766
41069SOL     OW25103   7.413   3.383  13.511
41069SOL    HW125104   7.478   3.314  13.519
41069SOL    HW225105   7.449   3.444  13.447
41070SOL     OW25106   4.736   7.433  10.010
41070SOL    HW125107   4.654   7.481  10.004
41070SOL    HW225108   4.712   7.351  10.053
41071SOL     OW25109  11.325  10.287   4.922
41071SOL    HW125110  11.336  10.192   4.926
41071SOL    HW225111  11.265  10.307   4.994
41072SOL     OW25112  11.919   9.945   2.072
41072SOL    HW125113  11.942   9.853   2.084
41072SOL    HW225114  11.850   9.944   2.005
41073SOL     OW25115   4.727   4.227   7.922
41073SOL    HW125116   4.666   4.156   7.942
41073SOL    HW225117   4.808   4.183   7.896
41074SOL     OW25118   3.505  10.108   9.264
41074SOL    HW125119   3.532  10.198   9.246
41074SOL    HW225120   3.533  10.092   9.354
41075SOL     OW25121   6.458   3.118   0.503
41075SOL    HW125122   6.472   3.027   0.475
41075SOL    HW225123   6.363   3.128   0.507
41076SOL     OW25124  12.947   4.679   8.853
41076SOL    HW125125  12.997   4.719   8.923
41076SOL    HW225126  12.855   4.695   8.876
41077SOL     OW25127  14.851   6.904   2.046
41077SOL    HW125128  14.763   6.886   2.014
41077SOL    HW225129   0.010   6.822   2.085
41078SOL     OW25130   6.191   1.085  10.558
41078SOL    HW125131   6.145   1.121  10.633
41078SOL    HW225132   6.224   1.000  10.589
41079SOL     OW25133   2.460   2.895  14.811
41079SOL    HW125134   2.392   2.938  14.759
41079SOL    HW225135   2.459   2.804  14.782
41080SOL     OW25136   9.686   4.633  10.342
41080SOL    HW125137   9.781   4.632  10.355
41080SOL    HW225138   9.663   4.540  10.334
41081SOL     OW25139   7.253   5.507   4.396
41081SOL    HW125140   7.217   5.582   4.348
41081SOL    HW225141   7.276   5.444   4.327
41082SOL     OW25142  12.599   1.481   9.309
41082SOL    HW125143  12.621   1.515   9.396
41082SOL    HW225144  12.514   1.519   9.289
41083SOL     OW25145   6.534  12.482   0.521
41083SOL    HW125146   6.504  12.403   0.567
41083SOL    HW225147   6.611  12.510   0.570
41084SOL     OW25148   2.832   3.721   5.626
41084SOL    HW125149   2.844   3.816   5.627
41084SOL    HW225150   2.918   3.685   5.649
41085SOL     OW25151   5.527  12.390  13.849
41085SOL    HW125152   5.441  12.406  13.809
41085SOL    HW225153   5.511  12.395  13.943
41086SOL     OW25154   6.567   6.176   9.732
41086SOL    HW125155   6.549   6.158   9.824
41086SOL    HW225156   6.527   6.103   9.685
41087SOL     OW25157   5.167   3.981   2.296
41087SOL    HW125158   5.173   3.886   2.289
41087SOL    HW225159   5.239   4.006   2.353
41088SOL     OW25160   1.464   5.143   0.647
41088SOL    HW125161   1.495   5.072   0.590
41088SOL    HW225162   1.412   5.098   0.714
41089SOL     OW25163  10.428  10.089  13.021
41089SOL    HW125164  10.373  10.167  13.015
41089SOL    HW225165  10.513  10.121  13.049
41090SOL     OW25166   6.612  10.096   5.415
41090SOL    HW125167   6.678  10.156   5.451
41090SOL    HW225168   6.533  10.149   5.407
41091SOL     OW25169  11.991   9.989   9.528
41091SOL    HW125170  12.080  10.004   9.560
41091SOL    HW225171  12.001   9.983   9.433
41092SOL     OW25172  12.512  11.176   3.306
41092SOL    HW125173  12.454  11.148   3.236
41092SOL    HW225174  12.457  11.180   3.384
41093SOL     OW25175  14.254  11.314   8.712
41093SOL    HW125176  14.345  11.286   8.724
41093SOL    HW225177  14.250  11.345   8.622
41094SOL     OW25178   6.933  10.429   8.254
41094SOL    HW125179   7.015  10.449   8.208
41094SOL    HW225180   6.943  10.471   8.340
41095SOL     OW25181   0.017   0.084   7.213
41095SOL    HW125182   0.033   0.064   7.121
41095SOL    HW225183  14.804   0.133   7.213
41096SOL     OW25184   3.998   2.674  11.456
41096SOL    HW125185   4.049   2.718  11.523
41096SOL    HW225186   3.911   2.662  11.495
41097SOL     OW25187  13.900   2.387  11.814
41097SOL    HW125188  13.962   2.318  11.834
41097SOL    HW225189  13.938   2.466  11.855
41098SOL     OW25190   7.593   6.493   1.750
41098SOL    HW125191   7.674   6.508   1.799
41098SOL    HW225192   7.622   6.462   1.664
41099SOL     OW25193   3.545   6.291   2.061
41099SOL    HW125194   3.550   6.355   2.132
41099SOL    HW225195   3.464   6.313   2.015
41100SOL     OW25196  12.610   3.860   0.911
41100SOL    HW125197  12.638   3.942   0.954
41100SOL    HW225198  12.544   3.888   0.848
41101SOL     OW25199   8.254  14.078  10.346
41101SOL    HW125200   8.275  14.139  10.416
41101SOL    HW225201   8.233  14.134  10.271
41102SOL     OW25202  13.606   0.317   7.175
41102SOL    HW125203  13.556   0.397   7.195
41102SOL    HW225204  13.596   0.307   7.080
41103SOL     OW25205   7.025   3.487  11.157
41103SOL    HW125206   6.962   3.469  11.086
41103SOL    HW225207   7.109   3.494  11.112
41104SOL     OW25208   2.906   8.320   8.167
41104SOL    HW125209   2.820   8.299   8.204
41104SOL    HW225210   2.968   8.295   8.235
41105SOL     OW25211   2.031   2.013   0.320
41105SOL    HW125212   1.989   1.933   0.288
41105SOL    HW225213   2.020   2.076   0.249
41106SOL     OW25214   8.978   1.546  13.306
41106SOL    HW125215   8.939   1.628  13.338
41106SOL    HW225216   8.960   1.546  13.212
41107SOL     OW25217   5.375  13.836   1.806
41107SOL    HW125218   5.417  13.867   1.887
41107SOL    HW225219   5.363  13.915   1.754
41108SOL     OW25220   0.268   3.311   0.325
41108SOL    HW125221   0.334   3.294   0.257
41108SOL    HW225222   0.269   3.231   0.379
41109SOL     OW25223   5.723   6.344  14.403
41109SOL    HW125224   5.784   6.270  14.410
41109SOL    HW225225   5.641   6.304  14.375
41110SOL     OW25226   7.079  12.176  11.750
41110SOL    HW125227   6.990  12.212  11.753
41110SOL    HW225228   7.125  12.221  11.822
41111SOL     OW25229   2.325   6.671   6.514
41111SOL    HW125230   2.400   6.694   6.458
41111SOL    HW225231   2.315   6.577   6.503
41112SOL     OW25232   1.605   6.890   5.524
41112SOL    HW125233   1.555   6.965   5.556
41112SOL    HW225234   1.649   6.922   5.446
41113SOL     OW25235  12.550   8.135   9.693
41113SOL    HW125236  12.580   8.068   9.631
41113SOL    HW225237  12.460   8.111   9.712
41114SOL     OW25238   4.840   6.307   9.559
41114SOL    HW125239   4.829   6.369   9.487
41114SOL    HW225240   4.754   6.267   9.570
41115SOL     OW25241   8.458   6.339  14.169
41115SOL    HW125242   8.523   6.400  14.202
41115SOL    HW225243   8.506   6.258  14.152
41116SOL     OW25244   0.838   9.650  13.530
41116SOL    HW125245   0.796   9.679  13.449
41116SOL    HW225246   0.931   9.665  13.515
41117SOL     OW25247  14.094   7.680  13.722
41117SOL    HW125248  14.120   7.609  13.780
41117SOL    HW225249  14.157   7.678  13.650
41118SOL     OW25250  10.536  14.421  12.159
41118SOL    HW125251  10.566  14.437  12.069
41118SOL    HW225252  10.465  14.484  12.171
41119SOL     OW25253   8.362  13.920   2.408
41119SOL    HW125254   8.354  13.997   2.465
41119SOL    HW225255   8.339  13.846   2.463
41120SOL     OW25256   8.817  11.241   5.072
41120SOL    HW125257   8.862  11.260   4.990
41120SOL    HW225258   8.868  11.287   5.138
41121SOL     OW25259  13.724  13.564   9.722
41121SOL    HW125260  13.722  13.555   9.627
41121SOL    HW225261  13.691  13.652   9.738
41122SOL     OW25262  12.476   1.579   0.852
41122SOL    HW125263  12.389   1.566   0.814
41122SOL    HW225264  12.476   1.670   0.881
41123SOL     OW25265  11.951   4.289   4.826
41123SOL    HW125266  11.935   4.275   4.919
41123SOL    HW225267  12.046   4.281   4.816
41124SOL     OW25268  14.853   8.986  10.360
41124SOL    HW125269   0.017   9.011  10.274
41124SOL    HW225270  14.826   9.069  10.400
41125SOL     OW25271   8.863  10.158   2.479
41125SOL    HW125272   8.866  10.119   2.392
41125SOL    HW225273   8.904  10.093   2.536
41126SOL     OW25274   8.110  11.923   0.785
41126SOL    HW125275   8.073  11.915   0.872
41126SOL    HW225276   8.131  12.016   0.776
41127SOL     OW25277   0.086   4.433   4.732
41127SOL    HW125278   0.052   4.344   4.745
41127SOL    HW225279   0.125   4.457   4.815
41128SOL     OW25280   4.875   9.215   4.589
41128SOL    HW125281   4.805   9.278   4.607
41128SOL    HW225282   4.829   9.136   4.561
41129SOL     OW25283  14.462   8.357   3.718
41129SOL    HW125284  14.498   8.288   3.773
41129SOL    HW225285  14.411   8.412   3.777
41130SOL     OW25286  11.124   1.188  14.194
41130SOL    HW125287  11.093   1.114  14.143
41130SOL    HW225288  11.045   1.224  14.234
41131SOL     OW25289   7.573   8.217  11.211
41131SOL    HW125290   7.575   8.140  11.268
41131SOL    HW225291   7.504   8.198  11.148
41132SOL     OW25292  10.333   7.413   3.390
41132SOL    HW125293  10.254   7.383   3.345
41132SOL    HW225294  10.357   7.341   3.447
41133SOL     OW25295   1.122   1.789   0.407
41133SOL    HW125296   1.039   1.774   0.363
41133SOL    HW225297   1.185   1.735   0.359
41134SOL     OW25298   6.460  12.198   4.112
41134SOL    HW125299   6.501  12.265   4.059
41134SOL    HW225300   6.508  12.118   4.092
41135SOL     OW25301   8.678   7.829   2.504
41135SOL    HW125302   8.700   7.911   2.549
41135SOL    HW225303   8.642   7.772   2.573
41136SOL     OW25304   1.855   8.499   4.044
41136SOL    HW125305   1.904   8.551   3.979
41136SOL    HW225306   1.915   8.428   4.068
41137SOL     OW25307   3.883   9.794  10.729
41137SOL    HW125308   3.949   9.813  10.663
41137SOL    HW225309   3.872   9.699  10.725
41138SOL     OW25310   9.355  13.964   4.348
41138SOL    HW125311   9.400  14.039   4.388
41138SOL    HW225312   9.349  13.900   4.419
41139SOL     OW25313  10.560  11.465   4.350
41139SOL    HW125314  10.505  11.409   4.296
41139SOL    HW225315  10.512  11.547   4.357
41140SOL     OW25316  11.943   0.181   3.961
41140SOL    HW125317  12.021   0.223   3.997
41140SOL    HW225318  11.968   0.089   3.950
41141SOL     OW25319   1.636   5.143   9.935
41141SOL    HW125320   1.660   5.139   9.843
41141SOL    HW225321   1.596   5.058   9.953
41142SOL     OW25322   3.735   0.819   8.250
41142SOL    HW125323   3.674   0.780   8.313
41142SOL    HW225324   3.812   0.842   8.302
41143SOL     OW25325  13.183  10.836   2.702
41143SOL    HW125326  13.118  10.905   2.718
41143SOL    HW225327  13.228  10.862   2.622
41144SOL     OW25328   6.131   4.823   5.075
41144SOL    HW125329   6.156   4.913   5.054
41144SOL    HW225330   6.089   4.829   5.161
41145SOL     OW25331   2.235  14.244   2.386
41145SOL    HW125332   2.141  14.227   2.379
41145SOL    HW225333   2.271  14.164   2.423
41146SOL     OW25334  10.384   2.219  10.634
41146SOL    HW125335  10.334   2.155  10.583
41146SOL    HW225336  10.362   2.199  10.725
41147SOL     OW25337   5.630   8.324   8.514
41147SOL    HW125338   5.689   8.258   8.552
41147SOL    HW225339   5.547   8.312   8.560
41148SOL     OW25340   5.589   1.326  11.599
41148SOL    HW125341   5.494   1.325  11.612
41148SOL    HW225342   5.625   1.279  11.674
41149SOL     OW25343   4.333   6.821  11.576
41149SOL    HW125344   4.281   6.742  11.590
41149SOL    HW225345   4.337   6.862  11.662
41150SOL     OW25346  13.593   1.600   8.645
41150SOL    HW125347  13.584   1.505   8.656
41150SOL    HW225348  13.517   1.625   8.592
41151SOL     OW25349   1.284   9.965   0.471
41151SOL    HW125350   1.239  10.044   0.440
41151SOL    HW225351   1.361   9.999   0.517
41152SOL     OW25352  12.358   8.268   4.224
41152SOL    HW125353  12.339   8.275   4.318
41152SOL    HW225354  12.440   8.316   4.213
41153SOL     OW25355   9.539   8.044  11.493
41153SOL    HW125356   9.612   8.034  11.553
41153SOL    HW225357   9.538   7.962  11.442
41154SOL     OW25358   6.074  10.821  12.990
41154SOL    HW125359   6.068  10.916  13.004
41154SOL    HW225360   6.134  10.791  13.059
41155SOL     OW25361   5.427   2.303  12.079
41155SOL    HW125362   5.456   2.228  12.132
41155SOL    HW225363   5.503   2.362  12.079
41156SOL     OW25364   2.645  13.493  14.001
41156SOL    HW125365   2.596  13.551  13.943
41156SOL    HW225366   2.657  13.413  13.950
41157SOL     OW25367  13.167   8.691   1.955
41157SOL    HW125368  13.231   8.744   1.907
41157SOL    HW225369  13.196   8.601   1.942
41158SOL     OW25370   9.756   6.196  14.018
41158SOL    HW125371   9.676   6.144  14.016
41158SOL    HW225372   9.796   6.182  13.932
41159SOL     OW25373   2.313  12.764  13.960
41159SOL    HW125374   2.296  12.690  13.903
41159SOL    HW225375   2.323  12.726  14.047
41160SOL     OW25376  14.584   9.783   1.502
41160SOL    HW125377  14.581   9.703   1.556
41160SOL    HW225378  14.637   9.844   1.554
41161SOL     OW25379   9.751  13.731  14.844
41161SOL    HW125380   9.714  13.732   0.063
41161SOL    HW225381   9.781  13.642  14.831
41162SOL     OW25382   0.258  14.010   1.630
41162SOL    HW125383   0.307  14.091   1.641
41162SOL    HW225384   0.243  14.003   1.535
41163SOL     OW25385   1.008  14.674   2.892
41163SOL    HW125386   1.100  14.651   2.904
41163SOL    HW225387   0.979  14.704   2.978
41164SOL     OW25388   6.599   0.149   0.365
41164SOL    HW125389   6.602   0.135   0.270
41164SOL    HW225390   6.679   0.109   0.398
41165SOL     OW25391  13.065   6.612   0.843
41165SOL    HW125392  13.018   6.530   0.856
41165SOL    HW225393  13.036   6.668   0.915
41166SOL     OW25394  13.463   2.056  10.175
41166SOL    HW125395  13.434   2.005  10.251
41166SOL    HW225396  13.447   1.998  10.100
41167SOL     OW25397   9.382  12.923  14.311
41167SOL    HW125398   9.476  12.936  14.307
41167SOL    HW225399   9.354  12.972  14.388
41168SOL     OW25400   0.727   0.173  11.649
41168SOL    HW125401   0.810   0.218  11.662
41168SOL    HW225402   0.680   0.226  11.585
41169SOL     OW25403   0.847  11.141   4.103
41169SOL    HW125404   0.924  11.186   4.069
41169SOL    HW225405   0.859  11.049   4.077
41170SOL     OW25406  13.990  11.694   6.486
41170SOL    HW125407  14.060  11.725   6.543
41170SOL    HW225408  13.946  11.774   6.455
41171SOL     OW25409  11.321   7.411   4.810
41171SOL    HW125410  11.379   7.343   4.844
41171SOL    HW225411  11.286   7.375   4.729
41172SOL     OW25412   1.273   3.348   5.992
41172SOL    HW125413   1.293   3.257   6.011
41172SOL    HW225414   1.304   3.396   6.070
41173SOL     OW25415  10.739   2.119   4.575
41173SOL    HW125416  10.744   2.184   4.645
41173SOL    HW225417  10.646   2.108   4.558
41174SOL     OW25418   3.297  10.558   0.062
41174SOL    HW125419   3.358  10.615   0.109
41174SOL    HW225420   3.244  10.618   0.009
41175SOL     OW25421  10.917   4.512  11.567
41175SOL    HW125422  10.891   4.557  11.648
41175SOL    HW225423  10.873   4.562  11.498
41176SOL     OW25424   8.413  12.222   6.234
41176SOL    HW125425   8.501  12.261   6.231
41176SOL    HW225426   8.429  12.128   6.243
41177SOL     OW25427   6.729   7.165   1.835
41177SOL    HW125428   6.748   7.082   1.878
41177SOL    HW225429   6.729   7.145   1.742
41178SOL     OW25430  11.882   0.416  10.582
41178SOL    HW125431  11.794   0.440  10.612
41178SOL    HW225432  11.886   0.321  10.594
41179SOL     OW25433  14.462  12.276   9.602
41179SOL    HW125434  14.401  12.350   9.600
41179SOL    HW225435  14.537  12.305   9.550
41180SOL     OW25436   0.635   5.512   3.210
41180SOL    HW125437   0.646   5.429   3.164
41180SOL    HW225438   0.675   5.496   3.296
41181SOL     OW25439   8.391  12.493   9.470
41181SOL    HW125440   8.352  12.580   9.479
41181SOL    HW225441   8.446  12.485   9.548
41182SOL     OW25442  14.542  12.846   0.779
41182SOL    HW125443  14.585  12.918   0.825
41182SOL    HW225444  14.469  12.888   0.732
41183SOL     OW25445   9.628  10.784  10.166
41183SOL    HW125446   9.619  10.735  10.084
41183SOL    HW225447   9.588  10.869  10.147
41184SOL     OW25448  14.455   2.397   8.815
41184SOL    HW125449  14.374   2.391   8.764
41184SOL    HW225450  14.481   2.489   8.807
41185SOL     OW25451   0.202   6.676  13.265
41185SOL    HW125452   0.242   6.731  13.198
41185SOL    HW225453   0.267   6.675  13.336
41186SOL     OW25454  11.870   5.904   1.918
41186SOL    HW125455  11.875   5.953   2.000
41186SOL    HW225456  11.955   5.860   1.911
41187SOL     OW25457   2.436   3.262  10.345
41187SOL    HW125458   2.508   3.257  10.283
41187SOL    HW225459   2.361   3.289  10.293
41188SOL     OW25460  13.993   1.183  12.594
41188SOL    HW125461  13.898   1.171  12.592
41188SOL    HW225462  14.009   1.243  12.666
41189SOL     OW25463   3.852   2.169   3.036
41189SOL    HW125464   3.911   2.199   3.105
41189SOL    HW225465   3.802   2.097   3.076
41190SOL     OW25466   5.564   7.566   3.083
41190SOL    HW125467   5.584   7.647   3.131
41190SOL    HW225468   5.644   7.547   3.034
41191SOL     OW25469   1.717   9.066  11.905
41191SOL    HW125470   1.794   9.008  11.910
41191SOL    HW225471   1.661   9.026  11.838
41192SOL     OW25472   9.600   4.631   5.135
41192SOL    HW125473   9.615   4.631   5.040
41192SOL    HW225474   9.514   4.673   5.146
41193SOL     OW25475   0.228   4.305  11.742
41193SOL    HW125476   0.311   4.315  11.695
41193SOL    HW225477   0.175   4.249  11.685
41194SOL     OW25478   6.919   3.445   5.534
41194SOL    HW125479   7.000   3.398   5.556
41194SOL    HW225480   6.946   3.536   5.522
41195SOL     OW25481   2.481   8.048   1.428
41195SOL    HW125482   2.431   8.008   1.358
41195SOL    HW225483   2.484   7.981   1.497
41196SOL     OW25484   5.457   2.015   2.885
41196SOL    HW125485   5.523   2.076   2.853
41196SOL    HW225486   5.422   1.973   2.806
41197SOL     OW25487   1.621  11.202  13.888
41197SOL    HW125488   1.614  11.158  13.973
41197SOL    HW225489   1.664  11.285  13.907
41198SOL     OW25490   0.216   1.581   0.548
41198SOL    HW125491   0.302   1.545   0.572
41198SOL    HW225492   0.172   1.595   0.632
41199SOL     OW25493   6.711   5.113   7.809
41199SOL    HW125494   6.741   5.194   7.850
41199SOL    HW225495   6.732   5.045   7.873
41200SOL     OW25496   7.148   7.474   6.921
41200SOL    HW125497   7.074   7.466   6.981
41200SOL    HW225498   7.128   7.415   6.848
41201SOL     OW25499  14.744  10.100   1.003
41201SOL    HW125500  14.816  10.159   0.981
41201SOL    HW225501  14.682  10.154   1.051
41202SOL     OW25502  13.525  12.083   0.501
41202SOL    HW125503  13.543  12.006   0.555
41202SOL    HW225504  13.485  12.047   0.421
41203SOL     OW25505   3.502   6.138   2.618
41203SOL    HW125506   3.591   6.119   2.587
41203SOL    HW225507   3.512   6.217   2.671
41204SOL     OW25508  12.215   7.136   5.921
41204SOL    HW125509  12.145   7.072   5.914
41204SOL    HW225510  12.272   7.103   5.990
41205SOL     OW25511   0.441   0.706   4.001
41205SOL    HW125512   0.436   0.765   3.926
41205SOL    HW225513   0.364   0.650   3.994
41206SOL     OW25514   7.638  10.596   8.284
41206SOL    HW125515   7.592  10.525   8.240
41206SOL    HW225516   7.680  10.645   8.213
41207SOL     OW25517  10.357  14.132   6.413
41207SOL    HW125518  10.323  14.066   6.352
41207SOL    HW225519  10.322  14.106   6.498
41208SOL     OW25520   2.613   8.828   7.739
41208SOL    HW125521   2.562   8.785   7.808
41208SOL    HW225522   2.638   8.757   7.680
41209SOL     OW25523  11.953  14.623   1.374
41209SOL    HW125524  11.984  14.714   1.378
41209SOL    HW225525  12.023  14.572   1.414
41210SOL     OW25526  10.871   2.438  12.721
41210SOL    HW125527  10.776   2.446  12.710
41210SOL    HW225528  10.882   2.419  12.814
41211SOL     OW25529   4.842  12.554   7.023
41211SOL    HW125530   4.926  12.548   7.069
41211SOL    HW225531   4.865  12.550   6.930
41212SOL     OW25532   2.211  14.467  11.860
41212SOL    HW125533   2.243  14.541  11.808
41212SOL    HW225534   2.204  14.395  11.799
41213SOL     OW25535  11.464   1.292   8.420
41213SOL    HW125536  11.448   1.352   8.348
41213SOL    HW225537  11.530   1.335   8.474
41214SOL     OW25538   1.475   9.141  10.146
41214SOL    HW125539   1.399   9.198  10.161
41214SOL    HW225540   1.443   9.053  10.166
41215SOL     OW25541   8.578   1.154  13.723
41215SOL    HW125542   8.608   1.240  13.694
41215SOL    HW225543   8.658   1.111  13.755
41216SOL     OW25544   3.100   3.485  14.805
41216SOL    HW125545   3.195   3.488  14.795
41216SOL    HW225546   3.082   3.541   0.011
41217SOL     OW25547   8.500   4.279  10.441
41217SOL    HW125548   8.575   4.219  10.445
41217SOL    HW225549   8.513   4.340  10.514
41218SOL     OW25550   5.929   6.467  14.572
41218SOL    HW125551   5.955   6.547  14.527
41218SOL    HW225552   5.874   6.420  14.508
41219SOL     OW25553   0.848   8.736  12.551
41219SOL    HW125554   0.774   8.690  12.511
41219SOL    HW225555   0.847   8.823  12.512
41220SOL     OW25556  14.348   5.124  13.883
41220SOL    HW125557  14.437   5.092  13.870
41220SOL    HW225558  14.333   5.187  13.812
41221SOL     OW25559  12.072  12.249   9.435
41221SOL    HW125560  12.096  12.177   9.494
41221SOL    HW225561  11.978  12.240   9.424
41222SOL     OW25562  14.218   2.970  14.734
41222SOL    HW125563  14.187   2.893  14.687
41222SOL    HW225564  14.196   2.953  14.825
41223SOL     OW25565  11.245   9.967   6.784
41223SOL    HW125566  11.193   9.937   6.710
41223SOL    HW225567  11.232   9.899   6.851
41224SOL     OW25568   1.010  11.438   8.116
41224SOL    HW125569   1.081  11.485   8.159
41224SOL    HW225570   0.993  11.488   8.036
41225SOL     OW25571  10.861  14.325  14.078
41225SOL    HW125572  10.896  14.303  13.992
41225SOL    HW225573  10.797  14.256  14.096
41226SOL     OW25574  11.714   4.144  14.819
41226SOL    HW125575  11.694   4.176   0.038
41226SOL    HW225576  11.770   4.213  14.782
41227SOL     OW25577   9.641   7.676   7.905
41227SOL    HW125578   9.651   7.675   7.810
41227SOL    HW225579   9.725   7.646   7.938
41228SOL     OW25580   6.876   7.481   6.071
41228SOL    HW125581   6.888   7.386   6.077
41228SOL    HW225582   6.955   7.512   6.027
41229SOL     OW25583  11.122  12.092   1.189
41229SOL    HW125584  11.038  12.102   1.145
41229SOL    HW225585  11.101  12.104   1.282
41230SOL     OW25586   6.889   2.155   6.721
41230SOL    HW125587   6.824   2.085   6.727
41230SOL    HW225588   6.866   2.215   6.791
41231SOL     OW25589   9.056  11.849   5.965
41231SOL    HW125590   9.060  11.876   6.056
41231SOL    HW225591   9.083  11.926   5.915
41232SOL     OW25592  14.115   3.203   0.949
41232SOL    HW125593  14.120   3.134   1.015
41232SOL    HW225594  14.034   3.185   0.901
41233SOL     OW25595   2.458   4.947   4.117
41233SOL    HW125596   2.499   4.883   4.059
41233SOL    HW225597   2.531   4.991   4.160
41234SOL     OW25598   4.085   9.820   3.791
41234SOL    HW125599   4.037   9.887   3.741
41234SOL    HW225600   4.141   9.870   3.849
41235SOL     OW25601  13.877   6.363   7.938
41235SOL    HW125602  13.928   6.289   7.905
41235SOL    HW225603  13.876   6.352   8.033
41236SOL     OW25604   2.303   2.037   3.780
41236SOL    HW125605   2.234   2.023   3.716
41236SOL    HW225606   2.257   2.055   3.862
41237SOL     OW25607   3.681  11.322  11.827
41237SOL    HW125608   3.690  11.412  11.795
41237SOL    HW225609   3.742  11.315  11.899
41238SOL     OW25610   3.458   7.390   2.648
41238SOL    HW125611   3.400   7.455   2.607
41238SOL    HW225612   3.487   7.335   2.575
41239SOL     OW25613   7.512   9.799  10.147
41239SOL    HW125614   7.527   9.849  10.066
41239SOL    HW225615   7.448   9.732  10.123
41240SOL     OW25616  14.610  12.080   7.131
41240SOL    HW125617  14.592  12.044   7.218
41240SOL    HW225618  14.525  12.108   7.099
41241SOL     OW25619   6.616   9.682   2.103
41241SOL    HW125620   6.677   9.705   2.174
41241SOL    HW225621   6.529   9.699   2.140
41242SOL     OW25622   9.026   0.511   0.811
41242SOL    HW125623   9.070   0.596   0.807
41242SOL    HW225624   8.993   0.496   0.723
41243SOL     OW25625   0.865   2.422  11.439
41243SOL    HW125626   0.944   2.441  11.490
41243SOL    HW225627   0.856   2.497  11.380
41244SOL     OW25628   2.305   2.729  13.219
41244SOL    HW125629   2.295   2.654  13.278
41244SOL    HW225630   2.396   2.756  13.230
41245SOL     OW25631  10.270   1.368   9.185
41245SOL    HW125632  10.275   1.272   9.177
41245SOL    HW225633  10.292   1.385   9.276
41246SOL     OW25634  10.333  12.458   6.344
41246SOL    HW125635  10.424  12.488   6.346
41246SOL    HW225636  10.338  12.366   6.370
41247SOL     OW25637  12.159  13.615   5.431
41247SOL    HW125638  12.214  13.682   5.469
41247SOL    HW225639  12.069  13.643   5.450
41248SOL     OW25640   9.901  11.339   6.720
41248SOL    HW125641   9.951  11.263   6.748
41248SOL    HW225642   9.828  11.303   6.670
41249SOL     OW25643   8.467   5.920  12.256
41249SOL    HW125644   8.421   5.902  12.175
41249SOL    HW225645   8.507   5.836  12.280
41250SOL     OW25646   0.320  10.801  11.714
41250SOL    HW125647   0.276  10.728  11.757
41250SOL    HW225648   0.388  10.760  11.661
41251SOL     OW25649   1.306   8.442   5.882
41251SOL    HW125650   1.379   8.416   5.937
41251SOL    HW225651   1.253   8.498   5.938
41252SOL     OW25652   1.611   2.922  10.559
41252SOL    HW125653   1.525   2.888  10.584
41252SOL    HW225654   1.638   2.976  10.633
41253SOL     OW25655  13.237   3.360   9.661
41253SOL    HW125656  13.170   3.413   9.618
41253SOL    HW225657  13.320   3.396   9.630
41254SOL     OW25658   8.283  12.041  11.286
41254SOL    HW125659   8.209  12.057  11.344
41254SOL    HW225660   8.248  12.058  11.198
41255SOL     OW25661   5.223   4.705  14.645
41255SOL    HW125662   5.233   4.769  14.716
41255SOL    HW225663   5.290   4.730  14.581
41256SOL     OW25664  14.480   1.609   5.362
41256SOL    HW125665  14.543   1.681   5.356
41256SOL    HW225666  14.406   1.646   5.412
41257SOL     OW25667   2.347   1.766  10.018
41257SOL    HW125668   2.282   1.700   9.995
41257SOL    HW225669   2.296   1.842  10.046
41258SOL     OW25670   8.500  13.376   3.854
41258SOL    HW125671   8.567  13.343   3.913
41258SOL    HW225672   8.535  13.458   3.820
41259SOL     OW25673   8.796   2.343   7.524
41259SOL    HW125674   8.736   2.407   7.565
41259SOL    HW225675   8.809   2.277   7.591
41260SOL     OW25676   7.886  12.967  14.789
41260SOL    HW125677   7.808  13.022  14.795
41260SOL    HW225678   7.953  13.025  14.752
41261SOL     OW25679  11.612   1.032   2.180
41261SOL    HW125680  11.692   1.021   2.233
41261SOL    HW225681  11.598   1.126   2.177
41262SOL     OW25682   1.018   7.583   9.144
41262SOL    HW125683   0.986   7.673   9.145
41262SOL    HW225684   1.028   7.562   9.051
41263SOL     OW25685  13.236  13.353  13.452
41263SOL    HW125686  13.309  13.293  13.467
41263SOL    HW225687  13.276  13.429  13.410
41264SOL     OW25688   9.047   9.900   6.200
41264SOL    HW125689   8.981   9.967   6.215
41264SOL    HW225690   9.007   9.819   6.230
41265SOL     OW25691   9.915   1.448   2.309
41265SOL    HW125692   9.832   1.492   2.327
41265SOL    HW225693   9.904   1.361   2.347
41266SOL     OW25694  12.077   5.671   8.234
41266SOL    HW125695  12.104   5.736   8.299
41266SOL    HW225696  11.989   5.699   8.208
41267SOL     OW25697   2.361   1.722   3.456
41267SOL    HW125698   2.386   1.748   3.367
41267SOL    HW225699   2.282   1.773   3.474
41268SOL     OW25700   4.906  13.145  10.491
41268SOL    HW125701   4.973  13.139  10.423
41268SOL    HW225702   4.824  13.128  10.446
41269SOL     OW25703   6.611  13.990   6.008
41269SOL    HW125704   6.610  13.910   5.954
41269SOL    HW225705   6.692  13.982   6.060
41270SOL     OW25706   5.489  13.500  11.844
41270SOL    HW125707   5.457  13.473  11.758
41270SOL    HW225708   5.584  13.485  11.840
41271SOL     OW25709   1.186   8.557   6.124
41271SOL    HW125710   1.240   8.619   6.173
41271SOL    HW225711   1.103   8.554   6.173
41272SOL     OW25712   0.137  14.038  10.037
41272SOL    HW125713   0.047  14.069  10.039
41272SOL    HW225714   0.177  14.085   9.964
41273SOL     OW25715   3.167   5.237   3.892
41273SOL    HW125716   3.117   5.177   3.948
41273SOL    HW225717   3.107   5.308   3.873
41274SOL     OW25718   5.371   5.771   3.735
41274SOL    HW125719   5.395   5.729   3.818
41274SOL    HW225720   5.362   5.698   3.673
41275SOL     OW25721   2.004  11.926   4.585
41275SOL    HW125722   1.975  12.017   4.579
41275SOL    HW225723   1.950  11.888   4.654
41276SOL     OW25724   4.286   2.268  10.635
41276SOL    HW125725   4.235   2.219  10.699
41276SOL    HW225726   4.234   2.263  10.554
41277SOL     OW25727   6.416   4.859   0.188
41277SOL    HW125728   6.325   4.856   0.216
41277SOL    HW225729   6.455   4.928   0.242
41278SOL     OW25730   2.369   6.086   9.130
41278SOL    HW125731   2.281   6.091   9.167
41278SOL    HW225732   2.406   6.006   9.168
41279SOL     OW25733   3.965  14.143   4.037
41279SOL    HW125734   3.985  14.050   4.047
41279SOL    HW225735   3.964  14.178   4.126
41280SOL     OW25736   3.986  12.889  11.324
41280SOL    HW125737   4.072  12.848  11.312
41280SOL    HW225738   3.924  12.824  11.292
41281SOL     OW25739  13.395   3.181   1.610
41281SOL    HW125740  13.472   3.215   1.565
41281SOL    HW225741  13.347   3.133   1.542
41282SOL     OW25742   5.912  12.868   1.618
41282SOL    HW125743   5.917  12.937   1.553
41282SOL    HW225744   5.900  12.914   1.701
41283SOL     OW25745   3.958   5.716   9.019
41283SOL    HW125746   3.991   5.626   9.015
41283SOL    HW225747   3.963   5.739   9.112
41284SOL     OW25748   9.910   6.252  13.508
41284SOL    HW125749   9.953   6.337  13.499
41284SOL    HW225750   9.820   6.268  13.480
41285SOL     OW25751   8.459  13.314   6.413
41285SOL    HW125752   8.548  13.340   6.435
41285SOL    HW225753   8.441  13.239   6.469
41286SOL     OW25754   5.903   7.627   8.177
41286SOL    HW125755   5.982   7.575   8.194
41286SOL    HW225756   5.832   7.563   8.178
41287SOL     OW25757  10.318   0.086   8.230
41287SOL    HW125758  10.263   0.046   8.297
41287SOL    HW225759  10.292   0.043   8.149
41288SOL     OW25760   1.676  13.049   1.021
41288SOL    HW125761   1.590  13.068   0.984
41288SOL    HW225762   1.699  12.962   0.985
41289SOL     OW25763   9.589   3.279  11.545
41289SOL    HW125764   9.661   3.340  11.555
41289SOL    HW225765   9.524   3.326  11.493
41290SOL     OW25766   4.355   6.233  12.321
41290SOL    HW125767   4.407   6.156  12.344
41290SOL    HW225768   4.395   6.266  12.241
41291SOL     OW25769   9.463   0.486  14.499
41291SOL    HW125770   9.368   0.485  14.482
41291SOL    HW225771   9.494   0.402  14.466
41292SOL     OW25772   1.969   1.671  10.660
41292SOL    HW125773   2.021   1.690  10.738
41292SOL    HW225774   1.984   1.578  10.643
41293SOL     OW25775   2.846   7.782  13.385
41293SOL    HW125776   2.774   7.729  13.419
41293SOL    HW225777   2.816   7.872  13.392
41294SOL     OW25778   9.695   6.362   0.903
41294SOL    HW125779   9.777   6.390   0.944
41294SOL    HW225780   9.667   6.439   0.853
41295SOL     OW25781   6.466   4.796   8.351
41295SOL    HW125782   6.504   4.780   8.437
41295SOL    HW225783   6.389   4.739   8.348
41296SOL     OW25784   3.386   5.262  13.249
41296SOL    HW125785   3.430   5.221  13.175
41296SOL    HW225786   3.456   5.298  13.303
41297SOL     OW25787   8.062   8.883  10.030
41297SOL    HW125788   8.017   8.941   9.968
41297SOL    HW225789   8.147   8.923  10.043
41298SOL     OW25790   2.600   5.065   9.437
41298SOL    HW125791   2.601   5.062   9.533
41298SOL    HW225792   2.539   4.996   9.411
41299SOL     OW25793   0.601   1.951   5.788
41299SOL    HW125794   0.553   1.966   5.870
41299SOL    HW225795   0.571   1.865   5.759
41300SOL     OW25796  12.104   3.299   2.810
41300SOL    HW125797  12.160   3.307   2.733
41300SOL    HW225798  12.015   3.307   2.775
41301SOL     OW25799   1.418   9.214  10.634
41301SOL    HW125800   1.378   9.170  10.558
41301SOL    HW225801   1.347   9.265  10.672
41302SOL     OW25802   6.209   9.591   3.476
41302SOL    HW125803   6.277   9.560   3.536
41302SOL    HW225804   6.232   9.552   3.392
41303SOL     OW25805  12.997   9.985   2.343
41303SOL    HW125806  13.056   9.912   2.326
41303SOL    HW225807  13.036  10.031   2.417
41304SOL     OW25808   3.667  14.268   2.997
41304SOL    HW125809   3.701  14.215   2.925
41304SOL    HW225810   3.628  14.344   2.954
41305SOL     OW25811   9.537  13.361  11.030
41305SOL    HW125812   9.512  13.432  11.089
41305SOL    HW225813   9.618  13.326  11.066
41306SOL     OW25814   6.982  13.791   0.408
41306SOL    HW125815   7.046  13.793   0.479
41306SOL    HW225816   6.901  13.762   0.449
41307SOL     OW25817  11.375   4.239   8.487
41307SOL    HW125818  11.419   4.322   8.467
41307SOL    HW225819  11.420   4.206   8.564
41308SOL     OW25820  14.751   1.096   3.840
41308SOL    HW125821  14.842   1.070   3.826
41308SOL    HW225822  14.700   1.030   3.792
41309SOL     OW25823   5.693  12.112   5.801
41309SOL    HW125824   5.786  12.103   5.822
41309SOL    HW225825   5.688  12.089   5.708
41310SOL     OW25826   1.910   4.516   5.716
41310SOL    HW125827   1.853   4.458   5.765
41310SOL    HW225828   1.887   4.501   5.624
41311SOL     OW25829  13.976  10.247   3.904
41311SOL    HW125830  13.998  10.207   3.988
41311SOL    HW225831  13.989  10.177   3.840
41312SOL     OW25832   4.038   2.673   5.146
41312SOL    HW125833   4.062   2.677   5.239
41312SOL    HW225834   4.013   2.763   5.125
41313SOL     OW25835  14.788   2.142   5.266
41313SOL    HW125836  14.730   2.214   5.292
41313SOL    HW225837  14.795   2.087   5.344
41314SOL     OW25838  12.419   5.062   4.984
41314SOL    HW125839  12.324   5.062   4.994
41314SOL    HW225840  12.452   5.062   5.074
41315SOL     OW25841   5.193   2.268   5.094
41315SOL    HW125842   5.195   2.359   5.125
41315SOL    HW225843   5.214   2.216   5.171
41316SOL     OW25844   0.045  11.563  10.992
41316SOL    HW125845   0.096  11.488  10.962
41316SOL    HW225846   0.058  11.564  11.087
41317SOL     OW25847   8.830  12.638  10.342
41317SOL    HW125848   8.812  12.556  10.387
41317SOL    HW225849   8.778  12.703  10.389
41318SOL     OW25850   6.199   7.582  10.715
41318SOL    HW125851   6.128   7.526  10.747
41318SOL    HW225852   6.164   7.621  10.635
41319SOL     OW25853   9.315   5.078   1.484
41319SOL    HW125854   9.275   5.001   1.445
41319SOL    HW225855   9.404   5.079   1.450
41320SOL     OW25856   1.323  12.538   5.811
41320SOL    HW125857   1.325  12.442   5.813
41320SOL    HW225858   1.387  12.565   5.877
41321SOL     OW25859  14.798   5.648   9.745
41321SOL    HW125860  14.866   5.706   9.711
41321SOL    HW225861  14.776   5.685   9.830
41322SOL     OW25862   2.532   1.623   1.324
41322SOL    HW125863   2.593   1.611   1.252
41322SOL    HW225864   2.447   1.596   1.289
41323SOL     OW25865  10.755  10.306  11.523
41323SOL    HW125866  10.792  10.349  11.446
41323SOL    HW225867  10.826  10.308  11.587
41324SOL     OW25868   1.472   9.426  10.466
41324SOL    HW125869   1.469   9.350  10.524
41324SOL    HW225870   1.536   9.485  10.507
41325SOL     OW25871  14.732   1.611   8.127
41325SOL    HW125872  14.739   1.576   8.216
41325SOL    HW225873  14.687   1.695   8.138
41326SOL     OW25874  11.361   9.277   2.216
41326SOL    HW125875  11.429   9.223   2.256
41326SOL    HW225876  11.335   9.229   2.137
41327SOL     OW25877  13.461  13.985   7.729
41327SOL    HW125878  13.472  13.991   7.634
41327SOL    HW225879  13.528  14.043   7.765
41328SOL     OW25880   0.128  14.437   7.896
41328SOL    HW125881   0.039  14.428   7.861
41328SOL    HW225882   0.181  14.463   7.820
41329SOL     OW25883   5.294   5.103   5.565
41329SOL    HW125884   5.338   5.099   5.650
41329SOL    HW225885   5.212   5.057   5.578
41330SOL     OW25886   3.518  12.792   6.061
41330SOL    HW125887   3.605  12.787   6.021
41330SOL    HW225888   3.458  12.798   5.987
41331SOL     OW25889  11.748   3.093  10.849
41331SOL    HW125890  11.679   3.027  10.843
41331SOL    HW225891  11.703   3.177  10.840
41332SOL     OW25892   2.618   5.231  11.642
41332SOL    HW125893   2.684   5.299  11.626
41332SOL    HW225894   2.535   5.273  11.621
41333SOL     OW25895  11.538   2.872   6.007
41333SOL    HW125896  11.512   2.934   5.939
41333SOL    HW225897  11.617   2.830   5.972
41334SOL     OW25898  13.721   5.175   1.569
41334SOL    HW125899  13.718   5.082   1.592
41334SOL    HW225900  13.630   5.197   1.550
41335SOL     OW25901   8.112   3.820   7.311
41335SOL    HW125902   8.196   3.865   7.307
41335SOL    HW225903   8.093   3.796   7.220
41336SOL     OW25904   6.006   2.060   4.458
41336SOL    HW125905   6.002   2.087   4.549
41336SOL    HW225906   6.003   1.964   4.461
41337SOL     OW25907  12.069   1.652  13.910
41337SOL    HW125908  12.013   1.709  13.857
41337SOL    HW225909  12.115   1.712  13.969
41338SOL     OW25910   1.507   9.587   5.002
41338SOL    HW125911   1.536   9.515   5.059
41338SOL    HW225912   1.548   9.665   5.040
41339SOL     OW25913   7.631   5.242   0.565
41339SOL    HW125914   7.651   5.251   0.472
41339SOL    HW225915   7.580   5.162   0.571
41340SOL     OW25916  11.582  12.940   3.802
41340SOL    HW125917  11.556  13.025   3.766
41340SOL    HW225918  11.626  12.895   3.729
41341SOL     OW25919  12.439   5.443   7.691
41341SOL    HW125920  12.505   5.505   7.722
41341SOL    HW225921  12.433   5.377   7.760
41342SOL     OW25922  12.662  10.893   2.533
41342SOL    HW125923  12.719  10.821   2.558
41342SOL    HW225924  12.721  10.964   2.508
41343SOL     OW25925   2.388  10.199   8.826
41343SOL    HW125926   2.467  10.238   8.790
41343SOL    HW225927   2.339  10.168   8.750
41344SOL     OW25928   8.841  14.581  12.725
41344SOL    HW125929   8.847  14.491  12.758
41344SOL    HW225930   8.891  14.580  12.644
41345SOL     OW25931   1.049  12.013  14.338
41345SOL    HW125932   1.039  12.058  14.422
41345SOL    HW225933   0.962  11.979  14.318
41346SOL     OW25934  10.864   6.958   2.503
41346SOL    HW125935  10.777   6.996   2.486
41346SOL    HW225936  10.846   6.871   2.537
41347SOL     OW25937   1.124   6.274   9.415
41347SOL    HW125938   1.213   6.293   9.443
41347SOL    HW225939   1.093   6.206   9.475
41348SOL     OW25940   3.571  13.201  11.182
41348SOL    HW125941   3.646  13.238  11.228
41348SOL    HW225942   3.593  13.108  11.171
41349SOL     OW25943   0.303  10.426   4.435
41349SOL    HW125944   0.392  10.460   4.428
41349SOL    HW225945   0.246  10.502   4.423
41350SOL     OW25946  10.289  13.929   0.727
41350SOL    HW125947  10.223  13.868   0.693
41350SOL    HW225948  10.353  13.935   0.657
41351SOL     OW25949   5.321   1.502  11.690
41351SOL    HW125950   5.312   1.409  11.708
41351SOL    HW225951   5.274   1.515  11.607
41352SOL     OW25952   3.853   7.241   7.754
41352SOL    HW125953   3.905   7.290   7.819
41352SOL    HW225954   3.784   7.302   7.728
41353SOL     OW25955  12.780   5.121   6.975
41353SOL    HW125956  12.810   5.108   7.065
41353SOL    HW225957  12.756   5.213   6.971
41354SOL     OW25958   8.916   6.784   7.893
41354SOL    HW125959   8.994   6.758   7.845
41354SOL    HW225960   8.853   6.808   7.825
41355SOL     OW25961   0.168   6.372   5.607
41355SOL    HW125962   0.210   6.324   5.536
41355SOL    HW225963   0.156   6.461   5.572
41356SOL     OW25964  12.296   1.946  11.418
41356SOL    HW125965  12.274   2.019  11.476
41356SOL    HW225966  12.325   1.987  11.337
41357SOL     OW25967   4.057   6.029   8.374
41357SOL    HW125968   4.022   5.945   8.402
41357SOL    HW225969   4.029   6.091   8.441
41358SOL     OW25970   1.599  10.519   5.964
41358SOL    HW125971   1.561  10.495   6.049
41358SOL    HW225972   1.589  10.440   5.910
41359SOL     OW25973  13.845   6.791  10.875
41359SOL    HW125974  13.849   6.884  10.897
41359SOL    HW225975  13.754   6.767  10.890
41360SOL     OW25976  12.794   4.784   2.580
41360SOL    HW125977  12.710   4.830   2.571
41360SOL    HW225978  12.845   4.813   2.504
41361SOL     OW25979   8.225   3.425  14.141
41361SOL    HW125980   8.187   3.427  14.053
41361SOL    HW225981   8.170   3.365  14.191
41362SOL     OW25982   9.977   0.826  11.356
41362SOL    HW125983   9.936   0.912  11.363
41362SOL    HW225984   9.934   0.773  11.423
41363SOL     OW25985   6.765   8.952  14.288
41363SOL    HW125986   6.753   8.876  14.231
41363SOL    HW225987   6.840   8.998  14.252
41364SOL     OW25988   2.100   3.658   2.828
41364SOL    HW125989   2.127   3.573   2.793
41364SOL    HW225990   2.107   3.718   2.754
41365SOL     OW25991   6.043  13.345   0.648
41365SOL    HW125992   6.040  13.413   0.581
41365SOL    HW225993   6.124  13.363   0.697
41366SOL     OW25994   9.959  12.853  14.867
41366SOL    HW125995   9.939  12.803  14.788
41366SOL    HW225996   9.910  12.935  14.857
41367SOL     OW25997  14.523   7.496   6.511
41367SOL    HW125998  14.544   7.403   6.501
41367SOL    HW225999  14.445   7.509   6.456
41368SOL     OW26000   9.763  13.310   6.598
41368SOL    HW126001   9.850  13.328   6.563
41368SOL    HW226002   9.703  13.328   6.526
41369SOL     OW26003   3.896   5.398   2.396
41369SOL    HW126004   3.930   5.339   2.462
41369SOL    HW226005   3.971   5.418   2.340
41370SOL     OW26006   7.044   5.248   0.220
41370SOL    HW126007   7.096   5.169   0.235
41370SOL    HW226008   7.020   5.277   0.308
41371SOL     OW26009   6.799  11.485  11.124
41371SOL    HW126010   6.860  11.502  11.195
41371SOL    HW226011   6.836  11.410  11.077
41372SOL     OW26012   2.736  12.663   2.867
41372SOL    HW126013   2.741  12.619   2.782
41372SOL    HW226014   2.826  12.663   2.899
41373SOL     OW26015   5.682   7.763  11.508
41373SOL    HW126016   5.744   7.770  11.581
41373SOL    HW226017   5.735   7.777  11.430
41374SOL     OW26018  13.483  12.326   7.573
41374SOL    HW126019  13.520  12.285   7.652
41374SOL    HW226020  13.511  12.418   7.579
41375SOL     OW26021  10.628  12.502   8.292
41375SOL    HW126022  10.545  12.548   8.279
41375SOL    HW226023  10.669  12.547   8.366
41376SOL     OW26024   1.257   8.607   3.466
41376SOL    HW126025   1.198   8.667   3.420
41376SOL    HW226026   1.236   8.521   3.430
41377SOL     OW26027  14.830   0.431  11.447
41377SOL    HW126028  14.866   0.347  11.476
41377SOL    HW226029  14.737   0.427  11.470
41378SOL     OW26030   2.911   6.582   0.842
41378SOL    HW126031   2.964   6.518   0.889
41378SOL    HW226032   2.849   6.614   0.908
41379SOL     OW26033   7.683   9.628   5.180
41379SOL    HW126034   7.622   9.556   5.188
41379SOL    HW226035   7.732   9.628   5.263
41380SOL     OW26036   4.255   4.388   8.578
41380SOL    HW126037   4.254   4.412   8.485
41380SOL    HW226038   4.266   4.471   8.624
41381SOL     OW26039   3.564   3.318   1.378
41381SOL    HW126040   3.659   3.309   1.379
41381SOL    HW226041   3.549   3.410   1.360
41382SOL     OW26042   6.642   2.733   7.804
41382SOL    HW126043   6.547   2.747   7.811
41382SOL    HW226044   6.677   2.819   7.779
41383SOL     OW26045   5.614   9.998   9.764
41383SOL    HW126046   5.702   9.982   9.798
41383SOL    HW226047   5.625  10.072   9.704
41384SOL     OW26048  10.201   4.945   1.395
41384SOL    HW126049  10.266   4.991   1.342
41384SOL    HW226050  10.185   5.002   1.470
41385SOL     OW26051   5.121   7.237  13.979
41385SOL    HW126052   5.144   7.213  13.890
41385SOL    HW226053   5.105   7.332  13.975
41386SOL     OW26054  10.696  10.853   6.742
41386SOL    HW126055  10.604  10.844   6.720
41386SOL    HW226056  10.742  10.806   6.672
41387SOL     OW26057  11.607   1.985   9.348
41387SOL    HW126058  11.697   1.958   9.325
41387SOL    HW226059  11.619   2.055   9.411
41388SOL     OW26060   9.747  14.334   1.907
41388SOL    HW126061   9.747  14.410   1.849
41388SOL    HW226062   9.676  14.351   1.969
41389SOL     OW26063   6.275  14.235   2.791
41389SOL    HW126064   6.251  14.163   2.850
41389SOL    HW226065   6.343  14.199   2.734
41390SOL     OW26066   3.851   8.484  11.729
41390SOL    HW126067   3.922   8.492  11.794
41390SOL    HW226068   3.832   8.391  11.727
41391SOL     OW26069  12.670  13.800  13.750
41391SOL    HW126070  12.741  13.770  13.694
41391SOL    HW226071  12.604  13.731  13.746
41392SOL     OW26072   2.120  12.917   9.940
41392SOL    HW126073   2.162  12.981   9.882
41392SOL    HW226074   2.101  12.966  10.020
41393SOL     OW26075  11.942   9.724   5.701
41393SOL    HW126076  11.918   9.715   5.794
41393SOL    HW226077  11.909   9.810   5.676
41394SOL     OW26078   7.708   3.747   5.652
41394SOL    HW126079   7.649   3.728   5.726
41394SOL    HW226080   7.675   3.830   5.617
41395SOL     OW26081  10.072   2.124  11.296
41395SOL    HW126082  10.025   2.148  11.376
41395SOL    HW226083  10.072   2.028  11.296
41396SOL     OW26084   5.811   7.487  13.018
41396SOL    HW126085   5.859   7.569  13.020
41396SOL    HW226086   5.731   7.504  13.068
41397SOL     OW26087   8.742   9.181   8.518
41397SOL    HW126088   8.834   9.204   8.524
41397SOL    HW226089   8.721   9.190   8.424
41398SOL     OW26090  12.644   7.020   5.115
41398SOL    HW126091  12.564   6.989   5.073
41398SOL    HW226092  12.667   7.100   5.067
41399SOL     OW26093  12.032   5.997  11.916
41399SOL    HW126094  11.965   5.933  11.942
41399SOL    HW226095  12.102   5.986  11.980
41400SOL     OW26096   2.991   9.418  14.645
41400SOL    HW126097   2.922   9.459  14.698
41400SOL    HW226098   3.068   9.474  14.658
41401SOL     OW26099   1.350   1.798  12.979
41401SOL    HW126100   1.300   1.861  12.927
41401SOL    HW226101   1.432   1.786  12.930
41402SOL     OW26102  14.257  12.801   7.238
41402SOL    HW126103  14.190  12.733   7.234
41402SOL    HW226104  14.208  12.882   7.250
41403SOL     OW26105   4.333  14.726   1.234
41403SOL    HW126106   4.245  14.693   1.213
41403SOL    HW226107   4.318  14.809   1.279
41404SOL     OW26108   0.283  14.186   4.297
41404SOL    HW126109   0.264  14.265   4.246
41404SOL    HW226110   0.340  14.134   4.240
41405SOL     OW26111   9.241  14.806   2.595
41405SOL    HW126112   9.171  14.743   2.610
41405SOL    HW226113   9.223   0.009   2.655
41406SOL     OW26114  11.974   7.373   2.170
41406SOL    HW126115  12.029   7.368   2.093
41406SOL    HW226116  12.020   7.320   2.236
41407SOL     OW26117   7.517   1.915  13.810
41407SOL    HW126118   7.528   1.974  13.885
41407SOL    HW226119   7.423   1.915  13.794
41408SOL     OW26120   6.431  13.089  10.678
41408SOL    HW126121   6.517  13.058  10.707
41408SOL    HW226122   6.440  13.184  10.671
41409SOL     OW26123   3.934  10.264   4.354
41409SOL    HW126124   4.020  10.297   4.381
41409SOL    HW226125   3.933  10.276   4.259
41410SOL     OW26126  14.622   3.649   9.768
41410SOL    HW126127  14.607   3.556   9.790
41410SOL    HW226128  14.534   3.683   9.750
41411SOL     OW26129  13.470  12.164   6.206
41411SOL    HW126130  13.523  12.166   6.285
41411SOL    HW226131  13.386  12.200   6.233
41412SOL     OW26132  11.650   4.874   9.873
41412SOL    HW126133  11.568   4.833   9.900
41412SOL    HW226134  11.686   4.911   9.953
41413SOL     OW26135   0.905   9.667   6.571
41413SOL    HW126136   0.835   9.611   6.606
41413SOL    HW226137   0.981   9.609   6.564
41414SOL     OW26138   2.506  10.582   8.236
41414SOL    HW126139   2.435  10.557   8.295
41414SOL    HW226140   2.573  10.619   8.293
41415SOL     OW26141  11.561   9.128  13.985
41415SOL    HW126142  11.505   9.051  13.996
41415SOL    HW226143  11.649   9.092  13.974
41416SOL     OW26144  10.082   4.485   7.554
41416SOL    HW126145  10.002   4.433   7.561
41416SOL    HW226146  10.106   4.504   7.645
41417SOL     OW26147  11.678  10.026   0.701
41417SOL    HW126148  11.645  10.056   0.785
41417SOL    HW226149  11.600  10.017   0.646
41418SOL     OW26150   3.344   0.534  11.058
41418SOL    HW126151   3.377   0.468  11.119
41418SOL    HW226152   3.249   0.532  11.071
41419SOL     OW26153   9.874   3.000   0.834
41419SOL    HW126154   9.932   3.058   0.785
41419SOL    HW226155   9.787   3.039   0.824
41420SOL     OW26156   9.166  11.128   3.870
41420SOL    HW126157   9.228  11.142   3.941
41420SOL    HW226158   9.081  11.117   3.913
41421SOL     OW26159   6.421   6.482   2.767
41421SOL    HW126160   6.393   6.470   2.857
41421SOL    HW226161   6.506   6.438   2.762
41422SOL     OW26162   3.258   6.712  14.113
41422SOL    HW126163   3.165   6.719  14.134
41422SOL    HW226164   3.270   6.621  14.087
41423SOL     OW26165   4.222   6.790   0.474
41423SOL    HW126166   4.134   6.756   0.490
41423SOL    HW226167   4.236   6.780   0.380
41424SOL     OW26168   9.908  10.185   5.780
41424SOL    HW126169   9.978  10.249   5.793
41424SOL    HW226170   9.916  10.159   5.688
41425SOL     OW26171   6.521  12.320  14.721
41425SOL    HW126172   6.609  12.282  14.725
41425SOL    HW226173   6.494  12.307  14.630
41426SOL     OW26174   5.037   6.298  11.211
41426SOL    HW126175   5.125   6.264  11.222
41426SOL    HW226176   4.994   6.236  11.153
41427SOL     OW26177   7.236   7.511  11.698
41427SOL    HW126178   7.213   7.430  11.652
41427SOL    HW226179   7.152   7.543  11.732
41428SOL     OW26180   5.644   7.314   4.128
41428SOL    HW126181   5.610   7.403   4.133
41428SOL    HW226182   5.567   7.258   4.140
41429SOL     OW26183  12.530   9.499   7.953
41429SOL    HW126184  12.455   9.460   7.999
41429SOL    HW226185  12.494   9.574   7.907
41430SOL     OW26186   8.988   2.028   8.210
41430SOL    HW126187   9.024   2.110   8.244
41430SOL    HW226188   9.064   1.977   8.184
41431SOL     OW26189  11.402  13.329   6.821
41431SOL    HW126190  11.409  13.316   6.916
41431SOL    HW226191  11.490  13.352   6.794
41432SOL     OW26192   2.925   9.090   6.604
41432SOL    HW126193   3.004   9.085   6.658
41432SOL    HW226194   2.913   9.184   6.590
41433SOL     OW26195  11.108   3.816  11.126
41433SOL    HW126196  11.020   3.828  11.162
41433SOL    HW226197  11.140   3.904  11.110
41434SOL     OW26198   3.523  12.862   8.043
41434SOL    HW126199   3.502  12.939   8.095
41434SOL    HW226200   3.553  12.797   8.107
41435SOL     OW26201   9.229  13.645   0.294
41435SOL    HW126202   9.186  13.573   0.248
41435SOL    HW226203   9.211  13.722   0.240
41436SOL     OW26204   9.717   5.409   4.937
41436SOL    HW126205   9.681   5.362   5.013
41436SOL    HW226206   9.649   5.401   4.870
41437SOL     OW26207  11.223   4.230   8.131
41437SOL    HW126208  11.214   4.177   8.051
41437SOL    HW226209  11.312   4.266   8.125
41438SOL     OW26210   1.690   2.817   5.401
41438SOL    HW126211   1.636   2.740   5.382
41438SOL    HW226212   1.779   2.789   5.382
41439SOL     OW26213   4.988  12.834   3.122
41439SOL    HW126214   5.044  12.757   3.119
41439SOL    HW226215   5.039  12.899   3.169
41440SOL     OW26216   2.469   8.084  10.551
41440SOL    HW126217   2.396   8.144  10.567
41440SOL    HW226218   2.453   8.010  10.610
41441SOL     OW26219  11.981  13.603   0.323
41441SOL    HW126220  12.033  13.650   0.387
41441SOL    HW226221  11.973  13.663   0.249
41442SOL     OW26222  13.030   0.216  10.861
41442SOL    HW126223  13.065   0.244  10.776
41442SOL    HW226224  12.966   0.148  10.839
41443SOL     OW26225  12.196  10.557   9.107
41443SOL    HW126226  12.183  10.651   9.113
41443SOL    HW226227  12.113  10.519   9.133
41444SOL     OW26228   6.252  11.424   5.541
41444SOL    HW126229   6.252  11.506   5.589
41444SOL    HW226230   6.212  11.361   5.601
41445SOL     OW26231   3.524   7.343   0.224
41445SOL    HW126232   3.451   7.404   0.237
41445SOL    HW226233   3.486   7.256   0.238
41446SOL     OW26234   3.753   4.988   4.711
41446SOL    HW126235   3.760   5.024   4.799
41446SOL    HW226236   3.838   5.005   4.671
41447SOL     OW26237   3.982   1.519   1.779
41447SOL    HW126238   3.892   1.503   1.808
41447SOL    HW226239   4.036   1.495   1.854
41448SOL     OW26240  14.868   4.804   9.435
41448SOL    HW126241  14.849   4.732   9.375
41448SOL    HW226242   0.053   4.765   9.503
41449SOL     OW26243  14.605   9.643   0.177
41449SOL    HW126244  14.590   9.736   0.157
41449SOL    HW226245  14.693   9.625   0.144
41450SOL     OW26246   6.404  14.754   9.968
41450SOL    HW126247   6.416  14.805   9.888
41450SOL    HW226248   6.414  14.817  10.039
41451SOL     OW26249   6.922   4.564   6.829
41451SOL    HW126250   6.831   4.555   6.802
41451SOL    HW226251   6.919   4.565   6.925
41452SOL     OW26252   8.366   6.115   1.937
41452SOL    HW126253   8.312   6.180   1.982
41452SOL    HW226254   8.427   6.167   1.885
41453SOL     OW26255   6.897  14.810  13.558
41453SOL    HW126256   6.988  14.841  13.558
41453SOL    HW226257   6.855  14.859  13.629
41454SOL     OW26258   3.081  13.246   4.092
41454SOL    HW126259   3.046  13.236   4.180
41454SOL    HW226260   3.176  13.241   4.103
41455SOL     OW26261   4.566   9.395  14.562
41455SOL    HW126262   4.655   9.365  14.544
41455SOL    HW226263   4.575   9.459  14.633
41456SOL     OW26264   3.010  11.773  13.548
41456SOL    HW126265   3.006  11.801  13.457
41456SOL    HW226266   2.935  11.714  13.559
41457SOL     OW26267   0.369   0.120  14.032
41457SOL    HW126268   0.423   0.078  13.965
41457SOL    HW226269   0.366   0.057  14.104
41458SOL     OW26270   2.570  11.934   5.416
41458SOL    HW126271   2.644  11.904   5.469
41458SOL    HW226272   2.608  12.003   5.360
41459SOL     OW26273  14.169   9.504  12.210
41459SOL    HW126274  14.212   9.588  12.225
41459SOL    HW226275  14.236   9.438  12.229
41460SOL     OW26276   4.580  13.986  11.951
41460SOL    HW126277   4.621  13.934  12.020
41460SOL    HW226278   4.495  13.946  11.937
41461SOL     OW26279   6.107   1.217  10.768
41461SOL    HW126280   6.092   1.173  10.852
41461SOL    HW226281   6.060   1.300  10.776
41462SOL     OW26282  12.719   4.069   2.057
41462SOL    HW126283  12.706   4.164   2.050
41462SOL    HW226284  12.811   4.055   2.035
41463SOL     OW26285  10.577   1.544   2.467
41463SOL    HW126286  10.664   1.572   2.440
41463SOL    HW226287  10.534   1.518   2.385
41464SOL     OW26288  10.686  12.209  13.203
41464SOL    HW126289  10.695  12.303  13.186
41464SOL    HW226290  10.693  12.201  13.298
41465SOL     OW26291  14.307  10.959   4.284
41465SOL    HW126292  14.221  10.953   4.326
41465SOL    HW226293  14.293  11.017   4.209
41466SOL     OW26294   4.358   0.409   3.757
41466SOL    HW126295   4.290   0.361   3.710
41466SOL    HW226296   4.413   0.341   3.796
41467SOL     OW26297  10.692   7.977   2.261
41467SOL    HW126298  10.604   7.962   2.226
41467SOL    HW226299  10.687   8.063   2.303
41468SOL     OW26300  10.567   3.629  13.965
41468SOL    HW126301  10.481   3.587  13.969
41468SOL    HW226302  10.605   3.598  13.883
41469SOL     OW26303   6.275  11.962   0.844
41469SOL    HW126304   6.216  11.915   0.903
41469SOL    HW226305   6.230  12.045   0.827
41470SOL     OW26306  14.475   8.091   3.213
41470SOL    HW126307  14.554   8.096   3.159
41470SOL    HW226308  14.409   8.052   3.156
41471SOL     OW26309   9.766   2.405   4.312
41471SOL    HW126310   9.782   2.353   4.391
41471SOL    HW226311   9.807   2.356   4.241
41472SOL     OW26312   9.893   1.868  14.611
41472SOL    HW126313   9.849   1.788  14.583
41472SOL    HW226314   9.847   1.938  14.567
41473SOL     OW26315  14.238  13.730   2.243
41473SOL    HW126316  14.147  13.756   2.235
41473SOL    HW226317  14.284  13.780   2.175
41474SOL     OW26318   3.472   9.049  12.071
41474SOL    HW126319   3.439   9.093  12.150
41474SOL    HW226320   3.509   9.120  12.018
41475SOL     OW26321  13.796  13.982   2.341
41475SOL    HW126322  13.870  14.006   2.397
41475SOL    HW226323  13.728  14.044   2.365
41476SOL     OW26324  12.757   8.607   4.845
41476SOL    HW126325  12.743   8.694   4.882
41476SOL    HW226326  12.806   8.622   4.765
41477SOL     OW26327   2.234   4.043   2.467
41477SOL    HW126328   2.309   4.058   2.525
41477SOL    HW226329   2.189   4.128   2.464
41478SOL     OW26330  14.241   4.495   9.444
41478SOL    HW126331  14.213   4.582   9.475
41478SOL    HW226332  14.241   4.503   9.348
41479SOL     OW26333   9.090   4.549   5.314
41479SOL    HW126334   9.007   4.581   5.280
41479SOL    HW226335   9.082   4.454   5.311
41480SOL     OW26336   2.017   7.387   5.245
41480SOL    HW126337   2.066   7.308   5.269
41480SOL    HW226338   2.026   7.393   5.150
41481SOL     OW26339  14.711   1.003   7.836
41481SOL    HW126340  14.741   0.971   7.751
41481SOL    HW226341  14.721   1.098   7.832
41482SOL     OW26342  10.027   7.704   6.516
41482SOL    HW126343  10.013   7.738   6.428
41482SOL    HW226344  10.116   7.730   6.538
41483SOL     OW26345   6.129  14.746  10.264
41483SOL    HW126346   6.130  14.835  10.229
41483SOL    HW226347   6.113  14.690  10.188
41484SOL     OW26348  10.720  12.208   1.400
41484SOL    HW126349  10.650  12.147   1.421
41484SOL    HW226350  10.711  12.278   1.464
41485SOL     OW26351   3.755  10.264   0.761
41485SOL    HW126352   3.735  10.357   0.776
41485SOL    HW226353   3.675  10.218   0.786
41486SOL     OW26354   4.596   6.182   8.213
41486SOL    HW126355   4.664   6.130   8.255
41486SOL    HW226356   4.644   6.256   8.175
41487SOL     OW26357  14.161  13.126   6.684
41487SOL    HW126358  14.219  13.202   6.692
41487SOL    HW226359  14.162  13.087   6.772
41488SOL     OW26360   1.287   6.004   4.043
41488SOL    HW126361   1.315   6.088   4.079
41488SOL    HW226362   1.329   6.000   3.957
41489SOL     OW26363  13.176   2.164   2.898
41489SOL    HW126364  13.083   2.152   2.917
41489SOL    HW226365  13.221   2.114   2.966
41490SOL     OW26366   2.249   4.620   5.061
41490SOL    HW126367   2.320   4.556   5.062
41490SOL    HW226368   2.253   4.658   4.973
41491SOL     OW26369   3.426  10.200   4.174
41491SOL    HW126370   3.476  10.127   4.213
41491SOL    HW226371   3.352  10.212   4.233
41492SOL     OW26372   6.358  11.222   4.010
41492SOL    HW126373   6.407  11.199   4.089
41492SOL    HW226374   6.425  11.232   3.942
41493SOL     OW26375  13.035  11.024   9.520
41493SOL    HW126376  13.068  10.962   9.455
41493SOL    HW226377  12.977  10.971   9.576
41494SOL     OW26378   4.296   7.972   8.700
41494SOL    HW126379   4.251   7.911   8.642
41494SOL    HW226380   4.317   7.920   8.777
41495SOL     OW26381  10.185   4.708  10.652
41495SOL    HW126382  10.094   4.733  10.635
41495SOL    HW226383  10.182   4.662  10.736
41496SOL     OW26384  11.082   8.834   0.691
41496SOL    HW126385  11.174   8.847   0.712
41496SOL    HW226386  11.041   8.813   0.775
41497SOL     OW26387   5.513   5.960   1.796
41497SOL    HW126388   5.590   6.010   1.769
41497SOL    HW226389   5.540   5.915   1.875
41498SOL     OW26390   9.571  12.266   3.468
41498SOL    HW126391   9.639  12.208   3.503
41498SOL    HW226392   9.503  12.266   3.535
41499SOL     OW26393   0.375   1.577   5.064
41499SOL    HW126394   0.394   1.508   5.129
41499SOL    HW226395   0.289   1.554   5.029
41500SOL     OW26396   5.835  11.578   6.308
41500SOL    HW126397   5.891  11.500   6.311
41500SOL    HW226398   5.891  11.645   6.268
41501SOL     OW26399   3.073   5.025  13.561
41501SOL    HW126400   2.981   5.046  13.544
41501SOL    HW226401   3.080   5.024  13.657
41502SOL     OW26402   0.117   1.364   0.358
41502SOL    HW126403   0.042   1.324   0.400
41502SOL    HW226404   0.135   1.443   0.409
41503SOL     OW26405   9.266   8.417   5.811
41503SOL    HW126406   9.225   8.499   5.839
41503SOL    HW226407   9.282   8.429   5.717
41504SOL     OW26408  11.091   6.871  10.366
41504SOL    HW126409  11.126   6.874  10.455
41504SOL    HW226410  11.112   6.783  10.335
41505SOL     OW26411   9.959  11.519   5.785
41505SOL    HW126412   9.877  11.488   5.746
41505SOL    HW226413  10.027  11.465   5.744
41506SOL     OW26414   0.263  11.739   5.185
41506SOL    HW126415   0.252  11.738   5.090
41506SOL    HW226416   0.355  11.715   5.199
41507SOL     OW26417  12.216   9.132  11.394
41507SOL    HW126418  12.235   9.173  11.478
41507SOL    HW226419  12.141   9.182  11.360
41508SOL     OW26420   0.292   6.355   8.253
41508SOL    HW126421   0.235   6.361   8.176
41508SOL    HW226422   0.233   6.338   8.326
41509SOL     OW26423   4.958   1.356   3.281
41509SOL    HW126424   4.953   1.363   3.186
41509SOL    HW226425   4.990   1.441   3.310
41510SOL     OW26426   4.903   3.212   2.875
41510SOL    HW126427   4.998   3.224   2.882
41510SOL    HW226428   4.871   3.296   2.842
41511SOL     OW26429   7.319   4.394  10.209
41511SOL    HW126430   7.250   4.423  10.149
41511SOL    HW226431   7.326   4.300  10.193
41512SOL     OW26432   2.749   6.084   9.035
41512SOL    HW126433   2.738   6.016   8.969
41512SOL    HW226434   2.782   6.159   8.987
41513SOL     OW26435  11.109  11.606   6.438
41513SOL    HW126436  11.189  11.573   6.398
41513SOL    HW226437  11.105  11.562   6.524
41514SOL     OW26438   7.388   3.383   2.462
41514SOL    HW126439   7.437   3.369   2.543
41514SOL    HW226440   7.416   3.312   2.404
41515SOL     OW26441   2.894  11.698  11.651
41515SOL    HW126442   2.827  11.727  11.714
41515SOL    HW226443   2.874  11.746  11.571
41516SOL     OW26444  12.451  11.808   1.166
41516SOL    HW126445  12.502  11.887   1.152
41516SOL    HW226446  12.517  11.739   1.177
41517SOL     OW26447   7.059   0.812   2.111
41517SOL    HW126448   7.051   0.728   2.067
41517SOL    HW226449   7.073   0.875   2.041
41518SOL     OW26450   4.081   4.193   0.663
41518SOL    HW126451   4.012   4.241   0.709
41518SOL    HW226452   4.162   4.220   0.707
41519SOL     OW26453  12.777   9.319   5.290
41519SOL    HW126454  12.818   9.357   5.368
41519SOL    HW226455  12.701   9.375   5.273
41520SOL     OW26456   9.439   3.646   6.693
41520SOL    HW126457   9.410   3.559   6.721
41520SOL    HW226458   9.391   3.660   6.611
41521SOL     OW26459  11.877  10.248  13.430
41521SOL    HW126460  11.818  10.174  13.442
41521SOL    HW226461  11.964  10.214  13.450
41522SOL     OW26462  14.795  10.179   7.963
41522SOL    HW126463  14.725  10.166   7.899
41522SOL    HW226464  14.765  10.254   8.016
41523SOL     OW26465  14.828  10.187   9.381
41523SOL    HW126466  14.850  10.279   9.368
41523SOL    HW226467  14.739  10.188   9.417
41524SOL     OW26468  14.831   3.521   7.868
41524SOL    HW126469  14.743   3.492   7.893
41524SOL    HW226470  14.828   3.616   7.875
41525SOL     OW26471   4.659   9.504  10.443
41525SOL    HW126472   4.637   9.562  10.516
41525SOL    HW226473   4.597   9.528  10.374
41526SOL     OW26474   3.753   0.525   0.293
41526SOL    HW126475   3.705   0.443   0.307
41526SOL    HW226476   3.739   0.546   0.201
41527SOL     OW26477  10.724  11.687   8.927
41527SOL    HW126478  10.790  11.754   8.943
41527SOL    HW226479  10.680  11.715   8.847
41528SOL     OW26480   9.811   9.885   9.211
41528SOL    HW126481   9.801   9.964   9.158
41528SOL    HW226482   9.876   9.908   9.277
41529SOL     OW26483   8.362  10.096   6.937
41529SOL    HW126484   8.446  10.136   6.913
41529SOL    HW226485   8.299  10.138   6.879
41530SOL     OW26486   8.771   8.016   6.060
41530SOL    HW126487   8.750   8.091   6.004
41530SOL    HW226488   8.740   8.041   6.147
41531SOL     OW26489  10.806   6.696  11.380
41531SOL    HW126490  10.797   6.663  11.290
41531SOL    HW226491  10.775   6.623  11.435
41532SOL     OW26492  12.723   5.717   6.939
41532SOL    HW126493  12.770   5.742   6.860
41532SOL    HW226494  12.656   5.784   6.950
41533SOL     OW26495   8.807   9.724  14.008
41533SOL    HW126496   8.799   9.657  13.940
41533SOL    HW226497   8.850   9.798  13.964
41534SOL     OW26498   1.609   3.476  12.639
41534SOL    HW126499   1.665   3.404  12.667
41534SOL    HW226500   1.581   3.453  12.551
41535SOL     OW26501   9.265   2.693   6.632
41535SOL    HW126502   9.348   2.650   6.608
41535SOL    HW226503   9.209   2.680   6.556
41536SOL     OW26504   8.762  10.727   3.489
41536SOL    HW126505   8.826  10.689   3.550
41536SOL    HW226506   8.677  10.700   3.524
41537SOL     OW26507   2.444   4.853   9.395
41537SOL    HW126508   2.462   4.776   9.341
41537SOL    HW226509   2.388   4.820   9.466
41538SOL     OW26510   8.013   2.303  12.399
41538SOL    HW126511   7.937   2.276  12.348
41538SOL    HW226512   8.022   2.235  12.466
41539SOL     OW26513  14.606   6.223  13.015
41539SOL    HW126514  14.610   6.316  12.992
41539SOL    HW226515  14.524   6.192  12.976
41540SOL     OW26516   1.217   1.751   5.452
41540SOL    HW126517   1.181   1.665   5.430
41540SOL    HW226518   1.312   1.736   5.458
41541SOL     OW26519   8.505   0.061   9.732
41541SOL    HW126520   8.417   0.031   9.713
41541SOL    HW226521   8.517   0.044   9.826
41542SOL     OW26522  10.380  13.012   6.656
41542SOL    HW126523  10.449  12.977   6.712
41542SOL    HW226524  10.302  13.011   6.711
41543SOL     OW26525   9.805   0.947  11.904
41543SOL    HW126526   9.782   1.039  11.894
41543SOL    HW226527   9.883   0.947  11.960
41544SOL     OW26528   4.549   6.175  11.658
41544SOL    HW126529   4.588   6.124  11.729
41544SOL    HW226530   4.597   6.258  11.660
41545SOL     OW26531   3.406  11.540   5.822
41545SOL    HW126532   3.436  11.524   5.911
41545SOL    HW226533   3.396  11.635   5.817
41546SOL     OW26534   1.205   8.735  14.100
41546SOL    HW126535   1.258   8.811  14.121
41546SOL    HW226536   1.196   8.688  14.183
41547SOL     OW26537   5.378   1.750  12.717
41547SOL    HW126538   5.386   1.710  12.804
41547SOL    HW226539   5.421   1.688  12.658
41548SOL     OW26540   8.643   5.437   0.608
41548SOL    HW126541   8.615   5.373   0.543
41548SOL    HW226542   8.665   5.385   0.685
41549SOL     OW26543   6.901   9.317  10.559
41549SOL    HW126544   6.981   9.288  10.602
41549SOL    HW226545   6.894   9.410  10.582
41550SOL     OW26546  10.244   9.036  12.128
41550SOL    HW126547  10.293   8.955  12.142
41550SOL    HW226548  10.238   9.075  12.215
41551SOL     OW26549  13.657   9.541   7.160
41551SOL    HW126550  13.745   9.532   7.196
41551SOL    HW226551  13.670   9.584   7.076
41552SOL     OW26552  10.295   4.460   3.787
41552SOL    HW126553  10.220   4.402   3.778
41552SOL    HW226554  10.364   4.405   3.822
41553SOL     OW26555   2.109  10.715   7.601
41553SOL    HW126556   2.066  10.637   7.566
41553SOL    HW226557   2.062  10.734   7.682
41554SOL     OW26558   5.801   6.576   9.057
41554SOL    HW126559   5.867   6.571   9.126
41554SOL    HW226560   5.717   6.572   9.103
41555SOL     OW26561  14.041   2.630   8.137
41555SOL    HW126562  14.099   2.667   8.204
41555SOL    HW226563  13.991   2.563   8.183
41556SOL     OW26564   7.397   2.966   4.576
41556SOL    HW126565   7.383   3.004   4.490
41556SOL    HW226566   7.485   2.929   4.572
41557SOL     OW26567   1.917  14.435  13.547
41557SOL    HW126568   1.936  14.523  13.579
41557SOL    HW226569   1.823  14.424  13.560
41558SOL     OW26570   0.434  14.186  11.827
41558SOL    HW126571   0.461  14.259  11.772
41558SOL    HW226572   0.349  14.161  11.793
41559SOL     OW26573   5.007   8.027  10.829
41559SOL    HW126574   5.102   8.028  10.824
41559SOL    HW226575   4.978   8.051  10.741
41560SOL     OW26576  11.144   4.379   2.949
41560SOL    HW126577  11.151   4.408   2.858
41560SOL    HW226578  11.146   4.283   2.943
41561SOL     OW26579   7.352   0.847   4.782
41561SOL    HW126580   7.420   0.810   4.725
41561SOL    HW226581   7.380   0.825   4.871
41562SOL     OW26582   5.659   4.479   0.727
41562SOL    HW126583   5.725   4.540   0.695
41562SOL    HW226584   5.587   4.486   0.664
41563SOL     OW26585   7.369   0.955  13.762
41563SOL    HW126586   7.313   1.015  13.713
41563SOL    HW226587   7.428   0.918  13.696
41564SOL     OW26588   4.659   8.943   3.675
41564SOL    HW126589   4.695   9.030   3.656
41564SOL    HW226590   4.736   8.888   3.690
41565SOL     OW26591   6.793   1.471   6.277
41565SOL    HW126592   6.718   1.527   6.296
41565SOL    HW226593   6.869   1.529   6.285
41566SOL     OW26594   0.110  13.959   2.295
41566SOL    HW126595   0.042  13.900   2.328
41566SOL    HW226596   0.190  13.908   2.297
41567SOL     OW26597   6.838   9.566  13.125
41567SOL    HW126598   6.837   9.587  13.218
41567SOL    HW226599   6.776   9.628  13.085
41568SOL     OW26600  12.230   4.265   1.178
41568SOL    HW126601  12.266   4.351   1.157
41568SOL    HW226602  12.292   4.227   1.240
41569SOL     OW26603  12.908   1.679  12.406
41569SOL    HW126604  12.883   1.651  12.494
41569SOL    HW226605  12.881   1.607  12.349
41570SOL     OW26606  11.835   7.540   7.677
41570SOL    HW126607  11.783   7.556   7.599
41570SOL    HW226608  11.775   7.496   7.738
41571SOL     OW26609  13.595   9.895   2.371
41571SOL    HW126610  13.686   9.920   2.390
41571SOL    HW226611  13.559   9.871   2.456
41572SOL     OW26612   4.680   6.920   5.349
41572SOL    HW126613   4.672   6.918   5.444
41572SOL    HW226614   4.727   6.840   5.327
41573SOL     OW26615   7.522   4.495   9.010
41573SOL    HW126616   7.482   4.408   9.004
41573SOL    HW226617   7.610   4.483   8.974
41574SOL     OW26618   2.262   9.167   9.079
41574SOL    HW126619   2.233   9.202   8.995
41574SOL    HW226620   2.357   9.184   9.080
41575SOL     OW26621   1.181   7.565  11.244
41575SOL    HW126622   1.250   7.606  11.295
41575SOL    HW226623   1.160   7.630  11.176
41576SOL     OW26624   1.248   5.947   5.409
41576SOL    HW126625   1.195   5.936   5.330
41576SOL    HW226626   1.248   6.042   5.424
41577SOL     OW26627   4.405  11.776  13.344
41577SOL    HW126628   4.325  11.766  13.396
41577SOL    HW226629   4.373  11.782  13.254
41578SOL     OW26630  14.860   0.175   8.007
41578SOL    HW126631  14.809   0.244   7.966
41578SOL    HW226632  14.799   0.102   8.015
41579SOL     OW26633   4.191   8.694  14.288
41579SOL    HW126634   4.129   8.691  14.216
41579SOL    HW226635   4.277   8.691  14.246
41580SOL     OW26636   9.253  12.570   4.913
41580SOL    HW126637   9.159  12.566   4.896
41580SOL    HW226638   9.269  12.661   4.938
41581SOL     OW26639   1.774  14.262   6.743
41581SOL    HW126640   1.860  14.295   6.719
41581SOL    HW226641   1.777  14.168   6.722
41582SOL     OW26642  10.509   9.317  12.515
41582SOL    HW126643  10.481   9.367  12.592
41582SOL    HW226644  10.518   9.227  12.546
41583SOL     OW26645   6.343   8.619   9.541
41583SOL    HW126646   6.326   8.528   9.516
41583SOL    HW226647   6.349   8.666   9.458
41584SOL     OW26648   9.536  11.838   2.253
41584SOL    HW126649   9.552  11.927   2.285
41584SOL    HW226650   9.489  11.795   2.324
41585SOL     OW26651   7.125  14.860   5.105
41585SOL    HW126652   7.172   0.062   5.064
41585SOL    HW226653   7.179  14.783   5.088
41586SOL     OW26654   7.304   8.660   8.419
41586SOL    HW126655   7.338   8.662   8.330
41586SOL    HW226656   7.382   8.668   8.475
41587SOL     OW26657  10.851   4.193   5.481
41587SOL    HW126658  10.860   4.191   5.576
41587SOL    HW226659  10.881   4.106   5.452
41588SOL     OW26660  12.737   0.770   1.187
41588SOL    HW126661  12.778   0.851   1.156
41588SOL    HW226662  12.673   0.799   1.252
41589SOL     OW26663   8.105  14.509  13.987
41589SOL    HW126664   8.150  14.425  13.988
41589SOL    HW226665   8.078  14.521  13.896
41590SOL     OW26666  12.294   8.800   8.361
41590SOL    HW126667  12.299   8.878   8.307
41590SOL    HW226668  12.214   8.756   8.333
41591SOL     OW26669   4.449  13.992   6.069
41591SOL    HW126670   4.422  13.903   6.046
41591SOL    HW226671   4.529  13.980   6.120
41592SOL     OW26672  13.188   3.112   6.147
41592SOL    HW126673  13.243   3.034   6.138
41592SOL    HW226674  13.112   3.094   6.090
41593SOL     OW26675  14.326   6.739   2.876
41593SOL    HW126676  14.307   6.770   2.788
41593SOL    HW226677  14.255   6.678   2.895
41594SOL     OW26678   3.900   9.617   0.070
41594SOL    HW126679   3.991   9.597   0.050
41594SOL    HW226680   3.865   9.656  14.859
41595SOL     OW26681  12.666   3.816  13.402
41595SOL    HW126682  12.734   3.798  13.337
41595SOL    HW226683  12.680   3.907  13.427
41596SOL     OW26684  13.902  12.921   8.528
41596SOL    HW126685  13.937  12.966   8.605
41596SOL    HW226686  13.811  12.901   8.550
41597SOL     OW26687  10.780   1.603  12.024
41597SOL    HW126688  10.808   1.661  12.094
41597SOL    HW226689  10.828   1.634  11.947
41598SOL     OW26690   3.502  11.752   6.883
41598SOL    HW126691   3.559  11.828   6.873
41598SOL    HW226692   3.498  11.738   6.977
41599SOL     OW26693   0.211   5.372   2.431
41599SOL    HW126694   0.224   5.281   2.405
41599SOL    HW226695   0.226   5.423   2.351
41600SOL     OW26696  11.976   0.799   6.090
41600SOL    HW126697  12.027   0.757   6.021
41600SOL    HW226698  11.927   0.868   6.045
41601SOL     OW26699   2.376   4.960   5.736
41601SOL    HW126700   2.390   5.015   5.813
41601SOL    HW226701   2.464   4.940   5.704
41602SOL     OW26702   0.794   5.084   2.688
41602SOL    HW126703   0.806   5.171   2.648
41602SOL    HW226704   0.827   5.093   2.777
41603SOL     OW26705  11.446  13.878   9.164
41603SOL    HW126706  11.390  13.888   9.087
41603SOL    HW226707  11.409  13.938   9.228
41604SOL     OW26708   0.434   2.881  11.268
41604SOL    HW126709   0.400   2.815  11.207
41604SOL    HW226710   0.481   2.831  11.334
41605SOL     OW26711   5.720  10.016   8.820
41605SOL    HW126712   5.771  10.097   8.829
41605SOL    HW226713   5.631  10.046   8.803
41606SOL     OW26714   3.402   8.524  11.577
41606SOL    HW126715   3.389   8.605  11.625
41606SOL    HW226716   3.335   8.465  11.612
41607SOL     OW26717   6.676   7.638   3.037
41607SOL    HW126718   6.710   7.549   3.048
41607SOL    HW226719   6.737   7.693   3.086
41608SOL     OW26720   2.190   0.258  10.698
41608SOL    HW126721   2.258   0.321  10.676
41608SOL    HW226722   2.132   0.257  10.622
41609SOL     OW26723  11.785   5.073   3.870
41609SOL    HW126724  11.839   4.998   3.893
41609SOL    HW226725  11.716   5.074   3.937
41610SOL     OW26726   9.199   3.867   9.329
41610SOL    HW126727   9.204   3.960   9.308
41610SOL    HW226728   9.196   3.824   9.244
41611SOL     OW26729   2.172  11.317   0.794
41611SOL    HW126730   2.149  11.255   0.864
41611SOL    HW226731   2.106  11.386   0.803
41612SOL     OW26732   4.943   7.784  10.984
41612SOL    HW126733   4.849   7.778  11.001
41612SOL    HW226734   4.953   7.864  10.932
41613SOL     OW26735  12.534   0.803  12.586
41613SOL    HW126736  12.621   0.764  12.577
41613SOL    HW226737  12.503   0.775  12.672
41614SOL     OW26738  12.933   2.447  13.864
41614SOL    HW126739  12.868   2.462  13.932
41614SOL    HW226740  12.978   2.531  13.855
41615SOL     OW26741   3.247  12.895   3.450
41615SOL    HW126742   3.159  12.933   3.445
41615SOL    HW226743   3.252  12.857   3.537
41616SOL     OW26744   5.850   9.034  12.025
41616SOL    HW126745   5.900   9.094  11.970
41616SOL    HW226746   5.791   9.091  12.074
41617SOL     OW26747   2.164   3.409   4.695
41617SOL    HW126748   2.196   3.406   4.605
41617SOL    HW226749   2.071   3.388   4.688
41618SOL     OW26750  11.143   8.375   5.865
41618SOL    HW126751  11.217   8.406   5.813
41618SOL    HW226752  11.068   8.381   5.806
41619SOL     OW26753   3.331   3.813   9.162
41619SOL    HW126754   3.327   3.735   9.218
41619SOL    HW226755   3.424   3.826   9.146
41620SOL     OW26756  12.222   3.544  12.172
41620SOL    HW126757  12.313   3.541  12.143
41620SOL    HW226758  12.224   3.510  12.261
41621SOL     OW26759   6.294   1.541  14.072
41621SOL    HW126760   6.243   1.615  14.102
41621SOL    HW226761   6.367   1.579  14.023
41622SOL     OW26762   8.280   8.811   0.869
41622SOL    HW126763   8.243   8.860   0.942
41622SOL    HW226764   8.348   8.757   0.909
41623SOL     OW26765   9.837   2.751  11.066
41623SOL    HW126766   9.907   2.746  11.001
41623SOL    HW226767   9.878   2.788  11.144
41624SOL     OW26768   0.600   1.360   6.462
41624SOL    HW126769   0.553   1.286   6.502
41624SOL    HW226770   0.543   1.387   6.390
41625SOL     OW26771   7.128   9.537   4.085
41625SOL    HW126772   7.174   9.521   4.168
41625SOL    HW226773   7.092   9.451   4.061
41626SOL     OW26774  12.733  14.866   2.018
41626SOL    HW126775  12.727  14.850   1.924
41626SOL    HW226776  12.661  14.815   2.056
41627SOL     OW26777   5.842   0.782  11.508
41627SOL    HW126778   5.924   0.744  11.540
41627SOL    HW226779   5.867   0.868  11.474
41628SOL     OW26780   6.379  10.119  10.321
41628SOL    HW126781   6.470  10.146  10.336
41628SOL    HW226782   6.327  10.194  10.349
41629SOL     OW26783  10.250  13.539  14.703
41629SOL    HW126784  10.235  13.546  14.609
41629SOL    HW226785  10.322  13.477  14.711
41630SOL     OW26786  12.711   2.006  14.069
41630SOL    HW126787  12.802   1.976  14.074
41630SOL    HW226788  12.688   2.000  13.976
41631SOL     OW26789   7.916   8.427  13.654
41631SOL    HW126790   7.839   8.390  13.611
41631SOL    HW226791   7.924   8.376  13.735
41632SOL     OW26792  10.068   6.562   5.996
41632SOL    HW126793  10.144   6.535   6.048
41632SOL    HW226794  10.034   6.638   6.042
41633SOL     OW26795  11.307  11.832   1.172
41633SOL    HW126796  11.306  11.806   1.080
41633SOL    HW226797  11.237  11.897   1.180
41634SOL     OW26798  10.579  11.522   2.653
41634SOL    HW126799  10.588  11.542   2.560
41634SOL    HW226800  10.650  11.460   2.671
41635SOL     OW26801   9.637  13.301  14.037
41635SOL    HW126802   9.646  13.300  14.133
41635SOL    HW226803   9.691  13.228  14.007
41636SOL     OW26804   1.443   1.145   1.506
41636SOL    HW126805   1.446   1.056   1.472
41636SOL    HW226806   1.365   1.148   1.561
41637SOL     OW26807  13.359   5.976   8.893
41637SOL    HW126808  13.357   5.881   8.884
41637SOL    HW226809  13.425   6.005   8.830
41638SOL     OW26810   6.370   5.949   5.638
41638SOL    HW126811   6.287   5.930   5.682
41638SOL    HW226812   6.418   5.866   5.640
41639SOL     OW26813   9.785   0.885   2.746
41639SOL    HW126814   9.841   0.851   2.816
41639SOL    HW226815   9.735   0.956   2.787
41640SOL     OW26816   6.778  14.631  14.559
41640SOL    HW126817   6.715  14.700  14.578
41640SOL    HW226818   6.778  14.576  14.637
41641SOL     OW26819   6.450   6.206   8.547
41641SOL    HW126820   6.411   6.133   8.499
41641SOL    HW226821   6.494   6.259   8.480
41642SOL     OW26822  14.316   4.897   9.321
41642SOL    HW126823  14.398   4.851   9.341
41642SOL    HW226824  14.271   4.906   9.405
41643SOL     OW26825   4.062   0.058   9.438
41643SOL    HW126826   4.074  14.843   9.483
41643SOL    HW226827   4.133   0.113   9.472
41644SOL     OW26828  13.769   9.648   1.655
41644SOL    HW126829  13.858   9.649   1.689
41644SOL    HW226830  13.759   9.733   1.611
41645SOL     OW26831   5.807   8.721   4.855
41645SOL    HW126832   5.714   8.719   4.834
41645SOL    HW226833   5.811   8.694   4.947
41646SOL     OW26834   1.875   8.216   9.966
41646SOL    HW126835   1.796   8.189  10.014
41646SOL    HW226836   1.928   8.137   9.962
41647SOL     OW26837  10.690   8.217   1.794
41647SOL    HW126838  10.721   8.257   1.712
41647SOL    HW226839  10.756   8.240   1.859
41648SOL     OW26840   3.161  12.973  11.112
41648SOL    HW126841   3.134  13.060  11.081
41648SOL    HW226842   3.147  12.977  11.207
41649SOL     OW26843   3.437   3.573   6.302
41649SOL    HW126844   3.441   3.509   6.372
41649SOL    HW226845   3.401   3.525   6.227
41650SOL     OW26846   2.497   6.473  11.421
41650SOL    HW126847   2.540   6.426  11.350
41650SOL    HW226848   2.513   6.419  11.499
41651SOL     OW26849   1.749   6.918  13.221
41651SOL    HW126850   1.687   6.944  13.289
41651SOL    HW226851   1.827   6.970  13.239
41652SOL     OW26852   1.662   9.082   1.448
41652SOL    HW126853   1.752   9.051   1.459
41652SOL    HW226854   1.609   9.002   1.447
41653SOL     OW26855   4.129  10.640   8.384
41653SOL    HW126856   4.177  10.561   8.411
41653SOL    HW226857   4.196  10.695   8.344
41654SOL     OW26858  14.814   1.365   5.943
41654SOL    HW126859  14.725   1.378   5.975
41654SOL    HW226860  14.869   1.379   6.020
41655SOL     OW26861  10.645   6.754   0.678
41655SOL    HW126862  10.688   6.764   0.763
41655SOL    HW226863  10.577   6.822   0.677
41656SOL     OW26864  11.717  12.092   4.802
41656SOL    HW126865  11.632  12.105   4.842
41656SOL    HW226866  11.750  12.010   4.839
41657SOL     OW26867   4.811  13.010   8.217
41657SOL    HW126868   4.816  12.948   8.290
41657SOL    HW226869   4.739  12.978   8.163
41658SOL     OW26870   0.091   7.043  11.641
41658SOL    HW126871   0.089   6.951  11.669
41658SOL    HW226872   0.171   7.052  11.590
41659SOL     OW26873  10.913  11.689   1.921
41659SOL    HW126874  10.828  11.723   1.894
41659SOL    HW226875  10.954  11.661   1.839
41660SOL     OW26876   0.414   6.633   9.542
41660SOL    HW126877   0.508   6.613   9.542
41660SOL    HW226878   0.373   6.558   9.586
41661SOL     OW26879   4.642   3.214   7.934
41661SOL    HW126880   4.560   3.169   7.955
41661SOL    HW226881   4.621   3.268   7.858
41662SOL     OW26882   2.270  10.128   0.642
41662SOL    HW126883   2.338  10.175   0.689
41662SOL    HW226884   2.264  10.172   0.557
41663SOL     OW26885   1.367  12.340   4.695
41663SOL    HW126886   1.458  12.325   4.721
41663SOL    HW226887   1.319  12.340   4.778
41664SOL     OW26888  14.817   5.920  11.170
41664SOL    HW126889  14.741   5.975  11.150
41664SOL    HW226890   0.020   5.959  11.121
41665SOL     OW26891   6.631   2.423  10.418
41665SOL    HW126892   6.726   2.434  10.425
41665SOL    HW226893   6.618   2.379  10.334
41666SOL     OW26894   7.177   8.319  10.783
41666SOL    HW126895   7.115   8.366  10.727
41666SOL    HW226896   7.260   8.364  10.770
41667SOL     OW26897   9.789   2.461   9.799
41667SOL    HW126898   9.714   2.405   9.820
41667SOL    HW226899   9.773   2.489   9.709
41668SOL     OW26900   3.879   0.273   4.397
41668SOL    HW126901   3.904   0.278   4.304
41668SOL    HW226902   3.785   0.286   4.397
41669SOL     OW26903   0.460   2.778   6.974
41669SOL    HW126904   0.437   2.800   7.065
41669SOL    HW226905   0.545   2.736   6.981
41670SOL     OW26906  12.143   6.472   7.847
41670SOL    HW126907  12.226   6.426   7.841
41670SOL    HW226908  12.145   6.536   7.775
41671SOL     OW26909  10.303   0.822   3.015
41671SOL    HW126910  10.266   0.843   3.100
41671SOL    HW226911  10.345   0.902   2.985
41672SOL     OW26912   7.859   6.147   9.210
41672SOL    HW126913   7.860   6.115   9.119
41672SOL    HW226914   7.839   6.070   9.262
41673SOL     OW26915  11.056   5.997   8.217
41673SOL    HW126916  10.971   5.954   8.228
41673SOL    HW226917  11.036   6.091   8.220
41674SOL     OW26918  13.387   5.188  11.759
41674SOL    HW126919  13.398   5.274  11.719
41674SOL    HW226920  13.332   5.204  11.836
41675SOL     OW26921  13.040  11.883  11.722
41675SOL    HW126922  13.100  11.953  11.747
41675SOL    HW226923  12.958  11.929  11.702
41676SOL     OW26924   0.400   9.948   0.137
41676SOL    HW126925   0.405   9.963   0.232
41676SOL    HW226926   0.426   9.856   0.126
41677SOL     OW26927  11.117   0.431   9.782
41677SOL    HW126928  11.159   0.346   9.774
41677SOL    HW226929  11.027   0.417   9.753
41678SOL     OW26930  10.272  12.197   8.201
41678SOL    HW126931  10.220  12.136   8.252
41678SOL    HW226932  10.362  12.181   8.228
41679SOL     OW26933   1.953   4.441  10.443
41679SOL    HW126934   2.035   4.425  10.396
41679SOL    HW226935   1.927   4.355  10.476
41680SOL     OW26936   3.915   9.820  11.834
41680SOL    HW126937   3.909   9.726  11.813
41680SOL    HW226938   4.004   9.844  11.809
41681SOL     OW26939  13.495  10.816  11.878
41681SOL    HW126940  13.467  10.794  11.790
41681SOL    HW226941  13.484  10.734  11.928
41682SOL     OW26942   1.756   2.705   2.696
41682SOL    HW126943   1.769   2.792   2.659
41682SOL    HW226944   1.829   2.694   2.758
41683SOL     OW26945  13.503  11.515  10.751
41683SOL    HW126946  13.551  11.574  10.693
41683SOL    HW226947  13.554  11.434  10.750
41684SOL     OW26948  14.753  13.467   8.949
41684SOL    HW126949  14.693  13.541   8.942
41684SOL    HW226950  14.841  13.507   8.946
41685SOL     OW26951   1.517  10.594  10.803
41685SOL    HW126952   1.546  10.680  10.835
41685SOL    HW226953   1.460  10.615  10.729
41686SOL     OW26954  11.270   3.347   8.268
41686SOL    HW126955  11.209   3.286   8.310
41686SOL    HW226956  11.355   3.306   8.277
41687SOL     OW26957   4.272   5.023  12.471
41687SOL    HW126958   4.215   4.953  12.440
41687SOL    HW226959   4.259   5.025  12.566
41688SOL     OW26960  13.523   8.361   7.964
41688SOL    HW126961  13.509   8.348   7.870
41688SOL    HW226962  13.503   8.276   8.004
41689SOL     OW26963  11.649   6.228  11.089
41689SOL    HW126964  11.639   6.316  11.053
41689SOL    HW226965  11.731   6.230  11.138
41690SOL     OW26966   4.380   5.240   3.068
41690SOL    HW126967   4.285   5.229   3.063
41690SOL    HW226968   4.413   5.205   2.986
41691SOL     OW26969   3.826   8.910   7.473
41691SOL    HW126970   3.840   8.859   7.394
41691SOL    HW226971   3.731   8.915   7.483
41692SOL     OW26972   8.425   5.540   8.261
41692SOL    HW126973   8.449   5.595   8.336
41692SOL    HW226974   8.396   5.602   8.194
41693SOL     OW26975   9.299   4.812   9.043
41693SOL    HW126976   9.336   4.761   8.970
41693SOL    HW226977   9.363   4.881   9.059
41694SOL     OW26978   2.815   7.260   5.790
41694SOL    HW126979   2.892   7.223   5.832
41694SOL    HW226980   2.819   7.354   5.809
41695SOL     OW26981  14.663   8.767   8.037
41695SOL    HW126982  14.631   8.677   8.028
41695SOL    HW226983  14.683   8.777   8.130
41696SOL     OW26984   2.730   5.006   8.732
41696SOL    HW126985   2.764   5.061   8.803
41696SOL    HW226986   2.727   4.918   8.770
41697SOL     OW26987  13.099   1.695   4.763
41697SOL    HW126988  13.150   1.664   4.839
41697SOL    HW226989  13.160   1.690   4.690
41698SOL     OW26990   0.561   1.778   5.122
41698SOL    HW126991   0.630   1.713   5.108
41698SOL    HW226992   0.482   1.736   5.088
41699SOL     OW26993   5.956   4.768   4.155
41699SOL    HW126994   5.879   4.773   4.099
41699SOL    HW226995   5.959   4.676   4.183
41700SOL     OW26996   0.358   7.555   3.925
41700SOL    HW126997   0.336   7.632   3.977
41700SOL    HW226998   0.355   7.584   3.834
41701SOL     OW26999   0.905   9.043   2.790
41701SOL    HW127000   0.932   9.124   2.747
41701SOL    HW227001   0.889   9.069   2.881
41702SOL     OW27002   1.276  10.282  11.620
41702SOL    HW127003   1.245  10.363  11.579
41702SOL    HW227004   1.308  10.309  11.706
41703SOL     OW27005   1.471   7.662  12.674
41703SOL    HW127006   1.459   7.648  12.768
41703SOL    HW227007   1.554   7.708  12.666
41704SOL     OW27008   6.980  14.752   6.701
41704SOL    HW127009   7.011  14.798   6.623
41704SOL    HW227010   6.914  14.691   6.668
41705SOL     OW27011  13.035   8.142  11.731
41705SOL    HW127012  12.953   8.094  11.741
41705SOL    HW227013  13.079   8.101  11.657
41706SOL     OW27014   5.096   3.910   2.706
41706SOL    HW127015   5.136   3.844   2.763
41706SOL    HW227016   5.109   3.877   2.618
41707SOL     OW27017   7.746  11.523  11.494
41707SOL    HW127018   7.652  11.537  11.504
41707SOL    HW227019   7.764  11.546  11.403
41708SOL     OW27020   0.010  10.898   9.561
41708SOL    HW127021  14.827  10.861   9.491
41708SOL    HW227022  14.868  10.993   9.552
41709SOL     OW27023   5.602   2.568  14.091
41709SOL    HW127024   5.555   2.527  14.018
41709SOL    HW227025   5.542   2.561  14.165
41710SOL     OW27026   0.061   1.402   6.181
41710SOL    HW127027  14.854   1.350   6.203
41710SOL    HW227028   0.125   1.383   6.250
41711SOL     OW27029   7.658  11.236   2.762
41711SOL    HW127030   7.712  11.158   2.777
41711SOL    HW227031   7.609  11.216   2.682
41712SOL     OW27032   8.819   0.999  13.085
41712SOL    HW127033   8.766   0.999  13.005
41712SOL    HW227034   8.795   1.080  13.130
41713SOL     OW27035  10.758   4.000   9.945
41713SOL    HW127036  10.827   4.032  10.003
41713SOL    HW227037  10.803   3.941   9.885
41714SOL     OW27038  14.727   9.826   9.011
41714SOL    HW127039  14.696   9.916   9.022
41714SOL    HW227040  14.807   9.835   8.959
41715SOL     OW27041  12.142   5.134  14.592
41715SOL    HW127042  12.187   5.051  14.605
41715SOL    HW227043  12.061   5.125  14.641
41716SOL     OW27044   1.941   3.750  11.174
41716SOL    HW127045   2.027   3.791  11.171
41716SOL    HW227046   1.882   3.821  11.201
41717SOL     OW27047   4.550   6.951   0.368
41717SOL    HW127048   4.594   6.898   0.435
41717SOL    HW227049   4.508   6.888   0.310
41718SOL     OW27050   2.243   4.440   7.643
41718SOL    HW127051   2.292   4.446   7.561
41718SOL    HW227052   2.186   4.516   7.644
41719SOL     OW27053  12.897  12.811  13.425
41719SOL    HW127054  12.973  12.832  13.370
41719SOL    HW227055  12.826  12.796  13.362
41720SOL     OW27056   6.061   5.501   9.602
41720SOL    HW127057   6.004   5.428   9.576
41720SOL    HW227058   6.110   5.523   9.524
41721SOL     OW27059  10.839   5.836  11.032
41721SOL    HW127060  10.753   5.826  10.993
41721SOL    HW227061  10.886   5.756  11.008
41722SOL     OW27062  10.034   5.976  12.265
41722SOL    HW127063  10.010   6.068  12.278
41722SOL    HW227064   9.960   5.939  12.216
41723SOL     OW27065  12.986   6.262   9.349
41723SOL    HW127066  13.036   6.315   9.287
41723SOL    HW227067  12.895   6.282   9.328
41724SOL     OW27068   7.303   5.701  14.241
41724SOL    HW127069   7.248   5.627  14.266
41724SOL    HW227070   7.380   5.661  14.201
41725SOL     OW27071   6.881  12.201   8.166
41725SOL    HW127072   6.958  12.189   8.220
41725SOL    HW227073   6.809  12.215   8.228
41726SOL     OW27074   1.032  10.892   9.496
41726SOL    HW127075   1.056  10.799   9.491
41726SOL    HW227076   1.069  10.931   9.416
41727SOL     OW27077  12.831   6.171  11.132
41727SOL    HW127078  12.760   6.223  11.094
41727SOL    HW227079  12.820   6.182  11.227
41728SOL     OW27080   2.616  10.022   5.689
41728SOL    HW127081   2.531  10.062   5.673
41728SOL    HW227082   2.595   9.930   5.710
41729SOL     OW27083  14.405   8.950   0.130
41729SOL    HW127084  14.443   9.036   0.112
41729SOL    HW227085  14.430   8.932   0.221
41730SOL     OW27086  10.661   6.011   5.480
41730SOL    HW127087  10.688   6.046   5.565
41730SOL    HW227088  10.723   6.049   5.418
41731SOL     OW27089  14.541   2.898  13.675
41731SOL    HW127090  14.481   2.879  13.602
41731SOL    HW227091  14.528   2.825  13.736
41732SOL     OW27092  13.601   6.068   0.593
41732SOL    HW127093  13.535   6.078   0.524
41732SOL    HW227094  13.678   6.113   0.559
41733SOL     OW27095   6.328  13.797  11.410
41733SOL    HW127096   6.340  13.884  11.448
41733SOL    HW227097   6.413  13.777  11.370
41734SOL     OW27098  13.227   0.836   9.320
41734SOL    HW127099  13.171   0.816   9.396
41734SOL    HW227100  13.182   0.795   9.246
41735SOL     OW27101   0.228   8.489   8.321
41735SOL    HW127102   0.267   8.577   8.324
41735SOL    HW227103   0.163   8.494   8.251
41736SOL     OW27104  13.138  14.108   0.291
41736SOL    HW127105  13.146  14.104   0.386
41736SOL    HW227106  13.093  14.190   0.273
41737SOL     OW27107   7.436  13.938   3.032
41737SOL    HW127108   7.441  14.032   3.010
41737SOL    HW227109   7.507  13.924   3.094
41738SOL     OW27110  13.088   9.291  14.400
41738SOL    HW127111  13.103   9.385  14.408
41738SOL    HW227112  13.174   9.252  14.413
41739SOL     OW27113   2.762   2.519   5.723
41739SOL    HW127114   2.828   2.464   5.765
41739SOL    HW227115   2.716   2.562   5.796
41740SOL     OW27116  13.369   4.726   0.449
41740SOL    HW127117  13.440   4.664   0.467
41740SOL    HW227118  13.301   4.703   0.512
41741SOL     OW27119  10.299   6.580   5.009
41741SOL    HW127120  10.232   6.575   4.941
41741SOL    HW227121  10.308   6.674   5.027
41742SOL     OW27122   3.024   5.465   7.461
41742SOL    HW127123   2.980   5.475   7.545
41742SOL    HW227124   3.064   5.379   7.465
41743SOL     OW27125   8.175   9.306   5.515
41743SOL    HW127126   8.217   9.254   5.583
41743SOL    HW227127   8.084   9.277   5.515
41744SOL     OW27128  11.916   7.397  12.721
41744SOL    HW127129  11.822   7.410  12.710
41744SOL    HW227130  11.932   7.310  12.685
41745SOL     OW27131   1.808   0.944  10.262
41745SOL    HW127132   1.773   0.905  10.182
41745SOL    HW227133   1.770   0.892  10.333
41746SOL     OW27134  14.153  14.530   4.355
41746SOL    HW127135  14.157  14.455   4.414
41746SOL    HW227136  14.084  14.509   4.293
41747SOL     OW27137   0.800  10.738  10.970
41747SOL    HW127138   0.859  10.724  11.044
41747SOL    HW227139   0.719  10.694  10.996
41748SOL     OW27140   9.722   1.595   3.194
41748SOL    HW127141   9.763   1.682   3.190
41748SOL    HW227142   9.695   1.586   3.285
41749SOL     OW27143   4.469   7.452   3.691
41749SOL    HW127144   4.481   7.457   3.596
41749SOL    HW227145   4.436   7.364   3.706
41750SOL     OW27146   7.074  12.172   8.374
41750SOL    HW127147   7.152  12.185   8.321
41750SOL    HW227148   7.102  12.114   8.445
41751SOL     OW27149   4.514   8.000   5.816
41751SOL    HW127150   4.474   8.036   5.895
41751SOL    HW227151   4.457   8.027   5.745
41752SOL     OW27152   3.024   6.794   1.355
41752SOL    HW127153   3.077   6.724   1.393
41752SOL    HW227154   3.026   6.864   1.420
41753SOL     OW27155   1.309   1.502  11.718
41753SOL    HW127156   1.261   1.434  11.766
41753SOL    HW227157   1.282   1.584  11.759
41754SOL     OW27158   8.246   5.792   0.976
41754SOL    HW127159   8.212   5.765   0.891
41754SOL    HW227160   8.170   5.791   1.034
41755SOL     OW27161   8.632  13.326   3.084
41755SOL    HW127162   8.595  13.262   3.024
41755SOL    HW227163   8.562  13.391   3.096
41756SOL     OW27164   6.832   4.760   0.623
41756SOL    HW127165   6.812   4.837   0.570
41756SOL    HW227166   6.749   4.734   0.661
41757SOL     OW27167   6.229   4.211   7.100
41757SOL    HW127168   6.145   4.227   7.056
41757SOL    HW227169   6.262   4.299   7.121
41758SOL     OW27170   5.404  13.456   2.912
41758SOL    HW127171   5.390  13.476   3.005
41758SOL    HW227172   5.406  13.542   2.869
41759SOL     OW27173  10.788  11.130  13.753
41759SOL    HW127174  10.837  11.141  13.671
41759SOL    HW227175  10.697  11.137  13.727
41760SOL     OW27176  12.253  11.213   0.906
41760SOL    HW127177  12.182  11.257   0.859
41760SOL    HW227178  12.314  11.186   0.837
41761SOL     OW27179  10.006   6.054  14.093
41761SOL    HW127180   9.961   5.970  14.104
41761SOL    HW227181   9.941   6.109  14.050
41762SOL     OW27182   6.078  14.017   2.439
41762SOL    HW127183   6.064  14.089   2.500
41762SOL    HW227184   6.172  13.997   2.448
41763SOL     OW27185  11.170  11.037   0.380
41763SOL    HW127186  11.177  10.965   0.443
41763SOL    HW227187  11.084  11.026   0.340
41764SOL     OW27188  14.398   0.640   0.290
41764SOL    HW127189  14.452   0.628   0.369
41764SOL    HW227190  14.401   0.734   0.273
41765SOL     OW27191   2.307   1.821  13.850
41765SOL    HW127192   2.214   1.798  13.858
41765SOL    HW227193   2.311   1.880  13.774
41766SOL     OW27194   8.753   0.646   6.412
41766SOL    HW127195   8.831   0.605   6.374
41766SOL    HW227196   8.723   0.584   6.478
41767SOL     OW27197   7.645  13.244  10.238
41767SOL    HW127198   7.606  13.182  10.177
41767SOL    HW227199   7.571  13.281  10.287
41768SOL     OW27200  13.769   0.419   8.766
41768SOL    HW127201  13.707   0.352   8.793
41768SOL    HW227202  13.787   0.399   8.674
41769SOL     OW27203   5.711  13.581  12.309
41769SOL    HW127204   5.687  13.570  12.401
41769SOL    HW227205   5.777  13.513  12.293
41770SOL     OW27206   5.368  14.291  14.089
41770SOL    HW127207   5.291  14.319  14.139
41770SOL    HW227208   5.432  14.265  14.156
41771SOL     OW27209   7.651   7.899   8.908
41771SOL    HW127210   7.666   7.810   8.875
41771SOL    HW227211   7.564   7.922   8.876
41772SOL     OW27212   1.279   6.846   7.575
41772SOL    HW127213   1.253   6.885   7.492
41772SOL    HW227214   1.343   6.907   7.612
41773SOL     OW27215  11.158  10.825   1.307
41773SOL    HW127216  11.160  10.840   1.401
41773SOL    HW227217  11.158  10.913   1.269
41774SOL     OW27218   3.718   5.092  11.351
41774SOL    HW127219   3.783   5.077  11.420
41774SOL    HW227220   3.771   5.117  11.275
41775SOL     OW27221   8.160  14.536  11.407
41775SOL    HW127222   8.248  14.544  11.369
41775SOL    HW227223   8.106  14.596  11.356
41776SOL     OW27224   7.293   8.487   2.469
41776SOL    HW127225   7.367   8.435   2.503
41776SOL    HW227226   7.333   8.568   2.438
41777SOL     OW27227   4.126  13.882   7.241
41777SOL    HW127228   4.118  13.972   7.273
41777SOL    HW227229   4.125  13.890   7.146
41778SOL     OW27230   1.012  14.809   8.062
41778SOL    HW127231   1.094  14.858   8.071
41778SOL    HW227232   0.958  14.841   8.135
41779SOL     OW27233  10.189  13.072  12.363
41779SOL    HW127234  10.120  13.060  12.298
41779SOL    HW227235  10.255  13.007  12.340
41780SOL     OW27236   5.661   0.089   5.376
41780SOL    HW127237   5.674  14.869   5.345
41780SOL    HW227238   5.655   0.081   5.471
41781SOL     OW27239   5.487  12.339   7.255
41781SOL    HW127240   5.581  12.331   7.240
41781SOL    HW227241   5.447  12.316   7.171
41782SOL     OW27242   5.256  13.533   9.051
41782SOL    HW127243   5.326  13.566   8.994
41782SOL    HW227244   5.297  13.463   9.102
41783SOL     OW27245   0.438   5.760   2.069
41783SOL    HW127246   0.503   5.691   2.082
41783SOL    HW227247   0.464   5.804   1.989
41784SOL     OW27248  12.018  11.398   3.665
41784SOL    HW127249  12.005  11.489   3.639
41784SOL    HW227250  12.065  11.403   3.748
41785SOL     OW27251  14.412   6.464   2.395
41785SOL    HW127252  14.439   6.465   2.487
41785SOL    HW227253  14.480   6.513   2.350
41786SOL     OW27254   4.015   7.058   5.647
41786SOL    HW127255   3.966   7.133   5.682
41786SOL    HW227256   3.957   7.020   5.581
41787SOL     OW27257  10.134   9.493  11.513
41787SOL    HW127258  10.185   9.505  11.594
41787SOL    HW227259  10.190   9.440  11.457
41788SOL     OW27260   4.264   0.579  14.552
41788SOL    HW127261   4.314   0.615  14.479
41788SOL    HW227262   4.322   0.587  14.627
41789SOL     OW27263   7.594   8.659   0.677
41789SOL    HW127264   7.611   8.710   0.756
41789SOL    HW227265   7.537   8.588   0.706
41790SOL     OW27266  14.601  10.629   4.888
41790SOL    HW127267  14.529  10.676   4.930
41790SOL    HW227268  14.573  10.538   4.885
41791SOL     OW27269   7.391   4.421   1.832
41791SOL    HW127270   7.384   4.507   1.790
41791SOL    HW227271   7.301   4.392   1.846
41792SOL     OW27272   7.711   2.320  12.729
41792SOL    HW127273   7.637   2.259  12.726
41792SOL    HW227274   7.776   2.276  12.784
41793SOL     OW27275   6.041  13.514  13.575
41793SOL    HW127276   5.975  13.581  13.593
41793SOL    HW227277   6.088  13.505  13.658
41794SOL     OW27278   3.351   6.620   9.081
41794SOL    HW127279   3.428   6.651   9.034
41794SOL    HW227280   3.371   6.529   9.102
41795SOL     OW27281   6.943   2.804  11.211
41795SOL    HW127282   6.960   2.734  11.275
41795SOL    HW227283   6.942   2.759  11.126
41796SOL     OW27284  14.144   5.097   3.116
41796SOL    HW127285  14.208   5.166   3.134
41796SOL    HW227286  14.142   5.091   3.021
41797SOL     OW27287  13.794   6.068  14.366
41797SOL    HW127288  13.850   6.065  14.443
41797SOL    HW227289  13.705   6.059  14.401
41798SOL     OW27290  12.933  12.966  10.486
41798SOL    HW127291  12.918  12.916  10.406
41798SOL    HW227292  12.907  12.906  10.556
41799SOL     OW27293   1.051   5.088   1.287
41799SOL    HW127294   0.964   5.119   1.310
41799SOL    HW227295   1.055   4.999   1.320
41800SOL     OW27296  14.692   1.010   9.315
41800SOL    HW127297  14.734   1.046   9.394
41800SOL    HW227298  14.697   0.915   9.327
41801SOL     OW27299  14.473   4.873   3.053
41801SOL    HW127300  14.505   4.823   3.128
41801SOL    HW227301  14.465   4.963   3.085
41802SOL     OW27302  11.898   0.721   6.347
41802SOL    HW127303  11.911   0.768   6.265
41802SOL    HW227304  11.980   0.674   6.361
41803SOL     OW27305  12.453   6.870   1.379
41803SOL    HW127306  12.543   6.871   1.346
41803SOL    HW227307  12.431   6.777   1.385
41804SOL     OW27308  13.253  13.332  12.828
41804SOL    HW127309  13.216  13.298  12.747
41804SOL    HW227310  13.193  13.402  12.855
41805SOL     OW27311   5.663   8.041  14.309
41805SOL    HW127312   5.664   8.132  14.281
41805SOL    HW227313   5.574   8.027  14.341
41806SOL     OW27314   2.299   9.622   5.312
41806SOL    HW127315   2.342   9.697   5.352
41806SOL    HW227316   2.369   9.575   5.266
41807SOL     OW27317   5.340   5.745   9.901
41807SOL    HW127318   5.375   5.824   9.859
41807SOL    HW227319   5.350   5.760   9.995
41808SOL     OW27320  13.374  13.835   3.129
41808SOL    HW127321  13.418  13.856   3.046
41808SOL    HW227322  13.361  13.920   3.171
41809SOL     OW27323   0.232  10.508  14.837
41809SOL    HW127324   0.147  10.496  14.794
41809SOL    HW227325   0.291  10.451  14.790
41810SOL     OW27326  13.873  13.066   8.257
41810SOL    HW127327  13.915  13.026   8.334
41810SOL    HW227328  13.794  13.014   8.244
41811SOL     OW27329   8.809   9.634  11.953
41811SOL    HW127330   8.904   9.644  11.960
41811SOL    HW227331   8.798   9.554  11.901
41812SOL     OW27332   4.530   5.842   0.572
41812SOL    HW127333   4.485   5.925   0.591
41812SOL    HW227334   4.530   5.837   0.477
41813SOL     OW27335   5.122   6.361   5.815
41813SOL    HW127336   5.148   6.387   5.727
41813SOL    HW227337   5.203   6.360   5.865
41814SOL     OW27338  13.560   0.117  12.809
41814SOL    HW127339  13.571   0.022  12.811
41814SOL    HW227340  13.626   0.148  12.747
41815SOL     OW27341   9.808  12.350   2.857
41815SOL    HW127342   9.786  12.257   2.859
41815SOL    HW227343   9.829  12.372   2.947
41816SOL     OW27344   7.412   5.338  12.450
41816SOL    HW127345   7.401   5.337  12.545
41816SOL    HW227346   7.381   5.425  12.423
41817SOL     OW27347   8.257   7.997   4.656
41817SOL    HW127348   8.212   7.999   4.572
41817SOL    HW227349   8.275   8.089   4.676
41818SOL     OW27350  12.792   4.734  10.699
41818SOL    HW127351  12.711   4.684  10.687
41818SOL    HW227352  12.859   4.668  10.717
41819SOL     OW27353   0.024  12.074   3.359
41819SOL    HW127354   0.058  11.986   3.341
41819SOL    HW227355  14.800  12.061   3.377
41820SOL     OW27356   2.779   8.572  13.073
41820SOL    HW127357   2.843   8.642  13.059
41820SOL    HW227358   2.795   8.510  13.001
41821SOL     OW27359  13.780   1.211  12.106
41821SOL    HW127360  13.809   1.294  12.143
41821SOL    HW227361  13.684   1.219  12.101
41822SOL     OW27362   6.631   9.159   0.201
41822SOL    HW127363   6.581   9.152   0.282
41822SOL    HW227364   6.721   9.138   0.227
41823SOL     OW27365  13.558  14.267   3.234
41823SOL    HW127366  13.589  14.344   3.282
41823SOL    HW227367  13.575  14.287   3.142
41824SOL     OW27368   9.542   3.184  12.768
41824SOL    HW127369   9.609   3.221  12.826
41824SOL    HW227370   9.550   3.234  12.687
41825SOL     OW27371   0.747   5.516  10.653
41825SOL    HW127372   0.695   5.471  10.586
41825SOL    HW227373   0.809   5.569  10.604
41826SOL     OW27374  11.032   8.594   2.435
41826SOL    HW127375  10.994   8.521   2.385
41826SOL    HW227376  11.124   8.571   2.444
41827SOL     OW27377   4.674   1.793   7.100
41827SOL    HW127378   4.692   1.712   7.148
41827SOL    HW227379   4.600   1.771   7.043
41828SOL     OW27380   5.392   4.682   6.532
41828SOL    HW127381   5.367   4.601   6.488
41828SOL    HW227382   5.323   4.697   6.597
41829SOL     OW27383   5.485   8.126   9.156
41829SOL    HW127384   5.444   8.194   9.102
41829SOL    HW227385   5.555   8.172   9.202
41830SOL     OW27386   6.821  10.671  13.201
41830SOL    HW127387   6.738  10.647  13.159
41830SOL    HW227388   6.797  10.741  13.262
41831SOL     OW27389   1.527   7.819   2.859
41831SOL    HW127390   1.539   7.725   2.845
41831SOL    HW227391   1.461   7.825   2.928
41832SOL     OW27392   0.762  13.956   7.054
41832SOL    HW127393   0.847  13.997   7.037
41832SOL    HW227394   0.748  13.965   7.148
41833SOL     OW27395   6.681  14.486  11.293
41833SOL    HW127396   6.745  14.549  11.262
41833SOL    HW227397   6.672  14.423  11.221
41834SOL     OW27398   0.754  10.662   2.812
41834SOL    HW127399   0.806  10.590   2.849
41834SOL    HW227400   0.788  10.741   2.855
41835SOL     OW27401  11.573   1.852   8.194
41835SOL    HW127402  11.582   1.794   8.118
41835SOL    HW227403  11.479   1.865   8.204
41836SOL     OW27404  11.041   3.635  12.809
41836SOL    HW127405  10.949   3.618  12.788
41836SOL    HW227406  11.038   3.683  12.892
41837SOL     OW27407   2.060   7.026  11.294
41837SOL    HW127408   2.151   7.034  11.265
41837SOL    HW227409   2.033   6.939  11.265
41838SOL     OW27410   4.490   8.245  13.894
41838SOL    HW127411   4.578   8.271  13.920
41838SOL    HW227412   4.436   8.323  13.910
41839SOL     OW27413   1.159   7.553   1.186
41839SOL    HW127414   1.191   7.484   1.127
41839SOL    HW227415   1.238   7.596   1.218
41840SOL     OW27416   8.572  11.788   9.391
41840SOL    HW127417   8.661  11.787   9.427
41840SOL    HW227418   8.578  11.844   9.314
41841SOL     OW27419  12.439   7.888   4.857
41841SOL    HW127420  12.521   7.842   4.876
41841SOL    HW227421  12.392   7.889   4.941
41842SOL     OW27422   3.876   2.199  11.941
41842SOL    HW127423   3.930   2.224  12.017
41842SOL    HW227424   3.810   2.269  11.935
41843SOL     OW27425  14.646   2.439   4.041
41843SOL    HW127426  14.734   2.477   4.031
41843SOL    HW227427  14.604   2.456   3.957
41844SOL     OW27428  10.446  12.548  11.208
41844SOL    HW127429  10.378  12.507  11.154
41844SOL    HW227430  10.528  12.508  11.178
41845SOL     OW27431   4.724   5.989  12.863
41845SOL    HW127432   4.746   6.081  12.846
41845SOL    HW227433   4.639   5.977  12.821
41846SOL     OW27434  13.403   6.113   7.252
41846SOL    HW127435  13.475   6.162   7.292
41846SOL    HW227436  13.325   6.160   7.278
41847SOL     OW27437   9.043   3.648  14.789
41847SOL    HW127438   9.110   3.623  14.852
41847SOL    HW227439   9.064   3.597  14.711
41848SOL     OW27440   4.553   8.125   2.015
41848SOL    HW127441   4.595   8.120   2.101
41848SOL    HW227442   4.584   8.207   1.978
41849SOL     OW27443   7.274   8.959   8.262
41849SOL    HW127444   7.341   8.922   8.320
41849SOL    HW227445   7.314   9.037   8.226
41850SOL     OW27446   9.858  12.193   9.009
41850SOL    HW127447   9.809  12.118   8.976
41850SOL    HW227448   9.857  12.183   9.104
41851SOL     OW27449  14.165   4.501   0.545
41851SOL    HW127450  14.127   4.478   0.461
41851SOL    HW227451  14.089   4.516   0.602
41852SOL     OW27452   0.494   4.744   3.226
41852SOL    HW127453   0.469   4.750   3.318
41852SOL    HW227454   0.454   4.663   3.196
41853SOL     OW27455  11.344  11.106  14.599
41853SOL    HW127456  11.429  11.116  14.641
41853SOL    HW227457  11.281  11.141  14.662
41854SOL     OW27458  11.298   8.269   2.141
41854SOL    HW127459  11.251   8.280   2.223
41854SOL    HW227460  11.260   8.189   2.102
41855SOL     OW27461  14.628  10.693   5.292
41855SOL    HW127462  14.589  10.773   5.327
41855SOL    HW227463  14.557  10.629   5.294
41856SOL     OW27464  11.042   0.032   8.908
41856SOL    HW127465  11.058   0.093   8.979
41856SOL    HW227466  11.110   0.052   8.843
41857SOL     OW27467   2.129   8.337  14.062
41857SOL    HW127468   2.211   8.337  14.112
41857SOL    HW227469   2.101   8.428  14.061
41858SOL     OW27470   2.271  12.907  10.765
41858SOL    HW127471   2.261  12.946  10.852
41858SOL    HW227472   2.182  12.884  10.738
41859SOL     OW27473   2.018   0.259  13.657
41859SOL    HW127474   1.944   0.281  13.600
41859SOL    HW227475   2.064   0.341  13.669
41860SOL     OW27476   3.175   3.120   4.879
41860SOL    HW127477   3.150   3.108   4.971
41860SOL    HW227478   3.170   3.214   4.865
41861SOL     OW27479  13.499   7.037   2.088
41861SOL    HW127480  13.517   7.053   2.180
41861SOL    HW227481  13.525   7.118   2.044
41862SOL     OW27482   1.263   9.362   5.130
41862SOL    HW127483   1.357   9.354   5.145
41862SOL    HW227484   1.256   9.385   5.037
41863SOL     OW27485   1.700   5.985  11.591
41863SOL    HW127486   1.656   6.063  11.557
41863SOL    HW227487   1.781   6.017  11.628
41864SOL     OW27488   4.345  12.720  10.728
41864SOL    HW127489   4.300  12.734  10.645
41864SOL    HW227490   4.356  12.807  10.765
41865SOL     OW27491   9.626  12.088   9.886
41865SOL    HW127492   9.691  12.019   9.890
41865SOL    HW227493   9.570  12.072   9.962
41866SOL     OW27494  13.511  10.698   4.402
41866SOL    HW127495  13.542  10.676   4.315
41866SOL    HW227496  13.583  10.745   4.443
41867SOL     OW27497  12.649   0.762   7.911
41867SOL    HW127498  12.717   0.829   7.926
41867SOL    HW227499  12.566   0.809   7.923
41868SOL     OW27500  12.698   0.520   4.547
41868SOL    HW127501  12.658   0.554   4.627
41868SOL    HW227502  12.641   0.552   4.477
41869SOL     OW27503   2.816   4.344   1.802
41869SOL    HW127504   2.776   4.414   1.854
41869SOL    HW227505   2.756   4.270   1.810
41870SOL     OW27506  11.400   0.861   9.746
41870SOL    HW127507  11.420   0.796   9.679
41870SOL    HW227508  11.435   0.824   9.827
41871SOL     OW27509  13.686   0.417   2.483
41871SOL    HW127510  13.629   0.494   2.477
41871SOL    HW227511  13.681   0.377   2.397
41872SOL     OW27512   2.762   5.296   2.738
41872SOL    HW127513   2.762   5.391   2.749
41872SOL    HW227514   2.673   5.275   2.710
41873SOL     OW27515   6.429   1.343   1.434
41873SOL    HW127516   6.430   1.370   1.525
41873SOL    HW227517   6.339   1.314   1.418
41874SOL     OW27518  12.415   3.109  12.988
41874SOL    HW127519  12.406   3.071  13.075
41874SOL    HW227520  12.502   3.083  12.959
41875SOL     OW27521   8.751   1.626   2.177
41875SOL    HW127522   8.734   1.630   2.272
41875SOL    HW227523   8.738   1.716   2.147
41876SOL     OW27524   2.967   0.124   8.459
41876SOL    HW127525   3.024   0.063   8.506
41876SOL    HW227526   2.959   0.199   8.517
41877SOL     OW27527   4.500   3.977   2.639
41877SOL    HW127528   4.505   3.954   2.731
41877SOL    HW227529   4.540   4.064   2.633
41878SOL     OW27530  13.988   2.469  10.728
41878SOL    HW127531  13.963   2.389  10.682
41878SOL    HW227532  14.030   2.523  10.660
41879SOL     OW27533   7.951   5.591   7.269
41879SOL    HW127534   7.996   5.672   7.293
41879SOL    HW227535   7.858   5.614   7.269
41880SOL     OW27536  13.667  13.663  14.136
41880SOL    HW127537  13.589  13.618  14.167
41880SOL    HW227538  13.688  13.727  14.204
41881SOL     OW27539   2.639   5.028   8.338
41881SOL    HW127540   2.612   5.072   8.419
41881SOL    HW227541   2.705   5.086   8.301
41882SOL     OW27542   5.904   5.692   3.159
41882SOL    HW127543   5.817   5.714   3.192
41882SOL    HW227544   5.891   5.611   3.110
41883SOL     OW27545  12.536   6.777  11.968
41883SOL    HW127546  12.443   6.768  11.946
41883SOL    HW227547  12.555   6.869  11.949
41884SOL     OW27548   9.682  10.524  11.145
41884SOL    HW127549   9.740  10.601  11.142
41884SOL    HW227550   9.713  10.474  11.220
41885SOL     OW27551   3.024   4.384  11.366
41885SOL    HW127552   3.049   4.292  11.380
41885SOL    HW227553   3.085   4.434  11.419
41886SOL     OW27554   9.012  10.287   6.188
41886SOL    HW127555   8.985  10.364   6.239
41886SOL    HW227556   9.055  10.324   6.111
41887SOL     OW27557   1.093   9.635   1.328
41887SOL    HW127558   1.124   9.594   1.247
41887SOL    HW227559   1.143   9.717   1.334
41888SOL     OW27560   2.589  13.188   2.025
41888SOL    HW127561   2.642  13.261   2.056
41888SOL    HW227562   2.625  13.111   2.071
41889SOL     OW27563  14.852  10.884  14.047
41889SOL    HW127564   0.076  10.885  14.068
41889SOL    HW227565  14.816  10.956  14.098
41890SOL     OW27566   3.809   2.285   1.455
41890SOL    HW127567   3.771   2.360   1.501
41890SOL    HW227568   3.735   2.248   1.405
41891SOL     OW27569   9.884  10.602   8.486
41891SOL    HW127570   9.800  10.644   8.465
41891SOL    HW227571   9.919  10.653   8.559
41892SOL     OW27572  10.039  13.768   9.298
41892SOL    HW127573  10.080  13.843   9.340
41892SOL    HW227574  10.076  13.767   9.210
41893SOL     OW27575   6.031   9.577   3.037
41893SOL    HW127576   5.995   9.589   3.125
41893SOL    HW227577   5.957   9.592   2.979
41894SOL     OW27578   2.370   6.931  12.067
41894SOL    HW127579   2.359   6.942  12.161
41894SOL    HW227580   2.462   6.909  12.055
41895SOL     OW27581   9.888   5.998   9.493
41895SOL    HW127582   9.827   5.925   9.489
41895SOL    HW227583   9.901   6.024   9.402
41896SOL     OW27584  14.779   3.454   4.277
41896SOL    HW127585  14.758   3.405   4.198
41896SOL    HW227586  14.797   3.543   4.247
41897SOL     OW27587   1.304   6.417  14.372
41897SOL    HW127588   1.285   6.455  14.458
41897SOL    HW227589   1.287   6.323  14.383
41898SOL     OW27590   8.006   0.119  11.163
41898SOL    HW127591   8.038   0.201  11.126
41898SOL    HW227592   8.036   0.052  11.103
41899SOL     OW27593   8.432   0.635   0.204
41899SOL    HW127594   8.376   0.559   0.213
41899SOL    HW227595   8.383   0.695   0.148
41900SOL     OW27596  12.742   3.809  14.291
41900SOL    HW127597  12.714   3.774  14.375
41900SOL    HW227598  12.669   3.790  14.231
41901SOL     OW27599   8.777   0.801   7.050
41901SOL    HW127600   8.832   0.872   7.016
41901SOL    HW227601   8.819   0.775   7.132
41902SOL     OW27602  14.443   2.223   2.158
41902SOL    HW127603  14.479   2.273   2.231
41902SOL    HW227604  14.498   2.144   2.154
41903SOL     OW27605   3.716   6.880   8.616
41903SOL    HW127606   3.662   6.945   8.660
41903SOL    HW227607   3.655   6.811   8.590
41904SOL     OW27608   6.426   9.830   8.025
41904SOL    HW127609   6.378   9.912   8.013
41904SOL    HW227610   6.389   9.792   8.105
41905SOL     OW27611   8.787  14.260   2.293
41905SOL    HW127612   8.762  14.273   2.385
41905SOL    HW227613   8.783  14.165   2.281
41906SOL     OW27614  13.170   4.403   4.231
41906SOL    HW127615  13.092   4.348   4.234
41906SOL    HW227616  13.137   4.492   4.248
41907SOL     OW27617   0.701  14.783   3.667
41907SOL    HW127618   0.726  14.778   3.759
41907SOL    HW227619   0.644  14.860   3.662
41908SOL     OW27620   6.582   0.515  12.364
41908SOL    HW127621   6.521   0.557  12.424
41908SOL    HW227622   6.664   0.508  12.413
41909SOL     OW27623   8.671  10.631   6.998
41909SOL    HW127624   8.651  10.545   7.035
41909SOL    HW227625   8.627  10.631   6.913
41910SOL     OW27626   1.100   5.813  11.963
41910SOL    HW127627   1.187   5.819  12.003
41910SOL    HW227628   1.108   5.744  11.897
41911SOL     OW27629   0.696   2.446   7.514
41911SOL    HW127630   0.693   2.487   7.427
41911SOL    HW227631   0.727   2.357   7.496
41912SOL     OW27632  11.340  14.211   4.564
41912SOL    HW127633  11.386  14.285   4.524
41912SOL    HW227634  11.409  14.150   4.589
41913SOL     OW27635   5.732   8.535  11.056
41913SOL    HW127636   5.799   8.504  11.117
41913SOL    HW227637   5.731   8.469  10.986
41914SOL     OW27638   3.059   6.241   0.293
41914SOL    HW127639   2.979   6.232   0.241
41914SOL    HW227640   3.075   6.336   0.296
41915SOL     OW27641   1.431   8.734  11.577
41915SOL    HW127642   1.477   8.680  11.513
41915SOL    HW227643   1.453   8.696  11.662
41916SOL     OW27644   8.119  12.419   9.796
41916SOL    HW127645   8.198  12.447   9.843
41916SOL    HW227646   8.089  12.499   9.752
41917SOL     OW27647   1.454  13.636   1.326
41917SOL    HW127648   1.543  13.613   1.352
41917SOL    HW227649   1.447  13.609   1.235
41918SOL     OW27650  10.621   6.447   0.182
41918SOL    HW127651  10.600   6.356   0.200
41918SOL    HW227652  10.574   6.497   0.248
41919SOL     OW27653   9.558   9.759  10.375
41919SOL    HW127654   9.595   9.845  10.356
41919SOL    HW227655   9.496   9.743  10.304
41920SOL     OW27656  14.016  13.827  13.894
41920SOL    HW127657  14.041  13.915  13.866
41920SOL    HW227658  14.046  13.820  13.984
41921SOL     OW27659   5.438   4.993  14.537
41921SOL    HW127660   5.453   4.900  14.518
41921SOL    HW227661   5.520   5.022  14.578
41922SOL     OW27662   5.372   3.971   5.213
41922SOL    HW127663   5.372   3.876   5.202
41922SOL    HW227664   5.445   4.001   5.160
41923SOL     OW27665  11.185  10.648   8.882
41923SOL    HW127666  11.102  10.633   8.837
41923SOL    HW227667  11.184  10.585   8.955
41924SOL     OW27668  11.527  10.580   0.784
41924SOL    HW127669  11.536  10.663   0.830
41924SOL    HW227670  11.441  10.547   0.809
41925SOL     OW27671   7.719  11.853  11.045
41925SOL    HW127672   7.709  11.947  11.059
41925SOL    HW227673   7.770  11.846  10.964
41926SOL     OW27674  12.013   2.031  10.656
41926SOL    HW127675  12.077   2.007  10.589
41926SOL    HW227676  12.042   2.116  10.688
41927SOL     OW27677  13.374   6.153   8.567
41927SOL    HW127678  13.438   6.205   8.617
41927SOL    HW227679  13.348   6.211   8.495
41928SOL     OW27680   8.475  13.792   3.121
41928SOL    HW127681   8.556  13.842   3.125
41928SOL    HW227682   8.407  13.855   3.149
41929SOL     OW27683   8.377   0.670   5.630
41929SOL    HW127684   8.396   0.735   5.698
41929SOL    HW227685   8.375   0.720   5.549
41930SOL     OW27686  13.560   9.970  10.453
41930SOL    HW127687  13.589   9.975  10.362
41930SOL    HW227688  13.569   9.878  10.477
41931SOL     OW27689  14.548   6.581   2.662
41931SOL    HW127690  14.641   6.558   2.666
41931SOL    HW227691  14.547   6.677   2.667
41932SOL     OW27692   7.031   7.320   1.702
41932SOL    HW127693   6.953   7.375   1.713
41932SOL    HW227694   7.049   7.324   1.608
41933SOL     OW27695  12.208   2.832   5.835
41933SOL    HW127696  12.129   2.884   5.826
41933SOL    HW227697  12.185   2.764   5.899
41934SOL     OW27698  10.419  13.846   5.591
41934SOL    HW127699  10.447  13.755   5.580
41934SOL    HW227700  10.438  13.887   5.506
41935SOL     OW27701   4.509   6.879   4.600
41935SOL    HW127702   4.435   6.939   4.594
41935SOL    HW227703   4.542   6.891   4.689
41936SOL     OW27704   6.069  12.405  11.377
41936SOL    HW127705   6.107  12.355  11.305
41936SOL    HW227706   6.088  12.354  11.455
41937SOL     OW27707   6.645  12.338  12.228
41937SOL    HW127708   6.735  12.363  12.210
41937SOL    HW227709   6.652  12.256  12.277
41938SOL     OW27710  13.480  12.342   6.663
41938SOL    HW127711  13.388  12.356   6.685
41938SOL    HW227712  13.522  12.323   6.748
41939SOL     OW27713   7.459   7.544  10.034
41939SOL    HW127714   7.391   7.550  10.100
41939SOL    HW227715   7.457   7.629   9.989
41940SOL     OW27716   0.484  14.563  10.922
41940SOL    HW127717   0.403  14.582  10.971
41940SOL    HW227718   0.551  14.554  10.990
41941SOL     OW27719   5.994  13.773   8.311
41941SOL    HW127720   5.957  13.697   8.266
41941SOL    HW227721   5.926  13.841   8.303
41942SOL     OW27722   0.489   4.906   8.726
41942SOL    HW127723   0.444   4.822   8.731
41942SOL    HW227724   0.422   4.968   8.697
41943SOL     OW27725   9.392  13.467   5.652
41943SOL    HW127726   9.388  13.391   5.593
41943SOL    HW227727   9.404  13.542   5.594
41944SOL     OW27728  12.248   8.937   7.573
41944SOL    HW127729  12.168   8.912   7.619
41944SOL    HW227730  12.259   9.030   7.594
41945SOL     OW27731   6.152  13.092   0.899
41945SOL    HW127732   6.131  13.006   0.863
41945SOL    HW227733   6.109  13.093   0.985
41946SOL     OW27734   8.059  12.876   3.051
41946SOL    HW127735   7.973  12.847   3.021
41946SOL    HW227736   8.068  12.965   3.016
41947SOL     OW27737   8.691   2.692  14.247
41947SOL    HW127738   8.626   2.705  14.316
41947SOL    HW227739   8.698   2.778  14.205
41948SOL     OW27740   8.939  13.858   3.902
41948SOL    HW127741   8.881  13.822   3.835
41948SOL    HW227742   9.005  13.907   3.852
41949SOL     OW27743   1.187   1.628  12.819
41949SOL    HW127744   1.270   1.621  12.771
41949SOL    HW227745   1.210   1.676  12.898
41950SOL     OW27746   9.491  10.244   9.238
41950SOL    HW127747   9.443  10.174   9.281
41950SOL    HW227748   9.459  10.325   9.278
41951SOL     OW27749  11.474   3.524   8.054
41951SOL    HW127750  11.401   3.568   8.012
41951SOL    HW227751  11.451   3.431   8.052
41952SOL     OW27752   8.715   8.479   5.280
41952SOL    HW127753   8.683   8.565   5.252
41952SOL    HW227754   8.810   8.486   5.273
41953SOL     OW27755  12.608   0.823  11.653
41953SOL    HW127756  12.671   0.756  11.679
41953SOL    HW227757  12.612   0.824  11.557
41954SOL     OW27758  12.016   5.603   2.703
41954SOL    HW127759  12.091   5.569   2.752
41954SOL    HW227760  11.987   5.529   2.650
41955SOL     OW27761   7.266  14.087   9.637
41955SOL    HW127762   7.225  14.173   9.640
41955SOL    HW227763   7.344  14.096   9.692
41956SOL     OW27764   5.728   9.019   2.992
41956SOL    HW127765   5.649   9.039   3.043
41956SOL    HW227766   5.697   8.960   2.923
41957SOL     OW27767   7.884  11.412  14.480
41957SOL    HW127768   7.916  11.483  14.425
41957SOL    HW227769   7.790  11.411  14.465
41958SOL     OW27770   9.886   8.773   0.229
41958SOL    HW127771   9.960   8.716   0.247
41958SOL    HW227772   9.815   8.713   0.207
41959SOL     OW27773  12.176   2.166  14.065
41959SOL    HW127774  12.137   2.252  14.052
41959SOL    HW227775  12.149   2.116  13.988
41960SOL     OW27776  13.917   7.601   4.535
41960SOL    HW127777  14.000   7.590   4.488
41960SOL    HW227778  13.909   7.522   4.588
41961SOL     OW27779  12.906   1.509   2.153
41961SOL    HW127780  12.916   1.532   2.061
41961SOL    HW227781  12.987   1.540   2.194
41962SOL     OW27782   7.416   3.118  10.317
41962SOL    HW127783   7.474   3.062  10.265
41962SOL    HW227784   7.349   3.147  10.255
41963SOL     OW27785   2.287   4.890   1.288
41963SOL    HW127786   2.332   4.926   1.212
41963SOL    HW227787   2.318   4.943   1.362
41964SOL     OW27788   5.874  12.803   2.762
41964SOL    HW127789   5.921  12.782   2.843
41964SOL    HW227790   5.909  12.742   2.697
41965SOL     OW27791   0.395  13.146   1.797
41965SOL    HW127792   0.369  13.099   1.717
41965SOL    HW227793   0.468  13.094   1.831
41966SOL     OW27794   9.765   2.225   4.532
41966SOL    HW127795   9.703   2.239   4.605
41966SOL    HW227796   9.844   2.192   4.574
41967SOL     OW27797   7.723   0.137   8.432
41967SOL    HW127798   7.702   0.046   8.454
41967SOL    HW227799   7.722   0.183   8.515
41968SOL     OW27800  10.188  13.011  13.057
41968SOL    HW127801  10.250  12.982  13.123
41968SOL    HW227802  10.107  13.029  13.106
41969SOL     OW27803  14.183   3.946   0.336
41969SOL    HW127804  14.268   3.980   0.308
41969SOL    HW227805  14.134   4.024   0.362
41970SOL     OW27806   4.675   6.746   6.136
41970SOL    HW127807   4.651   6.762   6.228
41970SOL    HW227808   4.591   6.739   6.091
41971SOL     OW27809   4.226  10.131  12.228
41971SOL    HW127810   4.223  10.117  12.323
41971SOL    HW227811   4.166  10.204  12.213
41972SOL     OW27812  11.277   2.722   9.731
41972SOL    HW127813  11.304   2.700   9.642
41972SOL    HW227814  11.293   2.816   9.739
41973SOL     OW27815   5.365  10.833   5.464
41973SOL    HW127816   5.358  10.896   5.392
41973SOL    HW227817   5.458  10.831   5.485
41974SOL     OW27818   2.688  14.165  13.715
41974SOL    HW127819   2.757  14.230  13.731
41974SOL    HW227820   2.612  14.200  13.762
41975SOL     OW27821  13.673   2.147   8.414
41975SOL    HW127822  13.718   2.162   8.331
41975SOL    HW227823  13.598   2.208   8.412
41976SOL     OW27824   2.256  10.432   3.164
41976SOL    HW127825   2.291  10.364   3.105
41976SOL    HW227826   2.217  10.382   3.236
41977SOL     OW27827   2.061  10.828   6.527
41977SOL    HW127828   2.016  10.774   6.461
41977SOL    HW227829   2.144  10.851   6.486
41978SOL     OW27830   1.911   1.443   0.882
41978SOL    HW127831   2.006   1.437   0.894
41978SOL    HW227832   1.875   1.396   0.957
41979SOL     OW27833  11.332   9.324  11.543
41979SOL    HW127834  11.275   9.392  11.579
41979SOL    HW227835  11.282   9.243  11.555
41980SOL     OW27836   9.705   7.938   7.738
41980SOL    HW127837   9.689   7.997   7.811
41980SOL    HW227838   9.630   7.879   7.737
41981SOL     OW27839   4.880  13.384   1.830
41981SOL    HW127840   4.879  13.436   1.910
41981SOL    HW227841   4.800  13.331   1.834
41982SOL     OW27842   3.621   8.993  10.261
41982SOL    HW127843   3.643   9.068  10.316
41982SOL    HW227844   3.665   9.011  10.178
41983SOL     OW27845  13.747  10.231  13.874
41983SOL    HW127846  13.791  10.156  13.915
41983SOL    HW227847  13.728  10.202  13.785
41984SOL     OW27848   1.048   8.773  13.182
41984SOL    HW127849   1.017   8.827  13.255
41984SOL    HW227850   1.090   8.698  13.224
41985SOL     OW27851   0.997   9.814   8.468
41985SOL    HW127852   0.936   9.819   8.394
41985SOL    HW227853   1.038   9.901   8.471
41986SOL     OW27854  14.656   6.294   2.549
41986SOL    HW127855  14.731   6.272   2.605
41986SOL    HW227856  14.579   6.279   2.605
41987SOL     OW27857   0.514   1.669  14.742
41987SOL    HW127858   0.528   1.603  14.674
41987SOL    HW227859   0.602   1.700  14.763
41988SOL     OW27860  10.255  10.083   2.755
41988SOL    HW127861  10.291  10.034   2.681
41988SOL    HW227862  10.290  10.040   2.833
41989SOL     OW27863   4.916  11.771   5.655
41989SOL    HW127864   4.961  11.697   5.697
41989SOL    HW227865   4.956  11.776   5.568
41990SOL     OW27866   5.246   3.834  13.939
41990SOL    HW127867   5.292   3.877  13.867
41990SOL    HW227868   5.259   3.740  13.923
41991SOL     OW27869   6.409   7.002  10.693
41991SOL    HW127870   6.456   7.068  10.744
41991SOL    HW227871   6.420   6.921  10.742
41992SOL     OW27872   1.880   6.778   0.350
41992SOL    HW127873   1.868   6.728   0.270
41992SOL    HW227874   1.869   6.713   0.421
41993SOL     OW27875   8.907   3.008   1.785
41993SOL    HW127876   8.864   3.043   1.863
41993SOL    HW227877   8.912   3.083   1.725
41994SOL     OW27878  14.122   1.249   3.312
41994SOL    HW127879  14.070   1.265   3.234
41994SOL    HW227880  14.154   1.336   3.338
41995SOL     OW27881   8.244  13.871   0.969
41995SOL    HW127882   8.333  13.834   0.964
41995SOL    HW227883   8.195  13.806   1.020
41996SOL     OW27884   6.380  14.530   1.826
41996SOL    HW127885   6.432  14.522   1.746
41996SOL    HW227886   6.363  14.624   1.834
41997SOL     OW27887   3.807   7.435   5.010
41997SOL    HW127888   3.816   7.525   4.978
41997SOL    HW227889   3.896   7.400   5.009
41998SOL     OW27890   9.696   7.992   5.014
41998SOL    HW127891   9.784   7.966   5.040
41998SOL    HW227892   9.650   7.910   4.995
41999SOL     OW27893   7.453   8.690  10.474
41999SOL    HW127894   7.381   8.670  10.535
41999SOL    HW227895   7.516   8.739  10.527
42000SOL     OW27896   6.921   9.859   8.806
42000SOL    HW127897   6.853   9.852   8.738
42000SOL    HW227898   6.877   9.831   8.886
42001SOL     OW27899   5.127   6.853  13.060
42001SOL    HW127900   5.141   6.858  12.965
42001SOL    HW227901   5.130   6.760  13.079
42002SOL     OW27902   6.987   9.131  10.006
42002SOL    HW127903   7.014   9.059   9.948
42002SOL    HW227904   7.068   9.158  10.049
42003SOL     OW27905  11.658   7.658   7.340
42003SOL    HW127906  11.576   7.627   7.303
42003SOL    HW227907  11.706   7.579   7.362
42004SOL     OW27908   4.949   7.670   7.156
42004SOL    HW127909   5.018   7.691   7.092
42004SOL    HW227910   4.939   7.749   7.208
42005SOL     OW27911   6.630   8.313   8.675
42005SOL    HW127912   6.712   8.339   8.633
42005SOL    HW227913   6.636   8.349   8.763
42006SOL     OW27914   4.660   2.703   1.909
42006SOL    HW127915   4.649   2.760   1.985
42006SOL    HW227916   4.651   2.760   1.833
42007SOL     OW27917  11.795  11.804   3.621
42007SOL    HW127918  11.815  11.876   3.562
42007SOL    HW227919  11.719  11.835   3.671
42008SOL     OW27920   3.277   0.524   6.069
42008SOL    HW127921   3.313   0.439   6.043
42008SOL    HW227922   3.212   0.544   6.002
42009SOL     OW27923   9.179   1.354   1.784
42009SOL    HW127924   9.098   1.363   1.734
42009SOL    HW227925   9.155   1.298   1.858
42010SOL     OW27926  12.333  14.795   2.772
42010SOL    HW127927  12.241  14.783   2.747
42010SOL    HW227928  12.342   0.020   2.782
42011SOL     OW27929   8.910   8.773  10.474
42011SOL    HW127930   8.876   8.862  10.479
42011SOL    HW227931   9.005   8.783  10.472
42012SOL     OW27932   8.525  14.296   1.787
42012SOL    HW127933   8.457  14.230   1.774
42012SOL    HW227934   8.554  14.318   1.699
42013SOL     OW27935   1.995   5.092   3.970
42013SOL    HW127936   1.928   5.135   4.024
42013SOL    HW227937   1.961   5.003   3.957
42014SOL     OW27938   5.242   7.097   2.117
42014SOL    HW127939   5.222   7.189   2.105
42014SOL    HW227940   5.295   7.074   2.041
42015SOL     OW27941   6.437   7.052   2.015
42015SOL    HW127942   6.457   7.008   2.098
42015SOL    HW227943   6.478   7.138   2.024
42016SOL     OW27944   8.237  12.298   8.845
42016SOL    HW127945   8.290  12.227   8.880
42016SOL    HW227946   8.283  12.327   8.766
42017SOL     OW27947   9.054   2.125   6.560
42017SOL    HW127948   9.080   2.156   6.646
42017SOL    HW227949   8.988   2.187   6.530
42018SOL     OW27950  12.261   2.770  10.598
42018SOL    HW127951  12.179   2.758  10.550
42018SOL    HW227952  12.316   2.698  10.569
42019SOL     OW27953   2.954   3.098   9.385
42019SOL    HW127954   3.046   3.078   9.402
42019SOL    HW227955   2.934   3.053   9.303
42020SOL     OW27956   4.150  11.436   8.764
42020SOL    HW127957   4.128  11.523   8.798
42020SOL    HW227958   4.188  11.390   8.838
42021SOL     OW27959  12.661   4.212   6.547
42021SOL    HW127960  12.745   4.167   6.551
42021SOL    HW227961  12.679   4.299   6.581
42022SOL     OW27962   1.846   3.145   3.727
42022SOL    HW127963   1.783   3.138   3.799
42022SOL    HW227964   1.866   3.238   3.721
42023SOL     OW27965   4.842  10.544   3.050
42023SOL    HW127966   4.930  10.581   3.055
42023SOL    HW227967   4.845  10.468   3.108
42024SOL     OW27968   9.957   7.370  10.326
42024SOL    HW127969   9.970   7.451  10.375
42024SOL    HW227970   9.902   7.316  10.383
42025SOL     OW27971  14.498   2.081   6.009
42025SOL    HW127972  14.589   2.108   6.014
42025SOL    HW227973  14.461   2.135   5.939
42026SOL     OW27974   8.105  12.691   9.458
42026SOL    HW127975   8.095  12.599   9.433
42026SOL    HW227976   8.082  12.740   9.379
42027SOL     OW27977   8.724   9.375  14.230
42027SOL    HW127978   8.684   9.294  14.199
42027SOL    HW227979   8.741   9.425  14.150
42028SOL     OW27980   9.460  14.299   2.320
42028SOL    HW127981   9.396  14.228   2.320
42028SOL    HW227982   9.466  14.325   2.412
42029SOL     OW27983   5.972  11.080   2.840
42029SOL    HW127984   6.054  11.103   2.797
42029SOL    HW227985   5.917  11.045   2.770
42030SOL     OW27986   7.232   5.891   9.568
42030SOL    HW127987   7.190   5.869   9.485
42030SOL    HW227988   7.230   5.810   9.619
42031SOL     OW27989  14.535   6.800   5.272
42031SOL    HW127990  14.606   6.852   5.310
42031SOL    HW227991  14.455   6.842   5.303
42032SOL     OW27992   0.184   1.211   9.572
42032SOL    HW127993   0.153   1.125   9.542
42032SOL    HW227994   0.257   1.232   9.514
42033SOL     OW27995   2.556   7.384   4.581
42033SOL    HW127996   2.576   7.338   4.499
42033SOL    HW227997   2.520   7.316   4.638
42034SOL     OW27998   7.910   4.236   9.044
42034SOL    HW127999   7.998   4.258   9.074
42034SOL    HW228000   7.909   4.140   9.041
42035SOL     OW28001  10.520   6.238   1.225
42035SOL    HW128002  10.466   6.159   1.237
42035SOL    HW228003  10.515   6.283   1.309
42036SOL     OW28004   5.825   8.186   2.784
42036SOL    HW128005   5.744   8.138   2.803
42036SOL    HW228006   5.796   8.263   2.735
42037SOL     OW28007   0.977   2.092   8.952
42037SOL    HW128008   0.896   2.127   8.918
42037SOL    HW228009   0.952   2.008   8.991
42038SOL     OW28010   7.920   0.248  11.733
42038SOL    HW128011   7.980   0.291  11.793
42038SOL    HW228012   7.955   0.266  11.646
42039SOL     OW28013  13.765  13.861   8.363
42039SOL    HW128014  13.761  13.772   8.397
42039SOL    HW228015  13.677  13.896   8.375
42040SOL     OW28016  11.953   3.493   6.329
42040SOL    HW128017  11.974   3.411   6.373
42040SOL    HW228018  12.010   3.494   6.252
42041SOL     OW28019   8.865  10.193  13.781
42041SOL    HW128020   8.826  10.271  13.821
42041SOL    HW228021   8.823  10.187  13.695
42042SOL     OW28022   5.772   0.392  11.379
42042SOL    HW128023   5.824   0.453  11.327
42042SOL    HW228024   5.786   0.307  11.337
42043SOL     OW28025  14.800   3.352   2.189
42043SOL    HW128026  14.811   3.422   2.254
42043SOL    HW228027  14.708   3.357   2.164
42044SOL     OW28028  13.004   9.736   0.598
42044SOL    HW128029  12.965   9.721   0.512
42044SOL    HW228030  13.030   9.828   0.598
42045SOL     OW28031   1.049   1.718   8.843
42045SOL    HW128032   1.059   1.751   8.754
42045SOL    HW228033   1.113   1.647   8.850
42046SOL     OW28034  10.350   0.901   4.837
42046SOL    HW128035  10.295   0.967   4.793
42046SOL    HW228036  10.342   0.921   4.930
42047SOL     OW28037  14.611   2.443   8.171
42047SOL    HW128038  14.656   2.445   8.087
42047SOL    HW228039  14.682   2.435   8.236
42048SOL     OW28040   5.786   3.158   3.366
42048SOL    HW128041   5.805   3.205   3.446
42048SOL    HW228042   5.822   3.212   3.296
42049SOL     OW28043   2.399  11.720   4.542
42049SOL    HW128044   2.313  11.706   4.582
42049SOL    HW228045   2.461  11.699   4.611
42050SOL     OW28046   8.725  13.292   8.069
42050SOL    HW128047   8.663  13.259   8.134
42050SOL    HW228048   8.778  13.215   8.045
42051SOL     OW28049  14.056   6.132  14.212
42051SOL    HW128050  13.998   6.197  14.172
42051SOL    HW228051  14.087   6.078  14.139
42052SOL     OW28052   7.884   7.429  14.867
42052SOL    HW128053   7.847   7.463  14.786
42052SOL    HW228054   7.860   7.493   0.064
42053SOL     OW28055   4.359  12.785   6.005
42053SOL    HW128056   4.280  12.738   6.029
42053SOL    HW228057   4.425  12.717   5.990
42054SOL     OW28058   2.299  10.513  12.317
42054SOL    HW128059   2.288  10.468  12.401
42054SOL    HW228060   2.390  10.497  12.294
42055SOL     OW28061   1.410   5.795   5.162
42055SOL    HW128062   1.321   5.780   5.193
42055SOL    HW228063   1.418   5.736   5.086
42056SOL     OW28064  13.982   2.117   2.474
42056SOL    HW128065  13.935   2.156   2.400
42056SOL    HW228066  14.066   2.089   2.438
42057SOL     OW28067  13.282   1.938   1.548
42057SOL    HW128068  13.293   2.031   1.529
42057SOL    HW228069  13.318   1.894   1.471
42058SOL     OW28070  13.368  13.807   4.441
42058SOL    HW128071  13.321  13.728   4.413
42058SOL    HW228072  13.454  13.775   4.469
42059SOL     OW28073   8.531   4.712   9.448
42059SOL    HW128074   8.564   4.799   9.427
42059SOL    HW228075   8.606   4.654   9.436
42060SOL     OW28076   2.550  13.408   9.304
42060SOL    HW128077   2.632  13.451   9.327
42060SOL    HW228078   2.532  13.437   9.215
42061SOL     OW28079   0.450   8.915   9.250
42061SOL    HW128080   0.391   8.867   9.192
42061SOL    HW228081   0.413   8.903   9.337
42062SOL     OW28082   5.547   1.520   6.868
42062SOL    HW128083   5.567   1.538   6.960
42062SOL    HW228084   5.614   1.457   6.841
42063SOL     OW28085   0.775   6.357  10.798
42063SOL    HW128086   0.855   6.362  10.850
42063SOL    HW228087   0.767   6.444  10.759
42064SOL     OW28088   7.199   1.627   9.667
42064SOL    HW128089   7.254   1.569   9.614
42064SOL    HW228090   7.196   1.585   9.753
42065SOL     OW28091   0.398  12.856   1.029
42065SOL    HW128092   0.413  12.922   1.097
42065SOL    HW228093   0.308  12.869   1.002
42066SOL     OW28094   0.410   2.501   1.181
42066SOL    HW128095   0.494   2.504   1.228
42066SOL    HW228096   0.405   2.585   1.137
42067SOL     OW28097   2.416  11.273   9.642
42067SOL    HW128098   2.423  11.326   9.722
42067SOL    HW228099   2.396  11.335   9.573
42068SOL     OW28100  10.545  13.162   8.651
42068SOL    HW128101  10.604  13.132   8.720
42068SOL    HW228102  10.541  13.089   8.589
42069SOL     OW28103   1.579  13.798   4.526
42069SOL    HW128104   1.519  13.833   4.460
42069SOL    HW228105   1.639  13.743   4.477
42070SOL     OW28106  13.179  12.207  14.622
42070SOL    HW128107  13.126  12.170  14.551
42070SOL    HW228108  13.269  12.187  14.597
42071SOL     OW28109  14.157   7.058   7.509
42071SOL    HW128110  14.127   7.142   7.476
42071SOL    HW228111  14.217   7.025   7.442
42072SOL     OW28112   0.971  14.428  10.599
42072SOL    HW128113   0.950  14.403  10.689
42072SOL    HW228114   1.007  14.348  10.560
42073SOL     OW28115   3.245   0.397   0.257
42073SOL    HW128116   3.216   0.390   0.348
42073SOL    HW228117   3.250   0.491   0.240
42074SOL     OW28118  11.249   8.501  14.161
42074SOL    HW128119  11.182   8.475  14.224
42074SOL    HW228120  11.314   8.431  14.165
42075SOL     OW28121  10.556   6.803   5.147
42075SOL    HW128122  10.463   6.800   5.124
42075SOL    HW228123  10.600   6.754   5.078
42076SOL     OW28124   3.271   0.512   8.256
42076SOL    HW128125   3.309   0.521   8.169
42076SOL    HW228126   3.254   0.418   8.265
42077SOL     OW28127  11.639   7.933  14.390
42077SOL    HW128128  11.649   7.930  14.295
42077SOL    HW228129  11.560   7.883  14.408
42078SOL     OW28130   4.072   9.412   8.117
42078SOL    HW128131   4.000   9.438   8.175
42078SOL    HW228132   4.067   9.316   8.114
42079SOL     OW28133   0.137   5.457   1.459
42079SOL    HW128134   0.205   5.397   1.489
42079SOL    HW228135   0.179   5.510   1.391
42080SOL     OW28136   2.681   0.045   0.873
42080SOL    HW128137   2.671   0.045   0.778
42080SOL    HW228138   2.776   0.049   0.887
42081SOL     OW28139   1.932   8.217   2.095
42081SOL    HW128140   1.986   8.244   2.020
42081SOL    HW228141   1.894   8.298   2.127
42082SOL     OW28142   7.031   0.169   4.366
42082SOL    HW128143   7.017   0.228   4.440
42082SOL    HW228144   7.120   0.136   4.379
42083SOL     OW28145   5.440   2.034  10.169
42083SOL    HW128146   5.385   1.965  10.205
42083SOL    HW228147   5.530   2.001  10.180
42084SOL     OW28148  12.539   5.962   8.988
42084SOL    HW128149  12.545   5.950   9.082
42084SOL    HW228150  12.623   5.999   8.962
42085SOL     OW28151  10.815   7.521   4.714
42085SOL    HW128152  10.869   7.489   4.787
42085SOL    HW228153  10.868   7.504   4.636
42086SOL     OW28154   5.548   4.241   1.405
42086SOL    HW128155   5.524   4.300   1.333
42086SOL    HW228156   5.471   4.187   1.418
42087SOL     OW28157   4.161   7.484   9.851
42087SOL    HW128158   4.127   7.395   9.838
42087SOL    HW228159   4.189   7.512   9.764
42088SOL     OW28160  12.575  11.883   6.955
42088SOL    HW128161  12.576  11.806   7.012
42088SOL    HW228162  12.647  11.938   6.988
42089SOL     OW28163  13.886   0.763   3.276
42089SOL    HW128164  13.970   0.724   3.253
42089SOL    HW228165  13.898   0.797   3.364
42090SOL     OW28166   4.318   9.446  13.934
42090SOL    HW128167   4.326   9.378  14.000
42090SOL    HW228168   4.231   9.484  13.948
42091SOL     OW28169   5.539   3.438   2.413
42091SOL    HW128170   5.514   3.510   2.355
42091SOL    HW228171   5.457   3.392   2.432
42092SOL     OW28172  14.712   3.533   5.764
42092SOL    HW128173  14.708   3.623   5.796
42092SOL    HW228174  14.657   3.483   5.824
42093SOL     OW28175  10.998   4.946   9.283
42093SOL    HW128176  10.985   4.989   9.198
42093SOL    HW228177  11.092   4.930   9.287
42094SOL     OW28178   4.241   7.525  12.794
42094SOL    HW128179   4.204   7.437  12.796
42094SOL    HW228180   4.215   7.564  12.878
42095SOL     OW28181   4.983   7.688   2.288
42095SOL    HW128182   4.967   7.638   2.208
42095SOL    HW228183   5.068   7.656   2.320
42096SOL     OW28184   7.776  13.389   4.750
42096SOL    HW128185   7.747  13.428   4.667
42096SOL    HW228186   7.697  13.383   4.803
42097SOL     OW28187   1.104   7.269   9.028
42097SOL    HW128188   1.108   7.198   8.964
42097SOL    HW228189   1.017   7.307   9.016
42098SOL     OW28190   1.204  11.388  10.580
42098SOL    HW128191   1.299  11.378  10.581
42098SOL    HW228192   1.170  11.308  10.620
42099SOL     OW28193   2.600   9.080   1.285
42099SOL    HW128194   2.632   9.014   1.347
42099SOL    HW228195   2.678   9.122   1.251
42100SOL     OW28196  10.283   5.825  10.798
42100SOL    HW128197  10.327   5.757  10.747
42100SOL    HW228198  10.241   5.778  10.871
42101SOL     OW28199   9.559  13.962   3.682
42101SOL    HW128200   9.539  14.054   3.663
42101SOL    HW228201   9.533  13.951   3.774
42102SOL     OW28202  11.042   6.696   3.869
42102SOL    HW128203  10.978   6.711   3.799
42102SOL    HW228204  11.085   6.615   3.844
42103SOL     OW28205  13.971  14.031   8.451
42103SOL    HW128206  13.915  13.961   8.415
42103SOL    HW228207  14.033  13.985   8.507
42104SOL     OW28208   6.268   0.284  12.177
42104SOL    HW128209   6.246   0.303  12.085
42104SOL    HW228210   6.186   0.296  12.224
42105SOL     OW28211   3.328   8.455   8.748
42105SOL    HW128212   3.367   8.516   8.686
42105SOL    HW228213   3.401   8.428   8.804
42106SOL     OW28214  12.830  11.621   8.696
42106SOL    HW128215  12.801  11.574   8.617
42106SOL    HW228216  12.920  11.591   8.710
42107SOL     OW28217   1.147   3.464   9.173
42107SOL    HW128218   1.058   3.474   9.140
42107SOL    HW228219   1.164   3.370   9.167
42108SOL     OW28220   7.669  10.530   6.708
42108SOL    HW128221   7.623  10.584   6.644
42108SOL    HW228222   7.714  10.592   6.765
42109SOL     OW28223   0.560   7.801   5.860
42109SOL    HW128224   0.633   7.740   5.864
42109SOL    HW228225   0.504   7.778   5.934
42110SOL     OW28226  11.071   8.932  12.543
42110SOL    HW128227  11.142   8.970  12.595
42110SOL    HW228228  11.109   8.852  12.507
42111SOL     OW28229   2.100   4.616   7.129
42111SOL    HW128230   2.010   4.616   7.161
42111SOL    HW228231   2.092   4.602   7.034
42112SOL     OW28232   6.157  13.439  11.313
42112SOL    HW128233   6.065  13.417  11.324
42112SOL    HW228234   6.166  13.460  11.220
42113SOL     OW28235  11.937   4.408  10.077
42113SOL    HW128236  11.962   4.356  10.154
42113SOL    HW228237  11.879   4.475  10.112
42114SOL     OW28238  14.770   2.807  10.040
42114SOL    HW128239  14.684   2.778  10.070
42114SOL    HW228240  14.759   2.820   9.946
42115SOL     OW28241   8.427   2.992  12.518
42115SOL    HW128242   8.452   3.046  12.443
42115SOL    HW228243   8.340   3.022  12.541
42116SOL     OW28244   4.711   9.680  13.732
42116SOL    HW128245   4.745   9.637  13.811
42116SOL    HW228246   4.636   9.627  13.705
42117SOL     OW28247   5.386   6.896   6.740
42117SOL    HW128248   5.394   6.830   6.809
42117SOL    HW228249   5.452   6.871   6.676
42118SOL     OW28250  10.978   9.032  12.932
42118SOL    HW128251  10.999   9.102  12.869
42118SOL    HW228252  11.060   9.018  12.979
42119SOL     OW28253   3.506   4.868   9.089
42119SOL    HW128254   3.577   4.808   9.063
42119SOL    HW228255   3.551   4.948   9.116
42120SOL     OW28256   8.629   2.020  10.056
42120SOL    HW128257   8.640   1.996  10.149
42120SOL    HW228258   8.701   1.975  10.012
42121SOL     OW28259  14.592   5.014   2.773
42121SOL    HW128260  14.669   4.985   2.724
42121SOL    HW228261  14.593   4.960   2.852
42122SOL     OW28262   7.254  10.484   7.680
42122SOL    HW128263   7.260  10.499   7.586
42122SOL    HW228264   7.160  10.478   7.698
42123SOL     OW28265   2.248   7.303  10.966
42123SOL    HW128266   2.287   7.304  10.879
42123SOL    HW228267   2.310   7.255  11.020
42124SOL     OW28268  13.043   7.308  11.350
42124SOL    HW128269  13.045   7.289  11.444
42124SOL    HW228270  13.059   7.402  11.345
42125SOL     OW28271  12.601  11.306  14.713
42125SOL    HW128272  12.572  11.389  14.751
42125SOL    HW228273  12.635  11.256  14.787
42126SOL     OW28274   3.393   3.466   6.936
42126SOL    HW128275   3.299   3.449   6.942
42126SOL    HW228276   3.402   3.559   6.957
42127SOL     OW28277   5.251  14.189  11.210
42127SOL    HW128278   5.248  14.137  11.290
42127SOL    HW228279   5.243  14.280  11.240
42128SOL     OW28280   5.920   3.954  12.562
42128SOL    HW128281   6.002   3.905  12.554
42128SOL    HW228282   5.903   3.987  12.474
42129SOL     OW28283  13.110   7.742  13.797
42129SOL    HW128284  13.024   7.717  13.831
42129SOL    HW228285  13.101   7.835  13.776
42130SOL     OW28286  14.004  12.812   1.216
42130SOL    HW128287  14.079  12.754   1.200
42130SOL    HW228288  13.942  12.757   1.264
42131SOL     OW28289   9.946  10.372  10.179
42131SOL    HW128290   9.979  10.282  10.181
42131SOL    HW228291   9.856  10.365  10.209
42132SOL     OW28292   7.826   9.873  11.126
42132SOL    HW128293   7.765   9.851  11.197
42132SOL    HW228294   7.804   9.811  11.056
42133SOL     OW28295   3.538   6.204  12.894
42133SOL    HW128296   3.483   6.255  12.953
42133SOL    HW228297   3.479   6.138  12.857
42134SOL     OW28298   2.428   3.467  12.728
42134SOL    HW128299   2.496   3.432  12.671
42134SOL    HW228300   2.348   3.460  12.676
42135SOL     OW28301  10.708   0.487   0.407
42135SOL    HW128302  10.700   0.476   0.312
42135SOL    HW228303  10.738   0.577   0.418
42136SOL     OW28304  12.030  13.330   2.532
42136SOL    HW128305  12.012  13.377   2.613
42136SOL    HW228306  12.098  13.267   2.555
42137SOL     OW28307   6.693   3.650  11.640
42137SOL    HW128308   6.662   3.703  11.713
42137SOL    HW228309   6.730   3.572  11.681
42138SOL     OW28310  11.177  10.980   5.440
42138SOL    HW128311  11.220  10.908   5.394
42138SOL    HW228312  11.086  10.953   5.447
42139SOL     OW28313   1.952  13.738   5.937
42139SOL    HW128314   1.911  13.823   5.928
42139SOL    HW228315   1.976  13.733   6.030
42140SOL     OW28316  14.053  10.271   3.398
42140SOL    HW128317  13.973  10.251   3.351
42140SOL    HW228318  14.112  10.308   3.332
42141SOL     OW28319   1.823   2.796  11.347
42141SOL    HW128320   1.851   2.754  11.428
42141SOL    HW228321   1.860   2.742  11.277
42142SOL     OW28322  10.386  11.387   6.572
42142SOL    HW128323  10.364  11.480   6.575
42142SOL    HW228324  10.427  11.374   6.486
42143SOL     OW28325   0.695  13.029   5.655
42143SOL    HW128326   0.708  13.030   5.750
42143SOL    HW228327   0.740  13.108   5.625
42144SOL     OW28328   8.774   4.972   3.905
42144SOL    HW128329   8.688   4.993   3.941
42144SOL    HW228330   8.790   5.040   3.839
42145SOL     OW28331   9.617   2.470   2.887
42145SOL    HW128332   9.549   2.414   2.850
42145SOL    HW228333   9.651   2.421   2.962
42146SOL     OW28334   2.185   6.052   9.724
42146SOL    HW128335   2.224   6.002   9.652
42146SOL    HW228336   2.095   6.020   9.729
42147SOL     OW28337  12.819   1.982   5.631
42147SOL    HW128338  12.820   1.945   5.719
42147SOL    HW228339  12.815   1.907   5.572
42148SOL     OW28340  11.321   7.807   7.484
42148SOL    HW128341  11.296   7.715   7.480
42148SOL    HW228342  11.263   7.851   7.422
42149SOL     OW28343   9.790   1.209   2.083
42149SOL    HW128344   9.766   1.132   2.135
42149SOL    HW228345   9.722   1.274   2.103
42150SOL     OW28346   3.225   1.325   3.722
42150SOL    HW128347   3.255   1.401   3.672
42150SOL    HW228348   3.296   1.261   3.713
42151SOL     OW28349   6.915   6.196   0.389
42151SOL    HW128350   6.965   6.197   0.470
42151SOL    HW228351   6.976   6.162   0.323
42152SOL     OW28352   5.177  10.311   0.897
42152SOL    HW128353   5.180  10.358   0.814
42152SOL    HW228354   5.156  10.221   0.874
42153SOL     OW28355   5.139   5.982  12.823
42153SOL    HW128356   5.128   5.910  12.761
42153SOL    HW228357   5.065   5.972  12.883
42154SOL     OW28358   0.745   9.656   7.717
42154SOL    HW128359   0.831   9.654   7.675
42154SOL    HW228360   0.694   9.589   7.672
42155SOL     OW28361  12.309   6.982   8.794
42155SOL    HW128362  12.383   7.043   8.797
42155SOL    HW228363  12.349   6.895   8.800
42156SOL     OW28364   1.608   0.448   6.052
42156SOL    HW128365   1.590   0.395   6.130
42156SOL    HW228366   1.587   0.537   6.078
42157SOL     OW28367   1.992   2.811   7.702
42157SOL    HW128368   1.987   2.906   7.699
42157SOL    HW228369   1.915   2.781   7.653
42158SOL     OW28370   2.602  10.635  12.020
42158SOL    HW128371   2.677  10.643  11.962
42158SOL    HW228372   2.639  10.642  12.108
42159SOL     OW28373   6.574  13.501  10.139
42159SOL    HW128374   6.665  13.528  10.154
42159SOL    HW228375   6.580  13.406  10.126
42160SOL     OW28376  10.901   8.615   6.641
42160SOL    HW128377  10.962   8.632   6.570
42160SOL    HW228378  10.914   8.522   6.663
42161SOL     OW28379   3.874   4.058  11.910
42161SOL    HW128380   3.969   4.050  11.900
42161SOL    HW228381   3.842   3.968  11.917
42162SOL     OW28382   4.951   9.467   1.593
42162SOL    HW128383   4.968   9.529   1.522
42162SOL    HW228384   4.925   9.520   1.667
42163SOL     OW28385   4.447   4.813  14.835
42163SOL    HW128386   4.465   4.726   0.002
42163SOL    HW228387   4.394   4.856   0.033
42164SOL     OW28388   8.042  12.011  14.000
42164SOL    HW128389   8.012  11.957  13.927
42164SOL    HW228390   8.026  12.101  13.971
42165SOL     OW28391   0.525   9.337  14.363
42165SOL    HW128392   0.496   9.422  14.395
42165SOL    HW228393   0.445   9.290  14.343
42166SOL     OW28394  10.963   8.976  10.513
42166SOL    HW128395  11.013   8.983  10.594
42166SOL    HW228396  11.029   8.964  10.444
42167SOL     OW28397  11.225  11.342   2.224
42167SOL    HW128398  11.275  11.269   2.185
42167SOL    HW228399  11.166  11.300   2.286
42168SOL     OW28400  10.502   0.488   0.600
42168SOL    HW128401  10.528   0.467   0.690
42168SOL    HW228402  10.585   0.504   0.554
42169SOL     OW28403   0.662  14.298  12.741
42169SOL    HW128404   0.580  14.253  12.719
42169SOL    HW228405   0.731  14.243  12.704
42170SOL     OW28406   1.346  12.071  12.699
42170SOL    HW128407   1.300  11.988  12.689
42170SOL    HW228408   1.420  12.064  12.637
42171SOL     OW28409  13.880  11.657   8.063
42171SOL    HW128410  13.966  11.654   8.021
42171SOL    HW228411  13.827  11.595   8.013
42172SOL     OW28412   4.305  14.211  11.545
42172SOL    HW128413   4.347  14.131  11.513
42172SOL    HW228414   4.375  14.277  11.546
42173SOL     OW28415   9.581  11.372   0.255
42173SOL    HW128416   9.650  11.436   0.245
42173SOL    HW228417   9.607  11.299   0.198
42174SOL     OW28418   5.387   6.843   3.602
42174SOL    HW128419   5.323   6.885   3.544
42174SOL    HW228420   5.383   6.895   3.683
42175SOL     OW28421   9.080   6.732   8.542
42175SOL    HW128422   9.053   6.669   8.608
42175SOL    HW228423   9.172   6.749   8.562
42176SOL     OW28424  11.369  11.407   7.680
42176SOL    HW128425  11.363  11.312   7.677
42176SOL    HW228426  11.330  11.437   7.598
42177SOL     OW28427   9.481   4.241  13.902
42177SOL    HW128428   9.524   4.324  13.919
42177SOL    HW228429   9.424   4.258  13.827
42178SOL     OW28430   0.118   1.172   7.496
42178SOL    HW128431   0.125   1.255   7.544
42178SOL    HW228432   0.139   1.194   7.406
42179SOL     OW28433   7.412   4.634   1.651
42179SOL    HW128434   7.436   4.720   1.616
42179SOL    HW228435   7.417   4.575   1.576
42180SOL     OW28436   5.198   1.491   6.677
42180SOL    HW128437   5.163   1.579   6.692
42180SOL    HW228438   5.198   1.481   6.582
42181SOL     OW28439   0.567   0.574   2.126
42181SOL    HW128440   0.625   0.508   2.088
42181SOL    HW228441   0.613   0.603   2.205
42182SOL     OW28442  14.163   4.683  11.476
42182SOL    HW128443  14.166   4.769  11.517
42182SOL    HW228444  14.139   4.701  11.385
42183SOL     OW28445  14.624   5.234   3.858
42183SOL    HW128446  14.642   5.320   3.820
42183SOL    HW228447  14.695   5.219   3.920
42184SOL     OW28448   5.179   1.573   0.760
42184SOL    HW128449   5.171   1.634   0.834
42184SOL    HW228450   5.211   1.492   0.800
42185SOL     OW28451  10.206  12.465  13.170
42185SOL    HW128452  10.285  12.516  13.190
42185SOL    HW228453  10.231  12.411  13.095
42186SOL     OW28454  14.408  12.545   4.562
42186SOL    HW128455  14.501  12.564   4.557
42186SOL    HW228456  14.398  12.463   4.514
42187SOL     OW28457  12.464   4.193  10.055
42187SOL    HW128458  12.442   4.284  10.074
42187SOL    HW228459  12.389   4.159  10.007
42188SOL     OW28460   4.444   3.746  12.209
42188SOL    HW128461   4.513   3.788  12.260
42188SOL    HW228462   4.364   3.792  12.234
42189SOL     OW28463  11.518  11.109   4.763
42189SOL    HW128464  11.579  11.035   4.761
42189SOL    HW228465  11.533  11.155   4.680
42190SOL     OW28466   2.838   2.860  11.992
42190SOL    HW128467   2.924   2.895  12.015
42190SOL    HW228468   2.779   2.894  12.059
42191SOL     OW28469   4.430  11.683   7.039
42191SOL    HW128470   4.439  11.595   7.075
42191SOL    HW228471   4.346  11.714   7.072
42192SOL     OW28472   0.874   8.550   5.839
42192SOL    HW128473   0.806   8.487   5.865
42192SOL    HW228474   0.838   8.635   5.862
42193SOL     OW28475   8.380   8.085   9.606
42193SOL    HW128476   8.298   8.125   9.635
42193SOL    HW228477   8.353   8.018   9.543
42194SOL     OW28478   4.418  12.949   2.182
42194SOL    HW128479   4.353  12.881   2.202
42194SOL    HW228480   4.406  13.015   2.250
42195SOL     OW28481  13.578  11.928  10.090
42195SOL    HW128482  13.592  12.005  10.034
42195SOL    HW228483  13.488  11.901  10.071
42196SOL     OW28484   9.275  10.966   0.819
42196SOL    HW128485   9.180  10.968   0.832
42196SOL    HW228486   9.310  11.017   0.892
42197SOL     OW28487   1.613   0.381  10.702
42197SOL    HW128488   1.682   0.335  10.750
42197SOL    HW228489   1.653   0.401  10.617
42198SOL     OW28490   6.726   6.792  12.002
42198SOL    HW128491   6.672   6.772  12.078
42198SOL    HW228492   6.806   6.831  12.039
42199SOL     OW28493   6.290   8.085   5.444
42199SOL    HW128494   6.351   8.044   5.506
42199SOL    HW228495   6.205   8.084   5.489
42200SOL     OW28496   6.740  13.828  10.173
42200SOL    HW128497   6.832  13.808  10.154
42200SOL    HW228498   6.716  13.895  10.109
42201SOL     OW28499   7.646   8.595   9.285
42201SOL    HW128500   7.687   8.681   9.270
42201SOL    HW228501   7.638   8.556   9.198
42202SOL     OW28502   2.021   4.936  11.435
42202SOL    HW128503   2.064   4.878  11.497
42202SOL    HW228504   1.933   4.948  11.469
42203SOL     OW28505   9.634  13.931   6.353
42203SOL    HW128506   9.551  13.926   6.401
42203SOL    HW228507   9.656  13.840   6.334
42204SOL     OW28508   5.330   7.471   0.210
42204SOL    HW128509   5.329   7.566   0.202
42204SOL    HW228510   5.277   7.453   0.288
42205SOL     OW28511  10.673  13.797  10.780
42205SOL    HW128512  10.607  13.825  10.843
42205SOL    HW228513  10.677  13.868  10.715
42206SOL     OW28514   8.771  13.651   3.374
42206SOL    HW128515   8.737  13.562   3.367
42206SOL    HW228516   8.861  13.645   3.344
42207SOL     OW28517  10.542   0.999  10.782
42207SOL    HW128518  10.616   0.939  10.795
42207SOL    HW228519  10.509   1.017  10.870
42208SOL     OW28520   5.328  10.010   7.719
42208SOL    HW128521   5.390   9.996   7.647
42208SOL    HW228522   5.354   9.947   7.786
42209SOL     OW28523   0.510   9.768  11.948
42209SOL    HW128524   0.432   9.718  11.923
42209SOL    HW228525   0.498   9.786  12.041
42210SOL     OW28526  12.243   4.350   9.442
42210SOL    HW128527  12.164   4.372   9.490
42210SOL    HW228528  12.314   4.372   9.502
42211SOL     OW28529   5.109   5.784   6.809
42211SOL    HW128530   5.014   5.771   6.810
42211SOL    HW228531   5.140   5.739   6.888
42212SOL     OW28532  11.724   9.878  10.479
42212SOL    HW128533  11.668   9.919  10.545
42212SOL    HW228534  11.663   9.838  10.418
42213SOL     OW28535  13.253  11.708  11.681
42213SOL    HW128536  13.234  11.627  11.728
42213SOL    HW228537  13.176  11.763  11.696
42214SOL     OW28538  11.715   7.214  11.115
42214SOL    HW128539  11.636   7.172  11.149
42214SOL    HW228540  11.785   7.181  11.171
42215SOL     OW28541   7.781   1.541  14.246
42215SOL    HW128542   7.694   1.504  14.264
42215SOL    HW228543   7.814   1.490  14.173
42216SOL     OW28544   1.223   6.819  10.472
42216SOL    HW128545   1.261   6.746  10.522
42216SOL    HW228546   1.229   6.792  10.381
42217SOL     OW28547   2.055   4.277   9.577
42217SOL    HW128548   2.149   4.282   9.598
42217SOL    HW228549   2.053   4.252   9.485
42218SOL     OW28550   8.260  10.515   5.928
42218SOL    HW128551   8.195  10.484   5.865
42218SOL    HW228552   8.222  10.595   5.966
42219SOL     OW28553   2.158   6.431   1.700
42219SOL    HW128554   2.130   6.422   1.791
42219SOL    HW228555   2.251   6.453   1.705
42220SOL     OW28556  14.338   8.097   4.208
42220SOL    HW128557  14.362   8.136   4.124
42220SOL    HW228558  14.242   8.096   4.208
42221SOL     OW28559   8.719   4.688   3.973
42221SOL    HW128560   8.752   4.620   3.914
42221SOL    HW228561   8.760   4.769   3.941
42222SOL     OW28562  10.121   9.745  12.868
42222SOL    HW128563  10.161   9.669  12.826
42222SOL    HW228564  10.040   9.759  12.821
42223SOL     OW28565   1.626  13.756   7.844
42223SOL    HW128566   1.532  13.767   7.834
42223SOL    HW228567   1.664  13.795   7.765
42224SOL     OW28568   7.758   6.647   3.361
42224SOL    HW128569   7.707   6.641   3.280
42224SOL    HW228570   7.827   6.581   3.351
42225SOL     OW28571   0.832   3.876   9.184
42225SOL    HW128572   0.913   3.914   9.218
42225SOL    HW228573   0.847   3.868   9.090
42226SOL     OW28574  10.996   4.227  14.107
42226SOL    HW128575  10.930   4.194  14.046
42226SOL    HW228576  10.975   4.183  14.190
42227SOL     OW28577   9.308  14.687   0.416
42227SOL    HW128578   9.401  14.698   0.401
42227SOL    HW228579   9.275  14.775   0.432
42228SOL     OW28580   9.070   2.221   1.939
42228SOL    HW128581   9.063   2.314   1.961
42228SOL    HW228582   8.991   2.202   1.890
42229SOL     OW28583   8.609  10.327  12.394
42229SOL    HW128584   8.680  10.361  12.449
42229SOL    HW228585   8.642  10.335  12.304
42230SOL     OW28586  10.442  10.573   0.343
42230SOL    HW128587  10.498  10.501   0.315
42230SOL    HW228588  10.400  10.542   0.423
42231SOL     OW28589   4.522   3.057   0.480
42231SOL    HW128590   4.467   3.043   0.557
42231SOL    HW228591   4.586   3.123   0.508
42232SOL     OW28592   7.616   5.499  10.341
42232SOL    HW128593   7.558   5.455  10.279
42232SOL    HW228594   7.569   5.495  10.424
42233SOL     OW28595   4.445   2.292   8.520
42233SOL    HW128596   4.492   2.356   8.574
42233SOL    HW228597   4.436   2.334   8.435
42234SOL     OW28598  10.826   5.786   1.427
42234SOL    HW128599  10.828   5.816   1.336
42234SOL    HW228600  10.769   5.849   1.472
42235SOL     OW28601  13.421  10.178  14.621
42235SOL    HW128602  13.400  10.247  14.558
42235SOL    HW228603  13.490  10.127  14.579
42236SOL     OW28604   5.940   2.036   1.645
42236SOL    HW128605   5.894   1.969   1.595
42236SOL    HW228606   5.917   2.020   1.736
42237SOL     OW28607   6.912   6.193   4.880
42237SOL    HW128608   6.836   6.220   4.828
42237SOL    HW228609   6.982   6.183   4.815
42238SOL     OW28610  11.421   9.193   6.861
42238SOL    HW128611  11.479   9.119   6.876
42238SOL    HW228612  11.333   9.158   6.877
42239SOL     OW28613   8.380   5.798   4.116
42239SOL    HW128614   8.393   5.886   4.080
42239SOL    HW228615   8.465   5.755   4.108
42240SOL     OW28616   5.042  13.562  14.112
42240SOL    HW128617   5.093  13.633  14.072
42240SOL    HW228618   5.073  13.559  14.202
42241SOL     OW28619   2.080   8.357   7.905
42241SOL    HW128620   2.130   8.427   7.947
42241SOL    HW228621   2.145   8.307   7.856
42242SOL     OW28622   8.651  10.894  13.484
42242SOL    HW128623   8.692  10.867  13.566
42242SOL    HW228624   8.722  10.892  13.420
42243SOL     OW28625   6.819  10.681  10.679
42243SOL    HW128626   6.799  10.711  10.590
42243SOL    HW228627   6.841  10.588  10.668
42244SOL     OW28628   3.458  13.308  14.351
42244SOL    HW128629   3.426  13.280  14.436
42244SOL    HW228630   3.378  13.328  14.301
42245SOL     OW28631  11.721  10.001  12.484
42245SOL    HW128632  11.741  10.072  12.423
42245SOL    HW228633  11.722   9.922  12.429
42246SOL     OW28634   6.096   0.387   5.341
42246SOL    HW128635   6.125   0.469   5.301
42246SOL    HW228636   6.001   0.396   5.350
42247SOL     OW28637   8.466  14.666   7.685
42247SOL    HW128638   8.384  14.694   7.725
42247SOL    HW228639   8.468  14.710   7.601
42248SOL     OW28640   5.438   5.714   1.414
42248SOL    HW128641   5.368   5.703   1.351
42248SOL    HW228642   5.408   5.783   1.472
42249SOL     OW28643   5.519   9.929   3.129
42249SOL    HW128644   5.603   9.942   3.085
42249SOL    HW228645   5.541   9.927   3.222
42250SOL     OW28646   7.498   2.849   3.173
42250SOL    HW128647   7.519   2.761   3.143
42250SOL    HW228648   7.484   2.841   3.267
42251SOL     OW28649   5.595   8.290   3.490
42251SOL    HW128650   5.621   8.205   3.526
42251SOL    HW228651   5.533   8.325   3.554
42252SOL     OW28652  10.258   8.963   2.954
42252SOL    HW128653  10.180   8.954   3.009
42252SOL    HW228654  10.232   9.026   2.887
42253SOL     OW28655  11.814  10.422   4.938
42253SOL    HW128656  11.747  10.354   4.944
42253SOL    HW228657  11.889  10.385   4.983
42254SOL     OW28658   0.004   2.182   9.629
42254SOL    HW128659  14.785   2.201   9.661
42254SOL    HW228660  14.869   2.202   9.535
42255SOL     OW28661   0.363  13.042   5.752
42255SOL    HW128662   0.403  12.978   5.812
42255SOL    HW228663   0.324  13.107   5.810
42256SOL     OW28664  13.788   1.702   6.149
42256SOL    HW128665  13.880   1.724   6.162
42256SOL    HW228666  13.761   1.754   6.073
42257SOL     OW28667  12.595   5.244   5.767
42257SOL    HW128668  12.686   5.235   5.797
42257SOL    HW228669  12.546   5.269   5.846
42258SOL     OW28670  13.408  10.475  11.285
42258SOL    HW128671  13.412  10.533  11.209
42258SOL    HW228672  13.451  10.523  11.355
42259SOL     OW28673   1.602   0.964   3.516
42259SOL    HW128674   1.617   1.036   3.456
42259SOL    HW228675   1.570   1.006   3.596
42260SOL     OW28676  13.505  13.767  10.783
42260SOL    HW128677  13.520  13.690  10.838
42260SOL    HW228678  13.412  13.787  10.794
42261SOL     OW28679   0.134   8.152   9.983
42261SOL    HW128680   0.066   8.091   9.953
42261SOL    HW228681   0.121   8.231   9.931
42262SOL     OW28682  12.475   2.444   7.976
42262SOL    HW128683  12.555   2.391   7.981
42262SOL    HW228684  12.451   2.460   8.067
42263SOL     OW28685  11.461   9.161  10.704
42263SOL    HW128686  11.383   9.106  10.717
42263SOL    HW228687  11.519   9.108  10.650
42264SOL     OW28688  13.410   3.098   4.214
42264SOL    HW128689  13.496   3.072   4.246
42264SOL    HW228690  13.380   3.165   4.276
42265SOL     OW28691  10.665   9.596  10.085
42265SOL    HW128692  10.663   9.664  10.018
42265SOL    HW228693  10.751   9.555  10.074
42266SOL     OW28694   0.908  13.472   8.591
42266SOL    HW128695   0.939  13.562   8.604
42266SOL    HW228696   0.951  13.422   8.661
42267SOL     OW28697   0.076  11.512   1.459
42267SOL    HW128698   0.138  11.443   1.433
42267SOL    HW228699   0.008  11.510   1.392
42268SOL     OW28700   5.748  12.713   0.137
42268SOL    HW128701   5.712  12.661   0.066
42268SOL    HW228702   5.774  12.650   0.204
42269SOL     OW28703  12.037  12.285   4.088
42269SOL    HW128704  12.092  12.211   4.112
42269SOL    HW228705  11.953  12.245   4.062
42270SOL     OW28706   6.148   0.163  12.864
42270SOL    HW128707   6.211   0.092  12.877
42270SOL    HW228708   6.196   0.230  12.817
42271SOL     OW28709   4.118   6.559  10.930
42271SOL    HW128710   4.156   6.571  11.017
42271SOL    HW228711   4.090   6.467  10.929
42272SOL     OW28712   3.211  10.261   2.061
42272SOL    HW128713   3.139  10.233   2.004
42272SOL    HW228714   3.274  10.189   2.057
42273SOL     OW28715   3.092   9.859   5.697
42273SOL    HW128716   3.179   9.898   5.710
42273SOL    HW228717   3.072   9.873   5.605
42274SOL     OW28718  11.753   4.245   6.195
42274SOL    HW128719  11.700   4.324   6.197
42274SOL    HW228720  11.718   4.194   6.122
42275SOL     OW28721   7.223  11.951   5.728
42275SOL    HW128722   7.135  11.983   5.710
42275SOL    HW228723   7.251  11.908   5.648
42276SOL     OW28724  10.807  14.389   5.630
42276SOL    HW128725  10.861  14.464   5.655
42276SOL    HW228726  10.767  14.414   5.547
42277SOL     OW28727   2.757  11.319   3.497
42277SOL    HW128728   2.752  11.402   3.449
42277SOL    HW228729   2.702  11.259   3.446
42278SOL     OW28730  11.638   7.162   4.699
42278SOL    HW128731  11.729   7.185   4.718
42278SOL    HW228732  11.617   7.214   4.621
42279SOL     OW28733  13.441  14.205  10.313
42279SOL    HW128734  13.452  14.124  10.362
42279SOL    HW228735  13.510  14.201  10.246
42280SOL     OW28736   0.538   4.625   5.620
42280SOL    HW128737   0.488   4.685   5.565
42280SOL    HW228738   0.621   4.612   5.574
42281SOL     OW28739  11.056   0.931   8.121
42281SOL    HW128740  11.082   1.019   8.150
42281SOL    HW228741  10.992   0.947   8.052
42282SOL     OW28742  10.130  11.313  12.433
42282SOL    HW128743  10.076  11.353  12.502
42282SOL    HW228744  10.092  11.226  12.421
42283SOL     OW28745   6.021   1.482   5.743
42283SOL    HW128746   5.950   1.478   5.678
42283SOL    HW228747   6.050   1.391   5.752
42284SOL     OW28748   3.437  10.872   6.861
42284SOL    HW128749   3.481  10.900   6.941
42284SOL    HW228750   3.428  10.777   6.871
42285SOL     OW28751   0.385   3.097  14.395
42285SOL    HW128752   0.330   3.171  14.422
42285SOL    HW228753   0.383   3.100  14.299
42286SOL     OW28754  14.630   2.606   5.178
42286SOL    HW128755  14.678   2.604   5.261
42286SOL    HW228756  14.611   2.514   5.160
42287SOL     OW28757   3.248   2.338   9.823
42287SOL    HW128758   3.302   2.381   9.757
42287SOL    HW228759   3.163   2.328   9.781
42288SOL     OW28760   9.955  14.416   7.417
42288SOL    HW128761   9.966  14.374   7.502
42288SOL    HW228762   9.918  14.502   7.437
42289SOL     OW28763  10.221  10.062   7.828
42289SOL    HW128764  10.154  10.120   7.863
42289SOL    HW228765  10.294  10.069   7.889
42290SOL     OW28766   4.114   0.653   2.589
42290SOL    HW128767   4.137   0.665   2.681
42290SOL    HW228768   4.040   0.592   2.590
42291SOL     OW28769   2.385   5.445   0.829
42291SOL    HW128770   2.456   5.500   0.862
42291SOL    HW228771   2.425   5.391   0.761
42292SOL     OW28772   1.879   7.568  12.032
42292SOL    HW128773   1.893   7.571  12.126
42292SOL    HW228774   1.966   7.551  11.995
42293SOL     OW28775  13.775   2.779   3.004
42293SOL    HW128776  13.726   2.773   3.086
42293SOL    HW228777  13.711   2.759   2.936
42294SOL     OW28778   4.469  10.780   0.619
42294SOL    HW128779   4.493  10.749   0.531
42294SOL    HW228780   4.463  10.701   0.672
42295SOL     OW28781   7.241  10.259  12.137
42295SOL    HW128782   7.316  10.261  12.196
42295SOL    HW228783   7.253  10.178  12.086
42296SOL     OW28784  10.497  10.711   8.143
42296SOL    HW128785  10.474  10.651   8.214
42296SOL    HW228786  10.561  10.663   8.091
42297SOL     OW28787  14.825   1.287   0.651
42297SOL    HW128788  14.789   1.221   0.591
42297SOL    HW228789   0.013   1.237   0.709
42298SOL     OW28790   9.749   2.419  12.750
42298SOL    HW128791   9.835   2.384  12.772
42298SOL    HW228792   9.765   2.484  12.682
42299SOL     OW28793   1.092  10.657   6.198
42299SOL    HW128794   1.166  10.709   6.169
42299SOL    HW228795   1.122  10.566   6.190
42300SOL     OW28796  13.084   4.387   0.959
42300SOL    HW128797  13.121   4.414   0.874
42300SOL    HW228798  13.160   4.374   1.015
42301SOL     OW28799   0.996   2.666  14.329
42301SOL    HW128800   0.915   2.653  14.379
42301SOL    HW228801   1.064   2.671  14.395
42302SOL     OW28802   8.757   7.383   4.332
42302SOL    HW128803   8.792   7.302   4.368
42302SOL    HW228804   8.825   7.448   4.349
42303SOL     OW28805  14.030  14.040   9.720
42303SOL    HW128806  13.964  14.048   9.789
42303SOL    HW228807  14.003  13.963   9.670
42304SOL     OW28808  10.949  13.078   0.657
42304SOL    HW128809  10.863  13.045   0.683
42304SOL    HW228810  11.003  13.068   0.736
42305SOL     OW28811   4.127   1.422  11.218
42305SOL    HW128812   4.130   1.507  11.261
42305SOL    HW228813   4.161   1.361  11.284
42306SOL     OW28814  11.452   4.996  14.532
42306SOL    HW128815  11.407   4.915  14.559
42306SOL    HW228816  11.408   5.065  14.581
42307SOL     OW28817   1.612  13.503   9.574
42307SOL    HW128818   1.604  13.561   9.650
42307SOL    HW228819   1.706  13.488   9.566
42308SOL     OW28820   7.342  13.730   1.045
42308SOL    HW128821   7.381  13.691   1.124
42308SOL    HW228822   7.415  13.773   1.001
42309SOL     OW28823   1.001   0.195  14.097
42309SOL    HW128824   0.969   0.106  14.109
42309SOL    HW228825   0.921   0.249  14.096
42310SOL     OW28826   4.412   3.550  13.089
42310SOL    HW128827   4.330   3.515  13.054
42310SOL    HW228828   4.481   3.500  13.045
42311SOL     OW28829   3.446  12.405   6.536
42311SOL    HW128830   3.370  12.431   6.588
42311SOL    HW228831   3.497  12.486   6.526
42312SOL     OW28832   0.241   4.400   8.735
42312SOL    HW128833   0.195   4.421   8.816
42312SOL    HW228834   0.282   4.315   8.752
42313SOL     OW28835   2.341   5.554   8.664
42313SOL    HW128836   2.358   5.471   8.619
42313SOL    HW228837   2.361   5.621   8.599
42314SOL     OW28838  14.129  11.556   4.372
42314SOL    HW128839  14.170  11.471   4.365
42314SOL    HW228840  14.048  11.540   4.421
42315SOL     OW28841  11.955   6.851   1.889
42315SOL    HW128842  11.930   6.849   1.981
42315SOL    HW228843  11.877   6.884   1.844
42316SOL     OW28844   7.818   1.167   9.845
42316SOL    HW128845   7.826   1.139   9.936
42316SOL    HW228846   7.857   1.096   9.794
42317SOL     OW28847   9.914   2.849   2.939
42317SOL    HW128848   9.886   2.774   2.886
42317SOL    HW228849   9.842   2.862   3.000
42318SOL     OW28850   5.545   6.767   8.791
42318SOL    HW128851   5.496   6.814   8.724
42318SOL    HW228852   5.498   6.784   8.872
42319SOL     OW28853   9.388   2.407   5.995
42319SOL    HW128854   9.470   2.402   5.946
42319SOL    HW228855   9.384   2.324   6.043
42320SOL     OW28856   8.934  10.515   7.205
42320SOL    HW128857   8.960  10.472   7.123
42320SOL    HW228858   8.974  10.601   7.201
42321SOL     OW28859   5.654   9.982   3.369
42321SOL    HW128860   5.668  10.022   3.456
42321SOL    HW228861   5.698   9.897   3.375
42322SOL     OW28862  13.835   7.607  11.473
42322SOL    HW128863  13.752   7.570  11.502
42322SOL    HW228864  13.883   7.625  11.554
42323SOL     OW28865   1.144  11.631   3.805
42323SOL    HW128866   1.148  11.538   3.824
42323SOL    HW228867   1.064  11.642   3.754
42324SOL     OW28868  14.255   8.797   8.650
42324SOL    HW128869  14.177   8.848   8.673
42324SOL    HW228870  14.327   8.860   8.653
42325SOL     OW28871   7.705  12.552   0.671
42325SOL    HW128872   7.622  12.598   0.676
42325SOL    HW228873   7.723  12.542   0.578
42326SOL     OW28874   5.245   3.681  14.448
42326SOL    HW128875   5.329   3.644  14.419
42326SOL    HW228876   5.194   3.690  14.368
42327SOL     OW28877  14.633   0.272  11.835
42327SOL    HW128878  14.705   0.293  11.895
42327SOL    HW228879  14.661   0.307  11.750
42328SOL     OW28880   5.624   6.457   3.077
42328SOL    HW128881   5.603   6.443   3.170
42328SOL    HW228882   5.553   6.512   3.045
42329SOL     OW28883  14.856   9.525   8.758
42329SOL    HW128884   0.040   9.537   8.680
42329SOL    HW228885   0.047   9.496   8.826
42330SOL     OW28886   5.538   3.364   3.940
42330SOL    HW128887   5.508   3.449   3.973
42330SOL    HW228888   5.517   3.302   4.010
42331SOL     OW28889  12.221   7.377   7.543
42331SOL    HW128890  12.164   7.453   7.534
42331SOL    HW228891  12.196   7.320   7.471
42332SOL     OW28892   6.846   8.682   6.603
42332SOL    HW128893   6.907   8.613   6.576
42332SOL    HW228894   6.765   8.662   6.556
42333SOL     OW28895  10.362   3.965  14.714
42333SOL    HW128896  10.444   3.996  14.751
42333SOL    HW228897  10.296   3.988  14.779
42334SOL     OW28898   0.456   2.045  12.629
42334SOL    HW128899   0.456   2.051  12.533
42334SOL    HW228900   0.525   1.981  12.648
42335SOL     OW28901   2.579  10.658   2.250
42335SOL    HW128902   2.484  10.660   2.250
42335SOL    HW228903   2.602  10.574   2.290
42336SOL     OW28904   7.166   6.919   1.425
42336SOL    HW128905   7.169   7.013   1.408
42336SOL    HW228906   7.210   6.879   1.349
42337SOL     OW28907   7.680   9.535   5.766
42337SOL    HW128908   7.702   9.588   5.843
42337SOL    HW228909   7.598   9.573   5.734
42338SOL     OW28910   1.624  12.726   4.527
42338SOL    HW128911   1.710  12.735   4.485
42338SOL    HW228912   1.585  12.649   4.485
42339SOL     OW28913   6.481   4.600   5.755
42339SOL    HW128914   6.410   4.660   5.732
42339SOL    HW228915   6.526   4.641   5.828
42340SOL     OW28916   6.946  13.561   3.080
42340SOL    HW128917   6.932  13.612   3.159
42340SOL    HW228918   7.033  13.587   3.050
42341SOL     OW28919   3.826   2.795   8.483
42341SOL    HW128920   3.867   2.869   8.528
42341SOL    HW228921   3.880   2.720   8.505
42342SOL     OW28922   7.569   1.395   0.586
42342SOL    HW128923   7.495   1.335   0.599
42342SOL    HW228924   7.589   1.389   0.493
42343SOL     OW28925   8.164   9.213   0.306
42343SOL    HW128926   8.142   9.214   0.213
42343SOL    HW228927   8.240   9.156   0.313
42344SOL     OW28928   1.060   3.383  10.029
42344SOL    HW128929   0.976   3.394  10.074
42344SOL    HW228930   1.093   3.298  10.060
42345SOL     OW28931  12.668   3.717  14.524
42345SOL    HW128932  12.699   3.636  14.565
42345SOL    HW228933  12.605   3.753  14.587
42346SOL     OW28934  14.814  12.440   7.281
42346SOL    HW128935  14.862  12.519   7.257
42346SOL    HW228936  14.750  12.428   7.211
42347SOL     OW28937  11.258   7.417   8.139
42347SOL    HW128938  11.256   7.483   8.070
42347SOL    HW228939  11.288   7.465   8.217
42348SOL     OW28940   6.623  13.477   4.947
42348SOL    HW128941   6.653  13.410   5.008
42348SOL    HW228942   6.694  13.541   4.946
42349SOL     OW28943   2.334   9.128  12.004
42349SOL    HW128944   2.400   9.120  11.935
42349SOL    HW228945   2.330   9.041  12.044
42350SOL     OW28946  12.492   0.148  10.348
42350SOL    HW128947  12.481   0.066  10.301
42350SOL    HW228948  12.568   0.134  10.405
42351SOL     OW28949   9.550   9.125   6.488
42351SOL    HW128950   9.517   9.042   6.453
42351SOL    HW228951   9.607   9.099   6.561
42352SOL     OW28952   9.239   1.849   3.706
42352SOL    HW128953   9.163   1.855   3.765
42352SOL    HW228954   9.281   1.935   3.713
42353SOL     OW28955  13.666   3.978  11.035
42353SOL    HW128956  13.654   3.945  11.124
42353SOL    HW228957  13.674   4.073  11.046
42354SOL     OW28958  11.693   4.966   7.426
42354SOL    HW128959  11.772   5.020   7.434
42354SOL    HW228960  11.661   4.983   7.337
42355SOL     OW28961   5.013  12.343   0.597
42355SOL    HW128962   4.973  12.381   0.674
42355SOL    HW228963   4.984  12.252   0.597
42356SOL     OW28964  10.271   2.866   0.648
42356SOL    HW128965  10.176   2.868   0.648
42356SOL    HW228966  10.297   2.915   0.570
42357SOL     OW28967   2.208  10.965   8.077
42357SOL    HW128968   2.115  10.951   8.059
42357SOL    HW228969   2.226  10.912   8.155
42358SOL     OW28970  13.866   5.225  12.826
42358SOL    HW128971  13.933   5.158  12.832
42358SOL    HW228972  13.852   5.254  12.916
42359SOL     OW28973   3.087   6.370   8.066
42359SOL    HW128974   3.130   6.342   7.985
42359SOL    HW228975   3.088   6.466   8.063
42360SOL     OW28976  11.070   2.452   4.272
42360SOL    HW128977  11.123   2.409   4.339
42360SOL    HW228978  10.981   2.422   4.289
42361SOL     OW28979   3.966   7.674   3.905
42361SOL    HW128980   3.888   7.720   3.875
42361SOL    HW228981   3.986   7.613   3.833
42362SOL     OW28982   5.828  12.758  12.340
42362SOL    HW128983   5.793  12.710  12.416
42362SOL    HW228984   5.813  12.850  12.361
42363SOL     OW28985   9.036   2.951   2.792
42363SOL    HW128986   8.998   3.018   2.849
42363SOL    HW228987   9.048   2.995   2.708
42364SOL     OW28988   3.502   1.653   6.407
42364SOL    HW128989   3.518   1.559   6.417
42364SOL    HW228990   3.479   1.683   6.495
42365SOL     OW28991   2.931   8.222   6.750
42365SOL    HW128992   2.992   8.227   6.677
42365SOL    HW228993   2.905   8.130   6.753
42366SOL     OW28994   7.656   7.009   0.263
42366SOL    HW128995   7.582   6.952   0.242
42366SOL    HW228996   7.668   7.064   0.185
42367SOL     OW28997   8.283   5.477  10.767
42367SOL    HW128998   8.267   5.391  10.728
42367SOL    HW228999   8.366   5.467  10.814
42368SOL     OW29000  10.942   8.909  11.852
42368SOL    HW129001  10.869   8.849  11.866
42368SOL    HW229002  10.922   8.985  11.907
42369SOL     OW29003   2.684  13.646   7.271
42369SOL    HW129004   2.684  13.738   7.242
42369SOL    HW229005   2.601  13.611   7.242
42370SOL     OW29006   1.220   0.479   8.256
42370SOL    HW129007   1.173   0.545   8.205
42370SOL    HW229008   1.218   0.511   8.346
42371SOL     OW29009  13.976   7.692   0.354
42371SOL    HW129010  13.985   7.686   0.449
42371SOL    HW229011  13.884   7.672   0.337
42372SOL     OW29012   0.840  13.674   2.101
42372SOL    HW129013   0.919  13.686   2.049
42372SOL    HW229014   0.871  13.641   2.185
42373SOL     OW29015   7.813  14.569   7.584
42373SOL    HW129016   7.902  14.603   7.595
42373SOL    HW229017   7.776  14.622   7.513
42374SOL     OW29018   0.968   2.001   7.572
42374SOL    HW129019   1.060   2.014   7.548
42374SOL    HW229020   0.921   2.067   7.522
42375SOL     OW29021  10.886   6.977  11.725
42375SOL    HW129022  10.808   6.946  11.678
42375SOL    HW229023  10.854   7.001  11.812
42376SOL     OW29024   5.975  12.814   3.839
42376SOL    HW129025   5.909  12.876   3.809
42376SOL    HW229026   6.022  12.861   3.908
42377SOL     OW29027   2.147   7.133   9.657
42377SOL    HW129028   2.202   7.075   9.710
42377SOL    HW229029   2.090   7.177   9.721
42378SOL     OW29030  10.794   3.386   2.804
42378SOL    HW129031  10.723   3.430   2.758
42378SOL    HW229032  10.874   3.422   2.765
42379SOL     OW29033   8.061   9.910   8.547
42379SOL    HW129034   8.130   9.954   8.496
42379SOL    HW229035   8.065   9.819   8.520
42380SOL     OW29036   0.342  10.364  13.237
42380SOL    HW129037   0.268  10.425  13.244
42380SOL    HW229038   0.414  10.410  13.281
42381SOL     OW29039   1.048   9.595   2.816
42381SOL    HW129040   0.967   9.642   2.838
42381SOL    HW229041   1.116   9.663   2.817
42382SOL     OW29042   7.184   4.564  13.564
42382SOL    HW129043   7.205   4.598  13.477
42382SOL    HW229044   7.265   4.576  13.615
42383SOL     OW29045   0.875  10.398   2.515
42383SOL    HW129046   0.875  10.393   2.419
42383SOL    HW229047   0.785  10.418   2.538
42384SOL     OW29048   3.149  13.212   3.570
42384SOL    HW129049   3.123  13.144   3.508
42384SOL    HW229050   3.227  13.176   3.613
42385SOL     OW29051   1.320   7.182  10.197
42385SOL    HW129052   1.245   7.194  10.256
42385SOL    HW229053   1.396   7.206  10.250
42386SOL     OW29054   5.111   4.927   3.844
42386SOL    HW129055   5.071   4.851   3.803
42386SOL    HW229056   5.159   4.971   3.774
42387SOL     OW29057  13.698   0.453  11.924
42387SOL    HW129058  13.764   0.413  11.868
42387SOL    HW229059  13.616   0.441  11.876
42388SOL     OW29060   2.965   0.338   2.783
42388SOL    HW129061   2.877   0.345   2.820
42388SOL    HW229062   2.955   0.363   2.691
42389SOL     OW29063  10.982   8.318   8.940
42389SOL    HW129064  11.060   8.346   8.892
42389SOL    HW229065  10.993   8.355   9.027
42390SOL     OW29066   4.988   9.271  14.151
42390SOL    HW129067   4.995   9.366  14.141
42390SOL    HW229068   5.052   9.249  14.219
42391SOL     OW29069   5.446  11.737  13.867
42391SOL    HW129070   5.404  11.814  13.829
42391SOL    HW229071   5.447  11.673  13.796
42392SOL     OW29072  10.478  12.157   5.145
42392SOL    HW129073  10.446  12.099   5.214
42392SOL    HW229074  10.573  12.160   5.158
42393SOL     OW29075   0.901   7.446   2.780
42393SOL    HW129076   0.850   7.368   2.759
42393SOL    HW229077   0.991   7.415   2.784
42394SOL     OW29078  11.145   1.359  13.182
42394SOL    HW129079  11.236   1.388  13.187
42394SOL    HW229080  11.136   1.323  13.094
42395SOL     OW29081   2.076   5.401   7.979
42395SOL    HW129082   2.108   5.315   8.005
42395SOL    HW229083   2.115   5.461   8.042
42396SOL     OW29084  10.586  10.966  14.349
42396SOL    HW129085  10.594  10.871  14.335
42396SOL    HW229086  10.504  10.976  14.397
42397SOL     OW29087  10.575  14.229   7.911
42397SOL    HW129088  10.601  14.288   7.840
42397SOL    HW229089  10.633  14.252   7.983
42398SOL     OW29090   0.926   7.602  10.565
42398SOL    HW129091   0.883   7.530  10.518
42398SOL    HW229092   0.898   7.681  10.519
42399SOL     OW29093  11.910   1.337   5.672
42399SOL    HW129094  12.002   1.332   5.646
42399SOL    HW229095  11.906   1.289   5.755
42400SOL     OW29096  10.972  13.584   7.397
42400SOL    HW129097  10.971  13.489   7.410
42400SOL    HW229098  11.044  13.599   7.335
42401SOL     OW29099   2.404   4.916   4.843
42401SOL    HW129100   2.337   4.854   4.873
42401SOL    HW229101   2.354   4.985   4.800
42402SOL     OW29102  11.322  13.116   0.478
42402SOL    HW129103  11.244  13.099   0.532
42402SOL    HW229104  11.376  13.175   0.532
42403SOL     OW29105   4.622   9.474   8.042
42403SOL    HW129106   4.716   9.476   8.056
42403SOL    HW229107   4.590   9.406   8.101
42404SOL     OW29108  12.736   9.931  14.303
42404SOL    HW129109  12.807   9.946  14.241
42404SOL    HW229110  12.710  10.019  14.332
42405SOL     OW29111   7.251   8.003  12.716
42405SOL    HW129112   7.225   8.074  12.657
42405SOL    HW229113   7.259   7.927  12.659
42406SOL     OW29114   1.031   3.054  14.568
42406SOL    HW129115   0.980   3.121  14.615
42406SOL    HW229116   1.084   3.013  14.636
42407SOL     OW29117   0.260   9.417  10.586
42407SOL    HW129118   0.340   9.454  10.548
42407SOL    HW229119   0.203   9.493  10.599
42408SOL     OW29120  10.270   6.885  10.716
42408SOL    HW129121  10.261   6.806  10.664
42408SOL    HW229122  10.286   6.955  10.652
42409SOL     OW29123  11.058  14.258  13.429
42409SOL    HW129124  11.025  14.222  13.347
42409SOL    HW229125  10.995  14.230  13.495
42410SOL     OW29126  11.356   4.926   4.541
42410SOL    HW129127  11.441   4.882   4.546
42410SOL    HW229128  11.325   4.929   4.631
42411SOL     OW29129   0.974   6.085  14.260
42411SOL    HW129130   0.994   6.116  14.172
42411SOL    HW229131   0.908   6.017  14.248
42412SOL     OW29132  14.087   6.495   1.780
42412SOL    HW129133  14.053   6.427   1.838
42412SOL    HW229134  14.156   6.537   1.830
42413SOL     OW29135   2.740   4.184  10.194
42413SOL    HW129136   2.674   4.170  10.125
42413SOL    HW229137   2.809   4.120  10.175
42414SOL     OW29138   2.056   0.941   9.960
42414SOL    HW129139   1.978   0.911   9.915
42414SOL    HW229140   2.041   1.035   9.975
42415SOL     OW29141  13.593  13.774   0.620
42415SOL    HW129142  13.547  13.795   0.539
42415SOL    HW229143  13.604  13.859   0.663
42416SOL     OW29144   5.518   4.200  11.254
42416SOL    HW129145   5.530   4.250  11.334
42416SOL    HW229146   5.603   4.202  11.211
42417SOL     OW29147  13.524   4.737   6.109
42417SOL    HW129148  13.544   4.831   6.107
42417SOL    HW229149  13.448   4.730   6.167
42418SOL     OW29150   9.862   1.951   6.735
42418SOL    HW129151   9.859   1.917   6.646
42418SOL    HW229152   9.803   2.027   6.734
42419SOL     OW29153   8.667  13.819  14.031
42419SOL    HW129154   8.665  13.725  14.049
42419SOL    HW229155   8.754  13.847  14.061
42420SOL     OW29156   4.346   2.618   1.205
42420SOL    HW129157   4.294   2.542   1.180
42420SOL    HW229158   4.282   2.684   1.231
42421SOL     OW29159  12.325   7.942   5.540
42421SOL    HW129160  12.241   7.931   5.495
42421SOL    HW229161  12.358   8.026   5.509
42422SOL     OW29162   3.035   6.350  12.500
42422SOL    HW129163   3.102   6.370  12.435
42422SOL    HW229164   2.956   6.393  12.468
42423SOL     OW29165   5.827   3.026  10.078
42423SOL    HW129166   5.886   3.101  10.086
42423SOL    HW229167   5.869   2.969  10.014
42424SOL     OW29168   5.536   5.751   5.038
42424SOL    HW129169   5.501   5.741   5.127
42424SOL    HW229170   5.607   5.814   5.047
42425SOL     OW29171   3.755   6.597   1.287
42425SOL    HW129172   3.677   6.542   1.279
42425SOL    HW229173   3.797   6.592   1.202
42426SOL     OW29174   5.417  14.864   3.773
42426SOL    HW129175   5.464  14.830   3.697
42426SOL    HW229176   5.420  14.792   3.837
42427SOL     OW29177  13.313  12.930   6.981
42427SOL    HW129178  13.240  12.972   6.935
42427SOL    HW229179  13.288  12.934   7.073
42428SOL     OW29180  12.779  13.478   9.889
42428SOL    HW129181  12.778  13.383   9.874
42428SOL    HW229182  12.698  13.510   9.850
42429SOL     OW29183   3.313  12.474  12.710
42429SOL    HW129184   3.220  12.495  12.704
42429SOL    HW229185   3.342  12.469  12.619
42430SOL     OW29186   6.545  14.363   7.372
42430SOL    HW129187   6.574  14.454   7.362
42430SOL    HW229188   6.620  14.311   7.346
42431SOL     OW29189  14.286   5.757  11.701
42431SOL    HW129190  14.219   5.736  11.767
42431SOL    HW229191  14.275   5.851  11.685
42432SOL     OW29192  13.620   8.149   6.481
42432SOL    HW129193  13.586   8.080   6.424
42432SOL    HW229194  13.542   8.194   6.514
42433SOL     OW29195   2.436   2.279  10.889
42433SOL    HW129196   2.443   2.341  10.962
42433SOL    HW229197   2.361   2.223  10.912
42434SOL     OW29198  12.066  14.682   0.772
42434SOL    HW129199  12.018  14.619   0.719
42434SOL    HW229200  12.094  14.632   0.849
42435SOL     OW29201  14.108  13.465   2.475
42435SOL    HW129202  14.129  13.517   2.552
42435SOL    HW229203  14.148  13.379   2.491
42436SOL     OW29204   7.023   5.399   0.465
42436SOL    HW129205   7.049   5.484   0.429
42436SOL    HW229206   6.931   5.390   0.438
42437SOL     OW29207   3.399   4.529   0.394
42437SOL    HW129208   3.354   4.451   0.426
42437SOL    HW229209   3.336   4.600   0.407
42438SOL     OW29210   1.883   2.221  12.973
42438SOL    HW129211   1.856   2.240  12.883
42438SOL    HW229212   1.810   2.171  13.009
42439SOL     OW29213   6.374  10.465   9.875
42439SOL    HW129214   6.443  10.495   9.815
42439SOL    HW229215   6.299  10.520   9.853
42440SOL     OW29216   1.474   5.601   5.392
42440SOL    HW129217   1.431   5.598   5.477
42440SOL    HW229218   1.477   5.694   5.369
42441SOL     OW29219   1.241   7.602   5.926
42441SOL    HW129220   1.264   7.520   5.882
42441SOL    HW229221   1.239   7.579   6.019
42442SOL     OW29222   3.481   8.724   4.734
42442SOL    HW129223   3.541   8.796   4.715
42442SOL    HW229224   3.399   8.767   4.758
42443SOL     OW29225  14.512   5.323   7.104
42443SOL    HW129226  14.579   5.277   7.153
42443SOL    HW229227  14.508   5.277   7.020
42444SOL     OW29228  12.020  13.935   3.066
42444SOL    HW129229  12.077  14.012   3.077
42444SOL    HW229230  12.032  13.910   2.974
42445SOL     OW29231  13.811  11.882  12.476
42445SOL    HW129232  13.765  11.821  12.532
42445SOL    HW229233  13.742  11.924  12.425
42446SOL     OW29234   8.878   8.283   2.512
42446SOL    HW129235   8.962   8.327   2.523
42446SOL    HW229236   8.882   8.208   2.571
42447SOL     OW29237  14.593   3.555  14.700
42447SOL    HW129238  14.639   3.612  14.762
42447SOL    HW229239  14.582   3.472  14.747
42448SOL     OW29240  14.006   4.669  12.690
42448SOL    HW129241  13.939   4.671  12.621
42448SOL    HW229242  13.990   4.587  12.736
42449SOL     OW29243  12.933  13.462   8.541
42449SOL    HW129244  12.845  13.428   8.531
42449SOL    HW229245  12.924  13.536   8.601
42450SOL     OW29246  10.421   3.164  12.379
42450SOL    HW129247  10.346   3.186  12.324
42450SOL    HW229248  10.494   3.157  12.318
42451SOL     OW29249   7.450   1.924   3.462
42451SOL    HW129250   7.507   1.880   3.399
42451SOL    HW229251   7.510   1.955   3.530
42452SOL     OW29252   7.381   8.516  11.293
42452SOL    HW129253   7.368   8.505  11.199
42452SOL    HW229254   7.341   8.601  11.313
42453SOL     OW29255   2.483  13.436   0.527
42453SOL    HW129256   2.520  13.357   0.568
42453SOL    HW229257   2.472  13.411   0.435
42454SOL     OW29258   9.309   3.652  12.373
42454SOL    HW129259   9.328   3.746  12.382
42454SOL    HW229260   9.227   3.641  12.421
42455SOL     OW29261  14.023   5.254   8.284
42455SOL    HW129262  13.987   5.330   8.238
42455SOL    HW229263  13.961   5.183   8.267
42456SOL     OW29264  12.430  11.595   3.111
42456SOL    HW129265  12.376  11.543   3.052
42456SOL    HW229266  12.430  11.546   3.193
42457SOL     OW29267   9.014   7.045  13.127
42457SOL    HW129268   9.082   7.055  13.060
42457SOL    HW229269   9.062   7.050  13.210
42458SOL     OW29270   2.575   8.754  12.605
42458SOL    HW129271   2.507   8.805  12.649
42458SOL    HW229272   2.638   8.820  12.575
42459SOL     OW29273   4.186   1.616   9.443
42459SOL    HW129274   4.227   1.699   9.420
42459SOL    HW229275   4.210   1.556   9.373
42460SOL     OW29276  11.224   4.425   7.249
42460SOL    HW129277  11.287   4.466   7.189
42460SOL    HW229278  11.139   4.457   7.219
42461SOL     OW29279   3.831   8.132   7.425
42461SOL    HW129280   3.910   8.082   7.404
42461SOL    HW229281   3.759   8.073   7.402
42462SOL     OW29282   8.217   9.869   2.782
42462SOL    HW129283   8.194   9.864   2.689
42462SOL    HW229284   8.237   9.961   2.797
42463SOL     OW29285  13.384  14.285   7.562
42463SOL    HW129286  13.359  14.301   7.653
42463SOL    HW229287  13.444  14.210   7.566
42464SOL     OW29288  12.566   9.177   8.623
42464SOL    HW129289  12.497   9.111   8.636
42464SOL    HW229290  12.519   9.252   8.586
42465SOL     OW29291   9.284  10.061  10.216
42465SOL    HW129292   9.311  10.152  10.205
42465SOL    HW229293   9.207  10.066  10.273
42466SOL     OW29294  13.842   3.652   3.122
42466SOL    HW129295  13.849   3.585   3.190
42466SOL    HW229296  13.904   3.624   3.054
42467SOL     OW29297   3.802   1.159  11.751
42467SOL    HW129298   3.820   1.065  11.746
42467SOL    HW229299   3.715   1.169  11.713
42468SOL     OW29300  14.336   8.510  14.038
42468SOL    HW129301  14.405   8.500  13.972
42468SOL    HW229302  14.255   8.519  13.987
42469SOL     OW29303  10.786   0.446  10.667
42469SOL    HW129304  10.698   0.412  10.684
42469SOL    HW229305  10.774   0.508  10.595
42470SOL     OW29306  13.032   8.096   6.996
42470SOL    HW129307  13.019   8.061   6.908
42470SOL    HW229308  13.014   8.190   6.987
42471SOL     OW29309  12.309  11.858   7.833
42471SOL    HW129310  12.396  11.867   7.795
42471SOL    HW229311  12.279  11.772   7.803
42472SOL     OW29312   9.314   4.432   4.057
42472SOL    HW129313   9.275   4.518   4.075
42472SOL    HW229314   9.272   4.404   3.976
42473SOL     OW29315  13.180   8.581   3.748
42473SOL    HW129316  13.221   8.604   3.665
42473SOL    HW229317  13.095   8.543   3.724
42474SOL     OW29318   2.427   7.760   1.494
42474SOL    HW129319   2.487   7.795   1.560
42474SOL    HW229320   2.348   7.737   1.542
42475SOL     OW29321  10.765   0.514  14.623
42475SOL    HW129322  10.809   0.432  14.644
42475SOL    HW229323  10.673   0.490  14.612
42476SOL     OW29324   6.291   5.608  11.656
42476SOL    HW129325   6.301   5.703  11.660
42476SOL    HW229326   6.221   5.588  11.717
42477SOL     OW29327   4.119   5.631   4.663
42477SOL    HW129328   4.063   5.572   4.714
42477SOL    HW229329   4.170   5.572   4.607
42478SOL     OW29330  11.762   0.793   2.697
42478SOL    HW129331  11.692   0.736   2.665
42478SOL    HW229332  11.721   0.879   2.708
42479SOL     OW29333   3.177  12.228  10.361
42479SOL    HW129334   3.192  12.314  10.321
42479SOL    HW229335   3.247  12.173  10.326
42480SOL     OW29336  14.379   7.775   3.442
42480SOL    HW129337  14.393   7.839   3.511
42480SOL    HW229338  14.329   7.704   3.484
42481SOL     OW29339  13.611   8.664   2.892
42481SOL    HW129340  13.652   8.726   2.831
42481SOL    HW229341  13.622   8.705   2.978
42482SOL     OW29342   0.888   7.619   4.071
42482SOL    HW129343   0.855   7.669   3.996
42482SOL    HW229344   0.897   7.684   4.140
42483SOL     OW29345  13.626   5.380   9.288
42483SOL    HW129346  13.645   5.306   9.345
42483SOL    HW229347  13.688   5.448   9.316
42484SOL     OW29348   5.132  10.643  13.326
42484SOL    HW129349   5.096  10.652  13.237
42484SOL    HW229350   5.227  10.643  13.313
42485SOL     OW29351  13.750   2.697  11.435
42485SOL    HW129352  13.726   2.696  11.528
42485SOL    HW229353  13.667   2.692  11.389
42486SOL     OW29354   6.846  14.089   0.435
42486SOL    HW129355   6.909  14.100   0.363
42486SOL    HW229356   6.761  14.082   0.391
42487SOL     OW29357   4.216   5.844  10.885
42487SOL    HW129358   4.140   5.794  10.915
42487SOL    HW229359   4.224   5.915  10.950
42488SOL     OW29360   7.329  14.583  11.704
42488SOL    HW129361   7.281  14.503  11.683
42488SOL    HW229362   7.408  14.553  11.750
42489SOL     OW29363  14.017   7.527  13.977
42489SOL    HW129364  14.010   7.484  14.062
42489SOL    HW229365  13.973   7.466  13.917
42490SOL     OW29366   9.438  11.047   4.341
42490SOL    HW129367   9.518  10.996   4.356
42490SOL    HW229368   9.367  10.986   4.362
42491SOL     OW29369  13.433   6.417   8.237
42491SOL    HW129370  13.385   6.469   8.174
42491SOL    HW229371  13.367   6.391   8.301
42492SOL     OW29372   6.896   3.049  12.611
42492SOL    HW129373   6.816   2.998  12.628
42492SOL    HW229374   6.868   3.118  12.552
42493SOL     OW29375   8.473   6.629   3.763
42493SOL    HW129376   8.466   6.534   3.753
42493SOL    HW229377   8.552   6.642   3.815
42494SOL     OW29378   9.108   6.036  13.563
42494SOL    HW129379   9.137   6.089  13.488
42494SOL    HW229380   9.189   6.013  13.608
42495SOL     OW29381   6.381  13.549   6.947
42495SOL    HW129382   6.357  13.587   6.863
42495SOL    HW229383   6.437  13.474   6.924
42496SOL     OW29384   7.526   0.602   2.603
42496SOL    HW129385   7.516   0.644   2.518
42496SOL    HW229386   7.483   0.517   2.594
42497SOL     OW29387   2.911   8.531   9.267
42497SOL    HW129388   2.972   8.460   9.245
42497SOL    HW229389   2.966   8.609   9.272
42498SOL     OW29390  14.544   7.460   1.136
42498SOL    HW129391  14.572   7.543   1.098
42498SOL    HW229392  14.449   7.459   1.125
42499SOL     OW29393   9.636   8.951   4.502
42499SOL    HW129394   9.730   8.934   4.497
42499SOL    HW229395   9.626   9.015   4.572
42500SOL     OW29396   5.537   7.318  13.331
42500SOL    HW129397   5.586   7.242  13.362
42500SOL    HW229398   5.601   7.370  13.283
42501SOL     OW29399   5.864   4.617   0.608
42501SOL    HW129400   5.959   4.625   0.614
42501SOL    HW229401   5.848   4.579   0.522
42502SOL     OW29402  13.568   1.409   4.676
42502SOL    HW129403  13.562   1.401   4.771
42502SOL    HW229404  13.510   1.482   4.655
42503SOL     OW29405  14.740   2.198   4.682
42503SOL    HW129406  14.678   2.269   4.696
42503SOL    HW229407  14.799   2.230   4.614
42504SOL     OW29408  12.755   7.915   3.413
42504SOL    HW129409  12.847   7.913   3.439
42504SOL    HW229410  12.727   8.004   3.431
42505SOL     OW29411   9.839  13.042   0.251
42505SOL    HW129412   9.902  13.114   0.245
42505SOL    HW229413   9.792  13.044   0.167
42506SOL     OW29414   0.641   0.054   2.475
42506SOL    HW129415   0.568   0.090   2.426
42506SOL    HW229416   0.660   0.119   2.542
42507SOL     OW29417   0.127   6.630  14.012
42507SOL    HW129418   0.204   6.670  14.053
42507SOL    HW229419   0.064   6.702  14.004
42508SOL     OW29420   0.496   0.742   7.181
42508SOL    HW129421   0.536   0.658   7.203
42508SOL    HW229422   0.570   0.801   7.165
42509SOL     OW29423   3.340   3.359  13.184
42509SOL    HW129424   3.286   3.411  13.244
42509SOL    HW229425   3.325   3.268  13.210
42510SOL     OW29426  13.708   3.621   4.596
42510SOL    HW129427  13.654   3.632   4.674
42510SOL    HW229428  13.729   3.710   4.568
42511SOL     OW29429   8.270  11.327   1.606
42511SOL    HW129430   8.340  11.359   1.663
42511SOL    HW229431   8.196  11.385   1.623
42512SOL     OW29432   5.489   6.604   1.702
42512SOL    HW129433   5.538   6.537   1.654
42512SOL    HW229434   5.499   6.579   1.794
42513SOL     OW29435   6.277   0.235   0.187
42513SOL    HW129436   6.198   0.282   0.213
42513SOL    HW229437   6.337   0.303   0.157
42514SOL     OW29438  14.635  10.443  11.602
42514SOL    HW129439  14.572  10.510  11.576
42514SOL    HW229440  14.689  10.429  11.525
42515SOL     OW29441   6.444   5.957   4.512
42515SOL    HW129442   6.354   5.948   4.482
42515SOL    HW229443   6.481   6.024   4.454
42516SOL     OW29444   7.643   9.831  12.602
42516SOL    HW129445   7.689   9.791  12.676
42516SOL    HW229446   7.636   9.761  12.537
42517SOL     OW29447  10.674   5.506   3.448
42517SOL    HW129448  10.615   5.468   3.513
42517SOL    HW229449  10.753   5.527   3.497
42518SOL     OW29450  14.540  12.895  13.191
42518SOL    HW129451  14.567  12.846  13.114
42518SOL    HW229452  14.455  12.932  13.168
42519SOL     OW29453   5.246  11.623   0.515
42519SOL    HW129454   5.307  11.597   0.584
42519SOL    HW229455   5.162  11.587   0.542
42520SOL     OW29456   3.292  11.185  13.067
42520SOL    HW129457   3.223  11.216  13.008
42520SOL    HW229458   3.294  11.090  13.056
42521SOL     OW29459   1.402  10.242   0.478
42521SOL    HW129460   1.497  10.242   0.465
42521SOL    HW229461   1.389  10.292   0.559
42522SOL     OW29462  12.296   6.960  13.650
42522SOL    HW129463  12.200   6.961  13.653
42522SOL    HW229464  12.319   7.050  13.627
42523SOL     OW29465   7.967  10.039   9.920
42523SOL    HW129466   7.939   9.948   9.930
42523SOL    HW229467   7.935  10.064   9.833
42524SOL     OW29468   8.438   2.048  12.305
42524SOL    HW129469   8.372   2.105  12.265
42524SOL    HW229470   8.409   1.959  12.285
42525SOL     OW29471   9.849   5.330   7.209
42525SOL    HW129472   9.854   5.425   7.221
42525SOL    HW229473   9.835   5.296   7.297
42526SOL     OW29474   0.032   4.255  12.321
42526SOL    HW129475  14.864   4.227  12.404
42526SOL    HW229476  14.850   4.209  12.255
42527SOL     OW29477   7.069   7.697   7.891
42527SOL    HW129478   7.017   7.618   7.881
42527SOL    HW229479   7.157   7.666   7.912
42528SOL     OW29480   4.015  14.686  10.112
42528SOL    HW129481   4.061  14.766  10.089
42528SOL    HW229482   4.046  14.620  10.049
42529SOL     OW29483   9.306   7.732   6.357
42529SOL    HW129484   9.349   7.647   6.350
42529SOL    HW229485   9.292   7.744   6.451
42530SOL     OW29486  10.543   9.282   1.232
42530SOL    HW129487  10.618   9.254   1.180
42530SOL    HW229488  10.489   9.333   1.172
42531SOL     OW29489   3.263  12.667  14.162
42531SOL    HW129490   3.283  12.642  14.252
42531SOL    HW229491   3.196  12.735  14.171
42532SOL     OW29492   7.790   8.692  14.537
42532SOL    HW129493   7.809   8.662  14.626
42532SOL    HW229494   7.727   8.628  14.504
42533SOL     OW29495   9.837  13.743   7.706
42533SOL    HW129496   9.885  13.684   7.648
42533SOL    HW229497   9.746  13.738   7.676
42534SOL     OW29498  12.582  14.235   5.681
42534SOL    HW129499  12.634  14.156   5.690
42534SOL    HW229500  12.526  14.219   5.605
42535SOL     OW29501   6.502  11.737  14.230
42535SOL    HW129502   6.480  11.821  14.189
42535SOL    HW229503   6.460  11.671  14.175
42536SOL     OW29504  13.662  12.474  10.356
42536SOL    HW129505  13.650  12.569  10.359
42536SOL    HW229506  13.755  12.461  10.378
42537SOL     OW29507   9.180   1.373   9.297
42537SOL    HW129508   9.230   1.332   9.367
42537SOL    HW229509   9.106   1.313   9.282
42538SOL     OW29510  13.619   4.989   0.839
42538SOL    HW129511  13.577   5.071   0.813
42538SOL    HW229512  13.625   4.994   0.935
42539SOL     OW29513   3.656   3.119   0.789
42539SOL    HW129514   3.648   3.031   0.823
42539SOL    HW229515   3.593   3.123   0.717
42540SOL     OW29516   1.445   2.956   7.671
42540SOL    HW129517   1.491   3.040   7.672
42540SOL    HW229518   1.393   2.956   7.751
42541SOL     OW29519   8.037   9.596   1.086
42541SOL    HW129520   8.013   9.521   1.141
42541SOL    HW229521   7.955   9.620   1.043
42542SOL     OW29522   4.419  14.351   3.106
42542SOL    HW129523   4.440  14.334   3.198
42542SOL    HW229524   4.352  14.286   3.084
42543SOL     OW29525   1.232  11.093   3.243
42543SOL    HW129526   1.248  11.187   3.237
42543SOL    HW229527   1.315  11.056   3.272
42544SOL     OW29528  12.199   5.014  13.586
42544SOL    HW129529  12.163   5.048  13.668
42544SOL    HW229530  12.294   5.015  13.600
42545SOL     OW29531  14.000   2.268   5.419
42545SOL    HW129532  14.008   2.350   5.467
42545SOL    HW229533  13.934   2.218   5.467
42546SOL     OW29534   4.354   9.859   2.107
42546SOL    HW129535   4.381   9.773   2.140
42546SOL    HW229536   4.325   9.843   2.018
42547SOL     OW29537   0.435  11.705   5.682
42547SOL    HW129538   0.367  11.757   5.640
42547SOL    HW229539   0.495  11.681   5.612
42548SOL     OW29540   8.924  10.260  12.173
42548SOL    HW129541   8.862  10.203  12.219
42548SOL    HW229542   9.009  10.238  12.212
42549SOL     OW29543   1.725  13.837  14.626
42549SOL    HW129544   1.683  13.821  14.542
42549SOL    HW229545   1.808  13.880  14.604
42550SOL     OW29546  11.262  11.058   1.266
42550SOL    HW129547  11.211  11.132   1.300
42550SOL    HW229548  11.347  11.067   1.309
42551SOL     OW29549  14.521   5.504   3.982
42551SOL    HW129550  14.426   5.498   3.978
42551SOL    HW229551  14.551   5.413   3.981
42552SOL     OW29552   8.908   1.643  14.330
42552SOL    HW129553   8.813   1.633  14.329
42552SOL    HW229554   8.930   1.672  14.242
42553SOL     OW29555   8.329   1.697   1.560
42553SOL    HW129556   8.350   1.638   1.633
42553SOL    HW229557   8.265   1.758   1.597
42554SOL     OW29558   0.757  14.126   4.636
42554SOL    HW129559   0.729  14.070   4.709
42554SOL    HW229560   0.686  14.189   4.627
42555SOL     OW29561  10.777   4.271   7.892
42555SOL    HW129562  10.846   4.216   7.854
42555SOL    HW229563  10.738   4.316   7.816
42556SOL     OW29564   9.022   3.760   4.083
42556SOL    HW129565   8.957   3.710   4.130
42556SOL    HW229566   8.973   3.807   4.015
42557SOL     OW29567   2.964  10.116   7.039
42557SOL    HW129568   2.907  10.042   7.018
42557SOL    HW229569   2.906  10.179   7.082
42558SOL     OW29570   9.361  13.423  14.478
42558SOL    HW129571   9.375  13.503  14.427
42558SOL    HW229572   9.437  13.418  14.536
42559SOL     OW29573  10.265   2.872   6.360
42559SOL    HW129574  10.284   2.920   6.440
42559SOL    HW229575  10.334   2.806   6.354
42560SOL     OW29576   1.952   9.327   9.441
42560SOL    HW129577   1.910   9.297   9.360
42560SOL    HW229578   2.037   9.283   9.442
42561SOL     OW29579   4.773   2.065   6.787
42561SOL    HW129580   4.804   1.985   6.829
42561SOL    HW229581   4.817   2.136   6.834
42562SOL     OW29582   7.511   4.047   9.561
42562SOL    HW129583   7.572   4.116   9.588
42562SOL    HW229584   7.563   3.988   9.507
42563SOL     OW29585   5.589   5.607   0.573
42563SOL    HW129586   5.599   5.688   0.624
42563SOL    HW229587   5.507   5.619   0.526
42564SOL     OW29588  10.950   1.154   0.530
42564SOL    HW129589  10.904   1.174   0.612
42564SOL    HW229590  11.002   1.233   0.512
42565SOL     OW29591   4.786   0.149   7.916
42565SOL    HW129592   4.854   0.216   7.920
42565SOL    HW229593   4.733   0.163   7.995
42566SOL     OW29594  11.277   8.551   3.908
42566SOL    HW129595  11.255   8.458   3.905
42566SOL    HW229596  11.343   8.558   3.977
42567SOL     OW29597  14.035  14.865   1.813
42567SOL    HW129598  13.966  14.826   1.759
42567SOL    HW229599  13.999  14.863   1.902
42568SOL     OW29600   0.935   4.023  14.707
42568SOL    HW129601   0.977   4.099  14.667
42568SOL    HW229602   0.843   4.049  14.715
42569SOL     OW29603   7.833   0.375   4.016
42569SOL    HW129604   7.892   0.374   3.941
42569SOL    HW229605   7.887   0.405   4.089
42570SOL     OW29606  13.267   5.670   8.540
42570SOL    HW129607  13.357   5.655   8.567
42570SOL    HW229608  13.217   5.673   8.622
42571SOL     OW29609  11.799   2.210   9.359
42571SOL    HW129610  11.816   2.177   9.270
42571SOL    HW229611  11.886   2.228   9.395
42572SOL     OW29612   7.360  13.386   4.660
42572SOL    HW129613   7.375  13.481   4.660
42572SOL    HW229614   7.408  13.355   4.737
42573SOL     OW29615   0.268  10.769  14.033
42573SOL    HW129616   0.207  10.747  14.104
42573SOL    HW229617   0.271  10.691  13.979
42574SOL     OW29618   6.999   5.319   8.274
42574SOL    HW129619   7.088   5.292   8.252
42574SOL    HW229620   7.009   5.380   8.347
42575SOL     OW29621   0.740  10.726   5.296
42575SOL    HW129622   0.795  10.751   5.222
42575SOL    HW229623   0.797  10.731   5.372
42576SOL     OW29624   6.322  10.785  13.109
42576SOL    HW129625   6.328  10.798  13.204
42576SOL    HW229626   6.358  10.865  13.071
42577SOL     OW29627  14.149  11.065   7.458
42577SOL    HW129628  14.099  11.006   7.514
42577SOL    HW229629  14.117  11.152   7.480
42578SOL     OW29630  11.797   5.864  11.870
42578SOL    HW129631  11.719   5.814  11.894
42578SOL    HW229632  11.762   5.940  11.822
42579SOL     OW29633   5.875   7.054   4.562
42579SOL    HW129634   5.804   7.116   4.546
42579SOL    HW229635   5.950   7.090   4.515
42580SOL     OW29636   7.609   7.664   4.478
42580SOL    HW129637   7.639   7.748   4.444
42580SOL    HW229638   7.673   7.642   4.546
42581SOL     OW29639  13.159   0.024   3.131
42581SOL    HW129640  13.084  14.838   3.150
42581SOL    HW229641  13.234  14.833   3.127
42582SOL     OW29642  13.330  10.964   9.658
42582SOL    HW129643  13.250  11.003   9.693
42582SOL    HW229644  13.340  11.002   9.571
42583SOL     OW29645  12.397   1.747  14.613
42583SOL    HW129646  12.441   1.683  14.557
42583SOL    HW229647  12.465   1.779  14.672
42584SOL     OW29648   1.184   5.875  13.575
42584SOL    HW129649   1.164   5.795  13.526
42584SOL    HW229650   1.147   5.946  13.523
42585SOL     OW29651  11.916   6.838   0.692
42585SOL    HW129652  11.848   6.905   0.696
42585SOL    HW229653  11.957   6.841   0.779
42586SOL     OW29654   3.303   4.581  10.035
42586SOL    HW129655   3.297   4.487  10.047
42586SOL    HW229656   3.267   4.618  10.116
42587SOL     OW29657  14.484  14.212   5.349
42587SOL    HW129658  14.546  14.153   5.305
42587SOL    HW229659  14.402  14.201   5.301
42588SOL     OW29660  12.618   3.892   4.188
42588SOL    HW129661  12.670   3.920   4.263
42588SOL    HW229662  12.673   3.913   4.112
42589SOL     OW29663   8.380   6.497  11.501
42589SOL    HW129664   8.341   6.520  11.416
42589SOL    HW229665   8.306   6.471  11.556
42590SOL     OW29666  10.684  12.457   4.342
42590SOL    HW129667  10.746  12.489   4.408
42590SOL    HW229668  10.599  12.488   4.373
42591SOL     OW29669   4.456   0.244   8.412
42591SOL    HW129670   4.365   0.233   8.440
42591SOL    HW229671   4.499   0.163   8.437
42592SOL     OW29672   6.586  12.063   8.267
42592SOL    HW129673   6.589  12.045   8.361
42592SOL    HW229674   6.568  12.158   8.262
42593SOL     OW29675   7.796   5.421  12.567
42593SOL    HW129676   7.731   5.489  12.585
42593SOL    HW229677   7.877   5.455  12.606
42594SOL     OW29678   1.630  11.179  12.562
42594SOL    HW129679   1.656  11.122  12.635
42594SOL    HW229680   1.712  11.214  12.528
42595SOL     OW29681   4.497  10.609  11.925
42595SOL    HW129682   4.450  10.636  12.003
42595SOL    HW229683   4.431  10.608  11.856
42596SOL     OW29684  14.073  13.031  10.095
42596SOL    HW129685  14.091  12.989  10.178
42596SOL    HW229686  13.992  12.990  10.064
42597SOL     OW29687   1.137   7.255   0.942
42597SOL    HW129688   1.178   7.252   1.028
42597SOL    HW229689   1.130   7.163   0.915
42598SOL     OW29690   6.980   5.384   3.948
42598SOL    HW129691   7.064   5.339   3.941
42598SOL    HW229692   6.925   5.323   3.997
42599SOL     OW29693   2.323   6.755   1.917
42599SOL    HW129694   2.243   6.731   1.871
42599SOL    HW229695   2.347   6.676   1.966
42600SOL     OW29696   4.493   2.449   8.273
42600SOL    HW129697   4.555   2.522   8.277
42600SOL    HW229698   4.544   2.376   8.239
42601SOL     OW29699   0.505   3.395   5.017
42601SOL    HW129700   0.517   3.484   5.050
42601SOL    HW229701   0.427   3.400   4.961
42602SOL     OW29702   0.364   5.952   1.158
42602SOL    HW129703   0.338   5.871   1.114
42602SOL    HW229704   0.285   5.983   1.202
42603SOL     OW29705   4.652   7.696   1.163
42603SOL    HW129706   4.576   7.746   1.133
42603SOL    HW229707   4.635   7.679   1.256
42604SOL     OW29708  10.617   7.229   2.271
42604SOL    HW129709  10.705   7.253   2.242
42604SOL    HW229710  10.559   7.294   2.231
42605SOL     OW29711   4.337   0.027   7.669
42605SOL    HW129712   4.283   0.094   7.629
42605SOL    HW229713   4.371   0.067   7.749
42606SOL     OW29714   5.227   2.165  13.801
42606SOL    HW129715   5.217   2.072  13.778
42606SOL    HW229716   5.202   2.168  13.894
42607SOL     OW29717  14.315   7.284  14.393
42607SOL    HW129718  14.245   7.287  14.458
42607SOL    HW229719  14.395   7.301  14.444
42608SOL     OW29720   9.992   0.393   8.108
42608SOL    HW129721   9.977   0.471   8.056
42608SOL    HW229722  10.082   0.368   8.089
42609SOL     OW29723   9.594   4.209   3.206
42609SOL    HW129724   9.673   4.256   3.180
42609SOL    HW229725   9.570   4.247   3.290
42610SOL     OW29726  14.469  14.138   1.794
42610SOL    HW129727  14.439  14.120   1.705
42610SOL    HW229728  14.419  14.078   1.849
42611SOL     OW29729   3.369   4.336   7.093
42611SOL    HW129730   3.366   4.245   7.122
42611SOL    HW229731   3.367   4.331   6.997
42612SOL     OW29732  10.325   2.568   0.668
42612SOL    HW129733  10.419   2.564   0.649
42612SOL    HW229734  10.308   2.661   0.685
42613SOL     OW29735  12.252   9.171   6.457
42613SOL    HW129736  12.253   9.127   6.372
42613SOL    HW229737  12.196   9.117   6.512
42614SOL     OW29738   3.680   9.911  13.261
42614SOL    HW129739   3.618   9.982  13.245
42614SOL    HW229740   3.636   9.833  13.229
42615SOL     OW29741   1.954   6.199   6.630
42615SOL    HW129742   2.021   6.142   6.667
42615SOL    HW229743   1.899   6.223   6.705
42616SOL     OW29744  12.751   4.770   4.532
42616SOL    HW129745  12.784   4.793   4.618
42616SOL    HW229746  12.744   4.854   4.486
42617SOL     OW29747   6.830   2.796   3.957
42617SOL    HW129748   6.873   2.815   4.040
42617SOL    HW229749   6.771   2.871   3.943
42618SOL     OW29750   8.341   6.757   2.279
42618SOL    HW129751   8.354   6.743   2.185
42618SOL    HW229752   8.390   6.837   2.298
42619SOL     OW29753   7.250  14.499   6.021
42619SOL    HW129754   7.238  14.483   5.927
42619SOL    HW229755   7.301  14.580   6.024
42620SOL     OW29756  13.306   2.224   5.220
42620SOL    HW129757  13.235   2.224   5.156
42620SOL    HW229758  13.359   2.300   5.196
42621SOL     OW29759  14.224   0.396   2.741
42621SOL    HW129760  14.240   0.303   2.751
42621SOL    HW229761  14.275   0.437   2.811
42622SOL     OW29762   8.711   8.711   8.543
42622SOL    HW129763   8.729   8.622   8.510
42622SOL    HW229764   8.746   8.769   8.476
42623SOL     OW29765   6.307  14.442   3.384
42623SOL    HW129766   6.257  14.398   3.453
42623SOL    HW229767   6.264  14.414   3.303
42624SOL     OW29768  14.721  10.102   0.178
42624SOL    HW129769  14.732  10.058   0.262
42624SOL    HW229770  14.629  10.126   0.174
42625SOL     OW29771   6.236   7.946   5.219
42625SOL    HW129772   6.279   8.014   5.167
42625SOL    HW229773   6.227   7.985   5.306
42626SOL     OW29774   0.948  10.969  14.647
42626SOL    HW129775   0.883  10.981  14.578
42626SOL    HW229776   1.029  11.004  14.610
42627SOL     OW29777   0.560  12.904   4.356
42627SOL    HW129778   0.469  12.878   4.369
42627SOL    HW229779   0.558  13.000   4.357
42628SOL     OW29780   9.674   3.982  12.750
42628SOL    HW129781   9.660   3.890  12.729
42628SOL    HW229782   9.605   4.028  12.702
42629SOL     OW29783   2.223   8.558  10.036
42629SOL    HW129784   2.153   8.501  10.005
42629SOL    HW229785   2.296   8.499  10.055
42630SOL     OW29786   9.899   8.602  10.031
42630SOL    HW129787   9.834   8.616   9.963
42630SOL    HW229788   9.983   8.601   9.984
42631SOL     OW29789  12.357  11.783   4.124
42631SOL    HW129790  12.311  11.756   4.203
42631SOL    HW229791  12.397  11.867   4.147
42632SOL     OW29792   1.567   4.197  10.799
42632SOL    HW129793   1.628   4.242  10.857
42632SOL    HW229794   1.488   4.184  10.851
42633SOL     OW29795   5.966   0.525   1.138
42633SOL    HW129796   5.893   0.525   1.200
42633SOL    HW229797   5.954   0.446   1.085
42634SOL     OW29798   2.421  14.138   3.079
42634SOL    HW129799   2.343  14.167   3.127
42634SOL    HW229800   2.386  14.096   3.000
42635SOL     OW29801   1.036   5.114   4.007
42635SOL    HW129802   1.040   5.035   3.953
42635SOL    HW229803   1.074   5.183   3.953
42636SOL     OW29804   2.698   8.189   3.076
42636SOL    HW129805   2.718   8.115   3.134
42636SOL    HW229806   2.632   8.239   3.124
42637SOL     OW29807  13.264   5.004  14.636
42637SOL    HW129808  13.294   5.093  14.617
42637SOL    HW229809  13.275   4.957  14.553
42638SOL     OW29810   1.999  10.724   7.237
42638SOL    HW129811   2.083  10.747   7.278
42638SOL    HW229812   2.001  10.768   7.152
42639SOL     OW29813  11.118   3.504   0.158
42639SOL    HW129814  11.160   3.423   0.132
42639SOL    HW229815  11.112   3.498   0.254
42640SOL     OW29816   3.450   4.124   7.400
42640SOL    HW129817   3.400   4.100   7.322
42640SOL    HW229818   3.540   4.099   7.379
42641SOL     OW29819   1.213   5.790   1.931
42641SOL    HW129820   1.123   5.825   1.930
42641SOL    HW229821   1.269   5.868   1.930
42642SOL     OW29822   8.655   7.133  10.803
42642SOL    HW129823   8.740   7.168  10.830
42642SOL    HW229824   8.619   7.200  10.744
42643SOL     OW29825   9.293   1.395  10.732
42643SOL    HW129826   9.337   1.454  10.671
42643SOL    HW229827   9.294   1.441  10.816
42644SOL     OW29828   9.177   4.964   5.983
42644SOL    HW129829   9.157   4.949   5.891
42644SOL    HW229830   9.212   5.053   5.987
42645SOL     OW29831   3.004   0.429  14.814
42645SOL    HW129832   3.011   0.446  14.720
42645SOL    HW229833   3.082   0.470  14.852
42646SOL     OW29834   3.682  14.293   5.226
42646SOL    HW129835   3.767  14.262   5.195
42646SOL    HW229836   3.673  14.255   5.313
42647SOL     OW29837  12.745   5.149   1.187
42647SOL    HW129838  12.824   5.179   1.142
42647SOL    HW229839  12.778   5.104   1.265
42648SOL     OW29840  11.403  11.979   4.625
42648SOL    HW129841  11.466  12.051   4.621
42648SOL    HW229842  11.356  11.991   4.707
42649SOL     OW29843   2.242   8.111  13.630
42649SOL    HW129844   2.232   8.020  13.600
42649SOL    HW229845   2.311   8.147  13.574
42650SOL     OW29846   5.461  12.492  10.518
42650SOL    HW129847   5.487  12.582  10.537
42650SOL    HW229848   5.492  12.442  10.593
42651SOL     OW29849   7.735  13.699   0.812
42651SOL    HW129850   7.758  13.615   0.852
42651SOL    HW229851   7.738  13.682   0.718
42652SOL     OW29852  10.869  13.648   0.812
42652SOL    HW129853  10.885  13.606   0.896
42652SOL    HW229854  10.831  13.733   0.833
42653SOL     OW29855  13.074  10.420  13.565
42653SOL    HW129856  13.041  10.343  13.611
42653SOL    HW229857  13.166  10.426  13.591
42654SOL     OW29858   3.739   1.540   1.943
42654SOL    HW129859   3.730   1.626   1.984
42654SOL    HW229860   3.667   1.536   1.881
42655SOL     OW29861   6.330   3.530   4.983
42655SOL    HW129862   6.265   3.552   5.049
42655SOL    HW229863   6.310   3.587   4.909
42656SOL     OW29864   8.055   5.785   4.525
42656SOL    HW129865   8.150   5.785   4.516
42656SOL    HW229866   8.039   5.756   4.615
42657SOL     OW29867  12.595   5.106  12.111
42657SOL    HW129868  12.622   5.119  12.203
42657SOL    HW229869  12.532   5.176  12.094
42658SOL     OW29870   1.732  14.193  10.634
42658SOL    HW129871   1.639  14.206  10.655
42658SOL    HW229872   1.759  14.275  10.594
42659SOL     OW29873  14.084   6.124  14.478
42659SOL    HW129874  14.074   6.141  14.385
42659SOL    HW229875  14.133   6.199  14.512
42660SOL     OW29876   4.284   5.860   0.020
42660SOL    HW129877   4.259   5.949   0.048
42660SOL    HW229878   4.268   5.806   0.097
42661SOL     OW29879   8.657   0.020   3.769
42661SOL    HW129880   8.610   0.051   3.692
42661SOL    HW229881   8.588  14.866   3.831
42662SOL     OW29882  10.566  13.867  13.238
42662SOL    HW129883  10.581  13.878  13.332
42662SOL    HW229884  10.649  13.892  13.197
42663SOL     OW29885   8.204  14.698   4.637
42663SOL    HW129886   8.134  14.756   4.667
42663SOL    HW229887   8.254  14.751   4.575
42664SOL     OW29888  12.520   1.112  14.138
42664SOL    HW129889  12.566   1.194  14.122
42664SOL    HW229890  12.542   1.089  14.228
42665SOL     OW29891   7.383   8.543   4.210
42665SOL    HW129892   7.387   8.571   4.301
42665SOL    HW229893   7.474   8.527   4.186
42666SOL     OW29894   7.148   6.122   1.326
42666SOL    HW129895   7.174   6.115   1.234
42666SOL    HW229896   7.208   6.187   1.363
42667SOL     OW29897   6.989   6.361   4.252
42667SOL    HW129898   7.063   6.416   4.225
42667SOL    HW229899   7.013   6.273   4.226
42668SOL     OW29900   8.349   6.043   1.030
42668SOL    HW129901   8.321   5.952   1.027
42668SOL    HW229902   8.391   6.058   0.945
42669SOL     OW29903   9.477  11.086  12.545
42669SOL    HW129904   9.535  11.040  12.605
42669SOL    HW229905   9.431  11.017  12.498
42670SOL     OW29906   9.288   6.160  13.877
42670SOL    HW129907   9.298   6.120  13.790
42670SOL    HW229908   9.223   6.228  13.864
42671SOL     OW29909   9.980  13.728   7.219
42671SOL    HW129910  10.009  13.786   7.289
42671SOL    HW229911  10.041  13.654   7.222
42672SOL     OW29912   3.192   7.424  13.684
42672SOL    HW129913   3.144   7.504  13.706
42672SOL    HW229914   3.194   7.422  13.589
42673SOL     OW29915  10.898  10.727  14.139
42673SOL    HW129916  10.897  10.741  14.234
42673SOL    HW229917  10.812  10.758  14.109
42674SOL     OW29918  11.908   8.647  12.682
42674SOL    HW129919  11.890   8.555  12.704
42674SOL    HW229920  11.851   8.665  12.608
42675SOL     OW29921   3.840  12.374   8.194
42675SOL    HW129922   3.763  12.425   8.170
42675SOL    HW229923   3.893  12.434   8.247
42676SOL     OW29924   5.649   8.190  11.988
42676SOL    HW129925   5.653   8.096  11.968
42676SOL    HW229926   5.556   8.211  11.984
42677SOL     OW29927   3.462   7.145   1.893
42677SOL    HW129928   3.524   7.215   1.877
42677SOL    HW229929   3.378   7.189   1.904
42678SOL     OW29930   2.330   1.889   5.940
42678SOL    HW129931   2.400   1.887   6.005
42678SOL    HW229932   2.375   1.889   5.856
42679SOL     OW29933  12.674   0.064   5.514
42679SOL    HW129934  12.763   0.096   5.533
42679SOL    HW229935  12.674   0.048   5.420
42680SOL     OW29936  12.751   6.102  14.174
42680SOL    HW129937  12.722   6.192  14.163
42680SOL    HW229938  12.702   6.070  14.251
42681SOL     OW29939   9.980   9.768  10.689
42681SOL    HW129940   9.936   9.814  10.761
42681SOL    HW229941   9.984   9.833  10.618
42682SOL     OW29942   4.803  13.727   4.239
42682SOL    HW129943   4.799  13.822   4.229
42682SOL    HW229944   4.714  13.698   4.218
42683SOL     OW29945   4.002  11.315   5.749
42683SOL    HW129946   4.012  11.260   5.827
42683SOL    HW229947   4.081  11.369   5.747
42684SOL     OW29948   9.381   7.829   8.567
42684SOL    HW129949   9.466   7.811   8.527
42684SOL    HW229950   9.318   7.804   8.499
42685SOL     OW29951  10.320   2.019  13.090
42685SOL    HW129952  10.357   2.082  13.029
42685SOL    HW229953  10.228   2.046  13.099
42686SOL     OW29954   0.597  12.959   1.861
42686SOL    HW129955   0.686  12.963   1.825
42686SOL    HW229956   0.591  12.872   1.901
42687SOL     OW29957   0.298   7.019   4.395
42687SOL    HW129958   0.381   7.065   4.398
42687SOL    HW229959   0.319   6.929   4.417
42688SOL     OW29960   5.129   4.503  10.700
42688SOL    HW129961   5.163   4.519  10.612
42688SOL    HW229962   5.058   4.568  10.710
42689SOL     OW29963  13.247  10.206   2.928
42689SOL    HW129964  13.199  10.279   2.889
42689SOL    HW229965  13.201  10.128   2.898
42690SOL     OW29966  11.392   9.222  12.934
42690SOL    HW129967  11.386   9.316  12.923
42690SOL    HW229968  11.486   9.205  12.947
42691SOL     OW29969  11.181  12.283   7.892
42691SOL    HW129970  11.131  12.221   7.839
42691SOL    HW229971  11.150  12.270   7.981
42692SOL     OW29972  10.068   5.033   5.975
42692SOL    HW129973   9.989   5.016   5.924
42692SOL    HW229974  10.131   5.067   5.911
42693SOL     OW29975   0.636   3.897   4.237
42693SOL    HW129976   0.548   3.881   4.272
42693SOL    HW229977   0.659   3.814   4.194
42694SOL     OW29978  13.462   1.313  12.946
42694SOL    HW129979  13.377   1.283  12.913
42694SOL    HW229980  13.441   1.369  13.021
42695SOL     OW29981   0.801   7.176  11.362
42695SOL    HW129982   0.718   7.221  11.347
42695SOL    HW229983   0.863   7.220  11.304
42696SOL     OW29984   8.449   2.187   5.009
42696SOL    HW129985   8.507   2.140   5.068
42696SOL    HW229986   8.491   2.272   4.997
42697SOL     OW29987   9.832   4.123   7.323
42697SOL    HW129988   9.920   4.086   7.321
42697SOL    HW229989   9.782   4.069   7.262
42698SOL     OW29990   0.197   7.578   7.205
42698SOL    HW129991   0.262   7.645   7.185
42698SOL    HW229992   0.113   7.621   7.189
42699SOL     OW29993   4.808   9.600   6.632
42699SOL    HW129994   4.868   9.530   6.658
42699SOL    HW229995   4.829   9.673   6.689
42700SOL     OW29996   1.221  13.556   4.984
42700SOL    HW129997   1.138  13.566   4.936
42700SOL    HW229998   1.196  13.514   5.066
42701SOL     OW29999  14.320   8.312   0.147
42701SOL    HW130000  14.333   8.375   0.218
42701SOL    HW230001  14.225   8.302   0.142
42702SOL     OW30002   4.545   9.835   6.044
42702SOL    HW130003   4.569   9.753   6.087
42702SOL    HW230004   4.610   9.898   6.074
42703SOL     OW30005   9.595   9.794  14.672
42703SOL    HW130006   9.681   9.767  14.705
42703SOL    HW230007   9.534   9.770  14.742
42704SOL     OW30008   6.932   9.240   9.105
42704SOL    HW130009   6.884   9.183   9.045
42704SOL    HW230010   6.873   9.313   9.121
42705SOL     OW30011  10.356   3.228   0.170
42705SOL    HW130012  10.408   3.158   0.130
42705SOL    HW230013  10.398   3.308   0.141
42706SOL     OW30014   1.216   6.004  14.040
42706SOL    HW130015   1.302   6.043  14.023
42706SOL    HW230016   1.157   6.079  14.050
42707SOL     OW30017   6.246  12.183  12.481
42707SOL    HW130018   6.189  12.138  12.419
42707SOL    HW230019   6.240  12.275  12.457
42708SOL     OW30020   1.730   5.181   0.005
42708SOL    HW130021   1.635   5.194   0.002
42708SOL    HW230022   1.756   5.208   0.093
42709SOL     OW30023  14.170   8.524   9.076
42709SOL    HW130024  14.234   8.583   9.036
42709SOL    HW230025  14.116   8.496   9.002
42710SOL     OW30026   0.240   7.082   7.836
42710SOL    HW130027   0.290   7.110   7.759
42710SOL    HW230028   0.270   7.140   7.906
42711SOL     OW30029   1.623  14.465   2.980
42711SOL    HW130030   1.586  14.504   2.900
42711SOL    HW230031   1.718  14.469   2.967
42712SOL     OW30032  12.151   9.280   5.870
42712SOL    HW130033  12.236   9.257   5.907
42712SOL    HW230034  12.120   9.199   5.830
42713SOL     OW30035   3.147  11.864   3.358
42713SOL    HW130036   3.082  11.849   3.427
42713SOL    HW230037   3.162  11.777   3.321
42714SOL     OW30038   6.100   1.622   2.051
42714SOL    HW130039   6.064   1.706   2.078
42714SOL    HW230040   6.048   1.558   2.100
42715SOL     OW30041  10.335  10.498  11.524
42715SOL    HW130042  10.359  10.447  11.447
42715SOL    HW230043  10.242  10.516  11.512
42716SOL     OW30044   8.825  11.733  11.125
42716SOL    HW130045   8.815  11.803  11.189
42716SOL    HW230046   8.878  11.667  11.170
42717SOL     OW30047  11.484   0.062   8.907
42717SOL    HW130048  11.508   0.007   8.981
42717SOL    HW230049  11.397   0.030   8.881
42718SOL     OW30050   1.678   3.374   6.040
42718SOL    HW130051   1.711   3.285   6.051
42718SOL    HW230052   1.627   3.370   5.959
42719SOL     OW30053   5.934   2.173  11.894
42719SOL    HW130054   5.981   2.114  11.953
42719SOL    HW230055   5.891   2.115  11.831
42720SOL     OW30056   8.678   0.794   4.252
42720SOL    HW130057   8.700   0.715   4.302
42720SOL    HW230058   8.611   0.838   4.304
42721SOL     OW30059   2.831  12.893  12.254
42721SOL    HW130060   2.858  12.984  12.258
42721SOL    HW230061   2.749  12.890  12.303
42722SOL     OW30062   9.907  12.408   1.454
42722SOL    HW130063   9.849  12.389   1.528
42722SOL    HW230064   9.942  12.495   1.472
42723SOL     OW30065  12.289   3.534   1.777
42723SOL    HW130066  12.331   3.599   1.834
42723SOL    HW230067  12.325   3.450   1.805
42724SOL     OW30068   9.556   3.350   8.257
42724SOL    HW130069   9.493   3.365   8.328
42724SOL    HW230070   9.503   3.334   8.180
42725SOL     OW30071   4.847   8.697  11.621
42725SOL    HW130072   4.778   8.747  11.577
42725SOL    HW230073   4.929   8.732  11.585
42726SOL     OW30074   8.085   8.930   3.691
42726SOL    HW130075   8.122   9.015   3.714
42726SOL    HW230076   8.159   8.869   3.696
42727SOL     OW30077  10.894   2.301  13.256
42727SOL    HW130078  10.835   2.360  13.302
42727SOL    HW230079  10.982   2.326  13.285
42728SOL     OW30080  13.150   0.310   0.519
42728SOL    HW130081  13.074   0.345   0.565
42728SOL    HW230082  13.138   0.215   0.522
42729SOL     OW30083   0.084  11.895   6.346
42729SOL    HW130084   0.065  11.869   6.255
42729SOL    HW230085   0.136  11.822   6.381
42730SOL     OW30086   0.502  12.618   0.998
42730SOL    HW130087   0.597  12.612   1.007
42730SOL    HW230088   0.483  12.711   1.006
42731SOL     OW30089   6.889   7.848  11.095
42731SOL    HW130090   6.883   7.941  11.073
42731SOL    HW230091   6.925   7.807  11.016
42732SOL     OW30092   0.719   3.516   4.663
42732SOL    HW130093   0.681   3.445   4.714
42732SOL    HW230094   0.786   3.553   4.721
42733SOL     OW30095  12.362   0.079   2.016
42733SOL    HW130096  12.403  14.869   2.050
42733SOL    HW230097  12.323   0.121   2.093
42734SOL     OW30098   2.801   8.447   4.142
42734SOL    HW130099   2.734   8.440   4.074
42734SOL    HW230100   2.801   8.539   4.167
42735SOL     OW30101   0.488   2.102   6.220
42735SOL    HW130102   0.550   2.174   6.209
42735SOL    HW230103   0.510   2.041   6.150
42736SOL     OW30104  11.969   7.355  12.052
42736SOL    HW130105  12.052   7.353  12.004
42736SOL    HW230106  11.911   7.408  11.997
42737SOL     OW30107  10.889   1.089   4.933
42737SOL    HW130108  10.812   1.096   4.990
42737SOL    HW230109  10.865   1.022   4.869
42738SOL     OW30110   4.237  11.634   7.415
42738SOL    HW130111   4.224  11.700   7.483
42738SOL    HW230112   4.330  11.643   7.391
42739SOL     OW30113   7.937   5.684   5.218
42739SOL    HW130114   7.962   5.626   5.291
42739SOL    HW230115   8.012   5.680   5.158
42740SOL     OW30116  12.371   6.303   2.322
42740SOL    HW130117  12.365   6.368   2.251
42740SOL    HW230118  12.415   6.228   2.282
42741SOL     OW30119  14.234   4.880   6.079
42741SOL    HW130120  14.181   4.822   6.024
42741SOL    HW230121  14.249   4.957   6.024
42742SOL     OW30122  11.740   1.378   3.352
42742SOL    HW130123  11.661   1.400   3.303
42742SOL    HW230124  11.712   1.313   3.416
42743SOL     OW30125   2.309   2.151   5.386
42743SOL    HW130126   2.309   2.079   5.323
42743SOL    HW230127   2.332   2.110   5.469
42744SOL     OW30128  10.343   5.487   2.827
42744SOL    HW130129  10.352   5.543   2.904
42744SOL    HW230130  10.249   5.481   2.813
42745SOL     OW30131  10.110   0.403  14.047
42745SOL    HW130132  10.047   0.464  14.009
42745SOL    HW230133  10.058   0.345  14.103
42746SOL     OW30134  11.582   4.589  10.473
42746SOL    HW130135  11.512   4.625  10.527
42746SOL    HW230136  11.544   4.510  10.434
42747SOL     OW30137  12.904  11.345   4.358
42747SOL    HW130138  12.907  11.354   4.263
42747SOL    HW230139  12.994  11.361   4.386
42748SOL     OW30140   4.357   1.115  13.367
42748SOL    HW130141   4.342   1.111  13.273
42748SOL    HW230142   4.439   1.069  13.381
42749SOL     OW30143  12.149   5.695  14.211
42749SOL    HW130144  12.109   5.703  14.297
42749SOL    HW230145  12.195   5.779  14.198
42750SOL     OW30146  12.511   2.440   7.014
42750SOL    HW130147  12.536   2.527   6.983
42750SOL    HW230148  12.529   2.443   7.108
42751SOL     OW30149  11.859   5.395   9.566
42751SOL    HW130150  11.892   5.451   9.495
42751SOL    HW230151  11.773   5.365   9.535
42752SOL     OW30152   8.090   6.620   7.515
42752SOL    HW130153   8.142   6.700   7.517
42752SOL    HW230154   8.110   6.580   7.431
42753SOL     OW30155   0.867   3.539  10.673
42753SOL    HW130156   0.873   3.452  10.711
42753SOL    HW230157   0.828   3.525  10.587
42754SOL     OW30158   5.637   5.952  12.323
42754SOL    HW130159   5.676   5.928  12.407
42754SOL    HW230160   5.631   5.870  12.275
42755SOL     OW30161   3.343   0.872   1.735
42755SOL    HW130162   3.409   0.878   1.666
42755SOL    HW230163   3.295   0.955   1.731
42756SOL     OW30164  13.904   8.650   7.245
42756SOL    HW130165  13.918   8.725   7.186
42756SOL    HW230166  13.903   8.688   7.332
42757SOL     OW30167   1.881  11.179  12.474
42757SOL    HW130168   1.925  11.227  12.403
42757SOL    HW230169   1.953  11.147  12.529
42758SOL     OW30170   9.918   8.344  11.761
42758SOL    HW130171   9.962   8.290  11.827
42758SOL    HW230172   9.945   8.433  11.782
42759SOL     OW30173   9.571   5.857   3.220
42759SOL    HW130174   9.632   5.920   3.181
42759SOL    HW230175   9.485   5.890   3.196
42760SOL     OW30176   2.460   6.772  12.984
42760SOL    HW130177   2.379   6.730  12.955
42760SOL    HW230178   2.530   6.727  12.937
42761SOL     OW30179  14.290   3.759   2.849
42761SOL    HW130180  14.253   3.839   2.886
42761SOL    HW230181  14.371   3.745   2.898
42762SOL     OW30182  10.156   0.606   7.860
42762SOL    HW130183  10.188   0.516   7.859
42762SOL    HW230184  10.075   0.603   7.909
42763SOL     OW30185   9.675  13.355  14.455
42763SOL    HW130186   9.708  13.387  14.539
42763SOL    HW230187   9.698  13.423  14.392
42764SOL     OW30188  14.430   8.848  13.154
42764SOL    HW130189  14.438   8.804  13.070
42764SOL    HW230190  14.377   8.788  13.207
42765SOL     OW30191   0.149  12.168   2.780
42765SOL    HW130192   0.218  12.105   2.760
42765SOL    HW230193   0.069  12.116   2.778
42766SOL     OW30194   6.715  10.503   7.729
42766SOL    HW130195   6.708  10.598   7.737
42766SOL    HW230196   6.695  10.485   7.637
42767SOL     OW30197  11.092  11.630  13.829
42767SOL    HW130198  11.020  11.672  13.782
42767SOL    HW230199  11.052  11.557  13.875
42768SOL     OW30200   3.344   2.633   2.014
42768SOL    HW130201   3.399   2.681   2.077
42768SOL    HW230202   3.372   2.666   1.929
42769SOL     OW30203  11.966   0.608   0.330
42769SOL    HW130204  11.881   0.633   0.366
42769SOL    HW230205  11.963   0.637   0.239
42770SOL     OW30206   0.575  12.588   6.218
42770SOL    HW130207   0.534  12.607   6.134
42770SOL    HW230208   0.505  12.602   6.282
42771SOL     OW30209  10.546   4.867   1.637
42771SOL    HW130210  10.466   4.878   1.687
42771SOL    HW230211  10.544   4.776   1.607
42772SOL     OW30212  12.905   9.291  10.456
42772SOL    HW130213  12.924   9.223  10.520
42772SOL    HW230214  12.867   9.244  10.382
42773SOL     OW30215   5.995   3.544   8.801
42773SOL    HW130216   6.051   3.497   8.862
42773SOL    HW230217   5.908   3.508   8.816
42774SOL     OW30218  13.190   8.111   8.194
42774SOL    HW130219  13.220   8.121   8.284
42774SOL    HW230220  13.211   8.020   8.172
42775SOL     OW30221   9.115  11.665   2.940
42775SOL    HW130222   9.159  11.731   2.993
42775SOL    HW230223   9.156  11.671   2.854
42776SOL     OW30224  12.589   6.521  13.302
42776SOL    HW130225  12.651   6.594  13.304
42776SOL    HW230226  12.507   6.559  13.334
42777SOL     OW30227   6.231  11.749  12.567
42777SOL    HW130228   6.204  11.807  12.496
42777SOL    HW230229   6.179  11.778  12.642
42778SOL     OW30230  13.341   6.331   3.972
42778SOL    HW130231  13.330   6.420   3.937
42778SOL    HW230232  13.289   6.331   4.052
42779SOL     OW30233   4.252  13.877  10.236
42779SOL    HW130234   4.277  13.855  10.147
42779SOL    HW230235   4.271  13.970  10.244
42780SOL     OW30236  14.724  10.958   2.828
42780SOL    HW130237  14.655  11.010   2.788
42780SOL    HW230238  14.678  10.889   2.876
42781SOL     OW30239  13.654   9.832  10.721
42781SOL    HW130240  13.573   9.858  10.764
42781SOL    HW230241  13.642   9.739  10.701
42782SOL     OW30242   9.347  12.446  14.367
42782SOL    HW130243   9.400  12.525  14.375
42782SOL    HW230244   9.325  12.423  14.458
42783SOL     OW30245   5.186   8.950   5.094
42783SOL    HW130246   5.178   9.042   5.070
42783SOL    HW230247   5.157   8.902   5.017
42784SOL     OW30248  11.757   9.487  11.546
42784SOL    HW130249  11.834   9.448  11.589
42784SOL    HW230250  11.791   9.565  11.504
42785SOL     OW30251  14.766   5.579   1.382
42785SOL    HW130252  14.855   5.567   1.349
42785SOL    HW230253  14.718   5.502   1.351
42786SOL     OW30254  14.860  12.901   0.201
42786SOL    HW130255  14.807  12.853   0.138
42786SOL    HW230256   0.049  12.836   0.239
42787SOL     OW30257  10.561  14.283   8.561
42787SOL    HW130258  10.508  14.355   8.526
42787SOL    HW230259  10.634  14.275   8.500
42788SOL     OW30260   6.719  12.577   7.444
42788SOL    HW130261   6.717  12.595   7.538
42788SOL    HW230262   6.682  12.489   7.436
42789SOL     OW30263  14.704   3.571   3.643
42789SOL    HW130264  14.717   3.477   3.630
42789SOL    HW230265  14.657   3.577   3.727
42790SOL     OW30266  10.081  11.305  10.352
42790SOL    HW130267  10.111  11.215  10.360
42790SOL    HW230268  10.017  11.316  10.423
42791SOL     OW30269   4.469   9.721   8.107
42791SOL    HW130270   4.408   9.767   8.048
42791SOL    HW230271   4.450   9.628   8.092
42792SOL     OW30272  10.011   2.532   5.092
42792SOL    HW130273   9.980   2.441   5.088
42792SOL    HW230274  10.106   2.526   5.080
42793SOL     OW30275  12.100  12.768  14.838
42793SOL    HW130276  12.144  12.816  14.767
42793SOL    HW230277  12.150  12.790   0.046
42794SOL     OW30278  10.441   2.070   8.261
42794SOL    HW130279  10.498   2.022   8.200
42794SOL    HW230280  10.404   2.141   8.208
42795SOL     OW30281   9.148  14.716   3.830
42795SOL    HW130282   9.164  14.685   3.741
42795SOL    HW230283   9.213  14.786   3.843
42796SOL     OW30284   8.574   3.839  12.080
42796SOL    HW130285   8.604   3.926  12.108
42796SOL    HW230286   8.652   3.799  12.040
42797SOL     OW30287  12.498   2.760   3.546
42797SOL    HW130288  12.572   2.699   3.542
42797SOL    HW230289  12.463   2.749   3.634
42798SOL     OW30290  14.031   7.116   3.177
42798SOL    HW130291  14.060   7.058   3.107
42798SOL    HW230292  14.060   7.072   3.257
42799SOL     OW30293  11.741  10.149   6.698
42799SOL    HW130294  11.661  10.117   6.657
42799SOL    HW230295  11.767  10.223   6.643
42800SOL     OW30296   8.414   3.465  13.701
42800SOL    HW130297   8.497   3.511  13.705
42800SOL    HW230298   8.375   3.478  13.787
42801SOL     OW30299  12.120   8.926   8.153
42801SOL    HW130300  12.154   8.906   8.066
42801SOL    HW230301  12.128   9.021   8.161
42802SOL     OW30302   1.989  13.968  12.888
42802SOL    HW130303   1.980  14.050  12.839
42802SOL    HW230304   2.054  13.987  12.956
42803SOL     OW30305   1.585  14.619   7.140
42803SOL    HW130306   1.628  14.545   7.097
42803SOL    HW230307   1.591  14.690   7.076
42804SOL     OW30308  11.360  12.379   9.851
42804SOL    HW130309  11.430  12.352   9.911
42804SOL    HW230310  11.389  12.345   9.766
42805SOL     OW30311   8.851   9.577   7.532
42805SOL    HW130312   8.897   9.510   7.584
42805SOL    HW230313   8.874   9.555   7.442
42806SOL     OW30314  14.466  13.962  11.532
42806SOL    HW130315  14.510  13.964  11.446
42806SOL    HW230316  14.459  13.869  11.552
42807SOL     OW30317   4.194  13.146  13.030
42807SOL    HW130318   4.216  13.054  13.042
42807SOL    HW230319   4.201  13.161  12.936
42808SOL     OW30320   7.399   9.477   2.254
42808SOL    HW130321   7.398   9.385   2.279
42808SOL    HW230322   7.307   9.498   2.236
42809SOL     OW30323   5.519   6.050   5.815
42809SOL    HW130324   5.577   6.055   5.739
42809SOL    HW230325   5.567   5.998   5.879
42810SOL     OW30326   2.486   1.527  13.641
42810SOL    HW130327   2.569   1.485  13.663
42810SOL    HW230328   2.512   1.610  13.600
42811SOL     OW30329  13.770   0.595   4.775
42811SOL    HW130330  13.745   0.646   4.698
42811SOL    HW230331  13.748   0.505   4.751
42812SOL     OW30332  14.237   1.804  12.746
42812SOL    HW130333  14.220   1.896  12.725
42812SOL    HW230334  14.331   1.793  12.732
42813SOL     OW30335  13.905   1.216  13.018
42813SOL    HW130336  13.853   1.137  13.001
42813SOL    HW230337  13.913   1.258  12.933
42814SOL     OW30338  13.402   6.699  12.360
42814SOL    HW130339  13.332   6.754  12.395
42814SOL    HW230340  13.482   6.739  12.392
42815SOL     OW30341  11.929   3.356   9.375
42815SOL    HW130342  11.921   3.394   9.462
42815SOL    HW230343  11.998   3.407   9.333
42816SOL     OW30344   9.769   9.837   5.928
42816SOL    HW130345   9.769   9.912   5.988
42816SOL    HW230346   9.678   9.831   5.898
42817SOL     OW30347   1.521   7.491  10.245
42817SOL    HW130348   1.566   7.410  10.270
42817SOL    HW230349   1.474   7.518  10.324
42818SOL     OW30350  12.049   0.034   9.319
42818SOL    HW130351  12.039  14.809   9.306
42818SOL    HW230352  12.101   0.063   9.244
42819SOL     OW30353  14.365   1.924   8.918
42819SOL    HW130354  14.415   1.934   8.837
42819SOL    HW230355  14.430   1.891   8.981
42820SOL     OW30356  11.991   9.727  11.522
42820SOL    HW130357  12.005   9.785  11.597
42820SOL    HW230358  11.899   9.741  11.499
42821SOL     OW30359   7.234   6.335  14.446
42821SOL    HW130360   7.318   6.377  14.466
42821SOL    HW230361   7.230   6.332  14.350
42822SOL     OW30362  10.735  11.744   5.961
42822SOL    HW130363  10.822  11.771   5.930
42822SOL    HW230364  10.721  11.658   5.921
42823SOL     OW30365   2.717   6.288  12.724
42823SOL    HW130366   2.729   6.321  12.635
42823SOL    HW230367   2.805   6.268  12.755
42824SOL     OW30368   2.694  14.665  13.453
42824SOL    HW130369   2.633  14.731  13.485
42824SOL    HW230370   2.647  14.582  13.461
42825SOL     OW30371  11.781  11.983  12.597
42825SOL    HW130372  11.774  12.050  12.529
42825SOL    HW230373  11.852  12.015  12.654
42826SOL     OW30374   9.679   1.767  12.334
42826SOL    HW130375   9.766   1.728  12.342
42826SOL    HW230376   9.665   1.813  12.417
42827SOL     OW30377   1.813   1.326   4.873
42827SOL    HW130378   1.883   1.352   4.813
42827SOL    HW230379   1.806   1.231   4.862
42828SOL     OW30380  11.736  12.167  11.424
42828SOL    HW130381  11.656  12.194  11.469
42828SOL    HW230382  11.718  12.078  11.393
42829SOL     OW30383   6.800  13.441   0.392
42829SOL    HW130384   6.854  13.467   0.317
42829SOL    HW230385   6.822  13.505   0.460
42830SOL     OW30386   7.518   6.839   6.425
42830SOL    HW130387   7.601   6.864   6.384
42830SOL    HW230388   7.536   6.844   6.519
42831SOL     OW30389   3.547   7.835   3.095
42831SOL    HW130390   3.535   7.749   3.055
42831SOL    HW230391   3.465   7.851   3.142
42832SOL     OW30392   8.564   7.160   0.003
42832SOL    HW130393   8.628   7.090   0.013
42832SOL    HW230394   8.493   7.137   0.062
42833SOL     OW30395   2.073   4.797   7.403
42833SOL    HW130396   2.096   4.888   7.383
42833SOL    HW230397   1.997   4.779   7.348
42834SOL     OW30398   5.836  13.552   2.826
42834SOL    HW130399   5.879  13.491   2.886
42834SOL    HW230400   5.784  13.495   2.768
42835SOL     OW30401  10.772   6.683  13.746
42835SOL    HW130402  10.720   6.642  13.678
42835SOL    HW230403  10.854   6.708  13.702
42836SOL     OW30404   5.173   0.230  11.389
42836SOL    HW130405   5.254   0.238  11.440
42836SOL    HW230406   5.198   0.259  11.301
42837SOL     OW30407   8.195   3.975   7.858
42837SOL    HW130408   8.156   4.037   7.797
42837SOL    HW230409   8.162   4.001   7.944
42838SOL     OW30410   4.971   7.907   5.588
42838SOL    HW130411   5.006   7.831   5.634
42838SOL    HW230412   4.923   7.956   5.654
42839SOL     OW30413   3.084   5.623   3.946
42839SOL    HW130414   3.085   5.681   3.870
42839SOL    HW230415   3.037   5.545   3.916
42840SOL     OW30416  11.133   3.138   1.518
42840SOL    HW130417  11.206   3.188   1.481
42840SOL    HW230418  11.144   3.050   1.482
42841SOL     OW30419   1.706   9.188   6.486
42841SOL    HW130420   1.674   9.279   6.489
42841SOL    HW230421   1.719   9.165   6.578
42842SOL     OW30422   4.308   4.975   3.460
42842SOL    HW130423   4.292   4.908   3.527
42842SOL    HW230424   4.308   4.927   3.377
42843SOL     OW30425   9.915   2.719   5.690
42843SOL    HW130426   9.892   2.797   5.640
42843SOL    HW230427   9.833   2.693   5.733
42844SOL     OW30428   0.292   9.687   8.910
42844SOL    HW130429   0.371   9.643   8.941
42844SOL    HW230430   0.316   9.723   8.824
42845SOL     OW30431  14.555   0.249   7.458
42845SOL    HW130432  14.495   0.321   7.438
42845SOL    HW230433  14.634   0.293   7.491
42846SOL     OW30434   5.475   4.982  13.583
42846SOL    HW130435   5.470   5.072  13.553
42846SOL    HW230436   5.562   4.974  13.622
42847SOL     OW30437  12.512   1.049   0.737
42847SOL    HW130438  12.534   0.966   0.694
42847SOL    HW230439  12.556   1.115   0.683
42848SOL     OW30440  11.917   5.301   6.626
42848SOL    HW130441  11.838   5.346   6.598
42848SOL    HW230442  11.972   5.296   6.548
42849SOL     OW30443   8.380   2.192  10.952
42849SOL    HW130444   8.348   2.122  10.895
42849SOL    HW230445   8.350   2.273  10.911
42850SOL     OW30446   8.992   7.427   7.208
42850SOL    HW130447   9.039   7.409   7.126
42850SOL    HW230448   9.036   7.372   7.273
42851SOL     OW30449   8.595   6.546  10.234
42851SOL    HW130450   8.542   6.615  10.195
42851SOL    HW230451   8.571   6.467  10.186
42852SOL     OW30452  13.845   7.188   6.973
42852SOL    HW130453  13.933   7.216   6.997
42852SOL    HW230454  13.800   7.269   6.946
42853SOL     OW30455  10.008   7.966  14.106
42853SOL    HW130456   9.939   8.032  14.109
42853SOL    HW230457  10.021   7.949  14.012
42854SOL     OW30458   7.018  13.301   8.188
42854SOL    HW130459   6.929  13.325   8.162
42854SOL    HW230460   7.017  13.205   8.192
42855SOL     OW30461  13.238   7.790  11.434
42855SOL    HW130462  13.312   7.767  11.490
42855SOL    HW230463  13.273   7.855  11.373
42856SOL     OW30464  13.721   6.228   2.539
42856SOL    HW130465  13.737   6.315   2.574
42856SOL    HW230466  13.773   6.225   2.459
42857SOL     OW30467  10.064  10.107  10.880
42857SOL    HW130468  10.147  10.091  10.924
42857SOL    HW230469  10.088  10.142  10.794
42858SOL     OW30470   5.381   9.335   2.644
42858SOL    HW130471   5.436   9.402   2.603
42858SOL    HW230472   5.343   9.287   2.571
42859SOL     OW30473  12.823   6.194   9.623
42859SOL    HW130474  12.778   6.274   9.597
42859SOL    HW230475  12.877   6.222   9.697
42860SOL     OW30476   4.151   3.687  11.757
42860SOL    HW130477   4.093   3.642  11.819
42860SOL    HW230478   4.133   3.645  11.673
42861SOL     OW30479   4.825  12.568   9.608
42861SOL    HW130480   4.823  12.664   9.614
42861SOL    HW230481   4.766  12.548   9.535
42862SOL     OW30482   7.031  13.099  14.729
42862SOL    HW130483   7.119  13.134  14.742
42862SOL    HW230484   6.973  13.173  14.748
42863SOL     OW30485  11.085   4.267   8.504
42863SOL    HW130486  11.173   4.294   8.529
42863SOL    HW230487  11.088   4.257   8.409
42864SOL     OW30488   6.084   2.252   0.230
42864SOL    HW130489   6.151   2.191   0.262
42864SOL    HW230490   6.008   2.236   0.286
42865SOL     OW30491   9.966   5.655  14.720
42865SOL    HW130492  10.011   5.654  14.636
42865SOL    HW230493  10.032   5.623  14.782
42866SOL     OW30494  13.271   5.792   5.549
42866SOL    HW130495  13.212   5.739   5.602
42866SOL    HW230496  13.284   5.740   5.469
42867SOL     OW30497   5.989   0.281  10.751
42867SOL    HW130498   6.022   0.216  10.813
42867SOL    HW230499   5.894   0.270  10.753
42868SOL     OW30500   0.571   1.783   3.491
42868SOL    HW130501   0.546   1.779   3.398
42868SOL    HW230502   0.522   1.858   3.525
42869SOL     OW30503  13.226   5.238   4.530
42869SOL    HW130504  13.167   5.169   4.500
42869SOL    HW230505  13.196   5.258   4.619
42870SOL     OW30506  13.919   9.012  10.722
42870SOL    HW130507  13.995   9.069  10.712
42870SOL    HW230508  13.936   8.939  10.662
42871SOL     OW30509   6.680  13.071  14.372
42871SOL    HW130510   6.755  13.022  14.405
42871SOL    HW230511   6.675  13.048  14.279
42872SOL     OW30512  13.677   8.422   2.738
42872SOL    HW130513  13.657   8.500   2.789
42872SOL    HW230514  13.772   8.409   2.750
42873SOL     OW30515   1.545   4.209  11.247
42873SOL    HW130516   1.462   4.162  11.244
42873SOL    HW230517   1.520   4.302  11.245
42874SOL     OW30518  11.559   7.134   8.580
42874SOL    HW130519  11.551   7.197   8.509
42874SOL    HW230520  11.500   7.166   8.648
42875SOL     OW30521   5.484   9.974   7.253
42875SOL    HW130522   5.516  10.019   7.174
42875SOL    HW230523   5.541   9.897   7.261
42876SOL     OW30524  12.795   4.457   6.998
42876SOL    HW130525  12.849   4.535   7.006
42876SOL    HW230526  12.856   4.387   6.976
42877SOL     OW30527  11.108  11.225  12.358
42877SOL    HW130528  11.161  11.162  12.309
42877SOL    HW230529  11.172  11.277  12.407
42878SOL     OW30530  14.141   6.450   9.245
42878SOL    HW130531  14.110   6.512   9.179
42878SOL    HW230532  14.061   6.417   9.286
42879SOL     OW30533   6.513   4.174   5.542
42879SOL    HW130534   6.453   4.235   5.584
42879SOL    HW230535   6.545   4.221   5.465
42880SOL     OW30536   8.316  13.662   8.283
42880SOL    HW130537   8.385  13.597   8.294
42880SOL    HW230538   8.342  13.711   8.205
42881SOL     OW30539   2.552   9.510  13.220
42881SOL    HW130540   2.489   9.444  13.192
42881SOL    HW230541   2.632   9.460  13.238
42882SOL     OW30542  14.784   5.566  12.933
42882SOL    HW130543  14.808   5.615  12.855
42882SOL    HW230544  14.832   5.483  12.925
42883SOL     OW30545  13.712   7.461   5.593
42883SOL    HW130546  13.654   7.503   5.530
42883SOL    HW230547  13.775   7.412   5.539
42884SOL     OW30548   6.572   1.747  10.400
42884SOL    HW130549   6.621   1.685  10.454
42884SOL    HW230550   6.486   1.753  10.441
42885SOL     OW30551  12.501   0.926   5.771
42885SOL    HW130552  12.471   0.929   5.862
42885SOL    HW230553  12.499   1.017   5.741
42886SOL     OW30554   0.766   7.744   8.548
42886SOL    HW130555   0.740   7.783   8.632
42886SOL    HW230556   0.772   7.818   8.488
42887SOL     OW30557   8.680   6.593   0.191
42887SOL    HW130558   8.663   6.657   0.260
42887SOL    HW230559   8.682   6.509   0.236
42888SOL     OW30560   4.542   4.261  11.130
42888SOL    HW130561   4.499   4.198  11.187
42888SOL    HW230562   4.553   4.215  11.047
42889SOL     OW30563   8.520  11.886   3.072
42889SOL    HW130564   8.591  11.851   3.126
42889SOL    HW230565   8.443  11.882   3.128
42890SOL     OW30566  12.222   9.279  10.213
42890SOL    HW130567  12.220   9.200  10.266
42890SOL    HW230568  12.258   9.346  10.271
42891SOL     OW30569   5.850   4.221   1.803
42891SOL    HW130570   5.909   4.214   1.878
42891SOL    HW230571   5.765   4.240   1.842
42892SOL     OW30572   4.873  13.611   9.105
42892SOL    HW130573   4.897  13.580   9.018
42892SOL    HW230574   4.876  13.532   9.160
42893SOL     OW30575   2.439  11.157   8.020
42893SOL    HW130576   2.503  11.088   8.040
42893SOL    HW230577   2.354  11.116   8.036
42894SOL     OW30578   7.941  10.280   5.586
42894SOL    HW130579   8.032  10.297   5.610
42894SOL    HW230580   7.908  10.225   5.656
42895SOL     OW30581   8.731   3.302  11.712
42895SOL    HW130582   8.635   3.307  11.713
42895SOL    HW230583   8.750   3.216  11.677
42896SOL     OW30584   5.939   4.014   7.199
42896SOL    HW130585   5.882   4.015   7.276
42896SOL    HW230586   5.925   4.099   7.157
42897SOL     OW30587  11.874   9.409   2.757
42897SOL    HW130588  11.795   9.354   2.758
42897SOL    HW230589  11.918   9.388   2.675
42898SOL     OW30590   7.630  12.564   1.870
42898SOL    HW130591   7.549  12.610   1.891
42898SOL    HW230592   7.698  12.611   1.918
42899SOL     OW30593  13.793   7.359  14.460
42899SOL    HW130594  13.772   7.421  14.389
42899SOL    HW230595  13.770   7.273  14.424
42900SOL     OW30596   9.750  13.318   1.780
42900SOL    HW130597   9.702  13.304   1.699
42900SOL    HW230598   9.841  13.330   1.752
42901SOL     OW30599   8.602   4.966  13.751
42901SOL    HW130600   8.628   4.998  13.838
42901SOL    HW230601   8.652   4.885  13.740
42902SOL     OW30602  11.680   3.053  11.524
42902SOL    HW130603  11.639   3.112  11.587
42902SOL    HW230604  11.773   3.079  11.525
42903SOL     OW30605   7.522   1.380  14.823
42903SOL    HW130606   7.463   1.311  14.856
42903SOL    HW230607   7.466   1.457  14.814
42904SOL     OW30608   1.782   3.516   0.678
42904SOL    HW130609   1.808   3.425   0.661
42904SOL    HW230610   1.797   3.528   0.771
42905SOL     OW30611   6.003   4.919   8.517
42905SOL    HW130612   6.058   4.922   8.438
42905SOL    HW230613   5.920   4.957   8.489
42906SOL     OW30614  10.387   7.799   5.284
42906SOL    HW130615  10.423   7.867   5.340
42906SOL    HW230616  10.436   7.720   5.307
42907SOL     OW30617  14.285   6.755   4.674
42907SOL    HW130618  14.263   6.839   4.715
42907SOL    HW230619  14.222   6.746   4.603
42908SOL     OW30620  13.946   9.868   3.702
42908SOL    HW130621  13.915   9.952   3.668
42908SOL    HW230622  13.969   9.818   3.623
42909SOL     OW30623  13.288   3.018   0.183
42909SOL    HW130624  13.221   3.009   0.251
42909SOL    HW230625  13.369   2.987   0.224
42910SOL     OW30626   6.748   5.431   2.376
42910SOL    HW130627   6.776   5.478   2.455
42910SOL    HW230628   6.829   5.394   2.340
42911SOL     OW30629  13.167   4.707   6.872
42911SOL    HW130630  13.253   4.682   6.841
42911SOL    HW230631  13.171   4.802   6.882
42912SOL     OW30632   5.877   2.053  12.587
42912SOL    HW130633   5.859   1.973  12.538
42912SOL    HW230634   5.970   2.071  12.571
42913SOL     OW30635  10.083   2.898  10.700
42913SOL    HW130636  10.088   2.992  10.719
42913SOL    HW230637  10.174   2.868  10.705
42914SOL     OW30638   5.831   3.520   4.815
42914SOL    HW130639   5.766   3.523   4.885
42914SOL    HW230640   5.781   3.535   4.735
42915SOL     OW30641   5.699  14.403   4.927
42915SOL    HW130642   5.622  14.448   4.960
42915SOL    HW230643   5.768  14.420   4.992
42916SOL     OW30644  12.833  14.860   4.161
42916SOL    HW130645  12.809  14.773   4.127
42916SOL    HW230646  12.869   0.036   4.085
42917SOL     OW30647   2.937   4.597  10.077
42917SOL    HW130648   2.866   4.641  10.031
42917SOL    HW230649   3.007   4.663  10.081
42918SOL     OW30650   9.293   0.723   3.739
42918SOL    HW130651   9.309   0.816   3.725
42918SOL    HW230652   9.203   0.719   3.773
42919SOL     OW30653  12.887   8.638   5.368
42919SOL    HW130654  12.857   8.726   5.347
42919SOL    HW230655  12.904   8.598   5.283
42920SOL     OW30656   4.344   3.013   7.451
42920SOL    HW130657   4.300   2.939   7.494
42920SOL    HW230658   4.386   3.060   7.523
42921SOL     OW30659  10.288  14.429  14.123
42921SOL    HW130660  10.341  14.352  14.102
42921SOL    HW230661  10.330  14.500  14.075
42922SOL     OW30662  14.400  13.811   1.588
42922SOL    HW130663  14.391  13.886   1.529
42922SOL    HW230664  14.380  13.847   1.675
42923SOL     OW30665  14.447   3.689   4.787
42923SOL    HW130666  14.421   3.779   4.769
42923SOL    HW230667  14.369   3.637   4.771
42924SOL     OW30668   4.335   4.636   8.101
42924SOL    HW130669   4.405   4.581   8.136
42924SOL    HW230670   4.269   4.573   8.070
42925SOL     OW30671  12.843   4.186   6.157
42925SOL    HW130672  12.814   4.140   6.078
42925SOL    HW230673  12.896   4.122   6.204
42926SOL     OW30674   9.710   6.739   6.181
42926SOL    HW130675   9.626   6.701   6.205
42926SOL    HW230676   9.702   6.759   6.088
42927SOL     OW30677   5.693   0.495   2.059
42927SOL    HW130678   5.676   0.438   2.134
42927SOL    HW230679   5.769   0.457   2.016
42928SOL     OW30680   2.869  12.933  11.280
42928SOL    HW130681   2.913  13.018  11.279
42928SOL    HW230682   2.803  12.939  11.210
42929SOL     OW30683   1.811   3.738  10.029
42929SOL    HW130684   1.793   3.797  10.102
42929SOL    HW230685   1.743   3.671  10.035
42930SOL     OW30686  11.487  12.241   0.608
42930SOL    HW130687  11.539  12.308   0.652
42930SOL    HW230688  11.445  12.193   0.680
42931SOL     OW30689   8.276  12.292  12.588
42931SOL    HW130690   8.322  12.210  12.571
42931SOL    HW230691   8.259  12.328  12.501
42932SOL     OW30692  13.388   5.998  12.255
42932SOL    HW130693  13.482   6.009  12.242
42932SOL    HW230694  13.349   6.021  12.171
42933SOL     OW30695   1.966   0.559   2.019
42933SOL    HW130696   1.994   0.609   2.095
42933SOL    HW230697   1.871   0.565   2.019
42934SOL     OW30698   7.601   9.704  14.165
42934SOL    HW130699   7.639   9.632  14.215
42934SOL    HW230700   7.567   9.664  14.085
42935SOL     OW30701   6.891  13.868   3.463
42935SOL    HW130702   6.814  13.918   3.437
42935SOL    HW230703   6.878  13.849   3.556
42936SOL     OW30704  11.126   8.844   4.745
42936SOL    HW130705  11.033   8.866   4.758
42936SOL    HW230706  11.163   8.844   4.833
42937SOL     OW30707  13.884  14.139   3.151
42937SOL    HW130708  13.801  14.157   3.107
42937SOL    HW230709  13.931  14.223   3.149
42938SOL     OW30710   1.401   8.268   3.314
42938SOL    HW130711   1.425   8.175   3.321
42938SOL    HW230712   1.485   8.314   3.312
42939SOL     OW30713  14.600   3.893   9.335
42939SOL    HW130714  14.532   3.833   9.365
42939SOL    HW230715  14.676   3.836   9.319
42940SOL     OW30716   2.671  13.867   6.627
42940SOL    HW130717   2.690  13.773   6.617
42940SOL    HW230718   2.746  13.902   6.674
42941SOL     OW30719  14.458   4.801   1.485
42941SOL    HW130720  14.534   4.828   1.434
42941SOL    HW230721  14.460   4.705   1.481
42942SOL     OW30722  11.366   5.663  13.905
42942SOL    HW130723  11.459   5.660  13.880
42942SOL    HW230724  11.361   5.735  13.968
42943SOL     OW30725  11.556  10.106   2.100
42943SOL    HW130726  11.517  10.025   2.069
42943SOL    HW230727  11.599  10.083   2.183
42944SOL     OW30728   7.915   6.748   0.786
42944SOL    HW130729   7.893   6.834   0.750
42944SOL    HW230730   7.981   6.766   0.852
42945SOL     OW30731  10.238  13.512   2.067
42945SOL    HW130732  10.206  13.431   2.107
42945SOL    HW230733  10.333  13.500   2.063
42946SOL     OW30734   9.743   1.639   3.619
42946SOL    HW130735   9.680   1.614   3.551
42946SOL    HW230736   9.801   1.702   3.576
42947SOL     OW30737   8.625  13.777   8.537
42947SOL    HW130738   8.584  13.691   8.527
42947SOL    HW230739   8.710  13.758   8.575
42948SOL     OW30740   5.976   9.501  11.369
42948SOL    HW130741   5.955   9.467  11.282
42948SOL    HW230742   6.011   9.589  11.353
42949SOL     OW30743   6.257  10.203  13.291
42949SOL    HW130744   6.254  10.204  13.387
42949SOL    HW230745   6.270  10.111  13.268
42950SOL     OW30746   1.254   3.931   8.478
42950SOL    HW130747   1.321   3.879   8.523
42950SOL    HW230748   1.288   3.941   8.389
42951SOL     OW30749  11.306   5.822   1.411
42951SOL    HW130750  11.283   5.740   1.455
42951SOL    HW230751  11.229   5.877   1.421
42952SOL     OW30752   1.570  11.108  14.682
42952SOL    HW130753   1.612  11.036  14.634
42952SOL    HW230754   1.607  11.104  14.770
42953SOL     OW30755  11.736   4.607   0.726
42953SOL    HW130756  11.662   4.580   0.672
42953SOL    HW230757  11.698   4.663   0.794
42954SOL     OW30758   7.610   4.798   5.051
42954SOL    HW130759   7.588   4.876   5.101
42954SOL    HW230760   7.701   4.780   5.074
42955SOL     OW30761  12.162  11.647   7.671
42955SOL    HW130762  12.159  11.553   7.657
42955SOL    HW230763  12.071  11.676   7.660
42956SOL     OW30764   0.854   4.978  13.893
42956SOL    HW130765   0.796   5.015  13.959
42956SOL    HW230766   0.928   4.944  13.944
42957SOL     OW30767   8.376   6.275   1.487
42957SOL    HW130768   8.398   6.253   1.397
42957SOL    HW230769   8.456   6.258   1.536
42958SOL     OW30770  12.642  14.330   0.153
42958SOL    HW130771  12.552  14.297   0.151
42958SOL    HW230772  12.638  14.406   0.211
42959SOL     OW30773   5.800   4.303  10.272
42959SOL    HW130774   5.869   4.252  10.230
42959SOL    HW230775   5.839   4.390  10.284
42960SOL     OW30776  12.740   0.755   8.663
42960SOL    HW130777  12.654   0.713   8.669
42960SOL    HW230778  12.789   0.721   8.738
42961SOL     OW30779  12.399   7.890   9.489
42961SOL    HW130780  12.467   7.885   9.422
42961SOL    HW230781  12.338   7.956   9.456
42962SOL     OW30782   5.175   9.822   1.664
42962SOL    HW130783   5.210   9.892   1.609
42962SOL    HW230784   5.088   9.805   1.630
42963SOL     OW30785  13.402   5.344  11.075
42963SOL    HW130786  13.433   5.385  11.156
42963SOL    HW230787  13.393   5.251  11.098
42964SOL     OW30788   2.548  14.511   1.055
42964SOL    HW130789   2.471  14.562   1.078
42964SOL    HW230790   2.594  14.497   1.138
42965SOL     OW30791  11.845   8.383   5.502
42965SOL    HW130792  11.883   8.404   5.588
42965SOL    HW230793  11.795   8.303   5.516
42966SOL     OW30794  10.271   5.834   5.618
42966SOL    HW130795  10.347   5.803   5.567
42966SOL    HW230796  10.209   5.761   5.615
42967SOL     OW30797   8.664   8.250  14.718
42967SOL    HW130798   8.617   8.274  14.798
42967SOL    HW230799   8.625   8.167  14.691
42968SOL     OW30800   7.351   7.729   0.920
42968SOL    HW130801   7.376   7.650   0.872
42968SOL    HW230802   7.350   7.703   1.012
42969SOL     OW30803  11.155   0.061   6.301
42969SOL    HW130804  11.085   0.127   6.301
42969SOL    HW230805  11.161   0.033   6.392
42970SOL     OW30806   3.475   1.993   9.736
42970SOL    HW130807   3.459   1.909   9.695
42970SOL    HW230808   3.405   2.003   9.800
42971SOL     OW30809  12.878  10.943   0.159
42971SOL    HW130810  12.904  10.907   0.244
42971SOL    HW230811  12.871  10.866   0.102
42972SOL     OW30812   2.685   5.194  13.798
42972SOL    HW130813   2.625   5.235  13.735
42972SOL    HW230814   2.689   5.102  13.770
42973SOL     OW30815   4.371  12.222   3.333
42973SOL    HW130816   4.300  12.165   3.302
42973SOL    HW230817   4.381  12.200   3.426
42974SOL     OW30818   5.135  10.223  11.285
42974SOL    HW130819   5.194  10.163  11.239
42974SOL    HW230820   5.051  10.212  11.241
42975SOL     OW30821   9.215   4.335   5.783
42975SOL    HW130822   9.296   4.373   5.750
42975SOL    HW230823   9.240   4.297   5.868
42976SOL     OW30824  12.321   9.597   3.812
42976SOL    HW130825  12.268   9.521   3.833
42976SOL    HW230826  12.402   9.585   3.862
42977SOL     OW30827  13.606   3.913  11.300
42977SOL    HW130828  13.553   3.989  11.324
42977SOL    HW230829  13.546   3.838  11.306
42978SOL     OW30830  14.869  10.380  13.658
42978SOL    HW130831  14.832  10.322  13.592
42978SOL    HW230832  14.805  10.379  13.729
42979SOL     OW30833  14.621   7.410   8.941
42979SOL    HW130834  14.551   7.359   8.899
42979SOL    HW230835  14.685   7.345   8.969
42980SOL     OW30836   2.413   8.249   8.114
42980SOL    HW130837   2.476   8.222   8.180
42980SOL    HW230838   2.355   8.310   8.160
42981SOL     OW30839   5.615   5.280   7.166
42981SOL    HW130840   5.589   5.363   7.206
42981SOL    HW230841   5.711   5.282   7.166
42982SOL     OW30842  10.042  10.068   3.436
42982SOL    HW130843   9.958  10.107   3.410
42982SOL    HW230844  10.041  10.070   3.532
42983SOL     OW30845  14.200   6.179   6.116
42983SOL    HW130846  14.186   6.234   6.039
42983SOL    HW230847  14.271   6.120   6.091
42984SOL     OW30848   0.079   6.090   0.823
42984SOL    HW130849   0.043   6.178   0.834
42984SOL    HW230850   0.165   6.094   0.866
42985SOL     OW30851  10.993   2.032  12.609
42985SOL    HW130852  11.019   2.105  12.553
42985SOL    HW230853  11.051   1.961  12.583
42986SOL     OW30854   1.172  11.031   8.415
42986SOL    HW130855   1.092  11.078   8.438
42986SOL    HW230856   1.226  11.096   8.369
42987SOL     OW30857   1.806   3.043   9.172
42987SOL    HW130858   1.853   3.047   9.089
42987SOL    HW230859   1.851   2.975   9.222
42988SOL     OW30860  11.506   4.215   6.621
42988SOL    HW130861  11.599   4.191   6.616
42988SOL    HW230862  11.463   4.138   6.659
42989SOL     OW30863  10.589   8.919  14.422
42989SOL    HW130864  10.556   8.913  14.511
42989SOL    HW230865  10.611   8.829  14.398
42990SOL     OW30866   0.193   6.322   3.209
42990SOL    HW130867   0.153   6.245   3.170
42990SOL    HW230868   0.267   6.288   3.259
42991SOL     OW30869   3.376   6.164   0.249
42991SOL    HW130870   3.302   6.184   0.307
42991SOL    HW230871   3.449   6.145   0.308
42992SOL     OW30872   3.654   7.672   9.236
42992SOL    HW130873   3.731   7.644   9.187
42992SOL    HW230874   3.685   7.681   9.326
42993SOL     OW30875  13.570   1.122   9.373
42993SOL    HW130876  13.632   1.135   9.301
42993SOL    HW230877  13.486   1.109   9.329
42994SOL     OW30878  13.955   5.294   0.604
42994SOL    HW130879  14.035   5.327   0.645
42994SOL    HW230880  13.984   5.262   0.518
42995SOL     OW30881   2.925   6.527   1.387
42995SOL    HW130882   2.896   6.584   1.458
42995SOL    HW230883   2.846   6.483   1.357
42996SOL     OW30884  10.224   4.613   0.201
42996SOL    HW130885  10.253   4.625   0.110
42996SOL    HW230886  10.162   4.685   0.215
42997SOL     OW30887  14.076  12.744  12.797
42997SOL    HW130888  14.149  12.724  12.857
42997SOL    HW230889  14.072  12.668  12.739
42998SOL     OW30890  10.108   4.357   2.938
42998SOL    HW130891  10.195   4.323   2.918
42998SOL    HW230892  10.119   4.452   2.941
42999SOL     OW30893   8.915   7.028  11.768
42999SOL    HW130894   8.938   7.111  11.725
42999SOL    HW230895   8.996   6.977  11.767
43000SOL     OW30896  14.309   4.942   4.862
43000SOL    HW130897  14.304   4.911   4.952
43000SOL    HW230898  14.376   5.010   4.864
43001SOL     OW30899  12.791   4.170  13.738
43001SOL    HW130900  12.775   4.189  13.831
43001SOL    HW230901  12.829   4.251  13.704
43002SOL     OW30902  12.951   6.517   2.269
43002SOL    HW130903  13.027   6.459   2.269
43002SOL    HW230904  12.889   6.476   2.329
43003SOL     OW30905   7.696   4.926   9.187
43003SOL    HW130906   7.749   4.926   9.267
43003SOL    HW230907   7.650   5.011   9.189
43004SOL     OW30908   4.353   4.928   1.730
43004SOL    HW130909   4.266   4.939   1.691
43004SOL    HW230910   4.336   4.916   1.824
43005SOL     OW30911   6.126  11.106   3.064
43005SOL    HW130912   6.207  11.059   3.046
43005SOL    HW230913   6.074  11.093   2.985
43006SOL     OW30914   8.151  13.217   0.178
43006SOL    HW130915   8.242  13.243   0.163
43006SOL    HW230916   8.152  13.122   0.177
43007SOL     OW30917   7.248   0.437   4.584
43007SOL    HW130918   7.259   0.427   4.679
43007SOL    HW230919   7.265   0.530   4.568
43008SOL     OW30920   6.859  14.255   1.668
43008SOL    HW130921   6.950  14.234   1.689
43008SOL    HW230922   6.852  14.349   1.685
43009SOL     OW30923   5.549   1.175  12.843
43009SOL    HW130924   5.536   1.178  12.938
43009SOL    HW230925   5.473   1.128  12.810
43010SOL     OW30926   3.740  13.220  14.019
43010SOL    HW130927   3.774  13.223  13.929
43010SOL    HW230928   3.807  13.262  14.071
43011SOL     OW30929  13.458   4.216   1.509
43011SOL    HW130930  13.417   4.209   1.595
43011SOL    HW230931  13.514   4.139   1.503
43012SOL     OW30932   4.503   3.666   4.833
43012SOL    HW130933   4.498   3.625   4.746
43012SOL    HW230934   4.569   3.615   4.879
43013SOL     OW30935   0.788  12.639   9.750
43013SOL    HW130936   0.797  12.716   9.807
43013SOL    HW230937   0.775  12.675   9.663
43014SOL     OW30938  13.975  14.846   9.163
43014SOL    HW130939  13.896  14.806   9.127
43014SOL    HW230940  13.946   0.019   9.244
43015SOL     OW30941   8.288   7.793  11.625
43015SOL    HW130942   8.223   7.842  11.674
43015SOL    HW230943   8.237   7.727  11.578
43016SOL     OW30944   4.982   2.517   9.228
43016SOL    HW130945   5.038   2.556   9.295
43016SOL    HW230946   4.979   2.583   9.158
43017SOL     OW30947   7.726   6.764  14.325
43017SOL    HW130948   7.780   6.765  14.246
43017SOL    HW230949   7.733   6.852  14.361
43018SOL     OW30950   1.221  13.111   4.379
43018SOL    HW130951   1.149  13.136   4.437
43018SOL    HW230952   1.187  13.039   4.327
43019SOL     OW30953  13.328  14.280   6.677
43019SOL    HW130954  13.350  14.364   6.636
43019SOL    HW230955  13.290  14.305   6.762
43020SOL     OW30956  10.676   7.798   8.751
43020SOL    HW130957  10.658   7.881   8.706
43020SOL    HW230958  10.598   7.745   8.736
43021SOL     OW30959  12.879  14.162  12.353
43021SOL    HW130960  12.839  14.084  12.316
43021SOL    HW230961  12.966  14.166  12.313
43022SOL     OW30962   9.808   0.031   6.265
43022SOL    HW130963   9.765  14.834   6.212
43022SOL    HW230964   9.826   0.102   6.204
43023SOL     OW30965   5.811   5.846   8.804
43023SOL    HW130966   5.835   5.936   8.827
43023SOL    HW230967   5.841   5.836   8.714
43024SOL     OW30968   7.569  14.454   6.973
43024SOL    HW130969   7.485  14.473   7.015
43024SOL    HW230970   7.602  14.539   6.946
43025SOL     OW30971   0.313  10.108   2.044
43025SOL    HW130972   0.235  10.133   1.993
43025SOL    HW230973   0.277  10.062   2.120
43026SOL     OW30974   0.249   0.142  11.834
43026SOL    HW130975   0.295   0.086  11.770
43026SOL    HW230976   0.260   0.097  11.917
43027SOL     OW30977   7.752   7.229  13.338
43027SOL    HW130978   7.747   7.177  13.259
43027SOL    HW230979   7.742   7.166  13.409
43028SOL     OW30980  12.363   4.589   4.761
43028SOL    HW130981  12.411   4.627   4.687
43028SOL    HW230982  12.425   4.590   4.833
43029SOL     OW30983   5.278   0.456   3.083
43029SOL    HW130984   5.225   0.447   3.004
43029SOL    HW230985   5.246   0.385   3.140
43030SOL     OW30986   6.305   6.372   2.365
43030SOL    HW130987   6.230   6.334   2.412
43030SOL    HW230988   6.362   6.297   2.347
43031SOL     OW30989   0.559   4.481  11.798
43031SOL    HW130990   0.544   4.418  11.728
43031SOL    HW230991   0.475   4.526  11.809
43032SOL     OW30992   4.801   0.246  11.384
43032SOL    HW130993   4.853   0.192  11.443
43032SOL    HW230994   4.710   0.227  11.409
43033SOL     OW30995  12.478   5.750   9.219
43033SOL    HW130996  12.498   5.837   9.253
43033SOL    HW230997  12.533   5.691   9.270
43034SOL     OW30998   5.332  13.998   4.698
43034SOL    HW130999   5.352  13.934   4.766
43034SOL    HW231000   5.238  13.991   4.685
43035SOL     OW31001   8.320   3.930   0.152
43035SOL    HW131002   8.308   4.001   0.215
43035SOL    HW231003   8.329   3.975   0.068
43036SOL     OW31004   7.683   5.930   3.522
43036SOL    HW131005   7.704   5.968   3.608
43036SOL    HW231006   7.750   5.967   3.463
43037SOL     OW31007   2.503  11.717   8.337
43037SOL    HW131008   2.515  11.680   8.250
43037SOL    HW231009   2.489  11.811   8.322
43038SOL     OW31010  12.810   1.971   5.205
43038SOL    HW131011  12.714   1.974   5.207
43038SOL    HW231012  12.838   2.060   5.225
43039SOL     OW31013   9.465   9.108   8.318
43039SOL    HW131014   9.436   9.020   8.297
43039SOL    HW231015   9.511   9.099   8.402
43040SOL     OW31016  10.402   5.791   5.221
43040SOL    HW131017  10.409   5.884   5.243
43040SOL    HW231018  10.360   5.790   5.135
43041SOL     OW31019  14.491  11.422   2.152
43041SOL    HW131020  14.548  11.362   2.104
43041SOL    HW231021  14.456  11.481   2.086
43042SOL     OW31022  10.834  13.797   8.921
43042SOL    HW131023  10.808  13.798   9.013
43042SOL    HW231024  10.776  13.732   8.880
43043SOL     OW31025   3.799   4.991   2.904
43043SOL    HW131026   3.847   4.932   2.846
43043SOL    HW231027   3.738   5.037   2.846
43044SOL     OW31028   6.645   5.777   2.096
43044SOL    HW131029   6.681   5.813   2.015
43044SOL    HW231030   6.650   5.850   2.158
43045SOL     OW31031  11.331  14.498   5.942
43045SOL    HW131032  11.341  14.559   5.868
43045SOL    HW231033  11.245  14.458   5.927
43046SOL     OW31034   6.788  11.794  13.204
43046SOL    HW131035   6.863  11.852  13.219
43046SOL    HW231036   6.745  11.790  13.290
43047SOL     OW31037  12.407   5.951   8.525
43047SOL    HW131038  12.349   5.892   8.574
43047SOL    HW231039  12.351   6.023   8.497
43048SOL     OW31040  13.871   4.859   1.014
43048SOL    HW131041  13.898   4.935   0.962
43048SOL    HW231042  13.790   4.887   1.057
43049SOL     OW31043   1.229   6.596   8.416
43049SOL    HW131044   1.308   6.648   8.432
43049SOL    HW231045   1.192   6.632   8.336
43050SOL     OW31046   7.657   6.419   4.233
43050SOL    HW131047   7.679   6.505   4.268
43050SOL    HW231048   7.735   6.392   4.184
43051SOL     OW31049  13.752  12.775  13.431
43051SOL    HW131050  13.745  12.825  13.350
43051SOL    HW231051  13.814  12.824  13.484
43052SOL     OW31052  12.403   4.363  14.165
43052SOL    HW131053  12.487   4.323  14.188
43052SOL    HW231054  12.349   4.354  14.244
43053SOL     OW31055  11.705   8.276   1.228
43053SOL    HW131056  11.727   8.300   1.138
43053SOL    HW231057  11.762   8.331   1.282
43054SOL     OW31058  13.872  10.489   4.446
43054SOL    HW131059  13.851  10.573   4.407
43054SOL    HW231060  13.865  10.426   4.373
43055SOL     OW31061   4.267   4.162  10.978
43055SOL    HW131062   4.254   4.155  11.073
43055SOL    HW231063   4.254   4.073  10.945
43056SOL     OW31064   3.132  14.083  12.811
43056SOL    HW131065   3.226  14.102  12.809
43056SOL    HW231066   3.095  14.141  12.745
43057SOL     OW31067  14.489   1.082  13.727
43057SOL    HW131068  14.562   1.042  13.773
43057SOL    HW231069  14.413   1.065  13.783
43058SOL     OW31070   9.154   0.641   6.105
43058SOL    HW131071   9.211   0.717   6.095
43058SOL    HW231072   9.215   0.567   6.111
43059SOL     OW31073   4.005   5.760  11.088
43059SOL    HW131074   3.910   5.751  11.099
43059SOL    HW231075   4.033   5.804  11.168
43060SOL     OW31076  13.062   1.874   3.048
43060SOL    HW131077  13.031   1.797   3.000
43060SOL    HW231078  13.157   1.868   3.044
43061SOL     OW31079   5.937  10.418   2.016
43061SOL    HW131080   6.019  10.372   2.035
43061SOL    HW231081   5.875  10.384   2.080
43062SOL     OW31082  13.634   8.582   9.947
43062SOL    HW131083  13.719   8.557   9.983
43062SOL    HW231084  13.630   8.677   9.959
43063SOL     OW31085   2.354   3.914  10.249
43063SOL    HW131086   2.418   3.966  10.297
43063SOL    HW231087   2.276   3.970  10.244
43064SOL     OW31088   7.327  10.836  11.036
43064SOL    HW131089   7.243  10.862  11.074
43064SOL    HW231090   7.392  10.892  11.079
43065SOL     OW31091   4.556  10.617   3.170
43065SOL    HW131092   4.617  10.690   3.165
43065SOL    HW231093   4.612  10.539   3.169
43066SOL     OW31094   7.724  13.819   8.097
43066SOL    HW131095   7.680  13.744   8.057
43066SOL    HW231096   7.656  13.863   8.148
43067SOL     OW31097   2.893  13.028  13.272
43067SOL    HW131098   2.832  12.955  13.281
43067SOL    HW231099   2.944  13.007  13.194
43068SOL     OW31100   4.757  13.100  11.139
43068SOL    HW131101   4.704  13.060  11.208
43068SOL    HW231102   4.759  13.034  11.069
43069SOL     OW31103   3.880  14.218   3.553
43069SOL    HW131104   3.843  14.167   3.481
43069SOL    HW231105   3.973  14.225   3.532
43070SOL     OW31106  10.827  14.404   2.590
43070SOL    HW131107  10.896  14.425   2.653
43070SOL    HW231108  10.791  14.489   2.564
43071SOL     OW31109   6.171  13.418   9.041
43071SOL    HW131110   6.098  13.357   9.053
43071SOL    HW231111   6.230  13.398   9.113
43072SOL     OW31112   4.778  14.023   9.452
43072SOL    HW131113   4.737  14.101   9.413
43072SOL    HW231114   4.858  14.011   9.400
43073SOL     OW31115   3.343   9.136  12.296
43073SOL    HW131116   3.249   9.148  12.286
43073SOL    HW231117   3.357   9.130  12.390
43074SOL     OW31118   1.423   0.549   8.044
43074SOL    HW131119   1.379   0.609   7.984
43074SOL    HW231120   1.353   0.516   8.100
43075SOL     OW31121   8.617  14.422   5.964
43075SOL    HW131122   8.675  14.355   6.000
43075SOL    HW231123   8.675  14.481   5.915
43076SOL     OW31124   2.482   4.044  12.514
43076SOL    HW131125   2.477   4.092  12.431
43076SOL    HW231126   2.507   3.955  12.489
43077SOL     OW31127   2.973   8.579   8.101
43077SOL    HW131128   2.997   8.582   8.009
43077SOL    HW231129   2.937   8.491   8.114
43078SOL     OW31130   6.122   7.655  13.240
43078SOL    HW131131   6.173   7.722  13.285
43078SOL    HW231132   6.148   7.573  13.281
43079SOL     OW31133   7.251   4.841   0.518
43079SOL    HW131134   7.200   4.840   0.437
43079SOL    HW231135   7.197   4.889   0.581
43080SOL     OW31136   7.724   9.467  12.358
43080SOL    HW131137   7.657   9.529  12.331
43080SOL    HW231138   7.768   9.511  12.432
43081SOL     OW31139   3.625   8.562  11.414
43081SOL    HW131140   3.674   8.482  11.394
43081SOL    HW231141   3.557   8.533  11.475
43082SOL     OW31142   3.503  14.852   0.838
43082SOL    HW131143   3.565   0.045   0.801
43082SOL    HW231144   3.433   0.037   0.875
43083SOL     OW31145  13.203  14.243  12.631
43083SOL    HW131146  13.119  14.288  12.642
43083SOL    HW231147  13.193  14.194  12.550
43084SOL     OW31148   4.135   1.482  10.941
43084SOL    HW131149   4.221   1.454  10.908
43084SOL    HW231150   4.137   1.459  11.034
43085SOL     OW31151   7.077   9.701  12.501
43085SOL    HW131152   7.006   9.765  12.498
43085SOL    HW231153   7.151   9.745  12.458
43086SOL     OW31154   7.572  13.414   1.083
43086SOL    HW131155   7.590  13.373   1.168
43086SOL    HW231156   7.553  13.505   1.103
43087SOL     OW31157   4.632  10.681   8.986
43087SOL    HW131158   4.707  10.651   9.038
43087SOL    HW231159   4.638  10.777   8.990
43088SOL     OW31160  11.464  12.377  14.807
43088SOL    HW131161  11.415  12.411  14.732
43088SOL    HW231162  11.397  12.344  14.867
43089SOL     OW31163   7.602  14.769   2.062
43089SOL    HW131164   7.621  14.693   2.007
43089SOL    HW231165   7.595  14.734   2.151
43090SOL     OW31166   9.091   8.257   8.227
43090SOL    HW131167   9.003   8.277   8.258
43090SOL    HW231168   9.101   8.310   8.148
43091SOL     OW31169   1.964   1.843   2.784
43091SOL    HW131170   1.967   1.816   2.875
43091SOL    HW231171   1.871   1.856   2.766
43092SOL     OW31172  10.327   7.183   5.147
43092SOL    HW131173  10.254   7.245   5.148
43092SOL    HW231174  10.287   7.099   5.171
43093SOL     OW31175   2.161  11.984  10.384
43093SOL    HW131176   2.198  12.039  10.453
43093SOL    HW231177   2.188  12.027  10.303
43094SOL     OW31178   1.438  12.447   2.806
43094SOL    HW131179   1.367  12.384   2.824
43094SOL    HW231180   1.427  12.514   2.873
43095SOL     OW31181   6.967   6.954   5.348
43095SOL    HW131182   6.967   6.866   5.387
43095SOL    HW231183   7.046   6.996   5.383
43096SOL     OW31184  11.544   4.717   3.845
43096SOL    HW131185  11.542   4.699   3.751
43096SOL    HW231186  11.636   4.707   3.870
43097SOL     OW31187  11.660  11.324   8.693
43097SOL    HW131188  11.690  11.298   8.606
43097SOL    HW231189  11.602  11.253   8.721
43098SOL     OW31190   2.952   3.446   6.123
43098SOL    HW131191   3.043   3.426   6.146
43098SOL    HW231192   2.905   3.444   6.206
43099SOL     OW31193  11.026  12.156   7.144
43099SOL    HW131194  11.107  12.195   7.177
43099SOL    HW231195  10.962  12.171   7.214
43100SOL     OW31196   5.386   7.359   3.060
43100SOL    HW131197   5.381   7.371   2.965
43100SOL    HW231198   5.447   7.427   3.089
43101SOL     OW31199  10.830   1.382  10.731
43101SOL    HW131200  10.865   1.296  10.709
43101SOL    HW231201  10.902   1.425  10.777
43102SOL     OW31202   0.575   7.764   9.977
43102SOL    HW131203   0.554   7.696  10.041
43102SOL    HW231204   0.596   7.841  10.030
43103SOL     OW31205   3.973   1.128   7.243
43103SOL    HW131206   4.015   1.213   7.230
43103SOL    HW231207   3.910   1.143   7.314
43104SOL     OW31208  13.949   5.979   9.618
43104SOL    HW131209  13.912   5.991   9.530
43104SOL    HW231210  13.873   5.970   9.675
43105SOL     OW31211   3.705   8.407   0.962
43105SOL    HW131212   3.771   8.466   0.997
43105SOL    HW231213   3.638   8.403   1.029
43106SOL     OW31214   6.898   9.042   6.946
43106SOL    HW131215   6.810   9.010   6.968
43106SOL    HW231216   6.957   8.971   6.973
43107SOL     OW31217   3.159   0.561   5.597
43107SOL    HW131218   3.069   0.585   5.617
43107SOL    HW231219   3.156   0.522   5.510
43108SOL     OW31220   9.673   2.572   6.270
43108SOL    HW131221   9.716   2.510   6.210
43108SOL    HW231222   9.745   2.608   6.322
43109SOL     OW31223   4.132   9.562   3.603
43109SOL    HW131224   4.144   9.590   3.512
43109SOL    HW231225   4.039   9.542   3.610
43110SOL     OW31226   1.838   0.561   9.070
43110SOL    HW131227   1.772   0.622   9.105
43110SOL    HW231228   1.877   0.521   9.148
43111SOL     OW31229   7.043   7.741  12.884
43111SOL    HW131230   7.019   7.697  12.803
43111SOL    HW231231   6.996   7.691  12.952
43112SOL     OW31232  13.955   6.962   6.877
43112SOL    HW131233  13.963   7.054   6.906
43112SOL    HW231234  13.912   6.967   6.792
43113SOL     OW31235   6.381   3.871  10.266
43113SOL    HW131236   6.456   3.930  10.260
43113SOL    HW231237   6.419   3.784  10.259
43114SOL     OW31238   9.977   1.590  14.749
43114SOL    HW131239  10.042   1.589  14.679
43114SOL    HW231240   9.979   1.680  14.783
43115SOL     OW31241   9.645   5.623  13.494
43115SOL    HW131242   9.725   5.674  13.482
43115SOL    HW231243   9.627   5.586  13.408
43116SOL     OW31244  14.589  13.442   8.089
43116SOL    HW131245  14.580  13.518   8.147
43116SOL    HW231246  14.662  13.464   8.031
43117SOL     OW31247   9.523   9.782   0.370
43117SOL    HW131248   9.583   9.827   0.430
43117SOL    HW231249   9.547   9.690   0.377
43118SOL     OW31250   9.412  10.370   0.149
43118SOL    HW131251   9.445  10.444   0.200
43118SOL    HW231252   9.466  10.296   0.177
43119SOL     OW31253   3.242  11.260  12.529
43119SOL    HW131254   3.292  11.218  12.599
43119SOL    HW231255   3.249  11.354  12.548
43120SOL     OW31256  11.141   2.289   5.682
43120SOL    HW131257  11.110   2.229   5.750
43120SOL    HW231258  11.236   2.293   5.695
43121SOL     OW31259  11.917   7.651   2.922
43121SOL    HW131260  11.844   7.611   2.970
43121SOL    HW231261  11.986   7.659   2.988
43122SOL     OW31262   0.102   2.393  11.261
43122SOL    HW131263   0.145   2.341  11.193
43122SOL    HW231264   0.104   2.483  11.227
43123SOL     OW31265   7.516   8.981  12.487
43123SOL    HW131266   7.478   8.984  12.575
43123SOL    HW231267   7.541   9.071  12.468
43124SOL     OW31268   4.367   7.964   2.308
43124SOL    HW131269   4.403   7.897   2.367
43124SOL    HW231270   4.381   7.929   2.220
43125SOL     OW31271   2.599   0.603   6.954
43125SOL    HW131272   2.684   0.638   6.982
43125SOL    HW231273   2.575   0.656   6.877
43126SOL     OW31274   6.029  10.813   8.016
43126SOL    HW131275   6.059  10.895   8.055
43126SOL    HW231276   5.967  10.841   7.948
43127SOL     OW31277  13.625   1.115  14.833
43127SOL    HW131278  13.703   1.077  14.793
43127SOL    HW231279  13.604   1.056   0.036
43128SOL     OW31280   6.087   6.499  11.414
43128SOL    HW131281   6.027   6.542  11.352
43128SOL    HW231282   6.102   6.412  11.375
43129SOL     OW31283   9.163  13.659  11.284
43129SOL    HW131284   9.163  13.703  11.199
43129SOL    HW231285   9.238  13.698  11.331
43130SOL     OW31286   9.166   1.245   0.089
43130SOL    HW131287   9.162   1.308   0.017
43130SOL    HW231288   9.258   1.246   0.117
43131SOL     OW31289   6.560   6.241   9.221
43131SOL    HW131290   6.650   6.212   9.205
43131SOL    HW231291   6.570   6.326   9.264
43132SOL     OW31292   8.159   2.992   4.322
43132SOL    HW131293   8.121   3.062   4.268
43132SOL    HW231294   8.199   2.932   4.260
43133SOL     OW31295   8.727  12.852   4.655
43133SOL    HW131296   8.768  12.773   4.621
43133SOL    HW231297   8.708  12.904   4.576
43134SOL     OW31298  13.893   9.377  14.854
43134SOL    HW131299  13.988   9.385  14.846
43134SOL    HW231300  13.879   9.312   0.053
43135SOL     OW31301  11.185  14.316  10.335
43135SOL    HW131302  11.158  14.368  10.411
43135SOL    HW231303  11.239  14.246  10.373
43136SOL     OW31304  10.571   7.065   5.234
43136SOL    HW131305  10.485   7.094   5.204
43136SOL    HW231306  10.580   6.976   5.200
43137SOL     OW31307   9.880   6.416  11.016
43137SOL    HW131308   9.870   6.410  10.921
43137SOL    HW231309   9.963   6.371  11.035
43138SOL     OW31310  14.821   5.289   2.186
43138SOL    HW131311  14.792   5.294   2.095
43138SOL    HW231312   0.011   5.363   2.196
43139SOL     OW31313   1.384   7.307   1.760
43139SOL    HW131314   1.440   7.331   1.833
43139SOL    HW231315   1.295   7.314   1.794
43140SOL     OW31316   7.748  10.894  11.386
43140SOL    HW131317   7.656  10.908  11.407
43140SOL    HW231318   7.749  10.878  11.292
43141SOL     OW31319   1.034   3.206  11.106
43141SOL    HW131320   0.990   3.216  11.021
43141SOL    HW231321   0.964   3.215  11.170
43142SOL     OW31322   2.145   6.162  11.659
43142SOL    HW131323   2.167   6.242  11.706
43142SOL    HW231324   2.165   6.181  11.568
43143SOL     OW31325  12.523   4.867   2.518
43143SOL    HW131326  12.493   4.949   2.557
43143SOL    HW231327  12.501   4.876   2.425
43144SOL     OW31328  10.047   2.852   9.237
43144SOL    HW131329   9.968   2.867   9.289
43144SOL    HW231330  10.104   2.925   9.257
43145SOL     OW31331   4.576   9.185  13.746
43145SOL    HW131332   4.631   9.169  13.669
43145SOL    HW231333   4.517   9.255  13.719
43146SOL     OW31334  14.358  14.254   0.949
43146SOL    HW131335  14.451  14.273   0.962
43146SOL    HW231336  14.343  14.174   1.000
43147SOL     OW31337   8.012  14.377  12.388
43147SOL    HW131338   7.963  14.439  12.333
43147SOL    HW231339   8.026  14.423  12.470
43148SOL     OW31340  14.065   1.914   0.435
43148SOL    HW131341  14.027   1.969   0.504
43148SOL    HW231342  14.064   1.970   0.357
43149SOL     OW31343  11.657  14.801   3.061
43149SOL    HW131344  11.617   0.018   3.048
43149SOL    HW231345  11.636  14.753   2.981
43150SOL     OW31346   3.666   1.970   8.664
43150SOL    HW131347   3.760   1.984   8.676
43150SOL    HW231348   3.638   1.924   8.743
43151SOL     OW31349   9.270  12.319   5.993
43151SOL    HW131350   9.322  12.363   6.060
43151SOL    HW231351   9.314  12.341   5.911
43152SOL     OW31352   3.744   3.771   0.016
43152SOL    HW131353   3.824   3.745  14.838
43152SOL    HW231354   3.776   3.798   0.102
43153SOL     OW31355   9.096  10.906  14.404
43153SOL    HW131356   9.165  10.904  14.338
43153SOL    HW231357   9.049  10.824  14.392
43154SOL     OW31358  12.203  12.079   4.275
43154SOL    HW131359  12.207  12.020   4.350
43154SOL    HW231360  12.175  12.163   4.311
43155SOL     OW31361   9.677   3.965  11.682
43155SOL    HW131362   9.615   4.038  11.685
43155SOL    HW231363   9.639   3.904  11.619
43156SOL     OW31364   6.291  10.443  14.207
43156SOL    HW131365   6.366  10.434  14.147
43156SOL    HW231366   6.319  10.508  14.271
43157SOL     OW31367   5.380   6.654   5.898
43157SOL    HW131368   5.338   6.734   5.867
43157SOL    HW231369   5.357   6.649   5.991
43158SOL     OW31370   6.643   6.363   7.894
43158SOL    HW131371   6.594   6.288   7.861
43158SOL    HW231372   6.716   6.325   7.942
43159SOL     OW31373  12.721   7.673  12.428
43159SOL    HW131374  12.765   7.643  12.507
43159SOL    HW231375  12.704   7.594  12.378
43160SOL     OW31376   9.735   7.261  14.594
43160SOL    HW131377   9.795   7.222  14.531
43160SOL    HW231378   9.791   7.294  14.664
43161SOL     OW31379   1.014   8.355   2.551
43161SOL    HW131380   1.068   8.430   2.575
43161SOL    HW231381   0.969   8.332   2.632
43162SOL     OW31382   1.009  12.156   9.859
43162SOL    HW131383   0.944  12.165   9.929
43162SOL    HW231384   0.996  12.234   9.804
43163SOL     OW31385  11.757  14.802  10.066
43163SOL    HW131386  11.740  14.746   9.990
43163SOL    HW231387  11.838  14.848  10.044
43164SOL     OW31388   3.800   1.970  14.543
43164SOL    HW131389   3.846   2.054  14.548
43164SOL    HW231390   3.809   1.934  14.631
43165SOL     OW31391  13.280   6.262  12.792
43165SOL    HW131392  13.350   6.327  12.796
43165SOL    HW231393  13.200   6.313  12.806
43166SOL     OW31394   3.883   1.633   3.997
43166SOL    HW131395   3.938   1.647   3.920
43166SOL    HW231396   3.902   1.543   4.023
43167SOL     OW31397   8.461   9.418   4.418
43167SOL    HW131398   8.371   9.440   4.442
43167SOL    HW231399   8.477   9.465   4.336
43168SOL     OW31400   7.699   9.928   6.033
43168SOL    HW131401   7.697  10.014   5.991
43168SOL    HW231402   7.607   9.901   6.036
43169SOL     OW31403   3.090   2.207  10.339
43169SOL    HW131404   3.038   2.286  10.328
43169SOL    HW231405   3.160   2.215  10.274
43170SOL     OW31406   2.547  12.938  11.396
43170SOL    HW131407   2.622  12.970  11.445
43170SOL    HW231408   2.540  12.846  11.421
43171SOL     OW31409   7.855   9.576   7.417
43171SOL    HW131410   7.778   9.623   7.448
43171SOL    HW231411   7.891   9.535   7.496
43172SOL     OW31412  12.905   8.025  12.506
43172SOL    HW131413  12.825   8.018  12.559
43172SOL    HW231414  12.876   8.062  12.423
43173SOL     OW31415   5.673  14.794  12.469
43173SOL    HW131416   5.717  14.724  12.422
43173SOL    HW231417   5.642  14.854  12.400
43174SOL     OW31418   2.573   8.864   9.871
43174SOL    HW131419   2.517   8.852   9.948
43174SOL    HW231420   2.651   8.813   9.890
43175SOL     OW31421   2.435   3.229   4.626
43175SOL    HW131422   2.506   3.292   4.619
43175SOL    HW231423   2.476   3.151   4.665
43176SOL     OW31424  12.662  12.824   4.857
43176SOL    HW131425  12.730  12.800   4.920
43176SOL    HW231426  12.710  12.853   4.779
43177SOL     OW31427   8.339   4.150   5.855
43177SOL    HW131428   8.328   4.233   5.902
43177SOL    HW231429   8.273   4.153   5.786
43178SOL     OW31430   7.661  11.849   9.700
43178SOL    HW131431   7.741  11.798   9.687
43178SOL    HW231432   7.686  11.917   9.761
43179SOL     OW31433   5.897   5.374   6.660
43179SOL    HW131434   5.991   5.377   6.677
43179SOL    HW231435   5.889   5.389   6.565
43180SOL     OW31436   1.542   2.446  11.195
43180SOL    HW131437   1.451   2.420  11.184
43180SOL    HW231438   1.558   2.438  11.289
43181SOL     OW31439   4.409   2.127   6.078
43181SOL    HW131440   4.347   2.097   6.011
43181SOL    HW231441   4.477   2.060   6.080
43182SOL     OW31442   5.359  14.126   5.371
43182SOL    HW131443   5.452  14.119   5.348
43182SOL    HW231444   5.313  14.088   5.297
43183SOL     OW31445   3.107  14.061  10.071
43183SOL    HW131446   3.054  13.987  10.043
43183SOL    HW231447   3.172  14.023  10.130
43184SOL     OW31448  12.903   7.678  14.009
43184SOL    HW131449  12.869   7.589  14.018
43184SOL    HW231450  12.842   7.733  14.059
43185SOL     OW31451   8.938  12.067   2.913
43185SOL    HW131452   8.843  12.067   2.904
43185SOL    HW231453   8.953  12.091   3.005
43186SOL     OW31454   8.106   4.983   7.012
43186SOL    HW131455   8.136   4.937   6.934
43186SOL    HW231456   8.145   4.934   7.085
43187SOL     OW31457  13.366   9.058  14.734
43187SOL    HW131458  13.289   9.003  14.722
43187SOL    HW231459  13.439   8.997  14.735
43188SOL     OW31460   3.920   7.928   6.271
43188SOL    HW131461   3.931   7.856   6.209
43188SOL    HW231462   3.833   7.915   6.308
43189SOL     OW31463   6.101   4.776   1.518
43189SOL    HW131464   6.039   4.747   1.452
43189SOL    HW231465   6.049   4.829   1.578
43190SOL     OW31466   3.958   5.995   6.305
43190SOL    HW131467   4.014   5.985   6.229
43190SOL    HW231468   3.944   5.905   6.337
43191SOL     OW31469   1.404   7.863   1.216
43191SOL    HW131470   1.499   7.851   1.211
43191SOL    HW231471   1.380   7.828   1.302
43192SOL     OW31472   0.029  12.993   4.278
43192SOL    HW131473   0.067  13.076   4.307
43192SOL    HW231474   0.059  12.984   4.187
43193SOL     OW31475   2.706   6.090   6.141
43193SOL    HW131476   2.666   6.008   6.112
43193SOL    HW231477   2.756   6.121   6.066
43194SOL     OW31478   6.333  12.033   7.210
43194SOL    HW131479   6.328  12.047   7.115
43194SOL    HW231480   6.242  12.024   7.238
43195SOL     OW31481   9.308   9.636   3.882
43195SOL    HW131482   9.287   9.559   3.829
43195SOL    HW231483   9.231   9.693   3.874
43196SOL     OW31484  14.016  14.398   9.074
43196SOL    HW131485  13.926  14.430   9.072
43196SOL    HW231486  14.063  14.461   9.129
43197SOL     OW31487  14.208   7.707   7.230
43197SOL    HW131488  14.216   7.800   7.206
43197SOL    HW231489  14.223   7.705   7.324
43198SOL     OW31490   1.151  12.962   8.997
43198SOL    HW131491   1.185  12.946   8.909
43198SOL    HW231492   1.223  12.940   9.056
43199SOL     OW31493   6.711  11.408   7.209
43199SOL    HW131494   6.742  11.362   7.287
43199SOL    HW231495   6.689  11.338   7.147
43200SOL     OW31496   0.726   3.781   3.696
43200SOL    HW131497   0.650   3.776   3.755
43200SOL    HW231498   0.797   3.814   3.752
43201SOL     OW31499  11.050   8.845   1.533
43201SOL    HW131500  11.120   8.878   1.478
43201SOL    HW231501  11.006   8.924   1.566
43202SOL     OW31502   9.935   2.220   7.288
43202SOL    HW131503   9.973   2.257   7.368
43202SOL    HW231504   9.862   2.167   7.320
43203SOL     OW31505   5.141   1.986   8.020
43203SOL    HW131506   5.081   2.056   8.043
43203SOL    HW231507   5.197   2.023   7.952
43204SOL     OW31508   9.545  10.145   2.646
43204SOL    HW131509   9.572  10.112   2.560
43204SOL    HW231510   9.626  10.169   2.690
43205SOL     OW31511   5.098   5.616   9.898
43205SOL    HW131512   5.056   5.676   9.959
43205SOL    HW231513   5.188   5.647   9.893
43206SOL     OW31514   3.086   0.960  12.619
43206SOL    HW131515   3.129   0.875  12.616
43206SOL    HW231516   3.033   0.963  12.539
43207SOL     OW31517   9.225   8.073   7.667
43207SOL    HW131518   9.147   8.025   7.695
43207SOL    HW231519   9.222   8.072   7.572
43208SOL     OW31520   6.012   2.875   3.416
43208SOL    HW131521   6.011   2.970   3.405
43208SOL    HW231522   5.957   2.842   3.344
43209SOL     OW31523  13.106  12.128  13.330
43209SOL    HW131524  13.198  12.153  13.332
43209SOL    HW231525  13.107  12.032  13.338
43210SOL     OW31526   2.875   3.228   2.284
43210SOL    HW131527   2.885   3.201   2.192
43210SOL    HW231528   2.807   3.170   2.318
43211SOL     OW31529  11.462   8.348   2.929
43211SOL    HW131530  11.528   8.311   2.988
43211SOL    HW231531  11.425   8.422   2.978
43212SOL     OW31532   0.282   4.155   1.151
43212SOL    HW131533   0.360   4.106   1.177
43212SOL    HW231534   0.268   4.130   1.059
43213SOL     OW31535  13.090   1.865  14.437
43213SOL    HW131536  13.057   1.938  14.488
43213SOL    HW231537  13.015   1.835  14.386
43214SOL     OW31538  11.495   2.374  12.826
43214SOL    HW131539  11.443   2.403  12.751
43214SOL    HW231540  11.527   2.455  12.865
43215SOL     OW31541  12.277   8.648   1.800
43215SOL    HW131542  12.223   8.574   1.829
43215SOL    HW231543  12.364   8.630   1.837
43216SOL     OW31544   2.897  11.731  12.731
43216SOL    HW131545   2.901  11.739  12.636
43216SOL    HW231546   2.825  11.670  12.747
43217SOL     OW31547   4.754   0.856   8.978
43217SOL    HW131548   4.814   0.906   9.032
43217SOL    HW231549   4.674   0.851   9.030
43218SOL     OW31550   9.936   9.492   5.457
43218SOL    HW131551   9.955   9.443   5.537
43218SOL    HW231552   9.842   9.483   5.445
43219SOL     OW31553   7.259  12.564   3.018
43219SOL    HW131554   7.240  12.471   3.010
43219SOL    HW231555   7.340  12.568   3.070
43220SOL     OW31556   9.517  13.416   7.763
43220SOL    HW131557   9.495  13.391   7.673
43220SOL    HW231558   9.601  13.374   7.780
43221SOL     OW31559   8.337  14.146   2.609
43221SOL    HW131560   8.283  14.221   2.635
43221SOL    HW231561   8.426  14.181   2.607
43222SOL     OW31562  12.845   1.351  13.515
43222SOL    HW131563  12.892   1.328  13.595
43222SOL    HW231564  12.909   1.400  13.463
43223SOL     OW31565  13.705  14.346  14.619
43223SOL    HW131566  13.742  14.358  14.707
43223SOL    HW231567  13.781  14.344  14.561
43224SOL     OW31568   3.924   9.367   2.261
43224SOL    HW131569   3.869   9.443   2.277
43224SOL    HW231570   4.012   9.396   2.285
43225SOL     OW31571   7.932   6.951   3.385
43225SOL    HW131572   7.864   6.886   3.369
43225SOL    HW231573   7.995   6.905   3.442
43226SOL     OW31574   0.823   7.137   9.591
43226SOL    HW131575   0.761   7.079   9.547
43226SOL    HW231576   0.875   7.174   9.520
43227SOL     OW31577  12.597  13.424   2.831
43227SOL    HW131578  12.655  13.499   2.833
43227SOL    HW231579  12.627  13.368   2.903
43228SOL     OW31580   0.027   5.556   4.156
43228SOL    HW131581  14.824   5.602   4.115
43228SOL    HW231582   0.067   5.621   4.215
43229SOL     OW31583   4.499  12.946   5.246
43229SOL    HW131584   4.465  13.035   5.237
43229SOL    HW231585   4.493  12.928   5.340
43230SOL     OW31586   5.308   8.952   3.078
43230SOL    HW131587   5.383   8.980   3.129
43230SOL    HW231588   5.291   9.025   3.018
43231SOL     OW31589  11.172   4.673  13.843
43231SOL    HW131590  11.152   4.586  13.877
43231SOL    HW231591  11.170   4.731  13.919
43232SOL     OW31592   6.619   2.780   6.584
43232SOL    HW131593   6.642   2.687   6.584
43232SOL    HW231594   6.553   2.789   6.653
43233SOL     OW31595   1.591   1.237  12.489
43233SOL    HW131596   1.575   1.143  12.494
43233SOL    HW231597   1.643   1.249  12.409
43234SOL     OW31598  13.885  14.817  13.830
43234SOL    HW131599  13.809  14.783  13.878
43234SOL    HW231600  13.856   0.030  13.793
43235SOL     OW31601   1.796  13.841  12.616
43235SOL    HW131602   1.732  13.912  12.613
43235SOL    HW231603   1.881  13.883  12.607
43236SOL     OW31604   8.583   9.392   8.392
43236SOL    HW131605   8.629   9.476   8.396
43236SOL    HW231606   8.620   9.347   8.317
43237SOL     OW31607   7.268  12.113   3.621
43237SOL    HW131608   7.264  12.025   3.583
43237SOL    HW231609   7.334  12.159   3.568
43238SOL     OW31610  11.507   4.164  10.670
43238SOL    HW131611  11.544   4.228  10.731
43238SOL    HW231612  11.430   4.207  10.633
43239SOL     OW31613   5.559  10.460  14.288
43239SOL    HW131614   5.514  10.377  14.304
43239SOL    HW231615   5.534  10.516  14.362
43240SOL     OW31616  10.161   4.566   4.163
43240SOL    HW131617  10.254   4.545   4.167
43240SOL    HW231618  10.154   4.627   4.090
43241SOL     OW31619   6.408   6.704   1.583
43241SOL    HW131620   6.494   6.693   1.624
43241SOL    HW231621   6.360   6.624   1.605
43242SOL     OW31622   1.305   0.859   5.570
43242SOL    HW131623   1.367   0.904   5.513
43242SOL    HW231624   1.244   0.817   5.510
43243SOL     OW31625   3.720   6.732   5.569
43243SOL    HW131626   3.656   6.709   5.637
43243SOL    HW231627   3.802   6.691   5.598
43244SOL     OW31628  13.488  11.152  11.759
43244SOL    HW131629  13.500  11.073  11.706
43244SOL    HW231630  13.550  11.214  11.723
43245SOL     OW31631  10.090   1.850  11.330
43245SOL    HW131632  10.096   1.847  11.425
43245SOL    HW231633  10.026   1.784  11.307
43246SOL     OW31634   0.480   4.978   9.033
43246SOL    HW131635   0.491   4.910   9.100
43246SOL    HW231636   0.541   5.047   9.060
43247SOL     OW31637   5.850   7.915   2.375
43247SOL    HW131638   5.889   7.828   2.377
43247SOL    HW231639   5.923   7.974   2.357
43248SOL     OW31640   5.555   1.965  13.032
43248SOL    HW131641   5.509   2.032  12.982
43248SOL    HW231642   5.583   1.901  12.967
43249SOL     OW31643   5.613   2.580   9.742
43249SOL    HW131644   5.587   2.565   9.833
43249SOL    HW231645   5.643   2.494   9.711
43250SOL     OW31646  11.009   8.492  10.626
43250SOL    HW131647  10.933   8.474  10.571
43250SOL    HW231648  11.083   8.493  10.565
43251SOL     OW31649   8.053   2.155   1.392
43251SOL    HW131650   8.115   2.167   1.321
43251SOL    HW231651   8.015   2.242   1.405
43252SOL     OW31652  10.178   5.877   4.722
43252SOL    HW131653  10.086   5.882   4.748
43252SOL    HW231654  10.220   5.947   4.770
43253SOL     OW31655  14.217   9.446   5.131
43253SOL    HW131656  14.152   9.478   5.193
43253SOL    HW231657  14.285   9.514   5.130
43254SOL     OW31658   1.347   0.853   8.646
43254SOL    HW131659   1.337   0.850   8.741
43254SOL    HW231660   1.402   0.930   8.630
43255SOL     OW31661   6.725   1.196   1.315
43255SOL    HW131662   6.655   1.260   1.326
43255SOL    HW231663   6.689   1.114   1.349
43256SOL     OW31664  13.058   9.650   4.236
43256SOL    HW131665  13.049   9.557   4.259
43256SOL    HW231666  13.132   9.653   4.175
43257SOL     OW31667   7.595   1.031   5.812
43257SOL    HW131668   7.667   1.007   5.753
43257SOL    HW231669   7.523   0.973   5.787
43258SOL     OW31670   9.036  11.144  10.120
43258SOL    HW131671   9.027  11.237  10.142
43258SOL    HW231672   9.083  11.144  10.037
43259SOL     OW31673   5.608   4.407  12.199
43259SOL    HW131674   5.592   4.374  12.111
43259SOL    HW231675   5.643   4.495  12.186
43260SOL     OW31676  10.552   2.422  14.709
43260SOL    HW131677  10.592   2.415  14.623
43260SOL    HW231678  10.460   2.397  14.694
43261SOL     OW31679  12.057   1.962   5.693
43261SOL    HW131680  12.025   1.954   5.782
43261SOL    HW231681  12.016   1.890   5.645
43262SOL     OW31682   1.108  14.689  13.166
43262SOL    HW131683   1.151  14.694  13.252
43262SOL    HW231684   1.173  14.649  13.109
43263SOL     OW31685  14.461   4.226   5.288
43263SOL    HW131686  14.459   4.131   5.277
43263SOL    HW231687  14.377   4.256   5.252
43264SOL     OW31688   2.735   5.416   9.815
43264SOL    HW131689   2.740   5.465   9.733
43264SOL    HW231690   2.812   5.445   9.865
43265SOL     OW31691  14.007  12.573   4.127
43265SOL    HW131692  13.928  12.535   4.164
43265SOL    HW231693  14.078  12.539   4.181
43266SOL     OW31694   5.406   0.259  14.477
43266SOL    HW131695   5.345   0.259  14.403
43266SOL    HW231696   5.380   0.334  14.530
43267SOL     OW31697   7.902   0.700   1.354
43267SOL    HW131698   7.864   0.787   1.342
43267SOL    HW231699   7.828   0.643   1.374
43268SOL     OW31700   6.889   6.727   3.856
43268SOL    HW131701   6.796   6.749   3.864
43268SOL    HW231702   6.921   6.728   3.946
43269SOL     OW31703   3.321   3.567  10.329
43269SOL    HW131704   3.225   3.569  10.332
43269SOL    HW231705   3.342   3.512  10.254
43270SOL     OW31706   7.179   1.806   8.795
43270SOL    HW131707   7.257   1.850   8.760
43270SOL    HW231708   7.151   1.748   8.725
43271SOL     OW31709  10.123   1.105   1.555
43271SOL    HW131710  10.072   1.186   1.552
43271SOL    HW231711  10.107   1.069   1.642
43272SOL     OW31712  13.643  12.911   8.180
43272SOL    HW131713  13.632  12.822   8.147
43272SOL    HW231714  13.626  12.967   8.104
43273SOL     OW31715  11.640   6.838   1.767
43273SOL    HW131716  11.690   6.774   1.716
43273SOL    HW231717  11.552   6.801   1.774
43274SOL     OW31718  10.447  14.116   1.320
43274SOL    HW131719  10.458  14.044   1.258
43274SOL    HW231720  10.533  14.129   1.358
43275SOL     OW31721   5.938   1.814   6.803
43275SOL    HW131722   5.895   1.880   6.749
43275SOL    HW231723   6.032   1.831   6.792
43276SOL     OW31724  12.725   7.904   5.572
43276SOL    HW131725  12.697   7.898   5.663
43276SOL    HW231726  12.659   7.960   5.530
43277SOL     OW31727   8.911  12.387  13.799
43277SOL    HW131728   8.824  12.355  13.774
43277SOL    HW231729   8.901  12.415  13.890
43278SOL     OW31730  12.292  13.177  14.300
43278SOL    HW131731  12.239  13.186  14.220
43278SOL    HW231732  12.291  13.083  14.318
43279SOL     OW31733   5.607   8.566   8.726
43279SOL    HW131734   5.516   8.548   8.702
43279SOL    HW231735   5.652   8.574   8.642
43280SOL     OW31736   2.226   2.127  10.519
43280SOL    HW131737   2.135   2.111  10.544
43280SOL    HW231738   2.274   2.053  10.555
43281SOL     OW31739   7.763   5.970   7.186
43281SOL    HW131740   7.729   5.941   7.101
43281SOL    HW231741   7.853   5.998   7.167
43282SOL     OW31742  11.570  12.068  14.380
43282SOL    HW131743  11.635  12.111  14.436
43282SOL    HW231744  11.548  12.134  14.315
43283SOL     OW31745   6.305  10.400  10.835
43283SOL    HW131746   6.301  10.489  10.801
43283SOL    HW231747   6.309  10.411  10.930
43284SOL     OW31748  12.947   6.335   3.133
43284SOL    HW131749  12.932   6.388   3.211
43284SOL    HW231750  12.975   6.249   3.167
43285SOL     OW31751   9.223   5.016   6.296
43285SOL    HW131752   9.198   4.988   6.208
43285SOL    HW231753   9.308   5.059   6.285
43286SOL     OW31754  12.514  14.654  11.330
43286SOL    HW131755  12.608  14.637  11.326
43286SOL    HW231756  12.490  14.633  11.420
43287SOL     OW31757  11.564   3.318  14.389
43287SOL    HW131758  11.616   3.376  14.334
43287SOL    HW231759  11.620   3.241  14.401
43288SOL     OW31760  11.871  11.015  13.086
43288SOL    HW131761  11.885  11.109  13.085
43288SOL    HW231762  11.906  10.986  13.171
43289SOL     OW31763   1.539  10.393   4.890
43289SOL    HW131764   1.505  10.425   4.974
43289SOL    HW231765   1.523  10.299   4.891
43290SOL     OW31766   0.393   7.160  14.535
43290SOL    HW131767   0.454   7.216  14.487
43290SOL    HW231768   0.328   7.221  14.570
43291SOL     OW31769   1.870   0.440   9.645
43291SOL    HW131770   1.810   0.411   9.713
43291SOL    HW231771   1.954   0.401   9.670
43292SOL     OW31772   8.127   5.360   7.248
43292SOL    HW131773   8.066   5.430   7.273
43292SOL    HW231774   8.214   5.397   7.263
43293SOL     OW31775   6.610   9.728   0.257
43293SOL    HW131776   6.703   9.747   0.248
43293SOL    HW231777   6.606   9.633   0.271
43294SOL     OW31778   9.044   2.993   5.265
43294SOL    HW131779   9.088   2.939   5.198
43294SOL    HW231780   9.089   2.969   5.347
43295SOL     OW31781  10.115  12.856   7.555
43295SOL    HW131782  10.026  12.828   7.578
43295SOL    HW231783  10.157  12.872   7.640
43296SOL     OW31784  11.296   6.442   5.682
43296SOL    HW131785  11.267   6.524   5.723
43296SOL    HW231786  11.375   6.418   5.730
43297SOL     OW31787   0.484  10.007   6.111
43297SOL    HW131788   0.453  10.079   6.056
43297SOL    HW231789   0.577  10.000   6.091
43298SOL     OW31790  12.059  11.206  14.339
43298SOL    HW131791  11.993  11.270  14.315
43298SOL    HW231792  12.011  11.136  14.382
43299SOL     OW31793  13.830   8.670   1.784
43299SOL    HW131794  13.823   8.761   1.755
43299SOL    HW231795  13.751   8.655   1.836
43300SOL     OW31796  14.790   9.554   9.524
43300SOL    HW131797  14.748   9.604   9.594
43300SOL    HW231798  14.767   9.601   9.444
43301SOL     OW31799   6.492  12.158   7.856
43301SOL    HW131800   6.564  12.217   7.876
43301SOL    HW231801   6.452  12.195   7.777
43302SOL     OW31802  13.386   1.045   1.895
43302SOL    HW131803  13.304   1.081   1.860
43302SOL    HW231804  13.370   0.951   1.899
43303SOL     OW31805  12.355   6.321   7.025
43303SOL    HW131806  12.284   6.259   7.040
43303SOL    HW231807  12.368   6.364   7.110
43304SOL     OW31808   7.840  12.132   3.108
43304SOL    HW131809   7.864  12.215   3.067
43304SOL    HW231810   7.878  12.065   3.052
43305SOL     OW31811  12.807   2.333   7.776
43305SOL    HW131812  12.785   2.357   7.866
43305SOL    HW231813  12.794   2.238   7.772
43306SOL     OW31814   3.999  12.353   8.447
43306SOL    HW131815   3.921  12.338   8.501
43306SOL    HW231816   4.007  12.274   8.393
43307SOL     OW31817  11.366   7.593   8.322
43307SOL    HW131818  11.312   7.553   8.391
43307SOL    HW231819  11.455   7.588   8.356
43308SOL     OW31820   6.025  12.245  10.532
43308SOL    HW131821   5.954  12.287  10.483
43308SOL    HW231822   6.006  12.151  10.526
43309SOL     OW31823  10.600   0.119   5.518
43309SOL    HW131824  10.571   0.162   5.438
43309SOL    HW231825  10.523   0.071   5.549
43310SOL     OW31826   0.873   8.159   9.914
43310SOL    HW131827   0.937   8.092   9.889
43310SOL    HW231828   0.791   8.130   9.874
43311SOL     OW31829   8.005  12.637  14.224
43311SOL    HW131830   8.077  12.609  14.167
43311SOL    HW231831   7.971  12.715  14.181
43312SOL     OW31832   8.976   2.712   8.835
43312SOL    HW131833   8.952   2.777   8.901
43312SOL    HW231834   9.047   2.752   8.786
43313SOL     OW31835  11.389  14.603   8.246
43313SOL    HW131836  11.342  14.536   8.295
43313SOL    HW231837  11.460  14.630   8.304
43314SOL     OW31838   8.634   4.728   3.053
43314SOL    HW131839   8.583   4.746   3.132
43314SOL    HW231840   8.589   4.655   3.011
43315SOL     OW31841   1.097   3.180   2.039
43315SOL    HW131842   1.111   3.226   1.956
43315SOL    HW231843   1.182   3.180   2.082
43316SOL     OW31844   5.724   5.300  14.269
43316SOL    HW131845   5.637   5.285  14.233
43316SOL    HW231846   5.779   5.234  14.228
43317SOL     OW31847   9.949  11.810   6.362
43317SOL    HW131848   9.909  11.815   6.449
43317SOL    HW231849  10.023  11.871   6.366
43318SOL     OW31850   3.715  12.628  11.753
43318SOL    HW131851   3.623  12.643  11.731
43318SOL    HW231852   3.720  12.649  11.847
43319SOL     OW31853  13.748  13.896   2.786
43319SOL    HW131854  13.785  13.809   2.795
43319SOL    HW231855  13.817  13.955   2.815
43320SOL     OW31856   8.363   2.258   1.682
43320SOL    HW131857   8.429   2.195   1.711
43320SOL    HW231858   8.352   2.239   1.589
43321SOL     OW31859   7.560   1.308  13.878
43321SOL    HW131860   7.616   1.240  13.916
43321SOL    HW231861   7.612   1.388  13.882
43322SOL     OW31862  13.094   5.365  13.943
43322SOL    HW131863  13.061   5.410  13.865
43322SOL    HW231864  13.185   5.394  13.950
43323SOL     OW31865  10.142   9.532   0.678
43323SOL    HW131866  10.148   9.623   0.707
43323SOL    HW231867  10.107   9.484   0.753
43324SOL     OW31868   7.887  10.221  11.779
43324SOL    HW131869   7.971  10.178  11.763
43324SOL    HW231870   7.894  10.254  11.869
43325SOL     OW31871   3.322  13.031   2.116
43325SOL    HW131872   3.242  13.072   2.150
43325SOL    HW231873   3.389  13.052   2.180
43326SOL     OW31874  12.034   4.778  13.795
43326SOL    HW131875  11.975   4.829  13.738
43326SOL    HW231876  12.054   4.699  13.745
43327SOL     OW31877  14.164  11.349  11.698
43327SOL    HW131878  14.106  11.369  11.624
43327SOL    HW231879  14.201  11.434  11.722
43328SOL     OW31880   9.410   9.832   4.511
43328SOL    HW131881   9.364   9.778   4.447
43328SOL    HW231882   9.379   9.921   4.494
43329SOL     OW31883  12.217   8.664   1.273
43329SOL    HW131884  12.260   8.578   1.269
43329SOL    HW231885  12.266   8.712   1.339
43330SOL     OW31886   6.894  12.353  12.828
43330SOL    HW131887   6.939  12.397  12.901
43330SOL    HW231888   6.959  12.350  12.758
43331SOL     OW31889   3.277   5.318  13.932
43331SOL    HW131890   3.260   5.364  13.850
43331SOL    HW231891   3.347   5.368  13.973
43332SOL     OW31892   6.841  12.603   4.268
43332SOL    HW131893   6.776  12.535   4.286
43332SOL    HW231894   6.818  12.636   4.181
43333SOL     OW31895   6.465  10.776  10.346
43333SOL    HW131896   6.497  10.809  10.430
43333SOL    HW231897   6.463  10.854  10.290
43334SOL     OW31898   3.192   6.394  14.288
43334SOL    HW131899   3.116   6.450  14.307
43334SOL    HW231900   3.173   6.312  14.333
43335SOL     OW31901  14.250   8.952   9.828
43335SOL    HW131902  14.221   8.862   9.846
43335SOL    HW231903  14.209   8.974   9.745
43336SOL     OW31904  10.249   5.092   1.623
43336SOL    HW131905  10.173   5.151   1.622
43336SOL    HW231906  10.319   5.143   1.581
43337SOL     OW31907   0.275   7.528   7.467
43337SOL    HW131908   0.221   7.593   7.513
43337SOL    HW231909   0.261   7.547   7.374
43338SOL     OW31910  11.196   3.077  14.481
43338SOL    HW131911  11.114   3.050  14.524
43338SOL    HW231912  11.265   3.052  14.542
43339SOL     OW31913  11.081  13.106  10.506
43339SOL    HW131914  11.079  13.052  10.427
43339SOL    HW231915  11.151  13.169  10.490
43340SOL     OW31916  10.491  10.832   4.411
43340SOL    HW131917  10.514  10.820   4.319
43340SOL    HW231918  10.558  10.782   4.459
43341SOL     OW31919   6.979  14.522  13.444
43341SOL    HW131920   7.055  14.541  13.499
43341SOL    HW231921   6.904  14.552  13.496
43342SOL     OW31922  12.768   0.237   1.712
43342SOL    HW131923  12.794   0.298   1.643
43342SOL    HW231924  12.798   0.279   1.793
43343SOL     OW31925   2.169   2.080   2.504
43343SOL    HW131926   2.238   2.131   2.546
43343SOL    HW231927   2.141   2.133   2.429
43344SOL     OW31928   8.877  14.308  11.454
43344SOL    HW131929   8.947  14.278  11.396
43344SOL    HW231930   8.841  14.229  11.492
43345SOL     OW31931  14.658   5.189  13.611
43345SOL    HW131932  14.570   5.212  13.643
43345SOL    HW231933  14.643   5.157  13.522
43346SOL     OW31934   3.305   5.900   8.205
43346SOL    HW131935   3.347   5.962   8.265
43346SOL    HW231936   3.342   5.921   8.120
43347SOL     OW31937  12.711   4.141  13.995
43347SOL    HW131938  12.664   4.189  14.064
43347SOL    HW231939  12.655   4.066  13.976
43348SOL     OW31940   0.873   4.135   8.460
43348SOL    HW131941   0.837   4.092   8.382
43348SOL    HW231942   0.935   4.199   8.426
43349SOL     OW31943   5.468  10.141  12.062
43349SOL    HW131944   5.478  10.078  11.991
43349SOL    HW231945   5.373  10.145  12.077
43350SOL     OW31946   3.535   4.119  13.892
43350SOL    HW131947   3.540   4.207  13.855
43350SOL    HW231948   3.618   4.078  13.868
43351SOL     OW31949   0.088   4.682   8.034
43351SOL    HW131950   0.009   4.710   7.988
43351SOL    HW231951   0.076   4.711   8.124
43352SOL     OW31952  11.750   8.462  13.870
43352SOL    HW131953  11.818   8.521  13.837
43352SOL    HW231954  11.781   8.375  13.847
43353SOL     OW31955  11.526   2.354  10.231
43353SOL    HW131956  11.475   2.304  10.294
43353SOL    HW231957  11.543   2.292  10.159
43354SOL     OW31958   0.678   8.379   5.924
43354SOL    HW131959   0.627   8.358   5.846
43354SOL    HW231960   0.613   8.381   5.995
43355SOL     OW31961   4.263   3.463   6.759
43355SOL    HW131962   4.318   3.456   6.836
43355SOL    HW231963   4.184   3.507   6.790
43356SOL     OW31964   2.886  13.575  14.433
43356SOL    HW131965   2.922  13.664  14.426
43356SOL    HW231966   2.915  13.531  14.353
43357SOL     OW31967   3.744   0.708   2.926
43357SOL    HW131968   3.834   0.740   2.926
43357SOL    HW231969   3.703   0.753   3.000
43358SOL     OW31970  11.195  14.023   6.228
43358SOL    HW131971  11.272  13.977   6.262
43358SOL    HW231972  11.126  14.004   6.292
43359SOL     OW31973  12.378   3.280   1.855
43359SOL    HW131974  12.304   3.289   1.915
43359SOL    HW231975  12.421   3.199   1.881
43360SOL     OW31976   4.521   4.593   1.068
43360SOL    HW131977   4.615   4.574   1.062
43360SOL    HW231978   4.478   4.519   1.024
43361SOL     OW31979   8.110   5.517   3.577
43361SOL    HW131980   8.048   5.576   3.533
43361SOL    HW231981   8.058   5.475   3.646
43362SOL     OW31982   5.937   2.986   0.787
43362SOL    HW131983   5.910   2.939   0.708
43362SOL    HW231984   5.932   3.078   0.764
43363SOL     OW31985   5.686   3.356   6.731
43363SOL    HW131986   5.614   3.295   6.723
43363SOL    HW231987   5.674   3.418   6.659
43364SOL     OW31988   7.999   8.612   8.689
43364SOL    HW131989   8.064   8.580   8.627
43364SOL    HW231990   8.000   8.548   8.760
43365SOL     OW31991  11.029  12.522   4.045
43365SOL    HW131992  11.107  12.564   4.081
43365SOL    HW231993  10.990  12.588   3.987
43366SOL     OW31994   5.562   1.655   5.035
43366SOL    HW131995   5.512   1.698   4.965
43366SOL    HW231996   5.570   1.564   5.006
43367SOL     OW31997  14.203   1.721   1.306
43367SOL    HW131998  14.271   1.781   1.278
43367SOL    HW231999  14.224   1.701   1.397
43368SOL     OW32000   9.948  10.993   9.029
43368SOL    HW132001   9.941  10.940   9.109
43368SOL    HW232002  10.021  10.953   8.981
43369SOL     OW32003  13.338   6.938  14.525
43369SOL    HW132004  13.295   6.998  14.463
43369SOL    HW232005  13.293   6.954  14.608
43370SOL     OW32006   5.812   8.896  13.682
43370SOL    HW132007   5.766   8.822  13.724
43370SOL    HW232008   5.776   8.900  13.594
43371SOL     OW32009   7.499  13.802   5.684
43371SOL    HW132010   7.547  13.719   5.685
43371SOL    HW232011   7.412  13.780   5.716
43372SOL     OW32012   9.573  10.210   6.050
43372SOL    HW132013   9.642  10.174   6.105
43372SOL    HW232014   9.501  10.148   6.057
43373SOL     OW32015   3.465   1.138   9.888
43373SOL    HW132016   3.374   1.150   9.915
43373SOL    HW232017   3.513   1.207   9.935
43374SOL     OW32018   1.083   1.902   5.613
43374SOL    HW132019   1.038   1.963   5.556
43374SOL    HW232020   1.130   1.843   5.554
43375SOL     OW32021   4.558   6.995  12.809
43375SOL    HW132022   4.495   7.002  12.881
43375SOL    HW232023   4.609   6.917  12.830
43376SOL     OW32024  13.813   9.749   9.692
43376SOL    HW132025  13.879   9.697   9.738
43376SOL    HW232026  13.862   9.823   9.656
43377SOL     OW32027  13.022   9.088   0.808
43377SOL    HW132028  12.971   9.082   0.889
43377SOL    HW232029  13.097   9.031   0.823
43378SOL     OW32030   2.690   1.021   0.860
43378SOL    HW132031   2.643   1.026   0.777
43378SOL    HW232032   2.762   1.083   0.850
43379SOL     OW32033  10.503   9.972  14.330
43379SOL    HW132034  10.453   9.985  14.410
43379SOL    HW232035  10.584   9.930  14.358
43380SOL     OW32036   5.288   8.515   2.920
43380SOL    HW132037   5.243   8.569   2.985
43380SOL    HW232038   5.225   8.447   2.898
43381SOL     OW32039  13.145   7.715   9.416
43381SOL    HW132040  13.135   7.798   9.369
43381SOL    HW232041  13.232   7.720   9.455
43382SOL     OW32042  13.039   4.143   3.556
43382SOL    HW132043  13.038   4.206   3.484
43382SOL    HW232044  13.035   4.196   3.635
43383SOL     OW32045   2.528  12.105   9.628
43383SOL    HW132046   2.458  12.106   9.563
43383SOL    HW232047   2.589  12.038   9.597
43384SOL     OW32048   9.075   7.618  11.764
43384SOL    HW132049   9.127   7.654  11.692
43384SOL    HW232050   8.991   7.597  11.725
43385SOL     OW32051   5.787  14.584  13.169
43385SOL    HW132052   5.721  14.622  13.111
43385SOL    HW232053   5.808  14.500  13.128
43386SOL     OW32054  14.507   9.999   3.952
43386SOL    HW132055  14.597  10.021   3.976
43386SOL    HW232056  14.516   9.918   3.901
43387SOL     OW32057   1.664  11.463   0.531
43387SOL    HW132058   1.630  11.466   0.442
43387SOL    HW232059   1.621  11.535   0.576
43388SOL     OW32060  14.619   7.599  12.258
43388SOL    HW132061  14.551   7.652  12.217
43388SOL    HW232062  14.579   7.565  12.338
43389SOL     OW32063  10.816  13.295  11.313
43389SOL    HW132064  10.775  13.251  11.238
43389SOL    HW232065  10.753  13.361  11.340
43390SOL     OW32066   1.538   8.438   1.931
43390SOL    HW132067   1.510   8.365   1.987
43390SOL    HW232068   1.461   8.456   1.877
43391SOL     OW32069   5.500   8.768   5.763
43391SOL    HW132070   5.591   8.798   5.769
43391SOL    HW232071   5.495   8.694   5.823
43392SOL     OW32072   7.599   0.526   4.112
43392SOL    HW132073   7.504   0.530   4.105
43392SOL    HW232074   7.621   0.436   4.088
43393SOL     OW32075  10.548   0.711   2.522
43393SOL    HW132076  10.638   0.700   2.552
43393SOL    HW232077  10.500   0.738   2.601
43394SOL     OW32078   7.032   1.942   7.015
43394SOL    HW132079   7.058   1.860   7.057
43394SOL    HW232080   6.943   1.925   6.983
43395SOL     OW32081  12.947   9.718   4.554
43395SOL    HW132082  12.969   9.636   4.510
43395SOL    HW232083  12.939   9.782   4.484
43396SOL     OW32084  10.629  10.489   9.129
43396SOL    HW132085  10.697  10.463   9.192
43396SOL    HW232086  10.643  10.431   9.054
43397SOL     OW32087   8.413   5.456   4.969
43397SOL    HW132088   8.416   5.539   4.921
43397SOL    HW232089   8.493   5.456   5.021
43398SOL     OW32090   4.519   7.972   9.713
43398SOL    HW132091   4.570   8.040   9.670
43398SOL    HW232092   4.543   7.979   9.805
43399SOL     OW32093  11.014  12.668   6.757
43399SOL    HW132094  11.066  12.651   6.836
43399SOL    HW232095  11.037  12.757   6.732
43400SOL     OW32096   3.201  10.924   7.151
43400SOL    HW132097   3.112  10.932   7.186
43400SOL    HW232098   3.215  10.830   7.143
43401SOL     OW32099   6.716  14.376  10.136
43401SOL    HW132100   6.710  14.432  10.212
43401SOL    HW232101   6.708  14.435  10.061
43402SOL     OW32102   1.345   9.424   4.519
43402SOL    HW132103   1.321   9.509   4.555
43402SOL    HW232104   1.439   9.416   4.537
43403SOL     OW32105  12.136   6.330  11.242
43403SOL    HW132106  12.199   6.346  11.171
43403SOL    HW232107  12.108   6.240  11.229
43404SOL     OW32108   9.781  11.921  13.734
43404SOL    HW132109   9.732  11.966  13.803
43404SOL    HW232110   9.798  11.834  13.770
43405SOL     OW32111   0.452   0.903   9.394
43405SOL    HW132112   0.403   0.967   9.343
43405SOL    HW232113   0.447   0.935   9.484
43406SOL     OW32114   9.696   3.587   0.863
43406SOL    HW132115   9.612   3.542   0.865
43406SOL    HW232116   9.678   3.671   0.820
43407SOL     OW32117   2.905   1.271   1.995
43407SOL    HW132118   2.877   1.358   1.965
43407SOL    HW232119   2.860   1.210   1.937
43408SOL     OW32120  13.440   8.013   4.442
43408SOL    HW132121  13.512   7.987   4.499
43408SOL    HW232122  13.383   8.067   4.497
43409SOL     OW32123   5.539   5.832   9.114
43409SOL    HW132124   5.567   5.822   9.205
43409SOL    HW232125   5.447   5.856   9.121
43410SOL     OW32126  12.904   0.572   8.844
43410SOL    HW132127  12.875   0.528   8.924
43410SOL    HW232128  12.963   0.641   8.874
43411SOL     OW32129   3.215  14.674  14.557
43411SOL    HW132130   3.217  14.690  14.463
43411SOL    HW232131   3.139  14.723  14.588
43412SOL     OW32132   9.558  14.490   5.316
43412SOL    HW132133   9.634  14.543   5.341
43412SOL    HW232134   9.589  14.400   5.320
43413SOL     OW32135  11.969   8.096   2.825
43413SOL    HW132136  11.938   8.186   2.837
43413SOL    HW232137  12.030   8.101   2.751
43414SOL     OW32138   1.145   4.527  14.587
43414SOL    HW132139   1.232   4.565  14.577
43414SOL    HW232140   1.100   4.547  14.505
43415SOL     OW32141   8.168   9.660   8.185
43415SOL    HW132142   8.089   9.614   8.211
43415SOL    HW232143   8.144   9.753   8.190
43416SOL     OW32144   0.545  11.931  12.265
43416SOL    HW132145   0.451  11.933  12.281
43416SOL    HW232146   0.580  12.002  12.318
43417SOL     OW32147   3.120   4.329  10.916
43417SOL    HW132148   3.119   4.238  10.884
43417SOL    HW232149   3.149   4.380  10.841
43418SOL     OW32150   0.468   9.264  13.689
43418SOL    HW132151   0.425   9.182  13.712
43418SOL    HW232152   0.538   9.273  13.752
43419SOL     OW32153   9.544   1.228   9.575
43419SOL    HW132154   9.631   1.263   9.595
43419SOL    HW232155   9.526   1.166   9.645
43420SOL     OW32156   2.510   0.193   6.752
43420SOL    HW132157   2.509   0.245   6.672
43420SOL    HW232158   2.422   0.203   6.788
43421SOL     OW32159  10.408   6.424   1.092
43421SOL    HW132160  10.483   6.454   1.041
43421SOL    HW232161  10.440   6.348   1.140
43422SOL     OW32162   3.726   5.075   2.131
43422SOL    HW132163   3.739   5.071   2.226
43422SOL    HW232164   3.696   5.164   2.115
43423SOL     OW32165   5.846  12.867  13.455
43423SOL    HW132166   5.789  12.840  13.382
43423SOL    HW232167   5.792  12.856  13.533
43424SOL     OW32168   5.054  14.722   8.863
43424SOL    HW132169   5.117  14.789   8.837
43424SOL    HW232170   4.968  14.760   8.844
43425SOL     OW32171  14.682  11.721  13.888
43425SOL    HW132172  14.633  11.786  13.837
43425SOL    HW232173  14.661  11.743  13.979
43426SOL     OW32174  11.032   2.379   7.084
43426SOL    HW132175  11.044   2.348   7.174
43426SOL    HW232176  11.110   2.431   7.065
43427SOL     OW32177   9.051  14.531  11.870
43427SOL    HW132178   9.034  14.624  11.883
43427SOL    HW232179   9.137  14.529  11.828
43428SOL     OW32180  13.504   4.319   4.708
43428SOL    HW132181  13.516   4.258   4.635
43428SOL    HW232182  13.502   4.263   4.786
43429SOL     OW32183   3.915  14.836   6.408
43429SOL    HW132184   3.896  14.763   6.468
43429SOL    HW232185   3.984   0.016   6.451
43430SOL     OW32186  14.033   8.134  14.476
43430SOL    HW132187  14.019   8.226  14.456
43430SOL    HW232188  13.993   8.087  14.403
43431SOL     OW32189  12.506   7.358   2.946
43431SOL    HW132190  12.582   7.332   2.998
43431SOL    HW232191  12.490   7.449   2.970
43432SOL     OW32192   2.529   5.798   2.173
43432SOL    HW132193   2.514   5.703   2.170
43432SOL    HW232194   2.624   5.806   2.181
43433SOL     OW32195   4.334   4.201   9.669
43433SOL    HW132196   4.363   4.247   9.748
43433SOL    HW232197   4.268   4.139   9.701
43434SOL     OW32198   7.497  13.404   8.952
43434SOL    HW132199   7.457  13.349   8.885
43434SOL    HW232200   7.441  13.392   9.029
43435SOL     OW32201   4.171  12.312  12.218
43435SOL    HW132202   4.183  12.375  12.289
43435SOL    HW232203   4.154  12.229  12.261
43436SOL     OW32204  12.557   8.459   9.841
43436SOL    HW132205  12.528   8.376   9.804
43436SOL    HW232206  12.610   8.434   9.917
43437SOL     OW32207  11.348   0.374  11.998
43437SOL    HW132208  11.377   0.373  12.089
43437SOL    HW232209  11.410   0.318  11.952
43438SOL     OW32210   3.898   4.619   2.018
43438SOL    HW132211   3.847   4.588   2.093
43438SOL    HW232212   3.965   4.552   2.005
43439SOL     OW32213   5.204  13.853  12.449
43439SOL    HW132214   5.175  13.861  12.358
43439SOL    HW232215   5.123  13.845  12.500
43440SOL     OW32216   1.685  10.220   9.579
43440SOL    HW132217   1.666  10.278   9.652
43440SOL    HW232218   1.727  10.143   9.618
43441SOL     OW32219   1.220  10.946  13.417
43441SOL    HW132220   1.169  11.014  13.375
43441SOL    HW232221   1.156  10.878  13.440
43442SOL     OW32222   6.759   7.420   1.327
43442SOL    HW132223   6.695   7.373   1.380
43442SOL    HW232224   6.707   7.476   1.270
43443SOL     OW32225   9.130   4.656   6.815
43443SOL    HW132226   9.079   4.632   6.738
43443SOL    HW232227   9.105   4.591   6.881
43444SOL     OW32228   7.891   4.444  12.288
43444SOL    HW132229   7.845   4.528  12.298
43444SOL    HW232230   7.918   4.442  12.196
43445SOL     OW32231   9.250   1.715  14.412
43445SOL    HW132232   9.239   1.683  14.322
43445SOL    HW232233   9.190   1.790  14.418
43446SOL     OW32234   1.805   5.198   2.592
43446SOL    HW132235   1.715   5.173   2.612
43446SOL    HW232236   1.859   5.134   2.638
43447SOL     OW32237   2.183   2.661   2.340
43447SOL    HW132238   2.104   2.616   2.370
43447SOL    HW232239   2.155   2.750   2.322
43448SOL     OW32240   9.530   1.851  14.271
43448SOL    HW132241   9.537   1.866  14.365
43448SOL    HW232242   9.596   1.909  14.232
43449SOL     OW32243   4.004   5.363   6.189
43449SOL    HW132244   3.953   5.291   6.227
43449SOL    HW232245   4.094   5.333   6.191
43450SOL     OW32246   0.787  12.174   2.782
43450SOL    HW132247   0.861  12.114   2.773
43450SOL    HW232248   0.763  12.168   2.875
43451SOL     OW32249  12.655  14.598   5.121
43451SOL    HW132250  12.737  14.623   5.077
43451SOL    HW232251  12.600  14.564   5.050
43452SOL     OW32252   8.887   8.957   0.056
43452SOL    HW132253   8.937   9.037   0.070
43452SOL    HW232254   8.879   8.917   0.142
43453SOL     OW32255   7.628  13.114   7.236
43453SOL    HW132256   7.610  13.022   7.253
43453SOL    HW232257   7.711  13.131   7.281
43454SOL     OW32258   1.978  11.896   3.987
43454SOL    HW132259   2.037  11.842   3.933
43454SOL    HW232260   2.036  11.940   4.049
43455SOL     OW32261   5.953   1.134   8.999
43455SOL    HW132262   5.964   1.044   9.029
43455SOL    HW232263   5.994   1.136   8.913
43456SOL     OW32264   6.355   0.545   6.459
43456SOL    HW132265   6.434   0.513   6.416
43456SOL    HW232266   6.369   0.639   6.469
43457SOL     OW32267  13.761   7.170  11.388
43457SOL    HW132268  13.751   7.256  11.348
43457SOL    HW232269  13.817   7.121  11.328
43458SOL     OW32270  14.186   5.331  10.199
43458SOL    HW132271  14.175   5.236  10.206
43458SOL    HW232272  14.253   5.342  10.132
43459SOL     OW32273   3.910   6.296  13.310
43459SOL    HW132274   3.840   6.293  13.245
43459SOL    HW232275   3.934   6.389  13.314
43460SOL     OW32276   0.976   6.483  13.374
43460SOL    HW132277   1.055   6.430  13.377
43460SOL    HW232278   0.911   6.431  13.421
43461SOL     OW32279   0.733   9.038  11.332
43461SOL    HW132280   0.741   9.129  11.304
43461SOL    HW232281   0.704   9.043  11.423
43462SOL     OW32282  13.263   1.709   9.564
43462SOL    HW132283  13.185   1.684   9.514
43462SOL    HW232284  13.320   1.751   9.501
43463SOL     OW32285   2.285  12.310   5.729
43463SOL    HW132286   2.235  12.251   5.674
43463SOL    HW232287   2.264  12.283   5.819
43464SOL     OW32288  10.503   3.736   3.482
43464SOL    HW132289  10.560   3.664   3.454
43464SOL    HW232290  10.514   3.739   3.577
43465SOL     OW32291  10.977   5.283  11.283
43465SOL    HW132292  10.929   5.283  11.365
43465SOL    HW232293  11.049   5.345  11.297
43466SOL     OW32294   1.352   1.042   6.522
43466SOL    HW132295   1.339   1.011   6.612
43466SOL    HW232296   1.421   0.986   6.487
43467SOL     OW32297   4.032  12.197  13.008
43467SOL    HW132298   3.992  12.111  13.025
43467SOL    HW232299   4.123  12.177  12.986
43468SOL     OW32300  10.843   5.313   0.260
43468SOL    HW132301  10.826   5.297   0.353
43468SOL    HW232302  10.840   5.408   0.251
43469SOL     OW32303   1.755   4.006   9.364
43469SOL    HW132304   1.701   4.013   9.443
43469SOL    HW232305   1.718   3.931   9.317
43470SOL     OW32306  13.935  11.137  11.635
43470SOL    HW132307  13.867  11.184  11.683
43470SOL    HW232308  13.917  11.154  11.543
43471SOL     OW32309  12.802  13.293   2.568
43471SOL    HW132310  12.763  13.293   2.480
43471SOL    HW232311  12.790  13.383   2.599
43472SOL     OW32312   2.148  12.700   6.256
43472SOL    HW132313   2.140  12.636   6.185
43472SOL    HW232314   2.082  12.766   6.236
43473SOL     OW32315  10.470  12.600   4.932
43473SOL    HW132316  10.412  12.656   4.880
43473SOL    HW232317  10.438  12.512   4.916
43474SOL     OW32318   7.264  10.179  11.505
43474SOL    HW132319   7.286  10.098  11.552
43474SOL    HW232320   7.188  10.156  11.453
43475SOL     OW32321   7.901  11.681   5.878
43475SOL    HW132322   7.965  11.698   5.946
43475SOL    HW232323   7.864  11.595   5.899
43476SOL     OW32324   9.134  13.227  14.057
43476SOL    HW132325   9.178  13.247  13.974
43476SOL    HW232326   9.205  13.205  14.117
43477SOL     OW32327   4.400   5.759   9.464
43477SOL    HW132328   4.366   5.697   9.399
43477SOL    HW232329   4.461   5.708   9.516
43478SOL     OW32330  10.384   4.320  14.827
43478SOL    HW132331  10.349   4.406  14.847
43478SOL    HW232332  10.331   4.260   0.010
43479SOL     OW32333  12.733   1.434  11.688
43479SOL    HW132334  12.740   1.352  11.736
43479SOL    HW232335  12.660   1.420  11.627
43480SOL     OW32336  14.728  13.795  13.777
43480SOL    HW132337  14.693  13.708  13.795
43480SOL    HW232338  14.821  13.789  13.798
43481SOL     OW32339  11.271   9.420   7.649
43481SOL    HW132340  11.326   9.353   7.691
43481SOL    HW232341  11.291   9.500   7.697
43482SOL     OW32342  13.341  14.354   3.001
43482SOL    HW132343  13.317  14.408   3.076
43482SOL    HW232344  13.425  14.315   3.025
43483SOL     OW32345   0.417   4.208  12.006
43483SOL    HW132346   0.341   4.255  12.041
43483SOL    HW232347   0.481   4.208  12.077
43484SOL     OW32348   2.197   9.608   4.409
43484SOL    HW132349   2.137   9.549   4.454
43484SOL    HW232350   2.207   9.571   4.321
43485SOL     OW32351   8.613   2.112  11.065
43485SOL    HW132352   8.539   2.159  11.027
43485SOL    HW232353   8.686   2.172  11.058
43486SOL     OW32354   4.773  11.865   2.702
43486SOL    HW132355   4.724  11.847   2.783
43486SOL    HW232356   4.806  11.780   2.675
43487SOL     OW32357  12.006   1.136   0.979
43487SOL    HW132358  11.996   1.043   0.959
43487SOL    HW232359  11.926   1.160   1.026
43488SOL     OW32360  10.082   4.597   6.172
43488SOL    HW132361  10.054   4.689   6.168
43488SOL    HW232362  10.081   4.568   6.081
43489SOL     OW32363   5.396  10.158   3.501
43489SOL    HW132364   5.404  10.065   3.478
43489SOL    HW232365   5.306  10.180   3.478
43490SOL     OW32366  10.279  12.208   7.694
43490SOL    HW132367  10.220  12.278   7.724
43490SOL    HW232368  10.305  12.162   7.773
43491SOL     OW32369   5.077   4.405   6.877
43491SOL    HW132370   5.034   4.384   6.794
43491SOL    HW232371   5.163   4.363   6.871
43492SOL     OW32372   3.990   0.857  12.055
43492SOL    HW132373   3.987   0.872  12.150
43492SOL    HW232374   3.909   0.896  12.022
43493SOL     OW32375   3.733  13.256   6.283
43493SOL    HW132376   3.701  13.224   6.367
43493SOL    HW232377   3.822  13.287   6.302
43494SOL     OW32378  12.339  12.888  12.258
43494SOL    HW132379  12.279  12.882  12.333
43494SOL    HW232380  12.406  12.822  12.277
43495SOL     OW32381   2.003  10.855   2.584
43495SOL    HW132382   2.056  10.779   2.610
43495SOL    HW232383   1.922  10.846   2.635
43496SOL     OW32384  10.365  10.724   5.312
43496SOL    HW132385  10.332  10.637   5.288
43496SOL    HW232386  10.444  10.735   5.258
43497SOL     OW32387   8.845   1.920   7.480
43497SOL    HW132388   8.937   1.899   7.492
43497SOL    HW232389   8.821   1.969   7.559
43498SOL     OW32390   4.522   1.051   6.328
43498SOL    HW132391   4.515   1.146   6.340
43498SOL    HW232392   4.615   1.036   6.312
43499SOL     OW32393   0.594  12.437  12.653
43499SOL    HW132394   0.566  12.437  12.561
43499SOL    HW232395   0.687  12.413  12.649
43500SOL     OW32396   8.578   3.578  13.338
43500SOL    HW132397   8.567   3.488  13.368
43500SOL    HW232398   8.492   3.603  13.306
43501SOL     OW32399   8.123   6.997   2.289
43501SOL    HW132400   8.192   6.938   2.320
43501SOL    HW232401   8.157   7.031   2.206
43502SOL     OW32402  12.525   1.744   5.835
43502SOL    HW132403  12.437   1.746   5.798
43502SOL    HW232404  12.517   1.788   5.920
43503SOL     OW32405   5.031   9.545  14.115
43503SOL    HW132406   4.964   9.532  14.182
43503SOL    HW232407   5.016   9.634  14.083
43504SOL     OW32408  10.964   4.008   2.354
43504SOL    HW132409  11.011   3.965   2.282
43504SOL    HW232410  10.873   3.980   2.343
43505SOL     OW32411  14.176  10.925   6.778
43505SOL    HW132412  14.185  11.017   6.754
43505SOL    HW232413  14.142  10.926   6.867
43506SOL     OW32414   4.523   6.085   7.917
43506SOL    HW132415   4.561   6.158   7.867
43506SOL    HW232416   4.560   6.094   8.005
43507SOL     OW32417   3.193   0.961  13.804
43507SOL    HW132418   3.279   0.995  13.778
43507SOL    HW232419   3.143   0.955  13.723
43508SOL     OW32420   6.881   6.881   5.674
43508SOL    HW132421   6.958   6.937   5.683
43508SOL    HW232422   6.834   6.890   5.756
43509SOL     OW32423   5.682   8.815   1.565
43509SOL    HW132424   5.610   8.818   1.628
43509SOL    HW232425   5.646   8.857   1.487
43510SOL     OW32426   0.204   9.752  14.355
43510SOL    HW132427   0.294   9.786  14.355
43510SOL    HW232428   0.159   9.803  14.288
43511SOL     OW32429   5.651   1.317  13.494
43511SOL    HW132430   5.629   1.360  13.412
43511SOL    HW232431   5.601   1.364  13.560
43512SOL     OW32432   5.346  10.100   5.562
43512SOL    HW132433   5.254  10.087   5.541
43512SOL    HW232434   5.389  10.019   5.535
43513SOL     OW32435   2.921   9.895   2.193
43513SOL    HW132436   2.996   9.941   2.231
43513SOL    HW232437   2.960   9.819   2.149
43514SOL     OW32438   1.568  13.941  12.403
43514SOL    HW132439   1.600  14.023  12.441
43514SOL    HW232440   1.644  13.902  12.360
43515SOL     OW32441  11.339  10.084  11.760
43515SOL    HW132442  11.388  10.112  11.683
43515SOL    HW232443  11.254  10.126  11.751
43516SOL     OW32444   1.925   7.540  10.941
43516SOL    HW132445   1.892   7.603  10.877
43516SOL    HW232446   1.852   7.479  10.954
43517SOL     OW32447  12.035  11.003   4.598
43517SOL    HW132448  11.990  10.953   4.530
43517SOL    HW232449  12.055  11.087   4.556
43518SOL     OW32450  12.565   7.362  14.625
43518SOL    HW132451  12.481   7.407  14.621
43518SOL    HW232452  12.617   7.414  14.686
43519SOL     OW32453   9.279   2.038  12.730
43519SOL    HW132454   9.248   2.031  12.820
43519SOL    HW232455   9.365   2.079  12.737
43520SOL     OW32456   0.220   4.669   4.943
43520SOL    HW132457   0.259   4.756   4.951
43520SOL    HW232458   0.182   4.652   5.030
43521SOL     OW32459   3.518  12.304   0.442
43521SOL    HW132460   3.545  12.237   0.504
43521SOL    HW232461   3.488  12.256   0.365
43522SOL     OW32462   3.676   1.633  13.293
43522SOL    HW132463   3.748   1.570  13.304
43522SOL    HW232464   3.711   1.698  13.232
43523SOL     OW32465   7.653  13.066   2.072
43523SOL    HW132466   7.647  12.971   2.078
43523SOL    HW232467   7.731  13.088   2.122
43524SOL     OW32468   7.738  14.642   0.066
43524SOL    HW132469   7.807  14.637   0.131
43524SOL    HW232470   7.778  14.609  14.855
43525SOL     OW32471  14.671   5.456   5.831
43525SOL    HW132472  14.742   5.394   5.813
43525SOL    HW232473  14.659   5.452   5.926
43526SOL     OW32474   8.292   9.759   9.631
43526SOL    HW132475   8.197   9.754   9.624
43526SOL    HW232476   8.312   9.715   9.714
43527SOL     OW32477   3.048   4.921   6.179
43527SOL    HW132478   3.101   4.845   6.157
43527SOL    HW232479   3.065   4.984   6.109
43528SOL     OW32480   6.024   9.516  12.603
43528SOL    HW132481   6.000   9.428  12.632
43528SOL    HW232482   6.100   9.538  12.657
43529SOL     OW32483   8.552   4.485  13.376
43529SOL    HW132484   8.594   4.487  13.289
43529SOL    HW232485   8.514   4.572  13.386
43530SOL     OW32486   8.923   5.528   0.035
43530SOL    HW132487   8.859   5.508   0.103
43530SOL    HW232488   8.944   5.444  14.865
43531SOL     OW32489  14.261   0.263   9.151
43531SOL    HW132490  14.192   0.303   9.099
43531SOL    HW232491  14.231   0.272   9.242
43532SOL     OW32492   9.343   1.837   3.013
43532SOL    HW132493   9.423   1.784   3.013
43532SOL    HW232494   9.374   1.928   3.017
43533SOL     OW32495   2.411   9.162   4.725
43533SOL    HW132496   2.455   9.093   4.774
43533SOL    HW232497   2.320   9.131   4.719
43534SOL     OW32498   1.792   1.134  11.410
43534SOL    HW132499   1.724   1.097  11.466
43534SOL    HW232500   1.748   1.149  11.326
43535SOL     OW32501   4.167   8.938   0.236
43535SOL    HW132502   4.101   8.902   0.296
43535SOL    HW232503   4.192   9.022   0.275
43536SOL     OW32504  14.590   2.573   9.938
43536SOL    HW132505  14.585   2.488   9.893
43536SOL    HW232506  14.622   2.633   9.871
43537SOL     OW32507   6.846   0.059  13.293
43537SOL    HW132508   6.845  14.841  13.255
43537SOL    HW232509   6.867   0.045  13.385
43538SOL     OW32510   9.208  12.464   5.596
43538SOL    HW132511   9.201  12.535   5.533
43538SOL    HW232512   9.301  12.459   5.617
43539SOL     OW32513  11.096   4.967   8.527
43539SOL    HW132514  11.081   5.011   8.443
43539SOL    HW232515  11.091   4.874   8.505
43540SOL     OW32516   5.516  10.632   6.498
43540SOL    HW132517   5.586  10.647   6.434
43540SOL    HW232518   5.560  10.591   6.572
43541SOL     OW32519   8.203   3.328   8.009
43541SOL    HW132520   8.249   3.372   8.080
43541SOL    HW232521   8.254   3.349   7.930
43542SOL     OW32522  11.197   6.656  14.843
43542SOL    HW132523  11.210   6.684   0.064
43542SOL    HW232524  11.103   6.646  14.833
43543SOL     OW32525   7.676   4.075   4.195
43543SOL    HW132526   7.725   3.999   4.166
43543SOL    HW232527   7.696   4.082   4.289
43544SOL     OW32528  12.540  14.410   2.077
43544SOL    HW132529  12.504  14.356   2.007
43544SOL    HW232530  12.597  14.351   2.126
43545SOL     OW32531   7.547  12.841  14.747
43545SOL    HW132532   7.480  12.838  14.814
43545SOL    HW232533   7.502  12.814  14.666
43546SOL     OW32534   5.345   3.227   2.112
43546SOL    HW132535   5.341   3.313   2.154
43546SOL    HW232536   5.255   3.193   2.118
43547SOL     OW32537  10.815  12.884   0.344
43547SOL    HW132538  10.891  12.852   0.393
43547SOL    HW232539  10.759  12.923   0.411
43548SOL     OW32540  14.642  13.050   4.376
43548SOL    HW132541  14.641  13.069   4.470
43548SOL    HW232542  14.734  13.061   4.350
43549SOL     OW32543   4.884  11.803  10.632
43549SOL    HW132544   4.885  11.739  10.561
43549SOL    HW232545   4.941  11.873  10.604
43550SOL     OW32546  10.835   8.948   8.818
43550SOL    HW132547  10.829   8.854   8.832
43550SOL    HW232548  10.765   8.986   8.871
43551SOL     OW32549   2.991  12.965  10.371
43551SOL    HW132550   2.985  12.953  10.276
43551SOL    HW232551   3.053  13.038  10.382
43552SOL     OW32552  12.958   8.717   4.201
43552SOL    HW132553  12.916   8.801   4.184
43552SOL    HW232554  12.927   8.660   4.132
43553SOL     OW32555  10.053  14.676  13.468
43553SOL    HW132556   9.958  14.684  13.474
43553SOL    HW232557  10.074  14.709  13.381
43554SOL     OW32558  13.885  14.241   8.853
43554SOL    HW132559  13.946  14.274   8.787
43554SOL    HW232560  13.918  14.274   8.936
43555SOL     OW32561  11.910   3.199  12.851
43555SOL    HW132562  11.843   3.142  12.812
43555SOL    HW232563  11.966   3.140  12.901
43556SOL     OW32564   2.777   2.792   5.577
43556SOL    HW132565   2.844   2.776   5.510
43556SOL    HW232566   2.736   2.706   5.590
43557SOL     OW32567   9.977   8.844   8.324
43557SOL    HW132568   9.882   8.839   8.333
43557SOL    HW232569  10.007   8.886   8.405
43558SOL     OW32570  10.647   1.161   3.142
43558SOL    HW132571  10.726   1.178   3.091
43558SOL    HW232572  10.679   1.122   3.224
43559SOL     OW32573   5.771   7.805   5.566
43559SOL    HW132574   5.812   7.883   5.528
43559SOL    HW232575   5.725   7.764   5.492
43560SOL     OW32576   4.555   2.213  10.757
43560SOL    HW132577   4.522   2.267  10.685
43560SOL    HW232578   4.476   2.178  10.798
43561SOL     OW32579  10.691   7.209   3.434
43561SOL    HW132580  10.625   7.180   3.497
43561SOL    HW232581  10.644   7.272   3.378
43562SOL     OW32582   3.119   9.366   8.842
43562SOL    HW132583   3.152   9.425   8.909
43562SOL    HW232584   3.189   9.303   8.829
43563SOL     OW32585   6.883   0.238   5.473
43563SOL    HW132586   6.877   0.243   5.378
43563SOL    HW232587   6.973   0.210   5.490
43564SOL     OW32588  12.280   3.761   6.867
43564SOL    HW132589  12.274   3.690   6.930
43564SOL    HW232590  12.365   3.750   6.825
43565SOL     OW32591  11.720  11.609   9.912
43565SOL    HW132592  11.725  11.702   9.934
43565SOL    HW232593  11.779  11.567   9.975
43566SOL     OW32594  10.126   3.537   7.853
43566SOL    HW132595  10.203   3.569   7.900
43566SOL    HW232596  10.053   3.588   7.890
43567SOL     OW32597  13.567  11.487  12.535
43567SOL    HW132598  13.623  11.410  12.548
43567SOL    HW232599  13.482  11.462  12.572
43568SOL     OW32600   8.427  12.294  14.017
43568SOL    HW132601   8.344  12.280  14.064
43568SOL    HW232602   8.473  12.360  14.068
43569SOL     OW32603  14.462   9.536  12.616
43569SOL    HW132604  14.373   9.526  12.584
43569SOL    HW232605  14.515   9.483  12.557
43570SOL     OW32606   7.546   8.809  11.970
43570SOL    HW132607   7.505   8.809  12.057
43570SOL    HW232608   7.542   8.718  11.941
43571SOL     OW32609  14.652  13.674  10.952
43571SOL    HW132610  14.716  13.624  10.901
43571SOL    HW232611  14.585  13.610  10.974
43572SOL     OW32612   5.682  12.326  12.047
43572SOL    HW132613   5.603  12.330  12.101
43572SOL    HW232614   5.737  12.397  12.079
43573SOL     OW32615   8.065   3.871  11.721
43573SOL    HW132616   8.096   3.888  11.810
43573SOL    HW232617   8.071   3.776  11.711
43574SOL     OW32618   2.424   7.188   4.793
43574SOL    HW132619   2.384   7.154   4.873
43574SOL    HW232620   2.503   7.136   4.781
43575SOL     OW32621   0.837   4.960   2.956
43575SOL    HW132622   0.911   4.926   3.006
43575SOL    HW232623   0.761   4.939   3.010
43576SOL     OW32624  10.890   5.126  14.546
43576SOL    HW132625  10.870   5.212  14.583
43576SOL    HW232626  10.963   5.143  14.486
43577SOL     OW32627   0.703  13.872   3.786
43577SOL    HW132628   0.609  13.870   3.804
43577SOL    HW232629   0.743  13.824   3.859
43578SOL     OW32630   6.057   3.406   4.673
43578SOL    HW132631   5.966   3.427   4.697
43578SOL    HW232632   6.049   3.357   4.591
43579SOL     OW32633  12.894   4.740   8.553
43579SOL    HW132634  12.945   4.671   8.596
43579SOL    HW232635  12.909   4.818   8.606
43580SOL     OW32636  12.988  14.076   5.064
43580SOL    HW132637  13.053  14.066   5.134
43580SOL    HW232638  12.935  14.152   5.092
43581SOL     OW32639   4.745   1.449   4.194
43581SOL    HW132640   4.811   1.470   4.261
43581SOL    HW232641   4.746   1.353   4.188
43582SOL     OW32642   6.186   8.049   3.017
43582SOL    HW132643   6.269   8.092   3.037
43582SOL    HW232644   6.210   7.960   2.993
43583SOL     OW32645   2.568   5.972  13.040
43583SOL    HW132646   2.514   6.014  12.973
43583SOL    HW232647   2.555   6.026  13.118
43584SOL     OW32648   0.603   6.983   2.175
43584SOL    HW132649   0.563   7.031   2.102
43584SOL    HW232650   0.622   7.049   2.240
43585SOL     OW32651   5.397   5.706   8.375
43585SOL    HW132652   5.431   5.677   8.460
43585SOL    HW232653   5.302   5.695   8.381
43586SOL     OW32654  13.474   1.824   3.334
43586SOL    HW132655  13.487   1.919   3.330
43586SOL    HW232656  13.503   1.799   3.421
43587SOL     OW32657   4.795   2.938  11.871
43587SOL    HW132658   4.872   2.933  11.927
43587SOL    HW232659   4.776   3.032  11.864
43588SOL     OW32660   0.914   8.092   6.543
43588SOL    HW132661   0.903   8.034   6.618
43588SOL    HW232662   0.880   8.042   6.469
43589SOL     OW32663   2.615   2.720   4.516
43589SOL    HW132664   2.696   2.755   4.554
43589SOL    HW232665   2.641   2.637   4.477
43590SOL     OW32666  10.441  10.419   1.199
43590SOL    HW132667  10.468  10.506   1.227
43590SOL    HW232668  10.443  10.366   1.279
43591SOL     OW32669  11.544   8.579   4.242
43591SOL    HW132670  11.473   8.515   4.234
43591SOL    HW232671  11.520   8.650   4.182
43592SOL     OW32672   3.139  13.657   3.217
43592SOL    HW132673   3.221  13.644   3.266
43592SOL    HW232674   3.076  13.685   3.283
43593SOL     OW32675   2.567   3.128   9.903
43593SOL    HW132676   2.554   3.218   9.874
43593SOL    HW232677   2.485   3.084   9.883
43594SOL     OW32678   9.014  12.019   2.148
43594SOL    HW132679   9.093  12.008   2.093
43594SOL    HW232680   8.942  11.989   2.092
43595SOL     OW32681   4.981   6.631   2.119
43595SOL    HW132682   4.964   6.723   2.098
43595SOL    HW232683   4.893   6.594   2.133
43596SOL     OW32684  14.005  10.371  13.987
43596SOL    HW132685  14.027  10.352  13.896
43596SOL    HW232686  13.910  10.357  13.992
43597SOL     OW32687   5.595   2.890  10.431
43597SOL    HW132688   5.579   2.911  10.523
43597SOL    HW232689   5.672   2.942  10.408
43598SOL     OW32690  14.423   6.084   7.078
43598SOL    HW132691  14.472   6.071   6.996
43598SOL    HW232692  14.340   6.122   7.050
43599SOL     OW32693  14.447  11.104   8.807
43599SOL    HW132694  14.488  11.125   8.891
43599SOL    HW232695  14.370  11.052   8.830
43600SOL     OW32696  10.893   2.912   0.128
43600SOL    HW132697  10.945   2.990   0.146
43600SOL    HW232698  10.818   2.919   0.186
43601SOL     OW32699  14.506   7.082   1.492
43601SOL    HW132700  14.555   7.137   1.553
43601SOL    HW232701  14.472   7.011   1.546
43602SOL     OW32702  11.154   9.194   7.909
43602SOL    HW132703  11.075   9.238   7.879
43602SOL    HW232704  11.223   9.228   7.852
43603SOL     OW32705  13.092   1.560   0.453
43603SOL    HW132706  13.146   1.577   0.376
43603SOL    HW232707  13.143   1.498   0.505
43604SOL     OW32708  11.790   4.704  10.604
43604SOL    HW132709  11.716   4.662  10.561
43604SOL    HW232710  11.783   4.677  10.696
43605SOL     OW32711  10.509  11.920   6.572
43605SOL    HW132712  10.514  11.991   6.637
43605SOL    HW232713  10.592  11.924   6.525
43606SOL     OW32714  11.061   0.996   4.508
43606SOL    HW132715  10.984   1.049   4.486
43606SOL    HW232716  11.028   0.906   4.509
43607SOL     OW32717   3.803  12.618  12.869
43607SOL    HW132718   3.893  12.587  12.863
43607SOL    HW232719   3.754  12.564  12.806
43608SOL     OW32720   6.875   5.574   1.353
43608SOL    HW132721   6.848   5.656   1.395
43608SOL    HW232722   6.800   5.515   1.365
43609SOL     OW32723   8.242   1.285   3.007
43609SOL    HW132724   8.216   1.220   3.071
43609SOL    HW232725   8.253   1.366   3.058
43610SOL     OW32726  11.263  14.214   6.995
43610SOL    HW132727  11.348  14.222   7.038
43610SOL    HW232728  11.283  14.164   6.915
43611SOL     OW32729   3.857  10.766   0.725
43611SOL    HW132730   3.895  10.753   0.638
43611SOL    HW232731   3.875  10.858   0.745
43612SOL     OW32732   9.889   2.268  10.430
43612SOL    HW132733   9.807   2.298  10.391
43612SOL    HW232734   9.942   2.347  10.440
43613SOL     OW32735   7.966   5.563   3.940
43613SOL    HW132736   8.051   5.585   3.979
43613SOL    HW232737   7.903   5.576   4.010
43614SOL     OW32738   5.069   7.111   5.391
43614SOL    HW132739   5.163   7.132   5.386
43614SOL    HW232740   5.025   7.192   5.364
43615SOL     OW32741   5.503  14.191  11.724
43615SOL    HW132742   5.423  14.197  11.776
43615SOL    HW232743   5.571  14.230  11.779
43616SOL     OW32744   8.924   2.832   2.260
43616SOL    HW132745   8.967   2.914   2.286
43616SOL    HW232746   8.996   2.773   2.238
43617SOL     OW32747   6.150  10.282   2.086
43617SOL    HW132748   6.231  10.280   2.137
43617SOL    HW232749   6.173  10.239   2.003
43618SOL     OW32750   6.050   5.099   4.650
43618SOL    HW132751   6.055   5.004   4.656
43618SOL    HW232752   6.116   5.122   4.585
43619SOL     OW32753  11.429  12.248   9.607
43619SOL    HW132754  11.496  12.190   9.643
43619SOL    HW232755  11.375  12.191   9.552
43620SOL     OW32756   3.512   4.603   1.891
43620SOL    HW132757   3.462   4.612   1.810
43620SOL    HW232758   3.507   4.689   1.933
43621SOL     OW32759  10.506   2.363  11.345
43621SOL    HW132760  10.561   2.438  11.325
43621SOL    HW232761  10.464   2.385  11.429
43622SOL     OW32762   2.382  14.571   8.809
43622SOL    HW132763   2.382  14.524   8.893
43622SOL    HW232764   2.331  14.650   8.826
43623SOL     OW32765   3.175   7.577  11.749
43623SOL    HW132766   3.210   7.638  11.814
43623SOL    HW232767   3.180   7.491  11.791
43624SOL     OW32768   5.838   4.708   6.910
43624SOL    HW132769   5.864   4.774   6.973
43624SOL    HW232770   5.804   4.757   6.835
43625SOL     OW32771   7.928   7.603   1.103
43625SOL    HW132772   7.896   7.620   1.015
43625SOL    HW232773   8.008   7.552   1.091
43626SOL     OW32774   3.346  12.474   1.056
43626SOL    HW132775   3.257  12.491   1.088
43626SOL    HW232776   3.335  12.408   0.988
43627SOL     OW32777   5.997   9.581   0.611
43627SOL    HW132778   5.997   9.673   0.587
43627SOL    HW232779   6.046   9.537   0.541
43628SOL     OW32780   4.833   1.176   3.564
43628SOL    HW132781   4.842   1.192   3.470
43628SOL    HW232782   4.836   1.264   3.603
43629SOL     OW32783  13.300  12.068   1.069
43629SOL    HW132784  13.356  12.146   1.063
43629SOL    HW232785  13.211  12.102   1.062
43630SOL     OW32786  12.754  12.033   7.124
43630SOL    HW132787  12.714  12.009   7.208
43630SOL    HW232788  12.822  12.096   7.147
43631SOL     OW32789  10.990   5.189   6.317
43631SOL    HW132790  11.081   5.211   6.334
43631SOL    HW232791  10.942   5.270   6.332
43632SOL     OW32792   0.076   9.529   3.664
43632SOL    HW132793   0.005   9.593   3.659
43632SOL    HW232794   0.148   9.577   3.705
43633SOL     OW32795  10.323   3.482   7.389
43633SOL    HW132796  10.277   3.499   7.471
43633SOL    HW232797  10.317   3.387   7.377
43634SOL     OW32798  13.570   1.481  10.220
43634SOL    HW132799  13.537   1.408  10.168
43634SOL    HW232800  13.519   1.556  10.190
43635SOL     OW32801   9.458   5.681   6.846
43635SOL    HW132802   9.436   5.709   6.758
43635SOL    HW232803   9.421   5.593   6.854
43636SOL     OW32804   4.330   9.332  11.889
43636SOL    HW132805   4.304   9.316  11.799
43636SOL    HW232806   4.410   9.280  11.900
43637SOL     OW32807   2.796   8.387  12.850
43637SOL    HW132808   2.715   8.398  12.800
43637SOL    HW232809   2.823   8.297  12.834
43638SOL     OW32810   1.303   5.476   3.408
43638SOL    HW132811   1.285   5.391   3.446
43638SOL    HW232812   1.376   5.461   3.348
43639SOL     OW32813  13.084  14.774   3.906
43639SOL    HW132814  13.050  14.863   3.915
43639SOL    HW232815  13.139  14.761   3.982
43640SOL     OW32816   9.038   4.591   5.745
43640SOL    HW132817   9.020   4.660   5.809
43640SOL    HW232818   9.079   4.521   5.796
43641SOL     OW32819   8.873  10.014  13.371
43641SOL    HW132820   8.823   9.954  13.426
43641SOL    HW232821   8.826  10.014  13.287
43642SOL     OW32822   7.240   9.678   1.928
43642SOL    HW132823   7.325   9.652   1.892
43642SOL    HW232824   7.177   9.661   1.857
43643SOL     OW32825   0.760   6.637   3.135
43643SOL    HW132826   0.720   6.566   3.185
43643SOL    HW232827   0.689   6.674   3.083
43644SOL     OW32828  11.787   2.519   4.587
43644SOL    HW132829  11.698   2.552   4.601
43644SOL    HW232830  11.844   2.593   4.609
43645SOL     OW32831   0.676   7.645   5.260
43645SOL    HW132832   0.722   7.589   5.197
43645SOL    HW232833   0.663   7.728   5.214
43646SOL     OW32834   7.467   4.137   2.627
43646SOL    HW132835   7.380   4.163   2.657
43646SOL    HW232836   7.525   4.162   2.699
43647SOL     OW32837   9.700  12.049  13.486
43647SOL    HW132838   9.745  12.027  13.567
43647SOL    HW232839   9.769  12.083  13.429
43648SOL     OW32840   4.284   6.603   5.649
43648SOL    HW132841   4.190   6.617   5.664
43648SOL    HW232842   4.316   6.688   5.618
43649SOL     OW32843  12.813   3.507   4.406
43649SOL    HW132844  12.780   3.489   4.494
43649SOL    HW232845  12.750   3.463   4.348
43650SOL     OW32846  13.785  14.567   6.639
43650SOL    HW132847  13.715  14.565   6.574
43650SOL    HW232848  13.831  14.484   6.627
43651SOL     OW32849   2.796   9.256   4.319
43651SOL    HW132850   2.716   9.287   4.362
43651SOL    HW232851   2.833   9.334   4.277
43652SOL     OW32852  14.229   7.751   3.051
43652SOL    HW132853  14.169   7.778   2.980
43652SOL    HW232854  14.171   7.726   3.122
43653SOL     OW32855   8.783  11.923  11.311
43653SOL    HW132856   8.718  11.984  11.276
43653SOL    HW232857   8.852  11.979  11.347
43654SOL     OW32858   4.136   1.916   0.860
43654SOL    HW132859   4.172   1.901   0.772
43654SOL    HW232860   4.048   1.877   0.857
43655SOL     OW32861   7.972  11.087   9.555
43655SOL    HW132862   7.968  11.107   9.649
43655SOL    HW232863   7.930  11.001   9.547
43656SOL     OW32864   5.775  11.640  11.834
43656SOL    HW132865   5.699  11.623  11.779
43656SOL    HW232866   5.808  11.724  11.805
43657SOL     OW32867  13.777   8.683   2.183
43657SOL    HW132868  13.804   8.774   2.167
43657SOL    HW232869  13.709   8.666   2.118
43658SOL     OW32870  12.353  13.192  11.380
43658SOL    HW132871  12.395  13.141  11.311
43658SOL    HW232872  12.340  13.129  11.451
43659SOL     OW32873   8.379   8.037  13.165
43659SOL    HW132874   8.328   8.100  13.115
43659SOL    HW232875   8.382   8.072  13.254
43660SOL     OW32876   8.424   8.539   2.074
43660SOL    HW132877   8.478   8.575   2.144
43660SOL    HW232878   8.334   8.558   2.101
43661SOL     OW32879   7.657  11.890   1.207
43661SOL    HW132880   7.713  11.861   1.279
43661SOL    HW232881   7.688  11.841   1.131
43662SOL     OW32882   7.332  14.668   5.107
43662SOL    HW132883   7.368  14.584   5.135
43662SOL    HW232884   7.407  14.717   5.073
43663SOL     OW32885   6.876   3.951   5.868
43663SOL    HW132886   6.835   4.003   5.800
43663SOL    HW232887   6.881   4.008   5.944
43664SOL     OW32888   4.156   2.823   4.717
43664SOL    HW132889   4.088   2.756   4.706
43664SOL    HW232890   4.158   2.869   4.633
43665SOL     OW32891   1.360   1.542   8.025
43665SOL    HW132892   1.426   1.523   8.092
43665SOL    HW232893   1.372   1.473   7.960
43666SOL     OW32894   0.598   6.656  11.050
43666SOL    HW132895   0.675   6.629  11.101
43666SOL    HW232896   0.570   6.576  11.006
43667SOL     OW32897   9.340   0.264  13.995
43667SOL    HW132898   9.294   0.348  13.991
43667SOL    HW232899   9.270   0.199  13.992
43668SOL     OW32900   3.535  12.249   5.020
43668SOL    HW132901   3.503  12.248   5.110
43668SOL    HW232902   3.488  12.177   4.978
43669SOL     OW32903   9.648   6.459  14.061
43669SOL    HW132904   9.681   6.380  14.017
43669SOL    HW232905   9.615   6.427  14.145
43670SOL     OW32906   3.810   7.470   0.296
43670SOL    HW132907   3.873   7.419   0.244
43670SOL    HW232908   3.725   7.433   0.273
43671SOL     OW32909  11.710   9.038   5.663
43671SOL    HW132910  11.654   8.962   5.680
43671SOL    HW232911  11.669   9.109   5.712
43672SOL     OW32912   8.718   5.092  12.194
43672SOL    HW132913   8.778   5.043  12.251
43672SOL    HW232914   8.758   5.179  12.186
43673SOL     OW32915  12.451   1.750   0.160
43673SOL    HW132916  12.516   1.764   0.228
43673SOL    HW232917  12.372   1.792   0.193
43674SOL     OW32918  11.718  12.100   5.384
43674SOL    HW132919  11.812  12.116   5.380
43674SOL    HW232920  11.679  12.183   5.357
43675SOL     OW32921   1.889  12.931   4.065
43675SOL    HW132922   1.902  12.988   3.990
43675SOL    HW232923   1.974  12.929   4.109
43676SOL     OW32924  13.323   2.358   6.550
43676SOL    HW132925  13.404   2.403   6.573
43676SOL    HW232926  13.340   2.266   6.572
43677SOL     OW32927   2.362   2.116   9.496
43677SOL    HW132928   2.338   2.024   9.493
43677SOL    HW232929   2.317   2.150   9.573
43678SOL     OW32930  13.142  13.275   3.405
43678SOL    HW132931  13.183  13.303   3.323
43678SOL    HW232932  13.051  13.303   3.397
43679SOL     OW32933  13.226   7.938   0.804
43679SOL    HW132934  13.307   7.981   0.831
43679SOL    HW232935  13.156   7.987   0.848
43680SOL     OW32936   6.024   1.343   0.588
43680SOL    HW132937   6.003   1.409   0.654
43680SOL    HW232938   6.080   1.388   0.525
43681SOL     OW32939  13.906  12.083   7.313
43681SOL    HW132940  13.813  12.057   7.312
43681SOL    HW232941  13.935  12.064   7.403
43682SOL     OW32942  13.373  12.752  14.233
43682SOL    HW132943  13.332  12.671  14.203
43682SOL    HW232944  13.340  12.819  14.173
43683SOL     OW32945  14.274   7.575   3.566
43683SOL    HW132946  14.295   7.490   3.528
43683SOL    HW232947  14.248   7.554   3.656
43684SOL     OW32948  12.915   5.132   8.904
43684SOL    HW132949  12.861   5.209   8.918
43684SOL    HW232950  12.925   5.093   8.991
43685SOL     OW32951   0.389   5.756  11.662
43685SOL    HW132952   0.484   5.745  11.654
43685SOL    HW232953   0.365   5.811  11.588
43686SOL     OW32954  14.843  11.073   6.258
43686SOL    HW132955   0.025  11.147   6.287
43686SOL    HW232956   0.033  10.998   6.262
43687SOL     OW32957  13.194  13.863  11.720
43687SOL    HW132958  13.104  13.894  11.724
43687SOL    HW232959  13.218  13.871  11.628
43688SOL     OW32960  14.068   8.291   0.014
43688SOL    HW132961  14.103   8.356  14.823
43688SOL    HW232962  14.049   8.214  14.829
43689SOL     OW32963   7.230   0.249   5.026
43689SOL    HW132964   7.282   0.284   5.099
43689SOL    HW232965   7.148   0.299   5.029
43690SOL     OW32966   8.810   0.257   4.569
43690SOL    HW132967   8.890   0.295   4.605
43690SOL    HW232968   8.832   0.166   4.550
43691SOL     OW32969   2.903   7.596  10.668
43691SOL    HW132970   2.913   7.660  10.739
43691SOL    HW232971   2.970   7.530  10.686
43692SOL     OW32972   3.002   0.770  11.268
43692SOL    HW132973   3.001   0.852  11.219
43692SOL    HW232974   2.910   0.754  11.289
43693SOL     OW32975   3.139  12.626   5.853
43693SOL    HW132976   3.063  12.683   5.864
43693SOL    HW232977   3.176  12.618   5.942
43694SOL     OW32978  10.042  14.296  14.780
43694SOL    HW132979  10.076  14.207  14.786
43694SOL    HW232980   9.950  14.285  14.755
43695SOL     OW32981  13.165   9.199  13.386
43695SOL    HW132982  13.245   9.250  13.374
43695SOL    HW232983  13.111   9.222  13.310
43696SOL     OW32984  11.861   0.626   7.851
43696SOL    HW132985  11.923   0.578   7.797
43696SOL    HW232986  11.832   0.699   7.796
43697SOL     OW32987  13.691   2.033   3.275
43697SOL    HW132988  13.722   2.114   3.316
43697SOL    HW232989  13.621   2.061   3.217
43698SOL     OW32990   4.777  11.044   1.117
43698SOL    HW132991   4.703  11.054   1.057
43698SOL    HW232992   4.827  11.125   1.107
43699SOL     OW32993  12.694  10.642   4.767
43699SOL    HW132994  12.622  10.596   4.724
43699SOL    HW232995  12.653  10.686   4.842
43700SOL     OW32996   3.048   8.970  14.586
43700SOL    HW132997   2.996   8.917  14.647
43700SOL    HW232998   3.123   8.999  14.638
43701SOL     OW32999   5.197   1.354  14.529
43701SOL    HW133000   5.141   1.320  14.599
43701SOL    HW233001   5.286   1.329  14.555
43702SOL     OW33002   6.980   2.804  11.627
43702SOL    HW133003   6.946   2.840  11.709
43702SOL    HW233004   7.010   2.716  11.650
43703SOL     OW33005   8.361  13.320  12.261
43703SOL    HW133006   8.437  13.292  12.210
43703SOL    HW233007   8.352  13.413  12.241
43704SOL     OW33008  10.789  12.564   1.515
43704SOL    HW133009  10.715  12.505   1.527
43704SOL    HW233010  10.799  12.607   1.600
43705SOL     OW33011   0.213   6.464   1.576
43705SOL    HW133012   0.306   6.476   1.553
43705SOL    HW233013   0.189   6.381   1.535
43706SOL     OW33014  13.617   7.771  12.329
43706SOL    HW133015  13.608   7.682  12.296
43706SOL    HW233016  13.549   7.821  12.284
43707SOL     OW33017   4.536   6.499  10.999
43707SOL    HW133018   4.541   6.487  11.093
43707SOL    HW233019   4.615   6.458  10.965
43708SOL     OW33020   9.661  11.290   9.087
43708SOL    HW133021   9.567  11.310   9.084
43708SOL    HW233022   9.703  11.375   9.092
43709SOL     OW33023  13.861  11.170   4.191
43709SOL    HW133024  13.772  11.164   4.157
43709SOL    HW233025  13.903  11.088   4.163
43710SOL     OW33026   5.843   6.385   1.594
43710SOL    HW133027   5.899   6.309   1.611
43710SOL    HW233028   5.767   6.372   1.650
43711SOL     OW33029  13.465  11.938  13.972
43711SOL    HW133030  13.444  11.877  14.043
43711SOL    HW233031  13.401  11.918  13.904
43712SOL     OW33032   2.979   1.210   5.631
43712SOL    HW133033   2.996   1.222   5.538
43712SOL    HW233034   2.885   1.196   5.637
43713SOL     OW33035  11.606  13.245  10.222
43713SOL    HW133036  11.670  13.269  10.290
43713SOL    HW233037  11.657  13.196  10.158
43714SOL     OW33038   2.526   5.831   5.519
43714SOL    HW133039   2.583   5.844   5.444
43714SOL    HW233040   2.439   5.821   5.482
43715SOL     OW33041  12.372   2.959   5.994
43715SOL    HW133042  12.301   2.918   5.944
43715SOL    HW233043  12.439   2.891   6.000
43716SOL     OW33044  11.587  10.356   0.062
43716SOL    HW133045  11.603  10.291  14.864
43716SOL    HW233046  11.497  10.342   0.089
43717SOL     OW33047   5.689  12.388   7.612
43717SOL    HW133048   5.663  12.425   7.696
43717SOL    HW233049   5.781  12.364   7.624
43718SOL     OW33050   0.819   2.168  12.778
43718SOL    HW133051   0.815   2.196  12.687
43718SOL    HW233052   0.912   2.151  12.794
43719SOL     OW33053  10.444   7.762   4.528
43719SOL    HW133054  10.356   7.758   4.564
43719SOL    HW233055  10.434   7.730   4.438
43720SOL     OW33056  10.404  10.171   0.700
43720SOL    HW133057  10.430  10.191   0.790
43720SOL    HW233058  10.478  10.201   0.647
43721SOL     OW33059   3.784   3.336   6.960
43721SOL    HW133060   3.855   3.332   7.023
43721SOL    HW233061   3.772   3.245   6.931
43722SOL     OW33062  12.740   3.349   7.605
43722SOL    HW133063  12.730   3.263   7.564
43722SOL    HW233064  12.828   3.347   7.642
43723SOL     OW33065   5.694   9.374   6.732
43723SOL    HW133066   5.617   9.362   6.676
43723SOL    HW233067   5.737   9.289   6.734
43724SOL     OW33068  12.680  12.157  12.879
43724SOL    HW133069  12.609  12.093  12.880
43724SOL    HW233070  12.759  12.107  12.898
43725SOL     OW33071   2.379   5.980   1.571
43725SOL    HW133072   2.373   6.056   1.513
43725SOL    HW233073   2.317   5.998   1.642
43726SOL     OW33074   1.175   6.935  11.086
43726SOL    HW133075   1.250   6.895  11.041
43726SOL    HW233076   1.184   6.907  11.177
43727SOL     OW33077   8.302  11.188   3.563
43727SOL    HW133078   8.330  11.125   3.496
43727SOL    HW233079   8.381  11.239   3.581
43728SOL     OW33080   4.684   1.204   2.957
43728SOL    HW133081   4.712   1.172   3.042
43728SOL    HW233082   4.753   1.176   2.897
43729SOL     OW33083   8.573   5.322   8.308
43729SOL    HW133084   8.513   5.389   8.275
43729SOL    HW233085   8.515   5.254   8.344
43730SOL     OW33086  11.686   2.906  13.706
43730SOL    HW133087  11.728   2.847  13.643
43730SOL    HW233088  11.651   2.976  13.652
43731SOL     OW33089   5.468   5.456  12.443
43731SOL    HW133090   5.502   5.534  12.486
43731SOL    HW233091   5.375   5.455  12.464
43732SOL     OW33092   9.782  13.784   9.559
43732SOL    HW133093   9.797  13.717   9.492
43732SOL    HW233094   9.869  13.821   9.574
43733SOL     OW33095   4.534  12.454   8.936
43733SOL    HW133096   4.495  12.396   8.870
43733SOL    HW233097   4.583  12.519   8.884
43734SOL     OW33098  12.680   2.245   5.804
43734SOL    HW133099  12.752   2.215   5.749
43734SOL    HW233100  12.605   2.248   5.744
43735SOL     OW33101  11.460   7.447  12.079
43735SOL    HW133102  11.507   7.377  12.125
43735SOL    HW233103  11.442   7.512  12.148
43736SOL     OW33104   6.438  12.265  10.797
43736SOL    HW133105   6.477  12.299  10.717
43736SOL    HW233106   6.506  12.207  10.833
43737SOL     OW33107   8.262   3.786  14.502
43737SOL    HW133108   8.271   3.825  14.415
43737SOL    HW233109   8.171   3.804  14.527
43738SOL     OW33110   6.560   1.515   6.580
43738SOL    HW133111   6.558   1.420   6.575
43738SOL    HW233112   6.484   1.538   6.633
43739SOL     OW33113   0.468   2.854   5.969
43739SOL    HW133114   0.503   2.933   5.930
43739SOL    HW233115   0.504   2.783   5.915
43740SOL     OW33116   5.030   5.180  12.949
43740SOL    HW133117   5.000   5.089  12.948
43740SOL    HW233118   5.085   5.187  12.871
43741SOL     OW33119   1.461   8.376   9.330
43741SOL    HW133120   1.467   8.325   9.410
43741SOL    HW233121   1.502   8.459   9.351
43742SOL     OW33122   2.326   1.866   6.862
43742SOL    HW133123   2.286   1.908   6.939
43742SOL    HW233124   2.269   1.890   6.789
43743SOL     OW33125   4.219   3.257   7.725
43743SOL    HW133126   4.189   3.289   7.640
43743SOL    HW233127   4.141   3.220   7.766
43744SOL     OW33128   6.705   4.068  11.230
43744SOL    HW133129   6.793   4.099  11.208
43744SOL    HW233130   6.658   4.146  11.259
43745SOL     OW33131   5.837  12.376   5.575
43745SOL    HW133132   5.924  12.407   5.602
43745SOL    HW233133   5.843  12.280   5.582
43746SOL     OW33134   3.929   3.069   3.193
43746SOL    HW133135   3.952   3.101   3.280
43746SOL    HW233136   4.012   3.068   3.145
43747SOL     OW33137   2.869   2.845   8.744
43747SOL    HW133138   2.801   2.785   8.773
43747SOL    HW233139   2.898   2.890   8.824
43748SOL     OW33140  13.291   0.701   0.623
43748SOL    HW133141  13.372   0.710   0.673
43748SOL    HW233142  13.269   0.790   0.595
43749SOL     OW33143  13.264  13.889   0.194
43749SOL    HW133144  13.213  13.948   0.250
43749SOL    HW233145  13.212  13.880   0.114
43750SOL     OW33146   3.542  14.681   3.044
43750SOL    HW133147   3.607  14.675   3.114
43750SOL    HW233148   3.580  14.741   2.980
43751SOL     OW33149   1.886   8.565   5.425
43751SOL    HW133150   1.954   8.630   5.411
43751SOL    HW233151   1.809   8.599   5.379
43752SOL     OW33152   4.629  10.670  14.740
43752SOL    HW133153   4.575  10.671  14.662
43752SOL    HW233154   4.715  10.701  14.711
43753SOL     OW33155   2.351   7.738  12.245
43753SOL    HW133156   2.275   7.691  12.279
43753SOL    HW233157   2.369   7.805  12.311
43754SOL     OW33158   3.852  13.764   0.079
43754SOL    HW133159   3.805  13.844   0.057
43754SOL    HW233160   3.886  13.733  14.865
43755SOL     OW33161  11.651   1.888   6.420
43755SOL    HW133162  11.599   1.889   6.339
43755SOL    HW233163  11.602   1.832   6.480
43756SOL     OW33164   6.555   5.712   6.871
43756SOL    HW133165   6.607   5.781   6.912
43756SOL    HW233166   6.512   5.754   6.797
43757SOL     OW33167   6.592  10.931   7.648
43757SOL    HW133168   6.656  10.965   7.585
43757SOL    HW233169   6.633  10.941   7.733
43758SOL     OW33170  10.966   3.346  13.920
43758SOL    HW133171  11.016   3.328  13.841
43758SOL    HW233172  11.033   3.358  13.988
43759SOL     OW33173  10.732  13.121   7.421
43759SOL    HW133174  10.701  13.032   7.405
43759SOL    HW233175  10.680  13.151   7.495
43760SOL     OW33176   2.193   0.606   7.153
43760SOL    HW133177   2.151   0.633   7.235
43760SOL    HW233178   2.286   0.598   7.175
43761SOL     OW33179   0.638  13.292   9.124
43761SOL    HW133180   0.641  13.220   9.061
43761SOL    HW233181   0.655  13.251   9.208
43762SOL     OW33182   3.262   9.339   7.102
43762SOL    HW133183   3.291   9.350   7.011
43762SOL    HW233184   3.168   9.358   7.099
43763SOL     OW33185   7.560   1.871   0.461
43763SOL    HW133186   7.499   1.811   0.504
43763SOL    HW233187   7.540   1.864   0.368
43764SOL     OW33188   3.230   4.155   8.665
43764SOL    HW133189   3.239   4.077   8.611
43764SOL    HW233190   3.312   4.160   8.714
43765SOL     OW33191  11.986   3.731   5.717
43765SOL    HW133192  11.918   3.718   5.783
43765SOL    HW233193  12.034   3.648   5.716
43766SOL     OW33194   5.894  13.951   9.211
43766SOL    HW133195   5.924  14.011   9.279
43766SOL    HW233196   5.936  13.983   9.131
43767SOL     OW33197   5.739   5.729   1.694
43767SOL    HW133198   5.655   5.696   1.724
43767SOL    HW233199   5.786   5.753   1.774
43768SOL     OW33200   6.524  13.783   3.273
43768SOL    HW133201   6.576  13.848   3.320
43768SOL    HW233202   6.489  13.830   3.197
43769SOL     OW33203  10.820   6.831  12.556
43769SOL    HW133204  10.740   6.779  12.570
43769SOL    HW233205  10.867   6.783  12.488
43770SOL     OW33206   7.534   8.804  12.905
43770SOL    HW133207   7.575   8.724  12.873
43770SOL    HW233208   7.445   8.778  12.929
43771SOL     OW33209   5.710   2.062  13.838
43771SOL    HW133210   5.765   2.047  13.761
43771SOL    HW233211   5.710   2.157  13.849
43772SOL     OW33212  14.325  14.094   7.358
43772SOL    HW133213  14.246  14.130   7.398
43772SOL    HW233214  14.296  14.013   7.316
43773SOL     OW33215   3.090   1.683   8.532
43773SOL    HW133216   3.096   1.685   8.628
43773SOL    HW233217   3.177   1.707   8.502
43774SOL     OW33218   8.589   4.458  13.643
43774SOL    HW133219   8.602   4.453  13.548
43774SOL    HW233220   8.499   4.430  13.656
43775SOL     OW33221   9.792   4.095  13.700
43775SOL    HW133222   9.767   4.187  13.705
43775SOL    HW233223   9.834   4.086  13.614
43776SOL     OW33224  10.761   1.509   8.793
43776SOL    HW133225  10.682   1.536   8.747
43776SOL    HW233226  10.729   1.458   8.867
43777SOL     OW33227   3.232  14.847   2.658
43777SOL    HW133228   3.193  14.796   2.728
43777SOL    HW233229   3.270  14.782   2.599
43778SOL     OW33230   0.471   7.513  10.055
43778SOL    HW133231   0.524   7.433  10.051
43778SOL    HW233232   0.434   7.523   9.968
43779SOL     OW33233   4.505  13.907   0.782
43779SOL    HW133234   4.548  13.835   0.735
43779SOL    HW233235   4.412  13.882   0.785
43780SOL     OW33236   8.903   3.187   0.641
43780SOL    HW133237   8.945   3.112   0.681
43780SOL    HW233238   8.909   3.256   0.707
43781SOL     OW33239  14.816  11.132   0.656
43781SOL    HW133240  14.792  11.064   0.719
43781SOL    HW233241   0.042  11.139   0.664
43782SOL     OW33242   9.802   7.973   8.851
43782SOL    HW133243   9.722   7.927   8.878
43782SOL    HW233244   9.836   8.011   8.932
43783SOL     OW33245   1.327   9.105   3.723
43783SOL    HW133246   1.277   9.027   3.699
43783SOL    HW233247   1.341   9.095   3.817
43784SOL     OW33248   3.799   8.001   5.221
43784SOL    HW133249   3.717   8.011   5.173
43784SOL    HW233250   3.860   7.965   5.157
43785SOL     OW33251  14.016   8.366  11.291
43785SOL    HW133252  13.965   8.442  11.319
43785SOL    HW233253  14.030   8.380  11.197
43786SOL     OW33254  14.435   3.080   8.990
43786SOL    HW133255  14.439   3.034   9.074
43786SOL    HW233256  14.525   3.077   8.956
43787SOL     OW33257  13.807   5.575   5.224
43787SOL    HW133258  13.785   5.527   5.144
43787SOL    HW233259  13.733   5.634   5.238
43788SOL     OW33260   9.270   8.861   9.154
43788SOL    HW133261   9.200   8.883   9.216
43788SOL    HW233262   9.267   8.765   9.148
43789SOL     OW33263  10.840  12.352   7.645
43789SOL    HW133264  10.849  12.418   7.714
43789SOL    HW233265  10.755  12.311   7.661
43790SOL     OW33266   6.969  11.749   9.206
43790SOL    HW133267   6.976  11.782   9.296
43790SOL    HW233268   6.936  11.660   9.215
43791SOL     OW33269   0.874   7.706  14.798
43791SOL    HW133270   0.964   7.736  14.804
43791SOL    HW233271   0.877   7.616  14.831
43792SOL     OW33272   7.552   6.491  12.911
43792SOL    HW133273   7.608   6.479  12.834
43792SOL    HW233274   7.523   6.403  12.934
43793SOL     OW33275  14.500   9.843   7.347
43793SOL    HW133276  14.460   9.798   7.272
43793SOL    HW233277  14.474   9.934   7.338
43794SOL     OW33278  12.178  14.761   9.959
43794SOL    HW133279  12.212  14.838  10.005
43794SOL    HW233280  12.147  14.794   9.875
43795SOL     OW33281   2.160   0.240   2.378
43795SOL    HW133282   2.217   0.316   2.394
43795SOL    HW233283   2.215   0.180   2.328
43796SOL     OW33284  11.577   0.184   1.841
43796SOL    HW133285  11.553   0.240   1.915
43796SOL    HW233286  11.665   0.211   1.818
43797SOL     OW33287  13.342  13.967   1.447
43797SOL    HW133288  13.361  13.888   1.396
43797SOL    HW233289  13.277  13.939   1.511
43798SOL     OW33290   4.597   7.408  14.356
43798SOL    HW133291   4.656   7.352  14.307
43798SOL    HW233292   4.647   7.488  14.373
43799SOL     OW33293   5.307  10.199   9.633
43799SOL    HW133294   5.357  10.219   9.712
43799SOL    HW233295   5.336  10.112   9.607
43800SOL     OW33296   6.362   7.250   6.470
43800SOL    HW133297   6.347   7.161   6.440
43800SOL    HW233298   6.368   7.302   6.389
43801SOL     OW33299  13.149   4.151   1.370
43801SOL    HW133300  13.218   4.098   1.331
43801SOL    HW233301  13.068   4.109   1.342
43802SOL     OW33302   9.140  14.149  13.875
43802SOL    HW133303   9.116  14.073  13.822
43802SOL    HW233304   9.235  14.151  13.873
43803SOL     OW33305   1.392   7.223   8.771
43803SOL    HW133306   1.298   7.213   8.785
43803SOL    HW233307   1.421   7.277   8.844
43804SOL     OW33308  12.979   3.379  12.978
43804SOL    HW133309  13.066   3.344  12.960
43804SOL    HW233310  12.992   3.474  12.987
43805SOL     OW33311   3.852   4.833  11.771
43805SOL    HW133312   3.825   4.741  11.767
43805SOL    HW233313   3.903   4.839  11.852
43806SOL     OW33314   1.176   9.421  10.698
43806SOL    HW133315   1.159   9.511  10.671
43806SOL    HW233316   1.118   9.368  10.643
43807SOL     OW33317   3.437   1.433   8.512
43807SOL    HW133318   3.430   1.522   8.549
43807SOL    HW233319   3.346   1.405   8.502
43808SOL     OW33320  14.127   3.080  11.296
43808SOL    HW133321  14.076   3.040  11.366
43808SOL    HW233322  14.196   3.128  11.341
43809SOL     OW33323   3.655  10.962   9.571
43809SOL    HW133324   3.743  10.949   9.537
43809SOL    HW233325   3.638  10.884   9.624
43810SOL     OW33326   0.509   6.367   3.530
43810SOL    HW133327   0.544   6.286   3.567
43810SOL    HW233328   0.512   6.430   3.603
43811SOL     OW33329  14.474  12.909  14.120
43811SOL    HW133330  14.497  12.888  14.210
43811SOL    HW233331  14.541  12.973  14.093
43812SOL     OW33332   8.229   8.309   3.114
43812SOL    HW133333   8.179   8.231   3.141
43812SOL    HW233334   8.319   8.290   3.141
43813SOL     OW33335   1.974   3.824  11.533
43813SOL    HW133336   1.976   3.816  11.628
43813SOL    HW233337   2.053   3.778  11.503
43814SOL     OW33338   6.935   8.900  10.326
43814SOL    HW133339   6.888   8.822  10.356
43814SOL    HW233340   6.976   8.873  10.243
43815SOL     OW33341   9.530   2.343   9.781
43815SOL    HW133342   9.553   2.316   9.693
43815SOL    HW233343   9.516   2.437   9.775
43816SOL     OW33344  10.498   8.422   5.564
43816SOL    HW133345  10.584   8.420   5.523
43816SOL    HW233346  10.516   8.435   5.658
43817SOL     OW33347  12.243   4.441  13.172
43817SOL    HW133348  12.243   4.419  13.078
43817SOL    HW233349  12.152   4.429  13.199
43818SOL     OW33350   3.897   2.634   4.809
43818SOL    HW133351   3.866   2.555   4.765
43818SOL    HW233352   3.822   2.694   4.807
43819SOL     OW33353   3.591  11.067   6.366
43819SOL    HW133354   3.676  11.106   6.348
43819SOL    HW233355   3.611  10.987   6.414
43820SOL     OW33356  12.121   3.599   2.742
43820SOL    HW133357  12.037   3.633   2.773
43820SOL    HW233358  12.134   3.517   2.789
43821SOL     OW33359   8.289   3.209  13.703
43821SOL    HW133360   8.342   3.288  13.690
43821SOL    HW233361   8.232   3.206  13.626
43822SOL     OW33362  11.007  12.066   8.166
43822SOL    HW133363  11.071  12.125   8.205
43822SOL    HW233364  11.042  11.978   8.183
43823SOL     OW33365   2.368   8.927   7.648
43823SOL    HW133366   2.460   8.928   7.674
43823SOL    HW233367   2.339   8.838   7.667
43824SOL     OW33368   3.298   4.639  12.582
43824SOL    HW133369   3.209   4.609  12.602
43824SOL    HW233370   3.285   4.707  12.516
43825SOL     OW33371  10.930  10.741   1.138
43825SOL    HW133372  11.002  10.792   1.101
43825SOL    HW233373  10.942  10.746   1.232
43826SOL     OW33374   7.758   2.020  14.270
43826SOL    HW133375   7.802   1.943  14.307
43826SOL    HW233376   7.813   2.094  14.297
43827SOL     OW33377   3.141  12.763   8.733
43827SOL    HW133378   3.186  12.698   8.680
43827SOL    HW233379   3.060  12.782   8.685
43828SOL     OW33380   5.986   8.323   6.443
43828SOL    HW133381   5.960   8.241   6.485
43828SOL    HW233382   5.939   8.391   6.491
43829SOL     OW33383   9.125   5.695   2.088
43829SOL    HW133384   9.100   5.604   2.101
43829SOL    HW233385   9.085   5.720   2.005
43830SOL     OW33386   0.107   5.510   3.864
43830SOL    HW133387   0.202   5.512   3.863
43830SOL    HW233388   0.085   5.438   3.923
43831SOL     OW33389   4.897   5.352  14.835
43831SOL    HW133390   4.854   5.268  14.852
43831SOL    HW233391   4.892   5.363  14.740
43832SOL     OW33392   3.284   7.145   8.359
43832SOL    HW133393   3.208   7.092   8.383
43832SOL    HW233394   3.338   7.087   8.305
43833SOL     OW33395   7.585   5.047   0.142
43833SOL    HW133396   7.597   4.989   0.067
43833SOL    HW233397   7.606   4.992   0.218
43834SOL     OW33398   5.506  11.083   9.164
43834SOL    HW133399   5.542  11.005   9.206
43834SOL    HW233400   5.434  11.110   9.221
43835SOL     OW33401   6.549  11.020  11.234
43835SOL    HW133402   6.477  11.073  11.200
43835SOL    HW233403   6.574  10.963  11.162
43836SOL     OW33404   5.103  12.850   7.405
43836SOL    HW133405   5.156  12.829   7.329
43836SOL    HW233406   5.160  12.833   7.480
43837SOL     OW33407  13.731   4.138  12.993
43837SOL    HW133408  13.663   4.203  12.977
43837SOL    HW233409  13.684   4.055  13.001
43838SOL     OW33410   1.677  10.210   0.387
43838SOL    HW133411   1.772  10.211   0.401
43838SOL    HW233412   1.667  10.182   0.296
43839SOL     OW33413   5.178   1.743  10.642
43839SOL    HW133414   5.128   1.800  10.700
43839SOL    HW233415   5.265   1.739  10.681
43840SOL     OW33416   7.912   6.503   4.730
43840SOL    HW133417   7.909   6.410   4.750
43840SOL    HW233418   7.933   6.546   4.813
43841SOL     OW33419  10.139   5.228  11.562
43841SOL    HW133420  10.198   5.299  11.587
43841SOL    HW233421  10.156   5.214  11.469
43842SOL     OW33422   9.334   9.395  10.837
43842SOL    HW133423   9.421   9.400  10.876
43842SOL    HW233424   9.281   9.456  10.889
43843SOL     OW33425  13.653   6.939   9.987
43843SOL    HW133426  13.567   6.901   9.969
43843SOL    HW233427  13.659   6.940  10.083
43844SOL     OW33428  11.746   6.032   8.024
43844SOL    HW133429  11.651   6.036   8.015
43844SOL    HW233430  11.775   5.977   7.952
43845SOL     OW33431  13.869   2.822  13.648
43845SOL    HW133432  13.809   2.748  13.649
43845SOL    HW233433  13.938   2.798  13.710
43846SOL     OW33434   5.052  10.122   5.635
43846SOL    HW133435   4.965  10.125   5.596
43846SOL    HW233436   5.060  10.205   5.682
43847SOL     OW33437  12.825   5.760   4.261
43847SOL    HW133438  12.775   5.744   4.341
43847SOL    HW233439  12.912   5.725   4.281
43848SOL     OW33440   4.734   4.923   4.943
43848SOL    HW133441   4.738   4.834   4.977
43848SOL    HW233442   4.725   4.912   4.848
43849SOL     OW33443   1.837  14.341  11.472
43849SOL    HW133444   1.929  14.365  11.469
43849SOL    HW233445   1.810  14.360  11.562
43850SOL     OW33446  11.525   2.645  12.613
43850SOL    HW133447  11.531   2.678  12.523
43850SOL    HW233448  11.582   2.568  12.614
43851SOL     OW33449   9.424   5.751   1.098
43851SOL    HW133450   9.333   5.724   1.083
43851SOL    HW233451   9.421   5.804   1.177
43852SOL     OW33452   7.505  13.937  11.519
43852SOL    HW133453   7.483  13.863  11.576
43852SOL    HW233454   7.530  14.007  11.580
43853SOL     OW33455   8.194  14.830   3.938
43853SOL    HW133456   8.189  14.734   3.934
43853SOL    HW233457   8.114  14.859   3.893
43854SOL     OW33458   1.854   7.758  10.763
43854SOL    HW133459   1.921   7.826  10.757
43854SOL    HW233460   1.853   7.717  10.676
43855SOL     OW33461   8.207   1.770   8.166
43855SOL    HW133462   8.237   1.754   8.077
43855SOL    HW233463   8.174   1.860   8.164
43856SOL     OW33464   8.450   2.993   3.805
43856SOL    HW133465   8.366   2.955   3.831
43856SOL    HW233466   8.487   2.930   3.743
43857SOL     OW33467   5.365   9.825   6.097
43857SOL    HW133468   5.413   9.749   6.132
43857SOL    HW233469   5.420   9.857   6.025
43858SOL     OW33470   3.141  12.978  10.740
43858SOL    HW133471   3.081  12.968  10.814
43858SOL    HW233472   3.216  13.024  10.776
43859SOL     OW33473  12.574   1.386  13.721
43859SOL    HW133474  12.580   1.370  13.627
43859SOL    HW233475  12.651   1.343  13.757
43860SOL     OW33476   9.121   3.753   2.342
43860SOL    HW133477   9.051   3.690   2.360
43860SOL    HW233478   9.200   3.712   2.375
43861SOL     OW33479  11.273   9.186   3.677
43861SOL    HW133480  11.263   9.124   3.604
43861SOL    HW233481  11.266   9.272   3.635
43862SOL     OW33482   9.275  10.540   8.735
43862SOL    HW133483   9.305  10.455   8.702
43862SOL    HW233484   9.240  10.521   8.822
43863SOL     OW33485  11.455  12.591  14.392
43863SOL    HW133486  11.451  12.551  14.305
43863SOL    HW233487  11.407  12.674  14.381
43864SOL     OW33488   1.208   6.198   8.631
43864SOL    HW133489   1.127   6.243   8.608
43864SOL    HW233490   1.276   6.266   8.622
43865SOL     OW33491  13.485  13.369   4.058
43865SOL    HW133492  13.528  13.444   4.100
43865SOL    HW233493  13.392  13.388   4.066
43866SOL     OW33494  14.078  14.289   1.268
43866SOL    HW133495  14.155  14.270   1.322
43866SOL    HW233496  14.108  14.357   1.207
43867SOL     OW33497   8.855  14.664   6.114
43867SOL    HW133498   8.775  14.679   6.165
43867SOL    HW233499   8.925  14.664   6.179
43868SOL     OW33500  10.466   8.173  10.001
43868SOL    HW133501  10.535   8.174  10.067
43868SOL    HW233502  10.508   8.136   9.923
43869SOL     OW33503  12.460   7.745  10.728
43869SOL    HW133504  12.387   7.702  10.683
43869SOL    HW233505  12.486   7.815  10.669
43870SOL     OW33506  14.020  11.331  11.037
43870SOL    HW133507  14.061  11.316  10.951
43870SOL    HW233508  14.068  11.273  11.096
43871SOL     OW33509  14.148   9.392   3.875
43871SOL    HW133510  14.239   9.414   3.855
43871SOL    HW233511  14.101   9.475   3.866
43872SOL     OW33512   2.662   9.782   8.620
43872SOL    HW133513   2.583   9.819   8.581
43872SOL    HW233514   2.655   9.803   8.713
43873SOL     OW33515   9.398  14.351   6.163
43873SOL    HW133516   9.398  14.407   6.240
43873SOL    HW233517   9.490  14.349   6.135
43874SOL     OW33518   3.870   3.831  11.571
43874SOL    HW133519   3.814   3.881  11.512
43874SOL    HW233520   3.959   3.849  11.542
43875SOL     OW33521   1.434   7.248   8.097
43875SOL    HW133522   1.461   7.264   8.006
43875SOL    HW233523   1.470   7.322   8.146
43876SOL     OW33524   1.866   5.030  12.223
43876SOL    HW133525   1.832   5.083  12.296
43876SOL    HW233526   1.905   4.953  12.266
43877SOL     OW33527   5.446   5.665   8.668
43877SOL    HW133528   5.359   5.627   8.686
43877SOL    HW233529   5.500   5.634   8.740
43878SOL     OW33530   2.642   8.519   8.846
43878SOL    HW133531   2.617   8.542   8.936
43878SOL    HW233532   2.565   8.541   8.794
43879SOL     OW33533   5.672  12.617   7.351
43879SOL    HW133534   5.677  12.523   7.337
43879SOL    HW233535   5.756  12.651   7.320
43880SOL     OW33536   8.733   8.537   4.484
43880SOL    HW133537   8.812   8.498   4.522
43880SOL    HW233538   8.714   8.483   4.407
43881SOL     OW33539   6.752  11.357  11.577
43881SOL    HW133540   6.811  11.286  11.601
43881SOL    HW233541   6.786  11.390  11.495
43882SOL     OW33542   8.720   2.327   1.928
43882SOL    HW133543   8.655   2.261   1.952
43882SOL    HW233544   8.742   2.307   1.837
43883SOL     OW33545   9.521  13.511  14.697
43883SOL    HW133546   9.566  13.435  14.734
43883SOL    HW233547   9.477  13.552  14.772
43884SOL     OW33548   9.943   0.565   4.020
43884SOL    HW133549   9.951   0.565   4.115
43884SOL    HW233550  10.031   0.547   3.988
43885SOL     OW33551  14.366   6.080   7.354
43885SOL    HW133552  14.391   6.064   7.263
43885SOL    HW233553  14.430   6.031   7.405
43886SOL     OW33554  10.296  11.956  13.130
43886SOL    HW133555  10.377  11.937  13.083
43886SOL    HW233556  10.231  11.973  13.062
43887SOL     OW33557  10.051   3.744   0.706
43887SOL    HW133558   9.997   3.720   0.632
43887SOL    HW233559  10.050   3.667   0.763
43888SOL     OW33560   9.828   8.031   8.496
43888SOL    HW133561   9.823   8.081   8.415
43888SOL    HW233562   9.866   8.093   8.559
43889SOL     OW33563   0.687  10.410  13.139
43889SOL    HW133564   0.649  10.484  13.092
43889SOL    HW233565   0.781  10.428  13.140
43890SOL     OW33566   4.729   2.536   4.946
43890SOL    HW133567   4.789   2.610   4.942
43890SOL    HW233568   4.658   2.566   5.003
43891SOL     OW33569  10.830   7.799  14.467
43891SOL    HW133570  10.764   7.795  14.397
43891SOL    HW233571  10.878   7.717  14.459
43892SOL     OW33572  12.397   7.435  12.414
43892SOL    HW133573  12.399   7.403  12.324
43892SOL    HW233574  12.366   7.526  12.406
43893SOL     OW33575   8.590   4.102   4.732
43893SOL    HW133576   8.650   4.049   4.680
43893SOL    HW233577   8.641   4.178   4.758
43894SOL     OW33578   0.050  14.470   5.146
43894SOL    HW133579   0.107  14.544   5.167
43894SOL    HW233580   0.027  14.432   5.230
43895SOL     OW33581  10.631  11.440   7.110
43895SOL    HW133582  10.591  11.506   7.167
43895SOL    HW233583  10.578  11.443   7.030
43896SOL     OW33584   3.858  12.499   6.799
43896SOL    HW133585   3.819  12.412   6.802
43896SOL    HW233586   3.899  12.504   6.712
43897SOL     OW33587  13.635   6.217  10.399
43897SOL    HW133588  13.544   6.189  10.404
43897SOL    HW233589  13.677   6.149  10.346
43898SOL     OW33590   2.606   9.864  11.160
43898SOL    HW133591   2.533   9.899  11.110
43898SOL    HW233592   2.645   9.940  11.204
43899SOL     OW33593  14.528   2.816  11.076
43899SOL    HW133594  14.614   2.811  11.033
43899SOL    HW233595  14.476   2.750  11.031
43900SOL     OW33596   9.822   6.898   5.819
43900SOL    HW133597   9.775   6.953   5.757
43900SOL    HW233598   9.913   6.928   5.814
43901SOL     OW33599   3.745   3.310  14.851
43901SOL    HW133600   3.768   3.272   0.066
43901SOL    HW233601   3.806   3.270  14.789
43902SOL     OW33602   5.408   4.452   6.882
43902SOL    HW133603   5.419   4.360   6.908
43902SOL    HW233604   5.465   4.501   6.941
43903SOL     OW33605   6.570   7.454   6.893
43903SOL    HW133606   6.536   7.542   6.881
43903SOL    HW233607   6.510   7.397   6.845
43904SOL     OW33608   2.698  13.314   4.937
43904SOL    HW133609   2.673  13.230   4.899
43904SOL    HW233610   2.625  13.337   4.995
43905SOL     OW33611   6.352   5.236  14.530
43905SOL    HW133612   6.302   5.276  14.600
43905SOL    HW233613   6.287   5.195  14.473
43906SOL     OW33614  10.874   9.875   2.376
43906SOL    HW133615  10.851   9.952   2.324
43906SOL    HW233616  10.947   9.905   2.432
43907SOL     OW33617   8.842   5.666   0.351
43907SOL    HW133618   8.808   5.691   0.437
43907SOL    HW233619   8.775   5.610   0.313
43908SOL     OW33620   4.293   2.669   9.465
43908SOL    HW133621   4.290   2.721   9.385
43908SOL    HW233622   4.383   2.637   9.469
43909SOL     OW33623  12.583  12.597   5.302
43909SOL    HW133624  12.632  12.659   5.356
43909SOL    HW233625  12.554  12.530   5.363
43910SOL     OW33626   7.807  10.125   4.132
43910SOL    HW133627   7.838  10.104   4.043
43910SOL    HW233628   7.743  10.195   4.119
43911SOL     OW33629  12.942   6.587   2.727
43911SOL    HW133630  12.985   6.572   2.811
43911SOL    HW233631  12.998   6.545   2.662
43912SOL     OW33632   8.821  12.383  11.381
43912SOL    HW133633   8.809  12.380  11.286
43912SOL    HW233634   8.827  12.291  11.407
43913SOL     OW33635  12.424   3.170   8.146
43913SOL    HW133636  12.375   3.236   8.097
43913SOL    HW233637  12.405   3.190   8.238
43914SOL     OW33638   5.649   0.524   1.164
43914SOL    HW133639   5.566   0.570   1.178
43914SOL    HW233640   5.656   0.514   1.069
43915SOL     OW33641  10.873   7.825   3.859
43915SOL    HW133642  10.849   7.885   3.930
43915SOL    HW233643  10.800   7.829   3.798
43916SOL     OW33644   5.363  11.022  10.053
43916SOL    HW133645   5.452  11.050  10.034
43916SOL    HW233646   5.351  10.943   9.999
43917SOL     OW33647  14.005  10.959  14.141
43917SOL    HW133648  14.017  11.003  14.224
43917SOL    HW233649  14.062  10.882  14.146
43918SOL     OW33650   4.522   7.852   0.218
43918SOL    HW133651   4.469   7.801   0.157
43918SOL    HW233652   4.570   7.914   0.163
43919SOL     OW33653  12.796   3.329   1.629
43919SOL    HW133654  12.873   3.290   1.588
43919SOL    HW233655  12.744   3.255   1.659
43920SOL     OW33656   1.411   0.738  14.425
43920SOL    HW133657   1.348   0.801  14.461
43920SOL    HW233658   1.371   0.709  14.343
43921SOL     OW33659   4.875   4.066  14.868
43921SOL    HW133660   4.961   4.056  14.827
43921SOL    HW233661   4.879   4.150   0.044
43922SOL     OW33662  11.849   5.324   8.482
43922SOL    HW133663  11.790   5.370   8.542
43922SOL    HW233664  11.813   5.235   8.477
43923SOL     OW33665   4.275  14.847  10.108
43923SOL    HW133666   4.340  14.801  10.160
43923SOL    HW233667   4.242   0.047  10.166
43924SOL     OW33668   3.738   4.416   8.153
43924SOL    HW133669   3.686   4.496   8.162
43924SOL    HW233670   3.769   4.417   8.063
43925SOL     OW33671   3.532   9.776   2.236
43925SOL    HW133672   3.460   9.735   2.189
43925SOL    HW233673   3.491   9.819   2.311
43926SOL     OW33674   6.785   9.753  13.617
43926SOL    HW133675   6.807   9.810  13.690
43926SOL    HW233676   6.784   9.665  13.654
43927SOL     OW33677   4.473  13.551   5.604
43927SOL    HW133678   4.432  13.464   5.606
43927SOL    HW233679   4.400  13.612   5.596
43928SOL     OW33680  13.257   4.869   5.868
43928SOL    HW133681  13.342   4.876   5.912
43928SOL    HW233682  13.250   4.950   5.817
43929SOL     OW33683   2.251   5.974   3.562
43929SOL    HW133684   2.158   5.961   3.543
43929SOL    HW233685   2.255   6.060   3.603
43930SOL     OW33686   4.301  10.092   8.553
43930SOL    HW133687   4.328  10.084   8.461
43930SOL    HW233688   4.247  10.172   8.554
43931SOL     OW33689  14.318   8.995   6.095
43931SOL    HW133690  14.366   9.066   6.139
43931SOL    HW233691  14.302   8.930   6.164
43932SOL     OW33692   7.234   0.022  13.165
43932SOL    HW133693   7.150   0.068  13.171
43932SOL    HW233694   7.282   0.050  13.243
43933SOL     OW33695   8.005  11.327   4.157
43933SOL    HW133696   8.086  11.323   4.106
43933SOL    HW233697   7.971  11.237   4.153
43934SOL     OW33698   7.305   5.290  12.763
43934SOL    HW133699   7.226   5.295  12.709
43934SOL    HW233700   7.294   5.210  12.814
43935SOL     OW33701   9.836   6.717   3.607
43935SOL    HW133702   9.868   6.801   3.640
43935SOL    HW233703   9.761   6.697   3.663
43936SOL     OW33704   5.107  11.523   2.969
43936SOL    HW133705   5.095  11.613   2.998
43936SOL    HW233706   5.135  11.530   2.877
43937SOL     OW33707   0.345   6.460   1.990
43937SOL    HW133708   0.298   6.542   1.974
43937SOL    HW233709   0.286   6.410   2.046
43938SOL     OW33710   9.992   2.376   2.801
43938SOL    HW133711  10.080   2.349   2.777
43938SOL    HW233712   9.935   2.306   2.767
43939SOL     OW33713  11.234   5.645   6.270
43939SOL    HW133714  11.244   5.738   6.292
43939SOL    HW233715  11.139   5.633   6.260
43940SOL     OW33716   6.272   0.740  10.106
43940SOL    HW133717   6.224   0.819  10.131
43940SOL    HW233718   6.276   0.688  10.186
43941SOL     OW33719   0.310  14.799   9.138
43941SOL    HW133720   0.227  14.840   9.113
43941SOL    HW233721   0.359  14.793   9.057
43942SOL     OW33722   1.556   5.484   2.609
43942SOL    HW133723   1.594   5.529   2.685
43942SOL    HW233724   1.481   5.436   2.644
43943SOL     OW33725   3.261   0.387   3.017
43943SOL    HW133726   3.236   0.351   3.102
43943SOL    HW233727   3.257   0.313   2.957
43944SOL     OW33728   3.964   7.464  12.964
43944SOL    HW133729   3.952   7.489  13.055
43944SOL    HW233730   3.923   7.378  12.957
43945SOL     OW33731   5.754  14.720   6.193
43945SOL    HW133732   5.685  14.659   6.166
43945SOL    HW233733   5.712  14.777   6.257
43946SOL     OW33734   6.092   7.461   3.860
43946SOL    HW133735   6.060   7.406   3.789
43946SOL    HW233736   6.023   7.457   3.926
43947SOL     OW33737   9.213   7.034  13.353
43947SOL    HW133738   9.262   6.952  13.363
43947SOL    HW233739   9.280   7.101  13.343
43948SOL     OW33740   0.444   1.245   0.914
43948SOL    HW133741   0.421   1.152   0.918
43948SOL    HW233742   0.538   1.245   0.896
43949SOL     OW33743   9.274   3.090   4.079
43949SOL    HW133744   9.289   3.172   4.032
43949SOL    HW233745   9.301   3.108   4.169
43950SOL     OW33746  10.504   3.239   7.713
43950SOL    HW133747  10.468   3.278   7.792
43950SOL    HW233748  10.552   3.310   7.670
43951SOL     OW33749   6.290   9.410  11.594
43951SOL    HW133750   6.358   9.454  11.644
43951SOL    HW233751   6.228   9.378  11.661
43952SOL     OW33752  14.400   8.125   8.289
43952SOL    HW133753  14.452   8.107   8.367
43952SOL    HW233754  14.455   8.181   8.235
43953SOL     OW33755  10.446  10.847  11.364
43953SOL    HW133756  10.386  10.774  11.382
43953SOL    HW233757  10.475  10.876  11.451
43954SOL     OW33758   6.960   8.115   4.032
43954SOL    HW133759   6.986   8.025   4.052
43954SOL    HW233760   6.865   8.114   4.041
43955SOL     OW33761   9.706   9.531   2.727
43955SOL    HW133762   9.701   9.436   2.716
43955SOL    HW233763   9.795   9.553   2.701
43956SOL     OW33764   7.511   7.210  12.654
43956SOL    HW133765   7.586   7.206  12.595
43956SOL    HW233766   7.508   7.302  12.683
43957SOL     OW33767   1.674   5.807   2.953
43957SOL    HW133768   1.737   5.776   3.019
43957SOL    HW233769   1.595   5.826   3.003
43958SOL     OW33770   9.690  10.086   4.088
43958SOL    HW133771   9.670  10.158   4.149
43958SOL    HW233772   9.779  10.104   4.058
43959SOL     OW33773  11.126   8.700   6.226
43959SOL    HW133774  11.172   8.702   6.142
43959SOL    HW233775  11.127   8.608   6.252
43960SOL     OW33776   4.114  12.869   7.961
43960SOL    HW133777   4.104  12.950   8.012
43960SOL    HW233778   4.077  12.801   8.018
43961SOL     OW33779   5.625   7.866   6.834
43961SOL    HW133780   5.666   7.796   6.885
43961SOL    HW233781   5.585   7.923   6.900
43962SOL     OW33782  12.480   4.269   5.900
43962SOL    HW133783  12.487   4.279   5.995
43962SOL    HW233784  12.448   4.354   5.869
43963SOL     OW33785   8.938   4.829  10.794
43963SOL    HW133786   8.972   4.742  10.773
43963SOL    HW233787   8.866   4.843  10.732
43964SOL     OW33788  13.621   8.341   7.491
43964SOL    HW133789  13.665   8.425   7.478
43964SOL    HW233790  13.556   8.358   7.560
43965SOL     OW33791  10.320   6.518  14.811
43965SOL    HW133792  10.324   6.425  14.831
43965SOL    HW233793  10.239   6.549  14.851
43966SOL     OW33794  12.858  14.248   8.546
43966SOL    HW133795  12.902  14.307   8.607
43966SOL    HW233796  12.765  14.255   8.568
43967SOL     OW33797   1.753  14.099   3.744
43967SOL    HW133798   1.678  14.054   3.784
43967SOL    HW233799   1.718  14.134   3.662
43968SOL     OW33800   8.257   5.529  13.873
43968SOL    HW133801   8.278   5.578  13.952
43968SOL    HW233802   8.286   5.439  13.893
43969SOL     OW33803  14.200   5.573   8.573
43969SOL    HW133804  14.239   5.485   8.565
43969SOL    HW233805  14.269   5.632   8.543
43970SOL     OW33806  11.165  11.988   5.834
43970SOL    HW133807  11.229  12.046   5.875
43970SOL    HW233808  11.138  12.035   5.754
43971SOL     OW33809   5.518  12.840   5.445
43971SOL    HW133810   5.447  12.777   5.445
43971SOL    HW233811   5.491  12.907   5.508
43972SOL     OW33812   6.747  10.178   1.895
43972SOL    HW133813   6.755  10.083   1.906
43972SOL    HW233814   6.661  10.191   1.856
43973SOL     OW33815   3.997   3.363   8.289
43973SOL    HW133816   3.930   3.384   8.353
43973SOL    HW233817   4.058   3.306   8.335
43974SOL     OW33818  12.703   1.686  11.793
43974SOL    HW133819  12.755   1.607  11.779
43974SOL    HW233820  12.617   1.666  11.756
43975SOL     OW33821   3.483   2.638   5.720
43975SOL    HW133822   3.515   2.727   5.708
43975SOL    HW233823   3.499   2.595   5.636
43976SOL     OW33824   3.995   2.061   2.219
43976SOL    HW133825   3.944   2.141   2.215
43976SOL    HW233826   4.086   2.088   2.206
43977SOL     OW33827   5.121  13.669   7.174
43977SOL    HW133828   5.066  13.619   7.113
43977SOL    HW233829   5.112  13.622   7.257
43978SOL     OW33830   7.155   1.380  14.819
43978SOL    HW133831   7.122   1.361   0.038
43978SOL    HW233832   7.212   1.455  14.831
43979SOL     OW33833   5.266  13.673   6.205
43979SOL    HW133834   5.334  13.618   6.166
43979SOL    HW233835   5.286  13.675   6.298
43980SOL     OW33836   4.607   6.056  14.839
43980SOL    HW133837   4.534   6.012   0.014
43980SOL    HW233838   4.674   5.989  14.830
43981SOL     OW33839   8.077   3.556   5.547
43981SOL    HW133840   8.063   3.516   5.632
43981SOL    HW233841   7.990   3.566   5.509
43982SOL     OW33842   7.436   0.217   0.013
43982SOL    HW133843   7.495   0.142   0.020
43982SOL    HW233844   7.349   0.179   0.006
43983SOL     OW33845   1.223   8.737   6.346
43983SOL    HW133846   1.305   8.760   6.389
43983SOL    HW233847   1.162   8.722   6.419
43984SOL     OW33848   9.770   4.466   1.434
43984SOL    HW133849   9.763   4.376   1.465
43984SOL    HW233850   9.797   4.517   1.511
43985SOL     OW33851   9.368   1.060   8.535
43985SOL    HW133852   9.449   1.080   8.487
43985SOL    HW233853   9.299   1.065   8.468
43986SOL     OW33854   0.577   5.571  12.235
43986SOL    HW133855   0.605   5.516  12.162
43986SOL    HW233856   0.511   5.630  12.197
43987SOL     OW33857  10.912   8.761   5.986
43987SOL    HW133858  10.985   8.699   5.987
43987SOL    HW233859  10.907   8.792   6.077
43988SOL     OW33860   9.617  12.321   8.354
43988SOL    HW133861   9.640  12.414   8.350
43988SOL    HW233862   9.700  12.276   8.369
43989SOL     OW33863  11.652  11.704   6.000
43989SOL    HW133864  11.729  11.707   6.056
43989SOL    HW233865  11.656  11.619   5.957
43990SOL     OW33866   5.147   6.980   4.772
43990SOL    HW133867   5.079   6.920   4.741
43990SOL    HW233868   5.206   6.992   4.698
43991SOL     OW33869   5.356   8.535  11.309
43991SOL    HW133870   5.414   8.550  11.384
43991SOL    HW233871   5.371   8.444  11.285
43992SOL     OW33872  13.390  13.093   4.647
43992SOL    HW133873  13.409  13.040   4.724
43992SOL    HW233874  13.474  13.133   4.624
43993SOL     OW33875   1.734   2.681   6.974
43993SOL    HW133876   1.809   2.623   6.963
43993SOL    HW233877   1.705   2.700   6.885
43994SOL     OW33878  10.796   9.498   8.104
43994SOL    HW133879  10.891   9.511   8.108
43994SOL    HW233880  10.779   9.429   8.168
43995SOL     OW33881  13.327   5.928   5.027
43995SOL    HW133882  13.309   5.836   5.008
43995SOL    HW233883  13.301   5.939   5.119
43996SOL     OW33884  14.502  13.126   6.515
43996SOL    HW133885  14.510  13.117   6.420
43996SOL    HW233886  14.453  13.048   6.543
43997SOL     OW33887   2.841  13.361  14.599
43997SOL    HW133888   2.843  13.440  14.545
43997SOL    HW233889   2.868  13.291  14.539
43998SOL     OW33890   0.674   8.598  10.515
43998SOL    HW133891   0.579   8.598  10.531
43998SOL    HW233892   0.683   8.561  10.427
43999SOL     OW33893   5.231   0.112   3.473
43999SOL    HW133894   5.204   0.020   3.473
43999SOL    HW233895   5.327   0.108   3.467
44000SOL     OW33896   3.657   5.493  12.063
44000SOL    HW133897   3.734   5.514  12.009
44000SOL    HW233898   3.611   5.577  12.072
44001SOL     OW33899   3.344  10.736   8.177
44001SOL    HW133900   3.330  10.813   8.232
44001SOL    HW233901   3.301  10.665   8.224
44002SOL     OW33902  13.320  12.576   1.548
44002SOL    HW133903  13.311  12.520   1.624
44002SOL    HW233904  13.373  12.650   1.578
44003SOL     OW33905  14.619  13.936   5.251
44003SOL    HW133906  14.685  13.868   5.237
44003SOL    HW233907  14.580  13.915   5.336
44004SOL     OW33908   6.814  13.696  14.821
44004SOL    HW133909   6.803  13.758   0.024
44004SOL    HW233910   6.811  13.750  14.742
44005SOL     OW33911   1.155   6.380   0.881
44005SOL    HW133912   1.152   6.305   0.823
44005SOL    HW233913   1.179   6.344   0.966
44006SOL     OW33914  14.016   5.906   8.204
44006SOL    HW133915  13.962   5.831   8.230
44006SOL    HW233916  13.981   5.979   8.255
44007SOL     OW33917   6.126   3.921   2.436
44007SOL    HW133918   6.095   4.010   2.419
44007SOL    HW233919   6.112   3.908   2.530
44008SOL     OW33920   8.151   1.361   5.395
44008SOL    HW133921   8.199   1.386   5.473
44008SOL    HW233922   8.092   1.434   5.378
44009SOL     OW33923   7.361   2.383   9.525
44009SOL    HW133924   7.384   2.381   9.432
44009SOL    HW233925   7.360   2.291   9.551
44010SOL     OW33926   9.024   1.123   9.920
44010SOL    HW133927   9.008   1.107  10.013
44010SOL    HW233928   9.043   1.217   9.914
44011SOL     OW33929  13.495   5.013   2.821
44011SOL    HW133930  13.497   5.057   2.906
44011SOL    HW233931  13.577   4.963   2.819
44012SOL     OW33932  10.053   4.884   3.706
44012SOL    HW133933  10.003   4.889   3.625
44012SOL    HW233934   9.987   4.870   3.774
44013SOL     OW33935   0.441   8.130   1.340
44013SOL    HW133936   0.418   8.072   1.413
44013SOL    HW233937   0.525   8.168   1.365
44014SOL     OW33938   1.995   2.407  13.177
44014SOL    HW133939   1.945   2.482  13.144
44014SOL    HW233940   1.984   2.340  13.109
44015SOL     OW33941   2.662  14.755  12.561
44015SOL    HW133942   2.607  14.743  12.639
44015SOL    HW233943   2.751  14.739  12.592
44016SOL     OW33944   5.762  13.365  13.017
44016SOL    HW133945   5.812  13.403  13.089
44016SOL    HW233946   5.731  13.281  13.052
44017SOL     OW33947   0.755   2.169   0.851
44017SOL    HW133948   0.774   2.254   0.890
44017SOL    HW233949   0.787   2.105   0.914
44018SOL     OW33950  11.172   1.806   0.914
44018SOL    HW133951  11.181   1.868   0.986
44018SOL    HW233952  11.078   1.805   0.896
44019SOL     OW33953   4.858  14.266   1.394
44019SOL    HW133954   4.852  14.361   1.407
44019SOL    HW233955   4.824  14.252   1.305
44020SOL     OW33956   1.265   8.086   1.865
44020SOL    HW133957   1.185   8.094   1.916
44020SOL    HW233958   1.267   8.166   1.811
44021SOL     OW33959   4.740   2.868   7.750
44021SOL    HW133960   4.738   2.962   7.734
44021SOL    HW233961   4.764   2.829   7.666
44022SOL     OW33962  12.979   0.996  12.776
44022SOL    HW133963  13.058   0.942  12.765
44022SOL    HW233964  13.012   1.086  12.781
44023SOL     OW33965  13.350   3.019   3.353
44023SOL    HW133966  13.316   2.994   3.267
44023SOL    HW233967  13.288   2.983   3.415
44024SOL     OW33968  11.981  13.172   0.689
44024SOL    HW133969  12.034  13.194   0.765
44024SOL    HW233970  11.961  13.079   0.698
44025SOL     OW33971   4.018   7.992  12.521
44025SOL    HW133972   4.095   7.947  12.487
44025SOL    HW233973   4.030   7.990  12.616
44026SOL     OW33974  10.758   4.312   1.108
44026SOL    HW133975  10.724   4.326   1.020
44026SOL    HW233976  10.816   4.387   1.124
44027SOL     OW33977   0.109   1.817   5.581
44027SOL    HW133978   0.109   1.774   5.667
44027SOL    HW233979   0.200   1.814   5.552
44028SOL     OW33980  13.268   6.191   0.829
44028SOL    HW133981  13.281   6.187   0.924
44028SOL    HW233982  13.211   6.116   0.809
44029SOL     OW33983   8.006   3.555   1.580
44029SOL    HW133984   7.915   3.568   1.606
44029SOL    HW233985   8.038   3.643   1.559
44030SOL     OW33986  11.458  13.205   1.793
44030SOL    HW133987  11.409  13.223   1.873
44030SOL    HW233988  11.542  13.247   1.806
44031SOL     OW33989   2.951  13.666   4.512
44031SOL    HW133990   3.025  13.607   4.496
44031SOL    HW233991   2.985  13.731   4.574
44032SOL     OW33992  13.254   5.136  14.053
44032SOL    HW133993  13.199   5.215  14.058
44032SOL    HW233994  13.220   5.088  13.978
44033SOL     OW33995  14.764   7.552   0.432
44033SOL    HW133996  14.784   7.603   0.353
44033SOL    HW233997  14.801   7.605   0.504
44034SOL     OW33998   1.378   8.401   3.924
44034SOL    HW133999   1.354   8.465   3.857
44034SOL    HW234000   1.323   8.423   3.999
44035SOL     OW34001   6.980  14.062   9.718
44035SOL    HW134002   7.033  14.087   9.794
44035SOL    HW234003   6.950  13.973   9.738
44036SOL     OW34004  12.952  14.775   2.119
44036SOL    HW134005  12.928  14.694   2.165
44036SOL    HW234006  12.869  14.810   2.086
44037SOL     OW34007   1.198   5.857   9.719
44037SOL    HW134008   1.153   5.835   9.801
44037SOL    HW234009   1.287   5.878   9.745
44038SOL     OW34010   7.723   6.175  11.650
44038SOL    HW134011   7.777   6.233  11.703
44038SOL    HW234012   7.772   6.093  11.645
44039SOL     OW34013  13.827   7.501   7.639
44039SOL    HW134014  13.844   7.421   7.589
44039SOL    HW234015  13.837   7.475   7.730
44040SOL     OW34016   6.832  12.724   1.363
44040SOL    HW134017   6.898  12.697   1.299
44040SOL    HW234018   6.784  12.644   1.384
44041SOL     OW34019   0.747   7.963   2.433
44041SOL    HW134020   0.830   7.968   2.480
44041SOL    HW234021   0.713   8.052   2.434
44042SOL     OW34022   9.042  12.145   7.424
44042SOL    HW134023   9.084  12.202   7.488
44042SOL    HW234024   9.049  12.057   7.463
44043SOL     OW34025  14.549  12.075   3.986
44043SOL    HW134026  14.594  12.121   4.057
44043SOL    HW234027  14.539  11.985   4.018
44044SOL     OW34028   5.467   2.553   4.425
44044SOL    HW134029   5.554   2.582   4.397
44044SOL    HW234030   5.411   2.572   4.350
44045SOL     OW34031   3.970  10.325   2.759
44045SOL    HW134032   3.919  10.361   2.687
44045SOL    HW234033   4.027  10.396   2.787
44046SOL     OW34034   7.901  13.723  13.923
44046SOL    HW134035   7.978  13.777  13.939
44046SOL    HW234036   7.842  13.779  13.873
44047SOL     OW34037  13.405  10.779   8.410
44047SOL    HW134038  13.412  10.870   8.382
44047SOL    HW234039  13.495  10.753   8.430
44048SOL     OW34040   2.055   8.567   8.692
44048SOL    HW134041   2.112   8.612   8.629
44048SOL    HW234042   2.030   8.635   8.754
44049SOL     OW34043  11.523   5.077   7.175
44049SOL    HW134044  11.456   5.008   7.180
44049SOL    HW234045  11.479   5.155   7.208
44050SOL     OW34046  14.833   8.253   8.246
44050SOL    HW134047   0.025   8.180   8.255
44050SOL    HW234048  14.865   8.303   8.171
44051SOL     OW34049  13.990   6.359   7.596
44051SOL    HW134050  14.000   6.400   7.682
44051SOL    HW234051  13.940   6.280   7.612
44052SOL     OW34052   5.260   7.428  13.352
44052SOL    HW134053   5.226   7.364  13.415
44052SOL    HW234054   5.350   7.400  13.336
44053SOL     OW34055  12.354  13.005   9.560
44053SOL    HW134056  12.383  13.086   9.518
44053SOL    HW234057  12.376  13.016   9.652
44054SOL     OW34058   9.757   4.518  13.025
44054SOL    HW134059   9.672   4.540  13.064
44054SOL    HW234060   9.770   4.585  12.958
44055SOL     OW34061   0.796   1.812   7.224
44055SOL    HW134062   0.768   1.897   7.257
44055SOL    HW234063   0.838   1.770   7.299
44056SOL     OW34064   5.308   2.021   3.114
44056SOL    HW134065   5.362   2.003   3.037
44056SOL    HW234066   5.220   2.032   3.079
44057SOL     OW34067   8.528  13.870   4.193
44057SOL    HW134068   8.610  13.850   4.237
44057SOL    HW234069   8.477  13.789   4.199
44058SOL     OW34070  12.935  10.776  14.461
44058SOL    HW134071  13.003  10.791  14.396
44058SOL    HW234072  12.976  10.801  14.544
44059SOL     OW34073   1.921  12.561  10.020
44059SOL    HW134074   1.836  12.520  10.036
44059SOL    HW234075   1.961  12.509   9.951
44060SOL     OW34076   8.749   2.781  13.745
44060SOL    HW134077   8.793   2.757  13.826
44060SOL    HW234078   8.820   2.808  13.687
44061SOL     OW34079  11.375   1.713   1.150
44061SOL    HW134080  11.326   1.795   1.154
44061SOL    HW234081  11.442   1.728   1.084
44062SOL     OW34082  13.803  13.228   0.908
44062SOL    HW134083  13.735  13.278   0.954
44062SOL    HW234084  13.878  13.287   0.906
44063SOL     OW34085   6.078   2.834  13.092
44063SOL    HW134086   6.036   2.904  13.043
44063SOL    HW234087   6.021   2.820  13.168
44064SOL     OW34088   7.661  13.791  13.018
44064SOL    HW134089   7.567  13.776  13.028
44064SOL    HW234090   7.668  13.856  12.948
44065SOL     OW34091  14.280  12.876   5.415
44065SOL    HW134092  14.245  12.920   5.337
44065SOL    HW234093  14.207  12.824   5.448
44066SOL     OW34094   4.091   5.827   0.577
44066SOL    HW134095   4.103   5.827   0.672
44066SOL    HW234096   4.048   5.743   0.559
44067SOL     OW34097   6.400  14.336  11.445
44067SOL    HW134098   6.450  14.270  11.397
44067SOL    HW234099   6.309  14.314  11.428
44068SOL     OW34100  11.151   1.128   5.926
44068SOL    HW134101  11.219   1.063   5.939
44068SOL    HW234102  11.185   1.207   5.967
44069SOL     OW34103   2.623   0.252   0.118
44069SOL    HW134104   2.651   0.160   0.126
44069SOL    HW234105   2.532   0.246   0.087
44070SOL     OW34106  12.690   5.759  13.168
44070SOL    HW134107  12.646   5.788  13.248
44070SOL    HW234108  12.701   5.665  13.180
44071SOL     OW34109   5.906  13.948  14.372
44071SOL    HW134110   5.956  13.902  14.305
44071SOL    HW234111   5.948  13.924  14.455
44072SOL     OW34112  11.164   9.161   2.725
44072SOL    HW134113  11.115   9.089   2.685
44072SOL    HW234114  11.144   9.237   2.670
44073SOL     OW34115  13.230   7.086  12.909
44073SOL    HW134116  13.254   7.038  12.989
44073SOL    HW234117  13.311   7.088  12.858
44074SOL     OW34118  12.024  13.370   3.948
44074SOL    HW134119  12.052  13.443   4.004
44074SOL    HW234120  12.003  13.299   4.009
44075SOL     OW34121  14.193   2.681   1.013
44075SOL    HW134122  14.236   2.672   1.099
44075SOL    HW234123  14.116   2.625   1.019
44076SOL     OW34124   7.300   0.310   7.275
44076SOL    HW134125   7.330   0.339   7.189
44076SOL    HW234126   7.370   0.335   7.335
44077SOL     OW34127   1.711   0.943   8.059
44077SOL    HW134128   1.717   0.893   7.978
44077SOL    HW234129   1.689   0.878   8.126
44078SOL     OW34130   4.833   2.479   1.934
44078SOL    HW134131   4.888   2.436   1.868
44078SOL    HW234132   4.793   2.553   1.888
44079SOL     OW34133   7.470   5.814   6.086
44079SOL    HW134134   7.435   5.785   6.170
44079SOL    HW234135   7.565   5.810   6.096
44080SOL     OW34136  14.863  11.780  11.986
44080SOL    HW134137  14.827  11.692  11.980
44080SOL    HW234138   0.040  11.794  11.903
44081SOL     OW34139   7.545   7.780   3.573
44081SOL    HW134140   7.577   7.718   3.507
44081SOL    HW234141   7.567   7.739   3.657
44082SOL     OW34142  13.800  13.866   4.168
44082SOL    HW134143  13.736  13.930   4.198
44082SOL    HW234144  13.840  13.834   4.249
44083SOL     OW34145   5.746   4.208   2.693
44083SOL    HW134146   5.763   4.115   2.679
44083SOL    HW234147   5.825   4.241   2.735
44084SOL     OW34148   7.264  14.590  10.538
44084SOL    HW134149   7.326  14.527  10.575
44084SOL    HW234150   7.200  14.537  10.490
44085SOL     OW34151  12.050   0.410   5.628
44085SOL    HW134152  11.977   0.450   5.580
44085SOL    HW234153  12.032   0.316   5.624
44086SOL     OW34154   0.490  11.213  14.493
44086SOL    HW134155   0.526  11.244  14.410
44086SOL    HW234156   0.444  11.289  14.530
44087SOL     OW34157   9.903  14.669  14.429
44087SOL    HW134158   9.887  14.712  14.346
44087SOL    HW234159   9.964  14.598  14.408
44088SOL     OW34160  12.915   1.922   6.132
44088SOL    HW134161  12.999   1.918   6.177
44088SOL    HW234162  12.880   2.008   6.153
44089SOL     OW34163   6.516   6.861  14.291
44089SOL    HW134164   6.495   6.819  14.374
44089SOL    HW234165   6.470   6.808  14.225
44090SOL     OW34166   1.797   7.469   5.374
44090SOL    HW134167   1.816   7.553   5.415
44090SOL    HW234168   1.876   7.448   5.324
44091SOL     OW34169   1.948   6.018  14.755
44091SOL    HW134170   1.899   6.012  14.674
44091SOL    HW234171   1.922   5.940  14.804
44092SOL     OW34172   2.824  10.760   6.676
44092SOL    HW134173   2.835  10.737   6.768
44092SOL    HW234174   2.893  10.824   6.659
44093SOL     OW34175   3.270   8.092   7.143
44093SOL    HW134176   3.255   8.043   7.224
44093SOL    HW234177   3.323   8.167   7.170
44094SOL     OW34178  10.767   1.580   9.228
44094SOL    HW134179  10.852   1.558   9.266
44094SOL    HW234180  10.750   1.670   9.256
44095SOL     OW34181   4.722  11.555  11.372
44095SOL    HW134182   4.680  11.640  11.361
44095SOL    HW234183   4.806  11.564  11.326
44096SOL     OW34184   6.023  11.508   3.698
44096SOL    HW134185   6.043  11.561   3.775
44096SOL    HW234186   5.999  11.572   3.630
44097SOL     OW34187   2.591   4.124   0.386
44097SOL    HW134188   2.673   4.091   0.424
44097SOL    HW234189   2.616   4.156   0.300
44098SOL     OW34190  10.475   6.293   3.196
44098SOL    HW134191  10.501   6.263   3.283
44098SOL    HW234192  10.394   6.341   3.210
44099SOL     OW34193   0.712   3.065   6.901
44099SOL    HW134194   0.720   2.970   6.905
44099SOL    HW234195   0.627   3.080   6.859
44100SOL     OW34196   4.270  14.135   4.115
44100SOL    HW134197   4.291  14.048   4.149
44100SOL    HW234198   4.230  14.181   4.189
44101SOL     OW34199  12.484   3.151   4.838
44101SOL    HW134200  12.501   3.234   4.883
44101SOL    HW234201  12.529   3.085   4.890
44102SOL     OW34202   6.274   0.420   9.114
44102SOL    HW134203   6.271   0.502   9.164
44102SOL    HW234204   6.191   0.418   9.066
44103SOL     OW34205  13.631   0.541  12.826
44103SOL    HW134206  13.652   0.519  12.735
44103SOL    HW234207  13.712   0.525  12.874
44104SOL     OW34208   2.270   5.232  13.450
44104SOL    HW134209   2.300   5.199  13.366
44104SOL    HW234210   2.202   5.170  13.478
44105SOL     OW34211   9.675  10.057   2.070
44105SOL    HW134212   9.666   9.970   2.109
44105SOL    HW234213   9.610  10.059   2.000
44106SOL     OW34214  12.794   9.191  10.209
44106SOL    HW134215  12.704   9.211  10.233
44106SOL    HW234216  12.826   9.270  10.166
44107SOL     OW34217  13.229   8.435  12.799
44107SOL    HW134218  13.145   8.435  12.845
44107SOL    HW234219  13.283   8.496  12.849
44108SOL     OW34220  11.112   4.508   5.015
44108SOL    HW134221  11.078   4.450   4.946
44108SOL    HW234222  11.200   4.476   5.032
44109SOL     OW34223   5.134   8.601   8.862
44109SOL    HW134224   5.041   8.580   8.867
44109SOL    HW234225   5.159   8.620   8.952
44110SOL     OW34226   6.814  10.783   7.825
44110SOL    HW134227   6.880  10.754   7.888
44110SOL    HW234228   6.733  10.785   7.874
44111SOL     OW34229   5.447   7.247   6.009
44111SOL    HW134230   5.355   7.266   5.990
44111SOL    HW234231   5.455   7.152   5.998
44112SOL     OW34232   3.877   8.383   7.519
44112SOL    HW134233   3.797   8.430   7.495
44112SOL    HW234234   3.854   8.290   7.510
44113SOL     OW34235  14.815   3.339   7.433
44113SOL    HW134236  14.822   3.245   7.417
44113SOL    HW234237  14.793   3.376   7.348
44114SOL     OW34238   6.210  13.191  12.461
44114SOL    HW134239   6.136  13.251  12.462
44114SOL    HW234240   6.217  13.160  12.552
44115SOL     OW34241   0.635  10.582   0.721
44115SOL    HW134242   0.565  10.531   0.763
44115SOL    HW234243   0.592  10.624   0.646
44116SOL     OW34244   4.340   3.684   4.385
44116SOL    HW134245   4.250   3.654   4.401
44116SOL    HW234246   4.379   3.616   4.332
44117SOL     OW34247   9.830  13.962   2.626
44117SOL    HW134248   9.899  13.914   2.671
44117SOL    HW234249   9.765  13.982   2.694
44118SOL     OW34250  12.007   0.007   4.837
44118SOL    HW134251  12.042  14.838   4.917
44118SOL    HW234252  11.940   0.068   4.866
44119SOL     OW34253  14.409  11.206   4.081
44119SOL    HW134254  14.485  11.261   4.061
44119SOL    HW234255  14.389  11.226   4.172
44120SOL     OW34256   1.478  10.681   4.693
44120SOL    HW134257   1.535  10.710   4.621
44120SOL    HW234258   1.433  10.604   4.659
44121SOL     OW34259   8.648   3.310  11.400
44121SOL    HW134260   8.701   3.250  11.454
44121SOL    HW234261   8.708   3.378  11.374
44122SOL     OW34262   0.812  12.676  13.332
44122SOL    HW134263   0.842  12.756  13.290
44122SOL    HW234264   0.750  12.706  13.398
44123SOL     OW34265  10.391   0.202   6.399
44123SOL    HW134266  10.437   0.123   6.372
44123SOL    HW234267  10.457   0.271   6.392
44124SOL     OW34268   4.657  14.243  13.471
44124SOL    HW134269   4.655  14.299  13.548
44124SOL    HW234270   4.750  14.227  13.455
44125SOL     OW34271  11.676   4.427  11.365
44125SOL    HW134272  11.732   4.376  11.423
44125SOL    HW234273  11.593   4.435  11.413
44126SOL     OW34274  14.127   8.932   1.813
44126SOL    HW134275  14.188   8.858   1.815
44126SOL    HW234276  14.053   8.901   1.761
44127SOL     OW34277   2.834  13.302   4.673
44127SOL    HW134278   2.796  13.357   4.743
44127SOL    HW234279   2.929  13.316   4.681
44128SOL     OW34280   8.544   0.073   2.224
44128SOL    HW134281   8.549   0.164   2.197
44128SOL    HW234282   8.550   0.075   2.319
44129SOL     OW34283  11.576   8.562   8.942
44129SOL    HW134284  11.583   8.506   9.019
44129SOL    HW234285  11.647   8.532   8.884
44130SOL     OW34286   7.406   0.075   9.868
44130SOL    HW134287   7.330   0.114   9.825
44130SOL    HW234288   7.369   0.007   9.925
44131SOL     OW34289   5.980  14.320  10.656
44131SOL    HW134290   5.956  14.258  10.587
44131SOL    HW234291   6.049  14.275  10.705
44132SOL     OW34292  10.683   1.816  10.635
44132SOL    HW134293  10.702   1.724  10.650
44132SOL    HW234294  10.591   1.827  10.659
44133SOL     OW34295   3.331   5.572  12.300
44133SOL    HW134296   3.391   5.635  12.261
44133SOL    HW234297   3.274   5.624  12.357
44134SOL     OW34298   5.119  14.755   0.858
44134SOL    HW134299   5.061  14.724   0.928
44134SOL    HW234300   5.066  14.821   0.812
44135SOL     OW34301   2.960  12.180  12.005
44135SOL    HW134302   2.970  12.271  11.977
44135SOL    HW234303   2.951  12.130  11.924
44136SOL     OW34304  14.831   8.194  11.924
44136SOL    HW134305   0.042   8.167  11.969
44136SOL    HW234306  14.761   8.144  11.967
44137SOL     OW34307   5.879   9.298   7.752
44137SOL    HW134308   5.894   9.390   7.730
44137SOL    HW234309   5.920   9.286   7.837
44138SOL     OW34310  10.407  14.387   6.473
44138SOL    HW134311  10.334  14.417   6.526
44138SOL    HW234312  10.389  14.294   6.458
44139SOL     OW34313   3.683  11.236   4.821
44139SOL    HW134314   3.637  11.275   4.895
44139SOL    HW234315   3.708  11.310   4.766
44140SOL     OW34316   1.209  11.052   0.529
44140SOL    HW134317   1.251  10.999   0.596
44140SOL    HW234318   1.271  11.052   0.456
44141SOL     OW34319   8.718   4.090  10.466
44141SOL    HW134320   8.708   4.024  10.536
44141SOL    HW234321   8.809   4.120  10.475
44142SOL     OW34322   2.115  11.917  14.714
44142SOL    HW134323   2.061  11.995  14.725
44142SOL    HW234324   2.123  11.881  14.802
44143SOL     OW34325   7.151   8.989   9.530
44143SOL    HW134326   7.220   8.926   9.510
44143SOL    HW234327   7.150   9.048   9.454
44144SOL     OW34328   4.779   9.837  10.259
44144SOL    HW134329   4.789   9.931  10.245
44144SOL    HW234330   4.850   9.815  10.319
44145SOL     OW34331   5.489   7.241  10.439
44145SOL    HW134332   5.469   7.173  10.375
44145SOL    HW234333   5.475   7.199  10.524
44146SOL     OW34334   9.155   8.647   4.571
44146SOL    HW134335   9.072   8.694   4.580
44146SOL    HW234336   9.214   8.709   4.528
44147SOL     OW34337   1.164  13.798   7.670
44147SOL    HW134338   1.075  13.769   7.649
44147SOL    HW234339   1.189  13.744   7.745
44148SOL     OW34340   7.168   2.376  10.699
44148SOL    HW134341   7.176   2.439  10.627
44148SOL    HW234342   7.184   2.291  10.657
44149SOL     OW34343   2.786   7.453   3.934
44149SOL    HW134344   2.790   7.526   3.995
44149SOL    HW234345   2.877   7.439   3.907
44150SOL     OW34346   6.315   0.849   8.915
44150SOL    HW134347   6.304   0.918   8.981
44150SOL    HW234348   6.331   0.770   8.966
44151SOL     OW34349   2.017   0.916   9.401
44151SOL    HW134350   2.012   1.003   9.440
44151SOL    HW234351   2.024   0.857   9.475
44152SOL     OW34352   2.008   4.429   0.917
44152SOL    HW134353   1.944   4.371   0.957
44152SOL    HW234354   2.009   4.506   0.974
44153SOL     OW34355  14.492   4.284   5.681
44153SOL    HW134356  14.522   4.298   5.591
44153SOL    HW234357  14.403   4.249   5.671
44154SOL     OW34358  10.065  13.129   7.831
44154SOL    HW134359  10.047  13.145   7.739
44154SOL    HW234360  10.083  13.215   7.868
44155SOL     OW34361   9.571  13.262   3.054
44155SOL    HW134362   9.510  13.188   3.051
44155SOL    HW234363   9.655  13.224   3.028
44156SOL     OW34364   5.955  13.003  10.584
44156SOL    HW134365   6.039  12.961  10.566
44156SOL    HW234366   5.957  13.022  10.677
44157SOL     OW34367  13.344   5.780   4.268
44157SOL    HW134368  13.366   5.690   4.292
44157SOL    HW234369  13.418   5.809   4.214
44158SOL     OW34370   0.492   4.704   0.750
44158SOL    HW134371   0.584   4.676   0.747
44158SOL    HW234372   0.443   4.622   0.749
44159SOL     OW34373   2.242  14.773   4.113
44159SOL    HW134374   2.190  14.817   4.046
44159SOL    HW234375   2.254  14.684   4.079
44160SOL     OW34376   8.010   6.125  14.530
44160SOL    HW134377   7.996   6.197  14.468
44160SOL    HW234378   7.980   6.047  14.483
44161SOL     OW34379  13.201   2.122   5.709
44161SOL    HW134380  13.128   2.164   5.754
44161SOL    HW234381  13.270   2.115   5.774
44162SOL     OW34382  12.544  12.259   2.439
44162SOL    HW134383  12.555  12.349   2.410
44162SOL    HW234384  12.460  12.232   2.403
44163SOL     OW34385   8.024   0.083   2.789
44163SOL    HW134386   7.945   0.054   2.744
44163SOL    HW234387   7.996   0.104   2.878
44164SOL     OW34388   7.265  11.188   0.906
44164SOL    HW134389   7.306  11.222   0.986
44164SOL    HW234390   7.172  11.180   0.928
44165SOL     OW34391   5.062   9.276   0.108
44165SOL    HW134392   5.135   9.334   0.088
44165SOL    HW234393   5.065   9.209   0.040
44166SOL     OW34394   9.519   6.684  14.092
44166SOL    HW134395   9.578   6.633  14.037
44166SOL    HW234396   9.498   6.627  14.165
44167SOL     OW34397   7.279  12.314   6.037
44167SOL    HW134398   7.310  12.264   5.962
44167SOL    HW234399   7.192  12.346   6.010
44168SOL     OW34400   2.349  14.245   0.926
44168SOL    HW134401   2.309  14.166   0.889
44168SOL    HW234402   2.291  14.316   0.900
44169SOL     OW34403   1.777   7.003   0.433
44169SOL    HW134404   1.821   6.920   0.418
44169SOL    HW234405   1.847   7.066   0.447
44170SOL     OW34406   8.514   2.981   2.706
44170SOL    HW134407   8.432   2.947   2.672
44170SOL    HW234408   8.574   2.906   2.705
44171SOL     OW34409   9.043   3.146   1.575
44171SOL    HW134410   8.975   3.191   1.526
44171SOL    HW234411   9.043   3.057   1.541
44172SOL     OW34412   8.584   4.020   1.538
44172SOL    HW134413   8.534   4.024   1.620
44172SOL    HW234414   8.529   3.970   1.478
44173SOL     OW34415   6.568   1.085   7.836
44173SOL    HW134416   6.533   1.087   7.747
44173SOL    HW234417   6.568   1.177   7.864
44174SOL     OW34418   0.984  14.808   3.136
44174SOL    HW134419   1.053  14.852   3.087
44174SOL    HW234420   0.993  14.842   3.225
44175SOL     OW34421   2.411   8.550  12.559
44175SOL    HW134422   2.405   8.527  12.467
44175SOL    HW234423   2.474   8.623  12.561
44176SOL     OW34424   4.290  10.022  14.055
44176SOL    HW134425   4.220  10.022  13.990
44176SOL    HW234426   4.359   9.968  14.017
44177SOL     OW34427   0.888   4.720  13.603
44177SOL    HW134428   0.859   4.702  13.514
44177SOL    HW234429   0.963   4.778  13.593
44178SOL     OW34430   4.272   5.836  10.221
44178SOL    HW134431   4.283   5.832  10.316
44178SOL    HW234432   4.183   5.805  10.205
44179SOL     OW34433   2.744  13.670  11.049
44179SOL    HW134434   2.819  13.727  11.035
44179SOL    HW234435   2.670  13.718  11.010
44180SOL     OW34436  10.275   5.106   5.808
44180SOL    HW134437  10.295   5.121   5.716
44180SOL    HW234438  10.358   5.077   5.846
44181SOL     OW34439   5.902  12.081   2.692
44181SOL    HW134440   5.977  12.032   2.661
44181SOL    HW234441   5.879  12.139   2.619
44182SOL     OW34442  11.091  12.930   6.701
44182SOL    HW134443  11.112  13.014   6.744
44182SOL    HW234444  11.000  12.940   6.673
44183SOL     OW34445  10.539   9.416  14.205
44183SOL    HW134446  10.615   9.374  14.166
44183SOL    HW234447  10.531   9.376  14.291
44184SOL     OW34448   8.020   8.733   4.679
44184SOL    HW134449   8.085   8.787   4.726
44184SOL    HW234450   8.071   8.662   4.641
44185SOL     OW34451  12.505  10.896   0.105
44185SOL    HW134452  12.483  10.835   0.175
44185SOL    HW234453  12.555  10.965   0.148
44186SOL     OW34454   4.673   5.461   2.840
44186SOL    HW134455   4.654   5.492   2.928
44186SOL    HW234456   4.765   5.484   2.826
44187SOL     OW34457   7.110   2.812   8.615
44187SOL    HW134458   7.139   2.897   8.647
44187SOL    HW234459   7.087   2.763   8.694
44188SOL     OW34460  12.875  10.770  13.674
44188SOL    HW134461  12.887  10.836  13.742
44188SOL    HW234462  12.897  10.816  13.592
44189SOL     OW34463  14.247   6.623   7.691
44189SOL    HW134464  14.300   6.587   7.762
44189SOL    HW234465  14.157   6.615   7.721
44190SOL     OW34466  14.315   0.676   3.969
44190SOL    HW134467  14.345   0.766   3.962
44190SOL    HW234468  14.294   0.651   3.879
44191SOL     OW34469   1.011   5.234   9.264
44191SOL    HW134470   1.069   5.169   9.225
44191SOL    HW234471   0.958   5.266   9.192
44192SOL     OW34472  11.372   6.140   8.222
44192SOL    HW134473  11.430   6.073   8.186
44192SOL    HW234474  11.334   6.099   8.300
44193SOL     OW34475   0.198   0.621   8.570
44193SOL    HW134476   0.240   0.645   8.487
44193SOL    HW234477   0.200   0.525   8.571
44194SOL     OW34478  11.114   6.616   1.851
44194SOL    HW134479  11.074   6.555   1.913
44194SOL    HW234480  11.099   6.703   1.888
44195SOL     OW34481   0.902   6.070   6.270
44195SOL    HW134482   0.948   6.024   6.340
44195SOL    HW234483   0.904   6.162   6.296
44196SOL     OW34484  12.163  13.644   2.760
44196SOL    HW134485  12.226  13.573   2.775
44196SOL    HW234486  12.083  13.614   2.803
44197SOL     OW34487   5.841   4.538   6.340
44197SOL    HW134488   5.822   4.542   6.246
44197SOL    HW234489   5.898   4.462   6.349
44198SOL     OW34490  10.989   6.899   2.256
44198SOL    HW134491  11.028   6.813   2.239
44198SOL    HW234492  10.962   6.895   2.348
44199SOL     OW34493   9.072   8.952   4.705
44199SOL    HW134494   9.048   8.957   4.798
44199SOL    HW234495   9.005   8.896   4.666
44200SOL     OW34496   8.907  14.532   3.706
44200SOL    HW134497   8.894  14.590   3.781
44200SOL    HW234498   8.981  14.477   3.732
44201SOL     OW34499   5.117  11.290   6.560
44201SOL    HW134500   5.095  11.200   6.583
44201SOL    HW234501   5.066  11.307   6.480
44202SOL     OW34502  11.057   5.560  12.045
44202SOL    HW134503  11.084   5.605  12.125
44202SOL    HW234504  11.136   5.556  11.992
44203SOL     OW34505   6.107  11.112  13.111
44203SOL    HW134506   6.021  11.120  13.152
44203SOL    HW234507   6.168  11.110  13.185
44204SOL     OW34508  10.387   9.813   3.236
44204SOL    HW134509  10.431   9.857   3.309
44204SOL    HW234510  10.315   9.871   3.213
44205SOL     OW34511   4.740   0.168   4.998
44205SOL    HW134512   4.698   0.249   5.026
44205SOL    HW234513   4.672   0.122   4.948
44206SOL     OW34514  11.142  10.028  14.440
44206SOL    HW134515  11.230   9.995  14.423
44206SOL    HW234516  11.085   9.966  14.394
44207SOL     OW34517   7.651   7.746  13.738
44207SOL    HW134518   7.743   7.743  13.766
44207SOL    HW234519   7.628   7.839  13.742
44208SOL     OW34520   5.556  10.739  13.893
44208SOL    HW134521   5.629  10.799  13.897
44208SOL    HW234522   5.485  10.789  13.851
44209SOL     OW34523   6.869   2.880  13.633
44209SOL    HW134524   6.925   2.940  13.682
44209SOL    HW234525   6.915   2.869  13.549
44210SOL     OW34526  11.598   1.826   1.388
44210SOL    HW134527  11.523   1.817   1.447
44210SOL    HW234528  11.615   1.920   1.385
44211SOL     OW34529   3.612   4.963  11.055
44211SOL    HW134530   3.547   4.930  11.118
44211SOL    HW234531   3.640   5.047  11.091
44212SOL     OW34532   6.339   8.775  11.625
44212SOL    HW134533   6.311   8.755  11.536
44212SOL    HW234534   6.359   8.690  11.663
44213SOL     OW34535   0.065  11.048   7.645
44213SOL    HW134536   0.018  11.043   7.728
44213SOL    HW234537   0.153  11.016   7.665
44214SOL     OW34538   6.153   0.086  10.936
44214SOL    HW134539   6.215   0.057  10.869
44214SOL    HW234540   6.208   0.125  11.004
44215SOL     OW34541   1.567   6.348   4.503
44215SOL    HW134542   1.637   6.290   4.532
44215SOL    HW234543   1.570   6.342   4.407
44216SOL     OW34544   9.281  10.355   3.060
44216SOL    HW134545   9.187  10.368   3.069
44216SOL    HW234546   9.295  10.342   2.966
44217SOL     OW34547   9.383   1.238  13.467
44217SOL    HW134548   9.291   1.263  13.460
44217SOL    HW234549   9.386   1.182  13.544
44218SOL     OW34550   5.296   6.464  14.634
44218SOL    HW134551   5.237   6.466  14.708
44218SOL    HW234552   5.335   6.552  14.632
44219SOL     OW34553   8.929   2.585  12.475
44219SOL    HW134554   8.852   2.530  12.491
44219SOL    HW234555   8.906   2.670  12.513
44220SOL     OW34556  10.530   4.262   5.230
44220SOL    HW134557  10.446   4.271   5.274
44220SOL    HW234558  10.587   4.325   5.273
44221SOL     OW34559  14.519   8.214   6.126
44221SOL    HW134560  14.428   8.236   6.105
44221SOL    HW234561  14.525   8.223   6.221
44222SOL     OW34562   2.031   4.259  12.789
44222SOL    HW134563   1.984   4.183  12.755
44222SOL    HW234564   2.072   4.298  12.712
44223SOL     OW34565  10.684   3.070   4.079
44223SOL    HW134566  10.746   2.998   4.088
44223SOL    HW234567  10.724   3.128   4.014
44224SOL     OW34568  14.157  11.160   8.182
44224SOL    HW134569  14.090  11.120   8.126
44224SOL    HW234570  14.178  11.242   8.138
44225SOL     OW34571  10.444   6.412  12.481
44225SOL    HW134572  10.513   6.353  12.510
44225SOL    HW234573  10.396   6.362  12.415
44226SOL     OW34574   6.901  11.653   4.227
44226SOL    HW134575   6.851  11.576   4.202
44226SOL    HW234576   6.948  11.679   4.147
44227SOL     OW34577  14.674  10.149   5.777
44227SOL    HW134578  14.714  10.077   5.826
44227SOL    HW234579  14.713  10.228   5.814
44228SOL     OW34580   9.850   6.424   8.941
44228SOL    HW134581   9.797   6.503   8.947
44228SOL    HW234582   9.801   6.358   8.991
44229SOL     OW34583   8.315   4.382   4.511
44229SOL    HW134584   8.264   4.452   4.470
44229SOL    HW234585   8.259   4.349   4.580
44230SOL     OW34586   1.177   4.346   5.996
44230SOL    HW134587   1.151   4.372   6.084
44230SOL    HW234588   1.130   4.264   5.980
44231SOL     OW34589  10.693   5.375   9.868
44231SOL    HW134590  10.662   5.461   9.840
44231SOL    HW234591  10.613   5.326   9.887
44232SOL     OW34592   8.318   9.472   7.015
44232SOL    HW134593   8.391   9.416   6.988
44232SOL    HW234594   8.256   9.467   6.942
44233SOL     OW34595  13.969   0.472  13.648
44233SOL    HW134596  13.986   0.408  13.718
44233SOL    HW234597  13.906   0.533  13.686
44234SOL     OW34598   6.571  12.522   6.914
44234SOL    HW134599   6.538  12.432   6.906
44234SOL    HW234600   6.657  12.512   6.954
44235SOL     OW34601   3.356  13.513  12.493
44235SOL    HW134602   3.438  13.562  12.485
44235SOL    HW234603   3.379  13.436  12.545
44236SOL     OW34604   6.449  13.076  10.064
44236SOL    HW134605   6.416  12.987  10.068
44236SOL    HW234606   6.379  13.126  10.022
44237SOL     OW34607  12.621   8.140   0.667
44237SOL    HW134608  12.669   8.072   0.715
44237SOL    HW234609  12.689   8.202   0.640
44238SOL     OW34610   9.289   3.345  11.902
44238SOL    HW134611   9.196   3.357  11.921
44238SOL    HW234612   9.335   3.384  11.976
44239SOL     OW34613   0.721  13.782   2.741
44239SOL    HW134614   0.732  13.758   2.650
44239SOL    HW234615   0.755  13.872   2.747
44240SOL     OW34616  12.382   1.238   1.330
44240SOL    HW134617  12.332   1.320   1.332
44240SOL    HW234618  12.345   1.189   1.256
44241SOL     OW34619  10.852   6.346   0.636
44241SOL    HW134620  10.821   6.401   0.565
44241SOL    HW234621  10.905   6.403   0.690
44242SOL     OW34622  14.701   4.960   4.912
44242SOL    HW134623  14.648   5.036   4.889
44242SOL    HW234624  14.786   4.975   4.870
44243SOL     OW34625   9.601   5.513   3.065
44243SOL    HW134626   9.676   5.510   3.125
44243SOL    HW234627   9.614   5.593   3.014
44244SOL     OW34628   0.099   0.569   5.715
44244SOL    HW134629   0.007   0.560   5.690
44244SOL    HW234630   0.141   0.489   5.684
44245SOL     OW34631  11.696   3.126   5.870
44245SOL    HW134632  11.691   3.136   5.965
44245SOL    HW234633  11.605   3.119   5.842
44246SOL     OW34634   7.424   9.015   3.704
44246SOL    HW134635   7.400   8.933   3.747
44246SOL    HW234636   7.453   8.989   3.617
44247SOL     OW34637   4.751   1.622   8.786
44247SOL    HW134638   4.792   1.573   8.716
44247SOL    HW234639   4.670   1.575   8.805
44248SOL     OW34640  14.776  14.028  13.646
44248SOL    HW134641  14.791  14.096  13.712
44248SOL    HW234642  14.767  13.947  13.698
44249SOL     OW34643   7.861   6.424   3.066
44249SOL    HW134644   7.831   6.348   3.018
44249SOL    HW234645   7.782   6.461   3.106
44250SOL     OW34646   6.353  11.757   8.993
44250SOL    HW134647   6.442  11.783   8.967
44250SOL    HW234648   6.346  11.665   8.965
44251SOL     OW34649  10.156  13.534   2.642
44251SOL    HW134650  10.235  13.563   2.688
44251SOL    HW234651  10.097  13.503   2.712
44252SOL     OW34652   5.364   4.580   9.254
44252SOL    HW134653   5.271   4.600   9.239
44252SOL    HW234654   5.387   4.518   9.184
44253SOL     OW34655   8.370  11.879   8.507
44253SOL    HW134656   8.452  11.928   8.498
44253SOL    HW234657   8.373  11.815   8.436
44254SOL     OW34658  14.833   5.512  13.761
44254SOL    HW134659   0.018   5.469  13.694
44254SOL    HW234660  14.866   5.602  13.764
44255SOL     OW34661   2.291  11.748   7.360
44255SOL    HW134662   2.318  11.683   7.425
44255SOL    HW234663   2.202  11.721   7.335
44256SOL     OW34664   2.624   0.328   4.757
44256SOL    HW134665   2.716   0.340   4.736
44256SOL    HW234666   2.624   0.267   4.831
44257SOL     OW34667  10.717  13.048   9.006
44257SOL    HW134668  10.802  13.032   9.048
44257SOL    HW234669  10.723  13.138   8.973
44258SOL     OW34670  11.325  14.314   0.783
44258SOL    HW134671  11.343  14.221   0.771
44258SOL    HW234672  11.232  14.317   0.806
44259SOL     OW34673   6.923   6.870   3.085
44259SOL    HW134674   6.903   6.818   3.007
44259SOL    HW234675   6.963   6.808   3.146
44260SOL     OW34676   1.008  13.541   9.737
44260SOL    HW134677   0.998  13.486   9.815
44260SOL    HW234678   0.962  13.493   9.668
44261SOL     OW34679   0.983   6.604  10.156
44261SOL    HW134680   0.977   6.678  10.096
44261SOL    HW234681   1.074   6.603  10.184
44262SOL     OW34682  13.840   2.279  10.349
44262SOL    HW134683  13.761   2.266  10.297
44262SOL    HW234684  13.885   2.352  10.306
44263SOL     OW34685   3.541   5.412   6.131
44263SOL    HW134686   3.575   5.372   6.051
44263SOL    HW234687   3.568   5.353   6.201
44264SOL     OW34688   1.927   4.136   1.990
44264SOL    HW134689   2.009   4.086   1.987
44264SOL    HW234690   1.953   4.220   2.027
44265SOL     OW34691   1.607   5.345   7.726
44265SOL    HW134692   1.634   5.383   7.642
44265SOL    HW234693   1.616   5.416   7.789
44266SOL     OW34694  14.391   4.647   0.694
44266SOL    HW134695  14.411   4.725   0.643
44266SOL    HW234696  14.317   4.607   0.648
44267SOL     OW34697   3.246   1.486   8.907
44267SOL    HW134698   3.312   1.520   8.968
44267SOL    HW234699   3.195   1.563   8.882
44268SOL     OW34700   7.458   4.603   0.039
44268SOL    HW134701   7.540   4.570   0.077
44268SOL    HW234702   7.462   4.575  14.817
44269SOL     OW34703   3.878   0.249   9.845
44269SOL    HW134704   3.971   0.230   9.847
44269SOL    HW234705   3.854   0.239   9.753
44270SOL     OW34706   7.193   0.166   8.390
44270SOL    HW134707   7.189   0.261   8.383
44270SOL    HW234708   7.104   0.136   8.373
44271SOL     OW34709   9.809   4.988   4.281
44271SOL    HW134710   9.771   5.026   4.360
44271SOL    HW234711   9.787   5.050   4.211
44272SOL     OW34712  12.032  10.037   4.459
44272SOL    HW134713  12.074  10.097   4.520
44272SOL    HW234714  12.082  10.045   4.378
44273SOL     OW34715   9.178   3.810   4.777
44273SOL    HW134716   9.113   3.815   4.707
44273SOL    HW234717   9.174   3.896   4.820
44274SOL     OW34718   2.484   0.206   1.954
44274SOL    HW134719   2.420   0.258   2.002
44274SOL    HW234720   2.543   0.270   1.915
44275SOL     OW34721   6.478   8.459  12.513
44275SOL    HW134722   6.416   8.503  12.572
44275SOL    HW234723   6.463   8.501  12.428
44276SOL     OW34724   9.489   7.675  14.728
44276SOL    HW134725   9.450   7.691  14.642
44276SOL    HW234726   9.426   7.619  14.773
44277SOL     OW34727   3.203   2.699   5.738
44277SOL    HW134728   3.289   2.676   5.774
44277SOL    HW234729   3.182   2.783   5.779
44278SOL     OW34730   2.830   2.766  13.862
44278SOL    HW134731   2.742   2.755  13.825
44278SOL    HW234732   2.853   2.857  13.843
44279SOL     OW34733   1.537   5.056   2.641
44279SOL    HW134734   1.525   4.998   2.715
44279SOL    HW234735   1.459   5.111   2.640
44280SOL     OW34736  12.888   0.056   0.353
44280SOL    HW134737  12.944   0.110   0.408
44280SOL    HW234738  12.909   0.084   0.263
44281SOL     OW34739   6.237   7.886   2.365
44281SOL    HW134740   6.173   7.831   2.410
44281SOL    HW234741   6.211   7.975   2.387
44282SOL     OW34742   3.521   4.164   3.469
44282SOL    HW134743   3.538   4.226   3.540
44282SOL    HW234744   3.596   4.105   3.471
44283SOL     OW34745  11.924   1.282   3.158
44283SOL    HW134746  11.980   1.357   3.136
44283SOL    HW234747  11.861   1.317   3.222
44284SOL     OW34748  12.320   9.766  11.270
44284SOL    HW134749  12.372   9.806  11.200
44284SOL    HW234750  12.250   9.828  11.286
44285SOL     OW34751   9.543   4.181   5.177
44285SOL    HW134752   9.622   4.215   5.220
44285SOL    HW234753   9.547   4.217   5.088
44286SOL     OW34754   8.014   3.732   5.265
44286SOL    HW134755   8.069   3.718   5.188
44286SOL    HW234756   8.019   3.649   5.314
44287SOL     OW34757   0.666   4.349  10.865
44287SOL    HW134758   0.656   4.332  10.959
44287SOL    HW234759   0.705   4.269  10.830
44288SOL     OW34760   1.564  10.079   7.447
44288SOL    HW134761   1.508  10.124   7.510
44288SOL    HW234762   1.616  10.148   7.407
44289SOL     OW34763   3.607  14.343  11.239
44289SOL    HW134764   3.598  14.307  11.328
44289SOL    HW234765   3.657  14.276  11.192
44290SOL     OW34766   3.923   2.892   7.128
44290SOL    HW134767   3.836   2.932   7.123
44290SOL    HW234768   3.945   2.870   7.038
44291SOL     OW34769   1.733   7.625  11.449
44291SOL    HW134770   1.684   7.543  11.444
44291SOL    HW234771   1.823   7.601  11.428
44292SOL     OW34772   9.702   1.714   0.803
44292SOL    HW134773   9.704   1.665   0.884
44292SOL    HW234774   9.691   1.648   0.734
44293SOL     OW34775   1.395   2.500   1.761
44293SOL    HW134776   1.308   2.540   1.750
44293SOL    HW234777   1.441   2.559   1.820
44294SOL     OW34778   1.482  14.865  10.345
44294SOL    HW134779   1.471   0.090  10.331
44294SOL    HW234780   1.555  14.841  10.288
44295SOL     OW34781   9.534  11.836  14.084
44295SOL    HW134782   9.488  11.875  14.158
44295SOL    HW234783   9.569  11.911  14.035
44296SOL     OW34784  13.201   3.765   9.568
44296SOL    HW134785  13.143   3.840   9.568
44296SOL    HW234786  13.147   3.692   9.537
44297SOL     OW34787   9.150  10.865   1.668
44297SOL    HW134788   9.245  10.869   1.659
44297SOL    HW234789   9.117  10.918   1.595
44298SOL     OW34790   9.484  12.268   0.687
44298SOL    HW134791   9.504  12.184   0.729
44298SOL    HW234792   9.569  12.311   0.678
44299SOL     OW34793  13.559   9.065   1.631
44299SOL    HW134794  13.583   9.071   1.538
44299SOL    HW234795  13.487   9.002   1.633
44300SOL     OW34796   9.802   9.012   0.327
44300SOL    HW134797   9.738   9.042   0.262
44300SOL    HW234798   9.834   8.929   0.291
44301SOL     OW34799  11.761  10.861   2.639
44301SOL    HW134800  11.766  10.773   2.678
44301SOL    HW234801  11.853  10.888   2.631
44302SOL     OW34802   6.729   6.683   9.100
44302SOL    HW134803   6.636   6.702   9.113
44302SOL    HW234804   6.730   6.616   9.032
44303SOL     OW34805   1.491   0.141  14.513
44303SOL    HW134806   1.401   0.109  14.503
44303SOL    HW234807   1.528   0.136  14.425
44304SOL     OW34808   8.753   8.134   7.161
44304SOL    HW134809   8.727   8.141   7.070
44304SOL    HW234810   8.797   8.049   7.167
44305SOL     OW34811  14.516  10.207   8.098
44305SOL    HW134812  14.535  10.180   8.008
44305SOL    HW234813  14.478  10.129   8.139
44306SOL     OW34814   7.694   6.130   4.221
44306SOL    HW134815   7.760   6.062   4.237
44306SOL    HW234816   7.687   6.176   4.305
44307SOL     OW34817  12.327   6.234  13.972
44307SOL    HW134818  12.370   6.286  13.904
44307SOL    HW234819  12.351   6.278  14.054
44308SOL     OW34820   4.366   9.663   9.514
44308SOL    HW134821   4.396   9.722   9.583
44308SOL    HW234822   4.408   9.579   9.534
44309SOL     OW34823   3.096   4.831  10.086
44309SOL    HW134824   3.073   4.906  10.033
44309SOL    HW234825   3.132   4.869  10.167
44310SOL     OW34826  13.662   5.118   0.032
44310SOL    HW134827  13.572   5.134   0.060
44310SOL    HW234828  13.706   5.203   0.039
44311SOL     OW34829   1.445   7.383   2.023
44311SOL    HW134830   1.536   7.384   2.052
44311SOL    HW234831   1.396   7.353   2.099
44312SOL     OW34832  11.029   5.050   9.035
44312SOL    HW134833  11.120   5.030   9.056
44312SOL    HW234834  11.031   5.140   9.004
44313SOL     OW34835   6.620  13.387   2.828
44313SOL    HW134836   6.652  13.391   2.738
44313SOL    HW234837   6.699  13.383   2.881
44314SOL     OW34838   8.914  10.114   9.212
44314SOL    HW134839   8.896  10.054   9.284
44314SOL    HW234840   9.001  10.090   9.181
44315SOL     OW34841  12.158   5.756   6.567
44315SOL    HW134842  12.180   5.806   6.489
44315SOL    HW234843  12.219   5.682   6.566
44316SOL     OW34844   0.170   1.050   6.706
44316SOL    HW134845   0.092   1.011   6.665
44316SOL    HW234846   0.200   0.982   6.766
44317SOL     OW34847  13.005  13.639  14.540
44317SOL    HW134848  12.991  13.605  14.628
44317SOL    HW234849  13.082  13.592  14.508
44318SOL     OW34850   2.157   2.922   6.208
44318SOL    HW134851   2.100   2.953   6.279
44318SOL    HW234852   2.115   2.956   6.128
44319SOL     OW34853   8.029   0.471  12.280
44319SOL    HW134854   7.955   0.417  12.254
44319SOL    HW234855   7.990   0.551  12.315
44320SOL     OW34856   7.169  13.318   5.558
44320SOL    HW134857   7.086  13.274   5.543
44320SOL    HW234858   7.231  13.275   5.498
44321SOL     OW34859  11.301   5.967  10.835
44321SOL    HW134860  11.259   5.894  10.789
44321SOL    HW234861  11.229   6.026  10.857
44322SOL     OW34862   2.789   8.826   2.004
44322SOL    HW134863   2.708   8.779   2.023
44322SOL    HW234864   2.818   8.858   2.089
44323SOL     OW34865   5.236   2.557   9.422
44323SOL    HW134866   5.245   2.623   9.353
44323SOL    HW234867   5.321   2.511   9.422
44324SOL     OW34868   5.210   7.790   0.938
44324SOL    HW134869   5.203   7.725   0.867
44324SOL    HW234870   5.121   7.797   0.972
44325SOL     OW34871  10.976   7.983   3.299
44325SOL    HW134872  10.920   8.058   3.281
44325SOL    HW234873  11.052   8.019   3.344
44326SOL     OW34874   9.153   2.218   3.626
44326SOL    HW134875   9.178   2.218   3.533
44326SOL    HW234876   9.160   2.309   3.653
44327SOL     OW34877   7.294   2.884  11.811
44327SOL    HW134878   7.250   2.955  11.858
44327SOL    HW234879   7.377   2.923  11.782
44328SOL     OW34880   1.218   6.911  10.206
44328SOL    HW134881   1.265   6.992  10.190
44328SOL    HW234882   1.141   6.915  10.150
44329SOL     OW34883  10.340   1.128   1.933
44329SOL    HW134884  10.268   1.122   1.996
44329SOL    HW234885  10.338   1.045   1.886
44330SOL     OW34886  12.664   3.408  11.931
44330SOL    HW134887  12.697   3.478  11.986
44330SOL    HW234888  12.627   3.453  11.855
44331SOL     OW34889   1.873  10.211   4.894
44331SOL    HW134890   1.862  10.202   4.989
44331SOL    HW234891   1.966  10.229   4.882
44332SOL     OW34892   4.186  11.664   9.852
44332SOL    HW134893   4.241  11.743   9.860
44332SOL    HW234894   4.097  11.698   9.844
44333SOL     OW34895   1.426   2.047   7.210
44333SOL    HW134896   1.486   2.033   7.137
44333SOL    HW234897   1.341   2.064   7.168
44334SOL     OW34898   0.741  10.091   0.646
44334SOL    HW134899   0.797  10.014   0.635
44334SOL    HW234900   0.773  10.153   0.581
44335SOL     OW34901   2.494  10.859  10.773
44335SOL    HW134902   2.469  10.780  10.822
44335SOL    HW234903   2.565  10.831  10.716
44336SOL     OW34904   5.374  14.174  13.093
44336SOL    HW134905   5.362  14.269  13.085
44336SOL    HW234906   5.444  14.164  13.158
44337SOL     OW34907  10.454  11.718   3.026
44337SOL    HW134908  10.393  11.681   2.962
44337SOL    HW234909  10.400  11.776   3.080
44338SOL     OW34910  13.588   0.332  11.173
44338SOL    HW134911  13.533   0.254  11.181
44338SOL    HW234912  13.569   0.367  11.086
44339SOL     OW34913   9.216  12.960   2.279
44339SOL    HW134914   9.215  12.868   2.254
44339SOL    HW234915   9.212  13.007   2.195
44340SOL     OW34916   5.919   8.978   9.754
44340SOL    HW134917   5.870   8.934   9.684
44340SOL    HW234918   5.995   8.921   9.769
44341SOL     OW34919   1.039  13.618   2.954
44341SOL    HW134920   1.060  13.640   2.863
44341SOL    HW234921   1.105  13.664   3.006
44342SOL     OW34922   9.453   4.332  13.495
44342SOL    HW134923   9.534   4.299  13.533
44342SOL    HW234924   9.388   4.321  13.565
44343SOL     OW34925  12.158   1.254   5.545
44343SOL    HW134926  12.177   1.162   5.528
44343SOL    HW234927  12.173   1.298   5.462
44344SOL     OW34928   3.778   8.512  14.510
44344SOL    HW134929   3.869   8.536  14.490
44344SOL    HW234930   3.782   8.419  14.532
44345SOL     OW34931   3.273   3.169   8.279
44345SOL    HW134932   3.328   3.208   8.347
44345SOL    HW234933   3.297   3.076   8.279
44346SOL     OW34934   2.167   3.404  12.158
44346SOL    HW134935   2.089   3.354  12.134
44346SOL    HW234936   2.203   3.358  12.234
44347SOL     OW34937   4.491  13.421  13.501
44347SOL    HW134938   4.460  13.366  13.430
44347SOL    HW234939   4.582  13.441  13.479
44348SOL     OW34940   1.077   1.306   5.986
44348SOL    HW134941   1.150   1.346   6.033
44348SOL    HW234942   1.107   1.218   5.965
44349SOL     OW34943   4.727   7.583   9.773
44349SOL    HW134944   4.745   7.525   9.847
44349SOL    HW234945   4.757   7.669   9.802
44350SOL     OW34946   8.784   4.633   9.732
44350SOL    HW134947   8.787   4.655   9.825
44350SOL    HW234948   8.805   4.715   9.688
44351SOL     OW34949   6.399   3.306   8.969
44351SOL    HW134950   6.472   3.291   9.029
44351SOL    HW234951   6.403   3.400   8.950
44352SOL     OW34952   1.644  12.095   4.662
44352SOL    HW134953   1.568  12.038   4.653
44352SOL    HW234954   1.646  12.118   4.755
44353SOL     OW34955   6.520   3.176   3.210
44353SOL    HW134956   6.535   3.196   3.303
44353SOL    HW234957   6.454   3.108   3.211
44354SOL     OW34958   5.242  14.704   3.563
44354SOL    HW134959   5.235  14.617   3.522
44354SOL    HW234960   5.322  14.741   3.525
44355SOL     OW34961   8.550   4.234   6.436
44355SOL    HW134962   8.480   4.297   6.416
44355SOL    HW234963   8.629   4.275   6.401
44356SOL     OW34964   2.618  13.003   6.702
44356SOL    HW134965   2.696  13.058   6.700
44356SOL    HW234966   2.545  13.066   6.701
44357SOL     OW34967   0.911   8.182   8.050
44357SOL    HW134968   0.961   8.101   8.062
44357SOL    HW234969   0.907   8.194   7.955
44358SOL     OW34970   6.081  12.636   9.560
44358SOL    HW134971   6.118  12.587   9.486
44358SOL    HW234972   6.137  12.612   9.634
44359SOL     OW34973   5.627   6.358   1.747
44359SOL    HW134974   5.617   6.268   1.777
44359SOL    HW234975   5.595   6.411   1.819
44360SOL     OW34976  10.441  12.720   9.520
44360SOL    HW134977  10.441  12.755   9.430
44360SOL    HW234978  10.507  12.651   9.518
44361SOL     OW34979   3.583   8.808  12.135
44361SOL    HW134980   3.654   8.785  12.075
44361SOL    HW234981   3.546   8.888  12.098
44362SOL     OW34982  13.074   6.141   5.169
44362SOL    HW134983  13.011   6.149   5.097
44362SOL    HW234984  13.141   6.207   5.149
44363SOL     OW34985   9.982   3.205   8.003
44363SOL    HW134986   9.951   3.295   8.012
44363SOL    HW234987  10.077   3.213   7.988
44364SOL     OW34988   1.146   5.924   5.143
44364SOL    HW134989   1.073   5.985   5.147
44364SOL    HW234990   1.208   5.964   5.082
44365SOL     OW34991  14.845  10.028  11.137
44365SOL    HW134992  14.760  10.051  11.175
44365SOL    HW234993  14.856  10.089  11.064
44366SOL     OW34994  11.552   5.243   7.556
44366SOL    HW134995  11.511   5.324   7.525
44366SOL    HW234996  11.489   5.174   7.533
44367SOL     OW34997   7.749   8.793   6.787
44367SOL    HW134998   7.841   8.803   6.811
44367SOL    HW234999   7.750   8.727   6.717
44368SOL     OW35000   0.248   6.570  14.747
44368SOL    HW135001   0.338   6.604  14.745
44368SOL    HW235002   0.240   6.528  14.832
44369SOL     OW35003  10.570   0.981  11.611
44369SOL    HW135004  10.552   1.023  11.695
44369SOL    HW235005  10.540   1.045  11.546
44370SOL     OW35006  13.667  12.126  11.318
44370SOL    HW135007  13.729  12.184  11.362
44370SOL    HW235008  13.709  12.105  11.235
44371SOL     OW35009   9.888  10.068   6.030
44371SOL    HW135010   9.974  10.088   6.068
44371SOL    HW235011   9.900  10.082   5.936
44372SOL     OW35012   1.478   1.230  13.478
44372SOL    HW135013   1.450   1.194  13.562
44372SOL    HW235014   1.399   1.233  13.425
44373SOL     OW35015   8.373   1.771   8.965
44373SOL    HW135016   8.416   1.782   9.049
44373SOL    HW235017   8.280   1.759   8.986
44374SOL     OW35018   4.127   3.290  10.030
44374SOL    HW135019   4.178   3.210  10.038
44374SOL    HW235020   4.062   3.285  10.101
44375SOL     OW35021   1.724   3.067   5.107
44375SOL    HW135022   1.808   3.026   5.088
44375SOL    HW235023   1.688   3.089   5.021
44376SOL     OW35024  14.371   3.925   7.887
44376SOL    HW135025  14.335   4.008   7.857
44376SOL    HW235026  14.380   3.936   7.982
44377SOL     OW35027   4.405   2.062  11.512
44377SOL    HW135028   4.312   2.068  11.489
44377SOL    HW235029   4.449   2.049  11.428
44378SOL     OW35030   3.866   3.399  12.801
44378SOL    HW135031   3.924   3.340  12.752
44378SOL    HW235032   3.778   3.366  12.782
44379SOL     OW35033  12.821   5.745  11.896
44379SOL    HW135034  12.864   5.748  11.811
44379SOL    HW235035  12.792   5.654  11.905
44380SOL     OW35036   7.392   5.825   5.148
44380SOL    HW135037   7.438   5.908   5.134
44380SOL    HW235038   7.318   5.828   5.089
44381SOL     OW35039  11.925  14.148   1.509
44381SOL    HW135040  11.991  14.094   1.466
44381SOL    HW235041  11.961  14.166   1.596
44382SOL     OW35042   2.698   6.492  12.255
44382SOL    HW135043   2.743   6.457  12.178
44382SOL    HW235044   2.705   6.587  12.246
44383SOL     OW35045   8.223   2.771   2.044
44383SOL    HW135046   8.152   2.812   1.996
44383SOL    HW235047   8.289   2.750   1.978
44384SOL     OW35048   5.987   0.471  14.134
44384SOL    HW135049   6.008   0.564  14.150
44384SOL    HW235050   5.928   0.472  14.059
44385SOL     OW35051  12.654   7.234  12.480
44385SOL    HW135052  12.736   7.234  12.530
44385SOL    HW235053  12.590   7.275  12.538
44386SOL     OW35054   4.063  13.838   3.272
44386SOL    HW135055   4.077  13.875   3.359
44386SOL    HW235056   4.068  13.743   3.284
44387SOL     OW35057   5.216   0.597  13.479
44387SOL    HW135058   5.168   0.595  13.396
44387SOL    HW235059   5.211   0.507  13.511
44388SOL     OW35060   1.201  10.086   6.322
44388SOL    HW135061   1.141  10.012   6.312
44388SOL    HW235062   1.224  10.111   6.233
44389SOL     OW35063  12.593   5.104   5.253
44389SOL    HW135064  12.542   5.087   5.331
44389SOL    HW235065  12.624   5.018   5.224
44390SOL     OW35066  14.175   4.898   3.917
44390SOL    HW135067  14.223   4.818   3.940
44390SOL    HW235068  14.230   4.969   3.949
44391SOL     OW35069  13.245   0.628   5.278
44391SOL    HW135070  13.332   0.668   5.281
44391SOL    HW235071  13.189   0.691   5.324
44392SOL     OW35072   6.566  13.726  12.492
44392SOL    HW135073   6.624  13.799  12.475
44392SOL    HW235074   6.605  13.680  12.566
44393SOL     OW35075   9.418   2.659   4.819
44393SOL    HW135076   9.429   2.729   4.755
44393SOL    HW235077   9.504   2.651   4.860
44394SOL     OW35078   9.505  12.716   0.166
44394SOL    HW135079   9.582  12.708   0.111
44394SOL    HW235080   9.520  12.655   0.238
44395SOL     OW35081   6.085  11.719   6.237
44395SOL    HW135082   6.159  11.685   6.287
44395SOL    HW235083   6.084  11.812   6.257
44396SOL     OW35084   7.097  11.988  14.245
44396SOL    HW135085   7.008  11.980  14.212
44396SOL    HW235086   7.114  12.083  14.245
44397SOL     OW35087   5.901   6.435   7.162
44397SOL    HW135088   5.976   6.452   7.219
44397SOL    HW235089   5.853   6.365   7.206
44398SOL     OW35090   4.550   3.434   7.166
44398SOL    HW135091   4.593   3.479   7.094
44398SOL    HW235092   4.612   3.441   7.239
44399SOL     OW35093   4.605   8.896   4.186
44399SOL    HW135094   4.576   8.834   4.252
44399SOL    HW235095   4.567   8.980   4.212
44400SOL     OW35096   4.015   6.129  10.664
44400SOL    HW135097   4.026   6.072  10.588
44400SOL    HW235098   4.011   6.070  10.738
44401SOL     OW35099  10.086  10.944   0.348
44401SOL    HW135100  10.166  10.938   0.399
44401SOL    HW235101  10.093  11.027   0.301
44402SOL     OW35102   3.627   9.878  14.804
44402SOL    HW135103   3.581   9.957  14.777
44402SOL    HW235104   3.681   9.906   0.009
44403SOL     OW35105  13.034   0.565   5.130
44403SOL    HW135106  12.993   0.651   5.119
44403SOL    HW235107  13.121   0.584   5.163
44404SOL     OW35108   9.654  14.534  11.745
44404SOL    HW135109   9.571  14.487  11.758
44404SOL    HW235110   9.721  14.467  11.758
44405SOL     OW35111  12.464   1.660   8.465
44405SOL    HW135112  12.508   1.660   8.550
44405SOL    HW235113  12.372   1.678   8.485
44406SOL     OW35114  12.429  13.164   5.435
44406SOL    HW135115  12.347  13.209   5.453
44406SOL    HW235116  12.420  13.132   5.345
44407SOL     OW35117   6.756   4.764   1.464
44407SOL    HW135118   6.776   4.726   1.549
44407SOL    HW235119   6.711   4.846   1.485
44408SOL     OW35120  11.274  12.570  12.307
44408SOL    HW135121  11.353  12.546  12.257
44408SOL    HW235122  11.240  12.647  12.262
44409SOL     OW35123   3.347   2.343  11.628
44409SOL    HW135124   3.375   2.294  11.706
44409SOL    HW235125   3.429   2.367  11.584
44410SOL     OW35126  12.382   2.143   8.444
44410SOL    HW135127  12.456   2.202   8.455
44410SOL    HW235128  12.419   2.064   8.404
44411SOL     OW35129   1.113  14.794   0.993
44411SOL    HW135130   1.200  14.825   0.969
44411SOL    HW235131   1.087  14.739   0.919
44412SOL     OW35132   5.908   0.482   7.250
44412SOL    HW135133   5.822   0.523   7.235
44412SOL    HW235134   5.931   0.506   7.339
44413SOL     OW35135   1.090   4.557   1.062
44413SOL    HW135136   1.014   4.611   1.085
44413SOL    HW235137   1.059   4.467   1.069
44414SOL     OW35138  12.296   2.768  12.296
44414SOL    HW135139  12.323   2.802  12.381
44414SOL    HW235140  12.280   2.675  12.311
44415SOL     OW35141   6.562   9.041   5.909
44415SOL    HW135142   6.581   9.130   5.880
44415SOL    HW235143   6.474   9.046   5.948
44416SOL     OW35144   3.475   6.875  14.066
44416SOL    HW135145   3.411   6.944  14.081
44416SOL    HW235146   3.428   6.793  14.082
44417SOL     OW35147  11.124   4.744   3.383
44417SOL    HW135148  11.065   4.681   3.423
44417SOL    HW235149  11.124   4.819   3.443
44418SOL     OW35150  13.333  10.701  11.131
44418SOL    HW135151  13.333  10.756  11.053
44418SOL    HW235152  13.246  10.714  11.169
44419SOL     OW35153   1.158  12.254   1.002
44419SOL    HW135154   1.148  12.233   0.909
44419SOL    HW235155   1.120  12.341   1.012
44420SOL     OW35156   2.310   0.146  14.476
44420SOL    HW135157   2.283   0.225  14.522
44420SOL    HW235158   2.264   0.075  14.521
44421SOL     OW35159   0.075   8.645   9.840
44421SOL    HW135160   0.042   8.723   9.795
44421SOL    HW235161   0.116   8.679   9.919
44422SOL     OW35162  14.508  14.228  11.579
44422SOL    HW135163  14.429  14.246  11.528
44422SOL    HW235164  14.522  14.134  11.569
44423SOL     OW35165  14.524  10.105  10.099
44423SOL    HW135166  14.480  10.045  10.038
44423SOL    HW235167  14.533  10.054  10.179
44424SOL     OW35168  11.039   7.704   1.623
44424SOL    HW135169  11.134   7.695   1.622
44424SOL    HW235170  11.011   7.672   1.537
44425SOL     OW35171  11.467   6.926   4.787
44425SOL    HW135172  11.468   6.848   4.730
44425SOL    HW235173  11.507   6.994   4.733
44426SOL     OW35174   4.601  13.391   5.052
44426SOL    HW135175   4.634  13.331   5.119
44426SOL    HW235176   4.522  13.348   5.019
44427SOL     OW35177   0.797   8.242   7.477
44427SOL    HW135178   0.760   8.330   7.490
44427SOL    HW235179   0.738   8.184   7.525
44428SOL     OW35180   2.118   1.500   8.579
44428SOL    HW135181   2.191   1.546   8.619
44428SOL    HW235182   2.085   1.560   8.512
44429SOL     OW35183   4.586   0.743  11.451
44429SOL    HW135184   4.514   0.762  11.511
44429SOL    HW235185   4.641   0.821  11.454
44430SOL     OW35186  10.102  13.975  11.317
44430SOL    HW135187  10.045  13.983  11.394
44430SOL    HW235188  10.043  13.981  11.242
44431SOL     OW35189   8.583  12.032   7.264
44431SOL    HW135190   8.656  12.093   7.261
44431SOL    HW235191   8.505  12.088   7.265
44432SOL     OW35192   5.401  12.437   3.202
44432SOL    HW135193   5.395  12.471   3.291
44432SOL    HW235194   5.353  12.501   3.149
44433SOL     OW35195   4.799   1.191   4.766
44433SOL    HW135196   4.708   1.218   4.750
44433SOL    HW235197   4.794   1.096   4.779
44434SOL     OW35198   5.320  10.516   9.963
44434SOL    HW135199   5.336  10.430   9.926
44434SOL    HW235200   5.360  10.512  10.050
44435SOL     OW35201  10.534  12.386   8.564
44435SOL    HW135202  10.487  12.303   8.567
44435SOL    HW235203  10.626  12.362   8.555
44436SOL     OW35204   3.106   8.855  11.370
44436SOL    HW135205   3.172   8.788  11.353
44436SOL    HW235206   3.052   8.857  11.291
44437SOL     OW35207   9.284  11.909   2.555
44437SOL    HW135208   9.247  11.953   2.479
44437SOL    HW235209   9.329  11.978   2.603
44438SOL     OW35210   3.976   2.873  10.442
44438SOL    HW135211   3.982   2.969  10.436
44438SOL    HW235212   4.064   2.842  10.422
44439SOL     OW35213  13.526  11.362   9.632
44439SOL    HW135214  13.596  11.310   9.593
44439SOL    HW235215  13.504  11.426   9.564
44440SOL     OW35216   4.898   1.122   9.975
44440SOL    HW135217   4.949   1.106  10.054
44440SOL    HW235218   4.810   1.091   9.997
44441SOL     OW35219  10.292  14.403   2.460
44441SOL    HW135220  10.305  14.372   2.550
44441SOL    HW235221  10.203  14.374   2.438
44442SOL     OW35222  12.341  14.762  11.780
44442SOL    HW135223  12.248  14.741  11.789
44442SOL    HW235224  12.383  14.720  11.856
44443SOL     OW35225  12.330   5.625   3.760
44443SOL    HW135226  12.289   5.693   3.708
44443SOL    HW235227  12.422   5.651   3.768
44444SOL     OW35228   5.744   4.157   8.019
44444SOL    HW135229   5.756   4.063   8.028
44444SOL    HW235230   5.715   4.169   7.929
44445SOL     OW35231   9.091   1.783   5.174
44445SOL    HW135232   9.171   1.769   5.123
44445SOL    HW235233   9.028   1.819   5.111
44446SOL     OW35234  10.272   9.606   4.453
44446SOL    HW135235  10.344   9.668   4.442
44446SOL    HW235236  10.213   9.623   4.379
44447SOL     OW35237  12.905   1.837   3.879
44447SOL    HW135238  12.814   1.832   3.909
44447SOL    HW235239  12.950   1.887   3.947
44448SOL     OW35240  11.385   3.075  12.873
44448SOL    HW135241  11.343   3.007  12.821
44448SOL    HW235242  11.320   3.145  12.881
44449SOL     OW35243   0.807   8.949   9.989
44449SOL    HW135244   0.898   8.954  10.017
44449SOL    HW235245   0.764   8.894  10.054
44450SOL     OW35246   9.536  13.886  12.267
44450SOL    HW135247   9.445  13.916  12.275
44450SOL    HW235248   9.535  13.822  12.196
44451SOL     OW35249   9.182  12.487   7.821
44451SOL    HW135250   9.145  12.496   7.732
44451SOL    HW235251   9.273  12.516   7.812
44452SOL     OW35252   1.802   9.021  11.586
44452SOL    HW135253   1.726   9.001  11.639
44452SOL    HW235254   1.773   9.008  11.496
44453SOL     OW35255   4.638   7.651   2.235
44453SOL    HW135256   4.698   7.721   2.208
44453SOL    HW235257   4.578   7.694   2.296
44454SOL     OW35258   2.600  13.339   9.672
44454SOL    HW135259   2.610  13.291   9.754
44454SOL    HW235260   2.618  13.273   9.604
44455SOL     OW35261  12.753  10.171   5.227
44455SOL    HW135262  12.723  10.260   5.242
44455SOL    HW235263  12.710  10.144   5.146
44456SOL     OW35264   0.040   1.695  10.110
44456SOL    HW135265   0.001   1.677  10.196
44456SOL    HW235266   0.078   1.612  10.083
44457SOL     OW35267   3.806  10.203  12.245
44457SOL    HW135268   3.747  10.276  12.266
44457SOL    HW235269   3.747  10.129  12.228
44458SOL     OW35270   4.759   3.826   8.717
44458SOL    HW135271   4.757   3.921   8.703
44458SOL    HW235272   4.852   3.805   8.723
44459SOL     OW35273   5.433   1.274   6.730
44459SOL    HW135274   5.386   1.354   6.708
44459SOL    HW235275   5.463   1.288   6.820
44460SOL     OW35276   0.827   5.558   8.762
44460SOL    HW135277   0.802   5.473   8.798
44460SOL    HW235278   0.920   5.548   8.741
44461SOL     OW35279   4.495   4.414   4.575
44461SOL    HW135280   4.400   4.423   4.568
44461SOL    HW235281   4.510   4.319   4.580
44462SOL     OW35282   3.125  13.135   2.260
44462SOL    HW135283   3.075  13.206   2.301
44462SOL    HW235284   3.155  13.082   2.333
44463SOL     OW35285  13.712   8.723  12.304
44463SOL    HW135286  13.697   8.687  12.217
44463SOL    HW235287  13.750   8.810  12.288
44464SOL     OW35288  12.597   8.708  12.442
44464SOL    HW135289  12.646   8.660  12.375
44464SOL    HW235290  12.662   8.728  12.509
44465SOL     OW35291  11.564   5.679  14.210
44465SOL    HW135292  11.473   5.648  14.213
44465SOL    HW235293  11.612   5.610  14.166
44466SOL     OW35294   0.724  13.253   6.639
44466SOL    HW135295   0.765  13.340   6.640
44466SOL    HW235296   0.796  13.191   6.647
44467SOL     OW35297   1.067   0.838   4.551
44467SOL    HW135298   1.024   0.913   4.509
44467SOL    HW235299   1.131   0.807   4.487
44468SOL     OW35300   3.157   6.049   1.633
44468SOL    HW135301   3.207   6.099   1.697
44468SOL    HW235302   3.211   6.051   1.554
44469SOL     OW35303   0.741  14.610   4.773
44469SOL    HW135304   0.696  14.612   4.858
44469SOL    HW235305   0.789  14.692   4.769
44470SOL     OW35306   5.613  10.308   5.887
44470SOL    HW135307   5.659  10.259   5.818
44470SOL    HW235308   5.524  10.273   5.886
44471SOL     OW35309   6.243   7.115  11.967
44471SOL    HW135310   6.229   7.132  12.060
44471SOL    HW235311   6.168   7.154  11.923
44472SOL     OW35312   4.905   2.438   6.570
44472SOL    HW135313   4.916   2.504   6.501
44472SOL    HW235314   4.811   2.421   6.572
44473SOL     OW35315  14.525   5.270   2.309
44473SOL    HW135316  14.551   5.324   2.235
44473SOL    HW235317  14.463   5.207   2.272
44474SOL     OW35318   1.052  10.868   3.025
44474SOL    HW135319   1.031  10.858   3.118
44474SOL    HW235320   0.983  10.924   2.991
44475SOL     OW35321  14.159   1.615  13.946
44475SOL    HW135322  14.190   1.705  13.948
44475SOL    HW235323  14.067   1.620  13.970
44476SOL     OW35324   4.978   5.026  10.173
44476SOL    HW135325   4.918   5.036  10.247
44476SOL    HW235326   4.991   5.115  10.140
44477SOL     OW35327   3.550   6.346   2.786
44477SOL    HW135328   3.617   6.317   2.849
44477SOL    HW235329   3.563   6.441   2.780
44478SOL     OW35330   3.070   7.417  11.338
44478SOL    HW135331   3.046   7.499  11.295
44478SOL    HW235332   3.156   7.434  11.375
44479SOL     OW35333   8.103  11.950   4.977
44479SOL    HW135334   8.141  11.966   4.891
44479SOL    HW235335   8.178  11.948   5.036
44480SOL     OW35336   7.027  13.536   9.595
44480SOL    HW135337   6.992  13.520   9.508
44480SOL    HW235338   7.089  13.608   9.582
44481SOL     OW35339   8.606  10.116  12.005
44481SOL    HW135340   8.515  10.129  11.981
44481SOL    HW235341   8.632  10.197  12.047
44482SOL     OW35342   8.605   7.801  13.234
44482SOL    HW135343   8.600   7.771  13.144
44482SOL    HW235344   8.553   7.737  13.283
44483SOL     OW35345   3.604   1.691  14.377
44483SOL    HW135346   3.575   1.726  14.461
44483SOL    HW235347   3.616   1.768  14.321
44484SOL     OW35348  14.387  10.182  11.231
44484SOL    HW135349  14.415  10.092  11.249
44484SOL    HW235350  14.292  10.180  11.246
44485SOL     OW35351  13.578   2.859   2.011
44485SOL    HW135352  13.502   2.824   1.965
44485SOL    HW235353  13.629   2.904   1.944
44486SOL     OW35354   7.311   4.058  11.214
44486SOL    HW135355   7.304   4.125  11.146
44486SOL    HW235356   7.260   3.984  11.181
44487SOL     OW35357  14.220   0.508  13.458
44487SOL    HW135358  14.164   0.551  13.393
44487SOL    HW235359  14.234   0.420  13.423
44488SOL     OW35360   0.054   3.137   1.501
44488SOL    HW135361   0.030   3.094   1.420
44488SOL    HW235362   0.045   3.231   1.483
44489SOL     OW35363   1.005   4.602   3.278
44489SOL    HW135364   0.914   4.585   3.254
44489SOL    HW235365   1.008   4.586   3.372
44490SOL     OW35366   7.638   6.248  12.598
44490SOL    HW135367   7.584   6.327  12.604
44490SOL    HW235368   7.701   6.257  12.669
44491SOL     OW35369   9.076   7.571   9.188
44491SOL    HW135370   8.999   7.601   9.141
44491SOL    HW235371   9.142   7.557   9.119
44492SOL     OW35372   1.653  11.029  12.784
44492SOL    HW135373   1.709  10.970  12.835
44492SOL    HW235374   1.590  11.063  12.847
44493SOL     OW35375   3.939   0.867   8.752
44493SOL    HW135376   3.989   0.829   8.824
44493SOL    HW235377   3.874   0.922   8.795
44494SOL     OW35378   3.686  11.799  11.666
44494SOL    HW135379   3.729  11.855  11.603
44494SOL    HW235380   3.706  11.837  11.751
44495SOL     OW35381  12.706  10.720  12.408
44495SOL    HW135382  12.734  10.714  12.316
44495SOL    HW235383  12.762  10.789  12.445
44496SOL     OW35384   6.821  13.306   3.015
44496SOL    HW135385   6.807  13.274   3.104
44496SOL    HW235386   6.868  13.389   3.027
44497SOL     OW35387   1.704   5.886   2.453
44497SOL    HW135388   1.760   5.810   2.438
44497SOL    HW235389   1.622   5.849   2.487
44498SOL     OW35390   1.512  14.200   2.551
44498SOL    HW135391   1.434  14.181   2.498
44498SOL    HW235392   1.571  14.245   2.492
44499SOL     OW35393   1.570   3.546  11.787
44499SOL    HW135394   1.476   3.552  11.768
44499SOL    HW235395   1.575   3.492  11.866
44500SOL     OW35396   9.867  10.958   1.670
44500SOL    HW135397   9.917  10.905   1.607
44500SOL    HW235398   9.905  10.935   1.755
44501SOL     OW35399  10.590   1.878   8.065
44501SOL    HW135400  10.605   1.784   8.058
44501SOL    HW235401  10.673   1.918   8.039
44502SOL     OW35402   3.283   2.785   0.246
44502SOL    HW135403   3.246   2.846   0.183
44502SOL    HW235404   3.317   2.713   0.192
44503SOL     OW35405   5.105   4.111   8.310
44503SOL    HW135406   5.028   4.162   8.287
44503SOL    HW235407   5.092   4.026   8.266
44504SOL     OW35408   1.735   3.134  14.037
44504SOL    HW135409   1.814   3.126  14.090
44504SOL    HW235410   1.763   3.183  13.959
44505SOL     OW35411  13.501   0.169  12.308
44505SOL    HW135412  13.570   0.186  12.244
44505SOL    HW235413  13.478   0.077  12.294
44506SOL     OW35414   8.410   7.417   2.846
44506SOL    HW135415   8.350   7.417   2.771
44506SOL    HW235416   8.405   7.328   2.880
44507SOL     OW35417   7.673   6.710   2.797
44507SOL    HW135418   7.724   6.726   2.877
44507SOL    HW235419   7.619   6.789   2.787
44508SOL     OW35420   2.616  11.125   1.757
44508SOL    HW135421   2.543  11.063   1.749
44508SOL    HW235422   2.692  11.076   1.727
44509SOL     OW35423  11.048  12.948  14.219
44509SOL    HW135424  10.998  12.912  14.292
44509SOL    HW235425  11.117  12.884  14.202
44510SOL     OW35426  12.602   7.908   7.139
44510SOL    HW135427  12.698   7.901   7.135
44510SOL    HW235428  12.583   7.933   7.229
44511SOL     OW35429  10.772   5.990   8.486
44511SOL    HW135430  10.835   5.919   8.499
44511SOL    HW235431  10.696   5.965   8.537
44512SOL     OW35432   6.258   7.103   1.189
44512SOL    HW135433   6.323   7.173   1.202
44512SOL    HW235434   6.185   7.128   1.245
44513SOL     OW35435   5.271   2.123   8.641
44513SOL    HW135436   5.282   2.210   8.679
44513SOL    HW235437   5.351   2.076   8.665
44514SOL     OW35438   6.920   4.732  10.049
44514SOL    HW135439   6.842   4.710   9.999
44514SOL    HW235440   6.888   4.787  10.120
44515SOL     OW35441   9.091   0.055  12.447
44515SOL    HW135442   9.011   0.108  12.451
44515SOL    HW235443   9.161   0.119  12.433
44516SOL     OW35444  14.353  13.731   6.898
44516SOL    HW135445  14.296  13.660   6.869
44516SOL    HW235446  14.383  13.772   6.816
44517SOL     OW35447   1.527   7.135   5.599
44517SOL    HW135448   1.615   7.171   5.614
44517SOL    HW235449   1.477   7.209   5.564
44518SOL     OW35450   5.937  11.390  14.813
44518SOL    HW135451   6.002  11.353  14.753
44518SOL    HW235452   5.915  11.318   0.002
44519SOL     OW35453   7.708   0.476  10.424
44519SOL    HW135454   7.627   0.520  10.397
44519SOL    HW235455   7.688   0.383  10.419
44520SOL     OW35456  14.580  11.924  14.395
44520SOL    HW135457  14.675  11.921  14.408
44520SOL    HW235458  14.556  12.015  14.412
44521SOL     OW35459   7.795   3.954  10.359
44521SOL    HW135460   7.721   3.959  10.298
44521SOL    HW235461   7.851   4.028  10.335
44522SOL     OW35462  10.375   7.812  14.299
44522SOL    HW135463  10.339   7.900  14.287
44522SOL    HW235464  10.339   7.761  14.226
44523SOL     OW35465  14.009   6.350   5.560
44523SOL    HW135466  14.015   6.419   5.626
44523SOL    HW235467  14.035   6.270   5.606
44524SOL     OW35468   0.383  14.205   0.192
44524SOL    HW135469   0.454  14.264   0.167
44524SOL    HW235470   0.409  14.171   0.278
44525SOL     OW35471  14.114   2.755   4.085
44525SOL    HW135472  14.044   2.818   4.067
44525SOL    HW235473  14.178   2.805   4.136
44526SOL     OW35474   1.820   9.402   2.068
44526SOL    HW135475   1.854   9.485   2.035
44526SOL    HW235476   1.844   9.401   2.160
44527SOL     OW35477   9.784   8.994  13.276
44527SOL    HW135478   9.795   8.957  13.188
44527SOL    HW235479   9.839   8.938  13.332
44528SOL     OW35480  11.483   8.537  10.427
44528SOL    HW135481  11.563   8.506  10.470
44528SOL    HW235482  11.500   8.630  10.410
44529SOL     OW35483  14.719   1.462  13.108
44529SOL    HW135484  14.689   1.397  13.171
44529SOL    HW235485  14.648   1.469  13.044
44530SOL     OW35486   0.363   2.014   1.798
44530SOL    HW135487   0.272   1.984   1.808
44530SOL    HW235488   0.357   2.109   1.798
44531SOL     OW35489  14.759   9.504   6.685
44531SOL    HW135490  14.792   9.589   6.715
44531SOL    HW235491  14.779   9.502   6.592
44532SOL     OW35492   2.621   0.213   3.591
44532SOL    HW135493   2.680   0.203   3.516
44532SOL    HW235494   2.657   0.155   3.658
44533SOL     OW35495   7.244   6.298   0.329
44533SOL    HW135496   7.210   6.307   0.240
44533SOL    HW235497   7.325   6.350   0.329
44534SOL     OW35498   5.803   2.131   5.212
44534SOL    HW135499   5.757   2.048   5.223
44534SOL    HW235500   5.773   2.164   5.128
44535SOL     OW35501  14.827   1.540  10.328
44535SOL    HW135502   0.044   1.499  10.318
44535SOL    HW235503  14.787   1.493  10.402
44536SOL     OW35504  14.166  10.006  13.471
44536SOL    HW135505  14.260  10.019  13.478
44536SOL    HW235506  14.151   9.918  13.506
44537SOL     OW35507   5.997   0.890   9.059
44537SOL    HW135508   6.066   0.823   9.068
44537SOL    HW235509   5.929   0.863   9.121
44538SOL     OW35510   9.486   4.076  14.110
44538SOL    HW135511   9.569   4.084  14.156
44538SOL    HW235512   9.497   4.127  14.030
44539SOL     OW35513  10.438   7.614   5.625
44539SOL    HW135514  10.430   7.598   5.531
44539SOL    HW235515  10.350   7.596   5.660
44540SOL     OW35516  11.956   3.894   5.340
44540SOL    HW135517  11.971   3.901   5.245
44540SOL    HW235518  12.044   3.889   5.377
44541SOL     OW35519  11.220   9.749   5.971
44541SOL    HW135520  11.151   9.682   5.977
44541SOL    HW235521  11.227   9.768   5.878
44542SOL     OW35522   0.898   0.386   1.370
44542SOL    HW135523   0.809   0.353   1.377
44542SOL    HW235524   0.910   0.438   1.450
44543SOL     OW35525   5.098   2.634   3.153
44543SOL    HW135526   5.119   2.542   3.138
44543SOL    HW235527   5.112   2.648   3.246
44544SOL     OW35528  14.855   7.551   3.727
44544SOL    HW135529   0.021   7.586   3.809
44544SOL    HW235530  14.838   7.629   3.674
44545SOL     OW35531  10.734  10.841   3.959
44545SOL    HW135532  10.715  10.894   4.037
44545SOL    HW235533  10.743  10.752   3.991
44546SOL     OW35534  12.142   9.665   1.720
44546SOL    HW135535  12.134   9.618   1.637
44546SOL    HW235536  12.054   9.696   1.738
44547SOL     OW35537  13.741  14.215   0.382
44547SOL    HW135538  13.828  14.242   0.351
44547SOL    HW235539  13.735  14.251   0.470
44548SOL     OW35540  12.423   9.566  14.800
44548SOL    HW135541  12.379   9.608  14.727
44548SOL    HW235542  12.516   9.577  14.781
44549SOL     OW35543   0.364   7.837   2.885
44549SOL    HW135544   0.400   7.883   2.961
44549SOL    HW235545   0.276   7.873   2.874
44550SOL     OW35546   0.893   5.168  11.745
44550SOL    HW135547   0.826   5.144  11.680
44550SOL    HW235548   0.964   5.107  11.729
44551SOL     OW35549  14.661  14.003  14.642
44551SOL    HW135550  14.577  13.958  14.650
44551SOL    HW235551  14.648  14.064  14.569
44552SOL     OW35552  10.504   7.170   9.776
44552SOL    HW135553  10.492   7.201   9.866
44552SOL    HW235554  10.595   7.140   9.774
44553SOL     OW35555  14.796   6.919   2.383
44553SOL    HW135556  14.798   6.984   2.313
44553SOL    HW235557   0.004   6.938   2.436
44554SOL     OW35558   3.050   2.122   4.247
44554SOL    HW135559   3.075   2.084   4.331
44554SOL    HW235560   2.973   2.174   4.266
44555SOL     OW35561   0.645   9.428   4.753
44555SOL    HW135562   0.577   9.384   4.804
44555SOL    HW235563   0.604   9.445   4.668
44556SOL     OW35564  11.765   0.708  13.711
44556SOL    HW135565  11.748   0.669  13.626
44556SOL    HW235566  11.847   0.668  13.740
44557SOL     OW35567   7.844  12.115   7.643
44557SOL    HW135568   7.910  12.069   7.590
44557SOL    HW235569   7.831  12.057   7.718
44558SOL     OW35570   4.926   7.138   5.059
44558SOL    HW135571   4.881   7.199   5.118
44558SOL    HW235572   4.955   7.193   4.986
44559SOL     OW35573   7.753  13.211   6.504
44559SOL    HW135574   7.811  13.278   6.467
44559SOL    HW235575   7.671  13.256   6.520
44560SOL     OW35576   7.375  12.801   7.528
44560SOL    HW135577   7.430  12.879   7.525
44560SOL    HW235578   7.432  12.732   7.560
44561SOL     OW35579  11.146   4.113   2.915
44561SOL    HW135580  11.135   4.018   2.925
44561SOL    HW235581  11.230   4.123   2.870
44562SOL     OW35582  13.275   3.365   5.709
44562SOL    HW135583  13.195   3.348   5.759
44562SOL    HW235584  13.329   3.288   5.724
44563SOL     OW35585  10.985  11.217   8.887
44563SOL    HW135586  10.923  11.287   8.865
44563SOL    HW235587  11.071  11.257   8.876
44564SOL     OW35588   8.151  12.921  12.660
44564SOL    HW135589   8.137  13.009  12.626
44564SOL    HW235590   8.246  12.910  12.662
44565SOL     OW35591   6.506   0.949   5.086
44565SOL    HW135592   6.482   0.870   5.039
44565SOL    HW235593   6.424   0.982   5.123
44566SOL     OW35594   5.842   8.262   1.745
44566SOL    HW135595   5.840   8.215   1.662
44566SOL    HW235596   5.904   8.334   1.730
44567SOL     OW35597   6.826   9.142  10.337
44567SOL    HW135598   6.852   9.190  10.416
44567SOL    HW235599   6.870   9.058  10.345
44568SOL     OW35600  14.792   8.820   0.401
44568SOL    HW135601  14.819   8.729   0.388
44568SOL    HW235602  14.842   8.870   0.337
44569SOL     OW35603   5.407   9.413   0.948
44569SOL    HW135604   5.340   9.426   1.015
44569SOL    HW235605   5.363   9.433   0.866
44570SOL     OW35606   9.765   0.420  12.114
44570SOL    HW135607   9.737   0.363  12.042
44570SOL    HW235608   9.685   0.437  12.163
44571SOL     OW35609   3.437  13.837   0.701
44571SOL    HW135610   3.530  13.856   0.708
44571SOL    HW235611   3.432  13.762   0.641
44572SOL     OW35612   2.609   4.341   0.753
44572SOL    HW135613   2.514   4.331   0.749
44572SOL    HW235614   2.640   4.260   0.792
44573SOL     OW35615   6.467  13.959   3.731
44573SOL    HW135616   6.496  13.902   3.802
44573SOL    HW235617   6.385  13.919   3.702
44574SOL     OW35618   1.352   8.484   2.635
44574SOL    HW135619   1.268   8.529   2.647
44574SOL    HW235620   1.391   8.527   2.558
44575SOL     OW35621  13.553   7.501  12.251
44575SOL    HW135622  13.604   7.480  12.173
44575SOL    HW235623  13.470   7.455  12.238
44576SOL     OW35624  11.216  10.064   0.720
44576SOL    HW135625  11.148  10.005   0.686
44576SOL    HW235626  11.216  10.138   0.659
44577SOL     OW35627  10.417  14.502   8.457
44577SOL    HW135628  10.330  14.540   8.445
44577SOL    HW235629  10.474  14.578   8.470
44578SOL     OW35630  12.977   9.311   7.033
44578SOL    HW135631  12.944   9.241   6.978
44578SOL    HW235632  13.058   9.339   6.991
44579SOL     OW35633   2.501   2.111   7.971
44579SOL    HW135634   2.535   2.031   8.011
44579SOL    HW235635   2.410   2.090   7.949
44580SOL     OW35636   2.553  10.778  12.801
44580SOL    HW135637   2.472  10.728  12.792
44580SOL    HW235638   2.620  10.712  12.820
44581SOL     OW35639  13.820   1.987  14.254
44581SOL    HW135640  13.831   1.914  14.315
44581SOL    HW235641  13.845   2.064  14.304
44582SOL     OW35642   0.775  11.333  10.680
44582SOL    HW135643   0.717  11.408  10.695
44582SOL    HW235644   0.853  11.371  10.641
44583SOL     OW35645  10.375  11.482  11.783
44583SOL    HW135646  10.294  11.520  11.818
44583SOL    HW235647  10.440  11.552  11.790
44584SOL     OW35648   1.342  12.811  14.205
44584SOL    HW135649   1.285  12.859  14.265
44584SOL    HW235650   1.395  12.755  14.261
44585SOL     OW35651   7.026  10.960   4.761
44585SOL    HW135652   7.012  11.021   4.834
44585SOL    HW235653   6.940  10.955   4.718
44586SOL     OW35654   9.720   3.966  13.012
44586SOL    HW135655   9.698   3.972  12.919
44586SOL    HW235656   9.763   4.049  13.032
44587SOL     OW35657   3.681   9.960  11.687
44587SOL    HW135658   3.725   9.965  11.602
44587SOL    HW235659   3.731   9.894  11.735
44588SOL     OW35660   7.484  13.574   2.892
44588SOL    HW135661   7.570  13.532   2.886
44588SOL    HW235662   7.494  13.656   2.844
44589SOL     OW35663   8.923  12.502   9.527
44589SOL    HW135664   8.980  12.562   9.480
44589SOL    HW235665   8.961  12.416   9.511
44590SOL     OW35666  11.265   2.400   0.127
44590SOL    HW135667  11.181   2.376   0.089
44590SOL    HW235668  11.329   2.344   0.082
44591SOL     OW35669  12.143  13.460   7.248
44591SOL    HW135670  12.212  13.465   7.182
44591SOL    HW235671  12.187  13.429   7.327
44592SOL     OW35672   7.618   3.282   7.653
44592SOL    HW135673   7.632   3.304   7.745
44592SOL    HW235674   7.684   3.214   7.635
44593SOL     OW35675   9.033   8.238   3.765
44593SOL    HW135676   9.097   8.190   3.817
44593SOL    HW235677   9.027   8.189   3.683
44594SOL     OW35678  10.690  11.487   3.570
44594SOL    HW135679  10.605  11.448   3.548
44594SOL    HW235680  10.754  11.426   3.534
44595SOL     OW35681  13.684   7.165   1.810
44595SOL    HW135682  13.685   7.097   1.743
44595SOL    HW235683  13.713   7.244   1.764
44596SOL     OW35684  11.886  14.678   8.646
44596SOL    HW135685  11.829  14.747   8.680
44596SOL    HW235686  11.850  14.657   8.560
44597SOL     OW35687   0.835   3.313   3.399
44597SOL    HW135688   0.863   3.374   3.331
44597SOL    HW235689   0.885   3.233   3.382
44598SOL     OW35690   5.477  13.587  14.854
44598SOL    HW135691   5.569  13.615  14.851
44598SOL    HW235692   5.460  13.548  14.769
44599SOL     OW35693   3.352   9.150  10.038
44599SOL    HW135694   3.341   9.244  10.023
44599SOL    HW235695   3.263   9.118  10.051
44600SOL     OW35696   3.871   5.572  13.071
44600SOL    HW135697   3.779   5.548  13.085
44600SOL    HW235698   3.870   5.667  13.064
44601SOL     OW35699   2.125   1.732   5.878
44601SOL    HW135700   2.201   1.783   5.906
44601SOL    HW235701   2.053   1.764   5.932
44602SOL     OW35702   4.035   4.517   5.432
44602SOL    HW135703   3.969   4.463   5.475
44602SOL    HW235704   3.986   4.589   5.392
44603SOL     OW35705   4.555  11.758   9.740
44603SOL    HW135706   4.574  11.849   9.719
44603SOL    HW235707   4.477  11.737   9.688
44604SOL     OW35708  10.669  12.184   4.798
44604SOL    HW135709  10.725  12.204   4.723
44604SOL    HW235710  10.711  12.109   4.840
44605SOL     OW35711   5.022  13.266   6.869
44605SOL    HW135712   5.109  13.289   6.900
44605SOL    HW235713   5.010  13.174   6.895
44606SOL     OW35714   0.780   0.373   8.888
44606SOL    HW135715   0.695   0.366   8.845
44606SOL    HW235716   0.764   0.433   8.961
44607SOL     OW35717  14.581   1.861  13.297
44607SOL    HW135718  14.662   1.820  13.268
44607SOL    HW235719  14.556   1.918  13.224
44608SOL     OW35720   1.553   7.490   0.063
44608SOL    HW135721   1.498   7.500  14.855
44608SOL    HW235722   1.636   7.532   0.039
44609SOL     OW35723  10.455   2.698   8.130
44609SOL    HW135724  10.393   2.626   8.142
44609SOL    HW235725  10.533   2.670   8.178
44610SOL     OW35726   3.159  14.307   6.265
44610SOL    HW135727   3.156  14.222   6.310
44610SOL    HW235728   3.070  14.321   6.234
44611SOL     OW35729   2.186   6.229  12.643
44611SOL    HW135730   2.196   6.162  12.575
44611SOL    HW235731   2.243   6.199  12.714
44612SOL     OW35732   3.774  14.219  11.046
44612SOL    HW135733   3.779  14.220  10.950
44612SOL    HW235734   3.841  14.280  11.075
44613SOL     OW35735  14.485   0.591   9.312
44613SOL    HW135736  14.495   0.548   9.227
44613SOL    HW235737  14.414   0.653   9.299
44614SOL     OW35738   7.255  13.679  10.033
44614SOL    HW135739   7.176  13.635  10.000
44614SOL    HW235740   7.297  13.614  10.089
44615SOL     OW35741   4.240   2.861  12.571
44615SOL    HW135742   4.306   2.883  12.506
44615SOL    HW235743   4.167   2.921  12.552
44616SOL     OW35744   7.677   1.598   0.724
44616SOL    HW135745   7.606   1.607   0.788
44616SOL    HW235746   7.642   1.539   0.657
44617SOL     OW35747  13.705   5.372   7.634
44617SOL    HW135748  13.712   5.461   7.599
44617SOL    HW235749  13.619   5.369   7.676
44618SOL     OW35750  10.365   9.100  10.279
44618SOL    HW135751  10.374   9.187  10.317
44618SOL    HW235752  10.447   9.085  10.232
44619SOL     OW35753   0.961  12.133   4.106
44619SOL    HW135754   0.921  12.217   4.084
44619SOL    HW235755   1.053  12.142   4.080
44620SOL     OW35756   0.402  12.935   5.071
44620SOL    HW135757   0.318  12.910   5.111
44620SOL    HW235758   0.468  12.887   5.121
44621SOL     OW35759   6.454   0.918   9.962
44621SOL    HW135760   6.383   0.880  10.015
44621SOL    HW235761   6.490   0.843   9.914
44622SOL     OW35762  13.717   6.380   5.500
44622SOL    HW135763  13.805   6.414   5.511
44622SOL    HW235764  13.710   6.310   5.565
44623SOL     OW35765   4.939   5.478   2.499
44623SOL    HW135766   4.908   5.493   2.410
44623SOL    HW235767   5.034   5.470   2.491
44624SOL     OW35768  11.914   0.992  10.697
44624SOL    HW135769  11.833   1.000  10.648
44624SOL    HW235770  11.949   1.082  10.699
44625SOL     OW35771   7.167   9.343  10.928
44625SOL    HW135772   7.096   9.388  10.975
44625SOL    HW235773   7.220   9.304  10.997
44626SOL     OW35774  13.565  14.388   1.953
44626SOL    HW135775  13.603  14.328   1.889
44626SOL    HW235776  13.623  14.382   2.029
44627SOL     OW35777   1.878   1.270  13.418
44627SOL    HW135778   1.854   1.272  13.511
44627SOL    HW235779   1.807   1.316  13.374
44628SOL     OW35780   0.750   9.020   5.471
44628SOL    HW135781   0.819   9.008   5.536
44628SOL    HW235782   0.739   9.115   5.465
44629SOL     OW35783  13.987   0.576   9.722
44629SOL    HW135784  13.975   0.577   9.817
44629SOL    HW235785  13.993   0.668   9.697
44630SOL     OW35786   0.935   6.785   2.975
44630SOL    HW135787   1.013   6.763   3.026
44630SOL    HW235788   0.865   6.736   3.018
44631SOL     OW35789  13.568  12.736   1.199
44631SOL    HW135790  13.661  12.727   1.177
44631SOL    HW235791  13.566  12.802   1.269
44632SOL     OW35792   8.735   1.736   3.286
44632SOL    HW135793   8.781   1.748   3.203
44632SOL    HW235794   8.799   1.694   3.343
44633SOL     OW35795   0.737   9.352  13.006
44633SOL    HW135796   0.647   9.352  13.038
44633SOL    HW235797   0.779   9.279  13.052
44634SOL     OW35798  11.182   0.087  13.436
44634SOL    HW135799  11.237   0.132  13.500
44634SOL    HW235800  11.243   0.055  13.370
44635SOL     OW35801   4.817   0.606   8.336
44635SOL    HW135802   4.791   0.539   8.273
44635SOL    HW235803   4.775   0.686   8.304
44636SOL     OW35804   2.781  14.015   5.193
44636SOL    HW135805   2.710  13.958   5.222
44636SOL    HW235806   2.762  14.030   5.100
44637SOL     OW35807   1.336  14.841   5.263
44637SOL    HW135808   1.327   0.052   5.314
44637SOL    HW235809   1.388  14.784   5.319
44638SOL     OW35810  11.442  12.055  10.553
44638SOL    HW135811  11.452  11.960  10.554
44638SOL    HW235812  11.365  12.072  10.607
44639SOL     OW35813   1.986   5.079  11.975
44639SOL    HW135814   1.921   5.118  12.034
44639SOL    HW235815   2.009   4.996  12.016
44640SOL     OW35816   0.806  12.532   8.662
44640SOL    HW135817   0.842  12.471   8.598
44640SOL    HW235818   0.728  12.488   8.695
44641SOL     OW35819  11.316   7.856  12.378
44641SOL    HW135820  11.351   7.861  12.289
44641SOL    HW235821  11.344   7.769  12.409
44642SOL     OW35822  14.658   0.273   5.662
44642SOL    HW135823  14.646   0.198   5.720
44642SOL    HW235824  14.691   0.342   5.719
44643SOL     OW35825   8.267   6.266  13.252
44643SOL    HW135826   8.311   6.260  13.337
44643SOL    HW235827   8.315   6.206  13.195
44644SOL     OW35828   3.879   4.280   0.015
44644SOL    HW135829   3.908   4.244   0.099
44644SOL    HW235830   3.880   4.375   0.028
44645SOL     OW35831  13.385   4.136  13.792
44645SOL    HW135832  13.426   4.220  13.812
44645SOL    HW235833  13.360   4.142  13.699
44646SOL     OW35834   8.314  13.354  13.048
44646SOL    HW135835   8.408  13.343  13.062
44646SOL    HW235836   8.292  13.434  13.096
44647SOL     OW35837   8.627   9.551   9.889
44647SOL    HW135838   8.626   9.646   9.888
44647SOL    HW235839   8.609   9.525   9.799
44648SOL     OW35840   4.342   5.918   4.273
44648SOL    HW135841   4.301   5.986   4.220
44648SOL    HW235842   4.364   5.961   4.356
44649SOL     OW35843   8.206   5.463   4.625
44649SOL    HW135844   8.218   5.556   4.605
44649SOL    HW235845   8.267   5.418   4.566
44650SOL     OW35846   4.388   4.406   2.281
44650SOL    HW135847   4.398   4.387   2.188
44650SOL    HW235848   4.337   4.487   2.284
44651SOL     OW35849  13.612   6.360   6.189
44651SOL    HW135850  13.633   6.321   6.104
44651SOL    HW235851  13.656   6.445   6.188
44652SOL     OW35852  12.673   4.714  14.306
44652SOL    HW135853  12.681   4.765  14.226
44652SOL    HW235854  12.585   4.675  14.301
44653SOL     OW35855   6.548   7.740  10.146
44653SOL    HW135856   6.454   7.741  10.128
44653SOL    HW235857   6.580   7.823  10.111
44654SOL     OW35858  14.818  13.313  10.679
44654SOL    HW135859  14.817  13.235  10.735
44654SOL    HW235860   0.005  13.289  10.606
44655SOL     OW35861  10.501   9.280   3.674
44655SOL    HW135862  10.555   9.204   3.693
44655SOL    HW235863  10.482   9.318   3.760
44656SOL     OW35864  14.161   6.958   0.673
44656SOL    HW135865  14.113   6.960   0.590
44656SOL    HW235866  14.097   6.926   0.737
44657SOL     OW35867   3.078  10.082  11.434
44657SOL    HW135868   3.161  10.071  11.480
44657SOL    HW235869   3.022  10.129  11.496
44658SOL     OW35870  14.357   9.607   0.262
44658SOL    HW135871  14.451   9.610   0.242
44658SOL    HW235872  14.348   9.531   0.320
44659SOL     OW35873   6.391  12.743   9.890
44659SOL    HW135874   6.356  12.659   9.860
44659SOL    HW235875   6.450  12.771   9.820
44660SOL     OW35876   4.130   2.400  13.221
44660SOL    HW135877   4.224   2.388  13.207
44660SOL    HW235878   4.119   2.397  13.316
44661SOL     OW35879   7.367  10.825  13.404
44661SOL    HW135880   7.324  10.874  13.334
44661SOL    HW235881   7.296  10.774  13.445
44662SOL     OW35882   3.850   3.960   8.193
44662SOL    HW135883   3.841   3.925   8.282
44662SOL    HW235884   3.876   3.885   8.140
44663SOL     OW35885   2.775  10.224   4.457
44663SOL    HW135886   2.820  10.221   4.541
44663SOL    HW235887   2.702  10.285   4.470
44664SOL     OW35888   8.304   0.191   7.852
44664SOL    HW135889   8.305   0.287   7.861
44664SOL    HW235890   8.329   0.175   7.761
44665SOL     OW35891   7.752  11.127  12.556
44665SOL    HW135892   7.706  11.055  12.513
44665SOL    HW235893   7.842  11.121  12.524
44666SOL     OW35894  10.760   4.629  11.384
44666SOL    HW135895  10.756   4.724  11.400
44666SOL    HW235896  10.668   4.602  11.376
44667SOL     OW35897   4.087   1.235   9.573
44667SOL    HW135898   4.064   1.214   9.482
44667SOL    HW235899   4.180   1.257   9.570
44668SOL     OW35900   4.842  10.802   1.665
44668SOL    HW135901   4.766  10.797   1.723
44668SOL    HW235902   4.876  10.712   1.662
44669SOL     OW35903   0.377   8.124   2.006
44669SOL    HW135904   0.335   8.120   2.092
44669SOL    HW235905   0.337   8.200   1.964
44670SOL     OW35906   2.518   8.248  14.028
44670SOL    HW135907   2.521   8.153  14.029
44670SOL    HW235908   2.568   8.275  14.105
44671SOL     OW35909  11.544   2.687   0.612
44671SOL    HW135910  11.457   2.704   0.647
44671SOL    HW235911  11.573   2.772   0.577
44672SOL     OW35912  12.262   3.352   5.167
44672SOL    HW135913  12.197   3.324   5.103
44672SOL    HW235914  12.323   3.406   5.117
44673SOL     OW35915  12.729  11.338   0.239
44673SOL    HW135916  12.658  11.387   0.197
44673SOL    HW235917  12.795  11.404   0.261
44674SOL     OW35918  11.796   2.964  12.032
44674SOL    HW135919  11.856   2.892  12.012
44674SOL    HW235920  11.853   3.037  12.055
44675SOL     OW35921   4.098   0.979   9.084
44675SOL    HW135922   4.018   0.996   9.134
44675SOL    HW235923   4.147   1.060   9.089
44676SOL     OW35924   6.679   4.265   2.097
44676SOL    HW135925   6.602   4.275   2.154
44676SOL    HW235926   6.674   4.175   2.067
44677SOL     OW35927  14.306  12.567   2.328
44677SOL    HW135928  14.348  12.559   2.242
44677SOL    HW235929  14.225  12.615   2.312
44678SOL     OW35930  10.611   0.272   6.652
44678SOL    HW135931  10.551   0.201   6.631
44678SOL    HW235932  10.568   0.320   6.723
44679SOL     OW35933  12.917   9.049  10.560
44679SOL    HW135934  12.862   8.971  10.547
44679SOL    HW235935  13.006   9.019  10.538
44680SOL     OW35936   5.415   8.932   9.721
44680SOL    HW135937   5.393   8.868   9.653
44680SOL    HW235938   5.492   8.896   9.765
44681SOL     OW35939   8.628   0.653   2.956
44681SOL    HW135940   8.704   0.712   2.956
44681SOL    HW235941   8.643   0.595   2.881
44682SOL     OW35942  13.119   5.104  12.813
44682SOL    HW135943  13.135   5.055  12.894
44682SOL    HW235944  13.026   5.090  12.794
44683SOL     OW35945   3.058   5.113   7.573
44683SOL    HW135946   3.004   5.178   7.618
44683SOL    HW235947   3.044   5.129   7.480
44684SOL     OW35948   3.217   6.463   9.711
44684SOL    HW135949   3.206   6.485   9.804
44684SOL    HW235950   3.131   6.479   9.672
44685SOL     OW35951  12.777   8.310  14.675
44685SOL    HW135952  12.827   8.347  14.748
44685SOL    HW235953  12.694   8.284  14.713
44686SOL     OW35954   2.295  11.604  12.734
44686SOL    HW135955   2.360  11.569  12.673
44686SOL    HW235956   2.239  11.660  12.680
44687SOL     OW35957  10.281   1.999  10.458
44687SOL    HW135958  10.197   1.977  10.497
44687SOL    HW235959  10.321   1.914  10.437
44688SOL     OW35960  12.813   3.868  11.248
44688SOL    HW135961  12.856   3.816  11.316
44688SOL    HW235962  12.778   3.944  11.295
44689SOL     OW35963   1.499   4.756  10.396
44689SOL    HW135964   1.536   4.823  10.339
44689SOL    HW235965   1.564   4.686  10.398
44690SOL     OW35966  12.505   2.237   4.853
44690SOL    HW135967  12.475   2.164   4.799
44690SOL    HW235968  12.495   2.314   4.798
44691SOL     OW35969  10.550   2.562   0.283
44691SOL    HW135970  10.477   2.500   0.278
44691SOL    HW235971  10.590   2.558   0.195
44692SOL     OW35972   2.056   9.764   4.139
44692SOL    HW135973   2.093   9.675   4.138
44692SOL    HW235974   2.005   9.769   4.058
44693SOL     OW35975  10.902   6.525  13.158
44693SOL    HW135976  10.986   6.572  13.158
44693SOL    HW235977  10.878   6.519  13.066
44694SOL     OW35978  10.901  12.765  14.359
44694SOL    HW135979  10.951  12.726  14.431
44694SOL    HW235980  10.843  12.695  14.329
44695SOL     OW35981   5.281  14.245  10.731
44695SOL    HW135982   5.238  14.208  10.808
44695SOL    HW235983   5.219  14.230  10.659
44696SOL     OW35984  11.682  13.736   6.175
44696SOL    HW135985  11.658  13.828   6.179
44696SOL    HW235986  11.683  13.707   6.267
44697SOL     OW35987   9.069   2.136  14.240
44697SOL    HW135988   9.046   2.225  14.214
44697SOL    HW235989   9.156   2.121  14.203
44698SOL     OW35990   8.046   4.538  11.327
44698SOL    HW135991   8.105   4.613  11.323
44698SOL    HW235992   8.104   4.462  11.323
44699SOL     OW35993   7.210   7.175  13.080
44699SOL    HW135994   7.202   7.097  13.025
44699SOL    HW235995   7.145   7.236  13.046
44700SOL     OW35996   3.313   6.586   8.474
44700SOL    HW135997   3.243   6.522   8.490
44700SOL    HW235998   3.274   6.649   8.412
44701SOL     OW35999   1.884   2.662   9.548
44701SOL    HW136000   1.959   2.690   9.497
44701SOL    HW236001   1.813   2.720   9.521
44702SOL     OW36002   8.287   5.803   9.248
44702SOL    HW136003   8.203   5.821   9.205
44702SOL    HW236004   8.341   5.880   9.228
44703SOL     OW36005   6.852   9.737   1.425
44703SOL    HW136006   6.831   9.644   1.432
44703SOL    HW236007   6.843   9.756   1.331
44704SOL     OW36008   4.710  13.859   2.137
44704SOL    HW136009   4.743  13.873   2.226
44704SOL    HW236010   4.788  13.865   2.082
44705SOL     OW36011  12.854  11.403   9.360
44705SOL    HW136012  12.830  11.452   9.281
44705SOL    HW236013  12.950  11.405   9.360
44706SOL     OW36014  10.079   6.638   7.865
44706SOL    HW136015  10.009   6.616   7.803
44706SOL    HW236016  10.044   6.714   7.914
44707SOL     OW36017   9.301   9.854   1.869
44707SOL    HW136018   9.355   9.775   1.872
44707SOL    HW236019   9.266   9.856   1.780
44708SOL     OW36020   9.643   1.072  12.619
44708SOL    HW136021   9.706   1.012  12.579
44708SOL    HW236022   9.697   1.134  12.668
44709SOL     OW36023   6.385  13.949  10.304
44709SOL    HW136024   6.453  13.890  10.337
44709SOL    HW236025   6.430  14.032  10.292
44710SOL     OW36026   6.305   8.799  13.279
44710SOL    HW136027   6.351   8.813  13.197
44710SOL    HW236028   6.212   8.800  13.255
44711SOL     OW36029   7.753   4.877   1.406
44711SOL    HW136030   7.659   4.859   1.419
44711SOL    HW236031   7.796   4.794   1.427
44712SOL     OW36032   3.602   7.745   5.759
44712SOL    HW136033   3.667   7.795   5.808
44712SOL    HW236034   3.557   7.694   5.826
44713SOL     OW36035   7.921   2.982   5.134
44713SOL    HW136036   7.848   2.980   5.196
44713SOL    HW236037   7.986   3.038   5.175
44714SOL     OW36038   8.867   3.361  12.147
44714SOL    HW136039   8.888   3.295  12.214
44714SOL    HW236040   8.871   3.444  12.194
44715SOL     OW36041  14.517  11.633  11.765
44715SOL    HW136042  14.551  11.551  11.801
44715SOL    HW236043  14.435  11.608  11.722
44716SOL     OW36044   8.060   1.297  12.600
44716SOL    HW136045   8.007   1.375  12.581
44716SOL    HW236046   8.000   1.223  12.585
44717SOL     OW36047   9.628  12.328   6.255
44717SOL    HW136048   9.709  12.373   6.230
44717SOL    HW236049   9.631  12.245   6.207
44718SOL     OW36050   6.100   4.024  10.651
44718SOL    HW136051   6.059   4.100  10.609
44718SOL    HW236052   6.129   3.970  10.578
44719SOL     OW36053   4.626  13.794   2.435
44719SOL    HW136054   4.636  13.882   2.469
44719SOL    HW236055   4.532  13.779   2.432
44720SOL     OW36056  12.926   9.007   6.002
44720SOL    HW136057  13.002   9.014   6.059
44720SOL    HW236058  12.962   8.983   5.917
44721SOL     OW36059   9.915  13.973   3.123
44721SOL    HW136060   9.965  13.961   3.042
44721SOL    HW236061   9.968  14.032   3.176
44722SOL     OW36062   6.653  11.724  10.783
44722SOL    HW136063   6.673  11.810  10.746
44722SOL    HW236064   6.559  11.714  10.770
44723SOL     OW36065   2.096   7.922   1.948
44723SOL    HW136066   2.032   7.909   1.878
44723SOL    HW236067   2.043   7.928   2.027
44724SOL     OW36068   9.280  10.925   9.658
44724SOL    HW136069   9.223  10.897   9.587
44724SOL    HW236070   9.259  10.866   9.730
44725SOL     OW36071   5.738   5.779   3.882
44725SOL    HW136072   5.698   5.817   3.804
44725SOL    HW236073   5.789   5.851   3.920
44726SOL     OW36074   9.469   0.671   4.777
44726SOL    HW136075   9.551   0.671   4.729
44726SOL    HW236076   9.406   0.628   4.719
44727SOL     OW36077   0.435   1.336  13.356
44727SOL    HW136078   0.473   1.248  13.349
44727SOL    HW236079   0.376   1.330  13.431
44728SOL     OW36080   8.896  14.751   5.484
44728SOL    HW136081   8.942  14.727   5.403
44728SOL    HW236082   8.833  14.680   5.497
44729SOL     OW36083   9.756  13.252   1.239
44729SOL    HW136084   9.689  13.200   1.284
44729SOL    HW236085   9.709  13.295   1.168
44730SOL     OW36086   6.263  13.546   3.194
44730SOL    HW136087   6.287  13.471   3.249
44730SOL    HW236088   6.204  13.598   3.250
44731SOL     OW36089   5.553   9.630   0.943
44731SOL    HW136090   5.470   9.676   0.956
44731SOL    HW236091   5.528   9.540   0.923
44732SOL     OW36092   8.100   2.663   1.452
44732SOL    HW136093   8.147   2.616   1.521
44732SOL    HW236094   8.128   2.620   1.371
44733SOL     OW36095   6.929   3.689   8.469
44733SOL    HW136096   6.836   3.668   8.459
44733SOL    HW236097   6.958   3.711   8.381
44734SOL     OW36098  12.585   6.072   4.355
44734SOL    HW136099  12.620   5.985   4.377
44734SOL    HW236100  12.506   6.080   4.408
44735SOL     OW36101   0.434   1.179   8.156
44735SOL    HW136102   0.362   1.186   8.092
44735SOL    HW236103   0.420   1.095   8.199
44736SOL     OW36104  11.457   9.531   8.822
44736SOL    HW136105  11.416   9.618   8.823
44736SOL    HW236106  11.419   9.488   8.745
44737SOL     OW36107  10.629  10.169   8.650
44737SOL    HW136108  10.707  10.114   8.647
44737SOL    HW236109  10.609  10.187   8.558
44738SOL     OW36110  12.067   3.157   4.123
44738SOL    HW136111  12.011   3.232   4.145
44738SOL    HW236112  12.133   3.194   4.063
44739SOL     OW36113   9.889   9.514   1.639
44739SOL    HW136114   9.974   9.530   1.680
44739SOL    HW236115   9.906   9.445   1.575
44740SOL     OW36116   5.329  10.449  12.285
44740SOL    HW136117   5.250  10.504  12.288
44740SOL    HW236118   5.385  10.483  12.355
44741SOL     OW36119   6.215   5.927   7.567
44741SOL    HW136120   6.140   5.917   7.507
44741SOL    HW236121   6.181   5.978   7.640
44742SOL     OW36122   6.782   5.349   9.031
44742SOL    HW136123   6.823   5.347   8.945
44742SOL    HW236124   6.709   5.287   9.024
44743SOL     OW36125   5.300  10.927   1.141
44743SOL    HW136126   5.236  10.960   1.203
44743SOL    HW236127   5.340  11.005   1.103
44744SOL     OW36128   1.901   0.359   5.233
44744SOL    HW136129   1.938   0.438   5.196
44744SOL    HW236130   1.823   0.389   5.281
44745SOL     OW36131   3.372   4.043   4.657
44745SOL    HW136132   3.446   4.084   4.613
44745SOL    HW236133   3.406   4.017   4.743
44746SOL     OW36134   5.020  13.723   6.653
44746SOL    HW136135   4.932  13.685   6.648
44746SOL    HW236136   5.014  13.803   6.599
44747SOL     OW36137   9.715  12.750  14.305
44747SOL    HW136138   9.770  12.784  14.235
44747SOL    HW236139   9.771  12.689  14.353
44748SOL     OW36140  12.481  11.485  10.473
44748SOL    HW136141  12.395  11.449  10.497
44748SOL    HW236142  12.492  11.560  10.531
44749SOL     OW36143   6.755  13.049   3.729
44749SOL    HW136144   6.660  13.045   3.713
44749SOL    HW236145   6.792  13.080   3.647
44750SOL     OW36146   9.360   1.124   8.804
44750SOL    HW136147   9.447   1.099   8.836
44750SOL    HW236148   9.365   1.109   8.709
44751SOL     OW36149  10.507  14.601  10.925
44751SOL    HW136150  10.423  14.580  10.965
44751SOL    HW236151  10.572  14.580  10.993
44752SOL     OW36152   1.339  10.234   7.142
44752SOL    HW136153   1.317  10.319   7.105
44752SOL    HW236154   1.415  10.250   7.198
44753SOL     OW36155  10.360   0.925   5.561
44753SOL    HW136156  10.348   1.020   5.562
44753SOL    HW236157  10.367   0.902   5.654
44754SOL     OW36158   7.075  13.382  14.626
44754SOL    HW136159   7.013  13.425  14.566
44754SOL    HW236160   7.129  13.327  14.569
44755SOL     OW36161  13.948   4.524   0.699
44755SOL    HW136162  13.989   4.598   0.744
44755SOL    HW236163  13.863   4.515   0.742
44756SOL     OW36164   2.227   5.362   7.199
44756SOL    HW136165   2.173   5.317   7.134
44756SOL    HW236166   2.316   5.331   7.181
44757SOL     OW36167   0.324   9.374  13.996
44757SOL    HW136168   0.303   9.383  14.089
44757SOL    HW236169   0.338   9.463  13.965
44758SOL     OW36170   2.837  14.413   5.388
44758SOL    HW136171   2.853  14.319   5.375
44758SOL    HW236172   2.921  14.454   5.370
44759SOL     OW36173   3.491   3.733   8.722
44759SOL    HW136174   3.437   3.681   8.662
44759SOL    HW236175   3.541   3.668   8.771
44760SOL     OW36176   7.136   1.317  12.752
44760SOL    HW136177   7.221   1.294  12.715
44760SOL    HW236178   7.158   1.374  12.827
44761SOL     OW36179  10.731   8.917   9.798
44761SOL    HW136180  10.724   8.925   9.893
44761SOL    HW236181  10.653   8.868   9.771
44762SOL     OW36182  10.248  12.722   4.043
44762SOL    HW136183  10.324  12.669   4.067
44762SOL    HW236184  10.175  12.684   4.093
44763SOL     OW36185   3.725   1.262   5.007
44763SOL    HW136186   3.785   1.241   5.078
44763SOL    HW236187   3.747   1.352   4.982
44764SOL     OW36188  12.191   6.050   1.811
44764SOL    HW136189  12.195   5.955   1.814
44764SOL    HW236190  12.151   6.070   1.727
44765SOL     OW36191  13.335  13.375   7.666
44765SOL    HW136192  13.306  13.399   7.754
44765SOL    HW236193  13.326  13.455   7.615
44766SOL     OW36194   1.581  10.414   5.648
44766SOL    HW136195   1.565  10.357   5.724
44766SOL    HW236196   1.514  10.388   5.585
44767SOL     OW36197   1.136   7.268   6.288
44767SOL    HW136198   1.167   7.303   6.372
44767SOL    HW236199   1.197   7.196   6.269
44768SOL     OW36200   8.060   5.421  12.693
44768SOL    HW136201   8.138   5.431  12.747
44768SOL    HW236202   8.092   5.386  12.610
44769SOL     OW36203   6.480  11.960   8.735
44769SOL    HW136204   6.456  12.004   8.816
44769SOL    HW236205   6.525  11.880   8.763
44770SOL     OW36206   3.737  11.867   3.805
44770SOL    HW136207   3.663  11.885   3.863
44770SOL    HW236208   3.698  11.845   3.721
44771SOL     OW36209   6.514   2.902   0.873
44771SOL    HW136210   6.528   2.995   0.892
44771SOL    HW236211   6.434   2.880   0.921
44772SOL     OW36212  13.094  13.262   7.537
44772SOL    HW136213  13.180  13.284   7.574
44772SOL    HW236214  13.074  13.176   7.572
44773SOL     OW36215   7.389   6.644   3.369
44773SOL    HW136216   7.385   6.677   3.279
44773SOL    HW236217   7.436   6.712   3.417
44774SOL     OW36218   9.758   3.049   4.347
44774SOL    HW136219   9.844   3.073   4.381
44774SOL    HW236220   9.756   3.086   4.259
44775SOL     OW36221   0.293  14.684   1.072
44775SOL    HW136222   0.318  14.632   1.149
44775SOL    HW236223   0.257  14.620   1.011
44776SOL     OW36224   2.247   7.777   2.448
44776SOL    HW136225   2.305   7.731   2.509
44776SOL    HW236226   2.266   7.870   2.461
44777SOL     OW36227   4.211   7.804  11.322
44777SOL    HW136228   4.271   7.756  11.379
44777SOL    HW236229   4.161   7.860  11.381
44778SOL     OW36230  10.892  12.739  13.985
44778SOL    HW136231  10.840  12.769  13.910
44778SOL    HW236232  10.877  12.806  14.052
44779SOL     OW36233   6.295   7.984  10.153
44779SOL    HW136234   6.357   7.972  10.225
44779SOL    HW236235   6.280   7.896  10.119
44780SOL     OW36236   9.843   3.507  10.789
44780SOL    HW136237   9.814   3.586  10.833
44780SOL    HW236238   9.773   3.443  10.805
44781SOL     OW36239  11.067  11.123   7.435
44781SOL    HW136240  11.075  11.028   7.432
44781SOL    HW236241  10.972  11.139   7.426
44782SOL     OW36242   6.216   2.731   1.675
44782SOL    HW136243   6.197   2.791   1.603
44782SOL    HW236244   6.132   2.716   1.717
44783SOL     OW36245  11.417   1.767   8.538
44783SOL    HW136246  11.395   1.772   8.445
44783SOL    HW236247  11.333   1.753   8.583
44784SOL     OW36248  10.306   7.628  13.855
44784SOL    HW136249  10.332   7.537  13.868
44784SOL    HW236250  10.224   7.623  13.806
44785SOL     OW36251   0.263  14.849   9.986
44785SOL    HW136252   0.265   0.013  10.076
44785SOL    HW236253   0.350   0.000   9.951
44786SOL     OW36254  11.032   7.769   7.698
44786SOL    HW136255  11.026   7.707   7.625
44786SOL    HW236256  11.117   7.812   7.686
44787SOL     OW36257  12.079   8.594   5.329
44787SOL    HW136258  12.092   8.688   5.326
44787SOL    HW236259  12.125   8.566   5.408
44788SOL     OW36260   8.190   1.019   7.982
44788SOL    HW136261   8.170   0.968   7.904
44788SOL    HW236262   8.197   0.954   8.052
44789SOL     OW36263   1.742  14.792  13.378
44789SOL    HW136264   1.679  14.720  13.386
44789SOL    HW236265   1.751  14.827  13.466
44790SOL     OW36266  14.556   5.496  10.984
44790SOL    HW136267  14.473   5.478  10.941
44790SOL    HW236268  14.614   5.526  10.913
44791SOL     OW36269   8.408   2.311   0.874
44791SOL    HW136270   8.380   2.238   0.929
44791SOL    HW236271   8.357   2.386   0.905
44792SOL     OW36272  11.176   7.099   8.979
44792SOL    HW136273  11.202   7.026   8.923
44792SOL    HW236274  11.208   7.075   9.066
44793SOL     OW36275   0.134   1.987  11.100
44793SOL    HW136276   0.043   2.015  11.099
44793SOL    HW236277   0.138   1.915  11.038
44794SOL     OW36278  11.432   3.119   2.762
44794SOL    HW136279  11.512   3.126   2.814
44794SOL    HW236280  11.396   3.033   2.783
44795SOL     OW36281  13.465  10.332   0.025
44795SOL    HW136282  13.438  10.263  14.834
44795SOL    HW236283  13.496  10.403  14.839
44796SOL     OW36284  12.247   4.328  10.553
44796SOL    HW136285  12.341   4.346  10.555
44796SOL    HW236286  12.207   4.414  10.565
44797SOL     OW36287   2.169  14.294  11.637
44797SOL    HW136288   2.229  14.245  11.580
44797SOL    HW236289   2.137  14.365  11.582
44798SOL     OW36290   9.753   1.247   5.658
44798SOL    HW136291   9.688   1.310   5.688
44798SOL    HW236292   9.762   1.185   5.731
44799SOL     OW36293   7.513  12.000   9.233
44799SOL    HW136294   7.587  12.051   9.267
44799SOL    HW236295   7.477  11.956   9.310
44800SOL     OW36296  11.937  12.596  13.331
44800SOL    HW136297  12.013  12.539  13.321
44800SOL    HW236298  11.906  12.610  13.241
44801SOL     OW36299   9.082  11.355   7.038
44801SOL    HW136300   9.116  11.274   7.000
44801SOL    HW236301   9.000  11.370   6.991
44802SOL     OW36302  13.339   9.515   3.620
44802SOL    HW136303  13.311   9.576   3.688
44802SOL    HW236304  13.385   9.446   3.667
44803SOL     OW36305   2.046  10.663  12.384
44803SOL    HW136306   2.002  10.692  12.304
44803SOL    HW236307   2.131  10.633  12.355
44804SOL     OW36308   1.138  12.204  10.524
44804SOL    HW136309   1.213  12.144  10.521
44804SOL    HW236310   1.107  12.207  10.433
44805SOL     OW36311  12.311   5.067   3.322
44805SOL    HW136312  12.305   5.065   3.418
44805SOL    HW236313  12.221   5.077   3.293
44806SOL     OW36314   1.829   5.651   9.639
44806SOL    HW136315   1.842   5.738   9.677
44806SOL    HW236316   1.749   5.660   9.587
44807SOL     OW36317   3.880   6.949   8.417
44807SOL    HW136318   3.837   6.919   8.496
44807SOL    HW236319   3.971   6.965   8.443
44808SOL     OW36320  12.097  13.654   9.244
44808SOL    HW136321  12.190  13.658   9.265
44808SOL    HW236322  12.053  13.667   9.328
44809SOL     OW36323   0.975  14.471   6.400
44809SOL    HW136324   0.992  14.509   6.313
44809SOL    HW236325   0.880  14.455   6.400
44810SOL     OW36326  11.135   0.371   7.600
44810SOL    HW136327  11.117   0.433   7.671
44810SOL    HW236328  11.049   0.354   7.561
44811SOL     OW36329   9.016   2.009   3.795
44811SOL    HW136330   9.019   2.098   3.761
44811SOL    HW236331   8.923   1.993   3.811
44812SOL     OW36332   7.640  13.616  13.375
44812SOL    HW136333   7.670  13.590  13.288
44812SOL    HW236334   7.682  13.701  13.391
44813SOL     OW36335   1.975  14.001   2.620
44813SOL    HW136336   1.896  14.032   2.666
44813SOL    HW236337   1.969  14.040   2.533
44814SOL     OW36338  12.709   1.932   9.092
44814SOL    HW136339  12.789   1.908   9.046
44814SOL    HW236340  12.731   2.013   9.137
44815SOL     OW36341   5.041   3.931   3.306
44815SOL    HW136342   5.134   3.930   3.284
44815SOL    HW236343   4.999   3.888   3.231
44816SOL     OW36344   5.504  14.049  12.879
44816SOL    HW136345   5.433  14.087  12.931
44816SOL    HW236346   5.496  13.955  12.894
44817SOL     OW36347  11.456  13.328  10.643
44817SOL    HW136348  11.445  13.242  10.603
44817SOL    HW236349  11.408  13.388  10.585
44818SOL     OW36350  12.346   1.334   4.349
44818SOL    HW136351  12.408   1.295   4.412
44818SOL    HW236352  12.361   1.428   4.356
44819SOL     OW36353   4.704  11.429  10.799
44819SOL    HW136354   4.670  11.340  10.801
44819SOL    HW236355   4.773  11.428  10.733
44820SOL     OW36356   2.101   2.847  13.103
44820SOL    HW136357   2.042   2.877  13.172
44820SOL    HW236358   2.181   2.822  13.148
44821SOL     OW36359   4.123  13.135   6.573
44821SOL    HW136360   4.071  13.151   6.652
44821SOL    HW236361   4.210  13.169   6.595
44822SOL     OW36362   9.463   9.644   7.720
44822SOL    HW136363   9.528   9.679   7.780
44822SOL    HW236364   9.493   9.673   7.633
44823SOL     OW36365  12.143   1.193  13.833
44823SOL    HW136366  12.138   1.279  13.791
44823SOL    HW236367  12.055   1.178  13.867
44824SOL     OW36368  13.794   4.712   7.630
44824SOL    HW136369  13.768   4.626   7.663
44824SOL    HW236370  13.873   4.735   7.680
44825SOL     OW36371  13.291  10.526   2.261
44825SOL    HW136372  13.366  10.485   2.303
44825SOL    HW236373  13.236  10.452   2.234
44826SOL     OW36374  13.902   6.173  10.061
44826SOL    HW136375  13.856   6.234  10.118
44826SOL    HW236376  13.882   6.086  10.096
44827SOL     OW36377   5.887  10.505   4.716
44827SOL    HW136378   5.940  10.585   4.711
44827SOL    HW236379   5.821  10.525   4.782
44828SOL     OW36380  10.252   1.102  12.362
44828SOL    HW136381  10.269   1.022  12.312
44828SOL    HW236382  10.177   1.080  12.418
44829SOL     OW36383   6.978   7.235  14.559
44829SOL    HW136384   7.060   7.282  14.544
44829SOL    HW236385   7.005   7.145  14.576
44830SOL     OW36386   8.661   8.826  14.214
44830SOL    HW136387   8.739   8.842  14.266
44830SOL    HW236388   8.680   8.745  14.166
44831SOL     OW36389   3.300   6.470   6.379
44831SOL    HW136390   3.262   6.513   6.456
44831SOL    HW236391   3.246   6.391   6.367
44832SOL     OW36392   8.163   7.170   1.533
44832SOL    HW136393   8.240   7.218   1.501
44832SOL    HW236394   8.091   7.200   1.478
44833SOL     OW36395   6.566   3.147  14.286
44833SOL    HW136396   6.611   3.124  14.205
44833SOL    HW236397   6.494   3.203  14.259
44834SOL     OW36398   6.407  10.683   4.123
44834SOL    HW136399   6.395  10.777   4.136
44834SOL    HW236400   6.343  10.642   4.182
44835SOL     OW36401   0.097  10.232   4.972
44835SOL    HW136402   0.156  10.239   4.897
44835SOL    HW236403   0.075  10.322   4.994
44836SOL     OW36404   8.956   7.077   7.907
44836SOL    HW136405   8.929   6.986   7.893
44836SOL    HW236406   8.873   7.126   7.912
44837SOL     OW36407   8.942   2.723   0.452
44837SOL    HW136408   8.903   2.737   0.539
44837SOL    HW236409   9.009   2.791   0.445
44838SOL     OW36410   9.879  12.501   3.106
44838SOL    HW136411   9.953  12.455   3.146
44838SOL    HW236412   9.806  12.483   3.165
44839SOL     OW36413   6.146   4.634   5.820
44839SOL    HW136414   6.068   4.579   5.829
44839SOL    HW236415   6.191   4.626   5.904
44840SOL     OW36416   6.228  14.272   0.503
44840SOL    HW136417   6.151  14.217   0.519
44840SOL    HW236418   6.292  14.242   0.569
44841SOL     OW36419  14.165  13.325  14.388
44841SOL    HW136420  14.081  13.288  14.361
44841SOL    HW236421  14.162  13.324  14.484
44842SOL     OW36422   1.414  13.371  14.004
44842SOL    HW136423   1.333  13.381  14.054
44842SOL    HW236424   1.390  13.392  13.914
44843SOL     OW36425   1.549   8.298   7.150
44843SOL    HW136426   1.635   8.313   7.190
44843SOL    HW236427   1.524   8.383   7.113
44844SOL     OW36428   8.425   7.441   6.831
44844SOL    HW136429   8.405   7.516   6.886
44844SOL    HW236430   8.377   7.457   6.750
44845SOL     OW36431  13.252  11.832   4.236
44845SOL    HW136432  13.333  11.795   4.271
44845SOL    HW236433  13.192  11.758   4.232
44846SOL     OW36434   5.274   4.126  10.851
44846SOL    HW136435   5.290   4.036  10.823
44846SOL    HW236436   5.210   4.159  10.788
44847SOL     OW36437  10.475   6.221   6.501
44847SOL    HW136438  10.523   6.144   6.531
44847SOL    HW236439  10.446   6.264   6.581
44848SOL     OW36440  11.531  14.345   3.260
44848SOL    HW136441  11.579  14.315   3.183
44848SOL    HW236442  11.457  14.284   3.267
44849SOL     OW36443   6.787  10.338   9.314
44849SOL    HW136444   6.815  10.260   9.267
44849SOL    HW236445   6.834  10.410   9.272
44850SOL     OW36446   1.488   4.859   5.389
44850SOL    HW136447   1.556   4.855   5.322
44850SOL    HW236448   1.483   4.951   5.412
44851SOL     OW36449  13.910   1.331   5.592
44851SOL    HW136450  13.982   1.312   5.532
44851SOL    HW236451  13.939   1.295   5.676
44852SOL     OW36452   5.491  11.951   1.683
44852SOL    HW136453   5.422  12.015   1.666
44852SOL    HW236454   5.502  11.906   1.599
44853SOL     OW36455   1.928   1.822  12.332
44853SOL    HW136456   1.940   1.905  12.285
44853SOL    HW236457   1.834   1.807  12.328
44854SOL     OW36458   6.982  13.586   4.191
44854SOL    HW136459   7.072  13.618   4.183
44854SOL    HW236460   6.969  13.576   4.285
44855SOL     OW36461   9.646  11.401  13.292
44855SOL    HW136462   9.695  11.475  13.328
44855SOL    HW236463   9.572  11.441  13.247
44856SOL     OW36464   4.593  13.034  11.942
44856SOL    HW136465   4.662  13.064  11.883
44856SOL    HW236466   4.530  13.106  11.944
44857SOL     OW36467   7.122   5.448   9.459
44857SOL    HW136468   7.196   5.399   9.493
44857SOL    HW236469   7.072   5.384   9.409
44858SOL     OW36470  13.928   7.538  10.308
44858SOL    HW136471  13.911   7.555  10.216
44858SOL    HW236472  13.854   7.484  10.337
44859SOL     OW36473   3.171   2.641  11.052
44859SOL    HW136474   3.135   2.636  10.964
44859SOL    HW236475   3.226   2.719  11.052
44860SOL     OW36476   6.988   9.410  11.794
44860SOL    HW136477   6.948   9.434  11.710
44860SOL    HW236478   6.952   9.323  11.813
44861SOL     OW36479   0.976  12.812  11.058
44861SOL    HW136480   0.950  12.728  11.020
44861SOL    HW236481   1.016  12.789  11.142
44862SOL     OW36482  14.565  13.689  10.599
44862SOL    HW136483  14.638  13.632  10.575
44862SOL    HW236484  14.515  13.701  10.518
44863SOL     OW36485  12.674   6.852   7.154
44863SOL    HW136486  12.728   6.774   7.144
44863SOL    HW236487  12.737   6.923   7.165
44864SOL     OW36488   6.523   2.224   0.476
44864SOL    HW136489   6.518   2.221   0.572
44864SOL    HW236490   6.508   2.316   0.454
44865SOL     OW36491  12.633   0.896   3.575
44865SOL    HW136492  12.637   0.991   3.569
44865SOL    HW236493  12.723   0.868   3.592
44866SOL     OW36494   7.440   4.127   4.410
44866SOL    HW136495   7.527   4.112   4.447
44866SOL    HW236496   7.381   4.124   4.484
44867SOL     OW36497   7.878   6.465  13.850
44867SOL    HW136498   7.785   6.482  13.835
44867SOL    HW236499   7.900   6.395  13.789
44868SOL     OW36500  13.569  10.285   4.331
44868SOL    HW136501  13.505  10.348   4.299
44868SOL    HW236502  13.649  10.306   4.283
44869SOL     OW36503   8.009  12.584   1.975
44869SOL    HW136504   7.935  12.619   1.926
44869SOL    HW236505   8.048  12.518   1.917
44870SOL     OW36506   8.206   1.555   1.372
44870SOL    HW136507   8.199   1.612   1.296
44870SOL    HW236508   8.235   1.612   1.443
44871SOL     OW36509   8.236   2.477   9.773
44871SOL    HW136510   8.242   2.398   9.720
44871SOL    HW236511   8.280   2.545   9.721
44872SOL     OW36512  12.983  12.467  12.976
44872SOL    HW136513  12.890  12.456  12.998
44872SOL    HW236514  13.016  12.378  12.965
44873SOL     OW36515   4.792   6.373   0.129
44873SOL    HW136516   4.797   6.394   0.036
44873SOL    HW236517   4.703   6.340   0.141
44874SOL     OW36518   6.540   8.907  10.822
44874SOL    HW136519   6.611   8.946  10.771
44874SOL    HW236520   6.482   8.869  10.757
44875SOL     OW36521   8.360   8.058   2.245
44875SOL    HW136522   8.388   8.149   2.250
44875SOL    HW236523   8.380   8.022   2.331
44876SOL     OW36524   8.799   4.630   5.316
44876SOL    HW136525   8.751   4.628   5.233
44876SOL    HW236526   8.736   4.665   5.379
44877SOL     OW36527   2.486   5.594   1.813
44877SOL    HW136528   2.424   5.551   1.871
44877SOL    HW236529   2.572   5.560   1.840
44878SOL     OW36530   1.476  13.773   3.656
44878SOL    HW136531   1.563  13.791   3.619
44878SOL    HW236532   1.477  13.680   3.675
44879SOL     OW36533   6.066   0.151   9.828
44879SOL    HW136534   6.154   0.184   9.843
44879SOL    HW236535   6.035   0.197   9.750
44880SOL     OW36536  13.516  11.516   9.097
44880SOL    HW136537  13.492  11.575   9.026
44880SOL    HW236538  13.612  11.518   9.099
44881SOL     OW36539   4.115  13.291   0.022
44881SOL    HW136540   4.052  13.256  14.828
44881SOL    HW236541   4.127  13.382  14.865
44882SOL     OW36542   4.264  10.436   1.806
44882SOL    HW136543   4.307  10.424   1.721
44882SOL    HW236544   4.256  10.347   1.841
44883SOL     OW36545   7.356   7.112   7.909
44883SOL    HW136546   7.443   7.097   7.945
44883SOL    HW236547   7.309   7.158   7.979
44884SOL     OW36548   4.270   9.532  12.614
44884SOL    HW136549   4.358   9.498  12.626
44884SOL    HW236550   4.283   9.620  12.579
44885SOL     OW36551   1.051   3.599   0.071
44885SOL    HW136552   1.005   3.658   0.011
44885SOL    HW236553   1.102   3.657   0.128
44886SOL     OW36554  12.179   8.125   2.658
44886SOL    HW136555  12.265   8.161   2.679
44886SOL    HW236556  12.141   8.187   2.596
44887SOL     OW36557  11.597   5.455  13.172
44887SOL    HW136558  11.593   5.537  13.124
44887SOL    HW236559  11.626   5.480  13.260
44888SOL     OW36560   9.730  11.289   7.066
44888SOL    HW136561   9.709  11.241   6.986
44888SOL    HW236562   9.751  11.377   7.037
44889SOL     OW36563   8.378   5.087   8.355
44889SOL    HW136564   8.426   5.006   8.369
44889SOL    HW236565   8.340   5.079   8.268
44890SOL     OW36566  14.840   4.251   0.149
44890SOL    HW136567   0.034   4.317   0.121
44890SOL    HW236568   0.018   4.196   0.210
44891SOL     OW36569   6.126   3.560   2.231
44891SOL    HW136570   6.041   3.556   2.274
44891SOL    HW236571   6.107   3.591   2.143
44892SOL     OW36572  10.066   3.295   3.580
44892SOL    HW136573  10.017   3.367   3.620
44892SOL    HW236574  10.063   3.313   3.486
44893SOL     OW36575  11.543   1.228   4.532
44893SOL    HW136576  11.529   1.174   4.454
44893SOL    HW236577  11.456   1.240   4.569
44894SOL     OW36578  14.479  13.849   7.471
44894SOL    HW136579  14.408  13.897   7.428
44894SOL    HW236580  14.543  13.917   7.494
44895SOL     OW36581   0.431  10.167  14.319
44895SOL    HW136582   0.401  10.257  14.318
44895SOL    HW236583   0.485  10.161  14.398
44896SOL     OW36584   6.794   1.446   2.849
44896SOL    HW136585   6.780   1.539   2.866
44896SOL    HW236586   6.708   1.412   2.824
44897SOL     OW36587   4.528  12.034   7.107
44897SOL    HW136588   4.545  11.953   7.059
44897SOL    HW236589   4.613  12.079   7.108
44898SOL     OW36590   1.585   6.134   0.902
44898SOL    HW136591   1.502   6.088   0.890
44898SOL    HW236592   1.583   6.206   0.839
44899SOL     OW36593   0.149   2.602  10.445
44899SOL    HW136594   0.064   2.645  10.433
44899SOL    HW236595   0.137   2.547  10.523
44900SOL     OW36596  14.047  12.048   8.953
44900SOL    HW136597  13.976  11.988   8.976
44900SOL    HW236598  14.074  12.087   9.036
44901SOL     OW36599  14.102  10.883   4.926
44901SOL    HW136600  14.026  10.935   4.951
44901SOL    HW236601  14.172  10.912   4.984
44902SOL     OW36602  10.978   6.793   8.279
44902SOL    HW136603  11.018   6.880   8.277
44902SOL    HW236604  10.928   6.791   8.361
44903SOL     OW36605  14.675   2.720   7.574
44903SOL    HW136606  14.704   2.794   7.626
44903SOL    HW236607  14.606   2.679   7.627
44904SOL     OW36608   4.551   3.180   2.957
44904SOL    HW136609   4.591   3.126   2.889
44904SOL    HW236610   4.472   3.132   2.982
44905SOL     OW36611  11.630   2.948   0.531
44905SOL    HW136612  11.630   3.043   0.545
44905SOL    HW236613  11.611   2.938   0.438
44906SOL     OW36614   4.822  14.734  13.322
44906SOL    HW136615   4.774  14.691  13.392
44906SOL    HW236616   4.849  14.664  13.264
44907SOL     OW36617   2.666   6.343  14.409
44907SOL    HW136618   2.708   6.378  14.487
44907SOL    HW236619   2.654   6.250  14.426
44908SOL     OW36620   9.442  12.567   2.752
44908SOL    HW136621   9.472  12.540   2.838
44908SOL    HW236622   9.420  12.659   2.761
44909SOL     OW36623   5.882  12.443   1.931
44909SOL    HW136624   5.918  12.424   1.844
44909SOL    HW236625   5.863  12.537   1.929
44910SOL     OW36626   1.623   1.181   5.896
44910SOL    HW136627   1.579   1.096   5.886
44910SOL    HW236628   1.559   1.244   5.863
44911SOL     OW36629  12.191   9.428  14.527
44911SOL    HW136630  12.253   9.500  14.515
44911SOL    HW236631  12.129   9.438  14.455
44912SOL     OW36632   6.871   5.662   5.798
44912SOL    HW136633   6.948   5.606   5.813
44912SOL    HW236634   6.906   5.751   5.800
44913SOL     OW36635  14.840   0.296  10.136
44913SOL    HW136636  14.823   0.293  10.042
44913SOL    HW236637   0.012   0.382  10.150
44914SOL     OW36638  12.852   5.651   3.074
44914SOL    HW136639  12.759   5.635   3.063
44914SOL    HW236640  12.856   5.732   3.125
44915SOL     OW36641   7.875   3.289  13.291
44915SOL    HW136642   7.966   3.267  13.313
44915SOL    HW236643   7.878   3.382  13.270
44916SOL     OW36644  11.479  13.441  14.420
44916SOL    HW136645  11.490  13.430  14.515
44916SOL    HW236646  11.538  13.513  14.397
44917SOL     OW36647   7.704   5.196  10.397
44917SOL    HW136648   7.699   5.250  10.476
44917SOL    HW236649   7.781   5.228  10.351
44918SOL     OW36650   9.174  13.785   3.579
44918SOL    HW136651   9.249  13.819   3.529
44918SOL    HW236652   9.129  13.864   3.610
44919SOL     OW36653   4.841   1.152  13.078
44919SOL    HW136654   4.856   1.228  13.133
44919SOL    HW236655   4.922   1.140  13.029
44920SOL     OW36656   5.794   8.839   0.926
44920SOL    HW136657   5.871   8.789   0.899
44920SOL    HW236658   5.829   8.911   0.978
44921SOL     OW36659   9.884   1.677   5.966
44921SOL    HW136660   9.875   1.764   6.006
44921SOL    HW236661   9.955   1.687   5.902
44922SOL     OW36662   1.028  12.242   9.244
44922SOL    HW136663   1.022  12.195   9.160
44922SOL    HW236664   0.937  12.261   9.266
44923SOL     OW36665  13.378  11.786   3.925
44923SOL    HW136666  13.334  11.737   3.994
44923SOL    HW236667  13.308  11.806   3.862
44924SOL     OW36668   8.802   2.029   1.815
44924SOL    HW136669   8.893   2.003   1.808
44924SOL    HW236670   8.782   2.071   1.731
44925SOL     OW36671  12.120   9.042   4.639
44925SOL    HW136672  12.125   8.954   4.676
44925SOL    HW236673  12.037   9.042   4.591
44926SOL     OW36674   5.867   7.613  11.930
44926SOL    HW136675   5.902   7.554  11.863
44926SOL    HW236676   5.853   7.557  12.007
44927SOL     OW36677   7.653  12.063  14.439
44927SOL    HW136678   7.685  11.994  14.497
44927SOL    HW236679   7.648  12.022  14.353
44928SOL     OW36680  11.479  11.787   5.069
44928SOL    HW136681  11.399  11.756   5.113
44928SOL    HW236682  11.550  11.756   5.124
44929SOL     OW36683   7.111  14.824   6.033
44929SOL    HW136684   7.192  14.781   6.062
44929SOL    HW236685   7.140   0.015   5.964
44930SOL     OW36686  11.697   9.224   2.855
44930SOL    HW136687  11.660   9.146   2.897
44930SOL    HW236688  11.651   9.297   2.896
44931SOL     OW36689   9.528  10.916  13.570
44931SOL    HW136690   9.583  10.946  13.497
44931SOL    HW236691   9.475  10.993  13.593
44932SOL     OW36692   7.552  14.175  11.600
44932SOL    HW136693   7.601  14.181  11.682
44932SOL    HW236694   7.550  14.264  11.566
44933SOL     OW36695   3.054   4.290   5.454
44933SOL    HW136696   3.038   4.208   5.407
44933SOL    HW236697   3.076   4.263   5.543
44934SOL     OW36698  14.475   1.455  13.489
44934SOL    HW136699  14.447   1.521  13.552
44934SOL    HW236700  14.402   1.393  13.484
44935SOL     OW36701   0.200   3.144   0.908
44935SOL    HW136702   0.284   3.111   0.875
44935SOL    HW236703   0.166   3.199   0.837
44936SOL     OW36704   7.483   9.393   5.566
44936SOL    HW136705   7.498   9.333   5.640
44936SOL    HW236706   7.397   9.369   5.532
44937SOL     OW36707   0.005   7.983   3.093
44937SOL    HW136708  14.812   7.910   3.088
44937SOL    HW236709   0.034   7.984   3.184
44938SOL     OW36710   1.329   5.343   0.954
44938SOL    HW136711   1.403   5.331   1.013
44938SOL    HW236712   1.356   5.416   0.897
44939SOL     OW36713   6.036  10.868  10.691
44939SOL    HW136714   6.077  10.805  10.749
44939SOL    HW236715   6.108  10.925  10.662
44940SOL     OW36716   6.763   2.902   4.964
44940SOL    HW136717   6.849   2.924   4.998
44940SOL    HW236718   6.740   2.975   4.906
44941SOL     OW36719   7.515   2.304  11.801
44941SOL    HW136720   7.578   2.247  11.757
44941SOL    HW236721   7.543   2.392  11.779
44942SOL     OW36722   8.944   0.084  11.452
44942SOL    HW136723   8.880   0.143  11.491
44942SOL    HW236724   8.974   0.029  11.524
44943SOL     OW36725  12.792   6.066   1.743
44943SOL    HW136726  12.749   6.143   1.782
44943SOL    HW236727  12.723   6.023   1.693
44944SOL     OW36728   2.988   5.081  11.408
44944SOL    HW136729   3.046   5.009  11.386
44944SOL    HW236730   3.024   5.117  11.490
44945SOL     OW36731  14.036  10.738   4.696
44945SOL    HW136732  14.052  10.768   4.785
44945SOL    HW236733  14.080  10.803   4.641
44946SOL     OW36734   6.399   9.942   4.783
44946SOL    HW136735   6.382  10.026   4.825
44946SOL    HW236736   6.313   9.911   4.755
44947SOL     OW36737   0.727   2.069   7.732
44947SOL    HW136738   0.644   2.056   7.685
44947SOL    HW236739   0.793   2.068   7.663
44948SOL     OW36740   4.012   7.803  10.856
44948SOL    HW136741   3.997   7.844  10.941
44948SOL    HW236742   4.049   7.717  10.877
44949SOL     OW36743  13.257   3.681   8.687
44949SOL    HW136744  13.308   3.737   8.629
44949SOL    HW236745  13.238   3.736   8.763
44950SOL     OW36746   3.549   1.214   8.379
44950SOL    HW136747   3.525   1.302   8.409
44950SOL    HW236748   3.493   1.155   8.430
44951SOL     OW36749   3.622   4.192   1.087
44951SOL    HW136750   3.595   4.218   1.175
44951SOL    HW236751   3.557   4.126   1.062
44952SOL     OW36752   7.647   4.808   8.928
44952SOL    HW136753   7.654   4.714   8.946
44952SOL    HW236754   7.688   4.850   9.003
44953SOL     OW36755   6.537  12.734   1.953
44953SOL    HW136756   6.554  12.749   1.860
44953SOL    HW236757   6.470  12.665   1.954
44954SOL     OW36758   3.248  14.357   5.840
44954SOL    HW136759   3.312  14.347   5.910
44954SOL    HW236760   3.164  14.360   5.884
44955SOL     OW36761   0.115   2.122   2.908
44955SOL    HW136762   0.068   2.186   2.962
44955SOL    HW236763   0.176   2.174   2.856
44956SOL     OW36764  11.810   7.972   1.136
44956SOL    HW136765  11.762   8.048   1.168
44956SOL    HW236766  11.747   7.924   1.084
44957SOL     OW36767  10.447  10.485   2.761
44957SOL    HW136768  10.391  10.547   2.808
44957SOL    HW236769  10.468  10.418   2.825
44958SOL     OW36770  11.179   4.131   8.780
44958SOL    HW136771  11.136   4.158   8.699
44958SOL    HW236772  11.207   4.213   8.821
44959SOL     OW36773  14.805   5.454   5.478
44959SOL    HW136774  14.752   5.374   5.477
44959SOL    HW236775   0.022   5.426   5.448
44960SOL     OW36776  14.067  10.285   7.375
44960SOL    HW136777  14.047  10.232   7.297
44960SOL    HW236778  13.982  10.301   7.415
44961SOL     OW36779   1.419   5.654   8.167
44961SOL    HW136780   1.373   5.680   8.087
44961SOL    HW236781   1.378   5.706   8.236
44962SOL     OW36782   8.084   8.744   7.365
44962SOL    HW136783   8.056   8.654   7.377
44962SOL    HW236784   8.177   8.738   7.341
44963SOL     OW36785   6.386   1.571  11.212
44963SOL    HW136786   6.301   1.564  11.167
44963SOL    HW236787   6.442   1.616  11.149
44964SOL     OW36788  10.002   3.084  13.630
44964SOL    HW136789   9.985   3.038  13.713
44964SOL    HW236790  10.097   3.089  13.624
44965SOL     OW36791   1.484   7.332   9.539
44965SOL    HW136792   1.460   7.254   9.589
44965SOL    HW236793   1.578   7.343   9.553
44966SOL     OW36794   4.981  14.190   3.547
44966SOL    HW136795   4.890  14.170   3.523
44966SOL    HW236796   5.006  14.259   3.486
44967SOL     OW36797   0.914   6.045   5.998
44967SOL    HW136798   0.903   6.018   6.089
44967SOL    HW236799   0.998   6.006   5.972
44968SOL     OW36800  14.316   7.974  11.611
44968SOL    HW136801  14.371   8.052  11.603
44968SOL    HW236802  14.288   7.956  11.521
44969SOL     OW36803   8.432   7.733  12.086
44969SOL    HW136804   8.523   7.707  12.077
44969SOL    HW236805   8.435   7.820  12.125
44970SOL     OW36806  12.429  12.967   1.559
44970SOL    HW136807  12.458  13.040   1.504
44970SOL    HW236808  12.465  12.889   1.516
44971SOL     OW36809   2.833  12.614   0.085
44971SOL    HW136810   2.806  12.524   0.105
44971SOL    HW236811   2.815  12.623  14.861
44972SOL     OW36812   4.243   8.999  13.357
44972SOL    HW136813   4.290   9.049  13.290
44972SOL    HW236814   4.189   8.937  13.308
44973SOL     OW36815   3.960   2.718   4.459
44973SOL    HW136816   3.980   2.651   4.525
44973SOL    HW236817   3.866   2.711   4.445
44974SOL     OW36818   4.889   8.562   3.700
44974SOL    HW136819   4.975   8.603   3.715
44974SOL    HW236820   4.865   8.527   3.786
44975SOL     OW36821   3.640   9.061  14.281
44975SOL    HW136822   3.640   9.116  14.202
44975SOL    HW236823   3.617   9.121  14.351
44976SOL     OW36824   9.974   6.729   6.303
44976SOL    HW136825   9.962   6.724   6.397
44976SOL    HW236826   9.885   6.728   6.268
44977SOL     OW36827   5.375   7.889   7.112
44977SOL    HW136828   5.414   7.808   7.079
44977SOL    HW236829   5.379   7.881   7.207
44978SOL     OW36830  11.354   6.613   7.338
44978SOL    HW136831  11.273   6.562   7.350
44978SOL    HW236832  11.387   6.587   7.252
44979SOL     OW36833   7.109   8.002   2.838
44979SOL    HW136834   7.086   8.050   2.758
44979SOL    HW236835   7.163   8.063   2.888
44980SOL     OW36836   5.822  11.438   4.266
44980SOL    HW136837   5.824  11.412   4.358
44980SOL    HW236838   5.818  11.355   4.219
44981SOL     OW36839   7.241   8.791   2.623
44981SOL    HW136840   7.279   8.775   2.537
44981SOL    HW236841   7.218   8.704   2.656
44982SOL     OW36842   0.133   5.454  13.534
44982SOL    HW136843   0.079   5.412  13.467
44982SOL    HW236844   0.223   5.426  13.514
44983SOL     OW36845  13.205  13.815  10.769
44983SOL    HW136846  13.180  13.881  10.704
44983SOL    HW236847  13.226  13.866  10.847
44984SOL     OW36848  13.976   7.457   1.891
44984SOL    HW136849  13.926   7.455   1.809
44984SOL    HW236850  14.063   7.489   1.864
44985SOL     OW36851  10.483  12.249   6.668
44985SOL    HW136852  10.498  12.253   6.573
44985SOL    HW236853  10.481  12.341   6.695
44986SOL     OW36854   8.968  11.302   0.733
44986SOL    HW136855   8.923  11.219   0.751
44986SOL    HW236856   9.023  11.283   0.657
44987SOL     OW36857   2.652   2.497  14.614
44987SOL    HW136858   2.619   2.411  14.642
44987SOL    HW236859   2.650   2.494  14.519
44988SOL     OW36860   5.101  10.468  14.085
44988SOL    HW136861   5.040  10.541  14.078
44988SOL    HW236862   5.113  10.438  13.995
44989SOL     OW36863  13.039  14.639   0.471
44989SOL    HW136864  13.063  14.595   0.389
44989SOL    HW236865  12.955  14.680   0.453
44990SOL     OW36866   3.675   3.598  10.599
44990SOL    HW136867   3.579   3.602  10.597
44990SOL    HW236868   3.700   3.655  10.672
44991SOL     OW36869   0.604  14.811   3.116
44991SOL    HW136870   0.589  14.721   3.143
44991SOL    HW236871   0.675  14.842   3.173
44992SOL     OW36872  13.815   2.483   5.071
44992SOL    HW136873  13.869   2.427   5.126
44992SOL    HW236874  13.761   2.532   5.133
44993SOL     OW36875   1.753  10.418  11.023
44993SOL    HW136876   1.780  10.469  10.946
44993SOL    HW236877   1.821  10.352  11.033
44994SOL     OW36878   0.675   4.418   2.562
44994SOL    HW136879   0.769   4.433   2.565
44994SOL    HW236880   0.656   4.404   2.470
44995SOL     OW36881  13.004   4.578   6.070
44995SOL    HW136882  13.050   4.508   6.024
44995SOL    HW236883  12.978   4.539   6.153
44996SOL     OW36884   7.936  10.868   6.336
44996SOL    HW136885   8.026  10.896   6.315
44996SOL    HW236886   7.896  10.851   6.250
44997SOL     OW36887   4.722  10.965   8.630
44997SOL    HW136888   4.796  10.986   8.686
44997SOL    HW236889   4.691  11.050   8.598
44998SOL     OW36890   0.570   7.851   6.989
44998SOL    HW136891   0.648   7.903   7.009
44998SOL    HW236892   0.552   7.867   6.897
44999SOL     OW36893   9.478   7.802   9.846
44999SOL    HW136894   9.544   7.831   9.910
44999SOL    HW236895   9.449   7.883   9.804
45000SOL     OW36896  12.291  14.653   7.935
45000SOL    HW136897  12.365  14.611   7.981
45000SOL    HW236898  12.214  14.606   7.967
45001SOL     OW36899   0.483   9.491   8.007
45001SOL    HW136900   0.564   9.535   8.033
45001SOL    HW236901   0.467   9.522   7.918
45002SOL     OW36902   1.645   7.498   7.551
45002SOL    HW136903   1.705   7.572   7.562
45002SOL    HW236904   1.568   7.522   7.602
45003SOL     OW36905   1.734   6.098   0.407
45003SOL    HW136906   1.738   6.167   0.473
45003SOL    HW236907   1.650   6.111   0.363
45004SOL     OW36908   6.143   0.641  12.606
45004SOL    HW136909   6.112   0.718  12.557
45004SOL    HW236910   6.075   0.575  12.593
45005SOL     OW36911  10.073   2.593   2.530
45005SOL    HW136912  10.144   2.561   2.586
45005SOL    HW236913  10.073   2.688   2.544
45006SOL     OW36914  10.960   3.077  11.667
45006SOL    HW136915  10.911   3.133  11.607
45006SOL    HW236916  10.999   3.010  11.610
45007SOL     OW36917  12.122   1.365  12.428
45007SOL    HW136918  12.148   1.457  12.427
45007SOL    HW236919  12.136   1.337  12.518
45008SOL     OW36920   1.203  10.569   5.465
45008SOL    HW136921   1.127  10.511   5.463
45008SOL    HW236922   1.208  10.605   5.376
45009SOL     OW36923  10.345   4.126   3.650
45009SOL    HW136924  10.264   4.084   3.680
45009SOL    HW236925  10.315   4.190   3.585
45010SOL     OW36926   6.903  11.570   9.802
45010SOL    HW136927   6.989  11.596   9.771
45010SOL    HW236928   6.920  11.522   9.883
45011SOL     OW36929   9.323   3.982   3.278
45011SOL    HW136930   9.286   4.011   3.362
45011SOL    HW236931   9.417   3.983   3.292
45012SOL     OW36932   0.623   3.015   7.504
45012SOL    HW136933   0.653   2.934   7.463
45012SOL    HW236934   0.536   3.029   7.469
45013SOL     OW36935  13.234   0.667   8.277
45013SOL    HW136936  13.214   0.751   8.319
45013SOL    HW236937  13.300   0.689   8.211
45014SOL     OW36938   2.497  13.517   8.642
45014SOL    HW136939   2.520  13.603   8.675
45014SOL    HW236940   2.572  13.462   8.664
45015SOL     OW36941  10.117   7.517   3.889
45015SOL    HW136942  10.160   7.437   3.858
45015SOL    HW236943  10.046   7.531   3.827
45016SOL     OW36944   9.631  10.510   1.609
45016SOL    HW136945   9.543  10.529   1.639
45016SOL    HW236946   9.688  10.558   1.669
45017SOL     OW36947   3.502   1.546  10.435
45017SOL    HW136948   3.432   1.541  10.501
45017SOL    HW236949   3.465   1.505  10.357
45018SOL     OW36950   4.262  12.077   3.595
45018SOL    HW136951   4.205  12.152   3.611
45018SOL    HW236952   4.211  12.002   3.623
45019SOL     OW36953   3.407   3.329  11.066
45019SOL    HW136954   3.422   3.315  11.160
45019SOL    HW236955   3.355   3.254  11.039
45020SOL     OW36956   0.434   5.598   4.470
45020SOL    HW136957   0.359   5.654   4.489
45020SOL    HW236958   0.509   5.657   4.473
45021SOL     OW36959   2.811  11.446  10.711
45021SOL    HW136960   2.860  11.397  10.778
45021SOL    HW236961   2.754  11.381  10.671
45022SOL     OW36962   6.908   2.096  10.439
45022SOL    HW136963   6.887   2.137  10.523
45022SOL    HW236964   6.825   2.065  10.405
45023SOL     OW36965   8.064   4.627   2.513
45023SOL    HW136966   8.010   4.603   2.588
45023SOL    HW236967   8.127   4.555   2.505
45024SOL     OW36968   1.314   2.794  12.060
45024SOL    HW136969   1.294   2.853  12.132
45024SOL    HW236970   1.276   2.710  12.086
45025SOL     OW36971   7.758  14.210   5.797
45025SOL    HW136972   7.756  14.122   5.760
45025SOL    HW236973   7.669  14.244   5.785
45026SOL     OW36974   1.017   5.782   2.308
45026SOL    HW136975   0.993   5.867   2.345
45026SOL    HW236976   0.936   5.750   2.269
45027SOL     OW36977   2.074   8.377   1.161
45027SOL    HW136978   2.126   8.457   1.171
45027SOL    HW236979   2.103   8.321   1.233
45028SOL     OW36980   9.881   2.176  12.295
45028SOL    HW136981   9.876   2.262  12.336
45028SOL    HW236982   9.833   2.186  12.212
45029SOL     OW36983   3.791  11.349   1.932
45029SOL    HW136984   3.711  11.338   1.984
45029SOL    HW236985   3.862  11.342   1.996
45030SOL     OW36986   1.607   0.304  14.058
45030SOL    HW136987   1.577   0.260  14.137
45030SOL    HW236988   1.596   0.397  14.076
45031SOL     OW36989   8.604   9.587   4.615
45031SOL    HW136990   8.692   9.551   4.624
45031SOL    HW236991   8.559   9.525   4.557
45032SOL     OW36992   5.206   6.037   3.623
45032SOL    HW136993   5.244   6.099   3.685
45032SOL    HW236994   5.117   6.022   3.655
45033SOL     OW36995  10.086  14.090   8.254
45033SOL    HW136996  10.022  14.022   8.275
45033SOL    HW236997  10.076  14.155   8.324
45034SOL     OW36998  13.167   3.800  14.262
45034SOL    HW136999  13.232   3.749  14.310
45034SOL    HW237000  13.137   3.866  14.324
45035SOL     OW37001   9.565  14.038  11.898
45035SOL    HW137002   9.504  13.970  11.870
45035SOL    HW237003   9.514  14.091  11.960
45036SOL     OW37004   1.288   0.989  12.490
45036SOL    HW137005   1.274   1.036  12.573
45036SOL    HW237006   1.213   1.013  12.435
45037SOL     OW37007  12.708   0.674  10.463
45037SOL    HW137008  12.802   0.674  10.483
45037SOL    HW237009  12.666   0.699  10.545
45038SOL     OW37010   2.596   9.487   8.827
45038SOL    HW137011   2.560   9.517   8.744
45038SOL    HW237012   2.686   9.461   8.807
45039SOL     OW37013   0.693  13.849  13.648
45039SOL    HW137014   0.725  13.924  13.599
45039SOL    HW237015   0.730  13.859  13.735
45040SOL     OW37016   7.546   3.683   4.202
45040SOL    HW137017   7.484   3.738   4.154
45040SOL    HW237018   7.502   3.599   4.210
45041SOL     OW37019   9.519   3.118  10.167
45041SOL    HW137020   9.478   3.116  10.253
45041SOL    HW237021   9.514   3.028  10.135
45042SOL     OW37022   7.120  14.048  12.088
45042SOL    HW137023   7.121  14.110  12.161
45042SOL    HW237024   7.027  14.034  12.070
45043SOL     OW37025  11.541   5.026  13.446
45043SOL    HW137026  11.601   5.092  13.412
45043SOL    HW237027  11.463   5.034  13.391
45044SOL     OW37028   2.768  12.358   1.408
45044SOL    HW137029   2.729  12.299   1.343
45044SOL    HW237030   2.701  12.366   1.476
45045SOL     OW37031  12.976  14.386   5.807
45045SOL    HW137032  12.880  14.382   5.805
45045SOL    HW237033  13.000  14.424   5.722
45046SOL     OW37034   8.205   0.902  13.620
45046SOL    HW137035   8.186   0.843  13.547
45046SOL    HW237036   8.247   0.847  13.686
45047SOL     OW37037   1.316   2.975   7.907
45047SOL    HW137038   1.372   2.987   7.984
45047SOL    HW237039   1.251   2.910   7.935
45048SOL     OW37040  13.184   5.332   7.056
45048SOL    HW137041  13.160   5.307   7.145
45048SOL    HW237042  13.102   5.360   7.016
45049SOL     OW37043   7.238   8.988  10.563
45049SOL    HW137044   7.186   9.008  10.641
45049SOL    HW237045   7.238   8.892  10.558
45050SOL     OW37046  10.805   0.587   1.217
45050SOL    HW137047  10.788   0.662   1.159
45050SOL    HW237048  10.733   0.589   1.280
45051SOL     OW37049   1.107   5.844  13.038
45051SOL    HW137050   1.022   5.818  13.001
45051SOL    HW237051   1.085   5.896  13.115
45052SOL     OW37052   5.502  11.533  14.503
45052SOL    HW137053   5.421  11.568  14.468
45052SOL    HW237054   5.522  11.458  14.447
45053SOL     OW37055   6.143   6.476   7.305
45053SOL    HW137056   6.223   6.482   7.252
45053SOL    HW237057   6.170   6.505   7.392
45054SOL     OW37058   7.279  14.336  10.821
45054SOL    HW137059   7.306  14.277  10.891
45054SOL    HW237060   7.188  14.312  10.802
45055SOL     OW37061   3.748   4.379   5.155
45055SOL    HW137062   3.654   4.372   5.140
45055SOL    HW237063   3.770   4.299   5.204
45056SOL     OW37064  13.481   8.128   2.302
45056SOL    HW137065  13.536   8.129   2.381
45056SOL    HW237066  13.504   8.047   2.257
45057SOL     OW37067  13.748   5.163  10.484
45057SOL    HW137068  13.737   5.258  10.486
45057SOL    HW237069  13.739   5.139  10.392
45058SOL     OW37070   3.865   0.146   3.239
45058SOL    HW137071   3.809   0.072   3.261
45058SOL    HW237072   3.809   0.223   3.250
45059SOL     OW37073  14.411   5.190  10.955
45059SOL    HW137074  14.354   5.159  11.025
45059SOL    HW237075  14.386   5.282  10.944
45060SOL     OW37076  10.757   3.223  14.028
45060SOL    HW137077  10.677   3.216  13.976
45060SOL    HW237078  10.818   3.269  13.970
45061SOL     OW37079  12.278   3.490   9.905
45061SOL    HW137080  12.269   3.404   9.945
45061SOL    HW237081  12.330   3.540   9.968
45062SOL     OW37082   8.882   8.076   1.521
45062SOL    HW137083   8.887   8.164   1.485
45062SOL    HW237084   8.971   8.041   1.511
45063SOL     OW37085  11.765   7.242  12.998
45063SOL    HW137086  11.679   7.224  12.958
45063SOL    HW237087  11.777   7.336  12.986
45064SOL     OW37088   2.981   1.784  12.088
45064SOL    HW137089   2.911   1.726  12.058
45064SOL    HW237090   2.936   1.861  12.122
45065SOL     OW37091   6.343   6.272   9.963
45065SOL    HW137092   6.351   6.332   9.888
45065SOL    HW237093   6.334   6.185   9.923
45066SOL     OW37094   3.322   8.391   4.893
45066SOL    HW137095   3.305   8.320   4.832
45066SOL    HW237096   3.262   8.375   4.966
45067SOL     OW37097  12.262   6.325  13.605
45067SOL    HW137098  12.311   6.244  13.590
45067SOL    HW237099  12.172   6.297  13.617
45068SOL     OW37100  12.061   0.890   8.806
45068SOL    HW137101  12.154   0.867   8.810
45068SOL    HW237102  12.016   0.806   8.810
45069SOL     OW37103   1.130   2.469   1.273
45069SOL    HW137104   1.175   2.388   1.299
45069SOL    HW237105   1.198   2.536   1.275
45070SOL     OW37106   3.670   6.809   6.288
45070SOL    HW137107   3.684   6.812   6.194
45070SOL    HW237108   3.636   6.721   6.305
45071SOL     OW37109   8.769   5.914   1.127
45071SOL    HW137110   8.731   5.937   1.042
45071SOL    HW237111   8.821   5.836   1.109
45072SOL     OW37112   3.283   7.560   6.681
45072SOL    HW137113   3.361   7.504   6.685
45072SOL    HW237114   3.263   7.579   6.773
45073SOL     OW37115   6.983   2.508   6.593
45073SOL    HW137116   6.889   2.493   6.592
45073SOL    HW237117   7.021   2.430   6.553
45074SOL     OW37118   3.108  14.723   8.537
45074SOL    HW137119   3.125  14.629   8.528
45074SOL    HW237120   3.154  14.762   8.463
45075SOL     OW37121   4.743   5.647  14.228
45075SOL    HW137122   4.734   5.604  14.143
45075SOL    HW237123   4.712   5.582  14.292
45076SOL     OW37124   4.311   2.283   4.507
45076SOL    HW137125   4.393   2.333   4.514
45076SOL    HW237126   4.259   2.331   4.443
45077SOL     OW37127  11.497  12.317   7.108
45077SOL    HW137128  11.583  12.305   7.148
45077SOL    HW237129  11.493  12.411   7.090
45078SOL     OW37130   3.243   9.934   0.317
45078SOL    HW137131   3.329   9.918   0.355
45078SOL    HW237132   3.262   9.978   0.234
45079SOL     OW37133   6.366   1.351   2.450
45079SOL    HW137134   6.368   1.264   2.490
45079SOL    HW237135   6.292   1.349   2.390
45080SOL     OW37136   4.390   3.275   8.183
45080SOL    HW137137   4.333   3.208   8.144
45080SOL    HW237138   4.469   3.228   8.209
45081SOL     OW37139   8.224   6.938  10.960
45081SOL    HW137140   8.176   6.923  11.042
45081SOL    HW237141   8.298   6.877  10.964
45082SOL     OW37142  11.736   2.172  13.340
45082SOL    HW137143  11.743   2.267  13.344
45082SOL    HW237144  11.645   2.156  13.315
45083SOL     OW37145  13.561   2.959  11.118
45083SOL    HW137146  13.618   3.008  11.177
45083SOL    HW237147  13.498   3.024  11.086
45084SOL     OW37148   9.788  10.410  14.372
45084SOL    HW137149   9.820  10.320  14.376
45084SOL    HW237150   9.699  10.405  14.408
45085SOL     OW37151  10.538   9.860   8.135
45085SOL    HW137152  10.538   9.879   8.228
45085SOL    HW237153  10.492   9.776   8.128
45086SOL     OW37154   8.692  12.442   7.451
45086SOL    HW137155   8.686  12.503   7.525
45086SOL    HW237156   8.625  12.472   7.390
45087SOL     OW37157  10.556   9.911   3.481
45087SOL    HW137158  10.590   9.961   3.555
45087SOL    HW237159  10.497   9.846   3.520
45088SOL     OW37160   5.905   7.426   7.373
45088SOL    HW137161   5.994   7.405   7.401
45088SOL    HW237162   5.888   7.365   7.301
45089SOL     OW37163   8.420  14.523  10.497
45089SOL    HW137164   8.350  14.572  10.454
45089SOL    HW237165   8.481  14.590  10.529
45090SOL     OW37166   5.468   1.695  11.049
45090SOL    HW137167   5.464   1.789  11.064
45090SOL    HW237168   5.460   1.656  11.136
45091SOL     OW37169   7.614   1.290   0.332
45091SOL    HW137170   7.566   1.371   0.315
45091SOL    HW237171   7.593   1.234   0.258
45092SOL     OW37172   6.819  12.864  11.959
45092SOL    HW137173   6.869  12.941  11.987
45092SOL    HW237174   6.844  12.795  12.020
45093SOL     OW37175  14.044  10.640  10.084
45093SOL    HW137176  14.138  10.641  10.070
45093SOL    HW237177  14.012  10.722  10.045
45094SOL     OW37178  10.294   6.800  12.840
45094SOL    HW137179  10.318   6.708  12.832
45094SOL    HW237180  10.287   6.832  12.750
45095SOL     OW37181  13.580   7.522  11.613
45095SOL    HW137182  13.501   7.491  11.568
45095SOL    HW237183  13.598   7.454  11.678
45096SOL     OW37184  13.748  14.634   4.257
45096SOL    HW137185  13.718  14.604   4.343
45096SOL    HW237186  13.807  14.565   4.227
45097SOL     OW37187   8.557  11.757  11.116
45097SOL    HW137188   8.532  11.667  11.093
45097SOL    HW237189   8.652  11.758  11.110
45098SOL     OW37190  13.035   1.444   3.324
45098SOL    HW137191  13.062   1.355   3.345
45098SOL    HW237192  13.100   1.499   3.368
45099SOL     OW37193   2.935  10.739   6.937
45099SOL    HW137194   2.938  10.679   7.011
45099SOL    HW237195   3.027  10.756   6.916
45100SOL     OW37196   4.106   0.063   7.486
45100SOL    HW137197   4.084   0.047   7.577
45100SOL    HW237198   4.047   0.132   7.458
45101SOL     OW37199  13.116  10.783  11.965
45101SOL    HW137200  13.172  10.814  11.894
45101SOL    HW237201  13.100  10.862  12.017
45102SOL     OW37202   5.292   8.904   0.138
45102SOL    HW137203   5.351   8.977   0.157
45102SOL    HW237204   5.216   8.920   0.194
45103SOL     OW37205   3.931  12.317  11.447
45103SOL    HW137206   3.984  12.390  11.477
45103SOL    HW237207   3.858  12.312  11.509
45104SOL     OW37208  12.618   3.068   6.734
45104SOL    HW137209  12.677   2.995   6.749
45104SOL    HW237210  12.662   3.143   6.775
45105SOL     OW37211   9.745  10.341   0.862
45105SOL    HW137212   9.804  10.299   0.924
45105SOL    HW237213   9.709  10.416   0.909
45106SOL     OW37214  13.358   6.396  14.638
45106SOL    HW137215  13.327   6.462  14.700
45106SOL    HW237216  13.345   6.436  14.552
45107SOL     OW37217   2.071   1.703  12.668
45107SOL    HW137218   2.119   1.781  12.697
45107SOL    HW237219   2.134   1.631  12.676
45108SOL     OW37220  12.049   8.642  10.173
45108SOL    HW137221  12.010   8.725  10.146
45108SOL    HW237222  12.062   8.593  10.092
45109SOL     OW37223  13.987   6.492  14.619
45109SOL    HW137224  13.976   6.405  14.656
45109SOL    HW237225  14.081   6.502  14.608
45110SOL     OW37226  14.322  10.449   6.884
45110SOL    HW137227  14.241  10.500   6.887
45110SOL    HW237228  14.392  10.514   6.891
45111SOL     OW37229   8.721  13.104   2.233
45111SOL    HW137230   8.812  13.127   2.250
45111SOL    HW237231   8.695  13.051   2.308
45112SOL     OW37232   2.519  12.545   1.833
45112SOL    HW137233   2.462  12.496   1.892
45112SOL    HW237234   2.602  12.550   1.879
45113SOL     OW37235   8.482  12.479   8.865
45113SOL    HW137236   8.566  12.514   8.834
45113SOL    HW237237   8.506  12.416   8.933
45114SOL     OW37238   3.210  14.214   1.186
45114SOL    HW137239   3.279  14.203   1.121
45114SOL    HW237240   3.139  14.258   1.139
45115SOL     OW37241   6.974   0.797   5.658
45115SOL    HW137242   6.962   0.891   5.641
45115SOL    HW237243   6.956   0.755   5.574
45116SOL     OW37244   8.475   9.626   9.494
45116SOL    HW137245   8.415   9.675   9.550
45116SOL    HW237246   8.442   9.536   9.497
45117SOL     OW37247   6.955   9.481   6.726
45117SOL    HW137248   6.959   9.567   6.684
45117SOL    HW237249   6.997   9.422   6.664
45118SOL     OW37250   0.762   2.864  13.967
45118SOL    HW137251   0.758   2.958  13.983
45118SOL    HW237252   0.844   2.836  14.007
45119SOL     OW37253   3.366   1.077   5.525
45119SOL    HW137254   3.337   1.163   5.554
45119SOL    HW237255   3.453   1.091   5.488
45120SOL     OW37256   7.325   6.502  13.994
45120SOL    HW137257   7.313   6.418  13.951
45120SOL    HW237258   7.416   6.503  14.022
45121SOL     OW37259   0.989   9.173   0.224
45121SOL    HW137260   0.947   9.223   0.294
45121SOL    HW237261   1.081   9.201   0.227
45122SOL     OW37262  12.548   7.937   7.431
45122SOL    HW137263  12.453   7.944   7.440
45122SOL    HW237264  12.581   8.025   7.451
45123SOL     OW37265  10.273  11.491  13.837
45123SOL    HW137266  10.226  11.568  13.869
45123SOL    HW237267  10.231  11.471  13.753
45124SOL     OW37268   5.993  12.719   5.420
45124SOL    HW137269   5.906  12.684   5.441
45124SOL    HW237270   6.041  12.644   5.385
45125SOL     OW37271   9.213   9.707  10.414
45125SOL    HW137272   9.286   9.650  10.436
45125SOL    HW237273   9.217   9.715  10.319
45126SOL     OW37274  10.936   9.468   2.108
45126SOL    HW137275  10.932   9.375   2.132
45126SOL    HW237276  10.876   9.476   2.034
45127SOL     OW37277  12.116   8.561   6.883
45127SOL    HW137278  12.069   8.643   6.868
45127SOL    HW237279  12.063   8.495   6.838
45128SOL     OW37280  11.400   8.654   1.219
45128SOL    HW137281  11.487   8.687   1.197
45128SOL    HW237282  11.374   8.602   1.143
45129SOL     OW37283   4.224  14.266   8.210
45129SOL    HW137284   4.134  14.235   8.201
45129SOL    HW237285   4.255  14.273   8.120
45130SOL     OW37286   5.038   7.971   3.785
45130SOL    HW137287   5.113   7.911   3.789
45130SOL    HW237288   5.069   8.050   3.829
45131SOL     OW37289   8.678  10.729   7.256
45131SOL    HW137290   8.671  10.711   7.162
45131SOL    HW237291   8.605  10.788   7.274
45132SOL     OW37292   5.899   4.406  13.837
45132SOL    HW137293   5.853   4.323  13.826
45132SOL    HW237294   5.989   4.380  13.861
45133SOL     OW37295   5.028   6.598  11.277
45133SOL    HW137296   5.121   6.599  11.299
45133SOL    HW237297   5.015   6.514  11.232
45134SOL     OW37298  13.737   2.599  12.441
45134SOL    HW137299  13.679   2.534  12.401
45134SOL    HW237300  13.777   2.645  12.366
45135SOL     OW37301  12.413   3.518   2.992
45135SOL    HW137302  12.427   3.430   2.958
45135SOL    HW237303  12.493   3.540   3.039
45136SOL     OW37304  12.419  12.357   8.631
45136SOL    HW137305  12.482  12.376   8.701
45136SOL    HW237306  12.466  12.380   8.551
45137SOL     OW37307   9.786   6.403  13.096
45137SOL    HW137308   9.743   6.370  13.016
45137SOL    HW237309   9.773   6.498  13.093
45138SOL     OW37310  12.052   5.677   9.404
45138SOL    HW137311  12.105   5.601   9.381
45138SOL    HW237312  12.096   5.751   9.362
45139SOL     OW37313   5.475   0.104  11.234
45139SOL    HW137314   5.510   0.026  11.191
45139SOL    HW237315   5.422   0.146  11.166
45140SOL     OW37316   3.121   0.530  12.058
45140SOL    HW137317   3.137   0.624  12.057
45140SOL    HW237318   3.047   0.518  12.117
45141SOL     OW37319   6.550   5.996   3.259
45141SOL    HW137320   6.591   6.081   3.276
45141SOL    HW237321   6.457   6.011   3.274
45142SOL     OW37322   2.275   3.714   8.679
45142SOL    HW137323   2.287   3.768   8.600
45142SOL    HW237324   2.262   3.625   8.645
45143SOL     OW37325   5.311  12.456   1.533
45143SOL    HW137326   5.230  12.450   1.583
45143SOL    HW237327   5.360  12.528   1.573
45144SOL     OW37328   3.300   8.861  13.472
45144SOL    HW137329   3.373   8.836  13.529
45144SOL    HW237330   3.307   8.957  13.465
45145SOL     OW37331  13.334   6.617   5.999
45145SOL    HW137332  13.417   6.656   5.972
45145SOL    HW237333  13.308   6.561   5.926
45146SOL     OW37334   9.241   0.765   9.016
45146SOL    HW137335   9.207   0.733   8.932
45146SOL    HW237336   9.235   0.689   9.074
45147SOL     OW37337   0.665   7.215   8.563
45147SOL    HW137338   0.724   7.288   8.579
45147SOL    HW237339   0.723   7.139   8.555
45148SOL     OW37340  13.771   2.022   3.675
45148SOL    HW137341  13.786   2.104   3.628
45148SOL    HW237342  13.841   1.964   3.645
45149SOL     OW37343  10.776   8.501   7.226
45149SOL    HW137344  10.806   8.455   7.304
45149SOL    HW237345  10.828   8.581   7.223
45150SOL     OW37346  14.722   1.501   4.894
45150SOL    HW137347  14.708   1.594   4.910
45150SOL    HW237348  14.637   1.468   4.865
45151SOL     OW37349  10.645   4.668   7.309
45151SOL    HW137350  10.554   4.645   7.327
45151SOL    HW237351  10.696   4.608   7.364
45152SOL     OW37352  13.619   1.163   3.734
45152SOL    HW137353  13.588   1.072   3.731
45152SOL    HW237354  13.598   1.198   3.648
45153SOL     OW37355  13.346   3.588   4.389
45153SOL    HW137356  13.272   3.562   4.335
45153SOL    HW237357  13.360   3.681   4.368
45154SOL     OW37358   6.859  13.886   0.173
45154SOL    HW137359   6.768  13.880   0.201
45154SOL    HW237360   6.909  13.840   0.241
45155SOL     OW37361  10.366  10.975   9.631
45155SOL    HW137362  10.331  11.065   9.632
45155SOL    HW237363  10.350  10.943   9.719
45156SOL     OW37364  13.146  11.619  11.072
45156SOL    HW137365  13.053  11.600  11.086
45156SOL    HW237366  13.147  11.705  11.031
45157SOL     OW37367   8.648  13.138   1.267
45157SOL    HW137368   8.634  13.124   1.361
45157SOL    HW237369   8.562  13.124   1.227
45158SOL     OW37370   7.006  13.557   8.675
45158SOL    HW137371   6.960  13.492   8.728
45158SOL    HW237372   7.096  13.556   8.708
45159SOL     OW37373   2.102   9.575   1.704
45159SOL    HW137374   2.131   9.576   1.613
45159SOL    HW237375   2.067   9.487   1.716
45160SOL     OW37376   7.245  13.539  14.789
45160SOL    HW137377   7.169  13.500  14.746
45160SOL    HW237378   7.215  13.558   0.008
45161SOL     OW37379   5.396   7.083  13.097
45161SOL    HW137380   5.359   7.045  13.177
45161SOL    HW237381   5.375   7.020  13.028
45162SOL     OW37382  11.183  12.666  11.372
45162SOL    HW137383  11.220  12.603  11.310
45162SOL    HW237384  11.103  12.697  11.329
45163SOL     OW37385   9.851   5.840  13.392
45163SOL    HW137386   9.823   5.893  13.318
45163SOL    HW237387   9.815   5.885  13.469
45164SOL     OW37388   2.182   9.722   5.763
45164SOL    HW137389   2.173   9.657   5.833
45164SOL    HW237390   2.167   9.672   5.682
45165SOL     OW37391  12.824   4.532   4.746
45165SOL    HW137392  12.874   4.502   4.669
45165SOL    HW237393  12.760   4.462   4.760
45166SOL     OW37394  13.568   5.211  12.024
45166SOL    HW137395  13.514   5.269  11.970
45166SOL    HW237396  13.505   5.164  12.079
45167SOL     OW37397   2.209   7.523   5.830
45167SOL    HW137398   2.236   7.455   5.892
45167SOL    HW237399   2.193   7.475   5.749
45168SOL     OW37400   5.802  12.149   8.927
45168SOL    HW137401   5.780  12.185   8.841
45168SOL    HW237402   5.891  12.180   8.943
45169SOL     OW37403   3.502   4.628  11.038
45169SOL    HW137404   3.429   4.571  11.064
45169SOL    HW237405   3.499   4.701  11.099
45170SOL     OW37406  12.868   4.934   9.120
45170SOL    HW137407  12.802   4.886   9.069
45170SOL    HW237408  12.916   4.866   9.167
45171SOL     OW37409   6.052  11.574   7.111
45171SOL    HW137410   6.045  11.614   7.024
45171SOL    HW237411   5.986  11.620   7.164
45172SOL     OW37412  13.963   7.428  14.236
45172SOL    HW137413  13.880   7.474  14.240
45172SOL    HW237414  13.997   7.431  14.325
45173SOL     OW37415  13.064   2.174   7.939
45173SOL    HW137416  13.113   2.101   7.977
45173SOL    HW237417  12.980   2.136   7.915
45174SOL     OW37418   6.984  10.949   1.995
45174SOL    HW137419   6.907  11.003   2.011
45174SOL    HW237420   6.966  10.904   1.913
45175SOL     OW37421  14.465  10.031   7.592
45175SOL    HW137422  14.373  10.029   7.565
45175SOL    HW237423  14.513  10.054   7.512
45176SOL     OW37424   9.093   7.300  12.496
45176SOL    HW137425   9.012   7.336  12.532
45176SOL    HW237426   9.065   7.219  12.453
45177SOL     OW37427  11.470   3.937   1.740
45177SOL    HW137428  11.492   3.918   1.649
45177SOL    HW237429  11.532   4.005   1.766
45178SOL     OW37430  10.624  13.126  13.272
45178SOL    HW137431  10.595  13.208  13.233
45178SOL    HW237432  10.719  13.134  13.281
45179SOL     OW37433   8.856   5.551   2.688
45179SOL    HW137434   8.911   5.569   2.765
45179SOL    HW237435   8.891   5.607   2.620
45180SOL     OW37436   9.423   2.648  10.429
45180SOL    HW137437   9.468   2.579  10.478
45180SOL    HW237438   9.416   2.612  10.340
45181SOL     OW37439   8.565   2.864   8.110
45181SOL    HW137440   8.586   2.771   8.120
45181SOL    HW237441   8.477   2.873   8.145
45182SOL     OW37442   5.466   2.133   8.441
45182SOL    HW137443   5.405   2.064   8.417
45182SOL    HW237444   5.419   2.215   8.424
45183SOL     OW37445   5.330  13.366  12.536
45183SOL    HW137446   5.309  13.424  12.463
45183SOL    HW237447   5.423  13.345  12.525
45184SOL     OW37448  10.472   7.661   8.615
45184SOL    HW137449  10.461   7.629   8.526
45184SOL    HW237450  10.487   7.583   8.667
45185SOL     OW37451   7.745   5.228   1.469
45185SOL    HW137452   7.738   5.235   1.564
45185SOL    HW237453   7.803   5.153   1.455
45186SOL     OW37454   7.611  14.832   9.689
45186SOL    HW137455   7.536  14.775   9.702
45186SOL    HW237456   7.612   0.019   9.767
45187SOL     OW37457   7.218   3.310   3.043
45187SOL    HW137458   7.169   3.229   3.054
45187SOL    HW237459   7.282   3.309   3.114
45188SOL     OW37460   0.284   8.806  12.478
45188SOL    HW137461   0.279   8.771  12.566
45188SOL    HW237462   0.204   8.776  12.435
45189SOL     OW37463  11.746  10.307   2.123
45189SOL    HW137464  11.688  10.235   2.098
45189SOL    HW237465  11.747  10.305   2.218
45190SOL     OW37466   2.111   1.234   8.178
45190SOL    HW137467   2.119   1.327   8.159
45190SOL    HW237468   2.071   1.197   8.099
45191SOL     OW37469  12.939   1.049  14.304
45191SOL    HW137470  12.938   0.953  14.309
45191SOL    HW237471  12.918   1.068  14.213
45192SOL     OW37472  11.230   0.418   6.351
45192SOL    HW137473  11.137   0.413   6.330
45192SOL    HW237474  11.269   0.465   6.277
45193SOL     OW37475   0.387  10.610   9.360
45193SOL    HW137476   0.480  10.587   9.353
45193SOL    HW237477   0.359  10.626   9.270
45194SOL     OW37478   9.648   2.955  11.165
45194SOL    HW137479   9.608   2.981  11.248
45194SOL    HW237480   9.655   2.860  11.171
45195SOL     OW37481   2.870   1.952   0.819
45195SOL    HW137482   2.962   1.967   0.841
45195SOL    HW237483   2.833   2.039   0.811
45196SOL     OW37484   3.538   2.515   5.492
45196SOL    HW137485   3.515   2.435   5.446
45196SOL    HW237486   3.617   2.547   5.449
45197SOL     OW37487  14.547  11.527  12.382
45197SOL    HW137488  14.588  11.559  12.462
45197SOL    HW237489  14.610  11.466  12.344
45198SOL     OW37490  12.007  14.269   5.321
45198SOL    HW137491  12.072  14.200   5.329
45198SOL    HW237492  12.007  14.291   5.228
45199SOL     OW37493  12.013   1.401   7.839
45199SOL    HW137494  12.049   1.313   7.828
45199SOL    HW237495  12.026   1.421   7.932
45200SOL     OW37496   0.774  14.145  12.986
45200SOL    HW137497   0.863  14.128  13.015
45200SOL    HW237498   0.778  14.139  12.891
45201SOL     OW37499  11.923   2.946   0.195
45201SOL    HW137500  11.854   2.899   0.147
45201SOL    HW237501  11.913   2.917   0.286
45202SOL     OW37502   5.548   7.140  11.203
45202SOL    HW137503   5.569   7.175  11.290
45202SOL    HW237504   5.625   7.160  11.150
45203SOL     OW37505  13.187   3.584   6.938
45203SOL    HW137506  13.121   3.518   6.917
45203SOL    HW237507  13.191   3.584   7.034
45204SOL     OW37508   4.873   0.610   7.011
45204SOL    HW137509   4.830   0.692   6.988
45204SOL    HW237510   4.859   0.553   6.935
45205SOL     OW37511   2.080  13.777   3.296
45205SOL    HW137512   2.091  13.692   3.339
45205SOL    HW237513   2.020  13.825   3.353
45206SOL     OW37514   7.205   4.355   8.684
45206SOL    HW137515   7.192   4.370   8.590
45206SOL    HW237516   7.290   4.310   8.690
45207SOL     OW37517   4.076   2.600  14.485
45207SOL    HW137518   4.057   2.571  14.574
45207SOL    HW237519   4.164   2.568  14.468
45208SOL     OW37520   8.957   3.983   0.386
45208SOL    HW137521   8.897   3.956   0.455
45208SOL    HW237522   9.022   4.037   0.430
45209SOL     OW37523  10.785   0.153   6.331
45209SOL    HW137524  10.720   0.198   6.277
45209SOL    HW237525  10.836   0.224   6.371
45210SOL     OW37526   4.932   1.784  13.447
45210SOL    HW137527   5.023   1.793  13.419
45210SOL    HW237528   4.915   1.861  13.500
45211SOL     OW37529  11.424   6.325   4.830
45211SOL    HW137530  11.372   6.398   4.864
45211SOL    HW237531  11.397   6.317   4.739
45212SOL     OW37532  10.529  10.298   4.804
45212SOL    HW137533  10.620  10.268   4.808
45212SOL    HW237534  10.489  10.242   4.738
45213SOL     OW37535   8.195   1.182   7.745
45213SOL    HW137536   8.233   1.109   7.695
45213SOL    HW237537   8.210   1.158   7.837
45214SOL     OW37538  14.519   8.709   5.263
45214SOL    HW137539  14.498   8.802   5.269
45214SOL    HW237540  14.448   8.665   5.309
45215SOL     OW37541   4.008   9.565   0.561
45215SOL    HW137542   4.082   9.626   0.554
45215SOL    HW237543   3.951   9.604   0.627
45216SOL     OW37544   9.764   0.736  11.508
45216SOL    HW137545   9.705   0.666  11.481
45216SOL    HW237546   9.780   0.718  11.601
45217SOL     OW37547  10.290  10.290  14.330
45217SOL    HW137548  10.316  10.198  14.323
45217SOL    HW237549  10.287  10.322  14.240
45218SOL     OW37550   7.039   0.645  10.902
45218SOL    HW137551   7.129   0.653  10.935
45218SOL    HW237552   6.999   0.730  10.920
45219SOL     OW37553   5.043  12.041   8.422
45219SOL    HW137554   5.038  12.061   8.328
45219SOL    HW237555   5.075  12.122   8.462
45220SOL     OW37556  10.097  10.390   3.018
45220SOL    HW137557  10.165  10.327   3.041
45220SOL    HW237558  10.031  10.381   3.086
45221SOL     OW37559   1.586   7.417   5.149
45221SOL    HW137560   1.503   7.392   5.190
45221SOL    HW237561   1.633   7.465   5.218
45222SOL     OW37562  12.974  14.721   7.370
45222SOL    HW137563  13.029  14.770   7.430
45222SOL    HW237564  13.009  14.740   7.283
45223SOL     OW37565  14.641  14.019   9.323
45223SOL    HW137566  14.673  13.952   9.384
45223SOL    HW237567  14.559  14.049   9.362
45224SOL     OW37568   2.531   1.273   5.973
45224SOL    HW137569   2.606   1.281   6.032
45224SOL    HW237570   2.570   1.256   5.887
45225SOL     OW37571   2.495   8.035   4.597
45225SOL    HW137572   2.580   8.066   4.566
45225SOL    HW237573   2.440   8.113   4.598
45226SOL     OW37574  13.636  10.505   4.903
45226SOL    HW137575  13.685  10.449   4.964
45226SOL    HW237576  13.701  10.531   4.837
45227SOL     OW37577   4.696   2.779  10.834
45227SOL    HW137578   4.685   2.869  10.803
45227SOL    HW237579   4.788   2.774  10.860
45228SOL     OW37580   7.472  12.218   6.199
45228SOL    HW137581   7.417  12.145   6.228
45228SOL    HW237582   7.423  12.257   6.126
45229SOL     OW37583   5.338   4.321   1.845
45229SOL    HW137584   5.290   4.242   1.869
45229SOL    HW237585   5.304   4.344   1.758
45230SOL     OW37586   5.460   7.114   4.265
45230SOL    HW137587   5.494   7.032   4.229
45230SOL    HW237588   5.366   7.109   4.252
45231SOL     OW37589   3.169   8.194  11.544
45231SOL    HW137590   3.100   8.241  11.496
45231SOL    HW237591   3.187   8.250  11.620
45232SOL     OW37592   4.926  14.378  11.977
45232SOL    HW137593   4.910  14.459  12.025
45232SOL    HW237594   4.839  14.352  11.945
45233SOL     OW37595  12.366   9.355   6.734
45233SOL    HW137596  12.389   9.267   6.703
45233SOL    HW237597  12.317   9.339   6.815
45234SOL     OW37598   3.015   4.968  10.804
45234SOL    HW137599   2.998   5.063  10.800
45234SOL    HW237600   2.985   4.935  10.720
45235SOL     OW37601  12.262   2.939   3.496
45235SOL    HW137602  12.344   2.889   3.493
45235SOL    HW237603  12.198   2.882   3.453
45236SOL     OW37604  12.186   0.830  13.935
45236SOL    HW137605  12.186   0.918  13.973
45236SOL    HW237606  12.264   0.788  13.972
45237SOL     OW37607  11.246   0.697   8.316
45237SOL    HW137608  11.211   0.707   8.405
45237SOL    HW237609  11.211   0.614   8.286
45238SOL     OW37610  10.716  10.091   4.947
45238SOL    HW137611  10.802  10.100   4.907
45238SOL    HW237612  10.719  10.148   5.024
45239SOL     OW37613   3.094   9.116   0.249
45239SOL    HW137614   3.059   9.178   0.186
45239SOL    HW237615   3.017   9.084   0.298
45240SOL     OW37616  14.761   6.046   9.781
45240SOL    HW137617  14.707   6.022   9.706
45240SOL    HW237618  14.793   6.134   9.760
45241SOL     OW37619   0.467   0.259   3.854
45241SOL    HW137620   0.543   0.317   3.862
45241SOL    HW237621   0.479   0.215   3.770
45242SOL     OW37622  10.182  12.131   2.814
45242SOL    HW137623  10.138  12.200   2.763
45242SOL    HW237624  10.171  12.052   2.761
45243SOL     OW37625   7.915   1.819  13.327
45243SOL    HW137626   7.982   1.809  13.259
45243SOL    HW237627   7.886   1.730  13.346
45244SOL     OW37628   4.251  12.741   2.262
45244SOL    HW137629   4.175  12.694   2.296
45244SOL    HW237630   4.324  12.682   2.278
45245SOL     OW37631   2.960   5.940   9.926
45245SOL    HW137632   2.961   5.845   9.915
45245SOL    HW237633   3.002   5.974   9.847
45246SOL     OW37634   7.294   2.911  14.625
45246SOL    HW137635   7.277   2.826  14.584
45246SOL    HW237636   7.356   2.891  14.696
45247SOL     OW37637   6.125   8.583  10.164
45247SOL    HW137638   6.139   8.566  10.071
45247SOL    HW237639   6.078   8.666  10.167
45248SOL     OW37640   3.241   9.400  12.516
45248SOL    HW137641   3.155   9.433  12.540
45248SOL    HW237642   3.275   9.360  12.597
45249SOL     OW37643   4.648   9.597   4.840
45249SOL    HW137644   4.696   9.679   4.848
45249SOL    HW237645   4.652   9.557   4.927
45250SOL     OW37646  13.265   1.663   4.143
45250SOL    HW137647  13.260   1.696   4.054
45250SOL    HW237648  13.177   1.676   4.179
45251SOL     OW37649   2.514   8.864  13.354
45251SOL    HW137650   2.471   8.842  13.271
45251SOL    HW237651   2.441   8.886  13.412
45252SOL     OW37652   6.962   8.502   1.603
45252SOL    HW137653   7.000   8.524   1.688
45252SOL    HW237654   7.027   8.447   1.560
45253SOL     OW37655  10.819   6.521   1.314
45253SOL    HW137656  10.905   6.551   1.284
45253SOL    HW237657  10.821   6.532   1.409
45254SOL     OW37658   4.348   5.413  10.054
45254SOL    HW137659   4.308   5.448   9.974
45254SOL    HW237660   4.394   5.335  10.026
45255SOL     OW37661   3.466   3.630   5.091
45255SOL    HW137662   3.472   3.536   5.109
45255SOL    HW237663   3.542   3.668   5.136
45256SOL     OW37664   6.140  12.690   8.093
45256SOL    HW137665   6.101  12.617   8.143
45256SOL    HW237666   6.118  12.768   8.144
45257SOL     OW37667   0.264   5.271   3.074
45257SOL    HW137668   0.226   5.185   3.054
45257SOL    HW237669   0.358   5.256   3.073
45258SOL     OW37670   7.513   5.930  10.515
45258SOL    HW137671   7.595   5.893  10.484
45258SOL    HW237672   7.538   5.985  10.589
45259SOL     OW37673   6.976   5.127  13.849
45259SOL    HW137674   7.065   5.162  13.856
45259SOL    HW237675   6.987   5.032  13.863
45260SOL     OW37676   0.781   3.552   5.953
45260SOL    HW137677   0.862   3.602   5.965
45260SOL    HW237678   0.782   3.486   6.022
45261SOL     OW37679   7.817  14.493  13.444
45261SOL    HW137680   7.763  14.469  13.369
45261SOL    HW237681   7.907  14.487  13.412
45262SOL     OW37682   5.098   9.992   1.274
45262SOL    HW137683   5.129  10.081   1.255
45262SOL    HW237684   5.149   9.964   1.350
45263SOL     OW37685   2.802  10.974   4.009
45263SOL    HW137686   2.770  11.011   3.926
45263SOL    HW237687   2.884  11.019   4.027
45264SOL     OW37688   7.888   1.165  10.838
45264SOL    HW137689   7.816   1.104  10.825
45264SOL    HW237690   7.860   1.245  10.793
45265SOL     OW37691   3.500  10.751  11.375
45265SOL    HW137692   3.420  10.787  11.413
45265SOL    HW237693   3.550  10.719  11.449
45266SOL     OW37694   4.539  12.482  10.781
45266SOL    HW137695   4.612  12.475  10.720
45266SOL    HW237696   4.484  12.552  10.745
45267SOL     OW37697   1.175   0.644   7.315
45267SOL    HW137698   1.090   0.678   7.342
45267SOL    HW237699   1.192   0.688   7.231
45268SOL     OW37700  11.233   1.584   3.142
45268SOL    HW137701  11.274   1.498   3.152
45268SOL    HW237702  11.291   1.631   3.081
45269SOL     OW37703   5.886   9.503   5.686
45269SOL    HW137704   5.827   9.483   5.614
45269SOL    HW237705   5.959   9.442   5.675
45270SOL     OW37706   0.769   3.901   2.849
45270SOL    HW137707   0.679   3.882   2.824
45270SOL    HW237708   0.770   3.995   2.867
45271SOL     OW37709  13.204  11.612   9.016
45271SOL    HW137710  13.283  11.654   8.983
45271SOL    HW237711  13.226  11.587   9.105
45272SOL     OW37712   7.778  10.521   9.197
45272SOL    HW137713   7.754  10.473   9.276
45272SOL    HW237714   7.786  10.454   9.129
45273SOL     OW37715   8.132  12.674   7.551
45273SOL    HW137716   8.039  12.684   7.529
45273SOL    HW237717   8.134  12.598   7.609
45274SOL     OW37718   3.282  12.983  10.083
45274SOL    HW137719   3.195  12.944  10.073
45274SOL    HW237720   3.299  13.025   9.999
45275SOL     OW37721   3.160   0.321  12.791
45275SOL    HW137722   3.250   0.292  12.808
45275SOL    HW237723   3.165   0.417  12.800
45276SOL     OW37724  13.983  14.198   5.513
45276SOL    HW137725  14.055  14.257   5.536
45276SOL    HW237726  13.962  14.153   5.595
45277SOL     OW37727   7.308   5.402   1.227
45277SOL    HW137728   7.267   5.326   1.269
45277SOL    HW237729   7.401   5.384   1.230
45278SOL     OW37730   1.499   6.285   2.968
45278SOL    HW137731   1.487   6.377   2.993
45278SOL    HW237732   1.579   6.284   2.917
45279SOL     OW37733   5.636  10.118  12.628
45279SOL    HW137734   5.665  10.051  12.690
45279SOL    HW237735   5.556  10.081  12.590
45280SOL     OW37736   8.460   9.284  14.638
45280SOL    HW137737   8.379   9.328  14.613
45280SOL    HW237738   8.504   9.345  14.696
45281SOL     OW37739  14.155   9.890   0.265
45281SOL    HW137740  14.122   9.801   0.252
45281SOL    HW237741  14.081   9.946   0.243
45282SOL     OW37742   8.461   2.476  11.009
45282SOL    HW137743   8.408   2.426  11.071
45282SOL    HW237744   8.441   2.567  11.029
45283SOL     OW37745   1.861   3.096  10.999
45283SOL    HW137746   1.854   3.000  11.001
45283SOL    HW237747   1.954   3.112  10.984
45284SOL     OW37748  12.630   6.223   9.990
45284SOL    HW137749  12.671   6.309   9.980
45284SOL    HW237750  12.537   6.242  10.005
45285SOL     OW37751   5.540  12.379   5.613
45285SOL    HW137752   5.608  12.330   5.566
45285SOL    HW237753   5.588  12.432   5.676
45286SOL     OW37754   8.799   4.958   6.321
45286SOL    HW137755   8.813   5.044   6.360
45286SOL    HW237756   8.772   4.903   6.395
45287SOL     OW37757   2.342   8.568  13.507
45287SOL    HW137758   2.262   8.620  13.512
45287SOL    HW237759   2.398   8.603  13.576
45288SOL     OW37760  11.800   8.089   3.779
45288SOL    HW137761  11.760   8.116   3.861
45288SOL    HW237762  11.801   7.993   3.782
45289SOL     OW37763   2.979   4.520  14.382
45289SOL    HW137764   3.066   4.505  14.344
45289SOL    HW237765   2.918   4.499  14.311
45290SOL     OW37766  14.600   9.871  11.523
45290SOL    HW137767  14.678   9.857  11.576
45290SOL    HW237768  14.568   9.957  11.549
45291SOL     OW37769   1.246  12.881   0.159
45291SOL    HW137770   1.196  12.800   0.166
45291SOL    HW237771   1.217  12.933   0.234
45292SOL     OW37772   3.704   2.525   0.270
45292SOL    HW137773   3.614   2.496   0.290
45292SOL    HW237774   3.744   2.539   0.356
45293SOL     OW37775   7.012   3.179  14.030
45293SOL    HW137776   7.041   3.187  14.121
45293SOL    HW237777   6.917   3.171  14.036
45294SOL     OW37778   0.506   8.299  10.508
45294SOL    HW137779   0.416   8.277  10.531
45294SOL    HW237780   0.502   8.388  10.475
45295SOL     OW37781  13.403   0.543   7.260
45295SOL    HW137782  13.456   0.617   7.230
45295SOL    HW237783  13.316   0.559   7.222
45296SOL     OW37784   2.876   3.574   9.517
45296SOL    HW137785   2.861   3.487   9.480
45296SOL    HW237786   2.856   3.634   9.446
45297SOL     OW37787  14.734   8.559   7.737
45297SOL    HW137788  14.665   8.625   7.732
45297SOL    HW237789  14.689   8.475   7.728
45298SOL     OW37790   9.175   0.236   3.683
45298SOL    HW137791   9.217   0.268   3.763
45298SOL    HW237792   9.105   0.299   3.666
45299SOL     OW37793   4.690   0.624  13.875
45299SOL    HW137794   4.604   0.658  13.849
45299SOL    HW237795   4.699   0.542  13.827
45300SOL     OW37796  12.655  13.576   8.540
45300SOL    HW137797  12.618  13.562   8.453
45300SOL    HW237798  12.707  13.656   8.532
45301SOL     OW37799   9.476   1.918   9.811
45301SOL    HW137800   9.494   1.838   9.860
45301SOL    HW237801   9.480   1.988   9.876
45302SOL     OW37802   9.012   7.488   7.758
45302SOL    HW137803   9.071   7.517   7.688
45302SOL    HW237804   9.003   7.394   7.744
45303SOL     OW37805  14.731   5.598   2.038
45303SOL    HW137806  14.769   5.664   1.978
45303SOL    HW237807  14.762   5.625   2.124
45304SOL     OW37808  11.985   1.245   4.637
45304SOL    HW137809  11.963   1.232   4.545
45304SOL    HW237810  11.914   1.299   4.671
45305SOL     OW37811   6.805   3.843  12.980
45305SOL    HW137812   6.854   3.768  13.013
45305SOL    HW237813   6.869   3.914  12.978
45306SOL     OW37814   3.173   1.250   0.240
45306SOL    HW137815   3.196   1.164   0.206
45306SOL    HW237816   3.220   1.311   0.183
45307SOL     OW37817   8.574  14.042   5.924
45307SOL    HW137818   8.633  14.089   5.983
45307SOL    HW237819   8.626  13.968   5.892
45308SOL     OW37820   7.903   2.095   2.384
45308SOL    HW137821   7.821   2.143   2.392
45308SOL    HW237822   7.943   2.101   2.471
45309SOL     OW37823   5.367   1.138   8.848
45309SOL    HW137824   5.326   1.211   8.895
45309SOL    HW237825   5.394   1.077   8.916
45310SOL     OW37826   2.367  13.854  11.302
45310SOL    HW137827   2.283  13.811  11.282
45310SOL    HW237828   2.401  13.806  11.377
45311SOL     OW37829  12.253   8.828   2.999
45311SOL    HW137830  12.337   8.800   2.963
45311SOL    HW237831  12.198   8.842   2.922
45312SOL     OW37832  12.942   3.767  10.820
45312SOL    HW137833  12.969   3.804  10.904
45312SOL    HW237834  12.850   3.793  10.811
45313SOL     OW37835  11.880   8.446   9.338
45313SOL    HW137836  11.925   8.376   9.290
45313SOL    HW237837  11.824   8.401   9.400
45314SOL     OW37838  10.896   3.422   7.333
45314SOL    HW137839  10.821   3.370   7.362
45314SOL    HW237840  10.955   3.424   7.408
45315SOL     OW37841   7.383  12.254   7.410
45315SOL    HW137842   7.381  12.331   7.466
45315SOL    HW237843   7.476  12.233   7.402
45316SOL     OW37844   0.219   1.834  12.566
45316SOL    HW137845   0.162   1.904  12.535
45316SOL    HW237846   0.296   1.839  12.509
45317SOL     OW37847   3.950  13.602   7.080
45317SOL    HW137848   3.864  13.582   7.117
45317SOL    HW237849   3.935  13.610   6.986
45318SOL     OW37850  11.162   5.805  12.772
45318SOL    HW137851  11.100   5.847  12.832
45318SOL    HW237852  11.211   5.744  12.828
45319SOL     OW37853  14.447  11.091   3.193
45319SOL    HW137854  14.378  11.034   3.226
45319SOL    HW237855  14.459  11.157   3.261
45320SOL     OW37856   2.521  12.405  10.437
45320SOL    HW137857   2.515  12.487  10.388
45320SOL    HW237858   2.488  12.338  10.376
45321SOL     OW37859   1.297   4.984  11.318
45321SOL    HW137860   1.214   5.028  11.331
45321SOL    HW237861   1.361   5.039  11.362
45322SOL     OW37862   1.259   2.682   8.720
45322SOL    HW137863   1.260   2.588   8.700
45322SOL    HW237864   1.337   2.696   8.773
45323SOL     OW37865   2.751   6.513  13.641
45323SOL    HW137866   2.786   6.434  13.682
45323SOL    HW237867   2.659   6.493  13.624
45324SOL     OW37868   2.731   3.976   9.239
45324SOL    HW137869   2.704   3.891   9.274
45324SOL    HW237870   2.827   3.974   9.241
45325SOL     OW37871   3.380  13.644  11.738
45325SOL    HW137872   3.400  13.661  11.830
45325SOL    HW237873   3.395  13.727  11.695
45326SOL     OW37874  14.360  11.423   0.995
45326SOL    HW137875  14.271  11.424   0.962
45326SOL    HW237876  14.415  11.428   0.917
45327SOL     OW37877   2.914   2.638   1.390
45327SOL    HW137878   2.848   2.580   1.428
45327SOL    HW237879   2.971   2.579   1.340
45328SOL     OW37880  11.326   7.546  13.245
45328SOL    HW137881  11.307   7.628  13.200
45328SOL    HW237882  11.380   7.496  13.184
45329SOL     OW37883   9.130  14.291  12.908
45329SOL    HW137884   9.090  14.268  12.992
45329SOL    HW237885   9.170  14.209  12.878
45330SOL     OW37886   0.466   3.412   6.172
45330SOL    HW137887   0.403   3.483   6.163
45330SOL    HW237888   0.551   3.453   6.154
45331SOL     OW37889   4.591   8.357   1.236
45331SOL    HW137890   4.564   8.402   1.317
45331SOL    HW237891   4.601   8.266   1.263
45332SOL     OW37892   0.440   5.798   0.727
45332SOL    HW137893   0.383   5.868   0.694
45332SOL    HW237894   0.448   5.737   0.654
45333SOL     OW37895   3.860   8.371  10.043
45333SOL    HW137896   3.819   8.429  10.107
45333SOL    HW237897   3.884   8.428   9.970
45334SOL     OW37898   4.211   9.381   7.166
45334SOL    HW137899   4.257   9.406   7.086
45334SOL    HW237900   4.263   9.420   7.237
45335SOL     OW37901   2.289   2.206  13.129
45335SOL    HW137902   2.223   2.275  13.133
45335SOL    HW237903   2.294   2.172  13.218
45336SOL     OW37904  14.544  11.569  10.220
45336SOL    HW137905  14.612  11.611  10.271
45336SOL    HW237906  14.580  11.562  10.132
45337SOL     OW37907  10.648   3.590  13.387
45337SOL    HW137908  10.604   3.522  13.337
45337SOL    HW237909  10.595   3.601  13.466
45338SOL     OW37910   8.901   0.795   6.592
45338SOL    HW137911   8.842   0.740   6.542
45338SOL    HW237912   8.866   0.884   6.582
45339SOL     OW37913   6.576  13.828   2.180
45339SOL    HW137914   6.646  13.890   2.155
45339SOL    HW237915   6.516  13.881   2.232
45340SOL     OW37916  11.628   8.005   2.071
45340SOL    HW137917  11.627   7.918   2.031
45340SOL    HW237918  11.574   8.058   2.012
45341SOL     OW37919   7.015  14.512  12.515
45341SOL    HW137920   7.030  14.604  12.490
45341SOL    HW237921   7.102  14.480  12.539
45342SOL     OW37922   9.635   6.753   8.206
45342SOL    HW137923   9.657   6.703   8.127
45342SOL    HW237924   9.551   6.794   8.186
45343SOL     OW37925   6.489   4.993   7.404
45343SOL    HW137926   6.412   4.989   7.462
45343SOL    HW237927   6.558   5.029   7.459
45344SOL     OW37928   0.435   6.907   9.727
45344SOL    HW137929   0.417   6.840   9.792
45344SOL    HW237930   0.448   6.859   9.645
45345SOL     OW37931   4.776   8.205   7.750
45345SOL    HW137932   4.769   8.299   7.770
45345SOL    HW237933   4.745   8.161   7.829
45346SOL     OW37934   3.102  11.562   4.531
45346SOL    HW137935   3.134  11.642   4.490
45346SOL    HW237936   3.108  11.579   4.625
45347SOL     OW37937  10.878   7.060   6.860
45347SOL    HW137938  10.899   7.076   6.952
45347SOL    HW237939  10.831   7.139   6.832
45348SOL     OW37940   4.578   2.624   5.635
45348SOL    HW137941   4.493   2.583   5.622
45348SOL    HW237942   4.641   2.554   5.619
45349SOL     OW37943   9.820   6.630   2.217
45349SOL    HW137944   9.807   6.646   2.310
45349SOL    HW237945   9.734   6.646   2.177
45350SOL     OW37946   1.586   4.595  10.761
45350SOL    HW137947   1.530   4.656  10.713
45350SOL    HW237948   1.556   4.603  10.852
45351SOL     OW37949   8.834  14.558  13.975
45351SOL    HW137950   8.743  14.530  13.977
45351SOL    HW237951   8.876  14.507  14.044
45352SOL     OW37952  11.438   8.856   3.495
45352SOL    HW137953  11.437   8.777   3.440
45352SOL    HW237954  11.351   8.893   3.485
45353SOL     OW37955   5.890   8.811  13.965
45353SOL    HW137956   5.855   8.900  13.959
45353SOL    HW237957   5.872   8.773  13.879
45354SOL     OW37958   7.848  13.128   4.947
45354SOL    HW137959   7.870  13.112   4.855
45354SOL    HW237960   7.822  13.220   4.950
45355SOL     OW37961   9.992   3.529   6.598
45355SOL    HW137962  10.023   3.441   6.578
45355SOL    HW237963  10.048   3.586   6.546
45356SOL     OW37964   9.961   0.820   2.937
45356SOL    HW137965   9.993   0.879   3.005
45356SOL    HW237966  10.023   0.747   2.937
45357SOL     OW37967   4.867  10.727  14.600
45357SOL    HW137968   4.897  10.811  14.636
45357SOL    HW237969   4.864  10.740  14.506
45358SOL     OW37970   9.410   4.700  10.039
45358SOL    HW137971   9.340   4.668  10.095
45358SOL    HW237972   9.409   4.795  10.051
45359SOL     OW37973  13.540  10.084  14.162
45359SOL    HW137974  13.480  10.042  14.101
45359SOL    HW237975  13.596  10.013  14.194
45360SOL     OW37976   0.801   4.075  13.028
45360SOL    HW137977   0.885   4.031  13.039
45360SOL    HW237978   0.775   4.100  13.117
45361SOL     OW37979   7.391   9.220  10.723
45361SOL    HW137980   7.349   9.233  10.638
45361SOL    HW237981   7.424   9.130  10.721
45362SOL     OW37982   5.468  12.750   9.896
45362SOL    HW137983   5.443  12.678   9.839
45362SOL    HW237984   5.486  12.823   9.836
45363SOL     OW37985   7.265   8.472   1.615
45363SOL    HW137986   7.358   8.490   1.627
45363SOL    HW237987   7.242   8.412   1.686
45364SOL     OW37988  11.587   0.523  13.809
45364SOL    HW137989  11.647   0.596  13.791
45364SOL    HW237990  11.605   0.460  13.739
45365SOL     OW37991   6.316   7.887  12.562
45365SOL    HW137992   6.307   7.902  12.468
45365SOL    HW237993   6.265   7.808  12.578
45366SOL     OW37994  11.245   5.672   7.676
45366SOL    HW137995  11.232   5.692   7.583
45366SOL    HW237996  11.174   5.612   7.699
45367SOL     OW37997   4.562   9.582  11.285
45367SOL    HW137998   4.471   9.605  11.300
45367SOL    HW237999   4.559   9.496  11.242
45368SOL     OW38000   5.291   9.580  11.948
45368SOL    HW138001   5.290   9.675  11.959
45368SOL    HW238002   5.230   9.565  11.875
45369SOL     OW38003  13.264  10.087   3.358
45369SOL    HW138004  13.230  10.150   3.294
45369SOL    HW238005  13.186  10.053   3.401
45370SOL     OW38006   1.568  13.377   9.310
45370SOL    HW138007   1.487  13.426   9.320
45370SOL    HW238008   1.586  13.343   9.398
45371SOL     OW38009  11.613  12.558   7.336
45371SOL    HW138010  11.650  12.502   7.268
45371SOL    HW238011  11.671  12.633   7.340
45372SOL     OW38012   4.563   9.211   3.881
45372SOL    HW138013   4.494   9.250   3.934
45372SOL    HW238014   4.556   9.117   3.896
45373SOL     OW38015   4.934   1.001   8.485
45373SOL    HW138016   4.939   1.061   8.560
45373SOL    HW238017   5.016   0.951   8.489
45374SOL     OW38018   8.703  13.300  11.710
45374SOL    HW138019   8.770  13.368  11.702
45374SOL    HW238020   8.629  13.333  11.659
45375SOL     OW38021   8.141   6.091  10.303
45375SOL    HW138022   8.197   6.135  10.239
45375SOL    HW238023   8.184   6.007  10.319
45376SOL     OW38024  13.655  12.292   1.231
45376SOL    HW138025  13.662  12.226   1.300
45376SOL    HW238026  13.593  12.356   1.266
45377SOL     OW38027   8.022   9.653   4.718
45377SOL    HW138028   7.989   9.725   4.772
45377SOL    HW238029   7.943   9.610   4.684
45378SOL     OW38030   4.257   8.154   6.615
45378SOL    HW138031   4.201   8.210   6.560
45378SOL    HW238032   4.246   8.066   6.578
45379SOL     OW38033   1.489   1.613   6.559
45379SOL    HW138034   1.511   1.704   6.579
45379SOL    HW238035   1.563   1.581   6.508
45380SOL     OW38036   1.883   3.542   1.280
45380SOL    HW138037   1.974   3.522   1.260
45380SOL    HW238038   1.887   3.617   1.339
45381SOL     OW38039  12.198   7.269  12.995
45381SOL    HW138040  12.160   7.218  13.066
45381SOL    HW238041  12.140   7.346  12.987
45382SOL     OW38042   0.824   2.409   0.650
45382SOL    HW138043   0.886   2.445   0.586
45382SOL    HW238044   0.879   2.354   0.707
45383SOL     OW38045   4.229   5.651   8.505
45383SOL    HW138046   4.250   5.570   8.460
45383SOL    HW238047   4.298   5.712   8.477
45384SOL     OW38048   2.858   0.672   7.087
45384SOL    HW138049   2.844   0.585   7.123
45384SOL    HW238050   2.947   0.695   7.113
45385SOL     OW38051   6.264   3.846  14.516
45385SOL    HW138052   6.301   3.763  14.490
45385SOL    HW238053   6.191   3.823  14.574
45386SOL     OW38054  13.391   7.354  14.027
45386SOL    HW138055  13.376   7.429  13.970
45386SOL    HW238056  13.485   7.341  14.025
45387SOL     OW38057  14.279  11.449  14.572
45387SOL    HW138058  14.201  11.456  14.517
45387SOL    HW238059  14.339  11.515  14.537
45388SOL     OW38060  11.060  12.499   1.486
45388SOL    HW138061  10.975  12.532   1.516
45388SOL    HW238062  11.117  12.506   1.562
45389SOL     OW38063   7.203  10.837   8.012
45389SOL    HW138064   7.231  10.805   7.926
45389SOL    HW238065   7.245  10.921   8.022
45390SOL     OW38066   9.913   6.235  13.778
45390SOL    HW138067  10.002   6.270  13.770
45390SOL    HW238068   9.887   6.215  13.688
45391SOL     OW38069   9.055  13.503   3.990
45391SOL    HW138070   9.017  13.519   4.077
45391SOL    HW238071   9.053  13.588   3.947
45392SOL     OW38072   6.370   5.045   3.898
45392SOL    HW138073   6.398   5.074   3.985
45392SOL    HW238074   6.279   5.018   3.909
45393SOL     OW38075  14.018   1.382  14.228
45393SOL    HW138076  14.067   1.448  14.276
45393SOL    HW238077  14.085   1.332  14.181
45394SOL     OW38078   0.109  12.984  10.634
45394SOL    HW138079   0.082  13.056  10.577
45394SOL    HW238080   0.063  13.000  10.716
45395SOL     OW38081   2.376  13.145   6.649
45395SOL    HW138082   2.338  13.219   6.601
45395SOL    HW238083   2.337  13.068   6.608
45396SOL     OW38084  14.020   6.276   8.606
45396SOL    HW138085  14.013   6.222   8.684
45396SOL    HW238086  14.059   6.219   8.540
45397SOL     OW38087   0.796   5.544   3.905
45397SOL    HW138088   0.748   5.535   3.823
45397SOL    HW238089   0.764   5.472   3.960
45398SOL     OW38090   1.559   2.619  12.465
45398SOL    HW138091   1.547   2.547  12.403
45398SOL    HW238092   1.623   2.585  12.528
45399SOL     OW38093  13.225  11.874   3.052
45399SOL    HW138094  13.204  11.967   3.063
45399SOL    HW238095  13.295  11.873   2.987
45400SOL     OW38096  14.703   3.381  12.746
45400SOL    HW138097  14.783   3.369  12.798
45400SOL    HW238098  14.633   3.375  12.810
45401SOL     OW38099  12.801   8.319   1.713
45401SOL    HW138100  12.766   8.325   1.624
45401SOL    HW238101  12.744   8.375   1.765
45402SOL     OW38102   5.552   6.838  13.947
45402SOL    HW138103   5.552   6.843  14.042
45402SOL    HW238104   5.547   6.744  13.927
45403SOL     OW38105  11.719  10.911  10.750
45403SOL    HW138106  11.794  10.859  10.721
45403SOL    HW238107  11.644  10.854  10.736
45404SOL     OW38108   1.792   8.784   7.551
45404SOL    HW138109   1.850   8.807   7.623
45404SOL    HW238110   1.712   8.752   7.594
45405SOL     OW38111   1.411   8.483  11.787
45405SOL    HW138112   1.437   8.429  11.712
45405SOL    HW238113   1.436   8.432  11.863
45406SOL     OW38114   1.881   5.043   6.518
45406SOL    HW138115   1.963   5.026   6.471
45406SOL    HW238116   1.814   5.044   6.450
45407SOL     OW38117   8.651   4.495   2.559
45407SOL    HW138118   8.688   4.498   2.471
45407SOL    HW238119   8.721   4.458   2.613
45408SOL     OW38120  10.232   7.229  11.010
45408SOL    HW138121  10.142   7.195  11.002
45408SOL    HW238122  10.287   7.151  11.004
45409SOL     OW38123   8.657   8.559   7.359
45409SOL    HW138124   8.616   8.596   7.281
45409SOL    HW238125   8.739   8.521   7.327
45410SOL     OW38126   0.309   6.232  14.094
45410SOL    HW138127   0.352   6.147  14.086
45410SOL    HW238128   0.355   6.288  14.032
45411SOL     OW38129   1.562  13.495  14.276
45411SOL    HW138130   1.619  13.483  14.352
45411SOL    HW238131   1.594  13.432  14.211
45412SOL     OW38132   8.498   8.646   2.549
45412SOL    HW138133   8.420   8.590   2.547
45412SOL    HW238134   8.566   8.590   2.586
45413SOL     OW38135   7.332   9.514   4.352
45413SOL    HW138136   7.332   9.446   4.419
45413SOL    HW238137   7.249   9.560   4.364
45414SOL     OW38138   1.177   5.825  14.278
45414SOL    HW138139   1.178   5.751  14.218
45414SOL    HW238140   1.169   5.902  14.221
45415SOL     OW38141   1.002   6.982   9.289
45415SOL    HW138142   0.987   7.055   9.229
45415SOL    HW238143   1.014   7.023   9.374
45416SOL     OW38144   6.904  13.838   6.543
45416SOL    HW138145   6.840  13.825   6.474
45416SOL    HW238146   6.853  13.873   6.616
45417SOL     OW38147   8.919  11.997  13.240
45417SOL    HW138148   8.893  11.908  13.263
45417SOL    HW238149   8.934  12.040  13.325
45418SOL     OW38150   1.211   0.702   8.444
45418SOL    HW138151   1.271   0.738   8.509
45418SOL    HW238152   1.189   0.777   8.388
45419SOL     OW38153  10.887  14.740   1.067
45419SOL    HW138154  10.923  14.818   1.025
45419SOL    HW238155  10.836  14.774   1.141
45420SOL     OW38156   3.271  12.594   8.564
45420SOL    HW138157   3.354  12.641   8.555
45420SOL    HW238158   3.289  12.505   8.533
45421SOL     OW38159   3.282   9.789   1.547
45421SOL    HW138160   3.314   9.874   1.516
45421SOL    HW238161   3.272   9.737   1.467
45422SOL     OW38162   2.460   0.574   5.132
45422SOL    HW138163   2.553   0.560   5.150
45422SOL    HW238164   2.441   0.518   5.058
45423SOL     OW38165  12.184   5.247   0.427
45423SOL    HW138166  12.163   5.240   0.520
45423SOL    HW238167  12.138   5.325   0.397
45424SOL     OW38168  11.661   0.044   0.909
45424SOL    HW138169  11.680   0.000   0.992
45424SOL    HW238170  11.596  14.858   0.867
45425SOL     OW38171   3.753  12.046  14.820
45425SOL    HW138172   3.709  11.996   0.020
45425SOL    HW238173   3.720  12.008  14.739
45426SOL     OW38174   6.458   3.504   9.722
45426SOL    HW138175   6.541   3.540   9.753
45426SOL    HW238176   6.483   3.433   9.663
45427SOL     OW38177  11.574   3.714  11.603
45427SOL    HW138178  11.506   3.721  11.537
45427SOL    HW238179  11.652   3.684  11.555
45428SOL     OW38180  10.937   8.449   0.611
45428SOL    HW138181  11.031   8.437   0.627
45428SOL    HW238182  10.924   8.544   0.612
45429SOL     OW38183  12.361  11.179   3.533
45429SOL    HW138184  12.436  11.132   3.570
45429SOL    HW238185  12.335  11.241   3.601
45430SOL     OW38186   4.083  13.495  13.533
45430SOL    HW138187   4.113  13.583  13.507
45430SOL    HW238188   4.105  13.489  13.625
45431SOL     OW38189   5.675   2.662  10.645
45431SOL    HW138190   5.682   2.623  10.732
45431SOL    HW238191   5.639   2.750  10.660
45432SOL     OW38192  10.724  10.402  10.615
45432SOL    HW138193  10.776  10.471  10.574
45432SOL    HW238194  10.661  10.377  10.549
45433SOL     OW38195   3.322  12.105  13.203
45433SOL    HW138196   3.322  12.089  13.109
45433SOL    HW238197   3.405  12.068  13.234
45434SOL     OW38198   6.333   2.017   0.078
45434SOL    HW138199   6.384   2.098   0.080
45434SOL    HW238200   6.285   2.017   0.162
45435SOL     OW38201   6.127   4.195   4.076
45435SOL    HW138202   6.152   4.132   4.009
45435SOL    HW238203   6.073   4.144   4.137
45436SOL     OW38204   4.268   3.102   3.347
45436SOL    HW138205   4.361   3.094   3.327
45436SOL    HW238206   4.238   3.178   3.297
45437SOL     OW38207   0.067  11.317   3.043
45437SOL    HW138208   0.138  11.254   3.053
45437SOL    HW238209   0.111  11.402   3.043
45438SOL     OW38210  10.085   5.248   9.033
45438SOL    HW138211  10.018   5.187   9.062
45438SOL    HW238212  10.052   5.283   8.950
45439SOL     OW38213   0.834   3.305   2.926
45439SOL    HW138214   0.929   3.311   2.913
45439SOL    HW238215   0.798   3.374   2.870
45440SOL     OW38216   6.779   1.080   0.078
45440SOL    HW138217   6.841   1.031   0.132
45440SOL    HW238218   6.790   1.172   0.105
45441SOL     OW38219   1.780   8.793   3.553
45441SOL    HW138220   1.710   8.830   3.606
45441SOL    HW238221   1.760   8.699   3.549
45442SOL     OW38222   4.395  14.407   0.411
45442SOL    HW138223   4.338  14.458   0.468
45442SOL    HW238224   4.463  14.468   0.383
45443SOL     OW38225   9.338   2.439   1.231
45443SOL    HW138226   9.252   2.396   1.230
45443SOL    HW238227   9.386   2.399   1.159
45444SOL     OW38228   2.576   5.858   4.130
45444SOL    HW138229   2.601   5.771   4.099
45444SOL    HW238230   2.484   5.849   4.155
45445SOL     OW38231  11.412   9.869   5.451
45445SOL    HW138232  11.486   9.927   5.471
45445SOL    HW238233  11.426   9.843   5.359
45446SOL     OW38234   4.531   7.800   8.800
45446SOL    HW138235   4.513   7.792   8.706
45446SOL    HW238236   4.617   7.761   8.811
45447SOL     OW38237   7.866   0.966   3.067
45447SOL    HW138238   7.854   0.913   3.146
45447SOL    HW238239   7.960   0.979   3.061
45448SOL     OW38240  12.743   6.882   3.159
45448SOL    HW138241  12.651   6.891   3.131
45448SOL    HW238242  12.745   6.922   3.246
45449SOL     OW38243  10.221   7.746   6.744
45449SOL    HW138244  10.207   7.652   6.735
45449SOL    HW238245  10.138   7.779   6.779
45450SOL     OW38246  14.262   7.941  10.226
45450SOL    HW138247  14.170   7.927  10.202
45450SOL    HW238248  14.275   7.886  10.303
45451SOL     OW38249   5.550  11.904   4.933
45451SOL    HW138250   5.466  11.912   4.887
45451SOL    HW238251   5.584  11.994   4.937
45452SOL     OW38252  13.283   9.375   2.111
45452SOL    HW138253  13.323   9.459   2.090
45452SOL    HW238254  13.354   9.324   2.150
45453SOL     OW38255   9.583   0.154   3.669
45453SOL    HW138256   9.676   0.133   3.680
45453SOL    HW238257   9.561   0.208   3.745
45454SOL     OW38258  13.511   0.069  13.692
45454SOL    HW138259  13.469  14.857  13.720
45454SOL    HW238260  13.493   0.131  13.763
45455SOL     OW38261  12.001   0.707  14.115
45455SOL    HW138262  11.926   0.766  14.105
45455SOL    HW238263  12.047   0.713  14.031
45456SOL     OW38264   2.869  13.692   8.588
45456SOL    HW138265   2.900  13.660   8.673
45456SOL    HW238266   2.797  13.632   8.566
45457SOL     OW38267   2.320  11.168   8.322
45457SOL    HW138268   2.332  11.262   8.335
45457SOL    HW238269   2.380  11.145   8.251
45458SOL     OW38270   2.158   8.803   4.222
45458SOL    HW138271   2.093   8.777   4.157
45458SOL    HW238272   2.125   8.885   4.258
45459SOL     OW38273   2.976   2.384   1.939
45459SOL    HW138274   3.068   2.380   1.913
45459SOL    HW238275   2.935   2.311   1.894
45460SOL     OW38276   7.563  13.972   6.072
45460SOL    HW138277   7.616  14.051   6.077
45460SOL    HW238278   7.494  13.984   6.137
45461SOL     OW38279  13.718   7.452  12.731
45461SOL    HW138280  13.644   7.481  12.678
45461SOL    HW238281  13.755   7.532  12.767
45462SOL     OW38282   0.182   7.688  14.109
45462SOL    HW138283   0.089   7.671  14.095
45462SOL    HW238284   0.201   7.766  14.057
45463SOL     OW38285   6.328   7.529   9.578
45463SOL    HW138286   6.421   7.543   9.594
45463SOL    HW238287   6.314   7.437   9.598
45464SOL     OW38288   4.675   5.074  13.370
45464SOL    HW138289   4.682   5.101  13.278
45464SOL    HW238290   4.765   5.057  13.397
45465SOL     OW38291   8.756   6.201   2.002
45465SOL    HW138292   8.732   6.266   1.935
45465SOL    HW238293   8.841   6.168   1.973
45466SOL     OW38294  14.634   2.175  13.795
45466SOL    HW138295  14.594   2.215  13.718
45466SOL    HW238296  14.565   2.180  13.862
45467SOL     OW38297   9.678   4.031   4.898
45467SOL    HW138298   9.673   4.113   4.946
45467SOL    HW238299   9.587   4.009   4.877
45468SOL     OW38300   1.071   5.197   2.065
45468SOL    HW138301   1.024   5.136   2.122
45468SOL    HW238302   1.002   5.250   2.025
45469SOL     OW38303  10.222  12.106  13.389
45469SOL    HW138304  10.243  12.064  13.473
45469SOL    HW238305  10.237  12.038  13.324
45470SOL     OW38306   8.627   6.925   3.325
45470SOL    HW138307   8.686   6.921   3.401
45470SOL    HW238308   8.667   6.868   3.260
45471SOL     OW38309   4.186  13.077   7.399
45471SOL    HW138310   4.212  13.025   7.323
45471SOL    HW238311   4.191  13.168   7.370
45472SOL     OW38312  13.211   7.576   7.731
45472SOL    HW138313  13.212   7.583   7.636
45472SOL    HW238314  13.118   7.585   7.754
45473SOL     OW38315   8.789   2.575   4.546
45473SOL    HW138316   8.869   2.606   4.503
45473SOL    HW238317   8.731   2.549   4.474
45474SOL     OW38318   8.944  14.621   9.879
45474SOL    HW138319   8.954  14.649   9.970
45474SOL    HW238320   8.923  14.528   9.885
45475SOL     OW38321   7.653   5.542   1.644
45475SOL    HW138322   7.659   5.544   1.739
45475SOL    HW238323   7.670   5.632   1.616
45476SOL     OW38324   6.076   9.965   2.140
45476SOL    HW138325   6.009   9.919   2.191
45476SOL    HW238326   6.027  10.015   2.075
45477SOL     OW38327  11.463   6.971   8.906
45477SOL    HW138328  11.379   6.936   8.877
45477SOL    HW238329  11.527   6.935   8.845
45478SOL     OW38330   0.228  11.805  13.625
45478SOL    HW138331   0.183  11.756  13.694
45478SOL    HW238332   0.239  11.893  13.661
45479SOL     OW38333  11.584   4.265   9.330
45479SOL    HW138334  11.516   4.317   9.287
45479SOL    HW238335  11.618   4.323   9.398
45480SOL     OW38336  12.994   8.478   2.582
45480SOL    HW138337  12.915   8.531   2.592
45480SOL    HW238338  12.996   8.423   2.661
45481SOL     OW38339   6.423   0.476   0.367
45481SOL    HW138340   6.342   0.455   0.414
45481SOL    HW238341   6.401   0.462   0.275
45482SOL     OW38342   6.974   2.358   4.988
45482SOL    HW138343   6.908   2.301   4.946
45482SOL    HW238344   7.028   2.388   4.915
45483SOL     OW38345  11.307   8.240   6.265
45483SOL    HW138346  11.369   8.212   6.198
45483SOL    HW238347  11.262   8.159   6.291
45484SOL     OW38348  12.948  11.871   3.064
45484SOL    HW138349  12.882  11.831   3.008
45484SOL    HW238350  13.031  11.834   3.033
45485SOL     OW38351  10.024  12.663  13.148
45485SOL    HW138352  10.068  12.676  13.065
45485SOL    HW238353  10.082  12.606  13.198
45486SOL     OW38354   5.004   9.823   7.383
45486SOL    HW138355   5.053   9.897   7.345
45486SOL    HW238356   4.993   9.762   7.311
45487SOL     OW38357   7.413   0.002  12.621
45487SOL    HW138358   7.354  14.859  12.695
45487SOL    HW238359   7.357   0.030  12.549
45488SOL     OW38360  10.628   3.644   7.366
45488SOL    HW138361  10.674   3.603   7.440
45488SOL    HW238362  10.535   3.628   7.385
45489SOL     OW38363  12.238   3.313   0.653
45489SOL    HW138364  12.238   3.389   0.711
45489SOL    HW238365  12.146   3.286   0.647
45490SOL     OW38366   2.952   3.006  13.813
45490SOL    HW138367   3.023   3.026  13.751
45490SOL    HW238368   2.979   3.050  13.894
45491SOL     OW38369   5.125  10.840   9.759
45491SOL    HW138370   5.087  10.907   9.702
45491SOL    HW238371   5.069  10.840   9.837
45492SOL     OW38372  10.900   0.156   5.556
45492SOL    HW138373  10.822   0.174   5.503
45492SOL    HW238374  10.931   0.070   5.526
45493SOL     OW38375   2.243  12.097  11.347
45493SOL    HW138376   2.271  12.006  11.341
45493SOL    HW238377   2.291  12.132  11.421
45494SOL     OW38378  12.398   4.847   3.910
45494SOL    HW138379  12.489   4.852   3.881
45494SOL    HW238380  12.346   4.849   3.830
45495SOL     OW38381   4.934   2.295   9.036
45495SOL    HW138382   4.931   2.373   9.090
45495SOL    HW238383   4.977   2.229   9.091
45496SOL     OW38384   9.439   7.857   7.667
45496SOL    HW138385   9.362   7.905   7.697
45496SOL    HW238386   9.429   7.852   7.572
45497SOL     OW38387   1.490  10.023   2.034
45497SOL    HW138388   1.478   9.936   1.998
45497SOL    HW238389   1.402  10.052   2.058
45498SOL     OW38390   4.598   7.321  10.885
45498SOL    HW138391   4.616   7.332  10.791
45498SOL    HW238392   4.683   7.308  10.925
45499SOL     OW38393   4.453   3.995   2.042
45499SOL    HW138394   4.452   3.925   2.107
45499SOL    HW238395   4.520   4.056   2.074
45500SOL     OW38396   8.384   8.007   7.315
45500SOL    HW138397   8.476   7.991   7.336
45500SOL    HW238398   8.347   7.919   7.300
45501SOL     OW38399  11.015   4.911  13.441
45501SOL    HW138400  11.017   4.915  13.346
45501SOL    HW238401  11.056   4.828  13.463
45502SOL     OW38402   2.336   3.772  10.744
45502SOL    HW138403   2.298   3.848  10.701
45502SOL    HW238404   2.411   3.807  10.792
45503SOL     OW38405  11.564  10.988   7.898
45503SOL    HW138406  11.566  11.066   7.843
45503SOL    HW238407  11.632  10.931   7.861
45504SOL     OW38408   8.605   5.750   5.775
45504SOL    HW138409   8.690   5.789   5.757
45504SOL    HW238410   8.564   5.809   5.838
45505SOL     OW38411   4.605   0.714  12.061
45505SOL    HW138412   4.568   0.653  11.997
45505SOL    HW238413   4.652   0.778  12.008
45506SOL     OW38414   2.065  12.040   9.955
45506SOL    HW138415   2.025  11.953   9.965
45506SOL    HW238416   2.126  12.030   9.882
45507SOL     OW38417   0.902  13.571   1.710
45507SOL    HW138418   0.920  13.528   1.626
45507SOL    HW238419   0.807  13.561   1.722
45508SOL     OW38420   0.314   8.274  13.186
45508SOL    HW138421   0.238   8.221  13.210
45508SOL    HW238422   0.278   8.359  13.163
45509SOL     OW38423   2.699   7.792   7.509
45509SOL    HW138424   2.638   7.770   7.438
45509SOL    HW238425   2.649   7.849   7.567
45510SOL     OW38426   6.837   0.892  10.351
45510SOL    HW138427   6.874   0.882  10.439
45510SOL    HW238428   6.754   0.937  10.366
45511SOL     OW38429   1.547   2.428  12.293
45511SOL    HW138430   1.482   2.410  12.226
45511SOL    HW238431   1.551   2.348  12.346
45512SOL     OW38432   7.263   0.064   4.494
45512SOL    HW138433   7.326   0.019   4.439
45512SOL    HW238434   7.316   0.111   4.558
45513SOL     OW38435  10.102   6.556  14.271
45513SOL    HW138436  10.095   6.638  14.223
45513SOL    HW238437  10.196   6.540  14.278
45514SOL     OW38438   3.921   8.490   6.535
45514SOL    HW138439   3.916   8.553   6.463
45514SOL    HW238440   3.842   8.505   6.586
45515SOL     OW38441  11.790   2.887   8.206
45515SOL    HW138442  11.730   2.942   8.156
45515SOL    HW238443  11.822   2.945   8.276
45516SOL     OW38444  11.929   9.217   7.316
45516SOL    HW138445  11.870   9.181   7.382
45516SOL    HW238446  11.986   9.276   7.365
45517SOL     OW38447   3.623   0.304  13.563
45517SOL    HW138448   3.578   0.281  13.482
45517SOL    HW238449   3.567   0.370  13.603
45518SOL     OW38450   0.381   9.239  10.083
45518SOL    HW138451   0.394   9.333  10.095
45518SOL    HW238452   0.470   9.202  10.087
45519SOL     OW38453   3.816   5.512   5.157
45519SOL    HW138454   3.773   5.597   5.169
45519SOL    HW238455   3.869   5.523   5.078
45520SOL     OW38456   3.865   2.040  10.900
45520SOL    HW138457   3.782   2.085  10.884
45520SOL    HW238458   3.840   1.949  10.916
45521SOL     OW38459   7.241   4.609   1.420
45521SOL    HW138460   7.223   4.531   1.367
45521SOL    HW238461   7.264   4.677   1.357
45522SOL     OW38462  14.860   8.992   1.565
45522SOL    HW138463   0.080   8.985   1.599
45522SOL    HW238464  14.805   8.971   1.640
45523SOL     OW38465   0.704  13.763   1.263
45523SOL    HW138466   0.775  13.699   1.252
45523SOL    HW238467   0.728  13.835   1.205
45524SOL     OW38468  12.373  11.241   9.486
45524SOL    HW138469  12.426  11.222   9.409
45524SOL    HW238470  12.418  11.197   9.558
45525SOL     OW38471  12.737   1.276   6.461
45525SOL    HW138472  12.714   1.210   6.396
45525SOL    HW238473  12.779   1.345   6.410
45526SOL     OW38474   1.875   1.365  14.747
45526SOL    HW138475   1.867   1.359  14.842
45526SOL    HW238476   1.815   1.299  14.713
45527SOL     OW38477   1.499   9.338   5.909
45527SOL    HW138478   1.574   9.325   5.967
45527SOL    HW238479   1.423   9.330   5.967
45528SOL     OW38480  10.810   7.643  12.775
45528SOL    HW138481  10.768   7.666  12.857
45528SOL    HW238482  10.860   7.564  12.795
45529SOL     OW38483   8.730   6.002  12.127
45529SOL    HW138484   8.698   6.091  12.117
45529SOL    HW238485   8.819   6.012  12.161
45530SOL     OW38486   5.678   4.509  11.846
45530SOL    HW138487   5.754   4.452  11.859
45530SOL    HW238488   5.714   4.588  11.807
45531SOL     OW38489  11.457  10.882   9.388
45531SOL    HW138490  11.506  10.964   9.378
45531SOL    HW238491  11.432  10.858   9.299
45532SOL     OW38492   8.425  14.367   5.310
45532SOL    HW138493   8.383  14.447   5.277
45532SOL    HW238494   8.351  14.309   5.331
45533SOL     OW38495   2.253   5.741   1.506
45533SOL    HW138496   2.288   5.818   1.551
45533SOL    HW238497   2.196   5.777   1.438
45534SOL     OW38498   1.014  14.154  13.364
45534SOL    HW138499   0.971  14.176  13.282
45534SOL    HW238500   1.064  14.233  13.386
45535SOL     OW38501  14.406   1.161   3.099
45535SOL    HW138502  14.444   1.217   3.167
45535SOL    HW238503  14.396   1.218   3.023
45536SOL     OW38504  11.617  11.290   9.651
45536SOL    HW138505  11.624  11.253   9.739
45536SOL    HW238506  11.583  11.378   9.665
45537SOL     OW38507   4.736   1.713  11.607
45537SOL    HW138508   4.659   1.766  11.587
45537SOL    HW238509   4.786   1.712  11.525
45538SOL     OW38510   5.346  13.090   5.596
45538SOL    HW138511   5.397  13.150   5.543
45538SOL    HW238512   5.346  13.128   5.684
45539SOL     OW38513   0.836  12.295  13.053
45539SOL    HW138514   0.760  12.352  13.064
45539SOL    HW238515   0.807  12.210  13.086
45540SOL     OW38516   9.133   0.837   9.304
45540SOL    HW138517   9.169   0.758   9.264
45540SOL    HW238518   9.157   0.908   9.245
45541SOL     OW38519   2.618   1.347   0.929
45541SOL    HW138520   2.706   1.334   0.894
45541SOL    HW238521   2.560   1.324   0.856
45542SOL     OW38522  12.979   4.930   6.823
45542SOL    HW138523  12.987   5.021   6.852
45542SOL    HW238524  12.912   4.892   6.880
45543SOL     OW38525  11.855   4.568  13.439
45543SOL    HW138526  11.898   4.536  13.518
45543SOL    HW238527  11.767   4.530  13.443
45544SOL     OW38528   9.673   8.584   3.940
45544SOL    HW138529   9.582   8.557   3.927
45544SOL    HW238530   9.714   8.573   3.855
45545SOL     OW38531   7.143   7.564  10.775
45545SOL    HW138532   7.207   7.522  10.832
45545SOL    HW238533   7.160   7.528  10.689
45546SOL     OW38534  10.098   2.864   3.136
45546SOL    HW138535  10.021   2.898   3.091
45546SOL    HW238536  10.064   2.794   3.192
45547SOL     OW38537  10.431   5.737  13.675
45547SOL    HW138538  10.437   5.642  13.683
45547SOL    HW238539  10.510   5.770  13.718
45548SOL     OW38540   4.531  14.352  11.607
45548SOL    HW138541   4.603  14.310  11.560
45548SOL    HW238542   4.548  14.446  11.598
45549SOL     OW38543  14.468   7.104   4.274
45549SOL    HW138544  14.467   7.095   4.369
45549SOL    HW238545  14.434   7.192   4.257
45550SOL     OW38546  14.073  14.834  11.417
45550SOL    HW138547  13.998  14.860  11.364
45550SOL    HW238548  14.138   0.034  11.401
45551SOL     OW38549   4.759   6.308   4.838
45551SOL    HW138550   4.709   6.253   4.777
45551SOL    HW238551   4.692   6.352   4.891
45552SOL     OW38552   3.551   3.729   4.561
45552SOL    HW138553   3.592   3.794   4.504
45552SOL    HW238554   3.501   3.673   4.501
45553SOL     OW38555   1.386   8.040   0.469
45553SOL    HW138556   1.324   8.068   0.538
45553SOL    HW238557   1.334   7.982   0.413
45554SOL     OW38558  10.408  12.876   4.291
45554SOL    HW138559  10.431  12.791   4.254
45554SOL    HW238560  10.364  12.855   4.373
45555SOL     OW38561  13.078  14.680   6.673
45555SOL    HW138562  13.165  14.698   6.710
45555SOL    HW238563  13.032  14.764   6.680
45556SOL     OW38564   4.762   3.071   0.194
45556SOL    HW138565   4.669   3.049   0.195
45556SOL    HW238566   4.794   3.042   0.279
45557SOL     OW38567   0.270   9.275  12.054
45557SOL    HW138568   0.224   9.248  12.133
45557SOL    HW238569   0.327   9.346  12.083
45558SOL     OW38570  12.276   7.535   1.900
45558SOL    HW138571  12.286   7.558   1.992
45558SOL    HW238572  12.362   7.549   1.862
45559SOL     OW38573  10.811  12.833   6.403
45559SOL    HW138574  10.897  12.799   6.377
45559SOL    HW238575  10.766  12.756   6.439
45560SOL     OW38576   8.991  13.016   7.088
45560SOL    HW138577   9.010  12.967   7.008
45560SOL    HW238578   8.918  12.968   7.128
45561SOL     OW38579   7.023   2.507  10.272
45561SOL    HW138580   6.992   2.482  10.185
45561SOL    HW238581   6.967   2.457  10.332
45562SOL     OW38582   3.191   6.440   5.830
45562SOL    HW138583   3.204   6.443   5.924
45562SOL    HW238584   3.211   6.528   5.799
45563SOL     OW38585   1.313  13.831  11.806
45563SOL    HW138586   1.368  13.837  11.727
45563SOL    HW238587   1.245  13.768  11.783
45564SOL     OW38588  13.078   4.938   5.335
45564SOL    HW138589  13.123   4.970   5.413
45564SOL    HW238590  13.009   4.881   5.368
45565SOL     OW38591   0.819  10.930   0.266
45565SOL    HW138592   0.732  10.949   0.301
45565SOL    HW238593   0.804  10.917   0.172
45566SOL     OW38594   8.974   8.170  14.803
45566SOL    HW138595   8.897   8.182  14.748
45566SOL    HW238596   8.946   8.200   0.020
45567SOL     OW38597  14.258   2.581   3.697
45567SOL    HW138598  14.191   2.623   3.644
45567SOL    HW238599  14.341   2.616   3.665
45568SOL     OW38600   0.942   4.476  11.004
45568SOL    HW138601   0.921   4.383  11.012
45568SOL    HW238602   0.870   4.521  11.048
45569SOL     OW38603   8.357  11.541   2.831
45569SOL    HW138604   8.332  11.623   2.874
45569SOL    HW238605   8.429  11.507   2.884
45570SOL     OW38606   3.518   9.248  11.832
45570SOL    HW138607   3.597   9.284  11.791
45570SOL    HW238608   3.458   9.233  11.759
45571SOL     OW38609   7.157   3.002  14.855
45571SOL    HW138610   7.117   2.928   0.030
45571SOL    HW238611   7.177   2.970  14.767
45572SOL     OW38612   4.882  13.533  10.793
45572SOL    HW138613   4.892  13.455  10.848
45572SOL    HW238614   4.817  13.587  10.838
45573SOL     OW38615   0.443   3.558  12.114
45573SOL    HW138616   0.454   3.532  12.023
45573SOL    HW238617   0.389   3.489  12.152
45574SOL     OW38618   5.913   7.053  14.181
45574SOL    HW138619   5.854   6.980  14.200
45574SOL    HW238620   5.875   7.127  14.228
45575SOL     OW38621  14.833   6.920   6.331
45575SOL    HW138622   0.058   6.906   6.333
45575SOL    HW238623  14.813   6.960   6.416
45576SOL     OW38624   1.044   8.939   7.440
45576SOL    HW138625   0.956   8.937   7.402
45576SOL    HW238626   1.040   9.009   7.506
45577SOL     OW38627  13.266   3.038   5.775
45577SOL    HW138628  13.355   3.035   5.808
45577SOL    HW238629  13.211   3.047   5.853
45578SOL     OW38630   6.974   0.977   6.499
45578SOL    HW138631   6.885   0.990   6.467
45578SOL    HW238632   6.994   0.886   6.478
45579SOL     OW38633  12.985  11.401   7.467
45579SOL    HW138634  12.934  11.387   7.387
45579SOL    HW238635  13.073  11.373   7.444
45580SOL     OW38636  11.818   2.934   4.144
45580SOL    HW138637  11.740   2.927   4.198
45580SOL    HW238638  11.803   3.011   4.089
45581SOL     OW38639   8.221  12.308   8.080
45581SOL    HW138640   8.302  12.267   8.048
45581SOL    HW238641   8.151  12.262   8.033
45582SOL     OW38642  10.985   0.687  12.134
45582SOL    HW138643  11.072   0.653  12.114
45582SOL    HW238644  10.968   0.752  12.065
45583SOL     OW38645   5.922   4.954   8.171
45583SOL    HW138646   6.011   4.960   8.206
45583SOL    HW238647   5.924   4.878   8.112
45584SOL     OW38648   5.472   2.125   1.919
45584SOL    HW138649   5.391   2.176   1.913
45584SOL    HW238650   5.539   2.190   1.939
45585SOL     OW38651   2.129   7.391   2.580
45585SOL    HW138652   2.204   7.387   2.521
45585SOL    HW238653   2.055   7.360   2.528
45586SOL     OW38654   1.798   1.602   2.878
45586SOL    HW138655   1.849   1.574   2.954
45586SOL    HW238656   1.851   1.574   2.802
45587SOL     OW38657   6.334   1.741   8.359
45587SOL    HW138658   6.397   1.744   8.431
45587SOL    HW238659   6.383   1.771   8.283
45588SOL     OW38660   5.682   2.777   7.044
45588SOL    HW138661   5.665   2.712   6.976
45588SOL    HW238662   5.774   2.762   7.067
45589SOL     OW38663   3.988  13.333  10.865
45589SOL    HW138664   3.988  13.378  10.781
45589SOL    HW238665   3.938  13.391  10.923
45590SOL     OW38666  11.674   1.534  10.792
45590SOL    HW138667  11.665   1.627  10.770
45590SOL    HW238668  11.731   1.533  10.869
45591SOL     OW38669  12.990  13.196  13.600
45591SOL    HW138670  13.074  13.225  13.564
45591SOL    HW238671  13.011  13.117  13.650
45592SOL     OW38672  14.401  10.452  11.212
45592SOL    HW138673  14.403  10.356  11.211
45592SOL    HW238674  14.407  10.475  11.304
45593SOL     OW38675   3.302  11.119   3.725
45593SOL    HW138676   3.251  11.109   3.644
45593SOL    HW238677   3.368  11.185   3.703
45594SOL     OW38678   9.985  11.135  14.104
45594SOL    HW138679  10.035  11.144  14.186
45594SOL    HW238680   9.952  11.046  14.106
45595SOL     OW38681   0.165   2.301   8.959
45595SOL    HW138682   0.093   2.272   9.015
45595SOL    HW238683   0.162   2.243   8.883
45596SOL     OW38684   0.440   0.583   0.564
45596SOL    HW138685   0.478   0.546   0.484
45596SOL    HW238686   0.453   0.515   0.630
45597SOL     OW38687  14.023  11.990  12.157
45597SOL    HW138688  14.083  11.916  12.150
45597SOL    HW238689  14.077  12.063  12.188
45598SOL     OW38690   2.055   5.011  10.410
45598SOL    HW138691   2.133   5.061  10.435
45598SOL    HW238692   2.071   4.983  10.320
45599SOL     OW38693  10.525   4.385  14.298
45599SOL    HW138694  10.569   4.414  14.378
45599SOL    HW238695  10.491   4.466  14.259
45600SOL     OW38696   7.324  14.785   3.961
45600SOL    HW138697   7.366  14.829   3.887
45600SOL    HW238698   7.293  14.856   4.017
45601SOL     OW38699   0.483   9.641   5.285
45601SOL    HW138700   0.557   9.632   5.345
45601SOL    HW238701   0.406   9.638   5.343
45602SOL     OW38702   3.012  11.764   3.089
45602SOL    HW138703   3.000  11.855   3.118
45602SOL    HW238704   2.924  11.728   3.085
45603SOL     OW38705   8.790   7.980   4.523
45603SOL    HW138706   8.761   7.913   4.461
45603SOL    HW238707   8.711   8.004   4.572
45604SOL     OW38708   9.293   7.640   4.741
45604SOL    HW138709   9.376   7.592   4.743
45604SOL    HW238710   9.252   7.612   4.659
45605SOL     OW38711  10.532  12.226   1.822
45605SOL    HW138712  10.453  12.191   1.782
45605SOL    HW238713  10.504  12.257   1.908
45606SOL     OW38714  14.079  14.331   5.983
45606SOL    HW138715  13.999  14.279   5.982
45606SOL    HW238716  14.051  14.417   6.016
45607SOL     OW38717   9.362   0.385   5.306
45607SOL    HW138718   9.323   0.471   5.293
45607SOL    HW238719   9.292   0.323   5.287
45608SOL     OW38720   0.809   4.009   7.591
45608SOL    HW138721   0.737   3.946   7.595
45608SOL    HW238722   0.871   3.970   7.530
45609SOL     OW38723  12.954   5.492   9.303
45609SOL    HW138724  12.949   5.577   9.259
45609SOL    HW238725  13.027   5.447   9.261
45610SOL     OW38726  14.517   3.277   1.328
45610SOL    HW138727  14.512   3.225   1.409
45610SOL    HW238728  14.459   3.231   1.267
45611SOL     OW38729   6.831  12.631  11.810
45611SOL    HW138730   6.826  12.720  11.845
45611SOL    HW238731   6.740  12.600  11.812
45612SOL     OW38732   5.777   0.738   0.943
45612SOL    HW138733   5.841   0.718   1.011
45612SOL    HW238734   5.757   0.653   0.903
45613SOL     OW38735  11.530   5.057   1.713
45613SOL    HW138736  11.483   5.109   1.778
45613SOL    HW238737  11.496   5.087   1.629
45614SOL     OW38738  10.133  10.320  14.557
45614SOL    HW138739  10.177  10.306  14.641
45614SOL    HW238740  10.197  10.294  14.492
45615SOL     OW38741  12.633   9.347   3.269
45615SOL    HW138742  12.703   9.292   3.304
45615SOL    HW238743  12.609   9.306   3.186
45616SOL     OW38744   5.491   3.671  12.595
45616SOL    HW138745   5.414   3.620  12.568
45616SOL    HW238746   5.480   3.756  12.552
45617SOL     OW38747  13.830   7.721   7.344
45617SOL    HW138748  13.905   7.708   7.402
45617SOL    HW238749  13.817   7.635   7.303
45618SOL     OW38750  14.407   6.586   3.181
45618SOL    HW138751  14.498   6.616   3.181
45618SOL    HW238752  14.378   6.599   3.090
45619SOL     OW38753   3.603   2.945  10.772
45619SOL    HW138754   3.687   2.909  10.800
45619SOL    HW238755   3.615   3.040  10.776
45620SOL     OW38756   5.914  13.498  10.407
45620SOL    HW138757   5.963  13.490  10.325
45620SOL    HW238758   5.892  13.591  10.413
45621SOL     OW38759   5.632   4.207  14.024
45621SOL    HW138760   5.713   4.175  14.065
45621SOL    HW238761   5.639   4.177  13.933
45622SOL     OW38762  14.037   0.190   8.892
45622SOL    HW138763  14.053   0.165   8.801
45622SOL    HW238764  14.110   0.152   8.940
45623SOL     OW38765   6.060   6.308   5.699
45623SOL    HW138766   6.121   6.270   5.762
45623SOL    HW238767   6.010   6.233   5.666
45624SOL     OW38768  14.521   6.586   1.810
45624SOL    HW138769  14.445   6.637   1.837
45624SOL    HW238770  14.490   6.532   1.737
45625SOL     OW38771  14.164   1.675  13.429
45625SOL    HW138772  14.142   1.743  13.493
45625SOL    HW238773  14.196   1.602  13.481
45626SOL     OW38774   4.883   9.939   1.678
45626SOL    HW138775   4.885   9.970   1.588
45626SOL    HW238776   4.800   9.891   1.685
45627SOL     OW38777   1.826   8.547  13.394
45627SOL    HW138778   1.746   8.544  13.342
45627SOL    HW238779   1.873   8.624  13.361
45628SOL     OW38780  12.373  14.249   9.323
45628SOL    HW138781  12.299  14.291   9.279
45628SOL    HW238782  12.447  14.262   9.263
45629SOL     OW38783   3.533   0.648   9.047
45629SOL    HW138784   3.560   0.587   8.979
45629SOL    HW238785   3.613   0.695   9.069
45630SOL     OW38786   8.928   2.459   7.779
45630SOL    HW138787   9.012   2.417   7.761
45630SOL    HW238788   8.877   2.393   7.826
45631SOL     OW38789   0.203   4.878  11.860
45631SOL    HW138790   0.217   4.904  11.951
45631SOL    HW238791   0.138   4.807  11.865
45632SOL     OW38792   9.990   8.772   7.532
45632SOL    HW138793  10.021   8.688   7.564
45632SOL    HW238794   9.923   8.799   7.595
45633SOL     OW38795  14.785   2.100   6.062
45633SOL    HW138796  14.821   2.186   6.044
45633SOL    HW238797  14.845   2.039   6.020
45634SOL     OW38798  12.872  11.645  13.710
45634SOL    HW138799  12.851  11.618  13.799
45634SOL    HW238800  12.789  11.640  13.663
45635SOL     OW38801   4.288   2.174  12.986
45635SOL    HW138802   4.337   2.130  12.917
45635SOL    HW238803   4.340   2.252  13.006
45636SOL     OW38804  12.590   5.253  12.378
45636SOL    HW138805  12.587   5.348  12.389
45636SOL    HW238806  12.664   5.224  12.431
45637SOL     OW38807   6.002  14.698   9.077
45637SOL    HW138808   5.923  14.656   9.111
45637SOL    HW238809   5.981  14.717   8.986
45638SOL     OW38810  12.097   5.428   3.804
45638SOL    HW138811  12.146   5.511   3.810
45638SOL    HW238812  12.042   5.427   3.882
45639SOL     OW38813  13.307  14.819   2.332
45639SOL    HW138814  13.257  14.752   2.286
45639SOL    HW238815  13.254   0.029   2.326
45640SOL     OW38816  11.836  12.821   8.123
45640SOL    HW138817  11.897  12.894   8.110
45640SOL    HW238818  11.879  12.766   8.188
45641SOL     OW38819   4.166  10.540   4.621
45641SOL    HW138820   4.081  10.579   4.641
45641SOL    HW238821   4.212  10.608   4.572
45642SOL     OW38822  14.500   1.775  13.548
45642SOL    HW138823  14.587   1.767  13.586
45642SOL    HW238824  14.515   1.786  13.454
45643SOL     OW38825   0.999  11.778   0.466
45643SOL    HW138826   1.023  11.756   0.556
45643SOL    HW238827   0.920  11.831   0.475
45644SOL     OW38828   9.866   0.586   3.594
45644SOL    HW138829   9.814   0.656   3.556
45644SOL    HW238830   9.896   0.535   3.519
45645SOL     OW38831   1.349  14.776   1.276
45645SOL    HW138832   1.441  14.754   1.258
45645SOL    HW238833   1.300  14.697   1.255
45646SOL     OW38834   4.932  11.836   3.446
45646SOL    HW138835   4.888  11.846   3.530
45646SOL    HW238836   4.861  11.819   3.384
45647SOL     OW38837  11.994  13.434  13.352
45647SOL    HW138838  12.013  13.341  13.339
45647SOL    HW238839  11.901  13.438  13.372
45648SOL     OW38840  13.724   2.040   8.837
45648SOL    HW138841  13.637   2.000   8.834
45648SOL    HW238842  13.771   1.992   8.905
45649SOL     OW38843   6.319  10.851   7.989
45649SOL    HW138844   6.320  10.765   8.031
45649SOL    HW238845   6.227  10.872   7.978
45650SOL     OW38846  11.008   7.378   6.837
45650SOL    HW138847  11.070   7.319   6.795
45650SOL    HW238848  11.004   7.454   6.780
45651SOL     OW38849   4.724  11.494   4.270
45651SOL    HW138850   4.689  11.423   4.324
45651SOL    HW238851   4.811  11.511   4.305
45652SOL     OW38852   4.149   1.597  13.838
45652SOL    HW138853   4.184   1.529  13.896
45652SOL    HW238854   4.223   1.655  13.821
45653SOL     OW38855   1.550  12.013  14.473
45653SOL    HW138856   1.547  11.918  14.477
45653SOL    HW238857   1.540  12.033  14.380
45654SOL     OW38858  11.125  11.984   0.437
45654SOL    HW138859  11.092  12.039   0.366
45654SOL    HW238860  11.217  11.968   0.415
45655SOL     OW38861   1.550   8.991   8.315
45655SOL    HW138862   1.496   8.913   8.327
45655SOL    HW238863   1.499   9.063   8.353
45656SOL     OW38864   8.384   6.673   5.525
45656SOL    HW138865   8.359   6.585   5.552
45656SOL    HW238866   8.350   6.730   5.595
45657SOL     OW38867  10.074   2.265   0.432
45657SOL    HW138868  10.054   2.200   0.499
45657SOL    HW238869   9.990   2.282   0.389
45658SOL     OW38870   0.858   0.382   9.541
45658SOL    HW138871   0.890   0.472   9.549
45658SOL    HW238872   0.763   0.390   9.552
45659SOL     OW38873   9.237   0.858   2.600
45659SOL    HW138874   9.245   0.882   2.692
45659SOL    HW238875   9.280   0.773   2.593
45660SOL     OW38876   7.236   2.106   3.431
45660SOL    HW138877   7.317   2.059   3.449
45660SOL    HW238878   7.180   2.044   3.385
45661SOL     OW38879  10.666  11.359   1.153
45661SOL    HW138880  10.731  11.311   1.101
45661SOL    HW238881  10.709  11.375   1.237
45662SOL     OW38882   9.123  11.470  10.403
45662SOL    HW138883   9.155  11.559  10.411
45662SOL    HW238884   9.082  11.451  10.488
45663SOL     OW38885  13.744   5.645  14.083
45663SOL    HW138886  13.801   5.589  14.135
45663SOL    HW238887  13.703   5.704  14.146
45664SOL     OW38888  12.341  11.297   2.452
45664SOL    HW138889  12.370  11.360   2.518
45664SOL    HW238890  12.309  11.222   2.503
45665SOL     OW38891  12.199   4.572   1.007
45665SOL    HW138892  12.176   4.644   0.949
45665SOL    HW238893  12.295   4.572   1.008
45666SOL     OW38894   5.163  10.620   1.958
45666SOL    HW138895   5.084  10.567   1.954
45666SOL    HW238896   5.183  10.628   2.051
45667SOL     OW38897   0.908   7.576   6.673
45667SOL    HW138898   1.000   7.603   6.671
45667SOL    HW238899   0.862   7.647   6.628
45668SOL     OW38900  10.316  12.336   0.289
45668SOL    HW138901  10.353  12.325   0.201
45668SOL    HW238902  10.301  12.247   0.320
45669SOL     OW38903  11.325   5.167   4.053
45669SOL    HW138904  11.275   5.192   3.975
45669SOL    HW238905  11.295   5.078   4.073
45670SOL     OW38906  13.107   6.893  12.079
45670SOL    HW138907  13.112   6.835  12.156
45670SOL    HW238908  13.018   6.882  12.047
45671SOL     OW38909   4.733  11.045   1.751
45671SOL    HW138910   4.698  11.120   1.703
45671SOL    HW238911   4.774  10.991   1.683
45672SOL     OW38912   8.278  10.158   1.115
45672SOL    HW138913   8.290  10.198   1.029
45672SOL    HW238914   8.221  10.083   1.099
45673SOL     OW38915  13.372   4.161   4.380
45673SOL    HW138916  13.301   4.172   4.317
45673SOL    HW238917  13.429   4.237   4.365
45674SOL     OW38918   0.772  10.048   4.052
45674SOL    HW138919   0.772  10.001   3.969
45674SOL    HW238920   0.811   9.987   4.115
45675SOL     OW38921  12.866  12.443   5.247
45675SOL    HW138922  12.789  12.410   5.200
45675SOL    HW238923  12.923  12.367   5.256
45676SOL     OW38924   8.376   8.622  12.363
45676SOL    HW138925   8.416   8.707  12.377
45676SOL    HW238926   8.284   8.634  12.387
45677SOL     OW38927   2.306   3.105   6.926
45677SOL    HW138928   2.214   3.120   6.948
45677SOL    HW238929   2.304   3.045   6.851
45678SOL     OW38930   7.351  14.494   8.102
45678SOL    HW138931   7.375  14.471   8.012
45678SOL    HW238932   7.296  14.572   8.092
45679SOL     OW38933   4.034   8.452  10.314
45679SOL    HW138934   4.043   8.531  10.368
45679SOL    HW238935   3.984   8.392  10.368
45680SOL     OW38936  12.132   6.363   7.341
45680SOL    HW138937  12.086   6.443   7.318
45680SOL    HW238938  12.225   6.386   7.336
45681SOL     OW38939  11.191   5.551   8.672
45681SOL    HW138940  11.103   5.552   8.709
45681SOL    HW238941  11.223   5.462   8.688
45682SOL     OW38942   4.865   7.594   5.184
45682SOL    HW138943   4.803   7.623   5.117
45682SOL    HW238944   4.835   7.636   5.265
45683SOL     OW38945   3.389   2.678  12.568
45683SOL    HW138946   3.399   2.768  12.540
45683SOL    HW238947   3.380   2.683  12.663
45684SOL     OW38948  13.753  11.975  14.465
45684SOL    HW138949  13.685  11.918  14.502
45684SOL    HW238950  13.708  12.023  14.396
45685SOL     OW38951   2.032   7.030   7.935
45685SOL    HW138952   2.028   7.031   7.840
45685SOL    HW238953   1.969   7.096   7.963
45686SOL     OW38954   1.639  11.807  13.690
45686SOL    HW138955   1.678  11.833  13.773
45686SOL    HW238956   1.696  11.846  13.624
45687SOL     OW38957   0.139   2.502  12.352
45687SOL    HW138958   0.193   2.482  12.276
45687SOL    HW238959   0.200   2.498  12.426
45688SOL     OW38960   1.037  10.389   4.649
45688SOL    HW138961   1.050  10.296   4.631
45688SOL    HW238962   1.089  10.406   4.727
45689SOL     OW38963   6.724   0.205   2.991
45689SOL    HW138964   6.748   0.270   3.058
45689SOL    HW238965   6.702   0.127   3.041
45690SOL     OW38966   4.457   6.735   5.937
45690SOL    HW138967   4.463   6.826   5.905
45690SOL    HW238968   4.369   6.728   5.972
45691SOL     OW38969  10.750   3.528   5.948
45691SOL    HW138970  10.783   3.618   5.939
45691SOL    HW238971  10.655   3.537   5.951
45692SOL     OW38972   8.081  11.028  11.791
45692SOL    HW138973   7.997  11.072  11.775
45692SOL    HW238974   8.064  10.936  11.770
45693SOL     OW38975   1.843   7.244   2.063
45693SOL    HW138976   1.906   7.175   2.043
45693SOL    HW238977   1.827   7.287   1.979
45694SOL     OW38978  13.590  12.209   1.917
45694SOL    HW138979  13.658  12.219   1.984
45694SOL    HW238980  13.637  12.209   1.834
45695SOL     OW38981   2.709   5.366   4.352
45695SOL    HW138982   2.667   5.451   4.342
45695SOL    HW238983   2.781   5.367   4.289
45696SOL     OW38984  11.943   4.779  11.795
45696SOL    HW138985  12.020   4.837  11.790
45696SOL    HW238986  11.976   4.694  11.767
45697SOL     OW38987   8.572   5.570  11.496
45697SOL    HW138988   8.560   5.490  11.547
45697SOL    HW238989   8.648   5.612  11.536
45698SOL     OW38990   5.740  11.244   9.171
45698SOL    HW138991   5.775  11.174   9.227
45698SOL    HW238992   5.651  11.217   9.152
45699SOL     OW38993   7.068   9.891   3.601
45699SOL    HW138994   7.056   9.804   3.640
45699SOL    HW238995   6.988   9.938   3.623
45700SOL     OW38996  10.981  14.080  11.636
45700SOL    HW138997  10.956  14.158  11.686
45700SOL    HW238998  10.912  14.071  11.571
45701SOL     OW38999  11.677   1.674   8.631
45701SOL    HW139000  11.596   1.726   8.624
45701SOL    HW239001  11.737   1.715   8.569
45702SOL     OW39002   9.335   2.908   7.671
45702SOL    HW139003   9.295   2.944   7.592
45702SOL    HW239004   9.330   2.980   7.734
45703SOL     OW39005  11.832  14.243   2.515
45703SOL    HW139006  11.913  14.201   2.485
45703SOL    HW239007  11.782  14.171   2.553
45704SOL     OW39008  14.048  14.364  11.266
45704SOL    HW139009  14.059  14.446  11.314
45704SOL    HW239010  13.954  14.347  11.270
45705SOL     OW39011   2.066   9.105   2.113
45705SOL    HW139012   2.123   9.141   2.046
45705SOL    HW239013   2.037   9.181   2.164
45706SOL     OW39014  13.926   9.657   6.660
45706SOL    HW139015  13.831   9.646   6.654
45706SOL    HW239016  13.946   9.731   6.602
45707SOL     OW39017   1.232   4.217  12.796
45707SOL    HW139018   1.263   4.288  12.740
45707SOL    HW239019   1.213   4.145  12.735
45708SOL     OW39020   1.312   3.690   5.934
45708SOL    HW139021   1.300   3.620   5.870
45708SOL    HW239022   1.266   3.765   5.896
45709SOL     OW39023  13.546   3.355  10.239
45709SOL    HW139024  13.575   3.347  10.330
45709SOL    HW239025  13.455   3.328  10.240
45710SOL     OW39026  13.825  12.778   9.458
45710SOL    HW139027  13.872  12.735   9.529
45710SOL    HW239028  13.884  12.847   9.428
45711SOL     OW39029   8.558   8.265   8.442
45711SOL    HW139030   8.537   8.178   8.408
45711SOL    HW239031   8.489   8.321   8.408
45712SOL     OW39032   7.329   5.590   7.104
45712SOL    HW139033   7.388   5.665   7.113
45712SOL    HW239034   7.375   5.518   7.146
45713SOL     OW39035  14.280   6.333   4.940
45713SOL    HW139036  14.298   6.394   4.868
45713SOL    HW239037  14.366   6.314   4.977
45714SOL     OW39038   7.390   3.281  14.448
45714SOL    HW139039   7.399   3.355  14.508
45714SOL    HW239040   7.322   3.226  14.486
45715SOL     OW39041   4.623   2.685   7.918
45715SOL    HW139042   4.660   2.758   7.869
45715SOL    HW239043   4.602   2.620   7.851
45716SOL     OW39044   0.937   0.494  14.684
45716SOL    HW139045   0.860   0.488  14.741
45716SOL    HW239046   0.993   0.422  14.713
45717SOL     OW39047   8.117   0.440   8.512
45717SOL    HW139048   8.071   0.475   8.588
45717SOL    HW239049   8.209   0.442   8.537
45718SOL     OW39050   6.530   3.338   4.103
45718SOL    HW139051   6.532   3.415   4.047
45718SOL    HW239052   6.516   3.265   4.042
45719SOL     OW39053   7.006   2.289   8.458
45719SOL    HW139054   7.005   2.381   8.486
45719SOL    HW239055   7.096   2.260   8.475
45720SOL     OW39056  13.887   3.415  13.263
45720SOL    HW139057  13.858   3.456  13.345
45720SOL    HW239058  13.875   3.321  13.277
45721SOL     OW39059   2.427  11.060   5.536
45721SOL    HW139060   2.334  11.036   5.534
45721SOL    HW239061   2.472  10.982   5.567
45722SOL     OW39062   2.280  13.752   3.975
45722SOL    HW139063   2.237  13.693   3.912
45722SOL    HW239064   2.272  13.708   4.059
45723SOL     OW39065  14.648   1.292   1.082
45723SOL    HW139066  14.635   1.203   1.052
45723SOL    HW239067  14.706   1.332   1.017
45724SOL     OW39068   3.254  12.735   4.232
45724SOL    HW139069   3.226  12.805   4.173
45724SOL    HW239070   3.172  12.698   4.265
45725SOL     OW39071   3.785   1.056   3.935
45725SOL    HW139072   3.842   1.007   3.995
45725SOL    HW239073   3.696   1.037   3.966
45726SOL     OW39074   7.070  10.848  12.635
45726SOL    HW139075   7.127  10.909  12.681
45726SOL    HW239076   7.066  10.771  12.692
45727SOL     OW39077  11.032   1.586   2.158
45727SOL    HW139078  11.086   1.514   2.125
45727SOL    HW239079  11.022   1.645   2.083
45728SOL     OW39080   4.390  11.675   3.050
45728SOL    HW139081   4.365  11.766   3.063
45728SOL    HW239082   4.324  11.625   3.100
45729SOL     OW39083   0.088   8.715  11.504
45729SOL    HW139084   0.011   8.674  11.543
45729SOL    HW239085   0.108   8.788  11.562
45730SOL     OW39086   6.039  14.709   5.651
45730SOL    HW139087   6.104  14.766   5.693
45730SOL    HW239088   6.079  14.622   5.652
45731SOL     OW39089   7.059   3.597  14.533
45731SOL    HW139090   7.024   3.529  14.590
45731SOL    HW239091   7.065   3.557  14.447
45732SOL     OW39092   7.942  13.552   1.705
45732SOL    HW139093   8.006  13.602   1.755
45732SOL    HW239094   7.971  13.461   1.712
45733SOL     OW39095  14.844   7.782   4.293
45733SOL    HW139096  14.800   7.746   4.371
45733SOL    HW239097   0.051   7.827   4.327
45734SOL     OW39098   2.134   2.581   3.575
45734SOL    HW139099   2.173   2.643   3.514
45734SOL    HW239100   2.208   2.530   3.609
45735SOL     OW39101   1.437   5.612   0.367
45735SOL    HW139102   1.442   5.555   0.443
45735SOL    HW239103   1.432   5.701   0.403
45736SOL     OW39104   8.485   5.929   1.411
45736SOL    HW139105   8.468   5.866   1.340
45736SOL    HW239106   8.566   5.972   1.385
45737SOL     OW39107   2.897   0.620  12.815
45737SOL    HW139108   2.864   0.707  12.795
45737SOL    HW239109   2.935   0.627  12.903
45738SOL     OW39110   3.698   5.962   3.080
45738SOL    HW139111   3.635   5.959   3.009
45738SOL    HW239112   3.776   6.002   3.042
45739SOL     OW39113  10.528  10.160  11.509
45739SOL    HW139114  10.609  10.211  11.505
45739SOL    HW239115  10.520  10.136  11.601
45740SOL     OW39116   4.702   8.556   9.065
45740SOL    HW139117   4.700   8.460   9.059
45740SOL    HW239118   4.641   8.585   8.998
45741SOL     OW39119  14.181   9.737   4.256
45741SOL    HW139120  14.131   9.786   4.320
45741SOL    HW239121  14.115   9.696   4.200
45742SOL     OW39122   9.688   3.500   8.632
45742SOL    HW139123   9.784   3.492   8.637
45742SOL    HW239124   9.673   3.584   8.590
45743SOL     OW39125   0.353   2.172   4.002
45743SOL    HW139126   0.296   2.204   3.933
45743SOL    HW239127   0.432   2.142   3.957
45744SOL     OW39128   6.574   9.181  14.350
45744SOL    HW139129   6.584   9.176  14.445
45744SOL    HW239130   6.635   9.116  14.316
45745SOL     OW39131   1.567   7.245   0.238
45745SOL    HW139132   1.582   7.157   0.202
45745SOL    HW239133   1.603   7.304   0.173
45746SOL     OW39134   0.530   1.495  12.171
45746SOL    HW139135   0.614   1.476  12.213
45746SOL    HW239136   0.465   1.480  12.240
45747SOL     OW39137   5.401   7.035   9.639
45747SOL    HW139138   5.333   7.096   9.611
45747SOL    HW239139   5.376   6.951   9.601
45748SOL     OW39140   9.502   1.146  12.224
45748SOL    HW139141   9.499   1.158  12.129
45748SOL    HW239142   9.422   1.188  12.256
45749SOL     OW39143  14.363   8.027   3.597
45749SOL    HW139144  14.418   8.091   3.553
45749SOL    HW239145  14.394   8.026   3.688
45750SOL     OW39146  12.765   8.476   1.937
45750SOL    HW139147  12.783   8.550   1.994
45750SOL    HW239148  12.693   8.429   1.979
45751SOL     OW39149   7.386  12.245  13.758
45751SOL    HW139150   7.396  12.340  13.755
45751SOL    HW239151   7.291  12.231  13.763
45752SOL     OW39152  13.906   1.950   8.492
45752SOL    HW139153  13.812   1.960   8.508
45752SOL    HW239154  13.947   1.968   8.577
45753SOL     OW39155  12.896   1.648   3.220
45753SOL    HW139156  12.942   1.704   3.159
45753SOL    HW239157  12.964   1.596   3.262
45754SOL     OW39158   7.271   3.462   7.294
45754SOL    HW139159   7.215   3.527   7.253
45754SOL    HW239160   7.342   3.448   7.231
45755SOL     OW39161   6.413   7.726   5.322
45755SOL    HW139162   6.407   7.653   5.260
45755SOL    HW239163   6.358   7.795   5.284
45756SOL     OW39164   2.066   6.863   3.659
45756SOL    HW139165   2.038   6.875   3.568
45756SOL    HW239166   2.084   6.952   3.690
45757SOL     OW39167   6.877  13.650   4.941
45757SOL    HW139168   6.824  13.729   4.934
45757SOL    HW239169   6.948  13.663   4.878
45758SOL     OW39170   2.535   9.604  10.529
45758SOL    HW139171   2.463   9.558  10.571
45758SOL    HW239172   2.578   9.651  10.601
45759SOL     OW39173  10.209  12.925  13.807
45759SOL    HW139174  10.256  12.951  13.728
45759SOL    HW239175  10.137  12.988  13.814
45760SOL     OW39176  12.703   5.646  10.592
45760SOL    HW139177  12.708   5.740  10.576
45760SOL    HW239178  12.610   5.627  10.597
45761SOL     OW39179   6.513   6.737  13.025
45761SOL    HW139180   6.425   6.701  13.012
45761SOL    HW239181   6.501   6.806  13.089
45762SOL     OW39182   7.978   3.566   9.964
45762SOL    HW139183   7.914   3.633   9.986
45762SOL    HW239184   8.013   3.537  10.048
45763SOL     OW39185   1.822   4.234   0.546
45763SOL    HW139186   1.826   4.172   0.618
45763SOL    HW239187   1.731   4.265   0.545
45764SOL     OW39188   7.075   6.575  11.744
45764SOL    HW139189   7.069   6.480  11.740
45764SOL    HW239190   7.167   6.593  11.760
45765SOL     OW39191   7.584   8.069   7.180
45765SOL    HW139192   7.547   8.039   7.097
45765SOL    HW239193   7.622   7.990   7.219
45766SOL     OW39194   9.180   9.065   2.805
45766SOL    HW139195   9.242   9.118   2.856
45766SOL    HW239196   9.099   9.068   2.857
45767SOL     OW39197  12.406   9.389   8.560
45767SOL    HW139198  12.412   9.476   8.521
45767SOL    HW239199  12.358   9.403   8.641
45768SOL     OW39200   0.037  13.465  12.101
45768SOL    HW139201   0.104  13.533  12.106
45768SOL    HW239202  14.860  13.471  12.184
45769SOL     OW39203  11.703   1.956   3.566
45769SOL    HW139204  11.765   1.993   3.503
45769SOL    HW239205  11.690   2.024   3.631
45770SOL     OW39206   8.623   4.307  13.875
45770SOL    HW139207   8.669   4.330  13.794
45770SOL    HW239208   8.597   4.216  13.863
45771SOL     OW39209   4.851   4.838  12.563
45771SOL    HW139210   4.816   4.857  12.476
45771SOL    HW239211   4.774   4.820  12.617
45772SOL     OW39212  13.234   0.578  13.541
45772SOL    HW139213  13.252   0.484  13.533
45772SOL    HW239214  13.298   0.619  13.483
45773SOL     OW39215   0.902   9.254  11.205
45773SOL    HW139216   0.933   9.206  11.281
45773SOL    HW239217   0.954   9.220  11.132
45774SOL     OW39218  12.573   2.250   3.154
45774SOL    HW139219  12.549   2.288   3.070
45774SOL    HW239220  12.549   2.158   3.146
45775SOL     OW39221   3.765   1.066   4.793
45775SOL    HW139222   3.692   1.014   4.759
45775SOL    HW239223   3.722   1.138   4.840
45776SOL     OW39224  14.571   8.376  13.051
45776SOL    HW139225  14.659   8.359  13.083
45776SOL    HW239226  14.547   8.296  13.005
45777SOL     OW39227   9.158  10.124   6.479
45777SOL    HW139228   9.082  10.066   6.481
45777SOL    HW239229   9.139  10.192   6.544
45778SOL     OW39230  10.851   4.256   4.205
45778SOL    HW139231  10.923   4.215   4.156
45778SOL    HW239232  10.892   4.286   4.286
45779SOL     OW39233  10.012   3.753  10.846
45779SOL    HW139234  10.093   3.722  10.886
45779SOL    HW239235   9.963   3.792  10.919
45780SOL     OW39236   4.209   9.698   4.745
45780SOL    HW139237   4.212   9.660   4.657
45780SOL    HW239238   4.125   9.668   4.781
45781SOL     OW39239   6.325  10.678   7.385
45781SOL    HW139240   6.381  10.737   7.436
45781SOL    HW239241   6.267  10.639   7.451
45782SOL     OW39242   7.470   7.494   0.727
45782SOL    HW139243   7.516   7.544   0.660
45782SOL    HW239244   7.442   7.414   0.683
45783SOL     OW39245  11.950   6.827   4.829
45783SOL    HW139246  11.903   6.749   4.860
45783SOL    HW239247  12.040   6.799   4.819
45784SOL     OW39248   1.183   9.905   2.569
45784SOL    HW139249   1.100   9.900   2.521
45784SOL    HW239250   1.248   9.873   2.507
45785SOL     OW39251  12.261   8.251   5.161
45785SOL    HW139252  12.205   8.277   5.234
45785SOL    HW239253  12.345   8.294   5.178
45786SOL     OW39254   3.541   4.801  13.079
45786SOL    HW139255   3.590   4.826  13.001
45786SOL    HW239256   3.493   4.723  13.054
45787SOL     OW39257   2.316  14.162  14.478
45787SOL    HW139258   2.328  14.179  14.572
45787SOL    HW239259   2.384  14.215  14.436
45788SOL     OW39260   5.677  13.200  12.154
45788SOL    HW139261   5.619  13.255  12.102
45788SOL    HW239262   5.765  13.226  12.127
45789SOL     OW39263  12.722   2.447   0.827
45789SOL    HW139264  12.766   2.485   0.751
45789SOL    HW239265  12.699   2.358   0.799
45790SOL     OW39266   7.266   1.013   7.988
45790SOL    HW139267   7.278   1.002   7.894
45790SOL    HW239268   7.245   1.106   7.998
45791SOL     OW39269   6.939   4.314  12.941
45791SOL    HW139270   6.970   4.258  12.869
45791SOL    HW239271   7.019   4.352  12.977
45792SOL     OW39272  10.567   2.449   5.202
45792SOL    HW139273  10.584   2.505   5.126
45792SOL    HW239274  10.550   2.363   5.164
45793SOL     OW39275   7.156   9.945  10.046
45793SOL    HW139276   7.170   9.900  10.129
45793SOL    HW239277   7.208  10.025  10.053
45794SOL     OW39278   1.628   8.155  13.435
45794SOL    HW139279   1.681   8.188  13.508
45794SOL    HW239280   1.540   8.147  13.472
45795SOL     OW39281   8.429   4.811   7.490
45795SOL    HW139282   8.351   4.805   7.546
45795SOL    HW239283   8.434   4.903   7.466
45796SOL     OW39284   7.016   9.503  12.713
45796SOL    HW139285   6.924   9.480  12.704
45796SOL    HW239286   7.037   9.551  12.633
45797SOL     OW39287   5.358   5.127  10.354
45797SOL    HW139288   5.284   5.183  10.378
45797SOL    HW239289   5.332   5.087  10.271
45798SOL     OW39290   3.560   9.257  14.494
45798SOL    HW139291   3.522   9.288  14.577
45798SOL    HW239292   3.648   9.295  14.494
45799SOL     OW39293   2.190   6.600   1.441
45799SOL    HW139294   2.190   6.549   1.523
45799SOL    HW239295   2.283   6.617   1.424
45800SOL     OW39296  13.516  13.686  14.562
45800SOL    HW139297  13.583  13.751  14.539
45800SOL    HW239298  13.480  13.718  14.644
45801SOL     OW39299   3.279  11.663   3.551
45801SOL    HW139300   3.350  11.725   3.538
45801SOL    HW239301   3.316  11.578   3.526
45802SOL     OW39302  10.107   1.214   8.235
45802SOL    HW139303  10.163   1.275   8.285
45802SOL    HW239304  10.163   1.138   8.219
45803SOL     OW39305   7.370   2.706  14.100
45803SOL    HW139306   7.438   2.772  14.112
45803SOL    HW239307   7.377   2.650  14.177
45804SOL     OW39308   0.841  14.104   3.807
45804SOL    HW139309   0.873  14.129   3.721
45804SOL    HW239310   0.799  14.019   3.794
45805SOL     OW39311  10.699   8.560   0.909
45805SOL    HW139312  10.731   8.524   0.992
45805SOL    HW239313  10.659   8.485   0.865
45806SOL     OW39314   1.238  10.471   0.297
45806SOL    HW139315   1.306  10.404   0.288
45806SOL    HW239316   1.235  10.514   0.211
45807SOL     OW39317   2.887   3.084   1.759
45807SOL    HW139318   2.948   3.141   1.713
45807SOL    HW239319   2.892   3.000   1.714
45808SOL     OW39320   0.718   7.515   5.899
45808SOL    HW139321   0.746   7.536   5.988
45808SOL    HW239322   0.797   7.526   5.846
45809SOL     OW39323   9.638   9.293   4.978
45809SOL    HW139324   9.593   9.320   4.899
45809SOL    HW239325   9.690   9.370   5.004
45810SOL     OW39326  14.111   1.822  10.830
45810SOL    HW139327  14.163   1.817  10.750
45810SOL    HW239328  14.174   1.806  10.900
45811SOL     OW39329  11.377   8.049   0.740
45811SOL    HW139330  11.371   8.143   0.721
45811SOL    HW239331  11.307   8.009   0.688
45812SOL     OW39332   3.558   4.924   5.876
45812SOL    HW139333   3.486   4.966   5.829
45812SOL    HW239334   3.571   4.979   5.954
45813SOL     OW39335   9.242   0.553   7.079
45813SOL    HW139336   9.180   0.625   7.073
45813SOL    HW239337   9.304   0.581   7.147
45814SOL     OW39338   4.954   5.520   5.379
45814SOL    HW139339   4.878   5.566   5.413
45814SOL    HW239340   4.964   5.444   5.436
45815SOL     OW39341   8.506  11.278  12.363
45815SOL    HW139342   8.517  11.363  12.320
45815SOL    HW239343   8.593  11.257  12.397
45816SOL     OW39344  10.231   0.214   9.841
45816SOL    HW139345  10.156   0.228   9.784
45816SOL    HW239346  10.263   0.301   9.862
45817SOL     OW39347   0.048   1.615   0.015
45817SOL    HW139348  14.833   1.649  14.854
45817SOL    HW239349   0.113   1.660  14.831
45818SOL     OW39350  12.837   3.292   3.345
45818SOL    HW139351  12.755   3.263   3.306
45818SOL    HW239352  12.843   3.244   3.428
45819SOL     OW39353   2.056  11.837  13.771
45819SOL    HW139354   2.095  11.767  13.720
45819SOL    HW239355   2.073  11.813  13.862
45820SOL     OW39356  10.033  14.335   2.366
45820SOL    HW139357  10.017  14.317   2.273
45820SOL    HW239358   9.968  14.283   2.412
45821SOL     OW39359   8.805   0.565   8.419
45821SOL    HW139360   8.812   0.470   8.414
45821SOL    HW239361   8.711   0.583   8.415
45822SOL     OW39362   2.088   6.441   3.816
45822SOL    HW139363   2.040   6.384   3.876
45822SOL    HW239364   2.155   6.483   3.870
45823SOL     OW39365  12.162  12.567  10.991
45823SOL    HW139366  12.068  12.563  10.976
45823SOL    HW239367  12.171  12.604  11.078
45824SOL     OW39368   9.354   7.619   7.133
45824SOL    HW139369   9.343   7.529   7.164
45824SOL    HW239370   9.449   7.630   7.123
45825SOL     OW39371  13.696  12.793   5.815
45825SOL    HW139372  13.763  12.730   5.841
45825SOL    HW239373  13.738  12.844   5.745
45826SOL     OW39374  13.349  12.086   4.185
45826SOL    HW139375  13.341  11.991   4.191
45826SOL    HW239376  13.428  12.107   4.234
45827SOL     OW39377  13.298  12.849  10.748
45827SOL    HW139378  13.344  12.812  10.823
45827SOL    HW239379  13.332  12.938  10.739
45828SOL     OW39380   1.449  13.892  10.247
45828SOL    HW139381   1.476  13.891  10.339
45828SOL    HW239382   1.530  13.884  10.198
45829SOL     OW39383   3.824   9.677   2.215
45829SOL    HW139384   3.825   9.630   2.132
45829SOL    HW239385   3.752   9.741   2.205
45830SOL     OW39386   8.741   1.882  11.173
45830SOL    HW139387   8.834   1.889  11.153
45830SOL    HW239388   8.701   1.952  11.121
45831SOL     OW39389   5.859   8.073   1.545
45831SOL    HW139390   5.926   8.005   1.542
45831SOL    HW239391   5.778   8.029   1.518
45832SOL     OW39392   1.231   6.859   4.819
45832SOL    HW139393   1.293   6.898   4.881
45832SOL    HW239394   1.281   6.852   4.737
45833SOL     OW39395   7.533   3.893   9.199
45833SOL    HW139396   7.537   3.984   9.227
45833SOL    HW239397   7.535   3.897   9.103
45834SOL     OW39398   8.879   9.125  11.971
45834SOL    HW139399   8.889   9.052  11.910
45834SOL    HW239400   8.969   9.145  11.999
45835SOL     OW39401  14.085  13.038   8.703
45835SOL    HW139402  14.172  13.017   8.669
45835SOL    HW239403  14.068  13.126   8.672
45836SOL     OW39404  12.948  12.870   4.255
45836SOL    HW139405  12.980  12.940   4.311
45836SOL    HW239406  13.025  12.816   4.236
45837SOL     OW39407   1.631  10.339   5.327
45837SOL    HW139408   1.705  10.331   5.268
45837SOL    HW239409   1.669  10.335   5.414
45838SOL     OW39410  11.425   3.058   1.697
45838SOL    HW139411  11.386   3.103   1.622
45838SOL    HW239412  11.483   3.123   1.737
45839SOL     OW39413  13.015  14.771   1.665
45839SOL    HW139414  12.920  14.768   1.677
45839SOL    HW239415  13.029  14.758   1.572
45840SOL     OW39416  12.073   7.126   8.738
45840SOL    HW139417  12.000   7.077   8.701
45840SOL    HW239418  12.137   7.058   8.763
45841SOL     OW39419   9.923   7.653   0.750
45841SOL    HW139420   9.952   7.733   0.706
45841SOL    HW239421   9.949   7.665   0.842
45842SOL     OW39422   8.049  11.864   1.798
45842SOL    HW139423   7.988  11.921   1.845
45842SOL    HW239424   8.130  11.870   1.848
45843SOL     OW39425   3.388   2.684   5.970
45843SOL    HW139426   3.433   2.647   5.894
45843SOL    HW239427   3.421   2.632   6.044
45844SOL     OW39428   9.871  12.869  10.139
45844SOL    HW139429   9.856  12.822  10.221
45844SOL    HW239430   9.819  12.822  10.074
45845SOL     OW39431  14.385   0.872  14.066
45845SOL    HW139432  14.442   0.797  14.085
45845SOL    HW239433  14.426   0.914  13.990
45846SOL     OW39434   3.390  13.315   4.855
45846SOL    HW139435   3.360  13.365   4.779
45846SOL    HW239436   3.423  13.381   4.916
45847SOL     OW39437  13.610   2.117  13.192
45847SOL    HW139438  13.619   2.030  13.231
45847SOL    HW239439  13.647   2.176  13.257
45848SOL     OW39440   6.074  11.079   4.498
45848SOL    HW139441   6.075  11.097   4.592
45848SOL    HW239442   6.108  10.990   4.489
45849SOL     OW39443  10.274   8.310  11.814
45849SOL    HW139444  10.239   8.282  11.729
45849SOL    HW239445  10.358   8.265  11.820
45850SOL     OW39446  12.916   5.347   1.829
45850SOL    HW139447  12.850   5.417   1.830
45850SOL    HW239448  12.956   5.352   1.743
45851SOL     OW39449   3.018   5.074   2.826
45851SOL    HW139450   3.077   5.085   2.752
45851SOL    HW239451   3.068   5.105   2.902
45852SOL     OW39452   4.185  13.964   0.061
45852SOL    HW139453   4.239  13.903   0.010
45852SOL    HW239454   4.177  14.041   0.005
45853SOL     OW39455  13.042   6.529   8.870
45853SOL    HW139456  13.109   6.529   8.802
45853SOL    HW239457  12.960   6.546   8.823
45854SOL     OW39458  10.617   3.487  10.979
45854SOL    HW139459  10.634   3.577  10.952
45854SOL    HW239460  10.528   3.489  11.016
45855SOL     OW39461   4.747   4.332  13.817
45855SOL    HW139462   4.809   4.387  13.866
45855SOL    HW239463   4.758   4.245  13.854
45856SOL     OW39464   8.488   3.169   9.897
45856SOL    HW139465   8.510   3.239   9.958
45856SOL    HW239466   8.517   3.201   9.812
45857SOL     OW39467   1.091   9.844   4.651
45857SOL    HW139468   1.177   9.803   4.643
45857SOL    HW239469   1.103   9.932   4.615
45858SOL     OW39470   5.813  14.864   1.574
45858SOL    HW139471   5.884   0.057   1.590
45858SOL    HW239472   5.789   0.009   1.482
45859SOL     OW39473   7.651   6.811  10.210
45859SOL    HW139474   7.678   6.902  10.215
45859SOL    HW239475   7.732   6.763  10.191
45860SOL     OW39476   4.431   3.589   8.246
45860SOL    HW139477   4.432   3.493   8.245
45860SOL    HW239478   4.352   3.611   8.296
45861SOL     OW39479  14.050  10.608   3.092
45861SOL    HW139480  14.121  10.544   3.083
45861SOL    HW239481  14.040  10.619   3.187
45862SOL     OW39482   5.422  14.053   5.813
45862SOL    HW139483   5.381  14.044   5.727
45862SOL    HW239484   5.352  14.086   5.869
45863SOL     OW39485  10.150   4.086   1.544
45863SOL    HW139486  10.081   4.096   1.479
45863SOL    HW239487  10.119   4.135   1.620
45864SOL     OW39488  11.027   4.134   5.005
45864SOL    HW139489  11.059   4.188   4.933
45864SOL    HW239490  10.966   4.190   5.052
45865SOL     OW39491   6.345  14.687  13.353
45865SOL    HW139492   6.303  14.705  13.270
45865SOL    HW239493   6.424  14.741  13.353
45866SOL     OW39494  14.445  13.626   5.307
45866SOL    HW139495  14.389  13.662   5.239
45866SOL    HW239496  14.450  13.695   5.374
45867SOL     OW39497   8.946   8.031  10.029
45867SOL    HW139498   8.977   8.053  10.117
45867SOL    HW239499   8.980   7.943  10.013
45868SOL     OW39500   3.847   1.633   9.231
45868SOL    HW139501   3.838   1.679   9.315
45868SOL    HW239502   3.913   1.683   9.184
45869SOL     OW39503   8.204   3.561   8.689
45869SOL    HW139504   8.207   3.586   8.781
45869SOL    HW239505   8.121   3.513   8.680
45870SOL     OW39506   8.807  11.849   1.030
45870SOL    HW139507   8.756  11.844   1.111
45870SOL    HW239508   8.780  11.932   0.990
45871SOL     OW39509   2.461   3.188   9.565
45871SOL    HW139510   2.538   3.134   9.581
45871SOL    HW239511   2.429   3.211   9.652
45872SOL     OW39512  11.372  12.060   2.088
45872SOL    HW139513  11.289  12.098   2.060
45872SOL    HW239514  11.408  12.124   2.150
45873SOL     OW39515  12.422   5.766  13.051
45873SOL    HW139516  12.440   5.673  13.035
45873SOL    HW239517  12.492   5.793  13.110
45874SOL     OW39518  12.490   3.539   6.979
45874SOL    HW139519  12.476   3.472   7.046
45874SOL    HW239520  12.536   3.493   6.908
45875SOL     OW39521  12.382  13.081   2.232
45875SOL    HW139522  12.413  13.000   2.191
45875SOL    HW239523  12.427  13.084   2.316
45876SOL     OW39524   6.226   8.414   2.895
45876SOL    HW139525   6.157   8.480   2.894
45876SOL    HW239526   6.186   8.337   2.853
45877SOL     OW39527   9.284   1.528  11.762
45877SOL    HW139528   9.317   1.554  11.848
45877SOL    HW239529   9.273   1.433  11.768
45878SOL     OW39530   3.932   7.045  14.626
45878SOL    HW139531   3.882   7.110  14.577
45878SOL    HW239532   3.870   7.010  14.689
45879SOL     OW39533   5.563  10.233   2.937
45879SOL    HW139534   5.518  10.154   2.906
45879SOL    HW239535   5.586  10.214   3.027
45880SOL     OW39536  14.837  10.192  14.804
45880SOL    HW139537   0.061  10.169  14.810
45880SOL    HW239538  14.796  10.142   0.005
45881SOL     OW39539   5.541  11.378   9.957
45881SOL    HW139540   5.455  11.345   9.983
45881SOL    HW239541   5.603  11.319   9.999
45882SOL     OW39542   1.922  10.265   8.731
45882SOL    HW139543   1.844  10.210   8.737
45882SOL    HW239544   1.985  10.224   8.790
45883SOL     OW39545   7.404   7.253   5.983
45883SOL    HW139546   7.442   7.197   6.051
45883SOL    HW239547   7.388   7.195   5.910
45884SOL     OW39548  10.586   9.004   2.018
45884SOL    HW139549  10.599   9.072   2.083
45884SOL    HW239550  10.527   8.941   2.061
45885SOL     OW39551  13.641   9.097   1.361
45885SOL    HW139552  13.594   9.180   1.359
45885SOL    HW239553  13.614   9.052   1.281
45886SOL     OW39554   1.661  13.156  11.214
45886SOL    HW139555   1.623  13.196  11.135
45886SOL    HW239556   1.668  13.229  11.276
45887SOL     OW39557  12.848   0.436   9.084
45887SOL    HW139558  12.784   0.368   9.061
45887SOL    HW239559  12.927   0.388   9.108
45888SOL     OW39560   4.648  14.235   8.081
45888SOL    HW139561   4.581  14.272   8.024
45888SOL    HW239562   4.618  14.254   8.170
45889SOL     OW39563  12.900   7.051   5.489
45889SOL    HW139564  12.837   6.986   5.522
45889SOL    HW239565  12.979   7.037   5.542
45890SOL     OW39566   4.549   8.652   7.867
45890SOL    HW139567   4.634   8.695   7.855
45890SOL    HW239568   4.567   8.559   7.854
45891SOL     OW39569   2.017   6.275   3.424
45891SOL    HW139570   2.042   6.318   3.505
45891SOL    HW239571   1.932   6.236   3.443
45892SOL     OW39572   8.830  14.010  14.332
45892SOL    HW139573   8.888  13.951  14.381
45892SOL    HW239574   8.869  14.014  14.245
45893SOL     OW39575  12.749   6.354  12.318
45893SOL    HW139576  12.760   6.448  12.306
45893SOL    HW239577  12.665   6.345  12.363
45894SOL     OW39578  12.649  11.099  11.418
45894SOL    HW139579  12.569  11.113  11.368
45894SOL    HW239580  12.627  11.124  11.507
45895SOL     OW39581   3.928   8.451   5.536
45895SOL    HW139582   3.905   8.515   5.603
45895SOL    HW239583   3.872   8.375   5.555
45896SOL     OW39584   0.205  13.400   0.875
45896SOL    HW139585   0.262  13.332   0.912
45896SOL    HW239586   0.260  13.478   0.869
45897SOL     OW39587   2.516   9.303   9.689
45897SOL    HW139588   2.508   9.232   9.753
45897SOL    HW239589   2.580   9.363   9.727
45898SOL     OW39590   8.284   9.438   1.594
45898SOL    HW139591   8.312   9.510   1.650
45898SOL    HW239592   8.362   9.385   1.582
45899SOL     OW39593  14.484  13.482   7.107
45899SOL    HW139594  14.504  13.570   7.074
45899SOL    HW239595  14.567  13.451   7.143
45900SOL     OW39596   2.449  14.503   0.524
45900SOL    HW139597   2.448  14.529   0.616
45900SOL    HW239598   2.541  14.483   0.506
45901SOL     OW39599   5.782   9.142   6.130
45901SOL    HW139600   5.778   9.185   6.216
45901SOL    HW239601   5.691   9.137   6.102
45902SOL     OW39602   0.616   8.945   4.966
45902SOL    HW139603   0.674   9.020   4.982
45902SOL    HW239604   0.594   8.913   5.053
45903SOL     OW39605  11.211   4.838  10.819
45903SOL    HW139606  11.126   4.833  10.775
45903SOL    HW239607  11.219   4.755  10.865
45904SOL     OW39608   0.748   8.438  11.614
45904SOL    HW139609   0.788   8.522  11.594
45904SOL    HW239610   0.689   8.422  11.541
45905SOL     OW39611   3.923   3.215   6.239
45905SOL    HW139612   3.990   3.153   6.210
45905SOL    HW239613   3.969   3.273   6.300
45906SOL     OW39614  12.915  13.764   7.934
45906SOL    HW139615  12.977  13.760   7.862
45906SOL    HW239616  12.950  13.830   7.993
45907SOL     OW39617   8.170   4.176   2.339
45907SOL    HW139618   8.101   4.205   2.279
45907SOL    HW239619   8.123   4.145   2.416
45908SOL     OW39620  10.048   1.710   8.975
45908SOL    HW139621  10.063   1.730   9.067
45908SOL    HW239622  10.054   1.615   8.970
45909SOL     OW39623   7.140   4.747  12.811
45909SOL    HW139624   7.129   4.832  12.767
45909SOL    HW239625   7.156   4.685  12.740
45910SOL     OW39626   8.998   0.868   0.265
45910SOL    HW139627   9.002   0.803   0.195
45910SOL    HW239628   8.946   0.826   0.334
45911SOL     OW39629  12.042   1.085   5.199
45911SOL    HW139630  12.092   1.005   5.213
45911SOL    HW239631  12.006   1.076   5.111
45912SOL     OW39632   7.028   8.013  11.947
45912SOL    HW139633   7.112   8.060  11.949
45912SOL    HW239634   6.968   8.073  11.904
45913SOL     OW39635  14.600   4.859   1.255
45913SOL    HW139636  14.581   4.855   1.161
45913SOL    HW239637  14.592   4.952   1.277
45914SOL     OW39638   0.506   8.345   3.825
45914SOL    HW139639   0.526   8.418   3.766
45914SOL    HW239640   0.575   8.282   3.808
45915SOL     OW39641   2.973   9.991  10.836
45915SOL    HW139642   2.916   9.984  10.759
45915SOL    HW239643   3.059  10.015  10.800
45916SOL     OW39644   5.603  10.090   4.414
45916SOL    HW139645   5.588  10.132   4.329
45916SOL    HW239646   5.523  10.105   4.463
45917SOL     OW39647   0.353   6.575  13.784
45917SOL    HW139648   0.302   6.628  13.846
45917SOL    HW239649   0.375   6.495  13.831
45918SOL     OW39650  11.802  12.090   3.278
45918SOL    HW139651  11.870  12.039   3.322
45918SOL    HW239652  11.725  12.083   3.335
45919SOL     OW39653   4.477  10.987   1.624
45919SOL    HW139654   4.523  10.908   1.653
45919SOL    HW239655   4.384  10.965   1.632
45920SOL     OW39656  12.998  11.263   2.611
45920SOL    HW139657  13.051  11.238   2.686
45920SOL    HW239658  13.053  11.325   2.562
45921SOL     OW39659  10.141   0.760   7.640
45921SOL    HW139660  10.149   0.716   7.724
45921SOL    HW239661  10.064   0.719   7.599
45922SOL     OW39662  11.204   8.349   9.505
45922SOL    HW139663  11.151   8.363   9.583
45922SOL    HW239664  11.293   8.370   9.532
45923SOL     OW39665   5.417  12.699   1.619
45923SOL    HW139666   5.490  12.687   1.558
45923SOL    HW239667   5.448  12.766   1.681
45924SOL     OW39668  11.845  10.115  14.832
45924SOL    HW139669  11.768  10.127  14.777
45924SOL    HW239670  11.883  10.202  14.840
45925SOL     OW39671   9.409   3.424   7.035
45925SOL    HW139672   9.466   3.356   6.998
45925SOL    HW239673   9.467   3.477   7.090
45926SOL     OW39674   3.654   1.512   8.279
45926SOL    HW139675   3.612   1.579   8.226
45926SOL    HW239676   3.633   1.536   8.369
45927SOL     OW39677   7.390   1.549  10.883
45927SOL    HW139678   7.439   1.593  10.952
45927SOL    HW239679   7.350   1.619  10.832
45928SOL     OW39680   4.862   8.595   9.297
45928SOL    HW139681   4.940   8.545   9.278
45928SOL    HW239682   4.815   8.601   9.214
45929SOL     OW39683   0.821  10.148   0.085
45929SOL    HW139684   0.727  10.132   0.071
45929SOL    HW239685   0.860  10.136  14.868
45930SOL     OW39686   4.344  14.160   2.263
45930SOL    HW139687   4.411  14.165   2.331
45930SOL    HW239688   4.373  14.089   2.206
45931SOL     OW39689  12.485  12.576  13.757
45931SOL    HW139690  12.563  12.615  13.718
45931SOL    HW239691  12.424  12.649  13.766
45932SOL     OW39692  10.601   2.360   6.315
45932SOL    HW139693  10.639   2.380   6.230
45932SOL    HW239694  10.664   2.300   6.356
45933SOL     OW39695   5.921   1.895   7.411
45933SOL    HW139696   5.968   1.952   7.350
45933SOL    HW239697   5.831   1.926   7.407
45934SOL     OW39698   2.929  12.418  11.328
45934SOL    HW139699   2.839  12.429  11.359
45934SOL    HW239700   2.967  12.506  11.331
45935SOL     OW39701   6.973   0.583   4.898
45935SOL    HW139702   6.987   0.675   4.875
45935SOL    HW239703   7.060   0.543   4.887
45936SOL     OW39704  12.487   5.291   9.987
45936SOL    HW139705  12.484   5.255  10.076
45936SOL    HW239706  12.430   5.234   9.936
45937SOL     OW39707   7.072  12.447   9.810
45937SOL    HW139708   7.026  12.524   9.841
45937SOL    HW239709   7.005  12.393   9.768
45938SOL     OW39710   4.408  13.958   4.447
45938SOL    HW139711   4.501  13.949   4.467
45938SOL    HW239712   4.377  14.024   4.509
45939SOL     OW39713   0.873   7.775   7.026
45939SOL    HW139714   0.829   7.753   7.108
45939SOL    HW239715   0.935   7.704   7.012
45940SOL     OW39716  10.327  12.330   1.202
45940SOL    HW139717  10.303  12.342   1.294
45940SOL    HW239718  10.278  12.253   1.174
45941SOL     OW39719   1.585   1.785   0.139
45941SOL    HW139720   1.547   1.698   0.122
45941SOL    HW239721   1.581   1.830   0.055
45942SOL     OW39722  12.284  11.323   1.190
45942SOL    HW139723  12.247  11.325   1.101
45942SOL    HW239724  12.221  11.272   1.241
45943SOL     OW39725  11.379   2.394   5.360
45943SOL    HW139726  11.318   2.351   5.420
45943SOL    HW239727  11.445   2.327   5.340
45944SOL     OW39728   2.870   1.135  13.443
45944SOL    HW139729   2.834   1.224  13.442
45944SOL    HW239730   2.865   1.106  13.352
45945SOL     OW39731   0.089  10.415   9.189
45945SOL    HW139732   0.034  10.462   9.251
45945SOL    HW239733   0.067  10.453   9.104
45946SOL     OW39734   1.779   1.141   2.346
45946SOL    HW139735   1.695   1.186   2.351
45946SOL    HW239736   1.829   1.172   2.421
45947SOL     OW39737   2.989   2.721  13.619
45947SOL    HW139738   2.946   2.736  13.703
45947SOL    HW239739   3.038   2.640  13.631
45948SOL     OW39740  12.500   5.663  10.284
45948SOL    HW139741  12.537   5.645  10.197
45948SOL    HW239742  12.521   5.584  10.335
45949SOL     OW39743   9.371  11.389   5.785
45949SOL    HW139744   9.305  11.365   5.850
45949SOL    HW239745   9.454  11.386   5.833
45950SOL     OW39746   3.487  13.046   1.885
45950SOL    HW139747   3.429  13.026   1.958
45950SOL    HW239748   3.433  13.099   1.826
45951SOL     OW39749   8.463   1.262  11.857
45951SOL    HW139750   8.496   1.340  11.812
45951SOL    HW239751   8.460   1.194  11.789
45952SOL     OW39752   7.887   7.757   0.409
45952SOL    HW139753   7.920   7.841   0.441
45952SOL    HW239754   7.937   7.691   0.457
45953SOL     OW39755   4.184   3.953   3.946
45953SOL    HW139756   4.164   3.912   4.031
45953SOL    HW239757   4.099   3.958   3.901
45954SOL     OW39758  11.325   1.357   9.662
45954SOL    HW139759  11.257   1.412   9.702
45954SOL    HW239760  11.335   1.283   9.722
45955SOL     OW39761   5.644   1.463  13.247
45955SOL    HW139762   5.696   1.471  13.167
45955SOL    HW239763   5.618   1.552  13.269
45956SOL     OW39764   7.041   4.645   4.206
45956SOL    HW139765   7.069   4.581   4.271
45956SOL    HW239766   7.118   4.659   4.151
45957SOL     OW39767   5.137  12.467  13.939
45957SOL    HW139768   5.129  12.561  13.959
45957SOL    HW239769   5.169  12.464  13.849
45958SOL     OW39770  14.794   0.453   9.147
45958SOL    HW139771  14.760   0.396   9.216
45958SOL    HW239772  14.719   0.506   9.120
45959SOL     OW39773  14.716   6.460   6.013
45959SOL    HW139774  14.644   6.454   5.950
45959SOL    HW239775  14.795   6.441   5.963
45960SOL     OW39776   7.511   5.269   1.917
45960SOL    HW139777   7.436   5.214   1.894
45960SOL    HW239778   7.548   5.227   1.994
45961SOL     OW39779   0.584  10.234   7.952
45961SOL    HW139780   0.608  10.184   8.030
45961SOL    HW239781   0.662  10.285   7.932
45962SOL     OW39782   8.321   7.249   8.520
45962SOL    HW139783   8.377   7.310   8.569
45962SOL    HW239784   8.287   7.301   8.447
45963SOL     OW39785   3.972   3.025   2.184
45963SOL    HW139786   3.940   2.963   2.118
45963SOL    HW239787   3.971   2.976   2.266
45964SOL     OW39788  13.439   2.925  13.010
45964SOL    HW139789  13.425   3.010  12.969
45964SOL    HW239790  13.370   2.869  12.973
45965SOL     OW39791   9.482  11.119   0.652
45965SOL    HW139792   9.399  11.090   0.691
45965SOL    HW239793   9.476  11.091   0.561
45966SOL     OW39794   6.206   7.388   5.561
45966SOL    HW139795   6.241   7.313   5.513
45966SOL    HW239796   6.130   7.354   5.608
45967SOL     OW39797   4.702   5.165  12.627
45967SOL    HW139798   4.691   5.191  12.719
45967SOL    HW239799   4.634   5.099  12.613
45968SOL     OW39800   7.109   8.783  13.340
45968SOL    HW139801   7.064   8.792  13.424
45968SOL    HW239802   7.172   8.855  13.338
45969SOL     OW39803   1.487   6.620  12.837
45969SOL    HW139804   1.530   6.604  12.754
45969SOL    HW239805   1.548   6.677  12.885
45970SOL     OW39806   9.246  11.669   6.322
45970SOL    HW139807   9.337  11.690   6.341
45970SOL    HW239808   9.224  11.599   6.384
45971SOL     OW39809  13.445   4.397   3.402
45971SOL    HW139810  13.399   4.350   3.332
45971SOL    HW239811  13.462   4.331   3.468
45972SOL     OW39812   7.484   5.419  11.814
45972SOL    HW139813   7.413   5.483  11.815
45972SOL    HW239814   7.527   5.430  11.898
45973SOL     OW39815  13.806   6.930  13.132
45973SOL    HW139816  13.788   6.890  13.217
45973SOL    HW239817  13.829   7.020  13.152
45974SOL     OW39818  13.937   2.224   4.773
45974SOL    HW139819  13.955   2.164   4.845
45974SOL    HW239820  13.844   2.245   4.781
45975SOL     OW39821   2.675   0.549   6.553
45975SOL    HW139822   2.736   0.620   6.574
45975SOL    HW239823   2.597   0.567   6.606
45976SOL     OW39824  10.626  14.180  10.876
45976SOL    HW139825  10.648  14.273  10.875
45976SOL    HW239826  10.680  14.141  10.808
45977SOL     OW39827   6.982   8.363  13.106
45977SOL    HW139828   7.015   8.325  13.187
45977SOL    HW239829   7.031   8.445  13.096
45978SOL     OW39830  12.431  13.136  11.059
45978SOL    HW139831  12.398  13.150  10.971
45978SOL    HW239832  12.524  13.157  11.054
45979SOL     OW39833   1.547  12.047   9.730
45979SOL    HW139834   1.477  11.989   9.762
45979SOL    HW239835   1.627  11.995   9.740
45980SOL     OW39836  10.803   9.549   0.158
45980SOL    HW139837  10.843   9.528   0.073
45980SOL    HW239838  10.847   9.492   0.220
45981SOL     OW39839   9.027   4.364   5.602
45981SOL    HW139840   9.000   4.456   5.606
45981SOL    HW239841   9.090   4.354   5.673
45982SOL     OW39842   9.075   1.693  11.007
45982SOL    HW139843   9.072   1.785  11.034
45982SOL    HW239844   9.020   1.689  10.929
45983SOL     OW39845   2.639  11.158  11.511
45983SOL    HW139846   2.717  11.112  11.482
45983SOL    HW239847   2.643  11.156  11.606
45984SOL     OW39848   3.332  13.871   0.963
45984SOL    HW139849   3.359  13.834   0.879
45984SOL    HW239850   3.267  13.937   0.941
45985SOL     OW39851  14.060   5.096   7.014
45985SOL    HW139852  14.138   5.044   7.030
45985SOL    HW239853  14.014   5.099   7.098
45986SOL     OW39854   6.823  14.165  12.396
45986SOL    HW139855   6.739  14.211  12.404
45986SOL    HW239856   6.798  14.074  12.378
45987SOL     OW39857  13.991   3.465   1.192
45987SOL    HW139858  14.085   3.457   1.211
45987SOL    HW239859  13.987   3.516   1.111
45988SOL     OW39860   7.471   2.964   8.640
45988SOL    HW139861   7.551   3.006   8.609
45988SOL    HW239862   7.408   2.978   8.569
45989SOL     OW39863   0.877   5.609   5.917
45989SOL    HW139864   0.920   5.694   5.907
45989SOL    HW239865   0.919   5.571   5.995
45990SOL     OW39866   1.339   9.828   0.255
45990SOL    HW139867   1.323   9.895   0.321
45990SOL    HW239868   1.364   9.750   0.305
45991SOL     OW39869   4.836  12.305  14.037
45991SOL    HW139870   4.839  12.392  13.998
45991SOL    HW239871   4.743  12.286  14.048
45992SOL     OW39872   4.771   0.528   7.716
45992SOL    HW139873   4.694   0.582   7.736
45992SOL    HW239874   4.797   0.556   7.628
45993SOL     OW39875   2.893   5.666  14.631
45993SOL    HW139876   2.888   5.661  14.727
45993SOL    HW239877   2.973   5.716  14.614
45994SOL     OW39878   7.292   7.809   1.738
45994SOL    HW139879   7.314   7.723   1.701
45994SOL    HW239880   7.223   7.790   1.801
45995SOL     OW39881   0.245   7.534   5.669
45995SOL    HW139882   0.170   7.571   5.622
45995SOL    HW239883   0.210   7.457   5.714
45996SOL     OW39884   7.155   0.259  11.597
45996SOL    HW139885   7.112   0.330  11.645
45996SOL    HW239886   7.135   0.277  11.505
45997SOL     OW39887  12.645   0.262   2.851
45997SOL    HW139888  12.698   0.320   2.906
45997SOL    HW239889  12.656   0.175   2.890
45998SOL     OW39890   8.755   7.236   5.022
45998SOL    HW139891   8.795   7.244   5.109
45998SOL    HW239892   8.813   7.287   4.964
45999SOL     OW39893   2.250   7.343   4.301
45999SOL    HW139894   2.231   7.420   4.355
45999SOL    HW239895   2.318   7.296   4.351
46000SOL     OW39896  10.753  12.716   1.253
46000SOL    HW139897  10.674  12.671   1.224
46000SOL    HW239898  10.777  12.672   1.335
46001SOL     OW39899   4.735  11.127   9.560
46001SOL    HW139900   4.723  11.075   9.481
46001SOL    HW239901   4.752  11.216   9.527
46002SOL     OW39902   5.483   7.710   0.391
46002SOL    HW139903   5.490   7.625   0.434
46002SOL    HW239904   5.423   7.760   0.446
46003SOL     OW39905   9.670  11.685   8.994
46003SOL    HW139906   9.662  11.645   8.907
46003SOL    HW239907   9.708  11.615   9.048
46004SOL     OW39908   7.890  14.650  12.504
46004SOL    HW139909   7.869  14.743  12.503
46004SOL    HW239910   7.980  14.646  12.538
46005SOL     OW39911  12.745   0.248   1.430
46005SOL    HW139912  12.836   0.244   1.402
46005SOL    HW239913  12.717   0.337   1.408
46006SOL     OW39914   6.327   7.990   8.131
46006SOL    HW139915   6.236   8.010   8.151
46006SOL    HW239916   6.354   8.059   8.071
46007SOL     OW39917  12.252   7.176   9.491
46007SOL    HW139918  12.284   7.105   9.547
46007SOL    HW239919  12.305   7.170   9.412
46008SOL     OW39920   9.159  14.777  11.858
46008SOL    HW139921   9.116  14.860  11.835
46008SOL    HW239922   9.252  14.798  11.855
46009SOL     OW39923   5.861   5.163  11.631
46009SOL    HW139924   5.945   5.197  11.602
46009SOL    HW239925   5.855   5.077  11.590
46010SOL     OW39926   9.016  10.692   4.165
46010SOL    HW139927   9.076  10.728   4.231
46010SOL    HW239928   9.067  10.691   4.084
46011SOL     OW39929   5.189  10.894   1.584
46011SOL    HW139930   5.212  10.814   1.631
46011SOL    HW239931   5.109  10.925   1.627
46012SOL     OW39932  13.301  14.353   1.874
46012SOL    HW139933  13.299  14.386   1.964
46012SOL    HW239934  13.394  14.344   1.854
46013SOL     OW39935   2.130   9.382   0.548
46013SOL    HW139936   2.201   9.445   0.559
46013SOL    HW239937   2.072   9.421   0.482
46014SOL     OW39938  13.681   3.797   8.064
46014SOL    HW139939  13.681   3.879   8.015
46014SOL    HW239940  13.599   3.755   8.040
46015SOL     OW39941   5.088  14.340   5.066
46015SOL    HW139942   5.003  14.311   5.034
46015SOL    HW239943   5.111  14.414   5.009
46016SOL     OW39944  13.680  13.462  13.409
46016SOL    HW139945  13.750  13.508  13.363
46016SOL    HW239946  13.698  13.477  13.501
46017SOL     OW39947   3.831  14.033   6.144
46017SOL    HW139948   3.848  13.939   6.147
46017SOL    HW239949   3.918  14.072   6.131
46018SOL     OW39950   4.927   2.243   3.893
46018SOL    HW139951   4.836   2.220   3.911
46018SOL    HW239952   4.952   2.185   3.821
46019SOL     OW39953  13.191   4.529   2.927
46019SOL    HW139954  13.133   4.589   2.879
46019SOL    HW239955  13.241   4.587   2.985
46020SOL     OW39956   0.360   8.880  10.126
46020SOL    HW139957   0.393   8.872  10.215
46020SOL    HW239958   0.320   8.968  10.123
46021SOL     OW39959   3.435   2.256  12.201
46021SOL    HW139960   3.468   2.288  12.285
46021SOL    HW239961   3.345   2.286  12.197
46022SOL     OW39962   5.825   4.910   0.618
46022SOL    HW139963   5.841   4.821   0.587
46022SOL    HW239964   5.896   4.927   0.681
46023SOL     OW39965  13.582  10.181   1.023
46023SOL    HW139966  13.644  10.227   0.966
46023SOL    HW239967  13.621  10.095   1.036
46024SOL     OW39968   1.043   2.733  10.027
46024SOL    HW139969   1.057   2.686  10.109
46024SOL    HW239970   1.004   2.816  10.052
46025SOL     OW39971   2.229   8.692   1.523
46025SOL    HW139972   2.157   8.711   1.463
46025SOL    HW239973   2.288   8.766   1.513
46026SOL     OW39974  11.274   0.980   8.373
46026SOL    HW139975  11.240   0.922   8.305
46026SOL    HW239976  11.273   0.926   8.453
46027SOL     OW39977  10.113   3.119   0.144
46027SOL    HW139978  10.088   3.123   0.052
46027SOL    HW239979  10.192   3.173   0.150
46028SOL     OW39980   2.226   7.538  13.417
46028SOL    HW139981   2.246   7.447  13.395
46028SOL    HW239982   2.131   7.544  13.405
46029SOL     OW39983   5.390   3.974   1.168
46029SOL    HW139984   5.416   3.999   1.079
46029SOL    HW239985   5.468   3.933   1.205
46030SOL     OW39986  11.448  12.516   6.540
46030SOL    HW139987  11.511  12.555   6.601
46030SOL    HW239988  11.370  12.501   6.593
46031SOL     OW39989  11.103   2.470   1.089
46031SOL    HW139990  11.090   2.472   0.994
46031SOL    HW239991  11.019   2.440   1.124
46032SOL     OW39992   8.193  14.453   1.838
46032SOL    HW139993   8.113  14.428   1.884
46032SOL    HW239994   8.260  14.459   1.906
46033SOL     OW39995   8.451   6.216   1.231
46033SOL    HW139996   8.412   6.135   1.201
46033SOL    HW239997   8.540   6.215   1.196
46034SOL     OW39998  14.838   4.564   0.490
46034SOL    HW139999  14.858   4.474   0.517
46034SOL    HW240000  14.798   4.604   0.567
46035SOL     OW40001   9.475  11.014   6.928
46035SOL    HW140002   9.549  11.073   6.912
46035SOL    HW240003   9.442  10.993   6.841
46036SOL     OW40004  11.652   7.700  10.245
46036SOL    HW140005  11.572   7.685  10.195
46036SOL    HW240006  11.692   7.614  10.254
46037SOL     OW40007   3.276   9.178  11.694
46037SOL    HW140008   3.222   9.198  11.618
46037SOL    HW240009   3.214   9.157  11.763
46038SOL     OW40010   5.859   0.232  11.173
46038SOL    HW140011   5.819   0.164  11.119
46038SOL    HW240012   5.853   0.312  11.121
46039SOL     OW40013   8.010   2.762   1.847
46039SOL    HW140014   8.072   2.736   1.779
46039SOL    HW240015   7.991   2.682   1.895
46040SOL     OW40016   9.700  11.503  10.139
46040SOL    HW140017   9.632  11.561  10.105
46040SOL    HW240018   9.652  11.429  10.176
46041SOL     OW40019   6.201   6.628   2.109
46041SOL    HW140020   6.286   6.593   2.137
46041SOL    HW240021   6.188   6.705   2.163
46042SOL     OW40022   6.705  11.821  12.125
46042SOL    HW140023   6.687  11.849  12.036
46042SOL    HW240024   6.692  11.726  12.123
46043SOL     OW40025   3.850   0.960   9.242
46043SOL    HW140026   3.839   0.888   9.304
46043SOL    HW240027   3.769   1.011   9.251
46044SOL     OW40028   9.142   0.627   7.981
46044SOL    HW140029   9.054   0.665   7.985
46044SOL    HW240030   9.162   0.625   7.887
46045SOL     OW40031   2.777   9.455   3.855
46045SOL    HW140032   2.796   9.491   3.769
46045SOL    HW240033   2.772   9.531   3.913
46046SOL     OW40034  14.609  10.714   0.349
46046SOL    HW140035  14.584  10.735   0.439
46046SOL    HW240036  14.528  10.727   0.298
46047SOL     OW40037   8.036  12.583  11.096
46047SOL    HW140038   8.013  12.634  11.018
46047SOL    HW240039   7.954  12.575  11.144
46048SOL     OW40040   6.742   6.480   3.167
46048SOL    HW140041   6.801   6.416   3.206
46048SOL    HW240042   6.707   6.530   3.242
46049SOL     OW40043  11.143   5.402  11.639
46049SOL    HW140044  11.165   5.470  11.575
46049SOL    HW240045  11.067   5.437  11.685
46050SOL     OW40046   4.569   7.714  12.285
46050SOL    HW140047   4.610   7.665  12.356
46050SOL    HW240048   4.640   7.768  12.249
46051SOL     OW40049   1.776   2.641   1.094
46051SOL    HW140050   1.864   2.619   1.125
46051SOL    HW240051   1.784   2.642   0.999
46052SOL     OW40052  14.414  12.314  12.565
46052SOL    HW140053  14.432  12.251  12.496
46052SOL    HW240054  14.481  12.297  12.632
46053SOL     OW40055   2.620   9.749  13.951
46053SOL    HW140056   2.675   9.739  13.873
46053SOL    HW240057   2.680   9.735  14.024
46054SOL     OW40058  11.881  11.670   6.500
46054SOL    HW140059  11.890  11.755   6.458
46054SOL    HW240060  11.886  11.607   6.428
46055SOL     OW40061   1.791   6.370   9.081
46055SOL    HW140062   1.830   6.325   9.006
46055SOL    HW240063   1.828   6.458   9.078
46056SOL     OW40064  13.318  13.099  14.403
46056SOL    HW140065  13.369  13.175  14.429
46056SOL    HW240066  13.227  13.126  14.414
46057SOL     OW40067  12.796   2.250   4.650
46057SOL    HW140068  12.797   2.246   4.746
46057SOL    HW240069  12.860   2.184   4.623
46058SOL     OW40070   8.591   9.784   8.156
46058SOL    HW140071   8.529   9.715   8.181
46058SOL    HW240072   8.645   9.744   8.088
46059SOL     OW40073   8.757   8.317  13.785
46059SOL    HW140074   8.703   8.240  13.768
46059SOL    HW240075   8.814   8.324  13.708
46060SOL     OW40076   8.168   9.341   8.220
46060SOL    HW140077   8.247   9.317   8.172
46060SOL    HW240078   8.109   9.267   8.209
46061SOL     OW40079   1.689   8.066  14.604
46061SOL    HW140080   1.714   8.153  14.635
46061SOL    HW240081   1.594   8.062  14.616
46062SOL     OW40082  14.439   5.127   3.679
46062SOL    HW140083  14.365   5.176   3.714
46062SOL    HW240084  14.505   5.132   3.748
46063SOL     OW40085   0.825  14.208   9.348
46063SOL    HW140086   0.912  14.234   9.378
46063SOL    HW240087   0.790  14.285   9.303
46064SOL     OW40088   4.059   7.233   9.901
46064SOL    HW140089   3.989   7.183   9.943
46064SOL    HW240090   4.130   7.170   9.888
46065SOL     OW40091  10.902   9.412  13.098
46065SOL    HW140092  10.982   9.441  13.055
46065SOL    HW240093  10.858   9.493  13.124
46066SOL     OW40094  12.678   4.188  10.841
46066SOL    HW140095  12.671   4.273  10.885
46066SOL    HW240096  12.587   4.166  10.817
46067SOL     OW40097   2.648   1.306   2.670
46067SOL    HW140098   2.590   1.361   2.618
46067SOL    HW240099   2.737   1.334   2.646
46068SOL     OW40100  14.147   8.753   3.819
46068SOL    HW140101  14.151   8.815   3.892
46068SOL    HW240102  14.186   8.672   3.853
46069SOL     OW40103  12.460   9.618  13.028
46069SOL    HW140104  12.499   9.564  13.097
46069SOL    HW240105  12.533   9.643  12.972
46070SOL     OW40106   8.565   8.978   7.782
46070SOL    HW140107   8.480   8.936   7.773
46070SOL    HW240108   8.615   8.920   7.839
46071SOL     OW40109   7.971  14.743   1.997
46071SOL    HW140110   7.930  14.828   2.013
46071SOL    HW240111   7.976  14.702   2.084
46072SOL     OW40112   6.902  10.356   5.876
46072SOL    HW140113   6.956  10.279   5.856
46072SOL    HW240114   6.961  10.417   5.920
46073SOL     OW40115  14.306   7.465   4.589
46073SOL    HW140116  14.382   7.505   4.630
46073SOL    HW240117  14.283   7.525   4.518
46074SOL     OW40118   2.896   4.540   9.550
46074SOL    HW140119   2.871   4.448   9.547
46074SOL    HW240120   2.945   4.555   9.469
46075SOL     OW40121  14.192   5.965   3.293
46075SOL    HW140122  14.134   5.889   3.295
46075SOL    HW240123  14.266   5.936   3.239
46076SOL     OW40124   1.983   7.476   9.363
46076SOL    HW140125   1.931   7.541   9.410
46076SOL    HW240126   1.939   7.467   9.278
46077SOL     OW40127   3.871  14.825  13.473
46077SOL    HW140128   3.808  14.812  13.402
46077SOL    HW240129   3.831   0.021  13.530
46078SOL     OW40130   7.620   8.720  12.547
46078SOL    HW140131   7.611   8.814  12.529
46078SOL    HW240132   7.531   8.686  12.542
46079SOL     OW40133   9.835   2.932   1.222
46079SOL    HW140134   9.766   2.915   1.287
46079SOL    HW240135   9.808   2.883   1.145
46080SOL     OW40136   3.032   3.690   4.130
46080SOL    HW140137   2.999   3.707   4.218
46080SOL    HW240138   3.041   3.595   4.125
46081SOL     OW40139   6.229   6.858   1.913
46081SOL    HW140140   6.183   6.820   1.987
46081SOL    HW240141   6.290   6.920   1.951
46082SOL     OW40142   9.460   2.078   3.092
46082SOL    HW140143   9.468   2.040   3.179
46082SOL    HW240144   9.544   2.122   3.077
46083SOL     OW40145   7.036  11.180   5.526
46083SOL    HW140146   6.988  11.253   5.565
46083SOL    HW240147   6.967  11.121   5.494
46084SOL     OW40148   2.611   8.532  14.270
46084SOL    HW140149   2.577   8.596  14.333
46084SOL    HW240150   2.562   8.452  14.287
46085SOL     OW40151  14.100   6.037  13.965
46085SOL    HW140152  14.163   5.968  13.990
46085SOL    HW240153  14.018   5.990  13.951
46086SOL     OW40154   9.717  13.350   0.201
46086SOL    HW140155   9.624  13.349   0.221
46086SOL    HW240156   9.759  13.370   0.284
46087SOL     OW40157  11.183   8.915  10.368
46087SOL    HW140158  11.263   8.864  10.379
46087SOL    HW240159  11.125   8.858  10.317
46088SOL     OW40160   0.245   9.369   5.515
46088SOL    HW140161   0.324   9.379   5.567
46088SOL    HW240162   0.255   9.285   5.470
46089SOL     OW40163   8.161  13.066  13.466
46089SOL    HW140164   8.202  13.149  13.491
46089SOL    HW240165   8.081  13.063  13.519
46090SOL     OW40166  13.395   3.554   1.741
46090SOL    HW140167  13.473   3.594   1.779
46090SOL    HW240168  13.411   3.554   1.647
46091SOL     OW40169  11.920   4.668   8.569
46091SOL    HW140170  11.912   4.643   8.661
46091SOL    HW240171  11.857   4.612   8.524
46092SOL     OW40172   5.035   6.115   3.249
46092SOL    HW140173   4.984   6.187   3.287
46092SOL    HW240174   4.977   6.076   3.185
46093SOL     OW40175  10.688  12.951   1.504
46093SOL    HW140176  10.689  12.877   1.566
46093SOL    HW240177  10.779  12.962   1.478
46094SOL     OW40178   0.063   3.261   1.975
46094SOL    HW140179   0.016   3.289   2.054
46094SOL    HW240180   0.004   3.282   1.903
46095SOL     OW40181  11.358   8.627   0.436
46095SOL    HW140182  11.337   8.703   0.490
46095SOL    HW240183  11.297   8.632   0.363
46096SOL     OW40184   7.154   8.670   8.878
46096SOL    HW140185   7.076   8.614   8.882
46096SOL    HW240186   7.193   8.651   8.793
46097SOL     OW40187   2.024   6.634  14.780
46097SOL    HW140188   2.036   6.660  14.689
46097SOL    HW240189   2.092   6.682  14.827
46098SOL     OW40190  14.656  12.800   2.845
46098SOL    HW140191  14.720  12.778   2.913
46098SOL    HW240192  14.574  12.761   2.876
46099SOL     OW40193  10.982  13.858   0.026
46099SOL    HW140194  10.930  13.859   0.106
46099SOL    HW240195  10.924  13.897  14.829
46100SOL     OW40196   1.326  12.503   4.418
46100SOL    HW140197   1.346  12.456   4.499
46100SOL    HW240198   1.375  12.456   4.351
46101SOL     OW40199   4.820   8.346  14.392
46101SOL    HW140200   4.890   8.324  14.330
46101SOL    HW240201   4.848   8.429  14.431
46102SOL     OW40202   7.039   3.770   0.706
46102SOL    HW140203   6.998   3.788   0.622
46102SOL    HW240204   7.126   3.809   0.700
46103SOL     OW40205   6.202   6.090   0.186
46103SOL    HW140206   6.167   6.119   0.102
46103SOL    HW240207   6.176   6.159   0.247
46104SOL     OW40208   2.470   4.920   2.412
46104SOL    HW140209   2.559   4.949   2.433
46104SOL    HW240210   2.481   4.831   2.380
46105SOL     OW40211   9.607   0.914   8.594
46105SOL    HW140212   9.619   0.821   8.613
46105SOL    HW240213   9.528   0.938   8.642
46106SOL     OW40214   1.641   3.184  12.931
46106SOL    HW140215   1.589   3.124  12.878
46106SOL    HW240216   1.651   3.139  13.015
46107SOL     OW40217  11.271   2.495   8.941
46107SOL    HW140218  11.197   2.442   8.911
46107SOL    HW240219  11.231   2.565   8.992
46108SOL     OW40220  12.698  11.758  13.111
46108SOL    HW140221  12.614  11.724  13.081
46108SOL    HW240222  12.760  11.732  13.043
46109SOL     OW40223   2.250   7.757  11.430
46109SOL    HW140224   2.289   7.682  11.475
46109SOL    HW240225   2.166   7.725  11.397
46110SOL     OW40226   0.469   1.152  11.293
46110SOL    HW140227   0.505   1.201  11.219
46110SOL    HW240228   0.531   1.079  11.305
46111SOL     OW40229   4.627   0.539   0.626
46111SOL    HW140230   4.558   0.532   0.692
46111SOL    HW240231   4.614   0.625   0.586
46112SOL     OW40232   8.028   6.419   6.988
46112SOL    HW140233   7.972   6.488   6.952
46112SOL    HW240234   8.045   6.361   6.913
46113SOL     OW40235   3.403   4.255   5.941
46113SOL    HW140236   3.418   4.296   5.856
46113SOL    HW240237   3.416   4.326   6.004
46114SOL     OW40238   7.256  11.302   9.692
46114SOL    HW140239   7.198  11.238   9.649
46114SOL    HW240240   7.217  11.315   9.779
46115SOL     OW40241  14.734   5.161  14.418
46115SOL    HW140242  14.736   5.117  14.503
46115SOL    HW240243  14.658   5.123  14.373
46116SOL     OW40244   4.009  11.637  10.673
46116SOL    HW140245   4.003  11.675  10.761
46116SOL    HW240246   3.923  11.652  10.635
46117SOL     OW40247   4.645   2.182   7.554
46117SOL    HW140248   4.609   2.096   7.532
46117SOL    HW240249   4.735   2.166   7.579
46118SOL     OW40250   1.207   2.981  12.240
46118SOL    HW140251   1.128   2.934  12.212
46118SOL    HW240252   1.184   3.020  12.324
46119SOL     OW40253  13.453   4.385  12.135
46119SOL    HW140254  13.500   4.421  12.060
46119SOL    HW240255  13.521   4.361  12.198
46120SOL     OW40256   4.696   7.536   5.510
46120SOL    HW140257   4.692   7.628   5.483
46120SOL    HW240258   4.612   7.520   5.553
46121SOL     OW40259  12.101   0.025   3.626
46121SOL    HW140260  12.035  14.865   3.562
46121SOL    HW240261  12.116   0.117   3.604
46122SOL     OW40262   2.604  13.098   4.795
46122SOL    HW140263   2.570  13.127   4.710
46122SOL    HW240264   2.638  13.010   4.778
46123SOL     OW40265  13.408  14.343  12.224
46123SOL    HW140266  13.495  14.374  12.251
46123SOL    HW240267  13.423  14.299  12.140
46124SOL     OW40268   1.709   4.458   6.351
46124SOL    HW140269   1.686   4.481   6.261
46124SOL    HW240270   1.637   4.403   6.382
46125SOL     OW40271   5.715   2.190   8.533
46125SOL    HW140272   5.730   2.164   8.624
46125SOL    HW240273   5.631   2.150   8.510
46126SOL     OW40274   2.267   3.269  12.474
46126SOL    HW140275   2.228   3.188  12.443
46126SOL    HW240276   2.323   3.243  12.547
46127SOL     OW40277   3.363   0.163   6.748
46127SOL    HW140278   3.331   0.186   6.661
46127SOL    HW240279   3.446   0.118   6.731
46128SOL     OW40280   5.634   4.351   9.186
46128SOL    HW140281   5.625   4.426   9.127
46128SOL    HW240282   5.566   4.290   9.159
46129SOL     OW40283   1.775  14.584  12.468
46129SOL    HW140284   1.750  14.628  12.549
46129SOL    HW240285   1.700  14.596  12.410
46130SOL     OW40286  13.634   0.821  10.181
46130SOL    HW140287  13.701   0.885  10.156
46130SOL    HW240288  13.556   0.848  10.133
46131SOL     OW40289   7.773   4.260   0.838
46131SOL    HW140290   7.698   4.319   0.830
46131SOL    HW240291   7.750   4.203   0.911
46132SOL     OW40292   4.264  13.252   4.294
46132SOL    HW140293   4.175  13.232   4.266
46132SOL    HW240294   4.320  13.211   4.229
46133SOL     OW40295   3.344   8.436  12.372
46133SOL    HW140296   3.424   8.390  12.395
46133SOL    HW240297   3.337   8.427  12.277
46134SOL     OW40298   4.501   8.931  13.498
46134SOL    HW140299   4.408   8.939  13.478
46134SOL    HW240300   4.519   8.838  13.494
46135SOL     OW40301  10.741  10.277   5.402
46135SOL    HW140302  10.719  10.370   5.402
46135SOL    HW240303  10.671  10.236   5.453
46136SOL     OW40304   5.192  13.123   5.241
46136SOL    HW140305   5.148  13.040   5.259
46136SOL    HW240306   5.285  13.101   5.240
46137SOL     OW40307   2.193   9.154  11.167
46137SOL    HW140308   2.108   9.110  11.177
46137SOL    HW240309   2.192   9.187  11.077
46138SOL     OW40310   3.657  13.079   6.812
46138SOL    HW140311   3.588  13.116   6.757
46138SOL    HW240312   3.687  13.002   6.765
46139SOL     OW40313   3.600  13.739  14.533
46139SOL    HW140314   3.538  13.804  14.565
46139SOL    HW240315   3.679  13.753  14.585
46140SOL     OW40316   8.769   4.347   5.077
46140SOL    HW140317   8.814   4.431   5.071
46140SOL    HW240318   8.740   4.329   4.987
46141SOL     OW40319  12.250  14.858   7.790
46141SOL    HW140320  12.272  14.785   7.847
46141SOL    HW240321  12.195   0.045   7.844
46142SOL     OW40322   7.229   3.804  14.532
46142SOL    HW140323   7.251   3.828  14.622
46142SOL    HW240324   7.149   3.752  14.540
46143SOL     OW40325   1.322  10.202   3.270
46143SOL    HW140326   1.332  10.208   3.175
46143SOL    HW240327   1.372  10.124   3.294
46144SOL     OW40328   8.859  10.578   1.650
46144SOL    HW140329   8.883  10.667   1.676
46144SOL    HW240330   8.779  10.589   1.599
46145SOL     OW40331   4.567   4.636   0.431
46145SOL    HW140332   4.627   4.569   0.397
46145SOL    HW240333   4.606   4.719   0.404
46146SOL     OW40334   4.756   7.550  12.459
46146SOL    HW140335   4.670   7.522  12.491
46146SOL    HW240336   4.787   7.478  12.405
46147SOL     OW40337   4.711  13.241   5.751
46147SOL    HW140338   4.802  13.249   5.723
46147SOL    HW240339   4.660  13.242   5.670
46148SOL     OW40340   6.103  11.561   8.471
46148SOL    HW140341   6.043  11.605   8.531
46148SOL    HW240342   6.118  11.624   8.401
46149SOL     OW40343   4.776   2.978   4.566
46149SOL    HW140344   4.840   2.973   4.494
46149SOL    HW240345   4.817   3.036   4.630
46150SOL     OW40346   5.419  13.887  13.498
46150SOL    HW140347   5.349  13.950  13.513
46150SOL    HW240348   5.375  13.802  13.504
46151SOL     OW40349  11.069  12.702   4.454
46151SOL    HW140350  11.134  12.675   4.518
46151SOL    HW240351  11.101  12.666   4.371
46152SOL     OW40352   4.604   0.105   1.218
46152SOL    HW140353   4.515   0.093   1.251
46152SOL    HW240354   4.630   0.192   1.249
46153SOL     OW40355   3.653  14.538  12.484
46153SOL    HW140356   3.692  14.560  12.399
46153SOL    HW240357   3.724  14.496  12.533
46154SOL     OW40358  14.594  12.919  13.487
46154SOL    HW140359  14.571  12.961  13.404
46154SOL    HW240360  14.539  12.840  13.489
46155SOL     OW40361  12.370  12.359  10.383
46155SOL    HW140362  12.379  12.445  10.342
46155SOL    HW240363  12.301  12.372  10.449
46156SOL     OW40364   1.667  10.838  11.011
46156SOL    HW140365   1.753  10.810  10.979
46156SOL    HW240366   1.662  10.803  11.100
46157SOL     OW40367   9.433   1.973  10.762
46157SOL    HW140368   9.508   2.007  10.714
46157SOL    HW240369   9.358   2.021  10.727
46158SOL     OW40370  10.116   3.506   0.871
46158SOL    HW140371  10.115   3.416   0.902
46158SOL    HW240372  10.156   3.556   0.942
46159SOL     OW40373  14.597   4.934   7.561
46159SOL    HW140374  14.550   4.934   7.644
46159SOL    HW240375  14.596   4.842   7.533
46160SOL     OW40376   1.420  12.455  10.466
46160SOL    HW140377   1.501  12.505  10.468
46160SOL    HW240378   1.443  12.370  10.503
46161SOL     OW40379   9.264  11.429   3.852
46161SOL    HW140380   9.250  11.427   3.757
46161SOL    HW240381   9.291  11.339   3.873
46162SOL     OW40382   5.082   3.311  13.300
46162SOL    HW140383   5.049   3.254  13.369
46162SOL    HW240384   5.075   3.258  13.220
46163SOL     OW40385   4.253   5.270  10.562
46163SOL    HW140386   4.283   5.317  10.484
46163SOL    HW240387   4.319   5.292  10.629
46164SOL     OW40388   7.017  14.684   2.566
46164SOL    HW140389   7.038  14.726   2.482
46164SOL    HW240390   7.102  14.652   2.598
46165SOL     OW40391   8.150   1.945  14.213
46165SOL    HW140392   8.081   1.878  14.204
46165SOL    HW240393   8.163   1.977  14.123
46166SOL     OW40394   6.320   6.846   8.751
46166SOL    HW140395   6.270   6.831   8.671
46166SOL    HW240396   6.408   6.813   8.730
46167SOL     OW40397  13.569  12.484   2.965
46167SOL    HW140398  13.518  12.518   2.891
46167SOL    HW240399  13.618  12.560   2.996
46168SOL     OW40400   7.589   6.863   6.692
46168SOL    HW140401   7.656   6.922   6.727
46168SOL    HW240402   7.626   6.775   6.705
46169SOL     OW40403   1.391   6.535   6.608
46169SOL    HW140404   1.314   6.573   6.650
46169SOL    HW240405   1.462   6.597   6.627
46170SOL     OW40406   2.016  13.226  11.755
46170SOL    HW140407   2.096  13.197  11.711
46170SOL    HW240408   1.982  13.147  11.797
46171SOL     OW40409   0.879   6.621   3.431
46171SOL    HW140410   0.858   6.593   3.342
46171SOL    HW240411   0.845   6.710   3.437
46172SOL     OW40412   9.620   1.585   7.436
46172SOL    HW140413   9.526   1.601   7.446
46172SOL    HW240414   9.643   1.533   7.513
46173SOL     OW40415   3.299   8.911  11.924
46173SOL    HW140416   3.272   8.845  11.987
46173SOL    HW240417   3.371   8.957  11.966
46174SOL     OW40418  10.246  12.457   8.102
46174SOL    HW140419  10.220  12.370   8.130
46174SOL    HW240420  10.275  12.446   8.011
46175SOL     OW40421  10.661   9.258   4.493
46175SOL    HW140422  10.603   9.300   4.430
46175SOL    HW240423  10.645   9.165   4.483
46176SOL     OW40424   5.988  12.521   7.006
46176SOL    HW140425   5.957  12.565   6.927
46176SOL    HW240426   6.063  12.470   6.978
46177SOL     OW40427  13.917   1.680   0.075
46177SOL    HW140428  13.853   1.660   0.144
46177SOL    HW240429  13.911   1.775   0.063
46178SOL     OW40430  13.946   5.212   2.053
46178SOL    HW140431  13.903   5.295   2.069
46178SOL    HW240432  14.028   5.218   2.102
46179SOL     OW40433   2.268   1.547   2.189
46179SOL    HW140434   2.279   1.462   2.147
46179SOL    HW240435   2.249   1.607   2.118
46180SOL     OW40436   5.726  11.150   2.889
46180SOL    HW140437   5.818  11.124   2.893
46180SOL    HW240438   5.686  11.108   2.966
46181SOL     OW40439   8.939  14.354   8.453
46181SOL    HW140440   8.888  14.357   8.372
46181SOL    HW240441   8.892  14.291   8.509
46182SOL     OW40442   7.768   3.136   9.635
46182SOL    HW140443   7.855   3.168   9.612
46182SOL    HW240444   7.724   3.212   9.673
46183SOL     OW40445   9.700  14.267   2.688
46183SOL    HW140446   9.795  14.263   2.683
46183SOL    HW240447   9.682  14.315   2.769
46184SOL     OW40448  13.955   2.388  14.603
46184SOL    HW140449  13.958   2.434  14.687
46184SOL    HW240450  14.033   2.333  14.603
46185SOL     OW40451  12.216   8.701   2.238
46185SOL    HW140452  12.153   8.703   2.310
46185SOL    HW240453  12.164   8.673   2.162
46186SOL     OW40454   2.284   7.926   2.166
46186SOL    HW140455   2.298   7.994   2.101
46186SOL    HW240456   2.209   7.955   2.217
46187SOL     OW40457   0.758  13.062   9.269
46187SOL    HW140458   0.827  13.094   9.326
46187SOL    HW240459   0.800  12.995   9.215
46188SOL     OW40460   0.907  10.474   6.707
46188SOL    HW140461   0.967  10.409   6.744
46188SOL    HW240462   0.823  10.430   6.702
46189SOL     OW40463   1.906   1.975  10.393
46189SOL    HW140464   1.843   1.949  10.461
46189SOL    HW240465   1.852   1.987  10.315
46190SOL     OW40466   5.997   6.502   2.790
46190SOL    HW140467   6.078   6.532   2.750
46190SOL    HW240468   5.960   6.580   2.832
46191SOL     OW40469  14.681  13.149   5.023
46191SOL    HW140470  14.761  13.173   5.067
46191SOL    HW240471  14.632  13.231   5.013
46192SOL     OW40472  11.244  12.328   7.200
46192SOL    HW140473  11.270  12.356   7.288
46192SOL    HW240474  11.324  12.335   7.148
46193SOL     OW40475   0.444  10.702  12.214
46193SOL    HW140476   0.410  10.669  12.131
46193SOL    HW240477   0.454  10.796  12.200
46194SOL     OW40478  14.166  11.543   5.145
46194SOL    HW140479  14.190  11.452   5.167
46194SOL    HW240480  14.099  11.535   5.078
46195SOL     OW40481   2.175   1.997   1.584
46195SOL    HW140482   2.185   1.906   1.557
46195SOL    HW240483   2.261   2.021   1.620
46196SOL     OW40484   5.877   6.252   4.907
46196SOL    HW140485   5.790   6.234   4.872
46196SOL    HW240486   5.861   6.285   4.996
46197SOL     OW40487   5.761  12.073  10.768
46197SOL    HW140488   5.833  12.109  10.820
46197SOL    HW240489   5.782  11.980  10.759
46198SOL     OW40490   0.085   0.906  11.885
46198SOL    HW140491   0.103   0.830  11.941
46198SOL    HW240492   0.171   0.943  11.867
46199SOL     OW40493   4.179  12.303   3.001
46199SOL    HW140494   4.160  12.289   2.909
46199SOL    HW240495   4.269  12.336   3.002
46200SOL     OW40496   9.700  13.341  11.428
46200SOL    HW140497   9.680  13.258  11.386
46200SOL    HW240498   9.709  13.403  11.355
46201SOL     OW40499  11.377  10.774   3.823
46201SOL    HW140500  11.381  10.701   3.761
46201SOL    HW240501  11.341  10.847   3.772
46202SOL     OW40502   3.297  13.192  14.577
46202SOL    HW140503   3.243  13.143  14.515
46202SOL    HW240504   3.347  13.125  14.623
46203SOL     OW40505  14.721   9.136   6.177
46203SOL    HW140506  14.714   9.201   6.107
46203SOL    HW240507  14.804   9.092   6.161
46204SOL     OW40508   0.582  13.244  10.077
46204SOL    HW140509   0.597  13.315  10.140
46204SOL    HW240510   0.512  13.192  10.116
46205SOL     OW40511   7.188   1.264   8.009
46205SOL    HW140512   7.125   1.317   8.058
46205SOL    HW240513   7.140   1.234   7.932
46206SOL     OW40514   5.755  11.450   5.040
46206SOL    HW140515   5.670  11.408   5.039
46206SOL    HW240516   5.736  11.543   5.028
46207SOL     OW40517   0.735  10.240  12.881
46207SOL    HW140518   0.687  10.287  12.950
46207SOL    HW240519   0.802  10.302  12.852
46208SOL     OW40520   7.362   3.313   9.521
46208SOL    HW140521   7.383   3.339   9.611
46208SOL    HW240522   7.425   3.244   9.501
46209SOL     OW40523  10.188   7.947   7.396
46209SOL    HW140524  10.143   8.015   7.446
46209SOL    HW240525  10.172   7.867   7.445
46210SOL     OW40526   2.405   3.169   2.369
46210SOL    HW140527   2.488   3.123   2.366
46210SOL    HW240528   2.351   3.125   2.303
46211SOL     OW40529   1.677  11.018   4.645
46211SOL    HW140530   1.618  11.094   4.643
46211SOL    HW240531   1.757  11.051   4.685
46212SOL     OW40532   5.014   3.817   8.731
46212SOL    HW140533   5.049   3.822   8.643
46212SOL    HW240534   5.038   3.730   8.762
46213SOL     OW40535  13.300  14.086   6.381
46213SOL    HW140536  13.227  14.146   6.396
46213SOL    HW240537  13.282  14.012   6.438
46214SOL     OW40538   5.918   5.595   8.907
46214SOL    HW140539   5.868   5.674   8.890
46214SOL    HW240540   5.886   5.532   8.842
46215SOL     OW40541   8.015  12.501  12.056
46215SOL    HW140542   7.956  12.425  12.059
46215SOL    HW240543   7.993  12.545  11.974
46216SOL     OW40544  11.289  12.553  11.157
46216SOL    HW140545  11.224  12.491  11.124
46216SOL    HW240546  11.280  12.629  11.100
46217SOL     OW40547  13.491   2.335   2.808
46217SOL    HW140548  13.415   2.388   2.830
46217SOL    HW240549  13.473   2.302   2.720
46218SOL     OW40550   7.952  10.316   5.150
46218SOL    HW140551   7.960  10.398   5.198
46218SOL    HW240552   7.911  10.255   5.212
46219SOL     OW40553   9.643   8.709  14.034
46219SOL    HW140554   9.688   8.675  14.111
46219SOL    HW240555   9.714   8.726  13.971
46220SOL     OW40556   2.656   6.767  12.195
46220SOL    HW140557   2.640   6.766  12.100
46220SOL    HW240558   2.708   6.845  12.210
46221SOL     OW40559   7.443   6.043   9.551
46221SOL    HW140560   7.359   5.999   9.541
46221SOL    HW240561   7.508   5.972   9.548
46222SOL     OW40562  14.000   1.678   0.619
46222SOL    HW140563  13.949   1.744   0.572
46222SOL    HW240564  13.999   1.602   0.560
46223SOL     OW40565  14.397   9.884   1.015
46223SOL    HW140566  14.418   9.960   1.069
46223SOL    HW240567  14.480   9.860   0.974
46224SOL     OW40568   7.831   6.315   2.511
46224SOL    HW140569   7.841   6.396   2.560
46224SOL    HW240570   7.750   6.276   2.545
46225SOL     OW40571   0.963   2.061   5.012
46225SOL    HW140572   0.977   2.154   5.027
46225SOL    HW240573   0.868   2.051   5.012
46226SOL     OW40574  14.397  12.157   5.820
46226SOL    HW140575  14.472  12.161   5.760
46226SOL    HW240576  14.321  12.156   5.762
46227SOL     OW40577   7.953   2.856   9.984
46227SOL    HW140578   7.898   2.859   9.905
46227SOL    HW240579   8.043   2.856   9.950
46228SOL     OW40580  12.197  13.078   6.267
46228SOL    HW140581  12.239  13.164   6.275
46228SOL    HW240582  12.157  13.063   6.353
46229SOL     OW40583   2.931   7.813   2.351
46229SOL    HW140584   2.891   7.897   2.374
46229SOL    HW240585   2.921   7.759   2.430
46230SOL     OW40586   3.590  12.748   9.733
46230SOL    HW140587   3.547  12.687   9.793
46230SOL    HW240588   3.653  12.796   9.788
46231SOL     OW40589   9.374  10.546   2.349
46231SOL    HW140590   9.315  10.608   2.305
46231SOL    HW240591   9.444  10.531   2.285
46232SOL     OW40592   1.900   8.592   2.342
46232SOL    HW140593   1.843   8.660   2.306
46232SOL    HW240594   1.914   8.618   2.433
46233SOL     OW40595   1.854   6.501   2.043
46233SOL    HW140596   1.833   6.587   2.008
46233SOL    HW240597   1.852   6.512   2.138
46234SOL     OW40598   5.223   3.575  12.542
46234SOL    HW140599   5.199   3.658  12.502
46234SOL    HW240600   5.151   3.557  12.603
46235SOL     OW40601  10.570   0.311   1.324
46235SOL    HW140602  10.584   0.229   1.373
46235SOL    HW240603  10.638   0.312   1.257
46236SOL     OW40604  10.370  11.500  11.218
46236SOL    HW140605  10.444  11.540  11.264
46236SOL    HW240606  10.302  11.491  11.286
46237SOL     OW40607   7.533  14.068   7.521
46237SOL    HW140608   7.555  13.989   7.570
46237SOL    HW240609   7.572  14.140   7.571
46238SOL     OW40610  11.304  12.638   0.089
46238SOL    HW140611  11.301  12.689   0.170
46238SOL    HW240612  11.369  12.570   0.105
46239SOL     OW40613   5.124   0.361  13.637
46239SOL    HW140614   5.139   0.274  13.601
46239SOL    HW240615   5.029   0.373  13.631
46240SOL     OW40616  12.718  14.231   6.554
46240SOL    HW140617  12.702  14.150   6.505
46240SOL    HW240618  12.813  14.232   6.567
46241SOL     OW40619   5.665  10.269   0.017
46241SOL    HW140620   5.733  10.217   0.060
46241SOL    HW240621   5.684  10.359   0.043
46242SOL     OW40622  12.617   3.776   7.033
46242SOL    HW140623  12.578   3.689   7.026
46242SOL    HW240624  12.603   3.816   6.947
46243SOL     OW40625   7.074   7.416   0.954
46243SOL    HW140626   7.162   7.378   0.965
46243SOL    HW240627   7.059   7.414   0.860
46244SOL     OW40628   5.426   9.907   8.613
46244SOL    HW140629   5.343   9.902   8.565
46244SOL    HW240630   5.419   9.989   8.663
46245SOL     OW40631   6.130   2.978   1.935
46245SOL    HW140632   6.154   3.063   1.898
46245SOL    HW240633   6.086   2.999   2.017
46246SOL     OW40634   7.886   8.798  12.974
46246SOL    HW140635   7.847   8.733  12.916
46246SOL    HW240636   7.864   8.882  12.933
46247SOL     OW40637   4.756  13.779   7.095
46247SOL    HW140638   4.747  13.860   7.146
46247SOL    HW240639   4.834  13.793   7.042
46248SOL     OW40640   3.845   6.135   8.218
46248SOL    HW140641   3.924   6.109   8.265
46248SOL    HW240642   3.798   6.053   8.202
46249SOL     OW40643  10.478   6.317   1.486
46249SOL    HW140644  10.419   6.243   1.473
46249SOL    HW240645  10.559   6.277   1.519
46250SOL     OW40646  14.644   4.494   7.696
46250SOL    HW140647  14.709   4.559   7.722
46250SOL    HW240648  14.561   4.540   7.701
46251SOL     OW40649  10.193   7.640   7.915
46251SOL    HW140650  10.274   7.689   7.926
46251SOL    HW240651  10.130   7.684   7.972
46252SOL     OW40652   0.809   2.415   1.006
46252SOL    HW140653   0.792   2.440   1.097
46252SOL    HW240654   0.870   2.342   1.012
46253SOL     OW40655   5.129   4.257  14.211
46253SOL    HW140656   5.191   4.323  14.242
46253SOL    HW240657   5.152   4.242  14.119
46254SOL     OW40658   3.137   0.973   0.137
46254SOL    HW140659   3.181   0.927   0.065
46254SOL    HW240660   3.093   1.046   0.095
46255SOL     OW40661  11.349  13.692   7.974
46255SOL    HW140662  11.322  13.718   7.886
46255SOL    HW240663  11.433  13.736   7.987
46256SOL     OW40664   0.916   6.172   1.673
46256SOL    HW140665   0.908   6.246   1.612
46256SOL    HW240666   0.918   6.095   1.617
46257SOL     OW40667  14.210   1.246   2.376
46257SOL    HW140668  14.201   1.243   2.471
46257SOL    HW240669  14.302   1.269   2.361
46258SOL     OW40670   7.083  14.248  12.302
46258SOL    HW140671   7.027  14.190  12.354
46258SOL    HW240672   7.142  14.287  12.367
46259SOL     OW40673   0.705  13.221   1.707
46259SOL    HW140674   0.766  13.148   1.694
46259SOL    HW240675   0.653  13.224   1.627
46260SOL     OW40676   2.903   2.857  12.872
46260SOL    HW140677   2.906   2.765  12.846
46260SOL    HW240678   2.812   2.871  12.900
46261SOL     OW40679   0.620   8.704   7.318
46261SOL    HW140680   0.633   8.791   7.355
46261SOL    HW240681   0.526   8.699   7.300
46262SOL     OW40682   5.427   6.191   1.858
46262SOL    HW140683   5.438   6.106   1.815
46262SOL    HW240684   5.341   6.222   1.829
46263SOL     OW40685   8.096  10.704   9.384
46263SOL    HW140686   8.143  10.755   9.451
46263SOL    HW240687   8.152  10.708   9.307
46264SOL     OW40688   7.398   4.909   1.901
46264SOL    HW140689   7.403   4.855   1.822
46264SOL    HW240690   7.490   4.929   1.922
46265SOL     OW40691   8.490   1.034   5.584
46265SOL    HW140692   8.555   1.104   5.586
46265SOL    HW240693   8.452   1.033   5.672
46266SOL     OW40694   8.494  10.057   4.592
46266SOL    HW140695   8.549   9.985   4.562
46266SOL    HW240696   8.413  10.049   4.541
46267SOL     OW40697  10.847  11.100   3.897
46267SOL    HW140698  10.920  11.067   3.950
46267SOL    HW240699  10.789  11.024   3.888
46268SOL     OW40700   6.370  10.486   2.683
46268SOL    HW140701   6.440  10.551   2.690
46268SOL    HW240702   6.390  10.422   2.751
46269SOL     OW40703  10.258   6.185   8.538
46269SOL    HW140704  10.238   6.094   8.515
46269SOL    HW240705  10.232   6.192   8.630
46270SOL     OW40706   1.055   8.588   6.566
46270SOL    HW140707   0.966   8.618   6.546
46270SOL    HW240708   1.053   8.494   6.549
46271SOL     OW40709   0.640   1.132   3.985
46271SOL    HW140710   0.698   1.208   3.996
46271SOL    HW240711   0.696   1.057   4.004
46272SOL     OW40712   1.959   8.672  11.644
46272SOL    HW140713   1.956   8.576  11.636
46272SOL    HW240714   1.883   8.694  11.697
46273SOL     OW40715   7.828  13.112   2.286
46273SOL    HW140716   7.910  13.160   2.286
46273SOL    HW240717   7.844  13.036   2.341
46274SOL     OW40718  10.614  11.250  12.513
46274SOL    HW140719  10.706  11.266  12.490
46274SOL    HW240720  10.616  11.231  12.606
46275SOL     OW40721  13.621  12.690   3.273
46275SOL    HW140722  13.584  12.773   3.305
46275SOL    HW240723  13.563  12.623   3.309
46276SOL     OW40724  11.016   2.106   9.549
46276SOL    HW140725  11.048   2.022   9.517
46276SOL    HW240726  11.047   2.169   9.484
46277SOL     OW40727   6.512   5.285   8.189
46277SOL    HW140728   6.540   5.194   8.179
46277SOL    HW240729   6.417   5.281   8.183
46278SOL     OW40730   1.048   5.846   3.396
46278SOL    HW140731   1.026   5.753   3.391
46278SOL    HW240732   0.964   5.889   3.413
46279SOL     OW40733  12.818  12.171   6.575
46279SOL    HW140734  12.766  12.093   6.558
46279SOL    HW240735  12.784  12.204   6.659
46280SOL     OW40736  10.717   5.004   4.389
46280SOL    HW140737  10.746   4.981   4.478
46280SOL    HW240738  10.797   5.026   4.342
46281SOL     OW40739   8.416   8.978  12.506
46281SOL    HW140740   8.386   9.018  12.587
46281SOL    HW240741   8.341   8.985  12.446
46282SOL     OW40742   4.459   6.135   1.803
46282SOL    HW140743   4.513   6.163   1.730
46282SOL    HW240744   4.449   6.213   1.857
46283SOL     OW40745   4.793   0.349   0.759
46283SOL    HW140746   4.775   0.270   0.709
46283SOL    HW240747   4.750   0.420   0.711
46284SOL     OW40748  12.080   5.264   2.682
46284SOL    HW140749  12.118   5.205   2.748
46284SOL    HW240750  11.996   5.290   2.720
46285SOL     OW40751   3.349   4.839   4.765
46285SOL    HW140752   3.298   4.757   4.767
46285SOL    HW240753   3.426   4.821   4.820
46286SOL     OW40754   1.860   2.921   7.299
46286SOL    HW140755   1.902   2.988   7.353
46286SOL    HW240756   1.897   2.933   7.212
46287SOL     OW40757   8.264  12.674   5.159
46287SOL    HW140758   8.179  12.715   5.173
46287SOL    HW240759   8.325  12.747   5.148
46288SOL     OW40760   0.320  13.220   4.857
46288SOL    HW140761   0.311  13.246   4.766
46288SOL    HW240762   0.262  13.145   4.867
46289SOL     OW40763   2.479   7.520   7.786
46289SOL    HW140764   2.496   7.473   7.704
46289SOL    HW240765   2.384   7.521   7.793
46290SOL     OW40766   4.874   3.631  11.417
46290SOL    HW140767   4.927   3.607  11.341
46290SOL    HW240768   4.832   3.713  11.392
46291SOL     OW40769  14.069   9.275   6.921
46291SOL    HW140770  13.994   9.253   6.977
46291SOL    HW240771  14.074   9.202   6.859
46292SOL     OW40772   0.129   4.771   5.898
46292SOL    HW140773   0.085   4.693   5.932
46292SOL    HW240774   0.073   4.801   5.827
46293SOL     OW40775   6.661  10.079   8.665
46293SOL    HW140776   6.632   9.988   8.660
46293SOL    HW240777   6.644  10.114   8.578
46294SOL     OW40778   8.648   1.982  12.986
46294SOL    HW140779   8.621   2.004  12.897
46294SOL    HW240780   8.704   1.904  12.976
46295SOL     OW40781   5.764   4.224   6.236
46295SOL    HW140782   5.849   4.263   6.217
46295SOL    HW240783   5.782   4.131   6.250
46296SOL     OW40784   5.392  11.000   2.444
46296SOL    HW140785   5.402  10.910   2.414
46296SOL    HW240786   5.301  11.006   2.474
46297SOL     OW40787   3.683   6.062  13.177
46297SOL    HW140788   3.690   6.157  13.168
46297SOL    HW240789   3.678   6.030  13.087
46298SOL     OW40790   1.745  11.022   1.470
46298SOL    HW140791   1.727  10.950   1.529
46298SOL    HW240792   1.692  11.004   1.392
46299SOL     OW40793   1.992  11.783  10.013
46299SOL    HW140794   1.963  11.695   9.988
46299SOL    HW240795   1.983  11.785  10.108
46300SOL     OW40796  14.628   5.300  11.489
46300SOL    HW140797  14.710   5.315  11.535
46300SOL    HW240798  14.650   5.308  11.396
46301SOL     OW40799  10.024   0.225  11.399
46301SOL    HW140800  10.089   0.159  11.422
46301SOL    HW240801  10.075   0.300  11.368
46302SOL     OW40802  10.175   6.257  11.723
46302SOL    HW140803  10.134   6.176  11.753
46302SOL    HW240804  10.207   6.236  11.635
46303SOL     OW40805   4.359  13.021   0.031
46303SOL    HW140806   4.402  13.099   0.064
46303SOL    HW240807   4.288  13.003   0.093
46304SOL     OW40808   4.618   9.428   3.662
46304SOL    HW140809   4.631   9.426   3.757
46304SOL    HW240810   4.528   9.396   3.649
46305SOL     OW40811   9.499   5.220   1.840
46305SOL    HW140812   9.457   5.292   1.792
46305SOL    HW240813   9.571   5.262   1.888
46306SOL     OW40814   2.787  13.261  11.578
46306SOL    HW140815   2.800  13.355  11.566
46306SOL    HW240816   2.875  13.225  11.587
46307SOL     OW40817   1.809   7.211   8.310
46307SOL    HW140818   1.753   7.287   8.321
46307SOL    HW240819   1.856   7.203   8.394
46308SOL     OW40820   7.852   2.034   7.090
46308SOL    HW140821   7.878   1.971   7.023
46308SOL    HW240822   7.757   2.026   7.096
46309SOL     OW40823  12.748   9.723   6.589
46309SOL    HW140824  12.710   9.662   6.527
46309SOL    HW240825  12.676   9.746   6.648
46310SOL     OW40826   0.540   8.671   5.137
46310SOL    HW140827   0.603   8.643   5.071
46310SOL    HW240828   0.579   8.748   5.177
46311SOL     OW40829   4.765   7.791   5.439
46311SOL    HW140830   4.837   7.839   5.478
46311SOL    HW240831   4.749   7.834   5.355
46312SOL     OW40832  14.328   3.362   6.275
46312SOL    HW140833  14.260   3.322   6.220
46312SOL    HW240834  14.298   3.453   6.287
46313SOL     OW40835   5.786   8.103   5.525
46313SOL    HW140836   5.735   8.136   5.599
46313SOL    HW240837   5.752   8.151   5.449
46314SOL     OW40838   2.897   0.977   1.304
46314SOL    HW140839   2.836   0.998   1.376
46314SOL    HW240840   2.842   0.934   1.239
46315SOL     OW40841  12.178   6.621  11.080
46315SOL    HW140842  12.250   6.582  11.031
46315SOL    HW240843  12.159   6.558  11.150
46316SOL     OW40844   5.612  12.757  12.583
46316SOL    HW140845   5.544  12.735  12.647
46316SOL    HW240846   5.659  12.675  12.570
46317SOL     OW40847   5.974   4.663  12.379
46317SOL    HW140848   6.069   4.674  12.384
46317SOL    HW240849   5.957   4.583  12.429
46318SOL     OW40850   0.361   7.242   0.291
46318SOL    HW140851   0.269   7.217   0.301
46318SOL    HW240852   0.364   7.288   0.207
46319SOL     OW40853   8.302   7.267   7.099
46319SOL    HW140854   8.238   7.271   7.028
46319SOL    HW240855   8.326   7.175   7.105
46320SOL     OW40856   7.446   6.593   3.726
46320SOL    HW140857   7.518   6.607   3.666
46320SOL    HW240858   7.463   6.653   3.799
46321SOL     OW40859  12.649  13.802   5.536
46321SOL    HW140860  12.624  13.819   5.445
46321SOL    HW240861  12.636  13.708   5.547
46322SOL     OW40862   3.140   3.862   7.736
46322SOL    HW140863   3.187   3.944   7.750
46322SOL    HW240864   3.094   3.874   7.653
46323SOL     OW40865  10.386  12.757   3.542
46323SOL    HW140866  10.468  12.763   3.591
46323SOL    HW240867  10.321  12.729   3.608
46324SOL     OW40868   1.309   3.883  14.013
46324SOL    HW140869   1.322   3.801  14.060
46324SOL    HW240870   1.392   3.930  14.025
46325SOL     OW40871   6.065   2.187   5.168
46325SOL    HW140872   6.105   2.113   5.214
46325SOL    HW240873   5.971   2.172   5.176
46326SOL     OW40874  12.802   4.907   0.266
46326SOL    HW140875  12.884   4.937   0.305
46326SOL    HW240876  12.786   4.821   0.305
46327SOL     OW40877  10.949   3.384   5.840
46327SOL    HW140878  10.879   3.427   5.890
46327SOL    HW240879  10.937   3.291   5.857
46328SOL     OW40880  10.491   3.082  10.999
46328SOL    HW140881  10.579   3.053  10.973
46328SOL    HW240882  10.474   3.035  11.081
46329SOL     OW40883  13.486   1.343   4.954
46329SOL    HW140884  13.563   1.316   5.005
46329SOL    HW240885  13.416   1.285   4.983
46330SOL     OW40886   9.721   7.171  13.954
46330SOL    HW140887   9.760   7.092  13.919
46330SOL    HW240888   9.793   7.233  13.961
46331SOL     OW40889   3.653   7.466   1.260
46331SOL    HW140890   3.690   7.382   1.233
46331SOL    HW240891   3.640   7.457   1.355
46332SOL     OW40892   5.952   3.766   5.036
46332SOL    HW140893   5.885   3.800   4.977
46332SOL    HW240894   6.024   3.829   5.030
46333SOL     OW40895   1.361   6.034  12.223
46333SOL    HW140896   1.311   6.070  12.296
46333SOL    HW240897   1.434   6.094  12.211
46334SOL     OW40898   4.054   8.557   4.821
46334SOL    HW140899   4.149   8.566   4.807
46334SOL    HW240900   4.026   8.495   4.753
46335SOL     OW40901  11.884   3.312   0.895
46335SOL    HW140902  11.827   3.259   0.839
46335SOL    HW240903  11.934   3.366   0.834
46336SOL     OW40904   0.558   9.093   9.732
46336SOL    HW140905   0.537   9.034   9.659
46336SOL    HW240906   0.644   9.064   9.762
46337SOL     OW40907   5.119   9.791   8.035
46337SOL    HW140908   5.074   9.751   8.109
46337SOL    HW240909   5.166   9.866   8.073
46338SOL     OW40910   9.427  14.602   9.323
46338SOL    HW140911   9.365  14.570   9.257
46338SOL    HW240912   9.373  14.615   9.402
46339SOL     OW40913   3.143  12.778   0.373
46339SOL    HW140914   3.134  12.817   0.459
46339SOL    HW240915   3.208  12.833   0.329
46340SOL     OW40916   7.762   7.815  12.355
46340SOL    HW140917   7.834   7.878  12.365
46340SOL    HW240918   7.708   7.851  12.285
46341SOL     OW40919  10.012  13.090   2.760
46341SOL    HW140920  10.052  13.140   2.690
46341SOL    HW240921  10.055  13.004   2.756
46342SOL     OW40922   0.995   9.330   1.179
46342SOL    HW140923   0.968   9.290   1.262
46342SOL    HW240924   1.089   9.313   1.174
46343SOL     OW40925  13.605  14.795   2.112
46343SOL    HW140926  13.522  14.774   2.070
46343SOL    HW240927  13.585  14.798   2.206
46344SOL     OW40928  11.500   6.237  14.811
46344SOL    HW140929  11.520   6.246   0.035
46344SOL    HW240930  11.445   6.312  14.790
46345SOL     OW40931   4.770  14.259  10.101
46345SOL    HW140932   4.753  14.227  10.190
46345SOL    HW240933   4.845  14.208  10.071
46346SOL     OW40934  10.933  14.503  13.009
46346SOL    HW140935  10.899  14.507  12.919
46346SOL    HW240936  11.015  14.455  13.002
46347SOL     OW40937   6.556   4.248   9.514
46347SOL    HW140938   6.596   4.319   9.564
46347SOL    HW240939   6.470   4.236   9.554
46348SOL     OW40940   3.076   0.701   4.657
46348SOL    HW140941   2.996   0.705   4.605
46348SOL    HW240942   3.046   0.678   4.745
46349SOL     OW40943   9.301   1.333   3.126
46349SOL    HW140944   9.358   1.323   3.050
46349SOL    HW240945   9.244   1.407   3.104
46350SOL     OW40946   9.833   2.165   9.943
46350SOL    HW140947   9.827   2.259   9.928
46350SOL    HW240948   9.742   2.138   9.961
46351SOL     OW40949   6.712   7.666   1.508
46351SOL    HW140950   6.743   7.577   1.492
46351SOL    HW240951   6.630   7.655   1.556
46352SOL     OW40952   1.882   9.697   6.957
46352SOL    HW140953   1.939   9.698   7.034
46352SOL    HW240954   1.793   9.694   6.993
46353SOL     OW40955  10.581  13.543   3.990
46353SOL    HW140956  10.493  13.534   4.025
46353SOL    HW240957  10.637  13.556   4.066
46354SOL     OW40958  10.128   4.672   6.435
46354SOL    HW140959  10.103   4.653   6.344
46354SOL    HW240960  10.051   4.714   6.473
46355SOL     OW40961  14.357   6.284   7.530
46355SOL    HW140962  14.361   6.216   7.462
46355SOL    HW240963  14.326   6.238   7.608
46356SOL     OW40964   7.084   9.949   7.297
46356SOL    HW140965   7.068  10.029   7.248
46356SOL    HW240966   7.017   9.949   7.365
46357SOL     OW40967   5.914  10.227  10.335
46357SOL    HW140968   5.874  10.281  10.267
46357SOL    HW240969   5.843  10.207  10.396
46358SOL     OW40970  13.062  12.637   5.255
46358SOL    HW140971  12.988  12.580   5.233
46358SOL    HW240972  13.104  12.593   5.329
46359SOL     OW40973   0.508   7.867   3.769
46359SOL    HW140974   0.483   7.777   3.747
46359SOL    HW240975   0.456   7.921   3.710
46360SOL     OW40976   3.963  10.114   6.170
46360SOL    HW140977   3.934  10.030   6.133
46360SOL    HW240978   3.903  10.179   6.132
46361SOL     OW40979   1.173  13.546  13.405
46361SOL    HW140980   1.232  13.480  13.369
46361SOL    HW240981   1.086  13.519  13.374
46362SOL     OW40982  14.029   4.789   1.528
46362SOL    HW140983  14.010   4.854   1.461
46362SOL    HW240984  14.107   4.743   1.496
46363SOL     OW40985   7.235  12.242   4.249
46363SOL    HW140986   7.230  12.315   4.311
46363SOL    HW240987   7.258  12.167   4.304
46364SOL     OW40988  10.121   4.931  13.409
46364SOL    HW140989  10.200   4.981  13.429
46364SOL    HW240990  10.097   4.959  13.320
46365SOL     OW40991   2.017   1.593   4.272
46365SOL    HW140992   1.980   1.595   4.183
46365SOL    HW240993   2.108   1.620   4.260
46366SOL     OW40994   3.838   9.093   0.828
46366SOL    HW140995   3.792   9.020   0.870
46366SOL    HW240996   3.862   9.151   0.900
46367SOL     OW40997  14.410   2.968   0.147
46367SOL    HW140998  14.489   2.951   0.198
46367SOL    HW240999  14.417   3.060   0.122
46368SOL     OW41000  13.783   3.076   9.317
46368SOL    HW141001  13.848   3.061   9.386
46368SOL    HW241002  13.784   3.171   9.303
46369SOL     OW41003  10.077  10.332  13.310
46369SOL    HW141004  10.103  10.417  13.345
46369SOL    HW241005  10.143  10.271  13.343
46370SOL     OW41006  14.113  11.889   9.808
46370SOL    HW141007  14.084  11.815   9.861
46370SOL    HW241008  14.090  11.865   9.718
46371SOL     OW41009   8.302   3.145   1.951
46371SOL    HW141010   8.382   3.113   1.911
46371SOL    HW241011   8.231   3.108   1.897
46372SOL     OW41012   1.357   8.749  13.625
46372SOL    HW141013   1.336   8.674  13.569
46372SOL    HW241014   1.325   8.824  13.576
46373SOL     OW41015  12.449   8.295  11.975
46373SOL    HW141016  12.523   8.306  11.915
46373SOL    HW241017  12.479   8.232  12.040
46374SOL     OW41018   1.487   9.577  10.224
46374SOL    HW141019   1.497   9.520  10.148
46374SOL    HW241020   1.477   9.517  10.298
46375SOL     OW41021  12.396   3.954   9.284
46375SOL    HW141022  12.334   3.889   9.318
46375SOL    HW241023  12.344   4.035   9.278
46376SOL     OW41024   3.523  10.902  12.528
46376SOL    HW141025   3.570  10.841  12.586
46376SOL    HW241026   3.537  10.988  12.568
46377SOL     OW41027  11.628  10.463   2.702
46377SOL    HW141028  11.661  10.526   2.766
46377SOL    HW241029  11.540  10.494   2.681
46378SOL     OW41030   5.673  10.322  13.365
46378SOL    HW141031   5.623  10.335  13.285
46378SOL    HW241032   5.631  10.247  13.407
46379SOL     OW41033   6.420   3.317  14.534
46379SOL    HW141034   6.480   3.322  14.608
46379SOL    HW241035   6.473   3.347  14.459
46380SOL     OW41036   1.450   1.107  13.982
46380SOL    HW141037   1.440   1.181  13.923
46380SOL    HW241038   1.435   1.144  14.069
46381SOL     OW41039   9.580   2.857   0.471
46381SOL    HW141040   9.528   2.937   0.473
46381SOL    HW241041   9.592   2.834   0.563
46382SOL     OW41042  12.648  14.814  12.415
46382SOL    HW141043  12.568  14.791  12.462
46382SOL    HW241044  12.716  14.813  12.482
46383SOL     OW41045   2.628   8.404   7.968
46383SOL    HW141046   2.666   8.476   8.019
46383SOL    HW241047   2.547   8.382   8.015
46384SOL     OW41048  13.479   2.611   6.336
46384SOL    HW141049  13.564   2.599   6.377
46384SOL    HW241050  13.428   2.661   6.401
46385SOL     OW41051   3.748   9.415   8.374
46385SOL    HW141052   3.688   9.393   8.303
46385SOL    HW241053   3.780   9.502   8.353
46386SOL     OW41054   9.656  11.285   5.443
46386SOL    HW141055   9.579  11.238   5.411
46386SOL    HW241056   9.723  11.217   5.455
46387SOL     OW41057  12.811   8.379  10.227
46387SOL    HW141058  12.813   8.388  10.323
46387SOL    HW241059  12.863   8.301  10.210
46388SOL     OW41060   0.117   1.919   5.974
46388SOL    HW141061   0.093   1.843   5.920
46388SOL    HW241062   0.130   1.882   6.062
46389SOL     OW41063   9.996   4.979   7.380
46389SOL    HW141064  10.037   4.921   7.445
46389SOL    HW241065   9.934   5.032   7.430
46390SOL     OW41066   0.831  14.651  13.586
46390SOL    HW141067   0.817  14.709  13.511
46390SOL    HW241068   0.852  14.709  13.659
46391SOL     OW41069   4.631  11.626   4.816
46391SOL    HW141070   4.555  11.572   4.835
46391SOL    HW241071   4.686  11.620   4.894
46392SOL     OW41072   1.458   4.942  13.534
46392SOL    HW141073   1.414   5.026  13.542
46392SOL    HW241074   1.481   4.918  13.623
46393SOL     OW41075  14.771   3.365   9.082
46393SOL    HW141076  14.687   3.379   9.124
46393SOL    HW241077  14.821   3.313   9.145
46394SOL     OW41078  11.689   9.629   2.629
46394SOL    HW141079  11.740   9.561   2.674
46394SOL    HW241080  11.742   9.708   2.640
46395SOL     OW41081   0.609  14.467  13.599
46395SOL    HW141082   0.611  14.412  13.521
46395SOL    HW241083   0.694  14.512  13.599
46396SOL     OW41084   2.812   3.644   6.677
46396SOL    HW141085   2.808   3.700   6.754
46396SOL    HW241086   2.905   3.634   6.659
46397SOL     OW41087   1.554   6.046   2.281
46397SOL    HW141088   1.623   6.000   2.329
46397SOL    HW241089   1.475   6.033   2.333
46398SOL     OW41090   7.750   2.845   3.966
46398SOL    HW141091   7.749   2.880   3.877
46398SOL    HW241092   7.661   2.861   3.999
46399SOL     OW41093  12.254   1.904  14.269
46399SOL    HW141094  12.268   1.903  14.175
46399SOL    HW241095  12.277   1.993  14.297
46400SOL     OW41096   7.998   5.812   9.899
46400SOL    HW141097   7.936   5.739   9.901
46400SOL    HW241098   7.955   5.878   9.845
46401SOL     OW41099   2.360  12.957  14.695
46401SOL    HW141100   2.381  12.864  14.704
46401SOL    HW241101   2.429  12.991  14.639
46402SOL     OW41102   4.770  11.062   3.839
46402SOL    HW141103   4.854  11.024   3.867
46402SOL    HW241104   4.792  11.114   3.762
46403SOL     OW41105  11.027  12.199   5.228
46403SOL    HW141106  11.080  12.263   5.276
46403SOL    HW241107  11.080  12.175   5.153
46404SOL     OW41108  13.085   6.145  10.506
46404SOL    HW141109  13.086   6.084  10.581
46404SOL    HW241110  13.047   6.094  10.435
46405SOL     OW41111   6.473  10.245   1.889
46405SOL    HW141112   6.443  10.229   1.979
46405SOL    HW241113   6.392  10.246   1.838
46406SOL     OW41114   2.602   7.701  13.919
46406SOL    HW141115   2.506   7.704  13.920
46406SOL    HW241116   2.625   7.718  13.828
46407SOL     OW41117  10.786   1.286   9.700
46407SOL    HW141118  10.739   1.323   9.625
46407SOL    HW241119  10.791   1.192   9.682
46408SOL     OW41120   2.970  12.941   9.238
46408SOL    HW141121   2.918  12.925   9.159
46408SOL    HW241122   2.975  13.036   9.245
46409SOL     OW41123   9.695   9.619   4.790
46409SOL    HW141124   9.604   9.598   4.769
46409SOL    HW241125   9.699   9.615   4.886
46410SOL     OW41126   5.645  10.977   8.270
46410SOL    HW141127   5.652  10.971   8.175
46410SOL    HW241128   5.729  11.013   8.298
46411SOL     OW41129   0.986  11.385  13.791
46411SOL    HW141130   0.969  11.296  13.820
46411SOL    HW241131   0.921  11.438  13.837
46412SOL     OW41132  14.813   7.781   3.545
46412SOL    HW141133  14.737   7.724   3.556
46412SOL    HW241134  14.781   7.867   3.572
46413SOL     OW41135   6.624  13.916   4.462
46413SOL    HW141136   6.645  14.009   4.468
46413SOL    HW241137   6.574  13.898   4.541
46414SOL     OW41138   7.594  10.434   1.196
46414SOL    HW141139   7.630  10.357   1.154
46414SOL    HW241140   7.570  10.492   1.124
46415SOL     OW41141  13.209  11.829  12.084
46415SOL    HW141142  13.223  11.898  12.149
46415SOL    HW241143  13.289  11.828  12.032
46416SOL     OW41144   9.874   9.656   2.037
46416SOL    HW141145   9.904   9.626   2.122
46416SOL    HW241146   9.942   9.628   1.976
46417SOL     OW41147   5.140  13.635  14.365
46417SOL    HW141148   5.135  13.565  14.431
46417SOL    HW241149   5.219  13.683  14.388
46418SOL     OW41150   5.902   8.440   4.247
46418SOL    HW141151   5.865   8.359   4.212
46418SOL    HW241152   5.893   8.503   4.175
46419SOL     OW41153  10.763  13.741   4.556
46419SOL    HW141154  10.698  13.674   4.578
46419SOL    HW241155  10.794  13.716   4.469
46420SOL     OW41156  12.241   2.772   8.816
46420SOL    HW141157  12.180   2.756   8.888
46420SOL    HW241158  12.186   2.771   8.737
46421SOL     OW41159  14.105   7.163  14.729
46421SOL    HW141160  14.099   7.244  14.678
46421SOL    HW241161  14.198   7.146  14.736
46422SOL     OW41162  10.664   9.471   8.416
46422SOL    HW141163  10.601   9.473   8.489
46422SOL    HW241164  10.735   9.529   8.444
46423SOL     OW41165   1.019   3.181  11.838
46423SOL    HW141166   0.938   3.152  11.881
46423SOL    HW241167   1.032   3.119  11.766
46424SOL     OW41168   3.116   4.386   9.635
46424SOL    HW141169   3.172   4.373   9.559
46424SOL    HW241170   3.158   4.455   9.686
46425SOL     OW41171   4.767   7.097   9.460
46425SOL    HW141172   4.706   7.171   9.463
46425SOL    HW241173   4.725   7.029   9.513
46426SOL     OW41174   7.191   9.240   0.814
46426SOL    HW141175   7.160   9.150   0.815
46426SOL    HW241176   7.250   9.244   0.738
46427SOL     OW41177   5.121   7.582  11.412
46427SOL    HW141178   5.064   7.512  11.444
46427SOL    HW241179   5.067   7.631  11.351
46428SOL     OW41180   9.462   6.239   1.001
46428SOL    HW141181   9.511   6.318   0.981
46428SOL    HW241182   9.522   6.185   1.051
46429SOL     OW41183   8.516   9.415   7.880
46429SOL    HW141184   8.494   9.365   7.801
46429SOL    HW241185   8.442   9.475   7.891
46430SOL     OW41186   3.384   8.246   5.587
46430SOL    HW141187   3.410   8.324   5.537
46430SOL    HW241188   3.293   8.231   5.563
46431SOL     OW41189   2.533   8.998  13.800
46431SOL    HW141190   2.617   8.977  13.841
46431SOL    HW241191   2.472   8.935  13.837
46432SOL     OW41192  14.502   8.529   5.001
46432SOL    HW141193  14.551   8.461   5.047
46432SOL    HW241194  14.480   8.592   5.070
46433SOL     OW41195  13.075  14.546   7.680
46433SOL    HW141196  13.066  14.547   7.775
46433SOL    HW241197  13.026  14.622   7.650
46434SOL     OW41198   0.002  12.962   8.473
46434SOL    HW141199   0.028  12.878   8.435
46434SOL    HW241200   0.053  13.027   8.426
46435SOL     OW41201   9.025   4.197   5.064
46435SOL    HW141202   9.008   4.244   5.146
46435SOL    HW241203   8.947   4.145   5.049
46436SOL     OW41204   5.319   2.056   9.920
46436SOL    HW141205   5.374   2.007   9.859
46436SOL    HW241206   5.358   2.041  10.006
46437SOL     OW41207   4.928  10.258   8.123
46437SOL    HW141208   5.021  10.242   8.138
46437SOL    HW241209   4.893  10.172   8.099
46438SOL     OW41210  12.500   7.434   8.722
46438SOL    HW141211  12.494   7.527   8.699
46438SOL    HW241212  12.428   7.419   8.783
46439SOL     OW41213   7.447   1.031   9.947
46439SOL    HW141214   7.520   0.974   9.921
46439SOL    HW241215   7.442   1.022  10.042
46440SOL     OW41216  14.302   9.142  12.916
46440SOL    HW141217  14.289   9.171  13.007
46440SOL    HW241218  14.253   9.205  12.864
46441SOL     OW41219   8.162  14.542  10.200
46441SOL    HW141220   8.220  14.600  10.150
46441SOL    HW241221   8.092  14.599  10.231
46442SOL     OW41222  14.438   4.636   7.610
46442SOL    HW141223  14.412   4.569   7.546
46442SOL    HW241224  14.368   4.635   7.675
46443SOL     OW41225   8.673  14.199   5.282
46443SOL    HW141226   8.582  14.224   5.298
46443SOL    HW241227   8.701  14.255   5.210
46444SOL     OW41228   6.075  14.570   1.707
46444SOL    HW141229   6.088  14.653   1.753
46444SOL    HW241230   6.127  14.507   1.757
46445SOL     OW41231   5.496  11.108   1.057
46445SOL    HW141232   5.516  11.178   0.994
46445SOL    HW241233   5.510  11.148   1.142
46446SOL     OW41234   1.026   0.695   0.548
46446SOL    HW141235   0.979   0.720   0.468
46446SOL    HW241236   1.027   0.599   0.547
46447SOL     OW41237   1.027   5.397   2.367
46447SOL    HW141238   1.083   5.413   2.443
46447SOL    HW241239   1.046   5.469   2.307
46448SOL     OW41240   5.605   7.560  13.189
46448SOL    HW141241   5.522   7.607  13.180
46448SOL    HW241242   5.657   7.614  13.249
46449SOL     OW41243   1.114   2.389   6.311
46449SOL    HW141244   1.162   2.317   6.269
46449SOL    HW241245   1.106   2.455   6.242
46450SOL     OW41246   8.177  10.512   3.054
46450SOL    HW141247   8.117  10.584   3.038
46450SOL    HW241248   8.177  10.501   3.149
46451SOL     OW41249   2.961   7.438   4.765
46451SOL    HW141250   3.031   7.486   4.809
46451SOL    HW241251   2.900   7.415   4.836
46452SOL     OW41252   2.476   6.283   0.512
46452SOL    HW141253   2.477   6.259   0.420
46452SOL    HW241254   2.547   6.231   0.551
46453SOL     OW41255   5.310  13.068   4.117
46453SOL    HW141256   5.266  13.008   4.178
46453SOL    HW241257   5.403  13.062   4.139
46454SOL     OW41258  10.575   4.493   8.126
46454SOL    HW141259  10.664   4.477   8.094
46454SOL    HW241260  10.565   4.588   8.121
46455SOL     OW41261  12.810   3.384   2.972
46455SOL    HW141262  12.779   3.468   2.940
46455SOL    HW241263  12.814   3.394   3.067
46456SOL     OW41264   3.510   0.713   5.827
46456SOL    HW141265   3.447   0.779   5.796
46456SOL    HW241266   3.537   0.743   5.913
46457SOL     OW41267   5.808  14.166   5.669
46457SOL    HW141268   5.720  14.156   5.704
46457SOL    HW241269   5.803  14.131   5.580
46458SOL     OW41270  12.764   7.424  14.841
46458SOL    HW141271  12.809   7.343  14.864
46458SOL    HW241272  12.833   7.491  14.837
46459SOL     OW41273  10.190   4.973  14.014
46459SOL    HW141274  10.191   5.068  14.014
46459SOL    HW241275  10.254   4.949  14.081
46460SOL     OW41276  13.300   3.057   8.039
46460SOL    HW141277  13.349   3.117   7.983
46460SOL    HW241278  13.209   3.074   8.018
46461SOL     OW41279   1.088  14.620  14.760
46461SOL    HW141280   1.028  14.680  14.714
46461SOL    HW241281   1.099  14.546  14.700
46462SOL     OW41282  14.196  12.032  13.374
46462SOL    HW141283  14.137  12.092  13.419
46462SOL    HW241284  14.182  12.049  13.281
46463SOL     OW41285  14.041   8.921   6.363
46463SOL    HW141286  13.957   8.927   6.408
46463SOL    HW241287  14.068   9.012   6.349
46464SOL     OW41288   3.293   3.820   0.308
46464SOL    HW141289   3.360   3.753   0.315
46464SOL    HW241290   3.295   3.865   0.392
46465SOL     OW41291   6.789   9.656   3.683
46465SOL    HW141292   6.759   9.632   3.595
46465SOL    HW241293   6.884   9.653   3.678
46466SOL     OW41294   5.517   8.481  10.474
46466SOL    HW141295   5.467   8.472  10.393
46466SOL    HW241296   5.598   8.432  10.457
46467SOL     OW41297   2.601   1.061  13.124
46467SOL    HW141298   2.526   1.077  13.066
46467SOL    HW241299   2.563   1.012  13.198
46468SOL     OW41300   3.137   5.112   3.064
46468SOL    HW141301   3.084   5.166   3.123
46468SOL    HW241302   3.191   5.059   3.122
46469SOL     OW41303   7.392   5.417   1.599
46469SOL    HW141304   7.332   5.477   1.642
46469SOL    HW241305   7.477   5.462   1.600
46470SOL     OW41306   2.260   4.948  12.220
46470SOL    HW141307   2.318   4.874  12.238
46470SOL    HW241308   2.314   5.011  12.174
46471SOL     OW41309  11.101  12.366  12.338
46471SOL    HW141310  11.153  12.446  12.341
46471SOL    HW241311  11.047  12.369  12.417
46472SOL     OW41312  10.192  14.696   7.504
46472SOL    HW141313  10.268  14.753   7.492
46472SOL    HW241314  10.227  14.616   7.543
46473SOL     OW41315   1.951   6.645   9.687
46473SOL    HW141316   1.998   6.649   9.604
46473SOL    HW241317   1.897   6.566   9.680
46474SOL     OW41318   6.645   6.318   5.068
46474SOL    HW141319   6.555   6.288   5.080
46474SOL    HW241320   6.699   6.250   5.110
46475SOL     OW41321  14.499   4.732  11.272
46475SOL    HW141322  14.558   4.692  11.209
46475SOL    HW241323  14.501   4.826  11.251
46476SOL     OW41324   8.264   8.117  10.017
46476SOL    HW141325   8.319   8.079   9.949
46476SOL    HW241326   8.325   8.144  10.086
46477SOL     OW41327   6.707  12.748  14.631
46477SOL    HW141328   6.757  12.818  14.589
46477SOL    HW241329   6.772  12.680  14.648
46478SOL     OW41330   3.904   7.000   0.296
46478SOL    HW141331   3.843   7.063   0.334
46478SOL    HW241332   3.849   6.924   0.275
46479SOL     OW41333   2.105   6.455   7.135
46479SOL    HW141334   2.044   6.459   7.210
46479SOL    HW241335   2.188   6.486   7.170
46480SOL     OW41336   1.313  11.076   1.001
46480SOL    HW141337   1.267  11.077   1.085
46480SOL    HW241338   1.309  11.167   0.970
46481SOL     OW41339  13.654   5.475   2.505
46481SOL    HW141340  13.664   5.426   2.587
46481SOL    HW241341  13.566   5.513   2.510
46482SOL     OW41342   0.892  12.889   7.591
46482SOL    HW141343   0.804  12.868   7.623
46482SOL    HW241344   0.945  12.814   7.618
46483SOL     OW41345  12.320   7.488  10.719
46483SOL    HW141346  12.247   7.525  10.767
46483SOL    HW241347  12.394   7.491  10.780
46484SOL     OW41348   4.407   9.072   7.235
46484SOL    HW141349   4.400   9.167   7.237
46484SOL    HW241350   4.338   9.044   7.174
46485SOL     OW41351   2.564  12.880  12.380
46485SOL    HW141352   2.598  12.823  12.449
46485SOL    HW241353   2.482  12.837  12.353
46486SOL     OW41354   1.988   2.427  11.760
46486SOL    HW141355   1.985   2.504  11.817
46486SOL    HW241356   2.081   2.408  11.751
46487SOL     OW41357   6.901   9.962   4.421
46487SOL    HW141358   6.852  10.044   4.409
46487SOL    HW241359   6.922   9.934   4.332
46488SOL     OW41360   6.870   5.470   9.761
46488SOL    HW141361   6.930   5.521   9.815
46488SOL    HW241362   6.875   5.381   9.797
46489SOL     OW41363   1.853   8.986  13.596
46489SOL    HW141364   1.904   8.985  13.514
46489SOL    HW241365   1.771   8.942  13.573
46490SOL     OW41366   3.476   8.094   2.081
46490SOL    HW141367   3.556   8.055   2.115
46490SOL    HW241368   3.502   8.135   1.998
46491SOL     OW41369  10.822   6.338  14.858
46491SOL    HW141370  10.741   6.360   0.035
46491SOL    HW241371  10.843   6.249   0.019
46492SOL     OW41372   1.448  13.825   1.856
46492SOL    HW141373   1.446  13.731   1.840
46492SOL    HW241374   1.430  13.864   1.770
46493SOL     OW41375  10.547   7.749   0.725
46493SOL    HW141376  10.520   7.719   0.638
46493SOL    HW241377  10.511   7.838   0.731
46494SOL     OW41378   6.742   1.428   4.949
46494SOL    HW141379   6.667   1.412   5.006
46494SOL    HW241380   6.750   1.349   4.896
46495SOL     OW41381  11.591   0.884   1.153
46495SOL    HW141382  11.590   0.790   1.136
46495SOL    HW241383  11.514   0.918   1.108
46496SOL     OW41384   2.524   6.105   3.742
46496SOL    HW141385   2.588   6.170   3.714
46496SOL    HW241386   2.564   6.063   3.818
46497SOL     OW41387  12.797  10.085   4.646
46497SOL    HW141388  12.832  10.154   4.702
46497SOL    HW241389  12.778  10.013   4.706
46498SOL     OW41390   9.774   6.833   0.481
46498SOL    HW141391   9.794   6.896   0.551
46498SOL    HW241392   9.836   6.761   0.495
46499SOL     OW41393  11.082  14.072   7.145
46499SOL    HW141394  11.141  14.128   7.095
46499SOL    HW241395  11.097  14.096   7.236
46500SOL     OW41396   3.494  13.053   2.436
46500SOL    HW141397   3.548  13.110   2.381
46500SOL    HW241398   3.546  13.039   2.515
46501SOL     OW41399   1.545   5.243   2.421
46501SOL    HW141400   1.510   5.171   2.472
46501SOL    HW241401   1.535   5.320   2.477
46502SOL     OW41402   8.533   2.863   3.552
46502SOL    HW141403   8.586   2.793   3.513
46502SOL    HW241404   8.596   2.932   3.573
46503SOL     OW41405   6.640   6.076  14.747
46503SOL    HW141406   6.645   6.136  14.672
46503SOL    HW241407   6.630   6.134  14.823
46504SOL     OW41408   6.108  10.757   8.431
46504SOL    HW141409   6.089  10.837   8.382
46504SOL    HW241410   6.040  10.755   8.499
46505SOL     OW41411   8.868   1.410   3.078
46505SOL    HW141412   8.849   1.487   3.025
46505SOL    HW241413   8.899   1.445   3.162
46506SOL     OW41414   1.889   2.461  14.093
46506SOL    HW141415   1.869   2.517  14.017
46506SOL    HW241416   1.817   2.477  14.153
46507SOL     OW41417   3.526   9.914   5.236
46507SOL    HW141418   3.437   9.911   5.270
46507SOL    HW241419   3.515   9.922   5.141
46508SOL     OW41420  11.337   6.028  12.734
46508SOL    HW141421  11.393   6.008  12.809
46508SOL    HW241422  11.281   5.951  12.724
46509SOL     OW41423   9.953   1.986   3.987
46509SOL    HW141424   9.980   1.990   4.079
46509SOL    HW241425   9.943   1.892   3.969
46510SOL     OW41426   1.226   8.242   8.436
46510SOL    HW141427   1.262   8.163   8.396
46510SOL    HW241428   1.275   8.252   8.518
46511SOL     OW41429   2.094   2.279   1.127
46511SOL    HW141430   2.051   2.364   1.117
46511SOL    HW241431   2.054   2.242   1.206
46512SOL     OW41432   1.831  13.213   1.270
46512SOL    HW141433   1.763  13.208   1.337
46512SOL    HW241434   1.803  13.150   1.204
46513SOL     OW41435  12.850  11.216  12.413
46513SOL    HW141436  12.818  11.298  12.452
46513SOL    HW241437  12.920  11.244  12.354
46514SOL     OW41438   2.013  13.134   2.907
46514SOL    HW141439   1.979  13.219   2.879
46514SOL    HW241440   2.107  13.149   2.919
46515SOL     OW41441   7.033   4.170  12.737
46515SOL    HW141442   7.091   4.097  12.760
46515SOL    HW241443   7.061   4.196  12.650
46516SOL     OW41444  11.895   1.525   7.202
46516SOL    HW141445  11.831   1.517   7.272
46516SOL    HW241446  11.977   1.549   7.246
46517SOL     OW41447   2.574  12.409   6.391
46517SOL    HW141448   2.650  12.353   6.376
46517SOL    HW241449   2.538  12.425   6.303
46518SOL     OW41450  12.970   2.402  12.198
46518SOL    HW141451  13.018   2.320  12.206
46518SOL    HW241452  12.981   2.446  12.282
46519SOL     OW41453  12.817   5.047  12.417
46519SOL    HW141454  12.760   4.983  12.374
46519SOL    HW241455  12.893   5.053  12.360
46520SOL     OW41456   2.037  10.045  12.479
46520SOL    HW141457   2.010  10.136  12.469
46520SOL    HW241458   2.007  10.019  12.566
46521SOL     OW41459   5.076  11.532  12.233
46521SOL    HW141460   5.025  11.506  12.156
46521SOL    HW241461   5.014  11.581  12.287
46522SOL     OW41462  11.491   6.700   9.672
46522SOL    HW141463  11.503   6.795   9.667
46522SOL    HW241464  11.502   6.670   9.582
46523SOL     OW41465   9.054   3.046   3.214
46523SOL    HW141466   8.998   3.090   3.278
46523SOL    HW241467   9.004   3.048   3.133
46524SOL     OW41468   8.956   1.783   9.555
46524SOL    HW141469   8.861   1.778   9.571
46524SOL    HW241470   8.963   1.819   9.467
46525SOL     OW41471   8.664   3.817   0.127
46525SOL    HW141472   8.644   3.848   0.039
46525SOL    HW241473   8.714   3.889   0.167
46526SOL     OW41474   5.581  11.666   2.557
46526SOL    HW141475   5.634  11.731   2.603
46526SOL    HW241476   5.630  11.584   2.566
46527SOL     OW41477   4.254   6.909   5.075
46527SOL    HW141478   4.331   6.857   5.052
46527SOL    HW241479   4.243   6.970   5.003
46528SOL     OW41480   6.420  10.392   6.404
46528SOL    HW141481   6.395  10.302   6.382
46528SOL    HW241482   6.376  10.410   6.487
46529SOL     OW41483  12.723   3.622  12.129
46529SOL    HW141484  12.798   3.667  12.166
46529SOL    HW241485  12.650   3.645  12.185
46530SOL     OW41486  13.486   4.830   6.444
46530SOL    HW141487  13.403   4.840   6.492
46530SOL    HW241488  13.499   4.735   6.438
46531SOL     OW41489  10.628  12.743   7.395
46531SOL    HW141490  10.662  12.793   7.469
46531SOL    HW241491  10.533  12.753   7.399
46532SOL     OW41492   8.507  12.536   8.447
46532SOL    HW141493   8.456  12.544   8.528
46532SOL    HW241494   8.455  12.477   8.392
46533SOL     OW41495   2.783   4.792   8.479
46533SOL    HW141496   2.741   4.806   8.394
46533SOL    HW241497   2.795   4.697   8.484
46534SOL     OW41498   1.043  13.833   3.439
46534SOL    HW141499   1.095  13.912   3.453
46534SOL    HW241500   1.069  13.775   3.511
46535SOL     OW41501  14.217   1.913   7.053
46535SOL    HW141502  14.269   1.990   7.075
46535SOL    HW241503  14.162   1.898   7.131
46536SOL     OW41504  13.432   7.782   7.558
46536SOL    HW141505  13.471   7.790   7.471
46536SOL    HW241506  13.491   7.723   7.605
46537SOL     OW41507  13.928   2.230   7.266
46537SOL    HW141508  13.962   2.191   7.347
46537SOL    HW241509  13.864   2.295   7.295
46538SOL     OW41510   4.786   7.377   0.769
46538SOL    HW141511   4.745   7.317   0.832
46538SOL    HW241512   4.751   7.350   0.684
46539SOL     OW41513   7.160   5.887   3.701
46539SOL    HW141514   7.079   5.881   3.752
46539SOL    HW241515   7.142   5.955   3.636
46540SOL     OW41516   0.004  13.593   9.307
46540SOL    HW141517   0.033  13.503   9.326
46540SOL    HW241518  14.782  13.594   9.331
46541SOL     OW41519   8.108   2.958   2.351
46541SOL    HW141520   8.072   2.947   2.262
46541SOL    HW241521   8.036   2.932   2.408
46542SOL     OW41522   9.501   5.091  11.878
46542SOL    HW141523   9.595   5.082  11.891
46542SOL    HW241524   9.463   5.016  11.925
46543SOL     OW41525   1.175   3.473  11.381
46543SOL    HW141526   1.231   3.422  11.439
46543SOL    HW241527   1.087   3.443  11.399
46544SOL     OW41528   1.783  11.163   6.298
46544SOL    HW141529   1.753  11.073   6.283
46544SOL    HW241530   1.877  11.154   6.316
46545SOL     OW41531  11.195   1.975   1.127
46545SOL    HW141532  11.128   2.000   1.190
46545SOL    HW241533  11.247   2.054   1.114
46546SOL     OW41534  11.829   7.104   5.898
46546SOL    HW141535  11.847   7.197   5.885
46546SOL    HW241536  11.733   7.099   5.899
46547SOL     OW41537  11.095  10.928  11.385
46547SOL    HW141538  11.129  10.919  11.474
46547SOL    HW241539  11.004  10.898  11.390
46548SOL     OW41540   4.911   5.062   2.309
46548SOL    HW141541   4.901   5.109   2.392
46548SOL    HW241542   4.982   5.107   2.264
46549SOL     OW41543   3.325   1.347   7.598
46549SOL    HW141544   3.300   1.335   7.507
46549SOL    HW241545   3.258   1.405   7.634
46550SOL     OW41546  11.679   4.350  13.597
46550SOL    HW141547  11.675   4.338  13.692
46550SOL    HW241548  11.614   4.289  13.563
46551SOL     OW41549   9.967   8.836   5.984
46551SOL    HW141550   9.911   8.892   6.039
46551SOL    HW241551   9.973   8.754   6.033
46552SOL     OW41552   1.548   1.088   2.716
46552SOL    HW141553   1.578   1.163   2.768
46552SOL    HW241554   1.512   1.128   2.637
46553SOL     OW41555   2.442  12.319   4.890
46553SOL    HW141556   2.448  12.364   4.806
46553SOL    HW241557   2.414  12.230   4.868
46554SOL     OW41558  12.254   5.740   7.626
46554SOL    HW141559  12.341   5.741   7.585
46554SOL    HW241560  12.198   5.694   7.563
46555SOL     OW41561   3.404  10.056   2.088
46555SOL    HW141562   3.490  10.049   2.130
46555SOL    HW241563   3.383   9.966   2.064
46556SOL     OW41564   8.654   2.670   7.318
46556SOL    HW141565   8.718   2.601   7.300
46556SOL    HW241566   8.619   2.694   7.233
46557SOL     OW41567  10.922  12.567   8.970
46557SOL    HW141568  10.993  12.578   9.034
46557SOL    HW241569  10.842  12.586   9.019
46558SOL     OW41570   7.235   5.966   8.521
46558SOL    HW141571   7.211   6.029   8.588
46558SOL    HW241572   7.265   6.019   8.448
46559SOL     OW41573   6.604   7.792   8.894
46559SOL    HW141574   6.658   7.770   8.969
46559SOL    HW241575   6.515   7.799   8.930
46560SOL     OW41576  10.276  14.858   1.267
46560SOL    HW141577  10.189   0.003   1.229
46560SOL    HW241578  10.297   0.070   1.312
46561SOL     OW41579  11.046   9.192   3.883
46561SOL    HW141580  11.111   9.202   3.813
46561SOL    HW241581  11.053   9.101   3.909
46562SOL     OW41582   1.654  11.652   1.748
46562SOL    HW141583   1.579  11.594   1.765
46562SOL    HW241584   1.721  11.594   1.712
46563SOL     OW41585  12.071  14.454   0.593
46563SOL    HW141586  12.110  14.504   0.521
46563SOL    HW241587  12.035  14.376   0.552
46564SOL     OW41588  12.086   0.269  11.738
46564SOL    HW141589  12.180   0.256  11.750
46564SOL    HW241590  12.064   0.214  11.663
46565SOL     OW41591   6.258   2.480  11.581
46565SOL    HW141592   6.219   2.394  11.563
46565SOL    HW241593   6.254   2.488  11.676
46566SOL     OW41594  10.577  11.264   7.470
46566SOL    HW141595  10.621  11.347   7.490
46566SOL    HW241596  10.484  11.285   7.473
46567SOL     OW41597   4.426   0.357   2.254
46567SOL    HW141598   4.447   0.330   2.344
46567SOL    HW241599   4.335   0.330   2.242
46568SOL     OW41600   8.518  11.798   7.357
46568SOL    HW141601   8.525  11.737   7.284
46568SOL    HW241602   8.551  11.881   7.322
46569SOL     OW41603  14.039   5.185   4.449
46569SOL    HW141604  13.996   5.270   4.438
46569SOL    HW241605  13.967   5.124   4.462
46570SOL     OW41606   7.951   0.501  10.190
46570SOL    HW141607   8.032   0.552  10.197
46570SOL    HW241608   7.883   0.567  10.175
46571SOL     OW41609   7.186  13.094  13.096
46571SOL    HW141610   7.260  13.154  13.107
46571SOL    HW241611   7.117  13.130  13.152
46572SOL     OW41612   6.035   1.443   4.598
46572SOL    HW141613   6.005   1.493   4.674
46572SOL    HW241614   6.059   1.510   4.534
46573SOL     OW41615   4.826   1.694  11.350
46573SOL    HW141616   4.796   1.607  11.326
46573SOL    HW241617   4.772   1.754  11.298
46574SOL     OW41618   5.720   4.224   9.872
46574SOL    HW141619   5.752   4.303   9.916
46574SOL    HW241620   5.624   4.233   9.875
46575SOL     OW41621   5.823   9.706   1.723
46575SOL    HW141622   5.728   9.713   1.730
46575SOL    HW241623   5.845   9.750   1.641
46576SOL     OW41624   7.003   7.213   3.810
46576SOL    HW141625   7.073   7.150   3.791
46576SOL    HW241626   6.952   7.172   3.879
46577SOL     OW41627  10.442   7.369   7.504
46577SOL    HW141628  10.372   7.405   7.450
46577SOL    HW241629  10.397   7.317   7.570
46578SOL     OW41630  12.828   3.566  12.575
46578SOL    HW141631  12.875   3.489  12.609
46578SOL    HW241632  12.747   3.569  12.626
46579SOL     OW41633   3.125   1.299  14.586
46579SOL    HW141634   3.050   1.248  14.555
46579SOL    HW241635   3.158   1.343  14.508
46580SOL     OW41636  11.618   9.346  12.340
46580SOL    HW141637  11.553   9.299  12.393
46580SOL    HW241638  11.697   9.293  12.346
46581SOL     OW41639   8.204   8.077  14.184
46581SOL    HW141640   8.296   8.064  14.205
46581SOL    HW241641   8.201   8.163  14.141
46582SOL     OW41642   3.395  14.316   0.105
46582SOL    HW141643   3.304  14.342   0.092
46582SOL    HW241644   3.437  14.395   0.139
46583SOL     OW41645   2.376   4.379   4.666
46583SOL    HW141646   2.348   4.382   4.574
46583SOL    HW241647   2.330   4.304   4.703
46584SOL     OW41648   3.968   3.936  10.286
46584SOL    HW141649   4.005   4.016  10.322
46584SOL    HW241650   3.877   3.936  10.315
46585SOL     OW41651   2.347  14.683  13.881
46585SOL    HW141652   2.344  14.758  13.822
46585SOL    HW241653   2.291  14.706  13.954
46586SOL     OW41654   2.863   2.704   0.978
46586SOL    HW141655   2.880   2.683   0.887
46586SOL    HW241656   2.948   2.699   1.020
46587SOL     OW41657   9.417   3.999   1.715
46587SOL    HW141658   9.355   4.013   1.642
46587SOL    HW241659   9.362   3.967   1.786
46588SOL     OW41660   6.643   1.070  11.023
46588SOL    HW141661   6.599   1.011  11.086
46588SOL    HW241662   6.572   1.118  10.982
46589SOL     OW41663   1.873   0.317   8.934
46589SOL    HW141664   1.793   0.288   8.979
46589SOL    HW241665   1.885   0.407   8.962
46590SOL     OW41666   2.615  11.618   5.522
46590SOL    HW141667   2.640  11.693   5.577
46590SOL    HW241668   2.633  11.647   5.432
46591SOL     OW41669   3.754   6.764  10.441
46591SOL    HW141670   3.676   6.817  10.428
46591SOL    HW241671   3.825   6.818  10.407
46592SOL     OW41672   9.622   9.737   6.261
46592SOL    HW141673   9.548   9.787   6.296
46592SOL    HW241674   9.700   9.782   6.296
46593SOL     OW41675   2.507   4.318   1.604
46593SOL    HW141676   2.493   4.404   1.646
46593SOL    HW241677   2.446   4.260   1.649
46594SOL     OW41678   7.546   0.672   1.117
46594SOL    HW141679   7.512   0.733   1.182
46594SOL    HW241680   7.640   0.667   1.136
46595SOL     OW41681   6.797   2.083  11.543
46595SOL    HW141682   6.775   1.990  11.536
46595SOL    HW241683   6.714   2.128  11.528
46596SOL     OW41684   6.531   3.830   0.826
46596SOL    HW141685   6.610   3.800   0.782
46596SOL    HW241686   6.508   3.760   0.887
46597SOL     OW41687  12.038   7.285   7.796
46597SOL    HW141688  12.050   7.197   7.761
46597SOL    HW241689  12.091   7.342   7.740
46598SOL     OW41690   6.819  12.478   3.051
46598SOL    HW141691   6.764  12.557   3.049
46598SOL    HW241692   6.779  12.420   2.987
46599SOL     OW41693   5.009   7.326   4.870
46599SOL    HW141694   5.037   7.290   4.786
46599SOL    HW241695   5.059   7.408   4.878
46600SOL     OW41696   4.041  10.175  10.387
46600SOL    HW141697   4.078  10.237  10.450
46600SOL    HW241698   4.048  10.219  10.303
46601SOL     OW41699   3.135   7.341   3.402
46601SOL    HW141700   3.149   7.435   3.403
46601SOL    HW241701   3.114   7.321   3.311
46602SOL     OW41702   5.270   9.471   0.248
46602SOL    HW141703   5.298   9.525   0.322
46602SOL    HW241704   5.180   9.499   0.231
46603SOL     OW41705   0.708   2.118  10.650
46603SOL    HW141706   0.731   2.039  10.601
46603SOL    HW241707   0.767   2.117  10.725
46604SOL     OW41708   4.332  12.003   3.929
46604SOL    HW141709   4.419  11.975   3.958
46604SOL    HW241710   4.287  11.922   3.908
46605SOL     OW41711   9.224   9.050  13.319
46605SOL    HW141712   9.307   9.037  13.273
46605SOL    HW241713   9.222   9.144  13.339
46606SOL     OW41714   1.989   7.594   8.495
46606SOL    HW141715   1.997   7.651   8.571
46606SOL    HW241716   2.079   7.566   8.477
46607SOL     OW41717  12.321   6.608  13.393
46607SOL    HW141718  12.242   6.661  13.377
46607SOL    HW241719  12.302   6.561  13.474
46608SOL     OW41720   4.467   5.294  13.700
46608SOL    HW141721   4.459   5.387  13.677
46608SOL    HW241722   4.532   5.292  13.770
46609SOL     OW41723   2.584   1.525   7.847
46609SOL    HW141724   2.644   1.590   7.810
46609SOL    HW241725   2.544   1.569   7.921
46610SOL     OW41726  12.202   4.793   2.063
46610SOL    HW141727  12.128   4.826   2.113
46610SOL    HW241728  12.196   4.836   1.978
46611SOL     OW41729   3.961  14.334   3.037
46611SOL    HW141730   3.886  14.292   2.995
46611SOL    HW241731   3.976  14.282   3.116
46612SOL     OW41732   1.622  11.223   3.775
46612SOL    HW141733   1.689  11.202   3.840
46612SOL    HW241734   1.568  11.144   3.770
46613SOL     OW41735   8.635   6.425  13.305
46613SOL    HW141736   8.560   6.391  13.354
46613SOL    HW241737   8.702   6.440  13.371
46614SOL     OW41738  12.434   5.364   2.486
46614SOL    HW141739  12.452   5.378   2.393
46614SOL    HW241740  12.340   5.347   2.490
46615SOL     OW41741   4.860   9.782   8.889
46615SOL    HW141742   4.921   9.843   8.848
46615SOL    HW241743   4.774   9.813   8.861
46616SOL     OW41744   2.107   6.011  10.427
46616SOL    HW141745   2.200   6.011  10.408
46616SOL    HW241746   2.079   6.102  10.413
46617SOL     OW41747   1.814   7.827   2.989
46617SOL    HW141748   1.846   7.737   2.991
46617SOL    HW241749   1.759   7.831   2.910
46618SOL     OW41750   5.773  10.788   8.461
46618SOL    HW141751   5.799  10.710   8.412
46618SOL    HW241752   5.707  10.830   8.405
46619SOL     OW41753  11.281   1.615   7.182
46619SOL    HW141754  11.366   1.642   7.147
46619SOL    HW241755  11.223   1.615   7.106
46620SOL     OW41756   3.886  12.725   5.349
46620SOL    HW141757   3.976  12.693   5.348
46620SOL    HW241758   3.835  12.655   5.307
46621SOL     OW41759   9.401   1.321   4.812
46621SOL    HW141760   9.396   1.400   4.866
46621SOL    HW241761   9.390   1.249   4.873
46622SOL     OW41762  11.028   6.482   5.981
46622SOL    HW141763  11.116   6.482   6.018
46622SOL    HW241764  11.032   6.547   5.910
46623SOL     OW41765  11.853   5.638  12.365
46623SOL    HW141766  11.862   5.630  12.270
46623SOL    HW241767  11.940   5.667  12.395
46624SOL     OW41768   7.490  11.767  12.914
46624SOL    HW141769   7.514  11.855  12.884
46624SOL    HW241770   7.506  11.710  12.839
46625SOL     OW41771  11.941   1.535   3.493
46625SOL    HW141772  11.892   1.486   3.427
46625SOL    HW241773  11.877   1.597   3.530
46626SOL     OW41774   1.026   8.057   3.769
46626SOL    HW141775   1.103   8.018   3.810
46626SOL    HW241776   1.058   8.136   3.726
46627SOL     OW41777  11.635   3.592   7.043
46627SOL    HW141778  11.708   3.647   7.072
46627SOL    HW241779  11.653   3.507   7.084
46628SOL     OW41780   4.913   8.703   2.375
46628SOL    HW141781   4.900   8.647   2.298
46628SOL    HW241782   4.832   8.693   2.425
46629SOL     OW41783  11.457   9.467  14.404
46629SOL    HW141784  11.543   9.506  14.387
46629SOL    HW241785  11.405   9.538  14.442
46630SOL     OW41786   2.165   0.887   4.370
46630SOL    HW141787   2.196   0.899   4.280
46630SOL    HW241788   2.072   0.910   4.366
46631SOL     OW41789  13.455  11.731   1.052
46631SOL    HW141790  13.443  11.649   1.100
46631SOL    HW241791  13.370  11.749   1.012
46632SOL     OW41792  12.666   4.545   5.203
46632SOL    HW141793  12.698   4.455   5.194
46632SOL    HW241794  12.588   4.538   5.258
46633SOL     OW41795   3.773  14.134  12.347
46633SOL    HW141796   3.742  14.204  12.290
46633SOL    HW241797   3.802  14.179  12.427
46634SOL     OW41798   7.864   2.311   2.107
46634SOL    HW141799   7.835   2.258   2.032
46634SOL    HW241800   7.912   2.249   2.162
46635SOL     OW41801   0.105   7.395  14.383
46635SOL    HW141802   0.145   7.386  14.469
46635SOL    HW241803   0.168   7.445  14.331
46636SOL     OW41804  13.890  13.681   9.118
46636SOL    HW141805  13.840  13.749   9.072
46636SOL    HW241806  13.952  13.648   9.053
46637SOL     OW41807   1.082   5.242   6.567
46637SOL    HW141808   1.146   5.219   6.500
46637SOL    HW241809   1.037   5.160   6.586
46638SOL     OW41810  10.596   2.449   8.453
46638SOL    HW141811  10.606   2.415   8.542
46638SOL    HW241812  10.526   2.513   8.460
46639SOL     OW41813   1.090   3.085   4.770
46639SOL    HW141814   1.183   3.103   4.784
46639SOL    HW241815   1.046   3.168   4.788
46640SOL     OW41816  12.274  11.608   9.604
46640SOL    HW141817  12.234  11.532   9.562
46640SOL    HW241818  12.347  11.632   9.546
46641SOL     OW41819   3.086   8.026   1.680
46641SOL    HW141820   3.152   8.084   1.716
46641SOL    HW241821   3.081   7.952   1.741
46642SOL     OW41822   1.794  13.504   0.331
46642SOL    HW141823   1.861  13.504   0.400
46642SOL    HW241824   1.765  13.413   0.326
46643SOL     OW41825   5.994   4.182   9.441
46643SOL    HW141826   5.960   4.144   9.522
46643SOL    HW241827   5.943   4.140   9.372
46644SOL     OW41828  13.350   8.648   3.539
46644SOL    HW141829  13.400   8.581   3.585
46644SOL    HW241830  13.404   8.727   3.545
46645SOL     OW41831   7.750   1.711  12.500
46645SOL    HW141832   7.753   1.807  12.507
46645SOL    HW241833   7.659   1.689  12.521
46646SOL     OW41834   4.036   8.781   2.318
46646SOL    HW141835   4.038   8.869   2.356
46646SOL    HW241836   4.127   8.756   2.309
46647SOL     OW41837   0.373  10.188   8.986
46647SOL    HW141838   0.369  10.101   9.025
46647SOL    HW241839   0.329  10.178   8.901
46648SOL     OW41840  14.228   1.461   1.232
46648SOL    HW141841  14.239   1.551   1.262
46648SOL    HW241842  14.190   1.469   1.145
46649SOL     OW41843   5.889   9.940   9.786
46649SOL    HW141844   5.954  10.003   9.817
46649SOL    HW241845   5.925   9.909   9.702
46650SOL     OW41846  11.746   5.410   2.235
46650SOL    HW141847  11.692   5.377   2.163
46650SOL    HW241848  11.836   5.388   2.210
46651SOL     OW41849   4.758  10.657  11.870
46651SOL    HW141850   4.663  10.663  11.862
46651SOL    HW241851   4.784  10.735  11.918
46652SOL     OW41852   4.240   1.023   8.202
46652SOL    HW141853   4.183   0.993   8.132
46652SOL    HW241854   4.183   1.073   8.260
46653SOL     OW41855  13.412   8.797   3.304
46653SOL    HW141856  13.355   8.870   3.282
46653SOL    HW241857  13.357   8.719   3.290
46654SOL     OW41858   0.988  14.334  11.394
46654SOL    HW141859   1.013  14.425  11.409
46654SOL    HW241860   0.892  14.334  11.396
46655SOL     OW41861  13.563   0.960   1.671
46655SOL    HW141862  13.575   0.978   1.765
46655SOL    HW241863  13.611   1.030   1.627
46656SOL     OW41864  10.027   7.047  10.753
46656SOL    HW141865  10.113   7.006  10.757
46656SOL    HW241866   9.966   6.981  10.786
46657SOL     OW41867   7.174  11.698   8.655
46657SOL    HW141868   7.142  11.610   8.675
46657SOL    HW241869   7.232  11.719   8.728
46658SOL     OW41870  13.354   9.604   2.481
46658SOL    HW141871  13.408   9.557   2.418
46658SOL    HW241872  13.415   9.627   2.552
46659SOL     OW41873   7.131   4.480  10.398
46659SOL    HW141874   7.208   4.452  10.348
46659SOL    HW241875   7.119   4.411  10.464
46660SOL     OW41876  10.250   1.277   2.458
46660SOL    HW141877  10.329   1.223   2.454
46660SOL    HW241878  10.270   1.344   2.523
46661SOL     OW41879   7.404   2.271   1.683
46661SOL    HW141880   7.340   2.320   1.631
46661SOL    HW241881   7.418   2.324   1.761
46662SOL     OW41882  11.186   8.637   7.190
46662SOL    HW141883  11.194   8.543   7.179
46662SOL    HW241884  11.093   8.652   7.206
46663SOL     OW41885  12.080   0.771   8.271
46663SOL    HW141886  11.988   0.752   8.255
46663SOL    HW241887  12.121   0.767   8.185
46664SOL     OW41888   8.241  13.686  12.738
46664SOL    HW141889   8.305  13.697  12.808
46664SOL    HW241890   8.226  13.775  12.706
46665SOL     OW41891  10.919   2.065   1.880
46665SOL    HW141892  10.872   2.068   1.963
46665SOL    HW241893  10.868   2.119   1.821
46666SOL     OW41894   4.482   3.297   1.168
46666SOL    HW141895   4.473   3.344   1.251
46666SOL    HW241896   4.517   3.362   1.107
46667SOL     OW41897  11.885   3.987  11.200
46667SOL    HW141898  11.836   4.053  11.151
46667SOL    HW241899  11.965   4.032  11.228
46668SOL     OW41900   2.230   7.855  13.616
46668SOL    HW141901   2.293   7.845  13.688
46668SOL    HW241902   2.268   7.802  13.545
46669SOL     OW41903   4.205   8.122   9.940
46669SOL    HW141904   4.211   8.189   9.872
46669SOL    HW241905   4.181   8.170  10.019
46670SOL     OW41906   7.301   0.202   9.148
46670SOL    HW141907   7.231   0.137   9.146
46670SOL    HW241908   7.343   0.194   9.062
46671SOL     OW41909   5.942   6.315  10.208
46671SOL    HW141910   5.928   6.255  10.282
46671SOL    HW241911   5.860   6.365  10.203
46672SOL     OW41912   4.620   1.747   6.688
46672SOL    HW141913   4.606   1.827   6.638
46672SOL    HW241914   4.553   1.749   6.756
46673SOL     OW41915   2.979   1.725   9.641
46673SOL    HW141916   3.013   1.645   9.682
46673SOL    HW241917   2.902   1.748   9.693
46674SOL     OW41918   5.485   2.971   7.090
46674SOL    HW141919   5.554   2.909   7.064
46674SOL    HW241920   5.410   2.947   7.036
46675SOL     OW41921   4.536   0.366  14.585
46675SOL    HW141922   4.559   0.456  14.608
46675SOL    HW241923   4.585   0.312  14.647
46676SOL     OW41924   3.114   3.831   2.649
46676SOL    HW141925   3.130   3.888   2.574
46676SOL    HW241926   3.201   3.806   2.679
46677SOL     OW41927  11.245  13.082  14.497
46677SOL    HW141928  11.268  13.145  14.428
46677SOL    HW241929  11.226  13.136  14.574
46678SOL     OW41930   9.256   3.268   7.197
46678SOL    HW141931   9.320   3.215   7.244
46678SOL    HW241932   9.308   3.330   7.147
46679SOL     OW41933   8.999  10.521   0.178
46679SOL    HW141934   9.058  10.493   0.108
46679SOL    HW241935   8.924  10.463   0.171
46680SOL     OW41936   3.656  13.336   7.482
46680SOL    HW141937   3.705  13.379   7.552
46680SOL    HW241938   3.564  13.359   7.501
46681SOL     OW41939   3.387   2.920   8.289
46681SOL    HW141940   3.473   2.958   8.306
46681SOL    HW241941   3.401   2.859   8.216
46682SOL     OW41942  14.227   4.115   8.699
46682SOL    HW141943  14.288   4.095   8.628
46682SOL    HW241944  14.269   4.187   8.747
46683SOL     OW41945  13.929   0.838  14.439
46683SOL    HW141946  13.906   0.767  14.379
46683SOL    HW241947  13.958   0.793  14.519
46684SOL     OW41948   8.908   8.014   9.223
46684SOL    HW141949   8.904   7.967   9.306
46684SOL    HW241950   8.940   8.101   9.247
46685SOL     OW41951  13.508   6.966  10.857
46685SOL    HW141952  13.543   6.930  10.775
46685SOL    HW241953  13.413   6.961  10.847
46686SOL     OW41954   1.790   7.649  14.817
46686SOL    HW141955   1.819   7.732  14.780
46686SOL    HW241956   1.811   7.584  14.750
46687SOL     OW41957   8.368   0.153   4.148
46687SOL    HW141958   8.399   0.070   4.112
46687SOL    HW241959   8.447   0.208   4.152
46688SOL     OW41960   2.240   4.858   8.706
46688SOL    HW141961   2.324   4.819   8.680
46688SOL    HW241962   2.264   4.946   8.737
46689SOL     OW41963   2.261  10.127  13.197
46689SOL    HW141964   2.356  10.117  13.198
46689SOL    HW241965   2.227  10.037  13.194
46690SOL     OW41966   3.662   7.653   9.521
46690SOL    HW141967   3.639   7.567   9.555
46690SOL    HW241968   3.743   7.676   9.567
46691SOL     OW41969   6.932   4.577  12.491
46691SOL    HW141970   6.999   4.568  12.559
46691SOL    HW241971   6.850   4.552  12.534
46692SOL     OW41972   3.967  11.664  13.825
46692SOL    HW141973   3.966  11.641  13.917
46692SOL    HW241974   4.031  11.736  13.819
46693SOL     OW41975   1.099   2.901   0.368
46693SOL    HW141976   1.031   2.952   0.413
46693SOL    HW241977   1.180   2.947   0.389
46694SOL     OW41978  12.588  12.618   0.375
46694SOL    HW141979  12.582  12.598   0.281
46694SOL    HW241980  12.507  12.666   0.394
46695SOL     OW41981   4.284   7.616   0.729
46695SOL    HW141982   4.236   7.536   0.749
46695SOL    HW241983   4.344   7.590   0.659
46696SOL     OW41984   3.723  11.160   8.267
46696SOL    HW141985   3.724  11.225   8.198
46696SOL    HW241986   3.730  11.211   8.348
46697SOL     OW41987  10.797   2.924   9.126
46697SOL    HW141988  10.822   3.008   9.089
46697SOL    HW241989  10.788   2.866   9.050
46698SOL     OW41990   9.751   3.550   4.311
46698SOL    HW141991   9.751   3.492   4.387
46698SOL    HW241992   9.812   3.508   4.250
46699SOL     OW41993   3.128  12.111   9.144
46699SOL    HW141994   3.162  12.022   9.152
46699SOL    HW241995   3.106  12.136   9.234
46700SOL     OW41996  13.601  11.123   0.180
46700SOL    HW141997  13.526  11.064   0.172
46700SOL    HW241998  13.678  11.066   0.170
46701SOL     OW41999  14.780  11.924   5.736
46701SOL    HW142000  14.841  11.852   5.719
46701SOL    HW242001  14.754  11.914   5.827
46702SOL     OW42002  11.897   8.716   8.015
46702SOL    HW142003  11.860   8.768   8.086
46702SOL    HW242004  11.848   8.743   7.938
46703SOL     OW42005   9.026   0.358   4.397
46703SOL    HW142006   8.936   0.374   4.372
46703SOL    HW242007   9.060   0.300   4.329
46704SOL     OW42008  12.103  13.624  11.389
46704SOL    HW142009  12.161  13.551  11.366
46704SOL    HW242010  12.079  13.663  11.305
46705SOL     OW42011  14.197   5.996  12.154
46705SOL    HW142012  14.232   5.938  12.086
46705SOL    HW242013  14.179   5.937  12.228
46706SOL     OW42014  11.214  14.344   1.710
46706SOL    HW142015  11.205  14.351   1.805
46706SOL    HW242016  11.205  14.251   1.691
46707SOL     OW42017   6.359   7.505   7.738
46707SOL    HW142018   6.408   7.423   7.732
46707SOL    HW242019   6.425   7.573   7.743
46708SOL     OW42020   7.007  12.135   4.896
46708SOL    HW142021   6.956  12.200   4.943
46708SOL    HW242022   7.070  12.185   4.845
46709SOL     OW42023   7.388   7.411   0.978
46709SOL    HW142024   7.431   7.463   0.910
46709SOL    HW242025   7.381   7.323   0.940
46710SOL     OW42026   5.564   7.204   4.864
46710SOL    HW142027   5.581   7.208   4.958
46710SOL    HW242028   5.633   7.146   4.830
46711SOL     OW42029   9.392   0.959  12.517
46711SOL    HW142030   9.422   0.882  12.469
46711SOL    HW242031   9.471   1.011  12.532
46712SOL     OW42032  13.857   9.411   1.209
46712SOL    HW142033  13.797   9.396   1.136
46712SOL    HW242034  13.803   9.456   1.274
46713SOL     OW42035   1.947  10.590   0.800
46713SOL    HW142036   1.998  10.559   0.725
46713SOL    HW242037   1.899  10.514   0.831
46714SOL     OW42038   6.885   4.715   3.025
46714SOL    HW142039   6.835   4.794   3.004
46714SOL    HW242040   6.938   4.741   3.100
46715SOL     OW42041  10.121   1.212  12.855
46715SOL    HW142042  10.158   1.300  12.848
46715SOL    HW242043  10.031   1.226  12.884
46716SOL     OW42044   1.424   1.976   3.218
46716SOL    HW142045   1.333   1.959   3.195
46716SOL    HW242046   1.421   2.055   3.271
46717SOL     OW42047   3.347   3.930  13.030
46717SOL    HW142048   3.345   3.836  13.047
46717SOL    HW242049   3.357   3.936  12.935
46718SOL     OW42050   6.704   0.412  12.618
46718SOL    HW142051   6.705   0.320  12.592
46718SOL    HW242052   6.653   0.414  12.699
46719SOL     OW42053  11.626   1.380  13.605
46719SOL    HW142054  11.717   1.409  13.608
46719SOL    HW242055  11.598   1.378  13.697
46720SOL     OW42056   7.274   0.618  12.986
46720SOL    HW142057   7.367   0.614  12.965
46720SOL    HW242058   7.258   0.541  13.041
46721SOL     OW42059   5.765   2.548  14.419
46721SOL    HW142060   5.785   2.523  14.509
46721SOL    HW242061   5.805   2.479  14.365
46722SOL     OW42062   8.774   3.182   6.155
46722SOL    HW142063   8.723   3.261   6.171
46722SOL    HW242064   8.864   3.207   6.176
46723SOL     OW42065   8.596   5.750  11.292
46723SOL    HW142066   8.576   5.688  11.363
46723SOL    HW242067   8.652   5.701  11.232
46724SOL     OW42068  11.678   9.737   3.555
46724SOL    HW142069  11.754   9.692   3.594
46724SOL    HW242070  11.624   9.666   3.521
46725SOL     OW42071   3.065   0.463  11.062
46725SOL    HW142072   3.077   0.371  11.039
46725SOL    HW242073   2.971   0.473  11.074
46726SOL     OW42074   6.162  10.596   5.386
46726SOL    HW142075   6.128  10.647   5.312
46726SOL    HW242076   6.231  10.650   5.423
46727SOL     OW42077  11.217  11.470  10.043
46727SOL    HW142078  11.167  11.389  10.050
46727SOL    HW242079  11.192  11.506   9.958
46728SOL     OW42080   9.905  12.735  10.682
46728SOL    HW142081   9.973  12.686  10.729
46728SOL    HW242082   9.947  12.817  10.657
46729SOL     OW42083   0.684  14.353  13.142
46729SOL    HW142084   0.760  14.361  13.200
46729SOL    HW242085   0.705  14.279  13.085
46730SOL     OW42086   3.047  14.713   8.094
46730SOL    HW142087   3.052  14.774   8.020
46730SOL    HW242088   2.953  14.696   8.105
46731SOL     OW42089  13.921   2.883  13.389
46731SOL    HW142090  13.916   2.851  13.479
46731SOL    HW242091  13.831   2.876  13.356
46732SOL     OW42092   6.032   0.098  14.854
46732SOL    HW142093   6.095   0.099   0.057
46732SOL    HW242094   6.047   0.180  14.808
46733SOL     OW42095  12.298  13.956   1.026
46733SOL    HW142096  12.357  13.882   1.035
46733SOL    HW242097  12.248  13.957   1.108
46734SOL     OW42098   6.828   2.471   2.579
46734SOL    HW142099   6.920   2.476   2.604
46734SOL    HW242100   6.793   2.558   2.596
46735SOL     OW42101  13.968   7.315  13.046
46735SOL    HW142102  13.954   7.271  12.962
46735SOL    HW242103  14.060   7.339  13.045
46736SOL     OW42104   7.896  10.126  14.170
46736SOL    HW142105   7.812  10.105  14.130
46736SOL    HW242106   7.919  10.212  14.135
46737SOL     OW42107   8.614  10.269  13.902
46737SOL    HW142108   8.629  10.361  13.879
46737SOL    HW242109   8.573  10.231  13.824
46738SOL     OW42110   1.792  11.512   9.306
46738SOL    HW142111   1.712  11.499   9.357
46738SOL    HW242112   1.762  11.535   9.219
46739SOL     OW42113   3.476   3.650  11.619
46739SOL    HW142114   3.502   3.622  11.707
46739SOL    HW242115   3.479   3.745  11.621
46740SOL     OW42116   3.675  12.028   2.648
46740SOL    HW142117   3.763  12.045   2.682
46740SOL    HW242118   3.690  11.981   2.566
46741SOL     OW42119  12.710   3.684   7.326
46741SOL    HW142120  12.782   3.648   7.274
46741SOL    HW242121  12.652   3.610   7.342
46742SOL     OW42122   5.868   9.932   6.380
46742SOL    HW142123   5.787   9.915   6.333
46742SOL    HW242124   5.912   9.846   6.383
46743SOL     OW42125   8.976   1.396   6.552
46743SOL    HW142126   9.016   1.435   6.629
46743SOL    HW242127   8.977   1.302   6.569
46744SOL     OW42128   7.296  12.994   0.913
46744SOL    HW142129   7.208  13.008   0.879
46744SOL    HW242130   7.327  13.081   0.936
46745SOL     OW42131   5.397   7.649  12.037
46745SOL    HW142132   5.445   7.688  11.964
46745SOL    HW242133   5.371   7.724  12.091
46746SOL     OW42134   1.881   1.461  11.246
46746SOL    HW142135   1.786   1.458  11.253
46746SOL    HW242136   1.899   1.423  11.159
46747SOL     OW42137   3.605   3.669   7.556
46747SOL    HW142138   3.509   3.675   7.555
46747SOL    HW242139   3.630   3.704   7.641
46748SOL     OW42140   2.087   7.796   9.507
46748SOL    HW142141   2.180   7.775   9.504
46748SOL    HW242142   2.083   7.880   9.553
46749SOL     OW42143  10.395   8.608   8.006
46749SOL    HW142144  10.330   8.676   7.987
46749SOL    HW242145  10.468   8.628   7.949
46750SOL     OW42146   6.809   4.066  11.749
46750SOL    HW142147   6.794   4.057  11.654
46750SOL    HW242148   6.857   3.988  11.774
46751SOL     OW42149   6.200  14.001   5.879
46751SOL    HW142150   6.249  14.027   5.957
46751SOL    HW242151   6.260  13.944   5.831
46752SOL     OW42152   9.792   1.969   7.198
46752SOL    HW142153   9.858   1.907   7.230
46752SOL    HW242154   9.756   2.009   7.277
46753SOL     OW42155   5.899   9.140   4.846
46753SOL    HW142156   5.886   9.115   4.937
46753SOL    HW242157   5.814   9.125   4.804
46754SOL     OW42158   9.250   5.767  11.513
46754SOL    HW142159   9.257   5.759  11.608
46754SOL    HW242160   9.165   5.730  11.492
46755SOL     OW42161   9.815  12.178  14.117
46755SOL    HW142162   9.766  12.215  14.190
46755SOL    HW242163   9.887  12.240  14.103
46756SOL     OW42164   0.635  12.758  13.513
46756SOL    HW142165   0.600  12.761  13.602
46756SOL    HW242166   0.559  12.775  13.457
46757SOL     OW42167  13.100   7.331   5.725
46757SOL    HW142168  13.021   7.310   5.774
46757SOL    HW242169  13.166   7.270   5.760
46758SOL     OW42170   3.776   2.223   4.038
46758SOL    HW142171   3.696   2.256   3.997
46758SOL    HW242172   3.838   2.214   3.966
46759SOL     OW42173  13.519  10.101   9.101
46759SOL    HW142174  13.473  10.178   9.066
46759SOL    HW242175  13.607  10.107   9.064
46760SOL     OW42176   2.637   0.845   7.142
46760SOL    HW142177   2.732   0.841   7.142
46760SOL    HW242178   2.608   0.756   7.162
46761SOL     OW42179  14.422   3.906   3.104
46761SOL    HW142180  14.491   3.967   3.129
46761SOL    HW242181  14.361   3.959   3.052
46762SOL     OW42182  11.058  12.273   9.038
46762SOL    HW142183  11.104  12.357   9.033
46762SOL    HW242184  10.986  12.289   9.098
46763SOL     OW42185   9.732  13.171   9.437
46763SOL    HW142186   9.759  13.248   9.487
46763SOL    HW242187   9.677  13.206   9.367
46764SOL     OW42188   7.527  13.665   8.000
46764SOL    HW142189   7.529  13.644   7.906
46764SOL    HW242190   7.440  13.639   8.028
46765SOL     OW42191   3.772   9.224  12.956
46765SOL    HW142192   3.809   9.296  13.008
46765SOL    HW242193   3.679   9.243  12.951
46766SOL     OW42194   6.034   2.452   3.576
46766SOL    HW142195   6.031   2.519   3.645
46766SOL    HW242196   6.075   2.497   3.501
46767SOL     OW42197   0.334   4.799   6.727
46767SOL    HW142198   0.343   4.758   6.640
46767SOL    HW242199   0.423   4.806   6.759
46768SOL     OW42200   6.753  13.254   3.507
46768SOL    HW142201   6.782  13.342   3.482
46768SOL    HW242202   6.672  13.267   3.556
46769SOL     OW42203   2.511  12.894   9.218
46769SOL    HW142204   2.543  12.969   9.167
46769SOL    HW242205   2.417  12.892   9.200
46770SOL     OW42206   5.417   2.657  10.437
46770SOL    HW142207   5.504   2.685  10.466
46770SOL    HW242208   5.426   2.645  10.343
46771SOL     OW42209   1.905   8.285   4.263
46771SOL    HW142210   1.992   8.283   4.304
46771SOL    HW242211   1.854   8.345   4.317
46772SOL     OW42212   3.735   5.545  10.672
46772SOL    HW142213   3.651   5.591  10.668
46772SOL    HW242214   3.786   5.583  10.601
46773SOL     OW42215   5.544   7.297  10.015
46773SOL    HW142216   5.581   7.319  10.100
46773SOL    HW242217   5.618   7.300   9.955
46774SOL     OW42218  12.787   5.000   6.049
46774SOL    HW142219  12.788   4.907   6.073
46774SOL    HW242220  12.710   5.010   5.993
46775SOL     OW42221   3.620   0.291   4.442
46775SOL    HW142222   3.531   0.271   4.413
46775SOL    HW242223   3.608   0.352   4.514
46776SOL     OW42224   4.943  12.719   3.517
46776SOL    HW142225   4.876  12.705   3.449
46776SOL    HW242226   4.929  12.648   3.579
46777SOL     OW42227  10.834   4.889  13.008
46777SOL    HW142228  10.919   4.888  13.052
46777SOL    HW242229  10.821   4.799  12.979
46778SOL     OW42230   7.712   9.600   1.813
46778SOL    HW142231   7.804   9.613   1.790
46778SOL    HW242232   7.708   9.615   1.907
46779SOL     OW42233  12.250   0.577   0.359
46779SOL    HW142234  12.223   0.485   0.356
46779SOL    HW242235  12.172   0.626   0.332
46780SOL     OW42236   0.600   6.068   3.600
46780SOL    HW142237   0.539   6.000   3.571
46780SOL    HW242238   0.597   6.064   3.695
46781SOL     OW42239  14.462  13.366   9.336
46781SOL    HW142240  14.448  13.272   9.327
46781SOL    HW242241  14.551  13.380   9.304
46782SOL     OW42242  14.470   4.938   4.635
46782SOL    HW142243  14.415   4.999   4.586
46782SOL    HW242244  14.413   4.901   4.701
46783SOL     OW42245   6.679  10.416   4.444
46783SOL    HW142246   6.625  10.495   4.441
46783SOL    HW242247   6.677  10.382   4.355
46784SOL     OW42248   6.673  12.070   2.721
46784SOL    HW142249   6.616  12.107   2.654
46784SOL    HW242250   6.731  12.142   2.745
46785SOL     OW42251   0.555   9.703   0.101
46785SOL    HW142252   0.646   9.709   0.072
46785SOL    HW242253   0.559   9.700   0.196
46786SOL     OW42254   0.953   8.654   4.109
46786SOL    HW142255   0.956   8.566   4.073
46786SOL    HW242256   0.939   8.641   4.203
46787SOL     OW42257   0.054   4.334   2.388
46787SOL    HW142258   0.005   4.412   2.414
46787SOL    HW242259   0.141   4.366   2.364
46788SOL     OW42260   4.938  10.757  12.427
46788SOL    HW142261   4.869  10.819  12.407
46788SOL    HW242262   4.956  10.712  12.344
46789SOL     OW42263   4.127   3.968  13.297
46789SOL    HW142264   4.209   3.980  13.345
46789SOL    HW242265   4.147   3.901  13.232
46790SOL     OW42266  12.061   0.795  10.494
46790SOL    HW142267  12.091   0.859  10.430
46790SOL    HW242268  11.992   0.841  10.543
46791SOL     OW42269  14.649  14.578   8.365
46791SOL    HW142270  14.664  14.644   8.297
46791SOL    HW242271  14.694  14.612   8.442
46792SOL     OW42272   3.442  13.936   0.273
46792SOL    HW142273   3.513  13.997   0.252
46792SOL    HW242274   3.372  13.992   0.307
46793SOL     OW42275  12.325  14.288  13.060
46793SOL    HW142276  12.292  14.378  13.061
46793SOL    HW242277  12.301  14.254  12.974
46794SOL     OW42278   9.561  10.512  10.822
46794SOL    HW142279   9.611  10.537  10.900
46794SOL    HW242280   9.519  10.594  10.794
46795SOL     OW42281  12.050   1.129   9.512
46795SOL    HW142282  12.015   1.157   9.596
46795SOL    HW242283  11.983   1.153   9.448
46796SOL     OW42284  11.914  10.218  11.446
46796SOL    HW142285  11.824  10.207  11.413
46796SOL    HW242286  11.941  10.304  11.415
46797SOL     OW42287  13.498   0.347   1.918
46797SOL    HW142288  13.502   0.309   1.830
46797SOL    HW242289  13.424   0.303   1.959
46798SOL     OW42290   5.935  12.006   2.037
46798SOL    HW142291   5.894  11.968   2.115
46798SOL    HW242292   6.028  12.006   2.057
46799SOL     OW42293   4.822  12.813  13.260
46799SOL    HW142294   4.776  12.843  13.339
46799SOL    HW242295   4.752  12.799  13.196
46800SOL     OW42296   6.567  11.281  11.011
46800SOL    HW142297   6.659  11.267  11.033
46800SOL    HW242298   6.539  11.200  10.970
46801SOL     OW42299   6.675   1.872   0.579
46801SOL    HW142300   6.657   1.963   0.603
46801SOL    HW242301   6.729   1.838   0.651
46802SOL     OW42302   6.160  13.544  13.191
46802SOL    HW142303   6.074  13.586  13.182
46802SOL    HW242304   6.141  13.459  13.230
46803SOL     OW42305   4.219   5.619   7.319
46803SOL    HW142306   4.255   5.707   7.311
46803SOL    HW242307   4.281   5.573   7.376
46804SOL     OW42308   5.160  12.457   6.930
46804SOL    HW142309   5.153  12.504   7.013
46804SOL    HW242310   5.089  12.492   6.876
46805SOL     OW42311   9.926   3.179   3.094
46805SOL    HW142312  10.009   3.187   3.140
46805SOL    HW242313   9.942   3.114   3.026
46806SOL     OW42314   3.699   0.728   7.703
46806SOL    HW142315   3.694   0.810   7.752
46806SOL    HW242316   3.780   0.687   7.733
46807SOL     OW42317   3.060   5.319   8.575
46807SOL    HW142318   3.119   5.353   8.507
46807SOL    HW242319   2.972   5.331   8.538
46808SOL     OW42320   5.325   1.236   8.593
46808SOL    HW142321   5.324   1.200   8.682
46808SOL    HW242322   5.251   1.297   8.591
46809SOL     OW42323  14.839  10.990  13.650
46809SOL    HW142324  14.848  10.917  13.589
46809SOL    HW242325   0.056  10.997  13.692
46810SOL     OW42326   6.921  14.203  12.646
46810SOL    HW142327   6.941  14.152  12.567
46810SOL    HW242328   6.899  14.290  12.613
46811SOL     OW42329  11.406   0.078   5.784
46811SOL    HW142330  11.423   0.096   5.876
46811SOL    HW242331  11.389  14.853   5.781
46812SOL     OW42332  12.320   2.412  13.218
46812SOL    HW142333  12.391   2.438  13.277
46812SOL    HW242334  12.364   2.391  13.136
46813SOL     OW42335  12.706   0.398   8.662
46813SOL    HW142336  12.790   0.415   8.704
46813SOL    HW242337  12.658   0.481   8.669
46814SOL     OW42338   7.352   3.562   4.021
46814SOL    HW142339   7.378   3.479   3.981
46814SOL    HW242340   7.275   3.542   4.073
46815SOL     OW42341   7.064   2.368   9.035
46815SOL    HW142342   7.024   2.287   9.065
46815SOL    HW242343   7.079   2.419   9.115
46816SOL     OW42344   5.201   0.060  13.255
46816SOL    HW142345   5.111   0.055  13.224
46816SOL    HW242346   5.209  14.860  13.320
46817SOL     OW42347   2.114   3.823   1.253
46817SOL    HW142348   2.070   3.857   1.175
46817SOL    HW242349   2.170   3.896   1.282
46818SOL     OW42350   5.660  13.351   9.404
46818SOL    HW142351   5.587  13.396   9.448
46818SOL    HW242352   5.705  13.421   9.356
46819SOL     OW42353   2.616   8.005   7.185
46819SOL    HW142354   2.598   7.927   7.133
46819SOL    HW242355   2.684   7.978   7.248
46820SOL     OW42356   7.388  14.620   7.624
46820SOL    HW142357   7.421  14.577   7.703
46820SOL    HW242358   7.426  14.570   7.552
46821SOL     OW42359  12.487  13.737   9.342
46821SOL    HW142360  12.419  13.675   9.368
46821SOL    HW242361  12.440  13.806   9.295
46822SOL     OW42362   7.207  10.441   9.847
46822SOL    HW142363   7.167  10.526   9.866
46822SOL    HW242364   7.216  10.399   9.933
46823SOL     OW42365   9.359  14.816   2.965
46823SOL    HW142366   9.310  14.743   3.002
46823SOL    HW242367   9.447  14.781   2.950
46824SOL     OW42368   5.193  11.532  10.169
46824SOL    HW142369   5.257  11.492  10.109
46824SOL    HW242370   5.142  11.459  10.203
46825SOL     OW42371   1.401   8.163   0.755
46825SOL    HW142372   1.491   8.176   0.725
46825SOL    HW242373   1.410   8.122   0.841
46826SOL     OW42374   8.460  11.376   3.303
46826SOL    HW142375   8.515  11.454   3.310
46826SOL    HW242376   8.505  11.310   3.356
46827SOL     OW42377   3.959   5.560  14.034
46827SOL    HW142378   3.905   5.553  14.113
46827SOL    HW242379   3.897   5.551  13.961
46828SOL     OW42380  14.302   6.071   2.950
46828SOL    HW142381  14.267   5.987   2.980
46828SOL    HW242382  14.335   6.054   2.862
46829SOL     OW42383   2.814  12.027  12.367
46829SOL    HW142384   2.763  11.977  12.303
46829SOL    HW242385   2.759  12.029  12.445
46830SOL     OW42386   1.613   5.816  10.301
46830SOL    HW142387   1.533   5.772  10.331
46830SOL    HW242388   1.661   5.748  10.254
46831SOL     OW42389   6.012   4.613   9.478
46831SOL    HW142390   6.100   4.628   9.444
46831SOL    HW242391   5.954   4.643   9.409
46832SOL     OW42392   8.259   8.875   7.007
46832SOL    HW142393   8.241   8.810   7.075
46832SOL    HW242394   8.188   8.865   6.945
46833SOL     OW42395  12.550  14.851   2.341
46833SOL    HW142396  12.577  14.768   2.303
46833SOL    HW242397  12.486  14.826   2.408
46834SOL     OW42398   4.927  14.794   1.701
46834SOL    HW142399   4.950  14.799   1.608
46834SOL    HW242400   4.991  14.734   1.738
46835SOL     OW42401  13.715   1.160   1.568
46835SOL    HW142402  13.658   1.222   1.524
46835SOL    HW242403  13.798   1.207   1.578
46836SOL     OW42404  11.540   8.154  11.706
46836SOL    HW142405  11.523   8.214  11.778
46836SOL    HW242406  11.454   8.136  11.668
46837SOL     OW42407   1.838   5.594   4.362
46837SOL    HW142408   1.828   5.618   4.270
46837SOL    HW242409   1.763   5.633   4.406
46838SOL     OW42410   5.916   6.148  14.463
46838SOL    HW142411   5.865   6.121  14.386
46838SOL    HW242412   5.868   6.113  14.538
46839SOL     OW42413  10.544   0.992   4.353
46839SOL    HW142414  10.526   0.965   4.263
46839SOL    HW242415  10.487   1.068   4.367
46840SOL     OW42416   0.445   8.113   2.488
46840SOL    HW142417   0.517   8.167   2.454
46840SOL    HW242418   0.453   8.120   2.583
46841SOL     OW42419  13.153  14.242   2.820
46841SOL    HW142420  13.067  14.282   2.829
46841SOL    HW242421  13.200  14.268   2.899
46842SOL     OW42422   2.388   6.115   7.640
46842SOL    HW142423   2.415   6.034   7.596
46842SOL    HW242424   2.466   6.142   7.690
46843SOL     OW42425   2.010   9.578  14.603
46843SOL    HW142426   1.922   9.597  14.636
46843SOL    HW242427   2.043   9.511  14.662
46844SOL     OW42428   8.059  13.543   1.416
46844SOL    HW142429   8.151  13.518   1.425
46844SOL    HW242430   8.022  13.530   1.504
46845SOL     OW42431   7.455   2.839  14.811
46845SOL    HW142432   7.531   2.819  14.865
46845SOL    HW242433   7.382   2.796  14.854
46846SOL     OW42434   3.661   8.391  13.476
46846SOL    HW142435   3.728   8.433  13.423
46846SOL    HW242436   3.623   8.324  13.418
46847SOL     OW42437   5.356   0.995  10.166
46847SOL    HW142438   5.398   0.982  10.251
46847SOL    HW242439   5.345   0.907  10.130
46848SOL     OW42440   2.429   4.117  13.810
46848SOL    HW142441   2.370   4.059  13.762
46848SOL    HW242442   2.383   4.138  13.891
46849SOL     OW42443   2.529   8.800  10.731
46849SOL    HW142444   2.508   8.891  10.713
46849SOL    HW242445   2.535   8.759  10.645
46850SOL     OW42446  14.630   6.823   1.908
46850SOL    HW142447  14.568   6.891   1.883
46850SOL    HW242448  14.595   6.743   1.869
46851SOL     OW42449  11.445   1.153   7.819
46851SOL    HW142450  11.371   1.214   7.814
46851SOL    HW242451  11.429   1.103   7.899
46852SOL     OW42452  11.061   4.531   7.720
46852SOL    HW142453  11.024   4.452   7.681
46852SOL    HW242454  10.995   4.561   7.782
46853SOL     OW42455   5.255  11.765   6.217
46853SOL    HW142456   5.330  11.728   6.262
46853SOL    HW242457   5.179  11.741   6.271
46854SOL     OW42458   9.356   8.393   0.867
46854SOL    HW142459   9.383   8.309   0.832
46854SOL    HW242460   9.263   8.400   0.846
46855SOL     OW42461   7.310  14.672   9.984
46855SOL    HW142462   7.302  14.591  10.035
46855SOL    HW242463   7.343  14.643   9.899
46856SOL     OW42464   9.422  13.166  10.230
46856SOL    HW142465   9.339  13.187  10.274
46856SOL    HW242466   9.423  13.224  10.154
46857SOL     OW42467  10.501   2.274   5.949
46857SOL    HW142468  10.452   2.333   5.892
46857SOL    HW242469  10.449   2.272   6.030
46858SOL     OW42470  10.900   1.267   2.319
46858SOL    HW142471  10.844   1.194   2.297
46858SOL    HW242472  10.978   1.256   2.264
46859SOL     OW42473   4.017   8.441   9.827
46859SOL    HW142474   4.077   8.368   9.812
46859SOL    HW242475   4.064   8.500   9.885
46860SOL     OW42476  11.542  12.214  10.010
46860SOL    HW142477  11.538  12.120  10.028
46860SOL    HW242478  11.635  12.232   9.995
46861SOL     OW42479   7.408   8.142   1.141
46861SOL    HW142480   7.336   8.117   1.199
46861SOL    HW242481   7.448   8.059   1.115
46862SOL     OW42482   1.760   1.179  10.886
46862SOL    HW142483   1.724   1.117  10.822
46862SOL    HW242484   1.742   1.138  10.971
46863SOL     OW42485   3.776   9.136   5.582
46863SOL    HW142486   3.860   9.102   5.553
46863SOL    HW242487   3.746   9.191   5.509
46864SOL     OW42488  12.734   4.319   5.405
46864SOL    HW142489  12.662   4.382   5.395
46864SOL    HW242490  12.744   4.281   5.318
46865SOL     OW42491   7.272   7.229   0.231
46865SOL    HW142492   7.230   7.315   0.224
46865SOL    HW242493   7.354   7.246   0.278
46866SOL     OW42494   0.835  12.743   5.330
46866SOL    HW142495   0.899  12.673   5.317
46866SOL    HW242496   0.872  12.796   5.401
46867SOL     OW42497  13.411  10.490  10.502
46867SOL    HW142498  13.378  10.553  10.437
46867SOL    HW242499  13.440  10.416  10.450
46868SOL     OW42500  12.649   6.121  11.591
46868SOL    HW142501  12.730   6.102  11.639
46868SOL    HW242502  12.581   6.124  11.659
46869SOL     OW42503   8.651   6.126  10.716
46869SOL    HW142504   8.702   6.140  10.637
46869SOL    HW242505   8.561   6.116  10.686
46870SOL     OW42506   9.528  10.559   3.763
46870SOL    HW142507   9.495  10.634   3.714
46870SOL    HW242508   9.449  10.511   3.790
46871SOL     OW42509  12.931   4.653   6.711
46871SOL    HW142510  12.989   4.715   6.755
46871SOL    HW242511  12.842   4.684   6.732
46872SOL     OW42512   7.730  14.274   3.628
46872SOL    HW142513   7.636  14.293   3.633
46872SOL    HW242514   7.746  14.215   3.701
46873SOL     OW42515  13.787   8.397   0.692
46873SOL    HW142516  13.854   8.330   0.703
46873SOL    HW242517  13.772   8.431   0.781
46874SOL     OW42518   8.410   9.094  10.995
46874SOL    HW142519   8.335   9.146  11.023
46874SOL    HW242520   8.483   9.156  10.997
46875SOL     OW42521   2.034   5.944   6.964
46875SOL    HW142522   2.012   5.871   7.022
46875SOL    HW242523   2.078   6.007   7.020
46876SOL     OW42524   4.051   8.533   8.122
46876SOL    HW142525   3.989   8.498   8.058
46876SOL    HW242526   4.020   8.622   8.138
46877SOL     OW42527   9.450   4.901   3.576
46877SOL    HW142528   9.515   4.944   3.520
46877SOL    HW242529   9.479   4.918   3.665
46878SOL     OW42530   0.657  13.344   8.597
46878SOL    HW142531   0.632  13.393   8.676
46878SOL    HW242532   0.746  13.374   8.578
46879SOL     OW42533  12.878   7.956  11.547
46879SOL    HW142534  12.875   7.867  11.584
46879SOL    HW242535  12.842   8.012  11.615
46880SOL     OW42536   6.225  10.427   8.761
46880SOL    HW142537   6.298  10.395   8.813
46880SOL    HW242538   6.170  10.475   8.823
46881SOL     OW42539   1.983   0.578  14.570
46881SOL    HW142540   1.906   0.534  14.604
46881SOL    HW242541   1.984   0.557  14.477
46882SOL     OW42542   3.365  11.612  11.801
46882SOL    HW142543   3.271  11.596  11.809
46882SOL    HW242544   3.376  11.703  11.830
46883SOL     OW42545  13.785  10.407  10.024
46883SOL    HW142546  13.874  10.423  10.054
46883SOL    HW242547  13.729  10.443  10.092
46884SOL     OW42548  10.003  11.723  12.387
46884SOL    HW142549   9.919  11.730  12.341
46884SOL    HW242550   9.997  11.640  12.435
46885SOL     OW42551  11.848  14.568  10.806
46885SOL    HW142552  11.907  14.623  10.859
46885SOL    HW242553  11.761  14.593  10.835
46886SOL     OW42554  11.245   1.208  10.796
46886SOL    HW142555  11.334   1.234  10.772
46886SOL    HW242556  11.238   1.116  10.770
46887SOL     OW42557   8.193   1.525   9.601
46887SOL    HW142558   8.157   1.487   9.681
46887SOL    HW242559   8.282   1.491   9.597
46888SOL     OW42560  12.949   4.868  13.259
46888SOL    HW142561  12.879   4.836  13.316
46888SOL    HW242562  12.920   4.956  13.232
46889SOL     OW42563   6.523   8.190  12.441
46889SOL    HW142564   6.453   8.215  12.381
46889SOL    HW242565   6.542   8.270  12.490
46890SOL     OW42566   8.233   2.698   8.603
46890SOL    HW142567   8.210   2.791   8.608
46890SOL    HW242568   8.198   2.660   8.683
46891SOL     OW42569   3.409   1.293   5.981
46891SOL    HW142570   3.479   1.281   6.045
46891SOL    HW242571   3.378   1.383   5.996
46892SOL     OW42572   9.213   3.087   4.620
46892SOL    HW142573   9.135   3.105   4.567
46892SOL    HW242574   9.180   3.077   4.709
46893SOL     OW42575   0.454  10.681   9.633
46893SOL    HW142576   0.427  10.602   9.586
46893SOL    HW242577   0.425  10.754   9.578
46894SOL     OW42578  12.260  13.628   8.446
46894SOL    HW142579  12.261  13.721   8.469
46894SOL    HW242580  12.192  13.620   8.380
46895SOL     OW42581   6.735   8.233   9.875
46895SOL    HW142582   6.656   8.248   9.822
46895SOL    HW242583   6.788   8.311   9.861
46896SOL     OW42584  13.742   8.952   0.197
46896SOL    HW142585  13.682   8.891   0.155
46896SOL    HW242586  13.782   9.000   0.125
46897SOL     OW42587   4.372   9.370   0.239
46897SOL    HW142588   4.338   9.295   0.288
46897SOL    HW242589   4.442   9.405   0.294
46898SOL     OW42590   2.719  13.470   8.471
46898SOL    HW142591   2.631  13.435   8.485
46898SOL    HW242592   2.744  13.440   8.384
46899SOL     OW42593  14.261  14.234   0.596
46899SOL    HW142594  14.262  14.325   0.623
46899SOL    HW242595  14.289  14.235   0.504
46900SOL     OW42596  13.358  12.621   3.836
46900SOL    HW142597  13.351  12.525   3.838
46900SOL    HW242598  13.284  12.650   3.783
46901SOL     OW42599   5.201   7.993  12.824
46901SOL    HW142600   5.123   7.938  12.810
46901SOL    HW242601   5.183   8.072  12.773
46902SOL     OW42602   9.441   3.825   7.583
46902SOL    HW142603   9.432   3.845   7.490
46902SOL    HW242604   9.357   3.851   7.622
46903SOL     OW42605   8.304   3.948  13.084
46903SOL    HW142606   8.316   4.028  13.034
46903SOL    HW242607   8.372   3.951  13.152
46904SOL     OW42608  12.095  11.111   1.306
46904SOL    HW142609  12.056  11.092   1.391
46904SOL    HW242610  12.056  11.046   1.247
46905SOL     OW42611   5.084   5.506   7.565
46905SOL    HW142612   5.090   5.588   7.614
46905SOL    HW242613   4.997   5.507   7.526
46906SOL     OW42614   5.683   9.260  13.929
46906SOL    HW142615   5.607   9.259  13.871
46906SOL    HW242616   5.713   9.351  13.930
46907SOL     OW42617  13.469  14.235   6.936
46907SOL    HW142618  13.374  14.233   6.950
46907SOL    HW242619  13.497  14.319   6.971
46908SOL     OW42620   1.668   7.660   1.728
46908SOL    HW142621   1.717   7.588   1.768
46908SOL    HW242622   1.582   7.657   1.770
46909SOL     OW42623   9.540   1.611   2.715
46909SOL    HW142624   9.523   1.682   2.653
46909SOL    HW242625   9.622   1.571   2.685
46910SOL     OW42626   2.460   0.335  13.553
46910SOL    HW142627   2.378   0.306  13.512
46910SOL    HW242628   2.506   0.382  13.484
46911SOL     OW42629   1.656  11.923   0.226
46911SOL    HW142630   1.689  12.000   0.181
46911SOL    HW242631   1.676  11.938   0.318
46912SOL     OW42632   4.566  14.387   6.225
46912SOL    HW142633   4.564  14.310   6.282
46912SOL    HW242634   4.596  14.353   6.140
46913SOL     OW42635   2.631   2.751  13.668
46913SOL    HW142636   2.596   2.794  13.589
46913SOL    HW242637   2.563   2.763  13.734
46914SOL     OW42638   3.486   0.391   1.057
46914SOL    HW142639   3.540   0.315   1.034
46914SOL    HW242640   3.509   0.457   0.992
46915SOL     OW42641   6.659   3.278   4.978
46915SOL    HW142642   6.579   3.275   5.031
46915SOL    HW242643   6.646   3.211   4.912
46916SOL     OW42644   3.738   1.166   6.762
46916SOL    HW142645   3.647   1.138   6.777
46916SOL    HW242646   3.737   1.260   6.779
46917SOL     OW42647   0.421  12.980   8.490
46917SOL    HW142648   0.395  12.965   8.581
46917SOL    HW242649   0.418  12.893   8.450
46918SOL     OW42650  12.481   2.864   1.657
46918SOL    HW142651  12.388   2.844   1.671
46918SOL    HW242652  12.495   2.852   1.564
46919SOL     OW42653   7.270   1.443   9.467
46919SOL    HW142654   7.286   1.372   9.405
46919SOL    HW242655   7.212   1.504   9.421
46920SOL     OW42656   5.125  11.581  10.723
46920SOL    HW142657   5.101  11.662  10.766
46920SOL    HW242658   5.196  11.545  10.777
46921SOL     OW42659  12.414   5.688   3.044
46921SOL    HW142660  12.502   5.710   3.014
46921SOL    HW242661  12.403   5.596   3.022
46922SOL     OW42662   6.460  10.331  14.466
46922SOL    HW142663   6.528  10.350  14.401
46922SOL    HW242664   6.407  10.262  14.427
46923SOL     OW42665   9.396  10.609   1.745
46923SOL    HW142666   9.377  10.594   1.838
46923SOL    HW242667   9.318  10.580   1.699
46924SOL     OW42668  12.720   8.351   3.776
46924SOL    HW142669  12.693   8.275   3.827
46924SOL    HW242670  12.643   8.372   3.722
46925SOL     OW42671   0.562  13.557   6.869
46925SOL    HW142672   0.591  13.632   6.920
46925SOL    HW242673   0.500  13.593   6.805
46926SOL     OW42674   0.585   0.450   7.184
46926SOL    HW142675   0.565   0.389   7.113
46926SOL    HW242676   0.674   0.428   7.210
46927SOL     OW42677   8.686  10.088   0.442
46927SOL    HW142678   8.768  10.059   0.483
46927SOL    HW242679   8.690  10.051   0.353
46928SOL     OW42680  14.266   8.402   1.502
46928SOL    HW142681  14.210   8.383   1.427
46928SOL    HW242682  14.353   8.374   1.474
46929SOL     OW42683   6.622  14.747  12.584
46929SOL    HW142684   6.560  14.677  12.605
46929SOL    HW242685   6.657  14.725  12.498
46930SOL     OW42686  11.829   7.126   7.329
46930SOL    HW142687  11.754   7.167   7.371
46930SOL    HW242688  11.796   7.043   7.295
46931SOL     OW42689   5.264  10.847   4.065
46931SOL    HW142690   5.289  10.882   3.979
46931SOL    HW242691   5.289  10.915   4.127
46932SOL     OW42692   7.308   3.033  14.024
46932SOL    HW142693   7.383   2.990  14.066
46932SOL    HW242694   7.266   2.964  13.973
46933SOL     OW42695  11.307   5.125   6.139
46933SOL    HW142696  11.288   5.060   6.072
46933SOL    HW242697  11.348   5.197   6.091
46934SOL     OW42698  10.554   9.662  13.014
46934SOL    HW142699  10.637   9.650  12.968
46934SOL    HW242700  10.579   9.694  13.101
46935SOL     OW42701   5.124   7.961   9.529
46935SOL    HW142702   5.129   7.871   9.496
46935SOL    HW242703   5.179   8.011   9.470
46936SOL     OW42704   7.065   3.365  12.235
46936SOL    HW142705   6.991   3.366  12.175
46936SOL    HW242706   7.119   3.292  12.206
46937SOL     OW42707   4.850  10.005   1.404
46937SOL    HW142708   4.938  10.008   1.365
46937SOL    HW242709   4.791  10.005   1.330
46938SOL     OW42710   4.542  13.574   9.780
46938SOL    HW142711   4.497  13.542   9.702
46938SOL    HW242712   4.472  13.608   9.835
46939SOL     OW42713   5.575   6.884   1.732
46939SOL    HW142714   5.568   6.789   1.722
46939SOL    HW242715   5.616   6.897   1.817
46940SOL     OW42716  14.764  12.585   3.061
46940SOL    HW142717  14.847  12.577   3.015
46940SOL    HW242718  14.720  12.501   3.047
46941SOL     OW42719  12.448   4.585   7.810
46941SOL    HW142720  12.355   4.587   7.834
46941SOL    HW242721  12.456   4.511   7.751
46942SOL     OW42722   7.891  12.152   2.310
46942SOL    HW142723   7.910  12.153   2.216
46942SOL    HW242724   7.975  12.131   2.351
46943SOL     OW42725   6.779   5.351   3.561
46943SOL    HW142726   6.690   5.333   3.531
46943SOL    HW242727   6.829   5.365   3.481
46944SOL     OW42728   5.895  11.396   9.581
46944SOL    HW142729   5.864  11.422   9.495
46944SOL    HW242730   5.836  11.440   9.642
46945SOL     OW42731  13.420   2.099   3.473
46945SOL    HW142732  13.351   2.033   3.467
46945SOL    HW242733  13.462   2.081   3.557
46946SOL     OW42734   2.781   1.769   9.830
46946SOL    HW142735   2.778   1.839   9.896
46946SOL    HW242736   2.691   1.762   9.799
46947SOL     OW42737  14.029   9.893  10.753
46947SOL    HW142738  14.120   9.868  10.742
46947SOL    HW242739  13.979   9.815  10.731
46948SOL     OW42740  12.414   0.865   2.064
46948SOL    HW142741  12.456   0.793   2.017
46948SOL    HW242742  12.485   0.907   2.112
46949SOL     OW42743   5.615   7.585  14.486
46949SOL    HW142744   5.707   7.562  14.475
46949SOL    HW242745   5.593   7.635  14.407
46950SOL     OW42746   9.738   8.126   5.420
46950SOL    HW142747   9.823   8.090   5.392
46950SOL    HW242748   9.676   8.056   5.404
46951SOL     OW42749   5.819   7.922  13.875
46951SOL    HW142750   5.821   7.924  13.779
46951SOL    HW242751   5.871   7.845  13.898
46952SOL     OW42752  12.954   4.729  14.229
46952SOL    HW142753  13.011   4.738  14.152
46952SOL    HW242754  12.898   4.654  14.208
46953SOL     OW42755  13.243  10.183  12.493
46953SOL    HW142756  13.197  10.252  12.541
46953SOL    HW242757  13.310  10.152  12.553
46954SOL     OW42758  14.436  14.620   8.545
46954SOL    HW142759  14.485  14.588   8.469
46954SOL    HW242760  14.416  14.711   8.523
46955SOL     OW42761  11.684  13.147   9.918
46955SOL    HW142762  11.729  13.231   9.931
46955SOL    HW242763  11.728  13.107   9.844
46956SOL     OW42764   6.896   7.357   2.795
46956SOL    HW142765   6.927   7.440   2.831
46956SOL    HW242766   6.895   7.297   2.870
46957SOL     OW42767   8.788  11.357  14.718
46957SOL    HW142768   8.857  11.296  14.742
46957SOL    HW242769   8.731  11.307  14.659
46958SOL     OW42770  13.265  14.677   6.954
46958SOL    HW142771  13.339  14.736   6.968
46958SOL    HW242772  13.191  14.720   6.996
46959SOL     OW42773   1.981   4.154   5.073
46959SOL    HW142774   1.933   4.148   4.990
46959SOL    HW242775   2.064   4.193   5.050
46960SOL     OW42776  10.355   2.585  12.030
46960SOL    HW142777  10.372   2.669  12.072
46960SOL    HW242778  10.261   2.571  12.042
46961SOL     OW42779   3.209   0.470   4.207
46961SOL    HW142780   3.222   0.515   4.291
46961SOL    HW242781   3.155   0.530   4.156
46962SOL     OW42782   7.314  12.566   7.289
46962SOL    HW142783   7.303  12.500   7.220
46962SOL    HW242784   7.303  12.649   7.244
46963SOL     OW42785  12.589   9.279   7.749
46963SOL    HW142786  12.681   9.259   7.766
46963SOL    HW242787  12.572   9.359   7.800
46964SOL     OW42788  12.657  11.928   6.606
46964SOL    HW142789  12.729  11.874   6.638
46964SOL    HW242790  12.661  11.920   6.511
46965SOL     OW42791  13.680   3.034   3.427
46965SOL    HW142792  13.617   3.052   3.496
46965SOL    HW242793  13.627   3.020   3.348
46966SOL     OW42794   6.671   7.323   4.079
46966SOL    HW142795   6.644   7.406   4.118
46966SOL    HW242796   6.691   7.345   3.988
46967SOL     OW42797  10.750   5.723  13.128
46967SOL    HW142798  10.736   5.807  13.085
46967SOL    HW242799  10.825   5.738  13.186
46968SOL     OW42800   0.204   0.038  11.047
46968SOL    HW142801   0.283   0.086  11.021
46968SOL    HW242802   0.132   0.092  11.015
46969SOL     OW42803  12.408   9.016   6.928
46969SOL    HW142804  12.348   8.941   6.938
46969SOL    HW242805  12.406   9.035   6.834
46970SOL     OW42806   6.864   3.950   3.293
46970SOL    HW142807   6.834   3.963   3.203
46970SOL    HW242808   6.951   3.989   3.295
46971SOL     OW42809   0.243  11.690   6.480
46971SOL    HW142810   0.319  11.723   6.434
46971SOL    HW242811   0.262  11.597   6.495
46972SOL     OW42812  12.707   8.874   2.513
46972SOL    HW142813  12.716   8.808   2.445
46972SOL    HW242814  12.785   8.929   2.503
46973SOL     OW42815   3.091   1.708   0.648
46973SOL    HW142816   3.089   1.671   0.560
46973SOL    HW242817   3.115   1.800   0.636
46974SOL     OW42818  10.809  14.513   7.886
46974SOL    HW142819  10.884  14.466   7.923
46974SOL    HW242820  10.775  14.566   7.958
46975SOL     OW42821   9.733   8.967   6.685
46975SOL    HW142822   9.789   8.908   6.634
46975SOL    HW242823   9.714   8.918   6.765
46976SOL     OW42824  12.217   5.400   4.915
46976SOL    HW142825  12.305   5.389   4.951
46976SOL    HW242826  12.232   5.428   4.824
46977SOL     OW42827   8.764   6.495   4.901
46977SOL    HW142828   8.671   6.518   4.907
46977SOL    HW242829   8.770   6.433   4.828
46978SOL     OW42830   0.415  14.351  14.802
46978SOL    HW142831   0.496  14.398  14.781
46978SOL    HW242832   0.381  14.397   0.010
46979SOL     OW42833   8.176   5.612  11.695
46979SOL    HW142834   8.191   5.594  11.602
46979SOL    HW242835   8.212   5.536  11.740
46980SOL     OW42836  13.517   1.615  12.152
46980SOL    HW142837  13.487   1.553  12.219
46980SOL    HW242838  13.602   1.582  12.124
46981SOL     OW42839   8.083  11.292   6.726
46981SOL    HW142840   8.110  11.260   6.812
46981SOL    HW242841   8.059  11.384   6.742
46982SOL     OW42842  13.856   1.208   9.548
46982SOL    HW142843  13.817   1.277   9.601
46982SOL    HW242844  13.925   1.251   9.498
46983SOL     OW42845   8.999   4.764   5.957
46983SOL    HW142846   8.980   4.736   6.047
46983SOL    HW242847   9.075   4.822   5.965
46984SOL     OW42848   7.625   7.184  11.495
46984SOL    HW142849   7.611   7.146  11.582
46984SOL    HW242850   7.718   7.204  11.492
46985SOL     OW42851   7.335  10.553   5.725
46985SOL    HW142852   7.325  10.523   5.815
46985SOL    HW242853   7.291  10.638   5.723
46986SOL     OW42854   0.286   9.069   1.526
46986SOL    HW142855   0.331   8.985   1.521
46986SOL    HW242856   0.322   9.121   1.454
46987SOL     OW42857   6.734  11.571   2.807
46987SOL    HW142858   6.718  11.658   2.772
46987SOL    HW242859   6.653  11.550   2.855
46988SOL     OW42860  11.664  14.566   9.299
46988SOL    HW142861  11.643  14.547   9.390
46988SOL    HW242862  11.673  14.480   9.257
46989SOL     OW42863   6.283   0.072   7.834
46989SOL    HW142864   6.280  14.849   7.810
46989SOL    HW242865   6.299   0.071   7.928
46990SOL     OW42866   4.809   4.519  12.828
46990SOL    HW142867   4.784   4.546  12.739
46990SOL    HW242868   4.740   4.554  12.884
46991SOL     OW42869   6.993   5.850  11.151
46991SOL    HW142870   6.998   5.889  11.063
46991SOL    HW242871   7.079   5.864  11.189
46992SOL     OW42872   2.745   3.791   0.321
46992SOL    HW142873   2.747   3.869   0.376
46992SOL    HW242874   2.804   3.729   0.365
46993SOL     OW42875   2.092  13.857   3.769
46993SOL    HW142876   2.143  13.853   3.688
46993SOL    HW242877   2.039  13.936   3.760
46994SOL     OW42878   5.868   2.935  11.136
46994SOL    HW142879   5.898   2.877  11.206
46994SOL    HW242880   5.778   2.908  11.118
46995SOL     OW42881   5.405  12.577   6.602
46995SOL    HW142882   5.387  12.516   6.675
46995SOL    HW242883   5.363  12.536   6.527
46996SOL     OW42884   7.626   6.435   5.882
46996SOL    HW142885   7.681   6.443   5.960
46996SOL    HW242886   7.622   6.523   5.846
46997SOL     OW42887   1.311   8.331   9.640
46997SOL    HW142888   1.384   8.288   9.596
46997SOL    HW242889   1.307   8.289   9.726
46998SOL     OW42890   2.589   3.853   5.904
46998SOL    HW142891   2.622   3.942   5.913
46998SOL    HW242892   2.550   3.852   5.816
46999SOL     OW42893   7.556   2.727   1.623
46999SOL    HW142894   7.519   2.809   1.592
46999SOL    HW242895   7.614   2.753   1.694
47000SOL     OW42896  12.348   4.965   7.976
47000SOL    HW142897  12.385   4.878   7.989
47000SOL    HW242898  12.322   4.993   8.064
47001SOL     OW42899   2.834   8.585   5.674
47001SOL    HW142900   2.806   8.501   5.710
47001SOL    HW242901   2.779   8.597   5.596
47002SOL     OW42902   5.634  10.238   7.995
47002SOL    HW142903   5.710  10.293   7.978
47002SOL    HW242904   5.560  10.290   7.962
47003SOL     OW42905   1.548   8.936  10.966
47003SOL    HW142906   1.479   8.904  11.024
47003SOL    HW242907   1.621   8.957  11.024
47004SOL     OW42908   6.450  12.451   5.345
47004SOL    HW142909   6.416  12.363   5.362
47004SOL    HW242910   6.372  12.506   5.337
47005SOL     OW42911   0.072   7.366   8.066
47005SOL    HW142912   0.159   7.329   8.053
47005SOL    HW242913   0.066   7.382   8.160
47006SOL     OW42914   7.030  13.820   5.356
47006SOL    HW142915   7.107  13.833   5.301
47006SOL    HW242916   7.001  13.731   5.337
47007SOL     OW42917   0.741   2.424  13.833
47007SOL    HW142918   0.766   2.438  13.925
47007SOL    HW242919   0.726   2.329  13.827
47008SOL     OW42920   6.792   8.131  12.649
47008SOL    HW142921   6.858   8.079  12.695
47008SOL    HW242922   6.730   8.066  12.614
47009SOL     OW42923  12.981  10.073  10.287
47009SOL    HW142924  12.968  10.092  10.194
47009SOL    HW242925  12.995   9.978  10.290
47010SOL     OW42926   2.278  11.210  12.908
47010SOL    HW142927   2.191  11.180  12.882
47010SOL    HW242928   2.299  11.158  12.986
47011SOL     OW42929  12.683   2.045  11.495
47011SOL    HW142930  12.690   2.075  11.586
47011SOL    HW242931  12.639   1.960  11.502
47012SOL     OW42932   9.139  11.515   2.480
47012SOL    HW142933   9.101  11.442   2.529
47012SOL    HW242934   9.095  11.512   2.395
47013SOL     OW42935   6.622   0.444  10.295
47013SOL    HW142936   6.612   0.458  10.389
47013SOL    HW242937   6.687   0.374  10.288
47014SOL     OW42938  12.050   2.857   6.902
47014SOL    HW142939  12.043   2.864   6.998
47014SOL    HW242940  11.960   2.855   6.871
47015SOL     OW42941   6.827   7.361  12.460
47015SOL    HW142942   6.853   7.290  12.519
47015SOL    HW242943   6.756   7.325  12.408
47016SOL     OW42944  12.483   9.574  11.362
47016SOL    HW142945  12.545   9.641  11.391
47016SOL    HW242946  12.400   9.620  11.349
47017SOL     OW42947   3.055  14.747  11.805
47017SOL    HW142948   3.092  14.834  11.818
47017SOL    HW242949   3.130  14.692  11.782
47018SOL     OW42950   3.182   5.464   8.366
47018SOL    HW142951   3.210   5.553   8.344
47018SOL    HW242952   3.130   5.436   8.291
47019SOL     OW42953   9.984   5.452  14.222
47019SOL    HW142954  10.075   5.477  14.236
47019SOL    HW242955   9.960   5.404  14.302
47020SOL     OW42956   1.155   2.913  13.701
47020SOL    HW142957   1.246   2.942  13.692
47020SOL    HW242958   1.131   2.882  13.613
47021SOL     OW42959   7.331   9.591   8.179
47021SOL    HW142960   7.280   9.654   8.231
47021SOL    HW242961   7.314   9.507   8.220
47022SOL     OW42962   5.085   7.155  11.157
47022SOL    HW142963   5.080   7.072  11.109
47022SOL    HW242964   5.023   7.144  11.230
47023SOL     OW42965   3.776   6.778   0.179
47023SOL    HW142966   3.681   6.771   0.189
47023SOL    HW242967   3.792   6.762   0.085
47024SOL     OW42968  13.356  10.236  14.353
47024SOL    HW142969  13.270  10.217  14.316
47024SOL    HW242970  13.418  10.202  14.289
47025SOL     OW42971   3.524   8.362   1.170
47025SOL    HW142972   3.493   8.275   1.144
47025SOL    HW242973   3.608   8.346   1.213
47026SOL     OW42974   4.310   6.143  13.977
47026SOL    HW142975   4.220   6.115  13.961
47026SOL    HW242976   4.327   6.118  14.068
47027SOL     OW42977  14.670   6.683  13.675
47027SOL    HW142978  14.612   6.699  13.750
47027SOL    HW242979  14.716   6.603  13.697
47028SOL     OW42980   5.204   2.362   7.027
47028SOL    HW142981   5.140   2.419   6.985
47028SOL    HW242982   5.195   2.278   6.981
47029SOL     OW42983  13.633   5.157   4.375
47029SOL    HW142984  13.564   5.215   4.409
47029SOL    HW242985  13.677   5.209   4.308
47030SOL     OW42986  11.249  14.050   4.801
47030SOL    HW142987  11.257  14.046   4.705
47030SOL    HW242988  11.155  14.042   4.817
47031SOL     OW42989  12.576  14.291   9.113
47031SOL    HW142990  12.591  14.275   9.020
47031SOL    HW242991  12.606  14.211   9.157
47032SOL     OW42992   4.633   2.470   6.530
47032SOL    HW142993   4.580   2.416   6.471
47032SOL    HW242994   4.616   2.433   6.617
47033SOL     OW42995   3.535   9.039   2.426
47033SOL    HW142996   3.574   9.095   2.358
47033SOL    HW242997   3.451   9.080   2.445
47034SOL     OW42998   8.550   7.452  12.652
47034SOL    HW142999   8.474   7.473  12.598
47034SOL    HW243000   8.575   7.535  12.692
47035SOL     OW43001   1.026   1.095  10.687
47035SOL    HW143002   0.998   1.168  10.742
47035SOL    HW243003   1.090   1.133  10.627
47036SOL     OW43004  11.389  10.370   9.647
47036SOL    HW143005  11.474  10.378   9.691
47036SOL    HW243006  11.325  10.386   9.715
47037SOL     OW43007  11.746  11.572   9.600
47037SOL    HW143008  11.732  11.595   9.692
47037SOL    HW243009  11.682  11.503   9.583
47038SOL     OW43010  13.621   2.721  11.663
47038SOL    HW143011  13.526   2.716  11.652
47038SOL    HW243012  13.648   2.631  11.682
47039SOL     OW43013   1.651   7.653   4.270
47039SOL    HW143014   1.602   7.679   4.192
47039SOL    HW243015   1.728   7.606   4.236
47040SOL     OW43016   8.078   6.450   8.410
47040SOL    HW143017   8.104   6.528   8.362
47040SOL    HW243018   8.063   6.384   8.343
47041SOL     OW43019   1.540   6.964  10.137
47041SOL    HW143020   1.504   7.037  10.087
47041SOL    HW243021   1.561   7.001  10.222
47042SOL     OW43022  13.935   4.194  14.650
47042SOL    HW143023  13.918   4.283  14.682
47042SOL    HW243024  13.931   4.140  14.729
47043SOL     OW43025  12.463  11.604   3.596
47043SOL    HW143026  12.532  11.593   3.661
47043SOL    HW243027  12.387  11.635   3.646
47044SOL     OW43028   1.703  12.026   0.741
47044SOL    HW143029   1.653  12.096   0.783
47044SOL    HW243030   1.708  11.958   0.808
47045SOL     OW43031   2.903   5.224  10.186
47045SOL    HW143032   2.896   5.146  10.241
47045SOL    HW243033   2.979   5.207  10.130
47046SOL     OW43034   8.211   7.065   9.408
47046SOL    HW143035   8.232   7.104   9.493
47046SOL    HW243036   8.259   7.119   9.344
47047SOL     OW43037  13.038   1.457   6.043
47047SOL    HW143038  13.009   1.509   5.968
47047SOL    HW243039  13.129   1.435   6.024
47048SOL     OW43040   9.234   8.973   0.032
47048SOL    HW143041   9.214   8.973   0.126
47048SOL    HW243042   9.233   8.880   0.007
47049SOL     OW43043   0.911  14.316  10.853
47049SOL    HW143044   0.985  14.283  10.905
47049SOL    HW243045   0.877  14.239  10.807
47050SOL     OW43046  11.839   4.008  11.970
47050SOL    HW143047  11.931   3.983  11.965
47050SOL    HW243048  11.798   3.962  11.896
47051SOL     OW43049  11.440   8.223  13.920
47051SOL    HW143050  11.345   8.210  13.922
47051SOL    HW243051  11.460   8.264  14.004
47052SOL     OW43052   6.967  11.022  14.506
47052SOL    HW143053   6.908  10.971  14.561
47052SOL    HW243054   7.045  10.967  14.498
47053SOL     OW43055  12.466   2.001   3.104
47053SOL    HW143056  12.438   1.988   3.195
47053SOL    HW243057  12.388   1.984   3.052
47054SOL     OW43058   6.537   0.514   5.362
47054SOL    HW143059   6.506   0.447   5.301
47054SOL    HW243060   6.599   0.468   5.420
47055SOL     OW43061  14.251  11.982   2.481
47055SOL    HW143062  14.249  11.921   2.555
47055SOL    HW243063  14.169  11.967   2.435
47056SOL     OW43064   2.356   4.666   6.175
47056SOL    HW143065   2.355   4.596   6.240
47056SOL    HW243066   2.349   4.621   6.091
47057SOL     OW43067  12.494   1.135  12.079
47057SOL    HW143068  12.413   1.095  12.111
47057SOL    HW243069  12.488   1.128  11.984
47058SOL     OW43070  12.851   2.228  12.991
47058SOL    HW143071  12.904   2.161  13.033
47058SOL    HW243072  12.762   2.212  13.023
47059SOL     OW43073   1.287   7.270   4.266
47059SOL    HW143074   1.210   7.308   4.308
47059SOL    HW243075   1.277   7.291   4.173
47060SOL     OW43076   4.628   3.290   5.902
47060SOL    HW143077   4.689   3.302   5.974
47060SOL    HW243078   4.567   3.223   5.933
47061SOL     OW43079   0.542  12.068   8.907
47061SOL    HW143080   0.540  11.991   8.850
47061SOL    HW243081   0.529  12.033   8.995
47062SOL     OW43082   4.277   1.412  14.452
47062SOL    HW143083   4.315   1.476  14.511
47062SOL    HW243084   4.201   1.378  14.500
47063SOL     OW43085   6.674   9.396   7.601
47063SOL    HW143086   6.588   9.358   7.587
47063SOL    HW243087   6.732   9.321   7.615
47064SOL     OW43088   3.181   2.067   6.929
47064SOL    HW143089   3.171   2.120   7.008
47064SOL    HW243090   3.205   2.129   6.861
47065SOL     OW43091  13.020  11.019   7.325
47065SOL    HW143092  12.984  11.106   7.308
47065SOL    HW243093  13.078  11.001   7.251
47066SOL     OW43094   2.603   3.284  11.215
47066SOL    HW143095   2.556   3.310  11.136
47066SOL    HW243096   2.557   3.328  11.286
47067SOL     OW43097  11.590   0.008   1.639
47067SOL    HW143098  11.577   0.086   1.692
47067SOL    HW243099  11.667   0.028   1.585
47068SOL     OW43100   7.322   4.323  14.459
47068SOL    HW143101   7.308   4.414  14.433
47068SOL    HW243102   7.283   4.272  14.388
47069SOL     OW43103   0.802  11.544   0.157
47069SOL    HW143104   0.719  11.583   0.184
47069SOL    HW243105   0.778  11.459   0.121
47070SOL     OW43106   7.994   1.829   8.555
47070SOL    HW143107   8.082   1.857   8.582
47070SOL    HW243108   7.947   1.910   8.539
47071SOL     OW43109   6.240   0.642  13.980
47071SOL    HW143110   6.268   0.734  13.986
47071SOL    HW243111   6.175   0.642  13.910
47072SOL     OW43112   9.640   4.138  14.685
47072SOL    HW143113   9.613   4.181  14.603
47072SOL    HW243114   9.627   4.045  14.668
47073SOL     OW43115   3.787  11.488  11.456
47073SOL    HW143116   3.704  11.499  11.410
47073SOL    HW243117   3.764  11.487  11.549
47074SOL     OW43118   8.938   1.953   5.907
47074SOL    HW143119   8.938   1.863   5.872
47074SOL    HW243120   8.892   2.004   5.840
47075SOL     OW43121  11.254  11.987   5.231
47075SOL    HW143122  11.241  11.914   5.291
47075SOL    HW243123  11.319  12.042   5.274
47076SOL     OW43124  14.573   4.623  10.656
47076SOL    HW143125  14.620   4.571  10.721
47076SOL    HW243126  14.613   4.599  10.572
47077SOL     OW43127   1.090  13.328   3.166
47077SOL    HW143128   1.031  13.361   3.234
47077SOL    HW243129   1.177  13.344   3.201
47078SOL     OW43130   7.286   8.305  11.072
47078SOL    HW143131   7.236   8.311  10.990
47078SOL    HW243132   7.229   8.255  11.131
47079SOL     OW43133   9.999   5.562   7.810
47079SOL    HW143134   9.992   5.657   7.822
47079SOL    HW243135  10.094   5.545   7.812
47080SOL     OW43136   1.948   0.247   6.533
47080SOL    HW143137   1.998   0.166   6.544
47080SOL    HW243138   1.997   0.313   6.581
47081SOL     OW43139  11.549   9.416  11.703
47081SOL    HW143140  11.482   9.379  11.646
47081SOL    HW243141  11.618   9.445  11.644
47082SOL     OW43142   1.276   5.838   1.095
47082SOL    HW143143   1.237   5.790   1.022
47082SOL    HW243144   1.368   5.849   1.071
47083SOL     OW43145   2.754   7.576   4.643
47083SOL    HW143146   2.835   7.536   4.674
47083SOL    HW243147   2.686   7.513   4.666
47084SOL     OW43148  13.792   6.266   3.586
47084SOL    HW143149  13.856   6.237   3.521
47084SOL    HW243150  13.822   6.227   3.668
47085SOL     OW43151   9.524  12.006  10.408
47085SOL    HW143152   9.469  12.064  10.460
47085SOL    HW243153   9.469  11.929  10.393
47086SOL     OW43154   8.464  12.092   5.852
47086SOL    HW143155   8.427  12.066   5.768
47086SOL    HW243156   8.548  12.131   5.831
47087SOL     OW43157   7.300  14.553   8.873
47087SOL    HW143158   7.306  14.595   8.787
47087SOL    HW243159   7.286  14.461   8.853
47088SOL     OW43160  12.101   4.855   4.469
47088SOL    HW143161  12.101   4.775   4.416
47088SOL    HW243162  12.082   4.825   4.558
47089SOL     OW43163   7.654   1.641  13.155
47089SOL    HW143164   7.701   1.623  13.237
47089SOL    HW243165   7.588   1.707  13.179
47090SOL     OW43166   5.379   2.450   5.519
47090SOL    HW143167   5.338   2.519   5.465
47090SOL    HW243168   5.407   2.496   5.598
47091SOL     OW43169   3.604   7.867  10.247
47091SOL    HW143170   3.562   7.946  10.211
47091SOL    HW243171   3.685   7.899  10.286
47092SOL     OW43172   4.253   3.116  13.246
47092SOL    HW143173   4.190   3.101  13.316
47092SOL    HW243174   4.246   3.209  13.226
47093SOL     OW43175   3.996   8.992  10.450
47093SOL    HW143176   4.042   8.995  10.534
47093SOL    HW243177   4.061   9.020  10.386
47094SOL     OW43178  12.017   7.500  10.246
47094SOL    HW143179  12.045   7.428  10.302
47094SOL    HW243180  12.068   7.491  10.166
47095SOL     OW43181  13.102  11.495  13.095
47095SOL    HW143182  13.111  11.506  13.001
47095SOL    HW243183  13.066  11.407  13.106
47096SOL     OW43184   6.884   9.957   1.205
47096SOL    HW143185   6.832  10.036   1.187
47096SOL    HW243186   6.952   9.987   1.266
47097SOL     OW43187  14.663   0.022   4.922
47097SOL    HW143188  14.726   0.091   4.942
47097SOL    HW243189  14.711  14.831   4.865
47098SOL     OW43190   2.957  14.433   0.807
47098SOL    HW143191   3.010  14.498   0.853
47098SOL    HW243192   2.867  14.461   0.823
47099SOL     OW43193   2.264  14.840   1.971
47099SOL    HW143194   2.273   0.057   2.012
47099SOL    HW243195   2.201  14.794   2.026
47100SOL     OW43196   7.279   4.656   3.544
47100SOL    HW143197   7.361   4.610   3.526
47100SOL    HW243198   7.287   4.738   3.495
47101SOL     OW43199   3.066   3.531   4.951
47101SOL    HW143200   3.113   3.471   4.892
47101SOL    HW243201   3.041   3.605   4.895
47102SOL     OW43202  14.692   6.072   5.607
47102SOL    HW143203  14.736   6.133   5.548
47102SOL    HW243204  14.637   6.019   5.550
47103SOL     OW43205   2.270   7.913   5.917
47103SOL    HW143206   2.324   7.886   5.991
47103SOL    HW243207   2.184   7.877   5.937
47104SOL     OW43208   6.463  12.014   9.502
47104SOL    HW143209   6.435  11.945   9.562
47104SOL    HW243210   6.437  11.982   9.415
47105SOL     OW43211  12.347  10.421  12.629
47105SOL    HW143212  12.434  10.459  12.636
47105SOL    HW243213  12.287  10.496  12.630
47106SOL     OW43214   7.235  11.121   8.065
47106SOL    HW143215   7.252  11.070   8.144
47106SOL    HW243216   7.234  11.212   8.094
47107SOL     OW43217  13.057  10.385  14.093
47107SOL    HW143218  12.962  10.391  14.100
47107SOL    HW243219  13.087  10.476  14.100
47108SOL     OW43220   3.769   7.513   4.658
47108SOL    HW143221   3.759   7.437   4.715
47108SOL    HW243222   3.810   7.580   4.713
47109SOL     OW43223   9.565   7.183   9.964
47109SOL    HW143224   9.614   7.242   9.905
47109SOL    HW243225   9.544   7.237  10.040
47110SOL     OW43226   2.957   6.283   9.838
47110SOL    HW143227   2.934   6.376   9.844
47110SOL    HW243228   2.876   6.237   9.862
47111SOL     OW43229   0.437   9.617   5.881
47111SOL    HW143230   0.459   9.691   5.825
47111SOL    HW243231   0.508   9.555   5.869
47112SOL     OW43232  12.728   7.966   6.508
47112SOL    HW143233  12.783   7.933   6.578
47112SOL    HW243234  12.663   7.897   6.493
47113SOL     OW43235   6.941  11.537   8.192
47113SOL    HW143236   6.981  11.603   8.135
47113SOL    HW243237   6.999  11.461   8.184
47114SOL     OW43238  11.875   0.834   7.669
47114SOL    HW143239  11.792   0.876   7.649
47114SOL    HW243240  11.937   0.906   7.679
47115SOL     OW43241  10.830   7.896   1.681
47115SOL    HW143242  10.901   7.846   1.640
47115SOL    HW243243  10.847   7.888   1.775
47116SOL     OW43244  13.207   4.036   2.874
47116SOL    HW143245  13.233   3.959   2.822
47116SOL    HW243246  13.111   4.031   2.877
47117SOL     OW43247  14.429   2.954   9.243
47117SOL    HW143248  14.443   2.959   9.337
47117SOL    HW243249  14.514   2.928   9.207
47118SOL     OW43250   9.726  10.329  13.474
47118SOL    HW143251   9.760  10.242  13.496
47118SOL    HW243252   9.638  10.331  13.512
47119SOL     OW43253   9.382   1.298   5.848
47119SOL    HW143254   9.377   1.361   5.776
47119SOL    HW243255   9.369   1.350   5.927
47120SOL     OW43256   4.271   5.409   9.105
47120SOL    HW143257   4.176   5.411   9.092
47120SOL    HW243258   4.295   5.317   9.095
47121SOL     OW43259   4.381   5.192  12.264
47121SOL    HW143260   4.373   5.120  12.327
47121SOL    HW243261   4.475   5.199  12.247
47122SOL     OW43262  12.756  10.330  10.026
47122SOL    HW143263  12.767  10.416   9.987
47122SOL    HW243264  12.678  10.337  10.081
47123SOL     OW43265  13.260  11.163   1.831
47123SOL    HW143266  13.347  11.148   1.794
47123SOL    HW243267  13.200  11.147   1.759
47124SOL     OW43268  12.453   5.450   8.789
47124SOL    HW143269  12.476   5.537   8.823
47124SOL    HW243270  12.440   5.463   8.696
47125SOL     OW43271   1.893   9.262   6.296
47125SOL    HW143272   1.837   9.246   6.371
47125SOL    HW243273   1.906   9.175   6.256
47126SOL     OW43274   8.875   0.016  10.534
47126SOL    HW143275   8.969   0.011  10.550
47126SOL    HW243276   8.849   0.102  10.566
47127SOL     OW43277   3.702   7.304   5.205
47127SOL    HW143278   3.780   7.267   5.246
47127SOL    HW243279   3.734   7.348   5.126
47128SOL     OW43280   7.889  12.390   4.110
47128SOL    HW143281   7.877  12.404   4.204
47128SOL    HW243282   7.946  12.314   4.104
47129SOL     OW43283   3.650   8.803   5.497
47129SOL    HW143284   3.663   8.736   5.565
47129SOL    HW243285   3.562   8.838   5.514
47130SOL     OW43286   5.680  10.090   5.236
47130SOL    HW143287   5.645  10.178   5.220
47130SOL    HW243288   5.698  10.089   5.330
47131SOL     OW43289  11.076   2.419   3.725
47131SOL    HW143290  11.034   2.491   3.773
47131SOL    HW243291  11.107   2.360   3.793
47132SOL     OW43292  10.132   7.804  12.229
47132SOL    HW143293  10.157   7.877  12.286
47132SOL    HW243294  10.209   7.747  12.227
47133SOL     OW43295   8.873   2.758   3.218
47133SOL    HW143296   8.947   2.789   3.165
47133SOL    HW243297   8.807   2.826   3.208
47134SOL     OW43298   6.580  14.063   7.527
47134SOL    HW143299   6.549  14.115   7.601
47134SOL    HW243300   6.600  14.127   7.459
47135SOL     OW43301   2.889   9.427   0.156
47135SOL    HW143302   2.882   9.348   0.103
47135SOL    HW243303   2.983   9.441   0.166
47136SOL     OW43304   0.559   5.094   2.542
47136SOL    HW143305   0.537   5.173   2.592
47136SOL    HW243306   0.652   5.080   2.560
47137SOL     OW43307  11.636  10.783  12.354
47137SOL    HW143308  11.654  10.721  12.424
47137SOL    HW243309  11.544  10.769  12.332
47138SOL     OW43310  14.194  12.653   4.723
47138SOL    HW143311  14.252  12.594   4.674
47138SOL    HW243312  14.223  12.646   4.814
47139SOL     OW43313  14.633   1.782   8.477
47139SOL    HW143314  14.682   1.718   8.426
47139SOL    HW243315  14.565   1.813   8.417
47140SOL     OW43316   6.102  14.154  14.624
47140SOL    HW143317   6.041  14.225  14.606
47140SOL    HW243318   6.170  14.193  14.679
47141SOL     OW43319  13.481   7.733   6.660
47141SOL    HW143320  13.469   7.743   6.566
47141SOL    HW243321  13.470   7.822   6.695
47142SOL     OW43322   1.173  10.634   5.182
47142SOL    HW143323   1.234  10.616   5.110
47142SOL    HW243324   1.095  10.583   5.161
47143SOL     OW43325   0.131   6.896   0.210
47143SOL    HW143326   0.141   6.864   0.120
47143SOL    HW243327   0.180   6.833   0.263
47144SOL     OW43328  14.702   7.520  11.804
47144SOL    HW143329  14.777   7.461  11.796
47144SOL    HW243330  14.632   7.476  11.757
47145SOL     OW43331   4.720   2.639   0.665
47145SOL    HW143332   4.677   2.696   0.602
47145SOL    HW243333   4.649   2.588   0.704
47146SOL     OW43334   4.282   5.188   3.755
47146SOL    HW143335   4.193   5.203   3.786
47146SOL    HW243336   4.274   5.114   3.694
47147SOL     OW43337   8.712  11.190  13.788
47147SOL    HW143338   8.769  11.218  13.860
47147SOL    HW243339   8.769  11.188  13.712
47148SOL     OW43340  12.135   9.343   5.385
47148SOL    HW143341  12.049   9.316   5.416
47148SOL    HW243342  12.192   9.270   5.407
47149SOL     OW43343   9.320   0.325   6.058
47149SOL    HW143344   9.347   0.245   6.103
47149SOL    HW243345   9.225   0.321   6.054
47150SOL     OW43346  10.953  12.573   6.200
47150SOL    HW143347  10.936  12.603   6.111
47150SOL    HW243348  10.926  12.481   6.199
47151SOL     OW43349   7.336   2.888   5.572
47151SOL    HW143350   7.318   2.976   5.539
47151SOL    HW243351   7.403   2.900   5.640
47152SOL     OW43352  11.828   1.596  11.910
47152SOL    HW143353  11.763   1.531  11.880
47152SOL    HW243354  11.785   1.680  11.896
47153SOL     OW43355  14.375   7.760  13.309
47153SOL    HW143356  14.455   7.747  13.258
47153SOL    HW243357  14.355   7.853  13.300
47154SOL     OW43358   8.211  12.727   3.772
47154SOL    HW143359   8.129  12.776   3.779
47154SOL    HW243360   8.229  12.723   3.678
47155SOL     OW43361   8.067  12.220  11.753
47155SOL    HW143362   8.131  12.284  11.720
47155SOL    HW243363   7.995  12.273  11.787
47156SOL     OW43364   8.296  13.263   0.903
47156SOL    HW143365   8.294  13.240   0.810
47156SOL    HW243366   8.234  13.336   0.911
47157SOL     OW43367   5.061   4.209  13.414
47157SOL    HW143368   5.020   4.295  13.414
47157SOL    HW243369   5.153   4.227  13.394
47158SOL     OW43370   5.659   9.860   8.400
47158SOL    HW143371   5.613   9.826   8.477
47158SOL    HW243372   5.601   9.840   8.327
47159SOL     OW43373   4.645  11.896   9.394
47159SOL    HW143374   4.684  11.841   9.326
47159SOL    HW243375   4.551  11.891   9.377
47160SOL     OW43376  12.224   5.565   1.626
47160SOL    HW143377  12.178   5.614   1.695
47160SOL    HW243378  12.178   5.588   1.546
47161SOL     OW43379   7.421  10.896  10.448
47161SOL    HW143380   7.457  10.861  10.530
47161SOL    HW243381   7.327  10.878  10.454
47162SOL     OW43382   1.340   4.926   7.717
47162SOL    HW143383   1.347   4.915   7.623
47162SOL    HW243384   1.400   4.998   7.738
47163SOL     OW43385   1.790   4.573   8.789
47163SOL    HW143386   1.705   4.564   8.746
47163SOL    HW243387   1.852   4.585   8.717
47164SOL     OW43388  10.702   3.935  14.178
47164SOL    HW143389  10.695   3.951  14.273
47164SOL    HW243390  10.705   4.023  14.140
47165SOL     OW43391   9.735   7.798  13.407
47165SOL    HW143392   9.657   7.816  13.459
47165SOL    HW243393   9.725   7.707  13.379
47166SOL     OW43394  12.435   2.781   4.628
47166SOL    HW143395  12.364   2.717   4.629
47166SOL    HW243396  12.479   2.769   4.712
47167SOL     OW43397  12.451   0.672  11.820
47167SOL    HW143398  12.466   0.737  11.751
47167SOL    HW243399  12.376   0.706  11.869
47168SOL     OW43400   2.006   2.411   9.335
47168SOL    HW143401   1.952   2.482   9.301
47168SOL    HW243402   1.994   2.339   9.272
47169SOL     OW43403   6.157  10.018   4.170
47169SOL    HW143404   6.127  10.103   4.137
47169SOL    HW243405   6.138  10.020   4.264
47170SOL     OW43406  13.048   2.207  13.798
47170SOL    HW143407  13.003   2.274  13.849
47170SOL    HW243408  12.992   2.195  13.721
47171SOL     OW43409   4.930   7.175   4.358
47171SOL    HW143410   4.964   7.245   4.302
47171SOL    HW243411   4.976   7.096   4.328
47172SOL     OW43412  14.284  14.377  13.029
47172SOL    HW143413  14.347  14.417  13.089
47172SOL    HW243414  14.210  14.438  13.028
47173SOL     OW43415   5.022   4.815   8.527
47173SOL    HW143416   5.033   4.740   8.468
47173SOL    HW243417   5.110   4.834   8.558
47174SOL     OW43418  13.599  14.471   6.430
47174SOL    HW143419  13.604  14.382   6.393
47174SOL    HW243420  13.510  14.476   6.466
47175SOL     OW43421   2.863  14.048  11.049
47175SOL    HW143422   2.785  14.014  11.093
47175SOL    HW243423   2.917  13.971  11.033
47176SOL     OW43424   0.897  11.739   2.690
47176SOL    HW143425   0.916  11.830   2.711
47176SOL    HW243426   0.951  11.721   2.612
47177SOL     OW43427  11.515   5.608   8.159
47177SOL    HW143428  11.480   5.631   8.073
47177SOL    HW243429  11.575   5.535   8.142
47178SOL     OW43430   2.057   9.679  11.491
47178SOL    HW143431   2.080   9.765  11.457
47178SOL    HW243432   2.017   9.634  11.417
47179SOL     OW43433  13.629   1.499  11.877
47179SOL    HW143434  13.704   1.445  11.854
47179SOL    HW243435  13.586   1.452  11.949
47180SOL     OW43436  13.050   3.602   0.894
47180SOL    HW143437  13.087   3.634   0.976
47180SOL    HW243438  13.099   3.648   0.826
47181SOL     OW43439  13.498   1.080   0.664
47181SOL    HW143440  13.579   1.078   0.612
47181SOL    HW243441  13.433   1.035   0.610
47182SOL     OW43442   1.735   1.301  13.935
47182SOL    HW143443   1.683   1.268  14.008
47182SOL    HW243444   1.802   1.235  13.920
47183SOL     OW43445   3.249   6.841   9.254
47183SOL    HW143446   3.285   6.789   9.183
47183SOL    HW243447   3.239   6.780   9.327
47184SOL     OW43448  14.489   3.433  11.095
47184SOL    HW143449  14.435   3.433  11.174
47184SOL    HW243450  14.579   3.436  11.128
47185SOL     OW43451  11.152   4.881   5.922
47185SOL    HW143452  11.160   4.851   5.832
47185SOL    HW243453  11.084   4.948   5.918
47186SOL     OW43454   3.564   4.300   3.736
47186SOL    HW143455   3.585   4.287   3.828
47186SOL    HW243456   3.487   4.357   3.737
47187SOL     OW43457   0.800   2.872  11.516
47187SOL    HW143458   0.813   2.898  11.425
47187SOL    HW243459   0.854   2.932  11.567
47188SOL     OW43460  12.279  14.636   4.716
47188SOL    HW143461  12.324  14.575   4.658
47188SOL    HW243462  12.186  14.621   4.700
47189SOL     OW43463   2.990   1.300   5.356
47189SOL    HW143464   2.949   1.382   5.381
47189SOL    HW243465   3.016   1.313   5.265
47190SOL     OW43466   3.369   4.012   6.123
47190SOL    HW143467   3.339   4.070   6.052
47190SOL    HW243468   3.293   4.004   6.181
47191SOL     OW43469   5.444   5.644  10.831
47191SOL    HW143470   5.486   5.602  10.906
47191SOL    HW243471   5.408   5.726  10.867
47192SOL     OW43472   1.228  10.469   8.469
47192SOL    HW143473   1.156  10.506   8.520
47192SOL    HW243474   1.254  10.539   8.410
47193SOL     OW43475   5.223  14.841   9.145
47193SOL    HW143476   5.248  14.749   9.143
47193SOL    HW243477   5.239   0.002   9.056
47194SOL     OW43478   4.748   6.669   6.716
47194SOL    HW143479   4.836   6.639   6.739
47194SOL    HW243480   4.718   6.718   6.793
47195SOL     OW43481   6.568   2.224   6.786
47195SOL    HW143482   6.632   2.261   6.846
47195SOL    HW243483   6.617   2.159   6.735
47196SOL     OW43484  10.252   0.209   4.071
47196SOL    HW143485  10.221   0.257   4.148
47196SOL    HW243486  10.347   0.209   4.079
47197SOL     OW43487   6.321  12.828   8.302
47197SOL    HW143488   6.338  12.804   8.211
47197SOL    HW243489   6.310  12.744   8.347
47198SOL     OW43490  11.864   1.982   8.895
47198SOL    HW143491  11.936   2.007   8.838
47198SOL    HW243492  11.837   1.895   8.864
47199SOL     OW43493  13.958  11.181   8.616
47199SOL    HW143494  13.862  11.174   8.618
47199SOL    HW243495  13.983  11.176   8.708
47200SOL     OW43496   9.755   5.521  14.109
47200SOL    HW143497   9.730   5.599  14.159
47200SOL    HW243498   9.828   5.484  14.157
47201SOL     OW43499   6.083   1.142  13.902
47201SOL    HW143500   6.030   1.203  13.954
47201SOL    HW243501   6.073   1.058  13.947
47202SOL     OW43502  14.503  13.213   3.735
47202SOL    HW143503  14.502  13.205   3.640
47202SOL    HW243504  14.411  13.211   3.760
47203SOL     OW43505   7.376   0.280   2.531
47203SOL    HW143506   7.326   0.317   2.459
47203SOL    HW243507   7.405   0.194   2.498
47204SOL     OW43508   2.854   5.034  10.355
47204SOL    HW143509   2.818   5.097  10.417
47204SOL    HW243510   2.841   4.948  10.397
47205SOL     OW43511  11.189   3.171  13.276
47205SOL    HW143512  11.245   3.211  13.343
47205SOL    HW243513  11.154   3.093  13.318
47206SOL     OW43514  12.239   6.469   3.795
47206SOL    HW143515  12.165   6.421   3.758
47206SOL    HW243516  12.224   6.560   3.768
47207SOL     OW43517   7.227  13.498   8.820
47207SOL    HW143518   7.188  13.415   8.846
47207SOL    HW243519   7.210  13.556   8.894
47208SOL     OW43520   0.249  11.326   2.026
47208SOL    HW143521   0.337  11.288   2.027
47208SOL    HW243522   0.211  11.301   2.110
47209SOL     OW43523   1.318   4.048  11.227
47209SOL    HW143524   1.261   4.024  11.300
47209SOL    HW243525   1.312   3.974  11.166
47210SOL     OW43526   0.592   8.039   1.564
47210SOL    HW143527   0.540   7.961   1.584
47210SOL    HW243528   0.651   8.012   1.494
47211SOL     OW43529   2.410  12.330   4.351
47211SOL    HW143530   2.414  12.267   4.279
47211SOL    HW243531   2.318  12.358   4.353
47212SOL     OW43532   3.080  12.457  11.564
47212SOL    HW143533   2.988  12.431  11.558
47212SOL    HW243534   3.109  12.465  11.473
47213SOL     OW43535   7.087   9.536   8.759
47213SOL    HW143536   6.992   9.527   8.762
47213SOL    HW243537   7.109   9.523   8.667
47214SOL     OW43538   9.516  13.196   7.981
47214SOL    HW143539   9.563  13.236   7.907
47214SOL    HW243540   9.431  13.171   7.944
47215SOL     OW43541   6.311  12.495  13.120
47215SOL    HW143542   6.275  12.573  13.160
47215SOL    HW243543   6.296  12.506  13.026
47216SOL     OW43544   9.482   8.257   1.746
47216SOL    HW143545   9.548   8.237   1.680
47216SOL    HW243546   9.427   8.324   1.705
47217SOL     OW43547  14.285  14.125   4.552
47217SOL    HW143548  14.340  14.106   4.628
47217SOL    HW243549  14.320  14.207   4.517
47218SOL     OW43550   5.560   4.870   1.862
47218SOL    HW143551   5.508   4.801   1.903
47218SOL    HW243552   5.622   4.824   1.805
47219SOL     OW43553   5.752  14.411  11.411
47219SOL    HW143554   5.666  14.387  11.376
47219SOL    HW243555   5.740  14.414  11.506
47220SOL     OW43556  11.221   4.458   5.563
47220SOL    HW143557  11.219   4.553   5.552
47220SOL    HW243558  11.266   4.444   5.646
47221SOL     OW43559   3.504  13.408  10.519
47221SOL    HW143560   3.514  13.324  10.565
47221SOL    HW243561   3.419  13.402  10.476
47222SOL     OW43562   4.261   8.854   5.901
47222SOL    HW143563   4.278   8.909   5.978
47222SOL    HW243564   4.345   8.813   5.883
47223SOL     OW43565   9.066   3.648   7.608
47223SOL    HW143566   9.097   3.737   7.594
47223SOL    HW243567   8.977   3.646   7.572
47224SOL     OW43568   5.182  13.457   2.178
47224SOL    HW143569   5.114  13.412   2.229
47224SOL    HW243570   5.149  13.457   2.089
47225SOL     OW43571  10.585   7.967   8.527
47225SOL    HW143572  10.651   7.958   8.458
47225SOL    HW243573  10.514   7.909   8.499
47226SOL     OW43574   0.467   7.208  12.115
47226SOL    HW143575   0.502   7.145  12.052
47226SOL    HW243576   0.421   7.154  12.179
47227SOL     OW43577   3.895   8.050   3.272
47227SOL    HW143578   3.906   8.145   3.272
47227SOL    HW243579   3.862   8.030   3.184
47228SOL     OW43580   7.191  13.803   9.685
47228SOL    HW143581   7.261  13.811   9.750
47228SOL    HW243582   7.196  13.885   9.635
47229SOL     OW43583   5.879  12.280   4.994
47229SOL    HW143584   5.802  12.336   5.006
47229SOL    HW243585   5.854  12.220   4.923
47230SOL     OW43586   5.595   2.348   3.220
47230SOL    HW143587   5.506   2.383   3.209
47230SOL    HW243588   5.631   2.396   3.294
47231SOL     OW43589   5.275   7.216   6.485
47231SOL    HW143590   5.368   7.216   6.461
47231SOL    HW243591   5.232   7.262   6.414
47232SOL     OW43592   4.716  10.136  11.337
47232SOL    HW143593   4.707  10.173  11.425
47232SOL    HW243594   4.774  10.061  11.350
47233SOL     OW43595   3.118  13.689   6.867
47233SOL    HW143596   3.193  13.739   6.836
47233SOL    HW243597   3.077  13.745   6.933
47234SOL     OW43598   6.907   1.540   9.753
47234SOL    HW143599   6.929   1.460   9.800
47234SOL    HW243600   6.940   1.525   9.664
47235SOL     OW43601  12.783   0.080  10.787
47235SOL    HW143602  12.747  14.861  10.794
47235SOL    HW243603  12.714   0.130  10.743
47236SOL     OW43604   6.953  13.146  13.258
47236SOL    HW143605   6.917  13.215  13.202
47236SOL    HW243606   6.896  13.070  13.243
47237SOL     OW43607   7.158   1.285  10.835
47237SOL    HW143608   7.094   1.285  10.764
47237SOL    HW243609   7.126   1.351  10.897
47238SOL     OW43610   1.676   4.874  14.245
47238SOL    HW143611   1.744   4.919  14.295
47238SOL    HW243612   1.708   4.785  14.235
47239SOL     OW43613   9.276  14.392   7.357
47239SOL    HW143614   9.219  14.338   7.302
47239SOL    HW243615   9.305  14.333   7.426
47240SOL     OW43616   5.262   3.490   3.014
47240SOL    HW143617   5.235   3.467   3.103
47240SOL    HW243618   5.355   3.513   3.023
47241SOL     OW43619  12.256   2.833   4.997
47241SOL    HW143620  12.167   2.797   4.993
47241SOL    HW243621  12.245   2.928   4.992
47242SOL     OW43622  14.762  11.508   1.247
47242SOL    HW143623  14.680  11.556   1.236
47242SOL    HW243624  14.769  11.455   1.168
47243SOL     OW43625  14.861  13.568   6.875
47243SOL    HW143626  14.835  13.658   6.895
47243SOL    HW243627   0.087  13.572   6.867
47244SOL     OW43628  14.033   4.916   5.852
47244SOL    HW143629  14.012   4.978   5.921
47244SOL    HW243630  13.982   4.838   5.873
47245SOL     OW43631   8.048   8.332  12.990
47245SOL    HW143632   8.056   8.410  12.935
47245SOL    HW243633   7.961   8.338  13.028
47246SOL     OW43634   0.641   1.210  12.775
47246SOL    HW143635   0.597   1.280  12.822
47246SOL    HW243636   0.581   1.185  12.706
47247SOL     OW43637   2.883   7.951   6.595
47247SOL    HW143638   2.979   7.946   6.595
47247SOL    HW243639   2.854   7.860   6.591
47248SOL     OW43640  12.197   7.773   1.498
47248SOL    HW143641  12.148   7.711   1.553
47248SOL    HW243642  12.186   7.858   1.542
47249SOL     OW43643   7.261   9.125   1.840
47249SOL    HW143644   7.320   9.109   1.767
47249SOL    HW243645   7.261   9.043   1.889
47250SOL     OW43646   5.195   2.864   6.020
47250SOL    HW143647   5.102   2.887   6.017
47250SOL    HW243648   5.218   2.847   5.929
47251SOL     OW43649   8.607   8.617   5.620
47251SOL    HW143650   8.536   8.674   5.649
47251SOL    HW243651   8.566   8.555   5.560
47252SOL     OW43652   2.751   0.696  10.534
47252SOL    HW143653   2.764   0.776  10.585
47252SOL    HW243654   2.817   0.700  10.465
47253SOL     OW43655   3.843  14.078   1.731
47253SOL    HW143656   3.805  14.152   1.684
47253SOL    HW243657   3.864  14.014   1.662
47254SOL     OW43658   0.921   8.606   1.354
47254SOL    HW143659   0.954   8.650   1.275
47254SOL    HW243660   0.844   8.658   1.379
47255SOL     OW43661   1.996   7.597   7.004
47255SOL    HW143662   2.082   7.595   7.046
47255SOL    HW243663   1.984   7.689   6.977
47256SOL     OW43664  11.493  11.947  14.781
47256SOL    HW143665  11.562  11.975  14.842
47256SOL    HW243666  11.538  11.892  14.717
47257SOL     OW43667  10.928   5.724   4.647
47257SOL    HW143668  11.020   5.699   4.638
47257SOL    HW243669  10.921   5.809   4.603
47258SOL     OW43670  12.423  13.585  13.010
47258SOL    HW143671  12.382  13.583  12.924
47258SOL    HW243672  12.450  13.494  13.025
47259SOL     OW43673   5.295   2.265  10.779
47259SOL    HW143674   5.327   2.279  10.690
47259SOL    HW243675   5.345   2.328  10.832
47260SOL     OW43676  10.970   8.018   4.762
47260SOL    HW143677  10.937   7.935   4.725
47260SOL    HW243678  10.899   8.049   4.818
47261SOL     OW43679   7.117   2.726   6.696
47261SOL    HW143680   7.159   2.673   6.764
47261SOL    HW243681   7.062   2.665   6.648
47262SOL     OW43682   3.650   7.034   2.744
47262SOL    HW143683   3.559   7.009   2.756
47262SOL    HW243684   3.680   7.056   2.833
47263SOL     OW43685   4.212   0.533   6.812
47263SOL    HW143686   4.187   0.618   6.849
47263SOL    HW243687   4.299   0.516   6.848
47264SOL     OW43688   8.306   6.694   2.013
47264SOL    HW143689   8.309   6.782   1.975
47264SOL    HW243690   8.215   6.683   2.042
47265SOL     OW43691   8.076   9.859   5.772
47265SOL    HW143692   7.985   9.878   5.795
47265SOL    HW243693   8.077   9.861   5.676
47266SOL     OW43694   4.799   4.526   7.261
47266SOL    HW143695   4.797   4.457   7.194
47266SOL    HW243696   4.789   4.479   7.344
47267SOL     OW43697   5.017   9.693  12.575
47267SOL    HW143698   5.028   9.783  12.605
47267SOL    HW243699   4.956   9.654  12.638
47268SOL     OW43700  12.057   8.607   9.120
47268SOL    HW143701  12.038   8.600   9.026
47268SOL    HW243702  11.996   8.673   9.152
47269SOL     OW43703  12.375   9.232  13.348
47269SOL    HW143704  12.345   9.294  13.414
47269SOL    HW243705  12.394   9.152  13.396
47270SOL     OW43706   5.701   4.922   2.801
47270SOL    HW143707   5.704   4.831   2.828
47270SOL    HW243708   5.659   4.921   2.714
47271SOL     OW43709  10.487   2.110  12.138
47271SOL    HW143710  10.512   2.162  12.062
47271SOL    HW243711  10.405   2.068  12.113
47272SOL     OW43712   1.673   1.398   5.331
47272SOL    HW143713   1.618   1.323   5.309
47272SOL    HW243714   1.743   1.397   5.265
47273SOL     OW43715   9.889   1.343   4.036
47273SOL    HW143716   9.832   1.366   3.963
47273SOL    HW243717   9.850   1.263   4.072
47274SOL     OW43718   2.808   1.790   0.336
47274SOL    HW143719   2.806   1.799   0.431
47274SOL    HW243720   2.898   1.763   0.316
47275SOL     OW43721   4.369   6.616   9.128
47275SOL    HW143722   4.371   6.531   9.085
47275SOL    HW243723   4.285   6.654   9.102
47276SOL     OW43724   0.253   7.287   3.306
47276SOL    HW143725   0.222   7.279   3.396
47276SOL    HW243726   0.300   7.205   3.289
47277SOL     OW43727  11.121  10.542   6.873
47277SOL    HW143728  11.078  10.467   6.914
47277SOL    HW243729  11.073  10.618   6.905
47278SOL     OW43730   5.998   3.916  11.404
47278SOL    HW143731   5.955   3.887  11.324
47278SOL    HW243732   6.081   3.953  11.375
47279SOL     OW43733   0.202   5.858   5.840
47279SOL    HW143734   0.247   5.941   5.854
47279SOL    HW243735   0.143   5.875   5.766
47280SOL     OW43736   6.819  14.271   6.242
47280SOL    HW143737   6.889  14.317   6.195
47280SOL    HW243738   6.835  14.291   6.334
47281SOL     OW43739  11.798   7.285   6.263
47281SOL    HW143740  11.727   7.231   6.298
47281SOL    HW243741  11.852   7.224   6.213
47282SOL     OW43742   9.309  12.150   3.976
47282SOL    HW143743   9.356  12.185   4.052
47282SOL    HW243744   9.323  12.055   3.982
47283SOL     OW43745  10.284   4.319  14.573
47283SOL    HW143746  10.354   4.286  14.517
47283SOL    HW243747  10.313   4.298  14.662
47284SOL     OW43748   5.303   9.160  10.505
47284SOL    HW143749   5.217   9.121  10.484
47284SOL    HW243750   5.283   9.252  10.524
47285SOL     OW43751  12.030   6.548   5.360
47285SOL    HW143752  11.989   6.555   5.273
47285SOL    HW243753  12.081   6.628   5.369
47286SOL     OW43754   7.354  12.895  11.344
47286SOL    HW143755   7.374  12.807  11.376
47286SOL    HW243756   7.410  12.953  11.396
47287SOL     OW43757  13.354   6.613   4.900
47287SOL    HW143758  13.424   6.578   4.955
47287SOL    HW243759  13.344   6.548   4.830
47288SOL     OW43760   1.509  12.674   2.997
47288SOL    HW143761   1.452  12.625   3.056
47288SOL    HW243762   1.541  12.747   3.049
47289SOL     OW43763   6.918  10.866  13.003
47289SOL    HW143764   6.936  10.788  13.055
47289SOL    HW243765   6.833  10.848  12.962
47290SOL     OW43766   8.339  13.023   7.290
47290SOL    HW143767   8.283  12.963   7.242
47290SOL    HW243768   8.283  13.060   7.358
47291SOL     OW43769  12.196  10.927   0.299
47291SOL    HW143770  12.149  10.862   0.247
47291SOL    HW243771  12.186  11.009   0.251
47292SOL     OW43772   8.306   6.472   0.385
47292SOL    HW143773   8.345   6.438   0.465
47292SOL    HW243774   8.359   6.433   0.315
47293SOL     OW43775  10.921   9.197   7.412
47293SOL    HW143776  10.960   9.270   7.459
47293SOL    HW243777  10.989   9.130   7.412
47294SOL     OW43778   2.297  13.182  11.667
47294SOL    HW143779   2.338  13.166  11.752
47294SOL    HW243780   2.350  13.250  11.627
47295SOL     OW43781  14.586   8.086   9.953
47295SOL    HW143782  14.538   8.074  10.035
47295SOL    HW243783  14.628   8.171   9.962
47296SOL     OW43784   2.897   9.331   8.513
47296SOL    HW143785   2.831   9.270   8.482
47296SOL    HW243786   2.919   9.384   8.436
47297SOL     OW43787   0.638   6.308   3.072
47297SOL    HW143788   0.583   6.360   3.131
47297SOL    HW243789   0.654   6.226   3.120
47298SOL     OW43790   8.298   8.197   0.926
47298SOL    HW143791   8.262   8.221   1.012
47298SOL    HW243792   8.383   8.159   0.946
47299SOL     OW43793  10.089   6.996  11.177
47299SOL    HW143794  10.116   6.912  11.139
47299SOL    HW243795  10.025   7.031  11.115
47300SOL     OW43796  11.795   7.727   5.821
47300SOL    HW143797  11.750   7.765   5.745
47300SOL    HW243798  11.865   7.674   5.784
47301SOL     OW43799  11.207  11.860  13.920
47301SOL    HW143800  11.175  11.781  13.876
47301SOL    HW243801  11.217  11.834  14.012
47302SOL     OW43802   3.103  10.617   9.031
47302SOL    HW143803   3.007  10.610   9.028
47302SOL    HW243804   3.133  10.562   8.959
47303SOL     OW43805   9.304   7.278  10.339
47303SOL    HW143806   9.271   7.198  10.298
47303SOL    HW243807   9.355   7.247  10.413
47304SOL     OW43808   6.125   3.525   2.995
47304SOL    HW143809   6.117   3.458   2.928
47304SOL    HW243810   6.098   3.606   2.952
47305SOL     OW43811  13.994   7.472  14.848
47305SOL    HW143812  13.983   7.490   0.072
47305SOL    HW243813  13.913   7.427  14.822
47306SOL     OW43814   7.296   2.486   2.383
47306SOL    HW143815   7.215   2.523   2.347
47306SOL    HW243816   7.267   2.413   2.438
47307SOL     OW43817   5.054   3.358   0.861
47307SOL    HW143818   5.135   3.375   0.813
47307SOL    HW243819   5.051   3.426   0.928
47308SOL     OW43820   2.007  11.016   3.516
47308SOL    HW143821   2.079  11.077   3.533
47308SOL    HW243822   1.928  11.064   3.542
47309SOL     OW43823  11.034   9.720   3.772
47309SOL    HW143824  11.021   9.639   3.822
47309SOL    HW243825  10.956   9.727   3.717
47310SOL     OW43826   2.744  10.707   0.447
47310SOL    HW143827   2.674  10.646   0.473
47310SOL    HW243828   2.825  10.660   0.466
47311SOL     OW43829   5.215  10.407   8.502
47311SOL    HW143830   5.174  10.444   8.424
47311SOL    HW243831   5.154  10.428   8.573
47312SOL     OW43832  10.519  10.662  10.099
47312SOL    HW143833  10.430  10.668  10.064
47312SOL    HW243834  10.576  10.682  10.025
47313SOL     OW43835   1.873   6.445   5.832
47313SOL    HW143836   1.901   6.430   5.922
47313SOL    HW243837   1.935   6.508   5.797
47314SOL     OW43838   2.399  12.070   6.633
47314SOL    HW143839   2.416  12.017   6.711
47314SOL    HW243840   2.393  12.160   6.665
47315SOL     OW43841   8.107  10.394   9.362
47315SOL    HW143842   8.101  10.485   9.392
47315SOL    HW243843   8.109  10.400   9.267
47316SOL     OW43844   1.359   7.088  14.105
47316SOL    HW143845   1.359   7.161  14.044
47316SOL    HW243846   1.348   7.010  14.050
47317SOL     OW43847  12.163   5.319  10.319
47317SOL    HW143848  12.146   5.352  10.407
47317SOL    HW243849  12.077   5.299  10.283
47318SOL     OW43850   4.925  14.140  11.540
47318SOL    HW143851   4.898  14.089  11.616
47318SOL    HW243852   4.997  14.089  11.502
47319SOL     OW43853   3.178   9.981   2.218
47319SOL    HW143854   3.206   9.940   2.136
47319SOL    HW243855   3.255  10.028   2.249
47320SOL     OW43856   4.651   9.501  13.435
47320SOL    HW143857   4.651   9.405  13.438
47320SOL    HW243858   4.592   9.527  13.505
47321SOL     OW43859   4.478   3.183  12.431
47321SOL    HW143860   4.399   3.238  12.431
47321SOL    HW243861   4.541   3.231  12.378
47322SOL     OW43862  13.681   8.600   6.854
47322SOL    HW143863  13.657   8.691   6.868
47322SOL    HW243864  13.699   8.566   6.941
47323SOL     OW43865  14.107  10.905   8.696
47323SOL    HW143866  14.047  10.832   8.713
47323SOL    HW243867  14.067  10.980   8.740
47324SOL     OW43868  12.441  12.059   3.542
47324SOL    HW143869  12.472  11.982   3.494
47324SOL    HW243870  12.457  12.037   3.634
47325SOL     OW43871   6.694  12.622   0.730
47325SOL    HW143872   6.663  12.676   0.803
47325SOL    HW243873   6.776  12.664   0.702
47326SOL     OW43874   3.731  12.562   0.120
47326SOL    HW143875   3.709  12.488   0.062
47326SOL    HW243876   3.647  12.600   0.143
47327SOL     OW43877  12.797   1.323   0.744
47327SOL    HW143878  12.768   1.259   0.679
47327SOL    HW243879  12.759   1.405   0.714
47328SOL     OW43880  10.414   1.347   8.638
47328SOL    HW143881  10.424   1.439   8.617
47328SOL    HW243882  10.399   1.345   8.733
47329SOL     OW43883  10.344  14.081   3.086
47329SOL    HW143884  10.426  14.124   3.062
47329SOL    HW243885  10.294  14.148   3.132
47330SOL     OW43886  13.684   7.331  14.020
47330SOL    HW143887  13.732   7.272  13.962
47330SOL    HW243888  13.750   7.366  14.080
47331SOL     OW43889  12.096  14.437   6.755
47331SOL    HW143890  12.063  14.517   6.797
47331SOL    HW243891  12.148  14.394   6.822
47332SOL     OW43892  10.857   6.198   4.905
47332SOL    HW143893  10.776   6.152   4.927
47332SOL    HW243894  10.926   6.146   4.947
47333SOL     OW43895   6.049   2.735   7.699
47333SOL    HW143896   6.117   2.717   7.762
47333SOL    HW243897   6.010   2.818   7.728
47334SOL     OW43898   4.807  13.096  12.094
47334SOL    HW143899   4.851  13.092  12.009
47334SOL    HW243900   4.716  13.077  12.074
47335SOL     OW43901   5.738   0.086  11.954
47335SOL    HW143902   5.654   0.101  11.997
47335SOL    HW243903   5.769   0.002  11.989
47336SOL     OW43904   7.738   1.104  11.859
47336SOL    HW143905   7.684   1.127  11.784
47336SOL    HW243906   7.750   1.187  11.906
47337SOL     OW43907   8.906   3.383   0.849
47337SOL    HW143908   8.857   3.434   0.784
47337SOL    HW243909   8.849   3.382   0.926
47338SOL     OW43910  13.395   8.412  11.658
47338SOL    HW143911  13.381   8.436  11.750
47338SOL    HW243912  13.421   8.320  11.661
47339SOL     OW43913   0.715  12.250   4.993
47339SOL    HW143914   0.644  12.229   4.932
47339SOL    HW243915   0.794  12.214   4.951
47340SOL     OW43916   5.895  11.880   5.646
47340SOL    HW143917   5.898  11.966   5.603
47340SOL    HW243918   5.862  11.821   5.579
47341SOL     OW43919  14.403   1.331   2.886
47341SOL    HW143920  14.409   1.344   2.791
47341SOL    HW243921  14.428   1.415   2.923
47342SOL     OW43922  13.317   5.268   0.973
47342SOL    HW143923  13.221   5.273   0.980
47342SOL    HW243924  13.345   5.225   1.054
47343SOL     OW43925  14.681  11.625   5.311
47343SOL    HW143926  14.614  11.586   5.367
47343SOL    HW243927  14.710  11.704   5.358
47344SOL     OW43928  10.316   0.262  14.221
47344SOL    HW143929  10.281   0.249  14.310
47344SOL    HW243930  10.239   0.258  14.164
47345SOL     OW43931  13.331  10.648   2.870
47345SOL    HW143932  13.358  10.603   2.790
47345SOL    HW243933  13.268  10.714   2.839
47346SOL     OW43934   6.757  10.047   9.848
47346SOL    HW143935   6.700   9.987   9.800
47346SOL    HW243936   6.842  10.037   9.807
47347SOL     OW43937   1.100   4.599   7.882
47347SOL    HW143938   1.063   4.651   7.811
47347SOL    HW243939   1.098   4.509   7.849
47348SOL     OW43940  14.049  10.642   9.578
47348SOL    HW143941  13.993  10.587   9.632
47348SOL    HW243942  14.138  10.607   9.592
47349SOL     OW43943   0.011   0.295   1.094
47349SOL    HW143944   0.018   0.385   1.064
47349SOL    HW243945   0.060   0.244   1.029
47350SOL     OW43946   6.934   0.207   8.112
47350SOL    HW143947   6.956   0.255   8.192
47350SOL    HW243948   6.943   0.272   8.042
47351SOL     OW43949   1.435  10.957   8.860
47351SOL    HW143950   1.439  10.956   8.956
47351SOL    HW243951   1.504  11.018   8.834
47352SOL     OW43952   0.198   4.515   4.287
47352SOL    HW143953   0.188   4.521   4.192
47352SOL    HW243954   0.292   4.509   4.301
47353SOL     OW43955  13.193   1.812  12.347
47353SOL    HW143956  13.109   1.767  12.334
47353SOL    HW243957  13.231   1.816  12.259
47354SOL     OW43958  14.545   6.400   2.980
47354SOL    HW143959  14.634   6.371   3.002
47354SOL    HW243960  14.551   6.495   2.975
47355SOL     OW43961  13.441   6.777   2.739
47355SOL    HW143962  13.363   6.826   2.764
47355SOL    HW243963  13.514   6.835   2.762
47356SOL     OW43964  10.910   4.951   6.182
47356SOL    HW143965  10.950   5.038   6.190
47356SOL    HW243966  10.821   4.969   6.152
47357SOL     OW43967   7.223   5.839   9.971
47357SOL    HW143968   7.193   5.753   9.940
47357SOL    HW243969   7.296   5.819  10.030
47358SOL     OW43970   1.501  14.460   9.391
47358SOL    HW143971   1.467  14.549   9.385
47358SOL    HW243972   1.556  14.450   9.313
47359SOL     OW43973  10.647   8.415   3.001
47359SOL    HW143974  10.600   8.340   2.964
47359SOL    HW243975  10.731   8.415   2.954
47360SOL     OW43976   5.777   6.644   6.516
47360SOL    HW143977   5.807   6.555   6.534
47360SOL    HW243978   5.857   6.693   6.501
47361SOL     OW43979  14.407  13.746   0.044
47361SOL    HW143980  14.450  13.815  14.863
47361SOL    HW243981  14.440  13.758   0.133
47362SOL     OW43982  10.320  11.420   0.266
47362SOL    HW143983  10.370  11.494   0.233
47362SOL    HW243984  10.253  11.459   0.322
47363SOL     OW43985   7.633   2.109   3.290
47363SOL    HW143986   7.606   2.066   3.209
47363SOL    HW243987   7.629   2.040   3.356
47364SOL     OW43988   2.894   0.466   1.595
47364SOL    HW143989   2.856   0.468   1.683
47364SOL    HW243990   2.988   0.480   1.609
47365SOL     OW43991  14.117   0.533  10.454
47365SOL    HW143992  14.094   0.587  10.530
47365SOL    HW243993  14.036   0.530  10.402
47366SOL     OW43994  12.476  11.879   8.726
47366SOL    HW143995  12.472  11.863   8.632
47366SOL    HW243996  12.482  11.975   8.734
47367SOL     OW43997  13.684   4.030   4.696
47367SOL    HW143998  13.615   4.023   4.762
47367SOL    HW243999  13.762   3.994   4.738
47368SOL     OW44000   0.592   2.900   4.970
47368SOL    HW144001   0.590   2.991   4.999
47368SOL    HW244002   0.502   2.869   4.980
47369SOL     OW44003   9.153   7.933  11.858
47369SOL    HW144004   9.082   7.868  11.859
47369SOL    HW244005   9.232   7.881  11.875
47370SOL     OW44006   9.385  11.370   2.530
47370SOL    HW144007   9.343  11.305   2.473
47370SOL    HW244008   9.465  11.394   2.484
47371SOL     OW44009  11.540   8.358   3.712
47371SOL    HW144010  11.553   8.264   3.696
47371SOL    HW244011  11.470   8.383   3.652
47372SOL     OW44012   1.805   0.988   9.069
47372SOL    HW144013   1.892   1.027   9.056
47372SOL    HW244014   1.821   0.913   9.127
47373SOL     OW44015  12.777   8.089   8.576
47373SOL    HW144016  12.815   8.050   8.655
47373SOL    HW244017  12.779   8.183   8.592
47374SOL     OW44018   3.507   0.951   2.085
47374SOL    HW144019   3.544   1.039   2.077
47374SOL    HW244020   3.539   0.920   2.169
47375SOL     OW44021  12.571   3.830   5.647
47375SOL    HW144022  12.479   3.817   5.669
47375SOL    HW244023  12.571   3.889   5.572
47376SOL     OW44024   1.900   8.434   5.711
47376SOL    HW144025   1.915   8.478   5.628
47376SOL    HW244026   1.811   8.399   5.705
47377SOL     OW44027   7.470   9.598  13.486
47377SOL    HW144028   7.413   9.673  13.499
47377SOL    HW244029   7.544   9.633  13.436
47378SOL     OW44030   6.387   2.683  10.572
47378SOL    HW144031   6.443   2.606  10.581
47378SOL    HW244032   6.425   2.732  10.499
47379SOL     OW44033   8.272  14.420  13.629
47379SOL    HW144034   8.316  14.370  13.698
47379SOL    HW244035   8.296  14.511  13.646
47380SOL     OW44036   0.591  11.588  13.216
47380SOL    HW144037   0.571  11.503  13.257
47380SOL    HW244038   0.684  11.583  13.195
47381SOL     OW44039   8.984   4.073   2.646
47381SOL    HW144040   9.026   4.043   2.566
47381SOL    HW244041   9.054   4.075   2.711
47382SOL     OW44042   5.981   6.389  11.121
47382SOL    HW144043   5.983   6.484  11.122
47382SOL    HW244044   6.003   6.365  11.031
47383SOL     OW44045   4.653   3.473   1.044
47383SOL    HW144046   4.641   3.522   1.125
47383SOL    HW244047   4.639   3.537   0.974
47384SOL     OW44048  13.567   9.068  14.037
47384SOL    HW144049  13.522   9.044  14.118
47384SOL    HW244050  13.501   9.114  13.985
47385SOL     OW44051  12.645   0.892  14.003
47385SOL    HW144052  12.593   0.872  13.925
47385SOL    HW244053  12.594   0.957  14.050
47386SOL     OW44054   1.708   7.375   2.277
47386SOL    HW144055   1.757   7.325   2.213
47386SOL    HW244056   1.669   7.310   2.335
47387SOL     OW44057   5.652  10.407  12.839
47387SOL    HW144058   5.587  10.451  12.785
47387SOL    HW244059   5.614  10.321  12.857
47388SOL     OW44060   9.827   9.902   8.504
47388SOL    HW144061   9.840   9.958   8.428
47388SOL    HW244062   9.796   9.819   8.468
47389SOL     OW44063   4.700  13.668  14.157
47389SOL    HW144064   4.729  13.601  14.095
47389SOL    HW244065   4.678  13.743  14.101
47390SOL     OW44066  13.434   1.805   6.439
47390SOL    HW144067  13.384   1.747   6.381
47390SOL    HW244068  13.524   1.774   6.431
47391SOL     OW44069  11.375   9.853  14.359
47391SOL    HW144070  11.458   9.891  14.328
47391SOL    HW244071  11.326   9.835  14.279
47392SOL     OW44072   0.523  12.616   3.586
47392SOL    HW144073   0.596  12.661   3.627
47392SOL    HW244074   0.493  12.553   3.652
47393SOL     OW44075   5.570   0.631   0.332
47393SOL    HW144076   5.541   0.695   0.397
47393SOL    HW244077   5.509   0.557   0.342
47394SOL     OW44078   9.687  11.025   3.029
47394SOL    HW144079   9.619  10.992   3.087
47394SOL    HW244080   9.763  10.970   3.047
47395SOL     OW44081  14.479   5.476   3.653
47395SOL    HW144082  14.571   5.475   3.680
47395SOL    HW244083  14.461   5.386   3.625
47396SOL     OW44084  10.292  14.325   1.373
47396SOL    HW144085  10.340  14.407   1.385
47396SOL    HW244086  10.359  14.262   1.347
47397SOL     OW44087   9.474   9.950   4.129
47397SOL    HW144088   9.558   9.996   4.123
47397SOL    HW244089   9.440   9.951   4.039
47398SOL     OW44090   4.723   7.241   2.213
47398SOL    HW144091   4.640   7.241   2.165
47398SOL    HW244092   4.743   7.148   2.226
47399SOL     OW44093   3.245   9.401   9.923
47399SOL    HW144094   3.194   9.324   9.899
47399SOL    HW244095   3.279   9.434   9.840
47400SOL     OW44096   5.566   2.990   3.437
47400SOL    HW144097   5.576   3.058   3.370
47400SOL    HW244098   5.655   2.974   3.468
47401SOL     OW44099   3.344   5.911   2.682
47401SOL    HW144100   3.387   5.992   2.655
47401SOL    HW244101   3.341   5.858   2.603
47402SOL     OW44102   4.568   6.354   1.966
47402SOL    HW144103   4.609   6.280   2.010
47402SOL    HW244104   4.490   6.373   2.018
47403SOL     OW44105   0.597   3.829   7.595
47403SOL    HW144106   0.502   3.824   7.587
47403SOL    HW244107   0.617   3.783   7.676
47404SOL     OW44108   2.838   7.763  14.486
47404SOL    HW144109   2.774   7.778  14.556
47404SOL    HW244110   2.829   7.670  14.464
47405SOL     OW44111   2.371   0.653   3.714
47405SOL    HW144112   2.405   0.740   3.694
47405SOL    HW244113   2.436   0.593   3.678
47406SOL     OW44114   2.235  14.454   9.958
47406SOL    HW144115   2.258  14.535  10.003
47406SOL    HW244116   2.301  14.391   9.988
47407SOL     OW44117  13.376   2.262  13.156
47407SOL    HW144118  13.459   2.222  13.183
47407SOL    HW244119  13.332   2.285  13.238
47408SOL     OW44120   2.228   4.924   9.896
47408SOL    HW144121   2.197   5.001   9.850
47408SOL    HW244122   2.194   4.850   9.845
47409SOL     OW44123   9.893   4.855  14.385
47409SOL    HW144124   9.807   4.887  14.359
47409SOL    HW244125   9.955   4.916  14.346
47410SOL     OW44126  10.093  14.060   9.954
47410SOL    HW144127  10.172  14.041   9.904
47410SOL    HW244128  10.107  14.148   9.988
47411SOL     OW44129   7.329   1.268   9.223
47411SOL    HW144130   7.308   1.286   9.131
47411SOL    HW244131   7.331   1.172   9.229
47412SOL     OW44132   0.890   7.042   4.291
47412SOL    HW144133   0.914   6.985   4.218
47412SOL    HW244134   0.842   6.984   4.351
47413SOL     OW44135   6.921   7.118   7.792
47413SOL    HW144136   6.990   7.066   7.751
47413SOL    HW244137   6.840   7.082   7.757
47414SOL     OW44138   0.672   5.564  10.911
47414SOL    HW144139   0.719   5.562  10.827
47414SOL    HW244140   0.595   5.508  10.897
47415SOL     OW44141   0.696  10.934  13.947
47415SOL    HW144142   0.757  10.900  14.012
47415SOL    HW244143   0.639  10.860  13.926
47416SOL     OW44144   2.675   0.862  13.896
47416SOL    HW144145   2.587   0.898  13.904
47416SOL    HW244146   2.728   0.912  13.958
47417SOL     OW44147   9.610  13.983   5.070
47417SOL    HW144148   9.668  13.907   5.077
47417SOL    HW244149   9.537  13.963   5.130
47418SOL     OW44150  14.035  11.131   0.307
47418SOL    HW144151  14.031  11.219   0.345
47418SOL    HW244152  14.047  11.147   0.213
47419SOL     OW44153   8.892   7.394  13.979
47419SOL    HW144154   8.847   7.436  14.053
47419SOL    HW244155   8.826   7.337  13.940
47420SOL     OW44156  14.864   2.829   4.589
47420SOL    HW144157   0.078   2.805   4.548
47420SOL    HW244158  14.801   2.767   4.552
47421SOL     OW44159  13.400  14.230   5.919
47421SOL    HW144160  13.326  14.287   5.936
47421SOL    HW244161  13.361  14.149   5.887
47422SOL     OW44162   5.426   6.263  10.384
47422SOL    HW144163   5.418   6.278  10.478
47422SOL    HW244164   5.419   6.350  10.345
47423SOL     OW44165   7.317   8.733   5.191
47423SOL    HW144166   7.300   8.744   5.098
47423SOL    HW244167   7.240   8.688   5.225
47424SOL     OW44168   1.609  13.802   7.194
47424SOL    HW144169   1.672  13.871   7.175
47424SOL    HW244170   1.564  13.788   7.111
47425SOL     OW44171   7.851  14.826   8.046
47425SOL    HW144172   7.774  14.823   8.102
47425SOL    HW244173   7.861   0.048   8.022
47426SOL     OW44174   7.106  10.701  10.119
47426SOL    HW144175   7.077  10.782  10.162
47426SOL    HW244176   7.036  10.638  10.137
47427SOL     OW44177   6.532   8.846   4.085
47427SOL    HW144178   6.524   8.759   4.125
47427SOL    HW244179   6.487   8.904   4.146
47428SOL     OW44180   7.917  11.015   7.745
47428SOL    HW144181   7.888  11.030   7.835
47428SOL    HW244182   8.006  10.982   7.754
47429SOL     OW44183   0.769  12.995   4.538
47429SOL    HW144184   0.715  12.979   4.461
47429SOL    HW244185   0.749  12.921   4.596
47430SOL     OW44186   4.415  12.007  13.116
47430SOL    HW144187   4.501  11.968  13.102
47430SOL    HW244188   4.427  12.068  13.189
47431SOL     OW44189   4.047   9.300   8.551
47431SOL    HW144190   3.988   9.226   8.545
47431SOL    HW244191   4.121   9.268   8.604
47432SOL     OW44192   5.063   2.164   2.612
47432SOL    HW144193   5.015   2.087   2.641
47432SOL    HW244194   5.063   2.158   2.517
47433SOL     OW44195   1.940   5.090   8.486
47433SOL    HW144196   1.864   5.142   8.511
47433SOL    HW244197   1.911   4.999   8.496
47434SOL     OW44198  12.619  10.532   5.736
47434SOL    HW144199  12.541  10.535   5.680
47434SOL    HW244200  12.688  10.569   5.682
47435SOL     OW44201  12.448  10.854  12.798
47435SOL    HW144202  12.526  10.840  12.745
47435SOL    HW244203  12.420  10.943  12.779
47436SOL     OW44204   6.432   5.281   6.804
47436SOL    HW144205   6.497   5.350   6.822
47436SOL    HW244206   6.481   5.215   6.755
47437SOL     OW44207   8.095  13.941   8.178
47437SOL    HW144208   8.010  13.919   8.215
47437SOL    HW244209   8.137  13.857   8.160
47438SOL     OW44210  10.216   3.298   2.926
47438SOL    HW144211  10.234   3.346   3.007
47438SOL    HW244212  10.240   3.208   2.946
47439SOL     OW44213   4.666  10.031   7.503
47439SOL    HW144214   4.721  10.100   7.541
47439SOL    HW244215   4.703   9.950   7.537
47440SOL     OW44216   7.408   5.526  13.457
47440SOL    HW144217   7.398   5.523  13.362
47440SOL    HW244218   7.326   5.563  13.489
47441SOL     OW44219   8.410   1.061   3.655
47441SOL    HW144220   8.493   1.103   3.679
47441SOL    HW244221   8.349   1.134   3.640
47442SOL     OW44222  10.214   9.285  10.936
47442SOL    HW144223  10.270   9.352  10.976
47442SOL    HW244224  10.156   9.333  10.877
47443SOL     OW44225   8.781   4.256   0.535
47443SOL    HW144226   8.687   4.266   0.546
47443SOL    HW244227   8.806   4.327   0.475
47444SOL     OW44228  14.852   8.950  13.887
47444SOL    HW144229  14.787   8.934  13.956
47444SOL    HW244230  14.867   9.044  13.889
47445SOL     OW44231  11.231  11.318   9.574
47445SOL    HW144232  11.280  11.304   9.493
47445SOL    HW244233  11.283  11.274   9.641
47446SOL     OW44234   6.491   9.726  11.449
47446SOL    HW144235   6.515   9.784  11.378
47446SOL    HW244236   6.569   9.722  11.505
47447SOL     OW44237   6.593   6.263   6.494
47447SOL    HW144238   6.573   6.264   6.588
47447SOL    HW244239   6.661   6.328   6.483
47448SOL     OW44240   1.531   5.316  12.525
47448SOL    HW144241   1.585   5.264  12.466
47448SOL    HW244242   1.445   5.275  12.522
47449SOL     OW44243   6.053  14.090   7.430
47449SOL    HW144244   6.111  14.016   7.447
47449SOL    HW244245   5.984  14.083   7.496
47450SOL     OW44246   0.861   8.014  11.290
47450SOL    HW144247   0.835   7.935  11.243
47450SOL    HW244248   0.950   8.033  11.258
47451SOL     OW44249   8.768   2.514  10.431
47451SOL    HW144250   8.815   2.594  10.455
47451SOL    HW244251   8.768   2.514  10.335
47452SOL     OW44252   3.547   2.535   6.643
47452SOL    HW144253   3.591   2.504   6.565
47452SOL    HW244254   3.518   2.456   6.688
47453SOL     OW44255   2.368  10.830   1.750
47453SOL    HW144256   2.295  10.785   1.792
47453SOL    HW244257   2.399  10.892   1.816
47454SOL     OW44258  13.535   4.358   6.722
47454SOL    HW144259  13.521   4.266   6.747
47454SOL    HW244260  13.542   4.356   6.627
47455SOL     OW44261  14.040  12.746   5.490
47455SOL    HW144262  13.946  12.734   5.476
47455SOL    HW244263  14.057  12.709   5.576
47456SOL     OW44264  14.091  14.477   8.034
47456SOL    HW144265  14.004  14.465   7.996
47456SOL    HW244266  14.082  14.553   8.092
47457SOL     OW44267   8.266   6.515  10.942
47457SOL    HW144268   8.171   6.524  10.948
47457SOL    HW244269   8.290   6.468  11.022
47458SOL     OW44270  13.599   7.947   0.921
47458SOL    HW144271  13.623   8.017   0.860
47458SOL    HW244272  13.515   7.973   0.957
47459SOL     OW44273   7.903   9.186   5.766
47459SOL    HW144274   7.874   9.241   5.693
47459SOL    HW244275   7.827   9.132   5.786
47460SOL     OW44276   5.059   3.531  12.843
47460SOL    HW144277   5.029   3.562  12.929
47460SOL    HW244278   5.033   3.601  12.782
47461SOL     OW44279   2.193   5.721   7.523
47461SOL    HW144280   2.171   5.751   7.611
47461SOL    HW244281   2.218   5.800   7.476
47462SOL     OW44282   9.189   4.755  13.040
47462SOL    HW144283   9.166   4.662  13.045
47462SOL    HW244284   9.285   4.757  13.048
47463SOL     OW44285   3.633   9.208   9.076
47463SOL    HW144286   3.564   9.256   9.030
47463SOL    HW244287   3.690   9.277   9.112
47464SOL     OW44288   6.977   7.565   2.950
47464SOL    HW144289   7.021   7.524   3.024
47464SOL    HW244290   6.997   7.658   2.958
47465SOL     OW44291   9.009  10.912   7.718
47465SOL    HW144292   9.006  10.879   7.628
47465SOL    HW244293   9.095  10.886   7.750
47466SOL     OW44294   8.707  11.558   9.717
47466SOL    HW144295   8.620  11.592   9.739
47466SOL    HW244296   8.742  11.526   9.800
47467SOL     OW44297   9.629  13.317   9.746
47467SOL    HW144298   9.694  13.252   9.769
47467SOL    HW244299   9.669  13.401   9.769
47468SOL     OW44300  10.511   5.181  10.585
47468SOL    HW144301  10.530   5.108  10.525
47468SOL    HW244302  10.553   5.155  10.667
47469SOL     OW44303  12.912   6.859   9.155
47469SOL    HW144304  12.935   6.780   9.203
47469SOL    HW244305  12.886   6.922   9.223
47470SOL     OW44306   3.771  11.794   0.349
47470SOL    HW144307   3.811  11.857   0.408
47470SOL    HW244308   3.837  11.779   0.281
47471SOL     OW44309  11.315  14.220  11.260
47471SOL    HW144310  11.326  14.146  11.319
47471SOL    HW244311  11.394  14.272  11.271
47472SOL     OW44312   2.920   0.617   0.662
47472SOL    HW144313   2.938   0.554   0.593
47472SOL    HW244314   2.937   0.570   0.743
47473SOL     OW44315  12.421   1.321  11.702
47473SOL    HW144316  12.342   1.267  11.705
47473SOL    HW244317  12.493   1.259  11.703
47474SOL     OW44318  14.504   8.438   3.342
47474SOL    HW144319  14.550   8.450   3.259
47474SOL    HW244320  14.547   8.499   3.402
47475SOL     OW44321  11.451  11.818   0.158
47475SOL    HW144322  11.397  11.740   0.153
47475SOL    HW244323  11.412  11.878   0.095
47476SOL     OW44324  14.518  14.165  12.528
47476SOL    HW144325  14.530  14.223  12.604
47476SOL    HW244326  14.604  14.162  12.486
47477SOL     OW44327   8.223   4.414   5.277
47477SOL    HW144328   8.280   4.342   5.250
47477SOL    HW244329   8.183   4.384   5.359
47478SOL     OW44330   2.339   4.047   2.211
47478SOL    HW144331   2.403   3.975   2.208
47478SOL    HW244332   2.310   4.049   2.302
47479SOL     OW44333   0.435   3.310   0.768
47479SOL    HW144334   0.373   3.292   0.698
47479SOL    HW244335   0.438   3.230   0.820
47480SOL     OW44336  10.746  12.870   3.572
47480SOL    HW144337  10.694  12.854   3.493
47480SOL    HW244338  10.686  12.850   3.644
47481SOL     OW44339   6.294   1.092   4.801
47481SOL    HW144340   6.374   1.142   4.815
47481SOL    HW244341   6.232   1.156   4.765
47482SOL     OW44342   6.256   6.663   6.308
47482SOL    HW144343   6.290   6.583   6.348
47482SOL    HW244344   6.177   6.683   6.358
47483SOL     OW44345   1.235  12.832   8.786
47483SOL    HW144346   1.310  12.835   8.727
47483SOL    HW244347   1.206  12.740   8.784
47484SOL     OW44348   9.530   2.970   7.333
47484SOL    HW144349   9.621   2.981   7.306
47484SOL    HW244350   9.517   3.034   7.403
47485SOL     OW44351   4.429  12.614   0.984
47485SOL    HW144352   4.351  12.656   0.948
47485SOL    HW244353   4.449  12.663   1.063
47486SOL     OW44354   5.199   5.255   4.153
47486SOL    HW144355   5.265   5.298   4.208
47486SOL    HW244356   5.249   5.192   4.101
47487SOL     OW44357   2.724   6.358  13.181
47487SOL    HW144358   2.786   6.317  13.121
47487SOL    HW244359   2.715   6.295  13.253
47488SOL     OW44360   4.479   5.833   3.105
47488SOL    HW144361   4.488   5.879   3.188
47488SOL    HW244362   4.459   5.901   3.041
47489SOL     OW44363   4.075   0.810  14.776
47489SOL    HW144364   4.041   0.763  14.700
47489SOL    HW244365   4.167   0.825  14.756
47490SOL     OW44366   3.899  13.752   6.765
47490SOL    HW144367   3.919  13.819   6.699
47490SOL    HW244368   3.827  13.790   6.815
47491SOL     OW44369   3.359   2.237  12.584
47491SOL    HW144370   3.286   2.267  12.638
47491SOL    HW244371   3.400   2.318  12.554
47492SOL     OW44372  10.026   3.021  13.345
47492SOL    HW144373   9.957   3.043  13.408
47492SOL    HW244374  10.094   2.979  13.398
47493SOL     OW44375  11.715   8.177   4.049
47493SOL    HW144376  11.704   8.271   4.037
47493SOL    HW244377  11.656   8.156   4.122
47494SOL     OW44378  12.772   4.752   5.416
47494SOL    HW144379  12.821   4.802   5.482
47494SOL    HW244380  12.680   4.766   5.439
47495SOL     OW44381   7.219   4.821   3.077
47495SOL    HW144382   7.282   4.752   3.096
47495SOL    HW244383   7.143   4.799   3.130
47496SOL     OW44384   2.290   8.278  10.678
47496SOL    HW144385   2.359   8.343  10.687
47496SOL    HW244386   2.246   8.277  10.763
47497SOL     OW44387   0.227  13.290  10.247
47497SOL    HW144388   0.185  13.324  10.169
47497SOL    HW244389   0.261  13.204  10.221
47498SOL     OW44390   8.677   1.290   1.819
47498SOL    HW144391   8.690   1.360   1.755
47498SOL    HW244392   8.698   1.329   1.903
47499SOL     OW44393   6.523   7.305  13.076
47499SOL    HW144394   6.545   7.218  13.043
47499SOL    HW244395   6.439   7.326  13.037
47500SOL     OW44396   1.770   3.792  12.949
47500SOL    HW144397   1.743   3.763  12.862
47500SOL    HW244398   1.865   3.797  12.945
47501SOL     OW44399   7.254   5.276   8.146
47501SOL    HW144400   7.288   5.352   8.098
47501SOL    HW244401   7.329   5.241   8.192
47502SOL     OW44402  12.021  11.487   5.988
47502SOL    HW144403  11.952  11.530   6.039
47502SOL    HW244404  12.023  11.536   5.906
47503SOL     OW44405   4.177   9.396  10.361
47503SOL    HW144406   4.265   9.410  10.324
47503SOL    HW244407   4.121   9.381  10.285
47504SOL     OW44408  14.551  13.219   3.095
47504SOL    HW144409  14.623  13.202   3.033
47504SOL    HW244410  14.552  13.144   3.154
47505SOL     OW44411   0.384   8.667   9.510
47505SOL    HW144412   0.416   8.624   9.430
47505SOL    HW244413   0.366   8.595   9.570
47506SOL     OW44414   6.738   0.823   0.225
47506SOL    HW144415   6.728   0.760   0.296
47506SOL    HW244416   6.827   0.857   0.234
47507SOL     OW44417   1.617   1.822   5.211
47507SOL    HW144418   1.527   1.794   5.198
47507SOL    HW244419   1.612   1.890   5.277
47508SOL     OW44420   2.544  12.441   3.036
47508SOL    HW144421   2.502  12.433   2.950
47508SOL    HW244422   2.538  12.354   3.074
47509SOL     OW44423   6.324   4.482   0.420
47509SOL    HW144424   6.394   4.503   0.483
47509SOL    HW244425   6.369   4.475   0.336
47510SOL     OW44426   3.390   9.513  11.068
47510SOL    HW144427   3.445   9.446  11.108
47510SOL    HW244428   3.321   9.464  11.023
47511SOL     OW44429   2.037   4.542   8.671
47511SOL    HW144430   2.083   4.556   8.589
47511SOL    HW244431   2.080   4.465   8.709
47512SOL     OW44432  11.182   7.683  13.877
47512SOL    HW144433  11.260   7.673  13.931
47512SOL    HW244434  11.216   7.689  13.787
47513SOL     OW44435  10.354   1.795  11.788
47513SOL    HW144436  10.448   1.809  11.777
47513SOL    HW244437  10.326   1.865  11.847
47514SOL     OW44438   6.499   5.088   0.334
47514SOL    HW144439   6.565   5.115   0.270
47514SOL    HW244440   6.455   5.169   0.358
47515SOL     OW44441   5.851  11.461   9.011
47515SOL    HW144442   5.910  11.531   9.038
47515SOL    HW244443   5.849  11.401   9.086
47516SOL     OW44444  14.367   0.111   1.903
47516SOL    HW144445  14.400   0.044   1.962
47516SOL    HW244446  14.373   0.192   1.953
47517SOL     OW44447   0.817  10.435   9.858
47517SOL    HW144448   0.900  10.404   9.893
47517SOL    HW244449   0.827  10.530   9.854
47518SOL     OW44450   6.169   4.631  10.452
47518SOL    HW144451   6.126   4.715  10.469
47518SOL    HW244452   6.247   4.654  10.402
47519SOL     OW44453   4.325   5.073  14.534
47519SOL    HW144454   4.326   4.992  14.482
47519SOL    HW244455   4.248   5.063  14.591
47520SOL     OW44456   2.033   4.893   6.848
47520SOL    HW144457   2.028   4.835   6.772
47520SOL    HW244458   2.124   4.920   6.852
47521SOL     OW44459  11.935   8.021  13.906
47521SOL    HW144460  11.841   8.038  13.906
47521SOL    HW244461  11.944   7.935  13.947
47522SOL     OW44462  10.130   1.788   6.461
47522SOL    HW144463  10.062   1.853   6.443
47522SOL    HW244464  10.151   1.751   6.375
47523SOL     OW44465  13.872   3.489   6.634
47523SOL    HW144466  13.852   3.511   6.543
47523SOL    HW244467  13.967   3.476   6.634
47524SOL     OW44468   7.710   7.865   0.619
47524SOL    HW144469   7.788   7.902   0.579
47524SOL    HW244470   7.676   7.936   0.675
47525SOL     OW44471   4.875   0.160  12.665
47525SOL    HW144472   4.861   0.070  12.694
47525SOL    HW244473   4.894   0.209  12.745
47526SOL     OW44474   4.759  10.719   3.888
47526SOL    HW144475   4.850  10.750   3.890
47526SOL    HW244476   4.762  10.635   3.934
47527SOL     OW44477   1.211   7.510   4.931
47527SOL    HW144478   1.158   7.460   4.870
47527SOL    HW244479   1.288   7.536   4.880
47528SOL     OW44480  14.315  10.425   0.564
47528SOL    HW144481  14.301  10.509   0.609
47528SOL    HW244482  14.323  10.362   0.636
47529SOL     OW44483   6.899   2.362  14.029
47529SOL    HW144484   6.906   2.267  14.039
47529SOL    HW244485   6.929   2.379  13.939
47530SOL     OW44486   9.475   5.733   3.640
47530SOL    HW144487   9.478   5.676   3.717
47530SOL    HW244488   9.494   5.820   3.674
47531SOL     OW44489  11.478  13.741   4.662
47531SOL    HW144490  11.388  13.769   4.648
47531SOL    HW244491  11.500  13.776   4.749
47532SOL     OW44492   2.454  12.950   4.329
47532SOL    HW144493   2.434  12.996   4.410
47532SOL    HW244494   2.420  12.861   4.342
47533SOL     OW44495   8.446   3.019   7.306
47533SOL    HW144496   8.536   3.049   7.317
47533SOL    HW244497   8.403   3.091   7.259
47534SOL     OW44498   1.536   2.988  13.127
47534SOL    HW144499   1.531   2.896  13.152
47534SOL    HW244500   1.449   3.008  13.091
47535SOL     OW44501   3.001   7.291  10.909
47535SOL    HW144502   3.043   7.313  10.826
47535SOL    HW244503   3.004   7.195  10.912
47536SOL     OW44504  13.694  12.275   7.906
47536SOL    HW144505  13.667  12.358   7.867
47536SOL    HW244506  13.785  12.264   7.877
47537SOL     OW44507  14.131   7.284   2.867
47537SOL    HW144508  14.088   7.210   2.911
47537SOL    HW244509  14.192   7.319   2.932
47538SOL     OW44510   1.688  12.041   2.951
47538SOL    HW144511   1.717  12.075   2.867
47538SOL    HW244512   1.610  11.989   2.931
47539SOL     OW44513   2.527   2.472   3.532
47539SOL    HW144514   2.571   2.551   3.565
47539SOL    HW244515   2.589   2.434   3.470
47540SOL     OW44516  12.870  10.121  11.912
47540SOL    HW144517  12.912  10.191  11.962
47540SOL    HW244518  12.844  10.162  11.830
47541SOL     OW44519   1.588  12.195   9.000
47541SOL    HW144520   1.603  12.175   9.092
47541SOL    HW244521   1.674  12.186   8.959
47542SOL     OW44522   0.314   1.542   3.636
47542SOL    HW144523   0.401   1.530   3.598
47542SOL    HW244524   0.325   1.615   3.698
47543SOL     OW44525  14.536   5.881  14.419
47543SOL    HW144526  14.563   5.868  14.328
47543SOL    HW244527  14.552   5.797  14.461
47544SOL     OW44528   3.529   3.198  10.520
47544SOL    HW144529   3.584   3.198  10.598
47544SOL    HW244530   3.446   3.234  10.549
47545SOL     OW44531  10.945  13.773   6.562
47545SOL    HW144532  11.013  13.739   6.621
47545SOL    HW244533  10.862  13.746   6.603
47546SOL     OW44534   6.206   4.906   2.983
47546SOL    HW144535   6.239   4.995   2.993
47546SOL    HW244536   6.141   4.912   2.913
47547SOL     OW44537   2.090   2.011   8.865
47547SOL    HW144538   2.066   2.086   8.810
47547SOL    HW244539   2.183   2.021   8.880
47548SOL     OW44540  13.495   5.868   7.566
47548SOL    HW144541  13.564   5.854   7.501
47548SOL    HW244542  13.480   5.782   7.604
47549SOL     OW44543  12.313   0.324   0.088
47549SOL    HW144544  12.318   0.316   0.183
47549SOL    HW244545  12.243   0.387   0.072
47550SOL     OW44546  11.822  12.813   3.430
47550SOL    HW144547  11.834  12.906   3.413
47550SOL    HW244548  11.899  12.788   3.482
47551SOL     OW44549  10.455   4.210   6.417
47551SOL    HW144550  10.454   4.180   6.508
47551SOL    HW244551  10.409   4.294   6.419
47552SOL     OW44552   8.849   8.691   2.450
47552SOL    HW144553   8.937   8.727   2.443
47552SOL    HW244554   8.792   8.767   2.443
47553SOL     OW44555   2.179  12.737   6.994
47553SOL    HW144556   2.272  12.762   6.997
47553SOL    HW244557   2.158  12.714   7.085
47554SOL     OW44558  12.672   6.280   1.851
47554SOL    HW144559  12.587   6.255   1.888
47554SOL    HW244560  12.723   6.308   1.927
47555SOL     OW44561  14.076   3.244   5.233
47555SOL    HW144562  14.024   3.261   5.154
47555SOL    HW244563  14.062   3.152   5.252
47556SOL     OW44564   3.227   1.878   5.540
47556SOL    HW144565   3.196   1.787   5.530
47556SOL    HW244566   3.251   1.905   5.452
47557SOL     OW44567   3.376   8.642   5.466
47557SOL    HW144568   3.453   8.588   5.479
47557SOL    HW244569   3.387   8.716   5.525
47558SOL     OW44570   6.378  13.172   4.543
47558SOL    HW144571   6.338  13.259   4.542
47558SOL    HW244572   6.465  13.186   4.580
47559SOL     OW44573  14.808   9.659  13.898
47559SOL    HW144574  14.836   9.568  13.898
47559SOL    HW244575  14.789   9.679  13.990
47560SOL     OW44576   5.280   1.139   3.412
47560SOL    HW144577   5.291   1.135   3.317
47560SOL    HW244578   5.359   1.182   3.444
47561SOL     OW44579  11.463  14.591   4.163
47561SOL    HW144580  11.402  14.532   4.119
47561SOL    HW244581  11.416  14.674   4.172
47562SOL     OW44582   0.717   6.614  11.847
47562SOL    HW144583   0.675   6.528  11.847
47562SOL    HW244584   0.696   6.651  11.932
47563SOL     OW44585   5.463   3.559  14.825
47563SOL    HW144586   5.538   3.578  14.768
47563SOL    HW244587   5.392   3.539  14.764
47564SOL     OW44588  11.240   8.784  13.062
47564SOL    HW144589  11.251   8.878  13.049
47564SOL    HW244590  11.246   8.772  13.156
47565SOL     OW44591   3.209   1.249  10.023
47565SOL    HW144592   3.218   1.332   9.976
47565SOL    HW244593   3.121   1.252  10.059
47566SOL     OW44594   0.392  13.946  11.190
47566SOL    HW144595   0.357  13.859  11.174
47566SOL    HW244596   0.339  13.981  11.261
47567SOL     OW44597  12.928   5.276   6.288
47567SOL    HW144598  12.982   5.243   6.360
47567SOL    HW244599  12.911   5.368   6.311
47568SOL     OW44600   6.927   8.306   3.817
47568SOL    HW144601   6.883   8.238   3.868
47568SOL    HW244602   7.019   8.279   3.816
47569SOL     OW44603   3.585   3.373   4.676
47569SOL    HW144604   3.600   3.298   4.734
47569SOL    HW244605   3.526   3.430   4.724
47570SOL     OW44606   5.444   2.504   2.820
47570SOL    HW144607   5.404   2.420   2.801
47570SOL    HW244608   5.453   2.547   2.735
47571SOL     OW44609   0.644  12.529   1.722
47571SOL    HW144610   0.655  12.606   1.778
47571SOL    HW244611   0.573  12.480   1.763
47572SOL     OW44612  11.676   4.437   5.686
47572SOL    HW144613  11.720   4.354   5.708
47572SOL    HW244614  11.615   4.414   5.616
47573SOL     OW44615  11.657   3.955   2.131
47573SOL    HW144616  11.568   3.931   2.158
47573SOL    HW244617  11.698   3.872   2.108
47574SOL     OW44618   1.583  13.470   6.951
47574SOL    HW144619   1.575  13.437   6.861
47574SOL    HW244620   1.567  13.564   6.942
47575SOL     OW44621   2.215   5.682  14.495
47575SOL    HW144622   2.198   5.745  14.424
47575SOL    HW244623   2.276   5.619  14.457
47576SOL     OW44624   2.379   5.323   8.532
47576SOL    HW144625   2.454   5.264   8.543
47576SOL    HW244626   2.303   5.271   8.558
47577SOL     OW44627   4.209  12.142   1.754
47577SOL    HW144628   4.273  12.211   1.769
47577SOL    HW244629   4.128  12.175   1.791
47578SOL     OW44630   4.557  11.403   3.943
47578SOL    HW144631   4.552  11.308   3.956
47578SOL    HW244632   4.630  11.415   3.881
47579SOL     OW44633   1.849  11.649  10.735
47579SOL    HW144634   1.795  11.570  10.727
47579SOL    HW244635   1.814  11.693  10.813
47580SOL     OW44636   9.354  10.625  10.069
47580SOL    HW144637   9.263  10.603  10.048
47580SOL    HW244638   9.382  10.680   9.996
47581SOL     OW44639   4.781  10.251   6.000
47581SOL    HW144640   4.772  10.346   5.995
47581SOL    HW244641   4.763  10.220   5.911
47582SOL     OW44642  10.895  12.820  10.473
47582SOL    HW144643  10.918  12.884  10.406
47582SOL    HW244644  10.978  12.798  10.515
47583SOL     OW44645   0.330  14.590   8.048
47583SOL    HW144646   0.298  14.540   8.123
47583SOL    HW244647   0.265  14.574   7.979
47584SOL     OW44648  10.260  12.291   3.049
47584SOL    HW144649  10.247  12.247   2.966
47584SOL    HW244650  10.353  12.314   3.051
47585SOL     OW44651  11.259   1.569   5.094
47585SOL    HW144652  11.261   1.587   5.188
47585SOL    HW244653  11.277   1.475   5.087
47586SOL     OW44654  10.613   9.103   6.169
47586SOL    HW144655  10.518   9.119   6.166
47586SOL    HW244656  10.641   9.114   6.078
47587SOL     OW44657   4.342   8.223  12.322
47587SOL    HW144658   4.392   8.305  12.322
47587SOL    HW244659   4.289   8.227  12.402
47588SOL     OW44660   8.098   1.000  13.904
47588SOL    HW144661   8.182   1.034  13.873
47588SOL    HW244662   8.122   0.929  13.963
47589SOL     OW44663  10.848   7.085   3.273
47589SOL    HW144664  10.802   7.134   3.341
47589SOL    HW244665  10.909   7.148   3.234
47590SOL     OW44666   4.829   4.505   0.466
47590SOL    HW144667   4.851   4.524   0.557
47590SOL    HW244668   4.888   4.561   0.415
47591SOL     OW44669   9.310  10.891  14.198
47591SOL    HW144670   9.389  10.905  14.251
47591SOL    HW244671   9.324  10.806  14.156
47592SOL     OW44672   4.201   0.380   6.130
47592SOL    HW144673   4.162   0.403   6.046
47592SOL    HW244674   4.191   0.285   6.137
47593SOL     OW44675  11.029   8.635  11.087
47593SOL    HW144676  10.997   8.545  11.080
47593SOL    HW244677  11.061   8.641  11.177
47594SOL     OW44678   1.898  10.948   6.739
47594SOL    HW144679   1.968  10.933   6.677
47594SOL    HW244680   1.845  11.017   6.700
47595SOL     OW44681  13.077   0.436   1.640
47595SOL    HW144682  13.004   0.433   1.578
47595SOL    HW244683  13.112   0.346   1.640
47596SOL     OW44684   0.633  10.891   8.590
47596SOL    HW144685   0.547  10.923   8.565
47596SOL    HW244686   0.672  10.858   8.509
47597SOL     OW44687   6.996  10.228   0.413
47597SOL    HW144688   7.091  10.236   0.416
47597SOL    HW244689   6.969  10.224   0.505
47598SOL     OW44690   6.149   9.926   2.775
47598SOL    HW144691   6.151   9.917   2.870
47598SOL    HW244692   6.110  10.013   2.760
47599SOL     OW44693   9.700   7.700   0.641
47599SOL    HW144694   9.685   7.786   0.681
47599SOL    HW244695   9.785   7.672   0.675
47600SOL     OW44696  11.784   0.158  14.195
47600SOL    HW144697  11.816   0.107  14.121
47600SOL    HW244698  11.692   0.133  14.203
47601SOL     OW44699   2.669  11.193  10.267
47601SOL    HW144700   2.589  11.145  10.243
47601SOL    HW244701   2.663  11.204  10.361
47602SOL     OW44702   0.916   1.479   2.966
47602SOL    HW144703   0.993   1.524   3.001
47602SOL    HW244704   0.940   1.387   2.966
47603SOL     OW44705   5.258  11.499  11.393
47603SOL    HW144706   5.339  11.451  11.408
47603SOL    HW244707   5.198  11.468  11.461
47604SOL     OW44708   5.996  13.888  13.588
47604SOL    HW144709   6.011  13.982  13.588
47604SOL    HW244710   5.972  13.867  13.498
47605SOL     OW44711  12.370   7.506  10.216
47605SOL    HW144712  12.430   7.437  10.247
47605SOL    HW244713  12.354   7.560  10.293
47606SOL     OW44714   7.533   8.745  10.960
47606SOL    HW144715   7.601   8.801  10.998
47606SOL    HW244716   7.471   8.807  10.921
47607SOL     OW44717   5.317   1.439   4.239
47607SOL    HW144718   5.275   1.429   4.324
47607SOL    HW244719   5.370   1.360   4.229
47608SOL     OW44720   6.919   9.045   4.831
47608SOL    HW144721   6.823   9.043   4.826
47608SOL    HW244722   6.940   8.981   4.899
47609SOL     OW44723   9.316  11.138   9.388
47609SOL    HW144724   9.302  11.082   9.464
47609SOL    HW244725   9.230  11.148   9.349
47610SOL     OW44726  12.179  12.728   4.917
47610SOL    HW144727  12.114  12.716   4.848
47610SOL    HW244728  12.143  12.797   4.973
47611SOL     OW44729  13.952   9.326  10.501
47611SOL    HW144730  13.977   9.235  10.485
47611SOL    HW244731  14.007   9.354  10.575
47612SOL     OW44732   1.604  13.438   8.078
47612SOL    HW144733   1.642  13.352   8.060
47612SOL    HW244734   1.645  13.464   8.161
47613SOL     OW44735   9.992   1.055  11.717
47613SOL    HW144736   9.929   1.122  11.688
47613SOL    HW244737   9.967   1.035  11.807
47614SOL     OW44738   3.013   0.507   9.776
47614SOL    HW144739   2.930   0.497   9.729
47614SOL    HW244740   3.073   0.448   9.730
47615SOL     OW44741   6.511   1.298   5.106
47615SOL    HW144742   6.447   1.229   5.123
47615SOL    HW244743   6.552   1.313   5.192
47616SOL     OW44744  14.335   2.966   4.125
47616SOL    HW144745  14.340   2.944   4.032
47616SOL    HW244746  14.284   3.047   4.129
47617SOL     OW44747   3.326   8.216   4.652
47617SOL    HW144748   3.379   8.136   4.651
47617SOL    HW244749   3.365   8.271   4.583
47618SOL     OW44750   1.471   8.515   6.341
47618SOL    HW144751   1.499   8.535   6.430
47618SOL    HW244752   1.427   8.595   6.311
47619SOL     OW44753   4.705   3.923   8.242
47619SOL    HW144754   4.786   3.925   8.293
47619SOL    HW244755   4.645   3.870   8.295
47620SOL     OW44756   3.515   6.154  10.346
47620SOL    HW144757   3.509   6.250  10.348
47620SOL    HW244758   3.518   6.128  10.438
47621SOL     OW44759   9.927   2.926  12.135
47621SOL    HW144760   9.964   2.935  12.223
47621SOL    HW244761   9.881   3.009  12.120
47622SOL     OW44762   7.299   8.724   3.847
47622SOL    HW144763   7.222   8.684   3.888
47622SOL    HW244764   7.342   8.651   3.803
47623SOL     OW44765   0.214   5.885   7.796
47623SOL    HW144766   0.254   5.971   7.783
47623SOL    HW244767   0.217   5.844   7.709
47624SOL     OW44768   9.263   8.628  14.362
47624SOL    HW144769   9.248   8.551  14.308
47624SOL    HW244770   9.359   8.637  14.365
47625SOL     OW44771  13.407  12.448   0.528
47625SOL    HW144772  13.463  12.450   0.450
47625SOL    HW244773  13.397  12.356   0.549
47626SOL     OW44774  13.693   9.130   0.979
47626SOL    HW144775  13.645   9.212   0.992
47626SOL    HW244776  13.755   9.149   0.908
47627SOL     OW44777   7.574   5.955  12.573
47627SOL    HW144778   7.593   5.911  12.656
47627SOL    HW244779   7.613   6.042  12.583
47628SOL     OW44780   3.391   2.672  13.261
47628SOL    HW144781   3.375   2.665  13.355
47628SOL    HW244782   3.471   2.621  13.247
47629SOL     OW44783   8.138   6.226   6.818
47629SOL    HW144784   8.073   6.219   6.749
47629SOL    HW244785   8.156   6.136   6.843
47630SOL     OW44786  11.959   9.292   9.599
47630SOL    HW144787  12.051   9.320   9.596
47630SOL    HW244788  11.963   9.197   9.606
47631SOL     OW44789  13.694   1.482   7.866
47631SOL    HW144790  13.727   1.398   7.833
47631SOL    HW244791  13.612   1.495   7.820
47632SOL     OW44792   5.260   8.429   5.619
47632SOL    HW144793   5.299   8.353   5.576
47632SOL    HW244794   5.326   8.498   5.610
47633SOL     OW44795   7.137  10.777  14.773
47633SOL    HW144796   7.230  10.771  14.752
47633SOL    HW244797   7.094  10.726  14.704
47634SOL     OW44798  14.174   5.695  12.603
47634SOL    HW144799  14.249   5.657  12.650
47634SOL    HW244800  14.099   5.677  12.660
47635SOL     OW44801   4.611   1.282  10.662
47635SOL    HW144802   4.693   1.270  10.710
47635SOL    HW244803   4.577   1.194  10.650
47636SOL     OW44804   9.925   7.160  14.386
47636SOL    HW144805   9.923   7.101  14.311
47636SOL    HW244806  10.016   7.156  14.418
47637SOL     OW44807   6.846   2.205  12.040
47637SOL    HW144808   6.812   2.287  12.076
47637SOL    HW244809   6.772   2.145  12.044
47638SOL     OW44810   6.995   8.266   3.031
47638SOL    HW144811   6.954   8.225   2.955
47638SOL    HW244812   6.936   8.247   3.104
47639SOL     OW44813  10.920   0.932   2.800
47639SOL    HW144814  10.974   0.874   2.746
47639SOL    HW244815  10.856   0.874   2.840
47640SOL     OW44816   3.379   4.599  12.053
47640SOL    HW144817   3.473   4.583  12.046
47640SOL    HW244818   3.346   4.526  12.105
47641SOL     OW44819   6.704   2.145   4.949
47641SOL    HW144820   6.633   2.106   5.000
47641SOL    HW244821   6.665   2.164   4.864
47642SOL     OW44822   1.248   5.635   2.949
47642SOL    HW144823   1.191   5.639   3.025
47642SOL    HW244824   1.250   5.724   2.914
47643SOL     OW44825   2.348   2.497   3.243
47643SOL    HW144826   2.327   2.547   3.322
47643SOL    HW244827   2.383   2.414   3.275
47644SOL     OW44828   3.435   1.341  13.538
47644SOL    HW144829   3.505   1.371  13.595
47644SOL    HW244830   3.364   1.317  13.598
47645SOL     OW44831  14.815   9.140  11.046
47645SOL    HW144832   0.009   9.206  11.015
47645SOL    HW244833  14.832   9.064  10.991
47646SOL     OW44834   7.183   1.685   1.477
47646SOL    HW144835   7.248   1.638   1.425
47646SOL    HW244836   7.225   1.699   1.562
47647SOL     OW44837   3.811  14.508   8.891
47647SOL    HW144838   3.879  14.445   8.867
47647SOL    HW244839   3.769  14.471   8.968
47648SOL     OW44840   8.020   1.876   9.627
47648SOL    HW144841   8.023   1.853   9.534
47648SOL    HW244842   8.016   1.971   9.628
47649SOL     OW44843   8.382   1.031   7.121
47649SOL    HW144844   8.339   1.102   7.168
47649SOL    HW244845   8.382   1.059   7.029
47650SOL     OW44846   2.783  14.116  10.158
47650SOL    HW144847   2.707  14.088  10.209
47650SOL    HW244848   2.847  14.144  10.223
47651SOL     OW44849  11.414   3.253   1.473
47651SOL    HW144850  11.384   3.322   1.414
47651SOL    HW244851  11.506   3.241   1.452
47652SOL     OW44852   8.296  11.875   9.683
47652SOL    HW144853   8.230  11.944   9.690
47652SOL    HW244854   8.366  11.903   9.743
47653SOL     OW44855   4.907  13.715   8.777
47653SOL    HW144856   4.816  13.738   8.759
47653SOL    HW244857   4.944  13.692   8.691
47654SOL     OW44858   6.177  12.350   6.186
47654SOL    HW144859   6.189  12.441   6.159
47654SOL    HW244860   6.085  12.344   6.211
47655SOL     OW44861  13.578   1.327   8.622
47655SOL    HW144862  13.584   1.259   8.690
47655SOL    HW244863  13.648   1.304   8.560
47656SOL     OW44864  11.195  11.836   4.151
47656SOL    HW144865  11.167  11.913   4.103
47656SOL    HW244866  11.218  11.869   4.238
47657SOL     OW44867  10.863  10.356   7.988
47657SOL    HW144868  10.867  10.260   7.995
47657SOL    HW244869  10.823  10.384   8.070
47658SOL     OW44870   8.563   4.229   0.118
47658SOL    HW144871   8.513   4.310   0.103
47658SOL    HW244872   8.518   4.186   0.191
47659SOL     OW44873  10.493  10.401   2.162
47659SOL    HW144874  10.477  10.495   2.148
47659SOL    HW244875  10.411  10.359   2.137
47660SOL     OW44876   1.503  11.675  13.964
47660SOL    HW144877   1.481  11.649  14.054
47660SOL    HW244878   1.441  11.745  13.944
47661SOL     OW44879   5.535   0.143  11.499
47661SOL    HW144880   5.526   0.123  11.406
47661SOL    HW244881   5.484   0.223  11.511
47662SOL     OW44882   1.143   0.176   3.291
47662SOL    HW144883   1.126   0.270   3.294
47662SOL    HW244884   1.199   0.164   3.215
47663SOL     OW44885   9.203   7.465  10.531
47663SOL    HW144886   9.211   7.510  10.614
47663SOL    HW244887   9.293   7.441  10.507
47664SOL     OW44888   9.855  10.370   8.044
47664SOL    HW144889   9.887  10.405   8.128
47664SOL    HW244890   9.762  10.353   8.059
47665SOL     OW44891   1.871  10.661   4.738
47665SOL    HW144892   1.822  10.580   4.748
47665SOL    HW244893   1.804  10.729   4.729
47666SOL     OW44894   7.433   1.586   9.878
47666SOL    HW144895   7.431   1.500   9.920
47666SOL    HW244896   7.508   1.583   9.819
47667SOL     OW44897  14.222  12.075  12.632
47667SOL    HW144898  14.283  12.019  12.679
47667SOL    HW244899  14.230  12.160  12.674
47668SOL     OW44900  11.489  13.762   9.636
47668SOL    HW144901  11.471  13.756   9.730
47668SOL    HW244902  11.585  13.758   9.629
47669SOL     OW44903   5.937   3.487  11.507
47669SOL    HW144904   5.966   3.433  11.581
47669SOL    HW244905   5.944   3.577  11.539
47670SOL     OW44906   9.619   0.731   6.213
47670SOL    HW144907   9.576   0.814   6.190
47670SOL    HW244908   9.556   0.663   6.186
47671SOL     OW44909   5.139   4.951  12.208
47671SOL    HW144910   5.220   4.920  12.247
47671SOL    HW244911   5.088   4.872  12.193
47672SOL     OW44912   2.970   3.477   7.746
47672SOL    HW144913   2.952   3.498   7.838
47672SOL    HW244914   3.026   3.399   7.750
47673SOL     OW44915  11.632   9.333  11.195
47673SOL    HW144916  11.663   9.341  11.105
47673SOL    HW244917  11.695   9.273  11.237
47674SOL     OW44918   9.977  14.689  12.216
47674SOL    HW144919  10.009  14.650  12.134
47674SOL    HW244920   9.965  14.781  12.195
47675SOL     OW44921   0.666   7.502   1.502
47675SOL    HW144922   0.671   7.503   1.597
47675SOL    HW244923   0.726   7.571   1.474
47676SOL     OW44924   0.577  11.805   4.267
47676SOL    HW144925   0.637  11.851   4.326
47676SOL    HW244926   0.497  11.857   4.268
47677SOL     OW44927  11.875  14.189   9.043
47677SOL    HW144928  11.785  14.195   9.009
47677SOL    HW244929  11.929  14.174   8.965
47678SOL     OW44930   9.878  11.606  11.972
47678SOL    HW144931   9.822  11.646  11.906
47678SOL    HW244932   9.827  11.610  12.053
47679SOL     OW44933   1.640  10.048   8.168
47679SOL    HW144934   1.713  10.002   8.127
47679SOL    HW244935   1.626  10.003   8.251
47680SOL     OW44936  10.409   6.931   2.621
47680SOL    HW144937  10.375   6.877   2.549
47680SOL    HW244938  10.467   6.872   2.669
47681SOL     OW44939  13.370   1.936   6.041
47681SOL    HW144940  13.346   1.852   6.003
47681SOL    HW244941  13.401   1.988   5.967
47682SOL     OW44942   6.783   6.416  12.661
47682SOL    HW144943   6.776   6.357  12.736
47682SOL    HW244944   6.863   6.465  12.677
47683SOL     OW44945   2.572  10.367   8.694
47683SOL    HW144946   2.658  10.388   8.731
47683SOL    HW244947   2.568  10.415   8.612
47684SOL     OW44948  11.021   7.887   5.874
47684SOL    HW144949  11.028   7.974   5.912
47684SOL    HW244950  11.112   7.856   5.867
47685SOL     OW44951  10.917  10.717   1.676
47685SOL    HW144952  10.859  10.778   1.721
47685SOL    HW244953  10.911  10.636   1.726
47686SOL     OW44954   0.724   1.461   1.890
47686SOL    HW144955   0.720   1.375   1.931
47686SOL    HW244956   0.648   1.508   1.924
47687SOL     OW44957   7.439  11.837   3.157
47687SOL    HW144958   7.376  11.780   3.200
47687SOL    HW244959   7.403  11.851   3.069
47688SOL     OW44960  12.414  10.905   7.579
47688SOL    HW144961  12.391  10.901   7.671
47688SOL    HW244962  12.467  10.984   7.570
47689SOL     OW44963   8.317   2.281   0.083
47689SOL    HW144964   8.233   2.311   0.118
47689SOL    HW244965   8.303   2.188   0.065
47690SOL     OW44966   8.912  14.300   8.149
47690SOL    HW144967   8.903  14.233   8.081
47690SOL    HW244968   8.865  14.375   8.114
47691SOL     OW44969   5.782   8.108   6.857
47691SOL    HW144970   5.789   8.019   6.892
47691SOL    HW244971   5.691   8.132   6.870
47692SOL     OW44972  12.537   0.732   5.513
47692SOL    HW144973  12.515   0.687   5.595
47692SOL    HW244974  12.519   0.825   5.532
47693SOL     OW44975   7.471  10.870  14.216
47693SOL    HW144976   7.460  10.914  14.301
47693SOL    HW244977   7.524  10.931  14.165
47694SOL     OW44978  10.403  14.734   9.429
47694SOL    HW144979  10.434  14.755   9.341
47694SOL    HW244980  10.469  14.773   9.487
47695SOL     OW44981   2.227   2.776   8.417
47695SOL    HW144982   2.255   2.863   8.389
47695SOL    HW244983   2.303   2.720   8.401
47696SOL     OW44984   5.168   3.292   5.980
47696SOL    HW144985   5.254   3.332   5.965
47696SOL    HW244986   5.164   3.220   5.918
47697SOL     OW44987  10.639   5.413   6.729
47697SOL    HW144988  10.730   5.421   6.757
47697SOL    HW244989  10.617   5.321   6.743
47698SOL     OW44990  11.116  14.134   5.424
47698SOL    HW144991  11.161  14.215   5.400
47698SOL    HW244992  11.104  14.088   5.341
47699SOL     OW44993   3.283   1.840   9.154
47699SOL    HW144994   3.305   1.751   9.128
47699SOL    HW244995   3.313   1.846   9.245
47700SOL     OW44996   7.433  13.163   0.336
47700SOL    HW144997   7.370  13.187   0.403
47700SOL    HW244998   7.517  13.160   0.381
47701SOL     OW44999   4.952   3.569   3.157
47701SOL    HW145000   4.905   3.513   3.095
47701SOL    HW245001   4.912   3.655   3.147
47702SOL     OW45002  10.522  13.230   7.992
47702SOL    HW145003  10.571  13.198   8.068
47702SOL    HW245004  10.555  13.177   7.919
47703SOL     OW45005   8.143   6.352  14.379
47703SOL    HW145006   8.121   6.376  14.289
47703SOL    HW245007   8.209   6.416  14.405
47704SOL     OW45008   9.233   4.216   9.021
47704SOL    HW145009   9.268   4.304   9.008
47704SOL    HW245010   9.282   4.162   8.959
47705SOL     OW45011   6.770   9.386  10.879
47705SOL    HW145012   6.766   9.301  10.924
47705SOL    HW245013   6.837   9.435  10.926
47706SOL     OW45014   7.773  10.498   0.242
47706SOL    HW145015   7.756  10.557   0.315
47706SOL    HW245016   7.835  10.434   0.276
47707SOL     OW45017   7.959   7.674   4.443
47707SOL    HW145018   8.049   7.673   4.411
47707SOL    HW245019   7.967   7.669   4.539
47708SOL     OW45020  14.014   7.621   8.348
47708SOL    HW145021  13.992   7.553   8.412
47708SOL    HW245022  14.090   7.666   8.385
47709SOL     OW45023   0.386   5.591   6.524
47709SOL    HW145024   0.296   5.574   6.550
47709SOL    HW245025   0.439   5.551   6.593
47710SOL     OW45026   2.209   2.709   3.842
47710SOL    HW145027   2.125   2.749   3.865
47710SOL    HW245028   2.203   2.620   3.876
47711SOL     OW45029   9.246   3.102   9.570
47711SOL    HW145030   9.196   3.179   9.542
47711SOL    HW245031   9.286   3.128   9.653
47712SOL     OW45032  13.005  13.315   8.027
47712SOL    HW145033  12.994  13.228   8.066
47712SOL    HW245034  12.932  13.366   8.062
47713SOL     OW45035  12.092   5.817  12.217
47713SOL    HW145036  12.039   5.761  12.161
47713SOL    HW245037  12.179   5.817  12.175
47714SOL     OW45038   0.673   1.929  11.793
47714SOL    HW145039   0.742   1.868  11.821
47714SOL    HW245040   0.712   2.016  11.802
47715SOL     OW45041   2.705   8.748  11.639
47715SOL    HW145042   2.714   8.658  11.606
47715SOL    HW245043   2.776   8.796  11.598
47716SOL     OW45044  11.517  11.265   3.072
47716SOL    HW145045  11.608  11.260   3.044
47716SOL    HW245046  11.470  11.298   2.996
47717SOL     OW45047   6.876   0.756   4.014
47717SOL    HW145048   6.941   0.686   4.004
47717SOL    HW245049   6.801   0.725   3.964
47718SOL     OW45050   0.030   3.035   7.916
47718SOL    HW145051   0.008   3.025   7.824
47718SOL    HW245052   0.070   3.122   7.921
47719SOL     OW45053   2.712   8.453   2.981
47719SOL    HW145054   2.665   8.370   2.983
47719SOL    HW245055   2.714   8.478   2.889
47720SOL     OW45056   7.475   9.086   1.661
47720SOL    HW145057   7.477   9.083   1.565
47720SOL    HW245058   7.556   9.131   1.685
47721SOL     OW45059  10.060   3.280  12.004
47721SOL    HW145060  10.034   3.372  12.014
47721SOL    HW245061   9.977   3.232  12.004
47722SOL     OW45062   1.684  12.006   2.318
47722SOL    HW145063   1.763  11.971   2.277
47722SOL    HW245064   1.622  12.017   2.246
47723SOL     OW45065  14.857  13.591   4.242
47723SOL    HW145066   0.035  13.674   4.241
47723SOL    HW245067  14.849  13.568   4.149
47724SOL     OW45068  10.653   1.026  13.084
47724SOL    HW145069  10.636   0.939  13.047
47724SOL    HW245070  10.738   1.017  13.128
47725SOL     OW45071   3.608   0.628   2.693
47725SOL    HW145072   3.535   0.570   2.714
47725SOL    HW245073   3.640   0.658   2.778
47726SOL     OW45074   8.122   3.177   3.331
47726SOL    HW145075   8.200   3.121   3.327
47726SOL    HW245076   8.088   3.165   3.419
47727SOL     OW45077  12.514   5.473   4.462
47727SOL    HW145078  12.504   5.382   4.432
47727SOL    HW245079  12.602   5.478   4.497
47728SOL     OW45080  13.003   7.229  13.973
47728SOL    HW145081  12.984   7.136  13.986
47728SOL    HW245082  12.939   7.257  13.908
47729SOL     OW45083   7.514   0.723  10.267
47729SOL    HW145084   7.542   0.656  10.205
47729SOL    HW245085   7.592   0.744  10.317
47730SOL     OW45086  10.340   2.591   7.282
47730SOL    HW145087  10.262   2.587   7.227
47730SOL    HW245088  10.309   2.571   7.370
47731SOL     OW45089   0.706   9.977   6.412
47731SOL    HW145090   0.709  10.022   6.328
47731SOL    HW245091   0.674  10.043   6.473
47732SOL     OW45092  12.042   3.138   7.372
47732SOL    HW145093  12.065   3.068   7.433
47732SOL    HW245094  11.975   3.189   7.419
47733SOL     OW45095   7.259  13.245   9.875
47733SOL    HW145096   7.324  13.308   9.907
47733SOL    HW245097   7.182  13.298   9.855
47734SOL     OW45098   8.437   5.913  12.535
47734SOL    HW145099   8.501   5.957  12.480
47734SOL    HW245100   8.378   5.982  12.563
47735SOL     OW45101   7.071  10.181  12.375
47735SOL    HW145102   6.992  10.233  12.389
47735SOL    HW245103   7.103  10.209  12.289
47736SOL     OW45104   5.721   4.467  10.045
47736SOL    HW145105   5.629   4.491  10.030
47736SOL    HW245106   5.719   4.410  10.121
47737SOL     OW45107   7.435   4.428   4.674
47737SOL    HW145108   7.484   4.504   4.642
47737SOL    HW245109   7.423   4.445   4.767
47738SOL     OW45110   1.603  11.274   2.705
47738SOL    HW145111   1.606  11.231   2.791
47738SOL    HW245112   1.671  11.231   2.654
47739SOL     OW45113  12.455   4.737   8.379
47739SOL    HW145114  12.419   4.671   8.320
47739SOL    HW245115  12.383   4.798   8.393
47740SOL     OW45116   0.186  12.258   1.307
47740SOL    HW145117   0.206  12.349   1.327
47740SOL    HW245118   0.256  12.208   1.351
47741SOL     OW45119  14.392   6.509   3.970
47741SOL    HW145120  14.442   6.571   3.917
47741SOL    HW245121  14.301   6.526   3.947
47742SOL     OW45122   5.982  14.140   9.377
47742SOL    HW145123   5.954  14.170   9.464
47742SOL    HW245124   6.007  14.221   9.332
47743SOL     OW45125  14.825   1.965   9.389
47743SOL    HW145126   0.048   1.989   9.381
47743SOL    HW245127  14.785   2.038   9.436
47744SOL     OW45128   9.334  12.248  12.483
47744SOL    HW145129   9.324  12.154  12.470
47744SOL    HW245130   9.390  12.277  12.411
47745SOL     OW45131  14.003  10.491   0.926
47745SOL    HW145132  14.051  10.530   0.999
47745SOL    HW245133  14.064  10.426   0.891
47746SOL     OW45134  13.288  13.244  11.168
47746SOL    HW145135  13.289  13.223  11.262
47746SOL    HW245136  13.274  13.160  11.125
47747SOL     OW45137  11.987  14.772   6.190
47747SOL    HW145138  12.035  14.830   6.132
47747SOL    HW245139  12.032  14.688   6.185
47748SOL     OW45140   0.323   1.169   0.334
47748SOL    HW145141   0.254   1.235   0.338
47748SOL    HW245142   0.293   1.107   0.267
47749SOL     OW45143  13.384  13.643   6.928
47749SOL    HW145144  13.418  13.653   6.840
47749SOL    HW245145  13.392  13.731   6.967
47750SOL     OW45146   8.497   3.751   5.519
47750SOL    HW145147   8.572   3.692   5.511
47750SOL    HW245148   8.522   3.828   5.468
47751SOL     OW45149  11.003   8.392   3.701
47751SOL    HW145150  11.080   8.364   3.751
47751SOL    HW245151  11.028   8.378   3.610
47752SOL     OW45152   2.875   5.127   0.953
47752SOL    HW145153   2.888   5.049   1.007
47752SOL    HW245154   2.929   5.194   0.994
47753SOL     OW45155  12.079   6.914  11.641
47753SOL    HW145156  12.035   6.993  11.672
47753SOL    HW245157  12.169   6.922  11.674
47754SOL     OW45158  11.181   9.625   4.723
47754SOL    HW145159  11.141   9.687   4.784
47754SOL    HW245160  11.143   9.540   4.746
47755SOL     OW45161   4.197  11.100  12.628
47755SOL    HW145162   4.276  11.096  12.682
47755SOL    HW245163   4.214  11.171  12.566
47756SOL     OW45164   5.746  12.108  13.763
47756SOL    HW145165   5.757  12.046  13.834
47756SOL    HW245166   5.692  12.063  13.698
47757SOL     OW45167   2.334  10.702   4.008
47757SOL    HW145168   2.252  10.680   3.965
47757SOL    HW245169   2.401  10.657   3.956
47758SOL     OW45170   6.501  13.822  14.340
47758SOL    HW145171   6.424  13.871  14.312
47758SOL    HW245172   6.466  13.738  14.370
47759SOL     OW45173   7.972  14.759  12.794
47759SOL    HW145174   8.026  14.741  12.716
47759SOL    HW245175   8.035  14.760  12.866
47760SOL     OW45176  13.393   5.760   9.511
47760SOL    HW145177  13.377   5.812   9.432
47760SOL    HW245178  13.484   5.777   9.533
47761SOL     OW45179   9.312  10.464  12.792
47761SOL    HW145180   9.269  10.379  12.788
47761SOL    HW245181   9.328  10.488  12.701
47762SOL     OW45182   8.612   0.336  10.737
47762SOL    HW145183   8.688   0.304  10.689
47762SOL    HW245184   8.647   0.403  10.796
47763SOL     OW45185  10.256   9.851  11.252
47763SOL    HW145186  10.197   9.844  11.328
47763SOL    HW245187  10.341   9.823  11.286
47764SOL     OW45188  10.888   0.457  12.491
47764SOL    HW145189  10.942   0.397  12.440
47764SOL    HW245190  10.945   0.486  12.563
47765SOL     OW45191   1.651   5.960   3.833
47765SOL    HW145192   1.578   5.900   3.849
47765SOL    HW245193   1.701   5.918   3.763
47766SOL     OW45194  12.562   3.486   3.734
47766SOL    HW145195  12.589   3.396   3.748
47766SOL    HW245196  12.615   3.537   3.796
47767SOL     OW45197   7.517  13.539   7.746
47767SOL    HW145198   7.464  13.487   7.806
47767SOL    HW245199   7.466  13.541   7.665
47768SOL     OW45200  11.760   7.485  11.918
47768SOL    HW145201  11.726   7.550  11.980
47768SOL    HW245202  11.711   7.501  11.837
47769SOL     OW45203   2.248  11.782  11.387
47769SOL    HW145204   2.233  11.699  11.432
47769SOL    HW245205   2.162  11.806  11.352
47770SOL     OW45206   9.569   4.798   9.817
47770SOL    HW145207   9.507   4.832   9.753
47770SOL    HW245208   9.519   4.792   9.898
47771SOL     OW45209   5.034   8.899   3.817
47771SOL    HW145210   5.026   8.994   3.819
47771SOL    HW245211   5.000   8.870   3.902
47772SOL     OW45212   7.202   8.030   7.042
47772SOL    HW145213   7.237   7.944   7.020
47772SOL    HW245214   7.202   8.032   7.138
47773SOL     OW45215  11.943   7.668   8.106
47773SOL    HW145216  11.893   7.725   8.048
47773SOL    HW245217  12.034   7.684   8.082
47774SOL     OW45218   3.777   7.339  11.734
47774SOL    HW145219   3.718   7.392  11.787
47774SOL    HW245220   3.846   7.311  11.795
47775SOL     OW45221   6.445  10.055   6.792
47775SOL    HW145222   6.417  10.137   6.833
47775SOL    HW245223   6.509  10.081   6.726
47776SOL     OW45224   4.379  12.316  11.410
47776SOL    HW145225   4.417  12.266  11.483
47776SOL    HW245226   4.307  12.262  11.380
47777SOL     OW45227  12.803   4.067   2.335
47777SOL    HW145228  12.771   4.074   2.245
47777SOL    HW245229  12.893   4.101   2.331
47778SOL     OW45230  12.623  12.757  12.364
47778SOL    HW145231  12.632  12.664  12.384
47778SOL    HW245232  12.669  12.768  12.281
47779SOL     OW45233   9.603  11.002   5.561
47779SOL    HW145234   9.577  10.910   5.562
47779SOL    HW245235   9.640  11.017   5.648
47780SOL     OW45236   8.622  10.342   5.082
47780SOL    HW145237   8.576  10.264   5.053
47780SOL    HW245238   8.715  10.317   5.081
47781SOL     OW45239   8.388   2.220  14.352
47781SOL    HW145240   8.390   2.278  14.428
47781SOL    HW245241   8.435   2.141  14.380
47782SOL     OW45242   8.505  10.237  14.151
47782SOL    HW145243   8.509  10.239  14.055
47782SOL    HW245244   8.590  10.202  14.178
47783SOL     OW45245   1.610   2.784  12.270
47783SOL    HW145246   1.603   2.737  12.353
47783SOL    HW245247   1.593   2.717  12.203
47784SOL     OW45248   8.262   0.791   6.190
47784SOL    HW145249   8.336   0.731   6.191
47784SOL    HW245250   8.292   0.866   6.140
47785SOL     OW45251  11.775   3.061   2.822
47785SOL    HW145252  11.842   3.017   2.874
47785SOL    HW245253  11.768   3.008   2.743
47786SOL     OW45254   3.231   3.569   8.860
47786SOL    HW145255   3.292   3.509   8.817
47786SOL    HW245256   3.175   3.513   8.913
47787SOL     OW45257   4.652   6.268   7.710
47787SOL    HW145258   4.618   6.353   7.738
47787SOL    HW245259   4.595   6.242   7.637
47788SOL     OW45260   2.783   0.467   2.995
47788SOL    HW145261   2.729   0.406   3.045
47788SOL    HW245262   2.756   0.554   3.025
47789SOL     OW45263   7.337   6.902   4.638
47789SOL    HW145264   7.293   6.922   4.720
47789SOL    HW245265   7.311   6.972   4.579
47790SOL     OW45266  10.148   0.089  14.813
47790SOL    HW145267  10.099   0.062  14.735
47790SOL    HW245268  10.206   0.015  14.832
47791SOL     OW45269  10.959   9.750  12.295
47791SOL    HW145270  10.885   9.782  12.347
47791SOL    HW245271  10.975   9.661  12.328
47792SOL     OW45272  11.648   4.111   1.893
47792SOL    HW145273  11.718   4.176   1.893
47792SOL    HW245274  11.669   4.053   1.966
47793SOL     OW45275   2.485   7.055   6.303
47793SOL    HW145276   2.518   6.968   6.327
47793SOL    HW245277   2.456   7.094   6.385
47794SOL     OW45278   5.831   7.975   9.106
47794SOL    HW145279   5.744   7.950   9.075
47794SOL    HW245280   5.842   7.927   9.187
47795SOL     OW45281   9.157   0.042  10.526
47795SOL    HW145282   9.181   0.084  10.609
47795SOL    HW245283   9.231  14.853  10.507
47796SOL     OW45284   6.871  10.901  11.794
47796SOL    HW145285   6.966  10.897  11.804
47796SOL    HW245286   6.849  10.829  11.736
47797SOL     OW45287   2.099  10.314   7.934
47797SOL    HW145288   2.135  10.379   7.875
47797SOL    HW245289   2.053  10.365   8.001
47798SOL     OW45290   3.878  13.511   6.582
47798SOL    HW145291   3.853  13.574   6.515
47798SOL    HW245292   3.888  13.564   6.661
47799SOL     OW45293   8.077  10.752   4.403
47799SOL    HW145294   8.142  10.807   4.447
47799SOL    HW245295   7.993  10.793   4.423
47800SOL     OW45296   8.687  14.441   0.915
47800SOL    HW145297   8.768  14.414   0.958
47800SOL    HW245298   8.630  14.365   0.921
47801SOL     OW45299   2.148   9.777  10.785
47801SOL    HW145300   2.090   9.707  10.812
47801SOL    HW245301   2.121   9.797  10.695
47802SOL     OW45302  14.479   2.262  14.592
47802SOL    HW145303  14.466   2.232  14.682
47802SOL    HW245304  14.449   2.190  14.538
47803SOL     OW45305  10.287  11.723   0.746
47803SOL    HW145306  10.376  11.730   0.712
47803SOL    HW245307  10.296  11.677   0.829
47804SOL     OW45308   3.781   3.306   2.512
47804SOL    HW145309   3.743   3.356   2.440
47804SOL    HW245310   3.722   3.321   2.586
47805SOL     OW45311  14.597  11.203  12.501
47805SOL    HW145312  14.613  11.122  12.550
47805SOL    HW245313  14.542  11.255  12.560
47806SOL     OW45314   1.999   6.807   8.138
47806SOL    HW145315   2.035   6.883   8.091
47806SOL    HW245316   1.931   6.773   8.079
47807SOL     OW45317   8.681   0.182  12.402
47807SOL    HW145318   8.638   0.268  12.399
47807SOL    HW245319   8.688   0.163  12.495
47808SOL     OW45320  12.616   2.179   6.049
47808SOL    HW145321  12.575   2.266   6.051
47808SOL    HW245322  12.650   2.171   5.960
47809SOL     OW45323  12.104   3.933   1.043
47809SOL    HW145324  12.194   3.957   1.021
47809SOL    HW245325  12.097   3.949   1.137
47810SOL     OW45326  13.185   5.545  14.679
47810SOL    HW145327  13.092   5.523  14.679
47810SOL    HW245328  13.202   5.573  14.589
47811SOL     OW45329   9.296  11.608   8.894
47811SOL    HW145330   9.327  11.521   8.871
47811SOL    HW245331   9.207  11.613   8.859
47812SOL     OW45332   0.952   2.902   1.879
47812SOL    HW145333   1.029   2.938   1.834
47812SOL    HW245334   0.942   2.814   1.842
47813SOL     OW45335   8.442  14.765   7.109
47813SOL    HW145336   8.462  14.858   7.105
47813SOL    HW245337   8.527  14.721   7.118
47814SOL     OW45338   4.338   7.829  13.124
47814SOL    HW145339   4.411   7.878  13.162
47814SOL    HW245340   4.297   7.891  13.063
47815SOL     OW45341   1.191   2.355  10.390
47815SOL    HW145342   1.200   2.402  10.473
47815SOL    HW245343   1.274   2.309  10.380
47816SOL     OW45344   7.099   3.536   4.120
47816SOL    HW145345   7.050   3.615   4.100
47816SOL    HW245346   7.079   3.476   4.049
47817SOL     OW45347   1.873   7.134   3.980
47817SOL    HW145348   1.950   7.151   4.035
47817SOL    HW245349   1.861   7.215   3.930
47818SOL     OW45350  11.342   8.060   2.918
47818SOL    HW145351  11.260   8.092   2.881
47818SOL    HW245352  11.407   8.077   2.849
47819SOL     OW45353  11.647  14.666   3.304
47819SOL    HW145354  11.652  14.675   3.208
47819SOL    HW245355  11.638  14.572   3.319
47820SOL     OW45356   0.755   1.419   8.640
47820SOL    HW145357   0.677   1.371   8.612
47820SOL    HW245358   0.827   1.376   8.595
47821SOL     OW45359   9.445   2.562  13.110
47821SOL    HW145360   9.461   2.564  13.016
47821SOL    HW245361   9.361   2.517  13.119
47822SOL     OW45362   6.591  14.513   2.576
47822SOL    HW145363   6.672  14.499   2.623
47822SOL    HW245364   6.605  14.593   2.526
47823SOL     OW45365  13.470   3.295  12.538
47823SOL    HW145366  13.421   3.308  12.456
47823SOL    HW245367  13.413   3.240  12.591
47824SOL     OW45368  13.990   0.428   8.292
47824SOL    HW145369  13.987   0.399   8.384
47824SOL    HW245370  13.976   0.522   8.296
47825SOL     OW45371   6.086   0.985   0.614
47825SOL    HW145372   6.046   0.910   0.570
47825SOL    HW245373   6.025   1.007   0.685
47826SOL     OW45374   5.287   2.235   5.347
47826SOL    HW145375   5.331   2.161   5.387
47826SOL    HW245376   5.313   2.310   5.400
47827SOL     OW45377   0.696  13.592   9.231
47827SOL    HW145378   0.662  13.522   9.175
47827SOL    HW245379   0.763  13.635   9.177
47828SOL     OW45380   6.839   2.217   3.342
47828SOL    HW145381   6.833   2.256   3.255
47828SOL    HW245382   6.908   2.266   3.386
47829SOL     OW45383  14.113  10.067  13.789
47829SOL    HW145384  14.185  10.006  13.806
47829SOL    HW245385  14.150  10.134  13.731
47830SOL     OW45386   9.350   4.874  11.990
47830SOL    HW145387   9.413   4.810  12.024
47830SOL    HW245388   9.297   4.824  11.928
47831SOL     OW45389   5.529   7.229   2.520
47831SOL    HW145390   5.598   7.291   2.544
47831SOL    HW245391   5.573   7.144   2.516
47832SOL     OW45392  10.892   3.548   5.580
47832SOL    HW145393  10.965   3.588   5.533
47832SOL    HW245394  10.934   3.497   5.649
47833SOL     OW45395   0.479   8.263   5.516
47833SOL    HW145396   0.525   8.325   5.459
47833SOL    HW245397   0.403   8.236   5.465
47834SOL     OW45398   7.206  11.553   1.902
47834SOL    HW145399   7.140  11.621   1.891
47834SOL    HW245400   7.199  11.499   1.823
47835SOL     OW45401  11.799  14.035  12.815
47835SOL    HW145402  11.862  14.103  12.789
47835SOL    HW245403  11.786  13.984  12.735
47836SOL     OW45404  10.132   4.350   9.492
47836SOL    HW145405  10.100   4.384   9.575
47836SOL    HW245406  10.116   4.420   9.429
47837SOL     OW45407  11.479   2.676   5.653
47837SOL    HW145408  11.470   2.731   5.575
47837SOL    HW245409  11.547   2.720   5.704
47838SOL     OW45410   0.385   6.823   7.703
47838SOL    HW145411   0.465   6.772   7.689
47838SOL    HW245412   0.379   6.881   7.627
47839SOL     OW45413   7.537   1.237   2.043
47839SOL    HW145414   7.526   1.228   2.137
47839SOL    HW245415   7.588   1.317   2.032
47840SOL     OW45416   6.066   3.662   5.399
47840SOL    HW145417   6.008   3.653   5.474
47840SOL    HW245418   6.008   3.687   5.327
47841SOL     OW45419   4.236  11.395  14.253
47841SOL    HW145420   4.259  11.487  14.268
47841SOL    HW245421   4.280  11.347  14.323
47842SOL     OW45422   0.888   3.373   0.099
47842SOL    HW145423   0.828   3.411   0.163
47842SOL    HW245424   0.948   3.444   0.077
47843SOL     OW45425  11.243  10.006   6.044
47843SOL    HW145426  11.306  10.011   6.116
47843SOL    HW245427  11.219   9.914   6.039
47844SOL     OW45428   5.932   0.430   1.971
47844SOL    HW145429   5.929   0.353   1.915
47844SOL    HW245430   6.001   0.411   2.035
47845SOL     OW45431  10.780   2.594   2.411
47845SOL    HW145432  10.695   2.608   2.453
47845SOL    HW245433  10.794   2.499   2.416
47846SOL     OW45434  12.955  12.246   0.432
47846SOL    HW145435  13.018  12.310   0.397
47846SOL    HW245436  12.874  12.297   0.444
47847SOL     OW45437   2.320   7.500  10.000
47847SOL    HW145438   2.303   7.436   9.931
47847SOL    HW245439   2.331   7.583   9.953
47848SOL     OW45440  10.932   6.347   7.990
47848SOL    HW145441  10.893   6.268   7.953
47848SOL    HW245442  10.932   6.332   8.085
47849SOL     OW45443   6.211   1.919  10.966
47849SOL    HW145444   6.187   2.000  10.921
47849SOL    HW245445   6.131   1.892  11.012
47850SOL     OW45446   5.546   0.433  12.810
47850SOL    HW145447   5.544   0.414  12.716
47850SOL    HW245448   5.624   0.388  12.842
47851SOL     OW45449  12.731   9.372   6.904
47851SOL    HW145450  12.817   9.395   6.939
47851SOL    HW245451  12.687   9.456   6.889
47852SOL     OW45452   8.213   4.457  11.036
47852SOL    HW145453   8.279   4.497  10.980
47852SOL    HW245454   8.129   4.489  11.000
47853SOL     OW45455   8.127   1.406   7.103
47853SOL    HW145456   8.073   1.352   7.047
47853SOL    HW245457   8.072   1.481   7.124
47854SOL     OW45458   8.384   1.793   2.382
47854SOL    HW145459   8.464   1.845   2.393
47854SOL    HW245460   8.406   1.708   2.420
47855SOL     OW45461  14.475  13.323  14.537
47855SOL    HW145462  14.427  13.403  14.557
47855SOL    HW245463  14.451  13.302  14.447
47856SOL     OW45464   4.272   0.535  11.342
47856SOL    HW145465   4.223   0.592  11.284
47856SOL    HW245466   4.342   0.499  11.288
47857SOL     OW45467   0.543   9.069   6.428
47857SOL    HW145468   0.583   9.155   6.442
47857SOL    HW245469   0.561   9.048   6.336
47858SOL     OW45470   0.891   7.488   1.131
47858SOL    HW145471   0.878   7.427   1.203
47858SOL    HW245472   0.970   7.537   1.154
47859SOL     OW45473  12.585  10.231   4.488
47859SOL    HW145474  12.567  10.177   4.410
47859SOL    HW245475  12.655  10.184   4.533
47860SOL     OW45476   0.027   5.821   0.366
47860SOL    HW145477  14.865   5.830   0.456
47860SOL    HW245478  14.859   5.896   0.319
47861SOL     OW45479  14.201  11.028   9.293
47861SOL    HW145480  14.162  11.082   9.224
47861SOL    HW245481  14.239  11.091   9.354
47862SOL     OW45482  12.970   9.460   1.204
47862SOL    HW145483  12.916   9.438   1.127
47862SOL    HW245484  12.919   9.526   1.251
47863SOL     OW45485  14.131  10.350  12.226
47863SOL    HW145486  14.200  10.318  12.284
47863SOL    HW245487  14.125  10.444  12.245
47864SOL     OW45488  13.375   0.301   6.477
47864SOL    HW145489  13.427   0.271   6.402
47864SOL    HW245490  13.321   0.372   6.443
47865SOL     OW45491  14.377   7.516   2.175
47865SOL    HW145492  14.344   7.606   2.175
47865SOL    HW245493  14.330   7.473   2.103
47866SOL     OW45494   7.811  12.820  12.075
47866SOL    HW145495   7.777  12.833  11.987
47866SOL    HW245496   7.906  12.827  12.065
47867SOL     OW45497   7.411   9.986   4.948
47867SOL    HW145498   7.443  10.063   4.996
47867SOL    HW245499   7.353  10.022   4.881
47868SOL     OW45500  11.524   7.058   4.216
47868SOL    HW145501  11.503   6.970   4.247
47868SOL    HW245502  11.506   7.055   4.122
47869SOL     OW45503  10.432  11.386   8.950
47869SOL    HW145504  10.491  11.378   8.876
47869SOL    HW245505  10.439  11.303   8.997
47870SOL     OW45506   0.937  13.801   9.741
47870SOL    HW145507   1.005  13.867   9.753
47870SOL    HW245508   0.986  13.719   9.731
47871SOL     OW45509  11.213   9.816  10.924
47871SOL    HW145510  11.124   9.826  10.958
47871SOL    HW245511  11.251   9.744  10.975
47872SOL     OW45512   0.854   4.508  13.773
47872SOL    HW145513   0.900   4.534  13.853
47872SOL    HW245514   0.879   4.574  13.708
47873SOL     OW45515   1.542  12.765  10.685
47873SOL    HW145516   1.475  12.714  10.732
47873SOL    HW245517   1.509  12.772  10.596
47874SOL     OW45518   4.476   4.821  13.248
47874SOL    HW145519   4.557   4.870  13.241
47874SOL    HW245520   4.432   4.856  13.325
47875SOL     OW45521  13.447   1.601  14.479
47875SOL    HW145522  13.518   1.536  14.478
47875SOL    HW245523  13.372   1.554  14.515
47876SOL     OW45524   4.468  10.282  12.363
47876SOL    HW145525   4.437  10.239  12.283
47876SOL    HW245526   4.406  10.354  12.377
47877SOL     OW45527  11.870   5.712   1.722
47877SOL    HW145528  11.853   5.630   1.767
47877SOL    HW245529  11.848   5.780   1.786
47878SOL     OW45530  14.644  10.145  14.512
47878SOL    HW145531  14.563  10.107  14.477
47878SOL    HW245532  14.638  10.131  14.606
47879SOL     OW45533   4.106   3.042   9.736
47879SOL    HW145534   4.092   3.082   9.651
47879SOL    HW245535   4.078   3.108   9.799
47880SOL     OW45536   7.737   1.846   7.369
47880SOL    HW145537   7.717   1.818   7.458
47880SOL    HW245538   7.653   1.841   7.323
47881SOL     OW45539   2.985   8.874   9.904
47881SOL    HW145540   3.052   8.921   9.952
47881SOL    HW245541   2.915   8.938   9.891
47882SOL     OW45542   8.854   7.472  10.322
47882SOL    HW145543   8.940   7.459  10.283
47882SOL    HW245544   8.805   7.393  10.299
47883SOL     OW45545  12.705   1.450   2.303
47883SOL    HW145546  12.658   1.377   2.262
47883SOL    HW245547  12.780   1.466   2.245
47884SOL     OW45548   8.980  14.090  14.115
47884SOL    HW145549   8.943  14.106  14.029
47884SOL    HW245550   9.066  14.051  14.097
47885SOL     OW45551   6.012   1.827  10.292
47885SOL    HW145552   5.959   1.906  10.285
47885SOL    HW245553   6.006   1.785  10.206
47886SOL     OW45554   9.866   4.143   6.335
47886SOL    HW145555   9.904   4.205   6.274
47886SOL    HW245556   9.845   4.066   6.282
47887SOL     OW45557  12.877   7.261   8.888
47887SOL    HW145558  12.816   7.318   8.843
47887SOL    HW245559  12.859   7.275   8.981
47888SOL     OW45560  14.202   7.203   8.226
47888SOL    HW145561  14.219   7.295   8.206
47888SOL    HW245562  14.143   7.173   8.157
47889SOL     OW45563   1.107  14.158   1.074
47889SOL    HW145564   1.171  14.205   1.127
47889SOL    HW245565   1.093  14.076   1.121
47890SOL     OW45566   7.382   5.825   1.472
47890SOL    HW145567   7.328   5.752   1.440
47890SOL    HW245568   7.323   5.875   1.528
47891SOL     OW45569   3.729   9.066  11.708
47891SOL    HW145570   3.646   9.060  11.755
47891SOL    HW245571   3.708   9.039  11.619
47892SOL     OW45572   8.007  10.477   4.491
47892SOL    HW145573   8.054  10.559   4.477
47892SOL    HW245574   7.922  10.491   4.448
47893SOL     OW45575   0.523  12.350  12.398
47893SOL    HW145576   0.444  12.396  12.369
47893SOL    HW245577   0.551  12.299  12.322
47894SOL     OW45578  12.129   6.297   9.196
47894SOL    HW145579  12.165   6.216   9.161
47894SOL    HW245580  12.053   6.316   9.140
47895SOL     OW45581   1.673   7.238  12.645
47895SOL    HW145582   1.609   7.275  12.584
47895SOL    HW245583   1.650   7.275  12.730
47896SOL     OW45584   2.421   4.095  13.238
47896SOL    HW145585   2.459   4.013  13.208
47896SOL    HW245586   2.364   4.123  13.167
47897SOL     OW45587   6.325   6.920  13.884
47897SOL    HW145588   6.253   6.959  13.933
47897SOL    HW245589   6.402   6.971  13.909
47898SOL     OW45590   0.343  14.251  13.964
47898SOL    HW145591   0.370  14.280  13.877
47898SOL    HW245592   0.392  14.170  13.978
47899SOL     OW45593   8.341   7.683  10.995
47899SOL    HW145594   8.372   7.624  10.926
47899SOL    HW245595   8.331   7.768  10.952
47900SOL     OW45596  11.923   5.319  12.779
47900SOL    HW145597  11.876   5.366  12.711
47900SOL    HW245598  11.856   5.295  12.843
47901SOL     OW45599   7.396   1.620   3.365
47901SOL    HW145600   7.360   1.699   3.405
47901SOL    HW245601   7.401   1.557   3.437
47902SOL     OW45602   4.059  14.376   5.939
47902SOL    HW145603   4.152  14.379   5.959
47902SOL    HW245604   4.048  14.437   5.866
47903SOL     OW45605   6.735   6.892  14.867
47903SOL    HW145606   6.696   6.843   0.069
47903SOL    HW245607   6.696   6.855  14.788
47904SOL     OW45608   9.810   3.625   2.028
47904SOL    HW145609   9.764   3.542   2.018
47904SOL    HW245610   9.758   3.688   1.977
47905SOL     OW45611   1.827  10.446  13.289
47905SOL    HW145612   1.899  10.392  13.256
47905SOL    HW245613   1.762  10.383  13.318
47906SOL     OW45614   2.670   2.051  12.745
47906SOL    HW145615   2.759   2.084  12.755
47906SOL    HW245616   2.626   2.074  12.827
47907SOL     OW45617  11.739   1.309   4.224
47907SOL    HW145618  11.732   1.230   4.277
47907SOL    HW245619  11.830   1.338   4.234
47908SOL     OW45620   6.734  12.899   2.548
47908SOL    HW145621   6.773  12.844   2.616
47908SOL    HW245622   6.769  12.986   2.565
47909SOL     OW45623   2.095   2.124   5.605
47909SOL    HW145624   2.078   2.117   5.698
47909SOL    HW245625   2.186   2.151   5.599
47910SOL     OW45626  13.633   0.555  10.230
47910SOL    HW145627  13.558   0.505  10.200
47910SOL    HW245628  13.607   0.647  10.220
47911SOL     OW45629   1.240   7.826  11.056
47911SOL    HW145630   1.313   7.774  11.024
47911SOL    HW245631   1.163   7.785  11.017
47912SOL     OW45632   2.764  12.610  12.927
47912SOL    HW145633   2.799  12.526  12.956
47912SOL    HW245634   2.679  12.588  12.889
47913SOL     OW45635   9.941   8.618  13.498
47913SOL    HW145636   9.935   8.600  13.592
47913SOL    HW245637   9.899   8.542  13.456
47914SOL     OW45638   2.252  12.820   0.520
47914SOL    HW145639   2.347  12.804   0.525
47914SOL    HW245640   2.227  12.845   0.609
47915SOL     OW45641   8.527   6.163  13.827
47915SOL    HW145642   8.539   6.160  13.733
47915SOL    HW245643   8.561   6.079  13.858
47916SOL     OW45644   3.503   4.985   1.877
47916SOL    HW145645   3.582   4.935   1.898
47916SOL    HW245646   3.439   4.955   1.941
47917SOL     OW45647   4.173   4.399   1.209
47917SOL    HW145648   4.092   4.446   1.230
47917SOL    HW245649   4.215   4.385   1.293
47918SOL     OW45650   4.229   6.586   0.083
47918SOL    HW145651   4.213   6.627   0.168
47918SOL    HW245652   4.226   6.659   0.021
47919SOL     OW45653  11.007   4.359  13.065
47919SOL    HW145654  11.095   4.382  13.096
47919SOL    HW245655  10.948   4.412  13.119
47920SOL     OW45656  12.484  13.942   4.627
47920SOL    HW145657  12.453  13.852   4.619
47920SOL    HW245658  12.405  13.994   4.642
47921SOL     OW45659   0.118   5.092   1.004
47921SOL    HW145660   0.098   5.165   1.063
47921SOL    HW245661   0.201   5.116   0.964
47922SOL     OW45662  10.749  13.799   3.205
47922SOL    HW145663  10.705  13.880   3.230
47922SOL    HW245664  10.837  13.808   3.240
47923SOL     OW45665  11.370   8.621   3.021
47923SOL    HW145666  11.303   8.677   2.983
47923SOL    HW245667  11.361   8.632   3.116
47924SOL     OW45668   7.553   6.216   3.393
47924SOL    HW145669   7.512   6.275   3.456
47924SOL    HW245670   7.592   6.147   3.446
47925SOL     OW45671   4.295   4.084   1.342
47925SOL    HW145672   4.259   4.153   1.398
47925SOL    HW245673   4.348   4.030   1.400
47926SOL     OW45674   7.057   8.607   5.655
47926SOL    HW145675   7.015   8.607   5.569
47926SOL    HW245676   7.123   8.677   5.650
47927SOL     OW45677  10.199  13.993   1.360
47927SOL    HW145678  10.207  13.994   1.456
47927SOL    HW245679  10.271  14.047   1.329
47928SOL     OW45680   4.628   9.835  11.213
47928SOL    HW145681   4.536   9.848  11.193
47928SOL    HW245682   4.642   9.741  11.202
47929SOL     OW45683   7.135   7.412   2.189
47929SOL    HW145684   7.190   7.427   2.266
47929SOL    HW245685   7.194   7.422   2.114
47930SOL     OW45686   1.466   2.251   1.691
47930SOL    HW145687   1.443   2.333   1.735
47930SOL    HW245688   1.534   2.275   1.628
47931SOL     OW45689   0.479  14.152   3.063
47931SOL    HW145690   0.501  14.210   2.989
47931SOL    HW245691   0.557  14.098   3.075
47932SOL     OW45692   5.116  14.439   8.720
47932SOL    HW145693   5.099  14.514   8.777
47932SOL    HW245694   5.089  14.468   8.633
47933SOL     OW45695   7.934   9.418   9.714
47933SOL    HW145696   7.838   9.416   9.711
47933SOL    HW245697   7.961   9.338   9.669
47934SOL     OW45698   5.154   1.875   3.586
47934SOL    HW145699   5.235   1.925   3.596
47934SOL    HW245700   5.137   1.876   3.491
47935SOL     OW45701   3.687  10.050   4.756
47935SOL    HW145702   3.677  10.111   4.683
47935SOL    HW245703   3.779  10.023   4.752
47936SOL     OW45704   2.360   4.163   8.478
47936SOL    HW145705   2.344   4.255   8.497
47936SOL    HW245706   2.440   4.142   8.527
47937SOL     OW45707  10.749   4.050   1.305
47937SOL    HW145708  10.839   4.019   1.315
47937SOL    HW245709  10.752   4.141   1.335
47938SOL     OW45710   5.140  12.458   0.363
47938SOL    HW145711   5.105  12.433   0.448
47938SOL    HW245712   5.079  12.419   0.300
47939SOL     OW45713  10.355   1.971   5.938
47939SOL    HW145714  10.353   1.926   5.854
47939SOL    HW245715  10.395   2.056   5.919
47940SOL     OW45716   5.107  11.782   3.080
47940SOL    HW145717   5.179  11.834   3.045
47940SOL    HW245718   5.079  11.829   3.159
47941SOL     OW45719   9.023  10.135   3.724
47941SOL    HW145720   9.079  10.098   3.655
47941SOL    HW245721   8.989  10.059   3.771
47942SOL     OW45722  12.927  12.757   6.082
47942SOL    HW145723  12.975  12.727   6.005
47942SOL    HW245724  12.970  12.713   6.156
47943SOL     OW45725   9.959  10.861  14.138
47943SOL    HW145726   9.881  10.818  14.173
47943SOL    HW245727   9.990  10.803  14.068
47944SOL     OW45728  10.478   3.438   0.032
47944SOL    HW145729  10.533   3.392  14.838
47944SOL    HW245730  10.453   3.519  14.857
47945SOL     OW45731   8.592   0.234   3.348
47945SOL    HW145732   8.638   0.158   3.313
47945SOL    HW245733   8.545   0.271   3.274
47946SOL     OW45734  10.563   7.464   9.949
47946SOL    HW145735  10.658   7.456   9.954
47946SOL    HW245736  10.530   7.380   9.981
47947SOL     OW45737  13.666   4.620  10.490
47947SOL    HW145738  13.677   4.668  10.407
47947SOL    HW245739  13.733   4.553  10.488
47948SOL     OW45740  11.582  10.879   5.504
47948SOL    HW145741  11.604  10.912   5.417
47948SOL    HW245742  11.570  10.785   5.492
47949SOL     OW45743  10.592   3.035   5.621
47949SOL    HW145744  10.524   2.976   5.652
47949SOL    HW245745  10.545   3.107   5.580
47950SOL     OW45746   8.379  14.347   2.952
47950SOL    HW145747   8.322  14.350   2.875
47950SOL    HW245748   8.456  14.297   2.923
47951SOL     OW45749   7.416  10.217   8.278
47951SOL    HW145750   7.425  10.286   8.213
47951SOL    HW245751   7.354  10.155   8.240
47952SOL     OW45752   0.046   5.497   6.756
47952SOL    HW145753  14.854   5.512   6.827
47952SOL    HW245754   0.101   5.575   6.754
47953SOL     OW45755  14.288   1.750  14.697
47953SOL    HW145756  14.269   1.740  14.791
47953SOL    HW245757  14.372   1.705  14.685
47954SOL     OW45758   4.620   7.578   4.608
47954SOL    HW145759   4.649   7.668   4.592
47954SOL    HW245760   4.665   7.525   4.543
47955SOL     OW45761   3.123   1.989   9.023
47955SOL    HW145762   3.054   1.983   9.089
47955SOL    HW245763   3.191   1.929   9.054
47956SOL     OW45764  14.180   0.756   7.625
47956SOL    HW145765  14.168   0.762   7.719
47956SOL    HW245766  14.270   0.727   7.614
47957SOL     OW45767   7.904   4.069  14.067
47957SOL    HW145768   7.828   4.016  14.092
47957SOL    HW245769   7.895   4.150  14.118
47958SOL     OW45770  10.796  10.213   5.833
47958SOL    HW145771  10.818  10.189   5.923
47958SOL    HW245772  10.713  10.261   5.841
47959SOL     OW45773   6.737  11.115  13.036
47959SOL    HW145774   6.827  11.084  13.047
47959SOL    HW245775   6.728  11.130  12.942
47960SOL     OW45776   6.363   8.410  14.233
47960SOL    HW145777   6.447   8.426  14.276
47960SOL    HW245778   6.385   8.355  14.158
47961SOL     OW45779   0.521  14.006   6.109
47961SOL    HW145780   0.458  13.971   6.172
47961SOL    HW245781   0.566  13.929   6.075
47962SOL     OW45782   5.572   8.624   4.696
47962SOL    HW145783   5.491   8.643   4.742
47962SOL    HW245784   5.544   8.577   4.617
47963SOL     OW45785  10.791   6.983   3.991
47963SOL    HW145786  10.794   7.021   4.079
47963SOL    HW245787  10.733   6.907   4.000
47964SOL     OW45788   3.283   3.592   9.341
47964SOL    HW145789   3.245   3.504   9.345
47964SOL    HW245790   3.309   3.611   9.432
47965SOL     OW45791  11.986   2.889   4.924
47965SOL    HW145792  11.973   2.960   4.861
47965SOL    HW245793  11.942   2.814   4.884
47966SOL     OW45794  12.833   5.925   5.204
47966SOL    HW145795  12.865   5.981   5.275
47966SOL    HW245796  12.767   5.977   5.159
47967SOL     OW45797  14.419   3.197   6.598
47967SOL    HW145798  14.430   3.188   6.504
47967SOL    HW245799  14.440   3.289   6.617
47968SOL     OW45800  11.094  10.936   9.265
47968SOL    HW145801  11.102  11.011   9.207
47968SOL    HW245802  11.040  10.967   9.338
47969SOL     OW45803  11.314   7.075   1.441
47969SOL    HW145804  11.336   7.136   1.371
47969SOL    HW245805  11.380   7.093   1.509
47970SOL     OW45806   1.766   6.074  13.577
47970SOL    HW145807   1.790   6.068  13.670
47970SOL    HW245808   1.824   6.013  13.533
47971SOL     OW45809   9.553   7.162  12.181
47971SOL    HW145810   9.563   7.245  12.133
47971SOL    HW245811   9.459   7.143  12.176
47972SOL     OW45812   6.658   4.075   9.338
47972SOL    HW145813   6.718   4.023   9.392
47972SOL    HW245814   6.619   4.138   9.398
47973SOL     OW45815  13.421   0.404  12.912
47973SOL    HW145816  13.483   0.461  12.868
47973SOL    HW245817  13.458   0.316  12.903
47974SOL     OW45818   1.259  10.006   5.541
47974SOL    HW145819   1.237  10.067   5.470
47974SOL    HW245820   1.246  10.057   5.621
47975SOL     OW45821   2.918   6.136   5.513
47975SOL    HW145822   2.851   6.086   5.561
47975SOL    HW245823   2.916   6.223   5.553
47976SOL     OW45824   5.912   9.903   5.163
47976SOL    HW145825   5.916   9.915   5.068
47976SOL    HW245826   5.942   9.987   5.199
47977SOL     OW45827  10.652   5.431   2.196
47977SOL    HW145828  10.589   5.457   2.128
47977SOL    HW245829  10.726   5.491   2.183
47978SOL     OW45830   4.321   7.887   5.111
47978SOL    HW145831   4.352   7.844   5.191
47978SOL    HW245832   4.400   7.901   5.059
47979SOL     OW45833   9.502   4.348  13.023
47979SOL    HW145834   9.441   4.275  13.030
47979SOL    HW245835   9.568   4.319  12.959
47980SOL     OW45836  14.058  10.228   4.379
47980SOL    HW145837  14.089  10.297   4.437
47980SOL    HW245838  14.120  10.227   4.307
47981SOL     OW45839  12.368   8.316  13.929
47981SOL    HW145840  12.327   8.255  13.867
47981SOL    HW245841  12.412   8.260  13.993
47982SOL     OW45842   0.658  12.086   7.065
47982SOL    HW145843   0.658  12.158   7.001
47982SOL    HW245844   0.577  12.039   7.047
47983SOL     OW45845   1.446   5.146   1.274
47983SOL    HW145846   1.379   5.203   1.313
47983SOL    HW245847   1.493   5.204   1.214
47984SOL     OW45848   8.773   3.153   1.985
47984SOL    HW145849   8.687   3.158   2.027
47984SOL    HW245850   8.775   3.227   1.924
47985SOL     OW45851  13.838   6.643  11.600
47985SOL    HW145852  13.929   6.666  11.583
47985SOL    HW245853  13.797   6.641  11.514
47986SOL     OW45854   1.412  11.803   1.561
47986SOL    HW145855   1.378  11.833   1.476
47986SOL    HW245856   1.498  11.766   1.541
47987SOL     OW45857   7.484   4.360   7.061
47987SOL    HW145858   7.402   4.409   7.070
47987SOL    HW245859   7.547   4.408   7.116
47988SOL     OW45860  12.988   6.952   2.136
47988SOL    HW145861  13.011   6.884   2.200
47988SOL    HW245862  13.072   6.982   2.102
47989SOL     OW45863   9.084   4.194   6.824
47989SOL    HW145864   9.024   4.147   6.881
47989SOL    HW245865   9.170   4.183   6.864
47990SOL     OW45866   1.778   7.193   4.779
47990SOL    HW145867   1.774   7.109   4.733
47990SOL    HW245868   1.741   7.174   4.866
47991SOL     OW45869   1.064   6.540  12.571
47991SOL    HW145870   1.115   6.469  12.610
47991SOL    HW245871   0.997   6.495  12.519
47992SOL     OW45872  13.554   4.363   4.319
47992SOL    HW145873  13.608   4.360   4.239
47992SOL    HW245874  13.513   4.450   4.316
47993SOL     OW45875   6.000  11.643   2.546
47993SOL    HW145876   5.939  11.617   2.477
47993SOL    HW245877   5.992  11.574   2.612
47994SOL     OW45878   6.808   1.088   9.929
47994SOL    HW145879   6.839   1.140  10.003
47994SOL    HW245880   6.792   1.001   9.966
47995SOL     OW45881  13.906   8.385  12.760
47995SOL    HW145882  13.850   8.439  12.704
47995SOL    HW245883  13.995   8.403  12.730
47996SOL     OW45884   1.647  13.166  12.872
47996SOL    HW145885   1.740  13.169  12.849
47996SOL    HW245886   1.622  13.074  12.858
47997SOL     OW45887  12.135  11.552   7.205
47997SOL    HW145888  12.049  11.514   7.219
47997SOL    HW245889  12.137  11.575   7.113
47998SOL     OW45890  14.206  10.228   8.984
47998SOL    HW145891  14.262  10.306   8.985
47998SOL    HW245892  14.228  10.183   9.066
47999SOL     OW45893   1.362   3.522   6.171
47999SOL    HW145894   1.440   3.547   6.221
47999SOL    HW245895   1.377   3.558   6.084
48000SOL     OW45896   6.578   6.331   0.943
48000SOL    HW145897   6.529   6.271   1.000
48000SOL    HW245898   6.536   6.323   0.857
48001SOL     OW45899  11.468   1.927  12.023
48001SOL    HW145900  11.536   1.969  12.077
48001SOL    HW245901  11.387   1.970  12.049
48002SOL     OW45902  13.518   8.258   3.085
48002SOL    HW145903  13.468   8.283   3.162
48002SOL    HW245904  13.610   8.266   3.111
48003SOL     OW45905   2.782   5.625   1.414
48003SOL    HW145906   2.691   5.602   1.431
48003SOL    HW245907   2.785   5.645   1.320
48004SOL     OW45908   0.015  12.620   3.619
48004SOL    HW145909   0.034  12.676   3.543
48004SOL    HW245910  14.830  12.674   3.676
48005SOL     OW45911   4.559  12.728  10.430
48005SOL    HW145912   4.626  12.674  10.388
48005SOL    HW245913   4.607  12.782  10.492
48006SOL     OW45914  11.109   0.316   3.747
48006SOL    HW145915  11.137   0.248   3.808
48006SOL    HW245916  11.059   0.270   3.680
48007SOL     OW45917   0.225   3.119   5.135
48007SOL    HW145918   0.202   3.211   5.148
48007SOL    HW245919   0.142   3.077   5.112
48008SOL     OW45920   3.895  12.646   4.814
48008SOL    HW145921   3.973  12.629   4.761
48008SOL    HW245922   3.824  12.654   4.750
48009SOL     OW45923  14.151  11.649   3.445
48009SOL    HW145924  14.212  11.630   3.517
48009SOL    HW245925  14.071  11.677   3.489
48010SOL     OW45926   0.049  12.276   9.300
48010SOL    HW145927   0.140  12.247   9.299
48010SOL    HW245928  14.867  12.196   9.287
48011SOL     OW45929   4.496   9.565  12.970
48011SOL    HW145930   4.518   9.594  13.058
48011SOL    HW245931   4.415   9.611  12.948
48012SOL     OW45932   8.269  12.549  10.777
48012SOL    HW145933   8.175  12.535  10.783
48012SOL    HW245934   8.307  12.476  10.825
48013SOL     OW45935   7.310  12.029   9.776
48013SOL    HW145936   7.218  12.006   9.764
48013SOL    HW245937   7.308  12.112   9.823
48014SOL     OW45938   2.242   0.204  11.846
48014SOL    HW145939   2.306   0.275  11.842
48014SOL    HW245940   2.157   0.248  11.848
48015SOL     OW45941   3.286   8.335  12.128
48015SOL    HW145942   3.304   8.247  12.161
48015SOL    HW245943   3.193   8.349  12.146
48016SOL     OW45944  12.409   5.650  14.586
48016SOL    HW145945  12.343   5.581  14.588
48016SOL    HW245946  12.492   5.603  14.581
48017SOL     OW45947   3.885   3.312  10.277
48017SOL    HW145948   3.831   3.388  10.299
48017SOL    HW245949   3.827   3.237  10.289
48018SOL     OW45950   2.973   5.645   1.924
48018SOL    HW145951   3.043   5.709   1.940
48018SOL    HW245952   2.945   5.662   1.834
48019SOL     OW45953   7.389  11.505   5.532
48019SOL    HW145954   7.442  11.532   5.457
48019SOL    HW245955   7.352  11.420   5.506
48020SOL     OW45956  13.244  13.693   9.616
48020SOL    HW145957  13.314  13.736   9.665
48020SOL    HW245958  13.195  13.764   9.576
48021SOL     OW45959   0.249   0.376   2.431
48021SOL    HW145960   0.326   0.414   2.388
48021SOL    HW245961   0.225   0.441   2.497
48022SOL     OW45962  11.145   3.670  12.252
48022SOL    HW145963  11.083   3.684  12.323
48022SOL    HW245964  11.177   3.757  12.230
48023SOL     OW45965  14.805   8.423   2.286
48023SOL    HW145966  14.791   8.502   2.338
48023SOL    HW245967   0.010   8.443   2.230
48024SOL     OW45968   6.758  14.689   2.945
48024SOL    HW145969   6.843  14.674   2.987
48024SOL    HW245970   6.706  14.735   3.011
48025SOL     OW45971   2.073   7.656  13.849
48025SOL    HW145972   2.018   7.681  13.775
48025SOL    HW245973   2.023   7.685  13.926
48026SOL     OW45974  11.743   2.173   0.783
48026SOL    HW145975  11.725   2.227   0.707
48026SOL    HW245976  11.765   2.087   0.747
48027SOL     OW45977   8.390  11.333   2.085
48027SOL    HW145978   8.327  11.373   2.026
48027SOL    HW245979   8.363  11.242   2.090
48028SOL     OW45980  12.167  12.497   4.147
48028SOL    HW145981  12.122  12.558   4.205
48028SOL    HW245982  12.101  12.431   4.126
48029SOL     OW45983   1.191   7.802  10.103
48029SOL    HW145984   1.188   7.707  10.107
48029SOL    HW245985   1.171   7.823  10.012
48030SOL     OW45986  10.614   7.858   6.595
48030SOL    HW145987  10.630   7.794   6.525
48030SOL    HW245988  10.608   7.942   6.549
48031SOL     OW45989   1.239   1.555   6.104
48031SOL    HW145990   1.329   1.525   6.094
48031SOL    HW245991   1.237   1.596   6.190
48032SOL     OW45992  11.507  12.130   3.938
48032SOL    HW145993  11.559  12.163   3.865
48032SOL    HW245994  11.530  12.038   3.945
48033SOL     OW45995   9.049   2.922  12.880
48033SOL    HW145996   9.110   2.988  12.847
48033SOL    HW245997   9.084   2.839  12.848
48034SOL     OW45998  12.563   3.715  13.718
48034SOL    HW145999  12.647   3.758  13.706
48034SOL    HW246000  12.499   3.786  13.718
48035SOL     OW46001   3.556   2.102  10.517
48035SOL    HW146002   3.474   2.137  10.552
48035SOL    HW246003   3.596   2.176  10.471
48036SOL     OW46004   3.558   1.037   5.316
48036SOL    HW146005   3.597   1.037   5.228
48036SOL    HW246006   3.485   0.976   5.310
48037SOL     OW46007   2.467  11.340   4.034
48037SOL    HW146008   2.479  11.361   4.127
48037SOL    HW246009   2.423  11.255   4.034
48038SOL     OW46010   9.072   7.074   4.193
48038SOL    HW146011   9.041   7.140   4.255
48038SOL    HW246012   8.993   7.042   4.150
48039SOL     OW46013   9.194   0.185  11.994
48039SOL    HW146014   9.124   0.170  11.930
48039SOL    HW246015   9.178   0.120  12.062
48040SOL     OW46016  11.884   6.559   0.084
48040SOL    HW146017  11.871   6.629   0.148
48040SOL    HW246018  11.968   6.578   0.043
48041SOL     OW46019   2.761   3.139   2.051
48041SOL    HW146020   2.758   3.171   1.961
48041SOL    HW246021   2.692   3.073   2.056
48042SOL     OW46022   5.005   5.938  13.959
48042SOL    HW146023   4.923   5.919  14.004
48042SOL    HW246024   5.053   5.854  13.962
48043SOL     OW46025  13.279   3.737   7.438
48043SOL    HW146026  13.311   3.827   7.429
48043SOL    HW246027  13.185   3.744   7.422
48044SOL     OW46028   9.343   3.214   6.197
48044SOL    HW146029   9.437   3.203   6.213
48044SOL    HW246030   9.338   3.285   6.133
48045SOL     OW46031   2.815   3.592   3.828
48045SOL    HW146032   2.755   3.663   3.805
48045SOL    HW246033   2.764   3.535   3.885
48046SOL     OW46034   9.251  14.767   1.288
48046SOL    HW146035   9.201  14.834   1.241
48046SOL    HW246036   9.190  14.729   1.350
48047SOL     OW46037   1.449  13.380   4.887
48047SOL    HW146038   1.382  13.315   4.869
48047SOL    HW246039   1.401  13.460   4.908
48048SOL     OW46040   1.292  12.273   5.245
48048SOL    HW146041   1.291  12.324   5.326
48048SOL    HW246042   1.234  12.199   5.262
48049SOL     OW46043   3.376   8.167   1.042
48049SOL    HW146044   3.407   8.088   0.998
48049SOL    HW246045   3.288   8.144   1.073
48050SOL     OW46046  11.522   5.492   1.273
48050SOL    HW146047  11.531   5.587   1.281
48050SOL    HW246048  11.556   5.458   1.356
48051SOL     OW46049  10.684   9.922   7.901
48051SOL    HW146050  10.650   9.918   7.990
48051SOL    HW246051  10.747   9.850   7.896
48052SOL     OW46052   9.063   5.139  14.021
48052SOL    HW146053   9.032   5.059  14.065
48052SOL    HW246054   9.153   5.150  14.053
48053SOL     OW46055   3.002   8.119   5.273
48053SOL    HW146056   2.954   8.181   5.328
48053SOL    HW246057   2.978   8.033   5.308
48054SOL     OW46058   7.083   9.342   1.776
48054SOL    HW146059   7.150   9.276   1.795
48054SOL    HW246060   7.115   9.386   1.697
48055SOL     OW46061  13.921   7.703  12.946
48055SOL    HW146062  14.007   7.719  12.985
48055SOL    HW246063  13.915   7.765  12.874
48056SOL     OW46064   0.394   3.440   9.050
48056SOL    HW146065   0.481   3.437   9.089
48056SOL    HW246066   0.336   3.466   9.122
48057SOL     OW46067  10.438   9.181   7.823
48057SOL    HW146068  10.377   9.234   7.874
48057SOL    HW246069  10.383   9.118   7.777
48058SOL     OW46070  11.019   5.451   4.843
48058SOL    HW146071  10.987   5.540   4.834
48058SOL    HW246072  11.102   5.459   4.889
48059SOL     OW46073   6.393   2.518  13.686
48059SOL    HW146074   6.322   2.456  13.665
48059SOL    HW246075   6.414   2.559  13.603
48060SOL     OW46076   6.980   5.156   3.201
48060SOL    HW146077   6.887   5.132   3.194
48060SOL    HW246078   7.020   5.084   3.249
48061SOL     OW46079  12.861   7.374   1.947
48061SOL    HW146080  12.857   7.305   1.880
48061SOL    HW246081  12.893   7.328   2.025
48062SOL     OW46082   9.053   4.149   7.483
48062SOL    HW146083   9.031   4.068   7.437
48062SOL    HW246084   9.132   4.181   7.440
48063SOL     OW46085  12.015   1.893  14.741
48063SOL    HW146086  12.071   1.884  14.664
48063SOL    HW246087  12.070   1.864  14.814
48064SOL     OW46088   4.102   6.745   5.343
48064SOL    HW146089   4.139   6.800   5.412
48064SOL    HW246090   4.051   6.806   5.289
48065SOL     OW46091   9.869  11.514  11.108
48065SOL    HW146092   9.856  11.472  11.193
48065SOL    HW246093   9.962  11.537  11.107
48066SOL     OW46094  10.124  10.400  11.191
48066SOL    HW146095  10.152  10.461  11.124
48066SOL    HW246096  10.205  10.359  11.222
48067SOL     OW46097  13.341   6.841  10.552
48067SOL    HW146098  13.284   6.917  10.567
48067SOL    HW246099  13.284   6.776  10.511
48068SOL     OW46100   9.626   0.102   1.313
48068SOL    HW146101   9.616   0.194   1.288
48068SOL    HW246102   9.718   0.082   1.295
48069SOL     OW46103   5.737   5.809   4.768
48069SOL    HW146104   5.740   5.831   4.674
48069SOL    HW246105   5.798   5.870   4.808
48070SOL     OW46106   4.261  12.991   2.748
48070SOL    HW146107   4.176  12.946   2.753
48070SOL    HW246108   4.243  13.068   2.693
48071SOL     OW46109   6.563   0.384  12.102
48071SOL    HW146110   6.518   0.414  12.181
48071SOL    HW246111   6.596   0.464  12.061
48072SOL     OW46112   9.085   3.277  12.532
48072SOL    HW146113   9.150   3.207  12.530
48072SOL    HW246114   9.066   3.289  12.625
48073SOL     OW46115   2.560   9.063   5.823
48073SOL    HW146116   2.616   9.103   5.757
48073SOL    HW246117   2.608   9.073   5.905
48074SOL     OW46118   4.223  14.522   4.049
48074SOL    HW146119   4.216  14.446   4.107
48074SOL    HW246120   4.180  14.593   4.098
48075SOL     OW46121   1.005   1.448   1.820
48075SOL    HW146122   1.077   1.473   1.878
48075SOL    HW246123   0.926   1.457   1.874
48076SOL     OW46124   2.442   6.366   9.327
48076SOL    HW146125   2.359   6.352   9.281
48076SOL    HW246126   2.492   6.286   9.311
48077SOL     OW46127   0.465   9.031   0.344
48077SOL    HW146128   0.506   9.005   0.262
48077SOL    HW246129   0.485   9.125   0.352
48078SOL     OW46130   4.519   7.006   5.891
48078SOL    HW146131   4.536   7.094   5.859
48078SOL    HW246132   4.553   7.005   5.981
48079SOL     OW46133   9.800   7.731  11.418
48079SOL    HW146134   9.886   7.775  11.422
48079SOL    HW246135   9.792   7.689  11.504
48080SOL     OW46136   1.572  13.191   2.778
48080SOL    HW146137   1.602  13.282   2.782
48080SOL    HW246138   1.598  13.154   2.862
48081SOL     OW46139   0.306   4.602   2.881
48081SOL    HW146140   0.308   4.563   2.794
48081SOL    HW246141   0.214   4.606   2.905
48082SOL     OW46142   7.664   1.598   5.110
48082SOL    HW146143   7.664   1.515   5.062
48082SOL    HW246144   7.577   1.635   5.095
48083SOL     OW46145   1.152  13.531  10.796
48083SOL    HW146146   1.102  13.499  10.721
48083SOL    HW246147   1.229  13.573  10.757
48084SOL     OW46148  13.269  14.169   1.258
48084SOL    HW146149  13.326  14.125   1.322
48084SOL    HW246150  13.233  14.243   1.306
48085SOL     OW46151   8.724   8.741   6.242
48085SOL    HW146152   8.807   8.741   6.194
48085SOL    HW246153   8.677   8.664   6.208
48086SOL     OW46154   4.353  14.222  14.420
48086SOL    HW146155   4.379  14.292  14.481
48086SOL    HW246156   4.405  14.238  14.342
48087SOL     OW46157   1.506  11.421   3.663
48087SOL    HW146158   1.455  11.356   3.615
48087SOL    HW246159   1.574  11.370   3.708
48088SOL     OW46160   2.488  11.673   1.468
48088SOL    HW146161   2.517  11.738   1.404
48088SOL    HW246162   2.509  11.589   1.427
48089SOL     OW46163   2.650   4.856   4.624
48089SOL    HW146164   2.654   4.785   4.688
48089SOL    HW246165   2.563   4.895   4.638
48090SOL     OW46166  13.649  12.714   7.514
48090SOL    HW146167  13.565  12.723   7.470
48090SOL    HW246168  13.629  12.727   7.607
48091SOL     OW46169   7.776  13.845   2.876
48091SOL    HW146170   7.693  13.864   2.833
48091SOL    HW246171   7.787  13.915   2.941
48092SOL     OW46172   6.004   6.328  14.125
48092SOL    HW146173   5.996   6.272  14.202
48092SOL    HW246174   6.027   6.414  14.160
48093SOL     OW46175   8.456   7.404  10.114
48093SOL    HW146176   8.417   7.441  10.193
48093SOL    HW246177   8.522   7.467  10.087
48094SOL     OW46178  10.453   7.205  13.309
48094SOL    HW146179  10.527   7.159  13.268
48094SOL    HW246180  10.385   7.139  13.317
48095SOL     OW46181   1.771  13.022  12.582
48095SOL    HW146182   1.784  13.113  12.557
48095SOL    HW246183   1.676  13.013  12.589
48096SOL     OW46184   3.253   7.442  13.435
48096SOL    HW146185   3.292   7.507  13.376
48096SOL    HW246186   3.314   7.369  13.434
48097SOL     OW46187  10.867  14.453   2.042
48097SOL    HW146188  10.783  14.419   2.011
48097SOL    HW246189  10.845  14.512   2.114
48098SOL     OW46190   6.985  11.138   8.540
48098SOL    HW146191   6.974  11.220   8.587
48098SOL    HW246192   6.915  11.082   8.574
48099SOL     OW46193  10.747  10.339  10.268
48099SOL    HW146194  10.677  10.394  10.301
48099SOL    HW246195  10.804  10.325  10.344
48100SOL     OW46196   0.373   5.212   6.000
48100SOL    HW146197   0.328   5.129   6.013
48100SOL    HW246198   0.309   5.267   5.953
48101SOL     OW46199   7.422   6.492   8.557
48101SOL    HW146200   7.386   6.403   8.568
48101SOL    HW246201   7.474   6.487   8.477
48102SOL     OW46202  13.325  12.626   8.126
48102SOL    HW146203  13.253  12.583   8.081
48102SOL    HW246204  13.293  12.715   8.144
48103SOL     OW46205   4.773   4.506  14.245
48103SOL    HW146206   4.678   4.510  14.238
48103SOL    HW246207   4.794   4.558  14.322
48104SOL     OW46208  14.415  14.635   5.081
48104SOL    HW146209  14.417  14.719   5.127
48104SOL    HW246210  14.473  14.579   5.131
48105SOL     OW46211  13.173  14.745   8.307
48105SOL    HW146212  13.230  14.725   8.233
48105SOL    HW246213  13.233  14.771   8.377
48106SOL     OW46214   4.789   0.484  14.838
48106SOL    HW146215   4.757   0.538  14.766
48106SOL    HW246216   4.726   0.496   0.039
48107SOL     OW46217  12.483   1.521  10.417
48107SOL    HW146218  12.493   1.565  10.501
48107SOL    HW246219  12.393   1.540  10.390
48108SOL     OW46220   6.746   3.518   2.576
48108SOL    HW146221   6.810   3.590   2.582
48108SOL    HW246222   6.797   3.439   2.593
48109SOL     OW46223  14.413   2.759   5.822
48109SOL    HW146224  14.416   2.746   5.916
48109SOL    HW246225  14.397   2.853   5.811
48110SOL     OW46226   0.802   6.923   8.627
48110SOL    HW146227   0.836   6.843   8.586
48110SOL    HW246228   0.864   6.992   8.600
48111SOL     OW46229  13.654   4.150  10.082
48111SOL    HW146230  13.635   4.058  10.104
48111SOL    HW246231  13.579   4.198  10.115
48112SOL     OW46232   3.431  12.389  11.670
48112SOL    HW146233   3.480  12.337  11.733
48112SOL    HW246234   3.339  12.376  11.694
48113SOL     OW46235   2.985   7.356   0.564
48113SOL    HW146236   3.042   7.430   0.541
48113SOL    HW246237   2.938   7.336   0.483
48114SOL     OW46238   2.864   6.359   6.977
48114SOL    HW146239   2.786   6.324   7.021
48114SOL    HW246240   2.933   6.353   7.042
48115SOL     OW46241   2.907  13.466   6.012
48115SOL    HW146242   2.879  13.458   5.921
48115SOL    HW246243   2.889  13.380   6.050
48116SOL     OW46244  12.147   8.065   4.474
48116SOL    HW146245  12.226   8.053   4.527
48116SOL    HW246246  12.136   8.160   4.467
48117SOL     OW46247   5.954  10.253  11.031
48117SOL    HW146248   5.993  10.268  10.944
48117SOL    HW246249   6.022  10.279  11.093
48118SOL     OW46250  12.439  11.145  10.604
48118SOL    HW146251  12.365  11.109  10.554
48118SOL    HW246252  12.499  11.178  10.538
48119SOL     OW46253   5.777   9.127   0.235
48119SOL    HW146254   5.734   9.048   0.202
48119SOL    HW246255   5.743   9.198   0.181
48120SOL     OW46256   9.098   9.732  11.703
48120SOL    HW146257   9.072   9.659  11.759
48120SOL    HW246258   9.172   9.698  11.653
48121SOL     OW46259   7.927  13.796   4.254
48121SOL    HW146260   7.998  13.793   4.318
48121SOL    HW246261   7.904  13.704   4.240
48122SOL     OW46262  12.229   6.891   8.297
48122SOL    HW146263  12.275   6.879   8.214
48122SOL    HW246264  12.172   6.815   8.305
48123SOL     OW46265  14.383   2.258   2.759
48123SOL    HW146266  14.412   2.167   2.763
48123SOL    HW246267  14.391   2.290   2.849
48124SOL     OW46268   0.632   8.052   5.831
48124SOL    HW146269   0.596   7.964   5.820
48124SOL    HW246270   0.696   8.060   5.760
48125SOL     OW46271   3.521   1.034   0.950
48125SOL    HW146272   3.451   0.975   0.923
48125SOL    HW246273   3.562   1.061   0.868
48126SOL     OW46274   4.603   2.532  13.680
48126SOL    HW146275   4.663   2.577  13.620
48126SOL    HW246276   4.629   2.563  13.767
48127SOL     OW46277   0.575   8.182   9.857
48127SOL    HW146278   0.496   8.130   9.876
48127SOL    HW246279   0.574   8.251   9.924
48128SOL     OW46280   1.279   0.013   2.074
48128SOL    HW146281   1.187  14.860   2.066
48128SOL    HW246282   1.280   0.088   2.133
48129SOL     OW46283   4.178   0.616   1.338
48129SOL    HW146284   4.110   0.576   1.283
48129SOL    HW246285   4.147   0.603   1.428
48130SOL     OW46286   3.143   0.158   5.686
48130SOL    HW146287   3.182   0.076   5.715
48130SOL    HW246288   3.215   0.221   5.691
48131SOL     OW46289  14.168   8.131   4.616
48131SOL    HW146290  14.074   8.146   4.630
48131SOL    HW246291  14.193   8.198   4.552
48132SOL     OW46292   1.975   4.685  11.855
48132SOL    HW146293   2.004   4.747  11.922
48132SOL    HW246294   1.881   4.677  11.869
48133SOL     OW46295   2.560   5.611   4.343
48133SOL    HW146296   2.486   5.565   4.383
48133SOL    HW246297   2.526   5.697   4.319
48134SOL     OW46298   4.798   2.502   7.416
48134SOL    HW146299   4.828   2.477   7.504
48134SOL    HW246300   4.809   2.423   7.363
48135SOL     OW46301   1.487  13.565  12.976
48135SOL    HW146302   1.505  13.475  12.949
48135SOL    HW246303   1.437  13.602  12.903
48136SOL     OW46304  11.579   8.662  13.887
48136SOL    HW146305  11.488   8.644  13.907
48136SOL    HW246306  11.620   8.575  13.880
48137SOL     OW46307  13.517   2.627   4.927
48137SOL    HW146308  13.431   2.646   4.889
48137SOL    HW246309  13.572   2.608   4.851
48138SOL     OW46310  12.285   3.787  14.106
48138SOL    HW146311  12.346   3.714  14.095
48138SOL    HW246312  12.214   3.769  14.045
48139SOL     OW46313   0.850   1.429   7.154
48139SOL    HW146314   0.860   1.470   7.240
48139SOL    HW246315   0.763   1.456   7.124
48140SOL     OW46316  13.465  13.022   2.544
48140SOL    HW146317  13.401  13.019   2.615
48140SOL    HW246318  13.429  12.964   2.477
48141SOL     OW46319   8.584   4.220   5.505
48141SOL    HW146320   8.641   4.161   5.554
48141SOL    HW246321   8.636   4.246   5.429
48142SOL     OW46322  10.797   8.610  13.229
48142SOL    HW146323  10.742   8.660  13.169
48142SOL    HW246324  10.736   8.546  13.267
48143SOL     OW46325   0.386   8.692   9.007
48143SOL    HW146326   0.423   8.728   8.926
48143SOL    HW246327   0.458   8.695   9.069
48144SOL     OW46328  11.016   1.159   9.632
48144SOL    HW146329  11.060   1.083   9.667
48144SOL    HW246330  11.021   1.225   9.701
48145SOL     OW46331   4.352  13.799   2.447
48145SOL    HW146332   4.317  13.879   2.487
48145SOL    HW246333   4.296  13.729   2.482
48146SOL     OW46334  11.916   0.255  10.917
48146SOL    HW146335  11.952   0.198  10.850
48146SOL    HW246336  11.933   0.344  10.884
48147SOL     OW46337  11.818   0.076   0.008
48147SOL    HW146338  11.794   0.027   0.087
48147SOL    HW246339  11.894   0.029  14.842
48148SOL     OW46340   2.807   9.674   6.865
48148SOL    HW146341   2.720   9.694   6.900
48148SOL    HW246342   2.791   9.608   6.797
48149SOL     OW46343  11.188  13.240   8.123
48149SOL    HW146344  11.119  13.306   8.122
48149SOL    HW246345  11.189  13.205   8.034
48150SOL     OW46346   5.353   2.807   2.589
48150SOL    HW146347   5.281   2.814   2.652
48150SOL    HW246348   5.323   2.856   2.513
48151SOL     OW46349   1.440   2.744   8.930
48151SOL    HW146350   1.486   2.825   8.950
48151SOL    HW246351   1.395   2.721   9.012
48152SOL     OW46352  10.412   7.376  13.863
48152SOL    HW146353  10.487   7.372  13.921
48152SOL    HW246354  10.449   7.372  13.775
48153SOL     OW46355   4.270   5.270   5.954
48153SOL    HW146356   4.352   5.302   5.916
48153SOL    HW246357   4.201   5.309   5.900
48154SOL     OW46358   9.931   1.207   0.932
48154SOL    HW146359   9.964   1.130   0.978
48154SOL    HW246360   9.859   1.239   0.987
48155SOL     OW46361   5.365   1.822   8.440
48155SOL    HW146362   5.442   1.846   8.493
48155SOL    HW246363   5.291   1.829   8.500
48156SOL     OW46364   0.068  10.150   8.537
48156SOL    HW146365   0.002  10.215   8.562
48156SOL    HW246366   0.023  10.095   8.473
48157SOL     OW46367   2.932   4.549  13.820
48157SOL    HW146368   2.960   4.457  13.812
48157SOL    HW246369   3.011   4.595  13.849
48158SOL     OW46370   5.246  12.705   4.780
48158SOL    HW146371   5.251  12.785   4.831
48158SOL    HW246372   5.152  12.688   4.770
48159SOL     OW46373   5.485  14.393   5.846
48159SOL    HW146374   5.408  14.441   5.874
48159SOL    HW246375   5.462  14.357   5.760
48160SOL     OW46376   7.844  13.107  11.860
48160SOL    HW146377   7.838  13.169  11.787
48160SOL    HW246378   7.796  13.149  11.931
48161SOL     OW46379   2.135   1.153  14.621
48161SOL    HW146380   2.169   1.068  14.595
48161SOL    HW246381   2.158   1.160  14.714
48162SOL     OW46382   9.647   4.468   3.735
48162SOL    HW146383   9.583   4.536   3.715
48162SOL    HW246384   9.602   4.411   3.799
48163SOL     OW46385   9.883   5.816  10.893
48163SOL    HW146386   9.950   5.775  10.948
48163SOL    HW246387   9.932   5.870  10.832
48164SOL     OW46388   8.353  10.453   2.387
48164SOL    HW146389   8.389  10.542   2.394
48164SOL    HW246390   8.423  10.403   2.346
48165SOL     OW46391   5.487   9.605   1.708
48165SOL    HW146392   5.526   9.632   1.625
48165SOL    HW246393   5.449   9.684   1.745
48166SOL     OW46394   7.935  14.139  10.320
48166SOL    HW146395   7.991  14.068  10.352
48166SOL    HW246396   7.973  14.219  10.356
48167SOL     OW46397   6.975   0.599  13.414
48167SOL    HW146398   7.007   0.629  13.499
48167SOL    HW246399   6.880   0.611  13.419
48168SOL     OW46400   6.002  11.860   0.943
48168SOL    HW146401   5.915  11.899   0.935
48168SOL    HW246402   6.019  11.820   0.858
48169SOL     OW46403  12.967  14.212  10.448
48169SOL    HW146404  13.006  14.280  10.393
48169SOL    HW246405  12.872  14.225  10.438
48170SOL     OW46406  11.006   6.325   6.796
48170SOL    HW146407  10.995   6.327   6.891
48170SOL    HW246408  11.046   6.409   6.775
48171SOL     OW46409   6.097   3.658   9.342
48171SOL    HW146410   6.077   3.579   9.291
48171SOL    HW246411   6.143   3.625   9.419
48172SOL     OW46412   5.483   0.226   3.484
48172SOL    HW146413   5.453   0.292   3.546
48172SOL    HW246414   5.562   0.189   3.524
48173SOL     OW46415   5.351   4.323  11.549
48173SOL    HW146416   5.339   4.232  11.576
48173SOL    HW246417   5.445   4.333  11.539
48174SOL     OW46418   1.770   8.673   1.155
48174SOL    HW146419   1.760   8.760   1.116
48174SOL    HW246420   1.759   8.612   1.082
48175SOL     OW46421   9.317   0.939  12.925
48175SOL    HW146422   9.308   0.907  13.015
48175SOL    HW246423   9.393   0.894  12.890
48176SOL     OW46424   0.115   8.420   8.944
48176SOL    HW146425   0.191   8.388   8.895
48176SOL    HW246426   0.042   8.368   8.912
48177SOL     OW46427   6.176   8.628   4.117
48177SOL    HW146428   6.135   8.715   4.119
48177SOL    HW246429   6.227   8.628   4.036
48178SOL     OW46430   4.031  12.864   3.312
48178SOL    HW146431   4.016  12.820   3.229
48178SOL    HW246432   4.039  12.793   3.376
48179SOL     OW46433   1.388  11.195   9.174
48179SOL    HW146434   1.339  11.252   9.115
48179SOL    HW246435   1.474  11.237   9.183
48180SOL     OW46436   9.011   5.833  14.400
48180SOL    HW146437   8.972   5.789  14.475
48180SOL    HW246438   8.981   5.782  14.324
48181SOL     OW46439   6.829   8.579  11.510
48181SOL    HW146440   6.812   8.627  11.429
48181SOL    HW246441   6.773   8.622  11.576
48182SOL     OW46442   5.460   9.575   3.851
48182SOL    HW146443   5.534   9.534   3.808
48182SOL    HW246444   5.497   9.620   3.926
48183SOL     OW46445   2.285  13.495  11.126
48183SOL    HW146446   2.355  13.514  11.189
48183SOL    HW246447   2.210  13.547  11.157
48184SOL     OW46448   8.014   4.881   2.096
48184SOL    HW146449   8.015   4.941   2.171
48184SOL    HW246450   8.106   4.860   2.081
48185SOL     OW46451   2.384   5.520  12.232
48185SOL    HW146452   2.453   5.579  12.262
48185SOL    HW246453   2.337   5.570  12.164
48186SOL     OW46454  11.154  14.586  13.233
48186SOL    HW146455  11.164  14.496  13.202
48186SOL    HW246456  11.074  14.584  13.286
48187SOL     OW46457  14.470   0.779   4.999
48187SOL    HW146458  14.431   0.699   5.035
48187SOL    HW246459  14.395   0.831   4.969
48188SOL     OW46460   1.256   0.246  13.544
48188SOL    HW146461   1.183   0.205  13.497
48188SOL    HW246462   1.334   0.220  13.494
48189SOL     OW46463  10.855   4.868   1.989
48189SOL    HW146464  10.854   4.879   2.084
48189SOL    HW246465  10.764   4.850   1.965
48190SOL     OW46466   0.508   0.801  12.358
48190SOL    HW146467   0.554   0.785  12.440
48190SOL    HW246468   0.576   0.798  12.291
48191SOL     OW46469  14.567   3.642  12.411
48191SOL    HW146470  14.492   3.685  12.452
48191SOL    HW246471  14.597   3.703  12.344
48192SOL     OW46472  10.527  11.361   8.437
48192SOL    HW146473  10.581  11.438   8.454
48192SOL    HW246474  10.447  11.396   8.398
48193SOL     OW46475  12.198   9.571  11.075
48193SOL    HW146476  12.244   9.604  11.152
48193SOL    HW246477  12.108   9.604  11.085
48194SOL     OW46478   6.967   3.958   1.890
48194SOL    HW146479   6.916   4.020   1.837
48194SOL    HW246480   7.031   3.922   1.829
48195SOL     OW46481  13.676  10.193   3.476
48195SOL    HW146482  13.648  10.164   3.389
48195SOL    HW246483  13.599  10.234   3.513
48196SOL     OW46484   8.498   5.765  14.003
48196SOL    HW146485   8.407   5.793  14.006
48196SOL    HW246486   8.512   5.738  13.913
48197SOL     OW46487  13.507  12.400   9.274
48197SOL    HW146488  13.600  12.417   9.291
48197SOL    HW246489  13.466  12.487   9.273
48198SOL     OW46490  11.540  10.346   7.050
48198SOL    HW146491  11.475  10.362   6.982
48198SOL    HW246492  11.536  10.425   7.105
48199SOL     OW46493  13.518   4.544   2.099
48199SOL    HW146494  13.591   4.605   2.110
48199SOL    HW246495  13.488   4.528   2.189
48200SOL     OW46496  14.634   5.544  10.572
48200SOL    HW146497  14.611   5.605  10.641
48200SOL    HW246498  14.550   5.515  10.536
48201SOL     OW46499   5.199   3.809   5.544
48201SOL    HW146500   5.126   3.802   5.605
48201SOL    HW246501   5.254   3.733   5.564
48202SOL     OW46502   1.119   2.607   7.599
48202SOL    HW146503   1.105   2.592   7.693
48202SOL    HW246504   1.066   2.683   7.578
48203SOL     OW46505   5.952  11.311   8.725
48203SOL    HW146506   5.933  11.267   8.808
48203SOL    HW246507   5.896  11.389   8.727
48204SOL     OW46508   6.236  14.605   2.387
48204SOL    HW146509   6.257  14.630   2.477
48204SOL    HW246510   6.321  14.601   2.344
48205SOL     OW46511  13.552  13.888  12.110
48205SOL    HW146512  13.512  13.975  12.111
48205SOL    HW246513  13.518  13.847  12.031
48206SOL     OW46514  13.477   2.116   0.209
48206SOL    HW146515  13.421   2.192   0.227
48206SOL    HW246516  13.452   2.089   0.120
48207SOL     OW46517   4.217  14.154   3.068
48207SOL    HW146518   4.280  14.093   3.107
48207SOL    HW246519   4.142  14.152   3.129
48208SOL     OW46520   2.627   9.181  14.128
48208SOL    HW146521   2.617   9.102  14.181
48208SOL    HW246522   2.569   9.167  14.053
48209SOL     OW46523   4.737  13.716   0.900
48209SOL    HW146524   4.795  13.695   0.827
48209SOL    HW246525   4.684  13.637   0.912
48210SOL     OW46526  12.977   8.411   3.680
48210SOL    HW146527  13.033   8.334   3.687
48210SOL    HW246528  12.892   8.382   3.712
48211SOL     OW46529  10.677   8.062   1.525
48211SOL    HW146530  10.687   8.014   1.608
48211SOL    HW246531  10.721   8.007   1.460
48212SOL     OW46532   0.954  12.880   3.869
48212SOL    HW146533   1.022  12.933   3.828
48212SOL    HW246534   0.920  12.935   3.941
48213SOL     OW46535   2.662  11.753  14.564
48213SOL    HW146536   2.721  11.692  14.609
48213SOL    HW246537   2.636  11.815  14.632
48214SOL     OW46538   1.974   8.911   8.028
48214SOL    HW146539   1.890   8.875   8.058
48214SOL    HW246540   1.961   9.006   8.029
48215SOL     OW46541  10.622   3.090   2.685
48215SOL    HW146542  10.591   3.176   2.714
48215SOL    HW246543  10.658   3.106   2.597
48216SOL     OW46544   0.012  12.521  11.244
48216SOL    HW146545  14.865  12.511  11.151
48216SOL    HW246546  14.805  12.569  11.277
48217SOL     OW46547   5.002   6.250   4.988
48217SOL    HW146548   4.936   6.273   4.922
48217SOL    HW246549   4.974   6.165   5.020
48218SOL     OW46550   8.426  10.208  10.750
48218SOL    HW146551   8.367  10.267  10.797
48218SOL    HW246552   8.436  10.248  10.664
48219SOL     OW46553   0.833   4.676   6.825
48219SOL    HW146554   0.923   4.678   6.794
48219SOL    HW246555   0.781   4.703   6.748
48220SOL     OW46556   3.661   5.966   7.344
48220SOL    HW146557   3.616   6.012   7.273
48220SOL    HW246558   3.632   5.876   7.336
48221SOL     OW46559   4.921   8.242   5.114
48221SOL    HW146560   4.826   8.245   5.126
48221SOL    HW246561   4.957   8.266   5.199
48222SOL     OW46562  13.915   3.029  14.837
48222SOL    HW146563  13.900   3.086  14.762
48222SOL    HW246564  13.978   2.964  14.806
48223SOL     OW46565   0.151   8.414  12.653
48223SOL    HW146566   0.073   8.449  12.697
48223SOL    HW246567   0.131   8.321  12.639
48224SOL     OW46568  14.158  13.896  10.967
48224SOL    HW146569  14.223  13.931  10.906
48224SOL    HW246570  14.165  13.952  11.044
48225SOL     OW46571   4.748   3.649  13.498
48225SOL    HW146572   4.722   3.727  13.449
48225SOL    HW246573   4.818   3.610  13.444
48226SOL     OW46574   0.085   4.777   1.146
48226SOL    HW146575   0.022   4.839   1.110
48226SOL    HW246576   0.136   4.748   1.071
48227SOL     OW46577  10.018  10.915   5.752
48227SOL    HW146578  10.040  10.838   5.803
48227SOL    HW246579  10.089  10.977   5.770
48228SOL     OW46580   8.677   0.278  13.043
48228SOL    HW146581   8.772   0.269  13.048
48228SOL    HW246582   8.646   0.191  13.017
48229SOL     OW46583   6.923  10.031   0.827
48229SOL    HW146584   6.953   9.944   0.854
48229SOL    HW246585   6.884  10.069   0.906
48230SOL     OW46586   6.659   4.280  11.504
48230SOL    HW146587   6.588   4.294  11.567
48230SOL    HW246588   6.717   4.355  11.517
48231SOL     OW46589  10.864   9.971   4.367
48231SOL    HW146590  10.855   9.875   4.363
48231SOL    HW246591  10.774  10.003   4.380
48232SOL     OW46592   2.326   6.978  11.163
48232SOL    HW146593   2.360   6.892  11.188
48232SOL    HW246594   2.295   6.967  11.073
48233SOL     OW46595   2.721  11.629  11.877
48233SOL    HW146596   2.725  11.578  11.958
48233SOL    HW246597   2.714  11.564  11.808
48234SOL     OW46598  10.619   4.398   6.113
48234SOL    HW146599  10.554   4.462   6.082
48234SOL    HW246600  10.568   4.334   6.162
48235SOL     OW46601   0.137   2.278   4.134
48235SOL    HW146602   0.093   2.200   4.168
48235SOL    HW246603   0.196   2.245   4.066
48236SOL     OW46604   2.531   9.433   8.330
48236SOL    HW146605   2.580   9.515   8.338
48236SOL    HW246606   2.528   9.416   8.236
48237SOL     OW46607  13.338   2.255  11.137
48237SOL    HW146608  13.302   2.258  11.225
48237SOL    HW246609  13.399   2.330  11.133
48238SOL     OW46610   1.739  14.116  14.070
48238SOL    HW146611   1.825  14.115  14.028
48238SOL    HW246612   1.748  14.053  14.142
48239SOL     OW46613   3.981   8.394  12.261
48239SOL    HW146614   4.025   8.477  12.244
48239SOL    HW246615   3.918   8.385  12.189
48240SOL     OW46616   6.005   2.307  14.852
48240SOL    HW146617   6.037   2.289   0.071
48240SOL    HW246618   6.055   2.248  14.796
48241SOL     OW46619   2.142  14.470  12.622
48241SOL    HW146620   2.140  14.566  12.626
48241SOL    HW246621   2.210  14.445  12.685
48242SOL     OW46622   3.579   4.018  12.543
48242SOL    HW146623   3.510   4.030  12.608
48242SOL    HW246624   3.655   4.064  12.579
48243SOL     OW46625   4.318  11.905   0.204
48243SOL    HW146626   4.274  11.913   0.289
48243SOL    HW246627   4.407  11.876   0.226
48244SOL     OW46628   2.032   0.428   2.630
48244SOL    HW146629   2.127   0.436   2.637
48244SOL    HW246630   2.010   0.472   2.549
48245SOL     OW46631   3.815  13.178   7.338
48245SOL    HW146632   3.759  13.242   7.383
48245SOL    HW246633   3.891  13.230   7.309
48246SOL     OW46634  11.651   3.592   9.924
48246SOL    HW146635  11.626   3.572   9.834
48246SOL    HW246636  11.729   3.539   9.940
48247SOL     OW46637   0.701   5.047  14.091
48247SOL    HW146638   0.686   5.077  14.181
48247SOL    HW246639   0.617   5.012  14.063
48248SOL     OW46640   6.829   1.712   5.863
48248SOL    HW146641   6.855   1.803   5.852
48248SOL    HW246642   6.905   1.670   5.904
48249SOL     OW46643   0.669   6.087   0.589
48249SOL    HW146644   0.697   6.064   0.500
48249SOL    HW246645   0.633   6.175   0.581
48250SOL     OW46646  14.052  13.211   2.052
48250SOL    HW146647  14.053  13.254   1.967
48250SOL    HW246648  14.130  13.245   2.097
48251SOL     OW46649   5.108   8.508   1.544
48251SOL    HW146650   5.172   8.449   1.503
48251SOL    HW246651   5.055   8.451   1.599
48252SOL     OW46652   7.775   2.871   7.679
48252SOL    HW146653   7.765   2.917   7.762
48252SOL    HW246654   7.750   2.780   7.698
48253SOL     OW46655   6.867   4.327  12.035
48253SOL    HW146656   6.791   4.385  12.047
48253SOL    HW246657   6.870   4.311  11.940
48254SOL     OW46658   5.988   6.661   3.584
48254SOL    HW146659   6.037   6.742   3.567
48254SOL    HW246660   5.969   6.626   3.497
48255SOL     OW46661   5.291   4.068   6.279
48255SOL    HW146662   5.282   4.142   6.220
48255SOL    HW246663   5.351   4.099   6.347
48256SOL     OW46664   5.117   1.860   2.513
48256SOL    HW146665   5.163   1.817   2.585
48256SOL    HW246666   5.039   1.898   2.554
48257SOL     OW46667   2.901   9.531   9.093
48257SOL    HW146668   2.862   9.458   9.044
48257SOL    HW246669   2.826   9.578   9.130
48258SOL     OW46670   7.869   7.396  13.812
48258SOL    HW146671   7.930   7.401  13.886
48258SOL    HW246672   7.924   7.411  13.735
48259SOL     OW46673  12.785  14.150   0.369
48259SOL    HW146674  12.716  14.183   0.426
48259SOL    HW246675  12.739  14.108   0.297
48260SOL     OW46676   2.978   6.770   0.320
48260SOL    HW146677   2.910   6.804   0.378
48260SOL    HW246678   3.048   6.835   0.325
48261SOL     OW46679  11.242   9.321   5.257
48261SOL    HW146680  11.169   9.296   5.313
48261SOL    HW246681  11.248   9.251   5.192
48262SOL     OW46682   3.591   1.462  13.733
48262SOL    HW146683   3.681   1.439  13.709
48262SOL    HW246684   3.594   1.556  13.750
48263SOL     OW46685   1.383   2.133  11.550
48263SOL    HW146686   1.473   2.110  11.527
48263SOL    HW246687   1.385   2.145  11.645
48264SOL     OW46688   6.759  13.954   1.722
48264SOL    HW146689   6.809  14.033   1.700
48264SOL    HW246690   6.681  13.960   1.668
48265SOL     OW46691   6.424  13.868   9.388
48265SOL    HW146692   6.336  13.872   9.353
48265SOL    HW246693   6.479  13.910   9.321
48266SOL     OW46694   5.546   3.466   6.955
48266SOL    HW146695   5.555   3.373   6.976
48266SOL    HW246696   5.614   3.482   6.889
48267SOL     OW46697   2.309   6.320   2.962
48267SOL    HW146698   2.373   6.360   3.020
48267SOL    HW246699   2.225   6.334   3.006
48268SOL     OW46700  13.665  14.612  10.542
48268SOL    HW146701  13.758  14.609  10.518
48268SOL    HW246702  13.661  14.567  10.627
48269SOL     OW46703  11.195  12.766  11.017
48269SOL    HW146704  11.127  12.832  11.004
48269SOL    HW246705  11.246  12.768  10.936
48270SOL     OW46706  14.141  13.147  10.482
48270SOL    HW146707  14.190  13.122  10.403
48270SOL    HW246708  14.207  13.182  10.541
48271SOL     OW46709  11.089  10.283  12.623
48271SOL    HW146710  11.146  10.223  12.671
48271SOL    HW246711  11.146  10.357  12.601
48272SOL     OW46712  10.788   0.454   8.827
48272SOL    HW146713  10.879   0.467   8.801
48272SOL    HW246714  10.765   0.535   8.874
48273SOL     OW46715   0.139   5.212  14.687
48273SOL    HW146716   0.092   5.132  14.666
48273SOL    HW246717   0.157   5.252  14.602
48274SOL     OW46718  11.593   6.522  10.386
48274SOL    HW146719  11.506   6.538  10.423
48274SOL    HW246720  11.621   6.608  10.355
48275SOL     OW46721   1.136  13.215   2.563
48275SOL    HW146722   1.193  13.183   2.493
48275SOL    HW246723   1.163  13.165   2.641
48276SOL     OW46724  12.032   5.169   3.756
48276SOL    HW146725  11.955   5.166   3.813
48276SOL    HW246726  12.071   5.254   3.775
48277SOL     OW46727   9.782  12.075   0.641
48277SOL    HW146728   9.818  11.988   0.658
48277SOL    HW246729   9.786  12.084   0.546
48278SOL     OW46730   5.788   6.425   5.222
48278SOL    HW146731   5.871   6.380   5.240
48278SOL    HW246732   5.775   6.484   5.296
48279SOL     OW46733   8.200  14.289  12.186
48279SOL    HW146734   8.193  14.370  12.136
48279SOL    HW246735   8.152  14.306  12.267
48280SOL     OW46736   4.495  11.677   3.465
48280SOL    HW146737   4.475  11.757   3.514
48280SOL    HW246738   4.483  11.702   3.373
48281SOL     OW46739  13.089   7.936   9.213
48281SOL    HW146740  13.156   7.954   9.147
48281SOL    HW246741  13.041   7.860   9.179
48282SOL     OW46742   6.336   7.571   3.928
48282SOL    HW146743   6.341   7.527   4.014
48282SOL    HW246744   6.262   7.529   3.885
48283SOL     OW46745  11.852  14.246  12.465
48283SOL    HW146746  11.836  14.245  12.371
48283SOL    HW246747  11.861  14.154  12.489
48284SOL     OW46748  13.174  11.720   3.263
48284SOL    HW146749  13.167  11.634   3.222
48284SOL    HW246750  13.207  11.777   3.193
48285SOL     OW46751  13.498  13.795   9.192
48285SOL    HW146752  13.509  13.725   9.256
48285SOL    HW246753  13.511  13.753   9.107
48286SOL     OW46754  12.195  10.528   4.555
48286SOL    HW146755  12.289  10.511   4.562
48286SOL    HW246756  12.154  10.442   4.565
48287SOL     OW46757   7.084   5.534   5.894
48287SOL    HW146758   7.170   5.494   5.879
48287SOL    HW246759   7.102   5.605   5.956
48288SOL     OW46760  10.095   9.773   3.528
48288SOL    HW146761  10.061   9.794   3.440
48288SOL    HW246762  10.022   9.794   3.587
48289SOL     OW46763   3.266   9.083   5.465
48289SOL    HW146764   3.286   9.136   5.388
48289SOL    HW246765   3.220   9.006   5.429
48290SOL     OW46766   9.529  10.636   9.081
48290SOL    HW146767   9.532  10.698   9.154
48290SOL    HW246768   9.437  10.610   9.074
48291SOL     OW46769  12.428  14.199   2.761
48291SOL    HW146770  12.379  14.149   2.826
48291SOL    HW246771  12.515  14.210   2.799
48292SOL     OW46772   9.314   9.528  13.757
48292SOL    HW146773   9.328   9.510  13.665
48292SOL    HW246774   9.396   9.570  13.786
48293SOL     OW46775   4.007  12.837  11.924
48293SOL    HW146776   3.991  12.874  11.837
48293SOL    HW246777   4.092  12.872  11.949
48294SOL     OW46778   2.581   8.704   7.095
48294SOL    HW146779   2.548   8.622   7.131
48294SOL    HW246780   2.509   8.738   7.042
48295SOL     OW46781   3.635   6.470   1.842
48295SOL    HW146782   3.715   6.445   1.796
48295SOL    HW246783   3.640   6.425   1.926
48296SOL     OW46784   9.183  10.048  12.021
48296SOL    HW146785   9.094  10.014  12.032
48296SOL    HW246786   9.192  10.116  12.089
48297SOL     OW46787   1.789   2.271   1.953
48297SOL    HW146788   1.702   2.237   1.975
48297SOL    HW246789   1.800   2.250   1.860
48298SOL     OW46790   6.215   7.606   9.831
48298SOL    HW146791   6.228   7.513   9.848
48298SOL    HW246792   6.289   7.632   9.777
48299SOL     OW46793   9.191   2.677  14.725
48299SOL    HW146794   9.259   2.633  14.777
48299SOL    HW246795   9.233   2.695  14.641
48300SOL     OW46796   3.291   7.872   3.202
48300SOL    HW146797   3.270   7.944   3.260
48300SOL    HW246798   3.253   7.897   3.117
48301SOL     OW46799   7.958   2.410   2.952
48301SOL    HW146800   7.914   2.482   2.907
48301SOL    HW246801   8.011   2.452   3.020
48302SOL     OW46802   1.499   2.132  13.382
48302SOL    HW146803   1.505   2.060  13.319
48302SOL    HW246804   1.409   2.165  13.372
48303SOL     OW46805   5.290  10.109  13.096
48303SOL    HW146806   5.211  10.138  13.142
48303SOL    HW246807   5.323  10.036  13.147
48304SOL     OW46808   0.695   6.661   5.462
48304SOL    HW146809   0.642   6.587   5.494
48304SOL    HW246810   0.771   6.662   5.521
48305SOL     OW46811   8.165  14.802  14.505
48305SOL    HW146812   8.167   0.019  14.546
48305SOL    HW246813   8.256  14.783  14.485
48306SOL     OW46814   1.083   1.942  14.624
48306SOL    HW146815   1.068   2.033  14.596
48306SOL    HW246816   1.033   1.934  14.706
48307SOL     OW46817   3.393   1.428  12.751
48307SOL    HW146818   3.423   1.503  12.699
48307SOL    HW246819   3.457   1.421  12.823
48308SOL     OW46820  11.659   0.916  11.822
48308SOL    HW146821  11.672   0.909  11.727
48308SOL    HW246822  11.680   1.008  11.842
48309SOL     OW46823   2.745   7.274  11.535
48309SOL    HW146824   2.837   7.299  11.543
48309SOL    HW246825   2.697   7.344  11.582
48310SOL     OW46826   9.473   1.454  12.937
48310SOL    HW146827   9.545   1.417  12.989
48310SOL    HW246828   9.512   1.470  12.851
48311SOL     OW46829  12.097   7.972  13.110
48311SOL    HW146830  12.141   7.893  13.143
48311SOL    HW246831  12.161   8.041  13.121
48312SOL     OW46832  11.800  10.321   8.232
48312SOL    HW146833  11.883  10.352   8.270
48312SOL    HW246834  11.745  10.400   8.228
48313SOL     OW46835   2.801   3.808   8.906
48313SOL    HW146836   2.836   3.727   8.941
48313SOL    HW246837   2.786   3.791   8.813
48314SOL     OW46838   2.784   5.954  13.916
48314SOL    HW146839   2.811   5.926  13.829
48314SOL    HW246840   2.750   5.875  13.958
48315SOL     OW46841   0.441   1.783  11.033
48315SOL    HW146842   0.466   1.824  10.950
48315SOL    HW246843   0.346   1.785  11.033
48316SOL     OW46844  12.334   3.054   1.150
48316SOL    HW146845  12.361   3.129   1.204
48316SOL    HW246846  12.246   3.077   1.119
48317SOL     OW46847   6.922  11.433  10.055
48317SOL    HW146848   6.941  11.484  10.134
48317SOL    HW246849   6.834  11.398  10.069
48318SOL     OW46850  14.474   1.936   3.365
48318SOL    HW146851  14.504   2.018   3.328
48318SOL    HW246852  14.393   1.959   3.412
48319SOL     OW46853   6.400   9.476   3.601
48319SOL    HW146854   6.446   9.419   3.540
48319SOL    HW246855   6.379   9.419   3.675
48320SOL     OW46856  13.467   8.825   1.367
48320SOL    HW146857  13.382   8.867   1.376
48320SOL    HW246858  13.517   8.885   1.310
48321SOL     OW46859  11.703  11.173   6.853
48321SOL    HW146860  11.706  11.266   6.874
48321SOL    HW246861  11.780  11.158   6.799
48322SOL     OW46862   5.643  13.097  13.085
48322SOL    HW146863   5.635  13.121  13.177
48322SOL    HW246864   5.561  13.051  13.065
48323SOL     OW46865  11.736   6.999  14.506
48323SOL    HW146866  11.810   6.981  14.448
48323SOL    HW246867  11.687   6.917  14.510
48324SOL     OW46868   5.466  13.256   4.757
48324SOL    HW146869   5.475  13.214   4.671
48324SOL    HW246870   5.379  13.229   4.788
48325SOL     OW46871  12.301   6.308  13.173
48325SOL    HW146872  12.318   6.238  13.109
48325SOL    HW246873  12.328   6.388  13.128
48326SOL     OW46874   4.427   4.568   3.521
48326SOL    HW146875   4.491   4.598   3.585
48326SOL    HW246876   4.368   4.511   3.571
48327SOL     OW46877   2.874   6.280   8.914
48327SOL    HW146878   2.850   6.373   8.917
48327SOL    HW246879   2.896   6.264   8.822
48328SOL     OW46880   5.811  12.746   9.569
48328SOL    HW146881   5.795  12.678   9.634
48328SOL    HW246882   5.895  12.722   9.530
48329SOL     OW46883   3.362  14.773   7.296
48329SOL    HW146884   3.285  14.769   7.239
48329SOL    HW246885   3.363  14.689   7.341
48330SOL     OW46886   7.315  12.676   5.918
48330SOL    HW146887   7.337  12.727   5.995
48330SOL    HW246888   7.228  12.641   5.936
48331SOL     OW46889   2.575   8.889   9.272
48331SOL    HW146890   2.583   8.856   9.362
48331SOL    HW246891   2.658   8.867   9.231
48332SOL     OW46892   4.428   5.850   6.987
48332SOL    HW146893   4.431   5.770   6.935
48332SOL    HW246894   4.337   5.859   7.013
48333SOL     OW46895   9.884  14.697   7.855
48333SOL    HW146896   9.931  14.716   7.936
48333SOL    HW246897   9.829  14.622   7.876
48334SOL     OW46898   5.305   9.239   0.620
48334SOL    HW146899   5.214   9.215   0.635
48334SOL    HW246900   5.310   9.332   0.642
48335SOL     OW46901   3.984   5.464  12.706
48335SOL    HW146902   4.015   5.456  12.616
48335SOL    HW246903   4.056   5.508  12.752
48336SOL     OW46904   7.129   5.130   0.570
48336SOL    HW146905   7.141   5.079   0.650
48336SOL    HW246906   7.088   5.211   0.599
48337SOL     OW46907   5.404   9.389  11.092
48337SOL    HW146908   5.321   9.409  11.136
48337SOL    HW246909   5.422   9.298  11.116
48338SOL     OW46910   2.410   9.961   1.698
48338SOL    HW146911   2.377   9.872   1.686
48338SOL    HW246912   2.334  10.012   1.727
48339SOL     OW46913  13.575  10.377  12.845
48339SOL    HW146914  13.574  10.282  12.859
48339SOL    HW246915  13.560  10.387  12.751
48340SOL     OW46916   5.002  14.136  12.500
48340SOL    HW146917   5.081  14.167  12.455
48340SOL    HW246918   5.000  14.186  12.581
48341SOL     OW46919   8.846   0.400  14.023
48341SOL    HW146920   8.797   0.471  13.982
48341SOL    HW246921   8.822   0.404  14.115
48342SOL     OW46922  14.611   4.032   0.644
48342SOL    HW146923  14.641   3.957   0.592
48342SOL    HW246924  14.526   4.055   0.606
48343SOL     OW46925   0.486   4.347   1.422
48343SOL    HW146926   0.558   4.300   1.380
48343SOL    HW246927   0.520   4.372   1.508
48344SOL     OW46928  14.620   9.346  13.617
48344SOL    HW146929  14.624   9.338  13.522
48344SOL    HW246930  14.580   9.264  13.646
48345SOL     OW46931   0.952   6.533   3.936
48345SOL    HW146932   0.987   6.515   4.023
48345SOL    HW246933   0.977   6.456   3.884
48346SOL     OW46934   3.343   0.579   6.643
48346SOL    HW146935   3.333   0.627   6.725
48346SOL    HW246936   3.432   0.598   6.615
48347SOL     OW46937  11.034   7.431   9.967
48347SOL    HW146938  11.005   7.346   9.935
48347SOL    HW246939  10.980   7.494   9.919
48348SOL     OW46940   0.876   3.667   2.518
48348SOL    HW146941   0.877   3.584   2.469
48348SOL    HW246942   0.785   3.697   2.513
48349SOL     OW46943  11.384   4.398   7.593
48349SOL    HW146944  11.335   4.471   7.632
48349SOL    HW246945  11.343   4.384   7.508
48350SOL     OW46946  13.472   6.950   6.628
48350SOL    HW146947  13.442   6.859   6.638
48350SOL    HW246948  13.392   7.001   6.622
48351SOL     OW46949   4.838   6.635  11.034
48351SOL    HW146950   4.919   6.649  11.082
48351SOL    HW246951   4.769   6.646  11.100
48352SOL     OW46952   9.410   8.213  13.897
48352SOL    HW146953   9.447   8.149  13.958
48352SOL    HW246954   9.338   8.254  13.946
48353SOL     OW46955   3.593  10.377   9.292
48353SOL    HW146956   3.538  10.392   9.368
48353SOL    HW246957   3.675  10.342   9.328
48354SOL     OW46958  12.240   1.375   0.439
48354SOL    HW146959  12.218   1.372   0.345
48354SOL    HW246960  12.238   1.283   0.466
48355SOL     OW46961  14.182  14.693   6.683
48355SOL    HW146962  14.156  14.602   6.695
48355SOL    HW246963  14.151  14.737   6.762
48356SOL     OW46964   3.417   0.935  14.146
48356SOL    HW146965   3.412   0.886  14.064
48356SOL    HW246966   3.439   1.024  14.119
48357SOL     OW46967   1.058   3.598  13.503
48357SOL    HW146968   1.066   3.590  13.408
48357SOL    HW246969   0.991   3.666  13.515
48358SOL     OW46970   3.214   3.098  12.658
48358SOL    HW146971   3.222   3.129  12.568
48358SOL    HW246972   3.127   3.127  12.685
48359SOL     OW46973   8.275   7.040   7.725
48359SOL    HW146974   8.289   7.053   7.631
48359SOL    HW246975   8.294   6.947   7.739
48360SOL     OW46976   6.153  13.184   5.465
48360SOL    HW146977   6.181  13.095   5.440
48360SOL    HW246978   6.225  13.217   5.520
48361SOL     OW46979   9.275  13.409  11.457
48361SOL    HW146980   9.213  13.346  11.492
48361SOL    HW246981   9.223  13.489  11.444
48362SOL     OW46982   6.925  10.283   1.726
48362SOL    HW146983   6.917  10.233   1.645
48362SOL    HW246984   6.865  10.241   1.787
48363SOL     OW46985   8.374   8.740   7.370
48363SOL    HW146986   8.402   8.702   7.287
48363SOL    HW246987   8.393   8.834   7.361
48364SOL     OW46988   4.675   3.776   1.629
48364SOL    HW146989   4.689   3.791   1.723
48364SOL    HW246990   4.640   3.688   1.625
48365SOL     OW46991   4.508   1.114   0.047
48365SOL    HW146992   4.452   1.191   0.036
48365SOL    HW246993   4.592   1.141   0.010
48366SOL     OW46994   0.639   9.346   6.453
48366SOL    HW146995   0.626   9.434   6.419
48366SOL    HW246996   0.731   9.326   6.436
48367SOL     OW46997   2.726   9.620   0.246
48367SOL    HW146998   2.778   9.544   0.220
48367SOL    HW246999   2.790   9.681   0.282
48368SOL     OW47000   4.656   0.497   3.604
48368SOL    HW147001   4.730   0.514   3.544
48368SOL    HW247002   4.589   0.457   3.549
48369SOL     OW47003   2.626  10.019   1.502
48369SOL    HW147004   2.557   9.998   1.566
48369SOL    HW247005   2.581  10.017   1.417
48370SOL     OW47006   6.511   3.253   0.766
48370SOL    HW147007   6.482   3.233   0.677
48370SOL    HW247008   6.430   3.252   0.818
48371SOL     OW47009   6.437   3.820   8.158
48371SOL    HW147010   6.443   3.857   8.246
48371SOL    HW247011   6.500   3.748   8.158
48372SOL     OW47012   8.606   2.132   5.563
48372SOL    HW147013   8.551   2.056   5.548
48372SOL    HW247014   8.553   2.206   5.532
48373SOL     OW47015   4.830  14.497   7.385
48373SOL    HW147016   4.783  14.565   7.434
48373SOL    HW247017   4.906  14.542   7.348
48374SOL     OW47018   3.244   0.861  11.392
48374SOL    HW147019   3.239   0.798  11.464
48374SOL    HW247020   3.167   0.843  11.339
48375SOL     OW47021   1.131   2.283  10.805
48375SOL    HW147022   1.126   2.346  10.733
48375SOL    HW247023   1.158   2.201  10.762
48376SOL     OW47024   2.156  11.070   6.977
48376SOL    HW147025   2.214  11.046   6.904
48376SOL    HW247026   2.203  11.041   7.055
48377SOL     OW47027   9.665   4.971   1.790
48377SOL    HW147028   9.576   4.998   1.810
48377SOL    HW247029   9.656   4.883   1.751
48378SOL     OW47030   5.563   5.885  11.699
48378SOL    HW147031   5.501   5.848  11.636
48378SOL    HW247032   5.584   5.972  11.663
48379SOL     OW47033   9.077  11.224   1.298
48379SOL    HW147034   9.043  11.251   1.384
48379SOL    HW247035   9.143  11.290   1.276
48380SOL     OW47036   0.808   7.439  11.866
48380SOL    HW147037   0.902   7.421  11.860
48380SOL    HW247038   0.779   7.447  11.775
48381SOL     OW47039   3.737   6.900   3.061
48381SOL    HW147040   3.651   6.858   3.071
48381SOL    HW247041   3.722   6.991   3.089
48382SOL     OW47042   8.149  13.853  14.008
48382SOL    HW147043   8.237  13.838  13.972
48382SOL    HW247044   8.143  13.948  14.017
48383SOL     OW47045   2.119  13.103   7.906
48383SOL    HW147046   2.095  13.193   7.925
48383SOL    HW247047   2.091  13.088   7.816
48384SOL     OW47048  12.893   4.886  11.720
48384SOL    HW147049  12.957   4.955  11.735
48384SOL    HW247050  12.837   4.887  11.797
48385SOL     OW47051   0.203   9.695   9.941
48385SOL    HW147052   0.223   9.788   9.931
48385SOL    HW247053   0.168   9.669   9.855
48386SOL     OW47054  13.520   3.516  13.167
48386SOL    HW147055  13.546   3.602  13.200
48386SOL    HW247056  13.571   3.454  13.219
48387SOL     OW47057   1.755  13.903  14.223
48387SOL    HW147058   1.763  13.820  14.270
48387SOL    HW247059   1.842  13.918  14.186
48388SOL     OW47060   1.197  12.546   8.794
48388SOL    HW147061   1.263  12.557   8.862
48388SOL    HW247062   1.240  12.492   8.728
48389SOL     OW47063   8.620   4.723   4.794
48389SOL    HW147064   8.608   4.657   4.861
48389SOL    HW247065   8.583   4.803   4.831
48390SOL     OW47066   4.559   1.308  14.177
48390SOL    HW147067   4.609   1.275  14.252
48390SOL    HW247068   4.545   1.401  14.196
48391SOL     OW47069   8.762   9.070  11.671
48391SOL    HW147070   8.797   8.986  11.640
48391SOL    HW247071   8.708   9.101  11.599
48392SOL     OW47072   7.788  11.087  13.055
48392SOL    HW147073   7.859  11.148  13.075
48392SOL    HW247074   7.822  11.034  12.983
48393SOL     OW47075  14.084   3.283   3.135
48393SOL    HW147076  14.063   3.376   3.124
48393SOL    HW247077  14.173   3.283   3.170
48394SOL     OW47078   6.510  11.287   6.034
48394SOL    HW147079   6.551  11.219   5.981
48394SOL    HW247080   6.526  11.260   6.124
48395SOL     OW47081   2.352   3.967   9.741
48395SOL    HW147082   2.334   4.050   9.786
48395SOL    HW247083   2.323   3.983   9.651
48396SOL     OW47084   1.864   2.862  12.024
48396SOL    HW147085   1.775   2.825  12.023
48396SOL    HW247086   1.855   2.945  11.976
48397SOL     OW47087   5.290   8.465   0.648
48397SOL    HW147088   5.222   8.399   0.665
48397SOL    HW247089   5.346   8.461   0.725
48398SOL     OW47090   5.721  14.705   5.288
48398SOL    HW147091   5.639  14.667   5.319
48398SOL    HW247092   5.765  14.632   5.243
48399SOL     OW47093   3.510   5.478   8.473
48399SOL    HW147094   3.483   5.552   8.418
48399SOL    HW247095   3.545   5.519   8.552
48400SOL     OW47096   1.548   3.469  13.402
48400SOL    HW147097   1.525   3.382  13.434
48400SOL    HW247098   1.516   3.529  13.469
48401SOL     OW47099  11.880   4.146   0.535
48401SOL    HW147100  11.897   4.206   0.608
48401SOL    HW247101  11.796   4.105   0.557
48402SOL     OW47102  13.096   2.576   4.691
48402SOL    HW147103  13.164   2.636   4.660
48402SOL    HW247104  13.092   2.507   4.625
48403SOL     OW47105   7.439   8.777   1.092
48403SOL    HW147106   7.422   8.691   1.053
48403SOL    HW247107   7.472   8.757   1.180
48404SOL     OW47108   7.233  10.032   6.329
48404SOL    HW147109   7.171  10.015   6.258
48404SOL    HW247110   7.299  10.090   6.290
48405SOL     OW47111  13.004   6.657   3.497
48405SOL    HW147112  12.983   6.629   3.408
48405SOL    HW247113  12.923   6.642   3.547
48406SOL     OW47114   3.877  13.898  13.566
48406SOL    HW147115   3.811  13.954  13.607
48406SOL    HW247116   3.828  13.821  13.535
48407SOL     OW47117   8.820   4.223  12.399
48407SOL    HW147118   8.740   4.258  12.437
48407SOL    HW247119   8.830   4.137  12.439
48408SOL     OW47120   4.210  10.940   1.703
48408SOL    HW147121   4.226  10.851   1.733
48408SOL    HW247122   4.121  10.937   1.668
48409SOL     OW47123   5.673   8.888   7.306
48409SOL    HW147124   5.754   8.842   7.285
48409SOL    HW247125   5.688   8.978   7.277
48410SOL     OW47126   5.229  11.796   0.788
48410SOL    HW147127   5.271  11.710   0.786
48410SOL    HW247128   5.233  11.823   0.880
48411SOL     OW47129   0.896   4.728   1.114
48411SOL    HW147130   0.875   4.765   1.200
48411SOL    HW247131   0.835   4.771   1.054
48412SOL     OW47132   2.383   8.096   0.092
48412SOL    HW147133   2.340   8.112   0.008
48412SOL    HW247134   2.476   8.096   0.071
48413SOL     OW47135   2.493  11.706  11.177
48413SOL    HW147136   2.400  11.728  11.179
48413SOL    HW247137   2.505  11.663  11.093
48414SOL     OW47138   1.976  10.331   1.772
48414SOL    HW147139   2.004  10.373   1.853
48414SOL    HW247140   1.948  10.244   1.798
48415SOL     OW47141   0.759  14.796   6.160
48415SOL    HW147142   0.751   0.022   6.161
48415SOL    HW247143   0.767  14.771   6.252
48416SOL     OW47144   6.594   1.113   6.100
48416SOL    HW147145   6.613   1.182   6.037
48416SOL    HW247146   6.558   1.041   6.048
48417SOL     OW47147   4.482   1.114   9.836
48417SOL    HW147148   4.537   1.100   9.913
48417SOL    HW247149   4.422   1.040   9.836
48418SOL     OW47150   2.412   8.284  13.496
48418SOL    HW147151   2.402   8.375  13.523
48418SOL    HW247152   2.363   8.278  13.413
48419SOL     OW47153   5.413  11.483   3.803
48419SOL    HW147154   5.380  11.493   3.892
48419SOL    HW247155   5.489  11.542   3.798
48420SOL     OW47156  10.276  11.872  14.204
48420SOL    HW147157  10.220  11.831  14.270
48420SOL    HW247158  10.343  11.807  14.185
48421SOL     OW47159   5.869   9.613   7.000
48421SOL    HW147160   5.786   9.638   6.960
48421SOL    HW247161   5.921   9.579   6.927
48422SOL     OW47162  11.552  11.139   7.461
48422SOL    HW147163  11.473  11.124   7.513
48422SOL    HW247164  11.531  11.216   7.408
48423SOL     OW47165  14.043   9.698   6.902
48423SOL    HW147166  14.029   9.656   6.817
48423SOL    HW247167  14.102   9.639   6.949
48424SOL     OW47168   1.834   1.363   8.117
48424SOL    HW147169   1.872   1.283   8.080
48424SOL    HW247170   1.897   1.432   8.098
48425SOL     OW47171  12.326  13.416   2.799
48425SOL    HW147172  12.422  13.414   2.794
48425SOL    HW247173  12.297  13.356   2.731
48426SOL     OW47174   5.043   7.977   3.097
48426SOL    HW147175   5.135   8.004   3.099
48426SOL    HW247176   5.017   7.972   3.189
48427SOL     OW47177   5.202  14.846   9.484
48427SOL    HW147178   5.199   0.036   9.559
48427SOL    HW247179   5.161   0.026   9.413
48428SOL     OW47180   6.570   0.135   8.977
48428SOL    HW147181   6.488   0.165   8.937
48428SOL    HW247182   6.547   0.053   9.020
48429SOL     OW47183   5.351   4.191   5.577
48429SOL    HW147184   5.323   4.266   5.523
48429SOL    HW247185   5.419   4.149   5.525
48430SOL     OW47186   4.236   7.062  14.601
48430SOL    HW147187   4.144   7.078  14.580
48430SOL    HW247188   4.247   7.098  14.689
48431SOL     OW47189  11.246  13.797  10.237
48431SOL    HW147190  11.175  13.793  10.173
48431SOL    HW247191  11.312  13.736  10.203
48432SOL     OW47192   7.894  14.864   5.821
48432SOL    HW147193   7.942  14.804   5.879
48432SOL    HW247194   7.960   0.058   5.792
48433SOL     OW47195  13.104   4.750   1.491
48433SOL    HW147196  13.011   4.733   1.484
48433SOL    HW247197  13.122   4.750   1.585
48434SOL     OW47198   0.561   2.951   9.373
48434SOL    HW147199   0.508   2.910   9.305
48434SOL    HW247200   0.498   2.990   9.432
48435SOL     OW47201  10.981   6.059   1.178
48435SOL    HW147202  10.904   6.092   1.130
48435SOL    HW247203  11.028   6.139   1.204
48436SOL     OW47204  12.018  10.302  14.234
48436SOL    HW147205  12.053  10.294  14.322
48436SOL    HW247206  12.047  10.389  14.204
48437SOL     OW47207   3.332   2.015  13.969
48437SOL    HW147208   3.377   2.033  13.886
48437SOL    HW247209   3.336   2.097  14.017
48438SOL     OW47210   9.192  14.675   3.559
48438SOL    HW147211   9.124  14.741   3.547
48438SOL    HW247212   9.157  14.596   3.517
48439SOL     OW47213  12.307  11.287   3.012
48439SOL    HW147214  12.234  11.291   2.950
48439SOL    HW247215  12.266  11.279   3.098
48440SOL     OW47216   8.800  14.831   1.235
48440SOL    HW147217   8.708  14.826   1.208
48440SOL    HW247218   8.832  14.741   1.230
48441SOL     OW47219   3.998   5.324   9.587
48441SOL    HW147220   3.907   5.332   9.558
48441SOL    HW247221   4.012   5.229   9.595
48442SOL     OW47222   4.798   5.076   9.057
48442SOL    HW147223   4.751   5.038   8.984
48442SOL    HW247224   4.730   5.103   9.119
48443SOL     OW47225   7.148   9.774  10.249
48443SOL    HW147226   7.119   9.735  10.332
48443SOL    HW247227   7.199   9.704  10.207
48444SOL     OW47228   6.389   8.186   2.357
48444SOL    HW147229   6.424   8.129   2.289
48444SOL    HW247230   6.423   8.273   2.335
48445SOL     OW47231   4.189  13.630  14.134
48445SOL    HW147232   4.264  13.603  14.081
48445SOL    HW247233   4.199  13.582  14.216
48446SOL     OW47234  14.031   9.123   1.189
48446SOL    HW147235  13.987   9.204   1.164
48446SOL    HW247236  14.122   9.135   1.161
48447SOL     OW47237   8.889   6.193  11.332
48447SOL    HW147238   8.812   6.166  11.382
48447SOL    HW247239   8.908   6.118  11.275
48448SOL     OW47240  11.391   1.775   2.961
48448SOL    HW147241  11.457   1.733   2.907
48448SOL    HW247242  11.394   1.868   2.935
48449SOL     OW47243   3.257  14.124  11.486
48449SOL    HW147244   3.334  14.107  11.431
48449SOL    HW247245   3.279  14.203  11.534
48450SOL     OW47246  11.248   3.749   7.860
48450SOL    HW147247  11.278   3.799   7.936
48450SOL    HW247248  11.228   3.662   7.896
48451SOL     OW47249   9.237  12.942  11.624
48451SOL    HW147250   9.308  12.939  11.688
48451SOL    HW247251   9.158  12.926  11.676
48452SOL     OW47252  11.484  12.078  13.312
48452SOL    HW147253  11.505  12.016  13.382
48452SOL    HW247254  11.407  12.042  13.269
48453SOL     OW47255  11.028   9.417   7.544
48453SOL    HW147256  11.121   9.415   7.566
48453SOL    HW247257  11.012   9.508   7.516
48454SOL     OW47258   2.760   4.785   2.649
48454SOL    HW147259   2.838   4.729   2.659
48454SOL    HW247260   2.756   4.835   2.731
48455SOL     OW47261   1.909  11.969   4.856
48455SOL    HW147262   1.828  12.019   4.861
48455SOL    HW247263   1.945  11.971   4.945
48456SOL     OW47264  12.089   6.501   9.397
48456SOL    HW147265  12.119   6.436   9.334
48456SOL    HW247266  11.996   6.484   9.407
48457SOL     OW47267   1.728   9.312  13.498
48457SOL    HW147268   1.775   9.238  13.535
48457SOL    HW247269   1.639   9.279  13.482
48458SOL     OW47270   6.779  13.774   8.738
48458SOL    HW147271   6.851  13.715   8.715
48458SOL    HW247272   6.703  13.738   8.692
48459SOL     OW47273  14.226  14.370   5.589
48459SOL    HW147274  14.308  14.376   5.638
48459SOL    HW247275  14.250  14.392   5.499
48460SOL     OW47276   4.677   4.207   9.761
48460SOL    HW147277   4.603   4.214   9.821
48460SOL    HW247278   4.715   4.121   9.779
48461SOL     OW47279   7.118   0.461   5.504
48461SOL    HW147280   7.125   0.477   5.598
48461SOL    HW247281   7.109   0.366   5.496
48462SOL     OW47282   0.965  12.431  13.472
48462SOL    HW147283   0.987  12.447  13.381
48462SOL    HW247284   0.977  12.337  13.484
48463SOL     OW47285   1.922   7.975   5.045
48463SOL    HW147286   1.909   7.889   5.085
48463SOL    HW247287   1.923   7.957   4.950
48464SOL     OW47288   3.311   0.363   5.717
48464SOL    HW147289   3.242   0.426   5.699
48464SOL    HW247290   3.357   0.399   5.793
48465SOL     OW47291   7.529  12.295   0.946
48465SOL    HW147292   7.478  12.368   0.981
48465SOL    HW247293   7.499  12.218   0.995
48466SOL     OW47294  10.099  10.556   0.698
48466SOL    HW147295  10.073  10.612   0.625
48466SOL    HW247296  10.186  10.525   0.675
48467SOL     OW47297  14.189  11.384  10.550
48467SOL    HW147298  14.191  11.475  10.520
48467SOL    HW247299  14.120  11.343  10.497
48468SOL     OW47300   6.747  12.177   1.753
48468SOL    HW147301   6.669  12.194   1.806
48468SOL    HW247302   6.754  12.253   1.696
48469SOL     OW47303   7.710  11.664   0.406
48469SOL    HW147304   7.696  11.759   0.402
48469SOL    HW247305   7.740  11.641   0.318
48470SOL     OW47306  11.527  10.688   0.193
48470SOL    HW147307  11.557  10.762   0.246
48470SOL    HW247308  11.436  10.710   0.172
48471SOL     OW47309  12.213   5.556   7.810
48471SOL    HW147310  12.282   5.492   7.789
48471SOL    HW247311  12.223   5.624   7.743
48472SOL     OW47312  10.975   6.871   3.168
48472SOL    HW147313  10.944   6.939   3.229
48472SOL    HW247314  11.070   6.871   3.180
48473SOL     OW47315  12.933  13.550  14.781
48473SOL    HW147316  12.839  13.546  14.763
48473SOL    HW247317  12.954  13.464  14.818
48474SOL     OW47318  10.145  11.537   7.899
48474SOL    HW147319  10.148  11.577   7.986
48474SOL    HW247320  10.230  11.558   7.860
48475SOL     OW47321  13.642   6.454  11.143
48475SOL    HW147322  13.561   6.488  11.104
48475SOL    HW247323  13.615   6.374  11.189
48476SOL     OW47324  10.578   1.402   1.510
48476SOL    HW147325  10.649   1.418   1.571
48476SOL    HW247326  10.500   1.396   1.565
48477SOL     OW47327   9.753   0.222  11.685
48477SOL    HW147328   9.757   0.213  11.590
48477SOL    HW247329   9.744   0.132  11.717
48478SOL     OW47330   3.317  12.145   8.522
48478SOL    HW147331   3.286  12.229   8.487
48478SOL    HW247332   3.265  12.131   8.601
48479SOL     OW47333  11.238  14.621   0.620
48479SOL    HW147334  11.305  14.558   0.645
48479SOL    HW247335  11.156  14.580   0.647
48480SOL     OW47336   6.206   5.820   1.448
48480SOL    HW147337   6.236   5.799   1.536
48480SOL    HW247338   6.112   5.838   1.458
48481SOL     OW47339   1.809  10.787   8.312
48481SOL    HW147340   1.893  10.742   8.303
48481SOL    HW247341   1.746  10.731   8.266
48482SOL     OW47342   8.312  11.918   6.986
48482SOL    HW147343   8.282  11.992   6.934
48482SOL    HW247344   8.248  11.849   6.969
48483SOL     OW47345  12.537   0.496  13.491
48483SOL    HW147346  12.597   0.571  13.499
48483SOL    HW247347  12.489   0.512  13.410
48484SOL     OW47348   8.469  14.083   5.638
48484SOL    HW147349   8.509  14.008   5.593
48484SOL    HW247350   8.515  14.088   5.722
48485SOL     OW47351   8.007   0.665  11.568
48485SOL    HW147352   7.950   0.660  11.491
48485SOL    HW247353   7.958   0.619  11.636
48486SOL     OW47354  13.979  12.260   5.036
48486SOL    HW147355  13.934  12.217   5.109
48486SOL    HW247356  13.975  12.354   5.057
48487SOL     OW47357  10.733  14.418  10.816
48487SOL    HW147358  10.710  14.455  10.731
48487SOL    HW247359  10.795  14.481  10.854
48488SOL     OW47360  10.165   9.511  14.826
48488SOL    HW147361  10.103   9.532   0.027
48488SOL    HW247362  10.138   9.425  14.795
48489SOL     OW47363   6.783   8.955   0.009
48489SOL    HW147364   6.801   8.947  14.785
48489SOL    HW247365   6.691   8.983   0.013
48490SOL     OW47366   5.872   4.171   3.780
48490SOL    HW147367   5.837   4.184   3.869
48490SOL    HW247368   5.885   4.259   3.746
48491SOL     OW47369   5.208  12.384   2.035
48491SOL    HW147370   5.227  12.454   2.097
48491SOL    HW247371   5.119  12.355   2.057
48492SOL     OW47372   5.855   2.181   6.875
48492SOL    HW147373   5.946   2.211   6.869
48492SOL    HW247374   5.833   2.190   6.968
48493SOL     OW47375  11.877   3.985   2.326
48493SOL    HW147376  11.863   3.976   2.231
48493SOL    HW247377  11.800   3.943   2.365
48494SOL     OW47378  10.186  13.031   2.978
48494SOL    HW147379  10.121  13.040   2.909
48494SOL    HW247380  10.183  12.939   3.004
48495SOL     OW47381   8.657   0.790  13.654
48495SOL    HW147382   8.694   0.875  13.680
48495SOL    HW247383   8.719   0.756  13.590
48496SOL     OW47384   5.976   1.229  10.404
48496SOL    HW147385   5.901   1.178  10.435
48496SOL    HW247386   6.052   1.183  10.438
48497SOL     OW47387   1.711   4.837   5.193
48497SOL    HW147388   1.772   4.805   5.260
48497SOL    HW247389   1.760   4.831   5.111
48498SOL     OW47390  11.010   0.474   6.576
48498SOL    HW147391  11.001   0.395   6.629
48498SOL    HW247392  10.975   0.450   6.491
48499SOL     OW47393   1.132  10.638   5.707
48499SOL    HW147394   1.199  10.699   5.737
48499SOL    HW247395   1.158  10.615   5.618
48500SOL     OW47396   9.988   9.697   6.227
48500SOL    HW147397   9.924   9.651   6.172
48500SOL    HW247398  10.014   9.633   6.293
48501SOL     OW47399  11.656   7.218  12.457
48501SOL    HW147400  11.677   7.144  12.399
48501SOL    HW247401  11.740   7.262  12.469
48502SOL     OW47402   1.199   3.651  12.359
48502SOL    HW147403   1.154   3.572  12.330
48502SOL    HW247404   1.133   3.721  12.350
48503SOL     OW47405   8.529   0.684   1.363
48503SOL    HW147406   8.533   0.669   1.457
48503SOL    HW247407   8.443   0.722   1.348
48504SOL     OW47408   2.211   7.283   1.400
48504SOL    HW147409   2.286   7.323   1.443
48504SOL    HW247410   2.175   7.352   1.344
48505SOL     OW47411  13.964  13.547  10.391
48505SOL    HW147412  13.926  13.508  10.470
48505SOL    HW247413  13.922  13.633  10.385
48506SOL     OW47414   5.057   2.319   7.554
48506SOL    HW147415   5.021   2.232   7.571
48506SOL    HW247416   5.075   2.319   7.460
48507SOL     OW47417   0.427  13.283  14.800
48507SOL    HW147418   0.412  13.350  14.866
48507SOL    HW247419   0.364  13.214  14.821
48508SOL     OW47420   9.257  11.721   8.463
48508SOL    HW147421   9.326  11.656   8.450
48508SOL    HW247422   9.289  11.798   8.416
48509SOL     OW47423  10.933  14.766   5.506
48509SOL    HW147424  10.867  14.730   5.447
48509SOL    HW247425  10.941  14.701   5.576
48510SOL     OW47426   4.663   4.435  13.294
48510SOL    HW147427   4.748   4.449  13.336
48510SOL    HW247428   4.599   4.448  13.365
48511SOL     OW47429   3.138   3.919   3.655
48511SOL    HW147430   3.112   3.837   3.697
48511SOL    HW247431   3.102   3.987   3.711
48512SOL     OW47432   9.814   7.798  10.843
48512SOL    HW147433   9.826   7.852  10.922
48512SOL    HW247434   9.790   7.861  10.775
48513SOL     OW47435  13.013  12.499   9.297
48513SOL    HW147436  12.996  12.493   9.203
48513SOL    HW247437  12.986  12.588   9.320
48514SOL     OW47438   0.605   4.894  11.615
48514SOL    HW147439   0.699   4.914  11.610
48514SOL    HW247440   0.563   4.979  11.626
48515SOL     OW47441   6.405  11.337   0.587
48515SOL    HW147442   6.472  11.338   0.655
48515SOL    HW247443   6.448  11.296   0.512
48516SOL     OW47444   6.567  11.313  14.064
48516SOL    HW147445   6.605  11.247  14.123
48516SOL    HW247446   6.626  11.315  13.989
48517SOL     OW47447  11.385   6.013   1.616
48517SOL    HW147448  11.345   5.952   1.554
48517SOL    HW247449  11.474   5.980   1.628
48518SOL     OW47450  10.696   0.461  13.652
48518SOL    HW147451  10.787   0.433  13.662
48518SOL    HW247452  10.673   0.498  13.737
48519SOL     OW47453  14.265   4.159   5.645
48519SOL    HW147454  14.196   4.224   5.657
48519SOL    HW247455  14.223   4.090   5.593
48520SOL     OW47456  14.199   7.723  10.020
48520SOL    HW147457  14.150   7.749  10.097
48520SOL    HW247458  14.133   7.692   9.959
48521SOL     OW47459  13.375  10.400   9.561
48521SOL    HW147460  13.297  10.425   9.610
48521SOL    HW247461  13.448  10.440   9.609
48522SOL     OW47462   4.096   5.681  10.094
48522SOL    HW147463   4.046   5.757  10.067
48522SOL    HW247464   4.122   5.639  10.012
48523SOL     OW47465   0.075  11.234   4.376
48523SOL    HW147466   0.125  11.179   4.436
48523SOL    HW247467   0.139  11.295   4.341
48524SOL     OW47468   1.351  13.152  13.597
48524SOL    HW147469   1.273  13.147  13.542
48524SOL    HW247470   1.340  13.083  13.662
48525SOL     OW47471  10.936  10.159   0.283
48525SOL    HW147472  10.858  10.129   0.330
48525SOL    HW247473  10.925  10.125   0.194
48526SOL     OW47474   0.872  13.608  12.419
48526SOL    HW147475   0.909  13.694  12.396
48526SOL    HW247476   0.893  13.597  12.512
48527SOL     OW47477   1.778   0.580   3.388
48527SOL    HW147478   1.868   0.548   3.386
48527SOL    HW247479   1.745   0.566   3.299
48528SOL     OW47480  14.771   1.217   6.233
48528SOL    HW147481  14.678   1.226   6.254
48528SOL    HW247482  14.797   1.135   6.275
48529SOL     OW47483   1.333  11.935  13.852
48529SOL    HW147484   1.394  11.977  13.912
48529SOL    HW247485   1.266  12.001  13.834
48530SOL     OW47486  14.417  10.700   6.029
48530SOL    HW147487  14.473  10.641   6.079
48530SOL    HW247488  14.408  10.777   6.084
48531SOL     OW47489   5.389   7.311   3.889
48531SOL    HW147490   5.340   7.322   3.970
48531SOL    HW247491   5.452   7.241   3.909
48532SOL     OW47492   0.561   5.034   6.106
48532SOL    HW147493   0.532   5.101   6.045
48532SOL    HW247494   0.485   4.977   6.118
48533SOL     OW47495   5.477   0.333   1.589
48533SOL    HW147496   5.471   0.325   1.684
48533SOL    HW247497   5.566   0.305   1.568
48534SOL     OW47498   3.362  11.033   4.607
48534SOL    HW147499   3.370  11.013   4.700
48534SOL    HW247500   3.452  11.043   4.577
48535SOL     OW47501   5.343  11.784   8.351
48535SOL    HW147502   5.430  11.792   8.389
48535SOL    HW247503   5.283  11.783   8.426
48536SOL     OW47504  10.236   0.751  14.127
48536SOL    HW147505  10.255   0.666  14.165
48536SOL    HW247506  10.156   0.780  14.172
48537SOL     OW47507   7.000  11.400   7.172
48537SOL    HW147508   7.020  11.490   7.195
48537SOL    HW247509   6.905  11.394   7.175
48538SOL     OW47510   1.105   6.577   2.073
48538SOL    HW147511   1.074   6.492   2.104
48538SOL    HW247512   1.153   6.614   2.147
48539SOL     OW47513  11.155   5.944   4.522
48539SOL    HW147514  11.112   5.885   4.460
48539SOL    HW247515  11.096   6.018   4.530
48540SOL     OW47516   8.337   4.190   4.795
48540SOL    HW147517   8.347   4.097   4.773
48540SOL    HW247518   8.426   4.224   4.797
48541SOL     OW47519  13.316   1.320   4.222
48541SOL    HW147520  13.261   1.252   4.262
48541SOL    HW247521  13.253   1.386   4.193
48542SOL     OW47522   8.951  11.070  12.035
48542SOL    HW147523   8.902  11.006  11.984
48542SOL    HW247524   9.038  11.070  11.995
48543SOL     OW47525  12.344   6.345  12.759
48543SOL    HW147526  12.292   6.355  12.680
48543SOL    HW247527  12.416   6.407  12.748
48544SOL     OW47528   4.191   5.086   6.682
48544SOL    HW147529   4.227   4.997   6.685
48544SOL    HW247530   4.245   5.135   6.744
48545SOL     OW47531   0.499  12.275   2.175
48545SOL    HW147532   0.460  12.341   2.119
48545SOL    HW247533   0.563  12.323   2.228
48546SOL     OW47534   3.753   7.552   0.986
48546SOL    HW147535   3.761   7.480   1.048
48546SOL    HW247536   3.660   7.573   0.986
48547SOL     OW47537   4.735   9.346  13.094
48547SOL    HW147538   4.676   9.417  13.117
48547SOL    HW247539   4.682   9.288  13.038
48548SOL     OW47540   8.418   4.967  14.083
48548SOL    HW147541   8.513   4.974  14.076
48548SOL    HW247542   8.403   4.896  14.146
48549SOL     OW47543  14.767   4.387  11.780
48549SOL    HW147544  14.827   4.328  11.734
48549SOL    HW247545  14.682   4.371  11.741
48550SOL     OW47546   4.732  11.552   3.510
48550SOL    HW147547   4.650  11.601   3.510
48550SOL    HW247548   4.757  11.547   3.602
48551SOL     OW47549  14.580  11.382   2.773
48551SOL    HW147550  14.532  11.464   2.787
48551SOL    HW247551  14.559  11.329   2.850
48552SOL     OW47552   8.947   9.942   8.422
48552SOL    HW147553   8.971   9.939   8.515
48552SOL    HW247554   8.855   9.914   8.420
48553SOL     OW47555   5.240  11.023  14.017
48553SOL    HW147556   5.272  11.031  14.107
48553SOL    HW247557   5.147  11.005  14.026
48554SOL     OW47558   2.616   4.977  11.570
48554SOL    HW147559   2.527   4.946  11.591
48554SOL    HW247560   2.618   5.066  11.604
48555SOL     OW47561   7.457   7.358   1.250
48555SOL    HW147562   7.426   7.394   1.167
48555SOL    HW247563   7.551   7.377   1.249
48556SOL     OW47564   4.700  11.258  14.280
48556SOL    HW147565   4.635  11.241  14.212
48556SOL    HW247566   4.668  11.211  14.357
48557SOL     OW47567   6.451   5.735  10.013
48557SOL    HW147568   6.360   5.751  10.037
48557SOL    HW247569   6.446   5.693   9.927
48558SOL     OW47570  11.520   2.554   2.385
48558SOL    HW147571  11.496   2.639   2.347
48558SOL    HW247572  11.570   2.575   2.464
48559SOL     OW47573   8.826  10.188   1.608
48559SOL    HW147574   8.857  10.258   1.665
48559SOL    HW247575   8.867  10.108   1.643
48560SOL     OW47576   8.864   9.378   8.746
48560SOL    HW147577   8.906   9.441   8.687
48560SOL    HW247578   8.931   9.360   8.812
48561SOL     OW47579   6.375  14.680   7.282
48561SOL    HW147580   6.463  14.653   7.309
48561SOL    HW247581   6.319  14.656   7.356
48562SOL     OW47582   1.529  10.519   7.717
48562SOL    HW147583   1.568  10.596   7.759
48562SOL    HW247584   1.436  10.540   7.709
48563SOL     OW47585   0.760   5.138   6.442
48563SOL    HW147586   0.676   5.141   6.489
48563SOL    HW247587   0.754   5.209   6.378
48564SOL     OW47588   0.380  13.104   7.038
48564SOL    HW147589   0.358  13.174   7.100
48564SOL    HW247590   0.447  13.143   6.982
48565SOL     OW47591   3.177   3.337   1.213
48565SOL    HW147592   3.102   3.362   1.266
48565SOL    HW247593   3.183   3.405   1.146
48566SOL     OW47594   4.622   5.614   5.535
48566SOL    HW147595   4.653   5.543   5.479
48566SOL    HW247596   4.701   5.665   5.556
48567SOL     OW47597   3.805   7.835   8.461
48567SOL    HW147598   3.863   7.856   8.387
48567SOL    HW247599   3.753   7.914   8.475
48568SOL     OW47600   6.592  12.017  14.278
48568SOL    HW147601   6.602  11.988  14.369
48568SOL    HW247602   6.498  12.029  14.267
48569SOL     OW47603   9.944   3.777  10.583
48569SOL    HW147604   9.971   3.761  10.673
48569SOL    HW247605  10.023   3.812  10.541
48570SOL     OW47606   1.227  14.472   4.995
48570SOL    HW147607   1.212  14.438   4.907
48570SOL    HW247608   1.147  14.520   5.017
48571SOL     OW47609  11.144   8.153  10.191
48571SOL    HW147610  11.156   8.180  10.100
48571SOL    HW247611  11.051   8.133  10.198
48572SOL     OW47612   4.829   5.441   3.306
48572SOL    HW147613   4.888   5.384   3.257
48572SOL    HW247614   4.743   5.400   3.296
48573SOL     OW47615   1.192   6.976  14.295
48573SOL    HW147616   1.200   7.037  14.222
48573SOL    HW247617   1.263   6.999  14.354
48574SOL     OW47618   1.748   9.016  11.158
48574SOL    HW147619   1.772   8.962  11.233
48574SOL    HW247620   1.726   9.101  11.195
48575SOL     OW47621  11.408   2.010   4.166
48575SOL    HW147622  11.339   1.954   4.131
48575SOL    HW247623  11.489   1.966   4.140
48576SOL     OW47624  12.364   1.726   5.504
48576SOL    HW147625  12.416   1.807   5.503
48576SOL    HW247626  12.347   1.710   5.597
48577SOL     OW47627   3.166   1.587   6.901
48577SOL    HW147628   3.091   1.529   6.883
48577SOL    HW247629   3.229   1.566   6.832
48578SOL     OW47630   4.736   1.693   8.439
48578SOL    HW147631   4.831   1.704   8.433
48578SOL    HW247632   4.703   1.780   8.464
48579SOL     OW47633   1.603   3.367  10.535
48579SOL    HW147634   1.523   3.378  10.586
48579SOL    HW247635   1.657   3.442  10.558
48580SOL     OW47636   7.689   4.682   9.437
48580SOL    HW147637   7.770   4.700   9.485
48580SOL    HW247638   7.637   4.762   9.446
48581SOL     OW47639   6.236   8.560   9.893
48581SOL    HW147640   6.327   8.583   9.913
48581SOL    HW247641   6.243   8.485   9.833
48582SOL     OW47642  10.307   8.274   4.057
48582SOL    HW147643  10.349   8.223   4.126
48582SOL    HW247644  10.329   8.228   3.976
48583SOL     OW47645   5.065   1.522   1.626
48583SOL    HW147646   5.131   1.497   1.689
48583SOL    HW247647   5.035   1.439   1.588
48584SOL     OW47648   9.677   3.696   5.593
48584SOL    HW147649   9.587   3.680   5.565
48584SOL    HW247650   9.730   3.676   5.516
48585SOL     OW47651   1.710   4.901   8.710
48585SOL    HW147652   1.647   4.840   8.672
48585SOL    HW247653   1.795   4.861   8.694
48586SOL     OW47654   5.546   3.032  13.796
48586SOL    HW147655   5.603   3.109  13.783
48586SOL    HW247656   5.461   3.070  13.818
48587SOL     OW47657   1.761  13.040   6.423
48587SOL    HW147658   1.693  13.031   6.490
48587SOL    HW247659   1.717  13.082   6.349
48588SOL     OW47660   6.870  14.434  12.267
48588SOL    HW147661   6.927  14.387  12.328
48588SOL    HW247662   6.929  14.491  12.217
48589SOL     OW47663   2.866   2.843   4.612
48589SOL    HW147664   2.899   2.925   4.648
48589SOL    HW247665   2.945   2.792   4.594
48590SOL     OW47666   0.190   5.474   6.005
48590SOL    HW147667   0.173   5.555   6.053
48590SOL    HW247668   0.216   5.411   6.072
48591SOL     OW47669  12.193   7.485  10.019
48591SOL    HW147670  12.259   7.527  10.075
48591SOL    HW247671  12.197   7.534   9.937
48592SOL     OW47672  11.737  14.213   1.922
48592SOL    HW147673  11.769  14.136   1.970
48592SOL    HW247674  11.795  14.219   1.846
48593SOL     OW47675   9.475   7.839  10.773
48593SOL    HW147676   9.428   7.831  10.690
48593SOL    HW247677   9.555   7.888  10.750
48594SOL     OW47678   3.642   8.632   5.745
48594SOL    HW147679   3.717   8.671   5.788
48594SOL    HW247680   3.577   8.621   5.815
48595SOL     OW47681  12.839   2.952   4.129
48595SOL    HW147682  12.852   2.862   4.161
48595SOL    HW247683  12.810   3.001   4.206
48596SOL     OW47684  11.115   0.278  12.427
48596SOL    HW147685  11.055   0.251  12.497
48596SOL    HW247686  11.197   0.298  12.473
48597SOL     OW47687   5.559   5.447   9.911
48597SOL    HW147688   5.578   5.505   9.985
48597SOL    HW247689   5.490   5.389   9.943
48598SOL     OW47690  11.084  11.560  11.581
48598SOL    HW147691  11.072  11.562  11.486
48598SOL    HW247692  10.995  11.553  11.616
48599SOL     OW47693   8.591   8.253  10.859
48599SOL    HW147694   8.620   8.341  10.836
48599SOL    HW247695   8.661   8.196  10.826
48600SOL     OW47696   2.322   9.603   0.573
48600SOL    HW147697   2.294   9.687   0.610
48600SOL    HW247698   2.410   9.619   0.541
48601SOL     OW47699   4.855   0.386  13.619
48601SOL    HW147700   4.775   0.438  13.611
48601SOL    HW247701   4.835   0.323  13.688
48602SOL     OW47702   0.581  10.598   1.132
48602SOL    HW147703   0.630  10.621   1.053
48602SOL    HW247704   0.604  10.668   1.194
48603SOL     OW47705   8.195   0.386   1.465
48603SOL    HW147706   8.189   0.482   1.465
48603SOL    HW247707   8.279   0.367   1.423
48604SOL     OW47708   7.034  10.509  12.198
48604SOL    HW147709   7.101  10.492  12.265
48604SOL    HW247710   7.083  10.512  12.116
48605SOL     OW47711   6.494  14.749   0.465
48605SOL    HW147712   6.467  14.826   0.416
48605SOL    HW247713   6.492  14.678   0.401
48606SOL     OW47714   5.852   2.994   0.200
48606SOL    HW147715   5.776   2.986   0.258
48606SOL    HW247716   5.824   3.055   0.132
48607SOL     OW47717   9.456  11.184  11.589
48607SOL    HW147718   9.423  11.199  11.501
48607SOL    HW247719   9.379  11.191  11.645
48608SOL     OW47720  13.460  10.333   3.029
48608SOL    HW147721  13.520  10.364   2.961
48608SOL    HW247722  13.389  10.291   2.980
48609SOL     OW47723  13.550  10.203   2.747
48609SOL    HW147724  13.606  10.125   2.736
48609SOL    HW247725  13.608  10.277   2.733
48610SOL     OW47726   1.326   5.110  10.463
48610SOL    HW147727   1.351   5.118  10.555
48610SOL    HW247728   1.280   5.026  10.459
48611SOL     OW47729  13.575  14.271  12.632
48611SOL    HW147730  13.533  14.204  12.578
48611SOL    HW247731  13.663  14.281  12.595
48612SOL     OW47732  12.417  11.578  13.120
48612SOL    HW147733  12.348  11.597  13.184
48612SOL    HW247734  12.474  11.515  13.164
48613SOL     OW47735   2.679   8.705  13.511
48613SOL    HW147736   2.623   8.682  13.586
48613SOL    HW247737   2.625   8.765  13.459
48614SOL     OW47738  10.773   7.189  11.416
48614SOL    HW147739  10.695   7.221  11.462
48614SOL    HW247740  10.742   7.113  11.366
48615SOL     OW47741   6.323   4.211   8.824
48615SOL    HW147742   6.272   4.185   8.901
48615SOL    HW247743   6.279   4.290   8.792
48616SOL     OW47744  10.789   8.037   4.357
48616SOL    HW147745  10.809   7.963   4.414
48616SOL    HW247746  10.712   8.078   4.396
48617SOL     OW47747  14.504   7.308   8.519
48617SOL    HW147748  14.411   7.290   8.504
48617SOL    HW247749  14.536   7.233   8.569
48618SOL     OW47750   6.361   5.081   4.185
48618SOL    HW147751   6.396   5.111   4.268
48618SOL    HW247752   6.266   5.081   4.197
48619SOL     OW47753   5.054  11.843  13.054
48619SOL    HW147754   5.118  11.799  13.110
48619SOL    HW247755   4.970  11.805  13.079
48620SOL     OW47756   1.228  13.870   5.134
48620SOL    HW147757   1.291  13.857   5.205
48620SOL    HW247758   1.278  13.911   5.064
48621SOL     OW47759   8.753   6.470   7.777
48621SOL    HW147760   8.826   6.423   7.736
48621SOL    HW247761   8.783   6.490   7.865
48622SOL     OW47762   4.885   8.588  14.490
48622SOL    HW147763   4.864   8.672  14.448
48622SOL    HW247764   4.939   8.612  14.565
48623SOL     OW47765   3.329   7.178  10.110
48623SOL    HW147766   3.388   7.109  10.141
48623SOL    HW247767   3.386   7.238  10.061
48624SOL     OW47768   5.470  10.240   1.290
48624SOL    HW147769   5.443  10.159   1.248
48624SOL    HW247770   5.447  10.309   1.228
48625SOL     OW47771  10.454   2.015  14.177
48625SOL    HW147772  10.415   2.101  14.160
48625SOL    HW247773  10.451   2.007  14.273
48626SOL     OW47774   8.589   5.434   1.585
48626SOL    HW147775   8.674   5.409   1.620
48626SOL    HW247776   8.530   5.430   1.660
48627SOL     OW47777   3.708  14.139   3.920
48627SOL    HW147778   3.667  14.177   3.998
48627SOL    HW247779   3.802  14.153   3.933
48628SOL     OW47780   2.729   8.359  11.840
48628SOL    HW147781   2.674   8.433  11.865
48628SOL    HW247782   2.700   8.335  11.753
48629SOL     OW47783  11.184   7.475   7.029
48629SOL    HW147784  11.154   7.566   7.021
48629SOL    HW247785  11.137   7.429   6.959
48630SOL     OW47786  12.447   3.573  14.470
48630SOL    HW147787  12.462   3.480  14.456
48630SOL    HW247788  12.529   3.615  14.443
48631SOL     OW47789  13.668  13.223   9.275
48631SOL    HW147790  13.723  13.181   9.341
48631SOL    HW247791  13.727  13.285   9.231
48632SOL     OW47792  11.081   9.298   6.836
48632SOL    HW147793  11.110   9.207   6.840
48632SOL    HW247794  11.114   9.337   6.917
48633SOL     OW47795  11.665  12.572   3.399
48633SOL    HW147796  11.723  12.646   3.412
48633SOL    HW247797  11.620  12.591   3.317
48634SOL     OW47798  14.752  10.586   2.241
48634SOL    HW147799  14.746  10.681   2.235
48634SOL    HW247800  14.795  10.560   2.159
48635SOL     OW47801   9.999   5.552   0.373
48635SOL    HW147802  10.052   5.477   0.345
48635SOL    HW247803  10.060   5.625   0.374
48636SOL     OW47804  14.798   6.365   1.678
48636SOL    HW147805  14.864   6.435   1.672
48636SOL    HW247806  14.749   6.371   1.597
48637SOL     OW47807   7.866   3.350   0.657
48637SOL    HW147808   7.858   3.445   0.665
48637SOL    HW247809   7.935   3.338   0.592
48638SOL     OW47810   4.008  10.178   1.535
48638SOL    HW147811   4.012  10.189   1.440
48638SOL    HW247812   3.989  10.265   1.569
48639SOL     OW47813   5.637  13.781   7.925
48639SOL    HW147814   5.712  13.838   7.940
48639SOL    HW247815   5.608  13.802   7.836
48640SOL     OW47816   4.745   7.497  13.872
48640SOL    HW147817   4.664   7.541  13.846
48640SOL    HW247818   4.757   7.428  13.807
48641SOL     OW47819   0.896  13.653   7.782
48641SOL    HW147820   0.848  13.735   7.772
48641SOL    HW247821   0.845  13.603   7.845
48642SOL     OW47822  13.078   8.166   6.371
48642SOL    HW147823  12.989   8.182   6.402
48642SOL    HW247824  13.116   8.108   6.437
48643SOL     OW47825   5.915   1.556   3.249
48643SOL    HW147826   5.884   1.487   3.191
48643SOL    HW247827   5.866   1.634   3.222
48644SOL     OW47828   3.772  13.513  13.113
48644SOL    HW147829   3.759  13.523  13.208
48644SOL    HW247830   3.767  13.419  13.097
48645SOL     OW47831   2.742  14.838   8.673
48645SOL    HW147832   2.729   0.059   8.642
48645SOL    HW247833   2.819  14.843   8.730
48646SOL     OW47834   1.746  13.516  13.088
48646SOL    HW147835   1.781  13.604  13.071
48646SOL    HW247836   1.651  13.526  13.082
48647SOL     OW47837   1.856   4.164   2.871
48647SOL    HW147838   1.803   4.154   2.791
48647SOL    HW247839   1.821   4.242   2.913
48648SOL     OW47840  10.220  12.382   5.566
48648SOL    HW147841  10.145  12.323   5.551
48648SOL    HW247842  10.276  12.370   5.490
48649SOL     OW47843  10.418  11.306  13.994
48649SOL    HW147844  10.359  11.342  13.929
48649SOL    HW247845  10.430  11.376  14.058
48650SOL     OW47846   3.542   0.853   9.510
48650SOL    HW147847   3.485   0.776   9.504
48650SOL    HW247848   3.508   0.913   9.445
48651SOL     OW47849   4.015   5.388  11.423
48651SOL    HW147850   4.076   5.462  11.426
48651SOL    HW247851   4.047   5.335  11.351
48652SOL     OW47852  11.530   3.817   7.791
48652SOL    HW147853  11.548   3.869   7.869
48652SOL    HW247854  11.440   3.838   7.767
48653SOL     OW47855   4.184   4.245   5.718
48653SOL    HW147856   4.189   4.152   5.695
48653SOL    HW247857   4.225   4.250   5.805
48654SOL     OW47858  14.783   8.431  14.253
48654SOL    HW147859  14.710   8.406  14.196
48654SOL    HW247860  14.786   8.527  14.246
48655SOL     OW47861   8.346   7.770   5.758
48655SOL    HW147862   8.357   7.791   5.665
48655SOL    HW247863   8.341   7.674   5.760
48656SOL     OW47864  14.765   6.481  14.397
48656SOL    HW147865  14.712   6.533  14.336
48656SOL    HW247866  14.840   6.452  14.345
48657SOL     OW47867   0.660  14.301  11.132
48657SOL    HW147868   0.654  14.264  11.044
48657SOL    HW247869   0.725  14.371  11.125
48658SOL     OW47870   2.314   3.136   1.501
48658SOL    HW147871   2.252   3.079   1.455
48658SOL    HW247872   2.315   3.217   1.451
48659SOL     OW47873   5.087   1.929   6.395
48659SOL    HW147874   5.151   1.977   6.448
48659SOL    HW247875   5.038   1.876   6.458
48660SOL     OW47876   5.763   2.213   7.339
48660SOL    HW147877   5.801   2.300   7.328
48660SOL    HW247878   5.828   2.153   7.304
48661SOL     OW47879   5.571   8.866   6.545
48661SOL    HW147880   5.556   8.950   6.589
48661SOL    HW247881   5.603   8.889   6.458
48662SOL     OW47882   5.128   8.258  13.779
48662SOL    HW147883   5.219   8.261  13.750
48662SOL    HW247884   5.096   8.173  13.749
48663SOL     OW47885   3.263   2.109   8.386
48663SOL    HW147886   3.311   2.191   8.402
48663SOL    HW247887   3.210   2.096   8.465
48664SOL     OW47888   3.484  11.887   7.233
48664SOL    HW147889   3.504  11.863   7.324
48664SOL    HW247890   3.461  11.980   7.237
48665SOL     OW47891   6.135   7.510   3.440
48665SOL    HW147892   6.226   7.532   3.419
48665SOL    HW247893   6.113   7.567   3.514
48666SOL     OW47894   6.638   7.767   3.771
48666SOL    HW147895   6.724   7.725   3.767
48666SOL    HW247896   6.578   7.701   3.735
48667SOL     OW47897   1.150   8.333   2.035
48667SOL    HW147898   1.078   8.329   1.972
48667SOL    HW247899   1.107   8.338   2.120
48668SOL     OW47900   0.198   4.850   6.427
48668SOL    HW147901   0.287   4.861   6.393
48668SOL    HW247902   0.157   4.787   6.369
48669SOL     OW47903   1.726   1.686   6.895
48669SOL    HW147904   1.741   1.724   6.982
48669SOL    HW247905   1.777   1.605   6.896
48670SOL     OW47906   9.298   5.436   4.290
48670SOL    HW147907   9.208   5.465   4.303
48670SOL    HW247908   9.316   5.454   4.198
48671SOL     OW47909   2.978   9.630   0.895
48671SOL    HW147910   2.991   9.565   0.963
48671SOL    HW247911   3.047   9.611   0.830
48672SOL     OW47912  14.150   6.229   0.325
48672SOL    HW147913  14.219   6.190   0.272
48672SOL    HW247914  14.128   6.310   0.278
48673SOL     OW47915   5.380   8.233   4.582
48673SOL    HW147916   5.472   8.217   4.605
48673SOL    HW247917   5.372   8.203   4.492
48674SOL     OW47918  11.133   0.824   5.825
48674SOL    HW147919  11.215   0.802   5.870
48674SOL    HW247920  11.129   0.762   5.752
48675SOL     OW47921   2.012   3.604   1.810
48675SOL    HW147922   1.948   3.626   1.742
48675SOL    HW247923   2.093   3.646   1.781
48676SOL     OW47924   3.693   4.375   6.160
48676SOL    HW147925   3.728   4.287   6.146
48676SOL    HW247926   3.599   4.365   6.148
48677SOL     OW47927   7.022   1.040   9.191
48677SOL    HW147928   7.083   1.043   9.117
48677SOL    HW247929   7.074   1.071   9.266
48678SOL     OW47930   4.369  12.212   6.745
48678SOL    HW147931   4.382  12.242   6.655
48678SOL    HW247932   4.433  12.141   6.756
48679SOL     OW47933   1.924  12.832   2.519
48679SOL    HW147934   1.970  12.806   2.599
48679SOL    HW247935   1.839  12.863   2.550
48680SOL     OW47936  11.544   0.568   0.235
48680SOL    HW147937  11.615   0.526   0.187
48680SOL    HW247938  11.505   0.629   0.173
48681SOL     OW47939   2.630   7.797  12.633
48681SOL    HW147940   2.632   7.704  12.658
48681SOL    HW247941   2.676   7.841  12.704
48682SOL     OW47942   1.206   3.775   0.253
48682SOL    HW147943   1.260   3.801   0.328
48682SOL    HW247944   1.197   3.855   0.201
48683SOL     OW47945   8.662   4.368   6.966
48683SOL    HW147946   8.704   4.422   7.032
48683SOL    HW247947   8.608   4.428   6.915
48684SOL     OW47948   6.617  14.272   0.855
48684SOL    HW147949   6.628  14.279   0.950
48684SOL    HW247950   6.697  14.231   0.824
48685SOL     OW47951   0.699  10.254  11.747
48685SOL    HW147952   0.684  10.168  11.709
48685SOL    HW247953   0.794  10.259  11.760
48686SOL     OW47954   5.693  12.987   9.472
48686SOL    HW147955   5.733  12.912   9.517
48686SOL    HW247956   5.751  13.004   9.398
48687SOL     OW47957  13.544  14.253  14.171
48687SOL    HW147958  13.548  14.258  14.266
48687SOL    HW247959  13.566  14.162  14.150
48688SOL     OW47960   5.978   8.093   7.303
48688SOL    HW147961   6.063   8.103   7.260
48688SOL    HW247962   5.972   8.169   7.361
48689SOL     OW47963   9.578   5.287   1.059
48689SOL    HW147964   9.566   5.229   1.135
48689SOL    HW247965   9.607   5.228   0.989
48690SOL     OW47966   4.091   0.063   5.663
48690SOL    HW147967   4.044   0.037   5.742
48690SOL    HW247968   4.137   0.143   5.688
48691SOL     OW47969   6.730   8.955   1.369
48691SOL    HW147970   6.735   9.026   1.433
48691SOL    HW247971   6.765   8.879   1.415
48692SOL     OW47972   6.067  12.955  14.835
48692SOL    HW147973   6.114  12.873  14.853
48692SOL    HW247974   6.112  12.992  14.759
48693SOL     OW47975   6.499   4.376   6.772
48693SOL    HW147976   6.518   4.468   6.751
48693SOL    HW247977   6.574   4.348   6.824
48694SOL     OW47978  10.772   7.024   9.761
48694SOL    HW147979  10.755   6.973   9.682
48694SOL    HW247980  10.773   6.960   9.832
48695SOL     OW47981   8.737   1.761   1.544
48695SOL    HW147982   8.811   1.819   1.525
48695SOL    HW247983   8.759   1.720   1.628
48696SOL     OW47984   6.236  14.345   2.320
48696SOL    HW147985   6.228  14.438   2.338
48696SOL    HW247986   6.186  14.302   2.390
48697SOL     OW47987   7.734  14.677  13.595
48697SOL    HW147988   7.772  14.605  13.545
48697SOL    HW247989   7.642  14.652  13.606
48698SOL     OW47990  13.140   0.028   0.567
48698SOL    HW147991  13.162  14.820   0.515
48698SOL    HW247992  13.104  14.862   0.648
48699SOL     OW47993   2.240   9.580   2.028
48699SOL    HW147994   2.304   9.525   1.983
48699SOL    HW247995   2.223   9.536   2.111
48700SOL     OW47996  12.857   3.687   9.173
48700SOL    HW147997  12.873   3.667   9.081
48700SOL    HW247998  12.944   3.689   9.213
48701SOL     OW47999  12.736  13.726   3.104
48701SOL    HW148000  12.831  13.726   3.100
48701SOL    HW248001  12.708  13.692   3.019
48702SOL     OW48002   9.963  11.660   8.226
48702SOL    HW148003   9.944  11.742   8.272
48702SOL    HW248004   9.884  11.642   8.175
48703SOL     OW48005   7.758   2.331   7.369
48703SOL    HW148006   7.767   2.418   7.410
48703SOL    HW248007   7.830   2.326   7.306
48704SOL     OW48008   9.754   1.707  13.388
48704SOL    HW148009   9.707   1.708  13.471
48704SOL    HW248010   9.834   1.657  13.407
48705SOL     OW48011   0.056  14.321   0.950
48705SOL    HW148012   0.052  14.276   1.034
48705SOL    HW248013  14.837  14.312   0.914
48706SOL     OW48014   1.959  12.735   5.444
48706SOL    HW148015   1.935  12.819   5.404
48706SOL    HW248016   2.054  12.733   5.440
48707SOL     OW48017   6.559  11.182   8.702
48707SOL    HW148018   6.490  11.163   8.639
48707SOL    HW248019   6.535  11.134   8.781
48708SOL     OW48020  12.629  12.530   2.409
48708SOL    HW148021  12.705  12.528   2.350
48708SOL    HW248022  12.617  12.623   2.430
48709SOL     OW48023   0.002   7.948  14.247
48709SOL    HW148024  14.777   7.960  14.245
48709SOL    HW248025   0.023   7.900  14.167
48710SOL     OW48026   0.462   9.215  10.374
48710SOL    HW148027   0.414   9.218  10.292
48710SOL    HW248028   0.492   9.305  10.388
48711SOL     OW48029  11.777   7.417   7.425
48711SOL    HW148030  11.704   7.363   7.455
48711SOL    HW248031  11.848   7.398   7.486
48712SOL     OW48032   2.289   8.987  12.403
48712SOL    HW148033   2.339   8.912  12.370
48712SOL    HW248034   2.220   9.001  12.338
48713SOL     OW48035   7.123   9.756  11.353
48713SOL    HW148036   7.123   9.800  11.268
48713SOL    HW248037   7.098   9.824  11.415
48714SOL     OW48038  14.577   5.881  12.092
48714SOL    HW148039  14.639   5.826  12.138
48714SOL    HW248040  14.618   5.968  12.090
48715SOL     OW48041   1.140   8.935   0.565
48715SOL    HW148042   1.110   8.918   0.655
48715SOL    HW248043   1.065   8.914   0.510
48716SOL     OW48044  13.517   5.461   7.343
48716SOL    HW148045  13.571   5.514   7.402
48716SOL    HW248046  13.516   5.510   7.261
48717SOL     OW48047   5.393   8.818   6.864
48717SOL    HW148048   5.342   8.738   6.873
48717SOL    HW248049   5.438   8.827   6.948
48718SOL     OW48050   7.330  11.493   7.246
48718SOL    HW148051   7.408  11.488   7.301
48718SOL    HW248052   7.295  11.581   7.262
48719SOL     OW48053  13.912  12.508   2.047
48719SOL    HW148054  13.878  12.579   1.993
48719SOL    HW248055  13.923  12.547   2.134
48720SOL     OW48056   3.403   6.401   4.502
48720SOL    HW148057   3.496   6.391   4.522
48720SOL    HW248058   3.380   6.324   4.451
48721SOL     OW48059   0.998   2.233  13.724
48721SOL    HW148060   1.065   2.215  13.790
48721SOL    HW248061   0.998   2.328  13.714
48722SOL     OW48062  11.390   1.714  10.089
48722SOL    HW148063  11.458   1.755  10.143
48722SOL    HW248064  11.308   1.734  10.134
48723SOL     OW48065   4.075   3.027  12.998
48723SOL    HW148066   4.048   3.118  12.987
48723SOL    HW248067   3.993   2.978  12.997
48724SOL     OW48068   0.608   7.796  10.475
48724SOL    HW148069   0.540   7.859  10.449
48724SOL    HW248070   0.594   7.721  10.417
48725SOL     OW48071   6.026   9.263   0.865
48725SOL    HW148072   6.009   9.322   0.791
48725SOL    HW248073   5.976   9.300   0.938
48726SOL     OW48074   0.145   9.456   4.524
48726SOL    HW148075   0.099   9.522   4.576
48726SOL    HW248076   0.132   9.374   4.571
48727SOL     OW48077  10.520  13.049  13.519
48727SOL    HW148078  10.542  13.093  13.437
48727SOL    HW248079  10.434  13.083  13.543
48728SOL     OW48080   4.337   1.440   8.081
48728SOL    HW148081   4.389   1.405   8.153
48728SOL    HW248082   4.255   1.391   8.084
48729SOL     OW48083   6.897   4.354   2.395
48729SOL    HW148084   6.927   4.276   2.349
48729SOL    HW248085   6.887   4.421   2.327
48730SOL     OW48086   8.246  11.047  13.372
48730SOL    HW148087   8.278  11.035  13.461
48730SOL    HW248088   8.274  10.968  13.325
48731SOL     OW48089   7.673   7.299   4.183
48731SOL    HW148090   7.738   7.247   4.231
48731SOL    HW248091   7.704   7.389   4.191
48732SOL     OW48092   5.839   6.721   2.574
48732SOL    HW148093   5.767   6.672   2.534
48732SOL    HW248094   5.834   6.699   2.667
48733SOL     OW48095   9.039  11.467   9.921
48733SOL    HW148096   9.033  11.430  10.009
48733SOL    HW248097   8.962  11.433   9.875
48734SOL     OW48098  11.923   4.704   7.979
48734SOL    HW148099  11.856   4.644   7.948
48734SOL    HW248100  11.962   4.659   8.054
48735SOL     OW48101  12.104  11.234   4.490
48735SOL    HW148102  12.073  11.324   4.487
48735SOL    HW248103  12.199  11.241   4.493
48736SOL     OW48104   8.730   1.873   5.354
48736SOL    HW148105   8.709   1.788   5.315
48736SOL    HW248106   8.826   1.872   5.362
48737SOL     OW48107  11.536  12.141   7.870
48737SOL    HW148108  11.498  12.057   7.896
48737SOL    HW248109  11.489  12.206   7.923
48738SOL     OW48110   4.560  13.455   0.934
48738SOL    HW148111   4.543  13.422   0.846
48738SOL    HW248112   4.587  13.379   0.985
48739SOL     OW48113   7.027  10.965  14.061
48739SOL    HW148114   7.003  11.050  14.098
48739SOL    HW248115   7.056  10.984  13.972
48740SOL     OW48116   7.392   7.966   8.911
48740SOL    HW148117   7.363   7.934   8.996
48740SOL    HW248118   7.363   7.900   8.848
48741SOL     OW48119   3.480  13.718   0.455
48741SOL    HW148120   3.481  13.787   0.389
48741SOL    HW248121   3.494  13.637   0.405
48742SOL     OW48122   7.825   6.154   0.804
48742SOL    HW148123   7.825   6.241   0.845
48742SOL    HW248124   7.917   6.141   0.778
48743SOL     OW48125  12.652   7.176   6.200
48743SOL    HW148126  12.729   7.121   6.215
48743SOL    HW248127  12.626   7.158   6.109
48744SOL     OW48128   1.562  13.197   3.949
48744SOL    HW148129   1.609  13.196   3.865
48744SOL    HW248130   1.543  13.104   3.966
48745SOL     OW48131   4.075   4.084  12.347
48745SOL    HW148132   4.046   4.123  12.264
48745SOL    HW248133   4.063   4.153  12.412
48746SOL     OW48134   1.907   5.715   8.637
48746SOL    HW148135   1.903   5.654   8.710
48746SOL    HW248136   1.978   5.775   8.659
48747SOL     OW48137   3.703   3.321   2.088
48747SOL    HW148138   3.645   3.247   2.107
48747SOL    HW248139   3.706   3.370   2.170
48748SOL     OW48140   8.364   3.547  10.424
48748SOL    HW148141   8.315   3.623  10.393
48748SOL    HW248142   8.298   3.478  10.431
48749SOL     OW48143  10.749   1.646   7.505
48749SOL    HW148144  10.840   1.672   7.493
48749SOL    HW248145  10.701   1.694   7.437
48750SOL     OW48146   9.557   0.184  14.122
48750SOL    HW148147   9.473   0.203  14.080
48750SOL    HW248148   9.616   0.162  14.049
48751SOL     OW48149   8.053  10.319   9.770
48751SOL    HW148150   8.067  10.317   9.864
48751SOL    HW248151   7.967  10.360   9.759
48752SOL     OW48152   9.537   4.375   0.096
48752SOL    HW148153   9.493   4.340   0.019
48752SOL    HW248154   9.604   4.310   0.117
48753SOL     OW48155   5.064  12.518   3.739
48753SOL    HW148156   5.134  12.576   3.769
48753SOL    HW248157   4.988  12.541   3.794
48754SOL     OW48158   0.645  10.689  13.646
48754SOL    HW148159   0.573  10.627  13.640
48754SOL    HW248160   0.678  10.680  13.735
48755SOL     OW48161  14.675  10.504   7.790
48755SOL    HW148162  14.614  10.453   7.737
48755SOL    HW248163  14.756  10.504   7.739
48756SOL     OW48164   1.688  10.932   3.007
48756SOL    HW148165   1.660  10.928   3.099
48756SOL    HW248166   1.662  11.019   2.978
48757SOL     OW48167  11.124   4.669   3.859
48757SOL    HW148168  11.070   4.674   3.780
48757SOL    HW248169  11.188   4.739   3.848
48758SOL     OW48170   1.542   9.251   8.651
48758SOL    HW148171   1.593   9.192   8.707
48758SOL    HW248172   1.527   9.328   8.704
48759SOL     OW48173   5.401   9.590   8.080
48759SOL    HW148174   5.432   9.586   8.170
48759SOL    HW248175   5.345   9.512   8.071
48760SOL     OW48176  13.325   0.509   6.881
48760SOL    HW148177  13.396   0.448   6.901
48760SOL    HW248178  13.364   0.596   6.890
48761SOL     OW48179  14.752   4.155   2.061
48761SOL    HW148180  14.690   4.139   2.132
48761SOL    HW248181  14.822   4.092   2.075
48762SOL     OW48182   6.806   9.581   4.338
48762SOL    HW148183   6.777   9.651   4.397
48762SOL    HW248184   6.725   9.543   4.304
48763SOL     OW48185  14.301   3.536   5.299
48763SOL    HW148186  14.271   3.485   5.374
48763SOL    HW248187  14.384   3.574   5.328
48764SOL     OW48188  13.053   3.216   2.964
48764SOL    HW148189  12.958   3.224   2.951
48764SOL    HW248190  13.080   3.151   2.899
48765SOL     OW48191  10.065  11.254   0.264
48765SOL    HW148192  10.038  11.232   0.175
48765SOL    HW248193  10.155  11.286   0.254
48766SOL     OW48194   2.546   4.348  14.177
48766SOL    HW148195   2.586   4.416  14.231
48766SOL    HW248196   2.494   4.396  14.112
48767SOL     OW48197   4.796   3.362  13.963
48767SOL    HW148198   4.773   3.434  13.905
48767SOL    HW248199   4.714   3.312  13.972
48768SOL     OW48200  12.537   7.301   0.091
48768SOL    HW148201  12.602   7.342   0.035
48768SOL    HW248202  12.477   7.258   0.031
48769SOL     OW48203   3.930   4.532   1.248
48769SOL    HW148204   3.868   4.513   1.178
48769SOL    HW248205   3.926   4.627   1.259
48770SOL     OW48206   7.870   1.888  10.032
48770SOL    HW148207   7.943   1.949  10.040
48770SOL    HW248208   7.804   1.921  10.093
48771SOL     OW48209   1.216  13.242   3.469
48771SOL    HW148210   1.127  13.278   3.463
48771SOL    HW248211   1.273  13.319   3.470
48772SOL     OW48212   1.106  14.714   5.614
48772SOL    HW148213   1.085  14.694   5.705
48772SOL    HW248214   1.021  14.721   5.570
48773SOL     OW48215   5.007   4.642   0.314
48773SOL    HW148216   5.089   4.593   0.325
48773SOL    HW248217   4.989   4.635   0.220
48774SOL     OW48218   1.489  13.854   2.245
48774SOL    HW148219   1.481  13.806   2.328
48774SOL    HW248220   1.496  13.785   2.179
48775SOL     OW48221  11.572  14.815  11.622
48775SOL    HW148222  11.556  14.858  11.538
48775SOL    HW248223  11.631   0.006  11.668
48776SOL     OW48224   2.575  13.898  13.467
48776SOL    HW148225   2.479  13.904  13.460
48776SOL    HW248226   2.593  13.804  13.463
48777SOL     OW48227   5.795  13.363   7.510
48777SOL    HW148228   5.755  13.432   7.562
48777SOL    HW248229   5.818  13.405   7.427
48778SOL     OW48230   8.106  11.988   5.928
48778SOL    HW148231   8.053  12.002   6.006
48778SOL    HW248232   8.138  11.898   5.936
48779SOL     OW48233   4.422  11.191   9.755
48779SOL    HW148234   4.434  11.267   9.812
48779SOL    HW248235   4.435  11.225   9.666
48780SOL     OW48236  13.056  10.532   2.412
48780SOL    HW148237  13.130  10.555   2.355
48780SOL    HW248238  13.091  10.465   2.470
48781SOL     OW48239   9.536   8.941   0.745
48781SOL    HW148240   9.611   8.934   0.686
48781SOL    HW248241   9.466   8.977   0.690
48782SOL     OW48242   6.183  11.243   1.010
48782SOL    HW148243   6.095  11.224   1.044
48782SOL    HW248244   6.240  11.186   1.061
48783SOL     OW48245   1.826   1.326   1.146
48783SOL    HW148246   1.760   1.305   1.212
48783SOL    HW248247   1.910   1.321   1.192
48784SOL     OW48248   3.273   0.618   2.447
48784SOL    HW148249   3.247   0.527   2.433
48784SOL    HW248250   3.263   0.633   2.541
48785SOL     OW48251  12.326  12.586   1.938
48785SOL    HW148252  12.305  12.513   1.880
48785SOL    HW248253  12.417  12.570   1.964
48786SOL     OW48254   9.720   6.560  11.924
48786SOL    HW148255   9.672   6.641  11.907
48786SOL    HW248256   9.812   6.583  11.908
48787SOL     OW48257  14.828   0.273   4.875
48787SOL    HW148258  14.869   0.299   4.793
48787SOL    HW248259  14.743   0.319   4.875
48788SOL     OW48260   0.474   8.678   1.963
48788SOL    HW148261   0.482   8.766   2.002
48788SOL    HW248262   0.556   8.666   1.915
48789SOL     OW48263   5.372   8.109  11.948
48789SOL    HW148264   5.343   8.056  11.874
48789SOL    HW248265   5.295   8.115  12.005
48790SOL     OW48266   6.941  14.307   0.176
48790SOL    HW148267   6.928  14.276   0.087
48790SOL    HW248268   6.859  14.351   0.199
48791SOL     OW48269   0.098   4.402   6.096
48791SOL    HW148270   0.190   4.377   6.083
48791SOL    HW248271   0.058   4.390   6.010
48792SOL     OW48272  11.247  10.490  10.292
48792SOL    HW148273  11.182  10.498  10.222
48792SOL    HW248274  11.239  10.572  10.341
48793SOL     OW48275   8.173   2.949   4.754
48793SOL    HW148276   8.192   3.033   4.712
48793SOL    HW248277   8.230   2.947   4.831
48794SOL     OW48278  11.130   3.077   7.419
48794SOL    HW148279  11.225   3.079   7.420
48794SOL    HW248280  11.107   2.984   7.422
48795SOL     OW48281   8.020   4.662   3.956
48795SOL    HW148282   8.059   4.653   4.043
48795SOL    HW248283   7.951   4.727   3.967
48796SOL     OW48284  11.746   8.665   7.276
48796SOL    HW148285  11.767   8.697   7.188
48796SOL    HW248286  11.652   8.681   7.286
48797SOL     OW48287   2.798  10.970   0.476
48797SOL    HW148288   2.806  10.875   0.473
48797SOL    HW248289   2.724  10.986   0.535
48798SOL     OW48290   0.005   5.185   9.224
48798SOL    HW148291   0.008   5.238   9.304
48798SOL    HW248292  14.850   5.247   9.156
48799SOL     OW48293   2.792   5.137   8.978
48799SOL    HW148294   2.706   5.117   9.015
48799SOL    HW248295   2.825   5.210   9.030
48800SOL     OW48296   2.697   6.400  10.957
48800SOL    HW148297   2.639   6.392  10.881
48800SOL    HW248298   2.782   6.425  10.919
48801SOL     OW48299  12.663  11.638   3.819
48801SOL    HW148300  12.678  11.731   3.839
48801SOL    HW248301  12.743  11.610   3.775
48802SOL     OW48302  13.707   6.980   6.736
48802SOL    HW148303  13.710   7.051   6.800
48802SOL    HW248304  13.618   6.985   6.699
48803SOL     OW48305   4.253  14.212  12.178
48803SOL    HW148306   4.207  14.133  12.150
48803SOL    HW248307   4.333  14.180  12.221
48804SOL     OW48308  13.515  14.049  12.473
48804SOL    HW148309  13.462  14.022  12.398
48804SOL    HW248310  13.460  14.031  12.549
48805SOL     OW48311   0.612   3.102  12.746
48805SOL    HW148312   0.561   3.144  12.815
48805SOL    HW248313   0.573   3.015  12.736
48806SOL     OW48314   3.271   6.085   1.183
48806SOL    HW148315   3.248   6.056   1.095
48806SOL    HW248316   3.194   6.064   1.236
48807SOL     OW48317   4.501  14.396   5.516
48807SOL    HW148318   4.556  14.410   5.439
48807SOL    HW248319   4.415  14.429   5.490
48808SOL     OW48320  10.278   3.514   0.292
48808SOL    HW148321  10.192   3.514   0.334
48808SOL    HW248322  10.259   3.531   0.200
48809SOL     OW48323   1.472   9.543   6.588
48809SOL    HW148324   1.450   9.452   6.569
48809SOL    HW248325   1.539   9.566   6.524
48810SOL     OW48326  11.142   5.555  11.388
48810SOL    HW148327  11.146   5.650  11.401
48810SOL    HW248328  11.234   5.528  11.380
48811SOL     OW48329  14.565   8.850   6.628
48811SOL    HW148330  14.517   8.920   6.585
48811SOL    HW248331  14.510   8.773   6.616
48812SOL     OW48332   7.105   3.397   8.263
48812SOL    HW148333   7.196   3.426   8.256
48812SOL    HW248334   7.101   3.352   8.348
48813SOL     OW48335   2.279  12.465  14.216
48813SOL    HW148336   2.327  12.541  14.249
48813SOL    HW248337   2.206  12.502  14.167
48814SOL     OW48338   5.315  10.380   5.484
48814SOL    HW148339   5.389  10.379   5.424
48814SOL    HW248340   5.313  10.292   5.522
48815SOL     OW48341  14.383  11.232  11.023
48815SOL    HW148342  14.294  11.225  10.988
48815SOL    HW248343  14.401  11.146  11.061
48816SOL     OW48344   4.575   6.997   1.951
48816SOL    HW148345   4.572   6.979   2.045
48816SOL    HW248346   4.573   6.911   1.910
48817SOL     OW48347  10.611  13.800   2.195
48817SOL    HW148348  10.687  13.809   2.138
48817SOL    HW248349  10.553  13.870   2.169
48818SOL     OW48350  12.075  11.373   0.768
48818SOL    HW148351  12.001  11.383   0.827
48818SOL    HW248352  12.109  11.462   0.757
48819SOL     OW48353   2.134   0.277   4.730
48819SOL    HW148354   2.196   0.305   4.663
48819SOL    HW248355   2.050   0.269   4.683
48820SOL     OW48356   9.702  10.327  10.342
48820SOL    HW148357   9.676  10.237  10.321
48820SOL    HW248358   9.629  10.361  10.394
48821SOL     OW48359   4.776   4.002  14.307
48821SOL    HW148360   4.793   4.089  14.269
48821SOL    HW248361   4.822   4.003  14.391
48822SOL     OW48362   3.798  12.304   7.837
48822SOL    HW148363   3.827  12.344   7.918
48822SOL    HW248364   3.773  12.377   7.781
48823SOL     OW48365  13.871  13.488   7.516
48823SOL    HW148366  13.799  13.524   7.465
48823SOL    HW248367  13.862  13.394   7.507
48824SOL     OW48368   7.982  10.912   9.975
48824SOL    HW148369   7.949  10.883   9.890
48824SOL    HW248370   7.965  10.838  10.034
48825SOL     OW48371  11.668   3.966   8.033
48825SOL    HW148372  11.697   4.057   8.027
48825SOL    HW248373  11.749   3.915   8.034
48826SOL     OW48374   0.610  12.250  13.483
48826SOL    HW148375   0.699  12.275  13.509
48826SOL    HW248376   0.572  12.332  13.451
48827SOL     OW48377  11.466   9.860  14.751
48827SOL    HW148378  11.500   9.855  14.840
48827SOL    HW248379  11.543   9.858  14.695
48828SOL     OW48380   7.853   7.012   2.011
48828SOL    HW148381   7.917   6.976   1.949
48828SOL    HW248382   7.876   7.105   2.018
48829SOL     OW48383   7.945   0.856   8.068
48829SOL    HW148384   7.926   0.924   8.003
48829SOL    HW248385   8.020   0.808   8.032
48830SOL     OW48386   0.489   3.167  13.859
48830SOL    HW148387   0.566   3.166  13.916
48830SOL    HW248388   0.479   3.076  13.832
48831SOL     OW48389   2.679   3.342   4.577
48831SOL    HW148390   2.774   3.332   4.570
48831SOL    HW248391   2.647   3.338   4.487
48832SOL     OW48392   4.400   2.238  14.428
48832SOL    HW148393   4.435   2.195  14.350
48832SOL    HW248394   4.431   2.185  14.501
48833SOL     OW48395   7.800   1.595  12.271
48833SOL    HW148396   7.760   1.640  12.345
48833SOL    HW248397   7.890   1.578  12.298
48834SOL     OW48398   6.110   0.835   6.539
48834SOL    HW148399   6.041   0.901   6.531
48834SOL    HW248400   6.143   0.824   6.449
48835SOL     OW48401  10.427  11.651  10.755
48835SOL    HW148402  10.513  11.656  10.714
48835SOL    HW248403  10.431  11.574  10.811
48836SOL     OW48404   1.537  13.241   9.852
48836SOL    HW148405   1.547  13.268   9.943
48836SOL    HW248406   1.626  13.218   9.823
48837SOL     OW48407   1.471  13.197   9.522
48837SOL    HW148408   1.479  13.242   9.606
48837SOL    HW248409   1.377  13.201   9.502
48838SOL     OW48410  12.181  10.652  12.255
48838SOL    HW148411  12.117  10.620  12.319
48838SOL    HW248412  12.127  10.685  12.183
48839SOL     OW48413  11.195  13.561   7.222
48839SOL    HW148414  11.271  13.506   7.239
48839SOL    HW248415  11.158  13.526   7.141
48840SOL     OW48416   6.847   2.332   3.666
48840SOL    HW148417   6.928   2.351   3.619
48840SOL    HW248418   6.872   2.336   3.759
48841SOL     OW48419   1.807  13.217   2.535
48841SOL    HW148420   1.773  13.164   2.607
48841SOL    HW248421   1.756  13.297   2.538
48842SOL     OW48422   7.014   0.534  11.617
48842SOL    HW148423   7.030   0.628  11.630
48842SOL    HW248424   6.977   0.528  11.529
48843SOL     OW48425   7.354   5.615  11.315
48843SOL    HW148426   7.281   5.618  11.254
48843SOL    HW248427   7.429   5.588  11.262
48844SOL     OW48428   1.862   4.087  10.798
48844SOL    HW148429   1.778   4.040  10.793
48844SOL    HW248430   1.927   4.017  10.810
48845SOL     OW48431  11.935   1.195   2.650
48845SOL    HW148432  11.938   1.187   2.554
48845SOL    HW248433  12.000   1.131   2.681
48846SOL     OW48434   4.260  11.177   8.661
48846SOL    HW148435   4.255  11.117   8.736
48846SOL    HW248436   4.222  11.258   8.693
48847SOL     OW48437  11.691   8.189   4.729
48847SOL    HW148438  11.662   8.188   4.638
48847SOL    HW248439  11.760   8.256   4.732
48848SOL     OW48440   7.907   0.267   1.888
48848SOL    HW148441   7.937   0.214   1.814
48848SOL    HW248442   7.983   0.320   1.912
48849SOL     OW48443   2.519   2.008  11.281
48849SOL    HW148444   2.430   1.976  11.294
48849SOL    HW248445   2.563   1.996  11.365
48850SOL     OW48446   7.175   7.175   1.362
48850SOL    HW148447   7.198   7.240   1.295
48850SOL    HW248448   7.126   7.225   1.427
48851SOL     OW48449   7.648  10.970   0.861
48851SOL    HW148450   7.675  11.058   0.837
48851SOL    HW248451   7.679  10.915   0.789
48852SOL     OW48452   1.686   8.835   5.982
48852SOL    HW148453   1.717   8.784   6.056
48852SOL    HW248454   1.705   8.780   5.905
48853SOL     OW48455   3.547   0.899   1.526
48853SOL    HW148456   3.543   0.920   1.433
48853SOL    HW248457   3.634   0.929   1.553
48854SOL     OW48458   9.769  10.492   6.384
48854SOL    HW148459   9.823  10.417   6.360
48854SOL    HW248460   9.811  10.527   6.463
48855SOL     OW48461   6.172   1.693   8.636
48855SOL    HW148462   6.245   1.743   8.673
48855SOL    HW248463   6.213   1.626   8.581
48856SOL     OW48464   3.350   0.844   2.952
48856SOL    HW148465   3.430   0.894   2.936
48856SOL    HW248466   3.299   0.898   3.012
48857SOL     OW48467   6.748  13.175  11.926
48857SOL    HW148468   6.738  13.086  11.893
48857SOL    HW248469   6.716  13.231  11.855
48858SOL     OW48470  11.203   4.923   4.082
48858SOL    HW148471  11.136   4.938   4.016
48858SOL    HW248472  11.164   4.856   4.139
48859SOL     OW48473   9.161   4.629   3.308
48859SOL    HW148474   9.101   4.691   3.266
48859SOL    HW248475   9.157   4.651   3.401
48860SOL     OW48476   5.416  14.553   1.877
48860SOL    HW148477   5.510  14.558   1.897
48860SOL    HW248478   5.373  14.571   1.961
48861SOL     OW48479  13.887   6.612  10.122
48861SOL    HW148480  13.868   6.520  10.140
48861SOL    HW248481  13.983   6.616  10.115
48862SOL     OW48482   3.869  10.251   6.447
48862SOL    HW148483   3.964  10.257   6.451
48862SOL    HW248484   3.845  10.194   6.520
48863SOL     OW48485   1.007   3.442  11.762
48863SOL    HW148486   1.040   3.363  11.804
48863SOL    HW248487   0.949   3.410  11.693
48864SOL     OW48488   5.459   8.856   3.933
48864SOL    HW148489   5.544   8.899   3.943
48864SOL    HW248490   5.395   8.925   3.953
48865SOL     OW48491  12.994   2.496   1.177
48865SOL    HW148492  13.078   2.453   1.189
48865SOL    HW248493  13.015   2.590   1.175
48866SOL     OW48494  12.217   0.107  10.140
48866SOL    HW148495  12.298   0.066  10.171
48866SOL    HW248496  12.190   0.165  10.212
48867SOL     OW48497   4.467   5.524   7.478
48867SOL    HW148498   4.509   5.578   7.411
48867SOL    HW248499   4.529   5.523   7.551
48868SOL     OW48500   7.597  14.281   8.851
48868SOL    HW148501   7.680  14.304   8.809
48868SOL    HW248502   7.542  14.248   8.779
48869SOL     OW48503  13.531   2.933   7.095
48869SOL    HW148504  13.607   2.925   7.153
48869SOL    HW248505  13.486   3.012   7.126
48870SOL     OW48506   6.776   8.977   2.228
48870SOL    HW148507   6.863   9.004   2.197
48870SOL    HW248508   6.732   9.060   2.249
48871SOL     OW48509   0.947   6.068  13.163
48871SOL    HW148510   0.875   6.015  13.130
48871SOL    HW248511   0.945   6.147  13.110
48872SOL     OW48512   5.878   0.778   9.520
48872SOL    HW148513   5.848   0.749   9.606
48872SOL    HW248514   5.930   0.856   9.538
48873SOL     OW48515   0.053   9.685   0.594
48873SOL    HW148516   0.048   9.591   0.610
48873SOL    HW248517   0.048   9.725   0.681
48874SOL     OW48518   9.584   0.188   1.754
48874SOL    HW148519   9.540   0.104   1.743
48874SOL    HW248520   9.657   0.185   1.692
48875SOL     OW48521   1.338   3.516  12.110
48875SOL    HW148522   1.415   3.537  12.162
48875SOL    HW248523   1.271   3.578  12.139
48876SOL     OW48524  12.141  12.338  13.571
48876SOL    HW148525  12.092  12.420  13.573
48876SOL    HW248526  12.196  12.341  13.649
48877SOL     OW48527  14.759   3.364  12.241
48877SOL    HW148528  14.721   3.336  12.324
48877SOL    HW248529  14.794   3.451  12.259
48878SOL     OW48530  10.387   6.188   4.173
48878SOL    HW148531  10.425   6.108   4.210
48878SOL    HW248532  10.323   6.216   4.237
48879SOL     OW48533   7.082   7.823   1.108
48879SOL    HW148534   7.146   7.830   1.037
48879SOL    HW248535   7.070   7.914   1.138
48880SOL     OW48536   3.926   9.208  12.594
48880SOL    HW148537   3.875   9.289  12.585
48880SOL    HW248538   4.016   9.234  12.577
48881SOL     OW48539  13.895   2.835   5.564
48881SOL    HW148540  13.844   2.875   5.635
48881SOL    HW248541  13.982   2.821   5.601
48882SOL     OW48542   2.899   6.835   4.073
48882SOL    HW148543   2.868   6.748   4.096
48882SOL    HW248544   2.980   6.846   4.122
48883SOL     OW48545  13.085   2.711   3.580
48883SOL    HW148546  13.173   2.710   3.542
48883SOL    HW248547  13.100   2.722   3.674
48884SOL     OW48548  12.040   1.425   2.805
48884SOL    HW148549  12.086   1.478   2.740
48884SOL    HW248550  11.995   1.358   2.754
48885SOL     OW48551   2.412  12.477   0.285
48885SOL    HW148552   2.465  12.557   0.286
48885SOL    HW248553   2.325  12.506   0.313
48886SOL     OW48554   5.224  11.365   8.451
48886SOL    HW148555   5.270  11.424   8.510
48886SOL    HW248556   5.214  11.415   8.370
48887SOL     OW48557  11.619   0.571   7.514
48887SOL    HW148558  11.543   0.514   7.525
48887SOL    HW248559  11.643   0.595   7.604
48888SOL     OW48560   9.601  13.114   8.981
48888SOL    HW148561   9.619  13.203   8.953
48888SOL    HW248562   9.684  13.083   9.019
48889SOL     OW48563   0.014   5.057  12.282
48889SOL    HW148564  14.789   5.066  12.294
48889SOL    HW248565   0.030   4.963  12.286
48890SOL     OW48566  11.416  10.935  11.220
48890SOL    HW148567  11.469  10.919  11.298
48890SOL    HW248568  11.336  10.884  11.234
48891SOL     OW48569  10.415   5.348  11.375
48891SOL    HW148570  10.355   5.282  11.339
48891SOL    HW248571  10.494   5.299  11.397
48892SOL     OW48572   7.612  12.013   7.247
48892SOL    HW148573   7.548  12.044   7.183
48892SOL    HW248574   7.618  12.084   7.311
48893SOL     OW48575  10.699   7.265   1.769
48893SOL    HW148576  10.737   7.280   1.855
48893SOL    HW248577  10.760   7.307   1.708
48894SOL     OW48578   3.737  10.364   5.021
48894SOL    HW148579   3.727  10.275   5.057
48894SOL    HW248580   3.820  10.361   4.973
48895SOL     OW48581   8.656  13.691  14.410
48895SOL    HW148582   8.693  13.674  14.323
48895SOL    HW248583   8.631  13.784  14.407
48896SOL     OW48584  11.610   3.094   8.922
48896SOL    HW148585  11.593   3.026   8.987
48896SOL    HW248586  11.676   3.150   8.962
48897SOL     OW48587   6.512   3.436  13.843
48897SOL    HW148588   6.591   3.412  13.795
48897SOL    HW248589   6.505   3.531  13.832
48898SOL     OW48590   4.570   0.105   2.139
48898SOL    HW148591   4.481   0.091   2.106
48898SOL    HW248592   4.572   0.198   2.163
48899SOL     OW48593  10.739   4.143   6.786
48899SOL    HW148594  10.774   4.079   6.724
48899SOL    HW248595  10.658   4.103   6.819
48900SOL     OW48596   5.887   4.980   2.413
48900SOL    HW148597   5.794   4.973   2.432
48900SOL    HW248598   5.891   5.021   2.327
48901SOL     OW48599  12.408   3.650  14.716
48901SOL    HW148600  12.411   3.618  14.626
48901SOL    HW248601  12.389   3.573  14.769
48902SOL     OW48602   1.922   8.488   0.921
48902SOL    HW148603   2.006   8.463   0.883
48902SOL    HW248604   1.937   8.489   1.015
48903SOL     OW48605   9.269   8.684  14.786
48903SOL    HW148606   9.195   8.680  14.726
48903SOL    HW248607   9.282   8.593  14.815
48904SOL     OW48608  12.224  11.339   2.189
48904SOL    HW148609  12.173  11.259   2.180
48904SOL    HW248610  12.257  11.337   2.279
48905SOL     OW48611  13.800   3.895   8.411
48905SOL    HW148612  13.805   3.823   8.474
48905SOL    HW248613  13.867   3.957   8.439
48906SOL     OW48614   0.982  14.727  12.714
48906SOL    HW148615   0.936  14.786  12.774
48906SOL    HW248616   1.049  14.685  12.768
48907SOL     OW48617   3.797   5.192  11.093
48907SOL    HW148618   3.866   5.171  11.030
48907SOL    HW248619   3.758   5.272  11.058
48908SOL     OW48620  10.130   6.846   6.544
48908SOL    HW148621  10.055   6.796   6.578
48908SOL    HW248622  10.204   6.816   6.597
48909SOL     OW48623  11.993   5.609   9.066
48909SOL    HW148624  12.089   5.612   9.065
48909SOL    HW248625  11.967   5.697   9.093
48910SOL     OW48626   5.419   7.722   6.099
48910SOL    HW148627   5.395   7.654   6.163
48910SOL    HW248628   5.360   7.707   6.025
48911SOL     OW48629   1.661   8.442  11.950
48911SOL    HW148630   1.657   8.458  12.044
48911SOL    HW248631   1.687   8.350  11.942
48912SOL     OW48632   1.577   2.748   7.912
48912SOL    HW148633   1.642   2.817   7.904
48912SOL    HW248634   1.517   2.763   7.838
48913SOL     OW48635  13.026   0.205   8.781
48913SOL    HW148636  13.012   0.222   8.688
48913SOL    HW248637  13.074   0.282   8.812
48914SOL     OW48638  12.861  12.140   8.212
48914SOL    HW148639  12.949  12.153   8.250
48914SOL    HW248640  12.801  12.164   8.283
48915SOL     OW48641  13.004   4.576  10.457
48915SOL    HW148642  12.941   4.554  10.388
48915SOL    HW248643  13.083   4.526  10.436
48916SOL     OW48644   1.839   0.138   5.035
48916SOL    HW148645   1.910   0.192   5.070
48916SOL    HW248646   1.883   0.064   4.995
48917SOL     OW48647  10.112   1.458  11.276
48917SOL    HW148648  10.032   1.510  11.281
48917SOL    HW248649  10.128   1.448  11.182
48918SOL     OW48650   8.227  10.748  13.709
48918SOL    HW148651   8.315  10.742  13.670
48918SOL    HW248652   8.235  10.818  13.774
48919SOL     OW48653  13.164  13.510  13.132
48919SOL    HW148654  13.245  13.521  13.182
48919SOL    HW248655  13.151  13.594  13.088
48920SOL     OW48656  13.023   8.741  11.448
48920SOL    HW148657  13.044   8.834  11.449
48920SOL    HW248658  13.106   8.698  11.426
48921SOL     OW48659   4.063  12.631   1.159
48921SOL    HW148660   3.968  12.625   1.154
48921SOL    HW248661   4.094  12.541   1.143
48922SOL     OW48662   0.732   3.670   9.903
48922SOL    HW148663   0.753   3.717   9.984
48922SOL    HW248664   0.659   3.612   9.927
48923SOL     OW48665   7.457  11.914   7.779
48923SOL    HW148666   7.473  11.835   7.729
48923SOL    HW248667   7.418  11.975   7.717
48924SOL     OW48668   9.794   6.585   9.192
48924SOL    HW148669   9.718   6.559   9.244
48924SOL    HW248670   9.759   6.600   9.104
48925SOL     OW48671   3.298   7.832   0.526
48925SOL    HW148672   3.274   7.838   0.433
48925SOL    HW248673   3.300   7.923   0.556
48926SOL     OW48674   9.028   6.512  12.019
48926SOL    HW148675   9.033   6.571  11.944
48926SOL    HW248676   9.021   6.425  11.980
48927SOL     OW48677   2.088   3.908  11.842
48927SOL    HW148678   2.034   3.859  11.904
48927SOL    HW248679   2.031   3.978  11.811
48928SOL     OW48680   7.013   3.566   9.962
48928SOL    HW148681   6.924   3.532   9.975
48928SOL    HW248682   7.003   3.661   9.962
48929SOL     OW48683   9.825   8.581   2.806
48929SOL    HW148684   9.851   8.600   2.896
48929SOL    HW248685   9.864   8.495   2.788
48930SOL     OW48686   2.000  10.032   7.895
48930SOL    HW148687   1.979  10.125   7.884
48930SOL    HW248688   2.054  10.011   7.818
48931SOL     OW48689   9.027   7.706  12.654
48931SOL    HW148690   9.004   7.649  12.727
48931SOL    HW248691   8.947   7.757  12.638
48932SOL     OW48692   1.935  11.280  11.176
48932SOL    HW148693   2.025  11.248  11.174
48932SOL    HW248694   1.942  11.372  11.201
48933SOL     OW48695   6.492  11.802  11.806
48933SOL    HW148696   6.413  11.801  11.751
48933SOL    HW248697   6.522  11.712  11.805
48934SOL     OW48698  13.331   8.652  13.302
48934SOL    HW148699  13.383   8.591  13.354
48934SOL    HW248700  13.321   8.729  13.359
48935SOL     OW48701   7.865  13.683  11.829
48935SOL    HW148702   7.770  13.672  11.836
48935SOL    HW248703   7.896  13.598  11.797
48936SOL     OW48704   8.458   9.259   6.386
48936SOL    HW148705   8.401   9.334   6.369
48936SOL    HW248706   8.399   9.186   6.398
48937SOL     OW48707   6.279   1.485   3.930
48937SOL    HW148708   6.204   1.443   3.971
48937SOL    HW248709   6.261   1.579   3.938
48938SOL     OW48710   0.737  13.563   3.967
48938SOL    HW148711   0.675  13.564   3.894
48938SOL    HW248712   0.768  13.472   3.971
48939SOL     OW48713   4.738  11.706  14.339
48939SOL    HW148714   4.808  11.770  14.348
48939SOL    HW248715   4.705  11.718  14.250
48940SOL     OW48716   9.455   7.519  10.731
48940SOL    HW148717   9.390   7.583  10.760
48940SOL    HW248718   9.534   7.540  10.780
48941SOL     OW48719   0.365   0.947   7.581
48941SOL    HW148720   0.356   1.008   7.509
48941SOL    HW248721   0.311   0.871   7.555
48942SOL     OW48722   3.103   5.239   4.294
48942SOL    HW148723   3.145   5.162   4.254
48942SOL    HW248724   3.096   5.216   4.387
48943SOL     OW48725   0.844   6.161   7.478
48943SOL    HW148726   0.749   6.147   7.470
48943SOL    HW248727   0.861   6.157   7.572
48944SOL     OW48728   0.127   0.700   6.231
48944SOL    HW148729   0.222   0.702   6.219
48944SOL    HW248730   0.093   0.685   6.143
48945SOL     OW48731   3.382   4.971   1.465
48945SOL    HW148732   3.371   4.907   1.535
48945SOL    HW248733   3.309   5.031   1.476
48946SOL     OW48734  10.892   0.857   9.889
48946SOL    HW148735  10.945   0.846   9.810
48946SOL    HW248736  10.809   0.815   9.868
48947SOL     OW48737   6.642   3.372   8.687
48947SOL    HW148738   6.573   3.369   8.754
48947SOL    HW248739   6.601   3.415   8.612
48948SOL     OW48740  11.728   8.679   8.493
48948SOL    HW148741  11.727   8.585   8.513
48948SOL    HW248742  11.641   8.710   8.518
48949SOL     OW48743  11.801   5.803   8.579
48949SOL    HW148744  11.785   5.891   8.546
48949SOL    HW248745  11.740   5.748   8.530
48950SOL     OW48746  12.467   8.496  11.658
48950SOL    HW148747  12.489   8.571  11.602
48950SOL    HW248748  12.383   8.465  11.624
48951SOL     OW48749   5.706   0.881   1.432
48951SOL    HW148750   5.762   0.888   1.355
48951SOL    HW248751   5.741   0.807   1.481
48952SOL     OW48752  13.851   1.625   3.475
48952SOL    HW148753  13.909   1.552   3.493
48952SOL    HW248754  13.907   1.702   3.477
48953SOL     OW48755  13.325  14.712  12.730
48953SOL    HW148756  13.234  14.736  12.715
48953SOL    HW248757  13.336  14.629  12.683
48954SOL     OW48758   9.068  14.072  10.159
48954SOL    HW148759   9.089  14.164  10.140
48954SOL    HW248760   8.977  14.074  10.188
48955SOL     OW48761   3.972   2.941  13.236
48955SOL    HW148762   3.910   2.994  13.286
48955SOL    HW248763   4.048   2.998  13.224
48956SOL     OW48764  12.420  14.341  11.640
48956SOL    HW148765  12.444  14.284  11.567
48956SOL    HW248766  12.397  14.424  11.598
48957SOL     OW48767   4.177   1.797  13.023
48957SOL    HW148768   4.110   1.735  13.051
48957SOL    HW248769   4.217   1.756  12.946
48958SOL     OW48770   1.374   6.900  12.438
48958SOL    HW148771   1.338   6.852  12.512
48958SOL    HW248772   1.297   6.933  12.391
48959SOL     OW48773   6.978   0.012   8.546
48959SOL    HW148774   6.965  14.842   8.459
48959SOL    HW248775   6.937  14.820   8.607
48960SOL     OW48776   0.784   7.827   5.657
48960SOL    HW148777   0.727   7.763   5.615
48960SOL    HW248778   0.868   7.783   5.666
48961SOL     OW48779   2.679  12.534  10.857
48961SOL    HW148780   2.657  12.445  10.884
48961SOL    HW248781   2.749  12.522  10.792
48962SOL     OW48782   1.959  11.015   4.063
48962SOL    HW148783   1.890  10.952   4.086
48962SOL    HW248784   2.004  11.032   4.145
48963SOL     OW48785  14.593   9.528  14.387
48963SOL    HW148786  14.684   9.554  14.401
48963SOL    HW248787  14.589   9.438  14.419
48964SOL     OW48788   8.387   4.289  13.239
48964SOL    HW148789   8.478   4.262  13.232
48964SOL    HW248790   8.389   4.367  13.294
48965SOL     OW48791  11.858   1.121   4.978
48965SOL    HW148792  11.828   1.124   4.888
48965SOL    HW248793  11.789   1.074   5.025
48966SOL     OW48794   9.873   8.636  12.200
48966SOL    HW148795   9.799   8.650  12.141
48966SOL    HW248796   9.951   8.644  12.144
48967SOL     OW48797  13.213   6.192   0.534
48967SOL    HW148798  13.140   6.210   0.475
48967SOL    HW248799  13.175   6.198   0.622
48968SOL     OW48800  13.266   0.052   2.830
48968SOL    HW148801  13.278   0.076   2.922
48968SOL    HW248802  13.336   0.098   2.784
48969SOL     OW48803  12.514   8.907  14.707
48969SOL    HW148804  12.490   8.951  14.625
48969SOL    HW248805  12.599   8.868  14.690
48970SOL     OW48806   1.697   2.138   2.421
48970SOL    HW148807   1.634   2.189   2.472
48970SOL    HW248808   1.770   2.124   2.481
48971SOL     OW48809   4.323  12.834   7.257
48971SOL    HW148810   4.366  12.752   7.231
48971SOL    HW248811   4.261  12.853   7.187
48972SOL     OW48812   8.123   9.397   4.808
48972SOL    HW148813   8.046   9.384   4.863
48972SOL    HW248814   8.105   9.478   4.760
48973SOL     OW48815   7.050   7.823   6.026
48973SOL    HW148816   6.972   7.799   6.075
48973SOL    HW248817   7.117   7.836   6.092
48974SOL     OW48818  11.690   5.432  13.506
48974SOL    HW148819  11.636   5.508  13.484
48974SOL    HW248820  11.640   5.386  13.573
48975SOL     OW48821   2.278   5.725  10.588
48975SOL    HW148822   2.292   5.636  10.621
48975SOL    HW248823   2.185   5.741  10.601
48976SOL     OW48824   7.212   2.983   6.857
48976SOL    HW148825   7.194   2.965   6.950
48976SOL    HW248826   7.202   2.898   6.814
48977SOL     OW48827   5.498   3.729   5.138
48977SOL    HW148828   5.461   3.714   5.051
48977SOL    HW248829   5.591   3.745   5.123
48978SOL     OW48830  12.715   1.877   6.648
48978SOL    HW148831  12.718   1.972   6.657
48978SOL    HW248832  12.709   1.844   6.738
48979SOL     OW48833   2.068   9.193  13.129
48979SOL    HW148834   2.031   9.281  13.127
48979SOL    HW248835   2.057   9.160  13.039
48980SOL     OW48836  13.762   5.277  14.018
48980SOL    HW148837  13.815   5.317  13.949
48980SOL    HW248838  13.785   5.184  14.016
48981SOL     OW48839   1.703  10.601   5.142
48981SOL    HW148840   1.620  10.617   5.186
48981SOL    HW248841   1.746  10.534   5.196
48982SOL     OW48842  13.030   0.284   4.613
48982SOL    HW148843  13.082   0.253   4.538
48982SOL    HW248844  13.074   0.363   4.643
48983SOL     OW48845  12.170   6.595  13.956
48983SOL    HW148846  12.247   6.579  14.010
48983SOL    HW248847  12.204   6.640  13.878
48984SOL     OW48848   5.742  12.824  13.703
48984SOL    HW148849   5.678  12.821  13.773
48984SOL    HW248850   5.827  12.814  13.747
48985SOL     OW48851  13.122   7.300   9.788
48985SOL    HW148852  13.163   7.214   9.780
48985SOL    HW248853  13.196   7.361   9.795
48986SOL     OW48854   2.806   1.679   8.064
48986SOL    HW148855   2.860   1.710   8.137
48986SOL    HW248856   2.863   1.618   8.016
48987SOL     OW48857   4.850   4.547   4.228
48987SOL    HW148858   4.905   4.605   4.282
48987SOL    HW248859   4.814   4.484   4.290
48988SOL     OW48860   7.413  13.889   5.407
48988SOL    HW148861   7.410  13.838   5.488
48988SOL    HW248862   7.504  13.885   5.380
48989SOL     OW48863  12.918  14.282   5.198
48989SOL    HW148864  12.978  14.356   5.184
48989SOL    HW248865  12.900  14.285   5.292
48990SOL     OW48866   1.215   0.283   4.914
48990SOL    HW148867   1.211   0.202   4.965
48990SOL    HW248868   1.306   0.291   4.888
48991SOL     OW48869   6.003  12.600   7.301
48991SOL    HW148870   5.958  12.681   7.276
48991SOL    HW248871   6.031  12.561   7.218
48992SOL     OW48872   7.587   9.492   0.909
48992SOL    HW148873   7.508   9.505   0.962
48992SOL    HW248874   7.558   9.441   0.834
48993SOL     OW48875   8.165   4.525   7.550
48993SOL    HW148876   8.229   4.521   7.480
48993SOL    HW248877   8.165   4.617   7.578
48994SOL     OW48878  11.385   2.051  13.433
48994SOL    HW148879  11.436   2.080  13.509
48994SOL    HW248880  11.394   2.122  13.369
48995SOL     OW48881   8.178   1.195   2.572
48995SOL    HW148882   8.163   1.105   2.545
48995SOL    HW248883   8.270   1.212   2.550
48996SOL     OW48884   7.276   6.956  12.270
48996SOL    HW148885   7.222   7.034  12.281
48996SOL    HW248886   7.296   6.953  12.177
48997SOL     OW48887  12.690  10.812   8.117
48997SOL    HW148888  12.657  10.842   8.201
48997SOL    HW248889  12.628  10.744   8.089
48998SOL     OW48890  10.892   3.128  13.566
48998SOL    HW148891  10.867   3.173  13.485
48998SOL    HW248892  10.961   3.183  13.603
48999SOL     OW48893   5.285  14.005  14.607
48999SOL    HW148894   5.318  13.946  14.675
48999SOL    HW248895   5.190  13.999  14.614
49000SOL     OW48896   4.565   1.325   7.271
49000SOL    HW148897   4.509   1.320   7.349
49000SOL    HW248898   4.516   1.278   7.204
49001SOL     OW48899   6.387   3.506  13.482
49001SOL    HW148900   6.465   3.536  13.529
49001SOL    HW248901   6.420   3.469  13.400
49002SOL     OW48902   2.852   6.285  14.817
49002SOL    HW148903   2.837   6.366  14.767
49002SOL    HW248904   2.855   6.313   0.039
49003SOL     OW48905   1.011  12.780  10.323
49003SOL    HW148906   1.088  12.774  10.379
49003SOL    HW248907   1.046  12.782  10.234
49004SOL     OW48908  14.245   2.622   1.646
49004SOL    HW148909  14.183   2.694   1.659
49004SOL    HW248910  14.226   2.560   1.716
49005SOL     OW48911  11.840   9.537   3.232
49005SOL    HW148912  11.917   9.550   3.287
49005SOL    HW248913  11.874   9.539   3.142
49006SOL     OW48914   4.830   1.720   0.453
49006SOL    HW148915   4.773   1.759   0.519
49006SOL    HW248916   4.891   1.666   0.502
49007SOL     OW48917   1.579  13.782   4.795
49007SOL    HW148918   1.583  13.795   4.700
49007SOL    HW248919   1.486  13.792   4.816
49008SOL     OW48920  13.479   0.900   7.498
49008SOL    HW148921  13.559   0.853   7.522
49008SOL    HW248922  13.477   0.976   7.557
49009SOL     OW48923   3.569   3.297  12.326
49009SOL    HW148924   3.530   3.370  12.375
49009SOL    HW248925   3.648   3.275  12.375
49010SOL     OW48926   1.285   0.121  12.728
49010SOL    HW148927   1.235   0.100  12.806
49010SOL    HW248928   1.361   0.170  12.760
49011SOL     OW48929   7.569   1.472  11.434
49011SOL    HW148930   7.585   1.380  11.413
49011SOL    HW248931   7.650   1.502  11.475
49012SOL     OW48932  10.629   8.672  10.587
49012SOL    HW148933  10.601   8.665  10.496
49012SOL    HW248934  10.716   8.632  10.588
49013SOL     OW48935  14.586  14.766   9.620
49013SOL    HW148936  14.634  14.723   9.550
49013SOL    HW248937  14.494  14.746   9.602
49014SOL     OW48938  10.341  14.331   3.950
49014SOL    HW148939  10.255  14.366   3.973
49014SOL    HW248940  10.403  14.397   3.979
49015SOL     OW48941  13.896   7.388   5.378
49015SOL    HW148942  13.934   7.349   5.299
49015SOL    HW248943  13.890   7.482   5.358
49016SOL     OW48944  12.649  13.954   8.557
49016SOL    HW148945  12.628  14.027   8.616
49016SOL    HW248946  12.712  13.901   8.607
49017SOL     OW48947  11.729   9.230   7.110
49017SOL    HW148948  11.788   9.214   7.184
49017SOL    HW248949  11.715   9.325   7.110
49018SOL     OW48950   4.503   5.809   8.430
49018SOL    HW148951   4.433   5.812   8.365
49018SOL    HW248952   4.582   5.791   8.378
49019SOL     OW48953   8.465   2.496   1.776
49019SOL    HW148954   8.452   2.480   1.869
49019SOL    HW248955   8.438   2.415   1.734
49020SOL     OW48956   0.570   7.230  10.660
49020SOL    HW148957   0.588   7.195  10.748
49020SOL    HW248958   0.479   7.204  10.643
49021SOL     OW48959   3.599   0.481   3.600
49021SOL    HW148960   3.598   0.453   3.509
49021SOL    HW248961   3.678   0.440   3.637
49022SOL     OW48962  11.588  12.975   5.170
49022SOL    HW148963  11.520  12.909   5.154
49022SOL    HW248964  11.542  13.045   5.216
49023SOL     OW48965   6.798   8.815   0.529
49023SOL    HW148966   6.722   8.815   0.587
49023SOL    HW248967   6.763   8.829   0.442
49024SOL     OW48968   7.660   6.651   5.184
49024SOL    HW148969   7.657   6.673   5.091
49024SOL    HW248970   7.598   6.578   5.193
49025SOL     OW48971   1.343  13.075  11.199
49025SOL    HW148972   1.378  13.001  11.149
49025SOL    HW248973   1.259  13.094  11.157
49026SOL     OW48974  11.349   7.287   0.104
49026SOL    HW148975  11.410   7.231   0.152
49026SOL    HW248976  11.346   7.251   0.016
49027SOL     OW48977  13.345   1.435   3.335
49027SOL    HW148978  13.429   1.415   3.293
49027SOL    HW248979  13.281   1.383   3.286
49028SOL     OW48980  12.708   5.346   7.596
49028SOL    HW148981  12.800   5.325   7.579
49028SOL    HW248982  12.711   5.438   7.625
49029SOL     OW48983  13.958   3.930  13.770
49029SOL    HW148984  13.905   3.974  13.836
49029SOL    HW248985  13.920   3.955  13.686
49030SOL     OW48986   9.913   9.035  14.690
49030SOL    HW148987   9.900   8.946  14.722
49030SOL    HW248988   9.840   9.050  14.630
49031SOL     OW48989   3.189  11.030   1.381
49031SOL    HW148990   3.218  10.955   1.330
49031SOL    HW248991   3.129  11.078   1.323
49032SOL     OW48992   0.846   9.271   0.426
49032SOL    HW148993   0.901   9.301   0.499
49032SOL    HW248994   0.768   9.234   0.468
49033SOL     OW48995  12.238   3.756   0.880
49033SOL    HW148996  12.305   3.792   0.822
49033SOL    HW248997  12.157   3.800   0.854
49034SOL     OW48998   4.298   2.213  10.138
49034SOL    HW148999   4.231   2.243  10.076
49034SOL    HW249000   4.378   2.205  10.086
49035SOL     OW49001  13.756   1.530   9.336
49035SOL    HW149002  13.846   1.560   9.326
49035SOL    HW249003  13.716   1.544   9.250
49036SOL     OW49004   8.568   3.789   7.473
49036SOL    HW149005   8.563   3.880   7.442
49036SOL    HW249006   8.506   3.742   7.417
49037SOL     OW49007   7.925   8.250   3.783
49037SOL    HW149008   7.886   8.336   3.799
49037SOL    HW249009   7.916   8.204   3.866
49038SOL     OW49010   2.690   8.877   0.138
49038SOL    HW149011   2.618   8.892   0.077
49038SOL    HW249012   2.659   8.911   0.222
49039SOL     OW49013  14.412   9.776   3.752
49039SOL    HW149014  14.412   9.791   3.657
49039SOL    HW249015  14.331   9.817   3.782
49040SOL     OW49016   8.225   8.729   3.903
49040SOL    HW149017   8.313   8.728   3.865
49040SOL    HW249018   8.187   8.645   3.877
49041SOL     OW49019  10.668  13.848   4.199
49041SOL    HW149020  10.729  13.775   4.187
49041SOL    HW249021  10.635  13.866   4.111
49042SOL     OW49022   6.400  13.228  13.628
49042SOL    HW149023   6.485  13.184  13.633
49042SOL    HW249024   6.406  13.282  13.549
49043SOL     OW49025   4.532   9.564  14.773
49043SOL    HW149026   4.485   9.646  14.788
49043SOL    HW249027   4.473   9.497  14.805
49044SOL     OW49028  12.122   0.761  11.457
49044SOL    HW149029  12.190   0.820  11.426
49044SOL    HW249030  12.055   0.762  11.388
49045SOL     OW49031  12.352   1.372  14.106
49045SOL    HW149032  12.393   1.344  14.188
49045SOL    HW249033  12.259   1.375  14.125
49046SOL     OW49034   0.912   2.712   6.056
49046SOL    HW149035   0.891   2.789   6.004
49046SOL    HW249036   0.886   2.638   6.001
49047SOL     OW49037  10.697  12.092  10.185
49047SOL    HW149038  10.764  12.153  10.155
49047SOL    HW249039  10.622  12.148  10.207
49048SOL     OW49040   8.358  12.876   0.855
49048SOL    HW149041   8.424  12.807   0.863
49048SOL    HW249042   8.394  12.949   0.906
49049SOL     OW49043  10.361  10.816  14.784
49049SOL    HW149044  10.332  10.797   0.004
49049SOL    HW249045  10.281  10.815  14.732
49050SOL     OW49046   0.673  14.061   2.779
49050SOL    HW149047   0.669  14.120   2.703
49050SOL    HW249048   0.582  14.054   2.809
49051SOL     OW49049   9.721   6.920  12.429
49051SOL    HW149050   9.629   6.947  12.427
49051SOL    HW249051   9.738   6.884  12.342
49052SOL     OW49052  12.397   1.364   6.214
49052SOL    HW149053  12.454   1.352   6.290
49052SOL    HW249054  12.360   1.277   6.199
49053SOL     OW49055  10.794   2.808   8.862
49053SOL    HW149056  10.732   2.807   8.789
49053SOL    HW249057  10.836   2.722   8.860
49054SOL     OW49058   6.337   4.460  14.129
49054SOL    HW149059   6.399   4.527  14.158
49054SOL    HW249060   6.251   4.502  14.137
49055SOL     OW49061   7.503   3.714   3.856
49055SOL    HW149062   7.428   3.733   3.800
49055SOL    HW249063   7.467   3.664   3.929
49056SOL     OW49064   0.538   4.597   5.895
49056SOL    HW149065   0.628   4.578   5.922
49056SOL    HW249066   0.539   4.588   5.800
49057SOL     OW49067   9.791   2.304   7.922
49057SOL    HW149068   9.799   2.331   8.014
49057SOL    HW249069   9.757   2.382   7.877
49058SOL     OW49070   1.033   9.186   2.560
49058SOL    HW149071   1.064   9.269   2.593
49058SOL    HW249072   1.053   9.188   2.466
49059SOL     OW49073   1.156   3.323   6.568
49059SOL    HW149074   1.247   3.340   6.542
49059SOL    HW249075   1.125   3.258   6.506
49060SOL     OW49076   2.491   5.251   0.662
49060SOL    HW149077   2.520   5.208   0.742
49060SOL    HW249078   2.425   5.192   0.625
49061SOL     OW49079   3.193   4.247  10.476
49061SOL    HW149080   3.203   4.296  10.558
49061SOL    HW249081   3.115   4.194  10.489
49062SOL     OW49082  14.368  10.799   8.398
49062SOL    HW149083  14.361  10.877   8.343
49062SOL    HW249084  14.288  10.749   8.380
49063SOL     OW49085   2.951   4.204   9.501
49063SOL    HW149086   2.984   4.128   9.549
49063SOL    HW249087   3.003   4.277   9.534
49064SOL     OW49088   5.493  12.588   5.193
49064SOL    HW149089   5.493  12.635   5.110
49064SOL    HW249090   5.583  12.598   5.226
49065SOL     OW49091   8.863   3.134  14.143
49065SOL    HW149092   8.865   3.201  14.211
49065SOL    HW249093   8.785   3.082  14.163
49066SOL     OW49094   6.365   3.835  11.313
49066SOL    HW149095   6.326   3.921  11.293
49066SOL    HW249096   6.323   3.775  11.251
49067SOL     OW49097  13.002   5.490  13.712
49067SOL    HW149098  13.046   5.566  13.675
49067SOL    HW249099  13.013   5.421  13.647
49068SOL     OW49100   4.741   5.272  13.133
49068SOL    HW149101   4.798   5.316  13.196
49068SOL    HW249102   4.676   5.338  13.110
49069SOL     OW49103   0.284   4.001  11.653
49069SOL    HW149104   0.303   3.995  11.747
49069SOL    HW249105   0.191   4.022  11.649
49070SOL     OW49106  14.301   9.592   2.683
49070SOL    HW149107  14.269   9.537   2.754
49070SOL    HW249108  14.389   9.618   2.710
49071SOL     OW49109  11.593   7.758  11.574
49071SOL    HW149110  11.671   7.801  11.610
49071SOL    HW249111  11.549   7.825  11.523
49072SOL     OW49112   5.706   3.540   4.575
49072SOL    HW149113   5.714   3.475   4.505
49072SOL    HW249114   5.613   3.542   4.596
49073SOL     OW49115   5.371   4.305   4.553
49073SOL    HW149116   5.458   4.283   4.520
49073SOL    HW249117   5.344   4.381   4.502
49074SOL     OW49118   2.620  10.033   0.459
49074SOL    HW149119   2.539  10.080   0.478
49074SOL    HW249120   2.657  10.077   0.383
49075SOL     OW49121   7.213  13.777  14.644
49075SOL    HW149122   7.211  13.686  14.674
49075SOL    HW249123   7.238  13.772  14.552
49076SOL     OW49124   6.929   7.520  11.323
49076SOL    HW149125   6.878   7.489  11.398
49076SOL    HW249126   6.871   7.582  11.278
49077SOL     OW49127   6.714   1.187  10.304
49077SOL    HW149128   6.798   1.175  10.260
49077SOL    HW249129   6.671   1.259  10.258
49078SOL     OW49130   0.089   3.976  12.875
49078SOL    HW149131   0.102   3.924  12.796
49078SOL    HW249132   0.095   3.912  12.946
49079SOL     OW49133   7.257   8.473   8.693
49079SOL    HW149134   7.271   8.392   8.741
49079SOL    HW249135   7.229   8.444   8.606
49080SOL     OW49136   1.117   5.725   8.446
49080SOL    HW149137   1.068   5.777   8.382
49080SOL    HW249138   1.077   5.638   8.443
49081SOL     OW49139   4.517   4.185   9.474
49081SOL    HW149140   4.578   4.116   9.498
49081SOL    HW249141   4.448   4.180   9.540
49082SOL     OW49142   5.852   0.315   4.492
49082SOL    HW149143   5.872   0.408   4.483
49082SOL    HW249144   5.806   0.309   4.576
49083SOL     OW49145   8.606   4.698   2.137
49083SOL    HW149146   8.512   4.687   2.148
49083SOL    HW249147   8.645   4.633   2.195
49084SOL     OW49148   8.695  12.272   5.161
49084SOL    HW149149   8.754  12.295   5.090
49084SOL    HW249150   8.693  12.176   5.162
49085SOL     OW49151   1.288   1.116   0.178
49085SOL    HW149152   1.235   1.187   0.216
49085SOL    HW249153   1.249   1.037   0.214
49086SOL     OW49154   8.996   2.685  13.075
49086SOL    HW149155   9.068   2.746  13.090
49086SOL    HW249156   9.007   2.656  12.984
49087SOL     OW49157   1.103   0.638   7.774
49087SOL    HW149158   1.198   0.643   7.785
49087SOL    HW249159   1.091   0.630   7.679
49088SOL     OW49160   4.495  10.805   2.849
49088SOL    HW149161   4.552  10.835   2.919
49088SOL    HW249162   4.517  10.712   2.838
49089SOL     OW49163   8.734  10.140   4.801
49089SOL    HW149164   8.706  10.212   4.745
49089SOL    HW249165   8.655  10.090   4.817
49090SOL     OW49166  14.474   5.784   3.745
49090SOL    HW149167  14.448   5.694   3.726
49090SOL    HW249168  14.406   5.817   3.804
49091SOL     OW49169   9.829  13.803   2.289
49091SOL    HW149170   9.918  13.835   2.275
49091SOL    HW249171   9.777  13.846   2.221
49092SOL     OW49172   9.440   7.878  11.781
49092SOL    HW149173   9.474   7.802  11.829
49092SOL    HW249174   9.518   7.930  11.761
49093SOL     OW49175   5.536  13.356   3.704
49093SOL    HW149176   5.492  13.283   3.748
49093SOL    HW249177   5.627  13.328   3.697
49094SOL     OW49178   1.754   2.481  11.044
49094SOL    HW149179   1.678   2.449  11.093
49094SOL    HW249180   1.731   2.571  11.021
49095SOL     OW49181   0.163   3.983   8.058
49095SOL    HW149182   0.258   3.992   8.052
49095SOL    HW249183   0.129   4.065   8.021
49096SOL     OW49184   0.593   9.905   2.916
49096SOL    HW149185   0.665   9.850   2.887
49096SOL    HW249186   0.596   9.901   3.011
49097SOL     OW49187   8.771  12.213   9.943
49097SOL    HW149188   8.806  12.260  10.018
49097SOL    HW249189   8.703  12.270   9.908
49098SOL     OW49190   4.696  11.279  11.934
49098SOL    HW149191   4.660  11.343  11.873
49098SOL    HW249192   4.619  11.244  11.979
49099SOL     OW49193   4.241  13.996   6.244
49099SOL    HW149194   4.165  14.007   6.186
49099SOL    HW249195   4.316  14.022   6.190
49100SOL     OW49196   8.833   8.155   6.846
49100SOL    HW149197   8.886   8.087   6.888
49100SOL    HW249198   8.861   8.154   6.755
49101SOL     OW49199   6.995   1.030   1.444
49101SOL    HW149200   6.957   1.082   1.515
49101SOL    HW249201   7.002   0.942   1.480
49102SOL     OW49202  12.208   3.279   7.734
49102SOL    HW149203  12.264   3.207   7.706
49102SOL    HW249204  12.263   3.357   7.728
49103SOL     OW49205  11.633   7.618   8.867
49103SOL    HW149206  11.689   7.581   8.799
49103SOL    HW249207  11.670   7.705   8.884
49104SOL     OW49208   2.900   1.131  11.874
49104SOL    HW149209   2.912   1.209  11.820
49104SOL    HW249210   2.927   1.158  11.962
49105SOL     OW49211   9.001   5.336   3.211
49105SOL    HW149212   8.946   5.360   3.285
49105SOL    HW249213   9.080   5.389   3.221
49106SOL     OW49214  11.276   8.290  12.059
49106SOL    HW149215  11.228   8.214  12.025
49106SOL    HW249216  11.226   8.317  12.136
49107SOL     OW49217   4.611   4.031   6.177
49107SOL    HW149218   4.679   3.988   6.126
49107SOL    HW249219   4.533   4.026   6.122
49108SOL     OW49220   2.512  12.384   6.700
49108SOL    HW149221   2.417  12.376   6.705
49108SOL    HW249222   2.530  12.407   6.609
49109SOL     OW49223   4.378  13.137   9.981
49109SOL    HW149224   4.458  13.121  10.032
49109SOL    HW249225   4.355  13.052   9.945
49110SOL     OW49226   2.926   2.709  11.243
49110SOL    HW149227   2.980   2.701  11.164
49110SOL    HW249228   2.936   2.624  11.287
49111SOL     OW49229  10.999  11.931  13.481
49111SOL    HW149230  10.956  11.939  13.396
49111SOL    HW249231  11.085  11.892  13.461
49112SOL     OW49232   9.537   6.843   7.615
49112SOL    HW149233   9.581   6.864   7.532
49112SOL    HW249234   9.597   6.877   7.682
49113SOL     OW49235  14.419   5.036   7.344
49113SOL    HW149236  14.494   5.031   7.403
49113SOL    HW249237  14.347   4.995   7.394
49114SOL     OW49238  10.031   5.548   6.707
49114SOL    HW149239   9.973   5.624   6.706
49114SOL    HW249240   9.973   5.473   6.698
49115SOL     OW49241   2.053  12.760  12.846
49115SOL    HW149242   2.054  12.852  12.820
49115SOL    HW249243   1.965  12.729  12.824
49116SOL     OW49244   7.784   5.880  10.991
49116SOL    HW149245   7.828   5.864  10.907
49116SOL    HW249246   7.849   5.926  11.044
49117SOL     OW49247   7.137  14.511   4.374
49117SOL    HW149248   7.049  14.548   4.373
49117SOL    HW249249   7.129  14.430   4.425
49118SOL     OW49250  14.687   8.064   7.999
49118SOL    HW149251  14.610   8.010   7.982
49118SOL    HW249252  14.761   8.003   7.992
49119SOL     OW49253  12.211   5.686   2.519
49119SOL    HW149254  12.279   5.686   2.587
49119SOL    HW249255  12.131   5.709   2.566
49120SOL     OW49256   5.838   8.785  11.989
49120SOL    HW149257   5.832   8.879  12.003
49120SOL    HW249258   5.817   8.746  12.074
49121SOL     OW49259   6.192  11.016   8.952
49121SOL    HW149260   6.261  10.951   8.963
49121SOL    HW249261   6.169  11.011   8.859
49122SOL     OW49262  12.803  12.390   8.689
49122SOL    HW149263  12.877  12.340   8.724
49122SOL    HW249264  12.842  12.447   8.623
49123SOL     OW49265  11.637  13.240   9.357
49123SOL    HW149266  11.605  13.198   9.277
49123SOL    HW249267  11.654  13.331   9.332
49124SOL     OW49268  14.357  14.705   7.750
49124SOL    HW149269  14.381  14.788   7.709
49124SOL    HW249270  14.268  14.718   7.780
49125SOL     OW49271   6.321  13.128   6.903
49125SOL    HW149272   6.371  13.047   6.904
49125SOL    HW249273   6.380  13.192   6.865
49126SOL     OW49274   8.955   0.745  11.436
49126SOL    HW149275   8.909   0.808  11.381
49126SOL    HW249276   9.019   0.798  11.484
49127SOL     OW49277   5.674  13.907   3.351
49127SOL    HW149278   5.703  13.817   3.336
49127SOL    HW249279   5.605  13.899   3.417
49128SOL     OW49280  11.757   2.304   3.064
49128SOL    HW149281  11.818   2.349   3.122
49128SOL    HW249282  11.762   2.212   3.090
49129SOL     OW49283   4.064   2.712   2.802
49129SOL    HW149284   4.062   2.753   2.889
49129SOL    HW249285   4.097   2.780   2.744
49130SOL     OW49286   2.542   9.579   6.578
49130SOL    HW149287   2.572   9.669   6.563
49130SOL    HW249288   2.451   9.588   6.604
49131SOL     OW49289   7.498  12.887   1.448
49131SOL    HW149290   7.490  12.826   1.375
49131SOL    HW249291   7.504  12.831   1.526
49132SOL     OW49292   4.512   0.115  14.749
49132SOL    HW149293   4.568   0.111  14.827
49132SOL    HW249294   4.437   0.168  14.776
49133SOL     OW49295   1.280  13.470   5.704
49133SOL    HW149296   1.321  13.537   5.649
49133SOL    HW249297   1.187  13.492   5.703
49134SOL     OW49298   2.686   7.491   0.614
49134SOL    HW149299   2.772   7.459   0.641
49134SOL    HW249300   2.628   7.416   0.624
49135SOL     OW49301   3.232  12.018   3.936
49135SOL    HW149302   3.148  11.980   3.910
49135SOL    HW249303   3.289  12.003   3.860
49136SOL     OW49304  10.908   3.627  10.388
49136SOL    HW149305  10.845   3.619  10.459
49136SOL    HW249306  10.867   3.686  10.326
49137SOL     OW49307   7.508   7.480   0.090
49137SOL    HW149308   7.566   7.556   0.102
49137SOL    HW249309   7.485   7.454   0.178
49138SOL     OW49310   5.759   7.101   9.019
49138SOL    HW149311   5.760   7.196   9.035
49138SOL    HW249312   5.847   7.082   8.985
49139SOL     OW49313  14.680   6.275   0.646
49139SOL    HW149314  14.732   6.345   0.608
49139SOL    HW249315  14.645   6.311   0.727
49140SOL     OW49316   1.361   1.621  14.116
49140SOL    HW149317   1.399   1.618  14.028
49140SOL    HW249318   1.428   1.582  14.172
49141SOL     OW49319   6.301  11.978   8.198
49141SOL    HW149320   6.383  11.940   8.228
49141SOL    HW249321   6.297  12.063   8.242
49142SOL     OW49322   4.123   2.124  10.769
49142SOL    HW149323   4.044   2.071  10.758
49142SOL    HW249324   4.118   2.155  10.860
49143SOL     OW49325   0.031   9.164   0.996
49143SOL    HW149326   0.019   9.136   1.087
49143SOL    HW249327   0.064   9.253   1.003
49144SOL     OW49328   6.825  11.819   0.995
49144SOL    HW149329   6.739  11.859   0.982
49144SOL    HW249330   6.808  11.745   1.053
49145SOL     OW49331   0.425   8.059  12.345
49145SOL    HW149332   0.368   7.982  12.347
49145SOL    HW249333   0.386   8.119  12.408
49146SOL     OW49334   5.972  11.514  12.481
49146SOL    HW149335   6.027  11.570  12.427
49146SOL    HW249336   5.886  11.556  12.481
49147SOL     OW49337   1.790   9.874  14.829
49147SOL    HW149338   1.742   9.862  14.747
49147SOL    HW249339   1.814   9.785  14.855
49148SOL     OW49340   6.231  13.394  10.203
49148SOL    HW149341   6.294  13.447  10.154
49148SOL    HW249342   6.147  13.438  10.190
49149SOL     OW49343   9.846   4.990  10.989
49149SOL    HW149344   9.804   4.924  11.045
49149SOL    HW249345   9.786   5.001  10.915
49150SOL     OW49346  13.242  10.073   6.172
49150SOL    HW149347  13.324  10.080   6.123
49150SOL    HW249348  13.176  10.048   6.107
49151SOL     OW49349   3.214   9.552  14.832
49151SOL    HW149350   3.298   9.597  14.822
49151SOL    HW249351   3.163   9.610   0.019
49152SOL     OW49352  12.830  13.833   5.880
49152SOL    HW149353  12.904  13.823   5.940
49152SOL    HW249354  12.790  13.747   5.876
49153SOL     OW49355   5.985  13.290   7.761
49153SOL    HW149356   5.918  13.353   7.786
49153SOL    HW249357   6.053  13.342   7.717
49154SOL     OW49358   4.891   2.786   3.387
49154SOL    HW149359   4.883   2.817   3.478
49154SOL    HW249360   4.976   2.743   3.385
49155SOL     OW49361   0.098   0.904  14.777
49155SOL    HW149362   0.149   0.823  14.780
49155SOL    HW249363   0.033   0.889  14.708
49156SOL     OW49364  11.709  14.536   6.448
49156SOL    HW149365  11.756  14.615   6.473
49156SOL    HW249366  11.620  14.566   6.429
49157SOL     OW49367  12.821   8.123  10.058
49157SOL    HW149368  12.869   8.137   9.976
49157SOL    HW249369  12.888   8.098  10.122
49158SOL     OW49370   0.074  12.861   9.922
49158SOL    HW149371   0.005  12.799   9.903
49158SOL    HW249372   0.096  12.901   9.838
49159SOL     OW49373   3.068   1.631  13.089
49159SOL    HW149374   3.159   1.638  13.062
49159SOL    HW249375   3.071   1.636  13.184
49160SOL     OW49376   9.909  10.754  14.737
49160SOL    HW149377   9.969  10.801  14.680
49160SOL    HW249378   9.957  10.676  14.764
49161SOL     OW49379  14.584  12.688   2.260
49161SOL    HW149380  14.661  12.735   2.291
49161SOL    HW249381  14.593  12.600   2.295
49162SOL     OW49382   4.736   6.902   0.100
49162SOL    HW149383   4.711   6.933   0.187
49162SOL    HW249384   4.666   6.934   0.042
49163SOL     OW49385   3.977   7.660  10.183
49163SOL    HW149386   4.005   7.751  10.195
49163SOL    HW249387   3.893   7.654  10.230
49164SOL     OW49388   5.259   6.270   2.258
49164SOL    HW149389   5.312   6.229   2.327
49164SOL    HW249390   5.226   6.197   2.206
49165SOL     OW49391  10.818   6.491   0.367
49165SOL    HW149392  10.829   6.580   0.401
49165SOL    HW249393  10.780   6.503   0.280
49166SOL     OW49394   4.281   7.228   8.721
49166SOL    HW149395   4.246   7.159   8.777
49166SOL    HW249396   4.372   7.236   8.748
49167SOL     OW49397  10.311  11.674   8.863
49167SOL    HW149398  10.280  11.721   8.940
49167SOL    HW249399  10.330  11.586   8.895
49168SOL     OW49400   7.533   1.528   6.967
49168SOL    HW149401   7.511   1.620   6.955
49168SOL    HW249402   7.528   1.514   7.062
49169SOL     OW49403   2.126   4.559   5.556
49169SOL    HW149404   2.160   4.648   5.564
49169SOL    HW249405   2.063   4.550   5.627
49170SOL     OW49406   2.060   8.763   1.296
49170SOL    HW149407   2.106   8.690   1.255
49170SOL    HW249408   2.056   8.830   1.229
49171SOL     OW49409   8.639   2.332   7.798
49171SOL    HW149410   8.581   2.334   7.875
49171SOL    HW249411   8.594   2.386   7.733
49172SOL     OW49412  12.793   6.991  13.590
49172SOL    HW149413  12.871   7.025  13.634
49172SOL    HW249414  12.820   6.979  13.499
49173SOL     OW49415  14.011   3.050  10.718
49173SOL    HW149416  14.012   3.142  10.693
49173SOL    HW249417  14.061   3.047  10.800
49174SOL     OW49418   5.548   4.826   3.722
49174SOL    HW149419   5.475   4.812   3.782
49174SOL    HW249420   5.569   4.919   3.732
49175SOL     OW49421   8.994   9.297   2.746
49175SOL    HW149422   8.994   9.227   2.681
49175SOL    HW249423   8.903   9.327   2.748
49176SOL     OW49424  12.003  11.584   8.992
49176SOL    HW149425  12.037  11.636   9.065
49176SOL    HW249426  11.916  11.621   8.974
49177SOL     OW49427  13.369   9.613  13.993
49177SOL    HW149428  13.338   9.523  13.999
49177SOL    HW249429  13.289   9.666  13.997
49178SOL     OW49430   8.189   2.176   4.956
49178SOL    HW149431   8.163   2.238   5.024
49178SOL    HW249432   8.283   2.164   4.969
49179SOL     OW49433   4.052   4.698   7.419
49179SOL    HW149434   3.958   4.703   7.437
49179SOL    HW249435   4.089   4.773   7.465
49180SOL     OW49436   2.895   9.427  10.768
49180SOL    HW149437   2.804   9.434  10.796
49180SOL    HW249438   2.901   9.340  10.729
49181SOL     OW49439   4.413  13.658   3.791
49181SOL    HW149440   4.463  13.694   3.717
49181SOL    HW249441   4.401  13.566   3.768
49182SOL     OW49442   0.111   3.521   4.721
49182SOL    HW149443   0.064   3.550   4.644
49182SOL    HW249444   0.043   3.492   4.782
49183SOL     OW49445   0.798   4.972   0.650
49183SOL    HW149446   0.893   4.962   0.644
49183SOL    HW249447   0.763   4.911   0.584
49184SOL     OW49448   2.413   7.342  12.884
49184SOL    HW149449   2.320   7.325  12.869
49184SOL    HW249450   2.452   7.255  12.896
49185SOL     OW49451   6.875   1.944   1.155
49185SOL    HW149452   6.952   1.939   1.212
49185SOL    HW249453   6.854   1.853   1.134
49186SOL     OW49454  12.703  14.529   9.039
49186SOL    HW149455  12.747  14.464   8.984
49186SOL    HW249456  12.689  14.484   9.122
49187SOL     OW49457   8.637   7.054   5.705
49187SOL    HW149458   8.714   7.084   5.754
49187SOL    HW249459   8.595   6.991   5.764
49188SOL     OW49460   7.959  11.856  10.886
49188SOL    HW149461   7.971  11.898  10.800
49188SOL    HW249462   7.999  11.770  10.876
49189SOL     OW49463   5.444   6.916   0.184
49189SOL    HW149464   5.401   6.930   0.269
49189SOL    HW249465   5.441   6.821   0.171
49190SOL     OW49466  11.094   3.393  13.121
49190SOL    HW149467  11.013   3.436  13.148
49190SOL    HW249468  11.128   3.352  13.201
49191SOL     OW49469   4.596  13.056  13.195
49191SOL    HW149470   4.533  13.017  13.255
49191SOL    HW249471   4.634  13.129  13.245
49192SOL     OW49472  10.076   6.171   8.205
49192SOL    HW149473  10.147   6.228   8.233
49192SOL    HW249474  10.067   6.107   8.276
49193SOL     OW49475   6.325   4.053  13.127
49193SOL    HW149476   6.399   4.004  13.093
49193SOL    HW249477   6.259   3.986  13.147
49194SOL     OW49478  13.706   4.276  10.348
49194SOL    HW149479  13.793   4.304  10.376
49194SOL    HW249480  13.720   4.191  10.306
49195SOL     OW49481   8.227   2.359  10.743
49195SOL    HW149482   8.305   2.316  10.708
49195SOL    HW249483   8.165   2.287  10.759
49196SOL     OW49484   1.496   2.714  13.207
49196SOL    HW149485   1.490   2.619  13.196
49196SOL    HW249486   1.405   2.742  13.222
49197SOL     OW49487   3.435  12.901  10.512
49197SOL    HW149488   3.437  12.880  10.419
49197SOL    HW249489   3.346  12.878  10.539
49198SOL     OW49490  12.219   1.211   1.561
49198SOL    HW149491  12.221   1.135   1.619
49198SOL    HW249492  12.307   1.214   1.523
49199SOL     OW49493   1.683   0.568   6.994
49199SOL    HW149494   1.634   0.510   7.053
49199SOL    HW249495   1.766   0.583   7.039
49200SOL     OW49496  14.288   8.652   5.718
49200SOL    HW149497  14.325   8.571   5.683
49200SOL    HW249498  14.358   8.689   5.772
49201SOL     OW49499   8.689  14.367   3.697
49201SOL    HW149500   8.702  14.331   3.785
49201SOL    HW249501   8.748  14.442   3.693
49202SOL     OW49502   6.089   2.611  11.823
49202SOL    HW149503   6.149   2.685  11.815
49202SOL    HW249504   6.094   2.584  11.914
49203SOL     OW49505   3.780   3.087   6.864
49203SOL    HW149506   3.736   3.064   6.782
49203SOL    HW249507   3.847   3.019   6.875
49204SOL     OW49508  14.238  11.411   6.556
49204SOL    HW149509  14.218  11.448   6.470
49204SOL    HW249510  14.326  11.443   6.576
49205SOL     OW49511   5.407   7.150   5.670
49205SOL    HW149512   5.501   7.144   5.687
49205SOL    HW249513   5.365   7.120   5.751
49206SOL     OW49514   8.622   0.891   6.609
49206SOL    HW149515   8.546   0.868   6.555
49206SOL    HW249516   8.585   0.921   6.692
49207SOL     OW49517   8.369   2.688   0.223
49207SOL    HW149518   8.427   2.640   0.283
49207SOL    HW249519   8.285   2.643   0.230
49208SOL     OW49520   5.238  10.776  14.636
49208SOL    HW149521   5.180  10.788  14.560
49208SOL    HW249522   5.244  10.681  14.646
49209SOL     OW49523   1.838   7.467   8.795
49209SOL    HW149524   1.884   7.551   8.787
49209SOL    HW249525   1.753   7.483   8.754
49210SOL     OW49526  13.466   9.831  13.479
49210SOL    HW149527  13.544   9.818  13.426
49210SOL    HW249528  13.475   9.769  13.552
49211SOL     OW49529  10.417  14.791   3.342
49211SOL    HW149530  10.402   0.015   3.359
49211SOL    HW249531  10.443  14.787   3.250
49212SOL     OW49532   5.053   9.786   0.429
49212SOL    HW149533   5.036   9.696   0.457
49212SOL    HW249534   4.993   9.839   0.480
49213SOL     OW49535  11.065   6.379   6.434
49213SOL    HW149536  11.086   6.462   6.477
49213SOL    HW249537  10.970   6.378   6.430
49214SOL     OW49538  12.062   2.957   3.788
49214SOL    HW149539  12.044   3.047   3.816
49214SOL    HW249540  12.026   2.952   3.699
49215SOL     OW49541  14.605   5.644  11.517
49215SOL    HW149542  14.577   5.577  11.455
49215SOL    HW249543  14.688   5.676  11.482
49216SOL     OW49544  10.283   3.241   7.286
49216SOL    HW149545  10.188   3.251   7.275
49216SOL    HW249546  10.302   3.154   7.250
49217SOL     OW49547  13.698   9.257  12.908
49217SOL    HW149548  13.777   9.223  12.949
49217SOL    HW249549  13.719   9.262  12.815
49218SOL     OW49550  12.632   1.128   0.203
49218SOL    HW149551  12.539   1.123   0.225
49218SOL    HW249552  12.651   1.222   0.201
49219SOL     OW49553  14.240   1.979   8.318
49219SOL    HW149554  14.217   1.945   8.232
49219SOL    HW249555  14.194   1.922   8.380
49220SOL     OW49556  10.038   3.832  13.723
49220SOL    HW149557  10.048   3.887  13.801
49220SOL    HW249558   9.984   3.759  13.753
49221SOL     OW49559   5.364  11.457   4.374
49221SOL    HW149560   5.308  11.529   4.403
49221SOL    HW249561   5.388  11.411   4.454
49222SOL     OW49562  13.377   0.349   8.611
49222SOL    HW149563  13.311   0.337   8.680
49222SOL    HW249564  13.461   0.337   8.655
49223SOL     OW49565   5.168   3.710   5.079
49223SOL    HW149566   5.249   3.707   5.029
49223SOL    HW249567   5.100   3.688   5.015
49224SOL     OW49568   4.335   3.209   6.977
49224SOL    HW149569   4.308   3.300   6.990
49224SOL    HW249570   4.284   3.159   7.040
49225SOL     OW49571   2.595   4.553   5.801
49225SOL    HW149572   2.526   4.487   5.802
49225SOL    HW249573   2.591   4.594   5.887
49226SOL     OW49574   9.682  10.192  10.994
49226SOL    HW149575   9.699  10.124  11.059
49226SOL    HW249576   9.760  10.247  10.994
49227SOL     OW49577   0.331   3.847   3.007
49227SOL    HW149578   0.252   3.795   2.992
49227SOL    HW249579   0.327   3.870   3.100
49228SOL     OW49580   9.053  14.660  11.269
49228SOL    HW149581   9.115  14.720  11.313
49228SOL    HW249582   9.081  14.573  11.296
49229SOL     OW49583   9.104  11.916   8.214
49229SOL    HW149584   9.187  11.940   8.256
49229SOL    HW249585   9.128  11.846   8.153
49230SOL     OW49586   2.953   1.054  10.671
49230SOL    HW149587   3.028   1.021  10.622
49230SOL    HW249588   2.877   1.027  10.620
49231SOL     OW49589   4.334   6.379   7.688
49231SOL    HW149590   4.305   6.327   7.764
49231SOL    HW249591   4.395   6.443   7.724
49232SOL     OW49592   4.553  11.540   9.448
49232SOL    HW149593   4.514  11.454   9.433
49232SOL    HW249594   4.480  11.595   9.475
49233SOL     OW49595   6.977  13.012  12.469
49233SOL    HW149596   6.924  13.034  12.392
49233SOL    HW249597   6.924  12.951  12.519
49234SOL     OW49598   1.266   8.960   5.123
49234SOL    HW149599   1.245   9.001   5.207
49234SOL    HW249600   1.228   8.872   5.128
49235SOL     OW49601  10.819  11.001   8.012
49235SOL    HW149602  10.774  11.006   8.096
49235SOL    HW249603  10.847  10.910   8.004
49236SOL     OW49604   8.101   3.202  14.409
49236SOL    HW149605   8.110   3.277  14.469
49236SOL    HW249606   8.050   3.236  14.336
49237SOL     OW49607   6.273  11.575   0.638
49237SOL    HW149608   6.302  11.567   0.729
49237SOL    HW249609   6.318  11.504   0.592
49238SOL     OW49610   2.042   7.019   4.776
49238SOL    HW149611   2.027   7.082   4.846
49238SOL    HW249612   2.103   6.956   4.813
49239SOL     OW49613  13.854   2.427  13.149
49239SOL    HW149614  13.791   2.404  13.217
49239SOL    HW249615  13.938   2.431  13.194
49240SOL     OW49616  10.159   2.355   0.680
49240SOL    HW149617  10.168   2.450   0.679
49240SOL    HW249618  10.151   2.331   0.588
49241SOL     OW49619  14.787  14.065   8.821
49241SOL    HW149620  14.834  13.988   8.789
49241SOL    HW249621  14.761  14.042   8.910
49242SOL     OW49622  14.486   8.879   1.121
49242SOL    HW149623  14.466   8.787   1.138
49242SOL    HW249624  14.461   8.893   1.030
49243SOL     OW49625   7.867  10.060   8.501
49243SOL    HW149626   7.938  10.004   8.533
49243SOL    HW249627   7.911  10.142   8.477
49244SOL     OW49628  10.833   4.458  11.174
49244SOL    HW149629  10.846   4.514  11.098
49244SOL    HW249630  10.822   4.519  11.247
49245SOL     OW49631  10.798   8.059  11.593
49245SOL    HW149632  10.790   8.098  11.506
49245SOL    HW249633  10.846   7.977  11.579
49246SOL     OW49634  10.302   5.464   4.165
49246SOL    HW149635  10.256   5.548   4.173
49246SOL    HW249636  10.270   5.426   4.084
49247SOL     OW49637   7.521  13.338   4.870
49247SOL    HW149638   7.525  13.252   4.913
49247SOL    HW249639   7.500  13.399   4.941
49248SOL     OW49640   8.678  14.641  11.943
49248SOL    HW149641   8.603  14.677  11.990
49248SOL    HW249642   8.752  14.695  11.971
49249SOL     OW49643   4.187   3.167   3.750
49249SOL    HW149644   4.222   3.111   3.819
49249SOL    HW249645   4.259   3.226   3.727
49250SOL     OW49646  12.463   9.110   6.638
49250SOL    HW149647  12.399   9.107   6.567
49250SOL    HW249648  12.548   9.102   6.594
49251SOL     OW49649  12.975  11.989   0.288
49251SOL    HW149650  12.943  12.074   0.319
49251SOL    HW249651  13.025  12.010   0.209
49252SOL     OW49652  11.214   8.676   5.684
49252SOL    HW149653  11.279   8.607   5.669
49252SOL    HW249654  11.149   8.663   5.615
49253SOL     OW49655  11.062   1.712  13.117
49253SOL    HW149656  11.036   1.796  13.079
49253SOL    HW249657  11.066   1.652  13.042
49254SOL     OW49658  10.401   8.863   2.448
49254SOL    HW149659  10.461   8.803   2.404
49254SOL    HW249660  10.314   8.838   2.415
49255SOL     OW49661   3.524   8.779   6.960
49255SOL    HW149662   3.616   8.778   6.986
49255SOL    HW249663   3.478   8.813   7.037
49256SOL     OW49664   8.680   9.993   6.048
49256SOL    HW149665   8.654  10.067   5.993
49256SOL    HW249666   8.717   9.929   5.987
49257SOL     OW49667   1.003  10.405   5.419
49257SOL    HW149668   0.952  10.372   5.493
49257SOL    HW249669   0.947  10.389   5.343
49258SOL     OW49670   9.773   6.195   8.445
49258SOL    HW149671   9.762   6.116   8.393
49258SOL    HW249672   9.868   6.204   8.456
49259SOL     OW49673   8.097   7.023   2.595
49259SOL    HW149674   8.130   7.048   2.681
49259SOL    HW249675   8.173   6.988   2.549
49260SOL     OW49676  12.352  13.444   4.871
49260SOL    HW149677  12.325  13.504   4.940
49260SOL    HW249678  12.274  13.431   4.818
49261SOL     OW49679   8.791   8.697   4.004
49261SOL    HW149680   8.823   8.610   3.980
49261SOL    HW249681   8.811   8.752   3.928
49262SOL     OW49682   1.866  10.535   6.912
49262SOL    HW149683   1.812  10.467   6.872
49262SOL    HW249684   1.825  10.617   6.885
49263SOL     OW49685  10.114   3.093   1.495
49263SOL    HW149686  10.192   3.037   1.492
49263SOL    HW249687  10.093   3.110   1.403
49264SOL     OW49688  11.684  14.397   0.249
49264SOL    HW149689  11.657  14.464   0.312
49264SOL    HW249690  11.666  14.314   0.294
49265SOL     OW49691   1.093   0.388   6.589
49265SOL    HW149692   1.185   0.409   6.569
49265SOL    HW249693   1.068   0.326   6.521
49266SOL     OW49694   5.414  11.273   2.443
49266SOL    HW149695   5.395  11.179   2.450
49266SOL    HW249696   5.475  11.290   2.514
49267SOL     OW49697  11.924   5.224  13.710
49267SOL    HW149698  11.839   5.207  13.752
49267SOL    HW249699  11.960   5.299  13.759
49268SOL     OW49700   9.819  13.188   8.244
49268SOL    HW149701   9.878  13.151   8.179
49268SOL    HW249702   9.732  13.157   8.219
49269SOL     OW49703   4.891   6.988  12.196
49269SOL    HW149704   4.912   6.914  12.138
49269SOL    HW249705   4.965   7.048  12.184
49270SOL     OW49706  10.820   7.355   3.601
49270SOL    HW149707  10.803   7.289   3.534
49270SOL    HW249708  10.894   7.320   3.651
49271SOL     OW49709   5.223   2.632   5.371
49271SOL    HW149710   5.175   2.599   5.295
49271SOL    HW249711   5.254   2.718   5.344
49272SOL     OW49712   4.392   0.359   4.870
49272SOL    HW149713   4.354   0.326   4.952
49272SOL    HW249714   4.482   0.382   4.893
49273SOL     OW49715   6.202   8.944   2.256
49273SOL    HW149716   6.250   9.019   2.293
49273SOL    HW249717   6.259   8.910   2.188
49274SOL     OW49718  13.675   3.257   6.040
49274SOL    HW149719  13.670   3.330   5.978
49274SOL    HW249720  13.689   3.298   6.125
49275SOL     OW49721  11.113   7.349   7.797
49275SOL    HW149722  11.146   7.436   7.821
49275SOL    HW249723  11.081   7.312   7.879
49276SOL     OW49724   6.684   6.858   5.487
49276SOL    HW149725   6.738   6.852   5.566
49276SOL    HW249726   6.704   6.777   5.439
49277SOL     OW49727   3.737   3.104  10.040
49277SOL    HW149728   3.743   3.009  10.029
49277SOL    HW249729   3.736   3.116  10.135
49278SOL     OW49730   0.844   7.712  14.517
49278SOL    HW149731   0.897   7.670  14.584
49278SOL    HW249732   0.890   7.694  14.435
49279SOL     OW49733   2.408   6.667  13.425
49279SOL    HW149734   2.476   6.729  13.452
49279SOL    HW249735   2.436   6.583  13.461
49280SOL     OW49736   1.606   2.981  13.840
49280SOL    HW149737   1.675   2.941  13.788
49280SOL    HW249738   1.652   3.040  13.900
49281SOL     OW49739   4.417   1.740   5.356
49281SOL    HW149740   4.414   1.696   5.440
49281SOL    HW249741   4.377   1.826   5.372
49282SOL     OW49742   6.656   7.650   5.136
49282SOL    HW149743   6.713   7.716   5.094
49282SOL    HW249744   6.610   7.699   5.204
49283SOL     OW49745   0.903  12.004   9.413
49283SOL    HW149746   0.931  12.021   9.503
49283SOL    HW249747   0.830  11.944   9.422
49284SOL     OW49748   6.575   0.633   6.303
49284SOL    HW149749   6.576   0.718   6.259
49284SOL    HW249750   6.618   0.573   6.242
49285SOL     OW49751  12.471   4.338   3.023
49285SOL    HW149752  12.515   4.289   2.953
49285SOL    HW249753  12.422   4.406   2.977
49286SOL     OW49754  14.702  10.256   4.610
49286SOL    HW149755  14.761  10.291   4.542
49286SOL    HW249756  14.740  10.171   4.633
49287SOL     OW49757  14.391   3.519   1.891
49287SOL    HW149758  14.377   3.425   1.906
49287SOL    HW249759  14.355   3.561   1.969
49288SOL     OW49760  13.784  14.739   9.614
49288SOL    HW149761  13.694  14.713   9.596
49288SOL    HW249762  13.816  14.672   9.675
49289SOL     OW49763   8.846   7.431  14.446
49289SOL    HW149764   8.763   7.422  14.494
49289SOL    HW249765   8.897   7.355  14.472
49290SOL     OW49766  14.284  14.050   1.575
49290SOL    HW149767  14.188  14.051   1.585
49290SOL    HW249768  14.299  14.086   1.487
49291SOL     OW49769  11.797   3.592   2.392
49291SOL    HW149770  11.734   3.530   2.355
49291SOL    HW249771  11.753   3.677   2.386
49292SOL     OW49772  13.157   1.831   8.940
49292SOL    HW149773  13.251   1.827   8.959
49292SOL    HW249774  13.150   1.802   8.849
49293SOL     OW49775   6.445   2.936  11.680
49293SOL    HW149776   6.527   2.981  11.699
49293SOL    HW249777   6.458   2.895  11.595
49294SOL     OW49778  11.162  12.448   7.469
49294SOL    HW149779  11.164  12.469   7.563
49294SOL    HW249780  11.078  12.483   7.440
49295SOL     OW49781  11.844   5.064   9.287
49295SOL    HW149782  11.865   5.155   9.263
49295SOL    HW249783  11.927   5.018   9.281
49296SOL     OW49784  10.605   2.295   3.876
49296SOL    HW149785  10.539   2.363   3.889
49296SOL    HW249786  10.640   2.311   3.789
49297SOL     OW49787   7.149   0.715   9.491
49297SOL    HW149788   7.103   0.668   9.422
49297SOL    HW249789   7.081   0.765   9.535
49298SOL     OW49790   7.549   5.595   5.189
49298SOL    HW149791   7.584   5.596   5.278
49298SOL    HW249792   7.495   5.673   5.183
49299SOL     OW49793   3.085   2.084   8.758
49299SOL    HW149794   3.101   2.063   8.850
49299SOL    HW249795   3.100   2.178   8.751
49300SOL     OW49796   6.031   4.325  14.372
49300SOL    HW149797   6.048   4.367  14.456
49300SOL    HW249798   6.046   4.394  14.307
49301SOL     OW49799  14.793  12.972  12.969
49301SOL    HW149800   0.014  12.994  12.992
49301SOL    HW249801  14.781  12.883  13.003
49302SOL     OW49802   2.132   3.942  11.127
49302SOL    HW149803   2.224   3.933  11.104
49302SOL    HW249804   2.100   4.014  11.073
49303SOL     OW49805  11.480  14.186   3.898
49303SOL    HW149806  11.530  14.230   3.968
49303SOL    HW249807  11.428  14.120   3.944
49304SOL     OW49808  11.038   1.712  10.581
49304SOL    HW149809  11.048   1.636  10.638
49304SOL    HW249810  11.037   1.675  10.492
49305SOL     OW49811  13.429   3.850  11.585
49305SOL    HW149812  13.508   3.904  11.583
49305SOL    HW249813  13.459   3.765  11.617
49306SOL     OW49814   1.840   0.257   1.190
49306SOL    HW149815   1.918   0.312   1.188
49306SOL    HW249816   1.874   0.167   1.185
49307SOL     OW49817  14.589   8.995  14.379
49307SOL    HW149818  14.551   8.914  14.346
49307SOL    HW249819  14.598   8.980  14.474
49308SOL     OW49820  13.259   7.670   6.318
49308SOL    HW149821  13.209   7.626   6.249
49308SOL    HW249822  13.248   7.615   6.395
49309SOL     OW49823   5.382   2.407  13.477
49309SOL    HW149824   5.354   2.473  13.540
49309SOL    HW249825   5.352   2.441  13.392
49310SOL     OW49826   9.612   1.020   1.773
49310SOL    HW149827   9.608   0.925   1.763
49310SOL    HW249828   9.573   1.037   1.859
49311SOL     OW49829  12.492  13.934   6.367
49311SOL    HW149830  12.445  13.939   6.283
49311SOL    HW249831  12.572  13.886   6.346
49312SOL     OW49832  11.825   5.766  10.942
49312SOL    HW149833  11.769   5.837  10.909
49312SOL    HW249834  11.890   5.752  10.873
49313SOL     OW49835  14.736   1.856   3.287
49313SOL    HW149836  14.722   1.777   3.234
49313SOL    HW249837  14.653   1.869   3.333
49314SOL     OW49838  13.950   0.345   4.309
49314SOL    HW149839  13.905   0.262   4.294
49314SOL    HW249840  14.023   0.344   4.247
49315SOL     OW49841   4.835   2.672   0.064
49315SOL    HW149842   4.837   2.577   0.061
49315SOL    HW249843   4.923   2.699   0.038
49316SOL     OW49844   1.245  12.479   2.106
49316SOL    HW149845   1.267  12.402   2.052
49316SOL    HW249846   1.328  12.506   2.145
49317SOL     OW49847   0.128   2.895  12.203
49317SOL    HW149848   0.174   2.814  12.224
49317SOL    HW249849   0.172   2.928  12.125
49318SOL     OW49850  10.504   0.982   2.715
49318SOL    HW149851  10.558   1.036   2.658
49318SOL    HW249852  10.457   1.044   2.770
49319SOL     OW49853   2.350   6.995  12.332
49319SOL    HW149854   2.393   6.917  12.366
49319SOL    HW249855   2.343   7.054  12.407
49320SOL     OW49856   4.283  14.595  11.820
49320SOL    HW149857   4.284  14.633  11.733
49320SOL    HW249858   4.260  14.503  11.807
49321SOL     OW49859   9.781  10.225   9.234
49321SOL    HW149860   9.772  10.194   9.144
49321SOL    HW249861   9.691  10.232   9.266
49322SOL     OW49862  13.068   1.026   6.878
49322SOL    HW149863  13.056   0.932   6.891
49322SOL    HW249864  13.134   1.032   6.808
49323SOL     OW49865   2.382   9.321   9.467
49323SOL    HW149866   2.427   9.316   9.551
49323SOL    HW249867   2.312   9.255   9.474
49324SOL     OW49868   6.308   4.175  10.169
49324SOL    HW149869   6.356   4.245  10.125
49324SOL    HW249870   6.376   4.117  10.203
49325SOL     OW49871   6.160   1.512  14.573
49325SOL    HW149872   6.159   1.419  14.597
49325SOL    HW249873   6.230   1.519  14.508
49326SOL     OW49874   2.640   2.869   0.480
49326SOL    HW149875   2.592   2.844   0.401
49326SOL    HW249876   2.723   2.822   0.474
49327SOL     OW49877   4.020   4.834   9.512
49327SOL    HW149878   4.099   4.792   9.478
49327SOL    HW249879   3.974   4.865   9.433
49328SOL     OW49880   7.330  11.202   9.058
49328SOL    HW149881   7.285  11.171   8.979
49328SOL    HW249882   7.332  11.125   9.116
49329SOL     OW49883   5.488  14.188   7.324
49329SOL    HW149884   5.530  14.223   7.403
49329SOL    HW249885   5.507  14.253   7.256
49330SOL     OW49886   0.580   6.258   4.864
49330SOL    HW149887   0.675   6.270   4.872
49330SOL    HW249888   0.547   6.266   4.953
49331SOL     OW49889  12.765  10.474  14.115
49331SOL    HW149890  12.725  10.438  14.036
49331SOL    HW249891  12.805  10.556  14.087
49332SOL     OW49892  11.131   0.910   9.696
49332SOL    HW149893  11.225   0.899   9.704
49332SOL    HW249894  11.103   0.837   9.641
49333SOL     OW49895   6.593   1.010   5.373
49333SOL    HW149896   6.593   0.978   5.282
49333SOL    HW249897   6.566   0.935   5.425
49334SOL     OW49898   2.425   7.263  10.769
49334SOL    HW149899   2.388   7.198  10.709
49334SOL    HW249900   2.518   7.264  10.748
49335SOL     OW49901  13.619  12.943   6.959
49335SOL    HW149902  13.605  12.991   7.040
49335SOL    HW249903  13.536  12.950   6.911
49336SOL     OW49904   4.037  13.325   3.703
49336SOL    HW149905   4.116  13.349   3.654
49336SOL    HW249906   4.070  13.282   3.782
49337SOL     OW49907  13.820   3.465  13.523
49337SOL    HW149908  13.872   3.416  13.586
49337SOL    HW249909  13.796   3.546  13.569
49338SOL     OW49910  13.555   7.161   2.362
49338SOL    HW149911  13.497   7.187   2.433
49338SOL    HW249912  13.553   7.065   2.364
49339SOL     OW49913  14.733   3.695   0.936
49339SOL    HW149914  14.755   3.786   0.957
49339SOL    HW249915  14.670   3.703   0.863
49340SOL     OW49916   9.064  12.982   8.980
49340SOL    HW149917   9.038  13.070   8.954
49340SOL    HW249918   9.005  12.924   8.931
49341SOL     OW49919  12.680  13.344   5.044
49341SOL    HW149920  12.597  13.297   5.031
49341SOL    HW249921  12.685  13.403   4.969
49342SOL     OW49922  12.560  11.007   8.319
49342SOL    HW149923  12.585  10.944   8.386
49342SOL    HW249924  12.606  11.087   8.343
49343SOL     OW49925   8.674   5.003   9.462
49343SOL    HW149926   8.746   4.941   9.473
49343SOL    HW249927   8.717   5.085   9.437
49344SOL     OW49928   8.732   7.462   6.935
49344SOL    HW149929   8.697   7.378   6.906
49344SOL    HW249930   8.682   7.483   7.014
49345SOL     OW49931  13.865   1.780   5.396
49345SOL    HW149932  13.793   1.771   5.333
49345SOL    HW249933  13.823   1.791   5.481
49346SOL     OW49934   2.859   8.072   2.880
49346SOL    HW149935   2.939   8.125   2.878
49346SOL    HW249936   2.802   8.116   2.944
49347SOL     OW49937   8.523   7.998   5.311
49347SOL    HW149938   8.522   8.092   5.333
49347SOL    HW249939   8.500   7.995   5.218
49348SOL     OW49940  13.831  14.205   1.326
49348SOL    HW149941  13.774  14.200   1.249
49348SOL    HW249942  13.907  14.255   1.297
49349SOL     OW49943   8.242   3.534   2.692
49349SOL    HW149944   8.319   3.586   2.716
49349SOL    HW249945   8.189   3.593   2.638
49350SOL     OW49946   7.070  11.072  10.579
49350SOL    HW149947   7.156  11.112  10.596
49350SOL    HW249948   7.007  11.132  10.618
49351SOL     OW49949   6.189   9.629   9.900
49351SOL    HW149950   6.256   9.560   9.897
49351SOL    HW249951   6.107   9.584   9.882
49352SOL     OW49952  13.491  11.138  10.269
49352SOL    HW149953  13.472  11.066  10.328
49352SOL    HW249954  13.546  11.099  10.201
49353SOL     OW49955   0.765  10.394   3.175
49353SOL    HW149956   0.739  10.350   3.256
49353SOL    HW249957   0.830  10.335   3.136
49354SOL     OW49958   4.484   1.819  11.641
49354SOL    HW149959   4.412   1.756  11.640
49354SOL    HW249960   4.448   1.899  11.603
49355SOL     OW49961   7.650  13.977   0.126
49355SOL    HW149962   7.600  13.895   0.127
49355SOL    HW249963   7.600  14.035   0.068
49356SOL     OW49964   9.420  10.554  11.461
49356SOL    HW149965   9.363  10.625  11.432
49356SOL    HW249966   9.422  10.493  11.387
49357SOL     OW49967  10.010   9.890   2.333
49357SOL    HW149968   9.987   9.978   2.305
49357SOL    HW249969  10.005   9.892   2.428
49358SOL     OW49970   9.719  12.947   9.595
49358SOL    HW149971   9.733  13.028   9.545
49358SOL    HW249972   9.626  12.927   9.582
49359SOL     OW49973   5.764   7.379  12.642
49359SOL    HW149974   5.685   7.413  12.684
49359SOL    HW249975   5.798   7.453  12.591
49360SOL     OW49976   3.491   1.072   6.810
49360SOL    HW149977   3.478   0.993   6.862
49360SOL    HW249978   3.402   1.106   6.797
49361SOL     OW49979   5.982   0.926  12.190
49361SOL    HW149980   6.015   0.944  12.279
49361SOL    HW249981   5.994   0.831  12.179
49362SOL     OW49982  10.495   9.939   4.899
49362SOL    HW149983  10.573   9.990   4.920
49362SOL    HW249984  10.423  10.001   4.904
49363SOL     OW49985  11.649   1.459   8.468
49363SOL    HW149986  11.637   1.525   8.536
49363SOL    HW249987  11.738   1.427   8.481
49364SOL     OW49988   7.084   1.717   7.184
49364SOL    HW149989   7.115   1.647   7.243
49364SOL    HW249990   7.046   1.670   7.110
49365SOL     OW49991   4.645  10.356   0.766
49365SOL    HW149992   4.711  10.413   0.727
49365SOL    HW249993   4.684  10.328   0.849
49366SOL     OW49994   6.638  12.355   8.328
49366SOL    HW149995   6.729  12.358   8.357
49366SOL    HW249996   6.623  12.440   8.286
49367SOL     OW49997   4.927  14.292   2.646
49367SOL    HW149998   4.874  14.238   2.705
49367SOL    HW249999   5.004  14.237   2.627
49368SOL     OW50000   3.513   9.855   0.417
49368SOL    HW150001   3.598   9.889   0.389
49368SOL    HW250002   3.531   9.815   0.502
49369SOL     OW50003   6.863   2.277  12.580
49369SOL    HW150004   6.799   2.272  12.509
49369SOL    HW250005   6.822   2.334  12.645
49370SOL     OW50006  12.141   3.216  14.071
49370SOL    HW150007  12.111   3.193  13.982
49370SOL    HW250008  12.072   3.182  14.128
49371SOL     OW50009   1.996   9.835   5.943
49371SOL    HW150010   1.931   9.776   5.979
49371SOL    HW250011   2.040   9.785   5.875
49372SOL     OW50012   3.238   8.994  13.882
49372SOL    HW150013   3.181   8.941  13.825
49372SOL    HW250014   3.308   8.935  13.908
49373SOL     OW50015  13.972   2.473   5.563
49373SOL    HW150016  14.025   2.527   5.621
49373SOL    HW250017  13.911   2.535   5.522
49374SOL     OW50018   4.686   6.540   0.821
49374SOL    HW150019   4.612   6.504   0.772
49374SOL    HW250020   4.749   6.469   0.825
49375SOL     OW50021   3.602  14.144   7.764
49375SOL    HW150022   3.543  14.196   7.709
49375SOL    HW250023   3.673  14.119   7.706
49376SOL     OW50024   5.164   8.725   1.366
49376SOL    HW150025   5.160   8.647   1.420
49376SOL    HW250026   5.236   8.708   1.304
49377SOL     OW50027   4.326  12.250   9.522
49377SOL    HW150028   4.271  12.185   9.567
49377SOL    HW250029   4.381  12.286   9.591
49378SOL     OW50030  11.903  10.866   3.923
49378SOL    HW150031  11.965  10.938   3.932
49378SOL    HW250032  11.916  10.812   4.001
49379SOL     OW50033  10.499   2.058  14.511
49379SOL    HW150034  10.568   2.028  14.452
49379SOL    HW250035  10.545   2.112  14.575
49380SOL     OW50036  10.356  14.849  12.043
49380SOL    HW150037  10.432   0.034  12.023
49380SOL    HW250038  10.320   0.017  12.123
49381SOL     OW50039   1.006   4.798   9.579
49381SOL    HW150040   1.085   4.770   9.626
49381SOL    HW250041   1.035   4.813   9.490
49382SOL     OW50042   6.935  12.702   0.677
49382SOL    HW150043   6.969  12.786   0.648
49382SOL    HW250044   6.987  12.679   0.754
49383SOL     OW50045   3.065  14.488  11.020
49383SOL    HW150046   3.158  14.485  11.042
49383SOL    HW250047   3.032  14.401  11.042
49384SOL     OW50048   1.083  13.948   1.212
49384SOL    HW150049   1.137  13.869   1.211
49384SOL    HW250050   1.070  13.967   1.305
49385SOL     OW50051   1.364   2.495  14.478
49385SOL    HW150052   1.333   2.459  14.396
49385SOL    HW250053   1.343   2.588  14.473
49386SOL     OW50054   3.956   5.336  13.216
49386SOL    HW150055   3.941   5.428  13.195
49386SOL    HW250056   4.025   5.337  13.281
49387SOL     OW50057   8.961   1.319   2.201
49387SOL    HW150058   9.027   1.304   2.133
49387SOL    HW250059   8.980   1.406   2.235
49388SOL     OW50060  13.215   7.678   0.849
49388SOL    HW150061  13.199   7.771   0.860
49388SOL    HW250062  13.305   7.672   0.816
49389SOL     OW50063  12.523   4.999  13.448
49389SOL    HW150064  12.451   4.965  13.395
49389SOL    HW250065  12.596   4.939  13.430
49390SOL     OW50066   7.067   7.151   1.925
49390SOL    HW150067   7.051   7.078   1.866
49390SOL    HW250068   7.046   7.229   1.874
49391SOL     OW50069   0.456   4.296   2.059
49391SOL    HW150070   0.373   4.249   2.071
49391SOL    HW250071   0.521   4.237   2.097
49392SOL     OW50072  13.239   9.512   5.393
49392SOL    HW150073  13.233   9.562   5.474
49392SOL    HW250074  13.182   9.558   5.332
49393SOL     OW50075  12.240   0.420  14.218
49393SOL    HW150076  12.182   0.404  14.144
49393SOL    HW250077  12.189   0.474  14.278
49394SOL     OW50078   7.451  10.531   9.039
49394SOL    HW150079   7.510  10.460   9.064
49394SOL    HW250080   7.504  10.610   9.049
49395SOL     OW50081   7.467  14.272   9.398
49395SOL    HW150082   7.468  14.295   9.305
49395SOL    HW250083   7.451  14.177   9.399
49396SOL     OW50084   2.966   1.460   4.703
49396SOL    HW150085   2.935   1.550   4.700
49396SOL    HW250086   2.959   1.429   4.612
49397SOL     OW50087  14.417   1.366   8.916
49397SOL    HW150088  14.362   1.333   8.987
49397SOL    HW250089  14.385   1.454   8.899
49398SOL     OW50090   5.358   5.589   3.976
49398SOL    HW150091   5.338   5.629   4.061
49398SOL    HW250092   5.285   5.530   3.960
49399SOL     OW50093   1.629   1.243   9.058
49399SOL    HW150094   1.549   1.234   9.005
49399SOL    HW250095   1.686   1.172   9.028
49400SOL     OW50096   0.659   7.932   8.382
49400SOL    HW150097   0.740   7.946   8.332
49400SOL    HW250098   0.589   7.947   8.319
49401SOL     OW50099   7.627   4.574  14.219
49401SOL    HW150100   7.619   4.508  14.288
49401SOL    HW250101   7.550   4.562  14.164
49402SOL     OW50102   1.549   1.378   5.008
49402SOL    HW150103   1.504   1.461   4.997
49402SOL    HW250104   1.631   1.388   4.960
49403SOL     OW50105  14.428   9.630   5.388
49403SOL    HW150106  14.403   9.658   5.300
49403SOL    HW250107  14.345   9.604   5.429
49404SOL     OW50108   4.744   7.929   3.146
49404SOL    HW150109   4.721   8.013   3.105
49404SOL    HW250110   4.685   7.866   3.106
49405SOL     OW50111  13.330   0.511  14.201
49405SOL    HW150112  13.354   0.445  14.137
49405SOL    HW250113  13.377   0.590  14.173
49406SOL     OW50114  13.368   0.163  12.603
49406SOL    HW150115  13.450   0.180  12.649
49406SOL    HW250116  13.382   0.197  12.514
49407SOL     OW50117   5.781   1.411   2.463
49407SOL    HW150118   5.823   1.347   2.520
49407SOL    HW250119   5.726   1.462   2.522
49408SOL     OW50120  13.206  14.517   8.918
49408SOL    HW150121  13.162  14.509   9.003
49408SOL    HW250122  13.185  14.605   8.889
49409SOL     OW50123   2.685   8.656   5.433
49409SOL    HW150124   2.621   8.669   5.504
49409SOL    HW250125   2.631   8.644   5.355
49410SOL     OW50126   5.182   9.639   8.310
49410SOL    HW150127   5.095   9.662   8.277
49410SOL    HW250128   5.218   9.581   8.243
49411SOL     OW50129   0.554  11.384  11.386
49411SOL    HW150130   0.547  11.461  11.330
49411SOL    HW250131   0.541  11.310  11.326
49412SOL     OW50132   7.142   6.855   1.802
49412SOL    HW150133   7.091   6.827   1.725
49412SOL    HW250134   7.224   6.887   1.765
49413SOL     OW50135   9.881   0.643   7.471
49413SOL    HW150136   9.802   0.676   7.513
49413SOL    HW250137   9.888   0.693   7.390
49414SOL     OW50138   9.986  13.278   1.624
49414SOL    HW150139   9.990  13.216   1.551
49414SOL    HW250140   9.992  13.364   1.582
49415SOL     OW50141   7.701  11.001   6.503
49415SOL    HW150142   7.782  11.039   6.537
49415SOL    HW250143   7.633  11.064   6.528
49416SOL     OW50144  11.981   8.190  12.088
49416SOL    HW150145  12.004   8.211  12.178
49416SOL    HW250146  11.887   8.207  12.082
49417SOL     OW50147   7.848  13.547   4.157
49417SOL    HW150148   7.775  13.496   4.122
49417SOL    HW250149   7.926  13.496   4.134
49418SOL     OW50150   1.959   2.407   2.677
49418SOL    HW150151   1.951   2.466   2.602
49418SOL    HW250152   1.948   2.463   2.754
49419SOL     OW50153  12.966   7.800  10.046
49419SOL    HW150154  12.876   7.784  10.019
49419SOL    HW250155  13.019   7.747   9.987
49420SOL     OW50156   0.691  10.875  13.148
49420SOL    HW150157   0.641  10.953  13.172
49420SOL    HW250158   0.723  10.841  13.232
49421SOL     OW50159   0.358   5.443   5.619
49421SOL    HW150160   0.314   5.464   5.537
49421SOL    HW250161   0.288   5.413   5.677
49422SOL     OW50162   2.796  13.127   1.082
49422SOL    HW150163   2.780  13.037   1.109
49422SOL    HW250164   2.775  13.129   0.989
49423SOL     OW50165   9.543   3.527  12.899
49423SOL    HW150166   9.612   3.464  12.921
49423SOL    HW250167   9.469   3.473  12.874
49424SOL     OW50168   3.143   2.347   8.767
49424SOL    HW150169   3.168   2.379   8.854
49424SOL    HW250170   3.081   2.412   8.735
49425SOL     OW50171   8.183  11.368  10.036
49425SOL    HW150172   8.271  11.356  10.000
49425SOL    HW250173   8.198  11.402  10.125
49426SOL     OW50174   4.272   6.333  12.550
49426SOL    HW150175   4.320   6.314  12.470
49426SOL    HW250176   4.338   6.370  12.609
49427SOL     OW50177   4.127   2.720   6.773
49427SOL    HW150178   4.162   2.700   6.860
49427SOL    HW250179   4.199   2.701   6.713
49428SOL     OW50180   0.697   5.788   8.873
49428SOL    HW150181   0.742   5.859   8.828
49428SOL    HW250182   0.726   5.709   8.828
49429SOL     OW50183  14.166   4.733   9.568
49429SOL    HW150184  14.228   4.803   9.586
49429SOL    HW250185  14.124   4.714   9.652
49430SOL     OW50186   8.029   2.885   0.832
49430SOL    HW150187   7.936   2.863   0.828
49430SOL    HW250188   8.051   2.913   0.743
49431SOL     OW50189   7.252   3.981   8.211
49431SOL    HW150190   7.348   3.980   8.210
49431SOL    HW250191   7.230   4.009   8.299
49432SOL     OW50192  10.936   9.323   7.830
49432SOL    HW150193  10.959   9.338   7.738
49432SOL    HW250194  10.847   9.287   7.826
49433SOL     OW50195  10.725   5.108   2.381
49433SOL    HW150196  10.746   5.128   2.290
49433SOL    HW250197  10.743   5.189   2.428
49434SOL     OW50198   7.945   6.531  13.409
49434SOL    HW150199   7.863   6.578  13.399
49434SOL    HW250200   7.975   6.552  13.498
49435SOL     OW50201   1.269   3.168  11.981
49435SOL    HW150202   1.181   3.166  11.942
49435SOL    HW250203   1.285   3.077  12.007
49436SOL     OW50204   9.187   0.499   8.913
49436SOL    HW150205   9.095   0.483   8.895
49436SOL    HW250206   9.193   0.495   9.009
49437SOL     OW50207   8.188   5.998   9.031
49437SOL    HW150208   8.223   6.046   9.106
49437SOL    HW250209   8.094   5.991   9.048
49438SOL     OW50210   4.496  11.686   7.367
49438SOL    HW150211   4.581  11.706   7.407
49438SOL    HW250212   4.519  11.647   7.283
49439SOL     OW50213  12.190  13.228  13.680
49439SOL    HW150214  12.273  13.214  13.633
49439SOL    HW250215  12.201  13.314  13.721
49440SOL     OW50216   8.991  13.131   8.750
49440SOL    HW150217   8.927  13.082   8.699
49440SOL    HW250218   8.984  13.221   8.717
49441SOL     OW50219   6.605   6.650  12.208
49441SOL    HW150220   6.668   6.594  12.252
49441SOL    HW250221   6.569   6.705  12.277
49442SOL     OW50222  10.384   9.977  10.651
49442SOL    HW150223  10.352  10.065  10.669
49442SOL    HW250224  10.433   9.986  10.569
49443SOL     OW50225   2.508  13.780   9.414
49443SOL    HW150226   2.515  13.704   9.357
49443SOL    HW250227   2.587  13.779   9.467
49444SOL     OW50228  10.330   2.209  12.398
49444SOL    HW150229  10.327   2.299  12.365
49444SOL    HW250230  10.387   2.163  12.337
49445SOL     OW50231   1.345  11.956   9.293
49445SOL    HW150232   1.346  12.008   9.212
49445SOL    HW250233   1.348  12.020   9.363
49446SOL     OW50234  13.782  13.545   8.344
49446SOL    HW150235  13.739  13.508   8.266
49446SOL    HW250236  13.746  13.495   8.417
49447SOL     OW50237   1.770  10.027  10.940
49447SOL    HW150238   1.789   9.938  10.970
49447SOL    HW250239   1.827  10.039  10.864
49448SOL     OW50240   3.833   9.740  14.682
49448SOL    HW150241   3.747   9.778  14.695
49448SOL    HW250242   3.891   9.815  14.669
49449SOL     OW50243   0.425   9.329   4.285
49449SOL    HW150244   0.438   9.393   4.215
49449SOL    HW250245   0.359   9.270   4.251
49450SOL     OW50246   5.713   3.046   1.617
49450SOL    HW150247   5.642   3.099   1.579
49450SOL    HW250248   5.742   2.990   1.544
49451SOL     OW50249  11.475   4.788   1.776
49451SOL    HW150250  11.449   4.803   1.867
49451SOL    HW250251  11.508   4.873   1.746
49452SOL     OW50252   6.647   2.129   7.234
49452SOL    HW150253   6.702   2.170   7.167
49452SOL    HW250254   6.656   2.035   7.218
49453SOL     OW50255   9.184  11.372  11.025
49453SOL    HW150256   9.122  11.318  11.075
49453SOL    HW250257   9.259  11.315  11.012
49454SOL     OW50258   3.032   9.039  14.095
49454SOL    HW150259   3.105   9.085  14.135
49454SOL    HW250260   3.065   8.951  14.077
49455SOL     OW50261   3.814  14.000   3.381
49455SOL    HW150262   3.813  13.972   3.290
49455SOL    HW250263   3.746  13.948   3.424
49456SOL     OW50264   6.360   6.757  14.600
49456SOL    HW150265   6.303   6.834  14.603
49456SOL    HW250266   6.382   6.739  14.692
49457SOL     OW50267  12.898   3.674   8.884
49457SOL    HW150268  12.854   3.656   8.802
49457SOL    HW250269  12.951   3.752   8.866
49458SOL     OW50270   2.112   9.551   3.089
49458SOL    HW150271   2.205   9.576   3.085
49458SOL    HW250272   2.064   9.631   3.069
49459SOL     OW50273  13.850  12.360   5.842
49459SOL    HW150274  13.883  12.450   5.843
49459SOL    HW250275  13.788  12.357   5.916
49460SOL     OW50276   0.135   6.844  14.814
49460SOL    HW150277   0.128   6.762  14.766
49460SOL    HW250278   0.150   6.911  14.747
49461SOL     OW50279   9.459  13.589   8.862
49461SOL    HW150280   9.366  13.594   8.885
49461SOL    HW250281   9.461  13.594   8.767
49462SOL     OW50282   3.827   5.104   8.385
49462SOL    HW150283   3.734   5.104   8.361
49462SOL    HW250284   3.873   5.100   8.301
49463SOL     OW50285   8.199   4.044   7.529
49463SOL    HW150286   8.197   4.130   7.571
49463SOL    HW250287   8.107   4.017   7.524
49464SOL     OW50288   5.804  11.610   4.630
49464SOL    HW150289   5.852  11.676   4.581
49464SOL    HW250290   5.868  11.541   4.648
49465SOL     OW50291   7.819  13.073  11.104
49465SOL    HW150292   7.822  13.142  11.170
49465SOL    HW250293   7.736  13.086  11.059
49466SOL     OW50294  10.201  11.641  13.458
49466SOL    HW150295  10.237  11.570  13.512
49466SOL    HW250296  10.276  11.675  13.410
49467SOL     OW50297  13.293   5.136   0.456
49467SOL    HW150298  13.286   5.207   0.392
49467SOL    HW250299  13.376   5.094   0.436
49468SOL     OW50300  13.540   7.874   8.719
49468SOL    HW150301  13.585   7.957   8.735
49468SOL    HW250302  13.605   7.807   8.740
49469SOL     OW50303  14.191  14.074  13.484
49469SOL    HW150304  14.230  14.120  13.410
49469SOL    HW250305  14.215  13.982  13.470
49470SOL     OW50306   7.347  11.000   5.872
49470SOL    HW150307   7.396  11.077   5.899
49470SOL    HW250308   7.316  11.021   5.784
49471SOL     OW50309  10.655  14.216  14.314
49471SOL    HW150310  10.569  14.211  14.355
49471SOL    HW250311  10.668  14.129  14.275
49472SOL     OW50312  10.438   3.433   5.876
49472SOL    HW150313  10.504   3.370   5.848
49472SOL    HW250314  10.413   3.479   5.796
49473SOL     OW50315  10.739   8.136   3.215
49473SOL    HW150316  10.708   8.046   3.217
49473SOL    HW250317  10.666   8.187   3.251
49474SOL     OW50318   8.747   3.674  14.662
49474SOL    HW150319   8.806   3.599  14.663
49474SOL    HW250320   8.804   3.749  14.680
49475SOL     OW50321   6.637   0.116   8.089
49475SOL    HW150322   6.654   0.137   8.181
49475SOL    HW250323   6.552   0.072   8.090
49476SOL     OW50324  11.925  11.518  11.955
49476SOL    HW150325  11.955  11.478  12.037
49476SOL    HW250326  11.984  11.482  11.888
49477SOL     OW50327  10.992   3.684   0.827
49477SOL    HW150328  10.964   3.725   0.745
49477SOL    HW250329  10.923   3.707   0.890
49478SOL     OW50330   8.320   3.965  12.154
49478SOL    HW150331   8.302   4.058  12.142
49478SOL    HW250332   8.415   3.958  12.143
49479SOL     OW50333   6.423   3.264   7.763
49479SOL    HW150334   6.389   3.278   7.851
49479SOL    HW250335   6.508   3.309   7.762
49480SOL     OW50336   3.778   0.649   1.683
49480SOL    HW150337   3.822   0.636   1.767
49480SOL    HW250338   3.713   0.716   1.701
49481SOL     OW50339   6.627   6.227  14.535
49481SOL    HW150340   6.704   6.275  14.506
49481SOL    HW250341   6.565   6.235  14.462
49482SOL     OW50342   8.124   3.922   8.135
49482SOL    HW150343   8.072   3.843   8.117
49482SOL    HW250344   8.196   3.891   8.190
49483SOL     OW50345  11.162  14.519   9.215
49483SOL    HW150346  11.127  14.581   9.279
49483SOL    HW250347  11.135  14.433   9.248
49484SOL     OW50348  13.899  10.006  10.958
49484SOL    HW150349  13.960   9.974  10.892
49484SOL    HW250350  13.875   9.929  11.008
49485SOL     OW50351  14.747  12.112   1.020
49485SOL    HW150352  14.733  12.051   0.948
49485SOL    HW250353  14.708  12.194   0.989
49486SOL     OW50354  10.588   4.887  11.227
49486SOL    HW150355  10.508   4.939  11.213
49486SOL    HW250356  10.627   4.924  11.306
49487SOL     OW50357  12.195  10.420  11.648
49487SOL    HW150358  12.231  10.375  11.572
49487SOL    HW250359  12.106  10.444  11.622
49488SOL     OW50360   6.620   8.429   8.131
49488SOL    HW150361   6.680   8.401   8.200
49488SOL    HW250362   6.586   8.514   8.161
49489SOL     OW50363   3.109   5.195  13.307
49489SOL    HW150364   3.203   5.184  13.293
49489SOL    HW250365   3.092   5.153  13.391
49490SOL     OW50366   9.733   1.963   2.947
49490SOL    HW150367   9.666   1.897   2.969
49490SOL    HW250368   9.728   2.026   3.019
49491SOL     OW50369   7.221  13.763  14.360
49491SOL    HW150370   7.251  13.854  14.356
49491SOL    HW250371   7.203  13.740  14.269
49492SOL     OW50372  10.887   1.641   8.572
49492SOL    HW150373  10.982   1.642   8.584
49492SOL    HW250374  10.859   1.558   8.610
49493SOL     OW50375  12.565   7.268  14.253
49493SOL    HW150376  12.584   7.218  14.332
49493SOL    HW250377  12.557   7.359  14.284
49494SOL     OW50378  10.924  11.016   0.286
49494SOL    HW150379  10.840  11.060   0.293
49494SOL    HW250380  10.920  10.970   0.202
49495SOL     OW50381   3.364   0.530  12.683
49495SOL    HW150382   3.331   0.559  12.768
49495SOL    HW250383   3.316   0.583  12.619
49496SOL     OW50384   1.350   4.081  11.925
49496SOL    HW150385   1.427   4.025  11.919
49496SOL    HW250386   1.293   4.036  11.986
49497SOL     OW50387  12.221   0.686   8.023
49497SOL    HW150388  12.224   0.762   7.965
49497SOL    HW250389  12.243   0.612   7.966
49498SOL     OW50390   8.643   6.735   1.730
49498SOL    HW150391   8.714   6.727   1.794
49498SOL    HW250392   8.675   6.799   1.667
49499SOL     OW50393  10.792   8.640   0.191
49499SOL    HW150394  10.769   8.708   0.129
49499SOL    HW250395  10.709   8.605   0.222
49500SOL     OW50396  13.445   0.644   4.915
49500SOL    HW150397  13.431   0.653   4.821
49500SOL    HW250398  13.361   0.668   4.954
49501SOL     OW50399   4.069   7.805   3.004
49501SOL    HW150400   4.143   7.755   3.038
49501SOL    HW250401   4.004   7.802   3.075
49502SOL     OW50402   5.326   6.675   9.068
49502SOL    HW150403   5.364   6.612   9.129
49502SOL    HW250404   5.262   6.625   9.018
49503SOL     OW50405  11.749   7.406   0.371
49503SOL    HW150406  11.771   7.474   0.308
49503SOL    HW250407  11.832   7.364   0.393
49504SOL     OW50408  14.146   2.021   9.551
49504SOL    HW150409  14.196   2.068   9.618
49504SOL    HW250410  14.110   2.089   9.494
49505SOL     OW50411  13.511  13.056  11.804
49505SOL    HW150412  13.579  12.993  11.782
49505SOL    HW250413  13.448  13.050  11.732
49506SOL     OW50414  14.061  14.537  12.739
49506SOL    HW150415  13.981  14.579  12.707
49506SOL    HW250416  14.099  14.496  12.661
49507SOL     OW50417   3.938   8.749  14.715
49507SOL    HW150418   3.929   8.675  14.776
49507SOL    HW250419   3.851   8.789  14.713
49508SOL     OW50420   0.678  11.464   2.267
49508SOL    HW150421   0.724  11.422   2.340
49508SOL    HW250422   0.594  11.490   2.304
49509SOL     OW50423   1.298   9.324   5.690
49509SOL    HW150424   1.352   9.282   5.623
49509SOL    HW250425   1.350   9.315   5.771
49510SOL     OW50426  12.479   5.371  13.773
49510SOL    HW150427  12.518   5.366  13.860
49510SOL    HW250428  12.408   5.435  13.781
49511SOL     OW50429  10.285   6.382   7.422
49511SOL    HW150430  10.242   6.463   7.449
49511SOL    HW250431  10.224   6.312   7.449
49512SOL     OW50432   3.217   5.948   6.303
49512SOL    HW150433   3.131   5.935   6.263
49512SOL    HW250434   3.275   5.970   6.230
49513SOL     OW50435   2.798   4.235   7.707
49513SOL    HW150436   2.862   4.253   7.776
49513SOL    HW250437   2.771   4.322   7.677
49514SOL     OW50438   1.183   8.255  11.501
49514SOL    HW150439   1.247   8.322  11.522
49514SOL    HW250440   1.136   8.289  11.425
49515SOL     OW50441   4.011   3.269   4.212
49515SOL    HW150442   4.016   3.191   4.156
49515SOL    HW250443   3.922   3.267   4.247
49516SOL     OW50444  12.928   1.784   0.882
49516SOL    HW150445  12.958   1.712   0.937
49516SOL    HW250446  12.911   1.855   0.944
49517SOL     OW50447  10.907   6.118   2.454
49517SOL    HW150448  10.931   6.025   2.452
49517SOL    HW250449  10.990   6.164   2.469
49518SOL     OW50450  12.120   4.198   9.140
49518SOL    HW150451  12.037   4.200   9.092
49518SOL    HW250452  12.094   4.205   9.232
49519SOL     OW50453   0.380   0.629   2.409
49519SOL    HW150454   0.394   0.717   2.375
49519SOL    HW250455   0.304   0.637   2.467
49520SOL     OW50456  12.189   1.366   4.779
49520SOL    HW150457  12.123   1.322   4.725
49520SOL    HW250458  12.247   1.295   4.807
49521SOL     OW50459   3.281  11.937  11.628
49521SOL    HW150460   3.284  11.971  11.718
49521SOL    HW250461   3.214  11.989  11.585
49522SOL     OW50462   8.097   5.258   5.597
49522SOL    HW150463   8.091   5.164   5.611
49522SOL    HW250464   8.042   5.297   5.666
49523SOL     OW50465  12.115   5.843  10.636
49523SOL    HW150466  12.131   5.818  10.546
49523SOL    HW250467  12.199   5.878  10.667
49524SOL     OW50468   3.171   1.495   9.909
49524SOL    HW150469   3.253   1.536   9.882
49524SOL    HW250470   3.134   1.459   9.828
49525SOL     OW50471   3.657  12.104  12.725
49525SOL    HW150472   3.667  12.028  12.782
49525SOL    HW250473   3.615  12.170  12.780
49526SOL     OW50474   9.356  10.639   8.418
49526SOL    HW150475   9.297  10.684   8.359
49526SOL    HW250476   9.300  10.609   8.491
49527SOL     OW50477  10.876   9.528   5.345
49527SOL    HW150478  10.796   9.475   5.352
49527SOL    HW250479  10.925   9.509   5.425
49528SOL     OW50480   4.762   6.256   1.496
49528SOL    HW150481   4.821   6.296   1.560
49528SOL    HW250482   4.687   6.315   1.493
49529SOL     OW50483  10.008  12.328   5.806
49529SOL    HW150484  10.070  12.261   5.836
49529SOL    HW250485  10.034  12.345   5.715
49530SOL     OW50486   6.400   0.130   1.356
49530SOL    HW150487   6.377   0.067   1.425
49530SOL    HW250488   6.323   0.187   1.349
49531SOL     OW50489   9.508   0.631  13.731
49531SOL    HW150490   9.492   0.642  13.825
49531SOL    HW250491   9.422   0.644  13.691
49532SOL     OW50492  11.342   9.775   0.920
49532SOL    HW150493  11.254   9.756   0.955
49532SOL    HW250494  11.364   9.861   0.956
49533SOL     OW50495  12.039   8.186   1.268
49533SOL    HW150496  12.038   8.212   1.176
49533SOL    HW250497  12.075   8.097   1.268
49534SOL     OW50498  11.009  13.300   0.881
49534SOL    HW150499  11.080  13.361   0.859
49534SOL    HW250500  10.961  13.290   0.799
49535SOL     OW50501  12.146  13.844   1.931
49535SOL    HW150502  12.200  13.899   1.987
49535SOL    HW250503  12.185  13.853   1.844
49536SOL     OW50504   0.695   8.101   3.803
49536SOL    HW150505   0.639   8.023   3.806
49536SOL    HW250506   0.738   8.097   3.718
49537SOL     OW50507   9.517   7.008   9.673
49537SOL    HW150508   9.538   6.920   9.703
49537SOL    HW250509   9.561   7.016   9.588
49538SOL     OW50510  10.246   1.764   4.407
49538SOL    HW150511  10.196   1.736   4.330
49538SOL    HW250512  10.197   1.839   4.441
49539SOL     OW50513  12.615   7.417  12.981
49539SOL    HW150514  12.570   7.412  13.065
49539SOL    HW250515  12.586   7.500  12.943
49540SOL     OW50516   9.780   5.932   7.878
49540SOL    HW150517   9.808   5.899   7.963
49540SOL    HW250518   9.685   5.922   7.879
49541SOL     OW50519   0.457   7.790   1.161
49541SOL    HW150520   0.376   7.749   1.129
49541SOL    HW250521   0.526   7.753   1.106
49542SOL     OW50522   3.609  10.232   2.928
49542SOL    HW150523   3.567  10.202   2.848
49542SOL    HW250524   3.681  10.171   2.942
49543SOL     OW50525   4.359   9.037   6.110
49543SOL    HW150526   4.407   9.084   6.041
49543SOL    HW250527   4.366   9.094   6.186
49544SOL     OW50528   1.542  13.546   1.862
49544SOL    HW150529   1.624  13.577   1.824
49544SOL    HW250530   1.563  13.461   1.899
49545SOL     OW50531  12.904  12.468   5.656
49545SOL    HW150532  12.896  12.375   5.633
49545SOL    HW250533  12.971  12.501   5.597
49546SOL     OW50534  13.942   6.115   6.508
49546SOL    HW150535  13.943   6.041   6.448
49546SOL    HW250536  13.963   6.077   6.594
49547SOL     OW50537  11.207   8.525   6.827
49547SOL    HW150538  11.117   8.494   6.836
49547SOL    HW250539  11.202   8.595   6.763
49548SOL     OW50540   9.679   0.669   7.912
49548SOL    HW150541   9.664   0.747   7.858
49548SOL    HW250542   9.662   0.595   7.853
49549SOL     OW50543   3.847   9.581   3.212
49549SOL    HW150544   3.919   9.533   3.170
49549SOL    HW250545   3.808   9.517   3.272
49550SOL     OW50546   5.284   9.215   9.298
49550SOL    HW150547   5.315   9.229   9.209
49550SOL    HW250548   5.334   9.140   9.330
49551SOL     OW50549  10.032   7.863  11.494
49551SOL    HW150550  10.006   7.954  11.497
49551SOL    HW250551  10.128   7.865  11.489
49552SOL     OW50552   8.100   4.677   9.300
49552SOL    HW150553   8.135   4.734   9.369
49552SOL    HW250554   8.158   4.601   9.300
49553SOL     OW50555  11.199   0.725  12.405
49553SOL    HW150556  11.164   0.659  12.346
49553SOL    HW250557  11.157   0.806  12.378
49554SOL     OW50558   1.586   6.720   6.704
49554SOL    HW150559   1.617   6.801   6.665
49554SOL    HW250560   1.599   6.731   6.798
49555SOL     OW50561  10.504   8.040   6.433
49555SOL    HW150562  10.534   8.039   6.342
49555SOL    HW250563  10.410   8.055   6.427
49556SOL     OW50564   9.065  11.346   8.774
49556SOL    HW150565   9.136  11.290   8.804
49556SOL    HW250566   9.104  11.400   8.705
49557SOL     OW50567   1.990  10.352   9.783
49557SOL    HW150568   1.946  10.432   9.755
49557SOL    HW250569   2.083  10.376   9.786
49558SOL     OW50570  11.103   5.475  13.499
49558SOL    HW150571  11.037   5.406  13.489
49558SOL    HW250572  11.072   5.528  13.573
49559SOL     OW50573   4.053   8.449   1.551
49559SOL    HW150574   4.010   8.402   1.622
49559SOL    HW250575   4.043   8.392   1.475
49560SOL     OW50576   1.891   3.038   3.223
49560SOL    HW150577   1.835   3.114   3.239
49560SOL    HW250578   1.904   3.000   3.310
49561SOL     OW50579   1.107   3.331  12.554
49561SOL    HW150580   1.070   3.378  12.629
49561SOL    HW250581   1.088   3.388  12.479
49562SOL     OW50582  13.118  13.270   5.374
49562SOL    HW150583  13.166  13.194   5.342
49562SOL    HW250584  13.042  13.234   5.418
49563SOL     OW50585   2.733   8.924   6.943
49563SOL    HW150586   2.726   8.835   6.908
49563SOL    HW250587   2.826   8.935   6.961
49564SOL     OW50588   2.712  12.936   3.550
49564SOL    HW150589   2.623  12.900   3.547
49564SOL    HW250590   2.731  12.945   3.643
49565SOL     OW50591  14.496   0.091   1.670
49565SOL    HW150592  14.494   0.174   1.622
49565SOL    HW250593  14.444   0.107   1.749
49566SOL     OW50594   7.363   2.525   8.593
49566SOL    HW150595   7.276   2.530   8.552
49566SOL    HW250596   7.408   2.456   8.545
49567SOL     OW50597   0.494   8.429   3.325
49567SOL    HW150598   0.572   8.484   3.317
49567SOL    HW250599   0.423   8.485   3.294
49568SOL     OW50600   4.949   1.759   8.170
49568SOL    HW150601   5.005   1.695   8.128
49568SOL    HW250602   5.008   1.830   8.195
49569SOL     OW50603   7.700  13.731  12.659
49569SOL    HW150604   7.759  13.682  12.716
49569SOL    HW250605   7.626  13.672  12.645
49570SOL     OW50606  11.921   9.430   5.839
49570SOL    HW150607  11.905   9.454   5.747
49570SOL    HW250608  12.006   9.387   5.838
49571SOL     OW50609   2.602   5.173   4.740
49571SOL    HW150610   2.586   5.202   4.830
49571SOL    HW250611   2.514   5.166   4.702
49572SOL     OW50612  10.496   5.069   0.214
49572SOL    HW150613  10.562   5.035   0.275
49572SOL    HW250614  10.421   5.011   0.225
49573SOL     OW50615   2.056  12.755   5.742
49573SOL    HW150616   2.067  12.802   5.825
49573SOL    HW250617   2.081  12.817   5.675
49574SOL     OW50618   9.373   0.072   0.741
49574SOL    HW150619   9.353  14.853   0.772
49574SOL    HW250620   9.321   0.081   0.661
49575SOL     OW50621   5.177   2.292   0.341
49575SOL    HW150622   5.096   2.289   0.393
49575SOL    HW250623   5.247   2.299   0.406
49576SOL     OW50624   1.400   5.129   9.288
49576SOL    HW150625   1.408   5.216   9.248
49576SOL    HW250626   1.379   5.148   9.380
49577SOL     OW50627   2.994  13.199   4.363
49577SOL    HW150628   3.053  13.144   4.414
49577SOL    HW250629   2.907  13.176   4.393
49578SOL     OW50630   4.068   7.880   2.388
49578SOL    HW150631   4.118   7.804   2.419
49578SOL    HW250632   4.131   7.951   2.386
49579SOL     OW50633   2.772   3.917   4.254
49579SOL    HW150634   2.800   3.833   4.290
49579SOL    HW250635   2.759   3.901   4.161
49580SOL     OW50636   5.711  10.810   8.838
49580SOL    HW150637   5.783  10.841   8.784
49580SOL    HW250638   5.693  10.882   8.898
49581SOL     OW50639   5.095   8.310   0.733
49581SOL    HW150640   5.035   8.326   0.806
49581SOL    HW250641   5.117   8.217   0.740
49582SOL     OW50642   6.435   9.479  13.505
49582SOL    HW150643   6.473   9.493  13.592
49582SOL    HW250644   6.506   9.441  13.454
49583SOL     OW50645   9.930  11.631   0.949
49583SOL    HW150646  10.026  11.622   0.954
49583SOL    HW250647   9.905  11.662   1.036
49584SOL     OW50648   8.352  12.916   1.473
49584SOL    HW150649   8.422  12.978   1.496
49584SOL    HW250650   8.341  12.863   1.552
49585SOL     OW50651   2.724   3.164   5.973
49585SOL    HW150652   2.672   3.115   5.910
49585SOL    HW250653   2.659   3.213   6.024
49586SOL     OW50654  10.363   2.387   6.430
49586SOL    HW150655  10.444   2.375   6.381
49586SOL    HW250656  10.391   2.417   6.516
49587SOL     OW50657   0.784   6.995   6.969
49587SOL    HW150658   0.839   7.003   7.046
49587SOL    HW250659   0.846   6.994   6.895
49588SOL     OW50660   1.524   8.017   9.255
49588SOL    HW150661   1.480   8.099   9.278
49588SOL    HW250662   1.484   7.952   9.312
49589SOL     OW50663   7.108   1.061   5.838
49589SOL    HW150664   7.029   1.045   5.785
49589SOL    HW250665   7.115   1.156   5.843
49590SOL     OW50666   2.190   4.583   0.008
49590SOL    HW150667   2.254   4.517   0.033
49590SOL    HW250668   2.121   4.577   0.074
49591SOL     OW50669  14.499   0.723  14.789
49591SOL    HW150670  14.581   0.674  14.788
49591SOL    HW250671  14.498   0.764   0.006
49592SOL     OW50672   2.149  12.045  12.313
49592SOL    HW150673   2.186  12.119  12.266
49592SOL    HW250674   2.123  11.983  12.245
49593SOL     OW50675  11.227   7.150   3.921
49593SOL    HW150676  11.177   7.142   3.840
49593SOL    HW250677  11.182   7.092   3.982
49594SOL     OW50678   7.560   4.136   9.938
49594SOL    HW150679   7.569   4.231   9.941
49594SOL    HW250680   7.480   4.120   9.888
49595SOL     OW50681   8.391   2.291  13.521
49595SOL    HW150682   8.396   2.367  13.578
49595SOL    HW250683   8.302   2.259  13.532
49596SOL     OW50684  12.504   8.663   7.860
49596SOL    HW150685  12.570   8.682   7.926
49596SOL    HW250686  12.516   8.570   7.839
49597SOL     OW50687   6.690  14.470   4.381
49597SOL    HW150688   6.732  14.552   4.354
49597SOL    HW250689   6.637  14.444   4.306
49598SOL     OW50690   9.873   0.640   8.282
49598SOL    HW150691   9.874   0.605   8.371
49598SOL    HW250692   9.837   0.728   8.291
49599SOL     OW50693   4.660   0.964  13.106
49599SOL    HW150694   4.711   1.043  13.093
49599SOL    HW250695   4.569   0.994  13.107
49600SOL     OW50696  10.847   9.111  12.005
49600SOL    HW150697  10.873   9.200  12.029
49600SOL    HW250698  10.860   9.060  12.085
49601SOL     OW50699   8.037   1.149   0.854
49601SOL    HW150700   8.053   1.242   0.838
49601SOL    HW250701   7.947   1.134   0.825
49602SOL     OW50702   7.284   4.918   3.439
49602SOL    HW150703   7.360   4.922   3.496
49602SOL    HW250704   7.320   4.916   3.350
49603SOL     OW50705   8.712   1.628   0.636
49603SOL    HW150706   8.688   1.541   0.604
49603SOL    HW250707   8.629   1.676   0.640
49604SOL     OW50708   0.312   4.527   6.604
49604SOL    HW150709   0.338   4.478   6.526
49604SOL    HW250710   0.236   4.481   6.637
49605SOL     OW50711   2.191  14.288   3.840
49605SOL    HW150712   2.225  14.216   3.892
49605SOL    HW250713   2.227  14.274   3.752
49606SOL     OW50714  14.125   7.581   6.506
49606SOL    HW150715  14.072   7.634   6.447
49606SOL    HW250716  14.120   7.493   6.470
49607SOL     OW50717  13.156   2.772   7.990
49607SOL    HW150718  13.112   2.815   7.916
49607SOL    HW250719  13.167   2.681   7.961
49608SOL     OW50720   8.347   1.171  12.881
49608SOL    HW150721   8.298   1.148  12.960
49608SOL    HW250722   8.305   1.120  12.812
49609SOL     OW50723   6.405   9.546   2.834
49609SOL    HW150724   6.334   9.561   2.771
49609SOL    HW250725   6.470   9.496   2.786
49610SOL     OW50726   7.975   8.763   0.543
49610SOL    HW150727   7.921   8.688   0.517
49610SOL    HW250728   7.912   8.831   0.565
49611SOL     OW50729   5.854   9.924   5.472
49611SOL    HW150730   5.807   9.842   5.460
49611SOL    HW250731   5.873   9.954   5.383
49612SOL     OW50732   5.763   3.363   5.357
49612SOL    HW150733   5.729   3.294   5.301
49612SOL    HW250734   5.858   3.353   5.353
49613SOL     OW50735   6.015   0.954  11.086
49613SOL    HW150736   6.092   1.002  11.055
49613SOL    HW250737   5.942   1.014  11.074
49614SOL     OW50738   8.271  14.793   8.701
49614SOL    HW150739   8.363  14.814   8.685
49614SOL    HW250740   8.223  14.866   8.662
49615SOL     OW50741   1.981   8.974   5.065
49615SOL    HW150742   1.993   9.005   5.155
49615SOL    HW250743   1.974   8.879   5.073
49616SOL     OW50744  14.633  12.286   2.715
49616SOL    HW150745  14.597  12.351   2.776
49616SOL    HW250746  14.573  12.211   2.722
49617SOL     OW50747   2.950  14.408   4.572
49617SOL    HW150748   2.867  14.437   4.608
49617SOL    HW250749   2.927  14.348   4.501
49618SOL     OW50750  10.959   9.091   1.493
49618SOL    HW150751  11.002   9.154   1.435
49618SOL    HW250752  10.884   9.059   1.442
49619SOL     OW50753   1.446  13.628   0.711
49619SOL    HW150754   1.538  13.653   0.711
49619SOL    HW250755   1.399  13.709   0.692
49620SOL     OW50756   2.550   7.486  12.224
49620SOL    HW150757   2.455   7.498  12.225
49620SOL    HW250758   2.584   7.566  12.264
49621SOL     OW50759  10.627   9.705   2.919
49621SOL    HW150760  10.648   9.681   2.829
49621SOL    HW250761  10.667   9.636   2.972
49622SOL     OW50762   1.221  14.815   4.540
49622SOL    HW150763   1.216  14.793   4.633
49622SOL    HW250764   1.292  14.760   4.507
49623SOL     OW50765   8.468   8.844   4.531
49623SOL    HW150766   8.544   8.844   4.589
49623SOL    HW250767   8.428   8.930   4.545
49624SOL     OW50768   0.996   1.363  10.799
49624SOL    HW150769   1.069   1.377  10.860
49624SOL    HW250770   0.927   1.423  10.830
49625SOL     OW50771  14.230   9.850  11.103
49625SOL    HW150772  14.157   9.796  11.072
49625SOL    HW250773  14.188   9.917  11.157
49626SOL     OW50774   3.789   0.255  11.396
49626SOL    HW150775   3.770   0.209  11.477
49626SOL    HW250776   3.748   0.341  11.406
49627SOL     OW50777  10.717  11.525   5.800
49627SOL    HW150778  10.797  11.530   5.747
49627SOL    HW250779  10.655  11.478   5.745
49628SOL     OW50780   7.680   0.861   5.377
49628SOL    HW150781   7.587   0.885   5.377
49628SOL    HW250782   7.690   0.802   5.452
49629SOL     OW50783  13.428   6.273   6.900
49629SOL    HW150784  13.358   6.212   6.924
49629SOL    HW250785  13.447   6.253   6.809
49630SOL     OW50786   6.179  14.132  14.018
49630SOL    HW150787   6.123  14.206  14.038
49630SOL    HW250788   6.214  14.151  13.931
49631SOL     OW50789   4.199   9.504   5.115
49631SOL    HW150790   4.170   9.585   5.156
49631SOL    HW250791   4.175   9.435   5.177
49632SOL     OW50792   5.234   0.197   5.084
49632SOL    HW150793   5.149   0.166   5.114
49632SOL    HW250794   5.283   0.217   5.164
49633SOL     OW50795   8.076  13.708   4.478
49633SOL    HW150796   8.055  13.616   4.459
49633SOL    HW250797   8.121  13.705   4.562
49634SOL     OW50798   8.983   5.133  11.949
49634SOL    HW150799   8.961   5.043  11.923
49634SOL    HW250800   8.945   5.188  11.880
49635SOL     OW50801  10.217  10.228  10.680
49635SOL    HW150802  10.148  10.277  10.635
49635SOL    HW250803  10.292  10.288  10.683
49636SOL     OW50804  10.569  14.750   5.729
49636SOL    HW150805  10.527  14.764   5.814
49636SOL    HW250806  10.636  14.818   5.724
49637SOL     OW50807  10.292   2.966   7.184
49637SOL    HW150808  10.232   2.904   7.142
49637SOL    HW250809  10.365   2.973   7.122
49638SOL     OW50810   0.285   8.737   4.390
49638SOL    HW150811   0.214   8.674   4.398
49638SOL    HW250812   0.354   8.704   4.448
49639SOL     OW50813   9.234  12.137   1.182
49639SOL    HW150814   9.318  12.120   1.224
49639SOL    HW250815   9.199  12.050   1.162
49640SOL     OW50816   3.644   8.167   6.937
49640SOL    HW150817   3.549   8.160   6.929
49640SOL    HW250818   3.677   8.129   6.855
49641SOL     OW50819   9.614   0.222   9.507
49641SOL    HW150820   9.707   0.204   9.495
49641SOL    HW250821   9.570   0.146   9.470
49642SOL     OW50822   6.279   6.276   4.673
49642SOL    HW150823   6.359   6.251   4.718
49642SOL    HW250824   6.220   6.305   4.742
49643SOL     OW50825  11.407   2.345   0.797
49643SOL    HW150826  11.470   2.366   0.728
49643SOL    HW250827  11.323   2.343   0.753
49644SOL     OW50828   3.066   5.560  10.964
49644SOL    HW150829   3.000   5.491  10.969
49644SOL    HW250830   3.150   5.514  10.972
49645SOL     OW50831   6.953  13.706  14.071
49645SOL    HW150832   6.907  13.723  14.153
49645SOL    HW250833   6.884  13.707  14.005
49646SOL     OW50834  14.351   8.907   8.165
49646SOL    HW150835  14.404   8.952   8.232
49646SOL    HW250836  14.266   8.951   8.169
49647SOL     OW50837  14.487  14.693  10.182
49647SOL    HW150838  14.517  14.762  10.241
49647SOL    HW250839  14.450  14.626  10.239
49648SOL     OW50840   9.198   2.582   3.432
49648SOL    HW150841   9.204   2.662   3.378
49648SOL    HW250842   9.182   2.615   3.521
49649SOL     OW50843   5.335   0.067   6.361
49649SOL    HW150844   5.352   0.029   6.275
49649SOL    HW250845   5.241   0.082   6.363
49650SOL     OW50846   4.389   2.977   0.741
49650SOL    HW150847   4.394   3.009   0.831
49650SOL    HW250848   4.360   2.886   0.750
49651SOL     OW50849   4.436  11.844  10.223
49651SOL    HW150850   4.468  11.802  10.303
49651SOL    HW250851   4.353  11.800  10.205
49652SOL     OW50852   1.454   8.096   1.026
49652SOL    HW150853   1.498   8.053   1.100
49652SOL    HW250854   1.364   8.108   1.057
49653SOL     OW50855  10.795  13.304  12.691
49653SOL    HW150856  10.791  13.217  12.651
49653SOL    HW250857  10.862  13.350  12.641
49654SOL     OW50858   7.684   1.603   9.729
49654SOL    HW150859   7.765   1.551   9.736
49654SOL    HW250860   7.659   1.595   9.637
49655SOL     OW50861   7.754  10.373   3.331
49655SOL    HW150862   7.685  10.405   3.389
49655SOL    HW250863   7.812  10.324   3.388
49656SOL     OW50864   8.408  10.821   7.382
49656SOL    HW150865   8.384  10.892   7.442
49656SOL    HW250866   8.430  10.748   7.439
49657SOL     OW50867   3.198   2.939   2.819
49657SOL    HW150868   3.177   2.964   2.909
49657SOL    HW250869   3.268   2.875   2.827
49658SOL     OW50870  12.132   4.365   0.534
49658SOL    HW150871  12.101   4.445   0.493
49658SOL    HW250872  12.069   4.346   0.603
49659SOL     OW50873   6.790  11.397   6.526
49659SOL    HW150874   6.827  11.392   6.438
49659SOL    HW250875   6.819  11.482   6.560
49660SOL     OW50876  12.961  13.547   1.019
49660SOL    HW150877  12.935  13.612   0.953
49660SOL    HW250878  13.018  13.595   1.079
49661SOL     OW50879  12.775   8.780   0.171
49661SOL    HW150880  12.725   8.860   0.160
49661SOL    HW250881  12.864   8.803   0.145
49662SOL     OW50882   1.644   1.460  12.894
49662SOL    HW150883   1.569   1.412  12.857
49662SOL    HW250884   1.688   1.497  12.818
49663SOL     OW50885   2.912   1.252  12.621
49663SOL    HW150886   2.881   1.161  12.616
49663SOL    HW250887   2.847   1.296  12.675
49664SOL     OW50888   2.234   7.247   3.016
49664SOL    HW150889   2.180   7.297   2.954
49664SOL    HW250890   2.307   7.305   3.037
49665SOL     OW50891  12.203  14.035  11.894
49665SOL    HW150892  12.212  13.940  11.896
49665SOL    HW250893  12.287  14.069  11.924
49666SOL     OW50894  13.174   5.753   3.804
49666SOL    HW150895  13.099   5.767   3.747
49666SOL    HW250896  13.147   5.787   3.889
49667SOL     OW50897   5.498   9.535   1.988
49667SOL    HW150898   5.449   9.465   1.945
49667SOL    HW250899   5.498   9.606   1.924
49668SOL     OW50900  10.856   5.738  12.171
49668SOL    HW150901  10.826   5.657  12.131
49668SOL    HW250902  10.916   5.776  12.108
49669SOL     OW50903   6.618   4.992  10.670
49669SOL    HW150904   6.556   4.949  10.611
49669SOL    HW250905   6.564   5.051  10.722
49670SOL     OW50906   5.083  11.705   1.632
49670SOL    HW150907   5.044  11.642   1.571
49670SOL    HW250908   5.083  11.660   1.716
49671SOL     OW50909   5.785   0.705  12.001
49671SOL    HW150910   5.822   0.682  11.916
49671SOL    HW250911   5.859   0.697  12.062
49672SOL     OW50912   6.500   1.922  12.161
49672SOL    HW150913   6.574   1.959  12.210
49672SOL    HW250914   6.534   1.911  12.072
49673SOL     OW50915  10.526   0.903   9.052
49673SOL    HW150916  10.517   0.917   8.958
49673SOL    HW250917  10.436   0.896   9.084
49674SOL     OW50918  11.102   6.312   2.498
49674SOL    HW150919  11.083   6.405   2.484
49674SOL    HW250920  11.190   6.310   2.535
49675SOL     OW50921   8.592   3.848   8.868
49675SOL    HW150922   8.608   3.755   8.848
49675SOL    HW250923   8.498   3.859   8.853
49676SOL     OW50924  12.950  10.161  13.337
49676SOL    HW150925  13.032  10.113  13.322
49676SOL    HW250926  12.885  10.092  13.349
49677SOL     OW50927   9.861   4.381  10.424
49677SOL    HW150928   9.956   4.382  10.434
49677SOL    HW250929   9.827   4.384  10.514
49678SOL     OW50930  13.274   2.652   1.706
49678SOL    HW150931  13.326   2.664   1.786
49678SOL    HW250932  13.338   2.632   1.638
49679SOL     OW50933   4.604   9.456   9.101
49679SOL    HW150934   4.609   9.536   9.153
49679SOL    HW250935   4.666   9.396   9.145
49680SOL     OW50936  12.133  14.143  10.857
49680SOL    HW150937  12.042  14.144  10.888
49680SOL    HW250938  12.170  14.065  10.898
49681SOL     OW50939  13.200   4.528   1.178
49681SOL    HW150940  13.270   4.504   1.239
49681SOL    HW250941  13.123   4.482   1.211
49682SOL     OW50942   5.990   4.514   9.983
49682SOL    HW150943   5.896   4.508   9.998
49682SOL    HW250944   6.019   4.424   9.971
49683SOL     OW50945   0.847  13.827  10.638
49683SOL    HW150946   0.902  13.866  10.570
49683SOL    HW250947   0.809  13.749  10.597
49684SOL     OW50948   5.234  11.102  14.476
49684SOL    HW150949   5.257  11.086  14.567
49684SOL    HW250950   5.197  11.019  14.446
49685SOL     OW50951   5.014  13.093   8.584
49685SOL    HW150952   5.016  13.095   8.679
49685SOL    HW250953   5.101  13.124   8.558
49686SOL     OW50954  12.457  11.998  14.604
49686SOL    HW150955  12.466  12.085  14.563
49686SOL    HW250956  12.370  11.999  14.643
49687SOL     OW50957   7.290  12.723   4.671
49687SOL    HW150958   7.276  12.722   4.576
49687SOL    HW250959   7.323  12.810   4.691
49688SOL     OW50960   1.224   5.894   2.837
49688SOL    HW150961   1.211   5.937   2.752
49688SOL    HW250962   1.299   5.939   2.875
49689SOL     OW50963   7.485  13.535  10.239
49689SOL    HW150964   7.562  13.560  10.188
49689SOL    HW250965   7.469  13.610  10.296
49690SOL     OW50966   4.693  10.002  13.901
49690SOL    HW150967   4.715   9.935  13.836
49690SOL    HW250968   4.634  10.062  13.856
49691SOL     OW50969   7.912   3.918   2.422
49691SOL    HW150970   7.825   3.957   2.411
49691SOL    HW250971   7.922   3.859   2.347
49692SOL     OW50972   4.942   0.089   4.235
49692SOL    HW150973   5.037   0.088   4.232
49692SOL    HW250974   4.916   0.006   4.196
49693SOL     OW50975   4.894   0.892   8.741
49693SOL    HW150976   4.829   0.854   8.800
49693SOL    HW250977   4.920   0.820   8.684
49694SOL     OW50978   2.244   8.090   6.975
49694SOL    HW150979   2.289   8.174   6.984
49694SOL    HW250980   2.172   8.108   6.915
49695SOL     OW50981   3.187   7.509   7.343
49695SOL    HW150982   3.227   7.446   7.404
49695SOL    HW250983   3.096   7.515   7.371
49696SOL     OW50984   3.753   3.710   9.108
49696SOL    HW150985   3.719   3.796   9.084
49696SOL    HW250986   3.746   3.708   9.204
49697SOL     OW50987   5.505   0.956   7.027
49697SOL    HW150988   5.533   1.010   6.953
49697SOL    HW250989   5.561   0.984   7.100
49698SOL     OW50990   2.480   6.444  13.569
49698SOL    HW150991   2.503   6.371  13.511
49698SOL    HW250992   2.431   6.403  13.640
49699SOL     OW50993   3.433   4.199  11.496
49699SOL    HW150994   3.445   4.188  11.591
49699SOL    HW250995   3.449   4.292  11.481
49700SOL     OW50996  10.066  12.818   2.731
49700SOL    HW150997  10.032  12.749   2.675
49700SOL    HW250998  10.050  12.787   2.820
49701SOL     OW50999  14.686  13.363   9.194
49701SOL    HW151000  14.695  13.272   9.164
49701SOL    HW251001  14.733  13.414   9.129
49702SOL     OW51002   8.200   2.333   4.470
49702SOL    HW151003   8.195   2.282   4.550
49702SOL    HW251004   8.218   2.423   4.498
49703SOL     OW51005  10.513   5.332  14.633
49703SOL    HW151006  10.440   5.386  14.601
49703SOL    HW251007  10.581   5.396  14.656
49704SOL     OW51008  14.087   4.691  13.683
49704SOL    HW151009  14.032   4.770  13.681
49704SOL    HW251010  14.032   4.624  13.724
49705SOL     OW51011   9.632   8.265   0.730
49705SOL    HW151012   9.660   8.332   0.668
49705SOL    HW251013   9.553   8.228   0.692
49706SOL     OW51014  12.158   7.274  11.449
49706SOL    HW151015  12.119   7.350  11.406
49706SOL    HW251016  12.155   7.295  11.542
49707SOL     OW51017   3.503   0.282   5.534
49707SOL    HW151018   3.529   0.363   5.491
49707SOL    HW251019   3.455   0.310   5.612
49708SOL     OW51020   1.657   5.144   3.147
49708SOL    HW151021   1.716   5.199   3.096
49708SOL    HW251022   1.702   5.059   3.153
49709SOL     OW51023   6.483   4.343  13.038
49709SOL    HW151024   6.458   4.409  12.974
49709SOL    HW251025   6.424   4.358  13.112
49710SOL     OW51026  12.532   7.924   4.477
49710SOL    HW151027  12.491   7.987   4.537
49710SOL    HW251028  12.481   7.932   4.396
49711SOL     OW51029   3.530   5.071   4.307
49711SOL    HW151030   3.608   5.127   4.300
49711SOL    HW251031   3.560   4.993   4.352
49712SOL     OW51032   6.308   9.931  10.729
49712SOL    HW151033   6.233   9.945  10.787
49712SOL    HW251034   6.360  10.010  10.739
49713SOL     OW51035  11.207  14.836   2.508
49713SOL    HW151036  11.237  14.840   2.599
49713SOL    HW251037  11.126  14.785   2.511
49714SOL     OW51038   4.099   5.268  14.865
49714SOL    HW151039   4.054   5.190   0.026
49714SOL    HW251040   4.191   5.241  14.857
49715SOL     OW51041   2.811   3.614  13.611
49715SOL    HW151042   2.830   3.525  13.639
49715SOL    HW251043   2.716   3.615  13.597
49716SOL     OW51044   9.329  14.288   6.785
49716SOL    HW151045   9.235  14.291   6.804
49716SOL    HW251046   9.359  14.378   6.799
49717SOL     OW51047  10.371  11.429   5.549
49717SOL    HW151048  10.321  11.486   5.491
49717SOL    HW251049  10.447  11.403   5.498
49718SOL     OW51050  13.623  10.550   6.474
49718SOL    HW151051  13.631  10.455   6.472
49718SOL    HW251052  13.708  10.581   6.507
49719SOL     OW51053   2.506   2.750   2.818
49719SOL    HW151054   2.598   2.759   2.793
49719SOL    HW251055   2.505   2.676   2.880
49720SOL     OW51056  13.466  10.227   7.275
49720SOL    HW151057  13.407  10.168   7.323
49720SOL    HW251058  13.414  10.256   7.200
49721SOL     OW51059  14.493   7.729   2.542
49721SOL    HW151060  14.422   7.719   2.479
49721SOL    HW251061  14.567   7.759   2.490
49722SOL     OW51062   6.932   8.006   7.150
49722SOL    HW151063   6.921   7.918   7.186
49722SOL    HW251064   6.999   7.996   7.082
49723SOL     OW51065   5.312  11.152   0.754
49723SOL    HW151066   5.398  11.190   0.776
49723SOL    HW251067   5.331  11.060   0.736
49724SOL     OW51068  14.024   7.409  10.817
49724SOL    HW151069  14.106   7.387  10.862
49724SOL    HW251070  13.957   7.400  10.885
49725SOL     OW51071   9.045   8.287   9.908
49725SOL    HW151072   9.097   8.237   9.846
49725SOL    HW251073   9.029   8.226   9.980
49726SOL     OW51074  10.225  13.085  13.538
49726SOL    HW151075  10.183  13.141  13.473
49726SOL    HW251076  10.160  13.017  13.556
49727SOL     OW51077   3.189  14.068   0.844
49727SOL    HW151078   3.167  14.007   0.775
49727SOL    HW251079   3.107  14.083   0.891
49728SOL     OW51080  13.290  14.568  11.996
49728SOL    HW151081  13.266  14.503  11.930
49728SOL    HW251082  13.359  14.620  11.954
49729SOL     OW51083   6.899  11.640   5.513
49729SOL    HW151084   6.886  11.719   5.566
49729SOL    HW251085   6.962  11.666   5.447
49730SOL     OW51086   2.770  14.193   7.438
49730SOL    HW151087   2.702  14.136   7.403
49730SOL    HW251088   2.816  14.140   7.503
49731SOL     OW51089  14.247   2.842   4.991
49731SOL    HW151090  14.247   2.849   5.086
49731SOL    HW251091  14.250   2.748   4.974
49732SOL     OW51092   3.755   5.972  10.309
49732SOL    HW151093   3.838   6.007  10.340
49732SOL    HW251094   3.702   6.049  10.287
49733SOL     OW51095   1.742   2.615  14.299
49733SOL    HW151096   1.671   2.617  14.234
49733SOL    HW251097   1.806   2.677  14.266
49734SOL     OW51098  10.857   7.601   2.187
49734SOL    HW151099  10.860   7.583   2.281
49734SOL    HW251100  10.819   7.688   2.180
49735SOL     OW51101   6.010   1.976  10.637
49735SOL    HW151102   6.057   2.053  10.606
49735SOL    HW251103   5.963   2.006  10.715
49736SOL     OW51104   5.078  13.538  13.010
49736SOL    HW151105   5.019  13.543  13.085
49736SOL    HW251106   5.027  13.494  12.942
49737SOL     OW51107  13.227  11.750   0.345
49737SOL    HW151108  13.275  11.830   0.326
49737SOL    HW251109  13.166  11.775   0.414
49738SOL     OW51110   3.352  14.592  11.319
49738SOL    HW151111   3.351  14.505  11.279
49738SOL    HW251112   3.388  14.649  11.251
49739SOL     OW51113   4.817   1.364   9.901
49739SOL    HW151114   4.860   1.279   9.906
49739SOL    HW251115   4.786   1.381   9.990
49740SOL     OW51116  11.470   0.980   0.579
49740SOL    HW151117  11.433   0.899   0.545
49740SOL    HW251118  11.464   1.042   0.506
49741SOL     OW51119   5.780   9.651   0.203
49741SOL    HW151120   5.765   9.653   0.297
49741SOL    HW251121   5.701   9.612   0.166
49742SOL     OW51122   7.111  14.602   7.620
49742SOL    HW151123   7.074  14.648   7.696
49742SOL    HW251124   7.206  14.606   7.633
49743SOL     OW51125   0.600   8.395   0.233
49743SOL    HW151126   0.679   8.448   0.238
49743SOL    HW251127   0.561   8.418   0.149
49744SOL     OW51128  13.203  10.942   2.434
49744SOL    HW151129  13.110  10.958   2.418
49744SOL    HW251130  13.246  11.022   2.406
49745SOL     OW51131   9.051  13.731   6.350
49745SOL    HW151132   8.978  13.785   6.381
49745SOL    HW251133   9.098  13.786   6.288
49746SOL     OW51134  13.262   6.890   3.306
49746SOL    HW151135  13.263   6.812   3.250
49746SOL    HW251136  13.333   6.944   3.272
49747SOL     OW51137  12.288  13.930   8.447
49747SOL    HW151138  12.323  13.885   8.524
49747SOL    HW251139  12.204  13.967   8.476
49748SOL     OW51140   6.673  11.973   6.222
49748SOL    HW151141   6.753  12.023   6.235
49748SOL    HW251142   6.640  12.002   6.137
49749SOL     OW51143  13.994   2.039  13.418
49749SOL    HW151144  14.013   1.964  13.475
49749SOL    HW251145  14.036   2.017  13.335
49750SOL     OW51146   6.486   4.865   2.183
49750SOL    HW151147   6.398   4.835   2.209
49750SOL    HW251148   6.473   4.906   2.098
49751SOL     OW51149   8.427  10.270   4.350
49751SOL    HW151150   8.441  10.299   4.259
49751SOL    HW251151   8.340  10.231   4.349
49752SOL     OW51152   2.599  14.302  12.199
49752SOL    HW151153   2.563  14.327  12.114
49752SOL    HW251154   2.547  14.350  12.263
49753SOL     OW51155   4.242   4.303   7.457
49753SOL    HW151156   4.158   4.343   7.478
49753SOL    HW251157   4.307   4.361   7.497
49754SOL     OW51158  11.340  10.668   2.417
49754SOL    HW151159  11.352  10.637   2.327
49754SOL    HW251160  11.403  10.740   2.426
49755SOL     OW51161   4.272   1.869   2.690
49755SOL    HW151162   4.298   1.778   2.705
49755SOL    HW251163   4.200   1.864   2.627
49756SOL     OW51164   1.337   2.506  11.890
49756SOL    HW151165   1.411   2.554  11.853
49756SOL    HW251166   1.361   2.491  11.982
49757SOL     OW51167  13.344  13.131   8.091
49757SOL    HW151168  13.426  13.096   8.055
49757SOL    HW251169  13.371  13.190   8.161
49758SOL     OW51170  13.276   7.133   5.905
49758SOL    HW151171  13.368   7.142   5.929
49758SOL    HW251172  13.253   7.043   5.928
49759SOL     OW51173  13.069   2.467   8.779
49759SOL    HW151174  12.996   2.459   8.840
49759SOL    HW251175  13.049   2.545   8.727
49760SOL     OW51176  12.574   5.113   2.914
49760SOL    HW151177  12.645   5.056   2.884
49760SOL    HW251178  12.535   5.148   2.834
49761SOL     OW51179   1.902  11.734   4.386
49761SOL    HW151180   1.967  11.776   4.441
49761SOL    HW251181   1.821  11.739   4.436
49762SOL     OW51182   6.988   6.286   1.736
49762SOL    HW151183   6.950   6.351   1.795
49762SOL    HW251184   7.036   6.339   1.672
49763SOL     OW51185   8.311  14.053  10.771
49763SOL    HW151186   8.403  14.079  10.768
49763SOL    HW251187   8.297  14.025  10.862
49764SOL     OW51188  10.622  13.916  14.625
49764SOL    HW151189  10.660  13.828  14.636
49764SOL    HW251190  10.528  13.904  14.642
49765SOL     OW51191  13.083   6.747   2.312
49765SOL    HW151192  13.015   6.680   2.304
49765SOL    HW251193  13.078   6.774   2.403
49766SOL     OW51194   1.078   3.844   2.117
49766SOL    HW151195   1.131   3.790   2.059
49766SOL    HW251196   1.125   3.927   2.123
49767SOL     OW51197   2.405   2.649  11.606
49767SOL    HW151198   2.452   2.728  11.579
49767SOL    HW251199   2.474   2.590  11.636
49768SOL     OW51200   5.871  12.223   2.457
49768SOL    HW151201   5.855  12.276   2.379
49768SOL    HW251202   5.956  12.182   2.441
49769SOL     OW51203   4.358   8.116   7.104
49769SOL    HW151204   4.306   8.155   7.173
49769SOL    HW251205   4.318   8.148   7.023
49770SOL     OW51206  13.982  11.898   5.044
49770SOL    HW151207  13.981  11.960   4.970
49770SOL    HW251208  13.978  11.954   5.122
49771SOL     OW51209   7.649  14.126   1.330
49771SOL    HW151210   7.664  14.075   1.251
49771SOL    HW251211   7.555  14.140   1.333
49772SOL     OW51212   1.855   6.691  13.536
49772SOL    HW151213   1.795   6.674  13.463
49772SOL    HW251214   1.940   6.701  13.494
49773SOL     OW51215   2.008   0.402   7.134
49773SOL    HW151216   1.951   0.441   7.201
49773SOL    HW251217   2.064   0.473   7.105
49774SOL     OW51218  14.636   1.329   1.940
49774SOL    HW151219  14.607   1.298   2.026
49774SOL    HW251220  14.589   1.275   1.877
49775SOL     OW51221   9.680   2.315  12.059
49775SOL    HW151222   9.725   2.384  12.009
49775SOL    HW251223   9.621   2.363  12.117
49776SOL     OW51224   1.105   6.550   5.172
49776SOL    HW151225   1.118   6.581   5.083
49776SOL    HW251226   1.122   6.626   5.228
49777SOL     OW51227   2.086  10.123  13.939
49777SOL    HW151228   2.079  10.164  13.853
49777SOL    HW251229   2.164  10.069  13.933
49778SOL     OW51230  13.076   3.585  10.098
49778SOL    HW151231  13.057   3.663  10.047
49778SOL    HW251232  13.166   3.561  10.074
49779SOL     OW51233   6.563  10.876  10.582
49779SOL    HW151234   6.581  10.803  10.641
49779SOL    HW251235   6.649  10.904  10.552
49780SOL     OW51236   7.091   6.317  10.143
49780SOL    HW151237   7.131   6.310  10.056
49780SOL    HW251238   7.135   6.391  10.183
49781SOL     OW51239   2.324   6.631   9.071
49781SOL    HW151240   2.285   6.573   9.136
49781SOL    HW251241   2.380   6.690   9.122
49782SOL     OW51242   8.940  13.173   2.904
49782SOL    HW151243   9.009  13.174   2.838
49782SOL    HW251244   8.983  13.208   2.983
49783SOL     OW51245  13.055   1.437   5.329
49783SOL    HW151246  12.960   1.430   5.317
49783SOL    HW251247  13.069   1.413   5.421
49784SOL     OW51248   5.774   9.522  13.899
49784SOL    HW151249   5.861   9.496  13.869
49784SOL    HW251250   5.715   9.492  13.829
49785SOL     OW51251   8.221  14.295   3.524
49785SOL    HW151252   8.234  14.293   3.429
49785SOL    HW251253   8.194  14.206   3.546
49786SOL     OW51254  13.322   1.275   1.655
49786SOL    HW151255  13.259   1.343   1.632
49786SOL    HW251256  13.405   1.321   1.665
49787SOL     OW51257  13.923   6.657   0.798
49787SOL    HW151258  13.845   6.654   0.855
49787SOL    HW251259  13.889   6.680   0.712
49788SOL     OW51260  10.010   8.828   1.649
49788SOL    HW151261   9.929   8.828   1.702
49788SOL    HW251262   9.979   8.831   1.559
49789SOL     OW51263  10.701   4.268  12.093
49789SOL    HW151264  10.751   4.230  12.021
49789SOL    HW251265  10.748   4.240  12.172
49790SOL     OW51266  14.684   8.118   9.418
49790SOL    HW151267  14.684   8.213   9.404
49790SOL    HW251268  14.593   8.092   9.402
49791SOL     OW51269   9.782  14.584   8.797
49791SOL    HW151270   9.701  14.624   8.764
49791SOL    HW251271   9.771  14.584   8.892
49792SOL     OW51272  14.776   8.643   2.452
49792SOL    HW151273  14.716   8.684   2.389
49792SOL    HW251274  14.862   8.677   2.428
49793SOL     OW51275   5.692   8.910   0.031
49793SOL    HW151276   5.760   8.850  14.869
49793SOL    HW251277   5.683   8.887   0.124
49794SOL     OW51278  13.551   3.356   4.044
49794SOL    HW151279  13.475   3.308   4.075
49794SOL    HW251280  13.582   3.404   4.121
49795SOL     OW51281   1.647   7.238   2.782
49795SOL    HW151282   1.674   7.147   2.769
49795SOL    HW251283   1.707   7.289   2.728
49796SOL     OW51284  11.562  12.865  10.148
49796SOL    HW151285  11.527  12.777  10.164
49796SOL    HW251286  11.599  12.892  10.233
49797SOL     OW51287   7.599   9.621   4.317
49797SOL    HW151288   7.643   9.535   4.320
49797SOL    HW251289   7.517   9.608   4.365
49798SOL     OW51290   5.116  10.885   6.821
49798SOL    HW151291   5.197  10.846   6.787
49798SOL    HW251292   5.078  10.930   6.746
49799SOL     OW51293   4.346   3.834   1.021
49799SOL    HW151294   4.283   3.892   1.063
49799SOL    HW251295   4.431   3.862   1.054
49800SOL     OW51296   0.842   1.421   6.255
49800SOL    HW151297   0.827   1.408   6.161
49800SOL    HW251298   0.818   1.338   6.295
49801SOL     OW51299   0.408  11.036  12.928
49801SOL    HW151300   0.407  11.119  12.879
49801SOL    HW251301   0.437  11.060  13.016
49802SOL     OW51302   4.915  13.731   4.653
49802SOL    HW151303   4.822  13.746   4.669
49802SOL    HW251304   4.934  13.648   4.696
49803SOL     OW51305  11.244   3.606  12.651
49803SOL    HW151306  11.167   3.627  12.703
49803SOL    HW251307  11.209   3.566  12.571
49804SOL     OW51308   7.000   1.466   3.205
49804SOL    HW151309   6.965   1.541   3.158
49804SOL    HW251310   6.987   1.487   3.298
49805SOL     OW51311   0.573  10.941  11.459
49805SOL    HW151312   0.527  10.859  11.476
49805SOL    HW251313   0.594  10.975  11.546
49806SOL     OW51314   8.416  14.466  11.497
49806SOL    HW151315   8.450  14.399  11.437
49806SOL    HW251316   8.487  14.481  11.559
49807SOL     OW51317  12.850   1.675   8.093
49807SOL    HW151318  12.774   1.727   8.068
49807SOL    HW251319  12.835   1.654   8.185
49808SOL     OW51320   1.840   9.224   1.116
49808SOL    HW151321   1.920   9.254   1.072
49808SOL    HW251322   1.869   9.153   1.172
49809SOL     OW51323  14.225  11.497  13.940
49809SOL    HW151324  14.210  11.585  13.906
49809SOL    HW251325  14.290  11.510  14.009
49810SOL     OW51326   1.054   1.408  12.488
49810SOL    HW151327   0.980   1.467  12.493
49810SOL    HW251328   1.025   1.328  12.531
49811SOL     OW51329   3.771   2.314   9.156
49811SOL    HW151330   3.840   2.284   9.215
49811SOL    HW251331   3.743   2.235   9.109
49812SOL     OW51332   0.858   5.745  10.772
49812SOL    HW151333   0.836   5.738  10.679
49812SOL    HW251334   0.779   5.780  10.813
49813SOL     OW51335   3.673   4.845  14.621
49813SOL    HW151336   3.706   4.786  14.553
49813SOL    HW251337   3.578   4.839  14.614
49814SOL     OW51338   2.621  14.426   4.269
49814SOL    HW151339   2.568  14.437   4.190
49814SOL    HW251340   2.599  14.339   4.301
49815SOL     OW51341   3.388  11.232   1.362
49815SOL    HW151342   3.345  11.148   1.382
49815SOL    HW251343   3.331  11.298   1.402
49816SOL     OW51344   2.806   3.518   5.414
49816SOL    HW151345   2.836   3.576   5.484
49816SOL    HW251346   2.718   3.492   5.441
49817SOL     OW51347   8.689   0.973   3.816
49817SOL    HW151348   8.674   1.021   3.898
49817SOL    HW251349   8.680   0.881   3.840
49818SOL     OW51350   1.160   0.130   9.103
49818SOL    HW151351   1.121   0.200   9.050
49818SOL    HW251352   1.087   0.096   9.155
49819SOL     OW51353  12.372  12.186   7.568
49819SOL    HW151354  12.385  12.122   7.498
49819SOL    HW251355  12.415  12.265   7.535
49820SOL     OW51356   4.068   2.493   4.552
49820SOL    HW151357   4.020   2.414   4.580
49820SOL    HW251358   4.147   2.493   4.606
49821SOL     OW51359   4.307  10.594   1.168
49821SOL    HW151360   4.398  10.593   1.199
49821SOL    HW251361   4.305  10.665   1.104
49822SOL     OW51362  11.220   6.996   7.063
49822SOL    HW151363  11.173   7.064   7.014
49822SOL    HW251364  11.280   7.045   7.119
49823SOL     OW51365   7.676  14.600  11.238
49823SOL    HW151366   7.596  14.651  11.233
49823SOL    HW251367   7.713  14.602  11.150
49824SOL     OW51368  13.371  10.603  11.664
49824SOL    HW151369  13.379  10.553  11.745
49824SOL    HW251370  13.288  10.574  11.626
49825SOL     OW51371   6.283   1.234   7.453
49825SOL    HW151372   6.331   1.206   7.531
49825SOL    HW251373   6.210   1.172   7.447
49826SOL     OW51374   1.876   1.476   6.835
49826SOL    HW151375   1.845   1.385   6.842
49826SOL    HW251376   1.972   1.468   6.830
49827SOL     OW51377   2.765   5.601  12.764
49827SOL    HW151378   2.692   5.621  12.822
49827SOL    HW251379   2.841   5.598  12.822
49828SOL     OW51380   7.110   0.117   7.713
49828SOL    HW151381   7.168   0.095   7.641
49828SOL    HW251382   7.023   0.117   7.675
49829SOL     OW51383  14.827   0.982   8.842
49829SOL    HW151384   0.048   1.004   8.817
49829SOL    HW251385  14.773   1.030   8.779
49830SOL     OW51386   6.530   8.966  11.777
49830SOL    HW151387   6.461   8.930  11.832
49830SOL    HW251388   6.587   9.013  11.838
49831SOL     OW51389  12.451   5.354   0.802
49831SOL    HW151390  12.461   5.327   0.893
49831SOL    HW251391  12.452   5.272   0.752
49832SOL     OW51392  10.812   2.001  10.791
49832SOL    HW151393  10.885   2.038  10.742
49832SOL    HW251394  10.782   1.927  10.739
49833SOL     OW51395   3.379   7.503   5.061
49833SOL    HW151396   3.303   7.542   5.017
49833SOL    HW251397   3.444   7.573   5.063
49834SOL     OW51398  12.261   8.781   6.952
49834SOL    HW151399  12.177   8.786   6.998
49834SOL    HW251400  12.260   8.695   6.910
49835SOL     OW51401   0.087   6.404  10.410
49835SOL    HW151402   0.087   6.400  10.505
49835SOL    HW251403   0.001   6.369  10.385
49836SOL     OW51404   3.080  10.324   7.710
49836SOL    HW151405   3.049  10.399   7.659
49836SOL    HW251406   3.033  10.249   7.672
49837SOL     OW51407   3.632  11.543   9.509
49837SOL    HW151408   3.655  11.479   9.442
49837SOL    HW251409   3.623  11.626   9.462
49838SOL     OW51410  10.172   6.830   3.678
49838SOL    HW151411  10.151   6.921   3.656
49838SOL    HW251412  10.110   6.807   3.748
49839SOL     OW51413   9.684   9.225  10.746
49839SOL    HW151414   9.690   9.315  10.779
49839SOL    HW251415   9.599   9.222  10.701
49840SOL     OW51416   8.278  11.955   4.751
49840SOL    HW151417   8.305  11.868   4.724
49840SOL    HW251418   8.310  12.013   4.681
49841SOL     OW51419  11.399   4.901  12.707
49841SOL    HW151420  11.435   4.841  12.641
49841SOL    HW251421  11.475   4.927  12.760
49842SOL     OW51422  10.476   2.683   6.432
49842SOL    HW151423  10.555   2.630   6.419
49842SOL    HW251424  10.417   2.625   6.480
49843SOL     OW51425   2.890   7.895  13.842
49843SOL    HW151426   2.905   7.956  13.770
49843SOL    HW251427   2.904   7.948  13.921
49844SOL     OW51428  14.384   7.962   2.191
49844SOL    HW151429  14.367   8.011   2.271
49844SOL    HW251430  14.422   8.026   2.131
49845SOL     OW51431   4.380   0.076   9.694
49845SOL    HW151432   4.394   0.106   9.784
49845SOL    HW251433   4.388  14.850   9.699
49846SOL     OW51434  10.641  12.919  10.481
49846SOL    HW151435  10.733  12.891  10.477
49846SOL    HW251436  10.593  12.848  10.439
49847SOL     OW51437  11.971   9.208   8.982
49847SOL    HW151438  11.969   9.160   8.899
49847SOL    HW251439  12.058   9.188   9.018
49848SOL     OW51440   3.534  12.643  14.414
49848SOL    HW151441   3.438  12.642  14.419
49848SOL    HW251442   3.561  12.562  14.456
49849SOL     OW51443   2.456  11.002   4.624
49849SOL    HW151444   2.524  11.049   4.672
49849SOL    HW251445   2.418  11.067   4.565
49850SOL     OW51446   3.750  13.780   7.952
49850SOL    HW151447   3.723  13.737   7.871
49850SOL    HW251448   3.792  13.861   7.922
49851SOL     OW51449   0.948  11.961  10.803
49851SOL    HW151450   0.945  12.053  10.830
49851SOL    HW251451   0.893  11.917  10.868
49852SOL     OW51452  13.215  14.339   3.951
49852SOL    HW151453  13.239  14.275   3.884
49852SOL    HW251454  13.160  14.402   3.905
49853SOL     OW51455   2.415   6.045  13.891
49853SOL    HW151456   2.434   5.988  13.966
49853SOL    HW251457   2.500   6.079  13.864
49854SOL     OW51458   4.520   0.987  10.452
49854SOL    HW151459   4.603   0.940  10.458
49854SOL    HW251460   4.540   1.064  10.398
49855SOL     OW51461   5.558  10.870   4.345
49855SOL    HW151462   5.532  10.784   4.312
49855SOL    HW251463   5.475  10.915   4.364
49856SOL     OW51464  13.795   3.378   6.284
49856SOL    HW151465  13.762   3.310   6.342
49856SOL    HW251466  13.849   3.433   6.340
49857SOL     OW51467   4.358  12.121   4.669
49857SOL    HW151468   4.283  12.180   4.660
49857SOL    HW251469   4.347  12.058   4.598
49858SOL     OW51470  10.024  11.275  11.925
49858SOL    HW151471  10.056  11.338  11.990
49858SOL    HW251472   9.966  11.326  11.868
49859SOL     OW51473  10.863   0.612  14.254
49859SOL    HW151474  10.840   0.536  14.200
49859SOL    HW251475  10.955   0.598  14.277
49860SOL     OW51476  10.013  12.439  10.453
49860SOL    HW151477  10.062  12.430  10.535
49860SOL    HW251478   9.998  12.350  10.423
49861SOL     OW51479  13.941  12.874  10.862
49861SOL    HW151480  13.859  12.888  10.814
49861SOL    HW251481  13.994  12.952  10.841
49862SOL     OW51482   2.446   1.863   1.473
49862SOL    HW151483   2.459   1.784   1.420
49862SOL    HW251484   2.418   1.930   1.411
49863SOL     OW51485  13.154   0.270  11.237
49863SOL    HW151486  13.067   0.281  11.274
49863SOL    HW251487  13.197   0.354  11.251
49864SOL     OW51488   5.387   7.739  10.570
49864SOL    HW151489   5.402   7.806  10.636
49864SOL    HW251490   5.315   7.773  10.517
49865SOL     OW51491   0.423  12.797   0.042
49865SOL    HW151492   0.450  12.757   0.125
49865SOL    HW251493   0.480  12.756  14.846
49866SOL     OW51494   0.084   5.274   8.090
49866SOL    HW151495   0.108   5.268   7.997
49866SOL    HW251496   0.118   5.359   8.118
49867SOL     OW51497   7.381   6.763  11.243
49867SOL    HW151498   7.298   6.787  11.285
49867SOL    HW251499   7.355   6.720  11.161
49868SOL     OW51500  13.685   7.534   3.438
49868SOL    HW151501  13.680   7.628   3.455
49868SOL    HW251502  13.620   7.518   3.370
49869SOL     OW51503   4.833   2.150   0.324
49869SOL    HW151504   4.739   2.154   0.339
49869SOL    HW251505   4.869   2.222   0.377
49870SOL     OW51506  14.131  12.668  11.225
49870SOL    HW151507  14.052  12.719  11.240
49870SOL    HW251508  14.180  12.674  11.307
49871SOL     OW51509  13.254  12.008   6.679
49871SOL    HW151510  13.331  11.984   6.628
49871SOL    HW251511  13.190  12.038   6.614
49872SOL     OW51512   6.125   4.890   7.332
49872SOL    HW151513   6.084   4.969   7.299
49872SOL    HW251514   6.112   4.893   7.427
49873SOL     OW51515  14.707   7.330   7.721
49873SOL    HW151516  14.765   7.303   7.792
49873SOL    HW251517  14.762   7.323   7.642
49874SOL     OW51518  13.809  12.723   2.526
49874SOL    HW151519  13.765  12.659   2.582
49874SOL    HW251520  13.856  12.780   2.587
49875SOL     OW51521   2.049   2.917   2.284
49875SOL    HW151522   1.999   2.887   2.208
49875SOL    HW251523   1.982   2.952   2.344
49876SOL     OW51524  13.757   3.541  10.644
49876SOL    HW151525  13.725   3.545  10.734
49876SOL    HW251526  13.681   3.515  10.593
49877SOL     OW51527   9.546   1.794   1.992
49877SOL    HW151528   9.549   1.715   1.938
49877SOL    HW251529   9.510   1.764   2.076
49878SOL     OW51530   1.228   6.910   7.099
49878SOL    HW151531   1.246   6.929   7.191
49878SOL    HW251532   1.293   6.845   7.075
49879SOL     OW51533  14.409   0.947   4.009
49879SOL    HW151534  14.505   0.947   4.009
49879SOL    HW251535  14.386   0.894   4.086
49880SOL     OW51536   0.656  11.593   5.157
49880SOL    HW151537   0.713  11.517   5.142
49880SOL    HW251538   0.695  11.663   5.106
49881SOL     OW51539   7.540   5.679  14.457
49881SOL    HW151540   7.523   5.771  14.476
49881SOL    HW251541   7.530   5.635  14.541
49882SOL     OW51542   7.164  12.505  13.158
49882SOL    HW151543   7.162  12.411  13.143
49882SOL    HW251544   7.251  12.532  13.129
49883SOL     OW51545  10.448   8.202   6.093
49883SOL    HW151546  10.464   8.275   6.153
49883SOL    HW251547  10.374   8.230   6.040
49884SOL     OW51548   0.143  13.804  13.912
49884SOL    HW151549   0.237  13.818  13.920
49884SOL    HW251550   0.135  13.716  13.877
49885SOL     OW51551   3.151   0.243   8.178
49885SOL    HW151552   3.102   0.239   8.096
49885SOL    HW251553   3.085   0.233   8.247
49886SOL     OW51554   7.646  11.844  10.086
49886SOL    HW151555   7.681  11.933  10.088
49886SOL    HW251556   7.590  11.841  10.009
49887SOL     OW51557   7.653  13.560   1.785
49887SOL    HW151558   7.740  13.523   1.791
49887SOL    HW251559   7.646  13.618   1.861
49888SOL     OW51560   6.038   2.721   8.693
49888SOL    HW151561   6.107   2.725   8.760
49888SOL    HW251562   6.055   2.796   8.637
49889SOL     OW51563   0.665   7.383   5.538
49889SOL    HW151564   0.598   7.375   5.606
49889SOL    HW251565   0.673   7.477   5.523
49890SOL     OW51566   6.882   2.190   2.551
49890SOL    HW151567   6.860   2.278   2.582
49890SOL    HW251568   6.943   2.157   2.616
49891SOL     OW51569   1.785   1.365   0.187
49891SOL    HW151570   1.854   1.298   0.184
49891SOL    HW251571   1.721   1.329   0.248
49892SOL     OW51572   1.631  11.789   8.854
49892SOL    HW151573   1.538  11.801   8.871
49892SOL    HW251574   1.665  11.878   8.842
49893SOL     OW51575   5.145  13.355  12.030
49893SOL    HW151576   5.121  13.445  12.050
49893SOL    HW251577   5.094  13.333  11.952
49894SOL     OW51578  11.215   2.036   8.887
49894SOL    HW151579  11.229   2.046   8.981
49894SOL    HW251580  11.208   1.942   8.873
49895SOL     OW51581   3.908  10.855   7.208
49895SOL    HW151582   3.855  10.872   7.130
49895SOL    HW251583   3.845  10.847   7.279
49896SOL     OW51584   8.280   6.945   8.388
49896SOL    HW151585   8.357   6.919   8.338
49896SOL    HW251586   8.273   6.880   8.457
49897SOL     OW51587   7.289   0.717   3.892
49897SOL    HW151588   7.247   0.802   3.901
49897SOL    HW251589   7.220   0.653   3.908
49898SOL     OW51590   1.381   0.254   4.216
49898SOL    HW151591   1.375   0.232   4.123
49898SOL    HW251592   1.456   0.312   4.223
49899SOL     OW51593  13.510   8.016  12.550
49899SOL    HW151594  13.463   8.087  12.505
49899SOL    HW251595  13.600   8.024  12.518
49900SOL     OW51596   4.570  10.128   1.497
49900SOL    HW151597   4.612  10.043   1.484
49900SOL    HW251598   4.604  10.183   1.426
49901SOL     OW51599   1.471  13.984   0.605
49901SOL    HW151600   1.553  13.944   0.637
49901SOL    HW251601   1.430  14.020   0.683
49902SOL     OW51602   2.040   3.610   9.931
49902SOL    HW151603   2.108   3.636   9.993
49902SOL    HW251604   1.963   3.661   9.956
49903SOL     OW51605   9.499   7.117  11.290
49903SOL    HW151606   9.476   7.157  11.206
49903SOL    HW251607   9.414   7.099  11.332
49904SOL     OW51608  11.380  12.914   1.661
49904SOL    HW151609  11.386  13.010   1.660
49904SOL    HW251610  11.368  12.890   1.569
49905SOL     OW51611   4.874   0.129   4.651
49905SOL    HW151612   4.844   0.220   4.651
49905SOL    HW251613   4.962   0.133   4.613
49906SOL     OW51614   6.605   6.310   5.880
49906SOL    HW151615   6.592   6.237   5.939
49906SOL    HW251616   6.608   6.270   5.793
49907SOL     OW51617  12.698   9.386   8.935
49907SOL    HW151618  12.737   9.355   8.854
49907SOL    HW251619  12.671   9.476   8.915
49908SOL     OW51620   4.276   9.545   7.708
49908SOL    HW151621   4.349   9.605   7.695
49908SOL    HW251622   4.198   9.597   7.687
49909SOL     OW51623   5.863   2.908   8.289
49909SOL    HW151624   5.785   2.865   8.322
49909SOL    HW251625   5.839   3.001   8.285
49910SOL     OW51626   9.525   8.530   2.689
49910SOL    HW151627   9.619   8.522   2.708
49910SOL    HW251628   9.486   8.452   2.726
49911SOL     OW51629   5.788   6.327   4.139
49911SOL    HW151630   5.804   6.385   4.214
49911SOL    HW251631   5.869   6.275   4.132
49912SOL     OW51632  10.875   6.559  11.988
49912SOL    HW151633  10.843   6.586  11.902
49912SOL    HW251634  10.796   6.540  12.038
49913SOL     OW51635  10.001   7.824  14.857
49913SOL    HW151636  10.093   7.837  14.832
49913SOL    HW251637   9.989   7.878   0.065
49914SOL     OW51638   7.815   4.670   0.878
49914SOL    HW151639   7.844   4.698   0.791
49914SOL    HW251640   7.776   4.749   0.916
49915SOL     OW51641  14.170   9.565  11.365
49915SOL    HW151642  14.258   9.553  11.331
49915SOL    HW251643  14.176   9.540  11.457
49916SOL     OW51644   6.537   4.730   2.447
49916SOL    HW151645   6.541   4.792   2.374
49916SOL    HW251646   6.478   4.772   2.510
49917SOL     OW51647   6.127   2.265   6.856
49917SOL    HW151648   6.115   2.329   6.785
49917SOL    HW251649   6.146   2.318   6.933
49918SOL     OW51650   8.946   9.182  10.285
49918SOL    HW151651   8.915   9.179  10.194
49918SOL    HW251652   9.035   9.147  10.281
49919SOL     OW51653  10.212  12.272  14.633
49919SOL    HW151654  10.249  12.344  14.684
49919SOL    HW251655  10.264  12.271  14.552
49920SOL     OW51656   8.462  14.805   1.752
49920SOL    HW151657   8.479  14.805   1.658
49920SOL    HW251658   8.371  14.777   1.760
49921SOL     OW51659  12.102  12.774   9.934
49921SOL    HW151660  12.123  12.682   9.919
49921SOL    HW251661  12.035  12.795   9.868
49922SOL     OW51662   5.223   9.271  11.309
49922SOL    HW151663   5.147   9.263  11.251
49922SOL    HW251664   5.208   9.206  11.378
49923SOL     OW51665   6.148   8.927   7.283
49923SOL    HW151666   6.223   8.936   7.342
49923SOL    HW251667   6.147   9.009   7.233
49924SOL     OW51668   5.866   9.632   1.357
49924SOL    HW151669   5.822   9.558   1.399
49924SOL    HW251670   5.892   9.600   1.271
49925SOL     OW51671   7.972  12.647   0.792
49925SOL    HW151672   7.966  12.589   0.716
49925SOL    HW251673   8.004  12.730   0.757
49926SOL     OW51674   6.719   4.040  10.813
49926SOL    HW151675   6.679   4.100  10.876
49926SOL    HW251676   6.648   4.015  10.754
49927SOL     OW51677   4.112  12.370   9.390
49927SOL    HW151678   4.172  12.444   9.399
49927SOL    HW251679   4.141  12.308   9.457
49928SOL     OW51680  10.852   4.139   5.795
49928SOL    HW151681  10.908   4.216   5.809
49928SOL    HW251682  10.818   4.119   5.882
49929SOL     OW51683   3.518   7.101   4.742
49929SOL    HW151684   3.497   7.008   4.754
49929SOL    HW251685   3.455   7.147   4.796
49930SOL     OW51686   9.375   7.453  11.311
49930SOL    HW151687   9.450   7.397  11.330
49930SOL    HW251688   9.414   7.539  11.294
49931SOL     OW51689   1.665   9.100   0.293
49931SOL    HW151690   1.654   9.031   0.228
49931SOL    HW251691   1.691   9.054   0.373
49932SOL     OW51692  11.353   0.593   4.121
49932SOL    HW151693  11.393   0.679   4.111
49932SOL    HW251694  11.352   0.576   4.215
49933SOL     OW51695   3.977   9.721  14.215
49933SOL    HW151696   3.955   9.633  14.186
49933SOL    HW251697   3.899   9.751  14.262
49934SOL     OW51698  11.970   9.349   1.928
49934SOL    HW151699  12.001   9.270   1.973
49934SOL    HW251700  12.035   9.415   1.949
49935SOL     OW51701   1.529   9.160  13.001
49935SOL    HW151702   1.572   9.241  13.028
49935SOL    HW251703   1.589   9.091  13.029
49936SOL     OW51704   8.479  10.028   7.607
49936SOL    HW151705   8.441  10.079   7.678
49936SOL    HW251706   8.423  10.047   7.531
49937SOL     OW51707   6.049   2.977   6.994
49937SOL    HW151708   5.986   3.047   6.980
49937SOL    HW251709   6.065   2.942   6.906
49938SOL     OW51710   8.703   2.259  13.115
49938SOL    HW151711   8.655   2.177  13.119
49938SOL    HW251712   8.715   2.277  13.022
49939SOL     OW51713   1.828   5.415   8.108
49939SOL    HW151714   1.864   5.378   8.188
49939SOL    HW251715   1.899   5.405   8.044
49940SOL     OW51716   3.082   1.909  13.428
49940SOL    HW151717   3.133   1.967  13.485
49940SOL    HW251718   3.107   1.821  13.455
49941SOL     OW51719   4.488   6.782  10.385
49941SOL    HW151720   4.446   6.729  10.453
49941SOL    HW251721   4.467   6.872  10.409
49942SOL     OW51722  13.017  10.690   5.719
49942SOL    HW151723  13.045  10.648   5.800
49942SOL    HW251724  12.928  10.657   5.704
49943SOL     OW51725   0.017   1.590  13.998
49943SOL    HW151726   0.030   1.580  13.904
49943SOL    HW251727   0.106   1.591  14.034
49944SOL     OW51728   3.114  10.984  13.789
49944SOL    HW151729   3.051  11.015  13.724
49944SOL    HW251730   3.087  10.894  13.808
49945SOL     OW51731   8.922  13.675   5.593
49945SOL    HW151732   8.935  13.649   5.684
49945SOL    HW251733   8.833  13.645   5.572
49946SOL     OW51734   6.334   9.967   4.515
49946SOL    HW151735   6.359   9.988   4.605
49946SOL    HW251736   6.245  10.001   4.506
49947SOL     OW51737   2.094   5.394   1.075
49947SOL    HW151738   2.071   5.460   1.010
49947SOL    HW251739   2.107   5.314   1.025
49948SOL     OW51740  12.448   8.523   6.780
49948SOL    HW151741  12.446   8.525   6.876
49948SOL    HW251742  12.416   8.436   6.757
49949SOL     OW51743   3.941   5.992  13.612
49949SOL    HW151744   3.859   5.959  13.574
49949SOL    HW251745   4.003   5.992  13.539
49950SOL     OW51746   0.423  12.264  10.281
49950SOL    HW151747   0.400  12.346  10.237
49950SOL    HW251748   0.514  12.276  10.308
49951SOL     OW51749   9.532   2.080   2.371
49951SOL    HW151750   9.561   2.112   2.286
49951SOL    HW251751   9.454   2.028   2.352
49952SOL     OW51752  10.148   6.200   7.192
49952SOL    HW151753  10.242   6.217   7.200
49952SOL    HW251754  10.127   6.149   7.270
49953SOL     OW51755   6.712   5.440   8.164
49953SOL    HW151756   6.733   5.444   8.257
49953SOL    HW251757   6.632   5.387   8.159
49954SOL     OW51758  11.571   6.889  14.240
49954SOL    HW151759  11.545   6.805  14.203
49954SOL    HW251760  11.588   6.871  14.332
49955SOL     OW51761   2.610  12.911   0.017
49955SOL    HW151762   2.614  12.905  14.792
49955SOL    HW251763   2.680  12.973   0.040
49956SOL     OW51764  11.659   3.628   4.501
49956SOL    HW151765  11.716   3.659   4.571
49956SOL    HW251766  11.706   3.648   4.420
49957SOL     OW51767  12.121  12.665  14.474
49957SOL    HW151768  12.061  12.602  14.435
49957SOL    HW251769  12.075  12.749  14.467
49958SOL     OW51770  12.892   5.027  13.602
49958SOL    HW151771  12.848   5.001  13.683
49958SOL    HW251772  12.954   4.956  13.585
49959SOL     OW51773   6.646  10.761   9.920
49959SOL    HW151774   6.555  10.745   9.894
49959SOL    HW251775   6.662  10.853   9.897
49960SOL     OW51776   4.221   3.851   8.549
49960SOL    HW151777   4.136   3.847   8.594
49960SOL    HW251778   4.283   3.876   8.618
49961SOL     OW51779  14.563  13.649   1.465
49961SOL    HW151780  14.605  13.596   1.533
49961SOL    HW251781  14.490  13.692   1.509
49962SOL     OW51782  11.743   4.635   4.000
49962SOL    HW151783  11.670   4.577   4.016
49962SOL    HW251784  11.792   4.637   4.082
49963SOL     OW51785   3.377   1.419  10.213
49963SOL    HW151786   3.332   1.465  10.142
49963SOL    HW251787   3.448   1.372  10.170
49964SOL     OW51788  14.329   9.333  12.335
49964SOL    HW151789  14.331   9.253  12.282
49964SOL    HW251790  14.401   9.322  12.397
49965SOL     OW51791  13.093  10.391   9.625
49965SOL    HW151792  13.058  10.346   9.701
49965SOL    HW251793  13.039  10.362   9.552
49966SOL     OW51794  13.485  12.301   4.908
49966SOL    HW151795  13.458  12.386   4.943
49966SOL    HW251796  13.407  12.246   4.916
49967SOL     OW51797  11.597   2.130  12.207
49967SOL    HW151798  11.627   2.177  12.284
49967SOL    HW251799  11.502   2.145  12.204
49968SOL     OW51800   6.532  12.316   3.696
49968SOL    HW151801   6.537  12.277   3.609
49968SOL    HW251802   6.615  12.361   3.708
49969SOL     OW51803   0.602  13.613  13.565
49969SOL    HW151804   0.637  13.700  13.587
49969SOL    HW251805   0.574  13.577  13.650
49970SOL     OW51806   5.970  13.195  11.236
49970SOL    HW151807   5.921  13.113  11.228
49970SOL    HW251808   5.904  13.261  11.254
49971SOL     OW51809   4.020   5.990   9.410
49971SOL    HW151810   4.073   5.972   9.488
49971SOL    HW251811   4.001   5.903   9.374
49972SOL     OW51812  13.491   9.870  11.968
49972SOL    HW151813  13.476   9.956  12.006
49972SOL    HW251814  13.468   9.880  11.876
49973SOL     OW51815  12.931   0.466  11.954
49973SOL    HW151816  12.865   0.406  11.920
49973SOL    HW251817  12.997   0.409  11.993
49974SOL     OW51818  13.878  11.639   2.433
49974SOL    HW151819  13.807  11.696   2.464
49974SOL    HW251820  13.842  11.551   2.439
49975SOL     OW51821  12.941   1.417  13.954
49975SOL    HW151822  12.956   1.502  13.996
49975SOL    HW251823  13.025   1.396  13.912
49976SOL     OW51824   6.260  14.658   5.131
49976SOL    HW151825   6.328  14.690   5.190
49976SOL    HW251826   6.204  14.734   5.115
49977SOL     OW51827   2.930   7.176   1.839
49977SOL    HW151828   2.937   7.255   1.894
49977SOL    HW251829   2.836   7.165   1.825
49978SOL     OW51830  11.262   4.955   2.488
49978SOL    HW151831  11.178   4.934   2.528
49978SOL    HW251832  11.313   4.996   2.558
49979SOL     OW51833  12.025   0.251   0.026
49979SOL    HW151834  12.041   0.250   0.121
49979SOL    HW251835  11.940   0.207   0.016
49980SOL     OW51836  10.320   3.524   6.101
49980SOL    HW151837  10.349   3.486   6.018
49980SOL    HW251838  10.387   3.591   6.121
49981SOL     OW51839  11.773  13.697  10.688
49981SOL    HW151840  11.826  13.624  10.719
49981SOL    HW251841  11.836  13.758  10.649
49982SOL     OW51842   7.071   8.350   2.407
49982SOL    HW151843   7.099   8.320   2.321
49982SOL    HW251844   7.148   8.394   2.443
49983SOL     OW51845  13.763   8.048   1.380
49983SOL    HW151846  13.845   8.001   1.394
49983SOL    HW251847  13.696   7.979   1.383
49984SOL     OW51848   6.892  14.068   5.301
49984SOL    HW151849   6.961  14.134   5.289
49984SOL    HW251850   6.939  13.986   5.313
49985SOL     OW51851   5.464  10.712   1.132
49985SOL    HW151852   5.390  10.769   1.155
49985SOL    HW251853   5.520  10.767   1.078
49986SOL     OW51854   2.122   6.557   5.923
49986SOL    HW151855   2.078   6.610   5.856
49986SOL    HW251856   2.107   6.604   6.004
49987SOL     OW51857   2.447   6.613   5.508
49987SOL    HW151858   2.491   6.633   5.426
49987SOL    HW251859   2.502   6.544   5.547
49988SOL     OW51860   0.650  13.730   8.835
49988SOL    HW151861   0.590  13.734   8.910
49988SOL    HW251862   0.595  13.747   8.759
49989SOL     OW51863   0.831  14.470   4.135
49989SOL    HW151864   0.805  14.422   4.056
49989SOL    HW251865   0.877  14.547   4.102
49990SOL     OW51866   0.536  14.153   1.308
49990SOL    HW151867   0.625  14.170   1.277
49990SOL    HW251868   0.547  14.115   1.395
49991SOL     OW51869  11.183   4.923   7.852
49991SOL    HW151870  11.195   5.012   7.819
49991SOL    HW251871  11.094   4.922   7.887
49992SOL     OW51872  13.123   0.820  10.382
49992SOL    HW151873  13.050   0.807  10.322
49992SOL    HW251874  13.088   0.876  10.451
49993SOL     OW51875   9.560   6.630   2.160
49993SOL    HW151876   9.515   6.677   2.230
49993SOL    HW251877   9.494   6.622   2.090
49994SOL     OW51878   5.098   0.690   0.682
49994SOL    HW151879   5.078   0.598   0.697
49994SOL    HW251880   5.184   0.690   0.640
49995SOL     OW51881   1.295   9.066   3.400
49995SOL    HW151882   1.359   8.996   3.396
49995SOL    HW251883   1.211   9.021   3.408
49996SOL     OW51884  12.451  12.365  12.932
49996SOL    HW151885  12.419  12.287  12.887
49996SOL    HW251886  12.460  12.338  13.023
49997SOL     OW51887   5.954   7.081  10.966
49997SOL    HW151888   6.004   7.080  10.884
49997SOL    HW251889   5.867   7.109  10.940
49998SOL     OW51890  13.962   0.226   6.554
49998SOL    HW151891  14.020   0.303   6.553
49998SOL    HW251892  14.021   0.152   6.537
49999SOL     OW51893  11.966   8.519  13.387
49999SOL    HW151894  11.937   8.610  13.389
49999SOL    HW251895  12.051   8.521  13.342
50000SOL     OW51896   7.108   9.000   7.536
50000SOL    HW151897   7.077   8.948   7.462
50000SOL    HW251898   7.200   9.017   7.516
50001SOL     OW51899   4.932  11.983   2.975
50001SOL    HW151900   4.985  11.904   2.983
50001SOL    HW251901   4.983  12.041   2.919
50002SOL     OW51902  14.571   2.815   0.591
50002SOL    HW151903  14.635   2.824   0.662
50002SOL    HW251904  14.564   2.721   0.578
50003SOL     OW51905  11.532  14.457  14.490
50003SOL    HW151906  11.591  14.410  14.431
50003SOL    HW251907  11.445  14.422  14.470
50004SOL     OW51908   0.720   2.488   3.808
50004SOL    HW151909   0.654   2.492   3.877
50004SOL    HW251910   0.739   2.395   3.799
50005SOL     OW51911  14.235  13.679   8.147
50005SOL    HW151912  14.143  13.676   8.174
50005SOL    HW251913  14.232  13.685   8.051
50006SOL     OW51914  11.897  13.043  14.614
50006SOL    HW151915  11.967  13.107  14.609
50006SOL    HW251916  11.896  13.016  14.706
50007SOL     OW51917   8.166   5.759   2.124
50007SOL    HW151918   8.085   5.776   2.173
50007SOL    HW251919   8.164   5.665   2.106
50008SOL     OW51920  11.601   1.021   2.790
50008SOL    HW151921  11.658   1.097   2.802
50008SOL    HW251922  11.539   1.048   2.722
50009SOL     OW51923   9.855   8.870   9.121
50009SOL    HW151924   9.861   8.952   9.169
50009SOL    HW251925   9.781   8.824   9.161
50010SOL     OW51926   1.182  14.006   9.787
50010SOL    HW151927   1.120  14.072   9.818
50010SOL    HW251928   1.219  13.968   9.867
50011SOL     OW51929   5.028   7.945  14.833
50011SOL    HW151930   4.973   7.887  14.779
50011SOL    HW251931   4.992   8.032  14.820
50012SOL     OW51932   4.391   5.852   8.838
50012SOL    HW151933   4.460   5.868   8.773
50012SOL    HW251934   4.310   5.876   8.794
50013SOL     OW51935   2.768  14.095   7.779
50013SOL    HW151936   2.813  14.095   7.864
50013SOL    HW251937   2.677  14.074   7.801
50014SOL     OW51938  13.177  13.963   7.675
50014SOL    HW151939  13.268  13.983   7.654
50014SOL    HW251940  13.129  13.984   7.596
50015SOL     OW51941   5.119  13.562  10.018
50015SOL    HW151942   5.051  13.498   9.997
50015SOL    HW251943   5.087  13.605  10.097
50016SOL     OW51944   5.216   8.437   6.168
50016SOL    HW151945   5.131   8.480   6.177
50016SOL    HW251946   5.235   8.442   6.074
50017SOL     OW51947  13.290   3.085   4.991
50017SOL    HW151948  13.341   3.155   5.032
50017SOL    HW251949  13.332   3.004   5.023
50018SOL     OW51950   7.389   0.127   5.525
50018SOL    HW151951   7.436   0.207   5.503
50018SOL    HW251952   7.305   0.135   5.480
50019SOL     OW51953   3.652  14.834  11.491
50019SOL    HW151954   3.730  14.855  11.541
50019SOL    HW251955   3.590  14.801  11.556
50020SOL     OW51956   9.885   7.539   3.754
50020SOL    HW151957   9.854   7.614   3.805
50020SOL    HW251958   9.804   7.494   3.727
50021SOL     OW51959   3.204  14.072   6.396
50021SOL    HW151960   3.281  14.080   6.452
50021SOL    HW251961   3.220  13.994   6.344
50022SOL     OW51962   4.364   3.977  11.522
50022SOL    HW151963   4.440   3.999  11.577
50022SOL    HW251964   4.288   4.000  11.575
50023SOL     OW51965  13.020   2.125  14.232
50023SOL    HW151966  13.104   2.169  14.236
50023SOL    HW251967  13.009   2.104  14.139
50024SOL     OW51968  13.518  11.976   0.848
50024SOL    HW151969  13.439  12.026   0.866
50024SOL    HW251970  13.525  11.915   0.922
50025SOL     OW51971   0.321   3.790   0.026
50025SOL    HW151972   0.293   3.848   0.096
50025SOL    HW251973   0.241   3.772  14.846
50026SOL     OW51974   3.309   5.553   4.689
50026SOL    HW151975   3.238   5.532   4.749
50026SOL    HW251976   3.333   5.469   4.650
50027SOL     OW51977   8.443   5.205   5.586
50027SOL    HW151978   8.441   5.183   5.679
50027SOL    HW251979   8.352   5.197   5.558
50028SOL     OW51980  11.625   5.879  10.577
50028SOL    HW151981  11.681   5.904  10.650
50028SOL    HW251982  11.673   5.809  10.533
50029SOL     OW51983   5.545  11.306   3.182
50029SOL    HW151984   5.548  11.331   3.274
50029SOL    HW251985   5.452  11.304   3.160
50030SOL     OW51986  11.604   0.960  13.690
50030SOL    HW151987  11.524   0.909  13.679
50030SOL    HW251988  11.675   0.897  13.676
50031SOL     OW51989  11.588   6.303   9.895
50031SOL    HW151990  11.511   6.289   9.839
50031SOL    HW251991  11.598   6.398   9.899
50032SOL     OW51992   3.977   2.414  12.119
50032SOL    HW151993   4.042   2.472  12.157
50032SOL    HW251994   3.908   2.472  12.088
50033SOL     OW51995  14.079  12.876  10.603
50033SOL    HW151996  14.097  12.967  10.580
50033SOL    HW251997  14.135  12.859  10.679
50034SOL     OW51998  12.545   0.930   3.836
50034SOL    HW151999  12.548   0.894   3.747
50034SOL    HW252000  12.620   0.988   3.841
50035SOL     OW52001   0.922  10.636   9.016
50035SOL    HW152002   0.845  10.668   9.062
50035SOL    HW252003   0.889  10.601   8.933
50036SOL     OW52004   1.785  12.069  10.073
50036SOL    HW152005   1.772  12.010   9.999
50036SOL    HW252006   1.839  12.019  10.135
50037SOL     OW52007   8.465   0.587  14.429
50037SOL    HW152008   8.497   0.672  14.400
50037SOL    HW252009   8.467   0.533  14.349
50038SOL     OW52010   2.153  13.445  14.498
50038SOL    HW152011   2.235  13.410  14.463
50038SOL    HW252012   2.124  13.508  14.431
50039SOL     OW52013   6.371   0.405  13.936
50039SOL    HW152014   6.314   0.357  13.876
50039SOL    HW252015   6.313   0.469  13.978
50040SOL     OW52016   2.982   7.273   0.878
50040SOL    HW152017   3.038   7.198   0.898
50040SOL    HW252018   3.020   7.309   0.798
50041SOL     OW52019   8.950   3.499   2.392
50041SOL    HW152020   8.917   3.488   2.481
50041SOL    HW252021   8.954   3.410   2.357
50042SOL     OW52022  11.602  12.122  12.100
50042SOL    HW152023  11.666  12.080  12.158
50042SOL    HW252024  11.604  12.214  12.125
50043SOL     OW52025  14.087   2.956   6.303
50043SOL    HW152026  14.169   2.955   6.353
50043SOL    HW252027  14.024   2.995   6.363
50044SOL     OW52028   5.365   1.864  13.601
50044SOL    HW152029   5.428   1.933  13.620
50044SOL    HW252030   5.381   1.797  13.668
50045SOL     OW52031  11.653  11.861  14.561
50045SOL    HW152032  11.627  11.917  14.488
50045SOL    HW252033  11.684  11.780  14.520
50046SOL     OW52034  12.089   1.726   4.567
50046SOL    HW152035  12.052   1.726   4.479
50046SOL    HW252036  12.023   1.682   4.621
50047SOL     OW52037  11.933   2.797  11.541
50047SOL    HW152038  12.012   2.851  11.549
50047SOL    HW252039  11.941   2.732  11.611
50048SOL     OW52040   5.773  13.226   3.624
50048SOL    HW152041   5.732  13.245   3.540
50048SOL    HW252042   5.867  13.229   3.606
50049SOL     OW52043  10.693   1.515  12.531
50049SOL    HW152044  10.648   1.496  12.448
50049SOL    HW252045  10.773   1.461  12.527
50050SOL     OW52046   5.168  11.513   9.554
50050SOL    HW152047   5.118  11.550   9.481
50050SOL    HW252048   5.102  11.495   9.621
50051SOL     OW52049   0.744  13.382  12.704
50051SOL    HW152050   0.701  13.375  12.618
50051SOL    HW252051   0.789  13.467  12.701
50052SOL     OW52052   9.517  10.066   1.854
50052SOL    HW152053   9.478  10.153   1.843
50052SOL    HW252054   9.460  10.007   1.804
50053SOL     OW52055   1.619   5.309  13.466
50053SOL    HW152056   1.617   5.225  13.421
50053SOL    HW252057   1.712   5.327  13.479
50054SOL     OW52058  13.580  13.908   5.608
50054SOL    HW152059  13.522  13.865   5.545
50054SOL    HW252060  13.662  13.921   5.560
50055SOL     OW52061   3.969   6.958  14.232
50055SOL    HW152062   3.947   6.943  14.140
50055SOL    HW252063   4.011   7.044  14.234
50056SOL     OW52064   3.144   4.338  12.309
50056SOL    HW152065   3.174   4.365  12.395
50056SOL    HW252066   3.096   4.414  12.275
50057SOL     OW52067  14.741  10.634  10.723
50057SOL    HW152068  14.650  10.662  10.726
50057SOL    HW252069  14.741  10.548  10.767
50058SOL     OW52070   7.091  11.444  13.331
50058SOL    HW152071   7.183  11.428  13.351
50058SOL    HW252072   7.081  11.539  13.341
50059SOL     OW52073   8.506   4.219   7.345
50059SOL    HW152074   8.536   4.246   7.432
50059SOL    HW252075   8.462   4.297   7.310
50060SOL     OW52076   6.854   7.273  11.990
50060SOL    HW152077   6.840   7.213  12.063
50060SOL    HW252078   6.939   7.313  12.007
50061SOL     OW52079  14.839  13.545   8.033
50061SOL    HW152080  14.850  13.622   8.089
50061SOL    HW252081   0.017  13.566   7.953
50062SOL     OW52082   8.532  11.207   5.212
50062SOL    HW152083   8.529  11.285   5.267
50062SOL    HW252084   8.611  11.219   5.159
50063SOL     OW52085   5.820   8.530  11.883
50063SOL    HW152086   5.849   8.544  11.793
50063SOL    HW252087   5.832   8.615  11.925
50064SOL     OW52088   6.679   3.675   8.184
50064SOL    HW152089   6.705   3.674   8.092
50064SOL    HW252090   6.742   3.616   8.227
50065SOL     OW52091   0.289  13.820  14.776
50065SOL    HW152092   0.218  13.864  14.730
50065SOL    HW252093   0.260  13.817  14.867
50066SOL     OW52094   9.118  13.902   8.784
50066SOL    HW152095   9.175  13.978   8.774
50066SOL    HW252096   9.115  13.885   8.878
50067SOL     OW52097   2.422   4.428   3.350
50067SOL    HW152098   2.457   4.351   3.305
50067SOL    HW252099   2.406   4.399   3.439
50068SOL     OW52100   9.155   1.278   8.860
50068SOL    HW152101   9.188   1.339   8.927
50068SOL    HW252102   9.229   1.220   8.842
50069SOL     OW52103   6.831  11.188  11.057
50069SOL    HW152104   6.869  11.151  11.137
50069SOL    HW252105   6.906  11.224  11.010
50070SOL     OW52106  10.513   9.476   4.766
50070SOL    HW152107  10.436   9.449   4.716
50070SOL    HW252108  10.579   9.409   4.746
50071SOL     OW52109   8.860   6.808  14.467
50071SOL    HW152110   8.919   6.750  14.419
50071SOL    HW252111   8.773   6.789  14.431
50072SOL     OW52112   0.905   9.702  12.571
50072SOL    HW152113   0.914   9.658  12.656
50072SOL    HW252114   0.956   9.783  12.580
50073SOL     OW52115   6.337   7.799   8.666
50073SOL    HW152116   6.269   7.840   8.611
50073SOL    HW252117   6.395   7.871   8.690
50074SOL     OW52118   9.649   9.091   8.528
50074SOL    HW152119   9.740   9.094   8.558
50074SOL    HW252120   9.601   9.051   8.601
50075SOL     OW52121  11.862   2.604  13.797
50075SOL    HW152122  11.883   2.567  13.883
50075SOL    HW252123  11.783   2.558  13.770
50076SOL     OW52124   2.919   3.436   5.164
50076SOL    HW152125   2.973   3.500   5.118
50076SOL    HW252126   2.892   3.481   5.244
50077SOL     OW52127   3.951   5.827   7.615
50077SOL    HW152128   3.943   5.893   7.546
50077SOL    HW252129   3.924   5.745   7.573
50078SOL     OW52130   5.238   9.739   5.771
50078SOL    HW152131   5.195   9.820   5.798
50078SOL    HW252132   5.199   9.719   5.686
50079SOL     OW52133   4.624   7.035   4.074
50079SOL    HW152134   4.640   7.009   4.164
50079SOL    HW252135   4.644   7.128   4.071
50080SOL     OW52136  12.983   5.894   0.125
50080SOL    HW152137  13.007   5.983   0.098
50080SOL    HW252138  12.890   5.888   0.105
50081SOL     OW52139   7.102  13.830   6.815
50081SOL    HW152140   7.082  13.783   6.734
50081SOL    HW252141   7.149  13.908   6.787
50082SOL     OW52142   4.382   1.376   4.857
50082SOL    HW152143   4.421   1.295   4.823
50082SOL    HW252144   4.311   1.346   4.914
50083SOL     OW52145   2.622   7.244   3.877
50083SOL    HW152146   2.678   7.305   3.925
50083SOL    HW252147   2.655   7.157   3.901
50084SOL     OW52148   2.331  10.952  11.424
50084SOL    HW152149   2.371  11.034  11.395
50084SOL    HW252150   2.404  10.890  11.429
50085SOL     OW52151   4.974   5.946   3.705
50085SOL    HW152152   5.007   5.886   3.772
50085SOL    HW252153   4.891   5.908   3.678
50086SOL     OW52154  10.657   8.123   3.992
50086SOL    HW152155  10.720   8.075   4.046
50086SOL    HW252156  10.582   8.064   3.986
50087SOL     OW52157   4.082   1.647  10.449
50087SOL    HW152158   4.066   1.719  10.510
50087SOL    HW252159   4.003   1.643  10.396
50088SOL     OW52160  12.726  10.585   1.265
50088SOL    HW152161  12.668  10.512   1.289
50088SOL    HW252162  12.686  10.661   1.307
50089SOL     OW52163   0.689   5.539   1.972
50089SOL    HW152164   0.753   5.562   1.905
50089SOL    HW252165   0.609   5.518   1.924
50090SOL     OW52166   4.073   1.651   7.457
50090SOL    HW152167   4.037   1.719   7.514
50090SOL    HW252168   3.997   1.609   7.418
50091SOL     OW52169   7.600   1.199   7.525
50091SOL    HW152170   7.642   1.282   7.549
50091SOL    HW252171   7.591   1.152   7.607
50092SOL     OW52172   8.946   3.575   4.557
50092SOL    HW152173   8.935   3.557   4.650
50092SOL    HW252174   8.902   3.502   4.513
50093SOL     OW52175   3.383   9.719  10.332
50093SOL    HW152176   3.376   9.815  10.334
50093SOL    HW252177   3.462   9.700  10.382
50094SOL     OW52178   1.127   0.362   0.883
50094SOL    HW152179   1.192   0.304   0.923
50094SOL    HW252180   1.078   0.399   0.956
50095SOL     OW52181   0.515   1.412  14.033
50095SOL    HW152182   0.532   1.328  14.075
50095SOL    HW252183   0.598   1.458  14.037
50096SOL     OW52184  12.306  10.849   8.429
50096SOL    HW152185  12.303  10.871   8.522
50096SOL    HW252186  12.352  10.922   8.389
50097SOL     OW52187   7.287  13.150   7.509
50097SOL    HW152188   7.295  13.097   7.430
50097SOL    HW252189   7.199  13.188   7.504
50098SOL     OW52190   6.922   2.996   6.493
50098SOL    HW152191   6.914   3.086   6.525
50098SOL    HW252192   6.989   2.957   6.550
50099SOL     OW52193   8.288   3.958   2.580
50099SOL    HW152194   8.373   3.915   2.590
50099SOL    HW252195   8.259   3.934   2.492
50100SOL     OW52196   1.391   8.797  14.689
50100SOL    HW152197   1.311   8.802  14.636
50100SOL    HW252198   1.458   8.764  14.629
50101SOL     OW52199  11.684   9.244   0.778
50101SOL    HW152200  11.658   9.198   0.698
50101SOL    HW252201  11.779   9.234   0.781
50102SOL     OW52202   2.114   5.033   6.354
50102SOL    HW152203   2.167   5.111   6.373
50102SOL    HW252204   2.137   5.009   6.265
50103SOL     OW52205  12.547   2.656  10.058
50103SOL    HW152206  12.515   2.567  10.075
50103SOL    HW252207  12.628   2.662  10.109
50104SOL     OW52208  11.218   9.361   8.961
50104SOL    HW152209  11.300   9.365   9.010
50104SOL    HW252210  11.190   9.453   8.955
50105SOL     OW52211   6.377   9.529  11.159
50105SOL    HW152212   6.319   9.472  11.209
50105SOL    HW252213   6.412   9.472  11.090
50106SOL     OW52214  14.528   0.505   6.864
50106SOL    HW152215  14.533   0.478   6.956
50106SOL    HW252216  14.592   0.449   6.820
50107SOL     OW52217   4.411   5.164   9.381
50107SOL    HW152218   4.373   5.123   9.303
50107SOL    HW252219   4.375   5.113   9.454
50108SOL     OW52220  10.288  10.257  10.297
50108SOL    HW152221  10.235  10.184  10.330
50108SOL    HW252222  10.241  10.287  10.219
50109SOL     OW52223  12.764   9.617  10.860
50109SOL    HW152224  12.786   9.595  10.769
50109SOL    HW252225  12.669   9.631  10.859
50110SOL     OW52226   0.931  14.260   1.760
50110SOL    HW152227   0.844  14.274   1.723
50110SOL    HW252228   0.991  14.283   1.689
50111SOL     OW52229   4.643  13.207   2.344
50111SOL    HW152230   4.619  13.123   2.305
50111SOL    HW252231   4.630  13.194   2.438
50112SOL     OW52232  12.169  13.318   0.872
50112SOL    HW152233  12.200  13.343   0.959
50112SOL    HW252234  12.144  13.402   0.831
50113SOL     OW52235   2.786   7.087  10.225
50113SOL    HW152236   2.757   7.104  10.136
50113SOL    HW252237   2.773   7.170  10.271
50114SOL     OW52238  14.432   4.280   4.531
50114SOL    HW152239  14.414   4.265   4.623
50114SOL    HW252240  14.348   4.307   4.493
50115SOL     OW52241   6.645   7.732   4.755
50115SOL    HW152242   6.551   7.743   4.761
50115SOL    HW252243   6.658   7.640   4.734
50116SOL     OW52244  12.587   3.310   2.183
50116SOL    HW152245  12.631   3.323   2.099
50116SOL    HW252246  12.621   3.381   2.239
50117SOL     OW52247   0.842   8.493  14.239
50117SOL    HW152248   0.863   8.560  14.174
50117SOL    HW252249   0.749   8.477  14.228
50118SOL     OW52250   1.325  11.604  11.825
50118SOL    HW152251   1.406  11.654  11.831
50118SOL    HW252252   1.261  11.665  11.788
50119SOL     OW52253  11.479   0.283   8.154
50119SOL    HW152254  11.459   0.322   8.069
50119SOL    HW252255  11.396   0.244   8.182
50120SOL     OW52256   1.037  10.083   0.297
50120SOL    HW152257   0.966  10.088   0.233
50120SOL    HW252258   1.023  10.159   0.354
50121SOL     OW52259   6.737  12.269  11.249
50121SOL    HW152260   6.646  12.262  11.279
50121SOL    HW252261   6.771  12.180  11.257
50122SOL     OW52262   1.284  13.422  10.070
50122SOL    HW152263   1.311  13.487  10.006
50122SOL    HW252264   1.364  13.372  10.090
50123SOL     OW52265   5.080  12.585   7.152
50123SOL    HW152266   5.084  12.665   7.099
50123SOL    HW252267   5.143  12.600   7.223
50124SOL     OW52268   3.596  13.247   3.240
50124SOL    HW152269   3.659  13.270   3.309
50124SOL    HW252270   3.650  13.212   3.169
50125SOL     OW52271   0.120   5.634   6.395
50125SOL    HW152272   0.126   5.705   6.331
50125SOL    HW252273   0.059   5.666   6.461
50126SOL     OW52274  10.292  11.022  14.090
50126SOL    HW152275  10.225  11.043  14.025
50126SOL    HW252276  10.300  10.927  14.087
50127SOL     OW52277   6.334   1.601   6.698
50127SOL    HW152278   6.272   1.657   6.651
50127SOL    HW252279   6.290   1.579   6.780
50128SOL     OW52280  12.450  12.223  12.274
50128SOL    HW152281  12.489  12.207  12.360
50128SOL    HW252282  12.385  12.154  12.264
50129SOL     OW52283   1.996   3.912   5.876
50129SOL    HW152284   1.999   3.869   5.790
50129SOL    HW252285   1.938   3.856   5.928
50130SOL     OW52286  10.148   2.526  12.377
50130SOL    HW152287  10.131   2.493  12.289
50130SOL    HW252288  10.081   2.594  12.391
50131SOL     OW52289   5.228   4.503  14.321
50131SOL    HW152290   5.308   4.535  14.279
50131SOL    HW252291   5.157   4.540  14.269
50132SOL     OW52292   9.542   1.524  14.646
50132SOL    HW152293   9.467   1.582  14.652
50132SOL    HW252294   9.594   1.544  14.724
50133SOL     OW52295   4.948   1.905   4.838
50133SOL    HW152296   4.977   1.905   4.747
50133SOL    HW252297   4.858   1.937   4.835
50134SOL     OW52298  13.224   8.700  10.791
50134SOL    HW152299  13.297   8.747  10.749
50134SOL    HW252300  13.254   8.683  10.880
50135SOL     OW52301   0.430   3.209   4.439
50135SOL    HW152302   0.438   3.186   4.532
50135SOL    HW252303   0.361   3.152   4.406
50136SOL     OW52304   2.008   3.463   7.959
50136SOL    HW152305   1.930   3.486   8.008
50136SOL    HW252306   1.975   3.433   7.874
50137SOL     OW52307  13.547   3.787   9.141
50137SOL    HW152308  13.458   3.778   9.175
50137SOL    HW252309  13.600   3.731   9.198
50138SOL     OW52310   3.901  14.140  14.581
50138SOL    HW152311   3.903  14.192  14.661
50138SOL    HW252312   3.817  14.160  14.541
50139SOL     OW52313  11.589  14.451   1.059
50139SOL    HW152314  11.512  14.468   1.113
50139SOL    HW252315  11.596  14.528   1.002
50140SOL     OW52316  13.409   2.113  14.816
50140SOL    HW152317  13.472   2.074  14.755
50140SOL    HW252318  13.338   2.050  14.822
50141SOL     OW52319   3.801  12.206   4.371
50141SOL    HW152320   3.855  12.213   4.449
50141SOL    HW252321   3.787  12.113   4.359
50142SOL     OW52322  12.380  12.816   9.089
50142SOL    HW152323  12.287  12.841   9.081
50142SOL    HW252324  12.402  12.833   9.180
50143SOL     OW52325   1.953   6.283   3.977
50143SOL    HW152326   1.989   6.199   3.947
50143SOL    HW252327   1.882   6.259   4.037
50144SOL     OW52328  12.145   2.547   7.073
50144SOL    HW152329  12.178   2.462   7.103
50144SOL    HW252330  12.191   2.563   6.991
50145SOL     OW52331   6.276   5.472  12.230
50145SOL    HW152332   6.209   5.449  12.295
50145SOL    HW252333   6.332   5.536  12.274
50146SOL     OW52334   0.300   1.357   9.320
50146SOL    HW152335   0.372   1.416   9.342
50146SOL    HW252336   0.222   1.399   9.357
50147SOL     OW52337   6.314  14.148  13.095
50147SOL    HW152338   6.355  14.217  13.042
50147SOL    HW252339   6.302  14.187  13.181
50148SOL     OW52340   4.477   8.402   5.330
50148SOL    HW152341   4.392   8.372   5.299
50148SOL    HW252342   4.485   8.366   5.419
50149SOL     OW52343   8.621   0.491   7.995
50149SOL    HW152344   8.619   0.414   7.937
50149SOL    HW252345   8.661   0.460   8.076
50150SOL     OW52346  13.713  11.415  14.061
50150SOL    HW152347  13.734  11.324  14.042
50150SOL    HW252348  13.793  11.463  14.040
50151SOL     OW52349   1.824   5.655   2.350
50151SOL    HW152350   1.756   5.630   2.287
50151SOL    HW252351   1.850   5.573   2.392
50152SOL     OW52352   2.415   9.947  11.666
50152SOL    HW152353   2.418   9.852  11.656
50152SOL    HW252354   2.498   9.970  11.707
50153SOL     OW52355  12.485   2.542  12.474
50153SOL    HW152356  12.557   2.519  12.416
50153SOL    HW252357  12.504   2.494  12.555
50154SOL     OW52358   8.750  14.405  13.419
50154SOL    HW152359   8.823  14.362  13.464
50154SOL    HW252360   8.718  14.340  13.357
50155SOL     OW52361   2.134  13.341   8.261
50155SOL    HW152362   2.182  13.327   8.342
50155SOL    HW252363   2.115  13.435   8.259
50156SOL     OW52364  11.687   5.243   8.070
50156SOL    HW152365  11.646   5.263   7.985
50156SOL    HW252366  11.719   5.327   8.101
50157SOL     OW52367  12.463  10.673  10.247
50157SOL    HW152368  12.523  10.724  10.192
50157SOL    HW252369  12.518  10.604  10.285
50158SOL     OW52370   4.676   7.215  10.155
50158SOL    HW152371   4.620   7.252  10.223
50158SOL    HW252372   4.615   7.183  10.089
50159SOL     OW52373  14.371   9.151   0.747
50159SOL    HW152374  14.423   9.073   0.765
50159SOL    HW252375  14.389   9.209   0.822
50160SOL     OW52376   7.534   2.509   6.417
50160SOL    HW152377   7.593   2.434   6.433
50160SOL    HW252378   7.563   2.544   6.332
50161SOL     OW52379  12.849  12.420   3.430
50161SOL    HW152380  12.891  12.410   3.344
50161SOL    HW252381  12.800  12.339   3.442
50162SOL     OW52382  11.028   4.996   3.628
50162SOL    HW152383  11.060   4.984   3.717
50162SOL    HW252384  11.108   5.010   3.576
50163SOL     OW52385   7.399  10.472  13.699
50163SOL    HW152386   7.430  10.561  13.679
50163SOL    HW252387   7.440  10.417  13.633
50164SOL     OW52388   5.936   5.166   2.581
50164SOL    HW152389   5.927   5.099   2.513
50164SOL    HW252390   6.027   5.158   2.611
50165SOL     OW52391   6.684   3.406  10.369
50165SOL    HW152392   6.603   3.367  10.337
50165SOL    HW252393   6.691   3.378  10.460
50166SOL     OW52394   8.340   4.436   6.393
50166SOL    HW152395   8.297   4.491   6.327
50166SOL    HW252396   8.415   4.488   6.422
50167SOL     OW52397  12.054   0.936   6.780
50167SOL    HW152398  12.000   0.907   6.707
50167SOL    HW252399  12.018   1.022   6.803
50168SOL     OW52400   8.614   9.114  12.203
50168SOL    HW152401   8.654   9.103  12.117
50168SOL    HW252402   8.687   9.134  12.261
50169SOL     OW52403   7.490   7.490   7.481
50169SOL    HW152404   7.557   7.538   7.433
50169SOL    HW252405   7.409   7.538   7.464
50170SOL     OW52406  14.763  14.477   8.664
50170SOL    HW152407  14.820  14.400   8.655
50170SOL    HW252408  14.777  14.508   8.753
50171SOL     OW52409  12.984   8.544  12.892
50171SOL    HW152410  13.028   8.629  12.897
50171SOL    HW252411  12.891   8.565  12.901
50172SOL     OW52412   9.015  13.163   7.475
50172SOL    HW152413   9.016  13.192   7.384
50172SOL    HW252414   9.041  13.071   7.472
50173SOL     OW52415   5.395   6.281   5.884
50173SOL    HW152416   5.470   6.304   5.940
50173SOL    HW252417   5.420   6.197   5.845
50174SOL     OW52418  11.432   3.575  14.795
50174SOL    HW152419  11.452   3.497  14.742
50174SOL    HW252420  11.342   3.597  14.771
50175SOL     OW52421  10.293   5.676   9.262
50175SOL    HW152422  10.302   5.726   9.342
50175SOL    HW252423  10.317   5.587   9.287
50176SOL     OW52424   4.887   9.411   8.351
50176SOL    HW152425   4.808   9.363   8.328
50176SOL    HW252426   4.865   9.456   8.432
50177SOL     OW52427   6.091   2.012  12.052
50177SOL    HW152428   6.073   1.982  12.141
50177SOL    HW252429   6.173   2.062  12.060
50178SOL     OW52430  14.142   1.603  10.152
50178SOL    HW152431  14.132   1.524  10.099
50178SOL    HW252432  14.103   1.580  10.237
50179SOL     OW52433   8.089   4.993   3.377
50179SOL    HW152434   8.022   4.979   3.444
50179SOL    HW252435   8.172   4.986   3.424
50180SOL     OW52436  14.649  11.279   2.005
50180SOL    HW152437  14.706  11.340   1.958
50180SOL    HW252438  14.663  11.195   1.960
50181SOL     OW52439   3.726   7.550  11.465
50181SOL    HW152440   3.653   7.541  11.527
50181SOL    HW252441   3.777   7.623  11.500
50182SOL     OW52442  11.132   5.158   9.507
50182SOL    HW152443  11.044   5.129   9.479
50182SOL    HW252444  11.184   5.078   9.508
50183SOL     OW52445   8.788  11.191   2.766
50183SOL    HW152446   8.776  11.167   2.674
50183SOL    HW252447   8.883  11.204   2.775
50184SOL     OW52448   5.877   2.881   0.529
50184SOL    HW152449   5.791   2.887   0.486
50184SOL    HW252450   5.934   2.934   0.474
50185SOL     OW52451   1.423  10.313  10.391
50185SOL    HW152452   1.476  10.394  10.393
50185SOL    HW252453   1.418  10.285  10.482
50186SOL     OW52454  13.065   4.312   5.966
50186SOL    HW152455  13.159   4.308   5.952
50186SOL    HW252456  13.042   4.228   6.006
50187SOL     OW52457   4.986   4.448   8.573
50187SOL    HW152458   4.905   4.489   8.602
50187SOL    HW252459   5.000   4.376   8.634
50188SOL     OW52460   4.689   8.081   1.200
50188SOL    HW152461   4.763   8.026   1.228
50188SOL    HW252462   4.614   8.042   1.245
50189SOL     OW52463   2.901  10.891   5.535
50189SOL    HW152464   2.947  10.810   5.512
50189SOL    HW252465   2.966  10.960   5.523
50190SOL     OW52466   8.669   7.936   1.563
50190SOL    HW152467   8.683   7.896   1.649
50190SOL    HW252468   8.746   7.991   1.549
50191SOL     OW52469   0.091   2.138  13.336
50191SOL    HW152470   0.061   2.048  13.346
50191SOL    HW252471   0.185   2.134  13.356
50192SOL     OW52472  10.317  10.835   7.271
50192SOL    HW152473  10.404  10.854   7.236
50192SOL    HW252474  10.333  10.796   7.356
50193SOL     OW52475   4.064   4.326   4.211
50193SOL    HW152476   4.012   4.386   4.265
50193SOL    HW252477   4.071   4.246   4.264
50194SOL     OW52478   4.502   1.695   0.378
50194SOL    HW152479   4.537   1.740   0.455
50194SOL    HW252480   4.499   1.762   0.310
50195SOL     OW52481   8.582   2.121   3.226
50195SOL    HW152482   8.647   2.168   3.278
50195SOL    HW252483   8.599   2.148   3.136
50196SOL     OW52484  14.499   8.908   0.378
50196SOL    HW152485  14.481   8.830   0.431
50196SOL    HW252486  14.594   8.916   0.380
50197SOL     OW52487   6.932   5.967  12.042
50197SOL    HW152488   6.902   5.888  12.087
50197SOL    HW252489   6.971   5.935  11.961
50198SOL     OW52490   0.944   4.596   6.448
50198SOL    HW152491   0.976   4.553   6.368
50198SOL    HW252492   0.895   4.671   6.416
50199SOL     OW52493   7.808  11.408  10.262
50199SOL    HW152494   7.746  11.481  10.262
50199SOL    HW252495   7.753  11.330  10.259
50200SOL     OW52496   8.686   1.606  13.141
50200SOL    HW152497   8.736   1.686  13.126
50200SOL    HW252498   8.683   1.563  13.055
50201SOL     OW52499   3.023   7.759   3.376
50201SOL    HW152500   3.025   7.837   3.321
50201SOL    HW252501   2.994   7.790   3.461
50202SOL     OW52502   7.860   2.565   9.228
50202SOL    HW152503   7.797   2.628   9.263
50202SOL    HW252504   7.827   2.480   9.258
50203SOL     OW52505   7.334   6.299  13.760
50203SOL    HW152506   7.355   6.206  13.766
50203SOL    HW252507   7.273   6.305  13.686
50204SOL     OW52508  12.733  14.407   9.433
50204SOL    HW152509  12.715  14.454   9.514
50204SOL    HW252510  12.656  14.422   9.378
50205SOL     OW52511   2.145   5.801   1.266
50205SOL    HW152512   2.193   5.724   1.237
50205SOL    HW252513   2.056   5.788   1.233
50206SOL     OW52514   1.717  11.402   8.746
50206SOL    HW152515   1.708  11.436   8.836
50206SOL    HW252516   1.705  11.308   8.755
50207SOL     OW52517   7.493   4.764  12.653
50207SOL    HW152518   7.581   4.733  12.631
50207SOL    HW252519   7.484   4.846  12.604
50208SOL     OW52520   5.018   4.941   4.234
50208SOL    HW152521   5.055   5.029   4.245
50208SOL    HW252522   5.049   4.913   4.148
50209SOL     OW52523   2.464  12.665  10.351
50209SOL    HW152524   2.465  12.694  10.260
50209SOL    HW252525   2.380  12.697  10.385
50210SOL     OW52526   0.894   9.942   4.899
50210SOL    HW152527   0.905   9.945   4.804
50210SOL    HW252528   0.817   9.887   4.913
50211SOL     OW52529   7.783  13.503  10.516
50211SOL    HW152530   7.795  13.428  10.458
50211SOL    HW252531   7.813  13.578  10.464
50212SOL     OW52532  14.868   4.184  13.017
50212SOL    HW152533   0.083   4.227  13.004
50212SOL    HW252534  14.866   4.115  12.951
50213SOL     OW52535   1.617   8.393  10.849
50213SOL    HW152536   1.633   8.310  10.895
50213SOL    HW252537   1.684   8.396  10.781
50214SOL     OW52538   7.953   9.467   3.423
50214SOL    HW152539   7.884   9.430   3.477
50214SOL    HW252540   7.918   9.551   3.393
50215SOL     OW52541   0.242   8.442  10.370
50215SOL    HW152542   0.167   8.442  10.311
50215SOL    HW252543   0.295   8.368  10.342
50216SOL     OW52544   0.204   7.062  12.946
50216SOL    HW152545   0.296   7.063  12.919
50216SOL    HW252546   0.155   7.061  12.864
50217SOL     OW52547   8.619  10.489   9.839
50217SOL    HW152548   8.539  10.533   9.867
50217SOL    HW252549   8.663  10.463   9.920
50218SOL     OW52550   4.266   3.335   4.015
50218SOL    HW152551   4.293   3.281   3.941
50218SOL    HW252552   4.184   3.376   3.987
50219SOL     OW52553   9.242   1.802   1.305
50219SOL    HW152554   9.202   1.834   1.224
50219SOL    HW252555   9.325   1.849   1.310
50220SOL     OW52556   0.019  12.271   5.560
50220SOL    HW152557   0.015  12.353   5.510
50220SOL    HW252558   0.041  12.298   5.649
50221SOL     OW52559  13.046  10.013  14.468
50221SOL    HW152560  13.099  10.024  14.547
50221SOL    HW252561  13.033  10.101  14.435
50222SOL     OW52562  12.745   8.395  10.512
50222SOL    HW152563  12.681   8.335  10.476
50222SOL    HW252564  12.735   8.388  10.607
50223SOL     OW52565  10.338   4.042   5.368
50223SOL    HW152566  10.317   4.047   5.274
50223SOL    HW252567  10.348   4.134   5.395
50224SOL     OW52568   7.737  10.087  11.455
50224SOL    HW152569   7.801  10.026  11.493
50224SOL    HW252570   7.780  10.119  11.376
50225SOL     OW52571   5.071  11.934   4.264
50225SOL    HW152572   5.155  11.952   4.306
50225SOL    HW252573   5.089  11.942   4.170
50226SOL     OW52574   2.716  13.245   4.423
50226SOL    HW152575   2.752  13.321   4.377
50226SOL    HW252576   2.738  13.261   4.515
50227SOL     OW52577   5.835   2.554   8.708
50227SOL    HW152578   5.864   2.490   8.643
50227SOL    HW252579   5.907   2.617   8.714
50228SOL     OW52580   2.304  14.484  10.406
50228SOL    HW152581   2.217  14.474  10.444
50228SOL    HW252582   2.364  14.447  10.470
50229SOL     OW52583  10.899  10.014   6.358
50229SOL    HW152584  10.806  10.029   6.345
50229SOL    HW252585  10.911   9.920   6.345
50230SOL     OW52586  11.283  14.497   1.137
50230SOL    HW152587  11.287  14.524   1.229
50230SOL    HW252588  11.283  14.579   1.088
50231SOL     OW52589   8.308  14.787   5.390
50231SOL    HW152590   8.330  14.733   5.465
50231SOL    HW252591   8.216  14.808   5.402
50232SOL     OW52592   6.757   4.552   6.167
50232SOL    HW152593   6.747   4.647   6.160
50232SOL    HW252594   6.751   4.520   6.077
50233SOL     OW52595  11.879  10.579  10.163
50233SOL    HW152596  11.824  10.631  10.104
50233SOL    HW252597  11.950  10.548  10.108
50234SOL     OW52598  14.598   5.627  14.524
50234SOL    HW152599  14.566   5.619  14.614
50234SOL    HW252600  14.677   5.574  14.522
50235SOL     OW52601   6.238   1.417   3.574
50235SOL    HW152602   6.230   1.368   3.491
50235SOL    HW252603   6.296   1.364   3.628
50236SOL     OW52604   2.810   8.470  13.409
50236SOL    HW152605   2.880   8.503  13.353
50236SOL    HW252606   2.764   8.548  13.438
50237SOL     OW52607   7.066   2.969  11.397
50237SOL    HW152608   7.037   2.908  11.464
50237SOL    HW252609   7.037   2.929  11.315
50238SOL     OW52610  11.517   5.947   8.619
50238SOL    HW152611  11.429   5.982   8.632
50238SOL    HW252612  11.517   5.864   8.667
50239SOL     OW52613   9.818  13.323  11.114
50239SOL    HW152614   9.898  13.376  11.115
50239SOL    HW252615   9.834  13.253  11.178
50240SOL     OW52616   7.514   0.217   3.516
50240SOL    HW152617   7.512   0.136   3.465
50240SOL    HW252618   7.587   0.267   3.479
50241SOL     OW52619   6.233   8.934   8.503
50241SOL    HW152620   6.226   8.954   8.410
50241SOL    HW252621   6.327   8.943   8.523
50242SOL     OW52622  10.623   6.015   6.595
50242SOL    HW152623  10.608   5.946   6.659
50242SOL    HW252624  10.700   5.987   6.546
50243SOL     OW52625   6.069   2.761   9.537
50243SOL    HW152626   6.158   2.794   9.552
50243SOL    HW252627   6.080   2.696   9.467
50244SOL     OW52628  11.878  14.703  13.246
50244SOL    HW152629  11.967  14.699  13.212
50244SOL    HW252630  11.858  14.613  13.272
50245SOL     OW52631   2.200   1.406  12.892
50245SOL    HW152632   2.156   1.331  12.932
50245SOL    HW252633   2.162   1.482  12.934
50246SOL     OW52634   2.797   2.021   5.699
50246SOL    HW152635   2.815   1.939   5.745
50246SOL    HW252636   2.883   2.049   5.667
50247SOL     OW52637   0.446   1.508   2.653
50247SOL    HW152638   0.532   1.467   2.658
50247SOL    HW252639   0.402   1.464   2.580
50248SOL     OW52640  12.535  10.549   7.207
50248SOL    HW152641  12.481  10.473   7.186
50248SOL    HW252642  12.505  10.576   7.294
50249SOL     OW52643   8.077   6.211   5.495
50249SOL    HW152644   8.099   6.150   5.565
50249SOL    HW252645   8.009   6.267   5.533
50250SOL     OW52646   0.310   9.080   0.668
50250SOL    HW152647   0.287   9.014   0.603
50250SOL    HW252648   0.241   9.074   0.735
50251SOL     OW52649   9.892   3.642  13.874
50251SOL    HW152650   9.813   3.695  13.880
50251SOL    HW252651   9.899   3.600  13.960
50252SOL     OW52652   2.275   7.992  14.194
50252SOL    HW152653   2.204   7.963  14.252
50252SOL    HW252654   2.249   7.964  14.107
50253SOL     OW52655   6.413  12.501   2.882
50253SOL    HW152656   6.322  12.487   2.856
50253SOL    HW252657   6.424  12.445   2.959
50254SOL     OW52658  13.341   0.597   1.606
50254SOL    HW152659  13.322   0.625   1.696
50254SOL    HW252660  13.270   0.536   1.585
50255SOL     OW52661  10.606   6.808   2.748
50255SOL    HW152662  10.623   6.807   2.842
50255SOL    HW252663  10.685   6.770   2.709
50256SOL     OW52664   1.378   7.267  11.300
50256SOL    HW152665   1.397   7.176  11.326
50256SOL    HW252666   1.289   7.282  11.331
50257SOL     OW52667  13.312   1.153   5.770
50257SOL    HW152668  13.405   1.149   5.791
50257SOL    HW252669  13.293   1.247   5.762
50258SOL     OW52670   2.590   0.208  12.385
50258SOL    HW152671   2.659   0.267  12.415
50258SOL    HW252672   2.515   0.229  12.441
50259SOL     OW52673   9.970  11.865   7.772
50259SOL    HW152674  10.049  11.846   7.822
50259SOL    HW252675   9.929  11.938   7.817
50260SOL     OW52676  11.293   7.992  12.679
50260SOL    HW152677  11.369   7.936  12.696
50260SOL    HW252678  11.285   7.993  12.583
50261SOL     OW52679  12.421   9.758   4.432
50261SOL    HW152680  12.447   9.675   4.394
50261SOL    HW252681  12.498   9.814   4.423
50262SOL     OW52682  11.917   1.706  10.753
50262SOL    HW152683  11.981   1.754  10.805
50262SOL    HW252684  11.833   1.743  10.779
50263SOL     OW52685  14.535   0.187   5.413
50263SOL    HW152686  14.599   0.231   5.469
50263SOL    HW252687  14.529   0.243   5.335
50264SOL     OW52688   1.549   4.951   0.482
50264SOL    HW152689   1.620   4.953   0.417
50264SOL    HW252690   1.486   4.887   0.446
50265SOL     OW52691   7.354   1.841  14.510
50265SOL    HW152692   7.353   1.779  14.437
50265SOL    HW252693   7.274   1.892  14.500
50266SOL     OW52694  10.863   3.852  11.214
50266SOL    HW152695  10.862   3.871  11.307
50266SOL    HW252696  10.785   3.798  11.199
50267SOL     OW52697  11.042   3.291  14.721
50267SOL    HW152698  10.989   3.342  14.783
50267SOL    HW252699  10.981   3.264  14.653
50268SOL     OW52700  11.473   2.252   3.011
50268SOL    HW152701  11.456   2.157   3.016
50268SOL    HW252702  11.565   2.262   3.035
50269SOL     OW52703  11.070   8.441   4.420
50269SOL    HW152704  11.047   8.487   4.501
50269SOL    HW252705  11.143   8.384   4.445
50270SOL     OW52706   6.492   7.539   3.705
50270SOL    HW152707   6.437   7.548   3.626
50270SOL    HW252708   6.436   7.569   3.776
50271SOL     OW52709   3.644  12.897   6.617
50271SOL    HW152710   3.549  12.907   6.606
50271SOL    HW252711   3.680  12.907   6.529
50272SOL     OW52712   3.910   3.765  13.807
50272SOL    HW152713   3.866   3.685  13.780
50272SOL    HW252714   3.960   3.740  13.885
50273SOL     OW52715  14.567   0.124  10.281
50273SOL    HW152716  14.607   0.147  10.197
50273SOL    HW252717  14.634   0.147  10.346
50274SOL     OW52718   4.281  11.145   3.020
50274SOL    HW152719   4.351  11.087   3.049
50274SOL    HW252720   4.316  11.233   3.031
50275SOL     OW52721   9.648   4.938   2.495
50275SOL    HW152722   9.654   4.963   2.587
50275SOL    HW252723   9.623   4.845   2.496
50276SOL     OW52724   3.307   8.275   9.024
50276SOL    HW152725   3.393   8.303   8.993
50276SOL    HW252726   3.315   8.181   9.037
50277SOL     OW52727   1.381   8.042   8.345
50277SOL    HW152728   1.372   8.012   8.254
50277SOL    HW252729   1.465   8.089   8.346
50278SOL     OW52730   8.251  11.610   5.321
50278SOL    HW152731   8.331  11.655   5.294
50278SOL    HW252732   8.183  11.646   5.265
50279SOL     OW52733  14.277   6.644   1.912
50279SOL    HW152734  14.224   6.724   1.914
50279SOL    HW252735  14.273   6.612   2.002
50280SOL     OW52736   1.267   9.842   6.501
50280SOL    HW152737   1.202   9.843   6.431
50280SOL    HW252738   1.252   9.923   6.550
50281SOL     OW52739   0.629  10.435  11.558
50281SOL    HW152740   0.624  10.391  11.643
50281SOL    HW252741   0.656  10.366  11.497
50282SOL     OW52742   1.281   9.212   1.562
50282SOL    HW152743   1.265   9.119   1.574
50282SOL    HW252744   1.307   9.245   1.648
50283SOL     OW52745   1.333  14.710   3.688
50283SOL    HW152746   1.300  14.730   3.600
50283SOL    HW252747   1.427  14.697   3.676
50284SOL     OW52748   6.112   4.545  11.633
50284SOL    HW152749   6.118   4.639  11.647
50284SOL    HW252750   6.202   4.516  11.620
50285SOL     OW52751   3.051   5.773   8.283
50285SOL    HW152752   3.126   5.830   8.265
50285SOL    HW252753   3.030   5.734   8.198
50286SOL     OW52754   5.336   7.274  14.644
50286SOL    HW152755   5.393   7.243  14.574
50286SOL    HW252756   5.331   7.200  14.705
50287SOL     OW52757   6.406  13.316   3.909
50287SOL    HW152758   6.386  13.226   3.934
50287SOL    HW252759   6.495  13.331   3.941
50288SOL     OW52760  12.232   2.022   7.108
50288SOL    HW152761  12.290   1.988   7.040
50288SOL    HW252762  12.270   1.993   7.190
50289SOL     OW52763  12.381   4.250   9.231
50289SOL    HW152764  12.379   4.294   9.316
50289SOL    HW252765  12.295   4.268   9.193
50290SOL     OW52766   5.514   4.834   9.255
50290SOL    HW152767   5.553   4.854   9.169
50290SOL    HW252768   5.487   4.743   9.247
50291SOL     OW52769   3.446   8.775  10.831
50291SOL    HW152770   3.407   8.688  10.822
50291SOL    HW252771   3.427   8.800  10.921
50292SOL     OW52772   5.313  12.372   2.342
50292SOL    HW152773   5.384  12.408   2.395
50292SOL    HW252774   5.281  12.447   2.292
50293SOL     OW52775   3.293   2.148  10.652
50293SOL    HW152776   3.206   2.117  10.626
50293SOL    HW252777   3.284   2.169  10.745
50294SOL     OW52778   3.671  10.241  10.894
50294SOL    HW152779   3.647  10.220  10.803
50294SOL    HW252780   3.588  10.236  10.942
50295SOL     OW52781  10.055  14.427   8.850
50295SOL    HW152782  10.013  14.346   8.878
50295SOL    HW252783  10.124  14.399   8.789
50296SOL     OW52784   6.440   5.579   3.376
50296SOL    HW152785   6.357   5.537   3.353
50296SOL    HW252786   6.416   5.646   3.439
50297SOL     OW52787   8.042  12.746  10.264
50297SOL    HW152788   8.021  12.784  10.178
50297SOL    HW252789   8.064  12.821  10.319
50298SOL     OW52790   7.858   1.823   6.479
50298SOL    HW152791   7.844   1.908   6.521
50298SOL    HW252792   7.880   1.764   6.551
50299SOL     OW52793   4.647   5.099   4.251
50299SOL    HW152794   4.670   5.116   4.343
50299SOL    HW252795   4.666   5.006   4.239
50300SOL     OW52796   7.225   5.170  12.263
50300SOL    HW152797   7.179   5.103  12.313
50300SOL    HW252798   7.246   5.238  12.327
50301SOL     OW52799  12.437   8.288   4.862
50301SOL    HW152800  12.413   8.380   4.848
50301SOL    HW252801  12.522   8.292   4.906
50302SOL     OW52802  11.216   8.482  10.441
50302SOL    HW152803  11.306   8.517  10.440
50302SOL    HW252804  11.183   8.498  10.353
50303SOL     OW52805   5.387  14.838  10.807
50303SOL    HW152806   5.480  14.828  10.784
50303SOL    HW252807   5.352  14.749  10.802
50304SOL     OW52808   9.343   3.690  11.412
50304SOL    HW152809   9.294   3.747  11.471
50304SOL    HW252810   9.303   3.704  11.327
50305SOL     OW52811   6.643   9.256  11.502
50305SOL    HW152812   6.699   9.192  11.544
50305SOL    HW252813   6.554   9.227  11.522
50306SOL     OW52814   0.524   6.651   2.922
50306SOL    HW152815   0.516   6.703   2.842
50306SOL    HW252816   0.435   6.622   2.942
50307SOL     OW52817   1.335   2.205   8.974
50307SOL    HW152818   1.320   2.121   8.931
50307SOL    HW252819   1.408   2.188   9.035
50308SOL     OW52820   7.653   9.746   4.848
50308SOL    HW152821   7.562   9.755   4.878
50308SOL    HW252822   7.661   9.811   4.778
50309SOL     OW52823   0.190   1.891   1.045
50309SOL    HW152824   0.101   1.856   1.044
50309SOL    HW252825   0.185   1.965   1.106
50310SOL     OW52826  11.145   9.881  13.444
50310SOL    HW152827  11.071   9.941  13.452
50310SOL    HW252828  11.194   9.913  13.369
50311SOL     OW52829   2.248   4.466   9.328
50311SOL    HW152830   2.279   4.504   9.246
50311SOL    HW252831   2.153   4.478   9.325
50312SOL     OW52832   6.955   3.649  10.321
50312SOL    HW152833   6.934   3.562  10.356
50312SOL    HW252834   7.004   3.692  10.390
50313SOL     OW52835  11.326  12.110   0.782
50313SOL    HW152836  11.335  12.117   0.878
50313SOL    HW252837  11.312  12.017   0.767
50314SOL     OW52838   7.650  10.464   1.797
50314SOL    HW152839   7.647  10.385   1.742
50314SOL    HW252840   7.633  10.433   1.885
50315SOL     OW52841   6.281  14.419   9.050
50315SOL    HW152842   6.349  14.373   9.000
50315SOL    HW252843   6.230  14.466   8.984
50316SOL     OW52844   5.363   0.011   2.408
50316SOL    HW152845   5.341   0.067   2.482
50316SOL    HW252846   5.457  14.863   2.419
50317SOL     OW52847   2.214   3.640   0.240
50317SOL    HW152848   2.197   3.614   0.330
50317SOL    HW252849   2.309   3.639   0.232
50318SOL     OW52850   5.628   3.624   8.536
50318SOL    HW152851   5.556   3.628   8.473
50318SOL    HW252852   5.661   3.714   8.540
50319SOL     OW52853   4.823   6.941  11.198
50319SOL    HW152854   4.895   6.909  11.144
50319SOL    HW252855   4.866   6.988  11.270
50320SOL     OW52856  13.736  10.290   7.342
50320SOL    HW152857  13.770  10.200   7.341
50320SOL    HW252858  13.641  10.279   7.346
50321SOL     OW52859   6.801   3.487   4.188
50321SOL    HW152860   6.809   3.529   4.273
50321SOL    HW252861   6.711   3.505   4.161
50322SOL     OW52862  14.334   0.440  12.773
50322SOL    HW152863  14.323   0.535  12.769
50322SOL    HW252864  14.420   0.424  12.735
50323SOL     OW52865   9.977  14.388   6.743
50323SOL    HW152866   9.945  14.375   6.653
50323SOL    HW252867   9.963  14.304   6.786
50324SOL     OW52868   5.274   9.258   9.580
50324SOL    HW152869   5.256   9.257   9.486
50324SOL    HW252870   5.370   9.267   9.586
50325SOL     OW52871  11.655   5.163   9.776
50325SOL    HW152872  11.746   5.159   9.749
50325SOL    HW252873  11.631   5.072   9.795
50326SOL     OW52874  13.815   8.798  11.478
50326SOL    HW152875  13.911   8.797  11.481
50326SOL    HW252876  13.793   8.741  11.404
50327SOL     OW52877   2.568   6.123   6.602
50327SOL    HW152878   2.534   6.093   6.518
50327SOL    HW252879   2.506   6.192   6.629
50328SOL     OW52880   8.506   6.689  13.771
50328SOL    HW152881   8.552   6.716  13.691
50328SOL    HW252882   8.510   6.766  13.828
50329SOL     OW52883   3.977   9.998   5.338
50329SOL    HW152884   4.027   9.919   5.355
50329SOL    HW252885   3.889   9.978   5.370
50330SOL     OW52886   4.884   0.510  11.475
50330SOL    HW152887   4.836   0.515  11.558
50330SOL    HW252888   4.853   0.428  11.435
50331SOL     OW52889   6.139   6.288  12.984
50331SOL    HW152890   6.192   6.232  12.927
50331SOL    HW252891   6.073   6.229  13.020
50332SOL     OW52892   8.306   8.271  10.929
50332SOL    HW152893   8.384   8.220  10.951
50332SOL    HW252894   8.320   8.355  10.972
50333SOL     OW52895   5.172   9.857  13.025
50333SOL    HW152896   5.212   9.854  12.938
50333SOL    HW252897   5.207   9.937  13.065
50334SOL     OW52898   7.502   7.800   1.497
50334SOL    HW152899   7.497   7.867   1.565
50334SOL    HW252900   7.420   7.752   1.504
50335SOL     OW52901   1.168   5.777  11.109
50335SOL    HW152902   1.156   5.682  11.113
50335SOL    HW252903   1.099   5.812  11.165
50336SOL     OW52904   1.584   0.564  14.189
50336SOL    HW152905   1.606   0.519  14.270
50336SOL    HW252906   1.488   0.562  14.185
50337SOL     OW52907  10.771  14.046   5.548
50337SOL    HW152908  10.716  14.124   5.543
50337SOL    HW252909  10.810  14.039   5.460
50338SOL     OW52910   4.497   4.354   8.793
50338SOL    HW152911   4.405   4.371   8.776
50338SOL    HW252912   4.502   4.343   8.888
50339SOL     OW52913   8.458   1.527   2.461
50339SOL    HW152914   8.432   1.436   2.475
50339SOL    HW252915   8.553   1.524   2.459
50340SOL     OW52916   6.866  10.013  11.992
50340SOL    HW152917   6.894  10.103  12.005
50340SOL    HW252918   6.770  10.015  12.000
50341SOL     OW52919   5.545  14.605   4.233
50341SOL    HW152920   5.575  14.678   4.179
50341SOL    HW252921   5.465  14.637   4.275
50342SOL     OW52922   1.331   9.724   4.614
50342SOL    HW152923   1.416   9.718   4.657
50342SOL    HW252924   1.351   9.719   4.520
50343SOL     OW52925  12.091   0.390   7.313
50343SOL    HW152926  12.001   0.379   7.342
50343SOL    HW252927  12.119   0.302   7.286
50344SOL     OW52928  11.152   5.955   7.969
50344SOL    HW152929  11.080   5.929   7.911
50344SOL    HW252930  11.113   5.958   8.056
50345SOL     OW52931   4.062  13.868   7.560
50345SOL    HW152932   3.974  13.859   7.523
50345SOL    HW252933   4.118  13.890   7.486
50346SOL     OW52934   7.696  10.184   8.269
50346SOL    HW152935   7.605  10.212   8.262
50346SOL    HW252936   7.699  10.098   8.227
50347SOL     OW52937   6.367  14.609   6.110
50347SOL    HW152938   6.311  14.687   6.106
50347SOL    HW252939   6.340  14.557   6.034
50348SOL     OW52940  14.666   7.768  11.415
50348SOL    HW152941  14.616   7.730  11.487
50348SOL    HW252942  14.735   7.819  11.457
50349SOL     OW52943   1.075   1.623  14.192
50349SOL    HW152944   1.052   1.606  14.284
50349SOL    HW252945   1.170   1.631  14.192
50350SOL     OW52946   5.119  12.939   5.564
50350SOL    HW152947   5.132  12.922   5.471
50350SOL    HW252948   5.192  12.998   5.587
50351SOL     OW52949  12.280  14.724   9.192
50351SOL    HW152950  12.195  14.704   9.154
50351SOL    HW252951  12.343  14.683   9.132
50352SOL     OW52952   2.400   0.992  11.775
50352SOL    HW152953   2.484   1.022  11.810
50352SOL    HW252954   2.422   0.940  11.698
50353SOL     OW52955   2.055   0.750   9.094
50353SOL    HW152956   2.101   0.743   9.178
50353SOL    HW252957   1.997   0.673   9.092
50354SOL     OW52958   7.672   9.577   9.186
50354SOL    HW152959   7.736   9.562   9.116
50354SOL    HW252960   7.607   9.636   9.148
50355SOL     OW52961   4.022  12.478   1.906
50355SOL    HW152962   3.956  12.459   1.839
50355SOL    HW252963   4.093  12.521   1.858
50356SOL     OW52964  12.623   3.817   1.734
50356SOL    HW152965  12.618   3.833   1.828
50356SOL    HW252966  12.538   3.779   1.711
50357SOL     OW52967   8.656   0.252   2.694
50357SOL    HW152968   8.573   0.249   2.647
50357SOL    HW252969   8.683   0.160   2.702
50358SOL     OW52970   1.523   2.019   8.817
50358SOL    HW152971   1.519   2.012   8.912
50358SOL    HW252972   1.581   2.093   8.800
50359SOL     OW52973   5.259   1.095   2.609
50359SOL    HW152974   5.303   1.012   2.628
50359SOL    HW252975   5.248   1.094   2.513
50360SOL     OW52976  14.802   8.551   6.790
50360SOL    HW152977  14.728   8.602   6.820
50360SOL    HW252978  14.802   8.473   6.845
50361SOL     OW52979   1.560  12.242   0.833
50361SOL    HW152980   1.603  12.316   0.877
50361SOL    HW252981   1.541  12.274   0.745
50362SOL     OW52982   4.373   8.208  14.422
50362SOL    HW152983   4.351   8.131  14.369
50362SOL    HW252984   4.300   8.268  14.408
50363SOL     OW52985   7.958  13.062   8.140
50363SOL    HW152986   8.044  13.091   8.172
50363SOL    HW252987   7.920  13.141   8.101
50364SOL     OW52988  14.479   4.936  13.617
50364SOL    HW152989  14.478   4.849  13.577
50364SOL    HW252990  14.571   4.951  13.640
50365SOL     OW52991  11.290  14.506  10.135
50365SOL    HW152992  11.249  14.429  10.174
50365SOL    HW252993  11.241  14.520  10.053
50366SOL     OW52994   4.030   3.781   4.701
50366SOL    HW152995   4.050   3.702   4.751
50366SOL    HW252996   4.004   3.750   4.615
50367SOL     OW52997  14.231  13.121   0.814
50367SOL    HW152998  14.173  13.189   0.779
50367SOL    HW252999  14.319  13.155   0.801
50368SOL     OW53000  12.160   6.890   4.424
50368SOL    HW153001  12.122   6.867   4.339
50368SOL    HW253002  12.090   6.873   4.487
50369SOL     OW53003   0.844   8.777  13.836
50369SOL    HW153004   0.807   8.690  13.824
50369SOL    HW253005   0.860   8.784  13.930
50370SOL     OW53006   9.139   0.613   0.395
50370SOL    HW153007   9.150   0.606   0.300
50370SOL    HW253008   9.207   0.674   0.424
50371SOL     OW53009   3.172   7.853  14.699
50371SOL    HW153010   3.092   7.835  14.649
50371SOL    HW253011   3.216   7.768  14.706
50372SOL     OW53012   8.992   3.799   2.891
50372SOL    HW153013   8.955   3.887   2.890
50372SOL    HW253014   9.061   3.802   2.957
50373SOL     OW53015  10.887   5.119   2.779
50373SOL    HW153016  10.880   5.213   2.761
50373SOL    HW253017  10.815   5.100   2.839
50374SOL     OW53018   4.663   6.687  13.371
50374SOL    HW153019   4.692   6.734  13.293
50374SOL    HW253020   4.729   6.619  13.384
50375SOL     OW53021   7.222   4.892  12.167
50375SOL    HW153022   7.196   4.800  12.167
50375SOL    HW253023   7.279   4.900  12.091
50376SOL     OW53024  10.438   6.356   8.114
50376SOL    HW153025  10.351   6.333   8.146
50376SOL    HW253026  10.422   6.414   8.039
50377SOL     OW53027  11.617   0.030   3.456
50377SOL    HW153028  11.564  14.867   3.528
50377SOL    HW253029  11.620  14.827   3.394
50378SOL     OW53030   2.591  13.105   3.342
50378SOL    HW153031   2.611  13.082   3.433
50378SOL    HW253032   2.638  13.040   3.290
50379SOL     OW53033   5.353   3.010   7.333
50379SOL    HW153034   5.296   2.937   7.307
50379SOL    HW253035   5.399   3.033   7.252
50380SOL     OW53036  11.538   2.896   9.568
50380SOL    HW153037  11.498   2.901   9.482
50380SOL    HW253038  11.465   2.887   9.629
50381SOL     OW53039  11.115   4.903  14.348
50381SOL    HW153040  11.081   4.822  14.312
50381SOL    HW253041  11.105   4.893  14.443
50382SOL     OW53042   5.756  11.732   7.125
50382SOL    HW153043   5.685  11.796   7.113
50382SOL    HW253044   5.758  11.683   7.042
50383SOL     OW53045   7.015   5.098   6.534
50383SOL    HW153046   7.067   5.101   6.454
50383SOL    HW253047   6.967   5.015   6.528
50384SOL     OW53048  14.830   2.419   7.040
50384SOL    HW153049   0.021   2.480   6.996
50384SOL    HW253050  14.814   2.351   6.976
50385SOL     OW53051   5.527   1.774   3.056
50385SOL    HW153052   5.523   1.869   3.048
50385SOL    HW253053   5.617   1.756   3.084
50386SOL     OW53054   9.046  13.246   7.949
50386SOL    HW153055   8.978  13.225   8.013
50386SOL    HW253056   9.111  13.294   8.000
50387SOL     OW53057  10.544  13.560   5.511
50387SOL    HW153058  10.466  13.542   5.565
50387SOL    HW253059  10.616  13.521   5.561
50388SOL     OW53060   7.009   7.763   7.290
50388SOL    HW153061   6.925   7.747   7.333
50388SOL    HW253062   7.073   7.718   7.344
50389SOL     OW53063   2.590   8.683  10.480
50389SOL    HW153064   2.556   8.618  10.418
50389SOL    HW253065   2.624   8.753  10.425
50390SOL     OW53066  11.442   4.666  14.758
50390SOL    HW153067  11.439   4.666  14.853
50390SOL    HW253068  11.353   4.644  14.731
50391SOL     OW53069   3.784  12.888   9.901
50391SOL    HW153070   3.789  12.808   9.952
50391SOL    HW253071   3.797  12.958   9.966
50392SOL     OW53072  10.461   8.857   2.763
50392SOL    HW153073  10.385   8.882   2.816
50392SOL    HW253074  10.427   8.852   2.674
50393SOL     OW53075   0.184  13.003   1.338
50393SOL    HW153076   0.242  13.053   1.281
50393SOL    HW253077   0.126  12.956   1.278
50394SOL     OW53078   1.259   0.417   9.379
50394SOL    HW153079   1.309   0.496   9.402
50394SOL    HW253080   1.253   0.368   9.461
50395SOL     OW53081   8.806  10.698  12.144
50395SOL    HW153082   8.766  10.709  12.058
50395SOL    HW253083   8.855  10.616  12.137
50396SOL     OW53084  12.463   0.630   3.857
50396SOL    HW153085  12.429   0.596   3.939
50396SOL    HW253086  12.528   0.695   3.883
50397SOL     OW53087  11.710   9.607   4.544
50397SOL    HW153088  11.650   9.621   4.471
50397SOL    HW253089  11.736   9.694   4.571
50398SOL     OW53090   6.555  12.753  12.633
50398SOL    HW153091   6.594  12.668  12.652
50398SOL    HW253092   6.623  12.800  12.583
50399SOL     OW53093  10.665   2.928   4.809
50399SOL    HW153094  10.584   2.966   4.774
50399SOL    HW253095  10.645   2.909   4.901
50400SOL     OW53096  12.171  10.168  13.372
50400SOL    HW153097  12.176  10.169  13.276
50400SOL    HW253098  12.253  10.208  13.400
50401SOL     OW53099   0.179   6.861   5.493
50401SOL    HW153100   0.273   6.869   5.477
50401SOL    HW253101   0.140   6.933   5.443
50402SOL     OW53102   8.721   1.219  12.041
50402SOL    HW153103   8.701   1.165  12.117
50402SOL    HW253104   8.637   1.259  12.018
50403SOL     OW53105   6.572   5.100   3.705
50403SOL    HW153106   6.582   5.008   3.678
50403SOL    HW253107   6.498   5.099   3.766
50404SOL     OW53108   0.624   3.561   2.231
50404SOL    HW153109   0.669   3.488   2.273
50404SOL    HW253110   0.694   3.617   2.198
50405SOL     OW53111   7.185   2.774   3.142
50405SOL    HW153112   7.267   2.821   3.132
50405SOL    HW253113   7.124   2.839   3.177
50406SOL     OW53114   3.120   0.948   2.590
50406SOL    HW153115   3.094   0.881   2.654
50406SOL    HW253116   3.215   0.950   2.594
50407SOL     OW53117  10.414  10.651  14.152
50407SOL    HW153118  10.476  10.585  14.121
50407SOL    HW253119  10.447  10.676  14.239
50408SOL     OW53120   7.411  11.080   6.249
50408SOL    HW153121   7.344  11.135   6.207
50408SOL    HW253122   7.442  11.132   6.323
50409SOL     OW53123  11.555   0.514   6.703
50409SOL    HW153124  11.481   0.526   6.762
50409SOL    HW253125  11.566   0.419   6.697
50410SOL     OW53126   2.109   4.722   3.220
50410SOL    HW153127   2.186   4.690   3.173
50410SOL    HW253128   2.034   4.687   3.172
50411SOL     OW53129   7.498  14.261   4.943
50411SOL    HW153130   7.570  14.235   5.001
50411SOL    HW253131   7.446  14.322   4.994
50412SOL     OW53132   2.161   5.801  12.144
50412SOL    HW153133   2.178   5.886  12.184
50412SOL    HW253134   2.238   5.784  12.090
50413SOL     OW53135   7.507  14.596   9.156
50413SOL    HW153136   7.556  14.621   9.078
50413SOL    HW253137   7.415  14.608   9.131
50414SOL     OW53138   6.474   8.015  11.610
50414SOL    HW153139   6.463   7.955  11.536
50414SOL    HW253140   6.393   8.066  11.612
50415SOL     OW53141  13.729   5.048   0.595
50415SOL    HW153142  13.648   5.095   0.576
50415SOL    HW253143  13.719   5.018   0.686
50416SOL     OW53144  13.931   4.914   3.402
50416SOL    HW153145  13.945   5.009   3.403
50416SOL    HW253146  13.976   4.884   3.323
50417SOL     OW53147   3.557   8.152  10.161
50417SOL    HW153148   3.584   8.138  10.070
50417SOL    HW253149   3.599   8.234  10.186
50418SOL     OW53150  13.464   9.399   4.830
50418SOL    HW153151  13.530   9.468   4.834
50418SOL    HW253152  13.405   9.418   4.902
50419SOL     OW53153  10.793   1.245   1.224
50419SOL    HW153154  10.790   1.340   1.209
50419SOL    HW253155  10.868   1.215   1.172
50420SOL     OW53156   6.054   6.177   8.467
50420SOL    HW153157   5.974   6.133   8.440
50420SOL    HW253158   6.112   6.105   8.494
50421SOL     OW53159   1.977   1.908  12.981
50421SOL    HW153160   1.929   1.988  13.002
50421SOL    HW253161   2.036   1.933  12.910
50422SOL     OW53162   7.310   6.959   2.427
50422SOL    HW153163   7.381   6.939   2.488
50422SOL    HW253164   7.326   7.049   2.400
50423SOL     OW53165   4.709   8.122   0.403
50423SOL    HW153166   4.674   8.163   0.324
50423SOL    HW253167   4.734   8.196   0.459
50424SOL     OW53168   1.791  12.657   8.413
50424SOL    HW153169   1.788  12.574   8.460
50424SOL    HW253170   1.783  12.633   8.321
50425SOL     OW53171   9.112  13.190  11.547
50425SOL    HW153172   9.175  13.120  11.564
50425SOL    HW253173   9.027  13.147  11.549
50426SOL     OW53174   2.522  10.188  10.370
50426SOL    HW153175   2.542  10.094  10.367
50426SOL    HW253176   2.427  10.192  10.381
50427SOL     OW53177   8.912  11.316   2.497
50427SOL    HW153178   8.869  11.241   2.457
50427SOL    HW253179   8.957  11.280   2.573
50428SOL     OW53180   9.797   3.295  13.253
50428SOL    HW153181   9.754   3.374  13.287
50428SOL    HW253182   9.865   3.329  13.195
50429SOL     OW53183   4.487   2.017  11.160
50429SOL    HW153184   4.558   1.967  11.201
50429SOL    HW253185   4.442   1.954  11.104
50430SOL     OW53186   1.954   0.952   2.029
50430SOL    HW153187   1.966   1.046   2.039
50430SOL    HW253188   1.859   0.941   2.018
50431SOL     OW53189   0.217   3.328  12.741
50431SOL    HW153190   0.177   3.323  12.655
50431SOL    HW253191   0.144   3.349  12.800
50432SOL     OW53192   5.180   4.493   7.534
50432SOL    HW153193   5.138   4.549   7.599
50432SOL    HW253194   5.259   4.540   7.509
50433SOL     OW53195   7.401  13.105   1.747
50433SOL    HW153196   7.339  13.075   1.814
50433SOL    HW253197   7.349  13.109   1.666
50434SOL     OW53198   2.527   0.689   1.462
50434SOL    HW153199   2.502   0.746   1.389
50434SOL    HW253200   2.622   0.679   1.453
50435SOL     OW53201  12.936   0.148   9.039
50435SOL    HW153202  12.868   0.081   9.035
50435SOL    HW253203  12.955   0.169   8.948
50436SOL     OW53204   5.310  12.236  11.508
50436SOL    HW153205   5.353  12.215  11.591
50436SOL    HW253206   5.377  12.282  11.457
50437SOL     OW53207   3.240   7.074   3.081
50437SOL    HW153208   3.199   7.159   3.100
50437SOL    HW253209   3.167   7.012   3.080
50438SOL     OW53210   0.627  10.424  12.012
50438SOL    HW153211   0.706  10.449  12.059
50438SOL    HW253212   0.652  10.346  11.962
50439SOL     OW53213   8.345   9.454   9.199
50439SOL    HW153214   8.302   9.395   9.137
50439SOL    HW253215   8.325   9.541   9.166
50440SOL     OW53216   3.201   5.949   7.297
50440SOL    HW153217   3.179   5.857   7.312
50440SOL    HW253218   3.123   5.985   7.254
50441SOL     OW53219   4.290   8.810  11.039
50441SOL    HW153220   4.216   8.764  11.078
50441SOL    HW253221   4.353   8.820  11.110
50442SOL     OW53222   7.734   3.351   5.378
50442SOL    HW153223   7.640   3.340   5.363
50442SOL    HW253224   7.743   3.441   5.410
50443SOL     OW53225   2.078   1.924   5.108
50443SOL    HW153226   2.031   1.949   5.188
50443SOL    HW253227   2.170   1.924   5.133
50444SOL     OW53228  11.511  14.767   1.988
50444SOL    HW153229  11.419  14.739   1.990
50444SOL    HW253230  11.519  14.818   1.907
50445SOL     OW53231   4.708   6.144   2.107
50445SOL    HW153232   4.724   6.050   2.104
50445SOL    HW253233   4.781   6.179   2.158
50446SOL     OW53234  12.803   1.926  12.386
50446SOL    HW153235  12.722   1.874  12.386
50446SOL    HW253236  12.870   1.866  12.354
50447SOL     OW53237   6.760   2.959   2.248
50447SOL    HW153238   6.702   2.967   2.324
50447SOL    HW253239   6.715   2.898   2.189
50448SOL     OW53240  13.332   1.743   1.048
50448SOL    HW153241  13.404   1.735   1.111
50448SOL    HW253242  13.256   1.705   1.092
50449SOL     OW53243  10.735   4.104   7.157
50449SOL    HW153244  10.655   4.156   7.164
50449SOL    HW253245  10.800   4.153   7.207
50450SOL     OW53246   4.440   8.515   0.384
50450SOL    HW153247   4.493   8.584   0.345
50450SOL    HW253248   4.373   8.495   0.318
50451SOL     OW53249  13.435   6.966   4.793
50451SOL    HW153250  13.519   6.920   4.793
50451SOL    HW253251  13.454   7.052   4.830
50452SOL     OW53252  13.573   8.678   4.126
50452SOL    HW153253  13.594   8.641   4.212
50452SOL    HW253254  13.562   8.601   4.069
50453SOL     OW53255   8.181   2.114   4.677
50453SOL    HW153256   8.107   2.054   4.665
50453SOL    HW253257   8.179   2.137   4.770
50454SOL     OW53258   2.633  10.241   8.213
50454SOL    HW153259   2.597  10.153   8.208
50454SOL    HW253260   2.567  10.297   8.172
50455SOL     OW53261   4.490   5.069   4.022
50455SOL    HW153262   4.414   5.102   4.070
50455SOL    HW253263   4.560   5.066   4.088
50456SOL     OW53264  12.064  14.091   4.469
50456SOL    HW153265  12.038  14.093   4.377
50456SOL    HW253266  11.982  14.076   4.517
50457SOL     OW53267   8.763   5.877  10.266
50457SOL    HW153268   8.830   5.820  10.305
50457SOL    HW253269   8.720   5.917  10.342
50458SOL     OW53270   8.169  11.410   3.257
50458SOL    HW153271   8.264  11.418   3.265
50458SOL    HW253272   8.146  11.471   3.187
50459SOL     OW53273   0.046  12.076   3.700
50459SOL    HW153274   0.020  11.995   3.656
50459SOL    HW253275   0.035  12.144   3.633
50460SOL     OW53276   9.417  10.428   4.696
50460SOL    HW153277   9.430  10.366   4.624
50460SOL    HW253278   9.355  10.383   4.754
50461SOL     OW53279   8.931   1.316   0.212
50461SOL    HW153280   8.951   1.332   0.304
50461SOL    HW253281   9.009   1.273   0.177
50462SOL     OW53282  13.166   4.644   7.837
50462SOL    HW153283  13.154   4.642   7.932
50462SOL    HW253284  13.211   4.562   7.816
50463SOL     OW53285   8.794   6.338  11.694
50463SOL    HW153286   8.858   6.367  11.629
50463SOL    HW253287   8.749   6.264  11.653
50464SOL     OW53288  13.605  13.614  13.055
50464SOL    HW153289  13.691  13.579  13.032
50464SOL    HW253290  13.555  13.538  13.084
50465SOL     OW53291  11.367   5.601   2.151
50465SOL    HW153292  11.308   5.676   2.158
50465SOL    HW253293  11.450   5.633   2.186
50466SOL     OW53294   3.953   4.711   2.320
50466SOL    HW153295   3.895   4.635   2.317
50466SOL    HW253296   4.034   4.681   2.279
50467SOL     OW53297   7.486   3.246  13.931
50467SOL    HW153298   7.450   3.303  13.999
50467SOL    HW253299   7.438   3.164  13.940
50468SOL     OW53300   8.051   2.130   2.604
50468SOL    HW153301   8.090   2.204   2.652
50468SOL    HW253302   8.121   2.065   2.601
50469SOL     OW53303   4.599  11.883   3.990
50469SOL    HW153304   4.596  11.791   4.017
50469SOL    HW253305   4.631  11.930   4.067
50470SOL     OW53306   3.622   1.151   0.678
50470SOL    HW153307   3.600   1.241   0.702
50470SOL    HW253308   3.681   1.160   0.603
50471SOL     OW53309  14.869   9.487   3.108
50471SOL    HW153310  14.836   9.514   3.193
50471SOL    HW253311  14.865   9.566   3.054
50472SOL     OW53312   6.623  13.894   8.951
50472SOL    HW153313   6.558  13.824   8.955
50472SOL    HW253314   6.685  13.865   8.884
50473SOL     OW53315   5.849   7.549   1.221
50473SOL    HW153316   5.944   7.548   1.236
50473SOL    HW253317   5.816   7.476   1.273
50474SOL     OW53318   4.778   6.844  10.395
50474SOL    HW153319   4.684   6.828  10.388
50474SOL    HW253320   4.790   6.881  10.483
50475SOL     OW53321  10.614   3.103  12.143
50475SOL    HW153322  10.570   3.054  12.074
50475SOL    HW253323  10.662   3.036  12.193
50476SOL     OW53324   7.786  10.718   8.494
50476SOL    HW153325   7.736  10.720   8.412
50476SOL    HW253326   7.847  10.646   8.483
50477SOL     OW53327   9.472   8.501   8.239
50477SOL    HW153328   9.479   8.538   8.151
50477SOL    HW253329   9.383   8.522   8.267
50478SOL     OW53330   2.745  13.480   6.585
50478SOL    HW153331   2.802  13.541   6.631
50478SOL    HW253332   2.697  13.534   6.523
50479SOL     OW53333  11.187   8.102  13.936
50479SOL    HW153334  11.216   8.023  13.981
50479SOL    HW253335  11.092   8.100  13.942
50480SOL     OW53336  14.315   5.511  11.990
50480SOL    HW153337  14.252   5.442  11.968
50480SOL    HW253338  14.316   5.514  12.085
50481SOL     OW53339   3.548   3.770   1.133
50481SOL    HW153340   3.475   3.765   1.072
50481SOL    HW253341   3.619   3.809   1.081
50482SOL     OW53342   3.406   3.546   3.672
50482SOL    HW153343   3.374   3.636   3.674
50482SOL    HW253344   3.427   3.525   3.763
50483SOL     OW53345   2.955  12.260   2.995
50483SOL    HW153346   2.953  12.275   2.900
50483SOL    HW253347   3.009  12.181   3.005
50484SOL     OW53348   1.740   0.168   9.789
50484SOL    HW153349   1.696   0.141   9.870
50484SOL    HW253350   1.828   0.130   9.797
50485SOL     OW53351   1.521  12.398   9.976
50485SOL    HW153352   1.499  12.454   9.901
50485SOL    HW253353   1.455  12.328   9.973
50486SOL     OW53354  10.726  13.466   3.770
50486SOL    HW153355  10.656  13.444   3.708
50486SOL    HW253356  10.680  13.496   3.848
50487SOL     OW53357  11.981  10.086  10.657
50487SOL    HW153358  11.974  10.095  10.562
50487SOL    HW253359  12.040  10.155  10.684
50488SOL     OW53360   6.867  11.126   0.083
50488SOL    HW153361   6.797  11.062   0.073
50488SOL    HW253362   6.946  11.079   0.054
50489SOL     OW53363  10.524  11.700   0.596
50489SOL    HW153364  10.589  11.769   0.607
50489SOL    HW253365  10.569  11.631   0.547
50490SOL     OW53366   9.205   6.968   9.464
50490SOL    HW153367   9.241   6.880   9.455
50490SOL    HW253368   9.266   7.023   9.414
50491SOL     OW53369   9.318   2.877   3.520
50491SOL    HW153370   9.362   2.952   3.481
50491SOL    HW253371   9.294   2.906   3.608
50492SOL     OW53372   2.294  12.035   3.046
50492SOL    HW153373   2.283  11.993   2.961
50492SOL    HW253374   2.299  11.963   3.108
50493SOL     OW53375   8.242   8.562   7.137
50493SOL    HW153376   8.249   8.530   7.047
50493SOL    HW253377   8.311   8.515   7.184
50494SOL     OW53378  13.859   9.684  11.615
50494SOL    HW153379  13.856   9.592  11.640
50494SOL    HW253380  13.811   9.729  11.685
50495SOL     OW53381   3.830   7.169   9.726
50495SOL    HW153382   3.896   7.230   9.694
50495SOL    HW253383   3.777   7.220   9.786
50496SOL     OW53384  12.078   5.705   0.981
50496SOL    HW153385  12.036   5.624   1.009
50496SOL    HW253386  12.059   5.768   1.051
50497SOL     OW53387   9.417  14.842  11.830
50497SOL    HW153388   9.403   0.063  11.802
50497SOL    HW253389   9.511  14.828  11.819
50498SOL     OW53390  12.139   2.324   4.061
50498SOL    HW153391  12.081   2.332   3.985
50498SOL    HW253392  12.209   2.266   4.031
50499SOL     OW53393   0.609  10.604   7.691
50499SOL    HW153394   0.612  10.630   7.599
50499SOL    HW253395   0.561  10.521   7.690
50500SOL     OW53396  11.325   1.392  11.393
50500SOL    HW153397  11.338   1.308  11.438
50500SOL    HW253398  11.246   1.379  11.339
50501SOL     OW53399   3.198   8.261  12.844
50501SOL    HW153400   3.176   8.182  12.894
50501SOL    HW253401   3.290   8.249  12.819
50502SOL     OW53402  12.375  11.163   8.680
50502SOL    HW153403  12.437  11.091   8.692
50502SOL    HW253404  12.293  11.120   8.655
50503SOL     OW53405   0.191   1.792  10.900
50503SOL    HW153406   0.161   1.702  10.888
50503SOL    HW253407   0.176   1.834  10.815
50504SOL     OW53408   8.734  11.486   2.375
50504SOL    HW153409   8.771  11.572   2.395
50504SOL    HW253410   8.781  11.426   2.433
50505SOL     OW53411   5.267   0.283  13.390
50505SOL    HW153412   5.260   0.220  13.318
50505SOL    HW253413   5.177   0.308  13.409
50506SOL     OW53414  14.546  11.154  10.805
50506SOL    HW153415  14.493  11.173  10.883
50506SOL    HW253416  14.515  11.217  10.740
50507SOL     OW53417   3.565  11.881   1.459
50507SOL    HW153418   3.510  11.839   1.525
50507SOL    HW253419   3.568  11.818   1.387
50508SOL     OW53420   3.492  13.191   1.331
50508SOL    HW153421   3.449  13.275   1.347
50508SOL    HW253422   3.423  13.126   1.344
50509SOL     OW53423  12.820   3.148   7.281
50509SOL    HW153424  12.761   3.107   7.345
50509SOL    HW253425  12.897   3.173   7.332
50510SOL     OW53426   5.007   2.418   1.720
50510SOL    HW153427   5.094   2.407   1.760
50510SOL    HW253428   5.006   2.509   1.691
50511SOL     OW53429   9.393   4.814   2.328
50511SOL    HW153430   9.397   4.724   2.358
50511SOL    HW253431   9.367   4.808   2.236
50512SOL     OW53432   5.019   1.066   6.724
50512SOL    HW153433   4.963   1.001   6.681
50512SOL    HW253434   5.078   1.014   6.778
50513SOL     OW53435   9.896   8.547  12.853
50513SOL    HW153436   9.830   8.489  12.892
50513SOL    HW253437   9.918   8.506  12.770
50514SOL     OW53438   5.125  13.666   4.479
50514SOL    HW153439   5.101  13.734   4.416
50514SOL    HW253440   5.052  13.664   4.541
50515SOL     OW53441   0.884   8.749  11.601
50515SOL    HW153442   0.943   8.792  11.663
50515SOL    HW253443   0.938   8.735  11.523
50516SOL     OW53444   0.854   7.072   2.359
50516SOL    HW153445   0.872   7.010   2.289
50516SOL    HW253446   0.769   7.045   2.395
50517SOL     OW53447   9.522   5.988   7.880
50517SOL    HW153448   9.516   6.027   7.792
50517SOL    HW253449   9.432   5.962   7.901
50518SOL     OW53450   1.152   1.180   3.256
50518SOL    HW153451   1.069   1.165   3.210
50518SOL    HW253452   1.203   1.235   3.198
50519SOL     OW53453   8.414   8.661   4.790
50519SOL    HW153454   8.374   8.629   4.871
50519SOL    HW253455   8.356   8.630   4.720
50520SOL     OW53456   9.442  13.051  13.098
50520SOL    HW153457   9.443  13.046  13.194
50520SOL    HW253458   9.357  13.090  13.077
50521SOL     OW53459   1.474  14.283   8.245
50521SOL    HW153460   1.439  14.309   8.159
50521SOL    HW253461   1.495  14.366   8.288
50522SOL     OW53462  14.209   6.973  13.037
50522SOL    HW153463  14.234   7.047  12.982
50522SOL    HW253464  14.214   6.897  12.979
50523SOL     OW53465   4.237   1.243   2.689
50523SOL    HW153466   4.248   1.303   2.615
50523SOL    HW253467   4.326   1.231   2.722
50524SOL     OW53468  12.170   1.791   1.708
50524SOL    HW153469  12.261   1.819   1.715
50524SOL    HW253470  12.119   1.872   1.706
50525SOL     OW53471   5.660  12.261   1.779
50525SOL    HW153472   5.635  12.336   1.726
50525SOL    HW253473   5.583  12.242   1.832
50526SOL     OW53474  11.499   1.716   7.484
50526SOL    HW153475  11.577   1.699   7.537
50526SOL    HW253476  11.429   1.669   7.529
50527SOL     OW53477   2.543  13.027  10.352
50527SOL    HW153478   2.468  13.032  10.412
50527SOL    HW253479   2.552  13.116  10.317
50528SOL     OW53480   1.784   8.696  10.766
50528SOL    HW153481   1.767   8.709  10.673
50528SOL    HW253482   1.865   8.744  10.783
50529SOL     OW53483   2.108   8.611   3.987
50529SOL    HW153484   2.144   8.674   3.925
50529SOL    HW253485   2.182   8.557   4.013
50530SOL     OW53486   4.789  14.286   9.799
50530SOL    HW153487   4.852  14.357   9.787
50530SOL    HW253488   4.825  14.234   9.871
50531SOL     OW53489   4.284   6.753  12.937
50531SOL    HW153490   4.300   6.794  12.852
50531SOL    HW253491   4.320   6.815  13.001
50532SOL     OW53492   1.461   3.233  13.491
50532SOL    HW153493   1.553   3.233  13.518
50532SOL    HW253494   1.425   3.153  13.530
50533SOL     OW53495   0.264   7.740  10.434
50533SOL    HW153496   0.326   7.680  10.392
50533SOL    HW253497   0.305   7.826  10.429
50534SOL     OW53498   1.962  14.270   5.527
50534SOL    HW153499   1.903  14.253   5.453
50534SOL    HW253500   2.021  14.339   5.495
50535SOL     OW53501   7.738   2.569   3.998
50535SOL    HW153502   7.809   2.517   3.960
50535SOL    HW253503   7.771   2.659   3.997
50536SOL     OW53504   6.884   0.902  13.606
50536SOL    HW153505   6.892   0.955  13.685
50536SOL    HW253506   6.876   0.966  13.535
50537SOL     OW53507   5.240  11.378  11.972
50537SOL    HW153508   5.294  11.345  12.044
50537SOL    HW253509   5.167  11.422  12.014
50538SOL     OW53510  13.934   9.052  11.953
50538SOL    HW153511  13.941   8.962  11.920
50538SOL    HW253512  13.899   9.102  11.880
50539SOL     OW53513   7.466   1.210   4.183
50539SOL    HW153514   7.526   1.144   4.218
50539SOL    HW253515   7.415   1.163   4.117
50540SOL     OW53516  14.694  13.768   2.661
50540SOL    HW153517  14.674  13.739   2.750
50540SOL    HW253518  14.608  13.786   2.622
50541SOL     OW53519   1.724   3.455   9.661
50541SOL    HW153520   1.686   3.395   9.597
50541SOL    HW253521   1.747   3.532   9.611
50542SOL     OW53522   0.039   7.770  13.807
50542SOL    HW153523  14.867   7.742  13.888
50542SOL    HW253524   0.111   7.827  13.835
50543SOL     OW53525   8.461   8.981   6.875
50543SOL    HW153526   8.535   8.928   6.904
50543SOL    HW253527   8.387   8.948   6.927
50544SOL     OW53528   2.139  13.033  12.772
50544SOL    HW153529   2.173  13.122  12.773
50544SOL    HW253530   2.215  12.978  12.753
50545SOL     OW53531  10.552   6.871   8.968
50545SOL    HW153532  10.474   6.907   8.925
50545SOL    HW253533  10.516   6.807   9.030
50546SOL     OW53534   4.188   3.438   8.048
50546SOL    HW153535   4.260   3.389   8.089
50546SOL    HW253536   4.109   3.391   8.075
50547SOL     OW53537   1.622   3.556  14.035
50547SOL    HW153538   1.709   3.533  14.001
50547SOL    HW253539   1.621   3.651  14.036
50548SOL     OW53540   4.654   9.932  13.430
50548SOL    HW153541   4.601   9.910  13.507
50548SOL    HW253542   4.615  10.014  13.397
50549SOL     OW53543   5.618   9.304   1.180
50549SOL    HW153544   5.576   9.223   1.151
50549SOL    HW253545   5.688   9.319   1.117
50550SOL     OW53546  13.809  13.958   1.172
50550SOL    HW153547  13.849  13.995   1.251
50550SOL    HW253548  13.757  14.030   1.135
50551SOL     OW53549   0.024   9.708  11.930
50551SOL    HW153550   0.057   9.654  12.002
50551SOL    HW253551  14.836   9.650  11.880
50552SOL     OW53552   3.587   0.760  10.501
50552SOL    HW153553   3.625   0.778  10.415
50552SOL    HW253554   3.561   0.847  10.533
50553SOL     OW53555  11.872   3.001   5.585
50553SOL    HW153556  11.839   2.913   5.605
50553SOL    HW253557  11.797   3.047   5.547
50554SOL     OW53558  11.025   3.813   7.349
50554SOL    HW153559  10.961   3.776   7.288
50554SOL    HW253560  11.066   3.736   7.389
50555SOL     OW53561  12.640   6.717   3.879
50555SOL    HW153562  12.579   6.731   3.807
50555SOL    HW253563  12.676   6.629   3.863
50556SOL     OW53564   5.765  12.369   7.270
50556SOL    HW153565   5.846  12.412   7.239
50556SOL    HW253566   5.794  12.308   7.337
50557SOL     OW53567   4.188   3.214   8.405
50557SOL    HW153568   4.264   3.248   8.357
50557SOL    HW253569   4.213   3.221   8.497
50558SOL     OW53570   7.164   5.348   8.665
50558SOL    HW153571   7.258   5.354   8.646
50558SOL    HW253572   7.147   5.254   8.670
50559SOL     OW53573  12.296  14.541   2.967
50559SOL    HW153574  12.236  14.609   2.995
50559SOL    HW253575  12.349  14.582   2.899
50560SOL     OW53576   9.803  11.480   3.293
50560SOL    HW153577   9.781  11.408   3.233
50560SOL    HW253578   9.814  11.437   3.378
50561SOL     OW53579  12.912   1.491   9.679
50561SOL    HW153580  12.852   1.421   9.653
50561SOL    HW253581  12.999   1.458   9.655
50562SOL     OW53582  11.662   2.258   7.646
50562SOL    HW153583  11.690   2.220   7.563
50562SOL    HW253584  11.700   2.346   7.646
50563SOL     OW53585   5.153   5.069   7.166
50563SOL    HW153586   5.177   4.976   7.170
50563SOL    HW253587   5.058   5.070   7.177
50564SOL     OW53588   0.881   1.841   8.213
50564SOL    HW153589   0.836   1.787   8.148
50564SOL    HW253590   0.882   1.788   8.292
50565SOL     OW53591   6.083   9.209   3.432
50565SOL    HW153592   6.110   9.244   3.347
50565SOL    HW253593   6.158   9.158   3.462
50566SOL     OW53594   5.175  13.541   2.643
50566SOL    HW153595   5.152  13.506   2.729
50566SOL    HW253596   5.268  13.520   2.633
50567SOL     OW53597  14.233   1.917  11.636
50567SOL    HW153598  14.146   1.878  11.645
50567SOL    HW253599  14.248   1.921  11.542
50568SOL     OW53600  14.041   1.386   9.412
50568SOL    HW153601  14.024   1.427   9.497
50568SOL    HW253602  14.094   1.451   9.364
50569SOL     OW53603   2.407   7.754   6.359
50569SOL    HW153604   2.373   7.731   6.445
50569SOL    HW253605   2.500   7.734   6.363
50570SOL     OW53606   0.550  10.271   0.714
50570SOL    HW153607   0.562  10.302   0.624
50570SOL    HW253608   0.613  10.200   0.723
50571SOL     OW53609   2.117  13.154   4.401
50571SOL    HW153610   2.046  13.118   4.454
50571SOL    HW253611   2.124  13.245   4.428
50572SOL     OW53612  11.628  10.660   2.256
50572SOL    HW153613  11.652  10.740   2.209
50572SOL    HW253614  11.711  10.626   2.289
50573SOL     OW53615   2.872  12.403  13.301
50573SOL    HW153616   2.839  12.324  13.259
50573SOL    HW253617   2.967  12.398  13.291
50574SOL     OW53618   6.208  14.352   4.704
50574SOL    HW153619   6.261  14.278   4.734
50574SOL    HW253620   6.206  14.344   4.609
50575SOL     OW53621   1.246   2.523   5.423
50575SOL    HW153622   1.213   2.435   5.403
50575SOL    HW253623   1.327   2.530   5.371
50576SOL     OW53624   9.924   9.021   8.034
50576SOL    HW153625   9.941   9.056   8.121
50576SOL    HW253626  10.007   8.981   8.007
50577SOL     OW53627  12.706   9.292   8.124
50577SOL    HW153628  12.653   9.335   8.056
50577SOL    HW253629  12.795   9.293   8.090
50578SOL     OW53630   8.674   6.977   8.958
50578SOL    HW153631   8.694   6.916   8.886
50578SOL    HW253632   8.691   6.927   9.037
50579SOL     OW53633   5.053   1.941   3.316
50579SOL    HW153634   4.997   2.019   3.323
50579SOL    HW253635   4.994   1.873   3.283
50580SOL     OW53636   6.933  13.007  13.784
50580SOL    HW153637   6.938  13.032  13.692
50580SOL    HW253638   6.910  12.914  13.783
50581SOL     OW53639   3.675  14.741   9.723
50581SOL    HW153640   3.699  14.674   9.660
50581SOL    HW253641   3.611  14.796   9.676
50582SOL     OW53642   4.626  11.363  11.099
50582SOL    HW153643   4.627  11.329  11.010
50582SOL    HW253644   4.657  11.453  11.091
50583SOL     OW53645  13.465   9.021   8.270
50583SOL    HW153646  13.500   9.092   8.324
50583SOL    HW253647  13.540   8.964   8.253
50584SOL     OW53648   6.535   9.748  14.577
50584SOL    HW153649   6.608   9.795  14.538
50584SOL    HW253650   6.576   9.687  14.639
50585SOL     OW53651   2.380   4.947   1.065
50585SOL    HW153652   2.463   4.901   1.052
50585SOL    HW253653   2.344   4.958   0.976
50586SOL     OW53654   7.699  13.302  11.671
50586SOL    HW153655   7.657  13.235  11.725
50586SOL    HW253656   7.651  13.382  11.692
50587SOL     OW53657   4.834   9.811   6.832
50587SOL    HW153658   4.850   9.900   6.863
50587SOL    HW253659   4.816   9.761   6.911
50588SOL     OW53660  11.967   3.442   8.132
50588SOL    HW153661  12.034   3.493   8.087
50588SOL    HW253662  11.885   3.473   8.095
50589SOL     OW53663  12.525  10.937  13.827
50589SOL    HW153664  12.573  11.019  13.813
50589SOL    HW253665  12.440  10.965  13.863
50590SOL     OW53666   1.165   0.348   5.218
50590SOL    HW153667   1.197   0.430   5.180
50590SOL    HW253668   1.237   0.317   5.272
50591SOL     OW53669   2.035   3.190   4.406
50591SOL    HW153670   2.068   3.120   4.461
50591SOL    HW253671   2.106   3.254   4.403
50592SOL     OW53672   7.750   4.803  10.178
50592SOL    HW153673   7.692   4.867  10.221
50592SOL    HW253674   7.695   4.762  10.111
50593SOL     OW53675  12.786  11.155  13.382
50593SOL    HW153676  12.696  11.124  13.390
50593SOL    HW253677  12.806  11.149  13.289
50594SOL     OW53678   4.025   9.299   0.532
50594SOL    HW153679   4.052   9.271   0.619
50594SOL    HW253680   4.037   9.394   0.534
50595SOL     OW53681   6.371   8.524   5.721
50595SOL    HW153682   6.322   8.567   5.652
50595SOL    HW253683   6.415   8.450   5.678
50596SOL     OW53684   1.407  14.839   1.843
50596SOL    HW153685   1.362  14.838   1.928
50596SOL    HW253686   1.499  14.826   1.864
50597SOL     OW53687   0.775   6.057  10.080
50597SOL    HW153688   0.866   6.083  10.093
50597SOL    HW253689   0.779   5.983  10.020
50598SOL     OW53690   4.425   1.316   8.300
50598SOL    HW153691   4.493   1.248   8.301
50598SOL    HW253692   4.345   1.271   8.327
50599SOL     OW53693   1.464   9.120   3.995
50599SOL    HW153694   1.521   9.165   3.933
50599SOL    HW253695   1.500   9.031   4.001
50600SOL     OW53696   9.550   8.752  14.788
50600SOL    HW153697   9.458   8.728  14.779
50600SOL    HW253698   9.551   8.847  14.773
50601SOL     OW53699   0.156  11.987  10.799
50601SOL    HW153700   0.216  11.951  10.864
50601SOL    HW253701   0.203  11.980  10.716
50602SOL     OW53702   1.633   7.351  12.933
50602SOL    HW153703   1.609   7.443  12.923
50602SOL    HW253704   1.551   7.304  12.917
50603SOL     OW53705  10.843   2.798   7.876
50603SOL    HW153706  10.777   2.849   7.924
50603SOL    HW253707  10.853   2.844   7.793
50604SOL     OW53708   9.654   2.474  14.753
50604SOL    HW153709   9.703   2.546  14.714
50604SOL    HW253710   9.711   2.397  14.743
50605SOL     OW53711  11.378  11.586  12.842
50605SOL    HW153712  11.437  11.591  12.768
50605SOL    HW253713  11.307  11.528  12.813
50606SOL     OW53714   7.240  11.058   2.910
50606SOL    HW153715   7.224  11.038   2.818
50606SOL    HW253716   7.291  11.138   2.909
50607SOL     OW53717  11.135   3.840   4.519
50607SOL    HW153718  11.104   3.911   4.575
50607SOL    HW253719  11.076   3.767   4.538
50608SOL     OW53720  14.832  14.204   4.189
50608SOL    HW153721  14.849  14.158   4.107
50608SOL    HW253722   0.049  14.217   4.228
50609SOL     OW53723   2.401   9.461   1.845
50609SOL    HW153724   2.456   9.394   1.885
50609SOL    HW253725   2.356   9.415   1.774
50610SOL     OW53726   1.100  13.139   5.228
50610SOL    HW153727   1.175  13.192   5.201
50610SOL    HW253728   1.112  13.125   5.322
50611SOL     OW53729  12.606   4.739  14.019
50611SOL    HW153730  12.577   4.828  14.000
50611SOL    HW253731  12.536   4.701  14.072
50612SOL     OW53732   0.826  12.736   1.889
50612SOL    HW153733   0.920  12.719   1.901
50612SOL    HW253734   0.783  12.686   1.958
50613SOL     OW53735   0.515  12.769  12.839
50613SOL    HW153736   0.535  12.813  12.922
50613SOL    HW253737   0.600  12.762  12.795
50614SOL     OW53738   7.580   6.746  12.224
50614SOL    HW153739   7.581   6.839  12.204
50614SOL    HW253740   7.635   6.738  12.302
50615SOL     OW53741  10.429   8.222   2.967
50615SOL    HW153742  10.396   8.267   2.889
50615SOL    HW253743  10.448   8.133   2.937
50616SOL     OW53744   0.693   2.889   9.941
50616SOL    HW153745   0.630   2.960   9.927
50616SOL    HW253746   0.645   2.809   9.916
50617SOL     OW53747  13.017   4.242   6.986
50617SOL    HW153748  13.088   4.306   6.983
50617SOL    HW253749  13.057   4.160   6.958
50618SOL     OW53750   4.401  11.365  11.922
50618SOL    HW153751   4.413  11.446  11.872
50618SOL    HW253752   4.380  11.299  11.855
50619SOL     OW53753   1.289   4.646   7.171
50619SOL    HW153754   1.253   4.612   7.090
50619SOL    HW253755   1.348   4.576   7.201
50620SOL     OW53756   8.479  11.381   3.629
50620SOL    HW153757   8.571  11.404   3.616
50620SOL    HW253758   8.430  11.450   3.585
50621SOL     OW53759  12.161   1.125  10.534
50621SOL    HW153760  12.243   1.120  10.484
50621SOL    HW253761  12.097   1.080  10.479
50622SOL     OW53762   0.414  12.551   2.259
50622SOL    HW153763   0.479  12.611   2.296
50622SOL    HW253764   0.410  12.478   2.321
50623SOL     OW53765  12.178   8.072   6.720
50623SOL    HW153766  12.151   7.986   6.687
50623SOL    HW253767  12.226   8.052   6.801
50624SOL     OW53768  11.845  14.181   1.140
50624SOL    HW153769  11.763  14.176   1.092
50624SOL    HW253770  11.819  14.203   1.229
50625SOL     OW53771   1.569   8.957  11.694
50625SOL    HW153772   1.532   8.919  11.614
50625SOL    HW253773   1.495   8.998  11.738
50626SOL     OW53774   8.762   5.460   3.758
50626SOL    HW153775   8.783   5.520   3.687
50626SOL    HW253776   8.847   5.437   3.796
50627SOL     OW53777  11.914  12.201   0.026
50627SOL    HW153778  11.847  12.269   0.022
50627SOL    HW253779  11.975  12.222  14.825
50628SOL     OW53780  10.160   4.270   8.670
50628SOL    HW153781  10.211   4.289   8.749
50628SOL    HW253782  10.070   4.289   8.694
50629SOL     OW53783   4.044   5.015   4.864
50629SOL    HW153784   4.048   4.945   4.799
50629SOL    HW253785   4.016   4.971   4.945
50630SOL     OW53786  13.392   3.678   3.980
50630SOL    HW153787  13.424   3.653   3.894
50630SOL    HW253788  13.465   3.726   4.020
50631SOL     OW53789   3.420   8.510   7.216
50631SOL    HW153790   3.427   8.594   7.260
50631SOL    HW253791   3.352   8.522   7.150
50632SOL     OW53792   9.958   4.264   9.955
50632SOL    HW153793   9.889   4.245  10.018
50632SOL    HW253794   9.963   4.360   9.953
50633SOL     OW53795   3.608   7.240  12.559
50633SOL    HW153796   3.589   7.334  12.552
50633SOL    HW253797   3.562   7.201  12.485
50634SOL     OW53798   2.825   3.024   3.523
50634SOL    HW153799   2.794   3.043   3.434
50634SOL    HW253800   2.912   2.986   3.510
50635SOL     OW53801  11.385   1.712  10.421
50635SOL    HW153802  11.352   1.726  10.510
50635SOL    HW253803  11.326   1.762  10.365
50636SOL     OW53804   0.215   7.967  13.970
50636SOL    HW153805   0.150   8.036  13.977
50636SOL    HW253806   0.296   8.012  13.945
50637SOL     OW53807   8.235   2.507   4.846
50637SOL    HW153808   8.235   2.488   4.940
50637SOL    HW253809   8.144   2.493   4.819
50638SOL     OW53810  13.886   5.506   0.391
50638SOL    HW153811  13.967   5.557   0.400
50638SOL    HW253812  13.871   5.470   0.478
50639SOL     OW53813  11.760   8.846   1.514
50639SOL    HW153814  11.832   8.806   1.466
50639SOL    HW253815  11.721   8.909   1.453
50640SOL     OW53816   4.140   9.725   2.777
50640SOL    HW153817   4.179   9.719   2.864
50640SOL    HW253818   4.175   9.806   2.740
50641SOL     OW53819  13.895   8.266   1.483
50641SOL    HW153820  13.968   8.279   1.422
50641SOL    HW253821  13.837   8.205   1.439
50642SOL     OW53822   2.823  13.938   5.754
50642SOL    HW153823   2.884  13.912   5.685
50642SOL    HW253824   2.842  13.878   5.826
50643SOL     OW53825   9.235   1.186   5.309
50643SOL    HW153826   9.216   1.236   5.388
50643SOL    HW253827   9.297   1.240   5.260
50644SOL     OW53828   4.148   0.603  12.580
50644SOL    HW153829   4.186   0.645  12.656
50644SOL    HW253830   4.165   0.510  12.592
50645SOL     OW53831  10.396   5.809  11.215
50645SOL    HW153832  10.428   5.895  11.188
50645SOL    HW253833  10.310   5.827  11.253
50646SOL     OW53834   5.054   6.739   3.098
50646SOL    HW153835   5.070   6.655   3.054
50646SOL    HW253836   4.995   6.717   3.170
50647SOL     OW53837   8.748   8.118  12.771
50647SOL    HW153838   8.680   8.171  12.813
50647SOL    HW253839   8.756   8.155  12.683
50648SOL     OW53840   2.809   5.673   6.128
50648SOL    HW153841   2.765   5.608   6.182
50648SOL    HW253842   2.765   5.755   6.150
50649SOL     OW53843   6.051  12.849  12.213
50649SOL    HW153844   5.985  12.894  12.161
50649SOL    HW253845   6.006  12.770  12.245
50650SOL     OW53846   5.113   8.300  11.339
50650SOL    HW153847   5.027   8.338  11.324
50650SOL    HW253848   5.136   8.258  11.256
50651SOL     OW53849   5.826  11.253   1.646
50651SOL    HW153850   5.860  11.244   1.736
50651SOL    HW253851   5.771  11.175   1.634
50652SOL     OW53852   5.460   4.876   9.539
50652SOL    HW153853   5.526   4.824   9.585
50652SOL    HW253854   5.473   4.857   9.446
50653SOL     OW53855  10.346   2.242  12.685
50653SOL    HW153856  10.333   2.197  12.602
50653SOL    HW253857  10.430   2.209  12.717
50654SOL     OW53858   1.361  12.762   6.733
50654SOL    HW153859   1.400  12.793   6.814
50654SOL    HW253860   1.436  12.743   6.676
50655SOL     OW53861   8.699  12.350   9.014
50655SOL    HW153862   8.788  12.316   9.011
50655SOL    HW253863   8.691  12.389   9.101
50656SOL     OW53864  12.261  10.579   8.482
50656SOL    HW153865  12.229  10.596   8.571
50656SOL    HW253866  12.278  10.666   8.446
50657SOL     OW53867   2.703   7.595  11.411
50657SOL    HW153868   2.612   7.624  11.405
50657SOL    HW253869   2.709   7.520  11.351
50658SOL     OW53870  12.598   9.718   4.916
50658SOL    HW153871  12.617   9.684   5.004
50658SOL    HW253872  12.507   9.694   4.900
50659SOL     OW53873   7.254   8.405   8.213
50659SOL    HW153874   7.178   8.441   8.166
50659SOL    HW253875   7.320   8.474   8.205
50660SOL     OW53876  12.973  12.113   3.551
50660SOL    HW153877  12.882  12.098   3.525
50660SOL    HW253878  12.989  12.048   3.620
50661SOL     OW53879  14.039  11.182   0.047
50661SOL    HW153880  13.957  11.183  14.866
50661SOL    HW253881  14.097  11.242   0.001
50662SOL     OW53882   7.367   1.308  11.009
50662SOL    HW153883   7.384   1.394  10.969
50662SOL    HW253884   7.303   1.268  10.951
50663SOL     OW53885  14.741   8.918   7.194
50663SOL    HW153886  14.733   8.864   7.115
50663SOL    HW253887  14.651   8.931   7.223
50664SOL     OW53888   5.538  12.520   8.534
50664SOL    HW153889   5.539  12.426   8.548
50664SOL    HW253890   5.457  12.550   8.574
50665SOL     OW53891   1.091   8.655  10.140
50665SOL    HW153892   1.111   8.747  10.119
50665SOL    HW253893   1.065   8.657  10.232
50666SOL     OW53894  13.740   7.475  13.556
50666SOL    HW153895  13.779   7.505  13.474
50666SOL    HW253896  13.812   7.435  13.603
50667SOL     OW53897   6.145   5.622   2.830
50667SOL    HW153898   6.212   5.631   2.899
50667SOL    HW253899   6.120   5.530   2.832
50668SOL     OW53900   1.324  10.013   9.369
50668SOL    HW153901   1.418  10.028   9.369
50668SOL    HW253902   1.314   9.922   9.340
50669SOL     OW53903   5.386   4.790   8.886
50669SOL    HW153904   5.423   4.704   8.904
50669SOL    HW253905   5.426   4.848   8.951
50670SOL     OW53906   3.101  12.348   3.727
50670SOL    HW153907   3.158  12.319   3.798
50670SOL    HW253908   3.148  12.422   3.687
50671SOL     OW53909   1.695  10.740   0.132
50671SOL    HW153910   1.601  10.728   0.138
50671SOL    HW253911   1.724  10.755   0.222
50672SOL     OW53912  10.619  11.373   8.760
50672SOL    HW153913  10.705  11.398   8.794
50672SOL    HW253914  10.610  11.421   8.677
50673SOL     OW53915   8.627  12.017   1.446
50673SOL    HW153916   8.658  12.104   1.471
50673SOL    HW253917   8.553  12.001   1.505
50674SOL     OW53918   5.658   3.309  14.020
50674SOL    HW153919   5.667   3.401  13.995
50674SOL    HW253920   5.692   3.261  13.944
50675SOL     OW53921   5.843   0.724  14.827
50675SOL    HW153922   5.928   0.729   0.001
50675SOL    HW253923   5.827   0.630  14.817
50676SOL     OW53924  11.247   6.015   8.445
50676SOL    HW153925  11.219   5.937   8.397
50676SOL    HW253926  11.167   6.064   8.459
50677SOL     OW53927   8.768  14.565  11.316
50677SOL    HW153928   8.716  14.622  11.371
50677SOL    HW253929   8.855  14.565  11.355
50678SOL     OW53930   5.583   3.943   2.210
50678SOL    HW153931   5.582   3.943   2.115
50678SOL    HW253932   5.666   3.984   2.234
50679SOL     OW53933  14.030   2.819   2.931
50679SOL    HW153934  14.026   2.841   2.838
50679SOL    HW253935  13.940   2.827   2.962
50680SOL     OW53936   5.995  12.835   7.923
50680SOL    HW153937   6.019  12.919   7.962
50680SOL    HW253938   6.047  12.770   7.972
50681SOL     OW53939  12.621   6.720   3.389
50681SOL    HW153940  12.647   6.811   3.370
50681SOL    HW253941  12.637   6.673   3.307
50682SOL     OW53942   8.633   5.508   5.113
50682SOL    HW153943   8.652   5.491   5.206
50682SOL    HW253944   8.695   5.452   5.066
50683SOL     OW53945   3.040   8.864   1.289
50683SOL    HW153946   3.042   8.956   1.261
50683SOL    HW253947   2.947   8.844   1.299
50684SOL     OW53948   6.902   9.302   3.312
50684SOL    HW153949   6.916   9.208   3.319
50684SOL    HW253950   6.886   9.331   3.402
50685SOL     OW53951  11.552   2.227  12.524
50685SOL    HW153952  11.627   2.273  12.488
50685SOL    HW253953  11.588   2.174  12.595
50686SOL     OW53954  11.330   8.401   9.146
50686SOL    HW153955  11.241   8.431   9.129
50686SOL    HW253956  11.370   8.472   9.197
50687SOL     OW53957   8.686   7.388  14.821
50687SOL    HW153958   8.633   7.309  14.834
50687SOL    HW253959   8.776   7.355  14.813
50688SOL     OW53960  13.091   3.181  10.562
50688SOL    HW153961  13.036   3.220  10.494
50688SOL    HW253962  13.076   3.086  10.552
50689SOL     OW53963   0.808   5.260   9.477
50689SOL    HW153964   0.882   5.229   9.425
50689SOL    HW253965   0.780   5.340   9.433
50690SOL     OW53966   7.497  11.220   5.781
50690SOL    HW153967   7.523  11.214   5.689
50690SOL    HW253968   7.475  11.312   5.794
50691SOL     OW53969  14.340   5.216   5.272
50691SOL    HW153970  14.286   5.271   5.329
50691SOL    HW253971  14.282   5.143   5.249
50692SOL     OW53972  13.353   1.101   0.884
50692SOL    HW153973  13.390   1.028   0.934
50692SOL    HW253974  13.413   1.114   0.811
50693SOL     OW53975   6.687   7.960   0.132
50693SOL    HW153976   6.714   7.995   0.047
50693SOL    HW253977   6.716   8.025   0.196
50694SOL     OW53978   0.092  11.188   3.950
50694SOL    HW153979   0.059  11.194   4.040
50694SOL    HW253980   0.060  11.267   3.907
50695SOL     OW53981   5.132   7.429   2.724
50695SOL    HW153982   5.084   7.489   2.667
50695SOL    HW253983   5.105   7.452   2.812
50696SOL     OW53984  12.736  13.133   7.615
50696SOL    HW153985  12.814  13.175   7.651
50696SOL    HW253986  12.676  13.125   7.689
50697SOL     OW53987   4.293   7.481   5.135
50697SOL    HW153988   4.339   7.410   5.088
50697SOL    HW253989   4.309   7.559   5.082
50698SOL     OW53990  14.677  13.945   2.163
50698SOL    HW153991  14.676  13.881   2.234
50698SOL    HW253992  14.747  13.916   2.104
50699SOL     OW53993  11.183  12.185  11.533
50699SOL    HW153994  11.172  12.279  11.520
50699SOL    HW253995  11.259  12.162  11.480
50700SOL     OW53996   3.342  12.734  12.486
50700SOL    HW153997   3.387  12.653  12.462
50700SOL    HW253998   3.315  12.772  12.402
50701SOL     OW53999  12.679   7.941  12.610
50701SOL    HW154000  12.676   7.846  12.597
50701SOL    HW254001  12.600   7.961  12.659
50702SOL     OW54002   3.447  12.367   3.660
50702SOL    HW154003   3.433  12.451   3.616
50702SOL    HW254004   3.502  12.389   3.735
50703SOL     OW54005  10.692   1.151   6.044
50703SOL    HW154006  10.623   1.085   6.046
50703SOL    HW254007  10.767   1.107   6.006
50704SOL     OW54008   2.458   6.514   2.011
50704SOL    HW154009   2.500   6.568   2.078
50704SOL    HW254010   2.495   6.427   2.024
50705SOL     OW54011   5.707  10.170   3.159
50705SOL    HW154012   5.800  10.190   3.172
50705SOL    HW254013   5.688  10.102   3.224
50706SOL     OW54014   5.253   0.503   4.132
50706SOL    HW154015   5.345   0.497   4.106
50706SOL    HW254016   5.204   0.476   4.054
50707SOL     OW54017   0.154   1.192   8.911
50707SOL    HW154018   0.096   1.179   8.986
50707SOL    HW254019   0.241   1.170   8.944
50708SOL     OW54020   3.356   6.868   4.734
50708SOL    HW154021   3.404   6.791   4.767
50708SOL    HW254022   3.314   6.905   4.812
50709SOL     OW54023   5.787   8.151  14.699
50709SOL    HW154024   5.745   8.069  14.674
50709SOL    HW254025   5.821   8.134  14.788
50710SOL     OW54026   2.872   6.429  11.533
50710SOL    HW154027   2.852   6.336  11.533
50710SOL    HW254028   2.958   6.436  11.492
50711SOL     OW54029   3.886  14.289   4.725
50711SOL    HW154030   3.822  14.272   4.794
50711SOL    HW254031   3.955  14.224   4.740
50712SOL     OW54032  11.074   9.179   4.877
50712SOL    HW154033  11.073   9.195   4.971
50712SOL    HW254034  11.017   9.104   4.864
50713SOL     OW54035   1.513   5.303   1.803
50713SOL    HW154036   1.452   5.261   1.864
50713SOL    HW254037   1.476   5.389   1.787
50714SOL     OW54038  13.567   8.799   7.882
50714SOL    HW154039  13.510   8.849   7.941
50714SOL    HW254040  13.528   8.809   7.796
50715SOL     OW54041  13.434   0.422  10.103
50715SOL    HW154042  13.390   0.338  10.119
50715SOL    HW254043  13.363   0.486  10.101
50716SOL     OW54044   5.526  11.060   5.002
50716SOL    HW154045   5.621  11.049   4.996
50716SOL    HW254046   5.490  10.984   4.956
50717SOL     OW54047   2.597   8.528  11.299
50717SOL    HW154048   2.528   8.498  11.239
50717SOL    HW254049   2.610   8.620  11.276
50718SOL     OW54050   9.332  13.410  12.924
50718SOL    HW154051   9.309  13.477  12.859
50718SOL    HW254052   9.425  13.424  12.942
50719SOL     OW54053   3.924   6.457   2.039
50719SOL    HW154054   3.856   6.511   2.078
50719SOL    HW254055   4.001   6.513   2.036
50720SOL     OW54056   3.156   5.724   4.970
50720SOL    HW154057   3.060   5.722   4.978
50720SOL    HW254058   3.176   5.654   4.908
50721SOL     OW54059   6.689  11.600   1.491
50721SOL    HW154060   6.695  11.687   1.530
50721SOL    HW254061   6.616  11.559   1.537
50722SOL     OW54062   3.768  11.440   9.250
50722SOL    HW154063   3.812  11.356   9.264
50722SOL    HW254064   3.738  11.436   9.160
50723SOL     OW54065  10.297  14.667   4.185
50723SOL    HW154066  10.361  14.599   4.162
50723SOL    HW254067  10.327  14.702   4.268
50724SOL     OW54068  11.273   5.215  14.667
50724SOL    HW154069  11.297   5.247  14.754
50724SOL    HW254070  11.194   5.264  14.645
50725SOL     OW54071   7.690  11.138   8.820
50725SOL    HW154072   7.688  11.207   8.885
50725SOL    HW254073   7.602  11.140   8.780
50726SOL     OW54074  10.914  13.203  13.289
50726SOL    HW154075  10.918  13.141  13.362
50726SOL    HW254076  10.925  13.148  13.211
50727SOL     OW54077   6.992   0.422   7.905
50727SOL    HW154078   6.919   0.470   7.866
50727SOL    HW254079   7.054   0.491   7.931
50728SOL     OW54080   7.817   6.721  11.016
50728SOL    HW154081   7.739   6.669  10.998
50728SOL    HW254082   7.849   6.687  11.100
50729SOL     OW54083   9.680   6.767  11.174
50729SOL    HW154084   9.759   6.762  11.119
50729SOL    HW254085   9.655   6.676  11.187
50730SOL     OW54086   0.771   8.321   0.974
50730SOL    HW154087   0.698   8.261   0.958
50730SOL    HW254088   0.788   8.314   1.068
50731SOL     OW54089   5.089  12.846  10.647
50731SOL    HW154090   5.143  12.924  10.664
50731SOL    HW254091   5.105  12.826  10.555
50732SOL     OW54092   0.570   4.686   1.430
50732SOL    HW154093   0.525   4.622   1.374
50732SOL    HW254094   0.501   4.746   1.458
50733SOL     OW54095  10.127  13.710   6.970
50733SOL    HW154096  10.142  13.635   6.913
50733SOL    HW254097  10.046  13.689   7.017
50734SOL     OW54098  12.595  13.430   8.766
50734SOL    HW154099  12.509  13.393   8.744
50734SOL    HW254100  12.622  13.476   8.687
50735SOL     OW54101   9.321   3.516   1.681
50735SOL    HW154102   9.389   3.577   1.653
50735SOL    HW254103   9.241   3.568   1.680
50736SOL     OW54104   8.591   0.252   0.266
50736SOL    HW154105   8.603   0.188   0.196
50736SOL    HW254106   8.674   0.299   0.271
50737SOL     OW54107  10.802   3.805   0.981
50737SOL    HW154108  10.755   3.872   0.931
50737SOL    HW254109  10.859   3.855   1.040
50738SOL     OW54110   6.635   7.897   5.319
50738SOL    HW154111   6.677   7.975   5.356
50738SOL    HW254112   6.544   7.902   5.348
50739SOL     OW54113   0.912   2.656  13.244
50739SOL    HW154114   0.854   2.664  13.169
50739SOL    HW254115   0.865   2.701  13.315
50740SOL     OW54116   0.112   7.302  10.362
50740SOL    HW154117   0.149   7.365  10.299
50740SOL    HW254118   0.029   7.341  10.388
50741SOL     OW54119  12.600   4.003  11.563
50741SOL    HW154120  12.683   3.955  11.567
50741SOL    HW254121  12.609   4.059  11.485
50742SOL     OW54122  10.705  13.023  12.299
50742SOL    HW154123  10.727  12.971  12.222
50742SOL    HW254124  10.657  13.098  12.265
50743SOL     OW54125  13.035   9.979   9.195
50743SOL    HW154126  12.991  10.020   9.121
50743SOL    HW254127  13.065  10.053   9.249
50744SOL     OW54128   5.073  11.973  12.200
50744SOL    HW154129   5.129  12.049  12.215
50744SOL    HW254130   5.081  11.956  12.106
50745SOL     OW54131  13.705   0.504   3.956
50745SOL    HW154132  13.695   0.434   4.020
50745SOL    HW254133  13.645   0.481   3.885
50746SOL     OW54134   1.195   8.550   1.124
50746SOL    HW154135   1.174   8.643   1.118
50746SOL    HW254136   1.282   8.542   1.084
50747SOL     OW54137  14.761   4.018  11.194
50747SOL    HW154138  14.690   3.959  11.170
50747SOL    HW254139  14.745   4.097  11.141
50748SOL     OW54140   6.136  10.542   7.899
50748SOL    HW154141   6.203  10.537   7.968
50748SOL    HW254142   6.105  10.632   7.904
50749SOL     OW54143   7.528   9.827   2.848
50749SOL    HW154144   7.467   9.771   2.801
50749SOL    HW254145   7.603   9.835   2.788
50750SOL     OW54146   1.335   1.380   6.506
50750SOL    HW154147   1.368   1.469   6.515
50750SOL    HW254148   1.243   1.390   6.482
50751SOL     OW54149  10.918   6.619   2.191
50751SOL    HW154150  10.848   6.555   2.206
50751SOL    HW254151  10.895   6.661   2.109
50752SOL     OW54152   9.102   5.282   2.767
50752SOL    HW154153   9.031   5.275   2.830
50752SOL    HW254154   9.060   5.264   2.682
50753SOL     OW54155   6.386   8.667   3.411
50753SOL    HW154156   6.414   8.621   3.332
50753SOL    HW254157   6.313   8.722   3.383
50754SOL     OW54158   9.855  10.775   6.894
50754SOL    HW154159   9.811  10.773   6.810
50754SOL    HW254160   9.784  10.778   6.959
50755SOL     OW54161  13.105   1.719   2.587
50755SOL    HW154162  13.196   1.692   2.599
50755SOL    HW254163  13.096   1.798   2.640
50756SOL     OW54164   9.120  10.693   7.916
50756SOL    HW154165   9.112  10.610   7.964
50756SOL    HW254166   9.059  10.752   7.960
50757SOL     OW54167   2.641  10.528   1.034
50757SOL    HW154168   2.618  10.587   0.963
50757SOL    HW254169   2.718  10.567   1.074
50758SOL     OW54170   8.336   8.803  14.858
50758SOL    HW154171   8.259   8.803  14.800
50758SOL    HW254172   8.409   8.827  14.801
50759SOL     OW54173   9.353   4.816  12.583
50759SOL    HW154174   9.433   4.818  12.635
50759SOL    HW254175   9.316   4.904  12.590
50760SOL     OW54176  14.458  11.878  10.899
50760SOL    HW154177  14.544  11.847  10.927
50760SOL    HW254178  14.464  11.973  10.904
50761SOL     OW54179  12.003  13.097   1.515
50761SOL    HW154180  11.932  13.156   1.541
50761SOL    HW254181  12.074  13.118   1.576
50762SOL     OW54182   1.887   5.571  13.352
50762SOL    HW154183   1.855   5.660  13.370
50762SOL    HW254184   1.875   5.524  13.435
50763SOL     OW54185  11.072  14.295   3.748
50763SOL    HW154186  11.115  14.319   3.830
50763SOL    HW254187  11.129  14.328   3.679
50764SOL     OW54188   6.878   6.036  10.893
50764SOL    HW154189   6.942   6.086  10.945
50764SOL    HW254190   6.908   6.046  10.802
50765SOL     OW54191   4.245   0.052  13.687
50765SOL    HW154192   4.200   0.081  13.608
50765SOL    HW254193   4.337   0.047  13.662
50766SOL     OW54194  13.469  14.308  14.459
50766SOL    HW154195  13.536  14.311  14.528
50766SOL    HW254196  13.407  14.241  14.489
50767SOL     OW54197  11.222   1.910  12.448
50767SOL    HW154198  11.231   1.996  12.408
50767SOL    HW254199  11.155   1.866  12.394
50768SOL     OW54200   8.570   1.644   8.796
50768SOL    HW154201   8.497   1.704   8.815
50768SOL    HW254202   8.533   1.557   8.811
50769SOL     OW54203   8.976   1.558   2.841
50769SOL    HW154204   9.030   1.497   2.891
50769SOL    HW254205   8.933   1.504   2.775
50770SOL     OW54206   8.726  13.667   8.189
50770SOL    HW154207   8.650  13.724   8.197
50770SOL    HW254208   8.697  13.582   8.221
50771SOL     OW54209   5.117   5.982   4.144
50771SOL    HW154210   5.139   6.036   4.220
50771SOL    HW254211   5.029   6.009   4.119
50772SOL     OW54212   7.344  10.213   5.928
50772SOL    HW154213   7.375  10.303   5.923
50772SOL    HW254214   7.366  10.185   6.017
50773SOL     OW54215   4.380  10.645   4.242
50773SOL    HW154216   4.294  10.610   4.219
50773SOL    HW254217   4.374  10.738   4.223
50774SOL     OW54218   4.383   0.909   6.153
50774SOL    HW154219   4.298   0.894   6.193
50774SOL    HW254220   4.426   0.974   6.209
50775SOL     OW54221  14.175   6.796   3.895
50775SOL    HW154222  14.141   6.814   3.982
50775SOL    HW254223  14.154   6.704   3.879
50776SOL     OW54224  10.274  14.155   0.250
50776SOL    HW154225  10.194  14.209   0.250
50776SOL    HW254226  10.340  14.211   0.291
50777SOL     OW54227   1.747  12.654   5.665
50777SOL    HW154228   1.819  12.705   5.628
50777SOL    HW254229   1.735  12.582   5.604
50778SOL     OW54230  12.705   2.070   2.489
50778SOL    HW154231  12.682   2.101   2.577
50778SOL    HW254232  12.623   2.033   2.455
50779SOL     OW54233   6.465   1.411  12.885
50779SOL    HW154234   6.494   1.353  12.815
50779SOL    HW254235   6.382   1.447  12.854
50780SOL     OW54236   0.950   4.431   7.480
50780SOL    HW154237   0.856   4.444   7.489
50780SOL    HW254238   0.959   4.365   7.412
50781SOL     OW54239   6.306   6.586   1.858
50781SOL    HW154240   6.258   6.582   1.941
50781SOL    HW254241   6.320   6.679   1.843
50782SOL     OW54242   4.058   0.340  14.436
50782SOL    HW154243   4.150   0.356  14.412
50782SOL    HW254244   4.031   0.420  14.481
50783SOL     OW54245  14.246   2.389   9.136
50783SOL    HW154246  14.255   2.295   9.125
50783SOL    HW254247  14.159   2.409   9.100
50784SOL     OW54248   7.879   0.796   6.985
50784SOL    HW154249   7.903   0.716   6.939
50784SOL    HW254250   7.818   0.840   6.927
50785SOL     OW54251   7.880   4.862   4.050
50785SOL    HW154252   7.968   4.898   4.046
50785SOL    HW254253   7.868   4.838   4.142
50786SOL     OW54254   1.689  10.012   5.378
50786SOL    HW154255   1.697   9.932   5.430
50786SOL    HW254256   1.715  10.082   5.437
50787SOL     OW54257   9.610  11.651   0.576
50787SOL    HW154258   9.606  11.685   0.665
50787SOL    HW254259   9.601  11.557   0.585
50788SOL     OW54260   7.082   0.932   3.920
50788SOL    HW154261   7.049   0.849   3.952
50788SOL    HW254262   7.004   0.987   3.911
50789SOL     OW54263   0.095  13.582   9.651
50789SOL    HW154264   0.047  13.500   9.648
50789SOL    HW254265   0.169  13.569   9.591
50790SOL     OW54266   3.269   6.444  14.010
50790SOL    HW154267   3.209   6.400  14.071
50790SOL    HW254268   3.306   6.373  13.957
50791SOL     OW54269  11.228   0.379   7.264
50791SOL    HW154270  11.135   0.401   7.270
50791SOL    HW254271  11.233   0.289   7.296
50792SOL     OW54272   1.389   2.879   6.569
50792SOL    HW154273   1.346   2.917   6.645
50792SOL    HW254274   1.356   2.789   6.565
50793SOL     OW54275   9.654   2.651  11.711
50793SOL    HW154276   9.590   2.705  11.758
50793SOL    HW254277   9.668   2.696  11.628
50794SOL     OW54278   7.995  12.917   7.384
50794SOL    HW154279   8.047  12.905   7.304
50794SOL    HW254280   7.949  13.000   7.370
50795SOL     OW54281  11.157  10.543  13.887
50795SOL    HW154282  11.167  10.463  13.835
50795SOL    HW254283  11.096  10.597  13.837
50796SOL     OW54284   8.379   2.746   1.150
50796SOL    HW154285   8.473   2.755   1.129
50796SOL    HW254286   8.335   2.762   1.067
50797SOL     OW54287  12.189   0.858   5.650
50797SOL    HW154288  12.179   0.890   5.560
50797SOL    HW254289  12.280   0.877   5.673
50798SOL     OW54290  10.817  12.518   9.587
50798SOL    HW154291  10.854  12.590   9.537
50798SOL    HW254292  10.739  12.492   9.537
50799SOL     OW54293  14.697  11.989   1.872
50799SOL    HW154294  14.694  11.967   1.965
50799SOL    HW254295  14.635  12.062   1.863
50800SOL     OW54296  12.101   2.655   4.227
50800SOL    HW154297  12.083   2.674   4.135
50800SOL    HW254298  12.075   2.735   4.274
50801SOL     OW54299  12.314  14.325   6.353
50801SOL    HW154300  12.317  14.367   6.267
50801SOL    HW254301  12.391  14.357   6.399
50802SOL     OW54302   7.867   9.028  13.352
50802SOL    HW154303   7.833   8.952  13.304
50802SOL    HW254304   7.961   9.026  13.335
50803SOL     OW54305   8.088   8.620  14.207
50803SOL    HW154306   8.016   8.682  14.220
50803SOL    HW254307   8.097   8.614  14.112
50804SOL     OW54308   5.494   4.643   2.552
50804SOL    HW154309   5.464   4.633   2.643
50804SOL    HW254310   5.423   4.605   2.500
50805SOL     OW54311  14.147  13.608   0.322
50805SOL    HW154312  14.055  13.620   0.345
50805SOL    HW254313  14.195  13.661   0.386
50806SOL     OW54314   4.123   4.857   0.934
50806SOL    HW154315   4.218   4.851   0.920
50806SOL    HW254316   4.088   4.778   0.893
50807SOL     OW54317  13.535   9.554   8.649
50807SOL    HW154318  13.446   9.574   8.619
50807SOL    HW254319  13.592   9.599   8.586
50808SOL     OW54320  10.878   5.160   5.115
50808SOL    HW154321  10.814   5.108   5.164
50808SOL    HW254322  10.956   5.105   5.112
50809SOL     OW54323   6.304  12.437  10.519
50809SOL    HW154324   6.211  12.416  10.507
50809SOL    HW254325   6.350  12.380  10.458
50810SOL     OW54326   1.598   4.028   0.834
50810SOL    HW154327   1.634   4.038   0.923
50810SOL    HW254328   1.555   3.942   0.835
50811SOL     OW54329  12.834   3.858  11.569
50811SOL    HW154330  12.904   3.897  11.621
50811SOL    HW254331  12.867   3.772  11.545
50812SOL     OW54332  11.966   9.178  13.935
50812SOL    HW154333  12.040   9.122  13.915
50812SOL    HW254334  11.893   9.117  13.947
50813SOL     OW54335   3.132   8.486   3.567
50813SOL    HW154336   3.196   8.440   3.621
50813SOL    HW254337   3.101   8.421   3.505
50814SOL     OW54338   1.369  12.882   0.685
50814SOL    HW154339   1.379  12.855   0.777
50814SOL    HW254340   1.405  12.971   0.683
50815SOL     OW54341  10.694   3.859  13.418
50815SOL    HW154342  10.623   3.903  13.371
50815SOL    HW254343  10.688   3.767  13.391
50816SOL     OW54344  13.315  11.959   9.242
50816SOL    HW154345  13.247  12.009   9.285
50816SOL    HW254346  13.369  12.025   9.198
50817SOL     OW54347   1.008   5.407  14.738
50817SOL    HW154348   0.967   5.341  14.682
50817SOL    HW254349   0.962   5.489  14.717
50818SOL     OW54350   2.013   8.707   6.286
50818SOL    HW154351   2.072   8.642   6.323
50818SOL    HW254352   1.949   8.657   6.236
50819SOL     OW54353   9.441  14.434   2.549
50819SOL    HW154354   9.468  14.413   2.639
50819SOL    HW254355   9.508  14.495   2.518
50820SOL     OW54356   6.790   4.979  14.105
50820SOL    HW154357   6.881   5.006  14.113
50820SOL    HW254358   6.783   4.944  14.016
50821SOL     OW54359   5.853   6.292  13.393
50821SOL    HW154360   5.892   6.240  13.464
50821SOL    HW254361   5.761   6.303  13.419
50822SOL     OW54362   5.285   3.970  13.115
50822SOL    HW154363   5.220   3.923  13.062
50822SOL    HW254364   5.361   3.979  13.057
50823SOL     OW54365  11.186   8.801   5.007
50823SOL    HW154366  11.233   8.746   5.070
50823SOL    HW254367  11.111   8.835   5.056
50824SOL     OW54368  12.278   1.897   0.326
50824SOL    HW154369  12.197   1.862   0.362
50824SOL    HW254370  12.251   1.970   0.271
50825SOL     OW54371   0.553  12.202   3.441
50825SOL    HW154372   0.578  12.240   3.525
50825SOL    HW254373   0.491  12.264   3.404
50826SOL     OW54374  12.781   7.965  10.976
50826SOL    HW154375  12.868   7.993  10.949
50826SOL    HW254376  12.748   8.037  11.030
50827SOL     OW54377  10.265   2.380  10.051
50827SOL    HW154378  10.251   2.294  10.089
50827SOL    HW254379  10.275   2.438  10.126
50828SOL     OW54380  10.297  13.057  10.790
50828SOL    HW154381  10.369  13.003  10.760
50828SOL    HW254382  10.334  13.145  10.798
50829SOL     OW54383  12.665   7.792  10.017
50829SOL    HW154384  12.626   7.879  10.023
50829SOL    HW254385  12.684   7.780   9.924
50830SOL     OW54386  10.152   1.944   5.515
50830SOL    HW154387  10.160   1.980   5.603
50830SOL    HW254388  10.127   2.019   5.461
50831SOL     OW54389  11.944   1.987   7.671
50831SOL    HW154390  11.982   1.941   7.746
50831SOL    HW254391  11.933   2.077   7.701
50832SOL     OW54392   3.290   5.111   6.790
50832SOL    HW154393   3.378   5.114   6.752
50832SOL    HW254394   3.270   5.018   6.798
50833SOL     OW54395   9.700  13.561   9.802
50833SOL    HW154396   9.675  13.619   9.730
50833SOL    HW254397   9.693  13.616   9.880
50834SOL     OW54398   5.617   1.537   2.669
50834SOL    HW154399   5.544   1.479   2.647
50834SOL    HW254400   5.602   1.559   2.761
50835SOL     OW54401  14.611   2.905   0.324
50835SOL    HW154402  14.609   2.925   0.417
50835SOL    HW254403  14.699   2.871   0.308
50836SOL     OW54404  13.937  10.027  12.577
50836SOL    HW154405  13.966   9.964  12.511
50836SOL    HW254406  13.914   9.973  12.653
50837SOL     OW54407   2.138   2.891   1.833
50837SOL    HW154408   2.139   2.802   1.799
50837SOL    HW254409   2.119   2.881   1.926
50838SOL     OW54410  11.148   3.332   6.709
50838SOL    HW154411  11.158   3.322   6.804
50838SOL    HW254412  11.061   3.298   6.690
50839SOL     OW54413  13.623  11.272   1.041
50839SOL    HW154414  13.708  11.230   1.031
50839SOL    HW254415  13.627  11.316   1.125
50840SOL     OW54416   2.253   3.003  14.638
50840SOL    HW154417   2.287   2.981  14.552
50840SOL    HW254418   2.162   3.029  14.622
50841SOL     OW54419   5.330  13.748   1.103
50841SOL    HW154420   5.281  13.784   1.030
50841SOL    HW254421   5.399  13.812   1.120
50842SOL     OW54422   4.239   8.417   0.224
50842SOL    HW154423   4.168   8.476   0.249
50842SOL    HW254424   4.210   8.331   0.253
50843SOL     OW54425   2.893   9.170  13.795
50843SOL    HW154426   2.823   9.184  13.731
50843SOL    HW254427   2.867   9.093  13.844
50844SOL     OW54428   2.646  12.893   6.130
50844SOL    HW154429   2.634  12.957   6.059
50844SOL    HW254430   2.559  12.880   6.166
50845SOL     OW54431   2.248   9.107   3.720
50845SOL    HW154432   2.271   9.176   3.783
50845SOL    HW254433   2.323   9.105   3.659
50846SOL     OW54434  13.235   3.527   3.631
50846SOL    HW154435  13.317   3.525   3.681
50846SOL    HW254436  13.263   3.526   3.539
50847SOL     OW54437  11.053   0.192  13.881
50847SOL    HW154438  11.052   0.283  13.910
50847SOL    HW254439  10.970   0.155  13.913
50848SOL     OW54440   3.050   9.797   9.690
50848SOL    HW154441   3.003   9.856   9.632
50848SOL    HW254442   3.143   9.811   9.669
50849SOL     OW54443   9.547   2.597   8.205
50849SOL    HW154444   9.590   2.518   8.174
50849SOL    HW254445   9.615   2.665   8.201
50850SOL     OW54446   7.851   2.650   8.944
50850SOL    HW154447   7.798   2.573   8.925
50850SOL    HW254448   7.853   2.655   9.040
50851SOL     OW54449   3.882  13.965  10.553
50851SOL    HW154450   3.944  13.893  10.539
50851SOL    HW254451   3.873  13.971  10.648
50852SOL     OW54452   1.502  11.573  10.369
50852SOL    HW154453   1.525  11.481  10.377
50852SOL    HW254454   1.454  11.593  10.450
50853SOL     OW54455   0.980  11.324   7.749
50853SOL    HW154456   1.016  11.351   7.834
50853SOL    HW254457   0.976  11.404   7.697
50854SOL     OW54458  12.780  14.336   7.653
50854SOL    HW154459  12.836  14.261   7.673
50854SOL    HW254460  12.699  14.297   7.621
50855SOL     OW54461   6.272   0.977  11.642
50855SOL    HW154462   6.208   0.959  11.710
50855SOL    HW254463   6.263   1.071  11.625
50856SOL     OW54464   1.560   2.297   7.155
50856SOL    HW154465   1.536   2.208   7.180
50856SOL    HW254466   1.585   2.339   7.238
50857SOL     OW54467   0.990   9.091  11.863
50857SOL    HW154468   1.016   9.172  11.818
50857SOL    HW254469   0.968   9.120  11.952
50858SOL     OW54470   9.463  10.952   7.404
50858SOL    HW154471   9.555  10.925   7.411
50858SOL    HW254472   9.414  10.870   7.397
50859SOL     OW54473  11.341   5.067   6.917
50859SOL    HW154474  11.357   5.152   6.876
50859SOL    HW254475  11.426   5.024   6.917
50860SOL     OW54476  10.166   7.972  10.238
50860SOL    HW154477  10.197   7.972  10.148
50860SOL    HW254478  10.162   7.879  10.262
50861SOL     OW54479   7.902  14.217   7.519
50861SOL    HW154480   7.827  14.237   7.464
50861SOL    HW254481   7.873  14.142   7.572
50862SOL     OW54482   0.649   6.219   4.139
50862SOL    HW154483   0.670   6.285   4.073
50862SOL    HW254484   0.711   6.148   4.123
50863SOL     OW54485   0.212  10.436  14.147
50863SOL    HW154486   0.119  10.416  14.138
50863SOL    HW254487   0.254  10.383  14.078
50864SOL     OW54488   3.680   8.949   5.124
50864SOL    HW154489   3.640   9.030   5.156
50864SOL    HW254490   3.613   8.882   5.139
50865SOL     OW54491   8.563   6.972  12.129
50865SOL    HW154492   8.641   6.917  12.138
50865SOL    HW254493   8.489   6.912  12.140
50866SOL     OW54494   1.468   8.674   7.973
50866SOL    HW154495   1.546   8.679   8.028
50866SOL    HW254496   1.422   8.596   8.004
50867SOL     OW54497   8.185   4.558   9.584
50867SOL    HW154498   8.185   4.570   9.679
50867SOL    HW254499   8.274   4.531   9.564
50868SOL     OW54500   8.243   9.455  11.968
50868SOL    HW154501   8.328   9.417  11.945
50868SOL    HW254502   8.194   9.383  12.009
50869SOL     OW54503   6.252  12.820  13.506
50869SOL    HW154504   6.188  12.862  13.449
50869SOL    HW254505   6.335  12.862  13.483
50870SOL     OW54506   9.445  12.494   6.773
50870SOL    HW154507   9.456  12.412   6.725
50870SOL    HW254508   9.358  12.525   6.749
50871SOL     OW54509   9.336   9.254   6.566
50871SOL    HW154510   9.321   9.297   6.482
50871SOL    HW254511   9.423   9.215   6.557
50872SOL     OW54512   2.192   1.305   5.106
50872SOL    HW154513   2.153   1.392   5.096
50872SOL    HW254514   2.203   1.295   5.201
50873SOL     OW54515   4.677   0.201  12.167
50873SOL    HW154516   4.644   0.238  12.085
50873SOL    HW254517   4.772   0.209  12.160
50874SOL     OW54518   7.581   8.550   4.431
50874SOL    HW154519   7.487   8.564   4.445
50874SOL    HW254520   7.611   8.630   4.389
50875SOL     OW54521   1.275  14.379   4.336
50875SOL    HW154522   1.247  14.462   4.297
50875SOL    HW254523   1.195  14.326   4.339
50876SOL     OW54524  11.421  10.010   2.927
50876SOL    HW154525  11.410   9.948   2.999
50876SOL    HW254526  11.480   9.966   2.866
50877SOL     OW54527  12.703   1.748  12.827
50877SOL    HW154528  12.781   1.707  12.789
50877SOL    HW254529  12.713   1.734  12.922
50878SOL     OW54530   1.063  14.375   1.541
50878SOL    HW154531   1.037  14.431   1.468
50878SOL    HW254532   1.156  14.358   1.527
50879SOL     OW54533   3.337  10.106  14.533
50879SOL    HW154534   3.268  10.157  14.576
50879SOL    HW254535   3.416  10.159  14.544
50880SOL     OW54536   4.037  14.431   6.465
50880SOL    HW154537   4.125  14.404   6.493
50880SOL    HW254538   4.053  14.482   6.385
50881SOL     OW54539   2.060   3.670  12.211
50881SOL    HW154540   2.107   3.592  12.182
50881SOL    HW254541   2.113   3.704  12.283
50882SOL     OW54542   9.442  14.537   5.788
50882SOL    HW154543   9.396  14.507   5.866
50882SOL    HW254544   9.412  14.627   5.775
50883SOL     OW54545  10.037   9.709  12.265
50883SOL    HW154546   9.954   9.740  12.228
50883SOL    HW254547  10.091   9.787  12.273
50884SOL     OW54548   7.886   1.393  11.747
50884SOL    HW154549   7.864   1.430  11.662
50884SOL    HW254550   7.802   1.367  11.786
50885SOL     OW54551   0.876  14.121  12.701
50885SOL    HW154552   0.827  14.042  12.678
50885SOL    HW254553   0.957  14.089  12.741
50886SOL     OW54554   4.695   8.262  11.529
50886SOL    HW154555   4.661   8.220  11.450
50886SOL    HW254556   4.626   8.322  11.556
50887SOL     OW54557  12.497   1.633   2.562
50887SOL    HW154558  12.513   1.725   2.585
50887SOL    HW254559  12.451   1.638   2.478
50888SOL     OW54560   2.604  10.680   6.555
50888SOL    HW154561   2.618  10.592   6.521
50888SOL    HW254562   2.691  10.711   6.578
50889SOL     OW54563   0.885   1.296  12.149
50889SOL    HW154564   0.876   1.375  12.202
50889SOL    HW254565   0.808   1.296  12.093
50890SOL     OW54566  10.927   1.699   1.590
50890SOL    HW154567  10.947   1.739   1.506
50890SOL    HW254568  10.836   1.725   1.607
50891SOL     OW54569   1.337   0.885   3.908
50891SOL    HW154570   1.363   0.818   3.844
50891SOL    HW254571   1.302   0.957   3.855
50892SOL     OW54572   3.225   0.925   4.618
50892SOL    HW154573   3.165   0.851   4.626
50892SOL    HW254574   3.303   0.899   4.667
50893SOL     OW54575  12.696   4.109  12.607
50893SOL    HW154576  12.690   4.039  12.671
50893SOL    HW254577  12.674   4.189  12.656
50894SOL     OW54578   6.265  10.192   5.314
50894SOL    HW154579   6.315  10.260   5.269
50894SOL    HW254580   6.208  10.240   5.373
50895SOL     OW54581   5.038   4.090  10.208
50895SOL    HW154582   5.008   4.002  10.183
50895SOL    HW254583   5.025   4.143  10.129
50896SOL     OW54584  13.166   3.451   2.833
50896SOL    HW154585  13.152   3.423   2.924
50896SOL    HW254586  13.109   3.394   2.782
50897SOL     OW54587  10.218   7.944   8.921
50897SOL    HW154588  10.211   7.981   8.833
50897SOL    HW254589  10.274   7.867   8.910
50898SOL     OW54590   2.536   7.519  12.688
50898SOL    HW154591   2.488   7.456  12.742
50898SOL    HW254592   2.563   7.467  12.611
50899SOL     OW54593   5.686   8.447   8.282
50899SOL    HW154594   5.660   8.400   8.361
50899SOL    HW254595   5.681   8.381   8.212
50900SOL     OW54596   8.803   3.734  11.964
50900SOL    HW154597   8.893   3.746  11.935
50900SOL    HW254598   8.753   3.725  11.883
50901SOL     OW54599   0.896   1.188   5.320
50901SOL    HW154600   0.934   1.112   5.363
50901SOL    HW254601   0.882   1.251   5.391
50902SOL     OW54602  10.862  14.502  13.555
50902SOL    HW154603  10.844  14.496  13.461
50902SOL    HW254604  10.923  14.575  13.564
50903SOL     OW54605  12.270   2.046   5.979
50903SOL    HW154606  12.260   2.134   6.016
50903SOL    HW254607  12.324   2.000   6.044
50904SOL     OW54608   6.458   5.910   0.025
50904SOL    HW154609   6.529   5.954  14.849
50904SOL    HW254610   6.479   5.920   0.118
50905SOL     OW54611   2.786   6.345  10.606
50905SOL    HW154612   2.722   6.404  10.564
50905SOL    HW254613   2.773   6.261  10.561
50906SOL     OW54614  14.380  11.287   3.418
50906SOL    HW154615  14.409  11.375   3.393
50906SOL    HW254616  14.311  11.302   3.482
50907SOL     OW54617   5.815   1.666   1.805
50907SOL    HW154618   5.748   1.685   1.871
50907SOL    HW254619   5.772   1.687   1.722
50908SOL     OW54620   9.369   4.149   7.876
50908SOL    HW154621   9.339   4.182   7.791
50908SOL    HW254622   9.293   4.105   7.913
50909SOL     OW54623  12.920   2.730   6.431
50909SOL    HW154624  12.831   2.708   6.406
50909SOL    HW254625  12.949   2.657   6.486
50910SOL     OW54626   9.519   8.913  11.970
50910SOL    HW154627   9.475   8.834  12.000
50910SOL    HW254628   9.449   8.970  11.939
50911SOL     OW54629   2.913   8.848   6.426
50911SOL    HW154630   2.902   8.927   6.479
50911SOL    HW254631   3.005   8.848   6.401
50912SOL     OW54632   1.307   1.196   6.145
50912SOL    HW154633   1.322   1.277   6.194
50912SOL    HW254634   1.235   1.153   6.192
50913SOL     OW54635  13.040   2.054  13.043
50913SOL    HW154636  13.100   2.035  12.971
50913SOL    HW254637  13.092   2.041  13.122
50914SOL     OW54638  11.396  10.759   8.176
50914SOL    HW154639  11.359  10.836   8.132
50914SOL    HW254640  11.327  10.693   8.173
50915SOL     OW54641   3.728   0.150   4.776
50915SOL    HW154642   3.666   0.133   4.706
50915SOL    HW254643   3.751   0.242   4.766
50916SOL     OW54644   0.233  11.590   9.994
50916SOL    HW154645   0.170  11.579   9.923
50916SOL    HW254646   0.182  11.576  10.074
50917SOL     OW54647  12.045   8.862   3.280
50917SOL    HW154648  12.050   8.790   3.217
50917SOL    HW254649  11.994   8.826   3.353
50918SOL     OW54650  12.925   8.780   7.583
50918SOL    HW154651  12.925   8.773   7.679
50918SOL    HW254652  13.005   8.736   7.556
50919SOL     OW54653   6.333   2.649   9.742
50919SOL    HW154654   6.418   2.606   9.734
50919SOL    HW254655   6.314   2.680   9.653
50920SOL     OW54656   4.130   3.810  10.989
50920SOL    HW154657   4.131   3.847  10.901
50920SOL    HW254658   4.054   3.752  10.990
50921SOL     OW54659  11.248  13.060   7.344
50921SOL    HW154660  11.314  13.011   7.392
50921SOL    HW254661  11.169  13.007   7.350
50922SOL     OW54662  11.850  11.180  10.827
50922SOL    HW154663  11.802  11.100  10.850
50922SOL    HW254664  11.797  11.220  10.758
50923SOL     OW54665   1.814  11.314   5.258
50923SOL    HW154666   1.788  11.405   5.244
50923SOL    HW254667   1.755  11.262   5.204
50924SOL     OW54668   5.908  12.728   5.072
50924SOL    HW154669   5.881  12.800   5.129
50924SOL    HW254670   5.949  12.664   5.131
50925SOL     OW54671   6.845  10.249   2.418
50925SOL    HW154672   6.802  10.246   2.504
50925SOL    HW254673   6.798  10.317   2.371
50926SOL     OW54674   4.401  13.051   1.724
50926SOL    HW154675   4.455  13.035   1.801
50926SOL    HW254676   4.358  13.135   1.741
50927SOL     OW54677  11.233  10.334   2.325
50927SOL    HW154678  11.234  10.428   2.339
50927SOL    HW254679  11.319  10.314   2.288
50928SOL     OW54680  14.394   0.541  10.406
50928SOL    HW154681  14.299   0.540  10.422
50928SOL    HW254682  14.432   0.508  10.488
50929SOL     OW54683   5.943   1.476   1.113
50929SOL    HW154684   5.985   1.531   1.179
50929SOL    HW254685   5.873   1.432   1.162
50930SOL     OW54686   2.935  14.373   8.347
50930SOL    HW154687   2.897  14.456   8.320
50930SOL    HW254688   2.873  14.337   8.410
50931SOL     OW54689  13.919   5.003  14.515
50931SOL    HW154690  13.967   5.004  14.432
50931SOL    HW254691  13.977   5.046  14.577
50932SOL     OW54692   7.167  14.065   5.914
50932SOL    HW154693   7.176  14.037   5.822
50932SOL    HW254694   7.194  13.989   5.965
50933SOL     OW54695   0.353  13.085   9.091
50933SOL    HW154696   0.393  13.054   9.009
50933SOL    HW254697   0.399  13.038   9.160
50934SOL     OW54698   6.305   4.406   9.896
50934SOL    HW154699   6.217   4.371   9.913
50934SOL    HW254700   6.297   4.500   9.913
50935SOL     OW54701  13.918  12.921   6.256
50935SOL    HW154702  13.999  12.970   6.241
50935SOL    HW254703  13.852  12.989   6.272
50936SOL     OW54704  12.868  12.228   2.460
50936SOL    HW154705  12.895  12.178   2.537
50936SOL    HW254706  12.792  12.278   2.490
50937SOL     OW54707   8.265   8.271   4.164
50937SOL    HW154708   8.283   8.182   4.135
50937SOL    HW254709   8.337   8.292   4.224
50938SOL     OW54710  10.279  11.937  11.563
50938SOL    HW154711  10.342  11.943  11.490
50938SOL    HW254712  10.306  12.006  11.624
50939SOL     OW54713  13.564  10.159   1.510
50939SOL    HW154714  13.475  10.177   1.539
50939SOL    HW254715  13.619  10.212   1.568
50940SOL     OW54716   9.868   2.796   0.458
50940SOL    HW154717   9.851   2.728   0.523
50940SOL    HW254718   9.784   2.842   0.448
50941SOL     OW54719   8.416   3.181   0.139
50941SOL    HW154720   8.393   3.088   0.134
50941SOL    HW254721   8.438   3.195   0.231
50942SOL     OW54722   3.072  11.568   7.498
50942SOL    HW154723   3.070  11.654   7.458
50942SOL    HW254724   3.034  11.581   7.585
50943SOL     OW54725   3.723   9.150   4.003
50943SOL    HW154726   3.647   9.093   4.017
50943SOL    HW254727   3.794   9.106   4.050
50944SOL     OW54728  11.457  12.275  11.790
50944SOL    HW154729  11.379  12.317  11.824
50944SOL    HW254730  11.429  12.188  11.763
50945SOL     OW54731   1.154  11.390   3.456
50945SOL    HW154732   1.118  11.387   3.367
50945SOL    HW254733   1.118  11.471   3.494
50946SOL     OW54734  11.293   4.180   0.573
50946SOL    HW154735  11.262   4.090   0.568
50946SOL    HW254736  11.306   4.196   0.666
50947SOL     OW54737   4.238   3.460   4.535
50947SOL    HW154738   4.233   3.423   4.447
50947SOL    HW254739   4.148   3.461   4.567
50948SOL     OW54740   2.884   9.432  13.922
50948SOL    HW154741   2.900   9.428  14.016
50948SOL    HW254742   2.888   9.341  13.893
50949SOL     OW54743   1.925  11.185   2.850
50949SOL    HW154744   1.968  11.110   2.891
50949SOL    HW254745   1.877  11.147   2.776
50950SOL     OW54746  10.711  14.413  11.621
50950SOL    HW154747  10.628  14.389  11.580
50950SOL    HW254748  10.732  14.499  11.585
50951SOL     OW54749  10.787  13.774   5.562
50951SOL    HW154750  10.778  13.866   5.586
50951SOL    HW254751  10.698  13.745   5.542
50952SOL     OW54752   9.609   4.244   0.616
50952SOL    HW154753   9.583   4.306   0.685
50952SOL    HW254754   9.618   4.298   0.538
50953SOL     OW54755   4.987   2.091   3.656
50953SOL    HW154756   4.922   2.079   3.587
50953SOL    HW254757   5.056   2.028   3.636
50954SOL     OW54758  13.121  12.013   7.994
50954SOL    HW154759  13.178  11.969   7.931
50954SOL    HW254760  13.036  12.017   7.951
50955SOL     OW54761   9.185   6.879   6.643
50955SOL    HW154762   9.204   6.832   6.725
50955SOL    HW254763   9.135   6.816   6.591
50956SOL     OW54764   8.508   6.921   4.979
50956SOL    HW154765   8.472   6.928   4.891
50956SOL    HW254766   8.596   6.958   4.972
50957SOL     OW54767   4.389  13.871   7.168
50957SOL    HW154768   4.303  13.879   7.209
50957SOL    HW254769   4.450  13.904   7.234
50958SOL     OW54770   4.078   7.967  13.528
50958SOL    HW154771   4.037   8.033  13.584
50958SOL    HW254772   4.158   8.009  13.496
50959SOL     OW54773   9.214  11.979  11.902
50959SOL    HW154774   9.161  11.911  11.861
50959SOL    HW254775   9.258  11.935  11.974
50960SOL     OW54776  10.772   9.895   3.904
50960SOL    HW154777  10.760   9.866   3.813
50960SOL    HW254778  10.683   9.907   3.937
50961SOL     OW54779   4.858   6.652  12.253
50961SOL    HW154780   4.771   6.615  12.267
50961SOL    HW254781   4.887   6.678  12.341
50962SOL     OW54782   6.692   7.072   3.789
50962SOL    HW154783   6.765   7.073   3.851
50962SOL    HW254784   6.716   7.005   3.725
50963SOL     OW54785   5.267   4.336   3.300
50963SOL    HW154786   5.212   4.381   3.236
50963SOL    HW254787   5.350   4.384   3.298
50964SOL     OW54788   4.394   1.011  14.307
50964SOL    HW154789   4.470   1.004  14.249
50964SOL    HW254790   4.415   1.084  14.365
50965SOL     OW54791   9.006  14.044   6.933
50965SOL    HW154792   9.026  14.029   7.025
50965SOL    HW254793   8.949  13.971   6.908
50966SOL     OW54794  13.097   1.617  10.588
50966SOL    HW154795  13.145   1.700  10.588
50966SOL    HW254796  13.149   1.559  10.533
50967SOL     OW54797  11.412   7.872   9.961
50967SOL    HW154798  11.353   7.817   9.910
50967SOL    HW254799  11.357   7.911  10.029
50968SOL     OW54800   5.462  10.935  10.328
50968SOL    HW154801   5.448  11.015  10.277
50968SOL    HW254802   5.507  10.965  10.407
50969SOL     OW54803  13.207  14.852  12.078
50969SOL    HW154804  13.239  14.792  12.011
50969SOL    HW254805  13.275  14.853  12.145
50970SOL     OW54806   6.232   6.930   8.299
50970SOL    HW154807   6.198   6.845   8.325
50970SOL    HW254808   6.321   6.933   8.336
50971SOL     OW54809   4.063   6.375  13.798
50971SOL    HW154810   4.041   6.345  13.710
50971SOL    HW254811   4.061   6.296  13.852
50972SOL     OW54812   0.540   8.345   7.895
50972SOL    HW154813   0.508   8.382   7.978
50972SOL    HW254814   0.488   8.389   7.828
50973SOL     OW54815   6.629  13.479  13.779
50973SOL    HW154816   6.662  13.565  13.752
50973SOL    HW254817   6.636  13.425  13.700
50974SOL     OW54818   5.124   4.929  14.371
50974SOL    HW154819   5.090   4.847  14.334
50974SOL    HW254820   5.084   4.934  14.458
50975SOL     OW54821   8.053  11.704   5.167
50975SOL    HW154822   8.035  11.797   5.182
50975SOL    HW254823   7.973  11.659   5.197
50976SOL     OW54824   9.448   0.908   9.096
50976SOL    HW154825   9.399   0.850   9.038
50976SOL    HW254826   9.390   0.982   9.111
50977SOL     OW54827  10.762   4.483   6.869
50977SOL    HW154828  10.703   4.423   6.823
50977SOL    HW254829  10.762   4.563   6.815
50978SOL     OW54830  10.849   8.217   1.251
50978SOL    HW154831  10.914   8.197   1.184
50978SOL    HW254832  10.799   8.136   1.261
50979SOL     OW54833   3.140   2.423   3.706
50979SOL    HW154834   3.122   2.358   3.773
50979SOL    HW254835   3.196   2.378   3.643
50980SOL     OW54836   6.577   1.388   2.686
50980SOL    HW154837   6.495   1.437   2.691
50980SOL    HW254838   6.551   1.300   2.658
50981SOL     OW54839   1.450  12.678   8.168
50981SOL    HW154840   1.390  12.690   8.094
50981SOL    HW254841   1.412  12.605   8.218
50982SOL     OW54842   6.250   4.796   7.848
50982SOL    HW154843   6.298   4.713   7.854
50982SOL    HW254844   6.158   4.770   7.852
50983SOL     OW54845   5.605  13.078   8.830
50983SOL    HW154846   5.549  13.142   8.786
50983SOL    HW254847   5.625  13.013   8.762
50984SOL     OW54848   0.335   7.002  14.319
50984SOL    HW154849   0.427   6.987  14.297
50984SOL    HW254850   0.338   7.070  14.387
50985SOL     OW54851  12.010   5.326   8.223
50985SOL    HW154852  11.945   5.352   8.287
50985SOL    HW254853  12.089   5.374   8.247
50986SOL     OW54854   5.650  13.219   5.687
50986SOL    HW154855   5.683  13.228   5.598
50986SOL    HW254856   5.562  13.255   5.684
50987SOL     OW54857  14.123  12.541  11.510
50987SOL    HW154858  14.066  12.545  11.587
50987SOL    HW254859  14.080  12.480  11.450
50988SOL     OW54860  11.104  10.745  13.621
50988SOL    HW154861  11.145  10.816  13.670
50988SOL    HW254862  11.177  10.705  13.573
50989SOL     OW54863   4.468  10.430  12.675
50989SOL    HW154864   4.439  10.482  12.749
50989SOL    HW254865   4.398  10.367  12.660
50990SOL     OW54866   6.335   2.876   7.976
50990SOL    HW154867   6.324   2.829   7.894
50990SOL    HW254868   6.339   2.968   7.951
50991SOL     OW54869   6.882   3.079   5.584
50991SOL    HW154870   6.823   3.133   5.531
50991SOL    HW254871   6.873   3.113   5.673
50992SOL     OW54872   4.031   7.594  11.256
50992SOL    HW154873   3.954   7.650  11.249
50992SOL    HW254874   4.101   7.652  11.286
50993SOL     OW54875   8.720   8.252   5.105
50993SOL    HW154876   8.813   8.230   5.109
50993SOL    HW254877   8.714   8.339   5.144
50994SOL     OW54878   2.991   8.554   9.642
50994SOL    HW154879   3.005   8.644   9.613
50994SOL    HW254880   3.013   8.501   9.565
50995SOL     OW54881   5.164   1.613  13.220
50995SOL    HW154882   5.191   1.659  13.300
50995SOL    HW254883   5.069   1.605  13.228
50996SOL     OW54884  11.386   9.147  12.311
50996SOL    HW154885  11.319   9.086  12.281
50996SOL    HW254886  11.432   9.101  12.381
50997SOL     OW54887   2.552  10.473  10.626
50997SOL    HW154888   2.560  10.457  10.532
50997SOL    HW254889   2.507  10.396  10.660
50998SOL     OW54890   8.145  14.200   8.723
50998SOL    HW154891   8.096  14.190   8.641
50998SOL    HW254892   8.236  14.182   8.700
50999SOL     OW54893  10.976  14.722   9.593
50999SOL    HW154894  11.054  14.703   9.540
50999SOL    HW254895  10.915  14.763   9.532
51000SOL     OW54896   5.880   0.388   6.548
51000SOL    HW154897   5.893   0.320   6.482
51000SOL    HW254898   5.940   0.458   6.521
51001SOL     OW54899   3.260  10.581   4.435
51001SOL    HW154900   3.171  10.587   4.402
51001SOL    HW254901   3.291  10.672   4.439
51002SOL     OW54902   1.167  10.462  13.710
51002SOL    HW154903   1.130  10.379  13.679
51002SOL    HW254904   1.194  10.507  13.630
51003SOL     OW54905  14.347   9.922   9.589
51003SOL    HW154906  14.270   9.867   9.600
51003SOL    HW254907  14.398   9.878   9.520
51004SOL     OW54908   5.971  14.464   2.139
51004SOL    HW154909   5.913  14.389   2.151
51004SOL    HW254910   6.040  14.431   2.082
51005SOL     OW54911   1.595  12.610  12.965
51005SOL    HW154912   1.522  12.548  12.971
51005SOL    HW254913   1.666  12.569  13.013
51006SOL     OW54914   1.105  10.175   1.444
51006SOL    HW154915   1.138  10.264   1.457
51006SOL    HW254916   1.042  10.162   1.515
51007SOL     OW54917   1.872  12.708  10.494
51007SOL    HW154918   1.845  12.724  10.404
51007SOL    HW254919   1.827  12.627  10.519
51008SOL     OW54920   3.799   8.395   5.978
51008SOL    HW154921   3.888   8.362   5.987
51008SOL    HW254922   3.810   8.485   5.947
51009SOL     OW54923   7.328   9.897   7.200
51009SOL    HW154924   7.247   9.938   7.229
51009SOL    HW254925   7.322   9.806   7.229
51010SOL     OW54926  11.639  10.416  13.443
51010SOL    HW154927  11.730  10.384  13.443
51010SOL    HW254928  11.645  10.505  13.410
51011SOL     OW54929   2.817  10.635  11.852
51011SOL    HW154930   2.898  10.682  11.834
51011SOL    HW254931   2.842  10.543  11.853
51012SOL     OW54932  14.089  10.170   6.511
51012SOL    HW154933  14.108  10.256   6.547
51012SOL    HW254934  14.175  10.126   6.508
51013SOL     OW54935   1.507   9.281   9.666
51013SOL    HW154936   1.417   9.251   9.674
51013SOL    HW254937   1.500   9.368   9.627
51014SOL     OW54938   2.587  13.861   5.656
51014SOL    HW154939   2.629  13.891   5.737
51014SOL    HW254940   2.657  13.818   5.607
51015SOL     OW54941   5.924   6.525  12.938
51015SOL    HW154942   5.959   6.436  12.949
51015SOL    HW254943   5.927   6.540  12.843
51016SOL     OW54944   5.046  12.303  10.581
51016SOL    HW154945   5.088  12.234  10.632
51016SOL    HW254946   5.118  12.355  10.546
51017SOL     OW54947   2.714   4.397   9.834
51017SOL    HW154948   2.643   4.456   9.857
51017SOL    HW254949   2.712   4.392   9.739
51018SOL     OW54950   4.935  12.274   8.571
51018SOL    HW154951   4.871  12.262   8.642
51018SOL    HW254952   4.883  12.307   8.498
51019SOL     OW54953   6.091   6.701   0.070
51019SOL    HW154954   6.071   6.617   0.029
51019SOL    HW254955   6.053   6.695   0.158
51020SOL     OW54956   4.598   1.599   3.759
51020SOL    HW154957   4.660   1.666   3.786
51020SOL    HW254958   4.632   1.518   3.797
51021SOL     OW54959   5.513   3.608  12.902
51021SOL    HW154960   5.592   3.554  12.914
51021SOL    HW254961   5.501   3.612  12.808
51022SOL     OW54962   1.836  13.430   9.223
51022SOL    HW154963   1.748  13.401   9.246
51022SOL    HW254964   1.832  13.526   9.230
51023SOL     OW54965   9.169   2.563   8.607
51023SOL    HW154966   9.215   2.555   8.524
51023SOL    HW254967   9.198   2.647   8.643
51024SOL     OW54968  11.539  12.716   4.101
51024SOL    HW154969  11.451  12.747   4.124
51024SOL    HW254970  11.526  12.624   4.076
51025SOL     OW54971   8.889  10.884  11.140
51025SOL    HW154972   8.811  10.933  11.112
51025SOL    HW254973   8.956  10.952  11.151
51026SOL     OW54974  12.288   7.708   9.285
51026SOL    HW154975  12.288   7.616   9.313
51026SOL    HW254976  12.366   7.746   9.326
51027SOL     OW54977   7.994   7.366   8.855
51027SOL    HW154978   8.006   7.272   8.874
51027SOL    HW254979   8.027   7.410   8.934
51028SOL     OW54980   6.771   8.020  14.181
51028SOL    HW154981   6.761   8.102  14.229
51028SOL    HW254982   6.682   7.992  14.162
51029SOL     OW54983   7.619   7.976   2.139
51029SOL    HW154984   7.554   7.981   2.209
51029SOL    HW254985   7.677   7.905   2.164
51030SOL     OW54986   3.223   1.174   1.106
51030SOL    HW154987   3.170   1.181   1.026
51030SOL    HW254988   3.264   1.260   1.114
51031SOL     OW54989   7.352   7.896   5.961
51031SOL    HW154990   7.313   7.983   5.965
51031SOL    HW254991   7.297   7.848   5.899
51032SOL     OW54992  13.733   1.970   6.419
51032SOL    HW154993  13.821   2.003   6.401
51032SOL    HW254994  13.683   1.990   6.340
51033SOL     OW54995  11.279   6.349   8.353
51033SOL    HW154996  11.294   6.275   8.295
51033SOL    HW254997  11.189   6.340   8.382
51034SOL     OW54998   8.199   4.840   1.820
51034SOL    HW154999   8.219   4.825   1.912
51034SOL    HW255000   8.264   4.904   1.791
51035SOL     OW55001   7.963   3.190   6.730
51035SOL    HW155002   8.054   3.208   6.752
51035SOL    HW255003   7.967   3.119   6.666
51036SOL     OW55004  11.262   9.809  11.270
51036SOL    HW155005  11.305   9.824  11.187
51036SOL    HW255006  11.199   9.739  11.252
51037SOL     OW55007  14.075   8.452  13.187
51037SOL    HW155008  14.043   8.368  13.151
51037SOL    HW255009  14.092   8.434  13.279
51038SOL     OW55010  10.422   5.267  13.978
51038SOL    HW155011  10.397   5.194  13.921
51038SOL    HW255012  10.351   5.271  14.043
51039SOL     OW55013  13.299   2.511  13.639
51039SOL    HW155014  13.357   2.520  13.563
51039SOL    HW255015  13.221   2.562  13.616
51040SOL     OW55016   8.262  13.702   2.535
51040SOL    HW155017   8.203  13.627   2.534
51040SOL    HW255018   8.325  13.682   2.604
51041SOL     OW55019  11.191   6.690  11.529
51041SOL    HW155020  11.184   6.596  11.510
51041SOL    HW255021  11.202   6.694  11.624
51042SOL     OW55022   4.401  12.302   4.250
51042SOL    HW155023   4.444  12.377   4.292
51042SOL    HW255024   4.335  12.342   4.193
51043SOL     OW55025   6.196   1.469  12.825
51043SOL    HW155026   6.195   1.559  12.790
51043SOL    HW255027   6.127   1.468  12.891
51044SOL     OW55028  11.434  13.785   7.720
51044SOL    HW155029  11.505  13.726   7.696
51044SOL    HW255030  11.478  13.862   7.757
51045SOL     OW55031   0.072   3.961   3.192
51045SOL    HW155032   0.091   3.908   3.269
51045SOL    HW255033   0.034   3.900   3.129
51046SOL     OW55034  14.855   3.730   9.443
51046SOL    HW155035  14.782   3.668   9.451
51046SOL    HW255036   0.013   3.722   9.352
51047SOL     OW55037   2.888   3.835   8.486
51047SOL    HW155038   2.889   3.924   8.451
51047SOL    HW255039   2.980   3.808   8.486
51048SOL     OW55040   4.081   1.744  10.874
51048SOL    HW155041   4.000   1.767  10.919
51048SOL    HW255042   4.097   1.653  10.896
51049SOL     OW55043   4.487  12.830   8.957
51049SOL    HW155044   4.525  12.914   8.984
51049SOL    HW255045   4.562  12.769   8.957
51050SOL     OW55046  14.340   8.750  12.362
51050SOL    HW155047  14.255   8.715  12.391
51050SOL    HW255048  14.339   8.739  12.267
51051SOL     OW55049  12.877   7.464   0.341
51051SOL    HW155050  12.839   7.466   0.253
51051SOL    HW255051  12.841   7.541   0.385
51052SOL     OW55052  14.709   8.846   4.192
51052SOL    HW155053  14.651   8.774   4.167
51052SOL    HW255054  14.754   8.815   4.270
51053SOL     OW55055   9.668   1.394  10.436
51053SOL    HW155056   9.676   1.302  10.460
51053SOL    HW255057   9.753   1.417  10.398
51054SOL     OW55058  11.670  14.753  12.051
51054SOL    HW155059  11.638  14.705  12.127
51054SOL    HW255060  11.678  14.844  12.080
51055SOL     OW55061   4.742   9.524   5.790
51055SOL    HW155062   4.777   9.595   5.843
51055SOL    HW255063   4.754   9.553   5.700
51056SOL     OW55064  13.045  10.254  14.376
51056SOL    HW155065  13.006  10.284  14.294
51056SOL    HW255066  13.074  10.334  14.420
51057SOL     OW55067   4.581  12.218  14.866
51057SOL    HW155068   4.597  12.303  14.826
51057SOL    HW255069   4.525  12.237   0.071
51058SOL     OW55070   6.041   3.989   9.957
51058SOL    HW155071   5.967   3.944   9.999
51058SOL    HW255072   6.088   3.919   9.911
51059SOL     OW55073  13.018   9.172  11.912
51059SOL    HW155074  13.079   9.158  11.985
51059SOL    HW255075  12.974   9.254  11.934
51060SOL     OW55076  11.336  11.768   9.782
51060SOL    HW155077  11.296  11.760   9.695
51060SOL    HW255078  11.282  11.832   9.828
51061SOL     OW55079   9.573  10.105  13.309
51061SOL    HW155080   9.615  10.129  13.227
51061SOL    HW255081   9.636  10.047  13.352
51062SOL     OW55082   1.329   3.326  11.556
51062SOL    HW155083   1.319   3.344  11.649
51062SOL    HW255084   1.407   3.271  11.550
51063SOL     OW55085   8.325  11.892   2.877
51063SOL    HW155086   8.385  11.915   2.806
51063SOL    HW255087   8.380  11.844   2.940
51064SOL     OW55088   1.846  11.611   5.633
51064SOL    HW155089   1.930  11.578   5.663
51064SOL    HW255090   1.787  11.536   5.640
51065SOL     OW55091   2.202  14.498   3.991
51065SOL    HW155092   2.152  14.446   4.055
51065SOL    HW255093   2.206  14.443   3.913
51066SOL     OW55094  14.583   7.214   5.759
51066SOL    HW155095  14.677   7.196   5.765
51066SOL    HW255096  14.559   7.247   5.845
51067SOL     OW55097  10.664  11.368   2.266
51067SOL    HW155098  10.739  11.320   2.231
51067SOL    HW255099  10.592  11.348   2.206
51068SOL     OW55100   0.741   4.721   2.366
51068SOL    HW155101   0.774   4.802   2.404
51068SOL    HW255102   0.817   4.663   2.363
51069SOL     OW55103  12.516   9.421   5.300
51069SOL    HW155104  12.452   9.412   5.229
51069SOL    HW255105  12.468   9.466   5.369
51070SOL     OW55106   9.027   1.598   4.494
51070SOL    HW155107   9.031   1.544   4.573
51070SOL    HW255108   9.119   1.620   4.476
51071SOL     OW55109   5.080   3.860  10.777
51071SOL    HW155110   5.087   3.857  10.873
51071SOL    HW255111   5.169   3.879  10.747
51072SOL     OW55112   5.981  12.609  10.363
51072SOL    HW155113   6.056  12.668  10.352
51072SOL    HW255114   5.924  12.628  10.289
51073SOL     OW55115   9.795   1.227   4.249
51073SOL    HW155116   9.732   1.220   4.320
51073SOL    HW255117   9.800   1.320   4.229
51074SOL     OW55118  12.566  11.540   6.253
51074SOL    HW155119  12.576  11.465   6.193
51074SOL    HW255120  12.586  11.504   6.339
51075SOL     OW55121   3.800   1.121   3.420
51075SOL    HW155122   3.732   1.182   3.448
51075SOL    HW255123   3.761   1.074   3.346
51076SOL     OW55124  12.186   1.120   0.485
51076SOL    HW155125  12.201   1.076   0.569
51076SOL    HW255126  12.105   1.081   0.452
51077SOL     OW55127  11.218  14.500  11.931
51077SOL    HW155128  11.223  14.406  11.915
51077SOL    HW255129  11.284  14.517  11.998
51078SOL     OW55130   7.093   5.486  10.203
51078SOL    HW155131   7.034   5.532  10.264
51078SOL    HW255132   7.089   5.394  10.230
51079SOL     OW55133  13.902  11.933   6.428
51079SOL    HW155134  13.973  11.993   6.404
51079SOL    HW255135  13.837  11.944   6.358
51080SOL     OW55136   4.461   3.470   4.177
51080SOL    HW155137   4.528   3.403   4.187
51080SOL    HW255138   4.415   3.447   4.096
51081SOL     OW55139   8.764   6.937   1.566
51081SOL    HW155140   8.726   6.996   1.502
51081SOL    HW255141   8.789   6.993   1.640
51082SOL     OW55142   4.843   3.386  12.601
51082SOL    HW155143   4.923   3.341  12.572
51082SOL    HW255144   4.836   3.461  12.542
51083SOL     OW55145   3.251  14.437   2.887
51083SOL    HW155146   3.185  14.489   2.840
51083SOL    HW255147   3.218  14.431   2.976
51084SOL     OW55148   1.308  13.512   0.416
51084SOL    HW155149   1.389  13.558   0.439
51084SOL    HW255150   1.262  13.572   0.357
51085SOL     OW55151  12.223   4.600   5.309
51085SOL    HW155152  12.200   4.542   5.382
51085SOL    HW255153  12.233   4.687   5.350
51086SOL     OW55154   3.362   0.239   9.225
51086SOL    HW155155   3.371   0.226   9.130
51086SOL    HW255156   3.404   0.323   9.242
51087SOL     OW55157   8.389  13.078  14.491
51087SOL    HW155158   8.458  13.128  14.448
51087SOL    HW255159   8.326  13.059  14.421
51088SOL     OW55160   7.558  10.908   1.873
51088SOL    HW155161   7.613  10.850   1.925
51088SOL    HW255162   7.469  10.887   1.900
51089SOL     OW55163   4.816   1.523  14.351
51089SOL    HW155164   4.871   1.570  14.413
51089SOL    HW255165   4.841   1.557  14.265
51090SOL     OW55166  11.023  10.252   6.417
51090SOL    HW155167  11.011  10.291   6.331
51090SOL    HW255168  10.997  10.161   6.406
51091SOL     OW55169   4.372   7.018  13.495
51091SOL    HW155170   4.328   6.960  13.433
51091SOL    HW255171   4.302   7.064  13.540
51092SOL     OW55172   3.980  12.790   8.471
51092SOL    HW155173   4.050  12.822   8.415
51092SOL    HW255174   3.927  12.868   8.488
51093SOL     OW55175   8.411  11.895   2.592
51093SOL    HW155176   8.366  11.852   2.519
51093SOL    HW255177   8.476  11.830   2.621
51094SOL     OW55178   4.070   1.200   9.282
51094SOL    HW155179   4.124   1.276   9.304
51094SOL    HW255180   4.012   1.231   9.212
51095SOL     OW55181   4.343   0.826   2.895
51095SOL    HW155182   4.390   0.791   2.970
51095SOL    HW255183   4.371   0.773   2.821
51096SOL     OW55184   2.412  10.230  12.907
51096SOL    HW155185   2.348  10.302  12.905
51096SOL    HW255186   2.397  10.186  12.990
51097SOL     OW55187   2.291   0.950   9.363
51097SOL    HW155188   2.214   0.895   9.346
51097SOL    HW255189   2.254   1.033   9.392
51098SOL     OW55190  13.387   6.179  12.486
51098SOL    HW155191  13.413   6.130  12.565
51098SOL    HW255192  13.376   6.112  12.419
51099SOL     OW55193   0.418   0.520   3.523
51099SOL    HW155194   0.436   0.614   3.528
51099SOL    HW255195   0.498   0.479   3.556
51100SOL     OW55196  14.016   1.568   7.280
51100SOL    HW155197  14.021   1.546   7.187
51100SOL    HW255198  13.961   1.500   7.318
51101SOL     OW55199  13.628  10.260   2.072
51101SOL    HW155200  13.657  10.189   2.014
51101SOL    HW255201  13.555  10.223   2.120
51102SOL     OW55202   2.190   1.836   2.644
51102SOL    HW155203   2.184   1.915   2.590
51102SOL    HW255204   2.111   1.838   2.698
51103SOL     OW55205   3.692  10.879   9.150
51103SOL    HW155206   3.701  10.785   9.136
51103SOL    HW255207   3.597  10.893   9.161
51104SOL     OW55208  13.683   1.745   6.934
51104SOL    HW155209  13.733   1.803   6.992
51104SOL    HW255210  13.683   1.789   6.849
51105SOL     OW55211   6.283   5.638  13.828
51105SOL    HW155212   6.350   5.696  13.865
51105SOL    HW255213   6.243   5.597  13.905
51106SOL     OW55214   1.972   5.712  14.624
51106SOL    HW155215   2.052   5.721  14.573
51106SOL    HW255216   2.001   5.676  14.708
51107SOL     OW55217   3.381  13.594   7.823
51107SOL    HW155218   3.362  13.503   7.843
51107SOL    HW255219   3.362  13.641   7.903
51108SOL     OW55220  11.248  12.541  13.753
51108SOL    HW155221  11.197  12.583  13.684
51108SOL    HW255222  11.339  12.557  13.730
51109SOL     OW55223  10.214  14.664   8.411
51109SOL    HW155224  10.141  14.691   8.466
51109SOL    HW255225  10.252  14.747   8.379
51110SOL     OW55226   2.638   5.167   3.931
51110SOL    HW155227   2.666   5.110   4.002
51110SOL    HW255228   2.611   5.248   3.975
51111SOL     OW55229   9.568  14.802   0.392
51111SOL    HW155230   9.522   0.013   0.368
51111SOL    HW255231   9.659  14.817   0.366
51112SOL     OW55232   5.330   5.962   3.947
51112SOL    HW155233   5.244   5.976   3.987
51112SOL    HW255234   5.311   5.918   3.864
51113SOL     OW55235  10.489  14.864   9.737
51113SOL    HW155236  10.534  14.832   9.815
51113SOL    HW255237  10.453  14.786   9.696
51114SOL     OW55238   4.677   3.442   2.169
51114SOL    HW155239   4.759   3.440   2.219
51114SOL    HW255240   4.701   3.407   2.083
51115SOL     OW55241   4.476   2.554   8.652
51115SOL    HW155242   4.554   2.588   8.696
51115SOL    HW255243   4.420   2.630   8.640
51116SOL     OW55244  10.961   8.957   2.677
51116SOL    HW155245  10.880   8.946   2.727
51116SOL    HW255246  10.945   8.913   2.594
51117SOL     OW55247  12.785   6.314  13.253
51117SOL    HW155248  12.764   6.246  13.316
51117SOL    HW255249  12.708   6.371  13.252
51118SOL     OW55250  14.837   5.354   1.867
51118SOL    HW155251  14.825   5.449   1.865
51118SOL    HW255252   0.061   5.341   1.857
51119SOL     OW55253   0.195   2.559   6.908
51119SOL    HW155254   0.164   2.585   6.821
51119SOL    HW255255   0.188   2.638   6.961
51120SOL     OW55256   3.020  10.683   1.513
51120SOL    HW155257   3.035  10.631   1.593
51120SOL    HW255258   2.950  10.743   1.537
51121SOL     OW55259   2.723   0.843   3.898
51121SOL    HW155260   2.629   0.862   3.900
51121SOL    HW255261   2.760   0.895   3.969
51122SOL     OW55262   9.146  13.187   2.719
51122SOL    HW155263   9.233  13.216   2.743
51122SOL    HW255264   9.109  13.260   2.668
51123SOL     OW55265   6.140   7.674   8.987
51123SOL    HW155266   6.073   7.707   8.927
51123SOL    HW255267   6.132   7.579   8.983
51124SOL     OW55268   9.668   4.938   5.067
51124SOL    HW155269   9.591   4.894   5.032
51124SOL    HW255270   9.638   5.026   5.089
51125SOL     OW55271  11.482  11.238   8.252
51125SOL    HW155272  11.465  11.210   8.342
51125SOL    HW255273  11.569  11.204   8.232
51126SOL     OW55274   0.862   7.444   9.977
51126SOL    HW155275   0.793   7.384  10.008
51126SOL    HW255276   0.880   7.501  10.052
51127SOL     OW55277   6.179   9.610  13.992
51127SOL    HW155278   6.134   9.618  14.075
51127SOL    HW255279   6.264   9.652  14.006
51128SOL     OW55280  14.824   4.309   9.743
51128SOL    HW155281  14.793   4.296   9.654
51128SOL    HW255282  14.753   4.277   9.799
51129SOL     OW55283   1.604   1.353   2.879
51129SOL    HW155284   1.608   1.448   2.880
51129SOL    HW255285   1.647   1.326   2.960
51130SOL     OW55286   5.699   0.945  10.965
51130SOL    HW155287   5.744   1.021  11.002
51130SOL    HW255288   5.734   0.937  10.876
51131SOL     OW55289   0.559   6.830   0.791
51131SOL    HW155290   0.545   6.924   0.781
51131SOL    HW255291   0.619   6.822   0.865
51132SOL     OW55292   7.268   8.798   9.763
51132SOL    HW155293   7.234   8.727   9.709
51132SOL    HW255294   7.275   8.873   9.704
51133SOL     OW55295  14.102   2.680  13.477
51133SOL    HW155296  14.148   2.753  13.518
51133SOL    HW255297  14.048   2.721  13.409
51134SOL     OW55298   9.202  14.280  11.908
51134SOL    HW155299   9.177  14.208  11.965
51134SOL    HW255300   9.136  14.348  11.925
51135SOL     OW55301   3.388   0.611   5.065
51135SOL    HW155302   3.439   0.559   5.003
51135SOL    HW255303   3.453   0.650   5.123
51136SOL     OW55304   9.969   5.396   6.182
51136SOL    HW155305  10.012   5.393   6.096
51136SOL    HW255306   9.984   5.309   6.219
51137SOL     OW55307  14.363  13.215  14.221
51137SOL    HW155308  14.439  13.272  14.215
51137SOL    HW255309  14.300  13.264  14.273
51138SOL     OW55310   6.049   4.032   5.456
51138SOL    HW155311   5.981   3.967   5.439
51138SOL    HW255312   6.088   4.005   5.539
51139SOL     OW55313  14.277   0.820   1.770
51139SOL    HW155314  14.196   0.782   1.735
51139SOL    HW255315  14.266   0.914   1.761
51140SOL     OW55316   1.555   3.967  14.037
51140SOL    HW155317   1.603   3.922  14.107
51140SOL    HW255318   1.596   3.935  13.956
51141SOL     OW55319   7.295   9.189   6.417
51141SOL    HW155320   7.294   9.283   6.398
51141SOL    HW255321   7.370   9.155   6.368
51142SOL     OW55322   2.171   2.939   3.535
51142SOL    HW155323   2.252   2.922   3.583
51142SOL    HW255324   2.181   3.028   3.501
51143SOL     OW55325   7.373   7.462   6.606
51143SOL    HW155326   7.352   7.387   6.551
51143SOL    HW255327   7.304   7.526   6.588
51144SOL     OW55328   0.256   9.242  14.256
51144SOL    HW155329   0.165   9.253  14.284
51144SOL    HW255330   0.251   9.179  14.184
51145SOL     OW55331  12.257   7.166   6.700
51145SOL    HW155332  12.329   7.229   6.709
51145SOL    HW255333  12.198   7.205   6.636
51146SOL     OW55334  11.582  13.633   8.297
51146SOL    HW155335  11.592  13.620   8.391
51146SOL    HW255336  11.653  13.692   8.273
51147SOL     OW55337   8.745  13.644   4.506
51147SOL    HW155338   8.663  13.595   4.495
51147SOL    HW255339   8.734  13.722   4.451
51148SOL     OW55340   7.282   8.669  12.933
51148SOL    HW155341   7.216   8.633  12.873
51148SOL    HW255342   7.263   8.628  13.017
51149SOL     OW55343   2.431   3.140  10.917
51149SOL    HW155344   2.504   3.155  10.857
51149SOL    HW255345   2.415   3.226  10.956
51150SOL     OW55346  13.793   6.768   7.023
51150SOL    HW155347  13.825   6.843   6.975
51150SOL    HW255348  13.866   6.706   7.022
51151SOL     OW55349   8.340   8.950  13.118
51151SOL    HW155350   8.336   8.865  13.163
51151SOL    HW255351   8.249   8.976  13.108
51152SOL     OW55352   8.185  10.380   5.648
51152SOL    HW155353   8.231  10.450   5.601
51152SOL    HW255354   8.245  10.306   5.645
51153SOL     OW55355   4.448   2.547   7.683
51153SOL    HW155356   4.365   2.587   7.710
51153SOL    HW255357   4.434   2.521   7.592
51154SOL     OW55358   8.735   9.872   0.793
51154SOL    HW155359   8.670   9.807   0.765
51154SOL    HW255360   8.763   9.842   0.879
51155SOL     OW55361   9.690  12.049  13.124
51155SOL    HW155362   9.725  12.128  13.167
51155SOL    HW255363   9.751  11.980  13.150
51156SOL     OW55364   5.629   3.682   3.649
51156SOL    HW155365   5.688   3.639   3.710
51156SOL    HW255366   5.649   3.775   3.658
51157SOL     OW55367   2.552  10.944   6.932
51157SOL    HW155368   2.577  10.965   7.021
51157SOL    HW255369   2.618  10.881   6.902
51158SOL     OW55370   4.321  13.729  12.280
51158SOL    HW155371   4.239  13.702  12.239
51158SOL    HW255372   4.347  13.654  12.333
51159SOL     OW55373  10.377  14.738  13.349
51159SOL    HW155374  10.466  14.704  13.358
51159SOL    HW255375  10.382  14.827  13.384
51160SOL     OW55376  14.549   4.475   0.036
51160SOL    HW155377  14.541   4.388   0.076
51160SOL    HW255378  14.502   4.468  14.822
51161SOL     OW55379  13.430   7.497   3.335
51161SOL    HW155380  13.393   7.581   3.307
51161SOL    HW255381  13.363   7.459   3.393
51162SOL     OW55382   2.380  10.047  12.224
51162SOL    HW155383   2.311   9.994  12.265
51162SOL    HW255384   2.461  10.018  12.267
51163SOL     OW55385   8.729   4.391  11.976
51163SOL    HW155386   8.749   4.300  11.952
51163SOL    HW255387   8.702   4.432  11.894
51164SOL     OW55388   9.397   3.717  10.179
51164SOL    HW155389   9.455   3.643  10.166
51164SOL    HW255390   9.386   3.754  10.091
51165SOL     OW55391  12.324  13.539   0.413
51165SOL    HW155392  12.292  13.626   0.436
51165SOL    HW255393  12.403  13.527   0.466
51166SOL     OW55394  11.605   8.355   9.138
51166SOL    HW155395  11.512   8.335   9.138
51166SOL    HW255396  11.624   8.382   9.228
51167SOL     OW55397  10.934  10.435   4.448
51167SOL    HW155398  11.004  10.499   4.434
51167SOL    HW255399  10.978  10.350   4.445
51168SOL     OW55400  11.964  13.497   6.133
51168SOL    HW155401  12.056  13.498   6.104
51168SOL    HW255402  11.919  13.555   6.071
51169SOL     OW55403   2.515  13.765  14.624
51169SOL    HW155404   2.448  13.797  14.685
51169SOL    HW255405   2.581  13.723  14.680
51170SOL     OW55406   0.107   3.848  11.828
51170SOL    HW155407   0.194   3.874  11.861
51170SOL    HW255408   0.048   3.915  11.862
51171SOL     OW55409   8.258  10.421  13.288
51171SOL    HW155410   8.304  10.501  13.262
51171SOL    HW255411   8.193  10.407  13.220
51172SOL     OW55412   4.629   7.773   5.717
51172SOL    HW155413   4.577   7.835   5.768
51172SOL    HW255414   4.652   7.821   5.637
51173SOL     OW55415  11.125   9.264  13.215
51173SOL    HW155416  11.165   9.351  13.217
51173SOL    HW255417  11.032   9.281  13.203
51174SOL     OW55418   2.749  11.617   7.595
51174SOL    HW155419   2.688  11.687   7.619
51174SOL    HW255420   2.820  11.624   7.659
51175SOL     OW55421   2.914  12.522  10.721
51175SOL    HW155422   2.871  12.565  10.647
51175SOL    HW255423   2.990  12.478  10.682
51176SOL     OW55424   9.427  14.715   4.378
51176SOL    HW155425   9.449  14.799   4.338
51176SOL    HW255426   9.495  14.703   4.445
51177SOL     OW55427   2.581   9.364   3.541
51177SOL    HW155428   2.544   9.452   3.548
51177SOL    HW255429   2.617   9.360   3.452
51178SOL     OW55430   9.714   5.604  11.584
51178SOL    HW155431   9.728   5.552  11.505
51178SOL    HW255432   9.641   5.662  11.562
51179SOL     OW55433  12.649   9.434   4.108
51179SOL    HW155434  12.661   9.457   4.016
51179SOL    HW255435  12.696   9.351   4.118
51180SOL     OW55436   6.220   6.270   2.099
51180SOL    HW155437   6.233   6.352   2.146
51180SOL    HW255438   6.283   6.210   2.138
51181SOL     OW55439   6.566   4.997   8.222
51181SOL    HW155440   6.531   4.938   8.289
51181SOL    HW255441   6.650   5.026   8.257
51182SOL     OW55442   9.017   1.122  11.954
51182SOL    HW155443   8.938   1.141  11.904
51182SOL    HW255444   9.003   1.165  12.039
51183SOL     OW55445  10.610   9.150   9.199
51183SOL    HW155446  10.658   9.136   9.117
51183SOL    HW255447  10.537   9.089   9.195
51184SOL     OW55448  13.683  13.582  11.594
51184SOL    HW155449  13.605  13.526  11.597
51184SOL    HW255450  13.685  13.614  11.504
51185SOL     OW55451   1.254   3.659  13.007
51185SOL    HW155452   1.307   3.590  13.046
51185SOL    HW255453   1.296   3.741  13.035
51186SOL     OW55454   9.972  11.448  10.128
51186SOL    HW155455   9.877  11.460  10.136
51186SOL    HW255456   9.999  11.416  10.214
51187SOL     OW55457   7.586   2.295   4.607
51187SOL    HW155458   7.531   2.326   4.680
51187SOL    HW255459   7.593   2.371   4.549
51188SOL     OW55460   7.209   0.484   8.307
51188SOL    HW155461   7.286   0.533   8.338
51188SOL    HW255462   7.223   0.475   8.213
51189SOL     OW55463   4.776   1.616   6.395
51189SOL    HW155464   4.691   1.583   6.369
51189SOL    HW255465   4.787   1.698   6.345
51190SOL     OW55466  10.287  14.271   2.713
51190SOL    HW155467  10.241  14.306   2.789
51190SOL    HW255468  10.230  14.201   2.680
51191SOL     OW55469   7.979   0.390   9.443
51191SOL    HW155470   8.030   0.462   9.407
51191SOL    HW255471   8.043   0.323   9.465
51192SOL     OW55472   8.788   7.765  11.337
51192SOL    HW155473   8.783   7.782  11.431
51192SOL    HW255474   8.697   7.765  11.308
51193SOL     OW55475   2.893  14.557   1.887
51193SOL    HW155476   2.844  14.607   1.822
51193SOL    HW255477   2.883  14.608   1.968
51194SOL     OW55478   7.828   2.877  14.686
51194SOL    HW155479   7.866   2.931  14.617
51194SOL    HW255480   7.735   2.901  14.687
51195SOL     OW55481  10.120   8.185   4.615
51195SOL    HW155482  10.175   8.243   4.667
51195SOL    HW255483  10.140   8.097   4.646
51196SOL     OW55484  12.239   9.867   2.914
51196SOL    HW155485  12.330   9.880   2.886
51196SOL    HW255486  12.247   9.831   3.002
51197SOL     OW55487   5.867  10.914  10.349
51197SOL    HW155488   5.831  10.938  10.434
51197SOL    HW255489   5.838  10.983  10.290
51198SOL     OW55490   4.379   0.450  13.053
51198SOL    HW155491   4.297   0.468  13.007
51198SOL    HW255492   4.442   0.509  13.013
51199SOL     OW55493  12.099   5.495   6.150
51199SOL    HW155494  12.057   5.501   6.236
51199SOL    HW255495  12.074   5.409   6.117
51200SOL     OW55496   8.153   6.787   3.482
51200SOL    HW155497   8.152   6.764   3.389
51200SOL    HW255498   8.246   6.801   3.502
51201SOL     OW55499  14.186   4.952   0.369
51201SOL    HW155500  14.116   4.905   0.326
51201SOL    HW255501  14.208   4.899   0.446
51202SOL     OW55502   6.260   8.234  11.308
51202SOL    HW155503   6.232   8.178  11.381
51202SOL    HW255504   6.277   8.174  11.236
51203SOL     OW55505  14.097   0.104   7.598
51203SOL    HW155506  14.101   0.043   7.672
51203SOL    HW255507  14.023   0.074   7.546
51204SOL     OW55508   2.237   9.809   8.980
51204SOL    HW155509   2.299   9.879   9.001
51204SOL    HW255510   2.228   9.759   9.061
51205SOL     OW55511  13.500   0.032   9.869
51205SOL    HW155512  13.491   0.081   9.951
51205SOL    HW255513  13.523   0.098   9.804
51206SOL     OW55514   9.961   8.708   4.079
51206SOL    HW155515  10.026   8.653   4.035
51206SOL    HW255516   9.904   8.647   4.125
51207SOL     OW55517  13.005   5.437  12.111
51207SOL    HW155518  12.979   5.392  12.191
51207SOL    HW255519  12.922   5.458  12.068
51208SOL     OW55520   8.307  14.433   6.563
51208SOL    HW155521   8.321  14.509   6.619
51208SOL    HW255522   8.224  14.396   6.593
51209SOL     OW55523  12.270  12.762  13.716
51209SOL    HW155524  12.243  12.853  13.712
51209SOL    HW255525  12.248  12.727  13.629
51210SOL     OW55526   8.915   8.884   8.437
51210SOL    HW155527   8.921   8.958   8.377
51210SOL    HW255528   8.933   8.922   8.523
51211SOL     OW55529   3.494   5.288   0.185
51211SOL    HW155530   3.435   5.216   0.167
51211SOL    HW255531   3.479   5.310   0.277
51212SOL     OW55532   3.256   8.683   1.327
51212SOL    HW155533   3.278   8.678   1.234
51212SOL    HW255534   3.194   8.756   1.333
51213SOL     OW55535   0.420   2.645   1.992
51213SOL    HW155536   0.421   2.587   1.916
51213SOL    HW255537   0.418   2.733   1.956
51214SOL     OW55538   9.685   9.694   1.644
51214SOL    HW155539   9.698   9.771   1.588
51214SOL    HW255540   9.771   9.653   1.649
51215SOL     OW55541   8.921  12.167   9.012
51215SOL    HW155542   8.901  12.184   8.920
51215SOL    HW255543   9.008  12.128   9.011
51216SOL     OW55544   5.528   6.917  10.045
51216SOL    HW155545   5.446   6.892  10.002
51216SOL    HW255546   5.595   6.900   9.979
51217SOL     OW55547  11.528  13.829  11.605
51217SOL    HW155548  11.617  13.803  11.627
51217SOL    HW255549  11.476  13.804  11.682
51218SOL     OW55550   4.529   1.040  11.394
51218SOL    HW155551   4.452   0.984  11.404
51218SOL    HW255552   4.536   1.056  11.300
51219SOL     OW55553  10.503   7.223  10.063
51219SOL    HW155554  10.571   7.194  10.123
51219SOL    HW255555  10.421   7.206  10.109
51220SOL     OW55556  10.779   9.820   8.689
51220SOL    HW155557  10.849   9.756   8.678
51220SOL    HW255558  10.699   9.773   8.664
51221SOL     OW55559   4.096   9.306   4.503
51221SOL    HW155560   4.114   9.399   4.512
51221SOL    HW255561   4.005   9.301   4.474
51222SOL     OW55562   8.657  11.922   4.164
51222SOL    HW155563   8.751  11.933   4.149
51222SOL    HW255564   8.617  11.941   4.080
51223SOL     OW55565   4.729   3.525   3.354
51223SOL    HW155566   4.731   3.620   3.363
51223SOL    HW255567   4.795   3.506   3.287
51224SOL     OW55568   0.625   1.137  13.370
51224SOL    HW155569   0.583   1.073  13.427
51224SOL    HW255570   0.711   1.151  13.409
51225SOL     OW55571   7.808   1.471   3.455
51225SOL    HW155572   7.901   1.468   3.476
51225SOL    HW255573   7.782   1.562   3.472
51226SOL     OW55574  11.046   7.605   6.719
51226SOL    HW155575  10.990   7.606   6.641
51226SOL    HW255576  11.120   7.659   6.696
51227SOL     OW55577  12.877   8.743   1.622
51227SOL    HW155578  12.876   8.650   1.600
51227SOL    HW255579  12.827   8.784   1.551
51228SOL     OW55580   8.611  12.469  14.146
51228SOL    HW155581   8.700  12.488  14.114
51228SOL    HW255582   8.617  12.381  14.182
51229SOL     OW55583  13.950   6.684  14.849
51229SOL    HW155584  13.942   6.601  14.802
51229SOL    HW255585  14.044   6.694  14.864
51230SOL     OW55586   5.194   8.016  14.188
51230SOL    HW155587   5.178   8.067  14.267
51230SOL    HW255588   5.132   8.051  14.124
51231SOL     OW55589   6.896   6.878  12.293
51231SOL    HW155590   6.962   6.894  12.226
51231SOL    HW255591   6.933   6.808  12.347
51232SOL     OW55592   2.059  11.338   7.762
51232SOL    HW155593   2.046  11.252   7.801
51232SOL    HW255594   2.039  11.326   7.670
51233SOL     OW55595  13.998   2.703   3.192
51233SOL    HW155596  13.958   2.618   3.174
51233SOL    HW255597  13.964   2.761   3.124
51234SOL     OW55598   3.362   6.115   2.289
51234SOL    HW155599   3.393   6.191   2.240
51234SOL    HW255600   3.323   6.152   2.368
51235SOL     OW55601   0.600   9.873   4.636
51235SOL    HW155602   0.628   9.812   4.568
51235SOL    HW255603   0.615   9.825   4.718
51236SOL     OW55604  14.582   4.224   0.122
51236SOL    HW155605  14.676   4.232   0.136
51236SOL    HW255606  14.573   4.190   0.033
51237SOL     OW55607  13.250  14.334   1.490
51237SOL    HW155608  13.185  14.400   1.467
51237SOL    HW255609  13.205  14.276   1.551
51238SOL     OW55610   6.861   1.113   3.909
51238SOL    HW155611   6.873   1.207   3.908
51238SOL    HW255612   6.785   1.098   3.853
51239SOL     OW55613  14.407   2.478   6.720
51239SOL    HW155614  14.391   2.537   6.794
51239SOL    HW255615  14.359   2.518   6.647
51240SOL     OW55616   2.460   2.448  10.697
51240SOL    HW155617   2.476   2.370  10.751
51240SOL    HW255618   2.367   2.468  10.712
51241SOL     OW55619   8.811   0.873   0.837
51241SOL    HW155620   8.820   0.837   0.925
51241SOL    HW255621   8.873   0.946   0.834
51242SOL     OW55622   6.819   2.617   8.278
51242SOL    HW155623   6.823   2.691   8.339
51242SOL    HW255624   6.783   2.654   8.198
51243SOL     OW55625  12.988  11.036   7.607
51243SOL    HW155626  13.038  11.107   7.647
51243SOL    HW255627  13.024  11.028   7.519
51244SOL     OW55628   9.463   8.552  12.245
51244SOL    HW155629   9.526   8.624  12.255
51244SOL    HW255630   9.419   8.570  12.162
51245SOL     OW55631   4.404   1.691  13.267
51245SOL    HW155632   4.428   1.752  13.337
51245SOL    HW255633   4.459   1.614  13.283
51246SOL     OW55634  14.400   6.394   7.064
51246SOL    HW155635  14.355   6.394   7.148
51246SOL    HW255636  14.330   6.381   7.000
51247SOL     OW55637   3.221   6.078  11.758
51247SOL    HW155638   3.253   6.034  11.679
51247SOL    HW255639   3.291   6.139  11.781
51248SOL     OW55640  10.673  12.653   9.008
51248SOL    HW155641  10.696  12.721   8.944
51248SOL    HW255642  10.607  12.600   8.963
51249SOL     OW55643   7.729   0.055  11.730
51249SOL    HW155644   7.794   0.124  11.721
51249SOL    HW255645   7.741   0.001  11.651
51250SOL     OW55646   0.819   3.405  10.135
51250SOL    HW155647   0.783   3.318  10.120
51250SOL    HW255648   0.743   3.462  10.144
51251SOL     OW55649   5.023  13.266   5.006
51251SOL    HW155650   5.088  13.229   5.067
51251SOL    HW255651   5.073  13.327   4.952
51252SOL     OW55652  14.211   7.057  13.693
51252SOL    HW155653  14.305   7.042  13.693
51252SOL    HW255654  14.175   6.985  13.641
51253SOL     OW55655   9.470   9.393  12.251
51253SOL    HW155656   9.511   9.398  12.337
51253SOL    HW255657   9.530   9.342  12.197
51254SOL     OW55658   0.976  13.829  12.303
51254SOL    HW155659   0.921  13.842  12.226
51254SOL    HW255660   1.032  13.907  12.306
51255SOL     OW55661   2.076  13.256   5.029
51255SOL    HW155662   2.045  13.219   4.946
51255SOL    HW255663   2.109  13.342   5.006
51256SOL     OW55664   1.951  13.386  14.655
51256SOL    HW155665   1.985  13.422  14.737
51256SOL    HW255666   2.019  13.404  14.590
51257SOL     OW55667  13.218  10.876  10.222
51257SOL    HW155668  13.208  10.912  10.311
51257SOL    HW255669  13.233  10.953  10.167
51258SOL     OW55670  13.459   8.673   5.358
51258SOL    HW155671  13.452   8.764   5.330
51258SOL    HW255672  13.538   8.640   5.315
51259SOL     OW55673  11.174   7.979   1.197
51259SOL    HW155674  11.086   8.003   1.169
51259SOL    HW255675  11.227   7.985   1.118
51260SOL     OW55676  12.581  13.884   6.754
51260SOL    HW155677  12.506  13.828   6.774
51260SOL    HW255678  12.571  13.904   6.661
51261SOL     OW55679  13.917   7.010   9.942
51261SOL    HW155680  13.833   7.003   9.986
51261SOL    HW255681  13.977   6.959   9.996
51262SOL     OW55682  10.972   3.782  12.424
51262SOL    HW155683  10.990   3.790  12.517
51262SOL    HW255684  10.977   3.872  12.391
51263SOL     OW55685   7.813   7.007  11.100
51263SOL    HW155686   7.851   7.089  11.068
51263SOL    HW255687   7.818   6.947  11.025
51264SOL     OW55688   8.916  10.838   0.605
51264SOL    HW155689   8.840  10.790   0.574
51264SOL    HW255690   8.953  10.783   0.674
51265SOL     OW55691   4.429  12.406   2.803
51265SOL    HW155692   4.501  12.356   2.841
51265SOL    HW255693   4.418  12.369   2.716
51266SOL     OW55694   5.900  11.014   2.250
51266SOL    HW155695   5.970  11.016   2.315
51266SOL    HW255696   5.820  11.009   2.302
51267SOL     OW55697  14.527  13.723   0.265
51267SOL    HW155698  14.521  13.811   0.300
51267SOL    HW255699  14.552  13.669   0.340
51268SOL     OW55700   0.165  12.560   2.183
51268SOL    HW155701   0.127  12.472   2.179
51268SOL    HW255702   0.258  12.546   2.199
51269SOL     OW55703   1.884   1.949  13.464
51269SOL    HW155704   1.956   1.924  13.406
51269SOL    HW255705   1.854   2.033  13.429
51270SOL     OW55706   0.553  10.042   2.487
51270SOL    HW155707   0.498  10.118   2.470
51270SOL    HW255708   0.492   9.974   2.514
51271SOL     OW55709  10.947   2.606  12.540
51271SOL    HW155710  11.026   2.655  12.561
51271SOL    HW255711  10.938   2.543  12.612
51272SOL     OW55712  12.889   7.411   0.712
51272SOL    HW155713  12.875   7.339   0.651
51272SOL    HW255714  12.801   7.446   0.729
51273SOL     OW55715   2.421   6.861   0.581
51273SOL    HW155716   2.491   6.819   0.629
51273SOL    HW255717   2.415   6.812   0.499
51274SOL     OW55718   7.766   9.866   3.699
51274SOL    HW155719   7.828   9.901   3.635
51274SOL    HW255720   7.704   9.815   3.647
51275SOL     OW55721   9.433  11.431   5.083
51275SOL    HW155722   9.527  11.415   5.083
51275SOL    HW255723   9.409  11.433   4.990
51276SOL     OW55724  10.104   3.727   3.228
51276SOL    HW155725  10.088   3.654   3.288
51276SOL    HW255726  10.165   3.784   3.275
51277SOL     OW55727   3.155  10.576  11.187
51277SOL    HW155728   3.241  10.557  11.150
51277SOL    HW255729   3.093  10.550  11.119
51278SOL     OW55730  13.452  14.784   0.771
51278SOL    HW155731  13.443  14.800   0.677
51278SOL    HW255732  13.527  14.838   0.797
51279SOL     OW55733   8.641  11.159  12.799
51279SOL    HW155734   8.662  11.142  12.891
51279SOL    HW255735   8.719  11.204  12.765
51280SOL     OW55736   1.290   5.291   5.685
51280SOL    HW155737   1.197   5.313   5.681
51280SOL    HW255738   1.331   5.367   5.726
51281SOL     OW55739  10.500   1.505   3.168
51281SOL    HW155740  10.574   1.488   3.109
51281SOL    HW255741  10.539   1.550   3.243
51282SOL     OW55742   4.420   4.410   6.580
51282SOL    HW155743   4.337   4.386   6.538
51282SOL    HW255744   4.479   4.337   6.561
51283SOL     OW55745   2.371   9.029   2.835
51283SOL    HW155746   2.339   8.938   2.837
51283SOL    HW255747   2.293   9.082   2.844
51284SOL     OW55748  12.268  14.863  13.867
51284SOL    HW155749  12.321  14.789  13.899
51284SOL    HW255750  12.216   0.020  13.943
51285SOL     OW55751  13.406   8.701   0.329
51285SOL    HW155752  13.425   8.722   0.238
51285SOL    HW255753  13.397   8.786   0.372
51286SOL     OW55754  11.763   3.791   0.566
51286SOL    HW155755  11.815   3.770   0.488
51286SOL    HW255756  11.677   3.814   0.531
51287SOL     OW55757   7.712   3.887  14.147
51287SOL    HW155758   7.744   3.911  14.234
51287SOL    HW255759   7.617   3.896  14.152
51288SOL     OW55760   4.133   4.848  12.305
51288SOL    HW155761   4.114   4.890  12.221
51288SOL    HW255762   4.078   4.770  12.306
51289SOL     OW55763  13.825   6.413   1.513
51289SOL    HW155764  13.769   6.383   1.585
51289SOL    HW255765  13.886   6.340   1.499
51290SOL     OW55766   3.699   7.232   6.113
51290SOL    HW155767   3.670   7.215   6.024
51290SOL    HW255768   3.635   7.186   6.168
51291SOL     OW55769   7.036  14.858   1.475
51291SOL    HW155770   7.006   0.038   1.399
51291SOL    HW255771   7.049   0.054   1.543
51292SOL     OW55772   7.425   4.284   5.324
51292SOL    HW155773   7.414   4.266   5.230
51292SOL    HW255774   7.404   4.201   5.367
51293SOL     OW55775  11.602  11.310   5.002
51293SOL    HW155776  11.638  11.325   4.915
51293SOL    HW255777  11.611  11.216   5.017
51294SOL     OW55778  12.758  10.883  14.088
51294SOL    HW155779  12.665  10.871  14.110
51294SOL    HW255780  12.792  10.939  14.158
51295SOL     OW55781  11.693   4.635   5.869
51295SOL    HW155782  11.674   4.567   5.805
51295SOL    HW255783  11.623   4.699   5.857
51296SOL     OW55784  11.494   1.403   2.996
51296SOL    HW155785  11.434   1.378   3.066
51296SOL    HW255786  11.502   1.324   2.942
51297SOL     OW55787   0.125   2.103   4.965
51297SOL    HW155788   0.096   2.015   4.988
51297SOL    HW255789   0.174   2.091   4.884
51298SOL     OW55790  14.010   1.843  12.389
51298SOL    HW155791  14.085   1.897  12.416
51298SOL    HW255792  14.045   1.784  12.322
51299SOL     OW55793  12.701  12.437  13.971
51299SOL    HW155794  12.790  12.470  13.963
51299SOL    HW255795  12.646  12.515  13.965
51300SOL     OW55796   8.228  10.704   0.691
51300SOL    HW155797   8.249  10.620   0.650
51300SOL    HW255798   8.259  10.769   0.628
51301SOL     OW55799  11.525   8.773   3.725
51301SOL    HW155800  11.473   8.817   3.793
51301SOL    HW255801  11.475   8.787   3.644
51302SOL     OW55802  13.179   5.617  11.937
51302SOL    HW155803  13.139   5.567  12.008
51302SOL    HW255804  13.119   5.690  11.923
51303SOL     OW55805   9.591   9.916   7.781
51303SOL    HW155806   9.519   9.978   7.768
51303SOL    HW255807   9.663   9.953   7.729
51304SOL     OW55808   5.963   6.566   4.744
51304SOL    HW155809   5.936   6.563   4.836
51304SOL    HW255810   5.928   6.486   4.706
51305SOL     OW55811  12.805  13.885   1.357
51305SOL    HW155812  12.729  13.856   1.407
51305SOL    HW255813  12.872  13.820   1.375
51306SOL     OW55814   5.398   6.451   1.349
51306SOL    HW155815   5.473   6.507   1.328
51306SOL    HW255816   5.336   6.510   1.394
51307SOL     OW55817  11.644   7.975  12.318
51307SOL    HW155818  11.604   7.907  12.264
51307SOL    HW255819  11.589   8.053  12.303
51308SOL     OW55820  11.917   8.351  13.168
51308SOL    HW155821  11.897   8.401  13.247
51308SOL    HW255822  11.857   8.277  13.170
51309SOL     OW55823   9.502   1.132  13.995
51309SOL    HW155824   9.551   1.050  14.006
51309SOL    HW255825   9.435   1.129  14.063
51310SOL     OW55826   7.315   5.473  10.404
51310SOL    HW155827   7.368   5.415  10.350
51310SOL    HW255828   7.324   5.559  10.363
51311SOL     OW55829  10.769   0.442   1.977
51311SOL    HW155830  10.767   0.537   1.966
51311SOL    HW255831  10.794   0.409   1.891
51312SOL     OW55832  14.453   4.755   0.968
51312SOL    HW155833  14.409   4.727   0.887
51312SOL    HW255834  14.429   4.688   1.032
51313SOL     OW55835  12.897   2.156  13.557
51313SOL    HW155836  12.874   2.064  13.541
51313SOL    HW255837  12.933   2.187  13.474
51314SOL     OW55838   8.932  10.364   8.560
51314SOL    HW155839   8.903  10.316   8.482
51314SOL    HW255840   8.974  10.443   8.526
51315SOL     OW55841  10.626   8.210   1.057
51315SOL    HW155842  10.718   8.231   1.070
51315SOL    HW255843  10.579   8.272   1.112
51316SOL     OW55844   7.731   6.575   9.950
51316SOL    HW155845   7.673   6.501   9.931
51316SOL    HW255846   7.714   6.638   9.880
51317SOL     OW55847  10.089   5.101   2.577
51317SOL    HW155848  10.152   5.161   2.537
51317SOL    HW255849  10.038   5.155   2.636
51318SOL     OW55850  11.869  11.070  10.415
51318SOL    HW155851  11.915  11.060  10.332
51318SOL    HW255852  11.928  11.123  10.468
51319SOL     OW55853  13.423   3.423  14.383
51319SOL    HW155854  13.368   3.443  14.458
51319SOL    HW255855  13.484   3.356  14.415
51320SOL     OW55856  11.857   7.450   1.426
51320SOL    HW155857  11.940   7.419   1.461
51320SOL    HW255858  11.874   7.540   1.400
51321SOL     OW55859  11.685   5.074  14.761
51321SOL    HW155860  11.754   5.112  14.816
51321SOL    HW255861  11.611   5.062  14.821
51322SOL     OW55862  12.347   5.579  11.810
51322SOL    HW155863  12.327   5.533  11.891
51322SOL    HW255864  12.388   5.513  11.754
51323SOL     OW55865   2.203   0.612  14.239
51323SOL    HW155866   2.238   0.559  14.166
51323SOL    HW255867   2.119   0.571  14.260
51324SOL     OW55868   6.816   5.649   8.783
51324SOL    HW155869   6.749   5.586   8.758
51324SOL    HW255870   6.898   5.599   8.780
51325SOL     OW55871  14.209   8.311  14.164
51325SOL    HW155872  14.251   8.352  14.088
51325SOL    HW255873  14.269   8.241  14.190
51326SOL     OW55874   9.676  11.143   6.814
51326SOL    HW155875   9.678  11.190   6.731
51326SOL    HW255876   9.762  11.101   6.820
51327SOL     OW55877   5.986   6.855   9.901
51327SOL    HW155878   6.039   6.886   9.974
51327SOL    HW255879   6.036   6.781   9.866
51328SOL     OW55880   1.038   7.080   1.816
51328SOL    HW155881   1.064   7.011   1.755
51328SOL    HW255882   0.946   7.061   1.836
51329SOL     OW55883   9.993   1.359   9.598
51329SOL    HW155884   9.958   1.388   9.514
51329SOL    HW255885  10.069   1.414   9.614
51330SOL     OW55886   4.778  13.649   9.672
51330SOL    HW155887   4.686  13.625   9.685
51330SOL    HW255888   4.780  13.687   9.584
51331SOL     OW55889  13.993   8.272   6.332
51331SOL    HW155890  14.085   8.288   6.313
51331SOL    HW255891  13.971   8.336   6.400
51332SOL     OW55892  14.510   8.097   3.831
51332SOL    HW155893  14.568   8.033   3.871
51332SOL    HW255894  14.425   8.080   3.871
51333SOL     OW55895  14.481  13.897  12.152
51333SOL    HW155896  14.510  13.812  12.185
51333SOL    HW255897  14.389  13.902  12.177
51334SOL     OW55898   2.811   2.105   8.367
51334SOL    HW155899   2.754   2.154   8.308
51334SOL    HW255900   2.854   2.171   8.421
51335SOL     OW55901   8.332   6.011   0.274
51335SOL    HW155902   8.297   5.937   0.225
51335SOL    HW255903   8.422   6.021   0.243
51336SOL     OW55904   7.184  10.626   3.006
51336SOL    HW155905   7.216  10.635   2.916
51336SOL    HW255906   7.132  10.546   3.005
51337SOL     OW55907   3.698   1.421   0.073
51337SOL    HW155908   3.766   1.489   0.079
51337SOL    HW255909   3.742   1.341   0.103
51338SOL     OW55910  11.910   8.781   4.978
51338SOL    HW155911  11.925   8.875   4.971
51338SOL    HW255912  11.822   8.768   4.944
51339SOL     OW55913   6.884  14.627   1.380
51339SOL    HW155914   6.810  14.615   1.439
51339SOL    HW255915   6.938  14.694   1.422
51340SOL     OW55916   7.469  14.135   1.668
51340SOL    HW155917   7.517  14.054   1.648
51340SOL    HW255918   7.527  14.205   1.641
51341SOL     OW55919   9.668  14.265   6.119
51341SOL    HW155920   9.702  14.276   6.208
51341SOL    HW255921   9.646  14.173   6.112
51342SOL     OW55922   3.425   9.532  12.379
51342SOL    HW155923   3.518   9.513  12.393
51342SOL    HW255924   3.379   9.469  12.434
51343SOL     OW55925   7.515   6.253   9.381
51343SOL    HW155926   7.440   6.308   9.359
51343SOL    HW255927   7.487   6.204   9.458
51344SOL     OW55928   5.911   7.414   6.306
51344SOL    HW155929   5.929   7.345   6.242
51344SOL    HW255930   5.815   7.424   6.304
51345SOL     OW55931   7.382   8.389   0.773
51345SOL    HW155932   7.305   8.414   0.722
51345SOL    HW255933   7.351   8.386   0.864
51346SOL     OW55934  10.133  10.356   3.394
51346SOL    HW155935  10.156  10.281   3.449
51346SOL    HW255936  10.194  10.350   3.320
51347SOL     OW55937  12.557  14.510   4.155
51347SOL    HW155938  12.493  14.532   4.088
51347SOL    HW255939  12.639  14.549   4.125
51348SOL     OW55940   4.500  13.490   8.830
51348SOL    HW155941   4.574  13.539   8.866
51348SOL    HW255942   4.510  13.402   8.866
51349SOL     OW55943   1.343   2.865   1.527
51349SOL    HW155944   1.320   2.935   1.466
51349SOL    HW255945   1.373   2.911   1.606
51350SOL     OW55946   3.291   4.323   5.292
51350SOL    HW155947   3.256   4.306   5.205
51350SOL    HW255948   3.222   4.292   5.352
51351SOL     OW55949   1.102   3.026  14.284
51351SOL    HW155950   1.064   3.082  14.216
51351SOL    HW255951   1.063   3.058  14.366
51352SOL     OW55952   1.138   5.759   7.696
51352SOL    HW155953   1.058   5.735   7.743
51352SOL    HW255954   1.119   5.847   7.662
51353SOL     OW55955   0.859   1.951   0.300
51353SOL    HW155956   0.865   2.047   0.308
51353SOL    HW255957   0.839   1.921   0.388
51354SOL     OW55958  12.462   8.404   9.077
51354SOL    HW155959  12.376   8.391   9.117
51354SOL    HW255960  12.498   8.315   9.067
51355SOL     OW55961   7.756   7.247   0.990
51355SOL    HW155962   7.696   7.179   0.958
51355SOL    HW255963   7.769   7.304   0.914
51356SOL     OW55964   1.856   0.582  11.781
51356SOL    HW155965   1.826   0.656  11.835
51356SOL    HW255966   1.907   0.622  11.711
51357SOL     OW55967  13.353   8.402  12.538
51357SOL    HW155968  13.304   8.418  12.618
51357SOL    HW255969  13.444   8.396  12.567
51358SOL     OW55970   4.110  13.694  10.833
51358SOL    HW155971   4.038  13.651  10.787
51358SOL    HW255972   4.187  13.674  10.781
51359SOL     OW55973   4.334  11.703  13.949
51359SOL    HW155974   4.402  11.737  13.891
51359SOL    HW255975   4.322  11.612  13.922
51360SOL     OW55976   4.464   7.340   8.933
51360SOL    HW155977   4.549   7.383   8.940
51360SOL    HW255978   4.468   7.267   8.994
51361SOL     OW55979  11.728   9.834   3.303
51361SOL    HW155980  11.701   9.809   3.392
51361SOL    HW255981  11.720   9.753   3.252
51362SOL     OW55982   1.854   0.365  12.076
51362SOL    HW155983   1.824   0.450  12.044
51362SOL    HW255984   1.948   0.363  12.054
51363SOL     OW55985   6.837   1.616   6.622
51363SOL    HW155986   6.759   1.598   6.568
51363SOL    HW255987   6.843   1.541   6.681
51364SOL     OW55988   2.487   8.475   9.799
51364SOL    HW155989   2.483   8.453   9.892
51364SOL    HW255990   2.574   8.513   9.787
51365SOL     OW55991  13.692   0.356  13.420
51365SOL    HW155992  13.767   0.307  13.453
51365SOL    HW255993  13.617   0.298  13.432
51366SOL     OW55994  14.751   4.633  11.117
51366SOL    HW155995  14.810   4.708  11.111
51366SOL    HW255996  14.779   4.587  11.196
51367SOL     OW55997   5.180  11.819  10.549
51367SOL    HW155998   5.141  11.741  10.588
51367SOL    HW255999   5.260  11.787  10.507
51368SOL     OW56000   7.419   3.562  14.566
51368SOL    HW156001   7.391   3.534  14.653
51368SOL    HW256002   7.344   3.611  14.531
51369SOL     OW56003   5.678   5.813   1.326
51369SOL    HW156004   5.600   5.762   1.348
51369SOL    HW256005   5.737   5.751   1.283
51370SOL     OW56006   6.162  10.914   1.015
51370SOL    HW156007   6.120  10.979   0.959
51370SOL    HW256008   6.245  10.894   0.971
51371SOL     OW56009   5.288   5.475  10.304
51371SOL    HW156010   5.283   5.465  10.399
51371SOL    HW256011   5.208   5.522  10.281
51372SOL     OW56012   0.057   2.301   7.847
51372SOL    HW156013   0.072   2.314   7.753
51372SOL    HW256014   0.145   2.294   7.885
51373SOL     OW56015   1.205   1.672   1.363
51373SOL    HW156016   1.190   1.729   1.288
51373SOL    HW256017   1.118   1.656   1.399
51374SOL     OW56018  14.529   1.098  12.136
51374SOL    HW156019  14.449   1.056  12.167
51374SOL    HW256020  14.577   1.027  12.093
51375SOL     OW56021  13.519   6.282   4.237
51375SOL    HW156022  13.583   6.245   4.298
51375SOL    HW256023  13.490   6.208   4.184
51376SOL     OW56024   2.244   1.564   4.881
51376SOL    HW156025   2.331   1.585   4.915
51376SOL    HW256026   2.185   1.583   4.954
51377SOL     OW56027   1.267   4.825   4.243
51377SOL    HW156028   1.293   4.870   4.163
51377SOL    HW256029   1.190   4.873   4.274
51378SOL     OW56030   8.938   0.807   1.071
51378SOL    HW156031   8.862   0.840   1.120
51378SOL    HW256032   8.955   0.721   1.109
51379SOL     OW56033   2.414   3.658   3.566
51379SOL    HW156034   2.409   3.701   3.480
51379SOL    HW256035   2.322   3.643   3.590
51380SOL     OW56036   3.054   1.039   4.925
51380SOL    HW156037   3.079   1.124   4.888
51380SOL    HW256038   2.965   1.024   4.893
51381SOL     OW56039   7.088   0.798  11.670
51381SOL    HW156040   7.117   0.791  11.761
51381SOL    HW256041   7.046   0.884  11.665
51382SOL     OW56042  13.507   2.784   0.111
51382SOL    HW156043  13.573   2.721   0.082
51382SOL    HW256044  13.543   2.869   0.085
51383SOL     OW56045   8.916   5.687   1.019
51383SOL    HW156046   8.905   5.668   1.112
51383SOL    HW256047   8.866   5.620   0.974
51384SOL     OW56048   8.889   4.112  12.787
51384SOL    HW156049   8.922   4.076  12.705
51384SOL    HW256050   8.879   4.036  12.844
51385SOL     OW56051  11.647  10.744   6.515
51385SOL    HW156052  11.693  10.752   6.598
51385SOL    HW256053  11.593  10.823   6.509
51386SOL     OW56054   5.920   9.548   9.552
51386SOL    HW156055   5.935   9.642   9.555
51386SOL    HW256056   5.977   9.513   9.621
51387SOL     OW56057   6.356  12.128  11.320
51387SOL    HW156058   6.415  12.093  11.254
51387SOL    HW256059   6.403  12.203  11.357
51388SOL     OW56060  12.251   6.822  14.148
51388SOL    HW156061  12.274   6.826  14.055
51388SOL    HW256062  12.195   6.745  14.156
51389SOL     OW56063   3.731   6.640   2.155
51389SOL    HW156064   3.646   6.598   2.146
51389SOL    HW256065   3.754   6.629   2.247
51390SOL     OW56066   5.919   3.006   4.210
51390SOL    HW156067   5.977   2.985   4.137
51390SOL    HW256068   5.878   3.089   4.186
51391SOL     OW56069  10.318  12.178   3.588
51391SOL    HW156070  10.261  12.252   3.605
51391SOL    HW256071  10.331  12.137   3.673
51392SOL     OW56072   7.380   8.841   9.431
51392SOL    HW156073   7.390   8.747   9.446
51392SOL    HW256074   7.385   8.851   9.336
51393SOL     OW56075   4.059   2.885   2.562
51393SOL    HW156076   4.120   2.921   2.496
51393SOL    HW256077   3.996   2.835   2.510
51394SOL     OW56078   9.092  13.136   0.543
51394SOL    HW156079   9.113  13.045   0.560
51394SOL    HW256080   9.175  13.175   0.514
51395SOL     OW56081  11.970  12.057  13.232
51395SOL    HW156082  11.922  11.997  13.289
51395SOL    HW256083  12.044  12.006  13.200
51396SOL     OW56084  13.164   0.503  12.824
51396SOL    HW156085  13.245   0.473  12.867
51396SOL    HW256086  13.161   0.454  12.742
51397SOL     OW56087   1.567  13.355   0.498
51397SOL    HW156088   1.542  13.422   0.434
51397SOL    HW256089   1.662  13.348   0.489
51398SOL     OW56090   0.740   2.171   9.973
51398SOL    HW156091   0.808   2.232  10.000
51398SOL    HW256092   0.660   2.205  10.012
51399SOL     OW56093   8.365   6.837   1.769
51399SOL    HW156094   8.329   6.831   1.681
51399SOL    HW256095   8.449   6.791   1.764
51400SOL     OW56096   5.168   7.322   6.256
51400SOL    HW156097   5.176   7.376   6.177
51400SOL    HW256098   5.075   7.327   6.279
51401SOL     OW56099   7.623   7.100   8.082
51401SOL    HW156100   7.678   7.083   8.005
51401SOL    HW256101   7.669   7.056   8.154
51402SOL     OW56102  10.064   2.043   4.236
51402SOL    HW156103  10.148   2.071   4.198
51402SOL    HW256104  10.079   2.046   4.331
51403SOL     OW56105   1.383  13.455   6.539
51403SOL    HW156106   1.416  13.535   6.499
51403SOL    HW256107   1.300  13.480   6.580
51404SOL     OW56108  14.451   2.717  13.877
51404SOL    HW156109  14.391   2.783  13.912
51404SOL    HW256110  14.509   2.696  13.950
51405SOL     OW56111   6.739   3.139  14.017
51405SOL    HW156112   6.705   3.125  13.929
51405SOL    HW256113   6.756   3.051  14.050
51406SOL     OW56114   5.286   2.619  14.754
51406SOL    HW156115   5.346   2.685  14.719
51406SOL    HW256116   5.343   2.556  14.798
51407SOL     OW56117   4.713   6.774   3.621
51407SOL    HW156118   4.739   6.797   3.710
51407SOL    HW256119   4.792   6.738   3.581
51408SOL     OW56120  13.122   1.885   7.248
51408SOL    HW156121  13.034   1.848   7.261
51408SOL    HW256122  13.107   1.966   7.199
51409SOL     OW56123   5.959   8.803   0.553
51409SOL    HW156124   5.996   8.836   0.634
51409SOL    HW256125   5.940   8.881   0.501
51410SOL     OW56126  14.188  13.530  12.493
51410SOL    HW156127  14.138  13.451  12.513
51410SOL    HW256128  14.274  13.498  12.466
51411SOL     OW56129   9.792  10.262   2.409
51411SOL    HW156130   9.856  10.229   2.346
51411SOL    HW256131   9.732  10.188   2.423
51412SOL     OW56132   3.328   0.900   5.748
51412SOL    HW156133   3.297   0.960   5.816
51412SOL    HW256134   3.316   0.947   5.666
51413SOL     OW56135  11.690   2.317   6.423
51413SOL    HW156136  11.605   2.358   6.407
51413SOL    HW256137  11.688   2.237   6.371
51414SOL     OW56138   4.183   9.718   7.421
51414SOL    HW156139   4.090   9.725   7.443
51414SOL    HW256140   4.206   9.628   7.441
51415SOL     OW56141   1.286   6.279  13.623
51415SOL    HW156142   1.352   6.210  13.622
51415SOL    HW256143   1.215   6.243  13.676
51416SOL     OW56144  10.966  11.173   3.361
51416SOL    HW156145  10.873  11.171   3.383
51416SOL    HW256146  10.976  11.108   3.292
51417SOL     OW56147  11.019  11.603   3.506
51417SOL    HW156148  10.946  11.571   3.452
51417SOL    HW256149  11.007  11.698   3.509
51418SOL     OW56150  10.657   1.387   3.444
51418SOL    HW156151  10.747   1.378   3.476
51418SOL    HW256152  10.661   1.462   3.385
51419SOL     OW56153   5.013  12.103   1.892
51419SOL    HW156154   5.090  12.143   1.851
51419SOL    HW256155   4.986  12.165   1.959
51420SOL     OW56156   0.839  13.060   7.115
51420SOL    HW156157   0.772  12.991   7.116
51420SOL    HW256158   0.905  13.031   7.177
51421SOL     OW56159   1.226   9.290   9.218
51421SOL    HW156160   1.174   9.323   9.145
51421SOL    HW256161   1.177   9.214   9.250
51422SOL     OW56162  14.756  11.626   2.589
51422SOL    HW156163  14.768  11.532   2.599
51422SOL    HW256164  14.664  11.640   2.612
51423SOL     OW56165   4.104   0.421  11.911
51423SOL    HW156166   4.086   0.331  11.936
51423SOL    HW256167   4.036   0.472  11.955
51424SOL     OW56168  13.600   6.387   5.266
51424SOL    HW156169  13.540   6.313   5.270
51424SOL    HW256170  13.644   6.388   5.351
51425SOL     OW56171   4.001  10.142   8.325
51425SOL    HW156172   3.919  10.191   8.313
51425SOL    HW256173   4.001  10.116   8.417
51426SOL     OW56174   7.676   6.045   7.419
51426SOL    HW156175   7.616   6.116   7.397
51426SOL    HW256176   7.725   6.029   7.338
51427SOL     OW56177  14.725   6.122   5.863
51427SOL    HW156178  14.692   6.121   5.773
51427SOL    HW256179  14.774   6.203   5.870
51428SOL     OW56180  10.468  11.977   4.590
51428SOL    HW156181  10.512  11.894   4.610
51428SOL    HW256182  10.519  12.014   4.518
51429SOL     OW56183   6.693   2.681  13.565
51429SOL    HW156184   6.719   2.601  13.611
51429SOL    HW256185   6.759   2.746  13.590
51430SOL     OW56186   1.091   7.033  13.953
51430SOL    HW156187   1.055   7.039  13.864
51430SOL    HW256188   1.096   6.939  13.970
51431SOL     OW56189   0.596   6.241  12.675
51431SOL    HW156190   0.666   6.245  12.609
51431SOL    HW256191   0.631   6.288  12.750
51432SOL     OW56192  12.858   2.598   5.751
51432SOL    HW156193  12.823   2.534   5.814
51432SOL    HW256194  12.942   2.561   5.723
51433SOL     OW56195  12.539  11.584   1.509
51433SOL    HW156196  12.567  11.607   1.420
51433SOL    HW256197  12.453  11.544   1.497
51434SOL     OW56198  12.134  11.217  10.038
51434SOL    HW156199  12.215  11.217   9.986
51434SOL    HW256200  12.130  11.306  10.074
51435SOL     OW56201   2.761  14.045  12.060
51435SOL    HW156202   2.757  14.031  11.966
51435SOL    HW256203   2.670  14.059  12.086
51436SOL     OW56204   4.159  13.816   9.173
51436SOL    HW156205   4.192  13.742   9.122
51436SOL    HW256206   4.229  13.881   9.170
51437SOL     OW56207  13.150   7.667   6.760
51437SOL    HW156208  13.197   7.642   6.680
51437SOL    HW256209  13.150   7.588   6.814
51438SOL     OW56210  12.070  12.817   8.494
51438SOL    HW156211  12.132  12.875   8.450
51438SOL    HW256212  12.125  12.751   8.536
51439SOL     OW56213   6.749   4.449   2.841
51439SOL    HW156214   6.710   4.535   2.826
51439SOL    HW256215   6.825   4.446   2.783
51440SOL     OW56216   7.431  10.020   0.879
51440SOL    HW156217   7.399   9.937   0.844
51440SOL    HW256218   7.439  10.005   0.973
51441SOL     OW56219   2.558   1.062   6.235
51441SOL    HW156220   2.469   1.029   6.242
51441SOL    HW256221   2.604   0.999   6.180
51442SOL     OW56222  12.090   9.965  11.301
51442SOL    HW156223  12.080  10.009  11.217
51442SOL    HW256224  12.016   9.904  11.305
51443SOL     OW56225  13.029   9.418   3.694
51443SOL    HW156226  13.077   9.352   3.643
51443SOL    HW256227  12.937   9.395   3.683
51444SOL     OW56228   2.331   6.819   3.622
51444SOL    HW156229   2.358   6.727   3.619
51444SOL    HW256230   2.237   6.816   3.639
51445SOL     OW56231   1.125  10.142   0.039
51445SOL    HW156232   1.105  10.102   0.124
51445SOL    HW256233   1.159  10.069  14.856
51446SOL     OW56234   6.884   2.752   9.154
51446SOL    HW156235   6.807   2.795   9.115
51446SOL    HW256236   6.957   2.810   9.134
51447SOL     OW56237   5.269   1.946  11.597
51447SOL    HW156238   5.194   1.933  11.540
51447SOL    HW256239   5.232   1.972  11.681
51448SOL     OW56240  11.939   5.393  10.112
51448SOL    HW156241  12.005   5.460  10.096
51448SOL    HW256242  11.959   5.324  10.048
51449SOL     OW56243   4.287   9.260   4.300
51449SOL    HW156244   4.204   9.269   4.346
51449SOL    HW256245   4.300   9.343   4.255
51450SOL     OW56246  14.545   5.746   1.304
51450SOL    HW156247  14.470   5.733   1.361
51450SOL    HW256248  14.605   5.674   1.325
51451SOL     OW56249   6.298  13.756  13.528
51451SOL    HW156250   6.296  13.683  13.590
51451SOL    HW256251   6.222  13.809  13.552
51452SOL     OW56252   8.958  11.340   7.808
51452SOL    HW156253   8.923  11.253   7.827
51452SOL    HW256254   8.883  11.389   7.775
51453SOL     OW56255  14.502   1.378  10.135
51453SOL    HW156256  14.538   1.303  10.087
51453SOL    HW256257  14.563   1.450  10.115
51454SOL     OW56258  13.104  10.241   3.669
51454SOL    HW156259  13.053  10.308   3.623
51454SOL    HW256260  13.067  10.158   3.639
51455SOL     OW56261   5.956  10.584   8.252
51455SOL    HW156262   5.979  10.548   8.337
51455SOL    HW256263   6.031  10.638   8.227
51456SOL     OW56264  13.632   7.305   9.699
51456SOL    HW156265  13.568   7.305   9.628
51456SOL    HW256266  13.691   7.233   9.679
51457SOL     OW56267   6.473  13.246  12.478
51457SOL    HW156268   6.394  13.202  12.448
51457SOL    HW256269   6.441  13.316  12.535
51458SOL     OW56270   3.284   6.623   1.115
51458SOL    HW156271   3.205   6.575   1.139
51458SOL    HW256272   3.279   6.633   1.020
51459SOL     OW56273   0.380  14.657   2.225
51459SOL    HW156274   0.290  14.646   2.257
51459SOL    HW256275   0.373  14.723   2.156
51460SOL     OW56276  14.297  11.957   4.860
51460SOL    HW156277  14.300  11.871   4.902
51460SOL    HW256278  14.259  12.014   4.926
51461SOL     OW56279   1.224   1.505   8.884
51461SOL    HW156280   1.311   1.532   8.914
51461SOL    HW256281   1.205   1.425   8.932
51462SOL     OW56282  11.105   6.624   6.840
51462SOL    HW156283  11.027   6.636   6.893
51462SOL    HW256284  11.164   6.695   6.868
51463SOL     OW56285  10.870  13.568  12.560
51463SOL    HW156286  10.903  13.650  12.598
51463SOL    HW256287  10.945  13.509  12.562
51464SOL     OW56288  10.364  14.007  14.684
51464SOL    HW156289  10.409  14.054  14.755
51464SOL    HW256290  10.273  14.002  14.714
51465SOL     OW56291  12.946  10.047  10.025
51465SOL    HW156292  12.891   9.969  10.029
51465SOL    HW256293  13.033  10.014  10.004
51466SOL     OW56294   2.967  11.436  13.469
51466SOL    HW156295   2.911  11.389  13.531
51466SOL    HW256296   2.906  11.472  13.405
51467SOL     OW56297   2.906   3.607  11.585
51467SOL    HW156298   2.949   3.546  11.525
51467SOL    HW256299   2.978   3.645  11.636
51468SOL     OW56300   5.296   6.846   4.576
51468SOL    HW156301   5.375   6.886   4.538
51468SOL    HW256302   5.261   6.790   4.507
51469SOL     OW56303   2.726   5.469   9.261
51469SOL    HW156304   2.812   5.452   9.222
51469SOL    HW256305   2.682   5.525   9.198
51470SOL     OW56306   6.683   9.507   6.795
51470SOL    HW156307   6.646   9.419   6.807
51470SOL    HW256308   6.777   9.492   6.786
51471SOL     OW56309   3.310   7.145   9.790
51471SOL    HW156310   3.394   7.135   9.836
51471SOL    HW256311   3.266   7.061   9.802
51472SOL     OW56312  13.426   3.040   2.919
51472SOL    HW156313  13.457   3.104   2.855
51472SOL    HW256314  13.374   2.978   2.868
51473SOL     OW56315  11.157  10.637  14.168
51473SOL    HW156316  11.062  10.644  14.156
51473SOL    HW256317  11.186  10.583  14.095
51474SOL     OW56318  10.203   4.772  11.048
51474SOL    HW156319  10.236   4.684  11.026
51474SOL    HW256320  10.141   4.757  11.119
51475SOL     OW56321  14.414   2.542   7.354
51475SOL    HW156322  14.506   2.546   7.329
51475SOL    HW256323  14.392   2.632   7.377
51476SOL     OW56324   1.270   6.056   0.894
51476SOL    HW156325   1.239   6.015   0.975
51476SOL    HW256326   1.192   6.100   0.858
51477SOL     OW56327   7.641  14.375  12.069
51477SOL    HW156328   7.555  14.404  12.097
51477SOL    HW256329   7.693  14.371  12.149
51478SOL     OW56330   3.803   1.312   9.545
51478SOL    HW156331   3.886   1.315   9.593
51478SOL    HW256332   3.777   1.220   9.546
51479SOL     OW56333  10.276   6.856   7.786
51479SOL    HW156334  10.327   6.784   7.749
51479SOL    HW256335  10.196   6.814   7.817
51480SOL     OW56336  12.730   4.444   9.987
51480SOL    HW156337  12.694   4.478  10.069
51480SOL    HW256338  12.811   4.492   9.974
51481SOL     OW56339   6.089   3.325   7.321
51481SOL    HW156340   6.020   3.259   7.320
51481SOL    HW256341   6.118   3.328   7.412
51482SOL     OW56342   2.277   2.999  11.487
51482SOL    HW156343   2.307   3.044  11.566
51482SOL    HW256344   2.347   3.012  11.423
51483SOL     OW56345   8.812   0.228   3.909
51483SOL    HW156346   8.873   0.185   3.968
51483SOL    HW256347   8.770   0.157   3.861
51484SOL     OW56348   9.156   1.430   5.493
51484SOL    HW156349   9.119   1.485   5.425
51484SOL    HW256350   9.082   1.382   5.529
51485SOL     OW56351   9.171  10.405   2.514
51485SOL    HW156352   9.118  10.441   2.444
51485SOL    HW256353   9.260  10.430   2.493
51486SOL     OW56354   9.599   3.015   8.717
51486SOL    HW156355   9.601   3.108   8.736
51486SOL    HW256356   9.676   2.979   8.761
51487SOL     OW56357   6.157  13.253   2.838
51487SOL    HW156358   6.212  13.252   2.760
51487SOL    HW256359   6.076  13.210   2.811
51488SOL     OW56360   8.702  10.046   3.384
51488SOL    HW156361   8.724  10.139   3.389
51488SOL    HW256362   8.767  10.009   3.325
51489SOL     OW56363   3.508   7.050   6.607
51489SOL    HW156364   3.454   6.973   6.592
51489SOL    HW256365   3.448   7.124   6.601
51490SOL     OW56366   8.426  12.499   0.979
51490SOL    HW156367   8.450  12.559   0.908
51490SOL    HW256368   8.509  12.474   1.019
51491SOL     OW56369  13.599  12.263   3.805
51491SOL    HW156370  13.623  12.311   3.884
51491SOL    HW256371  13.609  12.170   3.829
51492SOL     OW56372  12.494   1.904   8.364
51492SOL    HW156373  12.503   1.890   8.270
51492SOL    HW256374  12.493   1.816   8.401
51493SOL     OW56375   2.233   5.785  10.300
51493SOL    HW156376   2.324   5.762  10.284
51493SOL    HW256377   2.223   5.780  10.396
51494SOL     OW56378   7.650   9.042   2.867
51494SOL    HW156379   7.681   9.131   2.848
51494SOL    HW256380   7.563   9.039   2.827
51495SOL     OW56381   9.728   7.515  11.703
51495SOL    HW156382   9.689   7.568  11.773
51495SOL    HW256383   9.821   7.510  11.726
51496SOL     OW56384  14.476   6.456   4.531
51496SOL    HW156385  14.417   6.512   4.581
51496SOL    HW256386  14.422   6.380   4.508
51497SOL     OW56387   2.609   1.887   8.042
51497SOL    HW156388   2.664   1.809   8.040
51497SOL    HW256389   2.521   1.855   8.061
51498SOL     OW56390  11.531   7.442  12.356
51498SOL    HW156391  11.597   7.505  12.385
51498SOL    HW256392  11.563   7.358  12.388
51499SOL     OW56393   3.479   5.728   1.230
51499SOL    HW156394   3.447   5.638   1.242
51499SOL    HW256395   3.453   5.773   1.310
51500SOL     OW56396   0.165  12.059  13.445
51500SOL    HW156397   0.144  12.149  13.472
51500SOL    HW256398   0.126  12.004  13.513
51501SOL     OW56399   9.561  12.082  11.646
51501SOL    HW156400   9.527  12.156  11.595
51501SOL    HW256401   9.628  12.043  11.589
51502SOL     OW56402  13.884   4.497   3.683
51502SOL    HW156403  13.838   4.581   3.682
51502SOL    HW256404  13.892   4.472   3.591
51503SOL     OW56405  14.379   9.267   0.106
51503SOL    HW156406  14.432   9.241   0.030
51503SOL    HW256407  14.303   9.310   0.069
51504SOL     OW56408   5.134  12.006   8.910
51504SOL    HW156409   5.127  12.049   8.825
51504SOL    HW256410   5.147  11.914   8.889
51505SOL     OW56411   2.865   4.117   6.035
51505SOL    HW156412   2.860   4.212   6.038
51505SOL    HW256413   2.775   4.088   6.017
51506SOL     OW56414   4.995   2.659  11.965
51506SOL    HW156415   5.069   2.612  12.003
51506SOL    HW256416   4.995   2.632  11.873
51507SOL     OW56417  13.197   4.117   0.883
51507SOL    HW156418  13.266   4.175   0.916
51507SOL    HW256419  13.191   4.138   0.790
51508SOL     OW56420  13.650  13.663   1.433
51508SOL    HW156421  13.635  13.605   1.508
51508SOL    HW256422  13.573  13.650   1.378
51509SOL     OW56423   6.318  12.813  13.136
51509SOL    HW156424   6.304  12.823  13.042
51509SOL    HW256425   6.235  12.841  13.175
51510SOL     OW56426   5.381   0.654   6.160
51510SOL    HW156427   5.460   0.652   6.105
51510SOL    HW256428   5.353   0.745   6.158
51511SOL     OW56429   1.710   8.955  13.120
51511SOL    HW156430   1.754   8.901  13.186
51511SOL    HW256431   1.762   8.944  13.040
51512SOL     OW56432   3.138  14.448   3.122
51512SOL    HW156433   3.058  14.404   3.151
51512SOL    HW256434   3.205  14.417   3.183
51513SOL     OW56435   9.479   4.662   0.871
51513SOL    HW156436   9.556   4.712   0.896
51513SOL    HW256437   9.409   4.727   0.866
51514SOL     OW56438  11.604   2.903   4.913
51514SOL    HW156439  11.541   2.959   4.959
51514SOL    HW256440  11.635   2.842   4.980
51515SOL     OW56441  12.423   6.829   5.470
51515SOL    HW156442  12.461   6.777   5.540
51515SOL    HW256443  12.481   6.904   5.461
51516SOL     OW56444  12.609  13.223   2.998
51516SOL    HW156445  12.672  13.246   3.067
51516SOL    HW256446  12.526  13.214   3.044
51517SOL     OW56447   0.770   6.529   8.311
51517SOL    HW156448   0.730   6.442   8.315
51517SOL    HW256449   0.696   6.590   8.320
51518SOL     OW56450  14.449   3.707   0.116
51518SOL    HW156451  14.409   3.708   0.029
51518SOL    HW256452  14.482   3.618   0.126
51519SOL     OW56453   9.859   4.886   3.885
51519SOL    HW156454   9.867   4.975   3.918
51519SOL    HW256455   9.796   4.844   3.944
51520SOL     OW56456   0.170   4.120  10.780
51520SOL    HW156457   0.165   4.211  10.808
51520SOL    HW256458   0.124   4.118  10.697
51521SOL     OW56459   0.726  11.071  10.134
51521SOL    HW156460   0.657  11.038  10.077
51521SOL    HW256461   0.792  11.106  10.073
51522SOL     OW56462   5.709   2.969  11.921
51522SOL    HW156463   5.674   3.002  12.004
51522SOL    HW256464   5.804   2.971  11.933
51523SOL     OW56465  11.641  13.412  14.740
51523SOL    HW156466  11.569  13.461  14.779
51523SOL    HW256467  11.653  13.336  14.797
51524SOL     OW56468   6.279   3.288  11.699
51524SOL    HW156469   6.327   3.286  11.782
51524SOL    HW256470   6.216   3.359  11.710
51525SOL     OW56471   0.466  12.692   1.995
51525SOL    HW156472   0.379  12.696   2.034
51525SOL    HW256473   0.516  12.636   2.054
51526SOL     OW56474  13.873  11.309   2.192
51526SOL    HW156475  13.825  11.306   2.275
51526SOL    HW256476  13.898  11.401   2.183
51527SOL     OW56477   6.589   1.301   5.895
51527SOL    HW156478   6.578   1.390   5.861
51527SOL    HW256479   6.646   1.258   5.831
51528SOL     OW56480   1.801  10.800   2.777
51528SOL    HW156481   1.740  10.726   2.777
51528SOL    HW256482   1.770  10.857   2.848
51529SOL     OW56483   9.323   3.653   2.463
51529SOL    HW156484   9.418   3.657   2.478
51529SOL    HW256485   9.285   3.687   2.544
51530SOL     OW56486  14.251   8.566   3.043
51530SOL    HW156487  14.265   8.475   3.016
51530SOL    HW256488  14.304   8.617   2.982
51531SOL     OW56489   8.442   7.601  14.833
51531SOL    HW156490   8.478   7.516  14.810
51531SOL    HW256491   8.371   7.581   0.024
51532SOL     OW56492   1.854   1.842   6.704
51532SOL    HW156493   1.854   1.809   6.794
51532SOL    HW256494   1.780   1.797   6.663
51533SOL     OW56495   8.263   1.802  13.723
51533SOL    HW156496   8.225   1.756  13.648
51533SOL    HW256497   8.251   1.895  13.702
51534SOL     OW56498   6.416   4.381   6.510
51534SOL    HW156499   6.495   4.365   6.457
51534SOL    HW256500   6.437   4.343   6.595
51535SOL     OW56501   5.171  11.616   9.011
51535SOL    HW156502   5.195  11.526   8.989
51535SOL    HW256503   5.238  11.644   9.073
51536SOL     OW56504   9.544   6.227  10.818
51536SOL    HW156505   9.624   6.198  10.775
51536SOL    HW256506   9.516   6.152  10.870
51537SOL     OW56507   4.505  11.625   2.241
51537SOL    HW156508   4.505  11.532   2.261
51537SOL    HW256509   4.554  11.665   2.313
51538SOL     OW56510  12.145  11.351   9.050
51538SOL    HW156511  12.063  11.309   9.026
51538SOL    HW256512  12.131  11.444   9.030
51539SOL     OW56513  10.302  10.020   3.574
51539SOL    HW156514  10.332   9.937   3.613
51539SOL    HW256515  10.207  10.011   3.568
51540SOL     OW56516  14.697   4.177   8.289
51540SOL    HW156517  14.725   4.101   8.238
51540SOL    HW256518  14.762   4.245   8.268
51541SOL     OW56519   3.497  12.449   2.258
51541SOL    HW156520   3.461  12.402   2.333
51541SOL    HW256521   3.468  12.539   2.269
51542SOL     OW56522   2.542  13.390   5.905
51542SOL    HW156523   2.555  13.315   5.848
51542SOL    HW256524   2.560  13.466   5.849
51543SOL     OW56525  12.756  11.281   3.324
51543SOL    HW156526  12.673  11.235   3.317
51543SOL    HW256527  12.795  11.247   3.405
51544SOL     OW56528   8.462   8.513  11.322
51544SOL    HW156529   8.422   8.511  11.409
51544SOL    HW256530   8.554   8.491  11.337
51545SOL     OW56531   1.646   0.854   8.666
51545SOL    HW156532   1.601   0.770   8.665
51545SOL    HW256533   1.604   0.904   8.596
51546SOL     OW56534   4.382  12.351  10.592
51546SOL    HW156535   4.419  12.377  10.676
51546SOL    HW256536   4.414  12.261  10.579
51547SOL     OW56537   0.861   3.540   1.331
51547SOL    HW156538   0.954   3.526   1.350
51547SOL    HW256539   0.818   3.534   1.417
51548SOL     OW56540   2.192  14.526  13.717
51548SOL    HW156541   2.116  14.581  13.737
51548SOL    HW256542   2.243  14.526  13.798
51549SOL     OW56543   1.926  13.064  11.962
51549SOL    HW156544   1.832  13.050  11.973
51549SOL    HW256545   1.966  12.995  12.015
51550SOL     OW56546  12.915   1.230   7.129
51550SOL    HW156547  12.962   1.307   7.163
51550SOL    HW256548  12.830   1.264   7.102
51551SOL     OW56549   0.036   8.092  10.311
51551SOL    HW156550  14.827   8.095  10.257
51551SOL    HW256551   0.106   8.124  10.254
51552SOL     OW56552   2.255  10.313   1.970
51552SOL    HW156553   2.201  10.236   1.951
51552SOL    HW256554   2.336  10.299   1.921
51553SOL     OW56555   9.835   3.090  14.658
51553SOL    HW156556   9.743   3.091  14.631
51553SOL    HW256557   9.853   3.180  14.685
51554SOL     OW56558   5.490   1.565  12.549
51554SOL    HW156559   5.407   1.517  12.550
51554SOL    HW256560   5.543   1.521  12.482
51555SOL     OW56561   2.225  14.587   7.228
51555SOL    HW156562   2.130  14.575   7.225
51555SOL    HW256563   2.245  14.587   7.322
51556SOL     OW56564   3.234   5.129   4.968
51556SOL    HW156565   3.256   5.083   5.049
51556SOL    HW256566   3.148   5.167   4.985
51557SOL     OW56567   6.298  10.668   0.301
51557SOL    HW156568   6.298  10.638   0.210
51557SOL    HW256569   6.286  10.588   0.353
51558SOL     OW56570   1.560   9.660   8.444
51558SOL    HW156571   1.553   9.604   8.522
51558SOL    HW256572   1.629   9.619   8.392
51559SOL     OW56573   3.212   4.591  13.941
51559SOL    HW156574   3.271   4.519  13.962
51559SOL    HW256575   3.269   4.666  13.929
51560SOL     OW56576   2.956  12.207   8.326
51560SOL    HW156577   2.917  12.289   8.358
51560SOL    HW256578   3.048  12.228   8.313
51561SOL     OW56579   0.088  11.708   1.859
51561SOL    HW156580  14.866  11.729   1.879
51561SOL    HW256581   0.083  11.628   1.807
51562SOL     OW56582   3.381   5.178   5.999
51562SOL    HW156583   3.475   5.175   6.020
51562SOL    HW256584   3.340   5.119   6.062
51563SOL     OW56585   0.945   1.749  12.739
51563SOL    HW156586   0.970   1.756  12.647
51563SOL    HW256587   0.992   1.671  12.770
51564SOL     OW56588   7.274   7.105  11.331
51564SOL    HW156589   7.258   7.016  11.364
51564SOL    HW256590   7.367   7.105  11.308
51565SOL     OW56591   5.130   1.445  12.795
51565SOL    HW156592   5.047   1.493  12.800
51565SOL    HW256593   5.171   1.458  12.881
51566SOL     OW56594  11.830   2.937  13.300
51566SOL    HW156595  11.790   2.877  13.363
51566SOL    HW256596  11.837   2.885  13.220
51567SOL     OW56597   3.861   2.496   9.781
51567SOL    HW156598   3.949   2.503   9.817
51567SOL    HW256599   3.863   2.552   9.703
51568SOL     OW56600  14.648   7.600   1.796
51568SOL    HW156601  14.681   7.512   1.775
51568SOL    HW256602  14.555   7.586   1.815
51569SOL     OW56603   3.626   1.101   6.500
51569SOL    HW156604   3.615   1.108   6.595
51569SOL    HW256605   3.705   1.049   6.488
51570SOL     OW56606   7.505   0.285   8.986
51570SOL    HW156607   7.585   0.278   8.934
51570SOL    HW256608   7.465   0.367   8.957
51571SOL     OW56609   1.656   4.337   9.570
51571SOL    HW156610   1.567   4.372   9.571
51571SOL    HW256611   1.655   4.269   9.638
51572SOL     OW56612   4.033   6.841   9.355
51572SOL    HW156613   3.967   6.772   9.362
51572SOL    HW256614   4.116   6.798   9.378
51573SOL     OW56615   5.895  14.005   2.727
51573SOL    HW156616   5.931  13.965   2.807
51573SOL    HW256617   5.853  13.932   2.681
51574SOL     OW56618  10.360   8.360   2.748
51574SOL    HW156619  10.410   8.371   2.667
51574SOL    HW256620  10.278   8.407   2.732
51575SOL     OW56621   8.252   6.609   9.645
51575SOL    HW156622   8.159   6.602   9.663
51575SOL    HW256623   8.285   6.666   9.715
51576SOL     OW56624   4.677   4.134   7.376
51576SOL    HW156625   4.676   4.108   7.468
51576SOL    HW256626   4.753   4.191   7.368
51577SOL     OW56627   9.277  12.210   8.688
51577SOL    HW156628   9.278  12.114   8.688
51577SOL    HW256629   9.282  12.234   8.596
51578SOL     OW56630   2.876   1.430   8.856
51578SOL    HW156631   2.954   1.483   8.873
51578SOL    HW256632   2.828   1.479   8.789
51579SOL     OW56633   5.233   7.056   6.156
51579SOL    HW156634   5.153   7.004   6.162
51579SOL    HW256635   5.208   7.142   6.189
51580SOL     OW56636  13.175  14.179  12.313
51580SOL    HW156637  13.249  14.229  12.281
51580SOL    HW256638  13.189  14.091  12.280
51581SOL     OW56639   7.125   9.608   9.010
51581SOL    HW156640   7.205   9.557   9.024
51581SOL    HW256641   7.118   9.614   8.914
51582SOL     OW56642   7.149   8.911   9.001
51582SOL    HW156643   7.158   8.826   8.957
51582SOL    HW256644   7.122   8.971   8.931
51583SOL     OW56645   8.653  11.157   8.625
51583SOL    HW156646   8.674  11.066   8.604
51583SOL    HW256647   8.679  11.207   8.547
51584SOL     OW56648   7.794   2.391   9.908
51584SOL    HW156649   7.726   2.409   9.974
51584SOL    HW256650   7.789   2.466   9.849
51585SOL     OW56651  11.988   4.238   1.372
51585SOL    HW156652  11.903   4.198   1.386
51585SOL    HW256653  11.973   4.306   1.307
51586SOL     OW56654   5.626   6.513  14.709
51586SOL    HW156655   5.688   6.442  14.697
51586SOL    HW256656   5.659   6.562  14.785
51587SOL     OW56657  10.404  11.935  12.165
51587SOL    HW156658  10.363  11.869  12.111
51587SOL    HW256659  10.354  11.934  12.247
51588SOL     OW56660   6.154   7.052   6.644
51588SOL    HW156661   6.230   6.994   6.636
51588SOL    HW256662   6.177   7.113   6.713
51589SOL     OW56663   3.778  11.478   6.330
51589SOL    HW156664   3.698  11.477   6.382
51589SOL    HW256665   3.753  11.441   6.246
51590SOL     OW56666  13.023   1.124   0.544
51590SOL    HW156667  12.933   1.157   0.543
51590SOL    HW256668  13.032   1.078   0.460
51591SOL     OW56669  12.024   9.456  10.803
51591SOL    HW156670  11.984   9.522  10.861
51591SOL    HW256671  12.036   9.501  10.720
51592SOL     OW56672   1.033   9.617  11.750
51592SOL    HW156673   1.040   9.684  11.682
51592SOL    HW256674   0.949   9.634  11.793
51593SOL     OW56675  14.820   6.532   2.531
51593SOL    HW156676  14.762   6.468   2.489
51593SOL    HW256677   0.038   6.497   2.516
51594SOL     OW56678   5.128  12.369   8.352
51594SOL    HW156679   5.190  12.299   8.373
51594SOL    HW256680   5.138  12.382   8.257
51595SOL     OW56681  14.715   1.409   9.410
51595SOL    HW156682  14.761   1.489   9.384
51595SOL    HW256683  14.650   1.439   9.473
51596SOL     OW56684   1.403   6.703  11.876
51596SOL    HW156685   1.384   6.609  11.873
51596SOL    HW256686   1.335   6.743  11.822
51597SOL     OW56687   5.842   5.551   0.416
51597SOL    HW156688   5.749   5.558   0.437
51597SOL    HW256689   5.874   5.480   0.472
51598SOL     OW56690   2.252   6.528  14.488
51598SOL    HW156691   2.335   6.573  14.508
51598SOL    HW256692   2.276   6.435  14.483
51599SOL     OW56693   1.335   7.470   7.039
51599SOL    HW156694   1.361   7.562   7.038
51599SOL    HW256695   1.241   7.471   7.020
51600SOL     OW56696   5.935   6.953   7.259
51600SOL    HW156697   5.906   6.957   7.350
51600SOL    HW256698   6.018   6.905   7.262
51601SOL     OW56699   5.007   7.534  13.248
51601SOL    HW156700   5.005   7.568  13.337
51601SOL    HW256701   5.085   7.478  13.246
51602SOL     OW56702  10.555  10.365   6.639
51602SOL    HW156703  10.544  10.435   6.575
51602SOL    HW256704  10.644  10.333   6.625
51603SOL     OW56705  10.812   0.744   0.405
51603SOL    HW156706  10.892   0.701   0.375
51603SOL    HW256707  10.841   0.802   0.476
51604SOL     OW56708   5.730   6.222  14.772
51604SOL    HW156709   5.737   6.144  14.717
51604SOL    HW256710   5.638   6.224  14.799
51605SOL     OW56711   2.763   8.608   0.209
51605SOL    HW156712   2.778   8.628   0.301
51605SOL    HW256713   2.743   8.693   0.169
51606SOL     OW56714   1.313   1.605   0.286
51606SOL    HW156715   1.324   1.531   0.346
51606SOL    HW256716   1.382   1.593   0.220
51607SOL     OW56717   0.119  12.032   7.380
51607SOL    HW156718   0.052  12.061   7.441
51607SOL    HW256719   0.122  12.101   7.314
51608SOL     OW56720  14.785  12.083  11.102
51608SOL    HW156721  14.829  12.109  11.021
51608SOL    HW256722  14.705  12.135  11.104
51609SOL     OW56723   6.802   8.719  14.131
51609SOL    HW156724   6.880   8.688  14.085
51609SOL    HW256725   6.733   8.658  14.105
51610SOL     OW56726   7.481   1.916   1.011
51610SOL    HW156727   7.469   1.923   1.106
51610SOL    HW256728   7.574   1.933   0.996
51611SOL     OW56729   2.012  12.905  12.155
51611SOL    HW156730   2.008  12.810  12.162
51611SOL    HW256731   1.935  12.937  12.202
51612SOL     OW56732   9.289   5.042   5.138
51612SOL    HW156733   9.343   4.974   5.097
51612SOL    HW256734   9.352   5.097   5.184
51613SOL     OW56735   3.316   0.505  11.473
51613SOL    HW156736   3.348   0.433  11.528
51613SOL    HW256737   3.330   0.475  11.383
51614SOL     OW56738   9.456  12.060   5.782
51614SOL    HW156739   9.537  12.108   5.799
51614SOL    HW256740   9.480  11.968   5.791
51615SOL     OW56741   1.443  10.411  13.601
51615SOL    HW156742   1.432  10.504  13.580
51615SOL    HW256743   1.396  10.400  13.683
51616SOL     OW56744   6.763   3.024  12.252
51616SOL    HW156745   6.850   2.995  12.222
51616SOL    HW256746   6.781   3.090  12.319
51617SOL     OW56747   2.416  10.552   6.063
51617SOL    HW156748   2.385  10.561   6.153
51617SOL    HW256749   2.446  10.639   6.039
51618SOL     OW56750   4.500  13.195  12.931
51618SOL    HW156751   4.443  13.264  12.966
51618SOL    HW256752   4.532  13.149  13.008
51619SOL     OW56753   4.470   7.134   1.572
51619SOL    HW156754   4.487   7.042   1.550
51619SOL    HW256755   4.391   7.157   1.523
51620SOL     OW56756   8.590   0.689   7.627
51620SOL    HW156757   8.603   0.759   7.691
51620SOL    HW256758   8.595   0.733   7.542
51621SOL     OW56759   5.398   6.065  13.185
51621SOL    HW156760   5.386   6.038  13.094
51621SOL    HW256761   5.449   6.146  13.180
51622SOL     OW56762  12.144  10.359  12.094
51622SOL    HW156763  12.174  10.439  12.052
51622SOL    HW256764  12.117  10.386  12.182
51623SOL     OW56765  14.214  13.817   0.785
51623SOL    HW156766  14.301  13.854   0.802
51623SOL    HW256767  14.154  13.890   0.802
51624SOL     OW56768   0.888   8.329   6.095
51624SOL    HW156769   0.897   8.404   6.153
51624SOL    HW256770   0.810   8.348   6.043
51625SOL     OW56771   7.159   4.116   7.959
51625SOL    HW156772   7.236   4.084   7.913
51625SOL    HW256773   7.156   4.065   8.040
51626SOL     OW56774   6.626   1.672  12.441
51626SOL    HW156775   6.661   1.666  12.352
51626SOL    HW256776   6.632   1.583  12.475
51627SOL     OW56777   6.393   9.798   5.188
51627SOL    HW156778   6.317   9.841   5.149
51627SOL    HW256779   6.398   9.835   5.276
51628SOL     OW56780   0.863   2.994   5.344
51628SOL    HW156781   0.958   2.980   5.338
51628SOL    HW256782   0.826   2.929   5.283
51629SOL     OW56783   3.157  11.206  13.310
51629SOL    HW156784   3.134  11.299  13.318
51629SOL    HW256785   3.191  11.197  13.221
51630SOL     OW56786  12.356   8.176   0.762
51630SOL    HW156787  12.444   8.182   0.726
51630SOL    HW256788  12.298   8.196   0.688
51631SOL     OW56789   9.431  12.827   8.536
51631SOL    HW156790   9.416  12.856   8.626
51631SOL    HW256791   9.527  12.823   8.528
51632SOL     OW56792  10.938   0.372   6.315
51632SOL    HW156793  10.928   0.340   6.225
51632SOL    HW256794  10.925   0.467   6.307
51633SOL     OW56795   4.883   4.021   4.068
51633SOL    HW156796   4.903   4.111   4.043
51633SOL    HW256797   4.883   4.022   4.164
51634SOL     OW56798  11.196   9.860   8.183
51634SOL    HW156799  11.153   9.775   8.174
51634SOL    HW256800  11.127   9.924   8.166
51635SOL     OW56801   6.727  11.352  13.833
51635SOL    HW156802   6.726  11.446  13.854
51635SOL    HW256803   6.718  11.349  13.738
51636SOL     OW56804   6.340   2.154  11.674
51636SOL    HW156805   6.325   2.230  11.731
51636SOL    HW256806   6.268   2.095  11.694
51637SOL     OW56807   3.712   7.471   5.750
51637SOL    HW156808   3.628   7.503   5.783
51637SOL    HW256809   3.709   7.489   5.656
51638SOL     OW56810   3.742  11.128  10.924
51638SOL    HW156811   3.667  11.098  10.974
51638SOL    HW256812   3.814  11.071  10.952
51639SOL     OW56813   6.782   5.285   5.413
51639SOL    HW156814   6.724   5.327   5.477
51639SOL    HW256815   6.774   5.192   5.431
51640SOL     OW56816   5.397   2.472   7.804
51640SOL    HW156817   5.479   2.519   7.817
51640SOL    HW256818   5.387   2.468   7.709
51641SOL     OW56819   6.883   3.337   7.591
51641SOL    HW156820   6.846   3.307   7.508
51641SOL    HW256821   6.914   3.426   7.573
51642SOL     OW56822   4.438   9.664  11.711
51642SOL    HW156823   4.515   9.681  11.657
51642SOL    HW256824   4.431   9.742  11.767
51643SOL     OW56825   8.506   6.500   1.193
51643SOL    HW156826   8.456   6.419   1.207
51643SOL    HW256827   8.442   6.563   1.162
51644SOL     OW56828  12.125  11.858   2.164
51644SOL    HW156829  12.154  11.949   2.171
51644SOL    HW256830  12.034  11.864   2.134
51645SOL     OW56831   8.365   0.876   3.457
51645SOL    HW156832   8.391   0.914   3.542
51645SOL    HW256833   8.416   0.924   3.393
51646SOL     OW56834  12.975   4.227  11.230
51646SOL    HW156835  13.028   4.186  11.299
51646SOL    HW256836  13.036   4.243  11.159
51647SOL     OW56837   6.071   0.353  14.763
51647SOL    HW156838   6.146   0.412  14.754
51647SOL    HW256839   6.060   0.315  14.675
51648SOL     OW56840   0.353   0.540   7.343
51648SOL    HW156841   0.429   0.518   7.288
51648SOL    HW256842   0.291   0.470   7.326
51649SOL     OW56843   8.730   1.512   9.075
51649SOL    HW156844   8.826   1.513   9.067
51649SOL    HW256845   8.710   1.583   9.136
51650SOL     OW56846  14.849   7.348  13.050
51650SOL    HW156847  14.800   7.412  12.999
51650SOL    HW256848  14.799   7.267  13.042
51651SOL     OW56849  11.418   8.938  14.710
51651SOL    HW156850  11.398   9.006  14.774
51651SOL    HW256851  11.512   8.922  14.720
51652SOL     OW56852   9.755  14.044  12.347
51652SOL    HW156853   9.682  14.000  12.303
51652SOL    HW256854   9.779  14.116  12.287
51653SOL     OW56855  12.188  12.538  10.168
51653SOL    HW156856  12.137  12.552  10.248
51653SOL    HW256857  12.273  12.577  10.187
51654SOL     OW56858  12.291  13.219   7.940
51654SOL    HW156859  12.325  13.183   8.022
51654SOL    HW256860  12.219  13.161   7.916
51655SOL     OW56861   4.413  10.764   7.330
51655SOL    HW156862   4.369  10.774   7.245
51655SOL    HW256863   4.403  10.850   7.372
51656SOL     OW56864   2.805   9.347  11.728
51656SOL    HW156865   2.790   9.376  11.818
51656SOL    HW256866   2.841   9.424  11.684
51657SOL     OW56867   2.970   4.866   3.753
51657SOL    HW156868   2.944   4.867   3.846
51657SOL    HW256869   3.010   4.952   3.739
51658SOL     OW56870   2.029  10.578   4.037
51658SOL    HW156871   2.073  10.584   4.121
51658SOL    HW256872   1.946  10.534   4.057
51659SOL     OW56873   4.982  11.393  10.568
51659SOL    HW156874   5.034  11.461  10.612
51659SOL    HW256875   4.993  11.315  10.624
51660SOL     OW56876   1.594   4.616   0.586
51660SOL    HW156877   1.533   4.681   0.622
51660SOL    HW256878   1.640   4.581   0.662
51661SOL     OW56879   3.392   6.593  10.185
51661SOL    HW156880   3.301   6.609  10.213
51661SOL    HW256881   3.385   6.534  10.110
51662SOL     OW56882   3.842   2.955  12.767
51662SOL    HW156883   3.885   2.891  12.825
51662SOL    HW256884   3.884   2.942  12.682
51663SOL     OW56885   5.861  13.421   3.887
51663SOL    HW156886   5.934  13.367   3.856
51663SOL    HW256887   5.843  13.481   3.815
51664SOL     OW56888   9.626   0.037   7.136
51664SOL    HW156889   9.660  14.842   7.074
51664SOL    HW256890   9.703   0.088   7.163
51665SOL     OW56891  14.509  11.370   9.647
51665SOL    HW156892  14.493  11.280   9.673
51665SOL    HW256893  14.519  11.366   9.551
51666SOL     OW56894   2.633   5.906   4.693
51666SOL    HW156895   2.658   5.828   4.742
51666SOL    HW256896   2.716   5.951   4.676
51667SOL     OW56897   2.446   9.463   9.129
51667SOL    HW156898   2.452   9.392   9.192
51667SOL    HW256899   2.401   9.425   9.054
51668SOL     OW56900  10.934  11.139   1.550
51668SOL    HW156901  10.947  11.193   1.628
51668SOL    HW256902  10.849  11.098   1.562
51669SOL     OW56903   6.418   1.888   1.867
51669SOL    HW156904   6.422   1.981   1.846
51669SOL    HW256905   6.331   1.860   1.836
51670SOL     OW56906  14.480   2.927   4.402
51670SOL    HW156907  14.445   3.010   4.432
51670SOL    HW256908  14.522   2.948   4.318
51671SOL     OW56909   9.863   8.424  12.556
51671SOL    HW156910   9.888   8.347  12.606
51671SOL    HW256911   9.810   8.390  12.484
51672SOL     OW56912   5.837   5.765   9.734
51672SOL    HW156913   5.847   5.735   9.825
51672SOL    HW256914   5.799   5.690   9.689
51673SOL     OW56915  14.153  12.970  11.277
51673SOL    HW156916  14.182  13.060  11.293
51673SOL    HW256917  14.215  12.916  11.327
51674SOL     OW56918   0.583   3.245  11.102
51674SOL    HW156919   0.566   3.319  11.045
51674SOL    HW256920   0.499   3.227  11.144
51675SOL     OW56921   7.493  13.117   4.999
51675SOL    HW156922   7.441  13.150   5.072
51675SOL    HW256923   7.531  13.036   5.032
51676SOL     OW56924   9.172  10.702   1.398
51676SOL    HW156925   9.185  10.608   1.393
51676SOL    HW256926   9.077  10.713   1.404
51677SOL     OW56927   4.868   0.846  13.813
51677SOL    HW156928   4.810   0.772  13.828
51677SOL    HW256929   4.938   0.810  13.758
51678SOL     OW56930   0.302  10.634  12.447
51678SOL    HW156931   0.211  10.639  12.419
51678SOL    HW256932   0.353  10.646  12.366
51679SOL     OW56933   8.153  12.030   8.504
51679SOL    HW156934   8.075  11.987   8.469
51679SOL    HW256935   8.222  11.964   8.496
51680SOL     OW56936   4.723   2.976   0.705
51680SOL    HW156937   4.628   2.971   0.694
51680SOL    HW256938   4.737   3.057   0.754
51681SOL     OW56939   8.053   1.683  14.163
51681SOL    HW156940   7.986   1.616  14.148
51681SOL    HW256941   8.109   1.646  14.230
51682SOL     OW56942  13.896   2.142   5.045
51682SOL    HW156943  13.983   2.180   5.047
51682SOL    HW256944  13.844   2.198   5.103
51683SOL     OW56945   3.371   0.867   4.933
51683SOL    HW156946   3.277   0.885   4.946
51683SOL    HW256947   3.388   0.788   4.984
51684SOL     OW56948  13.634   7.760  11.706
51684SOL    HW156949  13.634   7.667  11.685
51684SOL    HW256950  13.543   7.787  11.695
51685SOL     OW56951  11.113  12.107   9.571
51685SOL    HW156952  11.115  12.157   9.653
51685SOL    HW256953  11.140  12.019   9.596
51686SOL     OW56954   7.764   0.205   2.624
51686SOL    HW156955   7.794   0.191   2.714
51686SOL    HW256956   7.713   0.287   2.629
51687SOL     OW56957   4.238   3.430   3.294
51687SOL    HW156958   4.162   3.437   3.351
51687SOL    HW256959   4.313   3.443   3.352
51688SOL     OW56960   4.750  11.537   3.210
51688SOL    HW156961   4.762  11.632   3.219
51688SOL    HW256962   4.821  11.499   3.262
51689SOL     OW56963   5.872  13.890   5.395
51689SOL    HW156964   5.965  13.878   5.375
51689SOL    HW256965   5.867  13.888   5.491
51690SOL     OW56966   7.759   3.128   3.482
51690SOL    HW156967   7.720   3.200   3.432
51690SOL    HW256968   7.687   3.066   3.494
51691SOL     OW56969   6.077   0.610  14.571
51691SOL    HW156970   5.994   0.607  14.524
51691SOL    HW256971   6.074   0.692  14.620
51692SOL     OW56972  13.763  12.502   2.679
51692SOL    HW156973  13.800  12.423   2.639
51692SOL    HW256974  13.691  12.470   2.733
51693SOL     OW56975  13.272   4.397   5.233
51693SOL    HW156976  13.268   4.482   5.277
51693SOL    HW256977  13.240   4.414   5.145
51694SOL     OW56978   1.022   0.455  11.210
51694SOL    HW156979   1.022   0.474  11.304
51694SOL    HW256980   0.938   0.412  11.194
51695SOL     OW56981   7.628   0.669  14.658
51695SOL    HW156982   7.603   0.598  14.718
51695SOL    HW256983   7.724   0.670  14.661
51696SOL     OW56984  12.563   0.092  14.207
51696SOL    HW156985  12.468   0.098  14.204
51696SOL    HW256986  12.581   0.003  14.238
51697SOL     OW56987  12.908   3.380   5.336
51697SOL    HW156988  12.980   3.411   5.391
51697SOL    HW256989  12.847   3.340   5.398
51698SOL     OW56990   8.686  11.601   0.724
51698SOL    HW156991   8.714  11.664   0.658
51698SOL    HW256992   8.615  11.645   0.772
51699SOL     OW56993   3.815  10.479   3.704
51699SOL    HW156994   3.893  10.500   3.653
51699SOL    HW256995   3.788  10.563   3.742
51700SOL     OW56996  13.711   2.619   4.727
51700SOL    HW156997  13.691   2.539   4.677
51700SOL    HW256998  13.801   2.608   4.755
51701SOL     OW56999   7.720   2.324  10.537
51701SOL    HW157000   7.712   2.325  10.633
51701SOL    HW257001   7.653   2.386  10.508
51702SOL     OW57002   8.607   8.596   3.137
51702SOL    HW157003   8.602   8.597   3.042
51702SOL    HW257004   8.630   8.506   3.159
51703SOL     OW57005   4.408   9.556   7.292
51703SOL    HW157006   4.434   9.598   7.374
51703SOL    HW257007   4.387   9.628   7.233
51704SOL     OW57008   7.245   8.027   7.305
51704SOL    HW157009   7.189   8.021   7.383
51704SOL    HW257010   7.281   8.116   7.309
51705SOL     OW57011   2.619  10.705   7.287
51705SOL    HW157012   2.612  10.616   7.324
51705SOL    HW257013   2.622  10.691   7.192
51706SOL     OW57014   6.293  14.332  10.520
51706SOL    HW157015   6.275  14.239  10.528
51706SOL    HW257016   6.224  14.366  10.463
51707SOL     OW57017   2.160   9.592   1.363
51707SOL    HW157018   2.171   9.581   1.268
51707SOL    HW257019   2.182   9.506   1.400
51708SOL     OW57020   6.535   4.430  10.520
51708SOL    HW157021   6.549   4.422  10.425
51708SOL    HW257022   6.554   4.522  10.539
51709SOL     OW57023   7.138   8.722   6.107
51709SOL    HW157024   7.124   8.816   6.121
51709SOL    HW257025   7.224   8.716   6.067
51710SOL     OW57026   5.232  12.322   8.102
51710SOL    HW157027   5.212  12.343   8.011
51710SOL    HW257028   5.244  12.228   8.103
51711SOL     OW57029   2.431  11.169   7.286
51711SOL    HW157030   2.343  11.136   7.271
51711SOL    HW257031   2.489  11.102   7.251
51712SOL     OW57032   8.968  11.911   2.639
51712SOL    HW157033   9.016  11.946   2.714
51712SOL    HW257034   8.936  11.988   2.593
51713SOL     OW57035   0.734  11.984   0.691
51713SOL    HW157036   0.779  11.957   0.772
51713SOL    HW257037   0.724  12.079   0.701
51714SOL     OW57038   2.965  12.659  12.069
51714SOL    HW157039   3.026  12.689  12.003
51714SOL    HW257040   2.947  12.736  12.123
51715SOL     OW57041   6.516   6.824  13.432
51715SOL    HW157042   6.595   6.809  13.381
51715SOL    HW257043   6.526   6.768  13.509
51716SOL     OW57044   8.189   2.563   8.117
51716SOL    HW157045   8.260   2.531   8.173
51716SOL    HW257046   8.110   2.524   8.154
51717SOL     OW57047   0.733   8.338  12.611
51717SOL    HW157048   0.810   8.310  12.661
51717SOL    HW257049   0.715   8.266  12.551
51718SOL     OW57050   1.665   4.054   2.007
51718SOL    HW157051   1.665   4.003   1.927
51718SOL    HW257052   1.748   4.101   2.007
51719SOL     OW57053  13.008   7.260   2.135
51719SOL    HW157054  12.989   7.185   2.191
51719SOL    HW257055  13.104   7.264   2.130
51720SOL     OW57056   7.294  11.025   4.678
51720SOL    HW157057   7.366  10.999   4.736
51720SOL    HW257058   7.215  11.008   4.730
51721SOL     OW57059   5.041   4.130  11.996
51721SOL    HW157060   5.031   4.174  11.912
51721SOL    HW257061   4.958   4.147  12.041
51722SOL     OW57062  14.800   0.635  10.605
51722SOL    HW157063  14.812   0.561  10.545
51722SOL    HW257064  14.709   0.627  10.635
51723SOL     OW57065  13.618   8.014   6.055
51723SOL    HW157066  13.699   8.018   6.003
51723SOL    HW257067  13.608   8.103   6.090
51724SOL     OW57068   6.742  13.953   3.887
51724SOL    HW157069   6.721  14.042   3.857
51724SOL    HW257070   6.769  13.965   3.978
51725SOL     OW57071   9.373   0.200   3.061
51725SOL    HW157072   9.467   0.198   3.081
51725SOL    HW257073   9.352   0.110   3.036
51726SOL     OW57074   9.280   3.700   4.190
51726SOL    HW157075   9.195   3.739   4.168
51726SOL    HW257076   9.261   3.639   4.261
51727SOL     OW57077   4.914   6.539   4.347
51727SOL    HW157078   4.883   6.465   4.400
51727SOL    HW257079   4.973   6.499   4.283
51728SOL     OW57080  12.900   1.052  14.667
51728SOL    HW157081  12.848   0.978  14.697
51728SOL    HW257082  12.862   1.077  14.583
51729SOL     OW57083  11.004  11.582   0.998
51729SOL    HW157084  10.988  11.676   1.010
51729SOL    HW257085  10.919  11.547   0.969
51730SOL     OW57086  14.314   3.521   8.728
51730SOL    HW157087  14.361   3.438   8.737
51730SOL    HW257088  14.373   3.586   8.764
51731SOL     OW57089   6.117   4.158  13.629
51731SOL    HW157090   6.188   4.160  13.693
51731SOL    HW257091   6.108   4.249  13.600
51732SOL     OW57092   8.161  12.359   2.955
51732SOL    HW157093   8.126  12.441   2.921
51732SOL    HW257094   8.256  12.369   2.947
51733SOL     OW57095   4.009   1.312   1.233
51733SOL    HW157096   4.030   1.405   1.232
51733SOL    HW257097   4.043   1.280   1.317
51734SOL     OW57098  10.318  10.421   7.865
51734SOL    HW157099  10.271  10.342   7.891
51734SOL    HW257100  10.385  10.390   7.804
51735SOL     OW57101   4.289   6.202   0.605
51735SOL    HW157102   4.340   6.155   0.539
51735SOL    HW257103   4.202   6.210   0.567
51736SOL     OW57104   7.636  13.562   5.997
51736SOL    HW157105   7.660  13.482   6.044
51736SOL    HW257106   7.551  13.587   6.034
51737SOL     OW57107   3.256   9.755  11.873
51737SOL    HW157108   3.233   9.683  11.814
51737SOL    HW257109   3.185   9.818  11.864
51738SOL     OW57110  13.491   7.846  10.702
51738SOL    HW157111  13.442   7.926  10.720
51738SOL    HW257112  13.536   7.827  10.784
51739SOL     OW57113   1.230   0.949   9.157
51739SOL    HW157114   1.226   1.040   9.186
51739SOL    HW257115   1.139   0.925   9.141
51740SOL     OW57116   1.693   7.928  13.604
51740SOL    HW157117   1.687   7.887  13.690
51740SOL    HW257118   1.707   8.021  13.623
51741SOL     OW57119  10.120   8.446   3.334
51741SOL    HW157120  10.117   8.541   3.326
51741SOL    HW257121  10.032   8.416   3.310
51742SOL     OW57122   9.443   4.785   5.421
51742SOL    HW157123   9.373   4.753   5.477
51742SOL    HW257124   9.410   4.774   5.332
51743SOL     OW57125   0.399   0.176   4.376
51743SOL    HW157126   0.329   0.135   4.324
51743SOL    HW257127   0.353   0.230   4.440
51744SOL     OW57128   0.594   5.610   5.427
51744SOL    HW157129   0.599   5.639   5.518
51744SOL    HW257130   0.683   5.619   5.394
51745SOL     OW57131   8.224   6.052   1.538
51745SOL    HW157132   8.295   6.019   1.483
51745SOL    HW257133   8.219   6.145   1.518
51746SOL     OW57134  14.185  13.560   2.725
51746SOL    HW157135  14.150  13.596   2.806
51746SOL    HW257136  14.273  13.595   2.719
51747SOL     OW57137   7.653   1.751   6.038
51747SOL    HW157138   7.730   1.704   6.069
51747SOL    HW257139   7.586   1.684   6.027
51748SOL     OW57140   0.924   6.793  11.145
51748SOL    HW157141   0.995   6.851  11.119
51748SOL    HW257142   0.954   6.706  11.122
51749SOL     OW57143   4.987   5.975  10.667
51749SOL    HW157144   4.894   5.974  10.641
51749SOL    HW257145   4.992   6.046  10.732
51750SOL     OW57146  12.071   9.147  14.383
51750SOL    HW157147  12.015   9.168  14.309
51750SOL    HW257148  12.156   9.186  14.362
51751SOL     OW57149   6.516   7.416   8.789
51751SOL    HW157150   6.487   7.489   8.734
51751SOL    HW257151   6.464   7.342   8.760
51752SOL     OW57152  14.243  11.423  13.632
51752SOL    HW157153  14.168  11.429  13.573
51752SOL    HW257154  14.235  11.499  13.690
51753SOL     OW57155   2.390  11.011   4.973
51753SOL    HW157156   2.309  11.053   5.002
51753SOL    HW257157   2.439  11.081   4.930
51754SOL     OW57158   3.412   1.599   9.114
51754SOL    HW157159   3.484   1.663   9.110
51754SOL    HW257160   3.432   1.546   9.191
51755SOL     OW57161   8.036   9.538   7.640
51755SOL    HW157162   8.121   9.583   7.634
51755SOL    HW257163   8.037   9.498   7.727
51756SOL     OW57164  11.808   7.004   6.640
51756SOL    HW157165  11.794   7.096   6.618
51756SOL    HW257166  11.896   6.985   6.607
51757SOL     OW57167   3.122   9.185   9.824
51757SOL    HW157168   3.181   9.151   9.757
51757SOL    HW257169   3.051   9.227   9.775
51758SOL     OW57170  12.342   2.411   3.475
51758SOL    HW157171  12.422   2.434   3.428
51758SOL    HW257172  12.353   2.448   3.562
51759SOL     OW57173   4.697  12.812  11.725
51759SOL    HW157174   4.727  12.866  11.652
51759SOL    HW257175   4.772  12.758  11.748
51760SOL     OW57176  12.547  11.719  13.792
51760SOL    HW157177  12.592  11.649  13.840
51760SOL    HW257178  12.484  11.673  13.737
51761SOL     OW57179   7.125   1.065   0.998
51761SOL    HW157180   7.208   1.107   0.976
51761SOL    HW257181   7.089   1.120   1.068
51762SOL     OW57182   8.002  10.631   2.579
51762SOL    HW157183   7.943  10.636   2.654
51762SOL    HW257184   8.065  10.702   2.594
51763SOL     OW57185   8.236   2.593   4.563
51763SOL    HW157186   8.281   2.600   4.648
51763SOL    HW257187   8.183   2.672   4.557
51764SOL     OW57188   4.862   7.322  12.701
51764SOL    HW157189   4.770   7.343  12.715
51764SOL    HW257190   4.860   7.244  12.645
51765SOL     OW57191   7.466   5.207   6.016
51765SOL    HW157192   7.422   5.278   5.970
51765SOL    HW257193   7.429   5.127   5.978
51766SOL     OW57194   9.181   5.896   8.592
51766SOL    HW157195   9.218   5.821   8.640
51766SOL    HW257196   9.128   5.942   8.657
51767SOL     OW57197   2.445  10.013  14.740
51767SOL    HW157198   2.492  10.065  14.676
51767SOL    HW257199   2.356  10.005  14.704
51768SOL     OW57200   8.244  11.412   8.921
51768SOL    HW157201   8.316  11.354   8.943
51768SOL    HW257202   8.174  11.354   8.892
51769SOL     OW57203   6.221   8.263   1.481
51769SOL    HW157204   6.309   8.235   1.507
51769SOL    HW257205   6.164   8.229   1.550
51770SOL     OW57206  10.169   6.378   1.206
51770SOL    HW157207  10.255   6.396   1.170
51770SOL    HW257208  10.117   6.456   1.187
51771SOL     OW57209  14.021   0.920  11.298
51771SOL    HW157210  14.008   0.925  11.392
51771SOL    HW257211  13.936   0.944  11.260
51772SOL     OW57212   3.031   6.619   4.728
51772SOL    HW157213   3.084   6.605   4.807
51772SOL    HW257214   3.081   6.578   4.658
51773SOL     OW57215  12.387  10.397   2.916
51773SOL    HW157216  12.479  10.378   2.937
51773SOL    HW257217  12.364  10.468   2.976
51774SOL     OW57218   4.185   7.311   1.147
51774SOL    HW157219   4.179   7.406   1.148
51774SOL    HW257220   4.125   7.283   1.077
51775SOL     OW57221   4.069   5.296  11.915
51775SOL    HW157222   4.031   5.289  11.828
51775SOL    HW257223   4.154   5.338  11.902
51776SOL     OW57224   7.225   9.404   9.348
51776SOL    HW157225   7.201   9.320   9.311
51776SOL    HW257226   7.143   9.439   9.384
51777SOL     OW57227  10.153   7.949   7.089
51777SOL    HW157228  10.191   8.016   7.033
51777SOL    HW257229  10.174   7.977   7.178
51778SOL     OW57230   8.089   7.037  14.102
51778SOL    HW157231   8.156   6.969  14.105
51778SOL    HW257232   8.045   7.023  14.018
51779SOL     OW57233  11.848   8.750  11.277
51779SOL    HW157234  11.904   8.791  11.342
51779SOL    HW257235  11.809   8.824  11.230
51780SOL     OW57236  13.661  12.832   4.135
51780SOL    HW157237  13.638  12.739   4.131
51780SOL    HW257238  13.628  12.861   4.220
51781SOL     OW57239  13.698  10.495  13.091
51781SOL    HW157240  13.649  10.444  13.027
51781SOL    HW257241  13.788  10.461  13.087
51782SOL     OW57242   2.581  10.924   8.103
51782SOL    HW157243   2.535  10.871   8.169
51782SOL    HW257244   2.662  10.950   8.146
51783SOL     OW57245   7.418   8.964   5.829
51783SOL    HW157246   7.413   9.002   5.917
51783SOL    HW257247   7.460   9.032   5.776
51784SOL     OW57248   7.428  13.427   0.159
51784SOL    HW157249   7.430  13.393   0.069
51784SOL    HW257250   7.461  13.355   0.213
51785SOL     OW57251   2.712   1.171  10.960
51785SOL    HW157252   2.804   1.142  10.965
51785SOL    HW257253   2.688   1.190  11.050
51786SOL     OW57254  14.142   0.789  14.097
51786SOL    HW157255  14.145   0.741  14.014
51786SOL    HW257256  14.225   0.838  14.099
51787SOL     OW57257  12.886  14.512  12.245
51787SOL    HW157258  12.860  14.526  12.154
51787SOL    HW257259  12.978  14.486  12.240
51788SOL     OW57260   8.397   8.880   0.622
51788SOL    HW157261   8.407   8.785   0.613
51788SOL    HW257262   8.373   8.894   0.713
51789SOL     OW57263   5.845  14.114  11.834
51789SOL    HW157264   5.938  14.092  11.846
51789SOL    HW257265   5.802  14.079  11.912
51790SOL     OW57266  13.466   2.083   5.838
51790SOL    HW157267  13.514   2.107   5.758
51790SOL    HW257268  13.450   2.165   5.883
51791SOL     OW57269   6.345   8.935   7.521
51791SOL    HW157270   6.320   8.850   7.484
51791SOL    HW257271   6.292   8.943   7.600
51792SOL     OW57272   2.249  11.381   6.848
51792SOL    HW157273   2.315  11.319   6.820
51792SOL    HW257274   2.220  11.424   6.768
51793SOL     OW57275   2.557   0.582   3.362
51793SOL    HW157276   2.631   0.620   3.409
51793SOL    HW257277   2.582   0.586   3.269
51794SOL     OW57278  13.122   1.986   9.159
51794SOL    HW157279  13.134   2.077   9.132
51794SOL    HW257280  13.117   1.936   9.077
51795SOL     OW57281   5.773   8.623   8.064
51795SOL    HW157282   5.766   8.716   8.088
51795SOL    HW257283   5.743   8.576   8.142
51796SOL     OW57284   9.176  13.118   5.524
51796SOL    HW157285   9.191  13.027   5.497
51796SOL    HW257286   9.262  13.160   5.517
51797SOL     OW57287   1.113   8.478  10.998
51797SOL    HW157288   1.149   8.500  11.084
51797SOL    HW257289   1.043   8.415  11.016
51798SOL     OW57290   6.998  14.255   8.614
51798SOL    HW157291   6.934  14.187   8.638
51798SOL    HW257292   7.031  14.227   8.528
51799SOL     OW57293  13.588  10.351   1.244
51799SOL    HW157294  13.524  10.350   1.315
51799SOL    HW257295  13.555  10.287   1.181
51800SOL     OW57296   2.819   5.742   9.340
51800SOL    HW157297   2.765   5.820   9.331
51800SOL    HW257298   2.820   5.703   9.253
51801SOL     OW57299   7.760   2.132   9.833
51801SOL    HW157300   7.802   2.215   9.855
51801SOL    HW257301   7.818   2.092   9.769
51802SOL     OW57302   2.284  11.975   1.899
51802SOL    HW157303   2.202  11.931   1.921
51802SOL    HW257304   2.258  12.062   1.870
51803SOL     OW57305  11.103  12.123   6.287
51803SOL    HW157306  11.018  12.161   6.265
51803SOL    HW257307  11.092  12.029   6.268
51804SOL     OW57308   4.794   7.863   2.125
51804SOL    HW157309   4.875   7.904   2.093
51804SOL    HW257310   4.750   7.933   2.174
51805SOL     OW57311  13.789   7.598   6.151
51805SOL    HW157312  13.694   7.606   6.161
51805SOL    HW257313  13.818   7.556   6.232
51806SOL     OW57314  10.353   2.859   1.234
51806SOL    HW157315  10.303   2.862   1.152
51806SOL    HW257316  10.389   2.947   1.243
51807SOL     OW57317   0.790   0.618  14.475
51807SOL    HW157318   0.723   0.590  14.537
51807SOL    HW257319   0.835   0.538  14.450
51808SOL     OW57320   0.665   1.351  11.442
51808SOL    HW157321   0.613   1.323  11.366
51808SOL    HW257322   0.663   1.446  11.438
51809SOL     OW57323   3.362   6.334  11.545
51809SOL    HW157324   3.398   6.340  11.634
51809SOL    HW257325   3.438   6.340  11.488
51810SOL     OW57326   0.824   9.728   0.111
51810SOL    HW157327   0.841   9.799   0.173
51810SOL    HW257328   0.897   9.667   0.124
51811SOL     OW57329  14.773  10.210  13.894
51811SOL    HW157330  14.775  10.285  13.952
51811SOL    HW257331  14.849  10.157  13.920
51812SOL     OW57332   0.445  13.053   8.811
51812SOL    HW157333   0.526  13.054   8.760
51812SOL    HW257334   0.422  13.145   8.823
51813SOL     OW57335  14.694   6.529   4.821
51813SOL    HW157336  14.777   6.575   4.833
51813SOL    HW257337  14.635   6.594   4.784
51814SOL     OW57338   7.932   2.471  12.688
51814SOL    HW157339   7.961   2.530  12.618
51814SOL    HW257340   7.855   2.427  12.651
51815SOL     OW57341   4.446  13.792   5.064
51815SOL    HW157342   4.398  13.859   5.112
51815SOL    HW257343   4.538  13.810   5.084
51816SOL     OW57344   4.256   2.967  14.419
51816SOL    HW157345   4.277   2.899  14.355
51816SOL    HW257346   4.286   3.049  14.378
51817SOL     OW57347   0.462   3.437   9.500
51817SOL    HW157348   0.542   3.471   9.539
51817SOL    HW257349   0.486   3.415   9.410
51818SOL     OW57350   1.132  14.572  10.447
51818SOL    HW157351   1.051  14.624  10.442
51818SOL    HW257352   1.109  14.497  10.502
51819SOL     OW57353  10.440  11.671  14.128
51819SOL    HW157354  10.532  11.646  14.135
51819SOL    HW257355  10.396  11.621  14.196
51820SOL     OW57356  13.724   5.672   6.094
51820SOL    HW157357  13.682   5.653   6.010
51820SOL    HW257358  13.692   5.603   6.152
51821SOL     OW57359   0.071  10.872   8.547
51821SOL    HW157360   0.062  10.944   8.484
51821SOL    HW257361   0.158  10.884   8.584
51822SOL     OW57362   5.907   2.218   5.681
51822SOL    HW157363   5.988   2.189   5.721
51822SOL    HW257364   5.910   2.182   5.592
51823SOL     OW57365  11.118   6.992   6.780
51823SOL    HW157366  11.029   7.012   6.809
51823SOL    HW257367  11.113   6.992   6.685
51824SOL     OW57368   1.074  12.359   3.047
51824SOL    HW157369   1.064  12.401   3.132
51824SOL    HW257370   0.985  12.334   3.022
51825SOL     OW57371  12.647   6.742  14.477
51825SOL    HW157372  12.599   6.701  14.405
51825SOL    HW257373  12.580   6.762  14.542
51826SOL     OW57374   6.935   9.185   0.017
51826SOL    HW157375   6.881   9.106   0.024
51826SOL    HW257376   6.892   9.238  14.819
51827SOL     OW57377   7.699  10.313   8.570
51827SOL    HW157378   7.695  10.249   8.498
51827SOL    HW257379   7.748  10.268   8.639
51828SOL     OW57380   7.955   9.928   3.206
51828SOL    HW157381   8.033   9.974   3.176
51828SOL    HW257382   7.899   9.920   3.128
51829SOL     OW57383  13.678  10.152  11.379
51829SOL    HW157384  13.608  10.157  11.444
51829SOL    HW257385  13.665  10.067  11.337
51830SOL     OW57386   6.838   2.970   0.301
51830SOL    HW157387   6.910   2.919   0.264
51830SOL    HW257388   6.857   2.975   0.395
51831SOL     OW57389   2.581   7.998   3.445
51831SOL    HW157390   2.618   7.949   3.372
51831SOL    HW257391   2.657   8.037   3.489
51832SOL     OW57392   7.733   6.179   7.880
51832SOL    HW157393   7.809   6.149   7.831
51832SOL    HW257394   7.764   6.191   7.969
51833SOL     OW57395  12.069   1.745   4.035
51833SOL    HW157396  12.112   1.660   4.030
51833SOL    HW257397  12.030   1.747   4.123
51834SOL     OW57398   0.668   6.328   5.354
51834SOL    HW157399   0.658   6.288   5.441
51834SOL    HW257400   0.763   6.335   5.342
51835SOL     OW57401  11.179   7.134   1.808
51835SOL    HW157402  11.237   7.167   1.876
51835SOL    HW257403  11.109   7.200   1.803
51836SOL     OW57404  13.779  13.541   5.870
51836SOL    HW157405  13.684  13.544   5.859
51836SOL    HW257406  13.807  13.464   5.821
51837SOL     OW57407   6.169   6.264   2.815
51837SOL    HW157408   6.094   6.271   2.756
51837SOL    HW257409   6.144   6.317   2.891
51838SOL     OW57410   7.678   4.955  13.280
51838SOL    HW157411   7.635   4.884  13.232
51838SOL    HW257412   7.759   4.916  13.313
51839SOL     OW57413   9.354   4.463   4.681
51839SOL    HW157414   9.427   4.464   4.620
51839SOL    HW257415   9.317   4.551   4.676
51840SOL     OW57416   6.397   6.918  11.883
51840SOL    HW157417   6.372   6.849  11.945
51840SOL    HW257418   6.342   6.992  11.907
51841SOL     OW57419   4.198   9.407  12.248
51841SOL    HW157420   4.260   9.459  12.197
51841SOL    HW257421   4.147   9.359  12.183
51842SOL     OW57422   2.009  14.165  10.849
51842SOL    HW157423   1.943  14.157  10.918
51842SOL    HW257424   2.012  14.078  10.809
51843SOL     OW57425   2.960   3.319   5.881
51843SOL    HW157426   2.892   3.253   5.864
51843SOL    HW257427   2.950   3.339   5.974
51844SOL     OW57428  12.185   7.287  12.525
51844SOL    HW157429  12.169   7.344  12.601
51844SOL    HW257430  12.265   7.323  12.486
51845SOL     OW57431   2.802  11.777   2.404
51845SOL    HW157432   2.719  11.790   2.451
51845SOL    HW257433   2.800  11.842   2.334
51846SOL     OW57434   9.288  14.341   8.824
51846SOL    HW157435   9.216  14.285   8.852
51846SOL    HW257436   9.250  14.398   8.758
51847SOL     OW57437   9.935   9.180   5.399
51847SOL    HW157438  10.008   9.118   5.398
51847SOL    HW257439   9.889   9.163   5.316
51848SOL     OW57440   9.423  14.123   1.586
51848SOL    HW157441   9.425  14.042   1.535
51848SOL    HW257442   9.514  14.154   1.586
51849SOL     OW57443  11.483  13.958   5.246
51849SOL    HW157444  11.447  13.873   5.271
51849SOL    HW257445  11.482  13.958   5.150
51850SOL     OW57446  11.028   6.395  12.180
51850SOL    HW157447  11.004   6.468  12.124
51850SOL    HW257448  11.124   6.396  12.181
51851SOL     OW57449  13.182   0.528   9.277
51851SOL    HW157450  13.131   0.594   9.229
51851SOL    HW257451  13.118   0.485   9.333
51852SOL     OW57452   2.077  10.954   3.255
51852SOL    HW157453   2.070  10.972   3.349
51852SOL    HW257454   2.088  10.859   3.249
51853SOL     OW57455   5.457   3.891   4.739
51853SOL    HW157456   5.408   3.971   4.762
51853SOL    HW257457   5.439   3.879   4.646
51854SOL     OW57458   6.072   3.853   4.470
51854SOL    HW157459   6.124   3.773   4.463
51854SOL    HW257460   6.000   3.829   4.528
51855SOL     OW57461  10.659   3.081   8.338
51855SOL    HW157462  10.607   3.111   8.412
51855SOL    HW257463  10.740   3.048   8.377
51856SOL     OW57464   2.558   9.537  12.120
51856SOL    HW157465   2.549   9.631  12.109
51856SOL    HW257466   2.603   9.527  12.205
51857SOL     OW57467   7.059   6.646   6.700
51857SOL    HW157468   7.016   6.578   6.752
51857SOL    HW257469   7.003   6.723   6.711
51858SOL     OW57470   4.535   4.508   0.008
51858SOL    HW157471   4.545   4.553  14.793
51858SOL    HW257472   4.512   4.418  14.854
51859SOL     OW57473   9.191   8.453   3.674
51859SOL    HW157474   9.135   8.391   3.719
51859SOL    HW257475   9.207   8.523   3.738
51860SOL     OW57476   2.820   7.926   0.041
51860SOL    HW157477   2.825   7.869   0.118
51860SOL    HW257478   2.822   8.015   0.076
51861SOL     OW57479   6.792   5.660  13.422
51861SOL    HW157480   6.799   5.751  13.393
51861SOL    HW257481   6.771   5.666  13.515
51862SOL     OW57482  14.320  10.033  12.316
51862SOL    HW157483  14.376   9.967  12.358
51862SOL    HW257484  14.249   9.982  12.277
51863SOL     OW57485   6.344  14.262   7.231
51863SOL    HW157486   6.399  14.312   7.290
51863SOL    HW257487   6.364  14.170   7.251
51864SOL     OW57488   9.368   5.689   0.460
51864SOL    HW157489   9.297   5.658   0.403
51864SOL    HW257490   9.393   5.612   0.510
51865SOL     OW57491   7.732   1.338   4.089
51865SOL    HW157492   7.759   1.430   4.098
51865SOL    HW257493   7.646   1.335   4.129
51866SOL     OW57494  11.417   8.887  13.973
51866SOL    HW157495  11.408   8.825  14.046
51866SOL    HW257496  11.473   8.843  13.910
51867SOL     OW57497   9.214   2.282  10.223
51867SOL    HW157498   9.269   2.298  10.146
51867SOL    HW257499   9.174   2.367  10.241
51868SOL     OW57500  11.396  14.306   2.953
51868SOL    HW157501  11.478  14.272   2.989
51868SOL    HW257502  11.413  14.313   2.859
51869SOL     OW57503   8.514   5.639  13.728
51869SOL    HW157504   8.510   5.670  13.637
51869SOL    HW257505   8.441   5.578  13.736
51870SOL     OW57506  12.000   1.607   5.345
51870SOL    HW157507  11.995   1.655   5.427
51870SOL    HW257508  12.057   1.532   5.364
51871SOL     OW57509   1.420   2.707  13.887
51871SOL    HW157510   1.458   2.784  13.928
51871SOL    HW257511   1.326   2.725  13.885
51872SOL     OW57512  14.707  11.036  13.029
51872SOL    HW157513  14.778  11.004  12.974
51872SOL    HW257514  14.733  11.126  13.052
51873SOL     OW57515  14.040  11.703  11.137
51873SOL    HW157516  14.127  11.692  11.099
51873SOL    HW257517  14.054  11.758  11.214
51874SOL     OW57518   6.351   9.147  13.956
51874SOL    HW157519   6.324   9.173  14.045
51874SOL    HW257520   6.355   9.230  13.908
51875SOL     OW57521   6.207  12.523  12.156
51875SOL    HW157522   6.159  12.574  12.091
51875SOL    HW257523   6.296  12.558  12.152
51876SOL     OW57524  14.518  13.039   3.984
51876SOL    HW157525  14.507  13.130   4.010
51876SOL    HW257526  14.430  13.012   3.956
51877SOL     OW57527   3.852   8.131   2.426
51877SOL    HW157528   3.784   8.065   2.408
51877SOL    HW257529   3.869   8.171   2.341
51878SOL     OW57530  11.626  11.065  13.415
51878SOL    HW157531  11.711  11.083  13.457
51878SOL    HW257532  11.566  11.053  13.488
51879SOL     OW57533   7.627  11.050   3.246
51879SOL    HW157534   7.657  11.114   3.181
51879SOL    HW257535   7.539  11.026   3.217
51880SOL     OW57536   3.428   3.754   5.752
51880SOL    HW157537   3.462   3.779   5.838
51880SOL    HW257538   3.486   3.799   5.690
51881SOL     OW57539   8.698   2.359   0.291
51881SOL    HW157540   8.630   2.415   0.330
51881SOL    HW257541   8.658   2.326   0.211
51882SOL     OW57542  11.946   5.407   3.576
51882SOL    HW157543  11.868   5.360   3.603
51882SOL    HW257544  11.988   5.434   3.658
51883SOL     OW57545   0.697  13.519   1.021
51883SOL    HW157546   0.711  13.492   0.930
51883SOL    HW257547   0.762  13.587   1.037
51884SOL     OW57548   9.703  10.634   7.701
51884SOL    HW157549   9.714  10.727   7.682
51884SOL    HW257550   9.747  10.620   7.784
51885SOL     OW57551   4.550   3.619   7.589
51885SOL    HW157552   4.543   3.703   7.543
51885SOL    HW257553   4.539   3.642   7.682
51886SOL     OW57554   7.810  11.648   6.894
51886SOL    HW157555   7.753  11.725   6.897
51886SOL    HW257556   7.771  11.587   6.957
51887SOL     OW57557  13.992   7.454  12.550
51887SOL    HW157558  13.916   7.406  12.583
51887SOL    HW257559  13.961   7.544  12.540
51888SOL     OW57560   1.100   4.135   0.763
51888SOL    HW157561   1.007   4.155   0.763
51888SOL    HW257562   1.108   4.055   0.711
51889SOL     OW57563   3.998   6.382  10.570
51889SOL    HW157564   3.932   6.384  10.501
51889SOL    HW257565   3.987   6.297  10.612
51890SOL     OW57566   5.207   7.100   6.747
51890SOL    HW157567   5.265   7.172   6.721
51890SOL    HW257568   5.263   7.023   6.748
51891SOL     OW57569  11.033   0.958  12.347
51891SOL    HW157570  11.060   1.028  12.288
51891SOL    HW257571  10.938   0.968  12.354
51892SOL     OW57572   1.252  14.686   9.748
51892SOL    HW157573   1.317  14.628   9.789
51892SOL    HW257574   1.213  14.734   9.821
51893SOL     OW57575   9.808   5.741   1.610
51893SOL    HW157576   9.833   5.654   1.641
51893SOL    HW257577   9.843   5.801   1.675
51894SOL     OW57578   5.335  11.265   9.538
51894SOL    HW157579   5.306  11.356   9.540
51894SOL    HW257580   5.428  11.269   9.563
51895SOL     OW57581  14.836   2.276   5.675
51895SOL    HW157582  14.803   2.340   5.739
51895SOL    HW257583  14.763   2.214   5.664
51896SOL     OW57584   6.083   1.325   2.681
51896SOL    HW157585   6.030   1.278   2.616
51896SOL    HW257586   6.019   1.367   2.738
51897SOL     OW57587  10.172  10.424   9.004
51897SOL    HW157588  10.082  10.393   8.997
51897SOL    HW257589  10.220  10.373   8.938
51898SOL     OW57590  13.940   6.151  12.930
51898SOL    HW157591  13.923   6.068  12.974
51898SOL    HW257592  13.854   6.193  12.925
51899SOL     OW57593   0.726  14.244   7.100
51899SOL    HW157594   0.676  14.232   7.181
51899SOL    HW257595   0.816  14.257   7.129
51900SOL     OW57596   3.071   3.632   8.545
51900SOL    HW157597   3.002   3.566   8.532
51900SOL    HW257598   3.151   3.588   8.517
51901SOL     OW57599   4.969  14.648   2.449
51901SOL    HW157600   4.917  14.712   2.497
51901SOL    HW257601   4.908  14.576   2.431
51902SOL     OW57602   3.370  14.048   3.985
51902SOL    HW157603   3.282  14.085   3.970
51902SOL    HW257604   3.428  14.125   3.985
51903SOL     OW57605   9.105   9.168  14.481
51903SOL    HW157606   9.031   9.229  14.471
51903SOL    HW257607   9.066   9.081  14.472
51904SOL     OW57608   7.744  14.572   3.394
51904SOL    HW157609   7.670  14.538   3.444
51904SOL    HW257610   7.729  14.666   3.390
51905SOL     OW57611   7.579  13.825   8.537
51905SOL    HW157612   7.490  13.788   8.538
51905SOL    HW257613   7.636  13.751   8.556
51906SOL     OW57614   1.582  14.596   2.744
51906SOL    HW157615   1.516  14.532   2.720
51906SOL    HW257616   1.662  14.567   2.700
51907SOL     OW57617   3.833   3.386   8.500
51907SOL    HW157618   3.797   3.472   8.522
51907SOL    HW257619   3.859   3.348   8.584
51908SOL     OW57620   8.928   1.143   1.870
51908SOL    HW157621   8.840   1.158   1.833
51908SOL    HW257622   8.986   1.146   1.794
51909SOL     OW57623   0.057  13.180  12.636
51909SOL    HW157624   0.077  13.162  12.727
51909SOL    HW257625   0.124  13.133  12.586
51910SOL     OW57626  12.559   5.564  10.018
51910SOL    HW157627  12.549   5.572   9.923
51910SOL    HW257628  12.540   5.472  10.036
51911SOL     OW57629  11.897   7.525  13.261
51911SOL    HW157630  11.839   7.509  13.186
51911SOL    HW257631  11.849   7.490  13.336
51912SOL     OW57632  14.074   7.003   2.945
51912SOL    HW157633  14.017   6.987   2.870
51912SOL    HW257634  14.163   6.990   2.912
51913SOL     OW57635   6.762  12.855  13.439
51913SOL    HW157636   6.685  12.812  13.402
51913SOL    HW257637   6.804  12.897  13.365
51914SOL     OW57638   6.669   4.418   6.990
51914SOL    HW157639   6.584   4.461   6.998
51914SOL    HW257640   6.732   4.485   7.015
51915SOL     OW57641   2.400   9.204   7.101
51915SOL    HW157642   2.361   9.174   7.019
51915SOL    HW257643   2.336   9.178   7.168
51916SOL     OW57644   9.506  12.196   2.805
51916SOL    HW157645   9.421  12.166   2.836
51916SOL    HW257646   9.566  12.125   2.826
51917SOL     OW57647  10.466   7.925   1.289
51917SOL    HW157648  10.470   8.014   1.324
51917SOL    HW257649  10.540   7.919   1.228
51918SOL     OW57650  13.921  13.158  12.747
51918SOL    HW157651  13.886  13.069  12.754
51918SOL    HW257652  13.890  13.203  12.826
51919SOL     OW57653   1.427   2.369  13.112
51919SOL    HW157654   1.436   2.401  13.022
51919SOL    HW257655   1.509   2.323  13.128
51920SOL     OW57656  10.383   7.710  12.318
51920SOL    HW157657  10.461   7.678  12.273
51920SOL    HW257658  10.415   7.777  12.378
51921SOL     OW57659   8.263   1.479   7.788
51921SOL    HW157660   8.307   1.434   7.860
51921SOL    HW257661   8.187   1.425   7.768
51922SOL     OW57662   0.169   5.034   6.763
51922SOL    HW157663   0.229   4.964   6.740
51922SOL    HW257664   0.083   4.992   6.764
51923SOL     OW57665   6.921   8.414  11.074
51923SOL    HW157666   6.848   8.377  11.124
51923SOL    HW257667   6.999   8.388  11.123
51924SOL     OW57668   0.874  13.126   3.710
51924SOL    HW157669   0.802  13.174   3.668
51924SOL    HW257670   0.866  13.037   3.677
51925SOL     OW57671   7.843   7.914   9.496
51925SOL    HW157672   7.801   7.902   9.411
51925SOL    HW257673   7.828   8.006   9.518
51926SOL     OW57674   9.103   9.008   7.269
51926SOL    HW157675   9.043   9.066   7.315
51926SOL    HW257676   9.097   9.035   7.177
51927SOL     OW57677   2.954  11.965   4.313
51927SOL    HW157678   3.043  11.993   4.292
51927SOL    HW257679   2.899  12.040   4.289
51928SOL     OW57680   0.377   8.645   6.423
51928SOL    HW157681   0.328   8.573   6.385
51928SOL    HW257682   0.330   8.667   6.504
51929SOL     OW57683  13.270  11.188  11.088
51929SOL    HW157684  13.297  11.274  11.120
51929SOL    HW257685  13.347  11.153  11.044
51930SOL     OW57686   3.287   1.033   5.979
51930SOL    HW157687   3.299   1.009   6.071
51930SOL    HW257688   3.330   1.119   5.971
51931SOL     OW57689   5.447   6.247  11.736
51931SOL    HW157690   5.498   6.193  11.676
51931SOL    HW257691   5.512   6.279  11.800
51932SOL     OW57692   9.556   1.441   4.563
51932SOL    HW157693   9.593   1.377   4.502
51932SOL    HW257694   9.525   1.388   4.636
51933SOL     OW57695   9.220   5.132  12.073
51933SOL    HW157696   9.140   5.140  12.020
51933SOL    HW257697   9.258   5.049  12.045
51934SOL     OW57698   4.682   3.218   7.381
51934SOL    HW157699   4.702   3.310   7.398
51934SOL    HW257700   4.678   3.177   7.467
51935SOL     OW57701   4.383   7.395  14.709
51935SOL    HW157702   4.469   7.355  14.715
51935SOL    HW257703   4.325   7.334  14.755
51936SOL     OW57704   1.724   1.335   8.592
51936SOL    HW157705   1.661   1.395   8.553
51936SOL    HW257706   1.768   1.295   8.517
51937SOL     OW57707  12.033  12.279  11.005
51937SOL    HW157708  12.027  12.326  10.922
51937SOL    HW257709  12.089  12.203  10.986
51938SOL     OW57710   3.288   5.149   4.700
51938SOL    HW157711   3.241   5.209   4.759
51938SOL    HW257712   3.309   5.074   4.755
51939SOL     OW57713   3.174   8.489  13.011
51939SOL    HW157714   3.172   8.400  12.976
51939SOL    HW257715   3.098   8.532  12.972
51940SOL     OW57716   7.080   9.675   4.429
51940SOL    HW157717   7.083   9.748   4.367
51940SOL    HW257718   7.039   9.712   4.508
51941SOL     OW57719   3.595  10.395   4.041
51941SOL    HW157720   3.536  10.351   4.103
51941SOL    HW257721   3.614  10.328   3.975
51942SOL     OW57722  14.806  10.656   5.509
51942SOL    HW157723  14.850  10.740   5.509
51942SOL    HW257724  14.757  10.655   5.427
51943SOL     OW57725  13.015   5.618  10.285
51943SOL    HW157726  13.053   5.531  10.274
51943SOL    HW257727  12.931   5.613  10.238
51944SOL     OW57728  12.707  11.501  13.892
51944SOL    HW157729  12.670  11.519  13.978
51944SOL    HW257730  12.757  11.421  13.903
51945SOL     OW57731  10.915   5.575   4.137
51945SOL    HW157732  10.878   5.514   4.201
51945SOL    HW257733  10.841   5.630   4.111
51946SOL     OW57734  12.100   3.456   6.075
51946SOL    HW157735  12.092   3.536   6.024
51946SOL    HW257736  12.103   3.385   6.010
51947SOL     OW57737   7.787  11.702  12.619
51947SOL    HW157738   7.807  11.757  12.695
51947SOL    HW257739   7.832  11.619  12.638
51948SOL     OW57740   1.312   1.795  12.324
51948SOL    HW157741   1.357   1.779  12.241
51948SOL    HW257742   1.306   1.708  12.365
51949SOL     OW57743   4.872  10.065   3.307
51949SOL    HW157744   4.909   9.987   3.347
51949SOL    HW257745   4.808  10.097   3.369
51950SOL     OW57746   6.736   6.668  11.188
51950SOL    HW157747   6.675   6.740  11.200
51950SOL    HW257748   6.789   6.668  11.268
51951SOL     OW57749   6.700  11.074   5.952
51951SOL    HW157750   6.755  11.052   6.027
51951SOL    HW257751   6.703  10.996   5.897
51952SOL     OW57752   6.444  12.088  12.905
51952SOL    HW157753   6.489  12.162  12.946
51952SOL    HW257754   6.484  12.011  12.946
51953SOL     OW57755   0.378  13.733   1.637
51953SOL    HW157756   0.359  13.826   1.647
51953SOL    HW257757   0.424  13.726   1.554
51954SOL     OW57758   4.470  13.918   6.455
51954SOL    HW157759   4.487  13.824   6.446
51954SOL    HW257760   4.398  13.924   6.517
51955SOL     OW57761  12.236   3.479   7.382
51955SOL    HW157762  12.269   3.419   7.314
51955SOL    HW257763  12.300   3.551   7.383
51956SOL     OW57764  13.533   3.485   0.099
51956SOL    HW157765  13.628   3.496   0.098
51956SOL    HW257766  13.507   3.509   0.188
51957SOL     OW57767   9.170   2.951  10.716
51957SOL    HW157768   9.091   3.005  10.722
51957SOL    HW257769   9.241   3.011  10.738
51958SOL     OW57770   6.740   9.437   2.068
51958SOL    HW157771   6.830   9.424   2.039
51958SOL    HW257772   6.719   9.527   2.044
51959SOL     OW57773   6.998   2.805   8.875
51959SOL    HW157774   7.059   2.819   8.947
51959SOL    HW257775   6.967   2.715   8.887
51960SOL     OW57776   8.821   9.652   7.845
51960SOL    HW157777   8.734   9.684   7.822
51960SOL    HW257778   8.849   9.601   7.769
51961SOL     OW57779   5.723   3.969   9.960
51961SOL    HW157780   5.736   4.062   9.938
51961SOL    HW257781   5.675   3.970  10.042
51962SOL     OW57782  10.579  14.438   4.960
51962SOL    HW157783  10.543  14.353   4.987
51962SOL    HW257784  10.604  14.425   4.869
51963SOL     OW57785   9.542  12.700   5.630
51963SOL    HW157786   9.632  12.706   5.599
51963SOL    HW257787   9.491  12.672   5.554
51964SOL     OW57788   3.662   1.401  12.886
51964SOL    HW157789   3.738   1.356  12.849
51964SOL    HW257790   3.678   1.494  12.868
51965SOL     OW57791   2.442  10.967   1.090
51965SOL    HW157792   2.366  10.950   1.144
51965SOL    HW257793   2.516  10.938   1.142
51966SOL     OW57794   2.532  13.240  10.187
51966SOL    HW157795   2.553  13.332  10.200
51966SOL    HW257796   2.470  13.239  10.113
51967SOL     OW57797   6.273   1.964   4.469
51967SOL    HW157798   6.361   1.986   4.500
51967SOL    HW257799   6.230   2.049   4.457
51968SOL     OW57800  10.912   9.136   5.706
51968SOL    HW157801  10.939   9.044   5.706
51968SOL    HW257802  10.843   9.140   5.640
51969SOL     OW57803   7.004   4.449   4.743
51969SOL    HW157804   7.007   4.358   4.772
51969SOL    HW257805   7.012   4.500   4.823
51970SOL     OW57806  13.837   6.558   3.455
51970SOL    HW157807  13.795   6.531   3.537
51970SOL    HW257808  13.773   6.538   3.387
51971SOL     OW57809   6.016   5.683  13.421
51971SOL    HW157810   6.025   5.721  13.508
51971SOL    HW257811   6.043   5.592  13.432
51972SOL     OW57812  14.473   6.762  13.492
51972SOL    HW157813  14.550   6.712  13.520
51972SOL    HW257814  14.475   6.840  13.547
51973SOL     OW57815   8.189  14.141   4.244
51973SOL    HW157816   8.140  14.223   4.234
51973SOL    HW257817   8.179  14.097   4.159
51974SOL     OW57818  11.561  14.520   8.876
51974SOL    HW157819  11.477  14.562   8.895
51974SOL    HW257820  11.610  14.528   8.958
51975SOL     OW57821  13.668   4.050   7.989
51975SOL    HW157822  13.756   4.086   7.976
51975SOL    HW257823  13.644   4.077   8.077
51976SOL     OW57824   2.222  11.396  13.869
51976SOL    HW157825   2.256  11.448  13.942
51976SOL    HW257826   2.155  11.340  13.910
51977SOL     OW57827   3.406  12.872  12.203
51977SOL    HW157828   3.432  12.960  12.229
51977SOL    HW257829   3.485  12.819  12.215
51978SOL     OW57830   6.523   5.984   8.684
51978SOL    HW157831   6.607   5.950   8.652
51978SOL    HW257832   6.513   6.068   8.640
51979SOL     OW57833  13.975   2.402   8.272
51979SOL    HW157834  13.918   2.328   8.250
51979SOL    HW257835  14.064   2.367   8.266
51980SOL     OW57836   9.118   9.048   6.571
51980SOL    HW157837   9.177   8.985   6.530
51980SOL    HW257838   9.174   9.121   6.597
51981SOL     OW57839   6.481  12.619  10.557
51981SOL    HW157840   6.532  12.569  10.621
51981SOL    HW257841   6.415  12.557  10.525
51982SOL     OW57842   7.031   9.046   4.576
51982SOL    HW157843   6.999   9.036   4.666
51982SOL    HW257844   6.996   8.970   4.530
51983SOL     OW57845   5.007   1.070   2.012
51983SOL    HW157846   4.912   1.086   2.015
51983SOL    HW257847   5.045   1.158   2.011
51984SOL     OW57848   3.077  13.438   6.946
51984SOL    HW157849   3.102  13.528   6.925
51984SOL    HW257850   3.058  13.398   6.861
51985SOL     OW57851   5.721  14.414   0.855
51985SOL    HW157852   5.703  14.414   0.949
51985SOL    HW257853   5.813  14.440   0.848
51986SOL     OW57854   6.530  11.509   6.747
51986SOL    HW157855   6.469  11.499   6.820
51986SOL    HW257856   6.533  11.423   6.706
51987SOL     OW57857  12.091   3.879  13.374
51987SOL    HW157858  12.084   3.975  13.372
51987SOL    HW257859  12.184   3.862  13.369
51988SOL     OW57860   1.806   0.809   7.448
51988SOL    HW157861   1.721   0.832   7.411
51988SOL    HW257862   1.799   0.832   7.541
51989SOL     OW57863   0.660   1.225   2.954
51989SOL    HW157864   0.739   1.198   3.001
51989SOL    HW257865   0.595   1.242   3.022
51990SOL     OW57866   4.685  10.181  13.015
51990SOL    HW157867   4.613  10.241  13.037
51990SOL    HW257868   4.651  10.095  13.037
51991SOL     OW57869  14.060   1.756   2.934
51991SOL    HW157870  14.060   1.851   2.939
51991SOL    HW257871  13.970   1.734   2.910
51992SOL     OW57872  10.070   7.555   7.016
51992SOL    HW157873  10.155   7.576   7.053
51992SOL    HW257874  10.007   7.597   7.074
51993SOL     OW57875   6.313   6.089  12.308
51993SOL    HW157876   6.350   6.064  12.393
51993SOL    HW257877   6.285   6.006  12.269
51994SOL     OW57878  10.314  11.305   7.508
51994SOL    HW157879  10.281  11.395   7.499
51994SOL    HW257880  10.267  11.256   7.440
51995SOL     OW57881  11.703   7.089   9.997
51995SOL    HW157882  11.645   7.124   9.930
51995SOL    HW257883  11.791   7.102   9.962
51996SOL     OW57884   0.246   2.234  11.061
51996SOL    HW157885   0.213   2.145  11.073
51996SOL    HW257886   0.272   2.238  10.968
51997SOL     OW57887  11.936   6.476   5.684
51997SOL    HW157888  11.965   6.391   5.719
51997SOL    HW257889  11.846   6.461   5.655
51998SOL     OW57890  11.767   9.922   1.858
51998SOL    HW157891  11.768   9.830   1.831
51998SOL    HW257892  11.695   9.960   1.807
51999SOL     OW57893   5.788  11.695   0.314
51999SOL    HW157894   5.765  11.775   0.361
51999SOL    HW257895   5.724  11.630   0.344
52000SOL     OW57896  13.380   9.830  12.407
52000SOL    HW157897  13.443   9.823  12.479
52000SOL    HW257898  13.317   9.760  12.424
52001SOL     OW57899   8.067   5.316  10.928
52001SOL    HW157900   8.028   5.384  10.983
52001SOL    HW257901   8.156   5.305  10.961
52002SOL     OW57902   0.752  11.535  13.851
52002SOL    HW157903   0.677  11.574  13.897
52002SOL    HW257904   0.755  11.581  13.767
52003SOL     OW57905  11.844   6.098  12.671
52003SOL    HW157906  11.892   6.093  12.754
52003SOL    HW257907  11.752   6.092  12.696
52004SOL     OW57908   4.366  11.855   1.789
52004SOL    HW157909   4.363  11.938   1.743
52004SOL    HW257910   4.459  11.839   1.805
52005SOL     OW57911   2.210   9.777   1.841
52005SOL    HW157912   2.190   9.704   1.782
52005SOL    HW257913   2.239   9.735   1.922
52006SOL     OW57914   6.523   1.393   0.755
52006SOL    HW157915   6.592   1.373   0.818
52006SOL    HW257916   6.461   1.447   0.804
52007SOL     OW57917   0.217   7.308   9.427
52007SOL    HW157918   0.202   7.382   9.368
52007SOL    HW257919   0.227   7.347   9.513
52008SOL     OW57920  12.096   6.935  10.614
52008SOL    HW157921  12.095   6.903  10.524
52008SOL    HW257922  12.040   7.012  10.613
52009SOL     OW57923  11.488   0.462   1.475
52009SOL    HW157924  11.495   0.500   1.562
52009SOL    HW257925  11.551   0.510   1.422
52010SOL     OW57926  12.959  14.199   6.902
52010SOL    HW157927  12.875  14.156   6.885
52010SOL    HW257928  12.962  14.271   6.840
52011SOL     OW57929   1.411  13.506  14.549
52011SOL    HW157930   1.323  13.529  14.520
52011SOL    HW257931   1.400  13.471  14.638
52012SOL     OW57932   0.179   1.858   3.765
52012SOL    HW157933   0.098   1.878   3.717
52012SOL    HW257934   0.160   1.882   3.855
52013SOL     OW57935   7.104   8.311  13.343
52013SOL    HW157936   7.145   8.241  13.395
52013SOL    HW257937   7.080   8.377  13.408
52014SOL     OW57938  11.167   8.535   8.302
52014SOL    HW157939  11.185   8.617   8.257
52014SOL    HW257940  11.099   8.556   8.366
52015SOL     OW57941   3.109   4.077   1.089
52015SOL    HW157942   3.178   4.041   1.145
52015SOL    HW257943   3.148   4.154   1.048
52016SOL     OW57944  10.664   0.351   9.493
52016SOL    HW157945  10.599   0.421   9.498
52016SOL    HW257946  10.635   0.286   9.556
52017SOL     OW57947   9.919   9.201  13.527
52017SOL    HW157948   9.898   9.117  13.485
52017SOL    HW257949  10.012   9.213  13.510
52018SOL     OW57950  14.231  12.503   8.198
52018SOL    HW157951  14.163  12.566   8.174
52018SOL    HW257952  14.213  12.427   8.144
52019SOL     OW57953   5.362  11.838   9.480
52019SOL    HW157954   5.437  11.859   9.536
52019SOL    HW257955   5.366  11.902   9.409
52020SOL     OW57956   2.189  12.974   5.046
52020SOL    HW157957   2.135  12.896   5.029
52020SOL    HW257958   2.173  13.030   4.971
52021SOL     OW57959   6.179  13.381   2.462
52021SOL    HW157960   6.236  13.371   2.538
52021SOL    HW257961   6.092  13.358   2.493
52022SOL     OW57962   4.824   4.128   8.554
52022SOL    HW157963   4.775   4.197   8.509
52022SOL    HW257964   4.799   4.137   8.645
52023SOL     OW57965  11.941   4.004   3.538
52023SOL    HW157966  11.855   3.966   3.521
52023SOL    HW257967  11.991   3.987   3.458
52024SOL     OW57968  10.290   5.675   0.491
52024SOL    HW157969  10.239   5.722   0.426
52024SOL    HW257970  10.265   5.715   0.575
52025SOL     OW57971   4.201   0.841   6.775
52025SOL    HW157972   4.270   0.839   6.709
52025SOL    HW257973   4.156   0.925   6.760
52026SOL     OW57974   1.694   8.579  13.127
52026SOL    HW157975   1.762   8.594  13.062
52026SOL    HW257976   1.622   8.539  13.078
52027SOL     OW57977   1.279  11.202   4.430
52027SOL    HW157978   1.247  11.289   4.406
52027SOL    HW257979   1.200  11.151   4.447
52028SOL     OW57980   6.290  11.225   1.695
52028SOL    HW157981   6.379  11.209   1.662
52028SOL    HW257982   6.303  11.274   1.776
52029SOL     OW57983   6.291  14.039   7.882
52029SOL    HW157984   6.288  13.995   7.797
52029SOL    HW257985   6.203  14.027   7.917
52030SOL     OW57986   6.741   5.011   6.819
52030SOL    HW157987   6.703   4.976   6.900
52030SOL    HW257988   6.815   4.953   6.801
52031SOL     OW57989   0.420  12.015   9.819
52031SOL    HW157990   0.466  12.096   9.845
52031SOL    HW257991   0.379  11.985   9.900
52032SOL     OW57992   7.930   1.305  10.124
52032SOL    HW157993   7.839   1.275  10.117
52032SOL    HW257994   7.953   1.291  10.215
52033SOL     OW57995   7.355  14.644   0.062
52033SOL    HW157996   7.401  14.666   0.143
52033SOL    HW257997   7.269  14.685   0.070
52034SOL     OW57998   3.114   0.230  13.079
52034SOL    HW157999   3.136   0.207  12.989
52034SOL    HW258000   3.030   0.275  13.073
52035SOL     OW58001   5.954   3.653  13.832
52035SOL    HW158002   5.899   3.690  13.763
52035SOL    HW258003   5.909   3.675  13.913
52036SOL     OW58004   6.401   7.690  13.607
52036SOL    HW158005   6.400   7.594  13.604
52036SOL    HW258006   6.345   7.717  13.534
52037SOL     OW58007  11.224  11.406  12.110
52037SOL    HW158008  11.288  11.473  12.086
52037SOL    HW258009  11.273  11.324  12.111
52038SOL     OW58010   2.465  14.856   7.447
52038SOL    HW158011   2.549   0.019   7.415
52038SOL    HW258012   2.406   0.061   7.439
52039SOL     OW58013   6.129   6.983   2.771
52039SOL    HW158014   6.174   7.025   2.698
52039SOL    HW258015   6.040   7.019   2.769
52040SOL     OW58016  10.986  14.415  14.427
52040SOL    HW158017  10.998  14.322  14.441
52040SOL    HW258018  10.980  14.452  14.515
52041SOL     OW58019  11.686   8.036  12.605
52041SOL    HW158020  11.746   7.961  12.612
52041SOL    HW258021  11.667   8.043  12.511
52042SOL     OW58022   7.460   6.249  12.966
52042SOL    HW158023   7.442   6.162  12.931
52042SOL    HW258024   7.447   6.239  13.061
52043SOL     OW58025   6.607   9.875  11.252
52043SOL    HW158026   6.642   9.962  11.231
52043SOL    HW258027   6.641   9.818  11.182
52044SOL     OW58028   0.336  10.250   8.475
52044SOL    HW158029   0.335  10.309   8.550
52044SOL    HW258030   0.281  10.176   8.502
52045SOL     OW58031   2.799   2.721   3.453
52045SOL    HW158032   2.849   2.729   3.372
52045SOL    HW258033   2.740   2.797   3.451
52046SOL     OW58034  13.185   7.996   2.085
52046SOL    HW158035  13.109   7.978   2.029
52046SOL    HW258036  13.183   8.090   2.099
52047SOL     OW58037   3.796  12.569   3.197
52047SOL    HW158038   3.865  12.503   3.202
52047SOL    HW258039   3.791  12.593   3.104
52048SOL     OW58040   3.446   4.524  13.213
52048SOL    HW158041   3.506   4.513  13.286
52048SOL    HW258042   3.491   4.584  13.153
52049SOL     OW58043  11.866  11.766   1.083
52049SOL    HW158044  11.873  11.757   0.988
52049SOL    HW258045  11.806  11.839   1.096
52050SOL     OW58046   5.920   0.544   3.634
52050SOL    HW158047   5.865   0.483   3.684
52050SOL    HW258048   5.858   0.601   3.589
52051SOL     OW58049   0.608  12.498  13.862
52051SOL    HW158050   0.678  12.542  13.910
52051SOL    HW258051   0.641  12.489  13.773
52052SOL     OW58052   2.444   8.301   1.095
52052SOL    HW158053   2.362   8.268   1.059
52052SOL    HW258054   2.478   8.361   1.029
52053SOL     OW58055   6.202  10.952   5.927
52053SOL    HW158056   6.146  10.946   6.003
52053SOL    HW258057   6.291  10.942   5.961
52054SOL     OW58058   9.534   1.284   1.724
52054SOL    HW158059   9.570   1.198   1.745
52054SOL    HW258060   9.443   1.266   1.697
52055SOL     OW58061  13.554   4.020   2.584
52055SOL    HW158062  13.519   3.937   2.618
52055SOL    HW258063  13.540   4.014   2.490
52056SOL     OW58064   7.425  14.141   5.550
52056SOL    HW158065   7.423  14.053   5.514
52056SOL    HW258066   7.451  14.129   5.642
52057SOL     OW58067  10.800   3.105   5.261
52057SOL    HW158068  10.721   3.154   5.242
52057SOL    HW258069  10.851   3.109   5.181
52058SOL     OW58070  11.873   9.279   5.458
52058SOL    HW158071  11.887   9.236   5.543
52058SOL    HW258072  11.779   9.272   5.442
52059SOL     OW58073   5.939  10.337  13.771
52059SOL    HW158074   5.994  10.310  13.845
52059SOL    HW258075   5.935  10.433  13.779
52060SOL     OW58076   0.318  14.867   8.083
52060SOL    HW158077   0.312  14.771   8.074
52060SOL    HW258078   0.376   0.024   8.012
52061SOL     OW58079   4.977   0.995  10.931
52061SOL    HW158080   4.965   1.070  10.873
52061SOL    HW258081   4.986   0.920  10.872
52062SOL     OW58082   2.507  14.522   1.560
52062SOL    HW158083   2.483  14.591   1.622
52062SOL    HW258084   2.593  14.492   1.588
52063SOL     OW58085   2.537   1.413  11.167
52063SOL    HW158086   2.577   1.338  11.211
52063SOL    HW258087   2.575   1.411  11.079
52064SOL     OW58088   4.918   2.764   9.773
52064SOL    HW158089   4.975   2.700   9.730
52064SOL    HW258090   4.908   2.834   9.709
52065SOL     OW58091  11.614  13.462   2.197
52065SOL    HW158092  11.578  13.550   2.202
52065SOL    HW258093  11.565  13.413   2.263
52066SOL     OW58094   9.093  11.086  13.086
52066SOL    HW158095   9.171  11.078  13.141
52066SOL    HW258096   9.088  11.004  13.037
52067SOL     OW58097   3.868   0.256  10.127
52067SOL    HW158098   3.863   0.254  10.031
52067SOL    HW258099   3.781   0.231  10.156
52068SOL     OW58100   2.046   3.115   9.978
52068SOL    HW158101   1.952   3.097   9.988
52068SOL    HW258102   2.083   3.032   9.949
52069SOL     OW58103   5.589  10.909   6.509
52069SOL    HW158104   5.632  10.905   6.594
52069SOL    HW258105   5.526  10.837   6.510
52070SOL     OW58106   3.690   0.675   8.625
52070SOL    HW158107   3.614   0.715   8.667
52070SOL    HW258108   3.723   0.741   8.565
52071SOL     OW58109   1.989   5.993  10.686
52071SOL    HW158110   2.025   6.010  10.599
52071SOL    HW258111   1.910   5.941  10.671
52072SOL     OW58112   3.871  12.409   8.696
52072SOL    HW158113   3.808  12.346   8.661
52072SOL    HW258114   3.820  12.465   8.754
52073SOL     OW58115   4.535   8.608   8.622
52073SOL    HW158116   4.446   8.580   8.603
52073SOL    HW258117   4.574   8.534   8.668
52074SOL     OW58118   5.956   4.418   9.219
52074SOL    HW158119   6.006   4.379   9.290
52074SOL    HW258120   5.869   4.378   9.226
52075SOL     OW58121   0.724   0.745   8.632
52075SOL    HW158122   0.659   0.770   8.699
52075SOL    HW258123   0.731   0.650   8.640
52076SOL     OW58124   1.788  11.011  10.559
52076SOL    HW158125   1.693  11.001  10.565
52076SOL    HW258126   1.818  10.930  10.518
52077SOL     OW58127  10.508   8.381   0.699
52077SOL    HW158128  10.445   8.362   0.629
52077SOL    HW258129  10.548   8.464   0.674
52078SOL     OW58130   8.584   4.149  12.172
52078SOL    HW158131   8.639   4.221  12.202
52078SOL    HW258132   8.606   4.139  12.080
52079SOL     OW58133   7.208  14.618   9.111
52079SOL    HW158134   7.217  14.598   9.017
52079SOL    HW258135   7.144  14.554   9.143
52080SOL     OW58136  13.744   5.472   0.716
52080SOL    HW158137  13.680   5.464   0.645
52080SOL    HW258138  13.820   5.423   0.686
52081SOL     OW58139   8.003   4.816  14.300
52081SOL    HW158140   8.019   4.907  14.276
52081SOL    HW258141   8.025   4.811  14.393
52082SOL     OW58142   1.593   2.046   1.048
52082SOL    HW158143   1.538   2.094   0.985
52082SOL    HW258144   1.548   2.057   1.132
52083SOL     OW58145   4.659   7.796  11.037
52083SOL    HW158146   4.655   7.832  11.125
52083SOL    HW258147   4.570   7.807  11.003
52084SOL     OW58148   5.501  11.911   9.945
52084SOL    HW158149   5.497  11.940  10.036
52084SOL    HW258150   5.415  11.874   9.928
52085SOL     OW58151   8.858  12.499  14.061
52085SOL    HW158152   8.905  12.469  14.140
52085SOL    HW258153   8.891  12.588  14.047
52086SOL     OW58154   5.345  12.892   8.723
52086SOL    HW158155   5.322  12.982   8.748
52086SOL    HW258156   5.429  12.901   8.677
52087SOL     OW58157   7.805   6.466   8.195
52087SOL    HW158158   7.881   6.510   8.232
52087SOL    HW258159   7.785   6.395   8.257
52088SOL     OW58160  12.507   2.936   7.338
52088SOL    HW158161  12.440   2.876   7.305
52088SOL    HW258162  12.575   2.936   7.270
52089SOL     OW58163  14.744   5.234   0.630
52089SOL    HW158164  14.712   5.228   0.720
52089SOL    HW258165  14.831   5.194   0.633
52090SOL     OW58166  10.601   8.039  14.598
52090SOL    HW158167  10.682   8.062  14.645
52090SOL    HW258168  10.536   8.028  14.668
52091SOL     OW58169   8.425  12.252   5.532
52091SOL    HW158170   8.501  12.279   5.584
52091SOL    HW258171   8.410  12.324   5.471
52092SOL     OW58172  11.268   2.996   1.222
52092SOL    HW158173  11.333   3.047   1.173
52092SOL    HW258174  11.196   3.057   1.236
52093SOL     OW58175   4.658  11.121  11.577
52093SOL    HW158176   4.720  11.177  11.532
52093SOL    HW258177   4.655  11.041  11.524
52094SOL     OW58178   2.683   0.824   8.195
52094SOL    HW158179   2.747   0.760   8.163
52094SOL    HW258180   2.648   0.865   8.116
52095SOL     OW58181   7.085  14.815   9.988
52095SOL    HW158182   7.026  14.740   9.994
52095SOL    HW258183   7.173  14.778   9.996
52096SOL     OW58184   0.771  13.624   3.325
52096SOL    HW158185   0.745  13.685   3.395
52096SOL    HW258186   0.700  13.629   3.262
52097SOL     OW58187   2.198  13.901  11.879
52097SOL    HW158188   2.182  13.973  11.939
52097SOL    HW258189   2.194  13.822  11.934
52098SOL     OW58190  10.974   7.572  14.430
52098SOL    HW158191  10.918   7.505  14.391
52098SOL    HW258192  11.015   7.529  14.505
52099SOL     OW58193   2.077   1.199   0.774
52099SOL    HW158194   2.006   1.251   0.738
52099SOL    HW258195   2.112   1.251   0.846
52100SOL     OW58196  12.232  11.986   8.445
52100SOL    HW158197  12.217  12.008   8.537
52100SOL    HW258198  12.327  11.978   8.438
52101SOL     OW58199   8.329  12.234   8.591
52101SOL    HW158200   8.256  12.185   8.553
52101SOL    HW258201   8.387  12.253   8.517
52102SOL     OW58202   5.598   5.638   3.133
52102SOL    HW158203   5.555   5.552   3.132
52102SOL    HW258204   5.616   5.654   3.226
52103SOL     OW58205   8.874   8.449  14.725
52103SOL    HW158206   8.859   8.524  14.668
52103SOL    HW258207   8.806   8.386  14.699
52104SOL     OW58208   9.684   9.230   1.102
52104SOL    HW158209   9.684   9.227   1.198
52104SOL    HW258210   9.591   9.229   1.078
52105SOL     OW58211   2.735  13.957   9.907
52105SOL    HW158212   2.753  14.009   9.985
52105SOL    HW258213   2.820  13.944   9.866
52106SOL     OW58214   7.272   9.184  10.104
52106SOL    HW158215   7.320   9.107  10.136
52106SOL    HW258216   7.308   9.257  10.153
52107SOL     OW58217   2.993   3.292   8.202
52107SOL    HW158218   2.966   3.380   8.174
52107SOL    HW258219   3.088   3.295   8.199
52108SOL     OW58220   0.797   9.647   1.288
52108SOL    HW158221   0.775   9.696   1.367
52108SOL    HW258222   0.892   9.632   1.294
52109SOL     OW58223   5.880   3.265   1.611
52109SOL    HW158224   5.896   3.261   1.517
52109SOL    HW258225   5.822   3.192   1.629
52110SOL     OW58226   0.042   2.549   4.022
52110SOL    HW158227   0.078   2.473   4.069
52110SOL    HW258228   0.093   2.553   3.941
52111SOL     OW58229  10.329   9.472  10.668
52111SOL    HW158230  10.350   9.550  10.617
52111SOL    HW258231  10.332   9.502  10.759
52112SOL     OW58232   1.894   6.025   7.438
52112SOL    HW158233   1.983   6.022   7.473
52112SOL    HW258234   1.838   6.031   7.515
52113SOL     OW58235   2.962  10.319   3.876
52113SOL    HW158236   2.926  10.400   3.840
52113SOL    HW258237   3.052  10.315   3.842
52114SOL     OW58238  12.672   5.500  13.219
52114SOL    HW158239  12.758   5.523  13.256
52114SOL    HW258240  12.629   5.452  13.290
52115SOL     OW58241   8.531   0.909   0.936
52115SOL    HW158242   8.527   0.998   0.969
52115SOL    HW258243   8.624   0.886   0.938
52116SOL     OW58244   6.873  10.390  12.873
52116SOL    HW158245   6.778  10.401  12.881
52116SOL    HW258246   6.904  10.384  12.963
52117SOL     OW58247   3.905   6.398  12.665
52117SOL    HW158248   3.894   6.357  12.751
52117SOL    HW258249   3.965   6.471  12.680
52118SOL     OW58250   0.986   6.333   8.295
52118SOL    HW158251   1.055   6.333   8.228
52118SOL    HW258252   0.932   6.408   8.273
52119SOL     OW58253   7.158   5.838  10.905
52119SOL    HW158254   7.091   5.777  10.875
52119SOL    HW258255   7.217   5.847  10.830
52120SOL     OW58256   8.253  11.999  10.679
52120SOL    HW158257   8.334  12.022  10.723
52120SOL    HW258258   8.280  11.945  10.605
52121SOL     OW58259  10.631   7.110   0.716
52121SOL    HW158260  10.665   7.107   0.806
52121SOL    HW258261  10.548   7.062   0.721
52122SOL     OW58262  13.851   2.645   2.462
52122SOL    HW158263  13.765   2.625   2.499
52122SOL    HW258264  13.865   2.579   2.395
52123SOL     OW58265  14.470  14.484   2.813
52123SOL    HW158266  14.550  14.468   2.862
52123SOL    HW258267  14.477  14.428   2.735
52124SOL     OW58268   5.485   7.767  10.195
52124SOL    HW158269   5.474   7.727  10.281
52124SOL    HW258270   5.507   7.694  10.137
52125SOL     OW58271   2.187   0.593   3.019
52125SOL    HW158272   2.243   0.519   2.995
52125SOL    HW258273   2.101   0.554   3.034
52126SOL     OW58274   1.863   4.104   3.385
52126SOL    HW158275   1.890   4.104   3.293
52126SOL    HW258276   1.797   4.172   3.391
52127SOL     OW58277  11.941  13.975  13.088
52127SOL    HW158278  11.894  13.894  13.108
52127SOL    HW258279  11.885  14.020  13.025
52128SOL     OW58280  12.149   2.990   3.200
52128SOL    HW158281  12.126   2.900   3.223
52128SOL    HW258282  12.218   3.014   3.262
52129SOL     OW58283   6.419   8.716   2.963
52129SOL    HW158284   6.346   8.776   2.977
52129SOL    HW258285   6.481   8.765   2.909
52130SOL     OW58286  10.933   7.663   3.010
52130SOL    HW158287  11.001   7.719   3.048
52130SOL    HW258288  10.893   7.718   2.942
52131SOL     OW58289  11.673   6.853   0.360
52131SOL    HW158290  11.698   6.928   0.413
52131SOL    HW258291  11.729   6.858   0.283
52132SOL     OW58292   2.126   6.426   5.090
52132SOL    HW158293   2.084   6.376   5.160
52132SOL    HW258294   2.206   6.378   5.071
52133SOL     OW58295  12.979   8.381  13.127
52133SOL    HW158296  13.010   8.455  13.075
52133SOL    HW258297  13.046   8.370  13.195
52134SOL     OW58298  10.906   4.102  12.272
52134SOL    HW158299  10.997   4.128  12.256
52134SOL    HW258300  10.880   4.153  12.349
52135SOL     OW58301  13.863   8.062   3.901
52135SOL    HW158302  13.876   8.146   3.945
52135SOL    HW258303  13.792   8.020   3.949
52136SOL     OW58304   6.747   5.884   1.860
52136SOL    HW158305   6.697   5.856   1.783
52136SOL    HW258306   6.708   5.967   1.885
52137SOL     OW58307   3.471   6.215   4.980
52137SOL    HW158308   3.445   6.216   4.887
52137SOL    HW258309   3.519   6.133   4.990
52138SOL     OW58310   9.047   7.607  12.021
52138SOL    HW158311   8.980   7.675  12.020
52138SOL    HW258312   9.081   7.604  11.932
52139SOL     OW58313  10.258   8.469   3.633
52139SOL    HW158314  10.221   8.447   3.548
52139SOL    HW258315  10.206   8.419   3.696
52140SOL     OW58316  10.065  11.152   2.714
52140SOL    HW158317  10.038  11.071   2.757
52140SOL    HW258318  10.161  11.149   2.714
52141SOL     OW58319   1.184  14.432  10.166
52141SOL    HW158320   1.261  14.486  10.185
52141SOL    HW258321   1.219  14.352  10.126
52142SOL     OW58322  12.318   5.858  12.071
52142SOL    HW158323  12.319   5.811  11.988
52142SOL    HW258324  12.366   5.939  12.053
52143SOL     OW58325   6.579   1.395  11.309
52143SOL    HW158326   6.512   1.458  11.284
52143SOL    HW258327   6.610   1.425  11.395
52144SOL     OW58328   8.563   0.052  11.653
52144SOL    HW158329   8.528   0.038  11.741
52144SOL    HW258330   8.489   0.083  11.602
52145SOL     OW58331   8.697  14.676   7.849
52145SOL    HW158332   8.783  14.715   7.838
52145SOL    HW258333   8.647  14.705   7.773
52146SOL     OW58334   7.993  11.612   8.363
52146SOL    HW158335   8.061  11.586   8.425
52146SOL    HW258336   7.961  11.696   8.396
52147SOL     OW58337   6.105   3.891  13.082
52147SOL    HW158338   6.101   3.823  13.149
52147SOL    HW258339   6.077   3.848  13.002
52148SOL     OW58340  11.662   0.650   1.357
52148SOL    HW158341  11.679   0.632   1.265
52148SOL    HW258342  11.744   0.687   1.390
52149SOL     OW58343  10.489  13.566   2.187
52149SOL    HW158344  10.546  13.642   2.199
52149SOL    HW258345  10.483  13.526   2.274
52150SOL     OW58346   4.620   2.261   7.912
52150SOL    HW158347   4.650   2.340   7.868
52150SOL    HW258348   4.553   2.226   7.854
52151SOL     OW58349  10.740   5.482   9.028
52151SOL    HW158350  10.655   5.525   9.038
52151SOL    HW258351  10.773   5.474   9.117
52152SOL     OW58352   8.991   0.854   7.520
52152SOL    HW158353   8.960   0.770   7.555
52152SOL    HW258354   8.911   0.906   7.511
52153SOL     OW58355   6.718   5.503   0.634
52153SOL    HW158356   6.809   5.529   0.649
52153SOL    HW258357   6.701   5.438   0.702
52154SOL     OW58358   1.920  12.063  13.748
52154SOL    HW158359   1.973  11.985  13.734
52154SOL    HW258360   1.865  12.042  13.824
52155SOL     OW58361   5.731   3.178   9.136
52155SOL    HW158362   5.664   3.202   9.200
52155SOL    HW258363   5.683   3.140   9.063
52156SOL     OW58364   9.777  14.599  10.190
52156SOL    HW158365   9.839  14.535  10.225
52156SOL    HW258366   9.764  14.661  10.262
52157SOL     OW58367   6.497  13.624  11.625
52157SOL    HW158368   6.436  13.584  11.563
52157SOL    HW258369   6.540  13.694  11.576
52158SOL     OW58370   7.754   3.042  13.335
52158SOL    HW158371   7.842   3.004  13.331
52158SOL    HW258372   7.767   3.136  13.323
52159SOL     OW58373  11.327   5.759   2.551
52159SOL    HW158374  11.267   5.820   2.594
52159SOL    HW258375  11.364   5.707   2.622
52160SOL     OW58376   1.001   0.555  13.921
52160SOL    HW158377   1.031   0.598  13.841
52160SOL    HW258378   1.035   0.465  13.914
52161SOL     OW58379   9.417   8.338   5.101
52161SOL    HW158380   9.454   8.407   5.156
52161SOL    HW258381   9.472   8.338   5.022
52162SOL     OW58382  13.295   4.046  14.717
52162SOL    HW158383  13.355   4.096  14.661
52162SOL    HW258384  13.209   4.086  14.701
52163SOL     OW58385   4.675   4.231  12.445
52163SOL    HW158386   4.637   4.319  12.443
52163SOL    HW258387   4.600   4.173  12.430
52164SOL     OW58388   2.160   2.253   2.054
52164SOL    HW158389   2.096   2.198   2.099
52164SOL    HW258390   2.134   2.343   2.076
52165SOL     OW58391   0.492   2.810   7.271
52165SOL    HW158392   0.571   2.792   7.322
52165SOL    HW258393   0.507   2.898   7.235
52166SOL     OW58394  10.613   6.745   7.833
52166SOL    HW158395  10.532   6.700   7.857
52166SOL    HW258396  10.674   6.725   7.904
52167SOL     OW58397   0.348   7.152  10.329
52167SOL    HW158398   0.356   7.104  10.246
52167SOL    HW258399   0.262   7.194  10.324
52168SOL     OW58400  12.430   6.338   3.062
52168SOL    HW158401  12.355   6.293   3.024
52168SOL    HW258402  12.392   6.392   3.132
52169SOL     OW58403   8.357  12.512   4.952
52169SOL    HW158404   8.437  12.557   4.925
52169SOL    HW258405   8.310  12.575   5.005
52170SOL     OW58406   6.806  13.206  11.295
52170SOL    HW158407   6.869  13.196  11.366
52170SOL    HW258408   6.775  13.117  11.277
52171SOL     OW58409   9.969   0.280  10.733
52171SOL    HW158410  10.004   0.314  10.815
52171SOL    HW258411   9.874   0.277  10.748
52172SOL     OW58412   4.069  13.256  12.760
52172SOL    HW158413   3.986  13.214  12.781
52172SOL    HW258414   4.132  13.184  12.755
52173SOL     OW58415  11.580   8.981   7.453
52173SOL    HW158416  11.665   9.024   7.461
52173SOL    HW258417  11.582   8.910   7.517
52174SOL     OW58418   5.952  11.436   6.560
52174SOL    HW158419   5.869  11.392   6.575
52174SOL    HW258420   5.986  11.397   6.479
52175SOL     OW58421   1.275   9.135  14.749
52175SOL    HW158422   1.183   9.126  14.722
52175SOL    HW258423   1.291   9.059  14.805
52176SOL     OW58424   8.919   7.386   4.846
52176SOL    HW158425   9.002   7.342   4.865
52176SOL    HW258426   8.931   7.475   4.879
52177SOL     OW58427  12.696  12.458  13.045
52177SOL    HW158428  12.648  12.406  12.980
52177SOL    HW258429  12.636  12.464  13.119
52178SOL     OW58430  14.793   9.992   2.518
52178SOL    HW158431  14.739   9.950   2.586
52178SOL    HW258432  14.745  10.071   2.495
52179SOL     OW58433   4.170  13.439   6.882
52179SOL    HW158434   4.168  13.487   6.965
52179SOL    HW258435   4.261  13.412   6.873
52180SOL     OW58436   0.386   7.064   0.724
52180SOL    HW158437   0.381   7.159   0.733
52180SOL    HW258438   0.311   7.031   0.772
52181SOL     OW58439   9.722  14.018   7.112
52181SOL    HW158440   9.668  14.085   7.071
52181SOL    HW258441   9.760  14.061   7.189
52182SOL     OW58442   5.392   3.535   0.197
52182SOL    HW158443   5.431   3.538   0.110
52182SOL    HW258444   5.305   3.573   0.186
52183SOL     OW58445   9.108   2.223   6.863
52183SOL    HW158446   9.201   2.225   6.886
52183SOL    HW258447   9.093   2.305   6.816
52184SOL     OW58448   5.710   0.738  14.015
52184SOL    HW158449   5.710   0.800  13.942
52184SOL    HW258450   5.743   0.657  13.977
52185SOL     OW58451  14.298   0.456  13.743
52185SOL    HW158452  14.283   0.543  13.781
52185SOL    HW258453  14.259   0.461  13.656
52186SOL     OW58454  10.282   4.946   0.839
52186SOL    HW158455  10.321   4.885   0.776
52186SOL    HW258456  10.333   4.934   0.919
52187SOL     OW58457  10.389   4.696  12.374
52187SOL    HW158458  10.370   4.754  12.301
52187SOL    HW258459  10.453   4.634  12.339
52188SOL     OW58460   1.344   5.597  12.161
52188SOL    HW158461   1.256   5.570  12.188
52188SOL    HW258462   1.400   5.523  12.185
52189SOL     OW58463   6.939  12.005   0.044
52189SOL    HW158464   6.994  11.945   0.094
52189SOL    HW258465   6.983  12.090   0.052
52190SOL     OW58466   6.603   8.747   0.292
52190SOL    HW158467   6.635   8.751   0.202
52190SOL    HW258468   6.539   8.676   0.291
52191SOL     OW58469   3.059   1.427   9.669
52191SOL    HW158470   2.983   1.368   9.668
52191SOL    HW258471   3.097   1.420   9.582
52192SOL     OW58472   3.162   8.231  14.641
52192SOL    HW158473   3.089   8.180  14.677
52192SOL    HW258474   3.199   8.175  14.573
52193SOL     OW58475   5.194   7.644   1.392
52193SOL    HW158476   5.188   7.734   1.360
52193SOL    HW258477   5.260   7.603   1.337
52194SOL     OW58478   0.583   6.570   4.778
52194SOL    HW158479   0.663   6.517   4.776
52194SOL    HW258480   0.613   6.660   4.766
52195SOL     OW58481   9.625   2.283   0.122
52195SOL    HW158482   9.656   2.349   0.061
52195SOL    HW258483   9.563   2.330   0.178
52196SOL     OW58484   6.277   4.174   4.592
52196SOL    HW158485   6.358   4.165   4.541
52196SOL    HW258486   6.281   4.263   4.628
52197SOL     OW58487   1.344   7.552  11.701
52197SOL    HW158488   1.423   7.501  11.685
52197SOL    HW258489   1.298   7.503  11.770
52198SOL     OW58490   2.313   5.451  10.693
52198SOL    HW158491   2.369   5.392  10.744
52198SOL    HW258492   2.240   5.396  10.665
52199SOL     OW58493   2.197  12.068   3.877
52199SOL    HW158494   2.240  11.985   3.898
52199SOL    HW258495   2.112  12.042   3.841
52200SOL     OW58496   3.381  12.779   6.496
52200SOL    HW158497   3.309  12.716   6.492
52200SOL    HW258498   3.353  12.851   6.439
52201SOL     OW58499   2.601  12.124   6.298
52201SOL    HW158500   2.539  12.079   6.355
52201SOL    HW258501   2.660  12.169   6.359
52202SOL     OW58502  13.208   4.591  14.576
52202SOL    HW158503  13.266   4.653  14.533
52202SOL    HW258504  13.164   4.546  14.505
52203SOL     OW58505  11.664   7.971   5.965
52203SOL    HW158506  11.727   8.010   6.025
52203SOL    HW258507  11.712   7.900   5.922
52204SOL     OW58508  14.172   3.554   5.925
52204SOL    HW158509  14.153   3.636   5.971
52204SOL    HW258510  14.096   3.499   5.942
52205SOL     OW58511   7.436   5.418   9.131
52205SOL    HW158512   7.498   5.396   9.200
52205SOL    HW258513   7.402   5.334   9.101
52206SOL     OW58514   8.902   4.382  12.809
52206SOL    HW158515   8.883   4.294  12.840
52206SOL    HW258516   8.991   4.399  12.840
52207SOL     OW58517   2.966   6.139  10.741
52207SOL    HW158518   2.930   6.208  10.687
52207SOL    HW258519   2.914   6.061  10.719
52208SOL     OW58520   6.640   6.021  12.770
52208SOL    HW158521   6.594   6.044  12.850
52208SOL    HW258522   6.728   6.058  12.781
52209SOL     OW58523  10.793   8.344  13.907
52209SOL    HW158524  10.720   8.313  13.959
52209SOL    HW258525  10.824   8.422  13.953
52210SOL     OW58526   4.478   5.914   1.083
52210SOL    HW158527   4.538   5.883   1.151
52210SOL    HW258528   4.447   5.834   1.040
52211SOL     OW58529  10.104   4.168   6.024
52211SOL    HW158530  10.143   4.172   5.936
52211SOL    HW258531  10.114   4.256   6.058
52212SOL     OW58532   0.723   4.578  11.116
52212SOL    HW158533   0.636   4.603  11.083
52212SOL    HW258534   0.707   4.499  11.167
52213SOL     OW58535   8.977   4.129   3.918
52213SOL    HW158536   8.918   4.092   3.853
52213SOL    HW258537   8.934   4.115   4.002
52214SOL     OW58538  12.577   6.852  11.281
52214SOL    HW158539  12.624   6.870  11.200
52214SOL    HW258540  12.563   6.939  11.321
52215SOL     OW58541   9.964   0.724   5.036
52215SOL    HW158542   9.877   0.694   5.009
52215SOL    HW258543   9.980   0.803   4.984
52216SOL     OW58544   7.490  14.784   2.678
52216SOL    HW158545   7.519  14.692   2.673
52216SOL    HW258546   7.515  14.821   2.593
52217SOL     OW58547   0.238  11.028  14.602
52217SOL    HW158548   0.301  11.015  14.531
52217SOL    HW258549   0.247  11.120  14.626
52218SOL     OW58550   1.074   7.622   1.871
52218SOL    HW158551   1.165   7.624   1.843
52218SOL    HW258552   1.071   7.555   1.940
52219SOL     OW58553   1.239   2.210   7.063
52219SOL    HW158554   1.265   2.295   7.028
52219SOL    HW258555   1.217   2.158   6.986
52220SOL     OW58556  12.657   2.906   3.344
52220SOL    HW158557  12.718   2.835   3.326
52220SOL    HW258558  12.631   2.892   3.435
52221SOL     OW58559   8.616   1.935   7.299
52221SOL    HW158560   8.562   1.980   7.364
52221SOL    HW258561   8.703   1.930   7.339
52222SOL     OW58562  10.897  14.065   1.563
52222SOL    HW158563  10.840  14.135   1.594
52222SOL    HW258564  10.938  14.031   1.642
52223SOL     OW58565   6.032   8.619  14.128
52223SOL    HW158566   6.085   8.662  14.194
52223SOL    HW258567   5.974   8.687  14.094
52224SOL     OW58568  10.101   6.780   9.929
52224SOL    HW158569  10.193   6.786   9.953
52224SOL    HW258570  10.090   6.844   9.859
52225SOL     OW58571   9.938  11.875   0.701
52225SOL    HW158572  10.028  11.897   0.722
52225SOL    HW258573   9.941  11.844   0.610
52226SOL     OW58574   1.044  12.844  12.357
52226SOL    HW158575   1.062  12.750  12.360
52226SOL    HW258576   1.114  12.883  12.408
52227SOL     OW58577  12.394   4.324   0.886
52227SOL    HW158578  12.371   4.363   0.801
52227SOL    HW258579  12.326   4.259   0.902
52228SOL     OW58580  10.382   8.705   6.093
52228SOL    HW158581  10.342   8.674   6.174
52228SOL    HW258582  10.384   8.800   6.102
52229SOL     OW58583  14.056  10.331  11.265
52229SOL    HW158584  14.146  10.331  11.300
52229SOL    HW258585  14.001  10.341  11.343
52230SOL     OW58586  13.983   3.452   5.385
52230SOL    HW158587  13.995   3.536   5.342
52230SOL    HW258588  14.035   3.390   5.332
52231SOL     OW58589   6.025  11.845  13.965
52231SOL    HW158590   6.039  11.761  14.010
52231SOL    HW258591   5.995  11.820  13.878
52232SOL     OW58592   2.470   6.981   2.315
52232SOL    HW158593   2.400   6.999   2.253
52232SOL    HW258594   2.429   6.989   2.401
52233SOL     OW58595   7.689   2.577   6.150
52233SOL    HW158596   7.611   2.632   6.140
52233SOL    HW258597   7.751   2.633   6.196
52234SOL     OW58598   5.123   5.692   8.398
52234SOL    HW158599   5.081   5.680   8.484
52234SOL    HW258600   5.071   5.761   8.356
52235SOL     OW58601   9.760   9.590   6.097
52235SOL    HW158602   9.731   9.644   6.024
52235SOL    HW258603   9.704   9.616   6.170
52236SOL     OW58604   8.708   0.447   3.739
52236SOL    HW158605   8.731   0.373   3.795
52236SOL    HW258606   8.709   0.411   3.650
52237SOL     OW58607  12.155   1.451  13.740
52237SOL    HW158608  12.200   1.510  13.680
52237SOL    HW258609  12.127   1.508  13.813
52238SOL     OW58610  10.344   4.164   4.141
52238SOL    HW158611  10.360   4.180   4.048
52238SOL    HW258612  10.249   4.169   4.149
52239SOL     OW58613   5.513   5.735   5.336
52239SOL    HW158614   5.532   5.649   5.300
52239SOL    HW258615   5.499   5.719   5.429
52240SOL     OW58616   2.630   4.561   2.581
52240SOL    HW158617   2.673   4.644   2.602
52240SOL    HW258618   2.537   4.583   2.573
52241SOL     OW58619  14.749   2.572   5.408
52241SOL    HW158620  14.676   2.520   5.441
52241SOL    HW258621  14.827   2.520   5.428
52242SOL     OW58622   2.053   6.731  11.338
52242SOL    HW158623   1.968   6.733  11.382
52242SOL    HW258624   2.039   6.673  11.263
52243SOL     OW58625   0.744   5.615  13.741
52243SOL    HW158626   0.759   5.700  13.701
52243SOL    HW258627   0.733   5.555  13.667
52244SOL     OW58628   1.334   8.302   5.309
52244SOL    HW158629   1.295   8.310   5.396
52244SOL    HW258630   1.287   8.229   5.268
52245SOL     OW58631   2.530  12.915   4.024
52245SOL    HW158632   2.625  12.919   4.033
52245SOL    HW258633   2.501  12.865   4.100
52246SOL     OW58634  12.330   3.539  13.661
52246SOL    HW158635  12.393   3.611  13.662
52246SOL    HW258636  12.379   3.466  13.624
52247SOL     OW58637   4.803   1.824   7.501
52247SOL    HW158638   4.785   1.789   7.588
52247SOL    HW258639   4.716   1.841   7.464
52248SOL     OW58640   7.403   0.419  11.260
52248SOL    HW158641   7.323   0.471  11.258
52248SOL    HW258642   7.454   0.455  11.332
52249SOL     OW58643   6.177  11.239  14.014
52249SOL    HW158644   6.181  11.297  14.090
52249SOL    HW258645   6.258  11.188  14.018
52250SOL     OW58646   3.643  14.710  12.054
52250SOL    HW158647   3.576  14.721  12.122
52250SOL    HW258648   3.593  14.691  11.974
52251SOL     OW58649   0.365   3.907   8.477
52251SOL    HW158650   0.420   3.984   8.488
52251SOL    HW258651   0.308   3.927   8.403
52252SOL     OW58652  13.098  12.977   2.705
52252SOL    HW158653  13.125  13.017   2.622
52252SOL    HW258654  13.008  13.008   2.718
52253SOL     OW58655  11.304   4.179   0.140
52253SOL    HW158656  11.225   4.230   0.162
52253SOL    HW258657  11.310   4.113   0.209
52254SOL     OW58658  10.867   5.247  13.219
52254SOL    HW158659  10.812   5.325  13.222
52254SOL    HW258660  10.904   5.247  13.131
52255SOL     OW58661  12.386   7.667   7.563
52255SOL    HW158662  12.325   7.597   7.585
52255SOL    HW258663  12.356   7.743   7.613
52256SOL     OW58664   3.844   5.153   1.068
52256SOL    HW158665   3.898   5.077   1.090
52256SOL    HW258666   3.769   5.116   1.022
52257SOL     OW58667   5.757   3.413   9.338
52257SOL    HW158668   5.684   3.355   9.317
52257SOL    HW258669   5.748   3.430   9.431
52258SOL     OW58670  14.361   1.428  10.616
52258SOL    HW158671  14.359   1.455  10.524
52258SOL    HW258672  14.269   1.415  10.639
52259SOL     OW58673   3.703  14.423   5.661
52259SOL    HW158674   3.671  14.505   5.623
52259SOL    HW258675   3.664  14.420   5.748
52260SOL     OW58676   0.451  13.962  12.882
52260SOL    HW158677   0.428  14.018  12.808
52260SOL    HW258678   0.374  13.907  12.896
52261SOL     OW58679   2.391  13.370   7.895
52261SOL    HW158680   2.418  13.348   7.806
52261SOL    HW258681   2.329  13.442   7.884
52262SOL     OW58682   3.786   4.371   5.508
52262SOL    HW158683   3.747   4.427   5.440
52262SOL    HW258684   3.761   4.413   5.591
52263SOL     OW58685   9.694  13.054  11.906
52263SOL    HW158686   9.721  13.062  11.815
52263SOL    HW258687   9.747  13.119  11.952
52264SOL     OW58688  10.580   7.705   1.702
52264SOL    HW158689  10.653   7.768   1.701
52264SOL    HW258690  10.551   7.705   1.793
52265SOL     OW58691   2.897   3.785   2.065
52265SOL    HW158692   2.872   3.709   2.012
52265SOL    HW258693   2.851   3.772   2.148
52266SOL     OW58694   4.941  11.334  11.796
52266SOL    HW158695   4.974  11.250  11.765
52266SOL    HW258696   4.848  11.319  11.811
52267SOL     OW58697   8.006  13.471  14.319
52267SOL    HW158698   7.979  13.462  14.227
52267SOL    HW258699   8.065  13.547  14.319
52268SOL     OW58700   9.623   1.844   5.736
52268SOL    HW158701   9.568   1.921   5.751
52268SOL    HW258702   9.574   1.772   5.776
52269SOL     OW58703   7.534   8.505   1.763
52269SOL    HW158704   7.520   8.410   1.763
52269SOL    HW258705   7.595   8.520   1.690
52270SOL     OW58706  11.889  12.767  13.993
52270SOL    HW158707  11.878  12.696  14.057
52270SOL    HW258708  11.799  12.789  13.967
52271SOL     OW58709   3.808  14.085  13.154
52271SOL    HW158710   3.748  14.150  13.192
52271SOL    HW258711   3.781  14.002  13.192
52272SOL     OW58712   4.179   2.413   7.685
52272SOL    HW158713   4.164   2.431   7.778
52272SOL    HW258714   4.093   2.426   7.644
52273SOL     OW58715   6.532   4.220   4.527
52273SOL    HW158716   6.555   4.255   4.613
52273SOL    HW258717   6.566   4.284   4.464
52274SOL     OW58718   0.394   4.444   2.381
52274SOL    HW158719   0.474   4.407   2.344
52274SOL    HW258720   0.401   4.538   2.363
52275SOL     OW58721   0.938   6.921   5.824
52275SOL    HW158722   0.926   6.927   5.919
52275SOL    HW258723   1.010   6.981   5.805
52276SOL     OW58724  12.153  11.110   0.117
52276SOL    HW158725  12.076  11.161   0.143
52276SOL    HW258726  12.228  11.165   0.141
52277SOL     OW58727   9.767   9.848   4.654
52277SOL    HW158728   9.704   9.899   4.602
52277SOL    HW258729   9.733   9.759   4.653
52278SOL     OW58730   4.864   1.630  10.579
52278SOL    HW158731   4.946   1.652  10.623
52278SOL    HW258732   4.859   1.692  10.506
52279SOL     OW58733  12.636   9.671   5.175
52279SOL    HW158734  12.586   9.748   5.201
52279SOL    HW258735  12.601   9.600   5.228
52280SOL     OW58736  11.489   3.499  13.763
52280SOL    HW158737  11.453   3.567  13.706
52280SOL    HW258738  11.433   3.502  13.841
52281SOL     OW58739  12.141  11.150   0.583
52281SOL    HW158740  12.068  11.180   0.529
52281SOL    HW258741  12.139  11.207   0.660
52282SOL     OW58742  10.476   8.785   8.691
52282SOL    HW158743  10.441   8.837   8.764
52282SOL    HW258744  10.555   8.830   8.665
52283SOL     OW58745   6.539  14.785   5.942
52283SOL    HW158746   6.629  14.775   5.910
52283SOL    HW258747   6.534  14.729   6.019
52284SOL     OW58748   0.371   4.850   5.895
52284SOL    HW158749   0.281   4.821   5.883
52284SOL    HW258750   0.422   4.769   5.899
52285SOL     OW58751   9.899   9.192  13.957
52285SOL    HW158752   9.873   9.128  14.023
52285SOL    HW258753   9.970   9.149  13.908
52286SOL     OW58754   3.158   9.885   0.612
52286SOL    HW158755   3.150   9.903   0.705
52286SOL    HW258756   3.139   9.968   0.569
52287SOL     OW58757  12.890   7.853   6.278
52287SOL    HW158758  12.924   7.782   6.333
52287SOL    HW258759  12.826   7.897   6.333
52288SOL     OW58760  13.054   5.558   0.576
52288SOL    HW158761  13.016   5.530   0.493
52288SOL    HW258762  13.119   5.490   0.596
52289SOL     OW58763  14.800   8.915   3.536
52289SOL    HW158764  14.717   8.916   3.583
52289SOL    HW258765  14.825   9.008   3.532
52290SOL     OW58766   3.176   1.743   2.391
52290SOL    HW158767   3.230   1.669   2.361
52290SOL    HW258768   3.215   1.769   2.475
52291SOL     OW58769   0.543  11.813   7.607
52291SOL    HW158770   0.567  11.895   7.650
52291SOL    HW258771   0.591  11.814   7.524
52292SOL     OW58772  14.216   0.613   3.716
52292SOL    HW158773  14.277   0.540   3.699
52292SOL    HW258774  14.132   0.582   3.681
52293SOL     OW58775   3.970  11.718   0.143
52293SOL    HW158776   4.054  11.680   0.169
52293SOL    HW258777   3.923  11.645   0.101
52294SOL     OW58778  10.470  14.660   7.951
52294SOL    HW158779  10.533  14.612   8.004
52294SOL    HW258780  10.523  14.723   7.903
52295SOL     OW58781   2.154  11.417  12.479
52295SOL    HW158782   2.225  11.472  12.447
52295SOL    HW258783   2.187  11.328  12.474
52296SOL     OW58784  13.660   7.811   3.566
52296SOL    HW158785  13.716   7.795   3.642
52296SOL    HW258786  13.656   7.906   3.558
52297SOL     OW58787   6.000  13.135   3.379
52297SOL    HW158788   6.035  13.129   3.290
52297SOL    HW258789   6.075  13.160   3.433
52298SOL     OW58790  10.997  13.206   6.175
52298SOL    HW158791  11.084  13.244   6.162
52298SOL    HW258792  11.014  13.117   6.207
52299SOL     OW58793  10.178   8.047   2.588
52299SOL    HW158794  10.104   8.059   2.647
52299SOL    HW258795  10.156   8.099   2.510
52300SOL     OW58796   1.561   5.378  10.830
52300SOL    HW158797   1.526   5.435  10.898
52300SOL    HW258798   1.528   5.414  10.748
52301SOL     OW58799   5.106  10.928  13.227
52301SOL    HW158800   5.190  10.883  13.235
52301SOL    HW258801   5.075  10.907  13.139
52302SOL     OW58802  10.141  12.792   8.561
52302SOL    HW158803  10.140  12.870   8.617
52302SOL    HW258804  10.188  12.726   8.612
52303SOL     OW58805  12.037   4.613   4.364
52303SOL    HW158806  12.085   4.633   4.283
52303SOL    HW258807  11.974   4.545   4.338
52304SOL     OW58808   7.157   9.501  14.405
52304SOL    HW158809   7.214   9.449  14.462
52304SOL    HW258810   7.078   9.448  14.396
52305SOL     OW58811   1.671   6.044   7.675
52305SOL    HW158812   1.612   6.004   7.738
52305SOL    HW258813   1.758   6.017   7.702
52306SOL     OW58814   2.080   6.455   0.261
52306SOL    HW158815   2.029   6.389   0.214
52306SOL    HW258816   2.019   6.493   0.324
52307SOL     OW58817  13.135   5.654   2.382
52307SOL    HW158818  13.164   5.738   2.347
52307SOL    HW258819  13.206   5.594   2.360
52308SOL     OW58820   9.668  11.155   0.091
52308SOL    HW158821   9.626  11.092   0.033
52308SOL    HW258822   9.721  11.102   0.150
52309SOL     OW58823   8.126  13.645   4.738
52309SOL    HW158824   8.099  13.554   4.752
52309SOL    HW258825   8.139  13.680   4.826
52310SOL     OW58826   1.031   9.078   1.349
52310SOL    HW158827   1.104   9.112   1.297
52310SOL    HW258828   1.009   9.150   1.408
52311SOL     OW58829   7.630   8.280  11.653
52311SOL    HW158830   7.578   8.320  11.583
52311SOL    HW258831   7.591   8.313  11.734
52312SOL     OW58832   4.059   0.470   2.920
52312SOL    HW158833   4.064   0.389   2.868
52312SOL    HW258834   4.150   0.493   2.938
52313SOL     OW58835   5.658   6.018   7.095
52313SOL    HW158836   5.738   6.066   7.114
52313SOL    HW258837   5.620   5.998   7.181
52314SOL     OW58838   9.596   4.758   1.635
52314SOL    HW158839   9.591   4.698   1.710
52314SOL    HW258840   9.506   4.767   1.605
52315SOL     OW58841  13.785   1.414   2.649
52315SOL    HW158842  13.826   1.449   2.569
52315SOL    HW258843  13.701   1.379   2.620
52316SOL     OW58844   2.147   4.381   1.413
52316SOL    HW158845   2.142   4.376   1.508
52316SOL    HW258846   2.205   4.455   1.396
52317SOL     OW58847  13.685   6.687  14.770
52317SOL    HW158848  13.776   6.713  14.787
52317SOL    HW258849  13.639   6.707  14.852
52318SOL     OW58850   8.538   0.847  14.371
52318SOL    HW158851   8.612   0.907  14.361
52318SOL    HW258852   8.470   0.882  14.313
52319SOL     OW58853  13.449  12.160   9.108
52319SOL    HW158854  13.505  12.099   9.060
52319SOL    HW258855  13.481  12.247   9.083
52320SOL     OW58856  12.074  14.725  14.511
52320SOL    HW158857  12.089  14.662  14.441
52320SOL    HW258858  12.010  14.786  14.476
52321SOL     OW58859   3.962   6.885   7.642
52321SOL    HW158860   3.897   6.942   7.603
52321SOL    HW258861   4.006   6.843   7.568
52322SOL     OW58862  14.796  13.464   5.815
52322SOL    HW158863   0.019  13.474   5.797
52322SOL    HW258864  14.781  13.515   5.895
52323SOL     OW58865   6.265  10.160  12.250
52323SOL    HW158866   6.248  10.243  12.206
52323SOL    HW258867   6.238  10.175  12.340
52324SOL     OW58868  12.607   5.366   8.034
52324SOL    HW158869  12.585   5.454   8.065
52324SOL    HW258870  12.608   5.312   8.113
52325SOL     OW58871   5.171   6.391   0.522
52325SOL    HW158872   5.155   6.459   0.587
52325SOL    HW258873   5.100   6.328   0.535
52326SOL     OW58874   9.034  13.172   6.183
52326SOL    HW158875   9.055  13.256   6.223
52326SOL    HW258876   9.012  13.193   6.093
52327SOL     OW58877  10.801  11.240  11.467
52327SOL    HW158878  10.886  11.196  11.474
52327SOL    HW258879  10.818  11.330  11.496
52328SOL     OW58880  12.240   6.442   2.735
52328SOL    HW158881  12.254   6.460   2.642
52328SOL    HW258882  12.147   6.425   2.743
52329SOL     OW58883  12.547  14.177  10.055
52329SOL    HW158884  12.632  14.134  10.045
52329SOL    HW258885  12.536  14.228   9.975
52330SOL     OW58886   0.999  13.971   0.002
52330SOL    HW158887   1.031  13.993   0.089
52330SOL    HW258888   1.065  14.006  14.812
52331SOL     OW58889  10.102   9.949   9.601
52331SOL    HW158890  10.132   9.860   9.619
52331SOL    HW258891  10.180   9.994   9.569
52332SOL     OW58892  11.956   3.959   4.521
52332SOL    HW158893  11.931   4.039   4.568
52332SOL    HW258894  11.939   3.888   4.584
52333SOL     OW58895  10.137  12.836  14.231
52333SOL    HW158896  10.177  12.767  14.284
52333SOL    HW258897  10.206  12.903  14.222
52334SOL     OW58898  13.352   5.712  13.514
52334SOL    HW158899  13.367   5.619  13.495
52334SOL    HW258900  13.265   5.730  13.478
52335SOL     OW58901  11.729   8.433   7.408
52335SOL    HW158902  11.754   8.525   7.397
52335SOL    HW258903  11.693   8.408   7.323
52336SOL     OW58904   6.982  12.386   3.551
52336SOL    HW158905   7.017  12.301   3.578
52336SOL    HW258906   6.959  12.374   3.459
52337SOL     OW58907   7.968   7.272   4.113
52337SOL    HW158908   8.030   7.260   4.185
52337SOL    HW258909   7.943   7.183   4.088
52338SOL     OW58910  11.929  12.574   5.910
52338SOL    HW158911  11.983  12.642   5.870
52338SOL    HW258912  11.979  12.546   5.987
52339SOL     OW58913   2.006   1.956  11.687
52339SOL    HW158914   2.039   1.980  11.600
52339SOL    HW258915   2.054   1.877  11.711
52340SOL     OW58916   0.970  11.566   5.799
52340SOL    HW158917   0.909  11.599   5.733
52340SOL    HW258918   0.913  11.532   5.869
52341SOL     OW58919   6.646   4.881   3.485
52341SOL    HW158920   6.650   4.849   3.395
52341SOL    HW258921   6.737   4.900   3.508
52342SOL     OW58922   3.198  11.209   9.540
52342SOL    HW158923   3.255  11.274   9.500
52342SOL    HW258924   3.111  11.249   9.537
52343SOL     OW58925  13.627   7.297   8.879
52343SOL    HW158926  13.550   7.306   8.934
52343SOL    HW258927  13.594   7.263   8.796
52344SOL     OW58928   4.433  12.805   0.474
52344SOL    HW158929   4.455  12.775   0.563
52344SOL    HW258930   4.349  12.763   0.455
52345SOL     OW58931   3.084   1.883  12.935
52345SOL    HW158932   3.068   1.801  12.981
52345SOL    HW258933   3.147   1.860  12.866
52346SOL     OW58934   9.560   8.023  12.916
52346SOL    HW158935   9.624   7.976  12.863
52346SOL    HW258936   9.558   8.111  12.879
52347SOL     OW58937  10.651   7.048   0.432
52347SOL    HW158938  10.745   7.051   0.419
52347SOL    HW258939  10.638   7.082   0.520
52348SOL     OW58940   9.418   0.937   3.577
52348SOL    HW158941   9.437   0.894   3.494
52348SOL    HW258942   9.468   1.019   3.573
52349SOL     OW58943  10.194   7.734   2.371
52349SOL    HW158944  10.234   7.703   2.453
52349SOL    HW258945  10.216   7.826   2.367
52350SOL     OW58946   8.681  12.017   5.226
52350SOL    HW158947   8.595  11.983   5.202
52350SOL    HW258948   8.742  11.974   5.165
52351SOL     OW58949   4.360  13.072   5.833
52351SOL    HW158950   4.331  13.017   5.906
52351SOL    HW258951   4.305  13.046   5.760
52352SOL     OW58952  12.629   4.018  12.969
52352SOL    HW158953  12.567   4.076  13.013
52352SOL    HW258954  12.575   3.955  12.921
52353SOL     OW58955   2.996   1.113   6.332
52353SOL    HW158956   2.973   1.073   6.248
52353SOL    HW258957   2.998   1.207   6.313
52354SOL     OW58958   5.206   9.242   4.296
52354SOL    HW158959   5.135   9.302   4.273
52354SOL    HW258960   5.168   9.155   4.287
52355SOL     OW58961  12.435   7.866   0.909
52355SOL    HW158962  12.468   7.955   0.895
52355SOL    HW258963  12.507   7.819   0.949
52356SOL     OW58964   0.511   2.458   8.140
52356SOL    HW158965   0.440   2.494   8.193
52356SOL    HW258966   0.532   2.528   8.078
52357SOL     OW58967  10.652  12.443   4.033
52357SOL    HW158968  10.637  12.403   4.119
52357SOL    HW258969  10.697  12.376   3.982
52358SOL     OW58970  10.584  11.714  12.003
52358SOL    HW158971  10.525  11.649  12.041
52358SOL    HW258972  10.526  11.776  11.958
52359SOL     OW58973  14.563  14.122   6.377
52359SOL    HW158974  14.517  14.164   6.304
52359SOL    HW258975  14.656  14.130   6.356
52360SOL     OW58976   4.916   1.597   7.463
52360SOL    HW158977   4.861   1.674   7.455
52360SOL    HW258978   4.990   1.625   7.517
52361SOL     OW58979   5.466   9.429   9.289
52361SOL    HW158980   5.556   9.417   9.320
52361SOL    HW258981   5.438   9.341   9.263
52362SOL     OW58982   9.832  14.109   2.378
52362SOL    HW158983   9.847  14.048   2.450
52362SOL    HW258984   9.896  14.084   2.311
52363SOL     OW58985   1.955   0.037   4.621
52363SOL    HW158986   2.022   0.002   4.679
52363SOL    HW258987   1.880   0.055   4.678
52364SOL     OW58988   6.215   1.858   7.774
52364SOL    HW158989   6.124   1.840   7.752
52364SOL    HW258990   6.255   1.771   7.781
52365SOL     OW58991   1.158   0.112   3.026
52365SOL    HW158992   1.203   0.130   2.944
52365SOL    HW258993   1.084   0.172   3.027
52366SOL     OW58994   9.314   2.147  12.182
52366SOL    HW158995   9.257   2.119  12.253
52366SOL    HW258996   9.392   2.093  12.190
52367SOL     OW58997   8.273   1.157   0.277
52367SOL    HW158998   8.211   1.147   0.349
52367SOL    HW258999   8.268   1.073   0.230
52368SOL     OW59000   4.649  14.449   4.815
52368SOL    HW159001   4.702  14.482   4.742
52368SOL    HW259002   4.685  14.495   4.892
52369SOL     OW59003   5.407   3.389   5.948
52369SOL    HW159004   5.454   3.332   5.887
52369SOL    HW259005   5.456   3.380   6.030
52370SOL     OW59006   0.289   1.314   3.782
52370SOL    HW159007   0.308   1.394   3.733
52370SOL    HW259008   0.229   1.342   3.851
52371SOL     OW59009   4.494  11.158   6.565
52371SOL    HW159010   4.559  11.129   6.629
52371SOL    HW259011   4.494  11.254   6.573
52372SOL     OW59012   6.836   0.978   6.010
52372SOL    HW159013   6.769   0.993   5.943
52372SOL    HW259014   6.837   1.059   6.060
52373SOL     OW59015   1.419   3.054  10.099
52373SOL    HW159016   1.445   2.990  10.033
52373SOL    HW259017   1.482   3.042  10.170
52374SOL     OW59018   3.599  12.334  10.044
52374SOL    HW159019   3.568  12.330  10.134
52374SOL    HW259020   3.628  12.244  10.025
52375SOL     OW59021   5.349  10.817  13.682
52375SOL    HW159022   5.403  10.841  13.606
52375SOL    HW259023   5.281  10.761  13.645
52376SOL     OW59024   0.769   8.492   6.816
52376SOL    HW159025   0.823   8.414   6.803
52376SOL    HW259026   0.728   8.508   6.731
52377SOL     OW59027  10.843   0.750  11.591
52377SOL    HW159028  10.815   0.667  11.629
52377SOL    HW259029  10.765   0.784  11.546
52378SOL     OW59030   8.170   6.755   5.104
52378SOL    HW159031   8.253   6.707   5.108
52378SOL    HW259032   8.175   6.803   5.022
52379SOL     OW59033   3.537   3.075   5.099
52379SOL    HW159034   3.503   3.065   5.188
52379SOL    HW259035   3.600   3.004   5.089
52380SOL     OW59036  14.810   6.329  14.613
52380SOL    HW159037  14.776   6.240  14.603
52380SOL    HW259038  14.786   6.373  14.532
52381SOL     OW59039   6.928  10.845   2.530
52381SOL    HW159040   6.833  10.846   2.519
52381SOL    HW259041   6.963  10.827   2.443
52382SOL     OW59042   5.039   8.955   7.337
52382SOL    HW159043   4.945   8.952   7.352
52382SOL    HW259044   5.049   8.974   7.244
52383SOL     OW59045   3.143   5.233   5.397
52383SOL    HW159046   3.207   5.278   5.452
52383SOL    HW259047   3.114   5.159   5.449
52384SOL     OW59048   8.597   0.246  13.811
52384SOL    HW159049   8.596   0.227  13.905
52384SOL    HW259050   8.637   0.168  13.771
52385SOL     OW59051   4.551  13.016   1.959
52385SOL    HW159052   4.500  12.983   2.033
52385SOL    HW259053   4.626  12.957   1.954
52386SOL     OW59054   6.843   3.438  14.333
52386SOL    HW159055   6.774   3.449  14.398
52386SOL    HW259056   6.796   3.428  14.250
52387SOL     OW59057  14.480   6.877   1.117
52387SOL    HW159058  14.429   6.957   1.133
52387SOL    HW259059  14.446   6.814   1.180
52388SOL     OW59060   4.575   7.015  11.556
52388SOL    HW159061   4.669   7.005  11.544
52388SOL    HW259062   4.542   6.925  11.565
52389SOL     OW59063   2.491  10.116   9.905
52389SOL    HW159064   2.450  10.167   9.974
52389SOL    HW259065   2.584  10.136   9.912
52390SOL     OW59066   4.324   9.950   4.686
52390SOL    HW159067   4.339   9.996   4.768
52390SOL    HW259068   4.292   9.863   4.713
52391SOL     OW59069   3.545   9.517   3.188
52391SOL    HW159070   3.536   9.543   3.280
52391SOL    HW259071   3.458   9.484   3.165
52392SOL     OW59072   4.934   3.095  13.447
52392SOL    HW159073   4.972   3.061  13.528
52392SOL    HW259074   4.887   3.021  13.409
52393SOL     OW59075  10.666   2.373   7.648
52393SOL    HW159076  10.755   2.408   7.637
52393SOL    HW259077  10.615   2.416   7.580
52394SOL     OW59078   7.785   4.559   9.199
52394SOL    HW159079   7.867   4.581   9.155
52394SOL    HW259080   7.767   4.635   9.255
52395SOL     OW59081   4.709   2.187   2.552
52395SOL    HW159082   4.731   2.253   2.619
52395SOL    HW259083   4.748   2.106   2.585
52396SOL     OW59084   7.149   5.649   4.193
52396SOL    HW159085   7.150   5.714   4.122
52396SOL    HW259086   7.133   5.565   4.148
52397SOL     OW59087  10.329   5.971   4.484
52397SOL    HW159088  10.347   5.900   4.424
52397SOL    HW259089  10.289   5.929   4.560
52398SOL     OW59090  13.166   2.289   7.495
52398SOL    HW159091  13.197   2.281   7.586
52398SOL    HW259092  13.231   2.241   7.443
52399SOL     OW59093   3.672   4.659   2.640
52399SOL    HW159094   3.694   4.714   2.565
52399SOL    HW259095   3.616   4.715   2.695
52400SOL     OW59096  11.272   4.066  12.464
52400SOL    HW159097  11.322   3.987  12.440
52400SOL    HW259098  11.240   4.100  12.380
52401SOL     OW59099  13.764   1.722  12.819
52401SOL    HW159100  13.808   1.687  12.741
52401SOL    HW259101  13.745   1.813  12.797
52402SOL     OW59102   0.775  11.628   9.775
52402SOL    HW159103   0.681  11.640   9.787
52402SOL    HW259104   0.800  11.563   9.841
52403SOL     OW59105   7.640   4.797  13.709
52403SOL    HW159106   7.658   4.781  13.802
52403SOL    HW259107   7.576   4.868  13.709
52404SOL     OW59108   3.759   2.664   8.787
52404SOL    HW159109   3.787   2.596   8.725
52404SOL    HW259110   3.806   2.645   8.867
52405SOL     OW59111  13.715   5.359   3.983
52405SOL    HW159112  13.645   5.424   3.979
52405SOL    HW259113  13.670   5.275   3.994
52406SOL     OW59114   6.123   0.764   7.128
52406SOL    HW159115   6.146   0.732   7.041
52406SOL    HW259116   6.037   0.803   7.117
52407SOL     OW59117   9.408   6.641   7.746
52407SOL    HW159118   9.466   6.706   7.706
52407SOL    HW259119   9.457   6.609   7.822
52408SOL     OW59120   5.526   0.911   0.434
52408SOL    HW159121   5.467   0.939   0.504
52408SOL    HW259122   5.613   0.915   0.473
52409SOL     OW59123   2.685   8.851   0.538
52409SOL    HW159124   2.601   8.874   0.579
52409SOL    HW259125   2.735   8.808   0.607
52410SOL     OW59126   8.936   8.725   1.148
52410SOL    HW159127   8.983   8.707   1.229
52410SOL    HW259128   8.976   8.806   1.115
52411SOL     OW59129   4.008   2.013  14.768
52411SOL    HW159130   3.954   2.090  14.747
52411SOL    HW259131   4.063   2.001  14.691
52412SOL     OW59132  14.363  14.429   7.681
52412SOL    HW159133  14.279  14.414   7.638
52412SOL    HW259134  14.363  14.522   7.703
52413SOL     OW59135  13.306   1.767   3.865
52413SOL    HW159136  13.275   1.857   3.853
52413SOL    HW259137  13.253   1.715   3.805
52414SOL     OW59138   7.519   5.311   2.690
52414SOL    HW159139   7.542   5.284   2.601
52414SOL    HW259140   7.558   5.244   2.746
52415SOL     OW59141   0.959  11.327  14.290
52415SOL    HW159142   0.919  11.253  14.244
52415SOL    HW259143   0.916  11.327  14.376
52416SOL     OW59144   5.738   4.354   5.319
52416SOL    HW159145   5.759   4.262   5.299
52416SOL    HW259146   5.738   4.397   5.234
52417SOL     OW59147   0.303   0.738  11.036
52417SOL    HW159148   0.239   0.791  10.990
52417SOL    HW259149   0.380   0.795  11.044
52418SOL     OW59150   5.149   7.346   1.128
52418SOL    HW159151   5.083   7.283   1.158
52418SOL    HW259152   5.216   7.291   1.088
52419SOL     OW59153   3.523  13.729   8.174
52419SOL    HW159154   3.525  13.815   8.216
52419SOL    HW259155   3.583  13.737   8.099
52420SOL     OW59156  11.475   1.953   0.768
52420SOL    HW159157  11.554   1.990   0.729
52420SOL    HW259158  11.426   1.917   0.693
52421SOL     OW59159  11.903  14.655   8.362
52421SOL    HW159160  11.933  14.733   8.316
52421SOL    HW259161  11.973  14.592   8.352
52422SOL     OW59162   3.668   5.742  10.399
52422SOL    HW159163   3.750   5.700  10.426
52422SOL    HW259164   3.695   5.816  10.345
52423SOL     OW59165   2.207  12.193   7.638
52423SOL    HW159166   2.238  12.102   7.635
52423SOL    HW259167   2.177  12.205   7.728
52424SOL     OW59168  13.527  11.694   2.792
52424SOL    HW159169  13.554  11.698   2.701
52424SOL    HW259170  13.449  11.638   2.792
52425SOL     OW59171  12.862   2.605   8.970
52425SOL    HW159172  12.932   2.670   8.966
52425SOL    HW259173  12.786   2.650   8.934
52426SOL     OW59174   6.067   6.559   0.931
52426SOL    HW159175   6.148   6.568   0.981
52426SOL    HW259176   5.997   6.578   0.994
52427SOL     OW59177   4.578   2.726   0.043
52427SOL    HW159178   4.545   2.778  14.839
52427SOL    HW259179   4.673   2.726   0.032
52428SOL     OW59180   9.951   1.230   2.452
52428SOL    HW159181   9.912   1.162   2.506
52428SOL    HW259182  10.039   1.242   2.488
52429SOL     OW59183   3.930   5.623   1.243
52429SOL    HW159184   3.928   5.669   1.327
52429SOL    HW259185   3.884   5.541   1.259
52430SOL     OW59186  13.001   7.362   1.145
52430SOL    HW159187  12.971   7.426   1.209
52430SOL    HW259188  12.956   7.281   1.169
52431SOL     OW59189   5.313   1.634   0.497
52431SOL    HW159190   5.235   1.633   0.552
52431SOL    HW259191   5.325   1.542   0.471
52432SOL     OW59192   0.323  10.007  10.309
52432SOL    HW159193   0.261  10.017  10.237
52432SOL    HW259194   0.296  10.073  10.373
52433SOL     OW59195   5.231   7.265   5.179
52433SOL    HW159196   5.242   7.234   5.089
52433SOL    HW259197   5.300   7.221   5.228
52434SOL     OW59198   2.757   0.546  11.062
52434SOL    HW159199   2.685   0.547  11.126
52434SOL    HW259200   2.790   0.635  11.063
52435SOL     OW59201   3.512   9.518   8.629
52435SOL    HW159202   3.477   9.561   8.707
52435SOL    HW259203   3.476   9.568   8.556
52436SOL     OW59204  10.043   9.171  11.785
52436SOL    HW159205  10.131   9.192  11.817
52436SOL    HW259206  10.054   9.160  11.690
52437SOL     OW59207   3.117   8.332   0.107
52437SOL    HW159208   3.097   8.398   0.041
52437SOL    HW259209   3.181   8.374   0.165
52438SOL     OW59210  13.617  13.951  11.687
52438SOL    HW159211  13.697  13.993  11.719
52438SOL    HW259212  13.641  13.917  11.601
52439SOL     OW59213  10.970  11.103   5.957
52439SOL    HW159214  11.015  11.156   5.892
52439SOL    HW259215  10.973  11.155   6.037
52440SOL     OW59216   9.664  12.376  13.837
52440SOL    HW159217   9.686  12.427  13.915
52440SOL    HW259218   9.749  12.357  13.796
52441SOL     OW59219  11.997   9.037   3.042
52441SOL    HW159220  12.030   9.019   3.131
52441SOL    HW259221  11.967   9.127   3.045
52442SOL     OW59222   1.439   6.828   8.710
52442SOL    HW159223   1.534   6.839   8.706
52442SOL    HW259224   1.426   6.737   8.734
52443SOL     OW59225   7.252  14.842   9.469
52443SOL    HW159226   7.334   0.021   9.468
52443SOL    HW259227   7.213  14.860   9.383
52444SOL     OW59228   5.738   2.271  14.152
52444SOL    HW159229   5.769   2.355  14.119
52444SOL    HW259230   5.716   2.221  14.073
52445SOL     OW59231   2.825  14.845  10.564
52445SOL    HW159232   2.853   0.043  10.502
52445SOL    HW259233   2.762  14.792  10.515
52446SOL     OW59234   8.976  11.683  14.030
52446SOL    HW159235   8.931  11.660  14.111
52446SOL    HW259236   9.028  11.760  14.053
52447SOL     OW59237  11.625   9.468   6.093
52447SOL    HW159238  11.689   9.521   6.045
52447SOL    HW259239  11.544   9.518   6.089
52448SOL     OW59240   9.640   1.652   0.534
52448SOL    HW159241   9.722   1.700   0.530
52448SOL    HW259242   9.649   1.581   0.471
52449SOL     OW59243   2.310   0.818   3.124
52449SOL    HW159244   2.251   0.767   3.070
52449SOL    HW259245   2.306   0.777   3.211
52450SOL     OW59246  14.837  13.376  12.821
52450SOL    HW159247  14.762  13.329  12.855
52450SOL    HW259248  14.858  13.331  12.739
52451SOL     OW59249   0.553  11.610  11.642
52451SOL    HW159250   0.634  11.633  11.688
52451SOL    HW259251   0.542  11.516  11.658
52452SOL     OW59252   5.497  12.476  10.875
52452SOL    HW159253   5.421  12.530  10.852
52452SOL    HW259254   5.566  12.539  10.895
52453SOL     OW59255   4.730  12.296  13.213
52453SOL    HW159256   4.747  12.215  13.261
52453SOL    HW259257   4.811  12.314  13.166
52454SOL     OW59258  10.888   3.437  14.303
52454SOL    HW159259  10.801   3.414  14.271
52454SOL    HW259260  10.876   3.520  14.349
52455SOL     OW59261   8.913   8.325   2.989
52455SOL    HW159262   8.897   8.419   2.978
52455SOL    HW259263   9.005   8.313   2.968
52456SOL     OW59264  12.706  14.768  11.964
52456SOL    HW159265  12.692  14.768  11.869
52456SOL    HW259266  12.710  14.861  11.987
52457SOL     OW59267  10.847  13.871   8.117
52457SOL    HW159268  10.784  13.905   8.054
52457SOL    HW259269  10.808  13.789   8.149
52458SOL     OW59270   7.553   8.746  13.882
52458SOL    HW159271   7.468   8.726  13.843
52458SOL    HW259272   7.545   8.837  13.911
52459SOL     OW59273   8.627  11.535   8.434
52459SOL    HW159274   8.621  11.439   8.434
52459SOL    HW259275   8.708  11.553   8.385
52460SOL     OW59276  12.536   6.445   4.363
52460SOL    HW159277  12.585   6.388   4.305
52460SOL    HW259278  12.603   6.489   4.416
52461SOL     OW59279   1.844   3.403  13.390
52461SOL    HW159280   1.750   3.419  13.390
52461SOL    HW259281   1.871   3.421  13.299
52462SOL     OW59282  11.421   7.941   7.218
52462SOL    HW159283  11.476   7.863   7.213
52462SOL    HW259284  11.332   7.907   7.224
52463SOL     OW59285   0.571  14.652   4.533
52463SOL    HW159286   0.608  14.595   4.600
52463SOL    HW259287   0.647  14.695   4.493
52464SOL     OW59288  13.489   0.455   9.632
52464SOL    HW159289  13.480   0.463   9.537
52464SOL    HW259290  13.511   0.363   9.646
52465SOL     OW59291   3.371   8.019  10.482
52465SOL    HW159292   3.310   8.013  10.555
52465SOL    HW259293   3.456   8.036  10.522
52466SOL     OW59294  13.358   6.399   7.540
52466SOL    HW159295  13.374   6.306   7.527
52466SOL    HW259296  13.441   6.441   7.519
52467SOL     OW59297   5.629   1.689   5.888
52467SOL    HW159298   5.538   1.704   5.863
52467SOL    HW259299   5.676   1.677   5.806
52468SOL     OW59300   4.903   1.034   4.407
52468SOL    HW159301   4.887   0.984   4.487
52468SOL    HW259302   4.949   0.974   4.349
52469SOL     OW59303   4.378   3.570   7.826
52469SOL    HW159304   4.287   3.550   7.846
52469SOL    HW259305   4.401   3.641   7.886
52470SOL     OW59306  13.696  13.214   6.596
52470SOL    HW159307  13.629  13.212   6.527
52470SOL    HW259308  13.765  13.157   6.563
52471SOL     OW59309   3.845   7.102  13.440
52471SOL    HW159310   3.897   7.180  13.423
52471SOL    HW259311   3.909   7.035  13.463
52472SOL     OW59312   7.243   0.874  10.643
52472SOL    HW159313   7.232   0.813  10.570
52472SOL    HW259314   7.335   0.865  10.668
52473SOL     OW59315  12.994  12.955   1.969
52473SOL    HW159316  13.021  12.873   1.929
52473SOL    HW259317  12.911  12.977   1.927
52474SOL     OW59318   6.175   5.945  14.813
52474SOL    HW159319   6.228   6.000  14.755
52474SOL    HW259320   6.234   5.921   0.014
52475SOL     OW59321   7.536  13.854   9.115
52475SOL    HW159322   7.472  13.789   9.143
52475SOL    HW259323   7.491  13.907   9.050
52476SOL     OW59324   7.990  12.868  10.009
52476SOL    HW159325   8.050  12.942  10.007
52476SOL    HW259326   7.903  12.907  10.004
52477SOL     OW59327   1.930  10.925   8.081
52477SOL    HW159328   1.885  10.860   8.135
52477SOL    HW259329   1.913  11.008   8.124
52478SOL     OW59330  13.623  11.588  10.509
52478SOL    HW159331  13.556  11.549  10.453
52478SOL    HW259332  13.593  11.677  10.523
52479SOL     OW59333  10.730  13.296   4.338
52479SOL    HW159334  10.668  13.224   4.349
52479SOL    HW259335  10.740  13.332   4.426
52480SOL     OW59336   5.272  12.598  10.785
52480SOL    HW159337   5.216  12.570  10.713
52480SOL    HW259338   5.291  12.690  10.767
52481SOL     OW59339   0.900  10.969   1.319
52481SOL    HW159340   0.860  10.921   1.391
52481SOL    HW259341   0.989  10.934   1.312
52482SOL     OW59342  11.753   9.401  13.851
52482SOL    HW159343  11.796   9.477  13.812
52482SOL    HW259344  11.825   9.344  13.877
52483SOL     OW59345   7.396   5.789   4.302
52483SOL    HW159346   7.320   5.754   4.254
52483SOL    HW259347   7.459   5.717   4.302
52484SOL     OW59348   6.054   6.645   8.690
52484SOL    HW159349   6.069   6.557   8.724
52484SOL    HW259350   5.973   6.673   8.732
52485SOL     OW59351   6.538   1.773   1.309
52485SOL    HW159352   6.578   1.731   1.386
52485SOL    HW259353   6.602   1.838   1.281
52486SOL     OW59354   0.510   9.175  11.598
52486SOL    HW159355   0.459   9.115  11.544
52486SOL    HW259356   0.510   9.258  11.550
52487SOL     OW59357   3.711   0.213  11.652
52487SOL    HW159358   3.761   0.133  11.666
52487SOL    HW259359   3.729   0.266  11.730
52488SOL     OW59360   5.976   7.224   2.466
52488SOL    HW159361   5.974   7.216   2.371
52488SOL    HW259362   5.924   7.149   2.497
52489SOL     OW59363   2.952   2.042  12.563
52489SOL    HW159364   2.902   2.119  12.535
52489SOL    HW259365   2.955   2.047  12.658
52490SOL     OW59366   5.418   3.242  14.753
52490SOL    HW159367   5.408   3.251  14.847
52490SOL    HW259368   5.370   3.316  14.716
52491SOL     OW59369  10.190   8.896  13.558
52491SOL    HW159370  10.248   8.886  13.634
52491SOL    HW259371  10.225   8.972  13.511
52492SOL     OW59372   4.983  12.935  13.062
52492SOL    HW159373   5.019  12.907  13.147
52492SOL    HW259374   4.893  12.902  13.063
52493SOL     OW59375   6.885   9.729   0.253
52493SOL    HW159376   6.936   9.790   0.199
52493SOL    HW259377   6.949   9.665   0.283
52494SOL     OW59378   6.138   6.791   7.306
52494SOL    HW159379   6.143   6.735   7.384
52494SOL    HW259380   6.202   6.753   7.245
52495SOL     OW59381  11.171   4.016  13.385
52495SOL    HW159382  11.169   3.970  13.469
52495SOL    HW259383  11.087   3.994  13.344
52496SOL     OW59384   2.147   7.182   5.725
52496SOL    HW159385   2.130   7.258   5.668
52496SOL    HW259386   2.072   7.124   5.709
52497SOL     OW59387   5.889   1.943   1.351
52497SOL    HW159388   5.875   1.914   1.261
52497SOL    HW259389   5.876   2.038   1.348
52498SOL     OW59390  14.217   6.237  13.227
52498SOL    HW159391  14.131   6.228  13.267
52498SOL    HW259392  14.200   6.228  13.133
52499SOL     OW59393  12.159  12.860  12.453
52499SOL    HW159394  12.146  12.953  12.470
52499SOL    HW259395  12.107  12.816  12.521
52500SOL     OW59396  13.772   4.831   2.514
52500SOL    HW159397  13.812   4.905   2.470
52500SOL    HW259398  13.688   4.818   2.468
52501SOL     OW59399   5.567  12.481   5.944
52501SOL    HW159400   5.513  12.501   6.020
52501SOL    HW259401   5.657  12.493   5.974
52502SOL     OW59402   9.298   0.135   4.523
52502SOL    HW159403   9.352   0.211   4.543
52502SOL    HW259404   9.227   0.139   4.587
52503SOL     OW59405   3.537   6.001   8.295
52503SOL    HW159406   3.606   5.967   8.237
52503SOL    HW259407   3.539   6.095   8.280
52504SOL     OW59408   2.868   4.129  13.784
52504SOL    HW159409   2.800   4.140  13.850
52504SOL    HW259410   2.928   4.064  13.821
52505SOL     OW59411   6.535   8.387   9.719
52505SOL    HW159412   6.540   8.358   9.628
52505SOL    HW259413   6.441   8.392   9.737
52506SOL     OW59414   6.544   6.425   1.974
52506SOL    HW159415   6.488   6.456   1.902
52506SOL    HW259416   6.516   6.476   2.050
52507SOL     OW59417   2.046  11.212  13.986
52507SOL    HW159418   1.997  11.131  13.967
52507SOL    HW259419   2.056  11.212  14.081
52508SOL     OW59420   8.771   7.570   5.727
52508SOL    HW159421   8.804   7.628   5.795
52508SOL    HW259422   8.775   7.483   5.766
52509SOL     OW59423  13.478   1.411   0.187
52509SOL    HW159424  13.532   1.339   0.222
52509SOL    HW259425  13.539   1.484   0.180
52510SOL     OW59426   2.185   3.947   1.002
52510SOL    HW159427   2.144   3.864   0.976
52510SOL    HW259428   2.141   4.013   0.948
52511SOL     OW59429   0.101   4.739   6.868
52511SOL    HW159430   0.044   4.696   6.804
52511SOL    HW259431   0.182   4.755   6.820
52512SOL     OW59432   0.906   4.540   4.141
52512SOL    HW159433   0.940   4.597   4.072
52512SOL    HW259434   0.905   4.453   4.101
52513SOL     OW59435  11.563   4.991  12.223
52513SOL    HW159436  11.595   5.081  12.219
52513SOL    HW259437  11.468   5.000  12.234
52514SOL     OW59438   9.464  12.955  13.590
52514SOL    HW159439   9.431  12.971  13.679
52514SOL    HW259440   9.502  12.867  13.595
52515SOL     OW59441   8.539   8.064   1.995
52515SOL    HW159442   8.468   8.036   2.053
52515SOL    HW259443   8.618   8.054   2.047
52516SOL     OW59444   3.777   5.365  12.841
52516SOL    HW159445   3.863   5.393  12.808
52516SOL    HW259446   3.714   5.411  12.785
52517SOL     OW59447  12.079   6.227   6.849
52517SOL    HW159448  12.004   6.233   6.908
52517SOL    HW259449  12.126   6.149   6.878
52518SOL     OW59450  12.629   3.797   1.308
52518SOL    HW159451  12.723   3.780   1.321
52518SOL    HW259452  12.586   3.743   1.374
52519SOL     OW59453  14.835   0.954   6.334
52519SOL    HW159454   0.028   0.902   6.283
52519SOL    HW259455  14.851   0.929   6.425
52520SOL     OW59456   6.130  14.198   5.706
52520SOL    HW159457   6.035  14.196   5.715
52520SOL    HW259458   6.162  14.135   5.770
52521SOL     OW59459   2.664  14.510   6.411
52521SOL    HW159460   2.641  14.468   6.494
52521SOL    HW259461   2.756  14.537   6.422
52522SOL     OW59462   5.187  14.733  10.216
52522SOL    HW159463   5.178  14.662  10.153
52522SOL    HW259464   5.235  14.694  10.289
52523SOL     OW59465   6.047   1.913  12.315
52523SOL    HW159466   6.104   1.942  12.386
52523SOL    HW259467   5.976   1.866  12.359
52524SOL     OW59468   5.127  14.235  14.233
52524SOL    HW159469   5.049  14.181  14.244
52524SOL    HW259470   5.198  14.181  14.268
52525SOL     OW59471  12.985   8.011  13.807
52525SOL    HW159472  12.892   8.035  13.801
52525SOL    HW259473  13.007   8.026  13.899
52526SOL     OW59474   3.850   0.414   3.700
52526SOL    HW159475   3.887   0.350   3.761
52526SOL    HW259476   3.925   0.467   3.673
52527SOL     OW59477   2.769   5.319   5.486
52527SOL    HW159478   2.704   5.296   5.420
52527SOL    HW259479   2.784   5.413   5.473
52528SOL     OW59480   7.031   9.968   2.742
52528SOL    HW159481   7.088   9.972   2.666
52528SOL    HW259482   6.964   9.904   2.718
52529SOL     OW59483   8.343   4.107  14.026
52529SOL    HW159484   8.270   4.092  14.087
52529SOL    HW259485   8.328   4.196  13.992
52530SOL     OW59486  11.059   8.373   0.367
52530SOL    HW159487  11.062   8.391   0.273
52530SOL    HW259488  11.050   8.459   0.407
52531SOL     OW59489  14.393   2.375  12.012
52531SOL    HW159490  14.456   2.444  12.033
52531SOL    HW259491  14.328   2.418  11.956
52532SOL     OW59492  11.618  12.809  13.887
52532SOL    HW159493  11.541  12.818  13.943
52532SOL    HW259494  11.592  12.747  13.819
52533SOL     OW59495   6.932   3.731  11.490
52533SOL    HW159496   6.845   3.716  11.529
52533SOL    HW259497   6.937   3.826  11.479
52534SOL     OW59498   7.445  13.777   9.883
52534SOL    HW159499   7.533  13.764   9.917
52534SOL    HW259500   7.389  13.722   9.938
52535SOL     OW59501   2.479   9.626   3.591
52535SOL    HW159502   2.459   9.639   3.684
52535SOL    HW259503   2.513   9.711   3.561
52536SOL     OW59504   3.858   1.498   6.714
52536SOL    HW159505   3.909   1.559   6.661
52536SOL    HW259506   3.793   1.552   6.759
52537SOL     OW59507   5.572  12.086  11.200
52537SOL    HW159508   5.541  12.176  11.195
52537SOL    HW259509   5.582  12.058  11.109
52538SOL     OW59510   0.454  10.283   2.386
52538SOL    HW159511   0.537  10.309   2.345
52538SOL    HW259512   0.387  10.315   2.325
52539SOL     OW59513   8.561  12.508  12.616
52539SOL    HW159514   8.606  12.538  12.537
52539SOL    HW259515   8.576  12.579  12.679
52540SOL     OW59516  10.430  10.063   8.425
52540SOL    HW159517  10.486  10.108   8.362
52540SOL    HW259518  10.343  10.064   8.384
52541SOL     OW59519   6.254  14.768   5.772
52541SOL    HW159520   6.282  14.826   5.842
52541SOL    HW259521   6.336  14.731   5.738
52542SOL     OW59522   8.284   3.705   5.182
52542SOL    HW159523   8.314   3.616   5.199
52542SOL    HW259524   8.339   3.735   5.110
52543SOL     OW59525   5.500   2.149   1.346
52543SOL    HW159526   5.425   2.208   1.341
52543SOL    HW259527   5.465   2.068   1.382
52544SOL     OW59528  10.212   5.990  10.582
52544SOL    HW159529  10.242   5.950  10.501
52544SOL    HW259530  10.225   5.922  10.649
52545SOL     OW59531  11.436   3.156   5.008
52545SOL    HW159532  11.407   3.217   5.077
52545SOL    HW259533  11.375   3.173   4.935
52546SOL     OW59534  10.941   5.380  14.031
52546SOL    HW159535  10.899   5.309  13.982
52546SOL    HW259536  10.878   5.453  14.027
52547SOL     OW59537  14.658  11.336   9.904
52547SOL    HW159538  14.581  11.374   9.946
52547SOL    HW259539  14.629  11.315   9.816
52548SOL     OW59540   5.911   0.312   0.959
52548SOL    HW159541   5.830   0.261   0.958
52548SOL    HW259542   5.939   0.315   0.867
52549SOL     OW59543   6.752   5.467   1.020
52549SOL    HW159544   6.809   5.392   1.000
52549SOL    HW259545   6.812   5.541   1.031
52550SOL     OW59546  13.938   8.355  14.283
52550SOL    HW159547  14.012   8.344  14.224
52550SOL    HW259548  13.882   8.278  14.267
52551SOL     OW59549   7.293  11.580  10.336
52551SOL    HW159550   7.269  11.584  10.428
52551SOL    HW259551   7.348  11.657  10.321
52552SOL     OW59552  14.247   7.954   9.215
52552SOL    HW159553  14.286   7.946   9.303
52552SOL    HW259554  14.264   7.868   9.175
52553SOL     OW59555   6.540  13.556   7.195
52553SOL    HW159556   6.484  13.529   7.122
52553SOL    HW259557   6.588  13.631   7.161
52554SOL     OW59558   1.925   8.165   6.979
52554SOL    HW159559   1.830   8.171   6.969
52554SOL    HW259560   1.939   8.094   7.041
52555SOL     OW59561  12.529   8.073   1.959
52555SOL    HW159562  12.560   8.004   1.902
52555SOL    HW259563  12.482   8.133   1.900
52556SOL     OW59564   7.874   4.788   6.070
52556SOL    HW159565   7.871   4.877   6.035
52556SOL    HW259566   7.852   4.798   6.163
52557SOL     OW59567  12.076   5.620   7.459
52557SOL    HW159568  12.042   5.670   7.385
52557SOL    HW259569  12.076   5.529   7.427
52558SOL     OW59570  10.069   0.770   1.489
52558SOL    HW159571  10.157   0.734   1.488
52558SOL    HW259572  10.067   0.833   1.417
52559SOL     OW59573   3.210   4.564  14.214
52559SOL    HW159574   3.223   4.552  14.120
52559SOL    HW259575   3.298   4.555  14.252
52560SOL     OW59576   9.407  13.265   6.716
52560SOL    HW159577   9.363  13.218   6.787
52560SOL    HW259578   9.416  13.200   6.646
52561SOL     OW59579   1.003   3.729   4.120
52561SOL    HW159580   0.985   3.752   4.029
52561SOL    HW259581   1.021   3.635   4.118
52562SOL     OW59582   8.956   5.051   0.013
52562SOL    HW159583   8.984   4.981  14.824
52562SOL    HW259584   9.032   5.067   0.069
52563SOL     OW59585   3.425   1.256  10.550
52563SOL    HW159586   3.349   1.312  10.537
52563SOL    HW259587   3.427   1.198  10.474
52564SOL     OW59588   0.895  14.689   1.489
52564SOL    HW159589   0.922  14.758   1.429
52564SOL    HW259590   0.943  14.611   1.461
52565SOL     OW59591   3.815   5.058   8.976
52565SOL    HW159592   3.881   5.038   8.911
52565SOL    HW259593   3.845   5.140   9.017
52566SOL     OW59594   7.049  13.528   7.080
52566SOL    HW159595   7.046  13.598   7.144
52566SOL    HW259596   7.134  13.539   7.037
52567SOL     OW59597   6.591   3.478   5.978
52567SOL    HW159598   6.631   3.445   6.058
52567SOL    HW259599   6.634   3.430   5.907
52568SOL     OW59600  12.888   9.340   7.530
52568SOL    HW159601  12.793   9.337   7.517
52568SOL    HW259602  12.918   9.408   7.470
52569SOL     OW59603   9.299   5.754  14.330
52569SOL    HW159604   9.227   5.815  14.348
52569SOL    HW259605   9.326   5.723  14.416
52570SOL     OW59606  12.076  13.485   3.412
52570SOL    HW159607  12.121  13.512   3.332
52570SOL    HW259608  12.027  13.562   3.440
52571SOL     OW59609   9.413   6.825   0.112
52571SOL    HW159610   9.450   6.842   0.198
52571SOL    HW259611   9.489   6.810   0.055
52572SOL     OW59612   9.494   0.009   9.356
52572SOL    HW159613   9.407   0.036   9.385
52572SOL    HW259614   9.490  14.784   9.350
52573SOL     OW59615  11.868  10.206  12.311
52573SOL    HW159616  11.919  10.162  12.243
52573SOL    HW259617  11.932  10.227  12.379
52574SOL     OW59618   2.765   8.293   9.217
52574SOL    HW159619   2.798   8.220   9.269
52574SOL    HW259620   2.841   8.351   9.207
52575SOL     OW59621  12.013   7.340  11.071
52575SOL    HW159622  11.963   7.290  11.007
52575SOL    HW259623  12.103   7.308  11.062
52576SOL     OW59624  14.123   9.826   5.203
52576SOL    HW159625  14.190   9.861   5.143
52576SOL    HW259626  14.041   9.862   5.170
52577SOL     OW59627   5.241   2.412   3.962
52577SOL    HW159628   5.333   2.412   3.991
52577SOL    HW259629   5.192   2.388   4.040
52578SOL     OW59630  14.002   7.301   1.079
52578SOL    HW159631  13.916   7.273   1.049
52578SOL    HW259632  13.984   7.376   1.136
52579SOL     OW59633  14.734   9.651   3.339
52579SOL    HW159634  14.792   9.715   3.381
52579SOL    HW259635  14.647   9.690   3.345
52580SOL     OW59636   2.745  11.097   3.193
52580SOL    HW159637   2.731  11.009   3.158
52580SOL    HW259638   2.709  11.093   3.281
52581SOL     OW59639   5.424   6.538  10.335
52581SOL    HW159640   5.511   6.537  10.295
52581SOL    HW259641   5.392   6.627  10.319
52582SOL     OW59642  13.935  13.112   9.190
52582SOL    HW159643  13.873  13.064   9.134
52582SOL    HW259644  14.019  13.103   9.145
52583SOL     OW59645  13.187   6.749  11.606
52583SOL    HW159646  13.194   6.711  11.694
52583SOL    HW259647  13.166   6.841  11.622
52584SOL     OW59648  14.302   8.969  11.832
52584SOL    HW159649  14.250   9.008  11.902
52584SOL    HW259650  14.300   9.034  11.762
52585SOL     OW59651   9.544  14.451   4.845
52585SOL    HW159652   9.485  14.415   4.778
52585SOL    HW259653   9.612  14.497   4.795
52586SOL     OW59654   3.128  13.662  12.472
52586SOL    HW159655   3.089  13.697  12.552
52586SOL    HW259656   3.204  13.613  12.502
52587SOL     OW59657  11.478  11.546   9.656
52587SOL    HW159658  11.424  11.590   9.721
52587SOL    HW259659  11.471  11.600   9.577
52588SOL     OW59660  10.885  10.199   7.189
52588SOL    HW159661  10.980  10.193   7.180
52588SOL    HW259662  10.852  10.176   7.102
52589SOL     OW59663   8.384   5.552   4.358
52589SOL    HW159664   8.459   5.594   4.316
52589SOL    HW259665   8.369   5.601   4.438
52590SOL     OW59666   4.051  11.056   5.171
52590SOL    HW159667   4.022  11.064   5.080
52590SOL    HW259668   3.990  11.112   5.220
52591SOL     OW59669   7.501   0.185  11.819
52591SOL    HW159670   7.513   0.206  11.912
52591SOL    HW259671   7.588   0.158  11.789
52592SOL     OW59672   5.331   8.912   3.670
52592SOL    HW159673   5.387   8.907   3.747
52592SOL    HW259674   5.277   8.990   3.684
52593SOL     OW59675   5.298   4.896   5.360
52593SOL    HW159676   5.391   4.885   5.339
52593SOL    HW259677   5.297   4.961   5.430
52594SOL     OW59678   0.742  14.599   7.145
52594SOL    HW159679   0.835  14.592   7.127
52594SOL    HW259680   0.727  14.693   7.157
52595SOL     OW59681  11.222   5.555   7.295
52595SOL    HW159682  11.183   5.640   7.317
52595SOL    HW259683  11.226   5.554   7.200
52596SOL     OW59684   8.777   5.995   1.602
52596SOL    HW159685   8.757   6.019   1.512
52596SOL    HW259686   8.710   6.038   1.655
52597SOL     OW59687  10.687   1.604  13.712
52597SOL    HW159688  10.764   1.652  13.682
52597SOL    HW259689  10.696   1.518  13.671
52598SOL     OW59690   3.913  14.725  11.293
52598SOL    HW159691   3.852  14.799  11.292
52598SOL    HW259692   3.913  14.696  11.384
52599SOL     OW59693   3.184  12.365  10.908
52599SOL    HW159694   3.250  12.338  10.844
52599SOL    HW259695   3.114  12.402  10.855
52600SOL     OW59696   9.273   8.982   0.904
52600SOL    HW159697   9.253   8.890   0.919
52600SOL    HW259698   9.361   8.982   0.866
52601SOL     OW59699   7.742  14.170  11.026
52601SOL    HW159700   7.711  14.081  11.044
52601SOL    HW259701   7.725  14.218  11.108
52602SOL     OW59702   5.166   4.232  13.031
52602SOL    HW159703   5.081   4.231  12.987
52602SOL    HW259704   5.194   4.141  13.031
52603SOL     OW59705   4.684   0.845   5.089
52603SOL    HW159706   4.725   0.774   5.137
52603SOL    HW259707   4.691   0.921   5.147
52604SOL     OW59708  13.213   3.420   2.515
52604SOL    HW159709  13.186   3.512   2.518
52604SOL    HW259710  13.242   3.408   2.424
52605SOL     OW59711  14.062  11.068   2.220
52605SOL    HW159712  14.051  11.147   2.273
52605SOL    HW259713  14.145  11.081   2.175
52606SOL     OW59714  13.447  11.746   4.697
52606SOL    HW159715  13.477  11.675   4.640
52606SOL    HW259716  13.420  11.815   4.637
52607SOL     OW59717  11.194  11.705  13.487
52607SOL    HW159718  11.218  11.621  13.526
52607SOL    HW259719  11.132  11.682  13.418
52608SOL     OW59720   6.750   6.673   8.466
52608SOL    HW159721   6.728   6.748   8.411
52608SOL    HW259722   6.833   6.698   8.507
52609SOL     OW59723  12.810   4.381   1.523
52609SOL    HW159724  12.867   4.355   1.595
52609SOL    HW259725  12.867   4.426   1.462
52610SOL     OW59726   1.196   8.915  12.318
52610SOL    HW159727   1.274   8.894  12.370
52610SOL    HW259728   1.177   8.835  12.270
52611SOL     OW59729   3.146   1.608  13.389
52611SOL    HW159730   3.235   1.607  13.351
52611SOL    HW259731   3.154   1.556  13.469
52612SOL     OW59732   5.520  13.243   8.062
52612SOL    HW159733   5.611  13.214   8.063
52612SOL    HW259734   5.493  13.242   8.154
52613SOL     OW59735  12.080  14.113   7.134
52613SOL    HW159736  12.130  14.062   7.070
52613SOL    HW259737  12.024  14.169   7.081
52614SOL     OW59738   3.475   3.523   9.837
52614SOL    HW159739   3.442   3.588   9.900
52614SOL    HW259740   3.484   3.442   9.888
52615SOL     OW59741   3.294   1.396   4.185
52615SOL    HW159742   3.280   1.473   4.130
52615SOL    HW259743   3.311   1.325   4.123
52616SOL     OW59744   3.936   6.129   0.018
52616SOL    HW159745   4.010   6.157   0.072
52616SOL    HW259746   3.902   6.050   0.061
52617SOL     OW59747  11.493   2.738   4.373
52617SOL    HW159748  11.459   2.777   4.293
52617SOL    HW259749  11.519   2.649   4.348
52618SOL     OW59750   5.052   3.640   8.935
52618SOL    HW159751   5.031   3.558   8.891
52618SOL    HW259752   5.136   3.624   8.977
52619SOL     OW59753   0.002   4.106  10.564
52619SOL    HW159754  14.778   4.087  10.565
52619SOL    HW259755   0.010   4.190  10.519
52620SOL     OW59756   3.403   4.112   5.601
52620SOL    HW159757   3.426   4.204   5.616
52620SOL    HW259758   3.376   4.081   5.687
52621SOL     OW59759   8.009  14.241  10.989
52621SOL    HW159760   7.918  14.211  10.994
52621SOL    HW259761   8.007  14.332  11.016
52622SOL     OW59762   8.408  12.942   9.524
52622SOL    HW159763   8.477  13.003   9.502
52622SOL    HW259764   8.338  12.961   9.462
52623SOL     OW59765   7.039   0.445   0.591
52623SOL    HW159766   7.127   0.480   0.598
52623SOL    HW259767   7.019   0.449   0.497
52624SOL     OW59768  11.009  11.857   5.996
52624SOL    HW159769  11.052  11.918   5.936
52624SOL    HW259770  11.036  11.886   6.083
52625SOL     OW59771   5.099   0.837  10.746
52625SOL    HW159772   5.126   0.929  10.754
52625SOL    HW259773   5.144   0.806  10.668
52626SOL     OW59774  13.742   8.327  10.747
52626SOL    HW159775  13.808   8.300  10.811
52626SOL    HW259776  13.737   8.253  10.686
52627SOL     OW59777   5.705   9.404   8.755
52627SOL    HW159778   5.637   9.337   8.748
52627SOL    HW259779   5.664   9.474   8.804
52628SOL     OW59780   0.538   5.776   1.305
52628SOL    HW159781   0.551   5.744   1.216
52628SOL    HW259782   0.490   5.859   1.294
52629SOL     OW59783   2.380  13.667  10.889
52629SOL    HW159784   2.372  13.602  10.960
52629SOL    HW259785   2.302  13.722  10.899
52630SOL     OW59786   1.190   4.576   4.324
52630SOL    HW159787   1.184   4.595   4.417
52630SOL    HW259788   1.198   4.662   4.282
52631SOL     OW59789   6.238   0.797   6.293
52631SOL    HW159790   6.311   0.750   6.252
52631SOL    HW259791   6.162   0.775   6.238
52632SOL     OW59792   4.599  11.556   8.817
52632SOL    HW159793   4.571  11.523   8.903
52632SOL    HW259794   4.538  11.516   8.755
52633SOL     OW59795   4.815  13.847   9.855
52633SOL    HW159796   4.817  13.763   9.809
52633SOL    HW259797   4.899  13.888   9.832
52634SOL     OW59798   9.550   2.019   4.043
52634SOL    HW159799   9.562   2.065   4.126
52634SOL    HW259800   9.474   1.963   4.058
52635SOL     OW59801   8.712   3.456   8.553
52635SOL    HW159802   8.689   3.364   8.539
52635SOL    HW259803   8.776   3.475   8.485
52636SOL     OW59804   1.972   0.393   7.483
52636SOL    HW159805   1.940   0.385   7.393
52636SOL    HW259806   2.022   0.474   7.483
52637SOL     OW59807  11.708   9.151   9.036
52637SOL    HW159808  11.691   9.131   9.128
52637SOL    HW259809  11.801   9.172   9.032
52638SOL     OW59810   4.802   8.281  12.168
52638SOL    HW159811   4.751   8.357  12.140
52638SOL    HW259812   4.887   8.292  12.127
52639SOL     OW59813   7.128   0.596   3.605
52639SOL    HW159814   7.063   0.543   3.651
52639SOL    HW259815   7.198   0.535   3.582
52640SOL     OW59816  13.327   7.502  14.756
52640SOL    HW159817  13.368   7.580  14.791
52640SOL    HW259818  13.380   7.479  14.679
52641SOL     OW59819  10.396  12.286   2.326
52641SOL    HW159820  10.419  12.282   2.419
52641SOL    HW259821  10.301  12.281   2.324
52642SOL     OW59822   9.591   7.167   5.072
52642SOL    HW159823   9.533   7.151   5.147
52642SOL    HW259824   9.647   7.089   5.069
52643SOL     OW59825  13.130   3.662  12.129
52643SOL    HW159826  13.179   3.720  12.071
52643SOL    HW259827  13.045   3.704  12.139
52644SOL     OW59828  11.734   1.711  11.247
52644SOL    HW159829  11.779   1.732  11.329
52644SOL    HW259830  11.642   1.701  11.272
52645SOL     OW59831   0.185   3.200   9.270
52645SOL    HW159832   0.278   3.180   9.284
52645SOL    HW259833   0.182   3.295   9.264
52646SOL     OW59834   1.096  11.146  10.704
52646SOL    HW159835   1.027  11.207  10.677
52646SOL    HW259836   1.048  11.072  10.742
52647SOL     OW59837   7.933   7.701  10.231
52647SOL    HW159838   7.911   7.653  10.151
52647SOL    HW259839   7.999   7.765  10.203
52648SOL     OW59840  13.717   0.319   8.507
52648SOL    HW159841  13.733   0.398   8.456
52648SOL    HW259842  13.694   0.252   8.443
52649SOL     OW59843   2.004   3.101   1.924
52649SOL    HW159844   2.055   3.030   1.883
52649SOL    HW259845   2.026   3.178   1.872
52650SOL     OW59846  12.962  14.415   1.147
52650SOL    HW159847  13.025  14.487   1.156
52650SOL    HW259848  12.909  14.419   1.227
52651SOL     OW59849  13.169  12.253   4.113
52651SOL    HW159850  13.226  12.181   4.140
52651SOL    HW259851  13.226  12.313   4.066
52652SOL     OW59852  12.344   7.407  14.042
52652SOL    HW159853  12.327   7.444  14.129
52652SOL    HW259854  12.262   7.365  14.017
52653SOL     OW59855   2.083   7.091   9.161
52653SOL    HW159856   2.080   6.997   9.180
52653SOL    HW259857   2.123   7.129   9.238
52654SOL     OW59858   5.401  10.950   4.704
52654SOL    HW159859   5.339  10.935   4.633
52654SOL    HW259860   5.347  10.953   4.783
52655SOL     OW59861   6.165  12.689  13.755
52655SOL    HW159862   6.122  12.771  13.779
52655SOL    HW259863   6.213  12.710  13.675
52656SOL     OW59864   9.258   8.108   8.365
52656SOL    HW159865   9.208   8.179   8.324
52656SOL    HW259866   9.247   8.034   8.306
52657SOL     OW59867   6.057   1.201   4.711
52657SOL    HW159868   5.976   1.205   4.762
52657SOL    HW259869   6.062   1.285   4.666
52658SOL     OW59870   3.924   5.180  12.368
52658SOL    HW159871   4.000   5.237  12.356
52658SOL    HW259872   3.899   5.155  12.279
52659SOL     OW59873   2.641  14.721   4.452
52659SOL    HW159874   2.576  14.715   4.382
52659SOL    HW259875   2.663  14.630   4.473
52660SOL     OW59876  10.761  13.364   4.929
52660SOL    HW159877  10.697  13.356   5.000
52660SOL    HW259878  10.845  13.341   4.969
52661SOL     OW59879  11.408   6.979  10.942
52661SOL    HW159880  11.442   7.005  10.857
52661SOL    HW259881  11.470   6.912  10.973
52662SOL     OW59882   1.851   2.203   6.865
52662SOL    HW159883   1.785   2.237   6.805
52662SOL    HW259884   1.915   2.159   6.808
52663SOL     OW59885   0.419   2.142   1.035
52663SOL    HW159886   0.489   2.159   0.972
52663SOL    HW259887   0.398   2.228   1.071
52664SOL     OW59888  13.127  11.806   3.726
52664SOL    HW159889  13.065  11.875   3.748
52664SOL    HW259890  13.074  11.736   3.688
52665SOL     OW59891  11.973   2.322   2.072
52665SOL    HW159892  12.011   2.262   2.008
52665SOL    HW259893  11.878   2.316   2.056
52666SOL     OW59894   3.433   4.180   4.206
52666SOL    HW159895   3.346   4.187   4.244
52666SOL    HW259896   3.418   4.180   4.111
52667SOL     OW59897   5.753   5.254  13.917
52667SOL    HW159898   5.834   5.279  13.874
52667SOL    HW259899   5.688   5.253  13.847
52668SOL     OW59900  13.604  12.467  12.408
52668SOL    HW159901  13.628  12.423  12.489
52668SOL    HW259902  13.609  12.399  12.341
52669SOL     OW59903   6.382   0.424   0.034
52669SOL    HW159904   6.365   0.378  14.821
52669SOL    HW259905   6.406   0.513   0.008
52670SOL     OW59906  10.763   2.456  10.639
52670SOL    HW159907  10.715   2.375  10.661
52670SOL    HW259908  10.842   2.426  10.594
52671SOL     OW59909  13.781   9.346   2.263
52671SOL    HW159910  13.779   9.436   2.295
52671SOL    HW259911  13.763   9.292   2.340
52672SOL     OW59912  13.577  12.956  12.507
52672SOL    HW159913  13.662  13.000  12.509
52672SOL    HW259914  13.582  12.896  12.433
52673SOL     OW59915  10.977   9.996   7.812
52673SOL    HW159916  11.030  10.075   7.797
52673SOL    HW259917  10.905  10.027   7.866
52674SOL     OW59918   9.671   1.410   7.067
52674SOL    HW159919   9.694   1.496   7.104
52674SOL    HW259920   9.667   1.352   7.142
52675SOL     OW59921  11.405   8.404  10.190
52675SOL    HW159922  11.312   8.412  10.170
52675SOL    HW259923  11.424   8.477  10.248
52676SOL     OW59924   6.659  13.607  10.676
52676SOL    HW159925   6.683  13.552  10.750
52676SOL    HW259926   6.649  13.547  10.602
52677SOL     OW59927  14.783   4.235   4.872
52677SOL    HW159928  14.746   4.203   4.954
52677SOL    HW259929  14.712   4.223   4.808
52678SOL     OW59930   1.416   3.933   7.124
52678SOL    HW159931   1.479   3.992   7.165
52678SOL    HW259932   1.465   3.853   7.107
52679SOL     OW59933   9.068   2.516   6.775
52679SOL    HW159934   8.998   2.565   6.732
52679SOL    HW259935   9.148   2.545   6.733
52680SOL     OW59936  13.143   3.498  11.433
52680SOL    HW159937  13.181   3.412  11.450
52680SOL    HW259938  13.080   3.510  11.505
52681SOL     OW59939   7.465   7.146   1.422
52681SOL    HW159940   7.442   7.067   1.374
52681SOL    HW259941   7.464   7.216   1.356
52682SOL     OW59942   3.209   2.965  10.695
52682SOL    HW159943   3.268   2.913  10.750
52682SOL    HW259944   3.266   3.029  10.652
52683SOL     OW59945  13.724   8.888   8.266
52683SOL    HW159946  13.699   8.833   8.340
52683SOL    HW259947  13.729   8.828   8.191
52684SOL     OW59948  12.857  11.679   4.351
52684SOL    HW159949  12.790  11.668   4.419
52684SOL    HW259950  12.853  11.773   4.330
52685SOL     OW59951   3.451   6.798   3.317
52685SOL    HW159952   3.501   6.802   3.398
52685SOL    HW259953   3.506   6.747   3.258
52686SOL     OW59954   3.412  12.006   4.914
52686SOL    HW159955   3.457  11.922   4.907
52686SOL    HW259956   3.347  11.992   4.983
52687SOL     OW59957  10.323   1.225   6.170
52687SOL    HW159958  10.361   1.213   6.257
52687SOL    HW259959  10.380   1.288   6.127
52688SOL     OW59960   8.299   2.753   9.604
52688SOL    HW159961   8.242   2.821   9.640
52688SOL    HW259962   8.352   2.725   9.678
52689SOL     OW59963   7.381  12.970   4.784
52689SOL    HW159964   7.438  13.008   4.852
52689SOL    HW259965   7.295  12.965   4.825
52690SOL     OW59966   3.847   7.643   2.814
52690SOL    HW159967   3.837   7.735   2.837
52690SOL    HW259968   3.940   7.624   2.826
52691SOL     OW59969  10.530   2.827  14.729
52691SOL    HW159970  10.483   2.745  14.747
52691SOL    HW259971  10.623   2.804  14.738
52692SOL     OW59972   4.835   6.890   8.294
52692SOL    HW159973   4.870   6.808   8.327
52692SOL    HW259974   4.740   6.876   8.290
52693SOL     OW59975   8.376   1.691  13.092
52693SOL    HW159976   8.391   1.786  13.096
52693SOL    HW259977   8.462   1.653  13.107
52694SOL     OW59978   3.669   4.267  14.313
52694SOL    HW159979   3.731   4.317  14.259
52694SOL    HW259980   3.718   4.188  14.338
52695SOL     OW59981   7.473  12.093   1.146
52695SOL    HW159982   7.396  12.038   1.141
52695SOL    HW259983   7.546  12.032   1.155
52696SOL     OW59984  10.373   0.994  12.006
52696SOL    HW159985  10.369   0.962  11.916
52696SOL    HW259986  10.454   1.044  12.010
52697SOL     OW59987   3.738  12.790  14.539
52697SOL    HW159988   3.744  12.865  14.480
52697SOL    HW259989   3.668  12.736  14.503
52698SOL     OW59990   0.471   3.291  10.662
52698SOL    HW159991   0.459   3.199  10.642
52698SOL    HW259992   0.467   3.296  10.758
52699SOL     OW59993   1.940   6.950   3.410
52699SOL    HW159994   1.864   6.979   3.359
52699SOL    HW259995   1.979   7.031   3.442
52700SOL     OW59996  11.343   7.835  11.118
52700SOL    HW159997  11.299   7.757  11.085
52700SOL    HW259998  11.436   7.817  11.104
52701SOL     OW59999   3.867   9.074   3.015
52701SOL    HW160000   3.880   9.021   2.937
52701SOL    HW260001   3.898   9.161   2.990
52702SOL     OW60002   4.535   6.574   7.094
52702SOL    HW160003   4.601   6.513   7.062
52702SOL    HW260004   4.536   6.563   7.189
52703SOL     OW60005   7.451  11.585  13.903
52703SOL    HW160006   7.433  11.494  13.927
52703SOL    HW260007   7.406  11.597  13.819
52704SOL     OW60008  14.585  10.145  11.561
52704SOL    HW160009  14.600  10.228  11.607
52704SOL    HW260010  14.500  10.115  11.593
52705SOL     OW60011   6.611  10.356   5.524
52705SOL    HW160012   6.548  10.411   5.479
52705SOL    HW260013   6.631  10.403   5.605
52706SOL     OW60014  14.712   0.546  12.433
52706SOL    HW160015  14.757   0.608  12.489
52706SOL    HW260016  14.774   0.530  12.361
52707SOL     OW60017   0.390  10.667  13.480
52707SOL    HW160018   0.338  10.590  13.501
52707SOL    HW260019   0.470  10.633  13.440
52708SOL     OW60020  14.804   0.969   9.897
52708SOL    HW160021  14.786   0.983   9.804
52708SOL    HW260022   0.026   0.943   9.900
52709SOL     OW60023  12.791  12.117   5.015
52709SOL    HW160024  12.832  12.138   5.099
52709SOL    HW260025  12.777  12.202   4.973
52710SOL     OW60026  11.851  10.021  11.696
52710SOL    HW160027  11.837  10.105  11.740
52710SOL    HW260028  11.889   9.965  11.764
52711SOL     OW60029   9.705  10.868   5.007
52711SOL    HW160030   9.670  10.894   5.092
52711SOL    HW260031   9.762  10.793   5.026
52712SOL     OW60032   5.807   8.325   3.736
52712SOL    HW160033   5.899   8.297   3.738
52712SOL    HW260034   5.807   8.411   3.777
52713SOL     OW60035   8.255  11.290  13.582
52713SOL    HW160036   8.332  11.280  13.638
52713SOL    HW260037   8.272  11.232  13.508
52714SOL     OW60038   9.776   6.914   6.510
52714SOL    HW160039   9.816   6.899   6.424
52714SOL    HW260040   9.805   6.840   6.563
52715SOL     OW60041  14.101  13.337  14.051
52715SOL    HW160042  14.065  13.408  14.105
52715SOL    HW260043  14.192  13.364  14.035
52716SOL     OW60044  11.050  14.490   0.793
52716SOL    HW160045  11.054  14.397   0.812
52716SOL    HW260046  11.030  14.531   0.878
52717SOL     OW60047   3.643  11.158  11.624
52717SOL    HW160048   3.727  11.114  11.611
52717SOL    HW260049   3.654  11.206  11.706
52718SOL     OW60050  14.143   0.197   2.117
52718SOL    HW160051  14.190   0.273   2.085
52718SOL    HW260052  14.211   0.133   2.138
52719SOL     OW60053   3.468  11.434  14.103
52719SOL    HW160054   3.409  11.509  14.093
52719SOL    HW260055   3.529  11.460  14.172
52720SOL     OW60056   4.952   2.537  13.949
52720SOL    HW160057   5.001   2.455  13.961
52720SOL    HW260058   4.885   2.535  14.017
52721SOL     OW60059   8.645   3.643  13.735
52721SOL    HW160060   8.644   3.727  13.690
52721SOL    HW260061   8.663   3.664  13.826
52722SOL     OW60062   1.377   2.278   1.120
52722SOL    HW160063   1.441   2.325   1.066
52722SOL    HW260064   1.325   2.228   1.056
52723SOL     OW60065   0.377  14.149   7.152
52723SOL    HW160066   0.294  14.102   7.162
52723SOL    HW260067   0.433  14.116   7.222
52724SOL     OW60068   8.222  10.615   7.815
52724SOL    HW160069   8.146  10.628   7.872
52724SOL    HW260070   8.222  10.521   7.797
52725SOL     OW60071   3.309   5.722   9.691
52725SOL    HW160072   3.318   5.815   9.670
52725SOL    HW260073   3.221   5.714   9.726
52726SOL     OW60074  13.741   8.058   7.762
52726SOL    HW160075  13.788   8.106   7.694
52726SOL    HW260076  13.655   8.041   7.724
52727SOL     OW60077   9.865   0.172   1.654
52727SOL    HW160078   9.948   0.131   1.679
52727SOL    HW260079   9.889   0.262   1.631
52728SOL     OW60080   0.975  13.562  12.664
52728SOL    HW160081   0.999  13.601  12.748
52728SOL    HW260082   1.059  13.543  12.622
52729SOL     OW60083   8.540   5.072   4.000
52729SOL    HW160084   8.461   5.051   4.050
52729SOL    HW260085   8.547   5.167   4.006
52730SOL     OW60086   9.836  13.006  10.829
52730SOL    HW160087   9.794  13.083  10.791
52730SOL    HW260088   9.787  12.932  10.794
52731SOL     OW60089   1.220   1.531   1.979
52731SOL    HW160090   1.315   1.531   1.968
52731SOL    HW260091   1.205   1.582   2.059
52732SOL     OW60092   5.339  12.125   2.168
52732SOL    HW160093   5.324  12.217   2.192
52732SOL    HW260094   5.401  12.129   2.095
52733SOL     OW60095  10.124   6.341   7.940
52733SOL    HW160096  10.114   6.434   7.916
52733SOL    HW260097  10.035   6.312   7.960
52734SOL     OW60098  12.735   3.540  13.198
52734SOL    HW160099  12.767   3.530  13.287
52734SOL    HW260100  12.755   3.631  13.175
52735SOL     OW60101   2.399   3.792   0.577
52735SOL    HW160102   2.330   3.843   0.621
52735SOL    HW260103   2.384   3.807   0.484
52736SOL     OW60104   1.188   8.431   4.130
52736SOL    HW160105   1.182   8.507   4.188
52736SOL    HW260106   1.099   8.398   4.124
52737SOL     OW60107  12.499   0.192   9.648
52737SOL    HW160108  12.501   0.275   9.696
52737SOL    HW260109  12.581   0.148   9.673
52738SOL     OW60110   6.903   6.340  11.964
52738SOL    HW160111   6.831   6.403  11.958
52738SOL    HW260112   6.924   6.320  11.873
52739SOL     OW60113   3.855   0.876   3.171
52739SOL    HW160114   3.771   0.899   3.211
52739SOL    HW260115   3.905   0.958   3.171
52740SOL     OW60116   5.418   3.473   4.590
52740SOL    HW160117   5.343   3.533   4.594
52740SOL    HW260118   5.421   3.432   4.676
52741SOL     OW60119   2.456   0.057   9.506
52741SOL    HW160120   2.489   0.019   9.425
52741SOL    HW260121   2.449  14.852   9.566
52742SOL     OW60122   3.646   5.461   0.647
52742SOL    HW160123   3.629   5.445   0.740
52742SOL    HW260124   3.741   5.453   0.638
52743SOL     OW60125   6.878  12.502   9.187
52743SOL    HW160126   6.925  12.445   9.126
52743SOL    HW260127   6.908  12.590   9.166
52744SOL     OW60128  13.912  13.657   4.729
52744SOL    HW160129  13.963  13.605   4.667
52744SOL    HW260130  13.977  13.695   4.788
52745SOL     OW60131  12.105   0.592  10.685
52745SOL    HW160132  12.131   0.657  10.620
52745SOL    HW260133  12.015   0.570  10.662
52746SOL     OW60134   9.849   5.684   1.258
52746SOL    HW160135   9.881   5.625   1.327
52746SOL    HW260136   9.769   5.642   1.226
52747SOL     OW60137  13.096   4.006   9.765
52747SOL    HW160138  13.123   4.083   9.816
52747SOL    HW260139  13.103   3.933   9.827
52748SOL     OW60140   8.486  10.811   3.038
52748SOL    HW160141   8.560  10.863   3.070
52748SOL    HW260142   8.409  10.855   3.074
52749SOL     OW60143  12.144  10.424   7.901
52749SOL    HW160144  12.161  10.491   7.967
52749SOL    HW260145  12.140  10.342   7.951
52750SOL     OW60146   6.132   8.509   8.915
52750SOL    HW160147   6.064   8.575   8.900
52750SOL    HW260148   6.088   8.425   8.900
52751SOL     OW60149   9.302   1.005   7.304
52751SOL    HW160150   9.270   1.089   7.336
52751SOL    HW260151   9.317   1.019   7.211
52752SOL     OW60152  13.129   8.774   6.390
52752SOL    HW160153  13.101   8.857   6.353
52752SOL    HW260154  13.093   8.707   6.331
52753SOL     OW60155   5.637  14.170   8.337
52753SOL    HW160156   5.556  14.133   8.303
52753SOL    HW260157   5.612  14.257   8.368
52754SOL     OW60158   0.759   7.831  11.116
52754SOL    HW160159   0.727   7.869  11.033
52754SOL    HW260160   0.698   7.760  11.134
52755SOL     OW60161   3.969   9.766  13.166
52755SOL    HW160162   3.996   9.843  13.116
52755SOL    HW260163   4.019   9.694  13.127
52756SOL     OW60164   7.020  12.030   0.635
52756SOL    HW160165   7.014  11.966   0.706
52756SOL    HW260166   6.985  11.984   0.558
52757SOL     OW60167  11.096   6.619   9.285
52757SOL    HW160168  11.021   6.568   9.255
52757SOL    HW260169  11.161   6.554   9.310
52758SOL     OW60170  12.832   1.342   9.249
52758SOL    HW160171  12.826   1.303   9.336
52758SOL    HW260172  12.744   1.375   9.232
52759SOL     OW60173   9.906  10.919  12.138
52759SOL    HW160174   9.987  10.869  12.123
52759SOL    HW260175   9.896  10.973  12.060
52760SOL     OW60176   1.696   6.146   5.573
52760SOL    HW160177   1.632   6.084   5.537
52760SOL    HW260178   1.651   6.186   5.648
52761SOL     OW60179  10.631   5.940   1.896
52761SOL    HW160180  10.557   5.911   1.950
52761SOL    HW260181  10.614   6.033   1.881
52762SOL     OW60182  10.422   2.373   0.835
52762SOL    HW160183  10.425   2.278   0.829
52762SOL    HW260184  10.363   2.400   0.764
52763SOL     OW60185   0.704  12.872   2.255
52763SOL    HW160186   0.657  12.800   2.297
52763SOL    HW260187   0.787  12.834   2.228
52764SOL     OW60188  10.616  11.720   4.568
52764SOL    HW160189  10.699  11.690   4.533
52764SOL    HW260190  10.558  11.726   4.492
52765SOL     OW60191   7.784  14.853  13.997
52765SOL    HW160192   7.873   0.019  14.003
52765SOL    HW260193   7.792  14.764  14.029
52766SOL     OW60194   8.288  14.010   3.175
52766SOL    HW160195   8.274  14.039   3.085
52766SOL    HW260196   8.283  14.090   3.227
52767SOL     OW60197  12.973   4.559   9.976
52767SOL    HW160198  13.044   4.544  10.038
52767SOL    HW260199  12.945   4.649   9.993
52768SOL     OW60200  13.020   7.903   6.797
52768SOL    HW160201  13.085   7.832   6.802
52768SOL    HW260202  12.936   7.858   6.806
52769SOL     OW60203  14.221   1.162   0.299
52769SOL    HW160204  14.265   1.225   0.243
52769SOL    HW260205  14.136   1.147   0.258
52770SOL     OW60206   7.767   8.740   8.871
52770SOL    HW160207   7.814   8.662   8.841
52770SOL    HW260208   7.787   8.807   8.806
52771SOL     OW60209   3.816   6.252   5.750
52771SOL    HW160210   3.724   6.249   5.774
52771SOL    HW260211   3.860   6.285   5.829
52772SOL     OW60212   6.712   5.938  11.177
52772SOL    HW160213   6.661   5.860  11.195
52772SOL    HW260214   6.802   5.907  11.169
52773SOL     OW60215   0.617   6.479   2.026
52773SOL    HW160216   0.651   6.431   2.102
52773SOL    HW260217   0.523   6.464   2.028
52774SOL     OW60218   6.471  10.983  13.016
52774SOL    HW160219   6.553  10.952  13.054
52774SOL    HW260220   6.491  11.070  12.982
52775SOL     OW60221   7.229   3.875   4.594
52775SOL    HW160222   7.216   3.867   4.499
52775SOL    HW260223   7.254   3.966   4.607
52776SOL     OW60224  12.303  10.047   3.792
52776SOL    HW160225  12.230   9.986   3.794
52776SOL    HW260226  12.358  10.022   3.866
52777SOL     OW60227   7.950   2.636   5.278
52777SOL    HW160228   7.941   2.556   5.331
52777SOL    HW260229   7.906   2.704   5.329
52778SOL     OW60230  11.748   8.245   7.737
52778SOL    HW160231  11.779   8.292   7.660
52778SOL    HW260232  11.659   8.277   7.751
52779SOL     OW60233   0.094   6.376   7.003
52779SOL    HW160234   0.058   6.447   7.056
52779SOL    HW260235   0.020   6.316   6.990
52780SOL     OW60236   9.460  11.596   2.792
52780SOL    HW160237   9.424  11.508   2.798
52780SOL    HW260238   9.393  11.646   2.745
52781SOL     OW60239  13.701   8.986   7.015
52781SOL    HW160240  13.773   8.933   7.049
52781SOL    HW260241  13.629   8.924   7.004
52782SOL     OW60242  12.011   5.521   1.991
52782SOL    HW160243  12.022   5.435   1.952
52782SOL    HW260244  12.036   5.509   2.083
52783SOL     OW60245  10.135   8.574   8.394
52783SOL    HW160246  10.215   8.624   8.378
52783SOL    HW260247  10.163   8.495   8.439
52784SOL     OW60248   8.817   4.137   6.932
52784SOL    HW160249   8.817   4.114   6.839
52784SOL    HW260250   8.767   4.218   6.937
52785SOL     OW60251  11.258   9.101   8.847
52785SOL    HW160252  11.349   9.106   8.819
52785SOL    HW260253  11.248   9.175   8.908
52786SOL     OW60254   6.983   5.108  10.524
52786SOL    HW160255   6.977   5.028  10.576
52786SOL    HW260256   6.950   5.176  10.582
52787SOL     OW60257   1.789  11.887  12.269
52787SOL    HW160258   1.770  11.981  12.260
52787SOL    HW260259   1.703  11.845  12.258
52788SOL     OW60260  14.718  14.052  10.143
52788SOL    HW160261  14.625  14.048  10.162
52788SOL    HW260262  14.761  14.024  10.224
52789SOL     OW60263   5.042   7.858  12.644
52789SOL    HW160264   5.117   7.862  12.585
52789SOL    HW260265   4.968   7.885  12.591
52790SOL     OW60266   7.148  13.292   4.486
52790SOL    HW160267   7.151  13.196   4.484
52790SOL    HW260268   7.223  13.317   4.540
52791SOL     OW60269   4.566   8.369   1.853
52791SOL    HW160270   4.548   8.442   1.912
52791SOL    HW260271   4.637   8.401   1.796
52792SOL     OW60272  11.049   7.225   6.023
52792SOL    HW160273  11.077   7.309   6.060
52792SOL    HW260274  10.953   7.228   6.029
52793SOL     OW60275   9.724  13.137   6.818
52793SOL    HW160276   9.715  13.198   6.745
52793SOL    HW260277   9.666  13.064   6.796
52794SOL     OW60278   3.420   6.637  14.864
52794SOL    HW160279   3.500   6.627  14.812
52794SOL    HW260280   3.393   6.548   0.015
52795SOL     OW60281  12.378   1.619  12.193
52795SOL    HW160282  12.415   1.559  12.128
52795SOL    HW260283  12.383   1.570  12.276
52796SOL     OW60284  10.040   5.023   0.712
52796SOL    HW160285  10.127   5.015   0.753
52796SOL    HW260286   9.997   4.940   0.733
52797SOL     OW60287   2.478   1.542   3.082
52797SOL    HW160288   2.546   1.482   3.054
52797SOL    HW260289   2.525   1.617   3.119
52798SOL     OW60290   4.676   5.364   3.718
52798SOL    HW160291   4.745   5.423   3.686
52798SOL    HW260292   4.708   5.276   3.698
52799SOL     OW60293  14.135   1.865   3.891
52799SOL    HW160294  14.074   1.939   3.900
52799SOL    HW260295  14.143   1.831   3.980
52800SOL     OW60296  10.069  10.216   0.573
52800SOL    HW160297   9.986  10.205   0.619
52800SOL    HW260298  10.075  10.310   0.557
52801SOL     OW60299   6.746  11.405  10.375
52801SOL    HW160300   6.728  11.403  10.281
52801SOL    HW260301   6.795  11.486  10.389
52802SOL     OW60302   3.809   2.282  11.398
52802SOL    HW160303   3.732   2.226  11.406
52802SOL    HW260304   3.833   2.277  11.305
52803SOL     OW60305   5.305   5.574   2.734
52803SOL    HW160306   5.248   5.596   2.808
52803SOL    HW260307   5.350   5.495   2.762
52804SOL     OW60308  11.459   2.160   7.781
52804SOL    HW160309  11.537   2.181   7.729
52804SOL    HW260310  11.387   2.203   7.735
52805SOL     OW60311  12.260  11.778   1.666
52805SOL    HW160312  12.266  11.683   1.681
52805SOL    HW260313  12.289  11.789   1.576
52806SOL     OW60314   1.478  10.859   8.110
52806SOL    HW160315   1.439  10.877   8.024
52806SOL    HW260316   1.469  10.941   8.158
52807SOL     OW60317  12.636  12.729   5.746
52807SOL    HW160318  12.716  12.782   5.753
52807SOL    HW260319  12.567  12.786   5.780
52808SOL     OW60320   3.025   0.051   2.406
52808SOL    HW160321   3.113   0.060   2.442
52808SOL    HW260322   3.035   0.068   2.313
52809SOL     OW60323   7.605   6.556   7.581
52809SOL    HW160324   7.671   6.620   7.607
52809SOL    HW260325   7.651   6.472   7.584
52810SOL     OW60326   6.626   6.629  10.694
52810SOL    HW160327   6.613   6.542  10.656
52810SOL    HW260328   6.671   6.679  10.625
52811SOL     OW60329   1.294  10.240  11.350
52811SOL    HW160330   1.365  10.298  11.323
52811SOL    HW260331   1.315  10.218  11.441
52812SOL     OW60332   9.745  13.215   5.750
52812SOL    HW160333   9.801  13.282   5.711
52812SOL    HW260334   9.764  13.135   5.702
52813SOL     OW60335   8.077   0.655   2.671
52813SOL    HW160336   8.046   0.579   2.621
52813SOL    HW260337   8.172   0.654   2.659
52814SOL     OW60338   1.664  14.716  14.388
52814SOL    HW160339   1.700  14.672  14.464
52814SOL    HW260340   1.571  14.694  14.388
52815SOL     OW60341   6.283   1.159   0.519
52815SOL    HW160342   6.201   1.130   0.559
52815SOL    HW260343   6.350   1.104   0.559
52816SOL     OW60344   0.075   9.529  14.171
52816SOL    HW160345   0.144   9.596  14.172
52816SOL    HW260346   0.017   9.553  14.243
52817SOL     OW60347   4.790  13.400  14.758
52817SOL    HW160348   4.845  13.448  14.820
52817SOL    HW260349   4.784  13.459  14.682
52818SOL     OW60350   9.039   9.764   0.285
52818SOL    HW160351   8.956   9.718   0.272
52818SOL    HW260352   9.023   9.853   0.255
52819SOL     OW60353   8.329  10.330   0.637
52819SOL    HW160354   8.343  10.244   0.676
52819SOL    HW260355   8.257  10.317   0.575
52820SOL     OW60356   7.484   3.368  10.421
52820SOL    HW160357   7.508   3.387  10.331
52820SOL    HW260358   7.500   3.274  10.431
52821SOL     OW60359  14.809   6.270   5.488
52821SOL    HW160360   0.020   6.300   5.530
52821SOL    HW260361  14.757   6.350   5.476
52822SOL     OW60362  11.895   7.014  12.864
52822SOL    HW160363  11.928   7.055  12.784
52822SOL    HW260364  11.880   7.088  12.924
52823SOL     OW60365  11.879   8.178   7.952
52823SOL    HW160366  11.829   8.170   7.871
52823SOL    HW260367  11.892   8.088   7.981
52824SOL     OW60368  10.098   6.591   0.080
52824SOL    HW160369  10.032   6.642   0.032
52824SOL    HW260370  10.054   6.509   0.101
52825SOL     OW60371   5.534   4.636   4.477
52825SOL    HW160372   5.515   4.713   4.424
52825SOL    HW260373   5.461   4.576   4.460
52826SOL     OW60374   1.032   6.488   5.795
52826SOL    HW160375   0.987   6.414   5.836
52826SOL    HW260376   1.113   6.497   5.844
52827SOL     OW60377  13.825  14.301   5.738
52827SOL    HW160378  13.899  14.361   5.740
52827SOL    HW260379  13.865  14.214   5.744
52828SOL     OW60380   3.610  10.416  14.849
52828SOL    HW160381   3.620  10.429   0.073
52828SOL    HW260382   3.555  10.488  14.820
52829SOL     OW60383  14.029  10.498   3.769
52829SOL    HW160384  14.122  10.506   3.791
52829SOL    HW260385  14.001  10.419   3.815
52830SOL     OW60386  10.108  11.406   6.456
52830SOL    HW160387  10.190  11.376   6.416
52830SOL    HW260388  10.101  11.356   6.537
52831SOL     OW60389   1.837   6.988   5.719
52831SOL    HW160390   1.795   7.007   5.802
52831SOL    HW260391   1.765   6.962   5.661
52832SOL     OW60392   0.950  14.682  11.739
52832SOL    HW160393   0.872  14.637  11.772
52832SOL    HW260394   0.920  14.724  11.658
52833SOL     OW60395  11.376   8.590  11.755
52833SOL    HW160396  11.299   8.646  11.748
52833SOL    HW260397  11.395   8.563  11.665
52834SOL     OW60398  13.947   6.893  13.923
52834SOL    HW160399  13.878   6.842  13.966
52834SOL    HW260400  14.014   6.904  13.991
52835SOL     OW60401   9.404   8.811   2.931
52835SOL    HW160402   9.453   8.867   2.871
52835SOL    HW260403   9.452   8.814   3.013
52836SOL     OW60404   4.287  12.374   6.937
52836SOL    HW160405   4.327  12.309   6.879
52836SOL    HW260406   4.267  12.449   6.881
52837SOL     OW60407  13.709  13.693   0.064
52837SOL    HW160408  13.616  13.686   0.041
52837SOL    HW260409  13.725  13.619   0.123
52838SOL     OW60410  13.266   5.422   5.362
52838SOL    HW160411  13.286   5.515   5.354
52838SOL    HW260412  13.186   5.419   5.415
52839SOL     OW60413  14.646  10.880   6.371
52839SOL    HW160414  14.678  10.804   6.323
52839SOL    HW260415  14.664  10.954   6.313
52840SOL     OW60416   0.796   9.499   8.619
52840SOL    HW160417   0.779   9.465   8.706
52840SOL    HW260418   0.787   9.593   8.627
52841SOL     OW60419   1.422   9.218  11.624
52841SOL    HW160420   1.514   9.230  11.648
52841SOL    HW260421   1.379   9.194  11.707
52842SOL     OW60422  12.911  14.507   2.613
52842SOL    HW160423  12.827  14.549   2.629
52842SOL    HW260424  12.975  14.577   2.618
52843SOL     OW60425   9.146   9.190  10.793
52843SOL    HW160426   9.212   9.252  10.822
52843SOL    HW260427   9.196   9.122  10.747
52844SOL     OW60428   8.046   5.063   4.534
52844SOL    HW160429   8.140   5.067   4.552
52844SOL    HW260430   8.005   5.095   4.614
52845SOL     OW60431   1.474   4.174  10.264
52845SOL    HW160432   1.510   4.141  10.182
52845SOL    HW260433   1.383   4.143  10.265
52846SOL     OW60434   0.266   4.181  11.115
52846SOL    HW160435   0.336   4.246  11.103
52846SOL    HW260436   0.258   4.139  11.029
52847SOL     OW60437  14.455   2.045   2.504
52847SOL    HW160438  14.397   2.110   2.464
52847SOL    HW260439  14.463   1.977   2.437
52848SOL     OW60440   8.476   2.067   7.481
52848SOL    HW160441   8.451   2.080   7.573
52848SOL    HW260442   8.407   2.013   7.444
52849SOL     OW60443   7.749   1.883   9.540
52849SOL    HW160444   7.706   1.861   9.623
52849SOL    HW260445   7.836   1.843   9.547
52850SOL     OW60446   9.687   0.722   0.828
52850SOL    HW160447   9.595   0.708   0.850
52850SOL    HW260448   9.726   0.760   0.906
52851SOL     OW60449   2.927   4.888   6.459
52851SOL    HW160450   2.966   4.896   6.372
52851SOL    HW260451   2.962   4.963   6.508
52852SOL     OW60452  14.693   2.584  14.842
52852SOL    HW160453  14.777   2.552   0.005
52852SOL    HW260454  14.708   2.676  14.822
52853SOL     OW60455  13.666  10.492   2.898
52853SOL    HW160456  13.714  10.448   2.828
52853SOL    HW260457  13.630  10.571   2.856
52854SOL     OW60458   2.083   7.464   6.745
52854SOL    HW160459   2.041   7.465   6.831
52854SOL    HW260460   2.105   7.373   6.730
52855SOL     OW60461   1.882   0.357   3.544
52855SOL    HW160462   1.953   0.419   3.527
52855SOL    HW260463   1.925   0.280   3.580
52856SOL     OW60464   7.775  10.827  10.807
52856SOL    HW160465   7.787  10.921  10.819
52856SOL    HW260466   7.819  10.808  10.723
52857SOL     OW60467   7.104  13.084  10.947
52857SOL    HW160468   7.069  13.155  10.893
52857SOL    HW260469   7.026  13.041  10.983
52858SOL     OW60470   5.216   5.376   5.653
52858SOL    HW160471   5.268   5.302   5.622
52858SOL    HW260472   5.224   5.373   5.748
52859SOL     OW60473  12.899   2.184   4.111
52859SOL    HW160474  12.820   2.191   4.058
52859SOL    HW260475  12.881   2.238   4.188
52860SOL     OW60476  12.343  12.827   9.358
52860SOL    HW160477  12.276  12.767   9.392
52860SOL    HW260478  12.326  12.910   9.403
52861SOL     OW60479  13.346   4.009   3.207
52861SOL    HW160480  13.276   4.002   3.141
52861SOL    HW260481  13.367   4.103   3.210
52862SOL     OW60482   7.592   8.969   8.118
52862SOL    HW160483   7.680   9.005   8.131
52862SOL    HW260484   7.602   8.875   8.134
52863SOL     OW60485  14.731   9.160   6.673
52863SOL    HW160486  14.695   9.244   6.643
52863SOL    HW260487  14.810   9.148   6.620
52864SOL     OW60488  10.373   4.570   3.467
52864SOL    HW160489  10.323   4.518   3.404
52864SOL    HW260490  10.438   4.616   3.414
52865SOL     OW60491   8.411   8.368   9.798
52865SOL    HW160492   8.499   8.391   9.828
52865SOL    HW260493   8.361   8.358   9.879
52866SOL     OW60494   4.650   4.558  10.077
52866SOL    HW160495   4.712   4.621  10.115
52866SOL    HW260496   4.682   4.544   9.988
52867SOL     OW60497   4.499  11.321  13.090
52867SOL    HW160498   4.467  11.231  13.079
52867SOL    HW260499   4.429  11.366  13.136
52868SOL     OW60500  12.235   2.069   7.772
52868SOL    HW160501  12.215   1.995   7.714
52868SOL    HW260502  12.172   2.137   7.747
52869SOL     OW60503  13.143   5.894   7.542
52869SOL    HW160504  13.198   5.878   7.465
52869SOL    HW260505  13.201   5.932   7.607
52870SOL     OW60506  13.489  12.910   0.729
52870SOL    HW160507  13.464  13.000   0.749
52870SOL    HW260508  13.584  12.909   0.734
52871SOL     OW60509   2.611   9.915   6.453
52871SOL    HW160510   2.645   9.902   6.364
52871SOL    HW260511   2.685   9.895   6.510
52872SOL     OW60512   2.385  10.430   1.153
52872SOL    HW160513   2.442  10.497   1.116
52872SOL    HW260514   2.442  10.379   1.210
52873SOL     OW60515   5.373  11.873  11.657
52873SOL    HW160516   5.433  11.804  11.688
52873SOL    HW260517   5.400  11.889  11.567
52874SOL     OW60518   9.638  11.421   7.746
52874SOL    HW160519   9.647  11.325   7.750
52874SOL    HW260520   9.726  11.452   7.725
52875SOL     OW60521   3.810   2.888   7.392
52875SOL    HW160522   3.873   2.912   7.324
52875SOL    HW260523   3.730   2.868   7.345
52876SOL     OW60524  11.920  10.195   9.141
52876SOL    HW160525  11.874  10.198   9.224
52876SOL    HW260526  11.997  10.140   9.158
52877SOL     OW60527   4.325   5.135   8.213
52877SOL    HW160528   4.259   5.204   8.204
52877SOL    HW260529   4.402   5.179   8.248
52878SOL     OW60530  12.400   8.485   2.019
52878SOL    HW160531  12.457   8.554   2.053
52878SOL    HW260532  12.379   8.431   2.096
52879SOL     OW60533  12.856   8.271   0.367
52879SOL    HW160534  12.898   8.282   0.452
52879SOL    HW260535  12.857   8.359   0.328
52880SOL     OW60536   1.712   2.535   0.826
52880SOL    HW160537   1.717   2.556   0.733
52880SOL    HW260538   1.629   2.574   0.854
52881SOL     OW60539   6.655  13.749   9.513
52881SOL    HW160540   6.707  13.732   9.434
52881SOL    HW260541   6.583  13.806   9.482
52882SOL     OW60542  14.689  10.497   0.237
52882SOL    HW160543  14.660  10.570   0.291
52882SOL    HW260544  14.740  10.537   0.167
52883SOL     OW60545   3.671   7.363   9.146
52883SOL    HW160546   3.607   7.427   9.176
52883SOL    HW260547   3.639   7.279   9.179
52884SOL     OW60548  14.780   5.214   7.133
52884SOL    HW160549  14.774   5.204   7.038
52884SOL    HW260550  14.866   5.178   7.155
52885SOL     OW60551  10.644   0.626  13.914
52885SOL    HW160552  10.675   0.679  13.841
52885SOL    HW260553  10.573   0.677  13.953
52886SOL     OW60554   1.947  12.478  11.898
52886SOL    HW160555   1.904  12.419  11.960
52886SOL    HW260556   1.876  12.514  11.845
52887SOL     OW60557   4.366   3.097   0.990
52887SOL    HW160558   4.281   3.079   1.031
52887SOL    HW260559   4.387   3.186   1.018
52888SOL     OW60560   6.114  14.317   6.218
52888SOL    HW160561   6.084  14.403   6.245
52888SOL    HW260562   6.166  14.333   6.139
52889SOL     OW60563  14.160  10.426  12.999
52889SOL    HW160564  14.203  10.499  13.043
52889SOL    HW260565  14.230  10.384  12.948
52890SOL     OW60566  11.603   5.779   2.957
52890SOL    HW160567  11.578   5.746   3.043
52890SOL    HW260568  11.554   5.724   2.895
52891SOL     OW60569  11.145   2.352   4.510
52891SOL    HW160570  11.223   2.374   4.561
52891SOL    HW260571  11.129   2.259   4.529
52892SOL     OW60572   4.873   2.386   9.777
52892SOL    HW160573   4.838   2.469   9.808
52892SOL    HW260574   4.966   2.388   9.802
52893SOL     OW60575   8.298   8.142   0.044
52893SOL    HW160576   8.336   8.081  14.850
52893SOL    HW260577   8.369   8.203   0.064
52894SOL     OW60578   6.277   7.148   1.529
52894SOL    HW160579   6.260   7.056   1.551
52894SOL    HW260580   6.307   7.187   1.610
52895SOL     OW60581  12.267   6.213  10.026
52895SOL    HW160582  12.268   6.309  10.020
52895SOL    HW260583  12.277   6.194  10.119
52896SOL     OW60584   0.620   9.871   3.545
52896SOL    HW160585   0.577   9.926   3.610
52896SOL    HW260586   0.638   9.789   3.591
52897SOL     OW60587   8.712  12.467   3.571
52897SOL    HW160588   8.720  12.386   3.622
52897SOL    HW260589   8.629  12.505   3.599
52898SOL     OW60590   6.401   4.171   1.503
52898SOL    HW160591   6.440   4.190   1.589
52898SOL    HW260592   6.444   4.234   1.444
52899SOL     OW60593   2.205  14.857   8.658
52899SOL    HW160594   2.154   0.059   8.695
52899SOL    HW260595   2.289  14.862   8.704
52900SOL     OW60596  10.172   5.673  11.000
52900SOL    HW160597  10.217   5.685  11.084
52900SOL    HW260598  10.189   5.582  10.976
52901SOL     OW60599   4.056  14.552   1.854
52901SOL    HW160600   4.128  14.586   1.908
52901SOL    HW260601   3.977  14.578   1.901
52902SOL     OW60602  11.476  13.088   8.046
52902SOL    HW160603  11.429  13.006   8.055
52902SOL    HW260604  11.483  13.122   8.136
52903SOL     OW60605  12.179   3.381   6.669
52903SOL    HW160606  12.188   3.476   6.656
52903SOL    HW260607  12.137   3.350   6.588
52904SOL     OW60608   3.290   2.930  11.440
52904SOL    HW160609   3.289   2.854  11.497
52904SOL    HW260610   3.198   2.942  11.414
52905SOL     OW60611   0.832   0.205   3.875
52905SOL    HW160612   0.912   0.192   3.925
52905SOL    HW260613   0.782   0.125   3.888
52906SOL     OW60614   2.038   3.072   6.422
52906SOL    HW160615   2.048   3.165   6.400
52906SOL    HW260616   1.953   3.048   6.387
52907SOL     OW60617   1.639   6.219  12.966
52907SOL    HW160618   1.691   6.278  13.020
52907SOL    HW260619   1.687   6.212  12.884
52908SOL     OW60620   8.289   4.619   0.694
52908SOL    HW160621   8.233   4.646   0.767
52908SOL    HW260622   8.319   4.702   0.657
52909SOL     OW60623   5.345   0.602   2.148
52909SOL    HW160624   5.410   0.642   2.091
52909SOL    HW260625   5.378   0.616   2.237
52910SOL     OW60626   5.387  12.054   7.622
52910SOL    HW160627   5.419  12.141   7.598
52910SOL    HW260628   5.452  12.020   7.683
52911SOL     OW60629   8.667   6.292   7.025
52911SOL    HW160630   8.709   6.333   7.100
52911SOL    HW260631   8.725   6.219   7.001
52912SOL     OW60632  10.292   6.457   2.330
52912SOL    HW160633  10.301   6.506   2.248
52912SOL    HW260634  10.380   6.423   2.347
52913SOL     OW60635   0.411  12.363   2.779
52913SOL    HW160636   0.360  12.322   2.709
52913SOL    HW260637   0.423  12.453   2.750
52914SOL     OW60638   0.735   3.296  12.562
52914SOL    HW160639   0.706   3.232  12.627
52914SOL    HW260640   0.789   3.358  12.611
52915SOL     OW60641  13.323   2.576   4.520
52915SOL    HW160642  13.408   2.531   4.528
52915SOL    HW260643  13.266   2.510   4.479
52916SOL     OW60644   3.201   2.320   5.609
52916SOL    HW160645   3.186   2.290   5.519
52916SOL    HW260646   3.137   2.390   5.622
52917SOL     OW60647   0.742   4.743   0.516
52917SOL    HW160648   0.658   4.705   0.491
52917SOL    HW260649   0.774   4.687   0.587
52918SOL     OW60650   5.391   4.025   0.879
52918SOL    HW160651   5.439   4.106   0.859
52918SOL    HW260652   5.395   3.974   0.798
52919SOL     OW60653  13.302   2.383  13.875
52919SOL    HW160654  13.317   2.434  13.795
52919SOL    HW260655  13.227   2.327  13.854
52920SOL     OW60656   6.464  13.681   9.049
52920SOL    HW160657   6.489  13.623   8.976
52920SOL    HW260658   6.493  13.634   9.127
52921SOL     OW60659   2.224   0.960   3.454
52921SOL    HW160660   2.277   0.880   3.460
52921SOL    HW260661   2.288   1.030   3.446
52922SOL     OW60662   3.950   5.111   6.866
52922SOL    HW160663   4.000   5.037   6.902
52922SOL    HW260664   3.870   5.071   6.831
52923SOL     OW60665   3.045   7.902  14.345
52923SOL    HW160666   2.984   7.869  14.410
52923SOL    HW260667   2.991   7.958  14.288
52924SOL     OW60668   9.485   9.182   3.435
52924SOL    HW160669   9.498   9.242   3.509
52924SOL    HW260670   9.434   9.110   3.472
52925SOL     OW60671  10.903   0.305   7.888
52925SOL    HW160672  10.954   0.273   7.963
52925SOL    HW260673  10.943   0.389   7.866
52926SOL     OW60674   0.588   4.204   9.745
52926SOL    HW160675   0.538   4.227   9.667
52926SOL    HW260676   0.527   4.216   9.818
52927SOL     OW60677   1.419   9.975  10.819
52927SOL    HW160678   1.424   9.982  10.914
52927SOL    HW260679   1.376  10.055  10.790
52928SOL     OW60680   9.524   8.333   4.837
52928SOL    HW160681   9.573   8.382   4.770
52928SOL    HW260682   9.475   8.267   4.787
52929SOL     OW60683   3.039   5.074   4.048
52929SOL    HW160684   3.096   5.038   4.116
52929SOL    HW260685   2.962   5.018   4.049
52930SOL     OW60686  11.309   4.524  14.326
52930SOL    HW160687  11.370   4.557  14.260
52930SOL    HW260688  11.345   4.554  14.409
52931SOL     OW60689  12.114   0.835  14.788
52931SOL    HW160690  12.184   0.812  14.726
52931SOL    HW260691  12.043   0.868  14.733
52932SOL     OW60692   3.165  14.784   1.474
52932SOL    HW160693   3.124  14.857   1.522
52932SOL    HW260694   3.259  14.796   1.488
52933SOL     OW60695   9.231   7.962   6.246
52933SOL    HW160696   9.233   7.922   6.159
52933SOL    HW260697   9.250   7.890   6.306
52934SOL     OW60698   8.477   4.883   5.992
52934SOL    HW160699   8.561   4.926   6.010
52934SOL    HW260700   8.415   4.926   6.051
52935SOL     OW60701  13.924   0.250  11.337
52935SOL    HW160702  13.877   0.167  11.323
52935SOL    HW260703  13.904   0.274  11.427
52936SOL     OW60704   9.227   2.680  11.614
52936SOL    HW160705   9.280   2.651  11.689
52936SOL    HW260706   9.223   2.775  11.623
52937SOL     OW60707  13.351   8.004  13.278
52937SOL    HW160708  13.331   8.089  13.317
52937SOL    HW260709  13.361   7.945  13.353
52938SOL     OW60710   4.182   1.355   4.019
52938SOL    HW160711   4.254   1.418   4.008
52938SOL    HW260712   4.180   1.338   4.113
52939SOL     OW60713  10.678  12.942   6.181
52939SOL    HW160714  10.742  12.963   6.112
52939SOL    HW260715  10.731  12.916   6.256
52940SOL     OW60716  14.762   6.395   8.156
52940SOL    HW160717  14.747   6.429   8.068
52940SOL    HW260718  14.820   6.459   8.197
52941SOL     OW60719   8.967   4.961   1.531
52941SOL    HW160720   8.975   4.878   1.484
52941SOL    HW260721   8.978   4.937   1.623
52942SOL     OW60722   3.379   2.739   2.855
52942SOL    HW160723   3.452   2.747   2.916
52942SOL    HW260724   3.419   2.712   2.772
52943SOL     OW60725   2.660   2.392   3.285
52943SOL    HW160726   2.584   2.334   3.285
52943SOL    HW260727   2.658   2.435   3.200
52944SOL     OW60728   6.969  11.914  12.614
52944SOL    HW160729   7.036  11.920  12.682
52944SOL    HW260730   7.012  11.868  12.542
52945SOL     OW60731   0.662   1.446  13.073
52945SOL    HW160732   0.733   1.479  13.017
52945SOL    HW260733   0.683   1.353  13.086
52946SOL     OW60734   3.966   1.884   7.083
52946SOL    HW160735   3.984   1.949   7.150
52946SOL    HW260736   3.945   1.934   7.005
52947SOL     OW60737   5.147  11.056   2.513
52947SOL    HW160738   5.110  11.115   2.447
52947SOL    HW260739   5.080  10.990   2.526
52948SOL     OW60740   2.926  13.946   6.463
52948SOL    HW160741   2.964  13.890   6.531
52948SOL    HW260742   2.979  14.026   6.467
52949SOL     OW60743   9.974   7.642   5.954
52949SOL    HW160744   9.960   7.561   5.905
52949SOL    HW260745  10.004   7.614   6.041
52950SOL     OW60746   5.509   3.596   9.653
52950SOL    HW160747   5.425   3.549   9.656
52950SOL    HW260748   5.508   3.651   9.731
52951SOL     OW60749   3.181   7.616   4.909
52951SOL    HW160750   3.191   7.603   4.814
52951SOL    HW260751   3.190   7.710   4.921
52952SOL     OW60752  12.125   3.780   8.382
52952SOL    HW160753  12.089   3.718   8.319
52952SOL    HW260754  12.184   3.727   8.436
52953SOL     OW60755   6.277   1.919   8.775
52953SOL    HW160756   6.203   1.968   8.812
52953SOL    HW260757   6.353   1.976   8.789
52954SOL     OW60758   0.250  14.080   3.556
52954SOL    HW160759   0.218  13.990   3.554
52954SOL    HW260760   0.316  14.081   3.625
52955SOL     OW60761  11.773   7.783   5.266
52955SOL    HW160762  11.724   7.827   5.197
52955SOL    HW260763  11.756   7.690   5.251
52956SOL     OW60764   0.539  11.584  11.189
52956SOL    HW160765   0.581  11.546  11.112
52956SOL    HW260766   0.446  11.566  11.177
52957SOL     OW60767   6.944   1.329   1.864
52957SOL    HW160768   7.005   1.304   1.796
52957SOL    HW260769   6.938   1.424   1.857
52958SOL     OW60770   2.849   6.241   5.910
52958SOL    HW160771   2.920   6.178   5.917
52958SOL    HW260772   2.865   6.304   5.981
52959SOL     OW60773   9.285  14.177   5.863
52959SOL    HW160774   9.327  14.163   5.949
52959SOL    HW260775   9.196  14.204   5.884
52960SOL     OW60776  12.749   2.361   8.711
52960SOL    HW160777  12.783   2.311   8.785
52960SOL    HW260778  12.789   2.447   8.719
52961SOL     OW60779   5.770   1.540  10.086
52961SOL    HW160780   5.784   1.520   9.994
52961SOL    HW260781   5.848   1.507  10.131
52962SOL     OW60782   9.330   3.086   8.949
52962SOL    HW160783   9.285   3.093   8.865
52962SOL    HW260784   9.399   3.152   8.945
52963SOL     OW60785   5.957  12.313   4.499
52963SOL    HW160786   5.999  12.377   4.441
52963SOL    HW260787   5.873  12.352   4.520
52964SOL     OW60788  11.023   5.066   3.065
52964SOL    HW160789  10.994   5.062   2.974
52964SOL    HW260790  10.950   5.028   3.114
52965SOL     OW60791   6.060   8.235   3.750
52965SOL    HW160792   6.120   8.168   3.784
52965SOL    HW260793   6.118   8.307   3.724
52966SOL     OW60794   4.818   5.133   5.446
52966SOL    HW160795   4.843   5.212   5.494
52966SOL    HW260796   4.786   5.073   5.514
52967SOL     OW60797   6.397   2.231   3.421
52967SOL    HW160798   6.470   2.245   3.481
52967SOL    HW260799   6.345   2.163   3.464
52968SOL     OW60800  10.460   1.128   1.471
52968SOL    HW160801  10.371   1.161   1.481
52968SOL    HW260802  10.511   1.204   1.443
52969SOL     OW60803  10.229   5.772   8.068
52969SOL    HW160804  10.314   5.816   8.075
52969SOL    HW260805  10.248   5.680   8.085
52970SOL     OW60806   3.711   1.097   4.386
52970SOL    HW160807   3.639   1.147   4.426
52970SOL    HW260808   3.669   1.017   4.354
52971SOL     OW60809   7.479   1.509   7.506
52971SOL    HW160810   7.413   1.501   7.575
52971SOL    HW260811   7.545   1.443   7.528
52972SOL     OW60812   1.371   8.506   3.191
52972SOL    HW160813   1.354   8.422   3.232
52972SOL    HW260814   1.308   8.510   3.119
52973SOL     OW60815   4.825  11.976   9.939
52973SOL    HW160816   4.742  11.994   9.894
52973SOL    HW260817   4.801  11.915  10.009
52974SOL     OW60818   0.168   0.655  11.955
52974SOL    HW160819   0.234   0.654  12.023
52974SOL    HW260820   0.184   0.576  11.904
52975SOL     OW60821  11.259   4.584   9.020
52975SOL    HW160822  11.198   4.599   9.092
52975SOL    HW260823  11.343   4.615   9.054
52976SOL     OW60824   8.121   6.701   6.644
52976SOL    HW160825   8.092   6.791   6.632
52976SOL    HW260826   8.210   6.709   6.678
52977SOL     OW60827  10.931  12.605   0.345
52977SOL    HW160828  11.008  12.585   0.399
52977SOL    HW260829  10.859  12.558   0.388
52978SOL     OW60830  13.704   9.530   1.402
52978SOL    HW160831  13.664   9.609   1.366
52978SOL    HW260832  13.726   9.554   1.492
52979SOL     OW60833   4.493   3.101  12.028
52979SOL    HW160834   4.436   3.175  12.049
52979SOL    HW260835   4.523   3.118  11.939
52980SOL     OW60836   8.045   7.131   0.327
52980SOL    HW160837   8.006   7.215   0.347
52980SOL    HW260838   8.052   7.130   0.231
52981SOL     OW60839   4.025  11.508  11.035
52981SOL    HW160840   3.942  11.487  11.078
52981SOL    HW260841   4.032  11.442  10.965
52982SOL     OW60842   4.098   7.199   0.548
52982SOL    HW160843   4.150   7.124   0.519
52982SOL    HW260844   4.163   7.261   0.583
52983SOL     OW60845   6.973   7.271   6.788
52983SOL    HW160846   6.914   7.244   6.858
52983SOL    HW260847   7.056   7.228   6.808
52984SOL     OW60848  13.693   8.116  14.669
52984SOL    HW160849  13.694   8.093  14.577
52984SOL    HW260850  13.784   8.111  14.697
52985SOL     OW60851   1.221   4.520   5.684
52985SOL    HW160852   1.209   4.570   5.765
52985SOL    HW260853   1.233   4.430   5.714
52986SOL     OW60854   9.477   5.332   6.649
52986SOL    HW160855   9.416   5.387   6.698
52986SOL    HW260856   9.428   5.306   6.570
52987SOL     OW60857   5.797   6.278  12.307
52987SOL    HW160858   5.811   6.363  12.266
52987SOL    HW260859   5.787   6.217  12.233
52988SOL     OW60860  12.176   4.086  12.550
52988SOL    HW160861  12.221   4.132  12.620
52988SOL    HW260862  12.174   3.995  12.579
52989SOL     OW60863  12.082  11.516   3.365
52989SOL    HW160864  12.124  11.561   3.291
52989SOL    HW260865  11.994  11.494   3.332
52990SOL     OW60866  13.017   8.291   9.879
52990SOL    HW160867  13.051   8.247   9.956
52990SOL    HW260868  12.989   8.377   9.911
52991SOL     OW60869   9.279   0.008   5.069
52991SOL    HW160870   9.349  14.829   5.025
52991SOL    HW260871   9.260   0.080   5.009
52992SOL     OW60872  10.306   1.079   0.582
52992SOL    HW160873  10.377   1.119   0.532
52992SOL    HW260874  10.243   1.150   0.595
52993SOL     OW60875   6.777   0.990   8.597
52993SOL    HW160876   6.782   1.049   8.522
52993SOL    HW260877   6.701   1.021   8.646
52994SOL     OW60878  10.647   8.903  10.735
52994SOL    HW160879  10.647   8.828  10.675
52994SOL    HW260880  10.724   8.889  10.790
52995SOL     OW60881   6.451  14.449  13.576
52995SOL    HW160882   6.384  14.510  13.607
52995SOL    HW260883   6.519  14.506  13.538
52996SOL     OW60884   2.938   5.070  14.052
52996SOL    HW160885   2.858   5.121  14.061
52996SOL    HW260886   2.909   4.983  14.028
52997SOL     OW60887  12.055  13.183   1.873
52997SOL    HW160888  12.032  13.193   1.965
52997SOL    HW260889  12.145  13.150   1.874
52998SOL     OW60890   2.782  12.497   5.774
52998SOL    HW160891   2.738  12.567   5.822
52998SOL    HW260892   2.751  12.416   5.817
52999SOL     OW60893   0.680  12.209   9.339
52999SOL    HW160894   0.734  12.131   9.325
52999SOL    HW260895   0.659  12.208   9.432
53000SOL     OW60896  10.696   6.320   7.349
53000SOL    HW160897  10.633   6.330   7.421
53000SOL    HW260898  10.775   6.362   7.381
53001SOL     OW60899   2.967   2.846   4.864
53001SOL    HW160900   2.887   2.800   4.836
53001SOL    HW260901   2.937   2.933   4.889
53002SOL     OW60902  11.860  12.065   6.325
53002SOL    HW160903  11.766  12.059   6.338
53002SOL    HW260904  11.898  12.034   6.407
53003SOL     OW60905  12.210  13.186  12.870
53003SOL    HW160906  12.261  13.224  12.798
53003SOL    HW260907  12.124  13.169  12.832
53004SOL     OW60908   2.962   9.300  10.373
53004SOL    HW160909   2.905   9.378  10.376
53004SOL    HW260910   2.919   9.242  10.310
53005SOL     OW60911   0.658  10.234   9.951
53005SOL    HW160912   0.717  10.295   9.906
53005SOL    HW260913   0.659  10.263  10.042
53006SOL     OW60914   6.775   6.012   0.531
53006SOL    HW160915   6.833   5.944   0.496
53006SOL    HW260916   6.809   6.094   0.496
53007SOL     OW60917  11.377   0.056  11.203
53007SOL    HW160918  11.361  14.832  11.187
53007SOL    HW260919  11.361   0.097  11.118
53008SOL     OW60920   1.568  14.043   2.045
53008SOL    HW160921   1.538  14.001   2.125
53008SOL    HW260922   1.538  13.985   1.975
53009SOL     OW60923   0.536   6.531  14.835
53009SOL    HW160924   0.543   6.554   0.059
53009SOL    HW260925   0.619   6.486  14.816
53010SOL     OW60926   2.721   2.688   3.984
53010SOL    HW160927   2.752   2.606   3.946
53010SOL    HW260928   2.648   2.715   3.927
53011SOL     OW60929   6.110   3.564   5.121
53011SOL    HW160930   6.129   3.615   5.200
53011SOL    HW260931   6.050   3.620   5.071
53012SOL     OW60932   2.401   8.096   2.847
53012SOL    HW160933   2.466   8.162   2.824
53012SOL    HW260934   2.435   8.055   2.927
53013SOL     OW60935  11.804   0.049   1.459
53013SOL    HW160936  11.895   0.067   1.481
53013SOL    HW260937  11.793   0.088   1.372
53014SOL     OW60938   0.071   3.281   7.101
53014SOL    HW160939   0.096   3.205   7.153
53014SOL    HW260940   0.027   3.245   7.024
53015SOL     OW60941  12.531   7.896   1.732
53015SOL    HW160942  12.480   7.832   1.683
53015SOL    HW260943  12.500   7.981   1.700
53016SOL     OW60944   1.174   6.393  12.225
53016SOL    HW160945   1.263   6.396  12.190
53016SOL    HW260946   1.176   6.452  12.300
53017SOL     OW60947   4.033   3.250   0.760
53017SOL    HW160948   4.024   3.272   0.852
53017SOL    HW260949   3.944   3.253   0.725
53018SOL     OW60950   0.389  13.320   6.227
53018SOL    HW160951   0.464  13.375   6.249
53018SOL    HW260952   0.428  13.242   6.186
53019SOL     OW60953  12.394  12.653  10.308
53019SOL    HW160954  12.431  12.713  10.373
53019SOL    HW260955  12.454  12.659  10.234
53020SOL     OW60956   0.259   1.496   3.036
53020SOL    HW160957   0.199   1.531   3.102
53020SOL    HW260958   0.204   1.440   2.981
53021SOL     OW60959   9.057   0.329   1.019
53021SOL    HW160960   9.033   0.405   1.073
53021SOL    HW260961   9.055   0.363   0.929
53022SOL     OW60962   3.743  11.477   4.204
53022SOL    HW160963   3.802  11.414   4.246
53022SOL    HW260964   3.785  11.562   4.218
53023SOL     OW60965   5.991  11.269   9.946
53023SOL    HW160966   5.920  11.332   9.957
53023SOL    HW260967   6.071  11.323   9.948
53024SOL     OW60968   0.582  12.502   7.186
53024SOL    HW160969   0.648  12.488   7.255
53024SOL    HW260970   0.532  12.577   7.216
53025SOL     OW60971   4.082   1.087  14.767
53025SOL    HW160972   4.135   1.115  14.693
53025SOL    HW260973   4.072   0.993  14.756
53026SOL     OW60974  10.203  14.197   9.309
53026SOL    HW160975  10.199  14.217   9.216
53026SOL    HW260976  10.293  14.218   9.335
53027SOL     OW60977   3.386  11.273   5.616
53027SOL    HW160978   3.373  11.367   5.613
53027SOL    HW260979   3.450  11.259   5.686
53028SOL     OW60980  11.649  10.203  14.095
53028SOL    HW160981  11.564  10.247  14.097
53028SOL    HW260982  11.657  10.171  14.005
53029SOL     OW60983   4.187  14.683   3.645
53029SOL    HW160984   4.215  14.615   3.584
53029SOL    HW260985   4.232  14.662   3.727
53030SOL     OW60986   5.592   9.422   5.981
53030SOL    HW160987   5.545   9.341   5.999
53030SOL    HW260988   5.538   9.468   5.917
53031SOL     OW60989   8.985   4.374   6.156
53031SOL    HW160990   9.036   4.443   6.198
53031SOL    HW260991   9.050   4.326   6.104
53032SOL     OW60992   9.733  11.605   6.308
53032SOL    HW160993   9.810  11.656   6.332
53032SOL    HW260994   9.659  11.660   6.334
53033SOL     OW60995   9.044  11.494   4.022
53033SOL    HW160996   8.966  11.481   3.968
53033SOL    HW260997   9.063  11.407   4.058
53034SOL     OW60998  13.069   9.892   4.728
53034SOL    HW160999  13.149   9.880   4.677
53034SOL    HW261000  13.006   9.831   4.689
53035SOL     OW61001   1.645   8.751  12.136
53035SOL    HW161002   1.654   8.658  12.154
53035SOL    HW261003   1.552   8.764  12.119
53036SOL     OW61004   2.058   4.479  11.615
53036SOL    HW161005   2.011   4.447  11.693
53036SOL    HW261006   2.006   4.447  11.541
53037SOL     OW61007  12.830   1.082   0.899
53037SOL    HW161008  12.797   1.143   0.833
53037SOL    HW261009  12.796   0.997   0.871
53038SOL     OW61010   1.917   9.899   1.937
53038SOL    HW161011   1.981   9.830   1.953
53038SOL    HW261012   1.905   9.901   1.842
53039SOL     OW61013  13.979  12.648   8.759
53039SOL    HW161014  14.045  12.582   8.741
53039SOL    HW261015  14.020  12.708   8.821
53040SOL     OW61016   1.731   2.368   5.459
53040SOL    HW161017   1.719   2.278   5.487
53040SOL    HW261018   1.789   2.362   5.383
53041SOL     OW61019   7.013  10.691   1.138
53041SOL    HW161020   7.008  10.599   1.112
53041SOL    HW261021   7.048  10.736   1.061
53042SOL     OW61022  12.513   6.835   0.145
53042SOL    HW161023  12.461   6.817   0.223
53042SOL    HW261024  12.458   6.805   0.073
53043SOL     OW61025   8.032  13.379  11.189
53043SOL    HW161026   8.073  13.295  11.208
53043SOL    HW261027   7.985  13.365  11.106
53044SOL     OW61028   5.427   7.928   5.479
53044SOL    HW161029   5.432   7.908   5.573
53044SOL    HW261030   5.349   7.880   5.449
53045SOL     OW61031  11.199   2.433   0.602
53045SOL    HW161032  11.291   2.455   0.587
53045SOL    HW261033  11.167   2.404   0.517
53046SOL     OW61034   7.535  10.308   6.725
53046SOL    HW161035   7.604  10.245   6.749
53046SOL    HW261036   7.580  10.392   6.723
53047SOL     OW61037   4.315   9.406   8.649
53047SOL    HW161038   4.255   9.446   8.586
53047SOL    HW261039   4.399   9.449   8.633
53048SOL     OW61040  11.920   8.192  13.601
53048SOL    HW161041  11.959   8.275  13.628
53048SOL    HW261042  11.888   8.153  13.682
53049SOL     OW61043   1.054  11.347   2.533
53049SOL    HW161044   1.095  11.410   2.592
53049SOL    HW261045   0.964  11.378   2.524
53050SOL     OW61046  12.679  11.713  11.239
53050SOL    HW161047  12.733  11.785  11.206
53050SOL    HW261048  12.619  11.755  11.301
53051SOL     OW61049   3.655  12.060   4.743
53051SOL    HW161050   3.673  11.967   4.728
53051SOL    HW261051   3.567  12.061   4.781
53052SOL     OW61052   0.393  12.354   2.482
53052SOL    HW161053   0.298  12.365   2.490
53052SOL    HW261054   0.407  12.259   2.479
53053SOL     OW61055   9.498  13.780  10.032
53053SOL    HW161056   9.593  13.771  10.025
53053SOL    HW261057   9.484  13.874  10.043
53054SOL     OW61058  11.107   6.188   9.920
53054SOL    HW161059  11.082   6.112   9.971
53054SOL    HW261060  11.150   6.152   9.842
53055SOL     OW61061   4.251  11.506  11.581
53055SOL    HW161062   4.320  11.440  11.570
53055SOL    HW261063   4.211  11.514  11.495
53056SOL     OW61064   7.988   6.007   2.049
53056SOL    HW161065   7.990   5.933   2.110
53056SOL    HW261066   8.056   5.988   1.985
53057SOL     OW61067   3.097  11.402   9.343
53057SOL    HW161068   3.042  11.429   9.270
53057SOL    HW261069   3.038  11.356   9.403
53058SOL     OW61070  14.493   8.495  10.512
53058SOL    HW161071  14.480   8.515  10.419
53058SOL    HW261072  14.468   8.404  10.521
53059SOL     OW61073   9.838   8.316  14.179
53059SOL    HW161074   9.930   8.324  14.152
53059SOL    HW261075   9.800   8.256  14.114
53060SOL     OW61076   6.666  11.936   0.629
53060SOL    HW161077   6.734  11.904   0.570
53060SOL    HW261078   6.705  12.011   0.672
53061SOL     OW61079   9.688   7.411  12.342
53061SOL    HW161080   9.651   7.499  12.344
53061SOL    HW261081   9.673   7.381  12.253
53062SOL     OW61082   1.933   5.108  13.691
53062SOL    HW161083   1.991   5.055  13.635
53062SOL    HW261084   1.871   5.044  13.728
53063SOL     OW61085  10.926   2.965   7.676
53063SOL    HW161086  10.911   3.047   7.724
53063SOL    HW261087  10.863   2.967   7.604
53064SOL     OW61088   9.166   4.752   7.823
53064SOL    HW161089   9.204   4.830   7.782
53064SOL    HW261090   9.175   4.768   7.917
53065SOL     OW61091  10.916  11.054   7.011
53065SOL    HW161092  10.957  10.973   7.040
53065SOL    HW261093  10.989  11.115   7.001
53066SOL     OW61094   2.402  12.559   5.190
53066SOL    HW161095   2.424  12.600   5.274
53066SOL    HW261096   2.375  12.470   5.213
53067SOL     OW61097   5.017   0.519   0.397
53067SOL    HW161098   5.038   0.445   0.340
53067SOL    HW261099   5.008   0.480   0.484
53068SOL     OW61100   8.687   4.176   9.832
53068SOL    HW161101   8.702   4.086   9.803
53068SOL    HW261102   8.595   4.193   9.813
53069SOL     OW61103  13.162   6.989   8.539
53069SOL    HW161104  13.110   7.057   8.581
53069SOL    HW261105  13.106   6.954   8.470
53070SOL     OW61106   5.730   0.139   4.686
53070SOL    HW161107   5.646   0.183   4.696
53070SOL    HW261108   5.773   0.151   4.770
53071SOL     OW61109   2.202  13.040  14.466
53071SOL    HW161110   2.235  13.029  14.556
53071SOL    HW261111   2.223  13.130  14.443
53072SOL     OW61112   3.667  10.308  13.833
53072SOL    HW161113   3.642  10.263  13.753
53072SOL    HW261114   3.617  10.264  13.902
53073SOL     OW61115   9.086  10.303   5.788
53073SOL    HW161116   9.156  10.249   5.824
53073SOL    HW261117   9.073  10.373   5.852
53074SOL     OW61118   0.070  12.147   4.517
53074SOL    HW161119   0.065  12.073   4.457
53074SOL    HW261120   0.026  12.117   4.596
53075SOL     OW61121   0.644   0.710   6.909
53075SOL    HW161122   0.652   0.675   6.820
53075SOL    HW261123   0.636   0.805   6.897
53076SOL     OW61124  14.004  12.736  13.941
53076SOL    HW161125  14.083  12.767  13.986
53076SOL    HW261126  13.938  12.730  14.009
53077SOL     OW61127   9.972   9.961   7.668
53077SOL    HW161128   9.891   9.981   7.621
53077SOL    HW261129  10.014  10.046   7.682
53078SOL     OW61130   7.870   8.256  10.624
53078SOL    HW161131   7.792   8.239  10.677
53078SOL    HW261132   7.944   8.237  10.682
53079SOL     OW61133   5.384   1.912   1.438
53079SOL    HW161134   5.422   1.828   1.465
53079SOL    HW261135   5.312   1.927   1.499
53080SOL     OW61136   2.315   8.674   7.010
53080SOL    HW161137   2.349   8.652   6.924
53080SOL    HW261138   2.229   8.712   6.993
53081SOL     OW61139   4.676   0.468   8.739
53081SOL    HW161140   4.686   0.556   8.701
53081SOL    HW261141   4.747   0.417   8.700
53082SOL     OW61142  13.034   7.259   4.957
53082SOL    HW161143  13.111   7.269   4.901
53082SOL    HW261144  12.992   7.179   4.926
53083SOL     OW61145   7.015   4.927   5.996
53083SOL    HW161146   7.044   4.969   5.915
53083SOL    HW261147   6.922   4.949   6.002
53084SOL     OW61148  14.261   7.500   4.890
53084SOL    HW161149  14.267   7.475   4.798
53084SOL    HW261150  14.350   7.489   4.924
53085SOL     OW61151   5.014  13.985  10.669
53085SOL    HW161152   5.028  13.912  10.608
53085SOL    HW261153   5.065  14.057  10.632
53086SOL     OW61154  12.753   8.813  14.675
53086SOL    HW161155  12.776   8.793  14.584
53086SOL    HW261156  12.836   8.828  14.719
53087SOL     OW61157  12.659   9.630  11.931
53087SOL    HW161158  12.687   9.719  11.954
53087SOL    HW261159  12.564   9.635  11.928
53088SOL     OW61160   3.721   8.642  12.754
53088SOL    HW161161   3.695   8.562  12.800
53088SOL    HW261162   3.817   8.636  12.748
53089SOL     OW61163  14.437   3.047   3.502
53089SOL    HW161164  14.523   3.020   3.534
53089SOL    HW261165  14.455   3.112   3.434
53090SOL     OW61166  12.730  14.865   9.590
53090SOL    HW161167  12.673  14.788   9.579
53090SOL    HW261168  12.803  14.850   9.530
53091SOL     OW61169   6.995  14.390   8.134
53091SOL    HW161170   6.973  14.333   8.207
53091SOL    HW261171   6.965  14.477   8.162
53092SOL     OW61172   5.016   0.899   9.349
53092SOL    HW161173   4.947   0.833   9.345
53092SOL    HW261174   4.999   0.946   9.430
53093SOL     OW61175   6.528   6.238   7.574
53093SOL    HW161176   6.566   6.165   7.526
53093SOL    HW261177   6.440   6.208   7.598
53094SOL     OW61178   2.065  10.986   2.970
53094SOL    HW161179   2.074  11.016   3.061
53094SOL    HW261180   2.091  10.894   2.972
53095SOL     OW61181   1.164   4.900   6.396
53095SOL    HW161182   1.127   4.886   6.309
53095SOL    HW261183   1.089   4.898   6.455
53096SOL     OW61184   6.171   9.762   3.705
53096SOL    HW161185   6.189   9.699   3.635
53096SOL    HW261186   6.076   9.755   3.719
53097SOL     OW61187   8.144   0.949   3.039
53097SOL    HW161188   8.131   0.854   3.046
53097SOL    HW261189   8.204   0.970   3.111
53098SOL     OW61190  11.212  13.686   5.916
53098SOL    HW161191  11.155  13.751   5.875
53098SOL    HW261192  11.290  13.684   5.860
53099SOL     OW61193  11.737  14.034   8.778
53099SOL    HW161194  11.707  13.990   8.857
53099SOL    HW261195  11.659  14.074   8.741
53100SOL     OW61196   2.079   7.627   6.376
53100SOL    HW161197   2.047   7.664   6.294
53100SOL    HW261198   2.032   7.675   6.444
53101SOL     OW61199  14.271  10.759  13.970
53101SOL    HW161200  14.327  10.824  13.928
53101SOL    HW261201  14.306  10.675  13.941
53102SOL     OW61202  10.516  13.205   3.217
53102SOL    HW161203  10.495  13.141   3.286
53102SOL    HW261204  10.497  13.290   3.257
53103SOL     OW61205  14.843  11.133   3.270
53103SOL    HW161206  14.840  11.220   3.229
53103SOL    HW261207   0.029  11.145   3.346
53104SOL     OW61208  12.934   0.762  10.192
53104SOL    HW161209  12.859   0.713  10.159
53104SOL    HW261210  12.962   0.817  10.119
53105SOL     OW61211  13.449  10.797  10.852
53105SOL    HW161212  13.514  10.764  10.790
53105SOL    HW261213  13.369  10.750  10.830
53106SOL     OW61214   8.722  10.912   1.347
53106SOL    HW161215   8.756  10.823   1.339
53106SOL    HW261216   8.645  10.914   1.291
53107SOL     OW61217  13.655   2.670   8.007
53107SOL    HW161218  13.749   2.669   7.990
53107SOL    HW261219  13.628   2.760   7.985
53108SOL     OW61220   2.168   3.683   7.744
53108SOL    HW161221   2.224   3.700   7.819
53108SOL    HW261222   2.101   3.622   7.777
53109SOL     OW61223   4.766   9.240   5.369
53109SOL    HW161224   4.766   9.151   5.335
53109SOL    HW261225   4.676   9.271   5.356
53110SOL     OW61226   1.271  12.819   3.867
53110SOL    HW161227   1.226  12.902   3.881
53110SOL    HW261228   1.337  12.815   3.936
53111SOL     OW61229   2.001   0.784   2.251
53111SOL    HW161230   2.005   0.848   2.180
53111SOL    HW261231   1.916   0.799   2.292
53112SOL     OW61232   0.052  10.791   4.802
53112SOL    HW161233   0.129  10.844   4.783
53112SOL    HW261234   0.087  10.706   4.828
53113SOL     OW61235  10.170   9.396   8.639
53113SOL    HW161236  10.166   9.306   8.671
53113SOL    HW261237  10.092   9.438   8.675
53114SOL     OW61238   6.051   5.618   6.509
53114SOL    HW161239   6.129   5.583   6.551
53114SOL    HW261240   6.019   5.546   6.454
53115SOL     OW61241   0.726  13.829   3.504
53115SOL    HW161242   0.728  13.828   3.600
53115SOL    HW261243   0.805  13.876   3.479
53116SOL     OW61244   2.842  14.078  10.770
53116SOL    HW161245   2.783  14.048  10.700
53116SOL    HW261246   2.790  14.067  10.850
53117SOL     OW61247   7.646  10.998   9.453
53117SOL    HW161248   7.695  10.940   9.394
53117SOL    HW261249   7.597  10.938   9.510
53118SOL     OW61250  10.063   4.506  14.570
53118SOL    HW161251  10.124   4.433  14.560
53118SOL    HW261252   9.977   4.467  14.553
53119SOL     OW61253  12.050  14.604   9.625
53119SOL    HW161254  12.125  14.607   9.565
53119SOL    HW261255  11.995  14.533   9.591
53120SOL     OW61256   6.643   9.273  12.928
53120SOL    HW161257   6.594   9.336  12.981
53120SOL    HW261258   6.728   9.266  12.971
53121SOL     OW61259  12.934  14.374  12.591
53121SOL    HW161260  12.895  14.367  12.504
53121SOL    HW261261  12.874  14.327  12.648
53122SOL     OW61262  11.955   4.420   1.195
53122SOL    HW161263  12.048   4.413   1.172
53122SOL    HW261264  11.914   4.456   1.116
53123SOL     OW61265  12.714   1.356  10.204
53123SOL    HW161266  12.725   1.324  10.115
53123SOL    HW261267  12.625   1.329  10.228
53124SOL     OW61268   6.290  12.530   2.054
53124SOL    HW161269   6.214  12.479   2.027
53124SOL    HW261270   6.364  12.473   2.037
53125SOL     OW61271   7.396   9.881   4.470
53125SOL    HW161272   7.316   9.890   4.419
53125SOL    HW261273   7.369   9.834   4.548
53126SOL     OW61274   1.500  13.121   8.739
53126SOL    HW161275   1.554  13.118   8.661
53126SOL    HW261276   1.543  13.187   8.795
53127SOL     OW61277   1.963   2.661   7.921
53127SOL    HW161278   2.040   2.607   7.901
53127SOL    HW261279   1.965   2.730   7.854
53128SOL     OW61280   4.098  13.047   9.335
53128SOL    HW161281   4.026  13.110   9.330
53128SOL    HW261282   4.150  13.075   9.410
53129SOL     OW61283   1.297   9.442   9.872
53129SOL    HW161284   1.363   9.454   9.941
53129SOL    HW261285   1.339   9.476   9.793
53130SOL     OW61286  10.525  13.808  12.442
53130SOL    HW161287  10.589  13.782  12.376
53130SOL    HW261288  10.555  13.894  12.472
53131SOL     OW61289   4.311   3.128   4.771
53131SOL    HW161290   4.302   3.074   4.693
53131SOL    HW261291   4.223   3.161   4.787
53132SOL     OW61292   6.811   0.448   0.718
53132SOL    HW161293   6.899   0.456   0.682
53132SOL    HW261294   6.784   0.358   0.697
53133SOL     OW61295  11.096   3.447  11.979
53133SOL    HW161296  11.026   3.391  12.012
53133SOL    HW261297  11.139   3.480  12.058
53134SOL     OW61298   8.383  12.458  10.151
53134SOL    HW161299   8.365  12.518  10.223
53134SOL    HW261300   8.397  12.514  10.075
53135SOL     OW61301  12.715   0.522   6.732
53135SOL    HW161302  12.738   0.612   6.708
53135SOL    HW261303  12.696   0.526   6.826
53136SOL     OW61304   1.298  13.929  12.066
53136SOL    HW161305   1.387  13.911  12.035
53136SOL    HW261306   1.253  13.965  11.989
53137SOL     OW61307  12.261   5.563   0.152
53137SOL    HW161308  12.342   5.526   0.115
53137SOL    HW261309  12.212   5.593   0.075
53138SOL     OW61310   5.531   5.532   4.515
53138SOL    HW161311   5.436   5.544   4.506
53138SOL    HW261312   5.569   5.612   4.480
53139SOL     OW61313  14.687   6.773  12.948
53139SOL    HW161314  14.603   6.756  12.989
53139SOL    HW261315  14.728   6.840  13.003
53140SOL     OW61316   7.907   0.930  12.002
53140SOL    HW161317   7.994   0.935  11.963
53140SOL    HW261318   7.868   1.016  11.986
53141SOL     OW61319   5.066  14.059   0.984
53141SOL    HW161320   5.078  14.013   0.901
53141SOL    HW261321   4.988  14.020   1.022
53142SOL     OW61322  11.335  11.471  14.169
53142SOL    HW161323  11.322  11.376  14.173
53142SOL    HW261324  11.422  11.485  14.204
53143SOL     OW61325  14.255   0.801  11.629
53143SOL    HW161326  14.215   0.778  11.545
53143SOL    HW261327  14.261   0.897  11.627
53144SOL     OW61328  11.575   0.381  13.249
53144SOL    HW161329  11.667   0.391  13.223
53144SOL    HW261330  11.565   0.440  13.324
53145SOL     OW61331   6.861  14.516  13.911
53145SOL    HW161332   6.804  14.588  13.937
53145SOL    HW261333   6.946  14.537  13.949
53146SOL     OW61334   5.097   3.214   6.287
53146SOL    HW161335   5.111   3.120   6.278
53146SOL    HW261336   5.143   3.253   6.213
53147SOL     OW61337   1.397  13.949   5.441
53147SOL    HW161338   1.399  14.009   5.516
53147SOL    HW261339   1.435  14.000   5.369
53148SOL     OW61340   7.355   6.684   6.926
53148SOL    HW161341   7.388   6.638   7.003
53148SOL    HW261342   7.353   6.618   6.857
53149SOL     OW61343   1.817  11.127   2.595
53149SOL    HW161344   1.875  11.052   2.581
53149SOL    HW261345   1.811  11.169   2.509
53150SOL     OW61346  10.314  11.205   5.301
53150SOL    HW161347  10.262  11.130   5.273
53150SOL    HW261348  10.399  11.168   5.325
53151SOL     OW61349   1.184   1.385  12.967
53151SOL    HW161350   1.193   1.466  12.917
53151SOL    HW261351   1.273   1.364  12.996
53152SOL     OW61352   2.483   9.478  14.455
53152SOL    HW161353   2.518   9.486  14.366
53152SOL    HW261354   2.431   9.558  14.467
53153SOL     OW61355   4.342   4.280   2.010
53153SOL    HW161356   4.394   4.304   1.934
53153SOL    HW261357   4.341   4.184   2.009
53154SOL     OW61358  12.060  11.826   0.030
53154SOL    HW161359  12.048  11.732   0.020
53154SOL    HW261360  11.990  11.865  14.847
53155SOL     OW61361  10.233   8.393  13.267
53155SOL    HW161362  10.241   8.488  13.282
53155SOL    HW261363  10.323   8.363  13.260
53156SOL     OW61364  12.554  11.540   9.745
53156SOL    HW161365  12.647  11.537   9.723
53156SOL    HW261366  12.535  11.633   9.758
53157SOL     OW61367  12.720   0.129  10.482
53157SOL    HW161368  12.757   0.041  10.468
53157SOL    HW261369  12.769   0.163  10.557
53158SOL     OW61370  13.082   3.892   3.413
53158SOL    HW161371  13.167   3.916   3.449
53158SOL    HW261372  13.019   3.947   3.459
53159SOL     OW61373   7.660   2.642  12.374
53159SOL    HW161374   7.746   2.603  12.357
53159SOL    HW261375   7.634   2.607  12.459
53160SOL     OW61376   2.273  13.806   3.544
53160SOL    HW161377   2.259  13.725   3.495
53160SOL    HW261378   2.238  13.875   3.487
53161SOL     OW61379   5.984   8.211   1.281
53161SOL    HW161380   5.936   8.175   1.355
53161SOL    HW261381   6.064   8.246   1.319
53162SOL     OW61382   5.451   2.718  12.034
53162SOL    HW161383   5.467   2.808  12.061
53162SOL    HW261384   5.535   2.673  12.047
53163SOL     OW61385  13.819  10.970   0.207
53163SOL    HW161386  13.852  10.881   0.199
53163SOL    HW261387  13.897  11.023   0.223
53164SOL     OW61388  11.550  13.198   1.307
53164SOL    HW161389  11.518  13.140   1.237
53164SOL    HW261390  11.472  13.220   1.357
53165SOL     OW61391   0.184   2.874   9.559
53165SOL    HW161392   0.262   2.825   9.533
53165SOL    HW261393   0.203   2.905   9.648
53166SOL     OW61394  12.778   0.252   4.575
53166SOL    HW161395  12.744   0.337   4.546
53166SOL    HW261396  12.871   0.269   4.592
53167SOL     OW61397   1.555  10.839  13.095
53167SOL    HW161398   1.570  10.756  13.140
53167SOL    HW261399   1.534  10.901  13.164
53168SOL     OW61400  13.918  11.858   5.663
53168SOL    HW161401  13.935  11.782   5.719
53168SOL    HW261402  13.894  11.927   5.725
53169SOL     OW61403   1.492  12.605   2.147
53169SOL    HW161404   1.446  12.667   2.204
53169SOL    HW261405   1.515  12.657   2.070
53170SOL     OW61406  11.591   7.009   1.316
53170SOL    HW161407  11.659   7.048   1.372
53170SOL    HW261408  11.529   7.080   1.301
53171SOL     OW61409   9.166  12.745   3.984
53171SOL    HW161410   9.084  12.753   4.031
53171SOL    HW261411   9.217  12.682   4.035
53172SOL     OW61412  14.326   7.131  12.329
53172SOL    HW161413  14.289   7.135  12.417
53172SOL    HW261414  14.312   7.040  12.301
53173SOL     OW61415  13.583   2.545   8.871
53173SOL    HW161416  13.540   2.463   8.845
53173SOL    HW261417  13.670   2.539   8.832
53174SOL     OW61418   1.910  13.927   3.445
53174SOL    HW161419   1.885  13.960   3.359
53174SOL    HW261420   1.848  13.968   3.505
53175SOL     OW61421   0.753  11.326  12.731
53175SOL    HW161422   0.816  11.394  12.705
53175SOL    HW261423   0.803  11.245  12.727
53176SOL     OW61424   8.559   1.400   8.272
53176SOL    HW161425   8.576   1.336   8.341
53176SOL    HW261426   8.596   1.482   8.307
53177SOL     OW61427  13.273   2.253   7.758
53177SOL    HW161428  13.325   2.179   7.788
53177SOL    HW261429  13.199   2.257   7.818
53178SOL     OW61430   0.149   3.074   3.263
53178SOL    HW161431   0.224   3.030   3.224
53178SOL    HW261432   0.160   3.166   3.239
53179SOL     OW61433  11.143   0.447  14.229
53179SOL    HW161434  11.232   0.478  14.245
53179SOL    HW261435  11.112   0.417  14.315
53180SOL     OW61436   3.642   1.362   6.240
53180SOL    HW161437   3.624   1.366   6.334
53180SOL    HW261438   3.623   1.271   6.216
53181SOL     OW61439  11.206   3.896  10.547
53181SOL    HW161440  11.242   3.883  10.459
53181SOL    HW261441  11.217   3.811  10.590
53182SOL     OW61442   1.267   6.198  11.924
53182SOL    HW161443   1.340   6.136  11.918
53182SOL    HW261444   1.205   6.156  11.983
53183SOL     OW61445   2.081  12.912   3.715
53183SOL    HW161446   2.127  12.879   3.792
53183SOL    HW261447   2.149  12.922   3.649
53184SOL     OW61448   6.038   0.467  10.127
53184SOL    HW161449   6.031   0.529  10.200
53184SOL    HW261450   5.949   0.437  10.111
53185SOL     OW61451  13.437   5.914   6.170
53185SOL    HW161452  13.415   5.821   6.172
53185SOL    HW261453  13.501   5.921   6.099
53186SOL     OW61454  11.992  14.856   8.207
53186SOL    HW161455  12.042   0.064   8.181
53186SOL    HW261456  11.905   0.001   8.171
53187SOL     OW61457   8.092   9.514  10.072
53187SOL    HW161458   7.998   9.520  10.054
53187SOL    HW261459   8.105   9.422  10.096
53188SOL     OW61460  12.891   6.672   8.165
53188SOL    HW161461  12.885   6.579   8.140
53188SOL    HW261462  12.817   6.713   8.119
53189SOL     OW61463  10.597   0.613  12.067
53189SOL    HW161464  10.636   0.699  12.052
53189SOL    HW261465  10.667   0.551  12.047
53190SOL     OW61466   2.566  11.293  12.086
53190SOL    HW161467   2.568  11.233  12.011
53190SOL    HW261468   2.478  11.331  12.083
53191SOL     OW61469   3.799   8.324   1.252
53191SOL    HW161470   3.814   8.244   1.202
53191SOL    HW261471   3.886   8.362   1.266
53192SOL     OW61472   7.598  12.341   8.149
53192SOL    HW161473   7.693  12.349   8.157
53192SOL    HW261474   7.581  12.339   8.055
53193SOL     OW61475   9.848  10.176   0.235
53193SOL    HW161476   9.888  10.099   0.273
53193SOL    HW261477   9.900  10.195   0.157
53194SOL     OW61478   9.893   8.145   3.428
53194SOL    HW161479   9.932   8.218   3.477
53194SOL    HW261480   9.822   8.114   3.484
53195SOL     OW61481   7.596  11.425  14.306
53195SOL    HW161482   7.524  11.363  14.304
53195SOL    HW261483   7.554  11.511  14.297
53196SOL     OW61484   3.245   2.255   0.984
53196SOL    HW161485   3.264   2.177   1.036
53196SOL    HW261486   3.313   2.256   0.917
53197SOL     OW61487   6.973   0.169   3.270
53197SOL    HW161488   6.940   0.254   3.243
53197SOL    HW261489   7.066   0.171   3.248
53198SOL     OW61490  10.942   1.883   0.289
53198SOL    HW161491  10.952   1.829   0.367
53198SOL    HW261492  11.014   1.946   0.294
53199SOL     OW61493   6.599  12.456  11.040
53199SOL    HW161494   6.636  12.369  11.051
53199SOL    HW261495   6.671  12.516  11.062
53200SOL     OW61496  10.631   6.873  14.204
53200SOL    HW161497  10.654   6.845  14.293
53200SOL    HW261498  10.549   6.921  14.215
53201SOL     OW61499   9.341   0.038   3.859
53201SOL    HW161500   9.363   0.094   3.786
53201SOL    HW261501   9.360   0.090   3.937
53202SOL     OW61502   9.542  11.682   0.055
53202SOL    HW161503   9.614  11.637   0.099
53202SOL    HW261504   9.581  11.713  14.843
53203SOL     OW61505   3.646   2.002   2.103
53203SOL    HW161506   3.690   2.065   2.160
53203SOL    HW261507   3.563   1.983   2.149
53204SOL     OW61508   4.983   8.962  11.646
53204SOL    HW161509   4.991   9.057  11.659
53204SOL    HW261510   5.060   8.925  11.689
53205SOL     OW61511   1.043  11.682  11.131
53205SOL    HW161512   1.017  11.774  11.134
53205SOL    HW261513   0.981  11.641  11.071
53206SOL     OW61514  11.458   8.800  10.364
53206SOL    HW161515  11.523   8.796  10.293
53206SOL    HW261516  11.475   8.883  10.408
53207SOL     OW61517   0.412   0.063   5.998
53207SOL    HW161518   0.351   0.021   5.937
53207SOL    HW261519   0.428  14.867   6.065
53208SOL     OW61520  10.586   7.015   3.614
53208SOL    HW161521  10.631   6.931   3.619
53208SOL    HW261522  10.625   7.069   3.682
53209SOL     OW61523   2.132  12.483   2.609
53209SOL    HW161524   2.090  12.425   2.673
53209SOL    HW261525   2.108  12.571   2.639
53210SOL     OW61526   5.091   7.140  10.541
53210SOL    HW161527   5.132   7.059  10.508
53210SOL    HW261528   5.165   7.196  10.563
53211SOL     OW61529   7.833  12.296  12.072
53211SOL    HW161530   7.789  12.227  12.023
53211SOL    HW261531   7.843  12.260  12.160
53212SOL     OW61532   8.616  10.824   6.022
53212SOL    HW161533   8.563  10.864   6.090
53212SOL    HW261534   8.553  10.787   5.960
53213SOL     OW61535   3.264   6.704   5.799
53213SOL    HW161536   3.241   6.735   5.887
53213SOL    HW261537   3.264   6.784   5.745
53214SOL     OW61538   5.293  12.309   5.489
53214SOL    HW161539   5.372  12.335   5.536
53214SOL    HW261540   5.315  12.226   5.448
53215SOL     OW61541   4.611   2.487  14.641
53215SOL    HW161542   4.657   2.565  14.612
53215SOL    HW261543   4.576   2.511  14.727
53216SOL     OW61544   9.324   6.074   8.160
53216SOL    HW161545   9.326   5.979   8.163
53216SOL    HW261546   9.387   6.102   8.227
53217SOL     OW61547  12.958  14.551  14.416
53217SOL    HW161548  12.873  14.531  14.455
53217SOL    HW261549  12.992  14.466  14.387
53218SOL     OW61550  10.874  10.308  12.794
53218SOL    HW161551  10.806  10.355  12.746
53218SOL    HW261552  10.951  10.311  12.737
53219SOL     OW61553   4.287  13.663  10.606
53219SOL    HW161554   4.343  13.712  10.546
53219SOL    HW261555   4.338  13.586  10.629
53220SOL     OW61556  12.779   1.520   4.621
53220SOL    HW161557  12.684   1.509   4.613
53220SOL    HW261558  12.802   1.475   4.702
53221SOL     OW61559   2.006   4.930  10.861
53221SOL    HW161560   2.001   4.889  10.775
53221SOL    HW261561   1.968   4.865  10.921
53222SOL     OW61562   8.509  10.734   9.597
53222SOL    HW161563   8.550  10.743   9.683
53222SOL    HW261564   8.521  10.642   9.574
53223SOL     OW61565   8.596   0.933   6.886
53223SOL    HW161566   8.598   1.010   6.943
53223SOL    HW261567   8.664   0.876   6.922
53224SOL     OW61568   5.618  12.024   4.656
53224SOL    HW161569   5.530  12.001   4.684
53224SOL    HW261570   5.610  12.112   4.619
53225SOL     OW61571   2.831  10.147   4.829
53225SOL    HW161572   2.765  10.178   4.892
53225SOL    HW261573   2.799  10.062   4.801
53226SOL     OW61574   4.131   8.521  11.982
53226SOL    HW161575   4.121   8.601  11.930
53226SOL    HW261576   4.116   8.549  12.072
53227SOL     OW61577  11.966   4.916  14.570
53227SOL    HW161578  11.997   4.973  14.499
53227SOL    HW261579  11.873   4.903  14.552
53228SOL     OW61580   5.650   0.483   0.878
53228SOL    HW161581   5.578   0.424   0.854
53228SOL    HW261582   5.713   0.474   0.806
53229SOL     OW61583  10.302   7.310   6.148
53229SOL    HW161584  10.397   7.298   6.147
53229SOL    HW261585  10.278   7.305   6.241
53230SOL     OW61586   1.682   4.499   7.048
53230SOL    HW161587   1.756   4.480   6.990
53230SOL    HW261588   1.605   4.479   6.996
53231SOL     OW61589   5.776   7.796   0.048
53231SOL    HW161590   5.869   7.774   0.050
53231SOL    HW261591   5.755   7.820   0.138
53232SOL     OW61592   3.003   3.761   3.428
53232SOL    HW161593   2.988   3.675   3.468
53232SOL    HW261594   2.955   3.821   3.485
53233SOL     OW61595   7.442   5.886   0.661
53233SOL    HW161596   7.511   5.924   0.606
53233SOL    HW261597   7.419   5.957   0.721
53234SOL     OW61598  10.166  14.110  14.169
53234SOL    HW161599  10.197  14.191  14.208
53234SOL    HW261600  10.178  14.122  14.075
53235SOL     OW61601   9.936  14.492   2.692
53235SOL    HW161602   9.930  14.539   2.775
53235SOL    HW261603   9.967  14.405   2.717
53236SOL     OW61604  13.771   6.899   4.245
53236SOL    HW161605  13.816   6.979   4.215
53236SOL    HW261606  13.805   6.885   4.333
53237SOL     OW61607   0.128   6.344  11.434
53237SOL    HW161608   0.075   6.281  11.385
53237SOL    HW261609   0.072   6.373  11.506
53238SOL     OW61610   0.316   0.024  11.392
53238SOL    HW161611   0.378  14.838  11.346
53238SOL    HW261612   0.359   0.110  11.395
53239SOL     OW61613   8.088   5.095  13.883
53239SOL    HW161614   8.156   5.032  13.906
53239SOL    HW261615   8.046   5.117  13.966
53240SOL     OW61616   8.966   8.347  14.091
53240SOL    HW161617   8.882   8.393  14.087
53240SOL    HW261618   8.966   8.305  14.177
53241SOL     OW61619   1.329   5.824   1.365
53241SOL    HW161620   1.283   5.882   1.425
53241SOL    HW261621   1.290   5.842   1.280
53242SOL     OW61622   0.165   0.415  13.393
53242SOL    HW161623   0.206   0.349  13.337
53242SOL    HW261624   0.147   0.488  13.334
53243SOL     OW61625  12.619  13.435   7.861
53243SOL    HW161626  12.653  13.472   7.942
53243SOL    HW261627  12.673  13.474   7.792
53244SOL     OW61628   8.635   9.790   6.209
53244SOL    HW161629   8.636   9.869   6.155
53244SOL    HW261630   8.574   9.731   6.166
53245SOL     OW61631   6.444   0.963  11.905
53245SOL    HW161632   6.366   1.014  11.924
53245SOL    HW261633   6.485   1.009  11.831
53246SOL     OW61634   9.930   8.239  12.765
53246SOL    HW161635   9.944   8.222  12.858
53246SOL    HW261636   9.976   8.168  12.720
53247SOL     OW61637   8.002   8.429   6.290
53247SOL    HW161638   7.964   8.516   6.276
53247SOL    HW261639   7.950   8.371   6.233
53248SOL     OW61640   2.258   6.339   8.014
53248SOL    HW161641   2.303   6.254   8.018
53248SOL    HW261642   2.199   6.339   8.089
53249SOL     OW61643   8.945   7.434   4.037
53249SOL    HW161644   8.860   7.477   4.038
53249SOL    HW261645   8.993   7.477   3.966
53250SOL     OW61646   6.343   8.283   3.620
53250SOL    HW161647   6.336   8.376   3.644
53250SOL    HW261648   6.418   8.251   3.669
53251SOL     OW61649  11.199   8.852  11.074
53251SOL    HW161650  11.126   8.796  11.098
53251SOL    HW261651  11.273   8.792  11.061
53252SOL     OW61652   9.410   6.150   2.147
53252SOL    HW161653   9.473   6.205   2.192
53252SOL    HW261654   9.349   6.122   2.215
53253SOL     OW61655   8.191   2.454   0.957
53253SOL    HW161656   8.158   2.497   0.878
53253SOL    HW261657   8.182   2.521   1.026
53254SOL     OW61658  11.444   6.112   0.801
53254SOL    HW161659  11.435   6.027   0.843
53254SOL    HW261660  11.358   6.129   0.762
53255SOL     OW61661   0.729   8.923  13.591
53255SOL    HW161662   0.750   8.918  13.684
53255SOL    HW261663   0.757   8.839  13.555
53256SOL     OW61664   0.718   2.211  14.669
53256SOL    HW161665   0.663   2.210  14.747
53256SOL    HW261666   0.807   2.223  14.703
53257SOL     OW61667   3.434   8.225  14.848
53257SOL    HW161668   3.347   8.189  14.867
53257SOL    HW261669   3.478   8.155  14.800
53258SOL     OW61670   2.165  11.147  14.840
53258SOL    HW161671   2.119  11.227  14.816
53258SOL    HW261672   2.233  11.137  14.773
53259SOL     OW61673   7.807   2.324   2.542
53259SOL    HW161674   7.825   2.302   2.633
53259SOL    HW261675   7.712   2.340   2.540
53260SOL     OW61676   3.319   6.910   8.602
53260SOL    HW161677   3.247   6.936   8.545
53260SOL    HW261678   3.306   6.817   8.617
53261SOL     OW61679   9.202   2.599   9.967
53261SOL    HW161680   9.151   2.518   9.972
53261SOL    HW261681   9.138   2.669   9.974
53262SOL     OW61682   3.535  14.829  10.447
53262SOL    HW161683   3.606   0.016  10.479
53262SOL    HW261684   3.478   0.018  10.397
53263SOL     OW61685   1.294   1.155   8.478
53263SOL    HW161686   1.304   1.240   8.523
53263SOL    HW261687   1.208   1.124   8.505
53264SOL     OW61688  12.824  14.619  13.590
53264SOL    HW161689  12.869  14.701  13.571
53264SOL    HW261690  12.894  14.554  13.593
53265SOL     OW61691  14.060   4.746   0.796
53265SOL    HW161692  14.070   4.818   0.733
53265SOL    HW261693  14.026   4.788   0.875
53266SOL     OW61694  11.769   1.834   3.216
53266SOL    HW161695  11.821   1.899   3.169
53266SOL    HW261696  11.764   1.759   3.157
53267SOL     OW61697  11.284   9.550   7.274
53267SOL    HW161698  11.344   9.616   7.309
53267SOL    HW261699  11.206   9.558   7.328
53268SOL     OW61700   2.567  11.532   8.613
53268SOL    HW161701   2.564  11.518   8.708
53268SOL    HW261702   2.597  11.448   8.578
53269SOL     OW61703   7.555   9.966   9.933
53269SOL    HW161704   7.600   9.911   9.869
53269SOL    HW261705   7.552  10.052   9.892
53270SOL     OW61706   4.534  13.082   9.056
53270SOL    HW161707   4.462  13.114   9.002
53270SOL    HW261708   4.566  13.159   9.102
53271SOL     OW61709   4.225   7.963  14.593
53271SOL    HW161710   4.217   7.976  14.499
53271SOL    HW261711   4.254   7.872  14.602
53272SOL     OW61712   2.331   8.862   9.125
53272SOL    HW161713   2.307   8.944   9.082
53272SOL    HW261714   2.393   8.887   9.193
53273SOL     OW61715   2.534  11.249  12.809
53273SOL    HW161716   2.586  11.306  12.865
53273SOL    HW261717   2.444  11.258  12.841
53274SOL     OW61718   9.284   4.570   1.948
53274SOL    HW161719   9.189   4.556   1.938
53274SOL    HW261720   9.293   4.623   2.026
53275SOL     OW61721   5.171   7.334   1.463
53275SOL    HW161722   5.092   7.343   1.517
53275SOL    HW261723   5.167   7.408   1.403
53276SOL     OW61724  12.666  11.155  13.680
53276SOL    HW161725  12.716  11.156  13.598
53276SOL    HW261726  12.600  11.222  13.668
53277SOL     OW61727   4.901   5.165  10.622
53277SOL    HW161728   4.927   5.238  10.566
53277SOL    HW261729   4.959   5.093  10.596
53278SOL     OW61730   0.524   5.933  12.140
53278SOL    HW161731   0.511   6.027  12.131
53278SOL    HW261732   0.597   5.925  12.202
53279SOL     OW61733   9.763  12.010   3.216
53279SOL    HW161734   9.836  12.071   3.214
53279SOL    HW261735   9.770  11.960   3.135
53280SOL     OW61736   0.059   3.313  14.715
53280SOL    HW161737   0.074   3.378  14.646
53280SOL    HW261738   0.147   3.282  14.737
53281SOL     OW61739   0.641   6.076   9.805
53281SOL    HW161740   0.613   6.047   9.892
53281SOL    HW261741   0.594   6.158   9.791
53282SOL     OW61742  12.705  10.866  11.806
53282SOL    HW161743  12.610  10.852  11.818
53282SOL    HW261744  12.722  10.950  11.847
53283SOL     OW61745  10.489   5.972   6.291
53283SOL    HW161746  10.472   5.920   6.213
53283SOL    HW261747  10.567   6.024   6.269
53284SOL     OW61748  10.068   1.699   2.860
53284SOL    HW161749  10.052   1.604   2.859
53284SOL    HW261750  10.027   1.731   2.780
53285SOL     OW61751   1.711  10.285  12.691
53285SOL    HW161752   1.685  10.345  12.621
53285SOL    HW261753   1.647  10.301  12.760
53286SOL     OW61754   5.369   1.191   2.035
53286SOL    HW161755   5.415   1.109   2.017
53286SOL    HW261756   5.422   1.258   1.992
53287SOL     OW61757   5.754   8.705   9.652
53287SOL    HW161758   5.693   8.700   9.578
53287SOL    HW261759   5.755   8.617   9.688
53288SOL     OW61760   5.624   3.537  13.745
53288SOL    HW161761   5.652   3.627  13.730
53288SOL    HW261762   5.614   3.500  13.657
53289SOL     OW61763   0.275   6.897   4.707
53289SOL    HW161764   0.185   6.911   4.737
53289SOL    HW261765   0.268   6.832   4.637
53290SOL     OW61766  11.680  14.247   5.614
53290SOL    HW161767  11.711  14.301   5.541
53290SOL    HW261768  11.584  14.256   5.611
53291SOL     OW61769   0.294   2.060   4.465
53291SOL    HW161770   0.373   2.098   4.426
53291SOL    HW261771   0.222   2.113   4.429
53292SOL     OW61772   9.628  11.413   2.388
53292SOL    HW161773   9.679  11.493   2.375
53292SOL    HW261774   9.681  11.361   2.448
53293SOL     OW61775   8.633   1.418  10.141
53293SOL    HW161776   8.605   1.499  10.099
53293SOL    HW261777   8.713   1.442  10.188
53294SOL     OW61778  11.051   4.457  12.169
53294SOL    HW161779  11.037   4.368  12.137
53294SOL    HW261780  10.984   4.509  12.126
53295SOL     OW61781   1.325   8.566   3.733
53295SOL    HW161782   1.287   8.648   3.765
53295SOL    HW261783   1.331   8.578   3.638
53296SOL     OW61784   3.359  14.806  12.781
53296SOL    HW161785   3.411   0.009  12.814
53296SOL    HW261786   3.374  14.807  12.687
53297SOL     OW61787   7.986  11.833   3.572
53297SOL    HW161788   8.075  11.842   3.607
53297SOL    HW261789   7.942  11.914   3.599
53298SOL     OW61790   6.044   9.730  12.202
53298SOL    HW161791   5.985   9.771  12.265
53298SOL    HW261792   6.002   9.647  12.179
53299SOL     OW61793   2.752  14.307  14.588
53299SOL    HW161794   2.793  14.334  14.506
53299SOL    HW261795   2.715  14.220  14.569
53300SOL     OW61796  12.664  12.297   2.156
53300SOL    HW161797  12.603  12.232   2.124
53300SOL    HW261798  12.701  12.259   2.236
53301SOL     OW61799   0.374  14.563   1.320
53301SOL    HW161800   0.377  14.476   1.359
53301SOL    HW261801   0.336  14.619   1.388
53302SOL     OW61802  13.731  12.054   1.092
53302SOL    HW161803  13.710  12.063   0.999
53302SOL    HW261804  13.725  12.143   1.127
53303SOL     OW61805   7.330   8.527  13.492
53303SOL    HW161806   7.380   8.589  13.545
53303SOL    HW261807   7.359   8.543  13.402
53304SOL     OW61808  12.438  11.152   0.723
53304SOL    HW161809  12.401  11.107   0.647
53304SOL    HW261810  12.520  11.189   0.691
53305SOL     OW61811   6.432   9.697  14.100
53305SOL    HW161812   6.437   9.743  14.184
53305SOL    HW261813   6.508   9.640  14.099
53306SOL     OW61814  10.154  13.861   8.466
53306SOL    HW161815  10.063  13.870   8.492
53306SOL    HW261816  10.203  13.907   8.534
53307SOL     OW61817   9.718  10.095  10.058
53307SOL    HW161818   9.682  10.173  10.015
53307SOL    HW261819   9.735  10.034   9.986
53308SOL     OW61820  13.674  12.092   4.616
53308SOL    HW161821  13.582  12.085   4.589
53308SOL    HW261822  13.687  12.185   4.633
53309SOL     OW61823   7.853   4.836   2.854
53309SOL    HW161824   7.893   4.811   2.937
53309SOL    HW261825   7.920   4.888   2.811
53310SOL     OW61826   7.111   5.906   5.378
53310SOL    HW161827   7.108   5.859   5.295
53310SOL    HW261828   7.175   5.856   5.430
53311SOL     OW61829   8.249   9.436   0.479
53311SOL    HW161830   8.233   9.354   0.432
53311SOL    HW261831   8.324   9.475   0.434
53312SOL     OW61832  13.509   3.473   0.372
53312SOL    HW161833  13.558   3.391   0.360
53312SOL    HW261834  13.422   3.445   0.401
53313SOL     OW61835   4.170   9.322  12.505
53313SOL    HW161836   4.180   9.399  12.561
53313SOL    HW261837   4.182   9.356  12.416
53314SOL     OW61838  12.634   5.372  14.306
53314SOL    HW161839  12.583   5.449  14.280
53314SOL    HW261840  12.619   5.363  14.399
53315SOL     OW61841   3.683   4.499   5.734
53315SOL    HW161842   3.654   4.557   5.805
53315SOL    HW261843   3.759   4.454   5.770
53316SOL     OW61844   7.768   7.330   9.120
53316SOL    HW161845   7.839   7.271   9.146
53316SOL    HW261846   7.769   7.400   9.186
53317SOL     OW61847   0.085   7.401   8.643
53317SOL    HW161848   0.172   7.386   8.679
53317SOL    HW261849   0.033   7.328   8.676
53318SOL     OW61850  13.522   4.189   3.583
53318SOL    HW161851  13.532   4.117   3.521
53318SOL    HW261852  13.447   4.164   3.637
53319SOL     OW61853   6.215   6.117   1.280
53319SOL    HW161854   6.160   6.184   1.239
53319SOL    HW261855   6.183   6.111   1.370
53320SOL     OW61856  10.508  10.516   0.837
53320SOL    HW161857  10.568  10.537   0.908
53320SOL    HW261858  10.457  10.442   0.869
53321SOL     OW61859  10.948   1.869   7.710
53321SOL    HW161860  10.892   1.809   7.759
53321SOL    HW261861  10.951   1.832   7.622
53322SOL     OW61862  12.853   7.973  14.764
53322SOL    HW161863  12.883   7.914  14.695
53322SOL    HW261864  12.835   7.915  14.838
53323SOL     OW61865  12.312   2.500  12.264
53323SOL    HW161866  12.280   2.410  12.274
53323SOL    HW261867  12.374   2.512  12.336
53324SOL     OW61868   1.794  10.864   9.206
53324SOL    HW161869   1.846  10.806   9.150
53324SOL    HW261870   1.825  10.952   9.184
53325SOL     OW61871  12.457   2.511   0.934
53325SOL    HW161872  12.418   2.428   0.964
53325SOL    HW261873  12.549   2.490   0.919
53326SOL     OW61874   6.370  13.848   2.558
53326SOL    HW161875   6.423  13.768   2.564
53326SOL    HW261876   6.398  13.890   2.476
53327SOL     OW61877   5.315  12.719   7.569
53327SOL    HW161878   5.408  12.733   7.551
53327SOL    HW261879   5.294  12.784   7.635
53328SOL     OW61880  10.937   8.872   8.101
53328SOL    HW161881  10.974   8.943   8.154
53328SOL    HW261882  10.999   8.863   8.028
53329SOL     OW61883   1.241   6.667   6.221
53329SOL    HW161884   1.320   6.686   6.170
53329SOL    HW261885   1.180   6.736   6.197
53330SOL     OW61886   1.134   4.355   8.694
53330SOL    HW161887   1.202   4.405   8.738
53330SOL    HW261888   1.173   4.268   8.681
53331SOL     OW61889   9.379  13.539   7.969
53331SOL    HW161890   9.436  13.605   8.008
53331SOL    HW261891   9.438  13.481   7.922
53332SOL     OW61892   8.495   3.245   7.647
53332SOL    HW161893   8.554   3.302   7.696
53332SOL    HW261894   8.408   3.266   7.681
53333SOL     OW61895   8.140  10.160  14.721
53333SOL    HW161896   8.118  10.088  14.780
53333SOL    HW261897   8.224  10.192  14.753
53334SOL     OW61898   4.789   9.776   1.117
53334SOL    HW161899   4.766   9.710   1.182
53334SOL    HW261900   4.798   9.727   1.035
53335SOL     OW61901   6.713   2.531   0.075
53335SOL    HW161902   6.627   2.498   0.102
53335SOL    HW261903   6.697   2.621   0.049
53336SOL     OW61904   6.395   2.030   5.399
53336SOL    HW161905   6.347   2.071   5.471
53336SOL    HW261906   6.480   2.007   5.437
53337SOL     OW61907   1.240   9.049   2.002
53337SOL    HW161908   1.321   9.070   2.050
53337SOL    HW261909   1.226   8.956   2.019
53338SOL     OW61910   9.430   4.853   4.977
53338SOL    HW161911   9.382   4.772   4.960
53338SOL    HW261912   9.405   4.911   4.905
53339SOL     OW61913   6.699   7.397   4.469
53339SOL    HW161914   6.615   7.352   4.467
53339SOL    HW261915   6.751   7.348   4.533
53340SOL     OW61916   4.693   7.253   4.862
53340SOL    HW161917   4.778   7.229   4.899
53340SOL    HW261918   4.678   7.189   4.792
53341SOL     OW61919  10.858   2.895   8.564
53341SOL    HW161920  10.952   2.911   8.563
53341SOL    HW261921  10.819   2.976   8.598
53342SOL     OW61922   0.562  14.149   6.493
53342SOL    HW161923   0.555  14.215   6.424
53342SOL    HW261924   0.634  14.092   6.466
53343SOL     OW61925   4.165   6.294   1.739
53343SOL    HW161926   4.110   6.271   1.814
53343SOL    HW261927   4.233   6.227   1.738
53344SOL     OW61928  12.845   2.977   1.357
53344SOL    HW161929  12.919   3.029   1.326
53344SOL    HW261930  12.835   3.002   1.449
53345SOL     OW61931  10.657   2.693  12.458
53345SOL    HW161932  10.711   2.706  12.536
53345SOL    HW261933  10.717   2.659  12.392
53346SOL     OW61934   1.531   9.864   6.617
53346SOL    HW161935   1.446   9.903   6.640
53346SOL    HW261936   1.510   9.798   6.552
53347SOL     OW61937   8.787   4.752   7.531
53347SOL    HW161938   8.753   4.833   7.492
53347SOL    HW261939   8.827   4.781   7.613
53348SOL     OW61940  10.681  10.253  13.022
53348SOL    HW161941  10.741  10.264  12.948
53348SOL    HW261942  10.654  10.342  13.045
53349SOL     OW61943   7.458   7.036  14.762
53349SOL    HW161944   7.365   7.054  14.780
53349SOL    HW261945   7.470   7.060  14.671
53350SOL     OW61946   2.538   2.381   6.935
53350SOL    HW161947   2.554   2.428   6.854
53350SOL    HW261948   2.493   2.300   6.908
53351SOL     OW61949   4.566   7.117   6.188
53351SOL    HW161950   4.552   7.204   6.225
53351SOL    HW261951   4.655   7.093   6.214
53352SOL     OW61952   1.512   7.453  13.264
53352SOL    HW161953   1.448   7.511  13.305
53352SOL    HW261954   1.495   7.367  13.302
53353SOL     OW61955   6.509  11.919   0.979
53353SOL    HW161956   6.418  11.932   1.005
53353SOL    HW261957   6.524  11.986   0.912
53354SOL     OW61958   1.911  11.714  11.637
53354SOL    HW161959   1.949  11.630  11.662
53354SOL    HW261960   1.982  11.777  11.646
53355SOL     OW61961   2.296  10.198  13.460
53355SOL    HW161962   2.287  10.181  13.366
53355SOL    HW261963   2.371  10.257  13.467
53356SOL     OW61964  12.165   8.292   0.613
53356SOL    HW161965  12.087   8.319   0.661
53356SOL    HW261966  12.170   8.352   0.538
53357SOL     OW61967  11.884  10.769  11.127
53357SOL    HW161968  11.789  10.769  11.127
53357SOL    HW261969  11.908  10.850  11.083
53358SOL     OW61970   7.355   9.946  10.888
53358SOL    HW161971   7.386   9.932  10.977
53358SOL    HW261972   7.260   9.936  10.894
53359SOL     OW61973   1.812   4.765   9.546
53359SOL    HW161974   1.857   4.681   9.555
53359SOL    HW261975   1.882   4.830   9.544
53360SOL     OW61976   3.088   2.523  11.959
53360SOL    HW161977   3.087   2.473  11.877
53360SOL    HW261978   3.117   2.610  11.933
53361SOL     OW61979  13.096   6.983   9.706
53361SOL    HW161980  13.104   7.032   9.624
53361SOL    HW261981  13.177   7.001   9.754
53362SOL     OW61982   7.482   6.549   0.670
53362SOL    HW161983   7.488   6.633   0.625
53362SOL    HW261984   7.517   6.566   0.757
53363SOL     OW61985   5.743  10.747  14.334
53363SOL    HW161986   5.746  10.827  14.387
53363SOL    HW261987   5.692  10.685  14.385
53364SOL     OW61988  11.944   8.876   9.134
53364SOL    HW161989  11.929   8.850   9.043
53364SOL    HW261990  11.859   8.863   9.177
53365SOL     OW61991   8.848   8.191  13.513
53365SOL    HW161992   8.788   8.122  13.484
53365SOL    HW261993   8.924   8.144  13.546
53366SOL     OW61994   4.521   7.283   7.441
53366SOL    HW161995   4.438   7.283   7.393
53366SOL    HW261996   4.496   7.299   7.532
53367SOL     OW61997   2.890   6.872   5.944
53367SOL    HW161998   2.856   6.815   5.875
53367SOL    HW261999   2.833   6.857   6.019
53368SOL     OW62000  11.911   8.058   5.044
53368SOL    HW162001  11.939   8.122   4.980
53368SOL    HW262002  11.936   8.095   5.129
53369SOL     OW62003   9.780   3.718  12.557
53369SOL    HW162004   9.823   3.650  12.505
53369SOL    HW262005   9.714   3.755  12.498
53370SOL     OW62006   7.212  10.335  10.777
53370SOL    HW162007   7.219  10.346  10.682
53370SOL    HW262008   7.303  10.324  10.806
53371SOL     OW62009   9.030   6.465  12.282
53371SOL    HW162010   8.992   6.454  12.195
53371SOL    HW262011   9.104   6.525  12.269
53372SOL     OW62012   0.817   9.531   0.436
53372SOL    HW162013   0.881   9.560   0.371
53372SOL    HW262014   0.820   9.435   0.431
53373SOL     OW62015   8.438  10.067   7.954
53373SOL    HW162016   8.518  10.021   7.928
53373SOL    HW262017   8.447  10.154   7.915
53374SOL     OW62018   7.981  13.547   7.067
53374SOL    HW162019   7.888  13.563   7.055
53374SOL    HW262020   8.013  13.520   6.981
53375SOL     OW62021  13.459  13.301  10.540
53375SOL    HW162022  13.555  13.296  10.537
53375SOL    HW262023  13.432  13.216  10.573
53376SOL     OW62024   0.176  13.856   8.436
53376SOL    HW162025   0.269  13.878   8.422
53376SOL    HW262026   0.169  13.765   8.407
53377SOL     OW62027  12.901  11.723  10.418
53377SOL    HW162028  12.902  11.653  10.483
53377SOL    HW262029  12.823  11.704  10.365
53378SOL     OW62030   1.147  11.797   1.068
53378SOL    HW162031   1.211  11.743   1.115
53378SOL    HW262032   1.194  11.878   1.048
53379SOL     OW62033   3.465   2.343   8.798
53379SOL    HW162034   3.533   2.276   8.802
53379SOL    HW262035   3.393   2.308   8.849
53380SOL     OW62036   3.281   1.971   7.822
53380SOL    HW162037   3.298   1.878   7.803
53380SOL    HW262038   3.209   1.994   7.765
53381SOL     OW62039   8.826   7.658  11.667
53381SOL    HW162040   8.831   7.741  11.714
53381SOL    HW262041   8.737   7.626  11.684
53382SOL     OW62042   5.684  11.670   5.312
53382SOL    HW162043   5.611  11.645   5.256
53382SOL    HW262044   5.679  11.765   5.319
53383SOL     OW62045   1.926  13.699   8.726
53383SOL    HW162046   1.937  13.653   8.810
53383SOL    HW262047   1.975  13.780   8.736
53384SOL     OW62048   0.448   2.901   4.349
53384SOL    HW162049   0.415   2.849   4.422
53384SOL    HW262050   0.521   2.950   4.385
53385SOL     OW62051  14.469   5.090   0.694
53385SOL    HW162052  14.474   5.069   0.787
53385SOL    HW262053  14.510   5.176   0.686
53386SOL     OW62054  10.904   2.807   3.265
53386SOL    HW162055  10.842   2.879   3.282
53386SOL    HW262056  10.850   2.728   3.268
53387SOL     OW62057   9.788   3.106   8.168
53387SOL    HW162058   9.878   3.129   8.142
53387SOL    HW262059   9.779   3.143   8.256
53388SOL     OW62060  13.827   0.919   1.445
53388SOL    HW162061  13.739   0.956   1.453
53388SOL    HW262062  13.868   0.933   1.530
53389SOL     OW62063   7.980   2.672  13.602
53389SOL    HW162064   8.053   2.712  13.554
53389SOL    HW262065   7.970   2.726  13.680
53390SOL     OW62066   9.466   5.513  14.071
53390SOL    HW162067   9.555   5.517  14.108
53390SOL    HW262068   9.442   5.604  14.055
53391SOL     OW62069   6.855   6.382   7.514
53391SOL    HW162070   6.886   6.293   7.496
53391SOL    HW262071   6.922   6.420   7.570
53392SOL     OW62072  14.539  13.282  10.937
53392SOL    HW162073  14.591  13.300  11.015
53392SOL    HW262074  14.503  13.368  10.912
53393SOL     OW62075  12.530   4.796   5.526
53393SOL    HW162076  12.497   4.866   5.581
53393SOL    HW262077  12.517   4.716   5.577
53394SOL     OW62078   1.876   1.678   4.536
53394SOL    HW162079   1.942   1.709   4.598
53394SOL    HW262080   1.924   1.667   4.454
53395SOL     OW62081  14.813  10.574   3.495
53395SOL    HW162082   0.027  10.529   3.483
53395SOL    HW262083  14.835  10.667   3.494
53396SOL     OW62084  12.510   7.581  11.102
53396SOL    HW162085  12.447   7.652  11.119
53396SOL    HW262086  12.595   7.619  11.126
53397SOL     OW62087  11.951   2.802   4.575
53397SOL    HW162088  11.857   2.817   4.565
53397SOL    HW262089  11.991   2.848   4.501
53398SOL     OW62090  11.364  13.160  10.273
53398SOL    HW162091  11.365  13.102  10.197
53398SOL    HW262092  11.438  13.218  10.259
53399SOL     OW62093   8.902   2.975  11.233
53399SOL    HW162094   8.928   3.049  11.178
53399SOL    HW262095   8.822   2.942  11.193
53400SOL     OW62096  10.323  10.861   5.547
53400SOL    HW162097  10.333  10.816   5.463
53400SOL    HW262098  10.320  10.792   5.612
53401SOL     OW62099  14.782   1.766   0.425
53401SOL    HW162100  14.859   1.813   0.457
53401SOL    HW262101  14.710   1.802   0.477
53402SOL     OW62102   7.649  10.752   9.115
53402SOL    HW162103   7.671  10.810   9.188
53402SOL    HW262104   7.710  10.679   9.124
53403SOL     OW62105  12.391   4.583  14.813
53403SOL    HW162106  12.483   4.605  14.828
53403SOL    HW262107  12.344   4.663  14.838
53404SOL     OW62108   2.914   9.191  13.241
53404SOL    HW162109   2.907   9.193  13.337
53404SOL    HW262110   2.923   9.098  13.220
53405SOL     OW62111   3.534   8.398  10.753
53405SOL    HW162112   3.552   8.405  10.659
53405SOL    HW262113   3.458   8.453  10.767
53406SOL     OW62114  12.904  13.305   5.707
53406SOL    HW162115  12.920  13.235   5.644
53406SOL    HW262116  12.809  13.309   5.716
53407SOL     OW62117   6.349   5.783   9.445
53407SOL    HW162118   6.398   5.703   9.464
53407SOL    HW262119   6.259   5.753   9.433
53408SOL     OW62120   3.117   6.907  13.176
53408SOL    HW162121   3.170   6.985  13.191
53408SOL    HW262122   3.181   6.837  13.161
53409SOL     OW62123   2.067   4.067  10.260
53409SOL    HW162124   2.085   4.152  10.221
53409SOL    HW262125   2.035   4.013  10.188
53410SOL     OW62126   7.529   6.117   3.996
53410SOL    HW162127   7.517   6.022   3.988
53410SOL    HW262128   7.599   6.126   4.060
53411SOL     OW62129   5.224   8.059   2.430
53411SOL    HW162130   5.143   8.107   2.414
53411SOL    HW262131   5.223   7.987   2.367
53412SOL     OW62132   9.944  10.568  13.563
53412SOL    HW162133   9.953  10.653  13.520
53412SOL    HW262134   9.881  10.520  13.509
53413SOL     OW62135   4.368   1.215   6.873
53413SOL    HW162136   4.447   1.258   6.840
53413SOL    HW262137   4.332   1.169   6.797
53414SOL     OW62138  13.789   6.396  10.272
53414SOL    HW162139  13.839   6.388  10.353
53414SOL    HW262140  13.701   6.366  10.294
53415SOL     OW62141  12.923  10.749  12.872
53415SOL    HW162142  12.870  10.687  12.821
53415SOL    HW262143  12.994  10.774  12.812
53416SOL     OW62144  11.168  11.289   0.480
53416SOL    HW162145  11.185  11.208   0.432
53416SOL    HW262146  11.233  11.351   0.446
53417SOL     OW62147   5.983   6.096   8.856
53417SOL    HW162148   6.076   6.108   8.836
53417SOL    HW262149   5.939   6.172   8.818
53418SOL     OW62150   9.289  14.591   3.089
53418SOL    HW162151   9.318  14.632   3.171
53418SOL    HW262152   9.201  14.559   3.108
53419SOL     OW62153  12.488   1.085  10.581
53419SOL    HW162154  12.563   1.045  10.623
53419SOL    HW262155  12.521   1.167  10.545
53420SOL     OW62156   1.326   2.876   3.136
53420SOL    HW162157   1.365   2.804   3.186
53420SOL    HW262158   1.370   2.873   3.051
53421SOL     OW62159   2.674   5.372  13.155
53421SOL    HW162160   2.711   5.290  13.188
53421SOL    HW262161   2.586   5.375  13.192
53422SOL     OW62162   0.293   9.049   7.039
53422SOL    HW162163   0.244   9.058   6.957
53422SOL    HW262164   0.257   9.117   7.095
53423SOL     OW62165   7.366  12.687   1.836
53423SOL    HW162166   7.438  12.738   1.798
53423SOL    HW262167   7.287  12.735   1.810
53424SOL     OW62168   9.090   4.948   6.539
53424SOL    HW162169   9.131   4.964   6.454
53424SOL    HW262170   8.998   4.970   6.526
53425SOL     OW62171  10.556   8.374   8.947
53425SOL    HW162172  10.588   8.314   8.880
53425SOL    HW262173  10.581   8.333   9.030
53426SOL     OW62174  11.715   4.144  13.228
53426SOL    HW162175  11.697   4.233  13.199
53426SOL    HW262176  11.657   4.130  13.303
53427SOL     OW62177   3.096  11.074   4.552
53427SOL    HW162178   3.186  11.052   4.576
53427SOL    HW262179   3.042  11.018   4.607
53428SOL     OW62180  13.366   7.435   6.134
53428SOL    HW162181  13.279   7.452   6.097
53428SOL    HW262182  13.348   7.397   6.220
53429SOL     OW62183   8.570   3.586   4.940
53429SOL    HW162184   8.521   3.666   4.962
53429SOL    HW262185   8.578   3.539   5.023
53430SOL     OW62186  13.117   7.709   4.367
53430SOL    HW162187  13.092   7.764   4.441
53430SOL    HW262188  13.172   7.765   4.312
53431SOL     OW62189   1.496  12.971   8.129
53431SOL    HW162190   1.521  12.879   8.132
53431SOL    HW262191   1.471  12.992   8.219
53432SOL     OW62192   3.686  10.142   5.179
53432SOL    HW162193   3.625  10.071   5.199
53432SOL    HW262194   3.770  10.114   5.215
53433SOL     OW62195   0.663   4.403  13.578
53433SOL    HW162196   0.725   4.419  13.507
53433SOL    HW262197   0.698   4.451  13.653
53434SOL     OW62198  11.852  13.032   0.046
53434SOL    HW162199  11.871  12.955   0.099
53434SOL    HW262200  11.924  13.092   0.065
53435SOL     OW62201   1.040   5.527   4.382
53435SOL    HW162202   1.101   5.598   4.358
53435SOL    HW262203   0.984   5.517   4.306
53436SOL     OW62204   4.793   8.638   7.250
53436SOL    HW162205   4.718   8.659   7.305
53436SOL    HW262206   4.865   8.624   7.312
53437SOL     OW62207   7.185   9.505   7.072
53437SOL    HW162208   7.134   9.583   7.090
53437SOL    HW262209   7.120   9.439   7.046
53438SOL     OW62210   2.831   0.885   3.660
53438SOL    HW162211   2.923   0.901   3.680
53438SOL    HW262212   2.791   0.865   3.745
53439SOL     OW62213   0.176   3.964   3.688
53439SOL    HW162214   0.251   3.928   3.735
53439SOL    HW262215   0.123   3.888   3.663
53440SOL     OW62216   7.364   9.455  13.129
53440SOL    HW162217   7.363   9.368  13.169
53440SOL    HW262218   7.280   9.461  13.084
53441SOL     OW62219   0.105   9.445   1.010
53441SOL    HW162220   0.024   9.484   0.979
53441SOL    HW262221   0.122   9.488   1.094
53442SOL     OW62222   2.266  12.984   4.651
53442SOL    HW162223   2.338  13.047   4.659
53442SOL    HW262224   2.211  13.019   4.581
53443SOL     OW62225  14.814   6.021   3.902
53443SOL    HW162226  14.869   5.944   3.914
53443SOL    HW262227  14.857   6.090   3.951
53444SOL     OW62228  14.368   3.201  10.906
53444SOL    HW162229  14.272   3.202  10.909
53444SOL    HW262230  14.393   3.290  10.882
53445SOL     OW62231   4.541   8.007  14.593
53445SOL    HW162232   4.592   8.085  14.613
53445SOL    HW262233   4.454   8.041  14.570
53446SOL     OW62234   2.488  12.107   3.699
53446SOL    HW162235   2.561  12.139   3.645
53446SOL    HW262236   2.451  12.035   3.649
53447SOL     OW62237  10.833  10.726  12.355
53447SOL    HW162238  10.858  10.777  12.432
53447SOL    HW262239  10.881  10.644  12.364
53448SOL     OW62240  12.564   5.763   3.845
53448SOL    HW162241  12.652   5.767   3.882
53448SOL    HW262242  12.516   5.833   3.889
53449SOL     OW62243   0.116   0.542   6.928
53449SOL    HW162244   0.211   0.549   6.918
53449SOL    HW262245   0.097   0.580   7.014
53450SOL     OW62246   5.229   5.344   7.748
53450SOL    HW162247   5.321   5.368   7.753
53450SOL    HW262248   5.191   5.402   7.683
53451SOL     OW62249   6.843  11.659  11.672
53451SOL    HW162250   6.764  11.605  11.666
53451SOL    HW262251   6.872  11.648  11.762
53452SOL     OW62252   1.284  11.839  13.322
53452SOL    HW162253   1.337  11.915  13.298
53452SOL    HW262254   1.306  11.822  13.414
53453SOL     OW62255   0.118  10.749  14.254
53453SOL    HW162256   0.027  10.733  14.279
53453SOL    HW262257   0.169  10.713  14.327
53454SOL     OW62258   3.994  10.809   4.275
53454SOL    HW162259   3.904  10.825   4.245
53454SOL    HW262260   4.049  10.842   4.203
53455SOL     OW62261   9.973   9.242   8.353
53455SOL    HW162262   9.961   9.180   8.424
53455SOL    HW262263  10.067   9.252   8.344
53456SOL     OW62264   8.384   1.794   2.805
53456SOL    HW162265   8.421   1.829   2.887
53456SOL    HW262266   8.456   1.746   2.765
53457SOL     OW62267  10.977   2.065   1.243
53457SOL    HW162268  10.931   2.117   1.177
53457SOL    HW262269  10.930   2.084   1.325
53458SOL     OW62270   8.756  10.754   7.951
53458SOL    HW162271   8.814  10.713   7.887
53458SOL    HW262272   8.669  10.749   7.912
53459SOL     OW62273   7.972  13.592  10.788
53459SOL    HW162274   8.024  13.572  10.866
53459SOL    HW262275   7.990  13.684  10.770
53460SOL     OW62276   9.503   3.545  11.058
53460SOL    HW162277   9.545   3.623  11.022
53460SOL    HW262278   9.547   3.530  11.142
53461SOL     OW62279   7.267   4.481  10.757
53461SOL    HW162280   7.348   4.435  10.734
53461SOL    HW262281   7.198   4.430  10.715
53462SOL     OW62282   6.524  12.133  12.532
53462SOL    HW162283   6.494  12.044  12.550
53462SOL    HW262284   6.444  12.184  12.522
53463SOL     OW62285   5.475   7.600   9.972
53463SOL    HW162286   5.386   7.596   9.936
53463SOL    HW262287   5.522   7.531   9.925
53464SOL     OW62288   0.436   3.774   5.854
53464SOL    HW162289   0.475   3.828   5.785
53464SOL    HW262290   0.477   3.688   5.843
53465SOL     OW62291   6.341  13.690   2.062
53465SOL    HW162292   6.371  13.766   2.113
53465SOL    HW262293   6.246  13.704   2.054
53466SOL     OW62294   4.037  14.484   6.800
53466SOL    HW162295   4.126  14.501   6.829
53466SOL    HW262296   4.034  14.390   6.784
53467SOL     OW62297  13.497   8.836   6.919
53467SOL    HW162298  13.407   8.805   6.930
53467SOL    HW262299  13.490   8.913   6.863
53468SOL     OW62300  10.782  13.127  11.068
53468SOL    HW162301  10.793  13.202  11.010
53468SOL    HW262302  10.688  13.116  11.076
53469SOL     OW62303   1.608   4.010   7.791
53469SOL    HW162304   1.631   4.101   7.773
53469SOL    HW262305   1.686   3.960   7.769
53470SOL     OW62306  13.083   0.173  11.633
53470SOL    HW162307  13.030   0.208  11.562
53470SOL    HW262308  13.138   0.105  11.592
53471SOL     OW62309   2.265  14.168   9.248
53471SOL    HW162310   2.229  14.223   9.317
53471SOL    HW262311   2.215  14.086   9.254
53472SOL     OW62312   3.567  14.546   3.984
53472SOL    HW162313   3.592  14.458   4.012
53472SOL    HW262314   3.650  14.586   3.956
53473SOL     OW62315   5.504   8.495   9.917
53473SOL    HW162316   5.491   8.420   9.974
53473SOL    HW262317   5.569   8.466   9.853
53474SOL     OW62318   4.733   4.531   6.707
53474SOL    HW162319   4.638   4.536   6.698
53474SOL    HW262320   4.764   4.515   6.618
53475SOL     OW62321   8.785  11.264   6.830
53475SOL    HW162322   8.820  11.208   6.760
53475SOL    HW262323   8.755  11.202   6.897
53476SOL     OW62324   6.454   8.514   1.677
53476SOL    HW162325   6.469   8.587   1.737
53476SOL    HW262326   6.361   8.493   1.687
53477SOL     OW62327   3.523   6.703  12.291
53477SOL    HW162328   3.451   6.752  12.332
53477SOL    HW262329   3.482   6.624  12.257
53478SOL     OW62330   0.686   5.790  11.340
53478SOL    HW162331   0.745   5.735  11.289
53478SOL    HW262332   0.600   5.777  11.300
53479SOL     OW62333   1.612  10.861  12.226
53479SOL    HW162334   1.547  10.791  12.228
53479SOL    HW262335   1.562  10.940  12.247
53480SOL     OW62336  14.546   8.163   3.463
53480SOL    HW162337  14.524   8.122   3.379
53480SOL    HW262338  14.543   8.257   3.445
53481SOL     OW62339   4.317   6.394  10.053
53481SOL    HW162340   4.406   6.415  10.082
53481SOL    HW262341   4.263   6.409  10.131
53482SOL     OW62342   1.905   6.277   4.297
53482SOL    HW162343   1.928   6.291   4.389
53482SOL    HW262344   1.982   6.234   4.260
53483SOL     OW62345   9.767   2.393   3.160
53483SOL    HW162346   9.681   2.403   3.200
53483SOL    HW262347   9.819   2.464   3.198
53484SOL     OW62348  12.463  11.512   3.964
53484SOL    HW162349  12.540  11.557   3.930
53484SOL    HW262350  12.399  11.581   3.979
53485SOL     OW62351   9.784  14.193  12.128
53485SOL    HW162352   9.873  14.180  12.163
53485SOL    HW262353   9.790  14.163  12.037
53486SOL     OW62354   2.249  11.466  11.128
53486SOL    HW162355   2.337  11.447  11.158
53486SOL    HW262356   2.229  11.397  11.064
53487SOL     OW62357   1.521   5.698   1.730
53487SOL    HW162358   1.496   5.790   1.741
53487SOL    HW262359   1.599   5.687   1.785
53488SOL     OW62360  13.595  12.455  13.733
53488SOL    HW162361  13.542  12.421  13.661
53488SOL    HW262362  13.655  12.516  13.692
53489SOL     OW62363   6.265  13.411   5.286
53489SOL    HW162364   6.171  13.399   5.274
53489SOL    HW262365   6.297  13.442   5.201
53490SOL     OW62366  14.554   3.513   7.970
53490SOL    HW162367  14.469   3.471   7.957
53490SOL    HW262368  14.574   3.498   8.063
53491SOL     OW62369   6.499   2.175   1.400
53491SOL    HW162370   6.501   2.256   1.451
53491SOL    HW262371   6.483   2.203   1.311
53492SOL     OW62372   3.671   7.866   3.348
53492SOL    HW162373   3.624   7.860   3.265
53492SOL    HW262374   3.757   7.901   3.324
53493SOL     OW62375  11.059   7.449   0.494
53493SOL    HW162376  11.083   7.463   0.403
53493SOL    HW262377  11.016   7.530   0.521
53494SOL     OW62378  10.956   6.241   3.431
53494SOL    HW162379  10.954   6.272   3.340
53494SOL    HW262380  10.874   6.193   3.443
53495SOL     OW62381  14.864  11.987   1.646
53495SOL    HW162382  14.837  11.908   1.600
53495SOL    HW262383  14.783  12.024   1.681
53496SOL     OW62384  13.570   5.523   2.210
53496SOL    HW162385  13.577   5.567   2.295
53496SOL    HW262386  13.506   5.454   2.225
53497SOL     OW62387  11.122   9.139   0.419
53497SOL    HW162388  11.057   9.076   0.450
53497SOL    HW262389  11.202   9.116   0.466
53498SOL     OW62390   4.074  10.614   7.213
53498SOL    HW162391   4.031  10.691   7.175
53498SOL    HW262392   4.058  10.623   7.307
53499SOL     OW62393  14.693   5.332   2.502
53499SOL    HW162394  14.611   5.315   2.455
53499SOL    HW262395  14.752   5.262   2.473
53500SOL     OW62396   0.795   4.212   9.128
53500SOL    HW162397   0.750   4.130   9.145
53500SOL    HW262398   0.864   4.189   9.065
53501SOL     OW62399   2.508   6.959   3.240
53501SOL    HW162400   2.435   6.913   3.199
53501SOL    HW262401   2.467   7.024   3.297
53502SOL     OW62402   4.496  13.940   7.975
53502SOL    HW162403   4.467  13.876   7.911
53502SOL    HW262404   4.447  13.919   8.055
53503SOL     OW62405  13.443  12.107  12.457
53503SOL    HW162406  13.443  12.112  12.552
53503SOL    HW262407  13.364  12.059  12.435
53504SOL     OW62408   6.878   3.331   9.587
53504SOL    HW162409   6.939   3.318   9.514
53504SOL    HW262410   6.913   3.277   9.658
53505SOL     OW62411   4.442   9.871   9.116
53505SOL    HW162412   4.448   9.944   9.178
53505SOL    HW262413   4.529   9.866   9.077
53506SOL     OW62414   0.452   5.739  14.315
53506SOL    HW162415   0.518   5.713  14.379
53506SOL    HW262416   0.500   5.741  14.232
53507SOL     OW62417  13.795   0.011  11.288
53507SOL    HW162418  13.734  14.840  11.350
53507SOL    HW262419  13.771  14.842  11.203
53508SOL     OW62420   8.176  11.264   8.594
53508SOL    HW162421   8.113  11.307   8.653
53508SOL    HW262422   8.256  11.258   8.646
53509SOL     OW62423  12.193   6.468   2.473
53509SOL    HW162424  12.258   6.524   2.429
53509SOL    HW262425  12.148   6.423   2.401
53510SOL     OW62426   1.939   5.938   0.186
53510SOL    HW162427   1.979   6.008   0.237
53510SOL    HW262428   1.994   5.861   0.202
53511SOL     OW62429  14.770  10.219   4.231
53511SOL    HW162430  14.788  10.271   4.153
53511SOL    HW262431  14.800  10.275   4.304
53512SOL     OW62432   9.259   6.242   8.801
53512SOL    HW162433   9.344   6.241   8.846
53512SOL    HW262434   9.237   6.149   8.790
53513SOL     OW62435   6.382  12.657   3.734
53513SOL    HW162436   6.367  12.571   3.773
53513SOL    HW262437   6.443  12.640   3.662
53514SOL     OW62438   3.832  14.611   9.443
53514SOL    HW162439   3.785  14.534   9.476
53514SOL    HW262440   3.775  14.646   9.375
53515SOL     OW62441  13.335   4.266   8.841
53515SOL    HW162442  13.256   4.315   8.864
53515SOL    HW262443  13.404   4.302   8.898
53516SOL     OW62444   8.200   3.247   9.847
53516SOL    HW162445   8.197   3.270   9.940
53516SOL    HW262446   8.294   3.235   9.829
53517SOL     OW62447   8.251   2.164  10.293
53517SOL    HW162448   8.227   2.256  10.280
53517SOL    HW262449   8.170   2.116  10.274
53518SOL     OW62450  12.758   8.885   1.413
53518SOL    HW162451  12.795   8.848   1.333
53518SOL    HW262452  12.767   8.980   1.403
53519SOL     OW62453   0.950  13.184   4.471
53519SOL    HW162454   0.947  13.267   4.518
53519SOL    HW262455   0.899  13.124   4.526
53520SOL     OW62456   8.588   6.621   8.111
53520SOL    HW162457   8.495   6.614   8.132
53520SOL    HW262458   8.595   6.699   8.057
53521SOL     OW62459  11.359   6.549  12.566
53521SOL    HW162460  11.412   6.552  12.486
53521SOL    HW262461  11.383   6.466  12.607
53522SOL     OW62462   4.850   3.075   4.119
53522SOL    HW162463   4.800   3.146   4.079
53522SOL    HW262464   4.918   3.055   4.055
53523SOL     OW62465   9.031  12.510   2.870
53523SOL    HW162466   8.989  12.565   2.936
53523SOL    HW262467   8.959  12.481   2.814
53524SOL     OW62468  11.938   2.059  14.389
53524SOL    HW162469  11.873   2.052  14.459
53524SOL    HW262470  11.947   1.970  14.355
53525SOL     OW62471  10.412   7.155  10.662
53525SOL    HW162472  10.493   7.188  10.702
53525SOL    HW262473  10.419   7.177  10.570
53526SOL     OW62474   0.733   5.312   4.450
53526SOL    HW162475   0.776   5.309   4.536
53526SOL    HW262476   0.797   5.274   4.390
53527SOL     OW62477   0.056  12.123   9.670
53527SOL    HW162478  14.842  12.150   9.709
53527SOL    HW262479   0.103  12.082   9.743
53528SOL     OW62480   4.531   5.592   6.469
53528SOL    HW162481   4.525   5.644   6.389
53528SOL    HW262482   4.441   5.564   6.485
53529SOL     OW62483   1.334  10.679  10.089
53529SOL    HW162484   1.360  10.734  10.163
53529SOL    HW262485   1.296  10.601  10.129
53530SOL     OW62486   9.407   8.515   4.242
53530SOL    HW162487   9.413   8.442   4.304
53530SOL    HW262488   9.457   8.485   4.165
53531SOL     OW62489  10.321   6.887   5.014
53531SOL    HW162490  10.343   6.942   4.938
53531SOL    HW262491  10.242   6.928   5.050
53532SOL     OW62492   4.226   8.134  12.967
53532SOL    HW162493   4.203   8.106  13.056
53532SOL    HW262494   4.250   8.052  12.923
53533SOL     OW62495   4.257   5.857   4.625
53533SOL    HW162496   4.203   5.779   4.637
53533SOL    HW262497   4.344   5.823   4.606
53534SOL     OW62498   9.965   5.970   2.048
53534SOL    HW162499   9.888   5.957   2.102
53534SOL    HW262500  10.033   5.917   2.090
53535SOL     OW62501  10.281   6.055  14.056
53535SOL    HW162502  10.192   6.076  14.085
53535SOL    HW262503  10.333   6.132  14.078
53536SOL     OW62504   2.604  14.752  14.449
53536SOL    HW162505   2.570  14.710  14.527
53536SOL    HW262506   2.591  14.845  14.464
53537SOL     OW62507   6.937   6.176   6.043
53537SOL    HW162508   6.967   6.087   6.061
53537SOL    HW262509   6.867   6.165   5.978
53538SOL     OW62510  12.934  11.609   5.197
53538SOL    HW162511  12.947  11.520   5.229
53538SOL    HW262512  13.022  11.643   5.183
53539SOL     OW62513   6.606   9.971  12.335
53539SOL    HW162514   6.570   9.920  12.263
53539SOL    HW262515   6.548   9.953  12.409
53540SOL     OW62516  14.693   8.053   7.668
53540SOL    HW162517  14.717   7.961   7.684
53540SOL    HW262518  14.705   8.065   7.574
53541SOL     OW62519   4.120   2.627  10.243
53541SOL    HW162520   4.089   2.674  10.165
53541SOL    HW262521   4.214   2.618  10.230
53542SOL     OW62522   9.716   4.849   8.241
53542SOL    HW162523   9.649   4.916   8.223
53542SOL    HW262524   9.775   4.891   8.304
53543SOL     OW62525   6.184   8.950  11.771
53543SOL    HW162526   6.252   8.946  11.838
53543SOL    HW262527   6.220   8.902  11.696
53544SOL     OW62528   5.827   1.616  13.510
53544SOL    HW162529   5.781   1.532  13.514
53544SOL    HW262530   5.781   1.671  13.574
53545SOL     OW62531   7.061   2.116   5.344
53545SOL    HW162532   6.988   2.067   5.306
53545SOL    HW262533   7.046   2.207   5.316
53546SOL     OW62534  10.367   3.166   1.315
53546SOL    HW162535  10.278   3.186   1.344
53546SOL    HW262536  10.397   3.245   1.272
53547SOL     OW62537  10.422   1.561  13.001
53547SOL    HW162538  10.480   1.636  12.990
53547SOL    HW262539  10.429   1.538  13.093
53548SOL     OW62540   4.696   9.397   0.685
53548SOL    HW162541   4.706   9.489   0.660
53548SOL    HW262542   4.603   9.378   0.671
53549SOL     OW62543  10.000   5.894  13.748
53549SOL    HW162544  10.042   5.810  13.762
53549SOL    HW262545  10.029   5.948  13.822
53550SOL     OW62546   5.735  10.719   7.231
53550SOL    HW162547   5.723  10.743   7.323
53550SOL    HW262548   5.826  10.743   7.211
53551SOL     OW62549   7.642   6.234  13.619
53551SOL    HW162550   7.640   6.141  13.644
53551SOL    HW262551   7.695   6.237  13.540
53552SOL     OW62552   7.030   5.168   5.066
53552SOL    HW162553   7.076   5.213   4.996
53552SOL    HW262554   6.990   5.237   5.118
53553SOL     OW62555  11.068   6.980   6.518
53553SOL    HW162556  11.096   6.915   6.454
53553SOL    HW262557  11.072   7.063   6.471
53554SOL     OW62558  10.716   4.945  10.212
53554SOL    HW162559  10.752   5.005  10.148
53554SOL    HW262560  10.704   4.862  10.164
53555SOL     OW62561  13.120   1.996   8.657
53555SOL    HW162562  13.164   2.076   8.686
53555SOL    HW262563  13.123   2.000   8.562
53556SOL     OW62564   3.098   8.918   7.441
53556SOL    HW162565   3.110   8.826   7.461
53556SOL    HW262566   3.128   8.928   7.351
53557SOL     OW62567   2.220   2.247  11.672
53557SOL    HW162568   2.215   2.156  11.700
53557SOL    HW262569   2.200   2.244  11.578
53558SOL     OW62570  14.557   8.605   8.307
53558SOL    HW162571  14.565   8.525   8.358
53558SOL    HW262572  14.483   8.589   8.248
53559SOL     OW62573   6.248   5.213   7.935
53559SOL    HW162574   6.309   5.257   7.875
53559SOL    HW262575   6.298   5.141   7.972
53560SOL     OW62576  14.440  10.931   7.711
53560SOL    HW162577  14.513  10.954   7.653
53560SOL    HW262578  14.481  10.888   7.786
53561SOL     OW62579  10.817  10.723  14.490
53561SOL    HW162580  10.869  10.643  14.501
53561SOL    HW262581  10.875  10.793  14.521
53562SOL     OW62582   6.729   2.564  14.550
53562SOL    HW162583   6.783   2.627  14.502
53562SOL    HW262584   6.789   2.492  14.571
53563SOL     OW62585   9.114   0.358   6.720
53563SOL    HW162586   9.105   0.442   6.674
53563SOL    HW262587   9.181   0.374   6.787
53564SOL     OW62588   3.737   5.120   2.420
53564SOL    HW162589   3.785   5.192   2.462
53564SOL    HW262590   3.749   5.046   2.479
53565SOL     OW62591   5.108  14.418  13.293
53565SOL    HW162592   5.160  14.498  13.298
53565SOL    HW262593   5.019  14.448  13.273
53566SOL     OW62594  12.948   0.478   6.984
53566SOL    HW162595  12.881   0.412   6.966
53566SOL    HW262596  12.923   0.515   7.069
53567SOL     OW62597   2.781  10.421  12.497
53567SOL    HW162598   2.805  10.404  12.406
53567SOL    HW262599   2.864  10.423  12.545
53568SOL     OW62600   1.578  10.135  10.230
53568SOL    HW162601   1.538  10.174  10.152
53568SOL    HW262602   1.553  10.194  10.301
53569SOL     OW62603   8.271   5.486   5.601
53569SOL    HW162604   8.209   5.416   5.619
53569SOL    HW262605   8.296   5.473   5.509
53570SOL     OW62606   0.651   1.295  11.116
53570SOL    HW162607   0.667   1.279  11.023
53570SOL    HW262608   0.648   1.390  11.124
53571SOL     OW62609   3.319  10.097  11.556
53571SOL    HW162610   3.363  10.153  11.621
53571SOL    HW262611   3.390  10.061  11.503
53572SOL     OW62612  14.709  10.683  10.995
53572SOL    HW162613  14.682  10.699  10.905
53572SOL    HW262614  14.733  10.770  11.028
53573SOL     OW62615   7.963   9.182   0.531
53573SOL    HW162616   8.011   9.202   0.450
53573SOL    HW262617   7.879   9.226   0.521
53574SOL     OW62618   4.744   9.916   0.752
53574SOL    HW162619   4.731   9.944   0.843
53574SOL    HW262620   4.703   9.985   0.700
53575SOL     OW62621   8.094  12.664  14.472
53575SOL    HW162622   8.053  12.661  14.386
53575SOL    HW262623   8.074  12.752  14.505
53576SOL     OW62624  12.453  10.717   9.796
53576SOL    HW162625  12.498  10.728   9.880
53576SOL    HW262626  12.522  10.687   9.736
53577SOL     OW62627  13.649   6.902  10.593
53577SOL    HW162628  13.688   6.825  10.552
53577SOL    HW262629  13.572   6.921  10.540
53578SOL     OW62630   1.969   4.825   5.390
53578SOL    HW162631   2.022   4.849   5.313
53578SOL    HW262632   2.028   4.838   5.464
53579SOL     OW62633   1.668   9.839   5.996
53579SOL    HW162634   1.708   9.763   5.954
53579SOL    HW262635   1.704   9.838   6.085
53580SOL     OW62636  12.221  13.774   7.642
53580SOL    HW162637  12.261  13.729   7.716
53580SOL    HW262638  12.191  13.703   7.585
53581SOL     OW62639   9.860  10.240   4.935
53581SOL    HW162640   9.929  10.279   4.882
53581SOL    HW262641   9.886  10.148   4.944
53582SOL     OW62642   1.819  11.117  13.520
53582SOL    HW162643   1.782  11.204  13.537
53582SOL    HW262644   1.799  11.067  13.599
53583SOL     OW62645  14.226   1.680   0.785
53583SOL    HW162646  14.272   1.758   0.754
53583SOL    HW262647  14.133   1.705   0.783
53584SOL     OW62648  12.624   0.975   6.071
53584SOL    HW162649  12.653   0.884   6.068
53584SOL    HW262650  12.647   1.011   5.985
53585SOL     OW62651   0.360   3.478  11.553
53585SOL    HW162652   0.351   3.569  11.525
53585SOL    HW262653   0.296   3.467  11.623
53586SOL     OW62654   4.359   6.506  10.770
53586SOL    HW162655   4.282   6.523  10.824
53586SOL    HW262656   4.433   6.513  10.830
53587SOL     OW62657  13.833  10.844   6.543
53587SOL    HW162658  13.739  10.852   6.527
53587SOL    HW262659  13.864  10.934   6.551
53588SOL     OW62660   6.672   7.230   5.116
53588SOL    HW162661   6.742   7.198   5.173
53588SOL    HW262662   6.639   7.151   5.072
53589SOL     OW62663   0.002   3.991  13.218
53589SOL    HW162664   0.014   4.048  13.142
53589SOL    HW262665   0.063   3.919  13.202
53590SOL     OW62666  11.147   5.517  13.811
53590SOL    HW162667  11.238   5.535  13.834
53590SOL    HW262668  11.128   5.434  13.853
53591SOL     OW62669   4.130   0.269   0.624
53591SOL    HW162670   4.055   0.264   0.683
53591SOL    HW262671   4.202   0.303   0.678
53592SOL     OW62672  12.372   0.793   4.332
53592SOL    HW162673  12.304   0.850   4.296
53592SOL    HW262674  12.341   0.771   4.420
53593SOL     OW62675  10.786   0.874   8.576
53593SOL    HW162676  10.836   0.913   8.504
53593SOL    HW262677  10.850   0.860   8.645
53594SOL     OW62678   5.432  11.325   6.181
53594SOL    HW162679   5.418  11.249   6.237
53594SOL    HW262680   5.347  11.342   6.141
53595SOL     OW62681  13.104  13.138   6.952
53595SOL    HW162682  13.130  13.153   7.043
53595SOL    HW262683  13.080  13.224   6.919
53596SOL     OW62684   9.152   1.959   7.890
53596SOL    HW162685   9.186   2.028   7.833
53596SOL    HW262686   9.080   1.921   7.840
53597SOL     OW62687  14.820   2.212   6.851
53597SOL    HW162688   0.021   2.152   6.826
53597SOL    HW262689  14.814   2.274   6.779
53598SOL     OW62690   7.264  11.008   2.636
53598SOL    HW162691   7.355  10.984   2.622
53598SOL    HW262692   7.215  10.959   2.570
53599SOL     OW62693   0.098  11.434  13.280
53599SOL    HW162694   0.127  11.515  13.322
53599SOL    HW262695   0.068  11.379  13.352
53600SOL     OW62696   9.639   4.442   9.846
53600SOL    HW162697   9.686   4.503   9.902
53600SOL    HW262698   9.671   4.461   9.758
53601SOL     OW62699  13.205   9.431   6.984
53601SOL    HW162700  13.180   9.524   6.986
53601SOL    HW262701  13.298   9.431   6.962
53602SOL     OW62702  12.653  11.937   0.174
53602SOL    HW162703  12.668  11.923   0.081
53602SOL    HW262704  12.685  12.025   0.191
53603SOL     OW62705  13.304   6.041  13.647
53603SOL    HW162706  13.372   6.003  13.703
53603SOL    HW262707  13.222   6.017  13.689
53604SOL     OW62708   6.702   6.876   4.112
53604SOL    HW162709   6.682   6.807   4.176
53604SOL    HW262710   6.618   6.897   4.071
53605SOL     OW62711   7.130   7.631   3.249
53605SOL    HW162712   7.139   7.727   3.251
53605SOL    HW262713   7.207   7.600   3.202
53606SOL     OW62714   4.006   3.015  12.542
53606SOL    HW162715   4.019   3.097  12.589
53606SOL    HW262716   3.918   3.021  12.506
53607SOL     OW62717   3.249   5.430   5.120
53607SOL    HW162718   3.270   5.367   5.188
53607SOL    HW262719   3.332   5.441   5.072
53608SOL     OW62720   6.935   1.252   6.122
53608SOL    HW162721   7.018   1.220   6.159
53608SOL    HW262722   6.907   1.321   6.182
53609SOL     OW62723  10.594  12.251   8.007
53609SOL    HW162724  10.579  12.210   8.092
53609SOL    HW262725  10.666  12.312   8.022
53610SOL     OW62726  11.157  12.477   6.498
53610SOL    HW162727  11.139  12.418   6.571
53610SOL    HW262728  11.196  12.420   6.431
53611SOL     OW62729   5.273   5.679   7.809
53611SOL    HW162730   5.269   5.726   7.725
53611SOL    HW262731   5.185   5.688   7.846
53612SOL     OW62732   0.328   7.902   9.607
53612SOL    HW162733   0.245   7.918   9.562
53612SOL    HW262734   0.301   7.873   9.695
53613SOL     OW62735   4.582   0.075  13.703
53613SOL    HW162736   4.635   0.055  13.627
53613SOL    HW262737   4.644   0.108  13.768
53614SOL     OW62738   0.286   9.307  14.567
53614SOL    HW162739   0.336   9.386  14.544
53614SOL    HW262740   0.345   9.258  14.624
53615SOL     OW62741   7.777   8.461   3.680
53615SOL    HW162742   7.864   8.449   3.640
53615SOL    HW262743   7.788   8.536   3.738
53616SOL     OW62744  13.112  12.619   4.963
53616SOL    HW162745  13.024  12.655   4.976
53616SOL    HW262746  13.155  12.629   5.048
53617SOL     OW62747   2.051  12.641  12.103
53617SOL    HW162748   2.125  12.581  12.110
53617SOL    HW262749   1.999  12.606  12.031
53618SOL     OW62750   9.841   5.697   9.072
53618SOL    HW162751   9.779   5.628   9.094
53618SOL    HW262752   9.808   5.734   8.990
53619SOL     OW62753  10.093  11.121   3.779
53619SOL    HW162754  10.112  11.184   3.850
53619SOL    HW262755  10.029  11.062   3.817
53620SOL     OW62756   8.496   1.406  12.163
53620SOL    HW162757   8.405   1.401  12.190
53620SOL    HW262758   8.497   1.472  12.094
53621SOL     OW62759   2.003  10.992  14.457
53621SOL    HW162760   1.963  10.943  14.385
53621SOL    HW262761   2.056  10.928  14.504
53622SOL     OW62762  10.858   0.795  12.605
53622SOL    HW162763  10.841   0.736  12.531
53622SOL    HW262764  10.914   0.745  12.664
53623SOL     OW62765   3.744  13.619   5.314
53623SOL    HW162766   3.830  13.578   5.328
53623SOL    HW262767   3.686  13.546   5.295
53624SOL     OW62768   3.206   7.763   6.351
53624SOL    HW162769   3.271   7.774   6.282
53624SOL    HW262770   3.141   7.831   6.334
53625SOL     OW62771   0.246   0.649   4.595
53625SOL    HW162772   0.242   0.737   4.558
53625SOL    HW262773   0.313   0.655   4.664
53626SOL     OW62774   0.822   0.386   3.447
53626SOL    HW162775   0.837   0.423   3.360
53626SOL    HW262776   0.882   0.434   3.504
53627SOL     OW62777  11.832  14.530   9.009
53627SOL    HW162778  11.879  14.607   8.977
53627SOL    HW262779  11.825  14.472   8.933
53628SOL     OW62780   6.639   0.909   3.260
53628SOL    HW162781   6.653   0.865   3.344
53628SOL    HW262782   6.569   0.972   3.278
53629SOL     OW62783   8.091   2.611   2.625
53629SOL    HW162784   8.002   2.583   2.605
53629SOL    HW262785   8.086   2.645   2.714
53630SOL     OW62786   1.863   4.499   9.571
53630SOL    HW162787   1.924   4.430   9.546
53630SOL    HW262788   1.778   4.470   9.539
53631SOL     OW62789   7.173   7.652   6.566
53631SOL    HW162790   7.164   7.690   6.654
53631SOL    HW262791   7.104   7.587   6.561
53632SOL     OW62792   5.185  11.052  13.682
53632SOL    HW162793   5.240  10.978  13.708
53632SOL    HW262794   5.217  11.077  13.596
53633SOL     OW62795  10.225  12.541  14.784
53633SOL    HW162796  10.305  12.580  14.820
53633SOL    HW262797  10.157  12.563  14.847
53634SOL     OW62798   1.152   9.542   5.689
53634SOL    HW162799   1.209   9.465   5.694
53634SOL    HW262800   1.148   9.563   5.596
53635SOL     OW62801   6.455   2.813  13.764
53635SOL    HW162802   6.501   2.796  13.846
53635SOL    HW262803   6.467   2.733  13.713
53636SOL     OW62804  12.168   5.217   1.160
53636SOL    HW162805  12.117   5.138   1.180
53636SOL    HW262806  12.125   5.254   1.083
53637SOL     OW62807   7.191   1.308   7.574
53637SOL    HW162808   7.202   1.393   7.616
53637SOL    HW262809   7.164   1.250   7.646
53638SOL     OW62810  10.400   2.831  12.162
53638SOL    HW162811  10.463   2.860  12.095
53638SOL    HW262812  10.315   2.861  12.130
53639SOL     OW62813   7.046   6.943   0.900
53639SOL    HW162814   7.050   6.977   0.989
53639SOL    HW262815   6.976   6.877   0.902
53640SOL     OW62816   1.173   7.262   4.785
53640SOL    HW162817   1.094   7.211   4.773
53640SOL    HW262818   1.244   7.198   4.783
53641SOL     OW62819  10.986   8.264  13.351
53641SOL    HW162820  10.936   8.272  13.269
53641SOL    HW262821  11.036   8.184  13.341
53642SOL     OW62822  10.505   0.336  14.700
53642SOL    HW162823  10.558   0.260  14.675
53642SOL    HW262824  10.419   0.300  14.720
53643SOL     OW62825  13.951  12.419   2.321
53643SOL    HW162826  14.026  12.376   2.280
53643SOL    HW262827  13.919  12.356   2.385
53644SOL     OW62828   4.728  12.783  13.541
53644SOL    HW162829   4.803  12.837  13.566
53644SOL    HW262830   4.765  12.697  13.524
53645SOL     OW62831   4.359   2.745   4.441
53645SOL    HW162832   4.377   2.750   4.347
53645SOL    HW262833   4.426   2.685   4.475
53646SOL     OW62834   2.586   7.656  11.992
53646SOL    HW162835   2.653   7.725  11.999
53646SOL    HW262836   2.613   7.591  12.056
53647SOL     OW62837   9.325   0.581   8.507
53647SOL    HW162838   9.293   0.668   8.530
53647SOL    HW262839   9.305   0.573   8.414
53648SOL     OW62840   1.978   0.123   8.363
53648SOL    HW162841   1.919   0.190   8.331
53648SOL    HW262842   2.065   0.163   8.362
53649SOL     OW62843   8.188  14.803  11.690
53649SOL    HW162844   8.202  14.713  11.720
53649SOL    HW262845   8.154  14.848  11.767
53650SOL     OW62846   4.469  14.639  13.550
53650SOL    HW162847   4.423  14.699  13.609
53650SOL    HW262848   4.409  14.565  13.539
53651SOL     OW62849   7.769  11.231   4.913
53651SOL    HW162850   7.797  11.273   4.832
53651SOL    HW262851   7.834  11.260   4.978
53652SOL     OW62852   4.683  13.637  12.694
53652SOL    HW162853   4.644  13.573  12.636
53652SOL    HW262854   4.769  13.600  12.717
53653SOL     OW62855   3.074   0.379   9.236
53653SOL    HW162856   2.993   0.330   9.224
53653SOL    HW262857   3.046   0.461   9.277
53654SOL     OW62858   5.034  11.465   8.667
53654SOL    HW162859   5.118  11.510   8.682
53654SOL    HW262860   4.978  11.496   8.738
53655SOL     OW62861  14.640  14.640   7.549
53655SOL    HW162862  14.621  14.732   7.568
53655SOL    HW262863  14.714  14.643   7.489
53656SOL     OW62864  11.115   4.008  14.421
53656SOL    HW162865  11.052   3.953  14.373
53656SOL    HW262866  11.165   3.946  14.473
53657SOL     OW62867  11.263   3.575  14.009
53657SOL    HW162868  11.195   3.530  14.059
53657SOL    HW262869  11.335   3.588  14.071
53658SOL     OW62870  12.975   9.683   8.251
53658SOL    HW162871  13.027   9.622   8.303
53658SOL    HW262872  12.922   9.627   8.194
53659SOL     OW62873   7.797  12.181   2.644
53659SOL    HW162874   7.856  12.254   2.661
53659SOL    HW262875   7.853  12.113   2.605
53660SOL     OW62876   9.739  10.357  11.967
53660SOL    HW162877   9.777  10.365  11.880
53660SOL    HW262878   9.657  10.309  11.953
53661SOL     OW62879  13.047   4.941   7.362
53661SOL    HW162880  12.983   4.875   7.389
53661SOL    HW262881  13.123   4.925   7.418
53662SOL     OW62882   2.061  10.323   4.249
53662SOL    HW162883   2.046  10.263   4.321
53662SOL    HW262884   1.996  10.298   4.183
53663SOL     OW62885  11.373   9.675  14.565
53663SOL    HW162886  11.375   9.730  14.487
53663SOL    HW262887  11.398   9.733  14.637
53664SOL     OW62888  11.906   0.689   0.057
53664SOL    HW162889  11.971   0.716  14.862
53664SOL    HW262890  11.844   0.762   0.060
53665SOL     OW62891   7.209  14.290   8.829
53665SOL    HW162892   7.124  14.330   8.846
53665SOL    HW262893   7.189  14.201   8.801
53666SOL     OW62894   8.948  14.661  12.996
53666SOL    HW162895   9.023  14.656  12.936
53666SOL    HW262896   8.875  14.626  12.945
53667SOL     OW62897   1.905   2.028   2.087
53667SOL    HW162898   1.903   1.943   2.042
53667SOL    HW262899   1.880   2.091   2.020
53668SOL     OW62900  11.912  13.394  10.282
53668SOL    HW162901  11.850  13.399  10.355
53668SOL    HW262902  11.857  13.386  10.204
53669SOL     OW62903   6.610   9.432   1.745
53669SOL    HW162904   6.594   9.481   1.664
53669SOL    HW262905   6.678   9.368   1.722
53670SOL     OW62906  14.640   4.075   1.370
53670SOL    HW162907  14.730   4.062   1.340
53670SOL    HW262908  14.638   4.036   1.457
53671SOL     OW62909   3.012   0.627   4.975
53671SOL    HW162910   2.920   0.643   4.994
53671SOL    HW262911   3.059   0.696   5.022
53672SOL     OW62912   6.756  11.613   0.453
53672SOL    HW162913   6.700  11.578   0.384
53672SOL    HW262914   6.700  11.612   0.531
53673SOL     OW62915   4.854   5.520   6.373
53673SOL    HW162916   4.814   5.584   6.314
53673SOL    HW262917   4.821   5.436   6.341
53674SOL     OW62918   6.795   9.896   6.969
53674SOL    HW162919   6.718   9.841   6.984
53674SOL    HW262920   6.816   9.883   6.876
53675SOL     OW62921   1.601   3.653   5.048
53675SOL    HW162922   1.512   3.658   5.085
53675SOL    HW262923   1.593   3.592   4.974
53676SOL     OW62924  12.240  10.637   1.445
53676SOL    HW162925  12.194  10.617   1.364
53676SOL    HW262926  12.171  10.639   1.512
53677SOL     OW62927  12.817   9.135   8.753
53677SOL    HW162928  12.793   9.082   8.828
53677SOL    HW262929  12.734   9.153   8.708
53678SOL     OW62930  13.975   7.035  11.239
53678SOL    HW162931  13.931   7.062  11.159
53678SOL    HW262932  13.955   6.941  11.247
53679SOL     OW62933   6.637   5.529   5.862
53679SOL    HW162934   6.643   5.501   5.954
53679SOL    HW262935   6.708   5.592   5.852
53680SOL     OW62936  10.455   7.485   5.055
53680SOL    HW162937  10.525   7.539   5.018
53680SOL    HW262938  10.487   7.395   5.046
53681SOL     OW62939  14.798   5.203   8.301
53681SOL    HW162940  14.745   5.139   8.254
53681SOL    HW262941  14.856   5.240   8.234
53682SOL     OW62942  12.349   6.898  13.914
53682SOL    HW162943  12.304   6.944  13.844
53682SOL    HW262944  12.365   6.810  13.879
53683SOL     OW62945   2.777  12.028  13.706
53683SOL    HW162946   2.708  12.062  13.764
53683SOL    HW262947   2.856  12.032  13.759
53684SOL     OW62948  12.174   3.474  14.401
53684SOL    HW162949  12.125   3.535  14.456
53684SOL    HW262950  12.120   3.464  14.322
53685SOL     OW62951   8.064   9.659  14.235
53685SOL    HW162952   8.016   9.618  14.163
53685SOL    HW262953   8.137   9.600  14.252
53686SOL     OW62954   0.153  13.951  10.865
53686SOL    HW162955   0.127  14.007  10.938
53686SOL    HW262956   0.228  13.995  10.827
53687SOL     OW62957   9.082   1.657  14.112
53687SOL    HW162958   9.047   1.704  14.036
53687SOL    HW262959   9.177   1.671  14.108
53688SOL     OW62960  11.830  14.555   3.510
53688SOL    HW162961  11.898  14.500   3.472
53688SOL    HW262962  11.820  14.627   3.447
53689SOL     OW62963  13.075   0.071  13.399
53689SOL    HW162964  13.025   0.067  13.480
53689SOL    HW262965  13.065  14.853  13.361
53690SOL     OW62966   3.613   0.626   6.611
53690SOL    HW162967   3.682   0.692   6.618
53690SOL    HW262968   3.660   0.545   6.592
53691SOL     OW62969   3.760   5.419  11.301
53691SOL    HW162970   3.844   5.395  11.340
53691SOL    HW262971   3.728   5.337  11.262
53692SOL     OW62972  13.493   2.642  13.246
53692SOL    HW162973  13.405   2.680  13.242
53692SOL    HW262974  13.504   2.599  13.161
53693SOL     OW62975   0.888   2.985  12.780
53693SOL    HW162976   0.802   2.973  12.739
53693SOL    HW262977   0.946   2.928  12.730
53694SOL     OW62978   9.166  13.783   5.173
53694SOL    HW162979   9.124  13.729   5.240
53694SOL    HW262980   9.100  13.848   5.149
53695SOL     OW62981   0.966  12.401   2.467
53695SOL    HW162982   1.020  12.345   2.411
53695SOL    HW262983   1.026  12.436   2.532
53696SOL     OW62984  12.725   8.162   3.514
53696SOL    HW162985  12.775   8.166   3.595
53696SOL    HW262986  12.644   8.117   3.539
53697SOL     OW62987   6.935   2.170  13.196
53697SOL    HW162988   6.964   2.184  13.106
53697SOL    HW262989   6.979   2.089  13.224
53698SOL     OW62990  12.784   8.508   0.283
53698SOL    HW162991  12.796   8.523   0.377
53698SOL    HW262992  12.750   8.592   0.250
53699SOL     OW62993   1.639   9.214   0.738
53699SOL    HW162994   1.733   9.230   0.743
53699SOL    HW262995   1.603   9.253   0.817
53700SOL     OW62996   8.135   8.127   9.751
53700SOL    HW162997   8.067   8.149   9.814
53700SOL    HW262998   8.159   8.211   9.711
53701SOL     OW62999   1.629   9.300   7.438
53701SOL    HW163000   1.586   9.321   7.521
53701SOL    HW263001   1.559   9.296   7.374
53702SOL     OW63002   8.802   7.592   6.409
53702SOL    HW163003   8.844   7.585   6.323
53702SOL    HW263004   8.871   7.571   6.472
53703SOL     OW63005   0.512   1.224  14.827
53703SOL    HW163006   0.423   1.190  14.819
53703SOL    HW263007   0.553   1.167   0.023
53704SOL     OW63008  11.990   0.145   5.275
53704SOL    HW163009  12.027   0.161   5.362
53704SOL    HW263010  11.899   0.119   5.292
53705SOL     OW63011   8.680   0.604  13.903
53705SOL    HW163012   8.591   0.615  13.937
53705SOL    HW263013   8.681   0.653  13.820
53706SOL     OW63014   4.331   9.109   8.750
53706SOL    HW163015   4.240   9.117   8.723
53706SOL    HW263016   4.361   9.026   8.710
53707SOL     OW63017   2.388   6.262   6.742
53707SOL    HW163018   2.294   6.275   6.746
53707SOL    HW263019   2.421   6.310   6.818
53708SOL     OW63020   9.673   6.895   7.342
53708SOL    HW163021   9.686   6.844   7.262
53708SOL    HW263022   9.739   6.861   7.403
53709SOL     OW63023   3.324   5.331  13.625
53709SOL    HW163024   3.357   5.402  13.570
53709SOL    HW263025   3.231   5.351  13.636
53710SOL     OW63026   3.555   5.451   6.549
53710SOL    HW163027   3.548   5.546   6.541
53710SOL    HW263028   3.479   5.426   6.602
53711SOL     OW63029   1.250  12.312   7.861
53711SOL    HW163030   1.309  12.376   7.823
53711SOL    HW263031   1.247  12.241   7.797
53712SOL     OW63032  13.271  11.245  13.743
53712SOL    HW163033  13.182  11.262  13.774
53712SOL    HW263034  13.264  11.161  13.697
53713SOL     OW63035   9.345  14.855  12.922
53713SOL    HW163036   9.298  14.829  12.842
53713SOL    HW263037   9.435  14.824  12.909
53714SOL     OW63038   9.390  14.138  10.658
53714SOL    HW163039   9.475  14.097  10.670
53714SOL    HW263040   9.358  14.154  10.747
53715SOL     OW63041  12.514   7.269  11.138
53715SOL    HW163042  12.556   7.256  11.053
53715SOL    HW263043  12.574   7.327  11.186
53716SOL     OW63044   0.912   4.523   9.727
53716SOL    HW163045   0.909   4.612   9.764
53716SOL    HW263046   0.960   4.472   9.792
53717SOL     OW63047   7.055   1.083   2.630
53717SOL    HW163048   6.996   1.041   2.692
53717SOL    HW263049   7.032   1.047   2.545
53718SOL     OW63050   2.267   0.962   1.642
53718SOL    HW163051   2.200   1.020   1.607
53718SOL    HW263052   2.234   0.937   1.728
53719SOL     OW63053  14.324  14.233   6.265
53719SOL    HW163054  14.292  14.302   6.323
53719SOL    HW263055  14.272  14.156   6.288
53720SOL     OW63056   3.857  11.442   5.576
53720SOL    HW163057   3.898  11.414   5.657
53720SOL    HW263058   3.765  11.455   5.599
53721SOL     OW63059   8.523  12.248   8.078
53721SOL    HW163060   8.606  12.200   8.070
53721SOL    HW263061   8.517  12.299   7.997
53722SOL     OW63062  13.874  14.277  12.733
53722SOL    HW163063  13.962  14.261  12.767
53722SOL    HW263064  13.843  14.191  12.705
53723SOL     OW63065   1.293   5.200   3.458
53723SOL    HW163066   1.358   5.146   3.414
53723SOL    HW263067   1.241   5.139   3.509
53724SOL     OW63068   0.633   4.508   9.792
53724SOL    HW163069   0.648   4.418   9.822
53724SOL    HW263070   0.719   4.539   9.764
53725SOL     OW63071   7.097   2.213   9.412
53725SOL    HW163072   7.159   2.140   9.404
53725SOL    HW263073   7.142   2.287   9.372
53726SOL     OW63074   4.628   3.739   1.321
53726SOL    HW163075   4.702   3.724   1.263
53726SOL    HW263076   4.599   3.651   1.346
53727SOL     OW63077   3.867   8.118   6.451
53727SOL    HW163078   3.791   8.157   6.408
53727SOL    HW263079   3.910   8.068   6.381
53728SOL     OW63080  10.947  10.088   6.791
53728SOL    HW163081  10.913  10.017   6.846
53728SOL    HW263082  11.041  10.073   6.787
53729SOL     OW63083   1.315  11.332  13.537
53729SOL    HW163084   1.369  11.385  13.478
53729SOL    HW263085   1.329  11.371  13.623
53730SOL     OW63086  13.489   9.477   2.301
53730SOL    HW163087  13.523   9.508   2.217
53730SOL    HW263088  13.563   9.432   2.342
53731SOL     OW63089   4.702   4.852   0.050
53731SOL    HW163090   4.650   4.845  14.839
53731SOL    HW263091   4.766   4.921   0.032
53732SOL     OW63092  12.165  11.758  10.541
53732SOL    HW163093  12.148  11.675  10.498
53732SOL    HW263094  12.133  11.746  10.631
53733SOL     OW63095   8.244   6.702   8.627
53733SOL    HW163096   8.221   6.715   8.719
53733SOL    HW263097   8.178   6.640   8.594
53734SOL     OW63098  11.455  11.899  12.364
53734SOL    HW163099  11.439  11.968  12.429
53734SOL    HW263100  11.371  11.854  12.357
53735SOL     OW63101   2.665   6.766  13.758
53735SOL    HW163102   2.742   6.823  13.760
53735SOL    HW263103   2.701   6.678  13.752
53736SOL     OW63104   0.351  13.019   6.130
53736SOL    HW163105   0.302  12.947   6.169
53736SOL    HW263106   0.370  12.989   6.041
53737SOL     OW63107   7.623   2.541   8.052
53737SOL    HW163108   7.704   2.591   8.055
53737SOL    HW263109   7.577   2.564   8.133
53738SOL     OW63110   1.256  10.100  12.778
53738SOL    HW163111   1.207  10.131  12.855
53738SOL    HW263112   1.313  10.173  12.756
53739SOL     OW63113   5.809  10.443   2.641
53739SOL    HW163114   5.900  10.473   2.644
53739SOL    HW263115   5.759  10.517   2.676
53740SOL     OW63116   4.989   0.703  12.190
53740SOL    HW163117   4.911   0.758  12.197
53740SOL    HW263118   5.016   0.687  12.280
53741SOL     OW63119   4.898  11.902  13.800
53741SOL    HW163120   4.840  11.835  13.763
53741SOL    HW263121   4.965  11.853  13.847
53742SOL     OW63122   8.916   3.957   9.666
53742SOL    HW163123   8.924   4.052   9.669
53742SOL    HW263124   8.822   3.941   9.665
53743SOL     OW63125   5.790   5.226   8.144
53743SOL    HW163126   5.841   5.299   8.181
53743SOL    HW263127   5.854   5.159   8.124
53744SOL     OW63128  10.204  13.687  14.157
53744SOL    HW163129  10.202  13.764  14.214
53744SOL    HW263130  10.232  13.616  14.214
53745SOL     OW63131   3.471   5.926   4.170
53745SOL    HW163132   3.399   5.961   4.117
53745SOL    HW263133   3.541   5.909   4.107
53746SOL     OW63134   4.201  14.686  11.554
53746SOL    HW163135   4.158  14.767  11.583
53746SOL    HW263136   4.247  14.710  11.474
53747SOL     OW63137   4.763   4.523   9.119
53747SOL    HW163138   4.739   4.611   9.147
53747SOL    HW263139   4.775   4.530   9.024
53748SOL     OW63140  14.128   1.861   9.212
53748SOL    HW163141  14.124   1.814   9.295
53748SOL    HW263142  14.173   1.801   9.152
53749SOL     OW63143  13.318  11.102  10.080
53749SOL    HW163144  13.297  11.162  10.008
53749SOL    HW263145  13.385  11.148  10.130
53750SOL     OW63146   0.027  10.096   9.107
53750SOL    HW163147   0.075  10.178   9.117
53750SOL    HW263148  14.819  10.107   9.163
53751SOL     OW63149   0.359   5.052   8.355
53751SOL    HW163150   0.306   5.036   8.277
53751SOL    HW263151   0.411   5.129   8.332
53752SOL     OW63152   0.650   0.091   4.235
53752SOL    HW163153   0.567   0.119   4.273
53752SOL    HW263154   0.713   0.100   4.306
53753SOL     OW63155   3.468  13.544   4.020
53753SOL    HW163156   3.535  13.475   4.026
53753SOL    HW263157   3.503  13.606   3.957
53754SOL     OW63158   3.105  14.205  10.732
53754SOL    HW163159   3.018  14.181  10.765
53754SOL    HW263160   3.125  14.138  10.666
53755SOL     OW63161   8.887   8.185  13.232
53755SOL    HW163162   8.962   8.208  13.287
53755SOL    HW263163   8.856   8.102  13.268
53756SOL     OW63164   1.742  14.783  11.359
53756SOL    HW163165   1.815  14.781  11.422
53756SOL    HW263166   1.715  14.692  11.352
53757SOL     OW63167   7.465  14.732  11.518
53757SOL    HW163168   7.405  14.685  11.576
53757SOL    HW263169   7.432  14.822  11.516
53758SOL     OW63170   0.042  12.319   8.172
53758SOL    HW163171  14.826  12.362   8.168
53758SOL    HW263172   0.021  12.226   8.180
53759SOL     OW63173   3.601  12.917  11.687
53759SOL    HW163174   3.537  12.980  11.652
53759SOL    HW263175   3.551  12.838  11.704
53760SOL     OW63176   7.424   2.208   0.777
53760SOL    HW163177   7.479   2.211   0.699
53760SOL    HW263178   7.391   2.118   0.779
53761SOL     OW63179   1.692   5.910   6.543
53761SOL    HW163180   1.677   5.850   6.470
53761SOL    HW263181   1.631   5.882   6.611
53762SOL     OW63182  11.888   6.270   1.329
53762SOL    HW163183  11.894   6.276   1.234
53762SOL    HW263184  11.978   6.254   1.358
53763SOL     OW63185   2.998   2.225  11.816
53763SOL    HW163186   2.955   2.172  11.883
53763SOL    HW263187   2.947   2.210  11.736
53764SOL     OW63188  12.197  10.823   1.143
53764SOL    HW163189  12.160  10.735   1.132
53764SOL    HW263190  12.237  10.842   1.058
53765SOL     OW63191  11.356   4.372   6.800
53765SOL    HW163192  11.403   4.381   6.883
53765SOL    HW263193  11.420   4.334   6.740
53766SOL     OW63194  10.580  12.035   3.987
53766SOL    HW163195  10.555  12.100   4.053
53766SOL    HW263196  10.534  11.955   4.013
53767SOL     OW63197   8.618   4.624   6.828
53767SOL    HW163198   8.571   4.705   6.809
53767SOL    HW263199   8.687   4.649   6.889
53768SOL     OW63200   2.635   5.406  14.645
53768SOL    HW163201   2.669   5.321  14.619
53768SOL    HW263202   2.686   5.469  14.594
53769SOL     OW63203  14.100  13.598  14.319
53769SOL    HW163204  14.069  13.645  14.396
53769SOL    HW263205  14.126  13.512  14.352
53770SOL     OW63206  12.632   3.091  11.286
53770SOL    HW163207  12.645   2.997  11.300
53770SOL    HW263208  12.624   3.100  11.191
53771SOL     OW63209   7.470  11.903   2.126
53771SOL    HW163210   7.531  11.977   2.129
53771SOL    HW263211   7.523  11.830   2.093
53772SOL     OW63212  12.301   0.004   9.590
53772SOL    HW163213  12.227   0.024   9.646
53772SOL    HW263214  12.361   0.077   9.601
53773SOL     OW63215   8.123   8.122  12.829
53773SOL    HW163216   8.092   8.196  12.881
53773SOL    HW263217   8.215   8.140  12.814
53774SOL     OW63218   4.280  10.195  14.739
53774SOL    HW163219   4.189  10.181  14.713
53774SOL    HW263220   4.275  10.267  14.802
53775SOL     OW63221   1.963   1.865   1.753
53775SOL    HW163222   1.885   1.876   1.807
53775SOL    HW263223   2.006   1.951   1.756
53776SOL     OW63224   0.254  12.687  12.437
53776SOL    HW163225   0.292  12.710  12.352
53776SOL    HW263226   0.192  12.617  12.417
53777SOL     OW63227   7.762   8.175   1.154
53777SOL    HW163228   7.679   8.147   1.193
53777SOL    HW263229   7.739   8.251   1.100
53778SOL     OW63230  11.156   4.733   4.713
53778SOL    HW163231  11.121   4.703   4.797
53778SOL    HW263232  11.111   4.816   4.696
53779SOL     OW63233  10.686   9.702   0.538
53779SOL    HW163234  10.649   9.748   0.614
53779SOL    HW263235  10.612   9.654   0.501
53780SOL     OW63236   6.838   1.043  12.236
53780SOL    HW163237   6.909   1.097  12.203
53780SOL    HW263238   6.759   1.081  12.198
53781SOL     OW63239   0.494   4.717   6.476
53781SOL    HW163240   0.573   4.749   6.520
53781SOL    HW263241   0.515   4.627   6.452
53782SOL     OW63242   5.463  12.929  10.207
53782SOL    HW163243   5.422  12.980  10.277
53782SOL    HW263244   5.552  12.962  10.202
53783SOL     OW63245  14.103  11.109  11.159
53783SOL    HW163246  14.129  11.017  11.148
53783SOL    HW263247  14.116  11.127  11.252
53784SOL     OW63248   3.370   6.859  13.445
53784SOL    HW163249   3.380   6.832  13.536
53784SOL    HW263250   3.443   6.919  13.429
53785SOL     OW63251   2.890   9.460   8.251
53785SOL    HW163252   2.813   9.513   8.270
53785SOL    HW263253   2.863   9.404   8.178
53786SOL     OW63254   1.257   7.165   6.854
53786SOL    HW163255   1.166   7.148   6.881
53786SOL    HW263256   1.273   7.102   6.783
53787SOL     OW63257   4.021  12.180  14.844
53787SOL    HW163258   4.073  12.177  14.764
53787SOL    HW263259   3.936  12.145  14.818
53788SOL     OW63260   4.154   0.700   6.150
53788SOL    HW163261   4.171   0.626   6.208
53788SOL    HW263262   4.069   0.681   6.110
53789SOL     OW63263   9.239   0.952   2.104
53789SOL    HW163264   9.242   0.896   2.026
53789SOL    HW263265   9.215   0.892   2.175
53790SOL     OW63266   3.097   8.856  13.666
53790SOL    HW163267   3.014   8.854  13.619
53790SOL    HW263268   3.163   8.863  13.597
53791SOL     OW63269  14.178  14.010   6.306
53791SOL    HW163270  14.207  13.982   6.219
53791SOL    HW263271  14.167  13.928   6.355
53792SOL     OW63272   7.153   1.263  14.305
53792SOL    HW163273   7.108   1.189  14.264
53792SOL    HW263274   7.197   1.225  14.381
53793SOL     OW63275   2.567   6.398   6.934
53793SOL    HW163276   2.598   6.442   6.854
53793SOL    HW263277   2.551   6.469   6.996
53794SOL     OW63278   6.822   6.320  10.330
53794SOL    HW163279   6.790   6.395  10.280
53794SOL    HW263280   6.882   6.276  10.270
53795SOL     OW63281   7.780   7.597  14.169
53795SOL    HW163282   7.726   7.547  14.108
53795SOL    HW263283   7.789   7.683  14.129
53796SOL     OW63284   6.145   0.187   4.880
53796SOL    HW163285   6.173   0.196   4.971
53796SOL    HW263286   6.206   0.242   4.831
53797SOL     OW63287   7.416   7.484   6.874
53797SOL    HW163288   7.397   7.490   6.780
53797SOL    HW263289   7.331   7.493   6.916
53798SOL     OW63290   4.812   3.718   9.962
53798SOL    HW163291   4.762   3.639   9.941
53798SOL    HW263292   4.835   3.709  10.054
53799SOL     OW63293   7.545   6.354   8.305
53799SOL    HW163294   7.571   6.264   8.286
53799SOL    HW263295   7.490   6.379   8.231
53800SOL     OW63296  13.049   7.017   3.449
53800SOL    HW163297  13.101   7.067   3.512
53800SOL    HW263298  13.113   6.979   3.390
53801SOL     OW63299   3.433   5.100   5.647
53801SOL    HW163300   3.520   5.135   5.666
53801SOL    HW263301   3.386   5.174   5.608
53802SOL     OW63302   9.726  11.726  11.387
53802SOL    HW163303   9.796  11.742  11.325
53802SOL    HW263304   9.646  11.754  11.342
53803SOL     OW63305  13.193  11.701   8.064
53803SOL    HW163306  13.126  11.670   8.003
53803SOL    HW263307  13.253  11.752   8.010
53804SOL     OW63308   5.565   5.848   9.369
53804SOL    HW163309   5.641   5.861   9.427
53804SOL    HW263310   5.497   5.812   9.426
53805SOL     OW63311   5.150  14.473   5.661
53805SOL    HW163312   5.142  14.451   5.754
53805SOL    HW263313   5.243  14.458   5.641
53806SOL     OW63314  11.696   3.760  11.015
53806SOL    HW163315  11.661   3.827  11.074
53806SOL    HW263316  11.738   3.810  10.944
53807SOL     OW63317   8.722  13.863  13.772
53807SOL    HW163318   8.788  13.793  13.773
53807SOL    HW263319   8.681  13.858  13.858
53808SOL     OW63320   3.971   5.491   7.820
53808SOL    HW163321   3.903   5.439   7.778
53808SOL    HW263322   4.039   5.500   7.753
53809SOL     OW63323  13.331  10.186   1.640
53809SOL    HW163324  13.249  10.138   1.654
53809SOL    HW263325  13.364  10.203   1.728
53810SOL     OW63326  11.046   2.121   3.334
53810SOL    HW163327  11.140   2.133   3.326
53810SOL    HW263328  11.018   2.089   3.248
53811SOL     OW63329  11.107   9.603  14.174
53811SOL    HW163330  11.116   9.509  14.155
53811SOL    HW263331  11.184   9.643  14.134
53812SOL     OW63332   1.616  14.372   2.337
53812SOL    HW163333   1.524  14.385   2.312
53812SOL    HW263334   1.658  14.342   2.256
53813SOL     OW63335  12.966   4.909   9.584
53813SOL    HW163336  12.895   4.951   9.633
53813SOL    HW263337  12.978   4.964   9.507
53814SOL     OW63338   5.457   9.421   6.601
53814SOL    HW163339   5.420   9.476   6.670
53814SOL    HW263340   5.449   9.473   6.521
53815SOL     OW63341  10.111  12.931   2.405
53815SOL    HW163342  10.126  12.981   2.485
53815SOL    HW263343  10.047  12.982   2.357
53816SOL     OW63344  13.058   1.103   5.753
53816SOL    HW163345  13.013   1.070   5.830
53816SOL    HW263346  13.151   1.093   5.773
53817SOL     OW63347  10.808  14.613  13.962
53817SOL    HW163348  10.889  14.608  13.912
53817SOL    HW263349  10.792  14.523  13.991
53818SOL     OW63350   8.323   4.101   2.097
53818SOL    HW163351   8.273   4.092   2.178
53818SOL    HW263352   8.399   4.045   2.110
53819SOL     OW63353   4.334  13.911   8.200
53819SOL    HW163354   4.399  13.921   8.269
53819SOL    HW263355   4.253  13.946   8.238
53820SOL     OW63356   9.321   5.059  14.580
53820SOL    HW163357   9.234   5.063  14.542
53820SOL    HW263358   9.370   5.128  14.535
53821SOL     OW63359   8.100   2.468  11.100
53821SOL    HW163360   8.107   2.477  11.005
53821SOL    HW263361   8.080   2.556  11.131
53822SOL     OW63362   7.714   8.354   6.454
53822SOL    HW163363   7.789   8.303   6.425
53822SOL    HW263364   7.662   8.369   6.375
53823SOL     OW63365   9.494   4.189   3.497
53823SOL    HW163366   9.566   4.154   3.549
53823SOL    HW263367   9.416   4.168   3.548
53824SOL     OW63368  12.062   7.607   7.543
53824SOL    HW163369  11.983   7.584   7.593
53824SOL    HW263370  12.048   7.698   7.517
53825SOL     OW63371   2.375  10.749   5.323
53825SOL    HW163372   2.283  10.723   5.324
53825SOL    HW263373   2.401  10.741   5.231
53826SOL     OW63374  14.356  14.392   4.097
53826SOL    HW163375  14.283  14.364   4.042
53826SOL    HW263376  14.350  14.336   4.175
53827SOL     OW63377   2.265  10.181   1.199
53827SOL    HW163378   2.226  10.265   1.222
53827SOL    HW263379   2.196  10.135   1.151
53828SOL     OW63380   3.439   5.713   4.984
53828SOL    HW163381   3.452   5.626   5.021
53828SOL    HW263382   3.345   5.728   4.989
53829SOL     OW63383   8.148   5.173   6.205
53829SOL    HW163384   8.201   5.093   6.204
53829SOL    HW263385   8.194   5.232   6.264
53830SOL     OW63386  13.973  14.342  10.582
53830SOL    HW163387  13.948  14.431  10.608
53830SOL    HW263388  13.956  14.289  10.660
53831SOL     OW63389  12.373   2.833  14.617
53831SOL    HW163390  12.383   2.814  14.524
53831SOL    HW263391  12.452   2.882  14.640
53832SOL     OW63392   2.228   4.039   1.384
53832SOL    HW163393   2.312   4.050   1.341
53832SOL    HW263394   2.230   4.099   1.458
53833SOL     OW63395   2.888   6.465   9.321
53833SOL    HW163396   2.978   6.443   9.344
53833SOL    HW263397   2.893   6.552   9.282
53834SOL     OW63398  14.126   6.433   8.897
53834SOL    HW163399  14.158   6.511   8.852
53834SOL    HW263400  14.204   6.393   8.935
53835SOL     OW63401   7.581   9.699   6.286
53835SOL    HW163402   7.532   9.640   6.230
53835SOL    HW263403   7.608   9.771   6.229
53836SOL     OW63404   3.305   2.905   8.577
53836SOL    HW163405   3.321   2.879   8.486
53836SOL    HW263406   3.214   2.933   8.578
53837SOL     OW63407  10.651   9.259   9.464
53837SOL    HW163408  10.741   9.257   9.497
53837SOL    HW263409  10.652   9.198   9.390
53838SOL     OW63410   9.923  11.450   1.800
53838SOL    HW163411   9.946  11.427   1.710
53838SOL    HW263412   9.977  11.527   1.819
53839SOL     OW63413   7.011  10.745   8.527
53839SOL    HW163414   6.933  10.693   8.545
53839SOL    HW263415   6.990  10.792   8.446
53840SOL     OW63416   2.175  12.301  11.898
53840SOL    HW163417   2.099  12.352  11.870
53840SOL    HW263418   2.248  12.335  11.846
53841SOL     OW63419  13.184   8.661   8.728
53841SOL    HW163420  13.164   8.630   8.640
53841SOL    HW263421  13.270   8.625   8.748
53842SOL     OW63422  14.858   7.456   4.123
53842SOL    HW163423   0.028   7.503   4.196
53842SOL    HW263424   0.026   7.368   4.129
53843SOL     OW63425  12.010   8.926   1.938
53843SOL    HW163426  12.008   8.932   1.843
53843SOL    HW263427  12.103   8.921   1.960
53844SOL     OW63428   1.076  14.508   9.643
53844SOL    HW163429   1.008  14.503   9.710
53844SOL    HW263430   1.142  14.567   9.680
53845SOL     OW63431  11.184   0.718   9.291
53845SOL    HW163432  11.130   0.693   9.367
53845SOL    HW263433  11.210   0.808   9.309
53846SOL     OW63434  13.000  12.798   7.094
53846SOL    HW163435  12.917  12.840   7.115
53846SOL    HW263436  13.066  12.847   7.143
53847SOL     OW63437   9.476  13.620   5.255
53847SOL    HW163438   9.460  13.705   5.215
53847SOL    HW263439   9.415  13.616   5.328
53848SOL     OW63440  11.944  12.890   0.729
53848SOL    HW163441  11.984  12.845   0.654
53848SOL    HW263442  11.924  12.820   0.791
53849SOL     OW63443   1.862   2.776   4.886
53849SOL    HW163444   1.879   2.687   4.917
53849SOL    HW263445   1.919   2.831   4.939
53850SOL     OW63446   2.904   2.730  10.465
53850SOL    HW163447   2.994   2.721  10.433
53850SOL    HW263448   2.892   2.655  10.523
53851SOL     OW63449   8.894  10.840   5.216
53851SOL    HW163450   8.877  10.817   5.307
53851SOL    HW263451   8.945  10.921   5.221
53852SOL     OW63452   7.648   9.154   5.273
53852SOL    HW163453   7.599   9.073   5.289
53852SOL    HW263454   7.585   9.212   5.230
53853SOL     OW63455  11.458  12.578   7.034
53853SOL    HW163456  11.536  12.630   7.016
53853SOL    HW263457  11.385  12.635   7.009
53854SOL     OW63458   6.559  13.174   8.280
53854SOL    HW163459   6.588  13.257   8.243
53854SOL    HW263460   6.513  13.130   8.209
53855SOL     OW63461   1.332   2.705   4.743
53855SOL    HW163462   1.394   2.712   4.670
53855SOL    HW263463   1.381   2.732   4.820
53856SOL     OW63464  11.697   3.596   5.634
53856SOL    HW163465  11.710   3.606   5.540
53856SOL    HW263466  11.769   3.646   5.673
53857SOL     OW63467   8.787  13.778   1.219
53857SOL    HW163468   8.726  13.851   1.228
53857SOL    HW263469   8.736  13.709   1.176
53858SOL     OW63470  10.802   1.810  12.213
53858SOL    HW163471  10.759   1.890  12.245
53858SOL    HW263472  10.895   1.825  12.229
53859SOL     OW63473  11.075   2.272   5.997
53859SOL    HW163474  11.160   2.302   6.029
53859SOL    HW263475  11.074   2.178   6.016
53860SOL     OW63476   5.850   9.397   2.520
53860SOL    HW163477   5.794   9.329   2.483
53860SOL    HW263478   5.919   9.349   2.566
53861SOL     OW63479   7.230  10.603  14.452
53861SOL    HW163480   7.226  10.526  14.509
53861SOL    HW263481   7.300  10.583  14.390
53862SOL     OW63482   4.502   2.292   9.985
53862SOL    HW163483   4.428   2.350   9.967
53862SOL    HW263484   4.569   2.319   9.922
53863SOL     OW63485  12.525  10.659   3.155
53863SOL    HW163486  12.461  10.598   3.118
53863SOL    HW263487  12.487  10.684   3.240
53864SOL     OW63488   2.818   3.010  11.606
53864SOL    HW163489   2.807   3.079  11.671
53864SOL    HW263490   2.751   3.028  11.540
53865SOL     OW63491   2.023  10.146   4.510
53865SOL    HW163492   2.027  10.232   4.550
53865SOL    HW263493   2.031  10.085   4.583
53866SOL     OW63494   9.893   4.938   5.516
53866SOL    HW163495   9.859   4.984   5.593
53866SOL    HW263496   9.815   4.903   5.473
53867SOL     OW63497   2.019   6.625   5.675
53867SOL    HW163498   2.016   6.706   5.624
53867SOL    HW263499   2.086   6.572   5.632
53868SOL     OW63500   4.062   7.554   3.445
53868SOL    HW163501   4.074   7.649   3.441
53868SOL    HW263502   4.152   7.519   3.451
53869SOL     OW63503  10.885  11.760   3.903
53869SOL    HW163504  10.868  11.674   3.941
53869SOL    HW263505  10.828  11.763   3.826
53870SOL     OW63506   9.112   1.677   8.769
53870SOL    HW163507   9.132   1.668   8.676
53870SOL    HW263508   9.030   1.629   8.781
53871SOL     OW63509   1.501  11.304   4.863
53871SOL    HW163510   1.506  11.399   4.873
53871SOL    HW263511   1.521  11.288   4.771
53872SOL     OW63512   2.127  10.751  14.508
53872SOL    HW163513   2.077  10.712  14.579
53872SOL    HW263514   2.215  10.713  14.518
53873SOL     OW63515  14.105   4.300   4.926
53873SOL    HW163516  14.175   4.271   4.868
53873SOL    HW263517  14.053   4.361   4.873
53874SOL     OW63518   4.688  13.223   9.957
53874SOL    HW163519   4.711  13.131   9.969
53874SOL    HW263520   4.716  13.242   9.868
53875SOL     OW63521   5.835   9.810  12.387
53875SOL    HW163522   5.777   9.734  12.393
53875SOL    HW263523   5.862   9.827  12.478
53876SOL     OW63524  13.769   4.261  14.140
53876SOL    HW163525  13.812   4.335  14.098
53876SOL    HW263526  13.676   4.274  14.123
53877SOL     OW63527  13.227  11.345   0.180
53877SOL    HW163528  13.265  11.410   0.239
53877SOL    HW263529  13.243  11.261   0.224
53878SOL     OW63530   7.123   3.292   0.024
53878SOL    HW163531   7.079   3.234   0.086
53878SOL    HW263532   7.207   3.249   0.006
53879SOL     OW63533   3.675  11.588   8.470
53879SOL    HW163534   3.609  11.539   8.519
53879SOL    HW263535   3.758  11.547   8.493
53880SOL     OW63536  12.963   1.161   1.576
53880SOL    HW163537  13.007   1.084   1.540
53880SOL    HW263538  12.924   1.131   1.658
53881SOL     OW63539   7.567   3.483  10.124
53881SOL    HW163540   7.611   3.547  10.181
53881SOL    HW263541   7.504   3.535  10.074
53882SOL     OW63542   3.493   9.626  11.987
53882SOL    HW163543   3.455   9.541  12.012
53882SOL    HW263544   3.418   9.685  11.983
53883SOL     OW63545  11.872   1.790   9.704
53883SOL    HW163546  11.907   1.815   9.790
53883SOL    HW263547  11.936   1.822   9.641
53884SOL     OW63548  11.629  10.024   5.499
53884SOL    HW163549  11.684  10.062   5.567
53884SOL    HW263550  11.690   9.971   5.447
53885SOL     OW63551  13.245   7.954  12.830
53885SOL    HW163552  13.205   7.951  12.743
53885SOL    HW263553  13.325   7.902  12.821
53886SOL     OW63554   4.130  12.628  11.216
53886SOL    HW163555   4.171  12.555  11.169
53886SOL    HW263556   4.117  12.695  11.148
53887SOL     OW63557   9.430   1.166  14.864
53887SOL    HW163558   9.474   1.195  14.784
53887SOL    HW263559   9.374   1.094  14.836
53888SOL     OW63560   1.678   0.084   9.336
53888SOL    HW163561   1.641   0.112   9.420
53888SOL    HW263562   1.612   0.110   9.271
53889SOL     OW63563   5.550   5.253   7.691
53889SOL    HW163564   5.582   5.247   7.781
53889SOL    HW263565   5.508   5.169   7.675
53890SOL     OW63566   7.230  10.423  13.922
53890SOL    HW163567   7.162  10.471  13.875
53890SOL    HW263568   7.303  10.419  13.861
53891SOL     OW63569   1.778  11.163   6.615
53891SOL    HW163570   1.721  11.198   6.547
53891SOL    HW263571   1.741  11.197   6.697
53892SOL     OW63572   7.593   5.433  11.581
53892SOL    HW163573   7.537   5.427  11.658
53892SOL    HW263574   7.536   5.409  11.508
53893SOL     OW63575  11.452   9.322   9.094
53893SOL    HW163576  11.519   9.280   9.040
53893SOL    HW263577  11.495   9.402   9.127
53894SOL     OW63578   9.137   2.963   7.065
53894SOL    HW163579   9.131   2.943   6.971
53894SOL    HW263580   9.052   3.002   7.086
53895SOL     OW63581   2.031   6.764  12.487
53895SOL    HW163582   2.001   6.828  12.423
53895SOL    HW263583   2.004   6.799  12.571
53896SOL     OW63584   4.264   7.992   7.883
53896SOL    HW163585   4.297   7.918   7.934
53896SOL    HW263586   4.199   8.033   7.939
53897SOL     OW63587   6.462   6.041   3.906
53897SOL    HW163588   6.475   6.032   3.812
53897SOL    HW263589   6.483   5.954   3.942
53898SOL     OW63590   2.844   1.172   6.105
53898SOL    HW163591   2.803   1.252   6.073
53898SOL    HW263592   2.782   1.137   6.168
53899SOL     OW63593   7.737   6.940   9.346
53899SOL    HW163594   7.682   6.989   9.285
53899SOL    HW263595   7.699   6.958   9.432
53900SOL     OW63596  14.413  11.148   7.059
53900SOL    HW163597  14.365  11.230   7.067
53900SOL    HW263598  14.364  11.085   7.112
53901SOL     OW63599   5.396   0.624   9.531
53901SOL    HW163600   5.325   0.677   9.568
53901SOL    HW263601   5.352   0.544   9.503
53902SOL     OW63602   8.970   4.473   2.840
53902SOL    HW163603   9.047   4.483   2.785
53902SOL    HW263604   8.979   4.541   2.907
53903SOL     OW63605  12.166  11.156  14.085
53903SOL    HW163606  12.092  11.098  14.065
53903SOL    HW263607  12.147  11.189  14.173
53904SOL     OW63608  11.171  14.623   5.449
53904SOL    HW163609  11.127  14.554   5.400
53904SOL    HW263610  11.100  14.682   5.476
53905SOL     OW63611   2.372   4.561   9.109
53905SOL    HW163612   2.406   4.621   9.043
53905SOL    HW263613   2.374   4.475   9.067
53906SOL     OW63614   0.449   2.521   6.248
53906SOL    HW163615   0.451   2.459   6.176
53906SOL    HW263616   0.541   2.535   6.271
53907SOL     OW63617  12.681   2.198   0.678
53907SOL    HW163618  12.713   2.197   0.587
53907SOL    HW263619  12.586   2.186   0.670
53908SOL     OW63620   4.245  14.664  12.256
53908SOL    HW163621   4.275  14.755  12.266
53908SOL    HW263622   4.174  14.669  12.191
53909SOL     OW63623  11.085  11.479  14.376
53909SOL    HW163624  11.168  11.450  14.339
53909SOL    HW263625  11.033  11.399  14.384
53910SOL     OW63626   2.450  13.509   7.193
53910SOL    HW163627   2.447  13.524   7.098
53910SOL    HW263628   2.385  13.441   7.209
53911SOL     OW63629   6.152   8.225  10.392
53911SOL    HW163630   6.075   8.277  10.367
53911SOL    HW263631   6.212   8.235  10.319
53912SOL     OW63632   0.210  12.859  14.279
53912SOL    HW163633   0.156  12.920  14.330
53912SOL    HW263634   0.287  12.910  14.255
53913SOL     OW63635  11.481  10.219  12.531
53913SOL    HW163636  11.469  10.131  12.495
53913SOL    HW263637  11.567  10.246  12.499
53914SOL     OW63638  12.484   2.573   8.893
53914SOL    HW163639  12.402   2.601   8.853
53914SOL    HW263640  12.547   2.641   8.870
53915SOL     OW63641  14.734   7.107  10.609
53915SOL    HW163642  14.777   7.190  10.628
53915SOL    HW263643  14.671   7.095  10.680
53916SOL     OW63644  14.636   2.614   2.036
53916SOL    HW163645  14.683   2.630   1.955
53916SOL    HW263646  14.704   2.608   2.103
53917SOL     OW63647   9.919   2.241   5.704
53917SOL    HW163648   9.839   2.292   5.697
53917SOL    HW263649   9.902   2.162   5.653
53918SOL     OW63650   6.747   4.963   1.001
53918SOL    HW163651   6.781   4.908   1.072
53918SOL    HW263652   6.653   4.967   1.017
53919SOL     OW63653   0.723  13.174   3.195
53919SOL    HW163654   0.697  13.199   3.107
53919SOL    HW263655   0.671  13.097   3.215
53920SOL     OW63656  14.193  14.035   3.961
53920SOL    HW163657  14.164  14.122   3.934
53920SOL    HW263658  14.191  14.038   4.057
53921SOL     OW63659   2.440   1.051   9.678
53921SOL    HW163660   2.398   0.966   9.662
53921SOL    HW263661   2.527   1.042   9.638
53922SOL     OW63662   5.628   1.272   5.404
53922SOL    HW163663   5.580   1.273   5.487
53922SOL    HW263664   5.597   1.348   5.356
53923SOL     OW63665   0.414  12.380  11.145
53923SOL    HW163666   0.371  12.306  11.102
53923SOL    HW263667   0.507  12.367  11.126
53924SOL     OW63668   0.864   6.337   3.250
53924SOL    HW163669   0.801   6.331   3.178
53924SOL    HW263670   0.942   6.377   3.211
53925SOL     OW63671   2.846  12.752   8.375
53925SOL    HW163672   2.759  12.717   8.359
53925SOL    HW263673   2.885  12.691   8.438
53926SOL     OW63674  10.993  10.504  12.316
53926SOL    HW163675  10.997  10.447  12.393
53926SOL    HW263676  10.998  10.443  12.242
53927SOL     OW63677   0.138   6.673   8.069
53927SOL    HW163678   0.117   6.623   8.148
53927SOL    HW263679   0.057   6.673   8.018
53928SOL     OW63680   9.488   9.239   9.169
53928SOL    HW163681   9.429   9.188   9.114
53928SOL    HW263682   9.575   9.216   9.137
53929SOL     OW63683   2.823   5.177   9.749
53929SOL    HW163684   2.805   5.261   9.791
53929SOL    HW263685   2.918   5.175   9.739
53930SOL     OW63686   7.639   9.324   3.151
53930SOL    HW163687   7.662   9.400   3.097
53930SOL    HW263688   7.705   9.259   3.129
53931SOL     OW63689  12.086   9.669   8.161
53931SOL    HW163690  11.991   9.679   8.167
53931SOL    HW263691  12.121   9.756   8.179
53932SOL     OW63692   4.924   4.797  11.545
53932SOL    HW163693   4.934   4.891  11.560
53932SOL    HW263694   5.008   4.760  11.572
53933SOL     OW63695   9.880  12.070   6.224
53933SOL    HW163696   9.887  12.033   6.136
53933SOL    HW263697   9.889  12.164   6.211
53934SOL     OW63698  10.677   9.264  13.171
53934SOL    HW163699  10.592   9.282  13.129
53934SOL    HW263700  10.740   9.314  13.119
53935SOL     OW63701   6.089   9.202   9.716
53935SOL    HW163702   6.165   9.170   9.765
53935SOL    HW263703   6.027   9.129   9.717
53936SOL     OW63704  14.738   4.191  10.970
53936SOL    HW163705  14.810   4.224  10.916
53936SOL    HW263706  14.694   4.269  11.003
53937SOL     OW63707  11.187  13.719   1.481
53937SOL    HW163708  11.247  13.678   1.418
53937SOL    HW263709  11.220  13.692   1.567
53938SOL     OW63710   1.457   7.890   4.934
53938SOL    HW163711   1.508   7.838   4.871
53938SOL    HW263712   1.510   7.968   4.949
53939SOL     OW63713  10.681   7.468   9.157
53939SOL    HW163714  10.588   7.487   9.168
53939SOL    HW263715  10.693   7.383   9.200
53940SOL     OW63716   2.519  14.025   1.702
53940SOL    HW163717   2.567  14.102   1.734
53940SOL    HW263718   2.537  14.024   1.608
53941SOL     OW63719   7.959  12.624   7.241
53941SOL    HW163720   7.979  12.677   7.163
53941SOL    HW263721   7.863  12.623   7.244
53942SOL     OW63722   3.733   1.841  10.628
53942SOL    HW163723   3.747   1.805  10.715
53942SOL    HW263724   3.676   1.917  10.642
53943SOL     OW63725  10.161  14.803  10.236
53943SOL    HW163726  10.165  14.807  10.140
53943SOL    HW263727  10.230  14.740  10.260
53944SOL     OW63728   9.728   0.270  11.112
53944SOL    HW163729   9.810   0.260  11.064
53944SOL    HW263730   9.746   0.232  11.198
53945SOL     OW63731   4.452  11.477   8.588
53945SOL    HW163732   4.496  11.555   8.555
53945SOL    HW263733   4.372  11.470   8.536
53946SOL     OW63734   7.350  14.508   2.267
53946SOL    HW163735   7.394  14.431   2.304
53946SOL    HW263736   7.296  14.473   2.196
53947SOL     OW63737   6.897   1.821   3.783
53947SOL    HW163738   6.958   1.747   3.788
53947SOL    HW263739   6.945   1.888   3.734
53948SOL     OW63740  12.527   7.459   5.802
53948SOL    HW163741  12.553   7.380   5.754
53948SOL    HW263742  12.530   7.434   5.894
53949SOL     OW63743  12.913   8.307   5.104
53949SOL    HW163744  12.931   8.399   5.085
53949SOL    HW263745  12.837   8.286   5.051
53950SOL     OW63746  11.970  13.869  10.098
53950SOL    HW163747  12.041  13.806  10.086
53950SOL    HW263748  11.943  13.858  10.189
53951SOL     OW63749   0.475  11.076   2.390
53951SOL    HW163750   0.493  11.060   2.298
53951SOL    HW263751   0.380  11.068   2.398
53952SOL     OW63752   1.456   1.440   7.557
53952SOL    HW163753   1.509   1.455   7.478
53952SOL    HW263754   1.377   1.492   7.543
53953SOL     OW63755   2.835   4.523   8.477
53953SOL    HW163756   2.885   4.476   8.410
53953SOL    HW263757   2.871   4.492   8.560
53954SOL     OW63758   1.806   1.521  14.097
53954SOL    HW163759   1.785   1.447  14.040
53954SOL    HW263760   1.827   1.592  14.036
53955SOL     OW63761  13.840   5.263  11.993
53955SOL    HW163762  13.879   5.200  12.054
53955SOL    HW263763  13.747   5.262  12.013
53956SOL     OW63764  13.646  11.763   6.730
53956SOL    HW163765  13.565  11.724   6.763
53956SOL    HW263766  13.716  11.717   6.778
53957SOL     OW63767  11.442   7.447  13.048
53957SOL    HW163768  11.378   7.501  13.001
53957SOL    HW263769  11.527   7.482  13.021
53958SOL     OW63770   3.771   4.851   8.547
53958SOL    HW163771   3.773   4.788   8.475
53958SOL    HW263772   3.712   4.920   8.517
53959SOL     OW63773   9.927   1.819   0.385
53959SOL    HW163774   9.922   1.725   0.404
53959SOL    HW263775   9.845   1.838   0.340
53960SOL     OW63776  10.352   9.453  13.375
53960SOL    HW163777  10.316   9.541  13.383
53960SOL    HW263778  10.302   9.413  13.304
53961SOL     OW63779   6.356   8.288   8.844
53961SOL    HW163780   6.341   8.312   8.936
53961SOL    HW263781   6.343   8.370   8.796
53962SOL     OW63782   8.942   6.503   7.482
53962SOL    HW163783   9.028   6.501   7.441
53962SOL    HW263784   8.898   6.579   7.444
53963SOL     OW63785   8.341   0.103   6.873
53963SOL    HW163786   8.339   0.140   6.961
53963SOL    HW263787   8.430   0.068   6.864
53964SOL     OW63788  12.169  14.047   6.895
53964SOL    HW163789  12.262  14.067   6.895
53964SOL    HW263790  12.143  14.056   6.803
53965SOL     OW63791   5.193   8.583  14.092
53965SOL    HW163792   5.268   8.550  14.043
53965SOL    HW263793   5.136   8.507  14.103
53966SOL     OW63794   1.769   6.863   9.705
53966SOL    HW163795   1.813   6.780   9.722
53966SOL    HW263796   1.676   6.842   9.702
53967SOL     OW63797   0.094   8.849  13.078
53967SOL    HW163798   0.144   8.928  13.057
53967SOL    HW263799   0.030   8.842  13.008
53968SOL     OW63800   5.207   0.533   1.863
53968SOL    HW163801   5.216   0.620   1.824
53968SOL    HW263802   5.118   0.506   1.839
53969SOL     OW63803   5.930   7.636   4.014
53969SOL    HW163804   5.996   7.697   3.982
53969SOL    HW263805   5.883   7.685   4.082
53970SOL     OW63806  10.575   1.260   4.110
53970SOL    HW163807  10.602   1.253   4.018
53970SOL    HW263808  10.483   1.285   4.105
53971SOL     OW63809   0.487  11.811   1.333
53971SOL    HW163810   0.430  11.766   1.396
53971SOL    HW263811   0.542  11.868   1.386
53972SOL     OW63812  11.205  14.270  12.711
53972SOL    HW163813  11.165  14.314  12.786
53972SOL    HW263814  11.253  14.339  12.665
53973SOL     OW63815   2.832  11.236   9.017
53973SOL    HW163816   2.746  11.272   9.039
53973SOL    HW263817   2.839  11.155   9.068
53974SOL     OW63818  14.505   9.567   3.078
53974SOL    HW163819  14.552   9.485   3.094
53974SOL    HW263820  14.568   9.622   3.031
53975SOL     OW63821  13.759   3.447  11.920
53975SOL    HW163822  13.750   3.409  12.007
53975SOL    HW263823  13.804   3.379  11.869
53976SOL     OW63824   9.283   1.437   9.041
53976SOL    HW163825   9.378   1.442   9.056
53976SOL    HW263826   9.246   1.416   9.127
53977SOL     OW63827   5.439   1.848   2.297
53977SOL    HW163828   5.496   1.829   2.372
53977SOL    HW263829   5.464   1.936   2.269
53978SOL     OW63830   3.626   1.761   7.446
53978SOL    HW163831   3.534   1.739   7.432
53978SOL    HW263832   3.631   1.785   7.539
53979SOL     OW63833  10.395   0.607  12.981
53979SOL    HW163834  10.359   0.653  12.906
53979SOL    HW263835  10.348   0.642  13.057
53980SOL     OW63836  12.659   1.186   4.402
53980SOL    HW163837  12.665   1.103   4.355
53980SOL    HW263838  12.747   1.224   4.397
53981SOL     OW63839  10.345   8.023  12.714
53981SOL    HW163840  10.291   8.097  12.685
53981SOL    HW263841  10.326   7.954  12.651
53982SOL     OW63842  10.743  10.984   4.235
53982SOL    HW163843  10.762  11.045   4.306
53982SOL    HW263844  10.802  10.910   4.250
53983SOL     OW63845   8.991   1.105   0.888
53983SOL    HW163846   9.072   1.154   0.900
53983SOL    HW263847   8.930   1.169   0.851
53984SOL     OW63848  14.101   4.181  13.768
53984SOL    HW163849  14.062   4.154  13.686
53984SOL    HW263850  14.051   4.135  13.835
53985SOL     OW63851   5.089   5.705   1.436
53985SOL    HW163852   5.120   5.695   1.346
53985SOL    HW263853   5.090   5.616   1.471
53986SOL     OW63854  13.388   5.502   4.347
53986SOL    HW163855  13.331   5.440   4.303
53986SOL    HW263856  13.421   5.455   4.423
53987SOL     OW63857   0.962   8.970  10.428
53987SOL    HW163858   0.930   9.032  10.494
53987SOL    HW263859   0.892   8.904  10.422
53988SOL     OW63860   9.937   0.640   8.020
53988SOL    HW163861   9.849   0.642   7.981
53988SOL    HW263862   9.922   0.658   8.113
53989SOL     OW63863   5.093   3.502  10.255
53989SOL    HW163864   5.028   3.544  10.312
53989SOL    HW263865   5.061   3.412  10.244
53990SOL     OW63866  12.159   5.328  13.085
53990SOL    HW163867  12.208   5.327  13.003
53990SOL    HW263868  12.115   5.243  13.088
53991SOL     OW63869  11.129   6.864   5.531
53991SOL    HW163870  11.056   6.901   5.580
53991SOL    HW263871  11.122   6.903   5.444
53992SOL     OW63872  14.641   7.930  10.236
53992SOL    HW163873  14.598   7.866  10.180
53992SOL    HW263874  14.588   8.009  10.229
53993SOL     OW63875  10.070   4.169  13.040
53993SOL    HW163876  10.122   4.250  13.043
53993SOL    HW263877   9.985   4.194  13.074
53994SOL     OW63878  13.281   4.759   2.512
53994SOL    HW163879  13.204   4.753   2.455
53994SOL    HW263880  13.257   4.711   2.591
53995SOL     OW63881   1.107   4.267  12.487
53995SOL    HW163882   1.195   4.293  12.515
53995SOL    HW263883   1.058   4.349  12.483
53996SOL     OW63884  13.764   7.699  12.012
53996SOL    HW163885  13.675   7.732  12.000
53996SOL    HW263886  13.771   7.626  11.950
53997SOL     OW63887   8.730  10.258   9.482
53997SOL    HW163888   8.818  10.269   9.448
53997SOL    HW263889   8.739  10.267   9.577
53998SOL     OW63890   8.313  12.227   0.067
53998SOL    HW163891   8.323  12.321   0.081
53998SOL    HW263892   8.351  12.187   0.146
53999SOL     OW63893  11.808   2.902   3.295
53999SOL    HW163894  11.821   2.854   3.213
53999SOL    HW263895  11.733   2.960   3.277
54000SOL     OW63896  14.417  14.008   6.990
54000SOL    HW163897  14.401  13.922   6.950
54000SOL    HW263898  14.437  13.988   7.082
54001SOL     OW63899   7.503   9.024   6.311
54001SOL    HW163900   7.562   9.030   6.387
54001SOL    HW263901   7.562   9.019   6.236
54002SOL     OW63902   7.877   6.326   7.257
54002SOL    HW163903   7.896   6.357   7.346
54002SOL    HW263904   7.946   6.365   7.204
54003SOL     OW63905  13.699   9.368   0.746
54003SOL    HW163906  13.761   9.298   0.725
54003SOL    HW263907  13.754   9.442   0.772
54004SOL     OW63908   3.879   8.259   1.701
54004SOL    HW163909   3.816   8.218   1.642
54004SOL    HW263910   3.825   8.309   1.763
54005SOL     OW63911  10.787   1.606   0.568
54005SOL    HW163912  10.865   1.659   0.585
54005SOL    HW263913  10.716   1.669   0.564
54006SOL     OW63914  10.209   0.945   9.637
54006SOL    HW163915  10.169   0.900   9.563
54006SOL    HW263916  10.224   1.034   9.606
54007SOL     OW63917   0.314  10.094   3.439
54007SOL    HW163918   0.324  10.165   3.503
54007SOL    HW263919   0.290  10.017   3.492
54008SOL     OW63920  13.777   1.572   3.849
54008SOL    HW163921  13.707   1.620   3.893
54008SOL    HW263922  13.782   1.488   3.895
54009SOL     OW63923  14.253  12.134  14.176
54009SOL    HW163924  14.174  12.180  14.145
54009SOL    HW263925  14.308  12.204  14.211
54010SOL     OW63926   6.612   1.804   2.035
54010SOL    HW163927   6.552   1.831   1.966
54010SOL    HW263928   6.624   1.881   2.090
54011SOL     OW63929   5.757  13.542  14.399
54011SOL    HW163930   5.835  13.579  14.357
54011SOL    HW263931   5.751  13.589  14.483
54012SOL     OW63932   9.609  14.595   0.157
54012SOL    HW163933   9.610  14.624   0.248
54012SOL    HW263934   9.588  14.674   0.107
54013SOL     OW63935  12.483  12.519   9.884
54013SOL    HW163936  12.540  12.514   9.807
54013SOL    HW263937  12.418  12.585   9.860
54014SOL     OW63938  12.560   8.945  10.917
54014SOL    HW163939  12.474   8.978  10.890
54014SOL    HW263940  12.544   8.906  11.003
54015SOL     OW63941   4.013   4.189   8.144
54015SOL    HW163942   3.957   4.123   8.103
54015SOL    HW263943   4.033   4.153   8.231
54016SOL     OW63944   8.965   7.124  10.053
54016SOL    HW163945   9.036   7.107  10.115
54016SOL    HW263946   8.892   7.154  10.107
54017SOL     OW63947  10.965   8.436  14.268
54017SOL    HW163948  10.939   8.439  14.360
54017SOL    HW263949  10.948   8.346  14.241
54018SOL     OW63950  11.233   5.881  11.476
54018SOL    HW163951  11.318   5.849  11.445
54018SOL    HW263952  11.255   5.950  11.539
54019SOL     OW63953   1.261   4.943   9.177
54019SOL    HW163954   1.329   5.002   9.212
54019SOL    HW263955   1.256   4.966   9.084
54020SOL     OW63956   8.771   1.024   7.442
54020SOL    HW163957   8.824   1.094   7.480
54020SOL    HW263958   8.682   1.059   7.440
54021SOL     OW63959   5.063  11.093  11.768
54021SOL    HW163960   5.105  11.095  11.682
54021SOL    HW263961   5.005  11.017  11.765
54022SOL     OW63962   4.923   6.478   4.674
54022SOL    HW163963   4.870   6.447   4.748
54022SOL    HW263964   5.010   6.442   4.691
54023SOL     OW63965  11.142   5.832   8.781
54023SOL    HW163966  11.164   5.746   8.748
54023SOL    HW263967  11.090   5.815   8.860
54024SOL     OW63968   2.367   5.175   3.690
54024SOL    HW163969   2.408   5.240   3.747
54024SOL    HW263970   2.380   5.208   3.602
54025SOL     OW63971   6.038  13.650   0.239
54025SOL    HW163972   6.051  13.718   0.305
54025SOL    HW263973   6.034  13.568   0.289
54026SOL     OW63974   4.973   0.964   3.690
54026SOL    HW163975   4.919   1.034   3.656
54026SOL    HW263976   4.914   0.890   3.700
54027SOL     OW63977   5.582   7.947   4.012
54027SOL    HW163978   5.593   8.035   3.977
54027SOL    HW263979   5.520   7.905   3.952
54028SOL     OW63980   3.533   9.891   4.038
54028SOL    HW163981   3.546   9.959   3.972
54028SOL    HW263982   3.619   9.879   4.077
54029SOL     OW63983   3.716   6.932  14.376
54029SOL    HW163984   3.721   6.978  14.292
54029SOL    HW263985   3.776   6.858  14.366
54030SOL     OW63986   4.345   2.713   6.351
54030SOL    HW163987   4.421   2.688   6.299
54030SOL    HW263988   4.367   2.689   6.441
54031SOL     OW63989   1.945   4.272   6.085
54031SOL    HW163990   1.960   4.253   5.992
54031SOL    HW263991   1.859   4.234   6.103
54032SOL     OW63992  11.497   1.549   6.316
54032SOL    HW163993  11.560   1.529   6.385
54032SOL    HW263994  11.551   1.564   6.238
54033SOL     OW63995  11.879   2.488   8.680
54033SOL    HW163996  11.878   2.553   8.609
54033SOL    HW263997  11.890   2.404   8.635
54034SOL     OW63998   5.940  13.169   1.109
54034SOL    HW163999   5.874  13.167   1.040
54034SOL    HW264000   5.944  13.261   1.135
54035SOL     OW64001   2.396  10.840   3.480
54035SOL    HW164002   2.330  10.795   3.533
54035SOL    HW264003   2.479  10.823   3.526
54036SOL     OW64004   1.992   6.581   6.677
54036SOL    HW164005   1.907   6.539   6.686
54036SOL    HW264006   1.995   6.644   6.749
54037SOL     OW64007   7.060   2.303  13.549
54037SOL    HW164008   7.097   2.311  13.461
54037SOL    HW264009   6.975   2.262  13.535
54038SOL     OW64010   0.271   8.951   8.413
54038SOL    HW164011   0.307   9.021   8.467
54038SOL    HW264012   0.206   8.994   8.358
54039SOL     OW64013  14.646  14.293   0.838
54039SOL    HW164014  14.606  14.243   0.768
54039SOL    HW264015  14.641  14.236   0.915
54040SOL     OW64016   0.082   4.421   6.712
54040SOL    HW164017   0.058   4.510   6.689
54040SOL    HW264018   0.022   4.397   6.783
54041SOL     OW64019   5.570   1.842  11.981
54041SOL    HW164020   5.504   1.779  11.951
54041SOL    HW264021   5.542   1.926  11.944
54042SOL     OW64022   7.541   4.216   6.193
54042SOL    HW164023   7.621   4.250   6.234
54042SOL    HW264024   7.561   4.123   6.176
54043SOL     OW64025   1.893  10.595  14.113
54043SOL    HW164026   1.867  10.524  14.171
54043SOL    HW264027   1.811  10.638  14.090
54044SOL     OW64028   7.857  13.830   7.861
54044SOL    HW164029   7.864  13.742   7.825
54044SOL    HW264030   7.844  13.817   7.955
54045SOL     OW64031   0.086  10.779   0.069
54045SOL    HW164032   0.070  10.869   0.098
54045SOL    HW264033   0.089  10.785  14.843
54046SOL     OW64034   8.751  13.799   5.356
54046SOL    HW164035   8.836  13.792   5.314
54046SOL    HW264036   8.700  13.727   5.318
54047SOL     OW64037   7.685  10.724   0.496
54047SOL    HW164038   7.741  10.770   0.434
54047SOL    HW264039   7.604  10.776   0.498
54048SOL     OW64040  11.537   5.879   8.215
54048SOL    HW164041  11.504   5.894   8.126
54048SOL    HW264042  11.534   5.784   8.226
54049SOL     OW64043   3.365   5.604   8.178
54049SOL    HW164044   3.460   5.610   8.168
54049SOL    HW264045   3.337   5.693   8.197
54050SOL     OW64046   9.799  12.590   6.215
54050SOL    HW164047   9.869  12.541   6.259
54050SOL    HW264048   9.824  12.682   6.226
54051SOL     OW64049   2.269   5.886   0.067
54051SOL    HW164050   2.254   5.980   0.065
54051SOL    HW264051   2.357   5.876   0.103
54052SOL     OW64052  10.118   0.285   2.964
54052SOL    HW164053  10.203   0.316   2.932
54052SOL    HW264054  10.083   0.233   2.892
54053SOL     OW64055   8.273   2.191   1.240
54053SOL    HW164056   8.318   2.275   1.252
54053SOL    HW264057   8.344   2.127   1.230
54054SOL     OW64058   4.012   4.809   5.633
54054SOL    HW164059   4.061   4.740   5.678
54054SOL    HW264060   3.927   4.811   5.677
54055SOL     OW64061   9.349   4.507   3.029
54055SOL    HW164062   9.301   4.505   3.112
54055SOL    HW264063   9.376   4.416   3.015
54056SOL     OW64064   8.337   8.788  11.261
54056SOL    HW164065   8.300   8.729  11.196
54056SOL    HW264066   8.427   8.758  11.273
54057SOL     OW64067  14.653   5.029   9.378
54057SOL    HW164068  14.646   4.981   9.295
54057SOL    HW264069  14.641   5.120   9.353
54058SOL     OW64070   0.116   4.128  11.305
54058SOL    HW164071   0.034   4.101  11.263
54058SOL    HW264072   0.175   4.145  11.232
54059SOL     OW64073   0.348   6.662   3.953
54059SOL    HW164074   0.318   6.588   4.005
54059SOL    HW264075   0.267   6.710   3.932
54060SOL     OW64076   8.081   9.295   7.507
54060SOL    HW164077   8.146   9.296   7.436
54060SOL    HW264078   8.067   9.387   7.527
54061SOL     OW64079  11.641   3.003  14.063
54061SOL    HW164080  11.727   2.994  14.021
54061SOL    HW264081  11.658   2.982  14.155
54062SOL     OW64082  14.840   1.408   6.892
54062SOL    HW164083  14.786   1.330   6.884
54062SOL    HW264084  14.828   1.454   6.809
54063SOL     OW64085  11.688   7.399   5.456
54063SOL    HW164086  11.675   7.421   5.548
54063SOL    HW264087  11.639   7.318   5.443
54064SOL     OW64088   6.684   2.062  12.301
54064SOL    HW164089   6.636   2.142  12.321
54064SOL    HW264090   6.776   2.086  12.311
54065SOL     OW64091   7.623   1.210  13.061
54065SOL    HW164092   7.543   1.161  13.080
54065SOL    HW264093   7.661   1.165  12.987
54066SOL     OW64094   5.160   9.835  10.592
54066SOL    HW164095   5.249   9.821  10.625
54066SOL    HW264096   5.139   9.756  10.543
54067SOL     OW64097   1.567  11.937  11.995
54067SOL    HW164098   1.502  11.999  11.962
54067SOL    HW264099   1.564  11.948  12.090
54068SOL     OW64100   7.981   1.812   6.098
54068SOL    HW164101   7.998   1.810   6.004
54068SOL    HW264102   7.930   1.733   6.115
54069SOL     OW64103   6.069  12.642   0.236
54069SOL    HW164104   6.093  12.550   0.227
54069SOL    HW264105   6.118  12.686   0.166
54070SOL     OW64106   9.745  10.491   2.265
54070SOL    HW164107   9.731  10.412   2.317
54070SOL    HW264108   9.838  10.512   2.278
54071SOL     OW64109   1.812   3.606   5.511
54071SOL    HW164110   1.758   3.527   5.515
54071SOL    HW264111   1.897   3.580   5.547
54072SOL     OW64112   0.785  13.706   7.417
54072SOL    HW164113   0.807  13.796   7.440
54072SOL    HW264114   0.690  13.709   7.399
54073SOL     OW64115   9.096   7.184   8.993
54073SOL    HW164116   9.073   7.221   9.078
54073SOL    HW264117   9.119   7.093   9.012
54074SOL     OW64118   9.686   2.715  13.188
54074SOL    HW164119   9.736   2.708  13.270
54074SOL    HW264120   9.608   2.661  13.203
54075SOL     OW64121   6.271   6.108   3.219
54075SOL    HW164122   6.178   6.121   3.199
54075SOL    HW264123   6.313   6.190   3.194
54076SOL     OW64124   6.543   6.999  11.034
54076SOL    HW164125   6.514   6.926  10.979
54076SOL    HW264126   6.550   6.962  11.122
54077SOL     OW64127   5.574  10.578   0.233
54077SOL    HW164128   5.506  10.581   0.166
54077SOL    HW264129   5.651  10.615   0.191
54078SOL     OW64130   5.797  13.999   6.370
54078SOL    HW164131   5.848  13.933   6.418
54078SOL    HW264132   5.860  14.038   6.310
54079SOL     OW64133   3.460   9.761   1.754
54079SOL    HW164134   3.393   9.762   1.685
54079SOL    HW264135   3.487   9.852   1.762
54080SOL     OW64136   4.031  10.604  11.062
54080SOL    HW164137   3.993  10.526  11.023
54080SOL    HW264138   4.123  10.581  11.077
54081SOL     OW64139   6.363  11.739   5.159
54081SOL    HW164140   6.365  11.736   5.255
54081SOL    HW264141   6.298  11.674   5.134
54082SOL     OW64142   6.454   0.761   7.599
54082SOL    HW164143   6.398   0.717   7.535
54082SOL    HW264144   6.471   0.694   7.666
54083SOL     OW64145  12.591  10.335   1.379
54083SOL    HW164146  12.507  10.330   1.425
54083SOL    HW264147  12.652  10.289   1.437
54084SOL     OW64148   4.246  12.868  13.038
54084SOL    HW164149   4.191  12.799  13.074
54084SOL    HW264150   4.228  12.867  12.944
54085SOL     OW64151   4.545   9.649   7.533
54085SOL    HW164152   4.623   9.704   7.529
54085SOL    HW264153   4.577   9.561   7.516
54086SOL     OW64154  14.300  14.297   8.990
54086SOL    HW164155  14.385  14.253   8.981
54086SOL    HW264156  14.239  14.227   9.012
54087SOL     OW64157   1.393   1.394   2.634
54087SOL    HW164158   1.387   1.429   2.723
54087SOL    HW264159   1.313   1.343   2.622
54088SOL     OW64160   5.237   0.267  14.255
54088SOL    HW164161   5.232   0.361  14.238
54088SOL    HW264162   5.146   0.238  14.254
54089SOL     OW64163   8.960   8.255   4.132
54089SOL    HW164164   8.870   8.274   4.107
54089SOL    HW264165   8.953   8.219   4.220
54090SOL     OW64166   1.829   6.227  13.339
54090SOL    HW164167   1.807   6.181  13.419
54090SOL    HW264168   1.770   6.190  13.273
54091SOL     OW64169   8.196  14.535  11.708
54091SOL    HW164170   8.196  14.454  11.758
54091SOL    HW264171   8.246  14.514  11.629
54092SOL     OW64172   4.184   6.475   7.491
54092SOL    HW164173   4.193   6.407   7.425
54092SOL    HW264174   4.251   6.453   7.557
54093SOL     OW64175   0.746  11.346   1.705
54093SOL    HW164176   0.716  11.371   1.793
54093SOL    HW264177   0.836  11.377   1.700
54094SOL     OW64178   9.058  12.852  13.761
54094SOL    HW164179   9.110  12.772  13.758
54094SOL    HW264180   8.967  12.822  13.762
54095SOL     OW64181   8.064  14.843   7.307
54095SOL    HW164182   8.006   0.022   7.366
54095SOL    HW264183   8.036  14.752   7.317
54096SOL     OW64184  10.067   6.215  11.053
54096SOL    HW164185   9.988   6.168  11.026
54096SOL    HW264186  10.139   6.162  11.020
54097SOL     OW64187   0.627  12.439  13.128
54097SOL    HW164188   0.541  12.404  13.105
54097SOL    HW264189   0.634  12.520  13.078
54098SOL     OW64190  12.135   9.660  13.595
54098SOL    HW164191  12.141   9.721  13.522
54098SOL    HW264192  12.163   9.711  13.671
54099SOL     OW64193   9.926   3.126   9.714
54099SOL    HW164194   9.924   3.031   9.721
54099SOL    HW264195   9.859   3.147   9.649
54100SOL     OW64196   0.097   7.755   2.984
54100SOL    HW164197   0.080   7.808   3.062
54100SOL    HW264198   0.162   7.691   3.012
54101SOL     OW64199   9.094   3.216  13.286
54101SOL    HW164200   9.187   3.193  13.277
54101SOL    HW264201   9.053   3.177  13.209
54102SOL     OW64202   1.392  13.798   1.574
54102SOL    HW164203   1.435  13.764   1.496
54102SOL    HW264204   1.303  13.764   1.570
54103SOL     OW64205   2.000   6.017   4.681
54103SOL    HW164206   2.081   6.001   4.730
54103SOL    HW264207   1.942   5.944   4.706
54104SOL     OW64208  12.545   3.991   0.040
54104SOL    HW164209  12.505   3.922   0.093
54104SOL    HW264210  12.482   4.007  14.839
54105SOL     OW64211   2.184   4.739   1.997
54105SOL    HW164212   2.153   4.648   1.997
54105SOL    HW264213   2.189   4.763   2.089
54106SOL     OW64214  11.925   4.374   4.235
54106SOL    HW164215  11.914   4.302   4.297
54106SOL    HW264216  11.946   4.332   4.152
54107SOL     OW64217   5.766   5.294   0.501
54107SOL    HW164218   5.818   5.239   0.559
54107SOL    HW264219   5.733   5.234   0.434
54108SOL     OW64220  12.961   4.508   5.440
54108SOL    HW164221  12.902   4.582   5.454
54108SOL    HW264222  12.904   4.436   5.413
54109SOL     OW64223  14.605  12.706   7.219
54109SOL    HW164224  14.671  12.728   7.153
54109SOL    HW264225  14.583  12.614   7.201
54110SOL     OW64226  11.990   1.155   0.050
54110SOL    HW164227  11.921   1.204   0.006
54110SOL    HW264228  12.006   1.079  14.862
54111SOL     OW64229   8.010   8.407  11.853
54111SOL    HW164230   7.987   8.396  11.945
54111SOL    HW264231   7.974   8.329  11.810
54112SOL     OW64232   9.721   2.385  11.635
54112SOL    HW164233   9.704   2.479  11.637
54112SOL    HW264234   9.644   2.345  11.674
54113SOL     OW64235   8.270  14.589  11.036
54113SOL    HW164236   8.330  14.584  11.111
54113SOL    HW264237   8.323  14.628  10.966
54114SOL     OW64238   9.158   6.509   8.120
54114SOL    HW164239   9.174   6.520   8.026
54114SOL    HW264240   9.245   6.491   8.157
54115SOL     OW64241   1.770  11.845   0.971
54115SOL    HW164242   1.677  11.823   0.981
54115SOL    HW264243   1.784  11.917   1.033
54116SOL     OW64244  11.762   1.845   4.656
54116SOL    HW164245  11.799   1.758   4.670
54116SOL    HW264246  11.789   1.869   4.568
54117SOL     OW64247  10.194  13.203  10.167
54117SOL    HW164248  10.125  13.193  10.102
54117SOL    HW264249  10.275  13.205  10.115
54118SOL     OW64250   6.802  11.384   2.366
54118SOL    HW164251   6.862  11.458   2.358
54118SOL    HW264252   6.747  11.389   2.289
54119SOL     OW64253   1.111   3.575  12.774
54119SOL    HW164254   1.171   3.583  12.700
54119SOL    HW264255   1.162   3.604  12.850
54120SOL     OW64256   1.640  14.732   9.009
54120SOL    HW164257   1.547  14.710   9.002
54120SOL    HW264258   1.673  14.724   8.920
54121SOL     OW64259   6.874   7.659   1.062
54121SOL    HW164260   6.949   7.709   1.094
54121SOL    HW264261   6.891   7.647   0.969
54122SOL     OW64262  13.754   6.567   6.125
54122SOL    HW164263  13.786   6.656   6.142
54122SOL    HW264264  13.719   6.571   6.036
54123SOL     OW64265   9.547   3.845  13.810
54123SOL    HW164266   9.624   3.894  13.837
54123SOL    HW264267   9.482   3.862  13.879
54124SOL     OW64268   2.325  12.174  12.725
54124SOL    HW164269   2.304  12.183  12.818
54124SOL    HW264270   2.399  12.233  12.711
54125SOL     OW64271  14.263   7.833   4.602
54125SOL    HW164272  14.270   7.928   4.594
54125SOL    HW264273  14.316   7.811   4.678
54126SOL     OW64274  10.869   2.293   4.035
54126SOL    HW164275  10.871   2.230   4.107
54126SOL    HW264276  10.798   2.353   4.057
54127SOL     OW64277  10.536   4.718   5.880
54127SOL    HW164278  10.627   4.702   5.857
54127SOL    HW264279  10.539   4.739   5.974
54128SOL     OW64280   3.156   0.178  11.811
54128SOL    HW164281   3.200   0.159  11.894
54128SOL    HW264282   3.217   0.149  11.744
54129SOL     OW64283   6.950   1.504  11.363
54129SOL    HW164284   7.009   1.526  11.435
54129SOL    HW264285   6.865   1.490  11.405
54130SOL     OW64286  10.358   3.141   9.599
54130SOL    HW164287  10.361   3.048   9.621
54130SOL    HW264288  10.341   3.185   9.683
54131SOL     OW64289   8.710   9.192   7.924
54131SOL    HW164290   8.674   9.278   7.946
54131SOL    HW264291   8.634   9.135   7.914
54132SOL     OW64292   3.474  11.137  11.044
54132SOL    HW164293   3.415  11.193  11.095
54132SOL    HW264294   3.531  11.096  11.109
54133SOL     OW64295   6.482   3.012   2.848
54133SOL    HW164296   6.499   3.106   2.855
54133SOL    HW264297   6.387   3.004   2.855
54134SOL     OW64298   4.558   5.223   0.548
54134SOL    HW164299   4.591   5.152   0.604
54134SOL    HW264300   4.463   5.218   0.557
54135SOL     OW64301  10.501  10.325  11.020
54135SOL    HW164302  10.569  10.282  10.968
54135SOL    HW264303  10.507  10.417  10.995
54136SOL     OW64304  12.376   6.665   2.361
54136SOL    HW164305  12.448   6.615   2.323
54136SOL    HW264306  12.341   6.717   2.288
54137SOL     OW64307  14.102   5.866   5.933
54137SOL    HW164308  14.170   5.922   5.971
54137SOL    HW264309  14.142   5.828   5.856
54138SOL     OW64310  12.278   4.956   8.328
54138SOL    HW164311  12.324   5.033   8.295
54138SOL    HW264312  12.188   4.967   8.298
54139SOL     OW64313  12.095   6.347   4.143
54139SOL    HW164314  12.187   6.354   4.121
54139SOL    HW264315  12.055   6.427   4.108
54140SOL     OW64316  13.501  11.743   2.281
54140SOL    HW164317  13.577  11.771   2.230
54140SOL    HW264318  13.539  11.697   2.356
54141SOL     OW64319  11.074   4.231  12.615
54141SOL    HW164320  11.088   4.289  12.689
54141SOL    HW264321  11.160   4.193  12.598
54142SOL     OW64322  10.534   9.167   8.090
54142SOL    HW164323  10.574   9.080   8.087
54142SOL    HW264324  10.529   9.194   7.998
54143SOL     OW64325   6.775   3.905   6.946
54143SOL    HW164326   6.756   3.995   6.973
54143SOL    HW264327   6.816   3.913   6.860
54144SOL     OW64328   3.053  10.668   5.486
54144SOL    HW164329   2.998  10.603   5.530
54144SOL    HW264330   3.112  10.616   5.430
54145SOL     OW64331   0.030  14.417   6.117
54145SOL    HW164332   0.041  14.474   6.040
54145SOL    HW264333   0.039  14.476   6.192
54146SOL     OW64334   3.955   0.324   7.877
54146SOL    HW164335   4.006   0.339   7.957
54146SOL    HW264336   3.886   0.390   7.879
54147SOL     OW64337  14.344  10.558  11.694
54147SOL    HW164338  14.393  10.622  11.642
54147SOL    HW264339  14.355  10.587  11.784
54148SOL     OW64340  13.268   0.552   0.870
54148SOL    HW164341  13.257   0.602   0.789
54148SOL    HW264342  13.324   0.478   0.845
54149SOL     OW64343   2.849   6.799  10.152
54149SOL    HW164344   2.897   6.807  10.070
54149SOL    HW264345   2.840   6.889  10.184
54150SOL     OW64346   7.313   5.292   4.200
54150SOL    HW164347   7.389   5.295   4.258
54150SOL    HW264348   7.305   5.200   4.175
54151SOL     OW64349  13.863  13.506   5.138
54151SOL    HW164350  13.945  13.477   5.097
54151SOL    HW264351  13.811  13.539   5.065
54152SOL     OW64352  13.392   7.072   2.586
54152SOL    HW164353  13.340   7.015   2.643
54152SOL    HW264354  13.327   7.123   2.538
54153SOL     OW64355   7.193   6.075   1.055
54153SOL    HW164356   7.177   5.981   1.065
54153SOL    HW264357   7.227   6.084   0.966
54154SOL     OW64358   5.694   4.254   4.887
54154SOL    HW164359   5.653   4.301   4.815
54154SOL    HW264360   5.755   4.194   4.845
54155SOL     OW64361  11.310   3.729   1.286
54155SOL    HW164362  11.300   3.805   1.343
54155SOL    HW264363  11.322   3.656   1.346
54156SOL     OW64364   9.353  11.590  12.615
54156SOL    HW164365   9.258  11.605  12.613
54156SOL    HW264366   9.363  11.503  12.653
54157SOL     OW64367  13.063  13.709   4.316
54157SOL    HW164368  13.041  13.802   4.329
54157SOL    HW264369  12.996  13.677   4.256
54158SOL     OW64370   1.719   0.998  13.268
54158SOL    HW164371   1.676   0.917  13.295
54158SOL    HW264372   1.793   1.007  13.329
54159SOL     OW64373  14.716  11.268  11.282
54159SOL    HW164374  14.755  11.194  11.236
54159SOL    HW264375  14.775  11.341  11.265
54160SOL     OW64376   8.463  10.701   2.372
54160SOL    HW164377   8.535  10.672   2.315
54160SOL    HW264378   8.460  10.796   2.360
54161SOL     OW64379  11.436  13.285   0.638
54161SOL    HW164380  11.516  13.257   0.682
54161SOL    HW264381  11.456  13.374   0.607
54162SOL     OW64382   3.593   6.443   3.856
54162SOL    HW164383   3.546   6.488   3.925
54162SOL    HW264384   3.685   6.466   3.870
54163SOL     OW64385   1.988  12.506   7.921
54163SOL    HW164386   2.021  12.566   7.853
54163SOL    HW264387   1.898  12.488   7.895
54164SOL     OW64388   0.049   7.479   9.214
54164SOL    HW164389  14.834   7.522   9.200
54164SOL    HW264390   0.040   7.394   9.171
54165SOL     OW64391  12.491  11.675   7.134
54165SOL    HW164392  12.457  11.690   7.223
54165SOL    HW264393  12.450  11.594   7.106
54166SOL     OW64394   5.164  10.584   4.785
54166SOL    HW164395   5.199  10.537   4.710
54166SOL    HW264396   5.239  10.596   4.843
54167SOL     OW64397   3.086   0.877   0.677
54167SOL    HW164398   3.131   0.934   0.615
54167SOL    HW264399   3.068   0.797   0.628
54168SOL     OW64400   2.097  12.621   0.047
54168SOL    HW164401   2.164  12.554   0.061
54168SOL    HW264402   2.126  12.695   0.101
54169SOL     OW64403   4.044   1.300  13.850
54169SOL    HW164404   3.994   1.364  13.902
54169SOL    HW264405   4.056   1.343  13.765
54170SOL     OW64406  11.802  14.334  12.716
54170SOL    HW164407  11.889  14.351  12.752
54170SOL    HW264408  11.816  14.325  12.622
54171SOL     OW64409  12.099   3.086   1.396
54171SOL    HW164410  12.191   3.087   1.423
54171SOL    HW264411  12.100   3.114   1.305
54172SOL     OW64412   9.543   1.572   3.967
54172SOL    HW164413   9.609   1.627   4.010
54172SOL    HW264414   9.517   1.621   3.889
54173SOL     OW64415   1.026   7.705  10.976
54173SOL    HW164416   1.048   7.612  10.971
54173SOL    HW264417   0.941   7.707  11.019
54174SOL     OW64418  14.807  11.158   9.522
54174SOL    HW164419   0.011  11.202   9.565
54174SOL    HW264420  14.776  11.221   9.457
54175SOL     OW64421   5.665  11.914   4.230
54175SOL    HW164422   5.684  11.912   4.136
54175SOL    HW264423   5.726  11.979   4.265
54176SOL     OW64424   4.810   2.416   8.557
54176SOL    HW164425   4.886   2.457   8.598
54176SOL    HW264426   4.808   2.451   8.468
54177SOL     OW64427   2.638   0.404   3.969
54177SOL    HW164428   2.610   0.342   3.901
54177SOL    HW264429   2.563   0.410   4.028
54178SOL     OW64430   7.929   3.415   7.067
54178SOL    HW164431   7.991   3.477   7.028
54178SOL    HW264432   7.860   3.406   7.001
54179SOL     OW64433   4.322   4.933   2.021
54179SOL    HW164434   4.364   5.019   2.030
54179SOL    HW264435   4.357   4.882   2.094
54180SOL     OW64436   7.815   9.512   6.230
54180SOL    HW164437   7.723   9.525   6.207
54180SOL    HW264438   7.847   9.600   6.251
54181SOL     OW64439   2.876   9.271  14.160
54181SOL    HW164440   2.899   9.179  14.142
54181SOL    HW264441   2.781   9.268  14.174
54182SOL     OW64442   9.158   1.232  11.050
54182SOL    HW164443   9.102   1.188  11.113
54182SOL    HW264444   9.107   1.307  11.020
54183SOL     OW64445  12.375  12.624   6.213
54183SOL    HW164446  12.415  12.707   6.239
54183SOL    HW264447  12.361  12.576   6.295
54184SOL     OW64448   1.473   4.381   2.632
54184SOL    HW164449   1.472   4.335   2.548
54184SOL    HW264450   1.380   4.387   2.656
54185SOL     OW64451   4.332   0.029   1.975
54185SOL    HW164452   4.279  14.831   2.016
54185SOL    HW264453   4.365  14.859   1.894
54186SOL     OW64454   2.277   3.032   2.183
54186SOL    HW164455   2.234   3.106   2.141
54186SOL    HW264456   2.205   2.981   2.221
54187SOL     OW64457   7.699  14.435   0.635
54187SOL    HW164458   7.725  14.478   0.717
54187SOL    HW264459   7.621  14.484   0.607
54188SOL     OW64460   0.984  12.488   7.458
54188SOL    HW164461   0.896  12.469   7.427
54188SOL    HW264462   0.974  12.509   7.551
54189SOL     OW64463  10.697   9.805  10.456
54189SOL    HW164464  10.670   9.752  10.381
54189SOL    HW264465  10.635   9.878  10.457
54190SOL     OW64466   3.370  13.521   5.708
54190SOL    HW164467   3.433  13.479   5.767
54190SOL    HW264468   3.378  13.614   5.728
54191SOL     OW64469   3.403   5.935   7.948
54191SOL    HW164470   3.419   5.844   7.924
54191SOL    HW264471   3.456   5.986   7.887
54192SOL     OW64472   9.131  12.088   9.380
54192SOL    HW164473   9.141  12.016   9.443
54192SOL    HW264474   9.076  12.152   9.425
54193SOL     OW64475   9.775   0.861  12.497
54193SOL    HW164476   9.789   0.891  12.407
54193SOL    HW264477   9.704   0.797  12.491
54194SOL     OW64478   6.176   4.037  14.318
54194SOL    HW164479   6.215   4.015  14.403
54194SOL    HW264480   6.139   4.124  14.331
54195SOL     OW64481   6.277   6.396   3.402
54195SOL    HW164482   6.237   6.481   3.383
54195SOL    HW264483   6.313   6.367   3.318
54196SOL     OW64484   3.562  10.935  13.543
54196SOL    HW164485   3.506  10.873  13.589
54196SOL    HW264486   3.502  11.003  13.511
54197SOL     OW64487  13.496   0.310   9.270
54197SOL    HW164488  13.418   0.285   9.319
54197SOL    HW264489  13.569   0.288   9.329
54198SOL     OW64490  13.310   6.588   8.069
54198SOL    HW164491  13.311   6.641   7.990
54198SOL    HW264492  13.227   6.540   8.065
54199SOL     OW64493   1.844  11.685   3.498
54199SOL    HW164494   1.867  11.757   3.557
54199SOL    HW264495   1.885  11.608   3.538
54200SOL     OW64496  11.075   9.470   3.499
54200SOL    HW164497  11.125   9.523   3.437
54200SOL    HW264498  10.984   9.477   3.468
54201SOL     OW64499  12.946   8.414   7.843
54201SOL    HW164500  13.035   8.425   7.876
54201SOL    HW264501  12.908   8.502   7.844
54202SOL     OW64502   7.347  10.645   0.117
54202SOL    HW164503   7.389  10.662   0.033
54202SOL    HW264504   7.377  10.716   0.173
54203SOL     OW64505   6.531   7.377   6.203
54203SOL    HW164506   6.460   7.362   6.141
54203SOL    HW264507   6.585   7.444   6.162
54204SOL     OW64508   4.202   9.569   4.492
54204SOL    HW164509   4.112   9.593   4.471
54204SOL    HW264510   4.255   9.627   4.438
54205SOL     OW64511  10.755   8.488   3.745
54205SOL    HW164512  10.832   8.447   3.705
54205SOL    HW264513  10.687   8.481   3.679
54206SOL     OW64514   5.845   8.294   7.495
54206SOL    HW164515   5.775   8.234   7.522
54206SOL    HW264516   5.886   8.321   7.578
54207SOL     OW64517   4.456  11.489   7.682
54207SOL    HW164518   4.401  11.558   7.721
54207SOL    HW264519   4.536  11.534   7.656
54208SOL     OW64520   0.839   8.725   6.470
54208SOL    HW164521   0.840   8.819   6.489
54208SOL    HW264522   0.754   8.696   6.503
54209SOL     OW64523  11.357  12.815   6.650
54209SOL    HW164524  11.354  12.736   6.596
54209SOL    HW264525  11.273  12.859   6.633
54210SOL     OW64526  14.740  10.012   3.153
54210SOL    HW164527  14.804  10.056   3.209
54210SOL    HW264528  14.656  10.049   3.178
54211SOL     OW64529   3.449   7.841   1.945
54211SOL    HW164530   3.463   7.934   1.930
54211SOL    HW264531   3.441   7.833   2.040
54212SOL     OW64532   4.128   8.061   9.298
54212SOL    HW164533   4.164   8.137   9.343
54212SOL    HW264534   4.039   8.087   9.274
54213SOL     OW64535  14.268   0.980   1.427
54213SOL    HW164536  14.249   0.998   1.519
54213SOL    HW264537  14.188   1.004   1.380
54214SOL     OW64538   7.728  11.222   6.190
54214SOL    HW164539   7.696  11.206   6.279
54214SOL    HW264540   7.824  11.223   6.199
54215SOL     OW64541   0.438   7.672  12.639
54215SOL    HW164542   0.401   7.609  12.578
54215SOL    HW264543   0.503   7.720  12.588
54216SOL     OW64544   8.085  11.496  12.138
54216SOL    HW164545   7.991  11.500  12.155
54216SOL    HW264546   8.118  11.581  12.167
54217SOL     OW64547   2.235  11.373   7.113
54217SOL    HW164548   2.248  11.392   7.020
54217SOL    HW264549   2.285  11.293   7.128
54218SOL     OW64550   0.536   0.692   5.716
54218SOL    HW164551   0.495   0.621   5.765
54218SOL    HW264552   0.542   0.764   5.779
54219SOL     OW64553   7.156   2.636  11.068
54219SOL    HW164554   7.208   2.600  11.140
54219SOL    HW264555   7.115   2.559  11.028
54220SOL     OW64556  13.133  10.910   4.104
54220SOL    HW164557  13.168  10.994   4.076
54220SOL    HW264558  13.189  10.882   4.176
54221SOL     OW64559   5.041  12.288   2.897
54221SOL    HW164560   5.058  12.238   2.817
54221SOL    HW264561   5.123  12.335   2.914
54222SOL     OW64562   3.128   9.656  13.120
54222SOL    HW164563   3.041   9.690  13.097
54222SOL    HW264564   3.110   9.571  13.159
54223SOL     OW64565  13.579   8.982   5.573
54223SOL    HW164566  13.630   8.901   5.571
54223SOL    HW264567  13.520   8.975   5.498
54224SOL     OW64568   3.246   3.245  10.543
54224SOL    HW164569   3.173   3.284  10.495
54224SOL    HW264570   3.251   3.296  10.624
54225SOL     OW64571   5.625  10.375  11.721
54225SOL    HW164572   5.633  10.404  11.812
54225SOL    HW264573   5.707  10.328  11.704
54226SOL     OW64574   3.046   2.066   5.607
54226SOL    HW164575   3.111   2.002   5.579
54226SOL    HW264576   3.097   2.144   5.629
54227SOL     OW64577   9.436   9.488  12.972
54227SOL    HW164578   9.429   9.440  13.054
54227SOL    HW264579   9.519   9.459  12.935
54228SOL     OW64580   4.766  12.330  14.610
54228SOL    HW164581   4.821  12.389  14.560
54228SOL    HW264582   4.677  12.346  14.578
54229SOL     OW64583  11.832   9.747   8.830
54229SOL    HW164584  11.780   9.752   8.911
54229SOL    HW264585  11.792   9.675   8.781
54230SOL     OW64586   1.332  14.438  11.377
54230SOL    HW164587   1.317  14.530  11.399
54230SOL    HW264588   1.245  14.397  11.383
54231SOL     OW64589   9.802  11.042   8.793
54231SOL    HW164590   9.718  11.006   8.823
54231SOL    HW264591   9.860  11.032   8.868
54232SOL     OW64592   8.638   1.638   7.743
54232SOL    HW164593   8.731   1.619   7.742
54232SOL    HW264594   8.626   1.705   7.676
54233SOL     OW64595   0.913   4.535   2.883
54233SOL    HW164596   0.949   4.612   2.926
54233SOL    HW264597   0.818   4.549   2.882
54234SOL     OW64598   9.774  10.444   6.762
54234SOL    HW164599   9.823  10.367   6.793
54234SOL    HW264600   9.837  10.493   6.709
54235SOL     OW64601   3.948   9.965   7.226
54235SOL    HW164602   3.954   9.942   7.133
54235SOL    HW264603   3.995  10.048   7.234
54236SOL     OW64604   8.297   6.782   4.561
54236SOL    HW164605   8.275   6.829   4.481
54236SOL    HW264606   8.227   6.717   4.572
54237SOL     OW64607  14.192   6.831   4.217
54237SOL    HW164608  14.285   6.824   4.238
54237SOL    HW264609  14.153   6.871   4.295
54238SOL     OW64610   2.722   7.425   8.118
54238SOL    HW164611   2.690   7.382   8.198
54238SOL    HW264612   2.697   7.516   8.129
54239SOL     OW64613   5.268   0.541  13.028
54239SOL    HW164614   5.271   0.448  13.005
54239SOL    HW264615   5.212   0.544  13.106
54240SOL     OW64616   5.459  14.611  12.558
54240SOL    HW164617   5.488  14.699  12.533
54240SOL    HW264618   5.483  14.603  12.650
54241SOL     OW64619   5.270   7.860  11.223
54241SOL    HW164620   5.339   7.826  11.281
54241SOL    HW264621   5.205   7.897  11.283
54242SOL     OW64622  10.509  11.882  11.377
54242SOL    HW164623  10.463  11.917  11.300
54242SOL    HW264624  10.575  11.948  11.397
54243SOL     OW64625   9.175   4.347   0.889
54243SOL    HW164626   9.089   4.342   0.848
54243SOL    HW264627   9.217   4.265   0.867
54244SOL     OW64628  10.329  13.462   3.001
54244SOL    HW164629  10.244  13.422   3.022
54244SOL    HW264630  10.381  13.390   2.965
54245SOL     OW64631   1.463   1.420   6.092
54245SOL    HW164632   1.425   1.340   6.055
54245SOL    HW264633   1.550   1.394   6.121
54246SOL     OW64634   6.349   9.786   0.995
54246SOL    HW164635   6.258   9.764   0.978
54246SOL    HW264636   6.398   9.747   0.923
54247SOL     OW64637  14.831  12.085   8.738
54247SOL    HW164638   0.021  12.028   8.786
54247SOL    HW264639  14.759  12.029   8.711
54248SOL     OW64640   8.202  14.792   9.192
54248SOL    HW164641   8.220  14.714   9.139
54248SOL    HW264642   8.124  14.768   9.243
54249SOL     OW64643   4.774   1.472   1.376
54249SOL    HW164644   4.762   1.475   1.471
54249SOL    HW264645   4.724   1.547   1.343
54250SOL     OW64646   2.740  13.016  11.052
54250SOL    HW164647   2.645  13.024  11.058
54250SOL    HW264648   2.755  12.950  10.984
54251SOL     OW64649  10.844   7.584   0.559
54251SOL    HW164650  10.792   7.533   0.622
54251SOL    HW264651  10.787   7.591   0.482
54252SOL     OW64652  14.711  14.857   3.603
54252SOL    HW164653  14.639  14.796   3.620
54252SOL    HW264654  14.744   0.010   3.690
54253SOL     OW64655   1.182   3.567  13.822
54253SOL    HW164656   1.230   3.590  13.742
54253SOL    HW264657   1.121   3.499  13.796
54254SOL     OW64658   9.636  10.959  11.689
54254SOL    HW164659   9.671  10.985  11.775
54254SOL    HW264660   9.653  11.034  11.633
54255SOL     OW64661  11.822  13.709  13.053
54255SOL    HW164662  11.750  13.664  13.098
54255SOL    HW264663  11.902  13.668  13.088
54256SOL     OW64664   9.067   7.280   9.240
54256SOL    HW164665   8.992   7.271   9.299
54256SOL    HW264666   9.084   7.374   9.236
54257SOL     OW64667   1.428   0.615   5.643
54257SOL    HW164668   1.381   0.692   5.613
54257SOL    HW264669   1.374   0.580   5.714
54258SOL     OW64670   6.587  11.476   9.709
54258SOL    HW164671   6.589  11.518   9.794
54258SOL    HW264672   6.649  11.527   9.656
54259SOL     OW64673   8.560  11.149  13.224
54259SOL    HW164674   8.618  11.200  13.167
54259SOL    HW264675   8.565  11.193  13.309
54260SOL     OW64676  11.840   1.752   0.916
54260SOL    HW164677  11.873   1.833   0.954
54260SOL    HW264678  11.745   1.760   0.921
54261SOL     OW64679   7.805  11.401   8.883
54261SOL    HW164680   7.824  11.494   8.892
54261SOL    HW264681   7.712  11.392   8.905
54262SOL     OW64682   3.959   5.109   1.660
54262SOL    HW164683   3.938   5.124   1.753
54262SOL    HW264684   3.953   5.014   1.650
54263SOL     OW64685   7.697  14.320   8.432
54263SOL    HW164686   7.776  14.364   8.401
54263SOL    HW264687   7.718  14.226   8.428
54264SOL     OW64688  14.816   8.802   4.441
54264SOL    HW164689  14.843   8.763   4.525
54264SOL    HW264690  14.849   8.891   4.445
54265SOL     OW64691   6.058  13.083   7.945
54265SOL    HW164692   6.102  13.137   8.010
54265SOL    HW264693   6.027  13.145   7.879
54266SOL     OW64694  12.621   4.584   1.231
54266SOL    HW164695  12.545   4.574   1.288
54266SOL    HW264696  12.584   4.589   1.143
54267SOL     OW64697   1.968   3.603   3.073
54267SOL    HW164698   2.026   3.613   2.997
54267SOL    HW264699   1.956   3.691   3.106
54268SOL     OW64700  11.471   4.055   8.922
54268SOL    HW164701  11.376   4.051   8.927
54268SOL    HW264702  11.501   4.009   9.000
54269SOL     OW64703   3.611   4.728   3.656
54269SOL    HW164704   3.667   4.698   3.728
54269SOL    HW264705   3.667   4.719   3.578
54270SOL     OW64706   3.931   9.862  10.152
54270SOL    HW164707   3.905   9.777  10.117
54270SOL    HW264708   4.007   9.843  10.207
54271SOL     OW64709   6.180   6.536   4.580
54271SOL    HW164710   6.187   6.445   4.609
54271SOL    HW264711   6.105   6.571   4.627
54272SOL     OW64712  10.670   0.071   0.292
54272SOL    HW164713  10.711   0.042   0.374
54272SOL    HW264714  10.598   0.127   0.320
54273SOL     OW64715  12.621   3.418  14.178
54273SOL    HW164716  12.689   3.377  14.232
54273SOL    HW264717  12.539   3.385  14.215
54274SOL     OW64718   2.715   9.666   7.862
54274SOL    HW164719   2.770   9.614   7.803
54274SOL    HW264720   2.771   9.682   7.939
54275SOL     OW64721   9.490  10.942   4.772
54275SOL    HW164722   9.420  10.973   4.829
54275SOL    HW264723   9.526  10.866   4.817
54276SOL     OW64724   9.690   0.734   3.129
54276SOL    HW164725   9.760   0.733   3.063
54276SOL    HW264726   9.709   0.658   3.184
54277SOL     OW64727   5.642   0.292   7.038
54277SOL    HW164728   5.705   0.289   7.110
54277SOL    HW264729   5.687   0.247   6.966
54278SOL     OW64730   3.553  10.295  13.344
54278SOL    HW164731   3.492  10.361  13.375
54278SOL    HW264732   3.630  10.344  13.317
54279SOL     OW64733  11.311   6.503   2.742
54279SOL    HW164734  11.327   6.455   2.823
54279SOL    HW264735  11.265   6.583   2.770
54280SOL     OW64736  10.241  13.198  11.909
54280SOL    HW164737  10.227  13.248  11.989
54280SOL    HW264738  10.162  13.144  11.900
54281SOL     OW64739  14.690   9.367   0.359
54281SOL    HW164740  14.596   9.383   0.351
54281SOL    HW264741  14.728   9.455   0.364
54282SOL     OW64742   1.488   2.859   3.639
54282SOL    HW164743   1.526   2.873   3.552
54282SOL    HW264744   1.563   2.839   3.695
54283SOL     OW64745  11.673   9.971   9.875
54283SOL    HW164746  11.611  10.021   9.927
54283SOL    HW264747  11.755  10.021   9.881
54284SOL     OW64748   8.023   7.725  11.359
54284SOL    HW164749   7.967   7.752  11.287
54284SOL    HW264750   8.109   7.763  11.339
54285SOL     OW64751   4.177   3.960  10.781
54285SOL    HW164752   4.242   4.003  10.725
54285SOL    HW264753   4.093   3.978  10.740
54286SOL     OW64754   0.148   0.339   8.423
54286SOL    HW164755   0.074   0.398   8.404
54286SOL    HW264756   0.157   0.285   8.345
54287SOL     OW64757   4.902  13.857  13.487
54287SOL    HW164758   4.822  13.907  13.506
54287SOL    HW264759   4.901  13.846  13.392
54288SOL     OW64760   3.543   3.875  14.615
54288SOL    HW164761   3.615   3.928  14.581
54288SOL    HW264762   3.580   3.788  14.627
54289SOL     OW64763   7.347  11.791   8.873
54289SOL    HW164764   7.355  11.886   8.881
54289SOL    HW264765   7.314  11.763   8.959
54290SOL     OW64766  12.170   8.226   4.908
54290SOL    HW164767  12.264   8.235   4.895
54290SOL    HW264768  12.156   8.250   5.000
54291SOL     OW64769   9.843   9.094   3.007
54291SOL    HW164770   9.804   9.011   3.034
54291SOL    HW264771   9.853   9.144   3.089
54292SOL     OW64772  12.767   3.532   7.944
54292SOL    HW164773  12.730   3.447   7.920
54292SOL    HW264774  12.695   3.594   7.932
54293SOL     OW64775   0.986   8.151  14.780
54293SOL    HW164776   1.018   8.178  14.866
54293SOL    HW264777   0.916   8.213  14.759
54294SOL     OW64778   2.492  14.744   3.731
54294SOL    HW164779   2.587  14.756   3.738
54294SOL    HW264780   2.480  14.649   3.725
54295SOL     OW64781   0.904   2.803  10.932
54295SOL    HW164782   0.990   2.760  10.927
54295SOL    HW264783   0.843   2.732  10.953
54296SOL     OW64784   4.920   1.525   7.899
54296SOL    HW164785   4.884   1.455   7.843
54296SOL    HW264786   4.943   1.595   7.838
54297SOL     OW64787   4.211   4.481   6.896
54297SOL    HW164788   4.123   4.459   6.928
54297SOL    HW264789   4.242   4.401   6.855
54298SOL     OW64790  10.240  11.221   4.349
54298SOL    HW164791  10.320  11.241   4.300
54298SOL    HW264792  10.268  11.218   4.440
54299SOL     OW64793   7.166   0.010   8.857
54299SOL    HW164794   7.144  14.793   8.821
54299SOL    HW264795   7.261   0.015   8.849
54300SOL     OW64796   9.594  12.281   7.832
54300SOL    HW164797   9.555  12.252   7.749
54300SOL    HW264798   9.547  12.362   7.852
54301SOL     OW64799  14.085  12.434   0.280
54301SOL    HW164800  14.050  12.393   0.201
54301SOL    HW264801  14.010  12.480   0.318
54302SOL     OW64802  11.018   7.117  12.961
54302SOL    HW164803  11.032   7.115  12.866
54302SOL    HW264804  11.088   7.062  12.996
54303SOL     OW64805   7.657   9.458  14.322
54303SOL    HW164806   7.734   9.415  14.285
54303SOL    HW264807   7.601   9.386  14.351
54304SOL     OW64808   7.809  13.830   3.224
54304SOL    HW164809   7.872  13.760   3.208
54304SOL    HW264810   7.818  13.850   3.317
54305SOL     OW64811  10.287   7.088   0.070
54305SOL    HW164812  10.242   7.118  14.860
54305SOL    HW264813  10.217   7.050   0.124
54306SOL     OW64814   2.265   9.621   3.403
54306SOL    HW164815   2.302   9.542   3.364
54306SOL    HW264816   2.312   9.630   3.486
54307SOL     OW64817   5.253   0.675   3.436
54307SOL    HW164818   5.306   0.667   3.515
54307SOL    HW264819   5.165   0.651   3.463
54308SOL     OW64820  12.562   1.116  12.964
54308SOL    HW164821  12.471   1.087  12.974
54308SOL    HW264822  12.587   1.085  12.876
54309SOL     OW64823  11.183   8.789   4.108
54309SOL    HW164824  11.221   8.741   4.034
54309SOL    HW264825  11.142   8.721   4.161
54310SOL     OW64826  12.367   4.449   7.381
54310SOL    HW164827  12.319   4.464   7.463
54310SOL    HW264828  12.311   4.488   7.313
54311SOL     OW64829   8.691   8.872   0.669
54311SOL    HW164830   8.600   8.902   0.666
54311SOL    HW264831   8.742   8.945   0.634
54312SOL     OW64832  11.382  12.624   5.956
54312SOL    HW164833  11.364  12.600   6.047
54312SOL    HW264834  11.454  12.566   5.930
54313SOL     OW64835   3.013   1.462   1.545
54313SOL    HW164836   2.955   1.394   1.510
54313SOL    HW264837   3.096   1.417   1.559
54314SOL     OW64838   4.600   0.358  11.956
54314SOL    HW164839   4.642   0.290  11.902
54314SOL    HW264840   4.640   0.439  11.926
54315SOL     OW64841   9.167  14.119   8.428
54315SOL    HW164842   9.160  14.201   8.477
54315SOL    HW264843   9.082  14.110   8.385
54316SOL     OW64844   2.050   7.399  11.562
54316SOL    HW164845   2.016   7.366  11.645
54316SOL    HW264846   2.102   7.326  11.527
54317SOL     OW64847  11.184   1.642   0.369
54317SOL    HW164848  11.100   1.658   0.411
54317SOL    HW264849  11.242   1.711   0.402
54318SOL     OW64850   9.114   1.843  12.450
54318SOL    HW164851   9.148   1.930  12.469
54318SOL    HW264852   9.154   1.820  12.366
54319SOL     OW64853   8.540   2.074   1.514
54319SOL    HW164854   8.621   2.024   1.517
54319SOL    HW264855   8.509   2.064   1.424
54320SOL     OW64856   7.983  14.091   7.996
54320SOL    HW164857   8.006  14.036   8.071
54320SOL    HW264858   8.047  14.069   7.929
54321SOL     OW64859  11.936  13.315  13.673
54321SOL    HW164860  12.025  13.281  13.670
54321SOL    HW264861  11.898  13.291  13.589
54322SOL     OW64862   7.977   1.543   2.742
54322SOL    HW164863   8.058   1.572   2.701
54322SOL    HW264864   7.992   1.450   2.762
54323SOL     OW64865   7.019   5.609   8.230
54323SOL    HW164866   6.988   5.532   8.276
54323SOL    HW264867   7.035   5.579   8.140
54324SOL     OW64868  10.393   5.130  13.394
54324SOL    HW164869  10.387   5.224  13.373
54324SOL    HW264870  10.379   5.086  13.310
54325SOL     OW64871  11.937  13.298  14.327
54325SOL    HW164872  11.991  13.227  14.362
54325SOL    HW264873  11.992  13.376  14.335
54326SOL     OW64874   6.493  10.528  11.433
54326SOL    HW164875   6.553  10.537  11.507
54326SOL    HW264876   6.550  10.519  11.357
54327SOL     OW64877   7.739  12.087   4.103
54327SOL    HW164878   7.696  12.168   4.132
54327SOL    HW264879   7.832  12.102   4.119
54328SOL     OW64880   2.496  13.408   2.809
54328SOL    HW164881   2.563  13.353   2.850
54328SOL    HW264882   2.476  13.363   2.726
54329SOL     OW64883   7.312  12.701   9.077
54329SOL    HW164884   7.392  12.699   9.025
54329SOL    HW264885   7.254  12.760   9.028
54330SOL     OW64886   5.820  11.088   5.961
54330SOL    HW164887   5.768  11.169   5.971
54330SOL    HW264888   5.886  11.094   6.030
54331SOL     OW64889   2.842   0.141  11.208
54331SOL    HW164890   2.876   0.153  11.297
54331SOL    HW264891   2.748   0.156  11.216
54332SOL     OW64892   4.299   2.795   3.307
54332SOL    HW164893   4.240   2.865   3.335
54332SOL    HW264894   4.380   2.841   3.285
54333SOL     OW64895   6.608   6.424   7.392
54333SOL    HW164896   6.565   6.379   7.464
54333SOL    HW264897   6.701   6.414   7.409
54334SOL     OW64898   7.591   7.963   6.907
54334SOL    HW164899   7.615   7.875   6.878
54334SOL    HW264900   7.638   8.022   6.849
54335SOL     OW64901   7.883  14.133  12.419
54335SOL    HW164902   7.877  14.068  12.350
54335SOL    HW264903   7.933  14.205  12.381
54336SOL     OW64904   0.907   1.934  13.153
54336SOL    HW164905   0.973   2.002  13.142
54336SOL    HW264906   0.825   1.975  13.124
54337SOL     OW64907  12.351   4.094   3.894
54337SOL    HW164908  12.257   4.077   3.890
54337SOL    HW264909  12.376   4.072   3.984
54338SOL     OW64910   2.904   8.583  10.587
54338SOL    HW164911   2.902   8.677  10.566
54338SOL    HW264912   2.905   8.580  10.683
54339SOL     OW64913  10.806  13.788  13.121
54339SOL    HW164914  10.779  13.753  13.206
54339SOL    HW264915  10.893  13.752  13.106
54340SOL     OW64916   3.924  10.597   4.747
54340SOL    HW164917   3.875  10.515   4.751
54340SOL    HW264918   3.864  10.663   4.782
54341SOL     OW64919  12.597   5.591   5.738
54341SOL    HW164920  12.509   5.629   5.743
54341SOL    HW264921  12.591   5.527   5.667
54342SOL     OW64922   6.012   6.232   0.372
54342SOL    HW164923   5.979   6.252   0.284
54342SOL    HW264924   5.980   6.144   0.390
54343SOL     OW64925   5.692  14.086   9.977
54343SOL    HW164926   5.706  14.068   9.884
54343SOL    HW264927   5.670  14.179   9.980
54344SOL     OW64928   5.111   3.722   7.852
54344SOL    HW164929   5.124   3.629   7.832
54344SOL    HW264930   5.022   3.727   7.887
54345SOL     OW64931   5.878   0.853   1.219
54345SOL    HW164932   5.915   0.882   1.136
54345SOL    HW264933   5.949   0.805   1.262
54346SOL     OW64934   5.009   5.569  11.805
54346SOL    HW164935   5.047   5.482  11.799
54346SOL    HW264936   5.065   5.624  11.750
54347SOL     OW64937  14.445   7.676   3.210
54347SOL    HW164938  14.424   7.712   3.296
54347SOL    HW264939  14.365   7.686   3.159
54348SOL     OW64940   6.054   9.338   0.461
54348SOL    HW164941   5.980   9.285   0.492
54348SOL    HW264942   6.022   9.380   0.382
54349SOL     OW64943   4.949   7.449  13.510
54349SOL    HW164944   4.909   7.397  13.580
54349SOL    HW264945   5.034   7.408  13.495
54350SOL     OW64946  11.368  14.176   0.153
54350SOL    HW164947  11.361  14.207   0.062
54350SOL    HW264948  11.305  14.104   0.159
54351SOL     OW64949   9.575   0.631   4.011
54351SOL    HW164950   9.644   0.660   3.952
54351SOL    HW264951   9.605   0.657   4.098
54352SOL     OW64952   3.833  14.684  11.825
54352SOL    HW164953   3.867  14.603  11.863
54352SOL    HW264954   3.783  14.724  11.896
54353SOL     OW64955   0.498  12.986   9.277
54353SOL    HW164956   0.513  12.899   9.316
54353SOL    HW264957   0.585  13.018   9.256
54354SOL     OW64958   4.899  14.041   6.583
54354SOL    HW164959   4.826  14.031   6.644
54354SOL    HW264960   4.904  13.957   6.537
54355SOL     OW64961   6.833   1.819  12.040
54355SOL    HW164962   6.824   1.776  11.955
54355SOL    HW264963   6.861   1.908  12.019
54356SOL     OW64964   6.688   2.637  11.950
54356SOL    HW164965   6.722   2.680  11.871
54356SOL    HW264966   6.613   2.690  11.976
54357SOL     OW64967   3.541  12.669   8.848
54357SOL    HW164968   3.534  12.578   8.818
54357SOL    HW264969   3.588  12.664   8.931
54358SOL     OW64970   2.928  11.450   6.356
54358SOL    HW164971   3.004  11.403   6.321
54358SOL    HW264972   2.958  11.483   6.441
54359SOL     OW64973  10.390   1.517  12.013
54359SOL    HW164974  10.421   1.604  11.989
54359SOL    HW264975  10.374   1.523  12.108
54360SOL     OW64976  10.055  13.809  14.741
54360SOL    HW164977   9.959  13.815  14.749
54360SOL    HW264978  10.069  13.751  14.667
54361SOL     OW64979   0.805   9.218   9.559
54361SOL    HW164980   0.735   9.282   9.547
54361SOL    HW264981   0.766   9.135   9.533
54362SOL     OW64982  11.839   8.430   3.339
54362SOL    HW164983  11.785   8.383   3.402
54362SOL    HW264984  11.929   8.414   3.367
54363SOL     OW64985  13.260  13.579   0.728
54363SOL    HW164986  13.227  13.506   0.780
54363SOL    HW264987  13.347  13.597   0.763
54364SOL     OW64988   0.763   8.180  14.456
54364SOL    HW164989   0.747   8.099  14.504
54364SOL    HW264990   0.694   8.182  14.390
54365SOL     OW64991   5.224  13.747   2.315
54365SOL    HW164992   5.232  13.656   2.287
54365SOL    HW264993   5.215  13.797   2.234
54366SOL     OW64994   1.904   1.341   5.159
54366SOL    HW164995   1.927   1.342   5.066
54366SOL    HW264996   1.900   1.248   5.182
54367SOL     OW64997   7.944   2.854  13.818
54367SOL    HW164998   7.963   2.909  13.742
54367SOL    HW264999   7.915   2.916  13.885
54368SOL     OW65000   0.688   2.046  13.013
54368SOL    HW165001   0.707   2.083  12.927
54368SOL    HW265002   0.597   2.070  13.030
54369SOL     OW65003   8.673   5.868  12.803
54369SOL    HW165004   8.602   5.932  12.812
54369SOL    HW265005   8.742   5.902  12.860
54370SOL     OW65006   6.101   1.304   3.065
54370SOL    HW165007   6.020   1.326   3.020
54370SOL    HW265008   6.104   1.208   3.062
54371SOL     OW65009   0.219   8.680  10.703
54371SOL    HW165010   0.162   8.748  10.666
54371SOL    HW265011   0.288   8.729  10.747
54372SOL     OW65012   7.666  10.940  13.810
54372SOL    HW165013   7.621  11.014  13.769
54372SOL    HW265014   7.738  10.920  13.750
54373SOL     OW65015   0.135   4.982   1.335
54373SOL    HW165016   0.133   4.926   1.257
54373SOL    HW265017   0.054   5.032   1.330
54374SOL     OW65018   8.291   2.788   2.954
54374SOL    HW165019   8.356   2.784   3.024
54374SOL    HW265020   8.210   2.813   3.000
54375SOL     OW65021  12.599   3.499   4.034
54375SOL    HW165022  12.521   3.444   4.029
54375SOL    HW265023  12.595   3.538   4.121
54376SOL     OW65024   2.387   1.886   4.994
54376SOL    HW165025   2.474   1.903   5.031
54376SOL    HW265026   2.374   1.792   5.006
54377SOL     OW65027  13.173  11.195   8.344
54377SOL    HW165028  13.241  11.211   8.278
54377SOL    HW265029  13.218  11.208   8.427
54378SOL     OW65030   8.128  11.770  12.226
54378SOL    HW165031   8.204  11.741  12.276
54378SOL    HW265032   8.164  11.806  12.145
54379SOL     OW65033   2.262   6.151   6.357
54379SOL    HW165034   2.200   6.087   6.393
54379SOL    HW265035   2.330   6.098   6.316
54380SOL     OW65036  10.072  13.546   7.586
54380SOL    HW165037  10.119  13.463   7.594
54380SOL    HW265038  10.119  13.593   7.517
54381SOL     OW65039   7.934   6.559   1.882
54381SOL    HW165040   7.965   6.596   1.965
54381SOL    HW265041   7.998   6.491   1.862
54382SOL     OW65042   2.710   0.416  14.215
54382SOL    HW165043   2.756   0.480  14.270
54382SOL    HW265044   2.658   0.469  14.155
54383SOL     OW65045   6.312  14.172  12.766
54383SOL    HW165046   6.373  14.231  12.809
54383SOL    HW265047   6.368  14.108  12.721
54384SOL     OW65048  11.174  12.208   2.639
54384SOL    HW165049  11.206  12.276   2.579
54384SOL    HW265050  11.252  12.178   2.685
54385SOL     OW65051   1.735   3.525   3.341
54385SOL    HW165052   1.804   3.591   3.331
54385SOL    HW265053   1.659   3.563   3.296
54386SOL     OW65054   8.211   9.503   4.448
54386SOL    HW165055   8.184   9.550   4.527
54386SOL    HW265056   8.137   9.514   4.387
54387SOL     OW65057   0.722   2.223  11.530
54387SOL    HW165058   0.791   2.277  11.493
54387SOL    HW265059   0.675   2.282  11.590
54388SOL     OW65060   2.310  12.132   2.294
54388SOL    HW165061   2.242  12.187   2.333
54388SOL    HW265062   2.269  12.046   2.284
54389SOL     OW65063   5.575   6.840   6.564
54389SOL    HW165064   5.641   6.771   6.559
54389SOL    HW265065   5.515   6.821   6.492
54390SOL     OW65066   2.984   3.409   1.381
54390SOL    HW165067   3.001   3.495   1.419
54390SOL    HW265068   2.888   3.405   1.374
54391SOL     OW65069   3.206   8.339   5.827
54391SOL    HW165070   3.177   8.289   5.751
54391SOL    HW265071   3.149   8.415   5.829
54392SOL     OW65072  12.228   0.489   6.139
54392SOL    HW165073  12.219   0.396   6.158
54392SOL    HW265074  12.222   0.495   6.044
54393SOL     OW65075   6.995   3.230   6.623
54393SOL    HW165076   6.953   3.212   6.707
54393SOL    HW265077   7.087   3.245   6.645
54394SOL     OW65078  12.844   2.405   5.935
54394SOL    HW165079  12.916   2.351   5.969
54394SOL    HW265080  12.787   2.343   5.891
54395SOL     OW65081   2.982   0.657   6.433
54395SOL    HW165082   2.994   0.591   6.502
54395SOL    HW265083   2.953   0.606   6.357
54396SOL     OW65084   5.701   5.681  14.601
54396SOL    HW165085   5.795   5.676  14.621
54396SOL    HW265086   5.683   5.602  14.550
54397SOL     OW65087   9.115   6.946   5.114
54397SOL    HW165088   9.031   6.975   5.149
54397SOL    HW265089   9.178   6.965   5.184
54398SOL     OW65090  10.423   9.364   9.160
54398SOL    HW165091  10.487   9.294   9.161
54398SOL    HW265092  10.354   9.335   9.220
54399SOL     OW65093  14.823   0.647  12.951
54399SOL    HW165094  14.759   0.665  13.020
54399SOL    HW265095  14.818   0.723  12.892
54400SOL     OW65096  11.166  13.335  10.747
54400SOL    HW165097  11.128  13.381  10.823
54400SOL    HW265098  11.192  13.405  10.688
54401SOL     OW65099   0.631   0.887   1.044
54401SOL    HW165100   0.614   0.949   1.115
54401SOL    HW265101   0.711   0.920   1.003
54402SOL     OW65102  13.822  11.970   6.683
54402SOL    HW165103  13.763  11.895   6.690
54402SOL    HW265104  13.868  11.956   6.600
54403SOL     OW65105   3.394   4.229  13.468
54403SOL    HW165106   3.481   4.264  13.447
54403SOL    HW265107   3.335   4.275  13.408
54404SOL     OW65108   3.220   2.240   7.137
54404SOL    HW165109   3.182   2.302   7.200
54404SOL    HW265110   3.313   2.237   7.161
54405SOL     OW65111   0.850   4.481  14.440
54405SOL    HW165112   0.808   4.558  14.479
54405SOL    HW265113   0.925   4.516  14.393
54406SOL     OW65114   7.131   4.976  12.681
54406SOL    HW165115   7.129   4.978  12.585
54406SOL    HW265116   7.044   5.006  12.708
54407SOL     OW65117  12.130  12.522  14.703
54407SOL    HW165118  12.143  12.550  14.612
54407SOL    HW265119  12.132  12.603  14.754
54408SOL     OW65120  13.374   7.358   0.135
54408SOL    HW165121  13.316   7.386   0.206
54408SOL    HW265122  13.342   7.405   0.058
54409SOL     OW65123   6.583   6.152   5.639
54409SOL    HW165124   6.592   6.185   5.550
54409SOL    HW265125   6.513   6.088   5.634
54410SOL     OW65126   8.042   1.275  12.886
54410SOL    HW165127   8.074   1.353  12.932
54410SOL    HW265128   8.059   1.294  12.794
54411SOL     OW65129   9.258  14.190   7.527
54411SOL    HW165130   9.174  14.145   7.539
54411SOL    HW265131   9.266  14.247   7.603
54412SOL     OW65132   1.596  13.696  10.865
54412SOL    HW165133   1.667  13.735  10.916
54412SOL    HW265134   1.621  13.604  10.856
54413SOL     OW65135   5.079   2.364   2.065
54413SOL    HW165136   4.985   2.375   2.050
54413SOL    HW265137   5.111   2.453   2.078
54414SOL     OW65138   2.621   1.173  11.242
54414SOL    HW165139   2.682   1.102  11.262
54414SOL    HW265140   2.552   1.164  11.307
54415SOL     OW65141   9.568   9.621   3.931
54415SOL    HW165142   9.472   9.623   3.922
54415SOL    HW265143   9.593   9.533   3.903
54416SOL     OW65144   1.283   7.837   5.735
54416SOL    HW165145   1.219   7.908   5.740
54416SOL    HW265146   1.292   7.807   5.825
54417SOL     OW65147   4.306   4.852   6.666
54417SOL    HW165148   4.228   4.797   6.656
54417SOL    HW265149   4.379   4.793   6.648
54418SOL     OW65150   5.294   2.403  11.171
54418SOL    HW165151   5.199   2.401  11.172
54418SOL    HW265152   5.320   2.345  11.243
54419SOL     OW65153  11.981   7.247   6.453
54419SOL    HW165154  11.926   7.239   6.375
54419SOL    HW265155  11.921   7.281   6.520
54420SOL     OW65156   8.690   5.219   4.276
54420SOL    HW165157   8.732   5.239   4.359
54420SOL    HW265158   8.730   5.279   4.213
54421SOL     OW65159  12.790   2.665   3.840
54421SOL    HW165160  12.837   2.737   3.796
54421SOL    HW265161  12.843   2.646   3.917
54422SOL     OW65162   5.357   9.363   3.684
54422SOL    HW165163   5.308   9.421   3.742
54422SOL    HW265164   5.445   9.401   3.681
54423SOL     OW65165   0.962  13.738   5.258
54423SOL    HW165166   0.904  13.737   5.182
54423SOL    HW265167   1.047  13.764   5.223
54424SOL     OW65168   2.625   2.833  12.850
54424SOL    HW165169   2.649   2.799  12.764
54424SOL    HW265170   2.531   2.817  12.856
54425SOL     OW65171   2.643   6.888  10.365
54425SOL    HW165172   2.682   6.974  10.352
54425SOL    HW265173   2.687   6.831  10.302
54426SOL     OW65174   6.521   6.149   2.639
54426SOL    HW165175   6.580   6.164   2.714
54426SOL    HW265176   6.437   6.128   2.680
54427SOL     OW65177   2.797   6.730  14.482
54427SOL    HW165178   2.811   6.775  14.398
54427SOL    HW265179   2.869   6.761  14.537
54428SOL     OW65180   7.871  14.245   1.359
54428SOL    HW165181   7.867  14.316   1.295
54428SOL    HW265182   7.788  14.199   1.349
54429SOL     OW65183  11.885  10.568   6.962
54429SOL    HW165184  11.924  10.632   7.021
54429SOL    HW265185  11.913  10.483   6.997
54430SOL     OW65186   1.727   1.379   9.829
54430SOL    HW165187   1.735   1.468   9.861
54430SOL    HW265188   1.663   1.384   9.758
54431SOL     OW65189   8.547   3.639   6.244
54431SOL    HW165190   8.503   3.672   6.165
54431SOL    HW265191   8.545   3.712   6.305
54432SOL     OW65192  13.297  12.309   6.408
54432SOL    HW165193  13.217  12.268   6.442
54432SOL    HW265194  13.351  12.323   6.485
54433SOL     OW65195   4.247  12.510  10.055
54433SOL    HW165196   4.219  12.553   9.974
54433SOL    HW265197   4.201  12.426  10.055
54434SOL     OW65198   1.436   5.391  13.977
54434SOL    HW165199   1.437   5.339  13.896
54434SOL    HW265200   1.350   5.432  13.978
54435SOL     OW65201  11.330  10.410   0.505
54435SOL    HW165202  11.417  10.407   0.465
54435SOL    HW265203  11.344  10.452   0.590
54436SOL     OW65204   3.349  11.406   0.223
54436SOL    HW165205   3.401  11.403   0.143
54436SOL    HW265206   3.400  11.461   0.282
54437SOL     OW65207  14.588   4.954  12.197
54437SOL    HW165208  14.555   4.999  12.275
54437SOL    HW265209  14.576   4.861  12.216
54438SOL     OW65210   9.554   6.765  10.818
54438SOL    HW165211   9.523   6.767  10.727
54438SOL    HW265212   9.531   6.677  10.849
54439SOL     OW65213   0.038   1.574   1.137
54439SOL    HW165214   0.041   1.500   1.076
54439SOL    HW265215  14.869   1.646   1.086
54440SOL     OW65216   3.758  14.223   9.023
54440SOL    HW165217   3.836  14.174   9.047
54440SOL    HW265218   3.687  14.159   9.024
54441SOL     OW65219   7.716   7.793  11.558
54441SOL    HW165220   7.695   7.724  11.495
54441SOL    HW265221   7.727   7.871  11.505
54442SOL     OW65222   1.810   3.815   9.766
54442SOL    HW165223   1.892   3.861   9.748
54442SOL    HW265224   1.809   3.803   9.861
54443SOL     OW65225   5.544   5.324   2.772
54443SOL    HW165226   5.632   5.356   2.755
54443SOL    HW265227   5.513   5.292   2.687
54444SOL     OW65228   6.952  12.608  10.301
54444SOL    HW165229   6.970  12.633  10.391
54444SOL    HW265230   6.979  12.683  10.249
54445SOL     OW65231   3.548  13.218  10.155
54445SOL    HW165232   3.457  13.192  10.142
54445SOL    HW265233   3.568  13.190  10.245
54446SOL     OW65234   0.288   4.894   3.976
54446SOL    HW165235   0.352   4.851   3.919
54446SOL    HW265236   0.260   4.972   3.926
54447SOL     OW65237   9.831   7.018  13.429
54447SOL    HW165238   9.766   7.072  13.473
54447SOL    HW265239   9.787   6.934  13.415
54448SOL     OW65240  10.772  12.033  12.545
54448SOL    HW165241  10.759  11.994  12.632
54448SOL    HW265242  10.757  12.126  12.558
54449SOL     OW65243   9.684   8.181   8.702
54449SOL    HW165244   9.663   8.137   8.619
54449SOL    HW265245   9.696   8.110   8.765
54450SOL     OW65246  11.229   0.750   5.168
54450SOL    HW165247  11.214   0.667   5.122
54450SOL    HW265248  11.166   0.811   5.129
54451SOL     OW65249  11.308   6.669  10.032
54451SOL    HW165250  11.323   6.598  10.094
54451SOL    HW265251  11.229   6.643   9.985
54452SOL     OW65252  12.102   6.728  13.454
54452SOL    HW165253  12.080   6.806  13.404
54452SOL    HW265254  12.027   6.714  13.512
54453SOL     OW65255   0.929   9.500   5.478
54453SOL    HW165256   0.887   9.571   5.430
54453SOL    HW265257   0.907   9.517   5.569
54454SOL     OW65258   8.139  13.428  12.674
54454SOL    HW165259   8.145  13.361  12.743
54454SOL    HW265260   8.182  13.505  12.712
54455SOL     OW65261   1.748   5.385   1.227
54455SOL    HW165262   1.695   5.420   1.299
54455SOL    HW265263   1.836   5.379   1.264
54456SOL     OW65264  10.055  11.783  10.326
54456SOL    HW165265   9.969  11.743  10.318
54456SOL    HW265266  10.081  11.768  10.417
54457SOL     OW65267  10.038   9.604   1.274
54457SOL    HW165268   9.956   9.562   1.250
54457SOL    HW265269  10.085   9.538   1.325
54458SOL     OW65270   7.238  12.532  10.088
54458SOL    HW165271   7.324  12.514  10.127
54458SOL    HW265272   7.236  12.627  10.078
54459SOL     OW65273   1.379   5.487   9.846
54459SOL    HW165274   1.421   5.482   9.760
54459SOL    HW265275   1.450   5.473   9.908
54460SOL     OW65276  11.006   1.648   3.683
54460SOL    HW165277  10.958   1.724   3.648
54460SOL    HW265278  11.096   1.660   3.653
54461SOL     OW65279  13.023   9.366   9.285
54461SOL    HW165280  13.023   9.278   9.246
54461SOL    HW265281  13.072   9.355   9.367
54462SOL     OW65282   2.860  11.774  12.469
54462SOL    HW165283   2.896  11.846  12.419
54462SOL    HW265284   2.770  11.800  12.489
54463SOL     OW65285   6.832  12.709   6.055
54463SOL    HW165286   6.763  12.768   6.086
54463SOL    HW265287   6.913  12.745   6.092
54464SOL     OW65288   4.247   3.938   0.325
54464SOL    HW165289   4.238   3.876   0.398
54464SOL    HW265290   4.261   4.022   0.368
54465SOL     OW65291   7.253  14.560  12.809
54465SOL    HW165292   7.186  14.493  12.825
54465SOL    HW265293   7.203  14.641  12.798
54466SOL     OW65294  13.186  11.997  11.328
54466SOL    HW165295  13.276  12.020  11.352
54466SOL    HW265296  13.179  11.904  11.346
54467SOL     OW65297   3.487  10.802  11.816
54467SOL    HW165298   3.565  10.822  11.867
54467SOL    HW265299   3.518  10.798  11.725
54468SOL     OW65300  12.867   5.818   9.792
54468SOL    HW165301  12.784   5.850   9.827
54468SOL    HW265302  12.921   5.801   9.869
54469SOL     OW65303  13.790  11.878   5.941
54469SOL    HW165304  13.695  11.892   5.949
54469SOL    HW265305  13.829  11.961   5.970
54470SOL     OW65306  14.703  11.821  11.009
54470SOL    HW165307  14.773  11.758  10.994
54470SOL    HW265308  14.748  11.901  11.038
54471SOL     OW65309   9.609   2.134   7.799
54471SOL    HW165310   9.664   2.182   7.860
54471SOL    HW265311   9.663   2.122   7.721
54472SOL     OW65312   0.689   6.660   2.563
54472SOL    HW165313   0.705   6.655   2.469
54472SOL    HW265314   0.660   6.750   2.578
54473SOL     OW65315  11.850  10.259   9.653
54473SOL    HW165316  11.830  10.327   9.718
54473SOL    HW265317  11.861  10.179   9.705
54474SOL     OW65318   8.136   3.656   3.443
54474SOL    HW165319   8.062   3.597   3.428
54474SOL    HW265320   8.187   3.651   3.362
54475SOL     OW65321   0.056   3.268  12.530
54475SOL    HW165322  14.838   3.231  12.542
54475SOL    HW265323   0.115   3.192  12.530
54476SOL     OW65324   2.652   2.478  13.989
54476SOL    HW165325   2.671   2.384  13.981
54476SOL    HW265326   2.737   2.520  13.991
54477SOL     OW65327   2.689  12.664  10.034
54477SOL    HW165328   2.619  12.601  10.019
54477SOL    HW265329   2.646  12.739  10.075
54478SOL     OW65330   1.489   5.552   0.800
54478SOL    HW165331   1.562   5.500   0.765
54478SOL    HW265332   1.499   5.638   0.758
54479SOL     OW65333   0.088   2.251   0.263
54479SOL    HW165334   0.093   2.156   0.258
54479SOL    HW265335   0.179   2.281   0.266
54480SOL     OW65336  12.657   9.914   1.726
54480SOL    HW165337  12.607   9.992   1.703
54480SOL    HW265338  12.592   9.844   1.735
54481SOL     OW65339   0.135   6.059   0.175
54481SOL    HW165340   0.117   6.152   0.158
54481SOL    HW265341   0.191   6.031   0.103
54482SOL     OW65342   5.587   6.144   3.043
54482SOL    HW165343   5.544   6.061   3.067
54482SOL    HW265344   5.525   6.211   3.072
54483SOL     OW65345   0.249   7.379  14.614
54483SOL    HW165346   0.199   7.384  14.695
54483SOL    HW265347   0.306   7.456  14.615
54484SOL     OW65348   9.438   2.093   8.240
54484SOL    HW165349   9.511   2.133   8.288
54484SOL    HW265350   9.473   2.009   8.209
54485SOL     OW65351   5.124  13.596   0.877
54485SOL    HW165352   5.118  13.558   0.789
54485SOL    HW265353   5.215  13.580   0.903
54486SOL     OW65354   3.993   2.225   0.179
54486SOL    HW165355   3.968   2.310   0.143
54486SOL    HW265356   4.064   2.195   0.121
54487SOL     OW65357   7.588  10.923   7.531
54487SOL    HW165358   7.616  11.015   7.533
54487SOL    HW265359   7.494  10.927   7.551
54488SOL     OW65360   7.798   1.661   3.653
54488SOL    HW165361   7.801   1.592   3.720
54488SOL    HW265362   7.871   1.719   3.675
54489SOL     OW65363   4.472   2.339  11.389
54489SOL    HW165364   4.468   2.408  11.455
54489SOL    HW265365   4.563   2.308  11.392
54490SOL     OW65366   0.267   9.368   6.905
54490SOL    HW165367   0.356   9.403   6.909
54490SOL    HW265368   0.272   9.294   6.845
54491SOL     OW65369   3.074  13.872   4.937
54491SOL    HW165370   3.041  13.957   4.966
54491SOL    HW265371   3.155  13.860   4.986
54492SOL     OW65372   4.719  14.583  13.519
54492SOL    HW165373   4.627  14.567  13.496
54492SOL    HW265374   4.716  14.603  13.613
54493SOL     OW65375   6.597  11.744   8.846
54493SOL    HW165376   6.673  11.799   8.829
54493SOL    HW265377   6.599  11.677   8.778
54494SOL     OW65378  10.719  11.030   2.901
54494SOL    HW165379  10.793  10.973   2.882
54494SOL    HW265380  10.718  11.039   2.996
54495SOL     OW65381   0.355   0.376  13.605
54495SOL    HW165382   0.340   0.297  13.553
54495SOL    HW265383   0.343   0.448  13.544
54496SOL     OW65384   5.367   9.104   0.393
54496SOL    HW165385   5.376   9.162   0.469
54496SOL    HW265386   5.398   9.019   0.425
54497SOL     OW65387  13.417  10.763  14.764
54497SOL    HW165388  13.460  10.798  14.842
54497SOL    HW265389  13.446  10.820  14.693
54498SOL     OW65390   8.207  11.843   9.169
54498SOL    HW165391   8.239  11.774   9.111
54498SOL    HW265392   8.254  11.829   9.251
54499SOL     OW65393   1.342   9.076   2.480
54499SOL    HW165394   1.252   9.045   2.470
54499SOL    HW265395   1.341   9.130   2.559
54500SOL     OW65396   0.387   1.013   5.312
54500SOL    HW165397   0.377   1.087   5.372
54500SOL    HW265398   0.418   0.942   5.367
54501SOL     OW65399   0.323   5.016   5.508
54501SOL    HW165400   0.407   5.010   5.463
54501SOL    HW265401   0.340   5.074   5.583
54502SOL     OW65402  10.421   5.297   1.513
54502SOL    HW165403  10.462   5.376   1.548
54502SOL    HW265404  10.494   5.244   1.481
54503SOL     OW65405   3.343   5.552   7.355
54503SOL    HW165406   3.295   5.470   7.371
54503SOL    HW265407   3.286   5.620   7.390
54504SOL     OW65408   7.740  12.584   9.046
54504SOL    HW165409   7.814  12.563   8.990
54504SOL    HW265410   7.670  12.610   8.986
54505SOL     OW65411  10.134   9.391  10.276
54505SOL    HW165412  10.138   9.440  10.358
54505SOL    HW265413  10.121   9.300  10.303
54506SOL     OW65414   0.548   1.854   8.172
54506SOL    HW165415   0.589   1.866   8.086
54506SOL    HW265416   0.459   1.826   8.153
54507SOL     OW65417   5.611   1.685   6.280
54507SOL    HW165418   5.618   1.589   6.278
54507SOL    HW265419   5.518   1.702   6.295
54508SOL     OW65420  13.171   4.383  12.083
54508SOL    HW165421  13.267   4.376  12.084
54508SOL    HW265422  13.150   4.425  12.166
54509SOL     OW65423   0.263  14.018  10.424
54509SOL    HW165424   0.262  14.076  10.500
54509SOL    HW265425   0.306  13.939  10.455
54510SOL     OW65426   6.510   9.465  13.114
54510SOL    HW165427   6.520   9.417  13.196
54510SOL    HW265428   6.580   9.531  13.117
54511SOL     OW65429   9.240   6.264   9.849
54511SOL    HW165430   9.157   6.272   9.803
54511SOL    HW265431   9.299   6.324   9.803
54512SOL     OW65432   4.839  13.835   6.416
54512SOL    HW165433   4.830  13.845   6.322
54512SOL    HW265434   4.752  13.810   6.447
54513SOL     OW65435   9.547   9.322   4.332
54513SOL    HW165436   9.508   9.307   4.246
54513SOL    HW265437   9.488   9.278   4.393
54514SOL     OW65438   7.150  10.696  14.139
54514SOL    HW165439   7.166  10.602  14.128
54514SOL    HW265440   7.057  10.703  14.161
54515SOL     OW65441   1.253   5.043   9.992
54515SOL    HW165442   1.286   5.041   9.902
54515SOL    HW265443   1.278   5.129  10.025
54516SOL     OW65444  13.466   5.898  13.823
54516SOL    HW165445  13.413   5.821  13.845
54516SOL    HW265446  13.524   5.909  13.898
54517SOL     OW65447   0.378   5.312   2.659
54517SOL    HW165448   0.405   5.352   2.576
54517SOL    HW265449   0.292   5.350   2.677
54518SOL     OW65450   1.068   2.300   7.289
54518SOL    HW165451   1.128   2.289   7.216
54518SOL    HW265452   1.100   2.377   7.336
54519SOL     OW65453  10.633   4.610  10.485
54519SOL    HW165454  10.588   4.529  10.460
54519SOL    HW265455  10.564   4.667  10.519
54520SOL     OW65456  11.901   2.412   3.550
54520SOL    HW165457  11.916   2.318   3.558
54520SOL    HW265458  11.814   2.426   3.589
54521SOL     OW65459   6.898   0.174   9.699
54521SOL    HW165460   6.853   0.192   9.781
54521SOL    HW265461   6.978   0.227   9.702
54522SOL     OW65462   2.099  13.504  10.706
54522SOL    HW165463   2.133  13.488  10.618
54522SOL    HW265464   2.093  13.417  10.745
54523SOL     OW65465  14.765   9.056   1.938
54523SOL    HW165466  14.700   8.988   1.921
54523SOL    HW265467  14.799   9.034   2.025
54524SOL     OW65468  14.127   4.871  10.880
54524SOL    HW165469  14.094   4.904  10.797
54524SOL    HW265470  14.198   4.812  10.856
54525SOL     OW65471   5.989   7.937   8.630
54525SOL    HW165472   6.050   7.923   8.557
54525SOL    HW265473   6.028   8.010   8.679
54526SOL     OW65474   2.885  12.702  11.765
54526SOL    HW165475   2.961  12.718  11.709
54526SOL    HW265476   2.847  12.789  11.779
54527SOL     OW65477  11.303  10.790   5.731
54527SOL    HW165478  11.382  10.738   5.712
54527SOL    HW265479  11.303  10.859   5.665
54528SOL     OW65480   0.488   5.374  13.728
54528SOL    HW165481   0.573   5.344  13.696
54528SOL    HW265482   0.506   5.459  13.768
54529SOL     OW65483  12.691   6.294   7.280
54529SOL    HW165484  12.710   6.379   7.319
54529SOL    HW265485  12.673   6.312   7.188
54530SOL     OW65486  14.242   5.487   2.774
54530SOL    HW165487  14.192   5.406   2.782
54530SOL    HW265488  14.181   5.548   2.733
54531SOL     OW65489  14.638  11.280   7.997
54531SOL    HW165490  14.661  11.373   7.995
54531SOL    HW265491  14.672  11.248   8.081
54532SOL     OW65492   3.756   0.422  11.845
54532SOL    HW165493   3.799   0.505  11.863
54532SOL    HW265494   3.674   0.426  11.895
54533SOL     OW65495  13.149  12.340  10.280
54533SOL    HW165496  13.143  12.252  10.244
54533SOL    HW265497  13.157  12.327  10.374
54534SOL     OW65498  13.515   4.871   6.898
54534SOL    HW165499  13.477   4.932   6.834
54534SOL    HW265500  13.493   4.909   6.983
54535SOL     OW65501   1.518   9.031   5.199
54535SOL    HW165502   1.431   9.024   5.161
54535SOL    HW265503   1.527   8.954   5.254
54536SOL     OW65504   1.826   0.140   3.254
54536SOL    HW165505   1.894   0.208   3.254
54536SOL    HW265506   1.859   0.074   3.192
54537SOL     OW65507   4.090  13.728  13.415
54537SOL    HW165508   4.000  13.740  13.446
54537SOL    HW265509   4.082  13.729  13.320
54538SOL     OW65510  12.239   1.777   2.651
54538SOL    HW165511  12.277   1.749   2.568
54538SOL    HW265512  12.260   1.706   2.712
54539SOL     OW65513   7.741  13.289   4.043
54539SOL    HW165514   7.655  13.292   4.001
54539SOL    HW265515   7.803  13.278   3.971
54540SOL     OW65516  14.390   1.364   7.196
54540SOL    HW165517  14.364   1.456   7.206
54540SOL    HW265518  14.402   1.352   7.102
54541SOL     OW65519   4.023   1.703  13.521
54541SOL    HW165520   4.088   1.648  13.565
54541SOL    HW265521   4.048   1.698  13.428
54542SOL     OW65522  12.534  12.984   6.696
54542SOL    HW165523  12.569  12.898   6.720
54542SOL    HW265524  12.576  13.045   6.757
54543SOL     OW65525  10.372   8.445   3.183
54543SOL    HW165526  10.412   8.372   3.135
54543SOL    HW265527  10.319   8.402   3.251
54544SOL     OW65528   7.589  12.588  12.647
54544SOL    HW165529   7.613  12.642  12.572
54544SOL    HW265530   7.672  12.550  12.677
54545SOL     OW65531  13.268   7.198  14.614
54545SOL    HW165532  13.336   7.265  14.613
54545SOL    HW265533  13.215   7.217  14.537
54546SOL     OW65534  11.801   4.061   5.545
54546SOL    HW165535  11.841   4.002   5.481
54546SOL    HW265536  11.726   4.099   5.498
54547SOL     OW65537   9.628  11.114   2.768
54547SOL    HW165538   9.610  11.032   2.722
54547SOL    HW265539   9.656  11.087   2.855
54548SOL     OW65540   8.748   9.825   5.040
54548SOL    HW165541   8.796   9.826   4.957
54548SOL    HW265542   8.671   9.771   5.023
54549SOL     OW65543   6.927   0.713   0.817
54549SOL    HW165544   6.955   0.632   0.773
54549SOL    HW265545   6.877   0.683   0.892
54550SOL     OW65546   5.734  10.932  11.742
54550SOL    HW165547   5.763  10.913  11.832
54550SOL    HW265548   5.645  10.896  11.738
54551SOL     OW65549  11.181   8.391  13.064
54551SOL    HW165550  11.140   8.462  13.014
54551SOL    HW265551  11.201   8.430  13.148
54552SOL     OW65552  10.090   3.371   4.584
54552SOL    HW165553  10.168   3.334   4.625
54552SOL    HW265554  10.092   3.464   4.606
54553SOL     OW65555  12.623   5.075   1.773
54553SOL    HW165556  12.577   5.116   1.699
54553SOL    HW265557  12.569   4.999   1.796
54554SOL     OW65558  12.795   4.504  13.410
54554SOL    HW165559  12.723   4.448  13.382
54554SOL    HW265560  12.822   4.469  13.494
54555SOL     OW65561   3.138  14.858  14.001
54555SOL    HW165562   3.143  14.813  13.917
54555SOL    HW265563   3.224   0.030  14.011
54556SOL     OW65564  12.374  11.414   7.148
54556SOL    HW165565  12.342  11.337   7.100
54556SOL    HW265566  12.297  11.450   7.191
54557SOL     OW65567   3.565  13.980   1.084
54557SOL    HW165568   3.581  14.054   1.025
54557SOL    HW265569   3.477  13.949   1.060
54558SOL     OW65570   0.033  14.760  14.291
54558SOL    HW165571   0.047  14.668  14.269
54558SOL    HW265572  14.863  14.798  14.212
54559SOL     OW65573   5.578   0.789   8.495
54559SOL    HW165574   5.567   0.880   8.467
54559SOL    HW265575   5.672   0.773   8.486
54560SOL     OW65576  12.484   8.760   4.820
54560SOL    HW165577  12.494   8.725   4.731
54560SOL    HW265578  12.400   8.724   4.850
54561SOL     OW65579  14.250   0.433   1.721
54561SOL    HW165580  14.216   0.349   1.690
54561SOL    HW265581  14.186   0.498   1.691
54562SOL     OW65582   8.010   0.128  13.544
54562SOL    HW165583   7.935   0.118  13.602
54562SOL    HW265584   7.974   0.162  13.462
54563SOL     OW65585   2.852  13.526  11.610
54563SOL    HW165586   2.806  13.610  11.619
54563SOL    HW265587   2.904  13.519  11.691
54564SOL     OW65588   8.284   6.132  12.316
54564SOL    HW165589   8.328   6.048  12.304
54564SOL    HW265590   8.313   6.185  12.241
54565SOL     OW65591   5.594   6.418   3.747
54565SOL    HW165592   5.651   6.495   3.750
54565SOL    HW265593   5.638   6.358   3.686
54566SOL     OW65594  12.845  10.217   2.900
54566SOL    HW165595  12.924  10.186   2.855
54566SOL    HW265596  12.804  10.137   2.933
54567SOL     OW65597  13.052  11.375  12.578
54567SOL    HW165598  13.083  11.318  12.508
54567SOL    HW265599  13.051  11.319  12.656
54568SOL     OW65600  11.298   0.037   4.996
54568SOL    HW165601  11.273   0.045   4.904
54568SOL    HW265602  11.347   0.118   5.014
54569SOL     OW65603  12.771   2.959  10.506
54569SOL    HW165604  12.754   3.044  10.466
54569SOL    HW265605  12.691   2.909  10.491
54570SOL     OW65606   0.752   7.186   5.360
54570SOL    HW165607   0.680   7.127   5.338
54570SOL    HW265608   0.711   7.257   5.410
54571SOL     OW65609   9.454  13.629   0.445
54571SOL    HW165610   9.394  13.642   0.372
54571SOL    HW265611   9.505  13.711   0.449
54572SOL     OW65612   8.579  13.055   0.348
54572SOL    HW165613   8.608  13.081   0.261
54572SOL    HW265614   8.659  13.037   0.397
54573SOL     OW65615   5.689  12.724   6.335
54573SOL    HW165616   5.680  12.632   6.310
54573SOL    HW265617   5.600  12.760   6.325
54574SOL     OW65618   3.227   3.391   4.800
54574SOL    HW165619   3.311   3.437   4.800
54574SOL    HW265620   3.181   3.426   4.724
54575SOL     OW65621  11.973   3.668   9.846
54575SOL    HW165622  11.946   3.640   9.934
54575SOL    HW265623  12.049   3.724   9.862
54576SOL     OW65624   0.495   4.510   3.904
54576SOL    HW165625   0.412   4.498   3.951
54576SOL    HW265626   0.509   4.604   3.903
54577SOL     OW65627  13.238   9.438   1.079
54577SOL    HW165628  13.261   9.516   1.129
54577SOL    HW265629  13.143   9.431   1.089
54578SOL     OW65630  12.361   7.001   1.638
54578SOL    HW165631  12.399   6.929   1.589
54578SOL    HW265632  12.347   7.070   1.574
54579SOL     OW65633  13.263  12.189   7.491
54579SOL    HW165634  13.208  12.268   7.484
54579SOL    HW265635  13.351  12.223   7.508
54580SOL     OW65636   2.250   4.174  12.570
54580SOL    HW165637   2.288   4.261  12.579
54580SOL    HW265638   2.324   4.117  12.550
54581SOL     OW65639   1.426  14.373   2.766
54581SOL    HW165640   1.441  14.321   2.845
54581SOL    HW265641   1.467  14.324   2.696
54582SOL     OW65642  10.106   8.542   4.649
54582SOL    HW165643  10.027   8.495   4.675
54582SOL    HW265644  10.100   8.626   4.694
54583SOL     OW65645   8.325   1.951   0.034
54583SOL    HW165646   8.344   2.020  14.840
54583SOL    HW265647   8.396   1.958   0.098
54584SOL     OW65648  13.678  12.837   0.314
54584SOL    HW165649  13.767  12.834   0.352
54584SOL    HW265650  13.633  12.904   0.366
54585SOL     OW65651  13.915   1.242   2.048
54585SOL    HW165652  14.001   1.211   2.077
54585SOL    HW265653  13.918   1.231   1.952
54586SOL     OW65654   7.278   6.872   8.639
54586SOL    HW165655   7.310   6.875   8.549
54586SOL    HW265656   7.320   6.946   8.682
54587SOL     OW65657   2.671  10.922   8.432
54587SOL    HW165658   2.576  10.913   8.429
54587SOL    HW265659   2.702  10.834   8.457
54588SOL     OW65660  14.260   2.160   4.646
54588SOL    HW165661  14.252   2.220   4.721
54588SOL    HW265662  14.325   2.202   4.589
54589SOL     OW65663   1.071   1.248   2.939
54589SOL    HW165664   1.160   1.239   2.973
54589SOL    HW265665   1.056   1.167   2.891
54590SOL     OW65666   7.825  12.647   6.008
54590SOL    HW165667   7.822  12.556   5.978
54590SOL    HW265668   7.754  12.690   5.960
54591SOL     OW65669   4.885   5.724   9.234
54591SOL    HW165670   4.929   5.685   9.310
54591SOL    HW265671   4.800   5.680   9.231
54592SOL     OW65672   4.650  14.207  12.885
54592SOL    HW165673   4.685  14.119  12.871
54592SOL    HW265674   4.656  14.221  12.979
54593SOL     OW65675   6.382   7.871   6.237
54593SOL    HW165676   6.355   7.806   6.173
54593SOL    HW265677   6.314   7.868   6.305
54594SOL     OW65678   7.572   5.380   1.316
54594SOL    HW165679   7.641   5.317   1.336
54594SOL    HW265680   7.527   5.394   1.399
54595SOL     OW65681   3.584   8.317   6.473
54595SOL    HW165682   3.638   8.364   6.537
54595SOL    HW265683   3.532   8.385   6.431
54596SOL     OW65684   4.281   5.863   7.607
54596SOL    HW165685   4.320   5.837   7.690
54596SOL    HW265686   4.213   5.926   7.631
54597SOL     OW65687  12.519   1.309  10.990
54597SOL    HW165688  12.452   1.318  10.923
54597SOL    HW265689  12.520   1.216  11.012
54598SOL     OW65690   7.795   8.996   9.377
54598SOL    HW165691   7.840   9.072   9.340
54598SOL    HW265692   7.737   8.966   9.308
54599SOL     OW65693   2.468  12.989   1.403
54599SOL    HW165694   2.391  13.046   1.411
54599SOL    HW265695   2.540  13.040   1.438
54600SOL     OW65696  10.394  11.749  10.483
54600SOL    HW165697  10.402  11.844  10.490
54600SOL    HW265698  10.364  11.721  10.569
54601SOL     OW65699  14.516  12.877  12.210
54601SOL    HW165700  14.443  12.884  12.149
54601SOL    HW265701  14.483  12.915  12.291
54602SOL     OW65702  14.826   2.074   8.198
54602SOL    HW165703   0.044   2.112   8.202
54602SOL    HW265704  14.775   2.120   8.265
54603SOL     OW65705  11.214   5.421   5.106
54603SOL    HW165706  11.257   5.351   5.155
54603SOL    HW265707  11.139   5.446   5.161
54604SOL     OW65708  10.913   3.465   6.469
54604SOL    HW165709  10.857   3.543   6.461
54604SOL    HW265710  10.967   3.467   6.390
54605SOL     OW65711   3.991  10.890  14.528
54605SOL    HW165712   3.972  10.971  14.482
54605SOL    HW265713   3.944  10.823  14.478
54606SOL     OW65714  13.396   8.792   1.851
54606SOL    HW165715  13.461   8.858   1.872
54606SOL    HW265716  13.426   8.754   1.769
54607SOL     OW65717   6.406   5.639  13.547
54607SOL    HW165718   6.448   5.723  13.531
54607SOL    HW265719   6.349   5.655  13.622
54608SOL     OW65720  10.893  11.967   5.309
54608SOL    HW165721  10.974  12.019   5.313
54608SOL    HW265722  10.825  12.027   5.339
54609SOL     OW65723   3.871   1.569   0.536
54609SOL    HW165724   3.801   1.598   0.478
54609SOL    HW265725   3.829   1.563   0.622
54610SOL     OW65726   0.110   3.746   3.926
54610SOL    HW165727   0.167   3.798   3.984
54610SOL    HW265728   0.023   3.785   3.936
54611SOL     OW65729   2.034   7.977   3.013
54611SOL    HW165730   1.950   7.933   2.997
54611SOL    HW265731   2.073   7.928   3.085
54612SOL     OW65732  11.684   2.310   6.748
54612SOL    HW165733  11.652   2.388   6.703
54612SOL    HW265734  11.640   2.237   6.706
54613SOL     OW65735   0.053   9.692   7.361
54613SOL    HW165736   0.020   9.667   7.275
54613SOL    HW265737   0.002   9.770   7.384
54614SOL     OW65738   6.463  11.918   1.850
54614SOL    HW165739   6.459  11.887   1.940
54614SOL    HW265740   6.466  12.014   1.857
54615SOL     OW65741   7.999  13.303   0.711
54615SOL    HW165742   7.951  13.278   0.790
54615SOL    HW265743   8.082  13.337   0.743
54616SOL     OW65744  13.190  13.908   9.453
54616SOL    HW165745  13.202  13.965   9.529
54616SOL    HW265746  13.252  13.942   9.388
54617SOL     OW65747  12.638   5.733   2.901
54617SOL    HW165748  12.694   5.680   2.844
54617SOL    HW265749  12.673   5.822   2.893
54618SOL     OW65750   4.129  11.357   0.718
54618SOL    HW165751   4.046  11.371   0.672
54618SOL    HW265752   4.142  11.436   0.770
54619SOL     OW65753  10.826   4.775   5.823
54619SOL    HW165754  10.801   4.810   5.909
54619SOL    HW265755  10.834   4.681   5.836
54620SOL     OW65756   1.867   4.634   3.055
54620SOL    HW165757   1.868   4.622   2.960
54620SOL    HW265758   1.883   4.546   3.091
54621SOL     OW65759  12.832   5.545  10.117
54621SOL    HW165760  12.788   5.498  10.188
54621SOL    HW265761  12.826   5.485  10.042
54622SOL     OW65762   0.094  10.598   9.550
54622SOL    HW165763   0.132  10.686   9.550
54622SOL    HW265764   0.019  10.604   9.491
54623SOL     OW65765   9.235   5.412  11.815
54623SOL    HW165766   9.260   5.323  11.791
54623SOL    HW265767   9.316   5.453  11.844
54624SOL     OW65768  14.436   0.975  11.830
54624SOL    HW165769  14.523   1.004  11.860
54624SOL    HW265770  14.400   0.927  11.903
54625SOL     OW65771  14.609   8.817  12.184
54625SOL    HW165772  14.628   8.838  12.093
54625SOL    HW265773  14.547   8.744  12.179
54626SOL     OW65774  12.457   9.947  11.979
54626SOL    HW165775  12.531   9.927  12.037
54626SOL    HW265776  12.428   9.862  11.947
54627SOL     OW65777   3.435  13.630   1.108
54627SOL    HW165778   3.394  13.713   1.085
54627SOL    HW265779   3.501  13.654   1.174
54628SOL     OW65780  12.701  13.789   6.236
54628SOL    HW165781  12.749  13.709   6.213
54628SOL    HW265782  12.644  13.805   6.161
54629SOL     OW65783  13.438  14.744   6.041
54629SOL    HW165784  13.438  14.794   5.959
54629SOL    HW265785  13.358  14.770   6.085
54630SOL     OW65786   1.109   9.529   7.758
54630SOL    HW165787   1.096   9.576   7.840
54630SOL    HW265788   1.056   9.576   7.694
54631SOL     OW65789   9.249   3.211   1.860
54631SOL    HW165790   9.302   3.148   1.812
54631SOL    HW265791   9.292   3.295   1.846
54632SOL     OW65792   8.698   5.783  14.161
54632SOL    HW165793   8.711   5.851  14.228
54632SOL    HW265794   8.631   5.819  14.103
54633SOL     OW65795  12.116  10.574   1.153
54633SOL    HW165796  12.070  10.512   1.210
54633SOL    HW265797  12.180  10.521   1.106
54634SOL     OW65798   2.953  10.011   0.261
54634SOL    HW165799   3.041  10.025   0.228
54634SOL    HW265800   2.930  10.093   0.304
54635SOL     OW65801   8.023   5.931  11.853
54635SOL    HW165802   7.964   5.873  11.806
54635SOL    HW265803   8.111   5.904  11.826
54636SOL     OW65804   0.127  14.725   8.768
54636SOL    HW165805   0.124  14.820   8.784
54636SOL    HW265806   0.084  14.687   8.844
54637SOL     OW65807   8.876   6.758   4.744
54637SOL    HW165808   8.869   6.780   4.651
54637SOL    HW265809   8.829   6.829   4.789
54638SOL     OW65810   9.868   9.571   3.830
54638SOL    HW165811   9.842   9.637   3.894
54638SOL    HW265812   9.957   9.547   3.857
54639SOL     OW65813   0.465   9.193   0.859
54639SOL    HW165814   0.414   9.251   0.916
54639SOL    HW265815   0.401   9.157   0.798
54640SOL     OW65816   8.091   9.900  14.817
54640SOL    HW165817   8.164   9.839  14.808
54640SOL    HW265818   8.018   9.857  14.772
54641SOL     OW65819   4.514   0.209  11.349
54641SOL    HW165820   4.463   0.256  11.283
54641SOL    HW265821   4.527   0.122  11.312
54642SOL     OW65822   4.829  12.954   6.494
54642SOL    HW165823   4.913  12.995   6.475
54642SOL    HW265824   4.769  13.027   6.508
54643SOL     OW65825   3.962   4.303   2.242
54643SOL    HW165826   3.995   4.222   2.281
54643SOL    HW265827   3.907   4.273   2.169
54644SOL     OW65828   6.150   0.330   3.055
54644SOL    HW165829   6.188   0.317   2.968
54644SOL    HW265830   6.175   0.251   3.104
54645SOL     OW65831   9.136   7.949  13.305
54645SOL    HW165832   9.126   8.039  13.275
54645SOL    HW265833   9.230   7.935  13.310
54646SOL     OW65834  11.954   6.178  12.440
54646SOL    HW165835  11.879   6.217  12.395
54646SOL    HW265836  11.923   6.161  12.528
54647SOL     OW65837  11.350   4.970  11.849
54647SOL    HW165838  11.380   5.004  11.933
54647SOL    HW265839  11.326   4.879  11.868
54648SOL     OW65840   3.434  14.731   4.105
54648SOL    HW165841   3.480  14.671   4.046
54648SOL    HW265842   3.425  14.682   4.186
54649SOL     OW65843   4.746  10.805   3.625
54649SOL    HW165844   4.723  10.720   3.587
54649SOL    HW265845   4.745  10.789   3.720
54650SOL     OW65846   5.309   1.919   0.922
54650SOL    HW165847   5.226   1.906   0.968
54650SOL    HW265848   5.374   1.926   0.992
54651SOL     OW65849   7.653  13.436  12.485
54651SOL    HW165850   7.614  13.408  12.567
54651SOL    HW265851   7.747  13.441  12.504
54652SOL     OW65852   0.489   6.659  10.637
54652SOL    HW165853   0.489   6.677  10.731
54652SOL    HW265854   0.457   6.740  10.597
54653SOL     OW65855  11.044   2.356   2.139
54653SOL    HW165856  11.006   2.330   2.222
54653SOL    HW265857  11.102   2.429   2.160
54654SOL     OW65858  13.139   4.512  12.833
54654SOL    HW165859  13.091   4.586  12.870
54654SOL    HW265860  13.075   4.440  12.832
54655SOL     OW65861   1.118   0.682   8.148
54655SOL    HW165862   1.129   0.764   8.196
54655SOL    HW265863   1.071   0.707   8.068
54656SOL     OW65864  12.255  13.038   1.275
54656SOL    HW165865  12.235  13.059   1.184
54656SOL    HW265866  12.169  13.025   1.316
54657SOL     OW65867   8.275  13.538  11.532
54657SOL    HW165868   8.255  13.456  11.487
54657SOL    HW265869   8.271  13.604  11.463
54658SOL     OW65870   6.237   0.037   6.889
54658SOL    HW165871   6.261   0.031   6.981
54658SOL    HW265872   6.185   0.117   6.882
54659SOL     OW65873  13.395  11.765   8.940
54659SOL    HW165874  13.457  11.825   8.981
54659SOL    HW265875  13.375  11.805   8.856
54660SOL     OW65876  11.478  10.028   6.646
54660SOL    HW165877  11.407   9.997   6.703
54660SOL    HW265878  11.437  10.093   6.589
54661SOL     OW65879   3.629   3.720  13.172
54661SOL    HW165880   3.641   3.812  13.198
54661SOL    HW265881   3.539   3.716  13.140
54662SOL     OW65882  11.661  11.567  14.495
54662SOL    HW165883  11.731  11.517  14.537
54662SOL    HW265884  11.613  11.607  14.568
54663SOL     OW65885  10.687  13.540   2.469
54663SOL    HW165886  10.712  13.488   2.393
54663SOL    HW265887  10.768  13.552   2.518
54664SOL     OW65888   4.461  14.296  10.945
54664SOL    HW165889   4.467  14.392  10.950
54664SOL    HW265890   4.398  14.280  10.874
54665SOL     OW65891   6.231  12.207  14.020
54665SOL    HW165892   6.163  12.157  14.065
54665SOL    HW265893   6.199  12.215  13.930
54666SOL     OW65894  12.408   0.254   0.334
54666SOL    HW165895  12.485   0.287   0.381
54666SOL    HW265896  12.396   0.165   0.366
54667SOL     OW65897  14.165   6.853  13.283
54667SOL    HW165898  14.086   6.815  13.244
54667SOL    HW265899  14.201   6.908  13.213
54668SOL     OW65900   6.018   9.434  13.880
54668SOL    HW165901   6.059   9.502  13.933
54668SOL    HW265902   6.089   9.396  13.829
54669SOL     OW65903   6.507  14.579   0.269
54669SOL    HW165904   6.447  14.621   0.207
54669SOL    HW265905   6.483  14.486   0.265
54670SOL     OW65906  13.372   3.650   3.382
54670SOL    HW165907  13.454   3.670   3.338
54670SOL    HW265908  13.359   3.722   3.443
54671SOL     OW65909  12.977   6.173   4.931
54671SOL    HW165910  13.070   6.196   4.923
54671SOL    HW265911  12.931   6.248   4.893
54672SOL     OW65912  13.151   6.078   8.267
54672SOL    HW165913  13.209   6.011   8.303
54672SOL    HW265914  13.194   6.107   8.187
54673SOL     OW65915  10.619   1.424  14.722
54673SOL    HW165916  10.699   1.371  14.720
54673SOL    HW265917  10.550   1.361  14.744
54674SOL     OW65918   4.724   7.580  12.883
54674SOL    HW165919   4.791   7.608  12.822
54674SOL    HW265920   4.685   7.502  12.843
54675SOL     OW65921   2.437   0.753  12.413
54675SOL    HW165922   2.503   0.817  12.385
54675SOL    HW265923   2.445   0.682  12.350
54676SOL     OW65924   3.434  11.096   9.422
54676SOL    HW165925   3.499  11.047   9.471
54676SOL    HW265926   3.359  11.103   9.482
54677SOL     OW65927   2.463  11.515   7.784
54677SOL    HW165928   2.379  11.551   7.813
54677SOL    HW265929   2.498  11.471   7.861
54678SOL     OW65930   9.819   2.325   2.122
54678SOL    HW165931   9.894   2.289   2.074
54678SOL    HW265932   9.855   2.397   2.174
54679SOL     OW65933  14.512   2.552   1.638
54679SOL    HW165934  14.570   2.620   1.604
54679SOL    HW265935  14.424   2.589   1.631
54680SOL     OW65936   5.912   8.770   7.304
54680SOL    HW165937   5.987   8.827   7.287
54680SOL    HW265938   5.923   8.696   7.245
54681SOL     OW65939  11.758   5.729   6.161
54681SOL    HW165940  11.685   5.766   6.210
54681SOL    HW265941  11.793   5.660   6.217
54682SOL     OW65942   6.703   3.037  11.680
54682SOL    HW165943   6.717   3.127  11.711
54682SOL    HW265944   6.762   3.028  11.605
54683SOL     OW65945   2.807   5.263  12.360
54683SOL    HW165946   2.755   5.302  12.289
54683SOL    HW265947   2.742   5.220  12.415
54684SOL     OW65948  10.396   8.480   0.273
54684SOL    HW165949  10.408   8.416   0.344
54684SOL    HW265950  10.379   8.562   0.319
54685SOL     OW65951   6.324   5.461   7.248
54685SOL    HW165952   6.330   5.475   7.153
54685SOL    HW265953   6.265   5.530   7.279
54686SOL     OW65954   3.470   9.189   7.245
54686SOL    HW165955   3.533   9.260   7.230
54686SOL    HW265956   3.395   9.212   7.191
54687SOL     OW65957   2.656  11.709  10.226
54687SOL    HW165958   2.684  11.689  10.315
54687SOL    HW265959   2.641  11.624  10.185
54688SOL     OW65960  13.754   2.563   1.636
54688SOL    HW165961  13.704   2.641   1.611
54688SOL    HW265962  13.820   2.596   1.698
54689SOL     OW65963  11.212   0.334   0.356
54689SOL    HW165964  11.180   0.248   0.384
54689SOL    HW265965  11.303   0.320   0.332
54690SOL     OW65966   3.698   6.117   4.271
54690SOL    HW165967   3.663   6.030   4.294
54690SOL    HW265968   3.764   6.134   4.338
54691SOL     OW65969  14.713   8.310   0.237
54691SOL    HW165970  14.761   8.385   0.271
54691SOL    HW265971  14.718   8.320   0.142
54692SOL     OW65972   3.641   8.895   8.319
54692SOL    HW165973   3.642   8.984   8.284
54692SOL    HW265974   3.692   8.899   8.399
54693SOL     OW65975   3.857  12.849   3.697
54693SOL    HW165976   3.904  12.833   3.779
54693SOL    HW265977   3.900  12.926   3.659
54694SOL     OW65978  11.969   3.915   1.687
54694SOL    HW165979  12.014   3.865   1.754
54694SOL    HW265980  12.036   3.935   1.622
54695SOL     OW65981  10.665  11.981   5.868
54695SOL    HW165982  10.724  12.054   5.883
54695SOL    HW265983  10.711  11.905   5.905
54696SOL     OW65984   2.634  10.662   5.407
54696SOL    HW165985   2.647  10.661   5.501
54696SOL    HW265986   2.546  10.699   5.395
54697SOL     OW65987   3.036  10.669  10.154
54697SOL    HW165988   3.077  10.594  10.111
54697SOL    HW265989   3.012  10.727  10.082
54698SOL     OW65990  14.597   8.381  10.046
54698SOL    HW165991  14.641   8.465  10.035
54698SOL    HW265992  14.520   8.401  10.100
54699SOL     OW65993   9.620   0.753   2.558
54699SOL    HW165994   9.686   0.797   2.612
54699SOL    HW265995   9.666   0.732   2.477
54700SOL     OW65996   1.003  13.645   0.026
54700SOL    HW165997   0.956  13.728   0.027
54700SOL    HW265998   1.040  13.640  14.807
54701SOL     OW65999   6.724  10.678   2.208
54701SOL    HW166000   6.734  10.583   2.205
54701SOL    HW266001   6.670  10.699   2.132
54702SOL     OW66002  13.992   3.102  12.410
54702SOL    HW166003  13.965   3.047  12.336
54702SOL    HW266004  13.945   3.065  12.485
54703SOL     OW66005   1.750   4.540  11.162
54703SOL    HW166006   1.664   4.538  11.203
54703SOL    HW266007   1.735   4.510  11.072
54704SOL     OW66008  11.936   9.386  13.244
54704SOL    HW166009  12.029   9.361  13.242
54704SOL    HW266010  11.902   9.358  13.159
54705SOL     OW66011   3.013   6.530   6.789
54705SOL    HW166012   3.078   6.477   6.834
54705SOL    HW266013   2.937   6.530   6.848
54706SOL     OW66014  10.559   7.823   5.766
54706SOL    HW166015  10.536   7.742   5.721
54706SOL    HW266016  10.654   7.820   5.775
54707SOL     OW66017   5.399  10.261   4.289
54707SOL    HW166018   5.354  10.199   4.347
54707SOL    HW266019   5.342  10.338   4.287
54708SOL     OW66020   8.001   0.528   4.160
54708SOL    HW166021   7.976   0.619   4.178
54708SOL    HW266022   8.064   0.535   4.088
54709SOL     OW66023  12.490   0.604   2.806
54709SOL    HW166024  12.483   0.696   2.782
54709SOL    HW266025  12.429   0.593   2.879
54710SOL     OW66026   6.997   6.068   6.467
54710SOL    HW166027   6.930   6.082   6.400
54710SOL    HW266028   6.960   6.002   6.525
54711SOL     OW66029   6.683   1.979  10.306
54711SOL    HW166030   6.592   2.004  10.291
54711SOL    HW266031   6.680   1.885  10.322
54712SOL     OW66032  12.232   0.437   2.459
54712SOL    HW166033  12.251   0.488   2.537
54712SOL    HW266034  12.305   0.376   2.451
54713SOL     OW66035  11.381  11.681   9.436
54713SOL    HW166036  11.415  11.631   9.362
54713SOL    HW266037  11.345  11.761   9.397
54714SOL     OW66038   8.742   9.692   7.044
54714SOL    HW166039   8.766   9.624   6.981
54714SOL    HW266040   8.647   9.700   7.035
54715SOL     OW66041   4.316  12.579  10.462
54715SOL    HW166042   4.345  12.492  10.488
54715SOL    HW266043   4.393  12.635  10.472
54716SOL     OW66044  10.394   9.775  12.270
54716SOL    HW166045  10.475   9.826  12.261
54716SOL    HW266046  10.329   9.839  12.301
54717SOL     OW66047   6.272   7.420   5.984
54717SOL    HW166048   6.188   7.430   5.938
54717SOL    HW266049   6.326   7.369   5.925
54718SOL     OW66050  11.312   0.406   5.486
54718SOL    HW166051  11.395   0.436   5.451
54718SOL    HW266052  11.336   0.345   5.556
54719SOL     OW66053  14.555   3.257   6.990
54719SOL    HW166054  14.566   3.341   6.946
54719SOL    HW266055  14.555   3.279   7.083
54720SOL     OW66056  12.181  10.007   5.168
54720SOL    HW166057  12.146  10.086   5.127
54720SOL    HW266058  12.124   9.937   5.137
54721SOL     OW66059  14.762   3.915   7.637
54721SOL    HW166060  14.680   3.963   7.648
54721SOL    HW266061  14.755   3.843   7.700
54722SOL     OW66062  12.738   2.860   2.973
54722SOL    HW166063  12.746   2.947   3.012
54722SOL    HW266064  12.826   2.822   2.983
54723SOL     OW66065   2.479   7.143  13.295
54723SOL    HW166066   2.398   7.190  13.315
54723SOL    HW266067   2.452   7.051  13.287
54724SOL     OW66068   3.434   3.440   9.088
54724SOL    HW166069   3.362   3.392   9.047
54724SOL    HW266070   3.393   3.490   9.158
54725SOL     OW66071  10.250   4.248  10.058
54725SOL    HW166072  10.173   4.291  10.020
54725SOL    HW266073  10.225   4.156  10.065
54726SOL     OW66074   8.722   0.015   2.607
54726SOL    HW166075   8.800  14.836   2.633
54726SOL    HW266076   8.658  14.817   2.584
54727SOL     OW66077  12.192  10.888   3.470
54727SOL    HW166078  12.133  10.963   3.459
54727SOL    HW266079  12.159  10.842   3.546
54728SOL     OW66080   9.301   2.077  14.137
54728SOL    HW166081   9.309   1.989  14.101
54728SOL    HW266082   9.392   2.104  14.153
54729SOL     OW66083  14.791   3.622   9.988
54729SOL    HW166084  14.800   3.670   9.906
54729SOL    HW266085  14.757   3.686  10.051
54730SOL     OW66086   8.159   9.638   5.091
54730SOL    HW166087   8.105   9.667   5.018
54730SOL    HW266088   8.128   9.549   5.110
54731SOL     OW66089  10.975  12.199   8.751
54731SOL    HW166090  10.979  12.184   8.846
54731SOL    HW266091  10.894  12.157   8.723
54732SOL     OW66092   8.775   3.985   7.984
54732SOL    HW166093   8.766   3.905   8.036
54732SOL    HW266094   8.795   3.953   7.896
54733SOL     OW66095  14.696   9.882  14.866
54733SOL    HW166096  14.769   9.826   0.022
54733SOL    HW266097  14.697   9.953   0.061
54734SOL     OW66098   6.900  10.687   9.292
54734SOL    HW166099   6.930  10.643   9.371
54734SOL    HW266100   6.944  10.640   9.221
54735SOL     OW66101   4.765  12.722  12.572
54735SOL    HW166102   4.824  12.714  12.497
54735SOL    HW266103   4.815  12.770  12.638
54736SOL     OW66104   1.873   7.852  14.660
54736SOL    HW166105   1.891   7.839  14.567
54736SOL    HW266106   1.820   7.931  14.664
54737SOL     OW66107  13.292   7.239   2.136
54737SOL    HW166108  13.308   7.194   2.053
54737SOL    HW266109  13.284   7.169   2.200
54738SOL     OW66110   8.167   1.335   3.873
54738SOL    HW166111   8.207   1.336   3.786
54738SOL    HW266112   8.170   1.426   3.903
54739SOL     OW66113  11.286   3.924  11.920
54739SOL    HW166114  11.293   4.014  11.889
54739SOL    HW266115  11.318   3.870  11.848
54740SOL     OW66116   0.470   9.705   7.483
54740SOL    HW166117   0.462   9.722   7.576
54740SOL    HW266118   0.539   9.638   7.476
54741SOL     OW66119   5.374   7.376   9.117
54741SOL    HW166120   5.304   7.440   9.108
54741SOL    HW266121   5.385   7.365   9.212
54742SOL     OW66122   0.849   9.892   0.339
54742SOL    HW166123   0.847   9.987   0.353
54742SOL    HW266124   0.928   9.863   0.385
54743SOL     OW66125   4.972  13.514   2.446
54743SOL    HW166126   5.031  13.536   2.518
54743SOL    HW266127   4.977  13.418   2.439
54744SOL     OW66128  11.838   2.710   8.465
54744SOL    HW166129  11.810   2.801   8.463
54744SOL    HW266130  11.770   2.662   8.417
54745SOL     OW66131   1.162  11.788  11.706
54745SOL    HW166132   1.143  11.751  11.620
54745SOL    HW266133   1.077  11.815  11.741
54746SOL     OW66134  14.584   4.232   6.701
54746SOL    HW166135  14.493   4.242   6.674
54746SOL    HW266136  14.633   4.288   6.641
54747SOL     OW66137   5.155   1.891   1.586
54747SOL    HW166138   5.090   1.960   1.595
54747SOL    HW266139   5.205   1.894   1.668
54748SOL     OW66140  13.270   4.931  11.505
54748SOL    HW166141  13.354   4.974  11.487
54748SOL    HW266142  13.228   4.923  11.420
54749SOL     OW66143   8.463   1.086   8.009
54749SOL    HW166144   8.479   1.128   7.924
54749SOL    HW266145   8.369   1.070   8.011
54750SOL     OW66146   1.274   9.096   8.196
54750SOL    HW166147   1.296   9.036   8.126
54750SOL    HW266148   1.270   9.042   8.275
54751SOL     OW66149   4.751   3.053   8.696
54751SOL    HW166150   4.738   3.104   8.616
54751SOL    HW266151   4.844   3.064   8.717
54752SOL     OW66152  12.146   3.255   4.706
54752SOL    HW166153  12.075   3.318   4.713
54752SOL    HW266154  12.111   3.175   4.745
54753SOL     OW66155  13.726   3.728  10.939
54753SOL    HW166156  13.708   3.810  10.987
54753SOL    HW266157  13.658   3.667  10.970
54754SOL     OW66158   1.417  10.385   0.753
54754SOL    HW166159   1.332  10.418   0.781
54754SOL    HW266160   1.469  10.463   0.735
54755SOL     OW66161   0.453  13.521   4.733
54755SOL    HW166162   0.458  13.514   4.638
54755SOL    HW266163   0.528  13.471   4.765
54756SOL     OW66164   0.930  14.165   8.841
54756SOL    HW166165   0.836  14.177   8.855
54756SOL    HW266166   0.953  14.092   8.898
54757SOL     OW66167   2.940   5.323   7.712
54757SOL    HW166168   2.973   5.360   7.794
54757SOL    HW266169   2.847   5.309   7.728
54758SOL     OW66170   5.591   6.356  13.468
54758SOL    HW166171   5.602   6.379  13.560
54758SOL    HW266172   5.534   6.280  13.468
54759SOL     OW66173   2.857   6.326   3.577
54759SOL    HW166174   2.873   6.391   3.508
54759SOL    HW266175   2.886   6.369   3.658
54760SOL     OW66176  12.587   7.129   5.937
54760SOL    HW166177  12.657   7.085   5.888
54760SOL    HW266178  12.518   7.144   5.872
54761SOL     OW66179  14.703   0.091  13.789
54761SOL    HW166180  14.787   0.117  13.825
54761SOL    HW266181  14.724   0.043  13.708
54762SOL     OW66182  13.888   8.004   0.937
54762SOL    HW166183  13.793   7.990   0.942
54762SOL    HW266184  13.923   7.921   0.904
54763SOL     OW66185   3.709   1.530   3.302
54763SOL    HW166186   3.647   1.575   3.359
54763SOL    HW266187   3.781   1.505   3.359
54764SOL     OW66188   8.848   2.823   9.699
54764SOL    HW166189   8.920   2.884   9.714
54764SOL    HW266190   8.777   2.876   9.665
54765SOL     OW66191   9.795   5.225   5.722
54765SOL    HW166192   9.718   5.260   5.676
54765SOL    HW266193   9.863   5.290   5.709
54766SOL     OW66194   1.800   4.979   0.621
54766SOL    HW166195   1.792   4.894   0.664
54766SOL    HW266196   1.723   4.985   0.565
54767SOL     OW66197   7.750   2.423   4.260
54767SOL    HW166198   7.763   2.438   4.167
54767SOL    HW266199   7.801   2.345   4.280
54768SOL     OW66200  13.791   8.887  13.318
54768SOL    HW166201  13.762   8.887  13.227
54768SOL    HW266202  13.788   8.979  13.344
54769SOL     OW66203   3.316   5.352   5.571
54769SOL    HW166204   3.261   5.428   5.550
54769SOL    HW266205   3.398   5.389   5.603
54770SOL     OW66206  12.226  13.004   0.967
54770SOL    HW166207  12.222  13.100   0.964
54770SOL    HW266208  12.134  12.977   0.977
54771SOL     OW66209  11.619   1.611   6.093
54771SOL    HW166210  11.574   1.557   6.027
54771SOL    HW266211  11.707   1.623   6.058
54772SOL     OW66212  12.744   7.035   1.494
54772SOL    HW166213  12.717   6.958   1.544
54772SOL    HW266214  12.735   7.008   1.403
54773SOL     OW66215   5.766   9.252  11.175
54773SOL    HW166216   5.778   9.330  11.120
54773SOL    HW266217   5.682   9.266  11.219
54774SOL     OW66218  13.716   3.313  12.428
54774SOL    HW166219  13.743   3.222  12.413
54774SOL    HW266220  13.631   3.306  12.472
54775SOL     OW66221   4.745   4.646   2.181
54775SOL    HW166222   4.824   4.689   2.214
54775SOL    HW266223   4.679   4.716   2.180
54776SOL     OW66224   5.436   2.587   6.534
54776SOL    HW166225   5.524   2.551   6.538
54776SOL    HW266226   5.447   2.673   6.495
54777SOL     OW66227  13.473   4.064   3.970
54777SOL    HW166228  13.497   4.155   3.983
54777SOL    HW266229  13.431   4.062   3.884
54778SOL     OW66230  13.311   8.912  11.872
54778SOL    HW166231  13.332   9.000  11.901
54778SOL    HW266232  13.221   8.918  11.839
54779SOL     OW66233   9.522   1.590  10.264
54779SOL    HW166234   9.570   1.546  10.334
54779SOL    HW266235   9.437   1.610  10.302
54780SOL     OW66236   0.149   5.128  11.127
54780SOL    HW166237   0.172   5.176  11.206
54780SOL    HW266238   0.196   5.173  11.057
54781SOL     OW66239  10.643   9.215  11.689
54781SOL    HW166240  10.650   9.159  11.611
54781SOL    HW266241  10.627   9.153  11.760
54782SOL     OW66242  11.472  12.759   2.271
54782SOL    HW166243  11.560  12.776   2.236
54782SOL    HW266244  11.459  12.827   2.337
54783SOL     OW66245   0.154   8.693  10.091
54783SOL    HW166246   0.116   8.699  10.178
54783SOL    HW266247   0.236   8.742  10.096
54784SOL     OW66248   0.000  10.889  12.855
54784SOL    HW166249   0.069  10.943  12.815
54784SOL    HW266250   0.005  10.806  12.808
54785SOL     OW66251   0.006   0.233   5.981
54785SOL    HW166252  14.863   0.179   5.904
54785SOL    HW266253  14.795   0.224   6.031
54786SOL     OW66254  11.765   5.399  12.396
54786SOL    HW166255  11.822   5.476  12.399
54786SOL    HW266256  11.692   5.422  12.454
54787SOL     OW66257   6.808  14.389  10.939
54787SOL    HW166258   6.869  14.417  11.008
54787SOL    HW266259   6.857  14.404  10.858
54788SOL     OW66260   7.842   6.390   9.475
54788SOL    HW166261   7.828   6.473   9.521
54788SOL    HW266262   7.809   6.323   9.535
54789SOL     OW66263   1.150  10.160   3.921
54789SOL    HW166264   1.125  10.167   3.828
54789SOL    HW266265   1.139  10.248   3.955
54790SOL     OW66266  13.622  13.239   6.062
54790SOL    HW166267  13.595  13.220   5.972
54790SOL    HW266268  13.703  13.288   6.053
54791SOL     OW66269   2.591   3.079  10.495
54791SOL    HW166270   2.524   3.110  10.434
54791SOL    HW266271   2.645   3.018  10.444
54792SOL     OW66272  14.106   7.635   9.253
54792SOL    HW166273  14.040   7.672   9.194
54792SOL    HW266274  14.188   7.643   9.205
54793SOL     OW66275  10.928  10.850  10.950
54793SOL    HW166276  11.019  10.862  10.977
54793SOL    HW266277  10.918  10.755  10.942
54794SOL     OW66278   8.660  11.833  12.126
54794SOL    HW166279   8.606  11.811  12.202
54794SOL    HW266280   8.701  11.916  12.150
54795SOL     OW66281   0.831  12.759   8.147
54795SOL    HW166282   0.750  12.729   8.106
54795SOL    HW266283   0.804  12.787   8.235
54796SOL     OW66284  12.689  13.317   4.118
54796SOL    HW166285  12.777  13.315   4.155
54796SOL    HW266286  12.645  13.389   4.164
54797SOL     OW66287   7.419   3.086   6.720
54797SOL    HW166288   7.342   3.060   6.770
54797SOL    HW266289   7.392   3.164   6.672
54798SOL     OW66290   8.350   6.756   0.820
54798SOL    HW166291   8.428   6.796   0.780
54798SOL    HW266292   8.281   6.767   0.755
54799SOL     OW66293   3.335  12.323  10.683
54799SOL    HW166294   3.274  12.310  10.610
54799SOL    HW266295   3.421  12.303  10.647
54800SOL     OW66296   7.232   4.574   9.324
54800SOL    HW166297   7.216   4.665   9.297
54800SOL    HW266298   7.326   4.562   9.313
54801SOL     OW66299   7.098   5.232   0.923
54801SOL    HW166300   7.174   5.258   0.870
54801SOL    HW266301   7.077   5.311   0.973
54802SOL     OW66302   1.078  11.712   2.481
54802SOL    HW166303   1.166  11.719   2.518
54802SOL    HW266304   1.082  11.760   2.399
54803SOL     OW66305   6.069   6.522  13.821
54803SOL    HW166306   6.061   6.546  13.913
54803SOL    HW266307   6.015   6.586  13.774
54804SOL     OW66308  13.778   4.528   9.635
54804SOL    HW166309  13.754   4.450   9.684
54804SOL    HW266310  13.709   4.537   9.569
54805SOL     OW66311  11.330   7.068   9.247
54805SOL    HW166312  11.299   6.997   9.303
54805SOL    HW266313  11.271   7.141   9.266
54806SOL     OW66314  13.369  13.934   2.770
54806SOL    HW166315  13.420  13.968   2.844
54806SOL    HW266316  13.435  13.901   2.709
54807SOL     OW66317   3.675   2.416   7.057
54807SOL    HW166318   3.740   2.359   7.097
54807SOL    HW266319   3.715   2.503   7.059
54808SOL     OW66320   6.630   0.828   0.937
54808SOL    HW166321   6.691   0.855   1.005
54808SOL    HW266322   6.655   0.738   0.916
54809SOL     OW66323   3.495   0.068   1.310
54809SOL    HW166324   3.440   0.068   1.389
54809SOL    HW266325   3.551  14.860   1.320
54810SOL     OW66326   6.675   2.990   1.165
54810SOL    HW166327   6.662   3.071   1.213
54810SOL    HW266328   6.692   3.018   1.075
54811SOL     OW66329   8.231   6.255  12.035
54811SOL    HW166330   8.279   6.211  11.965
54811SOL    HW266331   8.139   6.234  12.019
54812SOL     OW66332   2.583   4.323  13.675
54812SOL    HW166333   2.537   4.354  13.598
54812SOL    HW266334   2.514   4.307  13.740
54813SOL     OW66335   7.107   2.183   7.174
54813SOL    HW166336   7.061   2.101   7.155
54813SOL    HW266337   7.161   2.163   7.251
54814SOL     OW66338   4.671   3.689   2.647
54814SOL    HW166339   4.710   3.773   2.621
54814SOL    HW266340   4.586   3.688   2.603
54815SOL     OW66341   9.068   1.068   5.744
54815SOL    HW166342   9.096   1.138   5.803
54815SOL    HW266343   9.145   1.012   5.734
54816SOL     OW66344  10.310  10.814  12.104
54816SOL    HW166345  10.392  10.855  12.134
54816SOL    HW266346  10.283  10.868  12.029
54817SOL     OW66347   0.156   4.431  13.774
54817SOL    HW166348   0.093   4.364  13.747
54817SOL    HW266349   0.104   4.511  13.783
54818SOL     OW66350   8.530  12.359   7.849
54818SOL    HW166351   8.536  12.266   7.827
54818SOL    HW266352   8.590  12.402   7.789
54819SOL     OW66353   4.905   5.203  10.933
54819SOL    HW166354   4.970   5.227  11.000
54819SOL    HW266355   4.958   5.171  10.860
54820SOL     OW66356   4.588   9.807   8.532
54820SOL    HW166357   4.607   9.738   8.596
54820SOL    HW266358   4.502   9.783   8.497
54821SOL     OW66359   4.440   4.302   9.904
54821SOL    HW166360   4.416   4.320   9.995
54821SOL    HW266361   4.454   4.388   9.865
54822SOL     OW66362   4.281   5.316  13.401
54822SOL    HW166363   4.258   5.399  13.360
54822SOL    HW266364   4.373   5.327  13.427
54823SOL     OW66365  11.957   1.010  10.374
54823SOL    HW166366  11.868   0.990  10.403
54823SOL    HW266367  11.948   1.034  10.281
54824SOL     OW66368  14.000  12.091  12.444
54824SOL    HW166369  14.071  12.093  12.508
54824SOL    HW266370  13.952  12.011  12.465
54825SOL     OW66371   7.326  10.916   7.596
54825SOL    HW166372   7.326  10.860   7.675
54825SOL    HW266373   7.234  10.930   7.577
54826SOL     OW66374   9.954  11.351   0.486
54826SOL    HW166375   9.993  11.352   0.399
54826SOL    HW266376   9.965  11.261   0.517
54827SOL     OW66377  13.342   4.843  10.338
54827SOL    HW166378  13.403   4.916  10.346
54827SOL    HW266379  13.311   4.828  10.427
54828SOL     OW66380  10.574  12.442  12.201
54828SOL    HW166381  10.599  12.527  12.237
54828SOL    HW266382  10.531  12.462  12.118
54829SOL     OW66383  14.023  13.977   8.107
54829SOL    HW166384  14.007  13.882   8.110
54829SOL    HW266385  13.966  14.008   8.036
54830SOL     OW66386   9.399   5.422   1.253
54830SOL    HW166387   9.475   5.415   1.195
54830SOL    HW266388   9.397   5.338   1.299
54831SOL     OW66389   6.422  11.595  12.686
54831SOL    HW166390   6.420  11.616  12.779
54831SOL    HW266391   6.354  11.651  12.648
54832SOL     OW66392   8.265  12.551   2.323
54832SOL    HW166393   8.175  12.568   2.350
54832SOL    HW266394   8.298  12.488   2.387
54833SOL     OW66395   5.647  12.523   3.251
54833SOL    HW166396   5.568  12.502   3.199
54833SOL    HW266397   5.698  12.581   3.194
54834SOL     OW66398  11.460   9.752  13.211
54834SOL    HW166399  11.432   9.828  13.262
54834SOL    HW266400  11.552   9.740  13.236
54835SOL     OW66401   4.444   2.859  13.410
54835SOL    HW166402   4.386   2.836  13.337
54835SOL    HW266403   4.484   2.942  13.383
54836SOL     OW66404  13.358  14.450  14.847
54836SOL    HW166405  13.342  14.355  14.841
54836SOL    HW266406  13.305  14.478   0.052
54837SOL     OW66407   3.366   3.896   0.554
54837SOL    HW166408   3.361   3.976   0.606
54837SOL    HW266409   3.441   3.848   0.591
54838SOL     OW66410   5.153   2.352   3.171
54838SOL    HW166411   5.228   2.295   3.157
54838SOL    HW266412   5.141   2.354   3.266
54839SOL     OW66413  14.543  11.323   4.483
54839SOL    HW166414  14.484  11.334   4.557
54839SOL    HW266415  14.626  11.362   4.512
54840SOL     OW66416   7.637   3.990   5.566
54840SOL    HW166417   7.663   4.052   5.497
54840SOL    HW266418   7.630   4.044   5.645
54841SOL     OW66419  14.573   4.147  10.401
54841SOL    HW166420  14.525   4.166  10.482
54841SOL    HW266421  14.604   4.057  10.412
54842SOL     OW66422   5.595   3.700   3.349
54842SOL    HW166423   5.652   3.777   3.359
54842SOL    HW266424   5.578   3.671   3.439
54843SOL     OW66425  11.034   7.362   1.845
54843SOL    HW166426  11.051   7.313   1.926
54843SOL    HW266427  10.998   7.445   1.874
54844SOL     OW66428   4.155   4.537  11.046
54844SOL    HW166429   4.234   4.485  11.032
54844SOL    HW266430   4.137   4.529  11.140
54845SOL     OW66431   6.926   6.155   2.107
54845SOL    HW166432   6.996   6.130   2.046
54845SOL    HW266433   6.969   6.212   2.171
54846SOL     OW66434  13.043  14.299   7.228
54846SOL    HW166435  12.965  14.328   7.276
54846SOL    HW266436  13.024  14.209   7.201
54847SOL     OW66437   8.653   8.718   4.709
54847SOL    HW166438   8.644   8.666   4.630
54847SOL    HW266439   8.569   8.709   4.754
54848SOL     OW66440   4.241   9.324   0.843
54848SOL    HW166441   4.175   9.256   0.832
54848SOL    HW266442   4.270   9.316   0.934
54849SOL     OW66443   0.336   0.728  13.412
54849SOL    HW166444   0.318   0.822  13.401
54849SOL    HW266445   0.376   0.722  13.499
54850SOL     OW66446   7.722  10.603  11.190
54850SOL    HW166447   7.772  10.679  11.161
54850SOL    HW266448   7.754  10.585  11.279
54851SOL     OW66449   5.612  10.224  12.263
54851SOL    HW166450   5.705  10.230  12.241
54851SOL    HW266451   5.571  10.188  12.185
54852SOL     OW66452   9.205  11.217  12.311
54852SOL    HW166453   9.299  11.227  12.291
54852SOL    HW266454   9.196  11.252  12.399
54853SOL     OW66455  12.335   9.672   0.192
54853SOL    HW166456  12.257   9.657   0.246
54853SOL    HW266457  12.327   9.608   0.120
54854SOL     OW66458   6.067   5.715   2.331
54854SOL    HW166459   6.152   5.672   2.343
54854SOL    HW266460   6.089   5.805   2.306
54855SOL     OW66461   3.159   0.923   3.305
54855SOL    HW166462   3.209   0.956   3.230
54855SOL    HW266463   3.225   0.899   3.370
54856SOL     OW66464  12.686   5.828   6.044
54856SOL    HW166465  12.658   5.803   6.133
54856SOL    HW266466  12.616   5.887   6.014
54857SOL     OW66467   4.075  14.411   0.329
54857SOL    HW166468   4.078  14.497   0.371
54857SOL    HW266469   4.160  14.372   0.350
54858SOL     OW66470   0.895  13.068   5.956
54858SOL    HW166471   0.971  13.048   6.011
54858SOL    HW266472   0.850  13.139   6.002
54859SOL     OW66473  10.073   1.410   4.982
54859SOL    HW166474  10.047   1.486   5.033
54859SOL    HW266475  10.040   1.335   5.031
54860SOL     OW66476   4.371  14.329   8.803
54860SOL    HW166477   4.341  14.301   8.889
54860SOL    HW266478   4.356  14.423   8.802
54861SOL     OW66479   3.111   7.680  11.483
54861SOL    HW166480   3.201   7.697  11.456
54861SOL    HW266481   3.114   7.674  11.578
54862SOL     OW66482   0.875   8.442  14.517
54862SOL    HW166483   0.881   8.484  14.431
54862SOL    HW266484   0.841   8.354  14.498
54863SOL     OW66485   8.789   6.393   2.205
54863SOL    HW166486   8.718   6.370   2.147
54863SOL    HW266487   8.848   6.318   2.203
54864SOL     OW66488   0.675  10.762  14.423
54864SOL    HW166489   0.672  10.674  14.462
54864SOL    HW266490   0.686  10.747  14.329
54865SOL     OW66491  10.688   5.967   5.013
54865SOL    HW166492  10.625   6.037   5.033
54865SOL    HW266493  10.646   5.916   4.945
54866SOL     OW66494   9.044  11.935   0.961
54866SOL    HW166495   8.957  11.916   0.996
54866SOL    HW266496   9.039  12.026   0.931
54867SOL     OW66497   2.151   7.641   3.621
54867SOL    HW166498   2.091   7.601   3.558
54867SOL    HW266499   2.238   7.614   3.593
54868SOL     OW66500   7.695   7.337   5.811
54868SOL    HW166501   7.696   7.268   5.877
54868SOL    HW266502   7.675   7.417   5.860
54869SOL     OW66503  14.689   5.688   8.047
54869SOL    HW166504  14.759   5.749   8.024
54869SOL    HW266505  14.707   5.610   7.994
54870SOL     OW66506  12.026   5.800   7.251
54870SOL    HW166507  12.102   5.815   7.306
54870SOL    HW266508  12.017   5.881   7.201
54871SOL     OW66509   6.878   9.427   8.319
54871SOL    HW166510   6.853   9.382   8.238
54871SOL    HW266511   6.802   9.481   8.341
54872SOL     OW66512  11.263  14.672  11.501
54872SOL    HW166513  11.259  14.663  11.406
54872SOL    HW266514  11.334  14.614  11.528
54873SOL     OW66515   6.985  14.262   2.446
54873SOL    HW166516   6.912  14.232   2.391
54873SOL    HW266517   7.063  14.228   2.402
54874SOL     OW66518   9.333  14.360  13.270
54874SOL    HW166519   9.366  14.314  13.194
54874SOL    HW266520   9.241  14.377  13.250
54875SOL     OW66521   2.839  12.305   4.483
54875SOL    HW166522   2.813  12.271   4.569
54875SOL    HW266523   2.765  12.282   4.426
54876SOL     OW66524  10.020  13.229   6.816
54876SOL    HW166525  10.064  13.144   6.805
54876SOL    HW266526   9.929  13.206   6.832
54877SOL     OW66527  10.878   8.814  13.963
54877SOL    HW166528  10.934   8.782  13.892
54877SOL    HW266529  10.930   8.882  14.006
54878SOL     OW66530  12.126   7.292   5.692
54878SOL    HW166531  12.212   7.298   5.650
54878SOL    HW266532  12.145   7.262   5.781
54879SOL     OW66533   0.082   8.663   1.768
54879SOL    HW166534   0.131   8.743   1.784
54879SOL    HW266535   0.018   8.687   1.702
54880SOL     OW66536   9.664   0.503   7.002
54880SOL    HW166537   9.617   0.420   7.004
54880SOL    HW266538   9.726   0.493   6.930
54881SOL     OW66539   8.756   2.090  12.595
54881SOL    HW166540   8.705   2.167  12.571
54881SOL    HW266541   8.760   2.038  12.514
54882SOL     OW66542   9.317   4.740   6.103
54882SOL    HW166543   9.298   4.830   6.077
54882SOL    HW266544   9.327   4.693   6.020
54883SOL     OW66545   6.372   3.043   8.358
54883SOL    HW166546   6.335   3.041   8.270
54883SOL    HW266547   6.448   2.984   8.354
54884SOL     OW66548  14.105   1.763   8.437
54884SOL    HW166549  14.031   1.821   8.455
54884SOL    HW266550  14.071   1.700   8.373
54885SOL     OW66551   8.377  13.462   5.444
54885SOL    HW166552   8.419  13.420   5.519
54885SOL    HW266553   8.443  13.521   5.408
54886SOL     OW66554   0.854  13.298  13.754
54886SOL    HW166555   0.850  13.363  13.683
54886SOL    HW266556   0.911  13.336  13.819
54887SOL     OW66557   1.438   1.369   3.531
54887SOL    HW166558   1.497   1.415   3.591
54887SOL    HW266559   1.351   1.405   3.551
54888SOL     OW66560   0.356   6.759   5.987
54888SOL    HW166561   0.267   6.790   5.969
54888SOL    HW266562   0.387   6.724   5.904
54889SOL     OW66563   9.569  12.999   3.488
54889SOL    HW166564   9.574  13.024   3.580
54889SOL    HW266565   9.569  13.082   3.440
54890SOL     OW66566  14.163   8.817   3.260
54890SOL    HW166567  14.196   8.806   3.349
54890SOL    HW266568  14.177   8.732   3.218
54891SOL     OW66569  13.917   4.395   2.877
54891SOL    HW166570  13.978   4.465   2.903
54891SOL    HW266571  13.843   4.442   2.839
54892SOL     OW66572   4.898   7.573   8.442
54892SOL    HW166573   4.945   7.491   8.427
54892SOL    HW266574   4.966   7.641   8.441
54893SOL     OW66575  10.282   4.005  13.186
54893SOL    HW166576  10.224   3.952  13.130
54893SOL    HW266577  10.258   4.095  13.167
54894SOL     OW66578  10.833  11.537  11.704
54894SOL    HW166579  10.776  11.598  11.658
54894SOL    HW266580  10.805  11.541  11.795
54895SOL     OW66581   4.915  10.180   7.117
54895SOL    HW166582   4.907  10.097   7.164
54895SOL    HW266583   5.008  10.187   7.096
54896SOL     OW66584  11.653   0.106   6.408
54896SOL    HW166585  11.565   0.139   6.388
54896SOL    HW266586  11.660   0.025   6.357
54897SOL     OW66587   8.594   9.699  10.699
54897SOL    HW166588   8.500   9.697  10.713
54897SOL    HW266589   8.621   9.786  10.729
54898SOL     OW66590   8.754   9.480  13.853
54898SOL    HW166591   8.826   9.418  13.869
54898SOL    HW266592   8.675   9.431  13.874
54899SOL     OW66593  11.871   8.474   4.859
54899SOL    HW166594  11.945   8.492   4.802
54899SOL    HW266595  11.819   8.554   4.857
54900SOL     OW66596  13.755   2.238  11.174
54900SOL    HW166597  13.827   2.188  11.135
54900SOL    HW266598  13.693   2.250  11.102
54901SOL     OW66599   8.462   9.002   4.092
54901SOL    HW166600   8.367   8.991   4.098
54901SOL    HW266601   8.497   8.930   4.145
54902SOL     OW66602  11.786  12.124   1.835
54902SOL    HW166603  11.810  12.088   1.750
54902SOL    HW266604  11.699  12.162   1.821
54903SOL     OW66605   7.119   7.605  11.129
54903SOL    HW166606   7.040   7.559  11.154
54903SOL    HW266607   7.141   7.658  11.205
54904SOL     OW66608   3.396   2.699  13.535
54904SOL    HW166609   3.481   2.723  13.571
54904SOL    HW266610   3.348   2.662  13.610
54905SOL     OW66611   9.413   2.408  13.805
54905SOL    HW166612   9.388   2.483  13.859
54905SOL    HW266613   9.336   2.390  13.752
54906SOL     OW66614  12.739  13.048  12.139
54906SOL    HW166615  12.649  13.079  12.128
54906SOL    HW266616  12.743  12.967  12.089
54907SOL     OW66617   3.693   2.540   5.201
54907SOL    HW166618   3.720   2.448   5.201
54907SOL    HW266619   3.676   2.560   5.109
54908SOL     OW66620   1.903   8.921   3.368
54908SOL    HW166621   1.945   9.004   3.390
54908SOL    HW266622   1.875   8.885   3.452
54909SOL     OW66623   4.862   7.798  10.166
54909SOL    HW166624   4.824   7.809  10.254
54909SOL    HW266625   4.955   7.816  10.178
54910SOL     OW66626   3.947   7.258   1.433
54910SOL    HW166627   3.863   7.228   1.469
54910SOL    HW266628   3.975   7.185   1.377
54911SOL     OW66629   1.780   9.704  12.439
54911SOL    HW166630   1.762   9.797  12.425
54911SOL    HW266631   1.875   9.698  12.447
54912SOL     OW66632  12.671   5.983  12.002
54912SOL    HW166633  12.729   5.908  11.988
54912SOL    HW266634  12.637   5.972  12.090
54913SOL     OW66635   8.451  13.589  14.549
54913SOL    HW166636   8.518  13.628  14.493
54913SOL    HW266637   8.426  13.660  14.609
54914SOL     OW66638  10.259  11.471  14.530
54914SOL    HW166639  10.164  11.469  14.526
54914SOL    HW266640  10.279  11.487  14.623
54915SOL     OW66641   8.859   0.401  13.716
54915SOL    HW166642   8.826   0.491  13.720
54915SOL    HW266643   8.790   0.348  13.754
54916SOL     OW66644   9.260  13.470   2.018
54916SOL    HW166645   9.197  13.535   1.986
54916SOL    HW266646   9.315  13.519   2.079
54917SOL     OW66647   2.718  11.875   4.763
54917SOL    HW166648   2.656  11.930   4.812
54917SOL    HW266649   2.784  11.936   4.731
54918SOL     OW66650  14.761  14.354  12.295
54918SOL    HW166651  14.719  14.338  12.211
54918SOL    HW266652  14.765  14.267  12.336
54919SOL     OW66653   7.985   7.856   2.070
54919SOL    HW166654   7.969   7.834   1.979
54919SOL    HW266655   7.934   7.791   2.119
54920SOL     OW66656   9.547   1.063   8.170
54920SOL    HW166657   9.574   0.986   8.220
54920SOL    HW266658   9.627   1.094   8.129
54921SOL     OW66659  14.861  12.842   2.279
54921SOL    HW166660  14.850  12.879   2.191
54921SOL    HW266661   0.037  12.759   2.264
54922SOL     OW66662   8.610   7.781   7.357
54922SOL    HW166663   8.687   7.734   7.323
54922SOL    HW266664   8.606   7.755   7.449
54923SOL     OW66665   8.253   6.333   5.879
54923SOL    HW166666   8.242   6.369   5.791
54923SOL    HW266667   8.213   6.397   5.937
54924SOL     OW66668   7.288   6.807   3.956
54924SOL    HW166669   7.318   6.850   4.036
54924SOL    HW266670   7.268   6.718   3.983
54925SOL     OW66671  13.424   7.625   2.918
54925SOL    HW166672  13.388   7.684   2.851
54925SOL    HW266673  13.497   7.581   2.873
54926SOL     OW66674   5.078  13.629   5.719
54926SOL    HW166675   5.127  13.628   5.801
54926SOL    HW266676   5.146  13.629   5.651
54927SOL     OW66677   5.863   3.537  10.920
54927SOL    HW166678   5.799   3.499  10.860
54927SOL    HW266679   5.816   3.548  11.002
54928SOL     OW66680   0.006   7.980   2.035
54928SOL    HW166681  14.792   8.022   2.013
54928SOL    HW266682   0.060   8.050   2.071
54929SOL     OW66683  14.441   7.888   2.743
54929SOL    HW166684  14.453   7.823   2.811
54929SOL    HW266685  14.458   7.841   2.661
54930SOL     OW66686  12.026   0.778   2.535
54930SOL    HW166687  11.965   0.809   2.602
54930SOL    HW266688  11.974   0.777   2.454
54931SOL     OW66689  14.268   2.321  11.737
54931SOL    HW166690  14.267   2.410  11.772
54931SOL    HW266691  14.201   2.275  11.788
54932SOL     OW66692   3.175  13.806   4.110
54932SOL    HW166693   3.142  13.804   4.020
54932SOL    HW266694   3.107  13.851   4.159
54933SOL     OW66695   8.369   5.428   0.919
54933SOL    HW166696   8.429   5.492   0.957
54933SOL    HW266697   8.298   5.481   0.881
54934SOL     OW66698   7.081   2.814   3.429
54934SOL    HW166699   7.013   2.824   3.496
54934SOL    HW266700   7.044   2.855   3.351
54935SOL     OW66701  12.695  13.723  12.540
54935SOL    HW166702  12.712  13.766  12.623
54935SOL    HW266703  12.706  13.792  12.475
54936SOL     OW66704   3.769  11.646   6.015
54936SOL    HW166705   3.702  11.708   6.045
54936SOL    HW266706   3.806  11.686   5.937
54937SOL     OW66707   1.352   6.861   1.361
54937SOL    HW166708   1.392   6.776   1.343
54937SOL    HW266709   1.361   6.910   1.279
54938SOL     OW66710   3.946   1.499   7.792
54938SOL    HW166711   3.915   1.410   7.773
54938SOL    HW266712   3.896   1.526   7.869
54939SOL     OW66713   8.167   6.057   5.741
54939SOL    HW166714   8.205   6.138   5.773
54939SOL    HW266715   8.080   6.053   5.782
54940SOL     OW66716   6.995   6.791  10.234
54940SOL    HW166717   7.036   6.735  10.299
54940SOL    HW266718   6.913   6.747  10.212
54941SOL     OW66719  13.351   6.593  10.362
54941SOL    HW166720  13.366   6.618  10.271
54941SOL    HW266721  13.256   6.595  10.373
54942SOL     OW66722  13.230  12.242   5.258
54942SOL    HW166723  13.140  12.222   5.285
54942SOL    HW266724  13.234  12.338   5.256
54943SOL     OW66725   9.502   8.605   0.763
54943SOL    HW166726   9.464   8.520   0.783
54943SOL    HW266727   9.592   8.586   0.737
54944SOL     OW66728   7.536   2.290  12.408
54944SOL    HW166729   7.507   2.358  12.347
54944SOL    HW266730   7.456   2.260  12.451
54945SOL     OW66731  10.222   9.459   8.184
54945SOL    HW166732  10.129   9.459   8.208
54945SOL    HW266733  10.257   9.539   8.224
54946SOL     OW66734   2.018   0.811   9.647
54946SOL    HW166735   2.088   0.833   9.707
54946SOL    HW266736   1.939   0.846   9.687
54947SOL     OW66737   0.588   5.357   5.788
54947SOL    HW166738   0.514   5.418   5.778
54947SOL    HW266739   0.586   5.303   5.709
54948SOL     OW66740   9.845   7.768  12.298
54948SOL    HW166741   9.933   7.748  12.267
54948SOL    HW266742   9.857   7.839  12.361
54949SOL     OW66743   0.313   2.766   6.201
54949SOL    HW166744   0.359   2.786   6.119
54949SOL    HW266745   0.371   2.705   6.246
54950SOL     OW66746  10.302  11.529   5.845
54950SOL    HW166747  10.320  11.504   5.755
54950SOL    HW266748  10.354  11.607   5.860
54951SOL     OW66749   7.677   8.353  14.296
54951SOL    HW166750   7.651   8.427  14.351
54951SOL    HW266751   7.772   8.364  14.284
54952SOL     OW66752   5.609   7.990  14.009
54952SOL    HW166753   5.696   7.964  13.978
54952SOL    HW266754   5.617   7.992  14.104
54953SOL     OW66755  11.933  10.511  12.257
54953SOL    HW166756  11.913  10.418  12.263
54953SOL    HW266757  11.873  10.545  12.190
54954SOL     OW66758   8.433  10.016   0.542
54954SOL    HW166759   8.522  10.047   0.527
54954SOL    HW266760   8.409  10.051   0.627
54955SOL     OW66761   1.168   9.780   4.010
54955SOL    HW166762   1.180   9.850   4.075
54955SOL    HW266763   1.205   9.815   3.929
54956SOL     OW66764  14.682  14.037  12.979
54956SOL    HW166765  14.588  14.054  12.990
54956SOL    HW266766  14.718  14.045  13.067
54957SOL     OW66767   0.169   2.281   3.765
54957SOL    HW166768   0.245   2.339   3.761
54957SOL    HW266769   0.103   2.325   3.712
54958SOL     OW66770   9.094   0.927  11.584
54958SOL    HW166771   9.068   0.902  11.673
54958SOL    HW266772   9.190   0.921  11.585
54959SOL     OW66773  10.143   6.320  14.482
54959SOL    HW166774  10.123   6.369  14.562
54959SOL    HW266775  10.139   6.385  14.412
54960SOL     OW66776  14.601   8.082   5.916
54960SOL    HW166777  14.610   7.999   5.962
54960SOL    HW266778  14.560   8.141   5.980
54961SOL     OW66779   5.261   2.300   1.860
54961SOL    HW166780   5.319   2.375   1.868
54961SOL    HW266781   5.209   2.302   1.941
54962SOL     OW66782   3.063   9.643  10.821
54962SOL    HW166783   2.992   9.702  10.846
54962SOL    HW266784   3.020   9.559  10.806
54963SOL     OW66785   9.648  14.471  10.902
54963SOL    HW166786   9.553  14.469  10.914
54963SOL    HW266787   9.677  14.382  10.925
54964SOL     OW66788  12.345   7.866  12.295
54964SOL    HW166789  12.296   7.785  12.314
54964SOL    HW266790  12.332   7.921  12.372
54965SOL     OW66791   6.521  14.331   1.975
54965SOL    HW166792   6.476  14.387   1.912
54965SOL    HW266793   6.572  14.392   2.028
54966SOL     OW66794   3.547   4.474   7.730
54966SOL    HW166795   3.606   4.404   7.759
54966SOL    HW266796   3.511   4.441   7.647
54967SOL     OW66797   7.025  11.175   6.565
54967SOL    HW166798   7.066  11.132   6.641
54967SOL    HW266799   6.999  11.261   6.598
54968SOL     OW66800   7.201  10.516   0.288
54968SOL    HW166801   7.254  10.497   0.364
54968SOL    HW266802   7.260  10.562   0.228
54969SOL     OW66803   8.718   2.433  12.455
54969SOL    HW166804   8.702   2.481  12.374
54969SOL    HW266805   8.641   2.377  12.465
54970SOL     OW66806  11.616   3.728  13.914
54970SOL    HW166807  11.618   3.816  13.950
54970SOL    HW266808  11.597   3.671  13.988
54971SOL     OW66809   2.537   7.885   8.437
54971SOL    HW166810   2.443   7.902   8.425
54971SOL    HW266811   2.573   7.886   8.348
54972SOL     OW66812  12.763   9.967   8.175
54972SOL    HW166813  12.837   9.935   8.124
54972SOL    HW266814  12.803  10.018   8.246
54973SOL     OW66815  10.437   3.366   7.918
54973SOL    HW166816  10.474   3.362   8.006
54973SOL    HW266817  10.420   3.459   7.903
54974SOL     OW66818   5.179   3.261   4.276
54974SOL    HW166819   5.195   3.325   4.208
54974SOL    HW266820   5.116   3.303   4.335
54975SOL     OW66821  12.439   3.484   2.638
54975SOL    HW166822  12.456   3.432   2.717
54975SOL    HW266823  12.352   3.457   2.609
54976SOL     OW66824   4.264   9.334   5.608
54976SOL    HW166825   4.280   9.242   5.625
54976SOL    HW266826   4.276   9.377   5.693
54977SOL     OW66827  12.145  14.689  12.578
54977SOL    HW166828  12.065  14.735  12.602
54977SOL    HW266829  12.120  14.597  12.573
54978SOL     OW66830   8.991   1.777   3.975
54978SOL    HW166831   9.049   1.840   4.015
54978SOL    HW266832   8.936   1.745   4.047
54979SOL     OW66833   3.897   3.718   5.951
54979SOL    HW166834   3.828   3.659   5.979
54979SOL    HW266835   3.853   3.781   5.893
54980SOL     OW66836   8.926   4.590   4.721
54980SOL    HW166837   8.899   4.572   4.811
54980SOL    HW266838   8.978   4.670   4.726
54981SOL     OW66839   0.223   8.487  14.553
54981SOL    HW166840   0.295   8.505  14.614
54981SOL    HW266841   0.255   8.518  14.469
54982SOL     OW66842   9.914  14.181   6.903
54982SOL    HW166843   9.918  14.088   6.885
54982SOL    HW266844   9.835  14.193   6.956
54983SOL     OW66845  11.247   7.308  14.214
54983SOL    HW166846  11.221   7.240  14.276
54983SOL    HW266847  11.277   7.380  14.269
54984SOL     OW66848   6.451  12.512   1.036
54984SOL    HW166849   6.409  12.526   1.120
54984SOL    HW266850   6.378  12.503   0.974
54985SOL     OW66851  12.635   3.630   3.110
54985SOL    HW166852  12.710   3.579   3.139
54985SOL    HW266853  12.630   3.703   3.172
54986SOL     OW66854   2.950  12.304  11.042
54986SOL    HW166855   2.923  12.348  11.123
54986SOL    HW266856   3.045  12.318  11.039
54987SOL     OW66857   3.663   0.293   6.253
54987SOL    HW166858   3.620   0.338   6.326
54987SOL    HW266859   3.671   0.202   6.281
54988SOL     OW66860  13.803   2.298   0.952
54988SOL    HW166861  13.760   2.296   1.037
54988SOL    HW266862  13.731   2.291   0.889
54989SOL     OW66863   3.232   5.423  12.939
54989SOL    HW166864   3.140   5.449  12.941
54989SOL    HW266865   3.230   5.327  12.940
54990SOL     OW66866  12.359   5.026  10.355
54990SOL    HW166867  12.404   4.982  10.428
54990SOL    HW266868  12.269   5.037  10.385
54991SOL     OW66869   2.617   3.759   3.738
54991SOL    HW166870   2.614   3.848   3.704
54991SOL    HW266871   2.552   3.711   3.687
54992SOL     OW66872   2.297   7.818  13.905
54992SOL    HW166873   2.251   7.896  13.935
54992SOL    HW266874   2.229   7.752  13.894
54993SOL     OW66875   5.831  10.244   9.095
54993SOL    HW166876   5.912  10.253   9.046
54993SOL    HW266877   5.785  10.327   9.082
54994SOL     OW66878   0.002   1.555  12.890
54994SOL    HW166879  14.832   1.596  12.967
54994SOL    HW266880   0.084   1.603  12.877
54995SOL     OW66881  11.469   0.323   5.704
54995SOL    HW166882  11.450   0.233   5.729
54995SOL    HW266883  11.541   0.349   5.761
54996SOL     OW66884  13.345  13.955   4.735
54996SOL    HW166885  13.348  13.991   4.823
54996SOL    HW266886  13.293  13.875   4.744
54997SOL     OW66887  10.705  13.628   7.359
54997SOL    HW166888  10.799  13.623   7.377
54997SOL    HW266889  10.697  13.600   7.268
54998SOL     OW66890   2.426   5.379   3.494
54998SOL    HW166891   2.456   5.459   3.450
54998SOL    HW266892   2.447   5.394   3.587
54999SOL     OW66893   3.832   2.346  13.637
54999SOL    HW166894   3.849   2.440  13.629
54999SOL    HW266895   3.914   2.309  13.669
55000SOL     OW66896   9.222   5.138   2.335
55000SOL    HW166897   9.143   5.141   2.389
55000SOL    HW266898   9.189   5.129   2.245
55001SOL     OW66899   1.750  11.945   8.110
55001SOL    HW166900   1.781  11.975   8.195
55001SOL    HW266901   1.749  11.849   8.117
55002SOL     OW66902  12.961  10.454   6.048
55002SOL    HW166903  12.937  10.547   6.058
55002SOL    HW266904  13.017  10.453   5.971
55003SOL     OW66905   9.697   5.723  14.264
55003SOL    HW166906   9.626   5.774  14.223
55003SOL    HW266907   9.656   5.682  14.340
55004SOL     OW66908   2.836  11.661  10.527
55004SOL    HW166909   2.831  11.605  10.450
55004SOL    HW266910   2.834  11.600  10.601
55005SOL     OW66911   1.913  13.024  13.668
55005SOL    HW166912   1.824  13.054  13.685
55005SOL    HW266913   1.949  13.006  13.755
55006SOL     OW66914   8.863   4.346   3.264
55006SOL    HW166915   8.958   4.353   3.272
55006SOL    HW266916   8.830   4.426   3.305
55007SOL     OW66917   9.370   6.591   8.705
55007SOL    HW166918   9.406   6.531   8.771
55007SOL    HW266919   9.360   6.674   8.752
55008SOL     OW66920   5.126   5.345   4.791
55008SOL    HW166921   5.087   5.391   4.717
55008SOL    HW266922   5.092   5.256   4.786
55009SOL     OW66923  13.997   7.145   0.118
55009SOL    HW166924  14.053   7.156   0.042
55009SOL    HW266925  14.025   7.215   0.178
55010SOL     OW66926   1.408   5.614  13.598
55010SOL    HW166927   1.409   5.534  13.651
55010SOL    HW266928   1.324   5.611  13.551
55011SOL     OW66929  10.221  14.803   8.677
55011SOL    HW166930  10.155  14.794   8.746
55011SOL    HW266931  10.184  14.868   8.617
55012SOL     OW66932   0.747  12.381   5.533
55012SOL    HW166933   0.837  12.357   5.512
55012SOL    HW266934   0.753  12.470   5.568
55013SOL     OW66935   0.004   1.319  14.121
55013SOL    HW166936   0.099   1.311  14.109
55013SOL    HW266937  14.855   1.410  14.100
55014SOL     OW66938   0.877   1.693   6.301
55014SOL    HW166939   0.869   1.624   6.235
55014SOL    HW266940   0.867   1.774   6.252
55015SOL     OW66941  14.460   5.333   9.329
55015SOL    HW166942  14.389   5.389   9.299
55015SOL    HW266943  14.532   5.394   9.347
55016SOL     OW66944   7.231   2.635  14.831
55016SOL    HW166945   7.138   2.614  14.838
55016SOL    HW266946   7.275   2.551  14.839
55017SOL     OW66947   6.147  12.173  11.138
55017SOL    HW166948   6.192  12.116  11.201
55017SOL    HW266949   6.209  12.244  11.122
55018SOL     OW66950   0.559   6.122   4.637
55018SOL    HW166951   0.580   6.150   4.726
55018SOL    HW266952   0.618   6.173   4.581
55019SOL     OW66953   0.116   5.497   0.793
55019SOL    HW166954   0.143   5.449   0.715
55019SOL    HW266955   0.198   5.525   0.834
55020SOL     OW66956  14.220  13.111   7.406
55020SOL    HW166957  14.297  13.122   7.349
55020SOL    HW266958  14.167  13.188   7.389
55021SOL     OW66959  14.406  13.194   9.865
55021SOL    HW166960  14.358  13.274   9.843
55021SOL    HW266961  14.347  13.123   9.840
55022SOL     OW66962   7.871   6.885  11.335
55022SOL    HW166963   7.869   6.940  11.257
55022SOL    HW266964   7.782   6.850  11.342
55023SOL     OW66965  10.988   2.524  13.463
55023SOL    HW166966  10.893   2.515  13.469
55023SOL    HW266967  11.002   2.583  13.389
55024SOL     OW66968   0.863  11.234   3.089
55024SOL    HW166969   0.803  11.233   3.014
55024SOL    HW266970   0.948  11.255   3.050
55025SOL     OW66971   0.427   4.519   3.099
55025SOL    HW166972   0.357   4.525   3.034
55025SOL    HW266973   0.393   4.461   3.167
55026SOL     OW66974   6.463  14.109   8.999
55026SOL    HW166975   6.519  14.041   8.963
55026SOL    HW266976   6.519  14.186   9.004
55027SOL     OW66977   5.268   4.867   0.351
55027SOL    HW166978   5.338   4.915   0.307
55027SOL    HW266979   5.188   4.899   0.309
55028SOL     OW66980   6.202   3.070   1.060
55028SOL    HW166981   6.252   3.026   1.128
55028SOL    HW266982   6.117   3.026   1.060
55029SOL     OW66983   3.779   8.830   4.263
55029SOL    HW166984   3.702   8.798   4.217
55029SOL    HW266985   3.748   8.850   4.352
55030SOL     OW66986  10.035   4.266   1.700
55030SOL    HW166987  10.058   4.357   1.713
55030SOL    HW266988  10.003   4.237   1.786
55031SOL     OW66989   1.977  11.675   9.415
55031SOL    HW166990   1.937  11.762   9.407
55031SOL    HW266991   1.922  11.619   9.362
55032SOL     OW66992  11.623   2.518   0.162
55032SOL    HW166993  11.712   2.488   0.143
55032SOL    HW266994  11.566   2.456   0.117
55033SOL     OW66995  10.686   6.113  12.492
55033SOL    HW166996  10.718   6.184  12.436
55033SOL    HW266997  10.675   6.039  12.433
55034SOL     OW66998   9.623   5.245  11.316
55034SOL    HW166999   9.555   5.223  11.380
55034SOL    HW267000   9.635   5.339  11.324
55035SOL     OW67001   2.937   1.123   9.746
55035SOL    HW167002   2.971   1.038   9.773
55035SOL    HW267003   2.858   1.135   9.799
55036SOL     OW67004   6.828   3.599   6.232
55036SOL    HW167005   6.849   3.642   6.149
55036SOL    HW267006   6.788   3.516   6.206
55037SOL     OW67007  13.437  13.414  11.564
55037SOL    HW167008  13.448  13.323  11.537
55037SOL    HW267009  13.357  13.444  11.520
55038SOL     OW67010   4.934  14.164  11.195
55038SOL    HW167011   4.907  14.121  11.113
55038SOL    HW267012   4.956  14.092  11.254
55039SOL     OW67013   6.782  11.006   6.982
55039SOL    HW167014   6.859  10.966   7.023
55039SOL    HW267015   6.818  11.071   6.921
55040SOL     OW67016   8.311   0.759   9.572
55040SOL    HW167017   8.281   0.761   9.662
55040SOL    HW267018   8.406   0.774   9.577
55041SOL     OW67019  10.658   7.388   2.511
55041SOL    HW167020  10.639   7.296   2.492
55041SOL    HW267021  10.574   7.424   2.540
55042SOL     OW67022  14.168  14.070  14.016
55042SOL    HW167023  14.212  14.008  13.958
55042SOL    HW267024  14.238  14.125  14.051
55043SOL     OW67025  14.477   9.060   5.863
55043SOL    HW167026  14.412   9.020   5.921
55043SOL    HW267027  14.474   9.153   5.884
55044SOL     OW67028   6.656  10.872  14.317
55044SOL    HW167029   6.687  10.791  14.358
55044SOL    HW267030   6.701  10.942  14.365
55045SOL     OW67031  10.010   2.487  14.516
55045SOL    HW167032  10.044   2.423  14.454
55045SOL    HW267033  10.071   2.561  14.511
55046SOL     OW67034  13.489   8.000   3.928
55046SOL    HW167035  13.520   7.992   3.837
55046SOL    HW267036  13.564   8.034   3.976
55047SOL     OW67037  10.251  11.229  11.697
55047SOL    HW167038  10.299  11.305  11.729
55047SOL    HW267039  10.170  11.265  11.661
55048SOL     OW67040  14.548   2.586  10.670
55048SOL    HW167041  14.609   2.513  10.672
55048SOL    HW267042  14.487   2.565  10.599
55049SOL     OW67043  14.006   1.438   3.619
55049SOL    HW167044  14.064   1.369   3.653
55049SOL    HW267045  13.950   1.461   3.693
55050SOL     OW67046   3.109  10.746   0.029
55050SOL    HW167047   3.136  10.765   0.119
55050SOL    HW267048   3.014  10.736   0.034
55051SOL     OW67049   3.785  13.050  13.331
55051SOL    HW167050   3.800  12.956  13.322
55051SOL    HW267051   3.736  13.075  13.252
55052SOL     OW67052   7.098   6.183   0.570
55052SOL    HW167053   7.155   6.161   0.497
55052SOL    HW267054   7.151   6.167   0.648
55053SOL     OW67055   6.824   4.046   9.730
55053SOL    HW167056   6.867   3.960   9.737
55053SOL    HW267057   6.737   4.032   9.766
55054SOL     OW67058   0.284   6.292   5.337
55054SOL    HW167059   0.286   6.197   5.324
55054SOL    HW267060   0.276   6.329   5.249
55055SOL     OW67061   2.729   6.116   9.914
55055SOL    HW167062   2.649   6.068   9.935
55055SOL    HW267063   2.797   6.049   9.908
55056SOL     OW67064   0.273  10.832   1.879
55056SOL    HW167065   0.338  10.841   1.949
55056SOL    HW267066   0.235  10.919   1.870
55057SOL     OW67067  14.118  14.020  10.071
55057SOL    HW167068  14.055  13.950  10.087
55057SOL    HW267069  14.173  13.987  10.000
55058SOL     OW67070   1.174   3.601   2.301
55058SOL    HW167071   1.190   3.696   2.297
55058SOL    HW267072   1.200   3.577   2.390
55059SOL     OW67073  13.599   4.786   8.439
55059SOL    HW167074  13.608   4.729   8.362
55059SOL    HW267075  13.685   4.827   8.448
55060SOL     OW67076   6.025   8.364   0.142
55060SOL    HW167077   5.993   8.392   0.057
55060SOL    HW267078   5.961   8.398   0.205
55061SOL     OW67079  10.246  11.617   1.215
55061SOL    HW167080  10.299  11.625   1.295
55061SOL    HW267081  10.169  11.568   1.242
55062SOL     OW67082   1.836  11.703   6.456
55062SOL    HW167083   1.825  11.621   6.406
55062SOL    HW267084   1.915  11.688   6.508
55063SOL     OW67085   4.058   9.785   6.858
55063SOL    HW167086   4.025   9.861   6.906
55063SOL    HW267087   4.112   9.822   6.788
55064SOL     OW67088   7.361  11.207   6.801
55064SOL    HW167089   7.412  11.275   6.756
55064SOL    HW267090   7.294  11.256   6.849
55065SOL     OW67091   9.720  12.040  10.186
55065SOL    HW167092   9.643  12.063  10.238
55065SOL    HW267093   9.762  11.969  10.235
55066SOL     OW67094  11.283   4.956  11.550
55066SOL    HW167095  11.200   4.910  11.561
55066SOL    HW267096  11.306   4.988  11.637
55067SOL     OW67097   1.018   3.448   6.043
55067SOL    HW167098   1.102   3.414   6.011
55067SOL    HW267099   1.030   3.543   6.045
55068SOL     OW67100   9.224  13.371   8.119
55068SOL    HW167101   9.301  13.424   8.097
55068SOL    HW267102   9.154  13.435   8.131
55069SOL     OW67103   7.020   4.438   2.678
55069SOL    HW167104   7.060   4.484   2.604
55069SOL    HW267105   7.081   4.452   2.751
55070SOL     OW67106  14.541  12.629   9.976
55070SOL    HW167107  14.543  12.724   9.989
55070SOL    HW267108  14.459  12.601  10.015
55071SOL     OW67109  12.668  12.249   0.222
55071SOL    HW167110  12.609  12.280   0.154
55071SOL    HW267111  12.624  12.271   0.304
55072SOL     OW67112  13.048   3.716   2.983
55072SOL    HW167113  13.105   3.657   3.032
55072SOL    HW267114  13.050   3.798   3.031
55073SOL     OW67115   1.053   9.366   4.622
55073SOL    HW167116   1.137   9.382   4.580
55073SOL    HW267117   1.035   9.273   4.605
55074SOL     OW67118   0.830   8.255   1.236
55074SOL    HW167119   0.910   8.284   1.191
55074SOL    HW267120   0.853   8.254   1.328
55075SOL     OW67121   1.919   3.666  10.910
55075SOL    HW167122   1.928   3.696  11.000
55075SOL    HW267123   1.877   3.580  10.918
55076SOL     OW67124  12.830   1.155   8.983
55076SOL    HW167125  12.857   1.176   9.072
55076SOL    HW267126  12.746   1.200   8.971
55077SOL     OW67127   3.997   3.167   3.454
55077SOL    HW167128   4.091   3.151   3.446
55077SOL    HW267129   3.990   3.261   3.470
55078SOL     OW67130   0.543   4.196  14.475
55078SOL    HW167131   0.548   4.275  14.420
55078SOL    HW267132   0.450   4.188  14.496
55079SOL     OW67133   8.799   3.685   9.897
55079SOL    HW167134   8.830   3.728   9.817
55079SOL    HW267135   8.862   3.615   9.912
55080SOL     OW67136   3.568   4.155   0.267
55080SOL    HW167137   3.474   4.135   0.266
55080SOL    HW267138   3.595   4.144   0.175
55081SOL     OW67139   2.365  10.485   2.711
55081SOL    HW167140   2.399  10.424   2.647
55081SOL    HW267141   2.439  10.541   2.733
55082SOL     OW67142   8.394  12.495  13.497
55082SOL    HW167143   8.340  12.483  13.575
55082SOL    HW267144   8.390  12.589  13.479
55083SOL     OW67145   5.235   2.754   5.724
55083SOL    HW167146   5.149   2.721   5.697
55083SOL    HW267147   5.291   2.742   5.648
55084SOL     OW67148   9.627  14.314   5.753
55084SOL    HW167149   9.592  14.404   5.756
55084SOL    HW267150   9.670  14.303   5.838
55085SOL     OW67151   3.182   2.070   4.738
55085SOL    HW167152   3.111   2.093   4.799
55085SOL    HW267153   3.244   2.142   4.745
55086SOL     OW67154   8.639  10.216   9.205
55086SOL    HW167155   8.692  10.136   9.210
55086SOL    HW267156   8.652  10.258   9.290
55087SOL     OW67157   8.641   5.613   4.015
55087SOL    HW167158   8.600   5.569   3.940
55087SOL    HW267159   8.677   5.693   3.978
55088SOL     OW67160  13.838  13.641   3.242
55088SOL    HW167161  13.803  13.552   3.238
55088SOL    HW267162  13.815  13.672   3.329
55089SOL     OW67163   9.491  13.613  10.727
55089SOL    HW167164   9.573  13.660  10.709
55089SOL    HW267165   9.516  13.521  10.728
55090SOL     OW67166   7.306  11.575   4.709
55090SOL    HW167167   7.266  11.569   4.622
55090SOL    HW267168   7.258  11.645   4.753
55091SOL     OW67169  14.010  14.846   6.840
55091SOL    HW167170  14.089  14.839   6.893
55091SOL    HW267171  13.968  14.760   6.849
55092SOL     OW67172   4.545   7.399   1.156
55092SOL    HW167173   4.521   7.492   1.155
55092SOL    HW267174   4.469   7.355   1.117
55093SOL     OW67175   9.944   4.691   5.085
55093SOL    HW167176   9.875   4.710   5.149
55093SOL    HW267177   9.967   4.777   5.049
55094SOL     OW67178  10.386  13.340   6.539
55094SOL    HW167179  10.295  13.327   6.565
55094SOL    HW267180  10.433  13.353   6.621
55095SOL     OW67181   7.484   7.966   3.307
55095SOL    HW167182   7.531   7.925   3.379
55095SOL    HW267183   7.511   8.058   3.309
55096SOL     OW67184   0.655   7.014   7.738
55096SOL    HW167185   0.750   7.030   7.739
55096SOL    HW267186   0.624   7.048   7.822
55097SOL     OW67187   6.132  10.999  12.561
55097SOL    HW167188   6.146  10.958  12.476
55097SOL    HW267189   6.185  10.947  12.622
55098SOL     OW67190   9.199   1.329   8.060
55098SOL    HW167191   9.118   1.342   8.110
55098SOL    HW267192   9.230   1.243   8.086
55099SOL     OW67193   8.165   1.644  11.088
55099SOL    HW167194   8.169   1.717  11.150
55099SOL    HW267195   8.181   1.566  11.141
55100SOL     OW67196  14.823   2.741   7.911
55100SOL    HW167197   0.022   2.728   7.844
55100SOL    HW267198  14.851   2.819   7.958
55101SOL     OW67199   2.911   8.075   1.476
55101SOL    HW167200   2.945   8.162   1.456
55101SOL    HW267201   2.949   8.053   1.561
55102SOL     OW67202   5.116  12.121   9.487
55102SOL    HW167203   5.073  12.088   9.566
55102SOL    HW267204   5.127  12.044   9.431
55103SOL     OW67205   0.507  12.000   6.485
55103SOL    HW167206   0.426  12.051   6.478
55103SOL    HW267207   0.552  12.037   6.561
55104SOL     OW67208  13.086   0.811  11.487
55104SOL    HW167209  13.014   0.756  11.517
55104SOL    HW267210  13.085   0.803  11.392
55105SOL     OW67211   4.922   9.107  10.980
55105SOL    HW167212   4.970   9.134  10.902
55105SOL    HW267213   4.848   9.167  10.985
55106SOL     OW67214   6.007  12.746   2.265
55106SOL    HW167215   6.090  12.699   2.266
55106SOL    HW267216   5.953  12.700   2.200
55107SOL     OW67217   3.155   1.721   1.960
55107SOL    HW167218   3.247   1.725   1.934
55107SOL    HW267219   3.110   1.688   1.882
55108SOL     OW67220   0.053   6.289  14.864
55108SOL    HW167221   0.032   6.333  14.781
55108SOL    HW267222   0.113   6.349   0.038
55109SOL     OW67223  12.413   2.492   0.648
55109SOL    HW167224  12.456   2.514   0.730
55109SOL    HW267225  12.331   2.449   0.674
55110SOL     OW67226  13.757   6.323   3.137
55110SOL    HW167227  13.743   6.415   3.156
55110SOL    HW267228  13.851   6.310   3.144
55111SOL     OW67229   2.725  13.826   1.596
55111SOL    HW167230   2.670  13.762   1.640
55111SOL    HW267231   2.763  13.879   1.666
55112SOL     OW67232  13.017   2.914   2.192
55112SOL    HW167233  12.948   2.920   2.127
55112SOL    HW267234  12.977   2.948   2.273
55113SOL     OW67235   0.807   0.175   4.423
55113SOL    HW167236   0.863   0.248   4.397
55113SOL    HW267237   0.756   0.208   4.497
55114SOL     OW67238   6.320  12.661   7.087
55114SOL    HW167239   6.387  12.638   7.152
55114SOL    HW267240   6.285  12.576   7.059
55115SOL     OW67241   3.733   1.624  11.600
55115SOL    HW167242   3.716   1.707  11.555
55115SOL    HW267243   3.829   1.620  11.608
55116SOL     OW67244   6.871   7.828  14.388
55116SOL    HW167245   6.963   7.853  14.388
55116SOL    HW267246   6.835   7.865  14.307
55117SOL     OW67247  12.938  11.283   8.235
55117SOL    HW167248  13.008  11.261   8.296
55117SOL    HW267249  12.966  11.246   8.151
55118SOL     OW67250   3.776   7.175   6.985
55118SOL    HW167251   3.787   7.176   7.080
55118SOL    HW267252   3.836   7.107   6.954
55119SOL     OW67253  14.350  10.591  10.991
55119SOL    HW167254  14.323  10.509  10.949
55119SOL    HW267255  14.387  10.564  11.075
55120SOL     OW67256   8.827  12.479   1.724
55120SOL    HW167257   8.774  12.541   1.675
55120SOL    HW267258   8.775  12.398   1.725
55121SOL     OW67259   8.979   6.817  13.820
55121SOL    HW167260   8.940   6.751  13.877
55121SOL    HW267261   8.906   6.873  13.795
55122SOL     OW67262   3.136  13.442   8.831
55122SOL    HW167263   3.212  13.387   8.851
55122SOL    HW267264   3.172  13.531   8.824
55123SOL     OW67265  12.537   7.860   2.184
55123SOL    HW167266  12.465   7.913   2.150
55123SOL    HW267267  12.559   7.899   2.268
55124SOL     OW67268  12.678  11.710   7.576
55124SOL    HW167269  12.670  11.710   7.672
55124SOL    HW267270  12.591  11.733   7.545
55125SOL     OW67271   1.095  11.637  13.711
55125SOL    HW167272   1.067  11.548  13.730
55125SOL    HW267273   1.095  11.681  13.796
55126SOL     OW67274  10.894   1.665   0.123
55126SOL    HW167275  10.804   1.633   0.116
55126SOL    HW267276  10.889   1.737   0.186
55127SOL     OW67277  10.835  11.804  13.074
55127SOL    HW167278  10.880  11.734  13.025
55127SOL    HW267279  10.789  11.758  13.144
55128SOL     OW67280   7.729  11.091   3.700
55128SOL    HW167281   7.808  11.128   3.661
55128SOL    HW267282   7.720  11.005   3.658
55129SOL     OW67283   3.408  12.347   7.730
55129SOL    HW167284   3.458  12.371   7.809
55129SOL    HW267285   3.471  12.300   7.675
55130SOL     OW67286  11.359   6.197   1.318
55130SOL    HW167287  11.409   6.118   1.299
55130SOL    HW267288  11.423   6.259   1.352
55131SOL     OW67289   6.128  13.877   6.138
55131SOL    HW167290   6.174  13.868   6.221
55131SOL    HW267291   6.180  13.825   6.077
55132SOL     OW67292   7.714   6.593   7.101
55132SOL    HW167293   7.698   6.682   7.068
55132SOL    HW267294   7.753   6.606   7.187
55133SOL     OW67295   1.019  13.904  10.425
55133SOL    HW167296   1.017  13.993  10.391
55133SOL    HW267297   1.093  13.902  10.485
55134SOL     OW67298  10.217  13.911   6.314
55134SOL    HW167299  10.191  13.895   6.223
55134SOL    HW267300  10.134  13.913   6.362
55135SOL     OW67301   8.860   5.012   0.911
55135SOL    HW167302   8.946   5.005   0.953
55135SOL    HW267303   8.876   4.989   0.819
55136SOL     OW67304   4.104   7.001   2.615
55136SOL    HW167305   4.022   6.955   2.598
55136SOL    HW267306   4.146   6.952   2.686
55137SOL     OW67307   9.627  12.512   9.893
55137SOL    HW167308   9.669  12.448   9.950
55137SOL    HW267309   9.629  12.593   9.943
55138SOL     OW67310   1.335   8.749   9.327
55138SOL    HW167311   1.280   8.761   9.250
55138SOL    HW267312   1.336   8.834   9.370
55139SOL     OW67313   3.149  12.043  14.567
55139SOL    HW167314   3.184  12.094  14.494
55139SOL    HW267315   3.213  11.973  14.581
55140SOL     OW67316  11.341  10.166  11.495
55140SOL    HW167317  11.365  10.134  11.408
55140SOL    HW267318  11.249  10.188  11.488
55141SOL     OW67319  14.373  11.692  13.700
55141SOL    HW167320  14.448  11.752  13.701
55141SOL    HW267321  14.338  11.698  13.611
55142SOL     OW67322  11.922  14.310   5.707
55142SOL    HW167323  11.977  14.235   5.729
55142SOL    HW267324  11.842  14.272   5.671
55143SOL     OW67325   5.639   5.119   2.182
55143SOL    HW167326   5.720   5.073   2.161
55143SOL    HW267327   5.575   5.049   2.197
55144SOL     OW67328   0.142   9.196  13.228
55144SOL    HW167329   0.181   9.120  13.186
55144SOL    HW267330   0.169   9.190  13.320
55145SOL     OW67331   2.222   9.426  11.815
55145SOL    HW167332   2.248   9.396  11.728
55145SOL    HW267333   2.290   9.392  11.873
55146SOL     OW67334   7.279  13.986   1.808
55146SOL    HW167335   7.335  14.050   1.765
55146SOL    HW267336   7.295  13.904   1.762
55147SOL     OW67337  12.178   2.448  10.017
55147SOL    HW167338  12.084   2.433  10.010
55147SOL    HW267339  12.187   2.541  10.036
55148SOL     OW67340   1.777  13.685   1.787
55148SOL    HW167341   1.856  13.737   1.802
55148SOL    HW267342   1.745  13.715   1.702
55149SOL     OW67343   3.672   3.035   3.108
55149SOL    HW167344   3.765   3.040   3.130
55149SOL    HW267345   3.642   3.126   3.108
55150SOL     OW67346  11.715  12.054   2.824
55150SOL    HW167347  11.668  12.021   2.901
55150SOL    HW267348  11.715  11.980   2.763
55151SOL     OW67349   0.446   5.998  13.712
55151SOL    HW167350   0.485   6.037  13.634
55151SOL    HW267351   0.366   6.048  13.727
55152SOL     OW67352  11.506   2.218   8.799
55152SOL    HW167353  11.525   2.126   8.780
55152SOL    HW267354  11.411   2.221   8.809
55153SOL     OW67355   0.186   0.746   1.722
55153SOL    HW167356   0.197   0.725   1.629
55153SOL    HW267357   0.141   0.831   1.722
55154SOL     OW67358   2.526   5.413   4.083
55154SOL    HW167359   2.432   5.410   4.065
55154SOL    HW267360   2.535   5.374   4.170
55155SOL     OW67361  12.702   2.106   0.409
55155SOL    HW167362  12.610   2.120   0.430
55155SOL    HW267363  12.707   2.117   0.314
55156SOL     OW67364  12.723   0.708  14.207
55156SOL    HW167365  12.647   0.652  14.221
55156SOL    HW267366  12.694   0.772  14.141
55157SOL     OW67367  14.340   2.799   7.427
55157SOL    HW167368  14.293   2.880   7.408
55157SOL    HW267369  14.326   2.784   7.520
55158SOL     OW67370   5.267   7.599   1.137
55158SOL    HW167371   5.224   7.514   1.133
55158SOL    HW267372   5.235   7.645   1.059
55159SOL     OW67373   9.533   5.874   8.377
55159SOL    HW167374   9.603   5.912   8.324
55159SOL    HW267375   9.548   5.780   8.374
55160SOL     OW67376   5.453  11.677   0.064
55160SOL    HW167377   5.381  11.666   0.002
55160SOL    HW267378   5.531  11.660   0.013
55161SOL     OW67379  13.841   1.471   1.316
55161SOL    HW167380  13.837   1.397   1.255
55161SOL    HW267381  13.877   1.434   1.396
55162SOL     OW67382  13.120   7.059   7.804
55162SOL    HW167383  13.118   7.153   7.790
55162SOL    HW267384  13.043   7.026   7.758
55163SOL     OW67385   1.378   5.290   7.884
55163SOL    HW167386   1.383   5.364   7.944
55163SOL    HW267387   1.444   5.308   7.817
55164SOL     OW67388   6.129   7.446  14.807
55164SOL    HW167389   6.064   7.453   0.008
55164SOL    HW267390   6.175   7.530  14.809
55165SOL     OW67391   7.104   8.281  11.299
55165SOL    HW167392   7.187   8.287  11.346
55165SOL    HW267393   7.037   8.299  11.366
55166SOL     OW67394  11.256   6.385  14.804
55166SOL    HW167395  11.180   6.344  14.845
55166SOL    HW267396  11.254   6.476  14.835
55167SOL     OW67397  10.113  10.956  13.393
55167SOL    HW167398  10.191  10.912  13.426
55167SOL    HW267399  10.131  10.972  13.301
55168SOL     OW67400   0.293  11.297   0.640
55168SOL    HW167401   0.271  11.328   0.552
55168SOL    HW267402   0.324  11.207   0.627
55169SOL     OW67403   6.021  12.773   4.552
55169SOL    HW167404   6.001  12.727   4.470
55169SOL    HW267405   6.113  12.754   4.569
55170SOL     OW67406  10.539   5.063  12.590
55170SOL    HW167407  10.571   4.995  12.649
55170SOL    HW267408  10.603   5.066  12.519
55171SOL     OW67409   2.600   9.278   1.902
55171SOL    HW167410   2.588   9.243   1.990
55171SOL    HW267411   2.695   9.288   1.893
55172SOL     OW67412   2.420  13.585   6.665
55172SOL    HW167413   2.337  13.630   6.678
55172SOL    HW267414   2.466  13.637   6.600
55173SOL     OW67415   0.544   9.631   8.961
55173SOL    HW167416   0.537   9.629   9.056
55173SOL    HW267417   0.594   9.711   8.942
55174SOL     OW67418   6.464   7.513   1.630
55174SOL    HW167419   6.415   7.531   1.711
55174SOL    HW267420   6.458   7.418   1.620
55175SOL     OW67421   9.450   9.549  13.513
55175SOL    HW167422   9.516   9.487  13.482
55175SOL    HW267423   9.500   9.619  13.555
55176SOL     OW67424   4.331   9.130  11.118
55176SOL    HW167425   4.242   9.165  11.125
55176SOL    HW267426   4.340   9.109  11.025
55177SOL     OW67427  14.867   2.060   6.505
55177SOL    HW167428  14.820   2.042   6.423
55177SOL    HW267429   0.087   2.030   6.488
55178SOL     OW67430  10.176   4.010   6.421
55178SOL    HW167431  10.195   3.980   6.510
55178SOL    HW267432  10.080   4.020   6.420
55179SOL     OW67433   6.773  11.860   3.109
55179SOL    HW167434   6.751  11.931   3.169
55179SOL    HW267435   6.696  11.851   3.054
55180SOL     OW67436  12.170   3.345   3.929
55180SOL    HW167437  12.111   3.299   3.869
55180SOL    HW267438  12.232   3.389   3.872
55181SOL     OW67439   0.889  12.673   2.456
55181SOL    HW167440   0.882  12.579   2.437
55181SOL    HW267441   0.834  12.686   2.533
55182SOL     OW67442  12.591   5.520  11.205
55182SOL    HW167443  12.634   5.452  11.257
55182SOL    HW267444  12.497   5.501  11.214
55183SOL     OW67445  14.802   4.660   1.873
55183SOL    HW167446  14.730   4.598   1.862
55183SOL    HW267447  14.795   4.718   1.797
55184SOL     OW67448  13.434   5.609   1.127
55184SOL    HW167449  13.404   5.580   1.213
55184SOL    HW267450  13.475   5.694   1.143
55185SOL     OW67451   1.508   9.609   7.960
55185SOL    HW167452   1.519   9.661   7.880
55185SOL    HW267453   1.426   9.561   7.946
55186SOL     OW67454   0.182  14.802   6.717
55186SOL    HW167455   0.147   0.010   6.673
55186SOL    HW267456   0.272  14.826   6.738
55187SOL     OW67457  13.669  10.697   9.344
55187SOL    HW167458  13.762  10.713   9.358
55187SOL    HW267459  13.659  10.602   9.356
55188SOL     OW67460  13.821   5.628  10.629
55188SOL    HW167461  13.863   5.655  10.711
55188SOL    HW267462  13.739   5.678  10.626
55189SOL     OW67463  10.885   8.217  10.285
55189SOL    HW167464  10.868   8.192  10.376
55189SOL    HW267465  10.868   8.311  10.283
55190SOL     OW67466  13.935   4.742   0.491
55190SOL    HW167467  13.857   4.789   0.518
55190SOL    HW267468  13.927   4.656   0.532
55191SOL     OW67469   8.631  10.226   9.774
55191SOL    HW167470   8.631  10.321   9.772
55191SOL    HW267471   8.542  10.202   9.801
55192SOL     OW67472  12.288   6.522  12.978
55192SOL    HW167473  12.277   6.456  12.909
55192SOL    HW267474  12.331   6.596  12.935
55193SOL     OW67475  10.123   3.380  14.619
55193SOL    HW167476  10.080   3.446  14.565
55193SOL    HW267477  10.090   3.297  14.586
55194SOL     OW67478  12.923  12.379   1.989
55194SOL    HW167479  12.945  12.417   2.074
55194SOL    HW267480  12.832  12.351   1.998
55195SOL     OW67481   9.426   3.393   8.945
55195SOL    HW167482   9.442   3.404   9.038
55195SOL    HW267483   9.331   3.395   8.937
55196SOL     OW67484   6.449   7.260  11.027
55196SOL    HW167485   6.470   7.256  11.121
55196SOL    HW267486   6.480   7.177  10.992
55197SOL     OW67487   9.351  13.895   0.972
55197SOL    HW167488   9.391  13.886   0.885
55197SOL    HW267489   9.390  13.974   1.009
55198SOL     OW67490  14.166  14.549   5.005
55198SOL    HW167491  14.101  14.542   5.075
55198SOL    HW267492  14.249  14.560   5.051
55199SOL     OW67493   3.371   1.579   7.932
55199SOL    HW167494   3.312   1.540   7.998
55199SOL    HW267495   3.441   1.514   7.922
55200SOL     OW67496  14.124  13.524  12.225
55200SOL    HW167497  14.081  13.559  12.303
55200SOL    HW267498  14.069  13.553  12.153
55201SOL     OW67499   2.924  11.512   8.183
55201SOL    HW167500   2.917  11.558   8.267
55201SOL    HW267501   2.992  11.447   8.198
55202SOL     OW67502   9.174   3.817   3.095
55202SOL    HW167503   9.238   3.790   3.029
55202SOL    HW267504   9.222   3.878   3.151
55203SOL     OW67505  10.888   1.701   8.283
55203SOL    HW167506  10.883   1.657   8.368
55203SOL    HW267507  10.915   1.790   8.303
55204SOL     OW67508   8.571   0.002   5.676
55204SOL    HW167509   8.550  14.782   5.703
55204SOL    HW267510   8.496   0.029   5.623
55205SOL     OW67511   2.592   9.302   4.015
55205SOL    HW167512   2.609   9.210   3.995
55205SOL    HW267513   2.671   9.348   3.987
55206SOL     OW67514   7.576   7.276   6.486
55206SOL    HW167515   7.483   7.274   6.463
55206SOL    HW267516   7.579   7.324   6.568
55207SOL     OW67517  14.758   5.264   6.201
55207SOL    HW167518  14.730   5.213   6.125
55207SOL    HW267519  14.854   5.260   6.199
55208SOL     OW67520   6.846   6.338   0.992
55208SOL    HW167521   6.850   6.376   1.080
55208SOL    HW267522   6.752   6.337   0.971
55209SOL     OW67523   1.781   8.411   9.528
55209SOL    HW167524   1.798   8.407   9.622
55209SOL    HW267525   1.763   8.503   9.510
55210SOL     OW67526   0.212  13.471  12.927
55210SOL    HW167527   0.128  13.454  12.884
55210SOL    HW267528   0.190  13.482  13.019
55211SOL     OW67529   7.087   0.156  10.148
55211SOL    HW167530   7.141   0.117  10.217
55211SOL    HW267531   7.090   0.092  10.076
55212SOL     OW67532  10.649  10.550  12.974
55212SOL    HW167533  10.579  10.549  13.039
55212SOL    HW267534  10.666  10.643  12.958
55213SOL     OW67535   4.565   3.689   5.360
55213SOL    HW167536   4.631   3.758   5.353
55213SOL    HW267537   4.612   3.616   5.400
55214SOL     OW67538  10.507  12.511  14.581
55214SOL    HW167539  10.488  12.603  14.564
55214SOL    HW267540  10.567  12.512  14.655
55215SOL     OW67541   3.411  13.668  14.090
55215SOL    HW167542   3.464  13.648  14.167
55215SOL    HW267543   3.381  13.757  14.103
55216SOL     OW67544  14.461   7.820   0.615
55216SOL    HW167545  14.413   7.835   0.696
55216SOL    HW267546  14.425   7.883   0.553
55217SOL     OW67547   2.290   9.489  10.267
55217SOL    HW167548   2.383   9.482  10.290
55217SOL    HW267549   2.290   9.532  10.181
55218SOL     OW67550   8.680  14.107   3.361
55218SOL    HW167551   8.591  14.131   3.336
55218SOL    HW267552   8.736  14.173   3.321
55219SOL     OW67553   1.753   1.724   8.245
55219SOL    HW167554   1.768   1.819   8.244
55219SOL    HW267555   1.816   1.690   8.182
55220SOL     OW67556   0.599   5.481   1.350
55220SOL    HW167557   0.564   5.437   1.273
55220SOL    HW267558   0.681   5.521   1.320
55221SOL     OW67559  14.692  14.206   3.606
55221SOL    HW167560  14.757  14.248   3.549
55221SOL    HW267561  14.695  14.113   3.581
55222SOL     OW67562   4.525   1.401   5.857
55222SOL    HW167563   4.502   1.470   5.796
55222SOL    HW267564   4.585   1.443   5.919
55223SOL     OW67565   5.182  10.327  13.841
55223SOL    HW167566   5.272  10.299  13.827
55223SOL    HW267567   5.134  10.295  13.764
55224SOL     OW67568   7.208   8.119   1.325
55224SOL    HW167569   7.133   8.099   1.270
55224SOL    HW267570   7.170   8.155   1.405
55225SOL     OW67571  13.613   1.393   6.501
55225SOL    HW167572  13.590   1.479   6.467
55225SOL    HW267573  13.664   1.411   6.580
55226SOL     OW67574   1.324  11.115  12.686
55226SOL    HW167575   1.372  11.134  12.767
55226SOL    HW267576   1.391  11.116  12.618
55227SOL     OW67577   1.900  10.441   1.263
55227SOL    HW167578   1.979  10.433   1.209
55227SOL    HW267579   1.933  10.475   1.347
55228SOL     OW67580   7.838   2.056   8.485
55228SOL    HW167581   7.841   1.993   8.413
55228SOL    HW267582   7.875   2.136   8.448
55229SOL     OW67583   9.733   8.365   9.491
55229SOL    HW167584   9.753   8.387   9.582
55229SOL    HW267585   9.679   8.438   9.460
55230SOL     OW67586   2.789   5.985   5.747
55230SOL    HW167587   2.717   6.045   5.763
55230SOL    HW267588   2.862   6.021   5.798
55231SOL     OW67589  10.679  10.244   3.708
55231SOL    HW167590  10.623  10.236   3.631
55231SOL    HW267591  10.768  10.247   3.673
55232SOL     OW67592  14.863   0.469  13.589
55232SOL    HW167593  14.820   0.526  13.526
55232SOL    HW267594   0.061   0.423  13.538
55233SOL     OW67595  12.255   2.468   2.751
55233SOL    HW167596  12.203   2.481   2.671
55233SOL    HW267597  12.191   2.435   2.815
55234SOL     OW67598   3.025  10.448  12.618
55234SOL    HW167599   3.091  10.483  12.559
55234SOL    HW267600   3.071  10.434  12.701
55235SOL     OW67601  14.548   8.174  11.128
55235SOL    HW167602  14.593   8.091  11.145
55235SOL    HW267603  14.591   8.210  11.050
55236SOL     OW67604   7.053   6.967  14.522
55236SOL    HW167605   7.080   6.889  14.571
55236SOL    HW267606   7.135   7.003  14.489
55237SOL     OW67607   8.806  11.763   0.015
55237SOL    HW167608   8.771  11.674   0.018
55237SOL    HW267609   8.761  11.809   0.086
55238SOL     OW67610  14.793   0.978  12.831
55238SOL    HW167611  14.777   1.033  12.754
55238SOL    HW267612  14.738   1.016  12.900
55239SOL     OW67613   6.469   0.886  12.578
55239SOL    HW167614   6.468   0.978  12.553
55239SOL    HW267615   6.430   0.884  12.666
55240SOL     OW67616  13.319   9.527   9.402
55240SOL    HW167617  13.273   9.443   9.404
55240SOL    HW267618  13.289   9.572   9.481
55241SOL     OW67619   1.731   0.110  10.600
55241SOL    HW167620   1.752   0.151  10.684
55241SOL    HW267621   1.642   0.077  10.611
55242SOL     OW67622   3.036   8.322   3.344
55242SOL    HW167623   2.947   8.357   3.330
55242SOL    HW267624   3.091   8.373   3.285
55243SOL     OW67625   5.033  11.225  13.890
55243SOL    HW167626   5.111  11.169  13.888
55243SOL    HW267627   4.961  11.166  13.914
55244SOL     OW67628   3.417   8.907   7.183
55244SOL    HW167629   3.436   9.001   7.176
55244SOL    HW267630   3.322   8.902   7.178
55245SOL     OW67631  13.200   6.587  12.568
55245SOL    HW167632  13.182   6.496  12.545
55245SOL    HW267633  13.282   6.584  12.617
55246SOL     OW67634   4.127   6.578   0.829
55246SOL    HW167635   4.039   6.582   0.792
55246SOL    HW267636   4.142   6.485   0.844
55247SOL     OW67637   5.884   1.467  11.726
55247SOL    HW167638   5.802   1.482  11.774
55247SOL    HW267639   5.857   1.461  11.635
55248SOL     OW67640  12.449  12.307   2.706
55248SOL    HW167641  12.477  12.314   2.615
55248SOL    HW267642  12.452  12.397   2.738
55249SOL     OW67643   6.977  13.787  12.734
55249SOL    HW167644   6.937  13.700  12.728
55249SOL    HW267645   6.929  13.839  12.670
55250SOL     OW67646  13.244   3.160  13.248
55250SOL    HW167647  13.289   3.104  13.312
55250SOL    HW267648  13.216   3.099  13.179
55251SOL     OW67649  13.191   0.219   6.661
55251SOL    HW167650  13.264   0.251   6.609
55251SOL    HW267651  13.149   0.298   6.695
55252SOL     OW67652   7.987   1.527   2.042
55252SOL    HW167653   8.056   1.501   1.981
55252SOL    HW267654   8.012   1.486   2.125
55253SOL     OW67655  13.420  13.563   3.114
55253SOL    HW167656  13.486  13.555   3.045
55253SOL    HW267657  13.408  13.657   3.125
55254SOL     OW67658   2.028   0.025  10.588
55254SOL    HW167659   2.089   0.030  10.661
55254SOL    HW267660   1.942   0.023  10.628
55255SOL     OW67661   5.501   4.920  13.980
55255SOL    HW167662   5.484   4.986  13.913
55255SOL    HW267663   5.580   4.876  13.951
55256SOL     OW67664   8.489  13.081   2.518
55256SOL    HW167665   8.403  13.040   2.516
55256SOL    HW267666   8.471  13.175   2.512
55257SOL     OW67667   4.289  10.806   3.773
55257SOL    HW167668   4.281  10.881   3.714
55257SOL    HW267669   4.374  10.820   3.817
55258SOL     OW67670  13.290   3.596   8.167
55258SOL    HW167671  13.245   3.589   8.251
55258SOL    HW267672  13.244   3.534   8.110
55259SOL     OW67673   4.542   9.144  12.006
55259SOL    HW167674   4.606   9.078  11.979
55259SOL    HW267675   4.577   9.180  12.088
55260SOL     OW67676   5.889   2.967   8.961
55260SOL    HW167677   5.831   3.034   8.925
55260SOL    HW267678   5.961   3.015   9.000
55261SOL     OW67679  11.035   6.190   0.451
55261SOL    HW167680  10.979   6.199   0.374
55261SOL    HW267681  11.019   6.270   0.502
55262SOL     OW67682   0.260   7.271   6.360
55262SOL    HW167683   0.307   7.202   6.311
55262SOL    HW267684   0.317   7.290   6.435
55263SOL     OW67685   8.918   5.309   0.356
55263SOL    HW167686   9.009   5.339   0.353
55263SOL    HW267687   8.892   5.322   0.447
55264SOL     OW67688  14.029   7.254   5.586
55264SOL    HW167689  13.969   7.298   5.526
55264SOL    HW267690  14.041   7.317   5.657
55265SOL     OW67691  13.486   9.363   7.265
55265SOL    HW167692  13.543   9.432   7.232
55265SOL    HW267693  13.545   9.297   7.300
55266SOL     OW67694   3.102  14.210  11.813
55266SOL    HW167695   3.095  14.119  11.783
55266SOL    HW267696   3.100  14.204  11.908
55267SOL     OW67697  14.780  10.546   8.934
55267SOL    HW167698  14.769  10.460   8.893
55267SOL    HW267699  14.729  10.605   8.879
55268SOL     OW67700   4.495   8.116   7.779
55268SOL    HW167701   4.518   8.057   7.707
55268SOL    HW267702   4.418   8.076   7.819
55269SOL     OW67703  13.973   3.339  10.701
55269SOL    HW167704  14.022   3.348  10.783
55269SOL    HW267705  13.908   3.409  10.703
55270SOL     OW67706  10.220   9.653  10.384
55270SOL    HW167707  10.306   9.664  10.426
55270SOL    HW267708  10.237   9.667  10.291
55271SOL     OW67709   1.211   9.924   1.432
55271SOL    HW167710   1.195   9.907   1.525
55271SOL    HW267711   1.173  10.010   1.417
55272SOL     OW67712  12.713   3.072   5.360
55272SOL    HW167713  12.625   3.053   5.394
55272SOL    HW267714  12.715   3.168   5.354
55273SOL     OW67715  11.591   6.353  14.302
55273SOL    HW167716  11.530   6.298  14.254
55273SOL    HW267717  11.662   6.370  14.240
55274SOL     OW67718  11.560   2.688   5.088
55274SOL    HW167719  11.484   2.635   5.064
55274SOL    HW267720  11.527   2.751   5.152
55275SOL     OW67721  12.876   1.763   4.973
55275SOL    HW167722  12.903   1.839   5.024
55275SOL    HW267723  12.932   1.764   4.895
55276SOL     OW67724   9.870  12.220   8.479
55276SOL    HW167725   9.863  12.174   8.563
55276SOL    HW267726   9.956  12.263   8.483
55277SOL     OW67727   4.105  11.712  11.829
55277SOL    HW167728   4.198  11.689  11.831
55277SOL    HW267729   4.096  11.771  11.755
55278SOL     OW67730   1.178   8.043   1.206
55278SOL    HW167731   1.267   8.006   1.203
55278SOL    HW267732   1.121   7.968   1.192
55279SOL     OW67733   9.205  14.731  13.776
55279SOL    HW167734   9.167  14.668  13.837
55279SOL    HW267735   9.181  14.698  13.689
55280SOL     OW67736   2.398   0.826  11.397
55280SOL    HW167737   2.354   0.746  11.423
55280SOL    HW267738   2.332   0.895  11.408
55281SOL     OW67739   0.250   8.859  10.982
55281SOL    HW167740   0.334   8.849  10.936
55281SOL    HW267741   0.274   8.871  11.073
55282SOL     OW67742   7.363   3.465  12.833
55282SOL    HW167743   7.345   3.451  12.926
55282SOL    HW267744   7.453   3.496  12.830
55283SOL     OW67745   7.815   2.648  14.009
55283SOL    HW167746   7.824   2.741  13.989
55283SOL    HW267747   7.840   2.603  13.928
55284SOL     OW67748   3.252   3.731  13.743
55284SOL    HW167749   3.245   3.825  13.762
55284SOL    HW267750   3.176   3.713  13.687
55285SOL     OW67751   5.513  11.208  10.380
55285SOL    HW167752   5.505  11.194  10.474
55285SOL    HW267753   5.428  11.243  10.353
55286SOL     OW67754   1.062   5.497   8.670
55286SOL    HW167755   1.127   5.441   8.712
55286SOL    HW267756   1.106   5.581   8.658
55287SOL     OW67757   7.803   4.322  12.491
55287SOL    HW167758   7.853   4.370  12.425
55287SOL    HW267759   7.866   4.259  12.527
55288SOL     OW67760   8.133   9.797  12.940
55288SOL    HW167761   8.059   9.794  13.001
55288SOL    HW267762   8.152   9.891  12.929
55289SOL     OW67763   3.188   6.598  11.623
55289SOL    HW167764   3.173   6.690  11.641
55289SOL    HW267765   3.143   6.581  11.541
55290SOL     OW67766  13.579  11.071   3.716
55290SOL    HW167767  13.658  11.124   3.727
55290SOL    HW267768  13.517  11.104   3.780
55291SOL     OW67769  13.018  11.425   3.404
55291SOL    HW167770  13.106  11.387   3.402
55291SOL    HW267771  12.992  11.429   3.312
55292SOL     OW67772   2.612   0.934  12.251
55292SOL    HW167773   2.627   0.894  12.166
55292SOL    HW267774   2.594   1.026  12.231
55293SOL     OW67775  14.002  10.895   1.943
55293SOL    HW167776  13.989  10.988   1.961
55293SOL    HW267777  13.929  10.851   1.987
55294SOL     OW67778   5.992   4.207   8.313
55294SOL    HW167779   5.912   4.247   8.345
55294SOL    HW267780   6.059   4.233   8.377
55295SOL     OW67781   4.856   1.646   3.430
55295SOL    HW167782   4.947   1.617   3.426
55295SOL    HW267783   4.838   1.681   3.343
55296SOL     OW67784   2.895   2.959  12.451
55296SOL    HW167785   2.969   2.902  12.469
55296SOL    HW267786   2.822   2.919  12.499
55297SOL     OW67787   9.027   1.516   3.931
55297SOL    HW167788   9.120   1.503   3.915
55297SOL    HW267789   9.019   1.609   3.951
55298SOL     OW67790   0.830   9.361  14.631
55298SOL    HW167791   0.883   9.360  14.552
55298SOL    HW267792   0.874   9.298  14.690
55299SOL     OW67793   3.731   6.535   5.073
55299SOL    HW167794   3.776   6.453   5.051
55299SOL    HW267795   3.699   6.521   5.161
55300SOL     OW67796   8.493   4.327   1.384
55300SOL    HW167797   8.457   4.241   1.365
55300SOL    HW267798   8.482   4.338   1.479
55301SOL     OW67799   1.254  11.367  11.462
55301SOL    HW167800   1.242  11.333  11.550
55301SOL    HW267801   1.303  11.448  11.473
55302SOL     OW67802  13.679  12.725   3.006
55302SOL    HW167803  13.755  12.775   2.975
55302SOL    HW267804  13.677  12.741   3.100
55303SOL     OW67805  13.470  10.934   4.023
55303SOL    HW167806  13.422  10.893   3.952
55303SOL    HW267807  13.402  10.972   4.079
55304SOL     OW67808   1.947   8.000  10.533
55304SOL    HW167809   1.967   7.937  10.464
55304SOL    HW267810   1.853   7.990  10.548
55305SOL     OW67811   9.798  11.558  12.974
55305SOL    HW167812   9.720  11.583  13.024
55305SOL    HW267813   9.814  11.632  12.916
55306SOL     OW67814   4.382   5.139  11.178
55306SOL    HW167815   4.343   5.102  11.257
55306SOL    HW267816   4.336   5.221  11.164
55307SOL     OW67817   8.155   2.321   5.347
55307SOL    HW167818   8.069   2.280   5.332
55307SOL    HW267819   8.157   2.339   5.441
55308SOL     OW67820   6.038   9.640  10.269
55308SOL    HW167821   6.059   9.560  10.222
55308SOL    HW267822   6.109   9.650  10.333
55309SOL     OW67823  11.003   3.673  10.912
55309SOL    HW167824  11.042   3.727  10.981
55309SOL    HW267825  11.060   3.686  10.836
55310SOL     OW67826   1.734   4.349  14.711
55310SOL    HW167827   1.673   4.275  14.707
55310SOL    HW267828   1.732   4.377  14.803
55311SOL     OW67829   6.373  11.001   7.090
55311SOL    HW167830   6.336  10.978   7.004
55311SOL    HW267831   6.351  10.926   7.146
55312SOL     OW67832   7.104   3.992  13.450
55312SOL    HW167833   7.028   4.033  13.492
55312SOL    HW267834   7.180   4.034  13.491
55313SOL     OW67835  11.554   1.186   6.508
55313SOL    HW167836  11.543   1.119   6.575
55313SOL    HW267837  11.647   1.185   6.487
55314SOL     OW67838   7.035   9.910  11.110
55314SOL    HW167839   6.977   9.953  11.048
55314SOL    HW267840   7.086   9.849  11.058
55315SOL     OW67841   7.366   0.965  11.602
55315SOL    HW167842   7.346   1.010  11.519
55315SOL    HW267843   7.283   0.968  11.651
55316SOL     OW67844   6.436  13.266   6.696
55316SOL    HW167845   6.422  13.184   6.649
55316SOL    HW267846   6.415  13.334   6.632
55317SOL     OW67847   7.008   0.372   5.786
55317SOL    HW167848   6.980   0.446   5.841
55317SOL    HW267849   6.927   0.342   5.745
55318SOL     OW67850   0.395  13.959   1.028
55318SOL    HW167851   0.320  13.927   1.078
55318SOL    HW267852   0.430  14.031   1.081
55319SOL     OW67853  12.029   1.581   8.822
55319SOL    HW167854  12.075   1.634   8.887
55319SOL    HW267855  11.938   1.580   8.852
55320SOL     OW67856  10.447   4.648   2.835
55320SOL    HW167857  10.532   4.616   2.865
55320SOL    HW267858  10.436   4.608   2.749
55321SOL     OW67859   3.885  10.361   1.679
55321SOL    HW167860   3.887  10.369   1.775
55321SOL    HW267861   3.862  10.448   1.648
55322SOL     OW67862   4.484   7.107   9.076
55322SOL    HW167863   4.419   7.086   9.008
55322SOL    HW267864   4.559   7.052   9.054
55323SOL     OW67865   6.409   5.298   2.971
55323SOL    HW167866   6.428   5.374   2.916
55323SOL    HW267867   6.476   5.299   3.039
55324SOL     OW67868  10.866  13.538  14.852
55324SOL    HW167869  10.852  13.444  14.865
55324SOL    HW267870  10.951  13.555   0.023
55325SOL     OW67871   2.664   0.134   2.150
55325SOL    HW167872   2.598   0.154   2.084
55325SOL    HW267873   2.697   0.219   2.178
55326SOL     OW67874   6.924  11.154   4.923
55326SOL    HW167875   6.852  11.118   4.975
55326SOL    HW267876   6.896  11.244   4.904
55327SOL     OW67877   8.851  13.886   2.709
55327SOL    HW167878   8.908  13.938   2.652
55327SOL    HW267879   8.865  13.922   2.796
55328SOL     OW67880  10.374  11.451   4.731
55328SOL    HW167881  10.348  11.477   4.819
55328SOL    HW267882  10.401  11.532   4.688
55329SOL     OW67883  12.677   8.343   4.962
55329SOL    HW167884  12.720   8.419   4.922
55329SOL    HW267885  12.646   8.375   5.047
55330SOL     OW67886   9.843  11.807   3.423
55330SOL    HW167887   9.874  11.725   3.383
55330SOL    HW267888   9.923  11.857   3.439
55331SOL     OW67889   5.771  13.077  12.357
55331SOL    HW167890   5.730  13.110  12.276
55331SOL    HW267891   5.697  13.057  12.414
55332SOL     OW67892   0.783   5.038  12.370
55332SOL    HW167893   0.841   4.979  12.322
55332SOL    HW267894   0.726   4.980  12.421
55333SOL     OW67895  11.480  12.278   1.220
55333SOL    HW167896  11.437  12.363   1.226
55333SOL    HW267897  11.503  12.256   1.310
55334SOL     OW67898  12.919   0.169   9.927
55334SOL    HW167899  12.901   0.206   9.841
55334SOL    HW267900  12.849   0.202   9.983
55335SOL     OW67901  11.764   5.000  10.099
55335SOL    HW167902  11.841   5.049  10.127
55335SOL    HW267903  11.694   5.031  10.156
55336SOL     OW67904   3.480   5.751   8.431
55336SOL    HW167905   3.413   5.771   8.497
55336SOL    HW267906   3.478   5.826   8.372
55337SOL     OW67907   0.073   2.341   5.106
55337SOL    HW167908   0.092   2.264   5.053
55337SOL    HW267909   0.074   2.308   5.196
55338SOL     OW67910   7.758   5.881  14.028
55338SOL    HW167911   7.723   5.838  13.950
55338SOL    HW267912   7.844   5.913  14.001
55339SOL     OW67913   7.556  11.636   8.813
55339SOL    HW167914   7.477  11.680   8.843
55339SOL    HW267915   7.616  11.642   8.888
55340SOL     OW67916   7.991   6.059  13.944
55340SOL    HW167917   8.081   6.033  13.962
55340SOL    HW267918   7.980   6.045  13.850
55341SOL     OW67919   5.124   1.361   7.217
55341SOL    HW167920   5.156   1.277   7.186
55341SOL    HW267921   5.126   1.354   7.312
55342SOL     OW67922   4.728  11.856   7.459
55342SOL    HW167923   4.791  11.824   7.394
55342SOL    HW267924   4.765  11.940   7.488
55343SOL     OW67925   0.930  10.324   6.298
55343SOL    HW167926   0.863  10.328   6.230
55343SOL    HW267927   0.880  10.321   6.380
55344SOL     OW67928  11.875   7.413  11.607
55344SOL    HW167929  11.784   7.404  11.634
55344SOL    HW267930  11.871   7.463  11.525
55345SOL     OW67931   7.558   6.371  10.759
55345SOL    HW167932   7.552   6.365  10.664
55345SOL    HW267933   7.503   6.300  10.792
55346SOL     OW67934  11.453   6.935  13.147
55346SOL    HW167935  11.459   7.030  13.155
55346SOL    HW267936  11.541   6.907  13.121
55347SOL     OW67937   3.870  10.015   9.418
55347SOL    HW167938   3.837   9.984   9.334
55347SOL    HW267939   3.919   9.941   9.453
55348SOL     OW67940   6.270   5.498   0.555
55348SOL    HW167941   6.179   5.470   0.564
55348SOL    HW267942   6.282   5.564   0.624
55349SOL     OW67943   1.102   7.661   6.378
55349SOL    HW167944   1.026   7.719   6.377
55349SOL    HW267945   1.133   7.664   6.469
55350SOL     OW67946   2.668   8.186   8.238
55350SOL    HW167947   2.642   8.187   8.330
55350SOL    HW267948   2.694   8.095   8.221
55351SOL     OW67949   9.112  10.239   7.263
55351SOL    HW167950   9.185  10.262   7.205
55351SOL    HW267951   9.080  10.156   7.229
55352SOL     OW67952   4.732   8.798   8.138
55352SOL    HW167953   4.677   8.751   8.076
55352SOL    HW267954   4.682   8.797   8.220
55353SOL     OW67955  14.005  13.752   5.173
55353SOL    HW167956  14.063  13.694   5.124
55353SOL    HW267957  13.917  13.728   5.145
55354SOL     OW67958   7.058   2.333   3.489
55354SOL    HW167959   7.116   2.409   3.487
55354SOL    HW267960   7.109   2.263   3.447
55355SOL     OW67961  13.463  11.437  13.388
55355SOL    HW167962  13.552  11.421  13.355
55355SOL    HW267963  13.476  11.460  13.481
55356SOL     OW67964   1.034  12.817   3.306
55356SOL    HW167965   1.027  12.904   3.268
55356SOL    HW267966   1.124  12.789   3.289
55357SOL     OW67967  14.589   8.473   5.812
55357SOL    HW167968  14.617   8.558   5.778
55357SOL    HW267969  14.580   8.487   5.907
55358SOL     OW67970  11.275   7.121   6.145
55358SOL    HW167971  11.290   7.035   6.184
55358SOL    HW267972  11.193   7.112   6.097
55359SOL     OW67973   4.264   4.545   3.052
55359SOL    HW167974   4.207   4.559   2.976
55359SOL    HW267975   4.324   4.477   3.024
55360SOL     OW67976   3.461   7.808   8.680
55360SOL    HW167977   3.414   7.793   8.597
55360SOL    HW267978   3.409   7.762   8.745
55361SOL     OW67979  13.518   3.587  13.830
55361SOL    HW167980  13.456   3.531  13.877
55361SOL    HW267981  13.463   3.649  13.783
55362SOL     OW67982   2.288   6.194   2.520
55362SOL    HW167983   2.331   6.265   2.472
55362SOL    HW267984   2.306   6.115   2.468
55363SOL     OW67985  12.645   3.542   5.293
55363SOL    HW167986  12.707   3.477   5.325
55363SOL    HW267987  12.595   3.496   5.226
55364SOL     OW67988   6.662  10.809  11.072
55364SOL    HW167989   6.629  10.758  10.997
55364SOL    HW267990   6.741  10.852  11.039
55365SOL     OW67991   5.943   5.689   7.439
55365SOL    HW167992   5.916   5.640   7.362
55365SOL    HW267993   6.024   5.733   7.413
55366SOL     OW67994   5.118  10.664  11.341
55366SOL    HW167995   5.191  10.604  11.333
55366SOL    HW267996   5.152  10.748  11.310
55367SOL     OW67997   3.259  10.663  13.245
55367SOL    HW167998   3.229  10.601  13.178
55367SOL    HW267999   3.348  10.686  13.219
55368SOL     OW68000   8.611  13.424   6.875
55368SOL    HW168001   8.571  13.406   6.960
55368SOL    HW268002   8.703  13.440   6.895
55369SOL     OW68003   1.388   9.307   0.664
55369SOL    HW168004   1.477   9.275   0.646
55369SOL    HW268005   1.401   9.396   0.695
55370SOL     OW68006   0.835  12.610   6.111
55370SOL    HW168007   0.763  12.636   6.169
55370SOL    HW268008   0.799  12.538   6.059
55371SOL     OW68009   8.830   5.031  14.347
55371SOL    HW168010   8.784   5.108  14.313
55371SOL    HW268011   8.793   5.016  14.433
55372SOL     OW68012   9.262   8.956   3.486
55372SOL    HW168013   9.242   8.972   3.578
55372SOL    HW268014   9.201   8.887   3.460
55373SOL     OW68015  10.869   4.544   9.055
55373SOL    HW168016  10.855   4.629   9.012
55373SOL    HW268017  10.920   4.494   8.992
55374SOL     OW68018   7.305   4.723   7.642
55374SOL    HW168019   7.236   4.657   7.632
55374SOL    HW268020   7.259   4.807   7.637
55375SOL     OW68021   0.869  10.284  12.597
55375SOL    HW168022   0.795  10.253  12.648
55375SOL    HW268023   0.886  10.372  12.630
55376SOL     OW68024   2.500  11.704  14.055
55376SOL    HW168025   2.513  11.734  14.145
55376SOL    HW268026   2.568  11.748  14.004
55377SOL     OW68027  12.728   4.451   7.283
55377SOL    HW168028  12.662   4.484   7.344
55377SOL    HW268029  12.690   4.466   7.197
55378SOL     OW68030   1.697   8.003   8.101
55378SOL    HW168031   1.772   8.042   8.056
55378SOL    HW268032   1.673   8.066   8.168
55379SOL     OW68033  10.476   8.493   4.853
55379SOL    HW168034  10.567   8.517   4.836
55379SOL    HW268035  10.467   8.501   4.948
55380SOL     OW68036   0.577  13.679  10.992
55380SOL    HW168037   0.653  13.705  11.046
55380SOL    HW268038   0.566  13.586  11.009
55381SOL     OW68039   7.351   6.052   4.300
55381SOL    HW168040   7.334   5.959   4.315
55381SOL    HW268041   7.334   6.094   4.385
55382SOL     OW68042   8.526   9.615   2.305
55382SOL    HW168043   8.619   9.607   2.283
55382SOL    HW268044   8.498   9.694   2.259
55383SOL     OW68045   6.244   1.970   7.056
55383SOL    HW168046   6.283   2.006   6.976
55383SOL    HW268047   6.264   1.877   7.052
55384SOL     OW68048   3.362   6.786  14.431
55384SOL    HW168049   3.300   6.847  14.470
55384SOL    HW268050   3.333   6.778  14.340
55385SOL     OW68051  14.028  12.426   0.741
55385SOL    HW168052  14.106  12.477   0.765
55385SOL    HW268053  14.038  12.408   0.648
55386SOL     OW68054   1.028   9.584   1.641
55386SOL    HW168055   0.941   9.546   1.629
55386SOL    HW268056   1.054   9.613   1.554
55387SOL     OW68057  12.226  12.483   1.635
55387SOL    HW168058  12.159  12.551   1.631
55387SOL    HW268059  12.187  12.409   1.587
55388SOL     OW68060   1.846   6.314   0.578
55388SOL    HW168061   1.851   6.364   0.497
55388SOL    HW268062   1.935   6.285   0.594
55389SOL     OW68063   9.807   5.823  12.174
55389SOL    HW168064   9.804   5.763  12.248
55389SOL    HW268065   9.715   5.839  12.153
55390SOL     OW68066   4.897   3.361   3.699
55390SOL    HW168067   4.968   3.310   3.737
55390SOL    HW268068   4.936   3.404   3.623
55391SOL     OW68069  10.812  10.748   0.264
55391SOL    HW168070  10.880  10.720   0.326
55391SOL    HW268071  10.749  10.796   0.318
55392SOL     OW68072   8.866   9.919   2.607
55392SOL    HW168073   8.782   9.913   2.653
55392SOL    HW268074   8.884   9.829   2.580
55393SOL     OW68075   1.803   2.563   5.730
55393SOL    HW168076   1.867   2.496   5.755
55393SOL    HW268077   1.759   2.525   5.653
55394SOL     OW68078   1.276  10.840   7.864
55394SOL    HW168079   1.290  10.758   7.817
55394SOL    HW268080   1.181  10.853   7.861
55395SOL     OW68081   7.289   9.414   6.224
55395SOL    HW168082   7.374   9.439   6.186
55395SOL    HW268083   7.226   9.435   6.155
55396SOL     OW68084   4.698   3.321  14.312
55396SOL    HW168085   4.708   3.257  14.382
55396SOL    HW268086   4.787   3.337  14.281
55397SOL     OW68087   5.312   1.093  14.306
55397SOL    HW168088   5.319   1.083  14.212
55397SOL    HW268089   5.386   1.042  14.341
55398SOL     OW68090   7.644   7.846  13.236
55398SOL    HW168091   7.724   7.862  13.287
55398SOL    HW268092   7.675   7.833  13.147
55399SOL     OW68093  12.502  14.158   8.879
55399SOL    HW168094  12.407  14.152   8.871
55399SOL    HW268095  12.524  14.098   8.950
55400SOL     OW68096  12.599   0.578   0.037
55400SOL    HW168097  12.549   0.651   0.073
55400SOL    HW268098  12.649   0.544   0.111
55401SOL     OW68099   9.943   1.426   1.904
55401SOL    HW168100   9.921   1.518   1.891
55401SOL    HW268101   9.879   1.394   1.967
55402SOL     OW68102  11.575   7.945   8.886
55402SOL    HW168103  11.640   7.947   8.956
55402SOL    HW268104  11.492   7.968   8.929
55403SOL     OW68105   4.929   6.404   2.452
55403SOL    HW168106   4.933   6.439   2.541
55403SOL    HW268107   5.007   6.438   2.409
55404SOL     OW68108   3.926   0.889   1.409
55404SOL    HW168109   3.883   0.804   1.417
55404SOL    HW268110   3.992   0.889   1.478
55405SOL     OW68111  11.903   9.693   2.157
55405SOL    HW168112  11.898   9.687   2.252
55405SOL    HW268113  11.823   9.651   2.126
55406SOL     OW68114   7.313  13.461   9.591
55406SOL    HW168115   7.254  13.387   9.579
55406SOL    HW268116   7.357  13.443   9.674
55407SOL     OW68117   2.731  12.125   8.798
55407SOL    HW168118   2.776  12.044   8.821
55407SOL    HW268119   2.671  12.141   8.870
55408SOL     OW68120  10.469  12.740   0.501
55408SOL    HW168121  10.388  12.701   0.469
55408SOL    HW268122  10.460  12.737   0.596
55409SOL     OW68123   1.610   9.942   8.419
55409SOL    HW168124   1.597   9.851   8.447
55409SOL    HW268125   1.603   9.993   8.500
55410SOL     OW68126  13.921   8.170   0.706
55410SOL    HW168127  13.898   8.116   0.781
55410SOL    HW268128  13.912   8.112   0.630
55411SOL     OW68129  10.396   1.344   8.925
55411SOL    HW168130  10.355   1.381   9.004
55411SOL    HW268131  10.490   1.360   8.938
55412SOL     OW68132  11.985   8.916   4.037
55412SOL    HW168133  12.000   8.842   3.978
55412SOL    HW268134  11.890   8.927   4.038
55413SOL     OW68135  11.835   7.021   8.628
55413SOL    HW168136  11.764   7.061   8.679
55413SOL    HW268137  11.790   6.970   8.561
55414SOL     OW68138  13.793   8.045  12.429
55414SOL    HW168139  13.856   7.994  12.479
55414SOL    HW268140  13.758   7.984  12.365
55415SOL     OW68141   1.536   8.811   0.983
55415SOL    HW168142   1.614   8.841   1.030
55415SOL    HW268143   1.563   8.808   0.891
55416SOL     OW68144   5.597  14.650   2.892
55416SOL    HW168145   5.584  14.627   2.800
55416SOL    HW268146   5.687  14.623   2.911
55417SOL     OW68147   5.472  12.426  10.255
55417SOL    HW168148   5.495  12.509  10.213
55417SOL    HW268149   5.476  12.445  10.349
55418SOL     OW68150   0.607   8.792   3.788
55418SOL    HW168151   0.560   8.865   3.828
55418SOL    HW268152   0.694   8.794   3.829
55419SOL     OW68153   9.378   4.303   4.279
55419SOL    HW168154   9.365   4.337   4.191
55419SOL    HW268155   9.410   4.214   4.266
55420SOL     OW68156  10.772   9.774  14.331
55420SOL    HW168157  10.755   9.702  14.392
55420SOL    HW268158  10.767   9.733  14.244
55421SOL     OW68159   4.665   4.371   2.342
55421SOL    HW168160   4.571   4.388   2.346
55421SOL    HW268161   4.700   4.443   2.290
55422SOL     OW68162   8.741  12.420  10.477
55422SOL    HW168163   8.668  12.451  10.531
55422SOL    HW268164   8.788  12.358  10.534
55423SOL     OW68165  11.358  14.026  12.270
55423SOL    HW168166  11.328  13.938  12.290
55423SOL    HW268167  11.317  14.082  12.336
55424SOL     OW68168   1.353   1.528   2.868
55424SOL    HW168169   1.270   1.539   2.914
55424SOL    HW268170   1.392   1.616   2.868
55425SOL     OW68171  11.294   6.998  11.307
55425SOL    HW168172  11.228   7.058  11.274
55425SOL    HW268173  11.274   6.914  11.264
55426SOL     OW68174   8.390   8.591   4.195
55426SOL    HW168175   8.357   8.669   4.150
55426SOL    HW268176   8.421   8.534   4.124
55427SOL     OW68177   2.561   8.475   7.274
55427SOL    HW168178   2.597   8.481   7.363
55427SOL    HW268179   2.624   8.419   7.228
55428SOL     OW68180   3.473  11.893  11.449
55428SOL    HW168181   3.407  11.956  11.479
55428SOL    HW268182   3.508  11.855  11.529
55429SOL     OW68183  11.354   5.620   4.257
55429SOL    HW168184  11.327   5.531   4.232
55429SOL    HW268185  11.352   5.620   4.352
55430SOL     OW68186  14.131  14.222  12.849
55430SOL    HW168187  14.138  14.143  12.902
55430SOL    HW268188  14.146  14.294  12.910
55431SOL     OW68189   6.838  13.998  11.970
55431SOL    HW168190   6.834  14.086  12.007
55431SOL    HW268191   6.875  14.010  11.883
55432SOL     OW68192   9.466  14.846   1.148
55432SOL    HW168193   9.383  14.822   1.188
55432SOL    HW268194   9.518   0.013   1.221
55433SOL     OW68195   7.613   8.622  13.560
55433SOL    HW168196   7.648   8.534  13.544
55433SOL    HW268197   7.656   8.650  13.640
55434SOL     OW68198  10.315  11.312   6.286
55434SOL    HW168199  10.366  11.240   6.251
55434SOL    HW268200  10.302  11.371   6.212
55435SOL     OW68201  13.855  14.454   2.963
55435SOL    HW168202  13.915  14.519   2.926
55435SOL    HW268203  13.897  14.425   3.044
55436SOL     OW68204   8.247   8.376   2.450
55436SOL    HW168205   8.284   8.326   2.522
55436SOL    HW268206   8.300   8.352   2.374
55437SOL     OW68207   6.221   5.370  10.675
55437SOL    HW168208   6.166   5.443  10.647
55437SOL    HW268209   6.164   5.316  10.731
55438SOL     OW68210  13.696  11.201   8.257
55438SOL    HW168211  13.636  11.266   8.293
55438SOL    HW268212  13.783  11.235   8.277
55439SOL     OW68213   5.930  12.661   6.776
55439SOL    HW168214   6.013  12.684   6.734
55439SOL    HW268215   5.867  12.662   6.705
55440SOL     OW68216  14.244   1.309  12.109
55440SOL    HW168217  14.316   1.325  12.170
55440SOL    HW268218  14.191   1.242  12.153
55441SOL     OW68219   8.543   5.037  12.416
55441SOL    HW168220   8.577   4.951  12.442
55441SOL    HW268221   8.582   5.053  12.330
55442SOL     OW68222   6.014   8.634   1.185
55442SOL    HW168223   6.067   8.599   1.257
55442SOL    HW268224   5.927   8.648   1.225
55443SOL     OW68225  13.829  11.311   1.699
55443SOL    HW168226  13.877  11.361   1.633
55443SOL    HW268227  13.836  11.220   1.670
55444SOL     OW68228   5.353  13.866   3.242
55444SOL    HW168229   5.397  13.867   3.327
55444SOL    HW268230   5.391  13.791   3.197
55445SOL     OW68231  13.846   6.145   7.587
55445SOL    HW168232  13.796   6.106   7.515
55445SOL    HW268233  13.899   6.073   7.622
55446SOL     OW68234   6.259   9.996   6.308
55446SOL    HW168235   6.180   9.987   6.255
55446SOL    HW268236   6.297  10.080   6.282
55447SOL     OW68237   0.993   9.458  12.083
55447SOL    HW168238   0.906   9.492  12.067
55447SOL    HW268239   0.980   9.364  12.095
55448SOL     OW68240   3.937   5.969   7.173
55448SOL    HW168241   3.864   6.022   7.142
55448SOL    HW268242   3.902   5.880   7.180
55449SOL     OW68243  13.522   9.138   3.397
55449SOL    HW168244  13.565   9.224   3.399
55449SOL    HW268245  13.502   9.120   3.488
55450SOL     OW68246  14.183   9.161   6.390
55450SOL    HW168247  14.177   9.211   6.471
55450SOL    HW268248  14.260   9.196   6.345
55451SOL     OW68249  10.741  10.232   2.596
55451SOL    HW168250  10.676  10.279   2.544
55451SOL    HW268251  10.691  10.162   2.639
55452SOL     OW68252   2.362   1.269  11.691
55452SOL    HW168253   2.422   1.329  11.735
55452SOL    HW268254   2.352   1.196  11.751
55453SOL     OW68255  14.711   3.379  10.040
55453SOL    HW168256  14.732   3.468  10.012
55453SOL    HW268257  14.689   3.333   9.959
55454SOL     OW68258   8.571   4.587   6.468
55454SOL    HW168259   8.622   4.561   6.392
55454SOL    HW268260   8.609   4.671   6.496
55455SOL     OW68261   2.134  10.605   8.690
55455SOL    HW168262   2.191  10.554   8.748
55455SOL    HW268263   2.082  10.539   8.643
55456SOL     OW68264   1.036   9.362  14.424
55456SOL    HW168265   1.004   9.385  14.336
55456SOL    HW268266   1.101   9.293  14.408
55457SOL     OW68267   1.890   8.275   3.032
55457SOL    HW168268   1.805   8.303   3.065
55457SOL    HW268269   1.870   8.207   2.968
55458SOL     OW68270   7.945   7.659   3.624
55458SOL    HW168271   7.986   7.649   3.710
55458SOL    HW268272   7.914   7.750   3.623
55459SOL     OW68273   3.481   8.688   6.688
55459SOL    HW168274   3.501   8.719   6.777
55459SOL    HW268275   3.516   8.755   6.630
55460SOL     OW68276  11.810  12.175   9.428
55460SOL    HW168277  11.758  12.125   9.491
55460SOL    HW268278  11.757  12.175   9.348
55461SOL     OW68279   0.176  13.791  11.519
55461SOL    HW168280   0.150  13.879  11.492
55461SOL    HW268281   0.174  13.794  11.615
55462SOL     OW68282   3.464   3.610   2.074
55462SOL    HW168283   3.376   3.573   2.065
55462SOL    HW268284   3.455   3.676   2.143
55463SOL     OW68285  11.349   4.144   6.159
55463SOL    HW168286  11.331   4.191   6.241
55463SOL    HW268287  11.282   4.076   6.156
55464SOL     OW68288   4.547   3.139   4.442
55464SOL    HW168289   4.591   3.061   4.477
55464SOL    HW268290   4.544   3.200   4.516
55465SOL     OW68291   9.659  10.475   5.021
55465SOL    HW168292   9.716  10.447   4.949
55465SOL    HW268293   9.593  10.405   5.027
55466SOL     OW68294   6.289  12.038   5.812
55466SOL    HW168295   6.283  12.129   5.841
55466SOL    HW268296   6.355  11.999   5.871
55467SOL     OW68297   9.901  10.211   6.813
55467SOL    HW168298   9.975  10.156   6.790
55467SOL    HW268299   9.830  10.150   6.833
55468SOL     OW68300  11.898   6.178   8.688
55468SOL    HW168301  11.908   6.131   8.605
55468SOL    HW268302  11.886   6.270   8.662
55469SOL     OW68303  13.596   7.821   7.343
55469SOL    HW168304  13.609   7.912   7.369
55469SOL    HW268305  13.678   7.777   7.369
55470SOL     OW68306   1.309   9.825  14.653
55470SOL    HW168307   1.241   9.795  14.714
55470SOL    HW268308   1.269   9.817  14.567
55471SOL     OW68309   8.572  12.116  10.595
55471SOL    HW168310   8.547  12.208  10.598
55471SOL    HW268311   8.558  12.090  10.504
55472SOL     OW68312   9.017  14.746   1.459
55472SOL    HW168313   8.978  14.702   1.534
55472SOL    HW268314   8.943  14.774   1.406
55473SOL     OW68315   6.962  11.900   4.773
55473SOL    HW168316   6.924  11.929   4.690
55473SOL    HW268317   6.941  11.970   4.834
55474SOL     OW68318   1.995  12.503   1.611
55474SOL    HW168319   1.931  12.448   1.656
55474SOL    HW268320   2.046  12.544   1.681
55475SOL     OW68321   5.941   4.943  12.667
55475SOL    HW168322   5.899   4.870  12.712
55475SOL    HW268323   5.890   4.956  12.588
55476SOL     OW68324   0.140   6.974   8.359
55476SOL    HW168325   0.206   7.018   8.305
55476SOL    HW268326   0.187   6.949   8.438
55477SOL     OW68327   6.585   3.769   1.301
55477SOL    HW168328   6.637   3.714   1.359
55477SOL    HW268329   6.646   3.837   1.271
55478SOL     OW68330   1.463  14.519  10.975
55478SOL    HW168331   1.548  14.542  10.938
55478SOL    HW268332   1.482  14.452  11.040
55479SOL     OW68333   0.262  11.533   5.484
55479SOL    HW168334   0.347  11.534   5.439
55479SOL    HW268335   0.254  11.621   5.521
55480SOL     OW68336   2.606  13.617   6.400
55480SOL    HW168337   2.519  13.588   6.372
55480SOL    HW268338   2.653  13.631   6.318
55481SOL     OW68339  11.483   8.768  10.659
55481SOL    HW168340  11.511   8.690  10.707
55481SOL    HW268341  11.553   8.784  10.596
55482SOL     OW68342  13.045   6.636   9.256
55482SOL    HW168343  13.095   6.559   9.229
55482SOL    HW268344  13.048   6.635   9.351
55483SOL     OW68345   6.559   0.514  14.414
55483SOL    HW168346   6.493   0.576  14.445
55483SOL    HW268347   6.516   0.467  14.342
55484SOL     OW68348  12.024   7.602   3.655
55484SOL    HW168349  12.105   7.641   3.686
55484SOL    HW268350  11.956   7.640   3.711
55485SOL     OW68351  14.050  14.709   4.804
55485SOL    HW168352  14.078  14.679   4.890
55485SOL    HW268353  14.074  14.801   4.801
55486SOL     OW68354   8.873   0.473   4.048
55486SOL    HW168355   8.874   0.421   3.968
55486SOL    HW268356   8.795   0.528   4.039
55487SOL     OW68357   4.046   2.547   3.263
55487SOL    HW168358   3.950   2.550   3.263
55487SOL    HW268359   4.072   2.616   3.324
55488SOL     OW68360  11.680   4.967   8.076
55488SOL    HW168361  11.651   5.049   8.116
55488SOL    HW268362  11.644   4.970   7.987
55489SOL     OW68363   4.183  13.389   2.528
55489SOL    HW168364   4.254  13.417   2.471
55489SOL    HW268365   4.114  13.454   2.514
55490SOL     OW68366   2.792   9.248  13.537
55490SOL    HW168367   2.730   9.318  13.517
55490SOL    HW268368   2.873   9.294  13.559
55491SOL     OW68369  11.598   2.156   6.982
55491SOL    HW168370  11.641   2.180   6.901
55491SOL    HW268371  11.566   2.240   7.017
55492SOL     OW68372   1.076   7.460   0.786
55492SOL    HW168373   1.105   7.391   0.845
55492SOL    HW268374   0.981   7.463   0.796
55493SOL     OW68375   1.650  12.043  11.387
55493SOL    HW168376   1.617  12.128  11.417
55493SOL    HW268377   1.589  11.980  11.425
55494SOL     OW68378  13.673  12.428   7.185
55494SOL    HW168379  13.760  12.416   7.224
55494SOL    HW268380  13.670  12.521   7.163
55495SOL     OW68381   7.437   0.492  12.020
55495SOL    HW168382   7.375   0.482  11.948
55495SOL    HW268383   7.488   0.569  11.997
55496SOL     OW68384   9.327   7.643  11.090
55496SOL    HW168385   9.408   7.671  11.048
55496SOL    HW268386   9.331   7.547  11.089
55497SOL     OW68387   9.068   9.256   4.993
55497SOL    HW168388   9.152   9.283   5.028
55497SOL    HW268389   9.080   9.164   4.968
55498SOL     OW68390   1.564   1.323   9.567
55498SOL    HW168391   1.503   1.249   9.576
55498SOL    HW268392   1.638   1.287   9.518
55499SOL     OW68393  11.756   3.074   1.073
55499SOL    HW168394  11.775   2.998   1.128
55499SOL    HW268395  11.723   3.037   0.991
55500SOL     OW68396   0.849   6.630  10.694
55500SOL    HW168397   0.869   6.598  10.607
55500SOL    HW268398   0.921   6.690  10.714
55501SOL     OW68399   3.277   2.029   0.141
55501SOL    HW168400   3.346   1.976   0.181
55501SOL    HW268401   3.318   2.113   0.123
55502SOL     OW68402  14.692  11.209  14.785
55502SOL    HW168403  14.739  11.256  14.853
55502SOL    HW268404  14.613  11.260  14.769
55503SOL     OW68405  13.522   8.196   2.821
55503SOL    HW168406  13.553   8.279   2.787
55503SOL    HW268407  13.515   8.210   2.916
55504SOL     OW68408  14.868  10.905   9.106
55504SOL    HW168409   0.062  10.975   9.117
55504SOL    HW268410   0.025  10.861   9.026
55505SOL     OW68411   7.335  11.909   0.028
55505SOL    HW168412   7.310  11.854  14.823
55505SOL    HW268413   7.389  11.851   0.083
55506SOL     OW68414  14.544  11.312   8.620
55506SOL    HW168415  14.524  11.392   8.668
55506SOL    HW268416  14.490  11.316   8.542
55507SOL     OW68417  14.192   3.911  13.885
55507SOL    HW168418  14.112   3.909  13.832
55507SOL    HW268419  14.171   3.857  13.962
55508SOL     OW68420  14.478   2.423  12.641
55508SOL    HW168421  14.490   2.331  12.620
55508SOL    HW268422  14.409   2.453  12.582
55509SOL     OW68423  12.086  12.757   3.848
55509SOL    HW168424  12.159  12.705   3.814
55509SOL    HW268425  12.041  12.699   3.909
55510SOL     OW68426  11.834   7.800   4.701
55510SOL    HW168427  11.913   7.829   4.748
55510SOL    HW268428  11.851   7.708   4.681
55511SOL     OW68429   3.542  12.874  13.162
55511SOL    HW168430   3.498  12.920  13.233
55511SOL    HW268431   3.516  12.782  13.173
55512SOL     OW68432   3.139   5.571   2.202
55512SOL    HW168433   3.118   5.625   2.126
55512SOL    HW268434   3.225   5.534   2.183
55513SOL     OW68435   6.827   1.170  11.881
55513SOL    HW168436   6.840   1.075  11.873
55513SOL    HW268437   6.916   1.206  11.886
55514SOL     OW68438   5.264   8.295   3.374
55514SOL    HW168439   5.322   8.361   3.337
55514SOL    HW268440   5.295   8.281   3.463
55515SOL     OW68441   0.216   8.397  13.407
55515SOL    HW168442   0.201   8.456  13.332
55515SOL    HW268443   0.128   8.381  13.441
55516SOL     OW68444   2.121  11.104   4.306
55516SOL    HW168445   2.162  11.037   4.361
55516SOL    HW268446   2.049  11.138   4.360
55517SOL     OW68447  11.199  13.473   0.859
55517SOL    HW168448  11.162  13.538   0.919
55517SOL    HW268449  11.245  13.525   0.793
55518SOL     OW68450  13.971  10.411   9.244
55518SOL    HW168451  13.948  10.409   9.151
55518SOL    HW268452  14.060  10.446   9.246
55519SOL     OW68453  13.638   8.854   2.707
55519SOL    HW168454  13.700   8.927   2.706
55519SOL    HW268455  13.667   8.797   2.636
55520SOL     OW68456   0.129  11.118   5.143
55520SOL    HW168457   0.167  11.205   5.138
55520SOL    HW268458   0.060  11.117   5.077
55521SOL     OW68459   8.807   8.122  10.712
55521SOL    HW168460   8.798   8.153  10.622
55521SOL    HW268461   8.880   8.061  10.708
55522SOL     OW68462  10.595   6.718   5.418
55522SOL    HW168463  10.500   6.709   5.427
55522SOL    HW268464  10.609   6.739   5.326
55523SOL     OW68465  12.609   6.844  10.533
55523SOL    HW168466  12.582   6.838  10.625
55523SOL    HW268467  12.644   6.757  10.513
55524SOL     OW68468   8.087   2.480   9.324
55524SOL    HW168469   7.998   2.497   9.293
55524SOL    HW268470   8.098   2.385   9.316
55525SOL     OW68471  12.737  11.136  11.959
55525SOL    HW168472  12.714  11.196  12.029
55525SOL    HW268473  12.832  11.141  11.953
55526SOL     OW68474   2.807   3.210  12.498
55526SOL    HW168475   2.802   3.256  12.414
55526SOL    HW268476   2.855   3.129  12.478
55527SOL     OW68477   3.252   2.946  13.441
55527SOL    HW168478   3.280   2.874  13.496
55527SOL    HW268479   3.208   3.007  13.501
55528SOL     OW68480   2.606  11.033  11.074
55528SOL    HW168481   2.624  10.960  11.015
55528SOL    HW268482   2.626  11.111  11.023
55529SOL     OW68483   9.366   9.191   3.794
55529SOL    HW168484   9.271   9.188   3.780
55529SOL    HW268485   9.394   9.099   3.791
55530SOL     OW68486  12.572   0.585   5.023
55530SOL    HW168487  12.567   0.492   5.002
55530SOL    HW268488  12.528   0.594   5.107
55531SOL     OW68489   9.790  10.700   6.138
55531SOL    HW168490   9.803  10.615   6.181
55531SOL    HW268491   9.735  10.750   6.198
55532SOL     OW68492   9.327   2.926  11.637
55532SOL    HW168493   9.362   2.922  11.549
55532SOL    HW268494   9.373   3.000  11.678
55533SOL     OW68495   9.720  10.822   0.730
55533SOL    HW168496   9.693  10.732   0.712
55533SOL    HW268497   9.814  10.815   0.748
55534SOL     OW68498   3.589   3.389   2.700
55534SOL    HW168499   3.626   3.467   2.741
55534SOL    HW268500   3.521   3.360   2.761
55535SOL     OW68501   0.221   9.307   2.352
55535SOL    HW168502   0.243   9.330   2.262
55535SOL    HW268503   0.164   9.378   2.381
55536SOL     OW68504  14.519   5.462   8.827
55536SOL    HW168505  14.471   5.417   8.896
55536SOL    HW268506  14.611   5.448   8.849
55537SOL     OW68507   5.338  10.700   8.270
55537SOL    HW168508   5.373  10.612   8.255
55537SOL    HW268509   5.303  10.726   8.185
55538SOL     OW68510   2.617   0.775  11.784
55538SOL    HW168511   2.647   0.736  11.702
55538SOL    HW268512   2.697   0.808  11.825
55539SOL     OW68513   5.854   4.924   7.069
55539SOL    HW168514   5.760   4.911   7.056
55539SOL    HW268515   5.860   4.980   7.147
55540SOL     OW68516   6.050  10.881   9.149
55540SOL    HW168517   6.090  10.917   9.228
55540SOL    HW268518   6.095  10.925   9.077
55541SOL     OW68519  13.357  10.392   5.051
55541SOL    HW168520  13.382  10.336   4.978
55541SOL    HW268521  13.432  10.449   5.065
55542SOL     OW68522   4.583  11.958  14.517
55542SOL    HW168523   4.602  12.044  14.480
55542SOL    HW268524   4.501  11.931  14.475
55543SOL     OW68525   1.486   1.605   6.851
55543SOL    HW168526   1.476   1.611   6.756
55543SOL    HW268527   1.577   1.632   6.867
55544SOL     OW68528  13.238   5.566  11.401
55544SOL    HW168529  13.320   5.529  11.370
55544SOL    HW268530  13.175   5.547  11.332
55545SOL     OW68531   2.880   0.450   4.245
55545SOL    HW168532   2.964   0.465   4.288
55545SOL    HW268533   2.870   0.523   4.184
55546SOL     OW68534  11.788   4.359   8.604
55546SOL    HW168535  11.711   4.322   8.648
55546SOL    HW268536  11.824   4.420   8.668
55547SOL     OW68537   1.084  10.896  13.088
55547SOL    HW168538   1.158  10.948  13.117
55547SOL    HW268539   1.008  10.951  13.104
55548SOL     OW68540  10.318   0.005   2.227
55548SOL    HW168541  10.354   0.093   2.215
55548SOL    HW268542  10.297   0.000   2.320
55549SOL     OW68543  11.745   3.915  11.424
55549SOL    HW168544  11.749   3.971  11.502
55549SOL    HW268545  11.800   3.961  11.360
55550SOL     OW68546   3.546   7.133  14.527
55550SOL    HW168547   3.529   7.042  14.552
55550SOL    HW268548   3.624   7.128  14.472
55551SOL     OW68549  11.758   3.783   0.874
55551SOL    HW168550  11.723   3.869   0.896
55551SOL    HW268551  11.771   3.787   0.779
55552SOL     OW68552  10.462  10.523   6.180
55552SOL    HW168553  10.479  10.612   6.150
55552SOL    HW268554  10.367  10.512   6.169
55553SOL     OW68555  11.357   5.604   0.122
55553SOL    HW168556  11.408   5.617   0.202
55553SOL    HW268557  11.267   5.624   0.146
55554SOL     OW68558   0.706   8.139  11.687
55554SOL    HW168559   0.724   8.216  11.740
55554SOL    HW268560   0.790   8.117  11.646
55555SOL     OW68561   4.690   6.453   3.897
55555SOL    HW168562   4.784   6.475   3.895
55555SOL    HW268563   4.673   6.413   3.812
55556SOL     OW68564   3.924  11.853   1.901
55556SOL    HW168565   3.913  11.906   1.821
55556SOL    HW268566   4.017  11.834   1.904
55557SOL     OW68567   7.982  11.968   8.727
55557SOL    HW168568   8.039  11.976   8.649
55557SOL    HW268569   7.917  12.038   8.716
55558SOL     OW68570   8.085   2.320   6.962
55558SOL    HW168571   8.129   2.238   6.939
55558SOL    HW268572   8.067   2.361   6.877
55559SOL     OW68573   3.106   9.609   0.622
55559SOL    HW168574   3.117   9.703   0.613
55559SOL    HW268575   3.063   9.582   0.541
55560SOL     OW68576  10.224  11.720  11.368
55560SOL    HW168577  10.264  11.790  11.421
55560SOL    HW268578  10.168  11.672  11.429
55561SOL     OW68579   2.600  13.568  14.267
55561SOL    HW168580   2.505  13.557  14.258
55561SOL    HW268581   2.631  13.578  14.178
55562SOL     OW68582  12.014  11.939  10.886
55562SOL    HW168583  11.950  12.008  10.903
55562SOL    HW268584  12.000  11.915  10.795
55563SOL     OW68585   5.723   9.432   9.403
55563SOL    HW168586   5.784   9.477   9.461
55563SOL    HW268587   5.776   9.412   9.325
55564SOL     OW68588   2.149   3.791  13.387
55564SOL    HW168589   2.168   3.757  13.300
55564SOL    HW268590   2.140   3.713  13.442
55565SOL     OW68591   1.721   8.445  10.144
55565SOL    HW168592   1.702   8.539  10.155
55565SOL    HW268593   1.657   8.416  10.079
55566SOL     OW68594   1.067   3.789  14.720
55566SOL    HW168595   1.160   3.811  14.722
55566SOL    HW268596   1.023   3.873  14.707
55567SOL     OW68597  12.306   1.033  12.812
55567SOL    HW168598  12.255   0.984  12.747
55567SOL    HW268599  12.343   0.966  12.868
55568SOL     OW68600   0.071   3.852   0.596
55568SOL    HW168601   0.147   3.796   0.579
55568SOL    HW268602   0.076   3.872   0.689
55569SOL     OW68603  12.582   4.961  13.169
55569SOL    HW168604  12.541   4.889  13.217
55569SOL    HW268605  12.514   4.994  13.111
55570SOL     OW68606   6.300  10.939   0.780
55570SOL    HW168607   6.385  10.982   0.788
55570SOL    HW268608   6.264  10.972   0.697
55571SOL     OW68609   5.604   4.780  10.971
55571SOL    HW168610   5.678   4.805  10.916
55571SOL    HW268611   5.633   4.800  11.060
55572SOL     OW68612  12.920   7.190   6.878
55572SOL    HW168613  12.949   7.267   6.927
55572SOL    HW268614  12.976   7.187   6.801
55573SOL     OW68615  11.831   4.729  12.869
55573SOL    HW168616  11.804   4.762  12.784
55573SOL    HW268617  11.757   4.746  12.927
55574SOL     OW68618   9.122   7.928  11.474
55574SOL    HW168619   9.200   7.874  11.487
55574SOL    HW268620   9.084   7.937  11.561
55575SOL     OW68621  13.316   6.737   5.167
55575SOL    HW168622  13.405   6.708   5.146
55575SOL    HW268623  13.327   6.821   5.210
55576SOL     OW68624   1.540   4.490   3.060
55576SOL    HW168625   1.451   4.454   3.062
55576SOL    HW268626   1.545   4.544   3.140
55577SOL     OW68627  10.382  10.106  13.921
55577SOL    HW168628  10.328  10.048  13.975
55577SOL    HW268629  10.351  10.091  13.832
55578SOL     OW68630   9.691  12.434   5.190
55578SOL    HW168631   9.710  12.482   5.109
55578SOL    HW268632   9.658  12.349   5.160
55579SOL     OW68633   1.121  10.866   5.333
55579SOL    HW168634   1.207  10.902   5.356
55579SOL    HW268635   1.141  10.796   5.272
55580SOL     OW68636  12.585   0.382   7.527
55580SOL    HW168637  12.590   0.395   7.621
55580SOL    HW268638  12.553   0.292   7.517
55581SOL     OW68639   1.299   8.611  13.324
55581SOL    HW168640   1.224   8.594  13.380
55581SOL    HW268641   1.273   8.577  13.238
55582SOL     OW68642  12.512   7.782   4.186
55582SOL    HW168643  12.458   7.860   4.201
55582SOL    HW268644  12.454   7.708   4.201
55583SOL     OW68645  13.363   4.546   8.115
55583SOL    HW168646  13.433   4.610   8.104
55583SOL    HW268647  13.284   4.598   8.126
55584SOL     OW68648  10.889   3.857   2.730
55584SOL    HW168649  10.872   3.949   2.710
55584SOL    HW268650  10.906   3.817   2.645
55585SOL     OW68651   1.047  13.263   1.163
55585SOL    HW168652   0.971  13.267   1.222
55585SOL    HW268653   1.122  13.260   1.222
55586SOL     OW68654   7.234  14.800  11.001
55586SOL    HW168655   7.253  14.724  10.947
55586SOL    HW268656   7.251   0.006  10.944
55587SOL     OW68657   3.773  12.176  13.213
55587SOL    HW168658   3.838  12.108  13.195
55587SOL    HW268659   3.818  12.238  13.270
55588SOL     OW68660   8.527  10.659   5.487
55588SOL    HW168661   8.445  10.680   5.531
55588SOL    HW268662   8.524  10.564   5.477
55589SOL     OW68663   7.950   2.423   1.338
55589SOL    HW168664   7.868   2.432   1.290
55589SOL    HW268665   8.013   2.474   1.287
55590SOL     OW68666  11.603   5.408   0.583
55590SOL    HW168667  11.571   5.331   0.537
55590SOL    HW268668  11.698   5.399   0.582
55591SOL     OW68669   6.052   8.433   3.989
55591SOL    HW168670   6.076   8.513   4.036
55591SOL    HW268671   6.078   8.450   3.899
55592SOL     OW68672   7.092  12.662   6.221
55592SOL    HW168673   7.023  12.627   6.277
55592SOL    HW268674   7.150  12.587   6.204
55593SOL     OW68675   4.332   1.392   7.423
55593SOL    HW168676   4.285   1.400   7.506
55593SOL    HW268677   4.306   1.307   7.389
55594SOL     OW68678  14.013  11.684   9.959
55594SOL    HW168679  13.990  11.610   9.903
55594SOL    HW268680  13.930  11.714   9.994
55595SOL     OW68681   1.289   5.249  14.749
55595SOL    HW168682   1.197   5.274  14.739
55595SOL    HW268683   1.289   5.154  14.745
55596SOL     OW68684   4.420   6.300   3.413
55596SOL    HW168685   4.365   6.378   3.421
55596SOL    HW268686   4.366   6.236   3.368
55597SOL     OW68687   0.610   4.679  11.453
55597SOL    HW168688   0.604   4.764  11.497
55597SOL    HW268689   0.684   4.635  11.496
55598SOL     OW68690  12.840   9.678   7.761
55598SOL    HW168691  12.869   9.768   7.747
55598SOL    HW268692  12.765   9.668   7.702
55599SOL     OW68693   6.319  11.913   6.223
55599SOL    HW168694   6.234  11.957   6.228
55599SOL    HW268695   6.360  11.951   6.145
55600SOL     OW68696   8.850   6.402  12.828
55600SOL    HW168697   8.928   6.347  12.819
55600SOL    HW268698   8.835   6.407  12.923
55601SOL     OW68699   0.876   5.854   1.984
55601SOL    HW168700   0.805   5.897   1.936
55601SOL    HW268701   0.832   5.814   2.060
55602SOL     OW68702   1.634   0.747  14.567
55602SOL    HW168703   1.679   0.674  14.524
55602SOL    HW268704   1.547   0.748  14.527
55603SOL     OW68705  14.239   1.513   0.571
55603SOL    HW168706  14.222   1.580   0.637
55603SOL    HW268707  14.204   1.432   0.609
55604SOL     OW68708   1.479   6.037   5.079
55604SOL    HW168709   1.403   6.037   5.022
55604SOL    HW268710   1.465   5.964   5.139
55605SOL     OW68711   0.993   5.659   9.511
55605SOL    HW168712   1.015   5.749   9.536
55605SOL    HW268713   1.064   5.632   9.454
55606SOL     OW68714   9.331   7.144   9.288
55606SOL    HW168715   9.255   7.192   9.256
55606SOL    HW268716   9.395   7.151   9.217
55607SOL     OW68717   2.035   0.967   7.468
55607SOL    HW168718   1.952   0.919   7.474
55607SOL    HW268719   2.010   1.055   7.441
55608SOL     OW68720  12.795   7.119  10.683
55608SOL    HW168721  12.726   7.144  10.744
55608SOL    HW268722  12.804   7.195  10.625
55609SOL     OW68723   6.010   2.565   0.210
55609SOL    HW168724   5.916   2.546   0.215
55609SOL    HW268725   6.051   2.481   0.190
55610SOL     OW68726   8.942  12.187   3.491
55610SOL    HW168727   8.985  12.273   3.492
55610SOL    HW268728   9.000  12.132   3.439
55611SOL     OW68729  12.965   3.095   6.946
55611SOL    HW168730  12.927   3.035   7.010
55611SOL    HW268731  12.961   3.049   6.863
55612SOL     OW68732  12.938   5.355   9.849
55612SOL    HW168733  12.958   5.387   9.761
55612SOL    HW268734  12.844   5.337   9.847
55613SOL     OW68735   1.555   4.546   1.274
55613SOL    HW168736   1.516   4.464   1.304
55613SOL    HW268737   1.586   4.589   1.354
55614SOL     OW68738   6.630   5.780   1.648
55614SOL    HW168739   6.542   5.744   1.633
55614SOL    HW268740   6.661   5.804   1.561
55615SOL     OW68741   2.891  12.718   6.589
55615SOL    HW168742   2.950  12.793   6.602
55615SOL    HW268743   2.857  12.730   6.500
55616SOL     OW68744   6.692   0.010   7.812
55616SOL    HW168745   6.647   0.060   7.880
55616SOL    HW268746   6.737   0.076   7.759
55617SOL     OW68747  10.839  11.972  13.871
55617SOL    HW168748  10.865  11.894  13.822
55617SOL    HW268749  10.913  12.032  13.863
55618SOL     OW68750   6.222  10.314   3.313
55618SOL    HW168751   6.168  10.304   3.234
55618SOL    HW268752   6.192  10.395   3.352
55619SOL     OW68753   6.210   9.063   6.875
55619SOL    HW168754   6.290   9.099   6.839
55619SOL    HW268755   6.219   9.075   6.970
55620SOL     OW68756   9.784   4.100   8.601
55620SOL    HW168757   9.814   4.183   8.638
55620SOL    HW268758   9.690   4.100   8.617
55621SOL     OW68759   1.951   2.212  12.439
55621SOL    HW168760   1.964   2.129  12.393
55621SOL    HW268761   1.963   2.279  12.372
55622SOL     OW68762   0.405  11.598   9.448
55622SOL    HW168763   0.327  11.546   9.469
55622SOL    HW268764   0.421  11.649   9.527
55623SOL     OW68765   6.972   2.567  14.741
55623SOL    HW168766   7.013   2.539  14.659
55623SOL    HW268767   6.962   2.486  14.791
55624SOL     OW68768   1.564   0.187   9.583
55624SOL    HW168769   1.626   0.179   9.655
55624SOL    HW268770   1.493   0.128   9.604
55625SOL     OW68771   0.045   5.608   7.231
55625SOL    HW168772   0.130   5.579   7.265
55625SOL    HW268773   0.066   5.681   7.173
55626SOL     OW68774   4.025   3.974   7.357
55626SOL    HW168775   4.120   3.971   7.351
55626SOL    HW268776   4.000   3.885   7.383
55627SOL     OW68777   5.804   7.381   2.649
55627SOL    HW168778   5.815   7.472   2.676
55627SOL    HW268779   5.847   7.375   2.564
55628SOL     OW68780  12.191   3.965   0.128
55628SOL    HW168781  12.259   3.915   0.173
55628SOL    HW268782  12.154   4.021   0.196
55629SOL     OW68783   1.736  12.090   5.386
55629SOL    HW168784   1.704  12.102   5.475
55629SOL    HW268785   1.791  12.012   5.391
55630SOL     OW68786   0.193   9.178   8.537
55630SOL    HW168787   0.118   9.221   8.497
55630SOL    HW268788   0.252   9.249   8.562
55631SOL     OW68789  13.789   9.720   4.523
55631SOL    HW168790  13.764   9.744   4.434
55631SOL    HW268791  13.742   9.782   4.579
55632SOL     OW68792   1.189  10.879   1.328
55632SOL    HW168793   1.190  10.822   1.405
55632SOL    HW268794   1.269  10.858   1.281
55633SOL     OW68795   8.269   7.635   4.882
55633SOL    HW168796   8.276   7.730   4.894
55633SOL    HW268797   8.344   7.599   4.929
55634SOL     OW68798  11.980  11.622   6.758
55634SOL    HW168799  12.057  11.678   6.759
55634SOL    HW268800  11.951  11.623   6.666
55635SOL     OW68801   3.213  12.310   8.972
55635SOL    HW168802   3.146  12.374   8.994
55635SOL    HW268803   3.183  12.229   9.013
55636SOL     OW68804  10.561  14.209   0.817
55636SOL    HW168805  10.620  14.201   0.742
55636SOL    HW268806  10.612  14.258   0.882
55637SOL     OW68807   9.371   4.659   5.835
55637SOL    HW168808   9.416   4.575   5.839
55637SOL    HW268809   9.333   4.661   5.747
55638SOL     OW68810   4.064   6.385   1.501
55638SOL    HW168811   4.091   6.368   1.591
55638SOL    HW268812   4.116   6.324   1.448
55639SOL     OW68813   3.304   5.130   6.272
55639SOL    HW168814   3.275   5.217   6.301
55639SOL    HW268815   3.395   5.124   6.301
55640SOL     OW68816  11.773  13.439   8.201
55640SOL    HW168817  11.772  13.396   8.116
55640SOL    HW268818  11.693  13.491   8.203
55641SOL     OW68819  11.453   2.132   2.100
55641SOL    HW168820  11.411   2.218   2.099
55641SOL    HW268821  11.409   2.084   2.170
55642SOL     OW68822  14.314   0.366   1.979
55642SOL    HW168823  14.302   0.383   1.885
55642SOL    HW268824  14.289   0.448   2.022
55643SOL     OW68825   9.724   9.857   0.979
55643SOL    HW168826   9.633   9.837   0.997
55643SOL    HW268827   9.763   9.774   0.952
55644SOL     OW68828   1.569   6.747  14.393
55644SOL    HW168829   1.614   6.731  14.310
55644SOL    HW268830   1.625   6.706  14.459
55645SOL     OW68831   4.191   5.891   8.667
55645SOL    HW168832   4.133   5.944   8.613
55645SOL    HW268833   4.149   5.805   8.670
55646SOL     OW68834  10.365   7.828   1.530
55646SOL    HW168835  10.417   7.847   1.452
55646SOL    HW268836  10.429   7.801   1.596
55647SOL     OW68837  11.176   9.178  10.413
55647SOL    HW168838  11.257   9.214  10.377
55647SOL    HW268839  11.180   9.084  10.392
55648SOL     OW68840   1.599   1.248   1.260
55648SOL    HW168841   1.585   1.284   1.172
55648SOL    HW268842   1.542   1.301   1.316
55649SOL     OW68843   3.932  13.072   3.521
55649SOL    HW168844   3.960  13.051   3.432
55649SOL    HW268845   3.908  13.165   3.518
55650SOL     OW68846  12.608   6.425   8.950
55650SOL    HW168847  12.534   6.452   8.896
55650SOL    HW268848  12.571   6.362   9.012
55651SOL     OW68849  11.176   6.538  14.161
55651SOL    HW168850  11.247   6.561  14.101
55651SOL    HW268851  11.174   6.609  14.225
55652SOL     OW68852   7.593   9.613   5.463
55652SOL    HW168853   7.682   9.624   5.497
55652SOL    HW268854   7.572   9.521   5.480
55653SOL     OW68855   6.356   9.215   8.623
55653SOL    HW168856   6.418   9.152   8.587
55653SOL    HW268857   6.359   9.201   8.718
55654SOL     OW68858   1.275   1.281   5.471
55654SOL    HW168859   1.233   1.367   5.466
55654SOL    HW268860   1.355   1.290   5.419
55655SOL     OW68861   4.631   9.379   6.666
55655SOL    HW168862   4.629   9.410   6.756
55655SOL    HW268863   4.682   9.445   6.618
55656SOL     OW68864   4.062  10.842   1.070
55656SOL    HW168865   4.064  10.864   1.163
55656SOL    HW268866   4.003  10.767   1.064
55657SOL     OW68867   9.363   8.379   2.472
55657SOL    HW168868   9.437   8.439   2.462
55657SOL    HW268869   9.394   8.296   2.434
55658SOL     OW68870  11.970   2.999  11.222
55658SOL    HW168871  11.950   2.976  11.131
55658SOL    HW268872  11.904   3.064  11.244
55659SOL     OW68873  13.925  13.208  14.312
55659SOL    HW168874  13.888  13.150  14.378
55659SOL    HW268875  13.856  13.272  14.294
55660SOL     OW68876   7.586   7.757  12.771
55660SOL    HW168877   7.632   7.674  12.763
55660SOL    HW268878   7.520   7.741  12.839
55661SOL     OW68879  14.356   2.185   9.673
55661SOL    HW168880  14.391   2.152   9.591
55661SOL    HW268881  14.366   2.280   9.668
55662SOL     OW68882   4.010   3.408  13.514
55662SOL    HW168883   4.055   3.485  13.548
55662SOL    HW268884   3.926   3.441  13.481
55663SOL     OW68885   7.406   4.824   8.279
55663SOL    HW168886   7.438   4.740   8.245
55663SOL    HW268887   7.437   4.888   8.215
55664SOL     OW68888   5.740   5.814   6.926
55664SOL    HW168889   5.714   5.845   6.840
55664SOL    HW268890   5.706   5.880   6.987
55665SOL     OW68891   9.103   7.573   5.586
55665SOL    HW168892   9.040   7.644   5.573
55665SOL    HW268893   9.084   7.540   5.674
55666SOL     OW68894  12.047   7.040   3.724
55666SOL    HW168895  12.068   7.132   3.706
55666SOL    HW268896  11.954   7.041   3.747
55667SOL     OW68897   5.995   9.100  10.293
55667SOL    HW168898   5.917   9.155  10.292
55667SOL    HW268899   6.058   9.147  10.238
55668SOL     OW68900   8.786   9.914   8.937
55668SOL    HW168901   8.800   9.897   9.030
55668SOL    HW268902   8.711   9.859   8.914
55669SOL     OW68903  14.564  12.236   5.157
55669SOL    HW168904  14.528  12.269   5.074
55669SOL    HW268905  14.627  12.169   5.130
55670SOL     OW68906   4.515  11.220   3.503
55670SOL    HW168907   4.599  11.174   3.514
55670SOL    HW268908   4.536  11.294   3.445
55671SOL     OW68909   8.431   3.812   6.060
55671SOL    HW168910   8.368   3.826   5.989
55671SOL    HW268911   8.405   3.875   6.128
55672SOL     OW68912   3.073   6.093  13.694
55672SOL    HW168913   3.091   6.006  13.730
55672SOL    HW268914   3.081   6.082  13.599
55673SOL     OW68915   1.241  10.848  14.294
55673SOL    HW168916   1.336  10.846  14.288
55673SOL    HW268917   1.216  10.758  14.316
55674SOL     OW68918  12.015   5.453   5.225
55674SOL    HW168919  11.996   5.425   5.314
55674SOL    HW268920  12.075   5.527   5.235
55675SOL     OW68921   4.407  10.925   8.291
55675SOL    HW168922   4.421  10.879   8.208
55675SOL    HW268923   4.313  10.944   8.292
55676SOL     OW68924   5.443   0.944  10.941
55676SOL    HW168925   5.535   0.959  10.963
55676SOL    HW268926   5.445   0.894  10.859
55677SOL     OW68927   8.881  10.546   5.854
55677SOL    HW168928   8.791  10.515   5.867
55677SOL    HW268929   8.891  10.617   5.917
55678SOL     OW68930   1.684   1.055  11.147
55678SOL    HW168931   1.612   1.094  11.196
55678SOL    HW268932   1.678   0.962  11.165
55679SOL     OW68933  10.625  12.663  12.412
55679SOL    HW168934  10.583  12.586  12.450
55679SOL    HW268935  10.624  12.728  12.482
55680SOL     OW68936   3.422   3.305   0.294
55680SOL    HW168937   3.491   3.336   0.236
55680SOL    HW268938   3.353   3.274   0.235
55681SOL     OW68939  11.963   0.346   2.439
55681SOL    HW168940  12.052   0.368   2.465
55681SOL    HW268941  11.959   0.370   2.347
55682SOL     OW68942  12.605  11.860   4.430
55682SOL    HW168943  12.650  11.886   4.349
55682SOL    HW268944  12.516  11.893   4.419
55683SOL     OW68945   4.202   3.061   7.169
55683SOL    HW168946   4.124   3.007   7.164
55683SOL    HW268947   4.245   3.033   7.250
55684SOL     OW68948  12.818   4.890   7.671
55684SOL    HW168949  12.852   4.893   7.760
55684SOL    HW268950  12.727   4.861   7.681
55685SOL     OW68951   1.030   1.232  14.442
55685SOL    HW168952   1.046   1.229  14.348
55685SOL    HW268953   1.106   1.189  14.481
55686SOL     OW68954  14.208   0.922   0.528
55686SOL    HW168955  14.118   0.955   0.527
55686SOL    HW268956  14.202   0.835   0.567
55687SOL     OW68957   2.678   4.184   4.323
55687SOL    HW168958   2.691   4.089   4.315
55687SOL    HW268959   2.746   4.222   4.268
55688SOL     OW68960   7.618   1.660   8.061
55688SOL    HW168961   7.710   1.687   8.065
55688SOL    HW268962   7.576   1.710   8.131
55689SOL     OW68963  10.732   4.314  10.728
55689SOL    HW168964  10.663   4.311  10.661
55689SOL    HW268965  10.809   4.346  10.681
55690SOL     OW68966   4.738   1.484   6.008
55690SOL    HW168967   4.804   1.551   6.027
55690SOL    HW268968   4.787   1.413   5.967
55691SOL     OW68969   9.588  10.111   8.518
55691SOL    HW168970   9.575  10.186   8.460
55691SOL    HW268971   9.629  10.045   8.463
55692SOL     OW68972   8.428  13.052   7.801
55692SOL    HW168973   8.454  13.028   7.890
55692SOL    HW268974   8.371  12.980   7.774
55693SOL     OW68975  12.320   9.318  12.903
55693SOL    HW168976  12.408   9.296  12.935
55693SOL    HW268977  12.333   9.336  12.810
55694SOL     OW68978   0.906   8.901   0.194
55694SOL    HW168979   0.914   8.995   0.205
55694SOL    HW268980   0.996   8.868   0.198
55695SOL     OW68981   1.891   7.296   9.144
55695SOL    HW168982   1.829   7.268   9.077
55695SOL    HW268983   1.958   7.229   9.145
55696SOL     OW68984   7.341  11.325  11.259
55696SOL    HW168985   7.413  11.341  11.197
55696SOL    HW268986   7.288  11.405  11.255
55697SOL     OW68987   6.784  12.292  13.962
55697SOL    HW168988   6.725  12.364  13.942
55697SOL    HW268989   6.829  12.274  13.879
55698SOL     OW68990  10.859   1.735   8.868
55698SOL    HW168991  10.822   1.801   8.808
55698SOL    HW268992  10.822   1.652   8.838
55699SOL     OW68993   5.070   1.413  12.376
55699SOL    HW168994   5.019   1.495  12.376
55699SOL    HW268995   5.026   1.358  12.441
55700SOL     OW68996   9.728  10.157   1.462
55700SOL    HW168997   9.732  10.123   1.552
55700SOL    HW268998   9.661  10.104   1.420
55701SOL     OW68999   8.276   1.358   6.093
55701SOL    HW169000   8.342   1.339   6.027
55701SOL    HW269001   8.230   1.435   6.059
55702SOL     OW69002  10.609   6.505  11.479
55702SOL    HW169003  10.569   6.517  11.393
55702SOL    HW269004  10.635   6.412  11.480
55703SOL     OW69005   2.951   5.390   3.867
55703SOL    HW169006   2.917   5.387   3.957
55703SOL    HW269007   2.872   5.390   3.812
55704SOL     OW69008  14.272  14.310   0.270
55704SOL    HW169009  14.276  14.380   0.205
55704SOL    HW269010  14.356  14.315   0.316
55705SOL     OW69011   6.317   3.975   3.347
55705SOL    HW169012   6.327   4.052   3.402
55705SOL    HW269013   6.388   3.982   3.283
55706SOL     OW69014  13.637   4.279   1.220
55706SOL    HW169015  13.708   4.244   1.273
55706SOL    HW269016  13.611   4.360   1.265
55707SOL     OW69017   0.073  14.712   4.274
55707SOL    HW169018  14.869  14.700   4.213
55707SOL    HW269019   0.095  14.623   4.302
55708SOL     OW69020  14.473   3.276   3.361
55708SOL    HW169021  14.427   3.316   3.287
55708SOL    HW269022  14.565   3.279   3.336
55709SOL     OW69023   4.608  13.686   1.886
55709SOL    HW169024   4.653  13.686   1.801
55709SOL    HW269025   4.606  13.778   1.912
55710SOL     OW69026  14.143   0.900   0.917
55710SOL    HW169027  14.084   0.854   0.858
55710SOL    HW269028  14.194   0.831   0.959
55711SOL     OW69029   5.770  12.182  14.145
55711SOL    HW169030   5.768  12.264  14.096
55711SOL    HW269031   5.679  12.155  14.151
55712SOL     OW69032   0.791   2.909   6.502
55712SOL    HW169033   0.736   2.849   6.552
55712SOL    HW269034   0.730   2.962   6.451
55713SOL     OW69035  10.510   7.262   3.195
55713SOL    HW169036  10.500   7.207   3.118
55713SOL    HW269037  10.421   7.289   3.217
55714SOL     OW69038   6.566   1.127   9.152
55714SOL    HW169039   6.624   1.120   9.228
55714SOL    HW269040   6.613   1.082   9.081
55715SOL     OW69041   6.607   8.890   2.864
55715SOL    HW169042   6.686   8.837   2.852
55715SOL    HW269043   6.613   8.957   2.796
55716SOL     OW69044  11.227  13.457   3.271
55716SOL    HW169045  11.187  13.372   3.255
55716SOL    HW269046  11.245  13.493   3.184
55717SOL     OW69047   8.738  10.229   3.096
55717SOL    HW169048   8.661  10.254   3.045
55717SOL    HW269049   8.792  10.180   3.034
55718SOL     OW69050   9.334  10.784   5.041
55718SOL    HW169051   9.384  10.715   4.998
55718SOL    HW269052   9.259  10.738   5.079
55719SOL     OW69053   1.276   8.335   1.763
55719SOL    HW169054   1.226   8.383   1.697
55719SOL    HW269055   1.233   8.354   1.846
55720SOL     OW69056   3.255   5.987   4.016
55720SOL    HW169057   3.269   6.079   4.038
55720SOL    HW269058   3.159   5.977   4.016
55721SOL     OW69059  10.851   5.054   9.970
55721SOL    HW169060  10.765   5.074   9.933
55721SOL    HW269061  10.903   5.133   9.956
55722SOL     OW69062   0.988   2.203   0.296
55722SOL    HW169063   1.009   2.270   0.361
55722SOL    HW269064   0.943   2.250   0.226
55723SOL     OW69065   8.668  12.302   6.333
55723SOL    HW169066   8.759  12.272   6.322
55723SOL    HW269067   8.672  12.364   6.407
55724SOL     OW69068   1.756   7.801  12.057
55724SOL    HW169069   1.811   7.723  12.048
55724SOL    HW269070   1.675   7.768  12.096
55725SOL     OW69071   7.760   8.916   8.638
55725SOL    HW169072   7.777   8.853   8.568
55725SOL    HW269073   7.753   9.000   8.593
55726SOL     OW69074   1.150  12.476  11.620
55726SOL    HW169075   1.136  12.541  11.689
55726SOL    HW269076   1.071  12.422  11.621
55727SOL     OW69077  11.929  10.788   6.687
55727SOL    HW169078  11.973  10.714   6.730
55727SOL    HW269079  11.907  10.847   6.759
55728SOL     OW69080   8.036   7.813   3.210
55728SOL    HW169081   8.042   7.800   3.304
55728SOL    HW269082   7.948   7.783   3.186
55729SOL     OW69083  10.849  10.802  13.639
55729SOL    HW169084  10.830  10.713  13.666
55729SOL    HW269085  10.944  10.803  13.623
55730SOL     OW69086   4.236   7.538   8.433
55730SOL    HW169087   4.261   7.563   8.344
55730SOL    HW269088   4.188   7.456   8.421
55731SOL     OW69089  11.183   6.150  12.024
55731SOL    HW169090  11.210   6.198  12.102
55731SOL    HW269091  11.265   6.116  11.988
55732SOL     OW69092   1.752  12.423   2.816
55732SOL    HW169093   1.660  12.400   2.808
55732SOL    HW269094   1.761  12.506   2.768
55733SOL     OW69095  12.445  12.087   4.987
55733SOL    HW169096  12.444  12.048   5.075
55733SOL    HW269097  12.502  12.164   4.996
55734SOL     OW69098   7.154   2.367  13.309
55734SOL    HW169099   7.142   2.308  13.235
55734SOL    HW269100   7.198   2.444  13.273
55735SOL     OW69101  13.384  13.061   3.103
55735SOL    HW169102  13.413  13.148   3.129
55735SOL    HW269103  13.389  13.062   3.007
55736SOL     OW69104   2.771   8.773   7.390
55736SOL    HW169105   2.690   8.823   7.399
55736SOL    HW269106   2.790   8.776   7.296
55737SOL     OW69107   4.774  12.595   6.313
55737SOL    HW169108   4.721  12.531   6.267
55737SOL    HW269109   4.790  12.664   6.248
55738SOL     OW69110   2.375   5.437  13.154
55738SOL    HW169111   2.310   5.477  13.211
55738SOL    HW269112   2.328   5.417  13.073
55739SOL     OW69113  10.299   7.827  11.425
55739SOL    HW169114  10.273   7.813  11.334
55739SOL    HW269115  10.380   7.777  11.435
55740SOL     OW69116  11.031   8.947   5.389
55740SOL    HW169117  11.097   8.943   5.459
55740SOL    HW269118  10.962   8.887   5.418
55741SOL     OW69119   5.641  13.415   9.055
55741SOL    HW169120   5.576  13.471   9.012
55741SOL    HW269121   5.678  13.362   8.984
55742SOL     OW69122   6.171   4.641  13.913
55742SOL    HW169123   6.137   4.618  14.000
55742SOL    HW269124   6.111   4.708  13.881
55743SOL     OW69125  10.219   9.937  10.311
55743SOL    HW169126  10.239   9.887  10.232
55743SOL    HW269127  10.151   9.886  10.356
55744SOL     OW69128   3.533  10.534   8.065
55744SOL    HW169129   3.480  10.608   8.095
55744SOL    HW269130   3.613  10.574   8.032
55745SOL     OW69131  14.023   5.891   6.360
55745SOL    HW169132  14.109   5.897   6.320
55745SOL    HW269133  13.962   5.920   6.292
55746SOL     OW69134   4.284   3.138  13.972
55746SOL    HW169135   4.305   3.101  14.057
55746SOL    HW269136   4.188   3.146  13.972
55747SOL     OW69137  13.461   9.694  11.234
55747SOL    HW169138  13.405   9.740  11.296
55747SOL    HW269139  13.432   9.726  11.148
55748SOL     OW69140  12.938   2.499   9.222
55748SOL    HW169141  12.862   2.526   9.273
55748SOL    HW269142  12.928   2.547   9.139
55749SOL     OW69143   5.297  13.766   9.591
55749SOL    HW169144   5.300  13.861   9.576
55749SOL    HW269145   5.235  13.733   9.526
55750SOL     OW69146  13.793   5.444   2.079
55750SOL    HW169147  13.698   5.456   2.083
55750SOL    HW269148  13.821   5.443   2.170
55751SOL     OW69149   5.883   1.878   0.406
55751SOL    HW169150   5.899   1.861   0.313
55751SOL    HW269151   5.830   1.804   0.435
55752SOL     OW69152  10.008  11.238  13.463
55752SOL    HW169153   9.919  11.201  13.462
55752SOL    HW269154  10.060  11.178  13.410
55753SOL     OW69155  14.411  10.028   0.247
55753SOL    HW169156  14.332   9.975   0.259
55753SOL    HW269157  14.407  10.092   0.319
55754SOL     OW69158  10.871   7.663   9.848
55754SOL    HW169159  10.784   7.697   9.867
55754SOL    HW269160  10.922   7.739   9.821
55755SOL     OW69161  11.531   8.151  13.489
55755SOL    HW169162  11.601   8.216  13.485
55755SOL    HW269163  11.474   8.182  13.560
55756SOL     OW69164   2.347   7.697  10.194
55756SOL    HW169165   2.301   7.636  10.135
55756SOL    HW269166   2.408   7.641  10.242
55757SOL     OW69167  10.963   5.355   7.933
55757SOL    HW169168  10.885   5.318   7.893
55757SOL    HW269169  10.960   5.448   7.908
55758SOL     OW69170   3.660   3.530  14.079
55758SOL    HW169171   3.655   3.453  14.135
55758SOL    HW269172   3.589   3.519  14.015
55759SOL     OW69173  11.847   5.634   4.124
55759SOL    HW169174  11.830   5.726   4.142
55759SOL    HW269175  11.926   5.633   4.071
55760SOL     OW69176  10.488   4.120   7.922
55760SOL    HW169177  10.539   4.065   7.863
55760SOL    HW269178  10.493   4.208   7.884
55761SOL     OW69179   5.204  11.461  13.946
55761SOL    HW169180   5.170  11.382  13.904
55761SOL    HW269181   5.232  11.431  14.033
55762SOL     OW69182   8.216  14.117   0.329
55762SOL    HW169183   8.306  14.139   0.307
55762SOL    HW269184   8.174  14.103   0.244
55763SOL     OW69185   5.985  12.628  13.477
55763SOL    HW169186   5.955  12.714  13.448
55763SOL    HW269187   6.045  12.646  13.550
55764SOL     OW69188   4.655   9.968  10.754
55764SOL    HW169189   4.614  10.051  10.728
55764SOL    HW269190   4.749   9.984  10.745
55765SOL     OW69191   1.023   9.818   5.781
55765SOL    HW169192   1.061   9.773   5.705
55765SOL    HW269193   0.938   9.776   5.794
55766SOL     OW69194   1.145   0.074   5.099
55766SOL    HW169195   1.205   0.013   5.142
55766SOL    HW269196   1.130   0.143   5.164
55767SOL     OW69197  12.693  13.409   1.381
55767SOL    HW169198  12.772  13.398   1.328
55767SOL    HW269199  12.632  13.455   1.323
55768SOL     OW69200   6.725  11.324   7.747
55768SOL    HW169201   6.731  11.244   7.799
55768SOL    HW269202   6.801  11.375   7.774
55769SOL     OW69203  11.060   6.728  12.124
55769SOL    HW169204  10.989   6.680  12.081
55769SOL    HW269205  11.038   6.725  12.217
55770SOL     OW69206  13.761   5.492  13.497
55770SOL    HW169207  13.691   5.558  13.499
55770SOL    HW269208  13.791   5.493  13.406
55771SOL     OW69209   0.730   5.803   9.988
55771SOL    HW169210   0.722   5.720  10.035
55771SOL    HW269211   0.645   5.846  10.001
55772SOL     OW69212  10.147   3.133   5.277
55772SOL    HW169213  10.139   3.153   5.371
55772SOL    HW269214  10.071   3.078   5.257
55773SOL     OW69215  14.573   1.484   6.038
55773SOL    HW169216  14.542   1.397   6.062
55773SOL    HW269217  14.512   1.513   5.970
55774SOL     OW69218   3.174   5.571   0.531
55774SOL    HW169219   3.205   5.492   0.575
55774SOL    HW269220   3.251   5.605   0.486
55775SOL     OW69221  10.210   7.454   4.210
55775SOL    HW169222  10.194   7.521   4.143
55775SOL    HW269223  10.140   7.390   4.196
55776SOL     OW69224  10.068  14.576   5.178
55776SOL    HW169225  10.055  14.496   5.229
55776SOL    HW269226  10.123  14.631   5.234
55777SOL     OW69227  13.084   5.788   5.182
55777SOL    HW169228  12.994   5.820   5.186
55777SOL    HW269229  13.087   5.734   5.103
55778SOL     OW69230   2.836  13.991   1.792
55778SOL    HW169231   2.932  13.994   1.795
55778SOL    HW269232   2.811  14.078   1.762
55779SOL     OW69233   1.482   0.370   2.921
55779SOL    HW169234   1.474   0.293   2.864
55779SOL    HW269235   1.549   0.346   2.985
55780SOL     OW69236  14.809  10.351  11.418
55780SOL    HW169237  14.757  10.344  11.339
55780SOL    HW269238  14.819  10.261  11.449
55781SOL     OW69239   1.692   3.736  12.672
55781SOL    HW169240   1.630   3.807  12.655
55781SOL    HW269241   1.639   3.656  12.668
55782SOL     OW69242  14.565   9.050   8.300
55782SOL    HW169243  14.630   8.981   8.308
55782SOL    HW269244  14.610   9.121   8.255
55783SOL     OW69245   6.433  11.704   2.334
55783SOL    HW169246   6.447  11.638   2.402
55783SOL    HW269247   6.352  11.748   2.359
55784SOL     OW69248  14.302   1.004  12.275
55784SOL    HW169249  14.225   1.053  12.306
55784SOL    HW269250  14.328   0.950  12.350
55785SOL     OW69251   0.184   9.107   7.871
55785SOL    HW169252   0.105   9.075   7.914
55785SOL    HW269253   0.234   9.028   7.850
55786SOL     OW69254   2.223   0.237   8.279
55786SOL    HW169255   2.229   0.311   8.340
55786SOL    HW269256   2.290   0.255   8.214
55787SOL     OW69257  13.740   5.520   3.388
55787SOL    HW169258  13.835   5.512   3.373
55787SOL    HW269259  13.702   5.522   3.300
55788SOL     OW69260   2.268  14.433  14.244
55788SOL    HW169261   2.308  14.480  14.172
55788SOL    HW269262   2.334  14.433  14.313
55789SOL     OW69263   4.065   6.077   4.759
55789SOL    HW169264   4.152   6.049   4.787
55789SOL    HW269265   4.080   6.156   4.708
55790SOL     OW69266   6.473   3.493   7.440
55790SOL    HW169267   6.556   3.451   7.457
55790SOL    HW269268   6.457   3.478   7.346
55791SOL     OW69269  11.068   3.831   6.578
55791SOL    HW169270  11.114   3.911   6.604
55791SOL    HW269271  11.134   3.761   6.588
55792SOL     OW69272  12.410   6.299   4.712
55792SOL    HW169273  12.369   6.384   4.729
55792SOL    HW269274  12.338   6.244   4.680
55793SOL     OW69275   2.855   3.886  13.397
55793SOL    HW169276   2.888   3.854  13.481
55793SOL    HW269277   2.810   3.968  13.418
55794SOL     OW69278   4.339  12.518   3.403
55794SOL    HW169279   4.380  12.510   3.489
55794SOL    HW269280   4.369  12.441   3.355
55795SOL     OW69281   8.562  14.064  12.047
55795SOL    HW169282   8.473  14.064  12.083
55795SOL    HW269283   8.552  14.097  11.958
55796SOL     OW69284   0.651  13.446   2.509
55796SOL    HW169285   0.563  13.477   2.527
55796SOL    HW269286   0.646  13.409   2.421
55797SOL     OW69287  13.767  12.433   4.368
55797SOL    HW169288  13.747  12.459   4.457
55797SOL    HW269289  13.693  12.463   4.316
55798SOL     OW69290  11.817   6.560   4.388
55798SOL    HW169291  11.806   6.650   4.417
55798SOL    HW269292  11.839   6.511   4.467
55799SOL     OW69293   5.155   6.000  11.909
55799SOL    HW169294   5.129   6.057  11.982
55799SOL    HW269295   5.093   6.021  11.839
55800SOL     OW69296   9.620   6.955  14.067
55800SOL    HW169297   9.567   6.875  14.065
55800SOL    HW269298   9.615   6.991  13.979
55801SOL     OW69299  14.028   9.895   9.567
55801SOL    HW169300  14.043   9.835   9.494
55801SOL    HW269301  13.981   9.969   9.527
55802SOL     OW69302   4.539  10.706   7.809
55802SOL    HW169303   4.593  10.628   7.794
55802SOL    HW269304   4.596  10.779   7.787
55803SOL     OW69305  12.829  13.822  10.991
55803SOL    HW169306  12.785  13.802  10.909
55803SOL    HW269307  12.774  13.889  11.032
55804SOL     OW69308   7.099  13.684  10.654
55804SOL    HW169309   7.145  13.726  10.581
55804SOL    HW269310   7.166  13.634  10.699
55805SOL     OW69311  10.978   1.489  14.614
55805SOL    HW169312  10.964   1.468  14.707
55805SOL    HW269313  10.899   1.457  14.571
55806SOL     OW69314  14.030  11.773   1.310
55806SOL    HW169315  14.046  11.763   1.404
55806SOL    HW269316  14.043  11.685   1.275
55807SOL     OW69317   3.877   0.262   1.471
55807SOL    HW169318   3.854   0.258   1.378
55807SOL    HW269319   3.902   0.354   1.485
55808SOL     OW69320  13.872   7.845   5.526
55808SOL    HW169321  13.839   7.793   5.600
55808SOL    HW269322  13.794   7.881   5.485
55809SOL     OW69323   7.594   6.588  10.922
55809SOL    HW169324   7.516   6.585  10.977
55809SOL    HW269325   7.583   6.516  10.861
55810SOL     OW69326   4.336  13.282   4.967
55810SOL    HW169327   4.276  13.357   4.965
55810SOL    HW269328   4.283  13.209   4.934
55811SOL     OW69329  12.293   6.697  11.809
55811SOL    HW169330  12.320   6.785  11.779
55811SOL    HW269331  12.265   6.653  11.729
55812SOL     OW69332   7.698   5.896   4.434
55812SOL    HW169333   7.615   5.861   4.401
55812SOL    HW269334   7.673   5.954   4.506
55813SOL     OW69335  13.857   8.317  12.367
55813SOL    HW169336  13.772   8.320  12.324
55813SOL    HW269337  13.857   8.233  12.415
55814SOL     OW69338   9.467  14.169  12.113
55814SOL    HW169339   9.475  14.263  12.096
55814SOL    HW269340   9.519  14.154  12.192
55815SOL     OW69341   1.663   6.794  12.988
55815SOL    HW169342   1.705   6.842  12.917
55815SOL    HW269343   1.702   6.829  13.068
55816SOL     OW69344  14.725  12.620   4.611
55816SOL    HW169345  14.814  12.587   4.609
55816SOL    HW269346  14.734  12.715   4.605
55817SOL     OW69347   9.849   2.852  14.162
55817SOL    HW169348   9.934   2.811  14.146
55817SOL    HW269349   9.851   2.874  14.255
55818SOL     OW69350   4.626   2.921   1.725
55818SOL    HW169351   4.554   2.951   1.669
55818SOL    HW269352   4.701   2.914   1.666
55819SOL     OW69353   8.107   0.575  14.040
55819SOL    HW169354   8.065   0.546  13.959
55819SOL    HW269355   8.065   0.521  14.108
55820SOL     OW69356   2.992  13.528  12.306
55820SOL    HW169357   3.056  13.483  12.250
55820SOL    HW269358   3.045  13.590  12.356
55821SOL     OW69359   8.456   9.850   2.182
55821SOL    HW169360   8.371   9.894   2.185
55821SOL    HW269361   8.518   9.915   2.212
55822SOL     OW69362  13.066  12.519   1.415
55822SOL    HW169363  13.021  12.574   1.479
55822SOL    HW269364  13.159  12.531   1.434
55823SOL     OW69365   1.823  12.443   7.168
55823SOL    HW169366   1.731  12.451   7.143
55823SOL    HW269367   1.826  12.477   7.257
55824SOL     OW69368   6.696   7.659  13.470
55824SOL    HW169369   6.609   7.644  13.433
55824SOL    HW269370   6.706   7.592  13.537
55825SOL     OW69371   6.301   9.377   3.313
55825SOL    HW169372   6.337   9.288   3.318
55825SOL    HW269373   6.345   9.417   3.237
55826SOL     OW69374   5.997  11.977  10.547
55826SOL    HW169375   5.960  11.888  10.545
55826SOL    HW269376   6.078  11.968  10.597
55827SOL     OW69377   3.989   3.496   6.165
55827SOL    HW169378   4.040   3.510   6.086
55827SOL    HW269379   4.050   3.453   6.226
55828SOL     OW69380  14.322  11.533   9.738
55828SOL    HW169381  14.376  11.612   9.739
55828SOL    HW269382  14.382  11.462   9.716
55829SOL     OW69383  14.839   8.083   7.231
55829SOL    HW169384  14.767   8.088   7.294
55829SOL    HW269385  14.820   8.152   7.168
55830SOL     OW69386  11.927   5.600  12.979
55830SOL    HW169387  11.882   5.522  12.948
55830SOL    HW269388  11.865   5.641  13.039
55831SOL     OW69389  10.207   5.713   1.384
55831SOL    HW169390  10.218   5.618   1.396
55831SOL    HW269391  10.158   5.720   1.302
55832SOL     OW69392   4.945   8.264   8.633
55832SOL    HW169393   4.906   8.277   8.719
55832SOL    HW269394   4.995   8.344   8.616
55833SOL     OW69395  12.593  10.383   6.304
55833SOL    HW169396  12.614  10.385   6.398
55833SOL    HW269397  12.548  10.466   6.288
55834SOL     OW69398   7.582  10.369   5.063
55834SOL    HW169399   7.636  10.302   5.020
55834SOL    HW269400   7.604  10.450   5.017
55835SOL     OW69401  14.609  10.953   5.769
55835SOL    HW169402  14.702  10.950   5.750
55835SOL    HW269403  14.604  10.957   5.865
55836SOL     OW69404  10.351  10.737   1.733
55836SOL    HW169405  10.444  10.724   1.751
55836SOL    HW269406  10.335  10.691   1.650
55837SOL     OW69407   1.811  10.626   2.149
55837SOL    HW169408   1.875  10.671   2.204
55837SOL    HW269409   1.859  10.554   2.109
55838SOL     OW69410   0.599   6.435  10.560
55838SOL    HW169411   0.650   6.472  10.488
55838SOL    HW269412   0.557   6.511  10.601
55839SOL     OW69413   8.530   4.509   2.973
55839SOL    HW169414   8.564   4.444   2.911
55839SOL    HW269415   8.532   4.465   3.058
55840SOL     OW69416   8.556   3.330   4.241
55840SOL    HW169417   8.561   3.252   4.296
55840SOL    HW269418   8.473   3.320   4.193
55841SOL     OW69419   6.564   5.756   5.618
55841SOL    HW169420   6.634   5.719   5.672
55841SOL    HW269421   6.532   5.682   5.567
55842SOL     OW69422  14.015  10.706   0.550
55842SOL    HW169423  13.923  10.702   0.578
55842SOL    HW269424  14.058  10.639   0.602
55843SOL     OW69425  12.823   1.238   9.631
55843SOL    HW169426  12.745   1.193   9.664
55843SOL    HW269427  12.849   1.186   9.555
55844SOL     OW69428   0.162   9.645  13.484
55844SOL    HW169429   0.214   9.701  13.542
55844SOL    HW269430   0.217   9.634  13.406
55845SOL     OW69431  13.832   4.331   3.911
55845SOL    HW169432  13.895   4.354   3.979
55845SOL    HW269433  13.849   4.393   3.840
55846SOL     OW69434  13.366   4.220  12.792
55846SOL    HW169435  13.401   4.306  12.813
55846SOL    HW269436  13.341   4.183  12.877
55847SOL     OW69437   1.998  12.901  12.480
55847SOL    HW169438   2.037  12.984  12.454
55847SOL    HW269439   1.914  12.925  12.520
55848SOL     OW69440  11.796   3.776  10.419
55848SOL    HW169441  11.772   3.845  10.481
55848SOL    HW269442  11.713   3.731  10.400
55849SOL     OW69443   4.670  10.718   9.854
55849SOL    HW169444   4.650  10.801   9.899
55849SOL    HW269445   4.588  10.695   9.810
55850SOL     OW69446   4.934  10.237   2.726
55850SOL    HW169447   5.007  10.175   2.726
55850SOL    HW269448   4.916  10.253   2.633
55851SOL     OW69449   6.088   3.803   3.324
55851SOL    HW169450   6.154   3.802   3.393
55851SOL    HW269451   6.121   3.866   3.260
55852SOL     OW69452   0.776  14.575  10.513
55852SOL    HW169453   0.706  14.556  10.574
55852SOL    HW269454   0.852  14.528  10.547
55853SOL     OW69455   9.547   7.659  12.387
55853SOL    HW169456   9.454   7.670  12.408
55853SOL    HW269457   9.576   7.747  12.361
55854SOL     OW69458  12.871   9.535   2.787
55854SOL    HW169459  12.866   9.502   2.877
55854SOL    HW269460  12.965   9.535   2.767
55855SOL     OW69461  10.179  14.802  11.278
55855SOL    HW169462  10.239   0.007  11.282
55855SOL    HW269463  10.143  14.804  11.189
55856SOL     OW69464   4.297   5.284   7.359
55856SOL    HW169465   4.365   5.318   7.418
55856SOL    HW269466   4.345   5.227   7.298
55857SOL     OW69467   1.445   4.736   1.078
55857SOL    HW169468   1.425   4.797   1.149
55857SOL    HW269469   1.479   4.658   1.122
55858SOL     OW69470  10.369   9.665   1.072
55858SOL    HW169471  10.387   9.572   1.055
55858SOL    HW269472  10.425   9.712   1.010
55859SOL     OW69473   7.250   7.530   3.742
55859SOL    HW169474   7.263   7.525   3.837
55859SOL    HW269475   7.270   7.442   3.710
55860SOL     OW69476   7.176  13.513   0.199
55860SOL    HW169477   7.252  13.469   0.161
55860SOL    HW269478   7.172  13.481   0.289
55861SOL     OW69479   3.372   8.297   3.023
55861SOL    HW169480   3.457   8.257   3.003
55861SOL    HW269481   3.371   8.376   2.969
55862SOL     OW69482   0.422  12.419   5.735
55862SOL    HW169483   0.397  12.349   5.795
55862SOL    HW269484   0.474  12.377   5.667
55863SOL     OW69485  10.393   0.787  14.815
55863SOL    HW169486  10.487   0.791  14.835
55863SOL    HW269487  10.365   0.702  14.848
55864SOL     OW69488   2.565   8.830   3.253
55864SOL    HW169489   2.480   8.794   3.229
55864SOL    HW269490   2.559   8.848   3.346
55865SOL     OW69491   8.149  12.201   5.717
55865SOL    HW169492   8.224  12.146   5.693
55865SOL    HW269493   8.118  12.166   5.800
55866SOL     OW69494  10.361  13.347  11.507
55866SOL    HW169495  10.282  13.311  11.468
55866SOL    HW269496  10.369  13.303  11.592
55867SOL     OW69497   7.896   0.508   8.371
55867SOL    HW169498   7.874   0.602   8.372
55867SOL    HW269499   7.987   0.505   8.399
55868SOL     OW69500   6.976  14.390   8.964
55868SOL    HW169501   6.984  14.391   9.059
55868SOL    HW269502   6.910  14.457   8.944
55869SOL     OW69503   3.809  13.161   4.393
55869SOL    HW169504   3.825  13.162   4.488
55869SOL    HW269505   3.794  13.068   4.373
55870SOL     OW69506   7.246   0.610   1.547
55870SOL    HW169507   7.250   0.589   1.640
55870SOL    HW269508   7.333   0.645   1.526
55871SOL     OW69509  12.340  14.453   5.804
55871SOL    HW169510  12.396  14.529   5.791
55871SOL    HW269511  12.348  14.403   5.723
55872SOL     OW69512   7.923   0.006   4.468
55872SOL    HW169513   7.974  14.852   4.390
55872SOL    HW269514   7.988   0.029   4.534
55873SOL     OW69515   9.412   6.357   0.273
55873SOL    HW169516   9.441   6.277   0.229
55873SOL    HW269517   9.484   6.380   0.331
55874SOL     OW69518  13.141   8.230  11.111
55874SOL    HW169519  13.096   8.268  11.036
55874SOL    HW269520  13.075   8.228  11.180
55875SOL     OW69521  14.417  14.780   3.073
55875SOL    HW169522  14.490  14.737   3.029
55875SOL    HW269523  14.418   0.000   3.039
55876SOL     OW69524  11.484  13.458   2.523
55876SOL    HW169525  11.572  13.479   2.554
55876SOL    HW269526  11.494  13.374   2.479
55877SOL     OW69527  13.197  14.418   2.132
55877SOL    HW169528  13.257  14.343   2.137
55877SOL    HW269529  13.188  14.447   2.223
55878SOL     OW69530   6.335   9.150  12.138
55878SOL    HW169531   6.410   9.206  12.119
55878SOL    HW269532   6.337   9.138  12.233
55879SOL     OW69533  12.489   8.495   0.619
55879SOL    HW169534  12.452   8.549   0.549
55879SOL    HW269535  12.516   8.415   0.576
55880SOL     OW69536  10.294  11.878   1.146
55880SOL    HW169537  10.384  11.886   1.115
55880SOL    HW269538  10.283  11.784   1.165
55881SOL     OW69539  12.699  11.963   8.035
55881SOL    HW169540  12.773  11.989   8.089
55881SOL    HW269541  12.706  12.018   7.957
55882SOL     OW69542   2.077   9.152  12.852
55882SOL    HW169543   2.055   9.206  12.776
55882SOL    HW269544   2.124   9.077  12.815
55883SOL     OW69545   5.265  11.746   6.585
55883SOL    HW169546   5.188  11.726   6.640
55883SOL    HW269547   5.292  11.662   6.550
55884SOL     OW69548   3.920   8.502  14.205
55884SOL    HW169549   3.965   8.514  14.289
55884SOL    HW269550   3.872   8.583  14.191
55885SOL     OW69551  13.428   4.233   0.988
55885SOL    HW169552  13.431   4.191   1.074
55885SOL    HW269553  13.479   4.313   0.998
55886SOL     OW69554  10.935   3.094   1.749
55886SOL    HW169555  10.979   3.009   1.756
55886SOL    HW269556  10.999   3.151   1.707
55887SOL     OW69557  11.970   8.356   7.440
55887SOL    HW169558  11.875   8.363   7.444
55887SOL    HW269559  11.991   8.274   7.484
55888SOL     OW69560   2.792  10.826   7.465
55888SOL    HW169561   2.742  10.746   7.448
55888SOL    HW269562   2.759  10.856   7.550
55889SOL     OW69563  13.163   7.667   1.403
55889SOL    HW169564  13.138   7.723   1.329
55889SOL    HW269565  13.134   7.716   1.480
55890SOL     OW69566  12.750  13.772   6.925
55890SOL    HW169567  12.690  13.818   6.867
55890SOL    HW269568  12.771  13.834   6.994
55891SOL     OW69569  10.659  11.133   1.559
55891SOL    HW169570  10.677  11.225   1.579
55891SOL    HW269571  10.609  11.101   1.634
55892SOL     OW69572  10.570  12.694   6.687
55892SOL    HW169573  10.594  12.676   6.596
55892SOL    HW269574  10.488  12.647   6.701
55893SOL     OW69575   7.363  14.758  12.055
55893SOL    HW169576   7.284  14.734  12.007
55893SOL    HW269577   7.431  14.764  11.988
55894SOL     OW69578  12.283  10.357   3.745
55894SOL    HW169579  12.348  10.426   3.756
55894SOL    HW269580  12.331  10.284   3.705
55895SOL     OW69581   1.320   1.785  14.601
55895SOL    HW169582   1.250   1.851  14.603
55895SOL    HW269583   1.279   1.706  14.636
55896SOL     OW69584   9.641   0.636  14.685
55896SOL    HW169585   9.591   0.597  14.613
55896SOL    HW269586   9.626   0.730  14.676
55897SOL     OW69587   4.107  11.544  13.187
55897SOL    HW169588   4.131  11.478  13.123
55897SOL    HW269589   4.141  11.626  13.151
55898SOL     OW69590  10.574   3.290   8.156
55898SOL    HW169591  10.656   3.246   8.180
55898SOL    HW269592  10.506   3.225   8.174
55899SOL     OW69593  12.272   5.134   0.698
55899SOL    HW169594  12.344   5.156   0.639
55899SOL    HW269595  12.314   5.098   0.776
55900SOL     OW69596  11.717  13.370   7.360
55900SOL    HW169597  11.775  13.394   7.287
55900SOL    HW269598  11.726  13.275   7.367
55901SOL     OW69599   4.386   5.477  14.030
55901SOL    HW169600   4.301   5.435  14.017
55901SOL    HW269601   4.391   5.543  13.961
55902SOL     OW69602   8.773  14.387   0.290
55902SOL    HW169603   8.821  14.390   0.373
55902SOL    HW269604   8.695  14.441   0.305
55903SOL     OW69605   8.338   9.088  10.348
55903SOL    HW169606   8.414   9.031  10.336
55903SOL    HW269607   8.343   9.116  10.439
55904SOL     OW69608  12.288   1.543   5.948
55904SOL    HW169609  12.352   1.533   6.019
55904SOL    HW269610  12.306   1.469   5.890
55905SOL     OW69611   1.362   8.087  11.687
55905SOL    HW169612   1.353   7.994  11.664
55905SOL    HW269613   1.338   8.134  11.608
55906SOL     OW69614   1.520   5.459  14.222
55906SOL    HW169615   1.564   5.541  14.241
55906SOL    HW269616   1.501   5.463  14.128
55907SOL     OW69617   9.915   7.755  10.125
55907SOL    HW169618   9.863   7.676  10.107
55907SOL    HW269619   9.895   7.814  10.052
55908SOL     OW69620   8.290   2.782  14.664
55908SOL    HW169621   8.346   2.740  14.730
55908SOL    HW269622   8.325   2.870  14.656
55909SOL     OW69623   2.067   5.223  10.063
55909SOL    HW169624   1.985   5.202  10.108
55909SOL    HW269625   2.079   5.317  10.079
55910SOL     OW69626  11.316   8.559   7.587
55910SOL    HW169627  11.276   8.513   7.661
55910SOL    HW269628  11.242   8.597   7.539
55911SOL     OW69629  13.114   8.522   7.601
55911SOL    HW169630  13.141   8.499   7.513
55911SOL    HW269631  13.040   8.463   7.620
55912SOL     OW69632  13.731  13.683   4.940
55912SOL    HW169633  13.736  13.751   5.008
55912SOL    HW269634  13.798  13.707   4.876
55913SOL     OW69635   8.668   0.875   3.570
55913SOL    HW169636   8.652   0.914   3.656
55913SOL    HW269637   8.763   0.881   3.558
55914SOL     OW69638  11.563   2.553   3.205
55914SOL    HW169639  11.512   2.616   3.256
55914SOL    HW269640  11.586   2.485   3.268
55915SOL     OW69641   3.023   7.998   5.583
55915SOL    HW169642   2.991   7.918   5.540
55915SOL    HW269643   3.114   7.978   5.605
55916SOL     OW69644   4.566   9.015  10.572
55916SOL    HW169645   4.646   9.068  10.566
55916SOL    HW269646   4.593   8.937  10.621
55917SOL     OW69647  11.635   2.847   8.598
55917SOL    HW169648  11.670   2.932   8.624
55917SOL    HW269649  11.662   2.788   8.668
55918SOL     OW69650   1.456   8.967  12.430
55918SOL    HW169651   1.444   9.045  12.484
55918SOL    HW269652   1.521   8.992  12.365
55919SOL     OW69653   6.950   0.127   4.719
55919SOL    HW169654   6.945   0.214   4.679
55919SOL    HW269655   7.042   0.102   4.714
55920SOL     OW69656   0.776   7.656   3.269
55920SOL    HW169657   0.690   7.647   3.227
55920SOL    HW269658   0.806   7.743   3.243
55921SOL     OW69659  10.307   6.355   9.113
55921SOL    HW169660  10.340   6.278   9.067
55921SOL    HW269661  10.385   6.402   9.140
55922SOL     OW69662   2.426   5.295   4.935
55922SOL    HW169663   2.388   5.226   4.990
55922SOL    HW269664   2.353   5.326   4.881
55923SOL     OW69665  11.806  11.506   4.392
55923SOL    HW169666  11.832  11.466   4.475
55923SOL    HW269667  11.720  11.543   4.408
55924SOL     OW69668   1.406   4.739   1.867
55924SOL    HW169669   1.451   4.823   1.875
55924SOL    HW269670   1.434   4.690   1.944
55925SOL     OW69671   3.265   6.722   2.711
55925SOL    HW169672   3.252   6.657   2.780
55925SOL    HW269673   3.176   6.743   2.682
55926SOL     OW69674  12.767  10.289   1.824
55926SOL    HW169675  12.749  10.215   1.882
55926SOL    HW269676  12.859  10.311   1.840
55927SOL     OW69677   2.995   5.741   5.906
55927SOL    HW169678   2.945   5.737   5.987
55927SOL    HW269679   3.055   5.666   5.910
55928SOL     OW69680  14.565   3.871   8.307
55928SOL    HW169681  14.569   3.777   8.324
55928SOL    HW269682  14.646   3.891   8.260
55929SOL     OW69683   3.056   0.512   5.896
55929SOL    HW169684   2.982   0.543   5.948
55929SOL    HW269685   3.077   0.586   5.838
55930SOL     OW69686  13.103  10.407   7.202
55930SOL    HW169687  13.149  10.431   7.283
55930SOL    HW269688  13.010  10.409   7.226
55931SOL     OW69689   1.392   9.034   4.422
55931SOL    HW169690   1.464   9.064   4.368
55931SOL    HW269691   1.314   9.075   4.384
55932SOL     OW69692  12.864   0.835  13.047
55932SOL    HW169693  12.830   0.915  13.087
55932SOL    HW269694  12.955   0.856  13.026
55933SOL     OW69695  10.332  13.879  14.413
55933SOL    HW169696  10.386  13.932  14.472
55933SOL    HW269697  10.367  13.897  14.326
55934SOL     OW69698  11.330   1.314   6.875
55934SOL    HW169699  11.323   1.219   6.883
55934SOL    HW269700  11.268   1.348   6.939
55935SOL     OW69701   2.858  10.574   9.956
55935SOL    HW169702   2.783  10.632   9.966
55935SOL    HW269703   2.838  10.499  10.011
55936SOL     OW69704  13.287   1.011  10.330
55936SOL    HW169705  13.318   1.048  10.413
55936SOL    HW269706  13.240   0.932  10.355
55937SOL     OW69707   3.192   6.910   2.439
55937SOL    HW169708   3.282   6.938   2.454
55937SOL    HW269709   3.197   6.852   2.363
55938SOL     OW69710  12.437   8.254  10.798
55938SOL    HW169711  12.362   8.298  10.838
55938SOL    HW269712  12.406   8.227  10.711
55939SOL     OW69713   3.273  10.864  12.596
55939SOL    HW169714   3.359  10.854  12.556
55939SOL    HW269715   3.275  10.950  12.639
55940SOL     OW69716  11.552   3.046   4.367
55940SOL    HW169717  11.572   3.139   4.379
55940SOL    HW269718  11.458   3.044   4.352
55941SOL     OW69719   8.870   4.408  13.176
55941SOL    HW169720   8.827   4.482  13.134
55941SOL    HW269721   8.964   4.422  13.161
55942SOL     OW69722  13.195  11.716   0.074
55942SOL    HW169723  13.240  11.780   0.018
55942SOL    HW269724  13.221  11.739   0.163
55943SOL     OW69725   4.477   5.366   3.917
55943SOL    HW169726   4.558   5.375   3.868
55943SOL    HW269727   4.419   5.316   3.858
55944SOL     OW69728   1.265   1.143   4.323
55944SOL    HW169729   1.284   1.214   4.262
55944SOL    HW269730   1.230   1.072   4.269
55945SOL     OW69731  13.952   9.414  12.948
55945SOL    HW169732  14.035   9.394  12.904
55945SOL    HW269733  13.891   9.434  12.877
55946SOL     OW69734   6.316  10.641   8.158
55946SOL    HW169735   6.323  10.667   8.250
55946SOL    HW269736   6.358  10.555   8.154
55947SOL     OW69737  12.171   4.931  12.824
55947SOL    HW169738  12.187   4.838  12.837
55947SOL    HW269739  12.259   4.970  12.821
55948SOL     OW69740   4.264  14.541   5.432
55948SOL    HW169741   4.200  14.470   5.435
55948SOL    HW269742   4.272  14.563   5.340
55949SOL     OW69743   7.272   9.433   5.143
55949SOL    HW169744   7.218   9.413   5.066
55949SOL    HW269745   7.213   9.417   5.217
55950SOL     OW69746   4.753   2.695  11.121
55950SOL    HW169747   4.761   2.660  11.032
55950SOL    HW269748   4.660   2.713  11.132
55951SOL     OW69749   5.713   4.389   0.400
55951SOL    HW169750   5.672   4.326   0.459
55951SOL    HW269751   5.789   4.344   0.365
55952SOL     OW69752   8.568   0.815   9.670
55952SOL    HW169753   8.601   0.842   9.756
55952SOL    HW269754   8.599   0.725   9.660
55953SOL     OW69755   1.404   0.453   3.318
55953SOL    HW169756   1.433   0.368   3.285
55953SOL    HW269757   1.471   0.479   3.381
55954SOL     OW69758   2.609  10.224  13.465
55954SOL    HW169759   2.693  10.178  13.465
55954SOL    HW269760   2.570  10.203  13.550
55955SOL     OW69761  13.181   0.141   3.531
55955SOL    HW169762  13.095   0.182   3.537
55955SOL    HW269763  13.206   0.152   3.439
55956SOL     OW69764   9.294   4.235  13.697
55956SOL    HW169765   9.237   4.298  13.742
55956SOL    HW269766   9.255   4.150  13.715
55957SOL     OW69767  14.268   7.161   0.351
55957SOL    HW169768  14.219   7.239   0.324
55957SOL    HW269769  14.201   7.100   0.381
55958SOL     OW69770   3.733   2.982   1.181
55958SOL    HW169771   3.640   3.001   1.166
55958SOL    HW269772   3.748   2.898   1.137
55959SOL     OW69773   1.244  11.410   5.105
55959SOL    HW169774   1.234  11.317   5.086
55959SOL    HW269775   1.291  11.445   5.029
55960SOL     OW69776  10.325   6.705   9.693
55960SOL    HW169777  10.374   6.763   9.636
55960SOL    HW269778  10.301   6.759   9.768
55961SOL     OW69779   6.378   1.481   4.793
55961SOL    HW169780   6.326   1.458   4.871
55961SOL    HW269781   6.417   1.399   4.765
55962SOL     OW69782  11.281   8.956  10.718
55962SOL    HW169783  11.209   8.914  10.670
55962SOL    HW269784  11.357   8.901  10.698
55963SOL     OW69785   8.517   9.733  10.177
55963SOL    HW169786   8.599   9.697  10.143
55963SOL    HW269787   8.538   9.757  10.268
55964SOL     OW69788  14.123  12.751   8.110
55964SOL    HW169789  14.188  12.821   8.102
55964SOL    HW269790  14.084  12.765   8.196
55965SOL     OW69791   3.167   7.006   8.855
55965SOL    HW169792   3.133   6.932   8.906
55965SOL    HW269793   3.241   6.970   8.807
55966SOL     OW69794   3.031   4.151   6.642
55966SOL    HW169795   3.072   4.206   6.708
55966SOL    HW269796   2.971   4.208   6.596
55967SOL     OW69797   5.164   3.272   2.866
55967SOL    HW169798   5.196   3.344   2.921
55967SOL    HW269799   5.244   3.224   2.843
55968SOL     OW69800  11.845   3.718   2.637
55968SOL    HW169801  11.916   3.781   2.630
55968SOL    HW269802  11.852   3.666   2.557
55969SOL     OW69803   9.406  13.893   5.248
55969SOL    HW169804   9.321  13.882   5.204
55969SOL    HW269805   9.383  13.900   5.341
55970SOL     OW69806   9.813  14.186   8.886
55970SOL    HW169807   9.780  14.244   8.955
55970SOL    HW269808   9.799  14.098   8.920
55971SOL     OW69809   1.723   1.725   4.921
55971SOL    HW169810   1.706   1.756   5.010
55971SOL    HW269811   1.805   1.766   4.896
55972SOL     OW69812  13.126  13.298   1.465
55972SOL    HW169813  13.109  13.204   1.470
55972SOL    HW269814  13.057  13.332   1.408
55973SOL     OW69815   2.827  14.762   9.901
55973SOL    HW169816   2.766  14.791   9.834
55973SOL    HW269817   2.913  14.789   9.870
55974SOL     OW69818  13.039  10.917  13.187
55974SOL    HW169819  13.127  10.879  13.182
55974SOL    HW269820  12.992  10.860  13.248
55975SOL     OW69821   9.611   7.708   4.200
55975SOL    HW169822   9.674   7.769   4.239
55975SOL    HW269823   9.653   7.622   4.210
55976SOL     OW69824   2.335   5.357   9.610
55976SOL    HW169825   2.367   5.353   9.700
55976SOL    HW269826   2.413   5.371   9.556
55977SOL     OW69827   5.953   8.410   7.974
55977SOL    HW169828   6.030   8.460   8.002
55977SOL    HW269829   5.879   8.463   8.003
55978SOL     OW69830  10.916  10.739   5.708
55978SOL    HW169831  10.832  10.693   5.701
55978SOL    HW269832  10.917  10.799   5.634
55979SOL     OW69833   6.457   8.419  10.454
55979SOL    HW169834   6.415   8.399  10.370
55979SOL    HW269835   6.536   8.467  10.430
55980SOL     OW69836   6.299   3.306   3.090
55980SOL    HW169837   6.226   3.353   3.051
55980SOL    HW269838   6.333   3.250   3.020
55981SOL     OW69839  11.236   3.219  12.506
55981SOL    HW169840  11.206   3.303  12.471
55981SOL    HW269841  11.158   3.164  12.509
55982SOL     OW69842  13.448   0.975   7.196
55982SOL    HW169843  13.365   1.015   7.168
55982SOL    HW269844  13.435   0.958   7.289
55983SOL     OW69845  13.953   2.980   3.979
55983SOL    HW169846  13.860   2.984   3.998
55983SOL    HW269847  13.957   2.975   3.883
55984SOL     OW69848   6.310   2.013  11.205
55984SOL    HW169849   6.301   2.106  11.185
55984SOL    HW269850   6.282   1.968  11.126
55985SOL     OW69851   9.824   2.349   8.980
55985SOL    HW169852   9.884   2.277   8.995
55985SOL    HW269853   9.880   2.427   8.974
55986SOL     OW69854   0.814   4.171   1.673
55986SOL    HW169855   0.892   4.212   1.635
55986SOL    HW269856   0.740   4.212   1.628
55987SOL     OW69857   0.739   0.757   4.813
55987SOL    HW169858   0.703   0.705   4.885
55987SOL    HW269859   0.758   0.842   4.851
55988SOL     OW69860  12.214   4.049  13.005
55988SOL    HW169861  12.158   4.087  13.073
55988SOL    HW269862  12.175   3.963  12.987
55989SOL     OW69863   9.015  10.976  13.683
55989SOL    HW169864   8.983  10.901  13.634
55989SOL    HW269865   8.982  10.963  13.772
55990SOL     OW69866   9.075  11.764   5.330
55990SOL    HW169867   9.117  11.686   5.367
55990SOL    HW269868   8.983  11.755   5.354
55991SOL     OW69869   1.542   8.552   9.823
55991SOL    HW169870   1.461   8.528   9.868
55991SOL    HW269871   1.607   8.488   9.854
55992SOL     OW69872   5.506   9.103  13.306
55992SOL    HW169873   5.529   9.174  13.245
55992SOL    HW269874   5.415   9.121  13.329
55993SOL     OW69875  13.264  10.282  10.109
55993SOL    HW169876  13.304  10.253  10.027
55993SOL    HW269877  13.265  10.204  10.165
55994SOL     OW69878  13.105   6.596   4.302
55994SOL    HW169879  13.187   6.632   4.269
55994SOL    HW269880  13.039   6.662   4.281
55995SOL     OW69881   0.934   1.770   9.463
55995SOL    HW169882   1.024   1.739   9.468
55995SOL    HW269883   0.882   1.690   9.462
55996SOL     OW69884   2.697  14.376   8.567
55996SOL    HW169885   2.649  14.458   8.578
55996SOL    HW269886   2.630  14.310   8.552
55997SOL     OW69887   0.531   0.485   1.016
55997SOL    HW169888   0.620   0.518   1.003
55997SOL    HW269889   0.531   0.398   0.976
55998SOL     OW69890   2.095   5.080   5.661
55998SOL    HW169891   2.114   5.067   5.754
55998SOL    HW269892   2.042   5.159   5.658
55999SOL     OW69893  12.339   0.335  10.425
55999SOL    HW169894  12.249   0.329  10.395
55999SOL    HW269895  12.384   0.265  10.377
56000SOL     OW69896   7.433  14.008   6.992
56000SOL    HW169897   7.380  14.052   6.926
56000SOL    HW269898   7.454  14.077   7.056
56001SOL     OW69899  12.204   8.466  12.703
56001SOL    HW169900  12.173   8.444  12.791
56001SOL    HW269901  12.261   8.542  12.717
56002SOL     OW69902  13.686   2.859  13.273
56002SOL    HW169903  13.610   2.801  13.280
56002SOL    HW269904  13.690   2.881  13.179
56003SOL     OW69905  10.642   8.916   8.109
56003SOL    HW169906  10.621   8.885   8.197
56003SOL    HW269907  10.736   8.900   8.100
56004SOL     OW69908  10.076   4.848  11.291
56004SOL    HW169909  10.001   4.792  11.309
56004SOL    HW269910  10.038   4.935  11.279
56005SOL     OW69911   3.421   2.691   3.984
56005SOL    HW169912   3.390   2.619   4.038
56005SOL    HW269913   3.352   2.702   3.917
56006SOL     OW69914   0.319  11.501   7.066
56006SOL    HW169915   0.383  11.436   7.094
56006SOL    HW269916   0.262  11.454   7.005
56007SOL     OW69917  10.201  12.618   5.707
56007SOL    HW169918  10.170  12.549   5.649
56007SOL    HW269919  10.147  12.608   5.786
56008SOL     OW69920   1.130   8.630   2.608
56008SOL    HW169921   1.077   8.676   2.673
56008SOL    HW269922   1.145   8.695   2.539
56009SOL     OW69923   8.124   2.647  10.882
56009SOL    HW169924   8.179   2.717  10.847
56009SOL    HW269925   8.080   2.611  10.806
56010SOL     OW69926   0.893  12.770  10.652
56010SOL    HW169927   0.865  12.858  10.626
56010SOL    HW269928   0.886  12.718  10.572
56011SOL     OW69929   7.465   7.939  11.261
56011SOL    HW169930   7.433   7.971  11.346
56011SOL    HW269931   7.386   7.929  11.208
56012SOL     OW69932   5.385  13.276  11.378
56012SOL    HW169933   5.329  13.207  11.342
56012SOL    HW269934   5.463  13.230  11.408
56013SOL     OW69935  12.314   3.967  14.759
56013SOL    HW169936  12.294   3.880  14.724
56013SOL    HW269937  12.267   3.970  14.843
56014SOL     OW69938  14.058  12.910  12.249
56014SOL    HW169939  14.013  12.917  12.333
56014SOL    HW269940  13.995  12.867  12.191
56015SOL     OW69941  13.603  11.052  12.736
56015SOL    HW169942  13.524  11.021  12.780
56015SOL    HW269943  13.643  10.972  12.701
56016SOL     OW69944  12.640  12.313  10.281
56016SOL    HW169945  12.553  12.285  10.307
56016SOL    HW269946  12.625  12.384  10.218
56017SOL     OW69947  14.792  14.188  13.423
56017SOL    HW169948  14.806  14.130  13.349
56017SOL    HW269949  14.781  14.130  13.498
56018SOL     OW69950   6.374  12.754   6.022
56018SOL    HW169951   6.313  12.827   6.032
56018SOL    HW269952   6.460  12.793   6.035
56019SOL     OW69953   2.276  13.805   4.704
56019SOL    HW169954   2.347  13.855   4.745
56019SOL    HW269955   2.291  13.815   4.610
56020SOL     OW69956  14.353   4.680  13.730
56020SOL    HW169957  14.375   4.764  13.690
56020SOL    HW269958  14.257   4.679  13.731
56021SOL     OW69959   6.607   4.414   5.417
56021SOL    HW169960   6.683   4.425   5.359
56021SOL    HW269961   6.540   4.471   5.378
56022SOL     OW69962  10.047   4.443   2.249
56022SOL    HW169963  10.015   4.505   2.314
56022SOL    HW269964   9.988   4.454   2.174
56023SOL     OW69965   2.263  12.763  10.528
56023SOL    HW169966   2.322  12.784  10.600
56023SOL    HW269967   2.247  12.848  10.485
56024SOL     OW69968   5.783   0.961   6.620
56024SOL    HW169969   5.857   0.991   6.566
56024SOL    HW269970   5.819   0.956   6.708
56025SOL     OW69971   8.967   7.641   0.369
56025SOL    HW169972   8.922   7.568   0.411
56025SOL    HW269973   8.955   7.714   0.429
56026SOL     OW69974  14.244   3.567   3.359
56026SOL    HW169975  14.195   3.644   3.389
56026SOL    HW269976  14.304   3.601   3.293
56027SOL     OW69977   1.511   1.153   8.061
56027SOL    HW169978   1.599   1.145   8.097
56027SOL    HW269979   1.507   1.243   8.027
56028SOL     OW69980  12.054   1.906   7.447
56028SOL    HW169981  12.016   1.923   7.534
56028SOL    HW269982  11.999   1.837   7.410
56029SOL     OW69983   4.747   1.970   5.088
56029SOL    HW169984   4.691   2.029   5.037
56029SOL    HW269985   4.703   1.885   5.084
56030SOL     OW69986  13.594   0.368   6.913
56030SOL    HW169987  13.683   0.379   6.880
56030SOL    HW269988  13.557   0.298   6.859
56031SOL     OW69989   8.494   5.822  10.303
56031SOL    HW169990   8.533   5.831  10.389
56031SOL    HW269991   8.488   5.728  10.287
56032SOL     OW69992  11.727  13.696   0.638
56032SOL    HW169993  11.791  13.646   0.688
56032SOL    HW269994  11.718  13.778   0.686
56033SOL     OW69995  11.217  14.681  13.608
56033SOL    HW169996  11.134  14.726  13.587
56033SOL    HW269997  11.268  14.747  13.656
56034SOL     OW69998   8.931   1.320   3.425
56034SOL    HW169999   8.887   1.404   3.415
56034SOL    HW270000   8.859   1.256   3.419
56035SOL     OW70001  12.815  11.690   0.468
56035SOL    HW170002  12.861  11.744   0.403
56035SOL    HW270003  12.881  11.628   0.498
56036SOL     OW70004   2.759   3.001   2.638
56036SOL    HW170005   2.852   3.008   2.619
56036SOL    HW270006   2.754   2.989   2.733
56037SOL     OW70007   5.406   1.229   9.996
56037SOL    HW170008   5.485   1.213   9.944
56037SOL    HW270009   5.402   1.156  10.058
56038SOL     OW70010   9.032   7.353  12.172
56038SOL    HW170011   9.055   7.433  12.124
56038SOL    HW270012   9.059   7.371  12.262
56039SOL     OW70013   0.131  12.301   2.141
56039SOL    HW170014   0.104  12.240   2.209
56039SOL    HW270015   0.122  12.252   2.059
56040SOL     OW70016   5.972   4.779   3.478
56040SOL    HW170017   5.901   4.777   3.414
56040SOL    HW270018   5.928   4.782   3.563
56041SOL     OW70019   3.834  12.667   7.953
56041SOL    HW170020   3.899  12.630   7.894
56041SOL    HW270021   3.815  12.754   7.916
56042SOL     OW70022   3.934   6.575  12.309
56042SOL    HW170023   3.982   6.492  12.318
56042SOL    HW270024   3.850   6.558  12.353
56043SOL     OW70025   3.614   4.555  12.907
56043SOL    HW170026   3.703   4.581  12.929
56043SOL    HW270027   3.587   4.615  12.838
56044SOL     OW70028   0.851   0.355   4.855
56044SOL    HW170029   0.925   0.413   4.837
56044SOL    HW270030   0.854   0.341   4.950
56045SOL     OW70031   8.679  12.530   4.340
56045SOL    HW170032   8.728  12.474   4.279
56045SOL    HW270033   8.739  12.542   4.414
56046SOL     OW70034   0.035   6.447   3.429
56046SOL    HW170035  14.855   6.366   3.446
56046SOL    HW270036   0.099   6.421   3.362
56047SOL     OW70037   1.274   0.594   0.850
56047SOL    HW170038   1.365   0.565   0.859
56047SOL    HW270039   1.223   0.513   0.850
56048SOL     OW70040  14.287  11.284   6.189
56048SOL    HW170041  14.256  11.352   6.249
56048SOL    HW270042  14.353  11.236   6.239
56049SOL     OW70043   6.456  13.802  13.953
56049SOL    HW170044   6.533  13.746  13.962
56049SOL    HW270045   6.463  13.838  13.864
56050SOL     OW70046   8.241   9.213   3.072
56050SOL    HW170047   8.184   9.271   3.122
56050SOL    HW270048   8.287   9.161   3.138
56051SOL     OW70049   1.850   8.378   2.735
56051SOL    HW170050   1.765   8.349   2.700
56051SOL    HW270051   1.892   8.297   2.764
56052SOL     OW70052   8.874   0.019  13.642
56052SOL    HW170053   8.870  14.824  13.571
56052SOL    HW270054   8.967   0.022  13.665
56053SOL     OW70055   3.124   3.417  10.080
56053SOL    HW170056   3.055   3.371  10.032
56053SOL    HW270057   3.125   3.505  10.041
56054SOL     OW70058   7.540  12.516   5.016
56054SOL    HW170059   7.519  12.481   4.930
56054SOL    HW270060   7.461  12.503   5.067
56055SOL     OW70061   0.953  10.519   8.536
56055SOL    HW170062   0.911  10.442   8.576
56055SOL    HW270063   0.906  10.532   8.454
56056SOL     OW70064   3.881  10.899   9.372
56056SOL    HW170065   3.909  10.987   9.351
56056SOL    HW270066   3.803  10.885   9.318
56057SOL     OW70067   7.002   2.443  13.790
56057SOL    HW170068   7.062   2.517  13.789
56057SOL    HW270069   7.020   2.395  13.710
56058SOL     OW70070   5.217  10.795   0.186
56058SOL    HW170071   5.198  10.868   0.244
56058SOL    HW270072   5.131  10.762   0.161
56059SOL     OW70073   3.051  14.812   1.759
56059SOL    HW170074   3.075   0.033   1.778
56059SOL    HW270075   2.959  14.817   1.733
56060SOL     OW70076   5.738  13.050  14.149
56060SOL    HW170077   5.657  13.076  14.194
56060SOL    HW270078   5.786  13.132  14.135
56061SOL     OW70079   3.348   9.244   6.776
56061SOL    HW170080   3.332   9.217   6.686
56061SOL    HW270081   3.391   9.329   6.768
56062SOL     OW70082  12.703   5.328   5.113
56062SOL    HW170083  12.680   5.330   5.020
56062SOL    HW270084  12.667   5.245   5.145
56063SOL     OW70085   9.990   0.981   3.149
56063SOL    HW170086  10.053   0.963   3.218
56063SOL    HW270087   9.964   1.072   3.163
56064SOL     OW70088   3.860  11.196   0.034
56064SOL    HW170089   3.868  11.256  14.829
56064SOL    HW270090   3.820  11.117  14.868
56065SOL     OW70091  10.975   4.481   7.089
56065SOL    HW170092  10.949   4.420   7.020
56065SOL    HW270093  11.005   4.559   7.042
56066SOL     OW70094   4.279  12.820   4.431
56066SOL    HW170095   4.228  12.750   4.472
56066SOL    HW270096   4.234  12.838   4.349
56067SOL     OW70097   4.578   4.254   3.598
56067SOL    HW170098   4.488   4.278   3.619
56067SOL    HW270099   4.631   4.313   3.652
56068SOL     OW70100   2.264  13.563   1.217
56068SOL    HW170101   2.273  13.571   1.122
56068SOL    HW270102   2.200  13.629   1.241
56069SOL     OW70103   4.306   7.643   8.180
56069SOL    HW170104   4.363   7.715   8.155
56069SOL    HW270105   4.248   7.630   8.105
56070SOL     OW70106   6.881   3.606  13.670
56070SOL    HW170107   6.899   3.600  13.763
56070SOL    HW270108   6.959   3.650  13.634
56071SOL     OW70109   3.550   7.058   6.887
56071SOL    HW170110   3.620   7.105   6.931
56071SOL    HW270111   3.564   7.075   6.794
56072SOL     OW70112   3.360  13.853   1.805
56072SOL    HW170113   3.445  13.823   1.838
56072SOL    HW270114   3.309  13.773   1.794
56073SOL     OW70115  10.446  13.887   5.964
56073SOL    HW170116  10.522  13.911   5.911
56073SOL    HW270117  10.479  13.824   6.027
56074SOL     OW70118   5.711  11.898   6.000
56074SOL    HW170119   5.677  11.948   5.926
56074SOL    HW270120   5.662  11.930   6.075
56075SOL     OW70121  13.257   0.655   4.417
56075SOL    HW170122  13.273   0.731   4.361
56075SOL    HW270123  13.164   0.658   4.436
56076SOL     OW70124   0.808  12.811   9.988
56076SOL    HW170125   0.855  12.890  10.014
56076SOL    HW270126   0.736  12.804  10.051
56077SOL     OW70127   0.360   0.746  10.159
56077SOL    HW170128   0.419   0.815  10.126
56077SOL    HW270129   0.337   0.695  10.081
56078SOL     OW70130  11.146   1.216   6.220
56078SOL    HW170131  11.102   1.301   6.211
56078SOL    HW270132  11.233   1.237   6.255
56079SOL     OW70133   4.385  12.217   9.267
56079SOL    HW170134   4.407  12.124   9.263
56079SOL    HW270135   4.382  12.237   9.360
56080SOL     OW70136   0.931   2.970   2.140
56080SOL    HW170137   0.932   2.929   2.053
56080SOL    HW270138   0.986   3.048   2.130
56081SOL     OW70139   4.228   4.880   4.035
56081SOL    HW170140   4.140   4.899   4.001
56081SOL    HW270141   4.288   4.912   3.968
56082SOL     OW70142   5.274   4.617   9.744
56082SOL    HW170143   5.257   4.699   9.698
56082SOL    HW270144   5.279   4.551   9.674
56083SOL     OW70145   3.878   1.341   2.049
56083SOL    HW170146   3.827   1.420   2.034
56083SOL    HW270147   3.906   1.312   1.962
56084SOL     OW70148  14.213   2.875   7.731
56084SOL    HW170149  14.136   2.903   7.681
56084SOL    HW270150  14.182   2.864   7.821
56085SOL     OW70151  12.655   1.590   3.145
56085SOL    HW170152  12.730   1.646   3.166
56085SOL    HW270153  12.581   1.632   3.188
56086SOL     OW70154   4.156   9.539   8.423
56086SOL    HW170155   4.109   9.471   8.471
56086SOL    HW270156   4.189   9.496   8.344
56087SOL     OW70157   8.943   1.235   7.552
56087SOL    HW170158   8.980   1.261   7.636
56087SOL    HW270159   9.018   1.224   7.494
56088SOL     OW70160   0.801   5.591  11.156
56088SOL    HW170161   0.892   5.570  11.135
56088SOL    HW270162   0.756   5.590  11.072
56089SOL     OW70163   4.482   6.997   9.353
56089SOL    HW170164   4.486   6.924   9.291
56089SOL    HW270165   4.451   7.071   9.301
56090SOL     OW70166   4.285   2.388  12.181
56090SOL    HW170167   4.286   2.483  12.184
56090SOL    HW270168   4.325   2.365  12.097
56091SOL     OW70169  13.295  10.657   6.808
56091SOL    HW170170  13.367  10.613   6.764
56091SOL    HW270171  13.291  10.744   6.767
56092SOL     OW70172  10.230   8.810   7.952
56092SOL    HW170173  10.140   8.777   7.952
56092SOL    HW270174  10.236   8.865   8.030
56093SOL     OW70175   1.290   3.062  10.387
56093SOL    HW170176   1.244   3.087  10.468
56093SOL    HW270177   1.225   3.011  10.338
56094SOL     OW70178   8.990   6.519   9.689
56094SOL    HW170179   8.922   6.543   9.751
56094SOL    HW270180   9.004   6.425   9.704
56095SOL     OW70181   4.016  11.157   8.254
56095SOL    HW170182   4.012  11.227   8.188
56095SOL    HW270183   4.085  11.186   8.314
56096SOL     OW70184   8.001   3.043  10.678
56096SOL    HW170185   7.921   3.014  10.723
56096SOL    HW270186   8.003   2.990  10.598
56097SOL     OW70187  10.034   8.151   2.255
56097SOL    HW170188  10.105   8.095   2.225
56097SOL    HW270189  10.076   8.213   2.315
56098SOL     OW70190   6.896  12.397   8.417
56098SOL    HW170191   6.956  12.330   8.449
56098SOL    HW270192   6.943  12.440   8.347
56099SOL     OW70193  13.909   3.454   6.016
56099SOL    HW170194  13.907   3.546   6.040
56099SOL    HW270195  13.890   3.408   6.098
56100SOL     OW70196   7.149   7.159   6.140
56100SOL    HW170197   7.226   7.163   6.084
56100SOL    HW270198   7.181   7.120   6.222
56101SOL     OW70199   0.239   3.796   2.241
56101SOL    HW170200   0.332   3.795   2.262
56101SOL    HW270201   0.201   3.864   2.297
56102SOL     OW70202  12.938   4.153   4.569
56102SOL    HW170203  12.931   4.237   4.522
56102SOL    HW270204  12.923   4.087   4.501
56103SOL     OW70205   4.238   5.679  13.814
56103SOL    HW170206   4.322   5.635  13.803
56103SOL    HW270207   4.258   5.772  13.802
56104SOL     OW70208   8.618   6.847  13.592
56104SOL    HW170209   8.619   6.881  13.503
56104SOL    HW270210   8.679   6.903  13.640
56105SOL     OW70211   5.203   0.040   2.201
56105SOL    HW170212   5.254   0.007   2.275
56105SOL    HW270213   5.117  14.867   2.210
56106SOL     OW70214  13.475   7.421   7.079
56106SOL    HW170215  13.481   7.491   7.143
56106SOL    HW270216  13.416   7.357   7.118
56107SOL     OW70217   8.225   5.607  14.160
56107SOL    HW170218   8.223   5.696  14.124
56107SOL    HW270219   8.284   5.613  14.235
56108SOL     OW70220  10.803   1.250  10.385
56108SOL    HW170221  10.744   1.314  10.425
56108SOL    HW270222  10.843   1.296  10.312
56109SOL     OW70223   0.105  12.341  12.833
56109SOL    HW170224   0.146  12.341  12.919
56109SOL    HW270225   0.165  12.390  12.777
56110SOL     OW70226   9.064   5.842  13.218
56110SOL    HW170227   9.147   5.811  13.254
56110SOL    HW270228   9.038   5.774  13.156
56111SOL     OW70229   7.687  14.581  13.004
56111SOL    HW170230   7.720  14.559  12.917
56111SOL    HW270231   7.593  14.591  12.992
56112SOL     OW70232   3.056  10.644   3.112
56112SOL    HW170233   3.075  10.575   3.176
56112SOL    HW270234   3.016  10.598   3.038
56113SOL     OW70235   1.053   1.508   4.748
56113SOL    HW170236   1.065   1.417   4.772
56113SOL    HW270237   1.069   1.557   4.829
56114SOL     OW70238  14.277  12.920   3.177
56114SOL    HW170239  14.232  12.844   3.213
56114SOL    HW270240  14.209  12.987   3.169
56115SOL     OW70241  13.231   2.969   1.716
56115SOL    HW170242  13.327   2.976   1.721
56115SOL    HW270243  13.207   2.921   1.795
56116SOL     OW70244   8.516  12.351   9.668
56116SOL    HW170245   8.466  12.292   9.725
56116SOL    HW270246   8.565  12.292   9.610
56117SOL     OW70247  10.896   9.819   8.139
56117SOL    HW170248  10.946   9.780   8.211
56117SOL    HW270249  10.861   9.745   8.090
56118SOL     OW70250  14.163   6.188   5.724
56118SOL    HW170251  14.212   6.245   5.783
56118SOL    HW270252  14.230   6.145   5.671
56119SOL     OW70253   2.538   1.494   1.996
56119SOL    HW170254   2.592   1.457   1.927
56119SOL    HW270255   2.542   1.588   1.982
56120SOL     OW70256   6.091   8.429   5.867
56120SOL    HW170257   6.175   8.461   5.834
56120SOL    HW270258   6.060   8.368   5.800
56121SOL     OW70259  13.403  11.597   5.441
56121SOL    HW170260  13.316  11.628   5.466
56121SOL    HW270261  13.411  11.511   5.481
56122SOL     OW70262   2.452  10.741   3.223
56122SOL    HW170263   2.435  10.791   3.303
56122SOL    HW270264   2.432  10.650   3.246
56123SOL     OW70265   8.183  11.239   8.183
56123SOL    HW170266   8.093  11.242   8.215
56123SOL    HW270267   8.237  11.230   8.261
56124SOL     OW70268   8.781   1.316   9.765
56124SOL    HW170269   8.871   1.322   9.733
56124SOL    HW270270   8.759   1.407   9.788
56125SOL     OW70271  13.575   5.657   8.069
56125SOL    HW170272  13.552   5.564   8.077
56125SOL    HW270273  13.503   5.703   8.112
56126SOL     OW70274   3.991   4.820  13.197
56126SOL    HW170275   4.057   4.882  13.167
56126SOL    HW270276   3.937   4.870  13.259
56127SOL     OW70277   8.833   3.297   8.883
56127SOL    HW170278   8.903   3.266   8.827
56127SOL    HW270279   8.875   3.310   8.969
56128SOL     OW70280   1.419   5.938   1.738
56128SOL    HW170281   1.402   5.983   1.821
56128SOL    HW270282   1.334   5.931   1.696
56129SOL     OW70283   3.091   2.591   6.868
56129SOL    HW170284   3.076   2.645   6.790
56129SOL    HW270285   3.031   2.517   6.857
56130SOL     OW70286   8.805  10.733  10.622
56130SOL    HW170287   8.857  10.738  10.542
56130SOL    HW270288   8.765  10.646  10.619
56131SOL     OW70289   8.585  11.125  11.329
56131SOL    HW170290   8.618  11.038  11.310
56131SOL    HW270291   8.513  11.111  11.390
56132SOL     OW70292   3.541   9.321  13.458
56132SOL    HW170293   3.496   9.388  13.406
56132SOL    HW270294   3.573   9.367  13.535
56133SOL     OW70295  10.765  14.303   6.110
56133SOL    HW170296  10.680  14.260   6.106
56133SOL    HW270297  10.810  14.261   6.184
56134SOL     OW70298   8.657  13.233  13.873
56134SOL    HW170299   8.661  13.137  13.877
56134SOL    HW270300   8.608  13.259  13.950
56135SOL     OW70301   6.427   9.740   0.466
56135SOL    HW170302   6.503   9.735   0.409
56135SOL    HW270303   6.403   9.833   0.466
56136SOL     OW70304   1.848  14.758   6.752
56136SOL    HW170305   1.806  14.681   6.790
56136SOL    HW270306   1.873  14.812   6.827
56137SOL     OW70307   7.656   2.905   1.269
56137SOL    HW170308   7.594   2.833   1.277
56137SOL    HW270309   7.737   2.873   1.307
56138SOL     OW70310   4.914  14.016   5.127
56138SOL    HW170311   4.924  13.969   5.044
56138SOL    HW270312   4.856  13.961   5.179
56139SOL     OW70313   3.647  10.523   1.497
56139SOL    HW170314   3.704  10.549   1.424
56139SOL    HW270315   3.637  10.428   1.486
56140SOL     OW70316  13.011   8.371   1.914
56140SOL    HW170317  13.002   8.339   1.824
56140SOL    HW270318  12.935   8.428   1.927
56141SOL     OW70319  11.694   8.160  13.087
56141SOL    HW170320  11.621   8.211  13.123
56141SOL    HW270321  11.655   8.108  13.017
56142SOL     OW70322  10.439   5.795  11.566
56142SOL    HW170323  10.366   5.749  11.525
56142SOL    HW270324  10.419   5.795  11.659
56143SOL     OW70325   4.918   4.964   2.929
56143SOL    HW170326   4.855   4.988   2.861
56143SOL    HW270327   4.865   4.922   2.997
56144SOL     OW70328   6.289   2.073   1.611
56144SOL    HW170329   6.358   2.115   1.560
56144SOL    HW270330   6.243   2.145   1.653
56145SOL     OW70331   9.038  13.537  10.102
56145SOL    HW170332   9.124  13.564  10.135
56145SOL    HW270333   9.005  13.613  10.055
56146SOL     OW70334   0.471   7.307   6.572
56146SOL    HW170335   0.552   7.278   6.615
56146SOL    HW270336   0.431   7.367   6.635
56147SOL     OW70337   5.445   0.769  11.520
56147SOL    HW170338   5.431   0.761  11.426
56147SOL    HW270339   5.518   0.711  11.539
56148SOL     OW70340   7.425  12.099  13.975
56148SOL    HW170341   7.464  12.028  13.924
56148SOL    HW270342   7.397  12.164  13.910
56149SOL     OW70343   5.226  11.550   2.707
56149SOL    HW170344   5.313  11.557   2.747
56149SOL    HW270345   5.244  11.551   2.613
56150SOL     OW70346  10.861   5.739   4.940
56150SOL    HW170347  10.839   5.822   4.984
56150SOL    HW270348  10.934   5.762   4.882
56151SOL     OW70349   4.429   2.443   6.155
56151SOL    HW170350   4.444   2.469   6.065
56151SOL    HW270351   4.495   2.492   6.205
56152SOL     OW70352   7.386  11.475   2.328
56152SOL    HW170353   7.329  11.432   2.265
56152SOL    HW270354   7.475  11.457   2.296
56153SOL     OW70355  13.616   8.604   1.960
56153SOL    HW170356  13.589   8.518   1.992
56153SOL    HW270357  13.543   8.634   1.906
56154SOL     OW70358   6.106   8.993   4.700
56154SOL    HW170359   6.053   8.919   4.669
56154SOL    HW270360   6.045   9.048   4.748
56155SOL     OW70361   8.148  11.423  14.249
56155SOL    HW170362   8.216  11.445  14.186
56155SOL    HW270363   8.089  11.365  14.202
56156SOL     OW70364   2.146  11.531  13.617
56156SOL    HW170365   2.220  11.511  13.559
56156SOL    HW270366   2.166  11.483  13.698
56157SOL     OW70367   7.142   8.717   7.705
56157SOL    HW170368   7.206   8.679   7.645
56157SOL    HW270369   7.084   8.768   7.649
56158SOL     OW70370   4.165  12.768  14.477
56158SOL    HW170371   4.211  12.832  14.531
56158SOL    HW270372   4.163  12.807  14.390
56159SOL     OW70373   8.979  11.613   7.122
56159SOL    HW170374   8.888  11.584   7.118
56159SOL    HW270375   9.030  11.533   7.116
56160SOL     OW70376   7.483  13.294   3.932
56160SOL    HW170377   7.505  13.219   3.876
56160SOL    HW270378   7.437  13.355   3.874
56161SOL     OW70379   3.222   3.873   4.501
56161SOL    HW170380   3.289   3.911   4.557
56161SOL    HW270381   3.152   3.939   4.499
56162SOL     OW70382   1.541   9.774   0.740
56162SOL    HW170383   1.544   9.820   0.656
56162SOL    HW270384   1.500   9.690   0.720
56163SOL     OW70385   9.764   0.488  10.777
56163SOL    HW170386   9.738   0.462  10.689
56163SOL    HW270387   9.683   0.495  10.826
56164SOL     OW70388   9.925  11.213   5.481
56164SOL    HW170389   9.951  11.259   5.401
56164SOL    HW270390   9.971  11.258   5.551
56165SOL     OW70391   4.969   1.158   5.610
56165SOL    HW170392   5.037   1.213   5.572
56165SOL    HW270393   4.959   1.085   5.548
56166SOL     OW70394  13.196   8.183   3.338
56166SOL    HW170395  13.128   8.250   3.347
56166SOL    HW270396  13.274   8.232   3.313
56167SOL     OW70397  14.075   9.485   8.612
56167SOL    HW170398  14.002   9.438   8.571
56167SOL    HW270399  14.109   9.541   8.542
56168SOL     OW70400  11.100   6.006   1.940
56168SOL    HW170401  11.173   6.004   2.002
56168SOL    HW270402  11.022   5.989   1.994
56169SOL     OW70403  11.756   1.545  13.133
56169SOL    HW170404  11.810   1.614  13.171
56169SOL    HW270405  11.708   1.508  13.207
56170SOL     OW70406   7.974   3.218   4.781
56170SOL    HW170407   8.067   3.199   4.783
56170SOL    HW270408   7.935   3.141   4.739
56171SOL     OW70409   8.654   5.076   0.445
56171SOL    HW170410   8.632   4.985   0.427
56171SOL    HW270411   8.740   5.089   0.404
56172SOL     OW70412   6.427   1.699  13.000
56172SOL    HW170413   6.441   1.608  13.025
56172SOL    HW270414   6.343   1.722  13.041
56173SOL     OW70415  10.487   8.375  13.793
56173SOL    HW170416  10.434   8.381  13.713
56173SOL    HW270417  10.542   8.298  13.779
56174SOL     OW70418  12.680   3.939  11.016
56174SOL    HW170419  12.714   3.901  11.097
56174SOL    HW270420  12.697   4.033  11.025
56175SOL     OW70421   1.145   4.571  13.418
56175SOL    HW170422   1.191   4.539  13.496
56175SOL    HW270423   1.054   4.548  13.432
56176SOL     OW70424   2.932   8.859  10.556
56176SOL    HW170425   2.915   8.916  10.630
56176SOL    HW270426   2.881   8.896  10.484
56177SOL     OW70427  11.368   0.997   2.111
56177SOL    HW170428  11.455   1.027   2.138
56177SOL    HW270429  11.382   0.906   2.083
56178SOL     OW70430   8.157   6.055   8.622
56178SOL    HW170431   8.167   6.109   8.701
56178SOL    HW270432   8.066   6.025   8.625
56179SOL     OW70433   9.743   3.069  10.710
56179SOL    HW170434   9.787   3.102  10.788
56179SOL    HW270435   9.704   3.146  10.670
56180SOL     OW70436   8.207  10.750  12.964
56180SOL    HW170437   8.226  10.819  12.900
56180SOL    HW270438   8.115  10.728  12.949
56181SOL     OW70439   4.837  11.469  14.456
56181SOL    HW170440   4.828  11.541  14.393
56181SOL    HW270441   4.780  11.400  14.423
56182SOL     OW70442   1.941  10.874  14.236
56182SOL    HW170443   1.899  10.859  14.152
56182SOL    HW270444   2.028  10.836  14.227
56183SOL     OW70445  11.438   3.700   3.336
56183SOL    HW170446  11.348   3.666   3.332
56183SOL    HW270447  11.459   3.699   3.430
56184SOL     OW70448  13.033   9.228   2.115
56184SOL    HW170449  13.106   9.281   2.146
56184SOL    HW270450  13.067   9.138   2.115
56185SOL     OW70451   6.805  12.067   4.266
56185SOL    HW170452   6.864  12.068   4.341
56185SOL    HW270453   6.816  12.153   4.226
56186SOL     OW70454   2.367   2.994   0.453
56186SOL    HW170455   2.277   2.984   0.425
56186SOL    HW270456   2.405   2.906   0.443
56187SOL     OW70457  11.568   7.445   1.383
56187SOL    HW170458  11.659   7.413   1.390
56187SOL    HW270459  11.574   7.537   1.409
56188SOL     OW70460   7.765   7.766   3.238
56188SOL    HW170461   7.684   7.768   3.187
56188SOL    HW270462   7.792   7.858   3.243
56189SOL     OW70463   6.788   3.843   7.230
56189SOL    HW170464   6.809   3.936   7.228
56189SOL    HW270465   6.767   3.821   7.140
56190SOL     OW70466   2.980   7.244   6.704
56190SOL    HW170467   2.993   7.170   6.644
56190SOL    HW270468   2.899   7.223   6.751
56191SOL     OW70469   5.615   2.872  11.048
56191SOL    HW170470   5.527   2.876  11.085
56191SOL    HW270471   5.622   2.951  10.995
56192SOL     OW70472  11.754  10.153   5.706
56192SOL    HW170473  11.765  10.248   5.705
56192SOL    HW270474  11.690  10.137   5.775
56193SOL     OW70475   6.611   6.178  11.277
56193SOL    HW170476   6.664   6.256  11.259
56193SOL    HW270477   6.672   6.104  11.264
56194SOL     OW70478   1.592  14.648   8.178
56194SOL    HW170479   1.527  14.714   8.152
56194SOL    HW270480   1.565  14.623   8.266
56195SOL     OW70481   8.704  14.207   4.363
56195SOL    HW170482   8.697  14.289   4.411
56195SOL    HW270483   8.776  14.160   4.406
56196SOL     OW70484   5.662   2.795   8.917
56196SOL    HW170485   5.754   2.807   8.939
56196SOL    HW270486   5.625   2.883   8.914
56197SOL     OW70487   4.861   3.955   3.623
56197SOL    HW170488   4.899   4.043   3.618
56197SOL    HW270489   4.782   3.966   3.676
56198SOL     OW70490  12.187   4.198   2.147
56198SOL    HW170491  12.210   4.209   2.239
56198SOL    HW270492  12.100   4.237   2.140
56199SOL     OW70493  10.303   1.196   5.522
56199SOL    HW170494  10.374   1.236   5.572
56199SOL    HW270495  10.233   1.182   5.585
56200SOL     OW70496   1.760   0.442   5.800
56200SOL    HW170497   1.770   0.462   5.893
56200SOL    HW270498   1.669   0.415   5.791
56201SOL     OW70499   0.111   0.606   2.958
56201SOL    HW170500   0.060   0.525   2.950
56201SOL    HW270501   0.047   0.671   2.986
56202SOL     OW70502   8.339   1.084  13.786
56202SOL    HW170503   8.308   1.030  13.713
56202SOL    HW270504   8.431   1.103  13.764
56203SOL     OW70505   5.022   1.274   9.480
56203SOL    HW170506   4.931   1.279   9.448
56203SOL    HW270507   5.022   1.323   9.562
56204SOL     OW70508   8.920   1.016   6.223
56204SOL    HW170509   8.861   1.067   6.167
56204SOL    HW270510   8.870   1.002   6.304
56205SOL     OW70511   4.062   5.062   9.639
56205SOL    HW170512   4.150   5.023   9.644
56205SOL    HW270513   4.017   5.010   9.572
56206SOL     OW70514  14.270   7.276  11.882
56206SOL    HW170515  14.299   7.356  11.838
56206SOL    HW270516  14.347   7.219  11.879
56207SOL     OW70517  12.206  14.639   4.425
56207SOL    HW170518  12.302  14.635   4.428
56207SOL    HW270519  12.187  14.725   4.388
56208SOL     OW70520   7.517  11.126   0.018
56208SOL    HW170521   7.436  11.157  14.848
56208SOL    HW270522   7.560  11.204   0.053
56209SOL     OW70523   8.801  14.045   5.666
56209SOL    HW170524   8.851  14.115   5.709
56209SOL    HW270525   8.841  14.037   5.579
56210SOL     OW70526   7.596   3.844  14.567
56210SOL    HW170527   7.535   3.785  14.523
56210SOL    HW270528   7.558   3.856  14.655
56211SOL     OW70529   4.779  13.834  11.577
56211SOL    HW170530   4.743  13.912  11.620
56211SOL    HW270531   4.726  13.823  11.499
56212SOL     OW70532   9.979   7.863   0.590
56212SOL    HW170533   9.903   7.922   0.594
56212SOL    HW270534  10.049   7.917   0.554
56213SOL     OW70535  14.393   9.764  13.529
56213SOL    HW170536  14.390   9.725  13.616
56213SOL    HW270537  14.455   9.837  13.538
56214SOL     OW70538   0.716  12.208   0.356
56214SOL    HW170539   0.737  12.123   0.317
56214SOL    HW270540   0.694  12.187   0.447
56215SOL     OW70541  11.979   6.919  13.267
56215SOL    HW170542  12.005   6.882  13.183
56215SOL    HW270543  11.901   6.971  13.248
56216SOL     OW70544   0.133   8.486   4.403
56216SOL    HW170545   0.050   8.535   4.403
56216SOL    HW270546   0.106   8.395   4.409
56217SOL     OW70547  12.567   2.833   9.504
56217SOL    HW170548  12.515   2.912   9.489
56217SOL    HW270549  12.572   2.826   9.600
56218SOL     OW70550   0.674   6.386   2.549
56218SOL    HW170551   0.704   6.474   2.573
56218SOL    HW270552   0.683   6.335   2.630
56219SOL     OW70553   4.916  12.771   9.049
56219SOL    HW170554   4.980  12.780   9.119
56219SOL    HW270555   4.899  12.861   9.020
56220SOL     OW70556   6.718  10.505  11.970
56220SOL    HW170557   6.751  10.453  12.044
56220SOL    HW270558   6.795  10.551  11.937
56221SOL     OW70559   6.479   3.379   1.119
56221SOL    HW170560   6.386   3.365   1.136
56221SOL    HW270561   6.523   3.349   1.199
56222SOL     OW70562   1.726  12.059  12.902
56222SOL    HW170563   1.733  12.133  12.963
56222SOL    HW270564   1.710  12.100  12.817
56223SOL     OW70565   5.843   4.648  14.467
56223SOL    HW170566   5.816   4.616  14.381
56223SOL    HW270567   5.921   4.596  14.489
56224SOL     OW70568   7.143   0.846   0.554
56224SOL    HW170569   7.222   0.794   0.566
56224SOL    HW270570   7.139   0.902   0.632
56225SOL     OW70571  14.283  11.231   9.438
56225SOL    HW170572  14.372  11.195   9.434
56225SOL    HW270573  14.288  11.314   9.390
56226SOL     OW70574   6.214  13.849   6.380
56226SOL    HW170575   6.139  13.834   6.437
56226SOL    HW270576   6.281  13.886   6.437
56227SOL     OW70577   2.267   8.420  11.507
56227SOL    HW170578   2.328   8.359  11.466
56227SOL    HW270579   2.207   8.364  11.557
56228SOL     OW70580   0.097   0.826  10.174
56228SOL    HW170581   0.181   0.818  10.220
56228SOL    HW270582   0.120   0.865  10.089
56229SOL     OW70583   7.742  12.112   5.163
56229SOL    HW170584   7.829  12.151   5.159
56229SOL    HW270585   7.726  12.096   5.256
56230SOL     OW70586  12.305   9.599  11.685
56230SOL    HW170587  12.297   9.685  11.644
56230SOL    HW270588  12.238   9.546  11.643
56231SOL     OW70589   6.275   2.506   4.214
56231SOL    HW170590   6.342   2.574   4.215
56231SOL    HW270591   6.195   2.551   4.242
56232SOL     OW70592  11.559   8.393  12.675
56232SOL    HW170593  11.549   8.394  12.579
56232SOL    HW270594  11.472   8.374  12.708
56233SOL     OW70595  12.575   3.459   1.452
56233SOL    HW170596  12.485   3.426   1.447
56233SOL    HW270597  12.628   3.380   1.464
56234SOL     OW70598  14.608   7.223  10.369
56234SOL    HW170599  14.662   7.230  10.448
56234SOL    HW270600  14.563   7.140  10.378
56235SOL     OW70601  11.975   7.081   6.142
56235SOL    HW170602  11.950   7.064   6.051
56235SOL    HW270603  11.997   6.994   6.177
56236SOL     OW70604   2.994   4.654   4.517
56236SOL    HW170605   2.917   4.646   4.573
56236SOL    HW270606   3.067   4.623   4.570
56237SOL     OW70607   8.051   7.327  12.768
56237SOL    HW170608   8.114   7.396  12.746
56237SOL    HW270609   8.067   7.310  12.861
56238SOL     OW70610   6.390  14.347  13.298
56238SOL    HW170611   6.370  14.349  13.391
56238SOL    HW270612   6.485  14.344  13.293
56239SOL     OW70613  12.367  10.205  11.982
56239SOL    HW170614  12.374  10.110  11.980
56239SOL    HW270615  12.289  10.223  12.033
56240SOL     OW70616   4.701   3.467   4.895
56240SOL    HW170617   4.724   3.375   4.881
56240SOL    HW270618   4.731   3.485   4.984
56241SOL     OW70619  11.959   7.123  12.594
56241SOL    HW170620  11.941   7.071  12.516
56241SOL    HW270621  12.048   7.157  12.580
56242SOL     OW70622  11.330  14.376   2.412
56242SOL    HW170623  11.334  14.452   2.354
56242SOL    HW270624  11.359  14.302   2.358
56243SOL     OW70625   5.533  11.669   6.271
56243SOL    HW170626   5.561  11.581   6.245
56243SOL    HW270627   5.549  11.673   6.366
56244SOL     OW70628   0.709  10.907  14.864
56244SOL    HW170629   0.706  10.968  14.791
56244SOL    HW270630   0.631  10.852  14.853
56245SOL     OW70631   5.809   6.750   4.613
56245SOL    HW170632   5.858   6.832   4.622
56245SOL    HW270633   5.860   6.687   4.664
56246SOL     OW70634  12.041   0.660  10.949
56246SOL    HW170635  11.957   0.697  10.922
56246SOL    HW270636  12.081   0.630  10.867
56247SOL     OW70637   2.092   1.510   8.087
56247SOL    HW170638   2.168   1.507   8.029
56247SOL    HW270639   2.094   1.598   8.124
56248SOL     OW70640  10.356   2.999  11.558
56248SOL    HW170641  10.403   3.078  11.586
56248SOL    HW270642  10.264   3.024  11.559
56249SOL     OW70643  12.895   5.095   8.203
56249SOL    HW170644  12.946   5.120   8.126
56249SOL    HW270645  12.901   4.999   8.205
56250SOL     OW70646   7.484   7.756   0.317
56250SOL    HW170647   7.535   7.819   0.266
56250SOL    HW270648   7.412   7.731   0.258
56251SOL     OW70649   0.635  13.314   1.946
56251SOL    HW170650   0.685  13.257   2.004
56251SOL    HW270651   0.640  13.271   1.860
56252SOL     OW70652   6.503   2.543  14.397
56252SOL    HW170653   6.535   2.512  14.313
56252SOL    HW270654   6.581   2.551  14.452
56253SOL     OW70655  14.180   1.512   3.408
56253SOL    HW170656  14.128   1.500   3.488
56253SOL    HW270657  14.221   1.597   3.419
56254SOL     OW70658   6.654   8.433   7.819
56254SOL    HW170659   6.678   8.400   7.905
56254SOL    HW270660   6.582   8.494   7.836
56255SOL     OW70661  12.383   1.808   6.631
56255SOL    HW170662  12.385   1.878   6.696
56255SOL    HW270663  12.383   1.728   6.684
56256SOL     OW70664   5.192   1.778   2.264
56256SOL    HW170665   5.285   1.803   2.265
56256SOL    HW270666   5.165   1.785   2.355
56257SOL     OW70667   7.680   7.140   3.954
56257SOL    HW170668   7.752   7.077   3.968
56257SOL    HW270669   7.680   7.195   4.033
56258SOL     OW70670   2.034   6.969  11.743
56258SOL    HW170671   2.124   6.997  11.758
56258SOL    HW270672   2.034   6.876  11.764
56259SOL     OW70673   9.929   5.941  11.173
56259SOL    HW170674   9.886   5.861  11.204
56259SOL    HW270675   9.857   5.994  11.137
56260SOL     OW70676  10.841   5.259  10.724
56260SOL    HW170677  10.867   5.297  10.808
56260SOL    HW270678  10.786   5.184  10.748
56261SOL     OW70679   4.790  13.273  12.344
56261SOL    HW170680   4.768  13.237  12.258
56261SOL    HW270681   4.878  13.241  12.362
56262SOL     OW70682   1.698   9.456   4.816
56262SOL    HW170683   1.750   9.536   4.809
56262SOL    HW270684   1.618   9.482   4.861
56263SOL     OW70685   8.617  11.798   2.037
56263SOL    HW170686   8.620  11.720   2.093
56263SOL    HW270687   8.564  11.772   1.962
56264SOL     OW70688   4.338   6.634   1.616
56264SOL    HW170689   4.267   6.639   1.552
56264SOL    HW270690   4.310   6.692   1.687
56265SOL     OW70691  10.862   2.790   9.336
56265SOL    HW170692  10.918   2.827   9.404
56265SOL    HW270693  10.853   2.859   9.271
56266SOL     OW70694   9.092   6.856  10.219
56266SOL    HW170695   9.124   6.848  10.309
56266SOL    HW270696   9.165   6.895  10.171
56267SOL     OW70697   3.917   3.363  13.070
56267SOL    HW170698   3.827   3.340  13.092
56267SOL    HW270699   3.915   3.378  12.976
56268SOL     OW70700  14.858   5.748   6.593
56268SOL    HW170701  14.868   5.843   6.582
56268SOL    HW270702  14.827   5.737   6.683
56269SOL     OW70703   0.118  13.318   0.287
56269SOL    HW170704   0.144  13.226   0.278
56269SOL    HW270705   0.059  13.333   0.213
56270SOL     OW70706  14.857  10.551   4.967
56270SOL    HW170707  14.784  10.575   4.908
56270SOL    HW270708  14.814  10.511   5.042
56271SOL     OW70709   3.359   1.285   5.156
56271SOL    HW170710   3.391   1.330   5.078
56271SOL    HW270711   3.278   1.331   5.179
56272SOL     OW70712   6.229   1.215   8.878
56272SOL    HW170713   6.181   1.275   8.934
56272SOL    HW270714   6.307   1.263   8.851
56273SOL     OW70715  11.525   8.051   0.245
56273SOL    HW170716  11.465   7.977   0.255
56273SOL    HW270717  11.595   8.035   0.308
56274SOL     OW70718   8.230   2.573  12.920
56274SOL    HW170719   8.233   2.505  12.853
56274SOL    HW270720   8.137   2.587  12.936
56275SOL     OW70721   9.463   1.740  11.165
56275SOL    HW170722   9.481   1.747  11.072
56275SOL    HW270723   9.515   1.810  11.205
56276SOL     OW70724  14.076   3.830  14.832
56276SOL    HW170725  14.038   3.837  14.745
56276SOL    HW270726  14.166   3.800  14.817
56277SOL     OW70727   6.640  11.711   1.157
56277SOL    HW170728   6.688  11.774   1.211
56277SOL    HW270729   6.579  11.765   1.106
56278SOL     OW70730   6.176   2.027   1.997
56278SOL    HW170731   6.178   1.950   1.940
56278SOL    HW270732   6.112   2.006   2.065
56279SOL     OW70733  13.586   4.030   9.344
56279SOL    HW170734  13.597   3.974   9.267
56279SOL    HW270735  13.496   4.062   9.338
56280SOL     OW70736  13.788   9.636  12.850
56280SOL    HW170737  13.717   9.622  12.913
56280SOL    HW270738  13.743   9.650  12.767
56281SOL     OW70739   4.168   8.362   3.424
56281SOL    HW170740   4.145   8.399   3.339
56281SOL    HW270741   4.229   8.291   3.404
56282SOL     OW70742   3.717   2.210   2.266
56282SOL    HW170743   3.729   2.266   2.190
56282SOL    HW270744   3.654   2.257   2.321
56283SOL     OW70745   3.670  10.123   2.214
56283SOL    HW170746   3.736  10.072   2.262
56283SOL    HW270747   3.692  10.110   2.122
56284SOL     OW70748   8.971   4.074  13.447
56284SOL    HW170749   8.899   4.088  13.386
56284SOL    HW270750   9.017   4.159  13.451
56285SOL     OW70751  11.335   0.475   9.359
56285SOL    HW170752  11.252   0.432   9.382
56285SOL    HW270753  11.312   0.567   9.350
56286SOL     OW70754   6.665   3.936  14.066
56286SOL    HW170755   6.590   3.967  14.117
56286SOL    HW270756   6.639   3.952  13.975
56287SOL     OW70757   3.409   9.530  10.136
56287SOL    HW170758   3.363   9.547  10.054
56287SOL    HW270759   3.393   9.608  10.189
56288SOL     OW70760   5.564   6.227   0.212
56288SOL    HW170761   5.525   6.155   0.161
56288SOL    HW270762   5.489   6.275   0.247
56289SOL     OW70763   4.619  11.629   4.074
56289SOL    HW170764   4.579  11.554   4.029
56289SOL    HW270765   4.668  11.590   4.146
56290SOL     OW70766   6.832   0.281  11.517
56290SOL    HW170767   6.845   0.212  11.583
56290SOL    HW270768   6.737   0.298  11.519
56291SOL     OW70769   7.981   0.188  14.325
56291SOL    HW170770   8.073   0.210  14.309
56291SOL    HW270771   7.981   0.092  14.332
56292SOL     OW70772   4.547   1.019   2.521
56292SOL    HW170773   4.517   1.050   2.606
56292SOL    HW270774   4.573   1.098   2.474
56293SOL     OW70775   3.026  13.571  14.175
56293SOL    HW170776   3.014  13.523  14.093
56293SOL    HW270777   2.997  13.660  14.155
56294SOL     OW70778   4.112   4.745   4.797
56294SOL    HW170779   4.036   4.728   4.852
56294SOL    HW270780   4.089   4.708   4.712
56295SOL     OW70781   1.880   7.230   6.138
56295SOL    HW170782   1.930   7.311   6.147
56295SOL    HW270783   1.797   7.248   6.182
56296SOL     OW70784   1.041   3.909  13.135
56296SOL    HW170785   1.108   3.970  13.167
56296SOL    HW270786   1.052   3.910  13.040
56297SOL     OW70787   5.826  13.103  12.858
56297SOL    HW170788   5.823  13.007  12.852
56297SOL    HW270789   5.783  13.123  12.941
56298SOL     OW70790  13.688   1.453   0.487
56298SOL    HW170791  13.677   1.430   0.395
56298SOL    HW270792  13.615   1.512   0.505
56299SOL     OW70793   4.907   2.475   2.533
56299SOL    HW170794   4.868   2.440   2.613
56299SOL    HW270795   4.851   2.443   2.462
56300SOL     OW70796   2.525   4.086   6.738
56300SOL    HW170797   2.489   4.064   6.824
56300SOL    HW270798   2.606   4.034   6.733
56301SOL     OW70799   9.366  12.920   8.233
56301SOL    HW170800   9.319  13.001   8.213
56301SOL    HW270801   9.354  12.907   8.327
56302SOL     OW70802  14.491   2.354   7.876
56302SOL    HW170803  14.580   2.381   7.900
56302SOL    HW270804  14.441   2.363   7.957
56303SOL     OW70805   3.514   9.171   3.332
56303SOL    HW170806   3.427   9.199   3.358
56303SOL    HW270807   3.546   9.240   3.274
56304SOL     OW70808   1.210   4.534   1.629
56304SOL    HW170809   1.294   4.533   1.675
56304SOL    HW270810   1.183   4.626   1.630
56305SOL     OW70811   2.686  11.356   8.782
56305SOL    HW170812   2.625  11.329   8.850
56305SOL    HW270813   2.752  11.286   8.779
56306SOL     OW70814   3.310   0.047  11.620
56306SOL    HW170815   3.278  14.829  11.642
56306SOL    HW270816   3.334   0.041  11.527
56307SOL     OW70817   1.247   4.599   2.559
56307SOL    HW170818   1.160   4.567   2.581
56307SOL    HW270819   1.305   4.556   2.621
56308SOL     OW70820   0.464  11.147  13.187
56308SOL    HW170821   0.405  11.099  13.244
56308SOL    HW270822   0.491  11.224  13.239
56309SOL     OW70823   9.792  12.841  12.245
56309SOL    HW170824   9.816  12.820  12.335
56309SOL    HW270825   9.699  12.817  12.239
56310SOL     OW70826  14.743   3.978   0.943
56310SOL    HW170827  14.717   4.036   1.014
56310SOL    HW270828  14.688   4.004   0.870
56311SOL     OW70829   4.687   6.549  13.895
56311SOL    HW170830   4.742   6.568  13.971
56311SOL    HW270831   4.631   6.477  13.924
56312SOL     OW70832  10.232  10.502   1.868
56312SOL    HW170833  10.289  10.576   1.848
56312SOL    HW270834  10.145  10.532   1.842
56313SOL     OW70835   5.762  14.119   8.937
56313SOL    HW170836   5.814  14.141   8.859
56313SOL    HW270837   5.782  14.189   8.999
56314SOL     OW70838  12.976   2.489   9.974
56314SOL    HW170839  12.883   2.473   9.958
56314SOL    HW270840  12.981   2.582   9.996
56315SOL     OW70841   2.435  12.663   4.321
56315SOL    HW170842   2.457  12.594   4.384
56315SOL    HW270843   2.474  12.633   4.239
56316SOL     OW70844   4.048   3.906   0.824
56316SOL    HW170845   4.063   3.984   0.771
56316SOL    HW270846   4.113   3.912   0.894
56317SOL     OW70847  13.478  11.028   8.345
56317SOL    HW170848  13.477  11.081   8.425
56317SOL    HW270849  13.543  11.070   8.289
56318SOL     OW70850   0.050   9.196  14.429
56318SOL    HW170851   0.141   9.217  14.452
56318SOL    HW270852   0.001   9.210  14.510
56319SOL     OW70853   7.264   2.593   3.673
56319SOL    HW170854   7.305   2.530   3.731
56319SOL    HW270855   7.208   2.646   3.730
56320SOL     OW70856   1.997  10.386  11.372
56320SOL    HW170857   1.988  10.420  11.284
56320SOL    HW270858   2.087  10.409  11.398
56321SOL     OW70859   3.316   6.926   1.069
56321SOL    HW170860   3.274   6.872   1.136
56321SOL    HW270861   3.382   6.869   1.030
56322SOL     OW70862  10.233   7.172   1.625
56322SOL    HW170863  10.257   7.134   1.541
56322SOL    HW270864  10.299   7.141   1.686
56323SOL     OW70865   2.621   3.481  11.670
56323SOL    HW170866   2.584   3.451  11.587
56323SOL    HW270867   2.677   3.555  11.646
56324SOL     OW70868   1.323  11.716  12.710
56324SOL    HW170869   1.278  11.677  12.634
56324SOL    HW270870   1.381  11.647  12.742
56325SOL     OW70871  12.504   5.208   1.533
56325SOL    HW170872  12.549   5.260   1.466
56325SOL    HW270873  12.444   5.152   1.484
56326SOL     OW70874   6.073   9.551   8.623
56326SOL    HW170875   6.099   9.481   8.563
56326SOL    HW270876   5.979   9.557   8.613
56327SOL     OW70877  13.043  12.793  12.614
56327SOL    HW170878  13.064  12.758  12.527
56327SOL    HW270879  12.960  12.838  12.601
56328SOL     OW70880   7.607   0.304   5.783
56328SOL    HW170881   7.701   0.313   5.766
56328SOL    HW270882   7.599   0.314   5.878
56329SOL     OW70883  13.613   4.129   8.231
56329SOL    HW170884  13.647   4.169   8.312
56329SOL    HW270885  13.548   4.065   8.262
56330SOL     OW70886   0.874  13.788   3.103
56330SOL    HW170887   0.932  13.721   3.065
56330SOL    HW270888   0.847  13.751   3.187
56331SOL     OW70889   1.080   2.213   9.656
56331SOL    HW170890   1.116   2.281   9.600
56331SOL    HW270891   1.008   2.175   9.606
56332SOL     OW70892   9.614   7.650  14.023
56332SOL    HW170893   9.705   7.626  14.007
56332SOL    HW270894   9.584   7.588  14.090
56333SOL     OW70895   7.246  10.499   4.999
56333SOL    HW170896   7.318  10.472   4.943
56333SOL    HW270897   7.215  10.582   4.961
56334SOL     OW70898   5.968  14.267   2.856
56334SOL    HW170899   5.875  14.246   2.862
56334SOL    HW270900   6.006  14.195   2.806
56335SOL     OW70901   9.241   9.417   7.020
56335SOL    HW170902   9.289   9.394   6.940
56335SOL    HW270903   9.174   9.479   6.992
56336SOL     OW70904   5.296  13.326   6.833
56336SOL    HW170905   5.250  13.408   6.813
56336SOL    HW270906   5.284  13.272   6.755
56337SOL     OW70907   7.206  11.164  10.274
56337SOL    HW170908   7.240  11.245  10.236
56337SOL    HW270909   7.210  11.179  10.369
56338SOL     OW70910  10.699   0.327  12.247
56338SOL    HW170911  10.623   0.369  12.287
56338SOL    HW270912  10.740   0.396  12.195
56339SOL     OW70913   8.582   9.993   9.566
56339SOL    HW170914   8.594  10.088   9.557
56339SOL    HW270915   8.599   9.976   9.659
56340SOL     OW70916  14.176   7.467   9.473
56340SOL    HW170917  14.130   7.498   9.396
56340SOL    HW270918  14.250   7.527   9.483
56341SOL     OW70919  10.756   2.205   9.459
56341SOL    HW170920  10.829   2.160   9.501
56341SOL    HW270921  10.679   2.182   9.512
56342SOL     OW70922   7.758   6.940   8.249
56342SOL    HW170923   7.734   6.864   8.196
56342SOL    HW270924   7.853   6.933   8.260
56343SOL     OW70925   6.611   1.545   6.983
56343SOL    HW170926   6.611   1.605   7.057
56343SOL    HW270927   6.524   1.506   6.984
56344SOL     OW70928   1.541  12.960   4.417
56344SOL    HW170929   1.516  12.869   4.403
56344SOL    HW270930   1.573  12.963   4.507
56345SOL     OW70931   6.252  10.316   5.873
56345SOL    HW170932   6.304  10.390   5.905
56345SOL    HW270933   6.275  10.307   5.781
56346SOL     OW70934  13.460   9.857   1.761
56346SOL    HW170935  13.394   9.798   1.798
56346SOL    HW270936  13.417   9.895   1.684
56347SOL     OW70937  14.636   0.501   6.141
56347SOL    HW170938  14.728   0.489   6.164
56347SOL    HW270939  14.625   0.596   6.135
56348SOL     OW70940   5.027  10.479   5.420
56348SOL    HW170941   4.989  10.546   5.476
56348SOL    HW270942   5.113  10.462   5.458
56349SOL     OW70943   3.875  13.920   3.097
56349SOL    HW170944   3.924  13.932   3.016
56349SOL    HW270945   3.942  13.905   3.164
56350SOL     OW70946   6.788   4.804   4.782
56350SOL    HW170947   6.765   4.738   4.848
56350SOL    HW270948   6.799   4.885   4.833
56351SOL     OW70949   8.167  10.119  11.355
56351SOL    HW170950   8.237  10.064  11.390
56351SOL    HW270951   8.087  10.068  11.369
56352SOL     OW70952  10.526  14.353   3.323
56352SOL    HW170953  10.606  14.318   3.362
56352SOL    HW270954  10.492  14.415   3.388
56353SOL     OW70955   3.399   0.444   2.727
56353SOL    HW170956   3.346   0.523   2.742
56353SOL    HW270957   3.336   0.372   2.728
56354SOL     OW70958   2.365   1.082   4.641
56354SOL    HW170959   2.272   1.074   4.664
56354SOL    HW270960   2.374   1.172   4.611
56355SOL     OW70961  14.752   1.858   0.157
56355SOL    HW170962  14.751   1.812   0.241
56355SOL    HW270963  14.676   1.917   0.160
56356SOL     OW70964  12.340   2.623   9.277
56356SOL    HW170965  12.409   2.566   9.311
56356SOL    HW270966  12.295   2.569   9.211
56357SOL     OW70967   8.380   7.494   4.390
56357SOL    HW170968   8.355   7.568   4.335
56357SOL    HW270969   8.454   7.526   4.441
56358SOL     OW70970   2.661   4.857  12.997
56358SOL    HW170971   2.645   4.950  13.009
56358SOL    HW270972   2.744   4.853  12.949
56359SOL     OW70973   0.277  12.106   6.413
56359SOL    HW170974   0.208  12.066   6.359
56359SOL    HW270975   0.231  12.134   6.492
56360SOL     OW70976   3.020   4.903   8.986
56360SOL    HW170977   2.946   4.853   8.952
56360SOL    HW270978   3.007   4.992   8.953
56361SOL     OW70979   4.973  12.364  13.073
56361SOL    HW170980   4.933  12.404  12.996
56361SOL    HW270981   5.048  12.316  13.038
56362SOL     OW70982  11.251  12.258  13.732
56362SOL    HW170983  11.245  12.353  13.745
56362SOL    HW270984  11.159  12.230  13.724
56363SOL     OW70985   5.476   7.420   5.453
56363SOL    HW170986   5.438   7.332   5.456
56363SOL    HW270987   5.402   7.478   5.469
56364SOL     OW70988   4.022   2.825   3.060
56364SOL    HW170989   4.011   2.852   3.151
56364SOL    HW270990   3.939   2.782   3.037
56365SOL     OW70991  13.562  10.715   6.700
56365SOL    HW170992  13.582  10.703   6.607
56365SOL    HW270993  13.615  10.649   6.745
56366SOL     OW70994   5.921  11.811  12.654
56366SOL    HW170995   5.848  11.801  12.715
56366SOL    HW270996   5.993  11.845  12.708
56367SOL     OW70997  14.391   1.168   1.917
56367SOL    HW170998  14.365   1.094   1.971
56367SOL    HW270999  14.407   1.130   1.831
56368SOL     OW71000   1.325  13.986   4.905
56368SOL    HW171001   1.257  14.043   4.869
56368SOL    HW271002   1.403  14.041   4.911
56369SOL     OW71003   4.532  12.378  11.027
56369SOL    HW171004   4.536  12.291  10.988
56369SOL    HW271005   4.547  12.438  10.953
56370SOL     OW71006  14.760   7.568   6.412
56370SOL    HW171007  14.671   7.547   6.440
56370SOL    HW271008  14.808   7.580   6.494
56371SOL     OW71009  13.394   9.134  12.243
56371SOL    HW171010  13.384   9.141  12.148
56371SOL    HW271011  13.308   9.107  12.274
56372SOL     OW71012   8.621   3.036   1.024
56372SOL    HW171013   8.634   3.019   0.931
56372SOL    HW271014   8.634   2.950   1.066
56373SOL     OW71015   2.667  13.153   1.516
56373SOL    HW171016   2.666  13.248   1.526
56373SOL    HW271017   2.701  13.120   1.599
56374SOL     OW71018   8.350  12.007  12.585
56374SOL    HW171019   8.379  12.013  12.494
56374SOL    HW271020   8.297  11.928  12.589
56375SOL     OW71021   3.782  13.114  10.037
56375SOL    HW171022   3.826  13.191  10.000
56375SOL    HW271023   3.708  13.151  10.086
56376SOL     OW71024   0.861  11.132   6.760
56376SOL    HW171025   0.849  11.040   6.738
56376SOL    HW271026   0.820  11.142   6.846
56377SOL     OW71027  11.160  13.655  11.341
56377SOL    HW171028  11.171  13.653  11.436
56377SOL    HW271029  11.245  13.630  11.306
56378SOL     OW71030   2.979   2.822   3.272
56378SOL    HW171031   3.042   2.847   3.204
56378SOL    HW271032   3.033   2.809   3.350
56379SOL     OW71033   3.464   4.075  12.772
56379SOL    HW171034   3.369   4.081  12.765
56379SOL    HW271035   3.490   4.157  12.813
56380SOL     OW71036   7.954   1.735  13.741
56380SOL    HW171037   7.888   1.767  13.803
56380SOL    HW271038   7.961   1.804  13.675
56381SOL     OW71039  11.029   0.339   2.431
56381SOL    HW171040  11.057   0.296   2.350
56381SOL    HW271041  11.110   0.368   2.472
56382SOL     OW71042  14.540  13.589   5.729
56382SOL    HW171043  14.493  13.672   5.737
56382SOL    HW271044  14.615  13.609   5.673
56383SOL     OW71045   2.948   9.888   2.850
56383SOL    HW171046   3.036   9.864   2.876
56383SOL    HW271047   2.898   9.806   2.854
56384SOL     OW71048   6.896   4.315   0.529
56384SOL    HW171049   6.924   4.284   0.615
56384SOL    HW271050   6.977   4.338   0.483
56385SOL     OW71051   4.467   7.467   1.862
56385SOL    HW171052   4.476   7.463   1.957
56385SOL    HW271053   4.499   7.554   1.838
56386SOL     OW71054   8.361  11.255  11.503
56386SOL    HW171055   8.395  11.250  11.593
56386SOL    HW271056   8.274  11.217  11.508
56387SOL     OW71057  11.129   2.483  14.064
56387SOL    HW171058  11.142   2.420  13.993
56387SOL    HW271059  11.045   2.524  14.045
56388SOL     OW71060   1.512   4.940  12.023
56388SOL    HW171061   1.417   4.928  12.014
56388SOL    HW271062   1.536   4.998  11.950
56389SOL     OW71063  14.422   6.696   1.324
56389SOL    HW171064  14.330   6.688   1.348
56389SOL    HW271065  14.463   6.617   1.359
56390SOL     OW71066   8.941   2.873   3.576
56390SOL    HW171067   8.939   2.804   3.643
56390SOL    HW271068   9.000   2.840   3.508
56391SOL     OW71069   4.159  10.842   3.173
56391SOL    HW171070   4.117  10.895   3.106
56391SOL    HW271071   4.150  10.752   3.142
56392SOL     OW71072   3.417  14.230   0.972
56392SOL    HW171073   3.492  14.203   0.920
56392SOL    HW271074   3.361  14.279   0.910
56393SOL     OW71075   7.928   2.687   0.018
56393SOL    HW171076   7.945   2.594  14.869
56393SOL    HW271077   7.903   2.724  14.802
56394SOL     OW71078   2.273   6.421   8.875
56394SOL    HW171079   2.321   6.433   8.793
56394SOL    HW271080   2.283   6.504   8.922
56395SOL     OW71081  11.185   6.291  14.273
56395SOL    HW171082  11.183   6.319  14.364
56395SOL    HW271083  11.175   6.371  14.222
56396SOL     OW71084   0.018   0.350   5.394
56396SOL    HW171085   0.018   0.313   5.306
56396SOL    HW271086  14.829   0.425   5.389
56397SOL     OW71087  12.442   9.965   7.281
56397SOL    HW171088  12.516   9.974   7.341
56397SOL    HW271089  12.390  10.043   7.295
56398SOL     OW71090   4.729   3.378   9.658
56398SOL    HW171091   4.715   3.432   9.736
56398SOL    HW271092   4.736   3.288   9.692
56399SOL     OW71093   6.031   3.599   2.571
56399SOL    HW171094   6.010   3.692   2.582
56399SOL    HW271095   5.950   3.560   2.537
56400SOL     OW71096   1.622  10.170  13.176
56400SOL    HW171097   1.548  10.111  13.164
56400SOL    HW271098   1.603  10.215  13.258
56401SOL     OW71099  10.554   1.624   8.687
56401SOL    HW171100  10.524   1.706   8.648
56401SOL    HW271101  10.599   1.579   8.616
56402SOL     OW71102  13.637  11.014  10.087
56402SOL    HW171103  13.657  11.077  10.017
56402SOL    HW271104  13.633  10.929  10.042
56403SOL     OW71105   8.165   3.073   7.858
56403SOL    HW171106   8.142   3.066   7.765
56403SOL    HW271107   8.162   3.166   7.877
56404SOL     OW71108   5.001  13.313   0.728
56404SOL    HW171109   4.945  13.236   0.740
56404SOL    HW271110   5.081  13.292   0.777
56405SOL     OW71111   6.585  13.485   0.155
56405SOL    HW171112   6.678  13.466   0.166
56405SOL    HW271113   6.561  13.535   0.233
56406SOL     OW71114   2.808   7.039  13.365
56406SOL    HW171115   2.805   7.129  13.398
56406SOL    HW271116   2.870   6.995  13.423
56407SOL     OW71117  11.832   1.724   3.880
56407SOL    HW171118  11.775   1.772   3.940
56407SOL    HW271119  11.913   1.709   3.930
56408SOL     OW71120   8.487   3.034   8.414
56408SOL    HW171121   8.568   2.982   8.417
56408SOL    HW271122   8.432   2.987   8.352
56409SOL     OW71123   4.037   0.846  13.362
56409SOL    HW171124   3.956   0.821  13.407
56409SOL    HW271125   4.093   0.768  13.369
56410SOL     OW71126  10.824   5.906   4.186
56410SOL    HW171127  10.789   5.875   4.269
56410SOL    HW271128  10.749   5.942   4.139
56411SOL     OW71129   9.792   6.886  14.532
56411SOL    HW171130   9.765   6.959  14.476
56411SOL    HW271131   9.881   6.909  14.560
56412SOL     OW71132   8.358   7.637  14.541
56412SOL    HW171133   8.265   7.634  14.516
56412SOL    HW271134   8.358   7.625  14.636
56413SOL     OW71135   2.090   4.311   3.417
56413SOL    HW171136   2.026   4.244   3.394
56413SOL    HW271137   2.110   4.355   3.335
56414SOL     OW71138   1.136   1.854   3.330
56414SOL    HW171139   1.074   1.784   3.352
56414SOL    HW271140   1.093   1.934   3.361
56415SOL     OW71141  12.700  14.630  12.673
56415SOL    HW171142  12.611  14.637  12.708
56415SOL    HW271143  12.687  14.606  12.581
56416SOL     OW71144   1.569   5.471   4.287
56416SOL    HW171145   1.484   5.479   4.244
56416SOL    HW271146   1.631   5.508   4.223
56417SOL     OW71147   7.553  12.712   4.040
56417SOL    HW171148   7.533  12.795   4.083
56417SOL    HW271149   7.577  12.736   3.951
56418SOL     OW71150  14.223   1.990   3.478
56418SOL    HW171151  14.155   1.951   3.424
56418SOL    HW271152  14.215   2.084   3.463
56419SOL     OW71153   7.493   7.340   7.861
56419SOL    HW171154   7.474   7.356   7.953
56419SOL    HW271155   7.437   7.266   7.837
56420SOL     OW71156  12.166  12.703  10.762
56420SOL    HW171157  12.256  12.736  10.761
56420SOL    HW271158  12.154  12.668  10.851
56421SOL     OW71159  13.896  11.055  12.259
56421SOL    HW171160  13.946  11.014  12.330
56421SOL    HW271161  13.955  11.056  12.185
56422SOL     OW71162  12.673   7.043   3.686
56422SOL    HW171163  12.636   7.000   3.763
56422SOL    HW271164  12.646   7.135   3.695
56423SOL     OW71165   1.664  11.216   6.045
56423SOL    HW171166   1.603  11.280   6.083
56423SOL    HW271167   1.731  11.205   6.111
56424SOL     OW71168  10.311  10.120  11.021
56424SOL    HW171169  10.374  10.180  11.061
56424SOL    HW271170  10.343  10.033  11.044
56425SOL     OW71171   4.277  13.307   7.251
56425SOL    HW171172   4.336  13.364   7.301
56425SOL    HW271173   4.318  13.301   7.165
56426SOL     OW71174   9.675  13.958   2.138
56426SOL    HW171175   9.635  13.935   2.053
56426SOL    HW271176   9.605  14.003   2.186
56427SOL     OW71177   3.715   8.486   0.221
56427SOL    HW171178   3.781   8.483   0.152
56427SOL    HW271179   3.740   8.561   0.275
56428SOL     OW71180   6.089  11.707  10.945
56428SOL    HW171181   6.086  11.660  11.028
56428SOL    HW271182   6.094  11.639  10.879
56429SOL     OW71183   0.535  11.751   2.060
56429SOL    HW171184   0.498  11.838   2.043
56429SOL    HW271185   0.467  11.690   2.032
56430SOL     OW71186   5.987  10.811   8.676
56430SOL    HW171187   6.004  10.903   8.699
56430SOL    HW271188   5.896  10.812   8.644
56431SOL     OW71189  14.016   1.248   0.787
56431SOL    HW171190  14.070   1.224   0.712
56431SOL    HW271191  14.015   1.343   0.787
56432SOL     OW71192   9.034  13.878   4.876
56432SOL    HW171193   8.990  13.836   4.802
56432SOL    HW271194   9.125  13.885   4.848
56433SOL     OW71195   4.853   1.529   2.278
56433SOL    HW171196   4.833   1.581   2.201
56433SOL    HW271197   4.941   1.556   2.305
56434SOL     OW71198   1.329  13.040   6.873
56434SOL    HW171199   1.293  13.105   6.934
56434SOL    HW271200   1.369  12.974   6.930
56435SOL     OW71201   1.381   8.931   0.250
56435SOL    HW171202   1.463   8.893   0.218
56435SOL    HW271203   1.390   8.928   0.345
56436SOL     OW71204   4.085   8.289   0.504
56436SOL    HW171205   4.063   8.214   0.559
56436SOL    HW271206   4.110   8.250   0.420
56437SOL     OW71207  13.193  10.619   1.441
56437SOL    HW171208  13.110  10.589   1.405
56437SOL    HW271209  13.171  10.654   1.527
56438SOL     OW71210  13.575   8.158  11.738
56438SOL    HW171211  13.574   8.140  11.832
56438SOL    HW271212  13.621   8.241  11.730
56439SOL     OW71213   5.592  14.347  10.379
56439SOL    HW171214   5.684  14.373  10.387
56439SOL    HW271215   5.583  14.322  10.287
56440SOL     OW71216   7.610   6.246   1.983
56440SOL    HW171217   7.577   6.333   1.960
56440SOL    HW271218   7.609   6.244   2.079
56441SOL     OW71219   7.509   1.117   1.647
56441SOL    HW171220   7.440   1.106   1.581
56441SOL    HW271221   7.489   1.200   1.690
56442SOL     OW71222   4.161  12.975   0.217
56442SOL    HW171223   4.187  12.946   0.304
56442SOL    HW271224   4.065  12.976   0.219
56443SOL     OW71225   5.596  10.397  10.302
56443SOL    HW171226   5.641  10.345  10.235
56443SOL    HW271227   5.649  10.477  10.309
56444SOL     OW71228   0.090   5.640  11.709
56444SOL    HW171229   0.043   5.639  11.793
56444SOL    HW271230   0.092   5.732  11.684
56445SOL     OW71231   5.218   1.507   6.413
56445SOL    HW171232   5.274   1.440   6.373
56445SOL    HW271233   5.273   1.586   6.415
56446SOL     OW71234  14.574   4.285   0.812
56446SOL    HW171235  14.632   4.290   0.888
56446SOL    HW271236  14.633   4.280   0.737
56447SOL     OW71237   5.017  13.488  11.217
56447SOL    HW171238   5.076  13.563  11.217
56447SOL    HW271239   4.933  13.523  11.187
56448SOL     OW71240  11.946   2.122   3.665
56448SOL    HW171241  12.020   2.142   3.608
56448SOL    HW271242  11.982   2.062   3.731
56449SOL     OW71243   6.031  13.156   2.126
56449SOL    HW171244   6.082  13.149   2.045
56449SOL    HW271245   6.081  13.106   2.190
56450SOL     OW71246   4.253  10.696   1.759
56450SOL    HW171247   4.226  10.606   1.775
56450SOL    HW271248   4.348  10.695   1.768
56451SOL     OW71249   3.722   8.249   4.855
56451SOL    HW171250   3.692   8.326   4.903
56451SOL    HW271251   3.749   8.283   4.770
56452SOL     OW71252  14.365  11.393   4.299
56452SOL    HW171253  14.422  11.350   4.362
56452SOL    HW271254  14.424  11.446   4.245
56453SOL     OW71255  12.977  11.048   4.992
56453SOL    HW171256  12.981  11.124   4.933
56453SOL    HW271257  12.952  10.975   4.935
56454SOL     OW71258  12.262  12.345   3.560
56454SOL    HW171259  12.354  12.353   3.536
56454SOL    HW271260  12.219  12.420   3.517
56455SOL     OW71261   4.294   0.437  13.335
56455SOL    HW171262   4.344   0.448  13.254
56455SOL    HW271263   4.207   0.411  13.306
56456SOL     OW71264   4.564  10.380   1.342
56456SOL    HW171265   4.653  10.374   1.377
56456SOL    HW271266   4.570  10.449   1.275
56457SOL     OW71267   8.708   0.377  14.255
56457SOL    HW171268   8.636   0.397  14.195
56457SOL    HW271269   8.671   0.391  14.342
56458SOL     OW71270   4.058  11.429   7.432
56458SOL    HW171271   4.086  11.378   7.508
56458SOL    HW271272   4.111  11.509   7.436
56459SOL     OW71273   8.077   7.944   6.644
56459SOL    HW171274   8.109   7.904   6.724
56459SOL    HW271275   8.136   8.017   6.627
56460SOL     OW71276   2.673   7.129  14.327
56460SOL    HW171277   2.662   7.179  14.408
56460SOL    HW271278   2.585   7.126  14.289
56461SOL     OW71279   6.969  11.801   9.479
56461SOL    HW171280   6.968  11.863   9.552
56461SOL    HW271281   7.057  11.766   9.478
56462SOL     OW71282  11.320  13.426  11.558
56462SOL    HW171283  11.382  13.423  11.485
56462SOL    HW271284  11.286  13.515  11.556
56463SOL     OW71285  13.033  10.813   0.382
56463SOL    HW171286  12.951  10.765   0.395
56463SOL    HW271287  13.066  10.827   0.470
56464SOL     OW71288   7.386  12.800   3.326
56464SOL    HW171289   7.317  12.837   3.271
56464SOL    HW271290   7.455  12.774   3.264
56465SOL     OW71291   2.226   4.360  13.253
56465SOL    HW171292   2.244   4.380  13.161
56465SOL    HW271293   2.165   4.286  13.250
56466SOL     OW71294  14.300   8.020  13.279
56466SOL    HW171295  14.376   8.077  13.290
56466SOL    HW271296  14.226   8.075  13.302
56467SOL     OW71297   3.931  13.640   0.628
56467SOL    HW171298   3.888  13.623   0.544
56467SOL    HW271299   4.022  13.661   0.604
56468SOL     OW71300   1.040  12.058   0.008
56468SOL    HW171301   0.972  12.008   0.053
56468SOL    HW271302   1.118  12.002   0.012
56469SOL     OW71303   9.194   2.783  12.066
56469SOL    HW171304   9.287   2.793  12.087
56469SOL    HW271305   9.187   2.692  12.035
56470SOL     OW71306  10.044   9.157   5.871
56470SOL    HW171307  10.027   9.116   5.956
56470SOL    HW271308  10.051   9.083   5.811
56471SOL     OW71309   7.631   7.715   7.343
56471SOL    HW171310   7.630   7.800   7.387
56471SOL    HW271311   7.550   7.715   7.291
56472SOL     OW71312  13.358   3.996   8.931
56472SOL    HW171313  13.359   4.076   8.879
56472SOL    HW271314  13.445   3.958   8.917
56473SOL     OW71315   6.581   5.507   5.208
56473SOL    HW171316   6.676   5.506   5.197
56473SOL    HW271317   6.568   5.529   5.300
56474SOL     OW71318  13.018  13.044   6.116
56474SOL    HW171319  13.070  12.976   6.074
56474SOL    HW271320  13.021  13.117   6.055
56475SOL     OW71321   4.721   2.066  11.613
56475SOL    HW171322   4.636   2.089  11.650
56475SOL    HW271323   4.777   2.051  11.689
56476SOL     OW71324   2.586   3.191   7.527
56476SOL    HW171325   2.535   3.181   7.447
56476SOL    HW271326   2.668   3.232   7.498
56477SOL     OW71327   2.981  11.087   1.588
56477SOL    HW171328   2.916  11.017   1.589
56477SOL    HW271329   3.061  11.046   1.622
56478SOL     OW71330  11.375  12.724   6.355
56478SOL    HW171331  11.412  12.800   6.398
56478SOL    HW271332  11.425  12.650   6.390
56479SOL     OW71333   2.877  12.019   3.670
56479SOL    HW171334   2.885  11.933   3.629
56479SOL    HW271335   2.934  12.075   3.618
56480SOL     OW71336   9.223   7.480   2.063
56480SOL    HW171337   9.145   7.480   2.119
56480SOL    HW271338   9.203   7.545   1.995
56481SOL     OW71339   8.526   4.787   2.552
56481SOL    HW171340   8.524   4.814   2.644
56481SOL    HW271341   8.476   4.706   2.548
56482SOL     OW71342   2.106   6.738   6.379
56482SOL    HW171343   2.027   6.746   6.433
56482SOL    HW271344   2.174   6.709   6.440
56483SOL     OW71345   5.372   2.324   4.528
56483SOL    HW171346   5.421   2.405   4.510
56483SOL    HW271347   5.400   2.263   4.460
56484SOL     OW71348  10.410  13.673   9.379
56484SOL    HW171349  10.346  13.663   9.449
56484SOL    HW271350  10.390  13.602   9.318
56485SOL     OW71351   0.447  10.874  12.550
56485SOL    HW171352   0.414  10.926  12.477
56485SOL    HW271353   0.414  10.785  12.534
56486SOL     OW71354   2.146   0.261   4.291
56486SOL    HW171355   2.228   0.237   4.333
56486SOL    HW271356   2.151   0.221   4.204
56487SOL     OW71357   7.360   8.246   6.447
56487SOL    HW171358   7.338   8.257   6.540
56487SOL    HW271359   7.279   8.218   6.406
56488SOL     OW71360   2.909  13.839  14.848
56488SOL    HW171361   2.909  13.794   0.063
56488SOL    HW271362   2.877  13.774  14.786
56489SOL     OW71363  10.249   2.160   2.175
56489SOL    HW171364  10.186   2.159   2.103
56489SOL    HW271365  10.205   2.208   2.245
56490SOL     OW71366   0.270  10.523  11.761
56490SOL    HW171367   0.313  10.440  11.743
56490SOL    HW271368   0.177  10.506  11.745
56491SOL     OW71369  11.136   5.219  14.339
56491SOL    HW171370  11.223   5.250  14.315
56491SOL    HW271371  11.147   5.126  14.357
56492SOL     OW71372   0.059  14.458  13.057
56492SOL    HW171373   0.145  14.474  13.097
56492SOL    HW271374   0.006  14.532  13.086
56493SOL     OW71375   8.786   0.338   3.097
56493SOL    HW171376   8.861   0.315   3.151
56493SOL    HW271377   8.823   0.378   3.019
56494SOL     OW71378  12.349   5.986   0.172
56494SOL    HW171379  12.362   5.925   0.244
56494SOL    HW271380  12.329   5.930   0.097
56495SOL     OW71381   9.253   0.301   2.506
56495SOL    HW171382   9.281   0.229   2.448
56495SOL    HW271383   9.158   0.290   2.513
56496SOL     OW71384   2.464   9.050  11.226
56496SOL    HW171385   2.479   9.042  11.321
56496SOL    HW271386   2.370   9.063  11.218
56497SOL     OW71387   1.059   2.810   9.145
56497SOL    HW171388   1.062   2.881   9.209
56497SOL    HW271389   0.992   2.750   9.180
56498SOL     OW71390   1.244   9.556  12.121
56498SOL    HW171391   1.154   9.529  12.106
56498SOL    HW271392   1.296   9.499  12.064
56499SOL     OW71393   4.234   6.830  13.375
56499SOL    HW171394   4.173   6.890  13.333
56499SOL    HW271395   4.245   6.758  13.313
56500SOL     OW71396   2.776   7.711   7.179
56500SOL    HW171397   2.696   7.662   7.162
56500SOL    HW271398   2.789   7.765   7.100
56501SOL     OW71399   3.499   5.393  10.745
56501SOL    HW171400   3.504   5.373  10.652
56501SOL    HW271401   3.491   5.489  10.748
56502SOL     OW71402   8.805  13.784   3.632
56502SOL    HW171403   8.779  13.876   3.619
56502SOL    HW271404   8.835  13.755   3.546
56503SOL     OW71405   5.454   7.491  10.228
56503SOL    HW171406   5.464   7.469  10.135
56503SOL    HW271407   5.362   7.474  10.247
56504SOL     OW71408  13.835   9.616   0.481
56504SOL    HW171409  13.922   9.631   0.518
56504SOL    HW271410  13.775   9.657   0.544
56505SOL     OW71411  13.870  13.549   4.018
56505SOL    HW171412  13.912  13.603   4.085
56505SOL    HW271413  13.825  13.480   4.067
56506SOL     OW71414   0.627  10.924   7.982
56506SOL    HW171415   0.715  10.915   8.019
56506SOL    HW271416   0.576  10.965   8.052
56507SOL     OW71417   8.201   4.812  10.251
56507SOL    HW171418   8.261   4.851  10.315
56507SOL    HW271419   8.259   4.771  10.187
56508SOL     OW71420  14.463  12.380   4.949
56508SOL    HW171421  14.422  12.466   4.945
56508SOL    HW271422  14.555  12.395   4.927
56509SOL     OW71423   8.416   0.607   5.177
56509SOL    HW171424   8.363   0.672   5.131
56509SOL    HW271425   8.353   0.547   5.217
56510SOL     OW71426   3.116   7.313   8.533
56510SOL    HW171427   3.181   7.381   8.550
56510SOL    HW271428   3.162   7.251   8.476
56511SOL     OW71429  13.483  12.364   5.667
56511SOL    HW171430  13.577  12.351   5.680
56511SOL    HW271431  13.451  12.398   5.750
56512SOL     OW71432   6.226  11.768  12.047
56512SOL    HW171433   6.178  11.733  11.972
56512SOL    HW271434   6.161  11.777  12.116
56513SOL     OW71435   4.405   4.510   6.176
56513SOL    HW171436   4.432   4.569   6.246
56513SOL    HW271437   4.487   4.480   6.137
56514SOL     OW71438   4.001   1.651   4.980
56514SOL    HW171439   3.966   1.579   4.927
56514SOL    HW271440   4.082   1.618   5.017
56515SOL     OW71441  12.700   4.709  11.965
56515SOL    HW171442  12.675   4.658  12.043
56515SOL    HW271443  12.617   4.728  11.921
56516SOL     OW71444  10.951  14.854  12.454
56516SOL    HW171445  11.046  14.855  12.438
56516SOL    HW271446  10.944  14.849  12.550
56517SOL     OW71447   8.474  13.829  11.114
56517SOL    HW171448   8.446  13.864  11.029
56517SOL    HW271449   8.525  13.751  11.092
56518SOL     OW71450  11.364  14.439   6.200
56518SOL    HW171451  11.373  14.461   6.107
56518SOL    HW271452  11.273  14.411   6.209
56519SOL     OW71453   2.925   8.931   0.369
56519SOL    HW171454   2.841   8.936   0.413
56519SOL    HW271455   2.967   8.853   0.404
56520SOL     OW71456  11.286  13.716   6.434
56520SOL    HW171457  11.353  13.658   6.398
56520SOL    HW271458  11.211  13.703   6.376
56521SOL     OW71459   8.655   8.599   2.864
56521SOL    HW171460   8.708   8.678   2.871
56521SOL    HW271461   8.686   8.556   2.784
56522SOL     OW71462   5.724   0.387  10.333
56522SOL    HW171463   5.763   0.339  10.260
56522SOL    HW271464   5.696   0.319  10.394
56523SOL     OW71465  13.106   8.144   8.785
56523SOL    HW171466  13.173   8.078   8.770
56523SOL    HW271467  13.146   8.207   8.845
56524SOL     OW71468   3.759   9.368   0.522
56524SOL    HW171469   3.775   9.437   0.458
56524SOL    HW271470   3.846   9.336   0.546
56525SOL     OW71471  11.612  14.192   3.035
56525SOL    HW171472  11.690  14.199   2.980
56525SOL    HW271473  11.605  14.098   3.054
56526SOL     OW71474   4.502   5.799   6.275
56526SOL    HW171475   4.438   5.860   6.239
56526SOL    HW271476   4.510   5.824   6.367
56527SOL     OW71477  13.328   4.695   4.441
56527SOL    HW171478  13.321   4.779   4.486
56527SOL    HW271479  13.381   4.641   4.499
56528SOL     OW71480   2.979   1.168   8.806
56528SOL    HW171481   2.961   1.254   8.768
56528SOL    HW271482   2.893   1.131   8.823
56529SOL     OW71483   4.721  11.195   5.709
56529SOL    HW171484   4.729  11.182   5.804
56529SOL    HW271485   4.669  11.120   5.680
56530SOL     OW71486  12.880   0.527   5.959
56530SOL    HW171487  12.964   0.502   5.920
56530SOL    HW271488  12.896   0.614   5.996
56531SOL     OW71489   0.977   0.830   0.289
56531SOL    HW171490   1.055   0.777   0.271
56531SOL    HW271491   0.922   0.817   0.212
56532SOL     OW71492   8.308   7.911  13.849
56532SOL    HW171493   8.361   7.831  13.841
56532SOL    HW271494   8.239   7.887  13.911
56533SOL     OW71495  14.084  13.393   9.631
56533SOL    HW171496  14.058  13.480   9.599
56533SOL    HW271497  14.040  13.332   9.571
56534SOL     OW71498   1.745  12.405   0.996
56534SOL    HW171499   1.795  12.483   0.969
56534SOL    HW271500   1.805  12.356   1.052
56535SOL     OW71501  10.988   7.100   9.273
56535SOL    HW171502  10.989   7.027   9.212
56535SOL    HW271503  10.905   7.092   9.319
56536SOL     OW71504   5.567   0.724  13.714
56536SOL    HW171505   5.596   0.641  13.677
56536SOL    HW271506   5.645   0.780  13.712
56537SOL     OW71507  10.774   3.399   1.972
56537SOL    HW171508  10.784   3.397   1.877
56537SOL    HW271509  10.756   3.491   1.992
56538SOL     OW71510   6.402  13.152   4.968
56538SOL    HW171511   6.473  13.192   4.918
56538SOL    HW271512   6.432  13.154   5.059
56539SOL     OW71513  13.520   8.794   0.683
56539SOL    HW171514  13.596   8.852   0.682
56539SOL    HW271515  13.541   8.726   0.747
56540SOL     OW71516   4.013   4.865  11.995
56540SOL    HW171517   3.940   4.836  12.050
56540SOL    HW271518   4.044   4.945  12.036
56541SOL     OW71519   6.297   4.452  12.839
56541SOL    HW171520   6.312   4.447  12.745
56541SOL    HW271521   6.211   4.492  12.848
56542SOL     OW71522   3.772  14.538   2.099
56542SOL    HW171523   3.793  14.451   2.064
56542SOL    HW271524   3.780  14.528   2.194
56543SOL     OW71525   9.071  11.291  12.914
56543SOL    HW171526   9.063  11.222  12.980
56543SOL    HW271527   9.141  11.348  12.946
56544SOL     OW71528   2.105   6.879  10.650
56544SOL    HW171529   2.058   6.834  10.579
56544SOL    HW271530   2.195   6.846  10.643
56545SOL     OW71531   5.380  11.189  11.521
56545SOL    HW171532   5.434  11.120  11.481
56545SOL    HW271533   5.401  11.268  11.471
56546SOL     OW71534   2.607   2.019  10.754
56546SOL    HW171535   2.682   1.961  10.762
56546SOL    HW271536   2.583   2.040  10.844
56547SOL     OW71537   7.985   5.198   2.827
56547SOL    HW171538   7.964   5.280   2.872
56547SOL    HW271539   8.080   5.189   2.837
56548SOL     OW71540   1.950  14.669   0.313
56548SOL    HW171541   2.013  14.697   0.246
56548SOL    HW271542   1.864  14.682   0.273
56549SOL     OW71543   9.129   3.706   8.424
56549SOL    HW171544   9.135   3.733   8.332
56549SOL    HW271545   9.140   3.786   8.474
56550SOL     OW71546   9.745  12.361   0.638
56550SOL    HW171547   9.750  12.277   0.592
56550SOL    HW271548   9.829  12.368   0.685
56551SOL     OW71549   1.218   9.895   7.040
56551SOL    HW171550   1.288   9.953   7.010
56551SOL    HW271551   1.148   9.909   6.976
56552SOL     OW71552   2.525   6.002   3.461
56552SOL    HW171553   2.518   6.018   3.556
56552SOL    HW271554   2.619   5.996   3.445
56553SOL     OW71555   6.029   8.885  14.338
56553SOL    HW171556   6.120   8.908  14.357
56553SOL    HW271557   6.005   8.823  14.407
56554SOL     OW71558  12.315   0.987   6.717
56554SOL    HW171559  12.228   0.950   6.735
56554SOL    HW271560  12.376   0.915   6.735
56555SOL     OW71561   7.174  10.503   8.730
56555SOL    HW171562   7.087  10.504   8.690
56555SOL    HW271563   7.228  10.450   8.671
56556SOL     OW71564   3.750  13.158   8.985
56556SOL    HW171565   3.792  13.091   8.931
56556SOL    HW271566   3.670  13.117   9.016
56557SOL     OW71567   4.396   1.139   7.892
56557SOL    HW171568   4.425   1.203   7.957
56557SOL    HW271569   4.320   1.180   7.850
56558SOL     OW71570  12.083   0.899  11.046
56558SOL    HW171571  12.074   0.809  11.014
56558SOL    HW271572  12.177   0.916  11.043
56559SOL     OW71573  12.072   5.311   1.446
56559SOL    HW171574  12.167   5.314   1.440
56559SOL    HW271575  12.042   5.388   1.397
56560SOL     OW71576   1.859   8.837  11.339
56560SOL    HW171577   1.954   8.850  11.342
56560SOL    HW271578   1.848   8.757  11.287
56561SOL     OW71579   8.872   5.791   0.033
56561SOL    HW171580   8.938   5.819   0.097
56561SOL    HW271581   8.873   5.696   0.039
56562SOL     OW71582   5.807   8.348  12.676
56562SOL    HW171583   5.711   8.347  12.676
56562SOL    HW271584   5.829   8.439  12.655
56563SOL     OW71585  14.098   4.342   6.565
56563SOL    HW171586  14.034   4.283   6.605
56563SOL    HW271587  14.059   4.429   6.574
56564SOL     OW71588   6.190  14.767   2.166
56564SOL    HW171589   6.195  14.711   2.244
56564SOL    HW271590   6.220  14.853   2.198
56565SOL     OW71591   7.995  11.769  12.838
56565SOL    HW171592   8.081  11.730  12.848
56565SOL    HW271593   7.935  11.704  12.874
56566SOL     OW71594   4.757   1.220   0.008
56566SOL    HW171595   4.784   1.159  14.809
56566SOL    HW271596   4.835   1.272   0.026
56567SOL     OW71597   4.917  11.019  13.631
56567SOL    HW171598   4.993  11.053  13.680
56567SOL    HW271599   4.912  10.927  13.657
56568SOL     OW71600   7.963   1.908  10.729
56568SOL    HW171601   7.997   1.856  10.656
56568SOL    HW271602   7.870   1.919  10.709
56569SOL     OW71603   0.290   8.937  11.901
56569SOL    HW171604   0.270   8.854  11.945
56569SOL    HW271605   0.384   8.932  11.881
56570SOL     OW71606  12.472   7.618   2.982
56570SOL    HW171607  12.443   7.694   2.930
56570SOL    HW271608  12.511   7.656   3.061
56571SOL     OW71609   9.383   4.752  14.864
56571SOL    HW171610   9.432   4.793  14.793
56571SOL    HW271611   9.380   4.660  14.841
56572SOL     OW71612  11.660   3.266  13.075
56572SOL    HW171613  11.582   3.237  13.122
56572SOL    HW271614  11.680   3.194  13.015
56573SOL     OW71615   0.840   0.570  12.094
56573SOL    HW171616   0.915   0.513  12.115
56573SOL    HW271617   0.767   0.532  12.142
56574SOL     OW71618   6.601   3.562   3.978
56574SOL    HW171619   6.682   3.573   3.929
56574SOL    HW271620   6.549   3.639   3.956
56575SOL     OW71621  10.250   6.033  14.550
56575SOL    HW171622  10.201   6.114  14.537
56575SOL    HW271623  10.240   6.014  14.643
56576SOL     OW71624  14.235  11.796  12.807
56576SOL    HW171625  14.168  11.728  12.796
56576SOL    HW271626  14.284  11.795  12.725
56577SOL     OW71627  13.880  13.704  11.773
56577SOL    HW171628  13.838  13.789  11.782
56577SOL    HW271629  13.824  13.655  11.713
56578SOL     OW71630   6.911   7.672   0.773
56578SOL    HW171631   6.990   7.623   0.753
56578SOL    HW271632   6.917   7.751   0.719
56579SOL     OW71633   1.125   1.434   6.360
56579SOL    HW171634   1.045   1.470   6.322
56579SOL    HW271635   1.113   1.339   6.354
56580SOL     OW71636   6.245   4.142   2.836
56580SOL    HW171637   6.292   4.225   2.825
56580SOL    HW271638   6.256   4.121   2.929
56581SOL     OW71639   7.683   3.001  12.999
56581SOL    HW171640   7.628   3.000  13.077
56581SOL    HW271641   7.727   3.086  13.002
56582SOL     OW71642   8.901   1.686   8.477
56582SOL    HW171643   8.886   1.780   8.473
56582SOL    HW271644   8.939   1.671   8.564
56583SOL     OW71645   8.022   8.423   7.764
56583SOL    HW171646   8.098   8.380   7.725
56583SOL    HW271647   7.983   8.473   7.692
56584SOL     OW71648   8.006   2.921   1.101
56584SOL    HW171649   7.929   2.979   1.106
56584SOL    HW271650   8.025   2.916   1.007
56585SOL     OW71651  12.851   0.563  13.004
56585SOL    HW171652  12.763   0.526  13.004
56585SOL    HW271653  12.837   0.657  12.989
56586SOL     OW71654   1.523  10.925   9.172
56586SOL    HW171655   1.617  10.916   9.191
56586SOL    HW271656   1.503  11.017   9.190
56587SOL     OW71657   7.717   2.638  11.275
56587SOL    HW171658   7.645   2.693  11.244
56587SOL    HW271659   7.713   2.560  11.220
56588SOL     OW71660   5.958   1.366  10.997
56588SOL    HW171661   5.903   1.437  10.965
56588SOL    HW271662   5.980   1.391  11.086
56589SOL     OW71663  11.363  13.091  13.588
56589SOL    HW171664  11.293  13.025  13.594
56589SOL    HW271665  11.349  13.147  13.664
56590SOL     OW71666   2.952   5.013   2.330
56590SOL    HW171667   3.007   5.092   2.328
56590SOL    HW271668   3.013   4.942   2.351
56591SOL     OW71669   4.930  13.352   6.589
56591SOL    HW171670   4.848  13.304   6.575
56591SOL    HW271671   4.952  13.337   6.681
56592SOL     OW71672   6.998   5.630  10.809
56592SOL    HW171673   7.045   5.602  10.730
56592SOL    HW271674   6.907   5.639  10.782
56593SOL     OW71675   3.054   7.083  11.469
56593SOL    HW171676   3.101   7.140  11.531
56593SOL    HW271677   3.075   7.120  11.383
56594SOL     OW71678   2.937   6.135   8.111
56594SOL    HW171679   2.860   6.152   8.057
56594SOL    HW271680   2.981   6.220   8.117
56595SOL     OW71681   4.309   5.626   0.215
56595SOL    HW171682   4.390   5.582   0.192
56595SOL    HW271683   4.250   5.556   0.243
56596SOL     OW71684   7.388   6.725   5.889
56596SOL    HW171685   7.334   6.710   5.967
56596SOL    HW271686   7.355   6.663   5.824
56597SOL     OW71687  12.624   3.890   9.446
56597SOL    HW171688  12.556   3.903   9.379
56597SOL    HW271689  12.596   3.811   9.493
56598SOL     OW71690   6.581   6.335   2.985
56598SOL    HW171691   6.640   6.380   3.045
56598SOL    HW271692   6.598   6.242   3.000
56599SOL     OW71693   2.724   5.718   7.276
56599SOL    HW171694   2.635   5.696   7.305
56599SOL    HW271695   2.771   5.740   7.356
56600SOL     OW71696  11.768  13.736   5.027
56600SOL    HW171697  11.842  13.675   5.022
56600SOL    HW271698  11.786  13.789   5.105
56601SOL     OW71699   7.191  12.835   2.543
56601SOL    HW171700   7.177  12.907   2.604
56601SOL    HW271701   7.133  12.854   2.469
56602SOL     OW71702   5.127   7.533  12.276
56602SOL    HW171703   5.221   7.528  12.295
56602SOL    HW271704   5.085   7.527  12.361
56603SOL     OW71705  11.067   2.001   5.720
56603SOL    HW171706  11.046   1.949   5.643
56603SOL    HW271707  11.013   1.964   5.790
56604SOL     OW71708   1.809   9.939   7.273
56604SOL    HW171709   1.751   9.891   7.214
56604SOL    HW271710   1.821  10.024   7.231
56605SOL     OW71711  12.228   8.804   3.797
56605SOL    HW171712  12.179   8.747   3.854
56605SOL    HW271713  12.300   8.750   3.764
56606SOL     OW71714  14.859  11.949  11.329
56606SOL    HW171715  14.830  12.006  11.257
56606SOL    HW271716  14.810  11.980  11.405
56607SOL     OW71717   0.259   6.385   4.026
56607SOL    HW171718   0.267   6.325   4.100
56607SOL    HW271719   0.165   6.390   4.009
56608SOL     OW71720  14.833   2.101  10.862
56608SOL    HW171721  14.774   2.062  10.927
56608SOL    HW271722  14.816   2.195  10.868
56609SOL     OW71723   0.640  11.526   7.185
56609SOL    HW171724   0.676  11.453   7.134
56609SOL    HW271725   0.656  11.603   7.131
56610SOL     OW71726   6.640   5.292  14.464
56610SOL    HW171727   6.696   5.223  14.499
56610SOL    HW271728   6.551   5.265  14.490
56611SOL     OW71729   0.652  14.161   7.719
56611SOL    HW171730   0.595  14.085   7.728
56611SOL    HW271731   0.631  14.216   7.794
56612SOL     OW71732   7.580   1.325   6.718
56612SOL    HW171733   7.589   1.366   6.804
56612SOL    HW271734   7.529   1.245   6.736
56613SOL     OW71735   1.584   2.470   7.819
56613SOL    HW171736   1.635   2.549   7.802
56613SOL    HW271737   1.501   2.503   7.855
56614SOL     OW71738  13.947  13.208  11.290
56614SOL    HW171739  13.985  13.124  11.315
56614SOL    HW271740  13.923  13.250  11.373
56615SOL     OW71741   0.253   7.430   5.980
56615SOL    HW171742   0.232   7.523   5.971
56615SOL    HW271743   0.181   7.394   6.032
56616SOL     OW71744  14.675   6.335   7.829
56616SOL    HW171745  14.636   6.418   7.802
56616SOL    HW271746  14.606   6.270   7.816
56617SOL     OW71747  11.442   2.827  13.104
56617SOL    HW171748  11.472   2.918  13.095
56617SOL    HW271749  11.346   2.833  13.104
56618SOL     OW71750  12.109   5.289   7.913
56618SOL    HW171751  12.045   5.359   7.925
56618SOL    HW271752  12.062   5.209   7.938
56619SOL     OW71753   0.706   5.539   2.873
56619SOL    HW171754   0.701   5.593   2.794
56619SOL    HW271755   0.799   5.532   2.891
56620SOL     OW71756   1.534   8.620   9.468
56620SOL    HW171757   1.448   8.659   9.452
56620SOL    HW271758   1.549   8.633   9.562
56621SOL     OW71759   9.702  13.761  12.048
56621SOL    HW171760   9.677  13.676  12.013
56621SOL    HW271761   9.681  13.823  11.979
56622SOL     OW71762   5.758   7.709   7.031
56622SOL    HW171763   5.833   7.649   7.027
56622SOL    HW271764   5.798   7.795   7.050
56623SOL     OW71765  12.990   5.740  11.060
56623SOL    HW171766  12.962   5.767  11.147
56623SOL    HW271767  12.994   5.822  11.010
56624SOL     OW71768  13.483  11.392   8.016
56624SOL    HW171769  13.403  11.344   8.037
56624SOL    HW271770  13.453  11.482   8.002
56625SOL     OW71771   7.638   7.727   4.103
56625SOL    HW171772   7.660   7.648   4.153
56625SOL    HW271773   7.691   7.796   4.142
56626SOL     OW71774   3.390   4.836   9.384
56626SOL    HW171775   3.299   4.821   9.361
56626SOL    HW271776   3.436   4.841   9.300
56627SOL     OW71777   7.333   3.746   5.409
56627SOL    HW171778   7.350   3.716   5.498
56627SOL    HW271779   7.317   3.666   5.359
56628SOL     OW71780   8.453   0.120  14.684
56628SOL    HW171781   8.379   0.171  14.715
56628SOL    HW271782   8.498   0.178  14.622
56629SOL     OW71783   2.355   3.370   4.174
56629SOL    HW171784   2.426   3.347   4.115
56629SOL    HW271785   2.299   3.428   4.123
56630SOL     OW71786   8.410   9.407   3.359
56630SOL    HW171787   8.334   9.361   3.394
56630SOL    HW271788   8.374   9.464   3.291
56631SOL     OW71789   1.609   7.815   2.473
56631SOL    HW171790   1.672   7.879   2.442
56631SOL    HW271791   1.589   7.761   2.396
56632SOL     OW71792  12.876   0.478  10.719
56632SOL    HW171793  12.885   0.573  10.717
56632SOL    HW271794  12.782   0.463  10.704
56633SOL     OW71795   9.888  11.345   3.517
56633SOL    HW171796   9.837  11.283   3.569
56633SOL    HW271797   9.889  11.425   3.570
56634SOL     OW71798   2.315   1.701  11.817
56634SOL    HW171799   2.342   1.639  11.749
56634SOL    HW271800   2.226   1.675  11.839
56635SOL     OW71801   3.742   7.641  10.295
56635SOL    HW171802   3.677   7.709  10.277
56635SOL    HW271803   3.693   7.574  10.344
56636SOL     OW71804  14.622   8.686   9.513
56636SOL    HW171805  14.697   8.637   9.482
56636SOL    HW271806  14.635   8.775   9.479
56637SOL     OW71807   1.117   9.435   2.600
56637SOL    HW171808   1.209   9.411   2.602
56637SOL    HW271809   1.111   9.513   2.655
56638SOL     OW71810   4.580   6.839  10.703
56638SOL    HW171811   4.620   6.758  10.671
56638SOL    HW271812   4.643   6.874  10.766
56639SOL     OW71813   8.174   3.783   1.617
56639SOL    HW171814   8.207   3.716   1.677
56639SOL    HW271815   8.127   3.844   1.673
56640SOL     OW71816  11.928   6.230   6.229
56640SOL    HW171817  11.949   6.180   6.150
56640SOL    HW271818  11.833   6.234   6.231
56641SOL     OW71819  12.561   9.756  14.228
56641SOL    HW171820  12.634   9.816  14.244
56641SOL    HW271821  12.596   9.690  14.169
56642SOL     OW71822   4.159   9.597  14.824
56642SOL    HW171823   4.197   9.512  14.801
56642SOL    HW271824   4.139   9.638  14.740
56643SOL     OW71825   8.873  14.353   4.158
56643SOL    HW171826   8.821  14.312   4.228
56643SOL    HW271827   8.937  14.407   4.204
56644SOL     OW71828   2.673   2.317   0.556
56644SOL    HW171829   2.745   2.380   0.559
56644SOL    HW271830   2.711   2.240   0.513
56645SOL     OW71831   0.900  12.887   3.552
56645SOL    HW171832   0.942  12.839   3.624
56645SOL    HW271833   0.932  12.845   3.473
56646SOL     OW71834   8.595   1.021   1.850
56646SOL    HW171835   8.612   1.115   1.866
56646SOL    HW271836   8.534   1.020   1.776
56647SOL     OW71837   2.608  10.326   9.125
56647SOL    HW171838   2.699  10.316   9.099
56647SOL    HW271839   2.584  10.240   9.162
56648SOL     OW71840   2.663   8.610   1.819
56648SOL    HW171841   2.571   8.587   1.824
56648SOL    HW271842   2.665   8.696   1.777
56649SOL     OW71843  12.395  13.068   9.839
56649SOL    HW171844  12.307  13.105   9.832
56649SOL    HW271845  12.388  13.000   9.906
56650SOL     OW71846   6.337  11.790   2.877
56650SOL    HW171847   6.280  11.713   2.882
56650SOL    HW271848   6.277  11.865   2.881
56651SOL     OW71849   4.132   3.665   1.509
56651SOL    HW171850   4.080   3.585   1.507
56651SOL    HW271851   4.091   3.722   1.443
56652SOL     OW71852   5.407   3.449  14.309
56652SOL    HW171853   5.340   3.404  14.259
56652SOL    HW271854   5.451   3.380  14.359
56653SOL     OW71855  12.966   3.691   4.303
56653SOL    HW171856  12.890   3.644   4.339
56653SOL    HW271857  13.022   3.622   4.268
56654SOL     OW71858   7.457  10.203   3.551
56654SOL    HW171859   7.441  10.193   3.457
56654SOL    HW271860   7.372  10.184   3.591
56655SOL     OW71861   7.202  10.901   2.393
56655SOL    HW171862   7.255  10.825   2.370
56655SOL    HW271863   7.115  10.883   2.356
56656SOL     OW71864   8.399  11.793   0.785
56656SOL    HW171865   8.439  11.795   0.698
56656SOL    HW271866   8.312  11.831   0.773
56657SOL     OW71867   1.000   3.073  11.578
56657SOL    HW171868   0.941   3.142  11.608
56657SOL    HW271869   1.040   3.107  11.498
56658SOL     OW71870   7.749   7.595  12.505
56658SOL    HW171871   7.771   7.673  12.454
56658SOL    HW271872   7.707   7.536  12.443
56659SOL     OW71873  11.752  10.947   8.783
56659SOL    HW171874  11.683  11.010   8.764
56659SOL    HW271875  11.752  10.887   8.709
56660SOL     OW71876   9.822   1.927  14.292
56660SOL    HW171877   9.812   1.847  14.344
56660SOL    HW271878   9.908   1.917  14.250
56661SOL     OW71879   1.149  13.180   1.422
56661SOL    HW171880   1.066  13.132   1.426
56661SOL    HW271881   1.210  13.127   1.474
56662SOL     OW71882   3.011   6.141   5.272
56662SOL    HW171883   2.985   6.129   5.364
56662SOL    HW271884   2.996   6.055   5.232
56663SOL     OW71885  10.469   3.470   5.466
56663SOL    HW171886  10.429   3.505   5.386
56663SOL    HW271887  10.561   3.460   5.444
56664SOL     OW71888   9.459  11.332  13.542
56664SOL    HW171889   9.415  11.318  13.626
56664SOL    HW271890   9.507  11.414  13.554
56665SOL     OW71891   8.582   1.364  14.566
56665SOL    HW171892   8.559   1.273  14.586
56665SOL    HW271893   8.506   1.415  14.592
56666SOL     OW71894  12.198  11.285   6.001
56666SOL    HW171895  12.202  11.265   6.094
56666SOL    HW271896  12.120  11.341   5.992
56667SOL     OW71897   1.239   1.945  13.352
56667SOL    HW171898   1.237   2.025  13.301
56667SOL    HW271899   1.314   1.896  13.318
56668SOL     OW71900   9.993   7.749   7.189
56668SOL    HW171901  10.034   7.828   7.153
56668SOL    HW271902   9.944   7.780   7.264
56669SOL     OW71903   3.629   0.148  13.085
56669SOL    HW171904   3.680   0.152  13.004
56669SOL    HW271905   3.666   0.075  13.134
56670SOL     OW71906   7.435  14.844   6.342
56670SOL    HW171907   7.529  14.858   6.332
56670SOL    HW271908   7.403   0.057   6.379
56671SOL     OW71909   0.930   1.178   3.697
56671SOL    HW171910   0.993   1.168   3.625
56671SOL    HW271911   0.942   1.267   3.728
56672SOL     OW71912   4.102   4.236   1.007
56672SOL    HW171913   4.043   4.279   0.945
56672SOL    HW271914   4.112   4.299   1.078
56673SOL     OW71915   5.358  14.216   4.474
56673SOL    HW171916   5.267  14.186   4.485
56673SOL    HW271917   5.410  14.151   4.521
56674SOL     OW71918  11.298   3.684   4.167
56674SOL    HW171919  11.356   3.746   4.122
56674SOL    HW271920  11.328   3.685   4.258
56675SOL     OW71921   5.121   4.992   4.947
56675SOL    HW171922   5.068   4.935   5.003
56675SOL    HW271923   5.211   4.981   4.980
56676SOL     OW71924   2.691   2.581   8.289
56676SOL    HW171925   2.755   2.602   8.220
56676SOL    HW271926   2.736   2.602   8.371
56677SOL     OW71927   1.472   5.727   7.049
56677SOL    HW171928   1.519   5.649   7.078
56677SOL    HW271929   1.537   5.778   7.001
56678SOL     OW71930   8.410   9.180  13.458
56678SOL    HW171931   8.503   9.195  13.443
56678SOL    HW271932   8.367   9.257  13.421
56679SOL     OW71933   0.922   1.427  12.998
56679SOL    HW171934   1.003   1.376  12.993
56679SOL    HW271935   0.950   1.514  13.027
56680SOL     OW71936  10.933   3.762  11.673
56680SOL    HW171937  10.945   3.668  11.689
56680SOL    HW271938  10.866   3.788  11.736
56681SOL     OW71939  13.093   0.325   9.630
56681SOL    HW171940  13.130   0.383   9.696
56681SOL    HW271941  12.999   0.329   9.643
56682SOL     OW71942   5.217   4.508   1.207
56682SOL    HW171943   5.300   4.465   1.188
56682SOL    HW271944   5.225   4.594   1.165
56683SOL     OW71945  11.015   6.468  13.946
56683SOL    HW171946  11.077   6.477  13.874
56683SOL    HW271947  11.066   6.487  14.024
56684SOL     OW71948   5.880   0.788   0.313
56684SOL    HW171949   5.939   0.755   0.246
56684SOL    HW271950   5.800   0.811   0.266
56685SOL     OW71951  10.854   9.443   9.113
56685SOL    HW171952  10.773   9.458   9.064
56685SOL    HW271953  10.923   9.472   9.053
56686SOL     OW71954   0.253   0.998  10.666
56686SOL    HW171955   0.331   0.945  10.680
56686SOL    HW271956   0.250   1.056  10.742
56687SOL     OW71957   9.073   3.595  12.494
56687SOL    HW171958   9.054   3.508  12.530
56687SOL    HW271959   8.999   3.613  12.436
56688SOL     OW71960   3.076  12.609   1.066
56688SOL    HW171961   3.007  12.548   1.093
56688SOL    HW271962   3.034  12.664   1.000
56689SOL     OW71963   7.340   1.660   3.886
56689SOL    HW171964   7.263   1.654   3.829
56689SOL    HW271965   7.414   1.653   3.826
56690SOL     OW71966   3.870   1.381   3.495
56690SOL    HW171967   3.906   1.297   3.465
56690SOL    HW271968   3.918   1.399   3.576
56691SOL     OW71969   8.499  14.275  14.800
56691SOL    HW171970   8.537  14.259  14.713
56691SOL    HW271971   8.449  14.196  14.820
56692SOL     OW71972  12.843   3.273   2.439
56692SOL    HW171973  12.878   3.328   2.509
56692SOL    HW271974  12.837   3.330   2.363
56693SOL     OW71975  11.980   5.912   2.657
56693SOL    HW171976  11.995   5.997   2.617
56693SOL    HW271977  11.894   5.919   2.698
56694SOL     OW71978   9.371   3.051   7.918
56694SOL    HW171979   9.332   3.055   8.005
56694SOL    HW271980   9.404   2.962   7.910
56695SOL     OW71981   1.058  13.050  12.134
56695SOL    HW171982   1.020  12.988  12.197
56695SOL    HW271983   0.992  13.118  12.126
56696SOL     OW71984   1.093   0.790   4.832
56696SOL    HW171985   1.114   0.697   4.841
56696SOL    HW271986   1.071   0.800   4.739
56697SOL     OW71987  14.499  14.696   2.448
56697SOL    HW171988  14.430  14.684   2.383
56697SOL    HW271989  14.457  14.743   2.519
56698SOL     OW71990   6.691  12.074   6.588
56698SOL    HW171991   6.620  12.045   6.531
56698SOL    HW271992   6.676  12.028   6.670
56699SOL     OW71993   3.395   3.915  11.409
56699SOL    HW171994   3.338   3.909  11.485
56699SOL    HW271995   3.422   4.007  11.407
56700SOL     OW71996  11.488   1.074   5.716
56700SOL    HW171997  11.453   1.078   5.627
56700SOL    HW271998  11.523   0.986   5.724
56701SOL     OW71999  10.023   8.564   9.525
56701SOL    HW172000  10.083   8.596   9.457
56701SOL    HW272001  10.001   8.475   9.499
56702SOL     OW72002   6.534   3.128  13.492
56702SOL    HW172003   6.587   3.048  13.498
56702SOL    HW272004   6.566   3.172  13.414
56703SOL     OW72005   7.712  14.669  10.983
56703SOL    HW172006   7.684  14.715  10.903
56703SOL    HW272007   7.699  14.577  10.962
56704SOL     OW72008   3.287  11.399   4.251
56704SOL    HW172009   3.305  11.482   4.295
56704SOL    HW272010   3.349  11.396   4.179
56705SOL     OW72011   9.533   0.995   7.060
56705SOL    HW172012   9.525   0.901   7.043
56705SOL    HW272013   9.613   1.003   7.111
56706SOL     OW72014   3.746   3.738   2.193
56706SOL    HW172015   3.654   3.719   2.175
56706SOL    HW272016   3.761   3.823   2.152
56707SOL     OW72017  12.743   4.248   3.929
56707SOL    HW172018  12.652   4.225   3.945
56707SOL    HW272019  12.750   4.339   3.958
56708SOL     OW72020   2.382  11.025   3.287
56708SOL    HW172021   2.388  10.965   3.361
56708SOL    HW272022   2.303  10.998   3.241
56709SOL     OW72023   7.658  10.382   7.846
56709SOL    HW172024   7.689  10.465   7.811
56709SOL    HW272025   7.730  10.351   7.902
56710SOL     OW72026   1.743  10.619  10.679
56710SOL    HW172027   1.793  10.681  10.732
56710SOL    HW272028   1.681  10.579  10.739
56711SOL     OW72029  11.493   9.332   6.379
56711SOL    HW172030  11.481   9.330   6.474
56711SOL    HW272031  11.447   9.412   6.351
56712SOL     OW72032  12.821   3.154   0.888
56712SOL    HW172033  12.759   3.096   0.930
56712SOL    HW272034  12.907   3.116   0.907
56713SOL     OW72035   6.457  13.485  11.973
56713SOL    HW172036   6.521  13.414  11.969
56713SOL    HW272037   6.509  13.565  11.974
56714SOL     OW72038   5.818   2.811  12.822
56714SOL    HW172039   5.738   2.759  12.820
56714SOL    HW272040   5.804   2.874  12.892
56715SOL     OW72041  12.816   6.473   3.582
56715SOL    HW172042  12.750   6.417   3.542
56715SOL    HW272043  12.785   6.487   3.671
56716SOL     OW72044   7.854  14.848   5.477
56716SOL    HW172045   7.904  14.776   5.515
56716SOL    HW272046   7.785  14.866   5.540
56717SOL     OW72047  13.354   5.969   2.975
56717SOL    HW172048  13.406   5.950   3.053
56717SOL    HW272049  13.266   5.937   2.996
56718SOL     OW72050   0.508   8.983  11.091
56718SOL    HW172051   0.453   8.993  11.168
56718SOL    HW272052   0.546   8.896  11.101
56719SOL     OW72053   4.546   9.283   9.901
56719SOL    HW172054   4.546   9.379   9.903
56719SOL    HW272055   4.576   9.258   9.989
56720SOL     OW72056  11.468  14.337  14.765
56720SOL    HW172057  11.529  14.282  14.716
56720SOL    HW272058  11.391  14.345  14.708
56721SOL     OW72059   0.752  11.117   7.502
56721SOL    HW172060   0.773  11.103   7.409
56721SOL    HW272061   0.686  11.186   7.501
56722SOL     OW72062   6.960  11.461  11.382
56722SOL    HW172063   6.972  11.396  11.451
56722SOL    HW272064   6.987  11.544  11.422
56723SOL     OW72065   8.432  13.027   5.395
56723SOL    HW172066   8.486  13.011   5.317
56723SOL    HW272067   8.343  13.036   5.361
56724SOL     OW72068   7.703   7.556  12.009
56724SOL    HW172069   7.742   7.540  11.923
56724SOL    HW272070   7.776   7.551  12.070
56725SOL     OW72071  10.526  12.893  10.741
56725SOL    HW172072  10.607  12.942  10.755
56725SOL    HW272073  10.555  12.804  10.718
56726SOL     OW72074   3.027   7.740  13.204
56726SOL    HW172075   3.031   7.816  13.146
56726SOL    HW272076   2.943   7.748  13.249
56727SOL     OW72077   3.145   9.555   3.957
56727SOL    HW172078   3.218   9.575   4.015
56727SOL    HW272079   3.094   9.636   3.954
56728SOL     OW72080  11.173   2.427   7.499
56728SOL    HW172081  11.165   2.480   7.420
56728SOL    HW272082  11.238   2.361   7.477
56729SOL     OW72083   2.628  14.356   7.270
56729SOL    HW172084   2.670  14.294   7.329
56729SOL    HW272085   2.535  14.332   7.273
56730SOL     OW72086   2.237   0.139   0.159
56730SOL    HW172087   2.258   0.229   0.134
56730SOL    HW272088   2.284   0.125   0.241
56731SOL     OW72089   0.207  10.010   5.504
56731SOL    HW172090   0.131   9.974   5.549
56731SOL    HW272091   0.217  10.098   5.539
56732SOL     OW72092   5.089   7.745   8.382
56732SOL    HW172093   5.052   7.833   8.374
56732SOL    HW272094   5.071   7.704   8.297
56733SOL     OW72095  14.564  14.502   5.255
56733SOL    HW172096  14.523  14.420   5.280
56733SOL    HW272097  14.631  14.517   5.322
56734SOL     OW72098   2.186   2.394   8.259
56734SOL    HW172099   2.250   2.461   8.283
56734SOL    HW272100   2.109   2.414   8.311
56735SOL     OW72101  14.351   2.370   4.193
56735SOL    HW172102  14.375   2.435   4.128
56735SOL    HW272103  14.281   2.410   4.243
56736SOL     OW72104   5.307  13.125   1.385
56736SOL    HW172105   5.230  13.080   1.348
56736SOL    HW272106   5.316  13.204   1.332
56737SOL     OW72107   6.667   1.228   1.852
56737SOL    HW172108   6.642   1.208   1.942
56737SOL    HW272109   6.760   1.251   1.858
56738SOL     OW72110   3.024   1.350   5.076
56738SOL    HW172111   3.064   1.332   4.991
56738SOL    HW272112   2.938   1.307   5.072
56739SOL     OW72113   5.706  14.840   2.327
56739SOL    HW172114   5.776  14.775   2.320
56739SOL    HW272115   5.750   0.055   2.326
56740SOL     OW72116   2.228   7.491  12.351
56740SOL    HW172117   2.245   7.535  12.434
56740SOL    HW272118   2.144   7.527  12.321
56741SOL     OW72119   1.284  11.386  12.375
56741SOL    HW172120   1.192  11.359  12.375
56741SOL    HW272121   1.305  11.399  12.283
56742SOL     OW72122   4.055   4.694  14.012
56742SOL    HW172123   4.047   4.767  14.073
56742SOL    HW272124   4.126   4.718  13.953
56743SOL     OW72125   2.084   9.644   6.415
56743SOL    HW172126   2.037   9.647   6.498
56743SOL    HW272127   2.074   9.731   6.378
56744SOL     OW72128   2.867   6.100   2.719
56744SOL    HW172129   2.815   6.072   2.643
56744SOL    HW272130   2.942   6.041   2.719
56745SOL     OW72131   2.676  14.512   9.942
56745SOL    HW172132   2.652  14.510  10.035
56745SOL    HW272133   2.716  14.598   9.930
56746SOL     OW72134   4.385   7.366   6.315
56746SOL    HW172135   4.404   7.456   6.289
56746SOL    HW272136   4.315   7.338   6.256
56747SOL     OW72137   8.585   8.748   8.267
56747SOL    HW172138   8.607   8.815   8.331
56747SOL    HW272139   8.494   8.725   8.287
56748SOL     OW72140   6.926   8.287  14.174
56748SOL    HW172141   6.842   8.301  14.217
56748SOL    HW272142   6.987   8.273  14.246
56749SOL     OW72143   3.855   0.037  12.922
56749SOL    HW172144   3.810  14.836  12.875
56749SOL    HW272145   3.926  14.862  12.969
56750SOL     OW72146   1.477  11.090  12.351
56750SOL    HW172147   1.541  11.103  12.421
56750SOL    HW272148   1.415  11.162  12.362
56751SOL     OW72149  11.476  12.269   6.786
56751SOL    HW172150  11.465  12.245   6.879
56751SOL    HW272151  11.407  12.332   6.769
56752SOL     OW72152  12.180  10.194   8.046
56752SOL    HW172153  12.253  10.149   8.005
56752SOL    HW272154  12.217  10.234   8.125
56753SOL     OW72155   1.806   8.600   2.898
56753SOL    HW172156   1.825   8.515   2.858
56753SOL    HW272157   1.736   8.583   2.960
56754SOL     OW72158   9.694  13.465  12.502
56754SOL    HW172159   9.622  13.527  12.487
56754SOL    HW272160   9.662  13.408  12.572
56755SOL     OW72161   5.665   2.002   2.564
56755SOL    HW172162   5.614   2.055   2.502
56755SOL    HW272163   5.690   2.063   2.633
56756SOL     OW72164   1.509   8.367   7.458
56756SOL    HW172165   1.585   8.378   7.515
56756SOL    HW272166   1.544   8.323   7.380
56757SOL     OW72167   3.193   8.052   7.403
56757SOL    HW172168   3.125   8.118   7.388
56757SOL    HW272169   3.241   8.084   7.480
56758SOL     OW72170   8.861  11.268   1.052
56758SOL    HW172171   8.867  11.237   1.142
56758SOL    HW272172   8.825  11.194   1.004
56759SOL     OW72173   0.414  12.421   9.102
56759SOL    HW172174   0.425  12.334   9.064
56759SOL    HW272175   0.347  12.462   9.047
56760SOL     OW72176  13.088  11.971   8.819
56760SOL    HW172177  13.179  11.964   8.790
56760SOL    HW272178  13.036  11.958   8.739
56761SOL     OW72179  14.268   5.168  11.215
56761SOL    HW172180  14.281   5.253  11.258
56761SOL    HW272181  14.198   5.126  11.265
56762SOL     OW72182   2.496   6.155  13.262
56762SOL    HW172183   2.568   6.134  13.322
56762SOL    HW272184   2.418   6.156  13.318
56763SOL     OW72185  10.150   0.534  12.053
56763SOL    HW172186  10.214   0.535  11.982
56763SOL    HW272187  10.200   0.552  12.132
56764SOL     OW72188   2.072   1.013  10.341
56764SOL    HW172189   2.101   0.931  10.381
56764SOL    HW272190   1.991   0.990  10.295
56765SOL     OW72191   1.261   0.085  12.244
56765SOL    HW172192   1.193   0.139  12.286
56765SOL    HW272193   1.336   0.091  12.303
56766SOL     OW72194   6.979  13.400   6.076
56766SOL    HW172195   7.012  13.326   6.126
56766SOL    HW272196   6.884  13.387   6.074
56767SOL     OW72197   9.987   5.327  13.857
56767SOL    HW172198   9.947   5.253  13.902
56767SOL    HW272199   9.931   5.342  13.781
56768SOL     OW72200   5.969   2.217   2.609
56768SOL    HW172201   6.012   2.263   2.681
56768SOL    HW272202   6.003   2.128   2.613
56769SOL     OW72203  13.382   3.919   5.213
56769SOL    HW172204  13.298   3.961   5.235
56769SOL    HW272205  13.358   3.829   5.192
56770SOL     OW72206   9.706  13.507   4.017
56770SOL    HW172207   9.728  13.543   3.931
56770SOL    HW272208   9.699  13.413   4.002
56771SOL     OW72209  11.720   0.014   5.308
56771SOL    HW172210  11.654  14.851   5.246
56771SOL    HW272211  11.672   0.021   5.391
56772SOL     OW72212   2.145  13.132   8.874
56772SOL    HW172213   2.171  13.170   8.790
56772SOL    HW272214   2.132  13.039   8.855
56773SOL     OW72215   8.447   9.636  14.617
56773SOL    HW172216   8.380   9.578  14.580
56773SOL    HW272217   8.523   9.625  14.560
56774SOL     OW72218  11.512   0.215   3.785
56774SOL    HW172219  11.563   0.273   3.728
56774SOL    HW272220  11.487   0.271   3.859
56775SOL     OW72221   9.651   6.030   4.941
56775SOL    HW172222   9.583   6.091   4.967
56775SOL    HW272223   9.729   6.058   4.989
56776SOL     OW72224   5.064   8.502  11.056
56776SOL    HW172225   5.139   8.554  11.085
56776SOL    HW272226   4.988   8.559  11.070
56777SOL     OW72227   1.585   4.415  10.325
56777SOL    HW172228   1.618   4.397  10.413
56777SOL    HW272229   1.560   4.329  10.290
56778SOL     OW72230   7.626  12.555   9.969
56778SOL    HW172231   7.716  12.581   9.990
56778SOL    HW272232   7.585  12.634   9.936
56779SOL     OW72233   9.026   2.713   3.764
56779SOL    HW172234   9.100   2.725   3.823
56779SOL    HW272235   8.954   2.688   3.821
56780SOL     OW72236   4.889   4.077  14.553
56780SOL    HW172237   4.972   4.079  14.599
56780SOL    HW272238   4.836   4.014  14.602
56781SOL     OW72239  14.033  12.384  11.280
56781SOL    HW172240  14.091  12.454  11.251
56781SOL    HW272241  14.008  12.338  11.199
56782SOL     OW72242   5.548   4.252   7.053
56782SOL    HW172243   5.594   4.220   6.975
56782SOL    HW272244   5.577   4.343   7.062
56783SOL     OW72245   1.051   9.836  11.229
56783SOL    HW172246   1.065   9.930  11.219
56783SOL    HW272247   1.015   9.808  11.145
56784SOL     OW72248   3.074  13.296  12.714
56784SOL    HW172249   3.046  13.284  12.623
56784SOL    HW272250   2.997  13.331  12.759
56785SOL     OW72251  13.166   6.892  13.448
56785SOL    HW172252  13.252   6.904  13.407
56785SOL    HW272253  13.161   6.797  13.464
56786SOL     OW72254   8.391   9.981  14.376
56786SOL    HW172255   8.390   9.888  14.399
56786SOL    HW272256   8.365  10.026  14.456
56787SOL     OW72257   6.944   5.602   5.488
56787SOL    HW172258   6.911   5.636   5.571
56787SOL    HW272259   7.015   5.543   5.513
56788SOL     OW72260   6.311  11.644   7.887
56788SOL    HW172261   6.403  11.658   7.867
56788SOL    HW272262   6.311  11.607   7.976
56789SOL     OW72263  13.715   9.069   0.428
56789SOL    HW172264  13.721   9.035   0.339
56789SOL    HW272265  13.751   9.158   0.422
56790SOL     OW72266  12.832   9.665  12.801
56790SOL    HW172267  12.740   9.679  12.824
56790SOL    HW272268  12.830   9.630  12.712
56791SOL     OW72269  11.778   3.048  12.670
56791SOL    HW172270  11.761   3.114  12.602
56791SOL    HW272271  11.872   3.032  12.664
56792SOL     OW72272   9.768   1.797   4.958
56792SOL    HW172273   9.713   1.830   5.029
56792SOL    HW272274   9.713   1.733   4.913
56793SOL     OW72275   4.807   5.015   5.992
56793SOL    HW172276   4.762   5.005   6.076
56793SOL    HW272277   4.771   4.946   5.937
56794SOL     OW72278   5.594   2.836  14.337
56794SOL    HW172279   5.668   2.776  14.340
56794SOL    HW272280   5.619   2.903  14.273
56795SOL     OW72281  14.728  12.486   0.028
56795SOL    HW172282  14.752  12.471   0.119
56795SOL    HW272283  14.798  12.542  14.863
56796SOL     OW72284   4.838   6.100   5.462
56796SOL    HW172285   4.910   6.039   5.473
56796SOL    HW272286   4.771   6.050   5.414
56797SOL     OW72287   9.324   6.278  13.514
56797SOL    HW172288   9.310   6.222  13.438
56797SOL    HW272289   9.416   6.265  13.537
56798SOL     OW72290   8.370  10.425   9.136
56798SOL    HW172291   8.428  10.410   9.210
56798SOL    HW272292   8.344  10.516   9.145
56799SOL     OW72293  13.226   1.272  10.303
56799SOL    HW172294  13.254   1.181  10.308
56799SOL    HW272295  13.212   1.288  10.209
56800SOL     OW72296  12.659  10.401   2.989
56800SOL    HW172297  12.737  10.358   2.952
56800SOL    HW272298  12.660  10.376   3.081
56801SOL     OW72299   0.716  12.634  14.497
56801SOL    HW172300   0.712  12.694  14.423
56801SOL    HW272301   0.765  12.559  14.465
56802SOL     OW72302   5.113  10.388   1.793
56802SOL    HW172303   5.044  10.328   1.821
56802SOL    HW272304   5.068  10.455   1.742
56803SOL     OW72305  10.106   9.594   4.223
56803SOL    HW172306  10.144   9.679   4.201
56803SOL    HW272307  10.018   9.615   4.254
56804SOL     OW72308   0.737   8.193   7.144
56804SOL    HW172309   0.794   8.270   7.155
56804SOL    HW272310   0.776   8.126   7.199
56805SOL     OW72311   2.917   5.629   4.192
56805SOL    HW172312   3.000   5.633   4.146
56805SOL    HW272313   2.929   5.686   4.269
56806SOL     OW72314   0.007   6.572   3.818
56806SOL    HW172315   0.027   6.630   3.892
56806SOL    HW272316   0.075   6.593   3.753
56807SOL     OW72317  10.075  13.380  13.147
56807SOL    HW172318  10.028  13.453  13.186
56807SOL    HW272319  10.048  13.380  13.055
56808SOL     OW72320   7.500  10.512   3.934
56808SOL    HW172321   7.450  10.470   3.864
56808SOL    HW272322   7.558  10.443   3.968
56809SOL     OW72323  11.534   8.847   5.949
56809SOL    HW172324  11.617   8.811   5.980
56809SOL    HW272325  11.485   8.868   6.029
56810SOL     OW72326  13.653  14.542   7.518
56810SOL    HW172327  13.595  14.542   7.593
56810SOL    HW272328  13.688  14.631   7.515
56811SOL     OW72329  11.468   5.872   9.062
56811SOL    HW172330  11.435   5.783   9.053
56811SOL    HW272331  11.433   5.919   8.986
56812SOL     OW72332  11.107  14.849   5.827
56812SOL    HW172333  11.019  14.854   5.866
56812SOL    HW272334  11.159   0.040   5.879
56813SOL     OW72335   6.993  10.266   0.710
56813SOL    HW172336   6.990  10.173   0.734
56813SOL    HW272337   7.086  10.286   0.702
56814SOL     OW72338   5.633   9.321  11.954
56814SOL    HW172339   5.646   9.385  11.884
56814SOL    HW272340   5.596   9.245  11.909
56815SOL     OW72341   6.449   7.784   1.870
56815SOL    HW172342   6.476   7.857   1.926
56815SOL    HW272343   6.479   7.706   1.915
56816SOL     OW72344  13.736   8.868  10.338
56816SOL    HW172345  13.677   8.909  10.401
56816SOL    HW272346  13.681   8.848  10.263
56817SOL     OW72347   5.184   9.151   3.642
56817SOL    HW172348   5.146   9.164   3.729
56817SOL    HW272349   5.237   9.228   3.627
56818SOL     OW72350  12.802   6.043  10.120
56818SOL    HW172351  12.753   6.100  10.060
56818SOL    HW272352  12.765   5.956  10.106
56819SOL     OW72353   2.335   3.645   8.949
56819SOL    HW172354   2.402   3.713   8.954
56819SOL    HW272355   2.315   3.638   8.855
56820SOL     OW72356   0.925   6.114   2.013
56820SOL    HW172357   0.854   6.141   1.955
56820SOL    HW272358   0.935   6.020   1.998
56821SOL     OW72359  11.227  11.866   4.841
56821SOL    HW172360  11.174  11.847   4.919
56821SOL    HW272361  11.216  11.789   4.785
56822SOL     OW72362   6.959   2.221   5.585
56822SOL    HW172363   7.016   2.193   5.514
56822SOL    HW272364   7.017   2.229   5.660
56823SOL     OW72365   5.319   5.051   3.985
56823SOL    HW172366   5.263   4.988   3.940
56823SOL    HW272367   5.405   5.009   3.988
56824SOL     OW72368   7.382   0.966   9.211
56824SOL    HW172369   7.348   0.981   9.123
56824SOL    HW272370   7.448   0.897   9.199
56825SOL     OW72371  11.442   3.291  11.054
56825SOL    HW172372  11.411   3.242  10.978
56825SOL    HW272373  11.413   3.381  11.039
56826SOL     OW72374   9.826  12.750   5.533
56826SOL    HW172375   9.787  12.765   5.446
56826SOL    HW272376   9.898  12.689   5.516
56827SOL     OW72377   8.690  14.657   7.038
56827SOL    HW172378   8.763  14.682   6.981
56827SOL    HW272379   8.732  14.628   7.119
56828SOL     OW72380  10.117   6.778   7.079
56828SOL    HW172381  10.136   6.871   7.089
56828SOL    HW272382  10.045   6.774   7.016
56829SOL     OW72383   4.415   0.656   4.459
56829SOL    HW172384   4.511   0.660   4.462
56829SOL    HW272385   4.395   0.583   4.401
56830SOL     OW72386   6.562   5.461   8.791
56830SOL    HW172387   6.508   5.515   8.733
56830SOL    HW272388   6.504   5.388   8.814
56831SOL     OW72389   0.490   8.259   5.804
56831SOL    HW172390   0.494   8.249   5.709
56831SOL    HW272391   0.531   8.180   5.839
56832SOL     OW72392  14.544  12.454   7.174
56832SOL    HW172393  14.530  12.374   7.224
56832SOL    HW272394  14.484  12.446   7.099
56833SOL     OW72395   0.466  12.716  14.500
56833SOL    HW172396   0.561  12.712  14.507
56833SOL    HW272397   0.445  12.809  14.512
56834SOL     OW72398  14.557   6.319   9.329
56834SOL    HW172399  14.500   6.262   9.380
56834SOL    HW272400  14.623   6.261   9.293
56835SOL     OW72401  13.439   2.128   6.928
56835SOL    HW172402  13.500   2.071   6.881
56835SOL    HW272403  13.493   2.198   6.964
56836SOL     OW72404   6.285   0.011   0.344
56836SOL    HW172405   6.265  14.822   0.270
56836SOL    HW272406   6.296   0.097   0.304
56837SOL     OW72407  10.163   2.583   0.161
56837SOL    HW172408  10.190   2.621   0.245
56837SOL    HW272409  10.172   2.655   0.098
56838SOL     OW72410   7.265  10.520  12.007
56838SOL    HW172411   7.305  10.437  12.036
56838SOL    HW272412   7.248  10.507  11.914
56839SOL     OW72413  13.121   6.600  13.526
56839SOL    HW172414  13.116   6.595  13.621
56839SOL    HW272415  13.053   6.541  13.495
56840SOL     OW72416   8.557  12.660   5.264
56840SOL    HW172417   8.497  12.732   5.247
56840SOL    HW272418   8.599  12.682   5.347
56841SOL     OW72419   7.538   0.085   0.863
56841SOL    HW172420   7.583   0.031   0.928
56841SOL    HW272421   7.445   0.069   0.879
56842SOL     OW72422   0.887  13.032   6.648
56842SOL    HW172423   0.973  13.007   6.680
56842SOL    HW272424   0.826  12.976   6.695
56843SOL     OW72425   8.149   1.762   4.932
56843SOL    HW172426   8.209   1.715   4.874
56843SOL    HW272427   8.155   1.716   5.015
56844SOL     OW72428   8.979  12.605  14.823
56844SOL    HW172429   8.909  12.549  14.790
56844SOL    HW272430   8.954  12.624   0.044
56845SOL     OW72431   7.865   7.510   6.281
56845SOL    HW172432   7.930   7.572   6.247
56845SOL    HW272433   7.915   7.455   6.342
56846SOL     OW72434   8.303   5.101   4.129
56846SOL    HW172435   8.270   5.114   4.218
56846SOL    HW272436   8.314   5.189   4.095
56847SOL     OW72437  13.942   5.070   2.418
56847SOL    HW172438  14.000   5.086   2.492
56847SOL    HW272439  13.877   5.140   2.422
56848SOL     OW72440   7.608   6.870   7.069
56848SOL    HW172441   7.529   6.924   7.079
56848SOL    HW272442   7.663   6.894   7.144
56849SOL     OW72443   9.972   4.069  10.497
56849SOL    HW172444  10.032   4.010  10.543
56849SOL    HW272445   9.953   4.137  10.562
56850SOL     OW72446   2.319   7.500  11.615
56850SOL    HW172447   2.348   7.485  11.525
56850SOL    HW272448   2.238   7.448  11.623
56851SOL     OW72449  10.485   6.242   5.080
56851SOL    HW172450  10.394   6.272   5.086
56851SOL    HW272451  10.536   6.320   5.063
56852SOL     OW72452   1.127   2.971   5.357
56852SOL    HW172453   1.208   2.972   5.306
56852SOL    HW272454   1.115   2.879   5.381
56853SOL     OW72455  12.609   3.190   3.263
56853SOL    HW172456  12.609   3.102   3.301
56853SOL    HW272457  12.518   3.206   3.238
56854SOL     OW72458   7.880  11.686  11.955
56854SOL    HW172459   7.856  11.765  12.004
56854SOL    HW272460   7.961  11.709  11.910
56855SOL     OW72461   3.468  12.410   8.851
56855SOL    HW172462   3.464  12.403   8.755
56855SOL    HW272463   3.385  12.372   8.881
56856SOL     OW72464   1.778  12.529  14.304
56856SOL    HW172465   1.744  12.454  14.353
56856SOL    HW272466   1.742  12.518  14.216
56857SOL     OW72467  13.235   5.847   7.829
56857SOL    HW172468  13.196   5.819   7.912
56857SOL    HW272469  13.326   5.865   7.850
56858SOL     OW72470   2.746   5.285   2.229
56858SOL    HW172471   2.770   5.203   2.274
56858SOL    HW272472   2.686   5.257   2.160
56859SOL     OW72473  14.007   4.764  13.025
56859SOL    HW172474  13.969   4.688  12.980
56859SOL    HW272475  14.099   4.740  13.039
56860SOL     OW72476   7.316  14.359   9.628
56860SOL    HW172477   7.362  14.396   9.703
56860SOL    HW272478   7.386  14.326   9.571
56861SOL     OW72479   9.579  10.495   2.708
56861SOL    HW172480   9.647  10.558   2.733
56861SOL    HW272481   9.621  10.410   2.718
56862SOL     OW72482  13.619   5.899   1.149
56862SOL    HW172483  13.711   5.881   1.133
56862SOL    HW272484  13.594   5.960   1.079
56863SOL     OW72485  11.281   5.301   8.772
56863SOL    HW172486  11.367   5.260   8.778
56863SOL    HW272487  11.223   5.230   8.743
56864SOL     OW72488   3.461  11.375   8.230
56864SOL    HW172489   3.484  11.327   8.310
56864SOL    HW272490   3.437  11.462   8.261
56865SOL     OW72491   3.226  12.608   8.006
56865SOL    HW172492   3.131  12.598   8.011
56865SOL    HW272493   3.242  12.646   7.919
56866SOL     OW72494  12.775  10.616   5.252
56866SOL    HW172495  12.712  10.545   5.266
56866SOL    HW272496  12.741  10.661   5.174
56867SOL     OW72497   7.356   0.899   5.762
56867SOL    HW172498   7.297   0.973   5.777
56867SOL    HW272499   7.337   0.872   5.672
56868SOL     OW72500  13.024   8.679  14.499
56868SOL    HW172501  12.968   8.602  14.507
56868SOL    HW272502  12.967   8.746  14.462
56869SOL     OW72503   3.358   4.341  12.111
56869SOL    HW172504   3.271   4.301  12.112
56869SOL    HW272505   3.389   4.334  12.201
56870SOL     OW72506   0.583   5.915   7.113
56870SOL    HW172507   0.582   5.915   7.017
56870SOL    HW272508   0.668   5.876   7.136
56871SOL     OW72509   3.687   8.682  11.102
56871SOL    HW172510   3.755   8.710  11.040
56871SOL    HW272511   3.656   8.598  11.068
56872SOL     OW72512  13.795   7.426   4.012
56872SOL    HW172513  13.847   7.408   4.090
56872SOL    HW272514  13.777   7.340   3.975
56873SOL     OW72515   4.711  10.983  11.846
56873SOL    HW172516   4.702  11.078  11.842
56873SOL    HW272517   4.730  10.956  11.756
56874SOL     OW72518   9.698  13.956  12.800
56874SOL    HW172519   9.758  14.018  12.759
56874SOL    HW272520   9.742  13.871  12.793
56875SOL     OW72521   9.302   2.742   3.879
56875SOL    HW172522   9.349   2.665   3.910
56875SOL    HW272523   9.368   2.794   3.833
56876SOL     OW72524  14.432  12.894   1.541
56876SOL    HW172525  14.505  12.951   1.566
56876SOL    HW272526  14.361  12.917   1.602
56877SOL     OW72527   8.122   7.475  10.173
56877SOL    HW172528   8.158   7.543  10.231
56877SOL    HW272529   8.055   7.431  10.225
56878SOL     OW72530   7.118  14.217  14.078
56878SOL    HW172531   7.165  14.298  14.097
56878SOL    HW272532   7.037  14.223  14.129
56879SOL     OW72533   4.550  11.205   2.876
56879SOL    HW172534   4.461  11.237   2.891
56879SOL    HW272535   4.539  11.126   2.822
56880SOL     OW72536  10.522  14.576  12.686
56880SOL    HW172537  10.524  14.650  12.626
56880SOL    HW272538  10.456  14.600  12.752
56881SOL     OW72539   9.285  11.136   1.737
56881SOL    HW172540   9.360  11.120   1.795
56881SOL    HW272541   9.234  11.055   1.742
56882SOL     OW72542   0.914   4.240  13.739
56882SOL    HW172543   0.993   4.250  13.793
56882SOL    HW272544   0.867   4.322  13.752
56883SOL     OW72545   6.300   8.868   0.060
56883SOL    HW172546   6.388   8.830   0.052
56883SOL    HW272547   6.301   8.944   0.002
56884SOL     OW72548  14.064   9.128  10.314
56884SOL    HW172549  14.071   9.122  10.219
56884SOL    HW272550  14.151   9.154  10.343
56885SOL     OW72551  10.319  11.381   0.711
56885SOL    HW172552  10.273  11.432   0.645
56885SOL    HW272553  10.330  11.442   0.785
56886SOL     OW72554   4.482   2.308  11.107
56886SOL    HW172555   4.474   2.216  11.130
56886SOL    HW272556   4.473   2.354  11.191
56887SOL     OW72557  10.709   2.510   0.034
56887SOL    HW172558  10.748   2.591   0.000
56887SOL    HW272559  10.646   2.484  14.836
56888SOL     OW72560   1.038  10.263  14.391
56888SOL    HW172561   1.120  10.300  14.423
56888SOL    HW272562   1.048  10.168  14.402
56889SOL     OW72563   6.711   8.355   7.389
56889SOL    HW172564   6.761   8.345   7.471
56889SOL    HW272565   6.738   8.441   7.356
56890SOL     OW72566   9.204   8.227   4.629
56890SOL    HW172567   9.233   8.176   4.705
56890SOL    HW272568   9.144   8.168   4.583
56891SOL     OW72569   3.500   8.102   1.335
56891SOL    HW172570   3.521   8.009   1.343
56891SOL    HW272571   3.407   8.107   1.356
56892SOL     OW72572  13.442   1.117   5.317
56892SOL    HW172573  13.489   1.193   5.281
56892SOL    HW272574  13.452   1.049   5.251
56893SOL     OW72575   5.125  12.578  13.483
56893SOL    HW172576   5.138  12.579  13.388
56893SOL    HW272577   5.113  12.486  13.505
56894SOL     OW72578   7.864   6.145   9.900
56894SOL    HW172579   7.883   6.178   9.988
56894SOL    HW272580   7.893   6.215   9.841
56895SOL     OW72581   1.219   7.125   7.816
56895SOL    HW172582   1.302   7.077   7.805
56895SOL    HW272583   1.190   7.102   7.905
56896SOL     OW72584  12.755  14.730   4.740
56896SOL    HW172585  12.793  14.790   4.804
56896SOL    HW272586  12.698  14.673   4.791
56897SOL     OW72587  12.820   8.009   0.323
56897SOL    HW172588  12.895   7.972   0.369
56897SOL    HW272589  12.834   8.103   0.327
56898SOL     OW72590  13.721   3.901   3.696
56898SOL    HW172591  13.674   3.926   3.616
56898SOL    HW272592  13.754   3.984   3.731
56899SOL     OW72593   2.083   4.562   5.914
56899SOL    HW172594   2.027   4.542   5.840
56899SOL    HW272595   2.029   4.617   5.971
56900SOL     OW72596  14.273   6.025   9.800
56900SOL    HW172597  14.219   6.000   9.874
56900SOL    HW272598  14.261   5.954   9.737
56901SOL     OW72599  12.925   3.486   8.207
56901SOL    HW172600  12.918   3.576   8.240
56901SOL    HW272601  12.898   3.491   8.115
56902SOL     OW72602   4.313  14.283   1.253
56902SOL    HW172603   4.390  14.336   1.274
56902SOL    HW272604   4.325  14.202   1.304
56903SOL     OW72605   0.258  13.769  12.903
56903SOL    HW172606   0.268  13.674  12.906
56903SOL    HW272607   0.167  13.783  12.876
56904SOL     OW72608   7.657   9.350  11.468
56904SOL    HW172609   7.679   9.325  11.378
56904SOL    HW272610   7.613   9.435  11.459
56905SOL     OW72611  12.300   7.330   4.312
56905SOL    HW172612  12.388   7.294   4.312
56905SOL    HW272613  12.244   7.257   4.285
56906SOL     OW72614   8.393  11.725   1.566
56906SOL    HW172615   8.367  11.816   1.550
56906SOL    HW272616   8.437  11.698   1.485
56907SOL     OW72617  14.446   2.216  10.677
56907SOL    HW172618  14.389   2.291  10.661
56907SOL    HW272619  14.400   2.142  10.638
56908SOL     OW72620   2.272   1.592   9.308
56908SOL    HW172621   2.296   1.519   9.365
56908SOL    HW272622   2.254   1.551   9.223
56909SOL     OW72623   7.449  12.417   7.832
56909SOL    HW172624   7.471  12.326   7.852
56909SOL    HW272625   7.353  12.417   7.822
56910SOL     OW72626   0.461  10.770  12.830
56910SOL    HW172627   0.419  10.842  12.877
56910SOL    HW272628   0.466  10.800  12.739
56911SOL     OW72629   7.206  13.329  10.441
56911SOL    HW172630   7.298  13.307  10.458
56911SOL    HW272631   7.172  13.357  10.526
56912SOL     OW72632  12.905   4.485   5.023
56912SOL    HW172633  12.927   4.569   5.063
56912SOL    HW272634  12.892   4.506   4.930
56913SOL     OW72635   9.806   3.953   8.371
56913SOL    HW172636   9.718   3.975   8.340
56913SOL    HW272637   9.817   4.002   8.453
56914SOL     OW72638   0.602  11.952   9.509
56914SOL    HW172639   0.523  11.955   9.454
56914SOL    HW272640   0.605  12.038   9.551
56915SOL     OW72641   6.372   8.895  10.602
56915SOL    HW172642   6.278   8.896  10.587
56915SOL    HW272643   6.400   8.986  10.587
56916SOL     OW72644  10.937   8.195  12.400
56916SOL    HW172645  11.032   8.204  12.392
56916SOL    HW272646  10.921   8.102  12.391
56917SOL     OW72647  14.584   7.775   8.894
56917SOL    HW172648  14.610   7.695   8.850
56917SOL    HW272649  14.628   7.773   8.979
56918SOL     OW72650  13.039   6.341  10.959
56918SOL    HW172651  12.958   6.315  11.002
56918SOL    HW272652  13.079   6.405  11.018
56919SOL     OW72653   2.417  13.471   0.047
56919SOL    HW172654   2.393  13.560   0.074
56919SOL    HW272655   2.333  13.426   0.038
56920SOL     OW72656   5.000   3.198  10.985
56920SOL    HW172657   5.008   3.199  10.890
56920SOL    HW272658   4.935   3.266  11.004
56921SOL     OW72659  11.083  10.656  13.176
56921SOL    HW172660  11.165  10.702  13.158
56921SOL    HW272661  11.060  10.615  13.093
56922SOL     OW72662   9.164   0.595   4.680
56922SOL    HW172663   9.111   0.666   4.717
56922SOL    HW272664   9.163   0.611   4.586
56923SOL     OW72665   2.333  14.601   4.845
56923SOL    HW172666   2.331  14.627   4.753
56923SOL    HW272667   2.318  14.683   4.893
56924SOL     OW72668   0.377   6.818  12.049
56924SOL    HW172669   0.355   6.765  11.972
56924SOL    HW272670   0.414   6.756  12.112
56925SOL     OW72671   4.011   8.869   8.370
56925SOL    HW172672   3.940   8.904   8.422
56925SOL    HW272673   3.968   8.818   8.301
56926SOL     OW72674   2.481   4.520  11.795
56926SOL    HW172675   2.394   4.540  11.829
56926SOL    HW272676   2.485   4.567  11.711
56927SOL     OW72677  14.395   6.339  13.704
56927SOL    HW172678  14.379   6.416  13.650
56927SOL    HW272679  14.329   6.344  13.773
56928SOL     OW72680   1.959   2.616   1.316
56928SOL    HW172681   1.917   2.683   1.370
56928SOL    HW272682   2.004   2.559   1.378
56929SOL     OW72683   3.336  11.156   6.768
56929SOL    HW172684   3.336  11.099   6.691
56929SOL    HW272685   3.426  11.187   6.776
56930SOL     OW72686  12.905   3.274  13.239
56930SOL    HW172687  12.936   3.302  13.153
56930SOL    HW272688  12.963   3.317  13.301
56931SOL     OW72689  10.231   2.628   3.579
56931SOL    HW172690  10.184   2.545   3.569
56931SOL    HW272691  10.312   2.616   3.530
56932SOL     OW72692   7.728   5.107  12.134
56932SOL    HW172693   7.712   5.073  12.046
56932SOL    HW272694   7.655   5.167  12.150
56933SOL     OW72695  12.058   9.477   3.404
56933SOL    HW172696  12.104   9.446   3.326
56933SOL    HW272697  11.998   9.405   3.427
56934SOL     OW72698   7.831   9.644   8.718
56934SOL    HW172699   7.775   9.721   8.708
56934SOL    HW272700   7.892   9.649   8.644
56935SOL     OW72701  11.332   5.560  12.702
56935SOL    HW172702  11.393   5.619  12.747
56935SOL    HW272703  11.255   5.614  12.685
56936SOL     OW72704  13.998   0.292   7.025
56936SOL    HW172705  14.068   0.265   7.085
56936SOL    HW272706  14.044   0.330   6.950
56937SOL     OW72707   2.070   3.055   7.409
56937SOL    HW172708   2.080   3.071   7.503
56937SOL    HW272709   2.128   2.981   7.391
56938SOL     OW72710   6.434   0.091   2.899
56938SOL    HW172711   6.461   0.171   2.943
56938SOL    HW272712   6.499   0.078   2.830
56939SOL     OW72713   4.218  10.454   2.836
56939SOL    HW172714   4.260  10.459   2.922
56939SOL    HW272715   4.229  10.541   2.799
56940SOL     OW72716   7.632  10.893   6.261
56940SOL    HW172717   7.540  10.919   6.259
56940SOL    HW272718   7.671  10.946   6.331
56941SOL     OW72719   9.119   4.415   4.931
56941SOL    HW172720   9.080   4.391   4.847
56941SOL    HW272721   9.107   4.338   4.986
56942SOL     OW72722  12.818   4.810   3.596
56942SOL    HW172723  12.786   4.851   3.515
56942SOL    HW272724  12.870   4.735   3.567
56943SOL     OW72725   5.125   7.086   3.796
56943SOL    HW172726   5.130   7.073   3.891
56943SOL    HW272727   5.074   7.166   3.786
56944SOL     OW72728   3.976   9.286  10.575
56944SOL    HW172729   4.005   9.226  10.644
56944SOL    HW272730   4.039   9.274  10.504
56945SOL     OW72731   9.666  11.429  10.495
56945SOL    HW172732   9.622  11.398  10.574
56945SOL    HW272733   9.650  11.361  10.430
56946SOL     OW72734   0.188   7.711   1.288
56946SOL    HW172735   0.185   7.624   1.248
56946SOL    HW272736   0.237   7.698   1.370
56947SOL     OW72737  12.782   5.903   7.681
56947SOL    HW172738  12.754   5.956   7.606
56947SOL    HW272739  12.733   5.821   7.672
56948SOL     OW72740  13.241   6.952  11.056
56948SOL    HW172741  13.230   6.945  11.150
56948SOL    HW272742  13.223   7.044  11.036
56949SOL     OW72743   8.406   6.827   9.146
56949SOL    HW172744   8.425   6.788   9.061
56949SOL    HW272745   8.323   6.789   9.172
56950SOL     OW72746  11.015  13.903   1.382
56950SOL    HW172747  11.002  13.973   1.446
56950SOL    HW272748  11.067  13.838   1.429
56951SOL     OW72749  13.883   8.690   3.836
56951SOL    HW172750  13.834   8.772   3.826
56951SOL    HW272751  13.975   8.718   3.832
56952SOL     OW72752   7.153  13.253  13.762
56952SOL    HW172753   7.127  13.331  13.813
56952SOL    HW272754   7.195  13.196  13.826
56953SOL     OW72755  13.459  10.142   8.633
56953SOL    HW172756  13.463  10.209   8.701
56953SOL    HW272757  13.550  10.118   8.617
56954SOL     OW72758   7.350   1.611  14.802
56954SOL    HW172759   7.302   1.639  14.725
56954SOL    HW272760   7.352   1.689  14.858
56955SOL     OW72761  10.527  12.543   8.797
56955SOL    HW172762  10.473  12.503   8.866
56955SOL    HW272763  10.503  12.495   8.718
56956SOL     OW72764  11.177   4.637  14.691
56956SOL    HW172765  11.135   4.551  14.689
56956SOL    HW272766  11.109   4.698  14.664
56957SOL     OW72767   3.402   1.661   2.612
56957SOL    HW172768   3.448   1.684   2.530
56957SOL    HW272769   3.465   1.608   2.660
56958SOL     OW72770  11.501   3.879   8.307
56958SOL    HW172771  11.451   3.918   8.379
56958SOL    HW272772  11.583   3.929   8.305
56959SOL     OW72773   7.018   2.809   6.341
56959SOL    HW172774   6.945   2.753   6.368
56959SOL    HW272775   6.994   2.896   6.372
56960SOL     OW72776  14.808   2.199   1.770
56960SOL    HW172777  14.818   2.190   1.865
56960SOL    HW272778  14.713   2.200   1.756
56961SOL     OW72779  14.281   9.122   4.443
56961SOL    HW172780  14.371   9.097   4.461
56961SOL    HW272781  14.277   9.216   4.462
56962SOL     OW72782  12.671  11.125   0.073
56962SOL    HW172783  12.740  11.060   0.060
56962SOL    HW272784  12.713  11.194   0.123
56963SOL     OW72785   5.740  14.476   7.203
56963SOL    HW172786   5.787  14.549   7.163
56963SOL    HW272787   5.787  14.457   7.283
56964SOL     OW72788   8.145   5.845   3.888
56964SOL    HW172789   8.111   5.782   3.951
56964SOL    HW272790   8.189   5.911   3.943
56965SOL     OW72791  10.920   1.032  13.279
56965SOL    HW172792  10.995   0.994  13.233
56965SOL    HW272793  10.925   1.125  13.262
56966SOL     OW72794   9.662   2.734   0.131
56966SOL    HW172795   9.717   2.659   0.105
56966SOL    HW272796   9.674   2.741   0.225
56967SOL     OW72797  10.670   7.460  10.400
56967SOL    HW172798  10.695   7.380  10.445
56967SOL    HW272799  10.741   7.477  10.337
56968SOL     OW72800   9.273   6.582   0.173
56968SOL    HW172801   9.349   6.631   0.203
56968SOL    HW272802   9.281   6.497   0.216
56969SOL     OW72803   3.609   5.635   2.754
56969SOL    HW172804   3.625   5.655   2.662
56969SOL    HW272805   3.517   5.609   2.757
56970SOL     OW72806   7.749  13.611   0.509
56970SOL    HW172807   7.833  13.570   0.486
56970SOL    HW272808   7.702  13.616   0.426
56971SOL     OW72809  13.065   0.573   7.405
56971SOL    HW172810  13.104   0.643   7.457
56971SOL    HW272811  12.990   0.544   7.457
56972SOL     OW72812   6.848  14.258  12.060
56972SOL    HW172813   6.852  14.316  12.137
56972SOL    HW272814   6.878  14.313  11.988
56973SOL     OW72815  13.487   1.780   3.639
56973SOL    HW172816  13.542   1.706   3.667
56973SOL    HW272817  13.429   1.796   3.714
56974SOL     OW72818  11.929   1.999   1.377
56974SOL    HW172819  12.020   1.994   1.405
56974SOL    HW272820  11.932   1.989   1.282
56975SOL     OW72821  14.273  10.668  14.467
56975SOL    HW172822  14.332  10.617  14.522
56975SOL    HW272823  14.251  10.745  14.521
56976SOL     OW72824   6.269   1.974  13.192
56976SOL    HW172825   6.236   1.888  13.165
56976SOL    HW272826   6.191   2.022  13.219
56977SOL     OW72827  13.271   8.922   8.429
56977SOL    HW172828  13.327   8.974   8.371
56977SOL    HW272829  13.183   8.935   8.395
56978SOL     OW72830  11.281   3.767   0.800
56978SOL    HW172831  11.186   3.755   0.791
56978SOL    HW272832  11.293   3.795   0.891
56979SOL     OW72833   6.448   1.286   8.704
56979SOL    HW172834   6.485   1.368   8.672
56979SOL    HW272835   6.478   1.220   8.641
56980SOL     OW72836   2.883   0.495   3.292
56980SOL    HW172837   2.958   0.549   3.317
56980SOL    HW272838   2.817   0.514   3.359
56981SOL     OW72839   1.279   8.939   1.582
56981SOL    HW172840   1.281   8.868   1.646
56981SOL    HW272841   1.344   8.914   1.516
56982SOL     OW72842   0.542  12.499   8.804
56982SOL    HW172843   0.486  12.470   8.732
56982SOL    HW272844   0.540  12.594   8.799
56983SOL     OW72845   4.619   0.514   1.831
56983SOL    HW172846   4.685   0.466   1.782
56983SOL    HW272847   4.551   0.449   1.851
56984SOL     OW72848  14.810   2.895   2.048
56984SOL    HW172849  14.815   2.860   2.137
56984SOL    HW272850  14.832   2.821   1.991
56985SOL     OW72851   4.925   4.304  12.384
56985SOL    HW172852   4.981   4.234  12.352
56985SOL    HW272853   4.842   4.261  12.406
56986SOL     OW72854  14.111   2.352  12.570
56986SOL    HW172855  14.145   2.441  12.562
56986SOL    HW272856  14.061   2.352  12.652
56987SOL     OW72857  14.690   3.709   3.908
56987SOL    HW172858  14.649   3.623   3.903
56987SOL    HW272859  14.642   3.754   3.977
56988SOL     OW72860   1.768  14.518   3.408
56988SOL    HW172861   1.703  14.448   3.416
56988SOL    HW272862   1.721  14.597   3.435
56989SOL     OW72863  12.470   2.802  14.370
56989SOL    HW172864  12.454   2.815  14.276
56989SOL    HW272865  12.563   2.777  14.375
56990SOL     OW72866  10.384   4.600  14.827
56990SOL    HW172867  10.477   4.623  14.827
56990SOL    HW272868  10.339   4.681  14.801
56991SOL     OW72869   6.926   0.477  14.029
56991SOL    HW172870   6.910   0.436  14.114
56991SOL    HW272871   6.900   0.568  14.041
56992SOL     OW72872   9.618  12.604   2.177
56992SOL    HW172873   9.620  12.663   2.252
56992SOL    HW272874   9.670  12.529   2.202
56993SOL     OW72875   7.240   3.989  12.760
56993SOL    HW172876   7.228   3.945  12.676
56993SOL    HW272877   7.332   4.016  12.760
56994SOL     OW72878  11.416  13.424   7.283
56994SOL    HW172879  11.507  13.429   7.313
56994SOL    HW272880  11.368  13.394   7.360
56995SOL     OW72881  13.388  10.720   9.284
56995SOL    HW172882  13.465  10.711   9.341
56995SOL    HW272883  13.419  10.773   9.211
56996SOL     OW72884   6.470   7.215   6.731
56996SOL    HW172885   6.474   7.120   6.740
56996SOL    HW272886   6.418   7.229   6.652
56997SOL     OW72887   6.784   1.236   9.449
56997SOL    HW172888   6.790   1.160   9.390
56997SOL    HW272889   6.823   1.207   9.531
56998SOL     OW72890   0.102  13.084   8.979
56998SOL    HW172891   0.172  13.084   9.045
56998SOL    HW272892   0.119  13.162   8.927
56999SOL     OW72893   8.704  12.268   2.126
56999SOL    HW172894   8.726  12.230   2.212
56999SOL    HW272895   8.787  12.271   2.079
57000SOL     OW72896   0.253   9.991   6.304
57000SOL    HW172897   0.343  10.022   6.300
57000SOL    HW272898   0.218  10.007   6.216
57001SOL     OW72899   0.271  12.577   3.400
57001SOL    HW172900   0.235  12.491   3.421
57001SOL    HW272901   0.343  12.589   3.461
57002SOL     OW72902   7.371   0.584  13.646
57002SOL    HW172903   7.373   0.575  13.741
57002SOL    HW272904   7.393   0.675  13.630
57003SOL     OW72905  10.818  10.413   7.738
57003SOL    HW172906  10.858  10.394   7.822
57003SOL    HW272907  10.825  10.508   7.730
57004SOL     OW72908   9.538   9.027   9.379
57004SOL    HW172909   9.563   9.116   9.354
57004SOL    HW272910   9.463   9.006   9.324
57005SOL     OW72911   0.245  13.657  12.202
57005SOL    HW172912   0.174  13.694  12.151
57005SOL    HW272913   0.277  13.730  12.255
57006SOL     OW72914  14.339   6.867  10.517
57006SOL    HW172915  14.283   6.800  10.556
57006SOL    HW272916  14.304   6.950  10.551
57007SOL     OW72917   8.403  12.241  11.510
57007SOL    HW172918   8.412  12.150  11.481
57007SOL    HW272919   8.446  12.243  11.596
57008SOL     OW72920   2.692   4.582  12.961
57008SOL    HW172921   2.694   4.677  12.969
57008SOL    HW272922   2.602   4.562  12.934
57009SOL     OW72923   7.227  13.592   3.040
57009SOL    HW172924   7.315  13.556   3.033
57009SOL    HW272925   7.233  13.656   3.111
57010SOL     OW72926   4.817  13.184  13.412
57010SOL    HW172927   4.780  13.233  13.486
57010SOL    HW272928   4.906  13.162  13.440
57011SOL     OW72929   7.065   5.285   3.673
57011SOL    HW172930   6.975   5.303   3.647
57011SOL    HW272931   7.058   5.246   3.760
57012SOL     OW72932   7.567   6.038  10.774
57012SOL    HW172933   7.627   6.055  10.846
57012SOL    HW272934   7.525   5.955  10.797
57013SOL     OW72935   4.677   6.080   0.977
57013SOL    HW172936   4.730   6.110   1.051
57013SOL    HW272937   4.610   6.025   1.018
57014SOL     OW72938  11.631  13.357  11.308
57014SOL    HW172939  11.567  13.428  11.302
57014SOL    HW272940  11.711  13.394  11.273
57015SOL     OW72941  11.430   7.204  11.824
57015SOL    HW172942  11.391   7.279  11.869
57015SOL    HW272943  11.356   7.147  11.803
57016SOL     OW72944   6.257   2.834  12.714
57016SOL    HW172945   6.340   2.835  12.761
57016SOL    HW272946   6.198   2.782  12.768
57017SOL     OW72947   3.809  14.299  13.495
57017SOL    HW172948   3.874  14.235  13.466
57017SOL    HW272949   3.860  14.377  13.517
57018SOL     OW72950  12.261   1.167   1.856
57018SOL    HW172951  12.320   1.098   1.887
57018SOL    HW272952  12.303   1.248   1.885
57019SOL     OW72953  12.471   9.115   2.788
57019SOL    HW172954  12.514   9.071   2.861
57019SOL    HW272955  12.509   9.074   2.710
57020SOL     OW72956  11.717   3.406   3.358
57020SOL    HW172957  11.708   3.354   3.279
57020SOL    HW272958  11.780   3.474   3.334
57021SOL     OW72959   0.382   0.494   6.631
57021SOL    HW172960   0.374   0.465   6.722
57021SOL    HW272961   0.462   0.545   6.628
57022SOL     OW72962  14.114   0.473   2.508
57022SOL    HW172963  14.146   0.444   2.593
57022SOL    HW272964  14.120   0.568   2.511
57023SOL     OW72965   6.531   6.091  12.529
57023SOL    HW172966   6.514   6.184  12.542
57023SOL    HW272967   6.537   6.054  12.617
57024SOL     OW72968  12.051   7.696   4.139
57024SOL    HW172969  12.135   7.665   4.174
57024SOL    HW272970  12.039   7.782   4.179
57025SOL     OW72971  14.090   1.734   5.815
57025SOL    HW172972  14.074   1.828   5.822
57025SOL    HW272973  14.106   1.706   5.905
57026SOL     OW72974   3.487   7.759   2.607
57026SOL    HW172975   3.531   7.709   2.677
57026SOL    HW272976   3.418   7.700   2.576
57027SOL     OW72977   0.943  10.735  14.865
57027SOL    HW172978   0.907  10.812   0.039
57027SOL    HW272979   0.952  10.762  14.773
57028SOL     OW72980  13.267   2.865   7.074
57028SOL    HW172981  13.248   2.789   7.019
57028SOL    HW272982  13.362   2.867   7.080
57029SOL     OW72983  13.218   5.055   5.663
57029SOL    HW172984  13.125   5.070   5.648
57029SOL    HW272985  13.253   5.141   5.685
57030SOL     OW72986  13.451  13.362  13.068
57030SOL    HW172987  13.358  13.381  13.052
57030SOL    HW272988  13.477  13.308  12.994
57031SOL     OW72989   4.064   1.206   0.312
57031SOL    HW172990   4.079   1.226   0.405
57031SOL    HW272991   4.150   1.178   0.280
57032SOL     OW72992  14.139   7.709  13.152
57032SOL    HW172993  14.146   7.617  13.127
57032SOL    HW272994  14.220   7.727  13.200
57033SOL     OW72995   9.960  13.713  11.062
57033SOL    HW172996   9.999  13.799  11.073
57033SOL    HW272997   9.873  13.720  11.103
57034SOL     OW72998  13.515  14.862   7.477
57034SOL    HW172999  13.590  14.850   7.535
57034SOL    HW273000  13.542  14.822   7.394
57035SOL     OW73001   5.282  13.435   7.321
57035SOL    HW173002   5.328  13.474   7.395
57035SOL    HW273003   5.190  13.430   7.349
57036SOL     OW73004  10.526   9.221   8.721
57036SOL    HW173005  10.493   9.153   8.662
57036SOL    HW273006  10.489   9.302   8.687
57037SOL     OW73007  10.926  11.786   6.574
57037SOL    HW173008  11.006  11.738   6.553
57037SOL    HW273009  10.866  11.720   6.606
57038SOL     OW73010   9.639   9.193   7.781
57038SOL    HW173011   9.607   9.155   7.699
57038SOL    HW273012   9.584   9.154   7.849
57039SOL     OW73013   5.228   5.913   3.199
57039SOL    HW173014   5.250   5.872   3.283
57039SOL    HW273015   5.158   5.974   3.220
57040SOL     OW73016   6.559   1.361   8.405
57040SOL    HW173017   6.510   1.417   8.465
57040SOL    HW273018   6.493   1.302   8.368
57041SOL     OW73019   2.899   9.882   1.586
57041SOL    HW173020   2.937   9.969   1.575
57041SOL    HW273021   2.805   9.896   1.576
57042SOL     OW73022   1.410   3.320  10.305
57042SOL    HW173023   1.367   3.234  10.304
57042SOL    HW273024   1.477   3.312  10.374
57043SOL     OW73025   0.221   5.439   5.344
57043SOL    HW173026   0.193   5.499   5.275
57043SOL    HW273027   0.235   5.355   5.300
57044SOL     OW73028   4.375   9.982   2.472
57044SOL    HW173029   4.417  10.066   2.491
57044SOL    HW273030   4.445   9.918   2.476
57045SOL     OW73031   8.086   4.418   8.446
57045SOL    HW173032   8.050   4.481   8.384
57045SOL    HW273033   8.068   4.332   8.406
57046SOL     OW73034   2.245   6.182   3.748
57046SOL    HW173035   2.226   6.256   3.806
57046SOL    HW273036   2.337   6.163   3.763
57047SOL     OW73037   6.162  11.883   0.453
57047SOL    HW173038   6.243  11.851   0.492
57047SOL    HW273039   6.094  11.829   0.493
57048SOL     OW73040   1.223  11.392   9.444
57048SOL    HW173041   1.213  11.484   9.422
57048SOL    HW273042   1.151  11.348   9.399
57049SOL     OW73043   9.496   1.621   8.478
57049SOL    HW173044   9.491   1.559   8.552
57049SOL    HW273045   9.502   1.707   8.520
57050SOL     OW73046  11.490   3.150   8.277
57050SOL    HW173047  11.538   3.117   8.202
57050SOL    HW273048  11.555   3.197   8.329
57051SOL     OW73049   0.858   2.512  13.533
57051SOL    HW173050   0.782   2.493  13.477
57051SOL    HW273051   0.822   2.564  13.605
57052SOL     OW73052  12.665   4.522   2.585
57052SOL    HW173053  12.602   4.539   2.515
57052SOL    HW273054  12.742   4.575   2.561
57053SOL     OW73055   6.316   9.800  11.063
57053SOL    HW173056   6.369   9.771  11.138
57053SOL    HW273057   6.310   9.723  11.006
57054SOL     OW73058   5.736   8.655  13.324
57054SOL    HW173059   5.724   8.604  13.244
57054SOL    HW273060   5.651   8.652  13.368
57055SOL     OW73061   5.119   5.729   7.271
57055SOL    HW173062   5.121   5.816   7.232
57055SOL    HW273063   5.056   5.737   7.343
57056SOL     OW73064   6.456   9.154   6.207
57056SOL    HW173065   6.448   9.245   6.176
57056SOL    HW273066   6.412   9.102   6.140
57057SOL     OW73067   9.787  14.604   9.114
57057SOL    HW173068   9.882  14.594   9.121
57057SOL    HW273069   9.772  14.698   9.121
57058SOL     OW73070   2.654   7.449   3.669
57058SOL    HW173071   2.703   7.387   3.724
57058SOL    HW273072   2.712   7.464   3.594
57059SOL     OW73073  13.534   2.113   8.060
57059SOL    HW173074  13.442   2.118   8.084
57059SOL    HW273075  13.569   2.199   8.081
57060SOL     OW73076   3.967   7.963   8.661
57060SOL    HW173077   3.986   8.050   8.626
57060SOL    HW273078   3.940   7.912   8.584
57061SOL     OW73079  14.386   0.707  13.608
57061SOL    HW173080  14.364   0.647  13.536
57061SOL    HW273081  14.445   0.771  13.568
57062SOL     OW73082   4.759   7.857   7.554
57062SOL    HW173083   4.734   7.834   7.643
57062SOL    HW273084   4.790   7.775   7.516
57063SOL     OW73085   9.598   2.175  14.206
57063SOL    HW173086   9.608   2.197  14.113
57063SOL    HW273087   9.648   2.242  14.252
57064SOL     OW73088  13.412   8.490   2.968
57064SOL    HW173089  13.464   8.560   2.927
57064SOL    HW273090  13.477   8.424   2.992
57065SOL     OW73091   7.861   9.466   4.050
57065SOL    HW173092   7.950   9.476   4.083
57065SOL    HW273093   7.805   9.490   4.124
57066SOL     OW73094   1.941   2.396  11.225
57066SOL    HW173095   1.873   2.412  11.160
57066SOL    HW273096   1.943   2.475  11.278
57067SOL     OW73097  13.520   5.909   8.628
57067SOL    HW173098  13.487   5.996   8.609
57067SOL    HW273099  13.502   5.858   8.549
57068SOL     OW73100   9.265  11.861   0.817
57068SOL    HW173101   9.244  11.768   0.813
57068SOL    HW273102   9.195  11.899   0.871
57069SOL     OW73103   0.468   8.936  12.838
57069SOL    HW173104   0.510   8.858  12.800
57069SOL    HW273105   0.421   8.976  12.765
57070SOL     OW73106  12.745  10.533  10.870
57070SOL    HW173107  12.674  10.526  10.933
57070SOL    HW273108  12.727  10.465  10.805
57071SOL     OW73109  12.900  12.282  11.110
57071SOL    HW173110  12.982  12.239  11.084
57071SOL    HW273111  12.911  12.373  11.081
57072SOL     OW73112   3.764   0.175   4.068
57072SOL    HW173113   3.708   0.137   4.136
57072SOL    HW273114   3.704   0.197   3.997
57073SOL     OW73115  14.774   4.235   6.204
57073SOL    HW173116  14.746   4.155   6.159
57073SOL    HW273117  14.859   4.256   6.164
57074SOL     OW73118  12.086   2.054   9.211
57074SOL    HW173119  12.178   2.078   9.211
57074SOL    HW273120  12.046   2.113   9.147
57075SOL     OW73121   5.069   0.847  11.853
57075SOL    HW173122   5.054   0.888  11.768
57075SOL    HW273123   5.137   0.782  11.836
57076SOL     OW73124  14.354   8.198   2.014
57076SOL    HW173125  14.272   8.154   2.037
57076SOL    HW273126  14.338   8.234   1.927
57077SOL     OW73127   5.452  11.393   4.740
57077SOL    HW173128   5.397  11.355   4.808
57077SOL    HW273129   5.469  11.483   4.770
57078SOL     OW73130   3.668  10.605   9.154
57078SOL    HW173131   3.745  10.568   9.111
57078SOL    HW273132   3.616  10.529   9.179
57079SOL     OW73133  12.973   2.015   3.273
57079SOL    HW173134  12.985   1.996   3.180
57079SOL    HW273135  13.056   1.992   3.313
57080SOL     OW73136   6.999   9.588   9.496
57080SOL    HW173137   6.906   9.565   9.505
57080SOL    HW273138   7.009   9.609   9.403
57081SOL     OW73139   7.295   2.711  11.614
57081SOL    HW173140   7.291   2.765  11.693
57081SOL    HW273141   7.205   2.709  11.581
57082SOL     OW73142   0.167   9.364   5.067
57082SOL    HW173143   0.106   9.392   4.998
57082SOL    HW273144   0.162   9.269   5.065
57083SOL     OW73145  12.100   1.885  13.572
57083SOL    HW173146  12.059   1.971  13.559
57083SOL    HW273147  12.034   1.834  13.619
57084SOL     OW73148   1.610   1.741   6.250
57084SOL    HW173149   1.659   1.670   6.293
57084SOL    HW273150   1.660   1.760   6.171
57085SOL     OW73151   4.232   4.386  14.747
57085SOL    HW173152   4.193   4.439  14.816
57085SOL    HW273153   4.305   4.439  14.714
57086SOL     OW73154  11.286   7.350   5.261
57086SOL    HW173155  11.284   7.260   5.227
57086SOL    HW273156  11.272   7.405   5.185
57087SOL     OW73157   7.989  13.775   9.178
57087SOL    HW173158   8.050  13.712   9.218
57087SOL    HW273159   8.026  13.860   9.201
57088SOL     OW73160   5.229   9.862   3.734
57088SOL    HW173161   5.261   9.952   3.736
57088SOL    HW273162   5.306   9.810   3.712
57089SOL     OW73163   7.688   7.928   4.432
57089SOL    HW173164   7.760   7.972   4.477
57089SOL    HW273165   7.625   7.998   4.415
57090SOL     OW73166  10.082   0.103   3.345
57090SOL    HW173167  10.038   0.160   3.408
57090SOL    HW273168  10.170   0.141   3.336
57091SOL     OW73169   4.624  12.890   4.785
57091SOL    HW173170   4.625  12.959   4.851
57091SOL    HW273171   4.692  12.915   4.723
57092SOL     OW73172  14.866   5.850   7.083
57092SOL    HW173173  14.781   5.870   7.121
57092SOL    HW273174   0.048   5.930   7.095
57093SOL     OW73175  10.848   3.394   0.996
57093SOL    HW173176  10.940   3.421   0.994
57093SOL    HW273177  10.851   3.302   1.025
57094SOL     OW73178  10.823   5.764   3.300
57094SOL    HW173179  10.737   5.769   3.341
57094SOL    HW273180  10.883   5.794   3.369
57095SOL     OW73181   6.737   9.186   5.410
57095SOL    HW173182   6.784   9.165   5.329
57095SOL    HW273183   6.788   9.257   5.449
57096SOL     OW73184   6.617  11.967   6.867
57096SOL    HW173185   6.548  11.919   6.822
57096SOL    HW273186   6.606  11.944   6.960
57097SOL     OW73187   2.663  11.993   1.903
57097SOL    HW173188   2.646  12.082   1.933
57097SOL    HW273189   2.601  11.938   1.950
57098SOL     OW73190   4.116   5.451   2.826
57098SOL    HW173191   4.027   5.481   2.805
57098SOL    HW273192   4.151   5.519   2.882
57099SOL     OW73193   4.627   6.395   3.236
57099SOL    HW173194   4.589   6.380   3.323
57099SOL    HW273195   4.581   6.473   3.204
57100SOL     OW73196   4.953  12.296   3.611
57100SOL    HW173197   4.995  12.280   3.527
57100SOL    HW273198   4.998  12.373   3.646
57101SOL     OW73199   9.129   2.894  12.360
57101SOL    HW173200   9.050   2.945  12.377
57101SOL    HW273201   9.143   2.903  12.265
57102SOL     OW73202  12.292   8.935   7.305
57102SOL    HW173203  12.370   8.891   7.272
57102SOL    HW273204  12.303   8.934   7.400
57103SOL     OW73205   7.229   5.846  14.476
57103SOL    HW173206   7.268   5.806  14.398
57103SOL    HW273207   7.242   5.940  14.464
57104SOL     OW73208   4.232   9.014   5.090
57104SOL    HW173209   4.255   9.019   4.997
57104SOL    HW273210   4.229   8.920   5.108
57105SOL     OW73211   9.156   7.755  13.682
57105SOL    HW173212   9.223   7.723  13.621
57105SOL    HW273213   9.113   7.676  13.714
57106SOL     OW73214   1.690   4.691  12.991
57106SOL    HW173215   1.646   4.772  12.966
57106SOL    HW273216   1.666   4.678  13.083
57107SOL     OW73217  12.932  12.278   7.412
57107SOL    HW173218  12.940  12.369   7.441
57107SOL    HW273219  12.989  12.272   7.335
57108SOL     OW73220  11.466   3.717  10.651
57108SOL    HW173221  11.475   3.662  10.573
57108SOL    HW273222  11.552   3.715  10.692
57109SOL     OW73223   2.755  10.130  14.264
57109SOL    HW173224   2.848  10.122  14.287
57109SOL    HW273225   2.748  10.094  14.176
57110SOL     OW73226  10.425   9.572   0.696
57110SOL    HW173227  10.334   9.544   0.705
57110SOL    HW273228  10.421   9.668   0.701
57111SOL     OW73229   7.180   6.617   1.090
57111SOL    HW173230   7.160   6.524   1.079
57111SOL    HW273231   7.224   6.622   1.175
57112SOL     OW73232   1.441  14.246   4.166
57112SOL    HW173233   1.379  14.262   4.238
57112SOL    HW273234   1.495  14.325   4.163
57113SOL     OW73235   2.574   3.379   6.110
57113SOL    HW173236   2.592   3.455   6.055
57113SOL    HW273237   2.494   3.403   6.158
57114SOL     OW73238   1.251  10.018   4.149
57114SOL    HW173239   1.206  10.082   4.094
57114SOL    HW273240   1.303  10.071   4.210
57115SOL     OW73241   1.517  11.942   6.859
57115SOL    HW173242   1.470  11.919   6.939
57115SOL    HW273243   1.451  11.937   6.790
57116SOL     OW73244   8.868   3.969   1.412
57116SOL    HW173245   8.845   3.961   1.319
57116SOL    HW273246   8.786   3.994   1.455
57117SOL     OW73247  11.303  11.615   0.051
57117SOL    HW173248  11.243  11.639  14.851
57117SOL    HW273249  11.247  11.577   0.119
57118SOL     OW73250   6.671   5.442  10.443
57118SOL    HW173251   6.633   5.372  10.497
57118SOL    HW273252   6.638   5.424  10.355
57119SOL     OW73253   6.289   2.768  11.829
57119SOL    HW173254   6.373   2.768  11.876
57119SOL    HW273255   6.305   2.823  11.752
57120SOL     OW73256   8.171   1.353   6.643
57120SOL    HW173257   8.174   1.442   6.607
57120SOL    HW273258   8.206   1.362   6.732
57121SOL     OW73259  11.084  11.863   6.252
57121SOL    HW173260  11.040  11.794   6.300
57121SOL    HW273261  11.177  11.843   6.260
57122SOL     OW73262   4.773  12.775  12.137
57122SOL    HW173263   4.682  12.794  12.161
57122SOL    HW273264   4.799  12.848  12.081
57123SOL     OW73265   6.102   0.644  11.577
57123SOL    HW173266   6.181   0.667  11.626
57123SOL    HW273267   6.121   0.672  11.487
57124SOL     OW73268   0.072   1.529  10.918
57124SOL    HW173269  14.856   1.531  10.876
57124SOL    HW273270   0.061   1.471  10.994
57125SOL     OW73271  12.808  12.739   9.615
57125SOL    HW173272  12.727  12.769   9.573
57125SOL    HW273273  12.851  12.820   9.644
57126SOL     OW73274   2.103  11.787   2.001
57126SOL    HW173275   2.015  11.752   2.014
57126SOL    HW273276   2.149  11.719   1.951
57127SOL     OW73277   9.060   0.752   2.900
57127SOL    HW173278   9.145   0.793   2.887
57127SOL    HW273279   9.072   0.696   2.977
57128SOL     OW73280  14.858   7.819  10.701
57128SOL    HW173281   0.006   7.854  10.788
57128SOL    HW273282  14.802   7.884  10.659
57129SOL     OW73283   2.739  12.070   2.226
57129SOL    HW173284   2.677  12.110   2.164
57129SOL    HW273285   2.822  12.067   2.178
57130SOL     OW73286   9.345   3.145  10.823
57130SOL    HW173287   9.311   3.180  10.905
57130SOL    HW273288   9.401   3.072  10.848
57131SOL     OW73289   3.836   9.769   1.874
57131SOL    HW173290   3.809   9.677   1.880
57131SOL    HW273291   3.912   9.776   1.931
57132SOL     OW73292  14.246  10.046   1.757
57132SOL    HW173293  14.258   9.962   1.712
57132SOL    HW273294  14.271  10.028   1.848
57133SOL     OW73295   1.461   5.508   1.193
57133SOL    HW173296   1.532   5.552   1.240
57133SOL    HW273297   1.436   5.569   1.124
57134SOL     OW73298   9.254  14.647  10.628
57134SOL    HW173299   9.334  14.666  10.676
57134SOL    HW273300   9.200  14.726  10.639
57135SOL     OW73301   5.505  14.573  10.898
57135SOL    HW173302   5.560  14.514  10.848
57135SOL    HW273303   5.429  14.589  10.842
57136SOL     OW73304   5.857   7.936   3.856
57136SOL    HW173305   5.844   7.988   3.936
57136SOL    HW273306   5.770   7.903   3.835
57137SOL     OW73307  10.107   2.902   8.156
57137SOL    HW173308  10.054   2.930   8.231
57137SOL    HW273309  10.118   2.980   8.103
57138SOL     OW73310  12.033   1.009   1.993
57138SOL    HW173311  12.068   1.053   1.915
57138SOL    HW273312  11.938   1.008   1.980
57139SOL     OW73313  11.689   8.467   4.468
57139SOL    HW173314  11.632   8.515   4.408
57139SOL    HW273315  11.671   8.375   4.449
57140SOL     OW73316   0.161   2.645   3.759
57140SOL    HW173317   0.199   2.732   3.765
57140SOL    HW273318   0.123   2.642   3.671
57141SOL     OW73319   8.004  12.496  12.385
57141SOL    HW173320   8.085  12.543  12.363
57141SOL    HW273321   7.965  12.547  12.456
57142SOL     OW73322   9.242   1.260   1.241
57142SOL    HW173323   9.247   1.322   1.314
57142SOL    HW273324   9.332   1.227   1.233
57143SOL     OW73325   4.487   0.067   6.244
57143SOL    HW173326   4.482   0.153   6.287
57143SOL    HW273327   4.424   0.013   6.292
57144SOL     OW73328   4.967   9.059   3.077
57144SOL    HW173329   5.050   9.064   3.124
57144SOL    HW273330   4.945   9.151   3.058
57145SOL     OW73331   1.187   0.385  10.386
57145SOL    HW173332   1.282   0.397  10.380
57145SOL    HW273333   1.177   0.308  10.441
57146SOL     OW73334  12.506   9.361   1.763
57146SOL    HW173335  12.564   9.378   1.838
57146SOL    HW273336  12.425   9.329   1.803
57147SOL     OW73337   6.467   5.272   7.777
57147SOL    HW173338   6.538   5.208   7.777
57147SOL    HW273339   6.446   5.285   7.684
57148SOL     OW73340   5.220   4.853  11.395
57148SOL    HW173341   5.278   4.834  11.321
57148SOL    HW273342   5.225   4.774  11.450
57149SOL     OW73343   1.827   9.645  13.901
57149SOL    HW173344   1.907   9.692  13.876
57149SOL    HW273345   1.809   9.587  13.827
57150SOL     OW73346   7.828   1.566   6.135
57150SOL    HW173347   7.804   1.510   6.061
57150SOL    HW273348   7.795   1.519   6.212
57151SOL     OW73349   1.875   5.394   5.223
57151SOL    HW173350   1.847   5.310   5.188
57151SOL    HW273351   1.970   5.386   5.231
57152SOL     OW73352  13.817   8.432   3.853
57152SOL    HW173353  13.829   8.527   3.856
57152SOL    HW273354  13.815   8.410   3.760
57153SOL     OW73355   3.081   7.034   0.047
57153SOL    HW173356   3.162   6.988   0.025
57153SOL    HW273357   3.107   7.125   0.059
57154SOL     OW73358  13.646  10.599   1.130
57154SOL    HW173359  13.657  10.510   1.164
57154SOL    HW273360  13.557  10.622   1.155
57155SOL     OW73361   1.747   5.476   3.628
57155SOL    HW173362   1.828   5.433   3.657
57155SOL    HW273363   1.752   5.476   3.532
57156SOL     OW73364   2.420  11.765   9.717
57156SOL    HW173365   2.458  11.778   9.804
57156SOL    HW273366   2.448  11.677   9.692
57157SOL     OW73367  14.160   5.730   2.650
57157SOL    HW173368  14.204   5.812   2.676
57157SOL    HW273369  14.067   5.752   2.650
57158SOL     OW73370   8.725   7.411  12.252
57158SOL    HW173371   8.805   7.461  12.267
57158SOL    HW273372   8.750   7.320  12.265
57159SOL     OW73373   4.570   1.434   3.135
57159SOL    HW173374   4.538   1.344   3.134
57159SOL    HW273375   4.606   1.446   3.223
57160SOL     OW73376   5.871   2.993   2.094
57160SOL    HW173377   5.790   3.043   2.081
57160SOL    HW273378   5.840   2.903   2.107
57161SOL     OW73379  13.853   2.172  10.819
57161SOL    HW173380  13.779   2.194  10.876
57161SOL    HW273381  13.828   2.207  10.734
57162SOL     OW73382   8.113   9.357   7.840
57162SOL    HW173383   8.183   9.393   7.894
57162SOL    HW273384   8.132   9.263   7.836
57163SOL     OW73385   4.622   5.970   5.339
57163SOL    HW173386   4.610   5.889   5.290
57163SOL    HW273387   4.627   6.038   5.271
57164SOL     OW73388  14.601   2.357   3.554
57164SOL    HW173389  14.590   2.287   3.618
57164SOL    HW273390  14.540   2.335   3.484
57165SOL     OW73391   0.118  12.466   8.399
57165SOL    HW173392   0.096  12.434   8.311
57165SOL    HW273393   0.045  12.439   8.453
57166SOL     OW73394   4.374   0.169   9.941
57166SOL    HW173395   4.436   0.210  10.001
57166SOL    HW273396   4.330   0.102   9.993
57167SOL     OW73397  10.969   1.994  10.076
57167SOL    HW173398  11.010   2.052  10.012
57167SOL    HW273399  10.877   1.994  10.052
57168SOL     OW73400  10.677   3.463  11.471
57168SOL    HW173401  10.747   3.528  11.475
57168SOL    HW273402  10.605   3.502  11.522
57169SOL     OW73403  13.043   5.046   4.660
57169SOL    HW173404  12.956   5.056   4.701
57169SOL    HW273405  13.027   5.058   4.567
57170SOL     OW73406   5.870   5.170   4.957
57170SOL    HW173407   5.852   5.184   5.050
57170SOL    HW273408   5.814   5.233   4.911
57171SOL     OW73409   6.598  13.350   6.918
57171SOL    HW173410   6.682  13.392   6.903
57171SOL    HW273411   6.597  13.275   6.858
57172SOL     OW73412   7.089   3.275  13.252
57172SOL    HW173413   7.030   3.199  13.255
57172SOL    HW273414   7.035   3.349  13.280
57173SOL     OW73415  11.628   8.532   9.461
57173SOL    HW173416  11.677   8.516   9.541
57173SOL    HW273417  11.633   8.627   9.448
57174SOL     OW73418  11.486   8.069   7.779
57174SOL    HW173419  11.492   8.052   7.686
57174SOL    HW273420  11.506   8.163   7.787
57175SOL     OW73421   3.575   4.507   9.848
57175SOL    HW173422   3.531   4.567   9.907
57175SOL    HW273423   3.570   4.548   9.762
57176SOL     OW73424   3.254   9.834   4.266
57176SOL    HW173425   3.231   9.925   4.286
57176SOL    HW273426   3.220   9.784   4.341
57177SOL     OW73427   9.859   5.648   3.800
57177SOL    HW173428   9.823   5.661   3.713
57177SOL    HW273429   9.854   5.735   3.841
57178SOL     OW73430  10.016   0.735  11.737
57178SOL    HW173431  10.010   0.696  11.825
57178SOL    HW273432   9.938   0.791  11.731
57179SOL     OW73433  10.019  13.366   6.546
57179SOL    HW173434  10.049  13.441   6.495
57179SOL    HW273435  10.025  13.396   6.637
57180SOL     OW73436   8.332  12.313  10.933
57180SOL    HW173437   8.284  12.283  11.011
57180SOL    HW273438   8.346  12.233  10.882
57181SOL     OW73439   3.271  14.001  12.062
57181SOL    HW173440   3.321  13.935  12.110
57181SOL    HW273441   3.219  14.045  12.128
57182SOL     OW73442  14.536   5.686  12.929
57182SOL    HW173443  14.559   5.772  12.963
57182SOL    HW273444  14.617   5.635  12.935
57183SOL     OW73445  14.746   2.741  14.436
57183SOL    HW173446  14.776   2.653  14.413
57183SOL    HW273447  14.789   2.798  14.371
57184SOL     OW73448   9.981   1.886   8.033
57184SOL    HW173449   9.974   1.954   7.966
57184SOL    HW273450  10.073   1.887   8.059
57185SOL     OW73451   2.993   2.301   9.742
57185SOL    HW173452   2.903   2.290   9.710
57185SOL    HW273453   2.988   2.281   9.835
57186SOL     OW73454  11.069   7.629   7.444
57186SOL    HW173455  11.115   7.571   7.384
57186SOL    HW273456  11.029   7.570   7.509
57187SOL     OW73457  11.760   3.716   2.100
57187SOL    HW173458  11.774   3.635   2.050
57187SOL    HW273459  11.832   3.719   2.162
57188SOL     OW73460  12.422   5.404   4.079
57188SOL    HW173461  12.355   5.359   4.028
57188SOL    HW273462  12.372   5.462   4.137
57189SOL     OW73463   6.528  11.997   4.853
57189SOL    HW173464   6.540  12.072   4.910
57189SOL    HW273465   6.546  12.030   4.765
57190SOL     OW73466   2.484   3.750  12.105
57190SOL    HW173467   2.502   3.662  12.074
57190SOL    HW273468   2.522   3.807  12.038
57191SOL     OW73469   2.221   9.373  11.380
57191SOL    HW173470   2.156   9.386  11.449
57191SOL    HW273471   2.203   9.285  11.347
57192SOL     OW73472  13.855   0.959  14.091
57192SOL    HW173473  13.822   0.963  14.181
57192SOL    HW273474  13.888   0.870  14.082
57193SOL     OW73475  14.853   7.548   0.862
57193SOL    HW173476  14.807   7.597   0.929
57193SOL    HW273477  14.788   7.486   0.828
57194SOL     OW73478   0.728  10.931   1.715
57194SOL    HW173479   0.819  10.954   1.731
57194SOL    HW273480   0.687  10.935   1.802
57195SOL     OW73481   0.187   1.983   9.709
57195SOL    HW173482   0.131   2.053   9.676
57195SOL    HW273483   0.226   1.944   9.631
57196SOL     OW73484  11.143  12.888   0.311
57196SOL    HW173485  11.074  12.831   0.343
57196SOL    HW273486  11.223  12.853   0.350
57197SOL     OW73487   4.688   6.591  14.315
57197SOL    HW173488   4.722   6.579  14.404
57197SOL    HW273489   4.632   6.668  14.320
57198SOL     OW73490   1.087  10.063  10.455
57198SOL    HW173491   1.091  10.158  10.455
57198SOL    HW273492   1.179  10.035  10.449
57199SOL     OW73493  12.694   0.852   9.360
57199SOL    HW173494  12.762   0.817   9.417
57199SOL    HW273495  12.731   0.844   9.272
57200SOL     OW73496   5.164   9.081  12.824
57200SOL    HW173497   5.132   9.165  12.857
57200SOL    HW273498   5.161   9.090  12.728
57201SOL     OW73499   8.260   0.377  10.388
57201SOL    HW173500   8.272   0.362  10.482
57201SOL    HW273501   8.330   0.327  10.346
57202SOL     OW73502   8.758  14.260   2.552
57202SOL    HW173503   8.837  14.277   2.603
57202SOL    HW273504   8.693  14.320   2.590
57203SOL     OW73505  12.676  13.238  10.693
57203SOL    HW173506  12.676  13.244  10.597
57203SOL    HW273507  12.746  13.298  10.720
57204SOL     OW73508   7.855   5.018   7.124
57204SOL    HW173509   7.950   5.028   7.124
57204SOL    HW273510   7.840   4.930   7.089
57205SOL     OW73511  11.080   0.217   9.185
57205SOL    HW173512  11.004   0.251   9.231
57205SOL    HW273513  11.137   0.183   9.255
57206SOL     OW73514   9.360  10.894   1.328
57206SOL    HW173515   9.314  10.816   1.359
57206SOL    HW273516   9.418  10.861   1.259
57207SOL     OW73517   1.617  12.307   8.316
57207SOL    HW173518   1.587  12.336   8.402
57207SOL    HW273519   1.712  12.293   8.327
57208SOL     OW73520   3.184   3.848   8.772
57208SOL    HW173521   3.152   3.825   8.685
57208SOL    HW273522   3.196   3.764   8.816
57209SOL     OW73523  11.772  13.954   4.357
57209SOL    HW173524  11.806  14.025   4.303
57209SOL    HW273525  11.690  13.929   4.316
57210SOL     OW73526  13.515  10.540  10.963
57210SOL    HW173527  13.454  10.609  10.987
57210SOL    HW273528  13.583  10.544  11.031
57211SOL     OW73529   7.641   4.510   3.146
57211SOL    HW173530   7.677   4.567   3.079
57211SOL    HW273531   7.665   4.422   3.118
57212SOL     OW73532  13.016  10.712   7.669
57212SOL    HW173533  12.971  10.686   7.750
57212SOL    HW273534  12.988  10.802   7.654
57213SOL     OW73535   8.969  11.861   7.409
57213SOL    HW173536   9.042  11.813   7.371
57213SOL    HW273537   8.915  11.885   7.333
57214SOL     OW73538   3.373   8.355   0.856
57214SOL    HW173539   3.278   8.368   0.854
57214SOL    HW273540   3.387   8.283   0.918
57215SOL     OW73541   0.365  14.147  13.192
57215SOL    HW173542   0.312  14.119  13.117
57215SOL    HW273543   0.436  14.082  13.197
57216SOL     OW73544   6.484   7.602   8.598
57216SOL    HW173545   6.507   7.633   8.511
57216SOL    HW273546   6.427   7.670   8.634
57217SOL     OW73547   1.564   6.290   5.090
57217SOL    HW173548   1.624   6.298   5.016
57217SOL    HW273549   1.543   6.196   5.094
57218SOL     OW73550  14.045   1.135   6.234
57218SOL    HW173551  13.997   1.197   6.178
57218SOL    HW273552  13.983   1.113   6.303
57219SOL     OW73553   3.448  13.956  14.588
57219SOL    HW173554   3.510  14.016  14.546
57219SOL    HW273555   3.446  13.984  14.680
57220SOL     OW73556   2.123   7.995  10.967
57220SOL    HW173557   2.081   7.945  11.037
57220SOL    HW273558   2.111   7.941  10.889
57221SOL     OW73559   8.069   9.881  10.757
57221SOL    HW173560   8.116   9.892  10.674
57221SOL    HW273561   7.990   9.933  10.748
57222SOL     OW73562   3.939   7.651   9.604
57222SOL    HW173563   4.030   7.632   9.581
57222SOL    HW273564   3.932   7.746   9.596
57223SOL     OW73565   1.689   7.167   5.054
57223SOL    HW173566   1.605   7.121   5.058
57223SOL    HW273567   1.672   7.253   5.091
57224SOL     OW73568  14.868  10.754   1.504
57224SOL    HW173569   0.007  10.661   1.486
57224SOL    HW273570   0.041  10.797   1.429
57225SOL     OW73571   0.937   2.740   3.929
57225SOL    HW173572   0.971   2.667   3.877
57225SOL    HW273573   0.982   2.731   4.013
57226SOL     OW73574   5.104  13.032   8.962
57226SOL    HW173575   5.155  12.952   8.973
57226SOL    HW273576   5.105  13.073   9.048
57227SOL     OW73577  12.642   1.191   4.740
57227SOL    HW173578  12.682   1.276   4.760
57227SOL    HW273579  12.601   1.203   4.655
57228SOL     OW73580   5.670  11.932   3.367
57228SOL    HW173581   5.690  11.985   3.291
57228SOL    HW273582   5.576  11.915   3.360
57229SOL     OW73583   1.788   0.817  13.735
57229SOL    HW173584   1.791   0.725  13.762
57229SOL    HW273585   1.790   0.865  13.818
57230SOL     OW73586   1.497  12.618  11.803
57230SOL    HW173587   1.474  12.697  11.754
57230SOL    HW273588   1.571  12.581  11.755
57231SOL     OW73589  13.110  10.510   3.775
57231SOL    HW173590  13.069  10.510   3.688
57231SOL    HW273591  13.110  10.417   3.801
57232SOL     OW73592   6.956   1.466   9.206
57232SOL    HW173593   6.864   1.493   9.199
57232SOL    HW273594   6.981   1.442   9.117
57233SOL     OW73595   1.847   7.718   1.990
57233SOL    HW173596   1.846   7.648   1.924
57233SOL    HW273597   1.886   7.677   2.067
57234SOL     OW73598   5.080   0.743  13.677
57234SOL    HW173599   5.171   0.747  13.646
57234SOL    HW273600   5.032   0.704  13.604
57235SOL     OW73601   2.776   2.680   2.761
57235SOL    HW173602   2.812   2.716   2.680
57235SOL    HW273603   2.853   2.665   2.817
57236SOL     OW73604  12.195  10.761   6.229
57236SOL    HW173605  12.113  10.761   6.279
57236SOL    HW273606  12.170  10.788   6.141
57237SOL     OW73607   3.357  11.939   8.361
57237SOL    HW173608   3.324  12.003   8.425
57237SOL    HW273609   3.413  11.882   8.413
57238SOL     OW73610   3.601   7.943   4.110
57238SOL    HW173611   3.597   7.966   4.017
57238SOL    HW273612   3.521   7.893   4.126
57239SOL     OW73613  12.740   2.740  14.856
57239SOL    HW173614  12.831   2.737   0.015
57239SOL    HW273615  12.742   2.792  14.775
57240SOL     OW73616   9.756   3.489   3.971
57240SOL    HW173617   9.686   3.511   4.032
57240SOL    HW273618   9.711   3.452   3.895
57241SOL     OW73619   3.733   6.687  13.942
57241SOL    HW173620   3.744   6.605  13.894
57241SOL    HW273621   3.706   6.660  14.030
57242SOL     OW73622   9.599   1.706   7.145
57242SOL    HW173623   9.621   1.691   7.237
57242SOL    HW273624   9.510   1.740   7.146
57243SOL     OW73625   5.613  11.964  12.362
57243SOL    HW173626   5.651  11.897  12.419
57243SOL    HW273627   5.556  12.015  12.420
57244SOL     OW73628   1.737   4.250   8.795
57244SOL    HW173629   1.743   4.175   8.855
57244SOL    HW273630   1.707   4.322   8.849
57245SOL     OW73631   6.567   3.589   9.341
57245SOL    HW173632   6.591   3.514   9.287
57245SOL    HW273633   6.546   3.658   9.278
57246SOL     OW73634   4.209   4.790   3.241
57246SOL    HW173635   4.193   4.703   3.204
57246SOL    HW273636   4.125   4.835   3.237
57247SOL     OW73637   6.895   0.746   7.578
57247SOL    HW173638   6.810   0.766   7.538
57247SOL    HW273639   6.874   0.716   7.666
57248SOL     OW73640   6.291  13.808   3.429
57248SOL    HW173641   6.304  13.738   3.493
57248SOL    HW273642   6.366  13.801   3.370
57249SOL     OW73643  11.294   2.732   3.074
57249SOL    HW173644  11.340   2.722   3.158
57249SOL    HW273645  11.322   2.657   3.023
57250SOL     OW73646   6.407   9.135  10.947
57250SOL    HW173647   6.387   9.105  11.036
57250SOL    HW273648   6.476   9.076  10.917
57251SOL     OW73649  10.994   1.775   0.546
57251SOL    HW173650  11.047   1.740   0.618
57251SOL    HW273651  10.990   1.869   0.564
57252SOL     OW73652   1.515  14.726  12.940
57252SOL    HW173653   1.420  14.723  12.933
57252SOL    HW273654   1.542  14.634  12.941
57253SOL     OW73655   8.934  13.459  13.673
57253SOL    HW173656   8.845  13.447  13.639
57253SOL    HW273657   8.922  13.474  13.766
57254SOL     OW73658   8.855   3.936   1.120
57254SOL    HW173659   8.945   3.918   1.096
57254SOL    HW273660   8.806   3.858   1.094
57255SOL     OW73661   8.144  14.083   9.977
57255SOL    HW173662   8.163  14.152  10.041
57255SOL    HW273663   8.067  14.116   9.930
57256SOL     OW73664   7.685   9.236   2.289
57256SOL    HW173665   7.728   9.316   2.259
57256SOL    HW273666   7.722   9.220   2.376
57257SOL     OW73667   7.642  12.416   3.523
57257SOL    HW173668   7.737  12.425   3.510
57257SOL    HW273669   7.608  12.505   3.519
57258SOL     OW73670   6.307   2.172   7.247
57258SOL    HW173671   6.392   2.215   7.248
57258SOL    HW273672   6.297   2.141   7.157
57259SOL     OW73673  10.429   4.519   1.663
57259SOL    HW173674  10.413   4.524   1.758
57259SOL    HW273675  10.344   4.538   1.623
57260SOL     OW73676  14.611  12.310   1.581
57260SOL    HW173677  14.597  12.222   1.545
57260SOL    HW273678  14.572  12.369   1.516
57261SOL     OW73679   7.666   2.810   2.175
57261SOL    HW173680   7.755   2.776   2.164
57261SOL    HW273681   7.612   2.756   2.117
57262SOL     OW73682   4.141   0.611  11.726
57262SOL    HW173683   4.073   0.595  11.660
57262SOL    HW273684   4.141   0.531  11.779
57263SOL     OW73685   4.343   0.272  13.827
57263SOL    HW173686   4.314   0.183  13.807
57263SOL    HW273687   4.380   0.305  13.746
57264SOL     OW73688   0.928   9.938   6.628
57264SOL    HW173689   0.868   9.972   6.561
57264SOL    HW273690   0.923   9.843   6.618
57265SOL     OW73691   3.396   3.365   8.763
57265SOL    HW173692   3.335   3.319   8.821
57265SOL    HW273693   3.473   3.308   8.760
57266SOL     OW73694  12.440   4.876  10.965
57266SOL    HW173695  12.439   4.934  11.041
57266SOL    HW273696  12.499   4.805  10.990
57267SOL     OW73697  10.149  14.211  11.999
57267SOL    HW173698  10.216  14.238  11.937
57267SOL    HW273699  10.099  14.144  11.953
57268SOL     OW73700   1.329   7.338   1.160
57268SOL    HW173701   1.392   7.329   1.088
57268SOL    HW273702   1.375   7.387   1.227
57269SOL     OW73703   8.834   9.092   9.321
57269SOL    HW173704   8.813   9.092   9.415
57269SOL    HW273705   8.750   9.082   9.277
57270SOL     OW73706   5.116   4.611   8.377
57270SOL    HW173707   5.182   4.576   8.317
57270SOL    HW273708   5.099   4.539   8.438
57271SOL     OW73709  10.368   9.072   5.766
57271SOL    HW173710  10.439   9.014   5.794
57271SOL    HW273711  10.306   9.014   5.722
57272SOL     OW73712   7.545  13.931   3.298
57272SOL    HW173713   7.598  13.855   3.275
57272SOL    HW273714   7.547  13.933   3.394
57273SOL     OW73715  14.717   7.016  11.509
57273SOL    HW173716  14.743   7.007  11.417
57273SOL    HW273717  14.799   7.013  11.558
57274SOL     OW73718   1.819  14.212   9.380
57274SOL    HW173719   1.746  14.196   9.320
57274SOL    HW273720   1.887  14.251   9.324
57275SOL     OW73721   0.205   0.232   5.680
57275SOL    HW173722   0.256   0.152   5.687
57275SOL    HW273723   0.137   0.213   5.616
57276SOL     OW73724   0.269  11.812   5.466
57276SOL    HW173725   0.274  11.907   5.467
57276SOL    HW273726   0.285  11.788   5.375
57277SOL     OW73727   2.631   3.555  14.158
57277SOL    HW173728   2.684   3.542  14.237
57277SOL    HW273729   2.674   3.500  14.092
57278SOL     OW73730   5.158   8.030  13.103
57278SOL    HW173731   5.126   7.945  13.133
57278SOL    HW273732   5.209   8.010  13.024
57279SOL     OW73733   8.810  13.049   0.529
57279SOL    HW173734   8.846  12.968   0.493
57279SOL    HW273735   8.885  13.109   0.532
57280SOL     OW73736   8.645  10.194   5.845
57280SOL    HW173737   8.696  10.157   5.773
57280SOL    HW273738   8.681  10.283   5.857
57281SOL     OW73739   5.931   1.519   7.837
57281SOL    HW173740   5.975   1.527   7.921
57281SOL    HW273741   6.002   1.518   7.773
57282SOL     OW73742   3.901  10.864   7.759
57282SOL    HW173743   3.899  10.943   7.705
57282SOL    HW273744   3.985  10.869   7.805
57283SOL     OW73745   7.018  10.594  12.752
57283SOL    HW173746   6.941  10.603  12.809
57283SOL    HW273747   7.041  10.502  12.758
57284SOL     OW73748   7.424  13.942   0.476
57284SOL    HW173749   7.424  13.869   0.414
57284SOL    HW273750   7.509  13.937   0.519
57285SOL     OW73751   0.153  13.607   7.824
57285SOL    HW173752   0.223  13.597   7.888
57285SOL    HW273753   0.192  13.658   7.753
57286SOL     OW73754  11.297   0.962   0.140
57286SOL    HW173755  11.247   1.014   0.203
57286SOL    HW273756  11.361   0.915   0.194
57287SOL     OW73757   8.626   5.662   4.267
57287SOL    HW173758   8.694   5.726   4.287
57287SOL    HW273759   8.655   5.620   4.187
57288SOL     OW73760   2.332   8.898   5.810
57288SOL    HW173761   2.409   8.955   5.812
57288SOL    HW273762   2.258   8.958   5.799
57289SOL     OW73763   9.022   1.231  10.743
57289SOL    HW173764   8.963   1.239  10.668
57289SOL    HW273765   9.101   1.278  10.716
57290SOL     OW73766  14.101  14.594   9.254
57290SOL    HW173767  14.184  14.616   9.298
57290SOL    HW273768  14.055  14.677   9.248
57291SOL     OW73769   4.735  13.096   8.527
57291SOL    HW173770   4.719  13.160   8.457
57291SOL    HW273771   4.830  13.097   8.538
57292SOL     OW73772   0.474   7.773   0.408
57292SOL    HW173773   0.546   7.729   0.364
57292SOL    HW273774   0.396   7.726   0.378
57293SOL     OW73775  10.427   3.215   1.840
57293SOL    HW173776  10.496   3.155   1.811
57293SOL    HW273777  10.413   3.273   1.765
57294SOL     OW73778  10.183   2.685  14.485
57294SOL    HW173779  10.259   2.670  14.428
57294SOL    HW273780  10.134   2.755  14.443
57295SOL     OW73781  14.309   8.328   1.059
57295SOL    HW173782  14.267   8.271   0.995
57295SOL    HW273783  14.275   8.415   1.039
57296SOL     OW73784  14.349  11.184  14.332
57296SOL    HW173785  14.278  11.247  14.342
57296SOL    HW273786  14.340  11.150  14.243
57297SOL     OW73787  14.338   1.012   6.310
57297SOL    HW173788  14.250   1.042   6.290
57297SOL    HW273789  14.383   1.090   6.344
57298SOL     OW73790   7.275  11.783   1.609
57298SOL    HW173791   7.365  11.754   1.594
57298SOL    HW273792   7.271  11.799   1.704
57299SOL     OW73793  14.457   3.059   0.861
57299SOL    HW173794  14.378   3.006   0.850
57299SOL    HW273795  14.428   3.149   0.847
57300SOL     OW73796   4.765   8.797   9.849
57300SOL    HW173797   4.853   8.833   9.836
57300SOL    HW273798   4.710   8.846   9.787
57301SOL     OW73799  13.837   3.456  14.695
57301SOL    HW173800  13.812   3.485  14.783
57301SOL    HW273801  13.756   3.463  14.644
57302SOL     OW73802   2.324  10.565   8.438
57302SOL    HW173803   2.324  10.566   8.534
57302SOL    HW273804   2.290  10.479   8.415
57303SOL     OW73805   0.935  12.769   7.357
57303SOL    HW173806   0.952  12.677   7.373
57303SOL    HW273807   0.923  12.806   7.445
57304SOL     OW73808   1.047  10.887   7.061
57304SOL    HW173809   1.127  10.857   7.104
57304SOL    HW273810   1.077  10.953   6.999
57305SOL     OW73811   0.404  12.298  10.691
57305SOL    HW173812   0.493  12.324  10.666
57305SOL    HW273813   0.415  12.252  10.774
57306SOL     OW73814   3.684  12.450   7.067
57306SOL    HW173815   3.755  12.514   7.064
57306SOL    HW273816   3.701  12.391   6.994
57307SOL     OW73817   8.086   1.177   3.584
57307SOL    HW173818   8.148   1.183   3.512
57307SOL    HW273819   8.097   1.259   3.632
57308SOL     OW73820   9.619  11.638   8.219
57308SOL    HW173821   9.612  11.667   8.128
57308SOL    HW273822   9.661  11.552   8.214
57309SOL     OW73823   4.481  10.803   7.055
57309SOL    HW173824   4.552  10.784   7.116
57309SOL    HW273825   4.471  10.899   7.061
57310SOL     OW73826   8.344   2.651  12.357
57310SOL    HW173827   8.296   2.719  12.309
57310SOL    HW273828   8.324   2.570  12.310
57311SOL     OW73829   8.527  12.788  13.192
57311SOL    HW173830   8.498  12.876  13.214
57311SOL    HW273831   8.453  12.749  13.147
57312SOL     OW73832   3.285   4.842  13.764
57312SOL    HW173833   3.224   4.913  13.784
57312SOL    HW273834   3.354   4.884  13.713
57313SOL     OW73835  10.792   4.162  13.926
57313SOL    HW173836  10.709   4.184  13.967
57313SOL    HW273837  10.777   4.174  13.832
57314SOL     OW73838   2.382   4.624  14.200
57314SOL    HW173839   2.439   4.591  14.131
57314SOL    HW273840   2.307   4.564  14.200
57315SOL     OW73841   8.280   9.917  13.178
57315SOL    HW173842   8.200   9.865  13.183
57315SOL    HW273843   8.348   9.854  13.155
57316SOL     OW73844   0.338   5.890   2.342
57316SOL    HW173845   0.282   5.832   2.291
57316SOL    HW273846   0.287   5.971   2.351
57317SOL     OW73847  12.823  10.718   4.369
57317SOL    HW173848  12.797  10.626   4.373
57317SOL    HW273849  12.749  10.762   4.325
57318SOL     OW73850   8.901   5.722  14.609
57318SOL    HW173851   8.896   5.628  14.594
57318SOL    HW273852   8.895   5.732  14.704
57319SOL     OW73853   4.786   1.073   7.946
57319SOL    HW173854   4.734   0.994   7.960
57319SOL    HW273855   4.877   1.044   7.956
57320SOL     OW73856   5.355  11.769  12.367
57320SOL    HW173857   5.376  11.833  12.298
57320SOL    HW273858   5.343  11.687  12.320
57321SOL     OW73859  13.584   3.680  14.586
57321SOL    HW173860  13.623   3.767  14.585
57321SOL    HW273861  13.560   3.666  14.678
57322SOL     OW73862   3.011   7.979   3.218
57322SOL    HW173863   3.068   8.041   3.263
57322SOL    HW273864   3.012   8.007   3.126
57323SOL     OW73865   2.825  13.692   2.878
57323SOL    HW173866   2.796  13.634   2.808
57323SOL    HW273867   2.767  13.768   2.873
57324SOL     OW73868   7.403  12.929  10.634
57324SOL    HW173869   7.440  12.854  10.588
57324SOL    HW273870   7.469  12.998  10.623
57325SOL     OW73871   6.369   5.611  10.440
57325SOL    HW173872   6.371   5.688  10.497
57325SOL    HW273873   6.425   5.547  10.484
57326SOL     OW73874  11.037  13.707   3.192
57326SOL    HW173875  11.075  13.634   3.240
57326SOL    HW273876  11.109  13.739   3.137
57327SOL     OW73877  14.336   8.700   8.954
57327SOL    HW173878  14.419   8.744   8.938
57327SOL    HW273879  14.328   8.636   8.883
57328SOL     OW73880   0.326   3.742   4.708
57328SOL    HW173881   0.277   3.663   4.684
57328SOL    HW273882   0.314   3.800   4.633
57329SOL     OW73883   0.720   6.020  11.490
57329SOL    HW173884   0.798   6.062  11.455
57329SOL    HW273885   0.695   5.955  11.424
57330SOL     OW73886   5.155   2.824   1.206
57330SOL    HW173887   5.154   2.919   1.195
57330SOL    HW273888   5.156   2.810   1.301
57331SOL     OW73889   5.083   9.727   3.119
57331SOL    HW173890   5.057   9.761   3.034
57331SOL    HW273891   5.003   9.729   3.171
57332SOL     OW73892   0.477  10.519   6.693
57332SOL    HW173893   0.455  10.590   6.634
57332SOL    HW273894   0.475  10.440   6.638
57333SOL     OW73895  11.088   7.265  10.729
57333SOL    HW173896  11.139   7.217  10.795
57333SOL    HW273897  11.032   7.324  10.781
57334SOL     OW73898   6.820  12.671  13.899
57334SOL    HW173899   6.889  12.722  13.942
57334SOL    HW273900   6.858  12.647  13.815
57335SOL     OW73901   0.550   5.187  13.423
57335SOL    HW173902   0.578   5.100  13.452
57335SOL    HW273903   0.458   5.176  13.402
57336SOL     OW73904   3.709  12.770  12.510
57336SOL    HW173905   3.660  12.729  12.439
57336SOL    HW273906   3.694  12.864  12.499
57337SOL     OW73907   4.427   8.683   4.062
57337SOL    HW173908   4.451   8.628   3.987
57337SOL    HW273909   4.503   8.741   4.075
57338SOL     OW73910  13.139   4.431   6.304
57338SOL    HW173911  13.047   4.449   6.324
57338SOL    HW273912  13.150   4.339   6.326
57339SOL     OW73913   2.954  12.367   8.759
57339SOL    HW173914   2.913  12.281   8.749
57339SOL    HW273915   2.917  12.402   8.840
57340SOL     OW73916   7.862  13.168  10.426
57340SOL    HW173917   7.934  13.231  10.433
57340SOL    HW273918   7.800  13.210  10.367
57341SOL     OW73919   3.771  11.315  12.893
57341SOL    HW173920   3.816  11.234  12.918
57341SOL    HW273921   3.749  11.357  12.976
57342SOL     OW73922   7.423   4.277   0.346
57342SOL    HW173923   7.496   4.334   0.366
57342SOL    HW273924   7.450   4.230   0.267
57343SOL     OW73925   8.529   5.946   5.966
57343SOL    HW173926   8.436   5.969   5.974
57343SOL    HW273927   8.570   5.983   6.044
57344SOL     OW73928   5.563   9.656   9.009
57344SOL    HW173929   5.526   9.643   8.922
57344SOL    HW273930   5.498   9.618   9.068
57345SOL     OW73931   0.964   3.952  11.180
57345SOL    HW173932   0.943   4.042  11.207
57345SOL    HW273933   1.027   3.921  11.245
57346SOL     OW73934   4.564   1.489  14.454
57346SOL    HW173935   4.508   1.521  14.383
57346SOL    HW273936   4.652   1.489  14.417
57347SOL     OW73937   2.054  12.016   7.229
57347SOL    HW173938   2.131  12.029   7.174
57347SOL    HW273939   2.059  12.086   7.294
57348SOL     OW73940   0.892   3.737  12.632
57348SOL    HW173941   0.848   3.694  12.558
57348SOL    HW273942   0.966   3.681  12.652
57349SOL     OW73943   9.569   4.399   6.186
57349SOL    HW173944   9.554   4.344   6.263
57349SOL    HW273945   9.622   4.472   6.218
57350SOL     OW73946  13.072   9.378  13.641
57350SOL    HW173947  13.109   9.300  13.600
57350SOL    HW273948  13.003   9.407  13.581
57351SOL     OW73949   4.656   5.707   1.507
57351SOL    HW173950   4.678   5.800   1.498
57351SOL    HW273951   4.671   5.671   1.419
57352SOL     OW73952   2.461   0.950  10.256
57352SOL    HW173953   2.436   0.871  10.304
57352SOL    HW273954   2.403   0.950  10.180
57353SOL     OW73955   5.850   8.847   9.141
57353SOL    HW173956   5.880   8.779   9.201
57353SOL    HW273957   5.758   8.860   9.164
57354SOL     OW73958   9.155   4.749   2.486
57354SOL    HW173959   9.219   4.701   2.434
57354SOL    HW273960   9.207   4.808   2.540
57355SOL     OW73961   5.287   9.319  13.680
57355SOL    HW173962   5.341   9.250  13.720
57355SOL    HW273963   5.235   9.354  13.753
57356SOL     OW73964   6.793  12.411   1.613
57356SOL    HW173965   6.782  12.406   1.518
57356SOL    HW273966   6.888  12.420   1.626
57357SOL     OW73967  13.185  13.794   5.794
57357SOL    HW173968  13.205  13.752   5.710
57357SOL    HW273969  13.264  13.780   5.847
57358SOL     OW73970   2.631   0.932   5.065
57358SOL    HW173971   2.688   1.004   5.091
57358SOL    HW273972   2.557   0.973   5.022
57359SOL     OW73973   5.894  12.137   4.308
57359SOL    HW173974   5.887  12.185   4.225
57359SOL    HW273975   5.898  12.206   4.375
57360SOL     OW73976  11.400   8.721  10.970
57360SOL    HW173977  11.378   8.765  10.889
57360SOL    HW273978  11.434   8.636  10.943
57361SOL     OW73979   0.712  10.922   5.876
57361SOL    HW173980   0.617  10.920   5.889
57361SOL    HW273981   0.747  10.872   5.949
57362SOL     OW73982  14.453  10.846   7.367
57362SOL    HW173983  14.391  10.818   7.434
57362SOL    HW273984  14.532  10.870   7.415
57363SOL     OW73985   3.466  14.428  13.872
57363SOL    HW173986   3.554  14.405  13.901
57363SOL    HW273987   3.411  14.416  13.949
57364SOL     OW73988   9.517   7.243  14.161
57364SOL    HW173989   9.589   7.188  14.130
57364SOL    HW273990   9.482   7.197  14.237
57365SOL     OW73991  11.408  13.381   1.476
57365SOL    HW173992  11.436  13.430   1.553
57365SOL    HW273993  11.382  13.448   1.413
57366SOL     OW73994  13.184   1.032  14.497
57366SOL    HW173995  13.211   0.942  14.483
57366SOL    HW273996  13.105   1.043  14.444
57367SOL     OW73997  14.185  12.128   5.624
57367SOL    HW173998  14.187  12.062   5.555
57367SOL    HW273999  14.098  12.167   5.618
57368SOL     OW74000   1.255   7.737   0.386
57368SOL    HW174001   1.325   7.722   0.321
57368SOL    HW274002   1.175   7.741   0.334
57369SOL     OW74003  13.834   7.867   7.933
57369SOL    HW174004  13.797   7.932   7.873
57369SOL    HW274005  13.878   7.919   8.000
57370SOL     OW74006   0.127   1.577  13.728
57370SOL    HW174007   0.138   1.580  13.633
57370SOL    HW274008   0.214   1.594  13.763
57371SOL     OW74009   9.757   2.773   8.158
57371SOL    HW174010   9.799   2.833   8.097
57371SOL    HW274011   9.812   2.774   8.236
57372SOL     OW74012   4.613  10.257   8.212
57372SOL    HW174013   4.520  10.235   8.219
57372SOL    HW274014   4.657  10.174   8.197
57373SOL     OW74015   1.320   2.238   5.941
57373SOL    HW174016   1.339   2.323   5.904
57373SOL    HW274017   1.371   2.176   5.888
57374SOL     OW74018  13.012  10.585  10.925
57374SOL    HW174019  13.011  10.672  10.965
57374SOL    HW274020  12.920  10.558  10.925
57375SOL     OW74021  13.404  13.275   6.914
57375SOL    HW174022  13.386  13.309   7.002
57375SOL    HW274023  13.356  13.192   6.910
57376SOL     OW74024   2.996   4.075   4.484
57376SOL    HW174025   2.946   4.020   4.546
57376SOL    HW274026   2.961   4.163   4.497
57377SOL     OW74027   7.462   5.690   9.841
57377SOL    HW174028   7.375   5.696   9.800
57377SOL    HW274029   7.476   5.777   9.879
57378SOL     OW74030   7.132  14.866   9.243
57378SOL    HW174031   7.183  14.790   9.214
57378SOL    HW274032   7.041  14.838   9.233
57379SOL     OW74033   2.490   9.437   0.813
57379SOL    HW174034   2.509   9.531   0.812
57379SOL    HW274035   2.395   9.432   0.821
57380SOL     OW74036   7.177  13.221   4.190
57380SOL    HW174037   7.175  13.263   4.276
57380SOL    HW274038   7.253  13.260   4.146
57381SOL     OW74039   6.665   1.583   3.249
57381SOL    HW174040   6.714   1.629   3.182
57381SOL    HW274041   6.720   1.591   3.328
57382SOL     OW74042  10.202   6.137  11.990
57382SOL    HW174043  10.140   6.084  12.040
57382SOL    HW274044  10.202   6.099  11.902
57383SOL     OW74045   6.191   7.723  11.630
57383SOL    HW174046   6.251   7.683  11.567
57383SOL    HW274047   6.174   7.653  11.694
57384SOL     OW74048  13.154   1.855  11.840
57384SOL    HW174049  13.141   1.809  11.922
57384SOL    HW274050  13.196   1.791  11.782
57385SOL     OW74051  13.957  12.608  10.891
57385SOL    HW174052  13.959  12.704  10.892
57385SOL    HW274053  13.867  12.585  10.913
57386SOL     OW74054   5.539   7.078  14.575
57386SOL    HW174055   5.531   7.010  14.642
57386SOL    HW274056   5.634   7.092  14.566
57387SOL     OW74057   8.200  10.283  13.933
57387SOL    HW174058   8.249  10.219  13.984
57387SOL    HW274059   8.179  10.237  13.851
57388SOL     OW74060   2.874   3.131   7.989
57388SOL    HW174061   2.908   3.182   8.062
57388SOL    HW274062   2.791   3.173   7.966
57389SOL     OW74063  12.429   8.020  13.884
57389SOL    HW174064  12.357   8.045  13.827
57389SOL    HW274065  12.449   7.929  13.860
57390SOL     OW74066  10.916   7.052   8.460
57390SOL    HW174067  11.004   7.015   8.445
57390SOL    HW274068  10.927   7.111   8.534
57391SOL     OW74069   8.858   5.755  12.235
57391SOL    HW174070   8.822   5.812  12.167
57391SOL    HW274071   8.790   5.689  12.249
57392SOL     OW74072   5.635   2.695   7.882
57392SOL    HW174073   5.697   2.760   7.916
57392SOL    HW274074   5.564   2.694   7.945
57393SOL     OW74075  12.912   0.663  13.991
57393SOL    HW174076  12.879   0.652  14.080
57393SOL    HW274077  12.993   0.612  13.989
57394SOL     OW74078  11.078   6.981  12.725
57394SOL    HW174079  11.149   6.920  12.747
57394SOL    HW274080  11.035   6.941  12.650
57395SOL     OW74081   1.366  11.768   0.743
57395SOL    HW174082   1.309  11.742   0.670
57395SOL    HW274083   1.364  11.863   0.743
57396SOL     OW74084  13.577   9.530   1.784
57396SOL    HW174085  13.498   9.558   1.738
57396SOL    HW274086  13.649   9.562   1.730
57397SOL     OW74087   0.880   6.040   0.080
57397SOL    HW174088   0.845   5.955   0.054
57397SOL    HW274089   0.931   6.069   0.005
57398SOL     OW74090   0.748  14.795   8.946
57398SOL    HW174091   0.685  14.815   8.877
57398SOL    HW274092   0.744   0.001   9.004
57399SOL     OW74093   5.208   6.969   7.222
57399SOL    HW174094   5.285   7.010   7.261
57399SOL    HW274095   5.243   6.908   7.158
57400SOL     OW74096   8.375  13.597  12.258
57400SOL    HW174097   8.364  13.644  12.176
57400SOL    HW274098   8.310  13.635  12.317
57401SOL     OW74099  10.185   9.933  12.320
57401SOL    HW174100  10.124  10.003  12.295
57401SOL    HW274101  10.224   9.964  12.402
57402SOL     OW74102   8.488   5.605   1.353
57402SOL    HW174103   8.533   5.592   1.436
57402SOL    HW274104   8.476   5.517   1.317
57403SOL     OW74105  11.719   0.388   1.607
57403SOL    HW174106  11.738   0.444   1.531
57403SOL    HW274107  11.625   0.374   1.604
57404SOL     OW74108   0.814  12.654   4.165
57404SOL    HW174109   0.728  12.669   4.125
57404SOL    HW274110   0.796  12.648   4.259
57405SOL     OW74111   0.198   0.555   3.355
57405SOL    HW174112   0.267   0.515   3.407
57405SOL    HW274113   0.212   0.521   3.266
57406SOL     OW74114   2.991  13.367  13.952
57406SOL    HW174115   3.080  13.398  13.968
57406SOL    HW274116   2.980  13.371  13.857
57407SOL     OW74117   5.659  12.801   0.943
57407SOL    HW174118   5.669  12.751   0.861
57407SOL    HW274119   5.589  12.756   0.990
57408SOL     OW74120   9.717  12.821   8.576
57408SOL    HW174121   9.759  12.821   8.490
57408SOL    HW274122   9.724  12.912   8.606
57409SOL     OW74123   2.309   7.189   0.103
57409SOL    HW174124   2.256   7.244   0.046
57409SOL    HW274125   2.253   7.115   0.125
57410SOL     OW74126   3.724  13.531   6.052
57410SOL    HW174127   3.799  13.476   6.028
57410SOL    HW274128   3.657  13.509   5.987
57411SOL     OW74129  11.372  10.957  12.601
57411SOL    HW174130  11.460  10.995  12.601
57411SOL    HW274131  11.314  11.031  12.620
57412SOL     OW74132   3.487  12.008   8.715
57412SOL    HW174133   3.453  12.071   8.650
57412SOL    HW274134   3.411  11.957   8.740
57413SOL     OW74135   1.163  11.024  11.604
57413SOL    HW174136   1.067  11.027  11.597
57413SOL    HW274137   1.179  10.965  11.678
57414SOL     OW74138   8.582  11.022   2.069
57414SOL    HW174139   8.518  10.998   2.002
57414SOL    HW274140   8.541  10.995   2.151
57415SOL     OW74141   0.582   5.249   5.097
57415SOL    HW174142   0.543   5.235   5.011
57415SOL    HW274143   0.545   5.332   5.127
57416SOL     OW74144   6.920   0.175   1.288
57416SOL    HW174145   6.825   0.170   1.299
57416SOL    HW274146   6.944   0.259   1.326
57417SOL     OW74147   6.471  11.180   5.028
57417SOL    HW174148   6.404  11.192   5.095
57417SOL    HW274149   6.461  11.256   4.970
57418SOL     OW74150  11.896  11.744   4.247
57418SOL    HW174151  11.877  11.681   4.315
57418SOL    HW274152  11.982  11.780   4.271
57419SOL     OW74153   7.279   2.806  10.708
57419SOL    HW174154   7.261   2.841  10.796
57419SOL    HW274155   7.290   2.884  10.654
57420SOL     OW74156   7.651   6.691   5.841
57420SOL    HW174157   7.681   6.751   5.772
57420SOL    HW274158   7.559   6.713   5.854
57421SOL     OW74159   5.734   6.814  10.178
57421SOL    HW174160   5.723   6.838  10.269
57421SOL    HW274161   5.660   6.855  10.133
57422SOL     OW74162  12.757   5.535   6.255
57422SOL    HW174163  12.849   5.556   6.268
57422SOL    HW274164  12.749   5.520   6.160
57423SOL     OW74165   6.661  10.502   1.123
57423SOL    HW174166   6.748  10.465   1.112
57423SOL    HW274167   6.655  10.523   1.217
57424SOL     OW74168   8.149   6.188   5.218
57424SOL    HW174169   8.240   6.216   5.215
57424SOL    HW274170   8.120   6.210   5.307
57425SOL     OW74171  12.312   3.700   1.187
57425SOL    HW174172  12.311   3.754   1.108
57425SOL    HW274173  12.404   3.675   1.198
57426SOL     OW74174   9.634   3.752   3.069
57426SOL    HW174175   9.603   3.823   3.126
57426SOL    HW274176   9.729   3.757   3.075
57427SOL     OW74177  10.532  13.900  10.069
57427SOL    HW174178  10.583  13.855  10.136
57427SOL    HW274179  10.495  13.977  10.113
57428SOL     OW74180   4.935  14.687   3.594
57428SOL    HW174181   5.030  14.698   3.592
57428SOL    HW274182   4.907  14.708   3.504
57429SOL     OW74183  11.297   7.079  14.758
57429SOL    HW174184  11.317   7.005  14.816
57429SOL    HW274185  11.351   7.063  14.680
57430SOL     OW74186   6.307   6.562  13.717
57430SOL    HW174187   6.335   6.474  13.692
57430SOL    HW274188   6.226   6.548  13.765
57431SOL     OW74189   4.687  14.301   5.672
57431SOL    HW174190   4.620  14.347   5.621
57431SOL    HW274191   4.770  14.339   5.643
57432SOL     OW74192   0.725   9.057   9.120
57432SOL    HW174193   0.698   9.046   9.211
57432SOL    HW274194   0.817   9.083   9.126
57433SOL     OW74195   5.072   4.998   3.289
57433SOL    HW174196   5.115   5.013   3.205
57433SOL    HW274197   4.981   5.022   3.274
57434SOL     OW74198   4.569  12.942   3.923
57434SOL    HW174199   4.664  12.934   3.912
57434SOL    HW274200   4.547  12.873   3.986
57435SOL     OW74201   0.776   9.984   9.980
57435SOL    HW174202   0.846  10.017  10.035
57435SOL    HW274203   0.722  10.061   9.959
57436SOL     OW74204   5.294   2.795  14.391
57436SOL    HW174205   5.309   2.851  14.468
57436SOL    HW274206   5.381   2.785  14.352
57437SOL     OW74207   0.004   8.876   6.363
57437SOL    HW174208   0.079   8.820   6.380
57437SOL    HW274209  14.801   8.815   6.350
57438SOL     OW74210   2.609  11.606   2.602
57438SOL    HW174211   2.645  11.534   2.550
57438SOL    HW274212   2.568  11.563   2.677
57439SOL     OW74213  13.502  14.521  13.696
57439SOL    HW174214  13.513  14.613  13.720
57439SOL    HW274215  13.581  14.501  13.645
57440SOL     OW74216   2.063   2.537  13.396
57440SOL    HW174217   2.051   2.492  13.312
57440SOL    HW274218   2.158   2.539  13.409
57441SOL     OW74219   5.701  12.289   0.589
57441SOL    HW174220   5.750  12.350   0.534
57441SOL    HW274221   5.614  12.286   0.550
57442SOL     OW74222  12.264  11.468  14.178
57442SOL    HW174223  12.264  11.563  14.193
57442SOL    HW274224  12.181  11.450  14.136
57443SOL     OW74225   1.363   4.302   8.065
57443SOL    HW174226   1.270   4.310   8.088
57443SOL    HW274227   1.384   4.383   8.020
57444SOL     OW74228   9.028   4.268   3.560
57444SOL    HW174229   8.985   4.346   3.596
57444SOL    HW274230   9.055   4.294   3.472
57445SOL     OW74231   9.906   3.633  14.647
57445SOL    HW174232   9.882   3.719  14.612
57445SOL    HW274233   9.953   3.590  14.575
57446SOL     OW74234   2.402   2.290  12.677
57446SOL    HW174235   2.310   2.316  12.686
57446SOL    HW274236   2.407   2.250  12.591
57447SOL     OW74237   1.301  13.699   5.558
57447SOL    HW174238   1.337  13.765   5.500
57447SOL    HW274239   1.233  13.745   5.608
57448SOL     OW74240   2.458   3.967   6.983
57448SOL    HW174241   2.539   3.918   7.000
57448SOL    HW274242   2.444   4.018   7.062
57449SOL     OW74243  10.331   2.337   1.427
57449SOL    HW174244  10.384   2.305   1.354
57449SOL    HW274245  10.272   2.401   1.388
57450SOL     OW74246   2.867   9.523   4.246
57450SOL    HW174247   2.901   9.591   4.304
57450SOL    HW274248   2.802   9.568   4.191
57451SOL     OW74249   0.237   0.693   1.430
57451SOL    HW174250   0.248   0.644   1.349
57451SOL    HW274251   0.321   0.684   1.475
57452SOL     OW74252   4.388   5.005   9.629
57452SOL    HW174253   4.471   4.962   9.653
57452SOL    HW274254   4.370   5.064   9.702
57453SOL     OW74255   6.092   0.445   2.702
57453SOL    HW174256   6.157   0.462   2.769
57453SOL    HW274257   6.091   0.350   2.693
57454SOL     OW74258   0.697  10.746   1.417
57454SOL    HW174259   0.779  10.702   1.394
57454SOL    HW274260   0.664  10.698   1.493
57455SOL     OW74261   7.498   3.345   8.357
57455SOL    HW174262   7.536   3.387   8.434
57455SOL    HW274263   7.487   3.416   8.294
57456SOL     OW74264   9.421  13.258   8.567
57456SOL    HW174265   9.396  13.218   8.483
57456SOL    HW274266   9.463  13.341   8.542
57457SOL     OW74267   5.934   9.098  10.904
57457SOL    HW174268   5.880   9.072  10.829
57457SOL    HW274269   5.951   9.191  10.891
57458SOL     OW74270   6.315   1.238   9.364
57458SOL    HW174271   6.271   1.275   9.441
57458SOL    HW274272   6.400   1.282   9.362
57459SOL     OW74273   2.291   8.058   8.759
57459SOL    HW174274   2.253   8.092   8.840
57459SOL    HW274275   2.263   7.966   8.756
57460SOL     OW74276   3.419  11.725  10.582
57460SOL    HW174277   3.430  11.712  10.676
57460SOL    HW274278   3.332  11.763  10.573
57461SOL     OW74279   8.783  12.171   6.719
57461SOL    HW174280   8.822  12.103   6.774
57461SOL    HW274281   8.840  12.247   6.730
57462SOL     OW74282  12.394   1.069  11.116
57462SOL    HW174283  12.317   1.124  11.097
57462SOL    HW274284  12.393   1.003  11.047
57463SOL     OW74285  13.543   8.481  13.423
57463SOL    HW174286  13.615   8.442  13.374
57463SOL    HW274287  13.572   8.481  13.514
57464SOL     OW74288  12.546   8.740   6.953
57464SOL    HW174289  12.460   8.776   6.977
57464SOL    HW274290  12.604   8.766   7.024
57465SOL     OW74291   5.535   8.612   7.879
57465SOL    HW174292   5.614   8.648   7.919
57465SOL    HW274293   5.502   8.684   7.824
57466SOL     OW74294   9.172   4.453  12.822
57466SOL    HW174295   9.205   4.365  12.800
57466SOL    HW274296   9.201   4.467  12.912
57467SOL     OW74297   4.892   9.917  11.230
57467SOL    HW174298   4.910   9.952  11.142
57467SOL    HW274299   4.799   9.898  11.230
57468SOL     OW74300   1.507  11.650   5.529
57468SOL    HW174301   1.508  11.638   5.434
57468SOL    HW274302   1.468  11.736   5.543
57469SOL     OW74303  14.469  10.118   4.972
57469SOL    HW174304  14.449  10.200   5.018
57469SOL    HW274305  14.561  10.102   4.991
57470SOL     OW74306   2.952   5.108   3.387
57470SOL    HW174307   2.967   5.014   3.391
57470SOL    HW274308   3.035   5.147   3.413
57471SOL     OW74309  10.546   1.585   3.637
57471SOL    HW174310  10.563   1.570   3.730
57471SOL    HW274311  10.504   1.505   3.607
57472SOL     OW74312   9.192  10.989  11.907
57472SOL    HW174313   9.237  10.953  11.830
57472SOL    HW274314   9.262  11.031  11.958
57473SOL     OW74315  12.094   2.963  13.061
57473SOL    HW174316  12.049   2.914  13.131
57473SOL    HW274317  12.134   3.037  13.106
57474SOL     OW74318  10.309   0.779   3.790
57474SOL    HW174319  10.342   0.826   3.713
57474SOL    HW274320  10.379   0.786   3.854
57475SOL     OW74321   2.472   8.745   2.210
57475SOL    HW174322   2.450   8.743   2.303
57475SOL    HW274323   2.389   8.765   2.166
57476SOL     OW74324  14.227   1.392  10.023
57476SOL    HW174325  14.254   1.419   9.936
57476SOL    HW274326  14.307   1.395  10.076
57477SOL     OW74327   9.300   8.518   5.566
57477SOL    HW174328   9.385   8.550   5.537
57477SOL    HW274329   9.241   8.592   5.554
57478SOL     OW74330   6.146   2.869   6.738
57478SOL    HW174331   6.128   2.790   6.687
57478SOL    HW274332   6.159   2.937   6.673
57479SOL     OW74333   1.616   8.450  11.131
57479SOL    HW174334   1.593   8.442  11.038
57479SOL    HW274335   1.703   8.409  11.137
57480SOL     OW74336  11.297  11.360  11.612
57480SOL    HW174337  11.218  11.415  11.606
57480SOL    HW274338  11.365  11.420  11.643
57481SOL     OW74339   4.624   2.464  13.287
57481SOL    HW174340   4.664   2.508  13.362
57481SOL    HW274341   4.638   2.524  13.213
57482SOL     OW74342  12.928   4.143  10.081
57482SOL    HW174343  12.953   4.217  10.026
57482SOL    HW274344  12.900   4.183  10.163
57483SOL     OW74345   9.501  14.219   7.799
57483SOL    HW174346   9.585  14.182   7.771
57483SOL    HW274347   9.491  14.189   7.889
57484SOL     OW74348   8.749  12.388   6.051
57484SOL    HW174349   8.838  12.356   6.064
57484SOL    HW274350   8.710  12.387   6.138
57485SOL     OW74351  13.484  13.770   2.044
57485SOL    HW174352  13.438  13.829   1.984
57485SOL    HW274353  13.416  13.718   2.085
57486SOL     OW74354   8.295   4.420   6.944
57486SOL    HW174355   8.328   4.392   6.858
57486SOL    HW274356   8.260   4.507   6.929
57487SOL     OW74357  12.381   8.360   1.154
57487SOL    HW174358  12.453   8.299   1.140
57487SOL    HW274359  12.302   8.309   1.138
57488SOL     OW74360  10.067   8.294   3.675
57488SOL    HW174361   9.986   8.318   3.719
57488SOL    HW274362  10.082   8.203   3.700
57489SOL     OW74363   7.333   6.631  11.768
57489SOL    HW174364   7.364   6.709  11.723
57489SOL    HW274365   7.381   6.631  11.851
57490SOL     OW74366   3.501  13.455   6.238
57490SOL    HW174367   3.587  13.413   6.232
57490SOL    HW274368   3.498  13.492   6.326
57491SOL     OW74369   8.060  10.650  12.608
57491SOL    HW174370   8.138  10.616  12.651
57491SOL    HW274371   8.073  10.745  12.604
57492SOL     OW74372   0.513   0.227  12.268
57492SOL    HW174373   0.572   0.165  12.312
57492SOL    HW274374   0.484   0.181  12.190
57493SOL     OW74375   7.736   0.857  12.562
57493SOL    HW174376   7.694   0.871  12.647
57493SOL    HW274377   7.669   0.882  12.498
57494SOL     OW74378  12.493  13.260  14.493
57494SOL    HW174379  12.422  13.214  14.449
57494SOL    HW274380  12.571  13.208  14.476
57495SOL     OW74381   9.517   3.538  13.580
57495SOL    HW174382   9.466   3.618  13.573
57495SOL    HW274383   9.567   3.534  13.498
57496SOL     OW74384   4.610   7.948   1.561
57496SOL    HW174385   4.571   7.984   1.641
57496SOL    HW274386   4.537   7.935   1.501
57497SOL     OW74387   6.226   6.351  13.334
57497SOL    HW174388   6.285   6.427  13.329
57497SOL    HW274389   6.182   6.360  13.418
57498SOL     OW74390   4.530   8.565  10.754
57498SOL    HW174391   4.544   8.492  10.694
57498SOL    HW274392   4.618   8.597  10.773
57499SOL     OW74393   3.414   1.539  13.367
57499SOL    HW174394   3.435   1.468  13.428
57499SOL    HW274395   3.498   1.575  13.341
57500SOL     OW74396   1.516  13.983   3.828
57500SOL    HW174397   1.450  13.999   3.895
57500SOL    HW274398   1.489  13.900   3.788
57501SOL     OW74399   7.358   3.172   0.649
57501SOL    HW174400   7.330   3.250   0.697
57501SOL    HW274401   7.451   3.187   0.632
57502SOL     OW74402  10.879   4.778   9.896
57502SOL    HW174403  10.944   4.736   9.840
57502SOL    HW274404  10.923   4.857   9.929
57503SOL     OW74405  12.040   6.782   6.158
57503SOL    HW174406  12.101   6.745   6.222
57503SOL    HW274407  11.973   6.715   6.147
57504SOL     OW74408   8.854   3.947   7.723
57504SOL    HW174409   8.930   3.997   7.753
57504SOL    HW274410   8.891   3.868   7.683
57505SOL     OW74411   9.809   0.784  13.755
57505SOL    HW174412   9.865   0.855  13.784
57505SOL    HW274413   9.720   0.818  13.764
57506SOL     OW74414  13.905   3.297   2.409
57506SOL    HW174415  13.910   3.202   2.418
57506SOL    HW274416  13.983   3.330   2.453
57507SOL     OW74417  11.115   1.190  12.198
57507SOL    HW174418  11.172   1.197  12.121
57507SOL    HW274419  11.084   1.279  12.212
57508SOL     OW74420   3.079   9.180  11.180
57508SOL    HW174421   3.146   9.114  11.160
57508SOL    HW274422   3.125   9.264  11.167
57509SOL     OW74423   4.225   3.590   8.434
57509SOL    HW174424   4.246   3.680   8.459
57509SOL    HW274425   4.165   3.559   8.502
57510SOL     OW74426  14.836   9.648  14.419
57510SOL    HW174427   0.052   9.688  14.404
57510SOL    HW274428  14.794   9.702  14.486
57511SOL     OW74429  10.308   8.164   1.782
57511SOL    HW174430  10.276   8.254   1.795
57511SOL    HW274431  10.353   8.166   1.698
57512SOL     OW74432  11.512   9.448  13.184
57512SOL    HW174433  11.550   9.476  13.267
57512SOL    HW274434  11.419   9.438  13.203
57513SOL     OW74435   8.402  14.606   0.986
57513SOL    HW174436   8.328  14.564   0.943
57513SOL    HW274437   8.442  14.537   1.039
57514SOL     OW74438  11.988   8.518  14.064
57514SOL    HW174439  11.902   8.559  14.058
57514SOL    HW274440  11.970   8.426  14.085
57515SOL     OW74441   1.362   0.613   2.751
57515SOL    HW174442   1.320   0.572   2.827
57515SOL    HW274443   1.368   0.542   2.686
57516SOL     OW74444  12.171  10.381   5.809
57516SOL    HW174445  12.236  10.403   5.874
57516SOL    HW274446  12.142  10.466   5.774
57517SOL     OW74447   2.391   2.891  12.046
57517SOL    HW174448   2.379   2.801  12.015
57517SOL    HW274449   2.482   2.895  12.073
57518SOL     OW74450   9.175  11.157  10.761
57518SOL    HW174451   9.216  11.152  10.848
57518SOL    HW274452   9.242  11.122  10.702
57519SOL     OW74453  11.570   7.996   9.779
57519SOL    HW174454  11.616   7.927   9.731
57519SOL    HW274455  11.529   7.951   9.853
57520SOL     OW74456   6.850   8.286   6.804
57520SOL    HW174457   6.839   8.305   6.897
57520SOL    HW274458   6.762   8.262   6.774
57521SOL     OW74459  13.335  13.149   2.204
57521SOL    HW174460  13.409  13.190   2.249
57521SOL    HW274461  13.347  13.055   2.218
57522SOL     OW74462   2.558  12.774   0.876
57522SOL    HW174463   2.594  12.687   0.891
57522SOL    HW274464   2.541  12.808   0.964
57523SOL     OW74465   8.233   7.976  10.910
57523SOL    HW174466   8.277   7.966  10.826
57523SOL    HW274467   8.140   7.961  10.891
57524SOL     OW74468  11.857   0.289  12.749
57524SOL    HW174469  11.775   0.265  12.792
57524SOL    HW274470  11.914   0.317  12.821
57525SOL     OW74471   9.383   5.713   1.951
57525SOL    HW174472   9.296   5.681   1.975
57525SOL    HW274473   9.393   5.688   1.859
57526SOL     OW74474   8.501   0.773  12.921
57526SOL    HW174475   8.476   0.760  12.830
57526SOL    HW274476   8.436   0.723  12.971
57527SOL     OW74477   6.981  13.344  10.861
57527SOL    HW174478   6.962  13.374  10.772
57527SOL    HW274479   6.901  13.361  10.910
57528SOL     OW74480   5.629   1.366   2.034
57528SOL    HW174481   5.708   1.364   1.981
57528SOL    HW274482   5.657   1.334   2.120
57529SOL     OW74483   4.209  12.585   8.500
57529SOL    HW174484   4.179  12.498   8.526
57529SOL    HW274485   4.135  12.643   8.522
57530SOL     OW74486   6.373   5.212   4.563
57530SOL    HW174487   6.424   5.148   4.513
57530SOL    HW274488   6.318   5.255   4.498
57531SOL     OW74489   9.592   2.902  13.514
57531SOL    HW174490   9.667   2.842  13.521
57531SOL    HW274491   9.632   2.989  13.506
57532SOL     OW74492  10.146   0.752   5.236
57532SOL    HW174493  10.094   0.751   5.155
57532SOL    HW274494  10.096   0.699   5.297
57533SOL     OW74495   8.696   1.025   5.896
57533SOL    HW174496   8.766   0.960   5.892
57533SOL    HW274497   8.735   1.101   5.939
57534SOL     OW74498   0.646  13.759   2.448
57534SOL    HW174499   0.634  13.732   2.357
57534SOL    HW274500   0.582  13.708   2.497
57535SOL     OW74501  14.591   5.455  13.441
57535SOL    HW174502  14.517   5.403  13.410
57535SOL    HW274503  14.668   5.402  13.419
57536SOL     OW74504   6.005   7.874  10.206
57536SOL    HW174505   6.041   7.905  10.123
57536SOL    HW274506   5.920   7.836  10.182
57537SOL     OW74507   1.765  14.214   0.602
57537SOL    HW174508   1.753  14.307   0.621
57537SOL    HW274509   1.840  14.187   0.656
57538SOL     OW74510   7.909   0.645  14.677
57538SOL    HW174511   7.906   0.737  14.649
57538SOL    HW274512   8.002   0.624  14.679
57539SOL     OW74513  14.792   0.753   8.534
57539SOL    HW174514  14.803   0.777   8.442
57539SOL    HW274515   0.007   0.717   8.560
57540SOL     OW74516  10.739   2.633   5.308
57540SOL    HW174517  10.703   2.717   5.337
57540SOL    HW274518  10.662   2.578   5.291
57541SOL     OW74519   8.156   0.070  12.524
57541SOL    HW174520   8.082   0.063  12.464
57541SOL    HW274521   8.170  14.851  12.557
57542SOL     OW74522   8.124  13.688   0.338
57542SOL    HW174523   8.219  13.688   0.354
57542SOL    HW274524   8.099  13.596   0.338
57543SOL     OW74525   8.034  11.813   2.937
57543SOL    HW174526   7.968  11.862   2.889
57543SOL    HW274527   8.118  11.842   2.901
57544SOL     OW74528   8.498   1.452   5.775
57544SOL    HW174529   8.535   1.383   5.721
57544SOL    HW274530   8.403   1.443   5.764
57545SOL     OW74531   0.259   8.462  13.984
57545SOL    HW174532   0.218   8.418  14.058
57545SOL    HW274533   0.239   8.406  13.909
57546SOL     OW74534   5.310  11.178  10.863
57546SOL    HW174535   5.290  11.270  10.880
57546SOL    HW274536   5.239  11.130  10.905
57547SOL     OW74537   6.378   9.766  13.495
57547SOL    HW174538   6.385   9.675  13.465
57547SOL    HW274539   6.334   9.760  13.580
57548SOL     OW74540   5.924   6.715   8.398
57548SOL    HW174541   5.879   6.748   8.476
57548SOL    HW274542   5.932   6.621   8.413
57549SOL     OW74543  10.047   2.634   2.147
57549SOL    HW174544   9.969   2.653   2.095
57549SOL    HW274545  10.012   2.607   2.232
57550SOL     OW74546   0.917   7.171  11.692
57550SOL    HW174547   0.829   7.178  11.655
57550SOL    HW274548   0.956   7.257  11.678
57551SOL     OW74549   6.941  14.497  14.207
57551SOL    HW174550   6.966  14.548  14.284
57551SOL    HW274551   7.017  14.502  14.150
57552SOL     OW74552   7.513   4.639   6.792
57552SOL    HW174553   7.439   4.637   6.851
57552SOL    HW274554   7.550   4.550   6.797
57553SOL     OW74555   5.330   6.107  10.596
57553SOL    HW174556   5.413   6.067  10.623
57553SOL    HW274557   5.282   6.037  10.551
57554SOL     OW74558   1.672   3.255   9.473
57554SOL    HW174559   1.704   3.165   9.466
57554SOL    HW274560   1.699   3.296   9.390
57555SOL     OW74561  13.061  13.516  12.610
57555SOL    HW174562  13.040  13.431  12.570
57555SOL    HW274563  12.990  13.574  12.581
57556SOL     OW74564  12.279   5.515   6.526
57556SOL    HW174565  12.304   5.451   6.593
57556SOL    HW274566  12.357   5.525   6.472
57557SOL     OW74567  13.253   2.864   9.548
57557SOL    HW174568  13.195   2.838   9.619
57557SOL    HW274569  13.333   2.813   9.562
57558SOL     OW74570   0.306  12.128   8.228
57558SOL    HW174571   0.272  12.217   8.220
57558SOL    HW274572   0.398  12.135   8.202
57559SOL     OW74573   8.422  11.491   0.049
57559SOL    HW174574   8.360  11.559   0.023
57559SOL    HW274575   8.504  11.537   0.066
57560SOL     OW74576   0.558   3.674   6.766
57560SOL    HW174577   0.473   3.711   6.789
57560SOL    HW274578   0.558   3.587   6.806
57561SOL     OW74579  13.872  10.549  10.303
57561SOL    HW174580  13.813  10.622  10.321
57561SOL    HW274581  13.904  10.566  10.214
57562SOL     OW74582  12.499  14.553  14.272
57562SOL    HW174583  12.412  14.558  14.312
57562SOL    HW274584  12.559  14.553  14.347
57563SOL     OW74585  12.866   1.804   4.657
57563SOL    HW174586  12.942   1.759   4.695
57563SOL    HW274587  12.812   1.733   4.621
57564SOL     OW74588   6.346   9.612  12.715
57564SOL    HW174589   6.400   9.615  12.636
57564SOL    HW274590   6.284   9.684  12.705
57565SOL     OW74591   8.989  13.796  14.430
57565SOL    HW174592   8.955  13.732  14.493
57565SOL    HW274593   9.084  13.792  14.442
57566SOL     OW74594  12.224   4.788   4.885
57566SOL    HW174595  12.253   4.708   4.842
57566SOL    HW274596  12.144   4.812   4.840
57567SOL     OW74597  10.541   6.501   1.791
57567SOL    HW174598  10.466   6.521   1.847
57567SOL    HW274599  10.532   6.559   1.716
57568SOL     OW74600   5.133  14.781  12.587
57568SOL    HW174601   5.109  14.704  12.536
57568SOL    HW274602   5.052  14.807  12.631
57569SOL     OW74603   2.630   0.600  11.293
57569SOL    HW174604   2.556   0.612  11.233
57569SOL    HW274605   2.635   0.682  11.342
57570SOL     OW74606  12.070  12.647   8.868
57570SOL    HW174607  11.975  12.658   8.863
57570SOL    HW274608  12.083  12.593   8.947
57571SOL     OW74609   7.896  14.322   7.196
57571SOL    HW174610   7.839  14.296   7.268
57571SOL    HW274611   7.973  14.265   7.205
57572SOL     OW74612   8.353  13.672   4.226
57572SOL    HW174613   8.277  13.729   4.219
57572SOL    HW274614   8.330  13.594   4.177
57573SOL     OW74615  11.224   6.901  13.855
57573SOL    HW174616  11.231   6.811  13.821
57573SOL    HW274617  11.283   6.952  13.800
57574SOL     OW74618   9.865  12.799   7.645
57574SOL    HW174619   9.806  12.833   7.578
57574SOL    HW274620   9.831  12.712   7.665
57575SOL     OW74621   1.237   6.374   8.159
57575SOL    HW174622   1.245   6.355   8.066
57575SOL    HW274623   1.286   6.455   8.172
57576SOL     OW74624  11.366  14.682   6.639
57576SOL    HW174625  11.427  14.723   6.700
57576SOL    HW274626  11.416  14.670   6.559
57577SOL     OW74627   3.259   4.094   9.408
57577SOL    HW174628   3.230   4.159   9.344
57577SOL    HW274629   3.326   4.043   9.363
57578SOL     OW74630   9.302  10.681   1.073
57578SOL    HW174631   9.350  10.601   1.095
57578SOL    HW274632   9.346  10.714   0.994
57579SOL     OW74633   4.144   2.123  12.630
57579SOL    HW174634   4.063   2.102  12.677
57579SOL    HW274635   4.212   2.123  12.698
57580SOL     OW74636  12.073   3.287  10.030
57580SOL    HW174637  11.997   3.333  10.064
57580SOL    HW274638  12.137   3.291  10.101
57581SOL     OW74639   0.993   7.276   7.072
57581SOL    HW174640   0.904   7.291   7.041
57581SOL    HW274641   0.997   7.181   7.087
57582SOL     OW74642   6.964  10.847   7.109
57582SOL    HW174643   7.054  10.833   7.140
57582SOL    HW274644   6.929  10.759   7.096
57583SOL     OW74645  12.348   1.978   1.108
57583SOL    HW174646  12.393   2.060   1.086
57583SOL    HW274647  12.418   1.918   1.132
57584SOL     OW74648   5.849   5.399  10.666
57584SOL    HW174649   5.903   5.340  10.614
57584SOL    HW274650   5.897   5.482  10.667
57585SOL     OW74651   9.171  10.458   1.689
57585SOL    HW174652   9.159  10.412   1.606
57585SOL    HW274653   9.083  10.492   1.710
57586SOL     OW74654   3.838   1.681   5.618
57586SOL    HW174655   3.850   1.695   5.524
57586SOL    HW274656   3.848   1.768   5.656
57587SOL     OW74657  14.760  13.740  11.646
57587SOL    HW174658  14.757  13.667  11.707
57587SOL    HW274659  14.670  13.752  11.617
57588SOL     OW74660   3.507  11.725  13.746
57588SOL    HW174661   3.590  11.752  13.707
57588SOL    HW274662   3.443  11.789  13.714
57589SOL     OW74663   4.440   6.917   8.364
57589SOL    HW174664   4.482   7.003   8.365
57589SOL    HW274665   4.435   6.892   8.456
57590SOL     OW74666   2.627   7.041  11.948
57590SOL    HW174667   2.632   7.127  11.990
57590SOL    HW274668   2.611   7.060  11.855
57591SOL     OW74669   2.851   6.867  11.875
57591SOL    HW174670   2.755   6.870  11.881
57591SOL    HW274671   2.869   6.796  11.813
57592SOL     OW74672   5.377  13.023  13.233
57592SOL    HW174673   5.314  12.979  13.176
57592SOL    HW274674   5.392  12.961  13.305
57593SOL     OW74675   6.646   4.562   9.641
57593SOL    HW174676   6.552   4.546   9.633
57593SOL    HW274677   6.682   4.530   9.558
57594SOL     OW74678   8.206   5.346   8.194
57594SOL    HW174679   8.275   5.403   8.160
57594SOL    HW274680   8.210   5.357   8.289
57595SOL     OW74681   1.888   3.927  12.429
57595SOL    HW174682   1.959   3.947  12.489
57595SOL    HW274683   1.880   4.006  12.374
57596SOL     OW74684   9.025  12.808  14.355
57596SOL    HW174685   9.006  12.902  14.366
57596SOL    HW274686   9.011  12.771  14.442
57597SOL     OW74687   3.898  10.702   6.408
57597SOL    HW174688   3.884  10.763   6.480
57597SOL    HW274689   3.991  10.680   6.413
57598SOL     OW74690  10.113  11.291   9.288
57598SOL    HW174691  10.148  11.205   9.311
57598SOL    HW274692  10.023  11.274   9.260
57599SOL     OW74693   7.919   4.642   1.445
57599SOL    HW174694   7.967   4.622   1.365
57599SOL    HW274695   7.986   4.664   1.510
57600SOL     OW74696   8.182   3.515   9.245
57600SOL    HW174697   8.242   3.493   9.316
57600SOL    HW274698   8.098   3.478   9.271
57601SOL     OW74699  13.971   4.436  10.456
57601SOL    HW174700  13.968   4.518  10.406
57601SOL    HW274701  14.037   4.384  10.411
57602SOL     OW74702   7.601   5.398   6.204
57602SOL    HW174703   7.551   5.331   6.158
57602SOL    HW274704   7.693   5.375   6.188
57603SOL     OW74705   3.242   7.143   6.745
57603SOL    HW174706   3.189   7.090   6.805
57603SOL    HW274707   3.182   7.209   6.712
57604SOL     OW74708   2.484   2.455   4.948
57604SOL    HW174709   2.534   2.375   4.932
57604SOL    HW274710   2.453   2.446   5.038
57605SOL     OW74711   1.128   6.902   6.162
57605SOL    HW174712   1.039   6.896   6.196
57605SOL    HW274713   1.121   6.964   6.089
57606SOL     OW74714   3.031   6.528  11.143
57606SOL    HW174715   2.997   6.448  11.180
57606SOL    HW274716   3.016   6.520  11.049
57607SOL     OW74717   0.480   9.473   5.062
57607SOL    HW174718   0.397   9.496   5.020
57607SOL    HW274719   0.493   9.542   5.127
57608SOL     OW74720   6.559   8.812   2.267
57608SOL    HW174721   6.642   8.852   2.291
57608SOL    HW274722   6.493   8.875   2.296
57609SOL     OW74723   9.639   8.854   4.248
57609SOL    HW174724   9.595   8.897   4.322
57609SOL    HW274725   9.696   8.790   4.289
57610SOL     OW74726   2.969  10.290  13.846
57610SOL    HW174727   2.906  10.231  13.806
57610SOL    HW274728   2.996  10.348  13.775
57611SOL     OW74729  13.115  12.553  11.793
57611SOL    HW174730  13.175  12.512  11.856
57611SOL    HW274731  13.046  12.488  11.781
57612SOL     OW74732   5.431  14.537  11.666
57612SOL    HW174733   5.484  14.616  11.683
57612SOL    HW274734   5.492  14.464  11.681
57613SOL     OW74735   0.785   5.589   5.039
57613SOL    HW174736   0.781   5.494   5.031
57613SOL    HW274737   0.878   5.610   5.047
57614SOL     OW74738  14.171   7.607  10.453
57614SOL    HW174739  14.169   7.551  10.531
57614SOL    HW274740  14.099   7.575  10.398
57615SOL     OW74741   3.150  14.630  12.681
57615SOL    HW174742   3.193  14.663  12.760
57615SOL    HW274743   3.219  14.584  12.634
57616SOL     OW74744  12.866  13.428  13.531
57616SOL    HW174745  12.828  13.383  13.455
57616SOL    HW274746  12.937  13.370  13.559
57617SOL     OW74747   0.511  11.670  12.367
57617SOL    HW174748   0.536  11.599  12.307
57617SOL    HW274749   0.552  11.748  12.329
57618SOL     OW74750   0.795  13.987  14.695
57618SOL    HW174751   0.742  13.908  14.709
57618SOL    HW274752   0.860  13.984  14.765
57619SOL     OW74753   8.012   0.273   3.032
57619SOL    HW174754   8.098   0.304   3.060
57619SOL    HW274755   7.973   0.348   2.987
57620SOL     OW74756   8.758  11.455   3.549
57620SOL    HW174757   8.815  11.508   3.605
57620SOL    HW274758   8.803  11.451   3.465
57621SOL     OW74759   7.965   2.459   3.898
57621SOL    HW174760   8.046   2.501   3.925
57621SOL    HW274761   7.993   2.381   3.850
57622SOL     OW74762   1.188   2.120  14.267
57622SOL    HW174763   1.158   2.078  14.347
57622SOL    HW274764   1.207   2.048  14.207
57623SOL     OW74765   4.252   0.988  12.427
57623SOL    HW174766   4.332   1.037  12.406
57623SOL    HW274767   4.279   0.926  12.495
57624SOL     OW74768   5.001   9.015   7.076
57624SOL    HW174769   5.070   9.056   7.024
57624SOL    HW274770   4.920   9.052   7.042
57625SOL     OW74771   7.140   1.760   3.490
57625SOL    HW174772   7.049   1.728   3.493
57625SOL    HW274773   7.138   1.831   3.426
57626SOL     OW74774   0.753  10.665  11.912
57626SOL    HW174775   0.780  10.680  11.821
57626SOL    HW274776   0.704  10.583  11.909
57627SOL     OW74777   0.749  13.475   8.954
57627SOL    HW174778   0.663  13.498   8.920
57627SOL    HW274779   0.737  13.387   8.991
57628SOL     OW74780   0.990   0.484   5.955
57628SOL    HW174781   1.019   0.418   6.017
57628SOL    HW274782   0.906   0.452   5.923
57629SOL     OW74783  13.578   0.489  12.179
57629SOL    HW174784  13.655   0.497  12.235
57629SOL    HW274785  13.613   0.484  12.090
57630SOL     OW74786  11.232   7.771  12.097
57630SOL    HW174787  11.201   7.686  12.067
57630SOL    HW274788  11.299   7.796  12.034
57631SOL     OW74789   7.481   9.801   5.186
57631SOL    HW174790   7.483   9.843   5.101
57631SOL    HW274791   7.549   9.734   5.182
57632SOL     OW74792   5.488   8.045   8.401
57632SOL    HW174793   5.557   8.073   8.461
57632SOL    HW274794   5.495   7.950   8.398
57633SOL     OW74795  13.937   9.455  12.472
57633SOL    HW174796  13.877   9.529  12.460
57633SOL    HW274797  13.940   9.412  12.386
57634SOL     OW74798  13.912   0.165  14.329
57634SOL    HW174799  13.879   0.112  14.256
57634SOL    HW274800  13.960   0.237  14.287
57635SOL     OW74801   6.439   7.117   0.195
57635SOL    HW174802   6.508   7.156   0.141
57635SOL    HW274803   6.451   7.023   0.184
57636SOL     OW74804   7.884   3.259  10.314
57636SOL    HW174805   7.844   3.234  10.397
57636SOL    HW274806   7.897   3.177  10.267
57637SOL     OW74807   4.768   4.576  14.525
57637SOL    HW174808   4.789   4.662  14.561
57637SOL    HW274809   4.818   4.514  14.578
57638SOL     OW74810   0.658   2.505   1.286
57638SOL    HW174811   0.631   2.506   1.378
57638SOL    HW274812   0.745   2.545   1.286
57639SOL     OW74813  14.123  14.110   6.584
57639SOL    HW174814  14.212  14.075   6.591
57639SOL    HW274815  14.109  14.118   6.490
57640SOL     OW74816   6.967  11.743  11.451
57640SOL    HW174817   7.060  11.752  11.471
57640SOL    HW274818   6.925  11.732  11.536
57641SOL     OW74819   1.944   0.094  10.215
57641SOL    HW174820   1.980   0.172  10.171
57641SOL    HW274821   2.021   0.048  10.249
57642SOL     OW74822   4.498   1.568   2.111
57642SOL    HW174823   4.549   1.639   2.149
57642SOL    HW274824   4.549   1.539   2.036
57643SOL     OW74825   0.256   1.255   7.967
57643SOL    HW174826   0.246   1.199   7.890
57643SOL    HW274827   0.168   1.292   7.981
57644SOL     OW74828   1.923   8.542   1.992
57644SOL    HW174829   1.832   8.571   1.999
57644SOL    HW274830   1.963   8.602   1.930
57645SOL     OW74831   6.532   6.693  13.682
57645SOL    HW174832   6.559   6.701  13.773
57645SOL    HW274833   6.449   6.647  13.685
57646SOL     OW74834  12.215   4.456   6.834
57646SOL    HW174835  12.124   4.450   6.862
57646SOL    HW274836  12.218   4.408   6.751
57647SOL     OW74837  13.142  12.043   8.281
57647SOL    HW174838  13.144  11.951   8.307
57647SOL    HW274839  13.161  12.042   8.187
57648SOL     OW74840  11.112  12.537   9.157
57648SOL    HW174841  11.124  12.605   9.223
57648SOL    HW274842  11.086  12.460   9.207
57649SOL     OW74843   7.679   5.906  14.600
57649SOL    HW174844   7.723   5.975  14.649
57649SOL    HW274845   7.620   5.953  14.541
57650SOL     OW74846   0.641   7.497  14.841
57650SOL    HW174847   0.616   7.576  14.793
57650SOL    HW274848   0.672   7.437  14.774
57651SOL     OW74849  11.942   7.718  11.007
57651SOL    HW174850  11.933   7.668  10.926
57651SOL    HW274851  11.872   7.782  11.005
57652SOL     OW74852  11.375  14.082   0.508
57652SOL    HW174853  11.459  14.127   0.500
57652SOL    HW274854  11.312  14.140   0.465
57653SOL     OW74855   8.773  10.805   5.536
57653SOL    HW174856   8.679  10.789   5.525
57653SOL    HW274857   8.810  10.718   5.550
57654SOL     OW74858   6.623   9.469   6.318
57654SOL    HW174859   6.531   9.461   6.342
57654SOL    HW274860   6.643   9.387   6.272
57655SOL     OW74861  11.808  12.769   3.058
57655SOL    HW174862  11.764  12.695   3.016
57655SOL    HW274863  11.873  12.729   3.115
57656SOL     OW74864   1.898  11.701   7.885
57656SOL    HW174865   1.981  11.688   7.839
57656SOL    HW274866   1.840  11.634   7.849
57657SOL     OW74867  14.726  12.171   5.944
57657SOL    HW174868  14.670  12.110   5.896
57657SOL    HW274869  14.760  12.120   6.018
57658SOL     OW74870   7.027  13.398   9.831
57658SOL    HW174871   6.944  13.350   9.831
57658SOL    HW274872   7.021  13.457   9.756
57659SOL     OW74873   0.476  13.027  10.465
57659SOL    HW174874   0.496  13.089  10.535
57659SOL    HW274875   0.485  12.941  10.505
57660SOL     OW74876   8.815  10.866  11.887
57660SOL    HW174877   8.727  10.829  11.898
57660SOL    HW274878   8.851  10.819  11.812
57661SOL     OW74879   0.228  13.720  11.262
57661SOL    HW174880   0.239  13.625  11.258
57661SOL    HW274881   0.209  13.738  11.354
57662SOL     OW74882   8.584  10.394   3.656
57662SOL    HW174883   8.677  10.388   3.636
57662SOL    HW274884   8.553  10.303   3.652
57663SOL     OW74885  12.911  14.609   3.629
57663SOL    HW174886  12.836  14.604   3.570
57663SOL    HW274887  12.981  14.646   3.576
57664SOL     OW74888  13.411  10.688  14.465
57664SOL    HW174889  13.474  10.748  14.504
57664SOL    HW274890  13.402  10.719  14.375
57665SOL     OW74891   6.865  13.452  11.547
57665SOL    HW174892   6.906  13.372  11.514
57665SOL    HW274893   6.854  13.507  11.469
57666SOL     OW74894  11.264   7.353   0.735
57666SOL    HW174895  11.187   7.396   0.773
57666SOL    HW274896  11.338   7.404   0.768
57667SOL     OW74897   7.959  11.723   5.479
57667SOL    HW174898   8.025  11.758   5.420
57667SOL    HW274899   7.933  11.640   5.438
57668SOL     OW74900  13.766   8.179   9.712
57668SOL    HW174901  13.855   8.210   9.725
57668SOL    HW274902  13.711   8.252   9.740
57669SOL     OW74903   6.824   5.434  11.266
57669SOL    HW174904   6.812   5.369  11.336
57669SOL    HW274905   6.817   5.382  11.185
57670SOL     OW74906  12.146   6.486   9.742
57670SOL    HW174907  12.148   6.425   9.668
57670SOL    HW274908  12.072   6.544   9.722
57671SOL     OW74909  12.987   5.123   3.019
57671SOL    HW174910  12.955   5.184   3.085
57671SOL    HW274911  12.967   5.165   2.935
57672SOL     OW74912   1.817  12.412   3.128
57672SOL    HW174913   1.771  12.365   3.058
57672SOL    HW274914   1.834  12.346   3.195
57673SOL     OW74915   6.760  11.090   2.214
57673SOL    HW174916   6.775  11.003   2.250
57673SOL    HW274917   6.806  11.149   2.273
57674SOL     OW74918  12.063   6.579  12.783
57674SOL    HW174919  12.115   6.590  12.703
57674SOL    HW274920  12.125   6.597  12.854
57675SOL     OW74921  12.980   7.873   3.857
57675SOL    HW174922  13.056   7.930   3.872
57675SOL    HW274923  12.979   7.814   3.932
57676SOL     OW74924  14.220   9.479   6.954
57676SOL    HW174925  14.310   9.454   6.977
57676SOL    HW274926  14.176   9.395   6.938
57677SOL     OW74927   6.795  14.446   1.080
57677SOL    HW174928   6.755  14.526   1.113
57677SOL    HW274929   6.885  14.449   1.112
57678SOL     OW74930  14.088   8.113   6.666
57678SOL    HW174931  14.018   8.051   6.646
57678SOL    HW274932  14.043   8.185   6.710
57679SOL     OW74933   1.261  13.352   4.251
57679SOL    HW174934   1.221  13.277   4.295
57679SOL    HW274935   1.345  13.320   4.219
57680SOL     OW74936   9.363  14.030   8.636
57680SOL    HW174937   9.351  14.116   8.677
57680SOL    HW274938   9.398  14.049   8.549
57681SOL     OW74939   4.905  12.062  10.883
57681SOL    HW174940   4.838  12.126  10.859
57681SOL    HW274941   4.903  12.059  10.978
57682SOL     OW74942   7.411   1.151   6.437
57682SOL    HW174943   7.370   1.237   6.445
57682SOL    HW274944   7.486   1.155   6.496
57683SOL     OW74945   9.988   0.930   4.864
57683SOL    HW174946   9.909   0.977   4.889
57683SOL    HW274947  10.055   0.998   4.856
57684SOL     OW74948   6.944   1.770  13.932
57684SOL    HW174949   7.011   1.722  13.885
57684SOL    HW274950   6.958   1.747  14.024
57685SOL     OW74951   2.799   5.673   1.697
57685SOL    HW174952   2.763   5.674   1.608
57685SOL    HW274953   2.726   5.697   1.753
57686SOL     OW74954  10.339   0.675   4.159
57686SOL    HW174955  10.321   0.710   4.246
57686SOL    HW274956  10.405   0.734   4.123
57687SOL     OW74957   5.763  14.412   5.795
57687SOL    HW174958   5.787  14.336   5.741
57687SOL    HW274959   5.680  14.386   5.836
57688SOL     OW74960  12.963   2.491   2.724
57688SOL    HW174961  12.871   2.476   2.702
57688SOL    HW274962  12.988   2.568   2.673
57689SOL     OW74963   4.404   0.078  10.987
57689SOL    HW174964   4.482   0.052  10.938
57689SOL    HW274965   4.333   0.030  10.945
57690SOL     OW74966   6.562  13.275   4.768
57690SOL    HW174967   6.650  13.242   4.784
57690SOL    HW274968   6.563  13.364   4.803
57691SOL     OW74969   9.262   1.901  13.717
57691SOL    HW174970   9.344   1.908  13.669
57691SOL    HW274971   9.194   1.915  13.652
57692SOL     OW74972   7.301   0.589   1.055
57692SOL    HW174973   7.389   0.625   1.069
57692SOL    HW274974   7.317   0.504   1.013
57693SOL     OW74975   1.212   7.709  12.579
57693SOL    HW174976   1.251   7.782  12.531
57693SOL    HW274977   1.286   7.669  12.625
57694SOL     OW74978   7.922  10.565   4.786
57694SOL    HW174979   7.909  10.485   4.735
57694SOL    HW274980   8.009  10.596   4.760
57695SOL     OW74981   3.139   3.676   7.426
57695SOL    HW174982   3.115   3.642   7.340
57695SOL    HW274983   3.061   3.722   7.457
57696SOL     OW74984   1.546   8.417   5.190
57696SOL    HW174985   1.554   8.356   5.116
57696SOL    HW274986   1.460   8.398   5.228
57697SOL     OW74987   6.203   7.643  11.217
57697SOL    HW174988   6.299   7.649  11.218
57697SOL    HW274989   6.184   7.586  11.143
57698SOL     OW74990   4.864  11.013   2.315
57698SOL    HW174991   4.878  11.082   2.380
57698SOL    HW274992   4.769  11.007   2.308
57699SOL     OW74993   1.823   2.071   7.550
57699SOL    HW174994   1.765   2.137   7.587
57699SOL    HW274995   1.804   2.073   7.456
57700SOL     OW74996  10.153   4.239   0.600
57700SOL    HW174997  10.208   4.161   0.591
57700SOL    HW274998  10.215   4.311   0.613
57701SOL     OW74999   3.142   6.640   4.048
57701SOL    HW175000   3.152   6.624   3.954
57701SOL    HW275001   3.098   6.562   4.081
57702SOL     OW75002   1.933  13.278   5.268
57702SOL    HW175003   1.965  13.355   5.314
57702SOL    HW275004   1.984  13.275   5.187
57703SOL     OW75005   2.530   2.931   2.114
57703SOL    HW175006   2.457   2.986   2.144
57703SOL    HW275007   2.520   2.850   2.163
57704SOL     OW75008  14.256   2.870  14.423
57704SOL    HW175009  14.321   2.932  14.456
57704SOL    HW275010  14.300   2.827  14.349
57705SOL     OW75011   4.218  11.337   4.013
57705SOL    HW175012   4.271  11.274   3.964
57705SOL    HW275013   4.249  11.423   3.984
57706SOL     OW75014  14.532  12.143   8.441
57706SOL    HW175015  14.550  12.184   8.356
57706SOL    HW275016  14.593  12.070   8.446
57707SOL     OW75017  10.132   3.628   4.569
57707SOL    HW175018  10.209   3.648   4.516
57707SOL    HW275019  10.060   3.673   4.524
57708SOL     OW75020   1.071  13.662  12.894
57708SOL    HW175021   1.069  13.655  12.990
57708SOL    HW275022   1.160  13.691  12.874
57709SOL     OW75023   3.224  11.297   9.978
57709SOL    HW175024   3.192  11.272  10.065
57709SOL    HW275025   3.163  11.365   9.948
57710SOL     OW75026   2.031   6.260  10.310
57710SOL    HW175027   1.969   6.325  10.344
57710SOL    HW275028   2.087   6.310  10.250
57711SOL     OW75029   3.892  13.698   8.747
57711SOL    HW175030   3.952  13.639   8.794
57711SOL    HW275031   3.807  13.656   8.754
57712SOL     OW75032  11.155   0.777   4.855
57712SOL    HW175033  11.127   0.869   4.854
57712SOL    HW275034  11.247   0.780   4.828
57713SOL     OW75035  10.941   7.441   7.596
57713SOL    HW175036  10.989   7.396   7.665
57713SOL    HW275037  10.861   7.389   7.585
57714SOL     OW75038   9.216   5.346   1.059
57714SOL    HW175039   9.138   5.372   1.107
57714SOL    HW275040   9.285   5.403   1.092
57715SOL     OW75041  13.976   2.284   2.714
57715SOL    HW175042  13.967   2.228   2.637
57715SOL    HW275043  14.001   2.370   2.678
57716SOL     OW75044   1.362  11.910   1.815
57716SOL    HW175045   1.391  11.852   1.745
57716SOL    HW275046   1.423  11.894   1.887
57717SOL     OW75047   3.930  12.768   4.540
57717SOL    HW175048   4.011  12.805   4.575
57717SOL    HW275049   3.942  12.674   4.547
57718SOL     OW75050  10.382   9.514   2.028
57718SOL    HW175051  10.453   9.514   2.091
57718SOL    HW275052  10.398   9.592   1.974
57719SOL     OW75053   3.413  11.853  11.928
57719SOL    HW175054   3.503  11.883  11.913
57719SOL    HW275055   3.411  11.830  12.021
57720SOL     OW75056  10.903   7.441  10.274
57720SOL    HW175057  10.974   7.378  10.276
57720SOL    HW275058  10.935   7.513  10.219
57721SOL     OW75059  10.044  12.041   8.851
57721SOL    HW175060   9.974  12.055   8.915
57721SOL    HW275061  10.116  12.096   8.883
57722SOL     OW75062   8.715  12.656   8.315
57722SOL    HW175063   8.650  12.626   8.377
57722SOL    HW275064   8.668  12.719   8.260
57723SOL     OW75065  11.389  11.071   4.223
57723SOL    HW175066  11.435  11.119   4.154
57723SOL    HW275067  11.329  11.013   4.175
57724SOL     OW75068   2.117   3.982   6.417
57724SOL    HW175069   2.166   4.036   6.355
57724SOL    HW275070   2.144   4.013   6.503
57725SOL     OW75071   2.353   2.597  12.530
57725SOL    HW175072   2.378   2.563  12.616
57725SOL    HW275073   2.317   2.521  12.484
57726SOL     OW75074   6.270   3.834   5.359
57726SOL    HW175075   6.227   3.917   5.339
57726SOL    HW275076   6.198   3.771   5.368
57727SOL     OW75077   9.381  13.811  12.903
57727SOL    HW175078   9.399  13.904  12.888
57727SOL    HW275079   9.457  13.765  12.866
57728SOL     OW75080   7.024   2.352   0.485
57728SOL    HW175081   6.972   2.376   0.409
57728SOL    HW275082   7.102   2.407   0.479
57729SOL     OW75083  12.821   1.572   4.325
57729SOL    HW175084  12.835   1.560   4.419
57729SOL    HW275085  12.780   1.658   4.319
57730SOL     OW75086   1.945   9.654   2.310
57730SOL    HW175087   1.883   9.607   2.365
57730SOL    HW275088   2.030   9.614   2.330
57731SOL     OW75089  12.532   6.111   6.310
57731SOL    HW175090  12.492   6.025   6.302
57731SOL    HW275091  12.617   6.103   6.267
57732SOL     OW75092   0.081   6.752  11.679
57732SOL    HW175093   0.106   6.744  11.588
57732SOL    HW275094   0.004   6.695  11.688
57733SOL     OW75095  11.146   7.847  11.332
57733SOL    HW175096  11.136   7.819  11.241
57733SOL    HW275097  11.173   7.768  11.379
57734SOL     OW75098  12.914  14.662   5.078
57734SOL    HW175099  12.968  14.584   5.067
57734SOL    HW275100  12.976  14.733   5.091
57735SOL     OW75101   2.567  14.091   3.567
57735SOL    HW175102   2.572  14.012   3.513
57735SOL    HW275103   2.558  14.058   3.657
57736SOL     OW75104   2.723   5.769  12.189
57736SOL    HW175105   2.670   5.841  12.155
57736SOL    HW275106   2.762   5.729  12.112
57737SOL     OW75107   5.052   0.909   1.098
57737SOL    HW175108   5.014   0.861   1.025
57737SOL    HW275109   4.977   0.950   1.142
57738SOL     OW75110  12.713   8.857   5.607
57738SOL    HW175111  12.778   8.823   5.669
57738SOL    HW275112  12.763   8.881   5.529
57739SOL     OW75113   8.532   9.226   4.648
57739SOL    HW175114   8.493   9.283   4.714
57739SOL    HW275115   8.539   9.281   4.570
57740SOL     OW75116   9.209   9.178  11.577
57740SOL    HW175117   9.156   9.242  11.625
57740SOL    HW275118   9.147   9.135  11.518
57741SOL     OW75119   3.176   3.800   9.718
57741SOL    HW175120   3.187   3.707   9.697
57741SOL    HW275121   3.167   3.802   9.813
57742SOL     OW75122  14.353   1.892   2.056
57742SOL    HW175123  14.295   1.936   1.993
57742SOL    HW275124  14.439   1.896   2.016
57743SOL     OW75125   7.657   7.932  10.089
57743SOL    HW175126   7.635   7.929   9.995
57743SOL    HW275127   7.740   7.885  10.096
57744SOL     OW75128   5.870  11.098   7.177
57744SOL    HW175129   5.893  11.163   7.243
57744SOL    HW275130   5.894  11.139   7.094
57745SOL     OW75131   5.028   6.288  12.613
57745SOL    HW175132   4.981   6.277  12.696
57745SOL    HW275133   5.081   6.366  12.626
57746SOL     OW75134   8.662  14.233   7.804
57746SOL    HW175135   8.733  14.271   7.855
57746SOL    HW275136   8.697  14.229   7.714
57747SOL     OW75137  14.802   6.381  13.447
57747SOL    HW175138  14.803   6.363  13.541
57747SOL    HW275139  14.718   6.346  13.416
57748SOL     OW75140  11.125  14.240   9.317
57748SOL    HW175141  11.162  14.222   9.230
57748SOL    HW275142  11.103  14.154   9.352
57749SOL     OW75143   8.728  13.498   5.665
57749SOL    HW175144   8.649  13.445   5.653
57749SOL    HW275145   8.801  13.437   5.656
57750SOL     OW75146  10.307   4.732   2.527
57750SOL    HW175147  10.277   4.738   2.436
57750SOL    HW275148  10.385   4.787   2.530
57751SOL     OW75149   3.943  11.513   7.868
57751SOL    HW175150   3.942  11.449   7.796
57751SOL    HW275151   3.889  11.585   7.836
57752SOL     OW75152   2.662   0.711  13.467
57752SOL    HW175153   2.644   0.796  13.507
57752SOL    HW275154   2.677   0.730  13.375
57753SOL     OW75155   9.187   8.574   1.755
57753SOL    HW175156   9.263   8.601   1.807
57753SOL    HW275157   9.150   8.656   1.722
57754SOL     OW75158   8.882   4.049   0.139
57754SOL    HW175159   8.909   4.038   0.230
57754SOL    HW275160   8.906   4.140   0.118
57755SOL     OW75161  14.643   3.118   2.257
57755SOL    HW175162  14.608   3.148   2.173
57755SOL    HW275163  14.721   3.171   2.271
57756SOL     OW75164   5.237   6.129   2.564
57756SOL    HW175165   5.289   6.053   2.588
57756SOL    HW275166   5.301   6.190   2.526
57757SOL     OW75167   8.413   9.277   7.655
57757SOL    HW175168   8.338   9.219   7.665
57757SOL    HW275169   8.400   9.319   7.570
57758SOL     OW75170   7.304  14.777   3.195
57758SOL    HW175171   7.227  14.722   3.183
57758SOL    HW275172   7.324  14.810   3.108
57759SOL     OW75173   6.068   0.874  11.797
57759SOL    HW175174   6.064   0.778  11.799
57759SOL    HW275175   5.977   0.901  11.783
57760SOL     OW75176   9.994  13.285   3.639
57760SOL    HW175177  10.053  13.270   3.713
57760SOL    HW275178  10.016  13.373   3.609
57761SOL     OW75179   3.329  10.428  10.380
57761SOL    HW175180   3.305  10.433  10.287
57761SOL    HW275181   3.300  10.511  10.417
57762SOL     OW75182  10.952   3.480  11.719
57762SOL    HW175183  10.886   3.414  11.739
57762SOL    HW275184  11.021   3.465  11.783
57763SOL     OW75185   7.499  14.750  13.257
57763SOL    HW175186   7.489  14.739  13.162
57763SOL    HW275187   7.413  14.730  13.292
57764SOL     OW75188  11.858   5.873   7.813
57764SOL    HW175189  11.949   5.846   7.825
57764SOL    HW275190  11.812   5.792   7.790
57765SOL     OW75191   8.876  13.111  12.763
57765SOL    HW175192   8.839  13.084  12.679
57765SOL    HW275193   8.923  13.034  12.795
57766SOL     OW75194  12.502   2.890   8.527
57766SOL    HW175195  12.554   2.966   8.500
57766SOL    HW275196  12.438   2.926   8.589
57767SOL     OW75197   7.370  14.301   2.594
57767SOL    HW175198   7.405  14.362   2.529
57767SOL    HW275199   7.317  14.240   2.543
57768SOL     OW75200   0.462  10.216   9.402
57768SOL    HW175201   0.415  10.267   9.336
57768SOL    HW275202   0.437  10.256   9.486
57769SOL     OW75203   2.427   8.966   1.739
57769SOL    HW175204   2.523   8.965   1.740
57769SOL    HW275205   2.402   8.974   1.831
57770SOL     OW75206  11.192  11.985   9.934
57770SOL    HW175207  11.256  12.054   9.916
57770SOL    HW275208  11.210  11.960  10.025
57771SOL     OW75209   1.794   5.182   4.684
57771SOL    HW175210   1.750   5.250   4.632
57771SOL    HW275211   1.722   5.134   4.726
57772SOL     OW75212  10.140  14.730   4.532
57772SOL    HW175213  10.121  14.818   4.564
57772SOL    HW275214  10.168  14.681   4.610
57773SOL     OW75215   4.336   1.839   8.611
57773SOL    HW175216   4.248   1.825   8.645
57773SOL    HW275217   4.379   1.754   8.622
57774SOL     OW75218   6.157   1.741   5.450
57774SOL    HW175219   6.198   1.683   5.386
57774SOL    HW275220   6.181   1.704   5.535
57775SOL     OW75221  14.355  12.628   5.814
57775SOL    HW175222  14.366  12.651   5.721
57775SOL    HW275223  14.381  12.707   5.861
57776SOL     OW75224   0.953  14.810  12.981
57776SOL    HW175225   1.009  14.767  13.045
57776SOL    HW275226   0.865  14.782  13.004
57777SOL     OW75227  14.400   5.961  11.404
57777SOL    HW175228  14.447   5.890  11.360
57777SOL    HW275229  14.425   6.040  11.355
57778SOL     OW75230  13.558  13.599   4.200
57778SOL    HW175231  13.492  13.581   4.267
57778SOL    HW275232  13.572  13.693   4.205
57779SOL     OW75233   0.526  10.194   0.009
57779SOL    HW175234   0.468  10.220  14.807
57779SOL    HW275235   0.487  10.113   0.042
57780SOL     OW75236  14.457  10.016  10.448
57780SOL    HW175237  14.437  10.101  10.488
57780SOL    HW275238  14.396  10.009  10.374
57781SOL     OW75239   1.533  12.045   6.338
57781SOL    HW175240   1.550  11.970   6.394
57781SOL    HW275241   1.463  12.093   6.383
57782SOL     OW75242   1.934   9.928   2.317
57782SOL    HW175243   1.975   9.963   2.396
57782SOL    HW275244   1.954   9.834   2.320
57783SOL     OW75245   7.816  13.562   9.359
57783SOL    HW175246   7.844  13.603   9.277
57783SOL    HW275247   7.768  13.484   9.331
57784SOL     OW75248  14.845   6.950   2.775
57784SOL    HW175249  14.795   6.971   2.853
57784SOL    HW275250   0.063   6.986   2.792
57785SOL     OW75251   2.449   6.712   0.335
57785SOL    HW175252   2.408   6.647   0.278
57785SOL    HW275253   2.517   6.752   0.282
57786SOL     OW75254  10.544   2.989  10.175
57786SOL    HW175255  10.505   2.908  10.210
57786SOL    HW275256  10.473   3.052  10.176
57787SOL     OW75257  13.562   1.493  10.514
57787SOL    HW175258  13.593   1.497  10.424
57787SOL    HW275259  13.617   1.426  10.555
57788SOL     OW75260   2.810   5.906   3.754
57788SOL    HW175261   2.809   5.968   3.681
57788SOL    HW275262   2.841   5.824   3.715
57789SOL     OW75263   4.101  10.842  12.594
57789SOL    HW175264   4.170  10.784  12.563
57789SOL    HW275265   4.141  10.929  12.597
57790SOL     OW75266   4.403  11.255  11.666
57790SOL    HW175267   4.341  11.221  11.601
57790SOL    HW275268   4.480  11.199  11.657
57791SOL     OW75269  13.630   8.003  14.114
57791SOL    HW175270  13.599   8.051  14.038
57791SOL    HW275271  13.551   7.975  14.160
57792SOL     OW75272   6.702  13.744   6.390
57792SOL    HW175273   6.615  13.771   6.358
57792SOL    HW275274   6.683  13.678   6.456
57793SOL     OW75275   3.653   0.188   9.354
57793SOL    HW175276   3.602   0.225   9.282
57793SOL    HW275277   3.604   0.110   9.380
57794SOL     OW75278  14.838   3.589   7.562
57794SOL    HW175279  14.835   3.497   7.535
57794SOL    HW275280   0.003   3.586   7.651
57795SOL     OW75281   1.606   2.338   8.133
57795SOL    HW175282   1.515   2.365   8.129
57795SOL    HW275283   1.656   2.417   8.112
57796SOL     OW75284   2.760   9.684   9.771
57796SOL    HW175285   2.697   9.732   9.824
57796SOL    HW275286   2.818   9.751   9.734
57797SOL     OW75287   7.045  14.644   7.202
57797SOL    HW175288   7.103  14.634   7.127
57797SOL    HW275289   6.970  14.693   7.169
57798SOL     OW75290   5.960   7.522  13.705
57798SOL    HW175291   5.938   7.508  13.613
57798SOL    HW275292   5.923   7.608  13.725
57799SOL     OW75293   2.399   2.828   1.537
57799SOL    HW175294   2.462   2.887   1.578
57799SOL    HW275295   2.358   2.879   1.468
57800SOL     OW75296   3.352   4.217  11.227
57800SOL    HW175297   3.405   4.149  11.187
57800SOL    HW275298   3.346   4.193  11.320
57801SOL     OW75299  11.555   8.907   6.549
57801SOL    HW175300  11.503   8.904   6.629
57801SOL    HW275301  11.586   8.997   6.545
57802SOL     OW75302   8.517   3.750   7.783
57802SOL    HW175303   8.550   3.798   7.707
57802SOL    HW275304   8.436   3.710   7.753
57803SOL     OW75305   0.456   1.480  10.197
57803SOL    HW175306   0.461   1.504  10.105
57803SOL    HW275307   0.366   1.450  10.209
57804SOL     OW75308   9.667   0.186  13.278
57804SOL    HW175309   9.596   0.123  13.265
57804SOL    HW275310   9.643   0.233  13.358
57805SOL     OW75311  12.739  12.071  11.049
57805SOL    HW175312  12.793  12.150  11.042
57805SOL    HW275313  12.780  12.020  11.119
57806SOL     OW75314   4.561  13.648   5.929
57806SOL    HW175315   4.626  13.614   5.867
57806SOL    HW275316   4.481  13.597   5.910
57807SOL     OW75317   3.693   1.606   6.927
57807SOL    HW175318   3.683   1.696   6.961
57807SOL    HW275319   3.778   1.578   6.959
57808SOL     OW75320   1.027  11.065  12.353
57808SOL    HW175321   1.072  11.002  12.410
57808SOL    HW275322   0.934  11.050  12.371
57809SOL     OW75323   0.245  13.039   6.816
57809SOL    HW175324   0.294  13.043   6.898
57809SOL    HW275325   0.165  12.992   6.839
57810SOL     OW75326  10.747  12.181   5.141
57810SOL    HW175327  10.731  12.117   5.073
57810SOL    HW275328  10.839  12.170   5.164
57811SOL     OW75329   5.106  11.055   6.245
57811SOL    HW175330   5.017  11.036   6.214
57811SOL    HW275331   5.160  11.054   6.166
57812SOL     OW75332   9.130   2.153  14.845
57812SOL    HW175333   9.085   2.234  14.868
57812SOL    HW275334   9.132   2.101   0.056
57813SOL     OW75335  14.353   4.969   6.454
57813SOL    HW175336  14.337   4.890   6.401
57813SOL    HW275337  14.425   5.013   6.409
57814SOL     OW75338   1.665   4.492  13.745
57814SOL    HW175339   1.662   4.455  13.657
57814SOL    HW275340   1.743   4.453  13.784
57815SOL     OW75341  14.850   3.037   5.033
57815SOL    HW175342  14.758   3.013   5.033
57815SOL    HW275343   0.003   3.048   4.941
57816SOL     OW75344  12.494   8.426   7.097
57816SOL    HW175345  12.544   8.370   7.156
57816SOL    HW275346  12.403   8.400   7.110
57817SOL     OW75347   8.357  11.653   6.802
57817SOL    HW175348   8.388  11.565   6.779
57817SOL    HW275349   8.375  11.706   6.724
57818SOL     OW75350   5.471  11.659  10.802
57818SOL    HW175351   5.525  11.681  10.726
57818SOL    HW275352   5.395  11.716  10.795
57819SOL     OW75353   4.444   9.750   4.955
57819SOL    HW175354   4.481   9.734   4.869
57819SOL    HW275355   4.354   9.779   4.938
57820SOL     OW75356   2.999  13.215   6.133
57820SOL    HW175357   3.005  13.159   6.056
57820SOL    HW275358   3.089  13.247   6.147
57821SOL     OW75359   8.656   5.385   5.353
57821SOL    HW175360   8.747   5.361   5.336
57821SOL    HW275361   8.642   5.362   5.445
57822SOL     OW75362   4.230   8.310   5.208
57822SOL    HW175363   4.173   8.387   5.208
57822SOL    HW275364   4.170   8.235   5.208
57823SOL     OW75365  11.646   4.345   7.357
57823SOL    HW175366  11.554   4.350   7.330
57823SOL    HW275367  11.671   4.255   7.338
57824SOL     OW75368  12.029   9.189  13.576
57824SOL    HW175369  12.083   9.175  13.498
57824SOL    HW275370  11.940   9.168  13.549
57825SOL     OW75371  11.985   3.957   3.793
57825SOL    HW175372  11.959   3.968   3.702
57825SOL    HW275373  12.050   3.886   3.791
57826SOL     OW75374   9.545  11.667  12.417
57826SOL    HW175375   9.465  11.652  12.469
57826SOL    HW275376   9.602  11.718  12.475
57827SOL     OW75377  14.302   6.427   4.206
57827SOL    HW175378  14.348   6.347   4.234
57827SOL    HW275379  14.343   6.450   4.123
57828SOL     OW75380   1.009   7.339   5.427
57828SOL    HW175381   0.938   7.332   5.363
57828SOL    HW275382   1.056   7.419   5.403
57829SOL     OW75383   3.500  12.950   7.683
57829SOL    HW175384   3.580  12.948   7.632
57829SOL    HW275385   3.430  12.941   7.618
57830SOL     OW75386  14.679   0.063   6.169
57830SOL    HW175387  14.608   0.124   6.154
57830SOL    HW275388  14.648   0.006   6.240
57831SOL     OW75389  11.832   4.393  10.464
57831SOL    HW175390  11.818   4.475  10.510
57831SOL    HW275391  11.752   4.381  10.412
57832SOL     OW75392   7.263   3.761  10.567
57832SOL    HW175393   7.226   3.730  10.650
57832SOL    HW275394   7.340   3.812  10.593
57833SOL     OW75395   5.642   1.804  12.269
57833SOL    HW175396   5.643   1.746  12.193
57833SOL    HW275397   5.591   1.880  12.241
57834SOL     OW75398   4.999   3.307   1.776
57834SOL    HW175399   5.084   3.338   1.745
57834SOL    HW275400   5.007   3.308   1.871
57835SOL     OW75401   5.697  14.077   3.744
57835SOL    HW175402   5.752  14.146   3.707
57835SOL    HW275403   5.627  14.125   3.789
57836SOL     OW75404   7.061  12.535   8.236
57836SOL    HW175405   7.017  12.578   8.163
57836SOL    HW275406   7.143  12.503   8.199
57837SOL     OW75407   7.500   1.888  10.836
57837SOL    HW175408   7.517   1.845  10.920
57837SOL    HW275409   7.420   1.848  10.804
57838SOL     OW75410  10.352   9.842  11.682
57838SOL    HW175411  10.273   9.836  11.737
57838SOL    HW275412  10.405   9.909  11.725
57839SOL     OW75413   3.814   1.370   4.506
57839SOL    HW175414   3.854   1.286   4.529
57839SOL    HW275415   3.884   1.419   4.464
57840SOL     OW75416  11.981   4.426  13.200
57840SOL    HW175417  11.922   4.409  13.127
57840SOL    HW275418  11.933   4.488  13.255
57841SOL     OW75419   7.790   4.150   6.521
57841SOL    HW175420   7.828   4.237   6.507
57841SOL    HW275421   7.814   4.128   6.611
57842SOL     OW75422   1.910  10.658   3.219
57842SOL    HW175423   1.985  10.655   3.278
57842SOL    HW275424   1.887  10.567   3.205
57843SOL     OW75425  10.443  13.543   0.851
57843SOL    HW175426  10.462  13.637   0.853
57843SOL    HW275427  10.494  13.506   0.923
57844SOL     OW75428   2.662  10.946   5.666
57844SOL    HW175429   2.675  11.035   5.699
57844SOL    HW275430   2.733  10.933   5.603
57845SOL     OW75431   9.203   8.000   0.257
57845SOL    HW175432   9.224   8.070   0.196
57845SOL    HW275433   9.261   7.928   0.232
57846SOL     OW75434  10.126   5.359   5.940
57846SOL    HW175435  10.075   5.394   5.866
57846SOL    HW275436  10.137   5.266   5.919
57847SOL     OW75437   1.722  10.931  14.543
57847SOL    HW175438   1.707  10.869  14.614
57847SOL    HW275439   1.814  10.921  14.521
57848SOL     OW75440   9.867   0.786   0.386
57848SOL    HW175441   9.914   0.860   0.423
57848SOL    HW275442   9.867   0.803   0.292
57849SOL     OW75443  10.670   8.222   7.572
57849SOL    HW175444  10.637   8.140   7.610
57849SOL    HW275445  10.690   8.200   7.481
57850SOL     OW75446  12.268  10.302  13.112
57850SOL    HW175447  12.279  10.278  13.020
57850SOL    HW275448  12.355  10.330  13.141
57851SOL     OW75449   0.189  10.637   4.307
57851SOL    HW175450   0.223  10.648   4.218
57851SOL    HW275451   0.100  10.673   4.303
57852SOL     OW75452   1.823   6.145  14.156
57852SOL    HW175453   1.872   6.151  14.074
57852SOL    HW275454   1.861   6.212  14.212
57853SOL     OW75455   8.368   4.280   8.136
57853SOL    HW175456   8.440   4.248   8.080
57853SOL    HW275457   8.299   4.305   8.074
57854SOL     OW75458  13.176   0.976   6.074
57854SOL    HW175459  13.145   0.930   6.152
57854SOL    HW275460  13.266   0.946   6.063
57855SOL     OW75461   0.223  10.351   1.780
57855SOL    HW175462   0.279  10.277   1.758
57855SOL    HW275463   0.216  10.400   1.697
57856SOL     OW75464   5.295   4.732  10.183
57856SOL    HW175465   5.334   4.645  10.170
57856SOL    HW275466   5.221   4.733  10.122
57857SOL     OW75467   9.760  12.739   4.340
57857SOL    HW175468   9.747  12.727   4.246
57857SOL    HW275469   9.842  12.788   4.347
57858SOL     OW75470   2.969   3.531   3.551
57858SOL    HW175471   2.892   3.565   3.598
57858SOL    HW275472   2.958   3.436   3.554
57859SOL     OW75473   6.846   8.807  10.874
57859SOL    HW175474   6.760   8.810  10.918
57859SOL    HW275475   6.840   8.873  10.805
57860SOL     OW75476  10.016  12.557   4.137
57860SOL    HW175477   9.999  12.465   4.160
57860SOL    HW275478   9.986  12.564   4.046
57861SOL     OW75479   4.769  14.484   1.181
57861SOL    HW175480   4.845  14.520   1.226
57861SOL    HW275481   4.694  14.526   1.224
57862SOL     OW75482  13.655  12.214  10.493
57862SOL    HW175483  13.677  12.124  10.467
57862SOL    HW275484  13.703  12.269  10.432
57863SOL     OW75485  11.550   3.551  13.404
57863SOL    HW175486  11.522   3.611  13.472
57863SOL    HW275487  11.567   3.607  13.328
57864SOL     OW75488   3.552   0.722  11.105
57864SOL    HW175489   3.530   0.812  11.081
57864SOL    HW275490   3.473   0.672  11.084
57865SOL     OW75491  11.029  14.563  12.615
57865SOL    HW175492  11.089  14.618  12.565
57865SOL    HW275493  11.076  14.481  12.629
57866SOL     OW75494  14.661   7.074   3.129
57866SOL    HW175495  14.646   7.081   3.034
57866SOL    HW275496  14.641   6.984   3.150
57867SOL     OW75497   5.843   4.729  10.805
57867SOL    HW175498   5.809   4.791  10.741
57867SOL    HW275499   5.932   4.760  10.824
57868SOL     OW75500   0.629   5.908  10.809
57868SOL    HW175501   0.637   5.935  10.900
57868SOL    HW275502   0.618   5.989  10.760
57869SOL     OW75503   0.075   0.452   8.903
57869SOL    HW175504   0.014   0.477   8.834
57869SOL    HW275505   0.019   0.441   8.980
57870SOL     OW75506   0.473  11.658   3.160
57870SOL    HW175507   0.438  11.720   3.096
57870SOL    HW275508   0.425  11.678   3.241
57871SOL     OW75509  13.959   4.482  14.100
57871SOL    HW175510  13.943   4.463  14.192
57871SOL    HW275511  14.046   4.447  14.082
57872SOL     OW75512  13.827   5.117  10.166
57872SOL    HW175513  13.896   5.084  10.108
57872SOL    HW275514  13.798   5.198  10.123
57873SOL     OW75515   7.837   8.028   3.325
57873SOL    HW175516   7.767   8.091   3.310
57873SOL    HW275517   7.889   8.066   3.397
57874SOL     OW75518   9.611   4.434  13.283
57874SOL    HW175519   9.532   4.428  13.337
57874SOL    HW275520   9.581   4.416  13.194
57875SOL     OW75521   4.290   1.413  12.434
57875SOL    HW175522   4.206   1.453  12.453
57875SOL    HW275523   4.295   1.411  12.338
57876SOL     OW75524   7.927   9.419  13.345
57876SOL    HW175525   7.920   9.493  13.283
57876SOL    HW275526   8.005   9.439  13.396
57877SOL     OW75527   3.388   0.320  11.270
57877SOL    HW175528   3.322   0.251  11.264
57877SOL    HW275529   3.471   0.274  11.256
57878SOL     OW75530   3.174   9.877   5.035
57878SOL    HW175531   3.237   9.916   4.973
57878SOL    HW275532   3.123   9.816   4.982
57879SOL     OW75533   9.264   9.977   0.603
57879SOL    HW175534   9.203  10.050   0.614
57879SOL    HW275535   9.290   9.980   0.511
57880SOL     OW75536   4.618   5.068   2.358
57880SOL    HW175537   4.707   5.086   2.328
57880SOL    HW275538   4.575   5.154   2.359
57881SOL     OW75539   6.947  10.959  13.418
57881SOL    HW175540   6.964  10.869  13.394
57881SOL    HW275541   6.953  11.008  13.336
57882SOL     OW75542   8.450  11.961   9.874
57882SOL    HW175543   8.380  11.954   9.939
57882SOL    HW275544   8.504  12.034   9.904
57883SOL     OW75545   5.033   6.736   3.881
57883SOL    HW175546   4.951   6.783   3.894
57883SOL    HW275547   5.010   6.644   3.895
57884SOL     OW75548   5.772  14.300   1.116
57884SOL    HW175549   5.685  14.338   1.130
57884SOL    HW275550   5.773  14.220   1.170
57885SOL     OW75551  11.470  12.853   8.534
57885SOL    HW175552  11.535  12.857   8.464
57885SOL    HW275553  11.480  12.766   8.571
57886SOL     OW75554   9.571  13.425   0.606
57886SOL    HW175555   9.503  13.473   0.560
57886SOL    HW275556   9.651  13.444   0.557
57887SOL     OW75557   0.257  14.520   9.856
57887SOL    HW175558   0.339  14.477   9.881
57887SOL    HW275559   0.273  14.613   9.872
57888SOL     OW75560   9.089  10.881  11.506
57888SOL    HW175561   9.153  10.906  11.572
57888SOL    HW275562   9.019  10.946  11.515
57889SOL     OW75563   3.258   6.268   3.493
57889SOL    HW175564   3.210   6.351   3.495
57889SOL    HW275565   3.249   6.236   3.404
57890SOL     OW75566   1.991  12.104  12.568
57890SOL    HW175567   2.035  12.081  12.486
57890SOL    HW275568   1.970  12.021  12.609
57891SOL     OW75569   3.739  13.146   2.000
57891SOL    HW175570   3.660  13.118   1.954
57891SOL    HW275571   3.764  13.228   1.957
57892SOL     OW75572   9.159   3.941  14.452
57892SOL    HW175573   9.085   3.882  14.465
57892SOL    HW275574   9.128   4.026  14.484
57893SOL     OW75575   8.432   8.122  13.433
57893SOL    HW175576   8.435   8.217  13.440
57893SOL    HW275577   8.470   8.090  13.514
57894SOL     OW75578   6.034  12.138  13.772
57894SOL    HW175579   5.940  12.130  13.759
57894SOL    HW275580   6.059  12.216  13.722
57895SOL     OW75581  13.798   9.428   6.790
57895SOL    HW175582  13.821   9.399   6.878
57895SOL    HW275583  13.873   9.401   6.736
57896SOL     OW75584  14.201  11.618  14.326
57896SOL    HW175585  14.262  11.590  14.257
57896SOL    HW275586  14.250  11.682  14.378
57897SOL     OW75587  12.797   3.528  13.719
57897SOL    HW175588  12.720   3.584  13.715
57897SOL    HW275589  12.803   3.502  13.811
57898SOL     OW75590   9.334   0.579   0.082
57898SOL    HW175591   9.407   0.565   0.142
57898SOL    HW275592   9.342   0.510   0.016
57899SOL     OW75593  10.464   7.121   1.777
57899SOL    HW175594  10.432   7.153   1.861
57899SOL    HW275595  10.552   7.159   1.768
57900SOL     OW75596  12.837  13.460  10.399
57900SOL    HW175597  12.926  13.494  10.409
57900SOL    HW275598  12.847  13.365  10.403
57901SOL     OW75599  13.037   2.151   9.843
57901SOL    HW175600  12.946   2.163   9.869
57901SOL    HW275601  13.053   2.217   9.776
57902SOL     OW75602   7.301  13.629  14.068
57902SOL    HW175603   7.251  13.547  14.061
57902SOL    HW275604   7.282  13.675  13.986
57903SOL     OW75605   7.779  14.774   1.566
57903SOL    HW175606   7.693  14.812   1.585
57903SOL    HW275607   7.765  14.720   1.488
57904SOL     OW75608   4.918   7.753  14.232
57904SOL    HW175609   4.876   7.833  14.265
57904SOL    HW275610   5.002   7.750  14.278
57905SOL     OW75611   7.967  14.489   5.364
57905SOL    HW175612   7.981  14.533   5.448
57905SOL    HW275613   7.964  14.396   5.386
57906SOL     OW75614   0.229   8.813   3.769
57906SOL    HW175615   0.226   8.900   3.808
57906SOL    HW275616   0.278   8.760   3.832
57907SOL     OW75617   0.596   3.243  10.073
57907SOL    HW175618   0.520   3.284  10.115
57907SOL    HW275619   0.558   3.175  10.017
57908SOL     OW75620  12.425  10.800  14.386
57908SOL    HW175621  12.386  10.850  14.458
57908SOL    HW275622  12.517  10.789  14.412
57909SOL     OW75623   5.041   2.260  10.545
57909SOL    HW175624   5.080   2.345  10.521
57909SOL    HW275625   5.056   2.205  10.468
57910SOL     OW75626   6.862  10.528   5.612
57910SOL    HW175627   6.895  10.442   5.586
57910SOL    HW275628   6.800  10.510   5.683
57911SOL     OW75629   1.737  12.739   9.739
57911SOL    HW175630   1.754  12.803   9.671
57911SOL    HW275631   1.822  12.696   9.754
57912SOL     OW75632  12.403   1.784  13.031
57912SOL    HW175633  12.357   1.850  13.084
57912SOL    HW275634  12.401   1.820  12.942
57913SOL     OW75635   0.333   4.078   1.741
57913SOL    HW175636   0.269   4.008   1.731
57913SOL    HW275637   0.331   4.125   1.657
57914SOL     OW75638   9.812   7.229  12.500
57914SOL    HW175639   9.783   7.148  12.458
57914SOL    HW275640   9.764   7.298  12.455
57915SOL     OW75641   6.174  11.221   5.701
57915SOL    HW175642   6.262  11.184   5.695
57915SOL    HW275643   6.147  11.205   5.792
57916SOL     OW75644   7.316   5.460   9.967
57916SOL    HW175645   7.368   5.537   9.943
57916SOL    HW275646   7.229   5.495   9.987
57917SOL     OW75647   5.302   3.897  14.574
57917SOL    HW175648   5.274   3.961  14.508
57917SOL    HW275649   5.257   3.816  14.549
57918SOL     OW75650   3.828  10.756   4.987
57918SOL    HW175651   3.782  10.787   4.909
57918SOL    HW275652   3.785  10.801   5.060
57919SOL     OW75653   7.301   5.294   0.742
57919SOL    HW175654   7.329   5.263   0.656
57919SOL    HW275655   7.346   5.379   0.753
57920SOL     OW75656  14.602  14.222  14.476
57920SOL    HW175657  14.525  14.265  14.439
57920SOL    HW275658  14.659  14.206  14.401
57921SOL     OW75659  13.906  13.752   7.846
57921SOL    HW175660  13.921  13.718   7.758
57921SOL    HW275661  13.982  13.725   7.896
57922SOL     OW75662   0.107   3.772  13.121
57922SOL    HW175663   0.136   3.711  13.052
57922SOL    HW275664   0.106   3.718  13.201
57923SOL     OW75665   5.249  12.980  14.551
57923SOL    HW175666   5.283  12.894  14.577
57923SOL    HW275667   5.195  13.008  14.625
57924SOL     OW75668   0.621   9.166   0.557
57924SOL    HW175669   0.634   9.224   0.632
57924SOL    HW275670   0.543   9.200   0.514
57925SOL     OW75671   2.466   5.424   3.740
57925SOL    HW175672   2.557   5.451   3.756
57925SOL    HW275673   2.415   5.504   3.753
57926SOL     OW75674   5.699   9.306  13.114
57926SOL    HW175675   5.637   9.365  13.157
57926SOL    HW275676   5.785   9.332  13.149
57927SOL     OW75677   5.668   7.665   7.984
57927SOL    HW175678   5.730   7.595   7.965
57927SOL    HW275679   5.709   7.744   7.948
57928SOL     OW75680   3.977   7.481   8.182
57928SOL    HW175681   3.932   7.446   8.259
57928SOL    HW275682   4.055   7.426   8.173
57929SOL     OW75683   0.222   1.215   9.820
57929SOL    HW175684   0.195   1.220   9.729
57929SOL    HW275685   0.189   1.296   9.860
57930SOL     OW75686   4.534  13.649  11.967
57930SOL    HW175687   4.599  13.609  11.909
57930SOL    HW275688   4.572  13.734  11.990
57931SOL     OW75689   2.332   7.914   1.275
57931SOL    HW175690   2.326   7.846   1.208
57931SOL    HW275691   2.328   7.867   1.358
57932SOL     OW75692  10.798   2.323   2.380
57932SOL    HW175693  10.731   2.336   2.313
57932SOL    HW275694  10.770   2.244   2.427
57933SOL     OW75695   7.738  12.182  13.243
57933SOL    HW175696   7.767  12.272  13.258
57933SOL    HW275697   7.795  12.149  13.175
57934SOL     OW75698  10.892  10.557  11.719
57934SOL    HW175699  10.939  10.554  11.802
57934SOL    HW275700  10.810  10.601  11.741
57935SOL     OW75701   4.051  12.541   5.723
57935SOL    HW175702   4.036  12.480   5.651
57935SOL    HW275703   4.034  12.627   5.685
57936SOL     OW75704   1.224  12.606   1.036
57936SOL    HW175705   1.292  12.669   1.014
57936SOL    HW275706   1.250  12.572   1.122
57937SOL     OW75707   4.683  12.613   0.437
57937SOL    HW175708   4.660  12.697   0.397
57937SOL    HW275709   4.617  12.601   0.506
57938SOL     OW75710   8.007  13.751  12.086
57938SOL    HW175711   7.969  13.735  12.000
57938SOL    HW275712   8.091  13.794  12.068
57939SOL     OW75713  11.060  13.956  12.130
57939SOL    HW175714  11.021  14.043  12.130
57939SOL    HW275715  11.023  13.913  12.207
57940SOL     OW75716   5.289  10.437  11.349
57940SOL    HW175717   5.360  10.405  11.405
57940SOL    HW275718   5.221  10.370  11.356
57941SOL     OW75719  11.034   7.559  13.602
57941SOL    HW175720  11.049   7.617  13.527
57941SOL    HW275721  11.120   7.520  13.619
57942SOL     OW75722  12.187  11.566   6.443
57942SOL    HW175723  12.252  11.635   6.429
57942SOL    HW275724  12.116  11.609   6.490
57943SOL     OW75725  10.242  11.143   0.923
57943SOL    HW175726  10.329  11.168   0.952
57943SOL    HW275727  10.217  11.212   0.861
57944SOL     OW75728   5.043   7.644   6.728
57944SOL    HW175729   5.011   7.556   6.710
57944SOL    HW275730   5.036   7.690   6.644
57945SOL     OW75731   9.222  14.242   1.435
57945SOL    HW175732   9.250  14.330   1.412
57945SOL    HW275733   9.298  14.202   1.477
57946SOL     OW75734   6.031   8.855   4.074
57946SOL    HW175735   6.064   8.886   3.990
57946SOL    HW275736   6.036   8.932   4.131
57947SOL     OW75737   1.280   3.462   2.097
57947SOL    HW175738   1.358   3.516   2.111
57947SOL    HW275739   1.222   3.484   2.169
57948SOL     OW75740   8.239   4.427   1.323
57948SOL    HW175741   8.184   4.437   1.400
57948SOL    HW275742   8.319   4.387   1.355
57949SOL     OW75743  13.271   2.103   1.914
57949SOL    HW175744  13.362   2.131   1.920
57949SOL    HW275745  13.274   2.008   1.929
57950SOL     OW75746   7.009   6.050   7.845
57950SOL    HW175747   6.979   6.141   7.839
57950SOL    HW275748   7.002   6.017   7.755
57951SOL     OW75749  13.383   6.262   9.354
57951SOL    HW175750  13.306   6.262   9.298
57951SOL    HW275751  13.416   6.352   9.350
57952SOL     OW75752   8.898   1.800  10.070
57952SOL    HW175753   8.892   1.837   9.983
57952SOL    HW275754   8.991   1.802  10.091
57953SOL     OW75755   7.372  13.888   8.727
57953SOL    HW175756   7.287  13.921   8.755
57953SOL    HW275757   7.352  13.803   8.688
57954SOL     OW75758  10.324  14.024  13.158
57954SOL    HW175759  10.405  13.994  13.199
57954SOL    HW275760  10.352  14.093  13.097
57955SOL     OW75761  10.677  13.726  11.935
57955SOL    HW175762  10.591  13.730  11.892
57955SOL    HW275763  10.727  13.797  11.896
57956SOL     OW75764  13.442  14.130   4.982
57956SOL    HW175765  13.477  14.138   4.893
57956SOL    HW275766  13.519  14.138   5.038
57957SOL     OW75767   5.423   0.407  10.220
57957SOL    HW175768   5.508   0.437  10.254
57957SOL    HW275769   5.444   0.369  10.135
57958SOL     OW75770   3.349  11.935   5.554
57958SOL    HW175771   3.270  11.889   5.582
57958SOL    HW275772   3.357  12.009   5.615
57959SOL     OW75773   6.732   6.489   4.453
57959SOL    HW175774   6.688   6.436   4.386
57959SOL    HW275775   6.791   6.428   4.497
57960SOL     OW75776  12.348   9.137   7.828
57960SOL    HW175777  12.424   9.191   7.804
57960SOL    HW275778  12.273   9.183   7.789
57961SOL     OW75779   7.873   5.382   7.888
57961SOL    HW175780   7.917   5.453   7.934
57961SOL    HW275781   7.873   5.309   7.950
57962SOL     OW75782  13.313   5.874   8.340
57962SOL    HW175783  13.296   5.793   8.388
57962SOL    HW275784  13.299   5.851   8.248
57963SOL     OW75785   8.584   7.610   2.943
57963SOL    HW175786   8.502   7.561   2.933
57963SOL    HW275787   8.632   7.563   3.012
57964SOL     OW75788   8.270  13.659   9.153
57964SOL    HW175789   8.290  13.723   9.084
57964SOL    HW275790   8.347  13.659   9.209
57965SOL     OW75791   8.100   2.613   0.229
57965SOL    HW175792   8.061   2.526   0.223
57965SOL    HW275793   8.065   2.661   0.153
57966SOL     OW75794  12.849   5.221   9.224
57966SOL    HW175795  12.777   5.224   9.161
57966SOL    HW275796  12.841   5.303   9.273
57967SOL     OW75797   0.677  10.854   5.594
57967SOL    HW175798   0.707  10.848   5.685
57967SOL    HW275799   0.723  10.784   5.548
57968SOL     OW75800   1.449   3.520  14.269
57968SOL    HW175801   1.375   3.559  14.222
57968SOL    HW275802   1.525   3.540  14.215
57969SOL     OW75803   7.298   5.812   5.542
57969SOL    HW175804   7.338   5.863   5.612
57969SOL    HW275805   7.351   5.732   5.537
57970SOL     OW75806   7.917   9.874   6.711
57970SOL    HW175807   7.972   9.943   6.675
57970SOL    HW275808   7.962   9.848   6.792
57971SOL     OW75809  13.150  11.616  13.702
57971SOL    HW175810  13.161  11.590  13.793
57971SOL    HW275811  13.055  11.617  13.688
57972SOL     OW75812  12.478   1.116   8.424
57972SOL    HW175813  12.459   1.206   8.450
57972SOL    HW275814  12.409   1.064   8.465
57973SOL     OW75815  13.999   6.061  10.461
57973SOL    HW175816  13.945   6.046  10.383
57973SOL    HW275817  13.940   6.044  10.534
57974SOL     OW75818  11.332  14.572   2.234
57974SOL    HW175819  11.312  14.666   2.233
57974SOL    HW275820  11.292  14.538   2.154
57975SOL     OW75821   3.193  12.954  14.426
57975SOL    HW175822   3.238  12.884  14.379
57975SOL    HW275823   3.134  12.909  14.487
57976SOL     OW75824  14.725  10.772   4.617
57976SOL    HW175825  14.651  10.722   4.654
57976SOL    HW275826  14.792  10.768   4.685
57977SOL     OW75827   7.495   3.634   4.950
57977SOL    HW175828   7.444   3.683   5.016
57977SOL    HW275829   7.430   3.586   4.900
57978SOL     OW75830   4.779   0.254  13.881
57978SOL    HW175831   4.777   0.184  13.946
57978SOL    HW275832   4.764   0.335  13.931
57979SOL     OW75833   4.169   1.050   5.824
57979SOL    HW175834   4.164   1.058   5.919
57979SOL    HW275835   4.100   0.986   5.802
57980SOL     OW75836   6.174   3.089   3.965
57980SOL    HW175837   6.119   3.079   3.887
57980SOL    HW275838   6.175   3.001   4.005
57981SOL     OW75839   4.638   8.180   2.811
57981SOL    HW175840   4.553   8.137   2.795
57981SOL    HW275841   4.690   8.113   2.856
57982SOL     OW75842   4.641   5.587   8.974
57982SOL    HW175843   4.703   5.534   9.024
57982SOL    HW275844   4.578   5.618   9.039
57983SOL     OW75845  13.742   9.428   3.858
57983SOL    HW175846  13.758   9.377   3.938
57983SOL    HW275847  13.826   9.469   3.839
57984SOL     OW75848   9.128   1.355  14.680
57984SOL    HW175849   9.156   1.270  14.645
57984SOL    HW275850   9.078   1.394  14.608
57985SOL     OW75851   8.591   5.471   9.398
57985SOL    HW175852   8.508   5.460   9.354
57985SOL    HW275853   8.574   5.537   9.465
57986SOL     OW75854   2.521   1.221   9.302
57986SOL    HW175855   2.558   1.272   9.374
57986SOL    HW275856   2.588   1.156   9.282
57987SOL     OW75857  10.560  14.761   2.761
57987SOL    HW175858  10.502  14.837   2.762
57987SOL    HW275859  10.505  14.689   2.794
57988SOL     OW75860   2.127   7.404  10.694
57988SOL    HW175861   2.094   7.315  10.681
57988SOL    HW275862   2.065   7.443  10.756
57989SOL     OW75863   2.078   2.487   1.537
57989SOL    HW175864   2.173   2.500   1.534
57989SOL    HW275865   2.067   2.391   1.538
57990SOL     OW75866   2.130  10.637   2.724
57990SOL    HW175867   2.198  10.570   2.712
57990SOL    HW275868   2.161  10.689   2.798
57991SOL     OW75869  11.912   2.329   6.889
57991SOL    HW175870  11.838   2.302   6.836
57991SOL    HW275871  11.948   2.405   6.843
57992SOL     OW75872   5.930   2.423   5.226
57992SOL    HW175873   5.838   2.416   5.251
57992SOL    HW275874   5.950   2.339   5.183
57993SOL     OW75875  11.997  13.878   0.629
57993SOL    HW175876  11.988  13.844   0.718
57993SOL    HW275877  11.910  13.911   0.607
57994SOL     OW75878  14.771  12.927  12.574
57994SOL    HW175879  14.732  13.010  12.545
57994SOL    HW275880  14.865  12.947  12.582
57995SOL     OW75881  13.658   5.493   4.293
57995SOL    HW175882  13.567   5.507   4.318
57995SOL    HW275883  13.657   5.486   4.198
57996SOL     OW75884   1.239   9.259  13.034
57996SOL    HW175885   1.206   9.169  13.024
57996SOL    HW275886   1.317   9.249  13.088
57997SOL     OW75887   1.133   7.233  12.429
57997SOL    HW175888   1.124   7.157  12.371
57997SOL    HW275889   1.043   7.253  12.455
57998SOL     OW75890   5.699   0.888  12.748
57998SOL    HW175891   5.708   0.841  12.831
57998SOL    HW275892   5.779   0.940  12.742
57999SOL     OW75893   1.841   9.204  12.186
57999SOL    HW175894   1.872   9.269  12.248
57999SOL    HW275895   1.909   9.200  12.119
58000SOL     OW75896   2.128   7.857   4.360
58000SOL    HW175897   2.142   7.807   4.280
58000SOL    HW275898   2.211   7.850   4.407
58001SOL     OW75899  13.658   3.990  12.157
58001SOL    HW175900  13.706   3.989  12.239
58001SOL    HW275901  13.585   3.930  12.170
58002SOL     OW75902  12.352  12.758   5.536
58002SOL    HW175903  12.349  12.664   5.550
58002SOL    HW275904  12.431  12.772   5.484
58003SOL     OW75905   7.552  14.504  12.699
58003SOL    HW175906   7.472  14.527  12.746
58003SOL    HW275907   7.530  14.518  12.607
58004SOL     OW75908   1.394   5.401   7.417
58004SOL    HW175909   1.375   5.495   7.416
58004SOL    HW275910   1.420   5.383   7.507
58005SOL     OW75911  12.801  14.565   8.091
58005SOL    HW175912  12.833  14.500   8.154
58005SOL    HW275913  12.828  14.649   8.128
58006SOL     OW75914  14.754   1.936  12.729
58006SOL    HW175915  14.788   1.980  12.651
58006SOL    HW275916  14.669   1.901  12.702
58007SOL     OW75917   4.194   1.215   6.041
58007SOL    HW175918   4.175   1.307   6.020
58007SOL    HW275919   4.234   1.218   6.128
58008SOL     OW75920   3.870  11.753   6.290
58008SOL    HW175921   3.910  11.764   6.377
58008SOL    HW275922   3.825  11.669   6.295
58009SOL     OW75923   5.186   4.398  12.572
58009SOL    HW175924   5.182   4.477  12.518
58009SOL    HW275925   5.119   4.412  12.640
58010SOL     OW75926   4.835   2.054   7.813
58010SOL    HW175927   4.822   2.092   7.899
58010SOL    HW275928   4.815   1.961   7.825
58011SOL     OW75929  12.614  14.018   5.055
58011SOL    HW175930  12.652  14.057   4.977
58011SOL    HW275931  12.520  14.012   5.036
58012SOL     OW75932   9.159   3.951  13.312
58012SOL    HW175933   9.092   3.948  13.381
58012SOL    HW275934   9.237   3.984  13.356
58013SOL     OW75935  13.222   2.006  13.398
58013SOL    HW175936  13.247   2.094  13.427
58013SOL    HW275937  13.303   1.956  13.403
58014SOL     OW75938   9.944   7.268   4.671
58014SOL    HW175939  10.016   7.206   4.669
58014SOL    HW275940   9.964   7.325   4.745
58015SOL     OW75941   0.304   8.873   5.314
58015SOL    HW175942   0.224   8.857   5.262
58015SOL    HW275943   0.301   8.807   5.383
58016SOL     OW75944   0.510  11.570   5.422
58016SOL    HW175945   0.564  11.491   5.418
58016SOL    HW275946   0.544  11.625   5.351
58017SOL     OW75947  10.173  10.979   5.275
58017SOL    HW175948  10.122  10.935   5.343
58017SOL    HW275949  10.236  10.913   5.245
58018SOL     OW75950   7.624   7.054   0.845
58018SOL    HW175951   7.574   6.983   0.805
58018SOL    HW275952   7.709   7.052   0.802
58019SOL     OW75953   7.778   4.174   3.374
58019SOL    HW175954   7.756   4.236   3.444
58019SOL    HW275955   7.846   4.118   3.413
58020SOL     OW75956  12.787  12.409   6.796
58020SOL    HW175957  12.760  12.471   6.864
58020SOL    HW275958  12.781  12.458   6.714
58021SOL     OW75959  10.663   3.368  10.691
58021SOL    HW175960  10.708   3.292  10.654
58021SOL    HW275961  10.648   3.345  10.782
58022SOL     OW75962   1.915   7.844   6.868
58022SOL    HW175963   1.913   7.924   6.816
58022SOL    HW275964   1.857   7.862   6.942
58023SOL     OW75965  14.097   5.678   4.420
58023SOL    HW175966  14.149   5.757   4.411
58023SOL    HW275967  14.013   5.707   4.456
58024SOL     OW75968   2.502   5.879   7.570
58024SOL    HW175969   2.559   5.848   7.641
58024SOL    HW275970   2.506   5.809   7.505
58025SOL     OW75971   6.975  11.084   7.430
58025SOL    HW175972   7.039  11.151   7.409
58025SOL    HW275973   7.021  11.025   7.490
58026SOL     OW75974   4.335  14.381   7.248
58026SOL    HW175975   4.377  14.432   7.316
58026SOL    HW275976   4.405  14.358   7.188
58027SOL     OW75977   1.823  11.813  10.506
58027SOL    HW175978   1.838  11.906  10.526
58027SOL    HW275979   1.825  11.770  10.592
58028SOL     OW75980   9.100   2.618  12.829
58028SOL    HW175981   9.057   2.547  12.781
58028SOL    HW275982   9.179   2.637  12.779
58029SOL     OW75983  13.832  12.207  13.239
58029SOL    HW175984  13.839  12.282  13.179
58029SOL    HW275985  13.912  12.210  13.291
58030SOL     OW75986  14.787   6.404   2.202
58030SOL    HW175987  14.749   6.317   2.199
58030SOL    HW275988  14.761   6.445   2.119
58031SOL     OW75989   7.281  11.770   0.454
58031SOL    HW175990   7.262  11.796   0.544
58031SOL    HW275991   7.288  11.675   0.457
58032SOL     OW75992   5.603   5.137   9.515
58032SOL    HW175993   5.560   5.052   9.526
58032SOL    HW275994   5.531   5.200   9.517
58033SOL     OW75995   2.995   8.858   4.810
58033SOL    HW175996   3.065   8.823   4.755
58033SOL    HW275997   3.030   8.939   4.847
58034SOL     OW75998  14.735   5.923  10.313
58034SOL    HW175999  14.645   5.909  10.340
58034SOL    HW276000  14.728   5.971  10.230
58035SOL     OW76001   2.282   8.404   7.686
58035SOL    HW176002   2.333   8.467   7.635
58035SOL    HW276003   2.217   8.371   7.624
58036SOL     OW76004   7.497  11.301   7.984
58036SOL    HW176005   7.533  11.388   7.968
58036SOL    HW276006   7.560  11.259   8.042
58037SOL     OW76007   1.618   6.703   3.799
58037SOL    HW176008   1.704   6.669   3.825
58037SOL    HW276009   1.622   6.707   3.703
58038SOL     OW76010   5.685  13.971  12.028
58038SOL    HW176011   5.620  14.030  12.066
58038SOL    HW276012   5.734  13.938  12.103
58039SOL     OW76013  13.055  14.845  11.160
58039SOL    HW176014  13.079   0.062  11.126
58039SOL    HW276015  12.974  14.822  11.113
58040SOL     OW76016   6.910  12.506   9.469
58040SOL    HW176017   6.999  12.535   9.450
58040SOL    HW276018   6.877  12.473   9.386
58041SOL     OW76019  12.429   7.360  11.598
58041SOL    HW176020  12.413   7.409  11.517
58041SOL    HW276021  12.343   7.352  11.639
58042SOL     OW76022  14.365   9.326   7.882
58042SOL    HW176023  14.457   9.353   7.880
58042SOL    HW276024  14.368   9.231   7.893
58043SOL     OW76025  13.921   7.786  11.170
58043SOL    HW176026  13.870   7.747  11.099
58043SOL    HW276027  13.855   7.812  11.235
58044SOL     OW76028   5.688   1.589  14.231
58044SOL    HW176029   5.769   1.595  14.180
58044SOL    HW276030   5.682   1.497  14.256
58045SOL     OW76031   7.083   7.050   5.724
58045SOL    HW176032   7.112   7.137   5.697
58045SOL    HW276033   7.146   7.023   5.791
58046SOL     OW76034   3.677  10.049   3.264
58046SOL    HW176035   3.764  10.027   3.232
58046SOL    HW276036   3.689  10.128   3.316
58047SOL     OW76037   1.606   2.254  10.651
58047SOL    HW176038   1.646   2.330  10.694
58047SOL    HW276039   1.625   2.181  10.709
58048SOL     OW76040   5.992   8.553   0.449
58048SOL    HW176041   5.963   8.644   0.462
58048SOL    HW276042   6.044   8.534   0.527
58049SOL     OW76043  13.910   6.758  10.599
58049SOL    HW176044  13.979   6.695  10.581
58049SOL    HW276045  13.914   6.774  10.693
58050SOL     OW76046   7.038  12.103  14.538
58050SOL    HW176047   7.101  12.134  14.603
58050SOL    HW276048   7.078  12.123  14.454
58051SOL     OW76049   9.815   2.030   7.666
58051SOL    HW176050   9.877   2.058   7.733
58051SOL    HW276051   9.855   1.951   7.628
58052SOL     OW76052  12.795  11.902  12.735
58052SOL    HW176053  12.757  11.932  12.652
58052SOL    HW276054  12.737  11.832  12.764
58053SOL     OW76055   3.120  13.268   6.707
58053SOL    HW176056   3.108  13.226   6.622
58053SOL    HW276057   3.149  13.197   6.765
58054SOL     OW76058   2.924   1.367  11.158
58054SOL    HW176059   2.923   1.387  11.251
58054SOL    HW276060   2.913   1.272  11.153
58055SOL     OW76061   0.368  11.992   0.065
58055SOL    HW176062   0.409  12.075   0.040
58055SOL    HW276063   0.276  12.002   0.040
58056SOL     OW76064   1.680   8.587   8.962
58056SOL    HW176065   1.716   8.511   8.916
58056SOL    HW276066   1.729   8.661   8.927
58057SOL     OW76067   6.378  13.189   7.222
58057SOL    HW176068   6.376  13.094   7.217
58057SOL    HW276069   6.362  13.218   7.132
58058SOL     OW76070  13.660   3.495   5.384
58058SOL    HW176071  13.669   3.580   5.428
58058SOL    HW276072  13.749   3.469   5.361
58059SOL     OW76073   5.075   3.481   9.801
58059SOL    HW176074   5.057   3.412   9.864
58059SOL    HW276075   5.004   3.474   9.737
58060SOL     OW76076   5.099  11.042   7.046
58060SOL    HW176077   5.189  11.074   7.043
58060SOL    HW276078   5.089  10.989   6.967
58061SOL     OW76079  11.527  12.577   8.543
58061SOL    HW176080  11.511  12.483   8.550
58061SOL    HW276081  11.535  12.594   8.449
58062SOL     OW76082  13.295   8.786   6.138
58062SOL    HW176083  13.344   8.718   6.091
58062SOL    HW276084  13.248   8.738   6.206
58063SOL     OW76085   3.954   9.275   8.829
58063SOL    HW176086   3.919   9.350   8.781
58063SOL    HW276087   3.974   9.309   8.916
58064SOL     OW76088   3.699  12.412   1.038
58064SOL    HW176089   3.680  12.401   0.945
58064SOL    HW276090   3.643  12.347   1.081
58065SOL     OW76091   7.360  10.227   4.218
58065SOL    HW176092   7.307  10.306   4.210
58065SOL    HW276093   7.399  10.215   4.131
58066SOL     OW76094   9.703   2.814   6.010
58066SOL    HW176095   9.728   2.851   6.095
58066SOL    HW276096   9.655   2.733   6.032
58067SOL     OW76097   8.436  12.782   0.578
58067SOL    HW176098   8.400  12.810   0.494
58067SOL    HW276099   8.463  12.863   0.621
58068SOL     OW76100  11.001  11.850   7.224
58068SOL    HW176101  10.960  11.837   7.139
58068SOL    HW276102  11.023  11.943   7.227
58069SOL     OW76103   0.490   6.384   1.711
58069SOL    HW176104   0.458   6.295   1.696
58069SOL    HW276105   0.462   6.406   1.799
58070SOL     OW76106   5.702   7.466   4.978
58070SOL    HW176107   5.746   7.403   4.921
58070SOL    HW276108   5.729   7.441   5.067
58071SOL     OW76109   7.444  12.185   7.118
58071SOL    HW176110   7.384  12.154   7.050
58071SOL    HW276111   7.386  12.218   7.187
58072SOL     OW76112  12.565  13.297  10.249
58072SOL    HW176113  12.533  13.366  10.191
58072SOL    HW276114  12.509  13.304  10.326
58073SOL     OW76115   0.327  14.758  12.676
58073SOL    HW176116   0.355  14.827  12.616
58073SOL    HW276117   0.402  14.700  12.682
58074SOL     OW76118   7.067  12.372   5.483
58074SOL    HW176119   6.977  12.347   5.462
58074SOL    HW276120   7.121  12.322   5.421
58075SOL     OW76121   0.595   6.098   3.236
58075SOL    HW176122   0.513   6.104   3.285
58075SOL    HW276123   0.652   6.044   3.290
58076SOL     OW76124   6.940   8.275  14.785
58076SOL    HW176125   6.936   8.362  14.747
58076SOL    HW276126   6.972   8.289   0.005
58077SOL     OW76127   0.399   4.669  14.199
58077SOL    HW176128   0.410   4.700  14.289
58077SOL    HW276129   0.429   4.741  14.145
58078SOL     OW76130  11.936   8.201   1.860
58078SOL    HW176131  11.855   8.178   1.814
58078SOL    HW276132  11.934   8.148   1.940
58079SOL     OW76133   6.080   5.582   4.683
58079SOL    HW176134   6.173   5.594   4.664
58079SOL    HW276135   6.035   5.614   4.604
58080SOL     OW76136   8.915  14.372   7.484
58080SOL    HW176137   8.943  14.423   7.560
58080SOL    HW276138   8.867  14.298   7.520
58081SOL     OW76139   5.869   5.466   3.024
58081SOL    HW176140   5.914   5.394   3.069
58081SOL    HW276141   5.777   5.440   3.024
58082SOL     OW76142   5.255  11.578   5.962
58082SOL    HW176143   5.305  11.653   5.993
58082SOL    HW276144   5.320  11.519   5.923
58083SOL     OW76145   1.853  12.098   8.348
58083SOL    HW176146   1.881  12.173   8.295
58083SOL    HW276147   1.893  12.113   8.433
58084SOL     OW76148  14.610  14.398   3.983
58084SOL    HW176149  14.620  14.303   3.976
58084SOL    HW276150  14.522  14.411   4.017
58085SOL     OW76151   9.188  10.716   6.058
58085SOL    HW176152   9.279  10.740   6.044
58085SOL    HW276153   9.138  10.783   6.011
58086SOL     OW76154   8.707   5.948  14.410
58086SOL    HW176155   8.752   5.994  14.481
58086SOL    HW276156   8.640   5.897  14.453
58087SOL     OW76157   1.761  11.677   2.018
58087SOL    HW176158   1.756  11.662   1.924
58087SOL    HW276159   1.701  11.614   2.056
58088SOL     OW76160  14.452   0.474   3.688
58088SOL    HW176161  14.492   0.402   3.639
58088SOL    HW276162  14.478   0.458   3.779
58089SOL     OW76163  10.331   2.924   4.203
58089SOL    HW176164  10.391   2.998   4.209
58089SOL    HW276165  10.245   2.963   4.192
58090SOL     OW76166   9.996  13.636  13.282
58090SOL    HW176167  10.030  13.715  13.240
58090SOL    HW276168   9.934  13.668  13.348
58091SOL     OW76169   6.679   9.160  14.603
58091SOL    HW176170   6.728   9.235  14.637
58091SOL    HW276171   6.591   9.170  14.639
58092SOL     OW76172   5.226  10.217   7.862
58092SOL    HW176173   5.151  10.159   7.876
58092SOL    HW276174   5.288  10.164   7.812
58093SOL     OW76175   7.572   6.915   4.454
58093SOL    HW176176   7.529   7.000   4.465
58093SOL    HW276177   7.666   6.936   4.454
58094SOL     OW76178   2.136   2.043  11.466
58094SOL    HW176179   2.217   1.993  11.454
58094SOL    HW276180   2.103   2.058  11.377
58095SOL     OW76181  14.375  11.062   6.479
58095SOL    HW176182  14.429  11.125   6.430
58095SOL    HW276183  14.437  10.996   6.508
58096SOL     OW76184   7.328  11.279  14.260
58096SOL    HW176185   7.365  11.201  14.302
58096SOL    HW276186   7.254  11.303  14.315
58097SOL     OW76187   7.782   0.229   4.496
58097SOL    HW176188   7.832   0.298   4.453
58097SOL    HW276189   7.832   0.149   4.479
58098SOL     OW76190   5.257  10.794   8.006
58098SOL    HW176191   5.302  10.877   8.024
58098SOL    HW276192   5.165  10.819   7.997
58099SOL     OW76193   8.678   5.181   3.464
58099SOL    HW176194   8.634   5.139   3.390
58099SOL    HW276195   8.608   5.228   3.510
58100SOL     OW76196   6.060  14.092  12.307
58100SOL    HW176197   5.979  14.041  12.299
58100SOL    HW276198   6.116  14.039  12.362
58101SOL     OW76199   9.864   7.765   1.506
58101SOL    HW176200   9.932   7.830   1.527
58101SOL    HW276201   9.911   7.693   1.465
58102SOL     OW76202   4.788  14.750   5.822
58102SOL    HW176203   4.702  14.709   5.815
58102SOL    HW276204   4.844  14.684   5.863
58103SOL     OW76205   0.520   3.599   0.064
58103SOL    HW176206   0.511   3.518   0.113
58103SOL    HW276207   0.437   3.645   0.078
58104SOL     OW76208  13.300   6.974   5.268
58104SOL    HW176209  13.227   7.037   5.262
58104SOL    HW276210  13.378   7.027   5.248
58105SOL     OW76211   9.712   2.112   7.428
58105SOL    HW176212   9.751   2.086   7.511
58105SOL    HW276213   9.642   2.173   7.452
58106SOL     OW76214   4.085  13.115   8.076
58106SOL    HW176215   3.996  13.102   8.042
58106SOL    HW276216   4.095  13.210   8.077
58107SOL     OW76217  14.041  14.674   2.910
58107SOL    HW176218  14.080  14.758   2.886
58107SOL    HW276219  14.097  14.642   2.981
58108SOL     OW76220   0.922  10.574   1.699
58108SOL    HW176221   0.931  10.596   1.606
58108SOL    HW276222   1.012  10.563   1.729
58109SOL     OW76223   2.565   6.115   2.132
58109SOL    HW176224   2.601   6.036   2.172
58109SOL    HW276225   2.571   6.182   2.200
58110SOL     OW76226   3.700   4.987   6.868
58110SOL    HW176227   3.654   5.013   6.948
58110SOL    HW276228   3.754   4.913   6.895
58111SOL     OW76229   9.926   9.921   7.155
58111SOL    HW176230  10.007   9.870   7.145
58111SOL    HW276231   9.877   9.905   7.075
58112SOL     OW76232   4.146   3.148   1.628
58112SOL    HW176233   4.187   3.144   1.714
58112SOL    HW276234   4.201   3.208   1.578
58113SOL     OW76235  14.212   3.510  12.519
58113SOL    HW176236  14.250   3.423  12.516
58113SOL    HW276237  14.117   3.495  12.518
58114SOL     OW76238  12.284  13.412   4.516
58114SOL    HW176239  12.300  13.330   4.563
58114SOL    HW276240  12.193  13.407   4.488
58115SOL     OW76241  10.309   2.400   7.008
58115SOL    HW176242  10.399   2.374   6.986
58115SOL    HW276243  10.283   2.338   7.076
58116SOL     OW76244  14.191   2.114   4.176
58116SOL    HW176245  14.104   2.138   4.145
58116SOL    HW276246  14.247   2.188   4.151
58117SOL     OW76247   0.366   7.947   8.533
58117SOL    HW176248   0.451   7.940   8.489
58117SOL    HW276249   0.388   7.961   8.625
58118SOL     OW76250   3.234   2.429   1.846
58118SOL    HW176251   3.317   2.407   1.805
58118SOL    HW276252   3.258   2.471   1.929
58119SOL     OW76253   5.390  12.502  12.412
58119SOL    HW176254   5.462  12.539  12.361
58119SOL    HW276255   5.421  12.416  12.439
58120SOL     OW76256   2.223   9.444   6.533
58120SOL    HW176257   2.302   9.438   6.480
58120SOL    HW276258   2.186   9.530   6.513
58121SOL     OW76259   9.990   4.928  13.681
58121SOL    HW176260  10.063   4.987  13.700
58121SOL    HW276261  10.028   4.861  13.624
58122SOL     OW76262  10.900   2.790  14.519
58122SOL    HW176263  10.972   2.771  14.458
58122SOL    HW276264  10.931   2.866  14.568
58123SOL     OW76265   3.427   5.262   2.226
58123SOL    HW176266   3.495   5.296   2.168
58123SOL    HW276267   3.380   5.198   2.173
58124SOL     OW76268   1.025  12.422  14.533
58124SOL    HW176269   1.043  12.349  14.591
58124SOL    HW276270   0.941  12.400  14.492
58125SOL     OW76271   8.240   0.534   5.867
58125SOL    HW176272   8.296   0.576   5.802
58125SOL    HW276273   8.154   0.574   5.854
58126SOL     OW76274   7.803   9.668   3.309
58126SOL    HW176275   7.816   9.757   3.275
58126SOL    HW276276   7.715   9.670   3.347
58127SOL     OW76277   7.865   4.388   9.898
58127SOL    HW176278   7.897   4.457   9.956
58127SOL    HW276279   7.926   4.316   9.912
58128SOL     OW76280   6.794  12.243   5.524
58128SOL    HW176281   6.760  12.277   5.606
58128SOL    HW276282   6.750  12.296   5.456
58129SOL     OW76283   7.705   1.092  10.359
58129SOL    HW176284   7.666   1.143  10.288
58129SOL    HW276285   7.759   1.154  10.407
58130SOL     OW76286   3.387  10.605   3.387
58130SOL    HW176287   3.468  10.620   3.339
58130SOL    HW276288   3.414  10.555   3.464
58131SOL     OW76289   4.562  12.920   3.404
58131SOL    HW176290   4.633  12.877   3.358
58131SOL    HW276291   4.482  12.882   3.368
58132SOL     OW76292   4.173   7.796   6.625
58132SOL    HW176293   4.090   7.751   6.609
58132SOL    HW276294   4.192   7.842   6.544
58133SOL     OW76295   5.783  14.397   3.351
58133SOL    HW176296   5.828  14.394   3.267
58133SOL    HW276297   5.849  14.428   3.413
58134SOL     OW76298   6.756   4.555  11.147
58134SOL    HW176299   6.679   4.532  11.198
58134SOL    HW276300   6.735   4.526  11.058
58135SOL     OW76301  10.760  13.738   9.204
58135SOL    HW176302  10.764  13.785   9.287
58135SOL    HW276303  10.666  13.727   9.187
58136SOL     OW76304   8.608   0.310   5.705
58136SOL    HW176305   8.570   0.328   5.619
58136SOL    HW276306   8.609   0.215   5.711
58137SOL     OW76307   5.074   6.791   1.664
58137SOL    HW176308   5.046   6.772   1.753
58137SOL    HW276309   5.140   6.860   1.674
58138SOL     OW76310   7.245  12.988  12.772
58138SOL    HW176311   7.214  12.942  12.850
58138SOL    HW276312   7.338  12.964  12.766
58139SOL     OW76313   0.438   6.399   0.264
58139SOL    HW176314   0.429   6.336   0.192
58139SOL    HW276315   0.531   6.422   0.265
58140SOL     OW76316  12.966   4.402   1.824
58140SOL    HW176317  13.008   4.459   1.889
58140SOL    HW276318  13.040   4.362   1.778
58141SOL     OW76319  13.388   2.956  13.372
58141SOL    HW176320  13.429   2.945  13.287
58141SOL    HW276321  13.457   2.935  13.435
58142SOL     OW76322  12.975  13.525   7.225
58142SOL    HW176323  12.889  13.511   7.183
58142SOL    HW276324  13.003  13.610   7.193
58143SOL     OW76325  10.522   7.644   7.695
58143SOL    HW176326  10.543   7.669   7.785
58143SOL    HW276327  10.479   7.559   7.704
58144SOL     OW76328  11.701  13.876   9.010
58144SOL    HW176329  11.763  13.827   9.064
58144SOL    HW276330  11.624  13.887   9.066
58145SOL     OW76331   9.604  10.062   2.409
58145SOL    HW176332   9.617   9.968   2.395
58145SOL    HW276333   9.525  10.083   2.359
58146SOL     OW76334   9.154  10.036   0.217
58146SOL    HW176335   9.246  10.009   0.206
58146SOL    HW276336   9.159  10.125   0.251
58147SOL     OW76337   7.810   8.767  13.787
58147SOL    HW176338   7.720   8.763  13.821
58147SOL    HW276339   7.860   8.808  13.857
58148SOL     OW76340  13.719   7.830   6.882
58148SOL    HW176341  13.657   7.835   6.955
58148SOL    HW276342  13.687   7.757   6.829
58149SOL     OW76343   6.941   8.008  10.465
58149SOL    HW176344   6.902   8.095  10.472
58149SOL    HW276345   7.035   8.022  10.482
58150SOL     OW76346   1.850   4.613   2.442
58150SOL    HW176347   1.804   4.601   2.359
58150SOL    HW276348   1.886   4.702   2.437
58151SOL     OW76349   3.801   7.786  12.356
58151SOL    HW176350   3.811   7.728  12.431
58151SOL    HW276351   3.845   7.740  12.285
58152SOL     OW76352   6.694  13.678   0.853
58152SOL    HW176353   6.623  13.619   0.874
58152SOL    HW276354   6.770  13.644   0.900
58153SOL     OW76355   5.115  12.589   9.607
58153SOL    HW176356   5.113  12.620   9.698
58153SOL    HW276357   5.024  12.563   9.589
58154SOL     OW76358   2.843   4.057  10.834
58154SOL    HW176359   2.831   4.076  10.927
58154SOL    HW276360   2.778   3.989  10.815
58155SOL     OW76361   7.528   3.976   6.486
58155SOL    HW176362   7.614   4.017   6.492
58155SOL    HW276363   7.539   3.905   6.423
58156SOL     OW76364   8.396   6.256  13.483
58156SOL    HW176365   8.382   6.325  13.547
58156SOL    HW276366   8.459   6.197  13.525
58157SOL     OW76367   8.309  11.040   9.684
58157SOL    HW176368   8.278  11.089   9.608
58157SOL    HW276369   8.254  11.070   9.756
58158SOL     OW76370  13.480   5.088   9.237
58158SOL    HW176371  13.545   5.131   9.292
58158SOL    HW276372  13.433   5.030   9.297
58159SOL     OW76373   4.594   3.572   5.726
58159SOL    HW176374   4.613   3.543   5.637
58159SOL    HW276375   4.610   3.495   5.781
58160SOL     OW76376  14.653   0.440   7.791
58160SOL    HW176377  14.563   0.461   7.766
58160SOL    HW276378  14.706   0.478   7.721
58161SOL     OW76379  14.734   0.103   4.098
58161SOL    HW176380  14.729   0.091   4.192
58161SOL    HW276381  14.647   0.079   4.066
58162SOL     OW76382   0.527   5.365  11.558
58162SOL    HW176383   0.562   5.411  11.482
58162SOL    HW276384   0.445   5.411  11.578
58163SOL     OW76385   9.013  12.284   6.024
58163SOL    HW176386   8.977  12.266   5.937
58163SOL    HW276387   9.107  12.295   6.009
58164SOL     OW76388   4.546  13.508  10.433
58164SOL    HW176389   4.595  13.433  10.465
58164SOL    HW276390   4.597  13.541  10.359
58165SOL     OW76391   8.811   7.428  13.524
58165SOL    HW176392   8.900   7.412  13.492
58165SOL    HW276393   8.808   7.522  13.541
58166SOL     OW76394   3.632  14.612   1.890
58166SOL    HW176395   3.544  14.602   1.926
58166SOL    HW276396   3.690  14.587   1.961
58167SOL     OW76397   9.096  13.316  11.790
58167SOL    HW176398   9.119  13.244  11.730
58167SOL    HW276399   9.025  13.362  11.745
58168SOL     OW76400  12.052   0.195   7.835
58168SOL    HW176401  12.048   0.259   7.764
58168SOL    HW276402  11.967   0.204   7.880
58169SOL     OW76403   5.457   9.988   8.155
58169SOL    HW176404   5.365  10.005   8.177
58169SOL    HW276405   5.503  10.066   8.185
58170SOL     OW76406  13.875  10.852   2.233
58170SOL    HW176407  13.806  10.892   2.286
58170SOL    HW276408  13.935  10.924   2.214
58171SOL     OW76409   9.548   5.103   1.339
58171SOL    HW176410   9.587   5.015   1.346
58171SOL    HW276411   9.585   5.151   1.413
58172SOL     OW76412  14.232   3.208  12.071
58172SOL    HW176413  14.179   3.218  12.150
58172SOL    HW276414  14.319   3.186  12.103
58173SOL     OW76415  13.261   3.424   5.297
58173SOL    HW176416  13.351   3.395   5.305
58173SOL    HW276417  13.228   3.425   5.387
58174SOL     OW76418   8.889   1.164   8.882
58174SOL    HW176419   8.846   1.213   8.812
58174SOL    HW276420   8.983   1.175   8.865
58175SOL     OW76421  13.933  12.162   8.311
58175SOL    HW176422  14.027  12.151   8.325
58175SOL    HW276423  13.917  12.255   8.326
58176SOL     OW76424  13.813   2.108  13.812
58176SOL    HW176425  13.769   2.086  13.894
58176SOL    HW276426  13.902   2.131  13.838
58177SOL     OW76427   2.701   2.462   8.832
58177SOL    HW176428   2.764   2.424   8.893
58177SOL    HW276429   2.669   2.540   8.876
58178SOL     OW76430  10.024   3.120   1.247
58178SOL    HW176431   9.950   3.069   1.213
58178SOL    HW276432   9.985   3.203   1.275
58179SOL     OW76433   4.645  14.823  10.847
58179SOL    HW176434   4.639  14.819  10.751
58179SOL    HW276435   4.727  14.869  10.864
58180SOL     OW76436   8.299   5.552  11.101
58180SOL    HW176437   8.350   5.548  11.020
58180SOL    HW276438   8.279   5.461  11.122
58181SOL     OW76439   7.884  13.334  10.961
58181SOL    HW176440   7.881  13.422  10.922
58181SOL    HW276441   7.886  13.275  10.886
58182SOL     OW76442  12.508   0.627   9.269
58182SOL    HW176443  12.533   0.628   9.177
58182SOL    HW276444  12.519   0.718   9.298
58183SOL     OW76445   0.565  11.347   9.751
58183SOL    HW176446   0.539  11.431   9.789
58183SOL    HW276447   0.592  11.369   9.662
58184SOL     OW76448  11.055   1.837   2.016
58184SOL    HW176449  11.078   1.771   1.950
58184SOL    HW276450  11.001   1.900   1.968
58185SOL     OW76451   6.660  13.374  13.535
58185SOL    HW176452   6.739  13.321  13.525
58185SOL    HW276453   6.611  13.361  13.454
58186SOL     OW76454  10.304  12.320  12.297
58186SOL    HW176455  10.391  12.301  12.331
58186SOL    HW276456  10.250  12.247  12.328
58187SOL     OW76457   5.080   1.590   4.662
58187SOL    HW176458   5.061   1.613   4.752
58187SOL    HW276459   5.055   1.667   4.611
58188SOL     OW76460   9.207  11.436   7.832
58188SOL    HW176461   9.260  11.407   7.758
58188SOL    HW276462   9.126  11.386   7.826
58189SOL     OW76463  11.597   9.206   0.029
58189SOL    HW176464  11.686   9.227   0.001
58189SOL    HW276465  11.541   9.254  14.838
58190SOL     OW76466   1.236  10.493   3.855
58190SOL    HW176467   1.273  10.575   3.823
58190SOL    HW276468   1.196  10.453   3.778
58191SOL     OW76469   6.840   4.445  10.625
58191SOL    HW176470   6.782   4.432  10.551
58191SOL    HW276471   6.836   4.539  10.643
58192SOL     OW76472   8.890  10.266   2.743
58192SOL    HW176473   8.901  10.237   2.652
58192SOL    HW276474   8.854  10.189   2.788
58193SOL     OW76475  12.980   8.669   8.491
58193SOL    HW176476  12.961   8.673   8.397
58193SOL    HW276477  13.073   8.645   8.495
58194SOL     OW76478  12.714   3.890   8.825
58194SOL    HW176479  12.641   3.861   8.770
58194SOL    HW276480  12.720   3.824   8.894
58195SOL     OW76481   4.882   5.090   0.621
58195SOL    HW176482   4.813   5.102   0.687
58195SOL    HW276483   4.960   5.069   0.672
58196SOL     OW76484   6.957   7.209   3.318
58196SOL    HW176485   7.003   7.293   3.330
58196SOL    HW276486   7.020   7.143   3.346
58197SOL     OW76487   0.398  10.497   5.100
58197SOL    HW176488   0.307  10.529   5.105
58197SOL    HW276489   0.434  10.515   5.187
58198SOL     OW76490  14.805   6.195   3.412
58198SOL    HW176491  14.784   6.153   3.329
58198SOL    HW276492  14.739   6.162   3.473
58199SOL     OW76493  10.838   5.922   0.171
58199SOL    HW176494  10.835   5.976   0.091
58199SOL    HW276495  10.921   5.944   0.212
58200SOL     OW76496   6.911  12.692  12.151
58200SOL    HW176497   6.978  12.760  12.151
58200SOL    HW276498   6.874  12.694  12.239
58201SOL     OW76499   9.566   4.037   8.985
58201SOL    HW176500   9.534   3.977   8.918
58201SOL    HW276501   9.529   4.122   8.960
58202SOL     OW76502   1.093  14.561   2.107
58202SOL    HW176503   1.010  14.589   2.144
58202SOL    HW276504   1.093  14.596   2.018
58203SOL     OW76505   4.359   1.285  12.194
58203SOL    HW176506   4.274   1.257  12.228
58203SOL    HW276507   4.339   1.362  12.141
58204SOL     OW76508  12.219   9.839   7.843
58204SOL    HW176509  12.124   9.832   7.833
58204SOL    HW276510  12.241   9.921   7.799
58205SOL     OW76511   6.462  10.799  13.697
58205SOL    HW176512   6.465  10.891  13.724
58205SOL    HW276513   6.379  10.767  13.732
58206SOL     OW76514   7.633   7.463   5.285
58206SOL    HW176515   7.712   7.420   5.252
58206SOL    HW276516   7.627   7.436   5.376
58207SOL     OW76517  14.757  11.764   1.447
58207SOL    HW176518  14.774  11.836   1.386
58207SOL    HW276519  14.806  11.690   1.410
58208SOL     OW76520   3.461  13.792   3.873
58208SOL    HW176521   3.438  13.871   3.922
58208SOL    HW276522   3.416  13.802   3.789
58209SOL     OW76523  13.063   5.889  14.339
58209SOL    HW176524  13.124   5.817  14.327
58209SOL    HW276525  13.006   5.885  14.261
58210SOL     OW76526  14.555  11.467  13.856
58210SOL    HW176527  14.477  11.510  13.822
58210SOL    HW276528  14.620  11.538  13.863
58211SOL     OW76529  12.367  14.250   1.916
58211SOL    HW176530  12.278  14.284   1.915
58211SOL    HW276531  12.392  14.243   1.824
58212SOL     OW76532  10.983   1.815  14.611
58212SOL    HW176533  10.999   1.721  14.612
58212SOL    HW276534  10.953   1.836  14.700
58213SOL     OW76535   6.756   3.436   4.474
58213SOL    HW176536   6.760   3.408   4.566
58213SOL    HW276537   6.667   3.416   4.446
58214SOL     OW76538  13.080   3.124   1.976
58214SOL    HW176539  12.996   3.100   2.015
58214SOL    HW276540  13.095   3.214   2.004
58215SOL     OW76541  12.545  10.969   7.097
58215SOL    HW176542  12.535  10.954   7.191
58215SOL    HW276543  12.626  10.923   7.074
58216SOL     OW76544  10.253  12.980   9.130
58216SOL    HW176545  10.164  13.007   9.108
58216SOL    HW276546  10.308  13.021   9.063
58217SOL     OW76547   0.541   6.475   6.669
58217SOL    HW176548   0.520   6.428   6.589
58217SOL    HW276549   0.530   6.410   6.739
58218SOL     OW76550   7.146  12.903   6.670
58218SOL    HW176551   7.191  12.900   6.585
58218SOL    HW276552   7.180  12.982   6.712
58219SOL     OW76553   2.679   6.031   3.962
58219SOL    HW176554   2.648   5.964   4.024
58219SOL    HW276555   2.721   5.981   3.893
58220SOL     OW76556   8.212   4.197   2.904
58220SOL    HW176557   8.268   4.187   2.981
58220SOL    HW276558   8.197   4.108   2.874
58221SOL     OW76559   3.378  10.189   3.894
58221SOL    HW176560   3.444  10.130   3.858
58221SOL    HW276561   3.396  10.191   3.988
58222SOL     OW76562   8.871   2.719  11.454
58222SOL    HW176563   8.853   2.633  11.491
58222SOL    HW276564   8.785   2.752  11.426
58223SOL     OW76565   5.362  11.088   6.919
58223SOL    HW176566   5.445  11.119   6.953
58223SOL    HW276567   5.314  11.167   6.894
58224SOL     OW76568  11.812  12.070   7.331
58224SOL    HW176569  11.843  12.158   7.351
58224SOL    HW276570  11.876  12.012   7.371
58225SOL     OW76571  10.277   8.018  10.711
58225SOL    HW176572  10.262   7.961  10.787
58225SOL    HW276573  10.240   7.970  10.637
58226SOL     OW76574   3.646   8.283   2.927
58226SOL    HW176575   3.686   8.369   2.933
58226SOL    HW276576   3.649   8.261   2.833
58227SOL     OW76577   1.299   7.971   5.416
58227SOL    HW176578   1.302   7.920   5.335
58227SOL    HW276579   1.210   7.957   5.449
58228SOL     OW76580   4.197   7.260   8.455
58228SOL    HW176581   4.236   7.238   8.540
58228SOL    HW276582   4.232   7.192   8.396
58229SOL     OW76583   3.980   8.500  11.223
58229SOL    HW176584   3.904   8.445  11.240
58229SOL    HW276585   3.967   8.578  11.278
58230SOL     OW76586  13.671  11.643   0.921
58230SOL    HW176587  13.600  11.674   0.977
58230SOL    HW276588  13.746  11.698   0.943
58231SOL     OW76589  14.304   6.307   9.027
58231SOL    HW176590  14.249   6.307   9.105
58231SOL    HW276591  14.273   6.232   8.976
58232SOL     OW76592   3.378   1.672   8.615
58232SOL    HW176593   3.470   1.696   8.629
58232SOL    HW276594   3.328   1.739   8.660
58233SOL     OW76595   5.854  14.064   4.085
58233SOL    HW176596   5.856  14.053   4.180
58233SOL    HW276597   5.846  13.975   4.051
58234SOL     OW76598  10.474   2.367  10.407
58234SOL    HW176599  10.534   2.435  10.437
58234SOL    HW276600  10.444   2.325  10.488
58235SOL     OW76601   5.071  13.979   6.261
58235SOL    HW176602   5.029  14.010   6.180
58235SOL    HW276603   5.076  13.884   6.251
58236SOL     OW76604   6.835   0.429   6.645
58236SOL    HW176605   6.774   0.390   6.582
58236SOL    HW276606   6.914   0.375   6.639
58237SOL     OW76607   5.728   3.382   1.986
58237SOL    HW176608   5.771   3.376   2.072
58237SOL    HW276609   5.651   3.326   1.994
58238SOL     OW76610  14.485   6.354  11.706
58238SOL    HW176611  14.403   6.362  11.656
58238SOL    HW276612  14.488   6.434  11.758
58239SOL     OW76613   2.458  10.500  11.258
58239SOL    HW176614   2.545  10.492  11.218
58239SOL    HW276615   2.463  10.446  11.337
58240SOL     OW76616   7.390   8.581  14.867
58240SOL    HW176617   7.434   8.567   0.081
58240SOL    HW276618   7.301   8.609   0.021
58241SOL     OW76619   6.636   6.845   1.134
58241SOL    HW176620   6.716   6.864   1.085
58241SOL    HW276621   6.579   6.801   1.071
58242SOL     OW76622   1.246   7.480   9.298
58242SOL    HW176623   1.202   7.494   9.381
58242SOL    HW276624   1.181   7.504   9.232
58243SOL     OW76625   6.520   7.133  14.379
58243SOL    HW176626   6.594   7.170  14.331
58243SOL    HW276627   6.522   7.040  14.357
58244SOL     OW76628  10.293   1.721   3.650
58244SOL    HW176629  10.322   1.802   3.694
58244SOL    HW276630  10.368   1.663   3.657
58245SOL     OW76631   0.771   0.116  14.738
58245SOL    HW176632   0.733   0.170  14.669
58245SOL    HW276633   0.733   0.150  14.819
58246SOL     OW76634   1.083   1.754   1.863
58246SOL    HW176635   1.137   1.676   1.873
58246SOL    HW276636   1.094   1.802   1.945
58247SOL     OW76637   9.655   2.125   2.102
58247SOL    HW176638   9.709   2.058   2.061
58247SOL    HW276639   9.706   2.206   2.095
58248SOL     OW76640   2.716  14.570  10.703
58248SOL    HW176641   2.737  14.659  10.731
58248SOL    HW276642   2.790  14.518  10.734
58249SOL     OW76643   0.117  12.830  10.980
58249SOL    HW176644   0.117  12.805  11.072
58249SOL    HW276645   0.178  12.769  10.939
58250SOL     OW76646  11.465   7.469   6.899
58250SOL    HW176647  11.403   7.397   6.889
58250SOL    HW276648  11.423   7.528   6.962
58251SOL     OW76649   8.744  11.283  13.074
58251SOL    HW176650   8.684  11.354  13.100
58251SOL    HW276651   8.789  11.259  13.156
58252SOL     OW76652   4.630   4.240  14.788
58252SOL    HW176653   4.630   4.231  14.693
58252SOL    HW276654   4.555   4.188  14.818
58253SOL     OW76655   7.796   5.030   6.381
58253SOL    HW176656   7.725   5.075   6.426
58253SOL    HW276657   7.794   5.064   6.292
58254SOL     OW76658   2.687   0.073  13.933
58254SOL    HW176659   2.731   0.113  14.008
58254SOL    HW276660   2.640   0.145  13.892
58255SOL     OW76661   3.717   3.868   6.235
58255SOL    HW176662   3.807   3.881   6.263
58255SOL    HW276663   3.677   3.818   6.306
58256SOL     OW76664  13.962   3.013   5.851
58256SOL    HW176665  13.869   3.031   5.836
58256SOL    HW276666  14.005   3.097   5.834
58257SOL     OW76667   4.643   2.681   9.844
58257SOL    HW176668   4.728   2.721   9.827
58257SOL    HW276669   4.621   2.708   9.933
58258SOL     OW76670   6.711   5.318   6.734
58258SOL    HW176671   6.795   5.321   6.688
58258SOL    HW276672   6.680   5.228   6.723
58259SOL     OW76673  14.218   0.744  13.812
58259SOL    HW176674  14.291   0.730  13.751
58259SOL    HW276675  14.141   0.753  13.755
58260SOL     OW76676   1.759   0.359   6.352
58260SOL    HW176677   1.833   0.327   6.404
58260SOL    HW276678   1.706   0.281   6.336
58261SOL     OW76679   1.158   3.921   2.522
58261SOL    HW176680   1.102   3.843   2.526
58261SOL    HW276681   1.214   3.906   2.447
58262SOL     OW76682  10.518   0.830  11.072
58262SOL    HW176683  10.479   0.818  11.158
58262SOL    HW276684  10.545   0.922  11.070
58263SOL     OW76685   8.049   7.520   8.483
58263SOL    HW176686   8.112   7.472   8.429
58263SOL    HW276687   7.980   7.546   8.422
58264SOL     OW76688  14.090   1.463   2.273
58264SOL    HW176689  14.156   1.477   2.206
58264SOL    HW276690  14.117   1.383   2.317
58265SOL     OW76691   1.580   9.170   9.353
58265SOL    HW176692   1.515   9.184   9.422
58265SOL    HW276693   1.645   9.113   9.393
58266SOL     OW76694   5.577   0.992   2.020
58266SOL    HW176695   5.644   1.060   2.013
58266SOL    HW276696   5.597   0.932   1.948
58267SOL     OW76697  12.734  14.706  11.655
58267SOL    HW176698  12.717  14.697  11.561
58267SOL    HW276699  12.801  14.774  11.661
58268SOL     OW76700   0.041   2.301  10.444
58268SOL    HW176701   0.129   2.338  10.445
58268SOL    HW276702   0.054   2.207  10.457
58269SOL     OW76703  12.953   5.536  14.172
58269SOL    HW176704  12.881   5.532  14.109
58269SOL    HW276705  13.027   5.495  14.127
58270SOL     OW76706   1.066   7.024  11.515
58270SOL    HW176707   0.988   7.037  11.569
58270SOL    HW276708   1.098   7.112  11.497
58271SOL     OW76709  10.360   9.008   9.228
58271SOL    HW176710  10.407   8.934   9.266
58271SOL    HW276711  10.296   9.033   9.295
58272SOL     OW76712  13.030  13.704  13.897
58272SOL    HW176713  13.002  13.782  13.946
58272SOL    HW276714  13.112  13.730  13.855
58273SOL     OW76715   1.961   1.025   3.430
58273SOL    HW176716   2.051   0.996   3.441
58273SOL    HW276717   1.910   0.968   3.488
58274SOL     OW76718   1.210   5.025  10.983
58274SOL    HW176719   1.204   5.090  10.913
58274SOL    HW276720   1.302   5.026  11.009
58275SOL     OW76721  14.058  13.520   1.951
58275SOL    HW176722  13.981  13.576   1.966
58275SOL    HW276723  14.034  13.436   1.989
58276SOL     OW76724  12.822   2.192   7.294
58276SOL    HW176725  12.850   2.125   7.356
58276SOL    HW276726  12.764   2.249   7.345
58277SOL     OW76727  13.809   7.487   0.827
58277SOL    HW176728  13.888   7.451   0.787
58277SOL    HW276729  13.782   7.557   0.769
58278SOL     OW76730  12.842   5.039  12.909
58278SOL    HW176731  12.846   5.044  12.814
58278SOL    HW276732  12.785   4.963  12.927
58279SOL     OW76733  14.452   1.703  12.962
58279SOL    HW176734  14.397   1.675  13.035
58279SOL    HW276735  14.498   1.781  12.995
58280SOL     OW76736   3.770   7.067  14.851
58280SOL    HW176737   3.739   7.157  14.850
58280SOL    HW276738   3.706   7.020   0.035
58281SOL     OW76739   9.697  14.680  13.182
58281SOL    HW176740   9.672  14.620  13.111
58281SOL    HW276741   9.733  14.623  13.250
58282SOL     OW76742   1.695  12.040   0.472
58282SOL    HW176743   1.757  12.047   0.399
58282SOL    HW276744   1.751  12.023   0.548
58283SOL     OW76745   3.549  14.187  10.810
58283SOL    HW176746   3.456  14.194  10.831
58283SOL    HW276747   3.552  14.138  10.728
58284SOL     OW76748  11.211   5.677   8.189
58284SOL    HW176749  11.294   5.676   8.237
58284SOL    HW276750  11.144   5.689   8.256
58285SOL     OW76751   3.925   6.441   6.719
58285SOL    HW176752   4.018   6.416   6.715
58285SOL    HW276753   3.908   6.454   6.813
58286SOL     OW76754   6.589  10.273   7.811
58286SOL    HW176755   6.556  10.293   7.899
58286SOL    HW276756   6.649  10.345   7.792
58287SOL     OW76757   1.502   6.521   9.225
58287SOL    HW176758   1.434   6.455   9.216
58287SOL    HW276759   1.584   6.471   9.222
58288SOL     OW76760   5.441  12.877   4.470
58288SOL    HW176761   5.396  12.927   4.402
58288SOL    HW276762   5.491  12.942   4.519
58289SOL     OW76763   1.104   4.396   7.717
58289SOL    HW176764   1.178   4.349   7.679
58289SOL    HW276765   1.031   4.379   7.657
58290SOL     OW76766   9.156  13.849   0.144
58290SOL    HW176767   9.180  13.904   0.070
58290SOL    HW276768   9.082  13.894   0.185
58291SOL     OW76769  13.452   1.204  13.298
58291SOL    HW176770  13.439   1.293  13.266
58291SOL    HW276771  13.363   1.172  13.315
58292SOL     OW76772   5.788   1.947   5.961
58292SOL    HW176773   5.864   1.933   6.017
58292SOL    HW276774   5.803   1.890   5.886
58293SOL     OW76775   6.482   8.042   8.685
58293SOL    HW176776   6.547   8.037   8.615
58293SOL    HW276777   6.445   8.130   8.677
58294SOL     OW76778   9.492  14.628   1.931
58294SOL    HW176779   9.465  14.707   1.883
58294SOL    HW276780   9.434  14.627   2.008
58295SOL     OW76781   5.762   2.927   2.464
58295SOL    HW176782   5.771   2.884   2.378
58295SOL    HW276783   5.736   2.856   2.523
58296SOL     OW76784   5.146   8.048   0.807
58296SOL    HW176785   5.211   7.982   0.833
58296SOL    HW276786   5.062   8.003   0.813
58297SOL     OW76787   9.184  14.849  12.185
58297SOL    HW176788   9.102   0.005  12.229
58297SOL    HW276789   9.252   0.010  12.244
58298SOL     OW76790  13.566   8.572  11.139
58298SOL    HW176791  13.494   8.549  11.198
58298SOL    HW276792  13.620   8.493  11.134
58299SOL     OW76793  13.877  10.458  12.681
58299SOL    HW176794  13.931  10.379  12.682
58299SOL    HW276795  13.873  10.485  12.773
58300SOL     OW76796   1.720   3.529  13.687
58300SOL    HW176797   1.673   3.464  13.739
58300SOL    HW276798   1.805   3.489  13.669
58301SOL     OW76799   8.126   6.519   8.057
58301SOL    HW176800   8.100   6.441   8.106
58301SOL    HW276801   8.095   6.504   7.968
58302SOL     OW76802  11.458  11.871   0.649
58302SOL    HW176803  11.539  11.909   0.683
58302SOL    HW276804  11.447  11.911   0.563
58303SOL     OW76805   0.802   2.220   6.906
58303SOL    HW176806   0.848   2.300   6.929
58303SOL    HW276807   0.861   2.175   6.845
58304SOL     OW76808   7.510   4.665   8.048
58304SOL    HW176809   7.574   4.735   8.032
58304SOL    HW276810   7.564   4.588   8.067
58305SOL     OW76811  11.276   7.526   3.121
58305SOL    HW176812  11.291   7.615   3.090
58305SOL    HW276813  11.245   7.537   3.211
58306SOL     OW76814   3.517   9.321   9.627
58306SOL    HW176815   3.552   9.269   9.699
58306SOL    HW276816   3.441   9.272   9.597
58307SOL     OW76817   4.466   0.505   5.648
58307SOL    HW176818   4.452   0.529   5.740
58307SOL    HW276819   4.560   0.497   5.638
58308SOL     OW76820   4.133  12.969   2.464
58308SOL    HW176821   4.049  12.925   2.462
58308SOL    HW276822   4.120  13.045   2.521
58309SOL     OW76823  11.556  14.473   5.149
58309SOL    HW176824  11.640  14.483   5.193
58309SOL    HW276825  11.578  14.460   5.057
58310SOL     OW76826   0.332   8.984   3.552
58310SOL    HW176827   0.298   8.974   3.463
58310SOL    HW276828   0.271   8.936   3.607
58311SOL     OW76829   8.379   8.982   5.525
58311SOL    HW176830   8.297   8.933   5.525
58311SOL    HW276831   8.431   8.944   5.596
58312SOL     OW76832  10.750   1.447   7.236
58312SOL    HW176833  10.690   1.420   7.167
58312SOL    HW276834  10.771   1.538   7.216
58313SOL     OW76835   5.070  14.296  13.817
58313SOL    HW176836   4.982  14.322  13.789
58313SOL    HW276837   5.098  14.366  13.876
58314SOL     OW76838   8.584   5.868   9.492
58314SOL    HW176839   8.667   5.890   9.533
58314SOL    HW276840   8.550   5.794   9.542
58315SOL     OW76841  11.957  14.264   1.782
58315SOL    HW176842  12.015  14.255   1.858
58315SOL    HW276843  11.956  14.358   1.764
58316SOL     OW76844   4.778   9.620   5.535
58316SOL    HW176845   4.738   9.592   5.453
58316SOL    HW276846   4.870   9.598   5.525
58317SOL     OW76847   4.587   3.115   7.625
58317SOL    HW176848   4.595   3.208   7.649
58317SOL    HW276849   4.571   3.070   7.708
58318SOL     OW76850   0.336   5.450  10.162
58318SOL    HW176851   0.340   5.521  10.098
58318SOL    HW276852   0.278   5.384  10.123
58319SOL     OW76853   3.706  10.993  14.782
58319SOL    HW176854   3.734  10.903  14.798
58319SOL    HW276855   3.616  10.996  14.813
58320SOL     OW76856   7.015  14.277   5.858
58320SOL    HW176857   7.078  14.216   5.897
58320SOL    HW276858   6.937  14.224   5.842
58321SOL     OW76859   7.291  10.808   0.676
58321SOL    HW176860   7.354  10.880   0.682
58321SOL    HW276861   7.227  10.837   0.612
58322SOL     OW76862   6.609   8.001   6.863
58322SOL    HW176863   6.524   7.962   6.843
58322SOL    HW276864   6.588   8.074   6.922
58323SOL     OW76865   1.116  10.384   3.288
58323SOL    HW176866   1.197  10.337   3.268
58323SOL    HW276867   1.142  10.447   3.356
58324SOL     OW76868   5.281  13.443   4.566
58324SOL    HW176869   5.231  13.523   4.550
58324SOL    HW276870   5.285  13.400   4.481
58325SOL     OW76871   5.506  14.709  13.756
58325SOL    HW176872   5.470  14.640  13.813
58325SOL    HW276873   5.533  14.778  13.816
58326SOL     OW76874   0.422   1.949   5.970
58326SOL    HW176875   0.417   1.868   6.020
58326SOL    HW276876   0.355   1.940   5.902
58327SOL     OW76877   2.571   6.254   1.625
58327SOL    HW176878   2.647   6.207   1.591
58327SOL    HW276879   2.562   6.225   1.716
58328SOL     OW76880  12.691  12.418   4.544
58328SOL    HW176881  12.711  12.508   4.517
58328SOL    HW276882  12.634  12.428   4.620
58329SOL     OW76883   6.562  14.061   2.397
58329SOL    HW176884   6.655  14.044   2.386
58329SOL    HW276885   6.533  14.092   2.311
58330SOL     OW76886  13.582   4.387  14.376
58330SOL    HW176887  13.541   4.301  14.388
58330SOL    HW276888  13.570   4.406  14.283
58331SOL     OW76889   8.835   5.423   8.274
58331SOL    HW176890   8.760   5.401   8.329
58331SOL    HW276891   8.836   5.356   8.207
58332SOL     OW76892   3.253   3.991   6.527
58332SOL    HW176893   3.181   4.047   6.557
58332SOL    HW276894   3.242   3.988   6.432
58333SOL     OW76895   4.089   3.266   5.576
58333SOL    HW176896   4.163   3.326   5.579
58333SOL    HW276897   4.015   3.321   5.547
58334SOL     OW76898   6.895   7.266  10.450
58334SOL    HW176899   6.855   7.329  10.510
58334SOL    HW276900   6.838   7.189  10.455
58335SOL     OW76901   8.888   0.641   6.815
58335SOL    HW176902   8.912   0.712   6.756
58335SOL    HW276903   8.836   0.682   6.883
58336SOL     OW76904   6.062  13.351   6.016
58336SOL    HW176905   5.973  13.377   5.993
58336SOL    HW276906   6.055  13.315   6.104
58337SOL     OW76907  10.771  10.209  11.056
58337SOL    HW176908  10.854  10.166  11.078
58337SOL    HW276909  10.785  10.300  11.080
58338SOL     OW76910  14.536   2.001   2.798
58338SOL    HW176911  14.461   1.947   2.774
58338SOL    HW276912  14.613   1.947   2.778
58339SOL     OW76913   8.715   0.191   0.695
58339SOL    HW176914   8.640   0.145   0.660
58339SOL    HW276915   8.706   0.281   0.662
58340SOL     OW76916   5.844   1.986  14.722
58340SOL    HW176917   5.936   2.013  14.723
58340SOL    HW276918   5.845   1.900  14.679
58341SOL     OW76919   1.683   5.529   8.436
58341SOL    HW176920   1.702   5.532   8.530
58341SOL    HW276921   1.653   5.618   8.415
58342SOL     OW76922  13.350   8.614   7.697
58342SOL    HW176923  13.367   8.706   7.677
58342SOL    HW276924  13.261   8.598   7.664
58343SOL     OW76925   5.567   8.167   4.386
58343SOL    HW176926   5.611   8.197   4.306
58343SOL    HW276927   5.505   8.100   4.355
58344SOL     OW76928   8.625   9.391   5.468
58344SOL    HW176929   8.648   9.309   5.425
58344SOL    HW276930   8.529   9.389   5.474
58345SOL     OW76931   9.823   1.579   4.626
58345SOL    HW176932   9.761   1.537   4.567
58345SOL    HW276933   9.840   1.513   4.693
58346SOL     OW76934  13.614  13.539   7.413
58346SOL    HW176935  13.584  13.556   7.323
58346SOL    HW276936  13.540  13.565   7.468
58347SOL     OW76937  13.471   4.403  10.016
58347SOL    HW176938  13.439   4.483  10.059
58347SOL    HW276939  13.539   4.434   9.956
58348SOL     OW76940  12.645   9.946  13.642
58348SOL    HW176941  12.689  10.024  13.673
58348SOL    HW276942  12.552   9.967  13.646
58349SOL     OW76943   4.046   9.120   9.991
58349SOL    HW176944   4.071   9.030   9.969
58349SOL    HW276945   4.128   9.163  10.013
58350SOL     OW76946   9.747   4.301   8.230
58350SOL    HW176947   9.773   4.360   8.160
58350SOL    HW276948   9.824   4.295   8.287
58351SOL     OW76949  14.866   2.643  13.308
58351SOL    HW176950   0.030   2.651  13.219
58351SOL    HW276951  14.772   2.629  13.296
58352SOL     OW76952  13.769  11.355   4.770
58352SOL    HW176953  13.842  11.330   4.826
58352SOL    HW276954  13.703  11.388   4.831
58353SOL     OW76955   5.032   2.107   2.336
58353SOL    HW176956   5.035   2.011   2.340
58353SOL    HW276957   4.942   2.127   2.310
58354SOL     OW76958  13.540  11.746   8.662
58354SOL    HW176959  13.556  11.759   8.568
58354SOL    HW276960  13.485  11.820   8.688
58355SOL     OW76961   0.557   9.196   6.084
58355SOL    HW176962   0.499   9.161   6.017
58355SOL    HW276963   0.605   9.120   6.117
58356SOL     OW76964   9.959  10.800   9.218
58356SOL    HW176965  10.031  10.769   9.272
58356SOL    HW276966   9.880  10.767   9.262
58357SOL     OW76967   8.554   0.925  13.962
58357SOL    HW176968   8.525   0.987  13.896
58357SOL    HW276969   8.648   0.916  13.947
58358SOL     OW76970   6.773   6.750   6.354
58358SOL    HW176971   6.718   6.701   6.294
58358SOL    HW276972   6.852   6.698   6.363
58359SOL     OW76973   7.027  11.111   3.099
58359SOL    HW176974   7.090  11.064   3.043
58359SOL    HW276975   7.079  11.179   3.141
58360SOL     OW76976  11.407   6.942   8.446
58360SOL    HW176977  11.443   6.854   8.433
58360SOL    HW276978  11.479   6.993   8.482
58361SOL     OW76979  12.934   9.661  12.356
58361SOL    HW176980  12.896   9.710  12.429
58361SOL    HW276981  12.949   9.727  12.288
58362SOL     OW76982   9.011   3.885  10.619
58362SOL    HW176983   9.047   3.878  10.707
58362SOL    HW276984   9.021   3.977  10.595
58363SOL     OW76985   7.337   2.631   7.942
58363SOL    HW176986   7.378   2.715   7.965
58363SOL    HW276987   7.350   2.625   7.847
58364SOL     OW76988   3.256  12.499   9.603
58364SOL    HW176989   3.300  12.476   9.685
58364SOL    HW276990   3.323  12.485   9.535
58365SOL     OW76991   7.464   1.200   1.266
58365SOL    HW176992   7.392   1.180   1.327
58365SOL    HW276993   7.539   1.217   1.323
58366SOL     OW76994   6.850   1.352   0.120
58366SOL    HW176995   6.772   1.407   0.127
58366SOL    HW276996   6.893   1.360   0.205
58367SOL     OW76997  11.199  12.246   4.477
58367SOL    HW176998  11.145  12.167   4.469
58367SOL    HW276999  11.256  12.243   4.400
58368SOL     OW77000   0.861   1.349   7.848
58368SOL    HW177001   0.771   1.364   7.875
58368SOL    HW277002   0.855   1.317   7.758
58369SOL     OW77003   3.926  12.577   3.668
58369SOL    HW177004   3.877  12.658   3.684
58369SOL    HW277005   4.014  12.596   3.700
58370SOL     OW77006   9.673   4.926   2.768
58370SOL    HW177007   9.763   4.958   2.783
58370SOL    HW277008   9.627   4.949   2.849
58371SOL     OW77009  10.338   9.771   0.118
58371SOL    HW177010  10.382   9.689   0.094
58371SOL    HW277011  10.399   9.814   0.178
58372SOL     OW77012   8.392  13.791  13.913
58372SOL    HW177013   8.393  13.695  13.920
58372SOL    HW277014   8.474  13.818  13.954
58373SOL     OW77015  11.143   2.566  13.700
58373SOL    HW177016  11.108   2.487  13.742
58373SOL    HW277017  11.124   2.555  13.607
58374SOL     OW77018   1.643   9.569  11.770
58374SOL    HW177019   1.712   9.635  11.761
58374SOL    HW277020   1.563   9.613  11.742
58375SOL     OW77021   3.529   5.309   1.487
58375SOL    HW177022   3.548   5.267   1.571
58375SOL    HW277023   3.489   5.393   1.511
58376SOL     OW77024   4.241   9.283   1.733
58376SOL    HW177025   4.229   9.302   1.825
58376SOL    HW277026   4.315   9.222   1.730
58377SOL     OW77027   5.819   7.399   1.908
58377SOL    HW177028   5.736   7.437   1.880
58377SOL    HW277029   5.847   7.346   1.833
58378SOL     OW77030   4.758   3.720  10.819
58378SOL    HW177031   4.806   3.716  10.902
58378SOL    HW277032   4.720   3.632  10.810
58379SOL     OW77033  10.869   5.427   4.361
58379SOL    HW177034  10.809   5.398   4.429
58379SOL    HW277035  10.948   5.374   4.375
58380SOL     OW77036  12.368   7.259   1.491
58380SOL    HW177037  12.450   7.257   1.442
58380SOL    HW277038  12.394   7.290   1.578
58381SOL     OW77039   1.278  10.586   1.788
58381SOL    HW177040   1.370  10.612   1.786
58381SOL    HW277041   1.278  10.505   1.839
58382SOL     OW77042   6.094   4.867   9.894
58382SOL    HW177043   6.094   4.934   9.961
58382SOL    HW277044   6.007   4.874   9.853
58383SOL     OW77045  12.109   7.317   1.458
58383SOL    HW177046  12.075   7.293   1.544
58383SOL    HW277047  12.203   7.299   1.463
58384SOL     OW77048  13.280   0.970   6.693
58384SOL    HW177049  13.239   0.884   6.685
58384SOL    HW277050  13.315   0.988   6.605
58385SOL     OW77051   9.558   1.578  12.199
58385SOL    HW177052   9.633   1.519  12.191
58385SOL    HW277053   9.593   1.656  12.242
58386SOL     OW77054   6.296   6.451   5.963
58386SOL    HW177055   6.305   6.369   5.914
58386SOL    HW277056   6.342   6.435   6.045
58387SOL     OW77057   7.981   5.560   1.956
58387SOL    HW177058   7.994   5.612   1.877
58387SOL    HW277059   7.900   5.511   1.939
58388SOL     OW77060   7.473  11.056   5.362
58388SOL    HW177061   7.538  11.000   5.319
58388SOL    HW277062   7.497  11.054   5.455
58389SOL     OW77063   9.611  11.256  10.995
58389SOL    HW177064   9.632  11.340  10.955
58389SOL    HW277065   9.644  11.263  11.085
58390SOL     OW77066   3.625   9.567   5.887
58390SOL    HW177067   3.617   9.540   5.979
58390SOL    HW277068   3.542   9.610   5.868
58391SOL     OW77069   1.415   6.017   9.803
58391SOL    HW177070   1.358   6.053   9.871
58391SOL    HW277071   1.472   6.090   9.778
58392SOL     OW77072   6.894   4.444   1.380
58392SOL    HW177073   6.983   4.463   1.351
58392SOL    HW277074   6.841   4.452   1.301
58393SOL     OW77075   5.179  12.087  13.039
58393SOL    HW177076   5.176  12.113  12.947
58393SOL    HW277077   5.128  12.006  13.043
58394SOL     OW77078  12.665  10.486  10.326
58394SOL    HW177079  12.724  10.532  10.268
58394SOL    HW277080  12.720  10.457  10.399
58395SOL     OW77081  13.953   7.767   7.628
58395SOL    HW177082  13.908   7.684   7.644
58395SOL    HW277083  13.926   7.823   7.701
58396SOL     OW77084   5.266   9.655  12.567
58396SOL    HW177085   5.321   9.685  12.495
58396SOL    HW277086   5.176   9.673  12.538
58397SOL     OW77087   8.714   1.215   0.074
58397SOL    HW177088   8.638   1.199   0.130
58397SOL    HW277089   8.774   1.265   0.129
58398SOL     OW77090  12.781   5.956   2.875
58398SOL    HW177091  12.760   6.049   2.875
58398SOL    HW277092  12.855   5.949   2.815
58399SOL     OW77093   0.836   2.261  12.488
58399SOL    HW177094   0.808   2.303  12.407
58399SOL    HW277095   0.862   2.173  12.461
58400SOL     OW77096  11.100   2.295   8.868
58400SOL    HW177097  11.118   2.202   8.874
58400SOL    HW277098  11.049   2.305   8.787
58401SOL     OW77099   6.685   9.162   1.961
58401SOL    HW177100   6.741   9.229   1.922
58401SOL    HW277101   6.649   9.203   2.039
58402SOL     OW77102   2.743   7.262   8.945
58402SOL    HW177103   2.793   7.259   8.864
58402SOL    HW277104   2.808   7.277   9.014
58403SOL     OW77105   4.830   8.658  11.070
58403SOL    HW177106   4.888   8.733  11.063
58403SOL    HW277107   4.746   8.689  11.037
58404SOL     OW77108   0.095  14.322   3.482
58404SOL    HW177109   0.101  14.290   3.393
58404SOL    HW277110   0.155  14.267   3.532
58405SOL     OW77111   3.072   2.829  14.619
58405SOL    HW177112   3.130   2.905  14.628
58405SOL    HW277113   3.044   2.831  14.528
58406SOL     OW77114  12.215  12.914  14.623
58406SOL    HW177115  12.223  12.894  14.530
58406SOL    HW277116  12.177  13.002  14.626
58407SOL     OW77117   4.791  14.302   8.558
58407SOL    HW177118   4.770  14.211   8.539
58407SOL    HW277119   4.709  14.341   8.588
58408SOL     OW77120  10.687   3.114   0.561
58408SOL    HW177121  10.693   3.063   0.642
58408SOL    HW277122  10.664   3.202   0.591
58409SOL     OW77123   8.546  14.475  14.030
58409SOL    HW177124   8.450  14.482  14.033
58409SOL    HW277125   8.563  14.382  14.036
58410SOL     OW77126  11.426  13.427  13.882
58410SOL    HW177127  11.492  13.427  13.814
58410SOL    HW277128  11.458  13.489  13.948
58411SOL     OW77129  14.548  13.370  11.952
58411SOL    HW177130  14.527  13.315  11.876
58411SOL    HW277131  14.469  13.367  12.006
58412SOL     OW77132   7.525  12.068   6.758
58412SOL    HW177133   7.524  12.050   6.664
58412SOL    HW277134   7.516  12.163   6.764
58413SOL     OW77135  12.973   0.972   4.511
58413SOL    HW177136  12.950   0.942   4.599
58413SOL    HW277137  13.046   1.033   4.525
58414SOL     OW77138  10.053  11.303   8.486
58414SOL    HW177139  10.105  11.342   8.556
58414SOL    HW277140  10.114  11.294   8.413
58415SOL     OW77141  11.547   6.720   7.752
58415SOL    HW177142  11.454   6.700   7.744
58415SOL    HW277143  11.585   6.644   7.795
58416SOL     OW77144   1.005   4.891   8.025
58416SOL    HW177145   1.044   4.977   8.011
58416SOL    HW277146   1.014   4.846   7.940
58417SOL     OW77147   8.213  12.925  10.693
58417SOL    HW177148   8.250  13.012  10.683
58417SOL    HW277149   8.125  12.940  10.729
58418SOL     OW77150   0.821  13.006  10.868
58418SOL    HW177151   0.769  12.940  10.913
58418SOL    HW277152   0.870  12.958  10.802
58419SOL     OW77153   1.882   7.573  14.319
58419SOL    HW177154   1.846   7.505  14.263
58419SOL    HW277155   1.941   7.526  14.379
58420SOL     OW77156   2.204  12.708   1.489
58420SOL    HW177157   2.175  12.683   1.576
58420SOL    HW277158   2.124  12.728   1.441
58421SOL     OW77159  13.059   8.406   3.357
58421SOL    HW177160  13.093   8.472   3.417
58421SOL    HW277161  13.071   8.445   3.270
58422SOL     OW77162   7.319   1.321  13.777
58422SOL    HW177163   7.289   1.321  13.868
58422SOL    HW277164   7.414   1.311  13.783
58423SOL     OW77165  10.626  12.967   1.066
58423SOL    HW177166  10.635  12.872   1.062
58423SOL    HW277167  10.588  12.984   1.153
58424SOL     OW77168   9.232   3.137   7.509
58424SOL    HW177169   9.208   3.220   7.551
58424SOL    HW277170   9.148   3.097   7.486
58425SOL     OW77171  10.710  13.886   2.503
58425SOL    HW177172  10.755  13.967   2.482
58425SOL    HW277173  10.679  13.853   2.419
58426SOL     OW77174   2.647  13.993   3.869
58426SOL    HW177175   2.677  13.916   3.917
58426SOL    HW277176   2.555  13.973   3.848
58427SOL     OW77177  12.542   7.311   6.426
58427SOL    HW177178  12.461   7.336   6.382
58427SOL    HW277179  12.600   7.284   6.355
58428SOL     OW77180  13.542  14.136   7.226
58428SOL    HW177181  13.544  14.230   7.244
58428SOL    HW277182  13.547  14.129   7.131
58429SOL     OW77183   4.029   9.275   9.101
58429SOL    HW177184   4.123   9.261   9.105
58429SOL    HW277185   4.008   9.316   9.185
58430SOL     OW77186   6.857   3.880  13.708
58430SOL    HW177187   6.830   3.797  13.669
58430SOL    HW277188   6.953   3.875  13.711
58431SOL     OW77189  12.659  11.550  10.289
58431SOL    HW177190  12.608  11.580  10.213
58431SOL    HW277191  12.594  11.513  10.349
58432SOL     OW77192   0.621   0.663   6.641
58432SOL    HW177193   0.616   0.755   6.619
58432SOL    HW277194   0.700   0.632   6.598
58433SOL     OW77195   7.204  12.086   8.015
58433SOL    HW177196   7.241  11.998   8.020
58433SOL    HW277197   7.266  12.141   8.062
58434SOL     OW77198   6.527  10.303  11.057
58434SOL    HW177199   6.566  10.230  11.105
58434SOL    HW277200   6.597  10.368  11.052
58435SOL     OW77201   6.520  13.444   4.276
58435SOL    HW177202   6.530  13.539   4.274
58435SOL    HW277203   6.428  13.430   4.297
58436SOL     OW77204  14.645  11.477   6.022
58436SOL    HW177205  14.703  11.470   5.946
58436SOL    HW277206  14.689  11.424   6.090
58437SOL     OW77207   0.429  11.236   9.000
58437SOL    HW177208   0.475  11.156   8.975
58437SOL    HW277209   0.364  11.206   9.064
58438SOL     OW77210   1.745   1.740   3.952
58438SOL    HW177211   1.651   1.751   3.937
58438SOL    HW277212   1.786   1.810   3.902
58439SOL     OW77213  10.721   4.838   4.674
58439SOL    HW177214  10.665   4.802   4.606
58439SOL    HW277215  10.661   4.885   4.732
58440SOL     OW77216   8.914  10.391   9.305
58440SOL    HW177217   8.877  10.446   9.236
58440SOL    HW277218   8.952  10.316   9.259
58441SOL     OW77219   9.352   5.544  13.000
58441SOL    HW177220   9.282   5.479  12.992
58441SOL    HW277221   9.351   5.569  13.092
58442SOL     OW77222   1.813   4.368   3.054
58442SOL    HW177223   1.725   4.405   3.055
58442SOL    HW277224   1.815   4.309   3.129
58443SOL     OW77225  11.221  12.361   0.704
58443SOL    HW177226  11.160  12.296   0.740
58443SOL    HW277227  11.305  12.315   0.701
58444SOL     OW77228  13.058   0.260   5.660
58444SOL    HW177229  13.013   0.180   5.633
58444SOL    HW277230  13.092   0.297   5.579
58445SOL     OW77231  12.709  12.266   0.628
58445SOL    HW177232  12.668  12.351   0.611
58445SOL    HW277233  12.658  12.203   0.577
58446SOL     OW77234   4.102   1.962   3.337
58446SOL    HW177235   4.109   1.952   3.242
58446SOL    HW277236   4.049   1.887   3.364
58447SOL     OW77237   3.136  14.126   4.683
58447SOL    HW177238   3.055  14.177   4.687
58447SOL    HW277239   3.159  14.108   4.774
58448SOL     OW77240  13.501   7.639   1.438
58448SOL    HW177241  13.490   7.566   1.377
58448SOL    HW277242  13.463   7.608   1.520
58449SOL     OW77243   6.039   2.516  12.478
58449SOL    HW177244   6.023   2.471  12.561
58449SOL    HW277245   6.132   2.538  12.480
58450SOL     OW77246  14.832  12.361   1.709
58450SOL    HW177247  14.776  12.347   1.633
58450SOL    HW277248  14.774  12.401   1.774
58451SOL     OW77249   9.976   0.927   9.835
58451SOL    HW177250  10.004   1.019   9.830
58451SOL    HW277251   9.975   0.898   9.744
58452SOL     OW77252   4.692   6.611  10.600
58452SOL    HW177253   4.741   6.560  10.534
58452SOL    HW277254   4.676   6.549  10.671
58453SOL     OW77255   0.248  13.513   6.671
58453SOL    HW177256   0.203  13.428   6.669
58453SOL    HW277257   0.337  13.494   6.641
58454SOL     OW77258  12.393   1.376  12.754
58454SOL    HW177259  12.471   1.423  12.782
58454SOL    HW277260  12.426   1.302  12.703
58455SOL     OW77261   8.236   1.976   0.748
58455SOL    HW177262   8.173   1.928   0.694
58455SOL    HW277263   8.272   2.042   0.689
58456SOL     OW77264   5.271   2.238   9.727
58456SOL    HW177265   5.364   2.259   9.724
58456SOL    HW277266   5.263   2.172   9.796
58457SOL     OW77267  10.752   2.097   0.356
58457SOL    HW177268  10.688   2.036   0.320
58457SOL    HW277269  10.806   2.043   0.414
58458SOL     OW77270   8.026  14.502  11.075
58458SOL    HW177271   7.997  14.566  11.140
58458SOL    HW277272   8.115  14.528  11.054
58459SOL     OW77273   2.960   0.438  10.562
58459SOL    HW177274   2.940   0.431  10.655
58459SOL    HW277275   2.910   0.514  10.532
58460SOL     OW77276  12.187  12.003   9.018
58460SOL    HW177277  12.256  12.044   8.966
58460SOL    HW277278  12.229  11.982   9.101
58461SOL     OW77279  13.461   9.971   9.847
58461SOL    HW177280  13.498   9.907   9.786
58461SOL    HW277281  13.430   9.920   9.921
58462SOL     OW77282   6.907   4.621   9.743
58462SOL    HW177283   6.817   4.621   9.711
58462SOL    HW277284   6.930   4.529   9.753
58463SOL     OW77285   0.245   7.127   1.438
58463SOL    HW177286   0.299   7.053   1.410
58463SOL    HW277287   0.293   7.204   1.409
58464SOL     OW77288   8.365   6.390   9.532
58464SOL    HW177289   8.420   6.431   9.465
58464SOL    HW277290   8.304   6.458   9.559
58465SOL     OW77291   1.959  13.961   8.187
58465SOL    HW177292   1.887  13.913   8.145
58465SOL    HW277293   2.014  13.989   8.114
58466SOL     OW77294  12.199   7.335  10.519
58466SOL    HW177295  12.253   7.368  10.591
58466SOL    HW277296  12.129   7.286  10.562
58467SOL     OW77297   7.516  14.093   4.394
58467SOL    HW177298   7.584  14.090   4.326
58467SOL    HW277299   7.433  14.087   4.346
58468SOL     OW77300  11.512  12.697   8.892
58468SOL    HW177301  11.451  12.625   8.907
58468SOL    HW277302  11.464  12.760   8.839
58469SOL     OW77303   6.904  11.402   8.655
58469SOL    HW177304   6.816  11.438   8.647
58469SOL    HW277305   6.920  11.396   8.749
58470SOL     OW77306  10.020  10.008   1.032
58470SOL    HW177307  10.068   9.939   1.078
58470SOL    HW277308   9.934   9.971   1.016
58471SOL     OW77309   5.701   5.500   6.991
58471SOL    HW177310   5.706   5.594   7.010
58471SOL    HW277311   5.608   5.482   6.983
58472SOL     OW77312  12.114   4.737   1.307
58472SOL    HW177313  12.197   4.729   1.259
58472SOL    HW277314  12.136   4.707   1.396
58473SOL     OW77315   0.950  12.272   5.194
58473SOL    HW177316   1.018  12.205   5.193
58473SOL    HW277317   0.868  12.223   5.199
58474SOL     OW77318   1.915  11.647   0.865
58474SOL    HW177319   1.886  11.729   0.905
58474SOL    HW277320   2.006  11.663   0.841
58475SOL     OW77321   6.434   9.077   3.800
58475SOL    HW177322   6.500   9.043   3.861
58475SOL    HW277323   6.395   9.151   3.847
58476SOL     OW77324  10.206   6.809   6.191
58476SOL    HW177325  10.193   6.883   6.132
58476SOL    HW277326  10.120   6.794   6.230
58477SOL     OW77327  14.478   8.775  11.203
58477SOL    HW177328  14.548   8.758  11.141
58477SOL    HW277329  14.452   8.689  11.235
58478SOL     OW77330  11.714   6.276  12.380
58478SOL    HW177331  11.723   6.369  12.359
58478SOL    HW277332  11.627   6.269  12.419
58479SOL     OW77333   2.619   5.144  12.509
58479SOL    HW177334   2.547   5.086  12.487
58479SOL    HW277335   2.577   5.224  12.541
58480SOL     OW77336   4.771   9.212   1.590
58480SOL    HW177337   4.826   9.276   1.546
58480SOL    HW277338   4.832   9.158   1.641
58481SOL     OW77339  10.679   6.816   1.219
58481SOL    HW177340  10.631   6.842   1.298
58481SOL    HW277341  10.771   6.819   1.244
58482SOL     OW77342   0.760   1.558   6.763
58482SOL    HW177343   0.732   1.647   6.744
58482SOL    HW277344   0.853   1.556   6.740
58483SOL     OW77345   6.528   8.764   1.774
58483SOL    HW177346   6.600   8.784   1.715
58483SOL    HW277347   6.568   8.766   1.861
58484SOL     OW77348  12.802  13.362  14.179
58484SOL    HW177349  12.868  13.293  14.167
58484SOL    HW277350  12.822  13.427  14.111
58485SOL     OW77351   9.084  12.448   7.562
58485SOL    HW177352   9.007  12.488   7.521
58485SOL    HW277353   9.159  12.495   7.525
58486SOL     OW77354   0.508  14.324  11.600
58486SOL    HW177355   0.499  14.419  11.593
58486SOL    HW277356   0.423  14.290  11.571
58487SOL     OW77357   2.560   8.180   5.562
58487SOL    HW177358   2.545   8.274   5.554
58487SOL    HW277359   2.480   8.147   5.603
58488SOL     OW77360   6.186   1.033  12.012
58488SOL    HW177361   6.152   0.968  11.950
58488SOL    HW277362   6.111   1.052  12.069
58489SOL     OW77363   0.570   7.278   1.308
58489SOL    HW177364   0.522   7.360   1.305
58489SOL    HW277365   0.652   7.300   1.353
58490SOL     OW77366   7.351   5.141   9.110
58490SOL    HW177367   7.376   5.094   9.031
58490SOL    HW277368   7.263   5.109   9.130
58491SOL     OW77369   4.173  10.323  10.160
58491SOL    HW177370   4.133  10.256  10.105
58491SOL    HW277371   4.186  10.398  10.102
58492SOL     OW77372   8.603   9.826   1.926
58492SOL    HW177373   8.537   9.849   1.861
58492SOL    HW277374   8.562   9.844   2.011
58493SOL     OW77375   6.221   9.448  12.419
58493SOL    HW177376   6.235   9.534  12.381
58493SOL    HW277377   6.136   9.455  12.463
58494SOL     OW77378   5.313   3.286  13.842
58494SOL    HW177379   5.226   3.313  13.812
58494SOL    HW277380   5.368   3.363  13.829
58495SOL     OW77381  14.212   0.272   9.449
58495SOL    HW177382  14.139   0.223   9.485
58495SOL    HW277383  14.287   0.246   9.502
58496SOL     OW77384   3.764   7.013   8.080
58496SOL    HW177385   3.748   7.014   7.985
58496SOL    HW277386   3.857   6.990   8.088
58497SOL     OW77387   1.206   9.322  12.370
58497SOL    HW177388   1.192   9.398  12.428
58497SOL    HW277389   1.162   9.346  12.289
58498SOL     OW77390  10.969   8.409  10.886
58498SOL    HW177391  11.059   8.435  10.903
58498SOL    HW277392  10.941   8.466  10.814
58499SOL     OW77393   9.437   7.773   8.244
58499SOL    HW177394   9.428   7.773   8.149
58499SOL    HW277395   9.506   7.709   8.262
58500SOL     OW77396   0.818   5.875  12.595
58500SOL    HW177397   0.870   5.947  12.558
58500SOL    HW277398   0.856   5.796  12.556
58501SOL     OW77399  13.565   2.239   5.601
58501SOL    HW177400  13.532   2.210   5.515
58501SOL    HW277401  13.539   2.331   5.606
58502SOL     OW77402  13.922  10.937  10.782
58502SOL    HW177403  13.946  10.882  10.857
58502SOL    HW277404  13.890  11.018  10.821
58503SOL     OW77405  14.524   7.156  11.832
58503SOL    HW177406  14.557   7.070  11.805
58503SOL    HW277407  14.531   7.210  11.753
58504SOL     OW77408   3.984   5.139   9.343
58504SOL    HW177409   3.930   5.180   9.275
58504SOL    HW277410   4.011   5.212   9.399
58505SOL     OW77411   4.842   5.769   6.750
58505SOL    HW177412   4.828   5.857   6.787
58505SOL    HW277413   4.868   5.785   6.659
58506SOL     OW77414   4.329  10.779   9.214
58506SOL    HW177415   4.375  10.696   9.206
58506SOL    HW277416   4.241  10.761   9.179
58507SOL     OW77417   3.384   1.762  13.644
58507SOL    HW177418   3.453   1.742  13.708
58507SOL    HW277419   3.347   1.677  13.622
58508SOL     OW77420  10.958   6.370   7.569
58508SOL    HW177421  10.901   6.443   7.593
58508SOL    HW277422  11.016   6.358   7.644
58509SOL     OW77423   3.940   6.603   0.482
58509SOL    HW177424   3.984   6.522   0.508
58509SOL    HW277425   3.914   6.588   0.391
58510SOL     OW77426   4.989   1.459   5.058
58510SOL    HW177427   4.976   1.528   4.993
58510SOL    HW277428   4.914   1.401   5.046
58511SOL     OW77429   9.777   7.738   1.782
58511SOL    HW177430   9.785   7.729   1.687
58511SOL    HW277431   9.728   7.660   1.810
58512SOL     OW77432  12.587   8.119  13.313
58512SOL    HW177433  12.651   8.054  13.287
58512SOL    HW277434  12.617   8.200  13.272
58513SOL     OW77435   2.053   1.738  13.894
58513SOL    HW177436   2.055   1.643  13.889
58513SOL    HW277437   1.988   1.758  13.961
58514SOL     OW77438  10.261  11.058   5.765
58514SOL    HW177439  10.334  11.025   5.817
58514SOL    HW277440  10.259  11.002   5.688
58515SOL     OW77441   3.001  13.814  11.884
58515SOL    HW177442   3.036  13.859  11.807
58515SOL    HW277443   3.071  13.821  11.949
58516SOL     OW77444   9.275   6.884  13.838
58516SOL    HW177445   9.182   6.885  13.815
58516SOL    HW277446   9.302   6.793  13.823
58517SOL     OW77447  14.223  14.566  14.311
58517SOL    HW177448  14.268  14.640  14.270
58517SOL    HW277449  14.144  14.605  14.348
58518SOL     OW77450  12.325   3.343   8.967
58518SOL    HW177451  12.398   3.281   8.968
58518SOL    HW277452  12.250   3.291   8.938
58519SOL     OW77453   1.941  14.124   1.771
58519SOL    HW177454   2.026  14.162   1.747
58519SOL    HW277455   1.915  14.173   1.849
58520SOL     OW77456   0.102   8.637  11.077
58520SOL    HW177457   0.149   8.558  11.051
58520SOL    HW277458   0.153   8.708  11.040
58521SOL     OW77459   7.539   2.399   8.327
58521SOL    HW177460   7.481   2.441   8.264
58521SOL    HW277461   7.537   2.306   8.304
58522SOL     OW77462  11.068   0.448  13.967
58522SOL    HW177463  11.154   0.454  13.927
58522SOL    HW277464  11.083   0.465  14.060
58523SOL     OW77465   8.023   6.695   2.573
58523SOL    HW177466   7.949   6.756   2.579
58523SOL    HW277467   8.058   6.691   2.662
58524SOL     OW77468   9.840   3.814   5.794
58524SOL    HW177469   9.922   3.767   5.808
58524SOL    HW277470   9.809   3.784   5.709
58525SOL     OW77471  13.070   9.923   8.589
58525SOL    HW177472  13.136   9.872   8.543
58525SOL    HW277473  13.011   9.953   8.519
58526SOL     OW77474  14.775   9.418   5.028
58526SOL    HW177475  14.795   9.377   5.112
58526SOL    HW277476  14.708   9.363   4.989
58527SOL     OW77477  14.631   5.631   3.107
58527SOL    HW177478  14.660   5.567   3.172
58527SOL    HW277479  14.596   5.579   3.036
58528SOL     OW77480   7.547   2.544   7.242
58528SOL    HW177481   7.533   2.450   7.252
58528SOL    HW277482   7.640   2.554   7.224
58529SOL     OW77483  10.622  10.402  11.754
58529SOL    HW177484  10.537  10.382  11.793
58529SOL    HW277485  10.631  10.339  11.683
58530SOL     OW77486   9.591  11.348   1.440
58530SOL    HW177487   9.646  11.343   1.362
58530SOL    HW277488   9.537  11.269   1.437
58531SOL     OW77489  11.419  13.570  10.159
58531SOL    HW177490  11.434  13.573  10.065
58531SOL    HW277491  11.430  13.478  10.183
58532SOL     OW77492   2.587   6.528  10.519
58532SOL    HW177493   2.636   6.602  10.556
58532SOL    HW277494   2.523   6.569  10.460
58533SOL     OW77495   5.320   5.969   6.288
58533SOL    HW177496   5.330   5.936   6.199
58533SOL    HW277497   5.409   5.972   6.322
58534SOL     OW77498   7.278   3.906   3.173
58534SOL    HW177499   7.212   3.969   3.200
58534SOL    HW277500   7.238   3.856   3.102
58535SOL     OW77501   7.354  12.634   5.647
58535SOL    HW177502   7.427  12.689   5.619
58535SOL    HW277503   7.345  12.651   5.741
58536SOL     OW77504   0.963   7.636   1.418
58536SOL    HW177505   1.028   7.591   1.364
58536SOL    HW277506   1.007   7.715   1.449
58537SOL     OW77507   4.867   0.114  10.698
58537SOL    HW177508   4.932   0.066  10.749
58537SOL    HW277509   4.892   0.100  10.607
58538SOL     OW77510  12.824   4.806   0.897
58538SOL    HW177511  12.919   4.816   0.901
58538SOL    HW277512  12.809   4.713   0.918
58539SOL     OW77513   1.828   7.363   9.665
58539SOL    HW177514   1.846   7.280   9.709
58539SOL    HW277515   1.850   7.346   9.573
58540SOL     OW77516   6.960   0.686  12.071
58540SOL    HW177517   7.005   0.602  12.067
58540SOL    HW277518   6.880   0.668  12.121
58541SOL     OW77519   9.432  11.523   5.329
58541SOL    HW177520   9.524  11.502   5.345
58541SOL    HW277521   9.411  11.476   5.248
58542SOL     OW77522  11.727  10.866   3.719
58542SOL    HW177523  11.798  10.842   3.779
58542SOL    HW277524  11.649  10.826   3.756
58543SOL     OW77525  11.952   8.986  12.491
58543SOL    HW177526  11.924   8.998  12.582
58543SOL    HW277527  12.043   9.016  12.489
58544SOL     OW77528   0.686   5.126  10.626
58544SOL    HW177529   0.618   5.065  10.655
58544SOL    HW277530   0.751   5.070  10.583
58545SOL     OW77531  10.972   0.608   3.743
58545SOL    HW177532  11.054   0.576   3.779
58545SOL    HW277533  10.906   0.588   3.809
58546SOL     OW77534   2.211   5.141   2.002
58546SOL    HW177535   2.236   5.074   1.939
58546SOL    HW277536   2.156   5.096   2.066
58547SOL     OW77537   9.271   0.895   5.809
58547SOL    HW177538   9.256   0.903   5.903
58547SOL    HW277539   9.348   0.838   5.802
58548SOL     OW77540   5.123   8.376   9.550
58548SOL    HW177541   5.074   8.316   9.606
58548SOL    HW277542   5.059   8.442   9.524
58549SOL     OW77543  14.206   5.070   0.773
58549SOL    HW177544  14.286   5.051   0.723
58549SOL    HW277545  14.186   5.161   0.752
58550SOL     OW77546   4.322   8.324   0.902
58550SOL    HW177547   4.323   8.364   0.815
58550SOL    HW277548   4.389   8.371   0.952
58551SOL     OW77549   9.849   0.579   2.483
58551SOL    HW177550   9.938   0.615   2.477
58551SOL    HW277551   9.810   0.597   2.398
58552SOL     OW77552   0.337   5.065   9.296
58552SOL    HW177553   0.369   4.998   9.356
58552SOL    HW277554   0.285   5.017   9.232
58553SOL     OW77555   6.116  11.698   6.840
58553SOL    HW177556   6.125  11.734   6.752
58553SOL    HW277557   6.127  11.604   6.828
58554SOL     OW77558  13.156   6.749   9.822
58554SOL    HW177559  13.110   6.820   9.777
58554SOL    HW277560  13.132   6.760   9.914
58555SOL     OW77561   0.640   4.787  14.489
58555SOL    HW177562   0.602   4.752  14.569
58555SOL    HW277563   0.565   4.804  14.432
58556SOL     OW77564   5.387   7.433   7.164
58556SOL    HW177565   5.309   7.454   7.111
58556SOL    HW277566   5.374   7.482   7.245
58557SOL     OW77567  11.992  14.041   2.321
58557SOL    HW177568  12.049  14.020   2.394
58557SOL    HW277569  11.968  13.957   2.283
58558SOL     OW77570   0.731   7.254   5.980
58558SOL    HW177571   0.719   7.223   5.891
58558SOL    HW277572   0.760   7.345   5.970
58559SOL     OW77573  11.754  13.235   6.084
58559SOL    HW177574  11.665  13.200   6.086
58559SOL    HW277575  11.742  13.329   6.070
58560SOL     OW77576   6.946  11.793   2.194
58560SOL    HW177577   7.021  11.852   2.199
58560SOL    HW277578   6.889  11.820   2.266
58561SOL     OW77579  14.372   3.082   7.089
58561SOL    HW177580  14.424   3.038   7.157
58561SOL    HW277581  14.433   3.142   7.047
58562SOL     OW77582   4.379   0.869   4.257
58562SOL    HW177583   4.312   0.912   4.310
58562SOL    HW277584   4.418   0.804   4.316
58563SOL     OW77585   6.237   7.116  14.370
58563SOL    HW177586   6.223   7.100  14.277
58563SOL    HW277587   6.330   7.138  14.377
58564SOL     OW77588  12.409   3.046   3.034
58564SOL    HW177589  12.415   2.983   3.105
58564SOL    HW277590  12.408   2.992   2.954
58565SOL     OW77591  10.913   8.753   7.220
58565SOL    HW177592  10.859   8.745   7.299
58565SOL    HW277593  10.857   8.800   7.158
58566SOL     OW77594   3.035  11.428  12.735
58566SOL    HW177595   2.975  11.393  12.669
58566SOL    HW277596   2.983  11.494  12.781
58567SOL     OW77597   5.811  12.654   8.108
58567SOL    HW177598   5.721  12.667   8.139
58567SOL    HW277599   5.823  12.722   8.042
58568SOL     OW77600  13.436  12.882  14.538
58568SOL    HW177601  13.391  12.798  14.536
58568SOL    HW277602  13.389  12.936  14.475
58569SOL     OW77603   7.301  14.556   8.411
58569SOL    HW177604   7.321  14.532   8.320
58569SOL    HW277605   7.334  14.483   8.463
58570SOL     OW77606  13.855   4.258  11.713
58570SOL    HW177607  13.875   4.290  11.626
58570SOL    HW277608  13.913   4.183  11.725
58571SOL     OW77609   4.025   8.513  13.610
58571SOL    HW177610   4.060   8.562  13.685
58571SOL    HW277611   4.025   8.421  13.640
58572SOL     OW77612   6.999   2.671   0.338
58572SOL    HW177613   7.033   2.679   0.427
58572SOL    HW277614   6.928   2.608   0.345
58573SOL     OW77615   8.574  14.208   9.361
58573SOL    HW177616   8.663  14.243   9.349
58573SOL    HW277617   8.555  14.163   9.279
58574SOL     OW77618   2.081   6.196  12.923
58574SOL    HW177619   2.062   6.290  12.935
58574SOL    HW277620   2.067   6.181  12.830
58575SOL     OW77621   0.193   3.943  14.217
58575SOL    HW177622   0.282   3.927  14.188
58575SOL    HW277623   0.174   4.032  14.190
58576SOL     OW77624   4.548   5.536   0.091
58576SOL    HW177625   4.596   5.483   0.155
58576SOL    HW277626   4.613   5.558   0.025
58577SOL     OW77627   1.885   5.461   6.060
58577SOL    HW177628   1.899   5.393   6.126
58577SOL    HW277629   1.965   5.459   6.007
58578SOL     OW77630   6.290   9.321  11.334
58578SOL    HW177631   6.265   9.358  11.419
58578SOL    HW277632   6.371   9.274  11.352
58579SOL     OW77633   1.871   6.969  10.784
58579SOL    HW177634   1.937   6.900  10.777
58579SOL    HW277635   1.801   6.941  10.725
58580SOL     OW77636   4.342   4.555  11.894
58580SOL    HW177637   4.421   4.552  11.841
58580SOL    HW277638   4.270   4.559  11.831
58581SOL     OW77639  13.475  14.422   8.404
58581SOL    HW177640  13.411  14.433   8.475
58581SOL    HW277641  13.528  14.348   8.433
58582SOL     OW77642   6.038   5.742   0.706
58582SOL    HW177643   6.088   5.661   0.696
58582SOL    HW277644   6.076   5.802   0.643
58583SOL     OW77645   7.747   9.335   0.463
58583SOL    HW177646   7.813   9.390   0.420
58583SOL    HW277647   7.677   9.396   0.486
58584SOL     OW77648   1.804  12.934   2.864
58584SOL    HW177649   1.878  12.994   2.870
58584SOL    HW277650   1.801  12.890   2.949
58585SOL     OW77651  13.415   6.844   9.920
58585SOL    HW177652  13.352   6.892   9.975
58585SOL    HW277653  13.366   6.768   9.889
58586SOL     OW77654   4.769  12.888   4.535
58586SOL    HW177655   4.812  12.813   4.494
58586SOL    HW277656   4.770  12.957   4.469
58587SOL     OW77657   0.552   2.860  12.110
58587SOL    HW177658   0.533   2.951  12.134
58587SOL    HW277659   0.468   2.824  12.082
58588SOL     OW77660  11.523  13.135  11.670
58588SOL    HW177661  11.487  13.207  11.722
58588SOL    HW277662  11.533  13.172  11.582
58589SOL     OW77663   7.266   1.069   8.973
58589SOL    HW177664   7.235   1.011   8.903
58589SOL    HW277665   7.346   1.108   8.938
58590SOL     OW77666  10.428   8.250   0.431
58590SOL    HW177667  10.507   8.215   0.388
58590SOL    HW277668  10.372   8.174   0.443
58591SOL     OW77669  13.866  13.492   8.785
58591SOL    HW177670  13.886  13.583   8.807
58591SOL    HW277671  13.949  13.446   8.799
58592SOL     OW77672   9.881  12.147  13.330
58592SOL    HW177673   9.968  12.139  13.292
58592SOL    HW277674   9.859  12.240  13.321
58593SOL     OW77675   0.302  14.077  14.348
58593SOL    HW177676   0.385  14.123  14.340
58593SOL    HW277677   0.317  13.993  14.305
58594SOL     OW77678   5.228   3.886   8.186
58594SOL    HW177679   5.194   3.796   8.188
58594SOL    HW277680   5.205   3.919   8.100
58595SOL     OW77681   2.490   2.373  13.037
58595SOL    HW177682   2.553   2.377  13.109
58595SOL    HW277683   2.431   2.302  13.061
58596SOL     OW77684  10.530   1.328   5.655
58596SOL    HW177685  10.568   1.408   5.618
58596SOL    HW277686  10.606   1.273   5.675
58597SOL     OW77687   3.150   8.809   7.193
58597SOL    HW177688   3.128   8.717   7.200
58597SOL    HW277689   3.084   8.846   7.135
58598SOL     OW77690   5.413  14.762   1.682
58598SOL    HW177691   5.406  14.718   1.767
58598SOL    HW277692   5.484  14.825   1.694
58599SOL     OW77693   1.390   5.884   3.821
58599SOL    HW177694   1.357   5.795   3.806
58599SOL    HW277695   1.395   5.923   3.733
58600SOL     OW77696  11.488  10.385   2.284
58600SOL    HW177697  11.528  10.472   2.278
58600SOL    HW277698  11.553  10.332   2.330
58601SOL     OW77699  12.793   2.935   9.407
58601SOL    HW177700  12.792   2.910   9.315
58601SOL    HW277701  12.719   2.888   9.446
58602SOL     OW77702   3.800   5.278  10.651
58602SOL    HW177703   3.722   5.245  10.694
58602SOL    HW277704   3.798   5.372  10.666
58603SOL     OW77705  12.782   0.129   6.232
58603SOL    HW177706  12.721   0.059   6.208
58603SOL    HW277707  12.752   0.157   6.318
58604SOL     OW77708   2.711  12.841   3.253
58604SOL    HW177709   2.711  12.833   3.349
58604SOL    HW277710   2.670  12.760   3.223
58605SOL     OW77711   4.915   8.138   5.977
58605SOL    HW177712   4.923   8.087   6.058
58605SOL    HW277713   5.004   8.169   5.960
58606SOL     OW77714   9.807   6.242   9.616
58606SOL    HW177715   9.811   6.147   9.607
58606SOL    HW277716   9.713   6.263   9.610
58607SOL     OW77717  12.157  14.658   3.417
58607SOL    HW177718  12.161  14.609   3.499
58607SOL    HW277719  12.079  14.712   3.425
58608SOL     OW77720   1.244   1.417   9.999
58608SOL    HW177721   1.326   1.378  10.027
58608SOL    HW277722   1.240   1.501  10.044
58609SOL     OW77723   5.100   4.698  11.007
58609SOL    HW177724   5.187   4.661  10.989
58609SOL    HW277725   5.051   4.626  11.047
58610SOL     OW77726  14.801  10.284  10.532
58610SOL    HW177727  14.771  10.307  10.620
58610SOL    HW277728  14.849  10.361  10.502
58611SOL     OW77729   9.149   2.285   8.709
58611SOL    HW177730   9.180   2.373   8.730
58611SOL    HW277731   9.179   2.270   8.619
58612SOL     OW77732  14.683   4.006   6.057
58612SOL    HW177733  14.643   4.043   5.979
58612SOL    HW277734  14.612   4.000   6.120
58613SOL     OW77735   8.042   2.873   4.535
58613SOL    HW177736   8.083   2.920   4.462
58613SOL    HW277737   8.096   2.895   4.610
58614SOL     OW77738   8.070  10.379  14.262
58614SOL    HW177739   7.994  10.414  14.310
58614SOL    HW277740   8.089  10.296  14.306
58615SOL     OW77741   6.836   5.728  11.470
58615SOL    HW177742   6.924   5.754  11.499
58615SOL    HW277743   6.780   5.801  11.496
58616SOL     OW77744  13.889   3.761   8.211
58616SOL    HW177745  13.835   3.779   8.134
58616SOL    HW277746  13.845   3.808   8.282
58617SOL     OW77747  10.347   4.478   7.599
58617SOL    HW177748  10.258   4.449   7.582
58617SOL    HW277749  10.381   4.504   7.513
58618SOL     OW77750  13.201   7.988  11.928
58618SOL    HW177751  13.255   8.063  11.954
58618SOL    HW277752  13.145   8.022  11.859
58619SOL     OW77753   5.866   7.380   4.310
58619SOL    HW177754   5.808   7.364   4.235
58619SOL    HW277755   5.806   7.382   4.385
58620SOL     OW77756  14.173   2.456   7.932
58620SOL    HW177757  14.107   2.504   7.983
58620SOL    HW277758  14.242   2.435   7.995
58621SOL     OW77759  14.752   3.683  13.760
58621SOL    HW177760  14.779   3.722  13.843
58621SOL    HW277761  14.659   3.664  13.770
58622SOL     OW77762   7.377   5.857  13.161
58622SOL    HW177763   7.388   5.926  13.095
58622SOL    HW277764   7.282   5.845  13.168
58623SOL     OW77765   1.072   1.886   2.829
58623SOL    HW177766   1.128   1.890   2.752
58623SOL    HW277767   1.003   1.823   2.806
58624SOL     OW77768   1.013   0.132  12.618
58624SOL    HW177769   1.108   0.126  12.619
58624SOL    HW277770   0.983   0.041  12.622
58625SOL     OW77771  14.302   2.988   1.454
58625SOL    HW177772  14.227   3.048   1.450
58625SOL    HW277773  14.332   2.994   1.545
58626SOL     OW77774  10.340   2.585   2.254
58626SOL    HW177775  10.402   2.653   2.229
58626SOL    HW277776  10.253   2.625   2.242
58627SOL     OW77777  10.540   1.613  13.935
58627SOL    HW177778  10.592   1.622  13.855
58627SOL    HW277779  10.597   1.645  14.005
58628SOL     OW77780  13.306   8.805   2.971
58628SOL    HW177781  13.335   8.896   2.963
58628SOL    HW277782  13.211   8.810   2.968
58629SOL     OW77783  10.547   3.866  12.888
58629SOL    HW177784  10.540   3.846  12.794
58629SOL    HW277785  10.576   3.957  12.891
58630SOL     OW77786   2.621  13.511  10.222
58630SOL    HW177787   2.603  13.568  10.297
58630SOL    HW277788   2.630  13.571  10.148
58631SOL     OW77789  12.739   4.691  11.272
58631SOL    HW177790  12.789   4.769  11.296
58631SOL    HW277791  12.783   4.656  11.195
58632SOL     OW77792  14.567   3.795  11.808
58632SOL    HW177793  14.548   3.706  11.837
58632SOL    HW277794  14.501   3.814  11.741
58633SOL     OW77795   0.871  11.422   9.993
58633SOL    HW177796   0.914  11.341  10.019
58633SOL    HW277797   0.794  11.428  10.050
58634SOL     OW77798  11.429   5.876   4.263
58634SOL    HW177799  11.412   5.783   4.277
58634SOL    HW277800  11.411   5.918   4.347
58635SOL     OW77801  11.166  14.245   2.787
58635SOL    HW177802  11.252  14.275   2.758
58635SOL    HW277803  11.176  14.226   2.880
58636SOL     OW77804  13.767   3.674   3.819
58636SOL    HW177805  13.848   3.643   3.778
58636SOL    HW277806  13.747   3.755   3.774
58637SOL     OW77807   1.080   4.332   8.412
58637SOL    HW177808   1.030   4.412   8.393
58637SOL    HW277809   1.083   4.328   8.507
58638SOL     OW77810  14.274   8.311   2.964
58638SOL    HW177811  14.202   8.260   2.926
58638SOL    HW277812  14.323   8.248   3.017
58639SOL     OW77813   6.153   3.351  13.537
58639SOL    HW177814   6.199   3.423  13.494
58639SOL    HW277815   6.222   3.292  13.566
58640SOL     OW77816   1.776  14.847   3.802
58640SOL    HW177817   1.773   0.071   3.823
58640SOL    HW277818   1.763  14.842   3.708
58641SOL     OW77819   6.521   0.426  10.025
58641SOL    HW177820   6.585   0.468   9.967
58641SOL    HW277821   6.526   0.476  10.106
58642SOL     OW77822   0.531  14.509   3.641
58642SOL    HW177823   0.439  14.510   3.613
58642SOL    HW277824   0.566  14.427   3.605
58643SOL     OW77825  10.315  11.450  10.425
58643SOL    HW177826  10.229  11.423  10.393
58643SOL    HW277827  10.319  11.544  10.408
58644SOL     OW77828  14.323   5.017   1.505
58644SOL    HW177829  14.360   5.068   1.577
58644SOL    HW277830  14.363   4.930   1.515
58645SOL     OW77831  11.964   4.672  14.752
58645SOL    HW177832  11.896   4.730  14.786
58645SOL    HW277833  11.931   4.644  14.667
58646SOL     OW77834  12.688   7.141   8.539
58646SOL    HW177835  12.640   7.132   8.456
58646SOL    HW277836  12.776   7.109   8.518
58647SOL     OW77837   4.363   7.027  14.336
58647SOL    HW177838   4.287   7.058  14.287
58647SOL    HW277839   4.342   7.046  14.427
58648SOL     OW77840   3.003   6.946   7.893
58648SOL    HW177841   3.074   6.899   7.849
58648SOL    HW277842   2.959   6.993   7.823
58649SOL     OW77843   0.981   7.900   8.761
58649SOL    HW177844   0.894   7.878   8.794
58649SOL    HW277845   0.967   7.920   8.669
58650SOL     OW77846   3.816   3.131   0.525
58650SOL    HW177847   3.809   3.045   0.567
58650SOL    HW277848   3.890   3.122   0.465
58651SOL     OW77849  13.761  14.472   9.010
58651SOL    HW177850  13.666  14.456   9.016
58651SOL    HW277851  13.781  14.461   8.918
58652SOL     OW77852  12.494  12.389   5.462
58652SOL    HW177853  12.547  12.321   5.420
58652SOL    HW277854  12.539  12.409   5.544
58653SOL     OW77855   2.817  14.726   1.160
58653SOL    HW177856   2.905  14.749   1.131
58653SOL    HW277857   2.812  14.631   1.149
58654SOL     OW77858  12.109  13.952  13.313
58654SOL    HW177859  12.166  13.893  13.264
58654SOL    HW277860  12.052  13.992  13.248
58655SOL     OW77861   5.089   7.498   2.978
58655SOL    HW177862   5.029   7.571   2.965
58655SOL    HW277863   5.169   7.538   3.011
58656SOL     OW77864   5.207  13.610   3.082
58656SOL    HW177865   5.152  13.688   3.093
58656SOL    HW277866   5.191  13.559   3.162
58657SOL     OW77867   4.898   3.453   2.300
58657SOL    HW177868   4.959   3.527   2.300
58657SOL    HW277869   4.943   3.384   2.348
58658SOL     OW77870   6.918  11.681  14.613
58658SOL    HW177871   6.985  11.723  14.560
58658SOL    HW277872   6.871  11.753  14.655
58659SOL     OW77873   4.580   1.169  13.933
58659SOL    HW177874   4.510   1.204  13.878
58659SOL    HW277875   4.572   1.217  14.015
58660SOL     OW77876  13.567   8.870   8.617
58660SOL    HW177877  13.520   8.860   8.534
58660SOL    HW277878  13.652   8.905   8.593
58661SOL     OW77879  10.125  14.141   3.979
58661SOL    HW177880  10.149  14.049   3.983
58661SOL    HW277881  10.168  14.174   3.900
58662SOL     OW77882  12.908   0.884  13.804
58662SOL    HW177883  12.961   0.837  13.740
58662SOL    HW277884  12.899   0.822  13.877
58663SOL     OW77885   1.656   6.975   4.231
58663SOL    HW177886   1.655   7.069   4.248
58663SOL    HW277887   1.667   6.968   4.136
58664SOL     OW77888   9.263  11.143   6.393
58664SOL    HW177889   9.222  11.154   6.478
58664SOL    HW277890   9.225  11.212   6.338
58665SOL     OW77891   2.064   5.261   9.510
58665SOL    HW177892   2.061   5.189   9.573
58665SOL    HW277893   2.156   5.290   9.512
58666SOL     OW77894   3.641  10.456   5.451
58666SOL    HW177895   3.628  10.542   5.492
58666SOL    HW277896   3.660  10.475   5.360
58667SOL     OW77897  11.700  10.025  13.453
58667SOL    HW177898  11.708   9.966  13.378
58667SOL    HW277899  11.749   9.982  13.523
58668SOL     OW77900  14.701   1.342  13.579
58668SOL    HW177901  14.618   1.372  13.543
58668SOL    HW277902  14.677   1.279  13.647
58669SOL     OW77903   5.354   0.562   5.766
58669SOL    HW177904   5.279   0.511   5.794
58669SOL    HW277905   5.388   0.601   5.847
58670SOL     OW77906   5.786  10.492   8.078
58670SOL    HW177907   5.836  10.534   8.148
58670SOL    HW277908   5.790  10.553   8.005
58671SOL     OW77909  14.084  14.182   1.834
58671SOL    HW177910  14.146  14.113   1.811
58671SOL    HW277911  14.015  14.175   1.767
58672SOL     OW77912   6.197   4.346   6.818
58672SOL    HW177913   6.195   4.438   6.843
58672SOL    HW277914   6.289   4.321   6.825
58673SOL     OW77915   2.776   9.425   1.532
58673SOL    HW177916   2.824   9.501   1.565
58673SOL    HW277917   2.701   9.463   1.485
58674SOL     OW77918   0.163  13.490   2.514
58674SOL    HW177919   0.095  13.495   2.447
58674SOL    HW277920   0.115  13.486   2.596
58675SOL     OW77921   5.080   7.457  11.718
58675SOL    HW177922   5.083   7.523  11.649
58675SOL    HW277923   4.994   7.469  11.759
58676SOL     OW77924   5.544   5.376   1.402
58676SOL    HW177925   5.468   5.387   1.459
58676SOL    HW277926   5.509   5.383   1.314
58677SOL     OW77927   1.814  14.812   2.871
58677SOL    HW177928   1.794  14.728   2.912
58677SOL    HW277929   1.785  14.802   2.780
58678SOL     OW77930  11.707   2.511  11.284
58678SOL    HW177931  11.745   2.598  11.290
58678SOL    HW277932  11.763   2.464  11.222
58679SOL     OW77933   4.853   0.759   4.473
58679SOL    HW177934   4.921   0.748   4.406
58679SOL    HW277935   4.901   0.762   4.556
58680SOL     OW77936  10.865   1.731   4.529
58680SOL    HW177937  10.836   1.652   4.576
58680SOL    HW277938  10.946   1.756   4.572
58681SOL     OW77939   7.217   0.541   5.252
58681SOL    HW177940   7.292   0.489   5.224
58681SOL    HW277941   7.181   0.494   5.327
58682SOL     OW77942  11.020   6.391   2.014
58682SOL    HW177943  10.947   6.450   1.991
58682SOL    HW277944  10.977   6.313   2.049
58683SOL     OW77945  12.670   4.238  14.596
58683SOL    HW177946  12.765   4.239  14.583
58683SOL    HW277947  12.639   4.164  14.543
58684SOL     OW77948  12.032   6.357   5.019
58684SOL    HW177949  12.044   6.451   5.032
58684SOL    HW277950  12.085   6.316   5.088
58685SOL     OW77951  10.805  11.919  10.344
58685SOL    HW177952  10.777  11.972  10.270
58685SOL    HW277953  10.742  11.847  10.348
58686SOL     OW77954  10.475   6.559   3.059
58686SOL    HW177955  10.494   6.474   3.099
58686SOL    HW277956  10.380   6.562   3.052
58687SOL     OW77957   8.093   9.855   1.406
58687SOL    HW177958   8.055   9.784   1.458
58687SOL    HW277959   8.188   9.848   1.422
58688SOL     OW77960  11.640  14.799  13.360
58688SOL    HW177961  11.721  14.782  13.311
58688SOL    HW277962  11.577  14.736  13.324
58689SOL     OW77963   2.985  13.605   1.902
58689SOL    HW177964   2.994  13.521   1.859
58689SOL    HW277965   3.020  13.668   1.839
58690SOL     OW77966  10.200   1.156  14.640
58690SOL    HW177967  10.115   1.202  14.641
58690SOL    HW277968  10.197   1.101  14.562
58691SOL     OW77969   1.855   6.002   3.993
58691SOL    HW177970   1.931   5.984   3.937
58691SOL    HW277971   1.781   5.964   3.945
58692SOL     OW77972   6.442   4.324   2.765
58692SOL    HW177973   6.509   4.308   2.699
58692SOL    HW277974   6.455   4.415   2.792
58693SOL     OW77975   4.608   7.805   6.670
58693SOL    HW177976   4.629   7.876   6.610
58693SOL    HW277977   4.553   7.846   6.737
58694SOL     OW77978   8.279   9.378   9.450
58694SOL    HW177979   8.189   9.353   9.429
58694SOL    HW277980   8.310   9.423   9.372
58695SOL     OW77981   9.998   4.466  13.636
58695SOL    HW177982  10.033   4.402  13.574
58695SOL    HW277983   9.997   4.548  13.587
58696SOL     OW77984  10.722   5.521  12.033
58696SOL    HW177985  10.647   5.572  12.003
58696SOL    HW277986  10.684   5.447  12.081
58697SOL     OW77987   1.393   4.636  11.990
58697SOL    HW177988   1.476   4.649  12.035
58697SOL    HW277989   1.403   4.553  11.944
58698SOL     OW77990   4.228   6.829  12.287
58698SOL    HW177991   4.252   6.737  12.299
58698SOL    HW277992   4.303   6.869  12.244
58699SOL     OW77993  14.457   1.413   4.800
58699SOL    HW177994  14.535   1.358   4.805
58699SOL    HW277995  14.396   1.374   4.863
58700SOL     OW77996  12.777   9.341   4.930
58700SOL    HW177997  12.779   9.418   4.872
58700SOL    HW277998  12.733   9.373   5.009
58701SOL     OW77999   0.349  10.164  12.311
58701SOL    HW178000   0.429  10.117  12.288
58701SOL    HW278001   0.284  10.094  12.322
58702SOL     OW78002   7.956  10.390  13.972
58702SOL    HW178003   7.997  10.441  14.042
58702SOL    HW278004   8.027  10.338  13.935
58703SOL     OW78005  13.254   9.235  13.012
58703SOL    HW178006  13.229   9.305  12.951
58703SOL    HW278007  13.206   9.158  12.981
58704SOL     OW78008   0.760   0.139   9.793
58704SOL    HW178009   0.830   0.194   9.758
58704SOL    HW278010   0.729   0.185   9.871
58705SOL     OW78011  14.844   4.741   3.085
58705SOL    HW178012   0.021   4.658   3.069
58705SOL    HW278013  14.819   4.771   2.998
58706SOL     OW78014  13.111  14.447   5.139
58706SOL    HW178015  13.168  14.433   5.063
58706SOL    HW278016  13.171  14.466   5.211
58707SOL     OW78017   2.832  13.415   7.129
58707SOL    HW178018   2.826  13.466   7.210
58707SOL    HW278019   2.910  13.449   7.085
58708SOL     OW78020   8.811   4.202  10.781
58708SOL    HW178021   8.830   4.219  10.688
58708SOL    HW278022   8.804   4.289  10.819
58709SOL     OW78023   1.403  13.016   4.703
58709SOL    HW178024   1.339  12.960   4.660
58709SOL    HW278025   1.382  13.104   4.673
58710SOL     OW78026   8.762  11.991   4.505
58710SOL    HW178027   8.681  11.948   4.481
58710SOL    HW278028   8.814  11.991   4.424
58711SOL     OW78029   2.308   0.565   7.569
58711SOL    HW178030   2.385   0.566   7.626
58711SOL    HW278031   2.308   0.478   7.530
58712SOL     OW78032   1.806  13.927   9.144
58712SOL    HW178033   1.747  14.002   9.153
58712SOL    HW278034   1.774  13.880   9.067
58713SOL     OW78035   0.988  10.188  11.679
58713SOL    HW178036   1.045  10.218  11.609
58713SOL    HW278037   1.046  10.141  11.739
58714SOL     OW78038   6.127   7.643   5.506
58714SOL    HW178039   6.165   7.556   5.510
58714SOL    HW278040   6.124   7.664   5.413
58715SOL     OW78041   9.205   3.574  11.666
58715SOL    HW178042   9.280   3.567  11.724
58715SOL    HW278043   9.162   3.489  11.669
58716SOL     OW78044   3.262   0.738   6.835
58716SOL    HW178045   3.333   0.795   6.864
58716SOL    HW278046   3.192   0.799   6.811
58717SOL     OW78047   4.433   0.677   8.943
58717SOL    HW178048   4.523   0.710   8.944
58717SOL    HW278049   4.416   0.650   9.034
58718SOL     OW78050  10.486   1.630   5.032
58718SOL    HW178051  10.562   1.639   4.975
58718SOL    HW278052  10.410   1.642   4.975
58719SOL     OW78053   7.335  14.352   8.591
58719SOL    HW178054   7.404  14.287   8.600
58719SOL    HW278055   7.263  14.319   8.646
58720SOL     OW78056   0.835   3.076   8.577
58720SOL    HW178057   0.841   3.012   8.648
58720SOL    HW278058   0.916   3.066   8.528
58721SOL     OW78059   2.804   3.013  13.124
58721SOL    HW178060   2.864   2.966  13.066
58721SOL    HW278061   2.860   3.051  13.191
58722SOL     OW78062  13.568   2.924   8.780
58722SOL    HW178063  13.655   2.924   8.818
58722SOL    HW278064  13.582   2.928   8.685
58723SOL     OW78065   9.234  10.174   8.293
58723SOL    HW178066   9.183  10.125   8.358
58723SOL    HW278067   9.284  10.107   8.247
58724SOL     OW78068   9.745   1.424   1.588
58724SOL    HW178069   9.723   1.432   1.495
58724SOL    HW278070   9.671   1.378   1.627
58725SOL     OW78071   0.876   0.940   4.306
58725SOL    HW178072   0.853   0.863   4.254
58725SOL    HW278073   0.801   0.954   4.364
58726SOL     OW78074   3.984  10.583   2.494
58726SOL    HW178075   4.068  10.595   2.451
58726SOL    HW278076   3.936  10.524   2.437
58727SOL     OW78077   8.457   7.915  12.957
58727SOL    HW178078   8.459   7.970  13.035
58727SOL    HW278079   8.398   7.843  12.980
58728SOL     OW78080  11.844   6.848   4.153
58728SOL    HW178081  11.892   6.770   4.126
58728SOL    HW278082  11.789   6.869   4.077
58729SOL     OW78083   2.970  11.077   5.054
58729SOL    HW178084   2.940  10.988   5.076
58729SOL    HW278085   2.981  11.120   5.138
58730SOL     OW78086  11.183   2.192  10.205
58730SOL    HW178087  11.215   2.270  10.160
58730SOL    HW278088  11.088   2.203  10.207
58731SOL     OW78089  12.993   6.802  13.798
58731SOL    HW178090  12.930   6.790  13.726
58731SOL    HW278091  12.983   6.723  13.851
58732SOL     OW78092   0.989   9.984  14.475
58732SOL    HW178093   1.038   9.911  14.438
58732SOL    HW278094   0.900   9.971  14.445
58733SOL     OW78095   1.078   2.809  13.459
58733SOL    HW178096   1.049   2.719  13.442
58733SOL    HW278097   1.000   2.863  13.444
58734SOL     OW78098   2.758   2.729   6.426
58734SOL    HW178099   2.680   2.780   6.405
58734SOL    HW278100   2.730   2.638   6.421
58735SOL     OW78101  14.317  11.270   4.657
58735SOL    HW178102  14.294  11.269   4.750
58735SOL    HW278103  14.233  11.268   4.611
58736SOL     OW78104   2.218  12.721  11.156
58736SOL    HW178105   2.176  12.807  11.153
58736SOL    HW278106   2.190  12.678  11.076
58737SOL     OW78107  12.462  14.199  14.394
58737SOL    HW178108  12.544  14.242  14.370
58737SOL    HW278109  12.398  14.230  14.330
58738SOL     OW78110  12.767  10.951   5.530
58738SOL    HW178111  12.674  10.975   5.538
58738SOL    HW278112  12.791  10.981   5.442
58739SOL     OW78113   8.514  11.802  14.736
58739SOL    HW178114   8.590  11.744  14.725
58739SOL    HW278115   8.498  11.836  14.648
58740SOL     OW78116  13.916   7.707  14.415
58740SOL    HW178117  13.951   7.698  14.504
58740SOL    HW278118  13.991   7.689  14.358
58741SOL     OW78119  13.550  11.184   6.174
58741SOL    HW178120  13.632  11.225   6.146
58741SOL    HW278121  13.528  11.124   6.103
58742SOL     OW78122  11.650   3.550   0.972
58742SOL    HW178123  11.684   3.633   0.938
58742SOL    HW278124  11.725   3.510   1.016
58743SOL     OW78125   6.024  10.607   6.242
58743SOL    HW178126   6.027  10.544   6.170
58743SOL    HW278127   5.954  10.668   6.218
58744SOL     OW78128   3.423   7.553   1.684
58744SOL    HW178129   3.418   7.532   1.591
58744SOL    HW278130   3.462   7.641   1.687
58745SOL     OW78131   9.254  14.545   1.651
58745SOL    HW178132   9.266  14.545   1.746
58745SOL    HW278133   9.329  14.496   1.618
58746SOL     OW78134   3.380   0.262  13.380
58746SOL    HW178135   3.330   0.285  13.459
58746SOL    HW278136   3.381   0.166  13.381
58747SOL     OW78137   8.550   2.221   8.343
58747SOL    HW178138   8.581   2.306   8.373
58747SOL    HW278139   8.560   2.164   8.419
58748SOL     OW78140   5.702  12.626   2.468
58748SOL    HW178141   5.660  12.690   2.525
58748SOL    HW278142   5.792  12.621   2.499
58749SOL     OW78143   3.618   4.792   5.264
58749SOL    HW178144   3.611   4.861   5.330
58749SOL    HW278145   3.529   4.758   5.255
58750SOL     OW78146   7.634   1.497   1.409
58750SOL    HW178147   7.722   1.486   1.446
58750SOL    HW278148   7.614   1.589   1.424
58751SOL     OW78149  13.060   2.666  12.431
58751SOL    HW178150  13.012   2.591  12.465
58751SOL    HW278151  13.029   2.741  12.482
58752SOL     OW78152   6.543   4.814   4.020
58752SOL    HW178153   6.453   4.837   4.040
58752SOL    HW278154   6.554   4.725   4.053
58753SOL     OW78155   4.843   7.648   0.802
58753SOL    HW178156   4.759   7.694   0.799
58753SOL    HW278157   4.823   7.557   0.781
58754SOL     OW78158  11.432   0.310   2.049
58754SOL    HW178159  11.415   0.239   2.110
58754SOL    HW278160  11.456   0.384   2.104
58755SOL     OW78161   2.303   3.233  11.868
58755SOL    HW178162   2.306   3.146  11.908
58755SOL    HW278163   2.209   3.250  11.857
58756SOL     OW78164   9.261   4.493   9.043
58756SOL    HW178165   9.350   4.527   9.032
58756SOL    HW278166   9.248   4.489   9.137
58757SOL     OW78167   4.317   2.021   6.599
58757SOL    HW178168   4.404   1.988   6.576
58757SOL    HW278169   4.267   1.943   6.623
58758SOL     OW78170   4.788  11.559   5.035
58758SOL    HW178171   4.775  11.510   5.116
58758SOL    HW278172   4.884  11.563   5.025
58759SOL     OW78173  14.491   9.126  13.691
58759SOL    HW178174  14.405   9.136  13.730
58759SOL    HW278175  14.487   9.044  13.643
58760SOL     OW78176  11.709   6.218   5.627
58760SOL    HW178177  11.718   6.133   5.670
58760SOL    HW278178  11.673   6.198   5.541
58761SOL     OW78179   4.901  11.201   8.262
58761SOL    HW178180   4.829  11.139   8.266
58761SOL    HW278181   4.972  11.159   8.309
58762SOL     OW78182  10.878   6.994   3.731
58762SOL    HW178183  10.847   6.988   3.822
58762SOL    HW278184  10.920   7.080   3.726
58763SOL     OW78185   8.327   3.086  11.913
58763SOL    HW178186   8.345   3.074  12.006
58763SOL    HW278187   8.319   2.998  11.878
58764SOL     OW78188  14.452   5.899   7.516
58764SOL    HW178189  14.398   5.820   7.524
58764SOL    HW278190  14.538   5.872   7.546
58765SOL     OW78191  12.340  13.493  13.692
58765SOL    HW178192  12.426  13.514  13.728
58765SOL    HW278193  12.353  13.489  13.598
58766SOL     OW78194  11.274   4.248   5.837
58766SOL    HW178195  11.366   4.248   5.863
58766SOL    HW278196  11.235   4.320   5.887
58767SOL     OW78197  13.186   4.991  10.567
58767SOL    HW178198  13.117   4.992  10.501
58767SOL    HW278199  13.157   4.926  10.631
58768SOL     OW78200  11.946   6.488  13.375
58768SOL    HW178201  12.005   6.543  13.323
58768SOL    HW278202  11.924   6.541  13.451
58769SOL     OW78203  13.258   8.647   8.448
58769SOL    HW178204  13.309   8.594   8.386
58769SOL    HW278205  13.266   8.736   8.415
58770SOL     OW78206   7.932  10.966  13.691
58770SOL    HW178207   7.918  11.055  13.658
58770SOL    HW278208   8.010  10.972  13.746
58771SOL     OW78209   4.197   0.675   5.724
58771SOL    HW178210   4.248   0.676   5.643
58771SOL    HW278211   4.155   0.761   5.727
58772SOL     OW78212   6.501   3.676   7.654
58772SOL    HW178213   6.481   3.621   7.578
58772SOL    HW278214   6.566   3.738   7.622
58773SOL     OW78215   9.752  11.046   3.889
58773SOL    HW178216   9.826  10.989   3.911
58773SOL    HW278217   9.674  10.992   3.907
58774SOL     OW78218   8.850  13.350   8.918
58774SOL    HW178219   8.879  13.415   8.854
58774SOL    HW278220   8.777  13.305   8.876
58775SOL     OW78221  10.097   2.518  12.104
58775SOL    HW178222  10.089   2.436  12.053
58775SOL    HW278223  10.017   2.566  12.081
58776SOL     OW78224   4.331  12.246  13.604
58776SOL    HW178225   4.418  12.285  13.607
58776SOL    HW278226   4.314  12.219  13.695
58777SOL     OW78227  14.715  11.241   8.830
58777SOL    HW178228  14.755  11.156   8.811
58777SOL    HW278229  14.675  11.268   8.748
58778SOL     OW78230  13.441   6.518   2.616
58778SOL    HW178231  13.438   6.606   2.653
58778SOL    HW278232  13.522   6.516   2.564
58779SOL     OW78233  11.573  12.031   6.350
58779SOL    HW178234  11.516  12.106   6.331
58779SOL    HW278235  11.569  12.022   6.445
58780SOL     OW78236  14.687   8.374   2.014
58780SOL    HW178237  14.714   8.397   2.103
58780SOL    HW278238  14.680   8.279   2.014
58781SOL     OW78239  11.179   6.248   5.447
58781SOL    HW178240  11.159   6.191   5.373
58781SOL    HW278241  11.203   6.332   5.408
58782SOL     OW78242   5.655   6.478   9.300
58782SOL    HW178243   5.675   6.532   9.376
58782SOL    HW278244   5.680   6.390   9.325
58783SOL     OW78245  14.184  11.888  13.756
58783SOL    HW178246  14.258  11.830  13.775
58783SOL    HW278247  14.142  11.848  13.679
58784SOL     OW78248   9.325  12.864  10.496
58784SOL    HW178249   9.247  12.810  10.479
58784SOL    HW278250   9.305  12.908  10.578
58785SOL     OW78251  12.983   8.135   4.367
58785SOL    HW178252  12.926   8.113   4.441
58785SOL    HW278253  13.002   8.228   4.377
58786SOL     OW78254   8.873   2.493   6.276
58786SOL    HW178255   8.810   2.547   6.230
58786SOL    HW278256   8.902   2.547   6.349
58787SOL     OW78257  13.974  13.317   0.455
58787SOL    HW178258  13.933  13.392   0.411
58787SOL    HW278259  13.904  13.253   0.461
58788SOL     OW78260   0.094   4.621   9.219
58788SOL    HW178261   0.039   4.543   9.231
58788SOL    HW278262   0.164   4.610   9.284
58789SOL     OW78263   1.692   6.650  13.294
58789SOL    HW178264   1.677   6.739  13.261
58789SOL    HW278265   1.786   6.637  13.287
58790SOL     OW78266   5.224   6.917   7.701
58790SOL    HW178267   5.161   6.849   7.677
58790SOL    HW278268   5.297   6.904   7.642
58791SOL     OW78269   7.096   2.599   8.113
58791SOL    HW178270   7.127   2.614   8.024
58791SOL    HW278271   7.062   2.684   8.141
58792SOL     OW78272  13.421   0.632   9.428
58792SOL    HW178273  13.424   0.724   9.403
58792SOL    HW278274  13.347   0.596   9.380
58793SOL     OW78275   6.548  14.487   4.161
58793SOL    HW178276   6.501  14.564   4.129
58793SOL    HW278277   6.538  14.423   4.091
58794SOL     OW78278   9.016   0.915   3.263
58794SOL    HW178279   9.078   0.988   3.265
58794SOL    HW278280   9.061   0.847   3.212
58795SOL     OW78281  11.888   8.951   1.087
58795SOL    HW178282  11.873   8.857   1.094
58795SOL    HW278283  11.801   8.988   1.070
58796SOL     OW78284   7.761   4.258   2.532
58796SOL    HW178285   7.758   4.313   2.453
58796SOL    HW278286   7.847   4.216   2.529
58797SOL     OW78287   8.802   9.421   1.645
58797SOL    HW178288   8.742   9.496   1.651
58797SOL    HW278289   8.882   9.457   1.608
58798SOL     OW78290   7.483  10.126   6.148
58798SOL    HW178291   7.454  10.045   6.106
58798SOL    HW278292   7.509  10.100   6.236
58799SOL     OW78293   0.549   0.785  13.899
58799SOL    HW178294   0.490   0.794  13.974
58799SOL    HW278295   0.604   0.710  13.921
58800SOL     OW78296   2.145   4.651   8.406
58800SOL    HW178297   2.194   4.703   8.343
58800SOL    HW278298   2.054   4.663   8.382
58801SOL     OW78299  14.671   7.936   2.442
58801SOL    HW178300  14.654   8.022   2.404
58801SOL    HW278301  14.739   7.952   2.508
58802SOL     OW78302   4.089  11.206   7.898
58802SOL    HW178303   4.039  11.247   7.969
58802SOL    HW278304   4.145  11.142   7.943
58803SOL     OW78305  10.444   7.862   6.823
58803SOL    HW178306  10.361   7.835   6.785
58803SOL    HW278307  10.502   7.873   6.747
58804SOL     OW78308   1.607   9.752   3.473
58804SOL    HW178309   1.632   9.697   3.399
58804SOL    HW278310   1.639   9.705   3.550
58805SOL     OW78311   4.819  14.242  14.571
58805SOL    HW178312   4.821  14.241  14.476
58805SOL    HW278313   4.728  14.267  14.592
58806SOL     OW78314  13.211   3.548   3.128
58806SOL    HW178315  13.155   3.495   3.184
58806SOL    HW278316  13.294   3.555   3.176
58807SOL     OW78317   4.211  10.471  10.382
58807SOL    HW178318   4.195  10.410  10.310
58807SOL    HW278319   4.200  10.418  10.461
58808SOL     OW78320   0.996   5.905   3.784
58808SOL    HW178321   0.987   5.825   3.733
58808SOL    HW278322   0.916   5.910   3.836
58809SOL     OW78323   9.832   4.039   2.879
58809SOL    HW178324   9.903   4.101   2.897
58809SOL    HW278325   9.860   3.959   2.923
58810SOL     OW78326   7.693   0.978   4.973
58810SOL    HW178327   7.769   1.018   5.015
58810SOL    HW278328   7.628   0.972   5.043
58811SOL     OW78329   4.955   8.926  13.221
58811SOL    HW178330   4.937   8.849  13.167
58811SOL    HW278331   5.035   8.903  13.268
58812SOL     OW78332   9.704  11.433  12.584
58812SOL    HW178333   9.648  11.497  12.539
58812SOL    HW278334   9.661  11.419  12.668
58813SOL     OW78335  10.508   5.785  13.370
58813SOL    HW178336  10.452   5.844  13.420
58813SOL    HW278337  10.576   5.758  13.432
58814SOL     OW78338   1.568   2.222   4.932
58814SOL    HW178339   1.607   2.151   4.984
58814SOL    HW278340   1.481   2.233   4.969
58815SOL     OW78341   9.117  12.396  10.729
58815SOL    HW178342   9.142  12.452  10.656
58815SOL    HW278343   9.168  12.428  10.803
58816SOL     OW78344  13.580   1.211   2.545
58816SOL    HW178345  13.545   1.208   2.456
58816SOL    HW278346  13.654   1.151   2.545
58817SOL     OW78347   2.445   9.644   1.633
58817SOL    HW178348   2.448   9.576   1.565
58817SOL    HW278349   2.418   9.598   1.712
58818SOL     OW78350   5.824   6.999   1.422
58818SOL    HW178351   5.883   6.927   1.400
58818SOL    HW278352   5.840   7.064   1.353
58819SOL     OW78353  14.275   4.814  12.107
58819SOL    HW178354  14.362   4.779  12.124
58819SOL    HW278355  14.216   4.758  12.157
58820SOL     OW78356   8.297  14.595   8.145
58820SOL    HW178357   8.239  14.537   8.195
58820SOL    HW278358   8.291  14.679   8.190
58821SOL     OW78359  12.070   6.900   5.898
58821SOL    HW178360  12.061   6.867   5.987
58821SOL    HW278361  11.993   6.867   5.852
58822SOL     OW78362  10.678  14.606   8.127
58822SOL    HW178363  10.640  14.598   8.215
58822SOL    HW278364  10.739  14.679   8.134
58823SOL     OW78365   9.505  12.669   9.060
58823SOL    HW178366   9.558  12.735   9.105
58823SOL    HW278367   9.548  12.658   8.975
58824SOL     OW78368   1.765  14.243  10.036
58824SOL    HW178369   1.817  14.310  10.081
58824SOL    HW278370   1.829  14.179  10.005
58825SOL     OW78371  10.904  11.077   4.470
58825SOL    HW178372  10.902  11.037   4.556
58825SOL    HW278373  10.838  11.146   4.474
58826SOL     OW78374   3.026   2.268   8.290
58826SOL    HW178375   3.069   2.351   8.312
58826SOL    HW278376   3.097   2.208   8.271
58827SOL     OW78377   5.530   1.586  14.755
58827SOL    HW178378   5.451   1.637  14.737
58827SOL    HW278379   5.511   1.539  14.836
58828SOL     OW78380   7.989   6.584  11.991
58828SOL    HW178381   8.080   6.601  11.968
58828SOL    HW278382   7.990   6.569  12.086
58829SOL     OW78383  10.355  12.530  10.666
58829SOL    HW178384  10.322  12.618  10.647
58829SOL    HW278385  10.436  12.545  10.715
58830SOL     OW78386   0.818   7.704   8.155
58830SOL    HW178387   0.873   7.749   8.220
58830SOL    HW278388   0.776   7.775   8.106
58831SOL     OW78389  10.331   6.046   0.938
58831SOL    HW178390  10.397   6.014   0.998
58831SOL    HW278391  10.375   6.114   0.887
58832SOL     OW78392   3.545   2.384  12.426
58832SOL    HW178393   3.557   2.443  12.352
58832SOL    HW278394   3.626   2.391  12.476
58833SOL     OW78395   2.170   0.791  10.441
58833SOL    HW178396   2.239   0.728  10.463
58833SOL    HW278397   2.091   0.756  10.483
58834SOL     OW78398  13.666   6.549   8.156
58834SOL    HW178399  13.589   6.507   8.196
58834SOL    HW278400  13.669   6.513   8.068
58835SOL     OW78401   1.645   4.936   6.375
58835SOL    HW178402   1.598   4.927   6.458
58835SOL    HW278403   1.620   5.023   6.342
58836SOL     OW78404  14.089  12.139   1.593
58836SOL    HW178405  14.141  12.124   1.514
58836SOL    HW278406  13.999  12.126   1.565
58837SOL     OW78407   9.114   9.667   7.054
58837SOL    HW178408   9.197   9.662   7.006
58837SOL    HW278409   9.074   9.749   7.023
58838SOL     OW78410  12.197  11.999  14.685
58838SOL    HW178411  12.178  12.092  14.674
58838SOL    HW278412  12.117  11.955  14.657
58839SOL     OW78413   0.656   8.908   7.834
58839SOL    HW178414   0.654   8.990   7.883
58839SOL    HW278415   0.703   8.848   7.891
58840SOL     OW78416   9.502  10.453   1.148
58840SOL    HW178417   9.562  10.433   1.220
58840SOL    HW278418   9.556  10.499   1.083
58841SOL     OW78419  14.334   6.612   5.615
58841SOL    HW178420  14.403   6.558   5.655
58841SOL    HW278421  14.371   6.700   5.612
58842SOL     OW78422   2.779  13.884   4.488
58842SOL    HW178423   2.803  13.795   4.464
58842SOL    HW278424   2.806  13.892   4.580
58843SOL     OW78425   9.510  11.407   6.391
58843SOL    HW178426   9.424  11.406   6.434
58843SOL    HW278427   9.535  11.500   6.390
58844SOL     OW78428   1.950   0.050  11.788
58844SOL    HW178429   1.966   0.144  11.800
58844SOL    HW278430   2.026   0.008  11.829
58845SOL     OW78431   8.497   8.423  13.810
58845SOL    HW178432   8.446   8.342  13.814
58845SOL    HW278433   8.583   8.398  13.845
58846SOL     OW78434  10.120   3.203  12.944
58846SOL    HW178435  10.063   3.150  13.000
58846SOL    HW278436  10.208   3.179  12.971
58847SOL     OW78437   0.692   5.850   9.698
58847SOL    HW178438   0.720   5.805   9.779
58847SOL    HW278439   0.676   5.940   9.725
58848SOL     OW78440   6.028  10.623   5.810
58848SOL    HW178441   6.017  10.568   5.888
58848SOL    HW278442   5.993  10.709   5.836
58849SOL     OW78443  13.741  14.012   0.062
58849SOL    HW178444  13.836  14.028   0.061
58849SOL    HW278445  13.726  13.963   0.143
58850SOL     OW78446   8.542   5.371  11.682
58850SOL    HW178447   8.573   5.281  11.671
58850SOL    HW278448   8.458   5.362  11.728
58851SOL     OW78449  10.679   2.155   1.794
58851SOL    HW178450  10.622   2.078   1.785
58851SOL    HW278451  10.636   2.222   1.742
58852SOL     OW78452   9.514  14.084   8.963
58852SOL    HW178453   9.572  14.155   8.992
58852SOL    HW278454   9.426  14.113   8.989
58853SOL     OW78455   0.508   6.823  13.741
58853SOL    HW178456   0.427   6.872  13.753
58853SOL    HW278457   0.495   6.743  13.794
58854SOL     OW78458  11.574   4.565   0.472
58854SOL    HW178459  11.485   4.529   0.468
58854SOL    HW278460  11.607   4.557   0.382
58855SOL     OW78461   8.754   3.027   0.470
58855SOL    HW178462   8.815   3.097   0.493
58855SOL    HW278463   8.784   2.996   0.385
58856SOL     OW78464   8.450  14.684  10.842
58856SOL    HW178465   8.443  14.594  10.812
58856SOL    HW278466   8.375  14.728  10.802
58857SOL     OW78467  10.709   2.195  10.962
58857SOL    HW178468  10.619   2.186  10.929
58857SOL    HW278469  10.755   2.119  10.926
58858SOL     OW78470   2.597   6.475  14.182
58858SOL    HW178471   2.547   6.547  14.220
58858SOL    HW278472   2.610   6.414  14.256
58859SOL     OW78473   4.228  14.462  11.149
58859SOL    HW178474   4.307  14.499  11.188
58859SOL    HW278475   4.182  14.537  11.113
58860SOL     OW78476   1.722   2.327  13.477
58860SOL    HW178477   1.652   2.264  13.455
58860SOL    HW278478   1.802   2.284  13.449
58861SOL     OW78479  13.736   8.092   3.415
58861SOL    HW178480  13.706   8.003   3.399
58861SOL    HW278481  13.732   8.134   3.329
58862SOL     OW78482   2.681   2.952  12.190
58862SOL    HW178483   2.674   2.869  12.237
58862SOL    HW278484   2.687   3.019  12.258
58863SOL     OW78485  10.718   5.440  10.130
58863SOL    HW178486  10.741   5.430  10.037
58863SOL    HW278487  10.751   5.360  10.171
58864SOL     OW78488  11.304   8.320   6.524
58864SOL    HW178489  11.312   8.286   6.434
58864SOL    HW278490  11.391   8.355   6.543
58865SOL     OW78491   3.052  10.052   4.307
58865SOL    HW178492   2.962  10.084   4.306
58865SOL    HW278493   3.097  10.106   4.243
58866SOL     OW78494   2.556   0.720  13.079
58866SOL    HW178495   2.527   0.796  13.029
58866SOL    HW278496   2.647   0.740  13.103
58867SOL     OW78497   8.968   0.282   8.815
58867SOL    HW178498   9.014   0.351   8.767
58867SOL    HW278499   8.967   0.207   8.755
58868SOL     OW78500   2.606   8.585   1.527
58868SOL    HW178501   2.593   8.502   1.482
58868SOL    HW278502   2.607   8.563   1.620
58869SOL     OW78503   0.303   7.753  11.487
58869SOL    HW178504   0.250   7.760  11.566
58869SOL    HW278505   0.333   7.842  11.471
58870SOL     OW78506   8.258  10.008   4.445
58870SOL    HW178507   8.200   9.937   4.472
58870SOL    HW278508   8.199  10.080   4.424
58871SOL     OW78509  14.680   4.549   8.312
58871SOL    HW178510  14.737   4.623   8.289
58871SOL    HW278511  14.738   4.473   8.309
58872SOL     OW78512  12.762  13.229  13.775
58872SOL    HW178513  12.832  13.274  13.729
58872SOL    HW278514  12.806  13.161  13.826
58873SOL     OW78515  10.320  14.607  12.179
58873SOL    HW178516  10.348  14.690  12.142
58873SOL    HW278517  10.302  14.626  12.271
58874SOL     OW78518   1.690  11.201   4.040
58874SOL    HW178519   1.600  11.186   4.067
58874SOL    HW278520   1.731  11.244   4.115
58875SOL     OW78521   9.727   2.201   6.827
58875SOL    HW178522   9.719   2.264   6.755
58875SOL    HW278523   9.783   2.246   6.891
58876SOL     OW78524  13.362   6.822  12.737
58876SOL    HW178525  13.345   6.817  12.643
58876SOL    HW278526  13.413   6.902  12.749
58877SOL     OW78527   2.159  12.056   3.529
58877SOL    HW178528   2.107  12.010   3.463
58877SOL    HW278529   2.095  12.086   3.593
58878SOL     OW78530  13.793   6.122   0.258
58878SOL    HW178531  13.869   6.127   0.200
58878SOL    HW278532  13.761   6.032   0.246
58879SOL     OW78533   1.259   3.523  11.101
58879SOL    HW178534   1.228   3.539  11.190
58879SOL    HW278535   1.180   3.508  11.050
58880SOL     OW78536   9.926   4.152   4.408
58880SOL    HW178537   9.873   4.156   4.488
58880SOL    HW278538  10.007   4.109   4.435
58881SOL     OW78539  11.772   4.869  13.720
58881SOL    HW178540  11.769   4.774  13.717
58881SOL    HW278541  11.689   4.895  13.761
58882SOL     OW78542  10.520   6.710  11.788
58882SOL    HW178543  10.462   6.667  11.725
58882SOL    HW278544  10.566   6.776  11.737
58883SOL     OW78545   6.452   3.403  13.210
58883SOL    HW178546   6.424   3.449  13.131
58883SOL    HW278547   6.465   3.312  13.181
58884SOL     OW78548  13.990   3.979   9.659
58884SOL    HW178549  14.035   3.991   9.575
58884SOL    HW278550  13.897   3.985   9.638
58885SOL     OW78551  13.339   7.625  13.909
58885SOL    HW178552  13.255   7.666  13.888
58885SOL    HW278553  13.403   7.696  13.902
58886SOL     OW78554   0.735  10.655   6.284
58886SOL    HW178555   0.644  10.624   6.277
58886SOL    HW278556   0.738  10.701   6.368
58887SOL     OW78557   9.887   4.580   1.221
58887SOL    HW178558   9.829   4.655   1.230
58887SOL    HW278559   9.858   4.519   1.289
58888SOL     OW78560   7.239  11.967   1.122
58888SOL    HW178561   7.179  11.988   1.049
58888SOL    HW278562   7.241  11.872   1.125
58889SOL     OW78563  11.654   9.482  10.254
58889SOL    HW178564  11.641   9.427  10.178
58889SOL    HW278565  11.586   9.456  10.316
58890SOL     OW78566   0.601   9.532  11.359
58890SOL    HW178567   0.643   9.506  11.441
58890SOL    HW278568   0.668   9.515  11.292
58891SOL     OW78569   1.227  11.511   2.744
58891SOL    HW178570   1.258  11.579   2.684
58891SOL    HW278571   1.259  11.429   2.707
58892SOL     OW78572   1.663   5.252  11.765
58892SOL    HW178573   1.737   5.274  11.708
58892SOL    HW278574   1.610   5.331  11.767
58893SOL     OW78575   9.775  14.633   5.322
58893SOL    HW178576   9.822  14.550   5.314
58893SOL    HW278577   9.844  14.699   5.325
58894SOL     OW78578   3.703   2.841   7.816
58894SOL    HW178579   3.652   2.916   7.785
58894SOL    HW278580   3.639   2.771   7.830
58895SOL     OW78581   3.339  13.236   9.521
58895SOL    HW178582   3.414  13.222   9.463
58895SOL    HW278583   3.327  13.151   9.565
58896SOL     OW78584   5.789   1.991   1.001
58896SOL    HW178585   5.723   2.030   1.058
58896SOL    HW278586   5.740   1.959   0.926
58897SOL     OW78587   4.285   6.873   7.693
58897SOL    HW178588   4.345   6.935   7.651
58897SOL    HW278589   4.202   6.921   7.699
58898SOL     OW78590   6.838  11.797  13.542
58898SOL    HW178591   6.747  11.786  13.516
58898SOL    HW278592   6.839  11.876  13.596
58899SOL     OW78593  11.296  10.877   6.371
58899SOL    HW178594  11.227  10.857   6.435
58899SOL    HW278595  11.316  10.792   6.331
58900SOL     OW78596   8.400   2.830   9.056
58900SOL    HW178597   8.410   2.784   9.139
58900SOL    HW278598   8.481   2.880   9.046
58901SOL     OW78599   4.649  12.753  14.323
58901SOL    HW178600   4.633  12.755  14.418
58901SOL    HW278601   4.743  12.765  14.315
58902SOL     OW78602   7.125   1.007  14.484
58902SOL    HW178603   7.128   0.982  14.576
58902SOL    HW278604   7.043   1.056  14.475
58903SOL     OW78605   5.147   5.209   0.288
58903SOL    HW178606   5.205   5.222   0.363
58903SOL    HW278607   5.206   5.200   0.213
58904SOL     OW78608   1.126  14.366   7.220
58904SOL    HW178609   1.123  14.330   7.308
58904SOL    HW278610   1.208  14.416   7.218
58905SOL     OW78611   5.385   8.197   9.546
58905SOL    HW178612   5.302   8.197   9.498
58905SOL    HW278613   5.360   8.204   9.638
58906SOL     OW78614   8.048   8.065  13.332
58906SOL    HW178615   8.093   8.149  13.325
58906SOL    HW278616   7.960   8.082  13.300
58907SOL     OW78617   7.273   1.477  13.060
58907SOL    HW178618   7.259   1.389  13.095
58907SOL    HW278619   7.366   1.480  13.039
58908SOL     OW78620   7.166  11.767   6.177
58908SOL    HW178621   7.136  11.855   6.157
58908SOL    HW278622   7.243  11.755   6.121
58909SOL     OW78623   8.344  14.096  11.391
58909SOL    HW178624   8.412  14.154  11.357
58909SOL    HW278625   8.391  14.019  11.423
58910SOL     OW78626   3.339   9.159   9.093
58910SOL    HW178627   3.245   9.144   9.097
58910SOL    HW278628   3.370   9.101   9.024
58911SOL     OW78629   5.290  12.763   9.471
58911SOL    HW178630   5.227  12.703   9.510
58911SOL    HW278631   5.330  12.713   9.399
58912SOL     OW78632  14.007   1.874   3.645
58912SOL    HW178633  14.088   1.913   3.612
58912SOL    HW278634  14.036   1.794   3.690
58913SOL     OW78635  14.838  12.086   1.292
58913SOL    HW178636  14.824  12.105   1.200
58913SOL    HW278637   0.051  12.128   1.314
58914SOL     OW78638  14.660  11.725   0.105
58914SOL    HW178639  14.656  11.690   0.194
58914SOL    HW278640  14.722  11.798   0.111
58915SOL     OW78641  12.375   6.945  12.629
58915SOL    HW178642  12.359   7.014  12.693
58915SOL    HW278643  12.336   6.976  12.548
58916SOL     OW78644   3.969   6.827  12.392
58916SOL    HW178645   3.959   6.739  12.357
58916SOL    HW278646   4.047   6.861  12.350
58917SOL     OW78647   6.626   8.908   5.331
58917SOL    HW178648   6.617   8.926   5.237
58917SOL    HW278649   6.643   8.993   5.370
58918SOL     OW78650   6.439  10.055  12.972
58918SOL    HW178651   6.400   9.975  13.007
58918SOL    HW278652   6.387  10.125  13.010
58919SOL     OW78653   9.949  13.637  10.555
58919SOL    HW178654   9.963  13.725  10.520
58919SOL    HW278655   9.903  13.590  10.486
58920SOL     OW78656   8.953  14.804  14.201
58920SOL    HW178657   8.977  14.717  14.170
58920SOL    HW278658   8.941  14.855  14.121
58921SOL     OW78659   8.375  10.139   0.283
58921SOL    HW178660   8.388  10.094   0.366
58921SOL    HW278661   8.457  10.130   0.236
58922SOL     OW78662   5.464  11.161   0.101
58922SOL    HW178663   5.514  11.093   0.145
58922SOL    HW278664   5.394  11.114   0.055
58923SOL     OW78665  13.407  10.222   5.634
58923SOL    HW178666  13.454  10.261   5.560
58923SOL    HW278667  13.375  10.297   5.684
58924SOL     OW78668   2.700  10.738  10.634
58924SOL    HW178669   2.635  10.668  10.631
58924SOL    HW278670   2.776  10.702  10.589
58925SOL     OW78671   7.469   4.125  12.748
58925SOL    HW178672   7.486   4.144  12.655
58925SOL    HW278673   7.555   4.099  12.783
58926SOL     OW78674  12.388   8.851   5.398
58926SOL    HW178675  12.436   8.839   5.316
58926SOL    HW278676  12.296   8.840   5.374
58927SOL     OW78677   5.229   8.280  12.964
58927SOL    HW178678   5.191   8.352  13.015
58927SOL    HW278679   5.158   8.250  12.907
58928SOL     OW78680   1.963   8.187  10.799
58928SOL    HW178681   1.898   8.125  10.832
58928SOL    HW278682   2.030   8.191  10.868
58929SOL     OW78683   9.092   7.139   6.283
58929SOL    HW178684   9.073   7.152   6.190
58929SOL    HW278685   9.149   7.062   6.285
58930SOL     OW78686   2.599  13.603   1.753
58930SOL    HW178687   2.588  13.518   1.710
58930SOL    HW278688   2.641  13.582   1.836
58931SOL     OW78689  11.564   5.486   6.295
58931SOL    HW178690  11.494   5.426   6.319
58931SOL    HW278691  11.519   5.560   6.255
58932SOL     OW78692   4.250   9.748   2.385
58932SOL    HW178693   4.194   9.761   2.309
58932SOL    HW278694   4.272   9.836   2.414
58933SOL     OW78695  14.339  10.089   6.487
58933SOL    HW178696  14.400  10.051   6.551
58933SOL    HW278697  14.320  10.017   6.426
58934SOL     OW78698   1.601   5.058   7.736
58934SOL    HW178699   1.603   5.154   7.742
58934SOL    HW278700   1.620   5.028   7.825
58935SOL     OW78701  14.166   8.516   7.846
58935SOL    HW178702  14.228   8.570   7.895
58935SOL    HW278703  14.210   8.432   7.837
58936SOL     OW78704  10.438   9.599   8.827
58936SOL    HW178705  10.524   9.615   8.866
58936SOL    HW278706  10.376   9.615   8.899
58937SOL     OW78707   8.761  11.627   6.672
58937SOL    HW178708   8.706  11.698   6.639
58937SOL    HW278709   8.700  11.569   6.719
58938SOL     OW78710   6.305  14.159   6.605
58938SOL    HW178711   6.210  14.147   6.605
58938SOL    HW278712   6.325  14.195   6.691
58939SOL     OW78713   6.131  10.777   4.057
58939SOL    HW178714   6.177  10.811   3.980
58939SOL    HW278715   6.094  10.694   4.028
58940SOL     OW78716   0.427   7.509   9.616
58940SOL    HW178717   0.390   7.535   9.700
58940SOL    HW278718   0.450   7.417   9.627
58941SOL     OW78719   3.060   5.099   5.967
58941SOL    HW178720   2.984   5.157   5.965
58941SOL    HW278721   3.110   5.122   5.888
58942SOL     OW78722   8.306  13.790  13.191
58942SOL    HW178723   8.245  13.718  13.180
58942SOL    HW278724   8.253  13.862  13.225
58943SOL     OW78725   0.980   1.025   1.759
58943SOL    HW178726   0.975   1.086   1.685
58943SOL    HW278727   0.895   1.030   1.801
58944SOL     OW78728   4.971  12.213   9.010
58944SOL    HW178729   5.004  12.292   9.052
58944SOL    HW278730   5.049  12.161   8.989
58945SOL     OW78731  10.425  10.513   3.524
58945SOL    HW178732  10.418  10.481   3.434
58945SOL    HW278733  10.516  10.498   3.548
58946SOL     OW78734   5.012   3.736   9.523
58946SOL    HW178735   5.022   3.728   9.428
58946SOL    HW278736   5.006   3.645   9.554
58947SOL     OW78737  13.979   8.176  11.720
58947SOL    HW178738  13.887   8.202  11.731
58947SOL    HW278739  13.977   8.081  11.716
58948SOL     OW78740   6.425   7.089   3.185
58948SOL    HW178741   6.377   7.162   3.224
58948SOL    HW278742   6.517   7.107   3.205
58949SOL     OW78743   2.042  11.957  13.447
58949SOL    HW178744   2.058  11.872  13.406
58949SOL    HW278745   2.126  11.980  13.487
58950SOL     OW78746   1.235   3.229   7.902
58950SOL    HW178747   1.264   3.138   7.894
58950SOL    HW278748   1.186   3.246   7.822
58951SOL     OW78749   5.399  11.208  12.163
58951SOL    HW178750   5.484  11.221  12.121
58951SOL    HW278751   5.416  11.225  12.256
58952SOL     OW78752   2.556   5.529   2.225
58952SOL    HW178753   2.635   5.521   2.278
58952SOL    HW278754   2.520   5.441   2.222
58953SOL     OW78755  10.876   0.172   8.683
58953SOL    HW178756  10.940   0.142   8.747
58953SOL    HW278757  10.894   0.266   8.674
58954SOL     OW78758  10.123   0.258  12.391
58954SOL    HW178759  10.040   0.304  12.399
58954SOL    HW278760  10.137   0.218  12.477
58955SOL     OW78761  11.131   6.900   4.297
58955SOL    HW178762  11.136   6.901   4.201
58955SOL    HW278763  11.201   6.958   4.325
58956SOL     OW78764  10.564   3.930   4.846
58956SOL    HW178765  10.554   4.012   4.895
58956SOL    HW278766  10.642   3.889   4.882
58957SOL     OW78767   8.202   9.793  11.721
58957SOL    HW178768   8.154   9.711  11.731
58957SOL    HW278769   8.295   9.767  11.724
58958SOL     OW78770  13.778   0.931  14.653
58958SOL    HW178771  13.823   0.910  14.571
58958SOL    HW278772  13.736   0.849  14.679
58959SOL     OW78773  12.107   7.511  11.302
58959SOL    HW178774  12.074   7.478  11.218
58959SOL    HW278775  12.062   7.594  11.315
58960SOL     OW78776   8.909   8.884  10.969
58960SOL    HW178777   8.839   8.835  11.013
58960SOL    HW278778   8.943   8.943  11.036
58961SOL     OW78779   0.605   6.382   6.222
58961SOL    HW178780   0.613   6.443   6.149
58961SOL    HW278781   0.597   6.296   6.180
58962SOL     OW78782   6.208  10.532  13.453
58962SOL    HW178783   6.175  10.552  13.366
58962SOL    HW278784   6.303  10.547  13.447
58963SOL     OW78785  10.290   0.569   0.071
58963SOL    HW178786  10.257   0.619   0.145
58963SOL    HW278787  10.273   0.478   0.095
58964SOL     OW78788  10.034   6.296  12.746
58964SOL    HW178789   9.996   6.307  12.659
58964SOL    HW278790  10.012   6.205  12.769
58965SOL     OW78791   7.541   4.004   7.294
58965SOL    HW178792   7.569   4.038   7.208
58965SOL    HW278793   7.453   3.971   7.279
58966SOL     OW78794   7.791   2.897   9.764
58966SOL    HW178795   7.799   2.841   9.687
58966SOL    HW278796   7.768   2.983   9.728
58967SOL     OW78797  13.245  11.476  10.853
58967SOL    HW178798  13.333  11.495  10.821
58967SOL    HW278799  13.241  11.519  10.939
58968SOL     OW78800   1.112   2.138   3.337
58968SOL    HW178801   1.034   2.192   3.329
58968SOL    HW278802   1.161   2.176   3.410
58969SOL     OW78803  14.109   1.629   9.018
58969SOL    HW178804  14.179   1.621   8.953
58969SOL    HW278805  14.037   1.670   8.971
58970SOL     OW78806  11.575   3.345   4.395
58970SOL    HW178807  11.597   3.413   4.331
58970SOL    HW278808  11.481   3.354   4.408
58971SOL     OW78809   0.350   8.517   1.076
58971SOL    HW178810   0.255   8.525   1.063
58971SOL    HW278811   0.380   8.467   1.001
58972SOL     OW78812   9.719  10.557   0.669
58972SOL    HW178813   9.735  10.485   0.730
58972SOL    HW278814   9.773  10.537   0.593
58973SOL     OW78815   9.455  13.561  11.184
58973SOL    HW178816   9.405  13.592  11.260
58973SOL    HW278817   9.403  13.589  11.108
58974SOL     OW78818  10.942   0.374   5.707
58974SOL    HW178819  10.960   0.300   5.650
58974SOL    HW278820  10.861   0.412   5.672
58975SOL     OW78821   8.407  12.974  10.932
58975SOL    HW178822   8.325  13.018  10.908
58975SOL    HW278823   8.392  12.882  10.912
58976SOL     OW78824   1.237   9.428   0.053
58976SOL    HW178825   1.258   9.419  14.830
58976SOL    HW278826   1.256   9.342   0.091
58977SOL     OW78827   0.397   3.442   7.474
58977SOL    HW178828   0.479   3.428   7.522
58977SOL    HW278829   0.334   3.385   7.519
58978SOL     OW78830   2.496   0.777   1.175
58978SOL    HW178831   2.495   0.869   1.199
58978SOL    HW278832   2.405   0.749   1.182
58979SOL     OW78833   6.311  13.849  14.616
58979SOL    HW178834   6.310  13.919  14.552
58979SOL    HW278835   6.221  13.844  14.647
58980SOL     OW78836   2.689   3.379   8.500
58980SOL    HW178837   2.690   3.348   8.590
58980SOL    HW278838   2.781   3.400   8.481
58981SOL     OW78839   3.047   4.428   3.334
58981SOL    HW178840   3.094   4.383   3.405
58981SOL    HW278841   3.097   4.509   3.321
58982SOL     OW78842  13.935   3.782  13.080
58982SOL    HW178843  13.943   3.850  13.147
58982SOL    HW278844  13.985   3.708  13.116
58983SOL     OW78845   9.844  13.149  10.106
58983SOL    HW178846   9.888  13.184  10.029
58983SOL    HW278847   9.845  13.054  10.093
58984SOL     OW78848   7.504   4.129  14.160
58984SOL    HW178849   7.418   4.098  14.133
58984SOL    HW278850   7.491   4.162  14.249
58985SOL     OW78851   5.172   8.246   2.935
58985SOL    HW178852   5.196   8.234   2.843
58985SOL    HW278853   5.205   8.168   2.979
58986SOL     OW78854   8.280   1.431   0.185
58986SOL    HW178855   8.292   1.343   0.220
58986SOL    HW278856   8.369   1.461   0.166
58987SOL     OW78857   1.800   0.077   0.743
58987SOL    HW178858   1.851   0.042   0.670
58987SOL    HW278859   1.864   0.095   0.811
58988SOL     OW78860   9.022   2.361  12.023
58988SOL    HW178861   8.962   2.335  12.093
58988SOL    HW278862   8.997   2.307  11.948
58989SOL     OW78863   3.458  14.278   7.950
58989SOL    HW178864   3.392  14.237   8.006
58989SOL    HW278865   3.508  14.205   7.914
58990SOL     OW78866   6.498   9.058  13.302
58990SOL    HW178867   6.574   9.071  13.245
58990SOL    HW278868   6.470   8.969  13.282
58991SOL     OW78869  13.053   4.075   7.467
58991SOL    HW178870  13.043   4.047   7.558
58991SOL    HW278871  12.967   4.062   7.427
58992SOL     OW78872   9.454  11.256   7.128
58992SOL    HW178873   9.424  11.181   7.076
58992SOL    HW278874   9.543  11.272   7.098
58993SOL     OW78875  10.903  10.819   2.541
58993SOL    HW178876  10.886  10.732   2.506
58993SOL    HW278877  10.819  10.864   2.538
58994SOL     OW78878   5.802  11.559  14.083
58994SOL    HW178879   5.896  11.575  14.092
58994SOL    HW278880   5.760  11.632  14.129
58995SOL     OW78881   0.161   6.246   1.430
58995SOL    HW178882   0.092   6.297   1.389
58995SOL    HW278883   0.149   6.157   1.397
58996SOL     OW78884  14.842  14.517   3.639
58996SOL    HW178885  14.750  14.491   3.631
58996SOL    HW278886   0.020  14.451   3.588
58997SOL     OW78887   9.712   1.257   7.529
58997SOL    HW178888   9.773   1.185   7.545
58997SOL    HW278889   9.665   1.267   7.611
58998SOL     OW78890   6.773   9.759  11.030
58998SOL    HW178891   6.692   9.748  10.981
58998SOL    HW278892   6.788   9.854  11.029
58999SOL     OW78893   1.980  14.816   7.104
58999SOL    HW178894   1.978  14.759   7.181
58999SOL    HW278895   1.900  14.867   7.110
59000SOL     OW78896   5.931   4.747   6.030
59000SOL    HW178897   6.025   4.733   6.018
59000SOL    HW278898   5.924   4.827   6.082
59001SOL     OW78899   4.208  11.796   6.744
59001SOL    HW178900   4.208  11.789   6.649
59001SOL    HW278901   4.285  11.849   6.765
59002SOL     OW78902   0.588  14.541   8.483
59002SOL    HW178903   0.681  14.536   8.507
59002SOL    HW278904   0.587  14.585   8.398
59003SOL     OW78905   0.725   3.446  12.993
59003SOL    HW178906   0.658   3.506  13.024
59003SOL    HW278907   0.783   3.433  13.068
59004SOL     OW78908   4.667   4.263   5.601
59004SOL    HW178909   4.739   4.207   5.571
59004SOL    HW278910   4.634   4.304   5.522
59005SOL     OW78911   1.557   5.759   5.621
59005SOL    HW178912   1.556   5.850   5.592
59005SOL    HW278913   1.569   5.764   5.716
59006SOL     OW78914   0.589   5.317   5.519
59006SOL    HW178915   0.546   5.260   5.456
59006SOL    HW278916   0.541   5.400   5.513
59007SOL     OW78917   1.625   3.760  13.192
59007SOL    HW178918   1.706   3.746  13.143
59007SOL    HW278919   1.558   3.771  13.125
59008SOL     OW78920  10.813   2.612   1.908
59008SOL    HW178921  10.814   2.517   1.921
59008SOL    HW278922  10.852   2.648   1.988
59009SOL     OW78923   1.208  12.363   7.320
59009SOL    HW178924   1.134  12.405   7.363
59009SOL    HW278925   1.222  12.415   7.241
59010SOL     OW78926   8.473   6.541   0.584
59010SOL    HW178927   8.450   6.631   0.559
59010SOL    HW278928   8.445   6.534   0.675
59011SOL     OW78929  12.844   5.571   1.066
59011SOL    HW178930  12.763   5.616   1.041
59011SOL    HW278931  12.854   5.502   1.001
59012SOL     OW78932  12.900   3.842  12.736
59012SOL    HW178933  12.938   3.807  12.656
59012SOL    HW278934  12.925   3.934  12.736
59013SOL     OW78935   3.033   8.185   2.411
59013SOL    HW178936   2.957   8.131   2.391
59013SOL    HW278937   3.041   8.244   2.336
59014SOL     OW78938   4.004  10.884   2.550
59014SOL    HW178939   4.090  10.912   2.521
59014SOL    HW278940   3.998  10.791   2.525
59015SOL     OW78941   8.191   0.746   8.042
59015SOL    HW178942   8.286   0.750   8.031
59015SOL    HW278943   8.177   0.675   8.106
59016SOL     OW78944  10.420   5.901   8.284
59016SOL    HW178945  10.348   5.923   8.343
59016SOL    HW278946  10.428   5.806   8.289
59017SOL     OW78947  12.428   9.579   7.040
59017SOL    HW178948  12.474   9.542   7.114
59017SOL    HW278949  12.346   9.531   7.035
59018SOL     OW78950  13.199   3.984   4.997
59018SOL    HW178951  13.183   4.002   5.090
59018SOL    HW278952  13.176   3.891   4.987
59019SOL     OW78953   1.678   1.616  12.683
59019SOL    HW178954   1.729   1.568  12.618
59019SOL    HW278955   1.700   1.708  12.669
59020SOL     OW78956   7.047  12.553   5.920
59020SOL    HW178957   6.980  12.525   5.983
59020SOL    HW278958   7.052  12.480   5.858
59021SOL     OW78959  12.669   2.996   3.929
59021SOL    HW178960  12.581   2.965   3.951
59021SOL    HW278961  12.719   2.984   4.009
59022SOL     OW78962   9.279   3.409  12.216
59022SOL    HW178963   9.267   3.494  12.259
59022SOL    HW278964   9.366   3.381  12.243
59023SOL     OW78965  11.461   7.970   8.368
59023SOL    HW178966  11.369   7.994   8.362
59023SOL    HW278967  11.465   7.910   8.443
59024SOL     OW78968  10.744  14.571   0.029
59024SOL    HW178969  10.718  14.663   0.035
59024SOL    HW278970  10.712  14.532   0.111
59025SOL     OW78971   5.092  14.678   5.224
59025SOL    HW178972   5.102  14.746   5.157
59025SOL    HW278973   5.039  14.611   5.183
59026SOL     OW78974   4.513   3.308   2.719
59026SOL    HW178975   4.558   3.276   2.798
59026SOL    HW278976   4.518   3.403   2.725
59027SOL     OW78977   4.256   9.056   5.622
59027SOL    HW178978   4.188   9.048   5.554
59027SOL    HW278979   4.215   9.021   5.701
59028SOL     OW78980   4.725  12.110   8.221
59028SOL    HW178981   4.770  12.136   8.141
59028SOL    HW278982   4.635  12.093   8.193
59029SOL     OW78983  10.480  12.628   0.030
59029SOL    HW178984  10.499  12.535   0.021
59029SOL    HW278985  10.511  12.652   0.117
59030SOL     OW78986   5.492   4.453   7.325
59030SOL    HW178987   5.583   4.461   7.298
59030SOL    HW278988   5.465   4.543   7.347
59031SOL     OW78989   8.129  10.494   2.030
59031SOL    HW178990   8.127  10.476   2.124
59031SOL    HW278991   8.090  10.416   1.990
59032SOL     OW78992   8.617   9.958  13.773
59032SOL    HW178993   8.550  10.020  13.743
59032SOL    HW278994   8.683   9.959  13.704
59033SOL     OW78995   9.920   1.328   7.809
59033SOL    HW178996   9.909   1.340   7.903
59033SOL    HW278997   9.923   1.417   7.774
59034SOL     OW78998  11.917   0.957   5.696
59034SOL    HW178999  12.004   0.919   5.691
59034SOL    HW279000  11.897   0.985   5.606
59035SOL     OW79001   8.275  14.297  13.987
59035SOL    HW179002   8.345  14.273  13.926
59035SOL    HW279003   8.233  14.214  14.009
59036SOL     OW79004   4.067   8.192  12.733
59036SOL    HW179005   4.098   8.140  12.807
59036SOL    HW279006   4.054   8.280  12.770
59037SOL     OW79007  10.381  13.156   5.586
59037SOL    HW179008  10.438  13.167   5.510
59037SOL    HW279009  10.347  13.243   5.604
59038SOL     OW79010   2.247   3.452   9.328
59038SOL    HW179011   2.179   3.391   9.356
59038SOL    HW279012   2.292   3.477   9.408
59039SOL     OW79013   8.151   9.172   3.811
59039SOL    HW179014   8.176   9.264   3.795
59039SOL    HW279015   8.133   9.168   3.905
59040SOL     OW79016  10.461  11.266   2.479
59040SOL    HW179017  10.545  11.281   2.522
59040SOL    HW279018  10.483  11.223   2.396
59041SOL     OW79019   9.644   6.726   7.126
59041SOL    HW179020   9.568   6.688   7.082
59041SOL    HW279021   9.718   6.704   7.069
59042SOL     OW79022   8.891   6.683   5.096
59042SOL    HW179023   8.902   6.762   5.150
59042SOL    HW279024   8.813   6.641   5.131
59043SOL     OW79025   5.831  10.906   2.671
59043SOL    HW179026   5.764  10.969   2.646
59043SOL    HW279027   5.878  10.887   2.590
59044SOL     OW79028   8.470  11.758   1.820
59044SOL    HW179029   8.413  11.698   1.867
59044SOL    HW279030   8.459  11.735   1.728
59045SOL     OW79031  13.190   6.492  10.730
59045SOL    HW179032  13.166   6.439  10.806
59045SOL    HW279033  13.119   6.478  10.667
59046SOL     OW79034  12.799  11.364   5.013
59046SOL    HW179035  12.737  11.434   4.992
59046SOL    HW279036  12.849  11.351   4.932
59047SOL     OW79037   7.354   8.292  11.431
59047SOL    HW179038   7.340   8.328  11.518
59047SOL    HW279039   7.385   8.366  11.379
59048SOL     OW79040   5.262  13.344  10.742
59048SOL    HW179041   5.249  13.413  10.676
59048SOL    HW279042   5.334  13.377  10.796
59049SOL     OW79043   1.903   4.937   4.626
59049SOL    HW179044   1.839   4.866   4.641
59049SOL    HW279045   1.851   5.017   4.630
59050SOL     OW79046   0.064   4.886  12.854
59050SOL    HW179047   0.077   4.912  12.945
59050SOL    HW279048   0.100   4.798  12.848
59051SOL     OW79049  11.065   9.285   5.879
59051SOL    HW179050  11.010   9.234   5.818
59051SOL    HW279051  11.002   9.322   5.941
59052SOL     OW79052  12.514  13.523   0.618
59052SOL    HW179053  12.453  13.500   0.687
59052SOL    HW279054  12.556  13.604   0.648
59053SOL     OW79055   0.095   5.716   4.388
59053SOL    HW179056   0.058   5.691   4.473
59053SOL    HW279057   0.147   5.794   4.407
59054SOL     OW79058   8.753   6.351  10.876
59054SOL    HW179059   8.721   6.352  10.966
59054SOL    HW279060   8.714   6.273  10.837
59055SOL     OW79061   5.564   9.170  13.663
59055SOL    HW179062   5.487   9.122  13.694
59055SOL    HW279063   5.632   9.103  13.657
59056SOL     OW79064  12.140   4.740   2.384
59056SOL    HW179065  12.124   4.652   2.349
59056SOL    HW279066  12.079   4.796   2.336
59057SOL     OW79067   6.251   1.827  11.902
59057SOL    HW179068   6.191   1.762  11.866
59057SOL    HW279069   6.193   1.890  11.946
59058SOL     OW79070   0.209   7.946  13.568
59058SOL    HW179071   0.167   7.971  13.651
59058SOL    HW279072   0.270   8.018  13.550
59059SOL     OW79073  11.625  11.065   2.756
59059SOL    HW179074  11.533  11.043   2.767
59059SOL    HW279075  11.662  10.989   2.710
59060SOL     OW79076   9.297   8.218   1.931
59060SOL    HW179077   9.379   8.230   1.884
59060SOL    HW279078   9.306   8.132   1.972
59061SOL     OW79079   7.102   2.027   2.757
59061SOL    HW179080   7.041   1.966   2.717
59061SOL    HW279081   7.189   1.998   2.729
59062SOL     OW79082   2.010   6.673  14.079
59062SOL    HW179083   1.999   6.689  13.985
59062SOL    HW279084   1.923   6.645  14.109
59063SOL     OW79085   9.033   3.666   5.807
59063SOL    HW179086   9.035   3.583   5.856
59063SOL    HW279087   9.025   3.733   5.875
59064SOL     OW79088  12.703  12.688   4.607
59064SOL    HW179089  12.670  12.694   4.697
59064SOL    HW279090  12.626  12.707   4.553
59065SOL     OW79091  12.428   8.248   6.876
59065SOL    HW179092  12.520   8.249   6.900
59065SOL    HW279093  12.382   8.232   6.959
59066SOL     OW79094   5.674   3.428  11.875
59066SOL    HW179095   5.633   3.385  11.950
59066SOL    HW279096   5.663   3.366  11.803
59067SOL     OW79097   0.199  10.984   2.448
59067SOL    HW179098   0.257  10.909   2.440
59067SOL    HW279099   0.131  10.956   2.510
59068SOL     OW79100   6.520   1.102   9.770
59068SOL    HW179101   6.521   1.061   9.856
59068SOL    HW279102   6.602   1.150   9.765
59069SOL     OW79103  11.728   8.181  11.212
59069SOL    HW179104  11.709   8.212  11.300
59069SOL    HW279105  11.700   8.089  11.212
59070SOL     OW79106   8.657   0.676  11.461
59070SOL    HW179107   8.617   0.617  11.398
59070SOL    HW279108   8.747   0.687  11.431
59071SOL     OW79109   4.078   2.461   2.198
59071SOL    HW179110   4.135   2.422   2.264
59071SOL    HW279111   4.049   2.543   2.237
59072SOL     OW79112   2.481  14.384   4.735
59072SOL    HW179113   2.434  14.320   4.788
59072SOL    HW279114   2.431  14.465   4.746
59073SOL     OW79115   1.752  10.190   6.080
59073SOL    HW179116   1.664  10.176   6.113
59073SOL    HW279117   1.791  10.254   6.140
59074SOL     OW79118   5.531  13.989   6.319
59074SOL    HW179119   5.624  13.989   6.343
59074SOL    HW279120   5.516  14.077   6.283
59075SOL     OW79121  13.613   6.842  11.067
59075SOL    HW179122  13.549   6.772  11.084
59075SOL    HW279123  13.567   6.902  11.009
59076SOL     OW79124  14.608   0.908   3.392
59076SOL    HW179125  14.692   0.953   3.378
59076SOL    HW279126  14.596   0.911   3.487
59077SOL     OW79127   8.859   5.947  13.343
59077SOL    HW179128   8.942   5.920  13.303
59077SOL    HW279129   8.809   5.866  13.351
59078SOL     OW79130  13.123  10.933   5.615
59078SOL    HW179131  13.067  10.930   5.537
59078SOL    HW279132  13.103  10.852   5.662
59079SOL     OW79133   5.457   9.001   9.429
59079SOL    HW179134   5.453   8.919   9.478
59079SOL    HW279135   5.490   9.065   9.491
59080SOL     OW79136   7.948  13.561  13.650
59080SOL    HW179137   7.902  13.484  13.683
59080SOL    HW279138   7.882  13.630  13.647
59081SOL     OW79139   1.657   9.568   8.170
59081SOL    HW179140   1.623   9.483   8.197
59081SOL    HW279141   1.591   9.602   8.109
59082SOL     OW79142   9.368   3.548   2.173
59082SOL    HW179143   9.329   3.620   2.223
59082SOL    HW279144   9.463   3.562   2.181
59083SOL     OW79145   9.838   3.274  12.373
59083SOL    HW179146   9.887   3.351  12.345
59083SOL    HW279147   9.783   3.305  12.445
59084SOL     OW79148  14.663   3.314   4.068
59084SOL    HW179149  14.631   3.255   3.999
59084SOL    HW279150  14.686   3.255   4.140
59085SOL     OW79151   2.014   0.262  12.661
59085SOL    HW179152   1.998   0.302  12.576
59085SOL    HW279153   2.068   0.185  12.641
59086SOL     OW79154   6.849   0.505   8.346
59086SOL    HW179155   6.866   0.441   8.415
59086SOL    HW279156   6.787   0.566   8.385
59087SOL     OW79157   0.025   2.556   7.315
59087SOL    HW179158  14.856   2.469   7.325
59087SOL    HW279159   0.119   2.540   7.308
59088SOL     OW79160   3.299  10.016   5.734
59088SOL    HW179161   3.266  10.103   5.711
59088SOL    HW279162   3.376  10.004   5.678
59089SOL     OW79163   2.422  12.197   7.426
59089SOL    HW179164   2.403  12.173   7.335
59089SOL    HW279165   2.401  12.119   7.477
59090SOL     OW79166   2.307   4.767   4.561
59090SOL    HW179167   2.233   4.820   4.532
59090SOL    HW279168   2.338   4.724   4.481
59091SOL     OW79169   2.816   7.215  12.485
59091SOL    HW179170   2.829   7.123  12.464
59091SOL    HW279171   2.841   7.222  12.578
59092SOL     OW79172  13.970   2.950   7.584
59092SOL    HW179173  13.998   2.958   7.492
59092SOL    HW279174  14.000   3.031   7.625
59093SOL     OW79175  13.269   2.990  10.763
59093SOL    HW179176  13.178   2.980  10.792
59093SOL    HW279177  13.319   2.939  10.826
59094SOL     OW79178   7.162  10.847  10.474
59094SOL    HW179179   7.106  10.864  10.398
59094SOL    HW279180   7.128  10.904  10.543
59095SOL     OW79181   1.776  14.083  11.877
59095SOL    HW179182   1.803  14.164  11.921
59095SOL    HW279183   1.811  14.091  11.788
59096SOL     OW79184   5.848   1.036   4.150
59096SOL    HW179185   5.881   1.013   4.237
59096SOL    HW279186   5.907   0.990   4.089
59097SOL     OW79187   1.049  14.113   0.795
59097SOL    HW179188   0.959  14.136   0.822
59097SOL    HW279189   1.103  14.140   0.870
59098SOL     OW79190  13.800   0.427  14.244
59098SOL    HW179191  13.795   0.399  14.335
59098SOL    HW279192  13.747   0.506  14.240
59099SOL     OW79193  12.076  14.701   2.688
59099SOL    HW179194  11.991  14.739   2.711
59099SOL    HW279195  12.059  14.608   2.676
59100SOL     OW79196  14.766   9.113  12.048
59100SOL    HW179197  14.818   9.050  11.998
59100SOL    HW279198  14.808   9.117  12.134
59101SOL     OW79199  10.855   7.945  12.701
59101SOL    HW179200  10.934   7.988  12.734
59101SOL    HW279201  10.798   7.937  12.778
59102SOL     OW79202   9.920  13.997  10.144
59102SOL    HW179203   9.892  14.082  10.179
59102SOL    HW279204   9.995  14.018  10.088
59103SOL     OW79205  10.758  10.921   5.985
59103SOL    HW179206  10.832  10.981   5.978
59103SOL    HW279207  10.785  10.843   5.936
59104SOL     OW79208  10.144   2.866   2.472
59104SOL    HW179209  10.090   2.906   2.540
59104SOL    HW279210  10.099   2.887   2.390
59105SOL     OW79211   9.662   3.184   2.209
59105SOL    HW179212   9.674   3.094   2.240
59105SOL    HW279213   9.664   3.237   2.289
59106SOL     OW79214   4.534  11.689   6.487
59106SOL    HW179215   4.481  11.691   6.407
59106SOL    HW279216   4.512  11.770   6.533
59107SOL     OW79217  12.289  11.437  14.783
59107SOL    HW179218  12.267  11.504  14.718
59107SOL    HW279219  12.360  11.476  14.834
59108SOL     OW79220   8.117   5.174  12.946
59108SOL    HW179221   8.053   5.244  12.961
59108SOL    HW279222   8.096   5.109  13.012
59109SOL     OW79223  13.519   5.726   1.986
59109SOL    HW179224  13.487   5.644   2.024
59109SOL    HW279225  13.591   5.753   2.043
59110SOL     OW79226  10.288   1.086  13.605
59110SOL    HW179227  10.279   1.051  13.516
59110SOL    HW279228  10.251   1.018  13.661
59111SOL     OW79229  14.671   2.224  10.293
59111SOL    HW179230  14.726   2.216  10.371
59111SOL    HW279231  14.655   2.134  10.265
59112SOL     OW79232   6.070   1.375   4.088
59112SOL    HW179233   6.097   1.428   4.163
59112SOL    HW279234   5.989   1.417   4.057
59113SOL     OW79235  12.109  11.778  11.085
59113SOL    HW179236  12.202  11.763  11.071
59113SOL    HW279237  12.083  11.834  11.012
59114SOL     OW79238   0.720   0.332  13.939
59114SOL    HW179239   0.731   0.346  13.845
59114SOL    HW279240   0.724   0.419  13.977
59115SOL     OW79241   5.049   1.001   7.973
59115SOL    HW179242   5.112   0.999   7.901
59115SOL    HW279243   5.085   1.064   8.035
59116SOL     OW79244  12.100   9.425   6.504
59116SOL    HW179245  12.048   9.398   6.580
59116SOL    HW279246  12.143   9.344   6.475
59117SOL     OW79247   2.282   0.263   7.417
59117SOL    HW179248   2.205   0.243   7.363
59117SOL    HW279249   2.356   0.251   7.359
59118SOL     OW79250   6.554  14.120   4.981
59118SOL    HW179251   6.617  14.169   5.033
59118SOL    HW279252   6.469  14.156   5.006
59119SOL     OW79253  14.417   2.971  14.056
59119SOL    HW179254  14.339   3.019  14.084
59119SOL    HW279255  14.439   2.915  14.130
59120SOL     OW79256   6.850  13.621  11.341
59120SOL    HW179257   6.847  13.715  11.354
59120SOL    HW279258   6.917  13.608  11.274
59121SOL     OW79259   3.587  11.230   6.815
59121SOL    HW179260   3.678  11.213   6.837
59121SOL    HW279261   3.577  11.325   6.822
59122SOL     OW79262   6.809   2.138   5.221
59122SOL    HW179263   6.801   2.052   5.263
59122SOL    HW279264   6.777   2.124   5.132
59123SOL     OW79265   4.964   9.658  12.133
59123SOL    HW179266   4.972   9.731  12.072
59123SOL    HW279267   5.029   9.675  12.200
59124SOL     OW79268   3.161   8.303   5.109
59124SOL    HW179269   3.181   8.355   5.187
59124SOL    HW279270   3.142   8.215   5.142
59125SOL     OW79271   4.057  10.172  14.432
59125SOL    HW179272   4.143  10.155  14.395
59125SOL    HW279273   4.068  10.157  14.526
59126SOL     OW79274   8.408   7.479   5.111
59126SOL    HW179275   8.378   7.531   5.185
59126SOL    HW279276   8.502   7.493   5.107
59127SOL     OW79277  11.947   3.932   8.197
59127SOL    HW179278  11.927   3.879   8.120
59127SOL    HW279279  12.041   3.923   8.208
59128SOL     OW79280   9.467  10.206   3.186
59128SOL    HW179281   9.407  10.268   3.146
59128SOL    HW279282   9.488  10.144   3.117
59129SOL     OW79283   8.077   9.218  10.125
59129SOL    HW179284   8.139   9.156  10.086
59129SOL    HW279285   8.075   9.195  10.218
59130SOL     OW79286   7.850  10.108   4.402
59130SOL    HW179287   7.831  10.116   4.308
59130SOL    HW279288   7.787  10.043   4.434
59131SOL     OW79289   9.773   8.978  12.156
59131SOL    HW179290   9.774   9.043  12.085
59131SOL    HW279291   9.680   8.962  12.171
59132SOL     OW79292   7.372   9.304  12.082
59132SOL    HW179293   7.331   9.226  12.120
59132SOL    HW279294   7.460   9.276  12.059
59133SOL     OW79295   4.156  13.594   5.088
59133SOL    HW179296   4.201  13.668   5.048
59133SOL    HW279297   4.175  13.602   5.182
59134SOL     OW79298  13.465   6.437   4.498
59134SOL    HW179299  13.487   6.359   4.447
59134SOL    HW279300  13.505   6.509   4.449
59135SOL     OW79301   2.753   5.322   1.237
59135SOL    HW179302   2.695   5.369   1.176
59135SOL    HW279303   2.720   5.345   1.323
59136SOL     OW79304   6.026   4.260   7.895
59136SOL    HW179305   6.104   4.241   7.843
59136SOL    HW279306   6.023   4.190   7.961
59137SOL     OW79307  14.567   1.461  11.120
59137SOL    HW179308  14.607   1.546  11.106
59137SOL    HW279309  14.599   1.407  11.047
59138SOL     OW79310   3.374   0.269   8.877
59138SOL    HW179311   3.403   0.358   8.854
59138SOL    HW279312   3.288   0.282   8.917
59139SOL     OW79313  12.348   1.828  12.578
59139SOL    HW179314  12.356   1.900  12.515
59139SOL    HW279315  12.344   1.871  12.663
59140SOL     OW79316   5.270  11.323   1.936
59140SOL    HW179317   5.342  11.335   1.875
59140SOL    HW279318   5.301  11.256   1.997
59141SOL     OW79319  13.191  11.382  13.483
59141SOL    HW179320  13.274  11.378  13.531
59141SOL    HW279321  13.165  11.474  13.486
59142SOL     OW79322   6.256   2.765  13.970
59142SOL    HW179323   6.308   2.730  13.897
59142SOL    HW279324   6.301   2.845  13.995
59143SOL     OW79325   4.951  14.698   8.252
59143SOL    HW179326   4.889  14.667   8.186
59143SOL    HW279327   5.032  14.651   8.233
59144SOL     OW79328   1.894  10.090   9.757
59144SOL    HW179329   1.846  10.089   9.840
59144SOL    HW279330   1.938  10.175   9.756
59145SOL     OW79331   7.893   0.564  11.777
59145SOL    HW179332   7.959   0.593  11.841
59145SOL    HW279333   7.851   0.489  11.819
59146SOL     OW79334   4.714   2.593   6.901
59146SOL    HW179335   4.704   2.498   6.893
59146SOL    HW279336   4.704   2.610   6.995
59147SOL     OW79337  11.422   2.238  11.007
59147SOL    HW179338  11.460   2.245  11.094
59147SOL    HW279339  11.373   2.320  10.996
59148SOL     OW79340  13.955   1.615   8.253
59148SOL    HW179341  13.874   1.584   8.293
59148SOL    HW279342  13.932   1.634   8.163
59149SOL     OW79343   6.741  14.268  13.876
59149SOL    HW179344   6.785  14.352  13.889
59149SOL    HW279345   6.648  14.287  13.890
59150SOL     OW79346  12.164   5.727   4.434
59150SOL    HW179347  12.105   5.693   4.366
59150SOL    HW279348  12.107   5.754   4.505
59151SOL     OW79349   9.475   8.363   6.183
59151SOL    HW179350   9.485   8.334   6.274
59151SOL    HW279351   9.395   8.321   6.153
59152SOL     OW79352  10.808  10.706   1.428
59152SOL    HW179353  10.742  10.640   1.450
59152SOL    HW279354  10.872  10.700   1.498
59153SOL     OW79355   1.191   3.752   9.224
59153SOL    HW179356   1.165   3.660   9.219
59153SOL    HW279357   1.156   3.782   9.308
59154SOL     OW79358   0.547   3.686   0.529
59154SOL    HW179359   0.516   3.701   0.618
59154SOL    HW279360   0.608   3.757   0.512
59155SOL     OW79361  14.288   7.790   6.240
59155SOL    HW179362  14.250   7.855   6.299
59155SOL    HW279363  14.376   7.775   6.274
59156SOL     OW79364  10.203  12.839   3.347
59156SOL    HW179365  10.259  12.774   3.390
59156SOL    HW279366  10.241  12.923   3.373
59157SOL     OW79367  13.131   8.039   9.976
59157SOL    HW179368  13.203   8.042  10.038
59157SOL    HW279369  13.070   7.975  10.014
59158SOL     OW79370   8.019  10.246   1.234
59158SOL    HW179371   8.115  10.245   1.242
59158SOL    HW279372   8.001  10.315   1.170
59159SOL     OW79373   4.118  13.405   0.285
59159SOL    HW179374   4.051  13.469   0.265
59159SOL    HW279375   4.112  13.341   0.215
59160SOL     OW79376  13.606  12.546  13.415
59160SOL    HW179377  13.605  12.641  13.408
59160SOL    HW279378  13.699  12.524  13.423
59161SOL     OW79379   2.363   1.916  10.663
59161SOL    HW179380   2.444   1.949  10.701
59161SOL    HW279381   2.376   1.821  10.656
59162SOL     OW79382  14.654   7.298  11.359
59162SOL    HW179383  14.628   7.360  11.290
59162SOL    HW279384  14.717   7.240  11.316
59163SOL     OW79385   7.661   4.331  12.005
59163SOL    HW179386   7.688   4.380  11.927
59163SOL    HW279387   7.565   4.333  12.003
59164SOL     OW79388   7.839   2.670   8.095
59164SOL    HW179389   7.874   2.759   8.103
59164SOL    HW279390   7.889   2.618   8.158
59165SOL     OW79391   5.465   8.720   4.336
59165SOL    HW179392   5.468   8.807   4.296
59165SOL    HW279393   5.423   8.734   4.421
59166SOL     OW79394   8.079   2.213   0.969
59166SOL    HW179395   8.129   2.139   1.002
59166SOL    HW279396   8.143   2.284   0.962
59167SOL     OW79397   1.122   8.139  13.795
59167SOL    HW179398   1.047   8.164  13.742
59167SOL    HW279399   1.116   8.043  13.802
59168SOL     OW79400  11.642   2.526   8.384
59168SOL    HW179401  11.589   2.490   8.455
59168SOL    HW279402  11.580   2.567   8.325
59169SOL     OW79403   4.932   9.481  11.260
59169SOL    HW179404   4.959   9.493  11.169
59169SOL    HW279405   4.958   9.563  11.303
59170SOL     OW79406   5.819  10.075   1.996
59170SOL    HW179407   5.886  10.039   1.936
59170SOL    HW279408   5.755  10.005   2.004
59171SOL     OW79409   7.491   6.439   3.998
59171SOL    HW179410   7.535   6.468   4.078
59171SOL    HW279411   7.497   6.344   4.001
59172SOL     OW79412   6.409  14.495   1.031
59172SOL    HW179413   6.415  14.439   0.954
59172SOL    HW279414   6.335  14.553   1.013
59173SOL     OW79415   2.243   8.233  13.255
59173SOL    HW179416   2.148   8.243  13.255
59173SOL    HW279417   2.275   8.312  13.211
59174SOL     OW79418   5.449   2.027   4.081
59174SOL    HW179419   5.383   1.963   4.055
59174SOL    HW279420   5.532   1.987   4.056
59175SOL     OW79421   2.870   0.974  12.433
59175SOL    HW179422   2.817   0.894  12.430
59175SOL    HW279423   2.815   1.041  12.393
59176SOL     OW79424   6.253   4.583   8.302
59176SOL    HW179425   6.248   4.533   8.221
59176SOL    HW279426   6.163   4.604   8.324
59177SOL     OW79427   2.046   3.755   5.131
59177SOL    HW179428   1.979   3.697   5.165
59177SOL    HW279429   2.031   3.756   5.036
59178SOL     OW79430  10.840  11.421   2.021
59178SOL    HW179431  10.924  11.376   2.024
59178SOL    HW279432  10.860  11.504   1.978
59179SOL     OW79433   0.655  10.308   3.414
59179SOL    HW179434   0.566  10.296   3.447
59179SOL    HW279435   0.694  10.221   3.418
59180SOL     OW79436   4.496   4.514  14.261
59180SOL    HW179437   4.452   4.438  14.298
59180SOL    HW279438   4.432   4.585  14.271
59181SOL     OW79439   3.595  14.714   6.188
59181SOL    HW179440   3.594  14.630   6.235
59181SOL    HW279441   3.567  14.691   6.099
59182SOL     OW79442   2.638   8.246  10.298
59182SOL    HW179443   2.683   8.226  10.216
59182SOL    HW279444   2.704   8.232  10.366
59183SOL     OW79445   9.966   7.929   3.040
59183SOL    HW179446   9.935   7.851   2.993
59183SOL    HW279447  10.032   7.895   3.101
59184SOL     OW79448   7.785  11.073   5.454
59184SOL    HW179449   7.802  11.022   5.533
59184SOL    HW279450   7.849  11.042   5.391
59185SOL     OW79451  11.732  14.153  13.972
59185SOL    HW179452  11.764  14.189  13.890
59185SOL    HW279453  11.654  14.204  13.993
59186SOL     OW79454   5.234   4.316   7.327
59186SOL    HW179455   5.316   4.360   7.305
59186SOL    HW279456   5.206   4.357   7.409
59187SOL     OW79457   4.052   3.647  10.732
59187SOL    HW179458   4.063   3.712  10.661
59187SOL    HW279459   4.059   3.563  10.688
59188SOL     OW79460   0.783   0.516  10.924
59188SOL    HW179461   0.714   0.452  10.936
59188SOL    HW279462   0.738   0.597  10.900
59189SOL     OW79463   4.959   7.912   1.792
59189SOL    HW179464   4.910   7.995   1.800
59189SOL    HW279465   5.045   7.939   1.760
59190SOL     OW79466   9.263   2.449  14.093
59190SOL    HW179467   9.183   2.445  14.146
59190SOL    HW279468   9.276   2.542  14.076
59191SOL     OW79469  13.883   9.577   9.234
59191SOL    HW179470  13.871   9.533   9.149
59191SOL    HW279471  13.802   9.627   9.247
59192SOL     OW79472   1.914   7.661   5.545
59192SOL    HW179473   1.836   7.688   5.595
59192SOL    HW279474   1.968   7.740   5.542
59193SOL     OW79475   8.801   5.262   9.404
59193SOL    HW179476   8.807   5.299   9.492
59193SOL    HW279477   8.733   5.315   9.361
59194SOL     OW79478  11.346   7.402  11.105
59194SOL    HW179479  11.411   7.435  11.167
59194SOL    HW279480  11.304   7.481  11.070
59195SOL     OW79481   0.183  11.940   0.776
59195SOL    HW179482   0.115  11.984   0.726
59195SOL    HW279483   0.152  11.849   0.783
59196SOL     OW79484   8.163   0.592   8.252
59196SOL    HW179485   8.211   0.647   8.314
59196SOL    HW279486   8.228   0.527   8.223
59197SOL     OW79487   4.218  14.560   8.724
59197SOL    HW179488   4.165  14.481   8.720
59197SOL    HW279489   4.164  14.623   8.772
59198SOL     OW79490  12.081   8.026   5.436
59198SOL    HW179491  12.029   8.095   5.397
59198SOL    HW279492  12.022   7.982   5.497
59199SOL     OW79493   8.698  13.333   0.789
59199SOL    HW179494   8.786  13.329   0.751
59199SOL    HW279495   8.674  13.241   0.801
59200SOL     OW79496   1.619   2.189  12.409
59200SOL    HW179497   1.596   2.102  12.443
59200SOL    HW279498   1.651   2.172  12.320
59201SOL     OW79499   1.296   8.638   8.669
59201SOL    HW179500   1.340   8.598   8.744
59201SOL    HW279501   1.225   8.689   8.706
59202SOL     OW79502  11.557  12.370  11.505
59202SOL    HW179503  11.580  12.462  11.493
59202SOL    HW279504  11.465  12.372  11.531
59203SOL     OW79505  13.323   8.815   4.077
59203SOL    HW179506  13.409   8.780   4.097
59203SOL    HW279507  13.290   8.848   4.161
59204SOL     OW79508   3.566   7.982   0.212
59204SOL    HW179509   3.494   8.032   0.251
59204SOL    HW279510   3.523   7.918   0.155
59205SOL     OW79511   9.069  11.687  12.212
59205SOL    HW179512   9.062  11.758  12.276
59205SOL    HW279513   8.980  11.676  12.179
59206SOL     OW79514   1.778   0.900   5.043
59206SOL    HW179515   1.728   0.839   5.097
59206SOL    HW279516   1.858   0.853   5.020
59207SOL     OW79517   5.546   8.789   8.927
59207SOL    HW179518   5.616   8.847   8.898
59207SOL    HW279519   5.534   8.727   8.855
59208SOL     OW79520  10.525  11.044  11.172
59208SOL    HW179521  10.464  11.003  11.234
59208SOL    HW279522  10.601  10.986  11.172
59209SOL     OW79523  12.255   3.363   4.349
59209SOL    HW179524  12.208   3.441   4.379
59209SOL    HW279525  12.277   3.316   4.429
59210SOL     OW79526   9.902  12.131   4.494
59210SOL    HW179527   9.959  12.118   4.569
59210SOL    HW279528   9.829  12.183   4.527
59211SOL     OW79529  13.878  14.295   0.053
59211SOL    HW179530  13.881  14.237  14.847
59211SOL    HW279531  13.959  14.277   0.100
59212SOL     OW79532  10.276   5.554  12.908
59212SOL    HW179533  10.233   5.613  12.847
59212SOL    HW279534  10.364   5.589  12.917
59213SOL     OW79535   3.647  11.155   3.198
59213SOL    HW179536   3.716  11.221   3.189
59213SOL    HW279537   3.638  11.118   3.110
59214SOL     OW79538   7.797   3.463  12.676
59214SOL    HW179539   7.853   3.537  12.651
59214SOL    HW279540   7.853   3.409  12.732
59215SOL     OW79541  12.008   2.186   2.668
59215SOL    HW179542  11.956   2.212   2.592
59215SOL    HW279543  12.018   2.091   2.659
59216SOL     OW79544   2.828   1.274   7.617
59216SOL    HW179545   2.741   1.246   7.590
59216SOL    HW279546   2.818   1.367   7.640
59217SOL     OW79547   7.123  11.471  12.375
59217SOL    HW179548   7.215  11.460  12.398
59217SOL    HW279549   7.078  11.482  12.459
59218SOL     OW79550   6.280  10.337   4.546
59218SOL    HW179551   6.370  10.304   4.549
59218SOL    HW279552   6.252  10.322   4.455
59219SOL     OW79553  12.127   8.605   0.243
59219SOL    HW179554  12.180   8.684   0.238
59219SOL    HW279555  12.189   8.537   0.269
59220SOL     OW79556   0.073   1.445   2.764
59220SOL    HW179557   0.038   1.507   2.828
59220SOL    HW279558   0.144   1.401   2.810
59221SOL     OW79559  13.591   9.259   9.759
59221SOL    HW179560  13.602   9.268   9.854
59221SOL    HW279561  13.499   9.278   9.744
59222SOL     OW79562   1.951  13.781   2.818
59222SOL    HW179563   1.996  13.825   2.746
59222SOL    HW279564   2.020  13.762   2.882
59223SOL     OW79565  13.315   2.285  11.431
59223SOL    HW179566  13.278   2.342  11.498
59223SOL    HW279567  13.409   2.292  11.443
59224SOL     OW79568   7.853   6.145   3.305
59224SOL    HW179569   7.783   6.204   3.332
59224SOL    HW279570   7.841   6.134   3.210
59225SOL     OW79571   5.670  12.008   7.683
59225SOL    HW179572   5.696  11.965   7.765
59225SOL    HW279573   5.667  12.101   7.706
59226SOL     OW79574  11.246  12.338  13.369
59226SOL    HW179575  11.293  12.284  13.305
59226SOL    HW279576  11.167  12.287  13.390
59227SOL     OW79577   0.537   5.141   3.923
59227SOL    HW179578   0.539   5.049   3.898
59227SOL    HW279579   0.447   5.169   3.906
59228SOL     OW79580   5.905   4.529  10.963
59228SOL    HW179581   5.861   4.603  10.920
59228SOL    HW279582   5.847   4.455  10.949
59229SOL     OW79583   3.654   5.931   1.823
59229SOL    HW179584   3.728   5.880   1.856
59229SOL    HW279585   3.688   5.976   1.746
59230SOL     OW79586   6.392   1.658   7.509
59230SOL    HW179587   6.470   1.619   7.467
59230SOL    HW279588   6.388   1.747   7.473
59231SOL     OW79589  10.718   2.222  12.538
59231SOL    HW179590  10.672   2.299  12.571
59231SOL    HW279591  10.730   2.239  12.445
59232SOL     OW79592   9.399   8.894   6.440
59232SOL    HW179593   9.336   8.829   6.409
59232SOL    HW279594   9.401   8.882   6.535
59233SOL     OW79595   1.099   5.243   9.669
59233SOL    HW179596   1.040   5.173   9.698
59233SOL    HW279597   1.052   5.324   9.688
59234SOL     OW79598   9.170   8.102   0.866
59234SOL    HW179599   9.122   8.021   0.849
59234SOL    HW279600   9.121   8.169   0.819
59235SOL     OW79601   9.151   8.185  13.939
59235SOL    HW179602   9.080   8.235  13.980
59235SOL    HW279603   9.171   8.233  13.859
59236SOL     OW79604   4.336   1.388  10.745
59236SOL    HW179605   4.272   1.383  10.674
59236SOL    HW279606   4.419   1.365  10.704
59237SOL     OW79607   2.925  13.570   7.384
59237SOL    HW179608   2.884  13.528   7.460
59237SOL    HW279609   2.852  13.608   7.335
59238SOL     OW79610   0.325   5.260   1.532
59238SOL    HW179611   0.398   5.227   1.480
59238SOL    HW279612   0.267   5.184   1.543
59239SOL     OW79613   1.946   5.891  10.235
59239SOL    HW179614   1.887   5.927  10.301
59239SOL    HW279615   2.033   5.904  10.272
59240SOL     OW79616   7.512   7.037  11.174
59240SOL    HW179617   7.486   6.982  11.099
59240SOL    HW279618   7.599   7.004  11.198
59241SOL     OW79619   2.394  10.114   7.483
59241SOL    HW179620   2.307  10.147   7.506
59241SOL    HW279621   2.427  10.076   7.564
59242SOL     OW79622   5.872  10.690  14.095
59242SOL    HW179623   5.851  10.600  14.068
59242SOL    HW279624   5.833  10.698  14.182
59243SOL     OW79625   1.143   9.931   9.033
59243SOL    HW179626   1.226   9.979   9.042
59243SOL    HW279627   1.080   9.982   9.083
59244SOL     OW79628   5.261   4.093   6.871
59244SOL    HW179629   5.266   3.998   6.857
59244SOL    HW279630   5.330   4.129   6.815
59245SOL     OW79631   5.143  12.160   8.693
59245SOL    HW179632   5.076  12.202   8.638
59245SOL    HW279633   5.175  12.231   8.749
59246SOL     OW79634   3.814   7.598   4.253
59246SOL    HW179635   3.856   7.679   4.223
59246SOL    HW279636   3.790   7.552   4.173
59247SOL     OW79637   8.207   1.465   0.964
59247SOL    HW179638   8.290   1.513   0.959
59247SOL    HW279639   8.147   1.516   0.910
59248SOL     OW79640   3.831  13.876  12.695
59248SOL    HW179641   3.925  13.870  12.677
59248SOL    HW279642   3.815  13.808  12.761
59249SOL     OW79643   2.005   3.604   8.840
59249SOL    HW179644   2.012   3.689   8.798
59249SOL    HW279645   1.925   3.609   8.892
59250SOL     OW79646   2.679   8.654   6.596
59250SOL    HW179647   2.655   8.722   6.532
59250SOL    HW279648   2.725   8.588   6.545
59251SOL     OW79649   0.653   6.992  12.122
59251SOL    HW179650   0.656   6.909  12.074
59251SOL    HW279651   0.714   7.049  12.075
59252SOL     OW79652   6.061   5.409  11.132
59252SOL    HW179653   6.142   5.382  11.176
59252SOL    HW279654   6.078   5.392  11.039
59253SOL     OW79655   1.786   1.019   1.687
59253SOL    HW179656   1.859   1.031   1.627
59253SOL    HW279657   1.812   1.065   1.767
59254SOL     OW79658   2.066   0.155   8.846
59254SOL    HW179659   2.137   0.194   8.897
59254SOL    HW279660   1.990   0.211   8.865
59255SOL     OW79661   9.079  11.719  10.602
59255SOL    HW179662   9.098  11.684  10.689
59255SOL    HW279663   9.164  11.747  10.569
59256SOL     OW79664   0.287   2.917   6.785
59256SOL    HW179665   0.338   2.999   6.788
59256SOL    HW279666   0.334   2.859   6.846
59257SOL     OW79667  12.962   6.051  13.386
59257SOL    HW179668  12.867   6.055  13.397
59257SOL    HW279669  12.997   6.045  13.475
59258SOL     OW79670  11.468   6.895   7.322
59258SOL    HW179671  11.554   6.894   7.363
59258SOL    HW279672  11.432   6.808   7.339
59259SOL     OW79673   2.663  13.592   6.114
59259SOL    HW179674   2.647  13.503   6.082
59259SOL    HW279675   2.744  13.619   6.071
59260SOL     OW79676   0.444   0.580  12.019
59260SOL    HW179677   0.493   0.604  12.098
59260SOL    HW279678   0.459   0.486  12.009
59261SOL     OW79679  10.634   1.676  11.454
59261SOL    HW179680  10.624   1.743  11.387
59261SOL    HW279681  10.551   1.629  11.455
59262SOL     OW79682   3.093   7.302   8.974
59262SOL    HW179683   3.037   7.319   9.049
59262SOL    HW279684   3.035   7.265   8.907
59263SOL     OW79685   4.291  11.668  14.230
59263SOL    HW179686   4.319  11.688  14.141
59263SOL    HW279687   4.315  11.745  14.281
59264SOL     OW79688  13.570  11.501  12.964
59264SOL    HW179689  13.653  11.474  13.002
59264SOL    HW279690  13.519  11.421  12.958
59265SOL     OW79691   0.612   1.505   4.585
59265SOL    HW179692   0.692   1.452   4.584
59265SOL    HW279693   0.623   1.562   4.661
59266SOL     OW79694   6.603  12.652   2.735
59266SOL    HW179695   6.540  12.612   2.795
59266SOL    HW279696   6.554  12.718   2.687
59267SOL     OW79697   5.521  14.421  11.206
59267SOL    HW179698   5.475  14.475  11.270
59267SOL    HW279699   5.537  14.480  11.133
59268SOL     OW79700  10.534   3.725   7.001
59268SOL    HW179701  10.505   3.770   7.081
59268SOL    HW279702  10.583   3.649   7.034
59269SOL     OW79703  10.415   5.957   5.811
59269SOL    HW179704  10.420   5.889   5.878
59269SOL    HW279705  10.369   5.915   5.738
59270SOL     OW79706  10.497   6.854   4.217
59270SOL    HW179707  10.421   6.798   4.200
59270SOL    HW279708  10.567   6.815   4.165
59271SOL     OW79709   4.728   7.259   3.303
59271SOL    HW179710   4.796   7.291   3.243
59271SOL    HW279711   4.777   7.230   3.380
59272SOL     OW79712   9.915  13.443   8.689
59272SOL    HW179713   9.884  13.404   8.608
59272SOL    HW279714   9.856  13.516   8.706
59273SOL     OW79715   7.755   1.643   4.725
59273SOL    HW179716   7.712   1.702   4.787
59273SOL    HW279717   7.686   1.623   4.661
59274SOL     OW79718  11.247   1.926   2.216
59274SOL    HW179719  11.193   1.925   2.136
59274SOL    HW279720  11.234   1.839   2.255
59275SOL     OW79721  13.431   5.209  14.559
59275SOL    HW179722  13.435   5.300  14.531
59275SOL    HW279723  13.500   5.165  14.508
59276SOL     OW79724  10.110   9.831   8.164
59276SOL    HW179725  10.089   9.876   8.246
59276SOL    HW279726  10.087   9.894   8.096
59277SOL     OW79727   3.896  10.352   2.374
59277SOL    HW179728   3.832  10.340   2.304
59277SOL    HW279729   3.845  10.345   2.455
59278SOL     OW79730   1.052   3.215   7.693
59278SOL    HW179731   0.970   3.165   7.695
59278SOL    HW279732   1.026   3.304   7.716
59279SOL     OW79733   9.511  11.729   6.426
59279SOL    HW179734   9.497  11.742   6.519
59279SOL    HW279735   9.561  11.806   6.398
59280SOL     OW79736   4.337   6.374   2.096
59280SOL    HW179737   4.342   6.287   2.137
59280SOL    HW279738   4.275   6.422   2.151
59281SOL     OW79739  13.557   5.217  11.490
59281SOL    HW179740  13.570   5.220  11.585
59281SOL    HW279741  13.559   5.124  11.469
59282SOL     OW79742   8.078   4.156   8.255
59282SOL    HW179743   8.161   4.159   8.301
59282SOL    HW279744   8.078   4.071   8.211
59283SOL     OW79745   9.498   0.145   9.815
59283SOL    HW179746   9.590   0.118   9.803
59283SOL    HW279747   9.493   0.231   9.773
59284SOL     OW79748  14.349  11.810   8.629
59284SOL    HW179749  14.269  11.776   8.588
59284SOL    HW279750  14.317  11.871   8.696
59285SOL     OW79751  12.680  11.538   3.311
59285SOL    HW179752  12.589  11.510   3.318
59285SOL    HW279753  12.730  11.466   3.350
59286SOL     OW79754   6.843   0.988   2.140
59286SOL    HW179755   6.913   0.925   2.154
59286SOL    HW279756   6.886   1.064   2.101
59287SOL     OW79757   0.266   1.623  11.361
59287SOL    HW179758   0.262   1.713  11.328
59287SOL    HW279759   0.177   1.589  11.348
59288SOL     OW79760   5.682   6.807   7.599
59288SOL    HW179761   5.754   6.863   7.569
59288SOL    HW279762   5.621   6.868   7.641
59289SOL     OW79763   2.944   7.888   8.746
59289SOL    HW179764   2.857   7.927   8.739
59289SOL    HW279765   3.001   7.961   8.771
59290SOL     OW79766  12.662  10.763  11.259
59290SOL    HW179767  12.568  10.779  11.249
59290SOL    HW279768  12.687  10.812  11.337
59291SOL     OW79769   5.103   4.967   0.756
59291SOL    HW179770   5.141   4.903   0.696
59291SOL    HW279771   5.179   5.012   0.794
59292SOL     OW79772  14.746  12.522  12.596
59292SOL    HW179773  14.794  12.573  12.661
59292SOL    HW279774  14.657  12.517  12.631
59293SOL     OW79775   2.731   0.769   5.343
59293SOL    HW179776   2.806   0.712   5.328
59293SOL    HW279777   2.666   0.712   5.384
59294SOL     OW79778   1.758  12.940  14.347
59294SOL    HW179779   1.815  12.993  14.402
59294SOL    HW279780   1.709  13.003  14.294
59295SOL     OW79781  13.934   3.087   9.847
59295SOL    HW179782  13.975   3.122   9.926
59295SOL    HW279783  13.883   3.012   9.879
59296SOL     OW79784  11.449   7.724   5.550
59296SOL    HW179785  11.410   7.713   5.464
59296SOL    HW279786  11.390   7.677   5.610
59297SOL     OW79787   0.546   8.549   3.630
59297SOL    HW179788   0.479   8.562   3.564
59297SOL    HW279789   0.558   8.635   3.670
59298SOL     OW79790   9.273   2.249   8.450
59298SOL    HW179791   9.354   2.209   8.419
59298SOL    HW279792   9.280   2.341   8.425
59299SOL     OW79793   1.111   4.177   4.857
59299SOL    HW179794   1.155   4.223   4.929
59299SOL    HW279795   1.051   4.116   4.901
59300SOL     OW79796   7.866   0.215   7.920
59300SOL    HW179797   7.819   0.243   7.842
59300SOL    HW279798   7.831   0.271   7.990
59301SOL     OW79799   0.682  13.061   8.971
59301SOL    HW179800   0.696  13.065   8.876
59301SOL    HW279801   0.661  12.969   8.988
59302SOL     OW79802   7.022   9.371   4.356
59302SOL    HW179803   6.989   9.349   4.443
59302SOL    HW279804   6.978   9.453   4.334
59303SOL     OW79805   8.303   3.632  10.088
59303SOL    HW179806   8.390   3.596  10.105
59303SOL    HW279807   8.293   3.701  10.153
59304SOL     OW79808   5.357  10.076  11.193
59304SOL    HW179809   5.394  10.165  11.193
59304SOL    HW279810   5.384  10.039  11.109
59305SOL     OW79811  11.042   3.837   4.178
59305SOL    HW179812  11.088   3.920   4.167
59305SOL    HW279813  11.107   3.770   4.157
59306SOL     OW79814   8.391   5.872   2.101
59306SOL    HW179815   8.304   5.835   2.110
59306SOL    HW279816   8.379   5.949   2.045
59307SOL     OW79817  10.184   1.944  12.682
59307SOL    HW179818  10.272   1.916  12.659
59307SOL    HW279819  10.145   1.970  12.598
59308SOL     OW79820   4.899   6.151  14.335
59308SOL    HW179821   4.892   6.082  14.401
59308SOL    HW279822   4.818   6.146  14.285
59309SOL     OW79823   1.075   5.390  11.746
59309SOL    HW179824   1.074   5.371  11.652
59309SOL    HW279825   1.028   5.316  11.785
59310SOL     OW79826  13.668   1.724   4.332
59310SOL    HW179827  13.719   1.677   4.397
59310SOL    HW279828  13.733   1.768   4.277
59311SOL     OW79829   4.169   6.890   3.923
59311SOL    HW179830   4.219   6.950   3.979
59311SOL    HW279831   4.167   6.808   3.971
59312SOL     OW79832   7.791   7.101   7.869
59312SOL    HW179833   7.832   7.184   7.846
59312SOL    HW279834   7.860   7.053   7.917
59313SOL     OW79835   3.496   4.862   2.720
59313SOL    HW179836   3.480   4.954   2.738
59313SOL    HW279837   3.457   4.816   2.794
59314SOL     OW79838   2.566   0.349   2.778
59314SOL    HW179839   2.580   0.307   2.863
59314SOL    HW279840   2.636   0.414   2.771
59315SOL     OW79841   4.870   2.349   4.417
59315SOL    HW179842   4.932   2.403   4.465
59315SOL    HW279843   4.844   2.402   4.342
59316SOL     OW79844   1.186  13.478   9.270
59316SOL    HW179845   1.169  13.560   9.222
59316SOL    HW279846   1.264  13.498   9.323
59317SOL     OW79847   6.603   1.756   7.197
59317SOL    HW179848   6.549   1.799   7.263
59317SOL    HW279849   6.681   1.726   7.244
59318SOL     OW79850   8.423   2.099   0.551
59318SOL    HW179851   8.381   2.157   0.487
59318SOL    HW279852   8.515   2.099   0.525
59319SOL     OW79853   2.134  11.669   4.730
59319SOL    HW179854   2.195  11.612   4.777
59319SOL    HW279855   2.154  11.757   4.762
59320SOL     OW79856   5.733   1.582  12.700
59320SOL    HW179857   5.648   1.601  12.661
59320SOL    HW279858   5.748   1.654  12.762
59321SOL     OW79859   2.678   4.197   5.580
59321SOL    HW179860   2.647   4.253   5.509
59321SOL    HW279861   2.630   4.227   5.657
59322SOL     OW79862   6.677   5.250  13.979
59322SOL    HW179863   6.760   5.232  13.935
59322SOL    HW279864   6.647   5.165  14.009
59323SOL     OW79865   1.981   0.382   3.837
59323SOL    HW179866   2.031   0.430   3.770
59323SOL    HW279867   1.996   0.432   3.917
59324SOL     OW79868   3.304   1.312   5.640
59324SOL    HW179869   3.232   1.373   5.659
59324SOL    HW279870   3.336   1.286   5.726
59325SOL     OW79871  14.531  11.212   5.648
59325SOL    HW179872  14.459  11.268   5.677
59325SOL    HW279873  14.519  11.130   5.696
59326SOL     OW79874  12.889  11.699   8.162
59326SOL    HW179875  12.809  11.748   8.143
59326SOL    HW279876  12.931  11.688   8.077
59327SOL     OW79877  12.433  11.852  10.187
59327SOL    HW179878  12.503  11.801  10.147
59327SOL    HW279879  12.370  11.867  10.117
59328SOL     OW79880   1.497   9.978   3.122
59328SOL    HW179881   1.407   9.967   3.091
59328SOL    HW279882   1.530  10.053   3.073
59329SOL     OW79883   0.961   4.581   8.401
59329SOL    HW179884   1.041   4.603   8.353
59329SOL    HW279885   0.893   4.637   8.362
59330SOL     OW79886   6.683  12.002   5.395
59330SOL    HW179887   6.771  11.969   5.380
59330SOL    HW279888   6.695  12.097   5.405
59331SOL     OW79889  14.133  13.589   6.453
59331SOL    HW179890  14.084  13.668   6.429
59331SOL    HW279891  14.087  13.556   6.531
59332SOL     OW79892   2.261   3.999   9.476
59332SOL    HW179893   2.304   4.076   9.439
59332SOL    HW279894   2.167   4.019   9.471
59333SOL     OW79895  12.735  11.962   5.889
59333SOL    HW179896  12.661  11.903   5.873
59333SOL    HW279897  12.713  12.041   5.839
59334SOL     OW79898   5.720  12.871   9.983
59334SOL    HW179899   5.664  12.908   9.915
59334SOL    HW279900   5.661  12.816  10.035
59335SOL     OW79901  12.032  12.087  10.527
59335SOL    HW179902  12.070  12.084  10.439
59335SOL    HW279903  12.017  11.996  10.550
59336SOL     OW79904   1.455   0.597   0.540
59336SOL    HW179905   1.402   0.635   0.470
59336SOL    HW279906   1.486   0.514   0.504
59337SOL     OW79907   0.911   0.224   2.950
59337SOL    HW179908   0.883   0.157   2.887
59337SOL    HW279909   0.831   0.273   2.970
59338SOL     OW79910   0.914   7.826  13.997
59338SOL    HW179911   0.882   7.909  14.033
59338SOL    HW279912   0.985   7.851  13.938
59339SOL     OW79913   9.610   0.810   6.701
59339SOL    HW179914   9.668   0.790   6.775
59339SOL    HW279915   9.531   0.757   6.717
59340SOL     OW79916   4.927   2.168   5.653
59340SOL    HW179917   4.928   2.072   5.663
59340SOL    HW279918   4.949   2.181   5.561
59341SOL     OW79919   1.057   8.326   6.634
59341SOL    HW179920   1.036   8.238   6.603
59341SOL    HW279921   1.097   8.312   6.720
59342SOL     OW79922  12.286   4.696   6.247
59342SOL    HW179923  12.191   4.682   6.248
59342SOL    HW279924  12.317   4.657   6.329
59343SOL     OW79925   9.415   5.283  12.878
59343SOL    HW179926   9.345   5.271  12.943
59343SOL    HW279927   9.409   5.374  12.852
59344SOL     OW79928  11.279  10.232   3.050
59344SOL    HW179929  11.316  10.155   3.008
59344SOL    HW279930  11.301  10.222   3.143
59345SOL     OW79931   5.840   9.665   3.926
59345SOL    HW179932   5.923   9.713   3.935
59345SOL    HW279933   5.777   9.732   3.899
59346SOL     OW79934   4.224  13.199  10.974
59346SOL    HW179935   4.289  13.260  11.008
59346SOL    HW279936   4.148  13.254  10.955
59347SOL     OW79937  13.906  13.566  13.305
59347SOL    HW179938  13.927  13.642  13.360
59347SOL    HW279939  13.954  13.582  13.224
59348SOL     OW79940   9.881   5.838   4.800
59348SOL    HW179941   9.914   5.773   4.863
59348SOL    HW279942   9.797   5.866   4.838
59349SOL     OW79943  11.651   0.989   7.633
59349SOL    HW179944  11.603   0.936   7.697
59349SOL    HW279945  11.654   1.077   7.671
59350SOL     OW79946   9.415   7.845   6.043
59350SOL    HW179947   9.411   7.849   6.138
59350SOL    HW279948   9.410   7.752   6.022
59351SOL     OW79949   9.572   1.074   4.168
59351SOL    HW179950   9.533   1.121   4.242
59351SOL    HW279951   9.564   1.134   4.094
59352SOL     OW79952  11.315   0.674   8.843
59352SOL    HW179953  11.349   0.674   8.932
59352SOL    HW279954  11.315   0.581   8.817
59353SOL     OW79955   8.044   6.948   8.852
59353SOL    HW179956   8.114   6.969   8.914
59353SOL    HW279957   7.964   6.948   8.905
59354SOL     OW79958  14.495  10.018   6.776
59354SOL    HW179959  14.547   9.942   6.801
59354SOL    HW279960  14.557  10.077   6.733
59355SOL     OW79961   8.004   5.398  14.535
59355SOL    HW179962   7.967   5.430  14.617
59355SOL    HW279963   7.933   5.407  14.472
59356SOL     OW79964  13.617   2.762  12.796
59356SOL    HW179965  13.593   2.739  12.886
59356SOL    HW279966  13.674   2.838  12.805
59357SOL     OW79967   6.493   1.347   3.284
59357SOL    HW179968   6.459   1.361   3.196
59357SOL    HW279969   6.550   1.422   3.300
59358SOL     OW79970   7.502   2.654   0.282
59358SOL    HW179971   7.488   2.600   0.360
59358SOL    HW279972   7.420   2.700   0.269
59359SOL     OW79973   3.890   1.834  14.304
59359SOL    HW179974   3.949   1.762  14.325
59359SOL    HW279975   3.867   1.872  14.389
59360SOL     OW79976  10.050  14.831   9.114
59360SOL    HW179977  10.121   0.001   9.063
59360SOL    HW279978  10.038   0.020   9.188
59361SOL     OW79979   8.114   1.104  10.497
59361SOL    HW179980   8.139   1.062  10.580
59361SOL    HW279981   8.195   1.140  10.463
59362SOL     OW79982   1.394  11.823   0.228
59362SOL    HW179983   1.482  11.860   0.216
59362SOL    HW279984   1.354  11.877   0.295
59363SOL     OW79985   0.085  12.324  14.806
59363SOL    HW179986   0.104  12.355  14.717
59363SOL    HW279987  14.867  12.358  14.825
59364SOL     OW79988   3.191   8.861   8.565
59364SOL    HW179989   3.143   8.898   8.638
59364SOL    HW279990   3.278   8.902   8.570
59365SOL     OW79991  11.509   9.173   1.620
59365SOL    HW179992  11.544   9.114   1.687
59365SOL    HW279993  11.545   9.259   1.642
59366SOL     OW79994  12.829   0.389  13.559
59366SOL    HW179995  12.855   0.423  13.474
59366SOL    HW279996  12.733   0.395  13.559
59367SOL     OW79997   6.861   8.147   2.229
59367SOL    HW179998   6.819   8.132   2.314
59367SOL    HW279999   6.797   8.199   2.180
59368SOL     OW80000   2.154   9.436  14.405
59368SOL    HW180001   2.077   9.475  14.446
59368SOL    HW280002   2.228   9.485  14.441
59369SOL     OW80003  11.631   7.829   1.855
59369SOL    HW180004  11.710   7.789   1.820
59369SOL    HW280005  11.605   7.894   1.790
59370SOL     OW80006  12.843  14.770  10.414
59370SOL    HW180007  12.771  14.716  10.447
59370SOL    HW280008  12.871  14.725  10.334
59371SOL     OW80009  14.780   2.847   2.309
59371SOL    HW180010  14.728   2.923   2.284
59371SOL    HW280011  14.716   2.779   2.327
59372SOL     OW80012   5.183   0.894   5.383
59372SOL    HW180013   5.155   0.905   5.292
59372SOL    HW280014   5.129   0.822   5.416
59373SOL     OW80015  13.849   6.939   1.467
59373SOL    HW180016  13.834   6.877   1.395
59373SOL    HW280017  13.866   7.022   1.423
59374SOL     OW80018   5.734   0.301   1.563
59374SOL    HW180019   5.805   0.264   1.511
59374SOL    HW280020   5.734   0.394   1.540
59375SOL     OW80021  14.741   5.290  13.847
59375SOL    HW180022  14.755   5.383  13.830
59375SOL    HW280023  14.743   5.249  13.760
59376SOL     OW80024   9.630   9.877   8.057
59376SOL    HW180025   9.631   9.909   7.967
59376SOL    HW280026   9.638   9.782   8.049
59377SOL     OW80027  14.781   4.029  11.920
59377SOL    HW180028  14.774   4.091  11.993
59377SOL    HW280029  14.712   3.965  11.937
59378SOL     OW80030   1.616   7.859   8.759
59378SOL    HW180031   1.693   7.915   8.755
59378SOL    HW280032   1.564   7.896   8.831
59379SOL     OW80033   9.534   7.912  12.301
59379SOL    HW180034   9.445   7.932  12.271
59379SOL    HW280035   9.591   7.953  12.236
59380SOL     OW80036  12.484  11.009   1.109
59380SOL    HW180037  12.420  11.042   1.046
59380SOL    HW280038  12.535  10.944   1.060
59381SOL     OW80039   4.748  12.358   7.256
59381SOL    HW180040   4.834  12.322   7.233
59381SOL    HW280041   4.747  12.445   7.216
59382SOL     OW80042   2.558  13.107   7.104
59382SOL    HW180043   2.590  13.170   7.039
59382SOL    HW280044   2.611  13.029   7.089
59383SOL     OW80045   7.508   0.257  11.029
59383SOL    HW180046   7.588   0.223  11.070
59383SOL    HW280047   7.483   0.331  11.085
59384SOL     OW80048   5.025  14.064  14.626
59384SOL    HW180049   4.952  14.124  14.609
59384SOL    HW280050   4.988  13.977  14.612
59385SOL     OW80051   5.267   5.568  13.812
59385SOL    HW180052   5.321   5.525  13.746
59385SOL    HW280053   5.291   5.661  13.805
59386SOL     OW80054   5.536  11.948  10.935
59386SOL    HW180055   5.597  11.983  10.870
59386SOL    HW280056   5.474  11.897  10.883
59387SOL     OW80057  13.044   7.076   1.715
59387SOL    HW180058  12.994   7.143   1.761
59387SOL    HW280059  12.995   6.995   1.732
59388SOL     OW80060   6.700   4.909   4.557
59388SOL    HW180061   6.741   4.861   4.485
59388SOL    HW280062   6.721   4.858   4.635
59389SOL     OW80063   5.906   4.064   9.671
59389SOL    HW180064   5.845   4.085   9.742
59389SOL    HW280065   5.918   3.969   9.678
59390SOL     OW80066   7.075  10.388  11.263
59390SOL    HW180067   7.075  10.467  11.316
59390SOL    HW280068   7.128  10.325  11.313
59391SOL     OW80069  11.867   0.540   0.882
59391SOL    HW180070  11.928   0.580   0.820
59391SOL    HW280071  11.855   0.451   0.848
59392SOL     OW80072   4.828   4.617   0.095
59392SOL    HW180073   4.756   4.676   0.074
59392SOL    HW280074   4.890   4.627   0.023
59393SOL     OW80075  13.875   3.233   1.219
59393SOL    HW180076  13.919   3.317   1.233
59393SOL    HW280077  13.811   3.252   1.150
59394SOL     OW80078   8.396   7.883  14.434
59394SOL    HW180079   8.406   7.792  14.464
59394SOL    HW280080   8.333   7.878  14.362
59395SOL     OW80081   5.849   4.744   9.289
59395SOL    HW180082   5.764   4.783   9.311
59395SOL    HW280083   5.883   4.799   9.219
59396SOL     OW80084   5.622  12.467   6.354
59396SOL    HW180085   5.658  12.379   6.368
59396SOL    HW280086   5.531  12.460   6.381
59397SOL     OW80087   8.017   4.812   0.727
59397SOL    HW180088   8.021   4.904   0.751
59397SOL    HW280089   8.064   4.766   0.797
59398SOL     OW80090  14.349   8.059   6.755
59398SOL    HW180091  14.279   8.072   6.691
59398SOL    HW280092  14.375   7.968   6.745
59399SOL     OW80093   8.823  10.440  11.964
59399SOL    HW180094   8.845  10.392  12.044
59399SOL    HW280095   8.905  10.482  11.939
59400SOL     OW80096  13.831   2.732   9.066
59400SOL    HW180097  13.898   2.773   9.120
59400SOL    HW280098  13.815   2.795   8.995
59401SOL     OW80099   1.008  13.533   5.673
59401SOL    HW180100   0.955  13.575   5.741
59401SOL    HW280101   0.970  13.563   5.591
59402SOL     OW80102  11.956   4.291   8.913
59402SOL    HW180103  11.870   4.255   8.895
59402SOL    HW280104  12.014   4.249   8.850
59403SOL     OW80105   5.965   0.918  13.659
59403SOL    HW180106   5.998   0.945  13.573
59403SOL    HW280107   6.013   0.837  13.678
59404SOL     OW80108   6.828   1.982  13.376
59404SOL    HW180109   6.873   1.946  13.452
59404SOL    HW280110   6.858   2.073  13.370
59405SOL     OW80111  13.678   8.806  12.969
59405SOL    HW180112  13.666   8.752  13.047
59405SOL    HW280113  13.620   8.881  12.983
59406SOL     OW80114  12.478  12.182   4.473
59406SOL    HW180115  12.571  12.170   4.457
59406SOL    HW280116  12.447  12.097   4.505
59407SOL     OW80117   4.652   5.772   0.290
59407SOL    HW180118   4.730   5.749   0.341
59407SOL    HW280119   4.640   5.699   0.230
59408SOL     OW80120   3.791  13.572  11.514
59408SOL    HW180121   3.767  13.499  11.571
59408SOL    HW280122   3.827  13.637  11.574
59409SOL     OW80123   3.152  13.898  11.646
59409SOL    HW180124   3.166  13.813  11.605
59409SOL    HW280125   3.180  13.962  11.580
59410SOL     OW80126   9.019   6.098   1.619
59410SOL    HW180127   8.996   6.185   1.585
59410SOL    HW280128   8.936   6.060   1.645
59411SOL     OW80129  10.535  14.528  10.406
59411SOL    HW180130  10.513  14.482  10.487
59411SOL    HW280131  10.629  14.542  10.411
59412SOL     OW80132   7.153  12.571  10.747
59412SOL    HW180133   7.233  12.599  10.790
59412SOL    HW280134   7.084  12.625  10.786
59413SOL     OW80135  11.897   6.933   1.203
59413SOL    HW180136  11.883   6.918   1.109
59413SOL    HW280137  11.940   7.019   1.207
59414SOL     OW80138   2.159   9.922  11.078
59414SOL    HW180139   2.089   9.881  11.128
59414SOL    HW280140   2.166   9.869  10.998
59415SOL     OW80141   9.736   0.801   3.479
59415SOL    HW180142   9.644   0.789   3.503
59415SOL    HW280143   9.734   0.858   3.403
59416SOL     OW80144  13.791   4.959  11.671
59416SOL    HW180145  13.818   5.049  11.651
59416SOL    HW280146  13.699   4.966  11.695
59417SOL     OW80147   3.634   0.088   6.686
59417SOL    HW180148   3.664   0.033   6.614
59417SOL    HW280149   3.679   0.054   6.763
59418SOL     OW80150   0.553   6.635   1.115
59418SOL    HW180151   0.540   6.724   1.082
59418SOL    HW280152   0.589   6.586   1.041
59419SOL     OW80153  12.228   1.132   2.174
59419SOL    HW180154  12.192   1.214   2.141
59419SOL    HW280155  12.175   1.064   2.132
59420SOL     OW80156   7.448   3.534   8.157
59420SOL    HW180157   7.515   3.597   8.130
59420SOL    HW280158   7.367   3.567   8.118
59421SOL     OW80159   5.464  13.074  13.625
59421SOL    HW180160   5.446  13.003  13.687
59421SOL    HW280161   5.394  13.137  13.640
59422SOL     OW80162  11.958   2.257   6.556
59422SOL    HW180163  11.873   2.301   6.552
59422SOL    HW280164  11.937   2.164   6.562
59423SOL     OW80165  12.879   4.152   3.147
59423SOL    HW180166  12.919   4.239   3.152
59423SOL    HW280167  12.862   4.138   3.054
59424SOL     OW80168   8.515   8.301   7.818
59424SOL    HW180169   8.528   8.236   7.886
59424SOL    HW280170   8.437   8.350   7.845
59425SOL     OW80171   0.807   2.605  11.255
59425SOL    HW180172   0.829   2.698  11.247
59425SOL    HW280173   0.770   2.582  11.169
59426SOL     OW80174   6.686  12.564   5.896
59426SOL    HW180175   6.754  12.613   5.943
59426SOL    HW280176   6.640  12.629   5.844
59427SOL     OW80177  13.536   2.781   9.535
59427SOL    HW180178  13.540   2.686   9.542
59427SOL    HW280179  13.579   2.802   9.452
59428SOL     OW80180   7.167   0.587  11.248
59428SOL    HW180181   7.098   0.524  11.271
59428SOL    HW280182   7.143   0.667  11.295
59429SOL     OW80183   0.518   2.565   4.035
59429SOL    HW180184   0.458   2.636   4.057
59429SOL    HW280185   0.605   2.600   4.053
59430SOL     OW80186   4.848   5.338  11.673
59430SOL    HW180187   4.900   5.322  11.751
59430SOL    HW280188   4.806   5.423  11.689
59431SOL     OW80189  13.827  11.010  13.460
59431SOL    HW180190  13.734  11.033  13.457
59431SOL    HW280191  13.831  10.934  13.518
59432SOL     OW80192   4.911   1.972  13.828
59432SOL    HW180193   4.972   1.917  13.779
59432SOL    HW280194   4.856   1.910  13.876
59433SOL     OW80195  13.555   2.995   3.154
59433SOL    HW180196  13.600   3.077   3.136
59433SOL    HW280197  13.495   2.984   3.081
59434SOL     OW80198  10.509   8.334   2.000
59434SOL    HW180199  10.568   8.375   2.064
59434SOL    HW280200  10.567   8.302   1.931
59435SOL     OW80201   9.785   3.391   4.538
59435SOL    HW180202   9.876   3.385   4.568
59435SOL    HW280203   9.742   3.314   4.575
59436SOL     OW80204  12.540  11.527  11.113
59436SOL    HW180205  12.462  11.518  11.168
59436SOL    HW280206  12.592  11.595  11.155
59437SOL     OW80207   6.736   6.979  10.243
59437SOL    HW180208   6.812   6.964  10.299
59437SOL    HW280209   6.763   7.048  10.183
59438SOL     OW80210  10.633  13.592  14.400
59438SOL    HW180211  10.575  13.516  14.404
59438SOL    HW280212  10.712  13.558  14.358
59439SOL     OW80213   1.022  14.669   7.452
59439SOL    HW180214   1.065  14.608   7.393
59439SOL    HW280215   1.091  14.695   7.514
59440SOL     OW80216  13.231   5.308   8.086
59440SOL    HW180217  13.206   5.216   8.076
59440SOL    HW280218  13.204   5.349   8.003
59441SOL     OW80219   9.073   1.219   2.953
59441SOL    HW180220   8.991   1.269   2.952
59441SOL    HW280221   9.070   1.170   3.035
59442SOL     OW80222  11.246  13.887   7.544
59442SOL    HW180223  11.168  13.839   7.572
59442SOL    HW280224  11.317  13.852   7.599
59443SOL     OW80225   0.789   0.919  13.559
59443SOL    HW180226   0.695   0.932  13.549
59443SOL    HW280227   0.822   1.006  13.581
59444SOL     OW80228   6.616  12.066   7.455
59444SOL    HW180229   6.537  12.020   7.482
59444SOL    HW280230   6.687  12.004   7.471
59445SOL     OW80231  13.604   9.560  10.663
59445SOL    HW180232  13.610   9.503  10.587
59445SOL    HW280233  13.513   9.553  10.691
59446SOL     OW80234  14.296  10.506   3.000
59446SOL    HW180235  14.295  10.459   2.916
59446SOL    HW280236  14.316  10.597   2.975
59447SOL     OW80237   4.727   5.098   4.528
59447SOL    HW180238   4.722   5.007   4.555
59447SOL    HW280239   4.668   5.144   4.588
59448SOL     OW80240  14.235   2.599   2.980
59448SOL    HW180241  14.159   2.657   2.989
59448SOL    HW280242  14.198   2.513   2.961
59449SOL     OW80243   0.714  12.130   8.571
59449SOL    HW180244   0.691  12.187   8.498
59449SOL    HW280245   0.643  12.066   8.576
59450SOL     OW80246   1.011  11.095   5.981
59450SOL    HW180247   0.963  11.017   6.006
59450SOL    HW280248   0.973  11.165   6.034
59451SOL     OW80249   2.714   1.346  12.813
59451SOL    HW180250   2.758   1.417  12.859
59451SOL    HW280251   2.627   1.341  12.852
59452SOL     OW80252   8.046   5.230   5.278
59452SOL    HW180253   7.959   5.268   5.266
59452SOL    HW280254   8.081   5.272   5.356
59453SOL     OW80255   5.791   0.813   9.236
59453SOL    HW180256   5.858   0.772   9.291
59453SOL    HW280257   5.729   0.851   9.298
59454SOL     OW80258   1.453  11.171   9.939
59454SOL    HW180259   1.444  11.261   9.907
59454SOL    HW280260   1.413  11.118   9.871
59455SOL     OW80261   8.683   1.867  10.375
59455SOL    HW180262   8.588   1.873  10.363
59455SOL    HW280263   8.694   1.804  10.447
59456SOL     OW80264  11.411  13.805   0.392
59456SOL    HW180265  11.379  13.895   0.393
59456SOL    HW280266  11.336  13.753   0.422
59457SOL     OW80267   8.819   8.970  14.464
59457SOL    HW180268   8.856   8.988  14.378
59457SOL    HW280269   8.741   9.026  14.469
59458SOL     OW80270   9.722  12.577   7.715
59458SOL    HW180271   9.649  12.598   7.773
59458SOL    HW280272   9.762  12.500   7.756
59459SOL     OW80273   4.554   4.714   9.388
59459SOL    HW180274   4.618   4.754   9.447
59459SOL    HW280275   4.590   4.726   9.300
59460SOL     OW80276  10.083  10.919   9.650
59460SOL    HW180277  10.024  10.974   9.599
59460SOL    HW280278  10.164  10.917   9.598
59461SOL     OW80279   9.739   3.164   4.696
59461SOL    HW180280   9.647   3.189   4.710
59461SOL    HW280281   9.746   3.077   4.736
59462SOL     OW80282   5.863  10.270   6.390
59462SOL    HW180283   5.775  10.259   6.426
59462SOL    HW280284   5.854  10.247   6.298
59463SOL     OW80285  11.282  12.581   0.935
59463SOL    HW180286  11.236  12.504   0.970
59463SOL    HW280287  11.293  12.638   1.011
59464SOL     OW80288  11.295   4.252   4.484
59464SOL    HW180289  11.357   4.214   4.422
59464SOL    HW280290  11.302   4.346   4.471
59465SOL     OW80291  11.521   4.143  13.417
59465SOL    HW180292  11.427   4.137  13.401
59465SOL    HW280293  11.544   4.059  13.458
59466SOL     OW80294   4.825  13.529   1.385
59466SOL    HW180295   4.885  13.566   1.321
59466SOL    HW280296   4.759  13.597   1.398
59467SOL     OW80297   2.436   5.259   8.878
59467SOL    HW180298   2.425   5.191   8.812
59467SOL    HW280299   2.500   5.320   8.839
59468SOL     OW80300  12.958   1.799   0.609
59468SOL    HW180301  12.997   1.712   0.598
59468SOL    HW280302  12.946   1.808   0.703
59469SOL     OW80303   0.773   9.068   4.052
59469SOL    HW180304   0.750   9.017   4.130
59469SOL    HW280305   0.704   9.134   4.046
59470SOL     OW80306   3.266   3.137   5.694
59470SOL    HW180307   3.197   3.198   5.668
59470SOL    HW280308   3.307   3.109   5.612
59471SOL     OW80309  11.304  10.887   7.917
59471SOL    HW180310  11.394  10.918   7.912
59471SOL    HW280311  11.251  10.967   7.918
59472SOL     OW80312   2.977   1.400   6.787
59472SOL    HW180313   2.948   1.337   6.853
59472SOL    HW280314   2.902   1.410   6.729
59473SOL     OW80315   0.465   9.143  10.874
59473SOL    HW180316   0.485   9.100  10.957
59473SOL    HW280317   0.545   9.136  10.823
59474SOL     OW80318   7.843   4.184   7.383
59474SOL    HW180319   7.835   4.271   7.421
59474SOL    HW280320   7.857   4.200   7.289
59475SOL     OW80321   2.714  12.653  10.487
59475SOL    HW180322   2.631  12.656  10.440
59475SOL    HW280323   2.744  12.744  10.490
59476SOL     OW80324  11.885   6.421   3.431
59476SOL    HW180325  11.795   6.434   3.462
59476SOL    HW280326  11.902   6.497   3.375
59477SOL     OW80327   2.657   9.806   2.298
59477SOL    HW180328   2.620   9.838   2.215
59477SOL    HW280329   2.751   9.796   2.279
59478SOL     OW80330   6.019   9.787   7.922
59478SOL    HW180331   5.994   9.861   7.978
59478SOL    HW280332   6.102   9.815   7.882
59479SOL     OW80333  13.357   7.288   4.032
59479SOL    HW180334  13.407   7.350   4.085
59479SOL    HW280335  13.283   7.339   3.999
59480SOL     OW80336   8.974   2.876   9.447
59480SOL    HW180337   8.941   2.827   9.522
59480SOL    HW280338   9.056   2.833   9.424
59481SOL     OW80339  11.932   3.294  13.624
59481SOL    HW180340  11.862   3.312  13.686
59481SOL    HW280341  11.908   3.344  13.546
59482SOL     OW80342   5.502   1.758  13.254
59482SOL    HW180343   5.507   1.748  13.159
59482SOL    HW280344   5.563   1.829  13.274
59483SOL     OW80345   2.921   8.349   1.142
59483SOL    HW180346   2.907   8.349   1.236
59483SOL    HW280347   2.991   8.286   1.128
59484SOL     OW80348   4.834   5.242   8.827
59484SOL    HW180349   4.855   5.196   8.908
59484SOL    HW280350   4.752   5.204   8.798
59485SOL     OW80351   6.806  14.514   6.695
59485SOL    HW180352   6.812  14.488   6.787
59485SOL    HW280353   6.717  14.550   6.686
59486SOL     OW80354   3.143  12.772   7.419
59486SOL    HW180355   3.180  12.828   7.350
59486SOL    HW280356   3.218  12.746   7.472
59487SOL     OW80357  14.469  14.592   0.443
59487SOL    HW180358  14.475  14.639   0.526
59487SOL    HW280359  14.379  14.607   0.414
59488SOL     OW80360  13.097   3.670  13.247
59488SOL    HW180361  13.132   3.593  13.202
59488SOL    HW280362  13.111   3.652  13.340
59489SOL     OW80363   3.391   6.641   5.235
59489SOL    HW180364   3.396   6.600   5.149
59489SOL    HW280365   3.370   6.570   5.295
59490SOL     OW80366  10.270   9.057   7.450
59490SOL    HW180367  10.214   9.062   7.527
59490SOL    HW280368  10.332   9.129   7.461
59491SOL     OW80369  11.184  11.011   3.698
59491SOL    HW180370  11.196  11.002   3.603
59491SOL    HW280371  11.160  11.102   3.711
59492SOL     OW80372  10.986   7.252  13.906
59492SOL    HW180373  10.957   7.289  13.989
59492SOL    HW280374  10.968   7.320  13.841
59493SOL     OW80375   6.610  13.247   2.327
59493SOL    HW180376   6.627  13.340   2.309
59493SOL    HW280377   6.515  13.238   2.319
59494SOL     OW80378  11.358   5.072   9.067
59494SOL    HW180379  11.433   5.116   9.106
59494SOL    HW280380  11.395   5.011   9.003
59495SOL     OW80381  13.919   9.691  11.334
59495SOL    HW180382  14.008   9.656  11.339
59495SOL    HW280383  13.893   9.706  11.425
59496SOL     OW80384   5.791   7.022   4.834
59496SOL    HW180385   5.865   7.015   4.894
59496SOL    HW280386   5.831   7.043   4.749
59497SOL     OW80387   4.177   0.528   0.196
59497SOL    HW180388   4.145   0.542   0.285
59497SOL    HW280389   4.100   0.501   0.146
59498SOL     OW80390   8.789   1.569  14.705
59498SOL    HW180391   8.719   1.609  14.757
59498SOL    HW280392   8.757   1.482  14.684
59499SOL     OW80393   0.501   3.168   6.299
59499SOL    HW180394   0.515   3.249   6.250
59499SOL    HW280395   0.441   3.193   6.370
59500SOL     OW80396   7.991  14.456   1.544
59500SOL    HW180397   7.982  14.411   1.628
59500SOL    HW280398   7.974  14.389   1.478
59501SOL     OW80399  12.799   0.749   7.644
59501SOL    HW180400  12.806   0.809   7.570
59501SOL    HW280401  12.875   0.768   7.699
59502SOL     OW80402  13.402  13.528  13.311
59502SOL    HW180403  13.487  13.492  13.338
59502SOL    HW280404  13.419  13.620  13.293
59503SOL     OW80405  13.351  14.865   1.811
59503SOL    HW180406  13.368   0.081   1.773
59503SOL    HW280407  13.318   0.014   1.899
59504SOL     OW80408   3.149  10.971  11.121
59504SOL    HW180409   3.116  11.049  11.167
59504SOL    HW280410   3.161  10.906  11.189
59505SOL     OW80411  11.595   4.394  14.138
59505SOL    HW180412  11.653   4.458  14.095
59505SOL    HW280413  11.509   4.410  14.100
59506SOL     OW80414   3.169  11.387  14.066
59506SOL    HW180415   3.251  11.339  14.072
59506SOL    HW280416   3.127  11.354  13.987
59507SOL     OW80417   2.693   7.787  12.949
59507SOL    HW180418   2.682   7.785  13.044
59507SOL    HW280419   2.758   7.856  12.934
59508SOL     OW80420   7.018   0.536   2.014
59508SOL    HW180421   7.056   0.449   2.019
59508SOL    HW280422   6.924   0.522   2.024
59509SOL     OW80423   5.632  10.907  12.100
59509SOL    HW180424   5.712  10.862  12.075
59509SOL    HW280425   5.654  11.000  12.097
59510SOL     OW80426   3.027   5.180  14.617
59510SOL    HW180427   3.059   5.119  14.683
59510SOL    HW280428   2.995   5.125  14.546
59511SOL     OW80429  13.732  13.321   3.573
59511SOL    HW180430  13.694  13.350   3.657
59511SOL    HW280431  13.740  13.401   3.522
59512SOL     OW80432  13.079  14.299  10.841
59512SOL    HW180433  13.051  14.352  10.916
59512SOL    HW280434  13.020  14.224  10.841
59513SOL     OW80435   3.485   9.160  13.792
59513SOL    HW180436   3.480   9.080  13.740
59513SOL    HW280437   3.538   9.220  13.740
59514SOL     OW80438   8.452   7.396   5.873
59514SOL    HW180439   8.471   7.312   5.914
59514SOL    HW280440   8.527   7.451   5.897
59515SOL     OW80441   8.212   0.714   0.433
59515SOL    HW180442   8.225   0.663   0.353
59515SOL    HW280443   8.122   0.748   0.426
59516SOL     OW80444  11.243  10.138   9.948
59516SOL    HW180445  11.234  10.069   9.882
59516SOL    HW280446  11.214  10.218   9.904
59517SOL     OW80447   8.434   9.793  12.280
59517SOL    HW180448   8.450   9.887  12.282
59517SOL    HW280449   8.469   9.764  12.196
59518SOL     OW80450   5.474  14.241   6.220
59518SOL    HW180451   5.431  14.220   6.137
59518SOL    HW280452   5.404  14.277   6.274
59519SOL     OW80453   8.930   3.765  14.431
59519SOL    HW180454   8.962   3.747  14.342
59519SOL    HW280455   8.841   3.728  14.432
59520SOL     OW80456   3.827  11.601   7.205
59520SOL    HW180457   3.863  11.516   7.231
59520SOL    HW280458   3.743  11.580   7.164
59521SOL     OW80459   3.426   0.085   0.421
59521SOL    HW180460   3.370   0.079   0.344
59521SOL    HW280461   3.396   0.164   0.466
59522SOL     OW80462   1.749   6.806   4.423
59522SOL    HW180463   1.722   6.867   4.355
59522SOL    HW280464   1.737   6.719   4.385
59523SOL     OW80465   7.320   0.490   8.915
59523SOL    HW180466   7.359   0.525   8.835
59523SOL    HW280467   7.264   0.419   8.885
59524SOL     OW80468   4.821  11.502   0.939
59524SOL    HW180469   4.855  11.578   0.891
59524SOL    HW280470   4.730  11.525   0.957
59525SOL     OW80471  14.472   8.659  14.443
59525SOL    HW180472  14.473   8.573  14.400
59525SOL    HW280473  14.555   8.664  14.489
59526SOL     OW80474   4.269   8.627   0.899
59526SOL    HW180475   4.234   8.539   0.912
59526SOL    HW280476   4.331   8.638   0.970
59527SOL     OW80477   3.569  13.604   6.487
59527SOL    HW180478   3.566  13.699   6.498
59527SOL    HW280479   3.576  13.569   6.576
59528SOL     OW80480  12.619  10.564   8.279
59528SOL    HW180481  12.696  10.567   8.222
59528SOL    HW280482  12.613  10.473   8.306
59529SOL     OW80483   7.627   9.193   6.042
59529SOL    HW180484   7.672   9.109   6.050
59529SOL    HW280485   7.687   9.256   6.081
59530SOL     OW80486   6.638   2.701   1.156
59530SOL    HW180487   6.626   2.792   1.183
59530SOL    HW280488   6.549   2.670   1.138
59531SOL     OW80489   7.068   6.106  13.914
59531SOL    HW180490   7.035   6.070  13.997
59531SOL    HW280491   6.990   6.112  13.858
59532SOL     OW80492  13.288   9.688   1.186
59532SOL    HW180493  13.381   9.671   1.197
59532SOL    HW280494  13.282   9.745   1.109
59533SOL     OW80495   3.253   2.810   4.810
59533SOL    HW180496   3.314   2.883   4.797
59533SOL    HW280497   3.191   2.842   4.876
59534SOL     OW80498   1.850   4.700   7.805
59534SOL    HW180499   1.754   4.704   7.803
59534SOL    HW280500   1.870   4.653   7.885
59535SOL     OW80501   6.968   9.861   2.342
59535SOL    HW180502   7.023   9.836   2.416
59535SOL    HW280503   7.030   9.879   2.271
59536SOL     OW80504  12.825   0.744  12.539
59536SOL    HW180505  12.861   0.683  12.604
59536SOL    HW280506  12.847   0.705  12.455
59537SOL     OW80507   8.388  10.217   3.422
59537SOL    HW180508   8.446  10.201   3.497
59537SOL    HW280509   8.401  10.310   3.402
59538SOL     OW80510  13.980   1.543   9.655
59538SOL    HW180511  13.924   1.485   9.705
59538SOL    HW280512  13.943   1.630   9.669
59539SOL     OW80513   9.112   6.697  11.241
59539SOL    HW180514   9.199   6.736  11.249
59539SOL    HW280515   9.068   6.718  11.324
59540SOL     OW80516   0.440  13.846  13.871
59540SOL    HW180517   0.475  13.763  13.839
59540SOL    HW280518   0.477  13.912  13.811
59541SOL     OW80519  13.705   4.141   8.841
59541SOL    HW180520  13.661   4.059   8.819
59541SOL    HW280521  13.786   4.115   8.884
59542SOL     OW80522   7.561   4.768  12.301
59542SOL    HW180523   7.532   4.712  12.229
59542SOL    HW280524   7.638   4.814  12.267
59543SOL     OW80525   2.148  13.599   9.414
59543SOL    HW180526   2.179  13.540   9.346
59543SOL    HW280527   2.223  13.610   9.473
59544SOL     OW80528  14.665  12.840   2.564
59544SOL    HW180529  14.748  12.796   2.546
59544SOL    HW280530  14.655  12.836   2.659
59545SOL     OW80531   1.630  10.708   1.332
59545SOL    HW180532   1.563  10.763   1.292
59545SOL    HW280533   1.681  10.674   1.258
59546SOL     OW80534   2.562   6.757   6.396
59546SOL    HW180535   2.608   6.752   6.479
59546SOL    HW280536   2.626   6.728   6.331
59547SOL     OW80537   7.332   0.133  13.392
59547SOL    HW180538   7.350   0.204  13.455
59547SOL    HW280539   7.288   0.066  13.444
59548SOL     OW80540   3.989   4.777  14.481
59548SOL    HW180541   4.016   4.856  14.526
59548SOL    HW280542   3.982   4.803  14.389
59549SOL     OW80543   9.941  11.597   3.611
59549SOL    HW180544   9.900  11.683   3.604
59549SOL    HW280545   9.971  11.592   3.702
59550SOL     OW80546  12.224  14.570  12.201
59550SOL    HW180547  12.250  14.654  12.239
59550SOL    HW280548  12.132  14.581  12.178
59551SOL     OW80549   9.711  10.355   3.775
59551SOL    HW180550   9.666  10.276   3.746
59551SOL    HW280551   9.646  10.425   3.764
59552SOL     OW80552  11.787  12.092  10.949
59552SOL    HW180553  11.704  12.092  10.996
59552SOL    HW280554  11.824  12.178  10.966
59553SOL     OW80555  12.085  12.367  10.006
59553SOL    HW180556  12.112  12.443  10.057
59553SOL    HW280557  12.054  12.303  10.070
59554SOL     OW80558   7.177  11.362   8.170
59554SOL    HW180559   7.227  11.443   8.170
59554SOL    HW280560   7.144  11.353   8.259
59555SOL     OW80561  14.250  11.437   1.817
59555SOL    HW180562  14.271  11.482   1.734
59555SOL    HW280563  14.200  11.502   1.867
59556SOL     OW80564   7.530  12.268  14.775
59556SOL    HW180565   7.612  12.232  14.739
59556SOL    HW280566   7.518  12.350  14.727
59557SOL     OW80567   9.154   9.964   2.539
59557SOL    HW180568   9.066   9.961   2.578
59557SOL    HW280569   9.187   9.875   2.549
59558SOL     OW80570   7.035   9.278   1.466
59558SOL    HW180571   7.100   9.239   1.409
59558SOL    HW280572   7.025   9.216   1.538
59559SOL     OW80573   0.858   6.734   0.520
59559SOL    HW180574   0.803   6.811   0.506
59559SOL    HW280575   0.797   6.666   0.547
59560SOL     OW80576   0.817   5.647   6.588
59560SOL    HW180577   0.783   5.618   6.504
59560SOL    HW280578   0.858   5.569   6.626
59561SOL     OW80579   0.653   3.485   0.856
59561SOL    HW180580   0.679   3.480   0.948
59561SOL    HW280581   0.635   3.395   0.830
59562SOL     OW80582   7.385   9.006  11.009
59562SOL    HW180583   7.374   9.084  11.064
59562SOL    HW280584   7.297   8.986  10.977
59563SOL     OW80585   3.687  14.329  12.197
59563SOL    HW180586   3.604  14.370  12.223
59563SOL    HW280587   3.744  14.403  12.177
59564SOL     OW80588   5.831   1.139  11.083
59564SOL    HW180589   5.770   1.181  11.144
59564SOL    HW280590   5.875   1.212  11.039
59565SOL     OW80591  10.557   0.429   9.196
59565SOL    HW180592  10.618   0.364   9.231
59565SOL    HW280593  10.613   0.503   9.172
59566SOL     OW80594   5.326   8.952  11.219
59566SOL    HW180595   5.273   9.007  11.161
59566SOL    HW280596   5.302   8.863  11.195
59567SOL     OW80597   2.155   8.406   2.009
59567SOL    HW180598   2.069   8.432   1.976
59567SOL    HW280599   2.152   8.426   2.103
59568SOL     OW80600   1.799   4.684  10.495
59568SOL    HW180601   1.745   4.632  10.554
59568SOL    HW280602   1.870   4.625  10.468
59569SOL     OW80603  12.983  10.996   8.879
59569SOL    HW180604  12.916  11.018   8.944
59569SOL    HW280605  12.953  11.038   8.798
59570SOL     OW80606   0.487  13.261   8.417
59570SOL    HW180607   0.536  13.297   8.490
59570SOL    HW280608   0.474  13.169   8.439
59571SOL     OW80609   0.515   2.862   2.457
59571SOL    HW180610   0.436   2.830   2.412
59571SOL    HW280611   0.576   2.881   2.386
59572SOL     OW80612  11.450   9.508  12.930
59572SOL    HW180613  11.381   9.573  12.919
59572SOL    HW280614  11.468   9.507  13.024
59573SOL     OW80615   7.408   5.386   5.662
59573SOL    HW180616   7.360   5.315   5.705
59573SOL    HW280617   7.500   5.364   5.673
59574SOL     OW80618  12.447  11.299  13.428
59574SOL    HW180619  12.473  11.210  13.451
59574SOL    HW280620  12.455  11.348  13.510
59575SOL     OW80621   9.803   2.857   8.838
59575SOL    HW180622   9.823   2.776   8.884
59575SOL    HW280623   9.877   2.915   8.859
59576SOL     OW80624   0.531   5.059  12.637
59576SOL    HW180625   0.553   4.977  12.593
59576SOL    HW280626   0.497   5.115  12.567
59577SOL     OW80627   0.402   3.999   3.297
59577SOL    HW180628   0.335   3.961   3.355
59577SOL    HW280629   0.450   3.923   3.263
59578SOL     OW80630   0.644   2.583  14.788
59578SOL    HW180631   0.593   2.543  14.717
59578SOL    HW280632   0.676   2.509  14.839
59579SOL     OW80633  13.429   8.309   5.469
59579SOL    HW180634  13.437   8.236   5.407
59579SOL    HW280635  13.342   8.299   5.507
59580SOL     OW80636   1.264   7.447  10.070
59580SOL    HW180637   1.324   7.487  10.134
59580SOL    HW280638   1.242   7.362  10.109
59581SOL     OW80639  13.515   8.763   5.810
59581SOL    HW180640  13.564   8.744   5.890
59581SOL    HW280641  13.482   8.852   5.821
59582SOL     OW80642   4.301   1.332  12.755
59582SOL    HW180643   4.227   1.337  12.694
59582SOL    HW280644   4.377   1.359  12.703
59583SOL     OW80645   7.725  11.131   2.027
59583SOL    HW180646   7.654  11.128   2.091
59583SOL    HW280647   7.695  11.075   1.955
59584SOL     OW80648   0.698   6.289   9.168
59584SOL    HW180649   0.687   6.384   9.168
59584SOL    HW280650   0.640   6.258   9.098
59585SOL     OW80651   5.105  10.860  14.387
59585SOL    HW180652   5.017  10.822  14.386
59585SOL    HW280653   5.151  10.812  14.318
59586SOL     OW80654   3.137   7.041   8.109
59586SOL    HW180655   3.202   6.975   8.082
59586SOL    HW280656   3.063   7.027   8.049
59587SOL     OW80657  13.661   3.244   2.024
59587SOL    HW180658  13.585   3.189   2.009
59587SOL    HW280659  13.673   3.242   2.119
59588SOL     OW80660   2.838  14.742  10.936
59588SOL    HW180661   2.838  14.724  11.030
59588SOL    HW280662   2.930  14.756  10.914
59589SOL     OW80663   8.220  12.103   2.248
59589SOL    HW180664   8.310  12.119   2.220
59589SOL    HW280665   8.166  12.131   2.174
59590SOL     OW80666  13.662   0.748   0.554
59590SOL    HW180667  13.605   0.753   0.631
59590SOL    HW280668  13.671   0.654   0.536
59591SOL     OW80669   3.795   6.627   6.934
59591SOL    HW180670   3.877   6.632   6.983
59591SOL    HW280671   3.735   6.684   6.980
59592SOL     OW80672   4.649   9.624   6.231
59592SOL    HW180673   4.577   9.630   6.293
59592SOL    HW280674   4.666   9.530   6.222
59593SOL     OW80675  12.603  14.656  12.199
59593SOL    HW180676  12.614  14.717  12.272
59593SOL    HW280677  12.647  14.698  12.126
59594SOL     OW80678   1.108  12.637   6.121
59594SOL    HW180679   1.014  12.638   6.136
59594SOL    HW280680   1.147  12.651   6.207
59595SOL     OW80681   1.966   3.172   0.246
59595SOL    HW180682   1.900   3.131   0.190
59595SOL    HW280683   1.969   3.263   0.218
59596SOL     OW80684  13.875  14.292   8.205
59596SOL    HW180685  13.948  14.232   8.189
59596SOL    HW280686  13.890  14.326   8.293
59597SOL     OW80687   1.102   4.047   7.925
59597SOL    HW180688   1.181   4.029   7.874
59597SOL    HW280689   1.124   4.125   7.976
59598SOL     OW80690  10.893   1.943  13.028
59598SOL    HW180691  10.904   2.026  12.982
59598SOL    HW280692  10.819   1.956  13.087
59599SOL     OW80693   1.407   8.883   0.517
59599SOL    HW180694   1.321   8.917   0.541
59599SOL    HW280695   1.432   8.827   0.590
59600SOL     OW80696  10.171   2.836   6.966
59600SOL    HW180697  10.254   2.833   6.918
59600SOL    HW280698  10.112   2.884   6.909
59601SOL     OW80699  14.025   9.741   2.299
59601SOL    HW180700  14.052   9.652   2.275
59601SOL    HW280701  14.005   9.783   2.216
59602SOL     OW80702   1.323  13.263   5.170
59602SOL    HW180703   1.417  13.273   5.153
59602SOL    HW280704   1.297  13.347   5.209
59603SOL     OW80705   5.080  11.708  13.909
59603SOL    HW180706   5.024  11.649  13.859
59603SOL    HW280707   5.143  11.651  13.953
59604SOL     OW80708   6.686   8.611   5.591
59604SOL    HW180709   6.620   8.666   5.549
59604SOL    HW280710   6.639   8.530   5.614
59605SOL     OW80711  12.045   2.706   7.265
59605SOL    HW180712  12.080   2.676   7.349
59605SOL    HW280713  12.095   2.658   7.200
59606SOL     OW80714  10.241  13.899   3.991
59606SOL    HW180715  10.254  13.871   4.081
59606SOL    HW280716  10.328  13.926   3.961
59607SOL     OW80717  12.993   6.726   4.687
59607SOL    HW180718  12.968   6.816   4.667
59607SOL    HW280719  13.063   6.735   4.753
59608SOL     OW80720   9.455   9.072  11.526
59608SOL    HW180721   9.372   9.118  11.517
59608SOL    HW280722   9.496   9.080  11.441
59609SOL     OW80723   8.955   1.137   1.196
59609SOL    HW180724   9.050   1.145   1.206
59609SOL    HW280725   8.943   1.094   1.112
59610SOL     OW80726   3.979  11.109  11.642
59610SOL    HW180727   4.037  11.100  11.718
59610SOL    HW280728   3.987  11.200  11.616
59611SOL     OW80729   3.201   5.868   3.714
59611SOL    HW180730   3.289   5.842   3.740
59611SOL    HW280731   3.196   5.961   3.738
59612SOL     OW80732   5.697   9.282   6.355
59612SOL    HW180733   5.764   9.297   6.421
59612SOL    HW280734   5.636   9.355   6.366
59613SOL     OW80735   8.811  11.568   4.690
59613SOL    HW180736   8.869  11.499   4.723
59613SOL    HW280737   8.809  11.633   4.760
59614SOL     OW80738  10.571  11.903   1.024
59614SOL    HW180739  10.659  11.886   0.989
59614SOL    HW280740  10.526  11.950   0.953
59615SOL     OW80741   5.523  12.398  14.132
59615SOL    HW180742   5.564  12.443  14.206
59615SOL    HW280743   5.431  12.388  14.158
59616SOL     OW80744   8.070   1.493   3.575
59616SOL    HW180745   8.054   1.561   3.641
59616SOL    HW280746   8.094   1.542   3.496
59617SOL     OW80747  12.434   6.165  12.975
59617SOL    HW180748  12.530   6.161  12.964
59617SOL    HW280749  12.401   6.178  12.886
59618SOL     OW80750   3.030   1.959   5.951
59618SOL    HW180751   3.000   1.936   5.863
59618SOL    HW280752   3.122   1.934   5.952
59619SOL     OW80753   4.112   3.544   2.785
59619SOL    HW180754   4.043   3.486   2.753
59619SOL    HW280755   4.142   3.504   2.866
59620SOL     OW80756  13.201   9.096  12.776
59620SOL    HW180757  13.220   9.159  12.707
59620SOL    HW280758  13.206   9.011  12.733
59621SOL     OW80759   3.496   3.985   0.922
59621SOL    HW180760   3.541   3.942   0.849
59621SOL    HW280761   3.414   3.938   0.930
59622SOL     OW80762  13.977   5.428   6.169
59622SOL    HW180763  13.994   5.522   6.171
59622SOL    HW280764  13.901   5.416   6.227
59623SOL     OW80765   0.931  10.746   3.628
59623SOL    HW180766   0.842  10.756   3.663
59623SOL    HW280767   0.932  10.659   3.589
59624SOL     OW80768  12.519   4.925  12.623
59624SOL    HW180769  12.546   4.953  12.536
59624SOL    HW280770  12.547   4.995  12.682
59625SOL     OW80771   8.034   8.965   1.008
59625SOL    HW180772   8.065   8.969   0.917
59625SOL    HW280773   7.994   8.879   1.015
59626SOL     OW80774   6.850  13.297  12.814
59626SOL    HW180775   6.770  13.252  12.788
59626SOL    HW280776   6.894  13.235  12.873
59627SOL     OW80777   7.764  10.441  13.674
59627SOL    HW180778   7.846  10.394  13.657
59627SOL    HW280779   7.792  10.527  13.705
59628SOL     OW80780   4.667   6.025  10.315
59628SOL    HW180781   4.753   6.030  10.355
59628SOL    HW280782   4.660   5.934  10.283
59629SOL     OW80783  11.428  12.693  10.872
59629SOL    HW180784  11.463  12.773  10.911
59629SOL    HW280785  11.479  12.623  10.912
59630SOL     OW80786  14.427  14.299   7.170
59630SOL    HW180787  14.388  14.229   7.222
59630SOL    HW280788  14.437  14.372   7.232
59631SOL     OW80789   2.849   2.451   6.755
59631SOL    HW180790   2.772   2.472   6.702
59631SOL    HW280791   2.817   2.452   6.845
59632SOL     OW80792   7.823   3.590   5.457
59632SOL    HW180793   7.825   3.659   5.392
59632SOL    HW280794   7.776   3.628   5.531
59633SOL     OW80795   0.836   2.933   3.188
59633SOL    HW180796   0.813   2.861   3.129
59633SOL    HW280797   0.918   2.905   3.229
59634SOL     OW80798   1.962  12.326  12.731
59634SOL    HW180799   1.965  12.247  12.677
59634SOL    HW280800   1.870  12.336  12.753
59635SOL     OW80801   0.208   8.404   4.797
59635SOL    HW180802   0.230   8.484   4.845
59635SOL    HW280803   0.290   8.379   4.754
59636SOL     OW80804   4.954   9.821   6.572
59636SOL    HW180805   4.887   9.754   6.558
59636SOL    HW280806   4.927   9.866   6.652
59637SOL     OW80807   1.627  11.559   6.654
59637SOL    HW180808   1.706  11.565   6.708
59637SOL    HW280809   1.649  11.606   6.574
59638SOL     OW80810   9.873   4.261   0.928
59638SOL    HW180811   9.799   4.298   0.975
59638SOL    HW280812   9.875   4.169   0.955
59639SOL     OW80813  13.097   7.569   9.932
59639SOL    HW180814  13.106   7.475   9.914
59639SOL    HW280815  13.091   7.609   9.845
59640SOL     OW80816  11.851   9.651   1.813
59640SOL    HW180817  11.767   9.622   1.777
59640SOL    HW280818  11.879   9.580   1.870
59641SOL     OW80819   0.724  14.509  12.353
59641SOL    HW180820   0.806  14.499  12.400
59641SOL    HW280821   0.669  14.438  12.384
59642SOL     OW80822  12.902  11.227   5.618
59642SOL    HW180823  12.926  11.142   5.582
59642SOL    HW280824  12.983  11.261   5.656
59643SOL     OW80825   7.869   2.040   3.683
59643SOL    HW180826   7.924   1.992   3.622
59643SOL    HW280827   7.926   2.106   3.721
59644SOL     OW80828   8.058   6.487  12.721
59644SOL    HW180829   8.123   6.507  12.788
59644SOL    HW280830   8.110   6.468  12.643
59645SOL     OW80831   0.347  10.493   6.075
59645SOL    HW180832   0.300  10.433   6.016
59645SOL    HW280833   0.338  10.579   6.034
59646SOL     OW80834   0.299  13.728  10.825
59646SOL    HW180835   0.363  13.703  10.892
59646SOL    HW280836   0.254  13.804  10.862
59647SOL     OW80837   0.934   6.374   0.505
59647SOL    HW180838   0.862   6.326   0.547
59647SOL    HW280839   0.942   6.335   0.418
59648SOL     OW80840   1.246  13.737   0.183
59648SOL    HW180841   1.226  13.824   0.217
59648SOL    HW280842   1.160  13.697   0.168
59649SOL     OW80843  10.038  14.166   3.258
59649SOL    HW180844  10.018  14.183   3.350
59649SOL    HW280845  10.125  14.202   3.245
59650SOL     OW80846   8.410   3.808   1.889
59650SOL    HW180847   8.480   3.777   1.946
59650SOL    HW280848   8.329   3.780   1.933
59651SOL     OW80849   0.970   7.681   2.997
59651SOL    HW180850   0.992   7.653   3.086
59651SOL    HW280851   0.885   7.641   2.980
59652SOL     OW80852   3.244   4.310   3.072
59652SOL    HW180853   3.175   4.301   3.137
59652SOL    HW280854   3.324   4.288   3.119
59653SOL     OW80855   4.440   1.609   9.774
59653SOL    HW180856   4.452   1.593   9.681
59653SOL    HW280857   4.345   1.611   9.787
59654SOL     OW80858   8.944  14.409   0.077
59654SOL    HW180859   8.883  14.398   0.149
59654SOL    HW280860   8.949  14.504   0.063
59655SOL     OW80861   8.950  12.375   6.751
59655SOL    HW180862   8.992  12.348   6.832
59655SOL    HW280863   8.965  12.470   6.747
59656SOL     OW80864   9.620   7.760   3.040
59656SOL    HW180865   9.653   7.671   3.053
59656SOL    HW280866   9.557   7.773   3.111
59657SOL     OW80867   8.868   8.627  10.156
59657SOL    HW180868   8.790   8.681  10.173
59657SOL    HW280869   8.884   8.582  10.239
59658SOL     OW80870   8.423  13.217   9.869
59658SOL    HW180871   8.513  13.185   9.859
59658SOL    HW280872   8.426  13.269   9.949
59659SOL     OW80873   5.049  12.845   2.665
59659SOL    HW180874   4.984  12.837   2.595
59659SOL    HW280875   5.005  12.898   2.732
59660SOL     OW80876   4.742  13.512   5.474
59660SOL    HW180877   4.700  13.493   5.558
59660SOL    HW280878   4.669  13.532   5.415
59661SOL     OW80879   7.483   1.848   4.421
59661SOL    HW180880   7.425   1.903   4.473
59661SOL    HW280881   7.494   1.896   4.339
59662SOL     OW80882  13.284  14.802   8.530
59662SOL    HW180883  13.376  14.801   8.559
59662SOL    HW280884  13.234  14.787   8.610
59663SOL     OW80885   8.057  10.831  12.062
59663SOL    HW180886   8.014  10.901  12.012
59663SOL    HW280887   8.112  10.878  12.125
59664SOL     OW80888  13.456  11.834  11.933
59664SOL    HW180889  13.447  11.861  11.842
59664SOL    HW280890  13.477  11.741  11.929
59665SOL     OW80891   8.873   1.202   5.333
59665SOL    HW180892   8.799   1.152   5.366
59665SOL    HW280893   8.900   1.156   5.253
59666SOL     OW80894   7.557  12.849   1.745
59666SOL    HW180895   7.653  12.851   1.740
59666SOL    HW280896   7.530  12.937   1.719
59667SOL     OW80897   7.462   1.390  10.275
59667SOL    HW180898   7.496   1.422  10.359
59667SOL    HW280899   7.396   1.326  10.300
59668SOL     OW80900  10.841   9.186   4.070
59668SOL    HW180901  10.899   9.172   4.145
59668SOL    HW280902  10.896   9.170   3.993
59669SOL     OW80903   3.815  10.527  13.852
59669SOL    HW180904   3.887  10.493  13.798
59669SOL    HW280905   3.753  10.454  13.859
59670SOL     OW80906  11.592   3.024   0.200
59670SOL    HW180907  11.569   3.001   0.110
59670SOL    HW280908  11.531   3.095   0.223
59671SOL     OW80909   2.830   9.897  10.552
59671SOL    HW180910   2.909   9.880  10.500
59671SOL    HW280911   2.806   9.812  10.588
59672SOL     OW80912  12.898  14.088   1.529
59672SOL    HW180913  12.918  14.048   1.614
59672SOL    HW280914  12.915  14.019   1.465
59673SOL     OW80915   2.559   7.762   7.889
59673SOL    HW180916   2.624   7.724   7.948
59673SOL    HW280917   2.532   7.690   7.833
59674SOL     OW80918  12.566   9.305   3.002
59674SOL    HW180919  12.514   9.227   2.984
59674SOL    HW280920  12.502   9.376   3.007
59675SOL     OW80921  13.405   0.320   0.765
59675SOL    HW180922  13.497   0.304   0.747
59675SOL    HW280923  13.361   0.307   0.681
59676SOL     OW80924   5.432  11.735   8.098
59676SOL    HW180925   5.359  11.767   8.044
59676SOL    HW280926   5.408  11.759   8.187
59677SOL     OW80927   6.751  10.635   0.015
59677SOL    HW180928   6.716  10.566   0.071
59677SOL    HW280929   6.757  10.595  14.798
59678SOL     OW80930  14.487  12.621   1.572
59678SOL    HW180931  14.494  12.588   1.483
59678SOL    HW280932  14.459  12.712   1.562
59679SOL     OW80933  12.897   2.919  13.185
59679SOL    HW180934  12.859   2.994  13.230
59679SOL    HW280935  12.888   2.846  13.247
59680SOL     OW80936  13.875  13.528  10.659
59680SOL    HW180937  13.803  13.497  10.714
59680SOL    HW280938  13.933  13.452  10.650
59681SOL     OW80939   6.084  10.613   1.157
59681SOL    HW180940   6.040  10.645   1.236
59681SOL    HW280941   6.176  10.604   1.183
59682SOL     OW80942   2.567   2.530  13.285
59682SOL    HW180943   2.612   2.494  13.361
59682SOL    HW280944   2.636   2.573  13.235
59683SOL     OW80945  12.023   6.667  11.826
59683SOL    HW180946  11.961   6.724  11.780
59683SOL    HW280947  12.109   6.694  11.794
59684SOL     OW80948   0.347   5.671   7.294
59684SOL    HW180949   0.407   5.618   7.242
59684SOL    HW280950   0.374   5.762   7.276
59685SOL     OW80951   9.525   9.238   5.881
59685SOL    HW180952   9.531   9.333   5.864
59685SOL    HW280953   9.614   9.212   5.903
59686SOL     OW80954   6.602   0.871  13.300
59686SOL    HW180955   6.694   0.859  13.323
59686SOL    HW280956   6.602   0.943  13.237
59687SOL     OW80957   4.030   7.170   0.043
59687SOL    HW180958   4.049   7.117   0.120
59687SOL    HW280959   3.958   7.123  14.868
59688SOL     OW80960   8.409   6.609   8.414
59688SOL    HW180961   8.348   6.639   8.482
59688SOL    HW280962   8.379   6.654   8.334
59689SOL     OW80963  10.799   8.634  12.906
59689SOL    HW180964  10.744   8.556  12.897
59689SOL    HW280965  10.881   8.602  12.943
59690SOL     OW80966  11.794   8.569   2.750
59690SOL    HW180967  11.844   8.534   2.677
59690SOL    HW280968  11.815   8.662   2.752
59691SOL     OW80969   3.404   8.946   8.131
59691SOL    HW180970   3.314   8.918   8.148
59691SOL    HW280971   3.459   8.881   8.174
59692SOL     OW80972   0.691   7.683   0.201
59692SOL    HW180973   0.747   7.626   0.254
59692SOL    HW280974   0.675   7.634   0.121
59693SOL     OW80975  12.474  14.424   4.609
59693SOL    HW180976  12.480  14.338   4.568
59693SOL    HW280977  12.510  14.485   4.545
59694SOL     OW80978   3.240   1.197  14.829
59694SOL    HW180979   3.199   1.220  14.746
59694SOL    HW280980   3.317   1.145  14.805
59695SOL     OW80981  11.954   4.839   3.940
59695SOL    HW180982  11.901   4.759   3.940
59695SOL    HW280983  12.005   4.835   4.020
59696SOL     OW80984  14.828  11.725   3.069
59696SOL    HW180985  14.799  11.687   2.986
59696SOL    HW280986  14.767  11.797   3.085
59697SOL     OW80987   7.923   0.136   2.143
59697SOL    HW180988   7.909   0.207   2.205
59697SOL    HW280989   7.929   0.180   2.058
59698SOL     OW80990  11.385   8.990   9.611
59698SOL    HW180991  11.387   9.030   9.524
59698SOL    HW280992  11.300   9.014   9.646
59699SOL     OW80993   4.550   7.270   7.018
59699SOL    HW180994   4.499   7.267   6.937
59699SOL    HW280995   4.542   7.361   7.048
59700SOL     OW80996   9.956   2.292   4.122
59700SOL    HW180997   9.975   2.204   4.155
59700SOL    HW280998  10.030   2.345   4.152
59701SOL     OW80999   8.770   9.682   0.191
59701SOL    HW181000   8.703   9.615   0.200
59701SOL    HW281001   8.790   9.684   0.097
59702SOL     OW81002   9.374  11.268  14.857
59702SOL    HW181003   9.345  11.356   0.009
59702SOL    HW281004   9.352  11.257  14.764
59703SOL     OW81005   6.972   8.239   5.385
59703SOL    HW181006   6.967   8.211   5.476
59703SOL    HW281007   7.065   8.254   5.369
59704SOL     OW81008   2.338   1.417  10.394
59704SOL    HW181009   2.387   1.371  10.326
59704SOL    HW281010   2.316   1.501  10.356
59705SOL     OW81011   4.067  14.222   1.192
59705SOL    HW181012   4.069  14.203   1.286
59705SOL    HW281013   4.151  14.265   1.176
59706SOL     OW81014   2.573  14.334   7.842
59706SOL    HW181015   2.652  14.366   7.886
59706SOL    HW281016   2.578  14.238   7.852
59707SOL     OW81017   0.078   8.266   7.006
59707SOL    HW181018   0.166   8.297   6.988
59707SOL    HW281019   0.039   8.334   7.061
59708SOL     OW81020   7.674   3.839   1.590
59708SOL    HW181021   7.667   3.907   1.656
59708SOL    HW281022   7.708   3.763   1.637
59709SOL     OW81023  12.075   7.972   4.827
59709SOL    HW181024  12.025   7.961   4.908
59709SOL    HW281025  12.146   8.032   4.852
59710SOL     OW81026   4.979  14.844  12.124
59710SOL    HW181027   4.918  14.848  12.050
59710SOL    HW281028   4.964   0.056  12.171
59711SOL     OW81029  12.529   1.747   4.681
59711SOL    HW181030  12.594   1.711   4.741
59711SOL    HW281031  12.446   1.708   4.709
59712SOL     OW81032   6.336   6.683  10.264
59712SOL    HW181033   6.280   6.746  10.220
59712SOL    HW281034   6.413   6.734  10.290
59713SOL     OW81035   5.936   8.845   1.732
59713SOL    HW181036   5.848   8.855   1.695
59713SOL    HW281037   5.991   8.821   1.657
59714SOL     OW81038  10.588   7.913   0.083
59714SOL    HW181039  10.642   7.894   0.006
59714SOL    HW281040  10.608   7.843   0.144
59715SOL     OW81041  12.698   2.502   7.226
59715SOL    HW181042  12.674   2.443   7.298
59715SOL    HW281043  12.793   2.498   7.223
59716SOL     OW81044  12.906   9.285   7.793
59716SOL    HW181045  12.914   9.201   7.749
59716SOL    HW281046  12.931   9.350   7.727
59717SOL     OW81047  10.622  13.764   2.725
59717SOL    HW181048  10.597  13.822   2.797
59717SOL    HW281049  10.667  13.821   2.662
59718SOL     OW81050   1.232   6.680   7.794
59718SOL    HW181051   1.170   6.611   7.772
59718SOL    HW281052   1.227   6.742   7.721
59719SOL     OW81053   0.042   9.520  10.107
59719SOL    HW181054   0.084   9.585  10.050
59719SOL    HW281055  14.837   9.488  10.056
59720SOL     OW81056   3.690   6.853   9.852
59720SOL    HW181057   3.650   6.786   9.907
59720SOL    HW281058   3.676   6.823   9.763
59721SOL     OW81059   6.486   2.404   0.960
59721SOL    HW181060   6.572   2.370   0.935
59721SOL    HW281061   6.496   2.428   1.052
59722SOL     OW81062  10.225  11.896   6.354
59722SOL    HW181063  10.259  11.808   6.369
59722SOL    HW281064  10.216  11.934   6.441
59723SOL     OW81065  12.355  11.899   4.538
59723SOL    HW181066  12.415  11.868   4.607
59723SOL    HW281067  12.302  11.966   4.580
59724SOL     OW81068   4.191   5.597   5.599
59724SOL    HW181069   4.264   5.657   5.586
59724SOL    HW281070   4.229   5.510   5.585
59725SOL     OW81071  11.739  11.056   1.922
59725SOL    HW181072  11.662  11.109   1.943
59725SOL    HW281073  11.731  11.039   1.828
59726SOL     OW81074  12.974  10.491   5.101
59726SOL    HW181075  12.901  10.514   5.159
59726SOL    HW281076  12.951  10.530   5.017
59727SOL     OW81077  13.312   9.309   1.552
59727SOL    HW181078  13.276   9.221   1.557
59727SOL    HW281079  13.306   9.344   1.641
59728SOL     OW81080   8.486  10.068   1.263
59728SOL    HW181081   8.406  10.097   1.218
59728SOL    HW281082   8.498  10.131   1.334
59729SOL     OW81083  12.985  11.611   2.790
59729SOL    HW181084  13.059  11.663   2.761
59729SOL    HW281085  12.930  11.601   2.713
59730SOL     OW81086  13.184   0.922   7.990
59730SOL    HW181087  13.141   0.860   8.049
59730SOL    HW281088  13.209   0.995   8.046
59731SOL     OW81089   4.974   9.102   7.935
59731SOL    HW181090   4.881   9.095   7.915
59731SOL    HW281091   4.991   9.196   7.943
59732SOL     OW81092   7.316   9.661  12.825
59732SOL    HW181093   7.356   9.607  12.756
59732SOL    HW281094   7.231   9.621  12.841
59733SOL     OW81095   4.927   5.139  12.163
59733SOL    HW181096   4.910   5.135  12.069
59733SOL    HW281097   5.013   5.099  12.173
59734SOL     OW81098   1.060  12.516   3.277
59734SOL    HW181099   1.020  12.599   3.305
59734SOL    HW281100   1.021  12.450   3.334
59735SOL     OW81101   8.063   1.061   6.219
59735SOL    HW181102   8.072   1.135   6.280
59735SOL    HW281103   8.029   0.990   6.273
59736SOL     OW81104  10.198   1.568   9.581
59736SOL    HW181105  10.183   1.648   9.531
59736SOL    HW281106  10.228   1.599   9.667
59737SOL     OW81107   7.967   1.697   4.558
59737SOL    HW181108   7.913   1.674   4.634
59737SOL    HW281109   7.983   1.791   4.567
59738SOL     OW81110   0.017   4.971  14.616
59738SOL    HW181111   0.070   4.991  14.538
59738SOL    HW281112  14.831   4.898  14.588
59739SOL     OW81113   0.324   7.375   4.137
59739SOL    HW181114   0.274   7.300   4.105
59739SOL    HW281115   0.345   7.426   4.058
59740SOL     OW81116   4.131  13.431  10.404
59740SOL    HW181117   4.056  13.404  10.352
59740SOL    HW281118   4.185  13.481  10.343
59741SOL     OW81119   0.108   0.936   9.435
59741SOL    HW181120   0.130   0.884   9.513
59741SOL    HW281121   0.057   0.876   9.380
59742SOL     OW81122  13.364   4.721   3.065
59742SOL    HW181123  13.439   4.780   3.070
59742SOL    HW281124  13.289   4.776   3.090
59743SOL     OW81125   2.818   8.953   8.594
59743SOL    HW181126   2.911   8.976   8.605
59743SOL    HW281127   2.781   9.028   8.547
59744SOL     OW81128   6.869   7.684   6.456
59744SOL    HW181129   6.875   7.745   6.530
59744SOL    HW281130   6.858   7.598   6.496
59745SOL     OW81131   1.318   3.401  11.827
59745SOL    HW181132   1.293   3.463  11.895
59745SOL    HW281133   1.329   3.318  11.873
59746SOL     OW81134  12.051   9.737   0.338
59746SOL    HW181135  12.022   9.784   0.416
59746SOL    HW281136  12.108   9.800   0.292
59747SOL     OW81137   8.347   4.625  12.965
59747SOL    HW181138   8.386   4.712  12.970
59747SOL    HW281139   8.389   4.584  12.890
59748SOL     OW81140   4.785   2.429   5.669
59748SOL    HW181141   4.835   2.378   5.605
59748SOL    HW281142   4.842   2.434   5.746
59749SOL     OW81143   7.397  11.808   5.566
59749SOL    HW181144   7.375  11.837   5.478
59749SOL    HW281145   7.382  11.713   5.565
59750SOL     OW81146   0.026  11.432  12.566
59750SOL    HW181147   0.054  11.523  12.575
59750SOL    HW281148  14.819  11.425  12.623
59751SOL     OW81149  14.392   1.395   2.102
59751SOL    HW181150  14.454   1.450   2.054
59751SOL    HW281151  14.365   1.328   2.039
59752SOL     OW81152   8.888  13.476  11.688
59752SOL    HW181153   8.900  13.553  11.744
59752SOL    HW281154   8.923  13.502  11.603
59753SOL     OW81155   1.550   1.208   0.149
59753SOL    HW181156   1.461   1.172   0.155
59753SOL    HW281157   1.590   1.161   0.076
59754SOL     OW81158   0.679   3.761  13.677
59754SOL    HW181159   0.596   3.808  13.685
59754SOL    HW281160   0.746   3.828  13.694
59755SOL     OW81161   7.652  10.342   4.148
59755SOL    HW181162   7.656  10.360   4.242
59755SOL    HW281163   7.725  10.391   4.110
59756SOL     OW81164   3.197   9.893   8.442
59756SOL    HW181165   3.166   9.968   8.391
59756SOL    HW281166   3.118   9.841   8.458
59757SOL     OW81167   5.476  12.977   9.075
59757SOL    HW181168   5.485  13.012   8.986
59757SOL    HW281169   5.534  12.902   9.077
59758SOL     OW81170   1.285   1.188   1.708
59758SOL    HW181171   1.203   1.220   1.670
59758SOL    HW281172   1.317   1.260   1.761
59759SOL     OW81173   0.856   6.992  14.320
59759SOL    HW181174   0.848   6.936  14.243
59759SOL    HW281175   0.885   7.077  14.286
59760SOL     OW81176   3.348   7.349   0.697
59760SOL    HW181177   3.340   7.444   0.700
59760SOL    HW281178   3.354   7.329   0.603
59761SOL     OW81179   7.413   2.249   5.264
59761SOL    HW181180   7.493   2.222   5.219
59761SOL    HW281181   7.398   2.180   5.329
59762SOL     OW81182   5.352  10.466  10.236
59762SOL    HW181183   5.435  10.433  10.270
59762SOL    HW281184   5.297  10.388  10.227
59763SOL     OW81185   5.113  12.957  13.868
59763SOL    HW181186   5.073  13.019  13.807
59763SOL    HW281187   5.081  12.984  13.954
59764SOL     OW81188   7.727   3.003   6.348
59764SOL    HW181189   7.715   2.913   6.318
59764SOL    HW281190   7.730   2.996   6.444
59765SOL     OW81191   9.436   1.390   5.231
59765SOL    HW181192   9.430   1.485   5.238
59765SOL    HW281193   9.499   1.365   5.299
59766SOL     OW81194   0.965  11.731   4.400
59766SOL    HW181195   0.987  11.779   4.321
59766SOL    HW281196   0.950  11.641   4.371
59767SOL     OW81197   4.636  10.326   9.156
59767SOL    HW181198   4.690  10.293   9.085
59767SOL    HW281199   4.698  10.365   9.218
59768SOL     OW81200  14.165   4.513   3.673
59768SOL    HW181201  14.169   4.609   3.677
59768SOL    HW281202  14.078   4.492   3.709
59769SOL     OW81203  10.778  14.249   9.448
59769SOL    HW181204  10.843  14.286   9.508
59769SOL    HW281205  10.805  14.158   9.437
59770SOL     OW81206   9.083   0.312   4.650
59770SOL    HW181207   9.083   0.336   4.558
59770SOL    HW281208   9.105   0.392   4.696
59771SOL     OW81209   2.240   0.311   5.733
59771SOL    HW181210   2.335   0.316   5.736
59771SOL    HW281211   2.212   0.403   5.725
59772SOL     OW81212   4.866   9.055  11.271
59772SOL    HW181213   4.899   9.056  11.182
59772SOL    HW281214   4.906   8.977  11.311
59773SOL     OW81215   2.562   9.927   3.640
59773SOL    HW181216   2.629   9.879   3.591
59773SOL    HW281217   2.612   9.987   3.696
59774SOL     OW81218   3.555   9.940   8.915
59774SOL    HW181219   3.638   9.894   8.927
59774SOL    HW281220   3.530   9.968   9.002
59775SOL     OW81221   0.920  14.405  12.938
59775SOL    HW181222   0.956  14.401  12.849
59775SOL    HW281223   0.858  14.332  12.941
59776SOL     OW81224  10.741   9.851   5.605
59776SOL    HW181225  10.799   9.891   5.540
59776SOL    HW281226  10.712   9.924   5.659
59777SOL     OW81227  10.733  11.739  11.143
59777SOL    HW181228  10.645  11.762  11.113
59777SOL    HW281229  10.729  11.750  11.238
59778SOL     OW81230   5.710   3.375   8.513
59778SOL    HW181231   5.805   3.380   8.513
59778SOL    HW281232   5.681   3.465   8.528
59779SOL     OW81233   2.708   4.730   4.918
59779SOL    HW181234   2.634   4.676   4.889
59779SOL    HW281235   2.786   4.679   4.895
59780SOL     OW81236   0.971   5.867   4.820
59780SOL    HW181237   0.995   5.940   4.763
59780SOL    HW281238   1.053   5.818   4.831
59781SOL     OW81239   7.276  12.523  13.613
59781SOL    HW181240   7.181  12.528  13.603
59781SOL    HW281241   7.299  12.606  13.656
59782SOL     OW81242   9.413  14.142  11.506
59782SOL    HW181243   9.490  14.095  11.538
59782SOL    HW281244   9.342  14.114  11.565
59783SOL     OW81245   4.838   1.535   6.804
59783SOL    HW181246   4.770   1.569   6.746
59783SOL    HW281247   4.902   1.495   6.745
59784SOL     OW81248   9.778   6.776   8.464
59784SOL    HW181249   9.748   6.824   8.386
59784SOL    HW281250   9.803   6.690   8.432
59785SOL     OW81251   3.012   9.432  10.082
59785SOL    HW181252   3.034   9.467  10.169
59785SOL    HW281253   3.089   9.452  10.028
59786SOL     OW81254  11.647  12.628  11.970
59786SOL    HW181255  11.619  12.598  11.883
59786SOL    HW281256  11.734  12.592  11.982
59787SOL     OW81257   4.107  14.597  10.364
59787SOL    HW181258   4.109  14.649  10.445
59787SOL    HW281259   4.056  14.650  10.303
59788SOL     OW81260  11.227   2.412  12.958
59788SOL    HW181261  11.270   2.425  12.873
59788SOL    HW281262  11.149   2.467  12.953
59789SOL     OW81263  13.236   0.898  14.098
59789SOL    HW181264  13.321   0.859  14.120
59789SOL    HW281265  13.174   0.856  14.157
59790SOL     OW81266   8.724   8.549  12.591
59790SOL    HW181267   8.785   8.479  12.569
59790SOL    HW281268   8.724   8.606  12.514
59791SOL     OW81269   4.535  10.075  10.035
59791SOL    HW181270   4.622  10.114  10.022
59791SOL    HW281271   4.485  10.104   9.959
59792SOL     OW81272   7.260  12.830  13.462
59792SOL    HW181273   7.250  12.782  13.380
59792SOL    HW281274   7.279  12.920  13.434
59793SOL     OW81275  10.293  10.502   4.251
59793SOL    HW181276  10.352  10.438   4.291
59793SOL    HW281277  10.216  10.504   4.308
59794SOL     OW81278   9.846  14.741   7.228
59794SOL    HW181279   9.904  14.778   7.294
59794SOL    HW281280   9.785  14.687   7.278
59795SOL     OW81281   6.025  14.364   9.221
59795SOL    HW181282   6.092  14.341   9.157
59795SOL    HW281283   6.060  14.441   9.267
59796SOL     OW81284  13.447   5.128   9.666
59796SOL    HW181285  13.459   5.034   9.656
59796SOL    HW281286  13.413   5.157   9.581
59797SOL     OW81287   8.130   1.720  11.576
59797SOL    HW181288   8.220   1.700  11.551
59797SOL    HW281289   8.132   1.724  11.672
59798SOL     OW81290   7.871  11.717   0.822
59798SOL    HW181291   7.891  11.658   0.750
59798SOL    HW281292   7.933  11.789   0.812
59799SOL     OW81293   7.306   5.059  12.905
59799SOL    HW181294   7.390   5.025  12.934
59799SOL    HW281295   7.272   4.992  12.847
59800SOL     OW81296  10.101   9.020   2.605
59800SOL    HW181297  10.014   9.044   2.638
59800SOL    HW281298  10.143   9.103   2.585
59801SOL     OW81299   0.393  13.340   5.583
59801SOL    HW181300   0.395  13.251   5.618
59801SOL    HW281301   0.468  13.383   5.625
59802SOL     OW81302  10.022   2.081  12.855
59802SOL    HW181303   9.958   2.011  12.868
59802SOL    HW281304  10.065   2.060  12.773
59803SOL     OW81305   2.805   7.043   3.393
59803SOL    HW181306   2.728   7.031   3.450
59803SOL    HW281307   2.791   7.128   3.351
59804SOL     OW81308   7.287   1.357   8.958
59804SOL    HW181309   7.249   1.334   8.873
59804SOL    HW281310   7.375   1.388   8.936
59805SOL     OW81311   4.980   4.828   9.072
59805SOL    HW181312   4.984   4.866   8.984
59805SOL    HW281313   5.018   4.896   9.129
59806SOL     OW81314  13.363  10.683  12.746
59806SOL    HW181315  13.452  10.675  12.780
59806SOL    HW281316  13.307  10.667  12.822
59807SOL     OW81317   5.021   3.619   7.248
59807SOL    HW181318   4.980   3.650   7.329
59807SOL    HW281319   5.062   3.698   7.211
59808SOL     OW81320   0.034   4.416   5.133
59808SOL    HW181321   0.116   4.368   5.120
59808SOL    HW281322  14.837   4.349   5.148
59809SOL     OW81323   4.144  12.879   4.691
59809SOL    HW181324   4.182  12.966   4.683
59809SOL    HW281325   4.215  12.824   4.723
59810SOL     OW81326   1.322   0.065   9.614
59810SOL    HW181327   1.319   0.051   9.519
59810SOL    HW281328   1.281  14.857   9.651
59811SOL     OW81329  11.132  12.948  13.619
59811SOL    HW181330  11.122  12.963  13.713
59811SOL    HW281331  11.134  12.853  13.609
59812SOL     OW81332  10.982   8.425  11.527
59812SOL    HW181333  10.899   8.454  11.489
59812SOL    HW281334  11.010   8.353  11.471
59813SOL     OW81335   9.941   4.433   8.023
59813SOL    HW181336   9.911   4.350   7.986
59813SOL    HW281337   9.989   4.475   7.951
59814SOL     OW81338   3.773   6.176   8.753
59814SOL    HW181339   3.696   6.138   8.795
59814SOL    HW281340   3.835   6.190   8.825
59815SOL     OW81341   8.637  11.101  11.678
59815SOL    HW181342   8.608  11.140  11.761
59815SOL    HW281343   8.574  11.031  11.662
59816SOL     OW81344   3.502   7.545   9.827
59816SOL    HW181345   3.583   7.594   9.839
59816SOL    HW281346   3.526   7.471   9.773
59817SOL     OW81347   8.705   5.454  12.796
59817SOL    HW181348   8.763   5.402  12.851
59817SOL    HW281349   8.686   5.397  12.721
59818SOL     OW81350   8.124   1.421  14.638
59818SOL    HW181351   8.150   1.336  14.603
59818SOL    HW281352   8.099   1.472  14.561
59819SOL     OW81353   7.475  12.361  10.965
59819SOL    HW181354   7.402  12.339  10.907
59819SOL    HW281355   7.448  12.441  11.010
59820SOL     OW81356  12.368   3.380  11.071
59820SOL    HW181357  12.296   3.440  11.092
59820SOL    HW281358  12.417   3.426  11.002
59821SOL     OW81359   8.383   1.375   8.028
59821SOL    HW181360   8.413   1.331   8.108
59821SOL    HW281361   8.444   1.449   8.018
59822SOL     OW81362   0.483   2.986   0.478
59822SOL    HW181363   0.541   3.035   0.537
59822SOL    HW281364   0.468   2.903   0.523
59823SOL     OW81365   8.364   9.233   5.122
59823SOL    HW181366   8.425   9.306   5.109
59823SOL    HW281367   8.282   9.275   5.148
59824SOL     OW81368   1.658   6.482   2.661
59824SOL    HW181369   1.725   6.519   2.718
59824SOL    HW281370   1.576   6.495   2.709
59825SOL     OW81371  14.156  12.608   9.056
59825SOL    HW181372  14.203  12.675   9.007
59825SOL    HW281373  14.159  12.639   9.147
59826SOL     OW81374   5.285   2.167   7.866
59826SOL    HW181375   5.289   2.188   7.773
59826SOL    HW281376   5.303   2.250   7.910
59827SOL     OW81377   6.014   4.124   4.539
59827SOL    HW181378   6.106   4.150   4.546
59827SOL    HW281379   6.016   4.037   4.500
59828SOL     OW81380   0.868   0.735   9.023
59828SOL    HW181381   0.941   0.729   8.962
59828SOL    HW281382   0.861   0.647   9.061
59829SOL     OW81383   8.848   1.597   9.891
59829SOL    HW181384   8.828   1.646   9.971
59829SOL    HW281385   8.780   1.624   9.829
59830SOL     OW81386   5.646   9.990  11.058
59830SOL    HW181387   5.736   9.965  11.079
59830SOL    HW281388   5.653  10.081  11.029
59831SOL     OW81389   1.221   1.557   3.544
59831SOL    HW181390   1.191   1.574   3.633
59831SOL    HW281391   1.289   1.623   3.529
59832SOL     OW81392   1.961   0.643   5.160
59832SOL    HW181393   1.935   0.639   5.068
59832SOL    HW281394   2.054   0.619   5.159
59833SOL     OW81395   2.976   2.103  13.878
59833SOL    HW181396   2.915   2.093  13.805
59833SOL    HW281397   3.005   2.014  13.897
59834SOL     OW81398   0.673   4.074   3.874
59834SOL    HW181399   0.767   4.081   3.890
59834SOL    HW281400   0.653   3.982   3.892
59835SOL     OW81401   8.977   3.609   9.630
59835SOL    HW181402   8.991   3.686   9.575
59835SOL    HW281403   8.886   3.584   9.613
59836SOL     OW81404   2.526   9.937   9.579
59836SOL    HW181405   2.491  10.026   9.573
59836SOL    HW281406   2.487   9.901   9.658
59837SOL     OW81407   2.247   2.402  11.421
59837SOL    HW181408   2.214   2.488  11.448
59837SOL    HW281409   2.341   2.407  11.432
59838SOL     OW81410  13.892  10.335  13.003
59838SOL    HW181411  13.979  10.375  13.009
59838SOL    HW281412  13.901  10.267  12.937
59839SOL     OW81413  13.695   4.597   9.896
59839SOL    HW181414  13.705   4.601   9.801
59839SOL    HW281415  13.729   4.681   9.926
59840SOL     OW81416  10.579   9.641   1.759
59840SOL    HW181417  10.492   9.620   1.724
59840SOL    HW281418  10.594   9.732   1.732
59841SOL     OW81419   5.068   3.953   9.000
59841SOL    HW181420   5.058   3.860   8.978
59841SOL    HW281421   4.978   3.984   9.011
59842SOL     OW81422   3.219   1.747  14.219
59842SOL    HW181423   3.249   1.708  14.301
59842SOL    HW281424   3.299   1.767  14.171
59843SOL     OW81425   6.687  12.764  13.000
59843SOL    HW181426   6.652  12.677  13.016
59843SOL    HW281427   6.616  12.810  12.954
59844SOL     OW81428  12.769   1.343   1.031
59844SOL    HW181429  12.675   1.326   1.033
59844SOL    HW281430  12.794   1.329   0.939
59845SOL     OW81431   7.524   8.338  12.582
59845SOL    HW181432   7.483   8.347  12.495
59845SOL    HW281433   7.515   8.245  12.603
59846SOL     OW81434   2.589  10.369   6.225
59846SOL    HW181435   2.604  10.443   6.165
59846SOL    HW281436   2.566  10.296   6.167
59847SOL     OW81437   4.694  10.733  11.229
59847SOL    HW181438   4.773  10.774  11.265
59847SOL    HW281439   4.717  10.640  11.221
59848SOL     OW81440   7.351  12.473   4.396
59848SOL    HW181441   7.429  12.435   4.437
59848SOL    HW281442   7.373  12.480   4.304
59849SOL     OW81443  10.162   1.109   4.792
59849SOL    HW181444  10.237   1.162   4.820
59849SOL    HW281445  10.125   1.157   4.718
59850SOL     OW81446   6.858  13.008   9.917
59850SOL    HW181447   6.875  13.097   9.949
59850SOL    HW281448   6.794  12.973   9.979
59851SOL     OW81449   5.123  11.591  13.488
59851SOL    HW181450   5.096  11.514  13.538
59851SOL    HW281451   5.217  11.579  13.475
59852SOL     OW81452   4.095  13.577   3.340
59852SOL    HW181453   4.103  13.495   3.291
59852SOL    HW281454   4.129  13.557   3.427
59853SOL     OW81455   1.193   9.807  14.403
59853SOL    HW181456   1.199   9.715  14.430
59853SOL    HW281457   1.225   9.807  14.313
59854SOL     OW81458   0.308   0.878   6.431
59854SOL    HW181459   0.381   0.857   6.489
59854SOL    HW281460   0.240   0.815   6.455
59855SOL     OW81461  10.753   8.455   5.066
59855SOL    HW181462  10.693   8.530   5.068
59855SOL    HW281463  10.700   8.384   5.029
59856SOL     OW81464   1.997   4.534  14.535
59856SOL    HW181465   1.929   4.557  14.599
59856SOL    HW281466   2.076   4.577  14.568
59857SOL     OW81467   8.288   2.174   7.967
59857SOL    HW181468   8.308   2.252   8.020
59857SOL    HW281469   8.243   2.115   8.027
59858SOL     OW81470  11.531   3.626   0.354
59858SOL    HW181471  11.519   3.623   0.259
59858SOL    HW281472  11.527   3.719   0.376
59859SOL     OW81473   9.726  11.309   5.066
59859SOL    HW181474   9.747  11.299   4.973
59859SOL    HW281475   9.646  11.258   5.077
59860SOL     OW81476   0.494  11.587   9.853
59860SOL    HW181477   0.472  11.652   9.786
59860SOL    HW281478   0.415  11.580   9.906
59861SOL     OW81479   1.904  11.087   9.026
59861SOL    HW181480   1.977  11.070   9.084
59861SOL    HW281481   1.944  11.121   8.946
59862SOL     OW81482   0.604  10.146   1.967
59862SOL    HW181483   0.602  10.200   1.888
59862SOL    HW281484   0.512  10.132   1.989
59863SOL     OW81485  12.431   0.340  11.488
59863SOL    HW181486  12.408   0.262  11.539
59863SOL    HW281487  12.365   0.405  11.512
59864SOL     OW81488   6.091   6.467   3.809
59864SOL    HW181489   6.111   6.377   3.836
59864SOL    HW281490   6.018   6.459   3.747
59865SOL     OW81491   3.139   4.681   1.125
59865SOL    HW181492   3.148   4.775   1.112
59865SOL    HW281493   3.172   4.665   1.214
59866SOL     OW81494   8.048  14.521  14.493
59866SOL    HW181495   8.126  14.472  14.520
59866SOL    HW281496   8.075  14.612  14.495
59867SOL     OW81497   1.178  11.034   6.877
59867SOL    HW181498   1.136  11.109   6.835
59867SOL    HW281499   1.245  11.072   6.933
59868SOL     OW81500   9.171   0.356   6.408
59868SOL    HW181501   9.250   0.311   6.438
59868SOL    HW281502   9.170   0.438   6.459
59869SOL     OW81503  11.181   7.035   0.765
59869SOL    HW181504  11.137   6.996   0.840
59869SOL    HW281505  11.124   7.106   0.737
59870SOL     OW81506   5.688   2.241   7.707
59870SOL    HW181507   5.631   2.286   7.644
59870SOL    HW281508   5.707   2.307   7.773
59871SOL     OW81509  12.608   2.119  13.021
59871SOL    HW181510  12.534   2.126  13.082
59871SOL    HW281511  12.609   2.027  12.994
59872SOL     OW81512   9.243  12.571  10.567
59872SOL    HW181513   9.208  12.590  10.479
59872SOL    HW281514   9.324  12.621  10.572
59873SOL     OW81515  14.449   2.823   3.361
59873SOL    HW181516  14.387   2.815   3.289
59873SOL    HW281517  14.430   2.909   3.399
59874SOL     OW81518   1.082   3.179   5.548
59874SOL    HW181519   1.149   3.141   5.604
59874SOL    HW281520   1.070   3.115   5.478
59875SOL     OW81521   3.647  11.168   8.902
59875SOL    HW181522   3.669  11.088   8.951
59875SOL    HW281523   3.557  11.187   8.927
59876SOL     OW81524  10.750   0.143  10.404
59876SOL    HW181525  10.767   0.152  10.310
59876SOL    HW281526  10.692   0.216  10.425
59877SOL     OW81527  14.207   3.270   3.440
59877SOL    HW181528  14.298   3.267   3.411
59877SOL    HW281529  14.178   3.359   3.419
59878SOL     OW81530   8.403   2.112  11.851
59878SOL    HW181531   8.455   2.149  11.922
59878SOL    HW281532   8.328   2.071  11.895
59879SOL     OW81533  13.219   0.129   5.342
59879SOL    HW181534  13.187   0.210   5.381
59879SOL    HW281535  13.232   0.070   5.416
59880SOL     OW81536  14.136   6.466   6.852
59880SOL    HW181537  14.207   6.432   6.796
59880SOL    HW281538  14.081   6.516   6.791
59881SOL     OW81539  12.882  14.603   0.927
59881SOL    HW181540  12.808  14.639   0.976
59881SOL    HW281541  12.927  14.546   0.989
59882SOL     OW81542  12.418   8.101   2.352
59882SOL    HW181543  12.404   8.184   2.398
59882SOL    HW281544  12.506   8.074   2.379
59883SOL     OW81545  11.512  12.793  12.426
59883SOL    HW181546  11.453  12.722  12.403
59883SOL    HW281547  11.455  12.870  12.435
59884SOL     OW81548  10.671   6.665   4.371
59884SOL    HW181549  10.717   6.582   4.362
59884SOL    HW281550  10.597   6.658   4.310
59885SOL     OW81551   0.917  11.127  11.702
59885SOL    HW181552   0.931  11.093  11.790
59885SOL    HW281553   0.972  11.206  11.698
59886SOL     OW81554  11.745   4.473   4.729
59886SOL    HW181555  11.840   4.458   4.733
59886SOL    HW281556  11.710   4.424   4.804
59887SOL     OW81557  14.378   4.128  11.088
59887SOL    HW181558  14.336   4.117  11.002
59887SOL    HW281559  14.385   4.039  11.122
59888SOL     OW81560   3.234   8.335   8.184
59888SOL    HW181561   3.330   8.327   8.186
59888SOL    HW281562   3.212   8.373   8.269
59889SOL     OW81563   5.042  12.601  12.682
59889SOL    HW181564   5.096  12.668  12.639
59889SOL    HW281565   5.001  12.646  12.756
59890SOL     OW81566   4.541  13.656   6.406
59890SOL    HW181567   4.487  13.635   6.329
59890SOL    HW281568   4.511  13.595   6.473
59891SOL     OW81569   1.102   9.640   9.085
59891SOL    HW181570   1.058   9.662   9.167
59891SOL    HW281571   1.169   9.708   9.075
59892SOL     OW81572   8.231   8.638  14.432
59892SOL    HW181573   8.208   8.550  14.460
59892SOL    HW281574   8.180   8.653  14.353
59893SOL     OW81575   2.292   3.196   0.067
59893SOL    HW181576   2.301   3.259  14.865
59893SOL    HW281577   2.231   3.130   0.034
59894SOL     OW81578   0.905   0.060   2.435
59894SOL    HW181579   0.811   0.038   2.432
59894SOL    HW281580   0.924   0.070   2.528
59895SOL     OW81581  11.052   1.997   6.071
59895SOL    HW181582  11.028   2.018   6.162
59895SOL    HW281583  11.073   1.904   6.074
59896SOL     OW81584   7.882  12.839   3.320
59896SOL    HW181585   7.805  12.857   3.266
59896SOL    HW281586   7.950  12.897   3.286
59897SOL     OW81587  10.530  14.536   7.280
59897SOL    HW181588  10.443  14.499   7.290
59897SOL    HW281589  10.519  14.630   7.296
59898SOL     OW81590   7.406   2.307   3.433
59898SOL    HW181591   7.341   2.237   3.423
59898SOL    HW281592   7.477   2.282   3.374
59899SOL     OW81593  11.732   6.992   3.250
59899SOL    HW181594  11.774   7.069   3.211
59899SOL    HW281595  11.785   6.972   3.326
59900SOL     OW81596   2.128  13.646   1.702
59900SOL    HW181597   2.204  13.688   1.662
59900SOL    HW281598   2.086  13.716   1.753
59901SOL     OW81599   7.268   4.872   6.929
59901SOL    HW181600   7.309   4.943   6.880
59901SOL    HW281601   7.250   4.909   7.015
59902SOL     OW81602   4.070   6.658   1.485
59902SOL    HW181603   3.981   6.681   1.511
59902SOL    HW281604   4.075   6.563   1.499
59903SOL     OW81605   9.774   1.151   6.152
59903SOL    HW181606   9.718   1.228   6.163
59903SOL    HW281607   9.836   1.156   6.225
59904SOL     OW81608   9.847  11.767   6.605
59904SOL    HW181609   9.804  11.843   6.645
59904SOL    HW281610   9.775  11.705   6.590
59905SOL     OW81611   4.931   6.425  11.580
59905SOL    HW181612   4.841   6.392  11.572
59905SOL    HW281613   4.940   6.445  11.673
59906SOL     OW81614   2.943   2.252   5.159
59906SOL    HW181615   2.875   2.319   5.150
59906SOL    HW281616   2.982   2.269   5.245
59907SOL     OW81617   7.880  12.724   4.430
59907SOL    HW181618   7.870  12.667   4.506
59907SOL    HW281619   7.935  12.675   4.370
59908SOL     OW81620   8.034  14.668   7.908
59908SOL    HW181621   8.058  14.583   7.945
59908SOL    HW281622   7.980  14.709   7.975
59909SOL     OW81623  12.691  11.341  10.647
59909SOL    HW181624  12.674  11.348  10.741
59909SOL    HW281625  12.625  11.398  10.607
59910SOL     OW81626   9.647   8.278   5.991
59910SOL    HW181627   9.607   8.315   6.070
59910SOL    HW281628   9.604   8.323   5.918
59911SOL     OW81629   9.269   6.235   3.521
59911SOL    HW181630   9.188   6.197   3.554
59911SOL    HW281631   9.281   6.195   3.435
59912SOL     OW81632   3.707  11.704  14.695
59912SOL    HW181633   3.664  11.778  14.653
59912SOL    HW281634   3.652  11.628  14.673
59913SOL     OW81635  11.201   4.163  14.654
59913SOL    HW181636  11.232   4.171  14.564
59913SOL    HW281637  11.280   4.146  14.705
59914SOL     OW81638  11.116   7.688   6.286
59914SOL    HW181639  11.086   7.621   6.225
59914SOL    HW281640  11.151   7.758   6.230
59915SOL     OW81641   0.311   6.124  10.076
59915SOL    HW181642   0.347   6.210  10.052
59915SOL    HW281643   0.217   6.139  10.086
59916SOL     OW81644   0.780   2.635  11.643
59916SOL    HW181645   0.775   2.650  11.738
59916SOL    HW281646   0.774   2.723  11.605
59917SOL     OW81647   6.687   9.638  10.312
59917SOL    HW181648   6.639   9.721  10.316
59917SOL    HW281649   6.775   9.660  10.343
59918SOL     OW81650   9.140   0.908  12.174
59918SOL    HW181651   9.177   0.996  12.182
59918SOL    HW281652   9.214   0.852  12.152
59919SOL     OW81653   5.106  10.533   1.465
59919SOL    HW181654   5.170  10.561   1.398
59919SOL    HW281655   5.122  10.592   1.539
59920SOL     OW81656  11.301   2.500  12.656
59920SOL    HW181657  11.227   2.549  12.619
59920SOL    HW281658  11.376   2.560  12.645
59921SOL     OW81659   7.683   6.669   4.353
59921SOL    HW181660   7.690   6.700   4.263
59921SOL    HW281661   7.773   6.655   4.381
59922SOL     OW81662  14.360   3.880   5.585
59922SOL    HW181663  14.292   3.822   5.617
59922SOL    HW281664  14.414   3.898   5.661
59923SOL     OW81665  12.500   2.557  12.055
59923SOL    HW181666  12.553   2.636  12.066
59923SOL    HW281667  12.427   2.570  12.116
59924SOL     OW81668  14.697   1.363   8.352
59924SOL    HW181669  14.719   1.272   8.331
59924SOL    HW281670  14.608   1.359   8.387
59925SOL     OW81671   2.595  12.056  13.490
59925SOL    HW181672   2.659  12.040  13.559
59925SOL    HW281673   2.645  12.050  13.408
59926SOL     OW81674   5.045  13.774   0.555
59926SOL    HW181675   5.070  13.688   0.590
59926SOL    HW281676   5.074  13.771   0.464
59927SOL     OW81677   7.165   8.790  12.367
59927SOL    HW181678   7.172   8.838  12.450
59927SOL    HW281679   7.091   8.731  12.380
59928SOL     OW81680  13.745   1.315  10.625
59928SOL    HW181681  13.741   1.378  10.697
59928SOL    HW281682  13.758   1.231  10.668
59929SOL     OW81683   9.464   2.053   5.862
59929SOL    HW181684   9.526   2.024   5.930
59929SOL    HW281685   9.379   2.052   5.905
59930SOL     OW81686   8.162   6.699   9.203
59930SOL    HW181687   8.140   6.620   9.253
59930SOL    HW281688   8.097   6.763   9.229
59931SOL     OW81689  13.912  10.296  11.508
59931SOL    HW181690  13.926  10.242  11.585
59931SOL    HW281691  13.851  10.246  11.453
59932SOL     OW81692   0.218  10.232   9.813
59932SOL    HW181693   0.258  10.268   9.734
59932SOL    HW281694   0.204  10.308   9.870
59933SOL     OW81695   1.398  13.767   2.816
59933SOL    HW181696   1.316  13.792   2.774
59933SOL    HW281697   1.419  13.681   2.781
59934SOL     OW81698   8.188  10.855   2.708
59934SOL    HW181699   8.214  10.907   2.785
59934SOL    HW281700   8.143  10.917   2.651
59935SOL     OW81701   4.804   5.968   7.195
59935SOL    HW181702   4.748   6.005   7.127
59935SOL    HW281703   4.769   6.002   7.277
59936SOL     OW81704   0.559  11.304  14.251
59936SOL    HW181705   0.487  11.342  14.201
59936SOL    HW281706   0.634  11.362  14.234
59937SOL     OW81707   3.539   8.893   7.760
59937SOL    HW181708   3.505   8.938   7.683
59937SOL    HW281709   3.528   8.956   7.831
59938SOL     OW81710  14.225  10.710   4.014
59938SOL    HW181711  14.155  10.645   4.004
59938SOL    HW281712  14.303  10.657   4.032
59939SOL     OW81713   2.133   9.867   1.121
59939SOL    HW181714   2.138   9.950   1.073
59939SOL    HW281715   2.196   9.811   1.076
59940SOL     OW81716   1.317   1.196   7.297
59940SOL    HW181717   1.406   1.191   7.264
59940SOL    HW281718   1.286   1.282   7.269
59941SOL     OW81719   5.245   1.859  14.466
59941SOL    HW181720   5.325   1.809  14.451
59941SOL    HW281721   5.273   1.933  14.521
59942SOL     OW81722   8.784   5.444  10.878
59942SOL    HW181723   8.803   5.525  10.925
59942SOL    HW281724   8.866   5.394  10.883
59943SOL     OW81725   1.498  13.237   6.404
59943SOL    HW181726   1.494  13.202   6.493
59943SOL    HW281727   1.440  13.313   6.406
59944SOL     OW81728   2.093   4.150   0.815
59944SOL    HW181729   2.003   4.120   0.808
59944SOL    HW281730   2.088   4.233   0.862
59945SOL     OW81731   0.068   7.139   0.336
59945SOL    HW181732   0.063   7.115   0.429
59945SOL    HW281733   0.059   7.055   0.290
59946SOL     OW81734   5.317   4.461  10.198
59946SOL    HW181735   5.406   4.461  10.232
59946SOL    HW281736   5.291   4.369  10.200
59947SOL     OW81737   4.133   0.059  11.646
59947SOL    HW181738   4.208   0.107  11.610
59947SOL    HW281739   4.129   0.089  11.737
59948SOL     OW81740  13.309   9.972   5.208
59948SOL    HW181741  13.237   9.994   5.267
59948SOL    HW281742  13.278   9.896   5.160
59949SOL     OW81743  14.537  12.526  10.636
59949SOL    HW181744  14.487  12.606  10.653
59949SOL    HW281745  14.501  12.493  10.554
59950SOL     OW81746   5.590   6.114  12.684
59950SOL    HW181747   5.597   6.020  12.697
59950SOL    HW281748   5.496   6.131  12.682
59951SOL     OW81749  10.147   2.334  10.763
59951SOL    HW181750  10.216   2.318  10.827
59951SOL    HW281751  10.180   2.404  10.708
59952SOL     OW81752  10.497   7.348  11.202
59952SOL    HW181753  10.441   7.316  11.131
59952SOL    HW281754  10.438   7.354  11.277
59953SOL     OW81755   8.969  14.426   1.498
59953SOL    HW181756   9.020  14.349   1.475
59953SOL    HW281757   9.017  14.467   1.569
59954SOL     OW81758  12.899   5.674   2.507
59954SOL    HW181759  12.973   5.667   2.446
59954SOL    HW281760  12.844   5.742   2.469
59955SOL     OW81761   2.225   8.104  12.203
59955SOL    HW181762   2.178   8.026  12.176
59955SOL    HW281763   2.222   8.102  12.299
59956SOL     OW81764   9.036   3.867   1.927
59956SOL    HW181765   9.025   3.961   1.942
59956SOL    HW281766   8.988   3.826   1.998
59957SOL     OW81767   4.854   4.023   2.779
59957SOL    HW181768   4.864   4.118   2.789
59957SOL    HW281769   4.943   3.992   2.762
59958SOL     OW81770  14.727  14.347   7.385
59958SOL    HW181771  14.806  14.296   7.404
59958SOL    HW281772  14.667  14.324   7.456
59959SOL     OW81773   8.170   5.477  10.474
59959SOL    HW181774   8.181   5.558  10.424
59959SOL    HW281775   8.238   5.418  10.439
59960SOL     OW81776   6.822   2.968  13.008
59960SOL    HW181777   6.783   3.043  12.962
59960SOL    HW281778   6.891   2.937  12.950
59961SOL     OW81779   3.472   3.657  11.889
59961SOL    HW181780   3.567   3.657  11.895
59961SOL    HW281781   3.445   3.738  11.932
59962SOL     OW81782   9.209  12.111  13.269
59962SOL    HW181783   9.116  12.115  13.290
59962SOL    HW281784   9.254  12.130  13.351
59963SOL     OW81785   8.151   7.305  11.396
59963SOL    HW181786   8.056   7.296  11.409
59963SOL    HW281787   8.169   7.253  11.318
59964SOL     OW81788   3.227   4.255  13.030
59964SOL    HW181789   3.159   4.312  13.064
59964SOL    HW281790   3.265   4.212  13.107
59965SOL     OW81791   9.004   5.942   2.891
59965SOL    HW181792   8.990   5.923   2.984
59965SOL    HW281793   9.073   5.883   2.864
59966SOL     OW81794   9.609  11.075   1.761
59966SOL    HW181795   9.677  11.116   1.708
59966SOL    HW281796   9.597  11.135   1.834
59967SOL     OW81797   9.575   6.389   1.499
59967SOL    HW181798   9.566   6.295   1.515
59967SOL    HW281799   9.499   6.411   1.445
59968SOL     OW81800  10.332  10.435   0.624
59968SOL    HW181801  10.417  10.457   0.662
59968SOL    HW281802  10.328  10.339   0.627
59969SOL     OW81803  10.905  14.591   4.703
59969SOL    HW181804  10.947  14.652   4.762
59969SOL    HW281805  10.823  14.567   4.747
59970SOL     OW81806   2.212   9.268   1.908
59970SOL    HW181807   2.157   9.292   1.833
59970SOL    HW281808   2.253   9.185   1.883
59971SOL     OW81809   3.551   0.576   7.207
59971SOL    HW181810   3.586   0.567   7.118
59971SOL    HW281811   3.510   0.662   7.208
59972SOL     OW81812  11.989   9.893   7.006
59972SOL    HW181813  12.079   9.867   7.025
59972SOL    HW281814  11.946   9.812   6.979
59973SOL     OW81815   0.137  10.680   7.160
59973SOL    HW181816   0.222  10.639   7.143
59973SOL    HW281817   0.137  10.759   7.107
59974SOL     OW81818  12.296   0.972   7.193
59974SOL    HW181819  12.265   1.058   7.165
59974SOL    HW281820  12.351   0.990   7.269
59975SOL     OW81821   2.465   2.449  13.775
59975SOL    HW181822   2.504   2.536  13.769
59975SOL    HW281823   2.506   2.410  13.853
59976SOL     OW81824   0.723   3.419   1.782
59976SOL    HW181825   0.637   3.440   1.820
59976SOL    HW281826   0.770   3.376   1.853
59977SOL     OW81827   8.953  14.504  12.153
59977SOL    HW181828   8.999  14.518  12.071
59977SOL    HW281829   8.887  14.574  12.156
59978SOL     OW81830   8.240  13.614  14.320
59978SOL    HW181831   8.236  13.708  14.305
59978SOL    HW281832   8.309  13.603  14.385
59979SOL     OW81833   5.274   9.711   0.882
59979SOL    HW181834   5.254   9.704   0.975
59979SOL    HW281835   5.272   9.805   0.863
59980SOL     OW81836  10.488   1.561  12.709
59980SOL    HW181837  10.565   1.537  12.657
59980SOL    HW281838  10.467   1.650  12.682
59981SOL     OW81839   2.099   4.427   1.713
59981SOL    HW181840   2.116   4.457   1.802
59981SOL    HW281841   2.004   4.421   1.707
59982SOL     OW81842   5.092   1.619  14.569
59982SOL    HW181843   5.144   1.691  14.534
59982SOL    HW281844   5.137   1.540  14.540
59983SOL     OW81845   7.699   0.431   1.804
59983SOL    HW181846   7.750   0.485   1.743
59983SOL    HW281847   7.760   0.410   1.874
59984SOL     OW81848   4.458   7.351  13.652
59984SOL    HW181849   4.363   7.342  13.640
59984SOL    HW281850   4.467   7.432  13.703
59985SOL     OW81851   9.983  10.104   3.703
59985SOL    HW181852   9.896  10.134   3.678
59985SOL    HW281853   9.967  10.034   3.767
59986SOL     OW81854   7.451   1.519   0.338
59986SOL    HW181855   7.375   1.537   0.282
59986SOL    HW281856   7.443   1.581   0.410
59987SOL     OW81857  11.426   0.268   5.044
59987SOL    HW181858  11.443   0.258   5.137
59987SOL    HW281859  11.485   0.337   5.015
59988SOL     OW81860  11.938   3.700   1.058
59988SOL    HW181861  12.006   3.767   1.060
59988SOL    HW281862  11.878   3.729   0.989
59989SOL     OW81863   2.697   9.739   5.252
59989SOL    HW181864   2.645   9.661   5.271
59989SOL    HW281865   2.635   9.811   5.257
59990SOL     OW81866   8.861  10.481   6.313
59990SOL    HW181867   8.779  10.457   6.270
59990SOL    HW281868   8.840  10.560   6.362
59991SOL     OW81869   5.937   7.574   9.818
59991SOL    HW181870   6.017   7.625   9.830
59991SOL    HW281871   5.968   7.484   9.806
59992SOL     OW81872   6.962   9.500  11.021
59992SOL    HW181873   6.919   9.584  11.001
59992SOL    HW281874   7.012   9.518  11.101
59993SOL     OW81875   5.373   2.978   0.170
59993SOL    HW181876   5.317   3.056   0.171
59993SOL    HW281877   5.421   2.983   0.088
59994SOL     OW81878   8.052   3.540   5.873
59994SOL    HW181879   8.124   3.510   5.929
59994SOL    HW281880   7.989   3.468   5.875
59995SOL     OW81881   0.334   1.729   1.487
59995SOL    HW181882   0.261   1.769   1.534
59995SOL    HW281883   0.374   1.669   1.550
59996SOL     OW81884   6.524   4.105  10.559
59996SOL    HW181885   6.440   4.071  10.590
59996SOL    HW281886   6.512   4.200  10.555
59997SOL     OW81887  13.645  10.472   3.175
59997SOL    HW181888  13.671  10.448   3.086
59997SOL    HW281889  13.567  10.419   3.191
59998SOL     OW81890   9.875   0.057  13.127
59998SOL    HW181891   9.871  14.833  13.148
59998SOL    HW281892   9.809   0.097  13.184
59999SOL     OW81893   0.119   9.237   4.734
59999SOL    HW181894   0.197   9.214   4.785
59999SOL    HW281895   0.111   9.167   4.670
60000SOL     OW81896   3.118   2.174   1.274
60000SOL    HW181897   3.116   2.248   1.214
60000SOL    HW281898   3.083   2.101   1.223
60001SOL     OW81899   7.220   8.909   0.622
60001SOL    HW181900   7.164   8.930   0.697
60001SOL    HW281901   7.307   8.898   0.659
60002SOL     OW81902  11.385   0.725   5.728
60002SOL    HW181903  11.307   0.707   5.677
60002SOL    HW281904  11.430   0.795   5.680
60003SOL     OW81905  10.934   4.957   7.987
60003SOL    HW181906  10.885   4.921   7.913
60003SOL    HW281907  10.884   5.034   8.014
60004SOL     OW81908  13.721   3.337  12.158
60004SOL    HW181909  13.696   3.249  12.129
60004SOL    HW281910  13.690   3.343  12.248
60005SOL     OW81911  11.550   5.751   1.308
60005SOL    HW181912  11.463   5.789   1.319
60005SOL    HW281913  11.608   5.805   1.362
60006SOL     OW81914  14.053   5.515  10.390
60006SOL    HW181915  14.132   5.478  10.351
60006SOL    HW281916  14.029   5.453  10.459
60007SOL     OW81917  11.177   9.716  10.658
60007SOL    HW181918  11.262   9.688  10.624
60007SOL    HW281919  11.189   9.720  10.753
60008SOL     OW81920   5.880  10.837   3.671
60008SOL    HW181921   5.884  10.908   3.736
60008SOL    HW281922   5.967  10.837   3.631
60009SOL     OW81923   1.582  14.724   3.579
60009SOL    HW181924   1.570  14.728   3.484
60009SOL    HW281925   1.673  14.751   3.593
60010SOL     OW81926   1.208  11.154   5.006
60010SOL    HW181927   1.187  11.060   5.010
60010SOL    HW281928   1.192  11.177   4.915
60011SOL     OW81929  13.635   3.779   5.824
60011SOL    HW181930  13.612   3.835   5.899
60011SOL    HW281931  13.560   3.720   5.815
60012SOL     OW81932   3.450  14.599  14.713
60012SOL    HW181933   3.465  14.670  14.776
60012SOL    HW281934   3.367  14.622  14.672
60013SOL     OW81935   0.374   1.186  13.633
60013SOL    HW181936   0.398   1.272  13.668
60013SOL    HW281937   0.279   1.192  13.620
60014SOL     OW81938   1.349  13.329   7.725
60014SOL    HW181939   1.259  13.357   7.705
60014SOL    HW281940   1.341  13.235   7.742
60015SOL     OW81941   7.785   1.855  11.862
60015SOL    HW181942   7.822   1.772  11.891
60015SOL    HW281943   7.758   1.899  11.943
60016SOL     OW81944   4.241   9.092   8.183
60016SOL    HW181945   4.241   9.038   8.261
60016SOL    HW281946   4.148   9.107   8.164
60017SOL     OW81947   5.842   9.305   1.531
60017SOL    HW181948   5.818   9.253   1.608
60017SOL    HW281949   5.759   9.343   1.501
60018SOL     OW81950   3.932   0.167   1.203
60018SOL    HW181951   3.930   0.079   1.240
60018SOL    HW281952   4.021   0.177   1.169
60019SOL     OW81953   0.327   3.164   1.190
60019SOL    HW181954   0.287   3.140   1.106
60019SOL    HW281955   0.259   3.215   1.234
60020SOL     OW81956  13.935   0.456   1.314
60020SOL    HW181957  13.923   0.497   1.400
60020SOL    HW281958  13.997   0.512   1.269
60021SOL     OW81959   2.858   6.391   0.199
60021SOL    HW181960   2.768   6.410   0.227
60021SOL    HW281961   2.904   6.474   0.213
60022SOL     OW81962   5.962   7.314   4.916
60022SOL    HW181963   6.019   7.391   4.924
60022SOL    HW281964   5.984   7.277   4.831
60023SOL     OW81965   6.605  11.977  10.609
60023SOL    HW181966   6.623  11.887  10.581
60023SOL    HW281967   6.539  12.008  10.547
60024SOL     OW81968   7.414   3.211   3.194
60024SOL    HW181969   7.480   3.222   3.126
60024SOL    HW281970   7.436   3.128   3.237
60025SOL     OW81971  11.561   1.727   0.921
60025SOL    HW181972  11.543   1.651   0.865
60025SOL    HW281973  11.507   1.797   0.884
60026SOL     OW81974   6.103  14.097   3.686
60026SOL    HW181975   6.088  14.033   3.755
60026SOL    HW281976   6.018  14.138   3.671
60027SOL     OW81977  12.498   6.805   4.154
60027SOL    HW181978  12.482   6.835   4.065
60027SOL    HW281979  12.589   6.827   4.171
60028SOL     OW81980   2.882   1.595   7.595
60028SOL    HW181981   2.834   1.551   7.525
60028SOL    HW281982   2.911   1.677   7.555
60029SOL     OW81983  13.421   9.599   9.866
60029SOL    HW181984  13.497   9.554   9.904
60029SOL    HW281985  13.458   9.663   9.805
60030SOL     OW81986  14.530   3.490   3.856
60030SOL    HW181987  14.455   3.503   3.798
60030SOL    HW281988  14.493   3.450   3.935
60031SOL     OW81989  10.853  14.487  13.268
60031SOL    HW181990  10.792  14.414  13.265
60031SOL    HW281991  10.867  14.511  13.177
60032SOL     OW81992   7.763   3.338  10.025
60032SOL    HW181993   7.848   3.375  10.001
60032SOL    HW281994   7.712   3.412  10.056
60033SOL     OW81995   2.853   6.617   8.306
60033SOL    HW181996   2.781   6.662   8.261
60033SOL    HW281997   2.832   6.627   8.399
60034SOL     OW81998   0.744   5.297   8.864
60034SOL    HW181999   0.659   5.259   8.843
60034SOL    HW282000   0.807   5.227   8.843
60035SOL     OW82001   2.678   1.553   0.552
60035SOL    HW182002   2.651   1.565   0.461
60035SOL    HW282003   2.685   1.641   0.588
60036SOL     OW82004   6.455   3.744   9.143
60036SOL    HW182005   6.360   3.749   9.133
60036SOL    HW282006   6.486   3.829   9.111
60037SOL     OW82007   4.276   2.033  12.401
60037SOL    HW182008   4.233   2.072  12.478
60037SOL    HW282009   4.367   2.063  12.407
60038SOL     OW82010  12.393   0.151  11.676
60038SOL    HW182011  12.421   0.203  11.752
60038SOL    HW282012  12.393   0.061  11.707
60039SOL     OW82013   1.032   3.904  12.851
60039SOL    HW182014   1.022   3.989  12.809
60039SOL    HW282015   0.995   3.841  12.789
60040SOL     OW82016  14.238   5.591   0.013
60040SOL    HW182017  14.185   5.581   0.092
60040SOL    HW282018  14.187   5.651  14.827
60041SOL     OW82019   8.506  13.322   5.061
60041SOL    HW182020   8.422  13.360   5.035
60041SOL    HW282021   8.548  13.299   4.978
60042SOL     OW82022   5.571  11.596   0.616
60042SOL    HW182023   5.529  11.637   0.541
60042SOL    HW282024   5.656  11.639   0.623
60043SOL     OW82025   8.305  14.460  14.213
60043SOL    HW182026   8.301  14.371  14.177
60043SOL    HW282027   8.225  14.502  14.181
60044SOL     OW82028   7.272   3.309   6.655
60044SOL    HW182029   7.332   3.374   6.618
60044SOL    HW282030   7.247   3.347   6.739
60045SOL     OW82031  13.008   4.745   1.148
60045SOL    HW182032  12.961   4.683   1.093
60045SOL    HW282033  13.075   4.692   1.191
60046SOL     OW82034   7.610   8.220   8.007
60046SOL    HW182035   7.629   8.127   8.014
60046SOL    HW282036   7.672   8.252   7.942
60047SOL     OW82037  11.530   5.912   3.313
60047SOL    HW182038  11.521   5.995   3.359
60047SOL    HW282039  11.622   5.909   3.287
60048SOL     OW82040   4.291   3.683  13.339
60048SOL    HW182041   4.225   3.684  13.270
60048SOL    HW282042   4.364   3.633  13.302
60049SOL     OW82043   9.031   3.139   5.539
60049SOL    HW182044   9.024   3.208   5.604
60049SOL    HW282045   9.015   3.183   5.455
60050SOL     OW82046  13.705  11.308  10.791
60050SOL    HW182047  13.728  11.241  10.727
60050SOL    HW282048  13.745  11.279  10.873
60051SOL     OW82049  13.270  12.749   6.522
60051SOL    HW182050  13.260  12.835   6.481
60051SOL    HW282051  13.336  12.761   6.590
60052SOL     OW82052   4.040   3.198   2.448
60052SOL    HW182053   3.947   3.220   2.453
60052SOL    HW282054   4.053   3.133   2.517
60053SOL     OW82055  10.412  14.402  10.187
60053SOL    HW182056  10.402  14.432  10.277
60053SOL    HW282057  10.461  14.472  10.143
60054SOL     OW82058   1.273  11.015  10.536
60054SOL    HW182059   1.228  11.011  10.452
60054SOL    HW282060   1.208  11.050  10.597
60055SOL     OW82061   1.940   9.978   8.697
60055SOL    HW182062   1.953  10.010   8.787
60055SOL    HW282063   1.848   9.998   8.678
60056SOL     OW82064   0.415   4.039   6.182
60056SOL    HW182065   0.461   3.961   6.150
60056SOL    HW282066   0.371   4.009   6.262
60057SOL     OW82067  10.546   2.096   7.431
60057SOL    HW182068  10.497   2.146   7.366
60057SOL    HW282069  10.635   2.132   7.426
60058SOL     OW82070   5.943  14.629   1.002
60058SOL    HW182071   6.003  14.580   0.946
60058SOL    HW282072   5.968  14.605   1.092
60059SOL     OW82073   2.552   5.892   3.173
60059SOL    HW182074   2.484   5.899   3.106
60059SOL    HW282075   2.508   5.851   3.247
60060SOL     OW82076   7.798  13.737  10.322
60060SOL    HW182077   7.857  13.798  10.366
60060SOL    HW282078   7.779  13.779  10.238
60061SOL     OW82079  11.744   8.214  10.944
60061SOL    HW182080  11.837   8.213  10.920
60061SOL    HW282081  11.745   8.207  11.040
60062SOL     OW82082  10.603   5.752   9.963
60062SOL    HW182083  10.511   5.760   9.937
60062SOL    HW282084  10.638   5.686   9.903
60063SOL     OW82085   4.901  12.601  11.484
60063SOL    HW182086   4.860  12.590  11.570
60063SOL    HW282087   4.987  12.560  11.493
60064SOL     OW82088  10.069  11.149   8.744
60064SOL    HW182089  10.002  11.114   8.684
60064SOL    HW282090  10.024  11.218   8.792
60065SOL     OW82091  12.125   0.515   0.746
60065SOL    HW182092  12.110   0.449   0.677
60065SOL    HW282093  12.085   0.595   0.711
60066SOL     OW82094   2.345  13.161   0.381
60066SOL    HW182095   2.367  13.088   0.323
60066SOL    HW282096   2.312  13.119   0.460
60067SOL     OW82097   3.943   9.670   9.949
60067SOL    HW182098   3.954   9.752   9.900
60067SOL    HW282099   4.032   9.645   9.974
60068SOL     OW82100   5.148   9.669  13.703
60068SOL    HW182101   5.163   9.647  13.611
60068SOL    HW282102   5.220   9.728  13.726
60069SOL     OW82103  12.365   7.182   5.407
60069SOL    HW182104  12.292   7.142   5.360
60069SOL    HW282105  12.332   7.269   5.431
60070SOL     OW82106   8.124   8.609   0.744
60070SOL    HW182107   8.169   8.679   0.790
60070SOL    HW282108   8.046   8.651   0.706
60071SOL     OW82109  14.264   9.985  10.262
60071SOL    HW182110  14.207  10.057  10.237
60071SOL    HW282111  14.262   9.926  10.186
60072SOL     OW82112   8.082   8.814  10.410
60072SOL    HW182113   8.090   8.836  10.503
60072SOL    HW282114   8.162   8.766  10.390
60073SOL     OW82115   8.543   1.548   6.413
60073SOL    HW182116   8.495   1.596   6.481
60073SOL    HW282117   8.487   1.473   6.393
60074SOL     OW82118  13.810   1.886   9.569
60074SOL    HW182119  13.753   1.865   9.495
60074SOL    HW282120  13.857   1.965   9.541
60075SOL     OW82121   4.076   6.521   4.677
60075SOL    HW182122   4.120   6.594   4.721
60075SOL    HW282123   4.038   6.469   4.748
60076SOL     OW82124  13.761  12.573  12.907
60076SOL    HW182125  13.695  12.508  12.883
60076SOL    HW282126  13.710  12.647  12.940
60077SOL     OW82127   7.222   3.490   8.981
60077SOL    HW182128   7.198   3.576   8.945
60077SOL    HW282129   7.209   3.500   9.075
60078SOL     OW82130   9.868   3.520   1.098
60078SOL    HW182131   9.942   3.475   1.058
60078SOL    HW282132   9.813   3.547   1.024
60079SOL     OW82133   1.424   3.796  11.765
60079SOL    HW182134   1.339   3.753  11.761
60079SOL    HW282135   1.459   3.772  11.851
60080SOL     OW82136  13.320   9.447   6.237
60080SOL    HW182137  13.230   9.413   6.241
60080SOL    HW282138  13.314   9.534   6.275
60081SOL     OW82139   3.783   0.483  14.207
60081SOL    HW182140   3.769   0.430  14.286
60081SOL    HW282141   3.775   0.573  14.236
60082SOL     OW82142  14.483  14.568  12.648
60082SOL    HW182143  14.542  14.633  12.687
60082SOL    HW282144  14.505  14.570  12.555
60083SOL     OW82145  11.262  11.490  10.596
60083SOL    HW182146  11.342  11.514  10.643
60083SOL    HW282147  11.232  11.410  10.638
60084SOL     OW82148  12.535   6.743   2.567
60084SOL    HW182149  12.513   6.824   2.614
60084SOL    HW282150  12.450   6.701   2.552
60085SOL     OW82151  14.287   4.866  14.647
60085SOL    HW182152  14.244   4.951  14.639
60085SOL    HW282153  14.296   4.852  14.741
60086SOL     OW82154   3.764  12.497   9.901
60086SOL    HW182155   3.785  12.575   9.952
60086SOL    HW282156   3.687  12.460   9.944
60087SOL     OW82157   2.413   2.228   2.814
60087SOL    HW182158   2.405   2.241   2.719
60087SOL    HW282159   2.324   2.244   2.847
60088SOL     OW82160  14.293   8.738   7.966
60088SOL    HW182161  14.298   8.802   8.038
60088SOL    HW282162  14.381   8.699   7.963
60089SOL     OW82163   6.009  14.042  13.080
60089SOL    HW182164   5.934  14.060  13.136
60089SOL    HW282165   6.073  13.999  13.137
60090SOL     OW82166   6.801   5.134   5.875
60090SOL    HW182167   6.888   5.174   5.872
60090SOL    HW282168   6.796   5.082   5.795
60091SOL     OW82169   4.329   1.173  13.753
60091SOL    HW182170   4.282   1.218  13.824
60091SOL    HW282171   4.264   1.113  13.716
60092SOL     OW82172   2.820  13.380   2.825
60092SOL    HW182173   2.877  13.369   2.901
60092SOL    HW282174   2.755  13.310   2.833
60093SOL     OW82175   5.293   2.443  13.155
60093SOL    HW182176   5.335   2.525  13.182
60093SOL    HW282177   5.200   2.461  13.162
60094SOL     OW82178   0.044   8.107   8.729
60094SOL    HW182179  14.842   8.147   8.779
60094SOL    HW282180   0.067   8.173   8.664
60095SOL     OW82181   4.607   1.366  13.453
60095SOL    HW182182   4.573   1.367  13.364
60095SOL    HW282183   4.682   1.306  13.450
60096SOL     OW82184   1.515   9.799   3.991
60096SOL    HW182185   1.433   9.845   3.971
60096SOL    HW282186   1.548   9.841   4.070
60097SOL     OW82187   0.951   6.472   8.568
60097SOL    HW182188   0.960   6.559   8.528
60097SOL    HW282189   0.918   6.417   8.497
60098SOL     OW82190   0.591   0.016   8.760
60098SOL    HW182191   0.652  14.860   8.691
60098SOL    HW282192   0.563   0.104   8.735
60099SOL     OW82193  10.505   8.376   5.848
60099SOL    HW182194  10.499   8.287   5.812
60099SOL    HW282195  10.565   8.368   5.922
60100SOL     OW82196  14.668   9.852   2.295
60100SOL    HW182197  14.720   9.897   2.363
60100SOL    HW282198  14.651   9.765   2.332
60101SOL     OW82199  11.730  13.867   9.377
60101SOL    HW182200  11.718  13.834   9.466
60101SOL    HW282201  11.824  13.885   9.370
60102SOL     OW82202  12.474   2.872  10.927
60102SOL    HW182203  12.516   2.786  10.924
60102SOL    HW282204  12.535   2.930  10.882
60103SOL     OW82205   5.603   3.042  11.315
60103SOL    HW182206   5.592   3.129  11.276
60103SOL    HW282207   5.696   3.035  11.333
60104SOL     OW82208   7.901  12.237  12.385
60104SOL    HW182209   7.965  12.168  12.365
60104SOL    HW282210   7.951  12.318  12.381
60105SOL     OW82211   4.009  10.640  11.678
60105SOL    HW182212   3.979  10.556  11.644
60105SOL    HW282213   3.963  10.705  11.624
60106SOL     OW82214  13.174   4.085   8.637
60106SOL    HW182215  13.250   4.141   8.653
60106SOL    HW282216  13.207   4.014   8.582
60107SOL     OW82217   1.121  12.917   0.974
60107SOL    HW182218   1.182  12.893   1.043
60107SOL    HW282219   1.145  13.007   0.951
60108SOL     OW82220  12.876  13.656  11.655
60108SOL    HW182221  12.895  13.662  11.749
60108SOL    HW282222  12.785  13.627  11.650
60109SOL     OW82223   0.514   1.167  14.239
60109SOL    HW182224   0.581   1.101  14.224
60109SOL    HW282225   0.502   1.168  14.334
60110SOL     OW82226   1.592   9.468   5.685
60110SOL    HW182227   1.522   9.446   5.624
60110SOL    HW282228   1.570   9.420   5.765
60111SOL     OW82229   7.429   8.114   8.457
60111SOL    HW182230   7.404   8.135   8.367
60111SOL    HW282231   7.518   8.150   8.465
60112SOL     OW82232  14.042   6.368  11.494
60112SOL    HW182233  14.129   6.333  11.513
60112SOL    HW282234  14.057   6.427  11.419
60113SOL     OW82235   2.445   3.219  13.275
60113SOL    HW182236   2.479   3.264  13.198
60113SOL    HW282237   2.437   3.128  13.248
60114SOL     OW82238   9.181  14.190   2.007
60114SOL    HW182239   9.192  14.238   1.925
60114SOL    HW282240   9.171  14.099   1.981
60115SOL     OW82241   1.968   5.350   6.349
60115SOL    HW182242   1.916   5.284   6.304
60115SOL    HW282243   2.057   5.314   6.350
60116SOL     OW82244  14.113  10.685   8.991
60116SOL    HW182245  14.157  10.634   8.923
60116SOL    HW282246  14.129  10.635   9.072
60117SOL     OW82247  12.809   9.079   9.646
60117SOL    HW182248  12.751   9.007   9.671
60117SOL    HW282249  12.865   9.042   9.577
60118SOL     OW82250   8.010  11.800  10.413
60118SOL    HW182251   8.012  11.824  10.321
60118SOL    HW282252   8.042  11.710  10.415
60119SOL     OW82253  11.405   1.825  14.546
60119SOL    HW182254  11.370   1.750  14.595
60119SOL    HW282255  11.356   1.900  14.580
60120SOL     OW82256  10.049   1.621  14.080
60120SOL    HW182257  10.039   1.698  14.137
60120SOL    HW282258   9.959   1.590  14.068
60121SOL     OW82259   2.624   7.198   6.657
60121SOL    HW182260   2.611   7.287   6.625
60121SOL    HW282261   2.549   7.149   6.622
60122SOL     OW82262  10.065   8.699   3.411
60122SOL    HW182263  10.083   8.686   3.504
60122SOL    HW282264   9.969   8.698   3.405
60123SOL     OW82265  12.815  14.108  13.779
60123SOL    HW182266  12.889  14.118  13.839
60123SOL    HW282267  12.752  14.055  13.827
60124SOL     OW82268  11.246  13.915   2.537
60124SOL    HW182269  11.172  13.966   2.569
60124SOL    HW282270  11.287  13.971   2.471
60125SOL     OW82271   0.030   5.072  10.030
60125SOL    HW182272   0.093   5.144  10.038
60125SOL    HW282273   0.054   5.029   9.948
60126SOL     OW82274   6.918   6.010   9.511
60126SOL    HW182275   6.876   5.993   9.427
60126SOL    HW282276   6.921   5.925   9.555
60127SOL     OW82277   7.082  13.230   5.011
60127SOL    HW182278   7.096  13.297   4.944
60127SOL    HW282279   7.057  13.280   5.089
60128SOL     OW82280  12.207   9.061  12.483
60128SOL    HW182281  12.228   9.131  12.422
60128SOL    HW282282  12.292   9.024  12.507
60129SOL     OW82283  14.572  14.258   8.195
60129SOL    HW182284  14.648  14.296   8.239
60129SOL    HW282285  14.503  14.323   8.205
60130SOL     OW82286   0.371   3.761   4.973
60130SOL    HW182287   0.466   3.768   4.984
60130SOL    HW282288   0.358   3.768   4.879
60131SOL     OW82289   1.222   0.342   3.604
60131SOL    HW182290   1.270   0.342   3.521
60131SOL    HW282291   1.209   0.250   3.625
60132SOL     OW82292  12.014  10.917   6.928
60132SOL    HW182293  12.054  10.840   6.968
60132SOL    HW282294  12.018  10.984   6.996
60133SOL     OW82295   4.547  14.155   6.353
60133SOL    HW182296   4.488  14.088   6.388
60133SOL    HW282297   4.622  14.106   6.319
60134SOL     OW82298   9.634   1.310  11.247
60134SOL    HW182299   9.559   1.252  11.259
60134SOL    HW282300   9.631   1.334  11.155
60135SOL     OW82301  13.578   3.002  10.675
60135SOL    HW182302  13.542   2.937  10.735
60135SOL    HW282303  13.510   3.011  10.607
60136SOL     OW82304  12.175   9.622   9.556
60136SOL    HW182305  12.210   9.589   9.639
60136SOL    HW282306  12.252   9.627   9.498
60137SOL     OW82307   9.041  10.388   3.848
60137SOL    HW182308   9.041  10.302   3.805
60137SOL    HW282309   8.989  10.375   3.927
60138SOL     OW82310   9.037   0.115   1.905
60138SOL    HW182311   9.056   0.191   1.851
60138SOL    HW282312   8.942   0.115   1.914
60139SOL     OW82313   1.784   2.805   2.367
60139SOL    HW182314   1.785   2.894   2.400
60139SOL    HW282315   1.692   2.779   2.371
60140SOL     OW82316   8.150  13.366   6.634
60140SOL    HW182317   8.091  13.291   6.629
60140SOL    HW282318   8.171  13.387   6.543
60141SOL     OW82319  13.885   6.565   2.763
60141SOL    HW182320  13.956   6.595   2.706
60141SOL    HW282321  13.914   6.478   2.793
60142SOL     OW82322   8.814  13.724   0.112
60142SOL    HW182323   8.776  13.792   0.057
60142SOL    HW282324   8.877  13.770   0.168
60143SOL     OW82325   7.103   3.286   5.914
60143SOL    HW182326   7.047   3.347   5.962
60143SOL    HW282327   7.098   3.205   5.964
60144SOL     OW82328  13.971   1.948   2.696
60144SOL    HW182329  13.881   1.935   2.725
60144SOL    HW282330  13.966   2.016   2.629
60145SOL     OW82331   2.735   5.590   1.102
60145SOL    HW182332   2.827   5.609   1.081
60145SOL    HW282333   2.706   5.533   1.031
60146SOL     OW82334   2.864  13.684   4.243
60146SOL    HW182335   2.901  13.686   4.331
60146SOL    HW282336   2.846  13.592   4.226
60147SOL     OW82337   0.634   5.429  12.020
60147SOL    HW182338   0.547   5.402  11.989
60147SOL    HW282339   0.672   5.477  11.946
60148SOL     OW82340   4.655   0.806  14.272
60148SOL    HW182341   4.630   0.820  14.181
60148SOL    HW282342   4.712   0.880  14.293
60149SOL     OW82343   9.506   6.258   8.327
60149SOL    HW182344   9.535   6.323   8.262
60149SOL    HW282345   9.583   6.203   8.340
60150SOL     OW82346   8.758  12.363  12.300
60150SOL    HW182347   8.802  12.448  12.295
60150SOL    HW282348   8.813  12.305  12.248
60151SOL     OW82349   8.061  11.184  11.428
60151SOL    HW182350   8.002  11.223  11.494
60151SOL    HW282351   8.073  11.252  11.363
60152SOL     OW82352   7.558  14.783  10.751
60152SOL    HW182353   7.515  14.821  10.674
60152SOL    HW282354   7.486  14.749  10.804
60153SOL     OW82355  13.299   0.367   1.311
60153SOL    HW182356  13.250   0.449   1.301
60153SOL    HW282357  13.235   0.305   1.347
60154SOL     OW82358  10.086  11.926  12.163
60154SOL    HW182359  10.017  11.863  12.182
60154SOL    HW282360  10.161  11.872  12.136
60155SOL     OW82361  13.993   2.477   8.998
60155SOL    HW182362  13.927   2.530   8.953
60155SOL    HW282363  13.994   2.394   8.950
60156SOL     OW82364   9.587   1.890   6.471
60156SOL    HW182365   9.588   1.982   6.500
60156SOL    HW282366   9.496   1.875   6.443
60157SOL     OW82367   4.176  10.259   6.234
60157SOL    HW182368   4.087  10.222   6.240
60157SOL    HW282369   4.223  10.196   6.179
60158SOL     OW82370   5.421   2.975   1.291
60158SOL    HW182371   5.413   2.934   1.205
60158SOL    HW282372   5.406   3.068   1.275
60159SOL     OW82373   8.060   3.399  13.033
60159SOL    HW182374   8.139   3.378  13.083
60159SOL    HW282375   8.044   3.491  13.051
60160SOL     OW82376   4.966   6.537   8.050
60160SOL    HW182377   5.038   6.517   8.109
60160SOL    HW282378   4.943   6.628   8.071
60161SOL     OW82379   1.707  11.007   9.668
60161SOL    HW182380   1.713  10.938   9.603
60161SOL    HW282381   1.683  11.085   9.618
60162SOL     OW82382   5.076   7.628  10.262
60162SOL    HW182383   5.022   7.585  10.194
60162SOL    HW282384   5.114   7.555  10.311
60163SOL     OW82385   6.097  14.031  11.909
60163SOL    HW182386   6.160  14.063  11.843
60163SOL    HW282387   6.134  14.059  11.993
60164SOL     OW82388   0.346   2.739   4.163
60164SOL    HW182389   0.265   2.712   4.208
60164SOL    HW282390   0.402   2.770   4.234
60165SOL     OW82391   9.071   7.935  14.699
60165SOL    HW182392   9.160   7.949  14.665
60165SOL    HW282393   9.040   8.022  14.723
60166SOL     OW82394   1.970   0.143   6.113
60166SOL    HW182395   2.015   0.144   6.029
60166SOL    HW282396   1.962   0.050   6.135
60167SOL     OW82397   6.342  10.755   6.366
60167SOL    HW182398   6.321  10.674   6.320
60167SOL    HW282399   6.325  10.736   6.458
60168SOL     OW82400   5.336   1.139   3.127
60168SOL    HW182401   5.254   1.106   3.090
60168SOL    HW282402   5.404   1.098   3.074
60169SOL     OW82403   6.368   0.733   4.002
60169SOL    HW182404   6.310   0.659   4.020
60169SOL    HW282405   6.332   0.805   4.054
60170SOL     OW82406  14.697   1.046   4.200
60170SOL    HW182407  14.687   1.124   4.145
60170SOL    HW282408  14.686   0.973   4.140
60171SOL     OW82409  11.768  12.632   8.809
60171SOL    HW182410  11.757  12.537   8.798
60171SOL    HW282411  11.680  12.664   8.828
60172SOL     OW82412   9.301   6.781  12.964
60172SOL    HW182413   9.380   6.754  12.917
60172SOL    HW282414   9.303   6.876  12.961
60173SOL     OW82415   7.337  12.862  14.567
60173SOL    HW182416   7.293  12.902  14.492
60173SOL    HW282417   7.379  12.936  14.612
60174SOL     OW82418   7.551  13.896   3.592
60174SOL    HW182419   7.550  13.801   3.605
60174SOL    HW282420   7.550  13.932   3.680
60175SOL     OW82421  11.300   6.228   4.599
60175SOL    HW182422  11.212   6.192   4.605
60175SOL    HW282423  11.294   6.296   4.532
60176SOL     OW82424  10.908   1.741   6.957
60176SOL    HW182425  10.937   1.650   6.961
60176SOL    HW282426  10.973   1.786   6.904
60177SOL     OW82427   7.444   9.891   8.366
60177SOL    HW182428   7.475   9.960   8.425
60177SOL    HW282429   7.359   9.865   8.402
60178SOL     OW82430   5.230   1.169   7.724
60178SOL    HW182431   5.162   1.135   7.666
60178SOL    HW282432   5.210   1.262   7.732
60179SOL     OW82433   9.837   1.995   5.370
60179SOL    HW182434   9.835   1.998   5.466
60179SOL    HW282435   9.885   1.915   5.350
60180SOL     OW82436   5.610  10.217   6.579
60180SOL    HW182437   5.561  10.255   6.506
60180SOL    HW282438   5.543  10.191   6.643
60181SOL     OW82439  13.495   8.022   7.682
60181SOL    HW182440  13.447   8.081   7.624
60181SOL    HW282441  13.485   7.936   7.642
60182SOL     OW82442   5.280  12.232   7.062
60182SOL    HW182443   5.232  12.302   7.018
60182SOL    HW282444   5.367  12.235   7.022
60183SOL     OW82445  13.967   2.936  11.461
60183SOL    HW182446  13.936   2.848  11.437
60183SOL    HW282447  13.966   2.936  11.556
60184SOL     OW82448   3.766   8.153  10.873
60184SOL    HW182449   3.784   8.116  10.787
60184SOL    HW282450   3.837   8.215  10.889
60185SOL     OW82451   0.920  12.849   9.104
60185SOL    HW182452   0.924  12.776   9.042
60185SOL    HW282453   1.003  12.896   9.091
60186SOL     OW82454  13.634   8.764   3.143
60186SOL    HW182455  13.554   8.741   3.191
60186SOL    HW282456  13.635   8.860   3.144
60187SOL     OW82457   5.626   1.800   6.662
60187SOL    HW182458   5.572   1.773   6.737
60187SOL    HW282459   5.609   1.733   6.595
60188SOL     OW82460  10.253   8.241   9.574
60188SOL    HW182461  10.274   8.147   9.576
60188SOL    HW282462  10.158   8.244   9.567
60189SOL     OW82463   6.955   6.912   7.506
60189SOL    HW182464   6.922   6.823   7.508
60189SOL    HW282465   7.023   6.911   7.438
60190SOL     OW82466  12.946   2.226   2.596
60190SOL    HW182467  12.965   2.283   2.671
60190SOL    HW282468  12.851   2.235   2.584
60191SOL     OW82469   7.283   5.773   5.898
60191SOL    HW182470   7.278   5.866   5.876
60191SOL    HW282471   7.347   5.768   5.969
60192SOL     OW82472  10.111  13.895   7.414
60192SOL    HW182473  10.172  13.939   7.355
60192SOL    HW282474  10.073  13.965   7.467
60193SOL     OW82475  14.149  10.938   3.870
60193SOL    HW182476  14.059  10.910   3.852
60193SOL    HW282477  14.189  10.864   3.916
60194SOL     OW82478  14.333   3.425   5.043
60194SOL    HW182479  14.353   3.481   5.118
60194SOL    HW282480  14.238   3.433   5.031
60195SOL     OW82481   3.064  11.619  12.165
60195SOL    HW182482   2.978  11.644  12.199
60195SOL    HW282483   3.057  11.525  12.149
60196SOL     OW82484   4.626   0.199   9.737
60196SOL    HW182485   4.546   0.152   9.717
60196SOL    HW282486   4.662   0.155   9.814
60197SOL     OW82487   0.405   5.751  10.958
60197SOL    HW182488   0.473   5.800  10.911
60197SOL    HW282489   0.330   5.810  10.958
60198SOL     OW82490  14.711   2.930  11.522
60198SOL    HW182491  14.786   2.887  11.563
60198SOL    HW282492  14.667   2.861  11.473
60199SOL     OW82493  10.698   5.283   4.536
60199SOL    HW182494  10.641   5.316   4.605
60199SOL    HW282495  10.641   5.278   4.459
60200SOL     OW82496   3.375   1.881   6.887
60200SOL    HW182497   3.331   1.965   6.878
60200SOL    HW282498   3.340   1.844   6.968
60201SOL     OW82499  12.787   3.552  10.744
60201SOL    HW182500  12.807   3.519  10.657
60201SOL    HW282501  12.865   3.603  10.769
60202SOL     OW82502   9.639  14.536   8.474
60202SOL    HW182503   9.725  14.502   8.498
60202SOL    HW282504   9.618  14.600   8.543
60203SOL     OW82505  13.637  11.395   9.887
60203SOL    HW182506  13.588  11.372   9.808
60203SOL    HW282507  13.701  11.325   9.897
60204SOL     OW82508   7.821  10.698   2.363
60204SOL    HW182509   7.863  10.766   2.310
60204SOL    HW282510   7.883  10.682   2.435
60205SOL     OW82511   1.065   5.669   6.917
60205SOL    HW182512   1.078   5.684   7.011
60205SOL    HW282513   1.135   5.608   6.893
60206SOL     OW82514  13.228   9.013   0.353
60206SOL    HW182515  13.238   9.039   0.262
60206SOL    HW282516  13.318   8.994   0.382
60207SOL     OW82517  12.934  11.986  10.508
60207SOL    HW182518  12.857  12.018  10.555
60207SOL    HW282519  12.911  11.898  10.479
60208SOL     OW82520   2.147   6.803   0.448
60208SOL    HW182521   2.074   6.743   0.461
60208SOL    HW282522   2.212   6.752   0.398
60209SOL     OW82523   3.328  10.907   8.792
60209SOL    HW182524   3.375  10.838   8.838
60209SOL    HW282525   3.293  10.963   8.862
60210SOL     OW82526   3.376  13.295  14.869
60210SOL    HW182527   3.472  13.302  14.863
60210SOL    HW282528   3.344  13.380  14.840
60211SOL     OW82529  12.970   1.565   1.892
60211SOL    HW182530  12.923   1.482   1.896
60211SOL    HW282531  12.939   1.606   1.811
60212SOL     OW82532   6.451   3.554   5.634
60212SOL    HW182533   6.544   3.544   5.655
60212SOL    HW282534   6.449   3.557   5.538
60213SOL     OW82535   1.340  12.955  13.761
60213SOL    HW182536   1.356  12.893  13.832
60213SOL    HW282537   1.255  12.928  13.725
60214SOL     OW82538   2.244   7.673  10.579
60214SOL    HW182539   2.193   7.593  10.592
60214SOL    HW282540   2.329   7.643  10.546
60215SOL     OW82541  12.250  14.834   8.848
60215SOL    HW182542  12.312  14.857   8.779
60215SOL    HW282543  12.284   0.006   8.927
60216SOL     OW82544   1.759   7.901  11.772
60216SOL    HW182545   1.717   7.896  11.858
60216SOL    HW282546   1.802   7.816  11.761
60217SOL     OW82547  12.706   8.223   2.514
60217SOL    HW182548  12.694   8.234   2.608
60217SOL    HW282549  12.672   8.305   2.476
60218SOL     OW82550   5.639  13.660   4.233
60218SOL    HW182551   5.650  13.592   4.299
60218SOL    HW282552   5.548  13.686   4.240
60219SOL     OW82553  12.160  13.668  10.138
60219SOL    HW182554  12.254  13.686  10.128
60219SOL    HW282555  12.157  13.586  10.186
60220SOL     OW82556   1.168  11.836   5.464
60220SOL    HW182557   1.191  11.750   5.429
60220SOL    HW282558   1.248  11.865   5.508
60221SOL     OW82559   1.139   3.174   9.295
60221SOL    HW182560   1.055   3.137   9.269
60221SOL    HW282561   1.128   3.197   9.388
60222SOL     OW82562   7.196   3.443   5.640
60222SOL    HW182563   7.171   3.422   5.730
60222SOL    HW282564   7.248   3.523   5.648
60223SOL     OW82565   6.873  12.961  11.042
60223SOL    HW182566   6.811  12.971  11.114
60223SOL    HW282567   6.820  12.968  10.963
60224SOL     OW82568   6.891   0.792  14.849
60224SOL    HW182569   6.943   0.849   0.037
60224SOL    HW282570   6.810   0.777   0.028
60225SOL     OW82571  13.390  12.763   9.917
60225SOL    HW182572  13.485  12.755   9.927
60225SOL    HW282573  13.370  12.714   9.837
60226SOL     OW82574  10.632   3.086   9.461
60226SOL    HW182575  10.558   3.111   9.516
60226SOL    HW282576  10.677   3.018   9.510
60227SOL     OW82577   7.016  13.841  10.083
60227SOL    HW182578   7.070  13.920  10.087
60227SOL    HW282579   7.078  13.769  10.087
60228SOL     OW82580  10.473   2.682  12.958
60228SOL    HW182581  10.456   2.706  12.867
60228SOL    HW282582  10.457   2.763  13.007
60229SOL     OW82583   7.833   6.149   8.138
60229SOL    HW182584   7.921   6.187   8.142
60229SOL    HW282585   7.846   6.056   8.154
60230SOL     OW82586   6.803   6.436   1.928
60230SOL    HW182587   6.832   6.526   1.914
60230SOL    HW282588   6.709   6.442   1.940
60231SOL     OW82589   1.087  13.199   8.446
60231SOL    HW182590   1.160  13.247   8.407
60231SOL    HW282591   1.125  13.158   8.524
60232SOL     OW82592  13.925   6.141   9.310
60232SOL    HW182593  13.962   6.185   9.386
60232SOL    HW282594  13.886   6.211   9.258
60233SOL     OW82595   3.829   5.876  14.327
60233SOL    HW182596   3.839   5.962  14.287
60233SOL    HW282597   3.863   5.888  14.416
60234SOL     OW82598   4.945   3.452   9.527
60234SOL    HW182599   4.916   3.456   9.436
60234SOL    HW282600   4.869   3.417   9.575
60235SOL     OW82601   8.953  10.384   9.007
60235SOL    HW182602   8.876  10.327   9.013
60235SOL    HW282603   9.005  10.346   8.936
60236SOL     OW82604   9.319  11.954   9.771
60236SOL    HW182605   9.277  12.038   9.754
60236SOL    HW282606   9.382  11.972   9.841
60237SOL     OW82607  11.629   3.180   5.330
60237SOL    HW182608  11.697   3.246   5.312
60237SOL    HW282609  11.614   3.185   5.424
60238SOL     OW82610  14.765  11.271   6.684
60238SOL    HW182611  14.753  11.296   6.776
60238SOL    HW282612  14.736  11.348   6.634
60239SOL     OW82613   3.502   6.909   4.217
60239SOL    HW182614   3.502   6.900   4.313
60239SOL    HW282615   3.410   6.901   4.193
60240SOL     OW82616  10.473  12.945   4.791
60240SOL    HW182617  10.566  12.922   4.783
60240SOL    HW282618  10.471  13.040   4.782
60241SOL     OW82619   6.500   8.999   8.540
60241SOL    HW182620   6.547   8.923   8.573
60241SOL    HW282621   6.558   9.035   8.472
60242SOL     OW82622   0.676   9.958   2.231
60242SOL    HW182623   0.637   9.970   2.317
60242SOL    HW282624   0.604   9.974   2.170
60243SOL     OW82625  14.722   8.651  10.026
60243SOL    HW182626  14.813   8.630  10.045
60243SOL    HW282627  14.726   8.727   9.968
60244SOL     OW82628   1.869  11.129  12.018
60244SOL    HW182629   1.839  11.057  12.073
60244SOL    HW282630   1.800  11.140  11.952
60245SOL     OW82631  13.334   2.204   4.576
60245SOL    HW182632  13.246   2.218   4.539
60245SOL    HW282633  13.318   2.152   4.655
60246SOL     OW82634   9.517   4.079   8.579
60246SOL    HW182635   9.459   4.079   8.655
60246SOL    HW282636   9.469   4.126   8.511
60247SOL     OW82637  14.267   3.295   7.698
60247SOL    HW182638  14.286   3.345   7.778
60247SOL    HW282639  14.270   3.360   7.628
60248SOL     OW82640   5.765   7.141   5.096
60248SOL    HW182641   5.826   7.087   5.145
60248SOL    HW282642   5.819   7.191   5.036
60249SOL     OW82643  12.106  10.703   7.070
60249SOL    HW182644  12.141  10.627   7.117
60249SOL    HW282645  12.169  10.773   7.088
60250SOL     OW82646   2.789  10.710   2.461
60250SOL    HW182647   2.727  10.710   2.388
60250SOL    HW282648   2.824  10.799   2.463
60251SOL     OW82649   3.836   1.084  12.484
60251SOL    HW182650   3.889   1.049  12.556
60251SOL    HW282651   3.756   1.031  12.485
60252SOL     OW82652   7.602  10.573  10.921
60252SOL    HW182653   7.583  10.655  10.966
60252SOL    HW282654   7.645  10.600  10.839
60253SOL     OW82655  14.606  10.332   2.009
60253SOL    HW182656  14.664  10.366   1.941
60253SOL    HW282657  14.592  10.240   1.986
60254SOL     OW82658   7.414   3.467  14.812
60254SOL    HW182659   7.371   3.382  14.799
60254SOL    HW282660   7.481   3.450   0.009
60255SOL     OW82661   3.028  11.687   1.647
60255SOL    HW182662   2.974  11.627   1.595
60255SOL    HW282663   2.964  11.742   1.693
60256SOL     OW82664  13.036   5.711  12.865
60256SOL    HW182665  13.021   5.704  12.771
60256SOL    HW282666  12.982   5.785  12.893
60257SOL     OW82667   2.313   3.149   1.084
60257SOL    HW182668   2.370   3.106   1.020
60257SOL    HW282669   2.230   3.101   1.078
60258SOL     OW82670   7.165   9.136  11.346
60258SOL    HW182671   7.160   9.159  11.439
60258SOL    HW282672   7.159   9.041  11.345
60259SOL     OW82673   0.903  10.173   6.017
60259SOL    HW182674   0.917  10.260   5.979
60259SOL    HW282675   0.989  10.146   6.048
60260SOL     OW82676   3.383   2.669  14.210
60260SOL    HW182677   3.375   2.609  14.284
60260SOL    HW282678   3.448   2.628  14.153
60261SOL     OW82679   3.165   2.949  10.399
60261SOL    HW182680   3.129   3.008  10.465
60261SOL    HW282681   3.251   2.924  10.433
60262SOL     OW82682   4.757   0.523   0.329
60262SOL    HW182683   4.748   0.469   0.408
60262SOL    HW282684   4.851   0.536   0.319
60263SOL     OW82685  14.701   0.244   6.478
60263SOL    HW182686  14.609   0.235   6.453
60263SOL    HW282687  14.721   0.336   6.462
60264SOL     OW82688   5.752   4.562   1.000
60264SOL    HW182689   5.762   4.518   0.915
60264SOL    HW282690   5.749   4.491   1.064
60265SOL     OW82691   7.089  14.331  12.823
60265SOL    HW182692   7.024  14.390  12.860
60265SOL    HW282693   7.038  14.263  12.779
60266SOL     OW82694  10.873  10.411   1.211
60266SOL    HW182695  10.819  10.370   1.279
60266SOL    HW282696  10.869  10.504   1.230
60267SOL     OW82697  13.094   2.720   3.194
60267SOL    HW182698  13.029   2.780   3.230
60267SOL    HW282699  13.163   2.777   3.160
60268SOL     OW82700  10.639   8.978   6.725
60268SOL    HW182701  10.544   8.990   6.721
60268SOL    HW282702  10.670   8.999   6.637
60269SOL     OW82703   5.783  14.735  14.289
60269SOL    HW182704   5.697  14.721  14.250
60269SOL    HW282705   5.769  14.725  14.383
60270SOL     OW82706   7.793  10.419   7.412
60270SOL    HW182707   7.718  10.360   7.417
60270SOL    HW282708   7.764  10.490   7.356
60271SOL     OW82709   9.681  14.087   0.323
60271SOL    HW182710   9.735  14.106   0.400
60271SOL    HW282711   9.652  14.172   0.292
60272SOL     OW82712  10.425   5.956  12.055
60272SOL    HW182713  10.357   6.024  12.055
60272SOL    HW282714  10.441   5.939  11.963
60273SOL     OW82715   2.933   4.062   3.178
60273SOL    HW182716   2.855   4.037   3.128
60273SOL    HW282717   3.006   4.024   3.130
60274SOL     OW82718   4.560  10.495   6.675
60274SOL    HW182719   4.635  10.508   6.734
60274SOL    HW282720   4.575  10.408   6.638
60275SOL     OW82721  12.520  13.449   6.977
60275SOL    HW182722  12.457  13.410   7.037
60275SOL    HW282723  12.487  13.426   6.890
60276SOL     OW82724   4.772  10.566   0.377
60276SOL    HW182725   4.746  10.651   0.343
60276SOL    HW282726   4.826  10.527   0.307
60277SOL     OW82727   2.381   3.240   9.166
60277SOL    HW182728   2.322   3.166   9.180
60277SOL    HW282729   2.362   3.299   9.239
60278SOL     OW82730   1.545   3.603  11.074
60278SOL    HW182731   1.453   3.574  11.077
60278SOL    HW282732   1.579   3.584  11.161
60279SOL     OW82733  14.707   6.943   3.909
60279SOL    HW182734  14.664   7.019   3.949
60279SOL    HW282735  14.640   6.876   3.906
60280SOL     OW82736   7.281  13.400   5.918
60280SOL    HW182737   7.350  13.371   5.857
60280SOL    HW282738   7.229  13.462   5.867
60281SOL     OW82739   0.147   5.031   1.707
60281SOL    HW182740   0.076   5.068   1.759
60281SOL    HW282741   0.104   4.971   1.647
60282SOL     OW82742   1.207  12.618  14.551
60282SOL    HW182743   1.242  12.582  14.632
60282SOL    HW282744   1.134  12.560  14.529
60283SOL     OW82745  14.737   9.731   3.016
60283SOL    HW182746  14.800   9.720   2.944
60283SOL    HW282747  14.771   9.805   3.066
60284SOL     OW82748   6.715   3.704   0.525
60284SOL    HW182749   6.778   3.656   0.472
60284SOL    HW282750   6.681   3.640   0.587
60285SOL     OW82751   0.861   7.587   0.404
60285SOL    HW182752   0.933   7.533   0.372
60285SOL    HW282753   0.858   7.570   0.498
60286SOL     OW82754  12.484   8.714   2.129
60286SOL    HW182755  12.542   8.753   2.194
60286SOL    HW282756  12.397   8.715   2.170
60287SOL     OW82757  11.873   8.036  13.251
60287SOL    HW182758  11.802   8.075  13.200
60287SOL    HW282759  11.936   8.005  13.185
60288SOL     OW82760   4.998  12.335   9.326
60288SOL    HW182761   5.064  12.283   9.371
60288SOL    HW282762   4.918  12.283   9.331
60289SOL     OW82763  13.717   3.433   0.622
60289SOL    HW182764  13.791   3.410   0.677
60289SOL    HW282765  13.755   3.489   0.553
60290SOL     OW82766   3.777  12.795   0.959
60290SOL    HW182767   3.783  12.784   1.054
60290SOL    HW282768   3.854  12.847   0.936
60291SOL     OW82769  14.262   4.025   4.306
60291SOL    HW182770  14.231   4.044   4.395
60291SOL    HW282771  14.215   4.088   4.251
60292SOL     OW82772   2.999   3.324   1.963
60292SOL    HW182773   3.022   3.398   1.906
60292SOL    HW282774   2.997   3.248   1.905
60293SOL     OW82775   4.649  10.249  12.739
60293SOL    HW182776   4.608  10.241  12.826
60293SOL    HW282777   4.605  10.323  12.699
60294SOL     OW82778   8.135  11.017   0.793
60294SOL    HW182779   8.201  11.020   0.724
60294SOL    HW282780   8.184  10.992   0.872
60295SOL     OW82781   4.965   6.968   2.458
60295SOL    HW182782   4.983   7.052   2.498
60295SOL    HW282783   5.050   6.939   2.424
60296SOL     OW82784   0.566  11.913   5.842
60296SOL    HW182785   0.660  11.907   5.856
60296SOL    HW282786   0.547  11.848   5.775
60297SOL     OW82787   5.266  10.703  10.349
60297SOL    HW182788   5.309  10.622  10.322
60297SOL    HW282789   5.335  10.769  10.347
60298SOL     OW82790   3.804   5.733   4.826
60298SOL    HW182791   3.867   5.666   4.851
60298SOL    HW282792   3.834   5.812   4.870
60299SOL     OW82793   7.756   1.015   2.818
60299SOL    HW182794   7.792   1.006   2.907
60299SOL    HW282795   7.812   0.959   2.764
60300SOL     OW82796   8.333   8.460   5.670
60300SOL    HW182797   8.324   8.370   5.700
60300SOL    HW282798   8.281   8.511   5.732
60301SOL     OW82799   0.682  12.300  10.349
60301SOL    HW182800   0.705  12.208  10.360
60301SOL    HW282801   0.692  12.338  10.436
60302SOL     OW82802   0.115   7.769   9.803
60302SOL    HW182803   0.053   7.832   9.841
60302SOL    HW282804   0.069   7.734   9.727
60303SOL     OW82805  11.820   9.425   0.006
60303SOL    HW182806  11.744   9.481   0.023
60303SOL    HW282807  11.895   9.480   0.030
60304SOL     OW82808  10.144   2.334  13.282
60304SOL    HW182809  10.162   2.250  13.238
60304SOL    HW282810  10.049   2.341  13.282
60305SOL     OW82811   7.860  10.917   3.280
60305SOL    HW182812   7.833  10.847   3.338
60305SOL    HW282813   7.779  10.960   3.254
60306SOL     OW82814  14.653   6.972   7.592
60306SOL    HW182815  14.722   7.001   7.651
60306SOL    HW282816  14.623   6.889   7.629
60307SOL     OW82817   2.069   4.267   2.480
60307SOL    HW182818   2.110   4.350   2.454
60307SOL    HW282819   1.980   4.292   2.504
60308SOL     OW82820   1.664  12.903   7.182
60308SOL    HW182821   1.667  12.948   7.266
60308SOL    HW282822   1.653  12.811   7.204
60309SOL     OW82823  11.443   6.241   9.244
60309SOL    HW182824  11.491   6.228   9.163
60309SOL    HW282825  11.476   6.174   9.303
60310SOL     OW82826   2.295   7.148   0.380
60310SOL    HW182827   2.323   7.145   0.288
60310SOL    HW282828   2.271   7.057   0.400
60311SOL     OW82829  11.189   9.192  11.959
60311SOL    HW182830  11.135   9.170  12.035
60311SOL    HW282831  11.156   9.277  11.930
60312SOL     OW82832  13.263   4.067   7.727
60312SOL    HW182833  13.214   3.985   7.724
60312SOL    HW282834  13.320   4.063   7.650
60313SOL     OW82835   5.047   3.411   2.059
60313SOL    HW182836   4.988   3.354   2.109
60313SOL    HW282837   5.115   3.436   2.122
60314SOL     OW82838  14.573  14.072   4.219
60314SOL    HW182839  14.652  14.115   4.251
60314SOL    HW282840  14.586  14.062   4.125
60315SOL     OW82841  10.778  11.669   6.783
60315SOL    HW182842  10.773  11.737   6.851
60315SOL    HW282843  10.688  11.659   6.753
60316SOL     OW82844  14.833  14.690   2.802
60316SOL    HW182845  14.775  14.733   2.864
60316SOL    HW282846  14.826  14.743   2.722
60317SOL     OW82847  12.569  13.786   1.558
60317SOL    HW182848  12.554  13.855   1.622
60317SOL    HW282849  12.648  13.741   1.589
60318SOL     OW82850  14.652   4.434   4.256
60318SOL    HW182851  14.719   4.447   4.323
60318SOL    HW282852  14.665   4.507   4.195
60319SOL     OW82853  10.297  13.670   9.627
60319SOL    HW182854  10.332  13.737   9.685
60319SOL    HW282855  10.294  13.591   9.681
60320SOL     OW82856   9.930   3.065  13.079
60320SOL    HW182857   9.856   3.008  13.060
60320SOL    HW282858   9.961   3.036  13.165
60321SOL     OW82859   2.456   6.644   1.394
60321SOL    HW182860   2.464   6.698   1.316
60321SOL    HW282861   2.462   6.705   1.467
60322SOL     OW82862  11.124   7.067  12.362
60322SOL    HW182863  11.167   6.994  12.406
60322SOL    HW282864  11.170   7.076  12.279
60323SOL     OW82865   7.880   1.417   9.686
60323SOL    HW182866   7.904   1.369   9.607
60323SOL    HW282867   7.880   1.351   9.755
60324SOL     OW82868   6.055   0.432   8.975
60324SOL    HW182869   6.055   0.395   8.887
60324SOL    HW282870   5.965   0.463   8.988
60325SOL     OW82871  13.166   9.771   2.305
60325SOL    HW182872  13.220   9.767   2.384
60325SOL    HW282873  13.220   9.731   2.237
60326SOL     OW82874   1.464   5.920  12.567
60326SOL    HW182875   1.422   5.850  12.517
60326SOL    HW282876   1.521   5.874  12.628
60327SOL     OW82877   1.120   1.158  13.851
60327SOL    HW182878   1.092   1.237  13.897
60327SOL    HW282879   1.216   1.160  13.856
60328SOL     OW82880  10.216   6.259  10.576
60328SOL    HW182881  10.123   6.277  10.559
60328SOL    HW282882  10.225   6.165  10.566
60329SOL     OW82883   2.489   8.479  10.693
60329SOL    HW182884   2.458   8.536  10.763
60329SOL    HW282885   2.486   8.534  10.614
60330SOL     OW82886   8.880   1.716  10.817
60330SOL    HW182887   8.834   1.798  10.836
60330SOL    HW282888   8.841   1.685  10.735
60331SOL     OW82889   2.042   1.451   1.478
60331SOL    HW182890   2.020   1.529   1.427
60331SOL    HW282891   2.123   1.474   1.524
60332SOL     OW82892  13.877   5.240  13.147
60332SOL    HW182893  13.920   5.155  13.156
60332SOL    HW282894  13.938   5.303  13.186
60333SOL     OW82895  13.738   2.836   6.395
60333SOL    HW182896  13.699   2.763   6.444
60333SOL    HW282897  13.787   2.885   6.461
60334SOL     OW82898   4.102   4.647  11.773
60334SOL    HW182899   4.017   4.613  11.799
60334SOL    HW282900   4.089   4.680  11.684
60335SOL     OW82901  14.274   4.783  12.711
60335SOL    HW182902  14.184   4.752  12.723
60335SOL    HW282903  14.306   4.734  12.635
60336SOL     OW82904   4.667   0.068   3.007
60336SOL    HW182905   4.649   0.064   3.101
60336SOL    HW282906   4.583   0.095   2.968
60337SOL     OW82907   8.799   1.753   8.023
60337SOL    HW182908   8.869   1.695   8.052
60337SOL    HW282909   8.721   1.698   8.019
60338SOL     OW82910   4.242  13.032   9.048
60338SOL    HW182911   4.177  13.002   9.111
60338SOL    HW282912   4.307  12.962   9.044
60339SOL     OW82913  13.540  14.461   7.037
60339SOL    HW182914  13.526  14.484   7.129
60339SOL    HW282915  13.582  14.538   6.999
60340SOL     OW82916   1.679   2.578   8.795
60340SOL    HW182917   1.608   2.629   8.834
60340SOL    HW282918   1.659   2.576   8.701
60341SOL     OW82919   9.694   8.806   8.233
60341SOL    HW182920   9.613   8.833   8.277
60341SOL    HW282921   9.691   8.849   8.148
60342SOL     OW82922  12.815   4.983   4.035
60342SOL    HW182923  12.815   4.911   4.097
60342SOL    HW282924  12.898   5.028   4.050
60343SOL     OW82925   7.669   2.219   1.553
60343SOL    HW182926   7.580   2.223   1.588
60343SOL    HW282927   7.675   2.294   1.494
60344SOL     OW82928  13.479   3.632   7.984
60344SOL    HW182929  13.413   3.667   7.924
60344SOL    HW282930  13.431   3.617   8.066
60345SOL     OW82931  12.181   2.468   0.777
60345SOL    HW182932  12.168   2.468   0.872
60345SOL    HW282933  12.112   2.525   0.743
60346SOL     OW82934   9.383   5.994  13.627
60346SOL    HW182935   9.422   5.916  13.587
60346SOL    HW282936   9.454   6.059  13.625
60347SOL     OW82937   9.768   8.726   6.510
60347SOL    HW182938   9.700   8.688   6.566
60347SOL    HW282939   9.836   8.658   6.506
60348SOL     OW82940   1.765  13.463  13.370
60348SOL    HW182941   1.759  13.477  13.276
60348SOL    HW282942   1.710  13.532  13.408
60349SOL     OW82943  13.214   4.972   3.042
60349SOL    HW182944  13.291   5.028   3.055
60349SOL    HW282945  13.144   5.032   3.016
60350SOL     OW82946  13.963  12.619  12.249
60350SOL    HW182947  13.926  12.655  12.329
60350SOL    HW282948  14.057  12.608  12.268
60351SOL     OW82949   4.808   5.357  12.441
60351SOL    HW182950   4.800   5.337  12.534
60351SOL    HW282951   4.901   5.341  12.422
60352SOL     OW82952   9.709   9.443  11.611
60352SOL    HW182953   9.778   9.382  11.587
60352SOL    HW282954   9.699   9.433  11.706
60353SOL     OW82955   6.139   8.180  13.572
60353SOL    HW182956   6.132   8.136  13.487
60353SOL    HW282957   6.053   8.220  13.586
60354SOL     OW82958   3.753  14.296  14.012
60354SOL    HW182959   3.760  14.225  13.948
60354SOL    HW282960   3.824  14.279  14.074
60355SOL     OW82961   5.229   1.731  13.932
60355SOL    HW182962   5.225   1.737  14.027
60355SOL    HW282963   5.323   1.731  13.912
60356SOL     OW82964   7.610   7.634   0.544
60356SOL    HW182965   7.665   7.706   0.574
60356SOL    HW282966   7.566   7.668   0.466
60357SOL     OW82967   9.540   0.973   6.157
60357SOL    HW182968   9.613   0.956   6.097
60357SOL    HW282969   9.551   1.064   6.184
60358SOL     OW82970   2.177   7.864   3.780
60358SOL    HW182971   2.245   7.822   3.832
60358SOL    HW282972   2.178   7.816   3.697
60359SOL     OW82973   4.500   0.139   5.211
60359SOL    HW182974   4.523   0.065   5.155
60359SOL    HW282975   4.504   0.104   5.300
60360SOL     OW82976  14.689   5.225  10.195
60360SOL    HW182977  14.763   5.281  10.219
60360SOL    HW282978  14.729   5.143  10.166
60361SOL     OW82979  10.977   9.113   3.334
60361SOL    HW182980  10.904   9.059   3.302
60361SOL    HW282981  10.957   9.128   3.426
60362SOL     OW82982  14.522  10.870   0.564
60362SOL    HW182983  14.537  10.887   0.657
60362SOL    HW282984  14.557  10.947   0.520
60363SOL     OW82985  13.544  11.497   6.012
60363SOL    HW182986  13.616  11.468   6.069
60363SOL    HW282987  13.490  11.552   6.068
60364SOL     OW82988   5.372  12.417  13.300
60364SOL    HW182989   5.359  12.328  13.330
60364SOL    HW282990   5.467  12.424  13.286
60365SOL     OW82991   8.235  12.552   7.293
60365SOL    HW182992   8.151  12.592   7.314
60365SOL    HW282993   8.214  12.480   7.234
60366SOL     OW82994   7.825  13.053   5.429
60366SOL    HW182995   7.769  13.005   5.490
60366SOL    HW282996   7.865  13.122   5.483
60367SOL     OW82997  13.084  10.960   3.835
60367SOL    HW182998  13.170  10.920   3.831
60367SOL    HW282999  13.065  10.969   3.928
60368SOL     OW83000  11.144   1.648  13.398
60368SOL    HW183001  11.111   1.706  13.329
60368SOL    HW283002  11.117   1.560  13.371
60369SOL     OW83003   0.075  14.572   5.892
60369SOL    HW183004   0.010  14.626   5.937
60369SOL    HW283005   0.138  14.634   5.856
60370SOL     OW83006   8.805   2.296  12.186
60370SOL    HW183007   8.738   2.232  12.159
60370SOL    HW283008   8.755   2.372  12.215
60371SOL     OW83009   3.751   9.420  10.295
60371SOL    HW183010   3.772   9.330  10.318
60371SOL    HW283011   3.656   9.419  10.277
60372SOL     OW83012   7.689   6.840   1.855
60372SOL    HW183013   7.669   6.770   1.918
60372SOL    HW283014   7.737   6.905   1.906
60373SOL     OW83015  12.645  10.927   1.645
60373SOL    HW183016  12.557  10.890   1.637
60373SOL    HW283017  12.658  10.937   1.739
60374SOL     OW83018   0.053   6.069   6.079
60374SOL    HW183019  14.863   6.077   6.004
60374SOL    HW283020   0.114   6.142   6.069
60375SOL     OW83021   7.129   5.097   5.564
60375SOL    HW183022   7.142   5.091   5.469
60375SOL    HW283023   7.068   5.027   5.584
60376SOL     OW83024   7.541   3.735  13.733
60376SOL    HW183025   7.484   3.678  13.785
60376SOL    HW283026   7.597   3.778  13.798
60377SOL     OW83027   1.486   1.740   4.592
60377SOL    HW183028   1.437   1.783   4.662
60377SOL    HW283029   1.536   1.672   4.637
60378SOL     OW83030  11.394   5.995   6.467
60378SOL    HW183031  11.314   5.959   6.428
60378SOL    HW283032  11.367   6.079   6.504
60379SOL     OW83033   5.475  10.613   7.161
60379SOL    HW183034   5.442  10.695   7.123
60379SOL    HW283035   5.565  10.633   7.188
60380SOL     OW83036   4.643  13.220   2.624
60380SOL    HW183037   4.608  13.146   2.673
60380SOL    HW283038   4.609  13.298   2.668
60381SOL     OW83039   5.837   0.812   7.100
60381SOL    HW183040   5.781   0.744   7.062
60381SOL    HW283041   5.843   0.788   7.193
60382SOL     OW83042   4.631  13.933  13.514
60382SOL    HW183043   4.642  14.019  13.553
60382SOL    HW283044   4.543  13.906  13.538
60383SOL     OW83045  13.301   5.546   1.690
60383SOL    HW183046  13.381   5.596   1.675
60383SOL    HW283047  13.277   5.565   1.780
60384SOL     OW83048   1.261  10.247   6.561
60384SOL    HW183049   1.268  10.190   6.485
60384SOL    HW283050   1.299  10.330   6.533
60385SOL     OW83051  14.685   0.135  10.619
60385SOL    HW183052  14.658   0.052  10.579
60385SOL    HW283053  14.683   0.198  10.547
60386SOL     OW83054  10.540  13.323   9.931
60386SOL    HW183055  10.631  13.322   9.902
60386SOL    HW283056  10.524  13.233   9.961
60387SOL     OW83057   9.450   0.906   1.106
60387SOL    HW183058   9.402   0.828   1.078
60387SOL    HW283059   9.439   0.908   1.201
60388SOL     OW83060  14.661  13.595   4.428
60388SOL    HW183061  14.733  13.577   4.367
60388SOL    HW283062  14.622  13.676   4.396
60389SOL     OW83063  10.422   8.111   9.358
60389SOL    HW183064  10.508   8.144   9.333
60389SOL    HW283065  10.364   8.138   9.288
60390SOL     OW83066  12.485  13.833   6.076
60390SOL    HW183067  12.527  13.904   6.028
60390SOL    HW283068  12.471  13.765   6.010
60391SOL     OW83069   9.721   8.040   2.759
60391SOL    HW183070   9.770   8.060   2.839
60391SOL    HW283071   9.708   8.126   2.717
60392SOL     OW83072   6.432   4.228   3.574
60392SOL    HW183073   6.462   4.277   3.497
60392SOL    HW283074   6.399   4.295   3.634
60393SOL     OW83075   4.246  13.364   5.502
60393SOL    HW183076   4.233  13.283   5.453
60393SOL    HW283077   4.162  13.411   5.492
60394SOL     OW83078   2.753  11.908  11.492
60394SOL    HW183079   2.692  11.974  11.459
60394SOL    HW283080   2.710  11.824  11.471
60395SOL     OW83081   8.825  10.509   9.654
60395SOL    HW183082   8.890  10.464   9.709
60395SOL    HW283083   8.747  10.516   9.709
60396SOL     OW83084  11.929  13.977   8.284
60396SOL    HW183085  11.984  14.045   8.322
60396SOL    HW283086  11.949  13.979   8.191
60397SOL     OW83087  12.172   9.176   2.102
60397SOL    HW183088  12.216   9.247   2.147
60397SOL    HW283089  12.083   9.176   2.137
60398SOL     OW83090  13.206  10.842   8.148
60398SOL    HW183091  13.263  10.883   8.213
60398SOL    HW283092  13.267  10.797   8.089
60399SOL     OW83093  11.197   3.206   3.170
60399SOL    HW183094  11.128   3.143   3.151
60399SOL    HW283095  11.235   3.226   3.084
60400SOL     OW83096   7.710   4.531   7.184
60400SOL    HW183097   7.696   4.519   7.278
60400SOL    HW283098   7.700   4.625   7.170
60401SOL     OW83099   5.980   1.142   8.713
60401SOL    HW183100   6.019   1.228   8.730
60401SOL    HW283101   6.017   1.115   8.629
60402SOL     OW83102  14.148   6.695   8.750
60402SOL    HW183103  14.083   6.721   8.685
60402SOL    HW283104  14.167   6.774   8.799
60403SOL     OW83105   2.950   7.805   0.740
60403SOL    HW183106   2.869   7.849   0.764
60403SOL    HW283107   3.019   7.860   0.777
60404SOL     OW83108   3.826   3.355   8.064
60404SOL    HW183109   3.887   3.356   8.137
60404SOL    HW283110   3.752   3.304   8.095
60405SOL     OW83111   8.754  12.588   5.668
60405SOL    HW183112   8.836  12.637   5.673
60405SOL    HW283113   8.696  12.645   5.618
60406SOL     OW83114   8.037   6.346   8.704
60406SOL    HW183115   8.081   6.350   8.619
60406SOL    HW283116   8.097   6.299   8.761
60407SOL     OW83117   2.630   4.477   7.747
60407SOL    HW183118   2.624   4.480   7.842
60407SOL    HW283119   2.599   4.564   7.719
60408SOL     OW83120  13.651   1.142   9.794
60408SOL    HW183121  13.715   1.145   9.723
60408SOL    HW283122  13.610   1.056   9.786
60409SOL     OW83123   6.601  10.234   8.391
60409SOL    HW183124   6.530  10.256   8.331
60409SOL    HW283125   6.592  10.298   8.462
60410SOL     OW83126  12.837  10.497   8.106
60410SOL    HW183127  12.776  10.475   8.036
60410SOL    HW283128  12.923  10.470   8.073
60411SOL     OW83129  13.107   8.814   2.631
60411SOL    HW183130  13.202   8.805   2.632
60411SOL    HW283131  13.092   8.907   2.611
60412SOL     OW83132  10.245  12.757   4.543
60412SOL    HW183133  10.230  12.787   4.632
60412SOL    HW283134  10.166  12.708   4.520
60413SOL     OW83135   9.128  11.319   9.084
60413SOL    HW183136   9.100  11.407   9.060
60413SOL    HW283137   9.047  11.271   9.100
60414SOL     OW83138  11.731   5.969   6.871
60414SOL    HW183139  11.819   5.958   6.834
60414SOL    HW283140  11.714   6.063   6.861
60415SOL     OW83141   0.683  14.086  10.141
60415SOL    HW183142   0.588  14.096  10.146
60415SOL    HW283143   0.697  14.001  10.099
60416SOL     OW83144   4.860   0.828   6.384
60416SOL    HW183145   4.943   0.845   6.339
60416SOL    HW283146   4.797   0.815   6.313
60417SOL     OW83147   6.855   9.291  13.096
60417SOL    HW183148   6.895   9.279  13.182
60417SOL    HW283149   6.856   9.386  13.083
60418SOL     OW83150   2.454   5.947  11.508
60418SOL    HW183151   2.516   5.876  11.528
60418SOL    HW283152   2.428   5.931  11.417
60419SOL     OW83153   2.086   7.811   7.317
60419SOL    HW183154   2.006   7.770   7.285
60419SOL    HW283155   2.057   7.892   7.360
60420SOL     OW83156  10.364   9.638   6.229
60420SOL    HW183157  10.383   9.705   6.295
60420SOL    HW283158  10.366   9.555   6.277
60421SOL     OW83159  11.312   5.714   6.642
60421SOL    HW183160  11.362   5.795   6.653
60421SOL    HW283161  11.239   5.738   6.586
60422SOL     OW83162   2.376  11.702   6.852
60422SOL    HW183163   2.428  11.665   6.923
60422SOL    HW283164   2.398  11.796   6.852
60423SOL     OW83165   0.075  10.125   3.313
60423SOL    HW183166   0.156  10.127   3.364
60423SOL    HW283167   0.062  10.216   3.286
60424SOL     OW83168  12.969   6.436   5.528
60424SOL    HW183169  12.935   6.390   5.605
60424SOL    HW283170  13.064   6.422   5.532
60425SOL     OW83171  13.882   0.443   3.009
60425SOL    HW183172  13.879   0.349   2.992
60425SOL    HW283173  13.973   0.468   2.992
60426SOL     OW83174   7.470  14.100  11.280
60426SOL    HW183175   7.452  14.078  11.371
60426SOL    HW283176   7.519  14.182  11.285
60427SOL     OW83177  11.909   0.559  11.791
60427SOL    HW183178  11.818   0.548  11.819
60427SOL    HW283179  11.924   0.654  11.796
60428SOL     OW83180  12.586   4.888  14.531
60428SOL    HW183181  12.640   4.864  14.606
60428SOL    HW283182  12.632   4.851  14.456
60429SOL     OW83183   2.858   1.524   7.284
60429SOL    HW183184   2.767   1.493   7.281
60429SOL    HW283185   2.907   1.457   7.236
60430SOL     OW83186   8.478   2.658  14.439
60430SOL    HW183187   8.402   2.607  14.410
60430SOL    HW283188   8.459   2.681  14.530
60431SOL     OW83189   3.546   5.754   4.744
60431SOL    HW183190   3.494   5.741   4.823
60431SOL    HW283191   3.637   5.748   4.773
60432SOL     OW83192   1.276   2.210   0.560
60432SOL    HW183193   1.271   2.129   0.611
60432SOL    HW283194   1.225   2.273   0.611
60433SOL     OW83195   9.922   0.089  12.122
60433SOL    HW183196   9.828   0.106  12.113
60433SOL    HW283197   9.954   0.161  12.177
60434SOL     OW83198   0.089   5.575   8.558
60434SOL    HW183199   0.089   5.565   8.653
60434SOL    HW283200   0.036   5.653   8.542
60435SOL     OW83201   7.262  13.129  12.223
60435SOL    HW183202   7.189  13.190  12.219
60435SOL    HW283203   7.302  13.146  12.309
60436SOL     OW83204   0.364   4.200   2.999
60436SOL    HW183205   0.393   4.110   2.983
60436SOL    HW283206   0.424   4.254   2.948
60437SOL     OW83207   6.053   8.110   2.017
60437SOL    HW183208   6.067   8.103   2.111
60437SOL    HW283209   6.007   8.193   2.006
60438SOL     OW83210  14.145   3.255  12.979
60438SOL    HW183211  14.113   3.344  12.964
60438SOL    HW283212  14.223   3.266  13.033
60439SOL     OW83213   1.940  12.402   4.089
60439SOL    HW183214   1.940  12.495   4.068
60439SOL    HW283215   1.993  12.361   4.021
60440SOL     OW83216   4.036   0.847   8.304
60440SOL    HW183217   4.032   0.753   8.287
60440SOL    HW283218   4.075   0.855   8.391
60441SOL     OW83219   4.655  13.214   0.660
60441SOL    HW183220   4.575  13.200   0.711
60441SOL    HW283221   4.721  13.160   0.704
60442SOL     OW83222  13.722  14.755   9.010
60442SOL    HW183223  13.753  14.665   9.000
60442SOL    HW283224  13.646  14.748   9.068
60443SOL     OW83225   2.355  10.282   3.566
60443SOL    HW183226   2.405  10.315   3.641
60443SOL    HW283227   2.416  10.286   3.493
60444SOL     OW83228   4.571   4.240   0.767
60444SOL    HW183229   4.600   4.151   0.791
60444SOL    HW283230   4.489   4.252   0.814
60445SOL     OW83231   9.865   7.143   5.264
60445SOL    HW183232   9.867   7.145   5.360
60445SOL    HW283233   9.854   7.050   5.243
60446SOL     OW83234   4.422   2.867  11.392
60446SOL    HW183235   4.341   2.817  11.381
60446SOL    HW283236   4.489   2.800  11.407
60447SOL     OW83237  13.844   9.200   8.017
60447SOL    HW183238  13.902   9.265   7.979
60447SOL    HW283239  13.769   9.196   7.958
60448SOL     OW83240  10.895  13.716  11.345
60448SOL    HW183241  10.979  13.673  11.332
60448SOL    HW283242  10.851  13.662  11.411
60449SOL     OW83243   5.099   2.071  14.024
60449SOL    HW183244   5.112   2.000  14.086
60449SOL    HW283245   5.026   2.042  13.969
60450SOL     OW83246   8.859   9.765   1.533
60450SOL    HW183247   8.930   9.702   1.533
60450SOL    HW283248   8.781   9.714   1.555
60451SOL     OW83249  12.392   7.026  14.584
60451SOL    HW183250  12.368   6.943  14.542
60451SOL    HW283251  12.479   7.047  14.550
60452SOL     OW83252   4.973  11.872  14.384
60452SOL    HW183253   5.068  11.865  14.381
60452SOL    HW283254   4.950  11.935  14.316
60453SOL     OW83255   3.315   8.745   9.646
60453SOL    HW183256   3.364   8.813   9.692
60453SOL    HW283257   3.226   8.781   9.639
60454SOL     OW83258  13.933  14.584   4.528
60454SOL    HW183259  14.011  14.586   4.472
60454SOL    HW283260  13.965  14.605   4.615
60455SOL     OW83261   1.202   1.309  13.575
60455SOL    HW183262   1.177   1.382  13.632
60455SOL    HW283263   1.221   1.349  13.491
60456SOL     OW83264   4.208  13.897   6.930
60456SOL    HW183265   4.191  13.842   6.853
60456SOL    HW283266   4.264  13.843   6.985
60457SOL     OW83267  12.684   8.961   0.388
60457SOL    HW183268  12.752   8.961   0.321
60457SOL    HW283269  12.728   8.993   0.467
60458SOL     OW83270   9.243  11.718  10.344
60458SOL    HW183271   9.208  11.740  10.257
60458SOL    HW283272   9.337  11.713  10.331
60459SOL     OW83273  11.448   0.641   3.295
60459SOL    HW183274  11.492   0.629   3.211
60459SOL    HW283275  11.423   0.552   3.322
60460SOL     OW83276   6.448   6.390   8.783
60460SOL    HW183277   6.440   6.320   8.847
60460SOL    HW283278   6.364   6.389   8.736
60461SOL     OW83279   7.073  13.919  11.736
60461SOL    HW183280   7.102  13.938  11.647
60461SOL    HW283281   6.993  13.867  11.725
60462SOL     OW83282   8.558   9.181  12.862
60462SOL    HW183283   8.587   9.198  12.951
60462SOL    HW283284   8.596   9.252  12.810
60463SOL     OW83285   2.509   1.076   0.669
60463SOL    HW183286   2.489   1.169   0.677
60463SOL    HW283287   2.571   1.070   0.597
60464SOL     OW83288   1.175  10.389   6.211
60464SOL    HW183289   1.097  10.365   6.261
60464SOL    HW283290   1.214  10.306   6.184
60465SOL     OW83291   8.913   4.245   4.526
60465SOL    HW183292   8.982   4.268   4.464
60465SOL    HW283293   8.848   4.314   4.515
60466SOL     OW83294   4.823   4.234  12.711
60466SOL    HW183295   4.870   4.315  12.730
60466SOL    HW283296   4.796   4.243  12.619
60467SOL     OW83297   6.377  12.249   5.543
60467SOL    HW183298   6.421  12.215   5.621
60467SOL    HW283299   6.320  12.177   5.514
60468SOL     OW83300   3.886   1.889   5.042
60468SOL    HW183301   3.967   1.938   5.050
60468SOL    HW283302   3.910   1.809   4.995
60469SOL     OW83303  11.005  13.218  14.649
60469SOL    HW183304  10.937  13.210  14.716
60469SOL    HW283305  11.021  13.312  14.642
60470SOL     OW83306   1.425   0.680   6.648
60470SOL    HW183307   1.337   0.660   6.680
60470SOL    HW283308   1.429   0.640   6.561
60471SOL     OW83309   3.010  12.332   9.971
60471SOL    HW183310   3.021  12.317   9.877
60471SOL    HW283311   2.930  12.384   9.979
60472SOL     OW83312  14.670   1.542   7.671
60472SOL    HW183313  14.620   1.623   7.674
60472SOL    HW283314  14.709   1.540   7.583
60473SOL     OW83315   4.678   3.042  10.529
60473SOL    HW183316   4.683   3.070  10.620
60473SOL    HW283317   4.760   2.995  10.514
60474SOL     OW83318   6.242   0.320   1.817
60474SOL    HW183319   6.160   0.306   1.769
60474SOL    HW283320   6.300   0.362   1.753
60475SOL     OW83321  12.042   8.324  10.593
60475SOL    HW183322  12.045   8.418  10.573
60475SOL    HW283323  11.989   8.286  10.523
60476SOL     OW83324   2.140   6.332   9.651
60476SOL    HW183325   2.192   6.251   9.656
60476SOL    HW283326   2.135   6.363   9.741
60477SOL     OW83327  14.641   2.347   9.630
60477SOL    HW183328  14.689   2.429   9.643
60477SOL    HW283329  14.597   2.359   9.546
60478SOL     OW83330  13.272   3.516  13.538
60478SOL    HW183331  13.336   3.457  13.577
60478SOL    HW283332  13.310   3.603  13.549
60479SOL     OW83333   8.982  11.401   5.242
60479SOL    HW183334   9.063  11.353   5.229
60479SOL    HW283335   9.002  11.467   5.308
60480SOL     OW83336   0.596   1.073  13.112
60480SOL    HW183337   0.520   1.021  13.085
60480SOL    HW283338   0.583   1.088  13.205
60481SOL     OW83339  14.307   5.391   5.046
60481SOL    HW183340  14.323   5.333   5.121
60481SOL    HW283341  14.310   5.479   5.083
60482SOL     OW83342   2.609  10.462   0.503
60482SOL    HW183343   2.572  10.417   0.579
60482SOL    HW283344   2.541  10.456   0.436
60483SOL     OW83345  13.267   7.004  10.060
60483SOL    HW183346  13.184   7.048  10.041
60483SOL    HW283347  13.310   7.060  10.125
60484SOL     OW83348   4.019   9.578   3.932
60484SOL    HW183349   3.992   9.513   3.867
60484SOL    HW283350   4.022   9.660   3.884
60485SOL     OW83351   8.391   7.413   1.469
60485SOL    HW183352   8.392   7.439   1.377
60485SOL    HW283353   8.380   7.495   1.517
60486SOL     OW83354  13.415   0.994  10.092
60486SOL    HW183355  13.386   0.995  10.183
60486SOL    HW283356  13.441   1.084  10.073
60487SOL     OW83357   8.576   4.493   0.620
60487SOL    HW183358   8.600   4.400   0.616
60487SOL    HW283359   8.530   4.502   0.703
60488SOL     OW83360   4.611   6.051   7.018
60488SOL    HW183361   4.558   5.972   7.015
60488SOL    HW283362   4.550   6.121   7.042
60489SOL     OW83363   7.897  13.422   6.444
60489SOL    HW183364   7.892  13.496   6.505
60489SOL    HW283365   7.989  13.418   6.420
60490SOL     OW83366  14.004   8.169  10.144
60490SOL    HW183367  13.914   8.140  10.130
60490SOL    HW283368  14.053   8.130  10.072
60491SOL     OW83369  11.512   7.374   6.117
60491SOL    HW183370  11.585   7.418   6.073
60491SOL    HW283371  11.522   7.398   6.210
60492SOL     OW83372   3.515   3.944   8.892
60492SOL    HW183373   3.526   3.870   8.832
60492SOL    HW283374   3.465   4.008   8.842
60493SOL     OW83375   3.259  12.870  11.368
60493SOL    HW183376   3.319  12.944  11.377
60493SOL    HW283377   3.310  12.805  11.319
60494SOL     OW83378   6.188   6.685   9.399
60494SOL    HW183379   6.281   6.703   9.395
60494SOL    HW283380   6.152   6.753   9.457
60495SOL     OW83381   7.883  12.263   9.407
60495SOL    HW183382   7.957  12.307   9.366
60495SOL    HW283383   7.810  12.275   9.345
60496SOL     OW83384   6.603   5.299  12.245
60496SOL    HW183385   6.589   5.307  12.151
60496SOL    HW283386   6.673   5.234  12.254
60497SOL     OW83387   7.848   5.379   6.475
60497SOL    HW183388   7.926   5.342   6.516
60497SOL    HW283389   7.796   5.414   6.548
60498SOL     OW83390   1.921  13.135  14.464
60498SOL    HW183391   2.013  13.124  14.488
60498SOL    HW283392   1.891  13.209  14.517
60499SOL     OW83393  12.416  10.987   3.905
60499SOL    HW183394  12.358  11.001   3.980
60499SOL    HW283395  12.498  11.029   3.931
60500SOL     OW83396   3.444   8.742  11.742
60500SOL    HW183397   3.449   8.811  11.676
60500SOL    HW283398   3.368   8.766  11.796
60501SOL     OW83399   8.119  14.018  11.251
60501SOL    HW183400   8.197  14.056  11.291
60501SOL    HW283401   8.046  14.069  11.288
60502SOL     OW83402  10.004   3.977   2.089
60502SOL    HW183403   9.921   3.960   2.044
60502SOL    HW283404  10.015   3.903   2.148
60503SOL     OW83405   1.331   4.190   7.021
60503SOL    HW183406   1.333   4.106   7.067
60503SOL    HW283407   1.240   4.220   7.028
60504SOL     OW83408  14.859   5.024  14.135
60504SOL    HW183409  14.767   5.032  14.159
60504SOL    HW283410   0.009   5.104  14.087
60505SOL     OW83411  12.632   7.128  14.489
60505SOL    HW183412  12.580   7.195  14.533
60505SOL    HW283413  12.719   7.135  14.528
60506SOL     OW83414   8.224   6.419  12.545
60506SOL    HW183415   8.190   6.373  12.468
60506SOL    HW283416   8.292   6.476  12.509
60507SOL     OW83417   0.847   2.250   3.219
60507SOL    HW183418   0.759   2.216   3.202
60507SOL    HW283419   0.905   2.195   3.166
60508SOL     OW83420  10.790  12.994   4.882
60508SOL    HW183421  10.775  13.016   4.790
60508SOL    HW283422  10.885  12.994   4.891
60509SOL     OW83423  12.295   3.075   4.321
60509SOL    HW183424  12.327   3.094   4.409
60509SOL    HW283425  12.266   3.159   4.287
60510SOL     OW83426   5.201  14.247   7.611
60510SOL    HW183427   5.194  14.236   7.516
60510SOL    HW283428   5.194  14.341   7.625
60511SOL     OW83429   2.667   5.518  11.132
60511SOL    HW183430   2.717   5.600  11.127
60511SOL    HW283431   2.578   5.547  11.151
60512SOL     OW83432   8.230   2.039   6.357
60512SOL    HW183433   8.184   2.101   6.414
60512SOL    HW283434   8.199   1.953   6.386
60513SOL     OW83435   3.773   3.439   2.934
60513SOL    HW183436   3.758   3.524   2.893
60513SOL    HW283437   3.835   3.395   2.875
60514SOL     OW83438  10.400   6.588   2.102
60514SOL    HW183439  10.358   6.537   2.033
60514SOL    HW283440  10.441   6.661   2.056
60515SOL     OW83441   7.748  13.768  13.662
60515SOL    HW183442   7.774  13.798  13.575
60515SOL    HW283443   7.677  13.827  13.687
60516SOL     OW83444  10.056  10.136  14.157
60516SOL    HW183445  10.132  10.079  14.159
60516SOL    HW283446  10.082  10.210  14.102
60517SOL     OW83447  13.213   4.697  11.136
60517SOL    HW183448  13.209   4.696  11.040
60517SOL    HW283449  13.205   4.605  11.161
60518SOL     OW83450   2.379   1.560   8.063
60518SOL    HW183451   2.355   1.651   8.047
60518SOL    HW283452   2.389   1.554   8.158
60519SOL     OW83453  10.181   0.505  14.665
60519SOL    HW183454  10.236   0.547  14.730
60519SOL    HW283455  10.120   0.573  14.636
60520SOL     OW83456   1.640  14.559  14.823
60520SOL    HW183457   1.620  14.642  14.778
60520SOL    HW283458   1.556  14.515  14.831
60521SOL     OW83459   5.047  13.010   1.256
60521SOL    HW183460   5.072  12.987   1.167
60521SOL    HW283461   4.951  13.001   1.257
60522SOL     OW83462   4.917   5.487  10.825
60522SOL    HW183463   5.012   5.483  10.831
60522SOL    HW283464   4.887   5.415  10.881
60523SOL     OW83465   9.401  12.615  13.641
60523SOL    HW183466   9.410  12.531  13.686
60523SOL    HW283467   9.335  12.662  13.691
60524SOL     OW83468  14.026   4.440   5.903
60524SOL    HW183469  14.042   4.385   5.827
60524SOL    HW283470  14.104   4.496   5.909
60525SOL     OW83471   4.692   2.812   4.871
60525SOL    HW183472   4.650   2.895   4.895
60525SOL    HW283473   4.784   2.824   4.892
60526SOL     OW83474  12.137   3.783   4.081
60526SOL    HW183475  12.220   3.825   4.107
60526SOL    HW283476  12.153   3.754   3.991
60527SOL     OW83477   9.413  10.774   7.115
60527SOL    HW183478   9.358  10.815   7.183
60527SOL    HW283479   9.389  10.820   7.035
60528SOL     OW83480  12.799  12.588   0.093
60528SOL    HW183481  12.876  12.627   0.135
60528SOL    HW283482  12.810  12.494   0.105
60529SOL     OW83483   1.707   2.184   5.863
60529SOL    HW183484   1.730   2.254   5.924
60529SOL    HW283485   1.781   2.180   5.802
60530SOL     OW83486  12.944   5.104   2.157
60530SOL    HW183487  12.892   5.098   2.077
60530SOL    HW283488  12.918   5.026   2.207
60531SOL     OW83489   7.268   8.996   1.102
60531SOL    HW183490   7.313   9.059   1.046
60531SOL    HW283491   7.313   8.913   1.086
60532SOL     OW83492   8.245  12.670   5.600
60532SOL    HW183493   8.262  12.589   5.647
60532SOL    HW283494   8.152  12.666   5.577
60533SOL     OW83495   7.343   3.791   3.470
60533SOL    HW183496   7.319   3.811   3.379
60533SOL    HW283497   7.412   3.725   3.463
60534SOL     OW83498   6.723   3.334  11.597
60534SOL    HW183499   6.676   3.293  11.524
60534SOL    HW283500   6.800   3.374  11.556
60535SOL     OW83501   8.677  12.808  14.051
60535SOL    HW183502   8.758  12.758  14.059
60535SOL    HW283503   8.691  12.884  14.108
60536SOL     OW83504  11.222   2.293   8.461
60536SOL    HW183505  11.194   2.372   8.507
60536SOL    HW283506  11.140   2.255   8.427
60537SOL     OW83507   9.438  11.955   1.270
60537SOL    HW183508   9.511  12.009   1.242
60537SOL    HW283509   9.428  11.889   1.201
60538SOL     OW83510   2.975  10.362   0.043
60538SOL    HW183511   2.970  10.268   0.025
60538SOL    HW283512   2.926  10.402  14.841
60539SOL     OW83513  12.264  14.780   2.232
60539SOL    HW183514  12.195  14.816   2.176
60539SOL    HW283515  12.260  14.832   2.312
60540SOL     OW83516   7.347   0.525   0.294
60540SOL    HW183517   7.368   0.548   0.203
60540SOL    HW283518   7.394   0.442   0.309
60541SOL     OW83519   2.994   7.588   3.686
60541SOL    HW183520   2.954   7.570   3.600
60541SOL    HW283521   2.925   7.631   3.736
60542SOL     OW83522   1.231  14.054   1.512
60542SOL    HW183523   1.304  13.994   1.517
60542SOL    HW283524   1.269  14.140   1.529
60543SOL     OW83525   9.986  10.473   4.363
60543SOL    HW183526   9.990  10.409   4.292
60543SOL    HW283527   9.929  10.433   4.429
60544SOL     OW83528   0.814   4.901   1.627
60544SOL    HW183529   0.771   4.854   1.698
60544SOL    HW283530   0.877   4.959   1.671
60545SOL     OW83531  12.068   8.295   1.507
60545SOL    HW183532  12.089   8.254   1.423
60545SOL    HW283533  12.125   8.371   1.512
60546SOL     OW83534  10.085   7.775   9.730
60546SOL    HW183535  10.110   7.703   9.788
60546SOL    HW283536  10.109   7.745   9.642
60547SOL     OW83537   5.688   4.015  11.979
60547SOL    HW183538   5.678   3.922  12.000
60547SOL    HW283539   5.650   4.060  12.055
60548SOL     OW83540  12.924  13.219   7.793
60548SOL    HW183541  12.969  13.279   7.853
60548SOL    HW283542  12.981  13.143   7.788
60549SOL     OW83543   6.305  10.428   5.612
60549SOL    HW183544   6.239  10.417   5.544
60549SOL    HW283545   6.374  10.481   5.572
60550SOL     OW83546   1.928  13.311   9.958
60550SOL    HW183547   1.990  13.239   9.947
60550SOL    HW283548   1.911  13.343   9.870
60551SOL     OW83549   4.701   2.030   7.280
60551SOL    HW183550   4.727   1.952   7.230
60551SOL    HW283551   4.605   2.030   7.275
60552SOL     OW83552   4.037  10.815   8.575
60552SOL    HW183553   4.058  10.892   8.523
60552SOL    HW283554   4.053  10.741   8.516
60553SOL     OW83555  14.513   9.817   8.497
60553SOL    HW183556  14.600   9.840   8.531
60553SOL    HW283557  14.474   9.762   8.564
60554SOL     OW83558   8.332  11.036   3.789
60554SOL    HW183559   8.242  11.009   3.808
60554SOL    HW283560   8.326  11.080   3.704
60555SOL     OW83561   8.387   2.888   2.429
60555SOL    HW183562   8.405   2.840   2.511
60555SOL    HW283563   8.306   2.935   2.448
60556SOL     OW83564   3.163  12.256   6.085
60556SOL    HW183565   3.145  12.240   6.177
60556SOL    HW283566   3.253  12.288   6.083
60557SOL     OW83567  10.655  10.928   2.538
60557SOL    HW183568  10.630  10.992   2.472
60557SOL    HW283569  10.599  10.852   2.520
60558SOL     OW83570   6.436  10.220  11.353
60558SOL    HW183571   6.418  10.144  11.409
60558SOL    HW283572   6.529  10.238  11.365
60559SOL     OW83573  12.499   5.338  14.060
60559SOL    HW183574  12.440   5.403  14.098
60559SOL    HW283575  12.562   5.320  14.130
60560SOL     OW83576   9.702  10.037  14.642
60560SOL    HW183577   9.713  10.050  14.548
60560SOL    HW283578   9.637   9.968  14.649
60561SOL     OW83579   2.915  14.178   0.436
60561SOL    HW183580   2.985  14.177   0.502
60561SOL    HW283581   2.843  14.129   0.478
60562SOL     OW83582   2.680   6.005   9.277
60562SOL    HW183583   2.706   6.011   9.186
60562SOL    HW283584   2.698   6.091   9.314
60563SOL     OW83585  13.610   3.194   6.953
60563SOL    HW183586  13.594   3.271   7.007
60563SOL    HW283587  13.704   3.179   6.959
60564SOL     OW83588  14.379   3.243   8.774
60564SOL    HW183589  14.375   3.185   8.851
60564SOL    HW283590  14.309   3.211   8.717
60565SOL     OW83591   1.927   3.732  14.124
60565SOL    HW183592   1.931   3.826  14.109
60565SOL    HW283593   1.920   3.693  14.037
60566SOL     OW83594  12.332  13.714  14.527
60566SOL    HW183595  12.320  13.794  14.475
60566SOL    HW283596  12.401  13.666  14.481
60567SOL     OW83597   2.556  14.487   2.770
60567SOL    HW183598   2.589  14.449   2.689
60567SOL    HW283599   2.470  14.521   2.747
60568SOL     OW83600   5.876   5.073   3.067
60568SOL    HW183601   5.842   5.131   2.999
60568SOL    HW283602   5.964   5.105   3.084
60569SOL     OW83603   8.889  12.664   3.048
60569SOL    HW183604   8.829  12.673   3.122
60569SOL    HW283605   8.951  12.737   3.058
60570SOL     OW83606   6.555  12.128  13.870
60570SOL    HW183607   6.546  12.187  13.945
60570SOL    HW283608   6.495  12.056  13.890
60571SOL     OW83609   9.497   9.645   1.854
60571SOL    HW183610   9.559   9.686   1.793
60571SOL    HW283611   9.551   9.582   1.903
60572SOL     OW83612  11.480  12.254  14.151
60572SOL    HW183613  11.532  12.333  14.136
60572SOL    HW283614  11.487  12.204  14.070
60573SOL     OW83615   8.127   2.044   6.674
60573SOL    HW183616   8.125   1.954   6.704
60573SOL    HW283617   8.195   2.086   6.726
60574SOL     OW83618   5.726   0.894   3.134
60574SOL    HW183619   5.722   0.888   3.229
60574SOL    HW283620   5.745   0.805   3.105
60575SOL     OW83621   7.429   6.883   8.382
60575SOL    HW183622   7.471   6.967   8.362
60575SOL    HW283623   7.426   6.837   8.298
60576SOL     OW83624   4.783  11.582   2.624
60576SOL    HW183625   4.735  11.511   2.581
60576SOL    HW283626   4.789  11.555   2.715
60577SOL     OW83627   4.474   5.876   1.710
60577SOL    HW183628   4.461   5.891   1.616
60577SOL    HW283629   4.469   5.963   1.749
60578SOL     OW83630   6.581   7.194  11.917
60578SOL    HW183631   6.676   7.202  11.930
60578SOL    HW283632   6.563   7.101  11.930
60579SOL     OW83633  12.866   0.486  13.286
60579SOL    HW183634  12.915   0.519  13.211
60579SOL    HW283635  12.782   0.532  13.281
60580SOL     OW83636  12.836   8.007  10.512
60580SOL    HW183637  12.847   7.965  10.427
60580SOL    HW283638  12.921   7.999  10.555
60581SOL     OW83639   9.742   3.273  10.388
60581SOL    HW183640   9.690   3.293  10.465
60581SOL    HW283641   9.789   3.354  10.369
60582SOL     OW83642   7.714   0.164  11.227
60582SOL    HW183643   7.709   0.202  11.315
60582SOL    HW283644   7.808   0.156  11.210
60583SOL     OW83645   7.726  11.861   3.874
60583SOL    HW183646   7.818  11.838   3.875
60583SOL    HW283647   7.717  11.926   3.945
60584SOL     OW83648   6.866  10.019   7.440
60584SOL    HW183649   6.786   9.978   7.406
60584SOL    HW283650   6.834  10.094   7.490
60585SOL     OW83651  14.019   5.194   5.612
60585SOL    HW183652  13.986   5.247   5.539
60585SOL    HW283653  14.111   5.218   5.619
60586SOL     OW83654   0.553   7.650   8.338
60586SOL    HW183655   0.617   7.584   8.309
60586SOL    HW283656   0.604   7.709   8.393
60587SOL     OW83657   2.049  11.063   7.809
60587SOL    HW183658   2.100  10.983   7.818
60587SOL    HW283659   1.997  11.067   7.890
60588SOL     OW83660  13.928   7.236  10.276
60588SOL    HW183661  13.964   7.148  10.266
60588SOL    HW283662  13.940   7.256  10.368
60589SOL     OW83663  13.991   6.782   5.300
60589SOL    HW183664  14.052   6.844   5.338
60589SOL    HW283665  14.012   6.698   5.341
60590SOL     OW83666   5.139   6.334   7.706
60590SOL    HW183667   5.159   6.413   7.755
60590SOL    HW283668   5.048   6.345   7.678
60591SOL     OW83669   7.368   0.568  10.589
60591SOL    HW183670   7.451   0.604  10.619
60591SOL    HW283671   7.342   0.626  10.517
60592SOL     OW83672   0.715   4.182   8.669
60592SOL    HW183673   0.777   4.171   8.597
60592SOL    HW283674   0.759   4.241   8.730
60593SOL     OW83675   6.004  13.441   9.379
60593SOL    HW183676   5.988  13.353   9.344
60593SOL    HW283677   5.932  13.494   9.346
60594SOL     OW83678   3.408   2.804   3.394
60594SOL    HW183679   3.411   2.854   3.476
60594SOL    HW283680   3.444   2.718   3.416
60595SOL     OW83681   1.783  14.145   6.454
60595SOL    HW183682   1.869  14.150   6.414
60595SOL    HW283683   1.795  14.089   6.531
60596SOL     OW83684  10.785   1.772   5.080
60596SOL    HW183685  10.872   1.768   5.040
60596SOL    HW283686  10.725   1.761   5.006
60597SOL     OW83687   8.158   9.935  11.009
60597SOL    HW183688   8.108  10.016  11.026
60597SOL    HW283689   8.154   9.925  10.914
60598SOL     OW83690   7.387   4.152   1.691
60598SOL    HW183691   7.481   4.163   1.707
60598SOL    HW283692   7.346   4.223   1.740
60599SOL     OW83693   0.839  13.698   5.856
60599SOL    HW183694   0.786  13.693   5.776
60599SOL    HW283695   0.778  13.730   5.923
60600SOL     OW83696  14.765   7.838   9.447
60600SOL    HW183697  14.859   7.831   9.431
60600SOL    HW283698  14.748   7.932   9.451
60601SOL     OW83699   1.968   4.830   8.656
60601SOL    HW183700   2.058   4.862   8.647
60601SOL    HW283701   1.976   4.735   8.645
60602SOL     OW83702   6.320   8.683   7.401
60602SOL    HW183703   6.321   8.650   7.311
60602SOL    HW283704   6.238   8.650   7.437
60603SOL     OW83705   2.212   0.988   7.068
60603SOL    HW183706   2.251   1.076   7.070
60603SOL    HW283707   2.249   0.943   7.143
60604SOL     OW83708  11.627   5.396   0.243
60604SOL    HW183709  11.564   5.382   0.172
60604SOL    HW283710  11.681   5.469   0.213
60605SOL     OW83711   1.117   3.283  10.792
60605SOL    HW183712   1.093   3.362  10.841
60605SOL    HW283713   1.036   3.234  10.783
60606SOL     OW83714   1.008  11.989   2.748
60606SOL    HW183715   1.027  11.944   2.831
60606SOL    HW283716   1.093  12.013   2.713
60607SOL     OW83717   6.690   2.176   8.978
60607SOL    HW183718   6.606   2.214   8.952
60607SOL    HW283719   6.743   2.178   8.898
60608SOL     OW83720   5.272  14.456   5.275
60608SOL    HW183721   5.219  14.535   5.283
60608SOL    HW283722   5.210  14.389   5.245
60609SOL     OW83723   0.978  13.612   8.893
60609SOL    HW183724   0.986  13.612   8.798
60609SOL    HW283725   0.918  13.540   8.913
60610SOL     OW83726   4.871   0.731  13.487
60610SOL    HW183727   4.791   0.694  13.522
60610SOL    HW283728   4.842   0.802  13.429
60611SOL     OW83729   2.176  11.019  10.222
60611SOL    HW183730   2.155  11.069  10.143
60611SOL    HW283731   2.126  11.062  10.292
60612SOL     OW83732   8.112   2.557   3.137
60612SOL    HW183733   8.168   2.621   3.182
60612SOL    HW283734   8.033   2.553   3.190
60613SOL     OW83735  13.960  10.517   8.557
60613SOL    HW183736  13.893  10.453   8.581
60613SOL    HW283737  13.942  10.593   8.612
60614SOL     OW83738   6.816   0.366   1.785
60614SOL    HW183739   6.744   0.412   1.829
60614SOL    HW283740   6.774   0.323   1.710
60615SOL     OW83741   1.659  12.685  13.818
60615SOL    HW183742   1.568  12.683  13.847
60615SOL    HW283743   1.653  12.682  13.722
60616SOL     OW83744   4.785   3.201   4.899
60616SOL    HW183745   4.810   3.178   4.989
60616SOL    HW283746   4.849   3.155   4.845
60617SOL     OW83747  10.269   5.440   6.934
60617SOL    HW183748  10.213   5.416   6.860
60617SOL    HW283749  10.208   5.449   7.008
60618SOL     OW83750  10.367   1.447  14.412
60618SOL    HW183751  10.395   1.355  14.419
60618SOL    HW283752  10.351   1.460  14.318
60619SOL     OW83753   9.344   4.311   6.382
60619SOL    HW183754   9.317   4.401   6.361
60619SOL    HW283755   9.289   4.287   6.456
60620SOL     OW83756   7.138  12.959   4.910
60620SOL    HW183757   7.072  12.971   4.842
60620SOL    HW283758   7.135  13.040   4.961
60621SOL     OW83759   6.703  11.779   9.456
60621SOL    HW183760   6.659  11.827   9.527
60621SOL    HW283761   6.792  11.766   9.487
60622SOL     OW83762   9.916  14.002   1.706
60622SOL    HW183763   9.903  14.067   1.776
60622SOL    HW283764   9.994  14.031   1.660
60623SOL     OW83765   0.667   3.517   1.526
60623SOL    HW183766   0.596   3.456   1.503
60623SOL    HW283767   0.706   3.479   1.604
60624SOL     OW83768   4.000   9.224   7.164
60624SOL    HW183769   4.062   9.296   7.168
60624SOL    HW283770   3.966   9.227   7.074
60625SOL     OW83771   0.237   5.343   3.360
60625SOL    HW183772   0.242   5.315   3.269
60625SOL    HW283773   0.302   5.412   3.368
60626SOL     OW83774   6.161   6.798  13.606
60626SOL    HW183775   6.212   6.767  13.681
60626SOL    HW283776   6.186   6.890  13.596
60627SOL     OW83777  11.352   3.129  10.854
60627SOL    HW183778  11.430   3.074  10.865
60627SOL    HW283779  11.327   3.118  10.762
60628SOL     OW83780   8.680   5.642   3.237
60628SOL    HW183781   8.707   5.710   3.299
60628SOL    HW283782   8.687   5.560   3.286
60629SOL     OW83783   3.177   3.787   5.666
60629SOL    HW183784   3.259   3.744   5.689
60629SOL    HW283785   3.110   3.719   5.676
60630SOL     OW83786   3.934  10.951   9.059
60630SOL    HW183787   3.926  10.911   8.972
60630SOL    HW283788   3.847  10.940   9.098
60631SOL     OW83789  14.026   2.926   3.707
60631SOL    HW183790  14.054   2.973   3.629
60631SOL    HW283791  13.966   2.859   3.675
60632SOL     OW83792   0.055  14.570  14.835
60632SOL    HW183793   0.086  14.635  14.772
60632SOL    HW283794  14.851  14.527  14.791
60633SOL     OW83795  12.986   5.247   2.755
60633SOL    HW183796  13.018   5.322   2.706
60633SOL    HW283797  13.053   5.180   2.743
60634SOL     OW83798   7.319  10.722   7.792
60634SOL    HW183799   7.412  10.734   7.770
60634SOL    HW283800   7.303  10.628   7.780
60635SOL     OW83801   5.794   0.392  11.867
60635SOL    HW183802   5.717   0.336  11.874
60635SOL    HW283803   5.818   0.390  11.775
60636SOL     OW83804   8.225   7.406   8.313
60636SOL    HW183805   8.243   7.455   8.233
60636SOL    HW283806   8.183   7.325   8.282
60637SOL     OW83807   0.955  11.306  11.191
60637SOL    HW183808   1.049  11.293  11.202
60637SOL    HW283809   0.934  11.266  11.107
60638SOL     OW83810   6.643  13.128   7.763
60638SOL    HW183811   6.694  13.170   7.693
60638SOL    HW283812   6.553  13.132   7.732
60639SOL     OW83813   0.294  14.219   1.218
60639SOL    HW183814   0.282  14.290   1.281
60639SOL    HW283815   0.380  14.183   1.238
60640SOL     OW83816   9.539  13.672   1.012
60640SOL    HW183817   9.456  13.714   1.032
60640SOL    HW283818   9.589  13.738   0.964
60641SOL     OW83819   1.895   4.836   3.944
60641SOL    HW183820   1.802   4.857   3.947
60641SOL    HW283821   1.920   4.822   4.036
60642SOL     OW83822   1.230  13.592   2.266
60642SOL    HW183823   1.275  13.513   2.297
60642SOL    HW283824   1.137  13.576   2.284
60643SOL     OW83825   1.019  11.946   0.794
60643SOL    HW183826   1.036  11.955   0.887
60643SOL    HW283827   1.032  11.853   0.775
60644SOL     OW83828  10.585   6.638   1.016
60644SOL    HW183829  10.613   6.711   0.961
60644SOL    HW283830  10.604   6.667   1.106
60645SOL     OW83831   6.644   1.622  14.728
60645SOL    HW183832   6.620   1.712  14.752
60645SOL    HW283833   6.666   1.628  14.635
60646SOL     OW83834  11.375   2.374  14.594
60646SOL    HW183835  11.283   2.397  14.581
60646SOL    HW283836  11.399   2.328  14.514
60647SOL     OW83837   0.804  12.087   3.626
60647SOL    HW183838   0.715  12.097   3.660
60647SOL    HW283839   0.806  11.998   3.590
60648SOL     OW83840   8.159   3.753  13.888
60648SOL    HW183841   8.167   3.845  13.913
60648SOL    HW283842   8.243   3.714  13.913
60649SOL     OW83843   4.337  14.050  10.631
60649SOL    HW183844   4.264  14.068  10.572
60649SOL    HW283845   4.386  13.981  10.587
60650SOL     OW83846   8.889   9.481   4.953
60650SOL    HW183847   8.909   9.408   5.012
60650SOL    HW283848   8.937   9.555   4.991
60651SOL     OW83849   2.340  13.563   6.316
60651SOL    HW183850   2.360  13.495   6.253
60651SOL    HW283851   2.331  13.643   6.263
60652SOL     OW83852  14.743   8.203   3.052
60652SOL    HW183853  14.791   8.123   3.072
60652SOL    HW283854  14.738   8.204   2.957
60653SOL     OW83855  14.461  10.872   3.669
60653SOL    HW183856  14.459  10.943   3.734
60653SOL    HW283857  14.369  10.853   3.652
60654SOL     OW83858  11.962   3.349   7.827
60654SOL    HW183859  12.020   3.321   7.756
60654SOL    HW283860  12.002   3.429   7.861
60655SOL     OW83861  14.158   5.182   2.613
60655SOL    HW183862  14.112   5.209   2.693
60655SOL    HW283863  14.218   5.114   2.642
60656SOL     OW83864   0.668   7.964  14.195
60656SOL    HW183865   0.604   8.030  14.222
60656SOL    HW283866   0.668   7.967  14.099
60657SOL     OW83867  10.299   1.732   2.659
60657SOL    HW183868  10.246   1.805   2.625
60657SOL    HW283869  10.262   1.715   2.745
60658SOL     OW83870  13.358   5.672   2.748
60658SOL    HW183871  13.267   5.695   2.732
60658SOL    HW283872  13.357   5.630   2.835
60659SOL     OW83873  12.583   3.187   3.749
60659SOL    HW183874  12.613   3.117   3.808
60659SOL    HW283875  12.492   3.203   3.774
60660SOL     OW83876  11.464   3.886  12.456
60660SOL    HW183877  11.556   3.911  12.466
60660SOL    HW283878  11.453   3.811  12.513
60661SOL     OW83879   1.895   4.078   8.941
60661SOL    HW183880   1.955   4.102   8.870
60661SOL    HW283881   1.933   4.000   8.981
60662SOL     OW83882  13.022   4.391   1.314
60662SOL    HW183883  13.078   4.321   1.349
60662SOL    HW283884  12.973   4.349   1.244
60663SOL     OW83885   0.790  14.050   6.328
60663SOL    HW183886   0.831  14.101   6.259
60663SOL    HW283887   0.839  14.071   6.407
60664SOL     OW83888  13.384   8.582   5.614
60664SOL    HW183889  13.421   8.636   5.684
60664SOL    HW283890  13.423   8.617   5.534
60665SOL     OW83891   0.262   5.177   6.532
60665SOL    HW183892   0.193   5.243   6.521
60665SOL    HW283893   0.223   5.112   6.590
60666SOL     OW83894   8.942   8.670   5.693
60666SOL    HW183895   8.968   8.677   5.602
60666SOL    HW283896   8.850   8.641   5.690
60667SOL     OW83897  10.213   8.758   9.711
60667SOL    HW183898  10.203   8.849   9.739
60667SOL    HW283899  10.187   8.706   9.787
60668SOL     OW83900   5.787  10.164   5.721
60668SOL    HW183901   5.745  10.079   5.710
60668SOL    HW283902   5.880  10.145   5.725
60669SOL     OW83903   1.165   2.647  12.953
60669SOL    HW183904   1.131   2.725  12.997
60669SOL    HW283905   1.252   2.673  12.922
60670SOL     OW83906  12.226  10.174   7.313
60670SOL    HW183907  12.191  10.169   7.224
60670SOL    HW283908  12.265  10.261   7.319
60671SOL     OW83909   2.338   2.350   3.717
60671SOL    HW183910   2.375   2.359   3.805
60671SOL    HW283911   2.402   2.390   3.659
60672SOL     OW83912   9.973   2.265  10.949
60672SOL    HW183913  10.006   2.178  10.971
60672SOL    HW283914  10.038   2.302  10.889
60673SOL     OW83915  11.504   1.586  11.353
60673SOL    HW183916  11.432   1.527  11.375
60673SOL    HW283917  11.503   1.653  11.422
60674SOL     OW83918  14.272   2.818   9.053
60674SOL    HW183919  14.303   2.863   9.132
60674SOL    HW283920  14.351   2.796   9.005
60675SOL     OW83921   0.895   6.085  11.175
60675SOL    HW183922   0.951   6.159  11.201
60675SOL    HW283923   0.927   6.060  11.088
60676SOL     OW83924   7.915  11.471   5.335
60676SOL    HW183925   7.893  11.455   5.243
60676SOL    HW283926   7.842  11.433   5.384
60677SOL     OW83927  12.248   9.404   4.689
60677SOL    HW183928  12.282   9.444   4.609
60677SOL    HW283929  12.252   9.310   4.672
60678SOL     OW83930  11.040  14.295   8.847
60678SOL    HW183931  10.948  14.304   8.872
60678SOL    HW283932  11.041  14.222   8.785
60679SOL     OW83933  13.344  13.024   6.425
60679SOL    HW183934  13.334  13.023   6.330
60679SOL    HW283935  13.438  13.039   6.438
60680SOL     OW83936   4.777  13.213   5.148
60680SOL    HW183937   4.855  13.227   5.094
60680SOL    HW283938   4.811  13.179   5.231
60681SOL     OW83939   7.610  10.047  10.969
60681SOL    HW183940   7.644  10.014  11.052
60681SOL    HW283941   7.531   9.995  10.953
60682SOL     OW83942   5.710  14.671   8.602
60682SOL    HW183943   5.675  14.760   8.597
60682SOL    HW283944   5.778  14.669   8.534
60683SOL     OW83945   9.359   3.773   0.900
60683SOL    HW183946   9.402   3.688   0.908
60683SOL    HW283947   9.428   3.837   0.921
60684SOL     OW83948   9.368  11.096  10.971
60684SOL    HW183949   9.453  11.135  10.990
60684SOL    HW283950   9.385  11.002  10.966
60685SOL     OW83951   3.111   5.201  10.011
60685SOL    HW183952   3.185   5.247   9.971
60685SOL    HW283953   3.106   5.118   9.964
60686SOL     OW83954  12.714   9.721   7.019
60686SOL    HW183955  12.620   9.702   7.016
60686SOL    HW283956  12.719   9.817   7.021
60687SOL     OW83957   4.429   1.099   3.501
60687SOL    HW183958   4.391   1.073   3.585
60687SOL    HW283959   4.398   1.188   3.488
60688SOL     OW83960  13.076  13.230  13.214
60688SOL    HW183961  13.109  13.238  13.304
60688SOL    HW283962  13.092  13.316  13.175
60689SOL     OW83963  10.704   6.820   6.154
60689SOL    HW183964  10.646   6.867   6.214
60689SOL    HW283965  10.687   6.728   6.173
60690SOL     OW83966  12.311   0.309   6.536
60690SOL    HW183967  12.389   0.253   6.536
60690SOL    HW283968  12.240   0.249   6.559
60691SOL     OW83969  10.785   9.633   9.629
60691SOL    HW183970  10.839   9.657   9.554
60691SOL    HW283971  10.775   9.538   9.623
60692SOL     OW83972   3.842   8.344  14.813
60692SOL    HW183973   3.808   8.315   0.028
60692SOL    HW283974   3.802   8.285  14.749
60693SOL     OW83975  10.735  11.728  10.792
60693SOL    HW183976  10.827  11.727  10.821
60693SOL    HW283977  10.725  11.646  10.745
60694SOL     OW83978   8.265   9.407   3.737
60694SOL    HW183979   8.251   9.436   3.646
60694SOL    HW283980   8.280   9.488   3.785
60695SOL     OW83981   4.301   6.785   6.242
60695SOL    HW183982   4.305   6.880   6.259
60695SOL    HW283983   4.240   6.776   6.169
60696SOL     OW83984   7.903   3.747  11.054
60696SOL    HW183985   7.972   3.811  11.038
60696SOL    HW283986   7.836   3.767  10.988
60697SOL     OW83987   3.831   7.874  11.786
60697SOL    HW183988   3.907   7.868  11.844
60697SOL    HW283989   3.802   7.965  11.794
60698SOL     OW83990  10.030  13.230  12.781
60698SOL    HW183991  10.055  13.170  12.711
60698SOL    HW283992   9.938  13.207  12.800
60699SOL     OW83993   1.383   7.691   6.273
60699SOL    HW183994   1.299   7.659   6.305
60699SOL    HW283995   1.392   7.779   6.311
60700SOL     OW83996   3.865  10.582   1.309
60700SOL    HW183997   3.953  10.569   1.345
60700SOL    HW283998   3.878  10.581   1.214
60701SOL     OW83999   5.525   5.094   5.182
60701SOL    HW184000   5.505   5.134   5.267
60701SOL    HW284001   5.589   5.025   5.202
60702SOL     OW84002   9.413   3.022   7.096
60702SOL    HW184003   9.318   3.012   7.109
60702SOL    HW284004   9.451   2.991   7.178
60703SOL     OW84005  14.466  13.377   2.055
60703SOL    HW184006  14.476  13.293   2.012
60703SOL    HW284007  14.495  13.363   2.145
60704SOL     OW84008   3.379   5.034  13.055
60704SOL    HW184009   3.384   4.984  13.136
60704SOL    HW284010   3.373   4.968  12.985
60705SOL     OW84011  12.989   6.915   8.326
60705SOL    HW184012  12.957   6.982   8.265
60705SOL    HW284013  12.937   6.837   8.304
60706SOL     OW84014   3.660   6.507   6.656
60706SOL    HW184015   3.746   6.466   6.663
60706SOL    HW284016   3.601   6.435   6.632
60707SOL     OW84017   8.456   8.643  13.392
60707SOL    HW184018   8.428   8.576  13.455
60707SOL    HW284019   8.467   8.722  13.445
60708SOL     OW84020   0.725   8.270   1.664
60708SOL    HW184021   0.651   8.325   1.637
60708SOL    HW284022   0.695   8.180   1.648
60709SOL     OW84023   2.506   1.174  14.437
60709SOL    HW184024   2.532   1.094  14.482
60709SOL    HW284025   2.471   1.230  14.507
60710SOL     OW84026   2.907   0.536   0.374
60710SOL    HW184027   2.983   0.585   0.345
60710SOL    HW284028   2.942   0.450   0.399
60711SOL     OW84029   4.011   4.689  11.534
60711SOL    HW184030   3.946   4.627  11.498
60711SOL    HW284031   4.021   4.755  11.465
60712SOL     OW84032   8.674   4.280   0.957
60712SOL    HW184033   8.609   4.350   0.957
60712SOL    HW284034   8.732   4.301   0.884
60713SOL     OW84035  10.244  12.846   5.451
60713SOL    HW184036  10.222  12.936   5.426
60713SOL    HW284037  10.190  12.829   5.528
60714SOL     OW84038   8.045   8.412   4.101
60714SOL    HW184039   8.073   8.488   4.151
60714SOL    HW284040   8.121   8.353   4.102
60715SOL     OW84041   8.999   6.076   1.133
60715SOL    HW184042   8.914   6.034   1.128
60715SOL    HW284043   9.035   6.049   1.217
60716SOL     OW84044   8.646   9.255   3.138
60716SOL    HW184045   8.581   9.275   3.071
60716SOL    HW284046   8.730   9.278   3.099
60717SOL     OW84047  11.155  10.175  13.175
60717SOL    HW184048  11.185  10.265  13.182
60717SOL    HW284049  11.059  10.181  13.173
60718SOL     OW84050   3.916   7.520  13.223
60718SOL    HW184051   3.911   7.612  13.196
60718SOL    HW284052   3.841   7.508  13.280
60719SOL     OW84053   3.114  10.435  10.061
60719SOL    HW184054   3.070  10.400   9.984
60719SOL    HW284055   3.106  10.366  10.127
60720SOL     OW84056  11.608  13.592   8.588
60720SOL    HW184057  11.657  13.652   8.645
60720SOL    HW284058  11.534  13.562   8.641
60721SOL     OW84059   6.317   3.302   5.779
60721SOL    HW184060   6.371   3.227   5.756
60721SOL    HW284061   6.365   3.377   5.746
60722SOL     OW84062   6.782  12.568   0.104
60722SOL    HW184063   6.696  12.583   0.063
60722SOL    HW284064   6.766  12.501   0.170
60723SOL     OW84065   1.047   0.629  10.983
60723SOL    HW184066   1.005   0.567  11.043
60723SOL    HW284067   0.995   0.709  10.991
60724SOL     OW84068   0.323   6.321  12.029
60724SOL    HW184069   0.237   6.303  12.067
60724SOL    HW284070   0.304   6.354  11.941
60725SOL     OW84071  11.955  14.414  10.291
60725SOL    HW184072  11.924  14.485  10.235
60725SOL    HW284073  11.947  14.448  10.380
60726SOL     OW84074   9.950  14.703   0.789
60726SOL    HW184075   9.873  14.741   0.830
60726SOL    HW284076   9.930  14.703   0.695
60727SOL     OW84077   3.765  11.751  13.639
60727SOL    HW184078   3.829  11.713  13.700
60727SOL    HW284079   3.803  11.835  13.614
60728SOL     OW84080  11.511  13.046  10.634
60728SOL    HW184081  11.503  12.955  10.604
60728SOL    HW284082  11.539  13.094  10.556
60729SOL     OW84083   5.729   2.088   4.385
60729SOL    HW184084   5.716   1.994   4.386
60729SOL    HW284085   5.823   2.100   4.378
60730SOL     OW84086  14.633  14.006   3.095
60730SOL    HW184087  14.624  14.101   3.083
60730SOL    HW284088  14.696  13.996   3.165
60731SOL     OW84089   0.147  11.166   8.063
60731SOL    HW184090   0.232  11.141   8.027
60731SOL    HW284091   0.086  11.150   7.991
60732SOL     OW84092  12.271  11.444  12.239
60732SOL    HW184093  12.300  11.463  12.328
60732SOL    HW284094  12.306  11.515  12.186
60733SOL     OW84095  14.475  14.688   0.998
60733SOL    HW184096  14.463  14.620   1.065
60733SOL    HW284097  14.562  14.723   1.015
60734SOL     OW84098  12.718   8.437   5.481
60734SOL    HW184099  12.776   8.373   5.523
60734SOL    HW284100  12.777   8.508   5.455
60735SOL     OW84101   0.770   0.191   6.124
60735SOL    HW184102   0.697   0.248   6.147
60735SOL    HW284103   0.844   0.251   6.110
60736SOL     OW84104   1.888   5.050   7.016
60736SOL    HW184105   1.922   4.977   6.964
60736SOL    HW284106   1.793   5.041   7.012
60737SOL     OW84107  11.005   3.128  12.777
60737SOL    HW184108  10.929   3.165  12.820
60737SOL    HW284109  11.079   3.176  12.814
60738SOL     OW84110   2.716   0.041   3.797
60738SOL    HW184111   2.809   0.019   3.808
60738SOL    HW284112   2.677   0.020   3.881
60739SOL     OW84113   3.707   5.148   5.692
60739SOL    HW184114   3.769   5.132   5.764
60739SOL    HW284115   3.762   5.168   5.617
60740SOL     OW84116   5.823   0.128   8.626
60740SOL    HW184117   5.906   0.143   8.671
60740SOL    HW284118   5.839   0.155   8.536
60741SOL     OW84119   3.071   3.929   1.916
60741SOL    HW184120   2.995   3.890   1.960
60741SOL    HW284121   3.141   3.924   1.982
60742SOL     OW84122   6.707   0.764  12.495
60742SOL    HW184123   6.747   0.851  12.495
60742SOL    HW284124   6.614   0.780  12.510
60743SOL     OW84125   6.611   9.787   3.900
60743SOL    HW184126   6.538   9.840   3.866
60743SOL    HW284127   6.658   9.759   3.821
60744SOL     OW84128  14.642   9.050  11.542
60744SOL    HW184129  14.687   9.112  11.599
60744SOL    HW284130  14.695   9.047  11.462
60745SOL     OW84131   7.338   0.402   4.325
60745SOL    HW184132   7.416   0.347   4.323
60745SOL    HW284133   7.318   0.410   4.418
60746SOL     OW84134  10.493  11.638   3.865
60746SOL    HW184135  10.408  11.628   3.821
60746SOL    HW284136  10.542  11.698   3.809
60747SOL     OW84137   9.391   1.811   0.431
60747SOL    HW184138   9.442   1.764   0.496
60747SOL    HW284139   9.404   1.762   0.349
60748SOL     OW84140   9.437   6.680  13.720
60748SOL    HW184141   9.514   6.626  13.739
60748SOL    HW284142   9.362   6.625  13.742
60749SOL     OW84143  12.463   5.807   6.219
60749SOL    HW184144  12.453   5.751   6.296
60749SOL    HW284145  12.401   5.772   6.155
60750SOL     OW84146   0.693  14.798  12.713
60750SOL    HW184147   0.720  14.782  12.803
60750SOL    HW284148   0.655  14.715  12.684
60751SOL     OW84149  11.174   8.045   2.023
60751SOL    HW184150  11.176   7.960   1.979
60751SOL    HW284151  11.090   8.047   2.069
60752SOL     OW84152   4.511   9.518  12.325
60752SOL    HW184153   4.509   9.523  12.421
60752SOL    HW284154   4.489   9.606  12.296
60753SOL     OW84155   4.893  10.604   9.085
60753SOL    HW184156   4.933  10.522   9.115
60753SOL    HW284157   4.962  10.646   9.033
60754SOL     OW84158   3.755  12.723  14.237
60754SOL    HW184159   3.665  12.708  14.265
60754SOL    HW284160   3.788  12.792  14.295
60755SOL     OW84161   2.547  10.895   4.119
60755SOL    HW184162   2.626  10.909   4.066
60755SOL    HW284163   2.493  10.835   4.066
60756SOL     OW84164   9.471  10.282   5.023
60756SOL    HW184165   9.424  10.245   4.948
60756SOL    HW284166   9.407  10.285   5.093
60757SOL     OW84167  14.520   8.079  13.664
60757SOL    HW184168  14.509   7.996  13.617
60757SOL    HW284169  14.547   8.141  13.596
60758SOL     OW84170   6.720  11.855   4.589
60758SOL    HW184171   6.681  11.942   4.579
60758SOL    HW284172   6.728  11.822   4.500
60759SOL     OW84173   6.906   2.622   4.365
60759SOL    HW184174   6.821   2.591   4.396
60759SOL    HW284175   6.951   2.542   4.337
60760SOL     OW84176   8.777   3.118  14.785
60760SOL    HW184177   8.767   3.079  14.698
60760SOL    HW284178   8.705   3.181  14.791
60761SOL     OW84179   7.581   8.170  12.260
60761SOL    HW184180   7.513   8.131  12.315
60761SOL    HW284181   7.652   8.192  12.320
60762SOL     OW84182  13.842   6.064  10.698
60762SOL    HW184183  13.769   6.002  10.697
60762SOL    HW284184  13.811   6.136  10.753
60763SOL     OW84185   5.917   0.899   1.710
60763SOL    HW184186   5.960   0.838   1.770
60763SOL    HW284187   5.987   0.930   1.652
60764SOL     OW84188   5.418   5.463  14.668
60764SOL    HW184189   5.342   5.455  14.725
60764SOL    HW284190   5.396   5.413  14.589
60765SOL     OW84191   5.149  12.522  13.212
60765SOL    HW184192   5.226  12.471  13.238
60765SOL    HW284193   5.089  12.457  13.175
60766SOL     OW84194   8.320  13.260  12.526
60766SOL    HW184195   8.315  13.291  12.435
60766SOL    HW284196   8.230  13.269  12.558
60767SOL     OW84197   5.040  13.702   1.639
60767SOL    HW184198   5.060  13.663   1.554
60767SOL    HW284199   5.118  13.685   1.692
60768SOL     OW84200  10.527  13.835   8.043
60768SOL    HW184201  10.486  13.910   7.999
60768SOL    HW284202  10.464  13.808   8.109
60769SOL     OW84203  14.680   3.945   2.693
60769SOL    HW184204  14.736   4.016   2.664
60769SOL    HW284205  14.592   3.970   2.664
60770SOL     OW84206   2.607  12.547   2.593
60770SOL    HW184207   2.634  12.567   2.503
60770SOL    HW284208   2.653  12.466   2.614
60771SOL     OW84209   4.110   6.378  12.315
60771SOL    HW184210   4.117   6.318  12.389
60771SOL    HW284211   4.124   6.323  12.238
60772SOL     OW84212   6.846  10.149  12.729
60772SOL    HW184213   6.825  10.211  12.659
60772SOL    HW284214   6.846  10.202  12.809
60773SOL     OW84215   9.216   8.835  13.892
60773SOL    HW184216   9.300   8.854  13.934
60773SOL    HW284217   9.168   8.784  13.958
60774SOL     OW84218   6.925   6.309   3.819
60774SOL    HW184219   6.989   6.380   3.812
60774SOL    HW284220   6.842   6.353   3.836
60775SOL     OW84221  11.115  13.507   6.616
60775SOL    HW184222  11.186  13.547   6.666
60775SOL    HW284223  11.159  13.460   6.545
60776SOL     OW84224  12.090   7.050   1.790
60776SOL    HW184225  12.063   6.965   1.824
60776SOL    HW284226  12.138   7.029   1.709
60777SOL     OW84227   1.355   6.963   1.102
60777SOL    HW184228   1.363   6.894   1.036
60777SOL    HW284229   1.267   6.999   1.089
60778SOL     OW84230   3.059  13.108  11.625
60778SOL    HW184231   3.086  13.109  11.533
60778SOL    HW284232   3.135  13.074  11.672
60779SOL     OW84233  14.416   6.184   9.504
60779SOL    HW184234  14.456   6.122   9.564
60779SOL    HW284235  14.351   6.230   9.557
60780SOL     OW84236   2.950   5.881   5.214
60780SOL    HW184237   2.962   5.804   5.269
60780SOL    HW284238   2.918   5.846   5.131
60781SOL     OW84239   8.651  11.474   1.029
60781SOL    HW184240   8.629  11.420   1.105
60781SOL    HW284241   8.576  11.532   1.018
60782SOL     OW84242   4.463   6.774   4.996
60782SOL    HW184243   4.517   6.732   5.063
60782SOL    HW284244   4.526   6.811   4.934
60783SOL     OW84245   0.096   8.727   5.020
60783SOL    HW184246   0.010   8.719   5.062
60783SOL    HW284247   0.102   8.820   4.997
60784SOL     OW84248  11.999   3.442   4.177
60784SOL    HW184249  11.963   3.470   4.093
60784SOL    HW284250  12.094   3.449   4.167
60785SOL     OW84251   5.309   0.438   5.378
60785SOL    HW184252   5.243   0.420   5.445
60785SOL    HW284253   5.356   0.355   5.368
60786SOL     OW84254   8.387   3.052  14.624
60786SOL    HW184255   8.479   3.080  14.630
60786SOL    HW284256   8.367   3.055  14.530
60787SOL     OW84257   7.586   3.632   9.147
60787SOL    HW184258   7.525   3.650   9.075
60787SOL    HW284259   7.572   3.704   9.208
60788SOL     OW84260   1.273   9.679   6.731
60788SOL    HW184261   1.346   9.635   6.687
60788SOL    HW284262   1.232   9.732   6.662
60789SOL     OW84263   2.592  10.727   9.633
60789SOL    HW184264   2.572  10.738   9.540
60789SOL    HW284265   2.679  10.686   9.634
60790SOL     OW84266   6.860  14.254   8.330
60790SOL    HW184267   6.812  14.173   8.316
60790SOL    HW284268   6.806  14.303   8.392
60791SOL     OW84269   2.914   1.763   5.800
60791SOL    HW184270   2.985   1.718   5.754
60791SOL    HW284271   2.923   1.735   5.891
60792SOL     OW84272  14.176   6.675   0.662
60792SOL    HW184273  14.213   6.761   0.681
60792SOL    HW284274  14.102   6.667   0.722
60793SOL     OW84275   5.827   0.055  11.526
60793SOL    HW184276   5.871  14.850  11.483
60793SOL    HW284277   5.750   0.072  11.472
60794SOL     OW84278  13.439   0.671  13.353
60794SOL    HW184279  13.403   0.750  13.312
60794SOL    HW284280  13.417   0.601  13.292
60795SOL     OW84281   3.418  11.746   0.019
60795SOL    HW184282   3.331  11.714   0.043
60795SOL    HW284283   3.470  11.666   0.007
60796SOL     OW84284   7.947   8.514   9.772
60796SOL    HW184285   7.960   8.553   9.685
60796SOL    HW284286   8.029   8.470   9.791
60797SOL     OW84287  11.674   7.521   4.778
60797SOL    HW184288  11.612   7.554   4.843
60797SOL    HW284289  11.628   7.447   4.737
60798SOL     OW84290   1.643   7.159   2.402
60798SOL    HW184291   1.557   7.161   2.443
60798SOL    HW284292   1.704   7.154   2.476
60799SOL     OW84293   3.957   8.839   4.618
60799SOL    HW184294   3.871   8.878   4.635
60799SOL    HW284295   3.940   8.774   4.549
60800SOL     OW84296   4.634  10.475   8.039
60800SOL    HW184297   4.638  10.406   8.105
60800SOL    HW284298   4.549  10.463   7.996
60801SOL     OW84299  14.419   2.124  12.797
60801SOL    HW184300  14.333   2.115  12.757
60801SOL    HW284301  14.477   2.147  12.724
60802SOL     OW84302   5.106   5.769   3.891
60802SOL    HW184303   5.144   5.744   3.975
60802SOL    HW284304   5.084   5.686   3.849
60803SOL     OW84305   7.770   6.401  14.701
60803SOL    HW184306   7.795   6.423  14.791
60803SOL    HW284307   7.759   6.485  14.658
60804SOL     OW84308  13.858  11.019   4.988
60804SOL    HW184309  13.909  11.100   4.977
60804SOL    HW284310  13.784  11.046   5.042
60805SOL     OW84311  11.474  10.344   3.303
60805SOL    HW184312  11.431  10.418   3.260
60805SOL    HW284313  11.558  10.336   3.257
60806SOL     OW84314   5.769   2.862   1.433
60806SOL    HW184315   5.855   2.825   1.451
60806SOL    HW284316   5.754   2.843   1.340
60807SOL     OW84317  11.344  10.517   4.730
60807SOL    HW184318  11.318  10.458   4.800
60807SOL    HW284319  11.430  10.549   4.757
60808SOL     OW84320   4.480   9.139   5.080
60808SOL    HW184321   4.403   9.082   5.077
60808SOL    HW284322   4.488   9.173   4.991
60809SOL     OW84323   0.570  10.136  14.567
60809SOL    HW184324   0.611  10.121  14.652
60809SOL    HW284325   0.643  10.153  14.507
60810SOL     OW84326  10.694   9.710   6.259
60810SOL    HW184327  10.667   9.800   6.245
60810SOL    HW284328  10.627   9.673   6.317
60811SOL     OW84329   4.120   0.450  12.953
60811SOL    HW184330   4.091   0.531  12.995
60811SOL    HW284331   4.040   0.410  12.919
60812SOL     OW84332   1.468  10.445   8.630
60812SOL    HW184333   1.514  10.518   8.589
60812SOL    HW284334   1.398  10.423   8.568
60813SOL     OW84335  13.692   7.114   9.256
60813SOL    HW184336  13.762   7.174   9.228
60813SOL    HW284337  13.659   7.077   9.174
60814SOL     OW84338   8.865  12.500  11.748
60814SOL    HW184339   8.890  12.499  11.840
60814SOL    HW284340   8.786  12.554  11.745
60815SOL     OW84341   8.859   8.122   9.485
60815SOL    HW184342   8.868   8.164   9.570
60815SOL    HW284343   8.778   8.157   9.449
60816SOL     OW84344  14.750   4.983   6.782
60816SOL    HW184345  14.655   4.983   6.774
60816SOL    HW284346  14.767   4.936   6.864
60817SOL     OW84347   4.221  14.717   5.842
60817SOL    HW184348   4.256  14.795   5.886
60817SOL    HW284349   4.225  14.648   5.908
60818SOL     OW84350   0.178   2.789   3.312
60818SOL    HW184351   0.236   2.768   3.239
60818SOL    HW284352   0.164   2.883   3.305
60819SOL     OW84353   3.680  11.412  13.122
60819SOL    HW184354   3.616  11.354  13.164
60819SOL    HW284355   3.692  11.484  13.184
60820SOL     OW84356   1.696  11.040   5.845
60820SOL    HW184357   1.671  11.117   5.896
60820SOL    HW284358   1.680  10.966   5.903
60821SOL     OW84359  10.810  12.213   9.605
60821SOL    HW184360  10.896  12.237   9.638
60821SOL    HW284361  10.809  12.246   9.515
60822SOL     OW84362   0.975  10.340  11.954
60822SOL    HW184363   0.958  10.285  12.031
60822SOL    HW284364   1.030  10.286  11.898
60823SOL     OW84365   3.457   8.150   7.872
60823SOL    HW184366   3.376   8.124   7.917
60823SOL    HW284367   3.483   8.232   7.914
60824SOL     OW84368   0.553  11.760  13.898
60824SOL    HW184369   0.641  11.798  13.905
60824SOL    HW284370   0.498  11.817  13.951
60825SOL     OW84371   0.808   3.731   7.796
60825SOL    HW184372   0.819   3.739   7.701
60825SOL    HW284373   0.888   3.769   7.833
60826SOL     OW84374   6.830   8.204   3.246
60826SOL    HW184375   6.798   8.253   3.321
60826SOL    HW284376   6.907   8.157   3.279
60827SOL     OW84377  13.478  14.626   4.188
60827SOL    HW184378  13.423  14.557   4.225
60827SOL    HW284379  13.542  14.645   4.257
60828SOL     OW84380  12.585   0.139   5.851
60828SOL    HW184381  12.617   0.208   5.908
60828SOL    HW284382  12.658   0.078   5.844
60829SOL     OW84383   8.099   0.278   6.546
60829SOL    HW184384   8.096   0.197   6.597
60829SOL    HW284385   8.170   0.329   6.586
60830SOL     OW84386   3.095   4.272  14.833
60830SOL    HW184387   3.061   4.306   0.046
60830SOL    HW284388   3.184   4.306  14.827
60831SOL     OW84389   5.867   0.584   4.574
60831SOL    HW184390   5.905   0.634   4.646
60831SOL    HW284391   5.851   0.649   4.505
60832SOL     OW84392  11.671   3.695   9.499
60832SOL    HW184393  11.681   3.790   9.501
60832SOL    HW284394  11.755   3.663   9.466
60833SOL     OW84395  13.328  10.057  10.242
60833SOL    HW184396  13.386   9.986  10.269
60833SOL    HW284397  13.317  10.110  10.321
60834SOL     OW84398  12.846   3.784  13.163
60834SOL    HW184399  12.865   3.875  13.139
60834SOL    HW284400  12.931   3.748  13.189
60835SOL     OW84401  13.235  14.737   4.114
60835SOL    HW184402  13.317  14.717   4.159
60835SOL    HW284403  13.172  14.751   4.185
60836SOL     OW84404   2.600   4.102   8.581
60836SOL    HW184405   2.564   4.110   8.669
60836SOL    HW284406   2.615   4.009   8.569
60837SOL     OW84407  13.183   1.332  11.728
60837SOL    HW184408  13.145   1.420  11.723
60837SOL    HW284409  13.107   1.274  11.731
60838SOL     OW84410  10.175  13.826  10.115
60838SOL    HW184411  10.086  13.845  10.085
60838SOL    HW284412  10.226  13.815  10.035
60839SOL     OW84413   8.796   5.003  14.607
60839SOL    HW184414   8.761   5.076  14.659
60839SOL    HW284415   8.798   4.929  14.668
60840SOL     OW84416   2.659   2.199  14.208
60840SOL    HW184417   2.579   2.171  14.253
60840SOL    HW284418   2.629   2.250  14.133
60841SOL     OW84419   7.695   5.689   7.307
60841SOL    HW184420   7.647   5.671   7.389
60841SOL    HW284421   7.672   5.780   7.286
60842SOL     OW84422   2.845   5.143  13.248
60842SOL    HW184423   2.937   5.153  13.271
60842SOL    HW284424   2.820   5.057  13.282
60843SOL     OW84425   3.561  13.720   6.957
60843SOL    HW184426   3.626  13.785   6.932
60843SOL    HW284427   3.568  13.714   7.052
60844SOL     OW84428   7.213   8.307   7.002
60844SOL    HW184429   7.194   8.213   7.005
60844SOL    HW284430   7.128   8.349   7.002
60845SOL     OW84431  10.847  13.107   5.979
60845SOL    HW184432  10.907  13.039   5.950
60845SOL    HW284433  10.891  13.148   6.053
60846SOL     OW84434   6.539   1.906   5.755
60846SOL    HW184435   6.567   1.914   5.664
60846SOL    HW284436   6.445   1.889   5.750
60847SOL     OW84437   3.089   9.474   6.370
60847SOL    HW184438   3.120   9.421   6.297
60847SOL    HW284439   3.049   9.551   6.329
60848SOL     OW84440   4.141   6.634  11.692
60848SOL    HW184441   4.110   6.641  11.602
60848SOL    HW284442   4.068   6.665  11.745
60849SOL     OW84443   0.092   8.198   2.191
60849SOL    HW184444   0.159   8.136   2.218
60849SOL    HW284445   0.072   8.248   2.270
60850SOL     OW84446   8.501  11.328   4.420
60850SOL    HW184447   8.557  11.307   4.494
60850SOL    HW284448   8.428  11.266   4.426
60851SOL     OW84449   2.413   2.411  12.188
60851SOL    HW184450   2.361   2.366  12.121
60851SOL    HW284451   2.504   2.396  12.162
60852SOL     OW84452  12.088   0.863   4.290
60852SOL    HW184453  12.057   0.920   4.221
60852SOL    HW284454  12.092   0.919   4.368
60853SOL     OW84455  13.991  12.463   1.456
60853SOL    HW184456  13.913  12.502   1.496
60853SOL    HW284457  14.064  12.513   1.492
60854SOL     OW84458   8.906  11.951  12.342
60854SOL    HW184459   8.830  11.993  12.383
60854SOL    HW284460   8.898  11.972  12.249
60855SOL     OW84461   1.576   9.120   3.503
60855SOL    HW184462   1.618   9.165   3.429
60855SOL    HW284463   1.484   9.110   3.476
60856SOL     OW84464   2.521  11.764   7.668
60856SOL    HW184465   2.578  11.804   7.734
60856SOL    HW284466   2.506  11.675   7.701
60857SOL     OW84467   8.088   0.139   0.101
60857SOL    HW184468   8.161   0.200   0.093
60857SOL    HW284469   8.085   0.116   0.194
60858SOL     OW84470   1.282   3.730   0.557
60858SOL    HW184471   1.357   3.751   0.501
60858SOL    HW284472   1.309   3.653   0.606
60859SOL     OW84473   4.965   5.189   3.476
60859SOL    HW184474   4.897   5.187   3.409
60859SOL    HW284475   5.028   5.124   3.447
60860SOL     OW84476   9.566   2.696   6.594
60860SOL    HW184477   9.575   2.790   6.610
60860SOL    HW284478   9.656   2.666   6.577
60861SOL     OW84479   4.177   5.344   0.256
60861SOL    HW184480   4.110   5.333   0.324
60861SOL    HW284481   4.127   5.354   0.175
60862SOL     OW84482   1.693   5.347   4.494
60862SOL    HW184483   1.622   5.371   4.434
60862SOL    HW284484   1.772   5.383   4.453
60863SOL     OW84485   5.134  11.907  14.729
60863SOL    HW184486   5.182  11.824  14.730
60863SOL    HW284487   5.046  11.883  14.698
60864SOL     OW84488  12.984   7.457   8.143
60864SOL    HW184489  12.906   7.468   8.089
60864SOL    HW284490  13.042   7.403   8.089
60865SOL     OW84491  14.420   8.554  11.821
60865SOL    HW184492  14.455   8.550  11.732
60865SOL    HW284493  14.443   8.470  11.860
60866SOL     OW84494   5.003  10.232  12.505
60866SOL    HW184495   4.942  10.289  12.458
60866SOL    HW284496   4.966  10.225  12.593
60867SOL     OW84497  11.736   2.074   1.859
60867SOL    HW184498  11.703   2.142   1.918
60867SOL    HW284499  11.690   1.994   1.885
60868SOL     OW84500   3.486  12.408   4.273
60868SOL    HW184501   3.479  12.330   4.328
60868SOL    HW284502   3.576  12.439   4.287
60869SOL     OW84503   4.374   1.521   3.915
60869SOL    HW184504   4.411   1.561   3.994
60869SOL    HW284505   4.438   1.538   3.847
60870SOL     OW84506   4.814   3.260   0.957
60870SOL    HW184507   4.767   3.340   0.978
60870SOL    HW284508   4.902   3.289   0.932
60871SOL     OW84509  10.607   3.626   2.921
60871SOL    HW184510  10.583   3.688   2.852
60871SOL    HW284511  10.558   3.655   2.997
60872SOL     OW84512   6.971  12.287   2.456
60872SOL    HW184513   6.976  12.194   2.479
60872SOL    HW284514   6.878  12.309   2.466
60873SOL     OW84515   4.377   7.947   1.424
60873SOL    HW184516   4.295   7.968   1.469
60873SOL    HW284517   4.349   7.908   1.341
60874SOL     OW84518   0.834   2.575   3.360
60874SOL    HW184519   0.783   2.614   3.430
60874SOL    HW284520   0.771   2.560   3.289
60875SOL     OW84521  12.443   6.035   6.574
60875SOL    HW184522  12.348   6.047   6.574
60875SOL    HW284523  12.469   6.054   6.484
60876SOL     OW84524   7.674  11.205   8.204
60876SOL    HW184525   7.598  11.235   8.253
60876SOL    HW284526   7.745  11.264   8.231
60877SOL     OW84527   1.254  12.380   6.875
60877SOL    HW184528   1.345  12.366   6.849
60877SOL    HW284529   1.224  12.452   6.819
60878SOL     OW84530   5.749   1.735   2.512
60878SOL    HW184531   5.683   1.683   2.558
60878SOL    HW284532   5.733   1.825   2.540
60879SOL     OW84533   5.192   7.882  10.405
60879SOL    HW184534   5.123   7.816  10.403
60879SOL    HW284535   5.153   7.956  10.451
60880SOL     OW84536   0.527   4.564   0.379
60880SOL    HW184537   0.577   4.625   0.324
60880SOL    HW284538   0.439   4.602   0.383
60881SOL     OW84539   9.210   0.033   6.225
60881SOL    HW184540   9.164   0.045   6.308
60881SOL    HW284541   9.302   0.043   6.247
60882SOL     OW84542   2.980   1.166   0.020
60882SOL    HW184543   2.928   1.214  14.826
60882SOL    HW284544   3.070   1.192   0.002
60883SOL     OW84545   0.059   0.684   5.966
60883SOL    HW184546  14.839   0.715   5.950
60883SOL    HW284547   0.076   0.622   5.896
60884SOL     OW84548  13.972  10.210  12.763
60884SOL    HW184549  14.036  10.184  12.829
60884SOL    HW284550  13.980  10.143  12.695
60885SOL     OW84551   5.665   0.921  14.727
60885SOL    HW184552   5.711   0.842  14.754
60885SOL    HW284553   5.583   0.919  14.776
60886SOL     OW84554  11.871  11.731   4.543
60886SOL    HW184555  11.782  11.726   4.578
60886SOL    HW284556  11.901  11.819   4.566
60887SOL     OW84557   5.331   0.651  12.390
60887SOL    HW184558   5.261   0.682  12.447
60887SOL    HW284559   5.391   0.725  12.384
60888SOL     OW84560   2.341   5.813   3.342
60888SOL    HW184561   2.378   5.873   3.406
60888SOL    HW284562   2.257   5.851   3.318
60889SOL     OW84563   5.663  12.178   3.195
60889SOL    HW184564   5.738  12.190   3.137
60889SOL    HW284565   5.650  12.264   3.235
60890SOL     OW84566  12.371   8.572   8.805
60890SOL    HW184567  12.379   8.479   8.823
60890SOL    HW284568  12.458   8.608   8.822
60891SOL     OW84569   4.977   9.364   7.868
60891SOL    HW184570   5.063   9.405   7.861
60891SOL    HW284571   4.953   9.342   7.778
60892SOL     OW84572   2.414  14.102  11.822
60892SOL    HW184573   2.335  14.049  11.817
60892SOL    HW284574   2.390  14.176  11.877
60893SOL     OW84575   7.377   7.107   8.757
60893SOL    HW184576   7.314   7.106   8.829
60893SOL    HW284577   7.341   7.172   8.696
60894SOL     OW84578   2.941  14.563   8.951
60894SOL    HW184579   2.968  14.646   8.910
60894SOL    HW284580   2.908  14.510   8.878
60895SOL     OW84581   7.238  10.787   4.031
60895SOL    HW184582   7.155  10.747   4.056
60895SOL    HW284583   7.305  10.725   4.060
60896SOL     OW84584   9.282   1.220  12.561
60896SOL    HW184585   9.296   1.125  12.569
60896SOL    HW284586   9.258   1.248  12.649
60897SOL     OW84587   6.993  11.833  11.166
60897SOL    HW184588   6.957  11.796  11.247
60897SOL    HW284589   7.068  11.885  11.194
60898SOL     OW84590   2.376   7.147   6.535
60898SOL    HW184591   2.293   7.101   6.550
60898SOL    HW284592   2.351   7.229   6.493
60899SOL     OW84593   0.529   0.370   7.945
60899SOL    HW184594   0.585   0.402   8.015
60899SOL    HW284595   0.449   0.424   7.952
60900SOL     OW84596  13.825  11.527  14.731
60900SOL    HW184597  13.822  11.433  14.747
60900SOL    HW284598  13.751  11.562  14.781
60901SOL     OW84599  13.519  11.502  10.129
60901SOL    HW184600  13.562  11.478  10.046
60901SOL    HW284601  13.441  11.551  10.102
60902SOL     OW84602  12.618  13.533  13.734
60902SOL    HW184603  12.654  13.484  13.660
60902SOL    HW284604  12.683  13.524  13.804
60903SOL     OW84605  14.469   3.454   6.628
60903SOL    HW184606  14.549   3.452   6.576
60903SOL    HW284607  14.495   3.491   6.713
60904SOL     OW84608   5.378   1.679  11.882
60904SOL    HW184609   5.349   1.606  11.827
60904SOL    HW284610   5.296   1.719  11.913
60905SOL     OW84611  12.400  11.688   4.954
60905SOL    HW184612  12.398  11.603   4.998
60905SOL    HW284613  12.315  11.728   4.974
60906SOL     OW84614  13.916  14.045  11.498
60906SOL    HW184615  13.827  14.034  11.464
60906SOL    HW284616  13.964  13.970  11.464
60907SOL     OW84617   8.944   4.672   2.296
60907SOL    HW184618   8.864   4.722   2.311
60907SOL    HW284619   9.007   4.707   2.360
60908SOL     OW84620   2.453   9.230  13.911
60908SOL    HW184621   2.483   9.146  13.876
60908SOL    HW284622   2.360   9.233  13.889
60909SOL     OW84623   2.414  10.748   7.089
60909SOL    HW184624   2.390  10.738   6.996
60909SOL    HW284625   2.484  10.813   7.088
60910SOL     OW84626   0.255  10.073   1.387
60910SOL    HW184627   0.288  10.150   1.433
60910SOL    HW284628   0.242  10.103   1.297
60911SOL     OW84629   9.927   0.689  14.657
60911SOL    HW184630   9.853   0.644  14.698
60911SOL    HW284631   9.931   0.774  14.701
60912SOL     OW84632  11.078  10.305  13.729
60912SOL    HW184633  11.011  10.237  13.724
60912SOL    HW284634  11.029  10.387  13.717
60913SOL     OW84635  11.879   4.786   1.162
60913SOL    HW184636  11.806   4.792   1.224
60913SOL    HW284637  11.941   4.726   1.204
60914SOL     OW84638   4.826   6.668   4.080
60914SOL    HW184639   4.763   6.596   4.088
60914SOL    HW284640   4.903   6.637   4.127
60915SOL     OW84641   1.212   2.663   2.453
60915SOL    HW184642   1.219   2.570   2.471
60915SOL    HW284643   1.240   2.705   2.534
60916SOL     OW84644   2.941   3.842   7.520
60916SOL    HW184645   2.972   3.915   7.466
60916SOL    HW284646   2.850   3.866   7.542
60917SOL     OW84647   5.360   6.790   7.092
60917SOL    HW184648   5.385   6.701   7.115
60917SOL    HW284649   5.391   6.802   7.002
60918SOL     OW84650  13.149   3.966  10.122
60918SOL    HW184651  13.082   4.035  10.115
60918SOL    HW284652  13.147   3.941  10.214
60919SOL     OW84653   1.292  12.198   2.938
60919SOL    HW184654   1.348  12.201   3.016
60919SOL    HW284655   1.211  12.241   2.965
60920SOL     OW84656   1.212   7.673   8.247
60920SOL    HW184657   1.150   7.664   8.319
60920SOL    HW284658   1.183   7.751   8.200
60921SOL     OW84659   0.710   6.235   1.891
60921SOL    HW184660   0.703   6.329   1.878
60921SOL    HW284661   0.752   6.203   1.812
60922SOL     OW84662   2.910   6.435   6.077
60922SOL    HW184663   3.000   6.436   6.111
60922SOL    HW284664   2.859   6.478   6.146
60923SOL     OW84665   3.591   1.374   9.979
60923SOL    HW184666   3.627   1.414  10.058
60923SOL    HW284667   3.555   1.446   9.929
60924SOL     OW84668   1.049   0.861  10.192
60924SOL    HW184669   1.045   0.855  10.287
60924SOL    HW284670   0.960   0.882  10.165
60925SOL     OW84671   5.216   0.454  12.637
60925SOL    HW184672   5.122   0.464  12.626
60925SOL    HW284673   5.228   0.363  12.664
60926SOL     OW84674   6.042   1.467   5.205
60926SOL    HW184675   5.990   1.399   5.164
60926SOL    HW284676   6.105   1.493   5.138
60927SOL     OW84677   8.337   6.875   7.976
60927SOL    HW184678   8.315   6.834   7.893
60927SOL    HW284679   8.432   6.866   7.984
60928SOL     OW84680   5.218  12.868  10.087
60928SOL    HW184681   5.216  12.794  10.027
60928SOL    HW284682   5.303  12.862  10.130
60929SOL     OW84683   3.509  12.652  11.488
60929SOL    HW184684   3.527  12.561  11.512
60929SOL    HW284685   3.471  12.646  11.400
60930SOL     OW84686   9.160   3.669   1.228
60930SOL    HW184687   9.157   3.731   1.156
60930SOL    HW284688   9.166   3.583   1.185
60931SOL     OW84689  14.276   9.026  10.797
60931SOL    HW184690  14.251   9.112  10.831
60931SOL    HW284691  14.351   9.000  10.851
60932SOL     OW84692   6.683   5.935   4.961
60932SOL    HW184693   6.655   5.847   4.986
60932SOL    HW284694   6.755   5.920   4.900
60933SOL     OW84695   2.537   7.238   0.605
60933SOL    HW184696   2.442   7.248   0.611
60933SOL    HW284697   2.561   7.193   0.686
60934SOL     OW84698  12.615  11.373  10.898
60934SOL    HW184699  12.578  11.421  10.972
60934SOL    HW284700  12.680  11.315  10.938
60935SOL     OW84701  13.400  13.214   7.443
60935SOL    HW184702  13.408  13.136   7.498
60935SOL    HW284703  13.383  13.285   7.504
60936SOL     OW84704   4.491   8.159  11.294
60936SOL    HW184705   4.445   8.239  11.321
60936SOL    HW284706   4.478   8.155  11.199
60937SOL     OW84707   0.406   4.184   6.716
60937SOL    HW184708   0.427   4.140   6.799
60937SOL    HW284709   0.482   4.167   6.660
60938SOL     OW84710  10.358   6.305   3.934
60938SOL    HW184711  10.276   6.354   3.938
60938SOL    HW284712  10.356   6.249   4.011
60939SOL     OW84713   7.045   7.797   4.801
60939SOL    HW184714   7.025   7.717   4.753
60939SOL    HW284715   7.130   7.781   4.841
60940SOL     OW84716   1.500   4.690   5.613
60940SOL    HW184717   1.590   4.670   5.589
60940SOL    HW284718   1.474   4.762   5.556
60941SOL     OW84719  13.057   1.581  10.007
60941SOL    HW184720  13.085   1.502  10.054
60941SOL    HW284721  13.126   1.597   9.943
60942SOL     OW84722   9.177  13.198  12.685
60942SOL    HW184723   9.227  13.267  12.728
60942SOL    HW284724   9.097  13.190  12.738
60943SOL     OW84725   6.175   5.579   0.028
60943SOL    HW184726   6.258   5.571  14.850
60943SOL    HW284727   6.199   5.617   0.113
60944SOL     OW84728  13.636  14.232   1.740
60944SOL    HW184729  13.583  14.290   1.685
60944SOL    HW284730  13.725  14.241   1.706
60945SOL     OW84731  14.535  12.384   3.538
60945SOL    HW184732  14.492  12.467   3.557
60945SOL    HW284733  14.561  12.390   3.446
60946SOL     OW84734  14.776   7.478  10.443
60946SOL    HW184735  14.754   7.511  10.356
60946SOL    HW284736  14.823   7.549  10.485
60947SOL     OW84737  14.716   1.202   5.272
60947SOL    HW184738  14.801   1.159   5.259
60947SOL    HW284739  14.720   1.238   5.361
60948SOL     OW84740  13.101  10.997   9.852
60948SOL    HW184741  13.155  11.041   9.918
60948SOL    HW284742  13.118  10.904   9.865
60949SOL     OW84743   7.918  11.319  10.009
60949SOL    HW184744   8.011  11.336  10.026
60949SOL    HW284745   7.873  11.399  10.035
60950SOL     OW84746   5.099   7.498   1.747
60950SOL    HW184747   5.023   7.499   1.688
60950SOL    HW284748   5.113   7.406   1.767
60951SOL     OW84749   4.122   3.181  10.366
60951SOL    HW184750   4.186   3.215  10.429
60951SOL    HW284751   4.054   3.249  10.362
60952SOL     OW84752   6.435   6.837   6.177
60952SOL    HW184753   6.368   6.777   6.211
60952SOL    HW284754   6.502   6.780   6.139
60953SOL     OW84755   8.840  11.836   8.273
60953SOL    HW184756   8.867  11.745   8.260
60953SOL    HW284757   8.921  11.882   8.297
60954SOL     OW84758   5.321   6.187   0.816
60954SOL    HW184759   5.361   6.177   0.902
60954SOL    HW284760   5.283   6.102   0.797
60955SOL     OW84761  13.888  11.592   5.556
60955SOL    HW184762  13.946  11.668   5.552
60955SOL    HW284763  13.821  11.609   5.490
60956SOL     OW84764  13.003   3.714   6.180
60956SOL    HW184765  12.970   3.784   6.236
60956SOL    HW284766  12.924   3.676   6.141
60957SOL     OW84767   0.472   8.069   6.092
60957SOL    HW184768   0.568   8.060   6.089
60957SOL    HW284769   0.440   7.992   6.046
60958SOL     OW84770  13.697   2.216   6.581
60958SOL    HW184771  13.786   2.182   6.569
60958SOL    HW284772  13.641   2.139   6.572
60959SOL     OW84773   3.873   3.329   6.654
60959SOL    HW184774   3.788   3.304   6.690
60959SOL    HW284775   3.932   3.259   6.681
60960SOL     OW84776   3.045   1.339  10.669
60960SOL    HW184777   3.021   1.249  10.694
60960SOL    HW284778   2.965   1.373  10.628
60961SOL     OW84779   1.295  13.223   0.430
60961SOL    HW184780   1.310  13.317   0.431
60961SOL    HW284781   1.232  13.207   0.501
60962SOL     OW84782   5.275   5.070  14.181
60962SOL    HW184783   5.269   5.024  14.097
60962SOL    HW284784   5.219   5.020  14.240
60963SOL     OW84785  14.625  10.884   2.060
60963SOL    HW184786  14.659  10.922   1.980
60963SOL    HW284787  14.588  10.800   2.033
60964SOL     OW84788   2.492   7.443   0.293
60964SOL    HW184789   2.560   7.508   0.305
60964SOL    HW284790   2.533   7.374   0.242
60965SOL     OW84791   2.230   4.910   7.970
60965SOL    HW184792   2.261   4.986   7.921
60965SOL    HW284793   2.136   4.904   7.949
60966SOL     OW84794   6.033   3.515   6.521
60966SOL    HW184795   6.124   3.545   6.513
60966SOL    HW284796   6.038   3.420   6.510
60967SOL     OW84797  14.364   9.578   2.362
60967SOL    HW184798  14.318   9.502   2.325
60967SOL    HW284799  14.345   9.649   2.301
60968SOL     OW84800   9.270   9.491   3.647
60968SOL    HW184801   9.329   9.446   3.586
60968SOL    HW284802   9.220   9.421   3.688
60969SOL     OW84803  13.770  12.260   0.513
60969SOL    HW184804  13.752  12.336   0.458
60969SOL    HW284805  13.684  12.219   0.525
60970SOL     OW84806   1.078   2.867  10.336
60970SOL    HW184807   1.109   2.777  10.338
60970SOL    HW284808   0.984   2.860  10.315
60971SOL     OW84809   0.104   3.614  13.358
60971SOL    HW184810   0.058   3.570  13.430
60971SOL    HW284811   0.186   3.566  13.349
60972SOL     OW84812  11.262   8.604   3.625
60972SOL    HW184813  11.268   8.601   3.721
60972SOL    HW284814  11.175   8.642   3.608
60973SOL     OW84815   5.076   8.102  10.508
60973SOL    HW184816   5.133   8.168  10.468
60973SOL    HW284817   4.989   8.123  10.476
60974SOL     OW84818   1.888  11.546   0.100
60974SOL    HW184819   1.891  11.584   0.188
60974SOL    HW284820   1.904  11.452   0.114
60975SOL     OW84821   1.700  14.143  12.553
60975SOL    HW184822   1.646  14.215  12.584
60975SOL    HW284823   1.790  14.177  12.554
60976SOL     OW84824   5.408   7.443   8.244
60976SOL    HW184825   5.417   7.427   8.338
60976SOL    HW284826   5.347   7.377   8.214
60977SOL     OW84827  11.682   2.675   8.809
60977SOL    HW184828  11.749   2.615   8.777
60977SOL    HW284829  11.602   2.623   8.808
60978SOL     OW84830  10.718   5.676   3.879
60978SOL    HW184831  10.806   5.670   3.841
60978SOL    HW284832  10.663   5.709   3.808
60979SOL     OW84833   5.680  11.493   9.760
60979SOL    HW184834   5.632  11.468   9.839
60979SOL    HW284835   5.631  11.567   9.724
60980SOL     OW84836  14.607  11.749  14.173
60980SOL    HW184837  14.579  11.801  14.249
60980SOL    HW284838  14.671  11.688  14.209
60981SOL     OW84839  12.560   3.641   8.951
60981SOL    HW184840  12.523   3.589   8.880
60981SOL    HW284841  12.514   3.725   8.946
60982SOL     OW84842   3.407   1.363  11.720
60982SOL    HW184843   3.443   1.276  11.704
60982SOL    HW284844   3.366   1.356  11.806
60983SOL     OW84845   7.474  13.490  13.818
60983SOL    HW184846   7.386  13.469  13.788
60983SOL    HW284847   7.531  13.466  13.745
60984SOL     OW84848  12.446   4.730   8.040
60984SOL    HW184849  12.408   4.696   8.121
60984SOL    HW284850  12.452   4.654   7.982
60985SOL     OW84851  11.466  14.101   1.894
60985SOL    HW184852  11.547  14.151   1.901
60985SOL    HW284853  11.418  14.122   1.974
60986SOL     OW84854   5.158  11.315   5.760
60986SOL    HW184855   5.240  11.336   5.715
60986SOL    HW284856   5.106  11.395   5.755
60987SOL     OW84857   5.288   1.319   0.847
60987SOL    HW184858   5.363   1.307   0.906
60987SOL    HW284859   5.322   1.296   0.761
60988SOL     OW84860  14.457  13.052   4.664
60988SOL    HW184861  14.509  12.982   4.704
60988SOL    HW284862  14.372  13.012   4.646
60989SOL     OW84863   8.403   0.582   6.421
60989SOL    HW184864   8.320   0.561   6.380
60989SOL    HW284865   8.433   0.660   6.374
60990SOL     OW84866  10.762   3.669   9.928
60990SOL    HW184867  10.678   3.632   9.900
60990SOL    HW284868  10.828   3.618   9.880
60991SOL     OW84869   8.727   3.165  10.366
60991SOL    HW184870   8.678   3.213  10.432
60991SOL    HW284871   8.773   3.233  10.316
60992SOL     OW84872  13.371   8.344   7.177
60992SOL    HW184873  13.349   8.295   7.256
60992SOL    HW284874  13.449   8.301   7.143
60993SOL     OW84875   0.245   0.797   7.092
60993SOL    HW184876   0.320   0.760   7.140
60993SOL    HW284877   0.180   0.814   7.159
60994SOL     OW84878   6.305  12.732   0.766
60994SOL    HW184879   6.225  12.782   0.777
60994SOL    HW284880   6.331  12.747   0.675
60995SOL     OW84881   3.308  12.545   3.012
60995SOL    HW184882   3.373  12.614   3.025
60995SOL    HW284883   3.351  12.466   3.043
60996SOL     OW84884   3.537   5.014   8.134
60996SOL    HW184885   3.512   5.081   8.199
60996SOL    HW284886   3.541   4.933   8.184
60997SOL     OW84887  11.998   8.728   0.042
60997SOL    HW184888  12.048   8.801   0.079
60997SOL    HW284889  12.012   8.656   0.104
60998SOL     OW84890   3.502  12.062   2.275
60998SOL    HW184891   3.421  12.069   2.325
60998SOL    HW284892   3.538  12.150   2.273
60999SOL     OW84893  12.023  10.874   9.705
60999SOL    HW184894  12.042  10.966   9.719
60999SOL    HW284895  12.088  10.827   9.757
61000SOL     OW84896  13.764   8.177   5.371
61000SOL    HW184897  13.722   8.243   5.426
61000SOL    HW284898  13.815   8.226   5.307
61001SOL     OW84899  11.067   8.998   8.660
61001SOL    HW184900  11.002   8.950   8.711
61001SOL    HW284901  11.121   9.041   8.726
61002SOL     OW84902   0.177   9.154  13.494
61002SOL    HW184903   0.177   9.228  13.555
61002SOL    HW284904   0.202   9.078  13.547
61003SOL     OW84905  12.720   3.443   8.900
61003SOL    HW184906  12.806   3.465   8.866
61003SOL    HW284907  12.698   3.516   8.959
61004SOL     OW84908  10.193   1.572   0.150
61004SOL    HW184909  10.156   1.547   0.065
61004SOL    HW284910  10.250   1.646   0.131
61005SOL     OW84911   9.603  14.713   3.111
61005SOL    HW184912   9.629  14.747   3.197
61005SOL    HW284913   9.556  14.632   3.130
61006SOL     OW84914   2.316   2.530   2.736
61006SOL    HW184915   2.309   2.531   2.641
61006SOL    HW284916   2.396   2.480   2.754
61007SOL     OW84917  12.246   2.974   9.505
61007SOL    HW184918  12.162   3.020   9.513
61007SOL    HW284919  12.248   2.914   9.580
61008SOL     OW84920   7.632   1.224  11.339
61008SOL    HW184921   7.694   1.160  11.376
61008SOL    HW284922   7.594   1.179  11.263
61009SOL     OW84923   8.187   1.183  14.314
61009SOL    HW184924   8.173   1.269  14.274
61009SOL    HW284925   8.186   1.122  14.240
61010SOL     OW84926  10.710  14.401   2.271
61010SOL    HW184927  10.675  14.385   2.359
61010SOL    HW284928  10.665  14.479   2.241
61011SOL     OW84929   0.606   7.824   2.699
61011SOL    HW184930   0.516   7.811   2.729
61011SOL    HW284931   0.597   7.845   2.606
61012SOL     OW84932  10.435   4.841   4.707
61012SOL    HW184933  10.418   4.756   4.667
61012SOL    HW284934  10.356   4.859   4.758
61013SOL     OW84935   3.432   5.677  11.614
61013SOL    HW184936   3.379   5.601  11.588
61013SOL    HW284937   3.502   5.680  11.549
61014SOL     OW84938   2.368   4.909  14.278
61014SOL    HW184939   2.276   4.935  14.264
61014SOL    HW284940   2.372   4.819  14.247
61015SOL     OW84941  10.800  13.474   9.093
61015SOL    HW184942  10.726  13.434   9.139
61015SOL    HW284943  10.799  13.565   9.123
61016SOL     OW84944  13.793   4.961   2.765
61016SOL    HW184945  13.831   4.905   2.832
61016SOL    HW284946  13.772   4.901   2.693
61017SOL     OW84947  13.912   6.867   3.612
61017SOL    HW184948  13.852   6.857   3.539
61017SOL    HW284949  13.902   6.786   3.663
61018SOL     OW84950   1.822   2.416   2.184
61018SOL    HW184951   1.798   2.358   2.111
61018SOL    HW284952   1.917   2.415   2.185
61019SOL     OW84953  14.300  10.680  10.423
61019SOL    HW184954  14.384  10.727  10.424
61019SOL    HW284955  14.323  10.590  10.446
61020SOL     OW84956   5.687   8.907   8.122
61020SOL    HW184957   5.618   8.917   8.057
61020SOL    HW284958   5.677   8.983   8.179
61021SOL     OW84959   8.423   5.996  11.453
61021SOL    HW184960   8.363   6.029  11.386
61021SOL    HW284961   8.457   5.914  11.418
61022SOL     OW84962   6.211   3.186   6.828
61022SOL    HW184963   6.183   3.149   6.911
61022SOL    HW284964   6.162   3.138   6.762
61023SOL     OW84965   6.387  11.495   7.506
61023SOL    HW184966   6.301  11.537   7.514
61023SOL    HW284967   6.370  11.419   7.449
61024SOL     OW84968   5.517  13.151  14.311
61024SOL    HW184969   5.521  13.060  14.283
61024SOL    HW284970   5.442  13.155  14.370
61025SOL     OW84971   7.752   3.790   1.929
61025SOL    HW184972   7.712   3.728   1.989
61025SOL    HW284973   7.802   3.850   1.985
61026SOL     OW84974   5.195  13.700  13.897
61026SOL    HW184975   5.146  13.696  13.815
61026SOL    HW284976   5.222  13.792  13.905
61027SOL     OW84977   1.330   3.678   8.206
61027SOL    HW184978   1.263   3.669   8.273
61027SOL    HW284979   1.315   3.603   8.148
61028SOL     OW84980  10.275   7.349   8.701
61028SOL    HW184981  10.336   7.277   8.717
61028SOL    HW284982  10.301   7.417   8.763
61029SOL     OW84983   0.323   3.169   3.820
61029SOL    HW184984   0.300   3.108   3.890
61029SOL    HW284985   0.333   3.114   3.742
61030SOL     OW84986   5.361   1.623  12.268
61030SOL    HW184987   5.331   1.571  12.193
61030SOL    HW284988   5.443   1.581  12.295
61031SOL     OW84989   5.746  14.078  13.554
61031SOL    HW184990   5.700  14.095  13.472
61031SOL    HW284991   5.831  14.121  13.544
61032SOL     OW84992   7.862   8.255  13.859
61032SOL    HW184993   7.933   8.270  13.921
61032SOL    HW284994   7.786   8.236  13.914
61033SOL     OW84995  10.673   8.521   4.232
61033SOL    HW184996  10.715   8.602   4.202
61033SOL    HW284997  10.663   8.469   4.153
61034SOL     OW84998   4.547   7.890  10.543
61034SOL    HW184999   4.549   7.872  10.449
61034SOL    HW285000   4.501   7.816  10.581
61035SOL     OW85001   0.763   0.997   5.944
61035SOL    HW185002   0.839   1.004   6.001
61035SOL    HW285003   0.772   0.912   5.901
61036SOL     OW85004   1.324  12.994  11.813
61036SOL    HW185005   1.415  12.987  11.782
61036SOL    HW285006   1.299  13.084  11.793
61037SOL     OW85007   0.775   3.995  11.449
61037SOL    HW185008   0.839   3.927  11.429
61037SOL    HW285009   0.749   3.977  11.540
61038SOL     OW85010  10.888  14.117   4.443
61038SOL    HW185011  10.979  14.105   4.413
61038SOL    HW285012  10.879  14.057   4.517
61039SOL     OW85013  11.635   3.098   2.295
61039SOL    HW185014  11.705   3.035   2.277
61039SOL    HW285015  11.579   3.055   2.359
61040SOL     OW85016   6.137  13.533   9.586
61040SOL    HW185017   6.184  13.607   9.546
61040SOL    HW285018   6.080  13.500   9.517
61041SOL     OW85019   1.813   3.095  11.867
61041SOL    HW185020   1.720   3.113  11.856
61041SOL    HW285021   1.851   3.112  11.781
61042SOL     OW85022   0.511   2.499   0.480
61042SOL    HW185023   0.555   2.434   0.534
61042SOL    HW285024   0.473   2.561   0.543
61043SOL     OW85025   6.946   2.148   1.492
61043SOL    HW185026   6.968   2.190   1.575
61043SOL    HW285027   6.857   2.115   1.505
61044SOL     OW85028   6.033  13.352  10.829
61044SOL    HW185029   5.946  13.338  10.867
61044SOL    HW285030   6.035  13.297  10.751
61045SOL     OW85031  12.619  12.122   3.207
61045SOL    HW185032  12.596  12.030   3.219
61045SOL    HW285033  12.549  12.158   3.153
61046SOL     OW85034   1.371   2.793   6.990
61046SOL    HW185035   1.294   2.772   6.938
61046SOL    HW285036   1.445   2.761   6.939
61047SOL     OW85037   1.307   2.811   9.524
61047SOL    HW185038   1.328   2.724   9.491
61047SOL    HW285039   1.214   2.807   9.545
61048SOL     OW85040   3.675   5.213  11.761
61048SOL    HW185041   3.673   5.309  11.753
61048SOL    HW285042   3.764   5.189  11.734
61049SOL     OW85043   2.013   4.816   4.195
61049SOL    HW185044   2.086   4.855   4.243
61049SOL    HW285045   2.013   4.725   4.223
61050SOL     OW85046   6.726   0.764   8.444
61050SOL    HW185047   6.691   0.807   8.522
61050SOL    HW285048   6.774   0.833   8.398
61051SOL     OW85049   9.018  10.521  12.809
61051SOL    HW185050   9.059  10.532  12.723
61051SOL    HW285051   8.946  10.584  12.809
61052SOL     OW85052  13.104  11.864   7.657
61052SOL    HW185053  13.050  11.800   7.611
61052SOL    HW285054  13.070  11.949   7.629
61053SOL     OW85055   4.467   3.514  11.409
61053SOL    HW185056   4.500   3.581  11.469
61053SOL    HW285057   4.457   3.559  11.325
61054SOL     OW85058  10.485   3.359   2.076
61054SOL    HW185059  10.460   3.314   1.996
61054SOL    HW285060  10.580   3.368   2.071
61055SOL     OW85061  13.438   3.264   8.824
61055SOL    HW185062  13.408   3.174   8.842
61055SOL    HW285063  13.366   3.304   8.778
61056SOL     OW85064   8.107  10.492  12.267
61056SOL    HW185065   8.030  10.549  12.267
61056SOL    HW285066   8.141  10.498  12.178
61057SOL     OW85067   5.467  14.639   8.061
61057SOL    HW185068   5.517  14.603   8.134
61057SOL    HW285069   5.498  14.590   7.984
61058SOL     OW85070  12.276  11.561   6.093
61058SOL    HW185071  12.335  11.528   6.025
61058SOL    HW285072  12.197  11.509   6.084
61059SOL     OW85073   1.705   9.424  10.955
61059SOL    HW185074   1.649   9.501  10.948
61059SOL    HW285075   1.692   9.376  10.873
61060SOL     OW85076  14.001   8.748  14.155
61060SOL    HW185077  14.056   8.823  14.134
61060SOL    HW285078  14.063   8.680  14.181
61061SOL     OW85079  11.003  12.248  12.131
61061SOL    HW185080  11.062  12.179  12.099
61061SOL    HW285081  11.053  12.292  12.199
61062SOL     OW85082   2.983  10.414  13.368
61062SOL    HW185083   2.998  10.328  13.406
61062SOL    HW285084   3.030  10.411  13.284
61063SOL     OW85085   0.176   5.881   6.242
61063SOL    HW185086   0.135   5.955   6.199
61063SOL    HW285087   0.265   5.910   6.261
61064SOL     OW85088   7.376  10.674   6.390
61064SOL    HW185089   7.337  10.738   6.331
61064SOL    HW285090   7.326  10.594   6.375
61065SOL     OW85091   4.482  11.883   7.611
61065SOL    HW185092   4.558  11.877   7.552
61065SOL    HW285093   4.463  11.792   7.635
61066SOL     OW85094   0.017   2.293   8.436
61066SOL    HW185095   0.048   2.269   8.349
61066SOL    HW285096   0.008   2.210   8.482
61067SOL     OW85097  12.832   9.521   9.625
61067SOL    HW185098  12.861   9.489   9.539
61067SOL    HW285099  12.737   9.508   9.625
61068SOL     OW85100   3.638  10.972   7.088
61068SOL    HW185101   3.621  11.064   7.066
61068SOL    HW285102   3.598  10.961   7.175
61069SOL     OW85103  14.812  10.794   5.959
61069SOL    HW185104  14.801  10.725   5.894
61069SOL    HW285105   0.030  10.779   5.995
61070SOL     OW85106   7.282  11.063   8.372
61070SOL    HW185107   7.214  11.020   8.424
61070SOL    HW285108   7.362  11.015   8.393
61071SOL     OW85109   3.297   5.034   9.605
61071SOL    HW185110   3.329   4.966   9.545
61071SOL    HW285111   3.367   5.044   9.669
61072SOL     OW85112   8.607  13.080   0.081
61072SOL    HW185113   8.615  13.174   0.062
61072SOL    HW285114   8.587  13.041  14.865
61073SOL     OW85115  11.746   6.506  14.727
61073SOL    HW185116  11.668   6.459  14.758
61073SOL    HW285117  11.794   6.528  14.807
61074SOL     OW85118   4.203   5.268   7.645
61074SOL    HW185119   4.191   5.352   7.689
61074SOL    HW285120   4.212   5.290   7.552
61075SOL     OW85121  11.019  14.603   6.895
61075SOL    HW185122  11.006  14.508   6.897
61075SOL    HW285123  10.953  14.637   6.955
61076SOL     OW85124   7.054   1.608   0.856
61076SOL    HW185125   7.082   1.597   0.947
61076SOL    HW285126   7.025   1.520   0.829
61077SOL     OW85127  12.849   1.900   7.133
61077SOL    HW185128  12.781   1.957   7.168
61077SOL    HW285129  12.802   1.832   7.086
61078SOL     OW85130   8.280   1.737  13.980
61078SOL    HW185131   8.199   1.708  14.021
61078SOL    HW285132   8.251   1.784  13.902
61079SOL     OW85133  14.204   3.662   5.670
61079SOL    HW185134  14.125   3.645   5.619
61079SOL    HW285135  14.202   3.597   5.740
61080SOL     OW85136   9.688   1.510   5.055
61080SOL    HW185137   9.621   1.537   4.992
61080SOL    HW285138   9.771   1.534   5.013
61081SOL     OW85139   0.466  14.420   5.122
61081SOL    HW185140   0.451  14.354   5.055
61081SOL    HW285141   0.535  14.384   5.177
61082SOL     OW85142  11.400   7.600  14.065
61082SOL    HW185143  11.486   7.604  14.108
61082SOL    HW285144  11.338   7.608  14.137
61083SOL     OW85145   9.610  11.911   1.938
61083SOL    HW185146   9.598  11.855   2.014
61083SOL    HW285147   9.527  11.906   1.890
61084SOL     OW85148   9.589  13.388   6.395
61084SOL    HW185149   9.600  13.315   6.335
61084SOL    HW285150   9.494  13.400   6.401
61085SOL     OW85151  12.167   7.184  10.277
61085SOL    HW185152  12.203   7.242  10.345
61085SOL    HW285153  12.189   7.096  10.307
61086SOL     OW85154  12.686   1.720   7.335
61086SOL    HW185155  12.652   1.675   7.412
61086SOL    HW285156  12.704   1.650   7.272
61087SOL     OW85157   6.615   1.542   9.871
61087SOL    HW185158   6.711   1.541   9.871
61087SOL    HW285159   6.591   1.579   9.956
61088SOL     OW85160   9.737  13.942  13.122
61088SOL    HW185161   9.742  13.957  13.028
61088SOL    HW285162   9.668  14.001  13.153
61089SOL     OW85163   9.318  10.415   2.799
61089SOL    HW185164   9.403  10.404   2.756
61089SOL    HW285165   9.258  10.364   2.745
61090SOL     OW85166   4.962  13.046   6.027
61090SOL    HW185167   4.869  13.036   6.005
61090SOL    HW285168   4.987  13.130   5.990
61091SOL     OW85169   3.251   4.559   7.398
61091SOL    HW185170   3.163   4.522   7.404
61091SOL    HW285171   3.259   4.586   7.306
61092SOL     OW85172   2.973  14.265   9.011
61092SOL    HW185173   2.946  14.314   8.934
61092SOL    HW285174   2.942  14.317   9.085
61093SOL     OW85175   2.511  11.288   8.977
61093SOL    HW185176   2.427  11.321   8.947
61093SOL    HW285177   2.490  11.219   9.039
61094SOL     OW85178   2.033   3.174   3.035
61094SOL    HW185179   2.121   3.142   3.054
61094SOL    HW285180   1.976   3.123   3.092
61095SOL     OW85181   9.794   9.891   6.390
61095SOL    HW185182   9.829   9.942   6.463
61095SOL    HW285183   9.871   9.870   6.337
61096SOL     OW85184  10.847   1.387  14.046
61096SOL    HW185185  10.756   1.360  14.058
61096SOL    HW285186  10.843   1.482  14.044
61097SOL     OW85187   2.198   5.867  13.281
61097SOL    HW185188   2.261   5.840  13.215
61097SOL    HW285189   2.180   5.959  13.262
61098SOL     OW85190  11.584   6.811   9.143
61098SOL    HW185191  11.525   6.847   9.077
61098SOL    HW285192  11.567   6.717   9.142
61099SOL     OW85193  13.618   7.127   8.654
61099SOL    HW185194  13.644   7.155   8.566
61099SOL    HW285195  13.562   7.051   8.639
61100SOL     OW85196   5.158  12.265   3.421
61100SOL    HW185197   5.170  12.310   3.338
61100SOL    HW285198   5.208  12.183   3.412
61101SOL     OW85199  11.089   7.564   3.908
61101SOL    HW185200  11.034   7.642   3.913
61101SOL    HW285201  11.080   7.523   3.994
61102SOL     OW85202  12.059  13.360  11.063
61102SOL    HW185203  12.148  13.395  11.064
61102SOL    HW285204  12.062  13.288  11.001
61103SOL     OW85205  12.784   9.562   4.751
61103SOL    HW185206  12.711   9.620   4.771
61103SOL    HW285207  12.846   9.617   4.703
61104SOL     OW85208   2.157   2.746  12.715
61104SOL    HW185209   2.231   2.689  12.736
61104SOL    HW285210   2.136   2.726  12.624
61105SOL     OW85211   4.512   5.335   5.136
61105SOL    HW185212   4.574   5.291   5.078
61105SOL    HW285213   4.551   5.328   5.223
61106SOL     OW85214   1.962   7.150   5.457
61106SOL    HW185215   1.953   7.082   5.390
61106SOL    HW285216   1.915   7.115   5.533
61107SOL     OW85217  11.213  14.438   9.837
61107SOL    HW185218  11.228  14.345   9.854
61107SOL    HW285219  11.156  14.439   9.760
61108SOL     OW85220  13.560  14.179   0.181
61108SOL    HW185221  13.599  14.194   0.266
61108SOL    HW285222  13.629  14.139   0.129
61109SOL     OW85223   3.931   1.768   6.113
61109SOL    HW185224   3.903   1.853   6.080
61109SOL    HW285225   3.860   1.709   6.089
61110SOL     OW85226   3.916   4.396  11.645
61110SOL    HW185227   3.864   4.463  11.691
61110SOL    HW285228   3.851   4.349  11.592
61111SOL     OW85229   2.839  10.436   5.310
61111SOL    HW185230   2.791  10.518   5.326
61111SOL    HW285231   2.849  10.398   5.397
61112SOL     OW85232  10.857   1.207   4.527
61112SOL    HW185233  10.778   1.217   4.580
61112SOL    HW285234  10.840   1.259   4.448
61113SOL     OW85235   9.035   0.263   3.193
61113SOL    HW185236   9.076   0.178   3.213
61113SOL    HW285237   9.046   0.315   3.272
61114SOL     OW85238  13.592   5.139   6.263
61114SOL    HW185239  13.587   5.125   6.358
61114SOL    HW285240  13.519   5.197   6.244
61115SOL     OW85241   9.590   4.510  13.892
61115SOL    HW185242   9.615   4.540  13.980
61115SOL    HW285243   9.571   4.591  13.844
61116SOL     OW85244   1.042   9.478   5.952
61116SOL    HW185245   1.016   9.386   5.952
61116SOL    HW285246   1.054   9.499   5.859
61117SOL     OW85247  11.123   0.408   5.315
61117SOL    HW185248  11.086   0.491   5.347
61117SOL    HW285249  11.206   0.399   5.363
61118SOL     OW85250  10.890   1.764   5.726
61118SOL    HW185251  10.876   1.689   5.668
61118SOL    HW285252  10.820   1.825   5.706
61119SOL     OW85253  10.890   4.654  10.456
61119SOL    HW185254  10.795   4.666  10.455
61119SOL    HW285255  10.903   4.566  10.422
61120SOL     OW85256   0.582   0.066   7.922
61120SOL    HW185257   0.562   0.013   7.845
61120SOL    HW285258   0.523   0.140   7.916
61121SOL     OW85259   4.190   8.945   2.028
61121SOL    HW185260   4.187   8.908   1.940
61121SOL    HW285261   4.100   8.937   2.060
61122SOL     OW85262   6.103   5.398   4.970
61122SOL    HW185263   6.032   5.334   4.959
61122SOL    HW285264   6.174   5.365   4.915
61123SOL     OW85265   2.110  11.334  10.552
61123SOL    HW185266   2.093  11.280  10.474
61123SOL    HW285267   2.044  11.305  10.615
61124SOL     OW85268  13.256   2.796  11.321
61124SOL    HW185269  13.241   2.707  11.353
61124SOL    HW285270  13.177   2.844  11.346
61125SOL     OW85271   8.750  13.804   6.408
61125SOL    HW185272   8.773  13.848   6.326
61125SOL    HW285273   8.707  13.723   6.381
61126SOL     OW85274   2.422   1.588   8.946
61126SOL    HW185275   2.479   1.529   8.995
61126SOL    HW285276   2.333   1.561   8.969
61127SOL     OW85277   2.571  11.427   1.324
61127SOL    HW185278   2.535  11.403   1.239
61127SOL    HW285279   2.618  11.349   1.353
61128SOL     OW85280   4.246   0.012   4.995
61128SOL    HW185281   4.230   0.096   5.037
61128SOL    HW285282   4.242   0.030   4.901
61129SOL     OW85283   1.182   0.206  11.940
61129SOL    HW185284   1.277   0.216  11.931
61129SOL    HW285285   1.166   0.112  11.929
61130SOL     OW85286   2.650   3.552  11.937
61130SOL    HW185287   2.579   3.517  11.990
61130SOL    HW285288   2.622   3.537  11.847
61131SOL     OW85289   0.359   0.812   0.644
61131SOL    HW185290   0.317   0.852   0.568
61131SOL    HW285291   0.389   0.727   0.613
61132SOL     OW85292   6.210   2.008   1.226
61132SOL    HW185293   6.222   1.914   1.214
61132SOL    HW285294   6.293   2.047   1.198
61133SOL     OW85295   6.094  14.039   8.771
61133SOL    HW185296   6.138  13.999   8.697
61133SOL    HW285297   6.013  14.076   8.735
61134SOL     OW85298  12.086  10.693   3.675
61134SOL    HW185299  12.151  10.728   3.736
61134SOL    HW285300  12.132  10.625   3.626
61135SOL     OW85301   8.515   8.401  12.316
61135SOL    HW185302   8.484   8.490  12.336
61135SOL    HW285303   8.512   8.355  12.400
61136SOL     OW85304   3.672   1.723   3.821
61136SOL    HW185305   3.731   1.757   3.754
61136SOL    HW285306   3.724   1.658   3.868
61137SOL     OW85307   7.313   8.005  12.310
61137SOL    HW185308   7.362   7.942  12.362
61137SOL    HW285309   7.238   7.957  12.278
61138SOL     OW85310   2.797   6.512   2.706
61138SOL    HW185311   2.862   6.457   2.749
61138SOL    HW285312   2.729   6.527   2.772
61139SOL     OW85313  13.441  11.056   1.366
61139SOL    HW185314  13.396  11.122   1.315
61139SOL    HW285315  13.524  11.098   1.391
61140SOL     OW85316  13.522  12.058   5.662
61140SOL    HW185317  13.495  12.008   5.585
61140SOL    HW285318  13.591  12.115   5.631
61141SOL     OW85319   4.731   5.519  13.981
61141SOL    HW185320   4.786   5.520  13.902
61141SOL    HW285321   4.680   5.439  13.973
61142SOL     OW85322  14.550   5.649   5.479
61142SOL    HW185323  14.609   5.705   5.529
61142SOL    HW285324  14.498   5.710   5.426
61143SOL     OW85325  12.449   9.026   1.360
61143SOL    HW185326  12.530   9.071   1.381
61143SOL    HW285327  12.403   9.085   1.299
61144SOL     OW85328   3.862  11.071   4.940
61144SOL    HW185329   3.816  11.039   5.018
61144SOL    HW285330   3.797  11.126   4.896
61145SOL     OW85331  12.163  12.456   0.264
61145SOL    HW185332  12.188  12.430   0.353
61145SOL    HW285333  12.199  12.544   0.254
61146SOL     OW85334   9.345   3.790  14.002
61146SOL    HW185335   9.338   3.777  14.097
61146SOL    HW285336   9.311   3.709  13.964
61147SOL     OW85337   5.563   9.859  13.427
61147SOL    HW185338   5.602   9.777  13.399
61147SOL    HW285339   5.606   9.879  13.510
61148SOL     OW85340  13.497  13.047   7.654
61148SOL    HW185341  13.516  13.119   7.714
61148SOL    HW285342  13.562  13.055   7.584
61149SOL     OW85343   4.626   0.407   9.565
61149SOL    HW185344   4.631   0.325   9.615
61149SOL    HW285345   4.554   0.392   9.504
61150SOL     OW85346  11.310   8.349   3.563
61150SOL    HW185347  11.326   8.350   3.468
61150SOL    HW285348  11.275   8.436   3.582
61151SOL     OW85349   5.498   3.737   0.324
61151SOL    HW185350   5.535   3.790   0.254
61151SOL    HW285351   5.465   3.659   0.280
61152SOL     OW85352   7.879   5.564  10.601
61152SOL    HW185353   7.920   5.590  10.683
61152SOL    HW285354   7.925   5.484  10.576
61153SOL     OW85355   8.047   5.213   1.613
61153SOL    HW185356   8.114   5.172   1.667
61153SOL    HW285357   8.001   5.141   1.572
61154SOL     OW85358   9.347   1.777  12.957
61154SOL    HW185359   9.388   1.729  12.885
61154SOL    HW285360   9.326   1.709  13.022
61155SOL     OW85361   1.961   6.886   1.569
61155SOL    HW185362   2.053   6.896   1.543
61155SOL    HW285363   1.911   6.915   1.493
61156SOL     OW85364   2.801   0.123   1.698
61156SOL    HW185365   2.709   0.150   1.697
61156SOL    HW285366   2.836   0.160   1.779
61157SOL     OW85367   7.839   9.811   4.166
61157SOL    HW185368   7.824   9.904   4.150
61157SOL    HW285369   7.801   9.767   4.090
61158SOL     OW85370   4.432   2.814  10.814
61158SOL    HW185371   4.523   2.784  10.812
61158SOL    HW285372   4.425   2.862  10.897
61159SOL     OW85373  10.371  13.423   8.042
61159SOL    HW185374  10.378  13.493   7.977
61159SOL    HW285375  10.440  13.361   8.018
61160SOL     OW85376  10.836   7.342   7.250
61160SOL    HW185377  10.813   7.377   7.164
61160SOL    HW285378  10.801   7.406   7.312
61161SOL     OW85379  13.708  12.045   9.216
61161SOL    HW185380  13.649  12.096   9.271
61161SOL    HW285381  13.754  12.110   9.163
61162SOL     OW85382   1.017   7.619   8.438
61162SOL    HW185383   0.931   7.657   8.458
61162SOL    HW285384   1.060   7.613   8.523
61163SOL     OW85385   3.042   9.639  12.216
61163SOL    HW185386   3.037   9.575  12.144
61163SOL    HW285387   2.982   9.708  12.191
61164SOL     OW85388  11.483   3.789   5.246
61164SOL    HW185389  11.461   3.762   5.335
61164SOL    HW285390  11.433   3.729   5.190
61165SOL     OW85391   5.383   5.370   4.325
61165SOL    HW185392   5.469   5.410   4.330
61165SOL    HW285393   5.399   5.277   4.342
61166SOL     OW85394   1.680  14.032   4.330
61166SOL    HW185395   1.593  14.057   4.299
61166SOL    HW285396   1.741  14.087   4.280
61167SOL     OW85397  14.554   0.606   5.544
61167SOL    HW185398  14.506   0.683   5.575
61167SOL    HW285399  14.488   0.551   5.503
61168SOL     OW85400   5.582  12.693   0.483
61168SOL    HW185401   5.530  12.659   0.409
61168SOL    HW285402   5.544  12.779   0.501
61169SOL     OW85403   0.823  11.825  11.602
61169SOL    HW185404   0.822  11.761  11.531
61169SOL    HW285405   0.816  11.910  11.559
61170SOL     OW85406   1.233  11.547   1.647
61170SOL    HW185407   1.220  11.642   1.643
61170SOL    HW285408   1.266  11.523   1.560
61171SOL     OW85409   4.456   2.633  11.131
61171SOL    HW185410   4.375   2.603  11.171
61171SOL    HW285411   4.432   2.712  11.083
61172SOL     OW85412   6.834  14.618   9.970
61172SOL    HW185413   6.795  14.698  10.005
61172SOL    HW285414   6.789  14.604   9.887
61173SOL     OW85415   9.494   3.520  12.014
61173SOL    HW185416   9.511   3.596  12.069
61173SOL    HW285417   9.525   3.546  11.927
61174SOL     OW85418  12.013   9.224   1.545
61174SOL    HW185419  12.019   9.253   1.453
61174SOL    HW285420  12.102   9.199   1.568
61175SOL     OW85421   2.104  12.235   7.881
61175SOL    HW185422   2.040  12.168   7.908
61175SOL    HW285423   2.058  12.318   7.893
61176SOL     OW85424   6.012  12.423   9.299
61176SOL    HW185425   6.006  12.517   9.283
61176SOL    HW285426   6.105  12.408   9.319
61177SOL     OW85427  13.947   6.546   5.786
61177SOL    HW185428  13.862   6.588   5.776
61177SOL    HW285429  13.982   6.579   5.869
61178SOL     OW85430   3.050   5.979   0.456
61178SOL    HW185431   3.084   6.051   0.403
61178SOL    HW285432   3.006   5.922   0.393
61179SOL     OW85433   6.121  10.155   6.486
61179SOL    HW185434   6.155  10.102   6.414
61179SOL    HW285435   6.037  10.188   6.454
61180SOL     OW85436   1.910   3.805   6.429
61180SOL    HW185437   1.861   3.844   6.356
61180SOL    HW285438   1.995   3.850   6.428
61181SOL     OW85439  12.402   4.094   0.394
61181SOL    HW185440  12.419   4.175   0.346
61181SOL    HW285441  12.488   4.053   0.404
61182SOL     OW85442   1.383   2.468   0.514
61182SOL    HW185443   1.337   2.523   0.449
61182SOL    HW285444   1.349   2.380   0.499
61183SOL     OW85445   9.527   6.041  13.977
61183SOL    HW185446   9.438   6.067  13.952
61183SOL    HW285447   9.557   5.988  13.904
61184SOL     OW85448   0.196  10.664   6.812
61184SOL    HW185449   0.183  10.577   6.849
61184SOL    HW285450   0.145  10.664   6.731
61185SOL     OW85451   8.258   3.947   3.349
61185SOL    HW185452   8.167   3.974   3.357
61185SOL    HW285453   8.269   3.926   3.256
61186SOL     OW85454   2.926  11.178   2.671
61186SOL    HW185455   2.944  11.128   2.751
61186SOL    HW285456   2.928  11.113   2.601
61187SOL     OW85457   5.224   5.874  14.617
61187SOL    HW185458   5.231   5.922  14.534
61187SOL    HW285459   5.300   5.814  14.616
61188SOL     OW85460   3.626  10.939  10.373
61188SOL    HW185461   3.644  11.008  10.437
61188SOL    HW285462   3.619  10.859  10.425
61189SOL     OW85463   4.937  11.021   2.055
61189SOL    HW185464   4.936  11.117   2.064
61189SOL    HW285465   4.917  10.989   2.143
61190SOL     OW85466   2.250   8.248   9.984
61190SOL    HW185467   2.327   8.273  10.035
61190SOL    HW285468   2.221   8.165  10.022
61191SOL     OW85469   3.081   3.055   7.018
61191SOL    HW185470   3.030   3.000   6.957
61191SOL    HW285471   3.127   3.117   6.961
61192SOL     OW85472  14.301   0.661  14.632
61192SOL    HW185473  14.372   0.680  14.693
61192SOL    HW285474  14.253   0.743  14.625
61193SOL     OW85475   8.288  14.488   1.569
61193SOL    HW185476   8.220  14.467   1.633
61193SOL    HW285477   8.245  14.542   1.504
61194SOL     OW85478   4.202   3.806   7.779
61194SOL    HW185479   4.268   3.850   7.725
61194SOL    HW285480   4.248   3.784   7.859
61195SOL     OW85481   7.044   9.883   4.651
61195SOL    HW185482   6.986   9.931   4.591
61195SOL    HW285483   6.988   9.859   4.724
61196SOL     OW85484  10.724   2.308   4.766
61196SOL    HW185485  10.642   2.350   4.740
61196SOL    HW285486  10.713   2.290   4.859
61197SOL     OW85487  11.493   2.502   7.460
61197SOL    HW185488  11.555   2.494   7.532
61197SOL    HW285489  11.474   2.412   7.434
61198SOL     OW85490  13.048   7.600  13.520
61198SOL    HW185491  13.137   7.621  13.548
61198SOL    HW285492  13.059   7.535  13.451
61199SOL     OW85493   9.007   1.691  14.608
61199SOL    HW185494   8.990   1.660  14.519
61199SOL    HW285495   8.946   1.641  14.662
61200SOL     OW85496   5.495   5.761   7.097
61200SOL    HW185497   5.554   5.791   7.028
61200SOL    HW285498   5.450   5.840   7.127
61201SOL     OW85499  11.785  10.722  12.692
61201SOL    HW185500  11.704  10.672  12.699
61201SOL    HW285501  11.794  10.765  12.777
61202SOL     OW85502  13.412  12.261  11.128
61202SOL    HW185503  13.482  12.226  11.183
61202SOL    HW285504  13.404  12.352  11.154
61203SOL     OW85505   6.706   4.906  12.046
61203SOL    HW185506   6.743   4.994  12.039
61203SOL    HW285507   6.611   4.919  12.044
61204SOL     OW85508  10.791   7.364   9.466
61204SOL    HW185509  10.810   7.295   9.529
61204SOL    HW285510  10.782   7.318   9.382
61205SOL     OW85511   7.064   5.943  12.873
61205SOL    HW185512   7.058   5.989  12.789
61205SOL    HW285513   6.991   5.881  12.871
61206SOL     OW85514   8.487  12.533   3.722
61206SOL    HW185515   8.479  12.572   3.809
61206SOL    HW285516   8.414  12.471   3.717
61207SOL     OW85517   4.413   8.608   2.954
61207SOL    HW185518   4.491   8.602   3.010
61207SOL    HW285519   4.342   8.631   3.014
61208SOL     OW85520   9.368   3.328   3.544
61208SOL    HW185521   9.283   3.307   3.584
61208SOL    HW285522   9.400   3.245   3.511
61209SOL     OW85523  13.573  11.857   7.053
61209SOL    HW185524  13.514  11.930   7.034
61209SOL    HW285525  13.543  11.786   6.996
61210SOL     OW85526  13.050  13.916   5.574
61210SOL    HW185527  13.101  13.845   5.614
61210SOL    HW285528  12.994  13.948   5.644
61211SOL     OW85529   8.730  11.292   1.794
61211SOL    HW185530   8.803  11.289   1.731
61211SOL    HW285531   8.772  11.282   1.879
61212SOL     OW85532   2.112  13.383   0.735
61212SOL    HW185533   2.068  13.409   0.816
61212SOL    HW285534   2.051  13.409   0.666
61213SOL     OW85535  11.336   3.441   2.673
61213SOL    HW185536  11.426   3.410   2.684
61213SOL    HW285537  11.320   3.497   2.749
61214SOL     OW85538   0.209   2.491   6.412
61214SOL    HW185539   0.287   2.504   6.358
61214SOL    HW285540   0.138   2.480   6.349
61215SOL     OW85541   7.043   8.316   0.204
61215SOL    HW185542   6.989   8.373   0.259
61215SOL    HW285543   7.098   8.268   0.266
61216SOL     OW85544   5.838  11.328  14.436
61216SOL    HW185545   5.815  11.267  14.505
61216SOL    HW285546   5.878  11.402  14.481
61217SOL     OW85547  14.493  12.734   6.576
61217SOL    HW185548  14.571  12.748   6.522
61217SOL    HW285549  14.427  12.793   6.539
61218SOL     OW85550   0.554  11.056   6.157
61218SOL    HW185551   0.530  10.989   6.221
61218SOL    HW285552   0.474  11.072   6.107
61219SOL     OW85553   2.694   7.898  12.061
61219SOL    HW185554   2.774   7.898  12.113
61219SOL    HW285555   2.637   7.961  12.105
61220SOL     OW85556   9.085   9.257   4.363
61220SOL    HW185557   9.126   9.170   4.355
61220SOL    HW285558   9.000   9.239   4.404
61221SOL     OW85559   8.315   4.926   6.225
61221SOL    HW185560   8.258   4.869   6.277
61221SOL    HW285561   8.370   4.971   6.289
61222SOL     OW85562  14.439  11.314  12.685
61222SOL    HW185563  14.479  11.362  12.758
61222SOL    HW285564  14.359  11.277  12.722
61223SOL     OW85565  12.311   4.491   1.748
61223SOL    HW185566  12.372   4.555   1.711
61223SOL    HW285567  12.367   4.425   1.788
61224SOL     OW85568  13.783   6.186   5.711
61224SOL    HW185569  13.775   6.095   5.683
61224SOL    HW285570  13.865   6.189   5.759
61225SOL     OW85571  11.937  14.396   5.060
61225SOL    HW185572  11.962  14.489   5.062
61225SOL    HW285573  11.872  14.390   4.990
61226SOL     OW85574   7.220   2.072   9.833
61226SOL    HW185575   7.239   1.984   9.866
61226SOL    HW285576   7.307   2.109   9.815
61227SOL     OW85577  12.534   2.792  12.672
61227SOL    HW185578  12.481   2.716  12.650
61227SOL    HW285579  12.569   2.822  12.588
61228SOL     OW85580   7.871  10.091  14.436
61228SOL    HW185581   7.848  10.028  14.505
61228SOL    HW285582   7.875  10.038  14.356
61229SOL     OW85583   1.590   3.869  14.470
61229SOL    HW185584   1.623   3.857  14.559
61229SOL    HW285585   1.499   3.896  14.481
61230SOL     OW85586   5.771  13.511   9.901
61230SOL    HW185587   5.855  13.540   9.936
61230SOL    HW285588   5.793  13.435   9.847
61231SOL     OW85589   9.432  11.520  12.029
61231SOL    HW185590   9.452  11.479  11.945
61231SOL    HW285591   9.348  11.483  12.055
61232SOL     OW85592   0.489  12.066   9.185
61232SOL    HW185593   0.543  12.123   9.239
61232SOL    HW285594   0.450  12.004   9.246
61233SOL     OW85595   4.259   5.064  11.406
61233SOL    HW185596   4.284   4.995  11.467
61233SOL    HW285597   4.256   5.143  11.459
61234SOL     OW85598   8.539   9.726   7.505
61234SOL    HW185599   8.604   9.709   7.437
61234SOL    HW285600   8.522   9.820   7.499
61235SOL     OW85601   9.481   5.791  14.127
61235SOL    HW185602   9.418   5.793  14.199
61235SOL    HW285603   9.474   5.877  14.086
61236SOL     OW85604   0.750  12.451   5.151
61236SOL    HW185605   0.745  12.394   5.074
61236SOL    HW285606   0.828  12.421   5.197
61237SOL     OW85607   6.429   2.620   8.807
61237SOL    HW185608   6.385   2.545   8.846
61237SOL    HW285609   6.369   2.693   8.821
61238SOL     OW85610   6.500   3.612  12.078
61238SOL    HW185611   6.493   3.563  11.996
61238SOL    HW285612   6.515   3.703  12.051
61239SOL     OW85613   0.849  10.019   1.961
61239SOL    HW185614   0.826   9.946   1.904
61239SOL    HW285615   0.769  10.071   1.967
61240SOL     OW85616   4.262   5.636   6.545
61240SOL    HW185617   4.274   5.541   6.547
61240SOL    HW285618   4.213   5.652   6.464
61241SOL     OW85619  11.214  12.671  13.102
61241SOL    HW185620  11.162  12.641  13.177
61241SOL    HW285621  11.242  12.590  13.059
61242SOL     OW85622  11.142   3.240   1.945
61242SOL    HW185623  11.063   3.210   1.989
61242SOL    HW285624  11.111   3.279   1.863
61243SOL     OW85625  14.355   2.498  12.911
61243SOL    HW185626  14.375   2.430  12.846
61243SOL    HW285627  14.384   2.579  12.869
61244SOL     OW85628   8.839   8.325   8.291
61244SOL    HW185629   8.798   8.398   8.245
61244SOL    HW285630   8.834   8.349   8.384
61245SOL     OW85631   0.091   9.065   9.348
61245SOL    HW185632   0.182   9.044   9.326
61245SOL    HW285633   0.095   9.154   9.384
61246SOL     OW85634   1.230  10.805   1.586
61246SOL    HW185635   1.197  10.721   1.619
61246SOL    HW285636   1.322  10.806   1.612
61247SOL     OW85637   7.285  10.022   6.772
61247SOL    HW185638   7.374  10.032   6.736
61247SOL    HW285639   7.269  10.104   6.817
61248SOL     OW85640   9.477   7.298  10.552
61248SOL    HW185641   9.563   7.255  10.562
61248SOL    HW285642   9.478   7.368  10.617
61249SOL     OW85643   9.078   7.741  13.987
61249SOL    HW185644   9.021   7.815  14.007
61249SOL    HW285645   9.021   7.679  13.940
61250SOL     OW85646  14.430   6.098  14.695
61250SOL    HW185647  14.413   6.136  14.782
61250SOL    HW285648  14.456   6.008  14.714
61251SOL     OW85649   8.464   3.402  11.092
61251SOL    HW185650   8.387   3.446  11.056
61251SOL    HW285651   8.429   3.331  11.145
61252SOL     OW85652  12.815   4.006  12.379
61252SOL    HW185653  12.758   4.014  12.455
61252SOL    HW285654  12.873   4.082  12.385
61253SOL     OW85655   5.787   2.428  14.672
61253SOL    HW185656   5.843   2.404  14.746
61253SOL    HW285657   5.751   2.345  14.641
61254SOL     OW85658   8.287   0.299  14.854
61254SOL    HW185659   8.298   0.344   0.068
61254SOL    HW285660   8.341   0.348  14.792
61255SOL     OW85661   9.904   9.943   3.939
61255SOL    HW185662   9.838   9.882   3.974
61255SOL    HW285663   9.971   9.947   4.007
61256SOL     OW85664   3.845   0.791   3.633
61256SOL    HW185665   3.864   0.795   3.727
61256SOL    HW285666   3.913   0.733   3.598
61257SOL     OW85667   5.767   9.963   1.071
61257SOL    HW185668   5.818  10.020   1.014
61257SOL    HW285669   5.794   9.988   1.160
61258SOL     OW85670   9.898  10.947   3.189
61258SOL    HW185671   9.863  10.928   3.276
61258SOL    HW285672   9.936  10.864   3.160
61259SOL     OW85673   9.580   4.389   2.662
61259SOL    HW185674   9.615   4.440   2.735
61259SOL    HW285675   9.637   4.410   2.588
61260SOL     OW85676  14.826   0.294  14.305
61260SOL    HW185677  14.742   0.336  14.286
61260SOL    HW285678  14.850   0.250  14.224
61261SOL     OW85679  13.935  10.869   1.091
61261SOL    HW185680  13.863  10.860   1.029
61261SOL    HW285681  14.006  10.908   1.040
61262SOL     OW85682   6.398  14.102  13.571
61262SOL    HW185683   6.464  14.171  13.579
61262SOL    HW285684   6.426  14.035  13.633
61263SOL     OW85685   5.535   3.342  12.763
61263SOL    HW185686   5.538   3.251  12.733
61263SOL    HW285687   5.448   3.351  12.801
61264SOL     OW85688   0.145  14.666  14.542
61264SOL    HW185689   0.093  14.722  14.484
61264SOL    HW285690   0.206  14.621  14.484
61265SOL     OW85691   4.375   7.929  12.844
61265SOL    HW185692   4.453   7.972  12.809
61265SOL    HW285693   4.384   7.838  12.817
61266SOL     OW85694   9.814   9.354  12.370
61266SOL    HW185695   9.861   9.381  12.291
61266SOL    HW285696   9.835   9.261  12.380
61267SOL     OW85697  12.421   2.823   9.742
61267SOL    HW185698  12.390   2.827   9.832
61267SOL    HW285699  12.394   2.736   9.712
61268SOL     OW85700   0.306   4.884  12.364
61268SOL    HW185701   0.280   4.954  12.425
61268SOL    HW285702   0.227   4.832  12.353
61269SOL     OW85703   9.071   9.788  10.629
61269SOL    HW185704   9.156   9.786  10.671
61269SOL    HW285705   9.089   9.774  10.536
61270SOL     OW85706   2.769   1.557  11.719
61270SOL    HW185707   2.822   1.605  11.656
61270SOL    HW285708   2.781   1.604  11.802
61271SOL     OW85709   2.513  12.214  12.135
61271SOL    HW185710   2.584  12.154  12.157
61271SOL    HW285711   2.549  12.301  12.148
61272SOL     OW85712   7.189   3.850  12.551
61272SOL    HW185713   7.116   3.869  12.492
61272SOL    HW285714   7.255   3.809  12.495
61273SOL     OW85715  11.683   7.908   2.419
61273SOL    HW185716  11.677   7.842   2.350
61273SOL    HW285717  11.596   7.947   2.421
61274SOL     OW85718   2.782   4.095  14.375
61274SOL    HW185719   2.769   4.171  14.431
61274SOL    HW285720   2.706   4.096  14.316
61275SOL     OW85721   3.659  14.129   0.822
61275SOL    HW185722   3.725  14.140   0.891
61275SOL    HW285723   3.669  14.038   0.795
61276SOL     OW85724   4.406  13.863  13.598
61276SOL    HW185725   4.409  13.788  13.659
61276SOL    HW285726   4.316  13.894  13.603
61277SOL     OW85727   3.948   0.477   1.250
61277SOL    HW185728   3.859   0.479   1.287
61277SOL    HW285729   3.940   0.426   1.170
61278SOL     OW85730  11.968   0.503   1.831
61278SOL    HW185731  11.957   0.515   1.925
61278SOL    HW285732  11.917   0.573   1.791
61279SOL     OW85733   0.047   9.552  11.024
61279SOL    HW185734  14.847   9.568  11.088
61279SOL    HW285735   0.034   9.619  10.957
61280SOL     OW85736   0.880   9.965   1.022
61280SOL    HW185737   0.800   9.914   1.036
61280SOL    HW285738   0.896   9.959   0.928
61281SOL     OW85739  12.393  13.631   3.616
61281SOL    HW185740  12.414  13.682   3.693
61281SOL    HW285741  12.307  13.663   3.588
61282SOL     OW85742   4.104   8.710   6.194
61282SOL    HW185743   4.164   8.767   6.243
61282SOL    HW285744   4.045   8.771   6.149
61283SOL     OW85745   4.525  11.385   9.902
61283SOL    HW185746   4.561  11.471   9.922
61283SOL    HW285747   4.601  11.328   9.895
61284SOL     OW85748   3.329   4.339   1.305
61284SOL    HW185749   3.316   4.297   1.390
61284SOL    HW285750   3.311   4.270   1.241
61285SOL     OW85751   5.362   8.502  10.239
61285SOL    HW185752   5.267   8.505  10.238
61285SOL    HW285753   5.390   8.586  10.203
61286SOL     OW85754  12.758  12.264  13.606
61286SOL    HW185755  12.684  12.319  13.629
61286SOL    HW285756  12.780  12.290  13.516
61287SOL     OW85757   3.570   7.393   1.873
61287SOL    HW185758   3.652   7.381   1.825
61287SOL    HW285759   3.511   7.434   1.811
61288SOL     OW85760   8.427  10.140  13.721
61288SOL    HW185761   8.403  10.201  13.652
61288SOL    HW285762   8.348  10.129  13.773
61289SOL     OW85763   0.846   2.658   5.655
61289SOL    HW185764   0.810   2.575   5.623
61289SOL    HW285765   0.770   2.715   5.667
61290SOL     OW85766   8.253   9.312   2.669
61290SOL    HW185767   8.210   9.228   2.655
61290SOL    HW285768   8.278   9.342   2.581
61291SOL     OW85769   0.431  11.080   4.991
61291SOL    HW185770   0.423  10.988   4.964
61291SOL    HW285771   0.348  11.120   4.964
61292SOL     OW85772  13.420   4.414  11.007
61292SOL    HW185773  13.471   4.411  11.088
61292SOL    HW285774  13.398   4.507  10.996
61293SOL     OW85775   6.859   0.021  14.819
61293SOL    HW185776   6.810   0.086  14.768
61293SOL    HW285777   6.869  14.816  14.760
61294SOL     OW85778  14.412   3.944   9.957
61294SOL    HW185779  14.476   4.015   9.953
61294SOL    HW285780  14.329   3.984   9.934
61295SOL     OW85781   1.766  12.240   4.195
61295SOL    HW185782   1.829  12.306   4.166
61295SOL    HW285783   1.707  12.229   4.121
61296SOL     OW85784   0.716  10.023   8.516
61296SOL    HW185785   0.792  10.081   8.508
61296SOL    HW285786   0.672  10.052   8.596
61297SOL     OW85787   6.632  11.400  13.554
61297SOL    HW185788   6.588  11.484  13.544
61297SOL    HW285789   6.561  11.337  13.570
61298SOL     OW85790   3.016  13.536  11.835
61298SOL    HW185791   3.103  13.511  11.866
61298SOL    HW285792   3.001  13.623  11.872
61299SOL     OW85793   3.127   9.424  11.025
61299SOL    HW185794   3.059   9.452  11.087
61299SOL    HW285795   3.079   9.374  10.959
61300SOL     OW85796   8.958   2.251  11.782
61300SOL    HW185797   8.866   2.228  11.775
61300SOL    HW285798   8.980   2.290  11.697
61301SOL     OW85799   5.618   5.714   6.680
61301SOL    HW185800   5.529   5.728   6.710
61301SOL    HW285801   5.624   5.619   6.667
61302SOL     OW85802  12.276   2.408   5.221
61302SOL    HW185803  12.354   2.353   5.224
61302SOL    HW285804  12.261   2.435   5.312
61303SOL     OW85805   6.662  10.888  13.324
61303SOL    HW185806   6.717  10.897  13.402
61303SOL    HW285807   6.640  10.978  13.300
61304SOL     OW85808  11.850   0.197  10.267
61304SOL    HW185809  11.857   0.192  10.172
61304SOL    HW285810  11.760   0.224  10.283
61305SOL     OW85811   6.442   1.250  10.994
61305SOL    HW185812   6.432   1.269  10.901
61305SOL    HW285813   6.401   1.324  11.038
61306SOL     OW85814   2.642   4.884   9.117
61306SOL    HW185815   2.718   4.902   9.174
61306SOL    HW285816   2.575   4.945   9.147
61307SOL     OW85817   3.636   7.027   9.580
61307SOL    HW185818   3.575   7.088   9.539
61307SOL    HW285819   3.718   7.076   9.588
61308SOL     OW85820  13.336   0.805   0.284
61308SOL    HW185821  13.352   0.755   0.364
61308SOL    HW285822  13.305   0.740   0.221
61309SOL     OW85823   1.237   8.318  14.007
61309SOL    HW185824   1.223   8.231  13.968
61309SOL    HW285825   1.328   8.317  14.037
61310SOL     OW85826  12.060  11.652   9.254
61310SOL    HW185827  12.093  11.563   9.265
61310SOL    HW285828  11.980  11.654   9.307
61311SOL     OW85829   1.890   9.396   3.753
61311SOL    HW185830   1.904   9.360   3.841
61311SOL    HW285831   1.975   9.386   3.710
61312SOL     OW85832  14.169   1.021  11.796
61312SOL    HW185833  14.260   1.010  11.824
61312SOL    HW285834  14.119   1.026  11.878
61313SOL     OW85835   1.572   1.747   8.769
61313SOL    HW185836   1.562   1.840   8.790
61313SOL    HW285837   1.486   1.709   8.789
61314SOL     OW85838   2.326   5.274   2.966
61314SOL    HW185839   2.356   5.365   2.958
61314SOL    HW285840   2.322   5.259   3.061
61315SOL     OW85841  10.962   8.650   3.847
61315SOL    HW185842  10.888   8.590   3.841
61315SOL    HW285843  11.039   8.594   3.852
61316SOL     OW85844   5.884  14.401   7.411
61316SOL    HW185845   5.953  14.383   7.347
61316SOL    HW285846   5.924  14.464   7.472
61317SOL     OW85847   9.354  14.474   5.537
61317SOL    HW185848   9.386  14.488   5.626
61317SOL    HW285849   9.433  14.452   5.487
61318SOL     OW85850  12.437   9.876   5.137
61318SOL    HW185851  12.461   9.948   5.195
61318SOL    HW285852  12.342   9.883   5.127
61319SOL     OW85853   8.595   0.270  14.499
61319SOL    HW185854   8.592   0.228  14.413
61319SOL    HW285855   8.687   0.294  14.511
61320SOL     OW85856   4.655  12.594   3.623
61320SOL    HW185857   4.659  12.648   3.544
61320SOL    HW285858   4.666  12.504   3.592
61321SOL     OW85859   5.509  13.469   2.600
61321SOL    HW185860   5.513  13.390   2.547
61321SOL    HW285861   5.515  13.438   2.690
61322SOL     OW85862  14.355   2.012  14.787
61322SOL    HW185863  14.319   2.000   0.005
61322SOL    HW285864  14.309   1.947  14.733
61323SOL     OW85865  13.176   0.897   6.362
61323SOL    HW185866  13.104   0.960   6.353
61323SOL    HW285867  13.147   0.837   6.431
61324SOL     OW85868   4.353   3.969  12.023
61324SOL    HW185869   4.334   3.891  12.076
61324SOL    HW285870   4.350   4.042  12.086
61325SOL     OW85871  11.240   5.608   3.325
61325SOL    HW185872  11.152   5.571   3.315
61325SOL    HW285873  11.232   5.698   3.296
61326SOL     OW85874   0.676  14.563   2.631
61326SOL    HW185875   0.643  14.596   2.548
61326SOL    HW285876   0.617  14.599   2.697
61327SOL     OW85877   4.358  11.057  13.110
61327SOL    HW185878   4.311  10.988  13.063
61327SOL    HW285879   4.375  11.019  13.196
61328SOL     OW85880  12.750   7.054   6.605
61328SOL    HW185881  12.797   6.994   6.547
61328SOL    HW285882  12.749   7.010   6.690
61329SOL     OW85883  13.429   8.433   2.204
61329SOL    HW185884  13.426   8.515   2.253
61329SOL    HW285885  13.460   8.368   2.267
61330SOL     OW85886   8.075   0.151   0.498
61330SOL    HW185887   8.014   0.221   0.473
61330SOL    HW285888   8.141   0.195   0.552
61331SOL     OW85889  10.704  11.892   0.582
61331SOL    HW185890  10.684  11.980   0.551
61331SOL    HW285891  10.799  11.885   0.577
61332SOL     OW85892  14.367  10.004   2.519
61332SOL    HW185893  14.322  10.089   2.517
61332SOL    HW285894  14.296   9.940   2.527
61333SOL     OW85895  14.462  12.127   2.110
61333SOL    HW185896  14.465  12.210   2.063
61333SOL    HW285897  14.434  12.150   2.199
61334SOL     OW85898   6.416   6.760   7.040
61334SOL    HW185899   6.441   6.847   7.069
61334SOL    HW285900   6.323   6.767   7.020
61335SOL     OW85901  10.162   8.508   4.089
61335SOL    HW185902  10.151   8.512   4.184
61335SOL    HW285903  10.224   8.437   4.074
61336SOL     OW85904   7.047   5.963   3.161
61336SOL    HW185905   7.133   5.935   3.131
61336SOL    HW285906   7.044   5.938   3.253
61337SOL     OW85907   6.996   8.547   3.260
61337SOL    HW185908   7.021   8.471   3.313
61337SOL    HW285909   7.023   8.623   3.311
61338SOL     OW85910   1.917   2.574   2.447
61338SOL    HW185911   1.838   2.523   2.467
61338SOL    HW285912   1.886   2.646   2.392
61339SOL     OW85913   8.113  12.098   3.437
61339SOL    HW185914   8.113  12.003   3.424
61339SOL    HW285915   8.181  12.131   3.378
61340SOL     OW85916  14.234  11.164  12.798
61340SOL    HW185917  14.162  11.164  12.861
61340SOL    HW285918  14.259  11.072  12.791
61341SOL     OW85919   2.632   5.858   6.022
61341SOL    HW185920   2.567   5.908   5.973
61341SOL    HW285921   2.668   5.795   5.958
61342SOL     OW85922  13.912   4.130  10.854
61342SOL    HW185923  13.879   4.054  10.805
61342SOL    HW285924  14.004   4.109  10.871
61343SOL     OW85925   2.003  10.513   7.462
61343SOL    HW185926   1.922  10.473   7.492
61343SOL    HW285927   1.985  10.537   7.371
61344SOL     OW85928  14.221   8.988  14.772
61344SOL    HW185929  14.282   8.951  14.835
61344SOL    HW285930  14.215   8.922  14.703
61345SOL     OW85931  14.459   9.372   2.568
61345SOL    HW185932  14.437   9.453   2.616
61345SOL    HW285933  14.405   9.376   2.489
61346SOL     OW85934  14.427  11.226   1.404
61346SOL    HW185935  14.462  11.273   1.479
61346SOL    HW285936  14.390  11.294   1.347
61347SOL     OW85937   3.960  13.152   1.257
61347SOL    HW185938   4.036  13.107   1.293
61347SOL    HW285939   3.985  13.244   1.255
61348SOL     OW85940  14.055  10.559  11.515
61348SOL    HW185941  14.123  10.547  11.582
61348SOL    HW285942  14.003  10.479  11.519
61349SOL     OW85943   8.431  11.252   8.711
61349SOL    HW185944   8.471  11.332   8.746
61349SOL    HW285945   8.505  11.197   8.686
61350SOL     OW85946  10.977   4.838  11.338
61350SOL    HW185947  11.010   4.750  11.318
61350SOL    HW285948  10.993   4.889  11.259
61351SOL     OW85949  12.020  14.666   6.886
61351SOL    HW185950  12.111  14.698   6.889
61351SOL    HW285951  11.981  14.698   6.967
61352SOL     OW85952   5.845   4.137  14.711
61352SOL    HW185953   5.817   4.079  14.641
61352SOL    HW285954   5.902   4.201  14.668
61353SOL     OW85955   3.312  11.859   9.150
61353SOL    HW185956   3.377  11.929   9.149
61353SOL    HW285957   3.293  11.843   9.058
61354SOL     OW85958   1.361   7.290   2.254
61354SOL    HW185959   1.280   7.242   2.235
61354SOL    HW285960   1.380   7.270   2.346
61355SOL     OW85961   2.733  13.795  11.625
61355SOL    HW185962   2.766  13.819  11.538
61355SOL    HW285963   2.732  13.877  11.673
61356SOL     OW85964   2.428  11.772  11.589
61356SOL    HW185965   2.506  11.736  11.546
61356SOL    HW285966   2.365  11.786  11.519
61357SOL     OW85967   2.376   7.986  13.139
61357SOL    HW185968   2.457   8.025  13.172
61357SOL    HW285969   2.306   8.025  13.192
61358SOL     OW85970   2.525   6.726  14.266
61358SOL    HW185971   2.585   6.767  14.204
61358SOL    HW285972   2.472   6.798  14.300
61359SOL     OW85973   2.561   4.707   4.006
61359SOL    HW185974   2.496   4.647   4.041
61359SOL    HW285975   2.552   4.701   3.911
61360SOL     OW85976  11.981   4.199   2.472
61360SOL    HW185977  11.939   4.194   2.558
61360SOL    HW285978  11.924   4.149   2.414
61361SOL     OW85979   1.160  11.362  12.917
61361SOL    HW185980   1.149  11.304  12.842
61361SOL    HW285981   1.107  11.322  12.986
61362SOL     OW85982   6.268   0.081   0.610
61362SOL    HW185983   6.294   0.036   0.530
61362SOL    HW285984   6.285   0.174   0.591
61363SOL     OW85985   0.214   3.359  13.467
61363SOL    HW185986   0.208   3.363  13.562
61363SOL    HW285987   0.146   3.298  13.440
61364SOL     OW85988  12.690  12.842  13.153
61364SOL    HW185989  12.632  12.889  13.092
61364SOL    HW285990  12.770  12.826  13.102
61365SOL     OW85991  10.837   1.668  14.069
61365SOL    HW185992  10.931   1.650  14.073
61365SOL    HW285993  10.832   1.761  14.046
61366SOL     OW85994  13.515  10.056   5.978
61366SOL    HW185995  13.488  10.027   5.891
61366SOL    HW285996  13.534  10.149   5.968
61367SOL     OW85997   3.252   4.289  13.697
61367SOL    HW185998   3.308   4.322  13.768
61367SOL    HW285999   3.303   4.305  13.618
61368SOL     OW86000   5.043   1.714   3.765
61368SOL    HW186001   5.105   1.643   3.780
61368SOL    HW286002   5.077   1.760   3.688
61369SOL     OW86003   3.565   0.711   5.281
61369SOL    HW186004   3.508   0.732   5.354
61369SOL    HW286005   3.645   0.760   5.298
61370SOL     OW86006   7.057   5.005   9.625
61370SOL    HW186007   7.020   5.071   9.566
61370SOL    HW286008   7.117   4.955   9.571
61371SOL     OW86009   4.372   8.031   4.418
61371SOL    HW186010   4.349   7.965   4.352
61371SOL    HW286011   4.375   8.114   4.369
61372SOL     OW86012   2.098  13.786   4.225
61372SOL    HW186013   2.053  13.702   4.236
61372SOL    HW286014   2.053  13.828   4.152
61373SOL     OW86015   8.247   6.358  11.280
61373SOL    HW186016   8.283   6.327  11.363
61373SOL    HW286017   8.206   6.281  11.242
61374SOL     OW86018   2.103   5.651   6.452
61374SOL    HW186019   2.054   5.690   6.523
61374SOL    HW286020   2.046   5.583   6.417
61375SOL     OW86021  13.798   7.888  11.382
61375SOL    HW186022  13.816   7.804  11.425
61375SOL    HW286023  13.816   7.954  11.450
61376SOL     OW86024  14.329   9.321   2.284
61376SOL    HW186025  14.259   9.273   2.329
61376SOL    HW286026  14.308   9.310   2.191
61377SOL     OW86027   1.938   6.931  12.300
61377SOL    HW186028   1.988   6.900  12.225
61377SOL    HW286029   1.991   7.001  12.337
61378SOL     OW86030   1.907   5.357   0.584
61378SOL    HW186031   1.969   5.383   0.652
61378SOL    HW286032   1.821   5.362   0.626
61379SOL     OW86033  11.385   7.523   7.394
61379SOL    HW186034  11.393   7.535   7.489
61379SOL    HW286035  11.311   7.463   7.384
61380SOL     OW86036   4.351   2.603   6.598
61380SOL    HW186037   4.397   2.521   6.581
61380SOL    HW286038   4.391   2.638   6.677
61381SOL     OW86039   5.857  10.797  10.956
61381SOL    HW186040   5.766  10.807  10.926
61381SOL    HW286041   5.850  10.746  11.037
61382SOL     OW86042   0.996   1.603   9.716
61382SOL    HW186043   0.928   1.573   9.655
61382SOL    HW286044   0.991   1.698   9.712
61383SOL     OW86045  12.400   6.141  12.165
61383SOL    HW186046  12.434   6.202  12.231
61383SOL    HW286047  12.307   6.133  12.185
61384SOL     OW86048   3.800  11.463   7.615
61384SOL    HW186049   3.879  11.455   7.561
61384SOL    HW286050   3.727  11.459   7.552
61385SOL     OW86051   9.567   5.983   3.733
61385SOL    HW186052   9.581   6.038   3.656
61385SOL    HW286053   9.587   6.040   3.808
61386SOL     OW86054   0.769   1.980   1.053
61386SOL    HW186055   0.738   1.890   1.069
61386SOL    HW286056   0.844   1.990   1.111
61387SOL     OW86057   8.973   5.601   1.435
61387SOL    HW186058   8.933   5.674   1.482
61387SOL    HW286059   9.066   5.622   1.433
61388SOL     OW86060   1.683  12.466  14.052
61388SOL    HW186061   1.696  12.528  13.980
61388SOL    HW286062   1.684  12.380  14.010
61389SOL     OW86063  11.926   1.382   8.657
61389SOL    HW186064  11.914   1.322   8.730
61389SOL    HW286065  11.979   1.453   8.693
61390SOL     OW86066  14.274   5.331   8.408
61390SOL    HW186067  14.325   5.363   8.333
61390SOL    HW286068  14.185   5.320   8.373
61391SOL     OW86069   7.355   9.801   7.690
61391SOL    HW186070   7.343   9.744   7.614
61391SOL    HW286071   7.289   9.771   7.752
61392SOL     OW86072   8.154   1.928   5.603
61392SOL    HW186073   8.074   1.981   5.600
61392SOL    HW286074   8.202   1.952   5.524
61393SOL     OW86075  13.460  10.175  13.785
61393SOL    HW186076  13.409  10.236  13.731
61393SOL    HW286077  13.491  10.228  13.858
61394SOL     OW86078   0.660   5.713  14.466
61394SOL    HW186079   0.753   5.723  14.450
61394SOL    HW286080   0.647   5.745  14.556
61395SOL     OW86081  14.844   8.728   5.927
61395SOL    HW186082   0.040   8.786   5.888
61395SOL    HW286083  14.785   8.787   5.974
61396SOL     OW86084  11.725   9.729   2.978
61396SOL    HW186085  11.630   9.741   2.968
61396SOL    HW286086  11.761   9.817   2.968
61397SOL     OW86087   5.868  11.677   8.107
61397SOL    HW186088   5.961  11.677   8.084
61397SOL    HW286089   5.858  11.748   8.169
61398SOL     OW86090   1.309   1.002   2.389
61398SOL    HW186091   1.391   0.953   2.385
61398SOL    HW286092   1.270   0.990   2.302
61399SOL     OW86093   6.706  13.422   7.386
61399SOL    HW186094   6.753  13.500   7.415
61399SOL    HW286095   6.675  13.445   7.298
61400SOL     OW86096  13.247  12.098   2.115
61400SOL    HW186097  13.330  12.110   2.160
61400SOL    HW286098  13.215  12.013   2.145
61401SOL     OW86099   4.731   9.570   1.270
61401SOL    HW186100   4.663   9.521   1.224
61401SOL    HW286101   4.726   9.538   1.360
61402SOL     OW86102   9.194  10.674   4.678
61402SOL    HW186103   9.281  10.679   4.716
61402SOL    HW286104   9.138  10.724   4.738
61403SOL     OW86105  11.181   3.514   2.905
61403SOL    HW186106  11.213   3.424   2.903
61403SOL    HW286107  11.159   3.530   2.997
61404SOL     OW86108   1.172   1.210   4.568
61404SOL    HW186109   1.207   1.194   4.481
61404SOL    HW286110   1.210   1.294   4.594
61405SOL     OW86111   4.314   6.669   9.692
61405SOL    HW186112   4.365   6.626   9.761
61405SOL    HW286113   4.316   6.608   9.619
61406SOL     OW86114   6.837   7.527   5.357
61406SOL    HW186115   6.773   7.536   5.428
61406SOL    HW286116   6.786   7.541   5.277
61407SOL     OW86117   4.526  14.497   7.973
61407SOL    HW186118   4.499  14.575   7.925
61407SOL    HW286119   4.450  14.440   7.974
61408SOL     OW86120   5.593   0.905   9.605
61408SOL    HW186121   5.580   0.834   9.542
61408SOL    HW286122   5.664   0.874   9.662
61409SOL     OW86123   6.993   6.614   3.192
61409SOL    HW186124   7.054   6.603   3.119
61409SOL    HW286125   6.920   6.556   3.171
61410SOL     OW86126   8.602   5.218  14.224
61410SOL    HW186127   8.529   5.245  14.169
61410SOL    HW286128   8.582   5.254  14.311
61411SOL     OW86129  13.543  11.820   5.499
61411SOL    HW186130  13.583  11.785   5.578
61411SOL    HW286131  13.480  11.752   5.472
61412SOL     OW86132   9.559  10.321   3.431
61412SOL    HW186133   9.604  10.402   3.408
61412SOL    HW286134   9.527  10.286   3.347
61413SOL     OW86135  14.812   8.420  10.271
61413SOL    HW186136  14.733   8.413  10.217
61413SOL    HW286137  14.800   8.501  10.321
61414SOL     OW86138  13.801   1.465  11.320
61414SOL    HW186139  13.779   1.421  11.403
61414SOL    HW286140  13.720   1.509  11.295
61415SOL     OW86141   7.091   3.238   1.145
61415SOL    HW186142   7.148   3.252   1.220
61415SOL    HW286143   7.114   3.150   1.114
61416SOL     OW86144   4.642   1.209   4.463
61416SOL    HW186145   4.736   1.225   4.456
61416SOL    HW286146   4.634   1.113   4.464
61417SOL     OW86147   1.590  13.942   2.649
61417SOL    HW186148   1.575  14.026   2.606
61417SOL    HW286149   1.508  13.894   2.637
61418SOL     OW86150   1.984   6.842   8.928
61418SOL    HW186151   2.035   6.775   8.881
61418SOL    HW286152   2.035   6.922   8.916
61419SOL     OW86153   1.275   6.424  14.097
61419SOL    HW186154   1.264   6.407  14.191
61419SOL    HW286155   1.269   6.519  14.089
61420SOL     OW86156   3.050   0.439  14.473
61420SOL    HW186157   3.131   0.403  14.511
61420SOL    HW286158   3.053   0.411  14.382
61421SOL     OW86159   3.759   2.899   2.856
61421SOL    HW186160   3.712   2.941   2.929
61421SOL    HW286161   3.779   2.811   2.888
61422SOL     OW86162  12.582   2.504   3.283
61422SOL    HW186163  12.581   2.408   3.275
61422SOL    HW286164  12.568   2.536   3.194
61423SOL     OW86165  11.119   9.088  11.383
61423SOL    HW186166  11.074   9.147  11.322
61423SOL    HW286167  11.122   9.138  11.465
61424SOL     OW86168   7.297  11.862   1.906
61424SOL    HW186169   7.361  11.858   1.977
61424SOL    HW286170   7.219  11.819   1.942
61425SOL     OW86171   0.089   7.329  10.696
61425SOL    HW186172   0.078   7.413  10.652
61425SOL    HW286173   0.049   7.342  10.782
61426SOL     OW86174  11.468   7.527  11.461
61426SOL    HW186175  11.385   7.537  11.416
61426SOL    HW286176  11.499   7.617  11.476
61427SOL     OW86177  13.432   4.284  10.451
61427SOL    HW186178  13.375   4.241  10.388
61427SOL    HW286179  13.519   4.280  10.412
61428SOL     OW86180   0.514  13.406  11.617
61428SOL    HW186181   0.569  13.484  11.626
61428SOL    HW286182   0.537  13.351  11.692
61429SOL     OW86183   3.833  11.766   5.311
61429SOL    HW186184   3.774  11.834   5.342
61429SOL    HW286185   3.776  11.701   5.270
61430SOL     OW86186   4.106  10.295  11.662
61430SOL    HW186187   4.028  10.262  11.616
61430SOL    HW286188   4.164  10.325  11.592
61431SOL     OW86189  11.257   3.909  12.193
61431SOL    HW186190  11.300   3.920  12.108
61431SOL    HW286191  11.329   3.889  12.254
61432SOL     OW86192   1.442  12.535  10.829
61432SOL    HW186193   1.373  12.478  10.795
61432SOL    HW286194   1.409  12.564  10.914
61433SOL     OW86195   3.149   8.676  14.842
61433SOL    HW186196   3.140   8.771  14.846
61433SOL    HW286197   3.120   8.645   0.058
61434SOL     OW86198   0.735   7.365   6.651
61434SOL    HW186199   0.783   7.448   6.662
61434SOL    HW286200   0.737   7.325   6.738
61435SOL     OW86201  14.190  11.181   6.734
61435SOL    HW186202  14.236  11.255   6.694
61435SOL    HW286203  14.118  11.220   6.783
61436SOL     OW86204  10.508   7.706   2.225
61436SOL    HW186205  10.467   7.790   2.245
61436SOL    HW286206  10.558   7.685   2.304
61437SOL     OW86207   2.419  12.965   8.260
61437SOL    HW186208   2.413  13.036   8.196
61437SOL    HW286209   2.510  12.963   8.287
61438SOL     OW86210   2.989   4.455   1.590
61438SOL    HW186211   2.998   4.390   1.659
61438SOL    HW286212   2.894   4.463   1.576
61439SOL     OW86213  13.733   5.102   7.923
61439SOL    HW186214  13.783   5.046   7.982
61439SOL    HW286215  13.765   5.080   7.835
61440SOL     OW86216   8.154  14.023  13.265
61440SOL    HW186217   8.069  14.036  13.224
61440SOL    HW286218   8.134  14.008  13.358
61441SOL     OW86219  10.203  13.100   8.470
61441SOL    HW186220  10.166  13.063   8.550
61441SOL    HW286221  10.230  13.188   8.493
61442SOL     OW86222  14.149   2.412   4.719
61442SOL    HW186223  14.103   2.335   4.753
61442SOL    HW286224  14.131   2.411   4.626
61443SOL     OW86225  12.587   1.770   1.931
61443SOL    HW186226  12.591   1.716   2.010
61443SOL    HW286227  12.507   1.823   1.942
61444SOL     OW86228  10.331  11.587   8.604
61444SOL    HW186229  10.299  11.498   8.616
61444SOL    HW286230  10.313  11.630   8.688
61445SOL     OW86231   9.090   2.225  13.977
61445SOL    HW186232   9.159   2.169  14.013
61445SOL    HW286233   9.138   2.301  13.941
61446SOL     OW86234   0.846  14.732  11.467
61446SOL    HW186235   0.848  14.827  11.452
61446SOL    HW286236   0.848  14.694  11.379
61447SOL     OW86237  13.835   9.795   5.762
61447SOL    HW186238  13.807   9.733   5.695
61447SOL    HW286239  13.765   9.792   5.827
61448SOL     OW86240   8.281   1.132  14.607
61448SOL    HW186241   8.281   1.167  14.518
61448SOL    HW286242   8.313   1.042  14.597
61449SOL     OW86243   9.550  11.592   7.953
61449SOL    HW186244   9.571  11.557   7.866
61449SOL    HW286245   9.517  11.517   8.002
61450SOL     OW86246   8.108   7.378   0.797
61450SOL    HW186247   8.041   7.332   0.748
61450SOL    HW286248   8.191   7.351   0.756
61451SOL     OW86249   6.806  14.494   1.795
61451SOL    HW186250   6.787  14.520   1.886
61451SOL    HW286251   6.802  14.576   1.746
61452SOL     OW86252   2.294   5.156  10.444
61452SOL    HW186253   2.272   5.249  10.434
61452SOL    HW286254   2.363   5.141  10.379
61453SOL     OW86255  10.239   9.027  12.620
61453SOL    HW186256  10.215   8.947  12.666
61453SOL    HW286257  10.197   9.097  12.670
61454SOL     OW86258  13.269   5.054   1.821
61454SOL    HW186259  13.221   4.996   1.761
61454SOL    HW286260  13.264   5.140   1.779
61455SOL     OW86261   3.691   1.519   5.765
61455SOL    HW186262   3.758   1.560   5.711
61455SOL    HW286263   3.613   1.518   5.710
61456SOL     OW86264   1.561  13.419   5.754
61456SOL    HW186265   1.493  13.375   5.704
61456SOL    HW286266   1.518  13.497   5.790
61457SOL     OW86267   9.328   5.169   6.936
61457SOL    HW186268   9.264   5.176   7.007
61457SOL    HW286269   9.290   5.105   6.876
61458SOL     OW86270   8.967   5.298   0.637
61458SOL    HW186271   8.887   5.278   0.685
61458SOL    HW286272   9.037   5.283   0.701
61459SOL     OW86273   8.022   4.388   4.499
61459SOL    HW186274   8.011   4.482   4.512
61459SOL    HW286275   7.972   4.347   4.570
61460SOL     OW86276   6.397   3.759   3.957
61460SOL    HW186277   6.383   3.843   3.914
61460SOL    HW286278   6.311   3.733   3.990
61461SOL     OW86279  13.357   6.508  13.382
61461SOL    HW186280  13.318   6.428  13.346
61461SOL    HW286281  13.282   6.556  13.418
61462SOL     OW86282  11.729   8.867  13.748
61462SOL    HW186283  11.663   8.830  13.806
61462SOL    HW286284  11.698   8.846  13.660
61463SOL     OW86285  10.905   2.102  11.377
61463SOL    HW186286  10.835   2.108  11.312
61463SOL    HW286287  10.872   2.152  11.452
61464SOL     OW86288   1.678   9.733   7.129
61464SOL    HW186289   1.593   9.740   7.087
61464SOL    HW286290   1.661   9.690   7.213
61465SOL     OW86291   5.403   5.743  13.173
61465SOL    HW186292   5.472   5.789  13.221
61465SOL    HW286293   5.327   5.800  13.180
61466SOL     OW86294   7.536  13.747  14.010
61466SOL    HW186295   7.582  13.702  13.939
61466SOL    HW286296   7.460  13.691  14.028
61467SOL     OW86297  12.802   9.432  12.935
61467SOL    HW186298  12.882   9.382  12.922
61467SOL    HW286299  12.820   9.518  12.897
61468SOL     OW86300   1.848  10.082  13.065
61468SOL    HW186301   1.768  10.119  13.104
61468SOL    HW286302   1.885  10.027  13.134
61469SOL     OW86303  11.623   5.449   3.486
61469SOL    HW186304  11.563   5.518   3.514
61469SOL    HW286305  11.633   5.393   3.563
61470SOL     OW86306  14.233   4.299  11.235
61470SOL    HW186307  14.296   4.237  11.199
61470SOL    HW286308  14.286   4.368  11.275
61471SOL     OW86309   0.525   5.246   0.404
61471SOL    HW186310   0.571   5.328   0.391
61471SOL    HW286311   0.541   5.224   0.496
61472SOL     OW86312   3.189  11.202   2.042
61472SOL    HW186313   3.102  11.240   2.058
61472SOL    HW286314   3.247  11.278   2.038
61473SOL     OW86315   3.981   7.358  10.228
61473SOL    HW186316   4.010   7.429  10.171
61473SOL    HW286317   3.997   7.389  10.317
61474SOL     OW86318  12.575  14.523   4.855
61474SOL    HW186319  12.502  14.564   4.900
61474SOL    HW286320  12.538  14.493   4.772
61475SOL     OW86321   9.276   0.450  13.197
61475SOL    HW186322   9.359   0.473  13.156
61475SOL    HW286323   9.248   0.370  13.152
61476SOL     OW86324   6.820  13.230   4.780
61476SOL    HW186325   6.880  13.272   4.842
61476SOL    HW286326   6.873  13.160   4.740
61477SOL     OW86327   5.788   6.868   7.032
61477SOL    HW186328   5.805   6.923   6.955
61477SOL    HW286329   5.844   6.905   7.101
61478SOL     OW86330   0.568   8.937   2.055
61478SOL    HW186331   0.530   8.985   1.982
61478SOL    HW286332   0.574   9.000   2.126
61479SOL     OW86333   1.937  10.092  14.704
61479SOL    HW186334   1.883  10.031  14.755
61479SOL    HW286335   1.910  10.077  14.613
61480SOL     OW86336   2.529   0.922   9.219
61480SOL    HW186337   2.601   0.968   9.262
61480SOL    HW286338   2.450   0.961   9.255
61481SOL     OW86339  14.526  11.313  11.570
61481SOL    HW186340  14.586  11.386  11.584
61481SOL    HW286341  14.466  11.344  11.502
61482SOL     OW86342  12.108   7.194   7.356
61482SOL    HW186343  12.015   7.177   7.370
61482SOL    HW286344  12.150   7.108   7.366
61483SOL     OW86345  11.521  13.698   5.957
61483SOL    HW186346  11.563  13.728   5.876
61483SOL    HW286347  11.593  13.692   6.020
61484SOL     OW86348  14.819  10.242  14.328
61484SOL    HW186349   0.036  10.211  14.355
61484SOL    HW286350  14.759  10.204  14.393
61485SOL     OW86351   4.805  13.423  10.507
61485SOL    HW186352   4.823  13.337  10.546
61485SOL    HW286353   4.833  13.485  10.574
61486SOL     OW86354  10.630   1.568   5.998
61486SOL    HW186355  10.566   1.498   5.983
61486SOL    HW286356  10.640   1.611   5.913
61487SOL     OW86357   6.818   8.236  13.432
61487SOL    HW186358   6.913   8.229  13.429
61487SOL    HW286359   6.797   8.237  13.525
61488SOL     OW86360  10.775   3.508  14.688
61488SOL    HW186361  10.700   3.561  14.661
61488SOL    HW286362  10.782   3.523  14.783
61489SOL     OW86363  12.192   6.693   1.007
61489SOL    HW186364  12.269   6.749   1.022
61489SOL    HW286365  12.188   6.638   1.085
61490SOL     OW86366   5.823  10.237   3.781
61490SOL    HW186367   5.739  10.229   3.737
61490SOL    HW286368   5.869  10.157   3.760
61491SOL     OW86369  14.027   3.848   8.746
61491SOL    HW186370  13.986   3.807   8.669
61491SOL    HW286371  13.991   3.799   8.820
61492SOL     OW86372   6.852   7.361   0.552
61492SOL    HW186373   6.769   7.374   0.505
61492SOL    HW286374   6.827   7.331   0.638
61493SOL     OW86375   7.417   6.523   0.263
61493SOL    HW186376   7.454   6.539   0.176
61493SOL    HW286377   7.346   6.587   0.270
61494SOL     OW86378   6.180   5.288   4.407
61494SOL    HW186379   6.087   5.294   4.428
61494SOL    HW286380   6.187   5.321   4.318
61495SOL     OW86381   0.492   7.054   4.747
61495SOL    HW186382   0.555   6.993   4.709
61495SOL    HW286383   0.406   7.015   4.731
61496SOL     OW86384  13.226   1.260   8.791
61496SOL    HW186385  13.256   1.351   8.794
61496SOL    HW286386  13.306   1.208   8.782
61497SOL     OW86387   3.337  10.868   3.268
61497SOL    HW186388   3.419  10.858   3.220
61497SOL    HW286389   3.329  10.788   3.319
61498SOL     OW86390   4.869   2.634   2.988
61498SOL    HW186391   4.917   2.634   2.906
61498SOL    HW286392   4.937   2.630   3.056
61499SOL     OW86393   3.879  13.987   1.484
61499SOL    HW186394   3.832  14.040   1.420
61499SOL    HW286395   3.882  13.899   1.446
61500SOL     OW86396   0.538   3.312   7.698
61500SOL    HW186397   0.498   3.230   7.668
61500SOL    HW286398   0.533   3.307   7.794
61501SOL     OW86399  14.452  13.343  12.908
61501SOL    HW186400  14.446  13.435  12.883
61501SOL    HW286401  14.370  13.304  12.876
61502SOL     OW86402  10.848  14.759   4.170
61502SOL    HW186403  10.820  14.744   4.080
61502SOL    HW286404  10.805  14.841   4.195
61503SOL     OW86405   6.961  13.738  10.892
61503SOL    HW186406   7.031  13.701  10.838
61503SOL    HW286407   6.904  13.783  10.831
61504SOL     OW86408   9.556   1.217  11.575
61504SOL    HW186409   9.501   1.290  11.546
61504SOL    HW286410   9.580   1.172  11.494
61505SOL     OW86411   0.498   8.607  11.325
61505SOL    HW186412   0.442   8.653  11.387
61505SOL    HW286413   0.528   8.529  11.372
61506SOL     OW86414   7.794   1.710  10.347
61506SOL    HW186415   7.779   1.635  10.405
61506SOL    HW286416   7.884   1.737  10.366
61507SOL     OW86417   4.218  10.448  13.640
61507SOL    HW186418   4.258  10.505  13.706
61507SOL    HW286419   4.143  10.409  13.686
61508SOL     OW86420  13.111   9.023  14.249
61508SOL    HW186421  13.021   9.054  14.250
61508SOL    HW286422  13.106   8.931  14.276
61509SOL     OW86423   0.504  13.694   7.494
61509SOL    HW186424   0.503  13.611   7.543
61509SOL    HW286425   0.485  13.669   7.404
61510SOL     OW86426   7.070   4.117   9.257
61510SOL    HW186427   7.004   4.133   9.325
61510SOL    HW286428   7.153   4.144   9.298
61511SOL     OW86429  12.422   2.289   1.074
61511SOL    HW186430  12.328   2.272   1.086
61511SOL    HW286431  12.446   2.341   1.151
61512SOL     OW86432   3.215  11.867   8.657
61512SOL    HW186433   3.123  11.843   8.648
61512SOL    HW286434   3.261  11.808   8.598
61513SOL     OW86435   8.489  13.462   0.919
61513SOL    HW186436   8.556  13.409   0.875
61513SOL    HW286437   8.418  13.401   0.936
61514SOL     OW86438   7.453   7.347   2.095
61514SOL    HW186439   7.434   7.285   2.024
61514SOL    HW286440   7.406   7.427   2.070
61515SOL     OW86441  12.097   0.837  13.005
61515SOL    HW186442  12.086   0.759  13.059
61515SOL    HW286443  12.029   0.897  13.036
61516SOL     OW86444  12.372   2.809   7.105
61516SOL    HW186445  12.289   2.803   7.151
61516SOL    HW286446  12.366   2.744   7.034
61517SOL     OW86447  10.114   0.395   5.175
61517SOL    HW186448  10.173   0.450   5.124
61517SOL    HW286449  10.097   0.446   5.255
61518SOL     OW86450   3.639   3.337  13.103
61518SOL    HW186451   3.584   3.305  13.032
61518SOL    HW286452   3.577   3.374  13.166
61519SOL     OW86453   6.657   9.285   8.509
61519SOL    HW186454   6.729   9.339   8.541
61519SOL    HW286455   6.581   9.344   8.510
61520SOL     OW86456   6.304  12.541   8.329
61520SOL    HW186457   6.239  12.532   8.399
61520SOL    HW286458   6.293  12.461   8.276
61521SOL     OW86459   0.766  11.413  13.486
61521SOL    HW186460   0.852  11.444  13.460
61521SOL    HW286461   0.716  11.493  13.504
61522SOL     OW86462   1.965  14.550   7.280
61522SOL    HW186463   1.915  14.624   7.316
61522SOL    HW286464   1.929  14.474   7.326
61523SOL     OW86465  14.848  13.253  14.468
61523SOL    HW186466  14.786  13.309  14.513
61523SOL    HW286467   0.045  13.313  14.433
61524SOL     OW86468   5.220   2.239   1.610
61524SOL    HW186469   5.253   2.255   1.699
61524SOL    HW286470   5.130   2.210   1.624
61525SOL     OW86471  13.295   1.888   2.796
61525SOL    HW186472  13.223   1.940   2.761
61525SOL    HW286473  13.297   1.910   2.890
61526SOL     OW86474  12.692   1.567   0.680
61526SOL    HW186475  12.610   1.552   0.726
61526SOL    HW286476  12.736   1.635   0.730
61527SOL     OW86477   1.630   0.084   4.376
61527SOL    HW186478   1.712   0.098   4.327
61527SOL    HW286479   1.585   0.168   4.372
61528SOL     OW86480   5.502   8.418   5.472
61528SOL    HW186481   5.461   8.396   5.389
61528SOL    HW286482   5.535   8.335   5.506
61529SOL     OW86483  14.407  13.916  14.683
61529SOL    HW186484  14.341  13.873  14.629
61529SOL    HW286485  14.386  14.009  14.677
61530SOL     OW86486   4.539   6.400   1.550
61530SOL    HW186487   4.447   6.380   1.569
61530SOL    HW286488   4.536   6.452   1.469
61531SOL     OW86489  12.868   5.177  11.131
61531SOL    HW186490  12.829   5.245  11.076
61531SOL    HW286491  12.962   5.197  11.131
61532SOL     OW86492   1.696   7.925  13.280
61532SOL    HW186493   1.785   7.946  13.251
61532SOL    HW286494   1.673   7.996  13.340
61533SOL     OW86495   5.618   3.689  11.971
61533SOL    HW186496   5.568   3.659  12.046
61533SOL    HW286497   5.656   3.609  11.934
61534SOL     OW86498   4.488  12.023   6.221
61534SOL    HW186499   4.398  11.992   6.216
61534SOL    HW286500   4.533  11.977   6.151
61535SOL     OW86501  11.525   7.471   9.091
61535SOL    HW186502  11.531   7.379   9.068
61535SOL    HW286503  11.555   7.518   9.013
61536SOL     OW86504   4.422   7.876  10.909
61536SOL    HW186505   4.444   7.938  10.840
61536SOL    HW286506   4.341   7.909  10.947
61537SOL     OW86507   8.481  12.002  14.487
61537SOL    HW186508   8.462  12.055  14.565
61537SOL    HW286509   8.396  11.989  14.446
61538SOL     OW86510   7.561   4.523   8.285
61538SOL    HW186511   7.609   4.606   8.283
61538SOL    HW286512   7.584   4.480   8.203
61539SOL     OW86513   2.628   9.580  12.437
61539SOL    HW186514   2.584   9.641  12.496
61539SOL    HW286515   2.661   9.634  12.366
61540SOL     OW86516   3.180   2.064   3.074
61540SOL    HW186517   3.092   2.094   3.053
61540SOL    HW286518   3.224   2.141   3.110
61541SOL     OW86519   6.715   3.990   8.845
61541SOL    HW186520   6.789   4.048   8.863
61541SOL    HW286521   6.687   3.960   8.932
61542SOL     OW86522   5.635   0.563   7.240
61542SOL    HW186523   5.555   0.514   7.224
61542SOL    HW286524   5.624   0.600   7.327
61543SOL     OW86525   6.402   2.314  12.695
61543SOL    HW186526   6.463   2.332  12.766
61543SOL    HW286527   6.316   2.340  12.730
61544SOL     OW86528   9.907  13.002  13.099
61544SOL    HW186529   9.880  13.046  13.180
61544SOL    HW286530   9.858  12.919  13.100
61545SOL     OW86531  11.551  14.045   7.734
61545SOL    HW186532  11.605  14.101   7.789
61545SOL    HW286533  11.509  14.105   7.672
61546SOL     OW86534  14.020  14.865   7.205
61546SOL    HW186535  13.963   0.032   7.137
61546SOL    HW286536  14.022  14.771   7.186
61547SOL     OW86537   7.173   3.588  12.327
61547SOL    HW186538   7.131   3.512  12.285
61547SOL    HW286539   7.183   3.561  12.419
61548SOL     OW86540   9.176  10.284   5.530
61548SOL    HW186541   9.174  10.302   5.624
61548SOL    HW286542   9.231  10.206   5.522
61549SOL     OW86543  11.912   5.190   0.028
61549SOL    HW186544  11.937   5.154   0.113
61549SOL    HW286545  11.992   5.232  14.864
61550SOL     OW86546   8.383   7.573  13.370
61550SOL    HW186547   8.343   7.617  13.445
61550SOL    HW286548   8.434   7.501  13.409
61551SOL     OW86549  14.348  12.605   3.632
61551SOL    HW186550  14.378  12.692   3.659
61551SOL    HW286551  14.271  12.589   3.685
61552SOL     OW86552  12.708   1.019  12.742
61552SOL    HW186553  12.801   1.022  12.764
61552SOL    HW286554  12.704   0.968  12.662
61553SOL     OW86555   2.400   1.314   1.356
61553SOL    HW186556   2.488   1.323   1.393
61553SOL    HW286557   2.344   1.363   1.416
61554SOL     OW86558  13.539   5.776  10.667
61554SOL    HW186559  13.564   5.751  10.756
61554SOL    HW286560  13.526   5.871  10.672
61555SOL     OW86561  10.170  14.614   3.667
61555SOL    HW186562  10.107  14.548   3.694
61555SOL    HW286563  10.120  14.696   3.665
61556SOL     OW86564   4.895   4.457  14.002
61556SOL    HW186565   4.978   4.503  14.019
61556SOL    HW286566   4.858   4.442  14.089
61557SOL     OW86567  10.915   0.962  10.996
61557SOL    HW186568  10.935   0.993  11.084
61557SOL    HW286569  10.979   0.893  10.979
61558SOL     OW86570   0.911  13.127  11.400
61558SOL    HW186571   0.862  13.046  11.386
61558SOL    HW286572   0.925  13.162  11.313
61559SOL     OW86573  10.282  13.484   9.202
61559SOL    HW186574  10.217  13.425   9.240
61559SOL    HW286575  10.250  13.501   9.114
61560SOL     OW86576  12.543   4.386  11.308
61560SOL    HW186577  12.609   4.317  11.304
61560SOL    HW286578  12.583   4.455  11.360
61561SOL     OW86579  14.274  14.330   3.130
61561SOL    HW186580  14.365  14.352   3.152
61561SOL    HW286581  14.256  14.251   3.181
61562SOL     OW86582   3.079  14.441   3.513
61562SOL    HW186583   3.160  14.480   3.480
61562SOL    HW286584   3.096  14.424   3.605
61563SOL     OW86585  11.609  13.278   9.647
61563SOL    HW186586  11.632  13.195   9.688
61563SOL    HW286587  11.584  13.254   9.558
61564SOL     OW86588   2.406   7.175   9.898
61564SOL    HW186589   2.334   7.123   9.934
61564SOL    HW286590   2.369   7.215   9.819
61565SOL     OW86591   5.576  10.441   6.115
61565SOL    HW186592   5.486  10.460   6.089
61565SOL    HW286593   5.611  10.387   6.045
61566SOL     OW86594   8.772  10.416  10.904
61566SOL    HW186595   8.703  10.477  10.929
61566SOL    HW286596   8.837  10.424  10.974
61567SOL     OW86597   2.692   7.575  11.667
61567SOL    HW186598   2.770   7.538  11.707
61567SOL    HW286599   2.715   7.585  11.574
61568SOL     OW86600   5.372   0.358   1.346
61568SOL    HW186601   5.466   0.357   1.328
61568SOL    HW286602   5.366   0.360   1.442
61569SOL     OW86603   2.990   2.377   9.005
61569SOL    HW186604   3.062   2.434   9.030
61569SOL    HW286605   2.962   2.336   9.088
61570SOL     OW86606   0.367   8.841   6.233
61570SOL    HW186607   0.379   8.791   6.314
61570SOL    HW286608   0.339   8.928   6.263
61571SOL     OW86609   2.487  10.395   5.366
61571SOL    HW186610   2.404  10.402   5.412
61571SOL    HW286611   2.530  10.479   5.384
61572SOL     OW86612   5.062   9.120   8.977
61572SOL    HW186613   5.125   9.139   8.907
61572SOL    HW286614   4.979   9.157   8.946
61573SOL     OW86615   2.215   7.945   6.347
61573SOL    HW186616   2.156   7.913   6.415
61573SOL    HW286617   2.282   7.877   6.339
61574SOL     OW86618   8.912  12.687  13.206
61574SOL    HW186619   8.833  12.645  13.240
61574SOL    HW286620   8.984  12.638  13.246
61575SOL     OW86621   0.627   7.936  10.881
61575SOL    HW186622   0.623   7.992  10.804
61575SOL    HW286623   0.543   7.889  10.882
61576SOL     OW86624   0.329   6.585   7.866
61576SOL    HW186625   0.325   6.650   7.796
61576SOL    HW286626   0.273   6.619   7.935
61577SOL     OW86627   5.279   5.274  12.810
61577SOL    HW186628   5.339   5.223  12.755
61577SOL    HW286629   5.249   5.345  12.752
61578SOL     OW86630  13.836  12.533   0.407
61578SOL    HW186631  13.852  12.625   0.383
61578SOL    HW286632  13.807  12.537   0.499
61579SOL     OW86633  10.225   4.969   2.370
61579SOL    HW186634  10.318   4.971   2.395
61579SOL    HW286635  10.178   4.985   2.452
61580SOL     OW86636   0.324  14.574  11.983
61580SOL    HW186637   0.379  14.504  12.017
61580SOL    HW286638   0.295  14.543  11.897
61581SOL     OW86639   6.350   4.561   0.872
61581SOL    HW186640   6.310   4.474   0.880
61581SOL    HW286641   6.440   4.544   0.845
61582SOL     OW86642   7.277   7.317   2.724
61582SOL    HW186643   7.296   7.398   2.770
61582SOL    HW286644   7.195   7.335   2.677
61583SOL     OW86645   4.972  14.507   3.923
61583SOL    HW186646   5.049  14.450   3.925
61583SOL    HW286647   4.900  14.450   3.949
61584SOL     OW86648   5.399   6.922   8.617
61584SOL    HW186649   5.379   6.901   8.526
61584SOL    HW286650   5.395   7.018   8.621
61585SOL     OW86651   2.547   1.993   9.100
61585SOL    HW186652   2.490   1.917   9.087
61585SOL    HW286653   2.590   2.006   9.016
61586SOL     OW86654   7.359  14.242  14.423
61586SOL    HW186655   7.303  14.240  14.501
61586SOL    HW286656   7.448  14.238  14.458
61587SOL     OW86657   3.271   9.375  14.272
61587SOL    HW186658   3.262   9.292  14.224
61587SOL    HW286659   3.284   9.348  14.363
61588SOL     OW86660   2.216   9.952   9.832
61588SOL    HW186661   2.221   9.903   9.751
61588SOL    HW286662   2.239  10.042   9.807
61589SOL     OW86663   9.123  13.647   6.923
61589SOL    HW186664   9.198  13.706   6.922
61589SOL    HW286665   9.047  13.703   6.906
61590SOL     OW86666  11.149  10.889   2.474
61590SOL    HW186667  11.058  10.861   2.483
61590SOL    HW286668  11.197  10.809   2.455
61591SOL     OW86669   3.997  10.385   8.562
61591SOL    HW186670   3.977  10.313   8.622
61591SOL    HW286671   4.072  10.354   8.511
61592SOL     OW86672   1.245   4.006  10.838
61592SOL    HW186673   1.290   3.933  10.794
61592SOL    HW286674   1.155   4.001  10.806
61593SOL     OW86675  12.244   9.212  14.691
61593SOL    HW186676  12.233   9.287  14.633
61593SOL    HW286677  12.254   9.137  14.632
61594SOL     OW86678  11.323   0.494  13.377
61594SOL    HW186679  11.234   0.529  13.372
61594SOL    HW286680  11.375   0.555  13.325
61595SOL     OW86681   9.605   8.850   7.340
61595SOL    HW186682   9.691   8.874   7.306
61595SOL    HW286683   9.590   8.910   7.413
61596SOL     OW86684   9.672   6.185   5.641
61596SOL    HW186685   9.688   6.093   5.661
61596SOL    HW286686   9.594   6.184   5.585
61597SOL     OW86687   3.254   3.146   7.981
61597SOL    HW186688   3.232   3.170   8.071
61597SOL    HW286689   3.344   3.177   7.970
61598SOL     OW86690   9.305   2.900  11.073
61598SOL    HW186691   9.339   2.935  11.156
61598SOL    HW286692   9.381   2.859  11.032
61599SOL     OW86693   0.343  14.798  10.488
61599SOL    HW186694   0.309   0.001  10.435
61599SOL    HW286695   0.286  14.797  10.565
61600SOL     OW86696  10.444  12.572   7.006
61600SOL    HW186697  10.367  12.519   7.023
61600SOL    HW286698  10.517  12.511   7.010
61601SOL     OW86699   0.028   3.049   0.585
61601SOL    HW186700   0.035   2.971   0.641
61601SOL    HW286701  14.811   3.085   0.605
61602SOL     OW86702  13.866   5.217   4.830
61602SOL    HW186703  13.938   5.280   4.823
61602SOL    HW286704  13.867   5.169   4.747
61603SOL     OW86705  14.291   0.075  12.615
61603SOL    HW186706  14.310   0.010  12.548
61603SOL    HW286707  14.296   0.027  12.698
61604SOL     OW86708  10.419   6.052   5.298
61604SOL    HW186709  10.466   6.086   5.374
61604SOL    HW286710  10.406   6.128   5.241
61605SOL     OW86711   4.639   3.692   0.860
61605SOL    HW186712   4.715   3.733   0.820
61605SOL    HW286713   4.566   3.713   0.802
61606SOL     OW86714   6.758   4.991  10.414
61606SOL    HW186715   6.834   5.046  10.429
61606SOL    HW286716   6.703   5.004  10.491
61607SOL     OW86717   1.334  10.501   0.005
61607SOL    HW186718   1.413  10.504   0.059
61607SOL    HW286719   1.353  10.560  14.801
61608SOL     OW86720   1.372   7.216   9.302
61608SOL    HW186721   1.411   7.272   9.370
61608SOL    HW286722   1.317   7.275   9.251
61609SOL     OW86723   2.364   7.089   1.238
61609SOL    HW186724   2.340   7.180   1.253
61609SOL    HW286725   2.458   7.091   1.222
61610SOL     OW86726  10.693   2.320   0.498
61610SOL    HW186727  10.764   2.358   0.447
61610SOL    HW286728  10.681   2.233   0.462
61611SOL     OW86729   3.246   2.399  10.471
61611SOL    HW186730   3.306   2.336  10.512
61611SOL    HW286731   3.204   2.349  10.401
61612SOL     OW86732  13.167   3.943  13.167
61612SOL    HW186733  13.139   3.854  13.144
61612SOL    HW286734  13.087   3.985  13.199
61613SOL     OW86735   2.703   0.682   4.946
61613SOL    HW186736   2.659   0.743   5.004
61613SOL    HW286737   2.716   0.603   4.999
61614SOL     OW86738   4.533   9.866   1.387
61614SOL    HW186739   4.583   9.915   1.321
61614SOL    HW286740   4.491   9.795   1.337
61615SOL     OW86741   6.726   6.535   7.064
61615SOL    HW186742   6.671   6.542   6.985
61615SOL    HW286743   6.721   6.621   7.104
61616SOL     OW86744   4.334   7.195   0.746
61616SOL    HW186745   4.322   7.139   0.669
61616SOL    HW286746   4.387   7.143   0.806
61617SOL     OW86747  13.161  12.000   9.504
61617SOL    HW186748  13.237  11.984   9.561
61617SOL    HW286749  13.149  11.917   9.457
61618SOL     OW86750   6.091  14.572  10.723
61618SOL    HW186751   6.085  14.547  10.816
61618SOL    HW286752   6.066  14.492  10.676
61619SOL     OW86753  14.501   6.533  10.656
61619SOL    HW186754  14.469   6.445  10.637
61619SOL    HW286755  14.456   6.590  10.593
61620SOL     OW86756   3.121  12.315   7.374
61620SOL    HW186757   3.097  12.308   7.467
61620SOL    HW286758   3.095  12.404   7.350
61621SOL     OW86759  12.580  12.033   1.073
61621SOL    HW186760  12.624  12.091   1.011
61621SOL    HW286761  12.533  12.093   1.132
61622SOL     OW86762   9.190   8.487  10.719
61622SOL    HW186763   9.155   8.403  10.747
61622SOL    HW286764   9.139   8.552  10.768
61623SOL     OW86765   6.384   0.926   0.939
61623SOL    HW186766   6.322   0.860   0.908
61623SOL    HW286767   6.470   0.884   0.931
61624SOL     OW86768   8.494  14.339   9.907
61624SOL    HW186769   8.531  14.395   9.839
61624SOL    HW286770   8.419  14.296   9.866
61625SOL     OW86771  12.518  12.513   3.711
61625SOL    HW186772  12.539  12.431   3.667
61625SOL    HW286773  12.438  12.495   3.760
61626SOL     OW86774   2.184  13.733  13.602
61626SOL    HW186775   2.177  13.756  13.509
61626SOL    HW286776   2.137  13.650  13.610
61627SOL     OW86777   3.352   0.625  14.658
61627SOL    HW186778   3.441   0.595  14.637
61627SOL    HW286779   3.295   0.554  14.628
61628SOL     OW86780   4.998   5.964   9.332
61628SOL    HW186781   4.972   5.876   9.304
61628SOL    HW286782   5.025   5.953   9.423
61629SOL     OW86783   1.605   6.525  13.985
61629SOL    HW186784   1.530   6.553  13.933
61629SOL    HW286785   1.652   6.463  13.930
61630SOL     OW86786   0.573   8.420   1.345
61630SOL    HW186787   0.609   8.370   1.273
61630SOL    HW286788   0.563   8.509   1.310
61631SOL     OW86789   3.946  14.185  11.649
61631SOL    HW186790   3.904  14.100  11.652
61631SOL    HW286791   3.967  14.204  11.741
61632SOL     OW86792   5.234   2.779   7.250
61632SOL    HW186793   5.324   2.747   7.242
61632SOL    HW286794   5.189   2.714   7.304
61633SOL     OW86795  13.406  10.187   0.281
61633SOL    HW186796  13.313  10.202   0.299
61633SOL    HW286797  13.420  10.225   0.194
61634SOL     OW86798   7.998   3.120   7.037
61634SOL    HW186799   8.062   3.120   6.966
61634SOL    HW286800   7.929   3.179   7.006
61635SOL     OW86801   5.469  12.225   5.920
61635SOL    HW186802   5.543  12.177   5.884
61635SOL    HW286803   5.500  12.315   5.929
61636SOL     OW86804  10.306   4.870   1.784
61636SOL    HW186805  10.272   4.940   1.727
61636SOL    HW286806  10.235   4.853   1.846
61637SOL     OW86807   3.646   3.075  13.932
61637SOL    HW186808   3.602   3.034  14.006
61637SOL    HW286809   3.689   3.002  13.886
61638SOL     OW86810   1.935   0.888   1.115
61638SOL    HW186811   1.955   0.817   1.175
61638SOL    HW286812   1.862   0.935   1.156
61639SOL     OW86813   7.339   8.768  10.250
61639SOL    HW186814   7.393   8.727  10.318
61639SOL    HW286815   7.341   8.862  10.271
61640SOL     OW86816  13.135  13.840   6.886
61640SOL    HW186817  13.147  13.747   6.867
61640SOL    HW286818  13.097  13.876   6.806
61641SOL     OW86819   8.981  14.255   5.692
61641SOL    HW186820   8.911  14.317   5.671
61641SOL    HW286821   9.060  14.308   5.691
61642SOL     OW86822  10.627   3.401   9.560
61642SOL    HW186823  10.561   3.388   9.628
61642SOL    HW286824  10.586   3.459   9.496
61643SOL     OW86825  11.548   2.224   5.163
61643SOL    HW186826  11.537   2.282   5.088
61643SOL    HW286827  11.622   2.261   5.212
61644SOL     OW86828  13.313   4.308   9.816
61644SOL    HW186829  13.308   4.390   9.767
61644SOL    HW286830  13.366   4.329   9.893
61645SOL     OW86831  10.804  10.610   0.678
61645SOL    HW186832  10.776  10.545   0.744
61645SOL    HW286833  10.763  10.692   0.707
61646SOL     OW86834   6.671  12.130   0.078
61646SOL    HW186835   6.690  12.194   0.147
61646SOL    HW286836   6.756  12.095   0.053
61647SOL     OW86837   1.548  11.994   5.156
61647SOL    HW186838   1.481  11.930   5.179
61647SOL    HW286839   1.601  12.003   5.236
61648SOL     OW86840  13.869   5.200  11.544
61648SOL    HW186841  13.956   5.217  11.581
61648SOL    HW286842  13.887   5.164  11.457
61649SOL     OW86843   7.629   8.480  11.426
61649SOL    HW186844   7.549   8.508  11.382
61649SOL    HW286845   7.698   8.494  11.361
61650SOL     OW86846   4.160   5.098   6.266
61650SOL    HW186847   4.156   5.059   6.179
61650SOL    HW286848   4.095   5.049   6.317
61651SOL     OW86849   5.655   9.053   4.742
61651SOL    HW186850   5.666   8.984   4.677
61651SOL    HW286851   5.584   9.107   4.707
61652SOL     OW86852   6.022  14.477   0.497
61652SOL    HW186853   5.937  14.437   0.515
61652SOL    HW286854   6.077  14.404   0.468
61653SOL     OW86855   0.784   8.321  12.002
61653SOL    HW186856   0.705   8.267  12.010
61653SOL    HW286857   0.850   8.262  11.965
61654SOL     OW86858   3.876   4.800   1.277
61654SOL    HW186859   3.782   4.808   1.261
61654SOL    HW286860   3.914   4.882   1.244
61655SOL     OW86861   2.208   4.334  13.737
61655SOL    HW186862   2.217   4.413  13.684
61655SOL    HW286863   2.114   4.323  13.749
61656SOL     OW86864  10.778  10.017  12.615
61656SOL    HW186865  10.731  10.076  12.556
61656SOL    HW286866  10.748  10.040  12.702
61657SOL     OW86867   9.803  10.932   7.167
61657SOL    HW186868   9.893  10.907   7.145
61657SOL    HW286869   9.750  10.857   7.140
61658SOL     OW86870   9.282   2.946   2.096
61658SOL    HW186871   9.340   2.956   2.021
61658SOL    HW286872   9.318   2.872   2.145
61659SOL     OW86873   5.654   4.583   3.786
61659SOL    HW186874   5.598   4.659   3.779
61659SOL    HW286875   5.597   4.514   3.820
61660SOL     OW86876  13.980   4.875   8.020
61660SOL    HW186877  14.070   4.882   8.051
61660SOL    HW286878  13.986   4.823   7.940
61661SOL     OW86879   5.798  12.456  10.818
61661SOL    HW186880   5.828  12.501  10.739
61661SOL    HW286881   5.748  12.382  10.785
61662SOL     OW86882   0.867  10.903  10.440
61662SOL    HW186883   0.832  10.959  10.510
61662SOL    HW286884   0.798  10.905  10.373
61663SOL     OW86885  10.652  13.960  10.529
61663SOL    HW186886  10.625  13.875  10.494
61663SOL    HW286887  10.722  13.990  10.471
61664SOL     OW86888   0.397   4.784   4.664
61664SOL    HW186889   0.303   4.777   4.652
61664SOL    HW286890   0.431   4.795   4.575
61665SOL     OW86891  11.443   4.062  14.820
61665SOL    HW186892  11.523   4.113  14.817
61665SOL    HW286893  11.392   4.101   0.021
61666SOL     OW86894  11.339  13.827  14.412
61666SOL    HW186895  11.423  13.782  14.419
61666SOL    HW286896  11.361  13.919  14.400
61667SOL     OW86897   2.556  13.233   6.431
61667SOL    HW186898   2.545  13.233   6.526
61667SOL    HW286899   2.477  13.276   6.398
61668SOL     OW86900  13.089   6.603  13.959
61668SOL    HW186901  13.146   6.657  14.014
61668SOL    HW286902  13.149   6.564  13.895
61669SOL     OW86903  12.798   9.118   6.294
61669SOL    HW186904  12.782   9.167   6.213
61669SOL    HW286905  12.782   9.181   6.364
61670SOL     OW86906   2.060   1.778  10.250
61670SOL    HW186907   2.013   1.699  10.275
61670SOL    HW286908   2.011   1.849  10.290
61671SOL     OW86909  11.803   1.580   0.128
61671SOL    HW186910  11.765   1.666   0.146
61671SOL    HW286911  11.760   1.521   0.190
61672SOL     OW86912  12.209   5.142   5.260
61672SOL    HW186913  12.170   5.144   5.173
61672SOL    HW286914  12.260   5.223   5.266
61673SOL     OW86915   4.632  10.031  10.415
61673SOL    HW186916   4.544  10.061  10.438
61673SOL    HW286917   4.648  10.067  10.328
61674SOL     OW86918  12.516  11.507   0.083
61674SOL    HW186919  12.476  11.562   0.150
61674SOL    HW286920  12.577  11.565   0.037
61675SOL     OW86921  14.855  13.885  12.470
61675SOL    HW186922  14.855  13.801  12.423
61675SOL    HW286923  14.813  13.866  12.554
61676SOL     OW86924  13.780  13.422   1.878
61676SOL    HW186925  13.837  13.498   1.879
61676SOL    HW286926  13.691  13.458   1.883
61677SOL     OW86927   1.360   1.130   2.078
61677SOL    HW186928   1.296   1.194   2.046
61677SOL    HW286929   1.423   1.182   2.127
61678SOL     OW86930  12.849   5.115   1.905
61678SOL    HW186931  12.773   5.091   1.851
61678SOL    HW286932  12.877   5.199   1.869
61679SOL     OW86933  13.268  13.995   7.106
61679SOL    HW186934  13.216  14.004   7.186
61679SOL    HW286935  13.203  13.986   7.036
61680SOL     OW86936   6.810  10.827   9.023
61680SOL    HW186937   6.857  10.764   9.077
61680SOL    HW286938   6.729  10.782   8.999
61681SOL     OW86939   0.462   4.116   5.342
61681SOL    HW186940   0.543   4.143   5.299
61681SOL    HW286941   0.393   4.165   5.297
61682SOL     OW86942   5.048   7.451  12.541
61682SOL    HW186943   4.985   7.436  12.612
61682SOL    HW286944   5.070   7.363  12.509
61683SOL     OW86945   6.485   4.374   0.176
61683SOL    HW186946   6.544   4.353   0.248
61683SOL    HW286947   6.511   4.314   0.106
61684SOL     OW86948   0.870  10.080   1.293
61684SOL    HW186949   0.891  10.048   1.205
61684SOL    HW286950   0.955  10.104   1.331
61685SOL     OW86951  12.240  14.555  14.059
61685SOL    HW186952  12.176  14.546  13.988
61685SOL    HW286953  12.320  14.517  14.025
61686SOL     OW86954   6.790   1.234  14.729
61686SOL    HW186955   6.785   1.164  14.794
61686SOL    HW286956   6.852   1.297  14.765
61687SOL     OW86957  13.761   5.189   0.337
61687SOL    HW186958  13.776   5.139   0.417
61687SOL    HW286959  13.838   5.172   0.283
61688SOL     OW86960   9.352  11.949   8.330
61688SOL    HW186961   9.430  11.968   8.279
61688SOL    HW286962   9.374  11.976   8.419
61689SOL     OW86963   1.213   1.970   5.850
61689SOL    HW186964   1.149   2.037   5.870
61689SOL    HW286965   1.187   1.936   5.765
61690SOL     OW86966  11.339   5.901   0.322
61690SOL    HW186967  11.408   5.956   0.286
61690SOL    HW286968  11.366   5.812   0.301
61691SOL     OW86969   3.869  10.555  14.107
61691SOL    HW186970   3.856  10.572  14.013
61691SOL    HW286971   3.952  10.508  14.112
61692SOL     OW86972  11.003   9.251   0.028
61692SOL    HW186973  10.986   9.290   0.114
61692SOL    HW286974  11.095   9.226   0.031
61693SOL     OW86975   3.761   0.152  13.969
61693SOL    HW186976   3.737   0.244  13.986
61693SOL    HW286977   3.833   0.135  14.029
61694SOL     OW86978   0.521   9.050   8.269
61694SOL    HW186979   0.445   9.107   8.255
61694SOL    HW286980   0.494   8.991   8.339
61695SOL     OW86981  10.812  11.488   4.879
61695SOL    HW186982  10.805  11.569   4.931
61695SOL    HW286983  10.828  11.519   4.790
61696SOL     OW86984   9.050   6.873  11.024
61696SOL    HW186985   9.111   6.937  10.986
61696SOL    HW286986   9.102   6.826  11.088
61697SOL     OW86987   4.312   2.670   8.371
61697SOL    HW186988   4.329   2.576   8.363
61697SOL    HW286989   4.217   2.677   8.374
61698SOL     OW86990   8.221   4.311  11.283
61698SOL    HW186991   8.217   4.346  11.194
61698SOL    HW286992   8.303   4.345  11.319
61699SOL     OW86993  11.549   7.687  13.772
61699SOL    HW186994  11.602   7.732  13.838
61699SOL    HW286995  11.540   7.597  13.806
61700SOL     OW86996   6.099   9.867   3.388
61700SOL    HW186997   6.169   9.817   3.431
61700SOL    HW286998   6.030   9.802   3.371
61701SOL     OW86999   2.153   0.608  11.873
61701SOL    HW187000   2.129   0.677  11.811
61701SOL    HW287001   2.137   0.647  11.959
61702SOL     OW87002  10.268   4.649  11.336
61702SOL    HW187003  10.321   4.689  11.405
61702SOL    HW287004  10.209   4.719  11.307
61703SOL     OW87005  13.142   9.874   1.876
61703SOL    HW187006  13.052   9.840   1.870
61703SOL    HW287007  13.179   9.830   1.952
61704SOL     OW87008   3.208   6.924   0.381
61704SOL    HW187009   3.264   6.859   0.423
61704SOL    HW287010   3.187   6.986   0.451
61705SOL     OW87011   8.857  11.373  13.954
61705SOL    HW187012   8.864  11.453  13.902
61705SOL    HW287013   8.818  11.401  14.036
61706SOL     OW87014  13.026   6.459   8.477
61706SOL    HW187015  12.969   6.535   8.492
61706SOL    HW287016  12.992   6.391   8.534
61707SOL     OW87017   9.359   1.478   0.604
61707SOL    HW187018   9.308   1.534   0.663
61707SOL    HW287019   9.448   1.513   0.610
61708SOL     OW87020   5.561  10.127  14.393
61708SOL    HW187021   5.616  10.051  14.411
61708SOL    HW287022   5.548  10.126  14.299
61709SOL     OW87023   9.387   4.050  13.424
61709SOL    HW187024   9.477   4.033  13.398
61709SOL    HW287025   9.387   4.141  13.456
61710SOL     OW87026  10.391  11.387   1.815
61710SOL    HW187027  10.396  11.359   1.724
61710SOL    HW287028  10.414  11.479   1.814
61711SOL     OW87029   1.117   9.994  10.782
61711SOL    HW187030   1.160   9.909  10.771
61711SOL    HW287031   1.037   9.988  10.729
61712SOL     OW87032   7.389   9.148  14.774
61712SOL    HW187033   7.347   9.068  14.805
61712SOL    HW287034   7.477   9.147  14.813
61713SOL     OW87035  11.278   9.831  13.679
61713SOL    HW187036  11.249   9.863  13.594
61713SOL    HW287037  11.374   9.832  13.674
61714SOL     OW87038   2.629  14.181   4.598
61714SOL    HW187039   2.599  14.197   4.509
61714SOL    HW287040   2.565  14.225   4.654
61715SOL     OW87041   5.887   5.802   5.378
61715SOL    HW187042   5.928   5.822   5.294
61715SOL    HW287043   5.795   5.823   5.366
61716SOL     OW87044   8.932   8.158   6.590
61716SOL    HW187045   8.853   8.145   6.538
61716SOL    HW287046   8.973   8.236   6.552
61717SOL     OW87047  12.540  11.610  10.070
61717SOL    HW187048  12.495  11.666  10.006
61717SOL    HW287049  12.562  11.531  10.021
61718SOL     OW87050  10.136   3.054  11.258
61718SOL    HW187051  10.099   2.966  11.248
61718SOL    HW287052  10.087   3.108  11.196
61719SOL     OW87053  11.905   2.037   0.429
61719SOL    HW187054  11.934   2.122   0.397
61719SOL    HW287055  11.986   1.987   0.440
61720SOL     OW87056  13.013  12.455   4.273
61720SOL    HW187057  12.994  12.400   4.348
61720SOL    HW287058  13.062  12.397   4.213
61721SOL     OW87059   2.853  10.145   7.910
61721SOL    HW187060   2.879  10.119   7.821
61721SOL    HW287061   2.769  10.103   7.924
61722SOL     OW87062  13.407   0.850  13.143
61722SOL    HW187063  13.481   0.862  13.083
61722SOL    HW287064  13.358   0.932  13.137
61723SOL     OW87065  13.477   3.631   7.559
61723SOL    HW187066  13.530   3.574   7.503
61723SOL    HW287067  13.409   3.664   7.501
61724SOL     OW87068   3.320   8.216   1.660
61724SOL    HW187069   3.271   8.175   1.589
61724SOL    HW287070   3.400   8.248   1.619
61725SOL     OW87071   0.393   6.752  10.363
61725SOL    HW187072   0.463   6.725  10.303
61725SOL    HW287073   0.357   6.831  10.323
61726SOL     OW87074   3.254   8.138  11.269
61726SOL    HW187075   3.215   8.211  11.221
61726SOL    HW287076   3.231   8.155  11.361
61727SOL     OW87077   8.247  10.471   2.775
61727SOL    HW187078   8.288  10.545   2.731
61727SOL    HW287079   8.224  10.504   2.862
61728SOL     OW87080   0.710   2.808   1.698
61728SOL    HW187081   0.689   2.857   1.778
61728SOL    HW287082   0.772   2.740   1.726
61729SOL     OW87083   8.797  14.857  13.322
61729SOL    HW187084   8.706   0.019  13.326
61729SOL    HW287085   8.796  14.773  13.368
61730SOL     OW87086   6.707   3.282   7.380
61730SOL    HW187087   6.777   3.288   7.315
61730SOL    HW287088   6.629   3.264   7.329
61731SOL     OW87089   9.404   3.858   6.879
61731SOL    HW187090   9.405   3.770   6.840
61731SOL    HW287091   9.339   3.851   6.949
61732SOL     OW87092   5.734   3.609  11.191
61732SOL    HW187093   5.694   3.687  11.230
61732SOL    HW287094   5.687   3.536  11.231
61733SOL     OW87095   9.309   8.243  14.512
61733SOL    HW187096   9.389   8.292  14.496
61733SOL    HW287097   9.272   8.283  14.591
61734SOL     OW87098   7.808   3.484   9.542
61734SOL    HW187099   7.877   3.547   9.564
61734SOL    HW287100   7.769   3.460   9.626
61735SOL     OW87101  13.092   5.277   0.322
61735SOL    HW187102  13.011   5.308   0.282
61735SOL    HW287103  13.130   5.354   0.362
61736SOL     OW87104   6.202   9.275   6.420
61736SOL    HW187105   6.128   9.241   6.469
61736SOL    HW287106   6.236   9.199   6.372
61737SOL     OW87107  13.504   2.558   1.256
61737SOL    HW187108  13.422   2.607   1.248
61737SOL    HW287109  13.523   2.528   1.167
61738SOL     OW87110   9.581   9.729  14.206
61738SOL    HW187111   9.595   9.663  14.274
61738SOL    HW287112   9.667   9.743  14.167
61739SOL     OW87113   7.078   3.340   2.481
61739SOL    HW187114   7.048   3.410   2.422
61739SOL    HW287115   7.173   3.352   2.485
61740SOL     OW87116   0.736  14.105  13.990
61740SOL    HW187117   0.756  14.018  13.956
61740SOL    HW287118   0.657  14.092  14.042
61741SOL     OW87119   0.072   7.272   6.725
61741SOL    HW187120   0.035   7.359   6.743
61741SOL    HW287121   0.159   7.275   6.764
61742SOL     OW87122  10.936   8.217   1.619
61742SOL    HW187123  11.024   8.215   1.581
61742SOL    HW287124  10.878   8.229   1.543
61743SOL     OW87125   4.112   4.924   9.073
61743SOL    HW187126   4.081   4.888   8.990
61743SOL    HW287127   4.057   4.882   9.140
61744SOL     OW87128   2.871   2.186  14.658
61744SOL    HW187129   2.935   2.250  14.626
61744SOL    HW287130   2.859   2.126  14.584
61745SOL     OW87131   4.827   5.833   8.750
61745SOL    HW187132   4.735   5.818   8.729
61745SOL    HW287133   4.836   5.928   8.751
61746SOL     OW87134   7.136   8.852   6.778
61746SOL    HW187135   7.153   8.759   6.768
61746SOL    HW287136   7.172   8.892   6.700
61747SOL     OW87137  10.720  13.121  13.727
61747SOL    HW187138  10.634  13.115  13.686
61747SOL    HW287139  10.743  13.214  13.724
61748SOL     OW87140  13.761   6.977   4.817
61748SOL    HW187141  13.731   6.990   4.907
61748SOL    HW287142  13.805   6.892   4.818
61749SOL     OW87143  11.282  14.792   4.129
61749SOL    HW187144  11.301  14.851   4.202
61749SOL    HW287145  11.272  14.851   4.054
61750SOL     OW87146  12.897   5.858   1.237
61750SOL    HW187147  12.860   5.832   1.322
61750SOL    HW287148  12.935   5.778   1.201
61751SOL     OW87149   7.104   0.128   2.865
61751SOL    HW187150   7.100   0.034   2.884
61751SOL    HW287151   7.168   0.134   2.794
61752SOL     OW87152   1.794   0.026   5.811
61752SOL    HW187153   1.855   0.095   5.788
61752SOL    HW287154   1.842  14.814   5.794
61753SOL     OW87155  13.760  14.060  12.574
61753SOL    HW187156  13.709  14.036  12.652
61753SOL    HW287157  13.695  14.061  12.503
61754SOL     OW87158   4.441   2.029   2.842
61754SOL    HW187159   4.375   1.993   2.784
61754SOL    HW287160   4.411   2.118   2.861
61755SOL     OW87161  12.662  13.086  13.544
61755SOL    HW187162  12.692  13.130  13.624
61755SOL    HW287163  12.687  13.145  13.473
61756SOL     OW87164   2.343  10.104   4.789
61756SOL    HW187165   2.410  10.169   4.812
61756SOL    HW287166   2.260  10.148   4.806
61757SOL     OW87167   8.928   9.632   4.199
61757SOL    HW187168   8.919   9.582   4.280
61757SOL    HW287169   8.881   9.713   4.216
61758SOL     OW87170   7.184   0.920   1.228
61758SOL    HW187171   7.144   0.921   1.141
61758SOL    HW287172   7.114   0.894   1.287
61759SOL     OW87173   3.928   2.217   4.267
61759SOL    HW187174   4.015   2.255   4.266
61759SOL    HW287175   3.890   2.241   4.182
61760SOL     OW87176   2.396  10.796   7.884
61760SOL    HW187177   2.374  10.868   7.942
61760SOL    HW287178   2.440  10.837   7.809
61761SOL     OW87179   5.741   7.640   6.671
61761SOL    HW187180   5.691   7.721   6.659
61761SOL    HW287181   5.687   7.587   6.730
61762SOL     OW87182   7.731  11.794  10.475
61762SOL    HW187183   7.687  11.726  10.425
61762SOL    HW287184   7.821  11.794  10.442
61763SOL     OW87185   0.016   5.722  13.453
61763SOL    HW187186   0.018   5.754  13.362
61763SOL    HW287187   0.082   5.652  13.454
61764SOL     OW87188   6.933   9.546   4.750
61764SOL    HW187189   6.946   9.468   4.696
61764SOL    HW287190   6.838   9.548   4.765
61765SOL     OW87191  12.683  14.641   8.417
61765SOL    HW187192  12.742  14.705   8.459
61765SOL    HW287193  12.742  14.575   8.380
61766SOL     OW87194   1.572   8.832   1.826
61766SOL    HW187195   1.551   8.828   1.919
61766SOL    HW287196   1.491   8.803   1.782
61767SOL     OW87197  11.430   7.511  10.482
61767SOL    HW187198  11.518   7.545  10.495
61767SOL    HW287199  11.436   7.418  10.504
61768SOL     OW87200  10.778   6.812   7.635
61768SOL    HW187201  10.720   6.806   7.710
61768SOL    HW287202  10.726   6.854   7.567
61769SOL     OW87203   0.154   0.992   2.361
61769SOL    HW187204   0.093   0.947   2.420
61769SOL    HW287205   0.168   1.077   2.402
61770SOL     OW87206   1.972   6.978  13.836
61770SOL    HW187207   2.014   7.028  13.766
61770SOL    HW287208   1.960   7.042  13.906
61771SOL     OW87209   6.067  10.047   9.230
61771SOL    HW187210   6.039  10.045   9.138
61771SOL    HW287211   6.146   9.993   9.232
61772SOL     OW87212  11.523   4.967   3.424
61772SOL    HW187213  11.519   4.982   3.329
61772SOL    HW287214  11.617   4.963   3.443
61773SOL     OW87215   7.113   3.301   4.506
61773SOL    HW187216   7.175   3.271   4.440
61773SOL    HW287217   7.065   3.372   4.464
61774SOL     OW87218   5.888   6.582   5.018
61774SOL    HW187219   5.854   6.669   4.997
61774SOL    HW287220   5.838   6.554   5.094
61775SOL     OW87221   9.818  10.343  13.228
61775SOL    HW187222   9.906  10.321  13.259
61775SOL    HW287223   9.768  10.359  13.308
61776SOL     OW87224  12.775   6.615   0.510
61776SOL    HW187225  12.689   6.638   0.547
61776SOL    HW287226  12.807   6.697   0.472
61777SOL     OW87227   1.599  12.010   2.007
61777SOL    HW187228   1.574  11.918   2.021
61777SOL    HW287229   1.695  12.008   2.004
61778SOL     OW87230   1.639   5.538   8.727
61778SOL    HW187231   1.670   5.606   8.787
61778SOL    HW287232   1.564   5.578   8.683
61779SOL     OW87233   3.822  10.865   0.467
61779SOL    HW187234   3.870  10.888   0.388
61779SOL    HW287235   3.738  10.909   0.459
61780SOL     OW87236   0.864   5.152   6.898
61780SOL    HW187237   0.824   5.172   6.983
61780SOL    HW287238   0.934   5.217   6.889
61781SOL     OW87239   9.257   2.632  11.329
61781SOL    HW187240   9.214   2.685  11.262
61781SOL    HW287241   9.224   2.665  11.412
61782SOL     OW87242  11.962   9.230   0.722
61782SOL    HW187243  11.978   9.143   0.685
61782SOL    HW287244  12.048   9.271   0.727
61783SOL     OW87245  10.070   9.406   6.023
61783SOL    HW187246   9.986   9.365   6.001
61783SOL    HW287247  10.096   9.364   6.105
61784SOL     OW87248   5.390   5.023   4.936
61784SOL    HW187249   5.438   5.024   5.019
61784SOL    HW287250   5.453   5.055   4.872
61785SOL     OW87251   9.090   8.801   1.652
61785SOL    HW187252   9.033   8.821   1.727
61785SOL    HW287253   9.143   8.880   1.641
61786SOL     OW87254   1.490   8.417  13.530
61786SOL    HW187255   1.440   8.452  13.456
61786SOL    HW287256   1.442   8.338  13.555
61787SOL     OW87257   8.779   0.031   1.864
61787SOL    HW187258   8.755  14.809   1.851
61787SOL    HW287259   8.730   0.078   1.796
61788SOL     OW87260   5.999   4.348  11.860
61788SOL    HW187261   6.093   4.355  11.842
61788SOL    HW287262   5.990   4.384  11.948
61789SOL     OW87263   5.556   5.826   0.732
61789SOL    HW187264   5.499   5.878   0.676
61789SOL    HW287265   5.553   5.870   0.817
61790SOL     OW87266   1.692   6.601   9.856
61790SOL    HW187267   1.622   6.538   9.871
61790SOL    HW287268   1.647   6.678   9.821
61791SOL     OW87269  13.621  13.908   1.551
61791SOL    HW187270  13.527  13.906   1.534
61791SOL    HW287271  13.655  13.828   1.511
61792SOL     OW87272   5.207  12.150  12.785
61792SOL    HW187273   5.133  12.113  12.736
61792SOL    HW287274   5.191  12.244  12.783
61793SOL     OW87275   2.770   5.296   3.077
61793SOL    HW187276   2.768   5.245   2.996
61793SOL    HW287277   2.741   5.236   3.145
61794SOL     OW87278   2.005   5.746   8.072
61794SOL    HW187279   2.091   5.704   8.078
61794SOL    HW287280   1.963   5.726   8.156
61795SOL     OW87281   1.549   3.811   7.466
61795SOL    HW187282   1.515   3.724   7.482
61795SOL    HW287283   1.642   3.797   7.446
61796SOL     OW87284   1.575   5.794   5.891
61796SOL    HW187285   1.633   5.742   5.947
61796SOL    HW287286   1.510   5.830   5.951
61797SOL     OW87287  10.581   4.424   4.653
61797SOL    HW187288  10.514   4.372   4.698
61797SOL    HW287289  10.657   4.367   4.650
61798SOL     OW87290   2.699   1.881   2.816
61798SOL    HW187291   2.754   1.911   2.744
61798SOL    HW287292   2.613   1.867   2.777
61799SOL     OW87293   6.556   8.341   5.639
61799SOL    HW187294   6.509   8.267   5.677
61799SOL    HW287295   6.633   8.302   5.598
61800SOL     OW87296   3.497   3.508  14.473
61800SOL    HW187297   3.576   3.459  14.452
61800SOL    HW287298   3.520   3.558  14.552
61801SOL     OW87299   6.766   3.514   0.030
61801SOL    HW187300   6.766   3.474   0.117
61801SOL    HW287301   6.768   3.608   0.047
61802SOL     OW87302   0.043   2.576   0.971
61802SOL    HW187303   0.070   2.560   1.062
61802SOL    HW287304   0.082   2.660   0.949
61803SOL     OW87305  12.340   4.921   3.027
61803SOL    HW187306  12.407   4.963   3.081
61803SOL    HW287307  12.389   4.872   2.961
61804SOL     OW87308   0.952  13.777   6.471
61804SOL    HW187309   0.964  13.758   6.564
61804SOL    HW287310   0.952  13.872   6.465
61805SOL     OW87311   2.973   8.996  10.805
61805SOL    HW187312   2.963   9.065  10.740
61805SOL    HW287313   3.068   8.982  10.810
61806SOL     OW87314   8.827   6.457   6.610
61806SOL    HW187315   8.809   6.418   6.524
61806SOL    HW287316   8.907   6.412   6.640
61807SOL     OW87317   1.537   6.301   8.386
61807SOL    HW187318   1.625   6.306   8.423
61807SOL    HW287319   1.537   6.366   8.315
61808SOL     OW87320   3.092   8.989   5.644
61808SOL    HW187321   3.171   9.026   5.603
61808SOL    HW287322   3.079   9.043   5.722
61809SOL     OW87323   8.434  10.492   3.344
61809SOL    HW187324   8.464  10.528   3.427
61809SOL    HW287325   8.480  10.543   3.278
61810SOL     OW87326   5.252  12.117   9.170
61810SOL    HW187327   5.236  12.090   9.080
61810SOL    HW287328   5.241  12.212   9.169
61811SOL     OW87329   4.289   6.120   1.557
61811SOL    HW187330   4.319   6.031   1.537
61811SOL    HW287331   4.329   6.174   1.489
61812SOL     OW87332   7.419   7.115   3.866
61812SOL    HW187333   7.377   7.101   3.951
61812SOL    HW287334   7.513   7.112   3.885
61813SOL     OW87335   3.165   3.584   4.514
61813SOL    HW187336   3.177   3.677   4.494
61813SOL    HW287337   3.236   3.540   4.466
61814SOL     OW87338   4.374  10.352  11.472
61814SOL    HW187339   4.423  10.424  11.432
61814SOL    HW287340   4.308  10.329  11.407
61815SOL     OW87341   2.678  13.116  12.507
61815SOL    HW187342   2.624  13.047  12.468
61815SOL    HW287343   2.761  13.073  12.528
61816SOL     OW87344   2.722  13.573   2.671
61816SOL    HW187345   2.767  13.504   2.719
61816SOL    HW287346   2.652  13.528   2.623
61817SOL     OW87347  14.179   9.546  11.920
61817SOL    HW187348  14.270   9.520  11.934
61817SOL    HW287349  14.132   9.511  11.995
61818SOL     OW87350   6.926  11.210   5.887
61818SOL    HW187351   6.843  11.186   5.927
61818SOL    HW287352   6.990  11.149   5.924
61819SOL     OW87353   8.895   0.040   8.577
61819SOL    HW187354   8.864  14.839   8.521
61819SOL    HW287355   8.968   0.002   8.625
61820SOL     OW87356  11.808  12.541  10.957
61820SOL    HW187357  11.785  12.504  11.042
61820SOL    HW287358  11.758  12.622  10.952
61821SOL     OW87359  13.931   4.456  10.762
61821SOL    HW187360  13.956   4.365  10.779
61821SOL    HW287361  13.966   4.475  10.675
61822SOL     OW87362   9.900   0.830  10.113
61822SOL    HW187363   9.904   0.859  10.021
61822SOL    HW287364   9.942   0.901  10.162
61823SOL     OW87365   4.386   7.750  11.579
61823SOL    HW187366   4.318   7.808  11.612
61823SOL    HW287367   4.417   7.704  11.657
61824SOL     OW87368   8.261  10.133  10.297
61824SOL    HW187369   8.216  10.071  10.354
61824SOL    HW287370   8.296  10.079  10.226
61825SOL     OW87371   5.111  11.879   2.548
61825SOL    HW187372   5.119  11.787   2.572
61825SOL    HW287373   5.190  11.898   2.499
61826SOL     OW87374  11.821   2.814  13.061
61826SOL    HW187375  11.754   2.881  13.050
61826SOL    HW287376  11.848   2.793  12.971
61827SOL     OW87377   5.669   7.385   6.532
61827SOL    HW187378   5.660   7.479   6.518
61827SOL    HW287379   5.747   7.377   6.588
61828SOL     OW87380   8.253   8.485  11.126
61828SOL    HW187381   8.286   8.454  11.210
61828SOL    HW287382   8.160   8.500  11.141
61829SOL     OW87383   3.503   6.627   2.556
61829SOL    HW187384   3.407   6.630   2.556
61829SOL    HW287385   3.528   6.645   2.647
61830SOL     OW87386   4.693   7.753   2.662
61830SOL    HW187387   4.752   7.678   2.660
61830SOL    HW287388   4.716   7.804   2.584
61831SOL     OW87389  13.626   0.993   8.083
61831SOL    HW187390  13.601   1.024   7.996
61831SOL    HW287391  13.718   0.969   8.074
61832SOL     OW87392   1.992  11.706  12.918
61832SOL    HW187393   1.932  11.640  12.883
61832SOL    HW287394   2.065  11.656  12.953
61833SOL     OW87395  12.908   5.526   7.785
61833SOL    HW187396  12.926   5.546   7.693
61833SOL    HW287397  12.961   5.448   7.804
61834SOL     OW87398   4.977   7.763  13.483
61834SOL    HW187399   4.904   7.702  13.489
61834SOL    HW287400   4.980   7.806  13.568
61835SOL     OW87401   4.347   1.470   0.308
61835SOL    HW187402   4.399   1.402   0.351
61835SOL    HW287403   4.398   1.550   0.319
61836SOL     OW87404   5.150   3.778   3.681
61836SOL    HW187405   5.141   3.863   3.638
61836SOL    HW287406   5.061   3.742   3.682
61837SOL     OW87407   3.536  10.543   8.549
61837SOL    HW187408   3.463  10.604   8.555
61837SOL    HW287409   3.586  10.573   8.473
61838SOL     OW87410  13.690   7.156   6.407
61838SOL    HW187411  13.713   7.088   6.344
61838SOL    HW287412  13.757   7.149   6.475
61839SOL     OW87413   9.188   0.755  14.761
61839SOL    HW187414   9.218   0.695  14.829
61839SOL    HW287415   9.129   0.815  14.807
61840SOL     OW87416   3.927   7.859   7.302
61840SOL    HW187417   3.867   7.785   7.316
61840SOL    HW287418   3.935   7.866   7.207
61841SOL     OW87419   7.344   2.692   9.220
61841SOL    HW187420   7.355   2.740   9.303
61841SOL    HW287421   7.434   2.671   9.193
61842SOL     OW87422   1.797  10.973   8.605
61842SOL    HW187423   1.824  10.910   8.539
61842SOL    HW287424   1.870  10.976   8.667
61843SOL     OW87425   8.991   9.483   3.933
61843SOL    HW187426   8.964   9.526   3.852
61843SOL    HW287427   8.931   9.517   3.999
61844SOL     OW87428   3.654   2.287   3.494
61844SOL    HW187429   3.740   2.326   3.511
61844SOL    HW287430   3.650   2.278   3.399
61845SOL     OW87431   3.130   7.171  11.221
61845SOL    HW187432   3.103   7.263  11.223
61845SOL    HW287433   3.216   7.172  11.180
61846SOL     OW87434   8.375   0.190  12.177
61846SOL    HW187435   8.468   0.189  12.156
61846SOL    HW287436   8.358   0.106  12.219
61847SOL     OW87437   2.473   6.568   3.571
61847SOL    HW187438   2.546   6.602   3.520
61847SOL    HW287439   2.426   6.510   3.511
61848SOL     OW87440  12.871   5.794   1.772
61848SOL    HW187441  12.868   5.889   1.783
61848SOL    HW287442  12.954   5.778   1.727
61849SOL     OW87443   9.352   2.723   1.760
61849SOL    HW187444   9.353   2.763   1.674
61849SOL    HW287445   9.278   2.764   1.805
61850SOL     OW87446   9.502  14.453   0.898
61850SOL    HW187447   9.445  14.425   0.969
61850SOL    HW287448   9.490  14.548   0.893
61851SOL     OW87449   4.310   1.249  10.064
61851SOL    HW187450   4.289   1.212   9.978
61851SOL    HW287451   4.321   1.173  10.120
61852SOL     OW87452   0.506  12.987   6.364
61852SOL    HW187453   0.448  13.024   6.297
61852SOL    HW287454   0.476  13.027   6.445
61853SOL     OW87455  13.194   4.992   1.180
61853SOL    HW187456  13.265   4.977   1.242
61853SOL    HW287457  13.176   4.906   1.142
61854SOL     OW87458   9.937  14.064  13.383
61854SOL    HW187459   9.877  14.023  13.445
61854SOL    HW287460   9.924  14.016  13.301
61855SOL     OW87461   5.260   7.693  13.467
61855SOL    HW187462   5.274   7.616  13.412
61855SOL    HW287463   5.175   7.728  13.438
61856SOL     OW87464   0.356   8.708  11.527
61856SOL    HW187465   0.380   8.711  11.620
61856SOL    HW287466   0.262   8.694  11.527
61857SOL     OW87467   0.784   2.424   4.625
61857SOL    HW187468   0.741   2.379   4.697
61857SOL    HW287469   0.719   2.485   4.592
61858SOL     OW87470   1.636  13.026   7.834
61858SOL    HW187471   1.658  13.031   7.927
61858SOL    HW287472   1.654  13.114   7.800
61859SOL     OW87473  10.725   3.441   6.672
61859SOL    HW187474  10.787   3.439   6.598
61859SOL    HW287475  10.694   3.531   6.674
61860SOL     OW87476   9.909   0.010   5.338
61860SOL    HW187477   9.829   0.061   5.324
61860SOL    HW287478   9.970   0.043   5.272
61861SOL     OW87479   3.796   0.755   1.125
61861SOL    HW187480   3.786   0.746   1.220
61861SOL    HW287481   3.888   0.779   1.113
61862SOL     OW87482   4.965  12.132   6.023
61862SOL    HW187483   4.964  12.037   6.021
61862SOL    HW287484   5.055  12.156   6.000
61863SOL     OW87485   5.220  14.483   3.389
61863SOL    HW187486   5.192  14.399   3.353
61863SOL    HW287487   5.163  14.548   3.347
61864SOL     OW87488  12.674   1.950  10.089
61864SOL    HW187489  12.640   1.902  10.165
61864SOL    HW287490  12.768   1.938  10.093
61865SOL     OW87491  11.911   7.338   7.144
61865SOL    HW187492  11.931   7.262   7.199
61865SOL    HW287493  11.865   7.398   7.201
61866SOL     OW87494   3.168   3.280   7.757
61866SOL    HW187495   3.239   3.343   7.744
61866SOL    HW287496   3.179   3.251   7.848
61867SOL     OW87497  12.822   3.783   0.454
61867SOL    HW187498  12.880   3.719   0.496
61867SOL    HW287499  12.735   3.742   0.457
61868SOL     OW87500  14.629   9.339  10.954
61868SOL    HW187501  14.668   9.417  10.994
61868SOL    HW287502  14.689   9.268  10.976
61869SOL     OW87503   5.959   2.997   2.758
61869SOL    HW187504   5.888   2.937   2.734
61869SOL    HW287505   5.964   3.058   2.684
61870SOL     OW87506  13.467   4.823   9.972
61870SOL    HW187507  13.493   4.799   9.883
61870SOL    HW287508  13.426   4.744  10.007
61871SOL     OW87509   8.869   7.284   5.650
61871SOL    HW187510   8.952   7.318   5.683
61871SOL    HW287511   8.860   7.198   5.692
61872SOL     OW87512   1.971   9.726   8.982
61872SOL    HW187513   2.058   9.767   8.973
61872SOL    HW287514   1.919   9.790   9.030
61873SOL     OW87515   2.652   3.223  10.161
61873SOL    HW187516   2.619   3.206  10.073
61873SOL    HW287517   2.738   3.180  10.163
61874SOL     OW87518  10.507   7.655  14.595
61874SOL    HW187519  10.431   7.644  14.538
61874SOL    HW287520  10.582   7.637  14.539
61875SOL     OW87521   5.273  14.027   9.997
61875SOL    HW187522   5.346  13.997   9.942
61875SOL    HW287523   5.248  13.950  10.048
61876SOL     OW87524   9.792   5.988  12.931
61876SOL    HW187525   9.864   5.925  12.931
61876SOL    HW287526   9.781   6.012  12.839
61877SOL     OW87527   2.261   8.248   3.918
61877SOL    HW187528   2.231   8.266   3.829
61877SOL    HW287529   2.181   8.237   3.969
61878SOL     OW87530  10.064   0.987   1.316
61878SOL    HW187531  10.129   1.011   1.249
61878SOL    HW287532  10.087   1.041   1.392
61879SOL     OW87533   9.513  14.817  13.349
61879SOL    HW187534   9.490  14.775  13.432
61879SOL    HW287535   9.574  14.757  13.307
61880SOL     OW87536   7.857   0.691   2.358
61880SOL    HW187537   7.843   0.777   2.320
61880SOL    HW287538   7.938   0.659   2.318
61881SOL     OW87539   3.241   1.942   1.646
61881SOL    HW187540   3.276   1.912   1.730
61881SOL    HW287541   3.193   2.022   1.667
61882SOL     OW87542  11.324   1.333   7.321
61882SOL    HW187543  11.355   1.406   7.266
61882SOL    HW287544  11.404   1.297   7.359
61883SOL     OW87545   4.230   7.571   0.413
61883SOL    HW187546   4.160   7.603   0.470
61883SOL    HW287547   4.269   7.498   0.461
61884SOL     OW87548  14.588   7.779   6.706
61884SOL    HW187549  14.630   7.836   6.641
61884SOL    HW287550  14.498   7.769   6.674
61885SOL     OW87551   0.260  10.082   4.413
61885SOL    HW187552   0.217  10.041   4.339
61885SOL    HW287553   0.336  10.126   4.375
61886SOL     OW87554   1.923   7.906   3.946
61886SOL    HW187555   1.934   7.863   4.031
61886SOL    HW287556   2.007   7.892   3.901
61887SOL     OW87557  10.180  10.185   3.875
61887SOL    HW187558  10.106  10.148   3.826
61887SOL    HW287559  10.219  10.249   3.816
61888SOL     OW87560  12.856   6.318  14.584
61888SOL    HW187561  12.858   6.224  14.565
61888SOL    HW287562  12.846   6.323  14.679
61889SOL     OW87563  10.661   5.725   3.014
61889SOL    HW187564  10.581   5.772   3.038
61889SOL    HW287565  10.732   5.786   3.031
61890SOL     OW87566   6.282   3.690   4.786
61890SOL    HW187567   6.288   3.786   4.785
61890SOL    HW287568   6.326   3.663   4.705
61891SOL     OW87569   8.724  11.537   4.100
61891SOL    HW187570   8.731  11.480   4.024
61891SOL    HW287571   8.638  11.518   4.137
61892SOL     OW87572  14.611   1.537  14.010
61892SOL    HW187573  14.656   1.476  13.951
61892SOL    HW287574  14.593   1.485  14.088
61893SOL     OW87575   7.558   4.266   0.111
61893SOL    HW187576   7.596   4.266   0.023
61893SOL    HW287577   7.598   4.342   0.153
61894SOL     OW87578   0.468   7.729  13.533
61894SOL    HW187579   0.497   7.661  13.473
61894SOL    HW287580   0.374   7.715  13.543
61895SOL     OW87581   8.430   5.581   7.105
61895SOL    HW187582   8.388   5.599   7.190
61895SOL    HW287583   8.441   5.485   7.104
61896SOL     OW87584   4.990   5.569   0.615
61896SOL    HW187585   4.937   5.489   0.621
61896SOL    HW287586   5.058   5.548   0.551
61897SOL     OW87587   0.496  14.579  13.177
61897SOL    HW187588   0.429  14.550  13.238
61897SOL    HW287589   0.550  14.501  13.161
61898SOL     OW87590   3.204   5.194   7.025
61898SOL    HW187591   3.287   5.211   7.070
61898SOL    HW287592   3.228   5.137   6.952
61899SOL     OW87593  12.644   6.424   1.580
61899SOL    HW187594  12.706   6.395   1.513
61899SOL    HW287595  12.678   6.387   1.662
61900SOL     OW87596   2.969  10.504   1.741
61900SOL    HW187597   3.033  10.435   1.725
61900SOL    HW287598   2.885  10.458   1.745
61901SOL     OW87599   3.196   8.170   9.856
61901SOL    HW187600   3.233   8.087   9.825
61901SOL    HW287601   3.271   8.228   9.867
61902SOL     OW87602   9.292  12.873  11.006
61902SOL    HW187603   9.221  12.824  10.965
61902SOL    HW287604   9.365  12.811  11.009
61903SOL     OW87605  14.017  10.778   5.511
61903SOL    HW187606  13.948  10.838   5.485
61903SOL    HW287607  14.081  10.782   5.440
61904SOL     OW87608   9.686   8.969   1.015
61904SOL    HW187609   9.696   9.063   1.027
61904SOL    HW287610   9.682   8.957   0.920
61905SOL     OW87611   2.184  13.111   2.671
61905SOL    HW187612   2.117  13.084   2.734
61905SOL    HW287613   2.237  13.032   2.658
61906SOL     OW87614   1.789  13.002  10.294
61906SOL    HW187615   1.738  13.018  10.372
61906SOL    HW287616   1.793  12.907  10.286
61907SOL     OW87617  10.663   9.057   5.303
61907SOL    HW187618  10.704   8.991   5.247
61907SOL    HW287619  10.654   9.133   5.247
61908SOL     OW87620   0.670   5.422   9.712
61908SOL    HW187621   0.653   5.407   9.619
61908SOL    HW287622   0.585   5.409   9.754
61909SOL     OW87623   2.194   6.775  13.641
61909SOL    HW187624   2.171   6.860  13.678
61909SOL    HW287625   2.264   6.742  13.698
61910SOL     OW87626   1.342  11.787  12.962
61910SOL    HW187627   1.311  11.753  12.878
61910SOL    HW287628   1.351  11.709  13.017
61911SOL     OW87629  13.974   4.189   7.547
61911SOL    HW187630  14.008   4.279   7.545
61911SOL    HW287631  14.024   4.146   7.616
61912SOL     OW87632   6.331   7.563   2.455
61912SOL    HW187633   6.328   7.636   2.518
61912SOL    HW287634   6.258   7.507   2.479
61913SOL     OW87635  14.455   7.508  14.316
61913SOL    HW187636  14.503   7.510  14.398
61913SOL    HW287637  14.393   7.436  14.326
61914SOL     OW87638  10.453   9.055   8.480
61914SOL    HW187639  10.544   9.077   8.461
61914SOL    HW287640  10.404   9.092   8.407
61915SOL     OW87641   7.839   4.421  11.098
61915SOL    HW187642   7.880   4.350  11.049
61915SOL    HW287643   7.888   4.499  11.072
61916SOL     OW87644  14.450   7.805  10.065
61916SOL    HW187645  14.407   7.738  10.012
61916SOL    HW287646  14.379   7.846  10.114
61917SOL     OW87647   1.243   5.606  12.776
61917SOL    HW187648   1.266   5.565  12.693
61917SOL    HW287649   1.317   5.664  12.795
61918SOL     OW87650   0.797   9.245   5.823
61918SOL    HW187651   0.821   9.270   5.733
61918SOL    HW287652   0.881   9.243   5.870
61919SOL     OW87653   7.711  12.335   9.155
61919SOL    HW187654   7.631  12.320   9.104
61919SOL    HW287655   7.728  12.429   9.147
61920SOL     OW87656  13.495   5.913   7.865
61920SOL    HW187657  13.537   5.973   7.805
61920SOL    HW287658  13.567   5.876   7.917
61921SOL     OW87659   7.599   7.955   9.818
61921SOL    HW187660   7.689   7.946   9.786
61921SOL    HW287661   7.584   8.049   9.821
61922SOL     OW87662   4.131   8.247   1.393
61922SOL    HW187663   4.108   8.159   1.424
61922SOL    HW287664   4.159   8.234   1.302
61923SOL     OW87665   2.645  11.688   5.256
61923SOL    HW187666   2.599  11.626   5.198
61923SOL    HW287667   2.600  11.771   5.242
61924SOL     OW87668   5.384  12.941  13.858
61924SOL    HW187669   5.395  12.850  13.886
61924SOL    HW287670   5.290  12.954  13.855
61925SOL     OW87671   0.557   3.387  14.578
61925SOL    HW187672   0.612   3.321  14.621
61925SOL    HW287673   0.478   3.339  14.553
61926SOL     OW87674   9.938  10.365  10.538
61926SOL    HW187675   9.882  10.443  10.530
61926SOL    HW287676   9.928  10.320  10.455
61927SOL     OW87677   6.854   5.718  12.844
61927SOL    HW187678   6.931   5.662  12.853
61927SOL    HW287679   6.835   5.719  12.751
61928SOL     OW87680  12.919   7.296   4.097
61928SOL    HW187681  12.977   7.367   4.071
61928SOL    HW287682  12.977   7.223   4.118
61929SOL     OW87683   4.218  13.596   7.115
61929SOL    HW187684   4.122  13.598   7.112
61929SOL    HW287685   4.240  13.650   7.191
61930SOL     OW87686   1.482   0.655  13.904
61930SOL    HW187687   1.422   0.614  13.841
61930SOL    HW287688   1.568   0.623  13.879
61931SOL     OW87689  10.275   8.292   5.487
61931SOL    HW187690  10.224   8.293   5.568
61931SOL    HW287691  10.364   8.313   5.514
61932SOL     OW87692   3.807   0.393  13.159
61932SOL    HW187693   3.824   0.386  13.065
61932SOL    HW287694   3.727   0.342  13.172
61933SOL     OW87695  10.302   5.784   6.654
61933SOL    HW187696  10.315   5.816   6.743
61933SOL    HW287697  10.239   5.713   6.663
61934SOL     OW87698   1.574   4.725   7.783
61934SOL    HW187699   1.588   4.721   7.689
61934SOL    HW287700   1.497   4.781   7.794
61935SOL     OW87701   4.424  13.213  11.298
61935SOL    HW187702   4.361  13.181  11.363
61935SOL    HW287703   4.498  13.152  11.305
61936SOL     OW87704  14.804   6.740   6.103
61936SOL    HW187705  14.787   6.789   6.183
61936SOL    HW287706  14.824   6.651   6.132
61937SOL     OW87707   2.563   7.157   5.870
61937SOL    HW187708   2.641   7.200   5.835
61937SOL    HW287709   2.574   7.065   5.849
61938SOL     OW87710  11.814   1.384   2.129
61938SOL    HW187711  11.831   1.478   2.114
61938SOL    HW287712  11.811   1.347   2.041
61939SOL     OW87713   7.041  11.196   6.939
61939SOL    HW187714   7.108  11.232   6.998
61939SOL    HW287715   7.077  11.113   6.910
61940SOL     OW87716   3.035   9.162   9.048
61940SOL    HW187717   3.037   9.236   8.988
61940SOL    HW287718   2.961   9.109   9.019
61941SOL     OW87719  12.737   7.229   3.154
61941SOL    HW187720  12.781   7.146   3.175
61941SOL    HW287721  12.659   7.229   3.209
61942SOL     OW87722   7.124  11.477   0.104
61942SOL    HW187723   7.063  11.417   0.147
61942SOL    HW287724   7.089  11.564   0.123
61943SOL     OW87725   7.400   2.260   4.254
61943SOL    HW187726   7.326   2.239   4.311
61943SOL    HW287727   7.390   2.353   4.236
61944SOL     OW87728   0.864   1.313   2.542
61944SOL    HW187729   0.858   1.248   2.471
61944SOL    HW287730   0.825   1.392   2.505
61945SOL     OW87731  11.887  14.733  13.738
61945SOL    HW187732  11.981  14.724  13.722
61945SOL    HW287733  11.881  14.784  13.819
61946SOL     OW87734   9.385   5.957  13.079
61946SOL    HW187735   9.408   5.891  13.014
61946SOL    HW287736   9.306   5.924  13.121
61947SOL     OW87737   3.426   3.974  14.367
61947SOL    HW187738   3.353   4.006  14.420
61947SOL    HW287739   3.490   3.943  14.431
61948SOL     OW87740  12.219  13.441   7.799
61948SOL    HW187741  12.131  13.465   7.827
61948SOL    HW287742  12.241  13.365   7.851
61949SOL     OW87743  12.962   7.630   7.830
61949SOL    HW187744  12.903   7.684   7.776
61949SOL    HW287745  12.903   7.585   7.890
61950SOL     OW87746   7.496  11.660  11.071
61950SOL    HW187747   7.562  11.598  11.041
61950SOL    HW287748   7.537  11.746  11.060
61951SOL     OW87749   8.679   5.865   3.929
61951SOL    HW187750   8.701   5.914   4.008
61951SOL    HW287751   8.689   5.929   3.858
61952SOL     OW87752   1.193   9.802   2.189
61952SOL    HW187753   1.162   9.717   2.157
61952SOL    HW287754   1.171   9.863   2.118
61953SOL     OW87755  12.115   9.026   6.617
61953SOL    HW187756  12.035   8.984   6.588
61953SOL    HW287757  12.123   9.004   6.709
61954SOL     OW87758   1.072  12.429   3.741
61954SOL    HW187759   1.120  12.448   3.821
61954SOL    HW287760   1.096  12.500   3.681
61955SOL     OW87761  11.590   9.224   2.017
61955SOL    HW187762  11.673   9.207   2.060
61955SOL    HW287763  11.545   9.139   2.019
61956SOL     OW87764   9.661   3.262   6.602
61956SOL    HW187765   9.580   3.228   6.565
61956SOL    HW287766   9.686   3.335   6.545
61957SOL     OW87767   2.578  14.033   1.445
61957SOL    HW187768   2.651  13.972   1.459
61957SOL    HW287769   2.542  14.008   1.360
61958SOL     OW87770   0.268  10.915   4.722
61958SOL    HW187771   0.276  11.004   4.687
61958SOL    HW287772   0.359  10.884   4.730
61959SOL     OW87773  12.453   5.237   5.490
61959SOL    HW187774  12.477   5.323   5.456
61959SOL    HW287775  12.499   5.231   5.574
61960SOL     OW87776  13.498   9.335  13.079
61960SOL    HW187777  13.574   9.303  13.030
61960SOL    HW287778  13.429   9.272  13.061
61961SOL     OW87779  12.108   8.840  10.979
61961SOL    HW187780  12.056   8.782  10.925
61961SOL    HW287781  12.165   8.782  11.029
61962SOL     OW87782   3.732   0.756  14.236
61962SOL    HW187783   3.825   0.749  14.256
61962SOL    HW287784   3.706   0.840  14.274
61963SOL     OW87785   4.377   0.353  11.149
61963SOL    HW187786   4.405   0.350  11.058
61963SOL    HW287787   4.282   0.339  11.146
61964SOL     OW87788   9.299   4.002   2.717
61964SOL    HW187789   9.369   4.034   2.775
61964SOL    HW287790   9.327   4.028   2.630
61965SOL     OW87791   0.249   9.782  12.797
61965SOL    HW187792   0.262   9.835  12.717
61965SOL    HW287793   0.305   9.824  12.862
61966SOL     OW87794   8.901   9.359   3.085
61966SOL    HW187795   8.973   9.330   3.141
61966SOL    HW287796   8.915   9.454   3.076
61967SOL     OW87797  12.180   2.364   7.510
61967SOL    HW187798  12.147   2.314   7.435
61967SOL    HW287799  12.127   2.335   7.584
61968SOL     OW87800   5.356   8.951  11.965
61968SOL    HW187801   5.320   8.885  12.024
61968SOL    HW287802   5.331   9.034  12.004
61969SOL     OW87803  13.901   8.291   5.181
61969SOL    HW187804  13.983   8.336   5.163
61969SOL    HW287805  13.863   8.273   5.095
61970SOL     OW87806   0.380  10.543   7.149
61970SOL    HW187807   0.438  10.598   7.201
61970SOL    HW287808   0.417  10.547   7.060
61971SOL     OW87809   3.359  10.678   2.503
61971SOL    HW187810   3.310  10.661   2.423
61971SOL    HW287811   3.426  10.610   2.505
61972SOL     OW87812   1.009   0.314   7.523
61972SOL    HW187813   1.008   0.409   7.516
61972SOL    HW287814   1.101   0.293   7.542
61973SOL     OW87815  13.533   6.067   9.222
61973SOL    HW187816  13.476   5.990   9.226
61973SOL    HW287817  13.483   6.136   9.267
61974SOL     OW87818   2.756   3.669  10.367
61974SOL    HW187819   2.749   3.612  10.290
61974SOL    HW287820   2.847   3.698  10.368
61975SOL     OW87821  12.862   4.343  12.579
61975SOL    HW187822  12.919   4.333  12.503
61975SOL    HW287823  12.786   4.289  12.559
61976SOL     OW87824  13.370   0.447   9.066
61976SOL    HW187825  13.423   0.404   9.134
61976SOL    HW287826  13.325   0.517   9.112
61977SOL     OW87827  12.381   0.210  14.493
61977SOL    HW187828  12.469   0.248  14.498
61977SOL    HW287829  12.323   0.281  14.521
61978SOL     OW87830   9.130   4.191  12.163
61978SOL    HW187831   9.071   4.136  12.112
61978SOL    HW287832   9.087   4.277  12.166
61979SOL     OW87833  10.988  12.456  14.393
61979SOL    HW187834  11.011  12.364  14.403
61979SOL    HW287835  11.040  12.501  14.460
61980SOL     OW87836  12.800  10.699  10.499
61980SOL    HW187837  12.769  10.712  10.410
61980SOL    HW287838  12.723  10.715  10.554
61981SOL     OW87839   8.097  10.094   8.767
61981SOL    HW187840   8.116  10.064   8.856
61981SOL    HW287841   8.085  10.014   8.717
61982SOL     OW87842   5.049   5.139   8.600
61982SOL    HW187843   4.968   5.186   8.618
61982SOL    HW287844   5.035   5.098   8.515
61983SOL     OW87845   8.332   2.047   0.995
61983SOL    HW187846   8.353   1.963   1.036
61983SOL    HW287847   8.310   2.025   0.905
61984SOL     OW87848  14.581  11.632   7.751
61984SOL    HW187849  14.639  11.643   7.827
61984SOL    HW287850  14.586  11.538   7.731
61985SOL     OW87851   6.484   4.133   0.543
61985SOL    HW187852   6.544   4.060   0.556
61985SOL    HW287853   6.540   4.208   0.524
61986SOL     OW87854  13.861  14.682   7.882
61986SOL    HW187855  13.816  14.761   7.910
61986SOL    HW287856  13.813  14.610   7.922
61987SOL     OW87857   7.894   4.083   4.634
61987SOL    HW187858   7.978   4.060   4.594
61987SOL    HW287859   7.913   4.162   4.686
61988SOL     OW87860   0.213  14.783   0.716
61988SOL    HW187861   0.287  14.836   0.745
61988SOL    HW287862   0.244  14.692   0.726
61989SOL     OW87863  14.406   8.901   2.331
61989SOL    HW187864  14.419   8.910   2.237
61989SOL    HW287865  14.444   8.815   2.352
61990SOL     OW87866   9.095   8.993   8.228
61990SOL    HW187867   9.117   9.084   8.247
61990SOL    HW287868   9.031   8.998   8.157
61991SOL     OW87869   7.716  13.918   9.574
61991SOL    HW187870   7.719  13.935   9.480
61991SOL    HW287871   7.794  13.866   9.592
61992SOL     OW87872  14.360   4.745   6.270
61992SOL    HW187873  14.317   4.664   6.295
61992SOL    HW287874  14.301   4.786   6.207
61993SOL     OW87875   7.683   3.852  11.390
61993SOL    HW187876   7.671   3.947  11.381
61993SOL    HW287877   7.633   3.815  11.317
61994SOL     OW87878   0.676   5.082   2.139
61994SOL    HW187879   0.592   5.059   2.180
61994SOL    HW287880   0.653   5.107   2.050
61995SOL     OW87881   3.997   6.157  14.371
61995SOL    HW187882   4.085   6.195  14.376
61995SOL    HW287883   4.010   6.064  14.387
61996SOL     OW87884  10.316  12.563   5.956
61996SOL    HW187885  10.384  12.594   6.016
61996SOL    HW287886  10.334  12.608   5.874
61997SOL     OW87887   0.583   8.321  13.320
61997SOL    HW187888   0.639   8.397  13.302
61997SOL    HW287889   0.498   8.345  13.285
61998SOL     OW87890   5.421   7.988   4.293
61998SOL    HW187891   5.395   7.924   4.227
61998SOL    HW287892   5.349   7.987   4.356
61999SOL     OW87893   8.526   3.513  12.658
61999SOL    HW187894   8.561   3.530  12.745
61999SOL    HW287895   8.441   3.472  12.673
62000SOL     OW87896  10.337   9.629   9.438
62000SOL    HW187897  10.385   9.675   9.370
62000SOL    HW287898  10.348   9.536   9.416
62001SOL     OW87899   7.375   0.119  11.584
62001SOL    HW187900   7.293   0.166  11.569
62001SOL    HW287901   7.417   0.167  11.655
62002SOL     OW87902  12.314  14.302   5.572
62002SOL    HW187903  12.317  14.300   5.476
62002SOL    HW287904  12.242  14.243   5.596
62003SOL     OW87905   0.242   1.071   4.767
62003SOL    HW187906   0.158   1.072   4.723
62003SOL    HW287907   0.233   1.134   4.839
62004SOL     OW87908   8.581  12.114  11.249
62004SOL    HW187909   8.510  12.050  11.243
62004SOL    HW287910   8.595  12.142  11.158
62005SOL     OW87911   6.593   9.718   2.549
62005SOL    HW187912   6.514   9.762   2.518
62005SOL    HW287913   6.632   9.679   2.470
62006SOL     OW87914  11.803   3.403   7.303
62006SOL    HW187915  11.778   3.425   7.214
62006SOL    HW287916  11.780   3.311   7.313
62007SOL     OW87917  14.120  12.240   2.160
62007SOL    HW187918  14.178  12.309   2.129
62007SOL    HW287919  14.058  12.226   2.089
62008SOL     OW87920   7.952   0.535  12.908
62008SOL    HW187921   7.877   0.527  12.967
62008SOL    HW287922   8.020   0.480  12.947
62009SOL     OW87923   0.980   2.395  11.972
62009SOL    HW187924   0.893   2.358  11.959
62009SOL    HW287925   0.986   2.466  11.907
62010SOL     OW87926   6.704  13.591  11.045
62010SOL    HW187927   6.724  13.499  11.027
62010SOL    HW287928   6.697  13.597  11.140
62011SOL     OW87929   9.427   3.295   4.966
62011SOL    HW187930   9.357   3.282   5.030
62011SOL    HW287931   9.441   3.389   4.965
62012SOL     OW87932  13.577   2.684   2.235
62012SOL    HW187933  13.519   2.656   2.163
62012SOL    HW287934  13.600   2.774   2.214
62013SOL     OW87935  10.940  10.618   8.183
62013SOL    HW187936  10.868  10.556   8.184
62013SOL    HW287937  10.915  10.685   8.247
62014SOL     OW87938   0.395   0.965   0.040
62014SOL    HW187939   0.447   0.933  14.835
62014SOL    HW287940   0.311   0.919   0.032
62015SOL     OW87941   5.779  13.513   7.908
62015SOL    HW187942   5.732  13.588   7.943
62015SOL    HW287943   5.718  13.440   7.918
62016SOL     OW87944   7.351   4.944   6.212
62016SOL    HW187945   7.401   4.863   6.203
62016SOL    HW287946   7.318   4.961   6.124
62017SOL     OW87947   2.943   9.828  13.314
62017SOL    HW187948   2.953   9.812  13.220
62017SOL    HW287949   2.860   9.787  13.337
62018SOL     OW87950  14.576   5.867   2.275
62018SOL    HW187951  14.636   5.881   2.347
62018SOL    HW287952  14.549   5.775   2.284
62019SOL     OW87953   1.305   3.249   6.338
62019SOL    HW187954   1.271   3.193   6.268
62019SOL    HW287955   1.388   3.282   6.305
62020SOL     OW87956  13.624  14.177   2.406
62020SOL    HW187957  13.620  14.237   2.480
62020SOL    HW287958  13.663  14.228   2.335
62021SOL     OW87959  10.389   4.552   7.319
62021SOL    HW187960  10.311   4.605   7.303
62021SOL    HW287961  10.406   4.508   7.236
62022SOL     OW87962   6.493   1.168  11.469
62022SOL    HW187963   6.405   1.192  11.500
62022SOL    HW287964   6.502   1.214  11.385
62023SOL     OW87965  12.737  11.053   6.702
62023SOL    HW187966  12.752  11.147   6.711
62023SOL    HW287967  12.661  11.047   6.644
62024SOL     OW87968   5.428  11.740   0.325
62024SOL    HW187969   5.342  11.716   0.361
62024SOL    HW287970   5.421  11.723   0.231
62025SOL     OW87971   8.005  12.467   0.114
62025SOL    HW187972   7.995  12.485   0.208
62025SOL    HW287973   8.009  12.372   0.107
62026SOL     OW87974   7.714   4.141   1.078
62026SOL    HW187975   7.637   4.171   1.126
62026SOL    HW287976   7.772   4.105   1.145
62027SOL     OW87977   0.587   1.652   4.829
62027SOL    HW187978   0.494   1.669   4.816
62027SOL    HW287979   0.592   1.609   4.915
62028SOL     OW87980   4.154   6.708   6.001
62028SOL    HW187981   4.130   6.784   5.948
62028SOL    HW287982   4.073   6.681   6.043
62029SOL     OW87983   6.615   2.881   0.637
62029SOL    HW187984   6.541   2.867   0.577
62029SOL    HW287985   6.574   2.894   0.723
62030SOL     OW87986   6.095   0.711   8.558
62030SOL    HW187987   6.164   0.777   8.568
62030SOL    HW287988   6.031   0.732   8.625
62031SOL     OW87989   2.102  14.027  11.215
62031SOL    HW187990   2.046  13.969  11.268
62031SOL    HW287991   2.058  14.112  11.220
62032SOL     OW87992   6.840   9.122   7.464
62032SOL    HW187993   6.778   9.050   7.458
62032SOL    HW287994   6.909   9.090   7.522
62033SOL     OW87995   0.409   4.894   4.901
62033SOL    HW187996   0.495   4.876   4.939
62033SOL    HW287997   0.412   4.856   4.813
62034SOL     OW87998   5.175   0.083   1.073
62034SOL    HW187999   5.187   0.003   1.022
62034SOL    HW288000   5.257   0.131   1.064
62035SOL     OW88001   7.806  14.621   8.232
62035SOL    HW188002   7.790  14.543   8.179
62035SOL    HW288003   7.871  14.671   8.182
62036SOL     OW88004   0.201  13.345   9.348
62036SOL    HW188005   0.250  13.396   9.413
62036SOL    HW288006   0.192  13.259   9.387
62037SOL     OW88007   0.382   4.926   1.450
62037SOL    HW188008   0.335   4.874   1.514
62037SOL    HW288009   0.316   4.948   1.384
62038SOL     OW88010   8.462   9.582   0.137
62038SOL    HW188011   8.437   9.587   0.230
62038SOL    HW288012   8.529   9.513   0.134
62039SOL     OW88013  11.069   3.981   4.749
62039SOL    HW188014  10.984   3.936   4.743
62039SOL    HW288015  11.080   3.998   4.843
62040SOL     OW88016   9.197  12.579   6.634
62040SOL    HW188017   9.223  12.658   6.585
62040SOL    HW288018   9.112  12.601   6.671
62041SOL     OW88019   6.390   9.592   2.232
62041SOL    HW188020   6.414   9.527   2.298
62041SOL    HW288021   6.297   9.609   2.247
62042SOL     OW88022   0.029   8.365   9.550
62042SOL    HW188023   0.024   8.438   9.488
62042SOL    HW288024  14.820   8.373   9.604
62043SOL     OW88025  13.809   7.910   0.666
62043SOL    HW188026  13.790   7.816   0.673
62043SOL    HW288027  13.785   7.933   0.576
62044SOL     OW88028  14.607   8.403  12.592
62044SOL    HW188029  14.542   8.347  12.635
62044SOL    HW288030  14.652   8.344  12.532
62045SOL     OW88031   0.812   2.863  13.458
62045SOL    HW188032   0.765   2.946  13.446
62045SOL    HW288033   0.795   2.838  13.548
62046SOL     OW88034  12.761  12.804   8.135
62046SOL    HW188035  12.738  12.734   8.074
62046SOL    HW288036  12.730  12.884   8.093
62047SOL     OW88037   6.959   5.376   3.336
62047SOL    HW188038   6.980   5.297   3.285
62047SOL    HW288039   6.945   5.444   3.270
62048SOL     OW88040   0.375   9.494   1.349
62048SOL    HW188041   0.417   9.483   1.264
62048SOL    HW288042   0.320   9.417   1.360
62049SOL     OW88043   8.279   3.406   3.134
62049SOL    HW188044   8.301   3.337   3.196
62049SOL    HW288045   8.304   3.371   3.049
62050SOL     OW88046   3.775  11.599   5.040
62050SOL    HW188047   3.819  11.536   4.983
62050SOL    HW288048   3.766  11.554   5.124
62051SOL     OW88049   7.654   0.031  10.009
62051SOL    HW188050   7.573   0.080   9.996
62051SOL    HW288051   7.691   0.067  10.090
62052SOL     OW88052   0.376   4.607   8.360
62052SOL    HW188053   0.412   4.567   8.281
62052SOL    HW288054   0.453   4.629   8.412
62053SOL     OW88055   4.368   4.861   5.972
62053SOL    HW188056   4.320   4.778   5.981
62053SOL    HW288057   4.454   4.835   5.938
62054SOL     OW88058  11.344   6.344   1.818
62054SOL    HW188059  11.276   6.279   1.806
62054SOL    HW288060  11.386   6.351   1.732
62055SOL     OW88061  12.204   1.431  10.383
62055SOL    HW188062  12.139   1.490  10.346
62055SOL    HW288063  12.198   1.352  10.329
62056SOL     OW88064   8.355   2.179  11.556
62056SOL    HW188065   8.272   2.225  11.557
62056SOL    HW288066   8.383   2.177  11.647
62057SOL     OW88067   7.267   9.339   5.772
62057SOL    HW188068   7.330   9.269   5.757
62057SOL    HW288069   7.226   9.354   5.687
62058SOL     OW88070   7.839   8.693   2.399
62058SOL    HW188071   7.802   8.666   2.314
62058SOL    HW288072   7.928   8.659   2.398
62059SOL     OW88073   7.008   3.030   7.489
62059SOL    HW188074   7.008   3.125   7.481
62059SOL    HW288075   7.092   3.010   7.531
62060SOL     OW88076   1.267   9.424   8.052
62060SOL    HW188077   1.186   9.385   8.020
62060SOL    HW288078   1.258   9.424   8.147
62061SOL     OW88079   7.833   9.907   9.035
62061SOL    HW188080   7.764   9.842   9.027
62061SOL    HW288081   7.905   9.862   9.079
62062SOL     OW88082  10.055   2.721  10.886
62062SOL    HW188083  10.136   2.732  10.936
62062SOL    HW288084  10.051   2.798  10.829
62063SOL     OW88085   0.463  14.721   9.368
62063SOL    HW188086   0.492  14.804   9.404
62063SOL    HW288087   0.446  14.740   9.276
62064SOL     OW88088   8.400  14.739  13.911
62064SOL    HW188089   8.493  14.719  13.907
62064SOL    HW288090   8.388  14.810  13.848
62065SOL     OW88091   3.058   2.453  13.614
62065SOL    HW188092   3.060   2.453  13.519
62065SOL    HW288093   3.015   2.370  13.637
62066SOL     OW88094   0.490   6.310   3.814
62066SOL    HW188095   0.578   6.322   3.850
62066SOL    HW288096   0.431   6.341   3.882
62067SOL     OW88097   5.936   5.550  11.392
62067SOL    HW188098   6.020   5.596  11.394
62067SOL    HW288099   5.876   5.609  11.438
62068SOL     OW88100   2.110  12.291   2.436
62068SOL    HW188101   2.072  12.223   2.491
62068SOL    HW288102   2.111  12.369   2.490
62069SOL     OW88103  12.155  13.333   6.747
62069SOL    HW188104  12.114  13.398   6.691
62069SOL    HW288105  12.091  13.262   6.754
62070SOL     OW88106  11.074   2.290   2.407
62070SOL    HW188107  10.982   2.312   2.422
62070SOL    HW288108  11.075   2.195   2.399
62071SOL     OW88109   9.406   0.549   6.193
62071SOL    HW188110   9.408   0.454   6.177
62071SOL    HW288111   9.374   0.557   6.283
62072SOL     OW88112   6.038   0.414  10.501
62072SOL    HW188113   6.011   0.385  10.588
62072SOL    HW288114   6.017   0.340  10.444
62073SOL     OW88115   6.917   7.619  13.102
62073SOL    HW188116   6.859   7.543  13.098
62073SOL    HW288117   6.962   7.611  13.186
62074SOL     OW88118  10.523   1.388  10.466
62074SOL    HW188119  10.517   1.345  10.552
62074SOL    HW288120  10.578   1.465  10.481
62075SOL     OW88121   9.593   1.719   3.398
62075SOL    HW188122   9.599   1.806   3.360
62075SOL    HW288123   9.499   1.706   3.414
62076SOL     OW88124   8.083   2.257   0.707
62076SOL    HW188125   8.001   2.235   0.663
62076SOL    HW288126   8.067   2.238   0.799
62077SOL     OW88127   6.229  10.043   7.835
62077SOL    HW188128   6.177  10.104   7.888
62077SOL    HW288129   6.286  10.099   7.783
62078SOL     OW88130   9.251   1.383   6.442
62078SOL    HW188131   9.169   1.382   6.492
62078SOL    HW288132   9.284   1.472   6.452
62079SOL     OW88133  13.012   4.194  12.412
62079SOL    HW188134  13.030   4.265  12.351
62079SOL    HW288135  13.098   4.168  12.445
62080SOL     OW88136   5.848   8.476   5.356
62080SOL    HW188137   5.810   8.529   5.426
62080SOL    HW288138   5.936   8.456   5.386
62081SOL     OW88139   5.655   9.348   0.121
62081SOL    HW188140   5.610   9.431   0.137
62081SOL    HW288141   5.718   9.367   0.051
62082SOL     OW88142   4.251   6.702   4.761
62082SOL    HW188143   4.322   6.716   4.824
62082SOL    HW288144   4.253   6.779   4.705
62083SOL     OW88145   9.732   4.326   6.730
62083SOL    HW188146   9.664   4.282   6.679
62083SOL    HW288147   9.806   4.333   6.669
62084SOL     OW88148   5.033  11.671   4.893
62084SOL    HW188149   5.048  11.764   4.873
62084SOL    HW288150   5.025  11.668   4.989
62085SOL     OW88151   1.846   2.953   4.510
62085SOL    HW188152   1.939   2.973   4.503
62085SOL    HW288153   1.818   2.995   4.592
62086SOL     OW88154   6.011  12.229   3.399
62086SOL    HW188155   5.939  12.216   3.461
62086SOL    HW288156   6.074  12.283   3.448
62087SOL     OW88157   8.588   4.538  12.802
62087SOL    HW188158   8.646   4.530  12.726
62087SOL    HW288159   8.560   4.448  12.820
62088SOL     OW88160   9.018   1.450   4.730
62088SOL    HW188161   9.041   1.537   4.764
62088SOL    HW288162   8.974   1.406   4.803
62089SOL     OW88163   5.133  10.938   2.970
62089SOL    HW188164   5.086  10.878   2.912
62089SOL    HW288165   5.072  11.009   2.987
62090SOL     OW88166   0.792   6.408  10.096
62090SOL    HW188167   0.826   6.325  10.130
62090SOL    HW288168   0.865   6.469  10.105
62091SOL     OW88169  12.052  10.185   7.535
62091SOL    HW188170  12.114  10.197   7.463
62091SOL    HW288171  11.969  10.166   7.493
62092SOL     OW88172   0.091   6.622   5.465
62092SOL    HW188173   0.070   6.631   5.372
62092SOL    HW288174   0.133   6.705   5.488
62093SOL     OW88175   0.351   7.893   5.359
62093SOL    HW188176   0.362   7.881   5.454
62093SOL    HW288177   0.331   7.985   5.349
62094SOL     OW88178   3.798   0.522   9.649
62094SOL    HW188179   3.748   0.449   9.613
62094SOL    HW288180   3.889   0.502   9.627
62095SOL     OW88181  13.336   5.634   6.152
62095SOL    HW188182  13.354   5.540   6.159
62095SOL    HW288183  13.248   5.639   6.116
62096SOL     OW88184   2.556  10.797   1.554
62096SOL    HW188185   2.536  10.708   1.525
62096SOL    HW288186   2.525  10.801   1.644
62097SOL     OW88187   4.691  14.854   3.903
62097SOL    HW188188   4.671  14.867   3.995
62097SOL    HW288189   4.781   0.017   3.893
62098SOL     OW88190   7.733  14.157  14.138
62098SOL    HW188191   7.759  14.101  14.211
62098SOL    HW288192   7.804  14.221  14.130
62099SOL     OW88193   0.136  10.246  11.747
62099SOL    HW188194   0.091  10.162  11.752
62099SOL    HW288195   0.171  10.259  11.835
62100SOL     OW88196   8.197  13.116   2.725
62100SOL    HW188197   8.123  13.084   2.673
62100SOL    HW288198   8.238  13.183   2.671
62101SOL     OW88199   3.511  10.353   1.108
62101SOL    HW188200   3.590  10.302   1.124
62101SOL    HW288201   3.542  10.437   1.073
62102SOL     OW88202   1.653   6.195   4.848
62102SOL    HW188203   1.697   6.221   4.767
62102SOL    HW288204   1.579   6.141   4.819
62103SOL     OW88205   0.599   0.499  14.650
62103SOL    HW188206   0.519   0.503  14.598
62103SOL    HW288207   0.595   0.414  14.693
62104SOL     OW88208   2.775   8.970  13.941
62104SOL    HW188209   2.781   9.018  14.023
62104SOL    HW288210   2.823   8.889  13.957
62105SOL     OW88211  12.812   2.996   2.001
62105SOL    HW188212  12.751   2.951   1.942
62105SOL    HW288213  12.756   3.028   2.072
62106SOL     OW88214   2.938  10.488   4.626
62106SOL    HW188215   2.995  10.505   4.551
62106SOL    HW288216   2.858  10.538   4.608
62107SOL     OW88217   0.378  12.916   4.679
62107SOL    HW188218   0.388  12.889   4.587
62107SOL    HW288219   0.456  12.968   4.697
62108SOL     OW88220  14.758   1.346   2.328
62108SOL    HW188221  14.730   1.343   2.420
62108SOL    HW288222  14.836   1.402   2.328
62109SOL     OW88223   9.541   4.231   6.569
62109SOL    HW188224   9.474   4.250   6.503
62109SOL    HW288225   9.546   4.135   6.570
62110SOL     OW88226   4.681   5.595  14.729
62110SOL    HW188227   4.638   5.635  14.653
62110SOL    HW288228   4.754   5.546  14.691
62111SOL     OW88229   3.210  11.690   4.019
62111SOL    HW188230   3.181  11.781   4.007
62111SOL    HW288231   3.280  11.696   4.085
62112SOL     OW88232  10.433  14.336   5.677
62112SOL    HW188233  10.381  14.382   5.743
62112SOL    HW288234  10.505  14.297   5.727
62113SOL     OW88235   4.445  10.309  13.055
62113SOL    HW188236   4.403  10.381  13.008
62113SOL    HW288237   4.376  10.246  13.070
62114SOL     OW88238   6.708   1.044   4.940
62114SOL    HW188239   6.651   1.033   5.017
62114SOL    HW288240   6.672   0.984   4.875
62115SOL     OW88241  13.004   9.345   8.037
62115SOL    HW188242  12.997   9.440   8.046
62115SOL    HW288243  12.996   9.328   7.943
62116SOL     OW88244  11.382   7.538   8.805
62116SOL    HW188245  11.461   7.580   8.838
62116SOL    HW288246  11.334   7.511   8.883
62117SOL     OW88247   0.930   1.390  11.570
62117SOL    HW188248   0.895   1.476  11.548
62117SOL    HW288249   0.872   1.329  11.524
62118SOL     OW88250   5.965   4.588   8.380
62118SOL    HW188251   5.916   4.659   8.338
62118SOL    HW288252   5.952   4.603   8.474
62119SOL     OW88253   0.858   6.290   8.023
62119SOL    HW188254   0.897   6.374   7.998
62119SOL    HW288255   0.793   6.312   8.089
62120SOL     OW88256   3.130   9.761   7.225
62120SOL    HW188257   3.047   9.762   7.273
62120SOL    HW288258   3.184   9.827   7.270
62121SOL     OW88259   2.786   7.572   4.353
62121SOL    HW188260   2.761   7.589   4.444
62121SOL    HW288261   2.878   7.599   4.347
62122SOL     OW88262   5.572  13.555   8.447
62122SOL    HW188263   5.646  13.602   8.408
62122SOL    HW288264   5.497  13.613   8.432
62123SOL     OW88265  11.821  12.337   9.898
62123SOL    HW188266  11.907  12.360   9.932
62123SOL    HW288267  11.836  12.258   9.846
62124SOL     OW88268  11.464  10.912   0.374
62124SOL    HW188269  11.534  10.974   0.393
62124SOL    HW288270  11.389  10.966   0.349
62125SOL     OW88271   6.523  12.688  11.444
62125SOL    HW188272   6.483  12.773  11.428
62125SOL    HW288273   6.463  12.643  11.503
62126SOL     OW88274   1.805   5.096   3.609
62126SOL    HW188275   1.897   5.102   3.633
62126SOL    HW288276   1.758   5.106   3.692
62127SOL     OW88277   9.301   5.973   1.943
62127SOL    HW188278   9.335   6.010   2.024
62127SOL    HW288279   9.337   5.884   1.940
62128SOL     OW88280   4.164  10.198   0.328
62128SOL    HW188281   4.211  10.131   0.277
62128SOL    HW288282   4.199  10.281   0.296
62129SOL     OW88283  14.050   4.966  12.514
62129SOL    HW188284  14.033   4.900  12.580
62129SOL    HW288285  14.140   4.996  12.531
62130SOL     OW88286  10.703  12.111   5.431
62130SOL    HW188287  10.655  12.076   5.506
62130SOL    HW288288  10.662  12.195   5.413
62131SOL     OW88289  14.160  14.177   6.866
62131SOL    HW188290  14.250  14.154   6.892
62131SOL    HW288291  14.156  14.156   6.773
62132SOL     OW88292   8.518   2.424   6.122
62132SOL    HW188293   8.579   2.357   6.092
62132SOL    HW288294   8.504   2.405   6.215
62133SOL     OW88295   2.466   9.115   3.567
62133SOL    HW188296   2.424   9.081   3.488
62133SOL    HW288297   2.514   9.193   3.537
62134SOL     OW88298   5.259   1.454  13.018
62134SOL    HW188299   5.260   1.510  13.096
62134SOL    HW288300   5.273   1.366  13.051
62135SOL     OW88301   1.026  14.024   6.953
62135SOL    HW188302   1.048  14.117   6.961
62135SOL    HW288303   1.099  13.986   6.906
62136SOL     OW88304   0.699   6.457   0.252
62136SOL    HW188305   0.743   6.535   0.285
62136SOL    HW288306   0.770   6.394   0.238
62137SOL     OW88307   9.075  13.156   4.133
62137SOL    HW188308   9.013  13.094   4.171
62137SOL    HW288309   9.025  13.202   4.066
62138SOL     OW88310   1.211  13.386  11.067
62138SOL    HW188311   1.154  13.312  11.048
62138SOL    HW288312   1.220  13.431  10.982
62139SOL     OW88313  14.120   8.776  14.608
62139SOL    HW188314  14.051   8.841  14.598
62139SOL    HW288315  14.190   8.805  14.550
62140SOL     OW88316   3.202   4.316   5.031
62140SOL    HW188317   3.209   4.279   4.943
62140SOL    HW288318   3.132   4.381   5.024
62141SOL     OW88319  11.477   4.473   8.430
62141SOL    HW188320  11.565   4.503   8.410
62141SOL    HW288321  11.420   4.523   8.371
62142SOL     OW88322   2.190   7.017   6.835
62142SOL    HW188323   2.166   7.035   6.744
62142SOL    HW288324   2.230   7.098   6.865
62143SOL     OW88325   3.800  12.988   4.716
62143SOL    HW188326   3.892  12.961   4.715
62143SOL    HW288327   3.782  13.009   4.807
62144SOL     OW88328   6.814   3.524   1.753
62144SOL    HW188329   6.833   3.440   1.710
62144SOL    HW288330   6.896   3.573   1.748
62145SOL     OW88331   2.391   7.220  11.257
62145SOL    HW188332   2.366   7.133  11.224
62145SOL    HW288333   2.486   7.213  11.269
62146SOL     OW88334   7.348   3.458   1.431
62146SOL    HW188335   7.308   3.531   1.383
62146SOL    HW288336   7.390   3.498   1.507
62147SOL     OW88337  12.129  11.493   4.871
62147SOL    HW188338  12.123  11.578   4.916
62147SOL    HW288339  12.046  11.450   4.892
62148SOL     OW88340   1.198   1.877   6.696
62148SOL    HW188341   1.209   1.797   6.748
62148SOL    HW288342   1.146   1.850   6.621
62149SOL     OW88343   6.441   9.158   4.980
62149SOL    HW188344   6.497   9.236   4.979
62149SOL    HW288345   6.398   9.160   5.065
62150SOL     OW88346  13.786   2.352   5.743
62150SOL    HW188347  13.831   2.371   5.661
62150SOL    HW288348  13.699   2.323   5.716
62151SOL     OW88349   0.526  11.823   8.114
62151SOL    HW188350   0.468  11.882   8.065
62151SOL    HW288351   0.613  11.839   8.077
62152SOL     OW88352  13.008   8.015  11.316
62152SOL    HW188353  12.956   7.988  11.392
62152SOL    HW288354  13.085   8.058  11.352
62153SOL     OW88355   7.110   8.447   6.127
62153SOL    HW188356   7.019   8.457   6.154
62153SOL    HW288357   7.142   8.536   6.114
62154SOL     OW88358   1.643   3.326   1.275
62154SOL    HW188359   1.660   3.302   1.184
62154SOL    HW288360   1.687   3.409   1.287
62155SOL     OW88361   1.894   4.466   7.397
62155SOL    HW188362   1.849   4.386   7.368
62155SOL    HW288363   1.925   4.445   7.485
62156SOL     OW88364   8.950  11.198   5.777
62156SOL    HW188365   8.965  11.168   5.687
62156SOL    HW288366   8.870  11.153   5.805
62157SOL     OW88367   5.760   0.470  13.403
62157SOL    HW188368   5.828   0.524  13.362
62157SOL    HW288369   5.679   0.499  13.362
62158SOL     OW88370   7.415   2.152   8.386
62158SOL    HW188371   7.417   2.152   8.290
62158SOL    HW288372   7.322   2.143   8.407
62159SOL     OW88373   7.256  12.750   4.360
62159SOL    HW188374   7.314  12.681   4.394
62159SOL    HW288375   7.311  12.800   4.300
62160SOL     OW88376   3.714   2.572   3.264
62160SOL    HW188377   3.668   2.490   3.244
62160SOL    HW288378   3.682   2.597   3.350
62161SOL     OW88379  12.418  12.221  10.638
62161SOL    HW188380  12.327  12.219  10.607
62161SOL    HW288381  12.434  12.313  10.659
62162SOL     OW88382   3.177   9.615   6.608
62162SOL    HW188383   3.176   9.605   6.513
62162SOL    HW288384   3.117   9.688   6.625
62163SOL     OW88385   5.549   1.403  12.255
62163SOL    HW188386   5.491   1.372  12.186
62163SOL    HW288387   5.617   1.336  12.261
62164SOL     OW88388  14.589   2.312   9.902
62164SOL    HW188389  14.630   2.235   9.943
62164SOL    HW288390  14.593   2.294   9.808
62165SOL     OW88391   1.095   5.643  13.404
62165SOL    HW188392   1.048   5.581  13.349
62165SOL    HW288393   1.168   5.673  13.349
62166SOL     OW88394   5.607  10.783   4.814
62166SOL    HW188395   5.671  10.847   4.783
62166SOL    HW288396   5.529  10.800   4.762
62167SOL     OW88397  12.490   0.084   9.974
62167SOL    HW188398  12.426   0.090   9.903
62167SOL    HW288399  12.512   0.175   9.995
62168SOL     OW88400   1.827  12.543   5.276
62168SOL    HW188401   1.867  12.615   5.325
62168SOL    HW288402   1.743  12.529   5.318
62169SOL     OW88403   4.620  12.472   8.608
62169SOL    HW188404   4.662  12.444   8.527
62169SOL    HW288405   4.554  12.404   8.626
62170SOL     OW88406  10.097   7.223   2.007
62170SOL    HW188407  10.003   7.216   2.022
62170SOL    HW288408  10.114   7.161   1.936
62171SOL     OW88409  13.978   3.789   0.591
62171SOL    HW188410  14.037   3.864   0.584
62171SOL    HW288411  13.973   3.754   0.502
62172SOL     OW88412   4.890  12.614   7.428
62172SOL    HW188413   4.904  12.706   7.406
62172SOL    HW288414   4.795  12.602   7.418
62173SOL     OW88415   4.145   6.508   2.298
62173SOL    HW188416   4.206   6.569   2.340
62173SOL    HW288417   4.115   6.554   2.220
62174SOL     OW88418   6.870   1.582  13.564
62174SOL    HW188419   6.916   1.666  13.569
62174SOL    HW288420   6.940   1.517  13.571
62175SOL     OW88421   1.604   4.380  10.599
62175SOL    HW188422   1.600   4.447  10.667
62175SOL    HW288423   1.618   4.298  10.646
62176SOL     OW88424  12.059   0.131   5.547
62176SOL    HW188425  12.119   0.063   5.575
62176SOL    HW288426  11.972   0.094   5.563
62177SOL     OW88427  11.826   4.559   9.877
62177SOL    HW188428  11.857   4.650   9.883
62177SOL    HW288429  11.889   4.509   9.928
62178SOL     OW88430   2.715   3.442   5.720
62178SOL    HW188431   2.804   3.417   5.747
62178SOL    HW288432   2.685   3.502   5.789
62179SOL     OW88433  11.717   8.431  10.555
62179SOL    HW188434  11.710   8.346  10.598
62179SOL    HW288435  11.768   8.414  10.476
62180SOL     OW88436  11.407   8.154   7.038
62180SOL    HW188437  11.323   8.121   7.006
62180SOL    HW288438  11.425   8.101   7.116
62181SOL     OW88439   7.571  10.463   4.426
62181SOL    HW188440   7.566  10.551   4.388
62181SOL    HW288441   7.513  10.467   4.502
62182SOL     OW88442  13.849   6.106   3.778
62182SOL    HW188443  13.803   6.140   3.855
62182SOL    HW288444  13.794   6.034   3.747
62183SOL     OW88445   9.975   4.662   2.407
62183SOL    HW188446   9.927   4.744   2.399
62183SOL    HW288447  10.002   4.659   2.499
62184SOL     OW88448  11.631   3.364   2.281
62184SOL    HW188449  11.662   3.274   2.287
62184SOL    HW288450  11.546   3.358   2.237
62185SOL     OW88451   9.047  11.425   0.071
62185SOL    HW188452   9.015  11.337   0.050
62185SOL    HW288453   9.132  11.431   0.029
62186SOL     OW88454   7.706   1.071   0.160
62186SOL    HW188455   7.679   1.008   0.093
62186SOL    HW288456   7.746   1.143   0.111
62187SOL     OW88457   5.565  14.052  12.627
62187SOL    HW188458   5.650  14.028  12.589
62187SOL    HW288459   5.576  14.038  12.721
62188SOL     OW88460   1.844   5.467   3.350
62188SOL    HW188461   1.925   5.513   3.325
62188SOL    HW288462   1.862   5.375   3.330
62189SOL     OW88463   2.691   2.754   1.229
62189SOL    HW188464   2.700   2.677   1.286
62189SOL    HW288465   2.766   2.749   1.170
62190SOL     OW88466   2.354   7.407   8.290
62190SOL    HW188467   2.298   7.330   8.305
62190SOL    HW288468   2.299   7.466   8.239
62191SOL     OW88469   4.923   2.703   8.854
62191SOL    HW188470   4.887   2.693   8.766
62191SOL    HW288471   4.847   2.705   8.911
62192SOL     OW88472   2.144   2.206   4.867
62192SOL    HW188473   2.108   2.129   4.913
62192SOL    HW288474   2.209   2.242   4.926
62193SOL     OW88475   9.901  12.356   6.698
62193SOL    HW188476   9.988  12.342   6.737
62193SOL    HW288477   9.851  12.400   6.767
62194SOL     OW88478   5.932  14.276  12.622
62194SOL    HW188479   5.932  14.370  12.605
62194SOL    HW288480   5.968  14.267  12.710
62195SOL     OW88481   9.573   6.965   5.996
62195SOL    HW188482   9.507   6.949   5.927
62195SOL    HW288483   9.657   6.954   5.951
62196SOL     OW88484  14.419   4.274  11.532
62196SOL    HW188485  14.381   4.310  11.612
62196SOL    HW288486  14.411   4.345  11.468
62197SOL     OW88487   3.664   8.396   7.151
62197SOL    HW188488   3.576   8.434   7.145
62197SOL    HW288489   3.650   8.302   7.153
62198SOL     OW88490   9.265  14.511   4.407
62198SOL    HW188491   9.322  14.586   4.388
62198SOL    HW288492   9.176  14.547   4.403
62199SOL     OW88493  13.127  13.950   1.133
62199SOL    HW188494  13.088  14.032   1.103
62199SOL    HW288495  13.216  13.975   1.161
62200SOL     OW88496   5.212  12.170  13.294
62200SOL    HW188497   5.245  12.098  13.349
62200SOL    HW288498   5.208  12.133  13.206
62201SOL     OW88499  12.297   1.452  10.636
62201SOL    HW188500  12.274   1.423  10.547
62201SOL    HW288501  12.294   1.547  10.632
62202SOL     OW88502   6.457  11.429   5.823
62202SOL    HW188503   6.497  11.369   5.760
62202SOL    HW288504   6.467  11.385   5.908
62203SOL     OW88505  12.830   6.263   6.070
62203SOL    HW188506  12.805   6.200   6.138
62203SOL    HW288507  12.897   6.217   6.018
62204SOL     OW88508   5.190  10.413   0.121
62204SOL    HW188509   5.257  10.345   0.121
62204SOL    HW288510   5.228  10.485   0.071
62205SOL     OW88511   6.803   2.858   6.114
62205SOL    HW188512   6.745   2.857   6.038
62205SOL    HW288513   6.745   2.857   6.190
62206SOL     OW88514  12.471   5.128  13.681
62206SOL    HW188515  12.483   5.104  13.589
62206SOL    HW288516  12.472   5.224  13.681
62207SOL     OW88517   1.659  12.398  13.565
62207SOL    HW188518   1.716  12.389  13.641
62207SOL    HW288519   1.657  12.493  13.548
62208SOL     OW88520   0.132   0.748   9.712
62208SOL    HW188521   0.081   0.687   9.764
62208SOL    HW288522   0.164   0.696   9.638
62209SOL     OW88523   8.081   9.684  11.131
62209SOL    HW188524   8.101   9.778  11.136
62209SOL    HW288525   7.989   9.679  11.159
62210SOL     OW88526  10.006   7.083   1.295
62210SOL    HW188527   9.996   7.175   1.319
62210SOL    HW288528  10.091   7.058   1.331
62211SOL     OW88529   1.193   0.812   9.954
62211SOL    HW188530   1.131   0.841  10.020
62211SOL    HW288531   1.272   0.863   9.970
62212SOL     OW88532  13.926   5.805  12.082
62212SOL    HW188533  13.840   5.766  12.098
62212SOL    HW288534  13.973   5.794  12.164
62213SOL     OW88535   5.340   7.812   9.369
62213SOL    HW188536   5.350   7.864   9.448
62213SOL    HW288537   5.397   7.736   9.383
62214SOL     OW88538   3.409   6.519  14.568
62214SOL    HW188539   3.316   6.499  14.580
62214SOL    HW288540   3.410   6.597  14.512
62215SOL     OW88541   8.590   4.727   1.742
62215SOL    HW188542   8.604   4.717   1.837
62215SOL    HW288543   8.600   4.821   1.727
62216SOL     OW88544   0.143   2.830   5.213
62216SOL    HW188545   0.080   2.872   5.271
62216SOL    HW288546   0.132   2.736   5.227
62217SOL     OW88547   4.715   7.137   7.333
62217SOL    HW188548   4.705   7.043   7.350
62217SOL    HW288549   4.636   7.177   7.370
62218SOL     OW88550   8.055   8.401   5.898
62218SOL    HW188551   8.063   8.424   5.991
62218SOL    HW288552   8.043   8.306   5.898
62219SOL     OW88553   7.344   4.525  11.432
62219SOL    HW188554   7.379   4.614  11.439
62219SOL    HW288555   7.327   4.513  11.339
62220SOL     OW88556   4.321   9.021   4.836
62220SOL    HW188557   4.409   9.019   4.798
62220SOL    HW288558   4.263   9.031   4.760
62221SOL     OW88559   0.725   1.726   2.085
62221SOL    HW188560   0.800   1.740   2.027
62221SOL    HW288561   0.661   1.791   2.058
62222SOL     OW88562  12.111   9.529   1.480
62222SOL    HW188563  12.188   9.473   1.484
62222SOL    HW288564  12.135   9.598   1.418
62223SOL     OW88565  12.870   4.170   7.247
62223SOL    HW188566  12.912   4.254   7.266
62223SOL    HW288567  12.901   4.147   7.159
62224SOL     OW88568  13.297   8.366  14.216
62224SOL    HW188569  13.368   8.414  14.173
62224SOL    HW288570  13.313   8.379  14.309
62225SOL     OW88571   2.002  11.403   9.176
62225SOL    HW188572   2.010  11.314   9.211
62225SOL    HW288573   1.925  11.439   9.219
62226SOL     OW88574   2.700   6.138   8.723
62226SOL    HW188575   2.735   6.051   8.741
62226SOL    HW288576   2.608   6.132   8.749
62227SOL     OW88577   3.914  11.446   0.582
62227SOL    HW188578   3.829  11.482   0.609
62227SOL    HW288579   3.971  11.522   0.573
62228SOL     OW88580  13.905   4.943   9.524
62228SOL    HW188581  13.930   4.854   9.547
62228SOL    HW288582  13.862   4.935   9.439
62229SOL     OW88583   4.589   3.322  10.036
62229SOL    HW188584   4.514   3.270  10.009
62229SOL    HW288585   4.614   3.287  10.121
62230SOL     OW88586   0.523   0.966  13.581
62230SOL    HW188587   0.451   1.029  13.587
62230SOL    HW288588   0.485   0.882  13.606
62231SOL     OW88589   2.207   7.164   8.296
62231SOL    HW188590   2.279   7.115   8.256
62231SOL    HW288591   2.189   7.118   8.378
62232SOL     OW88592   8.648  14.604   8.431
62232SOL    HW188593   8.661  14.574   8.521
62232SOL    HW288594   8.604  14.689   8.441
62233SOL     OW88595  14.358  11.237   7.740
62233SOL    HW188596  14.449  11.266   7.738
62233SOL    HW288597  14.331  11.235   7.648
62234SOL     OW88598  13.349   7.638   4.603
62234SOL    HW188599  13.292   7.681   4.540
62234SOL    HW288600  13.370   7.706   4.667
62235SOL     OW88601   2.359   1.175   2.393
62235SOL    HW188602   2.395   1.214   2.473
62235SOL    HW288603   2.410   1.214   2.322
62236SOL     OW88604  13.802   8.269  13.750
62236SOL    HW188605  13.859   8.221  13.690
62236SOL    HW288606  13.774   8.204  13.814
62237SOL     OW88607  13.019  14.722   5.839
62237SOL    HW188608  13.000  14.660   5.910
62237SOL    HW288609  13.108  14.699   5.811
62238SOL     OW88610   3.379   3.821   7.883
62238SOL    HW188611   3.309   3.837   7.947
62238SOL    HW288612   3.333   3.819   7.799
62239SOL     OW88613  13.389   5.248   2.191
62239SOL    HW188614  13.476   5.239   2.152
62239SOL    HW288615  13.331   5.262   2.116
62240SOL     OW88616   3.051  12.750   9.001
62240SOL    HW188617   2.994  12.827   8.995
62240SOL    HW288618   3.104  12.753   8.921
62241SOL     OW88619  14.257   4.222   2.595
62241SOL    HW188620  14.211   4.290   2.548
62241SOL    HW288621  14.198   4.199   2.668
62242SOL     OW88622  10.838   1.410   5.263
62242SOL    HW188623  10.755   1.410   5.312
62242SOL    HW288624  10.877   1.495   5.283
62243SOL     OW88625  11.850   3.430  10.849
62243SOL    HW188626  11.851   3.357  10.911
62243SOL    HW288627  11.942   3.456  10.841
62244SOL     OW88628   8.601   7.576   8.976
62244SOL    HW188629   8.593   7.661   9.018
62244SOL    HW288630   8.669   7.588   8.910
62245SOL     OW88631   8.790   4.962  11.807
62245SOL    HW188632   8.740   4.884  11.832
62245SOL    HW288633   8.731   5.010  11.749
62246SOL     OW88634   9.418  14.692   4.913
62246SOL    HW188635   9.377  14.734   4.837
62246SOL    HW288636   9.461  14.615   4.877
62247SOL     OW88637  11.629   3.365  12.694
62247SOL    HW188638  11.710   3.362  12.643
62247SOL    HW288639  11.572   3.301  12.651
62248SOL     OW88640   5.789   3.900   0.817
62248SOL    HW188641   5.769   3.876   0.727
62248SOL    HW288642   5.747   3.831   0.870
62249SOL     OW88643   2.437  13.678   2.871
62249SOL    HW188644   2.454  13.665   2.964
62249SOL    HW288645   2.449  13.592   2.832
62250SOL     OW88646   0.801   3.455  13.460
62250SOL    HW188647   0.888   3.449  13.500
62250SOL    HW288648   0.748   3.500  13.526
62251SOL     OW88649   5.727   9.835  10.020
62251SOL    HW188650   5.788   9.807   9.951
62251SOL    HW288651   5.782   9.849  10.097
62252SOL     OW88652   4.829   2.509   6.108
62252SOL    HW188653   4.820   2.415   6.125
62252SOL    HW288654   4.912   2.517   6.062
62253SOL     OW88655   1.242   1.312  13.305
62253SOL    HW188656   1.148   1.294  13.301
62253SOL    HW288657   1.257   1.378  13.238
62254SOL     OW88658   2.646  13.160   2.791
62254SOL    HW188659   2.596  13.127   2.717
62254SOL    HW288660   2.708  13.090   2.811
62255SOL     OW88661   1.294   5.203  11.566
62255SOL    HW188662   1.374   5.203  11.512
62255SOL    HW288663   1.238   5.268  11.524
62256SOL     OW88664  13.364   0.027   3.680
62256SOL    HW188665  13.324  14.815   3.708
62256SOL    HW288666  13.294   0.073   3.633
62257SOL     OW88667  10.543  11.805   7.523
62257SOL    HW188668  10.536  11.726   7.470
62257SOL    HW288669  10.453  11.829   7.542
62258SOL     OW88670   1.889  14.460   7.670
62258SOL    HW188671   1.939  14.452   7.751
62258SOL    HW288672   1.828  14.532   7.687
62259SOL     OW88673   1.536  11.278   2.021
62259SOL    HW188674   1.571  11.195   2.054
62259SOL    HW288675   1.441  11.264   2.017
62260SOL     OW88676   9.779   9.601   3.310
62260SOL    HW188677   9.808   9.557   3.390
62260SOL    HW288678   9.706   9.548   3.279
62261SOL     OW88679  11.884  14.446  14.538
62261SOL    HW188680  11.815  14.436  14.472
62261SOL    HW288681  11.870  14.533  14.575
62262SOL     OW88682   6.756   2.170  14.421
62262SOL    HW188683   6.816   2.225  14.370
62262SOL    HW288684   6.761   2.205  14.510
62263SOL     OW88685   3.596   6.352  12.069
62263SOL    HW188686   3.571   6.259  12.066
62263SOL    HW288687   3.659   6.362  11.996
62264SOL     OW88688  10.959  13.543   5.204
62264SOL    HW188689  10.981  13.550   5.297
62264SOL    HW288690  10.967  13.450   5.185
62265SOL     OW88691   7.299   7.191  10.354
62265SOL    HW188692   7.345   7.107  10.351
62265SOL    HW288693   7.258   7.192  10.440
62266SOL     OW88694  10.752   4.921  11.456
62266SOL    HW188695  10.762   4.892  11.547
62266SOL    HW288696  10.839   4.912  11.417
62267SOL     OW88697   9.442   2.603   1.438
62267SOL    HW188698   9.483   2.535   1.491
62267SOL    HW288699   9.413   2.558   1.359
62268SOL     OW88700  12.928  12.898   0.772
62268SOL    HW188701  12.950  12.847   0.695
62268SOL    HW288702  12.836  12.877   0.789
62269SOL     OW88703   1.097   7.136   2.977
62269SOL    HW188704   1.145   7.188   3.042
62269SOL    HW288705   1.017   7.110   3.022
62270SOL     OW88706   6.852   7.685   2.712
62270SOL    HW188707   6.892   7.743   2.776
62270SOL    HW288708   6.799   7.625   2.764
62271SOL     OW88709   4.384   2.494  11.578
62271SOL    HW188710   4.314   2.472  11.640
62271SOL    HW288711   4.390   2.589  11.582
62272SOL     OW88712  11.999   1.985  12.995
62272SOL    HW188713  12.004   2.014  12.904
62272SOL    HW288714  11.908   2.001  13.021
62273SOL     OW88715   7.878   3.710   8.424
62273SOL    HW188716   7.860   3.790   8.374
62273SOL    HW288717   7.970   3.720   8.451
62274SOL     OW88718   4.010  11.015   0.869
62274SOL    HW188719   4.084  11.009   0.809
62274SOL    HW288720   4.027  10.949   0.936
62275SOL     OW88721  14.796  11.029   0.927
62275SOL    HW188722  14.858  10.959   0.945
62275SOL    HW288723  14.847  11.110   0.935
62276SOL     OW88724   1.698   3.822   2.602
62276SOL    HW188725   1.781   3.808   2.556
62276SOL    HW288726   1.687   3.917   2.603
62277SOL     OW88727   9.602  11.754   3.820
62277SOL    HW188728   9.537  11.718   3.760
62277SOL    HW288729   9.668  11.793   3.763
62278SOL     OW88730   3.251  13.629  11.167
62278SOL    HW188731   3.192  13.553  11.165
62278SOL    HW288732   3.296  13.626  11.082
62279SOL     OW88733   5.776   4.511   8.989
62279SOL    HW188734   5.847   4.499   9.051
62279SOL    HW288735   5.810   4.475   8.907
62280SOL     OW88736  10.314   3.338   2.462
62280SOL    HW188737  10.318   3.287   2.381
62280SOL    HW288738  10.355   3.421   2.440
62281SOL     OW88739  13.194   3.207  11.753
62281SOL    HW188740  13.248   3.212  11.831
62281SOL    HW288741  13.232   3.273  11.694
62282SOL     OW88742   8.032   5.483   1.122
62282SOL    HW188743   8.081   5.408   1.088
62282SOL    HW288744   8.092   5.527   1.182
62283SOL     OW88745   8.517  13.443   8.291
62283SOL    HW188746   8.492  13.375   8.228
62283SOL    HW288747   8.546  13.394   8.369
62284SOL     OW88748  12.651   1.033   6.339
62284SOL    HW188749  12.585   0.978   6.380
62284SOL    HW288750  12.638   1.020   6.245
62285SOL     OW88751   7.266   8.708   3.153
62285SOL    HW188752   7.332   8.713   3.084
62285SOL    HW288753   7.229   8.795   3.157
62286SOL     OW88754   4.587   7.181   5.321
62286SOL    HW188755   4.672   7.222   5.309
62286SOL    HW288756   4.606   7.088   5.334
62287SOL     OW88757   2.182   4.323   5.030
62287SOL    HW188758   2.276   4.339   5.039
62287SOL    HW288759   2.142   4.377   5.099
62288SOL     OW88760  14.428  14.180  14.105
62288SOL    HW188761  14.519  14.183  14.137
62288SOL    HW288762  14.401  14.272  14.102
62289SOL     OW88763   9.708  12.043  12.115
62289SOL    HW188764   9.761  12.121  12.132
62289SOL    HW288765   9.667  12.059  12.030
62290SOL     OW88766  11.019   0.708   0.911
62290SOL    HW188767  11.068   0.786   0.885
62290SOL    HW288768  11.083   0.653   0.955
62291SOL     OW88769   6.994   7.099  14.222
62291SOL    HW188770   7.037   7.016  14.203
62291SOL    HW288771   6.925   7.077  14.283
62292SOL     OW88772   3.385   1.452   9.550
62292SOL    HW188773   3.302   1.500   9.538
62292SOL    HW288774   3.406   1.419   9.462
62293SOL     OW88775   5.202   9.684   6.247
62293SOL    HW188776   5.122   9.684   6.300
62293SOL    HW288777   5.195   9.763   6.193
62294SOL     OW88778   7.168   9.928   4.279
62294SOL    HW188779   7.191  10.016   4.309
62294SOL    HW288780   7.183   9.931   4.184
62295SOL     OW88781   2.484  14.713   9.668
62295SOL    HW188782   2.536  14.641   9.705
62295SOL    HW288783   2.396  14.677   9.661
62296SOL     OW88784  10.008   5.268   6.930
62296SOL    HW188785  10.008   5.204   6.859
62296SOL    HW288786  10.025   5.217   7.009
62297SOL     OW88787   7.426   5.594   5.485
62297SOL    HW188788   7.518   5.620   5.481
62297SOL    HW288789   7.423   5.523   5.549
62298SOL     OW88790   6.369   3.521  12.735
62298SOL    HW188791   6.358   3.466  12.657
62298SOL    HW288792   6.445   3.576  12.715
62299SOL     OW88793   6.431  13.979   3.109
62299SOL    HW188794   6.471  14.053   3.153
62299SOL    HW288795   6.341  14.007   3.091
62300SOL     OW88796  11.447   5.441   7.888
62300SOL    HW188797  11.406   5.399   7.963
62300SOL    HW288798  11.396   5.521   7.874
62301SOL     OW88799   8.283  12.826   6.166
62301SOL    HW188800   8.294  12.747   6.113
62301SOL    HW288801   8.227  12.797   6.239
62302SOL     OW88802  12.856   3.529   2.650
62302SOL    HW188803  12.831   3.581   2.727
62302SOL    HW288804  12.779   3.530   2.595
62303SOL     OW88805  14.429   1.710  12.420
62303SOL    HW188806  14.427   1.699  12.324
62303SOL    HW288807  14.384   1.632  12.453
62304SOL     OW88808   7.006  11.456   4.886
62304SOL    HW188809   7.081  11.475   4.943
62304SOL    HW288810   6.940  11.520   4.912
62305SOL     OW88811   8.737   2.925   4.551
62305SOL    HW188812   8.668   2.913   4.485
62305SOL    HW288813   8.690   2.953   4.630
62306SOL     OW88814  14.320  13.626   3.751
62306SOL    HW188815  14.247  13.661   3.803
62306SOL    HW288816  14.277  13.569   3.687
62307SOL     OW88817   5.422  11.338   4.102
62307SOL    HW188818   5.516  11.350   4.089
62307SOL    HW288819   5.404  11.380   4.186
62308SOL     OW88820  13.465  12.604  13.944
62308SOL    HW188821  13.480  12.542  14.015
62308SOL    HW288822  13.529  12.580  13.876
62309SOL     OW88823   3.684   1.684   8.525
62309SOL    HW188824   3.712   1.762   8.478
62309SOL    HW288825   3.690   1.707   8.617
62310SOL     OW88826   9.387  13.870  11.705
62310SOL    HW188827   9.299  13.832  11.710
62310SOL    HW288828   9.445  13.794  11.697
62311SOL     OW88829   0.177   1.071  12.832
62311SOL    HW188830   0.239   1.012  12.789
62311SOL    HW288831   0.091   1.030  12.819
62312SOL     OW88832   7.533  12.569   7.437
62312SOL    HW188833   7.537  12.520   7.519
62312SOL    HW288834   7.442  12.562   7.409
62313SOL     OW88835  12.738   6.605  11.686
62313SOL    HW188836  12.647   6.575  11.691
62313SOL    HW288837  12.732   6.698  11.667
62314SOL     OW88838   6.288  13.054   4.020
62314SOL    HW188839   6.306  12.967   3.984
62314SOL    HW288840   6.351  13.064   4.091
62315SOL     OW88841  12.222   0.522  11.191
62315SOL    HW188842  12.256   0.434  11.206
62315SOL    HW288843  12.257   0.546  11.105
62316SOL     OW88844   8.293   1.109   8.608
62316SOL    HW188845   8.282   1.202   8.587
62316SOL    HW288846   8.300   1.107   8.703
62317SOL     OW88847   9.590  14.203  11.129
62317SOL    HW188848   9.651  14.163  11.190
62317SOL    HW288849   9.639  14.210  11.047
62318SOL     OW88850  11.638  10.979   8.439
62318SOL    HW188851  11.634  10.941   8.351
62318SOL    HW288852  11.636  10.903   8.498
62319SOL     OW88853   3.432  13.528   2.949
62319SOL    HW188854   3.521  13.507   2.977
62319SOL    HW288855   3.381  13.450   2.969
62320SOL     OW88856  10.314   0.706   9.730
62320SOL    HW188857  10.239   0.665   9.773
62320SOL    HW288858  10.290   0.798   9.722
62321SOL     OW88859  13.410  11.963   0.234
62321SOL    HW188860  13.367  11.992   0.154
62321SOL    HW288861  13.470  11.894   0.206
62322SOL     OW88862   7.381   5.225  10.920
62322SOL    HW188863   7.299   5.237  10.874
62322SOL    HW288864   7.441   5.189  10.854
62323SOL     OW88865   0.590  13.459   7.280
62323SOL    HW188866   0.657  13.421   7.222
62323SOL    HW288867   0.574  13.546   7.244
62324SOL     OW88868   6.730   3.993  10.433
62324SOL    HW188869   6.689   3.930  10.373
62324SOL    HW288870   6.656   4.034  10.477
62325SOL     OW88871   6.060  12.005   6.277
62325SOL    HW188872   6.067  12.039   6.366
62325SOL    HW288873   5.986  12.052   6.239
62326SOL     OW88874   4.291   7.356  10.356
62326SOL    HW188875   4.210   7.406  10.343
62326SOL    HW288876   4.290   7.292  10.284
62327SOL     OW88877  12.329   3.135  13.784
62327SOL    HW188878  12.382   3.215  13.778
62327SOL    HW288879  12.387   3.066  13.753
62328SOL     OW88880  14.684   8.436   9.690
62328SOL    HW188881  14.665   8.529   9.677
62328SOL    HW288882  14.619   8.406   9.753
62329SOL     OW88883  14.463   6.122   3.739
62329SOL    HW188884  14.417   6.123   3.655
62329SOL    HW288885  14.515   6.042   3.736
62330SOL     OW88886   0.343   7.371   1.707
62330SOL    HW188887   0.424   7.321   1.692
62330SOL    HW288888   0.358   7.455   1.665
62331SOL     OW88889   5.509   3.793  14.397
62331SOL    HW188890   5.476   3.823  14.312
62331SOL    HW288891   5.437   3.809  14.458
62332SOL     OW88892   2.066  13.904   3.062
62332SOL    HW188893   2.106  13.985   3.093
62332SOL    HW288894   2.054  13.851   3.141
62333SOL     OW88895   6.630  12.043   1.469
62333SOL    HW188896   6.599  12.107   1.533
62333SOL    HW288897   6.572  12.054   1.394
62334SOL     OW88898   7.470   0.794   6.461
62334SOL    HW188899   7.528   0.869   6.446
62334SOL    HW288900   7.412   0.822   6.531
62335SOL     OW88901   0.126  13.807  11.824
62335SOL    HW188902   0.050  13.757  11.854
62335SOL    HW288903   0.201  13.762  11.864
62336SOL     OW88904   9.799   1.018   1.220
62336SOL    HW188905   9.885   1.001   1.260
62336SOL    HW288906   9.737   0.974   1.278
62337SOL     OW88907  13.858   4.610   6.296
62337SOL    HW188908  13.918   4.580   6.364
62337SOL    HW288909  13.838   4.701   6.319
62338SOL     OW88910   4.863   7.820  11.743
62338SOL    HW188911   4.898   7.876  11.813
62338SOL    HW288912   4.833   7.882  11.676
62339SOL     OW88913   2.915  12.368   5.099
62339SOL    HW188914   2.983  12.423   5.061
62339SOL    HW288915   2.833  12.400   5.060
62340SOL     OW88916   6.533   7.769  14.686
62340SOL    HW188917   6.587   7.703  14.729
62340SOL    HW288918   6.492   7.817  14.758
62341SOL     OW88919   7.162  10.907  12.073
62341SOL    HW188920   7.085  10.882  12.123
62341SOL    HW288921   7.149  10.870  11.986
62342SOL     OW88922   1.463   2.222   4.132
62342SOL    HW188923   1.431   2.174   4.056
62342SOL    HW288924   1.488   2.154   4.195
62343SOL     OW88925   6.642   0.394   6.428
62343SOL    HW188926   6.687   0.351   6.355
62343SOL    HW288927   6.639   0.486   6.404
62344SOL     OW88928   3.805   5.398  14.429
62344SOL    HW188929   3.728   5.395  14.371
62344SOL    HW288930   3.874   5.354  14.379
62345SOL     OW88931   0.934   4.113   5.671
62345SOL    HW188932   0.960   4.080   5.757
62345SOL    HW288933   0.852   4.161   5.688
62346SOL     OW88934   7.269  13.940   7.573
62346SOL    HW188935   7.301  13.850   7.572
62346SOL    HW288936   7.348  13.994   7.571
62347SOL     OW88937   4.393   9.933   6.433
62347SOL    HW188938   4.482   9.967   6.425
62347SOL    HW288939   4.337  10.009   6.417
62348SOL     OW88940   1.942  14.359   4.560
62348SOL    HW188941   2.033  14.376   4.582
62348SOL    HW288942   1.938  14.264   4.548
62349SOL     OW88943   0.388  14.435   8.628
62349SOL    HW188944   0.453  14.492   8.587
62349SOL    HW288945   0.436  14.355   8.649
62350SOL     OW88946  14.467   5.584  12.405
62350SOL    HW188947  14.416   5.569  12.484
62350SOL    HW288948  14.422   5.533  12.337
62351SOL     OW88949   6.765  10.404   0.434
62351SOL    HW188950   6.847  10.362   0.405
62351SOL    HW288951   6.794  10.488   0.471
62352SOL     OW88952   7.401   0.816   7.204
62352SOL    HW188953   7.454   0.857   7.273
62352SOL    HW288954   7.336   0.764   7.252
62353SOL     OW88955   0.302   4.495   0.704
62353SOL    HW188956   0.331   4.406   0.684
62353SOL    HW288957   0.264   4.527   0.622
62354SOL     OW88958   0.000  13.117   1.552
62354SOL    HW188959   0.081  13.134   1.503
62354SOL    HW288960   0.026  13.054   1.619
62355SOL     OW88961   4.655   8.296  12.715
62355SOL    HW188962   4.616   8.383  12.712
62355SOL    HW288963   4.660   8.274  12.808
62356SOL     OW88964   6.826   9.791   7.765
62356SOL    HW188965   6.898   9.848   7.737
62356SOL    HW288966   6.864   9.703   7.767
62357SOL     OW88967   0.561  12.984  11.055
62357SOL    HW188968   0.477  13.028  11.069
62357SOL    HW288969   0.607  12.993  11.139
62358SOL     OW88970  10.738   4.844   2.861
62358SOL    HW188971  10.663   4.864   2.917
62358SOL    HW288972  10.708   4.867   2.773
62359SOL     OW88973   4.711   2.354   2.168
62359SOL    HW188974   4.658   2.421   2.211
62359SOL    HW288975   4.754   2.400   2.096
62360SOL     OW88976   5.926   2.734  11.302
62360SOL    HW188977   5.839   2.754  11.337
62360SOL    HW288978   5.977   2.709  11.379
62361SOL     OW88979   7.254  14.684  14.478
62361SOL    HW188980   7.291  14.651  14.560
62361SOL    HW288981   7.174  14.633  14.465
62362SOL     OW88982   4.294   4.172  14.564
62362SOL    HW188983   4.305   4.195  14.471
62362SOL    HW288984   4.304   4.255  14.610
62363SOL     OW88985  10.884   4.755   0.737
62363SOL    HW188986  10.921   4.799   0.661
62363SOL    HW288987  10.820   4.694   0.700
62364SOL     OW88988   5.054   5.473   1.091
62364SOL    HW188989   5.007   5.476   1.008
62364SOL    HW288990   5.037   5.386   1.125
62365SOL     OW88991   4.339   2.723   2.271
62365SOL    HW188992   4.329   2.775   2.191
62365SOL    HW288993   4.364   2.636   2.239
62366SOL     OW88994  10.232  11.892   4.269
62366SOL    HW188995  10.253  11.983   4.285
62366SOL    HW288996  10.290  11.866   4.197
62367SOL     OW88997   8.818  10.638   4.517
62367SOL    HW188998   8.791  10.617   4.607
62367SOL    HW288999   8.778  10.569   4.464
62368SOL     OW89000   3.712  14.437  14.524
62368SOL    HW189001   3.678  14.399  14.605
62368SOL    HW289002   3.638  14.486  14.489
62369SOL     OW89003   3.074   9.069  12.221
62369SOL    HW189004   3.125   9.007  12.168
62369SOL    HW289005   3.016   9.112  12.158
62370SOL     OW89006   1.188  13.632   1.429
62370SOL    HW189007   1.249  13.558   1.432
62370SOL    HW289008   1.110  13.601   1.475
62371SOL     OW89009   1.375  11.094   5.230
62371SOL    HW189010   1.317  11.135   5.166
62371SOL    HW289011   1.463  11.116   5.200
62372SOL     OW89012   4.575  11.803   0.190
62372SOL    HW189013   4.653  11.854   0.169
62372SOL    HW289014   4.609  11.718   0.219
62373SOL     OW89015  10.609   9.529   9.030
62373SOL    HW189016  10.611   9.594   9.100
62373SOL    HW289017  10.537   9.470   9.053
62374SOL     OW89018   5.430   9.845   0.108
62374SOL    HW189019   5.344   9.819   0.074
62374SOL    HW289020   5.454   9.921   0.055
62375SOL     OW89021  11.101   0.107  12.186
62375SOL    HW189022  11.048   0.027  12.184
62375SOL    HW289023  11.039   0.176  12.210
62376SOL     OW89024   0.248  14.188   6.356
62376SOL    HW189025   0.280  14.277   6.367
62376SOL    HW289026   0.190  14.175   6.431
62377SOL     OW89027   5.664  11.417   0.394
62377SOL    HW189028   5.582  11.417   0.345
62377SOL    HW289029   5.640  11.449   0.481
62378SOL     OW89030   2.172   9.427  12.339
62378SOL    HW189031   2.240   9.385  12.287
62378SOL    HW289032   2.094   9.423  12.284
62379SOL     OW89033  14.249  10.860  10.749
62379SOL    HW189034  14.247  10.905  10.834
62379SOL    HW289035  14.251  10.930  10.684
62380SOL     OW89036   2.423   3.091   5.996
62380SOL    HW189037   2.405   3.005   5.957
62380SOL    HW289038   2.473   3.138   5.929
62381SOL     OW89039   5.585   5.996  10.655
62381SOL    HW189040   5.599   5.957  10.742
62381SOL    HW289041   5.648   6.068  10.651
62382SOL     OW89042  12.487   3.320   7.137
62382SOL    HW189043  12.516   3.237   7.099
62382SOL    HW289044  12.398   3.301   7.169
62383SOL     OW89045   9.079  11.610  12.578
62383SOL    HW189046   9.098  11.691  12.530
62383SOL    HW289047   8.984  11.605  12.580
62384SOL     OW89048  11.722   6.664   7.227
62384SOL    HW189049  11.715   6.662   7.322
62384SOL    HW289050  11.634   6.642   7.196
62385SOL     OW89051  12.636  12.291   1.675
62385SOL    HW189052  12.612  12.198   1.679
62385SOL    HW289053  12.712  12.293   1.617
62386SOL     OW89054   3.267   5.804  11.271
62386SOL    HW189055   3.191   5.774  11.220
62386SOL    HW289056   3.341   5.758  11.231
62387SOL     OW89057  12.198  12.619   4.588
62387SOL    HW189058  12.274  12.652   4.636
62387SOL    HW289059  12.123  12.643   4.642
62388SOL     OW89060   5.900   2.036  11.411
62388SOL    HW189061   5.966   1.968  11.398
62388SOL    HW289062   5.833   1.994  11.465
62389SOL     OW89063  10.519  10.512   7.258
62389SOL    HW189064  10.500  10.518   7.352
62389SOL    HW289065  10.522  10.418   7.241
62390SOL     OW89066  12.188  10.875  14.820
62390SOL    HW189067  12.094  10.895  14.811
62390SOL    HW289068  12.215  10.924   0.028
62391SOL     OW89069  13.498   7.961  11.397
62391SOL    HW189070  13.589   7.937  11.383
62391SOL    HW289071  13.473   8.009  11.318
62392SOL     OW89072   7.693   6.446   2.193
62392SOL    HW189073   7.704   6.510   2.263
62392SOL    HW289074   7.747   6.371   2.221
62393SOL     OW89075   3.271   3.108   6.104
62393SOL    HW189076   3.310   3.176   6.048
62393SOL    HW289077   3.346   3.057   6.135
62394SOL     OW89078  13.573   1.056  13.020
62394SOL    HW189079  13.611   1.087  13.102
62394SOL    HW289080  13.538   1.134  12.979
62395SOL     OW89081   0.546   1.724   3.974
62395SOL    HW189082   0.573   1.770   3.895
62395SOL    HW289083   0.491   1.787   4.020
62396SOL     OW89084  13.225   3.571  12.363
62396SOL    HW189085  13.179   3.597  12.283
62396SOL    HW289086  13.273   3.492  12.339
62397SOL     OW89087   2.053   6.407  12.070
62397SOL    HW189088   2.104   6.472  12.119
62397SOL    HW289089   2.030   6.341  12.136
62398SOL     OW89090  13.362  11.850  11.167
62398SOL    HW189091  13.434  11.806  11.121
62398SOL    HW289092  13.292  11.853  11.102
62399SOL     OW89093  12.062   7.402   5.151
62399SOL    HW189094  12.131   7.397   5.086
62399SOL    HW289095  11.981   7.407   5.100
62400SOL     OW89096   9.177  11.637  14.346
62400SOL    HW189097   9.241  11.666  14.280
62400SOL    HW289098   9.130  11.566  14.303
62401SOL     OW89099   9.630   3.562   7.105
62401SOL    HW189100   9.644   3.623   7.177
62401SOL    HW289101   9.649   3.612   7.026
62402SOL     OW89102  13.795  13.019   5.175
62402SOL    HW189103  13.699  13.017   5.182
62402SOL    HW289104  13.824  13.075   5.246
62403SOL     OW89105  13.536  13.231  14.118
62403SOL    HW189106  13.577  13.259  14.199
62403SOL    HW289107  13.600  13.174  14.076
62404SOL     OW89108   9.999   1.109   9.391
62404SOL    HW189109  10.071   1.087   9.332
62404SOL    HW289110  10.039   1.161   9.460
62405SOL     OW89111  11.775  12.038   8.471
62405SOL    HW189112  11.701  12.097   8.488
62405SOL    HW289113  11.777  12.029   8.376
62406SOL     OW89114   7.156   8.444   7.832
62406SOL    HW189115   7.168   8.532   7.795
62406SOL    HW289116   7.238   8.426   7.878
62407SOL     OW89117  12.790  11.953   4.643
62407SOL    HW189118  12.760  11.908   4.564
62407SOL    HW289119  12.727  11.928   4.710
62408SOL     OW89120   0.519   6.457   3.263
62408SOL    HW189121   0.443   6.516   3.261
62408SOL    HW289122   0.522   6.425   3.353
62409SOL     OW89123   9.214   9.478  12.383
62409SOL    HW189124   9.241   9.500  12.473
62409SOL    HW289125   9.279   9.413  12.354
62410SOL     OW89126  10.292   4.595  13.478
62410SOL    HW189127  10.365   4.645  13.516
62410SOL    HW289128  10.316   4.584  13.386
62411SOL     OW89129  12.911  14.095  10.735
62411SOL    HW189130  12.971  14.053  10.674
62411SOL    HW289131  12.826  14.055  10.717
62412SOL     OW89132   9.803   7.471   9.226
62412SOL    HW189133   9.878   7.469   9.285
62412SOL    HW289134   9.840   7.489   9.140
62413SOL     OW89135  13.699   7.546   8.764
62413SOL    HW189136  13.682   7.605   8.837
62413SOL    HW289137  13.687   7.458   8.801
62414SOL     OW89138  13.994  13.912   0.528
62414SOL    HW189139  14.077  13.864   0.534
62414SOL    HW289140  13.942  13.863   0.464
62415SOL     OW89141   1.041   4.981   7.138
62415SOL    HW189142   0.991   5.038   7.080
62415SOL    HW289143   1.008   4.893   7.120
62416SOL     OW89144  14.567   2.986  14.737
62416SOL    HW189145  14.487   2.934  14.740
62416SOL    HW289146  14.556   3.050  14.808
62417SOL     OW89147  12.863  11.525   1.351
62417SOL    HW189148  12.842  11.432   1.354
62417SOL    HW289149  12.945  11.532   1.400
62418SOL     OW89150   4.420   6.888   1.279
62418SOL    HW189151   4.386   6.967   1.320
62418SOL    HW289152   4.435   6.912   1.187
62419SOL     OW89153   1.456   8.934   3.059
62419SOL    HW189154   1.439   8.840   3.071
62419SOL    HW289155   1.525   8.954   3.122
62420SOL     OW89156   3.672  11.017   8.544
62420SOL    HW189157   3.645  10.955   8.612
62420SOL    HW289158   3.739  10.970   8.493
62421SOL     OW89159  12.298  12.371  13.800
62421SOL    HW189160  12.353  12.449  13.792
62421SOL    HW289161  12.356  12.305  13.838
62422SOL     OW89162   1.436   8.568   8.366
62422SOL    HW189163   1.515   8.517   8.385
62422SOL    HW289164   1.418   8.550   8.274
62423SOL     OW89165  10.175   3.865   7.831
62423SOL    HW189166  10.186   3.913   7.913
62423SOL    HW289167  10.261   3.871   7.788
62424SOL     OW89168  12.683   3.086  12.963
62424SOL    HW189169  12.683   3.182  12.966
62424SOL    HW289170  12.741   3.060  13.035
62425SOL     OW89171   5.636   1.608   8.145
62425SOL    HW189172   5.726   1.609   8.178
62425SOL    HW289173   5.645   1.611   8.050
62426SOL     OW89174   8.294   0.470   6.649
62426SOL    HW189175   8.351   0.467   6.725
62426SOL    HW289176   8.341   0.524   6.585
62427SOL     OW89177  11.445   0.218   5.303
62427SOL    HW189178  11.429   0.142   5.360
62427SOL    HW289179  11.498   0.277   5.356
62428SOL     OW89180  11.505   1.311  10.769
62428SOL    HW189181  11.552   1.386  10.806
62428SOL    HW289182  11.539   1.304  10.680
62429SOL     OW89183   6.484   7.567  13.242
62429SOL    HW189184   6.454   7.477  13.255
62429SOL    HW289185   6.548   7.560  13.171
62430SOL     OW89186   1.830  11.695   1.440
62430SOL    HW189187   1.735  11.700   1.430
62430SOL    HW289188   1.844  11.614   1.488
62431SOL     OW89189   2.403   5.358  11.564
62431SOL    HW189190   2.330   5.301  11.588
62431SOL    HW289191   2.368   5.413  11.494
62432SOL     OW89192  11.422  10.122   0.305
62432SOL    HW189193  11.511  10.088   0.295
62432SOL    HW289194  11.419  10.198   0.246
62433SOL     OW89195   9.803  10.806   2.466
62433SOL    HW189196   9.883  10.755   2.480
62433SOL    HW289197   9.834  10.890   2.432
62434SOL     OW89198  10.178   5.560   5.372
62434SOL    HW189199  10.214   5.510   5.445
62434SOL    HW289200  10.094   5.593   5.405
62435SOL     OW89201   0.437  10.688  11.285
62435SOL    HW189202   0.369  10.754  11.274
62435SOL    HW289203   0.392  10.604  11.276
62436SOL     OW89204   2.482  14.499  10.634
62436SOL    HW189205   2.570  14.501  10.671
62436SOL    HW289206   2.448  14.587  10.648
62437SOL     OW89207  14.521  12.819  10.702
62437SOL    HW189208  14.600  12.778  10.667
62437SOL    HW289209  14.554  12.892  10.755
62438SOL     OW89210   9.738  14.280   5.214
62438SOL    HW189211   9.667  14.214   5.216
62438SOL    HW289212   9.791  14.260   5.291
62439SOL     OW89213   2.375  11.084   0.426
62439SOL    HW189214   2.392  11.170   0.387
62439SOL    HW289215   2.378  11.100   0.520
62440SOL     OW89216   1.242   3.452   4.767
62440SOL    HW189217   1.250   3.542   4.797
62440SOL    HW289218   1.150   3.430   4.783
62441SOL     OW89219   8.037   3.475   5.149
62441SOL    HW189220   8.005   3.390   5.179
62441SOL    HW289221   7.968   3.508   5.091
62442SOL     OW89222   6.497   6.132   0.450
62442SOL    HW189223   6.538   6.218   0.441
62442SOL    HW289224   6.519   6.104   0.539
62443SOL     OW89225   7.689   5.033  13.913
62443SOL    HW189226   7.617   5.070  13.862
62443SOL    HW289227   7.661   4.943  13.932
62444SOL     OW89228   8.197   3.706   7.791
62444SOL    HW189229   8.101   3.701   7.796
62444SOL    HW289230   8.216   3.800   7.797
62445SOL     OW89231   1.139   0.346   1.874
62445SOL    HW189232   1.207   0.308   1.818
62445SOL    HW289233   1.075   0.276   1.885
62446SOL     OW89234   5.536   9.141   3.167
62446SOL    HW189235   5.542   9.137   3.263
62446SOL    HW289236   5.612   9.193   3.140
62447SOL     OW89237   3.918   9.908   3.300
62447SOL    HW189238   3.999   9.951   3.272
62447SOL    HW289239   3.913   9.829   3.247
62448SOL     OW89240   9.716   1.908   2.466
62448SOL    HW189241   9.670   1.990   2.448
62448SOL    HW289242   9.782   1.901   2.396
62449SOL     OW89243   4.773   7.477   3.718
62449SOL    HW189244   4.723   7.538   3.772
62449SOL    HW289245   4.785   7.524   3.635
62450SOL     OW89246   4.932   3.013   3.062
62450SOL    HW189247   4.908   3.070   2.989
62450SOL    HW289248   4.852   2.966   3.084
62451SOL     OW89249   3.972  11.406   3.240
62451SOL    HW189250   3.964  11.312   3.254
62451SOL    HW289251   4.026  11.414   3.162
62452SOL     OW89252   1.968  11.056  12.973
62452SOL    HW189253   1.926  11.128  13.020
62452SOL    HW289254   1.995  10.996  13.042
62453SOL     OW89255  14.709   3.117   4.239
62453SOL    HW189256  14.779   3.054   4.221
62453SOL    HW289257  14.728   3.149   4.327
62454SOL     OW89258  11.968   5.484  11.883
62454SOL    HW189259  11.937   5.394  11.884
62454SOL    HW289260  12.051   5.482  11.930
62455SOL     OW89261   1.732   6.504  10.187
62455SOL    HW189262   1.652   6.545  10.155
62455SOL    HW289263   1.710   6.411  10.195
62456SOL     OW89264  12.890  13.562   2.126
62456SOL    HW189265  12.916  13.617   2.052
62456SOL    HW289266  12.803  13.593   2.149
62457SOL     OW89267  13.071   8.754  12.739
62457SOL    HW189268  13.074   8.671  12.692
62457SOL    HW289269  13.163   8.776  12.755
62458SOL     OW89270   6.298   1.710  10.797
62458SOL    HW189271   6.215   1.751  10.821
62458SOL    HW289272   6.323   1.753  10.715
62459SOL     OW89273   2.899  14.013   7.038
62459SOL    HW189274   2.846  13.962   7.099
62459SOL    HW289275   2.988  13.981   7.050
62460SOL     OW89276   0.834  13.711   6.945
62460SOL    HW189277   0.857  13.685   7.034
62460SOL    HW289278   0.793  13.797   6.954
62461SOL     OW89279   4.614  13.808   5.601
62461SOL    HW189280   4.598  13.714   5.594
62461SOL    HW289281   4.533  13.843   5.638
62462SOL     OW89282  11.394   2.673   3.389
62462SOL    HW189283  11.303   2.686   3.416
62462SOL    HW289284  11.425   2.603   3.446
62463SOL     OW89285   7.535  14.220   2.012
62463SOL    HW189286   7.603  14.267   2.059
62463SOL    HW289287   7.575  14.136   1.990
62464SOL     OW89288   4.796   6.661   5.306
62464SOL    HW189289   4.831   6.677   5.219
62464SOL    HW289290   4.808   6.567   5.319
62465SOL     OW89291   2.991   3.935   9.281
62465SOL    HW189292   2.988   3.915   9.375
62465SOL    HW289293   3.072   3.985   9.270
62466SOL     OW89294  14.136   6.930   4.862
62466SOL    HW189295  14.140   7.022   4.834
62466SOL    HW289296  14.054   6.897   4.826
62467SOL     OW89297  13.671  14.584  14.343
62467SOL    HW189298  13.716  14.507  14.310
62467SOL    HW289299  13.658  14.567  14.436
62468SOL     OW89300  14.410  13.923  12.992
62468SOL    HW189301  14.366  13.896  12.912
62468SOL    HW289302  14.403  14.018  12.992
62469SOL     OW89303   6.321   5.956   6.018
62469SOL    HW189304   6.396   5.900   5.996
62469SOL    HW289305   6.252   5.928   5.958
62470SOL     OW89306  14.012   6.857   0.196
62470SOL    HW189307  13.994   6.810   0.114
62470SOL    HW289308  14.032   6.946   0.169
62471SOL     OW89309  10.052  12.921  12.815
62471SOL    HW189310  10.102  12.944  12.894
62471SOL    HW289311   9.966  12.961  12.829
62472SOL     OW89312  13.599   5.822  13.594
62472SOL    HW189313  13.571   5.840  13.684
62472SOL    HW289314  13.520   5.795  13.549
62473SOL     OW89315   9.584   9.296   6.289
62473SOL    HW189316   9.594   9.220   6.347
62473SOL    HW289317   9.501   9.281   6.245
62474SOL     OW89318   8.777   7.705   9.238
62474SOL    HW189319   8.825   7.740   9.314
62474SOL    HW289320   8.712   7.772   9.219
62475SOL     OW89321   6.017   9.374  10.556
62475SOL    HW189322   6.100   9.419  10.542
62475SOL    HW289323   5.953   9.445  10.568
62476SOL     OW89324   6.900   1.577   3.457
62476SOL    HW189325   6.851   1.616   3.529
62476SOL    HW289326   6.904   1.483   3.478
62477SOL     OW89327  13.168   9.612   9.957
62477SOL    HW189328  13.177   9.542  10.021
62477SOL    HW289329  13.253   9.616   9.914
62478SOL     OW89330   5.853   1.075   7.284
62478SOL    HW189331   5.828   0.992   7.244
62478SOL    HW289332   5.948   1.078   7.278
62479SOL     OW89333  13.441   7.780   1.111
62479SOL    HW189334  13.495   7.739   1.043
62479SOL    HW289335  13.365   7.722   1.119
62480SOL     OW89336  13.284  11.856  13.793
62480SOL    HW189337  13.201  11.888  13.828
62480SOL    HW289338  13.260  11.781  13.739
62481SOL     OW89339   2.660  11.377  11.721
62481SOL    HW189340   2.564  11.374  11.716
62481SOL    HW289341   2.688  11.397  11.631
62482SOL     OW89342  12.567   7.779   6.385
62482SOL    HW189343  12.570   7.754   6.292
62482SOL    HW289344  12.572   7.696   6.432
62483SOL     OW89345   7.002   9.012   0.508
62483SOL    HW189346   6.946   8.935   0.505
62483SOL    HW289347   7.087   8.979   0.536
62484SOL     OW89348   8.127  14.544   7.143
62484SOL    HW189349   8.090  14.474   7.089
62484SOL    HW289350   8.172  14.602   7.081
62485SOL     OW89351  11.429   7.312  12.678
62485SOL    HW189352  11.413   7.237  12.621
62485SOL    HW289353  11.356   7.372  12.660
62486SOL     OW89354   3.140   8.910  13.114
62486SOL    HW189355   3.199   8.837  13.132
62486SOL    HW289356   3.154   8.970  13.187
62487SOL     OW89357   6.602  10.122   8.126
62487SOL    HW189358   6.683  10.165   8.152
62487SOL    HW289359   6.620  10.089   8.038
62488SOL     OW89360   7.555   4.570   3.486
62488SOL    HW189361   7.641   4.558   3.526
62488SOL    HW289362   7.561   4.655   3.442
62489SOL     OW89363  12.651   8.361  11.494
62489SOL    HW189364  12.582   8.398  11.549
62489SOL    HW289365  12.625   8.385  11.405
62490SOL     OW89366   6.441   2.347   5.752
62490SOL    HW189367   6.401   2.362   5.666
62490SOL    HW289368   6.529   2.316   5.733
62491SOL     OW89369   8.725   1.574   5.317
62491SOL    HW189370   8.817   1.548   5.325
62491SOL    HW289371   8.694   1.528   5.239
62492SOL     OW89372   0.014   4.326   1.879
62492SOL    HW189373   0.040   4.398   1.937
62492SOL    HW289374  14.834   4.266   1.935
62493SOL     OW89375   2.686  12.548   0.949
62493SOL    HW189376   2.693  12.553   1.045
62493SOL    HW289377   2.736  12.470   0.925
62494SOL     OW89378   7.584   3.947   8.065
62494SOL    HW189379   7.535   3.901   7.998
62494SOL    HW289380   7.561   4.039   8.053
62495SOL     OW89381  11.294   3.545  13.067
62495SOL    HW189382  11.233   3.477  13.093
62495SOL    HW289383  11.370   3.498  13.035
62496SOL     OW89384  14.623  12.416   2.458
62496SOL    HW189385  14.558  12.356   2.421
62496SOL    HW289386  14.648  12.376   2.541
62497SOL     OW89387  13.797   3.552   4.965
62497SOL    HW189388  13.836   3.633   4.931
62497SOL    HW289389  13.727   3.582   5.023
62498SOL     OW89390  13.156   2.672   8.251
62498SOL    HW189391  13.251   2.667   8.246
62498SOL    HW289392  13.129   2.705   8.165
62499SOL     OW89393   2.228   5.219   6.769
62499SOL    HW189394   2.211   5.310   6.745
62499SOL    HW289395   2.237   5.173   6.685
62500SOL     OW89396  13.932   4.757  13.335
62500SOL    HW189397  13.926   4.822  13.405
62500SOL    HW289398  13.897   4.677  13.373
62501SOL     OW89399  12.150   4.254   7.054
62501SOL    HW189400  12.211   4.180   7.057
62501SOL    HW289401  12.088   4.236   7.124
62502SOL     OW89402  12.226  13.067   4.886
62502SOL    HW189403  12.302  13.014   4.910
62502SOL    HW289404  12.169  13.063   4.963
62503SOL     OW89405   5.087  14.616   4.934
62503SOL    HW189406   5.168  14.660   4.960
62503SOL    HW289407   5.032  14.686   4.899
62504SOL     OW89408  10.488   0.783   3.342
62504SOL    HW189409  10.547   0.825   3.280
62504SOL    HW289410  10.516   0.691   3.342
62505SOL     OW89411   2.809   4.822   4.033
62505SOL    HW189412   2.724   4.779   4.022
62505SOL    HW289413   2.825   4.820   4.127
62506SOL     OW89414  14.278   6.894   7.891
62506SOL    HW189415  14.300   6.932   7.976
62506SOL    HW289416  14.342   6.825   7.878
62507SOL     OW89417   1.085  10.425  10.619
62507SOL    HW189418   1.034  10.502  10.642
62507SOL    HW289419   1.030  10.377  10.558
62508SOL     OW89420  10.968   8.147   0.533
62508SOL    HW189421  10.885   8.187   0.509
62508SOL    HW289422  11.034   8.202   0.492
62509SOL     OW89423   6.951   3.998   4.499
62509SOL    HW189424   6.992   3.921   4.459
62509SOL    HW289425   6.924   3.968   4.586
62510SOL     OW89426  14.171   5.227   1.433
62510SOL    HW189427  14.216   5.148   1.463
62510SOL    HW289428  14.129   5.263   1.511
62511SOL     OW89429   8.687  12.787   3.983
62511SOL    HW189430   8.631  12.716   4.014
62511SOL    HW289431   8.773  12.747   3.969
62512SOL     OW89432  11.522  10.956  10.113
62512SOL    HW189433  11.525  10.976  10.207
62512SOL    HW289434  11.612  10.971  10.083
62513SOL     OW89435  12.359   3.390  12.950
62513SOL    HW189436  12.391   3.309  12.909
62513SOL    HW289437  12.386   3.382  13.041
62514SOL     OW89438  13.400   2.721   0.349
62514SOL    HW189439  13.330   2.657   0.334
62514SOL    HW289440  13.422   2.753   0.262
62515SOL     OW89441  11.066   1.237  11.709
62515SOL    HW189442  11.096   1.240  11.619
62515SOL    HW289443  11.022   1.152  11.717
62516SOL     OW89444   2.111   1.243  13.099
62516SOL    HW189445   2.070   1.258  13.184
62516SOL    HW289446   2.202   1.222  13.120
62517SOL     OW89447   9.393   6.634   0.951
62517SOL    HW189448   9.380   6.633   1.045
62517SOL    HW289449   9.475   6.680   0.938
62518SOL     OW89450  11.102  13.851  11.125
62518SOL    HW189451  11.022  13.830  11.077
62518SOL    HW289452  11.107  13.783  11.193
62519SOL     OW89453  11.163   0.028   7.938
62519SOL    HW189454  11.132   0.116   7.962
62519SOL    HW289455  11.236   0.045   7.878
62520SOL     OW89456   0.955   2.084   7.164
62520SOL    HW189457   1.020   2.014   7.167
62520SOL    HW289458   1.002   2.162   7.191
62521SOL     OW89459   1.612  11.399  11.680
62521SOL    HW189460   1.592  11.347  11.602
62521SOL    HW289461   1.601  11.338  11.753
62522SOL     OW89462  14.678  13.098  10.761
62522SOL    HW189463  14.629  13.167  10.805
62522SOL    HW289464  14.711  13.043  10.832
62523SOL     OW89465  12.740   6.656   6.008
62523SOL    HW189466  12.738   6.593   6.081
62523SOL    HW289467  12.682   6.727   6.037
62524SOL     OW89468   6.257   1.905   0.560
62524SOL    HW189469   6.300   1.953   0.631
62524SOL    HW289470   6.233   1.821   0.600
62525SOL     OW89471   5.667  12.517  13.281
62525SOL    HW189472   5.754  12.490  13.310
62525SOL    HW289473   5.659  12.482  13.193
62526SOL     OW89474   1.820   9.527  11.985
62526SOL    HW189475   1.732   9.522  11.949
62526SOL    HW289476   1.872   9.571  11.918
62527SOL     OW89477   7.500   7.077   5.400
62527SOL    HW189478   7.568   7.032   5.350
62527SOL    HW289479   7.539   7.162   5.421
62528SOL     OW89480   6.626   4.322   8.465
62528SOL    HW189481   6.674   4.398   8.499
62528SOL    HW289482   6.632   4.256   8.534
62529SOL     OW89483  13.535   2.766  10.417
62529SOL    HW189484  13.493   2.849  10.395
62529SOL    HW289485  13.608   2.759  10.354
62530SOL     OW89486  10.393   4.874   6.906
62530SOL    HW189487  10.322   4.812   6.890
62530SOL    HW289488  10.353   4.960   6.889
62531SOL     OW89489  10.476   0.252   7.329
62531SOL    HW189490  10.418   0.320   7.363
62531SOL    HW289491  10.491   0.276   7.237
62532SOL     OW89492  10.983   6.193   4.447
62532SOL    HW189493  11.062   6.241   4.422
62532SOL    HW289494  10.916   6.225   4.387
62533SOL     OW89495   5.328  14.408   9.838
62533SOL    HW189496   5.280  14.451   9.767
62533SOL    HW289497   5.369  14.332   9.796
62534SOL     OW89498   7.463  14.444   9.908
62534SOL    HW189499   7.515  14.517   9.941
62534SOL    HW289500   7.462  14.381   9.980
62535SOL     OW89501   4.409  12.997   4.593
62535SOL    HW189502   4.367  12.937   4.532
62535SOL    HW289503   4.471  12.942   4.642
62536SOL     OW89504   1.226   5.051   8.921
62536SOL    HW189505   1.196   5.139   8.946
62536SOL    HW289506   1.315   5.065   8.888
62537SOL     OW89507   7.839   0.634   9.935
62537SOL    HW189508   7.917   0.643   9.990
62537SOL    HW289509   7.871   0.588   9.857
62538SOL     OW89510  13.086   1.993  10.264
62538SOL    HW189511  13.017   1.946  10.216
62538SOL    HW289512  13.038   2.054  10.320
62539SOL     OW89513   9.321   3.803  13.107
62539SOL    HW189514   9.291   3.780  13.018
62539SOL    HW289515   9.256   3.865  13.139
62540SOL     OW89516   5.700   1.812   4.357
62540SOL    HW189517   5.675   1.781   4.270
62540SOL    HW289518   5.755   1.741   4.392
62541SOL     OW89519   8.821   6.107   2.429
62541SOL    HW189520   8.777   6.100   2.344
62541SOL    HW289521   8.751   6.095   2.493
62542SOL     OW89522  11.811  14.322   8.312
62542SOL    HW189523  11.779  14.357   8.395
62542SOL    HW289524  11.901  14.294   8.332
62543SOL     OW89525   3.452   9.662   8.384
62543SOL    HW189526   3.366   9.630   8.356
62543SOL    HW289527   3.448   9.757   8.370
62544SOL     OW89528   6.167   6.358  12.531
62544SOL    HW189529   6.206   6.369  12.444
62544SOL    HW289530   6.114   6.278  12.524
62545SOL     OW89531  12.142  14.600  10.592
62545SOL    HW189532  12.101  14.514  10.600
62545SOL    HW289533  12.087  14.648  10.531
62546SOL     OW89534  12.131   2.383   1.806
62546SOL    HW189535  12.097   2.296   1.787
62546SOL    HW289536  12.082   2.441   1.748
62547SOL     OW89537   4.943   0.162  11.591
62547SOL    HW189538   4.981   0.076  11.608
62547SOL    HW289539   5.018   0.222  11.595
62548SOL     OW89540  14.767   9.901   7.405
62548SOL    HW189541  14.776   9.995   7.387
62548SOL    HW289542  14.673   9.885   7.395
62549SOL     OW89543   1.154  11.616  14.480
62549SOL    HW189544   1.138  11.564  14.559
62549SOL    HW289545   1.177  11.552  14.413
62550SOL     OW89546  13.088   7.262  10.748
62550SOL    HW189547  13.005   7.309  10.739
62550SOL    HW289548  13.080   7.215  10.832
62551SOL     OW89549   3.910  10.161  11.097
62551SOL    HW189550   3.858  10.136  11.174
62551SOL    HW289551   3.863  10.236  11.060
62552SOL     OW89552  14.305   9.245  10.408
62552SOL    HW189553  14.369   9.254  10.338
62552SOL    HW289554  14.342   9.178  10.466
62553SOL     OW89555  12.349   3.073   2.376
62553SOL    HW189556  12.320   3.162   2.356
62553SOL    HW289557  12.311   3.055   2.463
62554SOL     OW89558  12.456  10.185   2.713
62554SOL    HW189559  12.428  10.238   2.787
62554SOL    HW289560  12.492  10.249   2.651
62555SOL     OW89561  11.738   1.352   4.681
62555SOL    HW189562  11.692   1.334   4.763
62555SOL    HW289563  11.699   1.291   4.618
62556SOL     OW89564   0.228   9.636   6.243
62556SOL    HW189565   0.313   9.677   6.232
62556SOL    HW289566   0.244   9.562   6.302
62557SOL     OW89567   4.344  13.551   7.796
62557SOL    HW189568   4.262  13.600   7.798
62557SOL    HW289569   4.324  13.474   7.741
62558SOL     OW89570  11.709   5.648  10.452
62558SOL    HW189571  11.793   5.615  10.423
62558SOL    HW289572  11.690   5.599  10.532
62559SOL     OW89573   3.638  13.240   8.732
62559SOL    HW189574   3.631  13.161   8.679
62559SOL    HW289575   3.686  13.213   8.810
62560SOL     OW89576   8.774   5.683  11.002
62560SOL    HW189577   8.796   5.767  10.962
62560SOL    HW289578   8.805   5.691  11.093
62561SOL     OW89579   0.260   2.148  12.188
62561SOL    HW189580   0.320   2.146  12.262
62561SOL    HW289581   0.206   2.069  12.199
62562SOL     OW89582  10.448  13.673   2.470
62562SOL    HW189583  10.455  13.765   2.442
62562SOL    HW289584  10.539  13.647   2.486
62563SOL     OW89585   7.012  12.248  14.241
62563SOL    HW189586   6.920  12.240  14.264
62563SOL    HW289587   7.022  12.340  14.214
62564SOL     OW89588   2.202   2.495  10.744
62564SOL    HW189589   2.162   2.439  10.812
62564SOL    HW289590   2.133   2.557  10.721
62565SOL     OW89591   3.281  12.364   2.532
62565SOL    HW189592   3.331  12.424   2.588
62565SOL    HW289593   3.305  12.277   2.563
62566SOL     OW89594   6.452   4.538   7.922
62566SOL    HW189595   6.521   4.546   7.987
62566SOL    HW289596   6.436   4.443   7.915
62567SOL     OW89597   9.596   6.523  11.573
62567SOL    HW189598   9.667   6.513  11.510
62567SOL    HW289599   9.638   6.556  11.652
62568SOL     OW89600  11.860   4.649   7.644
62568SOL    HW189601  11.914   4.721   7.609
62568SOL    HW289602  11.796   4.633   7.575
62569SOL     OW89603   8.239   6.650   7.016
62569SOL    HW189604   8.182   6.583   6.979
62569SOL    HW289605   8.324   6.635   6.975
62570SOL     OW89606   1.544   2.747  13.507
62570SOL    HW189607   1.628   2.722  13.545
62570SOL    HW289608   1.559   2.746  13.413
62571SOL     OW89609  11.068   0.239   2.175
62571SOL    HW189610  11.001   0.172   2.164
62571SOL    HW289611  11.131   0.222   2.105
62572SOL     OW89612   9.484   9.570   8.687
62572SOL    HW189613   9.429   9.594   8.762
62572SOL    HW289614   9.470   9.639   8.623
62573SOL     OW89615  13.103  11.591   4.250
62573SOL    HW189616  13.100  11.567   4.158
62573SOL    HW289617  13.015  11.624   4.269
62574SOL     OW89618   6.609  11.987   7.152
62574SOL    HW189619   6.652  11.915   7.198
62574SOL    HW289620   6.522  11.991   7.190
62575SOL     OW89621   7.323   5.650   4.648
62575SOL    HW189622   7.361   5.580   4.702
62575SOL    HW289623   7.344   5.625   4.558
62576SOL     OW89624   3.707   4.828   1.977
62576SOL    HW189625   3.777   4.769   2.005
62576SOL    HW289626   3.692   4.884   2.053
62577SOL     OW89627   7.844   4.308  12.798
62577SOL    HW189628   7.922   4.260  12.770
62577SOL    HW289629   7.785   4.240  12.830
62578SOL     OW89630   5.197   5.252  12.441
62578SOL    HW189631   5.137   5.211  12.503
62578SOL    HW289632   5.204   5.190  12.369
62579SOL     OW89633  13.055   6.891   2.545
62579SOL    HW189634  12.976   6.942   2.563
62579SOL    HW289635  13.111   6.907   2.620
62580SOL     OW89636  14.595   5.606   7.504
62580SOL    HW189637  14.644   5.684   7.532
62580SOL    HW289638  14.569   5.625   7.414
62581SOL     OW89639   3.761   3.334   5.797
62581SOL    HW189640   3.704   3.361   5.870
62581SOL    HW289641   3.700   3.314   5.726
62582SOL     OW89642  11.902   5.464   2.929
62582SOL    HW189643  11.923   5.513   2.850
62582SOL    HW289644  11.927   5.521   3.001
62583SOL     OW89645   1.861   4.016   7.699
62583SOL    HW189646   1.902   4.007   7.613
62583SOL    HW289647   1.919   4.075   7.748
62584SOL     OW89648  12.688  11.429   8.823
62584SOL    HW189649  12.722  11.516   8.802
62584SOL    HW289650  12.752  11.369   8.784
62585SOL     OW89651   2.338  11.067   6.774
62585SOL    HW189652   2.408  11.016   6.815
62585SOL    HW289653   2.294  11.005   6.716
62586SOL     OW89654  13.602   9.257   8.694
62586SOL    HW189655  13.574   9.212   8.774
62586SOL    HW289656  13.586   9.350   8.712
62587SOL     OW89657   3.462   0.762   0.102
62587SOL    HW189658   3.406   0.796   0.032
62587SOL    HW289659   3.462   0.830   0.169
62588SOL     OW89660  13.465   0.202   2.723
62588SOL    HW189661  13.416   0.256   2.661
62588SOL    HW289662  13.556   0.230   2.712
62589SOL     OW89663   8.395   1.835  11.575
62589SOL    HW189664   8.376   1.929  11.581
62589SOL    HW289665   8.432   1.823  11.488
62590SOL     OW89666   7.698   3.429  11.268
62590SOL    HW189667   7.650   3.430  11.351
62590SOL    HW289668   7.743   3.345  11.267
62591SOL     OW89669   8.272   9.461  14.240
62591SOL    HW189670   8.330   9.513  14.184
62591SOL    HW289671   8.330   9.400  14.285
62592SOL     OW89672  13.172   7.069  10.584
62592SOL    HW189673  13.138   7.158  10.591
62592SOL    HW289674  13.096   7.013  10.599
62593SOL     OW89675   0.331   9.033   3.101
62593SOL    HW189676   0.245   9.062   3.072
62593SOL    HW289677   0.374   9.113   3.132
62594SOL     OW89678   0.023   5.777  10.720
62594SOL    HW189679   0.076   5.787  10.641
62594SOL    HW289680   0.078   5.813  10.790
62595SOL     OW89681  12.358   1.304  14.803
62595SOL    HW189682  12.430   1.241  14.810
62595SOL    HW289683  12.319   1.284  14.718
62596SOL     OW89684  11.964   7.056   9.902
62596SOL    HW189685  12.012   6.978   9.876
62596SOL    HW289686  12.021   7.100   9.965
62597SOL     OW89687   1.288   9.333   0.933
62597SOL    HW189688   1.286   9.333   0.837
62597SOL    HW289689   1.369   9.287   0.955
62598SOL     OW89690   6.649  13.635  14.001
62598SOL    HW189691   6.659  13.597  14.089
62598SOL    HW289692   6.640  13.559  13.943
62599SOL     OW89693   1.012  11.828   1.932
62599SOL    HW189694   1.080  11.854   1.995
62599SOL    HW289695   0.930  11.846   1.977
62600SOL     OW89696   1.682  12.946   7.442
62600SOL    HW189697   1.683  12.899   7.525
62600SOL    HW289698   1.716  13.033   7.462
62601SOL     OW89699  10.693   5.492   3.176
62601SOL    HW189700  10.711   5.527   3.263
62601SOL    HW289701  10.660   5.567   3.126
62602SOL     OW89702  11.569   6.924   5.294
62602SOL    HW189703  11.568   6.922   5.198
62602SOL    HW289704  11.502   6.860   5.320
62603SOL     OW89705  13.624   4.305  12.345
62603SOL    HW189706  13.606   4.211  12.343
62603SOL    HW289707  13.667   4.320  12.429
62604SOL     OW89708   6.323  12.794   0.509
62604SOL    HW189709   6.263  12.835   0.446
62604SOL    HW289710   6.342  12.708   0.471
62605SOL     OW89711   6.164  12.680  11.615
62605SOL    HW189712   6.151  12.589  11.642
62605SOL    HW289713   6.161  12.678  11.520
62606SOL     OW89714   2.339   9.760  14.499
62606SOL    HW189715   2.403   9.831  14.494
62606SOL    HW289716   2.294   9.761  14.415
62607SOL     OW89717  14.228  11.294  13.284
62607SOL    HW189718  14.311  11.325  13.319
62607SOL    HW289719  14.239  11.199  13.275
62608SOL     OW89720   2.754  13.462   7.751
62608SOL    HW189721   2.695  13.447   7.825
62608SOL    HW289722   2.719  13.406   7.682
62609SOL     OW89723   0.676  13.624  11.559
62609SOL    HW189724   0.743  13.598  11.496
62609SOL    HW289725   0.656  13.715  11.537
62610SOL     OW89726   7.414   0.943   3.329
62610SOL    HW189727   7.380   1.031   3.345
62610SOL    HW289728   7.443   0.945   3.238
62611SOL     OW89729   2.303   5.078   0.539
62611SOL    HW189730   2.208   5.079   0.529
62611SOL    HW289731   2.333   5.009   0.480
62612SOL     OW89732   1.768   6.235  12.716
62612SOL    HW189733   1.712   6.208  12.643
62612SOL    HW289734   1.745   6.326  12.732
62613SOL     OW89735   1.135  13.504   6.651
62613SOL    HW189736   1.042  13.492   6.630
62613SOL    HW289737   1.135  13.550   6.734
62614SOL     OW89738   4.057   8.811   3.415
62614SOL    HW189739   4.125   8.878   3.423
62614SOL    HW289740   3.984   8.855   3.371
62615SOL     OW89741   6.548  14.609   6.655
62615SOL    HW189742   6.554  14.704   6.669
62615SOL    HW289743   6.484  14.599   6.585
62616SOL     OW89744   3.518  12.035  14.148
62616SOL    HW189745   3.461  11.962  14.171
62616SOL    HW289746   3.460  12.100  14.109
62617SOL     OW89747  13.812  13.171   3.897
62617SOL    HW189748  13.744  13.110   3.867
62617SOL    HW289749  13.883  13.114   3.927
62618SOL     OW89750   6.439  10.840   1.219
62618SOL    HW189751   6.513  10.810   1.166
62618SOL    HW289752   6.381  10.764   1.225
62619SOL     OW89753   6.630   6.798   0.261
62619SOL    HW189754   6.700   6.836   0.314
62619SOL    HW289755   6.552   6.804   0.317
62620SOL     OW89756  10.651   1.389   9.058
62620SOL    HW189757  10.659   1.320   9.123
62620SOL    HW289758  10.687   1.467   9.101
62621SOL     OW89759  11.273   5.559  10.358
62621SOL    HW189760  11.197   5.615  10.345
62621SOL    HW289761  11.339   5.593  10.298
62622SOL     OW89762   6.021   8.993   0.312
62622SOL    HW189763   6.003   8.926   0.246
62622SOL    HW289764   5.986   9.074   0.274
62623SOL     OW89765  13.890  14.310   6.665
62623SOL    HW189766  13.849  14.279   6.745
62623SOL    HW289767  13.922  14.230   6.622
62624SOL     OW89768   6.279   4.229  11.873
62624SOL    HW189769   6.223   4.153  11.888
62624SOL    HW289770   6.318   4.248  11.958
62625SOL     OW89771   5.211   4.294   5.828
62625SOL    HW189772   5.231   4.283   5.735
62625SOL    HW289773   5.202   4.388   5.840
62626SOL     OW89774   7.019   3.624   1.100
62626SOL    HW189775   7.056   3.631   1.012
62626SOL    HW289776   6.924   3.620   1.086
62627SOL     OW89777   4.699   0.209   7.278
62627SOL    HW189778   4.758   0.156   7.224
62627SOL    HW289779   4.698   0.295   7.236
62628SOL     OW89780   6.212  10.304   4.269
62628SOL    HW189781   6.245  10.253   4.195
62628SOL    HW289782   6.121  10.324   4.245
62629SOL     OW89783   5.072  11.591  13.218
62629SOL    HW189784   4.979  11.584  13.198
62629SOL    HW289785   5.075  11.616  13.311
62630SOL     OW89786   1.192   1.119   7.918
62630SOL    HW189787   1.225   1.133   8.006
62630SOL    HW289788   1.164   1.027   7.917
62631SOL     OW89789  12.363   1.424   7.035
62631SOL    HW189790  12.376   1.392   6.945
62631SOL    HW289791  12.370   1.519   7.028
62632SOL     OW89792  13.503   0.935  11.247
62632SOL    HW189793  13.529   1.002  11.310
62632SOL    HW289794  13.440   0.881  11.295
62633SOL     OW89795   6.135  10.637   9.747
62633SOL    HW189796   6.146  10.596   9.661
62633SOL    HW289797   6.057  10.595   9.783
62634SOL     OW89798   8.964  11.605  11.473
62634SOL    HW189799   8.977  11.598  11.378
62634SOL    HW289800   9.052  11.604  11.510
62635SOL     OW89801   4.682   4.764   4.133
62635SOL    HW189802   4.616   4.764   4.201
62635SOL    HW289803   4.747   4.700   4.162
62636SOL     OW89804   5.093   0.678  11.018
62636SOL    HW189805   5.124   0.767  11.000
62636SOL    HW289806   5.020   0.689  11.079
62637SOL     OW89807   4.924   9.981  10.660
62637SOL    HW189808   4.925  10.003  10.567
62637SOL    HW289809   5.010   9.942  10.676
62638SOL     OW89810   3.128   7.330   3.108
62638SOL    HW189811   3.080   7.406   3.141
62638SOL    HW289812   3.177   7.363   3.033
62639SOL     OW89813  12.037   3.336   4.975
62639SOL    HW189814  12.025   3.425   5.006
62639SOL    HW289815  11.955   3.315   4.931
62640SOL     OW89816   4.903   8.676   2.881
62640SOL    HW189817   4.838   8.733   2.921
62640SOL    HW289818   4.963   8.735   2.836
62641SOL     OW89819   5.251   4.402   0.898
62641SOL    HW189820   5.177   4.462   0.895
62641SOL    HW289821   5.217   4.325   0.943
62642SOL     OW89822  14.082  10.777  11.706
62642SOL    HW189823  14.057  10.757  11.616
62642SOL    HW289824  14.108  10.870  11.703
62643SOL     OW89825   2.192   7.664   2.855
62643SOL    HW189826   2.151   7.676   2.941
62643SOL    HW289827   2.120   7.675   2.793
62644SOL     OW89828  13.662  13.416  10.795
62644SOL    HW189829  13.584  13.439  10.846
62644SOL    HW289830  13.675  13.323  10.810
62645SOL     OW89831   7.638  14.612   7.349
62645SOL    HW189832   7.696  14.589   7.276
62645SOL    HW289833   7.631  14.531   7.400
62646SOL     OW89834   6.975   8.430   2.682
62646SOL    HW189835   6.963   8.493   2.611
62646SOL    HW289836   6.979   8.345   2.639
62647SOL     OW89837   2.158  11.757  13.310
62647SOL    HW189838   2.147  11.776  13.217
62647SOL    HW289839   2.238  11.803  13.335
62648SOL     OW89840   6.632   4.669   9.990
62648SOL    HW189841   6.593   4.592  10.032
62648SOL    HW289842   6.628   4.650   9.896
62649SOL     OW89843  10.681   7.553   3.108
62649SOL    HW189844  10.765   7.598   3.106
62649SOL    HW289845  10.666   7.525   3.017
62650SOL     OW89846  11.321   2.097   1.849
62650SOL    HW189847  11.377   2.103   1.927
62650SOL    HW289848  11.254   2.163   1.863
62651SOL     OW89849   6.933   9.300   4.581
62651SOL    HW189850   6.843   9.276   4.605
62651SOL    HW289851   6.982   9.218   4.588
62652SOL     OW89852  12.736   4.499  11.452
62652SOL    HW189853  12.757   4.564  11.385
62652SOL    HW289854  12.718   4.551  11.531
62653SOL     OW89855  13.289   3.383   7.361
62653SOL    HW189856  13.313   3.474   7.376
62653SOL    HW289857  13.199   3.386   7.328
62654SOL     OW89858   8.385  12.355   7.554
62654SOL    HW189859   8.480  12.350   7.568
62654SOL    HW289860   8.366  12.288   7.489
62655SOL     OW89861   5.501   0.963   1.587
62655SOL    HW189862   5.554   0.938   1.512
62655SOL    HW289863   5.444   0.888   1.603
62656SOL     OW89864  11.106  13.669  11.949
62656SOL    HW189865  11.061  13.640  11.869
62656SOL    HW289866  11.087  13.763  11.954
62657SOL     OW89867   7.124   2.949   9.671
62657SOL    HW189868   7.201   2.896   9.688
62657SOL    HW289869   7.095   2.922   9.584
62658SOL     OW89870  10.909  13.114   1.671
62658SOL    HW189871  10.914  13.192   1.616
62658SOL    HW289872  10.985  13.120   1.729
62659SOL     OW89873   4.829   9.243   8.936
62659SOL    HW189874   4.840   9.338   8.936
62659SOL    HW289875   4.735   9.229   8.927
62660SOL     OW89876   6.508   6.776   9.424
62660SOL    HW189877   6.535   6.750   9.512
62660SOL    HW289878   6.502   6.871   9.427
62661SOL     OW89879   9.671  14.395  12.300
62661SOL    HW189880   9.706  14.484  12.297
62661SOL    HW289881   9.724  14.346  12.238
62662SOL     OW89882  14.191  13.031   9.794
62662SOL    HW189883  14.120  12.996   9.740
62662SOL    HW289884  14.191  12.975   9.872
62663SOL     OW89885  13.706   7.859   3.233
62663SOL    HW189886  13.764   7.784   3.234
62663SOL    HW289887  13.736   7.912   3.159
62664SOL     OW89888   4.065  11.478   2.520
62664SOL    HW189889   4.122  11.528   2.461
62664SOL    HW289890   3.978  11.516   2.506
62665SOL     OW89891   9.227   3.814   0.690
62665SOL    HW189892   9.194   3.727   0.669
62665SOL    HW289893   9.270   3.803   0.775
62666SOL     OW89894   4.197   3.987   6.884
62666SOL    HW189895   4.286   4.013   6.859
62666SOL    HW289896   4.201   3.892   6.891
62667SOL     OW89897  10.943   2.853   4.119
62667SOL    HW189898  11.007   2.784   4.137
62667SOL    HW289899  10.978   2.930   4.163
62668SOL     OW89900   3.852  14.080  13.856
62668SOL    HW189901   3.781  14.085  13.793
62668SOL    HW289902   3.815  14.035  13.932
62669SOL     OW89903   7.901  11.701   4.822
62669SOL    HW189904   7.867  11.713   4.734
62669SOL    HW289905   7.893  11.788   4.862
62670SOL     OW89906  12.995  10.706  11.614
62670SOL    HW189907  13.012  10.660  11.696
62670SOL    HW289908  13.074  10.693  11.562
62671SOL     OW89909  10.664   9.037   3.705
62671SOL    HW189910  10.655   9.012   3.613
62671SOL    HW289911  10.635   8.960   3.754
62672SOL     OW89912   3.289  13.398  12.848
62672SOL    HW189913   3.247  13.465  12.902
62672SOL    HW289914   3.229  13.384  12.775
62673SOL     OW89915   4.029   1.845   2.855
62673SOL    HW189916   4.098   1.779   2.858
62673SOL    HW289917   3.948   1.795   2.852
62674SOL     OW89918   6.225   7.477   6.797
62674SOL    HW189919   6.172   7.405   6.763
62674SOL    HW289920   6.210   7.549   6.736
62675SOL     OW89921  14.710  11.687   4.065
62675SOL    HW189922  14.699  11.640   4.147
62675SOL    HW289923  14.630  11.738   4.055
62676SOL     OW89924   2.628  14.345   6.676
62676SOL    HW189925   2.652  14.291   6.752
62676SOL    HW289926   2.670  14.429   6.693
62677SOL     OW89927   6.322  11.476   0.888
62677SOL    HW189928   6.399  11.439   0.844
62677SOL    HW289929   6.269  11.400   0.912
62678SOL     OW89930  10.684  11.204   5.595
62678SOL    HW189931  10.642  11.137   5.540
62678SOL    HW289932  10.662  11.287   5.552
62679SOL     OW89933   1.618  10.547  10.074
62679SOL    HW189934   1.571  10.472  10.037
62679SOL    HW289935   1.550  10.613  10.088
62680SOL     OW89936   5.834   5.321  10.243
62680SOL    HW189937   5.751   5.360  10.272
62680SOL    HW289938   5.858   5.372  10.166
62681SOL     OW89939   4.209   7.929  11.075
62681SOL    HW189940   4.223   7.882  11.157
62681SOL    HW289941   4.122   7.969  11.084
62682SOL     OW89942  12.049  11.594   2.249
62682SOL    HW189943  12.109  11.550   2.188
62682SOL    HW289944  12.051  11.686   2.222
62683SOL     OW89945   3.658   3.463   2.316
62683SOL    HW189946   3.562   3.462   2.317
62683SOL    HW289947   3.681   3.540   2.368
62684SOL     OW89948   3.814  13.498   9.577
62684SOL    HW189949   3.743  13.493   9.513
62684SOL    HW289950   3.803  13.420   9.631
62685SOL     OW89951   2.487  10.740  11.394
62685SOL    HW189952   2.471  10.652  11.359
62685SOL    HW289953   2.576  10.736  11.429
62686SOL     OW89954   1.172  12.020   0.346
62686SOL    HW189955   1.187  12.093   0.286
62686SOL    HW289956   1.088  11.984   0.320
62687SOL     OW89957   3.621   6.268   9.238
62687SOL    HW189958   3.696   6.241   9.290
62687SOL    HW289959   3.587   6.345   9.284
62688SOL     OW89960   6.453   9.862   5.440
62688SOL    HW189961   6.470   9.955   5.427
62688SOL    HW289962   6.399   9.858   5.519
62689SOL     OW89963   1.181  10.789   8.780
62689SOL    HW189964   1.271  10.803   8.808
62689SOL    HW289965   1.153  10.873   8.744
62690SOL     OW89966   8.374   0.957  14.181
62690SOL    HW189967   8.294   0.921  14.144
62690SOL    HW289968   8.439   0.950  14.111
62691SOL     OW89969   1.295   7.291  14.728
62691SOL    HW189970   1.265   7.314  14.816
62691SOL    HW289971   1.335   7.372  14.695
62692SOL     OW89972   3.598   2.257   6.288
62692SOL    HW189973   3.626   2.314   6.359
62692SOL    HW289974   3.587   2.171   6.329
62693SOL     OW89975   2.164   9.163  14.483
62693SOL    HW189976   2.158   9.258  14.467
62693SOL    HW289977   2.238   9.153  14.543
62694SOL     OW89978   1.997   4.057   1.620
62694SOL    HW189979   2.017   4.034   1.530
62694SOL    HW289980   2.019   4.150   1.627
62695SOL     OW89981  13.684  13.445   8.586
62695SOL    HW189982  13.599  13.425   8.626
62695SOL    HW289983  13.747  13.434   8.657
62696SOL     OW89984   8.751  10.154  10.530
62696SOL    HW189985   8.819  10.167  10.464
62696SOL    HW289986   8.681  10.108  10.484
62697SOL     OW89987  12.577  14.520   1.647
62697SOL    HW189988  12.510  14.543   1.711
62697SOL    HW289989  12.640  14.467   1.696
62698SOL     OW89990   2.838   4.813  14.187
62698SOL    HW189991   2.907   4.748  14.199
62698SOL    HW289992   2.869   4.890  14.236
62699SOL     OW89993   8.041  13.173   7.104
62699SOL    HW189994   8.117  13.231   7.101
62699SOL    HW289995   7.998  13.186   7.019
62700SOL     OW89996   9.339   8.875   8.284
62700SOL    HW189997   9.323   8.803   8.345
62700SOL    HW289998   9.252   8.897   8.251
62701SOL     OW89999   5.616   7.755   4.902
62701SOL    HW190000   5.622   7.671   4.947
62701SOL    HW290001   5.547   7.802   4.949
62702SOL     OW90002  13.716   6.682   1.007
62702SOL    HW190003  13.657   6.749   0.972
62702SOL    HW290004  13.657   6.617   1.048
62703SOL     OW90005   1.914  14.754   1.360
62703SOL    HW190006   1.982  14.739   1.427
62703SOL    HW290007   1.893  14.666   1.329
62704SOL     OW90008   9.729  14.491   5.041
62704SOL    HW190009   9.666  14.459   4.976
62704SOL    HW290010   9.732  14.423   5.108
62705SOL     OW90011  14.552   3.239   5.812
62705SOL    HW190012  14.610   3.171   5.777
62705SOL    HW290013  14.527   3.291   5.736
62706SOL     OW90014   7.555   8.426  14.693
62706SOL    HW190015   7.509   8.342  14.704
62706SOL    HW290016   7.515   8.483  14.759
62707SOL     OW90017   4.887   7.451   1.579
62707SOL    HW190018   4.839   7.370   1.566
62707SOL    HW290019   4.821   7.520   1.574
62708SOL     OW90020  11.844   1.741  14.541
62708SOL    HW190021  11.910   1.672  14.544
62708SOL    HW290022  11.859   1.793  14.620
62709SOL     OW90023   2.346   5.158  13.193
62709SOL    HW190024   2.270   5.181  13.140
62709SOL    HW290025   2.420   5.163  13.132
62710SOL     OW90026  11.163   1.881   4.850
62710SOL    HW190027  11.116   1.830   4.915
62710SOL    HW290028  11.155   1.831   4.769
62711SOL     OW90029  12.700   4.469   6.686
62711SOL    HW190030  12.659   4.547   6.722
62711SOL    HW290031  12.793   4.479   6.707
62712SOL     OW90032  11.821  10.530   8.608
62712SOL    HW190033  11.820  10.539   8.703
62712SOL    HW290034  11.849  10.440   8.592
62713SOL     OW90035   2.184  13.880   6.439
62713SOL    HW190036   2.278  13.895   6.429
62713SOL    HW290037   2.143  13.953   6.393
62714SOL     OW90038   6.141   2.105   7.886
62714SOL    HW190039   6.166   2.021   7.847
62714SOL    HW290040   6.115   2.160   7.813
62715SOL     OW90041   3.703  12.506   7.667
62715SOL    HW190042   3.774  12.557   7.630
62715SOL    HW290043   3.642  12.571   7.704
62716SOL     OW90044  11.597   5.867  13.829
62716SOL    HW190045  11.590   5.916  13.910
62716SOL    HW290046  11.569   5.928  13.761
62717SOL     OW90047  12.980   2.062  12.674
62717SOL    HW190048  13.015   2.125  12.611
62717SOL    HW290049  12.911   2.109  12.720
62718SOL     OW90050   5.944   3.158  12.803
62718SOL    HW190051   5.910   3.188  12.719
62718SOL    HW290052   6.038   3.171  12.797
62719SOL     OW90053  11.758   2.050   8.137
62719SOL    HW190054  11.698   1.976   8.148
62719SOL    HW290055  11.826   2.034   8.202
62720SOL     OW90056   3.571  10.648   1.017
62720SOL    HW190057   3.596  10.695   1.097
62720SOL    HW290058   3.504  10.703   0.977
62721SOL     OW90059   5.260  11.808  11.933
62721SOL    HW190060   5.300  11.792  11.847
62721SOL    HW290061   5.333  11.838  11.988
62722SOL     OW90062  12.548   9.352   1.101
62722SOL    HW190063  12.455   9.330   1.101
62722SOL    HW290064  12.591   9.274   1.137
62723SOL     OW90065   5.967  14.592  14.500
62723SOL    HW190066   5.950  14.520  14.560
62723SOL    HW290067   5.962  14.670  14.554
62724SOL     OW90068   9.568   2.818   9.659
62724SOL    HW190069   9.570   2.815   9.563
62724SOL    HW290070   9.480   2.787   9.682
62725SOL     OW90071   7.288   6.709   6.586
62725SOL    HW190072   7.194   6.703   6.608
62725SOL    HW290073   7.302   6.801   6.565
62726SOL     OW90074   5.558   5.441   6.619
62726SOL    HW190075   5.569   5.431   6.525
62726SOL    HW290076   5.617   5.377   6.658
62727SOL     OW90077   2.513   8.731   1.334
62727SOL    HW190078   2.457   8.796   1.376
62727SOL    HW290079   2.533   8.668   1.403
62728SOL     OW90080  13.217   9.892  10.541
62728SOL    HW190081  13.182   9.974  10.507
62728SOL    HW290082  13.234   9.839  10.463
62729SOL     OW90083   6.863   1.908   7.608
62729SOL    HW190084   6.870   1.826   7.559
62729SOL    HW290085   6.769   1.921   7.621
62730SOL     OW90086   7.740   3.476   2.067
62730SOL    HW190087   7.722   3.480   2.161
62730SOL    HW290088   7.818   3.421   2.061
62731SOL     OW90089   5.650   3.895   1.228
62731SOL    HW190090   5.728   3.949   1.217
62731SOL    HW290091   5.673   3.810   1.190
62732SOL     OW90092  12.719   7.120   8.275
62732SOL    HW190093  12.801   7.111   8.227
62732SOL    HW290094  12.694   7.211   8.262
62733SOL     OW90095   3.051  12.576   7.259
62733SOL    HW190096   3.059  12.632   7.335
62733SOL    HW290097   3.080  12.630   7.185
62734SOL     OW90098   8.026  13.551   6.791
62734SOL    HW190099   8.074  13.480   6.750
62734SOL    HW290100   8.080  13.628   6.777
62735SOL     OW90101   5.562   0.219  10.031
62735SOL    HW190102   5.609   0.183   9.955
62735SOL    HW290103   5.495   0.153  10.051
62736SOL     OW90104   4.516   9.446   9.568
62736SOL    HW190105   4.593   9.393   9.587
62736SOL    HW290106   4.453   9.383   9.532
62737SOL     OW90107  10.553   7.689  11.938
62737SOL    HW190108  10.568   7.783  11.953
62737SOL    HW290109  10.577   7.647  12.020
62738SOL     OW90110   1.732   3.258   3.314
62738SOL    HW190111   1.742   3.353   3.327
62738SOL    HW290112   1.659   3.233   3.371
62739SOL     OW90113   6.462   0.742   5.510
62739SOL    HW190114   6.409   0.692   5.572
62739SOL    HW290115   6.498   0.677   5.451
62740SOL     OW90116   1.281  14.789  10.536
62740SOL    HW190117   1.356  14.819  10.485
62740SOL    HW290118   1.266  14.699  10.505
62741SOL     OW90119   0.255  11.870  11.276
62741SOL    HW190120   0.174  11.921  11.273
62741SOL    HW290121   0.320  11.930  11.314
62742SOL     OW90122   6.495   2.434   8.564
62742SOL    HW190123   6.473   2.500   8.630
62742SOL    HW290124   6.587   2.449   8.545
62743SOL     OW90125   2.549  10.434   7.346
62743SOL    HW190126   2.456  10.412   7.347
62743SOL    HW290127   2.581  10.410   7.433
62744SOL     OW90128   9.351   1.586  12.040
62744SOL    HW190129   9.434   1.575  12.087
62744SOL    HW290130   9.285   1.546  12.097
62745SOL     OW90131  11.623   8.186   4.425
62745SOL    HW190132  11.681   8.112   4.445
62745SOL    HW290133  11.559   8.151   4.363
62746SOL     OW90134   3.295  14.184  14.072
62746SOL    HW190135   3.372  14.139  14.107
62746SOL    HW290136   3.272  14.134  13.993
62747SOL     OW90137   3.908   7.401   9.266
62747SOL    HW190138   3.934   7.486   9.229
62747SOL    HW290139   3.818   7.389   9.237
62748SOL     OW90140   4.074   5.717   2.163
62748SOL    HW190141   4.140   5.700   2.230
62748SOL    HW290142   4.108   5.673   2.085
62749SOL     OW90143   4.388  13.144   4.022
62749SOL    HW190144   4.423  13.061   3.992
62749SOL    HW290145   4.465  13.196   4.045
62750SOL     OW90146  14.654  14.144   1.079
62750SOL    HW190147  14.623  14.054   1.064
62750SOL    HW290148  14.743  14.133   1.112
62751SOL     OW90149   9.420  13.709  11.426
62751SOL    HW190150   9.458  13.637  11.478
62751SOL    HW290151   9.470  13.786  11.453
62752SOL     OW90152   4.929   2.878   6.017
62752SOL    HW190153   4.870   2.935   6.066
62752SOL    HW290154   4.871   2.827   5.961
62753SOL     OW90155   0.201   8.874  13.624
62753SOL    HW190156   0.111   8.849  13.641
62753SOL    HW290157   0.244   8.793  13.596
62754SOL     OW90158   7.773  10.799   1.998
62754SOL    HW190159   7.841  10.857   2.032
62754SOL    HW290160   7.792  10.715   2.039
62755SOL     OW90161   7.500   2.705   8.750
62755SOL    HW190162   7.466   2.787   8.715
62755SOL    HW290163   7.439   2.638   8.718
62756SOL     OW90164  11.843   6.675   7.896
62756SOL    HW190165  11.889   6.622   7.961
62756SOL    HW290166  11.813   6.612   7.830
62757SOL     OW90167   2.230   2.059   7.929
62757SOL    HW190168   2.149   2.101   7.959
62757SOL    HW290169   2.202   2.000   7.860
62758SOL     OW90170  10.629   1.257   3.799
62758SOL    HW190171  10.613   1.346   3.831
62758SOL    HW290172  10.708   1.264   3.745
62759SOL     OW90173   8.951  10.096  14.172
62759SOL    HW190174   9.004  10.168  14.137
62759SOL    HW290175   8.997  10.069  14.252
62760SOL     OW90176   3.641   2.121   6.858
62760SOL    HW190177   3.615   2.161   6.775
62760SOL    HW290178   3.575   2.151   6.921
62761SOL     OW90179  11.452   4.885   2.766
62761SOL    HW190180  11.420   4.973   2.744
62761SOL    HW290181  11.378   4.843   2.810
62762SOL     OW90182   5.018  12.902   6.708
62762SOL    HW190183   4.935  12.904   6.662
62762SOL    HW290184   5.083  12.878   6.641
62763SOL     OW90185  11.821   6.151   0.022
62763SOL    HW190186  11.884   6.195  14.834
62763SOL    HW290187  11.848   6.059   0.020
62764SOL     OW90188   7.747   0.503  12.197
62764SOL    HW190189   7.760   0.552  12.278
62764SOL    HW290190   7.752   0.568  12.128
62765SOL     OW90191   2.900   1.527  14.614
62765SOL    HW190192   2.983   1.572  14.629
62765SOL    HW290193   2.895   1.516  14.519
62766SOL     OW90194   7.488   7.745   6.150
62766SOL    HW190195   7.540   7.819   6.183
62766SOL    HW290196   7.428   7.785   6.086
62767SOL     OW90197   7.393   5.892  11.568
62767SOL    HW190198   7.447   5.824  11.527
62767SOL    HW290199   7.456   5.959  11.594
62768SOL     OW90200   2.348   2.921   6.417
62768SOL    HW190201   2.412   2.981   6.379
62768SOL    HW290202   2.287   2.901   6.345
62769SOL     OW90203   9.426   7.659  13.793
62769SOL    HW190204   9.338   7.694  13.809
62769SOL    HW290205   9.461   7.641  13.880
62770SOL     OW90206   3.180  12.885   4.038
62770SOL    HW190207   3.204  12.852   3.951
62770SOL    HW290208   3.171  12.980   4.025
62771SOL     OW90209   0.004  14.554  11.001
62771SOL    HW190210  14.854  14.625  10.940
62771SOL    HW290211  14.830  14.478  10.964
62772SOL     OW90212  10.608   5.132   6.749
62772SOL    HW190213  10.641   5.053   6.791
62772SOL    HW290214  10.656   5.137   6.667
62773SOL     OW90215   5.104   3.044   7.811
62773SOL    HW190216   5.160   3.012   7.740
62773SOL    HW290217   5.082   2.965   7.862
62774SOL     OW90218   3.168   4.771   0.729
62774SOL    HW190219   3.231   4.813   0.788
62774SOL    HW290220   3.095   4.833   0.726
62775SOL     OW90221   9.412   5.905  12.304
62775SOL    HW190222   9.365   5.933  12.383
62775SOL    HW290223   9.363   5.943  12.232
62776SOL     OW90224   6.136   0.367   6.839
62776SOL    HW190225   6.053   0.414   6.847
62776SOL    HW290226   6.170   0.364   6.929
62777SOL     OW90227   4.916   2.098   7.571
62777SOL    HW190228   4.920   2.018   7.519
62777SOL    HW290229   4.893   2.068   7.659
62778SOL     OW90230   3.739   4.687   8.759
62778SOL    HW190231   3.748   4.755   8.692
62778SOL    HW290232   3.775   4.609   8.718
62779SOL     OW90233   1.486   9.994   3.416
62779SOL    HW190234   1.521   9.942   3.488
62779SOL    HW290235   1.506   9.943   3.337
62780SOL     OW90236   8.072   8.909   8.720
62780SOL    HW190237   8.146   8.913   8.659
62780SOL    HW290238   8.011   8.846   8.681
62781SOL     OW90239  11.226   2.119   4.738
62781SOL    HW190240  11.163   2.185   4.765
62781SOL    HW290241  11.197   2.039   4.784
62782SOL     OW90242   2.938  13.978  13.373
62782SOL    HW190243   3.034  13.978  13.378
62782SOL    HW290244   2.912  14.059  13.417
62783SOL     OW90245   7.132  11.430   2.947
62783SOL    HW190246   7.185  11.366   2.898
62783SOL    HW290247   7.042  11.398   2.939
62784SOL     OW90248  12.101   1.797   9.077
62784SOL    HW190249  12.076   1.878   9.123
62784SOL    HW290250  12.173   1.824   9.020
62785SOL     OW90251  11.921   0.789   4.645
62785SOL    HW190252  11.865   0.866   4.637
62785SOL    HW290253  12.001   0.823   4.685
62786SOL     OW90254   9.906  13.055   8.022
62786SOL    HW190255   9.971  13.102   7.971
62786SOL    HW290256   9.835  13.036   7.960
62787SOL     OW90257   9.921   9.624   8.023
62787SOL    HW190258   9.996   9.675   7.993
62787SOL    HW290259   9.938   9.609   8.116
62788SOL     OW90260   7.110   1.691  10.414
62788SOL    HW190261   7.039   1.627  10.414
62788SOL    HW290262   7.082   1.759  10.475
62789SOL     OW90263   5.060  10.989   4.740
62789SOL    HW190264   5.014  10.905   4.727
62789SOL    HW290265   4.990  11.054   4.738
62790SOL     OW90266  14.499  10.341   4.778
62790SOL    HW190267  14.463  10.413   4.727
62790SOL    HW290268  14.578  10.316   4.730
62791SOL     OW90269   6.464   2.833   7.537
62791SOL    HW190270   6.393   2.893   7.513
62791SOL    HW290271   6.540   2.891   7.550
62792SOL     OW90272   6.956   1.969   4.110
62792SOL    HW190273   6.997   2.055   4.115
62792SOL    HW290274   7.029   1.908   4.102
62793SOL     OW90275   6.749   0.939   3.554
62793SOL    HW190276   6.807   0.870   3.523
62793SOL    HW290277   6.732   0.993   3.477
62794SOL     OW90278  12.753   6.347  12.827
62794SOL    HW190279  12.837   6.322  12.789
62794SOL    HW290280  12.701   6.267  12.826
62795SOL     OW90281   8.196   4.624  13.658
62795SOL    HW190282   8.115   4.653  13.615
62795SOL    HW290283   8.177   4.629  13.751
62796SOL     OW90284   6.570   0.196  10.883
62796SOL    HW190285   6.656   0.173  10.846
62796SOL    HW290286   6.590   0.227  10.971
62797SOL     OW90287   0.905   6.165   5.639
62797SOL    HW190288   0.998   6.173   5.618
62797SOL    HW290289   0.882   6.250   5.677
62798SOL     OW90290  14.317   0.528   5.008
62798SOL    HW190291  14.229   0.566   5.009
62798SOL    HW290292  14.303   0.436   4.987
62799SOL     OW90293  12.065   2.700  10.148
62799SOL    HW190294  12.084   2.792  10.168
62799SOL    HW290295  11.975   2.702  10.115
62800SOL     OW90296  13.548  10.580   5.171
62800SOL    HW190297  13.643  10.591   5.171
62800SOL    HW290298  13.513  10.668   5.157
62801SOL     OW90299   4.202   9.953   2.664
62801SOL    HW190300   4.115   9.984   2.638
62801SOL    HW290301   4.256   9.962   2.586
62802SOL     OW90302  12.104  14.481  13.788
62802SOL    HW190303  12.142  14.552  13.737
62802SOL    HW290304  12.141  14.402  13.750
62803SOL     OW90305   0.308  12.227   3.179
62803SOL    HW190306   0.232  12.258   3.130
62803SOL    HW290307   0.366  12.189   3.113
62804SOL     OW90308  11.560  10.555   7.222
62804SOL    HW190309  11.476  10.600   7.235
62804SOL    HW290310  11.626  10.622   7.242
62805SOL     OW90311   0.822   5.290   0.608
62805SOL    HW190312   0.898   5.346   0.624
62805SOL    HW290313   0.858   5.210   0.571
62806SOL     OW90314   2.199   4.669  10.188
62806SOL    HW190315   2.249   4.622  10.255
62806SOL    HW290316   2.265   4.716  10.137
62807SOL     OW90317  11.123   5.183   7.138
62807SOL    HW190318  11.034   5.164   7.110
62807SOL    HW290319  11.178   5.149   7.067
62808SOL     OW90320  11.597  13.773  12.907
62808SOL    HW190321  11.686  13.748  12.931
62808SOL    HW290322  11.566  13.827  12.979
62809SOL     OW90323   9.580   8.141   9.069
62809SOL    HW190324   9.558   8.215   9.125
62809SOL    HW290325   9.509   8.138   9.005
62810SOL     OW90326   8.590   3.618   4.008
62810SOL    HW190327   8.513   3.584   3.961
62810SOL    HW290328   8.596   3.709   3.982
62811SOL     OW90329   6.953   3.113  11.998
62811SOL    HW190330   7.044   3.089  12.016
62811SOL    HW290331   6.959   3.187  11.939
62812SOL     OW90332  10.777   7.305   0.163
62812SOL    HW190333  10.709   7.241   0.184
62812SOL    HW290334  10.732   7.389   0.167
62813SOL     OW90335   4.435   2.291  14.089
62813SOL    HW190336   4.415   2.255  14.003
62813SOL    HW290337   4.496   2.229  14.128
62814SOL     OW90338   1.314   5.630  14.603
62814SOL    HW190339   1.264   5.685  14.664
62814SOL    HW290340   1.247   5.582  14.554
62815SOL     OW90341   5.806   7.940  13.585
62815SOL    HW190342   5.872   7.981  13.530
62815SOL    HW290343   5.775   7.865  13.534
62816SOL     OW90344  14.671  13.877   9.925
62816SOL    HW190345  14.669  13.916  10.012
62816SOL    HW290346  14.746  13.817   9.927
62817SOL     OW90347  10.625   9.776  13.317
62817SOL    HW190348  10.689   9.841  13.286
62817SOL    HW290349  10.655   9.752  13.405
62818SOL     OW90350   0.859   0.987  11.899
62818SOL    HW190351   0.875   1.078  11.874
62818SOL    HW290352   0.763   0.979  11.900
62819SOL     OW90353   3.870   9.894   8.885
62819SOL    HW190354   3.888   9.803   8.906
62819SOL    HW290355   3.837   9.932   8.967
62820SOL     OW90356  10.529   8.508   8.363
62820SOL    HW190357  10.520   8.477   8.454
62820SOL    HW290358  10.447   8.556   8.347
62821SOL     OW90359   1.312   1.398   0.455
62821SOL    HW190360   1.351   1.315   0.482
62821SOL    HW290361   1.340   1.460   0.523
62822SOL     OW90362   2.007   9.635   0.223
62822SOL    HW190363   2.023   9.670   0.136
62822SOL    HW290364   2.094   9.618   0.259
62823SOL     OW90365   6.963  13.038   9.649
62823SOL    HW190366   6.916  13.011   9.728
62823SOL    HW290367   7.005  12.958   9.618
62824SOL     OW90368   9.733  10.237   5.192
62824SOL    HW190369   9.778  10.275   5.116
62824SOL    HW290370   9.647  10.212   5.160
62825SOL     OW90371   5.420   2.527  14.280
62825SOL    HW190372   5.328   2.555  14.282
62825SOL    HW290373   5.439   2.501  14.370
62826SOL     OW90374   2.044   0.005   3.864
62826SOL    HW190375   1.957  14.834   3.867
62826SOL    HW290376   2.098  14.811   3.817
62827SOL     OW90377   1.712   5.673   0.261
62827SOL    HW190378   1.628   5.659   0.305
62827SOL    HW290379   1.694   5.743   0.198
62828SOL     OW90380   3.487   1.388   4.453
62828SOL    HW190381   3.488   1.302   4.410
62828SOL    HW290382   3.535   1.445   4.393
62829SOL     OW90383   8.746   8.846   2.912
62829SOL    HW190384   8.680   8.910   2.940
62829SOL    HW290385   8.772   8.876   2.825
62830SOL     OW90386  12.231  13.314   9.618
62830SOL    HW190387  12.189  13.281   9.538
62830SOL    HW290388  12.197  13.259   9.688
62831SOL     OW90389  10.455   2.675   7.776
62831SOL    HW190390  10.500   2.755   7.804
62831SOL    HW290391  10.497   2.605   7.825
62832SOL     OW90392  13.572  10.447   9.086
62832SOL    HW190393  13.477  10.436   9.084
62832SOL    HW290394  13.598  10.417   9.173
62833SOL     OW90395  13.961   3.709   6.095
62833SOL    HW190396  14.033   3.768   6.118
62833SOL    HW290397  13.882   3.761   6.109
62834SOL     OW90398  13.869   8.980   7.755
62834SOL    HW190399  13.857   8.885   7.752
62834SOL    HW290400  13.886   9.005   7.664
62835SOL     OW90401   2.438   4.198  12.944
62835SOL    HW190402   2.465   4.226  12.857
62835SOL    HW290403   2.497   4.244  13.003
62836SOL     OW90404  12.099   0.825   7.315
62836SOL    HW190405  12.044   0.846   7.239
62836SOL    HW290406  12.181   0.872   7.299
62837SOL     OW90407   7.152   4.678   5.520
62837SOL    HW190408   7.153   4.721   5.435
62837SOL    HW290409   7.208   4.600   5.508
62838SOL     OW90410   1.680  10.692  12.444
62838SOL    HW190411   1.658  10.739  12.363
62838SOL    HW290412   1.770  10.719  12.463
62839SOL     OW90413   0.943   5.449   6.733
62839SOL    HW190414   0.983   5.458   6.819
62839SOL    HW290415   1.004   5.394   6.683
62840SOL     OW90416  13.588   0.807  12.862
62840SOL    HW190417  13.580   0.715  12.837
62840SOL    HW290418  13.585   0.806  12.958
62841SOL     OW90419   0.663   1.187  12.409
62841SOL    HW190420   0.612   1.169  12.488
62841SOL    HW290421   0.682   1.280  12.412
62842SOL     OW90422   8.235   3.155  12.653
62842SOL    HW190423   8.179   3.077  12.651
62842SOL    HW290424   8.278   3.151  12.739
62843SOL     OW90425  11.977  11.540   2.603
62843SOL    HW190426  12.005  11.463   2.554
62843SOL    HW290427  11.900  11.572   2.556
62844SOL     OW90428   1.899   9.779  10.530
62844SOL    HW190429   1.892   9.683  10.524
62844SOL    HW290430   1.862   9.811  10.448
62845SOL     OW90431   9.197   8.805   7.029
62845SOL    HW190432   9.278   8.847   7.060
62845SOL    HW290433   9.177   8.739   7.096
62846SOL     OW90434  11.048   2.259  12.449
62846SOL    HW190435  11.009   2.286  12.365
62846SOL    HW290436  11.011   2.320  12.513
62847SOL     OW90437   2.934   1.133   4.635
62847SOL    HW190438   3.013   1.186   4.647
62847SOL    HW290439   2.928   1.080   4.715
62848SOL     OW90440  14.607   5.252   0.375
62848SOL    HW190441  14.529   5.200   0.394
62848SOL    HW290442  14.650   5.264   0.460
62849SOL     OW90443   2.909  12.322   9.256
62849SOL    HW190444   2.954  12.382   9.196
62849SOL    HW290445   2.978  12.294   9.316
62850SOL     OW90446  14.287   7.022   2.747
62850SOL    HW190447  14.283   7.118   2.744
62850SOL    HW290448  14.281   6.995   2.656
62851SOL     OW90449   5.267   1.351   0.441
62851SOL    HW190450   5.350   1.320   0.403
62851SOL    HW290451   5.250   1.290   0.513
62852SOL     OW90452  13.422   2.637   2.954
62852SOL    HW190453  13.382   2.709   2.906
62852SOL    HW290454  13.352   2.572   2.961
62853SOL     OW90455   2.499   4.592   1.679
62853SOL    HW190456   2.473   4.619   1.768
62853SOL    HW290457   2.427   4.623   1.623
62854SOL     OW90458  12.437   1.613   1.618
62854SOL    HW190459  12.400   1.600   1.530
62854SOL    HW290460  12.522   1.654   1.603
62855SOL     OW90461   8.111   3.836   9.990
62855SOL    HW190462   8.145   3.757  10.033
62855SOL    HW290463   8.018   3.839  10.016
62856SOL     OW90464  11.235   5.000   1.246
62856SOL    HW190465  11.286   4.919   1.241
62856SOL    HW290466  11.156   4.977   1.294
62857SOL     OW90467   7.891   9.101   4.371
62857SOL    HW190468   7.865   9.047   4.445
62857SOL    HW290469   7.952   9.047   4.322
62858SOL     OW90470  11.062   4.337  11.251
62858SOL    HW190471  10.970   4.341  11.228
62858SOL    HW290472  11.069   4.263  11.312
62859SOL     OW90473   1.062   0.266   7.180
62859SOL    HW190474   1.049   0.180   7.219
62859SOL    HW290475   1.083   0.248   7.088
62860SOL     OW90476  12.583  14.504   6.316
62860SOL    HW190477  12.494  14.531   6.294
62860SOL    HW290478  12.605  14.439   6.250
62861SOL     OW90479   1.482   8.022   7.151
62861SOL    HW190480   1.392   8.012   7.182
62861SOL    HW290481   1.505   8.112   7.174
62862SOL     OW90482  10.570   1.162   0.851
62862SOL    HW190483  10.537   1.245   0.815
62862SOL    HW290484  10.528   1.095   0.798
62863SOL     OW90485   1.618  12.133   7.940
62863SOL    HW190486   1.647  12.090   7.859
62863SOL    HW290487   1.659  12.082   8.010
62864SOL     OW90488   2.364   3.620  13.808
62864SOL    HW190489   2.362   3.692  13.871
62864SOL    HW290490   2.407   3.656  13.731
62865SOL     OW90491   5.490   1.435   0.105
62865SOL    HW190492   5.501   1.352   0.151
62865SOL    HW290493   5.529   1.501   0.163
62866SOL     OW90494   9.545  14.326   8.725
62866SOL    HW190495   9.466  14.331   8.779
62866SOL    HW290496   9.516  14.351   8.637
62867SOL     OW90497   0.851  13.145   9.593
62867SOL    HW190498   0.901  13.086   9.649
62867SOL    HW290499   0.774  13.169   9.645
62868SOL     OW90500  14.166   7.099   9.256
62868SOL    HW190501  14.199   7.187   9.241
62868SOL    HW290502  14.225   7.062   9.323
62869SOL     OW90503   6.888   1.401   3.856
62869SOL    HW190504   6.833   1.427   3.782
62869SOL    HW290505   6.967   1.364   3.817
62870SOL     OW90506   2.512  11.372   6.231
62870SOL    HW190507   2.571  11.420   6.289
62870SOL    HW290508   2.428  11.416   6.240
62871SOL     OW90509   4.187  10.621  10.035
62871SOL    HW190510   4.150  10.614   9.947
62871SOL    HW290511   4.136  10.692  10.075
62872SOL     OW90512   5.722   5.566   5.334
62872SOL    HW190513   5.744   5.562   5.241
62872SOL    HW290514   5.799   5.608   5.374
62873SOL     OW90515   3.181  13.914   5.326
62873SOL    HW190516   3.108  13.853   5.316
62873SOL    HW290517   3.154  13.991   5.276
62874SOL     OW90518   8.130   1.017   7.413
62874SOL    HW190519   8.142   1.075   7.337
62874SOL    HW290520   8.037   1.024   7.435
62875SOL     OW90521  13.672   6.896   9.670
62875SOL    HW190522  13.595   6.876   9.616
62875SOL    HW290523  13.644   6.877   9.760
62876SOL     OW90524   9.401   1.183  11.202
62876SOL    HW190525   9.346   1.197  11.125
62876SOL    HW290526   9.356   1.114  11.251
62877SOL     OW90527   3.524   5.864   0.999
62877SOL    HW190528   3.509   5.796   1.065
62877SOL    HW290529   3.507   5.946   1.044
62878SOL     OW90530   3.151   4.705   9.392
62878SOL    HW190531   3.210   4.633   9.372
62878SOL    HW290532   3.065   4.677   9.359
62879SOL     OW90533   4.931   3.786   0.069
62879SOL    HW190534   4.849   3.754   0.106
62879SOL    HW290535   4.912   3.877   0.044
62880SOL     OW90536  14.491  12.107  11.377
62880SOL    HW190537  14.434  12.173  11.416
62880SOL    HW290538  14.507  12.138  11.288
62881SOL     OW90539   8.023  10.723   7.384
62881SOL    HW190540   8.066  10.808   7.368
62881SOL    HW290541   7.965  10.739   7.458
62882SOL     OW90542   6.688   2.308  12.384
62882SOL    HW190543   6.727   2.361  12.314
62882SOL    HW290544   6.603   2.350  12.401
62883SOL     OW90545   3.892  13.981  11.073
62883SOL    HW190546   3.860  14.071  11.079
62883SOL    HW290547   3.952  13.982  10.998
62884SOL     OW90548  10.633  12.199  13.755
62884SOL    HW190549  10.711  12.223  13.805
62884SOL    HW290550  10.641  12.104  13.743
62885SOL     OW90551  11.678   6.377   4.911
62885SOL    HW190552  11.585   6.357   4.895
62885SOL    HW290553  11.725   6.328   4.843
62886SOL     OW90554   2.680   2.022   9.646
62886SOL    HW190555   2.605   2.043   9.701
62886SOL    HW290556   2.729   2.104   9.639
62887SOL     OW90557   9.517   1.658   5.248
62887SOL    HW190558   9.585   1.602   5.210
62887SOL    HW290559   9.552   1.747   5.239
62888SOL     OW90560   5.418   7.138  12.127
62888SOL    HW190561   5.328   7.108  12.116
62888SOL    HW290562   5.426   7.157  12.220
62889SOL     OW90563  13.368   1.425  13.177
62889SOL    HW190564  13.380   1.515  13.207
62889SOL    HW290565  13.273   1.411  13.180
62890SOL     OW90566   7.344  13.798  11.755
62890SOL    HW190567   7.334  13.884  11.795
62890SOL    HW290568   7.407  13.752  11.810
62891SOL     OW90569   0.540   7.375  10.440
62891SOL    HW190570   0.502   7.300  10.395
62891SOL    HW290571   0.552   7.345  10.530
62892SOL     OW90572   0.915   8.550   1.987
62892SOL    HW190573   0.930   8.580   2.076
62892SOL    HW290574   0.833   8.593   1.960
62893SOL     OW90575   0.554   4.277   1.693
62893SOL    HW190576   0.593   4.342   1.751
62893SOL    HW290577   0.508   4.216   1.751
62894SOL     OW90578  14.080   9.150   2.778
62894SOL    HW190579  14.165   9.190   2.793
62894SOL    HW290580  14.073   9.144   2.682
62895SOL     OW90581   2.328   2.741   7.024
62895SOL    HW190582   2.399   2.796   6.989
62895SOL    HW290583   2.367   2.655   7.035
62896SOL     OW90584  10.185  14.411  12.670
62896SOL    HW190585  10.131  14.380  12.596
62896SOL    HW290586  10.160  14.354  12.743
62897SOL     OW90587   2.331   5.125   4.613
62897SOL    HW190588   2.302   5.073   4.538
62897SOL    HW290589   2.269   5.199   4.617
62898SOL     OW90590   8.955   4.130   2.014
62898SOL    HW190591   9.034   4.184   2.014
62898SOL    HW290592   8.916   4.145   2.101
62899SOL     OW90593   9.309   3.303   7.835
62899SOL    HW190594   9.303   3.346   7.921
62899SOL    HW290595   9.297   3.210   7.855
62900SOL     OW90596  13.450   0.227   1.687
62900SOL    HW190597  13.504   0.185   1.620
62900SOL    HW290598  13.389   0.282   1.637
62901SOL     OW90599   4.993   4.711   4.391
62901SOL    HW190600   5.004   4.741   4.481
62901SOL    HW290601   4.981   4.790   4.340
62902SOL     OW90602  12.464   1.260  10.150
62902SOL    HW190603  12.481   1.181  10.201
62902SOL    HW290604  12.401   1.310  10.202
62903SOL     OW90605  12.439   1.158   2.401
62903SOL    HW190606  12.411   1.093   2.465
62903SOL    HW290607  12.391   1.135   2.321
62904SOL     OW90608   1.715  10.081  11.217
62904SOL    HW190609   1.660  10.159  11.222
62904SOL    HW290610   1.723  10.064  11.123
62905SOL     OW90611   4.793   4.431   3.699
62905SOL    HW190612   4.756   4.479   3.773
62905SOL    HW290613   4.777   4.487   3.623
62906SOL     OW90614  11.746   5.134   6.401
62906SOL    HW190615  11.729   5.222   6.369
62906SOL    HW290616  11.839   5.134   6.424
62907SOL     OW90617   3.844  12.896   5.872
62907SOL    HW190618   3.776  12.837   5.841
62907SOL    HW290619   3.811  12.928   5.956
62908SOL     OW90620   1.461  14.735  11.980
62908SOL    HW190621   1.519  14.660  11.983
62908SOL    HW290622   1.377  14.703  12.014
62909SOL     OW90623   4.448  10.526   0.705
62909SOL    HW190624   4.484  10.438   0.703
62909SOL    HW290625   4.377  10.522   0.769
62910SOL     OW90626   6.280  11.221  12.802
62910SOL    HW190627   6.258  11.260  12.718
62910SOL    HW290628   6.374  11.204  12.797
62911SOL     OW90629   6.439   7.680   5.813
62911SOL    HW190630   6.436   7.592   5.777
62911SOL    HW290631   6.514   7.679   5.872
62912SOL     OW90632  11.638  12.755   6.118
62912SOL    HW190633  11.733  12.751   6.133
62912SOL    HW290634  11.605  12.675   6.159
62913SOL     OW90635  14.322   4.514  14.407
62913SOL    HW190636  14.389   4.447  14.395
62913SOL    HW290637  14.240   4.466  14.413
62914SOL     OW90638   9.207  13.284   4.773
62914SOL    HW190639   9.186  13.312   4.862
62914SOL    HW290640   9.302  13.296   4.766
62915SOL     OW90641   6.927   8.797   8.581
62915SOL    HW190642   6.945   8.732   8.513
62915SOL    HW290643   6.837   8.779   8.608
62916SOL     OW90644   2.994   0.143   5.436
62916SOL    HW190645   3.023   0.148   5.527
62916SOL    HW290646   2.902   0.118   5.441
62917SOL     OW90647   4.157   4.831  10.043
62917SOL    HW190648   4.171   4.739  10.022
62917SOL    HW290649   4.106   4.865   9.970
62918SOL     OW90650   8.556  14.421   8.623
62918SOL    HW190651   8.568  14.441   8.716
62918SOL    HW290652   8.629  14.363   8.601
62919SOL     OW90653   7.050   3.911  11.807
62919SOL    HW190654   7.072   3.911  11.900
62919SOL    HW290655   7.123   3.958  11.765
62920SOL     OW90656   9.983   2.401   9.305
62920SOL    HW190657  10.061   2.350   9.327
62920SOL    HW290658  10.016   2.472   9.249
62921SOL     OW90659   9.717   8.802   6.956
62921SOL    HW190660   9.749   8.748   7.029
62921SOL    HW290661   9.668   8.740   6.901
62922SOL     OW90662   3.191  13.880  14.802
62922SOL    HW190663   3.164  13.795  14.839
62922SOL    HW290664   3.109  13.924  14.780
62923SOL     OW90665   5.396  14.757   5.610
62923SOL    HW190666   5.330  14.804   5.559
62923SOL    HW290667   5.475  14.811   5.605
62924SOL     OW90668   0.240   2.988  11.467
62924SOL    HW190669   0.214   3.076  11.438
62924SOL    HW290670   0.326   2.974  11.427
62925SOL     OW90671   7.177   9.870   2.154
62925SOL    HW190672   7.162   9.838   2.065
62925SOL    HW290673   7.255   9.823   2.184
62926SOL     OW90674   4.816   0.439  10.574
62926SOL    HW190675   4.836   0.459  10.666
62926SOL    HW290676   4.775   0.353  10.576
62927SOL     OW90677   8.298   4.930   3.533
62927SOL    HW190678   8.346   4.937   3.615
62927SOL    HW290679   8.352   4.872   3.479
62928SOL     OW90680   1.760  12.452  10.522
62928SOL    HW190681   1.780  12.396  10.447
62928SOL    HW290682   1.740  12.391  10.593
62929SOL     OW90683   6.353  10.038   5.895
62929SOL    HW190684   6.336   9.988   5.815
62929SOL    HW290685   6.276  10.093   5.905
62930SOL     OW90686  14.382   5.388   7.482
62930SOL    HW190687  14.472   5.418   7.492
62930SOL    HW290688  14.375   5.360   7.391
62931SOL     OW90689   3.949   1.233   2.620
62931SOL    HW190690   4.025   1.251   2.675
62931SOL    HW290691   3.967   1.147   2.583
62932SOL     OW90692   3.413   2.412   6.897
62932SOL    HW190693   3.503   2.443   6.910
62932SOL    HW290694   3.360   2.470   6.951
62933SOL     OW90695  14.865   9.860  11.330
62933SOL    HW190696  14.866   9.919  11.406
62933SOL    HW290697   0.019   9.916  11.257
62934SOL     OW90698  13.022   5.647   7.560
62934SOL    HW190699  13.103   5.598   7.573
62934SOL    HW290700  13.047   5.738   7.577
62935SOL     OW90701  13.478  11.379  10.369
62935SOL    HW190702  13.491  11.436  10.293
62935SOL    HW290703  13.496  11.291  10.336
62936SOL     OW90704   4.299   9.588   9.250
62936SOL    HW190705   4.313   9.616   9.341
62936SOL    HW290706   4.347   9.651   9.198
62937SOL     OW90707   2.256  12.309   6.778
62937SOL    HW190708   2.176  12.359   6.789
62937SOL    HW290709   2.255  12.244   6.848
62938SOL     OW90710   5.152   0.839   7.100
62938SOL    HW190711   5.154   0.841   7.196
62938SOL    HW290712   5.070   0.883   7.077
62939SOL     OW90713   3.211  14.782   0.587
62939SOL    HW190714   3.216  14.691   0.559
62939SOL    HW290715   3.301  14.815   0.580
62940SOL     OW90716   9.100  10.285   3.448
62940SOL    HW190717   9.015  10.243   3.436
62940SOL    HW290718   9.151  10.221   3.499
62941SOL     OW90719  13.863  14.038   3.394
62941SOL    HW190720  13.772  14.012   3.402
62941SOL    HW290721  13.874  14.059   3.302
62942SOL     OW90722   6.053   1.906   6.058
62942SOL    HW190723   6.145   1.880   6.048
62942SOL    HW290724   6.017   1.841   6.119
62943SOL     OW90725   5.806   8.664   3.730
62943SOL    HW190726   5.756   8.740   3.702
62943SOL    HW290727   5.873   8.653   3.663
62944SOL     OW90728   8.435   6.199   5.244
62944SOL    HW190729   8.450   6.285   5.205
62944SOL    HW290730   8.489   6.198   5.323
62945SOL     OW90731   6.601   4.488  12.458
62945SOL    HW190732   6.634   4.532  12.379
62945SOL    HW290733   6.631   4.543  12.530
62946SOL     OW90734  13.643  10.234   9.543
62946SOL    HW190735  13.730  10.232   9.584
62946SOL    HW290736  13.584  10.198   9.609
62947SOL     OW90737   1.564   6.225   6.099
62947SOL    HW190738   1.471   6.204   6.109
62947SOL    HW290739   1.609   6.143   6.116
62948SOL     OW90740   8.874   7.884   8.993
62948SOL    HW190741   8.891   7.924   9.079
62948SOL    HW290742   8.798   7.828   9.008
62949SOL     OW90743   1.179   2.459  13.694
62949SOL    HW190744   1.274   2.474  13.696
62949SOL    HW290745   1.161   2.437  13.602
62950SOL     OW90746   5.435   3.789   9.135
62950SOL    HW190747   5.454   3.803   9.228
62950SOL    HW290748   5.503   3.727   9.105
62951SOL     OW90749   0.954   8.071  11.565
62951SOL    HW190750   1.043   8.106  11.573
62951SOL    HW290751   0.935   8.074  11.471
62952SOL     OW90752   2.284   7.038  11.794
62952SOL    HW190753   2.301   7.001  11.881
62952SOL    HW290754   2.369   7.072  11.766
62953SOL     OW90755   4.207   4.263   1.636
62953SOL    HW190756   4.124   4.296   1.670
62953SOL    HW290757   4.232   4.194   1.697
62954SOL     OW90758  13.899   9.861   3.232
62954SOL    HW190759  13.896   9.926   3.163
62954SOL    HW290760  13.810   9.858   3.267
62955SOL     OW90761  12.925   4.407   8.738
62955SOL    HW190762  12.918   4.386   8.645
62955SOL    HW290763  12.961   4.496   8.741
62956SOL     OW90764   4.641   8.320  14.187
62956SOL    HW190765   4.708   8.336  14.253
62956SOL    HW290766   4.684   8.337  14.104
62957SOL     OW90767   0.687  12.154  14.620
62957SOL    HW190768   0.640  12.074  14.596
62957SOL    HW290769   0.649  12.179  14.704
62958SOL     OW90770   3.606   4.945  11.811
62958SOL    HW190771   3.685   4.929  11.758
62958SOL    HW290772   3.587   5.038  11.797
62959SOL     OW90773  11.040  12.498   3.656
62959SOL    HW190774  11.036  12.576   3.601
62959SOL    HW290775  10.948  12.477   3.674
62960SOL     OW90776   0.682  12.350   6.321
62960SOL    HW190777   0.648  12.434   6.292
62960SOL    HW290778   0.630  12.285   6.273
62961SOL     OW90779  12.563  12.991   1.175
62961SOL    HW190780  12.619  12.915   1.190
62961SOL    HW290781  12.512  12.969   1.097
62962SOL     OW90782  12.866  13.555   6.192
62962SOL    HW190783  12.922  13.579   6.118
62962SOL    HW290784  12.921  13.572   6.269
62963SOL     OW90785   3.678   4.893   0.033
62963SOL    HW190786   3.636   4.831   0.092
62963SOL    HW290787   3.664   4.856  14.815
62964SOL     OW90788   0.906   2.690   8.601
62964SOL    HW190789   0.904   2.746   8.679
62964SOL    HW290790   0.819   2.701   8.562
62965SOL     OW90791   0.227  13.931   5.934
62965SOL    HW190792   0.237  13.849   5.982
62965SOL    HW290793   0.249  13.999   5.998
62966SOL     OW90794   0.777   2.396   5.524
62966SOL    HW190795   0.815   2.316   5.486
62966SOL    HW290796   0.695   2.408   5.477
62967SOL     OW90797   7.754  14.666   1.816
62967SOL    HW190798   7.784  14.685   1.727
62967SOL    HW290799   7.828  14.690   1.872
62968SOL     OW90800   5.243  10.000   8.930
62968SOL    HW190801   5.311  10.054   8.888
62968SOL    HW290802   5.253  10.016   9.023
62969SOL     OW90803   4.013   7.223  11.855
62969SOL    HW190804   4.087   7.269  11.814
62969SOL    HW290805   4.046   7.135  11.871
62970SOL     OW90806   0.625   0.344   1.383
62970SOL    HW190807   0.597   0.295   1.461
62970SOL    HW290808   0.608   0.284   1.310
62971SOL     OW90809  10.375   1.744   0.011
62971SOL    HW190810  10.466   1.760   0.036
62971SOL    HW290811  10.374   1.756  14.785
62972SOL     OW90812   6.980  12.013  10.130
62972SOL    HW190813   6.986  11.995  10.036
62972SOL    HW290814   7.006  12.105  10.138
62973SOL     OW90815   2.356   2.220   1.113
62973SOL    HW190816   2.431   2.276   1.092
62973SOL    HW290817   2.279   2.274   1.094
62974SOL     OW90818   6.904   4.996   7.387
62974SOL    HW190819   6.889   4.902   7.400
62974SOL    HW290820   6.839   5.038   7.443
62975SOL     OW90821   3.057  12.357   0.379
62975SOL    HW190822   3.138  12.389   0.417
62975SOL    HW290823   3.041  12.414   0.304
62976SOL     OW90824   7.074   9.324   3.104
62976SOL    HW190825   7.157   9.309   3.151
62976SOL    HW290826   7.006   9.304   3.169
62977SOL     OW90827   2.607   1.425   7.594
62977SOL    HW190828   2.582   1.477   7.670
62977SOL    HW290829   2.537   1.360   7.585
62978SOL     OW90830  11.034  10.154  11.457
62978SOL    HW190831  11.040  10.073  11.406
62978SOL    HW290832  11.050  10.223  11.393
62979SOL     OW90833  10.812   7.183  13.104
62979SOL    HW190834  10.878   7.162  13.037
62979SOL    HW290835  10.769   7.262  13.070
62980SOL     OW90836   8.016   4.945   7.873
62980SOL    HW190837   8.011   4.950   7.969
62980SOL    HW290838   8.108   4.961   7.853
62981SOL     OW90839   1.215   4.993  12.060
62981SOL    HW190840   1.265   5.043  11.994
62981SOL    HW290841   1.124   5.016  12.042
62982SOL     OW90842   6.139  12.922  11.389
62982SOL    HW190843   6.072  12.956  11.329
62982SOL    HW290844   6.158  12.834  11.356
62983SOL     OW90845  13.251   4.943   6.674
62983SOL    HW190846  13.257   5.005   6.747
62983SOL    HW290847  13.159   4.915   6.673
62984SOL     OW90848   1.693  13.050  13.190
62984SOL    HW190849   1.764  13.099  13.149
62984SOL    HW290850   1.668  13.104  13.265
62985SOL     OW90851  12.287  11.750  12.351
62985SOL    HW190852  12.201  11.738  12.310
62985SOL    HW290853  12.348  11.753  12.277
62986SOL     OW90854   9.399   6.313   8.015
62986SOL    HW190855   9.424   6.245   8.077
62986SOL    HW290856   9.336   6.271   7.956
62987SOL     OW90857   6.822   4.814   5.299
62987SOL    HW190858   6.815   4.827   5.393
62987SOL    HW290859   6.771   4.885   5.261
62988SOL     OW90860   2.926  11.026  12.752
62988SOL    HW190861   2.833  11.035  12.775
62988SOL    HW290862   2.924  10.993  12.662
62989SOL     OW90863  10.704  11.590  14.124
62989SOL    HW190864  10.702  11.501  14.087
62989SOL    HW290865  10.795  11.617  14.117
62990SOL     OW90866  12.133   2.483  14.542
62990SOL    HW190867  12.055   2.444  14.581
62990SOL    HW290868  12.138   2.570  14.581
62991SOL     OW90869   2.239  13.980   5.915
62991SOL    HW190870   2.180  14.015   5.849
62991SOL    HW290871   2.317  14.036   5.909
62992SOL     OW90872   3.767   4.870   6.190
62992SOL    HW190873   3.743   4.798   6.248
62992SOL    HW290874   3.811   4.827   6.116
62993SOL     OW90875   6.171   5.542  14.050
62993SOL    HW190876   6.093   5.582  14.088
62993SOL    HW290877   6.139   5.460  14.013
62994SOL     OW90878   1.053   3.952   7.396
62994SOL    HW190879   1.074   3.928   7.306
62994SOL    HW290880   1.135   3.941   7.444
62995SOL     OW90881  13.491  11.623   6.898
62995SOL    HW190882  13.397  11.621   6.880
62995SOL    HW290883  13.511  11.535   6.931
62996SOL     OW90884   1.458  10.432   6.207
62996SOL    HW190885   1.367  10.462   6.217
62996SOL    HW290886   1.454  10.338   6.222
62997SOL     OW90887   1.370   9.269   7.325
62997SOL    HW190888   1.335   9.181   7.338
62997SOL    HW290889   1.300   9.327   7.355
62998SOL     OW90890   1.351   7.791   3.325
62998SOL    HW190891   1.388   7.708   3.354
62998SOL    HW290892   1.368   7.793   3.230
62999SOL     OW90893   0.765   2.558   2.365
62999SOL    HW190894   0.835   2.621   2.386
62999SOL    HW290895   0.700   2.610   2.318
63000SOL     OW90896  11.871   4.568   8.809
63000SOL    HW190897  11.938   4.586   8.874
63000SOL    HW290898  11.802   4.523   8.857
63001SOL     OW90899   9.441   0.544   3.625
63001SOL    HW190900   9.384   0.617   3.649
63001SOL    HW290901   9.507   0.541   3.695
63002SOL     OW90902   3.392  10.028   1.450
63002SOL    HW190903   3.417  10.084   1.523
63002SOL    HW290904   3.333  10.083   1.397
63003SOL     OW90905   4.304   5.898   6.617
63003SOL    HW190906   4.274   5.812   6.588
63003SOL    HW290907   4.399   5.895   6.609
63004SOL     OW90908   3.144  11.654  14.864
63004SOL    HW190909   3.101  11.649  14.778
63004SOL    HW290910   3.124  11.570   0.036
63005SOL     OW90911   7.340  12.049   7.574
63005SOL    HW190912   7.251  12.014   7.567
63005SOL    HW290913   7.339  12.130   7.523
63006SOL     OW90914  12.479  12.834  14.737
63006SOL    HW190915  12.516  12.770  14.675
63006SOL    HW290916  12.395  12.859  14.698
63007SOL     OW90917   0.564  13.336   3.606
63007SOL    HW190918   0.568  13.359   3.513
63007SOL    HW290919   0.573  13.240   3.608
63008SOL     OW90920   7.957   4.766   9.856
63008SOL    HW190921   7.991   4.852   9.884
63008SOL    HW290922   7.863   4.770   9.876
63009SOL     OW90923  13.926  13.122   2.247
63009SOL    HW190924  13.951  13.161   2.163
63009SOL    HW290925  14.001  13.068   2.272
63010SOL     OW90926   1.793   6.805   1.003
63010SOL    HW190927   1.849   6.727   1.007
63010SOL    HW290928   1.839   6.865   0.945
63011SOL     OW90929   6.852   9.600  11.371
63011SOL    HW190930   6.929   9.552  11.340
63011SOL    HW290931   6.851   9.679  11.318
63012SOL     OW90932   9.012   7.475   2.865
63012SOL    HW190933   8.957   7.535   2.815
63012SOL    HW290934   9.099   7.484   2.826
63013SOL     OW90935  13.177  11.706  14.185
63013SOL    HW190936  13.159  11.800  14.191
63013SOL    HW290937  13.135  11.668  14.263
63014SOL     OW90938  13.740   9.969   9.454
63014SOL    HW190939  13.661  10.022   9.454
63014SOL    HW290940  13.779   9.984   9.367
63015SOL     OW90941   2.629  11.579   0.032
63015SOL    HW190942   2.719  11.566   0.002
63015SOL    HW290943   2.622  11.673   0.048
63016SOL     OW90944  12.686   2.417   9.835
63016SOL    HW190945  12.592   2.412   9.855
63016SOL    HW290946  12.714   2.326   9.831
63017SOL     OW90947   2.111   1.292   2.378
63017SOL    HW190948   2.196   1.249   2.382
63017SOL    HW290949   2.051   1.230   2.420
63018SOL     OW90950  13.918  13.589  12.701
63018SOL    HW190951  13.851  13.529  12.670
63018SOL    HW290952  13.923  13.656  12.632
63019SOL     OW90953   7.116   0.814  11.403
63019SOL    HW190954   7.109   0.802  11.498
63019SOL    HW290955   7.187   0.877  11.391
63020SOL     OW90956   0.718   7.347   6.382
63020SOL    HW190957   0.790   7.285   6.388
63020SOL    HW290958   0.693   7.363   6.473
63021SOL     OW90959   9.865   7.950   8.011
63021SOL    HW190960   9.772   7.951   7.991
63021SOL    HW290961   9.888   8.042   8.027
63022SOL     OW90962   1.991   2.934   2.748
63022SOL    HW190963   2.085   2.929   2.730
63022SOL    HW290964   1.985   2.940   2.843
63023SOL     OW90965  13.735   0.696   6.692
63023SOL    HW190966  13.698   0.685   6.604
63023SOL    HW290967  13.769   0.609   6.714
63024SOL     OW90968   3.442  12.621   5.472
63024SOL    HW190969   3.346  12.619   5.464
63024SOL    HW290970   3.462  12.713   5.486
63025SOL     OW90971  12.174  10.338  13.705
63025SOL    HW190972  12.238  10.390  13.655
63025SOL    HW290973  12.127  10.403  13.758
63026SOL     OW90974   6.243   9.605   7.016
63026SOL    HW190975   6.316   9.544   7.005
63026SOL    HW290976   6.278   9.690   6.990
63027SOL     OW90977   9.177   0.868   8.375
63027SOL    HW190978   9.191   0.837   8.465
63027SOL    HW290979   9.214   0.799   8.320
63028SOL     OW90980  13.011   0.456   2.809
63028SOL    HW190981  12.942   0.488   2.867
63028SOL    HW290982  13.012   0.361   2.823
63029SOL     OW90983  11.211   4.751   0.238
63029SOL    HW190984  11.180   4.662   0.254
63029SOL    HW290985  11.192   4.798   0.319
63030SOL     OW90986  11.107   3.871  14.727
63030SOL    HW190987  11.140   3.961  14.726
63030SOL    HW290988  11.156   3.827  14.658
63031SOL     OW90989   0.096  12.748   8.360
63031SOL    HW190990   0.146  12.702   8.428
63031SOL    HW290991   0.104  12.691   8.283
63032SOL     OW90992   4.440   0.650  14.356
63032SOL    HW190993   4.500   0.719  14.329
63032SOL    HW290994   4.483   0.569  14.327
63033SOL     OW90995  13.813  14.797  14.639
63033SOL    HW190996  13.804  14.845  14.720
63033SOL    HW290997  13.907  14.780  14.631
63034SOL     OW90998   5.844   1.715   5.288
63034SOL    HW190999   5.851   1.752   5.376
63034SOL    HW291000   5.913   1.648   5.285
63035SOL     OW91001  11.873   2.521   7.097
63035SOL    HW191002  11.962   2.555   7.105
63035SOL    HW291003  11.882   2.443   7.043
63036SOL     OW91004   0.972  14.364   8.374
63036SOL    HW191005   1.003  14.273   8.368
63036SOL    HW291006   0.972  14.395   8.283
63037SOL     OW91007   1.750   5.564   7.864
63037SOL    HW191008   1.738   5.643   7.917
63037SOL    HW291009   1.790   5.501   7.924
63038SOL     OW91010   9.637  11.278   5.964
63038SOL    HW191011   9.571  11.281   6.033
63038SOL    HW291012   9.668  11.188   5.964
63039SOL     OW91013   3.362   9.849   7.361
63039SOL    HW191014   3.445   9.808   7.337
63039SOL    HW291015   3.384   9.908   7.432
63040SOL     OW91016   8.472  10.043   2.535
63040SOL    HW191017   8.526   9.995   2.597
63040SOL    HW291018   8.466  10.131   2.572
63041SOL     OW91019   6.757  10.629   5.387
63041SOL    HW191020   6.819  10.585   5.329
63041SOL    HW291021   6.778  10.594   5.474
63042SOL     OW91022   3.142   4.673   4.795
63042SOL    HW191023   3.096   4.644   4.874
63042SOL    HW291024   3.104   4.759   4.776
63043SOL     OW91025  10.670   2.582   0.654
63043SOL    HW191026  10.694   2.500   0.610
63043SOL    HW291027  10.614   2.627   0.590
63044SOL     OW91028  11.867  13.132   5.363
63044SOL    HW191029  11.852  13.037   5.360
63044SOL    HW291030  11.816  13.161   5.439
63045SOL     OW91031   4.597   7.659   3.814
63045SOL    HW191032   4.570   7.750   3.822
63045SOL    HW291033   4.530   7.618   3.759
63046SOL     OW91034   7.907   6.220   5.810
63046SOL    HW191035   7.929   6.255   5.896
63046SOL    HW291036   7.905   6.125   5.823
63047SOL     OW91037   9.052  14.147   4.995
63047SOL    HW191038   9.147  14.152   4.993
63047SOL    HW291039   9.030  14.067   4.947
63048SOL     OW91040  13.054  14.210  13.963
63048SOL    HW191041  13.111  14.202  13.887
63048SOL    HW291042  13.112  14.238  14.034
63049SOL     OW91043   5.423   7.337  14.204
63049SOL    HW191044   5.509   7.313  14.168
63049SOL    HW291045   5.391   7.406  14.146
63050SOL     OW91046  11.758   4.547   1.390
63050SOL    HW191047  11.832   4.522   1.336
63050SOL    HW291048  11.796   4.598   1.461
63051SOL     OW91049   3.238   7.223   1.359
63051SOL    HW191050   3.206   7.134   1.347
63051SOL    HW291051   3.164   7.279   1.336
63052SOL     OW91052   1.986   8.492   7.674
63052SOL    HW191053   2.061   8.531   7.719
63052SOL    HW291054   1.946   8.433   7.739
63053SOL     OW91055  10.806   0.547   3.963
63053SOL    HW191056  10.741   0.513   4.025
63053SOL    HW291057  10.883   0.566   4.016
63054SOL     OW91058   3.675   9.178   4.324
63054SOL    HW191059   3.764   9.149   4.304
63054SOL    HW291060   3.619   9.124   4.269
63055SOL     OW91061  13.559   0.274   4.080
63055SOL    HW191062  13.562   0.226   3.998
63055SOL    HW291063  13.480   0.327   4.075
63056SOL     OW91064   8.936   2.160   7.970
63056SOL    HW191065   9.017   2.209   7.960
63056SOL    HW291066   8.949   2.110   8.051
63057SOL     OW91067  11.298   1.880   8.279
63057SOL    HW191068  11.284   1.972   8.257
63057SOL    HW291069  11.210   1.846   8.298
63058SOL     OW91070   5.629  12.434   8.012
63058SOL    HW191071   5.594  12.487   7.941
63058SOL    HW291072   5.710  12.478   8.038
63059SOL     OW91073  10.098   5.826   0.338
63059SOL    HW191074  10.121   5.898   0.278
63059SOL    HW291075  10.074   5.869   0.419
63060SOL     OW91076  12.671   1.219   1.684
63060SOL    HW191077  12.722   1.143   1.657
63060SOL    HW291078  12.652   1.266   1.602
63061SOL     OW91079   7.306   2.185  12.506
63061SOL    HW191080   7.222   2.232  12.505
63061SOL    HW291081   7.287   2.103  12.461
63062SOL     OW91082  12.560  10.380   4.943
63062SOL    HW191083  12.654  10.371   4.927
63062SOL    HW291084  12.535  10.298   4.984
63063SOL     OW91085   9.500  12.360  12.275
63063SOL    HW191086   9.568  12.424  12.297
63063SOL    HW291087   9.514  12.341  12.182
63064SOL     OW91088   7.147   6.843  11.359
63064SOL    HW191089   7.094   6.874  11.285
63064SOL    HW291090   7.108   6.758  11.382
63065SOL     OW91091  11.224   7.350   2.924
63065SOL    HW191092  11.170   7.385   2.853
63065SOL    HW291093  11.239   7.425   2.982
63066SOL     OW91094   6.160   5.382   6.069
63066SOL    HW191095   6.125   5.299   6.101
63066SOL    HW291096   6.176   5.367   5.976
63067SOL     OW91097   1.556   1.665   7.859
63067SOL    HW191098   1.505   1.695   7.783
63067SOL    HW291099   1.490   1.649   7.927
63068SOL     OW91100  14.045  13.593   7.024
63068SOL    HW191101  14.099  13.559   6.953
63068SOL    HW291102  14.038  13.687   7.006
63069SOL     OW91103   7.627   3.543  12.860
63069SOL    HW191104   7.625   3.639  12.862
63069SOL    HW291105   7.692   3.522  12.793
63070SOL     OW91106  10.938  12.903   9.637
63070SOL    HW191107  10.967  12.919   9.727
63070SOL    HW291108  10.887  12.981   9.615
63071SOL     OW91109  12.492   3.036   1.895
63071SOL    HW191110  12.528   2.997   1.815
63071SOL    HW291111  12.469   2.962   1.951
63072SOL     OW91112   7.099  14.341   3.274
63072SOL    HW191113   7.169  14.278   3.289
63072SOL    HW291114   7.042  14.333   3.351
63073SOL     OW91115  10.267   7.833  14.849
63073SOL    HW191116  10.324   7.760  14.828
63073SOL    HW291117  10.324   7.910  14.848
63074SOL     OW91118   3.454   0.050   2.814
63074SOL    HW191119   3.367   0.064   2.850
63074SOL    HW291120   3.438   0.008   2.729
63075SOL     OW91121  12.000   9.017  11.188
63075SOL    HW191122  12.047   9.085  11.140
63075SOL    HW291123  12.024   8.935  11.144
63076SOL     OW91124   6.011   3.021   7.969
63076SOL    HW191125   6.040   3.101   7.925
63076SOL    HW291126   6.051   2.950   7.919
63077SOL     OW91127   7.062   2.727  13.786
63077SOL    HW191128   6.988   2.772  13.744
63077SOL    HW291129   7.048   2.739  13.880
63078SOL     OW91130  13.799   7.520  13.092
63078SOL    HW191131  13.812   7.577  13.016
63078SOL    HW291132  13.856   7.445  13.076
63079SOL     OW91133  11.739   6.824  11.674
63079SOL    HW191134  11.747   6.782  11.589
63079SOL    HW291135  11.725   6.917  11.653
63080SOL     OW91136  12.460   4.341   4.129
63080SOL    HW191137  12.419   4.318   4.045
63080SOL    HW291138  12.388   4.374   4.183
63081SOL     OW91139   2.184   6.540   9.435
63081SOL    HW191140   2.132   6.476   9.386
63081SOL    HW291141   2.206   6.495   9.516
63082SOL     OW91142   4.088   1.358   8.142
63082SOL    HW191143   4.011   1.411   8.120
63082SOL    HW291144   4.058   1.300   8.212
63083SOL     OW91145   0.336  13.673  11.960
63083SOL    HW191146   0.337  13.646  12.052
63083SOL    HW291147   0.424  13.710  11.945
63084SOL     OW91148  10.278  14.181   0.835
63084SOL    HW191149  10.373  14.173   0.826
63084SOL    HW291150  10.244  14.097   0.803
63085SOL     OW91151  10.163   3.241   6.131
63085SOL    HW191152  10.231   3.307   6.135
63085SOL    HW291153  10.097   3.277   6.072
63086SOL     OW91154   1.126  13.188   0.925
63086SOL    HW191155   1.072  13.216   0.851
63086SOL    HW291156   1.088  13.232   1.000
63087SOL     OW91157  13.690   5.897  11.692
63087SOL    HW191158  13.667   5.948  11.769
63087SOL    HW291159  13.704   5.808  11.726
63088SOL     OW91160   7.818   2.491   1.810
63088SOL    HW191161   7.875   2.495   1.887
63088SOL    HW291162   7.737   2.453   1.843
63089SOL     OW91163   1.714  14.581   5.282
63089SOL    HW191164   1.751  14.576   5.194
63089SOL    HW291165   1.785  14.617   5.336
63090SOL     OW91166  11.560   7.120   6.300
63090SOL    HW191167  11.594   7.036   6.267
63090SOL    HW291168  11.522   7.162   6.224
63091SOL     OW91169   5.483  12.888   6.296
63091SOL    HW191170   5.393  12.864   6.319
63091SOL    HW291171   5.474  12.966   6.241
63092SOL     OW91172  14.781   0.773   3.066
63092SOL    HW191173  14.834   0.753   3.143
63092SOL    HW291174  14.714   0.833   3.098
63093SOL     OW91175  10.522  11.106  10.873
63093SOL    HW191176  10.605  11.090  10.918
63093SOL    HW291177  10.466  11.146  10.941
63094SOL     OW91178  11.735  12.414   0.027
63094SOL    HW191179  11.643  12.396   0.007
63094SOL    HW291180  11.750  12.501  14.859
63095SOL     OW91181   2.362   4.897  13.323
63095SOL    HW191182   2.370   4.820  13.267
63095SOL    HW291183   2.405   4.968  13.275
63096SOL     OW91184   6.476   8.650   0.059
63096SOL    HW191185   6.480   8.601  14.846
63096SOL    HW291186   6.416   8.600   0.114
63097SOL     OW91187   9.762   8.245   9.906
63097SOL    HW191188   9.857   8.238   9.897
63097SOL    HW291189   9.738   8.315   9.846
63098SOL     OW91190  14.064   7.355   0.281
63098SOL    HW191191  13.991   7.379   0.338
63098SOL    HW291192  14.128   7.425   0.292
63099SOL     OW91193   1.397   0.512   0.219
63099SOL    HW191194   1.475   0.465   0.189
63099SOL    HW291195   1.395   0.591   0.165
63100SOL     OW91196   4.990   8.072  14.021
63100SOL    HW191197   5.034   8.070  13.936
63100SOL    HW291198   4.901   8.041  14.003
63101SOL     OW91199  10.014  10.027   9.341
63101SOL    HW191200  10.028  10.119   9.319
63101SOL    HW291201  10.019  10.023   9.437
63102SOL     OW91202  11.644   3.581  10.812
63102SOL    HW191203  11.656   3.625  10.896
63102SOL    HW291204  11.720   3.524  10.804
63103SOL     OW91205   4.616   1.777  14.572
63103SOL    HW191206   4.598   1.714  14.502
63103SOL    HW291207   4.705   1.758  14.600
63104SOL     OW91208   3.750   7.775   6.686
63104SOL    HW191209   3.660   7.774   6.652
63104SOL    HW291210   3.787   7.691   6.658
63105SOL     OW91211  11.296  14.241  11.909
63105SOL    HW191212  11.388  14.236  11.936
63105SOL    HW291213  11.299  14.231  11.813
63106SOL     OW91214  14.082   9.637   5.845
63106SOL    HW191215  14.003   9.685   5.820
63106SOL    HW291216  14.060   9.545   5.833
63107SOL     OW91217  12.095   6.895   6.969
63107SOL    HW191218  12.144   6.881   6.888
63107SOL    HW291219  12.005   6.869   6.948
63108SOL     OW91220   5.529   9.586  11.691
63108SOL    HW191221   5.491   9.636  11.763
63108SOL    HW291222   5.613   9.629  11.673
63109SOL     OW91223  11.861   2.062   6.241
63109SOL    HW191224  11.921   2.131   6.213
63109SOL    HW291225  11.802   2.050   6.166
63110SOL     OW91226   3.676   9.410  13.772
63110SOL    HW191227   3.696   9.491  13.724
63110SOL    HW291228   3.761   9.367  13.784
63111SOL     OW91229   3.579  12.870   4.630
63111SOL    HW191230   3.662  12.896   4.668
63111SOL    HW291231   3.594  12.870   4.535
63112SOL     OW91232   5.782   6.076  14.258
63112SOL    HW191233   5.847   6.024  14.213
63112SOL    HW291234   5.717   6.097  14.191
63113SOL     OW91235   9.889   1.684  11.007
63113SOL    HW191236   9.811   1.641  10.973
63113SOL    HW291237   9.961   1.623  10.988
63114SOL     OW91238  13.774   2.143   2.959
63114SOL    HW191239  13.691   2.139   3.006
63114SOL    HW291240  13.828   2.203   3.011
63115SOL     OW91241   9.279   9.704   8.104
63115SOL    HW191242   9.197   9.704   8.054
63115SOL    HW291243   9.330   9.633   8.065
63116SOL     OW91244   0.034   1.276  10.658
63116SOL    HW191245   0.030   1.214  10.586
63116SOL    HW291246   0.035   1.221  10.737
63117SOL     OW91247  10.315   9.400   2.951
63117SOL    HW191248  10.284   9.335   3.014
63117SOL    HW291249  10.339   9.475   3.004
63118SOL     OW91250   2.610  11.931  12.205
63118SOL    HW191251   2.541  11.868  12.225
63118SOL    HW291252   2.633  11.912  12.114
63119SOL     OW91253  14.188  11.550  10.109
63119SOL    HW191254  14.109  11.509  10.074
63119SOL    HW291255  14.186  11.639  10.074
63120SOL     OW91256   1.857  11.249  10.649
63120SOL    HW191257   1.821  11.161  10.645
63120SOL    HW291258   1.782  11.306  10.666
63121SOL     OW91259   1.647   6.969   6.620
63121SOL    HW191260   1.683   6.947   6.534
63121SOL    HW291261   1.581   7.037   6.600
63122SOL     OW91262   1.766   0.713  10.441
63122SOL    HW191263   1.750   0.645  10.376
63122SOL    HW291264   1.681   0.727  10.483
63123SOL     OW91265   0.015  11.543   8.635
63123SOL    HW191266  14.808  11.562   8.580
63123SOL    HW291267   0.083  11.600   8.601
63124SOL     OW91268   2.278   7.561   3.314
63124SOL    HW191269   2.373   7.566   3.307
63124SOL    HW291270   2.260   7.468   3.327
63125SOL     OW91271   6.195  12.800   1.955
63125SOL    HW191272   6.256  12.859   1.910
63125SOL    HW291273   6.251  12.742   2.006
63126SOL     OW91274   4.315   0.056  14.123
63126SOL    HW191275   4.360   0.138  14.104
63126SOL    HW291276   4.253   0.046  14.051
63127SOL     OW91277  12.567   0.426  12.439
63127SOL    HW191278  12.648   0.471  12.415
63127SOL    HW291279  12.530   0.397  12.356
63128SOL     OW91280   1.068   2.311  12.883
63128SOL    HW191281   1.128   2.373  12.925
63128SOL    HW291282   0.982   2.351  12.893
63129SOL     OW91283  10.891  12.447   7.376
63129SOL    HW191284  10.872  12.450   7.470
63129SOL    HW291285  10.841  12.372   7.344
63130SOL     OW91286   5.888  14.329   5.340
63130SOL    HW191287   5.953  14.399   5.342
63130SOL    HW291288   5.809  14.369   5.376
63131SOL     OW91289   9.405   3.053   1.671
63131SOL    HW191290   9.394   3.128   1.613
63131SOL    HW291291   9.400   2.977   1.614
63132SOL     OW91292  10.399   3.368   4.738
63132SOL    HW191293  10.457   3.327   4.802
63132SOL    HW291294  10.411   3.317   4.659
63133SOL     OW91295   6.094   5.325  13.910
63133SOL    HW191296   6.105   5.261  13.980
63133SOL    HW291297   6.119   5.278  13.830
63134SOL     OW91298  14.231  14.853   9.083
63134SOL    HW191299  14.143  14.837   9.118
63134SOL    HW291300  14.271   0.044   9.145
63135SOL     OW91301  11.622   1.838   1.955
63135SOL    HW191302  11.597   1.898   2.025
63135SOL    HW291303  11.657   1.761   2.000
63136SOL     OW91304   1.952  12.836  14.780
63136SOL    HW191305   1.874  12.825  14.725
63136SOL    HW291306   2.008  12.762  14.757
63137SOL     OW91307   3.020   7.030   4.697
63137SOL    HW191308   2.977   6.946   4.683
63137SOL    HW291309   3.112   7.007   4.714
63138SOL     OW91310  10.827  14.459  14.662
63138SOL    HW191311  10.766  14.385  14.659
63138SOL    HW291312  10.807  14.503  14.745
63139SOL     OW91313  12.504  14.610   4.412
63139SOL    HW191314  12.536  14.558   4.338
63139SOL    HW291315  12.488  14.697   4.374
63140SOL     OW91316  10.024   8.005  12.648
63140SOL    HW191317  10.094   7.939  12.649
63140SOL    HW291318  10.013   8.027  12.555
63141SOL     OW91319  11.630  13.205   3.429
63141SOL    HW191320  11.569  13.133   3.413
63141SOL    HW291321  11.680  13.212   3.347
63142SOL     OW91322   8.150  10.425  11.330
63142SOL    HW191323   8.092  10.447  11.403
63142SOL    HW291324   8.172  10.333  11.344
63143SOL     OW91325   1.357   6.535   8.801
63143SOL    HW191326   1.343   6.493   8.716
63143SOL    HW291327   1.270   6.567   8.826
63144SOL     OW91328  12.591  13.135  12.726
63144SOL    HW191329  12.571  13.081  12.649
63144SOL    HW291330  12.639  13.210  12.691
63145SOL     OW91331  12.841   8.696   5.788
63145SOL    HW191332  12.775   8.629   5.768
63145SOL    HW291333  12.917   8.647   5.817
63146SOL     OW91334   0.502   3.208   0.201
63146SOL    HW191335   0.501   3.121   0.162
63146SOL    HW291336   0.581   3.211   0.254
63147SOL     OW91337   2.577   0.696   0.785
63147SOL    HW191338   2.493   0.667   0.821
63147SOL    HW291339   2.576   0.791   0.794
63148SOL     OW91340   1.859   0.326  14.613
63148SOL    HW191341   1.887   0.334  14.704
63148SOL    HW291342   1.891   0.241  14.584
63149SOL     OW91343   3.884  13.343   9.994
63149SOL    HW191344   3.929  13.322   9.912
63149SOL    HW291345   3.911  13.432  10.015
63150SOL     OW91346   7.474   0.979  10.204
63150SOL    HW191347   7.506   0.889  10.213
63150SOL    HW291348   7.470   1.012  10.293
63151SOL     OW91349   5.558   0.026   8.612
63151SOL    HW191350   5.648   0.051   8.594
63151SOL    HW291351   5.523   0.097   8.666
63152SOL     OW91352  10.648   4.629   1.551
63152SOL    HW191353  10.707   4.641   1.626
63152SOL    HW291354  10.568   4.593   1.589
63153SOL     OW91355   5.989  12.519   1.373
63153SOL    HW191356   5.983  12.424   1.387
63153SOL    HW291357   5.929  12.557   1.438
63154SOL     OW91358   5.629   3.043   2.682
63154SOL    HW191359   5.633   2.947   2.684
63154SOL    HW291360   5.702   3.069   2.625
63155SOL     OW91361   8.020  10.473   3.692
63155SOL    HW191362   8.020  10.501   3.600
63155SOL    HW291363   8.009  10.554   3.741
63156SOL     OW91364   6.529   7.256   1.462
63156SOL    HW191365   6.582   7.194   1.513
63156SOL    HW291366   6.442   7.217   1.460
63157SOL     OW91367   9.748  12.781  13.520
63157SOL    HW191368   9.769  12.740  13.436
63157SOL    HW291369   9.743  12.874  13.501
63158SOL     OW91370   3.892   5.644  14.778
63158SOL    HW191371   3.967   5.627  14.722
63158SOL    HW291372   3.817   5.608  14.729
63159SOL     OW91373   7.294  10.147   9.604
63159SOL    HW191374   7.227  10.213   9.582
63159SOL    HW291375   7.377  10.195   9.599
63160SOL     OW91376   1.534   3.494  11.318
63160SOL    HW191377   1.601   3.505  11.386
63160SOL    HW291378   1.536   3.400  11.299
63161SOL     OW91379  10.041   8.907  10.037
63161SOL    HW191380   9.979   8.928  10.106
63161SOL    HW291381   9.990   8.912   9.956
63162SOL     OW91382   0.288   4.954  10.208
63162SOL    HW191383   0.205   4.925  10.169
63162SOL    HW291384   0.349   4.962  10.135
63163SOL     OW91385   9.937  10.757   2.045
63163SOL    HW191386  10.002  10.750   1.976
63163SOL    HW291387   9.935  10.851   2.067
63164SOL     OW91388   8.187   8.890   6.392
63164SOL    HW191389   8.245   8.828   6.348
63164SOL    HW291390   8.183   8.965   6.332
63165SOL     OW91391   7.713   5.278  10.660
63165SOL    HW191392   7.806   5.288  10.677
63165SOL    HW291393   7.692   5.189  10.691
63166SOL     OW91394   7.492  13.945   7.778
63166SOL    HW191395   7.446  14.008   7.833
63166SOL    HW291396   7.584  13.955   7.802
63167SOL     OW91397   4.284   1.999   2.332
63167SOL    HW191398   4.341   2.009   2.408
63167SOL    HW291399   4.343   1.991   2.258
63168SOL     OW91400   5.570   6.620   4.739
63168SOL    HW191401   5.640   6.664   4.690
63168SOL    HW291402   5.596   6.630   4.831
63169SOL     OW91403   8.797   2.482  11.557
63169SOL    HW191404   8.887   2.457  11.579
63169SOL    HW291405   8.771   2.420  11.490
63170SOL     OW91406   3.871  11.362  14.664
63170SOL    HW191407   3.949  11.359  14.607
63170SOL    HW291408   3.798  11.348  14.604
63171SOL     OW91409   1.930  11.207   8.033
63171SOL    HW191410   1.901  11.213   8.124
63171SOL    HW291411   2.007  11.264   8.029
63172SOL     OW91412   5.035   0.075  10.443
63172SOL    HW191413   5.030  14.861  10.397
63172SOL    HW291414   5.112   0.068  10.499
63173SOL     OW91415   3.228  12.760   2.119
63173SOL    HW191416   3.314  12.720   2.105
63173SOL    HW291417   3.244  12.854   2.111
63174SOL     OW91418   5.084   4.663   7.753
63174SOL    HW191419   5.104   4.648   7.845
63174SOL    HW291420   5.003   4.614   7.738
63175SOL     OW91421   1.223   8.345   0.861
63175SOL    HW191422   1.286   8.401   0.905
63175SOL    HW291423   1.276   8.280   0.815
63176SOL     OW91424   8.319   0.449   5.486
63176SOL    HW191425   8.350   0.526   5.533
63176SOL    HW291426   8.398   0.407   5.453
63177SOL     OW91427   8.512   5.679  13.185
63177SOL    HW191428   8.431   5.715  13.149
63177SOL    HW291429   8.576   5.691  13.115
63178SOL     OW91430   1.886   1.682   0.514
63178SOL    HW191431   1.895   1.589   0.537
63178SOL    HW291432   1.924   1.689   0.426
63179SOL     OW91433   8.123   8.915  12.799
63179SOL    HW191434   8.204   8.961  12.779
63179SOL    HW291435   8.108   8.933  12.892
63180SOL     OW91436  13.647  10.782   4.167
63180SOL    HW191437  13.587  10.825   4.107
63180SOL    HW291438  13.721  10.756   4.113
63181SOL     OW91439   6.538   3.222  12.692
63181SOL    HW191440   6.495   3.252  12.772
63181SOL    HW291441   6.496   3.272  12.622
63182SOL     OW91442  12.919   4.998   8.669
63182SOL    HW191443  12.901   5.038   8.755
63182SOL    HW291444  12.929   5.072   8.610
63183SOL     OW91445   9.920   9.301  11.526
63183SOL    HW191446   9.983   9.230  11.513
63183SOL    HW291447   9.950   9.371  11.467
63184SOL     OW91448   2.696  11.382   8.270
63184SOL    HW191449   2.781  11.422   8.251
63184SOL    HW291450   2.709  11.289   8.252
63185SOL     OW91451  14.314   6.971   9.460
63185SOL    HW191452  14.360   6.916   9.397
63185SOL    HW291453  14.308   6.917   9.539
63186SOL     OW91454   2.636  10.406   6.493
63186SOL    HW191455   2.637  10.382   6.400
63186SOL    HW291456   2.598  10.329   6.537
63187SOL     OW91457   4.521   0.662  11.795
63187SOL    HW191458   4.497   0.723  11.725
63187SOL    HW291459   4.486   0.578  11.766
63188SOL     OW91460  11.233   2.615   5.809
63188SOL    HW191461  11.287   2.639   5.735
63188SOL    HW291462  11.282   2.645   5.886
63189SOL     OW91463  14.731   1.170  11.694
63189SOL    HW191464  14.704   1.171  11.602
63189SOL    HW291465  14.780   1.089  11.704
63190SOL     OW91466   2.275   8.793   3.833
63190SOL    HW191467   2.251   8.852   3.762
63190SOL    HW291468   2.315   8.850   3.899
63191SOL     OW91469  10.663   5.882   4.441
63191SOL    HW191470  10.671   5.909   4.532
63191SOL    HW291471  10.647   5.963   4.393
63192SOL     OW91472   3.674   5.131   4.945
63192SOL    HW191473   3.712   5.167   5.025
63192SOL    HW291474   3.672   5.205   4.884
63193SOL     OW91475   8.049  12.034  12.201
63193SOL    HW191476   7.973  12.003  12.153
63193SOL    HW291477   8.100  11.955  12.219
63194SOL     OW91478   6.837   7.689   2.159
63194SOL    HW191479   6.914   7.744   2.175
63194SOL    HW291480   6.858   7.605   2.200
63195SOL     OW91481   8.562   3.216   3.900
63195SOL    HW191482   8.499   3.276   3.941
63195SOL    HW291483   8.508   3.148   3.860
63196SOL     OW91484  13.786   2.545   5.979
63196SOL    HW191485  13.844   2.545   5.903
63196SOL    HW291486  13.797   2.632   6.017
63197SOL     OW91487   2.034   0.446   1.047
63197SOL    HW191488   2.083   0.410   0.973
63197SOL    HW291489   2.101   0.480   1.106
63198SOL     OW91490   9.595  13.354   1.570
63198SOL    HW191491   9.550  13.386   1.648
63198SOL    HW291492   9.638  13.431   1.533
63199SOL     OW91493  14.563   1.759   0.847
63199SOL    HW191494  14.590   1.797   0.763
63199SOL    HW291495  14.546   1.667   0.827
63200SOL     OW91496  11.468   3.464   3.945
63200SOL    HW191497  11.482   3.557   3.928
63200SOL    HW291498  11.389   3.442   3.896
63201SOL     OW91499   3.985   4.172   3.537
63201SOL    HW191500   3.984   4.233   3.610
63201SOL    HW291501   3.975   4.227   3.459
63202SOL     OW91502   7.392   5.941  13.431
63202SOL    HW191503   7.317   5.889  13.459
63202SOL    HW291504   7.373   5.963  13.340
63203SOL     OW91505   0.859   9.584  13.093
63203SOL    HW191506   0.932   9.542  13.137
63203SOL    HW291507   0.809   9.513  13.054
63204SOL     OW91508   4.047   7.342   6.843
63204SOL    HW191509   4.086   7.276   6.900
63204SOL    HW291510   4.005   7.291   6.774
63205SOL     OW91511  14.394   7.370   0.605
63205SOL    HW191512  14.456   7.335   0.541
63205SOL    HW291513  14.357   7.293   0.648
63206SOL     OW91514  13.557   6.708   0.123
63206SOL    HW191515  13.540   6.799   0.145
63206SOL    HW291516  13.578   6.666   0.207
63207SOL     OW91517   2.716   8.062   1.261
63207SOL    HW191518   2.628   8.065   1.298
63207SOL    HW291519   2.772   8.099   1.329
63208SOL     OW91520   6.618  13.717   5.896
63208SOL    HW191521   6.710  13.691   5.901
63208SOL    HW291522   6.571  13.636   5.873
63209SOL     OW91523  12.952   6.477   6.677
63209SOL    HW191524  12.995   6.534   6.740
63209SOL    HW291525  12.859   6.499   6.683
63210SOL     OW91526   5.881   7.090   9.505
63210SOL    HW191527   5.814   7.115   9.568
63210SOL    HW291528   5.834   7.038   9.439
63211SOL     OW91529  11.700  11.073   1.048
63211SOL    HW191530  11.731  11.147   1.101
63211SOL    HW291531  11.750  10.998   1.079
63212SOL     OW91532   2.434   7.260   3.673
63212SOL    HW191533   2.505   7.277   3.735
63212SOL    HW291534   2.405   7.347   3.647
63213SOL     OW91535  10.206   1.180   4.276
63213SOL    HW191536  10.251   1.231   4.208
63213SOL    HW291537  10.143   1.126   4.228
63214SOL     OW91538  11.932   8.698   8.892
63214SOL    HW191539  11.860   8.638   8.875
63214SOL    HW291540  11.984   8.697   8.812
63215SOL     OW91541   5.576  10.329   3.349
63215SOL    HW191542   5.507  10.284   3.397
63215SOL    HW291543   5.589  10.277   3.271
63216SOL     OW91544  12.750   2.474   1.322
63216SOL    HW191545  12.757   2.484   1.417
63216SOL    HW291546  12.840   2.482   1.290
63217SOL     OW91547  14.278   2.183   7.140
63217SOL    HW191548  14.263   2.254   7.077
63217SOL    HW291549  14.255   2.222   7.225
63218SOL     OW91550   3.854   1.860  13.213
63218SOL    HW191551   3.840   1.954  13.199
63218SOL    HW291552   3.939   1.854  13.256
63219SOL     OW91553   4.028   0.385  11.300
63219SOL    HW191554   3.981   0.349  11.375
63219SOL    HW291555   4.113   0.412  11.335
63220SOL     OW91556  12.649  12.898   5.450
63220SOL    HW191557  12.615  12.896   5.361
63220SOL    HW291558  12.631  12.987   5.480
63221SOL     OW91559   4.198   3.717   2.039
63221SOL    HW191560   4.129   3.651   2.044
63221SOL    HW291561   4.165   3.782   1.977
63222SOL     OW91562   0.687   7.388   7.687
63222SOL    HW191563   0.739   7.360   7.762
63222SOL    HW291564   0.742   7.370   7.611
63223SOL     OW91565  10.988   0.134   1.023
63223SOL    HW191566  11.083   0.136   1.031
63223SOL    HW291567  10.971   0.171   0.936
63224SOL     OW91568   2.911   5.863   0.255
63224SOL    HW191569   2.884   5.895   0.169
63224SOL    HW291570   2.945   5.775   0.239
63225SOL     OW91571   2.072  14.643   8.540
63225SOL    HW191572   2.115  14.712   8.590
63225SOL    HW291573   2.131  14.569   8.545
63226SOL     OW91574   6.354   8.630   9.114
63226SOL    HW191575   6.300   8.553   9.097
63226SOL    HW291576   6.346   8.683   9.035
63227SOL     OW91577   1.352   6.211   5.313
63227SOL    HW191578   1.373   6.284   5.372
63227SOL    HW291579   1.437   6.184   5.277
63228SOL     OW91580   9.812   8.587   8.363
63228SOL    HW191581   9.770   8.648   8.302
63228SOL    HW291582   9.905   8.590   8.339
63229SOL     OW91583   1.099   5.607   4.848
63229SOL    HW191584   1.017   5.605   4.800
63229SOL    HW291585   1.129   5.516   4.850
63230SOL     OW91586   1.557   7.947  13.030
63230SOL    HW191587   1.596   7.947  13.117
63230SOL    HW291588   1.462   7.946  13.046
63231SOL     OW91589   8.144   0.947   1.650
63231SOL    HW191590   8.069   0.959   1.708
63231SOL    HW291591   8.120   0.993   1.570
63232SOL     OW91592   9.915  11.968   2.233
63232SOL    HW191593   9.891  12.054   2.267
63232SOL    HW291594  10.010  11.971   2.222
63233SOL     OW91595   7.864   4.612   1.842
63233SOL    HW191596   7.833   4.700   1.820
63233SOL    HW291597   7.946   4.627   1.888
63234SOL     OW91598  11.662   8.428   3.960
63234SOL    HW191599  11.620   8.404   3.877
63234SOL    HW291600  11.637   8.519   3.974
63235SOL     OW91601   1.453   4.228  13.329
63235SOL    HW191602   1.493   4.158  13.277
63235SOL    HW291603   1.477   4.207  13.420
63236SOL     OW91604   1.278   5.469  12.546
63236SOL    HW191605   1.199   5.432  12.508
63236SOL    HW291606   1.319   5.396  12.593
63237SOL     OW91607   8.868  13.477   6.099
63237SOL    HW191608   8.919  13.539   6.047
63237SOL    HW291609   8.822  13.423   6.035
63238SOL     OW91610  14.140   5.438   3.064
63238SOL    HW191611  14.097   5.499   3.004
63238SOL    HW291612  14.093   5.355   3.051
63239SOL     OW91613  12.186   2.986  11.593
63239SOL    HW191614  12.242   2.958  11.666
63239SOL    HW291615  12.244   2.988  11.517
63240SOL     OW91616   0.637   0.838   9.089
63240SOL    HW191617   0.644   0.794   9.173
63240SOL    HW291618   0.711   0.805   9.038
63241SOL     OW91619   6.564  11.821   3.616
63241SOL    HW191620   6.516  11.752   3.662
63241SOL    HW291621   6.532  11.903   3.655
63242SOL     OW91622  14.532   6.241   8.231
63242SOL    HW191623  14.617   6.279   8.212
63242SOL    HW291624  14.486   6.307   8.283
63243SOL     OW91625   0.035   6.713  10.281
63243SOL    HW191626   0.033   6.777  10.352
63243SOL    HW291627  14.814   6.682  10.275
63244SOL     OW91628   0.894  14.814   0.120
63244SOL    HW191629   0.935   0.030   0.108
63244SOL    HW291630   0.839  14.802   0.043
63245SOL     OW91631   4.042   1.387  14.601
63245SOL    HW191632   4.057   1.365  14.693
63245SOL    HW291633   3.986   1.317  14.568
63246SOL     OW91634   9.035   7.052   6.866
63246SOL    HW191635   9.099   6.989   6.900
63246SOL    HW291636   8.977   7.000   6.811
63247SOL     OW91637  10.200  10.436   8.613
63247SOL    HW191638  10.223  10.506   8.675
63247SOL    HW291639  10.140  10.380   8.663
63248SOL     OW91640   2.271   1.684   7.502
63248SOL    HW191641   2.217   1.734   7.440
63248SOL    HW291642   2.355   1.729   7.502
63249SOL     OW91643   8.551   1.481   3.640
63249SOL    HW191644   8.578   1.489   3.731
63249SOL    HW291645   8.567   1.567   3.601
63250SOL     OW91646   5.503   0.470   8.003
63250SOL    HW191647   5.415   0.434   7.992
63250SOL    HW291648   5.508   0.492   8.096
63251SOL     OW91649  14.083   8.913   0.288
63251SOL    HW191650  14.024   8.869   0.349
63251SOL    HW291651  14.025   8.966   0.234
63252SOL     OW91652   2.196  13.708   5.861
63252SOL    HW191653   2.111  13.719   5.903
63252SOL    HW291654   2.238  13.793   5.870
63253SOL     OW91655  13.887   2.633   7.767
63253SOL    HW191656  13.876   2.728   7.761
63253SOL    HW291657  13.982   2.620   7.769
63254SOL     OW91658   2.952   4.516   3.966
63254SOL    HW191659   2.944   4.607   3.995
63254SOL    HW291660   3.021   4.518   3.900
63255SOL     OW91661   5.561  14.500   6.120
63255SOL    HW191662   5.558  14.466   6.031
63255SOL    HW291663   5.542  14.424   6.176
63256SOL     OW91664   9.049   4.740   9.157
63256SOL    HW191665   9.041   4.829   9.189
63256SOL    HW291666   9.133   4.739   9.110
63257SOL     OW91667   5.415   5.268  10.063
63257SOL    HW191668   5.378   5.191  10.106
63257SOL    HW291669   5.471   5.308  10.130
63258SOL     OW91670   4.059   5.091   3.420
63258SOL    HW191671   3.972   5.052   3.414
63258SOL    HW291672   4.116   5.018   3.447
63259SOL     OW91673   8.054   1.430   4.922
63259SOL    HW191674   7.987   1.426   4.855
63259SOL    HW291675   8.087   1.340   4.930
63260SOL     OW91676  12.409   1.930  10.670
63260SOL    HW191677  12.484   1.989  10.660
63260SOL    HW291678  12.396   1.923  10.765
63261SOL     OW91679  14.365  13.022   8.148
63261SOL    HW191680  14.437  13.084   8.137
63261SOL    HW291681  14.405  12.946   8.191
63262SOL     OW91682   0.007  10.007   9.560
63262SOL    HW191683   0.004  10.087   9.508
63262SOL    HW291684   0.092   9.968   9.539
63263SOL     OW91685  10.361   1.688   1.182
63263SOL    HW191686  10.440   1.674   1.130
63263SOL    HW291687  10.313   1.606   1.176
63264SOL     OW91688  10.708   2.893  13.853
63264SOL    HW191689  10.689   2.800  13.852
63264SOL    HW291690  10.759   2.906  13.933
63265SOL     OW91691   8.658   7.544   2.089
63265SOL    HW191692   8.616   7.489   2.156
63265SOL    HW291693   8.679   7.625   2.136
63266SOL     OW91694   7.407  14.364   3.157
63266SOL    HW191695   7.353  14.304   3.209
63266SOL    HW291696   7.495  14.355   3.192
63267SOL     OW91697   5.016  12.184   0.924
63267SOL    HW191698   4.934  12.146   0.893
63267SOL    HW291699   5.074  12.109   0.937
63268SOL     OW91700   2.688  12.742   9.360
63268SOL    HW191701   2.645  12.784   9.286
63268SOL    HW291702   2.636  12.767   9.436
63269SOL     OW91703  13.964   9.629   0.855
63269SOL    HW191704  13.994   9.651   0.944
63269SOL    HW291705  13.907   9.701   0.831
63270SOL     OW91706  11.454  12.509   1.408
63270SOL    HW191707  11.480  12.574   1.474
63270SOL    HW291708  11.507  12.432   1.428
63271SOL     OW91709   9.109   4.571  10.933
63271SOL    HW191710   9.164   4.498  10.960
63271SOL    HW291711   9.171   4.640  10.907
63272SOL     OW91712   6.597   7.950  12.564
63272SOL    HW191713   6.598   8.044  12.549
63272SOL    HW291714   6.504   7.927  12.565
63273SOL     OW91715  14.712   1.443  10.557
63273SOL    HW191716  14.766   1.389  10.614
63273SOL    HW291717  14.625   1.403  10.562
63274SOL     OW91718   5.796   3.082   5.393
63274SOL    HW191719   5.793   3.051   5.483
63274SOL    HW291720   5.868   3.032   5.353
63275SOL     OW91721  14.762   1.495   5.197
63275SOL    HW191722  14.689   1.546   5.161
63275SOL    HW291723  14.732   1.404   5.194
63276SOL     OW91724   3.578  11.124   0.467
63276SOL    HW191725   3.671  11.138   0.454
63276SOL    HW291726   3.560  11.152   0.557
63277SOL     OW91727   4.723  11.728   5.852
63277SOL    HW191728   4.679  11.803   5.891
63277SOL    HW291729   4.777  11.765   5.782
63278SOL     OW91730   6.605   1.575   4.727
63278SOL    HW191731   6.526   1.542   4.769
63278SOL    HW291732   6.605   1.669   4.746
63279SOL     OW91733   4.150   5.020   5.975
63279SOL    HW191734   4.224   4.965   6.000
63279SOL    HW291735   4.189   5.104   5.952
63280SOL     OW91736   5.197   6.181   1.631
63280SOL    HW191737   5.154   6.232   1.562
63280SOL    HW291738   5.173   6.225   1.712
63281SOL     OW91739   5.392   6.373   6.957
63281SOL    HW191740   5.466   6.314   6.970
63281SOL    HW291741   5.319   6.315   6.935
63282SOL     OW91742   6.173   5.702   7.292
63282SOL    HW191743   6.118   5.700   7.214
63282SOL    HW291744   6.226   5.781   7.282
63283SOL     OW91745   0.305   4.119  13.941
63283SOL    HW191746   0.275   4.034  13.907
63283SOL    HW291747   0.338   4.165  13.864
63284SOL     OW91748   9.163  10.375  14.852
63284SOL    HW191749   9.134  10.288  14.822
63284SOL    HW291750   9.242  10.358   0.033
63285SOL     OW91751   5.128  10.077  14.863
63285SOL    HW191752   5.142   9.984   0.011
63285SOL    HW291753   5.174  10.121   0.064
63286SOL     OW91754   9.699  14.410  13.838
63286SOL    HW191755   9.667  14.450  13.918
63286SOL    HW291756   9.786  14.376  13.861
63287SOL     OW91757   4.783   0.894   2.451
63287SOL    HW191758   4.701   0.943   2.452
63287SOL    HW291759   4.763   0.815   2.400
63288SOL     OW91760  10.590  10.434   9.861
63288SOL    HW191761  10.641  10.383   9.924
63288SOL    HW291762  10.617  10.525   9.877
63289SOL     OW91763   5.101  11.972   3.276
63289SOL    HW191764   5.041  11.945   3.345
63289SOL    HW291765   5.045  11.988   3.200
63290SOL     OW91766  10.297   2.871   1.536
63290SOL    HW191767  10.383   2.912   1.528
63290SOL    HW291768  10.280   2.835   1.449
63291SOL     OW91769   2.828   8.084   4.710
63291SOL    HW191770   2.788   8.044   4.788
63291SOL    HW291771   2.874   8.160   4.744
63292SOL     OW91772   8.821  11.408   1.410
63292SOL    HW191773   8.801  11.315   1.422
63292SOL    HW291774   8.775  11.451   1.482
63293SOL     OW91775  14.791  14.225   6.778
63293SOL    HW191776  14.866  14.264   6.824
63293SOL    HW291777  14.749  14.170   6.844
63294SOL     OW91778   3.721  13.443   4.682
63294SOL    HW191779   3.784  13.475   4.618
63294SOL    HW291780   3.707  13.518   4.741
63295SOL     OW91781   0.946   8.535   6.259
63295SOL    HW191782   0.918   8.480   6.332
63295SOL    HW291783   0.915   8.622   6.282
63296SOL     OW91784   2.635   5.431   5.026
63296SOL    HW191785   2.560   5.385   4.987
63296SOL    HW291786   2.595   5.499   5.080
63297SOL     OW91787   4.468   8.836   2.760
63297SOL    HW191788   4.489   8.752   2.800
63297SOL    HW291789   4.484   8.823   2.667
63298SOL     OW91790   9.197   2.216   8.179
63298SOL    HW191791   9.251   2.140   8.158
63298SOL    HW291792   9.215   2.234   8.271
63299SOL     OW91793  12.993  12.236  14.385
63299SOL    HW191794  12.943  12.306  14.427
63299SOL    HW291795  12.945  12.217  14.305
63300SOL     OW91796  12.172  11.083  10.503
63300SOL    HW191797  12.099  11.029  10.532
63300SOL    HW291798  12.230  11.022  10.457
63301SOL     OW91799   2.539  11.446  14.253
63301SOL    HW191800   2.530  11.532  14.294
63301SOL    HW291801   2.618  11.453  14.199
63302SOL     OW91802  13.246   0.413   3.688
63302SOL    HW191803  13.227   0.474   3.617
63302SOL    HW291804  13.259   0.329   3.644
63303SOL     OW91805   8.733   0.513  12.503
63303SOL    HW191806   8.641   0.487  12.492
63303SOL    HW291807   8.737   0.550  12.591
63304SOL     OW91808  10.102   6.952  11.674
63304SOL    HW191809  10.167   6.933  11.743
63304SOL    HW291810  10.024   6.980  11.722
63305SOL     OW91811   9.955   9.681   4.717
63305SOL    HW191812   9.876   9.734   4.732
63305SOL    HW291813   9.937   9.598   4.760
63306SOL     OW91814   2.926   7.207   4.216
63306SOL    HW191815   2.989   7.136   4.204
63306SOL    HW291816   2.981   7.284   4.234
63307SOL     OW91817   8.187   5.966   1.806
63307SOL    HW191818   8.253   6.031   1.831
63307SOL    HW291819   8.174   5.979   1.712
63308SOL     OW91820  11.736   5.835  14.424
63308SOL    HW191821  11.741   5.770  14.354
63308SOL    HW291822  11.661   5.807  14.478
63309SOL     OW91823  14.279  13.198   7.946
63309SOL    HW191824  14.281  13.139   8.022
63309SOL    HW291825  14.292  13.285   7.984
63310SOL     OW91826   0.340   2.848   8.782
63310SOL    HW191827   0.343   2.753   8.773
63310SOL    HW291828   0.334   2.881   8.692
63311SOL     OW91829  12.601   6.336   0.857
63311SOL    HW191830  12.508   6.328   0.837
63311SOL    HW291831  12.623   6.426   0.832
63312SOL     OW91832   5.255   2.304   8.966
63312SOL    HW191833   5.161   2.304   8.983
63312SOL    HW291834   5.295   2.311   9.053
63313SOL     OW91835   3.549  11.308   2.072
63313SOL    HW191836   3.483  11.350   2.017
63313SOL    HW291837   3.538  11.350   2.158
63314SOL     OW91838   6.374  14.665  13.810
63314SOL    HW191839   6.389  14.759  13.795
63314SOL    HW291840   6.297  14.645  13.758
63315SOL     OW91841  14.852   6.698   1.203
63315SOL    HW191842   0.044   6.624   1.204
63315SOL    HW291843  14.820   6.703   1.293
63316SOL     OW91844  14.578   0.205  13.546
63316SOL    HW191845  14.647   0.176  13.487
63316SOL    HW291846  14.500   0.157  13.517
63317SOL     OW91847   0.747   3.810   0.356
63317SOL    HW191848   0.829   3.848   0.325
63317SOL    HW291849   0.680   3.871   0.326
63318SOL     OW91850   8.647  12.262  12.719
63318SOL    HW191851   8.652  12.275  12.814
63318SOL    HW291852   8.637  12.350  12.683
63319SOL     OW91853   1.768  13.237  10.162
63319SOL    HW191854   1.825  13.256  10.088
63319SOL    HW291855   1.789  13.147  10.187
63320SOL     OW91856   3.457   2.643  11.825
63320SOL    HW191857   3.415   2.566  11.863
63320SOL    HW291858   3.551   2.622  11.826
63321SOL     OW91859  14.118   5.462   1.282
63321SOL    HW191860  14.137   5.373   1.250
63321SOL    HW291861  14.056   5.449   1.353
63322SOL     OW91862  14.550   0.925   3.145
63322SOL    HW191863  14.511   1.012   3.132
63322SOL    HW291864  14.569   0.922   3.239
63323SOL     OW91865  13.580   1.540   1.333
63323SOL    HW191866  13.544   1.557   1.246
63323SOL    HW291867  13.659   1.488   1.317
63324SOL     OW91868   0.076   6.797   7.310
63324SOL    HW191869   0.168   6.771   7.302
63324SOL    HW291870   0.078   6.874   7.367
63325SOL     OW91871  13.999   5.767   3.344
63325SOL    HW191872  14.017   5.676   3.319
63325SOL    HW291873  13.965   5.762   3.433
63326SOL     OW91874  14.564   6.083   7.803
63326SOL    HW191875  14.527   6.042   7.880
63326SOL    HW291876  14.657   6.061   7.807
63327SOL     OW91877  12.919  11.256  11.702
63327SOL    HW191878  12.983  11.244  11.632
63327SOL    HW291879  12.929  11.180  11.759
63328SOL     OW91880   3.910   0.707   3.894
63328SOL    HW191881   3.910   0.761   3.973
63328SOL    HW291882   3.958   0.628   3.919
63329SOL     OW91883   1.352  13.483   8.988
63329SOL    HW191884   1.400  13.552   9.034
63329SOL    HW291885   1.264  13.486   9.025
63330SOL     OW91886  13.090  13.954   2.878
63330SOL    HW191887  13.185  13.958   2.871
63330SOL    HW291888  13.059  14.023   2.820
63331SOL     OW91889   9.590   3.810   1.239
63331SOL    HW191890   9.575   3.858   1.320
63331SOL    HW291891   9.534   3.733   1.245
63332SOL     OW91892  13.735  10.183  13.602
63332SOL    HW191893  13.661  10.206  13.545
63332SOL    HW291894  13.799  10.143  13.543
63333SOL     OW91895  13.927   4.676   9.441
63333SOL    HW191896  14.023   4.681   9.440
63333SOL    HW291897  13.908   4.618   9.515
63334SOL     OW91898   2.160   8.521   6.758
63334SOL    HW191899   2.216   8.548   6.685
63334SOL    HW291900   2.119   8.603   6.788
63335SOL     OW91901   0.180   8.680   8.761
63335SOL    HW191902   0.228   8.599   8.750
63335SOL    HW291903   0.130   8.668   8.842
63336SOL     OW91904  13.140   8.368   6.164
63336SOL    HW191905  13.111   8.310   6.094
63336SOL    HW291906  13.124   8.319   6.244
63337SOL     OW91907   8.078  11.268   1.929
63337SOL    HW191908   8.003  11.279   1.988
63337SOL    HW291909   8.049  11.200   1.867
63338SOL     OW91910  11.971   2.688  10.427
63338SOL    HW191911  12.002   2.702  10.337
63338SOL    HW291912  11.965   2.593  10.436
63339SOL     OW91913   3.475   1.000  11.359
63339SOL    HW191914   3.464   1.053  11.280
63339SOL    HW291915   3.391   0.955  11.369
63340SOL     OW91916  12.823   0.446  12.304
63340SOL    HW191917  12.912   0.481  12.306
63340SOL    HW291918  12.833   0.354  12.329
63341SOL     OW91919  13.951   0.599   9.998
63341SOL    HW191920  13.891   0.649  10.054
63341SOL    HW291921  14.037   0.637  10.015
63342SOL     OW91922   9.723   8.289   1.933
63342SOL    HW191923   9.719   8.229   1.858
63342SOL    HW291924   9.664   8.250   1.998
63343SOL     OW91925  11.681   9.296  10.047
63343SOL    HW191926  11.717   9.347   9.974
63343SOL    HW291927  11.757   9.257  10.089
63344SOL     OW91928  12.081  11.164   3.533
63344SOL    HW191929  12.054  11.254   3.551
63344SOL    HW291930  12.147  11.144   3.599
63345SOL     OW91931   0.217   3.915   5.697
63345SOL    HW191932   0.227   3.823   5.676
63345SOL    HW291933   0.237   3.922   5.790
63346SOL     OW91934   6.562   5.113   5.999
63346SOL    HW191935   6.502   5.071   5.937
63346SOL    HW291936   6.640   5.132   5.948
63347SOL     OW91937  11.966   0.772   0.735
63347SOL    HW191938  11.981   0.851   0.682
63347SOL    HW291939  11.898   0.798   0.797
63348SOL     OW91940   4.290  11.369  12.506
63348SOL    HW191941   4.343  11.408  12.575
63348SOL    HW291942   4.350  11.360  12.432
63349SOL     OW91943   6.932   8.011  12.424
63349SOL    HW191944   6.895   7.940  12.476
63349SOL    HW291945   6.856   8.056  12.387
63350SOL     OW91946   9.005   3.432   1.729
63350SOL    HW191947   9.067   3.363   1.754
63350SOL    HW291948   9.051   3.514   1.745
63351SOL     OW91949   1.294   5.154  12.608
63351SOL    HW191950   1.352   5.085  12.575
63351SOL    HW291951   1.205   5.122  12.590
63352SOL     OW91952  11.594  10.549   4.539
63352SOL    HW191953  11.538  10.471   4.542
63352SOL    HW291954  11.679  10.516   4.509
63353SOL     OW91955   1.856   4.966   7.681
63353SOL    HW191956   1.761   4.980   7.677
63353SOL    HW291957   1.866   4.889   7.737
63354SOL     OW91958   6.616  14.323  14.741
63354SOL    HW191959   6.699  14.279  14.760
63354SOL    HW291960   6.606  14.315  14.646
63355SOL     OW91961  12.436  13.169   8.996
63355SOL    HW191962  12.484  13.107   9.051
63355SOL    HW291963  12.345  13.141   9.001
63356SOL     OW91964   6.128   6.878   7.839
63356SOL    HW191965   6.124   6.950   7.902
63356SOL    HW291966   6.221   6.857   7.833
63357SOL     OW91967   7.211  12.748   8.402
63357SOL    HW191968   7.156  12.685   8.356
63357SOL    HW291969   7.272  12.780   8.335
63358SOL     OW91970   0.662   2.693   0.371
63358SOL    HW191971   0.744   2.676   0.417
63358SOL    HW291972   0.602   2.625   0.403
63359SOL     OW91973  14.709  12.210   7.403
63359SOL    HW191974  14.753  12.295   7.406
63359SOL    HW291975  14.617  12.231   7.388
63360SOL     OW91976  12.183   3.368   5.431
63360SOL    HW191977  12.155   3.277   5.438
63360SOL    HW291978  12.212   3.378   5.341
63361SOL     OW91979  13.304  12.589   3.174
63361SOL    HW191980  13.221  12.607   3.130
63361SOL    HW291981  13.370  12.608   3.108
63362SOL     OW91982   7.860   5.883   6.532
63362SOL    HW191983   7.939   5.935   6.517
63362SOL    HW291984   7.860   5.867   6.627
63363SOL     OW91985  12.035   4.742   6.961
63363SOL    HW191986  11.986   4.734   6.879
63363SOL    HW291987  12.001   4.672   7.017
63364SOL     OW91988   0.777   2.930  14.520
63364SOL    HW191989   0.762   2.836  14.513
63364SOL    HW291990   0.871   2.940  14.506
63365SOL     OW91991   4.520   1.712  13.979
63365SOL    HW191992   4.593   1.771  14.001
63365SOL    HW291993   4.441   1.764  13.997
63366SOL     OW91994   6.884   2.235   7.874
63366SOL    HW191995   6.888   2.326   7.847
63366SOL    HW291996   6.791   2.217   7.887
63367SOL     OW91997   6.376  13.753   4.475
63367SOL    HW191998   6.350  13.755   4.383
63367SOL    HW291999   6.319  13.686   4.515
63368SOL     OW92000  11.386   0.600   7.036
63368SOL    HW192001  11.379   0.509   7.005
63368SOL    HW292002  11.445   0.595   7.111
63369SOL     OW92003   2.029  13.113   2.422
63369SOL    HW192004   2.083  13.154   2.490
63369SOL    HW292005   1.939  13.122   2.454
63370SOL     OW92006   7.136   0.511   2.808
63370SOL    HW192007   7.167   0.584   2.861
63370SOL    HW292008   7.108   0.445   2.872
63371SOL     OW92009   6.196   0.146   3.514
63371SOL    HW192010   6.242   0.215   3.562
63371SOL    HW292011   6.222   0.065   3.557
63372SOL     OW92012  13.704   6.012   4.805
63372SOL    HW192013  13.717   6.028   4.898
63372SOL    HW292014  13.714   6.098   4.764
63373SOL     OW92015   0.233   8.379   7.889
63373SOL    HW192016   0.160   8.325   7.920
63373SOL    HW292017   0.256   8.433   7.965
63374SOL     OW92018  11.750   9.505   1.027
63374SOL    HW192019  11.772   9.466   0.943
63374SOL    HW292020  11.658   9.531   1.018
63375SOL     OW92021   8.411   2.740  11.117
63375SOL    HW192022   8.450   2.798  11.051
63375SOL    HW292023   8.368   2.799  11.179
63376SOL     OW92024   6.633   2.794  13.111
63376SOL    HW192025   6.700   2.727  13.123
63376SOL    HW292026   6.678   2.864  13.064
63377SOL     OW92027   8.729   4.350  14.493
63377SOL    HW192028   8.812   4.385  14.524
63377SOL    HW292029   8.749   4.260  14.466
63378SOL     OW92030   7.169  12.007  10.345
63378SOL    HW192031   7.108  12.005  10.270
63378SOL    HW292032   7.255  11.997  10.305
63379SOL     OW92033  10.056   5.887   9.291
63379SOL    HW192034  10.009   5.958   9.249
63379SOL    HW292035  10.131   5.929   9.334
63380SOL     OW92036   9.159  10.578   5.574
63380SOL    HW192037   9.064  10.589   5.566
63380SOL    HW292038   9.175  10.488   5.544
63381SOL     OW92039  12.035  10.533   6.701
63381SOL    HW192040  12.041  10.509   6.793
63381SOL    HW292041  12.037  10.449   6.654
63382SOL     OW92042   5.669   7.915  10.938
63382SOL    HW192043   5.762   7.892  10.948
63382SOL    HW292044   5.622   7.847  10.987
63383SOL     OW92045   8.466   5.811  13.512
63383SOL    HW192046   8.522   5.832  13.437
63383SOL    HW292047   8.386   5.861  13.497
63384SOL     OW92048   8.896   9.463   4.426
63384SOL    HW192049   8.876   9.492   4.515
63384SOL    HW292050   8.874   9.370   4.425
63385SOL     OW92051   3.210  12.253   2.869
63385SOL    HW192052   3.198  12.329   2.927
63385SOL    HW292053   3.125  12.244   2.825
63386SOL     OW92054   4.975  14.077   2.202
63386SOL    HW192055   4.952  13.998   2.252
63386SOL    HW292056   4.917  14.076   2.126
63387SOL     OW92057   6.925   5.792   2.299
63387SOL    HW192058   6.986   5.857   2.266
63387SOL    HW292059   6.843   5.809   2.253
63388SOL     OW92060  11.751   3.643   6.177
63388SOL    HW192061  11.671   3.605   6.212
63388SOL    HW292062  11.822   3.598   6.223
63389SOL     OW92063   6.414   2.978  10.230
63389SOL    HW192064   6.504   2.963  10.202
63389SOL    HW292065   6.409   2.940  10.318
63390SOL     OW92066   2.361   1.462   3.549
63390SOL    HW192067   2.371   1.544   3.503
63390SOL    HW292068   2.294   1.479   3.615
63391SOL     OW92069  11.144   1.466   7.546
63391SOL    HW192070  11.112   1.378   7.566
63391SOL    HW292071  11.208   1.453   7.476
63392SOL     OW92072   8.160   1.276  10.775
63392SOL    HW192073   8.081   1.226  10.757
63392SOL    HW292074   8.142   1.363  10.739
63393SOL     OW92075   7.653   1.381   4.969
63393SOL    HW192076   7.700   1.361   4.888
63393SOL    HW292077   7.561   1.366   4.948
63394SOL     OW92078  10.449   4.661   3.999
63394SOL    HW192079  10.421   4.589   4.055
63394SOL    HW292080  10.412   4.739   4.040
63395SOL     OW92081  10.702  10.523   0.140
63395SOL    HW192082  10.646  10.549   0.068
63395SOL    HW292083  10.730  10.605   0.180
63396SOL     OW92084   1.117  13.997   2.032
63396SOL    HW192085   1.131  13.992   1.937
63396SOL    HW292086   1.111  13.906   2.060
63397SOL     OW92087   5.728   4.351   6.616
63397SOL    HW192088   5.752   4.401   6.538
63397SOL    HW292089   5.797   4.371   6.680
63398SOL     OW92090   6.413   9.590  11.854
63398SOL    HW192091   6.356   9.584  11.930
63398SOL    HW292092   6.486   9.530  11.873
63399SOL     OW92093   0.957  10.716  10.235
63399SOL    HW192094   0.870  10.678  10.242
63399SOL    HW292095   0.962  10.780  10.306
63400SOL     OW92096   9.686  10.667   7.105
63400SOL    HW192097   9.592  10.684   7.105
63400SOL    HW292098   9.694  10.574   7.126
63401SOL     OW92099   7.503   3.902  14.833
63401SOL    HW192100   7.420   3.948  14.821
63401SOL    HW292101   7.482   3.832   0.025
63402SOL     OW92102   0.997  14.265   4.603
63402SOL    HW192103   0.917  14.213   4.596
63402SOL    HW292104   0.989  14.330   4.534
63403SOL     OW92105   0.135   7.973   5.811
63403SOL    HW192106   0.074   8.031   5.764
63403SOL    HW292107   0.209   7.964   5.751
63404SOL     OW92108  11.464   9.885   8.207
63404SOL    HW192109  11.480   9.955   8.271
63404SOL    HW292110  11.369   9.884   8.197
63405SOL     OW92111  10.475   7.161   4.073
63405SOL    HW192112  10.465   7.239   4.126
63405SOL    HW292113  10.485   7.090   4.136
63406SOL     OW92114  11.674  10.400  10.035
63406SOL    HW192115  11.619  10.413  10.112
63406SOL    HW292116  11.755  10.363  10.070
63407SOL     OW92117   0.862   0.542   6.586
63407SOL    HW192118   0.829   0.485   6.655
63407SOL    HW292119   0.935   0.494   6.547
63408SOL     OW92120   6.288  14.249   5.006
63408SOL    HW192121   6.342  14.328   5.004
63408SOL    HW292122   6.218  14.269   5.067
63409SOL     OW92123   7.578   1.384  10.735
63409SOL    HW192124   7.584   1.421  10.647
63409SOL    HW292125   7.509   1.436  10.778
63410SOL     OW92126   5.658  12.894  11.602
63410SOL    HW192127   5.704  12.978  11.613
63410SOL    HW292128   5.719  12.839  11.553
63411SOL     OW92129   6.954   4.857   0.846
63411SOL    HW192130   6.870   4.889   0.879
63411SOL    HW292131   6.933   4.811   0.765
63412SOL     OW92132   4.275   0.251   5.115
63412SOL    HW192133   4.354   0.206   5.146
63412SOL    HW292134   4.282   0.339   5.152
63413SOL     OW92135   0.373   6.880   2.707
63413SOL    HW192136   0.318   6.820   2.757
63413SOL    HW292137   0.318   6.906   2.633
63414SOL     OW92138   3.251   0.186  14.221
63414SOL    HW192139   3.287   0.275  14.226
63414SOL    HW292140   3.284   0.151  14.139
63415SOL     OW92141  13.880   5.159  13.678
63415SOL    HW192142  13.957   5.199  13.720
63415SOL    HW292143  13.814   5.228  13.679
63416SOL     OW92144  11.264   0.757   7.375
63416SOL    HW192145  11.283   0.851   7.382
63416SOL    HW292146  11.169   0.753   7.365
63417SOL     OW92147   0.108   6.829   0.979
63417SOL    HW192148   0.034   6.860   0.927
63417SOL    HW292149   0.071   6.816   1.067
63418SOL     OW92150   9.432  11.403  11.785
63418SOL    HW192151   9.464  11.342  11.719
63418SOL    HW292152   9.341  11.378  11.799
63419SOL     OW92153   0.745   4.159   2.881
63419SOL    HW192154   0.664   4.202   2.854
63419SOL    HW292155   0.779   4.214   2.950
63420SOL     OW92156  10.124  13.079   1.113
63420SOL    HW192157  10.036  13.070   1.077
63420SOL    HW292158  10.173  13.007   1.075
63421SOL     OW92159  11.641  12.783   6.959
63421SOL    HW192160  11.645  12.874   6.929
63421SOL    HW292161  11.703  12.779   7.032
63422SOL     OW92162  14.021   4.161  14.241
63422SOL    HW192163  13.932   4.184  14.216
63422SOL    HW292164  14.073   4.176  14.162
63423SOL     OW92165   7.026   6.931   6.592
63423SOL    HW192166   6.939   6.927   6.632
63423SOL    HW292167   7.086   6.930   6.666
63424SOL     OW92168   2.935  11.994   4.661
63424SOL    HW192169   2.982  11.989   4.578
63424SOL    HW292170   2.970  12.072   4.704
63425SOL     OW92171   5.524   0.822  12.522
63425SOL    HW192172   5.448   0.782  12.564
63425SOL    HW292173   5.577   0.855  12.595
63426SOL     OW92174   3.574   3.785   8.099
63426SOL    HW192175   3.663   3.748   8.099
63426SOL    HW292176   3.562   3.818   8.010
63427SOL     OW92177  12.789   5.078   4.780
63427SOL    HW192178  12.765   4.991   4.811
63427SOL    HW292179  12.706   5.127   4.780
63428SOL     OW92180   3.505   5.050  13.853
63428SOL    HW192181   3.590   5.092  13.836
63428SOL    HW292182   3.443   5.099  13.799
63429SOL     OW92183   9.359  13.558  13.174
63429SOL    HW192184   9.352  13.474  13.219
63429SOL    HW292185   9.330  13.539  13.084
63430SOL     OW92186  13.874  11.841   1.050
63430SOL    HW192187  13.904  11.806   1.134
63430SOL    HW292188  13.842  11.929   1.071
63431SOL     OW92189  10.730   0.103   5.094
63431SOL    HW192190  10.814   0.139   5.123
63431SOL    HW292191  10.709   0.152   5.015
63432SOL     OW92192  14.112   1.782   7.662
63432SOL    HW192193  14.049   1.725   7.705
63432SOL    HW292194  14.139   1.844   7.730
63433SOL     OW92195  10.844  13.756  14.117
63433SOL    HW192196  10.888  13.768  14.201
63433SOL    HW292197  10.909  13.782  14.051
63434SOL     OW92198   5.712   8.976  11.549
63434SOL    HW192199   5.799   8.937  11.538
63434SOL    HW292200   5.689   9.009  11.463
63435SOL     OW92201   5.310   7.050   2.525
63435SOL    HW192202   5.225   7.095   2.531
63435SOL    HW292203   5.372   7.120   2.507
63436SOL     OW92204   0.522  10.953   9.974
63436SOL    HW192205   0.553  11.001   9.897
63436SOL    HW292206   0.539  10.861   9.954
63437SOL     OW92207   5.345   9.572   3.090
63437SOL    HW192208   5.326   9.508   3.021
63437SOL    HW292209   5.264   9.622   3.100
63438SOL     OW92210   0.313   4.481  13.525
63438SOL    HW192211   0.256   4.437  13.588
63438SOL    HW292212   0.371   4.535  13.579
63439SOL     OW92213  10.905   4.557   1.101
63439SOL    HW192214  10.921   4.590   1.189
63439SOL    HW292215  10.882   4.635   1.050
63440SOL     OW92216   1.033   3.162   9.570
63440SOL    HW192217   1.073   3.202   9.646
63440SOL    HW292218   0.939   3.168   9.587
63441SOL     OW92219  13.726  11.811   4.561
63441SOL    HW192220  13.775  11.828   4.481
63441SOL    HW292221  13.693  11.897   4.588
63442SOL     OW92222   9.703   9.115  11.654
63442SOL    HW192223   9.630   9.078  11.604
63442SOL    HW292224   9.743   9.179  11.596
63443SOL     OW92225   9.325   9.646   6.812
63443SOL    HW192226   9.370   9.722   6.775
63443SOL    HW292227   9.379   9.572   6.785
63444SOL     OW92228   2.013   9.455  10.185
63444SOL    HW192229   1.962   9.526  10.225
63444SOL    HW292230   2.097   9.459  10.231
63445SOL     OW92231  12.853   9.045   7.651
63445SOL    HW192232  12.766   9.010   7.631
63445SOL    HW292233  12.904   9.030   7.571
63446SOL     OW92234   1.341   2.227   5.537
63446SOL    HW192235   1.269   2.243   5.598
63446SOL    HW292236   1.302   2.242   5.450
63447SOL     OW92237  14.702   0.850  10.904
63447SOL    HW192238  14.712   0.846  10.809
63447SOL    HW292239  14.782   0.810  10.938
63448SOL     OW92240   5.650  11.518  12.575
63448SOL    HW192241   5.617  11.516  12.665
63448SOL    HW292242   5.638  11.429  12.543
63449SOL     OW92243   3.431  14.233   4.284
63449SOL    HW192244   3.339  14.206   4.289
63449SOL    HW292245   3.447  14.280   4.366
63450SOL     OW92246  10.433   6.844   3.824
63450SOL    HW192247  10.507   6.824   3.768
63450SOL    HW292248  10.357   6.844   3.765
63451SOL     OW92249  13.828   3.874   1.593
63451SOL    HW192250  13.799   3.783   1.582
63451SOL    HW292251  13.922   3.871   1.573
63452SOL     OW92252   0.466  10.061   5.303
63452SOL    HW192253   0.385  10.065   5.353
63452SOL    HW292254   0.438  10.067   5.211
63453SOL     OW92255   0.143   1.816   6.226
63453SOL    HW192256   0.086   1.753   6.270
63453SOL    HW292257   0.178   1.870   6.297
63454SOL     OW92258   3.598   7.438  10.436
63454SOL    HW192259   3.516   7.429  10.389
63454SOL    HW292260   3.572   7.464  10.525
63455SOL     OW92261   4.032   3.724  12.652
63455SOL    HW192262   3.980   3.774  12.714
63455SOL    HW292263   3.974   3.711  12.577
63456SOL     OW92264  10.254  12.879   7.081
63456SOL    HW192265  10.340  12.852   7.113
63456SOL    HW292266  10.206  12.797   7.068
63457SOL     OW92267   5.405   2.458   0.099
63457SOL    HW192268   5.408   2.546   0.137
63457SOL    HW292269   5.412   2.399   0.174
63458SOL     OW92270   2.317  10.293  10.792
63458SOL    HW192271   2.289  10.330  10.876
63458SOL    HW292272   2.262  10.335  10.727
63459SOL     OW92273  11.706   2.851   4.517
63459SOL    HW192274  11.687   2.918   4.451
63459SOL    HW292275  11.640   2.783   4.503
63460SOL     OW92276   2.588   0.174   9.123
63460SOL    HW192277   2.609   0.243   9.185
63460SOL    HW292278   2.670   0.127   9.108
63461SOL     OW92279   0.295   4.621  10.834
63461SOL    HW192280   0.282   4.681  10.760
63461SOL    HW292281   0.350   4.551  10.799
63462SOL     OW92282   3.523   2.780   3.088
63462SOL    HW192283   3.602   2.834   3.096
63462SOL    HW292284   3.465   2.812   3.157
63463SOL     OW92285   2.016   1.131   4.113
63463SOL    HW192286   1.973   1.059   4.067
63463SOL    HW292287   1.968   1.210   4.085
63464SOL     OW92288   9.494  13.851   5.846
63464SOL    HW192289   9.469  13.923   5.787
63464SOL    HW292290   9.503  13.775   5.788
63465SOL     OW92291  12.776   8.842   8.650
63465SOL    HW192292  12.823   8.799   8.579
63465SOL    HW292293  12.685   8.844   8.620
63466SOL     OW92294  14.049   9.404   7.235
63466SOL    HW192295  14.029   9.497   7.223
63466SOL    HW292296  14.143   9.397   7.218
63467SOL     OW92297   4.740   4.756  10.826
63467SOL    HW192298   4.667   4.786  10.772
63467SOL    HW292299   4.809   4.735  10.763
63468SOL     OW92300   5.568   1.912   6.127
63468SOL    HW192301   5.655   1.936   6.094
63468SOL    HW292302   5.580   1.827   6.168
63469SOL     OW92303  12.117  13.325   7.554
63469SOL    HW192304  12.154  13.361   7.635
63469SOL    HW292305  12.083  13.239   7.580
63470SOL     OW92306   8.008   3.659   6.831
63470SOL    HW192307   8.030   3.601   6.758
63470SOL    HW292308   7.913   3.672   6.824
63471SOL     OW92309   9.987   1.944   8.842
63471SOL    HW192310   9.999   1.926   8.749
63471SOL    HW292311   9.984   1.858   8.883
63472SOL     OW92312  12.584  11.205  14.171
63472SOL    HW192313  12.532  11.255  14.233
63472SOL    HW292314  12.620  11.133  14.223
63473SOL     OW92315  14.220   6.846  14.396
63473SOL    HW192316  14.263   6.853  14.481
63473SOL    HW292317  14.126   6.847  14.415
63474SOL     OW92318   0.058   7.101   1.639
63474SOL    HW192319   0.120   7.093   1.566
63474SOL    HW292320   0.013   7.016   1.641
63475SOL     OW92321   4.836  10.226   1.794
63475SOL    HW192322   4.870  10.198   1.709
63475SOL    HW292323   4.770  10.161   1.817
63476SOL     OW92324   3.781  12.208  13.749
63476SOL    HW192325   3.816  12.291  13.717
63476SOL    HW292326   3.853  12.171  13.800
63477SOL     OW92327   1.634   3.763   9.376
63477SOL    HW192328   1.700   3.697   9.399
63477SOL    HW292329   1.581   3.771   9.455
63478SOL     OW92330  10.755  12.945   7.168
63478SOL    HW192331  10.764  12.859   7.127
63478SOL    HW292332  10.708  12.997   7.102
63479SOL     OW92333  10.355   4.058  10.648
63479SOL    HW192334  10.311   4.143  10.643
63479SOL    HW292335  10.297   3.999  10.600
63480SOL     OW92336   6.246   9.573  10.835
63480SOL    HW192337   6.215   9.599  10.748
63480SOL    HW292338   6.329   9.528  10.819
63481SOL     OW92339   0.431  12.245   5.224
63481SOL    HW192340   0.435  12.341   5.216
63481SOL    HW292341   0.414  12.215   5.135
63482SOL     OW92342   7.474   7.139   9.632
63482SOL    HW192343   7.421   7.073   9.588
63482SOL    HW292344   7.425   7.160   9.712
63483SOL     OW92345   5.210   9.749   1.156
63483SOL    HW192346   5.172   9.818   1.210
63483SOL    HW292347   5.157   9.671   1.176
63484SOL     OW92348   8.004   0.216   7.424
63484SOL    HW192349   7.991   0.310   7.422
63484SOL    HW292350   8.016   0.195   7.517
63485SOL     OW92351   0.343   2.131   3.206
63485SOL    HW192352   0.265   2.077   3.196
63485SOL    HW292353   0.344   2.154   3.299
63486SOL     OW92354   5.371  13.010   7.568
63486SOL    HW192355   5.310  13.050   7.507
63486SOL    HW292356   5.435  12.966   7.512
63487SOL     OW92357  13.796   5.298  14.310
63487SOL    HW192358  13.786   5.285  14.216
63487SOL    HW292359  13.826   5.389  14.318
63488SOL     OW92360   7.377  12.135   2.922
63488SOL    HW192361   7.392  12.041   2.921
63488SOL    HW292362   7.404  12.164   2.834
63489SOL     OW92363   6.281  14.293   3.776
63489SOL    HW192364   6.208  14.355   3.775
63489SOL    HW292365   6.250  14.219   3.725
63490SOL     OW92366   8.058   9.719  12.634
63490SOL    HW192367   8.062   9.783  12.706
63490SOL    HW292368   8.149   9.713  12.603
63491SOL     OW92369   1.434   6.638   3.558
63491SOL    HW192370   1.408   6.728   3.538
63491SOL    HW292371   1.525   6.633   3.529
63492SOL     OW92372   0.122  14.386   9.135
63492SOL    HW192373   0.145  14.390   9.042
63492SOL    HW292374   0.207  14.389   9.180
63493SOL     OW92375   3.124  13.370   7.370
63493SOL    HW192376   3.046  13.420   7.396
63493SOL    HW292377   3.105  13.341   7.281
63494SOL     OW92378  14.614   9.637   8.836
63494SOL    HW192379  14.664   9.698   8.890
63494SOL    HW292380  14.675   9.609   8.768
63495SOL     OW92381   3.797  10.212  11.343
63495SOL    HW192382   3.831  10.301  11.328
63495SOL    HW292383   3.703  10.220  11.329
63496SOL     OW92384  14.193   3.391  10.554
63496SOL    HW192385  14.115   3.341  10.577
63496SOL    HW292386  14.246   3.331  10.502
63497SOL     OW92387  13.243  14.628   0.840
63497SOL    HW192388  13.322  14.677   0.816
63497SOL    HW292389  13.258  14.540   0.807
63498SOL     OW92390  14.644   9.227   7.763
63498SOL    HW192391  14.688   9.218   7.678
63498SOL    HW292392  14.633   9.137   7.793
63499SOL     OW92393   2.834   6.995   0.138
63499SOL    HW192394   2.928   6.988   0.118
63499SOL    HW292395   2.827   7.073   0.193
63500SOL     OW92396   3.255  11.239   9.202
63500SOL    HW192397   3.203  11.304   9.249
63500SOL    HW292398   3.279  11.174   9.268
63501SOL     OW92399   4.334   6.463   3.033
63501SOL    HW192400   4.308   6.471   3.124
63501SOL    HW292401   4.278   6.395   2.997
63502SOL     OW92402  10.262   4.329   1.402
63502SOL    HW192403  10.190   4.301   1.346
63502SOL    HW292404  10.338   4.328   1.345
63503SOL     OW92405   4.673  11.506   2.945
63503SOL    HW192406   4.607  11.436   2.945
63503SOL    HW292407   4.706  11.507   3.035
63504SOL     OW92408   4.367   4.055  10.612
63504SOL    HW192409   4.388   4.033  10.521
63504SOL    HW292410   4.436   4.011  10.663
63505SOL     OW92411  10.712  14.470   9.105
63505SOL    HW192412  10.652  14.516   9.164
63505SOL    HW292413  10.713  14.523   9.025
63506SOL     OW92414  13.009   3.794  12.498
63506SOL    HW192415  12.960   3.712  12.506
63506SOL    HW292416  12.947   3.856  12.459
63507SOL     OW92417  10.564  14.053   0.467
63507SOL    HW192418  10.620  14.063   0.544
63507SOL    HW292419  10.548  14.142   0.437
63508SOL     OW92420  13.876  14.086   6.396
63508SOL    HW192421  13.785  14.110   6.380
63508SOL    HW292422  13.923  14.118   6.319
63509SOL     OW92423   5.653   6.394   9.661
63509SOL    HW192424   5.561   6.413   9.678
63509SOL    HW292425   5.695   6.480   9.656
63510SOL     OW92426  14.801   3.332   4.902
63510SOL    HW192427  14.841   3.255   4.863
63510SOL    HW292428  14.710   3.328   4.873
63511SOL     OW92429   9.781   0.973   1.523
63511SOL    HW192430   9.737   0.989   1.606
63511SOL    HW292431   9.828   1.055   1.504
63512SOL     OW92432  11.945   3.034  14.676
63512SOL    HW192433  11.964   2.986  14.596
63512SOL    HW292434  11.929   3.124  14.646
63513SOL     OW92435   2.616   6.070   2.876
63513SOL    HW192436   2.676   6.051   2.804
63513SOL    HW292437   2.641   6.009   2.945
63514SOL     OW92438   0.739   0.864   3.959
63514SOL    HW192439   0.658   0.848   3.910
63514SOL    HW292440   0.737   0.800   4.030
63515SOL     OW92441  13.290  11.303  14.799
63515SOL    HW192442  13.286  11.329   0.021
63515SOL    HW292443  13.380  11.322  14.772
63516SOL     OW92444   4.618   4.067  11.663
63516SOL    HW192445   4.594   4.159  11.651
63516SOL    HW292446   4.654   4.064  11.752
63517SOL     OW92447  12.092   4.562  13.643
63517SOL    HW192448  12.084   4.486  13.700
63517SOL    HW292449  12.149   4.534  13.572
63518SOL     OW92450   4.094   8.285   6.460
63518SOL    HW192451   4.020   8.227   6.478
63518SOL    HW292452   4.061   8.373   6.480
63519SOL     OW92453   6.355   2.488  12.979
63519SOL    HW192454   6.283   2.464  12.921
63519SOL    HW292455   6.373   2.408  13.029
63520SOL     OW92456  13.698   3.842   0.577
63520SOL    HW192457  13.771   3.783   0.559
63520SOL    HW292458  13.737   3.914   0.627
63521SOL     OW92459   9.499   0.088  11.418
63521SOL    HW192460   9.461   0.128  11.497
63521SOL    HW292461   9.588   0.124  11.415
63522SOL     OW92462   4.142   6.663   8.314
63522SOL    HW192463   4.128   6.684   8.407
63522SOL    HW292464   4.180   6.743   8.277
63523SOL     OW92465   8.588  11.361   6.364
63523SOL    HW192466   8.638  11.437   6.334
63523SOL    HW292467   8.498  11.379   6.338
63524SOL     OW92468  11.985   1.240   8.409
63524SOL    HW192469  12.031   1.159   8.430
63524SOL    HW292470  11.973   1.283   8.494
63525SOL     OW92471   0.593   2.170  13.899
63525SOL    HW192472   0.639   2.099  13.946
63525SOL    HW292473   0.515   2.187  13.953
63526SOL     OW92474  12.442   3.886   9.018
63526SOL    HW192475  12.416   3.976   8.997
63526SOL    HW292476  12.452   3.887   9.114
63527SOL     OW92477   7.582  13.961   1.938
63527SOL    HW192478   7.634  13.889   1.973
63527SOL    HW292479   7.576  13.944   1.844
63528SOL     OW92480  11.609  14.802   6.754
63528SOL    HW192481  11.639  14.822   6.843
63528SOL    HW292482  11.673  14.739   6.721
63529SOL     OW92483   6.324  10.353   8.065
63529SOL    HW192484   6.323  10.325   8.157
63529SOL    HW292485   6.294  10.276   8.017
63530SOL     OW92486   7.961   8.871  13.996
63530SOL    HW192487   8.035   8.924  13.968
63530SOL    HW292488   7.937   8.906  14.082
63531SOL     OW92489   6.145   4.568   3.369
63531SOL    HW192490   6.079   4.630   3.400
63531SOL    HW292491   6.216   4.622   3.336
63532SOL     OW92492   1.349   4.364  12.605
63532SOL    HW192493   1.444   4.350  12.606
63532SOL    HW292494   1.336   4.448  12.648
63533SOL     OW92495   5.886   1.314   9.536
63533SOL    HW192496   5.827   1.354   9.471
63533SOL    HW292497   5.858   1.351   9.619
63534SOL     OW92498  11.891   2.401   0.880
63534SOL    HW192499  11.839   2.334   0.836
63534SOL    HW292500  11.840   2.482   0.870
63535SOL     OW92501   4.548   1.091   1.875
63535SOL    HW192502   4.612   1.057   1.938
63535SOL    HW292503   4.517   1.172   1.914
63536SOL     OW92504   3.663   8.162   6.000
63536SOL    HW192505   3.580   8.170   5.954
63536SOL    HW292506   3.701   8.250   5.996
63537SOL     OW92507   7.577  13.790   4.998
63537SOL    HW192508   7.659  13.769   4.952
63537SOL    HW292509   7.559  13.881   4.973
63538SOL     OW92510   6.082  11.504   4.170
63538SOL    HW192511   6.135  11.578   4.139
63538SOL    HW292512   6.006  11.546   4.211
63539SOL     OW92513   2.595   4.857   0.777
63539SOL    HW192514   2.667   4.799   0.802
63539SOL    HW292515   2.517   4.801   0.777
63540SOL     OW92516   1.975   9.882  13.798
63540SOL    HW192517   1.890   9.921  13.777
63540SOL    HW292518   2.010   9.937  13.868
63541SOL     OW92519  13.031   3.066   8.823
63541SOL    HW192520  13.098   3.021   8.772
63541SOL    HW292521  13.079   3.121   8.884
63542SOL     OW92522  11.439  11.150  10.580
63542SOL    HW192523  11.375  11.097  10.532
63542SOL    HW292524  11.428  11.125  10.671
63543SOL     OW92525   6.074  14.535   5.369
63543SOL    HW192526   6.074  14.568   5.459
63543SOL    HW292527   6.165  14.541   5.341
63544SOL     OW92528  13.644   0.880   9.728
63544SOL    HW192529  13.719   0.899   9.672
63544SOL    HW292530  13.635   0.785   9.726
63545SOL     OW92531   2.693  11.647   1.176
63545SOL    HW192532   2.695  11.612   1.087
63545SOL    HW292533   2.683  11.569   1.232
63546SOL     OW92534  12.774  14.389   4.766
63546SOL    HW192535  12.697  14.436   4.797
63546SOL    HW292536  12.788  14.320   4.831
63547SOL     OW92537   5.990  12.761  14.344
63547SOL    HW192538   6.081  12.732  14.337
63547SOL    HW292539   5.972  12.762  14.438
63548SOL     OW92540  12.142   8.788  12.746
63548SOL    HW192541  12.190   8.747  12.674
63548SOL    HW292542  12.059   8.740  12.749
63549SOL     OW92543   3.618   2.591   4.926
63549SOL    HW192544   3.600   2.497   4.913
63549SOL    HW292545   3.595   2.631   4.842
63550SOL     OW92546   6.028  10.619  12.594
63550SOL    HW192547   5.963  10.549  12.600
63550SOL    HW292548   5.992  10.679  12.528
63551SOL     OW92549   2.964   7.138  14.268
63551SOL    HW192550   2.949   7.206  14.202
63551SOL    HW292551   2.879   7.124  14.308
63552SOL     OW92552   4.560  12.610   5.961
63552SOL    HW192553   4.582  12.518   5.975
63552SOL    HW292554   4.607  12.635   5.882
63553SOL     OW92555  13.808   4.043   0.720
63553SOL    HW192556  13.890   4.090   0.734
63553SOL    HW292557  13.782   4.015   0.808
63554SOL     OW92558  11.071   1.263   7.238
63554SOL    HW192559  11.150   1.309   7.264
63554SOL    HW292560  11.102   1.177   7.209
63555SOL     OW92561   1.380  13.984   4.082
63555SOL    HW192562   1.390  14.078   4.091
63555SOL    HW292563   1.287  13.971   4.063
63556SOL     OW92564   0.742  11.583   6.598
63556SOL    HW192565   0.778  11.636   6.669
63556SOL    HW292566   0.740  11.642   6.523
63557SOL     OW92567   3.229  11.621   1.886
63557SOL    HW192568   3.182  11.628   1.969
63557SOL    HW292569   3.161  11.623   1.819
63558SOL     OW92570   0.790  12.870  12.222
63558SOL    HW192571   0.882  12.855  12.241
63558SOL    HW292572   0.780  12.965  12.225
63559SOL     OW92573   6.629   0.786   5.958
63559SOL    HW192574   6.709   0.808   6.006
63559SOL    HW292575   6.658   0.779   5.867
63560SOL     OW92576  10.375   3.182   4.540
63560SOL    HW192577  10.419   3.205   4.458
63560SOL    HW292578  10.321   3.106   4.518
63561SOL     OW92579   1.546   9.812   7.477
63561SOL    HW192580   1.550   9.907   7.487
63561SOL    HW292581   1.453   9.793   7.467
63562SOL     OW92582   3.239   8.457   5.313
63562SOL    HW192583   3.248   8.532   5.372
63562SOL    HW292584   3.328   8.439   5.284
63563SOL     OW92585   3.455   8.503   6.308
63563SOL    HW192586   3.506   8.579   6.281
63563SOL    HW292587   3.400   8.482   6.231
63564SOL     OW92588   3.928   7.542  14.086
63564SOL    HW192589   3.979   7.549  14.167
63564SOL    HW292590   3.861   7.476  14.105
63565SOL     OW92591   7.439   7.056   6.800
63565SOL    HW192592   7.401   7.011   6.724
63565SOL    HW292593   7.451   6.987   6.865
63566SOL     OW92594   5.080  10.051   0.808
63566SOL    HW192595   5.021  10.027   0.880
63566SOL    HW292596   5.163  10.009   0.831
63567SOL     OW92597  14.194  14.499   8.420
63567SOL    HW192598  14.225  14.431   8.360
63567SOL    HW292599  14.244  14.485   8.500
63568SOL     OW92600   0.712  12.774   7.777
63568SOL    HW192601   0.637  12.784   7.718
63568SOL    HW292602   0.672  12.755   7.862
63569SOL     OW92603  13.434   3.248  12.954
63569SOL    HW192604  13.491   3.239  13.031
63569SOL    HW292605  13.432   3.342  12.936
63570SOL     OW92606   4.017   6.372   9.557
63570SOL    HW192607   3.975   6.457   9.572
63570SOL    HW292608   4.094   6.392   9.503
63571SOL     OW92609   1.803   0.909   4.610
63571SOL    HW192610   1.857   0.928   4.533
63571SOL    HW292611   1.714   0.928   4.582
63572SOL     OW92612  12.982  13.324   6.328
63572SOL    HW192613  12.935  13.242   6.340
63572SOL    HW292614  12.945  13.362   6.248
63573SOL     OW92615   1.610  14.449   0.666
63573SOL    HW192616   1.558  14.468   0.587
63573SOL    HW292617   1.643  14.534   0.694
63574SOL     OW92618  14.194   8.693   1.593
63574SOL    HW192619  14.167   8.601   1.594
63574SOL    HW292620  14.135   8.735   1.530
63575SOL     OW92621   6.773   9.382   5.592
63575SOL    HW192622   6.817   9.460   5.558
63575SOL    HW292623   6.784   9.389   5.687
63576SOL     OW92624   0.917   4.599  11.329
63576SOL    HW192625   1.008   4.575  11.342
63576SOL    HW292626   0.911   4.627  11.238
63577SOL     OW92627  12.556  11.508  14.112
63577SOL    HW192628  12.472  11.464  14.110
63577SOL    HW292629  12.569  11.533  14.203
63578SOL     OW92630  13.393  10.731   1.295
63578SOL    HW192631  13.308  10.703   1.328
63578SOL    HW292632  13.373  10.779   1.215
63579SOL     OW92633  14.153  11.363   4.047
63579SOL    HW192634  14.246  11.347   4.033
63579SOL    HW292635  14.111  11.333   3.966
63580SOL     OW92636   7.797   5.175   1.149
63580SOL    HW192637   7.886   5.210   1.145
63580SOL    HW292638   7.806   5.091   1.193
63581SOL     OW92639  13.272  13.946  12.240
63581SOL    HW192640  13.249  13.854  12.254
63581SOL    HW292641  13.272  13.956  12.145
63582SOL     OW92642  12.943  13.415   9.116
63582SOL    HW192643  12.993  13.344   9.157
63582SOL    HW292644  12.923  13.382   9.028
63583SOL     OW92645  10.820  11.347   5.229
63583SOL    HW192646  10.790  11.265   5.191
63583SOL    HW292647  10.907  11.362   5.191
63584SOL     OW92648   5.419   7.058  10.253
63584SOL    HW192649   5.486   7.014  10.201
63584SOL    HW292650   5.343   7.062  10.195
63585SOL     OW92651  10.330   4.893   4.105
63585SOL    HW192652  10.238   4.900   4.131
63585SOL    HW292653  10.380   4.916   4.183
63586SOL     OW92654   8.166   0.259  10.789
63586SOL    HW192655   8.154   0.349  10.756
63586SOL    HW292656   8.100   0.208  10.742
63587SOL     OW92657  11.401   6.768  10.259
63587SOL    HW192658  11.449   6.845  10.229
63587SOL    HW292659  11.351   6.740  10.183
63588SOL     OW92660   8.012   7.667   5.266
63588SOL    HW192661   7.980   7.580   5.292
63588SOL    HW292662   8.005   7.720   5.346
63589SOL     OW92663  14.255  12.730  13.005
63589SOL    HW192664  14.255  12.724  13.101
63589SOL    HW292665  14.315  12.660  12.977
63590SOL     OW92666   6.932  12.770  13.646
63590SOL    HW192667   6.867  12.772  13.575
63590SOL    HW292668   7.001  12.712  13.613
63591SOL     OW92669   0.910   4.965  14.499
63591SOL    HW192670   0.931   4.963  14.592
63591SOL    HW292671   0.829   4.913  14.492
63592SOL     OW92672  13.689  11.577   5.364
63592SOL    HW192673  13.609  11.572   5.416
63592SOL    HW292674  13.663  11.623   5.284
63593SOL     OW92675   3.746   7.372  13.435
63593SOL    HW192676   3.682   7.375  13.363
63593SOL    HW292677   3.728   7.288  13.479
63594SOL     OW92678  11.131   8.107   1.450
63594SOL    HW192679  11.172   8.046   1.512
63594SOL    HW292680  11.126   8.058   1.368
63595SOL     OW92681   0.960   3.072  13.777
63595SOL    HW192682   1.025   3.005  13.756
63595SOL    HW292683   0.887   3.024  13.817
63596SOL     OW92684  10.900   7.413   8.484
63596SOL    HW192685  10.839   7.476   8.522
63596SOL    HW292686  10.921   7.353   8.556
63597SOL     OW92687  12.199  14.336  12.013
63597SOL    HW192688  12.162  14.331  11.925
63597SOL    HW292689  12.205  14.430  12.031
63598SOL     OW92690   0.856   3.272  10.859
63598SOL    HW192691   0.805   3.200  10.821
63598SOL    HW292692   0.801   3.304  10.931
63599SOL     OW92693   7.770   0.898   8.654
63599SOL    HW192694   7.850   0.913   8.704
63599SOL    HW292695   7.794   0.834   8.587
63600SOL     OW92696   7.746  13.467   0.047
63600SOL    HW192697   7.728  13.528   0.119
63600SOL    HW292698   7.716  13.513  14.838
63601SOL     OW92699   7.734   0.949   6.798
63601SOL    HW192700   7.784   0.984   6.724
63601SOL    HW292701   7.651   0.997   6.796
63602SOL     OW92702   7.296   9.379   9.880
63602SOL    HW192703   7.331   9.305   9.832
63602SOL    HW292704   7.281   9.345   9.969
63603SOL     OW92705   1.644   3.163   3.072
63603SOL    HW192706   1.655   3.178   3.166
63603SOL    HW292707   1.660   3.249   3.032
63604SOL     OW92708   9.108   5.988   8.844
63604SOL    HW192709   9.123   5.900   8.879
63604SOL    HW292710   9.057   6.032   8.912
63605SOL     OW92711  13.350   0.811  10.660
63605SOL    HW192712  13.395   0.823  10.576
63605SOL    HW292713  13.313   0.897  10.679
63606SOL     OW92714   1.965   9.049   9.817
63606SOL    HW192715   1.891   9.066   9.758
63606SOL    HW292716   1.946   9.101   9.895
63607SOL     OW92717   9.693   4.707   2.616
63607SOL    HW192718   9.786   4.689   2.628
63607SOL    HW292719   9.671   4.768   2.688
63608SOL     OW92720   8.595  12.581  11.458
63608SOL    HW192721   8.515  12.548  11.416
63608SOL    HW292722   8.662  12.516  11.436
63609SOL     OW92723   1.841  10.961   5.427
63609SOL    HW192724   1.865  11.048   5.459
63609SOL    HW292725   1.765  10.935   5.479
63610SOL     OW92726   2.283   2.782   9.983
63610SOL    HW192727   2.271   2.729   9.905
63610SOL    HW292728   2.242   2.731  10.053
63611SOL     OW92729   1.351   0.158   7.314
63611SOL    HW192730   1.342   0.253   7.307
63611SOL    HW292731   1.344   0.126   7.224
63612SOL     OW92732   1.805  10.502   1.612
63612SOL    HW192733   1.797  10.563   1.685
63612SOL    HW292734   1.862  10.433   1.644
63613SOL     OW92735   1.248   1.744  11.814
63613SOL    HW192736   1.208   1.801  11.879
63613SOL    HW292737   1.276   1.804  11.744
63614SOL     OW92738   5.560   7.914   3.704
63614SOL    HW192739   5.528   7.827   3.678
63614SOL    HW292740   5.630   7.933   3.642
63615SOL     OW92741   2.016   2.275   9.574
63615SOL    HW192742   2.015   2.337   9.501
63615SOL    HW292743   1.935   2.225   9.565
63616SOL     OW92744   0.918   2.453  14.194
63616SOL    HW192745   0.981   2.513  14.233
63616SOL    HW292746   0.871   2.416  14.269
63617SOL     OW92747  13.471  11.873   1.557
63617SOL    HW192748  13.443  11.964   1.563
63617SOL    HW292749  13.408  11.832   1.499
63618SOL     OW92750  12.337   4.211   5.429
63618SOL    HW192751  12.379   4.195   5.514
63618SOL    HW292752  12.250   4.244   5.451
63619SOL     OW92753  14.719   5.509   5.016
63619SOL    HW192754  14.680   5.529   4.931
63619SOL    HW292755  14.738   5.594   5.054
63620SOL     OW92756   8.382   3.645  13.973
63620SOL    HW192757   8.423   3.711  14.029
63620SOL    HW292758   8.395   3.562  14.020
63621SOL     OW92759  11.409   9.564   9.597
63621SOL    HW192760  11.443   9.482   9.562
63621SOL    HW292761  11.443   9.567   9.687
63622SOL     OW92762   3.867   6.512   8.766
63622SOL    HW192763   3.784   6.476   8.735
63622SOL    HW292764   3.870   6.490   8.859
63623SOL     OW92765   7.875   0.325   0.963
63623SOL    HW192766   7.966   0.352   0.952
63623SOL    HW292767   7.871   0.286   1.050
63624SOL     OW92768   9.438   4.261   3.004
63624SOL    HW192769   9.482   4.233   3.084
63624SOL    HW292770   9.466   4.198   2.937
63625SOL     OW92771   7.362  11.455  13.424
63625SOL    HW192772   7.414  11.509  13.365
63625SOL    HW292773   7.407  11.371  13.426
63626SOL     OW92774   3.395   9.445   2.421
63626SOL    HW192775   3.383   9.354   2.446
63626SOL    HW292776   3.490   9.455   2.410
63627SOL     OW92777   8.962   7.094   4.687
63627SOL    HW192778   9.029   7.027   4.677
63627SOL    HW292779   9.006   7.165   4.734
63628SOL     OW92780   3.877   1.545   8.068
63628SOL    HW192781   3.939   1.606   8.108
63628SOL    HW292782   3.793   1.565   8.110
63629SOL     OW92783   8.600  10.151  10.258
63629SOL    HW192784   8.660  10.077  10.267
63629SOL    HW292785   8.530  10.118  10.201
63630SOL     OW92786   4.504  14.194   9.951
63630SOL    HW192787   4.580  14.229   9.997
63630SOL    HW292788   4.532  14.187   9.860
63631SOL     OW92789   9.199   2.867   4.791
63631SOL    HW192790   9.105   2.882   4.802
63631SOL    HW292791   9.238   2.890   4.875
63632SOL     OW92792   4.732  14.079   0.749
63632SOL    HW192793   4.783  14.002   0.723
63632SOL    HW292794   4.651  14.043   0.785
63633SOL     OW92795   5.929   6.695  13.150
63633SOL    HW192796   5.917   6.625  13.086
63633SOL    HW292797   5.937   6.649  13.234
63634SOL     OW92798   2.676  11.212   9.748
63634SOL    HW192799   2.693  11.119   9.763
63634SOL    HW292800   2.583  11.216   9.724
63635SOL     OW92801   6.803  12.771  11.495
63635SOL    HW192802   6.826  12.695  11.442
63635SOL    HW292803   6.707  12.772  11.496
63636SOL     OW92804   9.921  14.250   5.012
63636SOL    HW192805   9.843  14.271   5.063
63636SOL    HW292806   9.965  14.182   5.063
63637SOL     OW92807   1.108   1.073   0.659
63637SOL    HW192808   1.053   1.079   0.581
63637SOL    HW292809   1.071   1.000   0.709
63638SOL     OW92810  13.132   4.003  13.829
63638SOL    HW192811  13.216   4.049  13.838
63638SOL    HW292812  13.125   3.983  13.736
63639SOL     OW92813  14.597   9.099   5.270
63639SOL    HW192814  14.520   9.120   5.216
63639SOL    HW292815  14.562   9.090   5.358
63640SOL     OW92816   1.421   5.811   9.105
63640SOL    HW192817   1.466   5.812   9.021
63640SOL    HW292818   1.398   5.720   9.119
63641SOL     OW92819   6.546   4.566   4.132
63641SOL    HW192820   6.581   4.500   4.192
63641SOL    HW292821   6.468   4.526   4.094
63642SOL     OW92822  13.300   6.375   5.521
63642SOL    HW192823  13.336   6.302   5.471
63642SOL    HW292824  13.283   6.443   5.456
63643SOL     OW92825  12.696   1.198   0.535
63643SOL    HW192826  12.751   1.238   0.468
63643SOL    HW292827  12.615   1.249   0.534
63644SOL     OW92828   5.076  10.771  14.008
63644SOL    HW192829   5.139  10.763  14.079
63644SOL    HW292830   5.123  10.740  13.931
63645SOL     OW92831   8.069  14.098   1.541
63645SOL    HW192832   7.999  14.133   1.487
63645SOL    HW292833   8.041  14.009   1.564
63646SOL     OW92834   8.247   0.373   3.150
63646SOL    HW192835   8.262   0.286   3.185
63646SOL    HW292836   8.274   0.432   3.220
63647SOL     OW92837   6.415   7.487   3.085
63647SOL    HW192838   6.482   7.481   3.018
63647SOL    HW292839   6.450   7.550   3.148
63648SOL     OW92840   3.014   5.323   3.214
63648SOL    HW192841   2.976   5.258   3.274
63648SOL    HW292842   2.940   5.351   3.160
63649SOL     OW92843   0.305   0.475   1.202
63649SOL    HW192844   0.400   0.472   1.196
63649SOL    HW292845   0.280   0.392   1.242
63650SOL     OW92846   8.992   0.448   3.618
63650SOL    HW192847   8.982   0.537   3.653
63650SOL    HW292848   8.915   0.434   3.563
63651SOL     OW92849   6.477  13.859   6.863
63651SOL    HW192850   6.534  13.841   6.939
63651SOL    HW292851   6.395  13.891   6.901
63652SOL     OW92852  14.331   3.800   6.598
63652SOL    HW192853  14.397   3.867   6.578
63652SOL    HW292854  14.344   3.780   6.690
63653SOL     OW92855   2.877   1.646  13.341
63653SOL    HW192856   2.966   1.646  13.374
63653SOL    HW292857   2.868   1.730  13.296
63654SOL     OW92858  11.593   5.093  11.937
63654SOL    HW192859  11.629   5.058  12.018
63654SOL    HW292860  11.627   5.182  11.932
63655SOL     OW92861   1.615   0.062  11.556
63655SOL    HW192862   1.588   0.002  11.626
63655SOL    HW292863   1.641   0.005  11.484
63656SOL     OW92864  13.716   2.747   6.939
63656SOL    HW192865  13.664   2.822   6.967
63656SOL    HW292866  13.801   2.784   6.917
63657SOL     OW92867   2.363   5.102   5.482
63657SOL    HW192868   2.295   5.078   5.545
63657SOL    HW292869   2.425   5.028   5.484
63658SOL     OW92870   7.238   9.091   5.376
63658SOL    HW192871   7.192   9.011   5.404
63658SOL    HW292872   7.313   9.059   5.326
63659SOL     OW92873   1.872  11.080   7.603
63659SOL    HW192874   1.915  11.137   7.539
63659SOL    HW292875   1.933  11.078   7.677
63660SOL     OW92876   5.270   1.989  12.799
63660SOL    HW192877   5.335   1.923  12.774
63660SOL    HW292878   5.231   2.017  12.716
63661SOL     OW92879  14.500   6.847   4.220
63661SOL    HW192880  14.501   6.941   4.237
63661SOL    HW292881  14.494   6.840   4.125
63662SOL     OW92882   7.075   3.186  14.296
63662SOL    HW192883   6.985   3.162  14.319
63662SOL    HW292884   7.129   3.138  14.360
63663SOL     OW92885   5.079   2.585   7.363
63663SOL    HW192886   5.031   2.614   7.285
63663SOL    HW292887   5.083   2.490   7.354
63664SOL     OW92888   1.354   0.101   9.324
63664SOL    HW192889   1.404   0.169   9.277
63664SOL    HW292890   1.274   0.091   9.272
63665SOL     OW92891   6.921   5.377  12.402
63665SOL    HW192892   6.900   5.296  12.357
63665SOL    HW292893   6.846   5.434  12.385
63666SOL     OW92894   3.283  14.660  10.052
63666SOL    HW192895   3.267  14.611  10.133
63666SOL    HW292896   3.298  14.593   9.986
63667SOL     OW92897   5.407   0.147   9.273
63667SOL    HW192898   5.433   0.096   9.349
63667SOL    HW292899   5.323   0.109   9.247
63668SOL     OW92900  14.722   6.815   0.349
63668SOL    HW192901  14.691   6.837   0.261
63668SOL    HW292902  14.701   6.892   0.402
63669SOL     OW92903   6.299   3.120   8.801
63669SOL    HW192904   6.336   3.159   8.722
63669SOL    HW292905   6.341   3.167   8.873
63670SOL     OW92906   6.778   6.825  10.547
63670SOL    HW192907   6.769   6.917  10.571
63670SOL    HW292908   6.866   6.819  10.509
63671SOL     OW92909   0.969  14.462   4.416
63671SOL    HW192910   0.994  14.497   4.330
63671SOL    HW292911   0.873  14.456   4.411
63672SOL     OW92912   4.372   2.620  13.526
63672SOL    HW192913   4.443   2.571  13.569
63672SOL    HW292914   4.416   2.696  13.488
63673SOL     OW92915   1.160  12.921   8.351
63673SOL    HW192916   1.123  12.993   8.299
63673SOL    HW292917   1.248  12.951   8.373
63674SOL     OW92918   7.275   9.318  14.605
63674SOL    HW192919   7.308   9.248  14.661
63674SOL    HW292920   7.273   9.395  14.662
63675SOL     OW92921   1.734   7.567  12.340
63675SOL    HW192922   1.742   7.646  12.393
63675SOL    HW292923   1.764   7.497  12.399
63676SOL     OW92924   8.044   8.117   3.141
63676SOL    HW192925   8.007   8.054   3.203
63676SOL    HW292926   7.974   8.132   3.077
63677SOL     OW92927   0.737   4.340  14.219
63677SOL    HW192928   0.666   4.404  14.210
63677SOL    HW292929   0.780   4.364  14.301
63678SOL     OW92930  13.645   2.212   9.700
63678SOL    HW192931  13.679   2.140   9.753
63678SOL    HW292932  13.645   2.287   9.759
63679SOL     OW92933   6.046   0.922   4.018
63679SOL    HW192934   6.078   0.957   3.935
63679SOL    HW292935   6.119   0.934   4.078
63680SOL     OW92936   3.788   2.664   2.993
63680SOL    HW192937   3.757   2.628   3.076
63680SOL    HW292938   3.851   2.600   2.961
63681SOL     OW92939   3.039  14.605  10.513
63681SOL    HW192940   3.018  14.695  10.535
63681SOL    HW292941   3.032  14.558  10.596
63682SOL     OW92942   3.979   9.414   7.821
63682SOL    HW192943   4.041   9.424   7.893
63682SOL    HW292944   4.020   9.350   7.763
63683SOL     OW92945   2.763   5.531  14.450
63683SOL    HW192946   2.806   5.581  14.520
63683SOL    HW292947   2.801   5.564  14.369
63684SOL     OW92948   9.806   9.599   0.884
63684SOL    HW192949   9.878   9.536   0.885
63684SOL    HW292950   9.732   9.551   0.847
63685SOL     OW92951   3.121   6.208   2.462
63685SOL    HW192952   3.084   6.157   2.534
63685SOL    HW292953   3.045   6.250   2.422
63686SOL     OW92954   7.611   8.720   0.423
63686SOL    HW192955   7.583   8.809   0.443
63686SOL    HW292956   7.617   8.677   0.509
63687SOL     OW92957   1.221  12.479   0.262
63687SOL    HW192958   1.190  12.520   0.181
63687SOL    HW292959   1.311  12.510   0.271
63688SOL     OW92960  11.744  13.357   7.956
63688SOL    HW192961  11.709  13.284   7.904
63688SOL    HW292962  11.670  13.415   7.970
63689SOL     OW92963   2.378  13.880   3.249
63689SOL    HW192964   2.412  13.956   3.201
63689SOL    HW292965   2.285  13.900   3.263
63690SOL     OW92966  14.818  10.640   8.192
63690SOL    HW192967  14.751  10.684   8.244
63690SOL    HW292968  14.769  10.576   8.140
63691SOL     OW92969  11.342   8.476   2.710
63691SOL    HW192970  11.392   8.415   2.764
63691SOL    HW292971  11.260   8.489   2.757
63692SOL     OW92972   3.499  12.043   9.121
63692SOL    HW192973   3.581  12.055   9.170
63692SOL    HW292974   3.523  12.062   9.030
63693SOL     OW92975   0.602  14.232   7.446
63693SOL    HW192976   0.658  14.249   7.522
63693SOL    HW292977   0.551  14.313   7.437
63694SOL     OW92978   6.914   6.832  12.583
63694SOL    HW192979   6.968   6.764  12.542
63694SOL    HW292980   6.892   6.796  12.669
63695SOL     OW92981   8.883   0.068   5.916
63695SOL    HW192982   8.889   0.077   5.821
63695SOL    HW292983   8.948   0.002   5.938
63696SOL     OW92984   2.049  10.278   5.571
63696SOL    HW192985   2.095  10.210   5.620
63696SOL    HW292986   2.115  10.314   5.512
63697SOL     OW92987   7.890   5.440  14.772
63697SOL    HW192988   7.884   5.476  14.861
63697SOL    HW292989   7.833   5.363  14.774
63698SOL     OW92990   5.065   6.730  13.768
63698SOL    HW192991   5.009   6.764  13.838
63698SOL    HW292992   5.054   6.792  13.696
63699SOL     OW92993   2.281  10.050   6.771
63699SOL    HW192994   2.240  10.136   6.773
63699SOL    HW292995   2.374  10.068   6.758
63700SOL     OW92996   3.844   6.115   9.812
63700SOL    HW192997   3.825   6.137   9.903
63700SOL    HW292998   3.803   6.030   9.799
63701SOL     OW92999   7.244   9.911   8.876
63701SOL    HW193000   7.175   9.937   8.937
63701SOL    HW293001   7.201   9.847   8.819
63702SOL     OW93002   1.726   6.956   2.723
63702SOL    HW193003   1.783   6.990   2.655
63702SOL    HW293004   1.779   6.890   2.768
63703SOL     OW93005   3.196   6.166   9.857
63703SOL    HW193006   3.124   6.228   9.849
63703SOL    HW293007   3.191   6.133   9.947
63704SOL     OW93008  13.067   6.003   3.573
63704SOL    HW193009  13.075   6.043   3.487
63704SOL    HW293010  13.124   6.056   3.629
63705SOL     OW93011   5.864  13.643   0.954
63705SOL    HW193012   5.796  13.659   0.888
63705SOL    HW293013   5.815  13.634   1.036
63706SOL     OW93014   1.340   1.894   9.387
63706SOL    HW193015   1.388   1.950   9.448
63706SOL    HW293016   1.299   1.956   9.327
63707SOL     OW93017   8.464  10.067  11.055
63707SOL    HW193018   8.407   9.992  11.041
63707SOL    HW293019   8.532  10.059  10.989
63708SOL     OW93020   9.553  12.805  12.400
63708SOL    HW193021   9.513  12.890  12.378
63708SOL    HW293022   9.479  12.751  12.427
63709SOL     OW93023   1.904   0.119   2.243
63709SOL    HW193024   1.901   0.161   2.157
63709SOL    HW293025   1.930   0.188   2.303
63710SOL     OW93026   5.615   4.309   4.381
63710SOL    HW193027   5.701   4.280   4.351
63710SOL    HW293028   5.556   4.293   4.307
63711SOL     OW93029  11.929   6.759  11.469
63711SOL    HW193030  11.965   6.672  11.450
63711SOL    HW293031  11.994   6.801  11.525
63712SOL     OW93032   5.071   7.061   3.142
63712SOL    HW193033   5.047   7.030   3.230
63712SOL    HW293034   5.089   7.154   3.154
63713SOL     OW93035   4.243  14.718   5.212
63713SOL    HW193036   4.256  14.760   5.126
63713SOL    HW293037   4.219  14.791   5.270
63714SOL     OW93038   5.427   2.585  12.630
63714SOL    HW193039   5.348   2.573  12.578
63714SOL    HW293040   5.498   2.591  12.565
63715SOL     OW93041   7.541   0.842   0.561
63715SOL    HW193042   7.480   0.771   0.577
63715SOL    HW293043   7.526   0.904   0.633
63716SOL     OW93044   4.743   1.116   6.599
63716SOL    HW193045   4.751   1.188   6.661
63716SOL    HW293046   4.817   1.128   6.539
63717SOL     OW93047   4.836   9.047   1.257
63717SOL    HW193048   4.791   9.067   1.174
63717SOL    HW293049   4.769   9.004   1.310
63718SOL     OW93050   7.149  12.989   7.313
63718SOL    HW193051   7.123  12.901   7.337
63718SOL    HW293052   7.068  13.032   7.285
63719SOL     OW93053   0.048   9.292  11.907
63719SOL    HW193054   0.136   9.286  11.944
63719SOL    HW293055  14.867   9.226  11.954
63720SOL     OW93056   4.697   1.652   8.035
63720SOL    HW193057   4.774   1.658   8.091
63720SOL    HW293058   4.623   1.648   8.097
63721SOL     OW93059   9.826  10.414  12.587
63721SOL    HW193060   9.757  10.348  12.583
63721SOL    HW293061   9.782  10.493  12.618
63722SOL     OW93062   5.053   0.838   9.869
63722SOL    HW193063   5.002   0.757   9.870
63722SOL    HW293064   5.133   0.816   9.917
63723SOL     OW93065  11.023  10.515   6.605
63723SOL    HW193066  10.972  10.437   6.584
63723SOL    HW293067  11.041  10.508   6.699
63724SOL     OW93068   3.097   5.376   6.619
63724SOL    HW193069   3.093   5.357   6.525
63724SOL    HW293070   3.014   5.420   6.638
63725SOL     OW93071  12.640  12.960   0.675
63725SOL    HW193072  12.656  13.020   0.747
63725SOL    HW293073  12.615  13.016   0.602
63726SOL     OW93074   1.164   8.113   0.209
63726SOL    HW193075   1.220   8.189   0.225
63726SOL    HW293076   1.088   8.148   0.163
63727SOL     OW93077  13.815   3.170  12.884
63727SOL    HW193078  13.888   3.114  12.858
63727SOL    HW293079  13.854   3.257  12.895
63728SOL     OW93080   4.495   4.341   0.235
63728SOL    HW193081   4.543   4.420   0.211
63728SOL    HW293082   4.521   4.323   0.325
63729SOL     OW93083   8.296   4.575   7.992
63729SOL    HW193084   8.313   4.658   7.948
63729SOL    HW293085   8.326   4.589   8.082
63730SOL     OW93086   1.542   5.966   5.439
63730SOL    HW193087   1.588   5.956   5.356
63730SOL    HW293088   1.453   5.934   5.421
63731SOL     OW93089  12.279   5.059   8.617
63731SOL    HW193090  12.272   4.992   8.685
63731SOL    HW293091  12.201   5.048   8.564
63732SOL     OW93092   0.966  10.419  13.159
63732SOL    HW193093   0.976  10.454  13.248
63732SOL    HW293094   1.051  10.432  13.118
63733SOL     OW93095  11.529   3.856  12.122
63733SOL    HW193096  11.554   3.806  12.200
63733SOL    HW293097  11.557   3.800  12.049
63734SOL     OW93098   8.740  12.887   6.316
63734SOL    HW193099   8.767  12.795   6.322
63734SOL    HW293100   8.722  12.913   6.406
63735SOL     OW93101   8.386  14.633   9.469
63735SOL    HW193102   8.337  14.660   9.548
63735SOL    HW293103   8.436  14.710   9.444
63736SOL     OW93104   5.702   7.133   5.770
63736SOL    HW193105   5.753   7.179   5.837
63736SOL    HW293106   5.737   7.166   5.687
63737SOL     OW93107  13.912   4.339   6.798
63737SOL    HW193108  13.971   4.323   6.871
63737SOL    HW293109  13.851   4.265   6.800
63738SOL     OW93110   9.961   7.315   0.081
63738SOL    HW193111   9.912   7.396   0.095
63738SOL    HW293112   9.961   7.272   0.167
63739SOL     OW93113   3.101   3.060   0.807
63739SOL    HW193114   3.181   3.045   0.756
63739SOL    HW293115   3.128   3.045   0.898
63740SOL     OW93116   9.763   4.906   0.252
63740SOL    HW193117   9.762   4.840   0.321
63740SOL    HW293118   9.712   4.868   0.181
63741SOL     OW93119  13.691   1.871   2.066
63741SOL    HW193120  13.697   1.890   2.160
63741SOL    HW293121  13.708   1.777   2.060
63742SOL     OW93122   3.409   8.155   0.325
63742SOL    HW193123   3.325   8.200   0.312
63742SOL    HW293124   3.464   8.219   0.369
63743SOL     OW93125   4.766  12.137  12.935
63743SOL    HW193126   4.800  12.226  12.943
63743SOL    HW293127   4.719  12.135  12.852
63744SOL     OW93128  10.666   9.099   5.597
63744SOL    HW193129  10.572   9.094   5.616
63744SOL    HW293130  10.672   9.106   5.502
63745SOL     OW93131  13.233   4.554   8.852
63745SOL    HW193132  13.220   4.648   8.847
63745SOL    HW293133  13.318   4.539   8.810
63746SOL     OW93134  13.988  10.020  11.527
63746SOL    HW193135  13.910  10.021  11.582
63746SOL    HW293136  14.053   9.972  11.578
63747SOL     OW93137   5.942  11.286  11.248
63747SOL    HW193138   5.977  11.306  11.335
63747SOL    HW293139   5.908  11.197  11.256
63748SOL     OW93140  12.845  13.065   6.607
63748SOL    HW193141  12.868  12.975   6.630
63748SOL    HW293142  12.858  13.070   6.512
63749SOL     OW93143  14.002   8.960   5.483
63749SOL    HW193144  14.018   8.868   5.504
63749SOL    HW293145  14.016   8.965   5.388
63750SOL     OW93146  14.397  12.232  13.719
63750SOL    HW193147  14.335  12.304  13.710
63750SOL    HW293148  14.482  12.271  13.698
63751SOL     OW93149   2.006  13.581  10.966
63751SOL    HW193150   2.063  13.551  10.895
63751SOL    HW293151   1.979  13.500  11.010
63752SOL     OW93152  14.194   5.730  14.117
63752SOL    HW193153  14.176   5.661  14.182
63752SOL    HW293154  14.211   5.808  14.169
63753SOL     OW93155  10.737   4.499   3.873
63753SOL    HW193156  10.747   4.579   3.924
63753SOL    HW293157  10.730   4.528   3.782
63754SOL     OW93158   0.894   1.676   1.378
63754SOL    HW193159   0.811   1.632   1.360
63754SOL    HW293160   0.873   1.769   1.374
63755SOL     OW93161   3.765   6.326  10.857
63755SOL    HW193162   3.851   6.332  10.897
63755SOL    HW293163   3.754   6.408  10.809
63756SOL     OW93164   9.596   9.541   0.453
63756SOL    HW193165   9.661   9.481   0.417
63756SOL    HW293166   9.583   9.512   0.543
63757SOL     OW93167   0.443   1.363   7.690
63757SOL    HW193168   0.352   1.340   7.672
63757SOL    HW293169   0.439   1.452   7.725
63758SOL     OW93170  12.945   9.582   1.886
63758SOL    HW193171  12.944   9.500   1.935
63758SOL    HW293172  12.981   9.559   1.800
63759SOL     OW93173   1.348  10.978   5.475
63759SOL    HW193174   1.325  11.019   5.391
63759SOL    HW293175   1.292  11.022   5.539
63760SOL     OW93176   0.041   3.389   0.698
63760SOL    HW193177  14.826   3.349   0.675
63760SOL    HW293178   0.068   3.434   0.617
63761SOL     OW93179   8.938   3.271   4.986
63761SOL    HW193180   8.869   3.230   5.039
63761SOL    HW293181   8.904   3.269   4.896
63762SOL     OW93182  11.459   8.919   8.421
63762SOL    HW193183  11.453   8.865   8.499
63762SOL    HW293184  11.372   8.961   8.414
63763SOL     OW93185   7.531   0.490   8.061
63763SOL    HW193186   7.604   0.552   8.070
63763SOL    HW293187   7.563   0.410   8.102
63764SOL     OW93188   8.659   9.047   5.633
63764SOL    HW193189   8.621   8.972   5.588
63764SOL    HW293190   8.596   9.067   5.703
63765SOL     OW93191   1.717   4.420   5.879
63765SOL    HW193192   1.686   4.500   5.922
63765SOL    HW293193   1.657   4.352   5.908
63766SOL     OW93194   8.655   4.994   1.751
63766SOL    HW193195   8.682   5.080   1.720
63766SOL    HW293196   8.694   4.986   1.839
63767SOL     OW93197   5.882   3.998  13.621
63767SOL    HW193198   5.974   4.025  13.622
63767SOL    HW293199   5.841   4.052  13.553
63768SOL     OW93200   4.742   9.669   1.611
63768SOL    HW193201   4.799   9.719   1.553
63768SOL    HW293202   4.682   9.624   1.553
63769SOL     OW93203  11.397   5.838   9.437
63769SOL    HW193204  11.468   5.775   9.434
63769SOL    HW293205  11.340   5.807   9.508
63770SOL     OW93206  10.279   6.076   9.321
63770SOL    HW193207  10.360   6.121   9.296
63770SOL    HW293208  10.303   6.024   9.397
63771SOL     OW93209   6.024   0.642  12.148
63771SOL    HW193210   6.116   0.637  12.172
63771SOL    HW293211   5.989   0.555  12.168
63772SOL     OW93212   5.367   4.012   2.775
63772SOL    HW193213   5.307   4.087   2.780
63772SOL    HW293214   5.417   4.016   2.856
63773SOL     OW93215   8.150  14.363   7.467
63773SOL    HW193216   8.128  14.453   7.444
63773SOL    HW293217   8.068  14.323   7.495
63774SOL     OW93218   3.007   6.678   6.360
63774SOL    HW193219   3.040   6.758   6.320
63774SOL    HW293220   3.086   6.630   6.385
63775SOL     OW93221   7.452   3.313   5.390
63775SOL    HW193222   7.451   3.257   5.312
63775SOL    HW293223   7.448   3.252   5.464
63776SOL     OW93224   7.272   7.258   8.571
63776SOL    HW193225   7.306   7.287   8.487
63776SOL    HW293226   7.179   7.283   8.569
63777SOL     OW93227   8.217  10.467  12.965
63777SOL    HW193228   8.243  10.476  12.874
63777SOL    HW293229   8.225  10.555  13.001
63778SOL     OW93230   9.753   0.409   5.921
63778SOL    HW193231   9.658   0.404   5.936
63778SOL    HW293232   9.760   0.445   5.832
63779SOL     OW93233   4.507  13.373  14.401
63779SOL    HW193234   4.411  13.376  14.398
63779SOL    HW293235   4.527  13.336  14.487
63780SOL     OW93236   3.955   9.745  12.262
63780SOL    HW193237   3.867   9.729  12.228
63780SOL    HW293238   4.013   9.729  12.188
63781SOL     OW93239   2.371   4.291   8.204
63781SOL    HW193240   2.332   4.334   8.280
63781SOL    HW293241   2.329   4.205   8.200
63782SOL     OW93242   5.055  13.367   1.596
63782SOL    HW193243   4.989  13.383   1.662
63782SOL    HW293244   5.009  13.322   1.525
63783SOL     OW93245  12.302   6.706  10.693
63783SOL    HW193246  12.209   6.729  10.692
63783SOL    HW293247  12.317   6.659  10.611
63784SOL     OW93248  10.920   1.003   0.301
63784SOL    HW193249  10.955   0.915   0.306
63784SOL    HW293250  10.901   1.027   0.392
63785SOL     OW93251  11.732   8.947   3.177
63785SOL    HW193252  11.804   8.899   3.136
63785SOL    HW293253  11.719   8.904   3.261
63786SOL     OW93254  14.095   1.566   6.369
63786SOL    HW193255  14.138   1.633   6.421
63786SOL    HW293256  14.166   1.512   6.335
63787SOL     OW93257   4.224   8.980  11.683
63787SOL    HW193258   4.253   9.067  11.657
63787SOL    HW293259   4.129   8.987  11.692
63788SOL     OW93260  11.741   2.947   7.589
63788SOL    HW193261  11.816   2.924   7.644
63788SOL    HW293262  11.719   2.865   7.543
63789SOL     OW93263   2.511  12.806   0.578
63789SOL    HW193264   2.555  12.794   0.662
63789SOL    HW293265   2.568  12.764   0.514
63790SOL     OW93266  13.238   4.368   6.709
63790SOL    HW193267  13.229   4.420   6.789
63790SOL    HW293268  13.333   4.361   6.695
63791SOL     OW93269  14.178  11.293   9.679
63791SOL    HW193270  14.229  11.374   9.677
63791SOL    HW293271  14.213  11.241   9.607
63792SOL     OW93272   6.776  12.557   2.570
63792SOL    HW193273   6.854  12.594   2.610
63792SOL    HW293274   6.704  12.590   2.624
63793SOL     OW93275   6.656  14.534  14.258
63793SOL    HW193276   6.653  14.623  14.293
63793SOL    HW293277   6.741  14.529  14.215
63794SOL     OW93278  10.050   0.919   6.445
63794SOL    HW193279  10.010   0.840   6.408
63794SOL    HW293280  10.031   0.914   6.539
63795SOL     OW93281   4.899   4.523  10.382
63795SOL    HW193282   4.913   4.520  10.287
63795SOL    HW293283   4.902   4.432  10.410
63796SOL     OW93284   1.217  14.694   7.186
63796SOL    HW193285   1.297  14.641   7.188
63796SOL    HW293286   1.242  14.773   7.138
63797SOL     OW93287   4.222   8.307   9.751
63797SOL    HW193288   4.312   8.325   9.727
63797SOL    HW293289   4.194   8.237   9.691
63798SOL     OW93290   5.804   7.306   3.196
63798SOL    HW193291   5.809   7.293   3.102
63798SOL    HW293292   5.793   7.400   3.208
63799SOL     OW93293   7.938  14.678  10.279
63799SOL    HW193294   7.962  14.760  10.236
63799SOL    HW293295   7.851  14.694  10.315
63800SOL     OW93296   9.711   4.754   0.538
63800SOL    HW193297   9.806   4.752   0.539
63800SOL    HW293298   9.684   4.685   0.599
63801SOL     OW93299   1.893   3.786   0.641
63801SOL    HW193300   1.907   3.812   0.550
63801SOL    HW293301   1.848   3.702   0.635
63802SOL     OW93302   1.427  11.590   3.857
63802SOL    HW193303   1.338  11.620   3.834
63802SOL    HW293304   1.448  11.525   3.790
63803SOL     OW93305   0.572  10.491  13.367
63803SOL    HW193306   0.619  10.458  13.291
63803SOL    HW293307   0.572  10.418  13.429
63804SOL     OW93308  12.118   6.545   4.752
63804SOL    HW193309  12.169   6.541   4.671
63804SOL    HW293310  12.184   6.536   4.821
63805SOL     OW93311   3.184   6.641   9.412
63805SOL    HW193312   3.142   6.591   9.482
63805SOL    HW293313   3.271   6.603   9.404
63806SOL     OW93314   8.284  10.408   6.890
63806SOL    HW193315   8.243  10.488   6.924
63806SOL    HW293316   8.215  10.364   6.841
63807SOL     OW93317  14.169   1.576   2.743
63807SOL    HW193318  14.260   1.580   2.773
63807SOL    HW293319  14.119   1.616   2.814
63808SOL     OW93320   2.343   6.278   1.202
63808SOL    HW193321   2.409   6.299   1.268
63808SOL    HW293322   2.290   6.209   1.241
63809SOL     OW93323   7.559   2.781  11.543
63809SOL    HW193324   7.466   2.798  11.557
63809SOL    HW293325   7.574   2.801  11.450
63810SOL     OW93326   4.583   8.946  14.776
63810SOL    HW193327   4.661   8.937  14.721
63810SOL    HW293328   4.528   8.872  14.752
63811SOL     OW93329   0.962  12.102   1.134
63811SOL    HW193330   1.057  12.117   1.141
63811SOL    HW293331   0.944  12.036   1.201
63812SOL     OW93332  10.440  14.582   6.858
63812SOL    HW193333  10.495  14.528   6.801
63812SOL    HW293334  10.350  14.560   6.833
63813SOL     OW93335  12.430   5.386   1.700
63813SOL    HW193336  12.373   5.452   1.661
63813SOL    HW293337  12.440   5.319   1.632
63814SOL     OW93338  13.871   5.905  13.959
63814SOL    HW193339  13.897   5.813  13.969
63814SOL    HW293340  13.776   5.904  13.971
63815SOL     OW93341   9.174   7.154  12.024
63815SOL    HW193342   9.122   7.219  12.072
63815SOL    HW293343   9.198   7.198  11.943
63816SOL     OW93344   7.010   3.694  13.914
63816SOL    HW193345   7.072   3.750  13.866
63816SOL    HW293346   7.003   3.735  14.000
63817SOL     OW93347  12.801   7.437   6.052
63817SOL    HW193348  12.790   7.378   5.978
63817SOL    HW293349  12.712   7.461   6.077
63818SOL     OW93350  13.064   3.390  14.774
63818SOL    HW193351  13.060   3.412  14.867
63818SOL    HW293352  13.157   3.397  14.752
63819SOL     OW93353   7.893   1.330   4.499
63819SOL    HW193354   7.849   1.414   4.485
63819SOL    HW293355   7.915   1.299   4.411
63820SOL     OW93356   6.807   3.042   0.039
63820SOL    HW193357   6.756   3.018   0.116
63820SOL    HW293358   6.808   2.964  14.854
63821SOL     OW93359  13.336   1.301   8.475
63821SOL    HW193360  13.411   1.298   8.534
63821SOL    HW293361  13.370   1.342   8.395
63822SOL     OW93362   7.673  10.481   6.192
63822SOL    HW193363   7.670  10.413   6.260
63822SOL    HW293364   7.705  10.559   6.238
63823SOL     OW93365   7.235  13.555   7.333
63823SOL    HW193366   7.265  13.623   7.271
63823SOL    HW293367   7.249  13.473   7.286
63824SOL     OW93368   8.636   2.487   8.444
63824SOL    HW193369   8.727   2.472   8.470
63824SOL    HW293370   8.586   2.480   8.526
63825SOL     OW93371  10.696   8.757   4.118
63825SOL    HW193372  10.603   8.747   4.139
63825SOL    HW293373  10.699   8.759   4.023
63826SOL     OW93374   8.069  13.995   5.969
63826SOL    HW193375   8.123  14.015   6.046
63826SOL    HW293376   8.122  14.023   5.895
63827SOL     OW93377   2.724   3.842   9.848
63827SOL    HW193378   2.696   3.832   9.939
63827SOL    HW293379   2.801   3.900   9.853
63828SOL     OW93380  10.189   1.150   7.157
63828SOL    HW193381  10.234   1.106   7.229
63828SOL    HW293382  10.245   1.135   7.080
63829SOL     OW93383  11.131   0.600   5.648
63829SOL    HW193384  11.188   0.552   5.588
63829SOL    HW293385  11.073   0.534   5.685
63830SOL     OW93386  13.299   8.051   5.687
63830SOL    HW193387  13.207   8.051   5.715
63830SOL    HW293388  13.345   8.101   5.755
63831SOL     OW93389   6.339  11.778  14.847
63831SOL    HW193390   6.296  11.748   0.058
63831SOL    HW293391   6.378  11.862   0.001
63832SOL     OW93392   4.345   9.344  13.674
63832SOL    HW193393   4.286   9.280  13.634
63832SOL    HW293394   4.306   9.363  13.759
63833SOL     OW93395  12.186   1.638   2.109
63833SOL    HW193396  12.267   1.593   2.134
63833SOL    HW293397  12.144   1.580   2.046
63834SOL     OW93398   6.023   2.794   9.944
63834SOL    HW193399   6.106   2.807   9.899
63834SOL    HW293400   5.964   2.858   9.905
63835SOL     OW93401   1.591   3.669   8.474
63835SOL    HW193402   1.583   3.654   8.380
63835SOL    HW293403   1.602   3.581   8.512
63836SOL     OW93404  13.343   5.261   4.823
63836SOL    HW193405  13.408   5.192   4.813
63836SOL    HW293406  13.283   5.228   4.890
63837SOL     OW93407  13.767   8.717   9.293
63837SOL    HW193408  13.775   8.811   9.311
63837SOL    HW293409  13.703   8.712   9.222
63838SOL     OW93410  14.862   1.240  14.414
63838SOL    HW193411  14.780   1.200  14.385
63838SOL    HW293412  14.841   1.332  14.428
63839SOL     OW93413  13.259   1.015  13.604
63839SOL    HW193414  13.187   0.954  13.617
63839SOL    HW293415  13.320   0.996  13.675
63840SOL     OW93416   1.967  12.089   0.716
63840SOL    HW193417   1.997  12.066   0.804
63840SOL    HW293418   1.881  12.047   0.709
63841SOL     OW93419  10.860   8.225  11.990
63841SOL    HW193420  10.823   8.285  11.925
63841SOL    HW293421  10.787   8.204  12.048
63842SOL     OW93422   2.839   3.042   0.888
63842SOL    HW193423   2.794   3.043   0.804
63842SOL    HW293424   2.932   3.051   0.865
63843SOL     OW93425  11.398   7.944   5.906
63843SOL    HW193426  11.479   7.946   5.957
63843SOL    HW293427  11.425   7.964   5.817
63844SOL     OW93428   0.814   6.724   1.712
63844SOL    HW193429   0.785   6.659   1.648
63844SOL    HW293430   0.909   6.716   1.713
63845SOL     OW93431  11.225   1.661   2.353
63845SOL    HW193432  11.175   1.616   2.285
63845SOL    HW293433  11.161   1.679   2.422
63846SOL     OW93434   3.300  10.577   7.466
63846SOL    HW193435   3.344  10.611   7.543
63846SOL    HW293436   3.354  10.503   7.438
63847SOL     OW93437  12.851   0.942   7.989
63847SOL    HW193438  12.851   1.038   7.996
63847SOL    HW293439  12.905   0.914   8.063
63848SOL     OW93440   2.776   1.563  10.989
63848SOL    HW193441   2.709   1.513  10.942
63848SOL    HW293442   2.816   1.500  11.048
63849SOL     OW93443  13.540  14.791   3.466
63849SOL    HW193444  13.625  14.832   3.454
63849SOL    HW293445  13.492  14.852   3.523
63850SOL     OW93446   2.515   5.474   3.107
63850SOL    HW193447   2.542   5.509   3.192
63850SOL    HW293448   2.591   5.425   3.075
63851SOL     OW93449  12.643  11.925  14.386
63851SOL    HW193450  12.685  11.898  14.468
63851SOL    HW293451  12.594  12.004  14.409
63852SOL     OW93452   8.963   7.603   5.050
63852SOL    HW193453   8.924   7.649   5.125
63852SOL    HW293454   9.015   7.670   5.006
63853SOL     OW93455  11.187  14.110   8.203
63853SOL    HW193456  11.275  14.145   8.186
63853SOL    HW293457  11.127  14.174   8.166
63854SOL     OW93458   2.276   7.636   0.853
63854SOL    HW193459   2.341   7.581   0.811
63854SOL    HW293460   2.248   7.697   0.784
63855SOL     OW93461  14.809  10.656   6.298
63855SOL    HW193462  14.842  10.653   6.388
63855SOL    HW293463  14.823  10.567   6.265
63856SOL     OW93464  11.308   9.522  13.988
63856SOL    HW193465  11.328   9.434  13.959
63856SOL    HW293466  11.386   9.550  14.036
63857SOL     OW93467   4.488   2.629   4.874
63857SOL    HW193468   4.567   2.681   4.863
63857SOL    HW293469   4.417   2.694   4.879
63858SOL     OW93470   9.986   0.387   9.665
63858SOL    HW193471   9.996   0.460   9.727
63858SOL    HW293472  10.069   0.385   9.618
63859SOL     OW93473  10.628   2.384  11.674
63859SOL    HW193474  10.633   2.445  11.748
63859SOL    HW293475  10.536   2.386  11.648
63860SOL     OW93476   7.044   4.168   2.201
63860SOL    HW193477   7.140   4.170   2.206
63860SOL    HW293478   7.025   4.097   2.139
63861SOL     OW93479  12.372   5.915  10.672
63861SOL    HW193480  12.352   6.006  10.694
63861SOL    HW293481  12.408   5.878  10.753
63862SOL     OW93482   9.153   9.827   3.741
63862SOL    HW193483   9.102   9.770   3.683
63862SOL    HW293484   9.088   9.872   3.794
63863SOL     OW93485  12.289   8.981  11.855
63863SOL    HW193486  12.372   8.934  11.854
63863SOL    HW293487  12.313   9.072  11.876
63864SOL     OW93488  11.642  14.332   9.883
63864SOL    HW193489  11.710  14.271   9.853
63864SOL    HW293490  11.616  14.298   9.969
63865SOL     OW93491  11.467   9.065   2.559
63865SOL    HW193492  11.388   9.011   2.558
63865SOL    HW293493  11.492   9.069   2.652
63866SOL     OW93494   9.158   9.206  12.628
63866SOL    HW193495   9.080   9.248  12.591
63866SOL    HW293496   9.136   9.113  12.631
63867SOL     OW93497   9.057   9.166   0.889
63867SOL    HW193498   9.119   9.095   0.908
63867SOL    HW293499   9.103   9.221   0.826
63868SOL     OW93500   6.945   9.979   2.984
63868SOL    HW193501   6.979   9.956   2.898
63868SOL    HW293502   6.895   9.903   3.012
63869SOL     OW93503  13.889  13.031   6.610
63869SOL    HW193504  13.938  13.044   6.691
63869SOL    HW293505  13.953  12.998   6.548
63870SOL     OW93506   5.416   9.177   9.072
63870SOL    HW193507   5.511   9.166   9.076
63870SOL    HW293508   5.393   9.155   8.982
63871SOL     OW93509   0.707  14.733  10.809
63871SOL    HW193510   0.646  14.697  10.745
63871SOL    HW293511   0.782  14.763  10.758
63872SOL     OW93512   1.243   1.174   9.269
63872SOL    HW193513   1.325   1.220   9.248
63872SOL    HW293514   1.214   1.213   9.351
63873SOL     OW93515   9.841   1.807   6.482
63873SOL    HW193516   9.755   1.848   6.481
63873SOL    HW293517   9.837   1.738   6.416
63874SOL     OW93518  12.293  14.061   3.552
63874SOL    HW193519  12.266  13.972   3.529
63874SOL    HW293520  12.382  14.069   3.517
63875SOL     OW93521  13.494   3.288   5.341
63875SOL    HW193522  13.556   3.359   5.359
63875SOL    HW293523  13.518   3.255   5.255
63876SOL     OW93524  10.287   3.169  11.890
63876SOL    HW193525  10.344   3.241  11.915
63876SOL    HW293526  10.202   3.210  11.872
63877SOL     OW93527   2.802   1.573   2.304
63877SOL    HW193528   2.806   1.661   2.340
63877SOL    HW293529   2.710   1.560   2.281
63878SOL     OW93530   7.505   1.777  13.439
63878SOL    HW193531   7.445   1.817  13.375
63878SOL    HW293532   7.591   1.810  13.413
63879SOL     OW93533   2.688   5.748   5.745
63879SOL    HW193534   2.729   5.834   5.759
63879SOL    HW293535   2.644   5.756   5.661
63880SOL     OW93536   3.383  11.738  10.283
63880SOL    HW193537   3.391  11.713  10.375
63880SOL    HW293538   3.310  11.685  10.250
63881SOL     OW93539   7.811  10.246   3.092
63881SOL    HW193540   7.904  10.227   3.081
63881SOL    HW293541   7.809  10.310   3.164
63882SOL     OW93542  12.420  11.952  10.711
63882SOL    HW193543  12.376  12.000  10.641
63882SOL    HW293544  12.489  12.012  10.741
63883SOL     OW93545   8.620   8.054   2.666
63883SOL    HW193546   8.591   8.037   2.756
63883SOL    HW293547   8.702   8.102   2.676
63884SOL     OW93548   7.427   8.921   0.818
63884SOL    HW193549   7.459   9.009   0.839
63884SOL    HW293550   7.432   8.872   0.900
63885SOL     OW93551   6.974   5.031   1.388
63885SOL    HW193552   7.015   5.117   1.385
63885SOL    HW293553   6.977   5.007   1.481
63886SOL     OW93554  11.260   6.236   6.587
63886SOL    HW193555  11.197   6.272   6.525
63886SOL    HW293556  11.256   6.295   6.663
63887SOL     OW93557  13.599   9.168   6.836
63887SOL    HW193558  13.649   9.099   6.879
63887SOL    HW293559  13.588   9.137   6.746
63888SOL     OW93560   6.876   6.622   7.395
63888SOL    HW193561   6.850   6.539   7.436
63888SOL    HW293562   6.944   6.597   7.333
63889SOL     OW93563  13.196   8.208   5.395
63889SOL    HW193564  13.132   8.169   5.337
63889SOL    HW293565  13.276   8.157   5.382
63890SOL     OW93566   4.373  13.100   2.402
63890SOL    HW193567   4.397  13.126   2.492
63890SOL    HW293568   4.281  13.074   2.409
63891SOL     OW93569   8.463  13.175   2.158
63891SOL    HW193570   8.406  13.211   2.226
63891SOL    HW293571   8.549  13.172   2.199
63892SOL     OW93572   1.262   9.690   8.699
63892SOL    HW193573   1.312   9.612   8.676
63892SOL    HW293574   1.173   9.671   8.669
63893SOL     OW93575  10.712   3.594  10.568
63893SOL    HW193576  10.697   3.512  10.616
63893SOL    HW293577  10.631   3.610  10.521
63894SOL     OW93578   8.154  12.456   7.739
63894SOL    HW193579   8.208  12.383   7.708
63894SOL    HW293580   8.123  12.429   7.825
63895SOL     OW93581  14.518  10.629   1.982
63895SOL    HW193582  14.573  10.551   1.984
63895SOL    HW293583  14.441  10.603   1.931
63896SOL     OW93584   6.067  10.936   5.673
63896SOL    HW193585   6.141  10.942   5.733
63896SOL    HW293586   5.991  10.921   5.730
63897SOL     OW93587   4.502   7.544   7.022
63897SOL    HW193588   4.578   7.585   6.982
63897SOL    HW293589   4.439   7.534   6.950
63898SOL     OW93590   0.413   7.051   3.221
63898SOL    HW193591   0.502   7.015   3.213
63898SOL    HW293592   0.372   7.032   3.137
63899SOL     OW93593   0.583   6.322   8.103
63899SOL    HW193594   0.563   6.235   8.069
63899SOL    HW293595   0.538   6.326   8.187
63900SOL     OW93596   9.827   7.801   7.421
63900SOL    HW193597   9.764   7.873   7.432
63900SOL    HW293598   9.864   7.789   7.509
63901SOL     OW93599   3.787   3.996   3.443
63901SOL    HW193600   3.859   4.035   3.492
63901SOL    HW293601   3.828   3.953   3.368
63902SOL     OW93602  14.045   4.007   6.916
63902SOL    HW193603  13.958   4.007   6.955
63902SOL    HW293604  14.069   4.100   6.912
63903SOL     OW93605   0.178   3.333  13.723
63903SOL    HW193606   0.226   3.370  13.797
63903SOL    HW293607   0.130   3.260  13.760
63904SOL     OW93608   9.258   0.103   5.504
63904SOL    HW193609   9.277   0.013   5.477
63904SOL    HW293610   9.232   0.147   5.423
63905SOL     OW93611  10.439   4.685  12.647
63905SOL    HW193612  10.464   4.767  12.689
63905SOL    HW293613  10.427   4.708  12.554
63906SOL     OW93614   5.511   6.412   4.564
63906SOL    HW193615   5.510   6.505   4.588
63906SOL    HW293616   5.443   6.373   4.618
63907SOL     OW93617   4.009   0.425  13.314
63907SOL    HW193618   3.975   0.429  13.403
63907SOL    HW293619   3.932   0.405  13.260
63908SOL     OW93620   1.903  10.643   9.103
63908SOL    HW193621   1.831  10.606   9.051
63908SOL    HW293622   1.973  10.578   9.096
63909SOL     OW93623   6.332   5.328   5.851
63909SOL    HW193624   6.289   5.279   5.780
63909SOL    HW293625   6.386   5.392   5.805
63910SOL     OW93626   0.656  11.991  10.281
63910SOL    HW193627   0.616  11.998  10.368
63910SOL    HW293628   0.749  11.978  10.300
63911SOL     OW93629  12.670  13.179   6.824
63911SOL    HW193630  12.699  13.168   6.734
63911SOL    HW293631  12.591  13.233   6.817
63912SOL     OW93632   0.082  13.161   5.248
63912SOL    HW193633   0.134  13.081   5.251
63912SOL    HW293634   0.058  13.177   5.340
63913SOL     OW93635   7.591   3.841   1.022
63913SOL    HW193636   7.586   3.838   1.118
63913SOL    HW293637   7.571   3.931   0.999
63914SOL     OW93638   4.761   8.007  11.553
63914SOL    HW193639   4.751   8.102  11.557
63914SOL    HW293640   4.832   7.993  11.491
63915SOL     OW93641   1.146   5.893  12.680
63915SOL    HW193642   1.124   5.816  12.627
63915SOL    HW293643   1.138   5.863  12.770
63916SOL     OW93644   1.358   1.136   9.595
63916SOL    HW193645   1.294   1.207   9.592
63916SOL    HW293646   1.305   1.056   9.586
63917SOL     OW93647   9.084   0.937  12.802
63917SOL    HW193648   9.164   0.949  12.853
63917SOL    HW293649   9.014   0.958  12.863
63918SOL     OW93650   1.012   7.123  13.699
63918SOL    HW193651   0.970   7.196  13.745
63918SOL    HW293652   0.940   7.069  13.668
63919SOL     OW93653   6.283  13.309   3.329
63919SOL    HW193654   6.312  13.247   3.396
63919SOL    HW293655   6.319  13.276   3.247
63920SOL     OW93656   8.468   0.448   7.533
63920SOL    HW193657   8.551   0.421   7.494
63920SOL    HW293658   8.490   0.527   7.583
63921SOL     OW93659   7.232   3.751  14.132
63921SOL    HW193660   7.157   3.807  14.111
63921SOL    HW293661   7.193   3.666  14.152
63922SOL     OW93662   9.264   9.366   2.751
63922SOL    HW193663   9.253   9.443   2.807
63922SOL    HW293664   9.181   9.319   2.760
63923SOL     OW93665   4.356   2.527  11.937
63923SOL    HW193666   4.413   2.602  11.959
63923SOL    HW293667   4.415   2.452  11.940
63924SOL     OW93668   8.942  14.804   7.806
63924SOL    HW193669   8.900  14.820   7.721
63924SOL    HW293670   9.024  14.759   7.783
63925SOL     OW93671  14.082   1.753   9.933
63925SOL    HW193672  14.097   1.712  10.019
63925SOL    HW293673  14.057   1.843   9.954
63926SOL     OW93674   5.005  14.384  11.663
63926SOL    HW193675   5.040  14.452  11.605
63926SOL    HW293676   4.986  14.310  11.604
63927SOL     OW93677  10.287  13.898  10.394
63927SOL    HW193678  10.328  13.961  10.336
63927SOL    HW293679  10.307  13.813  10.356
63928SOL     OW93680  10.718   4.013   6.000
63928SOL    HW193681  10.643   4.055   5.959
63928SOL    HW293682  10.728   3.931   5.952
63929SOL     OW93683   1.389   0.605  13.633
63929SOL    HW193684   1.360   0.687  13.594
63929SOL    HW293685   1.339   0.538  13.586
63930SOL     OW93686  13.147   7.911   4.583
63930SOL    HW193687  13.166   8.000   4.553
63930SOL    HW293688  13.061   7.917   4.623
63931SOL     OW93689   3.146   7.034  14.441
63931SOL    HW193690   3.140   7.098  14.513
63931SOL    HW293691   3.099   7.075  14.369
63932SOL     OW93692   2.055  14.427   4.250
63932SOL    HW193693   2.134  14.476   4.273
63932SOL    HW293694   1.983  14.479   4.287
63933SOL     OW93695   2.791   7.793   3.554
63933SOL    HW193696   2.810   7.883   3.527
63933SOL    HW293697   2.777   7.800   3.649
63934SOL     OW93698   2.383   1.888   0.217
63934SOL    HW193699   2.469   1.848   0.213
63934SOL    HW293700   2.340   1.862   0.136
63935SOL     OW93701  14.559   6.451   5.780
63935SOL    HW193702  14.550   6.406   5.696
63935SOL    HW293703  14.589   6.539   5.758
63936SOL     OW93704  11.703  12.782   9.931
63936SOL    HW193705  11.701  12.703   9.985
63936SOL    HW293706  11.671  12.852   9.989
63937SOL     OW93707   0.051   4.119   7.607
63937SOL    HW193708   0.088   4.119   7.696
63937SOL    HW293709  14.856   4.048   7.609
63938SOL     OW93710   0.861   0.661   4.550
63938SOL    HW193711   0.948   0.702   4.546
63938SOL    HW293712   0.828   0.684   4.636
63939SOL     OW93713   5.745   5.960  13.581
63939SOL    HW193714   5.720   5.877  13.621
63939SOL    HW293715   5.732   5.946  13.487
63940SOL     OW93716  14.477   3.775   1.122
63940SOL    HW193717  14.557   3.737   1.086
63940SOL    HW293718  14.477   3.748   1.214
63941SOL     OW93719   7.590   7.775   3.009
63941SOL    HW193720   7.632   7.850   2.968
63941SOL    HW293721   7.497   7.788   2.994
63942SOL     OW93722   1.341  14.479   2.199
63942SOL    HW193723   1.334  14.383   2.197
63942SOL    HW293724   1.252  14.510   2.183
63943SOL     OW93725   5.306   2.031  10.913
63943SOL    HW193726   5.366   2.012  10.841
63943SOL    HW293727   5.277   2.121  10.897
63944SOL     OW93728   1.309   7.820   5.189
63944SOL    HW193729   1.232   7.842   5.137
63944SOL    HW293730   1.380   7.812   5.126
63945SOL     OW93731   2.368   5.951   0.426
63945SOL    HW193732   2.357   5.856   0.430
63945SOL    HW293733   2.452   5.963   0.381
63946SOL     OW93734   2.747  11.859   7.790
63946SOL    HW193735   2.754  11.928   7.856
63946SOL    HW293736   2.837  11.829   7.777
63947SOL     OW93737  14.846  11.310   7.541
63947SOL    HW193738   0.017  11.225   7.560
63947SOL    HW293739  14.813  11.301   7.452
63948SOL     OW93740  10.379   8.221  12.059
63948SOL    HW193741  10.363   8.128  12.042
63948SOL    HW293742  10.358   8.264  11.976
63949SOL     OW93743   1.426   3.340   9.741
63949SOL    HW193744   1.472   3.289   9.808
63949SOL    HW293745   1.495   3.367   9.680
63950SOL     OW93746  10.881   8.974   4.819
63950SOL    HW193747  10.836   9.000   4.739
63950SOL    HW293748  10.833   9.018   4.889
63951SOL     OW93749  10.973   2.019  10.350
63951SOL    HW193750  10.891   2.056  10.382
63951SOL    HW293751  10.956   1.999  10.258
63952SOL     OW93752   1.379  13.791  12.539
63952SOL    HW193753   1.453  13.840  12.503
63952SOL    HW293754   1.326  13.768  12.463
63953SOL     OW93755  11.151   3.364  10.512
63953SOL    HW193756  11.118   3.371  10.601
63953SOL    HW293757  11.072   3.351  10.458
63954SOL     OW93758   7.798   9.094   7.870
63954SOL    HW193759   7.823   9.143   7.792
63954SOL    HW293760   7.759   9.159   7.928
63955SOL     OW93761   4.561  13.368   1.307
63955SOL    HW193762   4.505  13.435   1.267
63955SOL    HW293763   4.563  13.391   1.400
63956SOL     OW93764   2.448  11.632   7.121
63956SOL    HW193765   2.375  11.680   7.161
63956SOL    HW293766   2.469  11.563   7.185
63957SOL     OW93767  12.900  10.877   2.749
63957SOL    HW193768  12.848  10.897   2.826
63957SOL    HW293769  12.920  10.784   2.757
63958SOL     OW93770   7.754  14.788  14.302
63958SOL    HW193771   7.686  14.726  14.279
63958SOL    HW293772   7.740  14.806  14.396
63959SOL     OW93773  10.356   1.384  12.324
63959SOL    HW193774  10.314   1.439  12.391
63959SOL    HW293775  10.305   1.303  12.324
63960SOL     OW93776   0.569   0.027  12.050
63960SOL    HW193777   0.595  14.842  12.125
63960SOL    HW293778   0.481  14.868  12.028
63961SOL     OW93779   6.499  14.825  14.115
63961SOL    HW193780   6.482   0.042  14.154
63961SOL    HW293781   6.426  14.771  14.144
63962SOL     OW93782   3.948   6.955  10.379
63962SOL    HW193783   3.981   7.006  10.453
63962SOL    HW293784   4.026   6.933  10.328
63963SOL     OW93785  11.452  11.156   3.928
63963SOL    HW193786  11.375  11.163   3.872
63963SOL    HW293787  11.514  11.103   3.878
63964SOL     OW93788   1.970   5.980   2.907
63964SOL    HW193789   2.021   6.030   2.844
63964SOL    HW293790   1.901   6.039   2.935
63965SOL     OW93791   7.345   4.455   2.944
63965SOL    HW193792   7.364   4.518   3.014
63965SOL    HW293793   7.279   4.499   2.889
63966SOL     OW93794  12.580  14.744   6.992
63966SOL    HW193795  12.601  14.834   7.017
63966SOL    HW293796  12.645  14.690   7.038
63967SOL     OW93797  13.864   8.694   8.683
63967SOL    HW193798  13.958   8.704   8.696
63967SOL    HW293799  13.852   8.701   8.589
63968SOL     OW93800   4.445   7.061   7.253
63968SOL    HW193801   4.469   7.125   7.186
63968SOL    HW293802   4.355   7.084   7.276
63969SOL     OW93803  14.210  13.877  12.171
63969SOL    HW193804  14.193  13.846  12.082
63969SOL    HW293805  14.131  13.924  12.196
63970SOL     OW93806   1.759   6.052   8.976
63970SOL    HW193807   1.763   6.019   9.066
63970SOL    HW293808   1.850   6.067   8.952
63971SOL     OW93809   8.519   3.060  12.108
63971SOL    HW193810   8.532   2.974  12.068
63971SOL    HW293811   8.573   3.119  12.056
63972SOL     OW93812   1.313   0.107   3.754
63972SOL    HW193813   1.303   0.012   3.750
63972SOL    HW293814   1.384   0.126   3.692
63973SOL     OW93815   5.947  14.734   2.032
63973SOL    HW193816   5.945  14.638   2.037
63973SOL    HW293817   6.026  14.758   2.082
63974SOL     OW93818   2.365   7.927  10.730
63974SOL    HW193819   2.278   7.895  10.752
63974SOL    HW293820   2.424   7.883  10.792
63975SOL     OW93821   7.651   4.615   4.806
63975SOL    HW193822   7.726   4.587   4.859
63975SOL    HW293823   7.608   4.683   4.859
63976SOL     OW93824   7.833   3.934   6.960
63976SOL    HW193825   7.834   3.918   7.054
63976SOL    HW293826   7.789   3.858   6.923
63977SOL     OW93827   3.175   1.561  13.665
63977SOL    HW193828   3.207   1.474  13.687
63977SOL    HW293829   3.153   1.601  13.749
63978SOL     OW93830   2.098   3.193   8.491
63978SOL    HW193831   2.077   3.279   8.529
63978SOL    HW293832   2.179   3.208   8.442
63979SOL     OW93833  13.150   3.775   9.939
63979SOL    HW193834  13.164   3.853   9.994
63979SOL    HW293835  13.237   3.739   9.925
63980SOL     OW93836   6.725   6.815   7.258
63980SOL    HW193837   6.642   6.842   7.298
63980SOL    HW293838   6.765   6.756   7.322
63981SOL     OW93839   3.672   0.859  14.571
63981SOL    HW193840   3.691   0.920  14.643
63981SOL    HW293841   3.680   0.912  14.492
63982SOL     OW93842   7.019  12.112  13.973
63982SOL    HW193843   6.933  12.086  14.006
63982SOL    HW293844   7.076  12.038  13.996
63983SOL     OW93845   0.135   9.017   9.708
63983SOL    HW193846   0.058   9.060   9.745
63983SOL    HW293847   0.209   9.063   9.747
63984SOL     OW93848  13.308  10.242  11.208
63984SOL    HW193849  13.244  10.278  11.146
63984SOL    HW293850  13.340  10.318  11.256
63985SOL     OW93851  11.245  10.089   8.026
63985SOL    HW193852  11.271  10.135   7.947
63985SOL    HW293853  11.289  10.136   8.097
63986SOL     OW93854   6.337  12.481  12.845
63986SOL    HW193855   6.294  12.544  12.787
63986SOL    HW293856   6.294  12.397  12.825
63987SOL     OW93857  13.966  14.433  14.046
63987SOL    HW193858  14.014  14.504  14.004
63987SOL    HW293859  13.874  14.452  14.027
63988SOL     OW93860  10.984   4.245  14.386
63988SOL    HW193861  11.056   4.185  14.406
63988SOL    HW293862  10.914   4.219  14.445
63989SOL     OW93863   2.882   8.397  10.963
63989SOL    HW193864   2.891   8.327  11.027
63989SOL    HW293865   2.788   8.405  10.948
63990SOL     OW93866   0.543  13.983   7.306
63990SOL    HW193867   0.542  13.915   7.374
63990SOL    HW293868   0.600  14.052   7.342
63991SOL     OW93869   5.346   2.943  11.887
63991SOL    HW193870   5.376   2.864  11.932
63991SOL    HW293871   5.397   2.945  11.806
63992SOL     OW93872   0.840   1.767   3.665
63992SOL    HW193873   0.774   1.830   3.637
63992SOL    HW293874   0.817   1.745   3.755
63993SOL     OW93875  14.544   2.944   8.504
63993SOL    HW193876  14.582   3.002   8.571
63993SOL    HW293877  14.590   2.968   8.424
63994SOL     OW93878   0.921  11.425   7.409
63994SOL    HW193879   0.891  11.501   7.459
63994SOL    HW293880   0.862  11.355   7.436
63995SOL     OW93881  14.266  13.943   9.841
63995SOL    HW193882  14.215  14.011   9.797
63995SOL    HW293883  14.266  13.869   9.780
63996SOL     OW93884   9.537   7.283   6.451
63996SOL    HW193885   9.463   7.223   6.464
63996SOL    HW293886   9.582   7.249   6.374
63997SOL     OW93887   9.120   8.735   2.418
63997SOL    HW193888   9.195   8.781   2.378
63997SOL    HW293889   9.122   8.762   2.509
63998SOL     OW93890   1.502   6.049   1.263
63998SOL    HW193891   1.443   5.977   1.242
63998SOL    HW293892   1.526   6.034   1.354
63999SOL     OW93893   3.998   3.547   0.725
63999SOL    HW193894   3.942   3.472   0.703
63999SOL    HW293895   4.008   3.542   0.820
64000SOL     OW93896   6.686  11.241   0.454
64000SOL    HW193897   6.710  11.329   0.424
64000SOL    HW293898   6.610  11.217   0.401
64001SOL     OW93899   8.236   5.440   2.141
64001SOL    HW193900   8.143   5.453   2.121
64001SOL    HW293901   8.266   5.376   2.077
64002SOL     OW93902  11.869  13.087   3.450
64002SOL    HW193903  11.937  13.125   3.505
64002SOL    HW293904  11.790  13.137   3.472
64003SOL     OW93905   3.117  11.264   0.578
64003SOL    HW193906   3.033  11.292   0.615
64003SOL    HW293907   3.160  11.346   0.553
64004SOL     OW93908   8.039   2.164  10.720
64004SOL    HW193909   8.007   2.204  10.639
64004SOL    HW293910   8.023   2.070  10.709
64005SOL     OW93911   0.370   2.451   3.820
64005SOL    HW193912   0.302   2.519   3.814
64005SOL    HW293913   0.422   2.475   3.896
64006SOL     OW93914   8.588  14.517   9.706
64006SOL    HW193915   8.505  14.538   9.749
64006SOL    HW293916   8.637  14.599   9.708
64007SOL     OW93917   2.608   6.772   9.970
64007SOL    HW193918   2.611   6.828   9.893
64007SOL    HW293919   2.700   6.754   9.990
64008SOL     OW93920   2.487   4.580   8.822
64008SOL    HW193921   2.572   4.554   8.856
64008SOL    HW293922   2.507   4.645   8.755
64009SOL     OW93923  11.108  14.610   8.365
64009SOL    HW193924  11.070  14.539   8.418
64009SOL    HW293925  11.084  14.588   8.275
64010SOL     OW93926  12.246   1.458   9.843
64010SOL    HW193927  12.152   1.477   9.839
64010SOL    HW293928  12.280   1.492   9.760
64011SOL     OW93929   2.923   7.337   2.422
64011SOL    HW193930   2.996   7.347   2.484
64011SOL    HW293931   2.951   7.266   2.363
64012SOL     OW93932   4.107  11.855   2.687
64012SOL    HW193933   4.030  11.803   2.709
64012SOL    HW293934   4.162  11.797   2.634
64013SOL     OW93935   9.353  10.170  12.486
64013SOL    HW193936   9.346  10.075  12.477
64013SOL    HW293937   9.288  10.192  12.552
64014SOL     OW93938   4.797   0.408   8.999
64014SOL    HW193939   4.753   0.419   8.914
64014SOL    HW293940   4.846   0.489   9.011
64015SOL     OW93941  13.035   4.384  14.346
64015SOL    HW193942  13.027   4.305  14.400
64015SOL    HW293943  12.954   4.432  14.361
64016SOL     OW93944  10.628  13.207   6.348
64016SOL    HW193945  10.588  13.146   6.286
64016SOL    HW293946  10.663  13.278   6.295
64017SOL     OW93947   4.545   0.300  10.095
64017SOL    HW193948   4.548   0.395  10.106
64017SOL    HW293949   4.629   0.269  10.126
64018SOL     OW93950   1.270   4.074   1.535
64018SOL    HW193951   1.298   4.062   1.625
64018SOL    HW293952   1.319   4.150   1.503
64019SOL     OW93953  12.110   2.998  10.187
64019SOL    HW193954  12.137   3.058  10.256
64019SOL    HW293955  12.027   3.035  10.155
64020SOL     OW93956   1.057   3.893   4.717
64020SOL    HW193957   1.143   3.865   4.686
64020SOL    HW293958   1.045   3.979   4.676
64021SOL     OW93959   7.793  12.343  13.708
64021SOL    HW193960   7.849  12.382  13.641
64021SOL    HW293961   7.763  12.261  13.669
64022SOL     OW93962   8.535  11.374   1.292
64022SOL    HW193963   8.502  11.293   1.331
64022SOL    HW293964   8.629  11.373   1.312
64023SOL     OW93965   1.861   5.558  14.411
64023SOL    HW193966   1.938   5.529  14.362
64023SOL    HW293967   1.896   5.615  14.479
64024SOL     OW93968   4.906  13.424   4.681
64024SOL    HW193969   4.827  13.374   4.704
64024SOL    HW293970   4.917  13.408   4.587
64025SOL     OW93971   9.756   6.916   9.022
64025SOL    HW193972   9.822   6.946   8.960
64025SOL    HW293973   9.752   6.821   9.009
64026SOL     OW93974   4.324   6.764   2.435
64026SOL    HW193975   4.407   6.720   2.456
64026SOL    HW293976   4.269   6.748   2.512
64027SOL     OW93977  13.656  10.783   2.755
64027SOL    HW193978  13.694  10.833   2.683
64027SOL    HW293979  13.730  10.761   2.811
64028SOL     OW93980  13.611   1.867  11.313
64028SOL    HW193981  13.682   1.836  11.257
64028SOL    HW293982  13.654   1.910  11.386
64029SOL     OW93983   0.923   2.566  12.886
64029SOL    HW193984   0.864   2.639  12.903
64029SOL    HW293985   1.009   2.597  12.914
64030SOL     OW93986   7.089   8.639   3.990
64030SOL    HW193987   7.115   8.560   4.038
64030SOL    HW293988   7.014   8.673   4.039
64031SOL     OW93989   6.549   7.296  10.026
64031SOL    HW193990   6.568   7.389  10.023
64031SOL    HW293991   6.630   7.256  10.059
64032SOL     OW93992   7.415   9.105   5.105
64032SOL    HW193993   7.319   9.105   5.099
64032SOL    HW293994   7.442   9.165   5.035
64033SOL     OW93995   0.155   6.161   0.423
64033SOL    HW193996   0.145   6.100   0.349
64033SOL    HW293997   0.155   6.104   0.500
64034SOL     OW93998  10.177  11.427   5.269
64034SOL    HW193999  10.248  11.365   5.289
64034SOL    HW294000  10.100  11.372   5.258
64035SOL     OW94001  10.993   2.174   8.301
64035SOL    HW194002  10.902   2.175   8.274
64035SOL    HW294003  11.037   2.234   8.240
64036SOL     OW94004   0.577   0.598   2.722
64036SOL    HW194005   0.563   0.663   2.654
64036SOL    HW294006   0.637   0.534   2.683
64037SOL     OW94007  10.678  10.297   1.953
64037SOL    HW194008  10.745  10.231   1.970
64037SOL    HW294009  10.603  10.268   2.004
64038SOL     OW94010  13.764   1.830  14.511
64038SOL    HW194011  13.728   1.772  14.579
64038SOL    HW294012  13.822   1.889  14.558
64039SOL     OW94013   5.184   2.996   9.823
64039SOL    HW194014   5.278   3.016   9.819
64039SOL    HW294015   5.159   2.983   9.732
64040SOL     OW94016   4.189   6.039   7.215
64040SOL    HW194017   4.108   5.992   7.198
64040SOL    HW294018   4.193   6.106   7.147
64041SOL     OW94019   7.662   1.354   0.897
64041SOL    HW194020   7.659   1.440   0.853
64041SOL    HW294021   7.654   1.375   0.990
64042SOL     OW94022  10.768   5.361   5.517
64042SOL    HW194023  10.694   5.419   5.498
64042SOL    HW294024  10.747   5.279   5.471
64043SOL     OW94025   5.161   0.547   1.065
64043SOL    HW194026   5.179   0.576   1.154
64043SOL    HW294027   5.082   0.595   1.040
64044SOL     OW94028   2.330   2.013   1.999
64044SOL    HW194029   2.360   2.062   1.922
64044SOL    HW294030   2.262   2.068   2.037
64045SOL     OW94031   4.878  12.247   1.491
64045SOL    HW194032   4.923  12.246   1.407
64045SOL    HW294033   4.795  12.292   1.474
64046SOL     OW94034   0.205   2.010   5.297
64046SOL    HW194035   0.208   1.931   5.351
64046SOL    HW294036   0.111   2.031   5.291
64047SOL     OW94037   3.119  12.077  12.960
64047SOL    HW194038   3.163  12.073  12.875
64047SOL    HW294039   3.143  12.163  12.994
64048SOL     OW94040  11.487   3.243   4.710
64048SOL    HW194041  11.562   3.184   4.721
64048SOL    HW294042  11.420   3.189   4.668
64049SOL     OW94043   9.965   3.829   9.851
64049SOL    HW194044   9.884   3.799   9.808
64049SOL    HW294045   9.970   3.923   9.831
64050SOL     OW94046  12.300   7.507  13.724
64050SOL    HW194047  12.356   7.585  13.732
64050SOL    HW294048  12.212   7.541  13.738
64051SOL     OW94049  14.826   4.257   1.008
64051SOL    HW194050   0.008   4.258   1.089
64051SOL    HW294051  14.823   4.348   0.980
64052SOL     OW94052   6.729   9.789   0.775
64052SOL    HW194053   6.777   9.850   0.719
64052SOL    HW294054   6.788   9.771   0.848
64053SOL     OW94055  10.577  11.331  14.654
64053SOL    HW194056  10.596  11.285  14.573
64053SOL    HW294057  10.493  11.374  14.638
64054SOL     OW94058   4.563   8.020  13.721
64054SOL    HW194059   4.539   8.104  13.760
64054SOL    HW294060   4.622   7.980  13.785
64055SOL     OW94061  10.082   3.067  14.748
64055SOL    HW194062  10.100   2.973  14.754
64055SOL    HW294063  10.000   3.073  14.699
64056SOL     OW94064   0.319   1.398  10.879
64056SOL    HW194065   0.357   1.482  10.852
64056SOL    HW294066   0.229   1.419  10.903
64057SOL     OW94067   4.080   2.819   8.223
64057SOL    HW194068   4.144   2.792   8.157
64057SOL    HW294069   4.002   2.768   8.202
64058SOL     OW94070   9.436   7.613  13.465
64058SOL    HW194071   9.415   7.695  13.421
64058SOL    HW294072   9.510   7.577  13.415
64059SOL     OW94073  13.135   6.276  14.441
64059SOL    HW194074  13.070   6.249  14.506
64059SOL    HW294075  13.211   6.305  14.492
64060SOL     OW94076   9.453   8.038   3.771
64060SOL    HW194077   9.368   8.081   3.772
64060SOL    HW294078   9.432   7.944   3.774
64061SOL     OW94079   3.485   2.269   7.218
64061SOL    HW194080   3.545   2.308   7.155
64061SOL    HW294081   3.477   2.334   7.288
64062SOL     OW94082  14.330  10.083  11.635
64062SOL    HW194083  14.270  10.154  11.613
64062SOL    HW294084  14.276  10.004  11.633
64063SOL     OW94085   5.682   7.122   0.787
64063SOL    HW194086   5.656   7.066   0.714
64063SOL    HW294087   5.625   7.199   0.780
64064SOL     OW94088  10.748   9.505   9.366
64064SOL    HW194089  10.783   9.447   9.299
64064SOL    HW294090  10.685   9.451   9.414
64065SOL     OW94091  14.100   3.943   5.126
64065SOL    HW194092  14.178   3.979   5.084
64065SOL    HW294093  14.121   3.944   5.220
64066SOL     OW94094   3.801   2.938  14.499
64066SOL    HW194095   3.888   2.900  14.516
64066SOL    HW294096   3.743   2.893  14.561
64067SOL     OW94097   3.708  12.433  12.695
64067SOL    HW194098   3.647  12.389  12.754
64067SOL    HW294099   3.764  12.363  12.662
64068SOL     OW94100   4.617   1.609   4.464
64068SOL    HW194101   4.565   1.561   4.399
64068SOL    HW294102   4.590   1.571   4.548
64069SOL     OW94103  13.711   1.811   1.232
64069SOL    HW194104  13.678   1.818   1.142
64069SOL    HW294105  13.786   1.752   1.225
64070SOL     OW94106   9.602   7.145   0.196
64070SOL    HW194107   9.672   7.080   0.193
64070SOL    HW294108   9.557   7.135   0.111
64071SOL     OW94109   5.953   1.268  12.074
64071SOL    HW194110   5.911   1.225  12.148
64071SOL    HW294111   6.000   1.342  12.112
64072SOL     OW94112   0.403   3.894  11.122
64072SOL    HW194113   0.397   3.928  11.033
64072SOL    HW294114   0.318   3.914  11.161
64073SOL     OW94115   1.621   0.609   6.372
64073SOL    HW194116   1.678   0.684   6.353
64073SOL    HW294117   1.674   0.532   6.353
64074SOL     OW94118   5.970  13.245  12.655
64074SOL    HW194119   5.920  13.180  12.705
64074SOL    HW294120   5.982  13.318  12.716
64075SOL     OW94121   6.353   1.095  14.766
64075SOL    HW194122   6.308   1.163  14.817
64075SOL    HW294123   6.441   1.092  14.802
64076SOL     OW94124   8.426  11.329   6.133
64076SOL    HW194125   8.522  11.320   6.137
64076SOL    HW294126   8.393  11.250   6.177
64077SOL     OW94127  14.337   1.389   8.195
64077SOL    HW194128  14.243   1.371   8.191
64077SOL    HW294129  14.345   1.460   8.259
64078SOL     OW94130   5.660  10.327   5.001
64078SOL    HW194131   5.725  10.278   4.951
64078SOL    HW294132   5.595  10.354   4.936
64079SOL     OW94133   4.767  10.880   7.422
64079SOL    HW194134   4.796  10.805   7.474
64079SOL    HW294135   4.848  10.922   7.393
64080SOL     OW94136   0.611   4.863  12.039
64080SOL    HW194137   0.697   4.830  12.063
64080SOL    HW294138   0.593   4.824  11.953
64081SOL     OW94139   9.377   0.627   2.480
64081SOL    HW194140   9.457   0.676   2.500
64081SOL    HW294141   9.405   0.536   2.475
64082SOL     OW94142  14.863  12.403   6.404
64082SOL    HW194143  14.775  12.365   6.415
64082SOL    HW294144   0.014  12.441   6.490
64083SOL     OW94145   2.909   3.633   0.460
64083SOL    HW194146   2.996   3.627   0.500
64083SOL    HW294147   2.864   3.555   0.490
64084SOL     OW94148  13.756   2.228  12.140
64084SOL    HW194149  13.725   2.312  12.173
64084SOL    HW294150  13.827   2.204  12.200
64085SOL     OW94151   5.857  12.514  12.916
64085SOL    HW194152   5.927  12.550  12.969
64085SOL    HW294153   5.861  12.563  12.834
64086SOL     OW94154  10.636   5.096  14.436
64086SOL    HW194155  10.727   5.109  14.462
64086SOL    HW294156  10.586   5.145  14.501
64087SOL     OW94157   9.913   7.466   2.045
64087SOL    HW194158   9.892   7.376   2.067
64087SOL    HW294159   9.851   7.518   2.095
64088SOL     OW94160  10.496   6.968   2.148
64088SOL    HW194161  10.506   7.060   2.123
64088SOL    HW294162  10.402   6.951   2.142
64089SOL     OW94163   2.155   9.889   6.607
64089SOL    HW194164   2.188   9.806   6.642
64089SOL    HW294165   2.190   9.956   6.665
64090SOL     OW94166   0.459  10.050   9.856
64090SOL    HW194167   0.522  10.120   9.874
64090SOL    HW294168   0.374  10.087   9.880
64091SOL     OW94169   7.241   9.200  13.489
64091SOL    HW194170   7.326   9.242  13.505
64091SOL    HW294171   7.180   9.247  13.545
64092SOL     OW94172   2.592   8.869   4.472
64092SOL    HW194173   2.552   8.864   4.385
64092SOL    HW294174   2.671   8.815   4.465
64093SOL     OW94175   4.743   4.825   3.079
64093SOL    HW194176   4.671   4.811   3.018
64093SOL    HW294177   4.791   4.742   3.079
64094SOL     OW94178   9.763  11.944   7.449
64094SOL    HW194179   9.683  11.900   7.478
64094SOL    HW294180   9.754  12.034   7.480
64095SOL     OW94181   9.235   5.075   3.200
64095SOL    HW194182   9.318   5.033   3.222
64095SOL    HW294183   9.168   5.012   3.224
64096SOL     OW94184   2.951   4.058   9.904
64096SOL    HW194185   2.951   4.153   9.892
64096SOL    HW294186   2.956   4.046   9.999
64097SOL     OW94187   7.045   2.252   2.926
64097SOL    HW194188   6.954   2.260   2.898
64097SOL    HW294189   7.082   2.186   2.868
64098SOL     OW94190  12.648   4.272  14.239
64098SOL    HW194191  12.685   4.328  14.307
64098SOL    HW294192  12.638   4.187  14.281
64099SOL     OW94193  14.170   7.105  10.376
64099SOL    HW194194  14.213   7.122  10.459
64099SOL    HW294195  14.239   7.118  10.310
64100SOL     OW94196  13.977  12.147  14.224
64100SOL    HW194197  13.992  12.053  14.228
64100SOL    HW294198  13.913  12.164  14.293
64101SOL     OW94199   6.236   8.442   6.456
64101SOL    HW194200   6.147   8.412   6.440
64101SOL    HW294201   6.288   8.361   6.463
64102SOL     OW94202  12.889   6.910   5.108
64102SOL    HW194203  12.897   6.927   5.015
64102SOL    HW294204  12.804   6.949   5.132
64103SOL     OW94205   9.926   7.377   0.966
64103SOL    HW194206   9.901   7.468   0.948
64103SOL    HW294207  10.013   7.384   1.005
64104SOL     OW94208   1.865   4.094   1.337
64104SOL    HW194209   1.931   4.135   1.282
64104SOL    HW294210   1.839   4.164   1.398
64105SOL     OW94211  13.753   6.024   8.094
64105SOL    HW194212  13.763   6.118   8.078
64105SOL    HW294213  13.685   6.018   8.161
64106SOL     OW94214   7.712  11.326  12.155
64106SOL    HW194215   7.738  11.404  12.204
64106SOL    HW294216   7.627  11.302  12.191
64107SOL     OW94217   8.494  12.797   7.953
64107SOL    HW194218   8.582  12.783   7.918
64107SOL    HW294219   8.441  12.729   7.912
64108SOL     OW94220   5.192   8.176   6.303
64108SOL    HW194221   5.266   8.115   6.299
64108SOL    HW294222   5.216   8.246   6.242
64109SOL     OW94223   8.333   9.287   1.239
64109SOL    HW194224   8.262   9.267   1.178
64109SOL    HW294225   8.323   9.380   1.257
64110SOL     OW94226   1.241  10.346   2.245
64110SOL    HW194227   1.152  10.359   2.211
64110SOL    HW294228   1.237  10.263   2.292
64111SOL     OW94229   3.406   0.060   3.460
64111SOL    HW194230   3.442   0.130   3.405
64111SOL    HW294231   3.387   0.103   3.544
64112SOL     OW94232   0.064   3.646   2.109
64112SOL    HW194233   0.111   3.671   2.188
64112SOL    HW294234   0.133   3.618   2.048
64113SOL     OW94235   6.508   3.096   9.895
64113SOL    HW194236   6.567   3.049   9.954
64113SOL    HW294237   6.562   3.167   9.859
64114SOL     OW94238   1.276   5.310  10.082
64114SOL    HW194239   1.257   5.345  10.169
64114SOL    HW294240   1.260   5.383  10.022
64115SOL     OW94241  11.010  14.417   5.302
64115SOL    HW194242  11.059  14.345   5.264
64115SOL    HW294243  10.931  14.424   5.247
64116SOL     OW94244  11.679  12.891   8.379
64116SOL    HW194245  11.724  12.853   8.303
64116SOL    HW294246  11.729  12.860   8.454
64117SOL     OW94247   5.296   9.076   4.000
64117SOL    HW194248   5.220   9.117   3.958
64117SOL    HW294249   5.349   9.150   4.030
64118SOL     OW94250   6.838  11.144   9.209
64118SOL    HW194251   6.872  11.209   9.270
64118SOL    HW294252   6.900  11.071   9.216
64119SOL     OW94253   6.454   7.217   5.883
64119SOL    HW194254   6.482   7.173   5.963
64119SOL    HW294255   6.395   7.154   5.841
64120SOL     OW94256  10.319   6.300  10.804
64120SOL    HW194257  10.283   6.293  10.715
64120SOL    HW294258  10.292   6.219  10.847
64121SOL     OW94259  12.523   3.157   8.978
64121SOL    HW194260  12.521   3.069   8.942
64121SOL    HW294261  12.593   3.201   8.931
64122SOL     OW94262   8.450   1.670   5.396
64122SOL    HW194263   8.534   1.625   5.387
64122SOL    HW294264   8.458   1.722   5.475
64123SOL     OW94265  10.211   2.593   9.542
64123SOL    HW194266  10.219   2.653   9.617
64123SOL    HW294267  10.216   2.506   9.582
64124SOL     OW94268  12.197  11.722   4.365
64124SOL    HW194269  12.258  11.761   4.428
64124SOL    HW294270  12.159  11.648   4.412
64125SOL     OW94271   0.917   5.580  10.268
64125SOL    HW194272   1.006   5.567  10.237
64125SOL    HW294273   0.871   5.499  10.245
64126SOL     OW94274   3.033   7.444   1.997
64126SOL    HW194275   3.006   7.480   2.082
64126SOL    HW294276   3.026   7.518   1.937
64127SOL     OW94277   3.865  13.929   0.464
64127SOL    HW194278   3.800  13.892   0.404
64127SOL    HW294279   3.933  13.962   0.406
64128SOL     OW94280   1.821   6.939   2.247
64128SOL    HW194281   1.902   6.949   2.297
64128SOL    HW294282   1.753   6.928   2.313
64129SOL     OW94283   8.771   2.848  10.110
64129SOL    HW194284   8.712   2.823  10.039
64129SOL    HW294285   8.726   2.919  10.155
64130SOL     OW94286   8.543   1.042   1.360
64130SOL    HW194287   8.570   1.131   1.340
64130SOL    HW294288   8.622   0.989   1.346
64131SOL     OW94289  14.615  10.996   5.203
64131SOL    HW194290  14.596  11.089   5.189
64131SOL    HW294291  14.597  10.982   5.296
64132SOL     OW94292   4.319   0.060  12.269
64132SOL    HW194293   4.322   0.101  12.182
64132SOL    HW294294   4.269   0.122  12.322
64133SOL     OW94295  12.753   5.677  13.650
64133SOL    HW194296  12.723   5.596  13.609
64133SOL    HW294297  12.846   5.681  13.630
64134SOL     OW94298  10.894   6.008   4.645
64134SOL    HW194299  10.954   6.010   4.719
64134SOL    HW294300  10.912   6.089   4.596
64135SOL     OW94301   4.289  10.264   9.832
64135SOL    HW194302   4.257  10.229   9.749
64135SOL    HW294303   4.236  10.221   9.899
64136SOL     OW94304   9.357  12.782   7.087
64136SOL    HW194305   9.397  12.861   7.051
64136SOL    HW294306   9.429  12.718   7.090
64137SOL     OW94307   1.062   5.307   5.920
64137SOL    HW194308   1.044   5.272   5.833
64137SOL    HW294309   1.073   5.230   5.975
64138SOL     OW94310  10.247   5.790   7.402
64138SOL    HW194311  10.162   5.756   7.374
64138SOL    HW294312  10.242   5.791   7.497
64139SOL     OW94313   5.158   5.744   6.081
64139SOL    HW194314   5.189   5.699   6.160
64139SOL    HW294315   5.235   5.792   6.049
64140SOL     OW94316  14.868  13.466   1.057
64140SOL    HW194317   0.016  13.506   1.142
64140SOL    HW294318   0.086  13.452   1.019
64141SOL     OW94319   4.052  12.072   9.385
64141SOL    HW194320   3.966  12.109   9.403
64141SOL    HW294321   4.090  12.131   9.319
64142SOL     OW94322   4.262  12.576  14.187
64142SOL    HW194323   4.185  12.578  14.131
64142SOL    HW294324   4.304  12.661  14.173
64143SOL     OW94325   6.069   3.358  11.081
64143SOL    HW194326   6.084   3.285  11.142
64143SOL    HW294327   6.032   3.427  11.136
64144SOL     OW94328   2.416   5.474   6.778
64144SOL    HW194329   2.459   5.521   6.849
64144SOL    HW294330   2.487   5.428   6.733
64145SOL     OW94331   4.116  13.627   9.345
64145SOL    HW194332   4.127  13.702   9.286
64145SOL    HW294333   4.061  13.660   9.416
64146SOL     OW94334   7.261   7.940   6.616
64146SOL    HW194335   7.214   8.008   6.665
64146SOL    HW294336   7.196   7.871   6.604
64147SOL     OW94337   5.330   6.282   6.545
64147SOL    HW194338   5.300   6.370   6.523
64147SOL    HW294339   5.270   6.224   6.497
64148SOL     OW94340  12.395  13.789   3.899
64148SOL    HW194341  12.422  13.826   3.983
64148SOL    HW294342  12.300  13.796   3.898
64149SOL     OW94343   2.327  11.444  10.303
64149SOL    HW194344   2.282  11.432  10.386
64149SOL    HW294345   2.262  11.418  10.237
64150SOL     OW94346   7.010  12.788   9.525
64150SOL    HW194347   7.055  12.730   9.463
64150SOL    HW294348   6.925  12.805   9.484
64151SOL     OW94349   3.433   1.969  11.720
64151SOL    HW194350   3.498   2.039  11.724
64151SOL    HW294351   3.419   1.944  11.812
64152SOL     OW94352  10.685   5.687   5.670
64152SOL    HW194353  10.627   5.701   5.596
64152SOL    HW294354  10.665   5.598   5.700
64153SOL     OW94355   2.574   4.556   9.525
64153SOL    HW194356   2.625   4.581   9.448
64153SOL    HW294357   2.602   4.466   9.544
64154SOL     OW94358   6.609  14.604  14.806
64154SOL    HW194359   6.604  14.508  14.815
64154SOL    HW294360   6.521  14.630  14.781
64155SOL     OW94361   4.293   3.405   5.311
64155SOL    HW194362   4.323   3.352   5.385
64155SOL    HW294363   4.371   3.418   5.257
64156SOL     OW94364   5.355   1.317   7.399
64156SOL    HW194365   5.357   1.225   7.371
64156SOL    HW294366   5.414   1.361   7.339
64157SOL     OW94367   9.632   1.059  10.243
64157SOL    HW194368   9.543   1.038  10.272
64157SOL    HW294369   9.682   1.070  10.324
64158SOL     OW94370  11.859   2.686   6.606
64158SOL    HW194371  11.892   2.775   6.618
64158SOL    HW294372  11.907   2.634   6.669
64159SOL     OW94373   5.327   1.376   1.624
64159SOL    HW194374   5.288   1.373   1.712
64159SOL    HW294375   5.335   1.284   1.598
64160SOL     OW94376   3.704   5.723   0.390
64160SOL    HW194377   3.728   5.637   0.425
64160SOL    HW294378   3.759   5.733   0.312
64161SOL     OW94379   2.197   8.053  13.940
64161SOL    HW194380   2.272   8.100  13.904
64161SOL    HW294381   2.140   8.121  13.975
64162SOL     OW94382  13.135   5.467  10.580
64162SOL    HW194383  13.064   5.505  10.633
64162SOL    HW294384  13.212   5.518  10.603
64163SOL     OW94385   1.697   2.146  12.115
64163SOL    HW194386   1.684   2.081  12.046
64163SOL    HW294387   1.632   2.214  12.097
64164SOL     OW94388   5.467   6.850   6.309
64164SOL    HW194389   5.521   6.849   6.229
64164SOL    HW294390   5.415   6.930   6.302
64165SOL     OW94391   1.044   1.712  12.464
64165SOL    HW194392   1.016   1.727  12.374
64165SOL    HW294393   1.121   1.656  12.456
64166SOL     OW94394   5.746   1.878   5.621
64166SOL    HW194395   5.830   1.857   5.662
64166SOL    HW294396   5.763   1.959   5.572
64167SOL     OW94397  13.259   8.311  10.341
64167SOL    HW194398  13.233   8.376  10.407
64167SOL    HW294399  13.341   8.345  10.305
64168SOL     OW94400   8.463   6.352  12.942
64168SOL    HW194401   8.375   6.385  12.958
64168SOL    HW294402   8.503   6.416  12.883
64169SOL     OW94403   9.911   1.885   2.261
64169SOL    HW194404   9.936   1.920   2.176
64169SOL    HW294405   9.975   1.816   2.279
64170SOL     OW94406   9.265   9.339   9.871
64170SOL    HW194407   9.311   9.259   9.842
64170SOL    HW294408   9.172   9.316   9.865
64171SOL     OW94409  10.400  14.539  11.863
64171SOL    HW194410  10.329  14.603  11.868
64171SOL    HW294411  10.480  14.592  11.857
64172SOL     OW94412  11.477   5.548  12.203
64172SOL    HW194413  11.389   5.577  12.228
64172SOL    HW294414  11.527   5.548  12.284
64173SOL     OW94415   8.183  11.699   5.992
64173SOL    HW194416   8.191  11.605   6.006
64173SOL    HW294417   8.219  11.714   5.904
64174SOL     OW94418   2.939   2.465   3.941
64174SOL    HW194419   2.944   2.528   3.869
64174SOL    HW294420   2.935   2.380   3.897
64175SOL     OW94421   6.860  10.221   6.491
64175SOL    HW194422   6.766  10.219   6.473
64175SOL    HW294423   6.893  10.140   6.452
64176SOL     OW94424   4.578  13.723  12.977
64176SOL    HW194425   4.586  13.815  13.000
64176SOL    HW294426   4.624  13.714  12.893
64177SOL     OW94427   2.783   0.497   9.618
64177SOL    HW194428   2.723   0.551   9.567
64177SOL    HW294429   2.729   0.459   9.687
64178SOL     OW94430   9.522  10.367   6.509
64178SOL    HW194431   9.606  10.391   6.470
64178SOL    HW294432   9.471  10.332   6.436
64179SOL     OW94433   7.604   5.621  12.669
64179SOL    HW194434   7.643   5.703  12.699
64179SOL    HW294435   7.528   5.608  12.725
64180SOL     OW94436   0.321  14.431  10.532
64180SOL    HW194437   0.342  14.410  10.623
64180SOL    HW294438   0.386  14.383  10.481
64181SOL     OW94439   3.412   8.400  13.764
64181SOL    HW194440   3.319   8.397  13.787
64181SOL    HW294441   3.451   8.459  13.829
64182SOL     OW94442  11.897   2.398   9.993
64182SOL    HW194443  11.836   2.326  10.010
64182SOL    HW294444  11.842   2.476   9.993
64183SOL     OW94445  13.143   2.993  13.042
64183SOL    HW194446  13.049   2.982  13.061
64183SOL    HW294447  13.148   3.077  12.996
64184SOL     OW94448   4.212  11.586   1.239
64184SOL    HW194449   4.245  11.675   1.229
64184SOL    HW294450   4.248  11.556   1.322
64185SOL     OW94451   0.382  11.705   8.767
64185SOL    HW194452   0.415  11.763   8.836
64185SOL    HW294453   0.352  11.627   8.813
64186SOL     OW94454  11.685   2.169   3.321
64186SOL    HW194455  11.662   2.255   3.356
64186SOL    HW294456  11.780   2.163   3.330
64187SOL     OW94457  11.360   4.018   7.165
64187SOL    HW194458  11.275   4.020   7.121
64187SOL    HW294459  11.396   3.932   7.143
64188SOL     OW94460   5.272   7.094   1.055
64188SOL    HW194461   5.345   7.056   1.006
64188SOL    HW294462   5.195   7.052   1.018
64189SOL     OW94463   4.673   8.677   5.601
64189SOL    HW194464   4.719   8.602   5.640
64189SOL    HW294465   4.662   8.652   5.509
64190SOL     OW94466   2.747   4.659  12.579
64190SOL    HW194467   2.767   4.751  12.596
64190SOL    HW294468   2.799   4.637  12.502
64191SOL     OW94469   6.483   1.627  13.461
64191SOL    HW194470   6.406   1.575  13.436
64191SOL    HW294471   6.515   1.663  13.378
64192SOL     OW94472   7.473   3.518  12.245
64192SOL    HW194473   7.450   3.609  12.266
64192SOL    HW294474   7.420   3.466  12.306
64193SOL     OW94475   2.102   3.947  12.609
64193SOL    HW194476   2.158   4.026  12.611
64193SOL    HW294477   2.164   3.875  12.599
64194SOL     OW94478  13.960   6.743   8.546
64194SOL    HW194479  13.965   6.705   8.458
64194SOL    HW294480  13.870   6.728   8.574
64195SOL     OW94481   9.492  12.433   2.989
64195SOL    HW194482   9.503  12.428   3.084
64195SOL    HW294483   9.512  12.345   2.958
64196SOL     OW94484  12.603   7.171   4.544
64196SOL    HW194485  12.672   7.120   4.502
64196SOL    HW294486  12.589   7.246   4.487
64197SOL     OW94487  11.398   1.248   0.440
64197SOL    HW194488  11.315   1.210   0.412
64197SOL    HW294489  11.372   1.328   0.486
64198SOL     OW94490   7.060  11.852  13.881
64198SOL    HW194491   6.995  11.788  13.851
64198SOL    HW294492   7.068  11.913  13.807
64199SOL     OW94493   4.905   0.474   4.873
64199SOL    HW194494   4.932   0.419   4.799
64199SOL    HW294495   4.982   0.526   4.894
64200SOL     OW94496  13.599   0.147   1.004
64200SOL    HW194497  13.505   0.158   1.020
64200SOL    HW294498  13.605   0.132   0.909
64201SOL     OW94499   0.824   2.752   2.966
64201SOL    HW194500   0.801   2.798   2.886
64201SOL    HW294501   0.781   2.666   2.957
64202SOL     OW94502   7.425   1.332   4.823
64202SOL    HW194503   7.452   1.253   4.776
64202SOL    HW294504   7.447   1.404   4.765
64203SOL     OW94505  11.276   1.381   6.570
64203SOL    HW194506  11.276   1.372   6.665
64203SOL    HW294507  11.287   1.292   6.538
64204SOL     OW94508   9.017   8.077   1.893
64204SOL    HW194509   8.924   8.099   1.898
64204SOL    HW294510   9.058   8.150   1.847
64205SOL     OW94511   2.869  14.168   4.713
64205SOL    HW194512   2.783  14.180   4.674
64205SOL    HW294513   2.868  14.222   4.792
64206SOL     OW94514   2.569   7.871   0.561
64206SOL    HW194515   2.600   7.879   0.652
64206SOL    HW294516   2.644   7.897   0.508
64207SOL     OW94517   1.789   3.299   0.987
64207SOL    HW194518   1.884   3.299   0.973
64207SOL    HW294519   1.759   3.215   0.952
64208SOL     OW94520   4.783   5.883   2.109
64208SOL    HW194521   4.830   5.826   2.048
64208SOL    HW294522   4.828   5.871   2.193
64209SOL     OW94523   8.003  10.242   6.254
64209SOL    HW194524   8.089  10.242   6.212
64209SOL    HW294525   7.941  10.243   6.182
64210SOL     OW94526   2.537   8.804   2.470
64210SOL    HW194527   2.565   8.837   2.556
64210SOL    HW294528   2.619   8.793   2.421
64211SOL     OW94529   8.365   8.407  13.179
64211SOL    HW194530   8.460   8.394  13.179
64211SOL    HW294531   8.349   8.465  13.105
64212SOL     OW94532  13.925   3.679   1.013
64212SOL    HW194533  13.970   3.748   0.964
64212SOL    HW294534  13.943   3.699   1.105
64213SOL     OW94535  11.708   7.455  10.547
64213SOL    HW194536  11.783   7.503  10.582
64213SOL    HW294537  11.704   7.375  10.599
64214SOL     OW94538   2.826   3.003   0.101
64214SOL    HW194539   2.793   2.958   0.023
64214SOL    HW294540   2.747   3.032   0.147
64215SOL     OW94541   8.109   7.505   7.710
64215SOL    HW194542   8.107   7.544   7.798
64215SOL    HW294543   8.024   7.461   7.703
64216SOL     OW94544  14.735   1.572  13.389
64216SOL    HW194545  14.644   1.567  13.361
64216SOL    HW294546  14.736   1.532  13.476
64217SOL     OW94547   4.790  12.889  10.232
64217SOL    HW194548   4.876  12.899  10.272
64217SOL    HW294549   4.740  12.964  10.263
64218SOL     OW94550   6.383  11.762   5.423
64218SOL    HW194551   6.322  11.780   5.494
64218SOL    HW294552   6.463  11.732   5.468
64219SOL     OW94553   1.150   4.512   6.318
64219SOL    HW194554   1.202   4.541   6.392
64219SOL    HW294555   1.172   4.573   6.247
64220SOL     OW94556  14.798   6.589  12.458
64220SOL    HW194557  14.789   6.558  12.548
64220SOL    HW294558   0.009   6.640  12.458
64221SOL     OW94559   5.474   0.643   5.538
64221SOL    HW194560   5.445   0.578   5.474
64221SOL    HW294561   5.444   0.609   5.622
64222SOL     OW94562   0.156  10.025   3.023
64222SOL    HW194563   0.087  10.088   3.043
64222SOL    HW294564   0.203  10.063   2.949
64223SOL     OW94565   5.158  13.436   4.836
64223SOL    HW194566   5.069  13.446   4.803
64223SOL    HW294567   5.213  13.447   4.758
64224SOL     OW94568  10.681   4.569   0.654
64224SOL    HW194569  10.624   4.644   0.669
64224SOL    HW294570  10.641   4.498   0.705
64225SOL     OW94571   6.248   0.037  14.590
64225SOL    HW194572   6.214  14.832  14.639
64225SOL    HW294573   6.235   0.014  14.498
64226SOL     OW94574   2.092   1.044   5.430
64226SOL    HW194575   2.086   1.081   5.342
64226SOL    HW294576   2.134   0.959   5.418
64227SOL     OW94577  11.353  13.708  10.588
64227SOL    HW194578  11.286  13.704  10.655
64227SOL    HW294579  11.423  13.760  10.627
64228SOL     OW94580  12.249   4.439  13.468
64228SOL    HW194581  12.244   4.415  13.376
64228SOL    HW294582  12.343   4.454  13.483
64229SOL     OW94583  14.679  12.398   9.465
64229SOL    HW194584  14.772  12.421   9.475
64229SOL    HW294585  14.651  12.447   9.388
64230SOL     OW94586   7.560   6.310   0.568
64230SOL    HW194587   7.654   6.315   0.556
64230SOL    HW294588   7.532   6.401   0.581
64231SOL     OW94589   1.923   9.695  10.985
64231SOL    HW194590   1.930   9.735  11.072
64231SOL    HW294591   1.832   9.709  10.959
64232SOL     OW94592   1.672  14.669  10.214
64232SOL    HW194593   1.739  14.668  10.146
64232SOL    HW294594   1.721  14.683  10.295
64233SOL     OW94595   3.480   2.063   6.093
64233SOL    HW194596   3.491   2.034   6.183
64233SOL    HW294597   3.557   2.118   6.076
64234SOL     OW94598   7.571   8.307  13.220
64234SOL    HW194599   7.530   8.222  13.234
64234SOL    HW294600   7.500   8.366  13.196
64235SOL     OW94601  12.143   5.296  10.879
64235SOL    HW194602  12.219   5.272  10.933
64235SOL    HW294603  12.141   5.391  10.882
64236SOL     OW94604   1.196   9.025  11.234
64236SOL    HW194605   1.223   8.939  11.201
64236SOL    HW294606   1.261   9.046  11.301
64237SOL     OW94607   6.029  12.877   7.062
64237SOL    HW194608   6.075  12.930   6.997
64237SOL    HW294609   5.995  12.802   7.012
64238SOL     OW94610   4.519  10.037   9.363
64238SOL    HW194611   4.428  10.009   9.378
64238SOL    HW294612   4.512  10.128   9.334
64239SOL     OW94613   2.314   3.700   8.166
64239SOL    HW194614   2.391   3.737   8.207
64239SOL    HW294615   2.289   3.627   8.222
64240SOL     OW94616  13.392   0.662  10.873
64240SOL    HW194617  13.397   0.709  10.789
64240SOL    HW294618  13.299   0.649  10.887
64241SOL     OW94619  10.332  13.410   0.641
64241SOL    HW194620  10.287  13.335   0.680
64241SOL    HW294621  10.381  13.449   0.714
64242SOL     OW94622   4.906  10.351   3.936
64242SOL    HW194623   4.926  10.271   3.984
64242SOL    HW294624   4.827  10.331   3.887
64243SOL     OW94625  13.918   6.066  11.923
64243SOL    HW194626  13.946   6.009  11.994
64243SOL    HW294627  13.823   6.053  11.918
64244SOL     OW94628   3.773   9.963  12.668
64244SOL    HW194629   3.786  10.051  12.704
64244SOL    HW294630   3.848   9.913  12.699
64245SOL     OW94631   8.207   6.836   4.834
64245SOL    HW194632   8.282   6.856   4.778
64245SOL    HW294633   8.137   6.812   4.773
64246SOL     OW94634   2.798  11.190   7.299
64246SOL    HW194635   2.831  11.187   7.209
64246SOL    HW294636   2.814  11.280   7.327
64247SOL     OW94637   9.801  10.355   4.520
64247SOL    HW194638   9.758  10.396   4.595
64247SOL    HW294639   9.845  10.278   4.557
64248SOL     OW94640  11.724   8.605   6.155
64248SOL    HW194641  11.814   8.583   6.177
64248SOL    HW294642  11.728   8.692   6.116
64249SOL     OW94643   7.184  11.590  14.126
64249SOL    HW194644   7.268  11.549  14.145
64249SOL    HW294645   7.200  11.684  14.133
64250SOL     OW94646   8.930   0.557  14.303
64250SOL    HW194647   8.896   0.469  14.316
64250SOL    HW294648   8.955   0.587  14.391
64251SOL     OW94649   5.090  13.119  10.949
64251SOL    HW194650   5.089  13.096  11.042
64251SOL    HW294651   5.122  13.040  10.905
64252SOL     OW94652   2.742   7.296  10.752
64252SOL    HW194653   2.800   7.371  10.738
64252SOL    HW294654   2.767   7.263  10.839
64253SOL     OW94655   1.864  12.381  12.439
64253SOL    HW194656   1.913  12.463  12.443
64253SOL    HW294657   1.881  12.339  12.524
64254SOL     OW94658   7.132   4.128   5.920
64254SOL    HW194659   7.070   4.191   5.958
64254SOL    HW294660   7.201   4.120   5.985
64255SOL     OW94661   4.409   4.791   9.129
64255SOL    HW194662   4.414   4.818   9.038
64255SOL    HW294663   4.327   4.829   9.161
64256SOL     OW94664   2.818  11.913   2.672
64256SOL    HW194665   2.818  11.980   2.603
64256SOL    HW294666   2.730  11.915   2.707
64257SOL     OW94667   9.041   8.483   9.574
64257SOL    HW194668   9.079   8.543   9.637
64257SOL    HW294669   8.950   8.473   9.602
64258SOL     OW94670   8.363   4.116   1.301
64258SOL    HW194671   8.324   4.044   1.351
64258SOL    HW294672   8.345   4.095   1.210
64259SOL     OW94673   1.454  10.530   1.466
64259SOL    HW194674   1.484  10.487   1.546
64259SOL    HW294675   1.519  10.597   1.449
64260SOL     OW94676   4.958   2.487   7.738
64260SOL    HW194677   4.865   2.465   7.735
64260SOL    HW294678   4.999   2.425   7.678
64261SOL     OW94679   6.764   8.538   6.044
64261SOL    HW194680   6.791   8.514   5.955
64261SOL    HW294681   6.695   8.603   6.031
64262SOL     OW94682   5.659   1.838   3.666
64262SOL    HW194683   5.732   1.786   3.632
64262SOL    HW294684   5.595   1.839   3.595
64263SOL     OW94685  12.689  14.428  11.741
64263SOL    HW194686  12.596  14.406  11.735
64263SOL    HW294687  12.696  14.517  11.706
64264SOL     OW94688  14.225  12.852  14.077
64264SOL    HW194689  14.315  12.883  14.078
64264SOL    HW294690  14.172  12.930  14.093
64265SOL     OW94691  11.930   3.502   9.613
64265SOL    HW194692  11.939   3.575   9.675
64265SOL    HW294693  12.020   3.469   9.603
64266SOL     OW94694   9.481   0.772   5.186
64266SOL    HW194695   9.411   0.812   5.135
64266SOL    HW294696   9.481   0.680   5.161
64267SOL     OW94697   9.544   2.446   2.182
64267SOL    HW194698   9.624   2.400   2.208
64267SOL    HW294699   9.519   2.405   2.099
64268SOL     OW94700  12.358   9.654   5.913
64268SOL    HW194701  12.293   9.704   5.864
64268SOL    HW294702  12.347   9.684   6.004
64269SOL     OW94703  14.734   4.432   9.397
64269SOL    HW194704  14.693   4.351   9.427
64269SOL    HW294705  14.747   4.419   9.303
64270SOL     OW94706  11.127  13.205  12.293
64270SOL    HW194707  11.176  13.137  12.247
64270SOL    HW294708  11.040  13.204  12.253
64271SOL     OW94709  12.178  11.737   7.000
64271SOL    HW194710  12.181  11.812   7.059
64271SOL    HW294711  12.175  11.776   6.912
64272SOL     OW94712   0.683  11.214   7.816
64272SOL    HW194713   0.762  11.268   7.810
64272SOL    HW294714   0.704  11.148   7.882
64273SOL     OW94715   3.546   0.052   7.783
64273SOL    HW194716   3.521   0.080   7.695
64273SOL    HW294717   3.633   0.015   7.774
64274SOL     OW94718   0.184  12.156  14.342
64274SOL    HW194719   0.097  12.167  14.379
64274SOL    HW294720   0.242  12.152  14.418
64275SOL     OW94721   0.567   5.445  14.582
64275SOL    HW194722   0.479   5.461  14.548
64275SOL    HW294723   0.589   5.525  14.630
64276SOL     OW94724   6.326   1.549   5.232
64276SOL    HW194725   6.398   1.607   5.207
64276SOL    HW294726   6.368   1.477   5.278
64277SOL     OW94727   9.779  12.757  13.216
64277SOL    HW194728   9.850  12.699  13.187
64277SOL    HW294729   9.715  12.753  13.145
64278SOL     OW94730   1.865   2.237  14.594
64278SOL    HW194731   1.942   2.243  14.651
64278SOL    HW294732   1.791   2.240  14.654
64279SOL     OW94733   3.056   4.996   9.840
64279SOL    HW194734   2.971   4.969   9.875
64279SOL    HW294735   3.057   4.963   9.750
64280SOL     OW94736   9.974  13.601   6.280
64280SOL    HW194737  10.017  13.600   6.194
64280SOL    HW294738  10.045  13.592   6.343
64281SOL     OW94739  11.514   3.627  12.597
64281SOL    HW194740  11.424   3.603  12.619
64281SOL    HW294741  11.568   3.556  12.632
64282SOL     OW94742   7.229   7.537   1.706
64282SOL    HW194743   7.294   7.486   1.754
64282SOL    HW294744   7.153   7.479   1.700
64283SOL     OW94745   8.508  11.000  12.060
64283SOL    HW194746   8.572  10.945  12.015
64283SOL    HW294747   8.464  11.047  11.990
64284SOL     OW94748   1.844   3.710   7.871
64284SOL    HW194749   1.799   3.651   7.810
64284SOL    HW294750   1.885   3.776   7.816
64285SOL     OW94751   2.556   9.437   5.928
64285SOL    HW194752   2.590   9.380   5.858
64285SOL    HW294753   2.608   9.414   6.004
64286SOL     OW94754   4.406  13.223   5.237
64286SOL    HW194755   4.317  13.221   5.274
64286SOL    HW294756   4.392  13.238   5.144
64287SOL     OW94757   3.485   2.009  12.711
64287SOL    HW194758   3.493   2.035  12.803
64287SOL    HW294759   3.447   2.085  12.668
64288SOL     OW94760   4.385   6.439   1.082
64288SOL    HW194761   4.299   6.460   1.117
64288SOL    HW294762   4.368   6.404   0.995
64289SOL     OW94763   6.422   3.883   9.551
64289SOL    HW194764   6.359   3.952   9.530
64289SOL    HW294765   6.430   3.833   9.470
64290SOL     OW94766   6.441   9.213   4.440
64290SOL    HW194767   6.359   9.208   4.490
64290SOL    HW294768   6.506   9.176   4.499
64291SOL     OW94769  10.686   2.166  11.228
64291SOL    HW194770  10.700   2.181  11.135
64291SOL    HW294771  10.637   2.243  11.257
64292SOL     OW94772  12.128   8.206   6.484
64292SOL    HW194773  12.125   8.180   6.576
64292SOL    HW294774  12.055   8.158   6.444
64293SOL     OW94775  13.701   2.017   2.340
64293SOL    HW194776  13.706   2.071   2.419
64293SOL    HW294777  13.608   2.017   2.317
64294SOL     OW94778  13.776  13.397   4.829
64294SOL    HW194779  13.838  13.341   4.782
64294SOL    HW294780  13.801  13.486   4.804
64295SOL     OW94781  10.859   5.706   6.801
64295SOL    HW194782  10.923   5.754   6.853
64295SOL    HW294783  10.781   5.761   6.802
64296SOL     OW94784  10.347   9.495   6.495
64296SOL    HW194785  10.267   9.537   6.463
64296SOL    HW294786  10.323   9.463   6.582
64297SOL     OW94787   3.796   4.814   6.567
64297SOL    HW194788   3.762   4.776   6.648
64297SOL    HW294789   3.769   4.753   6.498
64298SOL     OW94790   7.849   2.356   1.031
64298SOL    HW194791   7.902   2.435   1.041
64298SOL    HW294792   7.911   2.288   1.006
64299SOL     OW94793   2.399   9.372  11.602
64299SOL    HW194794   2.483   9.415  11.581
64299SOL    HW294795   2.345   9.386  11.524
64300SOL     OW94796   1.809   5.707   1.817
64300SOL    HW194797   1.894   5.718   1.859
64300SOL    HW294798   1.829   5.672   1.730
64301SOL     OW94799   0.241   0.278  14.396
64301SOL    HW194800   0.153   0.300  14.365
64301SOL    HW294801   0.269   0.355  14.446
64302SOL     OW94802   6.250   6.672  12.993
64302SOL    HW194803   6.281   6.594  13.039
64302SOL    HW294804   6.162   6.648  12.962
64303SOL     OW94805   7.561   6.663  13.240
64303SOL    HW194806   7.617   6.671  13.317
64303SOL    HW294807   7.580   6.741  13.188
64304SOL     OW94808   7.737  14.739   0.589
64304SOL    HW194809   7.784  14.747   0.506
64304SOL    HW294810   7.690  14.656   0.581
64305SOL     OW94811   6.685  13.950  14.099
64305SOL    HW194812   6.640  13.866  14.100
64305SOL    HW294813   6.705  13.966  14.007
64306SOL     OW94814   0.719  12.861   8.399
64306SOL    HW194815   0.757  12.943   8.370
64306SOL    HW294816   0.758  12.846   8.485
64307SOL     OW94817   3.259  14.845   8.876
64307SOL    HW194818   3.323   0.009   8.940
64307SOL    HW294819   3.294   0.003   8.791
64308SOL     OW94820   7.633   2.514  13.449
64308SOL    HW194821   7.660   2.599  13.485
64308SOL    HW294822   7.688   2.504  13.371
64309SOL     OW94823  14.299  14.161  13.241
64309SOL    HW194824  14.369  14.102  13.270
64309SOL    HW294825  14.345  14.228  13.190
64310SOL     OW94826   0.536   3.057   8.596
64310SOL    HW194827   0.629   3.059   8.574
64310SOL    HW294828   0.528   3.115   8.673
64311SOL     OW94829  13.369   3.261   3.230
64311SOL    HW194830  13.367   3.165   3.234
64311SOL    HW294831  13.295   3.289   3.284
64312SOL     OW94832   8.924   1.991   3.066
64312SOL    HW194833   8.944   2.027   3.152
64312SOL    HW294834   8.889   2.065   3.016
64313SOL     OW94835  10.565   4.386   3.516
64313SOL    HW194836  10.576   4.385   3.421
64313SOL    HW294837  10.480   4.427   3.529
64314SOL     OW94838   6.539   6.102   1.532
64314SOL    HW194839   6.568   6.128   1.445
64314SOL    HW294840   6.619   6.070   1.575
64315SOL     OW94841   5.787  10.180   7.438
64315SOL    HW194842   5.798  10.089   7.464
64315SOL    HW294843   5.735  10.177   7.358
64316SOL     OW94844   9.683   2.460   7.352
64316SOL    HW194845   9.644   2.435   7.436
64316SOL    HW294846   9.646   2.399   7.289
64317SOL     OW94847   4.669  13.256   0.375
64317SOL    HW194848   4.626  13.341   0.387
64317SOL    HW294849   4.660  13.213   0.460
64318SOL     OW94850   5.926  13.526  13.898
64318SOL    HW194851   5.924  13.616  13.865
64318SOL    HW294852   5.834  13.508  13.921
64319SOL     OW94853  12.511   3.703   8.660
64319SOL    HW194854  12.418   3.692   8.640
64319SOL    HW294855  12.543   3.765   8.594
64320SOL     OW94856   0.576  13.387  11.018
64320SOL    HW194857   0.527  13.385  11.100
64320SOL    HW294858   0.563  13.301  10.980
64321SOL     OW94859   1.214   4.818   5.415
64321SOL    HW194860   1.190   4.889   5.475
64321SOL    HW294861   1.309   4.819   5.415
64322SOL     OW94862  13.745  13.294   7.929
64322SOL    HW194863  13.837  13.316   7.945
64322SOL    HW294864  13.733  13.305   7.835
64323SOL     OW94865   2.879   0.062  11.504
64323SOL    HW194866   2.786   0.041  11.517
64323SOL    HW294867   2.924  14.848  11.513
64324SOL     OW94868   0.691   1.888  12.207
64324SOL    HW194869   0.680   1.813  12.148
64324SOL    HW294870   0.767   1.934  12.173
64325SOL     OW94871  11.531   6.395  13.558
64325SOL    HW194872  11.478   6.357  13.488
64325SOL    HW294873  11.610   6.427  13.515
64326SOL     OW94874  12.142  12.314  14.027
64326SOL    HW194875  12.174  12.335  13.940
64326SOL    HW294876  12.058  12.270  14.012
64327SOL     OW94877   3.682   2.083   9.059
64327SOL    HW194878   3.770   2.057   9.034
64327SOL    HW294879   3.666   2.038   9.142
64328SOL     OW94880  10.583   7.343  11.767
64328SOL    HW194881  10.602   7.292  11.846
64328SOL    HW294882  10.510   7.297  11.725
64329SOL     OW94883   1.560   8.109  10.872
64329SOL    HW194884   1.465   8.099  10.877
64329SOL    HW294885   1.595   8.025  10.903
64330SOL     OW94886   3.060   5.037   5.607
64330SOL    HW194887   3.017   5.117   5.637
64330SOL    HW294888   3.009   4.967   5.646
64331SOL     OW94889   1.984  12.118   1.440
64331SOL    HW194890   1.995  12.068   1.522
64331SOL    HW294891   1.889  12.122   1.427
64332SOL     OW94892   0.354  12.016  12.608
64332SOL    HW194893   0.350  11.957  12.684
64332SOL    HW294894   0.278  12.073  12.619
64333SOL     OW94895  14.431   4.090  12.656
64333SOL    HW194896  14.516   4.059  12.685
64333SOL    HW294897  14.377   4.093  12.735
64334SOL     OW94898   5.593   3.430  10.942
64334SOL    HW194899   5.504   3.398  10.934
64334SOL    HW294900   5.608   3.439  11.037
64335SOL     OW94901   9.849  13.650   8.404
64335SOL    HW194902   9.917  13.588   8.379
64335SOL    HW294903   9.881  13.689   8.485
64336SOL     OW94904   4.255  14.435  13.598
64336SOL    HW194905   4.212  14.398  13.521
64336SOL    HW294906   4.183  14.451  13.659
64337SOL     OW94907   4.025   8.774  11.342
64337SOL    HW194908   3.945   8.775  11.396
64337SOL    HW294909   4.094   8.749  11.403
64338SOL     OW94910   4.831  14.013   4.212
64338SOL    HW194911   4.757  14.065   4.182
64338SOL    HW294912   4.908  14.058   4.177
64339SOL     OW94913   0.112   5.911  12.487
64339SOL    HW194914   0.193   5.963  12.489
64339SOL    HW294915   0.042   5.976  12.495
64340SOL     OW94916   7.492  11.759  14.588
64340SOL    HW194917   7.553  11.777  14.516
64340SOL    HW294918   7.548  11.728  14.659
64341SOL     OW94919   1.786   8.231  11.091
64341SOL    HW194920   1.778   8.222  11.186
64341SOL    HW294921   1.779   8.141  11.058
64342SOL     OW94922   8.284   3.489   1.086
64342SOL    HW194923   8.294   3.465   0.993
64342SOL    HW294924   8.227   3.421   1.122
64343SOL     OW94925   9.406   7.995   9.654
64343SOL    HW194926   9.451   8.074   9.624
64343SOL    HW294927   9.346   7.973   9.583
64344SOL     OW94928   3.068   0.236  13.911
64344SOL    HW194929   3.097   0.152  13.946
64344SOL    HW294930   3.001   0.266  13.972
64345SOL     OW94931  14.604   3.679   3.408
64345SOL    HW194932  14.541   3.738   3.447
64345SOL    HW294933  14.625   3.616   3.477
64346SOL     OW94934   5.203   2.690   8.763
64346SOL    HW194935   5.129   2.683   8.824
64346SOL    HW294936   5.272   2.638   8.803
64347SOL     OW94937   5.099   7.435   9.274
64347SOL    HW194938   5.027   7.476   9.322
64347SOL    HW294939   5.057   7.365   9.224
64348SOL     OW94940   4.042   2.279   3.195
64348SOL    HW194941   4.127   2.250   3.227
64348SOL    HW294942   4.042   2.373   3.208
64349SOL     OW94943   1.432  11.599  14.222
64349SOL    HW194944   1.396  11.676  14.266
64349SOL    HW294945   1.360  11.536  14.220
64350SOL     OW94946  11.202  11.992   7.423
64350SOL    HW194947  11.270  12.059   7.429
64350SOL    HW294948  11.120  12.041   7.421
64351SOL     OW94949   0.431   6.435   4.311
64351SOL    HW194950   0.417   6.513   4.256
64351SOL    HW294951   0.474   6.469   4.390
64352SOL     OW94952  13.670   9.330  13.795
64352SOL    HW194953  13.703   9.274  13.724
64352SOL    HW294954  13.589   9.288  13.822
64353SOL     OW94955  11.905   2.633   4.872
64353SOL    HW194956  11.828   2.576   4.873
64353SOL    HW294957  11.961   2.599   4.942
64354SOL     OW94958   3.500  10.769   1.500
64354SOL    HW194959   3.513  10.841   1.562
64354SOL    HW294960   3.514  10.690   1.553
64355SOL     OW94961   9.117  13.801   8.393
64355SOL    HW194962   9.069  13.877   8.426
64355SOL    HW294963   9.064  13.769   8.320
64356SOL     OW94964  10.908   9.761   3.040
64356SOL    HW194965  10.865   9.726   3.118
64356SOL    HW294966  10.996   9.785   3.070
64357SOL     OW94967  10.424   9.319  13.063
64357SOL    HW194968  10.374   9.391  13.100
64357SOL    HW294969  10.358   9.259  13.029
64358SOL     OW94970   9.829  13.949  10.590
64358SOL    HW194971   9.840  13.875  10.649
64358SOL    HW294972   9.896  13.937  10.524
64359SOL     OW94973  10.177   8.552  14.817
64359SOL    HW194974  10.132   8.533  14.735
64359SOL    HW294975  10.111   8.533   0.015
64360SOL     OW94976   8.153   3.181   8.335
64360SOL    HW194977   8.095   3.201   8.262
64360SOL    HW294978   8.233   3.230   8.317
64361SOL     OW94979  13.711  11.131  11.979
64361SOL    HW194980  13.744  11.044  11.957
64361SOL    HW294981  13.650  11.152  11.909
64362SOL     OW94982   0.545  12.753  10.893
64362SOL    HW194983   0.458  12.715  10.907
64362SOL    HW294984   0.550  12.826  10.956
64363SOL     OW94985   8.805   1.313   8.653
64363SOL    HW194986   8.891   1.321   8.611
64363SOL    HW294987   8.765   1.238   8.609
64364SOL     OW94988   0.553   3.095  12.361
64364SOL    HW194989   0.554   3.180  12.404
64364SOL    HW294990   0.500   3.108  12.282
64365SOL     OW94991   1.495   3.516   0.035
64365SOL    HW194992   1.481   3.532  14.811
64365SOL    HW294993   1.541   3.594   0.066
64366SOL     OW94994   1.337   3.813  14.832
64366SOL    HW194995   1.408   3.824   0.026
64366SOL    HW294996   1.371   3.750  14.768
64367SOL     OW94997   9.607  11.050   0.879
64367SOL    HW194998   9.550  11.085   0.811
64367SOL    HW294999   9.636  10.965   0.846
64368SOL     OW95000   9.914  11.884   8.381
64368SOL    HW195001   9.886  11.828   8.452
64368SOL    HW295002   9.833  11.907   8.335
64369SOL     OW95003   4.821  12.824   8.427
64369SOL    HW195004   4.856  12.876   8.499
64369SOL    HW295005   4.772  12.754   8.470
64370SOL     OW95006  13.725   0.510   0.479
64370SOL    HW195007  13.807   0.472   0.447
64370SOL    HW295008  13.657   0.455   0.441
64371SOL     OW95009  13.216   1.302   4.629
64371SOL    HW195010  13.277   1.376   4.632
64371SOL    HW295011  13.141   1.330   4.680
64372SOL     OW95012  12.440   8.237   7.397
64372SOL    HW195013  12.512   8.257   7.337
64372SOL    HW295014  12.422   8.320   7.441
64373SOL     OW95015   8.717  10.385  11.266
64373SOL    HW195016   8.750  10.401  11.354
64373SOL    HW295017   8.760  10.450  11.212
64374SOL     OW95018   3.683   4.353   8.896
64374SOL    HW195019   3.688   4.399   8.980
64374SOL    HW295020   3.768   4.370   8.855
64375SOL     OW95021   1.464   1.538  13.717
64375SOL    HW195022   1.488   1.605  13.780
64375SOL    HW295023   1.546   1.493  13.697
64376SOL     OW95024  14.694  11.612  13.197
64376SOL    HW195025  14.640  11.616  13.118
64376SOL    HW295026  14.635  11.576  13.264
64377SOL     OW95027  10.661   3.264  14.720
64377SOL    HW195028  10.708   3.348  14.725
64377SOL    HW295029  10.694   3.223  14.640
64378SOL     OW95030  13.413   4.847   9.367
64378SOL    HW195031  13.332   4.861   9.317
64378SOL    HW295032  13.474   4.810   9.303
64379SOL     OW95033   1.374   0.708   3.687
64379SOL    HW195034   1.446   0.645   3.677
64379SOL    HW295035   1.349   0.730   3.598
64380SOL     OW95036   4.062  11.860  11.603
64380SOL    HW195037   4.054  11.779  11.552
64380SOL    HW295038   3.977  11.903  11.594
64381SOL     OW95039   2.850   5.385   1.664
64381SOL    HW195040   2.850   5.480   1.656
64381SOL    HW295041   2.770   5.357   1.619
64382SOL     OW95042   9.388   5.429   1.686
64382SOL    HW195043   9.311   5.455   1.736
64382SOL    HW295044   9.420   5.510   1.647
64383SOL     OW95045   5.641   2.280   6.416
64383SOL    HW195046   5.655   2.267   6.510
64383SOL    HW295047   5.546   2.268   6.405
64384SOL     OW95048   9.036  13.266  12.232
64384SOL    HW195049   8.968  13.252  12.166
64384SOL    HW295050   9.098  13.326  12.191
64385SOL     OW95051  10.391   8.270   3.730
64385SOL    HW195052  10.378   8.194   3.673
64385SOL    HW295053  10.353   8.343   3.681
64386SOL     OW95054   9.601   7.120  10.323
64386SOL    HW195055   9.576   7.203  10.283
64386SOL    HW295056   9.670   7.144  10.386
64387SOL     OW95057   3.372  11.831   4.547
64387SOL    HW195058   3.325  11.801   4.469
64387SOL    HW295059   3.304  11.865   4.605
64388SOL     OW95060   3.298   8.180   6.191
64388SOL    HW195061   3.282   8.138   6.106
64388SOL    HW295062   3.333   8.266   6.170
64389SOL     OW95063   9.172   4.473  14.357
64389SOL    HW195064   9.165   4.471  14.262
64389SOL    HW295065   9.243   4.412  14.377
64390SOL     OW95066   5.170   0.421  10.848
64390SOL    HW195067   5.168   0.450  10.940
64390SOL    HW295068   5.126   0.336  10.849
64391SOL     OW95069   6.185   0.266   7.120
64391SOL    HW195070   6.269   0.232   7.152
64391SOL    HW295071   6.126   0.259   7.196
64392SOL     OW95072   3.144   6.498   4.503
64392SOL    HW195073   3.230   6.464   4.527
64392SOL    HW295074   3.118   6.447   4.426
64393SOL     OW95075   0.330  13.266   2.042
64393SOL    HW195076   0.420  13.287   2.068
64393SOL    HW295077   0.340  13.203   1.971
64394SOL     OW95078  14.312   7.625   6.882
64394SOL    HW195079  14.334   7.668   6.965
64394SOL    HW295080  14.351   7.538   6.889
64395SOL     OW95081  13.235   0.965   0.576
64395SOL    HW195082  13.170   1.017   0.622
64395SOL    HW295083  13.247   1.008   0.491
64396SOL     OW95084  11.179  12.529   1.759
64396SOL    HW195085  11.173  12.509   1.852
64396SOL    HW295086  11.245  12.598   1.754
64397SOL     OW95087   2.866  11.664   4.926
64397SOL    HW195088   2.824  11.731   4.873
64397SOL    HW295089   2.873  11.703   5.014
64398SOL     OW95090  10.857   8.062   6.733
64398SOL    HW195091  10.914   7.990   6.705
64398SOL    HW295092  10.813   8.029   6.811
64399SOL     OW95093   4.833   5.520   6.911
64399SOL    HW195094   4.912   5.566   6.881
64399SOL    HW295095   4.774   5.522   6.835
64400SOL     OW95096   5.256   6.743   2.785
64400SOL    HW195097   5.251   6.837   2.768
64400SOL    HW295098   5.239   6.702   2.700
64401SOL     OW95099   7.484   5.294   7.692
64401SOL    HW195100   7.472   5.267   7.783
64401SOL    HW295101   7.527   5.380   7.698
64402SOL     OW95102   6.929   0.369   3.730
64402SOL    HW195103   7.000   0.306   3.745
64402SOL    HW295104   6.850   0.322   3.755
64403SOL     OW95105   3.169   7.984   2.979
64403SOL    HW195106   3.232   7.992   2.908
64403SOL    HW295107   3.087   8.015   2.941
64404SOL     OW95108  10.470   7.554   9.494
64404SOL    HW195109  10.442   7.538   9.584
64404SOL    HW295110  10.563   7.573   9.501
64405SOL     OW95111  14.178   5.465   9.526
64405SOL    HW195112  14.103   5.451   9.584
64405SOL    HW295113  14.232   5.529   9.572
64406SOL     OW95114   5.149   5.629   2.951
64406SOL    HW195115   5.142   5.721   2.974
64406SOL    HW295116   5.153   5.583   3.034
64407SOL     OW95117   0.314  12.183  14.604
64407SOL    HW195118   0.381  12.210  14.668
64407SOL    HW295119   0.250  12.254  14.606
64408SOL     OW95120   2.749   8.371  10.528
64408SOL    HW195121   2.659   8.384  10.556
64408SOL    HW295122   2.794   8.451  10.555
64409SOL     OW95123  11.308  14.847   2.758
64409SOL    HW195124  11.343   0.065   2.772
64409SOL    HW295125  11.279  14.818   2.845
64410SOL     OW95126  12.635   8.133   5.289
64410SOL    HW195127  12.640   8.075   5.213
64410SOL    HW295128  12.631   8.221   5.252
64411SOL     OW95129   7.058  13.979   1.438
64411SOL    HW195130   6.981  14.033   1.422
64411SOL    HW295131   7.022  13.891   1.454
64412SOL     OW95132  12.339  10.129   8.476
64412SOL    HW195133  12.362  10.127   8.569
64412SOL    HW295134  12.310  10.040   8.456
64413SOL     OW95135  11.916   4.840   7.226
64413SOL    HW195136  11.937   4.750   7.202
64413SOL    HW295137  11.844   4.832   7.289
64414SOL     OW95138  11.371  14.358  13.104
64414SOL    HW195139  11.458  14.398  13.092
64414SOL    HW295140  11.372  14.325  13.193
64415SOL     OW95141   8.883   4.949   5.356
64415SOL    HW195142   8.899   4.899   5.436
64415SOL    HW295143   8.789   4.964   5.356
64416SOL     OW95144   3.620   2.050  13.233
64416SOL    HW195145   3.663   2.119  13.284
64416SOL    HW295146   3.595   1.985  13.299
64417SOL     OW95147   9.558  14.521  10.001
64417SOL    HW195148   9.485  14.572  10.038
64417SOL    HW295149   9.633  14.541  10.057
64418SOL     OW95150   9.220  10.498   2.003
64418SOL    HW195151   9.172  10.556   1.944
64418SOL    HW295152   9.153  10.442   2.042
64419SOL     OW95153  12.967   4.295   9.488
64419SOL    HW195154  12.937   4.288   9.579
64419SOL    HW295155  12.928   4.219   9.444
64420SOL     OW95156   0.025  14.492  14.295
64420SOL    HW195157   0.102  14.446  14.261
64420SOL    HW295158   0.019  14.463  14.387
64421SOL     OW95159  12.275  14.858   0.362
64421SOL    HW195160  12.265  14.863   0.457
64421SOL    HW295161  12.286  14.765   0.343
64422SOL     OW95162   7.684   3.359   3.366
64422SOL    HW195163   7.706   3.358   3.273
64422SOL    HW295164   7.751   3.414   3.407
64423SOL     OW95165   1.112  13.218   6.727
64423SOL    HW195166   1.141  13.303   6.693
64423SOL    HW295167   1.193  13.171   6.746
64424SOL     OW95168   3.021  13.720   7.816
64424SOL    HW195169   2.932  13.743   7.789
64424SOL    HW295170   3.076  13.785   7.773
64425SOL     OW95171  13.204   3.899   3.969
64425SOL    HW195172  13.155   3.864   3.894
64425SOL    HW295173  13.284   3.847   3.971
64426SOL     OW95174   8.153   6.382   9.277
64426SOL    HW195175   8.234   6.385   9.225
64426SOL    HW295176   8.181   6.348   9.362
64427SOL     OW95177  11.364   3.866  11.430
64427SOL    HW195178  11.309   3.829  11.499
64427SOL    HW295179  11.409   3.939  11.472
64428SOL     OW95180   6.711   3.868   7.568
64428SOL    HW195181   6.722   3.903   7.479
64428SOL    HW295182   6.754   3.932   7.624
64429SOL     OW95183  12.752  10.771   6.331
64429SOL    HW195184  12.724  10.696   6.384
64429SOL    HW295185  12.672  10.817   6.309
64430SOL     OW95186   0.144  12.844   2.910
64430SOL    HW195187   0.233  12.859   2.943
64430SOL    HW295188   0.122  12.925   2.864
64431SOL     OW95189   6.698   3.607  12.836
64431SOL    HW195190   6.695   3.596  12.741
64431SOL    HW295191   6.735   3.695  12.849
64432SOL     OW95192   1.562  12.720  13.562
64432SOL    HW195193   1.588  12.772  13.486
64432SOL    HW295194   1.496  12.659  13.529
64433SOL     OW95195   6.418   5.108  11.022
64433SOL    HW195196   6.481   5.068  11.083
64433SOL    HW295197   6.346   5.045  11.018
64434SOL     OW95198   4.106   4.190   4.625
64434SOL    HW195199   4.027   4.239   4.605
64434SOL    HW295200   4.136   4.224   4.709
64435SOL     OW95201   9.234  10.164   7.948
64435SOL    HW195202   9.247  10.121   7.863
64435SOL    HW295203   9.273  10.103   8.012
64436SOL     OW95204   3.440   0.792   3.868
64436SOL    HW195205   3.474   0.703   3.858
64436SOL    HW295206   3.453   0.832   3.782
64437SOL     OW95207   0.478   9.374   1.112
64437SOL    HW195208   0.573   9.371   1.106
64437SOL    HW295209   0.455   9.464   1.087
64438SOL     OW95210   4.487   7.103  11.944
64438SOL    HW195211   4.546   7.123  11.871
64438SOL    HW295212   4.537   7.042  11.999
64439SOL     OW95213   9.583   1.410   1.321
64439SOL    HW195214   9.510   1.396   1.381
64439SOL    HW295215   9.544   1.453   1.245
64440SOL     OW95216   3.159  10.476   6.544
64440SOL    HW195217   3.150  10.470   6.639
64440SOL    HW295218   3.253  10.473   6.528
64441SOL     OW95219   5.233   7.734   1.662
64441SOL    HW195220   5.235   7.690   1.577
64441SOL    HW295221   5.183   7.675   1.718
64442SOL     OW95222   9.387   8.786   4.507
64442SOL    HW195223   9.467   8.832   4.532
64442SOL    HW295224   9.415   8.725   4.439
64443SOL     OW95225  11.010  11.488   1.752
64443SOL    HW195226  11.070  11.414   1.757
64443SOL    HW295227  11.029  11.529   1.668
64444SOL     OW95228   5.211   9.696   7.534
64444SOL    HW195229   5.157   9.736   7.466
64444SOL    HW295230   5.181   9.605   7.538
64445SOL     OW95231   0.752  12.949   6.235
64445SOL    HW195232   0.660  12.962   6.257
64445SOL    HW295233   0.798  13.016   6.285
64446SOL     OW95234   3.827  14.107   7.077
64446SOL    HW195235   3.776  14.184   7.054
64446SOL    HW295236   3.918  14.133   7.066
64447SOL     OW95237  12.133   4.333  12.931
64447SOL    HW195238  12.038   4.339  12.943
64447SOL    HW295239  12.145   4.326  12.837
64448SOL     OW95240   7.955   9.773   9.902
64448SOL    HW195241   7.996   9.747   9.819
64448SOL    HW295242   7.866   9.739   9.896
64449SOL     OW95243  11.670  11.914  11.637
64449SOL    HW195244  11.697  11.825  11.659
64449SOL    HW295245  11.691  11.966  11.714
64450SOL     OW95246   2.125  13.072  14.806
64450SOL    HW195247   2.203  13.042  14.759
64450SOL    HW295248   2.069  12.994  14.811
64451SOL     OW95249   6.624   0.372   7.981
64451SOL    HW195250   6.637   0.281   8.008
64451SOL    HW295251   6.669   0.378   7.897
64452SOL     OW95252  14.765  13.256   0.586
64452SOL    HW195253  14.844  13.295   0.550
64452SOL    HW295254  14.704  13.329   0.594
64453SOL     OW95255   3.841   1.915  12.194
64453SOL    HW195256   3.927   1.938  12.159
64453SOL    HW295257   3.779   1.949  12.130
64454SOL     OW95258  11.808  10.430  10.609
64454SOL    HW195259  11.757  10.365  10.561
64454SOL    HW295260  11.891  10.435  10.562
64455SOL     OW95261   6.862   8.973   8.807
64455SOL    HW195262   6.910   8.915   8.749
64455SOL    HW295263   6.906   9.058   8.798
64456SOL     OW95264  14.224  10.500  10.666
64456SOL    HW195265  14.149  10.478  10.611
64456SOL    HW295266  14.237  10.594  10.651
64457SOL     OW95267   7.763   0.660   7.758
64457SOL    HW195268   7.747   0.671   7.852
64457SOL    HW295269   7.762   0.565   7.745
64458SOL     OW95270   3.359   2.439  11.976
64458SOL    HW195271   3.343   2.345  11.968
64458SOL    HW295272   3.275   2.475  12.006
64459SOL     OW95273   0.068  12.046  10.291
64459SOL    HW195274   0.099  12.121  10.340
64459SOL    HW295275   0.148  12.004  10.258
64460SOL     OW95276  12.639   3.998   6.766
64460SOL    HW195277  12.581   4.073   6.780
64460SOL    HW295278  12.670   4.008   6.676
64461SOL     OW95279   4.831   4.278   3.978
64461SOL    HW195280   4.865   4.265   3.890
64461SOL    HW295281   4.840   4.372   3.994
64462SOL     OW95282  11.003   5.340   7.362
64462SOL    HW195283  10.929   5.378   7.314
64462SOL    HW295284  11.067   5.319   7.295
64463SOL     OW95285   5.536  11.239   2.703
64463SOL    HW195286   5.603  11.197   2.756
64463SOL    HW295287   5.463  11.177   2.704
64464SOL     OW95288  12.967  10.497   6.329
64464SOL    HW195289  12.963  10.450   6.246
64464SOL    HW295290  12.891  10.555   6.328
64465SOL     OW95291   3.832   7.169  11.277
64465SOL    HW195292   3.800   7.254  11.246
64465SOL    HW295293   3.767   7.107  11.246
64466SOL     OW95294  12.678   8.029   4.978
64466SOL    HW195295  12.685   7.944   4.933
64466SOL    HW295296  12.593   8.063   4.951
64467SOL     OW95297   0.195   6.621   3.629
64467SOL    HW195298   0.290   6.624   3.624
64467SOL    HW295299   0.171   6.543   3.580
64468SOL     OW95300   6.252   9.004   8.229
64468SOL    HW195301   6.169   9.023   8.185
64468SOL    HW295302   6.319   9.042   8.171
64469SOL     OW95303  13.659  13.658  11.323
64469SOL    HW195304  13.726  13.666  11.255
64469SOL    HW295305  13.625  13.569  11.312
64470SOL     OW95306   7.125   0.118   5.393
64470SOL    HW195307   7.120   0.036   5.441
64470SOL    HW295308   7.125   0.092   5.301
64471SOL     OW95309   5.201   2.055  12.554
64471SOL    HW195310   5.201   1.971  12.509
64471SOL    HW295311   5.253   2.112  12.498
64472SOL     OW95312   6.221   0.673   0.914
64472SOL    HW195313   6.249   0.601   0.971
64472SOL    HW295314   6.162   0.633   0.851
64473SOL     OW95315  11.006  12.430  12.599
64473SOL    HW195316  10.930  12.386  12.637
64473SOL    HW295317  10.980  12.522  12.593
64474SOL     OW95318   1.317   4.756   3.034
64474SOL    HW195319   1.338   4.663   3.029
64474SOL    HW295320   1.363   4.787   3.112
64475SOL     OW95321   9.586  14.491   9.514
64475SOL    HW195322   9.515  14.529   9.565
64475SOL    HW295323   9.569  14.519   9.424
64476SOL     OW95324   1.127   9.064   2.299
64476SOL    HW195325   1.069   9.119   2.246
64476SOL    HW295326   1.177   9.013   2.235
64477SOL     OW95327  10.630   1.026   3.662
64477SOL    HW195328  10.692   0.953   3.669
64477SOL    HW295329  10.637   1.071   3.746
64478SOL     OW95330   2.445   5.890   8.741
64478SOL    HW195331   2.446   5.984   8.760
64478SOL    HW295332   2.395   5.852   8.813
64479SOL     OW95333   3.887   6.773  11.292
64479SOL    HW195334   3.970   6.808  11.260
64479SOL    HW295335   3.856   6.837  11.356
64480SOL     OW95336   9.281   7.748  12.070
64480SOL    HW195337   9.277   7.822  12.131
64480SOL    HW295338   9.196   7.705  12.079
64481SOL     OW95339   1.944   2.884   3.028
64481SOL    HW195340   1.891   2.910   3.103
64481SOL    HW295341   2.023   2.845   3.068
64482SOL     OW95342   2.226  10.091   3.878
64482SOL    HW195343   2.215  10.053   3.791
64482SOL    HW295344   2.143  10.072   3.922
64483SOL     OW95345   2.400   8.594   7.532
64483SOL    HW195346   2.408   8.573   7.439
64483SOL    HW295347   2.490   8.601   7.563
64484SOL     OW95348  12.392   9.140  10.519
64484SOL    HW195349  12.482   9.112  10.537
64484SOL    HW295350  12.375   9.209  10.583
64485SOL     OW95351  10.314  13.447   9.793
64485SOL    HW195352  10.401  13.418   9.819
64485SOL    HW295353  10.269  13.466   9.876
64486SOL     OW95354   5.599   2.550  13.660
64486SOL    HW195355   5.520   2.547  13.606
64486SOL    HW295356   5.599   2.638  13.697
64487SOL     OW95357   1.225  11.099   3.857
64487SOL    HW195358   1.302  11.075   3.806
64487SOL    HW295359   1.162  11.030   3.840
64488SOL     OW95360   4.503   8.295   5.599
64488SOL    HW195361   4.593   8.322   5.619
64488SOL    HW295362   4.456   8.308   5.682
64489SOL     OW95363   1.841   5.844   0.514
64489SOL    HW195364   1.858   5.937   0.497
64489SOL    HW295365   1.817   5.808   0.428
64490SOL     OW95366  13.412  13.262  14.869
64490SOL    HW195367  13.353  13.192  14.840
64490SOL    HW295368  13.411  13.257   0.095
64491SOL     OW95369   7.617   7.690  11.304
64491SOL    HW195370   7.555   7.762  11.299
64491SOL    HW295371   7.577   7.628  11.365
64492SOL     OW95372   5.927  14.445   4.261
64492SOL    HW195373   5.856  14.435   4.324
64492SOL    HW295374   5.884  14.463   4.178
64493SOL     OW95375   2.349   8.902  11.016
64493SOL    HW195376   2.402   8.981  11.002
64493SOL    HW295377   2.355   8.854  10.934
64494SOL     OW95378  14.195   4.779   4.702
64494SOL    HW195379  14.212   4.841   4.773
64494SOL    HW295380  14.261   4.711   4.713
64495SOL     OW95381   7.869   4.509  13.436
64495SOL    HW195382   7.909   4.475  13.516
64495SOL    HW295383   7.927   4.579  13.408
64496SOL     OW95384   8.781   3.141   2.538
64496SOL    HW195385   8.758   3.060   2.494
64496SOL    HW295386   8.877   3.140   2.542
64497SOL     OW95387  12.308   5.466  13.259
64497SOL    HW195388  12.232   5.417  13.225
64497SOL    HW295389  12.362   5.483  13.182
64498SOL     OW95390   8.817   8.643   5.982
64498SOL    HW195391   8.732   8.615   5.949
64498SOL    HW295392   8.829   8.731   5.945
64499SOL     OW95393   2.108   2.921  11.751
64499SOL    HW195394   2.150   2.890  11.671
64499SOL    HW295395   2.037   2.977  11.722
64500SOL     OW95396   4.111   3.660   9.865
64500SOL    HW195397   4.081   3.573   9.841
64500SOL    HW295398   4.065   3.679   9.947
64501SOL     OW95399   4.627   6.874   7.401
64501SOL    HW195400   4.667   6.795   7.365
64501SOL    HW295401   4.572   6.907   7.330
64502SOL     OW95402   7.892  14.108   9.829
64502SOL    HW195403   7.927  14.160   9.757
64502SOL    HW295404   7.812  14.154   9.855
64503SOL     OW95405   6.627  11.980   8.518
64503SOL    HW195406   6.560  11.979   8.586
64503SOL    HW295407   6.703  11.938   8.558
64504SOL     OW95408   2.920  11.819   5.150
64504SOL    HW195409   2.919  11.914   5.144
64504SOL    HW295410   2.861  11.799   5.222
64505SOL     OW95411   4.825   4.654   1.468
64505SOL    HW195412   4.817   4.587   1.400
64505SOL    HW295413   4.808   4.607   1.550
64506SOL     OW95414   2.950   2.885  13.406
64506SOL    HW195415   2.964   2.827  13.481
64506SOL    HW295416   3.021   2.865  13.346
64507SOL     OW95417   2.456   5.550   9.422
64507SOL    HW195418   2.467   5.457   9.401
64507SOL    HW295419   2.496   5.596   9.348
64508SOL     OW95420   1.379   3.593   6.599
64508SOL    HW195421   1.367   3.679   6.557
64508SOL    HW295422   1.350   3.606   6.689
64509SOL     OW95423   4.716   1.061   3.190
64509SOL    HW195424   4.620   1.054   3.193
64509SOL    HW295425   4.736   1.139   3.241
64510SOL     OW95426  13.531   0.257   8.885
64510SOL    HW195427  13.523   0.185   8.947
64510SOL    HW295428  13.466   0.321   8.914
64511SOL     OW95429   0.664   5.925   6.230
64511SOL    HW195430   0.673   5.850   6.171
64511SOL    HW295431   0.750   5.965   6.231
64512SOL     OW95432  12.258  12.000   3.128
64512SOL    HW195433  12.319  11.948   3.182
64512SOL    HW295434  12.314  12.065   3.085
64513SOL     OW95435   9.470   3.925   9.206
64513SOL    HW195436   9.488   3.985   9.133
64513SOL    HW295437   9.458   3.983   9.282
64514SOL     OW95438   7.810   8.822   7.070
64514SOL    HW195439   7.891   8.836   7.021
64514SOL    HW295440   7.743   8.815   7.002
64515SOL     OW95441   3.664   1.316  12.432
64515SOL    HW195442   3.728   1.245  12.442
64515SOL    HW295443   3.584   1.272  12.402
64516SOL     OW95444   8.904  12.510   7.878
64516SOL    HW195445   8.871  12.471   7.959
64516SOL    HW295446   8.998  12.520   7.893
64517SOL     OW95447  10.997  11.581   9.511
64517SOL    HW195448  11.050  11.525   9.454
64517SOL    HW295449  10.908  11.572   9.478
64518SOL     OW95450   8.878  11.347  11.063
64518SOL    HW195451   8.788  11.354  11.096
64518SOL    HW295452   8.868  11.307  10.977
64519SOL     OW95453   3.772  12.077   9.427
64519SOL    HW195454   3.777  12.084   9.332
64519SOL    HW295455   3.731  12.159   9.455
64520SOL     OW95456   2.112  13.786   5.072
64520SOL    HW195457   2.119  13.752   5.161
64520SOL    HW295458   2.061  13.720   5.025
64521SOL     OW95459  14.695   8.846   5.643
64521SOL    HW195460  14.736   8.933   5.646
64521SOL    HW295461  14.742   8.800   5.574
64522SOL     OW95462   9.251  13.038  11.280
64522SOL    HW195463   9.264  12.988  11.199
64522SOL    HW295464   9.156  13.043  11.289
64523SOL     OW95465   5.689  13.553  13.335
64523SOL    HW195466   5.728  13.477  13.378
64523SOL    HW295467   5.658  13.608  13.407
64524SOL     OW95468   6.006  12.373   8.745
64524SOL    HW195469   6.081  12.315   8.752
64524SOL    HW295470   6.022  12.441   8.810
64525SOL     OW95471   0.488   4.134   8.479
64525SOL    HW195472   0.566   4.164   8.526
64525SOL    HW295473   0.488   4.185   8.398
64526SOL     OW95474   4.146   9.733  11.092
64526SOL    HW195475   4.120   9.804  11.034
64526SOL    HW295476   4.120   9.653  11.047
64527SOL     OW95477  14.692   0.835  14.300
64527SOL    HW195478  14.600   0.844  14.327
64527SOL    HW295479  14.722   0.924  14.287
64528SOL     OW95480   2.069   9.174  12.022
64528SOL    HW195481   2.072   9.228  11.942
64528SOL    HW295482   2.156   9.134  12.027
64529SOL     OW95483   1.843   0.511   9.981
64529SOL    HW195484   1.888   0.437   9.941
64529SOL    HW295485   1.776   0.535   9.917
64530SOL     OW95486   6.203  12.172   8.691
64530SOL    HW195487   6.294  12.144   8.681
64530SOL    HW295488   6.164  12.108   8.751
64531SOL     OW95489   9.627   0.331   9.151
64531SOL    HW195490   9.697   0.317   9.214
64531SOL    HW295491   9.655   0.284   9.072
64532SOL     OW95492   3.223   6.543   3.529
64532SOL    HW195493   3.319   6.549   3.526
64532SOL    HW295494   3.194   6.597   3.456
64533SOL     OW95495   7.066  12.192   0.904
64533SOL    HW195496   7.093  12.119   0.848
64533SOL    HW295497   7.005  12.153   0.966
64534SOL     OW95498  10.580   9.058   0.558
64534SOL    HW195499  10.606   9.091   0.644
64534SOL    HW295500  10.495   9.017   0.572
64535SOL     OW95501  13.421   6.775   1.643
64535SOL    HW195502  13.399   6.822   1.724
64535SOL    HW295503  13.347   6.717   1.628
64536SOL     OW95504   3.955  12.349   4.209
64536SOL    HW195505   4.043  12.310   4.206
64536SOL    HW295506   3.904  12.287   4.261
64537SOL     OW95507  10.318   5.485  14.510
64537SOL    HW195508  10.315   5.417  14.443
64537SOL    HW295509  10.247   5.545  14.486
64538SOL     OW95510   8.566   2.406   2.264
64538SOL    HW195511   8.521   2.444   2.188
64538SOL    HW295512   8.593   2.482   2.316
64539SOL     OW95513   4.893  10.324  12.213
64539SOL    HW195514   4.933  10.408  12.189
64539SOL    HW295515   4.831  10.347  12.283
64540SOL     OW95516   4.659   3.170  11.035
64540SOL    HW195517   4.714   3.149  11.110
64540SOL    HW295518   4.571   3.178  11.071
64541SOL     OW95519   9.182   0.756   0.924
64541SOL    HW195520   9.100   0.783   0.967
64541SOL    HW295521   9.215   0.836   0.884
64542SOL     OW95522   0.617   9.531  12.682
64542SOL    HW195523   0.543   9.507  12.739
64542SOL    HW295524   0.578   9.584  12.613
64543SOL     OW95525   1.376   7.590   8.517
64543SOL    HW195526   1.410   7.675   8.487
64543SOL    HW295527   1.378   7.596   8.613
64544SOL     OW95528  11.275  14.857   0.529
64544SOL    HW195529  11.247  14.775   0.569
64544SOL    HW295530  11.194   0.027   0.497
64545SOL     OW95531   7.138   3.874  13.753
64545SOL    HW195532   7.205   3.939  13.729
64545SOL    HW295533   7.172   3.791  13.719
64546SOL     OW95534   5.238   9.015  12.368
64546SOL    HW195535   5.188   9.063  12.433
64546SOL    HW295536   5.298   9.080  12.331
64547SOL     OW95537  12.555   5.649   0.998
64547SOL    HW195538  12.608   5.644   0.918
64547SOL    HW295539  12.465   5.632   0.968
64548SOL     OW95540   8.574  13.686   9.063
64548SOL    HW195541   8.498  13.733   9.029
64548SOL    HW295542   8.547  13.657   9.150
64549SOL     OW95543  10.500   6.461  11.240
64549SOL    HW195544  10.469   6.506  11.161
64549SOL    HW295545  10.536   6.378  11.208
64550SOL     OW95546  11.100  11.457   9.273
64550SOL    HW195547  11.124  11.524   9.209
64550SOL    HW295548  11.009  11.436   9.251
64551SOL     OW95549   2.974   5.701   6.392
64551SOL    HW195550   3.065   5.687   6.420
64551SOL    HW295551   2.925   5.632   6.436
64552SOL     OW95552   3.662   6.234   6.394
64552SOL    HW195553   3.719   6.188   6.456
64552SOL    HW295554   3.580   6.247   6.441
64553SOL     OW95555   8.233  14.804  10.703
64553SOL    HW195556   8.204   0.022  10.678
64553SOL    HW295557   8.152  14.755  10.716
64554SOL     OW95558   4.727   0.088   9.956
64554SOL    HW195559   4.758   0.127  10.038
64554SOL    HW295560   4.802   0.039   9.923
64555SOL     OW95561  11.670   1.326   6.731
64555SOL    HW195562  11.596   1.283   6.689
64555SOL    HW295563  11.698   1.392   6.668
64556SOL     OW95564   0.429   8.638   5.521
64556SOL    HW195565   0.405   8.546   5.508
64556SOL    HW295566   0.521   8.635   5.546
64557SOL     OW95567   8.491  11.635   1.347
64557SOL    HW195568   8.399  11.655   1.328
64557SOL    HW295569   8.499  11.541   1.327
64558SOL     OW95570  13.339   7.885   2.307
64558SOL    HW195571  13.274   7.931   2.253
64558SOL    HW295572  13.301   7.799   2.322
64559SOL     OW95573  14.158   4.387   4.484
64559SOL    HW195574  14.067   4.396   4.511
64559SOL    HW295575  14.176   4.468   4.435
64560SOL     OW95576   7.853   9.381  12.915
64560SOL    HW195577   7.773   9.389  12.863
64560SOL    HW295578   7.921   9.363  12.851
64561SOL     OW95579   7.987  13.626  11.282
64561SOL    HW195580   7.909  13.631  11.337
64561SOL    HW295581   7.987  13.536  11.249
64562SOL     OW95582  13.565   8.676   9.108
64562SOL    HW195583  13.478   8.674   9.148
64562SOL    HW295584  13.549   8.699   9.017
64563SOL     OW95585   9.768   6.143   2.362
64563SOL    HW195586   9.839   6.202   2.386
64563SOL    HW295587   9.705   6.198   2.314
64564SOL     OW95588  13.794   6.007   1.668
64564SOL    HW195589  13.816   5.917   1.693
64564SOL    HW295590  13.850   6.025   1.593
64565SOL     OW95591   4.504   9.636  13.224
64565SOL    HW195592   4.564   9.590  13.282
64565SOL    HW295593   4.465   9.704  13.279
64566SOL     OW95594   4.058   9.064   7.853
64566SOL    HW195595   4.080   9.132   7.790
64566SOL    HW295596   4.015   8.996   7.801
64567SOL     OW95597  11.295  14.733  12.086
64567SOL    HW195598  11.335  14.669  12.146
64567SOL    HW295599  11.207  14.699  12.070
64568SOL     OW95600   1.080  10.306   8.275
64568SOL    HW195601   1.145  10.263   8.219
64568SOL    HW295602   1.129  10.376   8.319
64569SOL     OW95603  10.203   6.497   1.582
64569SOL    HW195604  10.152   6.441   1.640
64569SOL    HW295605  10.239   6.437   1.516
64570SOL     OW95606  11.254   2.051   6.594
64570SOL    HW195607  11.257   2.140   6.630
64570SOL    HW295608  11.303   2.056   6.512
64571SOL     OW95609   2.023  13.719  10.244
64571SOL    HW195610   1.957  13.787  10.256
64571SOL    HW295611   2.105  13.766  10.231
64572SOL     OW95612   6.588  10.203   5.022
64572SOL    HW195613   6.656  10.203   4.955
64572SOL    HW295614   6.626  10.155   5.095
64573SOL     OW95615   2.220   6.917   5.540
64573SOL    HW195616   2.150   6.868   5.497
64573SOL    HW295617   2.195   7.009   5.531
64574SOL     OW95618   9.309   3.825   0.016
64574SOL    HW195619   9.341   3.833  14.796
64574SOL    HW295620   9.345   3.901   0.062
64575SOL     OW95621   2.680   7.378   8.411
64575SOL    HW195622   2.647   7.467   8.414
64575SOL    HW295623   2.602   7.323   8.415
64576SOL     OW95624  11.819  13.715   4.184
64576SOL    HW195625  11.766  13.663   4.245
64576SOL    HW295626  11.861  13.780   4.239
64577SOL     OW95627   9.295  14.617   4.143
64577SOL    HW195628   9.318  14.660   4.225
64577SOL    HW295629   9.379  14.592   4.105
64578SOL     OW95630   7.624  13.406  14.027
64578SOL    HW195631   7.587  13.452  13.951
64578SOL    HW295632   7.566  13.431  14.100
64579SOL     OW95633   3.526   9.060   7.485
64579SOL    HW195634   3.495   9.104   7.406
64579SOL    HW295635   3.511   9.123   7.555
64580SOL     OW95636  11.186   3.677  10.696
64580SOL    HW195637  11.161   3.604  10.639
64580SOL    HW295638  11.276   3.656  10.723
64581SOL     OW95639   5.046   5.651  11.047
64581SOL    HW195640   5.054   5.678  10.956
64581SOL    HW295641   4.958   5.614  11.053
64582SOL     OW95642  13.658   0.138   0.737
64582SOL    HW195643  13.712   0.217   0.736
64582SOL    HW295644  13.650   0.113   0.645
64583SOL     OW95645   9.289   2.569   9.514
64583SOL    HW195646   9.343   2.525   9.448
64583SOL    HW295647   9.243   2.637   9.466
64584SOL     OW95648   9.097   9.405   0.657
64584SOL    HW195649   9.065   9.466   0.723
64584SOL    HW295650   9.039   9.418   0.582
64585SOL     OW95651   1.984   7.255   8.089
64585SOL    HW195652   1.906   7.248   8.144
64585SOL    HW295653   2.054   7.217   8.142
64586SOL     OW95654  13.350   0.409   4.331
64586SOL    HW195655  13.331   0.492   4.375
64586SOL    HW295656  13.376   0.434   4.242
64587SOL     OW95657   4.320  13.916  12.032
64587SOL    HW195658   4.320  13.821  12.043
64587SOL    HW295659   4.350  13.950  12.116
64588SOL     OW95660  12.325  13.461   8.095
64588SOL    HW195661  12.235  13.467   8.128
64588SOL    HW295662  12.325  13.382   8.040
64589SOL     OW95663   5.750   1.447   8.728
64589SOL    HW195664   5.695   1.525   8.728
64589SOL    HW295665   5.702   1.383   8.676
64590SOL     OW95666  11.574   7.243   9.827
64590SOL    HW195667  11.624   7.316   9.863
64590SOL    HW295668  11.589   7.248   9.732
64591SOL     OW95669   6.305  10.744   9.281
64591SOL    HW195670   6.259  10.816   9.325
64591SOL    HW295671   6.393  10.778   9.266
64592SOL     OW95672   0.313   3.549  14.197
64592SOL    HW195673   0.369   3.561  14.120
64592SOL    HW295674   0.350   3.609  14.263
64593SOL     OW95675   0.222  12.732   4.219
64593SOL    HW195676   0.134  12.701   4.197
64593SOL    HW295677   0.250  12.783   4.143
64594SOL     OW95678   5.826   9.242  11.733
64594SOL    HW195679   5.772   9.164  11.742
64594SOL    HW295680   5.857   9.240  11.642
64595SOL     OW95681   3.103  11.648   1.105
64595SOL    HW195682   3.060  11.662   1.189
64595SOL    HW295683   3.091  11.555   1.088
64596SOL     OW95684  12.916   0.024  11.804
64596SOL    HW195685  12.991   0.069  11.765
64596SOL    HW295686  12.869   0.092  11.851
64597SOL     OW95687   2.839   0.275   1.934
64597SOL    HW195688   2.874   0.340   1.995
64597SOL    HW295689   2.761   0.315   1.896
64598SOL     OW95690   0.598  10.477  14.333
64598SOL    HW195691   0.644  10.399  14.363
64598SOL    HW295692   0.511  10.470  14.372
64599SOL     OW95693   3.820   0.727   4.311
64599SOL    HW195694   3.798   0.656   4.251
64599SOL    HW295695   3.854   0.684   4.389
64600SOL     OW95696   3.588   9.276   6.238
64600SOL    HW195697   3.630   9.191   6.231
64600SOL    HW295698   3.557   9.280   6.329
64601SOL     OW95699   6.863  11.501   3.977
64601SOL    HW195700   6.832  11.423   3.932
64601SOL    HW295701   6.945  11.474   4.019
64602SOL     OW95702   2.565   6.867   0.174
64602SOL    HW195703   2.511   6.863   0.095
64602SOL    HW295704   2.651   6.896   0.142
64603SOL     OW95705   9.264   3.373   5.415
64603SOL    HW195706   9.276   3.456   5.369
64603SOL    HW295707   9.179   3.381   5.457
64604SOL     OW95708  13.672   0.691  13.092
64604SOL    HW195709  13.737   0.639  13.045
64604SOL    HW295710  13.645   0.635  13.165
64605SOL     OW95711   4.998  14.375   6.900
64605SOL    HW195712   5.094  14.375   6.890
64605SOL    HW295713   4.966  14.420   6.821
64606SOL     OW95714  14.197   0.634  11.839
64606SOL    HW195715  14.243   0.658  11.759
64606SOL    HW295716  14.167   0.717  11.875
64607SOL     OW95717  11.129   0.675  10.203
64607SOL    HW195718  11.080   0.756  10.219
64607SOL    HW295719  11.136   0.669  10.108
64608SOL     OW95720   2.482  12.084  14.791
64608SOL    HW195721   2.526  12.169  14.782
64608SOL    HW295722   2.472  12.053  14.701
64609SOL     OW95723   6.063   6.570  12.299
64609SOL    HW195724   6.126   6.498  12.297
64609SOL    HW295725   5.985   6.535  12.255
64610SOL     OW95726   4.124   3.152   9.060
64610SOL    HW195727   4.203   3.141   9.007
64610SOL    HW295728   4.062   3.197   9.002
64611SOL     OW95729   4.992   6.212  14.712
64611SOL    HW195730   4.945   6.169  14.783
64611SOL    HW295731   5.003   6.302  14.742
64612SOL     OW95732  11.733  10.992   7.178
64612SOL    HW195733  11.674  11.045   7.231
64612SOL    HW295734  11.750  11.046   7.100
64613SOL     OW95735  10.968   3.120   2.586
64613SOL    HW195736  11.044   3.178   2.585
64613SOL    HW295737  10.899   3.170   2.542
64614SOL     OW95738  12.789   5.022  11.924
64614SOL    HW195739  12.709   4.997  11.969
64614SOL    HW295740  12.860   4.995  11.982
64615SOL     OW95741   9.240   0.128   7.895
64615SOL    HW195742   9.155   0.160   7.923
64615SOL    HW295743   9.294   0.131   7.975
64616SOL     OW95744   4.394   3.395   0.536
64616SOL    HW195745   4.332   3.465   0.515
64616SOL    HW295746   4.345   3.314   0.521
64617SOL     OW95747   3.538  12.381   3.148
64617SOL    HW195748   3.487  12.351   3.223
64617SOL    HW295749   3.620  12.414   3.186
64618SOL     OW95750   0.123  11.250   7.207
64618SOL    HW195751   0.098  11.246   7.115
64618SOL    HW295752   0.092  11.167   7.243
64619SOL     OW95753   5.040   8.190   4.880
64619SOL    HW195754   5.109   8.138   4.922
64619SOL    HW295755   4.987   8.223   4.953
64620SOL     OW95756  14.230   2.329   5.643
64620SOL    HW195757  14.167   2.262   5.619
64620SOL    HW295758  14.180   2.390   5.698
64621SOL     OW95759  10.357   5.271  14.322
64621SOL    HW195760  10.306   5.336  14.274
64621SOL    HW295761  10.448   5.293  14.302
64622SOL     OW95762   6.581   0.120   7.363
64622SOL    HW195763   6.656   0.177   7.374
64622SOL    HW295764   6.603   0.041   7.413
64623SOL     OW95765   0.775   8.465   7.799
64623SOL    HW195766   0.703   8.418   7.843
64623SOL    HW295767   0.767   8.440   7.707
64624SOL     OW95768   5.576  14.288  14.296
64624SOL    HW195769   5.622  14.300  14.213
64624SOL    HW295770   5.620  14.213  14.336
64625SOL     OW95771   1.092   7.520   4.639
64625SOL    HW195772   1.163   7.467   4.673
64625SOL    HW295773   1.070   7.480   4.555
64626SOL     OW95774   2.490   6.773   9.194
64626SOL    HW195775   2.539   6.782   9.275
64626SOL    HW295776   2.532   6.700   9.148
64627SOL     OW95777  12.466  13.731   1.960
64627SOL    HW195778  12.513  13.805   1.999
64627SOL    HW295779  12.467  13.749   1.866
64628SOL     OW95780  13.513   1.008   5.554
64628SOL    HW195781  13.428   0.985   5.592
64628SOL    HW295782  13.492   1.038   5.466
64629SOL     OW95783  14.358   0.254   0.872
64629SOL    HW195784  14.319   0.305   0.802
64629SOL    HW295785  14.288   0.244   0.937
64630SOL     OW95786   9.206  12.896   0.604
64630SOL    HW195787   9.188  12.858   0.690
64630SOL    HW295788   9.154  12.844   0.543
64631SOL     OW95789   5.091   9.217   3.894
64631SOL    HW195790   5.135   9.302   3.899
64631SOL    HW295791   4.998   9.238   3.903
64632SOL     OW95792  13.929   2.514  13.641
64632SOL    HW195793  13.924   2.425  13.605
64632SOL    HW295794  14.002   2.555  13.595
64633SOL     OW95795  11.261  13.258   2.620
64633SOL    HW195796  11.215  13.298   2.546
64633SOL    HW295797  11.250  13.164   2.607
64634SOL     OW95798   7.421  10.199   3.958
64634SOL    HW195799   7.387  10.275   3.910
64634SOL    HW295800   7.511  10.190   3.927
64635SOL     OW95801   4.095   6.685   4.081
64635SOL    HW195802   4.109   6.597   4.045
64635SOL    HW295803   4.097   6.673   4.176
64636SOL     OW95804   1.705   8.438  13.977
64636SOL    HW195805   1.749   8.495  13.914
64636SOL    HW295806   1.736   8.469  14.062
64637SOL     OW95807   8.591  11.435   6.731
64637SOL    HW195808   8.668  11.382   6.750
64637SOL    HW295809   8.574  11.422   6.638
64638SOL     OW95810  12.882  14.597   0.233
64638SOL    HW195811  12.878  14.670   0.171
64638SOL    HW295812  12.790  14.573   0.247
64639SOL     OW95813   2.725   6.420   1.236
64639SOL    HW195814   2.766   6.334   1.223
64639SOL    HW295815   2.645   6.402   1.285
64640SOL     OW95816   4.189  13.694   5.341
64640SOL    HW195817   4.158  13.663   5.426
64640SOL    HW295818   4.203  13.788   5.353
64641SOL     OW95819  14.129   3.081  13.959
64641SOL    HW195820  14.143   3.060  14.052
64641SOL    HW295821  14.154   3.173  13.951
64642SOL     OW95822   8.220  14.796   7.757
64642SOL    HW195823   8.160  14.749   7.815
64642SOL    HW295824   8.256  14.866   7.811
64643SOL     OW95825   5.659  12.052  10.320
64643SOL    HW195826   5.613  12.058  10.404
64643SOL    HW295827   5.606  12.106  10.260
64644SOL     OW95828   4.811  13.321   1.191
64644SOL    HW195829   4.730  13.279   1.163
64644SOL    HW295830   4.782  13.389   1.252
64645SOL     OW95831  14.155   8.539  13.461
64645SOL    HW195832  14.069   8.532  13.502
64645SOL    HW295833  14.217   8.522  13.532
64646SOL     OW95834  10.042   6.084   2.936
64646SOL    HW195835  10.061   6.173   2.967
64646SOL    HW295836  10.128   6.048   2.914
64647SOL     OW95837   4.704  12.517   4.136
64647SOL    HW195838   4.757  12.594   4.155
64647SOL    HW295839   4.634  12.519   4.202
64648SOL     OW95840  13.371   2.122   7.394
64648SOL    HW195841  13.351   2.033   7.366
64648SOL    HW295842  13.375   2.173   7.313
64649SOL     OW95843   4.717   5.389   1.469
64649SOL    HW195844   4.627   5.406   1.441
64649SOL    HW295845   4.759   5.351   1.393
64650SOL     OW95846  10.496   9.080   1.760
64650SOL    HW195847  10.547   9.062   1.839
64650SOL    HW295848  10.435   9.007   1.754
64651SOL     OW95849   5.036   9.565  11.852
64651SOL    HW195850   5.008   9.603  11.935
64651SOL    HW295851   4.956   9.525  11.816
64652SOL     OW95852   9.830   3.593  11.811
64652SOL    HW195853   9.864   3.510  11.777
64652SOL    HW295854   9.877   3.607  11.893
64653SOL     OW95855  11.746   8.589  11.010
64653SOL    HW195856  11.773   8.521  11.073
64653SOL    HW295857  11.741   8.669  11.062
64654SOL     OW95858  11.008   1.406  11.935
64654SOL    HW195859  11.024   1.334  11.874
64654SOL    HW295860  10.986   1.480  11.878
64655SOL     OW95861   6.025  12.631  13.088
64655SOL    HW195862   6.048  12.719  13.116
64655SOL    HW295863   6.002  12.586  13.169
64656SOL     OW95864   0.865   3.377   8.129
64656SOL    HW195865   0.874   3.419   8.214
64656SOL    HW295866   0.943   3.322   8.120
64657SOL     OW95867   3.601  10.261   1.431
64657SOL    HW195868   3.648  10.207   1.494
64657SOL    HW295869   3.613  10.216   1.347
64658SOL     OW95870   1.347  10.085   8.556
64658SOL    HW195871   1.382  10.019   8.615
64658SOL    HW295872   1.298  10.036   8.491
64659SOL     OW95873  10.742   6.042   6.177
64659SOL    HW195874  10.784   5.972   6.126
64659SOL    HW295875  10.755   6.121   6.125
64660SOL     OW95876  11.592   0.827  12.582
64660SOL    HW195877  11.538   0.906  12.592
64660SOL    HW295878  11.654   0.832  12.655
64661SOL     OW95879  12.205   6.315  12.517
64661SOL    HW195880  12.208   6.387  12.453
64661SOL    HW295881  12.120   6.275  12.503
64662SOL     OW95882   4.014   1.887  10.638
64662SOL    HW195883   4.031   1.841  10.720
64662SOL    HW295884   3.919   1.884  10.628
64663SOL     OW95885   5.285   4.281   6.103
64663SOL    HW195886   5.215   4.278   6.037
64663SOL    HW295887   5.314   4.372   6.103
64664SOL     OW95888   9.040   0.916   7.786
64664SOL    HW195889   9.028   0.900   7.692
64664SOL    HW295890   9.127   0.957   7.792
64665SOL     OW95891   7.812  14.467   3.956
64665SOL    HW195892   7.841  14.526   4.026
64665SOL    HW295893   7.717  14.476   3.954
64666SOL     OW95894   9.655   5.880  11.029
64666SOL    HW195895   9.710   5.849  10.957
64666SOL    HW295896   9.581   5.923  10.985
64667SOL     OW95897   7.949  14.632  11.614
64667SOL    HW195898   7.919  14.689  11.543
64667SOL    HW295899   8.044  14.627  11.601
64668SOL     OW95900   5.605  13.826   9.981
64668SOL    HW195901   5.638  13.808   9.893
64668SOL    HW295902   5.625  13.919   9.995
64669SOL     OW95903   1.850  13.435  13.840
64669SOL    HW195904   1.797  13.356  13.836
64669SOL    HW295905   1.788  13.507  13.836
64670SOL     OW95906   0.997   2.064   1.296
64670SOL    HW195907   0.928   2.021   1.346
64670SOL    HW295908   1.056   2.100   1.363
64671SOL     OW95909  12.092   2.509   8.092
64671SOL    HW195910  12.080   2.603   8.084
64671SOL    HW295911  12.021   2.480   8.150
64672SOL     OW95912   9.355  14.700   3.324
64672SOL    HW195913   9.290  14.753   3.372
64672SOL    HW295914   9.435  14.709   3.375
64673SOL     OW95915   9.286  10.269   6.278
64673SOL    HW195916   9.275  10.363   6.295
64673SOL    HW295917   9.233  10.226   6.345
64674SOL     OW95918  13.673  12.930   0.990
64674SOL    HW195919  13.707  12.964   1.072
64674SOL    HW295920  13.688  12.835   0.995
64675SOL     OW95921  10.213   3.340   4.315
64675SOL    HW195922  10.182   3.346   4.405
64675SOL    HW295923  10.308   3.349   4.321
64676SOL     OW95924  11.730   8.556  12.131
64676SOL    HW195925  11.679   8.638  12.135
64676SOL    HW295926  11.803   8.576  12.072
64677SOL     OW95927   0.430  12.096  13.311
64677SOL    HW195928   0.371  12.085  13.386
64677SOL    HW295929   0.512  12.125  13.350
64678SOL     OW95930   8.443   9.205   2.230
64678SOL    HW195931   8.386   9.130   2.243
64678SOL    HW295932   8.531   9.169   2.231
64679SOL     OW95933   1.837   6.573   2.844
64679SOL    HW195934   1.852   6.656   2.890
64679SOL    HW295935   1.908   6.516   2.875
64680SOL     OW95936   1.346  11.654   1.157
64680SOL    HW195937   1.314  11.570   1.190
64680SOL    HW295938   1.333  11.715   1.229
64681SOL     OW95939  14.161   9.125   5.653
64681SOL    HW195940  14.161   9.078   5.737
64681SOL    HW295941  14.087   9.087   5.605
64682SOL     OW95942  10.436  13.205   9.359
64682SOL    HW195943  10.405  13.133   9.303
64682SOL    HW295944  10.364  13.220   9.420
64683SOL     OW95945   6.991  10.211  11.074
64683SOL    HW195946   6.971  10.259  10.994
64683SOL    HW295947   7.021  10.277  11.136
64684SOL     OW95948   6.881  14.429   5.464
64684SOL    HW195949   6.960  14.374   5.468
64684SOL    HW295950   6.830  14.403   5.541
64685SOL     OW95951   6.636  11.525   1.854
64685SOL    HW195952   6.618  11.586   1.925
64685SOL    HW295953   6.552  11.514   1.810
64686SOL     OW95954   3.707   9.378   4.105
64686SOL    HW195955   3.720   9.287   4.076
64686SOL    HW295956   3.621   9.377   4.147
64687SOL     OW95957   3.341  12.163  11.057
64687SOL    HW195958   3.348  12.167  11.152
64687SOL    HW295959   3.306  12.249  11.032
64688SOL     OW95960  12.632   8.059   8.246
64688SOL    HW195961  12.584   8.131   8.287
64688SOL    HW295962  12.724   8.083   8.257
64689SOL     OW95963  10.597   9.051   8.914
64689SOL    HW195964  10.515   9.005   8.931
64689SOL    HW295965  10.571   9.132   8.870
64690SOL     OW95966  13.806   6.883   3.133
64690SOL    HW195967  13.779   6.863   3.044
64690SOL    HW295968  13.899   6.907   3.125
64691SOL     OW95969   0.136   7.553  11.880
64691SOL    HW195970   0.078   7.556  11.804
64691SOL    HW295971   0.082   7.516  11.950
64692SOL     OW95972  13.442  12.571   0.789
64692SOL    HW195973  13.414  12.520   0.713
64692SOL    HW295974  13.366  12.624   0.812
64693SOL     OW95975  13.959   9.660  14.212
64693SOL    HW195976  13.878   9.709  14.199
64693SOL    HW295977  13.944   9.576  14.168
64694SOL     OW95978   2.293  13.995   9.677
64694SOL    HW195979   2.254  14.074   9.716
64694SOL    HW295980   2.364  14.029   9.622
64695SOL     OW95981   4.423   8.144  12.634
64695SOL    HW195982   4.478   8.222  12.634
64695SOL    HW295983   4.362   8.157  12.706
64696SOL     OW95984   7.335   7.675  13.880
64696SOL    HW195985   7.364   7.683  13.971
64696SOL    HW295986   7.240   7.689  13.884
64697SOL     OW95987   6.802   8.347   7.072
64697SOL    HW195988   6.819   8.303   7.156
64697SOL    HW295989   6.834   8.436   7.085
64698SOL     OW95990   2.290   4.246   9.764
64698SOL    HW195991   2.285   4.290   9.849
64698SOL    HW295992   2.346   4.302   9.711
64699SOL     OW95993   9.001  10.707   3.218
64699SOL    HW195994   9.097  10.704   3.214
64699SOL    HW295995   8.976  10.624   3.258
64700SOL     OW95996   3.664   1.292   3.154
64700SOL    HW195997   3.672   1.373   3.205
64700SOL    HW295998   3.743   1.288   3.101
64701SOL     OW95999   4.468   5.649  10.143
64701SOL    HW196000   4.424   5.572  10.108
64701SOL    HW296001   4.397   5.712  10.159
64702SOL     OW96002   4.685   4.291  10.220
64702SOL    HW196003   4.774   4.280  10.254
64702SOL    HW296004   4.683   4.380  10.187
64703SOL     OW96005  14.704   0.545  14.833
64703SOL    HW196006  14.753   0.605  14.776
64703SOL    HW296007  14.768   0.479  14.858
64704SOL     OW96008   1.360   2.324  12.112
64704SOL    HW196009   1.336   2.275  12.034
64704SOL    HW296010   1.291   2.303  12.176
64705SOL     OW96011  13.660   3.867  14.792
64705SOL    HW196012  13.613   3.918  14.859
64705SOL    HW296013  13.706   3.933  14.740
64706SOL     OW96014  14.272  11.592   3.682
64706SOL    HW196015  14.270  11.682   3.716
64706SOL    HW296016  14.359  11.560   3.703
64707SOL     OW96017  10.312   6.602   6.905
64707SOL    HW196018  10.234   6.562   6.867
64707SOL    HW296019  10.310   6.576   6.997
64708SOL     OW96020   4.082   0.468   9.878
64708SOL    HW196021   4.027   0.398   9.913
64708SOL    HW296022   4.082   0.454   9.783
64709SOL     OW96023   6.374  12.574  13.471
64709SOL    HW196024   6.382  12.534  13.557
64709SOL    HW296025   6.319  12.651  13.485
64710SOL     OW96026  12.542   2.358   0.030
64710SOL    HW196027  12.483   2.320  14.834
64710SOL    HW296028  12.607   2.290   0.046
64711SOL     OW96029  14.182   2.444   1.420
64711SOL    HW196030  14.271   2.424   1.393
64711SOL    HW296031  14.193   2.502   1.496
64712SOL     OW96032   7.087   4.447   9.091
64712SOL    HW196033   7.121   4.455   9.180
64712SOL    HW296034   7.108   4.358   9.065
64713SOL     OW96035   6.706   0.694   5.205
64713SOL    HW196036   6.640   0.655   5.262
64713SOL    HW296037   6.723   0.628   5.138
64714SOL     OW96038   2.979  13.220   9.211
64714SOL    HW196039   2.937  13.299   9.177
64714SOL    HW296040   3.072  13.233   9.194
64715SOL     OW96041   0.303   6.116   3.740
64715SOL    HW196042   0.380   6.166   3.767
64715SOL    HW296043   0.229   6.175   3.757
64716SOL     OW96044  13.387   6.522  14.077
64716SOL    HW196045  13.315   6.552  14.133
64716SOL    HW296046  13.406   6.434  14.107
64717SOL     OW96047   0.825  12.913   1.684
64717SOL    HW196048   0.815  12.851   1.757
64717SOL    HW296049   0.909  12.956   1.699
64718SOL     OW96050   8.161  11.597  14.715
64718SOL    HW196051   8.124  11.662  14.654
64718SOL    HW296052   8.184  11.523  14.660
64719SOL     OW96053   3.218  14.304  13.375
64719SOL    HW196054   3.260  14.385  13.404
64719SOL    HW296055   3.209  14.252  13.454
64720SOL     OW96056   3.528   6.829   7.001
64720SOL    HW196057   3.579   6.857   7.078
64720SOL    HW296058   3.522   6.908   6.947
64721SOL     OW96059   7.786  11.489   5.660
64721SOL    HW196060   7.746  11.575   5.649
64721SOL    HW296061   7.753  11.438   5.586
64722SOL     OW96062  12.957  12.363   2.737
64722SOL    HW196063  12.994  12.275   2.742
64722SOL    HW296064  12.863  12.348   2.725
64723SOL     OW96065   6.524   1.362  11.791
64723SOL    HW196066   6.490   1.422  11.724
64723SOL    HW296067   6.532   1.278  11.746
64724SOL     OW96068   1.269   5.184   1.648
64724SOL    HW196069   1.239   5.200   1.558
64724SOL    HW296070   1.296   5.270   1.679
64725SOL     OW96071   0.619   5.795   4.140
64725SOL    HW196072   0.695   5.780   4.196
64725SOL    HW296073   0.575   5.870   4.180
64726SOL     OW96074   4.799   6.792  13.172
64726SOL    HW196075   4.858   6.867  13.163
64726SOL    HW296076   4.738   6.801  13.099
64727SOL     OW96077   7.417  11.955   0.860
64727SOL    HW196078   7.349  11.983   0.922
64727SOL    HW296079   7.384  11.982   0.774
64728SOL     OW96080  11.442  10.651   3.559
64728SOL    HW196081  11.484  10.564   3.560
64728SOL    HW296082  11.487  10.698   3.490
64729SOL     OW96083   2.478  10.256  12.510
64729SOL    HW196084   2.460  10.164  12.490
64729SOL    HW296085   2.415  10.278  12.579
64730SOL     OW96086   7.898   4.872  10.474
64730SOL    HW196087   7.871   4.841  10.387
64730SOL    HW296088   7.942   4.955  10.457
64731SOL     OW96089   4.933  11.616  11.179
64731SOL    HW196090   4.863  11.614  11.114
64731SOL    HW296091   4.998  11.676  11.143
64732SOL     OW96092  12.556   6.843   6.078
64732SOL    HW196093  12.540   6.847   6.172
64732SOL    HW296094  12.475   6.874   6.038
64733SOL     OW96095   5.765   1.012   3.421
64733SOL    HW196096   5.677   0.974   3.421
64733SOL    HW296097   5.750   1.107   3.419
64734SOL     OW96098  13.775   8.962   9.367
64734SOL    HW196099  13.836   8.977   9.295
64734SOL    HW296100  13.763   9.048   9.407
64735SOL     OW96101   4.805  12.018   0.540
64735SOL    HW196102   4.826  12.063   0.458
64735SOL    HW296103   4.887  12.016   0.588
64736SOL     OW96104   1.830  14.515  13.925
64736SOL    HW196105   1.819  14.566  14.005
64736SOL    HW296106   1.890  14.444  13.950
64737SOL     OW96107  11.683  12.388  13.315
64737SOL    HW196108  11.668  12.313  13.258
64737SOL    HW296109  11.746  12.357  13.380
64738SOL     OW96110  13.559   4.509   0.511
64738SOL    HW196111  13.642   4.496   0.464
64738SOL    HW296112  13.568   4.454   0.589
64739SOL     OW96113   4.141   9.727  12.069
64739SOL    HW196114   4.190   9.809  12.078
64739SOL    HW296115   4.207   9.659  12.073
64740SOL     OW96116   8.037   3.975  11.986
64740SOL    HW196117   8.070   3.972  12.076
64740SOL    HW296118   7.950   3.936  11.991
64741SOL     OW96119   3.048   8.590   5.865
64741SOL    HW196120   3.061   8.644   5.942
64741SOL    HW296121   2.955   8.570   5.864
64742SOL     OW96122  11.831  14.267   3.729
64742SOL    HW196123  11.806  14.359   3.717
64742SOL    HW296124  11.910  14.257   3.676
64743SOL     OW96125  10.529  14.537   4.048
64743SOL    HW196126  10.480  14.585   3.981
64743SOL    HW296127  10.608  14.509   4.003
64744SOL     OW96128  14.183  12.663   1.539
64744SOL    HW196129  14.193  12.754   1.513
64744SOL    HW296130  14.188  12.665   1.635
64745SOL     OW96131   9.621  13.440   6.779
64745SOL    HW196132   9.547  13.380   6.766
64745SOL    HW296133   9.685  13.414   6.713
64746SOL     OW96134  14.520   0.947  11.094
64746SOL    HW196135  14.565   0.916  11.016
64746SOL    HW296136  14.579   0.925  11.166
64747SOL     OW96137   8.818   8.339   1.458
64747SOL    HW196138   8.821   8.434   1.447
64747SOL    HW296139   8.736   8.322   1.503
64748SOL     OW96140   2.713   2.881  10.349
64748SOL    HW196141   2.767   2.812  10.387
64748SOL    HW296142   2.736   2.882  10.256
64749SOL     OW96143  11.386  10.513   8.413
64749SOL    HW196144  11.409  10.427   8.449
64749SOL    HW296145  11.293  10.523   8.432
64750SOL     OW96146  11.343   0.937   9.324
64750SOL    HW196147  11.435   0.909   9.329
64750SOL    HW296148  11.343   1.026   9.360
64751SOL     OW96149  13.983   5.447   5.884
64751SOL    HW196150  14.028   5.365   5.861
64751SOL    HW296151  13.971   5.441   5.979
64752SOL     OW96152   2.945   4.300   7.941
64752SOL    HW196153   2.944   4.392   7.914
64752SOL    HW296154   2.901   4.299   8.026
64753SOL     OW96155   0.711  11.636  10.508
64753SOL    HW196156   0.729  11.647  10.414
64753SOL    HW296157   0.798  11.638  10.548
64754SOL     OW96158  14.381   4.428   5.903
64754SOL    HW196159  14.409   4.408   5.813
64754SOL    HW296160  14.462   4.445   5.950
64755SOL     OW96161  12.071   1.596   7.377
64755SOL    HW196162  12.149   1.646   7.402
64755SOL    HW296163  12.020   1.591   7.458
64756SOL     OW96164   7.945  14.428   0.104
64756SOL    HW196165   7.949  14.460   0.194
64756SOL    HW296166   7.898  14.345   0.109
64757SOL     OW96167  13.877   2.836   3.478
64757SOL    HW196168  13.818   2.905   3.448
64757SOL    HW296169  13.921   2.807   3.398
64758SOL     OW96170   2.299   8.495  14.862
64758SOL    HW196171   2.232   8.427  14.861
64758SOL    HW296172   2.380   8.450  14.837
64759SOL     OW96173   0.416   2.381   9.022
64759SOL    HW196174   0.322   2.362   9.018
64759SOL    HW296175   0.457   2.295   9.029
64760SOL     OW96176  10.325   0.422   8.305
64760SOL    HW196177  10.353   0.336   8.337
64760SOL    HW296178  10.291   0.466   8.384
64761SOL     OW96179   5.836   0.523   0.377
64761SOL    HW196180   5.745   0.530   0.350
64761SOL    HW296181   5.868   0.613   0.379
64762SOL     OW96182  10.670  11.830   6.218
64762SOL    HW196183  10.698  11.783   6.139
64762SOL    HW296184  10.617  11.766   6.266
64763SOL     OW96185  13.938   3.444   5.641
64763SOL    HW196186  13.947   3.411   5.552
64763SOL    HW296187  13.904   3.533   5.630
64764SOL     OW96188  13.539  10.604   0.248
64764SOL    HW196189  13.553  10.680   0.191
64764SOL    HW296190  13.617  10.550   0.235
64765SOL     OW96191   7.826   1.130  14.624
64765SOL    HW196192   7.800   1.176  14.704
64765SOL    HW296193   7.809   1.193  14.553
64766SOL     OW96194   4.955   6.624   1.346
64766SOL    HW196195   4.888   6.579   1.295
64766SOL    HW296196   4.907   6.692   1.394
64767SOL     OW96197  10.951   5.615   9.187
64767SOL    HW196198  10.874   5.661   9.220
64767SOL    HW296199  11.004   5.683   9.144
64768SOL     OW96200  12.455   8.719   9.153
64768SOL    HW196201  12.511   8.734   9.229
64768SOL    HW296202  12.469   8.627   9.130
64769SOL     OW96203   3.892   2.627  13.648
64769SOL    HW196204   3.953   2.642  13.576
64769SOL    HW296205   3.946   2.634  13.727
64770SOL     OW96206   9.123  14.508   2.512
64770SOL    HW196207   9.212  14.484   2.537
64770SOL    HW296208   9.130  14.597   2.478
64771SOL     OW96209  11.579   0.998   8.406
64771SOL    HW196210  11.503   0.941   8.398
64771SOL    HW296211  11.544   1.086   8.416
64772SOL     OW96212   4.296  13.106   8.564
64772SOL    HW196213   4.211  13.063   8.572
64772SOL    HW296214   4.354  13.036   8.532
64773SOL     OW96215   6.350  12.817   6.511
64773SOL    HW196216   6.265  12.773   6.506
64773SOL    HW296217   6.389  12.787   6.593
64774SOL     OW96218   7.330   2.255  10.259
64774SOL    HW196219   7.336   2.214  10.345
64774SOL    HW296220   7.236   2.255  10.238
64775SOL     OW96221   7.882  13.725   8.916
64775SOL    HW196222   7.792  13.696   8.926
64775SOL    HW296223   7.915  13.731   9.006
64776SOL     OW96224   1.279   7.975   3.894
64776SOL    HW196225   1.321   7.965   3.979
64776SOL    HW296226   1.333   8.039   3.848
64777SOL     OW96227   5.757   7.253   0.515
64777SOL    HW196228   5.765   7.236   0.421
64777SOL    HW296229   5.663   7.264   0.530
64778SOL     OW96230  13.192  10.938  10.499
64778SOL    HW196231  13.143  10.916  10.578
64778SOL    HW296232  13.270  10.983  10.531
64779SOL     OW96233   2.075  12.504   6.826
64779SOL    HW196234   1.992  12.522   6.871
64779SOL    HW296235   2.134  12.574   6.855
64780SOL     OW96236  10.613  11.879  14.570
64780SOL    HW196237  10.651  11.797  14.540
64780SOL    HW296238  10.632  11.942  14.501
64781SOL     OW96239  14.787  13.330   6.967
64781SOL    HW196240  14.836  13.411   6.958
64781SOL    HW296241  14.852  13.264   6.993
64782SOL     OW96242   9.630   1.390   3.472
64782SOL    HW196243   9.657   1.299   3.486
64782SOL    HW296244   9.537   1.384   3.447
64783SOL     OW96245   1.619   5.678  10.859
64783SOL    HW196246   1.599   5.702  10.949
64783SOL    HW296247   1.533   5.663  10.819
64784SOL     OW96248   7.131  13.070   3.183
64784SOL    HW196249   7.139  13.166   3.184
64784SOL    HW296250   7.137  13.045   3.276
64785SOL     OW96251   6.175   4.429   8.849
64785SOL    HW196252   6.190   4.445   8.942
64785SOL    HW296253   6.154   4.515   8.813
64786SOL     OW96254  12.221   4.818  14.844
64786SOL    HW196255  12.139   4.784  14.809
64786SOL    HW296256  12.266   4.855  14.768
64787SOL     OW96257   6.463   7.853   1.608
64787SOL    HW196258   6.382   7.804   1.594
64787SOL    HW296259   6.488   7.835   1.699
64788SOL     OW96260  10.290  11.332   9.707
64788SOL    HW196261  10.216  11.336   9.767
64788SOL    HW296262  10.275  11.404   9.646
64789SOL     OW96263   8.691   1.217   7.993
64789SOL    HW196264   8.620   1.162   8.027
64789SOL    HW296265   8.765   1.156   7.983
64790SOL     OW96266  10.582  12.454   9.467
64790SOL    HW196267  10.603  12.496   9.383
64790SOL    HW296268  10.552  12.367   9.443
64791SOL     OW96269  14.694  14.268  12.059
64791SOL    HW196270  14.616  14.214  12.073
64791SOL    HW296271  14.691  14.292  11.967
64792SOL     OW96272   9.362  14.384   4.635
64792SOL    HW196273   9.275  14.381   4.673
64792SOL    HW296274   9.348  14.411   4.544
64793SOL     OW96275   3.413   9.622   8.870
64793SOL    HW196276   3.373   9.573   8.941
64793SOL    HW296277   3.401   9.714   8.894
64794SOL     OW96278   5.959  13.079   3.977
64794SOL    HW196279   5.874  13.106   4.012
64794SOL    HW296280   6.011  13.058   4.055
64795SOL     OW96281  12.459   2.282   2.887
64795SOL    HW196282  12.422   2.194   2.892
64795SOL    HW296283  12.394   2.332   2.838
64796SOL     OW96284   6.566   0.392  11.591
64796SOL    HW196285   6.528   0.409  11.677
64796SOL    HW296286   6.517   0.448  11.532
64797SOL     OW96287   8.650   8.360   6.854
64797SOL    HW196288   8.717   8.292   6.846
64797SOL    HW296289   8.614   8.347   6.942
64798SOL     OW96290   1.633   7.296   6.318
64798SOL    HW196291   1.583   7.286   6.400
64798SOL    HW296292   1.566   7.310   6.251
64799SOL     OW96293   8.554   8.030   6.652
64799SOL    HW196294   8.593   7.949   6.620
64799SOL    HW296295   8.611   8.099   6.617
64800SOL     OW96296   4.805   8.899   8.732
64800SOL    HW196297   4.855   8.835   8.783
64800SOL    HW296298   4.714   8.877   8.748
64801SOL     OW96299   9.691   2.330   3.505
64801SOL    HW196300   9.668   2.381   3.427
64801SOL    HW296301   9.651   2.377   3.578
64802SOL     OW96302   7.666   6.384   9.174
64802SOL    HW196303   7.602   6.424   9.115
64802SOL    HW296304   7.613   6.343   9.242
64803SOL     OW96305   9.830   2.112  14.489
64803SOL    HW196306   9.820   2.058  14.411
64803SOL    HW296307   9.771   2.186  14.474
64804SOL     OW96308   3.953   9.921   3.576
64804SOL    HW196309   3.864   9.894   3.599
64804SOL    HW296310   3.960   9.903   3.482
64805SOL     OW96311   9.980  12.139   3.680
64805SOL    HW196312  10.015  12.052   3.663
64805SOL    HW296313  10.005  12.191   3.604
64806SOL     OW96314   9.814   9.506   7.087
64806SOL    HW196315   9.828   9.423   7.133
64806SOL    HW296316   9.778   9.565   7.152
64807SOL     OW96317   1.213   1.749   8.593
64807SOL    HW196318   1.146   1.755   8.524
64807SOL    HW296319   1.256   1.835   8.591
64808SOL     OW96320   0.940  11.090   0.644
64808SOL    HW196321   0.871  11.149   0.615
64808SOL    HW296322   1.005  11.092   0.573
64809SOL     OW96323  12.499  12.406   3.444
64809SOL    HW196324  12.534  12.453   3.368
64809SOL    HW296325  12.533  12.317   3.435
64810SOL     OW96326   0.906   8.661  10.359
64810SOL    HW196327   0.984   8.692  10.405
64810SOL    HW296328   0.846   8.634  10.429
64811SOL     OW96329   1.957   0.280   9.924
64811SOL    HW196330   1.986   0.192   9.900
64811SOL    HW296331   2.031   0.337   9.902
64812SOL     OW96332   1.955  13.800   3.981
64812SOL    HW196333   1.960  13.704   3.984
64812SOL    HW296334   2.023  13.825   3.919
64813SOL     OW96335   9.239   4.516  14.744
64813SOL    HW196336   9.284   4.431  14.743
64813SOL    HW296337   9.152   4.497  14.778
64814SOL     OW96338   0.666  10.025   9.357
64814SOL    HW196339   0.720  10.020   9.436
64814SOL    HW296340   0.602  10.094   9.376
64815SOL     OW96341  14.434   6.049  14.015
64815SOL    HW196342  14.413   5.979  14.077
64815SOL    HW296343  14.487   6.111  14.065
64816SOL     OW96344   5.665   2.148  13.197
64816SOL    HW196345   5.599   2.124  13.262
64816SOL    HW296346   5.650   2.088  13.124
64817SOL     OW96347   0.292   5.086   8.637
64817SOL    HW196348   0.211   5.036   8.645
64817SOL    HW296349   0.314   5.082   8.544
64818SOL     OW96350   7.931   0.015   6.883
64818SOL    HW196351   7.935   0.048   6.793
64818SOL    HW296352   8.001  14.818   6.887
64819SOL     OW96353   3.845   9.141   3.496
64819SOL    HW196354   3.855   9.057   3.451
64819SOL    HW296355   3.889   9.128   3.580
64820SOL     OW96356   2.220   9.684  12.743
64820SOL    HW196357   2.204   9.596  12.711
64820SOL    HW296358   2.132   9.721  12.756
64821SOL     OW96359   7.198  12.343  11.529
64821SOL    HW196360   7.167  12.283  11.596
64821SOL    HW296361   7.178  12.430  11.564
64822SOL     OW96362   8.014  13.033  12.962
64822SOL    HW196363   8.093  13.082  12.938
64822SOL    HW296364   7.985  13.071  13.044
64823SOL     OW96365   9.673   1.721   1.090
64823SOL    HW196366   9.753   1.712   1.142
64823SOL    HW296367   9.672   1.813   1.062
64824SOL     OW96368   7.450   4.931   7.175
64824SOL    HW196369   7.517   4.969   7.232
64824SOL    HW296370   7.480   4.950   7.086
64825SOL     OW96371   3.165   2.453   4.475
64825SOL    HW196372   3.086   2.417   4.517
64825SOL    HW296373   3.223   2.377   4.465
64826SOL     OW96374   7.873  12.834  14.091
64826SOL    HW196375   7.852  12.774  14.020
64826SOL    HW296376   7.789  12.872  14.116
64827SOL     OW96377   0.763   9.937   3.805
64827SOL    HW196378   0.791  10.022   3.772
64827SOL    HW296379   0.835   9.877   3.783
64828SOL     OW96380   1.841   0.367   8.396
64828SOL    HW196381   1.847   0.392   8.488
64828SOL    HW296382   1.748   0.354   8.380
64829SOL     OW96383   7.002   8.234  14.427
64829SOL    HW196384   7.038   8.282  14.501
64829SOL    HW296385   6.907   8.240  14.439
64830SOL     OW96386   8.653   6.045   0.890
64830SOL    HW196387   8.581   6.104   0.867
64830SOL    HW296388   8.725   6.073   0.834
64831SOL     OW96389  12.858  14.573   4.388
64831SOL    HW196390  12.943  14.581   4.344
64831SOL    HW296391  12.839  14.661   4.420
64832SOL     OW96392   8.453   7.171   7.906
64832SOL    HW196393   8.419   7.130   7.826
64832SOL    HW296394   8.397   7.138   7.976
64833SOL     OW96395   0.539  13.941  12.520
64833SOL    HW196396   0.522  14.034  12.534
64833SOL    HW296397   0.584  13.912  12.599
64834SOL     OW96398   3.426   8.557  12.924
64834SOL    HW196399   3.341   8.548  12.967
64834SOL    HW296400   3.422   8.494  12.852
64835SOL     OW96401  14.537  11.259   5.230
64835SOL    HW196402  14.558  11.311   5.152
64835SOL    HW296403  14.603  11.285   5.294
64836SOL     OW96404   4.333   9.756   3.629
64836SOL    HW196405   4.277   9.759   3.707
64836SOL    HW296406   4.289   9.694   3.571
64837SOL     OW96407   3.176   9.135   4.313
64837SOL    HW196408   3.254   9.165   4.359
64837SOL    HW296409   3.156   9.206   4.252
64838SOL     OW96410   6.180  10.519   9.500
64838SOL    HW196411   6.132  10.442   9.472
64838SOL    HW296412   6.164  10.584   9.431
64839SOL     OW96413  10.502   7.569   1.958
64839SOL    HW196414  10.531   7.615   2.037
64839SOL    HW296415  10.415   7.534   1.981
64840SOL     OW96416   7.291   9.566   3.867
64840SOL    HW196417   7.243   9.535   3.944
64840SOL    HW296418   7.377   9.592   3.902
64841SOL     OW96419  13.434  10.935  12.926
64841SOL    HW196420  13.386  10.858  12.954
64841SOL    HW296421  13.506  10.942  12.990
64842SOL     OW96422  11.701  12.115  11.866
64842SOL    HW196423  11.665  12.088  11.950
64842SOL    HW296424  11.653  12.194  11.843
64843SOL     OW96425   0.823  10.052  13.061
64843SOL    HW196426   0.861   9.972  13.027
64843SOL    HW296427   0.811  10.108  12.984
64844SOL     OW96428  10.871   0.288   6.056
64844SOL    HW196429  10.914   0.301   5.972
64844SOL    HW296430  10.851   0.194   6.058
64845SOL     OW96431   0.819  12.815   1.252
64845SOL    HW196432   0.788  12.726   1.265
64845SOL    HW296433   0.843  12.820   1.160
64846SOL     OW96434   9.436   4.610   7.903
64846SOL    HW196435   9.458   4.695   7.939
64846SOL    HW296436   9.345   4.596   7.927
64847SOL     OW96437   2.719  12.302   9.675
64847SOL    HW196438   2.684  12.362   9.742
64847SOL    HW296439   2.655  12.231   9.672
64848SOL     OW96440   2.181   8.319   5.095
64848SOL    HW196441   2.217   8.244   5.047
64848SOL    HW296442   2.088   8.300   5.102
64849SOL     OW96443   3.443  12.837  10.245
64849SOL    HW196444   3.513  12.824  10.181
64849SOL    HW296445   3.378  12.890  10.198
64850SOL     OW96446   6.600   5.588   9.114
64850SOL    HW196447   6.656   5.547   9.048
64850SOL    HW296448   6.519   5.537   9.112
64851SOL     OW96449   0.123   7.741   5.344
64851SOL    HW196450   0.132   7.694   5.261
64851SOL    HW296451   0.197   7.800   5.347
64852SOL     OW96452   5.037  11.162   3.280
64852SOL    HW196453   5.044  11.181   3.187
64852SOL    HW296454   5.033  11.249   3.322
64853SOL     OW96455  10.427  11.922   8.562
64853SOL    HW196456  10.443  11.890   8.473
64853SOL    HW296457  10.332  11.921   8.571
64854SOL     OW96458   9.207  11.476   7.408
64854SOL    HW196459   9.165  11.557   7.437
64854SOL    HW296460   9.287  11.471   7.459
64855SOL     OW96461   7.858   8.985  12.315
64855SOL    HW196462   7.813   8.902  12.299
64855SOL    HW296463   7.883   9.017  12.228
64856SOL     OW96464  13.826   2.427   9.362
64856SOL    HW196465  13.829   2.501   9.422
64856SOL    HW296466  13.806   2.466   9.277
64857SOL     OW96467   3.360   2.937   9.104
64857SOL    HW196468   3.395   2.852   9.130
64857SOL    HW296469   3.267   2.932   9.125
64858SOL     OW96470   2.108   0.667   6.902
64858SOL    HW196471   2.157   0.629   6.975
64858SOL    HW296472   2.020   0.680   6.937
64859SOL     OW96473   2.600  10.937  14.505
64859SOL    HW196474   2.675  10.991  14.479
64859SOL    HW296475   2.635  10.875  14.569
64860SOL     OW96476   3.884   2.612   7.245
64860SOL    HW196477   3.908   2.558   7.170
64860SOL    HW296478   3.918   2.699   7.224
64861SOL     OW96479   5.235   1.884  10.413
64861SOL    HW196480   5.242   1.806  10.359
64861SOL    HW296481   5.215   1.850  10.501
64862SOL     OW96482   2.617   0.263  10.747
64862SOL    HW196483   2.648   0.173  10.757
64862SOL    HW296484   2.680   0.316  10.797
64863SOL     OW96485  10.155   7.801   0.929
64863SOL    HW196486  10.220   7.732   0.919
64863SOL    HW296487  10.166   7.833   1.019
64864SOL     OW96488   6.493   0.249  12.333
64864SOL    HW196489   6.429   0.267  12.264
64864SOL    HW296490   6.514   0.335  12.369
64865SOL     OW96491   3.230  13.990   2.480
64865SOL    HW196492   3.207  14.079   2.450
64865SOL    HW296493   3.172  13.975   2.555
64866SOL     OW96494   3.564   3.725   4.027
64866SOL    HW196495   3.594   3.671   3.954
64866SOL    HW296496   3.469   3.728   4.016
64867SOL     OW96497   6.138   1.863   1.533
64867SOL    HW196498   6.078   1.915   1.480
64867SOL    HW296499   6.200   1.927   1.569
64868SOL     OW96500   3.477   4.622   9.623
64868SOL    HW196501   3.458   4.691   9.559
64868SOL    HW296502   3.414   4.638   9.694
64869SOL     OW96503   8.296  10.540  10.799
64869SOL    HW196504   8.245  10.473  10.846
64869SOL    HW296505   8.349  10.581  10.867
64870SOL     OW96506  12.980  12.081   5.603
64870SOL    HW196507  12.984  11.986   5.596
64870SOL    HW296508  13.069  12.111   5.585
64871SOL     OW96509   2.963  11.239   7.823
64871SOL    HW196510   2.916  11.307   7.871
64871SOL    HW296511   3.024  11.287   7.767
64872SOL     OW96512   9.716   1.724   4.137
64872SOL    HW196513   9.741   1.728   4.045
64872SOL    HW296514   9.734   1.812   4.171
64873SOL     OW96515  12.588   5.357   1.934
64873SOL    HW196516  12.675   5.324   1.915
64873SOL    HW296517  12.547   5.368   1.848
64874SOL     OW96518  11.952   3.483   8.928
64874SOL    HW196519  11.930   3.570   8.893
64874SOL    HW296520  12.023   3.500   8.990
64875SOL     OW96521   1.084   6.322  10.607
64875SOL    HW196522   1.005   6.377  10.615
64875SOL    HW296523   1.050   6.234  10.592
64876SOL     OW96524  11.688   7.103   2.777
64876SOL    HW196525  11.675   7.066   2.690
64876SOL    HW296526  11.600   7.117   2.811
64877SOL     OW96527  10.433  13.184   2.970
64877SOL    HW196528  10.480  13.180   3.053
64877SOL    HW296529  10.359  13.125   2.981
64878SOL     OW96530   5.417   7.912  10.758
64878SOL    HW196531   5.369   7.994  10.772
64878SOL    HW296532   5.469   7.901  10.838
64879SOL     OW96533  11.351   7.427   2.506
64879SOL    HW196534  11.408   7.436   2.583
64879SOL    HW296535  11.266   7.457   2.537
64880SOL     OW96536   1.247  13.642  13.986
64880SOL    HW196537   1.290  13.604  13.909
64880SOL    HW296538   1.189  13.709  13.950
64881SOL     OW96539   8.790   4.590   1.960
64881SOL    HW196540   8.746   4.530   1.899
64881SOL    HW296541   8.743   4.580   2.042
64882SOL     OW96542  10.278   2.160   3.041
64882SOL    HW196543  10.261   2.066   3.041
64882SOL    HW296544  10.191   2.200   3.032
64883SOL     OW96545   8.933   5.794   1.896
64883SOL    HW196546   8.886   5.718   1.932
64883SOL    HW296547   8.928   5.783   1.801
64884SOL     OW96548   6.830   7.814  10.626
64884SOL    HW196549   6.735   7.823  10.615
64884SOL    HW296550   6.867   7.861  10.552
64885SOL     OW96551   6.657   5.766   3.347
64885SOL    HW196552   6.578   5.717   3.325
64885SOL    HW296553   6.644   5.852   3.307
64886SOL     OW96554  12.821  11.272  14.012
64886SOL    HW196555  12.749  11.241  14.066
64886SOL    HW296556  12.895  11.216  14.037
64887SOL     OW96557   9.117  13.092   8.471
64887SOL    HW196558   9.122  13.002   8.439
64887SOL    HW296559   9.051  13.089   8.541
64888SOL     OW96560  14.240   1.371  14.571
64888SOL    HW196561  14.321   1.395  14.616
64888SOL    HW296562  14.226   1.442  14.508
64889SOL     OW96563   0.909   1.326   6.540
64889SOL    HW196564   0.833   1.379   6.519
64889SOL    HW296565   0.970   1.386   6.583
64890SOL     OW96566   0.155  11.181   8.844
64890SOL    HW196567   0.091  11.112   8.825
64890SOL    HW296568   0.191  11.157   8.929
64891SOL     OW96569   6.851   7.935   2.552
64891SOL    HW196570   6.810   7.918   2.467
64891SOL    HW296571   6.831   7.857   2.604
64892SOL     OW96572  10.079   4.879   4.680
64892SOL    HW196573  10.128   4.797   4.684
64892SOL    HW296574  10.104   4.919   4.597
64893SOL     OW96575   6.695   8.148  14.766
64893SOL    HW196576   6.697   8.083  14.696
64893SOL    HW296577   6.785   8.180  14.771
64894SOL     OW96578   0.020   6.083   3.097
64894SOL    HW196579  14.869   5.991   3.086
64894SOL    HW296580  14.805   6.125   3.112
64895SOL     OW96581   1.259   0.878   9.558
64895SOL    HW196582   1.218   0.847   9.477
64895SOL    HW296583   1.289   0.798   9.601
64896SOL     OW96584   6.423   8.836   6.619
64896SOL    HW196585   6.502   8.888   6.637
64896SOL    HW296586   6.400   8.858   6.529
64897SOL     OW96587   0.649   3.106   0.663
64897SOL    HW196588   0.724   3.094   0.720
64897SOL    HW296589   0.670   3.185   0.612
64898SOL     OW96590  11.770   2.938   9.908
64898SOL    HW196591  11.843   2.969   9.854
64898SOL    HW296592  11.712   3.014   9.916
64899SOL     OW96593   0.318  11.132   6.039
64899SOL    HW196594   0.242  11.091   5.999
64899SOL    HW296595   0.319  11.221   6.005
64900SOL     OW96596   9.946   3.484  14.088
64900SOL    HW196597   9.937   3.560  14.145
64900SOL    HW296598   9.860   3.442  14.089
64901SOL     OW96599   9.595  13.704  13.656
64901SOL    HW196600   9.633  13.646  13.722
64901SOL    HW296601   9.572  13.783  13.705
64902SOL     OW96602  13.960   7.887   1.484
64902SOL    HW196603  14.054   7.880   1.467
64902SOL    HW296604  13.952   7.869   1.578
64903SOL     OW96605   6.633  14.363   6.066
64903SOL    HW196606   6.691  14.306   6.116
64903SOL    HW296607   6.594  14.422   6.131
64904SOL     OW96608   2.310   4.202   1.057
64904SOL    HW196609   2.378   4.211   1.124
64904SOL    HW296610   2.312   4.109   1.034
64905SOL     OW96611  13.184  14.328  10.598
64905SOL    HW196612  13.134  14.295  10.524
64905SOL    HW296613  13.127  14.316  10.673
64906SOL     OW96614   7.056  13.811  13.042
64906SOL    HW196615   7.003  13.753  13.097
64906SOL    HW296616   7.001  13.827  12.965
64907SOL     OW96617  13.776  12.272   0.109
64907SOL    HW196618  13.870  12.258   0.097
64907SOL    HW296619  13.744  12.192   0.150
64908SOL     OW96620   6.647  10.490   4.180
64908SOL    HW196621   6.576  10.549   4.205
64908SOL    HW296622   6.666  10.512   4.089
64909SOL     OW96623   7.593  10.689   5.458
64909SOL    HW196624   7.573  10.621   5.523
64909SOL    HW296625   7.543  10.664   5.381
64910SOL     OW96626   9.349  14.190  11.250
64910SOL    HW196627   9.362  14.174  11.344
64910SOL    HW296628   9.437  14.197  11.215
64911SOL     OW96629  12.773   9.895   1.338
64911SOL    HW196630  12.838   9.838   1.296
64911SOL    HW296631  12.709   9.913   1.269
64912SOL     OW96632   6.747   1.651  10.846
64912SOL    HW196633   6.692   1.612  10.914
64912SOL    HW296634   6.693   1.719  10.807
64913SOL     OW96635  12.287  14.815   1.127
64913SOL    HW196636  12.327  14.783   1.047
64913SOL    HW296637  12.342  14.779   1.198
64914SOL     OW96638  14.774   2.558   9.539
64914SOL    HW196639  14.858   2.513   9.553
64914SOL    HW296640  14.773   2.579   9.446
64915SOL     OW96641   4.582   2.474   2.557
64915SOL    HW196642   4.573   2.447   2.648
64915SOL    HW296643   4.607   2.567   2.562
64916SOL     OW96644   3.858   4.533  10.161
64916SOL    HW196645   3.795   4.469  10.195
64916SOL    HW296646   3.897   4.490  10.085
64917SOL     OW96647   5.552   9.261   9.562
64917SOL    HW196648   5.584   9.247   9.651
64917SOL    HW296649   5.611   9.327   9.525
64918SOL     OW96650   7.353  13.733  13.066
64918SOL    HW196651   7.382  13.773  13.149
64918SOL    HW296652   7.273  13.782  13.043
64919SOL     OW96653  12.845   8.164  12.282
64919SOL    HW196654  12.871   8.222  12.210
64919SOL    HW296655  12.751   8.181  12.293
64920SOL     OW96656   6.589   1.132   7.485
64920SOL    HW196657   6.648   1.190   7.533
64920SOL    HW296658   6.538   1.191   7.429
64921SOL     OW96659   1.924   9.471   5.304
64921SOL    HW196660   1.888   9.511   5.383
64921SOL    HW296661   1.906   9.535   5.235
64922SOL     OW96662   9.998  12.789   5.173
64922SOL    HW196663  10.093  12.783   5.177
64922SOL    HW296664   9.967  12.708   5.213
64923SOL     OW96665   0.163   9.867  10.988
64923SOL    HW196666   0.140   9.923  10.914
64923SOL    HW296667   0.093   9.882  11.051
64924SOL     OW96668   3.190  11.032   9.757
64924SOL    HW196669   3.207  11.082   9.837
64924SOL    HW296670   3.156  11.098   9.696
64925SOL     OW96671  14.658  14.819   1.304
64925SOL    HW196672  14.583  14.778   1.348
64925SOL    HW296673  14.620   0.014   1.244
64926SOL     OW96674  11.277   4.348  10.863
64926SOL    HW196675  11.222   4.273  10.842
64926SOL    HW296676  11.218   4.408  10.910
64927SOL     OW96677  13.105  11.603  12.756
64927SOL    HW196678  13.145  11.684  12.723
64927SOL    HW296679  13.125  11.537  12.689
64928SOL     OW96680   3.969  11.370   1.457
64928SOL    HW196681   4.035  11.348   1.523
64928SOL    HW296682   3.970  11.297   1.395
64929SOL     OW96683   8.546   3.883   4.428
64929SOL    HW196684   8.546   3.804   4.374
64929SOL    HW296685   8.635   3.890   4.461
64930SOL     OW96686  14.240   8.943   7.232
64930SOL    HW196687  14.276   8.959   7.145
64930SOL    HW296688  14.159   8.993   7.234
64931SOL     OW96689   6.214   6.997   5.908
64931SOL    HW196690   6.148   6.982   5.841
64931SOL    HW296691   6.242   6.910   5.936
64932SOL     OW96692   2.863  12.132   5.727
64932SOL    HW196693   2.794  12.170   5.780
64932SOL    HW296694   2.929  12.104   5.790
64933SOL     OW96695  11.489   2.178  14.036
64933SOL    HW196696  11.569   2.166  14.086
64933SOL    HW296697  11.509   2.141  13.950
64934SOL     OW96698   7.228  14.302   9.145
64934SOL    HW196699   7.251  14.335   9.058
64934SOL    HW296700   7.311  14.267   9.179
64935SOL     OW96701   7.956   3.105   2.842
64935SOL    HW196702   8.004   3.162   2.901
64935SOL    HW296703   7.953   3.153   2.759
64936SOL     OW96704   3.509  12.313  12.852
64936SOL    HW196705   3.493  12.330  12.945
64936SOL    HW296706   3.438  12.358  12.806
64937SOL     OW96707   7.389  11.680   5.079
64937SOL    HW196708   7.361  11.727   5.000
64937SOL    HW296709   7.455  11.618   5.048
64938SOL     OW96710   1.745   7.968   6.241
64938SOL    HW196711   1.695   8.000   6.316
64938SOL    HW296712   1.800   8.042   6.216
64939SOL     OW96713   0.691  13.137   0.763
64939SOL    HW196714   0.767  13.079   0.765
64939SOL    HW296715   0.705  13.193   0.687
64940SOL     OW96716  11.409   1.966  10.874
64940SOL    HW196717  11.438   2.057  10.877
64940SOL    HW296718  11.463   1.921  10.938
64941SOL     OW96719   7.365  14.096   1.372
64941SOL    HW196720   7.348  14.187   1.399
64941SOL    HW296721   7.278  14.055   1.373
64942SOL     OW96722  10.107   9.986  13.189
64942SOL    HW196723  10.169   9.915  13.205
64942SOL    HW296724  10.150  10.064  13.223
64943SOL     OW96725  10.118  12.649   1.370
64943SOL    HW196726  10.063  12.724   1.392
64943SOL    HW296727  10.162  12.674   1.289
64944SOL     OW96728   2.658  14.807  14.727
64944SOL    HW196729   2.667   0.007  14.662
64944SOL    HW296730   2.576  14.828  14.773
64945SOL     OW96731   3.205  11.867   6.789
64945SOL    HW196732   3.225  11.897   6.877
64945SOL    HW296733   3.182  11.947   6.741
64946SOL     OW96734   1.597   0.983   5.416
64946SOL    HW196735   1.576   1.076   5.415
64946SOL    HW296736   1.568   0.951   5.331
64947SOL     OW96737  14.727   8.377   3.552
64947SOL    HW196738  14.658   8.435   3.584
64947SOL    HW296739  14.732   8.307   3.618
64948SOL     OW96740   1.630   5.691  14.315
64948SOL    HW196741   1.700   5.637  14.353
64948SOL    HW296742   1.592   5.738  14.390
64949SOL     OW96743  13.687   0.202   8.275
64949SOL    HW196744  13.738   0.179   8.197
64949SOL    HW296745  13.599   0.169   8.257
64950SOL     OW96746   0.807   3.253   6.697
64950SOL    HW196747   0.804   3.317   6.768
64950SOL    HW296748   0.821   3.170   6.741
64951SOL     OW96749  14.489   0.858   5.586
64951SOL    HW196750  14.472   0.926   5.651
64951SOL    HW296751  14.573   0.881   5.548
64952SOL     OW96752   5.927  11.313   6.982
64952SOL    HW196753   6.014  11.288   6.952
64952SOL    HW296754   5.937  11.402   7.014
64953SOL     OW96755   6.754   5.745  10.930
64953SOL    HW196756   6.834   5.796  10.946
64953SOL    HW296757   6.706   5.795  10.864
64954SOL     OW96758  11.652   3.008  12.916
64954SOL    HW196759  11.562   3.042  12.911
64954SOL    HW296760  11.676   2.990  12.825
64955SOL     OW96761   8.670   0.524   2.701
64955SOL    HW196762   8.666   0.428   2.707
64955SOL    HW296763   8.658   0.543   2.608
64956SOL     OW96764  11.212   8.760   9.961
64956SOL    HW196765  11.150   8.765   9.888
64956SOL    HW296766  11.287   8.712   9.925
64957SOL     OW96767  13.841   0.898   9.469
64957SOL    HW196768  13.797   0.861   9.392
64957SOL    HW296769  13.832   0.993   9.458
64958SOL     OW96770   1.958   8.054   6.469
64958SOL    HW196771   1.968   8.103   6.387
64958SOL    HW296772   1.880   7.999   6.454
64959SOL     OW96773  10.134  11.765   9.330
64959SOL    HW196774  10.184  11.698   9.283
64959SOL    HW296775  10.155  11.749   9.423
64960SOL     OW96776   1.541   0.988   9.400
64960SOL    HW196777   1.544   0.928   9.474
64960SOL    HW296778   1.465   1.043   9.415
64961SOL     OW96779  10.630  13.724   0.533
64961SOL    HW196780  10.571  13.739   0.459
64961SOL    HW296781  10.638  13.629   0.540
64962SOL     OW96782   6.850   0.201   9.447
64962SOL    HW196783   6.923   0.192   9.387
64962SOL    HW296784   6.890   0.209   9.534
64963SOL     OW96785   4.502   8.089  10.744
64963SOL    HW196786   4.555   8.166  10.761
64963SOL    HW296787   4.557   8.033  10.690
64964SOL     OW96788   4.421   6.669   7.563
64964SOL    HW196789   4.345   6.725   7.580
64964SOL    HW296790   4.409   6.640   7.472
64965SOL     OW96791   7.024   5.056  13.243
64965SOL    HW196792   6.960   5.106  13.293
64965SOL    HW296793   7.076   5.010  13.309
64966SOL     OW96794   2.292  13.668   9.085
64966SOL    HW196795   2.210  13.712   9.065
64966SOL    HW296796   2.282  13.580   9.050
64967SOL     OW96797  11.644  11.620   6.970
64967SOL    HW196798  11.622  11.643   7.060
64967SOL    HW296799  11.581  11.669   6.917
64968SOL     OW96800   7.274   3.021  10.536
64968SOL    HW196801   7.347   3.042  10.479
64968SOL    HW296802   7.203   2.997  10.477
64969SOL     OW96803   1.938   9.225   2.481
64969SOL    HW196804   1.959   9.134   2.498
64969SOL    HW296805   1.944   9.268   2.567
64970SOL     OW96806   8.988   6.775  12.342
64970SOL    HW196807   9.033   6.720  12.278
64970SOL    HW296808   9.011   6.737  12.427
64971SOL     OW96809  14.524   4.688  13.496
64971SOL    HW196810  14.478   4.627  13.554
64971SOL    HW296811  14.508   4.654  13.408
64972SOL     OW96812   9.707  13.820   1.685
64972SOL    HW196813   9.792  13.863   1.678
64972SOL    HW296814   9.652  13.865   1.621
64973SOL     OW96815   0.252   4.601   5.261
64973SOL    HW196816   0.179   4.539   5.255
64973SOL    HW296817   0.210   4.687   5.264
64974SOL     OW96818   7.929   0.052   9.867
64974SOL    HW196819   7.844   0.053   9.910
64974SOL    HW296820   7.911   0.018   9.780
64975SOL     OW96821  12.468  11.762   9.473
64975SOL    HW196822  12.503  11.844   9.508
64975SOL    HW296823  12.529  11.739   9.403
64976SOL     OW96824  10.140  11.004  10.436
64976SOL    HW196825  10.051  10.986  10.466
64976SOL    HW296826  10.196  10.955  10.497
64977SOL     OW96827   1.838  13.923  10.269
64977SOL    HW196828   1.760  13.957  10.226
64977SOL    HW296829   1.906  13.986  10.248
64978SOL     OW96830   3.946   5.075   4.543
64978SOL    HW196831   3.933   5.008   4.476
64978SOL    HW296832   3.996   5.143   4.499
64979SOL     OW96833   8.681   9.903  13.522
64979SOL    HW196834   8.600   9.926  13.477
64979SOL    HW296835   8.669   9.811  13.547
64980SOL     OW96836   6.566   2.956   5.473
64980SOL    HW196837   6.612   2.875   5.451
64980SOL    HW296838   6.563   3.005   5.391
64981SOL     OW96839   4.794   9.809  14.588
64981SOL    HW196840   4.745   9.769  14.660
64981SOL    HW296841   4.800   9.902  14.612
64982SOL     OW96842   6.776   7.479   8.669
64982SOL    HW196843   6.693   7.433   8.684
64982SOL    HW296844   6.752   7.571   8.666
64983SOL     OW96845   5.488   9.627   4.445
64983SOL    HW196846   5.533   9.676   4.376
64983SOL    HW296847   5.532   9.653   4.525
64984SOL     OW96848   8.479   6.819  12.438
64984SOL    HW196849   8.506   6.898  12.390
64984SOL    HW296850   8.562   6.774  12.456
64985SOL     OW96851  12.320   7.215  13.762
64985SOL    HW196852  12.415   7.207  13.750
64985SOL    HW296853  12.302   7.308  13.749
64986SOL     OW96854   1.329  10.103  14.498
64986SOL    HW196855   1.268  10.037  14.464
64986SOL    HW296856   1.344  10.076  14.588
64987SOL     OW96857  10.914  11.265   6.191
64987SOL    HW196858  10.965  11.342   6.217
64987SOL    HW296859  10.904  11.216   6.272
64988SOL     OW96860   2.677   5.239  10.434
64988SOL    HW196861   2.600   5.243  10.377
64988SOL    HW296862   2.740   5.298  10.393
64989SOL     OW96863  14.555   8.932   0.788
64989SOL    HW196864  14.644   8.899   0.795
64989SOL    HW296865  14.514   8.877   0.721
64990SOL     OW96866   4.695   1.302   3.335
64990SOL    HW196867   4.788   1.323   3.327
64990SOL    HW296868   4.663   1.361   3.404
64991SOL     OW96869   9.963  10.164   1.929
64991SOL    HW196870   9.896  10.097   1.916
64991SOL    HW296871   9.921  10.245   1.900
64992SOL     OW96872  13.588  11.072   7.308
64992SOL    HW196873  13.507  11.071   7.258
64992SOL    HW296874  13.648  11.018   7.256
64993SOL     OW96875   0.322  10.429  14.396
64993SOL    HW196876   0.280  10.434  14.310
64993SOL    HW296877   0.310  10.516  14.434
64994SOL     OW96878   0.504   3.539   9.957
64994SOL    HW196879   0.418   3.500   9.945
64994SOL    HW296880   0.515   3.546  10.052
64995SOL     OW96881   1.772  12.381   7.805
64995SOL    HW196882   1.799  12.314   7.742
64995SOL    HW296883   1.704  12.339   7.857
64996SOL     OW96884   2.631   5.992   2.601
64996SOL    HW196885   2.571   6.021   2.670
64996SOL    HW296886   2.603   5.904   2.580
64997SOL     OW96887  10.643   3.628   5.001
64997SOL    HW196888  10.702   3.674   5.059
64997SOL    HW296889  10.562   3.618   5.052
64998SOL     OW96890  11.567   0.167   9.422
64998SOL    HW196891  11.617   0.126   9.492
64998SOL    HW296892  11.598   0.258   9.421
64999SOL     OW96893   5.281   6.362   3.511
64999SOL    HW196894   5.312   6.325   3.594
64999SOL    HW296895   5.232   6.440   3.536
65000SOL     OW96896  14.501  11.389   6.851
65000SOL    HW196897  14.545  11.436   6.923
65000SOL    HW296898  14.499  11.298   6.880
65001SOL     OW96899   2.201  11.537   1.004
65001SOL    HW196900   2.220  11.591   1.080
65001SOL    HW296901   2.110  11.555   0.983
65002SOL     OW96902   7.912   6.410   3.368
65002SOL    HW196903   7.952   6.353   3.433
65002SOL    HW296904   7.926   6.366   3.285
65003SOL     OW96905   2.181   4.102  13.046
65003SOL    HW196906   2.246   4.154  13.000
65003SOL    HW296907   2.120   4.073  12.978
65004SOL     OW96908  10.070   9.745  13.835
65004SOL    HW196909  10.085   9.774  13.745
65004SOL    HW296910  10.158   9.741  13.873
65005SOL     OW96911   0.668   7.598  10.702
65005SOL    HW196912   0.757   7.586  10.670
65005SOL    HW296913   0.631   7.666  10.645
65006SOL     OW96914   7.801  11.871  14.592
65006SOL    HW196915   7.765  11.917  14.669
65006SOL    HW296916   7.894  11.894  14.592
65007SOL     OW96917   5.232   0.766   9.259
65007SOL    HW196918   5.286   0.761   9.338
65007SOL    HW296919   5.159   0.822   9.283
65008SOL     OW96920   8.757  10.904   6.693
65008SOL    HW196921   8.804  10.826   6.723
65008SOL    HW296922   8.678  10.906   6.747
65009SOL     OW96923  12.947  11.638   4.923
65009SOL    HW196924  12.939  11.638   5.018
65009SOL    HW296925  12.861  11.610   4.891
65010SOL     OW96926   4.119   0.154  13.447
65010SOL    HW196927   4.083   0.236  13.413
65010SOL    HW296928   4.049   0.090  13.433
65011SOL     OW96929   5.348  13.304  13.276
65011SOL    HW196930   5.365  13.211  13.265
65011SOL    HW296931   5.252  13.311  13.280
65012SOL     OW96932   3.976   0.703   4.823
65012SOL    HW196933   4.019   0.699   4.738
65012SOL    HW296934   4.039   0.663   4.883
65013SOL     OW96935   7.468   9.787   4.075
65013SOL    HW196936   7.481   9.767   4.168
65013SOL    HW296937   7.554   9.773   4.036
65014SOL     OW96938  14.751   7.246   1.487
65014SOL    HW196939  14.724   7.184   1.420
65014SOL    HW296940  14.830   7.208   1.526
65015SOL     OW96941   5.741  14.542  12.336
65015SOL    HW196942   5.748  14.490  12.256
65015SOL    HW296943   5.696  14.486  12.398
65016SOL     OW96944  12.991   0.669   5.523
65016SOL    HW196945  12.969   0.684   5.615
65016SOL    HW296946  13.014   0.756   5.489
65017SOL     OW96947   7.086   8.111   2.565
65017SOL    HW196948   7.086   8.174   2.493
65017SOL    HW296949   7.013   8.053   2.544
65018SOL     OW96950  11.890   1.298   5.953
65018SOL    HW196951  11.796   1.280   5.946
65018SOL    HW296952  11.897   1.372   6.013
65019SOL     OW96953   2.441  13.871   7.601
65019SOL    HW196954   2.421  13.795   7.546
65019SOL    HW296955   2.443  13.836   7.690
65020SOL     OW96956   4.129   1.572   0.606
65020SOL    HW196957   4.101   1.570   0.698
65020SOL    HW296958   4.050   1.596   0.557
65021SOL     OW96959  14.495  12.876   7.700
65021SOL    HW196960  14.453  12.894   7.616
65021SOL    HW296961  14.471  12.951   7.755
65022SOL     OW96962   4.876   6.340   7.269
65022SOL    HW196963   4.848   6.396   7.342
65022SOL    HW296964   4.920   6.266   7.311
65023SOL     OW96965   9.743  10.756  14.507
65023SOL    HW196966   9.777  10.774  14.595
65023SOL    HW296967   9.815  10.712  14.462
65024SOL     OW96968   0.136   2.618   6.631
65024SOL    HW196969   0.164   2.709   6.626
65024SOL    HW296970   0.192   2.571   6.569
65025SOL     OW96971  11.784   9.076  11.588
65025SOL    HW196972  11.874   9.061  11.617
65025SOL    HW296973  11.756   9.154  11.637
65026SOL     OW96974   9.996   8.288   9.448
65026SOL    HW196975  10.005   8.219   9.382
65026SOL    HW296976   9.904   8.313   9.444
65027SOL     OW96977   1.663   1.411  10.675
65027SOL    HW196978   1.739   1.406  10.732
65027SOL    HW296979   1.674   1.340  10.613
65028SOL     OW96980   0.219   6.123   2.114
65028SOL    HW196981   0.160   6.098   2.185
65028SOL    HW296982   0.220   6.218   2.116
65029SOL     OW96983   5.858   6.573  14.032
65029SOL    HW196984   5.882   6.614  14.115
65029SOL    HW296985   5.762   6.577  14.030
65030SOL     OW96986   4.248   2.738   4.958
65030SOL    HW196987   4.168   2.718   5.007
65030SOL    HW296988   4.217   2.764   4.871
65031SOL     OW96989   8.577   3.733   1.684
65031SOL    HW196990   8.541   3.781   1.759
65031SOL    HW296991   8.664   3.770   1.671
65032SOL     OW96992   3.895   7.769   0.917
65032SOL    HW196993   3.863   7.686   0.952
65032SOL    HW296994   3.857   7.774   0.829
65033SOL     OW96995   6.341   2.592  13.236
65033SOL    HW196996   6.341   2.552  13.149
65033SOL    HW296997   6.416   2.553  13.281
65034SOL     OW96998   8.544   6.449   9.789
65034SOL    HW196999   8.495   6.507   9.731
65034SOL    HW297000   8.568   6.375   9.734
65035SOL     OW97001  14.337   3.268  12.668
65035SOL    HW197002  14.388   3.264  12.749
65035SOL    HW297003  14.259   3.318  12.692
65036SOL     OW97004   0.748   7.582  12.587
65036SOL    HW197005   0.699   7.657  12.621
65036SOL    HW297006   0.775   7.609  12.500
65037SOL     OW97007   0.103   2.005  12.933
65037SOL    HW197008   0.016   1.977  12.905
65037SOL    HW297009   0.094   2.099  12.947
65038SOL     OW97010  12.667  10.831   7.338
65038SOL    HW197011  12.749  10.784   7.321
65038SOL    HW297012  12.607  10.764   7.371
65039SOL     OW97013   3.544   2.710   9.159
65039SOL    HW197014   3.551   2.675   9.070
65039SOL    HW297015   3.574   2.639   9.216
65040SOL     OW97016   7.047   3.848  10.032
65040SOL    HW197017   7.061   3.852  10.126
65040SOL    HW297018   7.104   3.916   9.997
65041SOL     OW97019  13.147   3.101  14.286
65041SOL    HW197020  13.098   3.128  14.364
65041SOL    HW297021  13.213   3.041  14.320
65042SOL     OW97022  11.561  11.501   4.599
65042SOL    HW197023  11.521  11.441   4.536
65042SOL    HW297024  11.548  11.588   4.561
65043SOL     OW97025   4.943   5.731   0.840
65043SOL    HW197026   4.880   5.782   0.789
65043SOL    HW297027   4.969   5.660   0.782
65044SOL     OW97028  14.286  13.009   3.453
65044SOL    HW197029  14.198  12.978   3.475
65044SOL    HW297030  14.327  12.936   3.408
65045SOL     OW97031   1.474   8.635   7.471
65045SOL    HW197032   1.505   8.554   7.511
65045SOL    HW297033   1.382   8.641   7.497
65046SOL     OW97034   8.484  10.712   7.833
65046SOL    HW197035   8.470  10.771   7.907
65046SOL    HW297036   8.398  10.672   7.816
65047SOL     OW97037   9.371   3.768  14.270
65047SOL    HW197038   9.292   3.729  14.307
65047SOL    HW297039   9.432   3.694  14.262
65048SOL     OW97040   4.074   3.531   3.895
65048SOL    HW197041   4.145   3.572   3.945
65048SOL    HW297042   3.995   3.548   3.947
65049SOL     OW97043   8.374   1.698   3.994
65049SOL    HW197044   8.306   1.664   4.053
65049SOL    HW297045   8.325   1.731   3.918
65050SOL     OW97046  14.091   0.141   0.656
65050SOL    HW197047  14.116   0.062   0.705
65050SOL    HW297048  14.029   0.109   0.591
65051SOL     OW97049   7.807   5.342   9.069
65051SOL    HW197050   7.799   5.361   8.976
65051SOL    HW297051   7.733   5.284   9.089
65052SOL     OW97052   8.996   5.255  13.213
65052SOL    HW197053   8.911   5.290  13.239
65052SOL    HW297054   9.027   5.206  13.289
65053SOL     OW97055   8.524  10.710   5.784
65053SOL    HW197056   8.565  10.682   5.702
65053SOL    HW297057   8.476  10.790   5.761
65054SOL     OW97058   9.273  12.802   2.019
65054SOL    HW197059   9.349  12.856   1.997
65054SOL    HW297060   9.197  12.858   2.002
65055SOL     OW97061   5.410  14.426  13.087
65055SOL    HW197062   5.458  14.465  13.160
65055SOL    HW297063   5.333  14.482  13.077
65056SOL     OW97064   9.859  14.586  11.357
65056SOL    HW197065   9.893  14.666  11.396
65056SOL    HW297066   9.843  14.527  11.431
65057SOL     OW97067   1.855   3.227  13.804
65057SOL    HW197068   1.948   3.213  13.824
65057SOL    HW297069   1.838   3.171  13.728
65058SOL     OW97070   9.389   2.857  12.961
65058SOL    HW197071   9.382   2.852  12.866
65058SOL    HW297072   9.476   2.822  12.981
65059SOL     OW97073   7.780  13.303   3.134
65059SOL    HW197074   7.712  13.295   3.201
65059SOL    HW297075   7.801  13.396   3.133
65060SOL     OW97076   4.355   6.143   2.221
65060SOL    HW197077   4.272   6.128   2.267
65060SOL    HW297078   4.344   6.100   2.136
65061SOL     OW97079  11.096  14.403  11.337
65061SOL    HW197080  11.144  14.325  11.306
65061SOL    HW297081  11.084  14.388  11.431
65062SOL     OW97082  12.296   7.964   5.084
65062SOL    HW197083  12.284   8.052   5.118
65062SOL    HW297084  12.243   7.908   5.141
65063SOL     OW97085   9.406   0.237  12.156
65063SOL    HW197086   9.341   0.246  12.086
65063SOL    HW297087   9.486   0.276  12.119
65064SOL     OW97088  10.642  11.589   8.503
65064SOL    HW197089  10.604  11.643   8.572
65064SOL    HW297090  10.677  11.653   8.440
65065SOL     OW97091   4.017  10.882   3.766
65065SOL    HW197092   3.987  10.830   3.691
65065SOL    HW297093   4.107  10.852   3.780
65066SOL     OW97094  13.727   6.859   5.358
65066SOL    HW197095  13.738   6.954   5.362
65066SOL    HW297096  13.811   6.827   5.326
65067SOL     OW97097   6.025   8.422   6.135
65067SOL    HW197098   6.056   8.411   6.046
65067SOL    HW297099   6.021   8.334   6.171
65068SOL     OW97100  10.156   2.407   8.064
65068SOL    HW197101  10.187   2.347   7.997
65068SOL    HW297102  10.123   2.483   8.016
65069SOL     OW97103  10.194   9.795   4.728
65069SOL    HW197104  10.215   9.729   4.794
65069SOL    HW297105  10.108   9.770   4.695
65070SOL     OW97106  10.191   7.455   7.421
65070SOL    HW197107  10.187   7.545   7.451
65070SOL    HW297108  10.109   7.441   7.375
65071SOL     OW97109   3.721   3.936  10.366
65071SOL    HW197110   3.644   3.879  10.361
65071SOL    HW297111   3.710   3.997  10.294
65072SOL     OW97112   9.435  12.906   3.230
65072SOL    HW197113   9.445  12.967   3.303
65072SOL    HW297114   9.467  12.823   3.264
65073SOL     OW97115   0.494   4.557   4.759
65073SOL    HW197116   0.441   4.633   4.735
65073SOL    HW297117   0.480   4.495   4.687
65074SOL     OW97118   7.157   0.062  14.785
65074SOL    HW197119   7.091   0.047  14.717
65074SOL    HW297120   7.109   0.052  14.867
65075SOL     OW97121   3.998   7.517   1.458
65075SOL    HW197122   4.009   7.503   1.552
65075SOL    HW297123   3.974   7.431   1.424
65076SOL     OW97124   7.680   7.488   8.162
65076SOL    HW197125   7.669   7.411   8.106
65076SOL    HW297126   7.654   7.457   8.249
65077SOL     OW97127   4.781   4.348  11.253
65077SOL    HW197128   4.828   4.419  11.209
65077SOL    HW297129   4.731   4.305  11.184
65078SOL     OW97130   8.977   1.084  10.174
65078SOL    HW197131   9.032   1.066  10.250
65078SOL    HW297132   8.894   1.114  10.210
65079SOL     OW97133  13.452   1.605  13.636
65079SOL    HW197134  13.404   1.681  13.669
65079SOL    HW297135  13.491   1.566  13.714
65080SOL     OW97136   7.817   9.407  11.714
65080SOL    HW197137   7.734   9.451  11.732
65080SOL    HW297138   7.793   9.315  11.702
65081SOL     OW97139  10.764   1.903  13.898
65081SOL    HW197140  10.791   1.994  13.892
65081SOL    HW297141  10.806   1.860  13.824
65082SOL     OW97142  10.348   2.471   4.412
65082SOL    HW197143  10.440   2.466   4.385
65082SOL    HW297144  10.319   2.380   4.412
65083SOL     OW97145   8.692  11.910  12.900
65083SOL    HW197146   8.622  11.967  12.868
65083SOL    HW297147   8.674  11.899  12.993
65084SOL     OW97148  13.548   6.307  11.371
65084SOL    HW197149  13.504   6.367  11.431
65084SOL    HW297150  13.563   6.228  11.423
65085SOL     OW97151   6.535   1.037   4.159
65085SOL    HW197152   6.525   1.041   4.064
65085SOL    HW297153   6.468   1.098   4.192
65086SOL     OW97154   2.601   6.659   3.343
65086SOL    HW197155   2.618   6.740   3.295
65086SOL    HW297156   2.674   6.602   3.320
65087SOL     OW97157  12.127  13.059   7.788
65087SOL    HW197158  12.090  13.064   7.700
65087SOL    HW297159  12.174  12.976   7.790
65088SOL     OW97160  12.128  14.017   1.235
65088SOL    HW197161  12.178  14.024   1.317
65088SOL    HW297162  12.048  13.971   1.259
65089SOL     OW97163  14.683  10.036  12.535
65089SOL    HW197164  14.666   9.957  12.484
65089SOL    HW297165  14.750  10.010  12.598
65090SOL     OW97166   1.852   1.285   0.555
65090SOL    HW197167   1.776   1.301   0.498
65090SOL    HW297168   1.851   1.190   0.569
65091SOL     OW97169   6.787   4.733   2.156
65091SOL    HW197170   6.695   4.736   2.127
65091SOL    HW297171   6.837   4.751   2.076
65092SOL     OW97172   9.756   4.718   6.051
65092SOL    HW197173   9.793   4.681   5.971
65092SOL    HW297174   9.718   4.801   6.023
65093SOL     OW97175  12.032   4.450   1.829
65093SOL    HW197176  12.127   4.463   1.822
65093SOL    HW297177  12.020   4.357   1.811
65094SOL     OW97178  10.169   7.695   8.546
65094SOL    HW197179  10.084   7.739   8.542
65094SOL    HW297180  10.229   7.763   8.578
65095SOL     OW97181   5.647  13.313   5.213
65095SOL    HW197182   5.680  13.396   5.246
65095SOL    HW297183   5.634  13.327   5.119
65096SOL     OW97184   5.892   9.234   8.046
65096SOL    HW197185   5.923   9.144   8.037
65096SOL    HW297186   5.933   9.265   8.127
65097SOL     OW97187   4.416  11.082   5.901
65097SOL    HW197188   4.382  11.006   5.950
65097SOL    HW297189   4.366  11.082   5.820
65098SOL     OW97190   3.263   6.814  12.297
65098SOL    HW197191   3.176   6.809  12.337
65098SOL    HW297192   3.247   6.843  12.207
65099SOL     OW97193   6.165   3.363   2.762
65099SOL    HW197194   6.076   3.338   2.736
65099SOL    HW297195   6.222   3.308   2.707
65100SOL     OW97196   7.977   6.517   1.469
65100SOL    HW197197   7.900   6.540   1.521
65100SOL    HW297198   8.048   6.515   1.533
65101SOL     OW97199   0.146   9.810  13.839
65101SOL    HW197200   0.062   9.767  13.856
65101SOL    HW297201   0.210   9.753  13.882
65102SOL     OW97202   8.632   4.748  14.050
65102SOL    HW197203   8.603   4.726  14.138
65102SOL    HW297204   8.663   4.838  14.057
65103SOL     OW97205   7.294  13.971  10.193
65103SOL    HW197206   7.282  14.054  10.238
65103SOL    HW297207   7.344  13.994  10.114
65104SOL     OW97208  14.429   1.627  12.173
65104SOL    HW197209  14.474   1.679  12.106
65104SOL    HW297210  14.452   1.537  12.153
65105SOL     OW97211   1.998  12.069  13.162
65105SOL    HW197212   1.999  12.160  13.133
65105SOL    HW297213   2.019  12.073  13.255
65106SOL     OW97214   2.225  11.604   0.098
65106SOL    HW197215   2.138  11.567   0.115
65106SOL    HW297216   2.226  11.687   0.144
65107SOL     OW97217  14.339   4.733  10.139
65107SOL    HW197218  14.275   4.672  10.103
65107SOL    HW297219  14.419   4.681  10.150
65108SOL     OW97220   3.299  13.008   6.392
65108SOL    HW197221   3.345  13.038   6.314
65108SOL    HW297222   3.206  13.018   6.369
65109SOL     OW97223  10.614  11.400  10.342
65109SOL    HW197224  10.543  11.394  10.405
65109SOL    HW297225  10.572  11.389  10.257
65110SOL     OW97226  14.712   5.411  11.753
65110SOL    HW197227  14.763   5.434  11.676
65110SOL    HW297228  14.733   5.479  11.817
65111SOL     OW97229   4.260   1.094   6.649
65111SOL    HW197230   4.203   1.144   6.591
65111SOL    HW297231   4.308   1.035   6.591
65112SOL     OW97232   2.018   6.428   7.654
65112SOL    HW197233   2.102   6.400   7.690
65112SOL    HW297234   1.983   6.487   7.721
65113SOL     OW97235  11.577   9.391   4.236
65113SOL    HW197236  11.485   9.384   4.263
65113SOL    HW297237  11.578   9.358   4.146
65114SOL     OW97238  11.157   3.460   9.941
65114SOL    HW197239  11.064   3.441   9.954
65114SOL    HW297240  11.187   3.497  10.024
65115SOL     OW97241  13.221   4.561   3.882
65115SOL    HW197242  13.211   4.558   3.787
65115SOL    HW297243  13.161   4.630   3.910
65116SOL     OW97244  13.021   1.162   5.165
65116SOL    HW197245  13.061   1.164   5.251
65116SOL    HW297246  13.079   1.214   5.109
65117SOL     OW97247   6.574  13.420   0.541
65117SOL    HW197248   6.656  13.394   0.498
65117SOL    HW297249   6.544  13.496   0.492
65118SOL     OW97250   6.422  11.334  10.419
65118SOL    HW197251   6.472  11.375  10.490
65118SOL    HW297252   6.457  11.245  10.413
65119SOL     OW97253   0.556  11.014  13.498
65119SOL    HW197254   0.527  10.986  13.584
65119SOL    HW297255   0.475  11.034  13.451
65120SOL     OW97256   6.353  10.563   4.754
65120SOL    HW197257   6.316  10.504   4.688
65120SOL    HW297258   6.387  10.505   4.822
65121SOL     OW97259   0.343   3.973   0.443
65121SOL    HW197260   0.379   4.035   0.506
65121SOL    HW297261   0.406   3.971   0.372
65122SOL     OW97262   1.774  10.562   6.601
65122SOL    HW197263   1.849  10.513   6.569
65122SOL    HW297264   1.726  10.587   6.522
65123SOL     OW97265   0.356   3.488  13.236
65123SOL    HW197266   0.361   3.431  13.312
65123SOL    HW297267   0.439   3.537  13.237
65124SOL     OW97268   4.412  11.026   2.724
65124SOL    HW197269   4.442  10.947   2.769
65124SOL    HW297270   4.320  11.034   2.748
65125SOL     OW97271   3.374   2.919   3.669
65125SOL    HW197272   3.434   2.979   3.712
65125SOL    HW297273   3.338   2.866   3.740
65126SOL     OW97274  12.176   8.680  10.705
65126SOL    HW197275  12.168   8.771  10.734
65126SOL    HW297276  12.190   8.686  10.611
65127SOL     OW97277   5.071   4.557   7.226
65127SOL    HW197278   5.114   4.472   7.232
65127SOL    HW297279   4.984   4.542   7.265
65128SOL     OW97280   4.929   3.395   8.484
65128SOL    HW197281   4.890   3.311   8.461
65128SOL    HW297282   4.927   3.446   8.403
65129SOL     OW97283  14.761  13.131   3.702
65129SOL    HW197284  14.776  13.101   3.792
65129SOL    HW297285  14.672  13.166   3.704
65130SOL     OW97286   6.976  10.001   8.001
65130SOL    HW197287   6.992   9.987   7.907
65130SOL    HW297288   6.881   9.993   8.010
65131SOL     OW97289  12.191  11.750  14.203
65131SOL    HW197290  12.198  11.837  14.241
65131SOL    HW297291  12.232  11.758  14.117
65132SOL     OW97292   2.009  10.550  13.859
65132SOL    HW197293   2.093  10.597  13.865
65132SOL    HW297294   1.977  10.549  13.949
65133SOL     OW97295   7.764  14.796   4.005
65133SOL    HW197296   7.731  14.771   3.919
65133SOL    HW297297   7.830  14.864   3.986
65134SOL     OW97298  13.553   3.813  14.186
65134SOL    HW197299  13.520   3.902  14.186
65134SOL    HW297300  13.479   3.760  14.217
65135SOL     OW97301   9.933   3.231   6.625
65135SOL    HW197302   9.853   3.258   6.671
65135SOL    HW297303  10.003   3.248   6.688
65136SOL     OW97304   5.178   9.573   6.966
65136SOL    HW197305   5.244   9.625   7.010
65136SOL    HW297306   5.098   9.587   7.018
65137SOL     OW97307   9.417  14.167   8.381
65137SOL    HW197308   9.326  14.139   8.369
65137SOL    HW297309   9.415  14.262   8.368
65138SOL     OW97310   2.818   2.332   2.153
65138SOL    HW197311   2.727   2.362   2.144
65138SOL    HW297312   2.858   2.354   2.068
65139SOL     OW97313  13.448  13.665   0.001
65139SOL    HW197314  13.400  13.746  14.849
65139SOL    HW297315  13.382  13.596  14.864
65140SOL     OW97316  14.473  10.836   9.119
65140SOL    HW197317  14.525  10.912   9.143
65140SOL    HW297318  14.382  10.866   9.124
65141SOL     OW97319   2.994   0.775   2.748
65141SOL    HW197320   2.909   0.796   2.707
65141SOL    HW297321   2.998   0.832   2.825
65142SOL     OW97322   4.437   4.799  13.729
65142SOL    HW197323   4.471   4.885  13.704
65142SOL    HW297324   4.514   4.742  13.727
65143SOL     OW97325  10.327   6.887  12.575
65143SOL    HW197326  10.277   6.855  12.500
65143SOL    HW297327  10.329   6.982  12.564
65144SOL     OW97328   2.530  14.188   4.358
65144SOL    HW197329   2.560  14.117   4.301
65144SOL    HW297330   2.437  14.170   4.371
65145SOL     OW97331  11.685  12.596  13.147
65145SOL    HW197332  11.632  12.675  13.160
65145SOL    HW297333  11.659  12.537  13.217
65146SOL     OW97334   3.711   8.361  12.800
65146SOL    HW197335   3.727   8.273  12.765
65146SOL    HW297336   3.738   8.356  12.892
65147SOL     OW97337   7.000   9.330   6.972
65147SOL    HW197338   6.989   9.367   6.884
65147SOL    HW297339   7.011   9.236   6.957
65148SOL     OW97340  12.674  11.258   8.197
65148SOL    HW197341  12.760  11.264   8.239
65148SOL    HW297342  12.692  11.262   8.103
65149SOL     OW97343  13.042   7.120   3.789
65149SOL    HW197344  13.087   7.069   3.856
65149SOL    HW297345  12.956   7.079   3.781
65150SOL     OW97346   2.597   6.807   3.751
65150SOL    HW197347   2.530   6.841   3.691
65150SOL    HW297348   2.548   6.785   3.830
65151SOL     OW97349   2.700   4.123   5.092
65151SOL    HW197350   2.659   4.082   5.016
65151SOL    HW297351   2.661   4.079   5.167
65152SOL     OW97352   2.972   1.194   0.509
65152SOL    HW197353   2.922   1.210   0.429
65152SOL    HW297354   3.057   1.163   0.479
65153SOL     OW97355   8.975  11.593  14.629
65153SOL    HW197356   8.962  11.501  14.651
65153SOL    HW297357   9.070  11.607  14.638
65154SOL     OW97358   3.047  11.360  13.816
65154SOL    HW197359   3.133  11.342  13.780
65154SOL    HW297360   2.993  11.380  13.740
65155SOL     OW97361   1.380   1.475   1.431
65155SOL    HW197362   1.457   1.511   1.386
65155SOL    HW297363   1.316   1.547   1.428
65156SOL     OW97364  11.584   0.065   6.020
65156SOL    HW197365  11.611   0.149   6.057
65156SOL    HW297366  11.667   0.019   6.001
65157SOL     OW97367  13.062   8.659   2.209
65157SOL    HW197368  13.132   8.626   2.266
65157SOL    HW297369  13.094   8.644   2.120
65158SOL     OW97370   6.741   4.569   9.094
65158SOL    HW197371   6.735   4.474   9.099
65158SOL    HW297372   6.808   4.585   9.028
65159SOL     OW97373  13.522   0.420   5.093
65159SOL    HW197374  13.522   0.490   5.028
65159SOL    HW297375  13.463   0.353   5.057
65160SOL     OW97376  11.400   4.606   4.702
65160SOL    HW197377  11.388   4.563   4.786
65160SOL    HW297378  11.325   4.666   4.695
65161SOL     OW97379   0.949  10.703  11.208
65161SOL    HW197380   0.904  10.748  11.280
65161SOL    HW297381   0.986  10.625  11.249
65162SOL     OW97382   7.662   0.987   6.435
65162SOL    HW197383   7.730   1.018   6.495
65162SOL    HW297384   7.687   1.020   6.350
65163SOL     OW97385   3.962   4.931  10.787
65163SOL    HW197386   4.007   4.848  10.773
65163SOL    HW297387   3.967   4.976  10.702
65164SOL     OW97388   3.857  14.332   1.910
65164SOL    HW197389   3.907  14.321   1.829
65164SOL    HW297390   3.865  14.248   1.955
65165SOL     OW97391   1.708   7.704   0.212
65165SOL    HW197392   1.736   7.698   0.121
65165SOL    HW297393   1.746   7.627   0.254
65166SOL     OW97394  10.283   4.772   3.134
65166SOL    HW197395  10.336   4.716   3.191
65166SOL    HW297396  10.283   4.858   3.178
65167SOL     OW97397  10.285  14.424  13.367
65167SOL    HW197398  10.250  14.502  13.411
65167SOL    HW297399  10.207  14.376  13.339
65168SOL     OW97400  12.503   8.986   0.869
65168SOL    HW197401  12.431   8.990   0.931
65168SOL    HW297402  12.467   8.943   0.792
65169SOL     OW97403   5.649   4.905  10.699
65169SOL    HW197404   5.554   4.922  10.699
65169SOL    HW297405   5.689   4.992  10.699
65170SOL     OW97406   2.236   3.595   4.090
65170SOL    HW197407   2.154   3.644   4.096
65170SOL    HW297408   2.284   3.621   4.169
65171SOL     OW97409   6.314   2.358  13.446
65171SOL    HW197410   6.399   2.354  13.402
65171SOL    HW297411   6.264   2.422  13.396
65172SOL     OW97412   7.775  10.073  10.454
65172SOL    HW197413   7.869  10.058  10.451
65172SOL    HW297414   7.743  10.010  10.519
65173SOL     OW97415   5.513  10.739   3.800
65173SOL    HW197416   5.458  10.711   3.873
65173SOL    HW297417   5.525  10.660   3.747
65174SOL     OW97418  14.074   7.754   4.197
65174SOL    HW197419  14.091   7.745   4.103
65174SOL    HW297420  13.983   7.782   4.202
65175SOL     OW97421   7.531   5.714   2.341
65175SOL    HW197422   7.495   5.626   2.335
65175SOL    HW297423   7.498   5.759   2.264
65176SOL     OW97424   7.023   6.044  10.668
65176SOL    HW197425   7.014   5.972  10.606
65176SOL    HW297426   7.115   6.069  10.662
65177SOL     OW97427   1.313  11.990   6.076
65177SOL    HW197428   1.307  12.055   6.146
65177SOL    HW297429   1.340  11.909   6.120
65178SOL     OW97430   2.237   0.668   7.813
65178SOL    HW197431   2.253   0.623   7.730
65178SOL    HW297432   2.205   0.755   7.787
65179SOL     OW97433   1.217   8.866   6.083
65179SOL    HW197434   1.237   8.848   6.175
65179SOL    HW297435   1.303   8.879   6.042
65180SOL     OW97436  10.208  14.520   9.069
65180SOL    HW197437  10.160  14.476   8.999
65180SOL    HW297438  10.271  14.576   9.024
65181SOL     OW97439   7.826  11.319   8.536
65181SOL    HW197440   7.778  11.241   8.566
65181SOL    HW297441   7.846  11.367   8.615
65182SOL     OW97442   5.954   4.492  10.675
65182SOL    HW197443   5.897   4.433  10.724
65182SOL    HW297444   5.925   4.579  10.700
65183SOL     OW97445   9.702   0.176  14.756
65183SOL    HW197446   9.634   0.227  14.711
65183SOL    HW297447   9.776   0.237  14.763
65184SOL     OW97448   5.784   7.242   9.869
65184SOL    HW197449   5.867   7.280   9.839
65184SOL    HW297450   5.808   7.187   9.943
65185SOL     OW97451  13.462  12.871   6.701
65185SOL    HW197452  13.532  12.879   6.636
65185SOL    HW297453  13.400  12.940   6.677
65186SOL     OW97454  12.030  12.542  10.409
65186SOL    HW197455  11.953  12.592  10.437
65186SOL    HW297456  12.045  12.479  10.480
65187SOL     OW97457  11.539   3.688  13.180
65187SOL    HW197458  11.490   3.659  13.103
65187SOL    HW297459  11.630   3.667  13.160
65188SOL     OW97460   0.043   2.527   2.624
65188SOL    HW197461   0.025   2.446   2.576
65188SOL    HW297462   0.111   2.503   2.688
65189SOL     OW97463  14.733  12.540   8.040
65189SOL    HW197464  14.714  12.523   7.947
65189SOL    HW297465  14.663  12.600   8.067
65190SOL     OW97466   1.466   9.634  13.722
65190SOL    HW197467   1.398   9.690  13.686
65190SOL    HW297468   1.539   9.693  13.740
65191SOL     OW97469   9.180   4.944   0.669
65191SOL    HW197470   9.104   4.999   0.650
65191SOL    HW297471   9.244   4.968   0.602
65192SOL     OW97472  11.757  11.916  11.365
65192SOL    HW197473  11.833  11.874  11.325
65192SOL    HW297474  11.753  11.879  11.453
65193SOL     OW97475  12.034  10.390   8.354
65193SOL    HW197476  12.063  10.481   8.353
65193SOL    HW297477  12.040  10.364   8.446
65194SOL     OW97478  10.566  13.074  11.557
65194SOL    HW197479  10.531  13.163  11.563
65194SOL    HW297480  10.516  13.024  11.621
65195SOL     OW97481   7.919   4.915   9.358
65195SOL    HW197482   7.916   4.981   9.428
65195SOL    HW297483   7.976   4.847   9.392
65196SOL     OW97484   0.881  11.136  14.126
65196SOL    HW197485   0.960  11.082  14.128
65196SOL    HW297486   0.848  11.127  14.037
65197SOL     OW97487  13.348  14.469   9.255
65197SOL    HW197488  13.334  14.449   9.348
65197SOL    HW297489  13.260  14.490   9.222
65198SOL     OW97490  12.876   2.092   9.226
65198SOL    HW197491  12.890   2.152   9.300
65198SOL    HW297492  12.955   2.039   9.223
65199SOL     OW97493  12.075   6.525   2.977
65199SOL    HW197494  12.046   6.490   2.892
65199SOL    HW297495  12.154   6.574   2.956
65200SOL     OW97496   5.149   7.716   6.980
65200SOL    HW197497   5.235   7.755   6.963
65200SOL    HW297498   5.102   7.723   6.897
65201SOL     OW97499   4.823   9.757  13.069
65201SOL    HW197500   4.793   9.747  13.159
65201SOL    HW297501   4.903   9.704  13.065
65202SOL     OW97502  11.508   9.679   7.677
65202SOL    HW197503  11.555   9.599   7.653
65202SOL    HW297504  11.522   9.688   7.771
65203SOL     OW97505   3.114  12.474   2.330
65203SOL    HW197506   3.160  12.470   2.414
65203SOL    HW297507   3.112  12.383   2.300
65204SOL     OW97508   3.585   1.797   9.256
65204SOL    HW197509   3.594   1.891   9.272
65204SOL    HW297510   3.651   1.757   9.313
65205SOL     OW97511  13.532   3.485  14.130
65205SOL    HW197512  13.465   3.485  14.062
65205SOL    HW297513  13.486   3.462  14.210
65206SOL     OW97514  11.455   3.550   0.761
65206SOL    HW197515  11.516   3.566   0.834
65206SOL    HW297516  11.398   3.627   0.760
65207SOL     OW97517  11.358   8.930   7.721
65207SOL    HW197518  11.287   8.893   7.773
65207SOL    HW297519  11.413   8.976   7.785
65208SOL     OW97520   8.858   5.303  11.775
65208SOL    HW197521   8.918   5.353  11.719
65208SOL    HW297522   8.803   5.255  11.713
65209SOL     OW97523   2.475   0.819   2.643
65209SOL    HW197524   2.442   0.835   2.555
65209SOL    HW297525   2.528   0.896   2.663
65210SOL     OW97526   7.296   9.732  14.416
65210SOL    HW197527   7.312   9.709  14.507
65210SOL    HW297528   7.228   9.671  14.387
65211SOL     OW97529   1.597   9.678  14.257
65211SOL    HW197530   1.504   9.679  14.278
65211SOL    HW297531   1.606   9.739  14.184
65212SOL     OW97532   3.738   2.532   2.433
65212SOL    HW197533   3.790   2.562   2.359
65212SOL    HW297534   3.789   2.557   2.510
65213SOL     OW97535   6.759  13.898  12.390
65213SOL    HW197536   6.847  13.863  12.376
65213SOL    HW297537   6.716  13.888  12.305
65214SOL     OW97538  13.698   9.279   1.762
65214SOL    HW197539  13.639   9.241   1.697
65214SOL    HW297540  13.667   9.369   1.774
65215SOL     OW97541  13.784   1.562   3.211
65215SOL    HW197542  13.782   1.595   3.301
65215SOL    HW297543  13.788   1.641   3.157
65216SOL     OW97544   1.876  13.247  13.105
65216SOL    HW197545   1.852  13.339  13.092
65216SOL    HW297546   1.875  13.209  13.017
65217SOL     OW97547  12.760   2.304  14.692
65217SOL    HW197548  12.700   2.357  14.639
65217SOL    HW297549  12.834   2.285  14.633
65218SOL     OW97550  12.161   2.666   4.725
65218SOL    HW197551  12.122   2.609   4.791
65218SOL    HW297552  12.087   2.713   4.688
65219SOL     OW97553  14.552  12.251  10.254
65219SOL    HW197554  14.597  12.265  10.171
65219SOL    HW297555  14.523  12.339  10.280
65220SOL     OW97556   8.421   7.114  12.393
65220SOL    HW197557   8.360   7.163  12.337
65220SOL    HW297558   8.372   7.099  12.474
65221SOL     OW97559   1.477  10.974   0.245
65221SOL    HW197560   1.435  10.892   0.270
65221SOL    HW297561   1.408  11.040   0.256
65222SOL     OW97562   6.261   8.803   1.685
65222SOL    HW197563   6.261   8.887   1.640
65222SOL    HW297564   6.343   8.761   1.657
65223SOL     OW97565   6.159   5.625   4.095
65223SOL    HW197566   6.195   5.698   4.146
65223SOL    HW297567   6.132   5.664   4.012
65224SOL     OW97568   5.482   7.488  14.697
65224SOL    HW197569   5.430   7.415  14.664
65224SOL    HW297570   5.540   7.511  14.624
65225SOL     OW97571  10.453  11.779   5.981
65225SOL    HW197572  10.498  11.710   6.030
65225SOL    HW297573  10.523  11.828   5.938
65226SOL     OW97574  14.335  14.729  13.479
65226SOL    HW197575  14.385  14.699  13.555
65226SOL    HW297576  14.325  14.650  13.425
65227SOL     OW97577   3.423   1.178   4.312
65227SOL    HW197578   3.361   1.214   4.249
65227SOL    HW297579   3.409   1.083   4.309
65228SOL     OW97580   8.220   6.442   1.874
65228SOL    HW197581   8.264   6.510   1.924
65228SOL    HW297582   8.193   6.377   1.939
65229SOL     OW97583   8.699  10.319   7.905
65229SOL    HW197584   8.723  10.316   7.812
65229SOL    HW297585   8.721  10.233   7.939
65230SOL     OW97586   4.052  10.303  12.167
65230SOL    HW197587   4.046  10.340  12.079
65230SOL    HW297588   3.966  10.263  12.182
65231SOL     OW97589   4.990  14.090   5.657
65231SOL    HW197590   4.943  14.007   5.656
65231SOL    HW297591   5.083  14.066   5.651
65232SOL     OW97592   0.494   5.774  10.249
65232SOL    HW197593   0.524   5.683  10.241
65232SOL    HW297594   0.501   5.793  10.342
65233SOL     OW97595   2.875   0.338   2.514
65233SOL    HW197596   2.884   0.244   2.499
65233SOL    HW297597   2.815   0.368   2.445
65234SOL     OW97598   7.397  12.838   8.213
65234SOL    HW197599   7.492  12.831   8.223
65234SOL    HW297600   7.375  12.773   8.147
65235SOL     OW97601  11.013  14.078   9.831
65235SOL    HW197602  11.004  14.105   9.739
65235SOL    HW297603  11.086  14.129   9.864
65236SOL     OW97604   3.705   5.596   1.883
65236SOL    HW197605   3.726   5.629   1.971
65236SOL    HW297606   3.622   5.638   1.862
65237SOL     OW97607   2.501  13.946  10.248
65237SOL    HW197608   2.510  14.037  10.276
65237SOL    HW297609   2.451  13.904  10.318
65238SOL     OW97610  14.784  12.642   9.854
65238SOL    HW197611  14.700  12.636   9.898
65238SOL    HW297612  14.812  12.551   9.843
65239SOL     OW97613   1.953   0.642  13.419
65239SOL    HW197614   2.036   0.641  13.372
65239SOL    HW297615   1.953   0.561  13.470
65240SOL     OW97616   6.272   9.252   0.055
65240SOL    HW197617   6.271   9.189   0.127
65240SOL    HW297618   6.264   9.337   0.098
65241SOL     OW97619  12.736   0.095   7.472
65241SOL    HW197620  12.816   0.048   7.449
65241SOL    HW297621  12.751   0.126   7.561
65242SOL     OW97622   4.049  10.288   0.820
65242SOL    HW197623   3.976  10.227   0.815
65242SOL    HW297624   4.064  10.316   0.729
65243SOL     OW97625  13.194   7.333   4.556
65243SOL    HW197626  13.208   7.243   4.528
65243SOL    HW297627  13.165   7.379   4.478
65244SOL     OW97628   1.492   6.622   6.055
65244SOL    HW197629   1.551   6.656   5.988
65244SOL    HW297630   1.549   6.587   6.122
65245SOL     OW97631   3.277   7.612   2.228
65245SOL    HW197632   3.183   7.597   2.215
65245SOL    HW297633   3.318   7.530   2.199
65246SOL     OW97634   4.059   6.405   4.310
65246SOL    HW197635   3.981   6.458   4.291
65246SOL    HW297636   4.133   6.462   4.288
65247SOL     OW97637   3.040   4.991   8.331
65247SOL    HW197638   3.014   4.964   8.419
65247SOL    HW297639   2.969   5.047   8.301
65248SOL     OW97640   8.435   0.037   6.386
65248SOL    HW197641   8.355   0.015   6.338
65248SOL    HW297642   8.427   0.131   6.404
65249SOL     OW97643  10.043  12.168   5.510
65249SOL    HW197644  10.026  12.145   5.419
65249SOL    HW297645  10.074  12.086   5.550
65250SOL     OW97646   4.623   1.279   6.823
65250SOL    HW197647   4.673   1.313   6.897
65250SOL    HW297648   4.617   1.353   6.762
65251SOL     OW97649  13.048   6.744   7.522
65251SOL    HW197650  13.144   6.752   7.524
65251SOL    HW297651  13.022   6.787   7.441
65252SOL     OW97652  13.398  12.377  13.060
65252SOL    HW197653  13.438  12.344  12.980
65252SOL    HW297654  13.457  12.348  13.130
65253SOL     OW97655   1.334   8.714   1.759
65253SOL    HW197656   1.312   8.642   1.700
65253SOL    HW297657   1.252   8.734   1.804
65254SOL     OW97658  10.846   2.092   6.802
65254SOL    HW197659  10.920   2.033   6.787
65254SOL    HW297660  10.769   2.036   6.796
65255SOL     OW97661  11.883   3.583   3.249
65255SOL    HW197662  11.820   3.648   3.219
65255SOL    HW297663  11.959   3.595   3.192
65256SOL     OW97664   8.712  14.285  12.407
65256SOL    HW197665   8.708  14.379  12.424
65256SOL    HW297666   8.806  14.267  12.397
65257SOL     OW97667   3.881   5.886   7.904
65257SOL    HW197668   3.904   5.866   7.814
65257SOL    HW297669   3.943   5.954   7.930
65258SOL     OW97670   4.623   3.453   1.362
65258SOL    HW197671   4.679   3.377   1.349
65258SOL    HW297672   4.594   3.447   1.453
65259SOL     OW97673  14.279  14.681   5.448
65259SOL    HW197674  14.269  14.597   5.402
65259SOL    HW297675  14.350  14.725   5.402
65260SOL     OW97676  12.369   7.079   1.202
65260SOL    HW197677  12.397   7.121   1.283
65260SOL    HW297678  12.439   7.098   1.139
65261SOL     OW97679  11.667   8.663   2.997
65261SOL    HW197680  11.694   8.603   2.928
65261SOL    HW297681  11.571   8.656   2.998
65262SOL     OW97682   3.488   5.619   3.533
65262SOL    HW197683   3.573   5.587   3.502
65262SOL    HW297684   3.503   5.642   3.625
65263SOL     OW97685  11.241   3.579   6.620
65263SOL    HW197686  11.229   3.571   6.525
65263SOL    HW297687  11.204   3.498   6.655
65264SOL     OW97688  11.570  12.783   0.251
65264SOL    HW197689  11.503  12.782   0.318
65264SOL    HW297690  11.577  12.875   0.225
65265SOL     OW97691  13.228   0.782  14.818
65265SOL    HW197692  13.173   0.860  14.828
65265SOL    HW297693  13.198   0.723   0.018
65266SOL     OW97694   8.547   7.703   6.528
65266SOL    HW197695   8.483   7.656   6.581
65266SOL    HW297696   8.601   7.634   6.489
65267SOL     OW97697   6.830   4.730  10.464
65267SOL    HW197698   6.840   4.665  10.394
65267SOL    HW297699   6.798   4.808  10.420
65268SOL     OW97700   8.581  10.768   8.336
65268SOL    HW197701   8.665  10.724   8.348
65268SOL    HW297702   8.532  10.709   8.278
65269SOL     OW97703   4.406   9.814  13.940
65269SOL    HW197704   4.371   9.756  13.872
65269SOL    HW297705   4.464   9.758  13.992
65270SOL     OW97706  14.278   6.742  10.821
65270SOL    HW197707  14.220   6.747  10.898
65270SOL    HW297708  14.219   6.725  10.748
65271SOL     OW97709  10.338   0.415   9.043
65271SOL    HW197710  10.403   0.423   9.112
65271SOL    HW297711  10.388   0.416   8.962
65272SOL     OW97712   8.335   3.959   7.248
65272SOL    HW197713   8.366   3.925   7.164
65272SOL    HW297714   8.398   4.027   7.271
65273SOL     OW97715   8.446   4.780  13.530
65273SOL    HW197716   8.368   4.738  13.565
65273SOL    HW297717   8.461   4.856  13.586
65274SOL     OW97718  14.015  11.421   6.693
65274SOL    HW197719  14.081  11.410   6.625
65274SOL    HW297720  14.063  11.461   6.766
65275SOL     OW97721  10.652   9.963   3.029
65275SOL    HW197722  10.634   9.886   2.975
65275SOL    HW297723  10.632  10.037   2.971
65276SOL     OW97724   7.648   4.951   3.956
65276SOL    HW197725   7.661   5.031   3.904
65276SOL    HW297726   7.737   4.917   3.969
65277SOL     OW97727   6.297   2.755   3.780
65277SOL    HW197728   6.292   2.665   3.811
65277SOL    HW297729   6.326   2.805   3.856
65278SOL     OW97730   4.733  10.132  14.140
65278SOL    HW197731   4.727  10.091  14.053
65278SOL    HW297732   4.825  10.126  14.164
65279SOL     OW97733   1.409   1.040  13.099
65279SOL    HW197734   1.422   1.125  13.141
65279SOL    HW297735   1.370   0.985  13.168
65280SOL     OW97736  13.703   9.242  11.396
65280SOL    HW197737  13.614   9.250  11.431
65280SOL    HW297738  13.692   9.258  11.302
65281SOL     OW97739   1.596   8.550   5.429
65281SOL    HW197740   1.598   8.498   5.349
65281SOL    HW297741   1.589   8.485   5.500
65282SOL     OW97742   6.473   8.411   6.252
65282SOL    HW197743   6.433   8.325   6.245
65282SOL    HW297744   6.462   8.450   6.165
65283SOL     OW97745   4.355   4.744  10.964
65283SOL    HW197746   4.444   4.722  10.990
65283SOL    HW297747   4.300   4.704  11.031
65284SOL     OW97748  10.216  11.793   9.609
65284SOL    HW197749  10.304  11.782   9.646
65284SOL    HW297750  10.196  11.885   9.622
65285SOL     OW97751   7.075   7.900  12.183
65285SOL    HW197752   7.012   7.921  12.251
65285SOL    HW297753   7.034   7.932  12.102
65286SOL     OW97754   6.080   7.252   1.384
65286SOL    HW197755   6.006   7.281   1.437
65286SOL    HW297756   6.144   7.221   1.447
65287SOL     OW97757   0.659   4.376  10.106
65287SOL    HW197758   0.652   4.464  10.144
65287SOL    HW297759   0.743   4.378  10.060
65288SOL     OW97760   2.832   6.677   5.720
65288SOL    HW197761   2.797   6.620   5.788
65288SOL    HW297762   2.854   6.618   5.648
65289SOL     OW97763   8.386   4.688  11.119
65289SOL    HW197764   8.349   4.691  11.031
65289SOL    HW297765   8.447   4.614  11.116
65290SOL     OW97766   1.839   0.254   4.106
65290SOL    HW197767   1.920   0.275   4.060
65290SOL    HW297768   1.867   0.203   4.182
65291SOL     OW97769   2.509   5.745  13.227
65291SOL    HW197770   2.479   5.761  13.137
65291SOL    HW297771   2.446   5.682  13.262
65292SOL     OW97772  12.357   1.876   2.052
65292SOL    HW197773  12.286   1.812   2.053
65292SOL    HW297774  12.332   1.939   1.985
65293SOL     OW97775   1.296  12.919  11.442
65293SOL    HW197776   1.354  12.868  11.498
65293SOL    HW297777   1.351  12.989  11.408
65294SOL     OW97778  12.864   9.977   6.610
65294SOL    HW197779  12.811   9.982   6.530
65294SOL    HW297780  12.876   9.883   6.624
65295SOL     OW97781  10.513  12.593   1.175
65295SOL    HW197782  10.499  12.599   1.081
65295SOL    HW297783  10.447  12.530   1.205
65296SOL     OW97784   4.653   5.069  10.826
65296SOL    HW197785   4.627   5.025  10.907
65296SOL    HW297786   4.733   5.116  10.849
65297SOL     OW97787   4.933  14.210  13.408
65297SOL    HW197788   4.933  14.174  13.496
65297SOL    HW297789   5.015  14.259  13.402
65298SOL     OW97790   3.340   7.934  13.313
65298SOL    HW197791   3.358   7.851  13.269
65298SOL    HW297792   3.427   7.968  13.335
65299SOL     OW97793   0.880  11.631   7.598
65299SOL    HW197794   0.970  11.647   7.570
65299SOL    HW297795   0.842  11.718   7.609
65300SOL     OW97796   9.758   1.252  12.793
65300SOL    HW197797   9.718   1.231  12.877
65300SOL    HW297798   9.747   1.347  12.784
65301SOL     OW97799   5.490   5.532   1.757
65301SOL    HW197800   5.414   5.512   1.812
65301SOL    HW297801   5.566   5.517   1.814
65302SOL     OW97802  10.563  13.931   5.369
65302SOL    HW197803  10.515  13.961   5.292
65302SOL    HW297804  10.644  13.982   5.369
65303SOL     OW97805  11.584  10.588   9.091
65303SOL    HW197806  11.586  10.680   9.064
65303SOL    HW297807  11.580  10.539   9.008
65304SOL     OW97808   4.903   3.850  14.091
65304SOL    HW197809   4.957   3.800  14.152
65304SOL    HW297810   4.866   3.920  14.144
65305SOL     OW97811   0.995  10.294   7.024
65305SOL    HW197812   1.018  10.269   6.934
65305SOL    HW297813   1.032  10.382   7.034
65306SOL     OW97814   8.767   9.597   8.308
65306SOL    HW197815   8.771   9.559   8.221
65306SOL    HW297816   8.697   9.662   8.304
65307SOL     OW97817  13.746  11.729  10.013
65307SOL    HW197818  13.745  11.671  10.090
65307SOL    HW297819  13.696  11.806  10.041
65308SOL     OW97820   4.383   3.667  10.772
65308SOL    HW197821   4.288   3.667  10.779
65308SOL    HW297822   4.400   3.671  10.677
65309SOL     OW97823   5.077  13.106  13.458
65309SOL    HW197824   5.131  13.153  13.521
65309SOL    HW297825   5.094  13.148  13.374
65310SOL     OW97826   0.042  14.603  10.054
65310SOL    HW197827   0.102  14.571   9.986
65310SOL    HW297828   0.094  14.604  10.134
65311SOL     OW97829  10.339   8.425  12.243
65311SOL    HW197830  10.321   8.515  12.214
65311SOL    HW297831  10.366   8.379  12.164
65312SOL     OW97832   9.387  11.627   7.720
65312SOL    HW197833   9.327  11.651   7.650
65312SOL    HW297834   9.336  11.569   7.777
65313SOL     OW97835   3.092  14.629   0.175
65313SOL    HW197836   3.063  14.651   0.086
65313SOL    HW297837   3.151  14.554   0.162
65314SOL     OW97838   6.159   5.893   4.759
65314SOL    HW197839   6.248   5.926   4.772
65314SOL    HW297840   6.155   5.870   4.666
65315SOL     OW97841   6.592  11.298   3.852
65315SOL    HW197842   6.673  11.269   3.894
65315SOL    HW297843   6.607  11.287   3.758
65316SOL     OW97844   1.925   7.881   1.362
65316SOL    HW197845   1.956   7.908   1.276
65316SOL    HW297846   2.000   7.837   1.402
65317SOL     OW97847   3.611   0.980  12.319
65317SOL    HW197848   3.675   0.971  12.249
65317SOL    HW297849   3.530   1.005  12.275
65318SOL     OW97850   4.399   3.958   7.638
65318SOL    HW197851   4.463   3.979   7.570
65318SOL    HW297852   4.394   4.036   7.692
65319SOL     OW97853   8.746   7.017   8.109
65319SOL    HW197854   8.747   7.113   8.101
65319SOL    HW297855   8.826   6.997   8.157
65320SOL     OW97856   7.958   6.284  13.158
65320SOL    HW197857   7.902   6.362  13.162
65320SOL    HW297858   7.938   6.245  13.074
65321SOL     OW97859   9.857  14.451   9.620
65321SOL    HW197860   9.880  14.394   9.547
65321SOL    HW297861   9.764  14.468   9.611
65322SOL     OW97862  13.056   0.884   5.370
65322SOL    HW197863  13.086   0.974   5.370
65322SOL    HW297864  12.974   0.885   5.320
65323SOL     OW97865  11.371   7.136   7.235
65323SOL    HW197866  11.419   7.058   7.263
65323SOL    HW297867  11.323   7.164   7.314
65324SOL     OW97868  12.874   9.502  12.593
65324SOL    HW197869  12.901   9.500  12.502
65324SOL    HW297870  12.811   9.430  12.601
65325SOL     OW97871  11.130   8.479   5.468
65325SOL    HW197872  11.211   8.429   5.456
65325SOL    HW297873  11.096   8.491   5.379
65326SOL     OW97874   1.319  14.707  11.488
65326SOL    HW197875   1.351  14.724  11.399
65326SOL    HW297876   1.310  14.794  11.527
65327SOL     OW97877   7.653  12.384   5.396
65327SOL    HW197878   7.616  12.324   5.461
65327SOL    HW297879   7.738  12.408   5.430
65328SOL     OW97880   6.201   0.892  14.663
65328SOL    HW197881   6.247   0.971  14.688
65328SOL    HW297882   6.124   0.923  14.614
65329SOL     OW97883   4.266   5.873   0.357
65329SOL    HW197884   4.194   5.869   0.419
65329SOL    HW297885   4.271   5.785   0.320
65330SOL     OW97886   0.376  12.071  12.056
65330SOL    HW197887   0.351  12.013  11.984
65330SOL    HW297888   0.317  12.047  12.127
65331SOL     OW97889   6.594  13.933   9.962
65331SOL    HW197890   6.632  13.864   9.908
65331SOL    HW297891   6.603  14.012   9.908
65332SOL     OW97892   7.888  10.006   3.898
65332SOL    HW197893   7.947  10.042   3.832
65332SOL    HW297894   7.813   9.974   3.848
65333SOL     OW97895   9.217  14.320   4.079
65333SOL    HW197896   9.175  14.288   4.159
65333SOL    HW297897   9.200  14.414   4.079
65334SOL     OW97898   8.983  12.190  12.576
65334SOL    HW197899   8.963  12.188  12.669
65334SOL    HW297900   8.904  12.157  12.533
65335SOL     OW97901   5.176   3.041   5.169
65335SOL    HW197902   5.114   3.050   5.241
65335SOL    HW297903   5.142   3.099   5.101
65336SOL     OW97904   8.890   3.384   7.861
65336SOL    HW197905   8.903   3.461   7.915
65336SOL    HW297906   8.901   3.310   7.920
65337SOL     OW97907   6.177   8.450  11.039
65337SOL    HW197908   6.163   8.534  11.082
65337SOL    HW297909   6.130   8.387  11.093
65338SOL     OW97910   5.240  11.116  13.418
65338SOL    HW197911   5.316  11.111  13.359
65338SOL    HW297912   5.168  11.081  13.365
65339SOL     OW97913   3.522   9.508  13.974
65339SOL    HW197914   3.585   9.456  13.924
65339SOL    HW297915   3.573   9.581  14.008
65340SOL     OW97916   6.519  13.448   6.284
65340SOL    HW197917   6.480  13.456   6.371
65340SOL    HW297918   6.453  13.402   6.232
65341SOL     OW97919   4.862   1.397   3.720
65341SOL    HW197920   4.862   1.493   3.712
65341SOL    HW297921   4.796   1.379   3.787
65342SOL     OW97922   6.054   5.164  10.734
65342SOL    HW197923   6.086   5.077  10.714
65342SOL    HW297924   5.970   5.150  10.778
65343SOL     OW97925   7.038  14.854  12.769
65343SOL    HW197926   6.962  14.801  12.792
65343SOL    HW297927   7.037  14.857  12.674
65344SOL     OW97928   7.956  14.086   0.170
65344SOL    HW197929   7.873  14.041   0.150
65344SOL    HW297930   7.934  14.144   0.243
65345SOL     OW97931  10.709   8.230   6.566
65345SOL    HW197932  10.652   8.169   6.519
65345SOL    HW297933  10.754   8.176   6.631
65346SOL     OW97934  14.679   9.585   1.682
65346SOL    HW197935  14.655   9.502   1.642
65346SOL    HW297936  14.775   9.588   1.678
65347SOL     OW97937  12.627   0.305  13.246
65347SOL    HW197938  12.612   0.258  13.327
65347SOL    HW297939  12.720   0.294  13.228
65348SOL     OW97940   8.400  13.482   7.322
65348SOL    HW197941   8.379  13.552   7.261
65348SOL    HW297942   8.365  13.512   7.406
65349SOL     OW97943   7.506   0.099   4.590
65349SOL    HW197944   7.572   0.030   4.602
65349SOL    HW297945   7.531   0.143   4.509
65350SOL     OW97946   5.760  13.642   5.246
65350SOL    HW197947   5.764  13.659   5.152
65350SOL    HW297948   5.829  13.698   5.283
65351SOL     OW97949   4.299   6.029  11.563
65351SOL    HW197950   4.278   5.980  11.643
65351SOL    HW297951   4.360   6.097  11.592
65352SOL     OW97952  13.804   6.457   9.751
65352SOL    HW197953  13.884   6.427   9.795
65352SOL    HW297954  13.787   6.543   9.789
65353SOL     OW97955  10.247   7.557  11.958
65353SOL    HW197956  10.163   7.519  11.935
65353SOL    HW297957  10.280   7.596  11.877
65354SOL     OW97958   0.066  11.990   5.248
65354SOL    HW197959   0.114  11.920   5.204
65354SOL    HW297960   0.134  12.042   5.291
65355SOL     OW97961   7.471  14.780  11.197
65355SOL    HW197962   7.408  14.774  11.125
65355SOL    HW297963   7.465   0.001  11.227
65356SOL     OW97964  10.042  13.678  14.503
65356SOL    HW197965  10.110  13.638  14.449
65356SOL    HW297966  10.018  13.758  14.456
65357SOL     OW97967  12.894   4.796  10.102
65357SOL    HW197968  12.979   4.838  10.114
65357SOL    HW297969  12.842   4.824  10.177
65358SOL     OW97970   3.380   2.709   0.495
65358SOL    HW197971   3.402   2.790   0.541
65358SOL    HW297972   3.362   2.736   0.405
65359SOL     OW97973   4.798  13.129  11.782
65359SOL    HW197974   4.803  13.090  11.695
65359SOL    HW297975   4.780  13.222  11.765
65360SOL     OW97976   3.349   4.065   7.663
65360SOL    HW197977   3.398   4.118   7.726
65360SOL    HW297978   3.381   4.092   7.577
65361SOL     OW97979   3.923   2.389   3.551
65361SOL    HW197980   3.949   2.456   3.615
65361SOL    HW297981   3.955   2.421   3.467
65362SOL     OW97982  13.427   9.632  14.269
65362SOL    HW197983  13.395   9.622  14.179
65362SOL    HW297984  13.485   9.707  14.266
65363SOL     OW97985  13.248   4.839  13.749
65363SOL    HW197986  13.253   4.829  13.844
65363SOL    HW297987  13.339   4.846  13.721
65364SOL     OW97988   1.871   3.370   9.878
65364SOL    HW197989   1.826   3.421   9.811
65364SOL    HW297990   1.961   3.402   9.876
65365SOL     OW97991   6.189  11.800   4.041
65365SOL    HW197992   6.275  11.775   4.076
65365SOL    HW297993   6.161  11.873   4.097
65366SOL     OW97994  10.154   5.204  11.268
65366SOL    HW197995  10.074   5.168  11.306
65366SOL    HW297996  10.152   5.176  11.177
65367SOL     OW97997   1.676   7.798   5.323
65367SOL    HW197998   1.597   7.812   5.374
65367SOL    HW297999   1.741   7.856   5.363
65368SOL     OW98000   1.522  14.794  13.761
65368SOL    HW198001   1.506  14.704  13.788
65368SOL    HW298002   1.566  14.834  13.836
65369SOL     OW98003  14.154   8.191   3.674
65369SOL    HW198004  14.223   8.128   3.655
65369SOL    HW298005  14.093   8.184   3.600
65370SOL     OW98006  13.393  13.266   9.236
65370SOL    HW198007  13.488  13.274   9.248
65370SOL    HW298008  13.358  13.351   9.261
65371SOL     OW98009  13.672   8.323   7.062
65371SOL    HW198010  13.756   8.284   7.084
65371SOL    HW298011  13.633   8.263   6.999
65372SOL     OW98012   3.817  14.769   7.763
65372SOL    HW198013   3.885  14.705   7.785
65372SOL    HW298014   3.863  14.853   7.762
65373SOL     OW98015   8.236   1.275   1.308
65373SOL    HW198016   8.250   1.367   1.330
65373SOL    HW298017   8.299   1.257   1.238
65374SOL     OW98018  14.356   1.899   4.698
65374SOL    HW198019  14.286   1.834   4.689
65374SOL    HW298020  14.311   1.983   4.701
65375SOL     OW98021  12.460   8.437   0.038
65375SOL    HW198022  12.494   8.526   0.041
65375SOL    HW298023  12.454   8.417  14.814
65376SOL     OW98024   6.891   6.677   1.242
65376SOL    HW198025   6.933   6.714   1.165
65376SOL    HW298026   6.803   6.716   1.242
65377SOL     OW98027   8.037   9.132   6.696
65377SOL    HW198028   7.956   9.180   6.679
65377SOL    HW298029   8.035   9.114   6.790
65378SOL     OW98030   7.013   4.147   1.252
65378SOL    HW198031   7.082   4.137   1.186
65378SOL    HW298032   7.059   4.145   1.336
65379SOL     OW98033  11.338   8.365  13.672
65379SOL    HW198034  11.301   8.278  13.660
65379SOL    HW298035  11.392   8.357  13.751
65380SOL     OW98036   9.128   6.286  11.334
65380SOL    HW198037   9.037   6.263  11.314
65380SOL    HW298038   9.168   6.303  11.249
65381SOL     OW98039  11.634  10.136   0.983
65381SOL    HW198040  11.712  10.087   1.007
65381SOL    HW298041  11.667  10.215   0.941
65382SOL     OW98042  11.788   3.212   6.513
65382SOL    HW198043  11.709   3.261   6.534
65382SOL    HW298044  11.761   3.121   6.513
65383SOL     OW98045   1.848  14.794  14.698
65383SOL    HW198046   1.754  14.790  14.715
65383SOL    HW298047   1.886  14.736  14.764
65384SOL     OW98048   1.085  10.227   7.289
65384SOL    HW198049   1.010  10.187   7.332
65384SOL    HW298050   1.057  10.241   7.198
65385SOL     OW98051  13.168   7.658   8.606
65385SOL    HW198052  13.080   7.625   8.622
65385SOL    HW298053  13.158   7.722   8.536
65386SOL     OW98054   2.966   2.303  10.023
65386SOL    HW198055   3.017   2.224  10.008
65386SOL    HW298056   2.905   2.279  10.093
65387SOL     OW98057  13.309   2.760  10.045
65387SOL    HW198058  13.371   2.822  10.083
65387SOL    HW298059  13.237   2.757  10.108
65388SOL     OW98060  12.603   6.297   3.523
65388SOL    HW198061  12.542   6.233   3.487
65388SOL    HW298062  12.645   6.251   3.596
65389SOL     OW98063   7.336  10.525   2.802
65389SOL    HW198064   7.407  10.488   2.749
65389SOL    HW298065   7.366  10.514   2.893
65390SOL     OW98066  12.317   2.558   9.609
65390SOL    HW198067  12.282   2.504   9.537
65390SOL    HW298068  12.372   2.498   9.659
65391SOL     OW98069  12.707   0.715   8.258
65391SOL    HW198070  12.763   0.753   8.326
65391SOL    HW298071  12.629   0.770   8.258
65392SOL     OW98072  12.864   7.581   6.947
65392SOL    HW198073  12.945   7.531   6.940
65392SOL    HW298074  12.803   7.523   6.991
65393SOL     OW98075  14.153   3.480   7.106
65393SOL    HW198076  14.217   3.528   7.053
65393SOL    HW298077  14.173   3.388   7.090
65394SOL     OW98078   5.051  10.259   6.131
65394SOL    HW198079   5.043  10.310   6.212
65394SOL    HW298080   4.962  10.232   6.110
65395SOL     OW98081  14.697   0.096  11.506
65395SOL    HW198082  14.762   0.088  11.436
65395SOL    HW298083  14.656   0.010  11.510
65396SOL     OW98084   5.233   4.567  11.562
65396SOL    HW198085   5.185   4.577  11.644
65396SOL    HW298086   5.261   4.476  11.561
65397SOL     OW98087  14.825   9.965   4.317
65397SOL    HW198088  14.817  10.054   4.283
65397SOL    HW298089  14.823   9.976   4.412
65398SOL     OW98090   8.507   1.827   0.674
65398SOL    HW198091   8.499   1.863   0.586
65398SOL    HW298092   8.417   1.817   0.705
65399SOL     OW98093   1.986   2.624   9.814
65399SOL    HW198094   2.079   2.633   9.792
65399SOL    HW298095   1.941   2.632   9.730
65400SOL     OW98096   1.921   5.341   9.004
65400SOL    HW198097   1.918   5.283   8.928
65400SOL    HW298098   2.011   5.374   9.007
65401SOL     OW98099  13.414  12.834   5.485
65401SOL    HW198100  13.452  12.786   5.412
65401SOL    HW298101  13.489  12.865   5.536
65402SOL     OW98102   6.365   6.224   7.322
65402SOL    HW198103   6.356   6.297   7.261
65402SOL    HW298104   6.326   6.256   7.404
65403SOL     OW98105   8.776   1.564   7.019
65403SOL    HW198106   8.847   1.505   6.994
65403SOL    HW298107   8.696   1.515   6.997
65404SOL     OW98108  14.481   1.567   4.322
65404SOL    HW198109  14.499   1.547   4.413
65404SOL    HW298110  14.439   1.489   4.287
65405SOL     OW98111  10.043  12.389  12.603
65405SOL    HW198112  10.106  12.461  12.609
65405SOL    HW298113  10.094  12.310  12.616
65406SOL     OW98114   1.467  13.158   4.252
65406SOL    HW198115   1.436  13.082   4.301
65406SOL    HW298116   1.562  13.144   4.245
65407SOL     OW98117   2.328   5.677   3.694
65407SOL    HW198118   2.339   5.772   3.699
65407SOL    HW298119   2.245   5.664   3.648
65408SOL     OW98120   4.327   2.827   3.929
65408SOL    HW198121   4.271   2.905   3.933
65408SOL    HW298122   4.337   2.810   3.835
65409SOL     OW98123  12.740  12.757  12.794
65409SOL    HW198124  12.797  12.774  12.869
65409SOL    HW298125  12.779  12.680  12.752
65410SOL     OW98126   6.941  13.020   8.099
65410SOL    HW198127   6.874  13.081   8.068
65410SOL    HW298128   6.891  12.943   8.128
65411SOL     OW98129   1.902   5.456   7.057
65411SOL    HW198130   1.910   5.448   7.152
65411SOL    HW298131   1.973   5.403   7.022
65412SOL     OW98132  12.500   0.848  12.063
65412SOL    HW198133  12.485   0.901  11.985
65412SOL    HW298134  12.566   0.785  12.037
65413SOL     OW98135   0.849  11.916   5.852
65413SOL    HW198136   0.866  11.998   5.899
65413SOL    HW298137   0.935  11.875   5.845
65414SOL     OW98138   8.634  14.670   4.914
65414SOL    HW198139   8.682  14.632   4.840
65414SOL    HW298140   8.542  14.649   4.897
65415SOL     OW98141   2.937  12.039   1.585
65415SOL    HW198142   2.921  12.082   1.668
65415SOL    HW298143   2.911  11.948   1.600
65416SOL     OW98144  10.716  11.058   3.159
65416SOL    HW198145  10.805  11.022   3.159
65416SOL    HW298146  10.678  11.027   3.241
65417SOL     OW98147  13.895   8.184   7.550
65417SOL    HW198148  13.937   8.146   7.473
65417SOL    HW298149  13.892   8.278   7.531
65418SOL     OW98150   9.627   3.071  13.782
65418SOL    HW198151   9.603   2.999  13.841
65418SOL    HW298152   9.545   3.097  13.741
65419SOL     OW98153   4.602   2.275   5.914
65419SOL    HW198154   4.530   2.267   5.976
65419SOL    HW298155   4.596   2.365   5.882
65420SOL     OW98156   4.081   8.720   3.872
65420SOL    HW198157   4.032   8.711   3.790
65420SOL    HW298158   4.168   8.684   3.852
65421SOL     OW98159   0.298  12.616   4.770
65421SOL    HW198160   0.283  12.701   4.729
65421SOL    HW298161   0.273  12.628   4.861
65422SOL     OW98162  10.817   0.888   6.249
65422SOL    HW198163  10.892   0.947   6.248
65422SOL    HW298164  10.849   0.807   6.209
65423SOL     OW98165   8.587   0.633  10.470
65423SOL    HW198166   8.603   0.543  10.498
65423SOL    HW298167   8.522   0.666  10.532
65424SOL     OW98168  11.156   4.743   6.640
65424SOL    HW198169  11.245   4.757   6.608
65424SOL    HW298170  11.120   4.831   6.652
65425SOL     OW98171   1.626   4.057   7.362
65425SOL    HW198172   1.599   3.980   7.411
65425SOL    HW298173   1.720   4.064   7.377
65426SOL     OW98174   4.930   7.987  13.289
65426SOL    HW198175   4.889   7.952  13.210
65426SOL    HW298176   4.986   7.917  13.321
65427SOL     OW98177   5.657  14.322   8.603
65427SOL    HW198178   5.645  14.410   8.638
65427SOL    HW298179   5.632  14.330   8.511
65428SOL     OW98180   4.269   4.699   8.608
65428SOL    HW198181   4.356   4.735   8.588
65428SOL    HW298182   4.216   4.720   8.531
65429SOL     OW98183  11.854  14.636   2.022
65429SOL    HW198184  11.769  14.600   2.045
65429SOL    HW298185  11.914  14.599   2.086
65430SOL     OW98186   2.742   3.092   5.655
65430SOL    HW198187   2.798   3.098   5.577
65430SOL    HW298188   2.720   2.999   5.662
65431SOL     OW98189  14.539  10.803   1.251
65431SOL    HW198190  14.536  10.763   1.339
65431SOL    HW298191  14.587  10.738   1.198
65432SOL     OW98192  11.456   4.682  13.923
65432SOL    HW198193  11.380   4.716  13.972
65432SOL    HW298194  11.423   4.603  13.880
65433SOL     OW98195   8.914   4.555   0.511
65433SOL    HW198196   8.844   4.578   0.450
65433SOL    HW298197   8.886   4.593   0.595
65434SOL     OW98198  14.281  11.196  13.762
65434SOL    HW198199  14.257  11.288  13.748
65434SOL    HW298200  14.217  11.147  13.711
65435SOL     OW98201   0.274  12.415   7.029
65435SOL    HW198202   0.297  12.389   6.940
65435SOL    HW298203   0.268  12.511   7.025
65436SOL     OW98204  11.541   6.607   4.026
65436SOL    HW198205  11.614   6.545   4.025
65436SOL    HW298206  11.561   6.668   3.955
65437SOL     OW98207   3.440  14.770   9.573
65437SOL    HW198208   3.396  14.685   9.584
65437SOL    HW298209   3.432  14.789   9.480
65438SOL     OW98210   3.241  11.510  13.522
65438SOL    HW198211   3.255  11.483  13.613
65438SOL    HW298212   3.158  11.468  13.497
65439SOL     OW98213  10.889  12.334   9.233
65439SOL    HW198214  10.832  12.409   9.252
65439SOL    HW298215  10.829  12.262   9.214
65440SOL     OW98216   8.089   1.785   6.351
65440SOL    HW198217   8.000   1.783   6.387
65440SOL    HW298218   8.078   1.814   6.261
65441SOL     OW98219   1.972  10.179  10.243
65441SOL    HW198220   1.937  10.249  10.299
65441SOL    HW298221   1.900  10.157  10.184
65442SOL     OW98222  13.515  13.771   3.746
65442SOL    HW198223  13.583  13.796   3.808
65442SOL    HW298224  13.513  13.676   3.750
65443SOL     OW98225   4.302  14.062   1.006
65443SOL    HW198226   4.282  14.115   1.083
65443SOL    HW298227   4.237  13.992   1.008
65444SOL     OW98228   9.925   1.152  10.819
65444SOL    HW198229   9.983   1.105  10.879
65444SOL    HW298230   9.860   1.086  10.792
65445SOL     OW98231  13.964  13.759  10.098
65445SOL    HW198232  14.036  13.697  10.086
65445SOL    HW298233  13.887  13.712  10.065
65446SOL     OW98234   3.717  13.296   0.132
65446SOL    HW198235   3.716  13.204   0.107
65446SOL    HW298236   3.700  13.343   0.050
65447SOL     OW98237   9.019   7.131   0.854
65447SOL    HW198238   9.073   7.053   0.866
65447SOL    HW298239   9.079   7.197   0.820
65448SOL     OW98240  14.856   0.146  12.372
65448SOL    HW198241  14.854   0.096  12.454
65448SOL    HW298242  14.800   0.098  12.313
65449SOL     OW98243  12.321   1.508   9.260
65449SOL    HW198244  12.309   1.426   9.307
65449SOL    HW298245  12.236   1.525   9.219
65450SOL     OW98246   4.006   4.751  11.108
65450SOL    HW198247   4.054   4.816  11.057
65450SOL    HW298248   4.040   4.666  11.078
65451SOL     OW98249   3.801  14.694   0.438
65451SOL    HW198250   3.793  14.599   0.437
65451SOL    HW298251   3.729  14.724   0.493
65452SOL     OW98252   5.923   5.696   1.154
65452SOL    HW198253   6.015   5.721   1.156
65452SOL    HW298254   5.896   5.712   1.064
65453SOL     OW98255   7.141   2.648   0.569
65453SOL    HW198256   7.186   2.728   0.596
65453SOL    HW298257   7.204   2.603   0.512
65454SOL     OW98258   4.596   4.577   4.773
65454SOL    HW198259   4.659   4.508   4.794
65454SOL    HW298260   4.544   4.542   4.701
65455SOL     OW98261   0.684  13.693   8.301
65455SOL    HW198262   0.597  13.730   8.291
65455SOL    HW298263   0.738  13.767   8.331
65456SOL     OW98264   8.464   6.430   5.129
65456SOL    HW198265   8.468   6.474   5.044
65456SOL    HW298266   8.395   6.476   5.177
65457SOL     OW98267  10.767  12.903   2.454
65457SOL    HW198268  10.810  12.882   2.371
65457SOL    HW298269  10.675  12.914   2.430
65458SOL     OW98270   1.627   8.542   3.841
65458SOL    HW198271   1.674   8.535   3.924
65458SOL    HW298272   1.537   8.519   3.863
65459SOL     OW98273   4.300   4.411   1.437
65459SOL    HW198274   4.327   4.496   1.472
65459SOL    HW298275   4.262   4.366   1.513
65460SOL     OW98276  11.664   1.135   9.729
65460SOL    HW198277  11.716   1.076   9.676
65460SOL    HW298278  11.672   1.220   9.685
65461SOL     OW98279   5.467  12.125   5.363
65461SOL    HW198280   5.520  12.170   5.297
65461SOL    HW298281   5.482  12.032   5.347
65462SOL     OW98282   7.517   2.014   4.196
65462SOL    HW198283   7.462   2.089   4.221
65462SOL    HW298284   7.598   2.053   4.164
65463SOL     OW98285   1.462   1.467   3.270
65463SOL    HW198286   1.453   1.560   3.248
65463SOL    HW298287   1.484   1.466   3.363
65464SOL     OW98288  12.746   3.061   4.376
65464SOL    HW198289  12.669   3.067   4.433
65464SOL    HW298290  12.796   2.987   4.412
65465SOL     OW98291  11.192   1.678   2.777
65465SOL    HW198292  11.243   1.686   2.857
65465SOL    HW298293  11.125   1.746   2.784
65466SOL     OW98294   5.511  13.665   5.364
65466SOL    HW198295   5.571  13.597   5.394
65466SOL    HW298296   5.557  13.707   5.291
65467SOL     OW98297   6.840  11.700   6.599
65467SOL    HW198298   6.905  11.715   6.531
65467SOL    HW298299   6.761  11.741   6.566
65468SOL     OW98300   5.577  14.073  14.655
65468SOL    HW198301   5.548  14.055  14.745
65468SOL    HW298302   5.503  14.046  14.600
65469SOL     OW98303  12.346  12.935   3.039
65469SOL    HW198304  12.285  12.955   3.109
65469SOL    HW298305  12.406  13.010   3.036
65470SOL     OW98306   3.572   7.364   3.193
65470SOL    HW198307   3.647   7.409   3.232
65470SOL    HW298308   3.537   7.309   3.263
65471SOL     OW98309  14.695   0.777   0.991
65471SOL    HW198310  14.741   0.775   1.075
65471SOL    HW298311  14.741   0.713   0.937
65472SOL     OW98312   0.494   0.002   9.851
65472SOL    HW198313   0.575   0.043   9.820
65472SOL    HW298314   0.499  14.782   9.817
65473SOL     OW98315  10.755   8.898   1.716
65473SOL    HW198316  10.727   8.911   1.626
65473SOL    HW298317  10.758   8.986   1.753
65474SOL     OW98318   6.631  14.866   2.741
65474SOL    HW198319   6.705   0.045   2.705
65474SOL    HW298320   6.670  14.804   2.803
65475SOL     OW98321  10.043   5.311  10.529
65475SOL    HW198322  10.017   5.390  10.578
65475SOL    HW298323   9.960   5.268  10.509
65476SOL     OW98324  10.606   0.019   2.251
65476SOL    HW198325  10.623   0.113   2.256
65476SOL    HW298326  10.545   0.001   2.322
65477SOL     OW98327   7.464  10.057   9.280
65477SOL    HW198328   7.465  10.088   9.190
65477SOL    HW298329   7.446  10.134   9.333
65478SOL     OW98330  13.849   8.118  12.843
65478SOL    HW198331  13.757   8.109  12.867
65478SOL    HW298332  13.853   8.198  12.791
65479SOL     OW98333  10.776   1.249   6.556
65479SOL    HW198334  10.766   1.262   6.462
65479SOL    HW298335  10.848   1.307   6.581
65480SOL     OW98336   3.168  14.249   2.114
65480SOL    HW198337   3.134  14.275   2.028
65480SOL    HW298338   3.104  14.184   2.145
65481SOL     OW98339   8.538   9.578  11.524
65481SOL    HW198340   8.563   9.670  11.518
65481SOL    HW298341   8.484   9.563  11.447
65482SOL     OW98342   9.427   7.305   7.132
65482SOL    HW198343   9.381   7.306   7.047
65482SOL    HW298344   9.491   7.235   7.124
65483SOL     OW98345   7.171   1.398   0.507
65483SOL    HW198346   7.248   1.359   0.466
65483SOL    HW298347   7.193   1.403   0.600
65484SOL     OW98348   9.918   9.226   7.719
65484SOL    HW198349   9.987   9.165   7.744
65484SOL    HW298350   9.837   9.184   7.749
65485SOL     OW98351   6.305  12.054   3.012
65485SOL    HW198352   6.360  12.020   3.082
65485SOL    HW298353   6.232  12.096   3.056
65486SOL     OW98354  12.435   2.084  12.143
65486SOL    HW198355  12.369   2.042  12.088
65486SOL    HW298356  12.498   2.120  12.081
65487SOL     OW98357   8.958  10.719  11.669
65487SOL    HW198358   9.012  10.768  11.606
65487SOL    HW298359   8.869  10.730  11.638
65488SOL     OW98360   8.920  11.588   4.401
65488SOL    HW198361   8.893  11.580   4.310
65488SOL    HW298362   8.838  11.600   4.449
65489SOL     OW98363   2.968   9.776   4.375
65489SOL    HW198364   2.993   9.848   4.318
65489SOL    HW298365   2.885   9.804   4.413
65490SOL     OW98366   0.777  11.662   5.639
65490SOL    HW198367   0.769  11.739   5.583
65490SOL    HW298368   0.743  11.691   5.724
65491SOL     OW98369   4.232   9.257   2.334
65491SOL    HW198370   4.235   9.306   2.417
65491SOL    HW298371   4.226   9.165   2.361
65492SOL     OW98372   0.211  12.222  10.444
65492SOL    HW198373   0.258  12.207  10.526
65492SOL    HW298374   0.279  12.224  10.377
65493SOL     OW98375  11.598   2.635   2.708
65493SOL    HW198376  11.665   2.598   2.650
65493SOL    HW298377  11.635   2.627   2.796
65494SOL     OW98378  14.117   2.131  10.854
65494SOL    HW198379  14.029   2.158  10.829
65494SOL    HW298380  14.142   2.066  10.788
65495SOL     OW98381   5.981   0.145  10.469
65495SOL    HW198382   6.056   0.105  10.513
65495SOL    HW298383   5.917   0.074  10.461
65496SOL     OW98384   7.200   1.211  10.269
65496SOL    HW198385   7.155   1.194  10.352
65496SOL    HW298386   7.278   1.155  10.272
65497SOL     OW98387   5.795   3.688   1.082
65497SOL    HW198388   5.840   3.682   0.998
65497SOL    HW298389   5.857   3.650   1.145
65498SOL     OW98390  13.837  13.643   2.817
65498SOL    HW198391  13.906  13.611   2.876
65498SOL    HW298392  13.816  13.568   2.761
65499SOL     OW98393   4.504   3.073   7.244
65499SOL    HW198394   4.438   3.095   7.309
65499SOL    HW298395   4.585   3.110   7.278
65500SOL     OW98396  11.985   7.005   8.388
65500SOL    HW198397  11.969   6.992   8.481
65500SOL    HW298398  12.070   6.965   8.371
65501SOL     OW98399  12.324   8.698  14.267
65501SOL    HW198400  12.324   8.750  14.187
65501SOL    HW298401  12.280   8.754  14.332
65502SOL     OW98402  14.631  14.352  11.792
65502SOL    HW198403  14.589  14.296  11.726
65502SOL    HW298404  14.583  14.434  11.788
65503SOL     OW98405   5.259   8.114   9.322
65503SOL    HW198406   5.323   8.049   9.294
65503SOL    HW298407   5.185   8.102   9.262
65504SOL     OW98408   4.505  10.697  14.468
65504SOL    HW198409   4.536  10.762  14.406
65504SOL    HW298410   4.422  10.731  14.500
65505SOL     OW98411   4.893   3.590  11.697
65505SOL    HW198412   4.892   3.606  11.603
65505SOL    HW298413   4.983   3.605  11.723
65506SOL     OW98414   7.996   2.403   1.605
65506SOL    HW198415   7.918   2.428   1.654
65506SOL    HW298416   7.987   2.448   1.521
65507SOL     OW98417   2.311  14.855   2.329
65507SOL    HW198418   2.386   0.022   2.375
65507SOL    HW298419   2.259  14.812   2.397
65508SOL     OW98420  14.804   9.454  10.376
65508SOL    HW198421  14.819   9.434  10.284
65508SOL    HW298422  14.849   9.537  10.391
65509SOL     OW98423   7.079   7.977   8.006
65509SOL    HW198424   7.073   7.903   7.946
65509SOL    HW298425   7.152   7.956   8.064
65510SOL     OW98426   5.361  10.040  13.911
65510SOL    HW198427   5.284  10.035  13.855
65510SOL    HW298428   5.418  10.105  13.868
65511SOL     OW98429  13.080   6.457   2.923
65511SOL    HW198430  13.056   6.421   3.009
65511SOL    HW298431  13.094   6.380   2.868
65512SOL     OW98432  11.719   0.746   2.381
65512SOL    HW198433  11.717   0.713   2.291
65512SOL    HW298434  11.691   0.671   2.434
65513SOL     OW98435   3.850   1.980  11.256
65513SOL    HW198436   3.805   2.063  11.243
65513SOL    HW298437   3.840   1.961  11.349
65514SOL     OW98438  12.252   0.923   1.450
65514SOL    HW198439  12.300   0.948   1.372
65514SOL    HW298440  12.161   0.945   1.430
65515SOL     OW98441  14.225   8.508   3.300
65515SOL    HW198442  14.238   8.553   3.216
65515SOL    HW298443  14.311   8.472   3.321
65516SOL     OW98444  12.994  10.352   0.723
65516SOL    HW198445  12.966  10.278   0.669
65516SOL    HW298446  12.913  10.400   0.740
65517SOL     OW98447   2.775   4.418   7.292
65517SOL    HW198448   2.843   4.439   7.356
65517SOL    HW298449   2.716   4.358   7.338
65518SOL     OW98450   3.220  11.225   3.942
65518SOL    HW198451   3.276  11.299   3.965
65518SOL    HW298452   3.257  11.192   3.860
65519SOL     OW98453   2.795  14.595   6.662
65519SOL    HW198454   2.880  14.585   6.707
65519SOL    HW298455   2.755  14.670   6.704
65520SOL     OW98456  12.288   9.052  12.774
65520SOL    HW198457  12.217   9.070  12.712
65520SOL    HW298458  12.244   9.016  12.852
65521SOL     OW98459   0.921   4.051  12.414
65521SOL    HW198460   0.931   4.054  12.509
65521SOL    HW298461   0.980   4.119  12.382
65522SOL     OW98462   6.136  13.518  11.051
65522SOL    HW198463   6.099  13.607  11.057
65522SOL    HW298464   6.099  13.483  10.970
65523SOL     OW98465   0.073   0.287   5.134
65523SOL    HW198466   0.124   0.207   5.126
65523SOL    HW298467   0.016   0.287   5.057
65524SOL     OW98468   2.229   4.699   4.798
65524SOL    HW198469   2.172   4.628   4.768
65524SOL    HW298470   2.259   4.741   4.717
65525SOL     OW98471  14.593  10.857   3.447
65525SOL    HW198472  14.686  10.864   3.467
65525SOL    HW298473  14.549  10.870   3.531
65526SOL     OW98474  12.103  13.915  12.598
65526SOL    HW198475  12.158  13.868  12.536
65526SOL    HW298476  12.143  13.897  12.684
65527SOL     OW98477  14.161  13.270   1.256
65527SOL    HW198478  14.172  13.354   1.301
65527SOL    HW298479  14.134  13.293   1.167
65528SOL     OW98480  13.832   0.529   0.182
65528SOL    HW198481  13.925   0.549   0.177
65528SOL    HW298482  13.789   0.612   0.167
65529SOL     OW98483  13.095   9.073   2.625
65529SOL    HW198484  13.129   9.135   2.690
65529SOL    HW298485  13.152   9.084   2.549
65530SOL     OW98486   8.012  11.185   3.652
65530SOL    HW198487   8.037  11.269   3.692
65530SOL    HW298488   8.091  11.157   3.604
65531SOL     OW98489  14.616  11.879   8.690
65531SOL    HW198490  14.528  11.847   8.676
65531SOL    HW298491  14.648  11.831   8.767
65532SOL     OW98492   5.962  14.351   5.959
65532SOL    HW198493   5.898  14.393   5.903
65532SOL    HW298494   5.911  14.295   6.017
65533SOL     OW98495  14.576   1.919  10.358
65533SOL    HW198496  14.646   1.921  10.294
65533SOL    HW298497  14.495   1.920  10.306
65534SOL     OW98498   6.991  14.300   2.725
65534SOL    HW198499   6.927  14.370   2.739
65534SOL    HW298500   6.977  14.274   2.634
65535SOL     OW98501  13.092  12.224  10.582
65535SOL    HW198502  13.022  12.231  10.647
65535SOL    HW298503  13.070  12.147  10.531
65536SOL     OW98504   3.402  11.525   5.491
65536SOL    HW198505   3.344  11.592   5.526
65536SOL    HW298506   3.395  11.534   5.396
65537SOL     OW98507  12.631  11.262  12.220
65537SOL    HW198508  12.570  11.191  12.238
65537SOL    HW298509  12.702  11.249  12.283
65538SOL     OW98510   6.899  13.498   0.154
65538SOL    HW198511   6.995  13.503   0.156
65538SOL    HW298512   6.875  13.539   0.071
65539SOL     OW98513   1.632   7.602   8.675
65539SOL    HW198514   1.633   7.697   8.678
65539SOL    HW298515   1.547   7.577   8.709
65540SOL     OW98516   5.129   6.923   0.837
65540SOL    HW198517   5.065   6.878   0.782
65540SOL    HW298518   5.108   6.895   0.926
65541SOL     OW98519  13.429   4.662  10.612
65541SOL    HW198520  13.368   4.589  10.605
65541SOL    HW298521  13.512   4.628  10.578
65542SOL     OW98522   5.547   7.214   9.383
65542SOL    HW198523   5.533   7.305   9.357
65542SOL    HW298524   5.515   7.209   9.473
65543SOL     OW98525   3.221   7.906   4.540
65543SOL    HW198526   3.273   7.957   4.603
65543SOL    HW298527   3.275   7.829   4.522
65544SOL     OW98528   4.648   3.465  11.009
65544SOL    HW198529   4.603   3.410  10.946
65544SOL    HW298530   4.605   3.550  11.001
65545SOL     OW98531   7.648  11.204   0.709
65545SOL    HW198532   7.652  11.288   0.664
65545SOL    HW298533   7.600  11.147   0.649
65546SOL     OW98534  10.677   3.231   7.420
65546SOL    HW198535  10.630   3.276   7.491
65546SOL    HW298536  10.622   3.243   7.343
65547SOL     OW98537   8.907   6.232   2.807
65547SOL    HW198538   8.893   6.319   2.844
65547SOL    HW298539   9.001   6.226   2.793
65548SOL     OW98540   4.303   0.365   0.840
65548SOL    HW198541   4.386   0.320   0.855
65548SOL    HW298542   4.329   0.454   0.815
65549SOL     OW98543   4.432   1.358   5.480
65549SOL    HW198544   4.342   1.326   5.472
65549SOL    HW298545   4.443   1.373   5.574
65550SOL     OW98546   8.493   2.933   6.886
65550SOL    HW198547   8.476   2.914   6.794
65550SOL    HW298548   8.406   2.934   6.926
65551SOL     OW98549   3.250  13.717   9.731
65551SOL    HW198550   3.279  13.629   9.708
65551SOL    HW298551   3.209  13.707   9.817
65552SOL     OW98552   6.794   5.436  11.921
65552SOL    HW198553   6.746   5.431  11.838
65552SOL    HW298554   6.736   5.484  11.980
65553SOL     OW98555  14.758   3.819   5.805
65553SOL    HW198556  14.759   3.844   5.713
65553SOL    HW298557  14.740   3.900   5.852
65554SOL     OW98558  14.694   3.913   5.218
65554SOL    HW198559  14.727   3.868   5.296
65554SOL    HW298560  14.719   3.855   5.146
65555SOL     OW98561  10.351   1.432  13.878
65555SOL    HW198562  10.417   1.501  13.878
65555SOL    HW298563  10.338   1.411  13.785
65556SOL     OW98564   7.992   5.018  12.483
65556SOL    HW198565   7.915   5.039  12.534
65556SOL    HW298566   8.064   5.015  12.547
65557SOL     OW98567  10.455   2.798   5.726
65557SOL    HW198568  10.359   2.798   5.728
65557SOL    HW298569  10.479   2.710   5.755
65558SOL     OW98570  14.271  13.769   0.480
65558SOL    HW198571  14.342  13.819   0.442
65558SOL    HW298572  14.301  13.748   0.568
65559SOL     OW98573   1.666  13.466   6.674
65559SOL    HW198574   1.738  13.418   6.632
65559SOL    HW298575   1.596  13.465   6.609
65560SOL     OW98576  10.850   9.607  14.094
65560SOL    HW198577  10.942   9.591  14.112
65560SOL    HW298578  10.817   9.523  14.061
65561SOL     OW98579   0.963   6.869  11.906
65561SOL    HW198580   0.951   6.795  11.966
65561SOL    HW298581   0.927   6.838  11.823
65562SOL     OW98582   5.538   6.376   5.004
65562SOL    HW198583   5.603   6.415   5.062
65562SOL    HW298584   5.454   6.410   5.035
65563SOL     OW98585   4.025   4.294  13.946
65563SOL    HW198586   3.980   4.333  13.871
65563SOL    HW298587   4.040   4.367  14.007
65564SOL     OW98588  11.065   7.445  14.657
65564SOL    HW198589  11.041   7.478  14.744
65564SOL    HW298590  11.127   7.375  14.675
65565SOL     OW98591  14.613   1.994   1.999
65565SOL    HW198592  14.673   2.060   2.035
65565SOL    HW298593  14.600   2.021   1.908
65566SOL     OW98594  12.920  14.501   9.647
65566SOL    HW198595  13.007  14.484   9.682
65566SOL    HW298596  12.862  14.446   9.698
65567SOL     OW98597   0.541   7.684   1.974
65567SOL    HW198598   0.480   7.734   2.028
65567SOL    HW298599   0.528   7.716   1.885
65568SOL     OW98600   2.532   7.128  11.711
65568SOL    HW198601   2.524   7.223  11.722
65568SOL    HW298602   2.582   7.118  11.630
65569SOL     OW98603  10.657   0.709   9.855
65569SOL    HW198604  10.608   0.775   9.905
65569SOL    HW298605  10.600   0.633   9.852
65570SOL     OW98606   6.973   2.107   7.447
65570SOL    HW198607   6.938   2.036   7.502
65570SOL    HW298608   7.028   2.158   7.506
65571SOL     OW98609   1.861  13.179   6.723
65571SOL    HW198610   1.951  13.152   6.738
65571SOL    HW298611   1.861  13.215   6.634
65572SOL     OW98612   6.980   3.860  14.130
65572SOL    HW198613   6.956   3.860  14.223
65572SOL    HW298614   6.932   3.934  14.093
65573SOL     OW98615   1.876  11.893   3.103
65573SOL    HW198616   1.848  11.883   3.012
65573SOL    HW298617   1.802  11.860   3.155
65574SOL     OW98618   4.957   6.199   9.194
65574SOL    HW198619   5.031   6.259   9.203
65574SOL    HW298620   4.989   6.116   9.229
65575SOL     OW98621  12.868   3.687  11.860
65575SOL    HW198622  12.824   3.652  11.938
65575SOL    HW298623  12.797   3.722  11.806
65576SOL     OW98624   9.673   6.148   3.916
65576SOL    HW198625   9.719   6.133   3.998
65576SOL    HW298626   9.674   6.243   3.904
65577SOL     OW98627   5.058   8.465   7.975
65577SOL    HW198628   5.150   8.483   7.991
65577SOL    HW298629   5.011   8.540   8.012
65578SOL     OW98630   7.346   4.044   7.729
65578SOL    HW198631   7.299   3.981   7.674
65578SOL    HW298632   7.382   4.108   7.667
65579SOL     OW98633   8.495   2.442   3.278
65579SOL    HW198634   8.515   2.510   3.342
65579SOL    HW298635   8.495   2.361   3.328
65580SOL     OW98636   5.224   7.402   0.445
65580SOL    HW198637   5.210   7.328   0.505
65580SOL    HW298638   5.160   7.468   0.473
65581SOL     OW98639   4.681   8.605   5.341
65581SOL    HW198640   4.694   8.512   5.322
65581SOL    HW298641   4.588   8.620   5.326
65582SOL     OW98642   8.907  13.740   7.387
65582SOL    HW198643   8.898  13.690   7.468
65582SOL    HW298644   8.977  13.803   7.406
65583SOL     OW98645   4.060  14.334   7.798
65583SOL    HW198646   4.084  14.391   7.725
65583SOL    HW298647   4.103  14.251   7.779
65584SOL     OW98648  11.847  13.063  13.537
65584SOL    HW198649  11.908  12.997  13.503
65584SOL    HW298650  11.819  13.028  13.621
65585SOL     OW98651   9.153   1.968   9.916
65585SOL    HW198652   9.108   1.990   9.834
65585SOL    HW298653   9.231   1.919   9.887
65586SOL     OW98654   4.736   5.795   4.325
65586SOL    HW198655   4.663   5.735   4.309
65586SOL    HW298656   4.814   5.744   4.302
65587SOL     OW98657   7.452  13.529   3.280
65587SOL    HW198658   7.471  13.489   3.365
65587SOL    HW298659   7.393  13.602   3.300
65588SOL     OW98660   5.316   2.267  14.606
65588SOL    HW198661   5.362   2.196  14.650
65588SOL    HW298662   5.234   2.276  14.654
65589SOL     OW98663   8.039  12.966  10.426
65589SOL    HW198664   8.058  12.998  10.338
65589SOL    HW298665   7.966  13.020  10.457
65590SOL     OW98666   5.599   3.163   2.181
65590SOL    HW198667   5.515   3.179   2.136
65590SOL    HW298668   5.574   3.132   2.268
65591SOL     OW98669   3.208   7.408   1.070
65591SOL    HW198670   3.140   7.364   1.122
65591SOL    HW298671   3.260   7.336   1.034
65592SOL     OW98672   2.232   7.484   4.051
65592SOL    HW198673   2.264   7.445   3.969
65592SOL    HW298674   2.303   7.469   4.114
65593SOL     OW98675  12.348   6.180   8.332
65593SOL    HW198676  12.419   6.242   8.345
65593SOL    HW298677  12.276   6.232   8.296
65594SOL     OW98678  13.730   6.877   3.417
65594SOL    HW198679  13.744   6.900   3.325
65594SOL    HW298680  13.678   6.797   3.414
65595SOL     OW98681   0.325   3.399   8.567
65595SOL    HW198682   0.366   3.485   8.555
65595SOL    HW298683   0.354   3.371   8.654
65596SOL     OW98684   4.002  14.596  12.849
65596SOL    HW198685   4.029  14.505  12.837
65596SOL    HW298686   4.076  14.648  12.816
65597SOL     OW98687   5.573  13.941   2.304
65597SOL    HW198688   5.666  13.944   2.279
65597SOL    HW298689   5.568  13.871   2.369
65598SOL     OW98690   0.583   8.475   0.490
65598SOL    HW198691   0.677   8.459   0.504
65598SOL    HW298692   0.570   8.460   0.397
65599SOL     OW98693  10.014   1.618  13.345
65599SOL    HW198694  10.037   1.525  13.333
65599SOL    HW298695   9.984   1.646  13.259
65600SOL     OW98696   2.443   7.869   6.115
65600SOL    HW198697   2.535   7.847   6.128
65600SOL    HW298698   2.400   7.835   6.194
65601SOL     OW98699   6.957   4.171   8.550
65601SOL    HW198700   6.966   4.171   8.455
65601SOL    HW298701   6.975   4.261   8.577
65602SOL     OW98702   6.681   2.872  10.932
65602SOL    HW198703   6.752   2.923  10.893
65602SOL    HW298704   6.609   2.935  10.939
65603SOL     OW98705   5.037   2.699  14.256
65603SOL    HW198706   5.107   2.730  14.313
65603SOL    HW298707   5.002   2.779  14.215
65604SOL     OW98708   5.076   4.440   1.649
65604SOL    HW198709   4.988   4.474   1.665
65604SOL    HW298710   5.087   4.369   1.712
65605SOL     OW98711  12.392  14.794   8.600
65605SOL    HW198712  12.313  14.834   8.564
65605SOL    HW298713  12.426  14.740   8.529
65606SOL     OW98714   3.166   8.997   3.990
65606SOL    HW198715   3.205   8.959   4.068
65606SOL    HW298716   3.090   9.046   4.022
65607SOL     OW98717  12.190  10.677   9.785
65607SOL    HW198718  12.284  10.691   9.795
65607SOL    HW298719  12.182  10.616   9.711
65608SOL     OW98720   9.902   9.103   3.752
65608SOL    HW198721   9.860   9.134   3.832
65608SOL    HW298722   9.963   9.035   3.781
65609SOL     OW98723   1.527   1.738   2.866
65609SOL    HW198724   1.531   1.817   2.813
65609SOL    HW298725   1.608   1.691   2.846
65610SOL     OW98726  14.018  10.279  11.828
65610SOL    HW198727  14.037  10.185  11.829
65610SOL    HW298728  13.938  10.288  11.880
65611SOL     OW98729   3.938   8.050  13.774
65611SOL    HW198730   3.853   8.073  13.735
65611SOL    HW298731   3.923   7.963  13.813
65612SOL     OW98732   0.720  12.307   8.357
65612SOL    HW198733   0.658  12.380   8.351
65612SOL    HW298734   0.806  12.349   8.351
65613SOL     OW98735  10.516   8.248   7.156
65613SOL    HW198736  10.581   8.197   7.204
65613SOL    HW298737  10.554   8.335   7.147
65614SOL     OW98738  12.256   2.947   2.120
65614SOL    HW198739  12.302   2.998   2.188
65614SOL    HW298740  12.325   2.895   2.079
65615SOL     OW98741   0.272   2.241  13.848
65615SOL    HW198742   0.227   2.266  13.929
65615SOL    HW298743   0.287   2.324  13.802
65616SOL     OW98744  11.199   4.578  11.486
65616SOL    HW198745  11.183   4.645  11.552
65616SOL    HW298746  11.114   4.535  11.474
65617SOL     OW98747   3.859  10.413   3.007
65617SOL    HW198748   3.891  10.368   2.929
65617SOL    HW298749   3.767  10.387   3.014
65618SOL     OW98750   2.014   4.846   1.328
65618SOL    HW198751   2.108   4.863   1.319
65618SOL    HW298752   1.976   4.932   1.343
65619SOL     OW98753   6.185   7.022   4.494
65619SOL    HW198754   6.176   7.008   4.400
65619SOL    HW298755   6.268   6.979   4.516
65620SOL     OW98756   5.058   7.623   0.400
65620SOL    HW198757   5.057   7.706   0.353
65620SOL    HW298758   4.966   7.600   0.409
65621SOL     OW98759   5.090   6.222   4.283
65621SOL    HW198760   5.137   6.260   4.209
65621SOL    HW298761   5.157   6.214   4.352
65622SOL     OW98762   4.297   0.674   8.688
65622SOL    HW198763   4.353   0.641   8.618
65622SOL    HW298764   4.351   0.669   8.766
65623SOL     OW98765  11.533   9.936   3.672
65623SOL    HW198766  11.447   9.894   3.677
65623SOL    HW298767  11.589   9.872   3.628
65624SOL     OW98768  14.214   9.102  13.933
65624SOL    HW198769  14.128   9.128  13.967
65624SOL    HW298770  14.264   9.183  13.927
65625SOL     OW98771   2.047  14.448   8.341
65625SOL    HW198772   2.138  14.460   8.311
65625SOL    HW298773   2.028  14.527   8.392
65626SOL     OW98774   4.240  11.125   4.611
65626SOL    HW198775   4.317  11.163   4.652
65626SOL    HW298776   4.184  11.100   4.685
65627SOL     OW98777  13.959   6.340   2.876
65627SOL    HW198778  13.995   6.318   2.962
65627SOL    HW298779  13.967   6.259   2.825
65628SOL     OW98780  11.111   4.421   1.984
65628SOL    HW198781  11.026   4.379   1.994
65628SOL    HW298782  11.171   4.349   1.964
65629SOL     OW98783  11.405   3.294   9.590
65629SOL    HW198784  11.330   3.350   9.609
65629SOL    HW298785  11.481   3.349   9.605
65630SOL     OW98786  13.221   8.022   3.931
65630SOL    HW198787  13.204   8.001   4.023
65630SOL    HW298788  13.314   8.000   3.919
65631SOL     OW98789   4.936   1.405   6.594
65631SOL    HW198790   5.008   1.351   6.560
65631SOL    HW298791   4.895   1.442   6.516
65632SOL     OW98792   9.623   8.158   3.584
65632SOL    HW198793   9.595   8.161   3.492
65632SOL    HW298794   9.553   8.110   3.629
65633SOL     OW98795  13.710   3.186   2.697
65633SOL    HW198796  13.650   3.260   2.709
65633SOL    HW298797  13.653   3.109   2.698
65634SOL     OW98798   3.202   3.854   4.822
65634SOL    HW198799   3.287   3.841   4.864
65634SOL    HW298800   3.207   3.942   4.784
65635SOL     OW98801   0.068   5.399  11.287
65635SOL    HW198802  14.857   5.444  11.262
65635SOL    HW298803   0.050   5.362  11.373
65636SOL     OW98804  10.383   4.533   5.745
65636SOL    HW198805  10.415   4.596   5.810
65636SOL    HW298806  10.460   4.480   5.723
65637SOL     OW98807   5.538   3.910   0.107
65637SOL    HW198808   5.628   3.888   0.082
65637SOL    HW298809   5.484   3.885   0.032
65638SOL     OW98810   8.646   7.239   9.780
65638SOL    HW198811   8.685   7.177   9.719
65638SOL    HW298812   8.624   7.315   9.726
65639SOL     OW98813  13.745  10.331  10.419
65639SOL    HW198814  13.738  10.296  10.331
65639SOL    HW298815  13.792  10.413  10.409
65640SOL     OW98816   2.200   9.628   4.785
65640SOL    HW198817   2.143   9.577   4.728
65640SOL    HW298818   2.265   9.666   4.726
65641SOL     OW98819   6.254  13.633  14.058
65641SOL    HW198820   6.292  13.600  14.140
65641SOL    HW298821   6.326  13.680  14.016
65642SOL     OW98822   8.728   8.739   0.879
65642SOL    HW198823   8.710   8.774   0.792
65642SOL    HW298824   8.728   8.816   0.936
65643SOL     OW98825   4.590   5.161   4.825
65643SOL    HW198826   4.643   5.083   4.838
65643SOL    HW298827   4.506   5.140   4.866
65644SOL     OW98828   4.117  11.670   3.027
65644SOL    HW198829   4.025  11.663   3.001
65644SOL    HW298830   4.165  11.638   2.951
65645SOL     OW98831   1.505   3.413   9.209
65645SOL    HW198832   1.493   3.493   9.261
65645SOL    HW298833   1.585   3.430   9.158
65646SOL     OW98834   2.809   4.377   5.992
65646SOL    HW198835   2.724   4.390   6.035
65646SOL    HW298836   2.799   4.420   5.907
65647SOL     OW98837  13.993  10.144   7.138
65647SOL    HW198838  13.986  10.190   7.054
65647SOL    HW298839  13.915  10.089   7.142
65648SOL     OW98840  12.873   4.814  14.671
65648SOL    HW198841  12.903   4.895  14.713
65648SOL    HW298842  12.878   4.833  14.577
65649SOL     OW98843  13.134   4.836  14.810
65649SOL    HW198844  13.160   4.895  14.739
65649SOL    HW298845  13.108   4.755  14.767
65650SOL     OW98846  14.763   4.437  11.315
65650SOL    HW198847  14.746   4.377  11.387
65650SOL    HW298848  14.701   4.411  11.247
65651SOL     OW98849   8.844   8.413   3.872
65651SOL    HW198850   8.919   8.358   3.850
65651SOL    HW298851   8.812   8.445   3.788
65652SOL     OW98852   9.024   4.502   1.881
65652SOL    HW198853   8.938   4.531   1.911
65652SOL    HW298854   9.040   4.553   1.802
65653SOL     OW98855   6.886   7.408   3.620
65653SOL    HW198856   6.930   7.332   3.659
65653SOL    HW298857   6.957   7.470   3.603
65654SOL     OW98858   7.196   2.894   3.780
65654SOL    HW198859   7.119   2.949   3.772
65654SOL    HW298860   7.180   2.840   3.858
65655SOL     OW98861  13.891  12.245   9.556
65655SOL    HW198862  13.826  12.233   9.625
65655SOL    HW298863  13.850  12.305   9.494
65656SOL     OW98864  10.916   4.119   9.460
65656SOL    HW198865  10.959   4.192   9.416
65656SOL    HW298866  10.912   4.145   9.552
65657SOL     OW98867  11.293   1.860   6.175
65657SOL    HW198868  11.231   1.922   6.137
65657SOL    HW298869  11.241   1.810   6.238
65658SOL     OW98870  13.768  14.508   8.714
65658SOL    HW198871  13.681  14.543   8.733
65658SOL    HW298872  13.794  14.551   8.633
65659SOL     OW98873  10.693   6.508   7.666
65659SOL    HW198874  10.711   6.563   7.742
65659SOL    HW298875  10.670   6.422   7.703
65660SOL     OW98876  10.684   5.208  14.051
65660SOL    HW198877  10.716   5.268  14.118
65660SOL    HW298878  10.589   5.218  14.053
65661SOL     OW98879   6.183   5.937   2.592
65661SOL    HW198880   6.231   5.943   2.674
65661SOL    HW298881   6.107   5.883   2.612
65662SOL     OW98882  14.039   9.036   6.788
65662SOL    HW198883  14.096   9.002   6.720
65662SOL    HW298884  13.951   9.010   6.761
65663SOL     OW98885   5.557   8.690  12.737
65663SOL    HW198886   5.500   8.748  12.687
65663SOL    HW298887   5.498   8.632  12.784
65664SOL     OW98888  14.176   2.823  12.100
65664SOL    HW198889  14.236   2.769  12.150
65664SOL    HW298890  14.233   2.884  12.052
65665SOL     OW98891   5.203   7.740   3.840
65665SOL    HW198892   5.163   7.718   3.756
65665SOL    HW298893   5.297   7.732   3.824
65666SOL     OW98894  13.200   5.039   7.160
65666SOL    HW198895  13.152   4.995   7.231
65666SOL    HW298896  13.233   5.120   7.199
65667SOL     OW98897   6.371   4.411   7.434
65667SOL    HW198898   6.451   4.420   7.381
65667SOL    HW298899   6.355   4.500   7.467
65668SOL     OW98900   8.358   0.829   7.306
65668SOL    HW198901   8.358   0.897   7.239
65668SOL    HW298902   8.295   0.859   7.372
65669SOL     OW98903   4.396   2.526   3.085
65669SOL    HW198904   4.370   2.491   3.171
65669SOL    HW298905   4.442   2.607   3.105
65670SOL     OW98906   5.784   5.492   7.618
65670SOL    HW198907   5.707   5.537   7.585
65670SOL    HW298908   5.851   5.505   7.550
65671SOL     OW98909   6.821  12.818   6.703
65671SOL    HW198910   6.829  12.722   6.695
65671SOL    HW298911   6.911  12.850   6.691
65672SOL     OW98912   8.979   1.639   9.029
65672SOL    HW198913   9.049   1.614   8.968
65672SOL    HW298914   8.919   1.691   8.977
65673SOL     OW98915   8.207   6.056  11.294
65673SOL    HW198916   8.227   5.967  11.265
65673SOL    HW298917   8.118   6.051  11.327
65674SOL     OW98918  12.133  11.778   4.961
65674SOL    HW198919  12.085  11.780   5.044
65674SOL    HW298920  12.076  11.824   4.900
65675SOL     OW98921   2.376   3.740   1.070
65675SOL    HW198922   2.317   3.808   1.038
65675SOL    HW298923   2.415   3.777   1.149
65676SOL     OW98924   6.090   4.588  14.183
65676SOL    HW198925   6.123   4.647  14.251
65676SOL    HW298926   6.000   4.568  14.209
65677SOL     OW98927   6.637   5.125  13.144
65677SOL    HW198928   6.604   5.212  13.119
65677SOL    HW298929   6.706   5.143  13.208
65678SOL     OW98930   9.845   0.994   3.955
65678SOL    HW198931   9.902   0.939   3.902
65678SOL    HW298932   9.774   1.020   3.896
65679SOL     OW98933   4.939  11.150   5.902
65679SOL    HW198934   4.957  11.057   5.915
65679SOL    HW298935   5.021  11.185   5.867
65680SOL     OW98936   2.062   3.234   5.019
65680SOL    HW198937   2.050   3.248   5.113
65680SOL    HW298938   2.010   3.304   4.979
65681SOL     OW98939   7.533  10.857   8.694
65681SOL    HW198940   7.510  10.949   8.684
65681SOL    HW298941   7.468  10.810   8.642
65682SOL     OW98942   7.948   4.325   5.189
65682SOL    HW198943   8.000   4.404   5.205
65682SOL    HW298944   7.992   4.282   5.116
65683SOL     OW98945  12.485   9.924   2.833
65683SOL    HW198946  12.556   9.958   2.887
65683SOL    HW298947  12.474   9.989   2.764
65684SOL     OW98948   1.853  12.160   3.208
65684SOL    HW198949   1.946  12.145   3.220
65684SOL    HW298950   1.829  12.108   3.131
65685SOL     OW98951   5.317  10.237   6.196
65685SOL    HW198952   5.327  10.311   6.136
65685SOL    HW298953   5.233  10.198   6.173
65686SOL     OW98954   0.953  10.549  14.616
65686SOL    HW198955   1.012  10.624  14.624
65686SOL    HW298956   0.993  10.481  14.670
65687SOL     OW98957   2.485   6.351  11.963
65687SOL    HW198958   2.570   6.381  11.932
65687SOL    HW298959   2.507   6.285  12.030
65688SOL     OW98960   3.579  14.096   5.999
65688SOL    HW198961   3.572  14.002   5.982
65688SOL    HW298962   3.655  14.104   6.057
65689SOL     OW98963   5.357   0.806  14.536
65689SOL    HW198964   5.330   0.745  14.605
65689SOL    HW298965   5.433   0.852  14.573
65690SOL     OW98966  10.026   2.487  13.749
65690SOL    HW198967  10.092   2.529  13.693
65690SOL    HW298968  10.048   2.394  13.746
65691SOL     OW98969  14.504   1.958   8.658
65691SOL    HW198970  14.560   2.035   8.669
65691SOL    HW298971  14.546   1.905   8.591
65692SOL     OW98972   6.002  10.214   8.558
65692SOL    HW198973   5.914  10.232   8.590
65692SOL    HW298974   6.027  10.292   8.510
65693SOL     OW98975   7.075  12.408   3.879
65693SOL    HW198976   6.985  12.434   3.899
65693SOL    HW298977   7.069  12.369   3.792
65694SOL     OW98978   2.960   1.555   9.242
65694SOL    HW198979   2.913   1.595   9.169
65694SOL    HW298980   3.024   1.497   9.200
65695SOL     OW98981  14.731  10.981   4.953
65695SOL    HW198982  14.685  10.970   5.037
65695SOL    HW298983  14.794  10.909   4.951
65696SOL     OW98984   7.067  10.379  13.507
65696SOL    HW198985   7.138  10.320  13.485
65696SOL    HW298986   6.988  10.326  13.499
65697SOL     OW98987   0.748  10.064  10.476
65697SOL    HW198988   0.687  10.055  10.549
65697SOL    HW298989   0.726   9.992  10.418
65698SOL     OW98990  12.089   2.322  11.933
65698SOL    HW198991  12.102   2.278  12.017
65698SOL    HW298992  12.113   2.257  11.867
65699SOL     OW98993   5.767  11.893   6.467
65699SOL    HW198994   5.755  11.986   6.488
65699SOL    HW298995   5.781  11.892   6.372
65700SOL     OW98996   0.313   1.732  12.015
65700SOL    HW198997   0.282   1.644  11.996
65700SOL    HW298998   0.407   1.729  11.999
65701SOL     OW98999   4.159  12.220  11.310
65701SOL    HW199000   4.172  12.281  11.238
65701SOL    HW299001   4.068  12.232  11.336
65702SOL     OW99002   5.121  14.056   6.856
65702SOL    HW199003   5.103  14.037   6.948
65702SOL    HW299004   5.044  14.024   6.809
65703SOL     OW99005  11.553  13.816  10.744
65703SOL    HW199006  11.640  13.780  10.726
65703SOL    HW299007  11.532  13.786  10.832
65704SOL     OW99008   6.204  12.915   5.360
65704SOL    HW199009   6.218  12.896   5.268
65704SOL    HW299010   6.127  12.863   5.384
65705SOL     OW99011   5.051   5.720   8.660
65705SOL    HW199012   5.098   5.795   8.694
65705SOL    HW299013   4.964   5.725   8.701
65706SOL     OW99014   6.919   4.470   8.637
65706SOL    HW199015   6.915   4.526   8.715
65706SOL    HW299016   7.009   4.439   8.635
65707SOL     OW99017   1.934   9.488   8.079
65707SOL    HW199018   1.853   9.532   8.104
65707SOL    HW299019   1.938   9.411   8.136
65708SOL     OW99020   7.814   8.130  13.227
65708SOL    HW199021   7.728   8.171  13.224
65708SOL    HW299022   7.838   8.119  13.135
65709SOL     OW99023   1.476   9.818  13.324
65709SOL    HW199024   1.437   9.761  13.389
65709SOL    HW299025   1.562   9.780  13.306
65710SOL     OW99026   4.229  11.144   6.523
65710SOL    HW199027   4.198  11.234   6.520
65710SOL    HW299028   4.324  11.152   6.534
65711SOL     OW99029   3.097   7.408  10.689
65711SOL    HW199030   3.193   7.413  10.687
65711SOL    HW299031   3.071   7.403  10.597
65712SOL     OW99032   6.489   5.043  13.807
65712SOL    HW199033   6.406   5.067  13.764
65712SOL    HW299034   6.549   5.028  13.734
65713SOL     OW99035  10.922   3.172  12.023
65713SOL    HW199036  10.964   3.166  12.109
65713SOL    HW299037  10.891   3.084  12.004
65714SOL     OW99038   5.216  10.961  12.519
65714SOL    HW199039   5.311  10.963  12.521
65714SOL    HW299040   5.193  10.976  12.427
65715SOL     OW99041   3.849   0.465   3.109
65715SOL    HW199042   3.784   0.463   3.039
65715SOL    HW299043   3.933   0.470   3.063
65716SOL     OW99044   1.505   1.007   4.320
65716SOL    HW199045   1.561   1.083   4.338
65716SOL    HW299046   1.416   1.041   4.327
65717SOL     OW99047   0.491  14.057  14.146
65717SOL    HW199048   0.488  13.962  14.135
65717SOL    HW299049   0.543  14.070  14.225
65718SOL     OW99050   3.593   2.720   7.164
65718SOL    HW199051   3.507   2.699   7.127
65718SOL    HW299052   3.606   2.812   7.142
65719SOL     OW99053  13.802  11.050   1.653
65719SOL    HW199054  13.886  11.041   1.697
65719SOL    HW299055  13.755  10.969   1.674
65720SOL     OW99056  10.889  12.548   5.343
65720SOL    HW199057  10.811  12.554   5.287
65720SOL    HW299058  10.854  12.546   5.432
65721SOL     OW99059   9.640   9.615   5.286
65721SOL    HW199060   9.625   9.566   5.366
65721SOL    HW299061   9.569   9.679   5.283
65722SOL     OW99062  11.698   8.620  13.115
65722SOL    HW199063  11.780   8.589  13.153
65722SOL    HW299064  11.630   8.584  13.172
65723SOL     OW99065  12.501   4.659   9.466
65723SOL    HW199066  12.419   4.642   9.512
65723SOL    HW299067  12.553   4.580   9.479
65724SOL     OW99068  12.739   9.937   6.350
65724SOL    HW199069  12.778   9.985   6.276
65724SOL    HW299070  12.696   9.862   6.309
65725SOL     OW99071   6.614  11.336  10.607
65725SOL    HW199072   6.671  11.371  10.676
65725SOL    HW299073   6.659  11.358  10.525
65726SOL     OW99074  10.433   8.964  13.101
65726SOL    HW199075  10.379   8.917  13.164
65726SOL    HW299076  10.517   8.978  13.146
65727SOL     OW99077   6.656   8.396  11.903
65727SOL    HW199078   6.659   8.460  11.831
65727SOL    HW299079   6.623   8.316  11.863
65728SOL     OW99080   9.375  10.175  14.576
65728SOL    HW199081   9.457  10.188  14.624
65728SOL    HW299082   9.373  10.247  14.513
65729SOL     OW99083   1.994   1.224   3.264
65729SOL    HW199084   1.953   1.161   3.324
65729SOL    HW299085   2.088   1.210   3.274
65730SOL     OW99086   9.509   0.256   7.352
65730SOL    HW199087   9.523   0.162   7.367
65730SOL    HW299088   9.449   0.283   7.422
65731SOL     OW99089   9.508  12.575   3.711
65731SOL    HW199090   9.534  12.647   3.654
65731SOL    HW299091   9.587  12.552   3.759
65732SOL     OW99092   4.759  10.878   4.820
65732SOL    HW199093   4.674  10.853   4.784
65732SOL    HW299094   4.773  10.967   4.788
65733SOL     OW99095   6.914  13.201   0.509
65733SOL    HW199096   6.851  13.248   0.455
65733SOL    HW299097   6.860  13.149   0.568
65734SOL     OW99098   7.084  10.667   1.531
65734SOL    HW199099   7.045  10.723   1.597
65734SOL    HW299100   7.169  10.706   1.514
65735SOL     OW99101  13.080   3.414   4.366
65735SOL    HW199102  13.067   3.438   4.274
65735SOL    HW299103  12.997   3.434   4.408
65736SOL     OW99104  11.645   9.523   0.427
65736SOL    HW199105  11.734   9.495   0.448
65736SOL    HW299106  11.607   9.451   0.378
65737SOL     OW99107  13.656   7.769   5.158
65737SOL    HW199108  13.649   7.812   5.244
65737SOL    HW299109  13.739   7.800   5.122
65738SOL     OW99110   6.911   3.172   6.884
65738SOL    HW199111   6.989   3.174   6.940
65738SOL    HW299112   6.854   3.107   6.925
65739SOL     OW99113   7.274   1.900   9.601
65739SOL    HW199114   7.246   1.819   9.642
65739SOL    HW299115   7.261   1.967   9.668
65740SOL     OW99116  12.722   1.738  11.319
65740SOL    HW199117  12.654   1.773  11.377
65740SOL    HW299118  12.703   1.645  11.314
65741SOL     OW99119   1.312   4.335  11.582
65741SOL    HW199120   1.239   4.280  11.609
65741SOL    HW299121   1.381   4.273  11.558
65742SOL     OW99122   0.631   1.824   7.908
65742SOL    HW199123   0.704   1.805   7.849
65742SOL    HW299124   0.603   1.913   7.884
65743SOL     OW99125   2.310  13.834   0.552
65743SOL    HW199126   2.270  13.854   0.467
65743SOL    HW299127   2.297  13.740   0.564
65744SOL     OW99128   9.231   5.785  11.791
65744SOL    HW199129   9.195   5.787  11.879
65744SOL    HW299130   9.326   5.781  11.804
65745SOL     OW99131   2.753  11.521   0.487
65745SOL    HW199132   2.689  11.454   0.510
65745SOL    HW299133   2.791  11.491   0.404
65746SOL     OW99134   1.153   7.294   7.598
65746SOL    HW199135   1.176   7.224   7.659
65746SOL    HW299136   1.169   7.257   7.512
65747SOL     OW99137   8.302   5.555   7.321
65747SOL    HW199138   8.238   5.624   7.337
65747SOL    HW299139   8.338   5.535   7.408
65748SOL     OW99140   0.988   8.504   0.841
65748SOL    HW199141   1.073   8.463   0.860
65748SOL    HW299142   0.927   8.464   0.902
65749SOL     OW99143   8.400  14.665  13.449
65749SOL    HW199144   8.407  14.574  13.420
65749SOL    HW299145   8.453  14.669  13.529
65750SOL     OW99146   0.093   5.391   6.510
65750SOL    HW199147   0.110   5.465   6.453
65750SOL    HW299148   0.069   5.430   6.594
65751SOL     OW99149   0.730   6.103  11.986
65751SOL    HW199150   0.652   6.053  11.964
65751SOL    HW299151   0.700   6.167  12.050
65752SOL     OW99152   7.798   1.607   4.145
65752SOL    HW199153   7.882   1.593   4.189
65752SOL    HW299154   7.763   1.687   4.185
65753SOL     OW99155   4.488  14.453   0.908
65753SOL    HW199156   4.542  14.379   0.936
65753SOL    HW299157   4.409  14.413   0.871
65754SOL     OW99158   3.505   9.030   8.880
65754SOL    HW199159   3.586   9.073   8.905
65754SOL    HW299160   3.507   8.946   8.926
65755SOL     OW99161   9.614  12.075   2.371
65755SOL    HW199162   9.692  12.053   2.423
65755SOL    HW299163   9.647  12.131   2.301
65756SOL     OW99164   1.244  14.339  10.904
65756SOL    HW199165   1.186  14.329  10.980
65756SOL    HW299166   1.311  14.401  10.933
65757SOL     OW99167   6.644  11.462   8.666
65757SOL    HW199168   6.619  11.376   8.700
65757SOL    HW299169   6.573  11.484   8.605
65758SOL     OW99170  12.392  13.049  10.321
65758SOL    HW199171  12.428  13.126  10.276
65758SOL    HW299172  12.304  13.075  10.347
65759SOL     OW99173  11.445   4.284   3.461
65759SOL    HW199174  11.535   4.303   3.487
65759SOL    HW299175  11.409   4.369   3.434
65760SOL     OW99176   0.807  12.062  11.237
65760SOL    HW199177   0.754  11.988  11.268
65760SOL    HW299178   0.891  12.023  11.213
65761SOL     OW99179   1.144   8.290   6.145
65761SOL    HW199180   1.052   8.314   6.143
65761SOL    HW299181   1.191   8.372   6.131
65762SOL     OW99182   1.403  10.558  14.326
65762SOL    HW199183   1.485  10.546  14.373
65762SOL    HW299184   1.424  10.544  14.234
65763SOL     OW99185  11.388   3.302   2.174
65763SOL    HW199186  11.320   3.263   2.119
65763SOL    HW299187  11.410   3.233   2.237
65764SOL     OW99188  13.725   0.401   0.774
65764SOL    HW199189  13.732   0.448   0.691
65764SOL    HW299190  13.675   0.459   0.831
65765SOL     OW99191   7.800   0.368   8.648
65765SOL    HW199192   7.877   0.378   8.703
65765SOL    HW299193   7.815   0.428   8.574
65766SOL     OW99194  11.989   6.460  10.544
65766SOL    HW199195  12.035   6.514  10.609
65766SOL    HW299196  12.000   6.506  10.461
65767SOL     OW99197   5.784  10.969  10.602
65767SOL    HW199198   5.742  10.985  10.686
65767SOL    HW299199   5.876  10.953  10.624
65768SOL     OW99200   2.062   9.272   3.134
65768SOL    HW199201   1.970   9.251   3.147
65768SOL    HW299202   2.067   9.367   3.144
65769SOL     OW99203   4.439  10.195   6.336
65769SOL    HW199204   4.354  10.218   6.297
65769SOL    HW299205   4.494  10.172   6.262
65770SOL     OW99206   3.078   9.951  10.185
65770SOL    HW199207   3.153   9.942  10.127
65770SOL    HW299208   3.108   9.918  10.270
65771SOL     OW99209   6.549   2.746  10.335
65771SOL    HW199210   6.488   2.701  10.276
65771SOL    HW299211   6.633   2.702  10.321
65772SOL     OW99212  11.262   3.083   7.853
65772SOL    HW199213  11.279   3.026   7.778
65772SOL    HW299214  11.187   3.044   7.897
65773SOL     OW99215   3.567  13.597   9.440
65773SOL    HW199216   3.516  13.574   9.517
65773SOL    HW299217   3.528  13.548   9.368
65774SOL     OW99218  12.862   0.852   6.598
65774SOL    HW199219  12.845   0.938   6.637
65774SOL    HW299220  12.775   0.817   6.580
65775SOL     OW99221   1.110  14.686  14.396
65775SOL    HW199222   1.028  14.734  14.383
65775SOL    HW299223   1.099  14.604  14.348
65776SOL     OW99224   5.144   2.414   4.321
65776SOL    HW199225   5.233   2.378   4.321
65776SOL    HW299226   5.095   2.359   4.260
65777SOL     OW99227  11.956  11.183   2.565
65777SOL    HW199228  11.985  11.104   2.611
65777SOL    HW299229  11.944  11.155   2.474
65778SOL     OW99230   4.545  14.152  12.506
65778SOL    HW199231   4.538  14.086  12.575
65778SOL    HW299232   4.532  14.235  12.552
65779SOL     OW99233   2.158  10.648   5.649
65779SOL    HW199234   2.071  10.669   5.684
65779SOL    HW299235   2.153  10.676   5.557
65780SOL     OW99236   4.170   2.789  11.643
65780SOL    HW199237   4.255   2.811  11.680
65780SOL    HW299238   4.132   2.727  11.705
65781SOL     OW99239   4.218   0.343   7.759
65781SOL    HW199240   4.125   0.323   7.756
65781SOL    HW299241   4.236   0.362   7.851
65782SOL     OW99242  12.114   1.116   7.958
65782SOL    HW199243  12.052   1.175   8.000
65782SOL    HW299244  12.164   1.077   8.030
65783SOL     OW99245   4.422   7.552  14.183
65783SOL    HW199246   4.489   7.554  14.115
65783SOL    HW299247   4.459   7.497  14.252
65784SOL     OW99248   1.222  13.632   9.617
65784SOL    HW199249   1.176  13.577   9.681
65784SOL    HW299250   1.154  13.658   9.555
65785SOL     OW99251   0.920  14.102   7.931
65785SOL    HW199252   0.828  14.098   7.905
65785SOL    HW299253   0.927  14.040   8.004
65786SOL     OW99254   6.331   1.953   6.303
65786SOL    HW199255   6.239   1.951   6.330
65786SOL    HW299256   6.332   1.905   6.220
65787SOL     OW99257   7.942  12.283   6.368
65787SOL    HW199258   7.847  12.277   6.374
65787SOL    HW299259   7.963  12.248   6.282
65788SOL     OW99260   5.393  13.550   7.558
65788SOL    HW199261   5.484  13.578   7.557
65788SOL    HW299262   5.364  13.564   7.648
65789SOL     OW99263   4.797  12.721   4.916
65789SOL    HW199264   4.809  12.738   5.010
65789SOL    HW299265   4.739  12.792   4.887
65790SOL     OW99266   4.937   8.657  13.074
65790SOL    HW199267   4.919   8.595  13.145
65790SOL    HW299268   5.012   8.620  13.028
65791SOL     OW99269  11.052   1.919   6.805
65791SOL    HW199270  11.115   1.917   6.733
65791SOL    HW299271  11.083   1.991   6.861
65792SOL     OW99272   6.410   3.369   9.973
65792SOL    HW199273   6.410   3.409   9.886
65792SOL    HW299274   6.327   3.322   9.978
65793SOL     OW99275   0.126   2.572   1.247
65793SOL    HW199276   0.054   2.555   1.308
65793SOL    HW299277   0.183   2.496   1.255
65794SOL     OW99278   9.757  10.445   7.310
65794SOL    HW199279   9.789  10.375   7.368
65794SOL    HW299280   9.836  10.480   7.269
65795SOL     OW99281   6.959   4.003  14.402
65795SOL    HW199282   7.034   3.945  14.416
65795SOL    HW299283   6.883   3.946  14.414
65796SOL     OW99284   1.551   6.425  13.399
65796SOL    HW199285   1.615   6.494  13.386
65796SOL    HW299286   1.520   6.403  13.311
65797SOL     OW99287   4.945   2.068  14.698
65797SOL    HW199288   4.888   2.144  14.689
65797SOL    HW299289   5.034   2.103  14.688
65798SOL     OW99290   0.101  10.053  13.968
65798SOL    HW199291   0.080   9.971  13.924
65798SOL    HW299292   0.196  10.049  13.981
65799SOL     OW99293  11.710   6.863   4.374
65799SOL    HW199294  11.620   6.835   4.355
65799SOL    HW299295  11.752   6.869   4.288
65800SOL     OW99296  12.845   2.920   3.719
65800SOL    HW199297  12.867   2.988   3.656
65800SOL    HW299298  12.777   2.959   3.774
65801SOL     OW99299  13.722  12.081  13.955
65801SOL    HW199300  13.741  12.119  14.041
65801SOL    HW299301  13.645  12.026  13.970
65802SOL     OW99302   7.799   4.232  11.350
65802SOL    HW199303   7.832   4.261  11.265
65802SOL    HW299304   7.711   4.269  11.355
65803SOL     OW99305   8.686   4.655   4.528
65803SOL    HW199306   8.674   4.668   4.622
65803SOL    HW299307   8.739   4.730   4.501
65804SOL     OW99308   3.152   7.690   2.725
65804SOL    HW199309   3.210   7.671   2.652
65804SOL    HW299310   3.149   7.786   2.729
65805SOL     OW99311   6.672   9.610   8.262
65805SOL    HW199312   6.736   9.680   8.251
65805SOL    HW299313   6.659   9.575   8.174
65806SOL     OW99314  13.121  11.300   0.931
65806SOL    HW199315  13.214  11.319   0.942
65806SOL    HW299316  13.077  11.376   0.968
65807SOL     OW99317   5.044  13.223   2.467
65807SOL    HW199318   5.023  13.203   2.375
65807SOL    HW299319   5.005  13.151   2.517
65808SOL     OW99320  14.506   9.070   5.569
65808SOL    HW199321  14.510   9.008   5.642
65808SOL    HW299322  14.481   9.153   5.610
65809SOL     OW99323   6.297   0.306  11.744
65809SOL    HW199324   6.349   0.363  11.801
65809SOL    HW299325   6.216   0.292  11.791
65810SOL     OW99326   0.439   7.066   1.945
65810SOL    HW199327   0.345   7.081   1.940
65810SOL    HW299328   0.474   7.100   1.863
65811SOL     OW99329  10.379   5.048   5.018
65811SOL    HW199330  10.430   4.975   4.980
65811SOL    HW299331  10.445   5.105   5.057
65812SOL     OW99332   6.868   5.916   4.746
65812SOL    HW199333   6.963   5.912   4.731
65812SOL    HW299334   6.845   6.008   4.731
65813SOL     OW99335   9.727   0.155   7.785
65813SOL    HW199336   9.737   0.079   7.729
65813SOL    HW299337   9.791   0.143   7.855
65814SOL     OW99338  14.563  11.886  13.348
65814SOL    HW199339  14.481  11.926  13.375
65814SOL    HW299340  14.549  11.792  13.360
65815SOL     OW99341   3.447   2.405   9.134
65815SOL    HW199342   3.389   2.433   9.205
65815SOL    HW299343   3.533   2.396   9.176
65816SOL     OW99344   8.244   6.079  14.155
65816SOL    HW199345   8.317   6.141  14.168
65816SOL    HW299346   8.199   6.078  14.240
65817SOL     OW99347  11.555   5.308  13.871
65817SOL    HW199348  11.557   5.220  13.832
65817SOL    HW299349  11.492   5.356  13.817
65818SOL     OW99350   5.273   7.842   0.567
65818SOL    HW199351   5.279   7.936   0.585
65818SOL    HW299352   5.180   7.821   0.580
65819SOL     OW99353   4.387  12.509  12.839
65819SOL    HW199354   4.292  12.500  12.836
65819SOL    HW299355   4.405  12.590  12.790
65820SOL     OW99356   4.855  12.489   7.942
65820SOL    HW199357   4.838  12.551   7.872
65820SOL    HW299358   4.874  12.543   8.019
65821SOL     OW99359   0.561   9.109   7.195
65821SOL    HW199360   0.501   9.115   7.120
65821SOL    HW299361   0.526   9.171   7.259
65822SOL     OW99362   0.905  14.585   9.841
65822SOL    HW199363   0.895  14.527   9.916
65822SOL    HW299364   0.975  14.646   9.866
65823SOL     OW99365  12.495  14.102  13.377
65823SOL    HW199366  12.429  14.170  13.361
65823SOL    HW299367  12.490  14.085  13.471
65824SOL     OW99368  11.769   0.777   7.001
65824SOL    HW199369  11.831   0.825   7.056
65824SOL    HW299370  11.739   0.705   7.056
65825SOL     OW99371  14.026  12.276   0.506
65825SOL    HW199372  13.931  12.263   0.499
65825SOL    HW299373  14.048  12.333   0.432
65826SOL     OW99374   2.353   0.725   3.448
65826SOL    HW199375   2.321   0.661   3.511
65826SOL    HW299376   2.444   0.702   3.433
65827SOL     OW99377   9.813   3.158  12.126
65827SOL    HW199378   9.820   3.197  12.214
65827SOL    HW299379   9.726   3.184  12.096
65828SOL     OW99380   1.695   0.050   8.301
65828SOL    HW199381   1.790   0.049   8.290
65828SOL    HW299382   1.667  14.831   8.278
65829SOL     OW99383  13.166   7.714   8.261
65829SOL    HW199384  13.081   7.718   8.303
65829SOL    HW299385  13.157   7.770   8.184
65830SOL     OW99386   7.283   4.176   4.667
65830SOL    HW199387   7.339   4.253   4.665
65830SOL    HW299388   7.202   4.205   4.709
65831SOL     OW99389   7.727   6.086  14.187
65831SOL    HW199390   7.733   6.012  14.126
65831SOL    HW299391   7.760   6.161  14.138
65832SOL     OW99392   3.200   2.942   6.693
65832SOL    HW199393   3.200   2.864   6.638
65832SOL    HW299394   3.112   2.944   6.731
65833SOL     OW99395   8.816   0.534  10.163
65833SOL    HW199396   8.722   0.543  10.179
65833SOL    HW299397   8.834   0.440  10.173
65834SOL     OW99398   8.094   6.891   9.742
65834SOL    HW199399   8.064   6.976   9.710
65834SOL    HW299400   8.053   6.827   9.684
65835SOL     OW99401   2.832   5.700  14.219
65835SOL    HW199402   2.743   5.716  14.248
65835SOL    HW299403   2.824   5.681  14.125
65836SOL     OW99404   1.393   6.314  10.188
65836SOL    HW199405   1.344   6.371  10.247
65836SOL    HW299406   1.353   6.228  10.199
65837SOL     OW99407  10.049  11.261  12.819
65837SOL    HW199408  10.011  11.188  12.770
65837SOL    HW299409  10.001  11.338  12.788
65838SOL     OW99410   2.355   1.483   5.923
65838SOL    HW199411   2.384   1.550   5.985
65838SOL    HW299412   2.417   1.411   5.935
65839SOL     OW99413   2.367  10.452   5.110
65839SOL    HW199414   2.404  10.415   5.190
65839SOL    HW299415   2.443  10.475   5.056
65840SOL     OW99416   3.693  14.063   5.759
65840SOL    HW199417   3.782  14.061   5.796
65840SOL    HW299418   3.636  14.076   5.835
65841SOL     OW99419   5.242   9.487   9.764
65841SOL    HW199420   5.272   9.424   9.699
65841SOL    HW299421   5.248   9.440   9.847
65842SOL     OW99422   7.857  14.245   1.746
65842SOL    HW199423   7.789  14.255   1.679
65842SOL    HW299424   7.819  14.184   1.810
65843SOL     OW99425   8.432   3.099   4.413
65843SOL    HW199426   8.337   3.093   4.407
65843SOL    HW299427   8.461   3.008   4.426
65844SOL     OW99428   5.398   1.277  11.343
65844SOL    HW199429   5.377   1.231  11.425
65844SOL    HW299430   5.353   1.227  11.275
65845SOL     OW99431   9.916  12.471   2.391
65845SOL    HW199432   9.914  12.560   2.354
65845SOL    HW299433   9.890  12.484   2.482
65846SOL     OW99434  10.771   7.435   6.952
65846SOL    HW199435  10.858   7.424   6.913
65846SOL    HW299436  10.733   7.509   6.906
65847SOL     OW99437   0.540  14.581   6.461
65847SOL    HW199438   0.507  14.571   6.550
65847SOL    HW299439   0.607  14.649   6.467
65848SOL     OW99440  14.242   8.423   6.774
65848SOL    HW199441  14.308   8.359   6.752
65848SOL    HW299442  14.196   8.387   6.849
65849SOL     OW99443   1.872   1.949   9.027
65849SOL    HW199444   1.901   1.866   9.065
65849SOL    HW299445   1.927   1.960   8.949
65850SOL     OW99446   1.442  12.455  12.558
65850SOL    HW199447   1.473  12.415  12.477
65850SOL    HW299448   1.362  12.406  12.579
65851SOL     OW99449  11.037   0.557   7.758
65851SOL    HW199450  10.952   0.589   7.728
65851SOL    HW299451  11.045   0.590   7.847
65852SOL     OW99452   4.602   0.196  13.009
65852SOL    HW199453   4.697   0.201  13.015
65852SOL    HW299454   4.573   0.169  13.096
65853SOL     OW99455   5.179   6.443  10.486
65853SOL    HW199456   5.199   6.438  10.580
65853SOL    HW299457   5.264   6.448  10.444
65854SOL     OW99458   6.928  14.661   4.432
65854SOL    HW199459   6.904  14.734   4.375
65854SOL    HW299460   6.961  14.704   4.511
65855SOL     OW99461   9.122   6.231   2.550
65855SOL    HW199462   9.035   6.270   2.537
65855SOL    HW299463   9.145   6.256   2.640
65856SOL     OW99464  10.425  12.544   4.498
65856SOL    HW199465  10.351  12.485   4.508
65856SOL    HW299466  10.391  12.630   4.521
65857SOL     OW99467   4.408  11.432   7.121
65857SOL    HW199468   4.396  11.377   7.198
65857SOL    HW299469   4.343  11.401   7.059
65858SOL     OW99470   2.360  13.736   9.658
65858SOL    HW199471   2.348  13.829   9.675
65858SOL    HW299472   2.412  13.732   9.578
65859SOL     OW99473   9.312   4.755   1.576
65859SOL    HW199474   9.260   4.694   1.627
65859SOL    HW299475   9.284   4.741   1.486
65860SOL     OW99476   8.927  12.923  11.604
65860SOL    HW199477   8.842  12.881  11.615
65860SOL    HW299478   8.968  12.917  11.690
65861SOL     OW99479  13.485   5.201   7.815
65861SOL    HW199480  13.439   5.119   7.832
65861SOL    HW299481  13.571   5.188   7.856
65862SOL     OW99482  14.147   4.726  11.201
65862SOL    HW199483  14.161   4.646  11.149
65862SOL    HW299484  14.135   4.795  11.135
65863SOL     OW99485   3.598   4.821   7.639
65863SOL    HW199486   3.508   4.811   7.609
65863SOL    HW299487   3.592   4.829   7.734
65864SOL     OW99488   6.518   8.585   4.493
65864SOL    HW199489   6.500   8.612   4.583
65864SOL    HW299490   6.463   8.507   4.481
65865SOL     OW99491  11.942  12.653   8.327
65865SOL    HW199492  12.005  12.712   8.369
65865SOL    HW299493  11.952  12.570   8.373
65866SOL     OW99494   7.026   3.032   5.010
65866SOL    HW199495   7.049   3.030   5.103
65866SOL    HW299496   7.103   2.998   4.966
65867SOL     OW99497   8.591  13.346   4.644
65867SOL    HW199498   8.517  13.392   4.604
65867SOL    HW299499   8.665  13.363   4.585
65868SOL     OW99500   0.627   8.027   1.933
65868SOL    HW199501   0.666   8.028   2.020
65868SOL    HW299502   0.555   8.090   1.938
65869SOL     OW99503  12.205   0.290   3.644
65869SOL    HW199504  12.300   0.284   3.651
65869SOL    HW299505  12.189   0.327   3.557
65870SOL     OW99506  11.927  14.529   2.523
65870SOL    HW199507  11.846  14.579   2.519
65870SOL    HW299508  11.900  14.440   2.545
65871SOL     OW99509   0.446   2.417  11.088
65871SOL    HW199510   0.371   2.359  11.080
65871SOL    HW299511   0.507   2.388  11.020
65872SOL     OW99512  14.540   0.800   9.057
65872SOL    HW199513  14.512   0.880   9.012
65872SOL    HW299514  14.467   0.776   9.113
65873SOL     OW99515   4.105  10.346   7.220
65873SOL    HW199516   4.047  10.314   7.289
65873SOL    HW299517   4.091  10.441   7.218
65874SOL     OW99518   7.526   8.875   5.324
65874SOL    HW199519   7.540   8.807   5.390
65874SOL    HW299520   7.454   8.841   5.270
65875SOL     OW99521  12.453  14.064  12.253
65875SOL    HW199522  12.422  14.153  12.232
65875SOL    HW299523  12.448  14.060  12.349
65876SOL     OW99524   4.353   1.630   0.917
65876SOL    HW199525   4.331   1.560   0.855
65876SOL    HW299526   4.269   1.653   0.957
65877SOL     OW99527   2.831   9.431  11.076
65877SOL    HW199528   2.751   9.384  11.096
65877SOL    HW299529   2.847   9.413  10.984
65878SOL     OW99530   0.140  12.676   5.896
65878SOL    HW199531   0.157  12.746   5.958
65878SOL    HW299532   0.212  12.614   5.909
65879SOL     OW99533   3.126   1.015  12.321
65879SOL    HW199534   3.034   0.993  12.334
65879SOL    HW299535   3.148   1.069  12.397
65880SOL     OW99536   6.129  12.423   2.502
65880SOL    HW199537   6.106  12.437   2.410
65880SOL    HW299538   6.126  12.328   2.513
65881SOL     OW99539  12.891   0.516  12.723
65881SOL    HW199540  12.884   0.529  12.817
65881SOL    HW299541  12.962   0.453  12.712
65882SOL     OW99542   2.760   2.244   1.233
65882SOL    HW199543   2.691   2.293   1.189
65882SOL    HW299544   2.754   2.156   1.196
65883SOL     OW99545  13.054   0.026   6.392
65883SOL    HW199546  13.016   0.102   6.347
65883SOL    HW299547  12.989   0.004   6.459
65884SOL     OW99548  14.294   0.886  12.028
65884SOL    HW199549  14.279   0.935  12.109
65884SOL    HW299550  14.284   0.794  12.055
65885SOL     OW99551   7.129   3.204  10.955
65885SOL    HW199552   7.040   3.218  10.987
65885SOL    HW299553   7.128   3.233  10.864
65886SOL     OW99554   9.900   1.572   0.483
65886SOL    HW199555   9.868   1.537   0.567
65886SOL    HW299556   9.933   1.495   0.437
65887SOL     OW99557   6.802   8.196  10.749
65887SOL    HW199558   6.727   8.221  10.804
65887SOL    HW299559   6.862   8.153  10.810
65888SOL     OW99560  10.675   6.481   3.289
65888SOL    HW199561  10.607   6.528   3.337
65888SOL    HW299562  10.632   6.401   3.259
65889SOL     OW99563   2.581   1.773  13.525
65889SOL    HW199564   2.545   1.859  13.503
65889SOL    HW299565   2.676   1.784  13.519
65890SOL     OW99566   6.230  10.058  14.064
65890SOL    HW199567   6.187  10.139  14.035
65890SOL    HW299568   6.158  10.005  14.098
65891SOL     OW99569   0.211   9.758   2.974
65891SOL    HW199570   0.168   9.843   2.986
65891SOL    HW299571   0.241   9.760   2.883
65892SOL     OW99572   8.220   0.916  12.764
65892SOL    HW199573   8.238   0.822  12.756
65892SOL    HW299574   8.136   0.920  12.809
65893SOL     OW99575  13.298   9.081   1.946
65893SOL    HW199576  13.392   9.059   1.949
65893SOL    HW299577  13.293   9.171   1.978
65894SOL     OW99578   1.733  12.105   0.030
65894SOL    HW199579   1.651  12.092  14.853
65894SOL    HW299580   1.801  12.085  14.835
65895SOL     OW99581  12.630   5.912   4.629
65895SOL    HW199582  12.715   5.878   4.656
65895SOL    HW299583  12.594   5.843   4.573
65896SOL     OW99584  14.514   6.932   9.081
65896SOL    HW199585  14.474   7.006   9.037
65896SOL    HW299586  14.605   6.959   9.096
65897SOL     OW99587  13.416   6.894   6.912
65897SOL    HW199588  13.387   6.845   6.834
65897SOL    HW299589  13.466   6.831   6.963
65898SOL     OW99590   2.842  12.960   2.842
65898SOL    HW199591   2.931  12.984   2.871
65898SOL    HW299592   2.852  12.873   2.804
65899SOL     OW99593   9.574  12.909  12.822
65899SOL    HW199594   9.490  12.922  12.779
65899SOL    HW299595   9.553  12.904  12.915
65900SOL     OW99596   7.828   9.802  12.824
65900SOL    HW199597   7.841   9.896  12.812
65900SOL    HW299598   7.807   9.793  12.917
65901SOL     OW99599   0.455   4.180  12.403
65901SOL    HW199600   0.495   4.209  12.485
65901SOL    HW299601   0.462   4.256  12.345
65902SOL     OW99602   0.701   5.684   8.495
65902SOL    HW199603   0.655   5.699   8.413
65902SOL    HW299604   0.657   5.742   8.558
65903SOL     OW99605   8.767  14.259   3.010
65903SOL    HW199606   8.759  14.277   3.104
65903SOL    HW299607   8.789  14.344   2.971
65904SOL     OW99608   3.609   0.717  12.127
65904SOL    HW199609   3.579   0.807  12.138
65904SOL    HW299610   3.662   0.699  12.205
65905SOL     OW99611   1.671   8.694  10.190
65905SOL    HW199612   1.703   8.714  10.279
65905SOL    HW299613   1.691   8.773  10.139
65906SOL     OW99614   6.266  14.738  12.171
65906SOL    HW199615   6.191  14.772  12.123
65906SOL    HW299616   6.339  14.795  12.145
65907SOL     OW99617   7.008  13.565   7.491
65907SOL    HW199618   6.997  13.470   7.482
65907SOL    HW299619   7.089  13.584   7.443
65908SOL     OW99620   8.896   5.393  10.394
65908SOL    HW199621   8.914   5.393  10.488
65908SOL    HW299622   8.922   5.306  10.364
65909SOL     OW99623   0.729  11.840   3.832
65909SOL    HW199624   0.695  11.790   3.907
65909SOL    HW299625   0.665  11.909   3.818
65910SOL     OW99626   0.348  14.421   7.108
65910SOL    HW199627   0.352  14.326   7.117
65910SOL    HW299628   0.423  14.443   7.053
65911SOL     OW99629   6.184  12.616  12.682
65911SOL    HW199630   6.145  12.695  12.647
65911SOL    HW299631   6.186  12.555  12.608
65912SOL     OW99632  11.892   0.845   6.591
65912SOL    HW199633  11.844   0.787   6.650
65912SOL    HW299634  11.884   0.803   6.505
65913SOL     OW99635  14.376   9.434   7.309
65913SOL    HW199636  14.382   9.443   7.404
65913SOL    HW299637  14.406   9.345   7.292
65914SOL     OW99638   0.970  13.193  13.122
65914SOL    HW199639   1.024  13.144  13.060
65914SOL    HW299640   0.880  13.175  13.095
65915SOL     OW99641  13.950   8.773  12.782
65915SOL    HW199642  14.039   8.771  12.746
65915SOL    HW299643  13.956   8.725  12.865
65916SOL     OW99644   8.683   5.157   2.607
65916SOL    HW199645   8.697   5.192   2.695
65916SOL    HW299646   8.622   5.084   2.620
65917SOL     OW99647  13.624   8.944  13.583
65917SOL    HW199648  13.560   8.981  13.522
65917SOL    HW299649  13.572   8.890  13.643
65918SOL     OW99650   9.042   5.758   8.115
65918SOL    HW199651   9.027   5.783   8.207
65918SOL    HW299652   9.135   5.777   8.100
65919SOL     OW99653   9.515   6.363   2.866
65919SOL    HW199654   9.543   6.449   2.899
65919SOL    HW299655   9.479   6.381   2.780
65920SOL     OW99656   4.069   2.303   1.973
65920SOL    HW199657   4.096   2.360   2.045
65920SOL    HW299658   4.040   2.364   1.905
65921SOL     OW99659   7.267   0.648   5.885
65921SOL    HW199660   7.202   0.682   5.947
65921SOL    HW299661   7.318   0.725   5.860
65922SOL     OW99662   3.593   6.626  11.244
65922SOL    HW199663   3.574   6.682  11.319
65922SOL    HW299664   3.508   6.610  11.203
65923SOL     OW99665  12.156   7.289   1.967
65923SOL    HW199666  12.144   7.227   1.896
65923SOL    HW299667  12.218   7.354   1.933
65924SOL     OW99668   9.440   7.891   5.679
65924SOL    HW199669   9.508   7.950   5.711
65924SOL    HW299670   9.474   7.803   5.693
65925SOL     OW99671  11.590   4.575   1.137
65925SOL    HW199672  11.675   4.605   1.167
65925SOL    HW299673  11.573   4.627   1.058
65926SOL     OW99674  11.211   2.728  14.394
65926SOL    HW199675  11.259   2.757  14.316
65926SOL    HW299676  11.234   2.636  14.404
65927SOL     OW99677   9.456  11.804   4.216
65927SOL    HW199678   9.545  11.838   4.229
65927SOL    HW299679   9.436  11.823   4.125
65928SOL     OW99680   6.155   9.364   7.456
65928SOL    HW199681   6.083   9.304   7.436
65928SOL    HW299682   6.116   9.427   7.518
65929SOL     OW99683  13.840   6.330   5.160
65929SOL    HW199684  13.893   6.402   5.127
65929SOL    HW299685  13.758   6.372   5.187
65930SOL     OW99686   9.070   1.912   1.850
65930SOL    HW199687   9.118   1.934   1.930
65930SOL    HW299688   9.098   1.823   1.829
65931SOL     OW99689   0.680   7.406  12.130
65931SOL    HW199690   0.684   7.400  12.034
65931SOL    HW299691   0.597   7.364  12.152
65932SOL     OW99692   9.394   3.088  13.334
65932SOL    HW199693   9.459   3.141  13.289
65932SOL    HW299694   9.443   3.012  13.366
65933SOL     OW99695  13.115   1.752  13.280
65933SOL    HW199696  13.125   1.834  13.327
65933SOL    HW299697  13.203   1.731  13.248
65934SOL     OW99698   6.588   2.525   9.463
65934SOL    HW199699   6.567   2.462   9.394
65934SOL    HW299700   6.595   2.609   9.418
65935SOL     OW99701   0.999   5.609  12.871
65935SOL    HW199702   0.965   5.525  12.840
65935SOL    HW299703   1.090   5.610  12.840
65936SOL     OW99704   6.237  13.762   3.737
65936SOL    HW199705   6.163  13.814   3.769
65936SOL    HW299706   6.197  13.684   3.698
65937SOL     OW99707   6.962   1.448   4.141
65937SOL    HW199708   7.043   1.499   4.150
65937SOL    HW299709   6.939   1.455   4.049
65938SOL     OW99710   0.680   9.734   7.982
65938SOL    HW199711   0.646   9.816   8.018
65938SOL    HW299712   0.669   9.744   7.887
65939SOL     OW99713   8.603   5.137   8.553
65939SOL    HW199714   8.588   5.067   8.490
65939SOL    HW299715   8.526   5.137   8.609
65940SOL     OW99716   1.526   8.105   5.303
65940SOL    HW199717   1.481   8.040   5.356
65940SOL    HW299718   1.473   8.185   5.314
65941SOL     OW99719   2.450   4.319   5.697
65941SOL    HW199720   2.387   4.249   5.712
65941SOL    HW299721   2.416   4.366   5.621
65942SOL     OW99722  11.441   1.317   0.785
65942SOL    HW199723  11.364   1.329   0.728
65942SOL    HW299724  11.427   1.231   0.825
65943SOL     OW99725   1.895  11.335  13.108
65943SOL    HW199726   1.902  11.322  13.014
65943SOL    HW299727   1.876  11.428  13.118
65944SOL     OW99728  14.293   1.640   1.564
65944SOL    HW199729  14.235   1.616   1.636
65944SOL    HW299730  14.361   1.572   1.564
65945SOL     OW99731  10.152  11.431   3.032
65945SOL    HW199732  10.155  11.441   2.937
65945SOL    HW299733  10.083  11.367   3.047
65946SOL     OW99734   5.682   2.905   3.942
65946SOL    HW199735   5.737   2.983   3.935
65946SOL    HW299736   5.738   2.833   3.916
65947SOL     OW99737   8.320   0.875   1.935
65947SOL    HW199738   8.296   0.886   1.843
65947SOL    HW299739   8.355   0.961   1.960
65948SOL     OW99740   8.280  12.213   9.666
65948SOL    HW199741   8.260  12.207   9.573
65948SOL    HW299742   8.212  12.270   9.702
65949SOL     OW99743   9.598   8.160  10.579
65949SOL    HW199744   9.589   8.154  10.674
65949SOL    HW299745   9.627   8.250  10.564
65950SOL     OW99746  10.923   5.849  10.007
65950SOL    HW199747  10.852   5.786   9.997
65950SOL    HW299748  10.931   5.891   9.921
65951SOL     OW99749   4.714   0.183   6.830
65951SOL    HW199750   4.620   0.197   6.822
65951SOL    HW299751   4.743   0.165   6.740
65952SOL     OW99752   1.822   8.723   6.847
65952SOL    HW199753   1.782   8.636   6.855
65952SOL    HW299754   1.789   8.772   6.923
65953SOL     OW99755   9.489  11.896  13.272
65953SOL    HW199756   9.531  11.965  13.221
65953SOL    HW299757   9.516  11.913  13.362
65954SOL     OW99758   5.795   1.569   0.095
65954SOL    HW199759   5.866   1.521   0.053
65954SOL    HW299760   5.715   1.531   0.058
65955SOL     OW99761  10.444   2.000   0.394
65955SOL    HW199762  10.362   1.986   0.346
65955SOL    HW299763  10.505   1.939   0.353
65956SOL     OW99764   9.028   7.264   9.818
65956SOL    HW199765   9.103   7.231   9.769
65956SOL    HW299766   9.008   7.194   9.881
65957SOL     OW99767  12.207  14.043   6.252
65957SOL    HW199768  12.251  14.123   6.223
65957SOL    HW299769  12.134  14.033   6.192
65958SOL     OW99770   1.663   9.593   4.227
65958SOL    HW199771   1.667   9.687   4.208
65958SOL    HW299772   1.574   9.567   4.202
65959SOL     OW99773   6.438   9.924   3.463
65959SOL    HW199774   6.533   9.929   3.451
65959SOL    HW299775   6.403   9.917   3.374
65960SOL     OW99776   7.793   9.109   8.219
65960SOL    HW199777   7.816   9.192   8.177
65960SOL    HW299778   7.819   9.121   8.310
65961SOL     OW99779   9.669  10.566   5.297
65961SOL    HW199780   9.680  10.544   5.205
65961SOL    HW299781   9.740  10.627   5.315
65962SOL     OW99782  11.774  11.657  11.636
65962SOL    HW199783  11.817  11.622  11.558
65962SOL    HW299784  11.845  11.696  11.686
65963SOL     OW99785   5.928  12.606   4.335
65963SOL    HW199786   5.991  12.536   4.316
65963SOL    HW299787   5.931  12.663   4.259
65964SOL     OW99788   0.330   6.866   8.037
65964SOL    HW199789   0.326   6.908   7.951
65964SOL    HW299790   0.252   6.810   8.041
65965SOL     OW99791   2.395  10.981   1.972
65965SOL    HW199792   2.468  10.949   2.025
65965SOL    HW299793   2.317  10.947   2.014
65966SOL     OW99794   8.148  12.412   5.269
65966SOL    HW199795   8.242  12.394   5.271
65966SOL    HW299796   8.141  12.500   5.232
65967SOL     OW99797   8.275   2.881   4.059
65967SOL    HW199798   8.232   2.948   4.006
65967SOL    HW299799   8.361   2.918   4.080
65968SOL     OW99800   9.240   3.384   3.034
65968SOL    HW199801   9.201   3.458   3.080
65968SOL    HW299802   9.216   3.397   2.942
65969SOL     OW99803   1.636  14.182   9.120
65969SOL    HW199804   1.636  14.175   9.024
65969SOL    HW299805   1.630  14.276   9.137
65970SOL     OW99806   1.175   2.373   3.781
65970SOL    HW199807   1.183   2.466   3.801
65970SOL    HW299808   1.181   2.369   3.685
65971SOL     OW99809   1.511   1.828   5.700
65971SOL    HW199810   1.490   1.911   5.743
65971SOL    HW299811   1.480   1.761   5.761
65972SOL     OW99812   9.381   5.027   0.467
65972SOL    HW199813   9.430   5.098   0.424
65972SOL    HW299814   9.409   4.948   0.422
65973SOL     OW99815  14.159  10.716  11.322
65973SOL    HW199816  14.210  10.771  11.380
65973SOL    HW299817  14.132  10.642  11.376
65974SOL     OW99818   6.510   4.933   9.045
65974SOL    HW199819   6.547   4.873   9.109
65974SOL    HW299820   6.459   4.877   8.986
65975SOL     OW99821  12.328   9.445  13.526
65975SOL    HW199822  12.344   9.532  13.488
65975SOL    HW299823  12.257   9.460  13.589
65976SOL     OW99824   5.413   2.938  12.917
65976SOL    HW199825   5.437   2.980  12.999
65976SOL    HW299826   5.339   2.989  12.884
65977SOL     OW99827   4.033   9.553   6.973
65977SOL    HW199828   4.032   9.569   7.068
65977SOL    HW299829   4.058   9.636   6.934
65978SOL     OW99830   9.742   2.615  14.044
65978SOL    HW199831   9.779   2.696  14.077
65978SOL    HW299832   9.766   2.549  14.109
65979SOL     OW99833   3.768   4.850  14.093
65979SOL    HW199834   3.795   4.810  14.010
65979SOL    HW299835   3.682   4.888  14.074
65980SOL     OW99836   4.678   9.925   6.405
65980SOL    HW199837   4.746   9.974   6.451
65980SOL    HW299838   4.687   9.953   6.314
65981SOL     OW99839  10.133  11.127   5.056
65981SOL    HW199840  10.102  11.062   4.993
65981SOL    HW299841  10.176  11.076   5.125
65982SOL     OW99842   0.406   0.852  14.139
65982SOL    HW199843   0.357   0.823  14.215
65982SOL    HW299844   0.436   0.940  14.162
65983SOL     OW99845  11.570  14.043  12.998
65983SOL    HW199846  11.654  14.030  12.954
65983SOL    HW299847  11.505  14.031  12.928
65984SOL     OW99848   7.383   5.292   5.386
65984SOL    HW199849   7.463   5.240   5.396
65984SOL    HW299850   7.396   5.340   5.304
65985SOL     OW99851  13.766  10.826   8.074
65985SOL    HW199852  13.766  10.888   8.147
65985SOL    HW299853  13.748  10.741   8.115
65986SOL     OW99854   8.528   1.087   2.907
65986SOL    HW199855   8.580   1.035   2.967
65986SOL    HW299856   8.564   1.175   2.913
65987SOL     OW99857   5.058   2.981   8.836
65987SOL    HW199858   5.015   2.898   8.857
65987SOL    HW299859   5.017   3.044   8.895
65988SOL     OW99860   6.211   6.648   5.565
65988SOL    HW199861   6.252   6.732   5.585
65988SOL    HW299862   6.270   6.582   5.602
65989SOL     OW99863   7.190   3.581   3.241
65989SOL    HW199864   7.205   3.672   3.216
65989SOL    HW299865   7.124   3.550   3.180
65990SOL     OW99866  10.774   7.413   4.173
65990SOL    HW199867  10.767   7.463   4.091
65990SOL    HW299868  10.863   7.431   4.204
65991SOL     OW99869   0.722  12.742   4.657
65991SOL    HW199870   0.759  12.718   4.742
65991SOL    HW299871   0.629  12.721   4.665
65992SOL     OW99872   6.102   7.556   4.968
65992SOL    HW199873   6.150   7.524   5.044
65992SOL    HW299874   6.071   7.643   4.993
65993SOL     OW99875   5.196   7.938   4.464
65993SOL    HW199876   5.163   7.949   4.553
65993SOL    HW299877   5.145   7.866   4.428
65994SOL     OW99878   9.780   4.205   4.634
65994SOL    HW199879   9.686   4.197   4.620
65994SOL    HW299880   9.796   4.300   4.638
65995SOL     OW99881   2.791  11.994  13.261
65995SOL    HW199882   2.827  12.069  13.214
65995SOL    HW299883   2.858  11.926  13.252
65996SOL     OW99884  14.381   6.681   7.475
65996SOL    HW199885  14.343   6.659   7.560
65996SOL    HW299886  14.475   6.668   7.487
65997SOL     OW99887   0.487   3.958  13.436
65997SOL    HW199888   0.435   3.942  13.357
65997SOL    HW299889   0.537   4.037  13.416
65998SOL     OW99890  12.269   2.273   0.284
65998SOL    HW199891  12.330   2.275   0.359
65998SOL    HW299892  12.306   2.336   0.222
65999SOL     OW99893   7.201   3.641  13.632
65999SOL    HW199894   7.227   3.549  13.636
65999SOL    HW299895   7.236   3.673  13.549
66000SOL     OW99896  10.782   6.213   7.085
66000SOL    HW199897  10.845   6.279   7.056
66000SOL    HW299898  10.764   6.236   7.176
66001SOL     OW99899  11.653   6.218  10.594
66001SOL    HW199900  11.593   6.235  10.667
66001SOL    HW299901  11.605   6.160  10.536
66002SOL     OW99902   7.417   3.598  13.941
66002SOL    HW199903   7.362   3.664  13.983
66002SOL    HW299904   7.371   3.516  13.954
66003SOL     OW99905   3.755   6.107   7.026
66003SOL    HW199906   3.668   6.069   7.035
66003SOL    HW299907   3.740   6.191   6.982
66004SOL     OW99908   8.137   8.922  10.673
66004SOL    HW199909   8.123   8.880  10.759
66004SOL    HW299910   8.229   8.905  10.654
66005SOL     OW99911   7.799   9.070  14.349
66005SOL    HW199912   7.722   9.033  14.304
66005SOL    HW299913   7.775   9.069  14.442
66006SOL     OW99914  13.640  13.187   4.563
66006SOL    HW199915  13.681  13.107   4.596
66006SOL    HW299916  13.703  13.256   4.584
66007SOL     OW99917   3.587   8.951   9.268
66007SOL    HW199918   3.652   8.972   9.335
66007SOL    HW299919   3.588   9.026   9.209
66008SOL     OW99920  14.069   0.932   2.629
66008SOL    HW199921  14.158   0.967   2.635
66008SOL    HW299922  14.042   0.919   2.720
66009SOL     OW99923  10.273   0.709   0.818
66009SOL    HW199924  10.245   0.617   0.820
66009SOL    HW299925  10.336   0.713   0.746
66010SOL     OW99926   8.473  11.673  12.037
66010SOL    HW199927   8.541  11.734  12.068
66010SOL    HW299928   8.428  11.722  11.968
66011SOL     OW99929   9.909  13.903   4.225
66011SOL    HW199930   9.825  13.880   4.185
66011SOL    HW299931   9.898  13.994   4.251
66012SOL     OW99932   9.334   4.138   6.856
66012SOL    HW199933   9.373   4.146   6.769
66012SOL    HW299934   9.365   4.054   6.889
66013SOL     OW99935   6.226  14.470  12.128
66013SOL    HW199936   6.247  14.533  12.197
66013SOL    HW299937   6.281  14.497  12.054
66014SOL     OW99938   7.419   1.043  11.008
66014SOL    HW199939   7.401   1.127  11.050
66014SOL    HW299940   7.332   1.008  10.987
66015SOL     OW99941  14.474  14.357   2.568
66015SOL    HW199942  14.560  14.328   2.539
66015SOL    HW299943  14.439  14.405   2.493
66016SOL     OW99944   3.973   0.026  10.360
66016SOL    HW199945   3.943   0.053  10.273
66016SOL    HW299946   3.900   0.049  10.418
66017SOL     OW99947  14.619   0.923   4.459
66017SOL    HW199948  14.671   0.945   4.382
66017SOL    HW299949  14.601   0.829   4.449
66018SOL     OW99950  10.803   5.182   7.764
66018SOL    HW199951  10.811   5.087   7.766
66018SOL    HW299952  10.717   5.199   7.725
66019SOL     OW99953  14.238   2.137   3.162
66019SOL    HW199954  14.320   2.104   3.125
66019SOL    HW299955  14.263   2.178   3.245
66020SOL     OW99956   7.221   2.692   1.599
66020SOL    HW199957   7.130   2.663   1.598
66020SOL    HW299958   7.220   2.778   1.558
66021SOL     OW99959  14.348  14.119   2.713
66021SOL    HW199960  14.414  14.050   2.719
66021SOL    HW299961  14.387  14.185   2.657
66022SOL     OW99962   3.517  10.396   3.640
66022SOL    HW199963   3.592  10.438   3.683
66022SOL    HW299964   3.552  10.364   3.557
66023SOL     OW99965  13.985   5.965   6.746
66023SOL    HW199966  14.015   5.875   6.736
66023SOL    HW299967  14.063   6.018   6.730
66024SOL     OW99968   4.354   8.581   6.569
66024SOL    HW199969   4.268   8.579   6.611
66024SOL    HW299970   4.415   8.583   6.643
66025SOL     OW99971   9.486   5.094   6.322
66025SOL    HW199972   9.506   5.079   6.414
66025SOL    HW299973   9.513   5.184   6.306
66026SOL     OW99974   3.245   2.466  11.267
66026SOL    HW199975   3.213   2.510  11.188
66026SOL    HW299976   3.307   2.529  11.306
66027SOL     OW99977   6.176   9.835  12.667
66027SOL    HW199978   6.165   9.870  12.755
66027SOL    HW299979   6.123   9.891  12.611
66028SOL     OW99980   9.654   1.098   3.519
66028SOL    HW199981   9.740   1.112   3.558
66028SOL    HW299982   9.672   1.062   3.433
66029SOL     OW99983   8.202   8.251   1.471
66029SOL    HW199984   8.154   8.302   1.536
66029SOL    HW299985   8.205   8.162   1.506
66030SOL     OW99986  10.233   9.810  10.817
66030SOL    HW199987  10.152   9.805  10.767
66030SOL    HW299988  10.284   9.878  10.773
66031SOL     OW99989   2.954   5.498  12.945
66031SOL    HW199990   2.893   5.537  13.008
66031SOL    HW299991   2.947   5.403  12.961
66032SOL     OW99992   5.420   7.742   5.094
66032SOL    HW199993   5.485   7.750   5.164
66032SOL    HW299994   5.407   7.647   5.085
66033SOL     OW99995  13.041  12.752   1.760
66033SOL    HW199996  13.071  12.662   1.751
66033SOL    HW299997  12.966  12.758   1.701
66034SOL     OW99998   3.042   7.160   7.195
66034SOL    HW199999   3.122   7.164   7.142
66034SOL    HW2    0   3.010   7.250   7.197
66035SOL     OW    1   2.693  13.265  13.847
66035SOL    HW1    2   2.763  13.328  13.832
66035SOL    HW2    3   2.719  13.188  13.796
66036SOL     OW    4   8.691  11.379   7.361
66036SOL    HW1    5   8.624  11.315   7.337
66036SOL    HW2    6   8.770  11.326   7.376
66037SOL     OW    7  10.090   8.280  14.095
66037SOL    HW1    8  10.126   8.253  14.010
66037SOL    HW2    9  10.163   8.323  14.139
66038SOL     OW   10   4.111   3.883   6.053
66038SOL    HW1   11   4.037   3.827   6.077
66038SOL    HW2   12   4.089   3.915   5.965
66039SOL     OW   13  11.026   8.050   7.502
66039SOL    HW1   14  10.979   7.988   7.445
66039SOL    HW2   15  11.096   8.085   7.446
66040SOL     OW   16   8.876   9.710   6.305
66040SOL    HW1   17   8.786   9.725   6.276
66040SOL    HW2   18   8.887   9.615   6.302
66041SOL     OW   19   3.826   2.900  13.822
66041SOL    HW1   20   3.775   2.821  13.803
66041SOL    HW2   21   3.891   2.904  13.753
66042SOL     OW   22   2.871   0.791   9.221
66042SOL    HW1   23   2.887   0.803   9.128
66042SOL    HW2   24   2.936   0.847   9.264
66043SOL     OW   25   6.609  10.793   7.031
66043SOL    HW1   26   6.688  10.846   7.020
66043SOL    HW2   27   6.537  10.855   7.020
66044SOL     OW   28   4.654   6.304  14.273
66044SOL    HW1   29   4.661   6.292  14.368
66044SOL    HW2   30   4.625   6.394  14.262
66045SOL     OW   31   1.317   0.070   7.035
66045SOL    HW1   32   1.260   0.140   7.002
66045SOL    HW2   33   1.377   0.052   6.963
66046SOL     OW   34   5.571  14.757  11.084
66046SOL    HW1   35   5.560  14.709  11.002
66046SOL    HW2   36   5.585  14.688  11.150
66047SOL     OW   37  13.612   3.927   7.343
66047SOL    HW1   38  13.607   3.931   7.248
66047SOL    HW2   39  13.700   3.957   7.364
66048SOL     OW   40   9.285   0.226   4.881
66048SOL    HW1   41   9.254   0.315   4.898
66048SOL    HW2   42   9.377   0.236   4.860
66049SOL     OW   43  10.721  13.051   0.793
66049SOL    HW1   44  10.689  13.006   0.714
66049SOL    HW2   45  10.688  12.998   0.866
66050SOL     OW   46  12.299  10.629   5.843
66050SOL    HW1   47  12.257  10.693   5.901
66050SOL    HW2   48  12.377  10.601   5.891
66051SOL     OW   49   5.838  11.195  13.310
66051SOL    HW1   50   5.806  11.113  13.274
66051SOL    HW2   51   5.765  11.257  13.297
66052SOL     OW   52   0.606   6.100   1.121
66052SOL    HW1   53   0.607   6.074   1.029
66052SOL    HW2   54   0.520   6.074   1.152
66053SOL     OW   55   7.675   0.730   8.025
66053SOL    HW1   56   7.754   0.772   8.058
66053SOL    HW2   57   7.606   0.795   8.039
66054SOL     OW   58  10.072   9.583   1.870
66054SOL    HW1   59  10.128   9.507   1.883
66054SOL    HW2   60  10.131   9.651   1.838
66055SOL     OW   61   7.123   6.642  13.567
66055SOL    HW1   62   7.061   6.706  13.602
66055SOL    HW2   63   7.192   6.695  13.525
66056SOL     OW   64   3.451  11.552   1.336
66056SOL    HW1   65   3.388  11.496   1.383
66056SOL    HW2   66   3.403  11.633   1.319
66057SOL     OW   67  11.403   1.217   9.409
66057SOL    HW1   68  11.361   1.282   9.352
66057SOL    HW2   69  11.353   1.220   9.490
66058SOL     OW   70   6.681  13.439   5.711
66058SOL    HW1   71   6.686  13.344   5.701
66058SOL    HW2   72   6.685  13.473   5.622
66059SOL     OW   73  12.154   9.401   3.872
66059SOL    HW1   74  12.082   9.432   3.927
66059SOL    HW2   75  12.114   9.386   3.786
66060SOL     OW   76   5.030   9.811   9.579
66060SOL    HW1   77   5.124   9.797   9.596
66060SOL    HW2   78   4.987   9.787   9.660
66061SOL     OW   79   7.862   8.544  13.318
66061SOL    HW1   80   7.904   8.593  13.389
66061SOL    HW2   81   7.857   8.454  13.350
66062SOL     OW   82  10.718   5.217  11.912
66062SOL    HW1   83  10.667   5.262  11.980
66062SOL    HW2   84  10.800   5.266  11.908
66063SOL     OW   85   3.947  11.252  13.142
66063SOL    HW1   86   3.894  11.330  13.156
66063SOL    HW2   87   4.033  11.285  13.115
66064SOL     OW   88  12.193  11.238   7.060
66064SOL    HW1   89  12.120  11.191   7.100
66064SOL    HW2   90  12.154  11.321   7.030
66065SOL     OW   91  12.115  11.294   2.768
66065SOL    HW1   92  12.054  11.338   2.826
66065SOL    HW2   93  12.068  11.285   2.685
66066SOL     OW   94   3.731   4.036  14.520
66066SOL    HW1   95   3.755   4.025  14.428
66066SOL    HW2   96   3.815   4.035  14.567
66067SOL     OW   97  12.359   9.239  11.894
66067SOL    HW1   98  12.346   9.273  11.805
66067SOL    HW2   99  12.447   9.269  11.917
66068SOL     OW  100   0.468  12.156   1.545
66068SOL    HW1  101   0.400  12.093   1.524
66068SOL    HW2  102   0.427  12.216   1.608
66069SOL     OW  103   3.313   0.705  12.305
66069SOL    HW1  104   3.343   0.730  12.393
66069SOL    HW2  105   3.314   0.788  12.256
66070SOL     OW  106   2.940   2.542  14.687
66070SOL    HW1  107   2.850   2.558  14.658
66070SOL    HW2  108   2.979   2.490  14.616
66071SOL     OW  109  13.566  11.419  12.253
66071SOL    HW1  110  13.587  11.458  12.338
66071SOL    HW2  111  13.646  11.372  12.228
66072SOL     OW  112   9.115   8.577  12.224
66072SOL    HW1  113   9.162   8.594  12.305
66072SOL    HW2  114   9.072   8.492  12.239
66073SOL     OW  115  10.319   5.286   2.482
66073SOL    HW1  116  10.290   5.327   2.401
66073SOL    HW2  117  10.381   5.219   2.454
66074SOL     OW  118   9.109   2.874   4.016
66074SOL    HW1  119   9.179   2.826   3.972
66074SOL    HW2  120   9.149   2.958   4.040
66075SOL     OW  121   3.053  12.064   3.156
66075SOL    HW1  122   3.118  12.001   3.186
66075SOL    HW2  123   3.038  12.122   3.230
66076SOL     OW  124   5.600   2.762   3.152
66076SOL    HW1  125   5.541   2.826   3.114
66076SOL    HW2  126   5.543   2.698   3.194
66077SOL     OW  127   4.681   4.646   8.499
66077SOL    HW1  128   4.708   4.728   8.540
66077SOL    HW2  129   4.693   4.661   8.405
66078SOL     OW  130   1.104  10.006   2.007
66078SOL    HW1  131   1.016   9.976   1.983
66078SOL    HW2  132   1.098  10.102   2.006
66079SOL     OW  133   2.293   4.323  11.706
66079SOL    HW1  134   2.354   4.397  11.702
66079SOL    HW2  135   2.213   4.356  11.665
66080SOL     OW  136   5.855  12.095  12.536
66080SOL    HW1  137   5.885  12.092  12.627
66080SOL    HW2  138   5.888  12.014  12.498
66081SOL     OW  139   4.306   9.364  14.763
66081SOL    HW1  140   4.367   9.292  14.779
66081SOL    HW2  141   4.244   9.328  14.699
66082SOL     OW  142  11.352  11.242   6.032
66082SOL    HW1  143  11.415  11.174   6.008
66082SOL    HW2  144  11.326  11.220   6.122
66083SOL     OW  145   8.818   7.016  13.699
66083SOL    HW1  146   8.905   7.049  13.674
66083SOL    HW2  147   8.791   7.072  13.771
66084SOL     OW  148   0.801   4.270  11.759
66084SOL    HW1  149   0.715   4.309  11.777
66084SOL    HW2  150   0.839   4.327  11.692
66085SOL     OW  151   7.602   7.475  12.731
66085SOL    HW1  152   7.620   7.512  12.645
66085SOL    HW2  153   7.684   7.432  12.757
66086SOL     OW  154  13.264   1.385  13.563
66086SOL    HW1  155  13.347   1.433  13.562
66086SOL    HW2  156  13.268   1.331  13.642
66087SOL     OW  157  12.868   1.742  14.329
66087SOL    HW1  158  12.853   1.690  14.408
66087SOL    HW2  159  12.886   1.677  14.261
66088SOL     OW  160   8.434   5.324  14.006
66088SOL    HW1  161   8.471   5.279  13.930
66088SOL    HW2  162   8.500   5.388  14.031
66089SOL     OW  163  12.482   9.699   8.468
66089SOL    HW1  164  12.509   9.759   8.398
66089SOL    HW2  165  12.564   9.669   8.507
66090SOL     OW  166   6.048  11.632  14.150
66090SOL    HW1  167   6.048  11.686  14.229
66090SOL    HW2  168   6.094  11.552  14.176
66091SOL     OW  169  10.559   1.968   2.114
66091SOL    HW1  170  10.516   2.049   2.088
66091SOL    HW2  171  10.535   1.956   2.206
66092SOL     OW  172   9.889   9.777  12.734
66092SOL    HW1  173   9.878   9.869  12.711
66092SOL    HW2  174   9.803   9.738  12.720
66093SOL     OW  175  10.340   3.054   7.620
66093SOL    HW1  176  10.418   3.005   7.594
66093SOL    HW2  177  10.374   3.141   7.645
66094SOL     OW  178  11.886   5.614   7.101
66094SOL    HW1  179  11.904   5.686   7.161
66094SOL    HW2  180  11.968   5.566   7.096
66095SOL     OW  181  11.215   7.361   6.251
66095SOL    HW1  182  11.246   7.305   6.180
66095SOL    HW2  183  11.172   7.435   6.207
66096SOL     OW  184   7.637  10.653   9.801
66096SOL    HW1  185   7.649  10.699   9.884
66096SOL    HW2  186   7.549  10.678   9.773
66097SOL     OW  187   8.288  12.076   3.785
66097SOL    HW1  188   8.213  12.038   3.831
66097SOL    HW2  189   8.283  12.038   3.697
66098SOL     OW  190  14.209  13.231  11.367
66098SOL    HW1  191  14.263  13.301  11.404
66098SOL    HW2  192  14.134  13.276  11.329
66099SOL     OW  193  12.048   9.457   7.109
66099SOL    HW1  194  11.954   9.443   7.108
66099SOL    HW2  195  12.059   9.546   7.144
66100SOL     OW  196   1.384   3.893  10.503
66100SOL    HW1  197   1.358   3.891  10.411
66100SOL    HW2  198   1.459   3.953  10.505
66101SOL     OW  199   3.571   5.887   3.510
66101SOL    HW1  200   3.595   5.845   3.592
66101SOL    HW2  201   3.582   5.819   3.444
66102SOL     OW  202   5.162   0.783   8.900
66102SOL    HW1  203   5.094   0.834   8.856
66102SOL    HW2  204   5.231   0.773   8.834
66103SOL     OW  205   3.799   0.680  12.339
66103SOL    HW1  206   3.801   0.622  12.414
66103SOL    HW2  207   3.880   0.730  12.344
66104SOL     OW  208   7.994   9.132   1.703
66104SOL    HW1  209   7.979   9.073   1.777
66104SOL    HW2  210   7.999   9.219   1.743
66105SOL     OW  211   6.825   4.347  11.756
66105SOL    HW1  212   6.794   4.257  11.760
66105SOL    HW2  213   6.746   4.399  11.743
66106SOL     OW  214   7.016   8.605   8.415
66106SOL    HW1  215   7.106   8.636   8.418
66106SOL    HW2  216   7.002   8.581   8.324
66107SOL     OW  217  14.131   0.706  12.984
66107SOL    HW1  218  14.106   0.727  13.074
66107SOL    HW2  219  14.215   0.661  12.992
66108SOL     OW  220  12.307   4.042   1.819
66108SOL    HW1  221  12.304   4.008   1.729
66108SOL    HW2  222  12.254   3.980   1.869
66109SOL     OW  223  10.904   4.065   8.563
66109SOL    HW1  224  10.938   4.002   8.499
66109SOL    HW2  225  10.955   4.145   8.548
66110SOL     OW  226   8.804   8.552   6.734
66110SOL    HW1  227   8.883   8.516   6.775
66110SOL    HW2  228   8.734   8.495   6.765
66111SOL     OW  229   4.847   3.928  12.755
66111SOL    HW1  230   4.830   4.015  12.719
66111SOL    HW2  231   4.801   3.927  12.838
66112SOL     OW  232   0.821   3.220   7.315
66112SOL    HW1  233   0.755   3.162   7.352
66112SOL    HW2  234   0.905   3.183   7.344
66113SOL     OW  235   0.208   4.356  12.065
66113SOL    HW1  236   0.131   4.303  12.087
66113SOL    HW2  237   0.187   4.394  11.980
66114SOL     OW  238  12.193   6.573  14.280
66114SOL    HW1  239  12.214   6.494  14.230
66114SOL    HW2  240  12.112   6.551  14.326
66115SOL     OW  241  13.295   8.842  13.027
66115SOL    HW1  242  13.224   8.904  13.009
66115SOL    HW2  243  13.371   8.896  13.047
66116SOL     OW  244  10.107  10.284   8.017
66116SOL    HW1  245  10.020  10.322   8.008
66116SOL    HW2  246  10.127  10.292   8.111
66117SOL     OW  247   4.163   8.403  14.376
66117SOL    HW1  248   4.123   8.362  14.453
66117SOL    HW2  249   4.158   8.497  14.392
66118SOL     OW  250   8.591  11.496  10.957
66118SOL    HW1  251   8.547  11.428  10.906
66118SOL    HW2  252   8.639  11.448  11.025
66119SOL     OW  253  10.271   4.951   0.324
66119SOL    HW1  254  10.227   5.019   0.376
66119SOL    HW2  255  10.201   4.916   0.269
66120SOL     OW  256   5.073  11.109  12.688
66120SOL    HW1  257   5.133  11.170  12.731
66120SOL    HW2  258   5.128  11.059  12.627
66121SOL     OW  259  10.652   5.917   9.449
66121SOL    HW1  260  10.632   6.006   9.476
66121SOL    HW2  261  10.642   5.865   9.529
66122SOL     OW  262   1.888   7.790   3.610
66122SOL    HW1  263   1.882   7.880   3.642
66122SOL    HW2  264   1.968   7.755   3.649
66123SOL     OW  265  14.739   8.874  12.419
66123SOL    HW1  266  14.674   8.873  12.349
66123SOL    HW2  267  14.814   8.827  12.383
66124SOL     OW  268  14.055   1.273   6.561
66124SOL    HW1  269  14.047   1.252   6.654
66124SOL    HW2  270  14.146   1.301   6.550
66125SOL     OW  271   8.269   4.691   5.779
66125SOL    HW1  272   8.338   4.755   5.760
66125SOL    HW2  273   8.203   4.740   5.827
66126SOL     OW  274  12.494   4.248  13.608
66126SOL    HW1  275  12.453   4.253  13.694
66126SOL    HW2  276  12.455   4.171  13.567
66127SOL     OW  277   0.466   1.988   7.646
66127SOL    HW1  278   0.444   2.022   7.559
66127SOL    HW2  279   0.385   1.998   7.697
66128SOL     OW  280  13.843   5.747  14.550
66128SOL    HW1  281  13.794   5.752  14.468
66128SOL    HW2  282  13.846   5.837  14.582
66129SOL     OW  283  12.053  12.971   8.132
66129SOL    HW1  284  12.038  13.060   8.100
66129SOL    HW2  285  12.095  12.983   8.217
66130SOL     OW  286   9.086  10.470   6.960
66130SOL    HW1  287   9.012  10.430   6.914
66130SOL    HW2  288   9.141  10.506   6.891
66131SOL     OW  289  14.578   3.956   4.894
66131SOL    HW1  290  14.603   3.998   4.812
66131SOL    HW2  291  14.636   3.881   4.901
66132SOL     OW  292   3.731   3.232  11.507
66132SOL    HW1  293   3.699   3.144  11.486
66132SOL    HW2  294   3.652   3.285  11.512
66133SOL     OW  295  11.285   9.702   6.973
66133SOL    HW1  296  11.344   9.639   7.014
66133SOL    HW2  297  11.277   9.772   7.037
66134SOL     OW  298  11.135   3.459  11.050
66134SOL    HW1  299  11.084   3.535  11.021
66134SOL    HW2  300  11.140   3.469  11.145
66135SOL     OW  301   5.814  11.817   3.573
66135SOL    HW1  302   5.798  11.725   3.555
66135SOL    HW2  303   5.789  11.862   3.492
66136SOL     OW  304   8.132   3.165   2.185
66136SOL    HW1  305   8.205   3.121   2.140
66136SOL    HW2  306   8.129   3.125   2.272
66137SOL     OW  307  14.401  10.229   9.700
66137SOL    HW1  308  14.310  10.241   9.675
66137SOL    HW2  309  14.409  10.274   9.784
66138SOL     OW  310  10.263   4.282   4.517
66138SOL    HW1  311  10.221   4.202   4.486
66138SOL    HW2  312  10.206   4.352   4.488
66139SOL     OW  313   6.921   6.916   2.298
66139SOL    HW1  314   6.846   6.952   2.347
66139SOL    HW2  315   6.946   6.986   2.238
66140SOL     OW  316   6.284   5.746   2.074
66140SOL    HW1  317   6.266   5.664   2.119
66140SOL    HW2  318   6.281   5.723   1.981
66141SOL     OW  319   2.781   5.883   8.171
66141SOL    HW1  320   2.826   5.821   8.229
66141SOL    HW2  321   2.844   5.953   8.157
66142SOL     OW  322   2.894  14.529  12.528
66142SOL    HW1  323   2.949  14.543  12.605
66142SOL    HW2  324   2.955  14.505  12.458
66143SOL     OW  325  14.727   5.501  14.153
66143SOL    HW1  326  14.642   5.545  14.156
66143SOL    HW2  327  14.770   5.538  14.075
66144SOL     OW  328  14.036   7.724   8.080
66144SOL    HW1  329  13.966   7.728   8.014
66144SOL    HW2  330  13.991   7.707   8.162
66145SOL     OW  331   2.238   6.034   4.354
66145SOL    HW1  332   2.282   6.037   4.269
66145SOL    HW2  333   2.309   6.039   4.418
66146SOL     OW  334  13.607   5.106   6.556
66146SOL    HW1  335  13.630   5.016   6.578
66146SOL    HW2  336  13.525   5.122   6.602
66147SOL     OW  337  10.333   1.718  12.253
66147SOL    HW1  338  10.283   1.694  12.331
66147SOL    HW2  339  10.423   1.723  12.284
66148SOL     OW  340   9.402  12.912   5.260
66148SOL    HW1  341   9.445  12.997   5.272
66148SOL    HW2  342   9.450  12.853   5.318
66149SOL     OW  343   5.392   5.282   5.378
66149SOL    HW1  344   5.357   5.210   5.431
66149SOL    HW2  345   5.486   5.282   5.396
66150SOL     OW  346  13.078  13.416   3.971
66150SOL    HW1  347  13.087  13.412   3.876
66150SOL    HW2  348  13.032  13.335   3.994
66151SOL     OW  349   4.145   2.298   2.653
66151SOL    HW1  350   4.074   2.234   2.659
66151SOL    HW2  351   4.116   2.370   2.709
66152SOL     OW  352   7.112   7.185  12.281
66152SOL    HW1  353   7.188   7.229  12.242
66152SOL    HW2  354   7.036   7.228  12.243
66153SOL     OW  355  13.954   2.849  11.729
66153SOL    HW1  356  13.976   2.757  11.715
66153SOL    HW2  357  14.037   2.891  11.749
66154SOL     OW  358   5.992  13.756   1.604
66154SOL    HW1  359   6.012  13.848   1.587
66154SOL    HW2  360   6.066  13.709   1.567
66155SOL     OW  361   6.582   7.004  14.054
66155SOL    HW1  362   6.576   7.004  14.149
66155SOL    HW2  363   6.549   7.090  14.027
66156SOL     OW  364  11.709  14.066   5.100
66156SOL    HW1  365  11.663  14.130   5.045
66156SOL    HW2  366  11.649  14.050   5.173
66157SOL     OW  367   9.516   0.463  12.761
66157SOL    HW1  368   9.428   0.473  12.723
66157SOL    HW2  369   9.573   0.456  12.685
66158SOL     OW  370  11.275  12.630  11.939
66158SOL    HW1  371  11.300  12.701  11.880
66158SOL    HW2  372  11.208  12.668  11.995
66159SOL     OW  373   6.362  13.502   5.015
66159SOL    HW1  374   6.443  13.518   4.966
66159SOL    HW2  375   6.309  13.580   5.000
66160SOL     OW  376  11.886   5.097   6.781
66160SOL    HW1  377  11.893   5.136   6.868
66160SOL    HW2  378  11.885   5.172   6.721
66161SOL     OW  379   7.803  11.567   3.761
66161SOL    HW1  380   7.744  11.559   3.686
66161SOL    HW2  381   7.764  11.512   3.828
66162SOL     OW  382   5.361   0.518  14.627
66162SOL    HW1  383   5.409   0.489  14.704
66162SOL    HW2  384   5.426   0.564  14.574
66163SOL     OW  385   8.096   6.286   9.729
66163SOL    HW1  386   8.171   6.227   9.725
66163SOL    HW2  387   8.123   6.363   9.680
66164SOL     OW  388   5.694  12.467  14.558
66164SOL    HW1  389   5.784  12.437  14.546
66164SOL    HW2  390   5.640  12.391  14.536
66165SOL     OW  391  14.596   5.168   5.928
66165SOL    HW1  392  14.587   5.137   5.838
66165SOL    HW2  393  14.632   5.094   5.976
66166SOL     OW  394   6.789   1.563   2.158
66166SOL    HW1  395   6.731   1.531   2.227
66166SOL    HW2  396   6.729   1.596   2.090
66167SOL     OW  397   8.528  10.590   4.772
66167SOL    HW1  398   8.470  10.536   4.718
66167SOL    HW2  399   8.616  10.562   4.747
66168SOL     OW  400   6.283   6.873   1.025
66168SOL    HW1  401   6.290   6.946   1.086
66168SOL    HW2  402   6.308   6.910   0.941
66169SOL     OW  403   9.444   9.581   4.634
66169SOL    HW1  404   9.447   9.672   4.604
66169SOL    HW2  405   9.353   9.554   4.623
66170SOL     OW  406   8.729   0.917  12.830
66170SOL    HW1  407   8.692   0.985  12.773
66170SOL    HW2  408   8.653   0.884  12.879
66171SOL     OW  409   4.319   8.064  13.411
66171SOL    HW1  410   4.346   7.983  13.454
66171SOL    HW2  411   4.358   8.133  13.464
66172SOL     OW  412   4.547  12.559  10.052
66172SOL    HW1  413   4.475  12.592  10.106
66172SOL    HW2  414   4.537  12.464  10.055
66173SOL     OW  415  10.896   4.287   6.080
66173SOL    HW1  416  10.868   4.199   6.107
66173SOL    HW2  417  10.814   4.335   6.066
66174SOL     OW  418   9.520  13.534   8.588
66174SOL    HW1  419   9.615  13.532   8.594
66174SOL    HW2  420   9.501  13.613   8.538
66175SOL     OW  421  12.026  14.786   4.002
66175SOL    HW1  422  12.113  14.786   4.043
66175SOL    HW2  423  11.970  14.740   4.065
66176SOL     OW  424   9.355  13.320   5.421
66176SOL    HW1  425   9.416  13.286   5.355
66176SOL    HW2  426   9.278  13.347   5.372
66177SOL     OW  427  13.355   5.459  14.377
66177SOL    HW1  428  13.404   5.421  14.305
66177SOL    HW2  429  13.275   5.406  14.382
66178SOL     OW  430   2.644  11.953  12.825
66178SOL    HW1  431   2.591  11.944  12.904
66178SOL    HW2  432   2.721  11.898  12.842
66179SOL     OW  433  13.474   1.553   7.685
66179SOL    HW1  434  13.497   1.643   7.665
66179SOL    HW2  435  13.514   1.501   7.615
66180SOL     OW  436   5.290   6.584   1.049
66180SOL    HW1  437   5.280   6.498   1.090
66180SOL    HW2  438   5.351   6.631   1.106
66181SOL     OW  439  12.576   1.238   2.173
66181SOL    HW1  440  12.588   1.160   2.227
66181SOL    HW2  441  12.552   1.203   2.087
66182SOL     OW  442   7.731  13.415   6.829
66182SOL    HW1  443   7.814  13.372   6.850
66182SOL    HW2  444   7.749  13.463   6.748
66183SOL     OW  445   3.312   8.568  10.763
66183SOL    HW1  446   3.258   8.639  10.729
66183SOL    HW2  447   3.254   8.520  10.822
66184SOL     OW  448   3.056   0.950  14.663
66184SOL    HW1  449   3.052   1.045  14.660
66184SOL    HW2  450   2.966   0.922  14.684
66185SOL     OW  451  13.163   3.557  12.643
66185SOL    HW1  452  13.185   3.582  12.553
66185SOL    HW2  453  13.097   3.489  12.633
66186SOL     OW  454   4.793  12.404  11.308
66186SOL    HW1  455   4.825  12.475  11.362
66186SOL    HW2  456   4.867  12.382  11.251
66187SOL     OW  457   7.471   5.274   7.947
66187SOL    HW1  458   7.535   5.211   7.978
66187SOL    HW2  459   7.465   5.339   8.017
66188SOL     OW  460   6.631   0.064   8.404
66188SOL    HW1  461   6.580   0.046   8.483
66188SOL    HW2  462   6.701   0.122   8.434
66189SOL     OW  463   2.880   1.839   3.032
66189SOL    HW1  464   2.824   1.856   2.956
66189SOL    HW2  465   2.968   1.863   3.004
66190SOL     OW  466  11.589   9.433   8.147
66190SOL    HW1  467  11.617   9.450   8.237
66190SOL    HW2  468  11.670   9.415   8.099
66191SOL     OW  469  13.756   0.816   7.381
66191SOL    HW1  470  13.837   0.826   7.331
66191SOL    HW2  471  13.692   0.784   7.317
66192SOL     OW  472   2.719   4.641  14.562
66192SOL    HW1  473   2.631   4.604  14.558
66192SOL    HW2  474   2.764   4.603  14.486
66193SOL     OW  475   5.619   2.945   0.379
66193SOL    HW1  476   5.557   2.997   0.327
66193SOL    HW2  477   5.568   2.872   0.412
66194SOL     OW  478   0.717  10.991   1.106
66194SOL    HW1  479   0.778  10.965   1.174
66194SOL    HW2  480   0.630  10.981   1.146
66195SOL     OW  481   1.444   6.428   5.500
66195SOL    HW1  482   1.402   6.422   5.585
66195SOL    HW2  483   1.511   6.496   5.511
66196SOL     OW  484  12.315   8.032  14.284
66196SOL    HW1  485  12.224   8.002  14.282
66196SOL    HW2  486  12.314   8.109  14.339
66197SOL     OW  487  11.559   1.872   6.158
66197SOL    HW1  488  11.587   1.784   6.131
66197SOL    HW2  489  11.465   1.864   6.174
66198SOL     OW  490  11.291   4.604   8.280
66198SOL    HW1  491  11.266   4.676   8.222
66198SOL    HW2  492  11.224   4.604   8.348
66199SOL     OW  493   7.594   9.666   1.264
66199SOL    HW1  494   7.604   9.721   1.186
66199SOL    HW2  495   7.660   9.598   1.254
66200SOL     OW  496  11.093   9.589   2.870
66200SOL    HW1  497  11.022   9.649   2.892
66200SOL    HW2  498  11.063   9.503   2.902
66201SOL     OW  499   3.381  10.599   6.830
66201SOL    HW1  500   3.286  10.586   6.830
66201SOL    HW2  501   3.414  10.537   6.896
66202SOL     OW  502   1.282   3.666   4.906
66202SOL    HW1  503   1.223   3.721   4.959
66202SOL    HW2  504   1.297   3.718   4.827
66203SOL     OW  505  11.814   5.655   5.151
66203SOL    HW1  506  11.859   5.571   5.146
66203SOL    HW2  507  11.878   5.718   5.118
66204SOL     OW  508   6.043   6.022   2.205
66204SOL    HW1  509   6.133   5.998   2.183
66204SOL    HW2  510   6.053   6.091   2.271
66205SOL     OW  511  13.558  12.962   1.363
66205SOL    HW1  512  13.556  13.011   1.445
66205SOL    HW2  513  13.636  12.995   1.318
66206SOL     OW  514   4.780   5.916   5.767
66206SOL    HW1  515   4.826   5.872   5.839
66206SOL    HW2  516   4.830   5.996   5.752
66207SOL     OW  517   4.630   7.158  13.637
66207SOL    HW1  518   4.605   7.102  13.564
66207SOL    HW2  519   4.554   7.213  13.653
66208SOL     OW  520   2.115  11.086   9.170
66208SOL    HW1  521   2.178  11.155   9.192
66208SOL    HW2  522   2.156  11.005   9.202
66209SOL     OW  523   0.118   7.682   6.638
66209SOL    HW1  524   0.186   7.636   6.590
66209SOL    HW2  525   0.159   7.764   6.665
66210SOL     OW  526   2.894   6.143  14.563
66210SOL    HW1  527   2.813   6.168  14.608
66210SOL    HW2  528   2.956   6.124  14.633
66211SOL     OW  529   1.088   6.755   3.824
66211SOL    HW1  530   1.150   6.682   3.815
66211SOL    HW2  531   1.010   6.715   3.863
66212SOL     OW  532   6.119   2.395   1.021
66212SOL    HW1  533   6.053   2.371   0.956
66212SOL    HW2  534   6.104   2.334   1.094
66213SOL     OW  535   9.684   7.142  13.079
66213SOL    HW1  536   9.738   7.075  13.038
66213SOL    HW2  537   9.667   7.109  13.167
66214SOL     OW  538   2.104   7.116   3.683
66214SOL    HW1  539   2.165   7.175   3.639
66214SOL    HW2  540   2.036   7.174   3.718
66215SOL     OW  541   4.529   5.365   5.652
66215SOL    HW1  542   4.560   5.282   5.616
66215SOL    HW2  543   4.580   5.432   5.605
66216SOL     OW  544   1.370  10.761   9.812
66216SOL    HW1  545   1.333  10.735   9.897
66216SOL    HW2  546   1.446  10.814   9.835
66217SOL     OW  547   4.743   8.402   5.691
66217SOL    HW1  548   4.824   8.354   5.709
66217SOL    HW2  549   4.713   8.432   5.777
66218SOL     OW  550   5.545  12.220  12.745
66218SOL    HW1  551   5.525  12.132  12.713
66218SOL    HW2  552   5.562  12.208  12.839
66219SOL     OW  553  12.057   1.964   3.861
66219SOL    HW1  554  12.030   1.878   3.892
66219SOL    HW2  555  12.079   2.013   3.940
66220SOL     OW  556  12.956   5.527   6.718
66220SOL    HW1  557  12.861   5.520   6.723
66220SOL    HW2  558  12.979   5.484   6.636
66221SOL     OW  559  10.651  14.550   9.896
66221SOL    HW1  560  10.577  14.608   9.917
66221SOL    HW2  561  10.700  14.543   9.978
66222SOL     OW  562   3.392   0.842  12.997
66222SOL    HW1  563   3.481   0.863  12.970
66222SOL    HW2  564   3.337   0.892  12.936
66223SOL     OW  565  10.534   5.283   6.286
66223SOL    HW1  566  10.439   5.278   6.285
66223SOL    HW2  567  10.553   5.366   6.330
66224SOL     OW  568   0.623  14.198   8.040
66224SOL    HW1  569   0.550  14.195   8.102
66224SOL    HW2  570   0.601  14.269   7.980
66225SOL     OW  571  11.985  11.621   5.685
66225SOL    HW1  572  11.946  11.708   5.698
66225SOL    HW2  573  11.968  11.601   5.593
66226SOL     OW  574   2.121   8.479   6.409
66226SOL    HW1  575   2.167   8.411   6.360
66226SOL    HW2  576   2.191   8.535   6.443
66227SOL     OW  577   4.553   5.771   2.005
66227SOL    HW1  578   4.588   5.788   1.918
66227SOL    HW2  579   4.615   5.813   2.065
66228SOL     OW  580   1.689  10.525   2.798
66228SOL    HW1  581   1.641  10.551   2.719
66228SOL    HW2  582   1.628  10.541   2.870
66229SOL     OW  583   4.924   4.672   8.061
66229SOL    HW1  584   4.980   4.594   8.068
66229SOL    HW2  585   4.983   4.745   8.082
66230SOL     OW  586   6.195   7.169   3.969
66230SOL    HW1  587   6.170   7.242   3.913
66230SOL    HW2  588   6.288   7.154   3.950
66231SOL     OW  589   7.109   1.276   5.505
66231SOL    HW1  590   7.065   1.334   5.443
66231SOL    HW2  591   7.180   1.236   5.453
66232SOL     OW  592   6.849  10.275   7.994
66232SOL    HW1  593   6.889  10.188   7.998
66232SOL    HW2  594   6.889  10.323   8.067
66233SOL     OW  595   9.243   6.186   3.247
66233SOL    HW1  596   9.166   6.243   3.243
66233SOL    HW2  597   9.207   6.098   3.251
66234SOL     OW  598   0.924  11.526   1.969
66234SOL    HW1  599   0.946  11.619   1.974
66234SOL    HW2  600   0.977  11.493   1.896
66235SOL     OW  601   7.922   8.971   1.905
66235SOL    HW1  602   7.884   8.886   1.884
66235SOL    HW2  603   7.857   9.015   1.959
66236SOL     OW  604  13.522  10.434  13.298
66236SOL    HW1  605  13.583  10.436  13.224
66236SOL    HW2  606  13.439  10.405  13.260
66237SOL     OW  607  13.623  10.982  13.131
66237SOL    HW1  608  13.682  10.910  13.153
66237SOL    HW2  609  13.618  11.034  13.210
66238SOL     OW  610  11.552  10.096   4.220
66238SOL    HW1  611  11.515  10.184   4.214
66238SOL    HW2  612  11.566  10.069   4.129
66239SOL     OW  613  10.244  12.338  12.032
66239SOL    HW1  614  10.320  12.388  12.001
66239SOL    HW2  615  10.263  12.323  12.125
66240SOL     OW  616  11.860   8.022  10.632
66240SOL    HW1  617  11.867   8.063  10.545
66240SOL    HW2  618  11.768   7.998  10.639
66241SOL     OW  619   4.788   1.773   3.798
66241SOL    HW1  620   4.795   1.798   3.890
66241SOL    HW2  621   4.877   1.752   3.771
66242SOL     OW  622   4.677  11.321   4.851
66242SOL    HW1  623   4.717  11.408   4.851
66242SOL    HW2  624   4.636  11.314   4.937
66243SOL     OW  625   3.915  11.779  13.322
66243SOL    HW1  626   3.844  11.716  13.334
66243SOL    HW2  627   3.889  11.853  13.377
66244SOL     OW  628   0.548  11.264   3.983
66244SOL    HW1  629   0.624  11.208   3.966
66244SOL    HW2  630   0.491  11.211   4.039
66245SOL     OW  631   2.198   5.203   8.148
66245SOL    HW1  632   2.128   5.243   8.199
66245SOL    HW2  633   2.278   5.222   8.198
66246SOL     OW  634   2.897  11.299  11.161
66246SOL    HW1  635   2.828  11.365  11.154
66246SOL    HW2  636   2.973  11.347  11.194
66247SOL     OW  637  10.086  10.412   1.318
66247SOL    HW1  638  10.043  10.327   1.325
66247SOL    HW2  639  10.143  10.404   1.242
66248SOL     OW  640  13.162   7.107   0.887
66248SOL    HW1  641  13.182   7.057   0.808
66248SOL    HW2  642  13.125   7.042   0.947
66249SOL     OW  643   3.801   4.615   4.812
66249SOL    HW1  644   3.712   4.592   4.786
66249SOL    HW2  645   3.828   4.546   4.872
66250SOL     OW  646  10.030   9.370   9.537
66250SOL    HW1  647  10.031   9.381   9.632
66250SOL    HW2  648   9.957   9.311   9.521
66251SOL     OW  649   9.408   2.587   9.757
66251SOL    HW1  650   9.366   2.574   9.672
66251SOL    HW2  651   9.335   2.592   9.819
66252SOL     OW  652   1.189   7.296   7.318
66252SOL    HW1  653   1.158   7.292   7.228
66252SOL    HW2  654   1.213   7.388   7.330
66253SOL     OW  655  10.446   4.116   5.779
66253SOL    HW1  656  10.439   4.030   5.738
66253SOL    HW2  657  10.355   4.141   5.797
66254SOL     OW  658   1.906  10.663   5.748
66254SOL    HW1  659   1.895  10.568   5.751
66254SOL    HW2  660   1.822  10.699   5.775
66255SOL     OW  661   4.388   6.410   8.607
66255SOL    HW1  662   4.307   6.457   8.626
66255SOL    HW2  663   4.369   6.319   8.632
66256SOL     OW  664   9.617  10.260   8.121
66256SOL    HW1  665   9.561  10.248   8.044
66256SOL    HW2  666   9.566  10.315   8.180
66257SOL     OW  667   3.750   6.630   2.436
66257SOL    HW1  668   3.661   6.638   2.468
66257SOL    HW2  669   3.805   6.646   2.512
66258SOL     OW  670  11.273   6.461   2.047
66258SOL    HW1  671  11.185   6.425   2.040
66258SOL    HW2  672  11.319   6.427   1.970
66259SOL     OW  673  11.608   6.916   6.135
66259SOL    HW1  674  11.672   6.877   6.075
66259SOL    HW2  675  11.524   6.903   6.092
66260SOL     OW  676   9.998   1.968  12.059
66260SOL    HW1  677   9.919   1.938  12.105
66260SOL    HW2  678   9.965   2.009  11.979
66261SOL     OW  679   1.263   4.307   5.058
66261SOL    HW1  680   1.284   4.400   5.057
66261SOL    HW2  681   1.346   4.263   5.044
66262SOL     OW  682  10.027  12.690   4.383
66262SOL    HW1  683  10.029  12.775   4.340
66262SOL    HW2  684  10.045  12.627   4.313
66263SOL     OW  685   9.944   9.227  13.166
66263SOL    HW1  686   9.937   9.245  13.072
66263SOL    HW2  687   9.921   9.135  13.174
66264SOL     OW  688   0.816  14.295   6.083
66264SOL    HW1  689   0.739  14.351   6.075
66264SOL    HW2  690   0.817  14.244   6.002
66265SOL     OW  691  10.918  11.835   0.389
66265SOL    HW1  692  10.919  11.864   0.298
66265SOL    HW2  693  10.995  11.877   0.428
66266SOL     OW  694  14.594   1.792  12.010
66266SOL    HW1  695  14.569   1.848  11.936
66266SOL    HW2  696  14.645   1.721  11.970
66267SOL     OW  697   9.344   9.982   6.624
66267SOL    HW1  698   9.420  10.023   6.666
66267SOL    HW2  699   9.339  10.025   6.538
66268SOL     OW  700   0.428   8.034   3.553
66268SOL    HW1  701   0.380   7.969   3.501
66268SOL    HW2  702   0.519   8.023   3.527
66269SOL     OW  703   1.632   5.810  12.773
66269SOL    HW1  704   1.695   5.882  12.772
66269SOL    HW2  705   1.657   5.756  12.847
66270SOL     OW  706   3.738  13.295   9.221
66270SOL    HW1  707   3.807  13.305   9.287
66270SOL    HW2  708   3.785  13.276   9.140
66271SOL     OW  709   1.745   9.464   6.549
66271SOL    HW1  710   1.738   9.536   6.485
66271SOL    HW2  711   1.810   9.495   6.612
66272SOL     OW  712   1.398  10.716   0.309
66272SOL    HW1  713   1.403  10.726   0.404
66272SOL    HW2  714   1.433  10.629   0.292
66273SOL     OW  715  12.862   4.784   5.123
66273SOL    HW1  716  12.785   4.808   5.073
66273SOL    HW2  717  12.828   4.757   5.208
66274SOL     OW  718  12.244  12.858   6.116
66274SOL    HW1  719  12.252  12.779   6.169
66274SOL    HW2  720  12.227  12.928   6.179
66275SOL     OW  721  13.801   3.495   1.997
66275SOL    HW1  722  13.803   3.534   2.084
66275SOL    HW2  723  13.746   3.417   2.007
66276SOL     OW  724   2.578   1.610   9.304
66276SOL    HW1  725   2.487   1.584   9.292
66276SOL    HW2  726   2.574   1.681   9.369
66277SOL     OW  727   3.991   3.124   7.776
66277SOL    HW1  728   3.908   3.142   7.732
66277SOL    HW2  729   3.966   3.088   7.861
66278SOL     OW  730  10.629   4.894  12.765
66278SOL    HW1  731  10.664   4.910  12.853
66278SOL    HW2  732  10.700   4.848  12.719
66279SOL     OW  733   7.620   5.118   5.519
66279SOL    HW1  734   7.587   5.146   5.604
66279SOL    HW2  735   7.680   5.046   5.539
66280SOL     OW  736  13.510  10.544  11.945
66280SOL    HW1  737  13.444  10.504  12.001
66280SOL    HW2  738  13.594  10.520  11.984
66281SOL     OW  739   4.731   5.990   2.863
66281SOL    HW1  740   4.651   6.021   2.821
66281SOL    HW2  741   4.710   5.990   2.957
66282SOL     OW  742   8.368   9.311   4.016
66282SOL    HW1  743   8.461   9.292   4.033
66282SOL    HW2  744   8.358   9.296   3.922
66283SOL     OW  745   2.191   6.862   4.227
66283SOL    HW1  746   2.139   6.884   4.305
66283SOL    HW2  747   2.129   6.826   4.165
66284SOL     OW  748  13.503   5.377   2.915
66284SOL    HW1  749  13.506   5.287   2.947
66284SOL    HW2  750  13.440   5.421   2.972
66285SOL     OW  751  12.525   4.644   1.638
66285SOL    HW1  752  12.527   4.733   1.673
66285SOL    HW2  753  12.599   4.600   1.680
66286SOL     OW  754  11.096  10.533   8.462
66286SOL    HW1  755  11.079  10.440   8.482
66286SOL    HW2  756  11.056  10.580   8.534
66287SOL     OW  757  10.790  10.298   4.240
66287SOL    HW1  758  10.822  10.347   4.165
66287SOL    HW2  759  10.835  10.336   4.315
66288SOL     OW  760  12.275   0.298  13.390
66288SOL    HW1  761  12.309   0.371  13.339
66288SOL    HW2  762  12.352   0.260  13.432
66289SOL     OW  763  11.545   0.023   5.521
66289SOL    HW1  764  11.517   0.039   5.611
66289SOL    HW2  765  11.472  14.845   5.481
66290SOL     OW  766   6.995   1.834   6.633
66290SOL    HW1  767   6.930   1.765   6.638
66290SOL    HW2  768   6.972   1.884   6.554
66291SOL     OW  769  12.394  12.802  10.723
66291SOL    HW1  770  12.459  12.801  10.652
66291SOL    HW2  771  12.426  12.870  10.783
66292SOL     OW  772   6.681   7.141   3.247
66292SOL    HW1  773   6.741   7.181   3.311
66292SOL    HW2  774   6.738   7.088   3.190
66293SOL     OW  775  12.692   7.382  11.308
66293SOL    HW1  776  12.765   7.324  11.330
66293SOL    HW2  777  12.707   7.461  11.358
66294SOL     OW  778   6.168   1.491   6.961
66294SOL    HW1  779   6.172   1.476   7.055
66294SOL    HW2  780   6.114   1.569   6.951
66295SOL     OW  781   5.238   4.564   7.971
66295SOL    HW1  782   5.252   4.600   8.059
66295SOL    HW2  783   5.299   4.612   7.916
66296SOL     OW  784   3.895  14.514   5.294
66296SOL    HW1  785   3.804  14.531   5.272
66296SOL    HW2  786   3.943  14.531   5.213
66297SOL     OW  787   5.065   1.296  11.290
66297SOL    HW1  788   4.986   1.312  11.343
66297SOL    HW2  789   5.056   1.205  11.262
66298SOL     OW  790   6.550  14.589   7.944
66298SOL    HW1  791   6.545  14.497   7.916
66298SOL    HW2  792   6.639  14.599   7.977
66299SOL     OW  793  10.657   7.608  14.039
66299SOL    HW1  794  10.737   7.637  13.995
66299SOL    HW2  795  10.653   7.514  14.022
66300SOL     OW  796   5.014   1.050  11.214
66300SOL    HW1  797   5.002   1.071  11.121
66300SOL    HW2  798   5.089   0.991  11.214
66301SOL     OW  799   6.182   6.374   1.164
66301SOL    HW1  800   6.256   6.431   1.143
66301SOL    HW2  801   6.115   6.433   1.198
66302SOL     OW  802  13.602  12.362  12.853
66302SOL    HW1  803  13.546  12.375  12.777
66302SOL    HW2  804  13.658  12.288  12.830
66303SOL     OW  805  13.063   2.795   9.029
66303SOL    HW1  806  13.087   2.764   9.117
66303SOL    HW2  807  13.046   2.889   9.040
66304SOL     OW  808   3.983   2.577  10.960
66304SOL    HW1  809   4.012   2.658  11.002
66304SOL    HW2  810   4.038   2.570  10.882
66305SOL     OW  811  13.161   6.449   6.472
66305SOL    HW1  812  13.219   6.427   6.399
66305SOL    HW2  813  13.217   6.440   6.550
66306SOL     OW  814   0.139   8.663   3.572
66306SOL    HW1  815   0.152   8.714   3.651
66306SOL    HW2  816   0.139   8.572   3.602
66307SOL     OW  817   0.205   1.085  14.421
66307SOL    HW1  818   0.127   1.140  14.432
66307SOL    HW2  819   0.171   0.996  14.410
66308SOL     OW  820   8.718   1.311  14.181
66308SOL    HW1  821   8.789   1.261  14.221
66308SOL    HW2  822   8.762   1.381  14.134
66309SOL     OW  823   5.539  13.856   0.346
66309SOL    HW1  824   5.523  13.860   0.440
66309SOL    HW2  825   5.616  13.800   0.337
66310SOL     OW  826  13.769   7.342   4.991
66310SOL    HW1  827  13.731   7.426   5.019
66310SOL    HW2  828  13.830   7.319   5.060
66311SOL     OW  829   1.440   1.722   0.959
66311SOL    HW1  830   1.506   1.738   1.026
66311SOL    HW2  831   1.477   1.759   0.879
66312SOL     OW  832   8.101   2.513   5.909
66312SOL    HW1  833   8.130   2.422   5.900
66312SOL    HW2  834   8.077   2.539   5.820
66313SOL     OW  835   8.027   7.607   0.641
66313SOL    HW1  836   8.081   7.684   0.629
66313SOL    HW2  837   8.085   7.533   0.620
66314SOL     OW  838   0.672   9.740   4.868
66314SOL    HW1  839   0.655   9.747   4.961
66314SOL    HW2  840   0.649   9.650   4.846
66315SOL     OW  841   0.273  12.955   2.187
66315SOL    HW1  842   0.366  12.981   2.188
66315SOL    HW2  843   0.244  12.967   2.278
66316SOL     OW  844   8.444   0.663  12.035
66316SOL    HW1  845   8.445   0.582  12.087
66316SOL    HW2  846   8.532   0.699  12.045
66317SOL     OW  847   2.597   7.412   9.332
66317SOL    HW1  848   2.508   7.429   9.300
66317SOL    HW2  849   2.624   7.495   9.372
66318SOL     OW  850   0.826  13.240   2.131
66318SOL    HW1  851   0.881  13.163   2.117
66318SOL    HW2  852   0.871  13.311   2.086
66319SOL     OW  853  10.256   4.138  14.038
66319SOL    HW1  854  10.307   4.100  13.967
66319SOL    HW2  855  10.288   4.228  14.045
66320SOL     OW  856   9.431  11.173  11.293
66320SOL    HW1  857   9.518  11.209  11.274
66320SOL    HW2  858   9.445  11.079  11.296
66321SOL     OW  859   2.348   3.452   4.879
66321SOL    HW1  860   2.294   3.450   4.800
66321SOL    HW2  861   2.378   3.362   4.890
66322SOL     OW  862   9.386  10.482   0.533
66322SOL    HW1  863   9.306  10.527   0.505
66322SOL    HW2  864   9.452  10.507   0.468
66323SOL     OW  865   5.285   0.090   1.910
66323SOL    HW1  866   5.294   0.046   1.994
66323SOL    HW2  867   5.338   0.037   1.850
66324SOL     OW  868   5.270  12.827   7.185
66324SOL    HW1  869   5.267  12.902   7.125
66324SOL    HW2  870   5.347  12.777   7.158
66325SOL     OW  871   6.202   4.731   4.505
66325SOL    HW1  872   6.246   4.656   4.464
66325SOL    HW2  873   6.271   4.776   4.554
66326SOL     OW  874  10.538  10.832   9.455
66326SOL    HW1  875  10.527  10.877   9.539
66326SOL    HW2  876  10.624  10.859   9.424
66327SOL     OW  877  11.620   7.603  14.231
66327SOL    HW1  878  11.711   7.631  14.234
66327SOL    HW2  879  11.602   7.571  14.320
66328SOL     OW  880   6.273   8.713   6.396
66328SOL    HW1  881   6.231   8.735   6.312
66328SOL    HW2  882   6.249   8.621   6.411
66329SOL     OW  883   7.935   1.443   1.037
66329SOL    HW1  884   8.030   1.445   1.046
66329SOL    HW2  885   7.920   1.389   0.959
66330SOL     OW  886  10.318   2.332  10.962
66330SOL    HW1  887  10.384   2.399  10.982
66330SOL    HW2  888  10.340   2.259  11.020
66331SOL     OW  889   5.181  14.171  11.827
66331SOL    HW1  890   5.163  14.109  11.757
66331SOL    HW2  891   5.119  14.243  11.812
66332SOL     OW  892  10.249   5.042   3.821
66332SOL    HW1  893  10.189   4.979   3.780
66332SOL    HW2  894  10.286   4.995   3.896
66333SOL     OW  895  14.649  10.853  12.466
66333SOL    HW1  896  14.650  10.908  12.544
66333SOL    HW2  897  14.696  10.774  12.492
66334SOL     OW  898   6.995   0.688  10.242
66334SOL    HW1  899   6.920   0.742  10.265
66334SOL    HW2  900   7.015   0.713  10.151
66335SOL     OW  901   6.166   4.554   2.852
66335SOL    HW1  902   6.240   4.550   2.913
66335SOL    HW2  903   6.201   4.595   2.773
66336SOL     OW  904   8.890   2.337   6.509
66336SOL    HW1  905   8.807   2.297   6.537
66336SOL    HW2  906   8.869   2.379   6.426
66337SOL     OW  907   3.102  14.865  12.880
66337SOL    HW1  908   3.107  14.847  12.974
66337SOL    HW2  909   3.192  14.856  12.850
66338SOL     OW  910   4.716   4.775  13.532
66338SOL    HW1  911   4.678   4.851  13.488
66338SOL    HW2  912   4.807   4.774  13.502
66339SOL     OW  913   3.842   1.176  14.580
66339SOL    HW1  914   3.826   1.151  14.671
66339SOL    HW2  915   3.757   1.209  14.549
66340SOL     OW  916  10.293  13.063   9.595
66340SOL    HW1  917  10.385  13.040   9.610
66340SOL    HW2  918  10.244  13.010   9.658
66341SOL     OW  919   4.593   0.947   4.561
66341SOL    HW1  920   4.632   0.887   4.498
66341SOL    HW2  921   4.647   0.938   4.639
66342SOL     OW  922   4.061   2.607   6.123
66342SOL    HW1  923   4.116   2.548   6.174
66342SOL    HW2  924   4.043   2.680   6.182
66343SOL     OW  925   8.362   7.528   0.803
66343SOL    HW1  926   8.333   7.542   0.713
66343SOL    HW2  927   8.309   7.589   0.854
66344SOL     OW  928  14.865  10.430   4.092
66344SOL    HW1  929   0.009  10.436   3.998
66344SOL    HW2  930  14.808  10.504   4.113
66345SOL     OW  931  11.955   5.968  13.819
66345SOL    HW1  932  11.912   5.926  13.745
66345SOL    HW2  933  12.003   5.898  13.862
66346SOL     OW  934   2.171   9.178   9.679
66346SOL    HW1  935   2.103   9.161   9.744
66346SOL    HW2  936   2.245   9.123   9.707
66347SOL     OW  937  14.839   8.289   7.919
66347SOL    HW1  938  14.806   8.202   7.940
66347SOL    HW2  939  14.783   8.319   7.847
66348SOL     OW  940  10.016   3.238  11.055
66348SOL    HW1  941  10.034   3.332  11.053
66348SOL    HW2  942  10.089   3.198  11.007
66349SOL     OW  943   3.687   3.250   6.087
66349SOL    HW1  944   3.768   3.240   6.138
66349SOL    HW2  945   3.617   3.246   6.152
66350SOL     OW  946   1.087   4.879   0.692
66350SOL    HW1  947   1.099   4.810   0.628
66350SOL    HW2  948   1.157   4.865   0.756
66351SOL     OW  949  10.027   4.334   3.226
66351SOL    HW1  950  10.111   4.355   3.186
66351SOL    HW2  951   9.965   4.336   3.153
66352SOL     OW  952   3.292   4.112   9.673
66352SOL    HW1  953   3.288   4.096   9.579
66352SOL    HW2  954   3.204   4.092   9.704
66353SOL     OW  955   2.423   2.252   3.367
66353SOL    HW1  956   2.465   2.208   3.441
66353SOL    HW2  957   2.352   2.193   3.342
66354SOL     OW  958   2.858   0.257   5.084
66354SOL    HW1  959   2.908   0.189   5.128
66354SOL    HW2  960   2.909   0.278   5.006
66355SOL     OW  961  10.807   4.505   7.467
66355SOL    HW1  962  10.749   4.485   7.541
66355SOL    HW2  963  10.822   4.420   7.425
66356SOL     OW  964   2.262   5.595   3.062
66356SOL    HW1  965   2.338   5.543   3.088
66356SOL    HW2  966   2.299   5.670   3.014
66357SOL     OW  967   6.467   8.251   0.055
66357SOL    HW1  968   6.415   8.185   0.101
66357SOL    HW2  969   6.525   8.201  14.867
66358SOL     OW  970   6.463   0.441   9.519
66358SOL    HW1  971   6.406   0.457   9.595
66358SOL    HW2  972   6.506   0.357   9.538
66359SOL     OW  973  12.190   9.280  11.637
66359SOL    HW1  974  12.164   9.354  11.582
66359SOL    HW2  975  12.108   9.234  11.656
66360SOL     OW  976  11.454  10.427   6.498
66360SOL    HW1  977  11.466  10.345   6.451
66360SOL    HW2  978  11.528  10.481   6.471
66361SOL     OW  979   8.657   8.909   4.957
66361SOL    HW1  980   8.650   8.842   4.890
66361SOL    HW2  981   8.677   8.990   4.909
66362SOL     OW  982   4.434   4.889   2.731
66362SOL    HW1  983   4.511   4.844   2.767
66362SOL    HW2  984   4.377   4.903   2.806
66363SOL     OW  985  13.159  11.233  10.334
66363SOL    HW1  986  13.208  11.151  10.345
66363SOL    HW2  987  13.121  11.250  10.420
66364SOL     OW  988   9.740  11.286   9.450
66364SOL    HW1  989   9.765  11.281   9.358
66364SOL    HW2  990   9.708  11.376   9.461
66365SOL     OW  991   0.572   6.965  11.605
66365SOL    HW1  992   0.543   6.876  11.625
66365SOL    HW2  993   0.636   6.954  11.535
66366SOL     OW  994  14.091  10.431   5.624
66366SOL    HW1  995  14.159  10.376   5.662
66366SOL    HW2  996  14.138  10.503   5.581
66367SOL     OW  997  13.924   0.199   5.634
66367SOL    HW1  998  13.854   0.136   5.650
66367SOL    HW2  999  13.982   0.155   5.572
66368SOL     OW 1000   4.716   4.857   1.297
66368SOL    HW1 1001   4.781   4.797   1.334
66368SOL    HW2 1002   4.720   4.935   1.352
66369SOL     OW 1003  13.635   7.080  12.527
66369SOL    HW1 1004  13.690   7.144  12.483
66369SOL    HW2 1005  13.635   7.004  12.469
66370SOL     OW 1006   6.147   3.880  13.953
66370SOL    HW1 1007   6.059   3.894  13.988
66370SOL    HW2 1008   6.140   3.799  13.903
66371SOL     OW 1009   1.298  12.251   1.980
66371SOL    HW1 1010   1.291  12.217   1.891
66371SOL    HW2 1011   1.315  12.173   2.034
66372SOL     OW 1012   9.159   2.002  10.185
66372SOL    HW1 1013   9.167   1.998  10.089
66372SOL    HW2 1014   9.163   2.095  10.205
66373SOL     OW 1015  11.649   8.814  14.216
66373SOL    HW1 1016  11.563   8.774  14.202
66373SOL    HW2 1017  11.630   8.896  14.263
66374SOL     OW 1018  14.633   0.239   2.122
66374SOL    HW1 1019  14.607   0.223   2.032
66374SOL    HW2 1020  14.720   0.199   2.130
66375SOL     OW 1021   4.332   3.635   2.559
66375SOL    HW1 1022   4.315   3.550   2.599
66375SOL    HW2 1023   4.327   3.619   2.465
66376SOL     OW 1024   7.832  11.743   7.560
66376SOL    HW1 1025   7.927  11.758   7.570
66376SOL    HW2 1026   7.794  11.782   7.638
66377SOL     OW 1027   8.748   4.924   2.003
66377SOL    HW1 1028   8.696   4.851   2.038
66377SOL    HW2 1029   8.778   4.972   2.081
66378SOL     OW 1030  11.032   5.647   8.000
66378SOL    HW1 1031  11.090   5.646   8.076
66378SOL    HW2 1032  10.946   5.672   8.035
66379SOL     OW 1033   2.582  13.985  13.204
66379SOL    HW1 1034   2.665  14.014  13.243
66379SOL    HW2 1035   2.543  13.929  13.271
66380SOL     OW 1036   0.816  13.114   8.417
66380SOL    HW1 1037   0.909  13.138   8.415
66380SOL    HW2 1038   0.772  13.191   8.451
66381SOL     OW 1039  12.420   4.874  10.616
66381SOL    HW1 1040  12.363   4.950  10.607
66381SOL    HW2 1041  12.406   4.843  10.705
66382SOL     OW 1042  12.571  13.973   3.736
66382SOL    HW1 1043  12.508  13.927   3.792
66382SOL    HW2 1044  12.656  13.937   3.762
66383SOL     OW 1045   1.659  10.734   4.900
66383SOL    HW1 1046   1.587  10.702   4.846
66383SOL    HW2 1047   1.674  10.665   4.965
66384SOL     OW 1048  14.124   4.834   3.208
66384SOL    HW1 1049  14.195   4.780   3.245
66384SOL    HW2 1050  14.161   4.922   3.203
66385SOL     OW 1051   3.667   2.399  14.750
66385SOL    HW1 1052   3.643   2.475  14.697
66385SOL    HW2 1053   3.600   2.333  14.730
66386SOL     OW 1054   9.941   9.884   1.850
66386SOL    HW1 1055   9.999   9.820   1.809
66386SOL    HW2 1056   9.911   9.841   1.931
66387SOL     OW 1057   5.727  12.384   2.680
66387SOL    HW1 1058   5.742  12.403   2.588
66387SOL    HW2 1059   5.651  12.327   2.681
66388SOL     OW 1060  10.480   7.551   5.335
66388SOL    HW1 1061  10.572   7.560   5.359
66388SOL    HW2 1062  10.480   7.547   5.239
66389SOL     OW 1063  14.817  14.030   7.997
66389SOL    HW1 1064  14.764  13.953   7.979
66389SOL    HW2 1065  14.867  14.044   7.917
66390SOL     OW 1066  10.444   8.806   2.131
66390SOL    HW1 1067  10.442   8.714   2.156
66390SOL    HW2 1068  10.365   8.844   2.169
66391SOL     OW 1069  13.573  11.135   7.737
66391SOL    HW1 1070  13.513  11.188   7.686
66391SOL    HW2 1071  13.654  11.186   7.739
66392SOL     OW 1072   4.298   4.809   9.442
66392SOL    HW1 1073   4.324   4.875   9.506
66392SOL    HW2 1074   4.381   4.779   9.403
66393SOL     OW 1075   5.952  14.860   4.334
66393SOL    HW1 1076   5.893   0.057   4.298
66393SOL    HW2 1077   5.898  14.810   4.395
66394SOL     OW 1078  13.399   0.961   7.827
66394SOL    HW1 1079  13.448   0.880   7.818
66394SOL    HW2 1080  13.325   0.939   7.883
66395SOL     OW 1081  14.448   6.120   9.984
66395SOL    HW1 1082  14.413   6.101   9.897
66395SOL    HW2 1083  14.394   6.068  10.044
66396SOL     OW 1084   2.311   9.229  10.416
66396SOL    HW1 1085   2.313   9.325  10.411
66396SOL    HW2 1086   2.313   9.200  10.325
66397SOL     OW 1087   8.183  10.614   8.164
66397SOL    HW1 1088   8.148  10.679   8.225
66397SOL    HW2 1089   8.122  10.614   8.091
66398SOL     OW 1090   1.016   1.499  13.418
66398SOL    HW1 1091   0.992   1.591  13.407
66398SOL    HW2 1092   1.072   1.499  13.496
66399SOL     OW 1093   1.785   4.782  10.214
66399SOL    HW1 1094   1.798   4.783  10.308
66399SOL    HW2 1095   1.859   4.832  10.178
66400SOL     OW 1096   9.870   2.510  14.265
66400SOL    HW1 1097   9.863   2.548  14.353
66400SOL    HW2 1098   9.943   2.448  14.272
66401SOL     OW 1099  11.134  12.684  10.624
66401SOL    HW1 1100  11.175  12.770  10.616
66401SOL    HW2 1101  11.199  12.623  10.589
66402SOL     OW 1102   8.257   4.631   4.415
66402SOL    HW1 1103   8.298   4.717   4.429
66402SOL    HW2 1104   8.200   4.619   4.491
66403SOL     OW 1105   3.847   8.944   2.740
66403SOL    HW1 1106   3.824   9.004   2.670
66403SOL    HW2 1107   3.764   8.905   2.767
66404SOL     OW 1108   5.990   1.939   3.686
66404SOL    HW1 1109   5.973   1.882   3.761
66404SOL    HW2 1110   5.923   1.915   3.622
66405SOL     OW 1111   3.090  12.778  14.607
66405SOL    HW1 1112   2.996  12.762  14.617
66405SOL    HW2 1113   3.124  12.775  14.696
66406SOL     OW 1114   0.450  10.464   8.668
66406SOL    HW1 1115   0.369  10.506   8.696
66406SOL    HW2 1116   0.513  10.483   8.737
66407SOL     OW 1117  11.059   5.552   9.454
66407SOL    HW1 1118  11.033   5.570   9.363
66407SOL    HW2 1119  11.002   5.480   9.481
66408SOL     OW 1120  13.876  11.023   0.551
66408SOL    HW1 1121  13.955  10.972   0.568
66408SOL    HW2 1122  13.851  10.999   0.462
66409SOL     OW 1123  14.792   3.299   6.303
66409SOL    HW1 1124  14.710   3.300   6.253
66409SOL    HW2 1125  14.855   3.255   6.246
66410SOL     OW 1126  11.766   9.844   8.092
66410SOL    HW1 1127  11.679   9.882   8.096
66410SOL    HW2 1128  11.825   9.919   8.095
66411SOL     OW 1129   7.263   5.255   4.919
66411SOL    HW1 1130   7.305   5.169   4.910
66411SOL    HW2 1131   7.323   5.305   4.973
66412SOL     OW 1132   8.067  13.160  14.662
66412SOL    HW1 1133   8.006  13.231  14.684
66412SOL    HW2 1134   8.143  13.175  14.719
66413SOL     OW 1135   6.431   8.845   6.896
66413SOL    HW1 1136   6.409   8.823   6.805
66413SOL    HW2 1137   6.358   8.811   6.947
66414SOL     OW 1138   0.955  14.251   2.503
66414SOL    HW1 1139   1.040  14.272   2.540
66414SOL    HW2 1140   0.963  14.273   2.410
66415SOL     OW 1141  10.424  12.107   9.132
66415SOL    HW1 1142  10.452  12.017   9.147
66415SOL    HW2 1143  10.366  12.102   9.055
66416SOL     OW 1144  14.268  12.841  12.082
66416SOL    HW1 1145  14.206  12.878  12.145
66416SOL    HW2 1146  14.219  12.770  12.040
66417SOL     OW 1147   3.738  13.505  12.633
66417SOL    HW1 1148   3.817  13.513  12.687
66417SOL    HW2 1149   3.670  13.481  12.695
66418SOL     OW 1150  10.266   9.805   2.650
66418SOL    HW1 1151  10.313   9.799   2.733
66418SOL    HW2 1152  10.291   9.725   2.603
66419SOL     OW 1153  12.099   0.375   2.832
66419SOL    HW1 1154  12.111   0.444   2.766
66419SOL    HW2 1155  12.177   0.381   2.888
66420SOL     OW 1156  10.013   8.512   7.448
66420SOL    HW1 1157  10.086   8.524   7.388
66420SOL    HW2 1158  10.024   8.423   7.481
66421SOL     OW 1159  14.379   4.464   6.816
66421SOL    HW1 1160  14.345   4.400   6.754
66421SOL    HW2 1161  14.392   4.415   6.897
66422SOL     OW 1162  13.998   6.465   4.738
66422SOL    HW1 1163  14.015   6.427   4.825
66422SOL    HW2 1164  13.904   6.482   4.738
66423SOL     OW 1165   2.278   4.252  14.768
66423SOL    HW1 1166   2.192   4.291  14.781
66423SOL    HW2 1167   2.263   4.176  14.712
66424SOL     OW 1168   4.828   4.722  12.024
66424SOL    HW1 1169   4.769   4.668  12.076
66424SOL    HW2 1170   4.796   4.714  11.935
66425SOL     OW 1171   7.642   3.311   7.949
66425SOL    HW1 1172   7.685   3.364   8.015
66425SOL    HW2 1173   7.549   3.332   7.958
66426SOL     OW 1174   7.905   0.033   8.731
66426SOL    HW1 1175   7.901   0.023   8.636
66426SOL    HW2 1176   7.917  14.814   8.765
66427SOL     OW 1177   1.613   6.922   1.838
66427SOL    HW1 1178   1.570   6.969   1.766
66427SOL    HW2 1179   1.620   6.987   1.908
66428SOL     OW 1180   7.390   6.883   1.677
66428SOL    HW1 1181   7.360   6.969   1.648
66428SOL    HW2 1182   7.485   6.892   1.684
66429SOL     OW 1183   4.251  11.700  12.418
66429SOL    HW1 1184   4.272  11.782  12.373
66429SOL    HW2 1185   4.246  11.635  12.348
66430SOL     OW 1186  11.415   6.065   6.789
66430SOL    HW1 1187  11.415   5.977   6.825
66430SOL    HW2 1188  11.360   6.059   6.711
66431SOL     OW 1189   0.719   6.800   4.746
66431SOL    HW1 1190   0.787   6.777   4.809
66431SOL    HW2 1191   0.766   6.848   4.677
66432SOL     OW 1192   8.464   6.621  14.527
66432SOL    HW1 1193   8.517   6.595  14.452
66432SOL    HW2 1194   8.484   6.556  14.594
66433SOL     OW 1195  11.824  13.377   9.986
66433SOL    HW1 1196  11.751  13.438   9.973
66433SOL    HW2 1197  11.893  13.411   9.930
66434SOL     OW 1198   7.993  12.501   1.675
66434SOL    HW1 1199   7.991  12.481   1.582
66434SOL    HW2 1200   8.077  12.467   1.706
66435SOL     OW 1201   0.282  13.450   4.168
66435SOL    HW1 1202   0.374  13.475   4.174
66435SOL    HW2 1203   0.239  13.499   4.238
66436SOL     OW 1204   3.164  12.721   4.508
66436SOL    HW1 1205   3.098  12.735   4.441
66436SOL    HW2 1206   3.146  12.632   4.541
66437SOL     OW 1207   2.498  14.503  12.391
66437SOL    HW1 1208   2.553  14.517  12.468
66437SOL    HW2 1209   2.481  14.590  12.357
66438SOL     OW 1210  12.708  12.591   7.979
66438SOL    HW1 1211  12.761  12.518   8.010
66438SOL    HW2 1212  12.702  12.578   7.884
66439SOL     OW 1213   7.223   7.638   8.432
66439SOL    HW1 1214   7.170   7.662   8.356
66439SOL    HW2 1215   7.162   7.642   8.505
66440SOL     OW 1216   5.306   7.796   7.376
66440SOL    HW1 1217   5.338   7.716   7.417
66440SOL    HW2 1218   5.221   7.773   7.340
66441SOL     OW 1219  12.287   5.195  14.375
66441SOL    HW1 1220  12.213   5.184  14.435
66441SOL    HW2 1221  12.363   5.168  14.426
66442SOL     OW 1222  13.337   8.360   4.144
66442SOL    HW1 1223  13.426   8.368   4.110
66442SOL    HW2 1224  13.325   8.267   4.160
66443SOL     OW 1225   3.842  13.341  12.131
66443SOL    HW1 1226   3.766  13.298  12.170
66443SOL    HW2 1227   3.812  13.372  12.045
66444SOL     OW 1228   9.102  10.425   4.290
66444SOL    HW1 1229   9.043  10.485   4.243
66444SOL    HW2 1230   9.183  10.429   4.240
66445SOL     OW 1231  10.505   4.110   7.437
66445SOL    HW1 1232  10.506   4.180   7.372
66445SOL    HW2 1233  10.572   4.048   7.406
66446SOL     OW 1234   7.505   9.279   4.506
66446SOL    HW1 1235   7.558   9.284   4.426
66446SOL    HW2 1236   7.558   9.321   4.573
66447SOL     OW 1237  14.814  14.006  13.242
66447SOL    HW1 1238   0.010  13.999  13.172
66447SOL    HW2 1239  14.822  13.923  13.290
66448SOL     OW 1240  12.206   9.751   4.265
66448SOL    HW1 1241  12.232   9.664   4.235
66448SOL    HW2 1242  12.265   9.770   4.338
66449SOL     OW 1243   1.894   4.155   5.825
66449SOL    HW1 1244   1.880   4.134   5.732
66449SOL    HW2 1245   1.930   4.075   5.862
66450SOL     OW 1246  14.175   8.529  10.711
66450SOL    HW1 1247  14.102   8.519  10.650
66450SOL    HW2 1248  14.250   8.548  10.655
66451SOL     OW 1249   3.889  11.181   1.742
66451SOL    HW1 1250   3.867  11.262   1.788
66451SOL    HW2 1251   3.974  11.200   1.701
66452SOL     OW 1252   1.353  10.166   8.974
66452SOL    HW1 1253   1.322  10.223   9.044
66452SOL    HW2 1254   1.414  10.106   9.017
66453SOL     OW 1255   4.154   0.041   7.107
66453SOL    HW1 1256   4.238   0.069   7.069
66453SOL    HW2 1257   4.155   0.074   7.196
66454SOL     OW 1258   1.642   8.435   1.078
66454SOL    HW1 1259   1.699   8.358   1.083
66454SOL    HW2 1260   1.636   8.466   1.168
66455SOL     OW 1261   0.722  10.795   2.406
66455SOL    HW1 1262   0.759  10.836   2.484
66455SOL    HW2 1263   0.797  10.754   2.363
66456SOL     OW 1264   3.194   0.445   3.422
66456SOL    HW1 1265   3.206   0.479   3.510
66456SOL    HW2 1266   3.244   0.505   3.366
66457SOL     OW 1267  12.719   1.083   3.291
66457SOL    HW1 1268  12.661   1.143   3.243
66457SOL    HW2 1269  12.695   1.095   3.383
66458SOL     OW 1270   9.901   7.936   2.610
66458SOL    HW1 1271   9.934   7.897   2.691
66458SOL    HW2 1272   9.818   7.976   2.634
66459SOL     OW 1273   8.498  12.066  12.802
66459SOL    HW1 1274   8.577  12.114  12.775
66459SOL    HW2 1275   8.445  12.061  12.723
66460SOL     OW 1276   8.973  14.815   8.101
66460SOL    HW1 1277   8.994  14.791   8.010
66460SOL    HW2 1278   8.939  14.735   8.140
66461SOL     OW 1279   5.321   9.403  13.042
66461SOL    HW1 1280   5.384   9.405  13.114
66461SOL    HW2 1281   5.253   9.343  13.073
66462SOL     OW 1282  10.976   5.958  10.257
66462SOL    HW1 1283  11.043   6.018  10.225
66462SOL    HW2 1284  10.947   5.910  10.180
66463SOL     OW 1285   0.831   0.185   7.783
66463SOL    HW1 1286   0.758   0.151   7.834
66463SOL    HW2 1287   0.860   0.263   7.831
66464SOL     OW 1288   8.559   1.638   8.007
66464SOL    HW1 1289   8.513   1.708   8.054
66464SOL    HW2 1290   8.526   1.643   7.918
66465SOL     OW 1291   4.826  10.556   0.643
66465SOL    HW1 1292   4.807  10.556   0.550
66465SOL    HW2 1293   4.862  10.643   0.661
66466SOL     OW 1294  14.245   1.294  14.076
66466SOL    HW1 1295  14.272   1.337  13.995
66466SOL    HW2 1296  14.195   1.218  14.046
66467SOL     OW 1297   7.796   6.994   6.868
66467SOL    HW1 1298   7.727   6.963   6.927
66467SOL    HW2 1299   7.873   6.944   6.893
66468SOL     OW 1300   8.036   5.411   3.017
66468SOL    HW1 1301   8.109   5.466   3.049
66468SOL    HW2 1302   7.984   5.393   3.095
66469SOL     OW 1303   8.755   2.998   8.799
66469SOL    HW1 1304   8.679   3.013   8.856
66469SOL    HW2 1305   8.815   2.947   8.852
66470SOL     OW 1306   6.778   6.169   7.706
66470SOL    HW1 1307   6.722   6.231   7.659
66470SOL    HW2 1308   6.717   6.113   7.754
66471SOL     OW 1309   5.136  14.092   1.887
66471SOL    HW1 1310   5.092  14.088   1.802
66471SOL    HW2 1311   5.168  14.182   1.893
66472SOL     OW 1312   7.685   2.189   0.278
66472SOL    HW1 1313   7.773   2.174   0.244
66472SOL    HW2 1314   7.651   2.262   0.226
66473SOL     OW 1315   2.978  14.487  10.764
66473SOL    HW1 1316   2.999  14.488  10.857
66473SOL    HW2 1317   3.000  14.399  10.734
66474SOL     OW 1318  13.482   6.878   1.007
66474SOL    HW1 1319  13.411   6.822   1.038
66474SOL    HW2 1320  13.505   6.932   1.082
66475SOL     OW 1321   5.586  12.808   2.638
66475SOL    HW1 1322   5.501  12.799   2.681
66475SOL    HW2 1323   5.646  12.832   2.709
66476SOL     OW 1324   4.301   3.292   1.439
66476SOL    HW1 1325   4.292   3.353   1.366
66476SOL    HW2 1326   4.379   3.322   1.486
66477SOL     OW 1327   2.301  13.171   2.958
66477SOL    HW1 1328   2.348  13.087   2.956
66477SOL    HW2 1329   2.369  13.236   2.978
66478SOL     OW 1330   4.198   7.273   6.138
66478SOL    HW1 1331   4.115   7.270   6.089
66478SOL    HW2 1332   4.265   7.281   6.071
66479SOL     OW 1333  11.951  13.984   8.022
66479SOL    HW1 1334  12.004  14.030   7.957
66479SOL    HW2 1335  11.928  13.901   7.980
66480SOL     OW 1336  14.328  10.044   8.233
66480SOL    HW1 1337  14.290   9.956   8.235
66480SOL    HW2 1338  14.322  10.075   8.323
66481SOL     OW 1339   4.233  12.906  12.053
66481SOL    HW1 1340   4.294  12.852  12.103
66481SOL    HW2 1341   4.276  12.991  12.046
66482SOL     OW 1342   7.914   4.464   6.832
66482SOL    HW1 1343   8.007   4.445   6.842
66482SOL    HW2 1344   7.911   4.557   6.813
66483SOL     OW 1345   0.305  14.615   5.251
66483SOL    HW1 1346   0.344  14.557   5.186
66483SOL    HW2 1347   0.294  14.560   5.329
66484SOL     OW 1348   5.959   0.159   3.673
66484SOL    HW1 1349   5.956   0.122   3.761
66484SOL    HW2 1350   6.052   0.166   3.652
66485SOL     OW 1351  13.289   5.825   7.268
66485SOL    HW1 1352  13.201   5.830   7.229
66485SOL    HW2 1353  13.325   5.913   7.257
66486SOL     OW 1354   3.559   3.106   2.154
66486SOL    HW1 1355   3.474   3.094   2.112
66486SOL    HW2 1356   3.552   3.059   2.237
66487SOL     OW 1357   3.036   9.633  12.516
66487SOL    HW1 1358   3.100   9.702  12.532
66487SOL    HW2 1359   3.046   9.611  12.423
66488SOL     OW 1360  11.194   4.852  12.075
66488SOL    HW1 1361  11.224   4.927  12.126
66488SOL    HW2 1362  11.100   4.868  12.062
66489SOL     OW 1363   9.966   9.438   4.897
66489SOL    HW1 1364   9.925   9.358   4.865
66489SOL    HW2 1365  10.026   9.409   4.966
66490SOL     OW 1366   4.266  10.010   1.396
66490SOL    HW1 1367   4.285  10.060   1.316
66490SOL    HW2 1368   4.335   9.944   1.400
66491SOL     OW 1369   1.720  13.567   1.438
66491SOL    HW1 1370   1.813  13.558   1.459
66491SOL    HW2 1371   1.689  13.478   1.428
66492SOL     OW 1372   4.194   8.832   4.215
66492SOL    HW1 1373   4.163   8.902   4.157
66492SOL    HW2 1374   4.278   8.806   4.178
66493SOL     OW 1375   7.033  13.821   9.389
66493SOL    HW1 1376   6.989  13.784   9.313
66493SOL    HW2 1377   7.123  13.789   9.383
66494SOL     OW 1378  12.889   3.925   4.868
66494SOL    HW1 1379  12.977   3.893   4.888
66494SOL    HW2 1380  12.848   3.854   4.820
66495SOL     OW 1381  12.796   2.340   4.309
66495SOL    HW1 1382  12.713   2.386   4.293
66495SOL    HW2 1383  12.788   2.307   4.399
66496SOL     OW 1384   7.519  11.047   4.835
66496SOL    HW1 1385   7.611  11.072   4.839
66496SOL    HW2 1386   7.471  11.128   4.850
66497SOL     OW 1387  10.906  13.508   6.417
66497SOL    HW1 1388  10.936  13.598   6.406
66497SOL    HW2 1389  10.962  13.473   6.487
66498SOL     OW 1390   0.772   3.866   9.570
66498SOL    HW1 1391   0.851   3.848   9.622
66498SOL    HW2 1392   0.701   3.871   9.635
66499SOL     OW 1393  12.465  11.294  13.149
66499SOL    HW1 1394  12.466  11.275  13.243
66499SOL    HW2 1395  12.552  11.270  13.119
66500SOL     OW 1396   2.658   8.780   0.985
66500SOL    HW1 1397   2.727   8.845   0.999
66500SOL    HW2 1398   2.705   8.702   0.956
66501SOL     OW 1399  14.045   6.970  11.507
66501SOL    HW1 1400  14.062   6.878  11.490
66501SOL    HW2 1401  14.028   7.008  11.421
66502SOL     OW 1402  11.415  10.097  11.238
66502SOL    HW1 1403  11.440  10.010  11.206
66502SOL    HW2 1404  11.378  10.141  11.161
66503SOL     OW 1405   0.369   6.396  14.329
66503SOL    HW1 1406   0.353   6.342  14.251
66503SOL    HW2 1407   0.328   6.347  14.401
66504SOL     OW 1408  12.805   4.861  10.354
66504SOL    HW1 1409  12.829   4.943  10.396
66504SOL    HW2 1410  12.738   4.823  10.411
66505SOL     OW 1411   9.372   9.070  11.000
66505SOL    HW1 1412   9.363   9.148  10.945
66505SOL    HW2 1413   9.422   9.099  11.076
66506SOL     OW 1414   0.091   1.570   4.460
66506SOL    HW1 1415   0.181   1.589   4.433
66506SOL    HW2 1416   0.037   1.627   4.406
66507SOL     OW 1417   0.167   2.463  10.687
66507SOL    HW1 1418   0.213   2.380  10.700
66507SOL    HW2 1419   0.222   2.528  10.731
66508SOL     OW 1420   5.608   0.125   2.033
66508SOL    HW1 1421   5.575   0.154   2.118
66508SOL    HW2 1422   5.572   0.037   2.021
66509SOL     OW 1423   8.378  13.881   0.221
66509SOL    HW1 1424   8.430  13.959   0.201
66509SOL    HW2 1425   8.292  13.915   0.246
66510SOL     OW 1426   3.891   1.450   2.741
66510SOL    HW1 1427   3.907   1.411   2.827
66510SOL    HW2 1428   3.869   1.375   2.685
66511SOL     OW 1429   9.469  12.099  13.640
66511SOL    HW1 1430   9.477  12.076  13.732
66511SOL    HW2 1431   9.559  12.118  13.612
66512SOL     OW 1432   3.486  12.955   9.560
66512SOL    HW1 1433   3.511  12.904   9.637
66512SOL    HW2 1434   3.414  12.906   9.520
66513SOL     OW 1435   6.141   7.390  14.494
66513SOL    HW1 1436   6.202   7.344  14.436
66513SOL    HW2 1437   6.102   7.321  14.548
66514SOL     OW 1438  10.473  14.543   0.725
66514SOL    HW1 1439  10.446  14.516   0.637
66514SOL    HW2 1440  10.396  14.587   0.760
66515SOL     OW 1441   5.287   0.765   7.755
66515SOL    HW1 1442   5.352   0.810   7.700
66515SOL    HW2 1443   5.339   0.718   7.820
66516SOL     OW 1444  14.347   2.464   0.771
66516SOL    HW1 1445  14.268   2.410   0.776
66516SOL    HW2 1446  14.418   2.402   0.754
66517SOL     OW 1447   0.522  12.237   9.918
66517SOL    HW1 1448   0.565  12.293   9.983
66517SOL    HW2 1449   0.444  12.287   9.892
66518SOL     OW 1450   9.327   1.964  10.395
66518SOL    HW1 1451   9.263   1.974  10.324
66518SOL    HW2 1452   9.303   1.882  10.437
66519SOL     OW 1453   5.869   2.354   6.311
66519SOL    HW1 1454   5.913   2.269   6.317
66519SOL    HW2 1455   5.787   2.342   6.359
66520SOL     OW 1456   8.453  14.410   7.748
66520SOL    HW1 1457   8.529  14.365   7.784
66520SOL    HW2 1458   8.482  14.499   7.732
66521SOL     OW 1459   7.220   6.509  10.236
66521SOL    HW1 1460   7.164   6.558  10.297
66521SOL    HW2 1461   7.272   6.576  10.192
66522SOL     OW 1462  14.769   7.116   4.316
66522SOL    HW1 1463  14.799   7.025   4.314
66522SOL    HW2 1464  14.674   7.110   4.326
66523SOL     OW 1465   5.515  12.664  11.982
66523SOL    HW1 1466   5.602  12.674  11.944
66523SOL    HW2 1467   5.460  12.637  11.909
66524SOL     OW 1468   5.086  10.617   6.303
66524SOL    HW1 1469   5.129  10.637   6.221
66524SOL    HW2 1470   5.044  10.699   6.330
66525SOL     OW 1471  12.529   9.035   3.040
66525SOL    HW1 1472  12.619   9.053   3.065
66525SOL    HW2 1473  12.500   8.967   3.101
66526SOL     OW 1474   6.893   1.101  14.538
66526SOL    HW1 1475   6.869   1.130  14.450
66526SOL    HW2 1476   6.852   1.164  14.597
66527SOL     OW 1477   6.769  13.203   7.543
66527SOL    HW1 1478   6.741  13.279   7.492
66527SOL    HW2 1479   6.743  13.127   7.492
66528SOL     OW 1480  14.258  12.443   7.426
66528SOL    HW1 1481  14.334  12.501   7.426
66528SOL    HW2 1482  14.195  12.485   7.368
66529SOL     OW 1483   9.673   3.686  10.200
66529SOL    HW1 1484   9.755   3.645  10.231
66529SOL    HW2 1485   9.692   3.713  10.110
66530SOL     OW 1486   5.424  14.645   3.906
66530SOL    HW1 1487   5.514  14.646   3.936
66530SOL    HW2 1488   5.418  14.566   3.851
66531SOL     OW 1489  13.535   7.270   6.622
66531SOL    HW1 1490  13.534   7.219   6.703
66531SOL    HW2 1491  13.595   7.224   6.564
66532SOL     OW 1492  11.525   1.482   9.969
66532SOL    HW1 1493  11.498   1.427  10.042
66532SOL    HW2 1494  11.466   1.558   9.973
66533SOL     OW 1495  11.025   6.876  11.400
66533SOL    HW1 1496  11.085   6.810  11.435
66533SOL    HW2 1497  10.942   6.828  11.388
66534SOL     OW 1498   3.999   3.632   3.639
66534SOL    HW1 1499   3.925   3.652   3.696
66534SOL    HW2 1500   4.065   3.594   3.698
66535SOL     OW 1501  12.675  11.523   8.000
66535SOL    HW1 1502  12.646  11.511   8.090
66535SOL    HW2 1503  12.685  11.434   7.966
66536SOL     OW 1504   0.091  12.030   9.926
66536SOL    HW1 1505   0.110  12.113   9.971
66536SOL    HW2 1506   0.159  11.970   9.957
66537SOL     OW 1507   9.508   0.935   4.775
66537SOL    HW1 1508   9.499   0.840   4.774
66537SOL    HW2 1509   9.471   0.964   4.692
66538SOL     OW 1510   2.506   2.167   0.883
66538SOL    HW1 1511   2.463   2.152   0.967
66538SOL    HW2 1512   2.456   2.114   0.821
66539SOL     OW 1513   1.756   0.057   6.540
66539SOL    HW1 1514   1.821   0.123   6.515
66539SOL    HW2 1515   1.796   0.011   6.613
66540SOL     OW 1516   9.708  13.477   8.143
66540SOL    HW1 1517   9.788  13.427   8.162
66540SOL    HW2 1518   9.637  13.416   8.161
66541SOL     OW 1519   2.490   0.589  12.205
66541SOL    HW1 1520   2.582   0.612  12.217
66541SOL    HW2 1521   2.459   0.647  12.136
66542SOL     OW 1522   2.555   1.307   3.648
66542SOL    HW1 1523   2.602   1.275   3.571
66542SOL    HW2 1524   2.472   1.339   3.612
66543SOL     OW 1525   8.954  11.228   1.648
66543SOL    HW1 1526   8.966  11.157   1.711
66543SOL    HW2 1527   9.042  11.266   1.638
66544SOL     OW 1528   7.197   2.669   5.478
66544SOL    HW1 1529   7.273   2.727   5.473
66544SOL    HW2 1530   7.123   2.726   5.459
66545SOL     OW 1531  11.426   4.264  12.277
66545SOL    HW1 1532  11.445   4.353  12.308
66545SOL    HW2 1533  11.506   4.237  12.232
66546SOL     OW 1534  10.708  14.421   0.268
66546SOL    HW1 1535  10.749  14.436   0.353
66546SOL    HW2 1536  10.778  14.383   0.214
66547SOL     OW 1537   4.577  12.172   7.362
66547SOL    HW1 1538   4.599  12.260   7.333
66547SOL    HW2 1539   4.541  12.129   7.285
66548SOL     OW 1540  13.762   0.091   8.780
66548SOL    HW1 1541  13.814   0.024   8.824
66548SOL    HW2 1542  13.767   0.167   8.838
66549SOL     OW 1543   9.021   8.084  13.027
66549SOL    HW1 1544   8.973   8.123  13.100
66549SOL    HW2 1545   9.011   8.147  12.955
66550SOL     OW 1546  13.510   7.868   7.076
66550SOL    HW1 1547  13.428   7.916   7.086
66550SOL    HW2 1548  13.538   7.849   7.166
66551SOL     OW 1549   3.176   1.966   0.596
66551SOL    HW1 1550   3.151   1.993   0.685
66551SOL    HW2 1551   3.121   2.020   0.539
66552SOL     OW 1552   8.713   9.341   6.308
66552SOL    HW1 1553   8.620   9.336   6.331
66552SOL    HW2 1554   8.758   9.342   6.393
66553SOL     OW 1555  13.999  11.852  14.235
66553SOL    HW1 1556  13.998  11.855  14.331
66553SOL    HW2 1557  14.018  11.760  14.215
66554SOL     OW 1558   9.299  12.835   5.569
66554SOL    HW1 1559   9.361  12.814   5.639
66554SOL    HW2 1560   9.223  12.872   5.614
66555SOL     OW 1561  11.311   5.790  11.179
66555SOL    HW1 1562  11.358   5.776  11.261
66555SOL    HW2 1563  11.364   5.854  11.132
66556SOL     OW 1564   2.321   8.351   6.977
66556SOL    HW1 1565   2.416   8.352   6.963
66556SOL    HW2 1566   2.289   8.426   6.928
66557SOL     OW 1567   5.430   8.369  14.667
66557SOL    HW1 1568   5.480   8.381  14.586
66557SOL    HW2 1569   5.455   8.444  14.722
66558SOL     OW 1570   0.637  14.817  10.400
66558SOL    HW1 1571   0.674  14.751  10.459
66558SOL    HW2 1572   0.543  14.815  10.419
66559SOL     OW 1573  10.457  12.089   0.832
66559SOL    HW1 1574  10.519  12.139   0.778
66559SOL    HW2 1575  10.415  12.154   0.888
66560SOL     OW 1576  11.181   9.587  13.742
66560SOL    HW1 1577  11.207   9.579  13.834
66560SOL    HW2 1578  11.232   9.661  13.709
66561SOL     OW 1579  10.805   6.467   1.035
66561SOL    HW1 1580  10.794   6.450   1.129
66561SOL    HW2 1581  10.765   6.553   1.021
66562SOL     OW 1582   3.218   1.309   0.784
66562SOL    HW1 1583   3.125   1.328   0.768
66562SOL    HW2 1584   3.222   1.214   0.788
66563SOL     OW 1585   5.314  11.688   2.455
66563SOL    HW1 1586   5.300  11.761   2.395
66563SOL    HW2 1587   5.399  11.707   2.496
66564SOL     OW 1588  13.984   3.002   7.148
66564SOL    HW1 1589  14.008   2.938   7.215
66564SOL    HW2 1590  13.892   3.020   7.164
66565SOL     OW 1591   8.284   0.314   1.795
66565SOL    HW1 1592   8.325   0.246   1.848
66565SOL    HW2 1593   8.326   0.307   1.710
66566SOL     OW 1594   9.942   6.628   0.563
66566SOL    HW1 1595   9.955   6.535   0.582
66566SOL    HW2 1596   9.946   6.671   0.649
66567SOL     OW 1597   1.570   9.545   8.700
66567SOL    HW1 1598   1.663   9.551   8.724
66567SOL    HW2 1599   1.527   9.512   8.779
66568SOL     OW 1600   9.068  13.942   0.570
66568SOL    HW1 1601   9.035  13.972   0.655
66568SOL    HW2 1602   9.123  13.867   0.591
66569SOL     OW 1603  11.667  14.458   5.423
66569SOL    HW1 1604  11.607  14.515   5.472
66569SOL    HW2 1605  11.725  14.518   5.377
66570SOL     OW 1606   8.926   1.448  14.057
66570SOL    HW1 1607   8.869   1.509  14.012
66570SOL    HW2 1608   9.000   1.501  14.086
66571SOL     OW 1609   4.664   5.506  10.313
66571SOL    HW1 1610   4.658   5.412  10.331
66571SOL    HW2 1611   4.604   5.547  10.375
66572SOL     OW 1612  13.238   4.424   8.495
66572SOL    HW1 1613  13.297   4.372   8.441
66572SOL    HW2 1614  13.294   4.492   8.534
66573SOL     OW 1615   4.868  12.836   8.748
66573SOL    HW1 1616   4.842  12.896   8.818
66573SOL    HW2 1617   4.963  12.839   8.747
66574SOL     OW 1618   2.775   6.833   4.345
66574SOL    HW1 1619   2.722   6.877   4.279
66574SOL    HW2 1620   2.799   6.903   4.406
66575SOL     OW 1621  12.953   8.336  10.830
66575SOL    HW1 1622  12.860   8.311  10.827
66575SOL    HW2 1623  12.956   8.409  10.892
66576SOL     OW 1624   3.029   6.457  12.992
66576SOL    HW1 1625   3.109   6.471  12.941
66576SOL    HW2 1626   2.992   6.544  13.004
66577SOL     OW 1627   7.010  14.455   6.194
66577SOL    HW1 1628   7.081  14.474   6.134
66577SOL    HW2 1629   6.995  14.537   6.241
66578SOL     OW 1630  14.298   7.539   0.316
66578SOL    HW1 1631  14.248   7.577   0.389
66578SOL    HW2 1632  14.377   7.504   0.357
66579SOL     OW 1633   6.903   0.720   3.481
66579SOL    HW1 1634   6.914   0.737   3.387
66579SOL    HW2 1635   6.984   0.676   3.506
66580SOL     OW 1636   1.133   0.596   6.281
66580SOL    HW1 1637   1.177   0.600   6.196
66580SOL    HW2 1638   1.198   0.558   6.340
66581SOL     OW 1639  14.409  12.015  13.546
66581SOL    HW1 1640  14.392  12.089  13.603
66581SOL    HW2 1641  14.333  12.010  13.488
66582SOL     OW 1642   9.438   8.607   5.190
66582SOL    HW1 1643   9.361   8.629   5.243
66582SOL    HW2 1644   9.412   8.626   5.100
66583SOL     OW 1645   9.316   7.218  14.460
66583SOL    HW1 1646   9.381   7.270  14.506
66583SOL    HW2 1647   9.366   7.148  14.418
66584SOL     OW 1648   3.848   3.921   1.926
66584SOL    HW1 1649   3.779   3.860   1.903
66584SOL    HW2 1650   3.927   3.886   1.884
66585SOL     OW 1651   5.888   7.306  14.358
66585SOL    HW1 1652   5.948   7.335  14.290
66585SOL    HW2 1653   5.878   7.382  14.416
66586SOL     OW 1654   7.624   6.764  11.329
66586SOL    HW1 1655   7.665   6.689  11.287
66586SOL    HW2 1656   7.530   6.752  11.312
66587SOL     OW 1657   7.741  13.990   8.809
66587SOL    HW1 1658   7.760  13.915   8.865
66587SOL    HW2 1659   7.736  14.064   8.870
66588SOL     OW 1660   9.730   0.219  13.893
66588SOL    HW1 1661   9.790   0.275  13.944
66588SOL    HW2 1662   9.678   0.281  13.842
66589SOL     OW 1663   5.777   7.617   2.775
66589SOL    HW1 1664   5.689   7.620   2.739
66589SOL    HW2 1665   5.808   7.707   2.771
66590SOL     OW 1666   0.076   4.094  13.445
66590SOL    HW1 1667   0.026   4.071  13.368
66590SOL    HW2 1668   0.100   4.010  13.484
66591SOL     OW 1669   8.923  13.783  14.127
66591SOL    HW1 1670   8.913  13.778  14.222
66591SOL    HW2 1671   9.010  13.819  14.114
66592SOL     OW 1672  12.292  11.663   0.991
66592SOL    HW1 1673  12.336  11.731   1.042
66592SOL    HW2 1674  12.362  11.606   0.960
66593SOL     OW 1675   0.525   3.719   8.174
66593SOL    HW1 1676   0.570   3.713   8.258
66593SOL    HW2 1677   0.594   3.705   8.109
66594SOL     OW 1678   5.347   5.547   2.102
66594SOL    HW1 1679   5.383   5.586   2.183
66594SOL    HW2 1680   5.349   5.618   2.038
66595SOL     OW 1681   4.504   8.012  13.218
66595SOL    HW1 1682   4.431   8.045  13.271
66595SOL    HW2 1683   4.571   7.987  13.281
66596SOL     OW 1684   0.961   5.257   3.551
66596SOL    HW1 1685   0.915   5.177   3.575
66596SOL    HW2 1686   1.027   5.267   3.619
66597SOL     OW 1687  14.797   4.633  14.249
66597SOL    HW1 1688  14.837   4.663  14.167
66597SOL    HW2 1689  14.793   4.711  14.304
66598SOL     OW 1690  11.211  13.017  11.253
66598SOL    HW1 1691  11.159  12.967  11.191
66598SOL    HW2 1692  11.148  13.048  11.318
66599SOL     OW 1693   2.033  14.858   2.517
66599SOL    HW1 1694   1.953  14.868   2.569
66599SOL    HW2 1695   2.068   0.077   2.508
66600SOL     OW 1696  11.359  14.785  13.225
66600SOL    HW1 1697  11.305  14.858  13.193
66600SOL    HW2 1698  11.298  14.712  13.231
66601SOL     OW 1699  14.727   1.803  14.070
66601SOL    HW1 1700  14.794   1.741  14.040
66601SOL    HW2 1701  14.645   1.754  14.068
66602SOL     OW 1702   7.271   5.692   8.357
66602SOL    HW1 1703   7.301   5.715   8.269
66602SOL    HW2 1704   7.177   5.675   8.347
66603SOL     OW 1705   4.496  14.084   4.960
66603SOL    HW1 1706   4.566  14.046   4.906
66603SOL    HW2 1707   4.450  14.144   4.900
66604SOL     OW 1708   5.867   9.904   9.363
66604SOL    HW1 1709   5.934   9.963   9.328
66604SOL    HW2 1710   5.784   9.939   9.331
66605SOL     OW 1711   5.318  11.067   3.267
66605SOL    HW1 1712   5.224  11.082   3.276
66605SOL    HW2 1713   5.328  11.022   3.183
66606SOL     OW 1714  12.999  12.041   9.739
66606SOL    HW1 1715  12.913  12.001   9.733
66606SOL    HW2 1716  13.039  12.026   9.653
66607SOL     OW 1717  13.067  10.789   2.089
66607SOL    HW1 1718  13.004  10.793   2.017
66607SOL    HW2 1719  13.024  10.833   2.162
66608SOL     OW 1720   0.733   2.927   3.842
66608SOL    HW1 1721   0.811   2.880   3.872
66608SOL    HW2 1722   0.766   2.987   3.775
66609SOL     OW 1723   3.258   1.337  11.951
66609SOL    HW1 1724   3.174   1.378  11.971
66609SOL    HW2 1725   3.300   1.327  12.036
66610SOL     OW 1726  10.877   7.424  10.858
66610SOL    HW1 1727  10.824   7.443  10.780
66610SOL    HW2 1728  10.891   7.510  10.899
66611SOL     OW 1729   6.267   4.735   3.164
66611SOL    HW1 1730   6.256   4.790   3.086
66611SOL    HW2 1731   6.310   4.791   3.228
66612SOL     OW 1732   2.840   3.265   0.080
66612SOL    HW1 1733   2.746   3.275   0.067
66612SOL    HW2 1734   2.855   3.170   0.075
66613SOL     OW 1735  13.374  14.731  13.815
66613SOL    HW1 1736  13.383  14.664  13.882
66613SOL    HW2 1737  13.281  14.752  13.814
66614SOL     OW 1738   5.809  13.016   6.319
66614SOL    HW1 1739   5.726  13.063   6.329
66614SOL    HW2 1740   5.783  12.925   6.303
66615SOL     OW 1741   0.662   9.149   6.861
66615SOL    HW1 1742   0.687   9.079   6.921
66615SOL    HW2 1743   0.597   9.108   6.803
66616SOL     OW 1744  10.392   1.912   6.534
66616SOL    HW1 1745  10.303   1.880   6.520
66616SOL    HW2 1746  10.381   1.998   6.575
66617SOL     OW 1747  13.309  10.910   9.018
66617SOL    HW1 1748  13.388  10.916   9.071
66617SOL    HW2 1749  13.331  10.851   8.947
66618SOL     OW 1750   3.513  13.147  10.577
66618SOL    HW1 1751   3.576  13.177  10.510
66618SOL    HW2 1752   3.498  13.055  10.557
66619SOL     OW 1753  10.324   8.924   3.913
66619SOL    HW1 1754  10.397   8.874   3.877
66619SOL    HW2 1755  10.365   8.999   3.957
66620SOL     OW 1756   3.983   8.991   9.058
66620SOL    HW1 1757   4.026   8.948   9.131
66620SOL    HW2 1758   4.027   9.076   9.050
66621SOL     OW 1759   1.612   8.599   4.176
66621SOL    HW1 1760   1.641   8.687   4.203
66621SOL    HW2 1761   1.692   8.555   4.147
66622SOL     OW 1762   8.635   4.368   4.515
66622SOL    HW1 1763   8.664   4.459   4.509
66622SOL    HW2 1764   8.540   4.372   4.511
66623SOL     OW 1765   3.806   7.283  10.516
66623SOL    HW1 1766   3.727   7.308  10.467
66623SOL    HW2 1767   3.873   7.345  10.487
66624SOL     OW 1768   7.668   4.927   8.017
66624SOL    HW1 1769   7.715   4.906   7.936
66624SOL    HW2 1770   7.579   4.945   7.990
66625SOL     OW 1771   3.386   3.647  13.049
66625SOL    HW1 1772   3.389   3.569  13.104
66625SOL    HW2 1773   3.315   3.630  12.986
66626SOL     OW 1774   2.406   6.831   5.170
66626SOL    HW1 1775   2.454   6.891   5.113
66626SOL    HW2 1776   2.472   6.798   5.231
66627SOL     OW 1777   2.019   6.325  14.258
66627SOL    HW1 1778   2.081   6.299  14.325
66627SOL    HW2 1779   2.073   6.346  14.182
66628SOL     OW 1780   1.247   9.572   1.119
66628SOL    HW1 1781   1.328   9.558   1.167
66628SOL    HW2 1782   1.255   9.515   1.042
66629SOL     OW 1783  12.733  12.527  14.271
66629SOL    HW1 1784  12.795  12.555  14.203
66629SOL    HW2 1785  12.648  12.532  14.229
66630SOL     OW 1786  13.496   5.128   2.584
66630SOL    HW1 1787  13.414   5.176   2.597
66630SOL    HW2 1788  13.501   5.068   2.658
66631SOL     OW 1789   9.179   0.330   2.902
66631SOL    HW1 1790   9.220   0.283   2.975
66631SOL    HW2 1791   9.111   0.383   2.943
66632SOL     OW 1792   7.062   7.615   8.670
66632SOL    HW1 1793   7.053   7.598   8.763
66632SOL    HW2 1794   6.996   7.683   8.652
66633SOL     OW 1795   5.473  10.387  10.533
66633SOL    HW1 1796   5.514  10.366  10.449
66633SOL    HW2 1797   5.546  10.413  10.589
66634SOL     OW 1798   4.397  13.786  10.009
66634SOL    HW1 1799   4.311  13.783   9.967
66634SOL    HW2 1800   4.454  13.826   9.943
66635SOL     OW 1801   4.113  13.844  12.701
66635SOL    HW1 1802   4.163  13.771  12.737
66635SOL    HW2 1803   4.126  13.838  12.606
66636SOL     OW 1804   4.161   6.355   5.959
66636SOL    HW1 1805   4.178   6.446   5.934
66636SOL    HW2 1806   4.248   6.318   5.975
66637SOL     OW 1807  11.554  12.272   1.850
66637SOL    HW1 1808  11.481  12.240   1.796
66637SOL    HW2 1809  11.573  12.359   1.816
66638SOL     OW 1810   3.523  12.892  13.557
66638SOL    HW1 1811   3.606  12.882  13.510
66638SOL    HW2 1812   3.500  12.803  13.583
66639SOL     OW 1813   3.305   8.897   9.368
66639SOL    HW1 1814   3.400   8.886   9.357
66639SOL    HW2 1815   3.292   8.898   9.462
66640SOL     OW 1816  14.816   8.637  11.868
66640SOL    HW1 1817  14.784   8.621  11.779
66640SOL    HW2 1818  14.784   8.563  11.919
66641SOL     OW 1819   0.872   3.130   3.688
66641SOL    HW1 1820   0.938   3.112   3.620
66641SOL    HW2 1821   0.791   3.143   3.639
66642SOL     OW 1822  13.931   0.599   6.370
66642SOL    HW1 1823  14.001   0.545   6.408
66642SOL    HW2 1824  13.855   0.541   6.369
66643SOL     OW 1825  13.695   3.969  13.636
66643SOL    HW1 1826  13.631   3.933  13.698
66643SOL    HW2 1827  13.687   4.064  13.646
66644SOL     OW 1828   7.616   5.033   9.999
66644SOL    HW1 1829   7.530   4.998   9.977
66644SOL    HW2 1830   7.623   5.022  10.094
66645SOL     OW 1831   8.436  12.122  12.339
66645SOL    HW1 1832   8.425  12.098  12.247
66645SOL    HW2 1833   8.439  12.218  12.339
66646SOL     OW 1834  10.936   6.700   9.806
66646SOL    HW1 1835  11.007   6.656   9.759
66646SOL    HW2 1836  10.883   6.740   9.738
66647SOL     OW 1837   2.699   0.948   9.586
66647SOL    HW1 1838   2.710   0.979   9.496
66647SOL    HW2 1839   2.777   0.895   9.603
66648SOL     OW 1840  12.077   9.782   4.806
66648SOL    HW1 1841  12.161   9.818   4.777
66648SOL    HW2 1842  12.020   9.791   4.729
66649SOL     OW 1843  13.711  11.095   1.422
66649SOL    HW1 1844  13.772  11.026   1.394
66649SOL    HW2 1845  13.721  11.099   1.517
66650SOL     OW 1846   5.082  11.845  12.451
66650SOL    HW1 1847   5.065  11.894  12.371
66650SOL    HW2 1848   5.174  11.820  12.445
66651SOL     OW 1849  14.630   5.944  13.012
66651SOL    HW1 1850  14.720   5.954  13.041
66651SOL    HW2 1851  14.596   6.033  13.007
66652SOL     OW 1852  13.060   6.426  10.024
66652SOL    HW1 1853  13.054   6.521  10.034
66652SOL    HW2 1854  13.141   6.403  10.071
66653SOL     OW 1855   9.919  14.066   5.456
66653SOL    HW1 1856   9.856  14.129   5.492
66653SOL    HW2 1857  10.004  14.096   5.488
66654SOL     OW 1858   9.476   5.447   5.829
66654SOL    HW1 1859   9.563   5.446   5.868
66654SOL    HW2 1860   9.485   5.394   5.750
66655SOL     OW 1861  11.614   0.897  11.287
66655SOL    HW1 1862  11.614   0.975  11.233
66655SOL    HW2 1863  11.707   0.872  11.293
66656SOL     OW 1864   7.251   7.555   2.391
66656SOL    HW1 1865   7.334   7.553   2.438
66656SOL    HW2 1866   7.189   7.591   2.455
66657SOL     OW 1867   3.863   4.802   6.957
66657SOL    HW1 1868   3.911   4.803   7.040
66657SOL    HW2 1869   3.836   4.712   6.946
66658SOL     OW 1870  13.099   0.514   8.068
66658SOL    HW1 1871  13.130   0.543   7.982
66658SOL    HW2 1872  13.172   0.534   8.127
66659SOL     OW 1873   5.173  13.374  11.028
66659SOL    HW1 1874   5.125  13.330  10.958
66659SOL    HW2 1875   5.105  13.408  11.086
66660SOL     OW 1876  13.538   1.909   8.444
66660SOL    HW1 1877  13.526   1.895   8.538
66660SOL    HW2 1878  13.578   1.996   8.438
66661SOL     OW 1879   3.337   8.536  13.997
66661SOL    HW1 1880   3.243   8.559  13.995
66661SOL    HW2 1881   3.357   8.527  14.090
66662SOL     OW 1882   7.661   2.047   5.367
66662SOL    HW1 1883   7.599   2.066   5.438
66662SOL    HW2 1884   7.632   1.963   5.332
66663SOL     OW 1885  10.058  11.454   4.820
66663SOL    HW1 1886  10.094  11.441   4.908
66663SOL    HW2 1887  10.114  11.401   4.764
66664SOL     OW 1888   1.616   4.132   6.449
66664SOL    HW1 1889   1.604   4.117   6.355
66664SOL    HW2 1890   1.527   4.134   6.485
66665SOL     OW 1891   7.415   8.424   4.702
66665SOL    HW1 1892   7.469   8.501   4.685
66665SOL    HW2 1893   7.474   8.349   4.690
66666SOL     OW 1894  11.085   3.940  12.932
66666SOL    HW1 1895  11.067   3.879  13.004
66666SOL    HW2 1896  11.181   3.945  12.929
66667SOL     OW 1897   5.176   1.655   1.031
66667SOL    HW1 1898   5.181   1.632   1.124
66667SOL    HW2 1899   5.154   1.749   1.030
66668SOL     OW 1900  10.140   8.619  14.523
66668SOL    HW1 1901  10.093   8.561  14.462
66668SOL    HW2 1902  10.228   8.582  14.529
66669SOL     OW 1903   5.739   9.910  14.427
66669SOL    HW1 1904   5.697   9.827  14.453
66669SOL    HW2 1905   5.819   9.883  14.383
66670SOL     OW 1906  12.604   1.349   9.004
66670SOL    HW1 1907  12.541   1.361   9.074
66670SOL    HW2 1908  12.557   1.374   8.924
66671SOL     OW 1909   0.714   1.831  10.203
66671SOL    HW1 1910   0.712   1.800  10.112
66671SOL    HW2 1911   0.650   1.902  10.205
66672SOL     OW 1912   4.791   8.011   5.776
66672SOL    HW1 1913   4.839   8.074   5.828
66672SOL    HW2 1914   4.702   8.013   5.811
66673SOL     OW 1915   0.263  10.436   2.881
66673SOL    HW1 1916   0.296  10.413   2.795
66673SOL    HW2 1917   0.339  10.428   2.939
66674SOL     OW 1918  10.093   9.971   8.658
66674SOL    HW1 1919  10.113   9.909   8.729
66674SOL    HW2 1920  10.025   9.927   8.607
66675SOL     OW 1921  13.027  10.562  11.247
66675SOL    HW1 1922  13.066  10.635  11.295
66675SOL    HW2 1923  12.939  10.554  11.284
66676SOL     OW 1924   1.159   9.539   3.481
66676SOL    HW1 1925   1.233   9.590   3.516
66676SOL    HW2 1926   1.164   9.455   3.525
66677SOL     OW 1927   6.690   5.667   7.464
66677SOL    HW1 1928   6.685   5.652   7.370
66677SOL    HW2 1929   6.783   5.682   7.481
66678SOL     OW 1930  12.925   8.620  10.507
66678SOL    HW1 1931  12.882   8.537  10.483
66678SOL    HW2 1932  12.896   8.636  10.597
66679SOL     OW 1933   3.942   4.364   0.276
66679SOL    HW1 1934   3.939   4.285   0.329
66679SOL    HW2 1935   3.874   4.421   0.315
66680SOL     OW 1936  13.282   5.727  14.336
66680SOL    HW1 1937  13.320   5.767  14.415
66680SOL    HW2 1938  13.326   5.643  14.329
66681SOL     OW 1939   6.420   6.940   6.812
66681SOL    HW1 1940   6.339   6.920   6.859
66681SOL    HW2 1941   6.439   6.862   6.761
66682SOL     OW 1942  14.409   9.657   5.121
66682SOL    HW1 1943  14.416   9.742   5.077
66682SOL    HW2 1944  14.491   9.612   5.100
66683SOL     OW 1945  12.142   5.725   4.869
66683SOL    HW1 1946  12.191   5.801   4.840
66683SOL    HW2 1947  12.100   5.692   4.790
66684SOL     OW 1948   4.713   9.539   3.096
66684SOL    HW1 1949   4.619   9.528   3.085
66684SOL    HW2 1950   4.752   9.468   3.044
66685SOL     OW 1951   8.034   9.862   5.246
66685SOL    HW1 1952   7.993   9.856   5.160
66685SOL    HW2 1953   8.106   9.799   5.244
66686SOL     OW 1954   7.439  11.432   1.690
66686SOL    HW1 1955   7.356  11.409   1.733
66686SOL    HW2 1956   7.478  11.348   1.668
66687SOL     OW 1957  14.661   4.933   8.452
66687SOL    HW1 1958  14.715   5.009   8.473
66687SOL    HW2 1959  14.575   4.969   8.430
66688SOL     OW 1960   3.688   6.661  14.741
66688SOL    HW1 1961   3.664   6.651  14.649
66688SOL    HW2 1962   3.777   6.697  14.738
66689SOL     OW 1963  14.403   3.576   2.665
66689SOL    HW1 1964  14.356   3.642   2.717
66689SOL    HW2 1965  14.437   3.514   2.730
66690SOL     OW 1966   7.074  10.751   4.475
66690SOL    HW1 1967   7.150  10.808   4.480
66690SOL    HW2 1968   7.000  10.811   4.464
66691SOL     OW 1969   6.946   5.794  14.416
66691SOL    HW1 1970   6.895   5.781  14.496
66691SOL    HW2 1971   7.034   5.815  14.447
66692SOL     OW 1972   8.446   1.563   1.741
66692SOL    HW1 1973   8.513   1.561   1.810
66692SOL    HW2 1974   8.492   1.535   1.662
66693SOL     OW 1975  10.586   2.373   2.232
66693SOL    HW1 1976  10.525   2.446   2.238
66693SOL    HW2 1977  10.565   2.331   2.149
66694SOL     OW 1978   3.086   2.650   4.165
66694SOL    HW1 1979   3.142   2.573   4.180
66694SOL    HW2 1980   3.031   2.625   4.091
66695SOL     OW 1981  13.130   5.242  11.188
66695SOL    HW1 1982  13.144   5.330  11.224
66695SOL    HW2 1983  13.212   5.196  11.206
66696SOL     OW 1984  11.403  12.827  11.286
66696SOL    HW1 1985  11.349  12.884  11.231
66696SOL    HW2 1986  11.341  12.776  11.337
66697SOL     OW 1987  13.026   5.971   2.772
66697SOL    HW1 1988  13.049   5.924   2.852
66697SOL    HW2 1989  13.084   5.935   2.705
66698SOL     OW 1990   5.850  13.732   1.261
66698SOL    HW1 1991   5.930  13.777   1.234
66698SOL    HW2 1992   5.880  13.647   1.293
66699SOL     OW 1993   0.285   0.115  10.244
66699SOL    HW1 1994   0.331   0.196  10.222
66699SOL    HW2 1995   0.206   0.143  10.288
66700SOL     OW 1996   8.026   3.356   1.764
66700SOL    HW1 1997   8.007   3.270   1.729
66700SOL    HW2 1998   8.005   3.417   1.693
66701SOL     OW 1999  10.905  11.546   6.273
66701SOL    HW1 2000  10.917  11.581   6.185
66701SOL    HW2 2001  10.983  11.574   6.321
66702SOL     OW 2002   3.468   8.899  12.896
66702SOL    HW1 2003   3.492   8.832  12.960
66702SOL    HW2 2004   3.407   8.855  12.837
66703SOL     OW 2005   9.383   3.890   4.440
66703SOL    HW1 2006   9.402   3.808   4.484
66703SOL    HW2 2007   9.287   3.894   4.436
66704SOL     OW 2008   6.318   8.240   1.180
66704SOL    HW1 2009   6.319   8.293   1.260
66704SOL    HW2 2010   6.364   8.294   1.116
66705SOL     OW 2011   8.066  11.990  14.266
66705SOL    HW1 2012   8.123  12.057  14.304
66705SOL    HW2 2013   8.071  12.005  14.171
66706SOL     OW 2014   3.351   1.637   4.602
66706SOL    HW1 2015   3.334   1.687   4.681
66706SOL    HW2 2016   3.429   1.586   4.622
66707SOL     OW 2017   1.817  10.190  13.494
66707SOL    HW1 2018   1.821  10.189  13.589
66707SOL    HW2 2019   1.857  10.107  13.468
66708SOL     OW 2020   9.766   8.805   7.731
66708SOL    HW1 2021   9.676   8.803   7.699
66708SOL    HW2 2022   9.770   8.734   7.796
66709SOL     OW 2023   9.793  12.626   1.232
66709SOL    HW1 2024   9.801  12.565   1.306
66709SOL    HW2 2025   9.869  12.607   1.177
66710SOL     OW 2026   9.903   1.078   5.521
66710SOL    HW1 2027   9.840   1.074   5.449
66710SOL    HW2 2028   9.862   1.136   5.585
66711SOL     OW 2029   1.376  14.478   7.270
66711SOL    HW1 2030   1.456  14.517   7.235
66711SOL    HW2 2031   1.406  14.407   7.326
66712SOL     OW 2032   0.382   7.265  11.054
66712SOL    HW1 2033   0.367   7.351  11.016
66712SOL    HW2 2034   0.460   7.232  11.010
66713SOL     OW 2035   6.053   9.175   8.665
66713SOL    HW1 2036   6.023   9.209   8.581
66713SOL    HW2 2037   6.146   9.153   8.651
66714SOL     OW 2038  11.877  11.159  12.038
66714SOL    HW1 2039  11.845  11.177  11.950
66714SOL    HW2 2040  11.930  11.235  12.061
66715SOL     OW 2041   1.360  13.730  12.807
66715SOL    HW1 2042   1.408  13.806  12.838
66715SOL    HW2 2043   1.363  13.737  12.711
66716SOL     OW 2044   9.145   7.668   4.059
66716SOL    HW1 2045   9.177   7.606   3.994
66716SOL    HW2 2046   9.189   7.641   4.141
66717SOL     OW 2047   1.932   8.149   5.938
66717SOL    HW1 2048   1.867   8.219   5.937
66717SOL    HW2 2049   1.950   8.134   6.030
66718SOL     OW 2050  14.470   6.254   1.994
66718SOL    HW1 2051  14.520   6.173   2.003
66718SOL    HW2 2052  14.530   6.323   2.023
66719SOL     OW 2053   7.832  13.996  13.935
66719SOL    HW1 2054   7.796  14.044  13.860
66719SOL    HW2 2055   7.771  14.014  14.007
66720SOL     OW 2056   8.658   8.060   0.196
66720SOL    HW1 2057   8.746   8.034   0.224
66720SOL    HW2 2058   8.622   7.982   0.154
66721SOL     OW 2059   8.929   2.853   4.759
66721SOL    HW1 2060   8.870   2.814   4.695
66721SOL    HW2 2061   8.878   2.855   4.840
66722SOL     OW 2062   0.192  13.545   4.725
66722SOL    HW1 2063   0.281  13.531   4.758
66722SOL    HW2 2064   0.166  13.629   4.762
66723SOL     OW 2065  11.959   6.213   4.337
66723SOL    HW1 2066  11.992   6.269   4.267
66723SOL    HW2 2067  12.029   6.210   4.402
66724SOL     OW 2068   8.445  14.856  10.197
66724SOL    HW1 2069   8.474  14.766  10.212
66724SOL    HW2 2070   8.495   0.016  10.120
66725SOL     OW 2071  10.469   2.927   0.221
66725SOL    HW1 2072  10.489   2.977   0.141
66725SOL    HW2 2073  10.374   2.928   0.227
66726SOL     OW 2074   2.574   0.742   9.031
66726SOL    HW1 2075   2.566   0.805   9.102
66726SOL    HW2 2076   2.511   0.673   9.052
66727SOL     OW 2077  11.480   7.449  13.864
66727SOL    HW1 2078  11.470   7.354  13.873
66727SOL    HW2 2079  11.437   7.485  13.942
66728SOL     OW 2080   0.148   9.140  12.738
66728SOL    HW1 2081   0.062   9.117  12.704
66728SOL    HW2 2082   0.182   9.204  12.675
66729SOL     OW 2083  10.930   1.462   5.984
66729SOL    HW1 2084  10.953   1.416   5.904
66729SOL    HW2 2085  10.836   1.477   5.978
66730SOL     OW 2086   4.101   1.571   6.201
66730SOL    HW1 2087   4.160   1.616   6.261
66730SOL    HW2 2088   4.051   1.641   6.159
66731SOL     OW 2089   7.494  13.195   3.183
66731SOL    HW1 2090   7.450  13.258   3.240
66731SOL    HW2 2091   7.518  13.246   3.105
66732SOL     OW 2092   4.075  14.060   4.948
66732SOL    HW1 2093   4.093  14.141   4.995
66732SOL    HW2 2094   4.074  13.992   5.016
66733SOL     OW 2095   7.252   0.831   0.150
66733SOL    HW1 2096   7.295   0.775   0.086
66733SOL    HW2 2097   7.319   0.848   0.216
66734SOL     OW 2098   4.335  12.532   5.736
66734SOL    HW1 2099   4.386  12.589   5.793
66734SOL    HW2 2100   4.246  12.537   5.771
66735SOL     OW 2101   8.276  12.569   4.168
66735SOL    HW1 2102   8.208  12.635   4.185
66735SOL    HW2 2103   8.305  12.542   4.255
66736SOL     OW 2104   6.021   6.709   0.433
66736SOL    HW1 2105   5.989   6.658   0.358
66736SOL    HW2 2106   6.057   6.644   0.493
66737SOL     OW 2107  14.113   3.727   9.694
66737SOL    HW1 2108  14.055   3.804   9.695
66737SOL    HW2 2109  14.073   3.668   9.630
66738SOL     OW 2110   1.389   8.183   5.579
66738SOL    HW1 2111   1.317   8.245   5.582
66738SOL    HW2 2112   1.347   8.097   5.572
66739SOL     OW 2113  14.843  10.557   9.802
66739SOL    HW1 2114  14.863  10.530   9.712
66739SOL    HW2 2115   0.026  10.498   9.856
66740SOL     OW 2116  13.967   0.469  14.013
66740SOL    HW1 2117  13.917   0.388  14.016
66740SOL    HW2 2118  13.914   0.529  13.961
66741SOL     OW 2119   5.316   8.639   4.821
66741SOL    HW1 2120   5.296   8.546   4.832
66741SOL    HW2 2121   5.270   8.681   4.894
66742SOL     OW 2122   9.753   5.470   0.771
66742SOL    HW1 2123   9.788   5.413   0.702
66742SOL    HW2 2124   9.755   5.416   0.850
66743SOL     OW 2125   6.588   8.456   0.433
66743SOL    HW1 2126   6.493   8.460   0.427
66743SOL    HW2 2127   6.607   8.369   0.468
66744SOL     OW 2128  10.835   0.694   2.561
66744SOL    HW1 2129  10.904   0.757   2.540
66744SOL    HW2 2130  10.859   0.662   2.649
66745SOL     OW 2131  12.280   9.318  10.688
66745SOL    HW1 2132  12.214   9.387  10.681
66745SOL    HW2 2133  12.340   9.350  10.756
66746SOL     OW 2134  11.592  11.639   5.570
66746SOL    HW1 2135  11.502  11.619   5.597
66746SOL    HW2 2136  11.614  11.719   5.618
66747SOL     OW 2137   3.790   4.572   2.911
66747SOL    HW1 2138   3.712   4.542   2.865
66747SOL    HW2 2139   3.863   4.544   2.856
66748SOL     OW 2140   1.161   6.117   5.677
66748SOL    HW1 2141   1.234   6.163   5.718
66748SOL    HW2 2142   1.129   6.057   5.744
66749SOL     OW 2143  10.969   4.655   9.505
66749SOL    HW1 2144  10.905   4.614   9.447
66749SOL    HW2 2145  10.923   4.729   9.544
66750SOL     OW 2146   3.160  10.389  10.912
66750SOL    HW1 2147   3.182  10.480  10.891
66750SOL    HW2 2148   3.243  10.350  10.939
66751SOL     OW 2149  12.884   3.728   7.046
66751SOL    HW1 2150  12.878   3.637   7.016
66751SOL    HW2 2151  12.793   3.757   7.053
66752SOL     OW 2152   2.144  11.878   8.694
66752SOL    HW1 2153   2.197  11.832   8.629
66752SOL    HW2 2154   2.076  11.815   8.718
66753SOL     OW 2155   0.874  14.551   8.562
66753SOL    HW1 2156   0.916  14.481   8.512
66753SOL    HW2 2157   0.853  14.512   8.647
66754SOL     OW 2158   3.596   3.353  12.051
66754SOL    HW1 2159   3.533   3.281  12.045
66754SOL    HW2 2160   3.634   3.343  12.138
66755SOL     OW 2161   7.325   1.918  11.333
66755SOL    HW1 2162   7.347   1.963  11.251
66755SOL    HW2 2163   7.395   1.854  11.345
66756SOL     OW 2164  10.694   5.596   4.763
66756SOL    HW1 2165  10.751   5.633   4.696
66756SOL    HW2 2166  10.735   5.621   4.846
66757SOL     OW 2167  13.466   0.915   5.997
66757SOL    HW1 2168  13.442   0.848   5.934
66757SOL    HW2 2169  13.554   0.889   6.027
66758SOL     OW 2170   3.769  14.501  11.426
66758SOL    HW1 2171   3.753  14.528  11.336
66758SOL    HW2 2172   3.864  14.513  11.438
66759SOL     OW 2173   5.052  11.510   5.437
66759SOL    HW1 2174   4.997  11.470   5.504
66759SOL    HW2 2175   5.141  11.497   5.467
66760SOL     OW 2176   9.504   8.506   3.096
66760SOL    HW1 2177   9.438   8.562   3.054
66760SOL    HW2 2178   9.511   8.431   3.038
66761SOL     OW 2179  10.766   5.185   2.122
66761SOL    HW1 2180  10.849   5.174   2.075
66761SOL    HW2 2181  10.769   5.276   2.154
66762SOL     OW 2182  10.880   5.199  11.532
66762SOL    HW1 2183  10.899   5.246  11.613
66762SOL    HW2 2184  10.894   5.107  11.555
66763SOL     OW 2185   4.027  12.537   0.848
66763SOL    HW1 2186   3.980  12.551   0.766
66763SOL    HW2 2187   4.073  12.619   0.864
66764SOL     OW 2188  12.726  10.718   9.269
66764SOL    HW1 2189  12.676  10.636   9.262
66764SOL    HW2 2190  12.748  10.740   9.179
66765SOL     OW 2191   4.370   2.809   2.796
66765SOL    HW1 2192   4.436   2.749   2.831
66765SOL    HW2 2193   4.341   2.768   2.715
66766SOL     OW 2194  14.054  13.202   2.909
66766SOL    HW1 2195  14.035  13.180   3.000
66766SOL    HW2 2196  14.141  13.241   2.911
66767SOL     OW 2197  12.017  14.867   2.090
66767SOL    HW1 2198  11.987   0.043   2.168
66767SOL    HW2 2199  11.950  14.801   2.074
66768SOL     OW 2200   1.547   2.474   3.406
66768SOL    HW1 2201   1.604   2.428   3.344
66768SOL    HW2 2202   1.605   2.497   3.479
66769SOL     OW 2203  14.464   4.944   6.691
66769SOL    HW1 2204  14.447   4.852   6.710
66769SOL    HW2 2205  14.422   4.960   6.606
66770SOL     OW 2206   0.822  13.250   0.257
66770SOL    HW1 2207   0.895  13.311   0.252
66770SOL    HW2 2208   0.857  13.168   0.222
66771SOL     OW 2209   4.029   1.762   8.157
66771SOL    HW1 2210   4.064   1.736   8.072
66771SOL    HW2 2211   4.103   1.802   8.203
66772SOL     OW 2212  14.311  12.775  11.397
66772SOL    HW1 2213  14.398  12.759  11.360
66772SOL    HW2 2214  14.323  12.767  11.491
66773SOL     OW 2215   9.091  11.841   7.812
66773SOL    HW1 2216   9.108  11.928   7.774
66773SOL    HW2 2217   8.996  11.832   7.808
66774SOL     OW 2218   6.563  12.650   5.502
66774SOL    HW1 2219   6.528  12.585   5.441
66774SOL    HW2 2220   6.658  12.645   5.490
66775SOL     OW 2221   9.453   3.624   0.296
66775SOL    HW1 2222   9.477   3.660   0.211
66775SOL    HW2 2223   9.396   3.691   0.335
66776SOL     OW 2224   1.080   5.299   2.875
66776SOL    HW1 2225   1.052   5.342   2.956
66776SOL    HW2 2226   1.167   5.334   2.859
66777SOL     OW 2227  14.803  10.915  11.100
66777SOL    HW1 2228  14.777  10.908  11.192
66777SOL    HW2 2229  14.778  11.004  11.075
66778SOL     OW 2230   3.674  12.692   3.460
66778SOL    HW1 2231   3.749  12.734   3.502
66778SOL    HW2 2232   3.712  12.643   3.387
66779SOL     OW 2233   9.864   9.789  14.035
66779SOL    HW1 2234   9.947   9.777  13.989
66779SOL    HW2 2235   9.800   9.740  13.983
66780SOL     OW 2236   0.087  13.441  14.809
66780SOL    HW1 2237   0.029  13.517  14.802
66780SOL    HW2 2238   0.036  13.376  14.858
66781SOL     OW 2239   5.211  14.168   7.343
66781SOL    HW1 2240   5.201  14.079   7.377
66781SOL    HW2 2241   5.304  14.174   7.320
66782SOL     OW 2242   9.625  11.014   9.433
66782SOL    HW1 2243   9.616  11.019   9.338
66782SOL    HW2 2244   9.662  11.099   9.458
66783SOL     OW 2245  11.870   3.685  13.736
66783SOL    HW1 2246  11.846   3.614  13.676
66783SOL    HW2 2247  11.795   3.744  13.734
66784SOL     OW 2248   6.920  14.693   6.339
66784SOL    HW1 2249   6.917  14.720   6.247
66784SOL    HW2 2250   6.915  14.775   6.388
66785SOL     OW 2251  12.743   0.630  12.066
66785SOL    HW1 2252  12.756   0.584  12.148
66785SOL    HW2 2253  12.795   0.581  12.002
66786SOL     OW 2254   9.100  10.325  10.913
66786SOL    HW1 2255   9.196  10.330  10.916
66786SOL    HW2 2256   9.077  10.262  10.981
66787SOL     OW 2257   2.134   2.427   3.953
66787SOL    HW1 2258   2.097   2.405   4.039
66787SOL    HW2 2259   2.229   2.423   3.967
66788SOL     OW 2260   2.506  14.747   5.598
66788SOL    HW1 2261   2.491  14.663   5.556
66788SOL    HW2 2262   2.511  14.727   5.691
66789SOL     OW 2263   6.565  14.022   1.259
66789SOL    HW1 2264   6.597  14.096   1.207
66789SOL    HW2 2265   6.548  13.953   1.195
66790SOL     OW 2266  11.924   5.268   5.443
66790SOL    HW1 2267  11.899   5.176   5.433
66790SOL    HW2 2268  12.019   5.268   5.434
66791SOL     OW 2269  14.498   2.428  10.261
66791SOL    HW1 2270  14.558   2.366  10.302
66791SOL    HW2 2271  14.411   2.392  10.275
66792SOL     OW 2272  11.171  13.132   4.070
66792SOL    HW1 2273  11.125  13.212   4.045
66792SOL    HW2 2274  11.129  13.063   4.018
66793SOL     OW 2275   8.762   3.352   1.807
66793SOL    HW1 2276   8.841   3.396   1.775
66793SOL    HW2 2277   8.691   3.389   1.754
66794SOL     OW 2278   1.938   1.229   9.239
66794SOL    HW1 2279   1.905   1.312   9.204
66794SOL    HW2 2280   2.022   1.216   9.195
66795SOL     OW 2281   9.457   0.292   6.472
66795SOL    HW1 2282   9.437   0.208   6.431
66795SOL    HW2 2283   9.553   0.296   6.474
66796SOL     OW 2284  13.047   7.621  10.963
66796SOL    HW1 2285  12.985   7.567  11.013
66796SOL    HW2 2286  13.048   7.705  11.010
66797SOL     OW 2287  14.130  10.140  14.073
66797SOL    HW1 2288  14.143  10.117  13.981
66797SOL    HW2 2289  14.098  10.230  14.071
66798SOL     OW 2290   0.035   1.689   0.780
66798SOL    HW1 2291  14.828   1.747   0.770
66798SOL    HW2 2292   0.107   1.748   0.804
66799SOL     OW 2293   1.298   2.001   8.615
66799SOL    HW1 2294   1.319   2.080   8.566
66799SOL    HW2 2295   1.356   2.004   8.691
66800SOL     OW 2296   4.517   8.560   6.809
66800SOL    HW1 2297   4.499   8.466   6.802
66800SOL    HW2 2298   4.592   8.566   6.868
66801SOL     OW 2299   8.121  10.376   2.271
66801SOL    HW1 2300   8.180  10.415   2.335
66801SOL    HW2 2301   8.037  10.368   2.317
66802SOL     OW 2302  10.770  11.663  10.096
66802SOL    HW1 2303  10.723  11.660  10.179
66802SOL    HW2 2304  10.862  11.653  10.120
66803SOL     OW 2305   1.051   4.789   2.688
66803SOL    HW1 2306   1.102   4.826   2.760
66803SOL    HW2 2307   1.097   4.709   2.664
66804SOL     OW 2308   9.109  14.749   2.335
66804SOL    HW1 2309   9.197  14.780   2.357
66804SOL    HW2 2310   9.066  14.826   2.298
66805SOL     OW 2311   7.481   6.195   5.928
66805SOL    HW1 2312   7.455   6.195   6.020
66805SOL    HW2 2313   7.555   6.255   5.924
66806SOL     OW 2314   4.952  13.218   1.401
66806SOL    HW1 2315   4.909  13.276   1.339
66806SOL    HW2 2316   4.998  13.154   1.346
66807SOL     OW 2317  13.094  12.289  14.014
66807SOL    HW1 2318  13.053  12.311  13.931
66807SOL    HW2 2319  13.188  12.290  13.996
66808SOL     OW 2320  11.375   1.095  13.404
66808SOL    HW1 2321  11.352   1.065  13.492
66808SOL    HW2 2322  11.469   1.113  13.409
66809SOL     OW 2323   5.192  11.518   8.215
66809SOL    HW1 2324   5.226  11.451   8.156
66809SOL    HW2 2325   5.253  11.592   8.205
66810SOL     OW 2326  13.349   1.615   4.627
66810SOL    HW1 2327  13.391   1.690   4.671
66810SOL    HW2 2328  13.365   1.630   4.534
66811SOL     OW 2329   6.075  12.204   7.149
66811SOL    HW1 2330   6.099  12.221   7.240
66811SOL    HW2 2331   5.995  12.152   7.154
66812SOL     OW 2332   6.804  11.005  11.369
66812SOL    HW1 2333   6.769  11.062  11.439
66812SOL    HW2 2334   6.759  11.034  11.290
66813SOL     OW 2335   8.653  13.553  14.099
66813SOL    HW1 2336   8.588  13.493  14.062
66813SOL    HW2 2337   8.726  13.496  14.123
66814SOL     OW 2338  12.147   3.503   9.333
66814SOL    HW1 2339  12.167   3.498   9.240
66814SOL    HW2 2340  12.192   3.428   9.372
66815SOL     OW 2341   9.532   9.576   4.219
66815SOL    HW1 2342   9.544   9.484   4.242
66815SOL    HW2 2343   9.529   9.576   4.123
66816SOL     OW 2344   2.902   9.022   4.425
66816SOL    HW1 2345   2.969   9.088   4.406
66816SOL    HW2 2346   2.824   9.072   4.447
66817SOL     OW 2347   8.644   2.993   1.391
66817SOL    HW1 2348   8.633   3.080   1.351
66817SOL    HW2 2349   8.688   2.942   1.324
66818SOL     OW 2350   3.627   0.214  12.609
66818SOL    HW1 2351   3.596   0.243  12.695
66818SOL    HW2 2352   3.644   0.121  12.619
66819SOL     OW 2353   5.247   9.700   4.606
66819SOL    HW1 2354   5.265   9.606   4.613
66819SOL    HW2 2355   5.152   9.707   4.612
66820SOL     OW 2356   8.665   2.225  11.931
66820SOL    HW1 2357   8.719   2.157  11.971
66820SOL    HW2 2358   8.664   2.203  11.838
66821SOL     OW 2359   9.650  13.019   2.208
66821SOL    HW1 2360   9.580  13.036   2.271
66821SOL    HW2 2361   9.610  13.037   2.123
66822SOL     OW 2362  12.501  12.150  12.567
66822SOL    HW1 2363  12.529  12.231  12.609
66822SOL    HW2 2364  12.424  12.122  12.616
66823SOL     OW 2365  14.501  11.355  13.425
66823SOL    HW1 2366  14.545  11.271  13.412
66823SOL    HW2 2367  14.497  11.365  13.521
66824SOL     OW 2368   4.404   9.833   7.189
66824SOL    HW1 2369   4.343   9.872   7.251
66824SOL    HW2 2370   4.432   9.907   7.134
66825SOL     OW 2371   5.146   6.526   8.971
66825SOL    HW1 2372   5.184   6.470   8.903
66825SOL    HW2 2373   5.053   6.505   8.971
66826SOL     OW 2374  11.434   6.643  14.675
66826SOL    HW1 2375  11.458   6.590  14.752
66826SOL    HW2 2376  11.352   6.684  14.700
66827SOL     OW 2377   3.111   9.646  13.567
66827SOL    HW1 2378   3.170   9.676  13.498
66827SOL    HW2 2379   3.108   9.718  13.629
66828SOL     OW 2380   7.733   0.823  10.392
66828SOL    HW1 2381   7.707   0.914  10.377
66828SOL    HW2 2382   7.829   0.824  10.387
66829SOL     OW 2383   4.011  14.775   8.592
66829SOL    HW1 2384   3.958  14.851   8.618
66829SOL    HW2 2385   3.947  14.707   8.573
66830SOL     OW 2386  10.898   5.248  12.561
66830SOL    HW1 2387  10.823   5.303  12.540
66830SOL    HW2 2388  10.870   5.159  12.538
66831SOL     OW 2389   2.853  11.341  14.598
66831SOL    HW1 2390   2.847  11.383  14.512
66831SOL    HW2 2391   2.932  11.288  14.593
66832SOL     OW 2392   1.186   9.787  13.065
66832SOL    HW1 2393   1.104   9.740  13.057
66832SOL    HW2 2394   1.164   9.878  13.045
66833SOL     OW 2395  11.383   9.315  14.730
66833SOL    HW1 2396  11.335   9.309  14.648
66833SOL    HW2 2397  11.396   9.409  14.744
66834SOL     OW 2398   8.342  11.355  13.054
66834SOL    HW1 2399   8.391  11.374  13.134
66834SOL    HW2 2400   8.363  11.264  13.034
66835SOL     OW 2401   8.314   6.085   6.017
66835SOL    HW1 2402   8.299   6.164   5.965
66835SOL    HW2 2403   8.232   6.073   6.066
66836SOL     OW 2404   5.509   8.093   0.885
66836SOL    HW1 2405   5.469   8.028   0.943
66836SOL    HW2 2406   5.463   8.175   0.906
66837SOL     OW 2407  10.107   9.351   2.497
66837SOL    HW1 2408  10.075   9.274   2.450
66837SOL    HW2 2409  10.042   9.419   2.480
66838SOL     OW 2410   0.265   1.621   9.689
66838SOL    HW1 2411   0.302   1.705   9.716
66838SOL    HW2 2412   0.177   1.643   9.658
66839SOL     OW 2413   3.203   6.872   9.739
66839SOL    HW1 2414   3.126   6.893   9.687
66839SOL    HW2 2415   3.259   6.822   9.680
66840SOL     OW 2416   0.912   2.759   1.057
66840SOL    HW1 2417   0.858   2.777   1.134
66840SOL    HW2 2418   1.001   2.780   1.085
66841SOL     OW 2419   3.373   7.784   6.112
66841SOL    HW1 2420   3.303   7.837   6.073
66841SOL    HW2 2421   3.362   7.698   6.072
66842SOL     OW 2422  12.114   2.767   5.578
66842SOL    HW1 2423  12.185   2.767   5.643
66842SOL    HW2 2424  12.034   2.766   5.630
66843SOL     OW 2425  14.331   5.793  12.033
66843SOL    HW1 2426  14.421   5.827  12.042
66843SOL    HW2 2427  14.342   5.707  11.992
66844SOL     OW 2428   0.922  10.287  10.453
66844SOL    HW1 2429   0.889  10.199  10.470
66844SOL    HW2 2430   0.851  10.329  10.404
66845SOL     OW 2431   5.849   7.006   7.520
66845SOL    HW1 2432   5.938   7.025   7.552
66845SOL    HW2 2433   5.802   7.089   7.528
66846SOL     OW 2434   0.685   9.124   8.047
66846SOL    HW1 2435   0.625   9.100   8.117
66846SOL    HW2 2436   0.771   9.094   8.078
66847SOL     OW 2437   0.224   2.721   1.602
66847SOL    HW1 2438   0.309   2.684   1.628
66847SOL    HW2 2439   0.167   2.645   1.595
66848SOL     OW 2440   2.060   5.156   2.855
66848SOL    HW1 2441   2.069   5.078   2.801
66848SOL    HW2 2442   2.149   5.178   2.882
66849SOL     OW 2443   2.772   3.573   1.933
66849SOL    HW1 2444   2.708   3.503   1.940
66849SOL    HW2 2445   2.762   3.607   1.844
66850SOL     OW 2446   6.464   9.698   0.766
66850SOL    HW1 2447   6.549   9.740   0.752
66850SOL    HW2 2448   6.422   9.699   0.680
66851SOL     OW 2449  14.303  10.532   0.230
66851SOL    HW1 2450  14.355  10.590   0.174
66851SOL    HW2 2451  14.298  10.578   0.313
66852SOL     OW 2452  12.719   5.965   9.478
66852SOL    HW1 2453  12.754   6.033   9.536
66852SOL    HW2 2454  12.790   5.902   9.470
66853SOL     OW 2455   0.074   1.605   3.488
66853SOL    HW1 2456   0.155   1.573   3.527
66853SOL    HW2 2457   0.058   1.689   3.531
66854SOL     OW 2458   9.739   5.503   4.465
66854SOL    HW1 2459   9.772   5.588   4.494
66854SOL    HW2 2460   9.673   5.479   4.529
66855SOL     OW 2461   4.560   0.831   5.408
66855SOL    HW1 2462   4.519   0.902   5.360
66855SOL    HW2 2463   4.551   0.856   5.500
66856SOL     OW 2464  14.651   8.664   6.325
66856SOL    HW1 2465  14.666   8.603   6.253
66856SOL    HW2 2466  14.610   8.612   6.393
66857SOL     OW 2467   5.212   4.647   4.700
66857SOL    HW1 2468   5.290   4.620   4.749
66857SOL    HW2 2469   5.231   4.735   4.669
66858SOL     OW 2470  10.063   8.395   2.752
66858SOL    HW1 2471  10.038   8.303   2.761
66858SOL    HW2 2472  10.096   8.419   2.839
66859SOL     OW 2473   1.665   3.115   5.370
66859SOL    HW1 2474   1.679   3.110   5.275
66859SOL    HW2 2475   1.688   3.028   5.402
66860SOL     OW 2476   5.516   2.042   1.081
66860SOL    HW1 2477   5.522   2.132   1.049
66860SOL    HW2 2478   5.501   2.051   1.175
66861SOL     OW 2479  13.140   7.229   6.131
66861SOL    HW1 2480  13.081   7.303   6.118
66861SOL    HW2 2481  13.152   7.191   6.044
66862SOL     OW 2482   5.597   4.986   4.081
66862SOL    HW1 2483   5.554   4.921   4.137
66862SOL    HW2 2484   5.682   4.948   4.061
66863SOL     OW 2485   0.934   9.827  13.963
66863SOL    HW1 2486   1.013   9.776  13.983
66863SOL    HW2 2487   0.905   9.793  13.878
66864SOL     OW 2488   9.374  10.843   3.884
66864SOL    HW1 2489   9.351  10.934   3.866
66864SOL    HW2 2490   9.383  10.803   3.797
66865SOL     OW 2491   7.215   6.328   2.489
66865SOL    HW1 2492   7.307   6.351   2.475
66865SOL    HW2 2493   7.173   6.409   2.516
66866SOL     OW 2494  14.152  11.673   2.988
66866SOL    HW1 2495  14.089  11.638   3.051
66866SOL    HW2 2496  14.107  11.668   2.903
66867SOL     OW 2497   0.559   9.241   3.956
66867SOL    HW1 2498   0.541   9.327   3.994
66867SOL    HW2 2499   0.616   9.259   3.882
66868SOL     OW 2500  13.034   7.903   1.244
66868SOL    HW1 2501  12.971   7.835   1.218
66868SOL    HW2 2502  12.999   7.938   1.325
66869SOL     OW 2503   1.047   6.135   3.051
66869SOL    HW1 2504   1.117   6.167   2.994
66869SOL    HW2 2505   0.971   6.124   2.994
66870SOL     OW 2506   5.710   4.758   1.298
66870SOL    HW1 2507   5.765   4.680   1.308
66870SOL    HW2 2508   5.747   4.821   1.360
66871SOL     OW 2509   9.132  13.265   9.353
66871SOL    HW1 2510   9.059  13.251   9.294
66871SOL    HW2 2511   9.195  13.317   9.302
66872SOL     OW 2512   3.622   4.505   4.462
66872SOL    HW1 2513   3.657   4.594   4.450
66872SOL    HW2 2514   3.527   4.516   4.452
66873SOL     OW 2515  14.812   2.274  11.798
66873SOL    HW1 2516  14.859   2.203  11.754
66873SOL    HW2 2517  14.746   2.302  11.735
66874SOL     OW 2518  10.446  10.323   9.387
66874SOL    HW1 2519  10.475  10.381   9.457
66874SOL    HW2 2520  10.403  10.381   9.324
66875SOL     OW 2521   5.952   0.312   7.834
66875SOL    HW1 2522   6.019   0.371   7.799
66875SOL    HW2 2523   5.949   0.239   7.772
66876SOL     OW 2524   2.825   2.488  11.720
66876SOL    HW1 2525   2.913   2.507  11.688
66876SOL    HW2 2526   2.799   2.567  11.768
66877SOL     OW 2527   8.090   0.551   7.788
66877SOL    HW1 2528   8.059   0.635   7.757
66877SOL    HW2 2529   8.064   0.549   7.881
66878SOL     OW 2530  10.579   5.453   2.452
66878SOL    HW1 2531  10.591   5.431   2.359
66878SOL    HW2 2532  10.517   5.526   2.451
66879SOL     OW 2533   4.835   6.241  12.834
66879SOL    HW1 2534   4.748   6.278  12.819
66879SOL    HW2 2535   4.849   6.249  12.928
66880SOL     OW 2536   1.019  14.186   9.912
66880SOL    HW1 2537   0.946  14.183   9.851
66880SOL    HW2 2538   1.006  14.267   9.961
66881SOL     OW 2539   9.938   6.295  10.523
66881SOL    HW1 2540   9.911   6.352  10.451
66881SOL    HW2 2541   9.916   6.207  10.493
66882SOL     OW 2542   2.081   9.249  10.599
66882SOL    HW1 2543   2.173   9.244  10.575
66882SOL    HW2 2544   2.036   9.276  10.519
66883SOL     OW 2545   7.488  13.109  14.609
66883SOL    HW1 2546   7.556  13.101  14.542
66883SOL    HW2 2547   7.536  13.132  14.688
66884SOL     OW 2548   0.288  12.090   5.441
66884SOL    HW1 2549   0.358  12.134   5.391
66884SOL    HW2 2550   0.242  12.161   5.485
66885SOL     OW 2551   8.530   7.160  14.482
66885SOL    HW1 2552   8.469   7.108  14.534
66885SOL    HW2 2553   8.474   7.218  14.431
66886SOL     OW 2554   3.129  11.800  10.594
66886SOL    HW1 2555   3.063  11.831  10.532
66886SOL    HW2 2556   3.096  11.829  10.680
66887SOL     OW 2557   7.528   5.410   6.627
66887SOL    HW1 2558   7.573   5.487   6.661
66887SOL    HW2 2559   7.471   5.382   6.698
66888SOL     OW 2560   6.916   1.348   0.849
66888SOL    HW1 2561   6.863   1.352   0.928
66888SOL    HW2 2562   6.869   1.289   0.790
66889SOL     OW 2563   8.181  12.835  13.902
66889SOL    HW1 2564   8.114  12.834  13.834
66889SOL    HW2 2565   8.142  12.885  13.974
66890SOL     OW 2566  10.900   9.384  12.021
66890SOL    HW1 2567  10.981   9.422  11.990
66890SOL    HW2 2568  10.842   9.459  12.036
66891SOL     OW 2569   8.988  10.365   2.071
66891SOL    HW1 2570   8.952  10.376   1.983
66891SOL    HW2 2571   8.959  10.277   2.098
66892SOL     OW 2572   6.091   1.085   1.561
66892SOL    HW1 2573   6.126   1.143   1.494
66892SOL    HW2 2574   6.164   1.071   1.622
66893SOL     OW 2575   7.560   3.575   3.057
66893SOL    HW1 2576   7.514   3.659   3.047
66893SOL    HW2 2577   7.496   3.509   3.028
66894SOL     OW 2578  10.827   0.314   3.271
66894SOL    HW1 2579  10.867   0.347   3.192
66894SOL    HW2 2580  10.849   0.379   3.338
66895SOL     OW 2581   6.994   4.978   3.872
66895SOL    HW1 2582   7.009   4.978   3.967
66895SOL    HW2 2583   7.063   4.922   3.837
66896SOL     OW 2584   4.904  13.862   1.073
66896SOL    HW1 2585   4.943  13.797   1.132
66896SOL    HW2 2586   4.810  13.843   1.076
66897SOL     OW 2587   5.765   4.464   7.318
66897SOL    HW1 2588   5.783   4.553   7.347
66897SOL    HW2 2589   5.802   4.460   7.229
66898SOL     OW 2590   5.041   1.270  11.667
66898SOL    HW1 2591   5.062   1.322  11.744
66898SOL    HW2 2592   4.970   1.317  11.624
66899SOL     OW 2593   2.946   3.167  13.287
66899SOL    HW1 2594   2.930   3.143  13.378
66899SOL    HW2 2595   2.962   3.261  13.290
66900SOL     OW 2596   2.858   4.776  13.306
66900SOL    HW1 2597   2.886   4.685  13.302
66900SOL    HW2 2598   2.922   4.824  13.253
66901SOL     OW 2599   4.314  13.917  11.571
66901SOL    HW1 2600   4.366  13.847  11.611
66901SOL    HW2 2601   4.292  13.975  11.645
66902SOL     OW 2602   1.115   9.355  11.815
66902SOL    HW1 2603   1.075   9.440  11.797
66902SOL    HW2 2604   1.198   9.377  11.858
66903SOL     OW 2605   6.919   4.654  13.517
66903SOL    HW1 2606   6.986   4.586  13.521
66903SOL    HW2 2607   6.885   4.649  13.428
66904SOL     OW 2608  11.951   9.770  14.408
66904SOL    HW1 2609  12.046   9.781  14.416
66904SOL    HW2 2610  11.924   9.739  14.495
66905SOL     OW 2611   4.154   1.398  11.962
66905SOL    HW1 2612   4.109   1.340  12.023
66905SOL    HW2 2613   4.119   1.374  11.876
66906SOL     OW 2614   5.861   3.967   6.363
66906SOL    HW1 2615   5.823   3.998   6.445
66906SOL    HW2 2616   5.892   3.879   6.383
66907SOL     OW 2617   0.120   0.239  11.607
66907SOL    HW1 2618   0.180   0.200  11.670
66907SOL    HW2 2619   0.172   0.248  11.527
66908SOL     OW 2620   9.563   4.062   2.814
66908SOL    HW1 2621   9.561   4.102   2.727
66908SOL    HW2 2622   9.656   4.049   2.833
66909SOL     OW 2623  10.534  13.299   7.561
66909SOL    HW1 2624  10.525  13.307   7.466
66909SOL    HW2 2625  10.551  13.388   7.592
66910SOL     OW 2626   2.695  12.470  13.558
66910SOL    HW1 2627   2.781  12.508  13.574
66910SOL    HW2 2628   2.698  12.441  13.466
66911SOL     OW 2629  14.116   4.964  11.698
66911SOL    HW1 2630  14.135   4.968  11.604
66911SOL    HW2 2631  14.199   4.982  11.740
66912SOL     OW 2632  11.925  14.391   9.444
66912SOL    HW1 2633  11.852  14.358   9.392
66912SOL    HW2 2634  11.967  14.313   9.480
66913SOL     OW 2635  12.501  11.930  13.196
66913SOL    HW1 2636  12.586  11.889  13.213
66913SOL    HW2 2637  12.490  11.994  13.267
66914SOL     OW 2638   5.186  12.099  10.764
66914SOL    HW1 2639   5.222  12.140  10.843
66914SOL    HW2 2640   5.095  12.081  10.784
66915SOL     OW 2641   0.696   0.140   4.866
66915SOL    HW1 2642   0.630   0.135   4.797
66915SOL    HW2 2643   0.738   0.225   4.854
66916SOL     OW 2644   3.152   3.528   9.630
66916SOL    HW1 2645   3.061   3.547   9.610
66916SOL    HW2 2646   3.160   3.433   9.621
66917SOL     OW 2647  12.534  11.159   6.921
66917SOL    HW1 2648  12.532  11.109   7.003
66917SOL    HW2 2649  12.603  11.117   6.869
66918SOL     OW 2650   0.257   7.996  10.745
66918SOL    HW1 2651   0.184   7.984  10.806
66918SOL    HW2 2652   0.263   7.914  10.698
66919SOL     OW 2653   1.989  13.065   5.660
66919SOL    HW1 2654   1.915  13.116   5.690
66919SOL    HW2 2655   2.063  13.094   5.714
66920SOL     OW 2656   8.030   2.000  11.552
66920SOL    HW1 2657   8.077   1.917  11.554
66920SOL    HW2 2658   7.999   2.008  11.462
66921SOL     OW 2659   8.146  12.484   6.239
66921SOL    HW1 2660   8.178  12.418   6.300
66921SOL    HW2 2661   8.075  12.441   6.192
66922SOL     OW 2662   8.501   4.249  14.657
66922SOL    HW1 2663   8.590   4.282  14.667
66922SOL    HW2 2664   8.510   4.174  14.598
66923SOL     OW 2665   4.283   7.564   7.167
66923SOL    HW1 2666   4.361   7.544   7.116
66923SOL    HW2 2667   4.212   7.566   7.103
66924SOL     OW 2668   3.953  14.599   3.339
66924SOL    HW1 2669   3.937  14.651   3.418
66924SOL    HW2 2670   4.048  14.585   3.338
66925SOL     OW 2671   1.515   2.589   1.177
66925SOL    HW1 2672   1.501   2.592   1.083
66925SOL    HW2 2673   1.604   2.623   1.189
66926SOL     OW 2674   3.663  14.817  12.626
66926SOL    HW1 2675   3.638  14.757  12.555
66926SOL    HW2 2676   3.685  14.760  12.699
66927SOL     OW 2677   1.793   9.739   3.151
66927SOL    HW1 2678   1.822   9.794   3.223
66927SOL    HW2 2679   1.825   9.783   3.072
66928SOL     OW 2680  14.486  14.059  11.953
66928SOL    HW1 2681  14.494  14.003  12.031
66928SOL    HW2 2682  14.555  14.028  11.894
66929SOL     OW 2683  10.640   8.034   6.206
66929SOL    HW1 2684  10.580   8.085   6.151
66929SOL    HW2 2685  10.726   8.072   6.190
66930SOL     OW 2686   0.913  13.013   0.143
66930SOL    HW1 2687   0.986  13.044   0.196
66930SOL    HW2 2688   0.917  12.917   0.150
66931SOL     OW 2689   5.519  11.501   9.276
66931SOL    HW1 2690   5.450  11.447   9.237
66931SOL    HW2 2691   5.478  11.587   9.288
66932SOL     OW 2692  14.624  13.485   2.688
66932SOL    HW1 2693  14.569  13.498   2.765
66932SOL    HW2 2694  14.579  13.533   2.618
66933SOL     OW 2695   4.879   8.078  13.616
66933SOL    HW1 2696   4.872   8.005  13.678
66933SOL    HW2 2697   4.877   8.037  13.530
66934SOL     OW 2698   5.318  10.003   4.698
66934SOL    HW1 2699   5.252   9.937   4.723
66934SOL    HW2 2700   5.401   9.963   4.723
66935SOL     OW 2701  12.906  10.859  11.071
66935SOL    HW1 2702  12.858  10.812  11.139
66935SOL    HW2 2703  12.903  10.951  11.097
66936SOL     OW 2704   7.657   8.677   2.754
66936SOL    HW1 2705   7.750   8.656   2.762
66936SOL    HW2 2706   7.655   8.748   2.689
66937SOL     OW 2707  12.083   7.926  12.850
66937SOL    HW1 2708  12.060   7.925  12.943
66937SOL    HW2 2709  12.179   7.928  12.849
66938SOL     OW 2710   4.777   3.710   4.718
66938SOL    HW1 2711   4.705   3.758   4.675
66938SOL    HW2 2712   4.738   3.627   4.744
66939SOL     OW 2713   2.634  12.010  14.146
66939SOL    HW1 2714   2.597  12.027  14.060
66939SOL    HW2 2715   2.569  12.044  14.208
66940SOL     OW 2716  14.292   8.647   7.603
66940SOL    HW1 2717  14.277   8.615   7.514
66940SOL    HW2 2718  14.221   8.609   7.654
66941SOL     OW 2719  10.459   9.875   5.380
66941SOL    HW1 2720  10.485   9.893   5.471
66941SOL    HW2 2721  10.528   9.817   5.347
66942SOL     OW 2722   2.723  10.934   9.760
66942SOL    HW1 2723   2.742  10.895   9.845
66942SOL    HW2 2724   2.663  10.873   9.718
66943SOL     OW 2725   4.237   9.563  11.559
66943SOL    HW1 2726   4.246   9.471  11.583
66943SOL    HW2 2727   4.308   9.607  11.605
66944SOL     OW 2728   9.459   1.546   1.108
66944SOL    HW1 2729   9.519   1.614   1.078
66944SOL    HW2 2730   9.373   1.588   1.107
66945SOL     OW 2731  11.761  10.917   4.826
66945SOL    HW1 2732  11.805  10.858   4.764
66945SOL    HW2 2733  11.810  10.999   4.820
66946SOL     OW 2734   2.523   2.833   0.774
66946SOL    HW1 2735   2.573   2.840   0.692
66946SOL    HW2 2736   2.433   2.818   0.745
66947SOL     OW 2737   5.486   8.693  10.096
66947SOL    HW1 2738   5.575   8.700  10.130
66947SOL    HW2 2739   5.497   8.677  10.002
66948SOL     OW 2740   6.300  12.763   4.639
66948SOL    HW1 2741   6.351  12.686   4.613
66948SOL    HW2 2742   6.354  12.806   4.705
66949SOL     OW 2743   8.279  14.290  11.063
66949SOL    HW1 2744   8.267  14.385  11.065
66949SOL    HW2 2745   8.194  14.256  11.035
66950SOL     OW 2746   6.878   0.015   2.267
66950SOL    HW1 2747   6.786  14.862   2.278
66950SOL    HW2 2748   6.888   0.099   2.312
66951SOL     OW 2749   0.866   8.904  14.318
66951SOL    HW1 2750   0.887   8.840  14.387
66951SOL    HW2 2751   0.829   8.979  14.365
66952SOL     OW 2752   6.146   3.535  12.442
66952SOL    HW1 2753   6.122   3.615  12.489
66952SOL    HW2 2754   6.122   3.552  12.351
66953SOL     OW 2755   9.761  14.026   9.762
66953SOL    HW1 2756   9.735  13.977   9.684
66953SOL    HW2 2757   9.768  13.959   9.831
66954SOL     OW 2758  10.987   1.372   0.199
66954SOL    HW1 2759  10.996   1.466   0.190
66954SOL    HW2 2760  10.972   1.340   0.110
66955SOL     OW 2761   7.780   7.377  11.268
66955SOL    HW1 2762   7.817   7.334  11.345
66955SOL    HW2 2763   7.853   7.386  11.208
66956SOL     OW 2764  13.949   6.963   5.094
66956SOL    HW1 2765  13.966   6.897   5.162
66956SOL    HW2 2766  14.018   6.948   5.029
66957SOL     OW 2767   9.376   8.405   2.148
66957SOL    HW1 2768   9.342   8.333   2.095
66957SOL    HW2 2769   9.374   8.371   2.237
66958SOL     OW 2770  12.036   3.821  11.946
66958SOL    HW1 2771  12.070   3.786  11.863
66958SOL    HW2 2772  12.029   3.746  12.004
66959SOL     OW 2773   0.346   5.009   7.362
66959SOL    HW1 2774   0.432   5.024   7.400
66959SOL    HW2 2775   0.300   4.953   7.425
66960SOL     OW 2776  14.056   7.576  11.925
66960SOL    HW1 2777  14.008   7.592  12.006
66960SOL    HW2 2778  14.030   7.488  11.898
66961SOL     OW 2779   0.415  12.256  13.100
66961SOL    HW1 2780   0.461  12.216  13.026
66961SOL    HW2 2781   0.418  12.190  13.169
66962SOL     OW 2782  14.421   8.062   0.412
66962SOL    HW1 2783  14.397   8.035   0.324
66962SOL    HW2 2784  14.343   8.107   0.446
66963SOL     OW 2785   7.097   0.643   9.090
66963SOL    HW1 2786   7.089   0.600   9.175
66963SOL    HW2 2787   7.175   0.604   9.050
66964SOL     OW 2788   7.160   9.531   2.154
66964SOL    HW1 2789   7.177   9.603   2.093
66964SOL    HW2 2790   7.088   9.483   2.115
66965SOL     OW 2791   5.610  11.971   9.573
66965SOL    HW1 2792   5.614  12.001   9.482
66965SOL    HW2 2793   5.611  12.052   9.624
66966SOL     OW 2794   0.233   2.698  10.816
66966SOL    HW1 2795   0.194   2.647  10.887
66966SOL    HW2 2796   0.288   2.762  10.860
66967SOL     OW 2797  14.053   9.374   1.892
66967SOL    HW1 2798  14.023   9.451   1.843
66967SOL    HW2 2799  14.087   9.315   1.825
66968SOL     OW 2800   7.493   9.708   8.782
66968SOL    HW1 2801   7.495   9.789   8.731
66968SOL    HW2 2802   7.492   9.736   8.873
66969SOL     OW 2803   0.629  13.803   1.952
66969SOL    HW1 2804   0.589  13.747   1.886
66969SOL    HW2 2805   0.715  13.764   1.968
66970SOL     OW 2806   8.129   6.569   7.260
66970SOL    HW1 2807   8.145   6.476   7.245
66970SOL    HW2 2808   8.142   6.610   7.174
66971SOL     OW 2809   6.559   9.875  10.813
66971SOL    HW1 2810   6.482   9.844  10.765
66971SOL    HW2 2811   6.542   9.967  10.829
66972SOL     OW 2812   4.978   0.801  12.786
66972SOL    HW1 2813   4.982   0.878  12.729
66972SOL    HW2 2814   5.034   0.822  12.860
66973SOL     OW 2815   5.076  10.708   3.386
66973SOL    HW1 2816   5.036  10.772   3.327
66973SOL    HW2 2817   5.160  10.746   3.411
66974SOL     OW 2818   0.818   3.063   2.677
66974SOL    HW1 2819   0.836   3.086   2.586
66974SOL    HW2 2820   0.853   3.136   2.728
66975SOL     OW 2821   9.209   4.150   9.276
66975SOL    HW1 2822   9.135   4.203   9.308
66975SOL    HW2 2823   9.217   4.174   9.184
66976SOL     OW 2824   4.450  10.465   9.931
66976SOL    HW1 2825   4.392  10.408   9.880
66976SOL    HW2 2826   4.442  10.551   9.889
66977SOL     OW 2827   2.879   8.979   7.625
66977SOL    HW1 2828   2.819   8.924   7.575
66977SOL    HW2 2829   2.962   8.975   7.577
66978SOL     OW 2830   4.746   1.246  12.790
66978SOL    HW1 2831   4.697   1.167  12.813
66978SOL    HW2 2832   4.767   1.287  12.874
66979SOL     OW 2833   7.318  10.671   2.305
66979SOL    HW1 2834   7.406  10.694   2.273
66979SOL    HW2 2835   7.328  10.583   2.341
66980SOL     OW 2836   1.999  11.491   4.326
66980SOL    HW1 2837   2.094  11.505   4.325
66980SOL    HW2 2838   1.962  11.575   4.355
66981SOL     OW 2839   5.165   4.394   9.567
66981SOL    HW1 2840   5.240   4.335   9.582
66981SOL    HW2 2841   5.089   4.344   9.597
66982SOL     OW 2842  11.789  11.340  13.173
66982SOL    HW1 2843  11.841  11.367  13.248
66982SOL    HW2 2844  11.852  11.313  13.107
66983SOL     OW 2845   2.070   8.697   7.445
66983SOL    HW1 2846   2.030   8.674   7.528
66983SOL    HW2 2847   1.997   8.701   7.383
66984SOL     OW 2848   0.530   0.484  12.947
66984SOL    HW1 2849   0.576   0.563  12.920
66984SOL    HW2 2850   0.500   0.503  13.036
66985SOL     OW 2851   4.498   3.916   4.086
66985SOL    HW1 2852   4.500   3.994   4.031
66985SOL    HW2 2853   4.537   3.944   4.169
66986SOL     OW 2854   3.934   6.734  14.744
66986SOL    HW1 2855   3.969   6.645  14.734
66986SOL    HW2 2856   3.979   6.785  14.677
66987SOL     OW 2857  14.311   5.179   5.985
66987SOL    HW1 2858  14.297   5.267   5.948
66987SOL    HW2 2859  14.406   5.168   5.984
66988SOL     OW 2860  11.988   2.666   1.132
66988SOL    HW1 2861  11.954   2.751   1.105
66988SOL    HW2 2862  12.060   2.686   1.191
66989SOL     OW 2863  12.224   5.121   2.862
66989SOL    HW1 2864  12.229   5.051   2.927
66989SOL    HW2 2865  12.169   5.188   2.904
66990SOL     OW 2866   2.012  12.619  12.494
66990SOL    HW1 2867   2.083  12.592  12.435
66990SOL    HW2 2868   2.014  12.715  12.492
66991SOL     OW 2869  14.616   5.108  13.349
66991SOL    HW1 2870  14.653   5.097  13.261
66991SOL    HW2 2871  14.528   5.072  13.342
66992SOL     OW 2872   5.228   1.495   5.163
66992SOL    HW1 2873   5.146   1.468   5.121
66992SOL    HW2 2874   5.239   1.587   5.135
66993SOL     OW 2875   8.294  13.074   8.936
66993SOL    HW1 2876   8.347  13.011   8.984
66993SOL    HW2 2877   8.278  13.145   8.999
66994SOL     OW 2878   9.590   7.666   4.507
66994SOL    HW1 2879   9.552   7.609   4.574
66994SOL    HW2 2880   9.571   7.755   4.538
66995SOL     OW 2881  10.252   8.547   7.294
66995SOL    HW1 2882  10.252   8.502   7.209
66995SOL    HW2 2883  10.343   8.542   7.324
66996SOL     OW 2884   4.221   6.194   8.882
66996SOL    HW1 2885   4.314   6.176   8.876
66996SOL    HW2 2886   4.179   6.108   8.882
66997SOL     OW 2887   6.275  13.771  11.742
66997SOL    HW1 2888   6.328  13.694  11.723
66997SOL    HW2 2889   6.324  13.845  11.706
66998SOL     OW 2890   3.289   1.180  13.059
66998SOL    HW1 2891   3.294   1.273  13.083
66998SOL    HW2 2892   3.196   1.159  13.069
66999SOL     OW 2893  12.769   3.687   3.942
66999SOL    HW1 2894  12.716   3.765   3.925
66999SOL    HW2 2895  12.712   3.629   3.993
67000SOL     OW 2896   1.028   8.990  14.675
67000SOL    HW1 2897   0.939   8.996  14.640
67000SOL    HW2 2898   1.046   8.896  14.681
67001SOL     OW 2899   1.558  11.822  10.292
67001SOL    HW1 2900   1.551  11.728  10.307
67001SOL    HW2 2901   1.596  11.856  10.373
67002SOL     OW 2902   0.783   9.728  11.627
67002SOL    HW1 2903   0.837   9.791  11.581
67002SOL    HW2 2904   0.774   9.655  11.566
67003SOL     OW 2905  13.491   7.591   3.849
67003SOL    HW1 2906  13.489   7.569   3.942
67003SOL    HW2 2907  13.457   7.512   3.805
67004SOL     OW 2908  14.512   5.665   0.402
67004SOL    HW1 2909  14.580   5.691   0.464
67004SOL    HW2 2910  14.560   5.628   0.328
67005SOL     OW 2911  14.193   8.823  13.625
67005SOL    HW1 2912  14.110   8.825  13.577
67005SOL    HW2 2913  14.169   8.843  13.715
67006SOL     OW 2914   0.326  10.840   1.524
67006SOL    HW1 2915   0.291  10.764   1.571
67006SOL    HW2 2916   0.302  10.915   1.579
67007SOL     OW 2917   9.124   8.201   3.167
67007SOL    HW1 2918   9.165   8.265   3.225
67007SOL    HW2 2919   9.131   8.240   3.080
67008SOL     OW 2920  14.265   9.449   2.922
67008SOL    HW1 2921  14.213   9.407   2.990
67008SOL    HW2 2922  14.294   9.531   2.961
67009SOL     OW 2923   5.725  10.595  12.406
67009SOL    HW1 2924   5.711  10.663  12.473
67009SOL    HW2 2925   5.680  10.518  12.440
67010SOL     OW 2926   9.710   0.704   2.261
67010SOL    HW1 2927   9.636   0.693   2.202
67010SOL    HW2 2928   9.735   0.796   2.252
67011SOL     OW 2929   8.033   4.696  14.859
67011SOL    HW1 2930   8.030   4.786   0.023
67011SOL    HW2 2931   7.948   4.684  14.817
67012SOL     OW 2932   9.896  13.467  11.587
67012SOL    HW1 2933   9.919  13.507  11.504
67012SOL    HW2 2934   9.831  13.400  11.564
67013SOL     OW 2935   2.212   4.292  11.972
67013SOL    HW1 2936   2.253   4.264  11.890
67013SOL    HW2 2937   2.129   4.332  11.945
67014SOL     OW 2938   7.192   8.437   3.043
67014SOL    HW1 2939   7.108   8.390   3.048
67014SOL    HW2 2940   7.180   8.513   3.101
67015SOL     OW 2941  12.410  14.592   3.940
67015SOL    HW1 2942  12.341  14.557   3.883
67015SOL    HW2 2943  12.373  14.674   3.974
67016SOL     OW 2944   6.724   7.333   2.589
67016SOL    HW1 2945   6.786   7.363   2.655
67016SOL    HW2 2946   6.734   7.238   2.587
67017SOL     OW 2947   2.847   2.176   7.143
67017SOL    HW1 2948   2.897   2.098   7.120
67017SOL    HW2 2949   2.909   2.248   7.132
67018SOL     OW 2950  11.710  12.483   4.173
67018SOL    HW1 2951  11.702  12.388   4.165
67018SOL    HW2 2952  11.739  12.513   4.087
67019SOL     OW 2953   9.338  13.623   9.584
67019SOL    HW1 2954   9.269  13.558   9.593
67019SOL    HW2 2955   9.418  13.572   9.574
67020SOL     OW 2956   4.622  10.736   4.513
67020SOL    HW1 2957   4.710  10.770   4.496
67020SOL    HW2 2958   4.572  10.814   4.539
67021SOL     OW 2959   2.776   2.027  14.441
67021SOL    HW1 2960   2.801   1.937  14.419
67021SOL    HW2 2961   2.685   2.034  14.413
67022SOL     OW 2962   6.629   5.612  14.636
67022SOL    HW1 2963   6.664   5.701  14.641
67022SOL    HW2 2964   6.636   5.588  14.543
67023SOL     OW 2965  10.160   6.351   9.456
67023SOL    HW1 2966  10.124   6.348   9.367
67023SOL    HW2 2967  10.120   6.276   9.500
67024SOL     OW 2968   0.232   0.731  11.564
67024SOL    HW1 2969   0.148   0.694  11.591
67024SOL    HW2 2970   0.210   0.820  11.537
67025SOL     OW 2971  10.069  14.482  12.401
67025SOL    HW1 2972  10.070  14.399  12.353
67025SOL    HW2 2973  10.042  14.547  12.336
67026SOL     OW 2974  14.037   6.067   0.139
67026SOL    HW1 2975  14.050   6.079   0.233
67026SOL    HW2 2976  14.119   6.029   0.107
67027SOL     OW 2977   4.879  10.014  10.985
67027SOL    HW1 2978   4.837   9.938  10.945
67027SOL    HW2 2979   4.969  10.012  10.953
67028SOL     OW 2980   3.730   4.960   3.949
67028SOL    HW1 2981   3.701   5.043   3.911
67028SOL    HW2 2982   3.650   4.923   3.987
67029SOL     OW 2983   0.556   2.452  14.553
67029SOL    HW1 2984   0.528   2.400  14.629
67029SOL    HW2 2985   0.475   2.471  14.506
67030SOL     OW 2986   0.217  12.765  12.846
67030SOL    HW1 2987   0.212  12.801  12.935
67030SOL    HW2 2988   0.308  12.736  12.837
67031SOL     OW 2989  12.557   7.802   3.663
67031SOL    HW1 2990  12.605   7.856   3.600
67031SOL    HW2 2991  12.583   7.713   3.643
67032SOL     OW 2992   9.792   7.177   9.744
67032SOL    HW1 2993   9.776   7.266   9.775
67032SOL    HW2 2994   9.781   7.182   9.649
67033SOL     OW 2995   9.333  14.152  10.958
67033SOL    HW1 2996   9.280  14.092  11.011
67033SOL    HW2 2997   9.423  14.132  10.983
67034SOL     OW 2998   5.729  14.126   2.531
67034SOL    HW1 2999   5.798  14.122   2.597
67034SOL    HW2 3000   5.741  14.046   2.479
67035SOL     OW 3001  11.314   4.892   3.771
67035SOL    HW1 3002  11.400   4.850   3.768
67035SOL    HW2 3003  11.307   4.939   3.688
67036SOL     OW 3004   2.157   2.791   1.076
67036SOL    HW1 3005   2.238   2.826   1.039
67036SOL    HW2 3006   2.090   2.853   1.049
67037SOL     OW 3007   9.867   8.073  13.284
67037SOL    HW1 3008   9.883   8.080  13.378
67037SOL    HW2 3009   9.895   7.984  13.261
67038SOL     OW 3010  11.784  12.250  10.595
67038SOL    HW1 3011  11.730  12.218  10.523
67038SOL    HW2 3012  11.854  12.185  10.603
67039SOL     OW 3013   5.238   9.392   7.189
67039SOL    HW1 3014   5.276   9.306   7.168
67039SOL    HW2 3015   5.233   9.436   7.104
67040SOL     OW 3016   0.678  14.213   5.556
67040SOL    HW1 3017   0.594  14.176   5.584
67040SOL    HW2 3018   0.655  14.280   5.491
67041SOL     OW 3019   0.808  14.153   3.508
67041SOL    HW1 3020   0.786  14.148   3.415
67041SOL    HW2 3021   0.846  14.240   3.519
67042SOL     OW 3022  13.076   2.654   8.513
67042SOL    HW1 3023  13.144   2.689   8.570
67042SOL    HW2 3024  13.084   2.704   8.432
67043SOL     OW 3025   5.164   9.995   8.216
67043SOL    HW1 3026   5.178  10.089   8.228
67043SOL    HW2 3027   5.091   9.975   8.275
67044SOL     OW 3028   2.909   6.386   5.675
67044SOL    HW1 3029   2.995   6.383   5.718
67044SOL    HW2 3030   2.847   6.361   5.744
67045SOL     OW 3031   5.370   9.458   1.232
67045SOL    HW1 3032   5.449   9.459   1.178
67045SOL    HW2 3033   5.402   9.465   1.322
67046SOL     OW 3034   2.635   4.055   3.709
67046SOL    HW1 3035   2.594   4.132   3.668
67046SOL    HW2 3036   2.627   4.072   3.803
67047SOL     OW 3037   5.365   3.099  14.304
67047SOL    HW1 3038   5.404   3.118  14.389
67047SOL    HW2 3039   5.271   3.108  14.318
67048SOL     OW 3040   8.559  10.122   3.653
67048SOL    HW1 3041   8.631  10.079   3.607
67048SOL    HW2 3042   8.500  10.050   3.678
67049SOL     OW 3043  11.225   2.171  14.115
67049SOL    HW1 3044  11.309   2.191  14.074
67049SOL    HW2 3045  11.186   2.103  14.060
67050SOL     OW 3046   9.091  14.428   6.508
67050SOL    HW1 3047   9.028  14.398   6.573
67050SOL    HW2 3048   9.145  14.352   6.490
67051SOL     OW 3049   1.392   9.517   4.177
67051SOL    HW1 3050   1.405   9.462   4.099
67051SOL    HW2 3051   1.298   9.538   4.175
67052SOL     OW 3052   0.822   7.234   7.469
67052SOL    HW1 3053   0.779   7.149   7.461
67052SOL    HW2 3054   0.904   7.224   7.420
67053SOL     OW 3055   1.614   1.910   8.491
67053SOL    HW1 3056   1.520   1.926   8.494
67053SOL    HW2 3057   1.625   1.838   8.428
67054SOL     OW 3058   9.206  11.690   2.687
67054SOL    HW1 3059   9.225  11.778   2.656
67054SOL    HW2 3060   9.173  11.644   2.610
67055SOL     OW 3061  14.249   4.641  12.960
67055SOL    HW1 3062  14.263   4.675  12.871
67055SOL    HW2 3063  14.250   4.546  12.950
67056SOL     OW 3064  11.467   5.661   2.763
67056SOL    HW1 3065  11.392   5.625   2.810
67056SOL    HW2 3066  11.524   5.586   2.749
67057SOL     OW 3067   8.171   1.897   1.733
67057SOL    HW1 3068   8.115   1.975   1.727
67057SOL    HW2 3069   8.175   1.878   1.827
67058SOL     OW 3070   6.879   2.467  11.096
67058SOL    HW1 3071   6.801   2.463  11.041
67058SOL    HW2 3072   6.949   2.429  11.042
67059SOL     OW 3073   8.127   9.453   4.104
67059SOL    HW1 3074   8.133   9.524   4.040
67059SOL    HW2 3075   8.194   9.390   4.076
67060SOL     OW 3076   8.824  11.899   4.786
67060SOL    HW1 3077   8.806  11.936   4.699
67060SOL    HW2 3078   8.913  11.864   4.779
67061SOL     OW 3079  13.792  11.252   3.770
67061SOL    HW1 3080  13.783  11.321   3.705
67061SOL    HW2 3081  13.757  11.290   3.851
67062SOL     OW 3082   8.136   8.866   6.655
67062SOL    HW1 3083   8.172   8.850   6.567
67062SOL    HW2 3084   8.122   8.960   6.658
67063SOL     OW 3085  11.615  13.157   4.202
67063SOL    HW1 3086  11.661  13.134   4.121
67063SOL    HW2 3087  11.534  13.200   4.172
67064SOL     OW 3088   8.032   1.355   3.213
67064SOL    HW1 3089   7.968   1.425   3.227
67064SOL    HW2 3090   7.995   1.279   3.258
67065SOL     OW 3091  14.647   9.874   0.904
67065SOL    HW1 3092  14.689   9.942   0.957
67065SOL    HW2 3093  14.703   9.864   0.828
67066SOL     OW 3094   6.126   5.242   8.836
67066SOL    HW1 3095   6.048   5.262   8.887
67066SOL    HW2 3096   6.139   5.148   8.848
67067SOL     OW 3097   0.613  14.677   2.346
67067SOL    HW1 3098   0.631  14.754   2.401
67067SOL    HW2 3099   0.521  14.686   2.322
67068SOL     OW 3100  12.608   1.684  10.648
67068SOL    HW1 3101  12.542   1.741  10.609
67068SOL    HW2 3102  12.565   1.646  10.725
67069SOL     OW 3103  11.140   7.586   3.356
67069SOL    HW1 3104  11.044   7.586   3.351
67069SOL    HW2 3105  11.160   7.627   3.440
67070SOL     OW 3106   0.771  13.838  13.929
67070SOL    HW1 3107   0.795  13.755  13.887
67070SOL    HW2 3108   0.719  13.812  14.005
67071SOL     OW 3109   5.839  10.839   4.324
67071SOL    HW1 3110   5.747  10.853   4.345
67071SOL    HW2 3111   5.838  10.789   4.242
67072SOL     OW 3112  10.677   9.581   1.277
67072SOL    HW1 3113  10.595   9.538   1.300
67072SOL    HW2 3114  10.682   9.576   1.182
67073SOL     OW 3115  10.865   4.598  12.053
67073SOL    HW1 3116  10.864   4.607  11.958
67073SOL    HW2 3117  10.772   4.601  12.079
67074SOL     OW 3118  11.955  10.289   0.888
67074SOL    HW1 3119  11.868  10.288   0.849
67074SOL    HW2 3120  11.985  10.379   0.878
67075SOL     OW 3121  14.060   9.884  12.249
67075SOL    HW1 3122  13.990   9.821  12.230
67075SOL    HW2 3123  14.025   9.968  12.221
67076SOL     OW 3124   0.895  11.860   4.630
67076SOL    HW1 3125   0.982  11.895   4.651
67076SOL    HW2 3126   0.910  11.808   4.551
67077SOL     OW 3127   8.157  11.668   5.673
67077SOL    HW1 3128   8.154  11.642   5.581
67077SOL    HW2 3129   8.065  11.674   5.699
67078SOL     OW 3130  10.440   5.896  10.426
67078SOL    HW1 3131  10.506   5.875  10.361
67078SOL    HW2 3132  10.401   5.978  10.395
67079SOL     OW 3133   2.744   1.005   8.795
67079SOL    HW1 3134   2.692   1.017   8.715
67079SOL    HW2 3135   2.695   1.052   8.863
67080SOL     OW 3136  10.507  13.712   8.348
67080SOL    HW1 3137  10.585  13.699   8.293
67080SOL    HW2 3138  10.515  13.802   8.380
67081SOL     OW 3139  12.153   3.410   8.341
67081SOL    HW1 3140  12.098   3.432   8.266
67081SOL    HW2 3141  12.104   3.440   8.417
67082SOL     OW 3142  13.746  13.252   0.130
67082SOL    HW1 3143  13.841  13.252   0.140
67082SOL    HW2 3144  13.730  13.305   0.052
67083SOL     OW 3145  11.477  13.587  11.381
67083SOL    HW1 3146  11.464  13.619  11.292
67083SOL    HW2 3147  11.510  13.663  11.429
67084SOL     OW 3148   7.635   3.696  10.259
67084SOL    HW1 3149   7.610   3.680  10.349
67084SOL    HW2 3150   7.581   3.770  10.231
67085SOL     OW 3151   7.132  11.868   0.209
67085SOL    HW1 3152   7.206  11.889   0.151
67085SOL    HW2 3153   7.173  11.846   0.293
67086SOL     OW 3154  10.081   0.346  13.308
67086SOL    HW1 3155  10.125   0.420  13.348
67086SOL    HW2 3156  10.151   0.293  13.271
67087SOL     OW 3157  11.460   3.781   4.371
67087SOL    HW1 3158  11.484   3.711   4.431
67087SOL    HW2 3159  11.481   3.862   4.418
67088SOL     OW 3160   5.612   1.844   8.558
67088SOL    HW1 3161   5.640   1.790   8.632
67088SOL    HW2 3162   5.688   1.899   8.538
67089SOL     OW 3163  12.688   6.417   9.575
67089SOL    HW1 3164  12.734   6.500   9.588
67089SOL    HW2 3165  12.662   6.419   9.483
67090SOL     OW 3166  13.496   8.990  13.137
67090SOL    HW1 3167  13.545   9.051  13.193
67090SOL    HW2 3168  13.507   9.025  13.048
67091SOL     OW 3169   6.858  14.458  11.740
67091SOL    HW1 3170   6.773  14.443  11.698
67091SOL    HW2 3171   6.855  14.550  11.766
67092SOL     OW 3172   7.339   9.608  10.079
67092SOL    HW1 3173   7.318   9.568   9.994
67092SOL    HW2 3174   7.355   9.534  10.137
67093SOL     OW 3175   6.633   2.695  13.943
67093SOL    HW1 3176   6.640   2.627  13.877
67093SOL    HW2 3177   6.584   2.654  14.014
67094SOL     OW 3178  13.324  12.179   9.884
67094SOL    HW1 3179  13.314  12.083   9.883
67094SOL    HW2 3180  13.235  12.212   9.890
67095SOL     OW 3181   4.926   7.222   9.219
67095SOL    HW1 3182   4.974   7.148   9.254
67095SOL    HW2 3183   4.852   7.234   9.279
67096SOL     OW 3184   0.203   6.227   6.761
67096SOL    HW1 3185   0.161   6.242   6.677
67096SOL    HW2 3186   0.158   6.286   6.822
67097SOL     OW 3187  10.872   5.216   4.748
67097SOL    HW1 3188  10.938   5.282   4.771
67097SOL    HW2 3189  10.808   5.263   4.695
67098SOL     OW 3190  11.382  14.129   5.015
67098SOL    HW1 3191  11.335  14.097   4.939
67098SOL    HW2 3192  11.468  14.155   4.981
67099SOL     OW 3193   7.657  12.601   2.848
67099SOL    HW1 3194   7.626  12.662   2.782
67099SOL    HW2 3195   7.630  12.514   2.817
67100SOL     OW 3196  10.068   5.467   4.755
67100SOL    HW1 3197   9.987   5.506   4.788
67100SOL    HW2 3198  10.049   5.373   4.748
67101SOL     OW 3199   8.980   2.963  12.080
67101SOL    HW1 3200   9.056   2.908  12.058
67101SOL    HW2 3201   9.018   3.040  12.121
67102SOL     OW 3202  13.001   2.794   1.168
67102SOL    HW1 3203  12.949   2.841   1.233
67102SOL    HW2 3204  12.960   2.816   1.084
67103SOL     OW 3205   7.127   2.678   3.919
67103SOL    HW1 3206   7.145   2.589   3.948
67103SOL    HW2 3207   7.057   2.709   3.976
67104SOL     OW 3208   5.111   7.852  14.455
67104SOL    HW1 3209   5.184   7.830  14.513
67104SOL    HW2 3210   5.152   7.876  14.372
67105SOL     OW 3211  10.830   6.322  14.263
67105SOL    HW1 3212  10.919   6.288  14.256
67105SOL    HW2 3213  10.774   6.245  14.247
67106SOL     OW 3214   2.327  10.242  14.824
67106SOL    HW1 3215   2.383  10.317  14.844
67106SOL    HW2 3216   2.384  10.166  14.835
67107SOL     OW 3217  13.581  13.178   9.012
67107SOL    HW1 3218  13.603  13.270   8.998
67107SOL    HW2 3219  13.595  13.165   9.106
67108SOL     OW 3220   4.766   3.025  12.171
67108SOL    HW1 3221   4.674   3.030  12.143
67108SOL    HW2 3222   4.805   3.107  12.142
67109SOL     OW 3223  10.023   6.541   8.472
67109SOL    HW1 3224  10.094   6.492   8.431
67109SOL    HW2 3225   9.944   6.492   8.449
67110SOL     OW 3226   5.796  13.873   3.907
67110SOL    HW1 3227   5.754  13.927   3.841
67110SOL    HW2 3228   5.747  13.791   3.907
67111SOL     OW 3229   4.540  14.321  13.692
67111SOL    HW1 3230   4.479  14.374  13.639
67111SOL    HW2 3231   4.504  14.324  13.780
67112SOL     OW 3232   5.154   2.007  13.027
67112SOL    HW1 3233   5.210   2.014  12.949
67112SOL    HW2 3234   5.200   2.055  13.095
67113SOL     OW 3235   4.949   0.557   1.706
67113SOL    HW1 3236   4.897   0.481   1.682
67113SOL    HW2 3237   4.978   0.594   1.622
67114SOL     OW 3238  10.064   3.327   8.808
67114SOL    HW1 3239  10.034   3.416   8.822
67114SOL    HW2 3240  10.157   3.329   8.831
67115SOL     OW 3241  10.963  12.232  10.903
67115SOL    HW1 3242  10.931  12.254  10.816
67115SOL    HW2 3243  10.910  12.157  10.930
67116SOL     OW 3244  14.400  12.402  11.139
67116SOL    HW1 3245  14.462  12.455  11.088
67116SOL    HW2 3246  14.316  12.413  11.095
67117SOL     OW 3247   2.214   9.423   0.843
67117SOL    HW1 3248   2.216   9.364   0.767
67117SOL    HW2 3249   2.122   9.448   0.852
67118SOL     OW 3250   2.049   3.519   0.018
67118SOL    HW1 3251   2.115   3.553   0.078
67118SOL    HW2 3252   2.098   3.501  14.807
67119SOL     OW 3253   7.793  14.044   3.780
67119SOL    HW1 3254   7.699  14.052   3.796
67119SOL    HW2 3255   7.825  13.986   3.849
67120SOL     OW 3256   2.518   7.814  14.192
67120SOL    HW1 3257   2.583   7.805  14.122
67120SOL    HW2 3258   2.465   7.889  14.166
67121SOL     OW 3259   3.821   7.873   0.676
67121SOL    HW1 3260   3.757   7.889   0.607
67121SOL    HW2 3261   3.883   7.945   0.670
67122SOL     OW 3262  13.779  13.304   4.139
67122SOL    HW1 3263  13.772  13.242   4.067
67122SOL    HW2 3264  13.856  13.275   4.188
67123SOL     OW 3265   1.045   9.085   9.330
67123SOL    HW1 3266   1.044   9.086   9.426
67123SOL    HW2 3267   0.966   9.133   9.304
67124SOL     OW 3268   9.434   9.476   7.978
67124SOL    HW1 3269   9.419   9.480   7.884
67124SOL    HW2 3270   9.469   9.388   7.994
67125SOL     OW 3271  11.063  14.795   3.153
67125SOL    HW1 3272  10.990  14.734   3.146
67125SOL    HW2 3273  11.039  14.868   3.097
67126SOL     OW 3274   8.732   4.955   9.033
67126SOL    HW1 3275   8.658   5.012   9.014
67126SOL    HW2 3276   8.805   5.015   9.047
67127SOL     OW 3277   7.007   9.972   3.995
67127SOL    HW1 3278   7.101   9.955   3.992
67127SOL    HW2 3279   6.967   9.886   3.981
67128SOL     OW 3280   3.317  12.193   4.690
67128SOL    HW1 3281   3.313  12.157   4.779
67128SOL    HW2 3282   3.311  12.116   4.633
67129SOL     OW 3283   9.942   9.594   2.609
67129SOL    HW1 3284  10.023   9.564   2.649
67129SOL    HW2 3285   9.953   9.689   2.600
67130SOL     OW 3286  12.804  11.501  13.171
67130SOL    HW1 3287  12.800  11.592  13.140
67130SOL    HW2 3288  12.824  11.508  13.265
67131SOL     OW 3289   3.818   6.282   3.112
67131SOL    HW1 3290   3.789   6.229   3.186
67131SOL    HW2 3291   3.786   6.371   3.132
67132SOL     OW 3292  13.444   7.462   5.379
67132SOL    HW1 3293  13.404   7.378   5.356
67132SOL    HW2 3294  13.440   7.464   5.475
67133SOL     OW 3295   7.306  11.381  10.152
67133SOL    HW1 3296   7.386  11.398  10.102
67133SOL    HW2 3297   7.303  11.450  10.217
67134SOL     OW 3298   9.865   4.414   6.482
67134SOL    HW1 3299   9.811   4.469   6.425
67134SOL    HW2 3300   9.955   4.439   6.460
67135SOL     OW 3301   1.074   4.730  13.214
67135SOL    HW1 3302   1.131   4.721  13.138
67135SOL    HW2 3303   1.115   4.675  13.281
67136SOL     OW 3304   9.745   8.836  13.038
67136SOL    HW1 3305   9.705   8.769  13.094
67136SOL    HW2 3306   9.672   8.868  12.984
67137SOL     OW 3307   3.669  10.769   8.707
67137SOL    HW1 3308   3.672  10.678   8.678
67137SOL    HW2 3309   3.755  10.786   8.744
67138SOL     OW 3310  10.680   4.593   8.808
67138SOL    HW1 3311  10.624   4.563   8.880
67138SOL    HW2 3312  10.643   4.677   8.783
67139SOL     OW 3313   8.082  14.636   5.921
67139SOL    HW1 3314   8.007  14.586   5.888
67139SOL    HW2 3315   8.134  14.571   5.968
67140SOL     OW 3316   9.039   4.846  11.913
67140SOL    HW1 3317   8.973   4.881  11.853
67140SOL    HW2 3318   9.003   4.762  11.942
67141SOL     OW 3319  10.350   4.091   0.980
67141SOL    HW1 3320  10.435   4.067   1.017
67141SOL    HW2 3321  10.300   4.009   0.978
67142SOL     OW 3322   2.911   4.572   0.582
67142SOL    HW1 3323   2.821   4.571   0.549
67142SOL    HW2 3324   2.964   4.600   0.507
67143SOL     OW 3325   0.128   3.898  10.355
67143SOL    HW1 3326   0.121   3.993  10.365
67143SOL    HW2 3327   0.103   3.863  10.441
67144SOL     OW 3328  14.117  10.138   8.721
67144SOL    HW1 3329  14.161  10.164   8.802
67144SOL    HW2 3330  14.130  10.043   8.716
67145SOL     OW 3331   5.100   1.832  13.730
67145SOL    HW1 3332   5.130   1.780  13.804
67145SOL    HW2 3333   5.179   1.846  13.677
67146SOL     OW 3334   8.861   1.947  13.880
67146SOL    HW1 3335   8.839   1.938  13.973
67146SOL    HW2 3336   8.908   1.867  13.859
67147SOL     OW 3337   7.192   0.871   6.056
67147SOL    HW1 3338   7.266   0.916   6.094
67147SOL    HW2 3339   7.162   0.929   5.986
67148SOL     OW 3340   3.464   0.983  10.987
67148SOL    HW1 3341   3.547   1.028  11.001
67148SOL    HW2 3342   3.462   0.966  10.893
67149SOL     OW 3343   8.700  11.207   3.376
67149SOL    HW1 3344   8.784  11.165   3.357
67149SOL    HW2 3345   8.721  11.281   3.432
67150SOL     OW 3346   2.192   5.380   2.382
67150SOL    HW1 3347   2.108   5.399   2.424
67150SOL    HW2 3348   2.172   5.378   2.289
67151SOL     OW 3349  11.963   9.824   7.474
67151SOL    HW1 3350  11.892   9.888   7.465
67151SOL    HW2 3351  12.001   9.842   7.560
67152SOL     OW 3352   0.505  10.098  10.700
67152SOL    HW1 3353   0.496  10.002  10.703
67152SOL    HW2 3354   0.576  10.117  10.762
67153SOL     OW 3355   5.276   3.161   6.924
67153SOL    HW1 3356   5.259   3.076   6.883
67153SOL    HW2 3357   5.205   3.171   6.988
67154SOL     OW 3358   7.834   2.492  13.206
67154SOL    HW1 3359   7.821   2.514  13.114
67154SOL    HW2 3360   7.924   2.518  13.225
67155SOL     OW 3361   4.653   4.856   3.327
67155SOL    HW1 3362   4.704   4.860   3.246
67155SOL    HW2 3363   4.572   4.812   3.301
67156SOL     OW 3364   6.043   2.953  11.880
67156SOL    HW1 3365   6.108   2.894  11.919
67156SOL    HW2 3366   6.064   2.954  11.787
67157SOL     OW 3367  13.680   1.663  14.717
67157SOL    HW1 3368  13.744   1.639  14.784
67157SOL    HW2 3369  13.632   1.581  14.700
67158SOL     OW 3370   7.758   8.666  14.792
67158SOL    HW1 3371   7.811   8.744  14.810
67158SOL    HW2 3372   7.694   8.664  14.864
67159SOL     OW 3373  13.954  12.310   2.608
67159SOL    HW1 3374  13.948  12.325   2.702
67159SOL    HW2 3375  13.959  12.215   2.598
67160SOL     OW 3376  12.580  11.752  13.509
67160SOL    HW1 3377  12.669  11.751  13.473
67160SOL    HW2 3378  12.564  11.843  13.531
67161SOL     OW 3379  14.109   1.079   9.803
67161SOL    HW1 3380  14.160   1.151   9.767
67161SOL    HW2 3381  14.057   1.120   9.873
67162SOL     OW 3382  10.970   5.285   9.987
67162SOL    HW1 3383  11.001   5.343  10.056
67162SOL    HW2 3384  10.899   5.334   9.945
67163SOL     OW 3385  11.600  10.564  11.195
67163SOL    HW1 3386  11.652  10.492  11.161
67163SOL    HW2 3387  11.565  10.607  11.117
67164SOL     OW 3388   8.786  12.716   9.031
67164SOL    HW1 3389   8.700  12.685   9.058
67164SOL    HW2 3390   8.846  12.679   9.097
67165SOL     OW 3391   9.282   9.223   5.603
67165SOL    HW1 3392   9.202   9.189   5.641
67165SOL    HW2 3393   9.346   9.153   5.613
67166SOL     OW 3394  13.808   6.706   9.874
67166SOL    HW1 3395  13.788   6.797   9.898
67166SOL    HW2 3396  13.823   6.662   9.957
67167SOL     OW 3397   9.304   2.397   5.686
67167SOL    HW1 3398   9.305   2.492   5.687
67167SOL    HW2 3399   9.212   2.374   5.672
67168SOL     OW 3400   8.038  10.562   1.363
67168SOL    HW1 3401   7.989  10.566   1.445
67168SOL    HW2 3402   7.974  10.533   1.298
67169SOL     OW 3403  11.017   4.527  10.696
67169SOL    HW1 3404  11.108   4.525  10.667
67169SOL    HW2 3405  10.973   4.588  10.637
67170SOL     OW 3406   0.068   9.826   5.603
67170SOL    HW1 3407  14.854   9.784   5.623
67170SOL    HW2 3408   0.110   9.838   5.689
67171SOL     OW 3409   4.895  11.844  13.437
67171SOL    HW1 3410   4.876  11.771  13.378
67171SOL    HW2 3411   4.810  11.885  13.454
67172SOL     OW 3412   0.379   4.530   1.974
67172SOL    HW1 3413   0.412   4.448   2.011
67172SOL    HW2 3414   0.288   4.535   2.004
67173SOL     OW 3415   0.613   8.630  13.255
67173SOL    HW1 3416   0.572   8.712  13.281
67173SOL    HW2 3417   0.648   8.647  13.168
67174SOL     OW 3418   9.441   7.746   3.766
67174SOL    HW1 3419   9.451   7.651   3.769
67174SOL    HW2 3420   9.438   7.773   3.858
67175SOL     OW 3421   3.717   4.076   2.230
67175SOL    HW1 3422   3.651   4.116   2.287
67175SOL    HW2 3423   3.775   4.029   2.290
67176SOL     OW 3424  11.961   4.478  14.294
67176SOL    HW1 3425  12.005   4.475  14.209
67176SOL    HW2 3426  11.896   4.408  14.289
67177SOL     OW 3427  10.745  14.793   4.500
67177SOL    HW1 3428  10.811  14.732   4.533
67177SOL    HW2 3429  10.673  14.736   4.469
67178SOL     OW 3430   6.273   5.963  10.238
67178SOL    HW1 3431   6.245   5.879  10.203
67178SOL    HW2 3432   6.366   5.969  10.215
67179SOL     OW 3433   6.002  11.180  10.814
67179SOL    HW1 3434   5.979  11.157  10.904
67179SOL    HW2 3435   6.085  11.135  10.798
67180SOL     OW 3436  10.169  10.229   6.539
67180SOL    HW1 3437  10.083  10.193   6.518
67180SOL    HW2 3438  10.219  10.154   6.571
67181SOL     OW 3439  11.060  11.165   0.715
67181SOL    HW1 3440  11.091  11.229   0.778
67181SOL    HW2 3441  11.089  11.198   0.630
67182SOL     OW 3442   9.446   4.378   6.942
67182SOL    HW1 3443   9.384   4.430   6.994
67182SOL    HW2 3444   9.394   4.304   6.912
67183SOL     OW 3445   1.414  14.373   8.840
67183SOL    HW1 3446   1.469  14.295   8.851
67183SOL    HW2 3447   1.343  14.344   8.783
67184SOL     OW 3448   4.237  13.493  14.349
67184SOL    HW1 3449   4.180  13.439  14.403
67184SOL    HW2 3450   4.273  13.558  14.409
67185SOL     OW 3451   3.414   9.094   3.893
67185SOL    HW1 3452   3.450   9.029   3.834
67185SOL    HW2 3453   3.329   9.058   3.920
67186SOL     OW 3454   2.018   4.178  11.009
67186SOL    HW1 3455   1.925   4.172  11.032
67186SOL    HW2 3456   2.018   4.199  10.915
67187SOL     OW 3457   8.081  13.463   2.548
67187SOL    HW1 3458   8.157  13.434   2.599
67187SOL    HW2 3459   8.006  13.418   2.588
67188SOL     OW 3460   9.750   7.755   9.283
67188SOL    HW1 3461   9.673   7.722   9.236
67188SOL    HW2 3462   9.714   7.802   9.358
67189SOL     OW 3463  11.654   1.063  10.830
67189SOL    HW1 3464  11.628   1.140  10.780
67189SOL    HW2 3465  11.723   1.095  10.889
67190SOL     OW 3466  12.068   7.588   6.068
67190SOL    HW1 3467  12.133   7.639   6.021
67190SOL    HW2 3468  12.034   7.648   6.135
67191SOL     OW 3469   3.083   6.713   7.584
67191SOL    HW1 3470   3.064   6.637   7.639
67191SOL    HW2 3471   3.122   6.776   7.644
67192SOL     OW 3472  11.152  13.113  10.007
67192SOL    HW1 3473  11.236  13.076  10.032
67192SOL    HW2 3474  11.106  13.041   9.963
67193SOL     OW 3475   9.752   3.556   2.477
67193SOL    HW1 3476   9.844   3.582   2.486
67193SOL    HW2 3477   9.704   3.621   2.528
67194SOL     OW 3478  12.739   2.334   8.046
67194SOL    HW1 3479  12.780   2.399   8.102
67194SOL    HW2 3480  12.772   2.250   8.078
67195SOL     OW 3481   7.392  13.379   4.158
67195SOL    HW1 3482   7.455  13.362   4.228
67195SOL    HW2 3483   7.443  13.371   4.077
67196SOL     OW 3484  12.708   1.464   2.580
67196SOL    HW1 3485  12.631   1.515   2.604
67196SOL    HW2 3486  12.704   1.458   2.484
67197SOL     OW 3487   7.761   6.249  13.399
67197SOL    HW1 3488   7.758   6.339  13.369
67197SOL    HW2 3489   7.852   6.221  13.383
67198SOL     OW 3490  11.403   2.755  10.584
67198SOL    HW1 3491  11.491   2.727  10.609
67198SOL    HW2 3492  11.416   2.805  10.503
67199SOL     OW 3493  13.092  13.806   4.955
67199SOL    HW1 3494  13.026  13.853   5.006
67199SOL    HW2 3495  13.063  13.816   4.865
67200SOL     OW 3496   0.257  13.858   0.797
67200SOL    HW1 3497   0.300  13.776   0.773
67200SOL    HW2 3498   0.317  13.899   0.859
67201SOL     OW 3499   9.130   7.285   6.976
67201SOL    HW1 3500   9.096   7.203   6.940
67201SOL    HW2 3501   9.073   7.353   6.938
67202SOL     OW 3502  10.741  12.847  13.797
67202SOL    HW1 3503  10.683  12.814  13.729
67202SOL    HW2 3504  10.755  12.939  13.773
67203SOL     OW 3505   6.880   5.022   3.637
67203SOL    HW1 3506   6.791   5.045   3.663
67203SOL    HW2 3507   6.928   5.013   3.719
67204SOL     OW 3508   5.299   3.890  14.851
67204SOL    HW1 3509   5.342   3.967   0.017
67204SOL    HW2 3510   5.325   3.888  14.759
67205SOL     OW 3511   1.722   2.404   6.033
67205SOL    HW1 3512   1.692   2.494   6.020
67205SOL    HW2 3513   1.808   2.413   6.075
67206SOL     OW 3514  11.520  11.209   1.981
67206SOL    HW1 3515  11.485  11.288   1.939
67206SOL    HW2 3516  11.541  11.236   2.070
67207SOL     OW 3517  14.486   2.743   3.639
67207SOL    HW1 3518  14.480   2.787   3.555
67207SOL    HW2 3519  14.504   2.813   3.702
67208SOL     OW 3520  10.385  11.252  11.060
67208SOL    HW1 3521  10.426  11.186  11.115
67208SOL    HW2 3522  10.404  11.335  11.103
67209SOL     OW 3523  13.295   2.522  12.131
67209SOL    HW1 3524  13.227   2.580  12.167
67209SOL    HW2 3525  13.262   2.497  12.045
67210SOL     OW 3526   6.584   4.752  14.539
67210SOL    HW1 3527   6.620   4.714  14.619
67210SOL    HW2 3528   6.659   4.761  14.481
67211SOL     OW 3529   4.265   8.438  14.810
67211SOL    HW1 3530   4.258   8.469   0.031
67211SOL    HW2 3531   4.337   8.375  14.813
67212SOL     OW 3532  12.169   3.544   7.064
67212SOL    HW1 3533  12.184   3.554   7.158
67212SOL    HW2 3534  12.161   3.450   7.051
67213SOL     OW 3535   6.337  11.584   0.306
67213SOL    HW1 3536   6.304  11.537   0.229
67213SOL    HW2 3537   6.271  11.651   0.323
67214SOL     OW 3538  12.780   6.021   6.199
67214SOL    HW1 3539  12.771   5.950   6.134
67214SOL    HW2 3540  12.864   6.003   6.242
67215SOL     OW 3541  12.240  10.662  13.989
67215SOL    HW1 3542  12.203  10.670  14.077
67215SOL    HW2 3543  12.172  10.616  13.940
67216SOL     OW 3544   0.809   4.534   5.813
67216SOL    HW1 3545   0.881   4.486   5.855
67216SOL    HW2 3546   0.806   4.499   5.724
67217SOL     OW 3547  13.598   7.002   6.161
67217SOL    HW1 3548  13.548   6.998   6.242
67217SOL    HW2 3549  13.569   7.082   6.117
67218SOL     OW 3550   2.073   1.534   5.555
67218SOL    HW1 3551   2.027   1.597   5.500
67218SOL    HW2 3552   2.115   1.588   5.623
67219SOL     OW 3553  11.928  13.049   6.215
67219SOL    HW1 3554  11.867  13.120   6.193
67219SOL    HW2 3555  12.013  13.093   6.224
67220SOL     OW 3556   7.760   7.009  14.474
67220SOL    HW1 3557   7.786   7.100  14.488
67220SOL    HW2 3558   7.756   6.971  14.561
67221SOL     OW 3559   2.676   7.313  13.712
67221SOL    HW1 3560   2.742   7.286  13.776
67221SOL    HW2 3561   2.722   7.310  13.628
67222SOL     OW 3562   6.221   9.217  14.168
67222SOL    HW1 3563   6.147   9.203  14.108
67222SOL    HW2 3564   6.198   9.297  14.216
67223SOL     OW 3565   0.154   9.983   0.946
67223SOL    HW1 3566   0.127   9.912   1.004
67223SOL    HW2 3567   0.248   9.993   0.962
67224SOL     OW 3568   3.484  14.136   6.465
67224SOL    HW1 3569   3.518  14.153   6.378
67224SOL    HW2 3570   3.537  14.192   6.523
67225SOL     OW 3571   0.825   3.230   1.517
67225SOL    HW1 3572   0.732   3.218   1.495
67225SOL    HW2 3573   0.831   3.207   1.609
67226SOL     OW 3574   8.904   4.784   5.569
67226SOL    HW1 3575   8.967   4.744   5.629
67226SOL    HW2 3576   8.826   4.730   5.577
67227SOL     OW 3577   6.796   6.771   6.636
67227SOL    HW1 3578   6.808   6.748   6.544
67227SOL    HW2 3579   6.733   6.843   6.635
67228SOL     OW 3580  12.064   4.182   9.783
67228SOL    HW1 3581  12.045   4.132   9.863
67228SOL    HW2 3582  12.113   4.121   9.728
67229SOL     OW 3583   9.250   3.206  10.095
67229SOL    HW1 3584   9.183   3.249  10.147
67229SOL    HW2 3585   9.332   3.245  10.124
67230SOL     OW 3586   6.070   0.555   9.849
67230SOL    HW1 3587   6.077   0.534   9.942
67230SOL    HW2 3588   5.976   0.570   9.835
67231SOL     OW 3589   7.884   1.422   9.209
67231SOL    HW1 3590   7.893   1.405   9.303
67231SOL    HW2 3591   7.958   1.480   9.189
67232SOL     OW 3592   8.172  14.722   3.221
67232SOL    HW1 3593   8.141  14.659   3.286
67232SOL    HW2 3594   8.100  14.783   3.211
67233SOL     OW 3595  13.598   6.855   0.482
67233SOL    HW1 3596  13.555   6.871   0.566
67233SOL    HW2 3597  13.560   6.772   0.452
67234SOL     OW 3598   5.414   8.151   1.235
67234SOL    HW1 3599   5.391   8.221   1.174
67234SOL    HW2 3600   5.429   8.074   1.179
67235SOL     OW 3601  14.507   4.927  12.696
67235SOL    HW1 3602  14.558   4.865  12.749
67235SOL    HW2 3603  14.416   4.905  12.714
67236SOL     OW 3604   0.452   0.299  11.976
67236SOL    HW1 3605   0.484   0.210  11.991
67236SOL    HW2 3606   0.379   0.287  11.914
67237SOL     OW 3607   8.526   1.793  14.526
67237SOL    HW1 3608   8.438   1.794  14.487
67237SOL    HW2 3609   8.573   1.727  14.476
67238SOL     OW 3610   8.815   0.266  11.609
67238SOL    HW1 3611   8.868   0.336  11.571
67238SOL    HW2 3612   8.727   0.304  11.616
67239SOL     OW 3613  13.465   3.118   5.953
67239SOL    HW1 3614  13.551   3.155   5.973
67239SOL    HW2 3615  13.407   3.156   6.018
67240SOL     OW 3616  13.499   5.352   8.325
67240SOL    HW1 3617  13.412   5.327   8.355
67240SOL    HW2 3618  13.558   5.294   8.375
67241SOL     OW 3619   8.957   0.146  14.032
67241SOL    HW1 3620   8.948   0.232  13.990
67241SOL    HW2 3621   9.047   0.120  14.012
67242SOL     OW 3622   5.471   0.290   0.833
67242SOL    HW1 3623   5.421   0.291   0.915
67242SOL    HW2 3624   5.550   0.239   0.853
67243SOL     OW 3625   4.777   9.195  10.640
67243SOL    HW1 3626   4.867   9.172  10.617
67243SOL    HW2 3627   4.769   9.287  10.617
67244SOL     OW 3628  13.796   1.203  10.204
67244SOL    HW1 3629  13.808   1.179  10.296
67244SOL    HW2 3630  13.884   1.196  10.167
67245SOL     OW 3631  13.571   8.162   8.988
67245SOL    HW1 3632  13.546   8.191   9.075
67245SOL    HW2 3633  13.543   8.233   8.930
67246SOL     OW 3634   3.133   6.778   8.970
67246SOL    HW1 3635   3.203   6.718   8.997
67246SOL    HW2 3636   3.077   6.786   9.047
67247SOL     OW 3637   5.218   9.448   2.837
67247SOL    HW1 3638   5.210   9.380   2.903
67247SOL    HW2 3639   5.263   9.405   2.764
67248SOL     OW 3640   9.312   8.918   1.915
67248SOL    HW1 3641   9.298   8.824   1.929
67248SOL    HW2 3642   9.307   8.929   1.820
67249SOL     OW 3643  14.306  12.915   6.505
67249SOL    HW1 3644  14.249  12.889   6.433
67249SOL    HW2 3645  14.246  12.937   6.577
67250SOL     OW 3646  10.781   7.571   8.648
67250SOL    HW1 3647  10.797   7.534   8.735
67250SOL    HW2 3648  10.748   7.660   8.666
67251SOL     OW 3649   5.802   1.972   6.577
67251SOL    HW1 3650   5.747   1.894   6.585
67251SOL    HW2 3651   5.752   2.040   6.623
67252SOL     OW 3652   3.652   1.758  10.386
67252SOL    HW1 3653   3.621   1.667  10.386
67252SOL    HW2 3654   3.669   1.778  10.479
67253SOL     OW 3655  13.274   7.300   5.118
67253SOL    HW1 3656  13.249   7.322   5.029
67253SOL    HW2 3657  13.203   7.243   5.150
67254SOL     OW 3658  12.393   3.061   9.200
67254SOL    HW1 3659  12.398   2.970   9.172
67254SOL    HW2 3660  12.439   3.110   9.133
67255SOL     OW 3661  12.307   5.734   0.366
67255SOL    HW1 3662  12.297   5.649   0.322
67255SOL    HW2 3663  12.248   5.730   0.441
67256SOL     OW 3664  13.760   4.827   9.280
67256SOL    HW1 3665  13.824   4.774   9.327
67256SOL    HW2 3666  13.685   4.768   9.268
67257SOL     OW 3667   4.203   1.419   6.997
67257SOL    HW1 3668   4.152   1.427   6.917
67257SOL    HW2 3669   4.276   1.362   6.974
67258SOL     OW 3670  10.632   8.735   2.328
67258SOL    HW1 3671  10.624   8.822   2.290
67258SOL    HW2 3672  10.710   8.740   2.383
67259SOL     OW 3673  14.179   1.864   4.287
67259SOL    HW1 3674  14.128   1.896   4.362
67259SOL    HW2 3675  14.212   1.943   4.244
67260SOL     OW 3676   3.134  11.725  11.493
67260SOL    HW1 3677   3.071  11.797  11.493
67260SOL    HW2 3678   3.214  11.764  11.529
67261SOL     OW 3679  14.407   5.785   8.555
67261SOL    HW1 3680  14.348   5.795   8.480
67261SOL    HW2 3681  14.493   5.770   8.515
67262SOL     OW 3682  12.807   6.911   9.761
67262SOL    HW1 3683  12.896   6.927   9.731
67262SOL    HW2 3684  12.758   6.989   9.734
67263SOL     OW 3685   3.229   0.977   9.582
67263SOL    HW1 3686   3.228   0.888   9.617
67263SOL    HW2 3687   3.278   1.028   9.646
67264SOL     OW 3688   9.549   6.609  13.432
67264SOL    HW1 3689   9.488   6.609  13.358
67264SOL    HW2 3690   9.508   6.668  13.496
67265SOL     OW 3691  11.342   3.908  10.299
67265SOL    HW1 3692  11.261   3.877  10.256
67265SOL    HW2 3693  11.397   3.939  10.227
67266SOL     OW 3694  13.878  10.531   3.527
67266SOL    HW1 3695  13.937  10.522   3.601
67266SOL    HW2 3696  13.822  10.454   3.531
67267SOL     OW 3697   9.610   2.394   4.729
67267SOL    HW1 3698   9.554   2.470   4.741
67267SOL    HW2 3699   9.597   2.367   4.638
67268SOL     OW 3700   1.195  11.129   1.215
67268SOL    HW1 3701   1.188  11.044   1.258
67268SOL    HW2 3702   1.110  11.141   1.173
67269SOL     OW 3703  14.186   7.368   5.166
67269SOL    HW1 3704  14.202   7.355   5.260
67269SOL    HW2 3705  14.247   7.438   5.141
67270SOL     OW 3706   5.976   9.118   2.213
67270SOL    HW1 3707   5.956   9.128   2.306
67270SOL    HW2 3708   6.033   9.041   2.209
67271SOL     OW 3709   7.953   2.804  13.037
67271SOL    HW1 3710   8.008   2.877  13.010
67271SOL    HW2 3711   7.867   2.844  13.054
67272SOL     OW 3712   4.620   7.914   8.321
67272SOL    HW1 3713   4.692   7.870   8.275
67272SOL    HW2 3714   4.659   7.994   8.356
67273SOL     OW 3715   7.211   4.267  12.537
67273SOL    HW1 3716   7.266   4.288  12.461
67273SOL    HW2 3717   7.272   4.264  12.611
67274SOL     OW 3718  11.063   1.336   5.749
67274SOL    HW1 3719  11.097   1.314   5.662
67274SOL    HW2 3720  11.088   1.262   5.804
67275SOL     OW 3721   5.700   8.213   5.764
67275SOL    HW1 3722   5.718   8.304   5.740
67275SOL    HW2 3723   5.775   8.186   5.817
67276SOL     OW 3724   7.362   0.551   3.120
67276SOL    HW1 3725   7.335   0.487   3.055
67276SOL    HW2 3726   7.431   0.602   3.076
67277SOL     OW 3727  11.850  14.480  11.341
67277SOL    HW1 3728  11.880  14.519  11.423
67277SOL    HW2 3729  11.773  14.531  11.317
67278SOL     OW 3730   7.979   2.869  11.571
67278SOL    HW1 3731   8.050   2.916  11.614
67278SOL    HW2 3732   7.979   2.902  11.481
67279SOL     OW 3733   6.867  14.393   3.699
67279SOL    HW1 3734   6.914  14.443   3.765
67279SOL    HW2 3735   6.780  14.380   3.737
67280SOL     OW 3736   6.285   9.062   1.261
67280SOL    HW1 3737   6.335   9.122   1.316
67280SOL    HW2 3738   6.221   9.118   1.217
67281SOL     OW 3739   8.260  11.000   7.055
67281SOL    HW1 3740   8.322  10.993   6.982
67281SOL    HW2 3741   8.314  10.991   7.134
67282SOL     OW 3742  13.880   4.022   0.294
67282SOL    HW1 3743  13.785   4.017   0.302
67282SOL    HW2 3744  13.908   4.078   0.367
67283SOL     OW 3745   3.728  14.091   2.798
67283SOL    HW1 3746   3.764  14.104   2.710
67283SOL    HW2 3747   3.692  14.002   2.797
67284SOL     OW 3748  13.518   0.282   3.450
67284SOL    HW1 3749  13.590   0.228   3.484
67284SOL    HW2 3750  13.487   0.235   3.373
67285SOL     OW 3751   9.440  13.033   2.419
67285SOL    HW1 3752   9.353  13.000   2.396
67285SOL    HW2 3753   9.429  13.128   2.425
67286SOL     OW 3754  10.826   0.468  10.065
67286SOL    HW1 3755  10.865   0.519   9.995
67286SOL    HW2 3756  10.761   0.526  10.104
67287SOL     OW 3757   4.806  11.792  12.219
67287SOL    HW1 3758   4.846  11.751  12.296
67287SOL    HW2 3759   4.778  11.719  12.164
67288SOL     OW 3760   9.694  11.706   5.632
67288SOL    HW1 3761   9.600  11.699   5.621
67288SOL    HW2 3762   9.725  11.616   5.637
67289SOL     OW 3763   7.313  12.728   0.987
67289SOL    HW1 3764   7.325  12.817   0.953
67289SOL    HW2 3765   7.218  12.713   0.980
67290SOL     OW 3766  10.056  14.418   1.434
67290SOL    HW1 3767  10.133  14.374   1.399
67290SOL    HW2 3768  10.092  14.484   1.494
67291SOL     OW 3769   5.746   6.258   7.323
67291SOL    HW1 3770   5.713   6.170   7.345
67291SOL    HW2 3771   5.702   6.315   7.386
67292SOL     OW 3772   1.777   9.389   2.908
67292SOL    HW1 3773   1.797   9.342   2.990
67292SOL    HW2 3774   1.729   9.467   2.936
67293SOL     OW 3775   3.336   7.869   5.179
67293SOL    HW1 3776   3.311   7.794   5.232
67293SOL    HW2 3777   3.349   7.940   5.242
67294SOL     OW 3778  10.331  10.307   1.671
67294SOL    HW1 3779  10.240  10.289   1.647
67294SOL    HW2 3780  10.326  10.365   1.747
67295SOL     OW 3781   4.429   3.057   1.571
67295SOL    HW1 3782   4.338   3.030   1.577
67295SOL    HW2 3783   4.450   3.049   1.477
67296SOL     OW 3784   2.509   7.536   4.954
67296SOL    HW1 3785   2.508   7.467   4.888
67296SOL    HW2 3786   2.496   7.491   5.037
67297SOL     OW 3787   0.687   6.606   9.547
67297SOL    HW1 3788   0.748   6.533   9.560
67297SOL    HW2 3789   0.743   6.681   9.527
67298SOL     OW 3790   6.572   9.963   3.033
67298SOL    HW1 3791   6.566  10.033   2.967
67298SOL    HW2 3792   6.587  10.009   3.116
67299SOL     OW 3793  11.786  10.851   7.817
67299SOL    HW1 3794  11.783  10.858   7.721
67299SOL    HW2 3795  11.879  10.844   7.838
67300SOL     OW 3796  11.977   8.847  13.666
67300SOL    HW1 3797  11.882   8.850  13.676
67300SOL    HW2 3798  12.006   8.935  13.692
67301SOL     OW 3799  12.536  14.614  13.277
67301SOL    HW1 3800  12.573  14.591  13.362
67301SOL    HW2 3801  12.601  14.674  13.239
67302SOL     OW 3802  14.395   2.144   0.588
67302SOL    HW1 3803  14.437   2.149   0.502
67302SOL    HW2 3804  14.448   2.201   0.644
67303SOL     OW 3805  12.019  10.325   6.534
67303SOL    HW1 3806  12.022  10.315   6.439
67303SOL    HW2 3807  12.060  10.245   6.568
67304SOL     OW 3808   1.703   7.707  13.439
67304SOL    HW1 3809   1.702   7.778  13.376
67304SOL    HW2 3810   1.657   7.741  13.515
67305SOL     OW 3811  11.924  12.389  10.788
67305SOL    HW1 3812  11.863  12.349  10.727
67305SOL    HW2 3813  11.870  12.444  10.845
67306SOL     OW 3814  12.000   9.365  12.513
67306SOL    HW1 3815  12.009   9.460  12.524
67306SOL    HW2 3816  12.063   9.328  12.573
67307SOL     OW 3817  11.616  14.078   6.970
67307SOL    HW1 3818  11.550  14.087   6.901
67307SOL    HW2 3819  11.607  13.988   7.001
67308SOL     OW 3820   9.474  13.918   0.413
67308SOL    HW1 3821   9.549  13.970   0.383
67308SOL    HW2 3822   9.399  13.977   0.405
67309SOL     OW 3823   3.380   7.376   4.491
67309SOL    HW1 3824   3.377   7.389   4.586
67309SOL    HW2 3825   3.438   7.301   4.479
67310SOL     OW 3826   5.164   0.587   4.923
67310SOL    HW1 3827   5.182   0.625   4.838
67310SOL    HW2 3828   5.176   0.659   4.985
67311SOL     OW 3829  12.393  10.829   6.747
67311SOL    HW1 3830  12.373  10.771   6.820
67311SOL    HW2 3831  12.333  10.802   6.678
67312SOL     OW 3832  12.351   5.352   3.380
67312SOL    HW1 3833  12.422   5.416   3.375
67312SOL    HW2 3834  12.346   5.328   3.472
67313SOL     OW 3835   4.270   0.680  12.833
67313SOL    HW1 3836   4.345   0.621  12.839
67313SOL    HW2 3837   4.270   0.728  12.915
67314SOL     OW 3838   4.579   4.209  14.521
67314SOL    HW1 3839   4.586   4.129  14.469
67314SOL    HW2 3840   4.506   4.258  14.482
67315SOL     OW 3841   0.588   7.223   2.332
67315SOL    HW1 3842   0.605   7.312   2.302
67315SOL    HW2 3843   0.495   7.209   2.315
67316SOL     OW 3844  14.125   8.074   9.922
67316SOL    HW1 3845  14.214   8.066   9.888
67316SOL    HW2 3846  14.069   8.039   9.853
67317SOL     OW 3847   7.592   8.528   2.460
67317SOL    HW1 3848   7.680   8.560   2.441
67317SOL    HW2 3849   7.603   8.476   2.540
67318SOL     OW 3850  13.515   2.660  12.565
67318SOL    HW1 3851  13.545   2.702  12.645
67318SOL    HW2 3852  13.595   2.645  12.514
67319SOL     OW 3853  10.701   7.032  11.941
67319SOL    HW1 3854  10.607   7.022  11.953
67319SOL    HW2 3855  10.740   6.964  11.996
67320SOL     OW 3856   2.741   1.055   7.365
67320SOL    HW1 3857   2.759   1.018   7.451
67320SOL    HW2 3858   2.697   0.984   7.318
67321SOL     OW 3859   6.680  14.609   0.879
67321SOL    HW1 3860   6.619  14.646   0.943
67321SOL    HW2 3861   6.719  14.534   0.924
67322SOL     OW 3862   7.078   3.760   3.050
67322SOL    HW1 3863   7.055   3.764   2.957
67322SOL    HW2 3864   7.001   3.796   3.095
67323SOL     OW 3865  11.919   2.853   5.205
67323SOL    HW1 3866  11.940   2.897   5.123
67323SOL    HW2 3867  11.996   2.800   5.224
67324SOL     OW 3868  12.352   0.536  10.951
67324SOL    HW1 3869  12.322   0.457  10.905
67324SOL    HW2 3870  12.444   0.518  10.970
67325SOL     OW 3871   6.456   7.904   0.837
67325SOL    HW1 3872   6.504   7.954   0.904
67325SOL    HW2 3873   6.369   7.891   0.876
67326SOL     OW 3874   4.155  12.381  10.368
67326SOL    HW1 3875   4.214  12.314  10.334
67326SOL    HW2 3876   4.212  12.447  10.407
67327SOL     OW 3877  10.217  13.732   2.254
67327SOL    HW1 3878  10.264  13.728   2.337
67327SOL    HW2 3879  10.238  13.649   2.211
67328SOL     OW 3880  11.852   0.424  14.201
67328SOL    HW1 3881  11.924   0.404  14.141
67328SOL    HW2 3882  11.802   0.342  14.207
67329SOL     OW 3883  12.094   4.188  13.500
67329SOL    HW1 3884  12.004   4.170  13.526
67329SOL    HW2 3885  12.106   4.281  13.519
67330SOL     OW 3886  11.214  11.918   9.342
67330SOL    HW1 3887  11.193  11.913   9.249
67330SOL    HW2 3888  11.275  11.991   9.349
67331SOL     OW 3889   5.651   3.852   7.343
67331SOL    HW1 3890   5.560   3.822   7.347
67331SOL    HW2 3891   5.644   3.947   7.330
67332SOL     OW 3892  12.105   2.999   2.798
67332SOL    HW1 3893  12.118   3.093   2.815
67332SOL    HW2 3894  12.190   2.970   2.764
67333SOL     OW 3895   7.177  13.775  11.994
67333SOL    HW1 3896   7.131  13.847  12.037
67333SOL    HW2 3897   7.155  13.785  11.901
67334SOL     OW 3898   3.455   8.559  13.542
67334SOL    HW1 3899   3.412   8.506  13.610
67334SOL    HW2 3900   3.530   8.506  13.514
67335SOL     OW 3901   9.419   8.343   4.458
67335SOL    HW1 3902   9.328   8.321   4.480
67335SOL    HW2 3903   9.470   8.269   4.491
67336SOL     OW 3904  12.910   4.901  11.434
67336SOL    HW1 3905  12.930   4.880  11.525
67336SOL    HW2 3906  12.835   4.961  11.439
67337SOL     OW 3907   8.877  10.779   6.041
67337SOL    HW1 3908   8.896  10.719   6.114
67337SOL    HW2 3909   8.785  10.802   6.053
67338SOL     OW 3910  12.227   5.472   0.673
67338SOL    HW1 3911  12.296   5.413   0.704
67338SOL    HW2 3912  12.146   5.437   0.710
67339SOL     OW 3913   6.705   2.052   2.048
67339SOL    HW1 3914   6.703   2.078   1.956
67339SOL    HW2 3915   6.658   2.121   2.094
67340SOL     OW 3916   5.874  10.409   7.547
67340SOL    HW1 3917   5.817  10.340   7.514
67340SOL    HW2 3918   5.962  10.382   7.520
67341SOL     OW 3919   4.986  11.419   4.779
67341SOL    HW1 3920   4.983  11.376   4.864
67341SOL    HW2 3921   5.022  11.506   4.798
67342SOL     OW 3922  11.069   0.829  11.392
67342SOL    HW1 3923  11.000   0.796  11.450
67342SOL    HW2 3924  11.141   0.767  11.403
67343SOL     OW 3925   0.452  11.482   1.234
67343SOL    HW1 3926   0.505  11.535   1.294
67343SOL    HW2 3927   0.509  11.409   1.211
67344SOL     OW 3928  11.158  11.233   0.956
67344SOL    HW1 3929  11.127  11.210   1.043
67344SOL    HW2 3930  11.215  11.160   0.930
67345SOL     OW 3931   0.062   1.812   2.198
67345SOL    HW1 3932   0.109   1.735   2.167
67345SOL    HW2 3933  14.840   1.793   2.180
67346SOL     OW 3934  10.639  11.845  14.271
67346SOL    HW1 3935  10.666  11.756  14.249
67346SOL    HW2 3936  10.649  11.894  14.189
67347SOL     OW 3937  11.264   1.292   2.640
67347SOL    HW1 3938  11.302   1.378   2.654
67347SOL    HW2 3939  11.304   1.262   2.557
67348SOL     OW 3940  11.588  10.650   7.894
67348SOL    HW1 3941  11.496  10.663   7.869
67348SOL    HW2 3942  11.629  10.735   7.876
67349SOL     OW 3943  13.461  12.657   9.270
67349SOL    HW1 3944  13.386  12.700   9.311
67349SOL    HW2 3945  13.525  12.727   9.258
67350SOL     OW 3946   4.888   7.278  10.991
67350SOL    HW1 3947   4.937   7.223  11.052
67350SOL    HW2 3948   4.954   7.336  10.952
67351SOL     OW 3949  13.451  12.478   5.947
67351SOL    HW1 3950  13.394  12.521   6.011
67351SOL    HW2 3951  13.535  12.470   5.991
67352SOL     OW 3952  10.847   3.516   4.854
67352SOL    HW1 3953  10.891   3.597   4.829
67352SOL    HW2 3954  10.763   3.544   4.889
67353SOL     OW 3955  11.074   3.729   8.854
67353SOL    HW1 3956  11.019   3.798   8.819
67353SOL    HW2 3957  11.103   3.679   8.778
67354SOL     OW 3958   0.114   4.937  13.458
67354SOL    HW1 3959   0.174   4.864  13.473
67354SOL    HW2 3960   0.032   4.896  13.432
67355SOL     OW 3961   5.921  12.910   3.036
67355SOL    HW1 3962   6.000  12.913   3.090
67355SOL    HW2 3963   5.933  12.979   2.971
67356SOL     OW 3964   1.138  10.117  13.254
67356SOL    HW1 3965   1.047  10.104  13.277
67356SOL    HW2 3966   1.137  10.186  13.187
67357SOL     OW 3967   5.819  11.962   8.016
67357SOL    HW1 3968   5.839  12.050   8.050
67357SOL    HW2 3969   5.750  11.930   8.074
67358SOL     OW 3970   8.466   2.623   8.259
67358SOL    HW1 3971   8.463   2.547   8.317
67358SOL    HW2 3972   8.545   2.612   8.207
67359SOL     OW 3973  10.572  12.809   3.358
67359SOL    HW1 3974  10.535  12.744   3.298
67359SOL    HW2 3975  10.504  12.823   3.424
67360SOL     OW 3976   1.555  14.368   7.807
67360SOL    HW1 3977   1.627  14.404   7.860
67360SOL    HW2 3978   1.534  14.438   7.746
67361SOL     OW 3979   4.409   2.937  12.350
67361SOL    HW1 3980   4.426   3.028  12.375
67361SOL    HW2 3981   4.372   2.943  12.262
67362SOL     OW 3982   8.832  11.253   8.870
67362SOL    HW1 3983   8.769  11.225   8.803
67362SOL    HW2 3984   8.903  11.294   8.820
67363SOL     OW 3985   1.593  13.732  10.533
67363SOL    HW1 3986   1.603  13.715  10.439
67363SOL    HW2 3987   1.663  13.794  10.553
67364SOL     OW 3988   2.770   3.235  11.767
67364SOL    HW1 3989   2.739   3.324  11.752
67364SOL    HW2 3990   2.794   3.233  11.859
67365SOL     OW 3991  10.076   5.076   6.738
67365SOL    HW1 3992  10.134   5.148   6.714
67365SOL    HW2 3993  10.106   5.002   6.686
67366SOL     OW 3994   3.129   2.883   7.916
67366SOL    HW1 3995   3.054   2.914   7.866
67366SOL    HW2 3996   3.182   2.961   7.933
67367SOL     OW 3997  14.653  12.770   0.089
67367SOL    HW1 3998  14.566  12.803   0.110
67367SOL    HW2 3999  14.641  12.716   0.011
67368SOL     OW 4000   3.790  13.579   6.328
67368SOL    HW1 4001   3.768  13.574   6.235
67368SOL    HW2 4002   3.706  13.573   6.373
67369SOL     OW 4003   3.977   6.651   5.549
67369SOL    HW1 4004   4.003   6.678   5.460
67369SOL    HW2 4005   3.950   6.560   5.539
67370SOL     OW 4006   0.960  10.088   7.924
67370SOL    HW1 4007   1.005  10.173   7.921
67370SOL    HW2 4008   0.934  10.078   8.015
67371SOL     OW 4009  11.607  11.837   2.694
67371SOL    HW1 4010  11.541  11.844   2.625
67371SOL    HW2 4011  11.617  11.742   2.708
67372SOL     OW 4012  10.985   8.626  13.675
67372SOL    HW1 4013  11.054   8.687  13.699
67372SOL    HW2 4014  11.030   8.554  13.631
67373SOL     OW 4015  14.315   5.419  13.351
67373SOL    HW1 4016  14.275   5.488  13.403
67373SOL    HW2 4017  14.243   5.357  13.335
67374SOL     OW 4018  13.566   3.270  14.771
67374SOL    HW1 4019  13.584   3.321  14.850
67374SOL    HW2 4020  13.612   3.188  14.784
67375SOL     OW 4021   4.718  12.508  10.348
67375SOL    HW1 4022   4.671  12.427  10.329
67375SOL    HW2 4023   4.787  12.512  10.282
67376SOL     OW 4024   9.487   6.394   7.570
67376SOL    HW1 4025   9.522   6.388   7.481
67376SOL    HW2 4026   9.415   6.456   7.564
67377SOL     OW 4027  13.851  10.406  12.422
67377SOL    HW1 4028  13.893  10.471  12.367
67377SOL    HW2 4029  13.875  10.430  12.511
67378SOL     OW 4030   1.312   8.697   9.857
67378SOL    HW1 4031   1.365   8.775   9.842
67378SOL    HW2 4032   1.345   8.660   9.939
67379SOL     OW 4033   6.434   5.104   1.818
67379SOL    HW1 4034   6.454   5.183   1.868
67379SOL    HW2 4035   6.476   5.119   1.733
67380SOL     OW 4036   4.736   5.855  14.026
67380SOL    HW1 4037   4.646   5.885  14.040
67380SOL    HW2 4038   4.753   5.796  14.099
67381SOL     OW 4039  11.861   0.257   9.093
67381SOL    HW1 4040  11.944   0.271   9.138
67381SOL    HW2 4041  11.851   0.334   9.037
67382SOL     OW 4042   7.944   2.272   6.374
67382SOL    HW1 4043   8.008   2.316   6.318
67382SOL    HW2 4044   7.865   2.267   6.319
67383SOL     OW 4045  11.811   8.706  10.565
67383SOL    HW1 4046  11.764   8.624  10.581
67383SOL    HW2 4047  11.845   8.697  10.476
67384SOL     OW 4048   7.712  13.469   4.509
67384SOL    HW1 4049   7.727  13.564   4.511
67384SOL    HW2 4050   7.772  13.437   4.442
67385SOL     OW 4051   6.930   1.789   2.223
67385SOL    HW1 4052   6.998   1.752   2.280
67385SOL    HW2 4053   6.876   1.713   2.197
67386SOL     OW 4054   3.651   7.223  13.765
67386SOL    HW1 4055   3.630   7.135  13.733
67386SOL    HW2 4056   3.567   7.258  13.793
67387SOL     OW 4057  10.823   2.720  10.374
67387SOL    HW1 4058  10.739   2.704  10.332
67387SOL    HW2 4059  10.880   2.650  10.343
67388SOL     OW 4060   5.132   5.785  12.647
67388SOL    HW1 4061   5.160   5.786  12.556
67388SOL    HW2 4062   5.043   5.748  12.645
67389SOL     OW 4063  13.508   0.714   5.254
67389SOL    HW1 4064  13.578   0.724   5.318
67389SOL    HW2 4065  13.547   0.660   5.185
67390SOL     OW 4066  11.865  14.541  10.517
67390SOL    HW1 4067  11.771  14.553  10.506
67390SOL    HW2 4068  11.882  14.561  10.609
67391SOL     OW 4069   0.433   1.339   4.403
67391SOL    HW1 4070   0.469   1.416   4.446
67391SOL    HW2 4071   0.484   1.266   4.436
67392SOL     OW 4072   1.186   4.820   0.233
67392SOL    HW1 4073   1.270   4.833   0.189
67392SOL    HW2 4074   1.210   4.791   0.321
67393SOL     OW 4075   1.195  10.154   1.009
67393SOL    HW1 4076   1.274  10.184   1.054
67393SOL    HW2 4077   1.176  10.069   1.047
67394SOL     OW 4078   0.770   1.743  14.531
67394SOL    HW1 4079   0.791   1.712  14.442
67394SOL    HW2 4080   0.816   1.826  14.538
67395SOL     OW 4081   7.948  14.275   6.110
67395SOL    HW1 4082   7.875  14.214   6.096
67395SOL    HW2 4083   8.005  14.230   6.172
67396SOL     OW 4084   6.325   7.101   7.426
67396SOL    HW1 4085   6.334   7.176   7.485
67396SOL    HW2 4086   6.250   7.052   7.461
67397SOL     OW 4087  10.646   3.296  14.268
67397SOL    HW1 4088  10.551   3.312  14.270
67397SOL    HW2 4089  10.666   3.285  14.175
67398SOL     OW 4090   1.643   4.241   9.262
67398SOL    HW1 4091   1.603   4.293   9.332
67398SOL    HW2 4092   1.660   4.155   9.302
67399SOL     OW 4093  14.255   4.101   1.800
67399SOL    HW1 4094  14.283   4.018   1.762
67399SOL    HW2 4095  14.335   4.140   1.835
67400SOL     OW 4096  14.286  10.093   8.488
67400SOL    HW1 4097  14.255  10.146   8.562
67400SOL    HW2 4098  14.247  10.007   8.503
67401SOL     OW 4099   8.737   1.586  13.905
67401SOL    HW1 4100   8.738   1.671  13.948
67401SOL    HW2 4101   8.645   1.567  13.889
67402SOL     OW 4102   7.902   2.907  11.926
67402SOL    HW1 4103   7.881   2.918  12.019
67402SOL    HW2 4104   7.820   2.925  11.880
67403SOL     OW 4105   9.223  14.143   2.265
67403SOL    HW1 4106   9.148  14.184   2.307
67403SOL    HW2 4107   9.210  14.161   2.171
67404SOL     OW 4108  11.936   6.614   0.918
67404SOL    HW1 4109  12.016   6.658   0.946
67404SOL    HW2 4110  11.958   6.578   0.832
67405SOL     OW 4111   1.967   9.712  12.835
67405SOL    HW1 4112   1.890   9.766  12.817
67405SOL    HW2 4113   1.931   9.628  12.863
67406SOL     OW 4114   5.741   9.328  12.775
67406SOL    HW1 4115   5.647   9.339  12.789
67406SOL    HW2 4116   5.781   9.372  12.850
67407SOL     OW 4117  10.855  10.114   1.837
67407SOL    HW1 4118  10.844  10.157   1.752
67407SOL    HW2 4119  10.850  10.020   1.818
67408SOL     OW 4120   1.934  13.488  11.662
67408SOL    HW1 4121   2.022  13.526  11.668
67408SOL    HW2 4122   1.938  13.410  11.717
67409SOL     OW 4123  10.085   5.263  13.266
67409SOL    HW1 4124  10.127   5.180  13.241
67409SOL    HW2 4125   9.992   5.241  13.273
67410SOL     OW 4126   6.585   4.714   6.433
67410SOL    HW1 4127   6.598   4.807   6.415
67410SOL    HW2 4128   6.493   4.707   6.458
67411SOL     OW 4129  10.073  14.628   5.995
67411SOL    HW1 4130  10.109  14.642   6.082
67411SOL    HW2 4131  10.007  14.696   5.984
67412SOL     OW 4132  12.423   5.746   7.943
67412SOL    HW1 4133  12.377   5.787   8.017
67412SOL    HW2 4134  12.362   5.680   7.910
67413SOL     OW 4135  10.626  10.755   5.157
67413SOL    HW1 4136  10.681  10.681   5.135
67413SOL    HW2 4137  10.657  10.826   5.101
67414SOL     OW 4138  14.548   4.289   2.569
67414SOL    HW1 4139  14.463   4.253   2.595
67414SOL    HW2 4140  14.531   4.334   2.486
67415SOL     OW 4141   8.113  13.880   2.280
67415SOL    HW1 4142   8.193  13.909   2.323
67415SOL    HW2 4143   8.078  13.812   2.338
67416SOL     OW 4144  11.346   6.149   2.329
67416SOL    HW1 4145  11.256   6.128   2.351
67416SOL    HW2 4146  11.397   6.124   2.406
67417SOL     OW 4147   9.302   7.376   3.986
67417SOL    HW1 4148   9.232   7.408   3.929
67417SOL    HW2 4149   9.382   7.405   3.942
67418SOL     OW 4150   7.195   7.827   7.671
67418SOL    HW1 4151   7.281   7.808   7.707
67418SOL    HW2 4152   7.137   7.765   7.716
67419SOL     OW 4153   0.400  12.410   9.605
67419SOL    HW1 4154   0.369  12.478   9.665
67419SOL    HW2 4155   0.465  12.454   9.550
67420SOL     OW 4156  12.806   9.291   6.053
67420SOL    HW1 4157  12.800   9.243   5.970
67420SOL    HW2 4158  12.895   9.328   6.052
67421SOL     OW 4159  14.108  11.618  10.822
67421SOL    HW1 4160  14.107  11.590  10.914
67421SOL    HW2 4161  14.033  11.574  10.782
67422SOL     OW 4162  11.568  11.652   0.550
67422SOL    HW1 4163  11.603  11.581   0.603
67422SOL    HW2 4164  11.536  11.717   0.613
67423SOL     OW 4165   6.703   9.911   7.969
67423SOL    HW1 4166   6.614   9.876   7.978
67423SOL    HW2 4167   6.736   9.874   7.887
67424SOL     OW 4168  12.530   5.444  11.689
67424SOL    HW1 4169  12.579   5.365  11.713
67424SOL    HW2 4170  12.593   5.499  11.643
67425SOL     OW 4171   3.773   9.751   6.865
67425SOL    HW1 4172   3.756   9.820   6.801
67425SOL    HW2 4173   3.859   9.716   6.841
67426SOL     OW 4174   0.849  13.693   4.665
67426SOL    HW1 4175   0.898  13.766   4.627
67426SOL    HW2 4176   0.793  13.662   4.593
67427SOL     OW 4177   7.635   8.958   9.156
67427SOL    HW1 4178   7.608   9.041   9.117
67427SOL    HW2 4179   7.555   8.905   9.159
67428SOL     OW 4180   7.340   0.143  13.924
67428SOL    HW1 4181   7.249   0.161  13.905
67428SOL    HW2 4182   7.348   0.157  14.018
67429SOL     OW 4183   8.245   9.660   3.866
67429SOL    HW1 4184   8.299   9.652   3.945
67429SOL    HW2 4185   8.193   9.739   3.880
67430SOL     OW 4186  11.338   2.830   8.577
67430SOL    HW1 4187  11.429   2.804   8.566
67430SOL    HW2 4188  11.325   2.834   8.671
67431SOL     OW 4189   0.035  14.234   8.657
67431SOL    HW1 4190   0.022  14.176   8.581
67431SOL    HW2 4191  14.862  14.187   8.730
67432SOL     OW 4192   6.981   4.597   6.572
67432SOL    HW1 4193   6.982   4.605   6.668
67432SOL    HW2 4194   6.923   4.522   6.555
67433SOL     OW 4195   8.073  10.668   3.895
67433SOL    HW1 4196   8.104  10.687   3.983
67433SOL    HW2 4197   8.072  10.753   3.851
67434SOL     OW 4198  11.875   3.775   7.980
67434SOL    HW1 4199  11.894   3.766   7.886
67434SOL    HW2 4200  11.821   3.699   8.000
67435SOL     OW 4201   5.135   2.215   9.463
67435SOL    HW1 4202   5.078   2.167   9.523
67435SOL    HW2 4203   5.180   2.278   9.519
67436SOL     OW 4204   3.861  12.681  10.500
67436SOL    HW1 4205   3.807  12.717  10.571
67436SOL    HW2 4206   3.901  12.603  10.537
67437SOL     OW 4207   0.368  11.350   5.665
67437SOL    HW1 4208   0.447  11.403   5.676
67437SOL    HW2 4209   0.324  11.388   5.589
67438SOL     OW 4210   9.446   3.949   4.748
67438SOL    HW1 4211   9.387   4.024   4.761
67438SOL    HW2 4212   9.393   3.885   4.701
67439SOL     OW 4213   7.138   5.293  11.922
67439SOL    HW1 4214   7.206   5.267  11.860
67439SOL    HW2 4215   7.100   5.210  11.952
67440SOL     OW 4216  12.061   4.211   5.466
67440SOL    HW1 4217  12.030   4.289   5.511
67440SOL    HW2 4218  12.057   4.142   5.533
67441SOL     OW 4219   3.896  12.372   3.955
67441SOL    HW1 4220   3.848  12.290   3.944
67441SOL    HW2 4221   3.933  12.366   4.043
67442SOL     OW 4222   9.955   4.827   1.351
67442SOL    HW1 4223  10.041   4.868   1.350
67442SOL    HW2 4224   9.939   4.803   1.260
67443SOL     OW 4225   4.865   3.832  10.619
67443SOL    HW1 4226   4.801   3.790  10.676
67443SOL    HW2 4227   4.945   3.837  10.673
67444SOL     OW 4228   9.518  13.318  10.738
67444SOL    HW1 4229   9.510  13.337  10.831
67444SOL    HW2 4230   9.428  13.303  10.709
67445SOL     OW 4231   5.982   3.606   3.197
67445SOL    HW1 4232   6.046   3.579   3.130
67445SOL    HW2 4233   6.030   3.668   3.251
67446SOL     OW 4234   3.518  14.643   5.934
67446SOL    HW1 4235   3.459  14.569   5.920
67446SOL    HW2 4236   3.544  14.671   5.846
67447SOL     OW 4237  12.718  10.329   1.012
67447SOL    HW1 4238  12.807  10.347   1.041
67447SOL    HW2 4239  12.721  10.238   0.980
67448SOL     OW 4240   2.209   1.833   7.291
67448SOL    HW1 4241   2.263   1.802   7.219
67448SOL    HW2 4242   2.219   1.929   7.289
67449SOL     OW 4243   6.147   5.112  12.494
67449SOL    HW1 4244   6.088   5.049  12.534
67449SOL    HW2 4245   6.235   5.080  12.514
67450SOL     OW 4246  12.932   4.886   5.564
67450SOL    HW1 4247  12.934   4.982   5.575
67450SOL    HW2 4248  12.944   4.853   5.653
67451SOL     OW 4249   2.348  13.124   4.095
67451SOL    HW1 4250   2.286  13.113   4.167
67451SOL    HW2 4251   2.400  13.043   4.096
67452SOL     OW 4252   4.539   6.530   0.214
67452SOL    HW1 4253   4.592   6.551   0.291
67452SOL    HW2 4254   4.544   6.435   0.206
67453SOL     OW 4255   8.671   9.015  13.847
67453SOL    HW1 4256   8.669   8.926  13.882
67453SOL    HW2 4257   8.590   9.022  13.797
67454SOL     OW 4258   5.300  12.166   8.417
67454SOL    HW1 4259   5.358  12.136   8.347
67454SOL    HW2 4260   5.253  12.087   8.445
67455SOL     OW 4261   1.776   6.616  14.550
67455SOL    HW1 4262   1.788   6.568  14.468
67455SOL    HW2 4263   1.863   6.653  14.569
67456SOL     OW 4264   0.178   5.662  11.288
67456SOL    HW1 4265   0.097   5.703  11.319
67456SOL    HW2 4266   0.150   5.577  11.253
67457SOL     OW 4267  11.516  10.919  13.208
67457SOL    HW1 4268  11.527  10.976  13.133
67457SOL    HW2 4269  11.562  10.964  13.279
67458SOL     OW 4270   1.062   9.105   4.598
67458SOL    HW1 4271   1.156   9.091   4.587
67458SOL    HW2 4272   1.045   9.086   4.690
67459SOL     OW 4273  13.278  12.441   7.258
67459SOL    HW1 4274  13.228  12.477   7.185
67459SOL    HW2 4275  13.293  12.349   7.234
67460SOL     OW 4276   3.943   3.324   3.757
67460SOL    HW1 4277   3.986   3.398   3.800
67460SOL    HW2 4278   4.015   3.266   3.733
67461SOL     OW 4279   9.847   8.850   8.667
67461SOL    HW1 4280   9.937   8.828   8.644
67461SOL    HW2 4281   9.800   8.766   8.665
67462SOL     OW 4282   5.310  11.045   2.741
67462SOL    HW1 4283   5.283  11.063   2.831
67462SOL    HW2 4284   5.232  11.066   2.688
67463SOL     OW 4285   2.802   2.232   9.537
67463SOL    HW1 4286   2.756   2.171   9.480
67463SOL    HW2 4287   2.734   2.290   9.571
67464SOL     OW 4288   1.875  14.579   4.358
67464SOL    HW1 4289   1.808  14.645   4.379
67464SOL    HW2 4290   1.875  14.521   4.433
67465SOL     OW 4291   1.462  11.423  12.589
67465SOL    HW1 4292   1.418  11.385  12.513
67465SOL    HW2 4293   1.540  11.369  12.601
67466SOL     OW 4294  13.465   3.515   0.745
67466SOL    HW1 4295  13.538   3.503   0.685
67466SOL    HW2 4296  13.492   3.589   0.800
67467SOL     OW 4297   0.981   7.764   4.759
67467SOL    HW1 4298   1.050   7.829   4.761
67467SOL    HW2 4299   1.019   7.689   4.712
67468SOL     OW 4300   6.693  13.060   2.955
67468SOL    HW1 4301   6.682  13.154   2.972
67468SOL    HW2 4302   6.778  13.039   2.993
67469SOL     OW 4303   0.868   1.038  10.340
67469SOL    HW1 4304   0.849   1.032  10.247
67469SOL    HW2 4305   0.952   1.084  10.346
67470SOL     OW 4306   3.534  10.269   9.734
67470SOL    HW1 4307   3.616  10.314   9.755
67470SOL    HW2 4308   3.468  10.314   9.786
67471SOL     OW 4309   8.270  11.066   1.751
67471SOL    HW1 4310   8.193  11.019   1.719
67471SOL    HW2 4311   8.275  11.144   1.696
67472SOL     OW 4312  12.813  12.640   4.253
67472SOL    HW1 4313  12.873  12.715   4.257
67472SOL    HW2 4314  12.868  12.565   4.277
67473SOL     OW 4315  11.820   2.416  13.373
67473SOL    HW1 4316  11.915   2.424  13.379
67473SOL    HW2 4317  11.791   2.497  13.330
67474SOL     OW 4318   8.927  11.598   3.706
67474SOL    HW1 4319   8.915  11.679   3.656
67474SOL    HW2 4320   9.020  11.597   3.729
67475SOL     OW 4321  10.053   0.937  13.841
67475SOL    HW1 4322  10.072   1.024  13.878
67475SOL    HW2 4323  10.122   0.881  13.875
67476SOL     OW 4324  10.777   8.147  14.782
67476SOL    HW1 4325  10.871   8.129  14.780
67476SOL    HW2 4326  10.768   8.212  14.851
67477SOL     OW 4327   8.476   2.279   4.036
67477SOL    HW1 4328   8.545   2.247   4.093
67477SOL    HW2 4329   8.407   2.309   4.096
67478SOL     OW 4330  10.323   5.255   7.818
67478SOL    HW1 4331  10.376   5.176   7.809
67478SOL    HW2 4332  10.330   5.279   7.910
67479SOL     OW 4333   1.158   3.163  11.363
67479SOL    HW1 4334   1.209   3.233  11.403
67479SOL    HW2 4335   1.145   3.192  11.272
67480SOL     OW 4336   6.819  10.237   1.399
67480SOL    HW1 4337   6.887  10.174   1.424
67480SOL    HW2 4338   6.806  10.222   1.306
67481SOL     OW 4339  14.272   4.588   8.736
67481SOL    HW1 4340  14.290   4.674   8.774
67481SOL    HW2 4341  14.275   4.602   8.641
67482SOL     OW 4342  13.571  12.774  11.202
67482SOL    HW1 4343  13.503  12.711  11.226
67482SOL    HW2 4344  13.619  12.789  11.283
67483SOL     OW 4345  12.426  12.395   0.909
67483SOL    HW1 4346  12.490  12.326   0.925
67483SOL    HW2 4347  12.389  12.414   0.996
67484SOL     OW 4348   5.152  10.495   0.683
67484SOL    HW1 4349   5.178  10.480   0.592
67484SOL    HW2 4350   5.059  10.519   0.677
67485SOL     OW 4351   0.607   9.843   6.846
67485SOL    HW1 4352   0.636   9.933   6.831
67485SOL    HW2 4353   0.570   9.815   6.762
67486SOL     OW 4354   0.533  12.977   3.202
67486SOL    HW1 4355   0.450  12.939   3.231
67486SOL    HW2 4356   0.593  12.903   3.197
67487SOL     OW 4357   0.989   7.030   7.139
67487SOL    HW1 4358   1.077   7.003   7.111
67487SOL    HW2 4359   0.979   6.991   7.226
67488SOL     OW 4360   0.091   1.967   0.582
67488SOL    HW1 4361   0.135   1.918   0.651
67488SOL    HW2 4362   0.161   2.016   0.539
67489SOL     OW 4363   7.931   7.813   1.773
67489SOL    HW1 4364   7.896   7.782   1.690
67489SOL    HW2 4365   7.988   7.742   1.803
67490SOL     OW 4366   6.668   9.130   8.913
67490SOL    HW1 4367   6.748   9.085   8.886
67490SOL    HW2 4368   6.688   9.223   8.902
67491SOL     OW 4369  14.759   7.822   9.103
67491SOL    HW1 4370  14.818   7.866   9.042
67491SOL    HW2 4371  14.807   7.821   9.186
67492SOL     OW 4372   6.027   9.471  12.922
67492SOL    HW1 4373   6.044   9.382  12.889
67492SOL    HW2 4374   6.111   9.499  12.959
67493SOL     OW 4375   9.259   6.933   6.322
67493SOL    HW1 4376   9.325   6.952   6.390
67493SOL    HW2 4377   9.248   6.839   6.325
67494SOL     OW 4378  14.274   3.781  13.441
67494SOL    HW1 4379  14.200   3.839  13.458
67494SOL    HW2 4380  14.343   3.838  13.408
67495SOL     OW 4381  14.216   9.845   7.560
67495SOL    HW1 4382  14.275   9.772   7.542
67495SOL    HW2 4383  14.168   9.857   7.478
67496SOL     OW 4384   7.893   1.254  14.360
67496SOL    HW1 4385   7.846   1.175  14.333
67496SOL    HW2 4386   7.984   1.238  14.334
67497SOL     OW 4387   5.028   0.203   8.908
67497SOL    HW1 4388   4.971   0.256   8.964
67497SOL    HW2 4389   5.048   0.259   8.834
67498SOL     OW 4390   0.471   6.962   5.685
67498SOL    HW1 4391   0.436   7.004   5.764
67498SOL    HW2 4392   0.565   6.982   5.688
67499SOL     OW 4393   9.062  12.965  14.009
67499SOL    HW1 4394   9.062  12.942  13.916
67499SOL    HW2 4395   9.056  13.060  14.010
67500SOL     OW 4396   2.827   8.163  10.684
67500SOL    HW1 4397   2.813   8.241  10.630
67500SOL    HW2 4398   2.802   8.090  10.627
67501SOL     OW 4399  10.204   4.741   7.497
67501SOL    HW1 4400  10.171   4.652   7.500
67501SOL    HW2 4401  10.162   4.786   7.570
67502SOL     OW 4402   6.022   2.127  13.926
67502SOL    HW1 4403   5.987   2.195  13.985
67502SOL    HW2 4404   6.024   2.169  13.840
67503SOL     OW 4405  13.125   9.593   0.207
67503SOL    HW1 4406  13.053   9.549   0.253
67503SOL    HW2 4407  13.146   9.533   0.135
67504SOL     OW 4408   6.773   1.487  11.777
67504SOL    HW1 4409   6.717   1.420  11.817
67504SOL    HW2 4410   6.860   1.470  11.814
67505SOL     OW 4411   8.547  11.477   3.028
67505SOL    HW1 4412   8.508  11.434   3.104
67505SOL    HW2 4413   8.615  11.533   3.064
67506SOL     OW 4414  12.601   8.688  13.135
67506SOL    HW1 4415  12.542   8.764  13.135
67506SOL    HW2 4416  12.572   8.635  13.209
67507SOL     OW 4417   5.772   5.468   5.079
67507SOL    HW1 4418   5.708   5.397   5.066
67507SOL    HW2 4419   5.782   5.506   4.992
67508SOL     OW 4420   2.714   5.152   6.755
67508SOL    HW1 4421   2.785   5.156   6.819
67508SOL    HW2 4422   2.742   5.084   6.693
67509SOL     OW 4423  12.523   2.863  10.487
67509SOL    HW1 4424  12.442   2.833  10.529
67509SOL    HW2 4425  12.494   2.917  10.414
67510SOL     OW 4426   9.977   1.803   7.284
67510SOL    HW1 4427   9.980   1.709   7.301
67510SOL    HW2 4428  10.045   1.818   7.219
67511SOL     OW 4429  12.836  11.136   8.680
67511SOL    HW1 4430  12.843  11.113   8.587
67511SOL    HW2 4431  12.761  11.084   8.711
67512SOL     OW 4432  13.992   7.835  13.963
67512SOL    HW1 4433  13.902   7.850  13.934
67512SOL    HW2 4434  14.006   7.741  13.948
67513SOL     OW 4435   7.579   5.843   3.956
67513SOL    HW1 4436   7.486   5.821   3.949
67513SOL    HW2 4437   7.608   5.853   3.865
67514SOL     OW 4438  12.894   5.959   3.216
67514SOL    HW1 4439  12.937   6.037   3.253
67514SOL    HW2 4440  12.810   5.992   3.185
67515SOL     OW 4441   9.171   0.972  14.394
67515SOL    HW1 4442   9.240   0.906  14.381
67515SOL    HW2 4443   9.098   0.940  14.341
67516SOL     OW 4444   3.251   5.363   8.994
67516SOL    HW1 4445   3.294   5.288   9.035
67516SOL    HW2 4446   3.305   5.383   8.918
67517SOL     OW 4447   1.921  14.310  13.317
67517SOL    HW1 4448   1.953  14.349  13.399
67517SOL    HW2 4449   1.979  14.345  13.250
67518SOL     OW 4450   0.158   6.981   5.742
67518SOL    HW1 4451   0.236   7.034   5.755
67518SOL    HW2 4452   0.180   6.924   5.667
67519SOL     OW 4453   2.980   3.689  12.904
67519SOL    HW1 4454   2.986   3.715  12.996
67519SOL    HW2 4455   2.930   3.759  12.862
67520SOL     OW 4456   6.286   5.382   2.552
67520SOL    HW1 4457   6.290   5.290   2.579
67520SOL    HW2 4458   6.197   5.409   2.575
67521SOL     OW 4459   3.846  12.428   2.903
67521SOL    HW1 4460   3.917  12.411   2.965
67521SOL    HW2 4461   3.886  12.417   2.817
67522SOL     OW 4462   8.129   8.372   0.560
67522SOL    HW1 4463   8.145   8.413   0.645
67522SOL    HW2 4464   8.171   8.430   0.497
67523SOL     OW 4465  10.888  13.378   7.720
67523SOL    HW1 4466  10.889  13.352   7.627
67523SOL    HW2 4467  10.968  13.429   7.731
67524SOL     OW 4468  10.092   1.478  10.996
67524SOL    HW1 4469  10.146   1.444  10.925
67524SOL    HW2 4470  10.013   1.423  10.995
67525SOL     OW 4471   6.933   2.010   6.445
67525SOL    HW1 4472   7.019   2.047   6.426
67525SOL    HW2 4473   6.904   2.054   6.525
67526SOL     OW 4474   4.137  11.093  13.812
67526SOL    HW1 4475   4.068  11.049  13.762
67526SOL    HW2 4476   4.211  11.097  13.752
67527SOL     OW 4477   8.516   3.846   2.644
67527SOL    HW1 4478   8.605   3.872   2.669
67527SOL    HW2 4479   8.528   3.766   2.593
67528SOL     OW 4480   3.079   0.454  10.216
67528SOL    HW1 4481   3.168   0.425  10.239
67528SOL    HW2 4482   3.092   0.511  10.140
67529SOL     OW 4483  13.468   2.983   5.548
67529SOL    HW1 4484  13.379   2.961   5.521
67529SOL    HW2 4485  13.465   3.076   5.569
67530SOL     OW 4486   7.021   7.374  13.789
67530SOL    HW1 4487   7.068   7.408  13.865
67530SOL    HW2 4488   7.040   7.280  13.790
67531SOL     OW 4489   3.284   3.997   5.816
67531SOL    HW1 4490   3.235   3.941   5.755
67531SOL    HW2 4491   3.234   3.993   5.897
67532SOL     OW 4492   1.606   6.763  12.292
67532SOL    HW1 4493   1.662   6.744  12.367
67532SOL    HW2 4494   1.527   6.801  12.330
67533SOL     OW 4495  11.401  10.358  14.074
67533SOL    HW1 4496  11.347  10.281  14.092
67533SOL    HW2 4497  11.366  10.393  13.992
67534SOL     OW 4498   6.418   4.613   5.321
67534SOL    HW1 4499   6.346   4.655   5.368
67534SOL    HW2 4500   6.441   4.676   5.252
67535SOL     OW 4501   5.810   0.293  10.090
67535SOL    HW1 4502   5.723   0.253  10.093
67535SOL    HW2 4503   5.827   0.309   9.997
67536SOL     OW 4504   8.269   0.748   8.420
67536SOL    HW1 4505   8.315   0.769   8.502
67536SOL    HW2 4506   8.305   0.810   8.356
67537SOL     OW 4507   6.605   0.104  12.858
67537SOL    HW1 4508   6.565   0.185  12.826
67537SOL    HW2 4509   6.538   0.066  12.915
67538SOL     OW 4510   1.461   6.974   9.252
67538SOL    HW1 4511   1.528   6.975   9.321
67538SOL    HW2 4512   1.416   7.058   9.262
67539SOL     OW 4513   9.381  12.613   1.638
67539SOL    HW1 4514   9.391  12.696   1.592
67539SOL    HW2 4515   9.295  12.581   1.612
67540SOL     OW 4516   5.184   4.770   0.586
67540SOL    HW1 4517   5.250   4.708   0.618
67540SOL    HW2 4518   5.221   4.804   0.505
67541SOL     OW 4519  12.400   5.379   9.528
67541SOL    HW1 4520  12.461   5.452   9.536
67541SOL    HW2 4521  12.323   5.407   9.577
67542SOL     OW 4522   5.360  13.902   8.844
67542SOL    HW1 4523   5.416  13.971   8.810
67542SOL    HW2 4524   5.321  13.939   8.923
67543SOL     OW 4525   0.571   8.133  12.070
67543SOL    HW1 4526   0.640   8.126  12.136
67543SOL    HW2 4527   0.509   8.196  12.108
67544SOL     OW 4528  12.975  11.275   4.810
67544SOL    HW1 4529  12.915  11.319   4.751
67544SOL    HW2 4530  13.057  11.324   4.802
67545SOL     OW 4531   5.539   7.657  12.429
67545SOL    HW1 4532   5.617   7.678  12.479
67545SOL    HW2 4533   5.472   7.639  12.496
67546SOL     OW 4534   9.370  12.228   4.683
67546SOL    HW1 4535   9.332  12.168   4.618
67546SOL    HW2 4536   9.418  12.170   4.742
67547SOL     OW 4537  13.917   4.477   3.413
67547SOL    HW1 4538  13.929   4.382   3.405
67547SOL    HW2 4539  14.005   4.511   3.429
67548SOL     OW 4540   1.221  12.434   3.951
67548SOL    HW1 4541   1.242  12.350   3.992
67548SOL    HW2 4542   1.173  12.482   4.018
67549SOL     OW 4543   8.844   0.080   5.637
67549SOL    HW1 4544   8.749   0.090   5.638
67549SOL    HW2 4545   8.860   0.013   5.570
67550SOL     OW 4546   5.913   7.999  11.977
67550SOL    HW1 4547   5.886   7.935  12.042
67550SOL    HW2 4548   5.854   7.986  11.903
67551SOL     OW 4549   7.347   0.296  12.447
67551SOL    HW1 4550   7.308   0.342  12.372
67551SOL    HW2 4551   7.277   0.294  12.512
67552SOL     OW 4552   4.848   5.061   0.363
67552SOL    HW1 4553   4.863   5.146   0.323
67552SOL    HW2 4554   4.873   5.072   0.455
67553SOL     OW 4555   7.239  14.297   2.830
67553SOL    HW1 4556   7.146  14.312   2.810
67553SOL    HW2 4557   7.283  14.302   2.745
67554SOL     OW 4558  11.429  10.981   5.915
67554SOL    HW1 4559  11.388  11.020   5.837
67554SOL    HW2 4560  11.357  10.944   5.965
67555SOL     OW 4561   5.701   6.058   0.423
67555SOL    HW1 4562   5.784   6.022   0.452
67555SOL    HW2 4563   5.698   6.145   0.463
67556SOL     OW 4564   8.724   6.285   1.197
67556SOL    HW1 4565   8.674   6.366   1.206
67556SOL    HW2 4566   8.813   6.314   1.177
67557SOL     OW 4567   7.179  11.995  11.281
67557SOL    HW1 4568   7.162  11.971  11.372
67557SOL    HW2 4569   7.275  11.990  11.273
67558SOL     OW 4570  12.464  12.387  13.526
67558SOL    HW1 4571  12.421  12.321  13.582
67558SOL    HW2 4572  12.483  12.460  13.586
67559SOL     OW 4573   9.160   9.281   8.235
67559SOL    HW1 4574   9.136   9.350   8.173
67559SOL    HW2 4575   9.248   9.306   8.265
67560SOL     OW 4576  13.913   9.541   4.702
67560SOL    HW1 4577  13.987   9.573   4.754
67560SOL    HW2 4578  13.873   9.620   4.665
67561SOL     OW 4579   6.165   7.767   4.179
67561SOL    HW1 4580   6.254   7.739   4.158
67561SOL    HW2 4581   6.129   7.695   4.231
67562SOL     OW 4582   6.350  13.434  10.928
67562SOL    HW1 4583   6.404  13.513  10.930
67562SOL    HW2 4584   6.287  13.446  10.999
67563SOL     OW 4585  10.654   6.224  11.491
67563SOL    HW1 4586  10.689   6.191  11.574
67563SOL    HW2 4587  10.594   6.155  11.462
67564SOL     OW 4588  11.457   5.355  11.875
67564SOL    HW1 4589  11.391   5.414  11.838
67564SOL    HW2 4590  11.436   5.351  11.968
67565SOL     OW 4591  12.122   4.136  10.940
67565SOL    HW1 4592  12.048   4.127  10.880
67565SOL    HW2 4593  12.082   4.150  11.026
67566SOL     OW 4594   6.506   6.553   6.854
67566SOL    HW1 4595   6.496   6.598   6.769
67566SOL    HW2 4596   6.451   6.603   6.914
67567SOL     OW 4597  10.039  11.800   2.918
67567SOL    HW1 4598  10.124  11.810   2.961
67567SOL    HW2 4599   9.976  11.808   2.990
67568SOL     OW 4600  13.288  10.679  13.052
67568SOL    HW1 4601  13.198  10.647  13.057
67568SOL    HW2 4602  13.316  10.688  13.143
67569SOL     OW 4603   5.011  12.114   5.695
67569SOL    HW1 4604   5.039  12.111   5.603
67569SOL    HW2 4605   5.004  12.023   5.721
67570SOL     OW 4606   8.160   7.952   3.532
67570SOL    HW1 4607   8.101   8.024   3.508
67570SOL    HW2 4608   8.131   7.925   3.619
67571SOL     OW 4609  11.059   2.018   2.385
67571SOL    HW1 4610  11.010   1.939   2.407
67571SOL    HW2 4611  11.126   1.989   2.323
67572SOL     OW 4612  11.822   7.776   6.910
67572SOL    HW1 4613  11.777   7.788   6.994
67572SOL    HW2 4614  11.885   7.706   6.927
67573SOL     OW 4615   5.799   1.240   3.962
67573SOL    HW1 4616   5.840   1.183   4.026
67573SOL    HW2 4617   5.815   1.197   3.878
67574SOL     OW 4618  13.204   8.777   7.006
67574SOL    HW1 4619  13.210   8.682   6.999
67574SOL    HW2 4620  13.147   8.803   6.934
67575SOL     OW 4621   6.497  13.999  14.781
67575SOL    HW1 4622   6.450  13.940  14.722
67575SOL    HW2 4623   6.529  14.068  14.723
67576SOL     OW 4624   3.725   2.851  12.510
67576SOL    HW1 4625   3.660   2.798  12.463
67576SOL    HW2 4626   3.799   2.791  12.524
67577SOL     OW 4627   3.047   2.938  11.346
67577SOL    HW1 4628   2.982   2.991  11.393
67577SOL    HW2 4629   2.999   2.859  11.319
67578SOL     OW 4630  11.421  12.170   7.389
67578SOL    HW1 4631  11.464  12.129   7.314
67578SOL    HW2 4632  11.485  12.165   7.459
67579SOL     OW 4633  13.634   0.645   3.238
67579SOL    HW1 4634  13.645   0.563   3.191
67579SOL    HW2 4635  13.724   0.675   3.254
67580SOL     OW 4636  12.216   3.660   0.474
67580SOL    HW1 4637  12.297   3.710   0.461
67580SOL    HW2 4638  12.180   3.693   0.556
67581SOL     OW 4639   7.079  13.620   2.367
67581SOL    HW1 4640   7.172  13.633   2.348
67581SOL    HW2 4641   7.036  13.632   2.282
67582SOL     OW 4642   7.621   5.612   2.935
67582SOL    HW1 4643   7.697   5.582   2.884
67582SOL    HW2 4644   7.587   5.687   2.885
67583SOL     OW 4645   2.564   4.592  14.012
67583SOL    HW1 4646   2.629   4.551  13.954
67583SOL    HW2 4647   2.549   4.678  13.974
67584SOL     OW 4648  12.055   8.925   1.643
67584SOL    HW1 4649  12.093   8.881   1.567
67584SOL    HW2 4650  11.961   8.926   1.626
67585SOL     OW 4651   2.010   5.877   6.679
67585SOL    HW1 4652   1.999   5.868   6.773
67585SOL    HW2 4653   1.922   5.864   6.643
67586SOL     OW 4654   7.250   7.893   9.169
67586SOL    HW1 4655   7.250   7.802   9.199
67586SOL    HW2 4656   7.219   7.943   9.244
67587SOL     OW 4657   7.391  11.010  12.254
67587SOL    HW1 4658   7.322  11.042  12.313
67587SOL    HW2 4659   7.344  10.959  12.188
67588SOL     OW 4660   4.593   6.625   4.266
67588SOL    HW1 4661   4.588   6.594   4.356
67588SOL    HW2 4662   4.631   6.713   4.273
67589SOL     OW 4663   2.600   6.846  13.473
67589SOL    HW1 4664   2.652   6.920  13.442
67589SOL    HW2 4665   2.652   6.810  13.545
67590SOL     OW 4666  10.459  13.119  10.504
67590SOL    HW1 4667  10.386  13.081  10.455
67590SOL    HW2 4668  10.512  13.043  10.530
67591SOL     OW 4669  14.143  14.119   4.792
67591SOL    HW1 4670  14.140  14.214   4.796
67591SOL    HW2 4671  14.232  14.096   4.819
67592SOL     OW 4672  12.191  13.713   4.768
67592SOL    HW1 4673  12.248  13.672   4.703
67592SOL    HW2 4674  12.136  13.773   4.718
67593SOL     OW 4675  10.091   4.479   1.859
67593SOL    HW1 4676  10.109   4.567   1.890
67593SOL    HW2 4677  10.003   4.484   1.820
67594SOL     OW 4678   0.572  13.268   5.950
67594SOL    HW1 4679   0.604  13.316   6.026
67594SOL    HW2 4680   0.599  13.320   5.875
67595SOL     OW 4681   4.885  11.320   0.714
67595SOL    HW1 4682   4.864  11.356   0.801
67595SOL    HW2 4683   4.809  11.265   0.693
67596SOL     OW 4684  12.385  11.948   6.615
67596SOL    HW1 4685  12.368  11.912   6.528
67596SOL    HW2 4686  12.480  11.959   6.619
67597SOL     OW 4687  10.231   4.084   5.096
67597SOL    HW1 4688  10.190   4.170   5.107
67597SOL    HW2 4689  10.191   4.048   5.017
67598SOL     OW 4690  13.110   3.631  10.482
67598SOL    HW1 4691  13.194   3.670  10.457
67598SOL    HW2 4692  13.133   3.556  10.537
67599SOL     OW 4693   4.543   2.234   3.466
67599SOL    HW1 4694   4.475   2.302   3.466
67599SOL    HW2 4695   4.623   2.279   3.494
67600SOL     OW 4696  13.251  11.199   6.123
67600SOL    HW1 4697  13.335  11.193   6.169
67600SOL    HW2 4698  13.214  11.111   6.130
67601SOL     OW 4699   6.628   6.702  12.626
67601SOL    HW1 4700   6.684   6.723  12.701
67601SOL    HW2 4701   6.653   6.613  12.601
67602SOL     OW 4702   0.767  12.588  10.832
67602SOL    HW1 4703   0.806  12.611  10.748
67602SOL    HW2 4704   0.699  12.654  10.847
67603SOL     OW 4705  13.406   0.079   7.146
67603SOL    HW1 4706  13.381   0.072   7.054
67603SOL    HW2 4707  13.477   0.143   7.146
67604SOL     OW 4708   5.573   4.983   0.925
67604SOL    HW1 4709   5.631   4.998   0.999
67604SOL    HW2 4710   5.555   4.889   0.926
67605SOL     OW 4711   2.465  12.438   6.145
67605SOL    HW1 4712   2.435  12.502   6.081
67605SOL    HW2 4713   2.403  12.365   6.136
67606SOL     OW 4714  11.127  13.223   1.855
67606SOL    HW1 4715  11.079  13.222   1.938
67606SOL    HW2 4716  11.125  13.315   1.827
67607SOL     OW 4717   1.169   7.156  11.968
67607SOL    HW1 4718   1.245   7.138  11.914
67607SOL    HW2 4719   1.194   7.124  12.055
67608SOL     OW 4720   3.122  10.811   2.285
67608SOL    HW1 4721   3.121  10.780   2.376
67608SOL    HW2 4722   3.181  10.751   2.240
67609SOL     OW 4723   9.174   7.031   9.758
67609SOL    HW1 4724   9.189   6.986   9.674
67609SOL    HW2 4725   9.087   7.001   9.785
67610SOL     OW 4726  14.100   9.135  13.361
67610SOL    HW1 4727  14.122   9.224  13.389
67610SOL    HW2 4728  14.177   9.105  13.313
67611SOL     OW 4729   8.488   0.426  12.518
67611SOL    HW1 4730   8.462   0.337  12.543
67611SOL    HW2 4731   8.443   0.441  12.435
67612SOL     OW 4732   7.915   4.153  14.433
67612SOL    HW1 4733   7.887   4.228  14.379
67612SOL    HW2 4734   7.836   4.099  14.441
67613SOL     OW 4735  13.749   9.583  13.221
67613SOL    HW1 4736  13.795   9.500  13.236
67613SOL    HW2 4737  13.696   9.568  13.143
67614SOL     OW 4738   5.860   8.396   9.084
67614SOL    HW1 4739   5.794   8.397   9.015
67614SOL    HW2 4740   5.906   8.480   9.074
67615SOL     OW 4741   1.017   2.841   7.552
67615SOL    HW1 4742   0.985   2.888   7.628
67615SOL    HW2 4743   1.044   2.909   7.490
67616SOL     OW 4744   7.996  12.054   7.092
67616SOL    HW1 4745   8.084  12.050   7.129
67616SOL    HW2 4746   7.947  11.987   7.138
67617SOL     OW 4747  12.156  10.303   2.594
67617SOL    HW1 4748  12.197  10.225   2.634
67617SOL    HW2 4749  12.214  10.325   2.521
67618SOL     OW 4750   9.790   4.139   9.111
67618SOL    HW1 4751   9.792   4.091   9.194
67618SOL    HW2 4752   9.701   4.129   9.079
67619SOL     OW 4753   8.107   0.320   6.868
67619SOL    HW1 4754   8.078   0.266   6.942
67619SOL    HW2 4755   8.196   0.290   6.849
67620SOL     OW 4756   3.416   6.216   3.004
67620SOL    HW1 4757   3.444   6.260   2.924
67620SOL    HW2 4758   3.435   6.124   2.990
67621SOL     OW 4759   0.062  10.450  12.106
67621SOL    HW1 4760   0.102  10.368  12.077
67621SOL    HW2 4761   0.125  10.518  12.081
67622SOL     OW 4762   3.834  12.096   3.984
67622SOL    HW1 4763   3.804  12.036   3.916
67622SOL    HW2 4764   3.879  12.041   4.047
67623SOL     OW 4765  10.365   1.404   9.452
67623SOL    HW1 4766  10.295   1.465   9.473
67623SOL    HW2 4767  10.445   1.456   9.458
67624SOL     OW 4768   1.458   1.576   5.403
67624SOL    HW1 4769   1.528   1.627   5.444
67624SOL    HW2 4770   1.502   1.498   5.369
67625SOL     OW 4771  14.586   7.774  10.885
67625SOL    HW1 4772  14.676   7.807  10.889
67625SOL    HW2 4773  14.541   7.835  10.827
67626SOL     OW 4774   7.455  14.304  13.556
67626SOL    HW1 4775   7.475  14.359  13.480
67626SOL    HW2 4776   7.369  14.267  13.537
67627SOL     OW 4777   5.942   0.240   0.702
67627SOL    HW1 4778   6.008   0.178   0.671
67627SOL    HW2 4779   5.869   0.231   0.641
67628SOL     OW 4780   5.395   2.470   2.290
67628SOL    HW1 4781   5.331   2.527   2.332
67628SOL    HW2 4782   5.346   2.392   2.265
67629SOL     OW 4783   7.838   2.723   6.333
67629SOL    HW1 4784   7.891   2.654   6.373
67629SOL    HW2 4785   7.880   2.805   6.361
67630SOL     OW 4786  13.690   1.808  10.314
67630SOL    HW1 4787  13.641   1.803  10.395
67630SOL    HW2 4788  13.627   1.785  10.245
67631SOL     OW 4789   4.355   7.507   9.291
67631SOL    HW1 4790   4.329   7.431   9.343
67631SOL    HW2 4791   4.335   7.482   9.200
67632SOL     OW 4792  12.514   9.864   9.804
67632SOL    HW1 4793  12.567   9.929   9.850
67632SOL    HW2 4794  12.430   9.864   9.850
67633SOL     OW 4795  10.114   0.007   7.181
67633SOL    HW1 4796  10.107   0.027   7.274
67633SOL    HW2 4797  10.100   0.091   7.137
67634SOL     OW 4798   6.267  12.274   5.061
67634SOL    HW1 4799   6.300  12.191   5.094
67634SOL    HW2 4800   6.239  12.256   4.972
67635SOL     OW 4801   1.589   0.510   5.324
67635SOL    HW1 4802   1.545   0.442   5.273
67635SOL    HW2 4803   1.581   0.482   5.414
67636SOL     OW 4804   9.708   7.497   3.115
67636SOL    HW1 4805   9.678   7.463   3.200
67636SOL    HW2 4806   9.803   7.484   3.116
67637SOL     OW 4807   5.193   9.306   3.326
67637SOL    HW1 4808   5.181   9.211   3.325
67637SOL    HW2 4809   5.108   9.341   3.354
67638SOL     OW 4810   7.600   1.506   1.123
67638SOL    HW1 4811   7.601   1.521   1.218
67638SOL    HW2 4812   7.678   1.551   1.091
67639SOL     OW 4813   5.834  14.336   9.587
67639SOL    HW1 4814   5.827  14.336   9.683
67639SOL    HW2 4815   5.845  14.428   9.564
67640SOL     OW 4816   9.357   2.588  12.315
67640SOL    HW1 4817   9.287   2.535  12.277
67640SOL    HW2 4818   9.315   2.635  12.388
67641SOL     OW 4819   0.768   7.900   1.391
67641SOL    HW1 4820   0.770   7.831   1.325
67641SOL    HW2 4821   0.860   7.922   1.406
67642SOL     OW 4822   4.295   7.069   4.840
67642SOL    HW1 4823   4.259   7.010   4.774
67642SOL    HW2 4824   4.264   7.156   4.815
67643SOL     OW 4825   8.527   9.797   9.011
67643SOL    HW1 4826   8.460   9.729   9.021
67643SOL    HW2 4827   8.528   9.843   9.094
67644SOL     OW 4828  11.109   0.476   8.256
67644SOL    HW1 4829  11.050   0.472   8.332
67644SOL    HW2 4830  11.053   0.506   8.184
67645SOL     OW 4831   7.265  14.512   1.294
67645SOL    HW1 4832   7.309  14.428   1.295
67645SOL    HW2 4833   7.267  14.543   1.384
67646SOL     OW 4834   2.636   7.680   8.202
67646SOL    HW1 4835   2.610   7.643   8.287
67646SOL    HW2 4836   2.671   7.766   8.223
67647SOL     OW 4837   2.561   3.314   1.182
67647SOL    HW1 4838   2.477   3.270   1.166
67647SOL    HW2 4839   2.613   3.293   1.104
67648SOL     OW 4840  11.268   3.481   3.545
67648SOL    HW1 4841  11.199   3.437   3.496
67648SOL    HW2 4842  11.227   3.502   3.629
67649SOL     OW 4843   6.113   2.269  11.521
67649SOL    HW1 4844   6.135   2.193  11.467
67649SOL    HW2 4845   6.072   2.231  11.599
67650SOL     OW 4846  12.023   3.917   5.098
67650SOL    HW1 4847  12.079   3.928   5.021
67650SOL    HW2 4848  11.945   3.872   5.064
67651SOL     OW 4849   4.798   2.110  10.653
67651SOL    HW1 4850   4.849   2.170  10.599
67651SOL    HW2 4851   4.720   2.160  10.677
67652SOL     OW 4852   9.215   3.324   0.268
67652SOL    HW1 4853   9.207   3.401   0.213
67652SOL    HW2 4854   9.127   3.309   0.303
67653SOL     OW 4855   1.655  14.369   7.006
67653SOL    HW1 4856   1.628  14.309   7.076
67653SOL    HW2 4857   1.690  14.312   6.938
67654SOL     OW 4858  14.432   4.265   1.077
67654SOL    HW1 4859  14.453   4.281   0.984
67654SOL    HW2 4860  14.401   4.350   1.108
67655SOL     OW 4861   5.155  12.183   7.456
67655SOL    HW1 4862   5.122  12.250   7.516
67655SOL    HW2 4863   5.229  12.144   7.503
67656SOL     OW 4864   3.495  14.692   7.992
67656SOL    HW1 4865   3.511  14.719   8.082
67656SOL    HW2 4866   3.524  14.767   7.940
67657SOL     OW 4867  13.773   8.791  11.760
67657SOL    HW1 4868  13.761   8.763  11.669
67657SOL    HW2 4869  13.868   8.806  11.768
67658SOL     OW 4870  13.247   0.792  12.199
67658SOL    HW1 4871  13.289   0.708  12.214
67658SOL    HW2 4872  13.303   0.836  12.134
67659SOL     OW 4873   5.458  10.523   0.563
67659SOL    HW1 4874   5.414  10.454   0.513
67659SOL    HW2 4875   5.434  10.604   0.518
67660SOL     OW 4876   3.923   5.106   1.957
67660SOL    HW1 4877   3.836   5.074   1.981
67660SOL    HW2 4878   3.978   5.027   1.954
67661SOL     OW 4879   2.711   7.891   6.940
67661SOL    HW1 4880   2.632   7.876   6.889
67661SOL    HW2 4881   2.728   7.984   6.931
67662SOL     OW 4882   6.363   0.925   7.213
67662SOL    HW1 4883   6.287   0.881   7.176
67662SOL    HW2 4884   6.437   0.868   7.192
67663SOL     OW 4885  10.793  10.551   4.859
67663SOL    HW1 4886  10.872  10.597   4.888
67663SOL    HW2 4887  10.766  10.499   4.935
67664SOL     OW 4888   7.853  10.845   9.636
67664SOL    HW1 4889   7.781  10.784   9.620
67664SOL    HW2 4890   7.928  10.790   9.656
67665SOL     OW 4891   6.038  13.678   8.664
67665SOL    HW1 4892   5.947  13.662   8.688
67665SOL    HW2 4893   6.038  13.767   8.629
67666SOL     OW 4894  12.608  13.145   3.424
67666SOL    HW1 4895  12.666  13.116   3.495
67666SOL    HW2 4896  12.522  13.154   3.467
67667SOL     OW 4897  14.408   7.580   9.563
67667SOL    HW1 4898  14.474   7.625   9.510
67667SOL    HW2 4899  14.454   7.505   9.600
67668SOL     OW 4900   7.220   5.106   1.824
67668SOL    HW1 4901   7.132   5.070   1.829
67668SOL    HW2 4902   7.278   5.031   1.839
67669SOL     OW 4903   1.496  13.162   9.117
67669SOL    HW1 4904   1.536  13.224   9.178
67669SOL    HW2 4905   1.570  13.128   9.065
67670SOL     OW 4906  12.348  11.320   0.416
67670SOL    HW1 4907  12.315  11.248   0.470
67670SOL    HW2 4908  12.389  11.276   0.341
67671SOL     OW 4909   6.775  14.703   8.794
67671SOL    HW1 4910   6.782  14.665   8.881
67671SOL    HW2 4911   6.803  14.633   8.735
67672SOL     OW 4912  12.703   2.372   7.475
67672SOL    HW1 4913  12.703   2.284   7.512
67672SOL    HW2 4914  12.716   2.430   7.550
67673SOL     OW 4915   0.272   4.666   1.558
67673SOL    HW1 4916   0.293   4.612   1.482
67673SOL    HW2 4917   0.216   4.611   1.612
67674SOL     OW 4918   4.538  12.087   3.577
67674SOL    HW1 4919   4.590  12.018   3.618
67674SOL    HW2 4920   4.448  12.059   3.588
67675SOL     OW 4921  13.103   5.684   2.706
67675SOL    HW1 4922  13.074   5.616   2.766
67675SOL    HW2 4923  13.028   5.699   2.648
67676SOL     OW 4924   2.565   9.004   6.103
67676SOL    HW1 4925   2.503   9.064   6.144
67676SOL    HW2 4926   2.642   9.058   6.083
67677SOL     OW 4927   3.925   0.535   8.118
67677SOL    HW1 4928   3.921   0.535   8.214
67677SOL    HW2 4929   3.850   0.483   8.091
67678SOL     OW 4930  10.356   5.984  11.789
67678SOL    HW1 4931  10.285   5.925  11.764
67678SOL    HW2 4932  10.379   6.030  11.708
67679SOL     OW 4933   6.238  12.266  11.561
67679SOL    HW1 4934   6.264  12.343  11.611
67679SOL    HW2 4935   6.297  12.196  11.592
67680SOL     OW 4936   1.312  13.897   9.002
67680SOL    HW1 4937   1.384  13.902   9.065
67680SOL    HW2 4938   1.351  13.924   8.919
67681SOL     OW 4939   2.319   6.943   9.736
67681SOL    HW1 4940   2.390   6.891   9.698
67681SOL    HW2 4941   2.310   6.910   9.825
67682SOL     OW 4942   4.987   3.450   6.836
67682SOL    HW1 4943   4.972   3.539   6.804
67682SOL    HW2 4944   5.077   3.452   6.870
67683SOL     OW 4945   2.022   8.418  12.272
67683SOL    HW1 4946   2.091   8.399  12.335
67683SOL    HW2 4947   1.976   8.494  12.307
67684SOL     OW 4948  14.014  11.909   7.539
67684SOL    HW1 4949  14.067  11.930   7.616
67684SOL    HW2 4950  13.932  11.875   7.575
67685SOL     OW 4951   3.340   9.527   1.118
67685SOL    HW1 4952   3.250   9.499   1.100
67685SOL    HW2 4953   3.338   9.558   1.208
67686SOL     OW 4954  11.438   3.499   5.959
67686SOL    HW1 4955  11.362   3.532   5.911
67686SOL    HW2 4956  11.443   3.406   5.935
67687SOL     OW 4957   1.535  10.874   7.435
67687SOL    HW1 4958   1.527  10.879   7.530
67687SOL    HW2 4959   1.616  10.825   7.420
67688SOL     OW 4960   6.795   3.248  10.189
67688SOL    HW1 4961   6.735   3.305  10.237
67688SOL    HW2 4962   6.881   3.265  10.229
67689SOL     OW 4963   8.369   6.206  10.951
67689SOL    HW1 4964   8.421   6.220  10.872
67689SOL    HW2 4965   8.345   6.114  10.949
67690SOL     OW 4966   0.265  12.453  12.636
67690SOL    HW1 4967   0.305  12.540  12.633
67690SOL    HW2 4968   0.277  12.418  12.547
67691SOL     OW 4969  13.936   8.367   8.284
67691SOL    HW1 4970  13.960   8.336   8.197
67691SOL    HW2 4971  13.951   8.292   8.342
67692SOL     OW 4972  11.347   7.321   5.530
67692SOL    HW1 4973  11.332   7.352   5.441
67692SOL    HW2 4974  11.422   7.262   5.523
67693SOL     OW 4975   9.580   7.236   7.865
67693SOL    HW1 4976   9.521   7.183   7.918
67693SOL    HW2 4977   9.611   7.176   7.797
67694SOL     OW 4978   8.339   7.951   9.293
67694SOL    HW1 4979   8.265   7.936   9.352
67694SOL    HW2 4980   8.325   8.039   9.259
67695SOL     OW 4981   5.440   4.344  10.895
67695SOL    HW1 4982   5.403   4.256  10.894
67695SOL    HW2 4983   5.400   4.386  10.971
67696SOL     OW 4984  13.093   3.916   7.162
67696SOL    HW1 4985  13.067   3.878   7.078
67696SOL    HW2 4986  13.033   3.877   7.225
67697SOL     OW 4987   1.237   8.413   7.542
67697SOL    HW1 4988   1.183   8.370   7.476
67697SOL    HW2 4989   1.327   8.395   7.515
67698SOL     OW 4990   5.422   1.176  12.517
67698SOL    HW1 4991   5.400   1.269  12.524
67698SOL    HW2 4992   5.508   1.174  12.476
67699SOL     OW 4993   1.436   1.579   0.670
67699SOL    HW1 4994   1.514   1.526   0.687
67699SOL    HW2 4995   1.381   1.567   0.748
67700SOL     OW 4996   6.511   8.040  14.450
67700SOL    HW1 4997   6.506   7.954  14.490
67700SOL    HW2 4998   6.448   8.037  14.378
67701SOL     OW 4999   9.357   8.483  11.848
67701SOL    HW1 5000   9.436   8.454  11.801
67701SOL    HW2 5001   9.334   8.408  11.903
67702SOL     OW 5002   8.832   3.273  14.381
67702SOL    HW1 5003   8.905   3.305  14.434
67702SOL    HW2 5004   8.757   3.273  14.440
67703SOL     OW 5005   2.562   3.990   4.766
67703SOL    HW1 5006   2.544   4.035   4.683
67703SOL    HW2 5007   2.476   3.984   4.809
67704SOL     OW 5008   0.406   6.339   8.642
67704SOL    HW1 5009   0.458   6.271   8.686
67704SOL    HW2 5010   0.318   6.330   8.680
67705SOL     OW 5011   7.696   0.991   4.190
67705SOL    HW1 5012   7.725   0.997   4.099
67705SOL    HW2 5013   7.656   0.904   4.196
67706SOL     OW 5014  11.930  10.089   9.864
67706SOL    HW1 5015  11.955  10.150   9.934
67706SOL    HW2 5016  11.972  10.007   9.888
67707SOL     OW 5017   5.488   4.301   8.854
67707SOL    HW1 5018   5.442   4.232   8.807
67707SOL    HW2 5019   5.551   4.256   8.910
67708SOL     OW 5020   0.024   8.400  14.725
67708SOL    HW1 5021   0.048   8.466  14.791
67708SOL    HW2 5022   0.092   8.408  14.658
67709SOL     OW 5023   6.883   0.883   1.189
67709SOL    HW1 5024   6.921   0.966   1.161
67709SOL    HW2 5025   6.861   0.897   1.281
67710SOL     OW 5026   4.567  11.216   8.618
67710SOL    HW1 5027   4.488  11.165   8.636
67710SOL    HW2 5028   4.535  11.303   8.595
67711SOL     OW 5029   5.539   2.561  10.000
67711SOL    HW1 5030   5.526   2.615  10.078
67711SOL    HW2 5031   5.488   2.482  10.018
67712SOL     OW 5032   4.641   7.280  10.608
67712SOL    HW1 5033   4.735   7.265  10.595
67712SOL    HW2 5034   4.607   7.293  10.520
67713SOL     OW 5035   4.399   5.624   3.979
67713SOL    HW1 5036   4.356   5.644   3.896
67713SOL    HW2 5037   4.436   5.536   3.967
67714SOL     OW 5038  14.095  13.425   5.864
67714SOL    HW1 5039  14.020  13.389   5.818
67714SOL    HW2 5040  14.150  13.464   5.796
67715SOL     OW 5041   8.959   3.657   0.428
67715SOL    HW1 5042   8.906   3.665   0.349
67715SOL    HW2 5043   9.044   3.625   0.397
67716SOL     OW 5044   1.030   5.553   8.154
67716SOL    HW1 5045   0.987   5.634   8.126
67716SOL    HW2 5046   0.990   5.533   8.238
67717SOL     OW 5047   3.444   8.360  12.709
67717SOL    HW1 5048   3.533   8.383  12.733
67717SOL    HW2 5049   3.407   8.440  12.672
67718SOL     OW 5050  14.723   2.759  10.871
67718SOL    HW1 5051  14.782   2.826  10.836
67718SOL    HW2 5052  14.688   2.715  10.793
67719SOL     OW 5053  13.871  12.413   8.380
67719SOL    HW1 5054  13.831  12.451   8.458
67719SOL    HW2 5055  13.886  12.487   8.322
67720SOL     OW 5056  11.003  14.573  10.588
67720SOL    HW1 5057  11.089  14.604  10.559
67720SOL    HW2 5058  11.018  14.482  10.613
67721SOL     OW 5059   1.822  12.987   8.268
67721SOL    HW1 5060   1.901  12.956   8.224
67721SOL    HW2 5061   1.827  12.948   8.356
67722SOL     OW 5062   4.167  13.688   0.490
67722SOL    HW1 5063   4.141  13.695   0.398
67722SOL    HW2 5064   4.247  13.740   0.496
67723SOL     OW 5065   4.991  11.284   3.713
67723SOL    HW1 5066   4.983  11.206   3.658
67723SOL    HW2 5067   5.079  11.317   3.695
67724SOL     OW 5068  12.212   4.320   4.323
67724SOL    HW1 5069  12.193   4.354   4.410
67724SOL    HW2 5070  12.156   4.372   4.265
67725SOL     OW 5071   4.658   5.572   3.096
67725SOL    HW1 5072   4.739   5.605   3.134
67725SOL    HW2 5073   4.597   5.646   3.101
67726SOL     OW 5074   1.344   4.833  11.810
67726SOL    HW1 5075   1.326   4.780  11.732
67726SOL    HW2 5076   1.324   4.776  11.884
67727SOL     OW 5077   9.035   2.691   6.425
67727SOL    HW1 5078   8.991   2.675   6.509
67727SOL    HW2 5079   9.012   2.781   6.402
67728SOL     OW 5080   5.249   2.408   2.629
67728SOL    HW1 5081   5.253   2.446   2.540
67728SOL    HW2 5082   5.207   2.323   2.617
67729SOL     OW 5083   1.755  12.792   7.978
67729SOL    HW1 5084   1.833  12.837   8.010
67729SOL    HW2 5085   1.782  12.755   7.894
67730SOL     OW 5086   6.444   2.024   3.195
67730SOL    HW1 5087   6.516   2.077   3.161
67730SOL    HW2 5088   6.461   2.020   3.289
67731SOL     OW 5089   2.089   3.307   5.409
67731SOL    HW1 5090   2.154   3.354   5.356
67731SOL    HW2 5091   2.016   3.369   5.417
67732SOL     OW 5092  13.322   1.254   6.587
67732SOL    HW1 5093  13.309   1.336   6.635
67732SOL    HW2 5094  13.318   1.186   6.654
67733SOL     OW 5095  11.682  10.343   0.794
67733SOL    HW1 5096  11.647  10.432   0.800
67733SOL    HW2 5097  11.699  10.331   0.700
67734SOL     OW 5098  14.431   5.452   1.418
67734SOL    HW1 5099  14.348   5.406   1.409
67734SOL    HW2 5100  14.413   5.524   1.479
67735SOL     OW 5101  12.164   2.373  12.585
67735SOL    HW1 5102  12.201   2.349  12.500
67735SOL    HW2 5103  12.074   2.340  12.582
67736SOL     OW 5104  13.528   5.842   4.716
67736SOL    HW1 5105  13.595   5.893   4.762
67736SOL    HW2 5106  13.515   5.765   4.771
67737SOL     OW 5107   6.402   7.991   1.124
67737SOL    HW1 5108   6.342   7.943   1.067
67737SOL    HW2 5109   6.368   8.080   1.124
67738SOL     OW 5110   3.442  10.657   5.525
67738SOL    HW1 5111   3.403  10.600   5.459
67738SOL    HW2 5112   3.414  10.619   5.608
67739SOL     OW 5113   5.729  13.628  12.043
67739SOL    HW1 5114   5.785  13.702  12.066
67739SOL    HW2 5115   5.698  13.594  12.127
67740SOL     OW 5116   4.969  12.928   0.427
67740SOL    HW1 5117   5.002  12.858   0.370
67740SOL    HW2 5118   4.963  12.888   0.514
67741SOL     OW 5119  13.251   2.328   0.094
67741SOL    HW1 5120  13.323   2.364   0.042
67741SOL    HW2 5121  13.179   2.318   0.032
67742SOL     OW 5122   2.146   4.772  11.120
67742SOL    HW1 5123   2.051   4.772  11.115
67742SOL    HW2 5124   2.165   4.745  11.210
67743SOL     OW 5125   0.143  12.341   2.990
67743SOL    HW1 5126   0.152  12.280   2.916
67743SOL    HW2 5127   0.127  12.426   2.949
67744SOL     OW 5128   4.687   9.105   7.901
67744SOL    HW1 5129   4.607   9.085   7.949
67744SOL    HW2 5130   4.727   9.019   7.885
67745SOL     OW 5131   6.113   5.621  10.317
67745SOL    HW1 5132   6.197   5.596  10.357
67745SOL    HW2 5133   6.049   5.610  10.387
67746SOL     OW 5134  14.742  14.259   4.504
67746SOL    HW1 5135  14.679  14.295   4.442
67746SOL    HW2 5136  14.806  14.329   4.518
67747SOL     OW 5137   2.400   8.540   0.442
67747SOL    HW1 5138   2.393   8.599   0.367
67747SOL    HW2 5139   2.387   8.452   0.405
67748SOL     OW 5140  13.742   8.362  11.723
67748SOL    HW1 5141  13.782   8.413  11.793
67748SOL    HW2 5142  13.742   8.420  11.647
67749SOL     OW 5143   9.411   9.089   0.349
67749SOL    HW1 5144   9.393   9.182   0.337
67749SOL    HW2 5145   9.473   9.066   0.279
67750SOL     OW 5146   1.285   8.554   0.611
67750SOL    HW1 5147   1.273   8.615   0.684
67750SOL    HW2 5148   1.298   8.469   0.652
67751SOL     OW 5149   6.389   1.765   8.072
67751SOL    HW1 5150   6.446   1.769   7.995
67751SOL    HW2 5151   6.353   1.677   8.070
67752SOL     OW 5152   1.913  10.109   2.106
67752SOL    HW1 5153   1.972  10.074   2.173
67752SOL    HW2 5154   1.888  10.033   2.053
67753SOL     OW 5155   5.006   1.397  13.504
67753SOL    HW1 5156   4.960   1.316  13.525
67753SOL    HW2 5157   4.979   1.459  13.572
67754SOL     OW 5158  11.525   9.009   7.166
67754SOL    HW1 5159  11.542   8.990   7.258
67754SOL    HW2 5160  11.587   9.078   7.143
67755SOL     OW 5161   7.272   1.178   1.954
67755SOL    HW1 5162   7.268   1.274   1.949
67755SOL    HW2 5163   7.359   1.160   1.990
67756SOL     OW 5164   3.443  14.345   9.249
67756SOL    HW1 5165   3.367  14.395   9.221
67756SOL    HW2 5166   3.412  14.292   9.323
67757SOL     OW 5167   7.861  11.485   5.044
67757SOL    HW1 5168   7.931  11.432   5.005
67757SOL    HW2 5169   7.855  11.562   4.988
67758SOL     OW 5170  12.917   1.326   9.879
67758SOL    HW1 5171  12.924   1.419   9.856
67758SOL    HW2 5172  12.901   1.282   9.796
67759SOL     OW 5173  11.455   0.084   2.231
67759SOL    HW1 5174  11.484   0.083   2.322
67759SOL    HW2 5175  11.513   0.021   2.187
67760SOL     OW 5176   8.673   9.233   6.761
67760SOL    HW1 5177   8.641   9.177   6.690
67760SOL    HW2 5178   8.758   9.196   6.785
67761SOL     OW 5179   7.365  12.344   3.834
67761SOL    HW1 5180   7.452  12.331   3.797
67761SOL    HW2 5181   7.306  12.298   3.775
67762SOL     OW 5182   8.544   1.986   0.206
67762SOL    HW1 5183   8.559   1.939   0.288
67762SOL    HW2 5184   8.632   1.996   0.169
67763SOL     OW 5185   4.304   8.632   2.273
67763SOL    HW1 5186   4.246   8.588   2.211
67763SOL    HW2 5187   4.321   8.568   2.342
67764SOL     OW 5188   9.154   8.369  14.702
67764SOL    HW1 5189   9.125   8.459  14.689
67764SOL    HW2 5190   9.079   8.325  14.741
67765SOL     OW 5191   9.237   1.512  12.539
67765SOL    HW1 5192   9.195   1.506  12.453
67765SOL    HW2 5193   9.283   1.429  12.550
67766SOL     OW 5194  10.857  12.768   0.938
67766SOL    HW1 5195  10.917  12.811   0.877
67766SOL    HW2 5196  10.900  12.774   1.023
67767SOL     OW 5197   6.168   5.373   4.149
67767SOL    HW1 5198   6.207   5.338   4.068
67767SOL    HW2 5199   6.165   5.468   4.134
67768SOL     OW 5200   8.297   7.529  11.192
67768SOL    HW1 5201   8.332   7.586  11.123
67768SOL    HW2 5202   8.341   7.445  11.178
67769SOL     OW 5203  12.679   7.473   3.983
67769SOL    HW1 5204  12.726   7.502   3.905
67769SOL    HW2 5205  12.737   7.496   4.056
67770SOL     OW 5206   3.336  13.546   7.121
67770SOL    HW1 5207   3.311  13.545   7.029
67770SOL    HW2 5208   3.393  13.470   7.131
67771SOL     OW 5209   2.368  10.045   7.984
67771SOL    HW1 5210   2.308  10.000   8.044
67771SOL    HW2 5211   2.363  10.137   8.009
67772SOL     OW 5212   4.459   3.740  10.085
67772SOL    HW1 5213   4.451   3.769   9.995
67772SOL    HW2 5214   4.378   3.769  10.127
67773SOL     OW 5215   0.157  12.735   0.317
67773SOL    HW1 5216   0.194  12.665   0.264
67773SOL    HW2 5217   0.209  12.735   0.397
67774SOL     OW 5218   8.301   3.696  10.941
67774SOL    HW1 5219   8.264   3.692  11.029
67774SOL    HW2 5220   8.341   3.783  10.935
67775SOL     OW 5221  14.331  13.022   4.369
67775SOL    HW1 5222  14.420  13.024   4.404
67775SOL    HW2 5223  14.309  12.929   4.364
67776SOL     OW 5224   4.000   3.021  12.024
67776SOL    HW1 5225   3.941   3.036  11.950
67776SOL    HW2 5226   4.052   3.101  12.030
67777SOL     OW 5227   9.002   3.381   6.749
67777SOL    HW1 5228   8.937   3.385   6.819
67777SOL    HW2 5229   8.990   3.462   6.700
67778SOL     OW 5230  11.604   2.931   3.052
67778SOL    HW1 5231  11.522   2.895   3.018
67778SOL    HW2 5232  11.670   2.901   2.991
67779SOL     OW 5233   5.864   6.220  13.908
67779SOL    HW1 5234   5.926   6.265  13.966
67779SOL    HW2 5235   5.791   6.196  13.966
67780SOL     OW 5236   9.320  11.788  12.119
67780SOL    HW1 5237   9.372  11.714  12.088
67780SOL    HW2 5238   9.242  11.747  12.157
67781SOL     OW 5239  10.926  11.251   4.791
67781SOL    HW1 5240  10.880  11.334   4.805
67781SOL    HW2 5241  10.866  11.184   4.823
67782SOL     OW 5242   1.003  11.408  12.023
67782SOL    HW1 5243   0.972  11.396  11.933
67782SOL    HW2 5244   1.054  11.329  12.041
67783SOL     OW 5245   1.280  11.314   6.781
67783SOL    HW1 5246   1.232  11.347   6.705
67783SOL    HW2 5247   1.265  11.378   6.850
67784SOL     OW 5248   5.806   4.004   2.347
67784SOL    HW1 5249   5.855   4.083   2.369
67784SOL    HW2 5250   5.812   3.950   2.426
67785SOL     OW 5251   8.153  13.260  14.409
67785SOL    HW1 5252   8.076  13.315  14.394
67785SOL    HW2 5253   8.141  13.225  14.497
67786SOL     OW 5254   9.642  14.054  11.604
67786SOL    HW1 5255   9.602  14.088  11.685
67786SOL    HW2 5256   9.721  14.106  11.593
67787SOL     OW 5257   3.286   2.858   5.167
67787SOL    HW1 5258   3.219   2.791   5.175
67787SOL    HW2 5259   3.259   2.926   5.229
67788SOL     OW 5260  10.729  11.453   9.453
67788SOL    HW1 5261  10.669  11.379   9.467
67788SOL    HW2 5262  10.671  11.529   9.441
67789SOL     OW 5263   1.136   8.026  10.510
67789SOL    HW1 5264   1.139   7.941  10.467
67789SOL    HW2 5265   1.228   8.047  10.529
67790SOL     OW 5266   1.523   4.127  13.560
67790SOL    HW1 5267   1.483   4.169  13.636
67790SOL    HW2 5268   1.471   4.048  13.546
67791SOL     OW 5269  12.413   9.063   5.877
67791SOL    HW1 5270  12.462   8.983   5.891
67791SOL    HW2 5271  12.402   9.069   5.782
67792SOL     OW 5272   1.065   4.590  14.322
67792SOL    HW1 5273   1.101   4.678  14.308
67792SOL    HW2 5274   1.107   4.536  14.255
67793SOL     OW 5275   8.597  11.803   4.414
67793SOL    HW1 5276   8.598  11.708   4.421
67793SOL    HW2 5277   8.584  11.820   4.320
67794SOL     OW 5278   7.156   0.962  11.030
67794SOL    HW1 5279   7.071   0.983  11.068
67794SOL    HW2 5280   7.171   0.870  11.053
67795SOL     OW 5281  12.499   4.970   5.717
67795SOL    HW1 5282  12.573   4.919   5.749
67795SOL    HW2 5283  12.528   5.061   5.723
67796SOL     OW 5284   8.629  13.719  11.527
67796SOL    HW1 5285   8.613  13.779  11.600
67796SOL    HW2 5286   8.599  13.634  11.560
67797SOL     OW 5287   6.858   4.550   1.639
67797SOL    HW1 5288   6.941   4.587   1.669
67797SOL    HW2 5289   6.882   4.493   1.566
67798SOL     OW 5290  14.179   5.421   3.508
67798SOL    HW1 5291  14.232   5.499   3.491
67798SOL    HW2 5292  14.194   5.401   3.600
67799SOL     OW 5293  12.511   7.697   0.383
67799SOL    HW1 5294  12.498   7.656   0.298
67799SOL    HW2 5295  12.491   7.790   0.368
67800SOL     OW 5296   7.476   7.363   3.357
67800SOL    HW1 5297   7.547   7.361   3.421
67800SOL    HW2 5298   7.436   7.276   3.363
67801SOL     OW 5299  13.795  12.230   6.769
67801SOL    HW1 5300  13.803  12.280   6.688
67801SOL    HW2 5301  13.814  12.139   6.744
67802SOL     OW 5302   7.975   0.228   1.455
67802SOL    HW1 5303   8.005   0.154   1.508
67802SOL    HW2 5304   8.041   0.296   1.469
67803SOL     OW 5305  14.609   4.902  10.314
67803SOL    HW1 5306  14.557   4.981  10.329
67803SOL    HW2 5307  14.622   4.900  10.220
67804SOL     OW 5308  10.032   4.813   1.625
67804SOL    HW1 5309  10.011   4.824   1.532
67804SOL    HW2 5310  10.088   4.736   1.628
67805SOL     OW 5311   5.821  13.315   2.082
67805SOL    HW1 5312   5.905  13.270   2.073
67805SOL    HW2 5313   5.810  13.327   2.176
67806SOL     OW 5314   3.316   4.867  12.843
67806SOL    HW1 5315   3.375   4.866  12.768
67806SOL    HW2 5316   3.229   4.880  12.805
67807SOL     OW 5317   0.192   8.421   3.681
67807SOL    HW1 5318   0.256   8.370   3.631
67807SOL    HW2 5319   0.237   8.445   3.762
67808SOL     OW 5320  14.366   5.303  13.666
67808SOL    HW1 5321  14.410   5.377  13.708
67808SOL    HW2 5322  14.312   5.342  13.598
67809SOL     OW 5323   7.742   9.143   2.533
67809SOL    HW1 5324   7.676   9.074   2.534
67809SOL    HW2 5325   7.741   9.179   2.622
67810SOL     OW 5326   2.127   2.713   0.149
67810SOL    HW1 5327   2.189   2.641   0.160
67810SOL    HW2 5328   2.146   2.748   0.062
67811SOL     OW 5329  10.474  11.405   7.882
67811SOL    HW1 5330  10.538  11.445   7.824
67811SOL    HW2 5331  10.473  11.461   7.960
67812SOL     OW 5332  13.215   0.235  13.216
67812SOL    HW1 5333  13.256   0.176  13.153
67812SOL    HW2 5334  13.165   0.177  13.274
67813SOL     OW 5335   1.874   0.818  11.937
67813SOL    HW1 5336   1.897   0.910  11.927
67813SOL    HW2 5337   1.958   0.774  11.949
67814SOL     OW 5338  11.361   9.750   8.466
67814SOL    HW1 5339  11.331   9.743   8.376
67814SOL    HW2 5340  11.375   9.844   8.479
67815SOL     OW 5341  12.110   2.495   2.509
67815SOL    HW1 5342  12.016   2.489   2.527
67815SOL    HW2 5343  12.116   2.499   2.414
67816SOL     OW 5344   2.790   3.296   9.439
67816SOL    HW1 5345   2.851   3.258   9.377
67816SOL    HW2 5346   2.773   3.226   9.503
67817SOL     OW 5347   9.271   7.341   5.148
67817SOL    HW1 5348   9.291   7.255   5.185
67817SOL    HW2 5349   9.269   7.400   5.223
67818SOL     OW 5350   9.324   7.528   8.425
67818SOL    HW1 5351   9.285   7.614   8.407
67818SOL    HW2 5352   9.389   7.544   8.493
67819SOL     OW 5353  14.139   3.234   6.134
67819SOL    HW1 5354  14.068   3.172   6.151
67819SOL    HW2 5355  14.122   3.265   6.044
67820SOL     OW 5356   4.409   7.831  13.876
67820SOL    HW1 5357   4.454   7.906  13.838
67820SOL    HW2 5358   4.319   7.862  13.891
67821SOL     OW 5359  14.119   7.516  12.305
67821SOL    HW1 5360  14.152   7.455  12.238
67821SOL    HW2 5361  14.079   7.460  12.371
67822SOL     OW 5362  14.522   4.547  10.125
67822SOL    HW1 5363  14.567   4.469  10.155
67822SOL    HW2 5364  14.565   4.570  10.043
67823SOL     OW 5365   5.316   7.147   9.875
67823SOL    HW1 5366   5.346   7.091   9.804
67823SOL    HW2 5367   5.396   7.177   9.918
67824SOL     OW 5368   7.308   7.761   8.772
67824SOL    HW1 5369   7.378   7.701   8.748
67824SOL    HW2 5370   7.248   7.709   8.825
67825SOL     OW 5371  14.501   4.688   5.348
67825SOL    HW1 5372  14.439   4.751   5.383
67825SOL    HW2 5373  14.550   4.737   5.282
67826SOL     OW 5374   0.457   8.708  11.804
67826SOL    HW1 5375   0.504   8.625  11.797
67826SOL    HW2 5376   0.400   8.698  11.880
67827SOL     OW 5377   3.816   7.215   0.479
67827SOL    HW1 5378   3.777   7.283   0.533
67827SOL    HW2 5379   3.903   7.201   0.516
67828SOL     OW 5380  10.909  12.602   4.930
67828SOL    HW1 5381  10.817  12.628   4.933
67828SOL    HW2 5382  10.956  12.676   4.970
67829SOL     OW 5383   4.094   9.982   9.128
67829SOL    HW1 5384   4.003  10.012   9.126
67829SOL    HW2 5385   4.094   9.902   9.075
67830SOL     OW 5386   8.523  11.371  13.696
67830SOL    HW1 5387   8.581  11.320  13.753
67830SOL    HW2 5388   8.492  11.442  13.752
67831SOL     OW 5389   2.695   4.117  13.985
67831SOL    HW1 5390   2.615   4.145  13.941
67831SOL    HW2 5391   2.674   4.120  14.079
67832SOL     OW 5392  13.728  13.293  12.887
67832SOL    HW1 5393  13.729  13.347  12.808
67832SOL    HW2 5394  13.754  13.353  12.957
67833SOL     OW 5395  12.337   8.152  14.837
67833SOL    HW1 5396  12.398   8.225  14.836
67833SOL    HW2 5397  12.284   8.164  14.757
67834SOL     OW 5398   4.835   9.227   3.849
67834SOL    HW1 5399   4.751   9.271   3.836
67834SOL    HW2 5400   4.814   9.148   3.898
67835SOL     OW 5401   3.646   4.520  13.413
67835SOL    HW1 5402   3.671   4.593  13.470
67835SOL    HW2 5403   3.676   4.442  13.459
67836SOL     OW 5404   4.968   5.214   7.547
67836SOL    HW1 5405   4.902   5.284   7.545
67836SOL    HW2 5406   4.921   5.137   7.577
67837SOL     OW 5407  10.176   6.340   9.967
67837SOL    HW1 5408  10.209   6.379   9.886
67837SOL    HW2 5409  10.224   6.257   9.975
67838SOL     OW 5410   9.592   9.224  12.046
67838SOL    HW1 5411   9.525   9.160  12.022
67838SOL    HW2 5412   9.667   9.202  11.990
67839SOL     OW 5413   7.583   9.228  12.408
67839SOL    HW1 5414   7.650   9.286  12.373
67839SOL    HW2 5415   7.501   9.259  12.369
67840SOL     OW 5416   6.013   4.269   5.631
67840SOL    HW1 5417   6.085   4.231   5.681
67840SOL    HW2 5418   5.999   4.208   5.558
67841SOL     OW 5419   6.009  10.986  11.346
67841SOL    HW1 5420   6.089  10.939  11.372
67841SOL    HW2 5421   5.943  10.958  11.409
67842SOL     OW 5422   7.684  10.831   3.600
67842SOL    HW1 5423   7.694  10.779   3.680
67842SOL    HW2 5424   7.594  10.815   3.572
67843SOL     OW 5425   4.880  12.405  12.112
67843SOL    HW1 5426   4.787  12.426  12.100
67843SOL    HW2 5427   4.886  12.363  12.197
67844SOL     OW 5428   9.626   8.830  11.182
67844SOL    HW1 5429   9.599   8.851  11.092
67844SOL    HW2 5430   9.710   8.787  11.172
67845SOL     OW 5431   2.394   7.343   1.061
67845SOL    HW1 5432   2.443   7.277   1.012
67845SOL    HW2 5433   2.302   7.316   1.052
67846SOL     OW 5434   0.186   0.116   2.339
67846SOL    HW1 5435   0.192   0.205   2.375
67846SOL    HW2 5436   0.229   0.061   2.404
67847SOL     OW 5437   3.247   3.700  12.808
67847SOL    HW1 5438   3.269   3.663  12.722
67847SOL    HW2 5439   3.157   3.672  12.824
67848SOL     OW 5440   4.929   9.590   6.332
67848SOL    HW1 5441   4.955   9.498   6.340
67848SOL    HW2 5442   4.838   9.592   6.361
67849SOL     OW 5443  10.681   8.302   0.144
67849SOL    HW1 5444  10.716   8.307   0.233
67849SOL    HW2 5445  10.621   8.376   0.138
67850SOL     OW 5446   7.840   7.078  12.281
67850SOL    HW1 5447   7.780   7.092  12.207
67850SOL    HW2 5448   7.806   7.000  12.325
67851SOL     OW 5449   9.960   2.002   8.427
67851SOL    HW1 5450   9.918   2.087   8.434
67851SOL    HW2 5451  10.028   2.014   8.360
67852SOL     OW 5452   6.279   2.933   1.311
67852SOL    HW1 5453   6.357   2.934   1.366
67852SOL    HW2 5454   6.294   2.861   1.249
67853SOL     OW 5455   7.445   2.258   1.060
67853SOL    HW1 5456   7.445   2.211   0.977
67853SOL    HW2 5457   7.353   2.268   1.082
67854SOL     OW 5458   2.871   1.022  11.284
67854SOL    HW1 5459   2.846   0.983  11.368
67854SOL    HW2 5460   2.965   1.038  11.292
67855SOL     OW 5461  14.749   6.431   7.445
67855SOL    HW1 5462  14.820   6.395   7.392
67855SOL    HW2 5463  14.732   6.517   7.406
67856SOL     OW 5464   0.403  12.530   8.094
67856SOL    HW1 5465   0.314  12.544   8.126
67856SOL    HW2 5466   0.447  12.482   8.165
67857SOL     OW 5467   8.243  11.891  12.029
67857SOL    HW1 5468   8.318  11.944  12.003
67857SOL    HW2 5469   8.178  11.906  11.960
67858SOL     OW 5470   5.706   9.309   1.961
67858SOL    HW1 5471   5.666   9.395   1.972
67858SOL    HW2 5472   5.658   9.253   2.022
67859SOL     OW 5473   1.866   1.783   7.657
67859SOL    HW1 5474   1.804   1.729   7.608
67859SOL    HW2 5475   1.867   1.867   7.611
67860SOL     OW 5476  10.929   1.128  10.016
67860SOL    HW1 5477  10.839   1.160  10.026
67860SOL    HW2 5478  10.924   1.061   9.948
67861SOL     OW 5479   8.012   6.407   2.177
67861SOL    HW1 5480   7.956   6.330   2.168
67861SOL    HW2 5481   7.971   6.459   2.246
67862SOL     OW 5482   4.660   8.880   0.781
67862SOL    HW1 5483   4.642   8.787   0.767
67862SOL    HW2 5484   4.749   8.893   0.748
67863SOL     OW 5485  10.584   7.229   6.226
67863SOL    HW1 5486  10.658   7.256   6.171
67863SOL    HW2 5487  10.620   7.162   6.284
67864SOL     OW 5488   3.311   5.904  11.550
67864SOL    HW1 5489   3.288   5.877  11.461
67864SOL    HW2 5490   3.365   5.833  11.583
67865SOL     OW 5491   1.747  14.043   2.865
67865SOL    HW1 5492   1.695  13.995   2.801
67865SOL    HW2 5493   1.821  13.985   2.884
67866SOL     OW 5494   2.137   4.987   4.453
67866SOL    HW1 5495   2.053   4.956   4.488
67866SOL    HW2 5496   2.113   5.057   4.393
67867SOL     OW 5497   5.091   8.969   8.338
67867SOL    HW1 5498   5.134   8.980   8.423
67867SOL    HW2 5499   5.111   9.051   8.291
67868SOL     OW 5500  13.628   1.527   2.291
67868SOL    HW1 5501  13.683   1.539   2.214
67868SOL    HW2 5502  13.690   1.511   2.362
67869SOL     OW 5503  14.019   2.824  14.632
67869SOL    HW1 5504  14.078   2.806  14.558
67869SOL    HW2 5505  13.935   2.845  14.591
67870SOL     OW 5506   1.541   5.808   4.369
67870SOL    HW1 5507   1.575   5.879   4.423
67870SOL    HW2 5508   1.604   5.799   4.298
67871SOL     OW 5509   0.484   9.768  10.673
67871SOL    HW1 5510   0.401   9.811  10.655
67871SOL    HW2 5511   0.464   9.706  10.744
67872SOL     OW 5512   3.860  13.225  13.511
67872SOL    HW1 5513   3.815  13.167  13.450
67872SOL    HW2 5514   3.952  13.223  13.483
67873SOL     OW 5515   9.026   2.077  13.055
67873SOL    HW1 5516   9.006   2.153  13.110
67873SOL    HW2 5517   8.963   2.082  12.983
67874SOL     OW 5518   5.397   9.623   7.264
67874SOL    HW1 5519   5.349   9.639   7.345
67874SOL    HW2 5520   5.356   9.546   7.226
67875SOL     OW 5521   4.402   3.999  13.823
67875SOL    HW1 5522   4.435   3.990  13.913
67875SOL    HW2 5523   4.307   3.986  13.831
67876SOL     OW 5524   3.371  12.642   0.661
67876SOL    HW1 5525   3.421  12.615   0.739
67876SOL    HW2 5526   3.328  12.723   0.687
67877SOL     OW 5527   0.967  14.138   7.274
67877SOL    HW1 5528   1.057  14.141   7.306
67877SOL    HW2 5529   0.924  14.072   7.329
67878SOL     OW 5530  14.604   4.137  12.358
67878SOL    HW1 5531  14.669   4.116  12.424
67878SOL    HW2 5532  14.571   4.053  12.328
67879SOL     OW 5533  13.441   6.509   8.749
67879SOL    HW1 5534  13.441   6.508   8.845
67879SOL    HW2 5535  13.471   6.421   8.724
67880SOL     OW 5536   8.297   4.417   0.397
67880SOL    HW1 5537   8.359   4.345   0.411
67880SOL    HW2 5538   8.278   4.414   0.303
67881SOL     OW 5539  14.759  14.845  14.087
67881SOL    HW1 5540  14.690   0.039  14.069
67881SOL    HW2 5541  14.754  14.783  14.014
67882SOL     OW 5542   3.323   5.638   4.058
67882SOL    HW1 5543   3.331   5.570   4.125
67882SOL    HW2 5544   3.237   5.622   4.018
67883SOL     OW 5545   1.719   8.751   8.558
67883SOL    HW1 5546   1.633   8.792   8.563
67883SOL    HW2 5547   1.733   8.712   8.644
67884SOL     OW 5548  12.869  11.903   6.194
67884SOL    HW1 5549  12.782  11.942   6.189
67884SOL    HW2 5550  12.921  11.952   6.130
67885SOL     OW 5551  14.239  10.363  10.914
67885SOL    HW1 5552  14.233  10.416  10.834
67885SOL    HW2 5553  14.151  10.327  10.926
67886SOL     OW 5554   8.849  10.091   6.266
67886SOL    HW1 5555   8.890  10.170   6.231
67886SOL    HW2 5556   8.782  10.068   6.201
67887SOL     OW 5557   5.476   1.467   5.288
67887SOL    HW1 5558   5.401   1.447   5.233
67887SOL    HW2 5559   5.522   1.537   5.242
67888SOL     OW 5560   8.033   9.727   6.929
67888SOL    HW1 5561   7.980   9.663   6.977
67888SOL    HW2 5562   8.032   9.805   6.984
67889SOL     OW 5563  11.959  11.221   5.260
67889SOL    HW1 5564  11.997  11.135   5.280
67889SOL    HW2 5565  12.013  11.283   5.308
67890SOL     OW 5566   1.257   2.621   6.436
67890SOL    HW1 5567   1.210   2.702   6.417
67890SOL    HW2 5568   1.198   2.551   6.408
67891SOL     OW 5569   0.201   6.988   4.154
67891SOL    HW1 5570   0.279   6.996   4.100
67891SOL    HW2 5571   0.229   7.018   4.241
67892SOL     OW 5572   4.947   3.560  13.326
67892SOL    HW1 5573   5.007   3.487  13.340
67892SOL    HW2 5574   4.977   3.601  13.245
67893SOL     OW 5575   1.530   2.563   9.299
67893SOL    HW1 5576   1.451   2.550   9.245
67893SOL    HW2 5577   1.528   2.491   9.362
67894SOL     OW 5578   3.870   7.877   4.175
67894SOL    HW1 5579   3.777   7.894   4.162
67894SOL    HW2 5580   3.913   7.950   4.130
67895SOL     OW 5581   6.708  14.691   1.150
67895SOL    HW1 5582   6.777  14.686   1.216
67895SOL    HW2 5583   6.627  14.698   1.200
67896SOL     OW 5584   4.359   3.620   8.820
67896SOL    HW1 5585   4.426   3.612   8.752
67896SOL    HW2 5586   4.367   3.710   8.852
67897SOL     OW 5587   2.822  10.094   0.835
67897SOL    HW1 5588   2.912  10.126   0.837
67897SOL    HW2 5589   2.773  10.156   0.890
67898SOL     OW 5590  13.029   2.284   3.653
67898SOL    HW1 5591  13.020   2.289   3.748
67898SOL    HW2 5592  13.123   2.292   3.637
67899SOL     OW 5593   5.079   7.354   9.615
67899SOL    HW1 5594   5.032   7.278   9.648
67899SOL    HW2 5595   5.011   7.416   9.591
67900SOL     OW 5596   6.413   5.149   0.717
67900SOL    HW1 5597   6.476   5.101   0.663
67900SOL    HW2 5598   6.460   5.228   0.743
67901SOL     OW 5599   3.340  10.797   9.828
67901SOL    HW1 5600   3.362  10.807   9.920
67901SOL    HW2 5601   3.297  10.879   9.804
67902SOL     OW 5602   5.240  10.829  11.118
67902SOL    HW1 5603   5.322  10.854  11.160
67902SOL    HW2 5604   5.267  10.772  11.046
67903SOL     OW 5605   3.703  10.695   6.214
67903SOL    HW1 5606   3.767  10.680   6.283
67903SOL    HW2 5607   3.749  10.748   6.149
67904SOL     OW 5608  14.352  10.318  13.317
67904SOL    HW1 5609  14.415  10.270  13.264
67904SOL    HW2 5610  14.405  10.358  13.386
67905SOL     OW 5611   8.189  10.128   5.835
67905SOL    HW1 5612   8.172  10.036   5.815
67905SOL    HW2 5613   8.103  10.168   5.842
67906SOL     OW 5614   9.057   8.645  11.604
67906SOL    HW1 5615   9.126   8.665  11.667
67906SOL    HW2 5616   9.088   8.683  11.522
67907SOL     OW 5617  12.835  13.707   4.568
67907SOL    HW1 5618  12.869  13.626   4.530
67907SOL    HW2 5619  12.820  13.764   4.493
67908SOL     OW 5620  11.185   7.473   0.235
67908SOL    HW1 5621  11.240   7.412   0.186
67908SOL    HW2 5622  11.131   7.515   0.167
67909SOL     OW 5623  13.969   7.749   6.341
67909SOL    HW1 5624  13.996   7.758   6.250
67909SOL    HW2 5625  13.932   7.834   6.364
67910SOL     OW 5626   2.308   0.514   9.565
67910SOL    HW1 5627   2.343   0.595   9.526
67910SOL    HW2 5628   2.318   0.448   9.496
67911SOL     OW 5629   9.576   8.880  10.925
67911SOL    HW1 5630   9.575   8.837  10.840
67911SOL    HW2 5631   9.492   8.926  10.931
67912SOL     OW 5632   0.283   2.113   2.121
67912SOL    HW1 5633   0.347   2.162   2.070
67912SOL    HW2 5634   0.243   2.052   2.058
67913SOL     OW 5635  12.439   5.464   7.432
67913SOL    HW1 5636  12.458   5.431   7.519
67913SOL    HW2 5637  12.494   5.412   7.374
67914SOL     OW 5638   6.715   2.704  11.508
67914SOL    HW1 5639   6.794   2.754  11.524
67914SOL    HW2 5640   6.724   2.672  11.418
67915SOL     OW 5641   2.841   4.473   4.291
67915SOL    HW1 5642   2.890   4.554   4.298
67915SOL    HW2 5643   2.766   4.485   4.349
67916SOL     OW 5644   8.019   1.983  12.136
67916SOL    HW1 5645   8.009   2.075  12.111
67916SOL    HW2 5646   8.080   1.947  12.072
67917SOL     OW 5647   3.738   8.233  14.565
67917SOL    HW1 5648   3.826   8.195  14.557
67917SOL    HW2 5649   3.681   8.167  14.525
67918SOL     OW 5650  10.847   6.133   5.305
67918SOL    HW1 5651  10.923   6.130   5.363
67918SOL    HW2 5652  10.873   6.082   5.228
67919SOL     OW 5653   9.879   2.155   3.599
67919SOL    HW1 5654   9.814   2.218   3.567
67919SOL    HW2 5655   9.845   2.127   3.684
67920SOL     OW 5656   0.488  11.178   2.002
67920SOL    HW1 5657   0.568  11.230   2.007
67920SOL    HW2 5658   0.516  11.088   2.019
67921SOL     OW 5659  12.115   1.381   6.560
67921SOL    HW1 5660  12.167   1.458   6.535
67921SOL    HW2 5661  12.030   1.395   6.518
67922SOL     OW 5662   1.653  11.218   9.510
67922SOL    HW1 5663   1.672  11.308   9.534
67922SOL    HW2 5664   1.672  11.213   9.416
67923SOL     OW 5665   3.215  12.737   9.880
67923SOL    HW1 5666   3.173  12.673   9.937
67923SOL    HW2 5667   3.165  12.732   9.798
67924SOL     OW 5668   2.183   0.520   1.277
67924SOL    HW1 5669   2.175   0.571   1.358
67924SOL    HW2 5670   2.218   0.436   1.306
67925SOL     OW 5671   2.730  12.376   0.166
67925SOL    HW1 5672   2.737  12.282   0.148
67925SOL    HW2 5673   2.637  12.389   0.187
67926SOL     OW 5674  14.502   4.580   9.774
67926SOL    HW1 5675  14.418   4.575   9.728
67926SOL    HW2 5676  14.497   4.662   9.822
67927SOL     OW 5677  11.917   0.951   7.129
67927SOL    HW1 5678  11.865   1.009   7.186
67927SOL    HW2 5679  11.989   1.007   7.098
67928SOL     OW 5680  12.662   7.761   4.890
67928SOL    HW1 5681  12.734   7.744   4.829
67928SOL    HW2 5682  12.640   7.675   4.925
67929SOL     OW 5683  14.741   4.679   4.625
67929SOL    HW1 5684  14.661   4.636   4.595
67929SOL    HW2 5685  14.738   4.675   4.720
67930SOL     OW 5686   8.831  13.460  12.189
67930SOL    HW1 5687   8.901  13.495  12.133
67930SOL    HW2 5688   8.877  13.421  12.263
67931SOL     OW 5689   6.151  12.497   5.399
67931SOL    HW1 5690   6.115  12.436   5.334
67931SOL    HW2 5691   6.118  12.465   5.483
67932SOL     OW 5692   4.217  14.196  14.761
67932SOL    HW1 5693   4.243  14.284  14.736
67932SOL    HW2 5694   4.122  14.200  14.767
67933SOL     OW 5695   2.310  11.095   7.603
67933SOL    HW1 5696   2.329  11.002   7.591
67933SOL    HW2 5697   2.380  11.127   7.660
67934SOL     OW 5698  10.320  11.256  12.750
67934SOL    HW1 5699  10.313  11.266  12.655
67934SOL    HW2 5700  10.233  11.281  12.783
67935SOL     OW 5701   6.734   3.319  14.626
67935SOL    HW1 5702   6.696   3.337  14.712
67935SOL    HW2 5703   6.817   3.367  14.626
67936SOL     OW 5704  10.076  12.406   9.406
67936SOL    HW1 5705  10.102  12.493   9.437
67936SOL    HW2 5706  10.076  12.351   9.484
67937SOL     OW 5707   2.684   4.346  13.086
67937SOL    HW1 5708   2.774   4.315  13.094
67937SOL    HW2 5709   2.692   4.436  13.054
67938SOL     OW 5710   8.749   3.305   3.189
67938SOL    HW1 5711   8.675   3.366   3.196
67938SOL    HW2 5712   8.824   3.356   3.220
67939SOL     OW 5713   0.626   7.649  14.356
67939SOL    HW1 5714   0.676   7.720  14.396
67939SOL    HW2 5715   0.683   7.572  14.364
67940SOL     OW 5716   4.848   5.807  11.872
67940SOL    HW1 5717   4.882   5.721  11.849
67940SOL    HW2 5718   4.881   5.823  11.960
67941SOL     OW 5719   4.524   5.460   1.985
67941SOL    HW1 5720   4.489   5.550   1.988
67941SOL    HW2 5721   4.559   5.451   1.897
67942SOL     OW 5722   4.283   6.808  14.770
67942SOL    HW1 5723   4.288   6.726  14.721
67942SOL    HW2 5724   4.289   6.876  14.703
67943SOL     OW 5725  11.004   2.736  10.933
67943SOL    HW1 5726  10.979   2.737  10.841
67943SOL    HW2 5727  11.094   2.768  10.933
67944SOL     OW 5728   6.092   9.902   6.654
67944SOL    HW1 5729   6.000   9.896   6.630
67944SOL    HW2 5730   6.115   9.994   6.637
67945SOL     OW 5731  11.016  10.978   6.703
67945SOL    HW1 5732  11.101  10.935   6.700
67945SOL    HW2 5733  10.962  10.922   6.760
67946SOL     OW 5734   8.290   6.046   4.028
67946SOL    HW1 5735   8.374   6.077   3.996
67946SOL    HW2 5736   8.274   6.098   4.107
67947SOL     OW 5737  13.452  11.072   1.058
67947SOL    HW1 5738  13.508  10.998   1.083
67947SOL    HW2 5739  13.497  11.149   1.094
67948SOL     OW 5740  10.773  13.826   1.562
67948SOL    HW1 5741  10.864  13.848   1.540
67948SOL    HW2 5742  10.735  13.908   1.592
67949SOL     OW 5743   4.592   4.820  10.584
67949SOL    HW1 5744   4.616   4.904  10.624
67949SOL    HW2 5745   4.577   4.842  10.491
67950SOL     OW 5746  13.033   8.436  12.543
67950SOL    HW1 5747  13.023   8.373  12.614
67950SOL    HW2 5748  13.114   8.411  12.499
67951SOL     OW 5749   5.975   5.996   7.829
67951SOL    HW1 5750   5.949   5.905   7.817
67951SOL    HW2 5751   5.978   6.032   7.740
67952SOL     OW 5752   9.891   1.908   6.088
67952SOL    HW1 5753   9.942   1.895   6.168
67952SOL    HW2 5754   9.918   1.994   6.056
67953SOL     OW 5755   6.502   7.842  13.197
67953SOL    HW1 5756   6.488   7.750  13.219
67953SOL    HW2 5757   6.527   7.841  13.104
67954SOL     OW 5758   8.516  13.330   5.667
67954SOL    HW1 5759   8.573  13.257   5.642
67954SOL    HW2 5760   8.473  13.301   5.747
67955SOL     OW 5761  13.295   8.382   1.430
67955SOL    HW1 5762  13.318   8.446   1.362
67955SOL    HW2 5763  13.373   8.327   1.438
67956SOL     OW 5764   5.602   5.219  10.849
67956SOL    HW1 5765   5.510   5.197  10.864
67956SOL    HW2 5766   5.599   5.284  10.778
67957SOL     OW 5767  12.956   4.144  14.482
67957SOL    HW1 5768  12.935   4.087  14.408
67957SOL    HW2 5769  12.956   4.086  14.557
67958SOL     OW 5770   1.731   7.983  10.350
67958SOL    HW1 5771   1.730   8.039  10.428
67958SOL    HW2 5772   1.671   7.912  10.373
67959SOL     OW 5773  10.801  13.288   9.874
67959SOL    HW1 5774  10.793  13.229   9.799
67959SOL    HW2 5775  10.893  13.316   9.873
67960SOL     OW 5776   1.035   0.746  14.117
67960SOL    HW1 5777   1.002   0.813  14.057
67960SOL    HW2 5778   1.014   0.663  14.073
67961SOL     OW 5779   9.643  10.764   3.339
67961SOL    HW1 5780   9.684  10.713   3.409
67961SOL    HW2 5781   9.615  10.698   3.275
67962SOL     OW 5782   1.266   9.007   7.313
67962SOL    HW1 5783   1.216   8.965   7.384
67962SOL    HW2 5784   1.334   8.944   7.292
67963SOL     OW 5785   2.013   0.612   5.990
67963SOL    HW1 5786   1.926   0.644   5.969
67963SOL    HW2 5787   1.999   0.527   6.033
67964SOL     OW 5788   6.201   1.062   5.400
67964SOL    HW1 5789   6.273   1.051   5.462
67964SOL    HW2 5790   6.163   1.147   5.423
67965SOL     OW 5791   3.398  10.093   1.067
67965SOL    HW1 5792   3.465  10.072   1.133
67965SOL    HW2 5793   3.420  10.181   1.038
67966SOL     OW 5794   7.520   0.862   8.740
67966SOL    HW1 5795   7.490   0.951   8.758
67966SOL    HW2 5796   7.612   0.872   8.715
67967SOL     OW 5797  10.366  12.794   7.424
67967SOL    HW1 5798  10.284  12.812   7.470
67967SOL    HW2 5799  10.382  12.873   7.373
67968SOL     OW 5800   0.563  14.544   5.443
67968SOL    HW1 5801   0.566  14.467   5.387
67968SOL    HW2 5802   0.592  14.616   5.387
67969SOL     OW 5803   7.591  11.140  12.822
67969SOL    HW1 5804   7.642  11.188  12.887
67969SOL    HW2 5805   7.640  11.152  12.740
67970SOL     OW 5806   0.432   3.923   1.018
67970SOL    HW1 5807   0.457   3.846   1.068
67970SOL    HW2 5808   0.504   3.984   1.029
67971SOL     OW 5809   0.853   0.947   2.217
67971SOL    HW1 5810   0.810   1.024   2.254
67971SOL    HW2 5811   0.946   0.971   2.212
67972SOL     OW 5812   4.260  10.155   4.509
67972SOL    HW1 5813   4.220  10.108   4.437
67972SOL    HW2 5814   4.286  10.087   4.571
67973SOL     OW 5815   7.276   4.659   8.686
67973SOL    HW1 5816   7.238   4.572   8.674
67973SOL    HW2 5817   7.288   4.668   8.780
67974SOL     OW 5818   4.131   8.228   1.116
67974SOL    HW1 5819   4.181   8.260   1.041
67974SOL    HW2 5820   4.093   8.146   1.086
67975SOL     OW 5821   9.218  11.006   1.993
67975SOL    HW1 5822   9.279  10.948   2.039
67975SOL    HW2 5823   9.187  11.066   2.060
67976SOL     OW 5824   5.833   9.529   5.937
67976SOL    HW1 5825   5.853   9.516   5.845
67976SOL    HW2 5826   5.747   9.488   5.949
67977SOL     OW 5827  14.722   9.959   9.807
67977SOL    HW1 5828  14.776   9.979   9.884
67977SOL    HW2 5829  14.766  10.005   9.735
67978SOL     OW 5830   2.769   7.447   2.906
67978SOL    HW1 5831   2.793   7.363   2.946
67978SOL    HW2 5832   2.849   7.499   2.910
67979SOL     OW 5833   5.782  10.584   4.975
67979SOL    HW1 5834   5.737  10.504   5.000
67979SOL    HW2 5835   5.822  10.616   5.056
67980SOL     OW 5836   7.433   4.691   6.383
67980SOL    HW1 5837   7.359   4.646   6.425
67980SOL    HW2 5838   7.494   4.708   6.455
67981SOL     OW 5839   7.185  11.132   3.529
67981SOL    HW1 5840   7.276  11.158   3.517
67981SOL    HW2 5841   7.169  11.143   3.623
67982SOL     OW 5842  10.932  10.361   7.426
67982SOL    HW1 5843  10.908  10.288   7.484
67982SOL    HW2 5844  10.904  10.332   7.339
67983SOL     OW 5845  12.707  13.705   9.493
67983SOL    HW1 5846  12.633  13.706   9.432
67983SOL    HW2 5847  12.669  13.672   9.575
67984SOL     OW 5848   4.954  14.808  10.928
67984SOL    HW1 5849   4.946  14.794  11.022
67984SOL    HW2 5850   4.956  14.720  10.890
67985SOL     OW 5851  12.279   8.664  11.090
67985SOL    HW1 5852  12.246   8.651  11.179
67985SOL    HW2 5853  12.373   8.680  11.102
67986SOL     OW 5854   0.841   9.743   9.820
67986SOL    HW1 5855   0.765   9.794   9.791
67986SOL    HW2 5856   0.898   9.807   9.862
67987SOL     OW 5857   6.412   5.502  13.311
67987SOL    HW1 5858   6.385   5.559  13.383
67987SOL    HW2 5859   6.438   5.420  13.353
67988SOL     OW 5860  14.190   7.300  12.152
67988SOL    HW1 5861  14.223   7.228  12.206
67988SOL    HW2 5862  14.221   7.280  12.063
67989SOL     OW 5863   9.111  11.836   6.675
67989SOL    HW1 5864   9.154  11.846   6.760
67989SOL    HW2 5865   9.159  11.895   6.617
67990SOL     OW 5866   4.159  11.394   6.604
67990SOL    HW1 5867   4.068  11.410   6.627
67990SOL    HW2 5868   4.208  11.419   6.683
67991SOL     OW 5869   7.953   0.770   8.487
67991SOL    HW1 5870   8.032   0.766   8.434
67991SOL    HW2 5871   7.967   0.704   8.556
67992SOL     OW 5872   2.260   2.380  12.386
67992SOL    HW1 5873   2.168   2.363  12.363
67992SOL    HW2 5874   2.305   2.384  12.302
67993SOL     OW 5875   7.673  12.818   7.998
67993SOL    HW1 5876   7.747  12.875   7.977
67993SOL    HW2 5877   7.707  12.758   8.064
67994SOL     OW 5878  10.899   8.932  12.222
67994SOL    HW1 5879  10.807   8.928  12.248
67994SOL    HW2 5880  10.928   8.841  12.223
67995SOL     OW 5881  11.447   9.193  12.037
67995SOL    HW1 5882  11.365   9.154  12.008
67995SOL    HW2 5883  11.441   9.193  12.133
67996SOL     OW 5884   1.077   3.436   5.589
67996SOL    HW1 5885   1.048   3.437   5.498
67996SOL    HW2 5886   1.083   3.343   5.611
67997SOL     OW 5887   4.180  13.055   4.934
67997SOL    HW1 5888   4.110  13.048   5.000
67997SOL    HW2 5889   4.214  12.966   4.927
67998SOL     OW 5890   4.787  11.643   9.622
67998SOL    HW1 5891   4.699  11.658   9.655
67998SOL    HW2 5892   4.842  11.639   9.700
67999SOL     OW 5893  14.226   9.874  10.014
67999SOL    HW1 5894  14.304   9.859   9.960
67999SOL    HW2 5895  14.189   9.955   9.979
68000SOL     OW 5896  14.311   8.849   5.480
68000SOL    HW1 5897  14.370   8.916   5.515
68000SOL    HW2 5898  14.260   8.820   5.556
68001SOL     OW 5899   6.898   9.043   3.240
68001SOL    HW1 5900   6.985   9.020   3.274
68001SOL    HW2 5901   6.855   8.959   3.227
68002SOL     OW 5902   3.076  13.083   1.753
68002SOL    HW1 5903   3.076  13.009   1.692
68002SOL    HW2 5904   3.048  13.045   1.836
68003SOL     OW 5905   5.932  13.493   6.876
68003SOL    HW1 5906   5.956  13.487   6.784
68003SOL    HW2 5907   5.944  13.404   6.910
68004SOL     OW 5908  10.619  14.434  11.113
68004SOL    HW1 5909  10.662  14.488  11.180
68004SOL    HW2 5910  10.691  14.405  11.057
68005SOL     OW 5911   2.035   0.439  10.832
68005SOL    HW1 5912   2.125   0.471  10.838
68005SOL    HW2 5913   2.024   0.414  10.740
68006SOL     OW 5914   3.886  13.738  10.299
68006SOL    HW1 5915   3.963  13.741  10.355
68006SOL    HW2 5916   3.871  13.828  10.273
68007SOL     OW 5917  12.433   0.094  13.187
68007SOL    HW1 5918  12.491   0.162  13.153
68007SOL    HW2 5919  12.467   0.074  13.274
68008SOL     OW 5920   9.645   0.174  10.376
68008SOL    HW1 5921   9.609   0.208  10.294
68008SOL    HW2 5922   9.738   0.162  10.359
68009SOL     OW 5923   9.790  11.635   4.312
68009SOL    HW1 5924   9.767  11.704   4.249
68009SOL    HW2 5925   9.862  11.672   4.362
68010SOL     OW 5926   1.897   4.535   3.948
68010SOL    HW1 5927   1.951   4.569   3.876
68010SOL    HW2 5928   1.944   4.457   3.978
68011SOL     OW 5929  10.334   5.456  10.728
68011SOL    HW1 5930  10.329   5.543  10.689
68011SOL    HW2 5931  10.424   5.450  10.761
68012SOL     OW 5932   5.745   4.237  10.593
68012SOL    HW1 5933   5.834   4.221  10.561
68012SOL    HW2 5934   5.702   4.151  10.586
68013SOL     OW 5935   9.288   3.443  12.699
68013SOL    HW1 5936   9.196   3.451  12.723
68013SOL    HW2 5937   9.287   3.418  12.607
68014SOL     OW 5938  10.996   6.677  12.380
68014SOL    HW1 5939  10.947   6.603  12.418
68014SOL    HW2 5940  11.049   6.709  12.452
68015SOL     OW 5941  11.207  10.759  11.201
68015SOL    HW1 5942  11.156  10.835  11.227
68015SOL    HW2 5943  11.204  10.759  11.105
68016SOL     OW 5944   8.839  14.085  12.120
68016SOL    HW1 5945   8.868  14.144  12.050
68016SOL    HW2 5946   8.745  14.074  12.105
68017SOL     OW 5947   9.165  14.815  12.703
68017SOL    HW1 5948   9.137  14.828  12.612
68017SOL    HW2 5949   9.189  14.723  12.709
68018SOL     OW 5950   6.815   7.777   1.780
68018SOL    HW1 5951   6.754   7.813   1.845
68018SOL    HW2 5952   6.779   7.802   1.695
68019SOL     OW 5953  13.069   6.957   5.716
68019SOL    HW1 5954  13.082   6.881   5.773
68019SOL    HW2 5955  13.139   6.950   5.651
68020SOL     OW 5956   2.102   0.162   3.623
68020SOL    HW1 5957   2.198   0.159   3.622
68020SOL    HW2 5958   2.079   0.146   3.715
68021SOL     OW 5959  14.506  10.251   0.440
68021SOL    HW1 5960  14.570  10.307   0.396
68021SOL    HW2 5961  14.436  10.311   0.468
68022SOL     OW 5962  12.562  12.595  14.634
68022SOL    HW1 5963  12.524  12.507  14.639
68022SOL    HW2 5964  12.654  12.582  14.656
68023SOL     OW 5965   3.681   8.681   9.214
68023SOL    HW1 5966   3.651   8.758   9.262
68023SOL    HW2 5967   3.730   8.630   9.278
68024SOL     OW 5968   7.299  10.123   2.230
68024SOL    HW1 5969   7.241  10.145   2.303
68024SOL    HW2 5970   7.249  10.062   2.176
68025SOL     OW 5971  10.041   0.715  13.600
68025SOL    HW1 5972  10.118   0.724  13.656
68025SOL    HW2 5973   9.967   0.736  13.656
68026SOL     OW 5974  12.517  10.504   4.164
68026SOL    HW1 5975  12.515  10.422   4.115
68026SOL    HW2 5976  12.537  10.570   4.098
68027SOL     OW 5977  10.469   0.379   2.435
68027SOL    HW1 5978  10.553   0.383   2.480
68027SOL    HW2 5979  10.431   0.466   2.447
68028SOL     OW 5980   6.797   6.513   6.008
68028SOL    HW1 5981   6.875   6.513   5.952
68028SOL    HW2 5982   6.745   6.440   5.976
68029SOL     OW 5983   4.426   4.588   4.250
68029SOL    HW1 5984   4.379   4.516   4.293
68029SOL    HW2 5985   4.446   4.554   4.163
68030SOL     OW 5986   5.899   0.200   0.328
68030SOL    HW1 5987   5.838   0.245   0.386
68030SOL    HW2 5988   5.982   0.247   0.339
68031SOL     OW 5989   4.821   3.177  13.089
68031SOL    HW1 5990   4.915   3.178  13.071
68031SOL    HW2 5991   4.799   3.084  13.095
68032SOL     OW 5992  13.000   4.539  10.746
68032SOL    HW1 5993  12.989   4.444  10.748
68032SOL    HW2 5994  13.020   4.558  10.655
68033SOL     OW 5995  13.193   0.532   7.097
68033SOL    HW1 5996  13.261   0.537   7.029
68033SOL    HW2 5997  13.115   0.502   7.051
68034SOL     OW 5998  14.421   7.102   3.886
68034SOL    HW1 5999  14.445   7.098   3.794
68034SOL    HW2 6000  14.499   7.134   3.930
68035SOL     OW 6001   2.741  10.957   8.912
68035SOL    HW1 6002   2.757  10.914   8.996
68035SOL    HW2 6003   2.650  10.985   8.915
68036SOL     OW 6004   4.645   3.980   0.169
68036SOL    HW1 6005   4.683   3.941   0.247
68036SOL    HW2 6006   4.719   4.020   0.124
68037SOL     OW 6007  13.305  10.491  13.987
68037SOL    HW1 6008  13.388  10.444  13.996
68037SOL    HW2 6009  13.239  10.430  14.021
68038SOL     OW 6010  11.280   0.900  11.563
68038SOL    HW1 6011  11.325   0.860  11.488
68038SOL    HW2 6012  11.318   0.856  11.639
68039SOL     OW 6013  13.087  14.092   0.767
68039SOL    HW1 6014  13.049  14.101   0.855
68039SOL    HW2 6015  13.091  13.997   0.752
68040SOL     OW 6016   9.859  13.223  12.055
68040SOL    HW1 6017   9.905  13.173  12.122
68040SOL    HW2 6018   9.864  13.314  12.085
68041SOL     OW 6019   0.387   1.136  10.936
68041SOL    HW1 6020   0.378   1.231  10.926
68041SOL    HW2 6021   0.472   1.116  10.896
68042SOL     OW 6022   8.042  13.410   9.737
68042SOL    HW1 6023   8.022  13.354   9.662
68042SOL    HW2 6024   7.965  13.465   9.748
68043SOL     OW 6025   4.073   5.277   7.987
68043SOL    HW1 6026   4.036   5.331   7.917
68043SOL    HW2 6027   4.119   5.339   8.044
68044SOL     OW 6028  11.160   7.718   3.596
68044SOL    HW1 6029  11.238   7.688   3.644
68044SOL    HW2 6030  11.152   7.811   3.620
68045SOL     OW 6031   8.326   9.157   0.573
68045SOL    HW1 6032   8.335   9.063   0.555
68045SOL    HW2 6033   8.386   9.199   0.512
68046SOL     OW 6034   8.029   7.925   2.639
68046SOL    HW1 6035   8.019   7.830   2.633
68046SOL    HW2 6036   8.120   7.938   2.666
68047SOL     OW 6037  14.614   2.412   7.206
68047SOL    HW1 6038  14.585   2.339   7.151
68047SOL    HW2 6039  14.694   2.443   7.163
68048SOL     OW 6040  10.999  14.145  12.398
68048SOL    HW1 6041  10.908  14.172  12.407
68048SOL    HW2 6042  11.038  14.209  12.339
68049SOL     OW 6043   4.503   8.085  12.173
68049SOL    HW1 6044   4.438   8.124  12.231
68049SOL    HW2 6045   4.583   8.082  12.224
68050SOL     OW 6046  12.053   3.438   2.243
68050SOL    HW1 6047  12.081   3.487   2.321
68050SOL    HW2 6048  11.958   3.436   2.249
68051SOL     OW 6049   3.197   1.798  10.864
68051SOL    HW1 6050   3.253   1.722  10.878
68051SOL    HW2 6051   3.243   1.850  10.797
68052SOL     OW 6052  11.633   7.457   7.820
68052SOL    HW1 6053  11.652   7.512   7.897
68052SOL    HW2 6054  11.636   7.368   7.854
68053SOL     OW 6055  11.153  14.257   1.025
68053SOL    HW1 6056  11.225  14.200   1.050
68053SOL    HW2 6057  11.173  14.341   1.066
68054SOL     OW 6058  12.780   2.216   0.088
68054SOL    HW1 6059  12.795   2.214  14.863
68054SOL    HW2 6060  12.868   2.225   0.126
68055SOL     OW 6061  12.881   0.887  11.236
68055SOL    HW1 6062  12.976   0.879  11.243
68055SOL    HW2 6063  12.851   0.798  11.216
68056SOL     OW 6064   0.153   5.828   8.742
68056SOL    HW1 6065   0.178   5.875   8.662
68056SOL    HW2 6066   0.074   5.874   8.772
68057SOL     OW 6067   8.222  11.247   7.521
68057SOL    HW1 6068   8.127  11.232   7.528
68057SOL    HW2 6069   8.231  11.342   7.521
68058SOL     OW 6070   6.949   4.762  11.133
68058SOL    HW1 6071   6.995   4.726  11.057
68058SOL    HW2 6072   6.875   4.703  11.148
68059SOL     OW 6073  14.609   6.865   6.729
68059SOL    HW1 6074  14.535   6.806   6.716
68059SOL    HW2 6075  14.571   6.953   6.722
68060SOL     OW 6076   8.600  10.211  13.216
68060SOL    HW1 6077   8.531  10.252  13.164
68060SOL    HW2 6078   8.667  10.278  13.225
68061SOL     OW 6079  13.053   4.602   1.991
68061SOL    HW1 6080  13.112   4.665   2.030
68061SOL    HW2 6081  12.972   4.651   1.974
68062SOL     OW 6082  10.783   9.229  12.376
68062SOL    HW1 6083  10.721   9.302  12.384
68062SOL    HW2 6084  10.728   9.155  12.351
68063SOL     OW 6085   2.161  12.460   9.106
68063SOL    HW1 6086   2.081  12.493   9.148
68063SOL    HW2 6087   2.176  12.375   9.147
68064SOL     OW 6088   9.910   2.958   2.301
68064SOL    HW1 6089   9.974   2.971   2.230
68064SOL    HW2 6090   9.846   2.896   2.264
68065SOL     OW 6091  14.570  11.701   9.511
68065SOL    HW1 6092  14.536  11.706   9.600
68065SOL    HW2 6093  14.574  11.792   9.482
68066SOL     OW 6094  10.844   9.482   3.345
68066SOL    HW1 6095  10.815   9.396   3.313
68066SOL    HW2 6096  10.806   9.488   3.433
68067SOL     OW 6097   8.350   0.852   6.832
68067SOL    HW1 6098   8.437   0.876   6.865
68067SOL    HW2 6099   8.303   0.819   6.908
68068SOL     OW 6100   0.471  12.881   9.549
68068SOL    HW1 6101   0.564  12.858   9.551
68068SOL    HW2 6102   0.448  12.901   9.639
68069SOL     OW 6103  10.427   9.481   9.951
68069SOL    HW1 6104  10.481   9.404   9.930
68069SOL    HW2 6105  10.487   9.540   9.996
68070SOL     OW 6106  10.960  14.769   4.921
68070SOL    HW1 6107  10.925  14.856   4.902
68070SOL    HW2 6108  11.005  14.778   5.005
68071SOL     OW 6109   4.434   1.850   5.934
68071SOL    HW1 6110   4.376   1.780   5.904
68071SOL    HW2 6111   4.447   1.905   5.857
68072SOL     OW 6112  14.082   2.849   7.944
68072SOL    HW1 6113  14.100   2.768   7.992
68072SOL    HW2 6114  13.998   2.879   7.979
68073SOL     OW 6115   7.534   9.508  12.685
68073SOL    HW1 6116   7.625   9.522  12.659
68073SOL    HW2 6117   7.491   9.476  12.606
68074SOL     OW 6118   5.899   8.382   0.912
68074SOL    HW1 6119   5.889   8.337   0.828
68074SOL    HW2 6120   5.916   8.312   0.975
68075SOL     OW 6121   9.750   0.641  14.125
68075SOL    HW1 6122   9.723   0.550  14.117
68075SOL    HW2 6123   9.812   0.642  14.198
68076SOL     OW 6124   0.174   9.663  11.452
68076SOL    HW1 6125   0.106   9.707  11.401
68076SOL    HW2 6126   0.256   9.700  11.420
68077SOL     OW 6127   5.909  11.520   7.838
68077SOL    HW1 6128   5.836  11.579   7.854
68077SOL    HW2 6129   5.977  11.576   7.800
68078SOL     OW 6130   6.282   7.885  11.820
68078SOL    HW1 6131   6.226   7.963  11.814
68078SOL    HW2 6132   6.265   7.837  11.738
68079SOL     OW 6133   1.568   3.019  11.112
68079SOL    HW1 6134   1.554   3.069  11.031
68079SOL    HW2 6135   1.643   2.963  11.092
68080SOL     OW 6136   5.346  12.540   0.695
68080SOL    HW1 6137   5.398  12.565   0.771
68080SOL    HW2 6138   5.257  12.568   0.715
68081SOL     OW 6139  12.995  13.335   3.055
68081SOL    HW1 6140  13.058  13.405   3.069
68081SOL    HW2 6141  12.923  13.355   3.114
68082SOL     OW 6142   4.224  10.834  13.035
68082SOL    HW1 6143   4.154  10.792  12.984
68082SOL    HW2 6144   4.247  10.769  13.102
68083SOL     OW 6145   0.955   7.130   8.528
68083SOL    HW1 6146   0.939   7.186   8.452
68083SOL    HW2 6147   1.025   7.071   8.499
68084SOL     OW 6148   1.089   3.612   6.364
68084SOL    HW1 6149   1.129   3.537   6.408
68084SOL    HW2 6150   1.162   3.660   6.326
68085SOL     OW 6151   2.785   4.397   3.244
68085SOL    HW1 6152   2.736   4.315   3.241
68085SOL    HW2 6153   2.866   4.374   3.290
68086SOL     OW 6154   8.134   5.672   8.676
68086SOL    HW1 6155   8.045   5.681   8.643
68086SOL    HW2 6156   8.124   5.664   8.771
68087SOL     OW 6157  14.855  14.803  10.436
68087SOL    HW1 6158  14.862  14.831  10.344
68087SOL    HW2 6159  14.794  14.730  10.434
68088SOL     OW 6160   5.304   0.027  13.958
68088SOL    HW1 6161   5.312   0.005  13.866
68088SOL    HW2 6162   5.238   0.097  13.961
68089SOL     OW 6163   1.102   2.899   5.043
68089SOL    HW1 6164   1.048   2.976   5.028
68089SOL    HW2 6165   1.046   2.839   5.093
68090SOL     OW 6166   0.774   3.389   2.383
68090SOL    HW1 6167   0.851   3.374   2.438
68090SOL    HW2 6168   0.699   3.375   2.442
68091SOL     OW 6169  14.672   4.157   9.570
68091SOL    HW1 6170  14.590   4.205   9.580
68091SOL    HW2 6171  14.646   4.065   9.577
68092SOL     OW 6172   6.900   9.730  11.691
68092SOL    HW1 6173   6.863   9.659  11.638
68092SOL    HW2 6174   6.861   9.719  11.777
68093SOL     OW 6175   6.392  10.362   4.956
68093SOL    HW1 6176   6.481  10.329   4.966
68093SOL    HW2 6177   6.363  10.382   5.045
68094SOL     OW 6178   9.640   1.181  13.741
68094SOL    HW1 6179   9.658   1.112  13.805
68094SOL    HW2 6180   9.551   1.209  13.760
68095SOL     OW 6181   1.389  11.488  12.852
68095SOL    HW1 6182   1.405  11.445  12.768
68095SOL    HW2 6183   1.307  11.449  12.883
68096SOL     OW 6184   7.912   6.382  10.635
68096SOL    HW1 6185   7.980   6.317  10.619
68096SOL    HW2 6186   7.956   6.466  10.623
68097SOL     OW 6187   6.757   7.085  10.629
68097SOL    HW1 6188   6.825   7.072  10.695
68097SOL    HW2 6189   6.684   7.123  10.676
68098SOL     OW 6190   3.476   9.597  14.493
68098SOL    HW1 6191   3.443   9.527  14.549
68098SOL    HW2 6192   3.571   9.588  14.495
68099SOL     OW 6193   0.704   9.182   1.863
68099SOL    HW1 6194   0.617   9.154   1.834
68099SOL    HW2 6195   0.738   9.107   1.913
68100SOL     OW 6196  10.539   8.697  13.694
68100SOL    HW1 6197  10.596   8.621  13.694
68100SOL    HW2 6198  10.594   8.769  13.662
68101SOL     OW 6199   1.452   8.407  12.366
68101SOL    HW1 6200   1.431   8.455  12.447
68101SOL    HW2 6201   1.441   8.315  12.389
68102SOL     OW 6202   2.339  13.535   4.736
68102SOL    HW1 6203   2.356  13.484   4.657
68102SOL    HW2 6204   2.324  13.624   4.704
68103SOL     OW 6205   1.463   8.970   6.033
68103SOL    HW1 6206   1.541   8.920   6.009
68103SOL    HW2 6207   1.487   9.013   6.115
68104SOL     OW 6208   4.486   8.913  13.994
68104SOL    HW1 6209   4.576   8.932  13.967
68104SOL    HW2 6210   4.433   8.937  13.918
68105SOL     OW 6211  12.351   8.130  13.147
68105SOL    HW1 6212  12.346   8.224  13.159
68105SOL    HW2 6213  12.430   8.104  13.194
68106SOL     OW 6214  12.925  13.446   3.365
68106SOL    HW1 6215  12.960  13.531   3.337
68106SOL    HW2 6216  12.913  13.455   3.459
68107SOL     OW 6217   9.148   1.843   3.228
68107SOL    HW1 6218   9.212   1.857   3.158
68107SOL    HW2 6219   9.125   1.931   3.257
68108SOL     OW 6220   7.730  13.402   6.186
68108SOL    HW1 6221   7.800  13.416   6.250
68108SOL    HW2 6222   7.760  13.327   6.135
68109SOL     OW 6223   2.168  14.605   5.575
68109SOL    HW1 6224   2.220  14.534   5.612
68109SOL    HW2 6225   2.180  14.677   5.637
68110SOL     OW 6226   9.562   8.901  13.386
68110SOL    HW1 6227   9.504   8.882  13.313
68110SOL    HW2 6228   9.638   8.944  13.347
68111SOL     OW 6229   5.545   5.120   4.297
68111SOL    HW1 6230   5.578   5.079   4.217
68111SOL    HW2 6231   5.594   5.202   4.304
68112SOL     OW 6232   4.870   0.812   3.071
68112SOL    HW1 6233   4.803   0.881   3.070
68112SOL    HW2 6234   4.944   0.852   3.117
68113SOL     OW 6235  11.675  12.476   9.470
68113SOL    HW1 6236  11.760  12.455   9.510
68113SOL    HW2 6237  11.636  12.541   9.530
68114SOL     OW 6238   2.524   3.884  13.081
68114SOL    HW1 6239   2.595   3.941  13.053
68114SOL    HW2 6240   2.531   3.807  13.024
68115SOL     OW 6241   8.775   4.011   9.200
68115SOL    HW1 6242   8.815   4.016   9.114
68115SOL    HW2 6243   8.840   4.047   9.260
68116SOL     OW 6244   1.956   0.340  13.977
68116SOL    HW1 6245   1.960   0.299  14.064
68116SOL    HW2 6246   1.951   0.267  13.916
68117SOL     OW 6247   8.260  10.966  12.215
68117SOL    HW1 6248   8.336  10.960  12.158
68117SOL    HW2 6249   8.255  11.058  12.240
68118SOL     OW 6250  13.502   9.611   7.684
68118SOL    HW1 6251  13.561   9.557   7.736
68118SOL    HW2 6252  13.459   9.550   7.624
68119SOL     OW 6253  10.572   8.645   5.784
68119SOL    HW1 6254  10.478   8.666   5.779
68119SOL    HW2 6255  10.575   8.561   5.830
68120SOL     OW 6256   3.943   9.208   6.398
68120SOL    HW1 6257   4.023   9.162   6.424
68120SOL    HW2 6258   3.898   9.225   6.481
68121SOL     OW 6259  12.563  12.537  11.230
68121SOL    HW1 6260  12.628  12.479  11.270
68121SOL    HW2 6261  12.615  12.604  11.185
68122SOL     OW 6262  13.509  12.125   2.839
68122SOL    HW1 6263  13.517  12.145   2.932
68122SOL    HW2 6264  13.448  12.052   2.835
68123SOL     OW 6265   7.539   9.206   5.772
68123SOL    HW1 6266   7.551   9.229   5.864
68123SOL    HW2 6267   7.609   9.144   5.752
68124SOL     OW 6268   2.383   3.693   7.334
68124SOL    HW1 6269   2.416   3.611   7.298
68124SOL    HW2 6270   2.346   3.668   7.419
68125SOL     OW 6271   8.464   8.313   8.707
68125SOL    HW1 6272   8.457   8.408   8.716
68125SOL    HW2 6273   8.512   8.301   8.625
68126SOL     OW 6274   1.478  12.582  13.331
68126SOL    HW1 6275   1.388  12.553  13.316
68126SOL    HW2 6276   1.493  12.649  13.265
68127SOL     OW 6277   7.230   7.885   3.234
68127SOL    HW1 6278   7.180   7.962   3.260
68127SOL    HW2 6279   7.321   7.905   3.258
68128SOL     OW 6280   6.651   9.574   6.051
68128SOL    HW1 6281   6.639   9.520   6.129
68128SOL    HW2 6282   6.611   9.658   6.074
68129SOL     OW 6283   6.158   4.662   0.553
68129SOL    HW1 6284   6.219   4.591   0.529
68129SOL    HW2 6285   6.175   4.677   0.646
68130SOL     OW 6286   7.822   0.173   3.391
68130SOL    HW1 6287   7.789   0.263   3.386
68130SOL    HW2 6288   7.822   0.152   3.485
68131SOL     OW 6289  11.347   7.418   3.888
68131SOL    HW1 6290  11.323   7.333   3.925
68131SOL    HW2 6291  11.340   7.478   3.962
68132SOL     OW 6292   1.536  14.574   1.141
68132SOL    HW1 6293   1.611  14.514   1.145
68132SOL    HW2 6294   1.574  14.661   1.143
68133SOL     OW 6295  10.590   0.719   8.671
68133SOL    HW1 6296  10.664   0.761   8.626
68133SOL    HW2 6297  10.513   0.749   8.623
68134SOL     OW 6298   7.616   9.406   7.648
68134SOL    HW1 6299   7.603   9.405   7.554
68134SOL    HW2 6300   7.697   9.356   7.661
68135SOL     OW 6301   3.349   2.498   4.147
68135SOL    HW1 6302   3.324   2.406   4.146
68135SOL    HW2 6303   3.391   2.511   4.231
68136SOL     OW 6304   1.620   9.644   5.418
68136SOL    HW1 6305   1.641   9.679   5.331
68136SOL    HW2 6306   1.526   9.628   5.415
68137SOL     OW 6307   5.366   5.431   4.820
68137SOL    HW1 6308   5.387   5.358   4.763
68137SOL    HW2 6309   5.278   5.412   4.852
68138SOL     OW 6310  11.183   3.258  12.897
68138SOL    HW1 6311  11.217   3.341  12.865
68138SOL    HW2 6312  11.156   3.277  12.987
68139SOL     OW 6313   0.125   1.052   5.247
68139SOL    HW1 6314   0.086   0.975   5.205
68139SOL    HW2 6315   0.203   1.017   5.291
68140SOL     OW 6316  12.645   5.566   9.375
68140SOL    HW1 6317  12.704   5.611   9.435
68140SOL    HW2 6318  12.696   5.492   9.341
68141SOL     OW 6319  14.622   4.671   4.877
68141SOL    HW1 6320  14.661   4.652   4.963
68141SOL    HW2 6321  14.599   4.764   4.882
68142SOL     OW 6322  13.442   1.225   6.358
68142SOL    HW1 6323  13.389   1.225   6.438
68142SOL    HW2 6324  13.531   1.242   6.387
68143SOL     OW 6325   0.742  13.482  14.523
68143SOL    HW1 6326   0.803  13.436  14.580
68143SOL    HW2 6327   0.751  13.439  14.438
68144SOL     OW 6328   6.129  11.492  10.719
68144SOL    HW1 6329   6.152  11.435  10.793
68144SOL    HW2 6330   6.136  11.436  10.642
68145SOL     OW 6331  11.460   3.925   4.842
68145SOL    HW1 6332  11.403   4.001   4.858
68145SOL    HW2 6333  11.406   3.866   4.790
68146SOL     OW 6334   5.904   8.169   8.915
68146SOL    HW1 6335   5.827   8.219   8.887
68146SOL    HW2 6336   5.872   8.117   8.989
68147SOL     OW 6337   2.087   1.509   9.565
68147SOL    HW1 6338   2.169   1.474   9.530
68147SOL    HW2 6339   2.109   1.599   9.592
68148SOL     OW 6340   6.475  10.564   6.671
68148SOL    HW1 6341   6.554  10.543   6.622
68148SOL    HW2 6342   6.499  10.554   6.763
68149SOL     OW 6343  10.952   7.791   0.734
68149SOL    HW1 6344  10.913   7.731   0.671
68149SOL    HW2 6345  11.023   7.834   0.686
68150SOL     OW 6346   3.626   5.975  12.280
68150SOL    HW1 6347   3.690   5.908  12.259
68150SOL    HW2 6348   3.671   6.036  12.338
68151SOL     OW 6349   8.336   4.672   2.861
68151SOL    HW1 6350   8.323   4.649   2.953
68151SOL    HW2 6351   8.412   4.619   2.834
68152SOL     OW 6352  12.329   1.023   5.476
68152SOL    HW1 6353  12.408   1.059   5.515
68152SOL    HW2 6354  12.357   0.992   5.390
68153SOL     OW 6355   4.091  11.395  14.535
68153SOL    HW1 6356   4.177  11.357  14.522
68153SOL    HW2 6357   4.108  11.488  14.550
68154SOL     OW 6358  11.687   5.897  13.408
68154SOL    HW1 6359  11.737   5.858  13.480
68154SOL    HW2 6360  11.735   5.976  13.386
68155SOL     OW 6361   8.956  12.232   9.651
68155SOL    HW1 6362   8.884  12.294   9.663
68155SOL    HW2 6363   8.915  12.151   9.621
68156SOL     OW 6364  11.618   6.761  14.495
68156SOL    HW1 6365  11.548   6.728  14.552
68156SOL    HW2 6366  11.653   6.683  14.453
68157SOL     OW 6367   8.763   1.573  11.062
68157SOL    HW1 6368   8.768   1.583  11.157
68157SOL    HW2 6369   8.850   1.598  11.031
68158SOL     OW 6370   9.914   6.084   9.955
68158SOL    HW1 6371   9.976   6.084   9.883
68158SOL    HW2 6372   9.837   6.039   9.921
68159SOL     OW 6373   9.907   5.085  13.983
68159SOL    HW1 6374   9.991   5.040  13.992
68159SOL    HW2 6375   9.848   5.038  14.041
68160SOL     OW 6376   6.867  11.615   3.095
68160SOL    HW1 6377   6.840  11.706   3.085
68160SOL    HW2 6378   6.808  11.566   3.038
68161SOL     OW 6379   1.751  13.217  13.484
68161SOL    HW1 6380   1.840  13.192  13.507
68161SOL    HW2 6381   1.760  13.304  13.444
68162SOL     OW 6382   7.720   9.312   1.942
68162SOL    HW1 6383   7.738   9.232   1.991
68162SOL    HW2 6384   7.700   9.282   1.854
68163SOL     OW 6385  14.022   0.122   5.366
68163SOL    HW1 6386  14.053   0.211   5.349
68163SOL    HW2 6387  13.928   0.126   5.348
68164SOL     OW 6388   4.448  12.233   6.058
68164SOL    HW1 6389   4.456  12.159   6.118
68164SOL    HW2 6390   4.537  12.263   6.044
68165SOL     OW 6391   0.166  11.480   6.158
68165SOL    HW1 6392   0.242  11.477   6.218
68165SOL    HW2 6393   0.198  11.440   6.077
68166SOL     OW 6394  10.903  11.445   3.856
68166SOL    HW1 6395  10.911  11.488   3.771
68166SOL    HW2 6396  10.941  11.358   3.843
68167SOL     OW 6397   9.237  14.535   9.112
68167SOL    HW1 6398   9.161  14.593   9.109
68167SOL    HW2 6399   9.204  14.449   9.086
68168SOL     OW 6400   5.248   2.259   1.306
68168SOL    HW1 6401   5.190   2.298   1.240
68168SOL    HW2 6402   5.209   2.285   1.390
68169SOL     OW 6403   1.876   6.766   6.876
68169SOL    HW1 6404   1.906   6.819   6.950
68169SOL    HW2 6405   1.804   6.713   6.912
68170SOL     OW 6406  13.923   4.733   5.535
68170SOL    HW1 6407  13.881   4.776   5.610
68170SOL    HW2 6408  14.004   4.697   5.570
68171SOL     OW 6409   7.073  14.022  12.468
68171SOL    HW1 6410   7.167  14.039  12.466
68171SOL    HW2 6411   7.066  13.928  12.450
68172SOL     OW 6412  11.754  14.656   4.634
68172SOL    HW1 6413  11.779  14.749   4.629
68172SOL    HW2 6414  11.681  14.654   4.695
68173SOL     OW 6415   2.668   3.468   6.517
68173SOL    HW1 6416   2.710   3.554   6.521
68173SOL    HW2 6417   2.633   3.454   6.605
68174SOL     OW 6418   1.487   7.846   8.508
68174SOL    HW1 6419   1.445   7.929   8.484
68174SOL    HW2 6420   1.496   7.849   8.603
68175SOL     OW 6421  12.695   4.165   8.796
68175SOL    HW1 6422  12.720   4.073   8.799
68175SOL    HW2 6423  12.624   4.172   8.861
68176SOL     OW 6424   6.277   8.296   9.465
68176SOL    HW1 6425   6.303   8.205   9.452
68176SOL    HW2 6426   6.198   8.307   9.412
68177SOL     OW 6427  12.234   9.766  14.405
68177SOL    HW1 6428  12.318   9.723  14.420
68177SOL    HW2 6429  12.223   9.764  14.310
68178SOL     OW 6430   7.672   8.341   9.412
68178SOL    HW1 6431   7.666   8.425   9.366
68178SOL    HW2 6432   7.602   8.344   9.477
68179SOL     OW 6433   3.159  12.798   0.008
68179SOL    HW1 6434   3.166  12.875   0.064
68179SOL    HW2 6435   3.179  12.724   0.066
68180SOL     OW 6436   7.230  13.559   5.181
68180SOL    HW1 6437   7.208  13.652   5.172
68180SOL    HW2 6438   7.305  13.548   5.122
68181SOL     OW 6439   1.918  12.150   9.708
68181SOL    HW1 6440   1.969  12.154   9.789
68181SOL    HW2 6441   1.863  12.072   9.719
68182SOL     OW 6442   1.615   9.364   0.359
68182SOL    HW1 6443   1.618   9.269   0.347
68182SOL    HW2 6444   1.707   9.390   0.369
68183SOL     OW 6445  11.896   2.778   2.020
68183SOL    HW1 6446  11.949   2.820   1.952
68183SOL    HW2 6447  11.871   2.694   1.982
68184SOL     OW 6448   1.015   2.330   5.065
68184SOL    HW1 6449   0.988   2.397   5.127
68184SOL    HW2 6450   1.005   2.372   4.979
68185SOL     OW 6451   8.000   2.116   5.950
68185SOL    HW1 6452   7.918   2.072   5.973
68185SOL    HW2 6453   7.994   2.130   5.856
68186SOL     OW 6454   0.802  12.322   1.125
68186SOL    HW1 6455   0.869  12.255   1.130
68186SOL    HW2 6456   0.728  12.280   1.082
68187SOL     OW 6457   9.369  10.906  12.942
68187SOL    HW1 6458   9.384  10.881  12.851
68187SOL    HW2 6459   9.355  10.823  12.988
68188SOL     OW 6460   8.538   6.903  13.997
68188SOL    HW1 6461   8.477   6.867  14.062
68188SOL    HW2 6462   8.571   6.983  14.037
68189SOL     OW 6463   9.182   0.689  13.278
68189SOL    HW1 6464   9.087   0.702  13.269
68189SOL    HW2 6465   9.196   0.598  13.252
68190SOL     OW 6466  11.683   4.798   2.884
68190SOL    HW1 6467  11.612   4.861   2.875
68190SOL    HW2 6468  11.643   4.714   2.860
68191SOL     OW 6469  13.686   4.963   7.479
68191SOL    HW1 6470  13.773   5.000   7.460
68191SOL    HW2 6471  13.703   4.898   7.548
68192SOL     OW 6472   1.426   4.338   1.541
68192SOL    HW1 6473   1.459   4.390   1.614
68192SOL    HW2 6474   1.383   4.401   1.483
68193SOL     OW 6475   5.851   2.156  14.369
68193SOL    HW1 6476   5.922   2.208  14.406
68193SOL    HW2 6477   5.811   2.213  14.303
68194SOL     OW 6478   6.230  12.303   7.567
68194SOL    HW1 6479   6.310  12.343   7.602
68194SOL    HW2 6480   6.250  12.288   7.474
68195SOL     OW 6481  12.662   0.318  14.085
68195SOL    HW1 6482  12.743   0.278  14.054
68195SOL    HW2 6483  12.611   0.246  14.119
68196SOL     OW 6484  10.667   9.577  14.511
68196SOL    HW1 6485  10.574   9.596  14.524
68196SOL    HW2 6486  10.671   9.482  14.500
68197SOL     OW 6487   7.613   5.184   9.192
68197SOL    HW1 6488   7.617   5.203   9.286
68197SOL    HW2 6489   7.519   5.177   9.173
68198SOL     OW 6490  12.512   0.810   7.622
68198SOL    HW1 6491  12.605   0.792   7.634
68198SOL    HW2 6492  12.482   0.744   7.559
68199SOL     OW 6493   6.735   3.062   3.918
68199SOL    HW1 6494   6.654   3.103   3.890
68199SOL    HW2 6495   6.765   3.114   3.992
68200SOL     OW 6496   4.081   6.127  11.828
68200SOL    HW1 6497   4.076   6.132  11.733
68200SOL    HW2 6498   4.093   6.034  11.846
68201SOL     OW 6499   1.781   3.426  10.932
68201SOL    HW1 6500   1.698   3.460  10.966
68201SOL    HW2 6501   1.785   3.336  10.963
68202SOL     OW 6502   6.631   1.049   3.783
68202SOL    HW1 6503   6.664   0.997   3.710
68202SOL    HW2 6504   6.543   1.076   3.755
68203SOL     OW 6505   2.020  12.349   2.858
68203SOL    HW1 6506   1.932  12.384   2.847
68203SOL    HW2 6507   2.048  12.381   2.944
68204SOL     OW 6508   2.485  13.151   4.545
68204SOL    HW1 6509   2.555  13.185   4.489
68204SOL    HW2 6510   2.429  13.226   4.562
68205SOL     OW 6511  11.938   4.838   9.951
68205SOL    HW1 6512  11.987   4.876  10.023
68205SOL    HW2 6513  11.849   4.873   9.960
68206SOL     OW 6514   2.238   9.118   7.298
68206SOL    HW1 6515   2.213   9.051   7.362
68206SOL    HW2 6516   2.167   9.182   7.302
68207SOL     OW 6517  11.779   9.741   9.807
68207SOL    HW1 6518  11.818   9.753   9.720
68207SOL    HW2 6519  11.730   9.822   9.822
68208SOL     OW 6520   0.868   4.169  12.014
68208SOL    HW1 6521   0.886   4.224  11.938
68208SOL    HW2 6522   0.929   4.199  12.081
68209SOL     OW 6523  12.101   7.646   4.936
68209SOL    HW1 6524  12.091   7.645   5.031
68209SOL    HW2 6525  12.124   7.556   4.914
68210SOL     OW 6526   1.006  11.236   9.346
68210SOL    HW1 6527   0.972  11.323   9.370
68210SOL    HW2 6528   0.983  11.181   9.420
68211SOL     OW 6529   4.907   6.264   2.232
68211SOL    HW1 6530   4.926   6.318   2.309
68211SOL    HW2 6531   4.988   6.216   2.216
68212SOL     OW 6532   8.758   3.228  13.864
68212SOL    HW1 6533   8.725   3.182  13.941
68212SOL    HW2 6534   8.848   3.195  13.854
68213SOL     OW 6535   3.530   8.410   1.603
68213SOL    HW1 6536   3.595   8.444   1.542
68213SOL    HW2 6537   3.460   8.475   1.602
68214SOL     OW 6538   0.649   8.776   0.358
68214SOL    HW1 6539   0.583   8.809   0.419
68214SOL    HW2 6540   0.638   8.829   0.279
68215SOL     OW 6541  14.090   7.342   0.746
68215SOL    HW1 6542  14.150   7.274   0.777
68215SOL    HW2 6543  14.148   7.412   0.715
68216SOL     OW 6544  13.281   7.935   9.025
68216SOL    HW1 6545  13.369   7.972   9.018
68216SOL    HW2 6546  13.255   7.921   8.934
68217SOL     OW 6547  14.569   6.774   5.964
68217SOL    HW1 6548  14.585   6.868   5.972
68217SOL    HW2 6549  14.651   6.733   5.991
68218SOL     OW 6550   3.840  13.117  12.805
68218SOL    HW1 6551   3.862  13.057  12.734
68218SOL    HW2 6552   3.804  13.060  12.874
68219SOL     OW 6553  10.810  10.003   9.442
68219SOL    HW1 6554  10.728   9.998   9.392
68219SOL    HW2 6555  10.842   9.913   9.444
68220SOL     OW 6556   9.895   4.562   3.334
68220SOL    HW1 6557   9.931   4.599   3.415
68220SOL    HW2 6558   9.938   4.477   3.327
68221SOL     OW 6559  11.977   5.571  11.274
68221SOL    HW1 6560  12.054   5.525  11.307
68221SOL    HW2 6561  11.964   5.534  11.186
68222SOL     OW 6562   2.378  11.651  10.584
68222SOL    HW1 6563   2.299  11.653  10.638
68222SOL    HW2 6564   2.417  11.565  10.601
68223SOL     OW 6565   5.971   6.968  12.492
68223SOL    HW1 6566   6.018   6.974  12.409
68223SOL    HW2 6567   5.889   7.017  12.477
68224SOL     OW 6568   1.835   4.748   0.784
68224SOL    HW1 6569   1.821   4.654   0.773
68224SOL    HW2 6570   1.806   4.766   0.873
68225SOL     OW 6571   5.151  11.226   9.766
68225SOL    HW1 6572   5.084  11.157   9.760
68225SOL    HW2 6573   5.208  11.211   9.690
68226SOL     OW 6574   3.176   4.211   9.161
68226SOL    HW1 6575   3.102   4.253   9.116
68226SOL    HW2 6576   3.194   4.133   9.109
68227SOL     OW 6577   3.945   4.513   4.355
68227SOL    HW1 6578   3.876   4.556   4.305
68227SOL    HW2 6579   3.950   4.563   4.437
68228SOL     OW 6580   3.540   2.212   6.638
68228SOL    HW1 6581   3.578   2.154   6.572
68228SOL    HW2 6582   3.453   2.233   6.604
68229SOL     OW 6583   6.482   5.697  11.919
68229SOL    HW1 6584   6.388   5.685  11.917
68229SOL    HW2 6585   6.512   5.673  11.831
68230SOL     OW 6586   0.673  14.309  10.644
68230SOL    HW1 6587   0.621  14.311  10.564
68230SOL    HW2 6588   0.752  14.261  10.620
68231SOL     OW 6589   2.175   7.392   3.785
68231SOL    HW1 6590   2.177   7.482   3.750
68231SOL    HW2 6591   2.087   7.383   3.821
68232SOL     OW 6592   2.656   0.848   4.462
68232SOL    HW1 6593   2.583   0.831   4.402
68232SOL    HW2 6594   2.617   0.840   4.550
68233SOL     OW 6595   9.796  13.497   0.452
68233SOL    HW1 6596   9.867  13.436   0.472
68233SOL    HW2 6597   9.819  13.577   0.500
68234SOL     OW 6598  13.629  13.365   5.444
68234SOL    HW1 6599  13.545  13.358   5.399
68234SOL    HW2 6600  13.646  13.459   5.449
68235SOL     OW 6601  10.400   3.492   9.153
68235SOL    HW1 6602  10.420   3.417   9.210
68235SOL    HW2 6603  10.337   3.544   9.203
68236SOL     OW 6604   2.380   0.253  12.541
68236SOL    HW1 6605   2.320   0.325  12.521
68236SOL    HW2 6606   2.379   0.246  12.636
68237SOL     OW 6607   3.280   5.463  11.637
68237SOL    HW1 6608   3.302   5.465  11.730
68237SOL    HW2 6609   3.212   5.530  11.628
68238SOL     OW 6610   5.494   9.908   1.269
68238SOL    HW1 6611   5.573   9.950   1.235
68238SOL    HW2 6612   5.450   9.873   1.192
68239SOL     OW 6613  13.068  13.587   5.994
68239SOL    HW1 6614  13.145  13.569   5.940
68239SOL    HW2 6615  13.084  13.674   6.030
68240SOL     OW 6616   5.294   7.569  12.581
68240SOL    HW1 6617   5.202   7.545  12.567
68240SOL    HW2 6618   5.330   7.494  12.629
68241SOL     OW 6619   9.107  11.905   6.227
68241SOL    HW1 6620   9.149  11.823   6.250
68241SOL    HW2 6621   9.178  11.970   6.232
68242SOL     OW 6622   0.888   4.019   1.017
68242SOL    HW1 6623   0.881   3.945   0.956
68242SOL    HW2 6624   0.914   4.093   0.963
68243SOL     OW 6625   1.815  14.427  14.428
68243SOL    HW1 6626   1.898  14.387  14.453
68243SOL    HW2 6627   1.759  14.415  14.505
68244SOL     OW 6628  12.012   8.982   6.220
68244SOL    HW1 6629  12.062   9.033   6.156
68244SOL    HW2 6630  12.039   8.892   6.204
68245SOL     OW 6631   6.317   3.748   5.747
68245SOL    HW1 6632   6.346   3.745   5.838
68245SOL    HW2 6633   6.369   3.680   5.703
68246SOL     OW 6634   4.686   1.959  14.838
68246SOL    HW1 6635   4.768   1.938  14.795
68246SOL    HW2 6636   4.700   1.936   0.060
68247SOL     OW 6637   8.898  11.919   0.393
68247SOL    HW1 6638   8.952  11.985   0.349
68247SOL    HW2 6639   8.958  11.877   0.455
68248SOL     OW 6640  14.457  11.062   4.922
68248SOL    HW1 6641  14.408  11.000   4.868
68248SOL    HW2 6642  14.549  11.047   4.900
68249SOL     OW 6643  10.096   2.338  14.303
68249SOL    HW1 6644  10.119   2.248  14.283
68249SOL    HW2 6645  10.179   2.385  14.306
68250SOL     OW 6646  12.381   3.420   6.176
68250SOL    HW1 6647  12.290   3.412   6.146
68250SOL    HW2 6648  12.423   3.340   6.144
68251SOL     OW 6649   8.756   3.613   9.029
68251SOL    HW1 6650   8.792   3.677   8.967
68251SOL    HW2 6651   8.832   3.559   9.054
68252SOL     OW 6652  11.255  12.860   5.883
68252SOL    HW1 6653  11.318  12.930   5.868
68252SOL    HW2 6654  11.308  12.784   5.906
68253SOL     OW 6655  10.857  11.829   1.227
68253SOL    HW1 6656  10.862  11.914   1.184
68253SOL    HW2 6657  10.763  11.815   1.242
68254SOL     OW 6658  14.799  13.662   3.227
68254SOL    HW1 6659  14.785  13.664   3.321
68254SOL    HW2 6660  14.730  13.605   3.193
68255SOL     OW 6661  10.889   1.601  11.552
68255SOL    HW1 6662  10.803   1.639  11.533
68255SOL    HW2 6663  10.884   1.512  11.518
68256SOL     OW 6664  10.118   1.718   5.853
68256SOL    HW1 6665  10.140   1.643   5.908
68256SOL    HW2 6666  10.168   1.705   5.773
68257SOL     OW 6667   9.496   5.378   6.268
68257SOL    HW1 6668   9.507   5.445   6.201
68257SOL    HW2 6669   9.417   5.404   6.316
68258SOL     OW 6670   4.626   6.548   7.703
68258SOL    HW1 6671   4.565   6.621   7.691
68258SOL    HW2 6672   4.677   6.545   7.622
68259SOL     OW 6673   3.195   8.483   3.189
68259SOL    HW1 6674   3.261   8.551   3.181
68259SOL    HW2 6675   3.179   8.454   3.099
68260SOL     OW 6676  14.812  13.363   3.542
68260SOL    HW1 6677  14.755  13.319   3.479
68260SOL    HW2 6678  14.796  13.318   3.625
68261SOL     OW 6679   4.097  11.535   1.736
68261SOL    HW1 6680   4.167  11.482   1.699
68261SOL    HW2 6681   4.114  11.535   1.830
68262SOL     OW 6682  13.789   9.043   8.552
68262SOL    HW1 6683  13.855   9.045   8.483
68262SOL    HW2 6684  13.715   9.092   8.514
68263SOL     OW 6685   9.652   4.521   3.191
68263SOL    HW1 6686   9.737   4.513   3.233
68263SOL    HW2 6687   9.588   4.517   3.263
68264SOL     OW 6688  10.144   4.685   3.915
68264SOL    HW1 6689  10.216   4.636   3.875
68264SOL    HW2 6690  10.143   4.769   3.869
68265SOL     OW 6691   1.056   6.009   6.527
68265SOL    HW1 6692   1.020   6.017   6.615
68265SOL    HW2 6693   1.138   6.058   6.529
68266SOL     OW 6694   3.109   6.806   1.811
68266SOL    HW1 6695   3.097   6.857   1.731
68266SOL    HW2 6696   3.025   6.764   1.826
68267SOL     OW 6697   7.352   9.436   8.973
68267SOL    HW1 6698   7.385   9.473   8.892
68267SOL    HW2 6699   7.411   9.363   8.993
68268SOL     OW 6700   6.214   3.030  10.948
68268SOL    HW1 6701   6.291   3.081  10.969
68268SOL    HW2 6702   6.248   2.955  10.898
68269SOL     OW 6703   2.107   3.526  13.799
68269SOL    HW1 6704   2.192   3.570  13.809
68269SOL    HW2 6705   2.099   3.510  13.705
68270SOL     OW 6706   7.820   8.245   7.797
68270SOL    HW1 6707   7.876   8.171   7.777
68270SOL    HW2 6708   7.880   8.318   7.813
68271SOL     OW 6709   5.197  10.987   0.372
68271SOL    HW1 6710   5.109  11.023   0.376
68271SOL    HW2 6711   5.255  11.064   0.375
68272SOL     OW 6712  11.478  11.510   3.717
68272SOL    HW1 6713  11.513  11.431   3.674
68272SOL    HW2 6714  11.526  11.516   3.799
68273SOL     OW 6715   5.996  13.833  11.662
68273SOL    HW1 6716   6.070  13.859  11.717
68273SOL    HW2 6717   5.997  13.737  11.664
68274SOL     OW 6718   5.077   3.101  13.071
68274SOL    HW1 6719   5.054   3.010  13.087
68274SOL    HW2 6720   5.119   3.101  12.985
68275SOL     OW 6721   5.025   9.201   0.650
68275SOL    HW1 6722   5.014   9.265   0.720
68275SOL    HW2 6723   4.939   9.193   0.610
68276SOL     OW 6724   4.882   6.562   6.126
68276SOL    HW1 6725   4.810   6.624   6.114
68276SOL    HW2 6726   4.939   6.577   6.051
68277SOL     OW 6727   4.993   2.855  10.900
68277SOL    HW1 6728   5.089   2.865  10.900
68277SOL    HW2 6729   4.967   2.873  10.990
68278SOL     OW 6730   7.386  14.603   4.541
68278SOL    HW1 6731   7.420  14.620   4.629
68278SOL    HW2 6732   7.293  14.626   4.547
68279SOL     OW 6733  13.369  13.140  13.578
68279SOL    HW1 6734  13.314  13.112  13.651
68279SOL    HW2 6735  13.457  13.111  13.602
68280SOL     OW 6736   6.829  11.709  12.375
68280SOL    HW1 6737   6.750  11.742  12.332
68280SOL    HW2 6738   6.803  11.694  12.466
68281SOL     OW 6739   2.219  10.716   3.623
68281SOL    HW1 6740   2.277  10.668   3.682
68281SOL    HW2 6741   2.159  10.763   3.682
68282SOL     OW 6742  14.427  14.569   1.265
68282SOL    HW1 6743  14.428  14.625   1.342
68282SOL    HW2 6744  14.484  14.496   1.287
68283SOL     OW 6745   3.251   1.608  11.534
68283SOL    HW1 6746   3.229   1.699  11.554
68283SOL    HW2 6747   3.290   1.575  11.615
68284SOL     OW 6748   0.322   9.041   4.873
68284SOL    HW1 6749   0.317   9.000   4.787
68284SOL    HW2 6750   0.416   9.039   4.895
68285SOL     OW 6751  10.062   6.559  13.221
68285SOL    HW1 6752  10.113   6.544  13.141
68285SOL    HW2 6753   9.983   6.506  13.209
68286SOL     OW 6754   4.628  14.777   3.287
68286SOL    HW1 6755   4.586  14.791   3.372
68286SOL    HW2 6756   4.721  14.766   3.309
68287SOL     OW 6757   8.033   5.517   2.419
68287SOL    HW1 6758   7.994   5.480   2.340
68287SOL    HW2 6759   7.969   5.582   2.450
68288SOL     OW 6760   0.254  13.979  12.045
68288SOL    HW1 6761   0.324  13.985  12.110
68288SOL    HW2 6762   0.298  13.958  11.963
68289SOL     OW 6763   1.200   5.759   2.528
68289SOL    HW1 6764   1.178   5.805   2.447
68289SOL    HW2 6765   1.115   5.744   2.570
68290SOL     OW 6766   7.384   9.834  11.386
68290SOL    HW1 6767   7.294   9.805  11.375
68290SOL    HW2 6768   7.379   9.902  11.454
68291SOL     OW 6769   1.877   0.054  12.114
68291SOL    HW1 6770   1.884  14.846  12.057
68291SOL    HW2 6771   1.832   0.119  12.061
68292SOL     OW 6772  14.096  12.330  12.848
68292SOL    HW1 6773  14.140  12.391  12.788
68292SOL    HW2 6774  14.168  12.285  12.894
68293SOL     OW 6775   4.814   8.488  10.844
68293SOL    HW1 6776   4.891   8.460  10.794
68293SOL    HW2 6777   4.849   8.545  10.912
68294SOL     OW 6778  13.208   5.294  10.904
68294SOL    HW1 6779  13.272   5.332  10.964
68294SOL    HW2 6780  13.260   5.257  10.833
68295SOL     OW 6781   3.973   8.481   5.057
68295SOL    HW1 6782   3.966   8.386   5.057
68295SOL    HW2 6783   3.990   8.505   4.966
68296SOL     OW 6784   1.288   2.364   8.750
68296SOL    HW1 6785   1.302   2.314   8.669
68296SOL    HW2 6786   1.340   2.318   8.815
68297SOL     OW 6787  12.998   4.736   9.268
68297SOL    HW1 6788  13.012   4.714   9.360
68297SOL    HW2 6789  12.981   4.652   9.226
68298SOL     OW 6790  12.660   5.120   8.523
68298SOL    HW1 6791  12.752   5.128   8.498
68298SOL    HW2 6792  12.652   5.032   8.557
68299SOL     OW 6793   9.907   4.115   7.636
68299SOL    HW1 6794   9.878   4.190   7.689
68299SOL    HW2 6795   9.827   4.078   7.601
68300SOL     OW 6796  11.832  10.893   4.483
68300SOL    HW1 6797  11.782  10.861   4.408
68300SOL    HW2 6798  11.832  10.820   4.545
68301SOL     OW 6799  13.332   5.311   2.688
68301SOL    HW1 6800  13.252   5.363   2.688
68301SOL    HW2 6801  13.388   5.353   2.753
68302SOL     OW 6802   6.798  11.137   0.736
68302SOL    HW1 6803   6.756  11.209   0.688
68302SOL    HW2 6804   6.861  11.179   0.794
68303SOL     OW 6805   8.333  14.578   5.162
68303SOL    HW1 6806   8.358  14.600   5.072
68303SOL    HW2 6807   8.329  14.663   5.207
68304SOL     OW 6808   1.900  12.384   8.285
68304SOL    HW1 6809   1.868  12.446   8.220
68304SOL    HW2 6810   1.975  12.426   8.324
68305SOL     OW 6811   3.535   5.455   5.672
68305SOL    HW1 6812   3.623   5.424   5.652
68305SOL    HW2 6813   3.548   5.539   5.714
68306SOL     OW 6814   1.215  12.698   3.630
68306SOL    HW1 6815   1.208  12.779   3.579
68306SOL    HW2 6816   1.247  12.727   3.715
68307SOL     OW 6817   0.397   0.505  13.216
68307SOL    HW1 6818   0.388   0.586  13.266
68307SOL    HW2 6819   0.467   0.457  13.259
68308SOL     OW 6820  14.037   9.364   5.463
68308SOL    HW1 6821  14.016   9.302   5.533
68308SOL    HW2 6822  13.970   9.349   5.397
68309SOL     OW 6823   0.540  12.657   5.626
68309SOL    HW1 6824   0.512  12.588   5.686
68309SOL    HW2 6825   0.627  12.682   5.657
68310SOL     OW 6826   8.358   1.357   4.459
68310SOL    HW1 6827   8.398   1.438   4.491
68310SOL    HW2 6828   8.430   1.308   4.421
68311SOL     OW 6829   3.647   2.600   7.389
68311SOL    HW1 6830   3.741   2.615   7.377
68311SOL    HW2 6831   3.608   2.624   7.305
68312SOL     OW 6832  13.514   8.766  13.762
68312SOL    HW1 6833  13.511   8.799  13.851
68312SOL    HW2 6834  13.423   8.762  13.734
68313SOL     OW 6835   8.531   2.658   4.623
68313SOL    HW1 6836   8.514   2.748   4.595
68313SOL    HW2 6837   8.623   2.643   4.600
68314SOL     OW 6838   0.377   5.918  11.445
68314SOL    HW1 6839   0.430   5.993  11.417
68314SOL    HW2 6840   0.378   5.858  11.370
68315SOL     OW 6841   3.335   2.533  14.455
68315SOL    HW1 6842   3.264   2.571  14.507
68315SOL    HW2 6843   3.318   2.439  14.456
68316SOL     OW 6844   5.274   6.811   9.508
68316SOL    HW1 6845   5.180   6.813   9.526
68316SOL    HW2 6846   5.281   6.829   9.415
68317SOL     OW 6847   1.174   8.205   4.822
68317SOL    HW1 6848   1.175   8.166   4.909
68317SOL    HW2 6849   1.249   8.264   4.821
68318SOL     OW 6850  10.691  13.516   2.813
68318SOL    HW1 6851  10.673  13.605   2.782
68318SOL    HW2 6852  10.758  13.526   2.881
68319SOL     OW 6853   4.873   3.415  11.122
68319SOL    HW1 6854   4.792   3.422  11.070
68319SOL    HW2 6855   4.843   3.392  11.210
68320SOL     OW 6856   7.672   7.479   6.088
68320SOL    HW1 6857   7.732   7.517   6.151
68320SOL    HW2 6858   7.635   7.403   6.133
68321SOL     OW 6859  13.802   9.495   3.537
68321SOL    HW1 6860  13.847   9.428   3.589
68321SOL    HW2 6861  13.867   9.565   3.530
68322SOL     OW 6862   8.193  12.419   2.107
68322SOL    HW1 6863   8.235  12.469   2.178
68322SOL    HW2 6864   8.121  12.475   2.078
68323SOL     OW 6865  12.152   5.138   4.989
68323SOL    HW1 6866  12.168   5.225   4.952
68323SOL    HW2 6867  12.075   5.106   4.942
68324SOL     OW 6868  11.775  11.796   0.367
68324SOL    HW1 6869  11.838  11.737   0.408
68324SOL    HW2 6870  11.696  11.786   0.420
68325SOL     OW 6871   6.269   4.037  12.621
68325SOL    HW1 6872   6.364   4.038  12.616
68325SOL    HW2 6873   6.248   4.074  12.707
68326SOL     OW 6874   7.055   9.661  13.809
68326SOL    HW1 6875   7.139   9.617  13.826
68326SOL    HW2 6876   6.995   9.589  13.790
68327SOL     OW 6877   1.536   2.653   9.779
68327SOL    HW1 6878   1.491   2.738   9.770
68327SOL    HW2 6879   1.609   2.671   9.838
68328SOL     OW 6880   7.060   8.384   1.357
68328SOL    HW1 6881   7.068   8.318   1.427
68328SOL    HW2 6882   6.967   8.381   1.333
68329SOL     OW 6883   4.503   5.754  11.148
68329SOL    HW1 6884   4.465   5.840  11.127
68329SOL    HW2 6885   4.435   5.711  11.200
68330SOL     OW 6886   5.366   7.445   9.442
68330SOL    HW1 6887   5.425   7.509   9.401
68330SOL    HW2 6888   5.357   7.476   9.532
68331SOL     OW 6889   0.251   5.674   1.033
68331SOL    HW1 6890   0.302   5.616   0.977
68331SOL    HW2 6891   0.179   5.704   0.978
68332SOL     OW 6892  11.209   8.013   6.337
68332SOL    HW1 6893  11.251   7.927   6.336
68332SOL    HW2 6894  11.115   7.994   6.334
68333SOL     OW 6895   5.863   9.883  11.180
68333SOL    HW1 6896   5.896   9.969  11.153
68333SOL    HW2 6897   5.942   9.832  11.199
68334SOL     OW 6898   7.350   2.212   8.142
68334SOL    HW1 6899   7.265   2.250   8.166
68334SOL    HW2 6900   7.387   2.274   8.079
68335SOL     OW 6901   7.928   2.963   8.134
68335SOL    HW1 6902   7.942   3.006   8.050
68335SOL    HW2 6903   7.935   3.033   8.198
68336SOL     OW 6904  10.004  14.553   4.393
68336SOL    HW1 6905  10.051  14.620   4.443
68336SOL    HW2 6906   9.965  14.600   4.320
68337SOL     OW 6907   5.465   0.775   1.140
68337SOL    HW1 6908   5.423   0.857   1.115
68337SOL    HW2 6909   5.558   0.797   1.148
68338SOL     OW 6910  12.978   5.814   0.644
68338SOL    HW1 6911  12.988   5.719   0.630
68338SOL    HW2 6912  12.928   5.844   0.568
68339SOL     OW 6913  14.241   5.818   3.883
68339SOL    HW1 6914  14.187   5.884   3.839
68339SOL    HW2 6915  14.186   5.740   3.886
68340SOL     OW 6916   1.277  12.026   1.053
68340SOL    HW1 6917   1.240  12.115   1.051
68340SOL    HW2 6918   1.369  12.039   1.077
68341SOL     OW 6919   7.801   5.052   3.214
68341SOL    HW1 6920   7.725   4.995   3.199
68341SOL    HW2 6921   7.877   4.994   3.202
68342SOL     OW 6922  11.667  10.799   6.153
68342SOL    HW1 6923  11.697  10.821   6.065
68342SOL    HW2 6924  11.582  10.758   6.140
68343SOL     OW 6925   8.784   0.861  12.430
68343SOL    HW1 6926   8.733   0.792  12.472
68343SOL    HW2 6927   8.844   0.891  12.498
68344SOL     OW 6928   6.603  11.521  11.739
68344SOL    HW1 6929   6.636  11.454  11.679
68344SOL    HW2 6930   6.530  11.478  11.784
68345SOL     OW 6931   0.428   0.162  10.984
68345SOL    HW1 6932   0.510   0.124  11.017
68345SOL    HW2 6933   0.455   0.214  10.908
68346SOL     OW 6934   6.744  11.818   2.678
68346SOL    HW1 6935   6.708  11.907   2.683
68346SOL    HW2 6936   6.828  11.824   2.723
68347SOL     OW 6937   9.002  12.786  12.676
68347SOL    HW1 6938   9.027  12.854  12.738
68347SOL    HW2 6939   9.073  12.722  12.682
68348SOL     OW 6940  11.495  14.512   0.763
68348SOL    HW1 6941  11.581  14.482   0.791
68348SOL    HW2 6942  11.435  14.441   0.787
68349SOL     OW 6943  10.555  10.485   9.578
68349SOL    HW1 6944  10.558  10.445   9.665
68349SOL    HW2 6945  10.540  10.578   9.594
68350SOL     OW 6946   5.172   5.513  10.623
68350SOL    HW1 6947   5.194   5.421  10.633
68350SOL    HW2 6948   5.077   5.516  10.619
68351SOL     OW 6949  13.381   5.407   0.078
68351SOL    HW1 6950  13.427   5.324   0.095
68351SOL    HW2 6951  13.370   5.446   0.164
68352SOL     OW 6952   1.336   5.136  12.284
68352SOL    HW1 6953   1.292   5.077  12.223
68352SOL    HW2 6954   1.381   5.078  12.345
68353SOL     OW 6955   1.354  14.237   3.537
68353SOL    HW1 6956   1.379  14.144   3.544
68353SOL    HW2 6957   1.265  14.240   3.572
68354SOL     OW 6958   1.625   4.591   2.821
68354SOL    HW1 6959   1.585   4.530   2.759
68354SOL    HW2 6960   1.616   4.548   2.906
68355SOL     OW 6961   1.778   1.693  11.072
68355SOL    HW1 6962   1.849   1.743  11.112
68355SOL    HW2 6963   1.818   1.608  11.050
68356SOL     OW 6964   2.653   5.654   4.821
68356SOL    HW1 6965   2.610   5.632   4.739
68356SOL    HW2 6966   2.674   5.569   4.861
68357SOL     OW 6967   2.819   9.923   9.579
68357SOL    HW1 6968   2.834   9.984   9.652
68357SOL    HW2 6969   2.725   9.928   9.563
68358SOL     OW 6970   2.400   5.132  12.059
68358SOL    HW1 6971   2.490   5.155  12.037
68358SOL    HW2 6972   2.356   5.124  11.975
68359SOL     OW 6973  14.678   1.013   6.982
68359SOL    HW1 6974  14.708   1.016   7.073
68359SOL    HW2 6975  14.628   0.931   6.976
68360SOL     OW 6976   7.837  14.155   0.811
68360SOL    HW1 6977   7.811  14.218   0.744
68360SOL    HW2 6978   7.917  14.115   0.777
68361SOL     OW 6979  14.166   8.455   7.447
68361SOL    HW1 6980  14.084   8.478   7.405
68361SOL    HW2 6981  14.229   8.447   7.376
68362SOL     OW 6982  13.443   3.645  10.688
68362SOL    HW1 6983  13.437   3.731  10.646
68362SOL    HW2 6984  13.384   3.650  10.763
68363SOL     OW 6985  10.787  13.200   1.349
68363SOL    HW1 6986  10.797  13.179   1.256
68363SOL    HW2 6987  10.696  13.178   1.369
68364SOL     OW 6988  10.991   7.694   7.035
68364SOL    HW1 6989  10.920   7.689   7.098
68364SOL    HW2 6990  10.947   7.704   6.950
68365SOL     OW 6991   0.504   7.822   1.422
68365SOL    HW1 6992   0.596   7.846   1.432
68365SOL    HW2 6993   0.488   7.829   1.328
68366SOL     OW 6994   1.107   3.623   1.457
68366SOL    HW1 6995   1.085   3.582   1.541
68366SOL    HW2 6996   1.102   3.717   1.475
68367SOL     OW 6997   5.518   6.734  12.331
68367SOL    HW1 6998   5.584   6.725  12.399
68367SOL    HW2 6999   5.560   6.697  12.253
68368SOL     OW 7000   0.902   3.984   4.996
68368SOL    HW1 7001   0.889   4.074   5.026
68368SOL    HW2 7002   0.814   3.951   4.978
68369SOL     OW 7003   4.459   3.743   0.666
68369SOL    HW1 7004   4.380   3.691   0.651
68369SOL    HW2 7005   4.435   3.832   0.639
68370SOL     OW 7006   1.340  11.119  14.048
68370SOL    HW1 7007   1.383  11.135  14.132
68370SOL    HW2 7008   1.329  11.206  14.010
68371SOL     OW 7009   4.557   8.423  14.864
68371SOL    HW1 7010   4.508   8.504   0.002
68371SOL    HW2 7011   4.577   8.416  14.770
68372SOL     OW 7012  12.599   4.401  12.332
68372SOL    HW1 7013  12.524   4.362  12.377
68372SOL    HW2 7014  12.564   4.430  12.248
68373SOL     OW 7015   6.034  14.863  13.464
68373SOL    HW1 7016   5.986  14.781  13.473
68373SOL    HW2 7017   6.007   0.046  13.539
68374SOL     OW 7018  11.044  14.125   6.635
68374SOL    HW1 7019  11.013  14.058   6.696
68374SOL    HW2 7020  11.118  14.084   6.591
68375SOL     OW 7021   8.672  13.950   1.589
68375SOL    HW1 7022   8.584  13.948   1.625
68375SOL    HW2 7023   8.704  13.861   1.600
68376SOL     OW 7024  11.346   0.892  14.533
68376SOL    HW1 7025  11.429   0.856  14.502
68376SOL    HW2 7026  11.343   0.980  14.496
68377SOL     OW 7027  14.691  12.613   0.877
68377SOL    HW1 7028  14.628  12.638   0.945
68377SOL    HW2 7029  14.690  12.686   0.816
68378SOL     OW 7030   0.495  12.375  14.306
68378SOL    HW1 7031   0.474  12.443  14.242
68378SOL    HW2 7032   0.425  12.383  14.372
68379SOL     OW 7033  11.596   0.710   3.086
68379SOL    HW1 7034  11.685   0.732   3.059
68379SOL    HW2 7035  11.551   0.794   3.092
68380SOL     OW 7036   3.665   3.938   3.880
68380SOL    HW1 7037   3.626   3.883   3.948
68380SOL    HW2 7038   3.605   4.012   3.871
68381SOL     OW 7039   6.320   1.882   6.032
68381SOL    HW1 7040   6.350   1.799   5.997
68381SOL    HW2 7041   6.369   1.948   5.983
68382SOL     OW 7042   0.899   9.328   6.360
68382SOL    HW1 7043   0.948   9.364   6.434
68382SOL    HW2 7044   0.929   9.237   6.355
68383SOL     OW 7045  12.554   4.327  13.352
68383SOL    HW1 7046  12.543   4.315  13.447
68383SOL    HW2 7047  12.479   4.283  13.314
68384SOL     OW 7048  12.533   8.780   3.992
68384SOL    HW1 7049  12.528   8.773   3.896
68384SOL    HW2 7050  12.469   8.716   4.023
68385SOL     OW 7051  13.158   0.513   4.729
68385SOL    HW1 7052  13.251   0.526   4.708
68385SOL    HW2 7053  13.118   0.599   4.719
68386SOL     OW 7054  13.962   1.324   9.155
68386SOL    HW1 7055  14.055   1.306   9.142
68386SOL    HW2 7056  13.954   1.345   9.248
68387SOL     OW 7057  13.129   5.531  11.154
68387SOL    HW1 7058  13.162   5.486  11.076
68387SOL    HW2 7059  13.094   5.614  11.121
68388SOL     OW 7060   2.903   8.708  13.948
68388SOL    HW1 7061   2.933   8.672  13.864
68388SOL    HW2 7062   2.841   8.643  13.980
68389SOL     OW 7063   2.936  10.949   7.235
68389SOL    HW1 7064   2.918  11.010   7.307
68389SOL    HW2 7065   2.861  10.888   7.237
68390SOL     OW 7066   0.831   3.498   8.864
68390SOL    HW1 7067   0.905   3.554   8.888
68390SOL    HW2 7068   0.838   3.422   8.922
68391SOL     OW 7069  10.743   7.757  11.034
68391SOL    HW1 7070  10.734   7.848  11.006
68391SOL    HW2 7071  10.657   7.718  11.019
68392SOL     OW 7072   6.738   0.424   3.469
68392SOL    HW1 7073   6.807   0.467   3.521
68392SOL    HW2 7074   6.768   0.432   3.379
68393SOL     OW 7075  12.981   4.049   2.027
68393SOL    HW1 7076  13.050   4.016   1.970
68393SOL    HW2 7077  13.024   4.115   2.082
68394SOL     OW 7078   5.703  12.799   9.085
68394SOL    HW1 7079   5.699  12.735   9.014
68394SOL    HW2 7080   5.681  12.749   9.163
68395SOL     OW 7081  13.619   4.146  14.670
68395SOL    HW1 7082  13.601   4.114  14.581
68395SOL    HW2 7083  13.689   4.210  14.659
68396SOL     OW 7084   5.487   9.890   6.597
68396SOL    HW1 7085   5.400   9.850   6.593
68396SOL    HW2 7086   5.494   9.940   6.515
68397SOL     OW 7087   4.822  11.290   6.113
68397SOL    HW1 7088   4.867  11.241   6.044
68397SOL    HW2 7089   4.758  11.228   6.149
68398SOL     OW 7090   4.193  12.982  10.370
68398SOL    HW1 7091   4.217  12.910  10.312
68398SOL    HW2 7092   4.189  13.059  10.314
68399SOL     OW 7093  11.634   3.601   9.083
68399SOL    HW1 7094  11.718   3.595   9.038
68399SOL    HW2 7095  11.653   3.650   9.163
68400SOL     OW 7096   3.060   6.246   4.955
68400SOL    HW1 7097   3.137   6.261   5.009
68400SOL    HW2 7098   3.080   6.290   4.872
68401SOL     OW 7099   6.704   3.756   5.668
68401SOL    HW1 7100   6.756   3.821   5.716
68401SOL    HW2 7101   6.631   3.805   5.632
68402SOL     OW 7102   3.861   9.998   4.354
68402SOL    HW1 7103   3.874  10.091   4.374
68402SOL    HW2 7104   3.864   9.955   4.439
68403SOL     OW 7105  13.754   9.179   2.024
68403SOL    HW1 7106  13.763   9.232   2.104
68403SOL    HW2 7107  13.738   9.243   1.955
68404SOL     OW 7108   8.623   3.637   2.504
68404SOL    HW1 7109   8.692   3.614   2.567
68404SOL    HW2 7110   8.640   3.581   2.429
68405SOL     OW 7111   9.451  13.342   0.238
68405SOL    HW1 7112   9.412  13.278   0.178
68405SOL    HW2 7113   9.379  13.366   0.296
68406SOL     OW 7114  11.753   2.831   1.257
68406SOL    HW1 7115  11.685   2.851   1.320
68406SOL    HW2 7116  11.783   2.743   1.280
68407SOL     OW 7117   6.379  11.110  14.518
68407SOL    HW1 7118   6.473  11.118  14.534
68407SOL    HW2 7119   6.342  11.091  14.604
68408SOL     OW 7120  12.742   3.652   0.153
68408SOL    HW1 7121  12.760   3.567   0.192
68408SOL    HW2 7122  12.803   3.712   0.195
68409SOL     OW 7123   3.560  12.916   2.750
68409SOL    HW1 7124   3.598  12.879   2.830
68409SOL    HW2 7125   3.506  12.990   2.781
68410SOL     OW 7126   3.756   2.132   4.971
68410SOL    HW1 7127   3.787   2.062   4.914
68410SOL    HW2 7128   3.763   2.095   5.059
68411SOL     OW 7129   7.860   4.557   3.629
68411SOL    HW1 7130   7.952   4.566   3.655
68411SOL    HW2 7131   7.824   4.646   3.637
68412SOL     OW 7132   8.150   3.623   1.341
68412SOL    HW1 7133   8.139   3.699   1.399
68412SOL    HW2 7134   8.090   3.640   1.268
68413SOL     OW 7135  13.196   1.139   5.403
68413SOL    HW1 7136  13.201   1.193   5.481
68413SOL    HW2 7137  13.288   1.123   5.378
68414SOL     OW 7138  13.779   4.918  12.907
68414SOL    HW1 7139  13.875   4.910  12.906
68414SOL    HW2 7140  13.758   4.949  12.995
68415SOL     OW 7141   6.857   4.202  13.788
68415SOL    HW1 7142   6.894   4.195  13.700
68415SOL    HW2 7143   6.881   4.121  13.831
68416SOL     OW 7144   4.114   3.129   2.988
68416SOL    HW1 7145   4.081   3.099   2.903
68416SOL    HW2 7146   4.201   3.090   2.994
68417SOL     OW 7147   2.097   3.167  13.581
68417SOL    HW1 7148   2.146   3.238  13.539
68417SOL    HW2 7149   2.107   3.183  13.674
68418SOL     OW 7150   1.216   0.699  12.324
68418SOL    HW1 7151   1.189   0.789  12.310
68418SOL    HW2 7152   1.156   0.647  12.271
68419SOL     OW 7153   1.345  11.503   8.811
68419SOL    HW1 7154   1.397  11.570   8.766
68419SOL    HW2 7155   1.324  11.440   8.742
68420SOL     OW 7156   0.282  13.546  14.663
68420SOL    HW1 7157   0.210  13.497  14.704
68420SOL    HW2 7158   0.321  13.596  14.734
68421SOL     OW 7159  10.378   8.618  11.139
68421SOL    HW1 7160  10.354   8.710  11.131
68421SOL    HW2 7161  10.400   8.591  11.050
68422SOL     OW 7162   1.751  12.145  10.534
68422SOL    HW1 7163   1.797  12.158  10.451
68422SOL    HW2 7164   1.821  12.125  10.597
68423SOL     OW 7165   5.373   3.378  13.320
68423SOL    HW1 7166   5.281   3.398  13.339
68423SOL    HW2 7167   5.396   3.438  13.249
68424SOL     OW 7168   8.386  13.671   0.407
68424SOL    HW1 7169   8.445  13.701   0.476
68424SOL    HW2 7170   8.404  13.729   0.333
68425SOL     OW 7171   5.444  13.967  12.410
68425SOL    HW1 7172   5.354  13.955  12.439
68425SOL    HW2 7173   5.493  13.985  12.491
68426SOL     OW 7174  13.883   8.011   6.404
68426SOL    HW1 7175  13.928   8.085   6.363
68426SOL    HW2 7176  13.814   8.051   6.456
68427SOL     OW 7177  13.017   5.276   3.248
68427SOL    HW1 7178  13.046   5.364   3.223
68427SOL    HW2 7179  13.091   5.240   3.297
68428SOL     OW 7180  14.492   2.774  10.083
68428SOL    HW1 7181  14.494   2.739  10.173
68428SOL    HW2 7182  14.502   2.696  10.028
68429SOL     OW 7183  14.127   0.110   8.043
68429SOL    HW1 7184  14.080   0.191   8.028
68429SOL    HW2 7185  14.104   0.084   8.132
68430SOL     OW 7186   4.677  10.053  12.539
68430SOL    HW1 7187   4.687   9.985  12.606
68430SOL    HW2 7188   4.663  10.134  12.588
68431SOL     OW 7189   7.621   1.627   9.462
68431SOL    HW1 7190   7.677   1.703   9.443
68431SOL    HW2 7191   7.651   1.560   9.401
68432SOL     OW 7192   3.871   0.875  11.697
68432SOL    HW1 7193   3.867   0.795  11.750
68432SOL    HW2 7194   3.822   0.854  11.617
68433SOL     OW 7195   4.477   8.690   4.365
68433SOL    HW1 7196   4.446   8.632   4.296
68433SOL    HW2 7197   4.398   8.725   4.405
68434SOL     OW 7198   7.848   5.737  14.470
68434SOL    HW1 7199   7.832   5.646  14.447
68434SOL    HW2 7200   7.764   5.770  14.502
68435SOL     OW 7201   5.341   8.592  11.808
68435SOL    HW1 7202   5.321   8.499  11.803
68435SOL    HW2 7203   5.410   8.598  11.874
68436SOL     OW 7204  11.830   5.490   0.071
68436SOL    HW1 7205  11.823   5.396   0.056
68436SOL    HW2 7206  11.919   5.513   0.043
68437SOL     OW 7207   0.442   6.066   7.978
68437SOL    HW1 7208   0.470   6.134   7.917
68437SOL    HW2 7209   0.395   6.002   7.924
68438SOL     OW 7210  11.184   9.861   3.114
68438SOL    HW1 7211  11.155   9.913   3.189
68438SOL    HW2 7212  11.265   9.820   3.144
68439SOL     OW 7213   4.418   8.827  11.269
68439SOL    HW1 7214   4.348   8.799  11.328
68439SOL    HW2 7215   4.480   8.873  11.326
68440SOL     OW 7216   6.753  12.735   7.064
68440SOL    HW1 7217   6.696  12.793   7.115
68440SOL    HW2 7218   6.692  12.684   7.010
68441SOL     OW 7219   7.343   5.279  14.652
68441SOL    HW1 7220   7.280   5.207  14.641
68441SOL    HW2 7221   7.327   5.311  14.741
68442SOL     OW 7222  13.370   5.113  11.241
68442SOL    HW1 7223  13.443   5.108  11.302
68442SOL    HW2 7224  13.374   5.031  11.192
68443SOL     OW 7225  11.171   0.391   5.030
68443SOL    HW1 7226  11.160   0.386   5.125
68443SOL    HW2 7227  11.257   0.354   5.014
68444SOL     OW 7228   7.636   0.044   5.635
68444SOL    HW1 7229   7.557   0.070   5.587
68444SOL    HW2 7230   7.631   0.092   5.718
68445SOL     OW 7231  13.289   4.836  14.013
68445SOL    HW1 7232  13.311   4.913  14.066
68445SOL    HW2 7233  13.306   4.761  14.071
68446SOL     OW 7234   1.049   5.457   6.371
68446SOL    HW1 7235   0.983   5.428   6.309
68446SOL    HW2 7236   1.054   5.387   6.436
68447SOL     OW 7237   9.113   8.878  13.497
68447SOL    HW1 7238   9.185   8.817  13.483
68447SOL    HW2 7239   9.128   8.949  13.434
68448SOL     OW 7240  10.334   3.560   1.287
68448SOL    HW1 7241  10.364   3.620   1.219
68448SOL    HW2 7242  10.387   3.481   1.274
68449SOL     OW 7243  13.712   9.803   8.154
68449SOL    HW1 7244  13.703   9.852   8.072
68449SOL    HW2 7245  13.766   9.860   8.210
68450SOL     OW 7246   6.043   0.851  11.350
68450SOL    HW1 7247   6.015   0.878  11.262
68450SOL    HW2 7248   6.121   0.903  11.368
68451SOL     OW 7249   0.557  10.519   2.100
68451SOL    HW1 7250   0.548  10.561   2.185
68451SOL    HW2 7251   0.467  10.505   2.070
68452SOL     OW 7252   9.006   2.893   7.542
68452SOL    HW1 7253   9.015   2.801   7.568
68452SOL    HW2 7254   9.008   2.891   7.446
68453SOL     OW 7255   3.432  13.154   2.844
68453SOL    HW1 7256   3.392  13.192   2.922
68453SOL    HW2 7257   3.369  13.169   2.774
68454SOL     OW 7258   0.073   6.056   2.384
68454SOL    HW1 7259  14.865   6.111   2.374
68454SOL    HW2 7260   0.039   5.970   2.407
68455SOL     OW 7261   0.414   5.875   6.595
68455SOL    HW1 7262   0.408   5.930   6.518
68455SOL    HW2 7263   0.451   5.792   6.563
68456SOL     OW 7264  10.735  11.950  12.795
68456SOL    HW1 7265  10.781  11.869  12.819
68456SOL    HW2 7266  10.644  11.935  12.822
68457SOL     OW 7267   3.123   1.543   5.813
68457SOL    HW1 7268   3.177   1.561   5.890
68457SOL    HW2 7269   3.089   1.455   5.829
68458SOL     OW 7270  10.343  12.828  12.298
68458SOL    HW1 7271  10.417  12.821  12.359
68458SOL    HW2 7272  10.301  12.742  12.303
68459SOL     OW 7273   9.079  10.605  11.928
68459SOL    HW1 7274   9.049  10.684  11.884
68459SOL    HW2 7275   9.104  10.545  11.858
68460SOL     OW 7276  12.955   9.810   2.720
68460SOL    HW1 7277  13.046   9.782   2.710
68460SOL    HW2 7278  12.908   9.729   2.741
68461SOL     OW 7279  13.426   6.566  10.090
68461SOL    HW1 7280  13.505   6.616  10.113
68461SOL    HW2 7281  13.459   6.490  10.042
68462SOL     OW 7282  11.488   7.102   6.559
68462SOL    HW1 7283  11.421   7.169   6.543
68462SOL    HW2 7284  11.534   7.094   6.475
68463SOL     OW 7285   2.642   1.897   5.111
68463SOL    HW1 7286   2.682   1.828   5.058
68463SOL    HW2 7287   2.706   1.917   5.179
68464SOL     OW 7288   3.344   2.687  12.840
68464SOL    HW1 7289   3.282   2.720  12.905
68464SOL    HW2 7290   3.429   2.688  12.884
68465SOL     OW 7291  10.266  14.568   2.103
68465SOL    HW1 7292  10.185  14.586   2.152
68465SOL    HW2 7293  10.284  14.650   2.057
68466SOL     OW 7294   5.821   2.501   1.250
68466SOL    HW1 7295   5.796   2.553   1.174
68466SOL    HW2 7296   5.896   2.546   1.288
68467SOL     OW 7297   8.949   3.136  10.763
68467SOL    HW1 7298   8.943   3.226  10.731
68467SOL    HW2 7299   8.915   3.083  10.691
68468SOL     OW 7300   5.300  14.532   1.007
68468SOL    HW1 7301   5.283  14.622   0.981
68468SOL    HW2 7302   5.289  14.481   0.927
68469SOL     OW 7303   9.311   7.515   3.115
68469SOL    HW1 7304   9.262   7.433   3.127
68469SOL    HW2 7305   9.377   7.494   3.050
68470SOL     OW 7306  14.857  14.867  13.573
68470SOL    HW1 7307  14.851   0.044  13.490
68470SOL    HW2 7308   0.053   0.045  13.623
68471SOL     OW 7309  10.550  13.586  13.652
68471SOL    HW1 7310  10.602  13.544  13.583
68471SOL    HW2 7311  10.498  13.515  13.690
68472SOL     OW 7312   4.631   1.877   0.579
68472SOL    HW1 7313   4.697   1.914   0.638
68472SOL    HW2 7314   4.550   1.876   0.630
68473SOL     OW 7315   8.194   7.786   0.911
68473SOL    HW1 7316   8.104   7.782   0.944
68473SOL    HW2 7317   8.243   7.828   0.982
68474SOL     OW 7318   1.453   7.022   7.660
68474SOL    HW1 7319   1.513   6.979   7.720
68474SOL    HW2 7320   1.504   7.093   7.621
68475SOL     OW 7321  10.410  14.637   2.490
68475SOL    HW1 7322  10.326  14.680   2.500
68475SOL    HW2 7323  10.388  14.546   2.467
68476SOL     OW 7324   1.731   7.387  13.592
68476SOL    HW1 7325   1.674   7.457  13.624
68476SOL    HW2 7326   1.693   7.362  13.508
68477SOL     OW 7327   1.125   2.529   8.125
68477SOL    HW1 7328   1.194   2.585   8.161
68477SOL    HW2 7329   1.095   2.477   8.200
68478SOL     OW 7330  13.154   8.389   0.402
68478SOL    HW1 7331  13.105   8.365   0.481
68478SOL    HW2 7332  13.198   8.308   0.376
68479SOL     OW 7333   0.389  13.937   6.592
68479SOL    HW1 7334   0.351  13.932   6.505
68479SOL    HW2 7335   0.431  14.023   6.597
68480SOL     OW 7336   7.044  11.053   7.825
68480SOL    HW1 7337   6.965  11.082   7.872
68480SOL    HW2 7338   7.116  11.070   7.885
68481SOL     OW 7339   6.338   4.636   9.298
68481SOL    HW1 7340   6.280   4.710   9.314
68481SOL    HW2 7341   6.282   4.559   9.314
68482SOL     OW 7342   8.124   5.263  14.795
68482SOL    HW1 7343   8.064   5.338  14.796
68482SOL    HW2 7344   8.154   5.256   0.016
68483SOL     OW 7345   9.283   0.741  13.531
68483SOL    HW1 7346   9.208   0.707  13.580
68483SOL    HW2 7347   9.260   0.725  13.439
68484SOL     OW 7348   5.311  14.174   5.011
68484SOL    HW1 7349   5.236  14.232   5.004
68484SOL    HW2 7350   5.290  14.114   5.083
68485SOL     OW 7351   4.324   6.777  13.710
68485SOL    HW1 7352   4.416   6.787  13.734
68485SOL    HW2 7353   4.302   6.860  13.667
68486SOL     OW 7354   3.260  10.380  12.417
68486SOL    HW1 7355   3.191  10.376  12.351
68486SOL    HW2 7356   3.273  10.289  12.445
68487SOL     OW 7357   1.729   1.890   1.906
68487SOL    HW1 7358   1.659   1.943   1.868
68487SOL    HW2 7359   1.694   1.801   1.907
68488SOL     OW 7360  13.803   7.420   6.380
68488SOL    HW1 7361  13.787   7.439   6.473
68488SOL    HW2 7362  13.749   7.344   6.361
68489SOL     OW 7363   4.528   2.555   9.415
68489SOL    HW1 7364   4.564   2.495   9.481
68489SOL    HW2 7365   4.585   2.546   9.340
68490SOL     OW 7366   3.156   5.640  10.476
68490SOL    HW1 7367   3.214   5.678  10.542
68490SOL    HW2 7368   3.100   5.580  10.526
68491SOL     OW 7369   0.772  13.161   2.722
68491SOL    HW1 7370   0.848  13.214   2.699
68491SOL    HW2 7371   0.745  13.122   2.639
68492SOL     OW 7372  11.696   3.148   6.144
68492SOL    HW1 7373  11.766   3.172   6.205
68492SOL    HW2 7374  11.623   3.124   6.201
68493SOL     OW 7375  10.134   8.028   3.770
68493SOL    HW1 7376  10.213   7.974   3.781
68493SOL    HW2 7377  10.064   7.964   3.758
68494SOL     OW 7378  10.736   3.604   2.312
68494SOL    HW1 7379  10.755   3.625   2.221
68494SOL    HW2 7380  10.659   3.547   2.308
68495SOL     OW 7381   0.253   5.170   2.221
68495SOL    HW1 7382   0.227   5.109   2.152
68495SOL    HW2 7383   0.278   5.249   2.175
68496SOL     OW 7384   7.326   6.207   3.035
68496SOL    HW1 7385   7.363   6.274   3.092
68496SOL    HW2 7386   7.329   6.127   3.086
68497SOL     OW 7387  10.656  12.845  11.375
68497SOL    HW1 7388  10.649  12.929  11.421
68497SOL    HW2 7389  10.568  12.808  11.380
68498SOL     OW 7390   5.417   8.482   0.137
68498SOL    HW1 7391   5.374   8.542   0.077
68498SOL    HW2 7392   5.347   8.428   0.173
68499SOL     OW 7393   0.166   5.232   6.241
68499SOL    HW1 7394   0.164   5.142   6.209
68499SOL    HW2 7395   0.240   5.233   6.303
68500SOL     OW 7396   5.849   7.621  12.553
68500SOL    HW1 7397   5.823   7.713  12.560
68500SOL    HW2 7398   5.934   7.623  12.510
68501SOL     OW 7399   5.651   4.206  13.196
68501SOL    HW1 7400   5.561   4.232  13.178
68501SOL    HW2 7401   5.686   4.180  13.111
68502SOL     OW 7402  10.904   6.970  10.194
68502SOL    HW1 7403  10.913   7.064  10.213
68502SOL    HW2 7404  10.983   6.930  10.230
68503SOL     OW 7405   7.903   1.427  14.038
68503SOL    HW1 7406   7.899   1.333  14.019
68503SOL    HW2 7407   7.842   1.467  13.976
68504SOL     OW 7408  10.909   8.527   8.058
68504SOL    HW1 7409  10.816   8.546   8.049
68504SOL    HW2 7410  10.939   8.587   8.127
68505SOL     OW 7411   5.881   2.325   4.895
68505SOL    HW1 7412   5.823   2.401   4.901
68505SOL    HW2 7413   5.966   2.361   4.871
68506SOL     OW 7414   1.663   7.978   0.571
68506SOL    HW1 7415   1.592   7.982   0.507
68506SOL    HW2 7416   1.661   8.064   0.614
68507SOL     OW 7417   1.051   4.165   4.583
68507SOL    HW1 7418   1.047   4.209   4.668
68507SOL    HW2 7419   1.050   4.236   4.519
68508SOL     OW 7420   3.080   0.819   5.950
68508SOL    HW1 7421   3.175   0.831   5.945
68508SOL    HW2 7422   3.045   0.908   5.944
68509SOL     OW 7423   5.469   4.183   2.123
68509SOL    HW1 7424   5.528   4.116   2.157
68509SOL    HW2 7425   5.386   4.137   2.108
68510SOL     OW 7426   2.614  14.615   7.226
68510SOL    HW1 7427   2.644  14.533   7.266
68510SOL    HW2 7428   2.519  14.615   7.240
68511SOL     OW 7429  10.592   8.598   0.570
68511SOL    HW1 7430  10.675   8.638   0.595
68511SOL    HW2 7431  10.544   8.668   0.526
68512SOL     OW 7432   5.385  14.172  10.218
68512SOL    HW1 7433   5.459  14.128  10.260
68512SOL    HW2 7434   5.393  14.149  10.126
68513SOL     OW 7435  12.452   3.292   4.127
68513SOL    HW1 7436  12.403   3.247   4.057
68513SOL    HW2 7437  12.384   3.320   4.188
68514SOL     OW 7438  10.420   7.094   9.192
68514SOL    HW1 7439  10.334   7.122   9.222
68514SOL    HW2 7440  10.411   6.999   9.178
68515SOL     OW 7441   9.143  10.077   9.062
68515SOL    HW1 7442   9.203  10.137   9.018
68515SOL    HW2 7443   9.190   9.993   9.064
68516SOL     OW 7444  13.618   6.003  11.938
68516SOL    HW1 7445  13.596   6.088  11.899
68516SOL    HW2 7446  13.533   5.963  11.956
68517SOL     OW 7447   4.710   5.442  10.622
68517SOL    HW1 7448   4.769   5.441  10.547
68517SOL    HW2 7449   4.767   5.460  10.697
68518SOL     OW 7450   2.401  12.996  14.192
68518SOL    HW1 7451   2.392  13.060  14.121
68518SOL    HW2 7452   2.315  12.995  14.234
68519SOL     OW 7453   8.313   8.220   9.175
68519SOL    HW1 7454   8.351   8.304   9.199
68519SOL    HW2 7455   8.276   8.234   9.088
68520SOL     OW 7456  12.339   3.416   8.688
68520SOL    HW1 7457  12.416   3.359   8.683
68520SOL    HW2 7458  12.289   3.382   8.762
68521SOL     OW 7459   0.178  14.405   8.838
68521SOL    HW1 7460   0.254  14.417   8.781
68521SOL    HW2 7461   0.109  14.372   8.780
68522SOL     OW 7462   7.858  13.476   0.932
68522SOL    HW1 7463   7.798  13.413   0.892
68522SOL    HW2 7464   7.859  13.453   1.025
68523SOL     OW 7465   2.102   5.817   3.188
68523SOL    HW1 7466   2.131   5.762   3.115
68523SOL    HW2 7467   2.015   5.847   3.162
68524SOL     OW 7468   8.002   2.370   7.653
68524SOL    HW1 7469   7.928   2.415   7.612
68524SOL    HW2 7470   8.036   2.432   7.718
68525SOL     OW 7471   3.322   4.785  10.624
68525SOL    HW1 7472   3.269   4.794  10.545
68525SOL    HW2 7473   3.302   4.863  10.675
68526SOL     OW 7474   8.964   9.374  11.351
68526SOL    HW1 7475   8.986   9.281  11.357
68526SOL    HW2 7476   8.909   9.390  11.428
68527SOL     OW 7477   4.555   5.853   4.551
68527SOL    HW1 7478   4.589   5.879   4.466
68527SOL    HW2 7479   4.608   5.901   4.614
68528SOL     OW 7480  11.552   6.204   7.805
68528SOL    HW1 7481  11.480   6.204   7.868
68528SOL    HW2 7482  11.510   6.223   7.721
68529SOL     OW 7483   6.326   0.920   0.247
68529SOL    HW1 7484   6.326   0.872   0.329
68529SOL    HW2 7485   6.386   0.993   0.262
68530SOL     OW 7486   5.741   0.796   7.820
68530SOL    HW1 7487   5.794   0.720   7.844
68530SOL    HW2 7488   5.662   0.789   7.874
68531SOL     OW 7489   1.297   0.612   9.597
68531SOL    HW1 7490   1.335   0.544   9.653
68531SOL    HW2 7491   1.203   0.596   9.599
68532SOL     OW 7492  11.582  11.912  11.175
68532SOL    HW1 7493  11.608  11.847  11.109
68532SOL    HW2 7494  11.653  11.909  11.240
68533SOL     OW 7495   9.026   6.033   1.979
68533SOL    HW1 7496   9.000   5.947   1.945
68533SOL    HW2 7497   9.122   6.033   1.973
68534SOL     OW 7498  11.044  13.340  12.552
68534SOL    HW1 7499  11.134  13.341  12.586
68534SOL    HW2 7500  11.051  13.293  12.469
68535SOL     OW 7501   9.685  10.412  14.048
68535SOL    HW1 7502   9.725  10.338  14.094
68535SOL    HW2 7503   9.753  10.442  13.987
68536SOL     OW 7504   2.471  14.574   7.775
68536SOL    HW1 7505   2.397  14.556   7.718
68536SOL    HW2 7506   2.504  14.488   7.801
68537SOL     OW 7507  11.624   8.163   6.274
68537SOL    HW1 7508  11.567   8.222   6.324
68537SOL    HW2 7509  11.610   8.189   6.183
68538SOL     OW 7510  13.404  12.767   2.917
68538SOL    HW1 7511  13.487  12.765   2.965
68538SOL    HW2 7512  13.344  12.812   2.976
68539SOL     OW 7513  14.005   4.018   5.613
68539SOL    HW1 7514  13.934   4.080   5.632
68539SOL    HW2 7515  14.021   4.029   5.520
68540SOL     OW 7516   4.024   5.916   4.101
68540SOL    HW1 7517   4.022   5.954   4.013
68540SOL    HW2 7518   4.044   5.990   4.158
68541SOL     OW 7519  12.933   1.689   7.848
68541SOL    HW1 7520  12.900   1.679   7.937
68541SOL    HW2 7521  13.028   1.693   7.857
68542SOL     OW 7522   2.359   0.408   0.979
68542SOL    HW1 7523   2.420   0.377   0.912
68542SOL    HW2 7524   2.409   0.409   1.060
68543SOL     OW 7525  11.632   6.242   4.194
68543SOL    HW1 7526  11.681   6.317   4.161
68543SOL    HW2 7527  11.565   6.226   4.127
68544SOL     OW 7528   0.952   3.236   0.889
68544SOL    HW1 7529   0.918   3.324   0.908
68544SOL    HW2 7530   0.899   3.178   0.942
68545SOL     OW 7531  11.706  13.059   6.940
68545SOL    HW1 7532  11.682  13.059   6.848
68545SOL    HW2 7533  11.663  13.136   6.977
68546SOL     OW 7534   9.936   5.260   2.790
68546SOL    HW1 7535   9.904   5.252   2.880
68546SOL    HW2 7536   9.986   5.342   2.788
68547SOL     OW 7537   4.985   2.324   2.962
68547SOL    HW1 7538   5.057   2.339   3.024
68547SOL    HW2 7539   4.995   2.394   2.897
68548SOL     OW 7540   7.427  13.453   2.056
68548SOL    HW1 7541   7.407  13.364   2.083
68548SOL    HW2 7542   7.377  13.509   2.115
68549SOL     OW 7543   4.021   6.060   1.575
68549SOL    HW1 7544   4.106   6.099   1.597
68549SOL    HW2 7545   4.008   6.080   1.483
68550SOL     OW 7546   8.804   2.080  13.378
68550SOL    HW1 7547   8.754   2.021  13.435
68550SOL    HW2 7548   8.859   2.021  13.326
68551SOL     OW 7549   4.340   6.103   4.522
68551SOL    HW1 7550   4.265   6.161   4.527
68551SOL    HW2 7551   4.310   6.020   4.561
68552SOL     OW 7552   6.972   6.726   4.276
68552SOL    HW1 7553   6.963   6.750   4.368
68552SOL    HW2 7554   7.063   6.697   4.267
68553SOL     OW 7555   4.970   7.755   9.846
68553SOL    HW1 7556   5.034   7.696   9.807
68553SOL    HW2 7557   5.001   7.769   9.936
68554SOL     OW 7558   0.359   5.556   6.230
68554SOL    HW1 7559   0.290   5.593   6.285
68554SOL    HW2 7560   0.428   5.530   6.291
68555SOL     OW 7561   6.164  12.381   2.769
68555SOL    HW1 7562   6.165  12.414   2.679
68555SOL    HW2 7563   6.077  12.403   2.801
68556SOL     OW 7564   2.672   1.406   2.978
68556SOL    HW1 7565   2.677   1.380   2.885
68556SOL    HW2 7566   2.751   1.457   2.993
68557SOL     OW 7567   3.793   9.635   8.889
68557SOL    HW1 7568   3.779   9.575   8.816
68557SOL    HW2 7569   3.873   9.603   8.932
68558SOL     OW 7570   3.795   8.490  13.253
68558SOL    HW1 7571   3.797   8.574  13.208
68558SOL    HW2 7572   3.829   8.427  13.189
68559SOL     OW 7573   3.957  14.152   5.289
68559SOL    HW1 7574   3.992  14.180   5.204
68559SOL    HW2 7575   3.983  14.221   5.350
68560SOL     OW 7576   8.467  13.806  14.722
68560SOL    HW1 7577   8.430  13.891  14.699
68560SOL    HW2 7578   8.532  13.825  14.790
68561SOL     OW 7579   2.407  12.429  11.710
68561SOL    HW1 7580   2.464  12.385  11.774
68561SOL    HW2 7581   2.386  12.513  11.751
68562SOL     OW 7582   3.912   5.195   0.783
68562SOL    HW1 7583   3.874   5.206   0.871
68562SOL    HW2 7584   3.917   5.284   0.748
68563SOL     OW 7585   8.736   3.875  10.671
68563SOL    HW1 7586   8.696   3.790  10.685
68563SOL    HW2 7587   8.815   3.857  10.620
68564SOL     OW 7588   8.264   5.105  12.337
68564SOL    HW1 7589   8.351   5.090  12.372
68564SOL    HW2 7590   8.258   5.048  12.260
68565SOL     OW 7591  11.498   3.817   9.744
68565SOL    HW1 7592  11.534   3.791   9.659
68565SOL    HW2 7593  11.574   3.829   9.800
68566SOL     OW 7594   5.199   2.854   2.310
68566SOL    HW1 7595   5.227   2.805   2.232
68566SOL    HW2 7596   5.127   2.803   2.346
68567SOL     OW 7597   4.993   1.768   8.481
68567SOL    HW1 7598   4.991   1.838   8.546
68567SOL    HW2 7599   5.019   1.812   8.400
68568SOL     OW 7600   9.646   2.405   5.145
68568SOL    HW1 7601   9.609   2.317   5.147
68568SOL    HW2 7602   9.689   2.416   5.230
68569SOL     OW 7603   3.005  10.088   5.806
68569SOL    HW1 7604   3.069  10.144   5.762
68569SOL    HW2 7605   3.027  10.000   5.778
68570SOL     OW 7606   7.204   3.411   6.915
68570SOL    HW1 7607   7.225   3.504   6.922
68570SOL    HW2 7608   7.252   3.370   6.987
68571SOL     OW 7609   2.074  14.365   1.062
68571SOL    HW1 7610   2.033  14.420   0.995
68571SOL    HW2 7611   2.050  14.275   1.037
68572SOL     OW 7612   6.959   5.000   1.913
68572SOL    HW1 7613   6.950   5.003   2.008
68572SOL    HW2 7614   6.893   5.061   1.880
68573SOL     OW 7615   4.622  11.258  12.749
68573SOL    HW1 7616   4.669  11.239  12.830
68573SOL    HW2 7617   4.689  11.251  12.681
68574SOL     OW 7618  10.102   7.449  12.636
68574SOL    HW1 7619  10.068   7.528  12.679
68574SOL    HW2 7620  10.083   7.462  12.543
68575SOL     OW 7621   7.824   7.925   6.077
68575SOL    HW1 7622   7.751   7.939   6.017
68575SOL    HW2 7623   7.792   7.958   6.161
68576SOL     OW 7624   6.912  13.217   4.118
68576SOL    HW1 7625   6.902  13.147   4.182
68576SOL    HW2 7626   6.992  13.262   4.145
68577SOL     OW 7627  10.612   3.477   0.286
68577SOL    HW1 7628  10.644   3.394   0.252
68577SOL    HW2 7629  10.523   3.483   0.252
68578SOL     OW 7630   5.983  12.079   6.916
68578SOL    HW1 7631   5.972  12.081   6.821
68578SOL    HW2 7632   5.995  12.171   6.940
68579SOL     OW 7633   8.238   3.343   2.489
68579SOL    HW1 7634   8.221   3.411   2.554
68579SOL    HW2 7635   8.321   3.303   2.517
68580SOL     OW 7636   4.987  10.643  10.530
68580SOL    HW1 7637   4.987  10.627  10.436
68580SOL    HW2 7638   5.079  10.638  10.555
68581SOL     OW 7639   8.176   7.840  12.296
68581SOL    HW1 7640   8.175   7.861  12.390
68581SOL    HW2 7641   8.231   7.908  12.257
68582SOL     OW 7642   8.608   0.239  12.007
68582SOL    HW1 7643   8.660   0.182  12.064
68582SOL    HW2 7644   8.537   0.183  11.975
68583SOL     OW 7645  11.526   7.163  12.915
68583SOL    HW1 7646  11.435   7.172  12.942
68583SOL    HW2 7647  11.529   7.205  12.828
68584SOL     OW 7648   4.320  10.057   0.684
68584SOL    HW1 7649   4.357  10.131   0.635
68584SOL    HW2 7650   4.235  10.041   0.644
68585SOL     OW 7651   6.678   3.381   7.763
68585SOL    HW1 7652   6.742   3.373   7.692
68585SOL    HW2 7653   6.702   3.462   7.808
68586SOL     OW 7654   2.245   3.335  13.409
68586SOL    HW1 7655   2.299   3.265  13.371
68586SOL    HW2 7656   2.287   3.416  13.381
68587SOL     OW 7657   0.711  14.606   9.507
68587SOL    HW1 7658   0.654  14.664   9.457
68587SOL    HW2 7659   0.800  14.635   9.487
68588SOL     OW 7660   7.560   5.989   9.234
68588SOL    HW1 7661   7.470   5.965   9.212
68588SOL    HW2 7662   7.556   6.083   9.252
68589SOL     OW 7663  13.356   9.745  10.306
68589SOL    HW1 7664  13.426   9.783  10.253
68589SOL    HW2 7665  13.389   9.658  10.329
68590SOL     OW 7666   8.782   9.714  14.798
68590SOL    HW1 7667   8.764   9.798  14.754
68590SOL    HW2 7668   8.875   9.700  14.784
68591SOL     OW 7669   1.961  12.337   8.604
68591SOL    HW1 7670   1.989  12.404   8.666
68591SOL    HW2 7671   2.040  12.313   8.556
68592SOL     OW 7672  11.554   0.837  10.961
68592SOL    HW1 7673  11.577   0.926  10.936
68592SOL    HW2 7674  11.487   0.847  11.028
68593SOL     OW 7675   2.146   9.894   8.098
68593SOL    HW1 7676   2.146   9.800   8.085
68593SOL    HW2 7677   2.103   9.929   8.019
68594SOL     OW 7678   6.274  11.305   9.950
68594SOL    HW1 7679   6.297  11.215   9.925
68594SOL    HW2 7680   6.323  11.320  10.031
68595SOL     OW 7681   5.745   8.084   0.494
68595SOL    HW1 7682   5.798   8.134   0.432
68595SOL    HW2 7683   5.683   8.148   0.529
68596SOL     OW 7684   4.144   5.936  14.653
68596SOL    HW1 7685   4.200   6.011  14.633
68596SOL    HW2 7686   4.164   5.916  14.745
68597SOL     OW 7687   3.858   4.850   1.579
68597SOL    HW1 7688   3.766   4.873   1.592
68597SOL    HW2 7689   3.864   4.822   1.488
68598SOL     OW 7690   1.685   1.212   7.590
68598SOL    HW1 7691   1.724   1.286   7.638
68598SOL    HW2 7692   1.599   1.244   7.564
68599SOL     OW 7693   8.572  13.971  14.381
68599SOL    HW1 7694   8.543  14.032  14.449
68599SOL    HW2 7695   8.667  13.983  14.376
68600SOL     OW 7696  12.755   5.649  12.174
68600SOL    HW1 7697  12.767   5.607  12.089
68600SOL    HW2 7698  12.801   5.733  12.166
68601SOL     OW 7699   8.714   4.715  13.767
68601SOL    HW1 7700   8.722   4.703  13.862
68601SOL    HW2 7701   8.682   4.631  13.735
68602SOL     OW 7702  12.032  12.644   7.088
68602SOL    HW1 7703  12.087  12.616   7.016
68602SOL    HW2 7704  12.084  12.628   7.167
68603SOL     OW 7705  13.681   7.451   9.251
68603SOL    HW1 7706  13.743   7.435   9.321
68603SOL    HW2 7707  13.596   7.453   9.294
68604SOL     OW 7708   8.255   7.035   8.681
68604SOL    HW1 7709   8.240   7.093   8.606
68604SOL    HW2 7710   8.168   7.019   8.717
68605SOL     OW 7711   4.108   6.075   7.655
68605SOL    HW1 7712   4.031   6.032   7.618
68605SOL    HW2 7713   4.126   6.147   7.596
68606SOL     OW 7714  13.756  12.448  14.754
68606SOL    HW1 7715  13.664  12.464  14.771
68606SOL    HW2 7716  13.779  12.375  14.812
68607SOL     OW 7717   3.446   0.766   8.720
68607SOL    HW1 7718   3.374   0.706   8.703
68607SOL    HW2 7719   3.415   0.821   8.792
68608SOL     OW 7720  13.150   9.333   9.542
68608SOL    HW1 7721  13.176   9.400   9.606
68608SOL    HW2 7722  13.145   9.253   9.593
68609SOL     OW 7723  13.781   2.821  10.251
68609SOL    HW1 7724  13.817   2.903  10.284
68609SOL    HW2 7725  13.761   2.839  10.159
68610SOL     OW 7726  10.144   8.060  11.217
68610SOL    HW1 7727  10.152   8.149  11.252
68610SOL    HW2 7728  10.220   8.050  11.160
68611SOL     OW 7729  12.388   6.939   7.193
68611SOL    HW1 7730  12.474   6.908   7.163
68611SOL    HW2 7731  12.337   6.950   7.113
68612SOL     OW 7732   4.364   9.842   7.610
68612SOL    HW1 7733   4.290   9.800   7.566
68612SOL    HW2 7734   4.437   9.780   7.600
68613SOL     OW 7735   1.521   3.266  14.341
68613SOL    HW1 7736   1.483   3.353  14.340
68613SOL    HW2 7737   1.476   3.219  14.271
68614SOL     OW 7738   0.297   9.789   8.000
68614SOL    HW1 7739   0.215   9.832   8.024
68614SOL    HW2 7740   0.318   9.735   8.076
68615SOL     OW 7741  11.591   8.455   0.847
68615SOL    HW1 7742  11.588   8.391   0.776
68615SOL    HW2 7743  11.676   8.439   0.889
68616SOL     OW 7744   3.732   9.042   8.057
68616SOL    HW1 7745   3.768   8.961   8.019
68616SOL    HW2 7746   3.651   9.057   8.009
68617SOL     OW 7747  11.456  12.038  11.476
68617SOL    HW1 7748  11.450  12.041  11.380
68617SOL    HW2 7749  11.531  11.981  11.493
68618SOL     OW 7750   6.445   3.645  12.336
68618SOL    HW1 7751   6.361   3.688  12.321
68618SOL    HW2 7752   6.478   3.624  12.248
68619SOL     OW 7753   8.238  11.627  11.104
68619SOL    HW1 7754   8.170  11.695  11.110
68619SOL    HW2 7755   8.223  11.585  11.020
68620SOL     OW 7756   0.275   0.722  12.475
68620SOL    HW1 7757   0.339   0.754  12.412
68620SOL    HW2 7758   0.209   0.792  12.480
68621SOL     OW 7759   9.813   6.331   3.067
68621SOL    HW1 7760   9.900   6.350   3.034
68621SOL    HW2 7761   9.754   6.366   3.000
68622SOL     OW 7762   0.953   1.432  10.229
68622SOL    HW1 7763   0.958   1.376  10.151
68622SOL    HW2 7764   0.933   1.519  10.194
68623SOL     OW 7765   9.102   9.725   7.445
68623SOL    HW1 7766   9.048   9.681   7.379
68623SOL    HW2 7767   9.041   9.784   7.490
68624SOL     OW 7768  11.514   5.817   6.835
68624SOL    HW1 7769  11.535   5.740   6.887
68624SOL    HW2 7770  11.588   5.876   6.848
68625SOL     OW 7771   4.702  12.021   4.657
68625SOL    HW1 7772   4.653  12.084   4.604
68625SOL    HW2 7773   4.764  11.981   4.596
68626SOL     OW 7774   5.475   2.127   5.984
68626SOL    HW1 7775   5.521   2.072   6.048
68626SOL    HW2 7776   5.540   2.192   5.957
68627SOL     OW 7777  10.264   2.883  12.919
68627SOL    HW1 7778  10.237   2.833  12.843
68627SOL    HW2 7779  10.240   2.828  12.994
68628SOL     OW 7780   2.957   5.667   0.661
68628SOL    HW1 7781   3.039   5.681   0.613
68628SOL    HW2 7782   2.983   5.614   0.737
68629SOL     OW 7783   4.798   8.968   0.124
68629SOL    HW1 7784   4.744   8.929   0.054
68629SOL    HW2 7785   4.867   9.015   0.077
68630SOL     OW 7786   3.284   4.597  12.914
68630SOL    HW1 7787   3.332   4.523  12.877
68630SOL    HW2 7788   3.286   4.664  12.846
68631SOL     OW 7789   6.610  14.309   2.924
68631SOL    HW1 7790   6.576  14.398   2.937
68631SOL    HW2 7791   6.593  14.264   3.007
68632SOL     OW 7792   1.895  12.329   1.210
68632SOL    HW1 7793   1.968  12.390   1.197
68632SOL    HW2 7794   1.847  12.365   1.285
68633SOL     OW 7795   1.557   5.341   8.222
68633SOL    HW1 7796   1.549   5.410   8.288
68633SOL    HW2 7797   1.635   5.364   8.172
68634SOL     OW 7798  14.686  13.267  12.225
68634SOL    HW1 7799  14.723  13.354  12.240
68634SOL    HW2 7800  14.678  13.261  12.129
68635SOL     OW 7801   6.441   9.085  11.529
68635SOL    HW1 7802   6.428   9.041  11.613
68635SOL    HW2 7803   6.484   9.020  11.474
68636SOL     OW 7804   8.695   8.650  11.399
68636SOL    HW1 7805   8.721   8.558  11.402
68636SOL    HW2 7806   8.642   8.662  11.478
68637SOL     OW 7807   3.729   3.619  12.937
68637SOL    HW1 7808   3.688   3.632  13.023
68637SOL    HW2 7809   3.774   3.535  12.945
68638SOL     OW 7810   1.122  14.737  13.462
68638SOL    HW1 7811   1.053  14.673  13.474
68638SOL    HW2 7812   1.184  14.719  13.532
68639SOL     OW 7813  13.436  14.669  14.070
68639SOL    HW1 7814  13.403  14.753  14.102
68639SOL    HW2 7815  13.405  14.606  14.134
68640SOL     OW 7816   1.006   1.746   7.420
68640SOL    HW1 7817   0.964   1.788   7.495
68640SOL    HW2 7818   1.056   1.674   7.459
68641SOL     OW 7819   9.293  12.103   6.250
68641SOL    HW1 7820   9.385  12.080   6.236
68641SOL    HW2 7821   9.267  12.144   6.167
68642SOL     OW 7822   0.105   0.776   5.166
68642SOL    HW1 7823   0.187   0.784   5.118
68642SOL    HW2 7824   0.056   0.708   5.119
68643SOL     OW 7825  11.115   4.920  13.170
68643SOL    HW1 7826  11.148   4.836  13.139
68643SOL    HW2 7827  11.165   4.986  13.122
68644SOL     OW 7828  12.769  13.175  10.129
68644SOL    HW1 7829  12.738  13.130  10.050
68644SOL    HW2 7830  12.693  13.224  10.161
68645SOL     OW 7831  10.375  10.980   0.323
68645SOL    HW1 7832  10.360  10.962   0.415
68645SOL    HW2 7833  10.470  10.987   0.315
68646SOL     OW 7834  14.632   2.819  12.513
68646SOL    HW1 7835  14.703   2.756  12.509
68646SOL    HW2 7836  14.651   2.873  12.590
68647SOL     OW 7837   7.491  12.544   4.730
68647SOL    HW1 7838   7.411  12.597   4.733
68647SOL    HW2 7839   7.561  12.607   4.713
68648SOL     OW 7840   9.804   3.769   4.840
68648SOL    HW1 7841   9.879   3.773   4.898
68648SOL    HW2 7842   9.756   3.850   4.857
68649SOL     OW 7843   5.724  10.155   2.677
68649SOL    HW1 7844   5.721  10.251   2.683
68649SOL    HW2 7845   5.643  10.126   2.718
68650SOL     OW 7846   1.102   8.035  13.440
68650SOL    HW1 7847   1.036   8.035  13.509
68650SOL    HW2 7848   1.086   8.116  13.391
68651SOL     OW 7849   6.418  11.356  10.798
68651SOL    HW1 7850   6.481  11.342  10.727
68651SOL    HW2 7851   6.466  11.331  10.877
68652SOL     OW 7852   2.563   3.028   4.758
68652SOL    HW1 7853   2.506   2.976   4.815
68652SOL    HW2 7854   2.608   2.963   4.703
68653SOL     OW 7855   6.764  14.151  11.364
68653SOL    HW1 7856   6.835  14.215  11.366
68653SOL    HW2 7857   6.705  14.182  11.296
68654SOL     OW 7858   7.659  13.916   0.568
68654SOL    HW1 7859   7.739  13.878   0.531
68654SOL    HW2 7860   7.676  13.917   0.663
68655SOL     OW 7861   2.710   7.658  12.366
68655SOL    HW1 7862   2.766   7.609  12.426
68655SOL    HW2 7863   2.667   7.723  12.421
68656SOL     OW 7864  13.038   0.506   8.587
68656SOL    HW1 7865  13.111   0.564   8.566
68656SOL    HW2 7866  12.985   0.557   8.649
68657SOL     OW 7867   8.324   2.194   6.803
68657SOL    HW1 7868   8.378   2.117   6.822
68657SOL    HW2 7869   8.387   2.265   6.793
68658SOL     OW 7870  11.691  13.924   0.838
68658SOL    HW1 7871  11.768  13.898   0.888
68658SOL    HW2 7872  11.665  14.008   0.876
68659SOL     OW 7873   4.730   7.560  14.804
68659SOL    HW1 7874   4.814   7.583  14.764
68659SOL    HW2 7875   4.686   7.644  14.820
68660SOL     OW 7876   2.655  14.373   2.516
68660SOL    HW1 7877   2.629  14.281   2.506
68660SOL    HW2 7878   2.719  14.387   2.446
68661SOL     OW 7879   5.812   7.811   9.761
68661SOL    HW1 7880   5.757   7.844   9.832
68661SOL    HW2 7881   5.843   7.726   9.792
68662SOL     OW 7882   7.120   2.950  10.339
68662SOL    HW1 7883   7.153   3.015  10.276
68662SOL    HW2 7884   7.053   2.901  10.290
68663SOL     OW 7885   6.251  12.126  12.220
68663SOL    HW1 7886   6.302  12.140  12.140
68663SOL    HW2 7887   6.185  12.195  12.218
68664SOL     OW 7888  13.928   6.805   9.562
68664SOL    HW1 7889  13.861   6.816   9.630
68664SOL    HW2 7890  13.884   6.832   9.481
68665SOL     OW 7891  11.054  14.795  12.760
68665SOL    HW1 7892  11.048  14.702  12.739
68665SOL    HW2 7893  11.136  14.803  12.809
68666SOL     OW 7894  12.432   5.728   2.728
68666SOL    HW1 7895  12.376   5.800   2.757
68666SOL    HW2 7896  12.470   5.693   2.809
68667SOL     OW 7897   7.755   4.368  14.781
68667SOL    HW1 7898   7.781   4.344   0.001
68667SOL    HW2 7899   7.805   4.309  14.725
68668SOL     OW 7900   9.344   2.292  13.421
68668SOL    HW1 7901   9.411   2.235  13.458
68668SOL    HW2 7902   9.356   2.285  13.326
68669SOL     OW 7903   5.836   1.713  14.646
68669SOL    HW1 7904   5.820   1.645  14.712
68669SOL    HW2 7905   5.783   1.686  14.571
68670SOL     OW 7906   9.349   3.855   9.917
68670SOL    HW1 7907   9.259   3.881   9.938
68670SOL    HW2 7908   9.393   3.938   9.897
68671SOL     OW 7909  13.828   0.668  13.828
68671SOL    HW1 7910  13.869   0.727  13.766
68671SOL    HW2 7911  13.742   0.705  13.845
68672SOL     OW 7912   0.521   2.396   8.536
68672SOL    HW1 7913   0.469   2.472   8.509
68672SOL    HW2 7914   0.538   2.347   8.456
68673SOL     OW 7915  10.436  10.106   7.991
68673SOL    HW1 7916  10.426  10.026   8.043
68673SOL    HW2 7917  10.518  10.094   7.943
68674SOL     OW 7918   3.885   4.372   7.928
68674SOL    HW1 7919   3.958   4.414   7.883
68674SOL    HW2 7920   3.899   4.278   7.916
68675SOL     OW 7921   8.785  13.855   4.306
68675SOL    HW1 7922   8.861  13.845   4.249
68675SOL    HW2 7923   8.810  13.924   4.367
68676SOL     OW 7924   1.609  10.332  13.397
68676SOL    HW1 7925   1.677  10.276  13.434
68676SOL    HW2 7926   1.554  10.356  13.471
68677SOL     OW 7927   4.922   5.427  14.587
68677SOL    HW1 7928   4.876   5.412  14.504
68677SOL    HW2 7929   5.015   5.414  14.565
68678SOL     OW 7930   5.231   6.147   4.523
68678SOL    HW1 7931   5.229   6.230   4.570
68678SOL    HW2 7932   5.323   6.119   4.526
68679SOL     OW 7933   8.222   5.151   1.878
68679SOL    HW1 7934   8.237   5.245   1.877
68679SOL    HW2 7935   8.304   5.113   1.847
68680SOL     OW 7936   6.984   9.075  11.769
68680SOL    HW1 7937   6.982   9.037  11.857
68680SOL    HW2 7938   6.896   9.058  11.734
68681SOL     OW 7939  11.553   2.717  14.178
68681SOL    HW1 7940  11.481   2.756  14.229
68681SOL    HW2 7941  11.535   2.743  14.088
68682SOL     OW 7942  10.887   7.091   5.161
68682SOL    HW1 7943  10.905   7.006   5.202
68682SOL    HW2 7944  10.794   7.106   5.176
68683SOL     OW 7945   1.878  13.705  12.090
68683SOL    HW1 7946   1.845  13.715  12.001
68683SOL    HW2 7947   1.971  13.727  12.085
68684SOL     OW 7948   9.857   4.331   5.547
68684SOL    HW1 7949   9.819   4.354   5.462
68684SOL    HW2 7950   9.873   4.237   5.541
68685SOL     OW 7951   8.719  10.014   7.954
68685SOL    HW1 7952   8.789   9.989   7.893
68685SOL    HW2 7953   8.739   9.967   8.035
68686SOL     OW 7954   6.040  10.044   3.182
68686SOL    HW1 7955   6.052   9.966   3.128
68686SOL    HW2 7956   6.060  10.015   3.271
68687SOL     OW 7957   3.838  13.982   9.384
68687SOL    HW1 7958   3.900  14.049   9.412
68687SOL    HW2 7959   3.760  14.030   9.359
68688SOL     OW 7960   4.402   2.394  13.144
68688SOL    HW1 7961   4.473   2.411  13.206
68688SOL    HW2 7962   4.394   2.475  13.095
68689SOL     OW 7963   2.970   5.889   6.738
68689SOL    HW1 7964   2.896   5.851   6.786
68689SOL    HW2 7965   2.961   5.983   6.750
68690SOL     OW 7966   2.757   4.886   9.752
68690SOL    HW1 7967   2.667   4.917   9.746
68690SOL    HW2 7968   2.807   4.946   9.697
68691SOL     OW 7969  11.020   6.258   9.387
68691SOL    HW1 7970  11.030   6.170   9.423
68691SOL    HW2 7971  11.057   6.252   9.299
68692SOL     OW 7972  14.467  12.851   6.013
68692SOL    HW1 7973  14.548  12.901   6.001
68692SOL    HW2 7974  14.496  12.764   6.039
68693SOL     OW 7975   8.027  14.386  13.011
68693SOL    HW1 7976   7.963  14.323  13.044
68693SOL    HW2 7977   8.001  14.469  13.052
68694SOL     OW 7978  14.358   3.373   3.122
68694SOL    HW1 7979  14.424   3.325   3.071
68694SOL    HW2 7980  14.374   3.465   3.102
68695SOL     OW 7981  13.725  13.899   5.134
68695SOL    HW1 7982  13.721  13.920   5.228
68695SOL    HW2 7983  13.705  13.981   5.090
68696SOL     OW 7984   0.845  10.975   2.850
68696SOL    HW1 7985   0.756  10.952   2.876
68696SOL    HW2 7986   0.841  11.068   2.828
68697SOL     OW 7987   5.110   1.113   0.860
68697SOL    HW1 7988   5.151   1.194   0.892
68697SOL    HW2 7989   5.102   1.058   0.937
68698SOL     OW 7990   4.541  10.884   3.883
68698SOL    HW1 7991   4.595  10.952   3.841
68698SOL    HW2 7992   4.604  10.816   3.907
68699SOL     OW 7993   3.794   0.437   4.769
68699SOL    HW1 7994   3.873   0.479   4.802
68699SOL    HW2 7995   3.746   0.508   4.724
68700SOL     OW 7996  11.758   0.705   9.883
68700SOL    HW1 7997  11.749   0.683   9.976
68700SOL    HW2 7998  11.768   0.621   9.839
68701SOL     OW 7999  11.170   6.816   6.337
68701SOL    HW1 8000  11.134   6.831   6.250
68701SOL    HW2 8001  11.191   6.722   6.339
68702SOL     OW 8002   8.450   5.239   0.516
68702SOL    HW1 8003   8.517   5.181   0.480
68702SOL    HW2 8004   8.368   5.206   0.479
68703SOL     OW 8005   1.997  14.597   1.724
68703SOL    HW1 8006   1.915  14.549   1.712
68703SOL    HW2 8007   2.053  14.537   1.775
68704SOL     OW 8008   1.468  10.325   3.972
68704SOL    HW1 8009   1.516  10.406   3.989
68704SOL    HW2 8010   1.412  10.345   3.898
68705SOL     OW 8011   0.416   6.683  13.506
68705SOL    HW1 8012   0.467   6.760  13.530
68705SOL    HW2 8013   0.342   6.682  13.568
68706SOL     OW 8014   2.789   1.712  11.251
68706SOL    HW1 8015   2.871   1.721  11.203
68706SOL    HW2 8016   2.735   1.655  11.196
68707SOL     OW 8017  12.787   0.759   5.110
68707SOL    HW1 8018  12.729   0.685   5.092
68707SOL    HW2 8019  12.760   0.791   5.196
68708SOL     OW 8020   9.611   0.460   1.509
68708SOL    HW1 8021   9.579   0.448   1.599
68708SOL    HW2 8022   9.702   0.430   1.513
68709SOL     OW 8023   5.256  11.863   4.528
68709SOL    HW1 8024   5.348  11.853   4.504
68709SOL    HW2 8025   5.219  11.775   4.518
68710SOL     OW 8026  13.885   7.913   0.134
68710SOL    HW1 8027  13.875   8.007   0.118
68710SOL    HW2 8028  13.835   7.871   0.064
68711SOL     OW 8029   9.793   3.195   4.136
68711SOL    HW1 8030   9.840   3.140   4.074
68711SOL    HW2 8031   9.848   3.273   4.146
68712SOL     OW 8032   7.211   0.303   8.078
68712SOL    HW1 8033   7.243   0.217   8.052
68712SOL    HW2 8034   7.144   0.324   8.013
68713SOL     OW 8035   6.161  11.989  10.215
68713SOL    HW1 8036   6.143  12.015  10.125
68713SOL    HW2 8037   6.076  11.996  10.260
68714SOL     OW 8038   1.011  13.617  14.212
68714SOL    HW1 8039   1.100  13.605  14.245
68714SOL    HW2 8040   0.962  13.649  14.288
68715SOL     OW 8041   9.286  14.087   3.548
68715SOL    HW1 8042   9.373  14.127   3.547
68715SOL    HW2 8043   9.228  14.157   3.517
68716SOL     OW 8044   5.263  14.404   6.781
68716SOL    HW1 8045   5.317  14.331   6.753
68716SOL    HW2 8046   5.323  14.463   6.827
68717SOL     OW 8047   3.872   4.129   5.571
68717SOL    HW1 8048   3.933   4.095   5.505
68717SOL    HW2 8049   3.853   4.219   5.542
68718SOL     OW 8050  14.214   2.901  13.663
68718SOL    HW1 8051  14.170   2.859  13.737
68718SOL    HW2 8052  14.172   2.986  13.655
68719SOL     OW 8053  13.883  14.176   4.847
68719SOL    HW1 8054  13.972  14.144   4.858
68719SOL    HW2 8055  13.865  14.169   4.754
68720SOL     OW 8056   3.588  12.646   6.910
68720SOL    HW1 8057   3.591  12.596   6.992
68720SOL    HW2 8058   3.627  12.587   6.845
68721SOL     OW 8059  14.077   0.156   9.807
68721SOL    HW1 8060  14.011   0.145   9.875
68721SOL    HW2 8061  14.146   0.093   9.830
68722SOL     OW 8062  11.368  12.097  12.583
68722SOL    HW1 8063  11.319  12.145  12.651
68722SOL    HW2 8064  11.337  12.135  12.501
68723SOL     OW 8065   5.681   7.615   5.377
68723SOL    HW1 8066   5.737   7.552   5.332
68723SOL    HW2 8067   5.601   7.566   5.396
68724SOL     OW 8068   8.621   4.709  14.352
68724SOL    HW1 8069   8.668   4.756  14.421
68724SOL    HW2 8070   8.599   4.625  14.391
68725SOL     OW 8071  10.714  12.234   6.386
68725SOL    HW1 8072  10.726  12.146   6.423
68725SOL    HW2 8073  10.766  12.291   6.442
68726SOL     OW 8074  14.528  12.856   4.185
68726SOL    HW1 8075  14.571  12.909   4.251
68726SOL    HW2 8076  14.526  12.911   4.107
68727SOL     OW 8077   1.529   2.127   6.481
68727SOL    HW1 8078   1.618   2.120   6.517
68727SOL    HW2 8079   1.473   2.089   6.548
68728SOL     OW 8080   4.259   5.668   2.971
68728SOL    HW1 8081   4.353   5.683   2.975
68728SOL    HW2 8082   4.228   5.690   3.059
68729SOL     OW 8083   3.089   9.460   1.456
68729SOL    HW1 8084   2.994   9.467   1.461
68729SOL    HW2 8085   3.118   9.541   1.415
68730SOL     OW 8086   5.735   1.667  11.310
68730SOL    HW1 8087   5.641   1.682  11.300
68730SOL    HW2 8088   5.743   1.606  11.382
68731SOL     OW 8089   0.821   6.338   5.015
68731SOL    HW1 8090   0.898   6.383   4.978
68731SOL    HW2 8091   0.791   6.396   5.085
68732SOL     OW 8092   6.323  12.103   6.950
68732SOL    HW1 8093   6.233  12.130   6.969
68732SOL    HW2 8094   6.320  12.073   6.859
68733SOL     OW 8095  14.125   0.377  10.126
68733SOL    HW1 8096  14.044   0.419  10.098
68733SOL    HW2 8097  14.108   0.283  10.118
68734SOL     OW 8098   2.204  12.132   9.519
68734SOL    HW1 8099   2.212  12.214   9.471
68734SOL    HW2 8100   2.171  12.069   9.455
68735SOL     OW 8101   9.791   3.408   3.000
68735SOL    HW1 8102   9.836   3.328   3.028
68735SOL    HW2 8103   9.700   3.396   3.027
68736SOL     OW 8104  11.410   2.310   2.393
68736SOL    HW1 8105  11.322   2.341   2.371
68736SOL    HW2 8106  11.465   2.389   2.389
68737SOL     OW 8107   3.599  14.436   1.367
68737SOL    HW1 8108   3.512  14.449   1.330
68737SOL    HW2 8109   3.584  14.393   1.450
68738SOL     OW 8110   1.502  10.301   2.264
68738SOL    HW1 8111   1.410  10.317   2.244
68738SOL    HW2 8112   1.549  10.328   2.185
68739SOL     OW 8113   3.016   6.643   8.084
68739SOL    HW1 8114   3.000   6.730   8.048
68739SOL    HW2 8115   2.954   6.635   8.156
68740SOL     OW 8116  12.009   8.234   2.463
68740SOL    HW1 8117  11.918   8.204   2.464
68740SOL    HW2 8118  12.038   8.219   2.373
68741SOL     OW 8119  10.227   8.998   6.305
68741SOL    HW1 8120  10.278   8.995   6.224
68741SOL    HW2 8121  10.289   8.969   6.372
68742SOL     OW 8122  12.243   4.354   9.885
68742SOL    HW1 8123  12.168   4.312   9.842
68742SOL    HW2 8124  12.317   4.338   9.825
68743SOL     OW 8125  12.917   2.322   7.041
68743SOL    HW1 8126  12.891   2.287   7.126
68743SOL    HW2 8127  12.994   2.270   7.017
68744SOL     OW 8128  13.995   7.829   3.885
68744SOL    HW1 8129  13.923   7.773   3.855
68744SOL    HW2 8130  13.954   7.915   3.897
68745SOL     OW 8131  12.678  13.261   6.230
68745SOL    HW1 8132  12.642  13.271   6.142
68745SOL    HW2 8133  12.730  13.340   6.245
68746SOL     OW 8134   9.634   5.562   1.137
68746SOL    HW1 8135   9.552   5.606   1.112
68746SOL    HW2 8136   9.642   5.490   1.075
68747SOL     OW 8137   9.603   6.533   9.476
68747SOL    HW1 8138   9.580   6.441   9.470
68747SOL    HW2 8139   9.698   6.533   9.492
68748SOL     OW 8140  12.353  14.120   2.520
68748SOL    HW1 8141  12.270  14.081   2.545
68748SOL    HW2 8142  12.392  14.150   2.603
68749SOL     OW 8143  12.985  11.171   0.050
68749SOL    HW1 8144  12.976  11.086   0.093
68749SOL    HW2 8145  12.974  11.235   0.121
68750SOL     OW 8146   8.952  10.824   8.801
68750SOL    HW1 8147   8.982  10.870   8.879
68750SOL    HW2 8148   8.886  10.763   8.833
68751SOL     OW 8149  13.123   0.377   5.896
68751SOL    HW1 8150  13.101   0.305   5.955
68751SOL    HW2 8151  13.112   0.341   5.808
68752SOL     OW 8152   9.318   6.503   9.302
68752SOL    HW1 8153   9.402   6.459   9.292
68752SOL    HW2 8154   9.263   6.442   9.351
68753SOL     OW 8155  11.804   0.507   6.080
68753SOL    HW1 8156  11.757   0.575   6.033
68753SOL    HW2 8157  11.843   0.552   6.155
68754SOL     OW 8158   8.801   2.452   3.651
68754SOL    HW1 8159   8.788   2.463   3.746
68754SOL    HW2 8160   8.888   2.413   3.643
68755SOL     OW 8161   8.600   5.536  13.437
68755SOL    HW1 8162   8.563   5.569  13.355
68755SOL    HW2 8163   8.656   5.606  13.468
68756SOL     OW 8164   1.932   9.226   0.274
68756SOL    HW1 8165   1.839   9.208   0.288
68756SOL    HW2 8166   1.948   9.309   0.318
68757SOL     OW 8167   8.853   5.192   5.935
68757SOL    HW1 8168   8.861   5.264   5.997
68757SOL    HW2 8169   8.915   5.213   5.865
68758SOL     OW 8170   9.637   3.964  10.172
68758SOL    HW1 8171   9.649   3.999  10.084
68758SOL    HW2 8172   9.725   3.941  10.201
68759SOL     OW 8173   9.796   9.834  11.874
68759SOL    HW1 8174   9.805   9.779  11.797
68759SOL    HW2 8175   9.743   9.783  11.935
68760SOL     OW 8176   2.627  10.479   4.685
68760SOL    HW1 8177   2.645  10.572   4.679
68760SOL    HW2 8178   2.622  10.449   4.594
68761SOL     OW 8179   0.374   7.425   2.022
68761SOL    HW1 8180   0.412   7.438   1.935
68761SOL    HW2 8181   0.279   7.436   2.008
68762SOL     OW 8182   7.474   6.699   7.378
68762SOL    HW1 8183   7.516   6.633   7.433
68762SOL    HW2 8184   7.491   6.671   7.288
68763SOL     OW 8185  10.885   7.370   2.368
68763SOL    HW1 8186  10.860   7.284   2.333
68763SOL    HW2 8187  10.813   7.393   2.427
68764SOL     OW 8188   7.987  10.312   7.091
68764SOL    HW1 8189   7.987  10.405   7.114
68764SOL    HW2 8190   7.960  10.267   7.171
68765SOL     OW 8191   7.598   7.029  12.129
68765SOL    HW1 8192   7.633   7.065  12.047
68765SOL    HW2 8193   7.517   7.077  12.143
68766SOL     OW 8194   8.799  14.096   7.283
68766SOL    HW1 8195   8.759  14.176   7.248
68766SOL    HW2 8196   8.738  14.026   7.259
68767SOL     OW 8197  11.251  12.095   5.001
68767SOL    HW1 8198  11.228  12.024   4.941
68767SOL    HW2 8199  11.249  12.055   5.088
68768SOL     OW 8200  12.274  11.826   6.002
68768SOL    HW1 8201  12.360  11.820   5.961
68768SOL    HW2 8202  12.251  11.735   6.024
68769SOL     OW 8203   0.253   4.155   7.395
68769SOL    HW1 8204   0.335   4.148   7.444
68769SOL    HW2 8205   0.185   4.126   7.456
68770SOL     OW 8206   8.135  13.463   8.192
68770SOL    HW1 8207   8.173  13.538   8.237
68770SOL    HW2 8208   8.048  13.493   8.165
68771SOL     OW 8209  13.711  13.107   9.578
68771SOL    HW1 8210  13.654  13.034   9.601
68771SOL    HW2 8211  13.695  13.173   9.646
68772SOL     OW 8212  10.105  10.148  13.630
68772SOL    HW1 8213  10.175  10.085  13.616
68772SOL    HW2 8214  10.030  10.095  13.657
68773SOL     OW 8215  10.504  14.814   6.309
68773SOL    HW1 8216  10.600  14.805   6.312
68773SOL    HW2 8217  10.474  14.784   6.394
68774SOL     OW 8218  10.708   2.154  14.115
68774SOL    HW1 8219  10.626   2.155  14.164
68774SOL    HW2 8220  10.770   2.111  14.174
68775SOL     OW 8221  13.998   4.881   1.780
68775SOL    HW1 8222  14.013   4.832   1.700
68775SOL    HW2 8223  14.049   4.961   1.769
68776SOL     OW 8224  10.894  11.852   7.737
68776SOL    HW1 8225  10.941  11.785   7.785
68776SOL    HW2 8226  10.804  11.845   7.768
68777SOL     OW 8227   5.069   1.782   7.853
68777SOL    HW1 8228   5.062   1.866   7.899
68777SOL    HW2 8229   5.127   1.729   7.910
68778SOL     OW 8230  13.055   4.839   6.316
68778SOL    HW1 8231  13.079   4.806   6.403
68778SOL    HW2 8232  13.091   4.775   6.255
68779SOL     OW 8233   5.016  11.218   0.290
68779SOL    HW1 8234   5.082  11.244   0.355
68779SOL    HW2 8235   5.066  11.178   0.219
68780SOL     OW 8236   3.386   7.210   3.538
68780SOL    HW1 8237   3.300   7.228   3.501
68780SOL    HW2 8238   3.430   7.157   3.472
68781SOL     OW 8239  10.978  14.569   7.664
68781SOL    HW1 8240  10.899  14.535   7.622
68781SOL    HW2 8241  10.946  14.621   7.738
68782SOL     OW 8242   0.754   0.875   6.301
68782SOL    HW1 8243   0.773   0.918   6.217
68782SOL    HW2 8244   0.799   0.790   6.295
68783SOL     OW 8245   7.212   2.853   2.027
68783SOL    HW1 8246   7.292   2.872   2.076
68783SOL    HW2 8247   7.238   2.789   1.961
68784SOL     OW 8248   3.807   4.244   2.587
68784SOL    HW1 8249   3.726   4.207   2.622
68784SOL    HW2 8250   3.781   4.328   2.550
68785SOL     OW 8251   5.182  12.344   1.306
68785SOL    HW1 8252   5.228  12.406   1.363
68785SOL    HW2 8253   5.230  12.262   1.316
68786SOL     OW 8254  10.055   9.489   7.786
68786SOL    HW1 8255   9.983   9.427   7.799
68786SOL    HW2 8256  10.022   9.573   7.819
68787SOL     OW 8257   6.949   9.727  12.001
68787SOL    HW1 8258   6.862   9.687  11.993
68787SOL    HW2 8259   6.932   9.821  11.997
68788SOL     OW 8260  10.047   2.698   8.550
68788SOL    HW1 8261  10.049   2.741   8.636
68788SOL    HW2 8262   9.995   2.756   8.495
68789SOL     OW 8263  10.987   2.208   9.145
68789SOL    HW1 8264  11.036   2.233   9.224
68789SOL    HW2 8265  11.036   2.249   9.073
68790SOL     OW 8266  11.794  10.719   7.226
68790SOL    HW1 8267  11.872  10.704   7.280
68790SOL    HW2 8268  11.790  10.814   7.217
68791SOL     OW 8269   7.546   9.005  13.927
68791SOL    HW1 8270   7.615   9.036  13.868
68791SOL    HW2 8271   7.467   9.048  13.895
68792SOL     OW 8272   5.671   0.889   3.818
68792SOL    HW1 8273   5.654   0.805   3.777
68792SOL    HW2 8274   5.612   0.892   3.893
68793SOL     OW 8275   4.686  11.401   1.310
68793SOL    HW1 8276   4.597  11.410   1.343
68793SOL    HW2 8277   4.715  11.491   1.295
68794SOL     OW 8278  11.609  11.003   9.785
68794SOL    HW1 8279  11.632  11.015   9.878
68794SOL    HW2 8280  11.652  10.921   9.761
68795SOL     OW 8281   5.383   6.913   5.094
68795SOL    HW1 8282   5.409   6.953   5.011
68795SOL    HW2 8283   5.294   6.945   5.109
68796SOL     OW 8284   4.132   3.592   7.267
68796SOL    HW1 8285   4.143   3.646   7.345
68796SOL    HW2 8286   4.119   3.503   7.300
68797SOL     OW 8287  12.005   0.941   1.360
68797SOL    HW1 8288  11.967   0.855   1.379
68797SOL    HW2 8289  11.945   1.004   1.399
68798SOL     OW 8290  10.549  14.228   5.464
68798SOL    HW1 8291  10.503  14.287   5.524
68798SOL    HW2 8292  10.609  14.286   5.416
68799SOL     OW 8293   5.101  14.544  13.934
68799SOL    HW1 8294   5.072  14.568  14.022
68799SOL    HW2 8295   5.019  14.528  13.886
68800SOL     OW 8296   7.616   8.240   4.661
68800SOL    HW1 8297   7.705   8.252   4.628
68800SOL    HW2 8298   7.624   8.173   4.729
68801SOL     OW 8299   5.078   0.180   6.833
68801SOL    HW1 8300   5.036   0.129   6.763
68801SOL    HW2 8301   5.097   0.115   6.902
68802SOL     OW 8302   7.282   0.226   3.995
68802SOL    HW1 8303   7.374   0.242   4.018
68802SOL    HW2 8304   7.233   0.283   4.054
68803SOL     OW 8305  13.853   5.226   9.000
68803SOL    HW1 8306  13.921   5.208   8.935
68803SOL    HW2 8307  13.876   5.310   9.037
68804SOL     OW 8308   8.779   9.566   9.408
68804SOL    HW1 8309   8.703   9.533   9.360
68804SOL    HW2 8310   8.848   9.501   9.393
68805SOL     OW 8311   4.039   1.776   0.389
68805SOL    HW1 8312   4.039   1.682   0.372
68805SOL    HW2 8313   4.042   1.816   0.303
68806SOL     OW 8314   0.061  10.612   2.705
68806SOL    HW1 8315  14.839  10.616   2.731
68806SOL    HW2 8316   0.090  10.524   2.729
68807SOL     OW 8317  10.364  11.085   6.538
68807SOL    HW1 8318  10.334  11.054   6.624
68807SOL    HW2 8319  10.370  11.180   6.548
68808SOL     OW 8320   0.418  13.671  10.324
68808SOL    HW1 8321   0.446  13.757  10.355
68808SOL    HW2 8322   0.337  13.688  10.276
68809SOL     OW 8323   8.781   4.703   9.141
68809SOL    HW1 8324   8.758   4.792   9.114
68809SOL    HW2 8325   8.876   4.708   9.158
68810SOL     OW 8326   6.896  13.605   2.793
68810SOL    HW1 8327   6.912  13.608   2.888
68810SOL    HW2 8328   6.846  13.685   2.775
68811SOL     OW 8329   9.660  11.918   8.313
68811SOL    HW1 8330   9.641  11.826   8.292
68811SOL    HW2 8331   9.634  11.928   8.404
68812SOL     OW 8332   8.108   5.097   7.317
68812SOL    HW1 8333   8.113   5.189   7.291
68812SOL    HW2 8334   8.192   5.061   7.288
68813SOL     OW 8335   7.762   0.086   3.634
68813SOL    HW1 8336   7.719   0.004   3.658
68813SOL    HW2 8337   7.703   0.154   3.666
68814SOL     OW 8338   0.015   5.905  14.315
68814SOL    HW1 8339  14.797   5.867  14.316
68814SOL    HW2 8340   0.054   5.874  14.234
68815SOL     OW 8341   3.127  10.184   9.073
68815SOL    HW1 8342   3.187  10.204   9.144
68815SOL    HW2 8343   3.182  10.182   8.995
68816SOL     OW 8344   4.180   2.288   4.238
68816SOL    HW1 8345   4.234   2.324   4.168
68816SOL    HW2 8346   4.205   2.196   4.244
68817SOL     OW 8347  13.846   1.908   7.048
68817SOL    HW1 8348  13.884   1.875   7.129
68817SOL    HW2 8349  13.886   1.995   7.037
68818SOL     OW 8350   7.314   9.480   6.721
68818SOL    HW1 8351   7.290   9.539   6.793
68818SOL    HW2 8352   7.262   9.510   6.647
68819SOL     OW 8353   3.037   5.736  11.157
68819SOL    HW1 8354   2.982   5.683  11.216
68819SOL    HW2 8355   3.034   5.690  11.074
68820SOL     OW 8356   1.607  12.675  12.590
68820SOL    HW1 8357   1.562  12.595  12.564
68820SOL    HW2 8358   1.542  12.724  12.641
68821SOL     OW 8359   2.764   7.788   4.846
68821SOL    HW1 8360   2.670   7.807   4.849
68821SOL    HW2 8361   2.775   7.737   4.766
68822SOL     OW 8362  10.726   8.075   5.458
68822SOL    HW1 8363  10.752   8.167   5.451
68822SOL    HW2 8364  10.806   8.030   5.486
68823SOL     OW 8365   8.645   7.427   4.655
68823SOL    HW1 8366   8.732   7.440   4.694
68823SOL    HW2 8367   8.641   7.334   4.636
68824SOL     OW 8368   7.131   5.768  11.537
68824SOL    HW1 8369   7.221   5.800  11.546
68824SOL    HW2 8370   7.137   5.698  11.472
68825SOL     OW 8371   7.520   5.708   5.756
68825SOL    HW1 8372   7.555   5.794   5.737
68825SOL    HW2 8373   7.444   5.724   5.812
68826SOL     OW 8374   8.901  11.631   1.250
68826SOL    HW1 8375   8.881  11.541   1.275
68826SOL    HW2 8376   8.819  11.678   1.262
68827SOL     OW 8377   3.087   6.952  13.481
68827SOL    HW1 8378   3.093   7.016  13.411
68827SOL    HW2 8379   3.167   6.966  13.533
68828SOL     OW 8380   4.700  10.681   5.411
68828SOL    HW1 8381   4.633  10.613   5.406
68828SOL    HW2 8382   4.677  10.743   5.342
68829SOL     OW 8383   1.063   6.467   3.120
68829SOL    HW1 8384   1.064   6.452   3.025
68829SOL    HW2 8385   1.111   6.548   3.132
68830SOL     OW 8386   1.767   3.006  13.281
68830SOL    HW1 8387   1.798   2.916  13.290
68830SOL    HW2 8388   1.696   3.001  13.218
68831SOL     OW 8389   1.871   6.372   2.318
68831SOL    HW1 8390   1.787   6.362   2.363
68831SOL    HW2 8391   1.878   6.295   2.262
68832SOL     OW 8392  12.840   9.081   5.402
68832SOL    HW1 8393  12.826   9.141   5.475
68832SOL    HW2 8394  12.858   9.138   5.327
68833SOL     OW 8395   2.439   7.909  14.692
68833SOL    HW1 8396   2.429   8.004  14.687
68833SOL    HW2 8397   2.355   7.874  14.662
68834SOL     OW 8398  10.644   3.539   1.068
68834SOL    HW1 8399  10.660   3.609   1.005
68834SOL    HW2 8400  10.715   3.476   1.054
68835SOL     OW 8401  13.148   3.514   1.942
68835SOL    HW1 8402  13.211   3.586   1.936
68835SOL    HW2 8403  13.190   3.441   1.896
68836SOL     OW 8404   7.724   2.936  10.394
68836SOL    HW1 8405   7.739   2.864  10.334
68836SOL    HW2 8406   7.768   3.011  10.354
68837SOL     OW 8407  11.315   6.302  13.416
68837SOL    HW1 8408  11.350   6.216  13.395
68837SOL    HW2 8409  11.236   6.310  13.362
68838SOL     OW 8410  11.977   8.552  12.323
68838SOL    HW1 8411  11.977   8.582  12.232
68838SOL    HW2 8412  11.937   8.624  12.372
68839SOL     OW 8413   6.874   0.044   6.861
68839SOL    HW1 8414   6.928  14.868   6.797
68839SOL    HW2 8415   6.784   0.030   6.833
68840SOL     OW 8416   7.378   5.314  10.608
68840SOL    HW1 8417   7.341   5.367  10.538
68840SOL    HW2 8418   7.341   5.227  10.595
68841SOL     OW 8419   7.963   4.972   8.381
68841SOL    HW1 8420   8.021   4.901   8.354
68841SOL    HW2 8421   7.960   5.031   8.306
68842SOL     OW 8422   2.019   9.849   4.974
68842SOL    HW1 8423   2.025   9.921   5.036
68842SOL    HW2 8424   2.040   9.771   5.026
68843SOL     OW 8425   1.807  14.333  12.768
68843SOL    HW1 8426   1.808  14.408  12.709
68843SOL    HW2 8427   1.899  14.316  12.787
68844SOL     OW 8428  12.609   8.222   5.772
68844SOL    HW1 8429  12.656   8.226   5.856
68844SOL    HW2 8430  12.518   8.236   5.795
68845SOL     OW 8431  12.973   2.184   6.260
68845SOL    HW1 8432  13.031   2.110   6.278
68845SOL    HW2 8433  13.029   2.261   6.267
68846SOL     OW 8434  13.528   3.906  13.844
68846SOL    HW1 8435  13.475   3.863  13.911
68846SOL    HW2 8436  13.486   3.991  13.831
68847SOL     OW 8437   5.693   9.877   6.180
68847SOL    HW1 8438   5.657   9.922   6.103
68847SOL    HW2 8439   5.682   9.784   6.161
68848SOL     OW 8440   2.217   0.744   1.126
68848SOL    HW1 8441   2.125   0.768   1.112
68848SOL    HW2 8442   2.214   0.653   1.154
68849SOL     OW 8443  11.740   5.638   3.304
68849SOL    HW1 8444  11.701   5.725   3.294
68849SOL    HW2 8445  11.677   5.589   3.356
68850SOL     OW 8446   2.450   1.255  10.188
68850SOL    HW1 8447   2.441   1.161  10.208
68850SOL    HW2 8448   2.541   1.264  10.159
68851SOL     OW 8449   9.924   2.923  13.820
68851SOL    HW1 8450   9.839   2.957  13.849
68851SOL    HW2 8451   9.905   2.835  13.789
68852SOL     OW 8452   0.544   2.196   3.765
68852SOL    HW1 8453   0.488   2.149   3.704
68852SOL    HW2 8454   0.570   2.275   3.718
68853SOL     OW 8455  11.215   6.532   4.822
68853SOL    HW1 8456  11.124   6.504   4.816
68853SOL    HW2 8457  11.221   6.576   4.907
68854SOL     OW 8458  13.643   8.836  10.057
68854SOL    HW1 8459  13.565   8.886  10.032
68854SOL    HW2 8460  13.715   8.899  10.049
68855SOL     OW 8461   7.150   3.188   7.104
68855SOL    HW1 8462   7.209   3.170   7.177
68855SOL    HW2 8463   7.195   3.155   7.027
68856SOL     OW 8464   0.975  12.514   0.401
68856SOL    HW1 8465   0.986  12.596   0.449
68856SOL    HW2 8466   1.058  12.502   0.354
68857SOL     OW 8467   7.700   1.778   1.308
68857SOL    HW1 8468   7.622   1.832   1.320
68857SOL    HW2 8469   7.733   1.763   1.396
68858SOL     OW 8470   5.707   6.580  11.080
68858SOL    HW1 8471   5.675   6.667  11.057
68858SOL    HW2 8472   5.739   6.543  10.998
68859SOL     OW 8473   8.498  10.539  10.509
68859SOL    HW1 8474   8.436  10.579  10.570
68859SOL    HW2 8475   8.474  10.446  10.508
68860SOL     OW 8476  10.692   1.540   8.181
68860SOL    HW1 8477  10.765   1.579   8.230
68860SOL    HW2 8478  10.727   1.456   8.151
68861SOL     OW 8479   7.211  13.325   3.150
68861SOL    HW1 8480   7.230  13.274   3.071
68861SOL    HW2 8481   7.230  13.415   3.125
68862SOL     OW 8482  12.851   6.881   0.525
68862SOL    HW1 8483  12.934   6.889   0.479
68862SOL    HW2 8484  12.874   6.876   0.617
68863SOL     OW 8485  10.649  13.151   3.917
68863SOL    HW1 8486  10.556  13.174   3.920
68863SOL    HW2 8487  10.670  13.149   3.824
68864SOL     OW 8488   1.101   9.786   5.486
68864SOL    HW1 8489   1.168   9.855   5.491
68864SOL    HW2 8490   1.097   9.764   5.394
68865SOL     OW 8491   8.277  14.257   9.753
68865SOL    HW1 8492   8.232  14.174   9.734
68865SOL    HW2 8493   8.321  14.280   9.671
68866SOL     OW 8494   6.312  13.128  14.723
68866SOL    HW1 8495   6.388  13.141  14.666
68866SOL    HW2 8496   6.279  13.217  14.738
68867SOL     OW 8497   0.395   4.226   5.856
68867SOL    HW1 8498   0.318   4.280   5.874
68867SOL    HW2 8499   0.385   4.199   5.765
68868SOL     OW 8500  11.375   3.502   9.336
68868SOL    HW1 8501  11.404   3.423   9.290
68868SOL    HW2 8502  11.455   3.552   9.351
68869SOL     OW 8503  11.624   5.270  10.352
68869SOL    HW1 8504  11.650   5.328  10.280
68869SOL    HW2 8505  11.561   5.210  10.313
68870SOL     OW 8506   6.313   1.047   9.097
68870SOL    HW1 8507   6.394   1.077   9.139
68870SOL    HW2 8508   6.283   1.122   9.046
68871SOL     OW 8509   5.008   4.423   8.103
68871SOL    HW1 8510   5.096   4.392   8.125
68871SOL    HW2 8511   4.956   4.408   8.183
68872SOL     OW 8512  12.427   7.060   3.521
68872SOL    HW1 8513  12.386   6.974   3.506
68872SOL    HW2 8514  12.515   7.040   3.553
68873SOL     OW 8515  11.839   5.193   1.549
68873SOL    HW1 8516  11.848   5.105   1.510
68873SOL    HW2 8517  11.915   5.241   1.515
68874SOL     OW 8518   8.296  11.971   7.541
68874SOL    HW1 8519   8.383  12.007   7.530
68874SOL    HW2 8520   8.267  11.948   7.452
68875SOL     OW 8521  10.241   8.274   0.178
68875SOL    HW1 8522  10.298   8.347   0.204
68875SOL    HW2 8523  10.152   8.306   0.195
68876SOL     OW 8524   0.286  13.248   3.788
68876SOL    HW1 8525   0.377  13.221   3.787
68876SOL    HW2 8526   0.237  13.167   3.804
68877SOL     OW 8527   2.381   4.866  12.868
68877SOL    HW1 8528   2.455   4.891  12.923
68877SOL    HW2 8529   2.420   4.823  12.792
68878SOL     OW 8530   9.111   2.147  10.586
68878SOL    HW1 8531   9.115   2.180  10.676
68878SOL    HW2 8532   9.049   2.204  10.542
68879SOL     OW 8533  13.311   3.314   2.260
68879SOL    HW1 8534  13.223   3.321   2.223
68879SOL    HW2 8535  13.358   3.257   2.200
68880SOL     OW 8536   3.511  14.590  11.565
68880SOL    HW1 8537   3.597  14.562  11.532
68880SOL    HW2 8538   3.454  14.591  11.488
68881SOL     OW 8539  12.116   2.807  12.792
68881SOL    HW1 8540  12.126   2.837  12.882
68881SOL    HW2 8541  12.030   2.766  12.791
68882SOL     OW 8542   1.347   7.809   9.349
68882SOL    HW1 8543   1.257   7.833   9.369
68882SOL    HW2 8544   1.365   7.733   9.405
68883SOL     OW 8545   9.507   8.973   6.200
68883SOL    HW1 8546   9.417   8.990   6.172
68883SOL    HW2 8547   9.497   8.927   6.284
68884SOL     OW 8548  14.015   9.628   1.745
68884SOL    HW1 8549  14.091   9.625   1.687
68884SOL    HW2 8550  14.015   9.718   1.779
68885SOL     OW 8551   8.416  11.628   0.340
68885SOL    HW1 8552   8.442  11.675   0.261
68885SOL    HW2 8553   8.478  11.555   0.346
68886SOL     OW 8554   1.427   4.599   4.639
68886SOL    HW1 8555   1.497   4.616   4.702
68886SOL    HW2 8556   1.438   4.506   4.617
68887SOL     OW 8557  14.822   0.649  14.051
68887SOL    HW1 8558   0.021   0.707  14.021
68887SOL    HW2 8559  14.866   0.565  14.067
68888SOL     OW 8560  12.169  10.747  10.598
68888SOL    HW1 8561  12.227  10.671  10.603
68888SOL    HW2 8562  12.112  10.729  10.523
68889SOL     OW 8563   5.265   0.667   1.295
68889SOL    HW1 8564   5.327   0.708   1.236
68889SOL    HW2 8565   5.295   0.690   1.382
68890SOL     OW 8566   0.719   7.593   2.976
68890SOL    HW1 8567   0.734   7.546   2.894
68890SOL    HW2 8568   0.623   7.599   2.983
68891SOL     OW 8569   8.464   5.912   7.159
68891SOL    HW1 8570   8.553   5.908   7.196
68891SOL    HW2 8571   8.457   6.000   7.123
68892SOL     OW 8572   0.605   1.143   1.169
68892SOL    HW1 8573   0.686   1.175   1.127
68892SOL    HW2 8574   0.536   1.199   1.133
68893SOL     OW 8575   7.938   4.477  11.996
68893SOL    HW1 8576   7.896   4.493  11.912
68893SOL    HW2 8577   7.954   4.383  11.998
68894SOL     OW 8578   5.457   4.362  11.936
68894SOL    HW1 8579   5.524   4.421  11.901
68894SOL    HW2 8580   5.472   4.279  11.889
68895SOL     OW 8581   6.292   0.580  14.233
68895SOL    HW1 8582   6.289   0.653  14.294
68895SOL    HW2 8583   6.273   0.619  14.148
68896SOL     OW 8584  10.413   9.178  11.518
68896SOL    HW1 8585  10.486   9.117  11.506
68896SOL    HW2 8586  10.424   9.212  11.607
68897SOL     OW 8587   2.414   7.776  12.976
68897SOL    HW1 8588   2.494   7.788  12.926
68897SOL    HW2 8589   2.412   7.849  13.038
68898SOL     OW 8590   1.865   3.421   3.646
68898SOL    HW1 8591   1.798   3.414   3.579
68898SOL    HW2 8592   1.880   3.515   3.656
68899SOL     OW 8593   7.002  13.538   4.468
68899SOL    HW1 8594   6.915  13.511   4.499
68899SOL    HW2 8595   7.053  13.457   4.467
68900SOL     OW 8596   2.689   4.650   5.534
68900SOL    HW1 8597   2.775   4.630   5.496
68900SOL    HW2 8598   2.694   4.617   5.623
68901SOL     OW 8599   3.971   5.189   2.583
68901SOL    HW1 8600   3.941   5.232   2.663
68901SOL    HW2 8601   4.067   5.189   2.590
68902SOL     OW 8602   8.700   2.625   8.119
68902SOL    HW1 8603   8.704   2.629   8.023
68902SOL    HW2 8604   8.744   2.542   8.141
68903SOL     OW 8605   2.431   6.392   5.258
68903SOL    HW1 8606   2.423   6.306   5.218
68903SOL    HW2 8607   2.521   6.397   5.289
68904SOL     OW 8608  14.618  11.460   7.130
68904SOL    HW1 8609  14.559  11.479   7.203
68904SOL    HW2 8610  14.700  11.504   7.154
68905SOL     OW 8611   6.398   2.677   5.190
68905SOL    HW1 8612   6.365   2.645   5.106
68905SOL    HW2 8613   6.493   2.681   5.178
68906SOL     OW 8614  13.992   2.812   6.936
68906SOL    HW1 8615  13.985   2.883   6.999
68906SOL    HW2 8616  14.067   2.835   6.882
68907SOL     OW 8617   3.951   2.861   4.944
68907SOL    HW1 8618   4.017   2.906   4.892
68907SOL    HW2 8619   3.943   2.775   4.903
68908SOL     OW 8620   2.228   3.972   8.865
68908SOL    HW1 8621   2.225   3.942   8.774
68908SOL    HW2 8622   2.315   4.010   8.875
68909SOL     OW 8623  14.400   6.159   2.350
68909SOL    HW1 8624  14.379   6.253   2.347
68909SOL    HW2 8625  14.320   6.116   2.320
68910SOL     OW 8626   1.026  12.727   4.426
68910SOL    HW1 8627   0.932  12.736   4.437
68910SOL    HW2 8628   1.064  12.762   4.507
68911SOL     OW 8629   8.791   9.695   2.974
68911SOL    HW1 8630   8.875   9.726   2.940
68911SOL    HW2 8631   8.782   9.606   2.939
68912SOL     OW 8632  14.197   4.724   2.749
68912SOL    HW1 8633  14.148   4.687   2.676
68912SOL    HW2 8634  14.155   4.688   2.827
68913SOL     OW 8635   2.122   6.361  11.407
68913SOL    HW1 8636   2.216   6.370  11.425
68913SOL    HW2 8637   2.116   6.368  11.312
68914SOL     OW 8638  11.531   6.068   9.427
68914SOL    HW1 8639  11.491   5.982   9.416
68914SOL    HW2 8640  11.618   6.050   9.463
68915SOL     OW 8641   1.745   5.993   3.552
68915SOL    HW1 8642   1.652   5.972   3.566
68915SOL    HW2 8643   1.745   6.087   3.532
68916SOL     OW 8644   2.600   4.405   5.373
68916SOL    HW1 8645   2.618   4.494   5.403
68916SOL    HW2 8646   2.513   4.385   5.408
68917SOL     OW 8647  11.735   4.971  10.511
68917SOL    HW1 8648  11.651   4.936  10.482
68917SOL    HW2 8649  11.766   4.906  10.574
68918SOL     OW 8650   0.778   0.350  14.303
68918SOL    HW1 8651   0.685   0.369  14.293
68918SOL    HW2 8652   0.782   0.290  14.378
68919SOL     OW 8653  14.227   4.984  11.449
68919SOL    HW1 8654  14.261   5.072  11.465
68919SOL    HW2 8655  14.303   4.932  11.425
68920SOL     OW 8656   6.596  14.508  11.558
68920SOL    HW1 8657   6.511  14.466  11.549
68920SOL    HW2 8658   6.635  14.503  11.471
68921SOL     OW 8659  13.402  14.499   2.775
68921SOL    HW1 8660  13.365  14.444   2.844
68921SOL    HW2 8661  13.471  14.548   2.817
68922SOL     OW 8662  13.211  14.289   2.557
68922SOL    HW1 8663  13.182  14.276   2.648
68922SOL    HW2 8664  13.302  14.319   2.565
68923SOL     OW 8665   4.964   8.587   6.840
68923SOL    HW1 8666   4.993   8.657   6.898
68923SOL    HW2 8667   4.870   8.579   6.856
68924SOL     OW 8668   7.029   1.816  12.262
68924SOL    HW1 8669   6.936   1.822  12.236
68924SOL    HW2 8670   7.070   1.767  12.191
68925SOL     OW 8671   7.369   7.125   1.927
68925SOL    HW1 8672   7.386   7.136   1.834
68925SOL    HW2 8673   7.277   7.101   1.932
68926SOL     OW 8674   2.194  13.484   4.950
68926SOL    HW1 8675   2.256  13.480   4.878
68926SOL    HW2 8676   2.136  13.558   4.929
68927SOL     OW 8677   7.164  10.300   1.463
68927SOL    HW1 8678   7.222  10.313   1.389
68927SOL    HW2 8679   7.161  10.385   1.507
68928SOL     OW 8680   8.053  11.056   8.471
68928SOL    HW1 8681   8.082  11.137   8.513
68928SOL    HW2 8682   7.966  11.040   8.506
68929SOL     OW 8683   5.322   0.355  12.080
68929SOL    HW1 8684   5.252   0.335  12.018
68929SOL    HW2 8685   5.278   0.364  12.165
68930SOL     OW 8686  14.862   6.313   3.752
68930SOL    HW1 8687  14.812   6.235   3.776
68930SOL    HW2 8688  14.822   6.384   3.801
68931SOL     OW 8689   8.171   2.396   2.389
68931SOL    HW1 8690   8.195   2.370   2.478
68931SOL    HW2 8691   8.205   2.485   2.380
68932SOL     OW 8692   7.419   6.257   8.931
68932SOL    HW1 8693   7.331   6.283   8.958
68932SOL    HW2 8694   7.476   6.327   8.964
68933SOL     OW 8695   1.086   5.297   6.980
68933SOL    HW1 8696   1.156   5.275   6.919
68933SOL    HW2 8697   1.131   5.340   7.053
68934SOL     OW 8698   7.304   1.702   1.753
68934SOL    HW1 8699   7.383   1.687   1.703
68934SOL    HW2 8700   7.271   1.614   1.773
68935SOL     OW 8701   0.952   3.650  14.501
68935SOL    HW1 8702   0.998   3.566  14.509
68935SOL    HW2 8703   0.988   3.704  14.572
68936SOL     OW 8704   3.985  13.156  11.228
68936SOL    HW1 8705   3.949  13.159  11.139
68936SOL    HW2 8706   3.971  13.066  11.256
68937SOL     OW 8707   0.203   6.523  11.145
68937SOL    HW1 8708   0.186   6.541  11.052
68937SOL    HW2 8709   0.116   6.521  11.184
68938SOL     OW 8710   1.482   8.305  14.080
68938SOL    HW1 8711   1.537   8.243  14.129
68938SOL    HW2 8712   1.544   8.353  14.025
68939SOL     OW 8713  10.425   1.198  14.775
68939SOL    HW1 8714  10.449   1.123  14.829
68939SOL    HW2 8715  10.338   1.178  14.743
68940SOL     OW 8716   1.514   1.982   1.800
68940SOL    HW1 8717   1.480   1.924   1.732
68940SOL    HW2 8718   1.537   2.062   1.753
68941SOL     OW 8719   7.147   3.920   8.873
68941SOL    HW1 8720   7.195   3.852   8.825
68941SOL    HW2 8721   7.071   3.939   8.819
68942SOL     OW 8722   6.278   0.673  10.978
68942SOL    HW1 8723   6.183   0.674  10.987
68942SOL    HW2 8724   6.302   0.581  10.987
68943SOL     OW 8725   2.373   2.407   5.480
68943SOL    HW1 8726   2.292   2.445   5.513
68943SOL    HW2 8727   2.351   2.316   5.462
68944SOL     OW 8728  10.075   8.246   0.556
68944SOL    HW1 8729  10.078   8.258   0.651
68944SOL    HW2 8730  10.023   8.167   0.544
68945SOL     OW 8731  10.625   6.726   2.333
68945SOL    HW1 8732  10.540   6.739   2.377
68945SOL    HW2 8733  10.612   6.761   2.245
68946SOL     OW 8734   5.379   6.600  13.239
68946SOL    HW1 8735   5.427   6.683  13.241
68946SOL    HW2 8736   5.354   6.585  13.330
68947SOL     OW 8737   1.772  10.627   1.120
68947SOL    HW1 8738   1.813  10.553   1.165
68947SOL    HW2 8739   1.750  10.593   1.033
68948SOL     OW 8740   8.705   6.006  13.965
68948SOL    HW1 8741   8.756   6.079  13.932
68948SOL    HW2 8742   8.745   5.929  13.925
68949SOL     OW 8743   1.623  11.783   3.916
68949SOL    HW1 8744   1.655  11.790   4.006
68949SOL    HW2 8745   1.553  11.719   3.920
68950SOL     OW 8746   2.463  12.838   3.525
68950SOL    HW1 8747   2.403  12.821   3.453
68950SOL    HW2 8748   2.442  12.771   3.591
68951SOL     OW 8749   0.165  13.532  12.488
68951SOL    HW1 8750   0.201  13.614  12.455
68951SOL    HW2 8751   0.220  13.509  12.563
68952SOL     OW 8752   0.927   3.189   4.381
68952SOL    HW1 8753   0.839   3.224   4.372
68952SOL    HW2 8754   0.972   3.252   4.438
68953SOL     OW 8755  13.135   1.637  13.982
68953SOL    HW1 8756  13.117   1.699  13.911
68953SOL    HW2 8757  13.228   1.649  14.001
68954SOL     OW 8758   9.670  12.750   1.955
68954SOL    HW1 8759   9.650  12.701   2.035
68954SOL    HW2 8760   9.660  12.685   1.885
68955SOL     OW 8761   1.625   3.245  11.258
68955SOL    HW1 8762   1.653   3.159  11.226
68955SOL    HW2 8763   1.551   3.268  11.201
68956SOL     OW 8764   3.177   0.432   9.566
68956SOL    HW1 8765   3.171   0.343   9.532
68956SOL    HW2 8766   3.142   0.487   9.495
68957SOL     OW 8767  14.469   8.207   6.406
68957SOL    HW1 8768  14.511   8.191   6.491
68957SOL    HW2 8769  14.405   8.136   6.397
68958SOL     OW 8770   4.617  13.400   6.625
68958SOL    HW1 8771   4.679  13.467   6.654
68958SOL    HW2 8772   4.531  13.437   6.643
68959SOL     OW 8773   4.554  12.219   6.410
68959SOL    HW1 8774   4.552  12.159   6.335
68959SOL    HW2 8775   4.646  12.220   6.437
68960SOL     OW 8776   3.437   7.755  13.012
68960SOL    HW1 8777   3.488   7.707  12.947
68960SOL    HW2 8778   3.420   7.840  12.971
68961SOL     OW 8779   6.657   4.699  12.285
68961SOL    HW1 8780   6.566   4.725  12.298
68961SOL    HW2 8781   6.707   4.778  12.304
68962SOL     OW 8782   1.152   2.862  11.687
68962SOL    HW1 8783   1.124   2.810  11.762
68962SOL    HW2 8784   1.071   2.898  11.650
68963SOL     OW 8785  10.258   8.053  14.243
68963SOL    HW1 8786  10.181   8.106  14.261
68963SOL    HW2 8787  10.248   8.026  14.152
68964SOL     OW 8788   0.947   6.161   9.638
68964SOL    HW1 8789   0.886   6.124   9.702
68964SOL    HW2 8790   0.984   6.084   9.593
68965SOL     OW 8791  10.489  14.457   0.991
68965SOL    HW1 8792  10.490  14.470   0.897
68965SOL    HW2 8793  10.399  14.434   1.012
68966SOL     OW 8794   1.058   4.436  12.949
68966SOL    HW1 8795   1.072   4.347  12.917
68966SOL    HW2 8796   1.124   4.488  12.904
68967SOL     OW 8797  13.703  12.058   3.165
68967SOL    HW1 8798  13.656  11.975   3.164
68967SOL    HW2 8799  13.636  12.124   3.150
68968SOL     OW 8800   0.185   9.496   5.976
68968SOL    HW1 8801   0.252   9.553   5.939
68968SOL    HW2 8802   0.193   9.508   6.070
68969SOL     OW 8803   6.141   1.694   2.846
68969SOL    HW1 8804   6.200   1.734   2.782
68969SOL    HW2 8805   6.162   1.738   2.929
68970SOL     OW 8806   2.128   1.621  13.036
68970SOL    HW1 8807   2.146   1.580  13.120
68970SOL    HW2 8808   2.097   1.709  13.057
68971SOL     OW 8809   6.563   5.587  12.638
68971SOL    HW1 8810   6.581   5.680  12.649
68971SOL    HW2 8811   6.518   5.561  12.718
68972SOL     OW 8812   3.348   0.940   8.190
68972SOL    HW1 8813   3.387   0.884   8.122
68972SOL    HW2 8814   3.337   0.882   8.265
68973SOL     OW 8815   7.384   8.520   2.112
68973SOL    HW1 8816   7.455   8.585   2.107
68973SOL    HW2 8817   7.410   8.462   2.183
68974SOL     OW 8818  10.185   7.240   9.744
68974SOL    HW1 8819  10.196   7.223   9.838
68974SOL    HW2 8820  10.117   7.308   9.741
68975SOL     OW 8821  13.429   1.413   2.137
68975SOL    HW1 8822  13.499   1.437   2.198
68975SOL    HW2 8823  13.475   1.378   2.061
68976SOL     OW 8824  10.689   1.850   9.923
68976SOL    HW1 8825  10.669   1.769   9.875
68976SOL    HW2 8826  10.714   1.821  10.011
68977SOL     OW 8827  11.346   6.506   9.175
68977SOL    HW1 8828  11.354   6.428   9.228
68977SOL    HW2 8829  11.275   6.487   9.114
68978SOL     OW 8830   7.598   0.081  13.824
68978SOL    HW1 8831   7.660   0.062  13.895
68978SOL    HW2 8832   7.516   0.101  13.869
68979SOL     OW 8833   7.959   1.145   7.235
68979SOL    HW1 8834   7.906   1.084   7.286
68979SOL    HW2 8835   7.929   1.232   7.263
68980SOL     OW 8836  12.857   4.780   1.655
68980SOL    HW1 8837  12.823   4.754   1.570
68980SOL    HW2 8838  12.822   4.715   1.716
68981SOL     OW 8839   2.926  14.359   8.764
68981SOL    HW1 8840   2.865  14.361   8.690
68981SOL    HW2 8841   3.011  14.340   8.725
68982SOL     OW 8842  10.004  12.062  10.075
68982SOL    HW1 8843  10.040  11.983  10.116
68982SOL    HW2 8844   9.909  12.053  10.085
68983SOL     OW 8845  11.318  10.766   4.096
68983SOL    HW1 8846  11.353  10.767   4.007
68983SOL    HW2 8847  11.357  10.689   4.137
68984SOL     OW 8848  10.493  10.911  11.867
68984SOL    HW1 8849  10.455  10.838  11.818
68984SOL    HW2 8850  10.525  10.972  11.800
68985SOL     OW 8851   3.316  13.900   6.212
68985SOL    HW1 8852   3.297  13.814   6.250
68985SOL    HW2 8853   3.409  13.896   6.190
68986SOL     OW 8854   8.291   1.825  14.425
68986SOL    HW1 8855   8.205   1.789  14.447
68986SOL    HW2 8856   8.274   1.885  14.353
68987SOL     OW 8857  10.327  13.754   5.203
68987SOL    HW1 8858  10.378  13.678   5.231
68987SOL    HW2 8859  10.392  13.822   5.188
68988SOL     OW 8860   9.283  12.406  11.431
68988SOL    HW1 8861   9.259  12.366  11.348
68988SOL    HW2 8862   9.201  12.442  11.466
68989SOL     OW 8863   5.982   3.939   2.149
68989SOL    HW1 8864   5.921   3.926   2.221
68989SOL    HW2 8865   5.954   3.878   2.081
68990SOL     OW 8866  10.316  10.136  12.094
68990SOL    HW1 8867  10.275  10.186  12.164
68990SOL    HW2 8868  10.371  10.072  12.139
68991SOL     OW 8869   5.475  12.470   2.526
68991SOL    HW1 8870   5.470  12.506   2.615
68991SOL    HW2 8871   5.534  12.529   2.480
68992SOL     OW 8872   3.285   9.998  10.970
68992SOL    HW1 8873   3.274   9.949  10.889
68992SOL    HW2 8874   3.210   9.971  11.024
68993SOL     OW 8875  12.998   2.666  11.529
68993SOL    HW1 8876  13.009   2.670  11.434
68993SOL    HW2 8877  12.913   2.706  11.545
68994SOL     OW 8878   0.978  14.680   3.937
68994SOL    HW1 8879   0.924  14.754   3.964
68994SOL    HW2 8880   1.068  14.712   3.943
68995SOL     OW 8881  11.673  14.004   7.310
68995SOL    HW1 8882  11.580  14.029   7.309
68995SOL    HW2 8883  11.720  14.080   7.278
68996SOL     OW 8884   5.062   8.831   1.916
68996SOL    HW1 8885   5.063   8.843   2.011
68996SOL    HW2 8886   5.151   8.850   1.888
68997SOL     OW 8887   6.738   5.862   1.390
68997SOL    HW1 8888   6.787   5.931   1.346
68997SOL    HW2 8889   6.654   5.858   1.344
68998SOL     OW 8890  12.784   5.478  13.960
68998SOL    HW1 8891  12.794   5.386  13.935
68998SOL    HW2 8892  12.776   5.524  13.877
68999SOL     OW 8893   1.118  12.919  10.702
68999SOL    HW1 8894   1.071  12.839  10.679
68999SOL    HW2 8895   1.188  12.890  10.760
69000SOL     OW 8896   9.826   5.395   6.445
69000SOL    HW1 8897   9.761   5.466   6.447
69000SOL    HW2 8898   9.879   5.414   6.367
69001SOL     OW 8899  11.060   0.673   3.493
69001SOL    HW1 8900  11.155   0.680   3.490
69001SOL    HW2 8901  11.041   0.643   3.582
69002SOL     OW 8902   7.669  13.230   5.256
69002SOL    HW1 8903   7.744  13.289   5.260
69002SOL    HW2 8904   7.706  13.143   5.275
69003SOL     OW 8905  10.196   8.642   6.655
69003SOL    HW1 8906  10.174   8.713   6.595
69003SOL    HW2 8907  10.291   8.629   6.644
69004SOL     OW 8908   6.581  10.575   3.607
69004SOL    HW1 8909   6.530  10.649   3.576
69004SOL    HW2 8910   6.668  10.611   3.625
69005SOL     OW 8911   4.070  14.702   4.162
69005SOL    HW1 8912   4.062  14.748   4.246
69005SOL    HW2 8913   4.034  14.763   4.098
69006SOL     OW 8914   6.824   2.902   9.824
69006SOL    HW1 8915   6.895   2.838   9.822
69006SOL    HW2 8916   6.752   2.857   9.868
69007SOL     OW 8917   7.251  10.505  11.683
69007SOL    HW1 8918   7.218  10.429  11.731
69007SOL    HW2 8919   7.318  10.469  11.625
69008SOL     OW 8920  11.658   3.462  14.049
69008SOL    HW1 8921  11.639   3.480  14.141
69008SOL    HW2 8922  11.600   3.390  14.026
69009SOL     OW 8923   8.685   2.341   9.638
69009SOL    HW1 8924   8.661   2.427   9.603
69009SOL    HW2 8925   8.620   2.281   9.601
69010SOL     OW 8926   3.962  12.316   1.476
69010SOL    HW1 8927   3.996  12.404   1.494
69010SOL    HW2 8928   3.868  12.327   1.468
69011SOL     OW 8929   4.652   0.897  10.931
69011SOL    HW1 8930   4.705   0.860  10.860
69011SOL    HW2 8931   4.572   0.845  10.931
69012SOL     OW 8932  13.224   6.891   0.177
69012SOL    HW1 8933  13.202   6.968   0.124
69012SOL    HW2 8934  13.318   6.899   0.193
69013SOL     OW 8935  13.616   0.608  13.543
69013SOL    HW1 8936  13.669   0.533  13.514
69013SOL    HW2 8937  13.562   0.630  13.468
69014SOL     OW 8938   7.021   6.690   2.788
69014SOL    HW1 8939   6.944   6.681   2.844
69014SOL    HW2 8940   7.001   6.636   2.711
69015SOL     OW 8941   1.915  13.216   7.196
69015SOL    HW1 8942   1.873  13.241   7.114
69015SOL    HW2 8943   1.963  13.136   7.174
69016SOL     OW 8944   0.344  10.530  12.040
69016SOL    HW1 8945   0.344  10.525  11.944
69016SOL    HW2 8946   0.424  10.484  12.066
69017SOL     OW 8947   7.643   9.109   8.803
69017SOL    HW1 8948   7.661   9.200   8.777
69017SOL    HW2 8949   7.728   9.065   8.795
69018SOL     OW 8950   7.166   6.414   0.099
69018SOL    HW1 8951   7.247   6.410   0.047
69018SOL    HW2 8952   7.179   6.489   0.157
69019SOL     OW 8953  10.478   9.614   6.918
69019SOL    HW1 8954  10.470   9.570   7.002
69019SOL    HW2 8955  10.498   9.544   6.856
69020SOL     OW 8956  12.585  13.845  14.573
69020SOL    HW1 8957  12.680  13.846  14.561
69020SOL    HW2 8958  12.550  13.851  14.484
69021SOL     OW 8959   1.546  10.899   6.973
69021SOL    HW1 8960   1.613  10.933   7.032
69021SOL    HW2 8961   1.595  10.853   6.905
69022SOL     OW 8962   0.193   3.296  14.107
69022SOL    HW1 8963   0.231   3.380  14.133
69022SOL    HW2 8964   0.107   3.295  14.148
69023SOL     OW 8965  13.060   1.937  10.962
69023SOL    HW1 8966  12.999   1.913  11.032
69023SOL    HW2 8967  13.146   1.929  11.002
69024SOL     OW 8968  10.471   2.781   8.956
69024SOL    HW1 8969  10.542   2.717   8.944
69024SOL    HW2 8970  10.471   2.800   9.049
69025SOL     OW 8971   5.613  10.711  13.119
69025SOL    HW1 8972   5.655  10.643  13.172
69025SOL    HW2 8973   5.553  10.663  13.061
69026SOL     OW 8974   0.361  10.680   3.035
69026SOL    HW1 8975   0.411  10.607   3.071
69026SOL    HW2 8976   0.363  10.746   3.104
69027SOL     OW 8977   9.296   8.518  10.067
69027SOL    HW1 8978   9.343   8.600  10.077
69027SOL    HW2 8979   9.348   8.467  10.005
69028SOL     OW 8980   2.009   4.064  14.035
69028SOL    HW1 8981   1.919   4.091  14.054
69028SOL    HW2 8982   2.011   4.053  13.940
69029SOL     OW 8983   4.055   6.835  10.647
69029SOL    HW1 8984   3.991   6.769  10.670
69029SOL    HW2 8985   4.003   6.912  10.624
69030SOL     OW 8986   7.740   4.607  12.659
69030SOL    HW1 8987   7.801   4.653  12.716
69030SOL    HW2 8988   7.767   4.632  12.570
69031SOL     OW 8989  13.782  13.988   1.861
69031SOL    HW1 8990  13.692  14.017   1.846
69031SOL    HW2 8991  13.830  14.019   1.784
69032SOL     OW 8992   2.258  13.475   8.517
69032SOL    HW1 8993   2.345  13.473   8.556
69032SOL    HW2 8994   2.249  13.563   8.480
69033SOL     OW 8995   6.026   0.464   5.863
69033SOL    HW1 8996   6.043   0.412   5.942
69033SOL    HW2 8997   6.023   0.399   5.793
69034SOL     OW 8998   4.683   6.701   7.924
69034SOL    HW1 8999   4.676   6.637   7.854
69034SOL    HW2 9000   4.640   6.660   8.000
69035SOL     OW 9001   5.787   0.334   9.814
69035SOL    HW1 9002   5.738   0.281   9.751
69035SOL    HW2 9003   5.794   0.420   9.772
69036SOL     OW 9004  13.775   2.159   9.427
69036SOL    HW1 9005  13.705   2.178   9.489
69036SOL    HW2 9006  13.809   2.244   9.402
69037SOL     OW 9007   8.955  10.246  10.029
69037SOL    HW1 9008   8.881  10.190  10.006
69037SOL    HW2 9009   8.973  10.225  10.121
69038SOL     OW 9010   1.966  11.509   8.148
69038SOL    HW1 9011   2.011  11.584   8.185
69038SOL    HW2 9012   1.998  11.504   8.058
69039SOL     OW 9013   8.019   5.282  10.647
69039SOL    HW1 9014   8.067   5.347  10.597
69039SOL    HW2 9015   8.039   5.302  10.739
69040SOL     OW 9016   3.512  13.965  10.143
69040SOL    HW1 9017   3.508  14.057  10.118
69040SOL    HW2 9018   3.572  13.962  10.217
69041SOL     OW 9019   9.491  13.903   1.445
69041SOL    HW1 9020   9.411  13.864   1.408
69041SOL    HW2 9021   9.559  13.881   1.382
69042SOL     OW 9022  11.994   9.608   0.078
69042SOL    HW1 9023  12.088   9.607   0.060
69042SOL    HW2 9024  11.986   9.659   0.158
69043SOL     OW 9025   7.288   4.119  11.712
69043SOL    HW1 9026   7.351   4.189  11.698
69043SOL    HW2 9027   7.275   4.080  11.626
69044SOL     OW 9028   8.187   8.572   0.364
69044SOL    HW1 9029   8.120   8.638   0.385
69044SOL    HW2 9030   8.174   8.553   0.271
69045SOL     OW 9031   2.847   8.066   3.545
69045SOL    HW1 9032   2.872   8.101   3.631
69045SOL    HW2 9033   2.912   8.101   3.484
69046SOL     OW 9034  13.471   7.193  11.208
69046SOL    HW1 9035  13.507   7.219  11.293
69046SOL    HW2 9036  13.500   7.102  11.196
69047SOL     OW 9037  11.917   2.246  12.566
69047SOL    HW1 9038  11.907   2.202  12.481
69047SOL    HW2 9039  11.948   2.177  12.625
69048SOL     OW 9040   2.888  12.869   0.338
69048SOL    HW1 9041   2.974  12.840   0.367
69048SOL    HW2 9042   2.858  12.801   0.278
69049SOL     OW 9043   7.944   1.588   5.149
69049SOL    HW1 9044   7.966   1.539   5.070
69049SOL    HW2 9045   7.848   1.593   5.148
69050SOL     OW 9046  14.251   3.544   9.395
69050SOL    HW1 9047  14.179   3.514   9.451
69050SOL    HW2 9048  14.211   3.610   9.338
69051SOL     OW 9049   2.189  12.831   8.275
69051SOL    HW1 9050   2.126  12.859   8.209
69051SOL    HW2 9051   2.263  12.890   8.264
69052SOL     OW 9052   6.629   1.118  12.054
69052SOL    HW1 9053   6.706   1.138  12.002
69052SOL    HW2 9054   6.555   1.133  11.995
69053SOL     OW 9055   8.816   9.060   1.353
69053SOL    HW1 9056   8.790   8.969   1.367
69053SOL    HW2 9057   8.835   9.093   1.441
69054SOL     OW 9058   9.755   9.050   2.345
69054SOL    HW1 9059   9.694   9.057   2.418
69054SOL    HW2 9060   9.702   9.070   2.268
69055SOL     OW 9061  11.061   9.960  10.544
69055SOL    HW1 9062  11.088  10.030  10.604
69055SOL    HW2 9063  11.096   9.880  10.583
69056SOL     OW 9064   6.535   1.870   6.457
69056SOL    HW1 9065   6.459   1.904   6.409
69056SOL    HW2 9066   6.551   1.784   6.418
69057SOL     OW 9067  13.365   5.301   3.858
69057SOL    HW1 9068  13.272   5.299   3.834
69057SOL    HW2 9069  13.374   5.380   3.911
69058SOL     OW 9070   7.941  12.444   6.595
69058SOL    HW1 9071   7.920  12.406   6.510
69058SOL    HW2 9072   7.936  12.371   6.657
69059SOL     OW 9073   6.986   6.857   0.370
69059SOL    HW1 9074   7.033   6.916   0.428
69059SOL    HW2 9075   6.964   6.910   0.293
69060SOL     OW 9076   5.958   8.641   3.511
69060SOL    HW1 9077   5.951   8.565   3.453
69060SOL    HW2 9078   5.911   8.710   3.464
69061SOL     OW 9079  10.860   8.872  14.300
69061SOL    HW1 9080  10.936   8.816  14.314
69061SOL    HW2 9081  10.788   8.812  14.284
69062SOL     OW 9082  13.774   2.273   1.953
69062SOL    HW1 9083  13.688   2.235   1.936
69062SOL    HW2 9084  13.761   2.368   1.941
69063SOL     OW 9085   8.479  11.061  14.591
69063SOL    HW1 9086   8.468  11.149  14.557
69063SOL    HW2 9087   8.404  11.048  14.649
69064SOL     OW 9088   5.104   3.074   0.496
69064SOL    HW1 9089   5.141   3.011   0.434
69064SOL    HW2 9090   5.026   3.031   0.529
69065SOL     OW 9091  13.083   5.159  11.467
69065SOL    HW1 9092  13.086   5.165  11.371
69065SOL    HW2 9093  13.121   5.073  11.486
69066SOL     OW 9094   0.898   9.193   9.853
69066SOL    HW1 9095   0.876   9.200   9.761
69066SOL    HW2 9096   0.865   9.107   9.879
69067SOL     OW 9097   6.805   4.518   4.502
69067SOL    HW1 9098   6.837   4.444   4.451
69067SOL    HW2 9099   6.874   4.536   4.565
69068SOL     OW 9100  14.791  13.806   7.150
69068SOL    HW1 9101  14.701  13.839   7.155
69068SOL    HW2 9102  14.784  13.714   7.174
69069SOL     OW 9103  11.825   8.170   1.520
69069SOL    HW1 9104  11.914   8.205   1.527
69069SOL    HW2 9105  11.770   8.247   1.502
69070SOL     OW 9106   4.902   3.167   8.976
69070SOL    HW1 9107   4.946   3.203   9.053
69070SOL    HW2 9108   4.827   3.225   8.962
69071SOL     OW 9109   0.443  11.571  12.865
69071SOL    HW1 9110   0.534  11.567  12.892
69071SOL    HW2 9111   0.396  11.516  12.928
69072SOL     OW 9112   2.787  14.653   0.582
69072SOL    HW1 9113   2.845  14.591   0.538
69072SOL    HW2 9114   2.758  14.608   0.661
69073SOL     OW 9115  12.886   9.423  13.429
69073SOL    HW1 9116  12.947   9.486  13.390
69073SOL    HW2 9117  12.799   9.455  13.404
69074SOL     OW 9118   9.195   3.219   8.735
69074SOL    HW1 9119   9.105   3.198   8.712
69074SOL    HW2 9120   9.242   3.219   8.651
69075SOL     OW 9121   2.179   1.540  13.346
69075SOL    HW1 9122   2.183   1.622  13.394
69075SOL    HW2 9123   2.210   1.474  13.407
69076SOL     OW 9124   0.129   9.592   2.453
69076SOL    HW1 9125   0.085   9.610   2.536
69076SOL    HW2 9126   0.119   9.673   2.403
69077SOL     OW 9127   1.436   8.199  11.917
69077SOL    HW1 9128   1.529   8.181  11.900
69077SOL    HW2 9129   1.391   8.165  11.839
69078SOL     OW 9130   7.537  10.045   6.402
69078SOL    HW1 9131   7.517   9.980   6.469
69078SOL    HW2 9132   7.632  10.045   6.395
69079SOL     OW 9133   0.750   9.579  10.970
69079SOL    HW1 9134   0.779   9.540  11.053
69079SOL    HW2 9135   0.728   9.505  10.915
69080SOL     OW 9136   0.683   1.113   4.604
69080SOL    HW1 9137   0.634   1.101   4.523
69080SOL    HW2 9138   0.769   1.145   4.576
69081SOL     OW 9139   7.162  11.869  12.784
69081SOL    HW1 9140   7.210  11.796  12.746
69081SOL    HW2 9141   7.222  11.944  12.778
69082SOL     OW 9142   1.733   8.865   9.982
69082SOL    HW1 9143   1.762   8.874   9.891
69082SOL    HW2 9144   1.640   8.886   9.980
69083SOL     OW 9145   9.686   8.078   9.438
69083SOL    HW1 9146   9.650   7.991   9.452
69083SOL    HW2 9147   9.744   8.068   9.362
69084SOL     OW 9148  10.870   3.792   5.897
69084SOL    HW1 9149  10.945   3.811   5.841
69084SOL    HW2 9150  10.908   3.759   5.978
69085SOL     OW 9151   9.900  12.117   1.370
69085SOL    HW1 9152   9.897  12.023   1.389
69085SOL    HW2 9153   9.970  12.150   1.426
69086SOL     OW 9154  13.155   1.190  12.893
69086SOL    HW1 9155  13.123   1.108  12.929
69086SOL    HW2 9156  13.117   1.257  12.949
69087SOL     OW 9157  12.167   3.619  11.853
69087SOL    HW1 9158  12.216   3.608  11.935
69087SOL    HW2 9159  12.138   3.531  11.830
69088SOL     OW 9160   4.869   5.086   0.010
69088SOL    HW1 9161   4.917   5.073   0.092
69088SOL    HW2 9162   4.936   5.078  14.811
69089SOL     OW 9163  11.387  13.134  11.092
69089SOL    HW1 9164  11.392  13.065  11.026
69089SOL    HW2 9165  11.314  13.108  11.148
69090SOL     OW 9166   0.690   1.446   2.778
69090SOL    HW1 9167   0.703   1.395   2.857
69090SOL    HW2 9168   0.769   1.430   2.726
69091SOL     OW 9169   6.967   2.999   9.363
69091SOL    HW1 9170   7.059   2.978   9.343
69091SOL    HW2 9171   6.926   3.009   9.277
69092SOL     OW 9172  12.744   0.214  11.940
69092SOL    HW1 9173  12.659   0.236  11.904
69092SOL    HW2 9174  12.726   0.190  12.031
69093SOL     OW 9175   0.930   0.821   3.200
69093SOL    HW1 9176   0.907   0.760   3.271
69093SOL    HW2 9177   1.025   0.825   3.202
69094SOL     OW 9178  14.368   4.519  11.376
69094SOL    HW1 9179  14.276   4.546  11.386
69094SOL    HW2 9180  14.411   4.596  11.338
69095SOL     OW 9181   2.424   4.308  10.653
69095SOL    HW1 9182   2.465   4.375  10.708
69095SOL    HW2 9183   2.369   4.357  10.593
69096SOL     OW 9184  11.720  13.221   0.691
69096SOL    HW1 9185  11.815  13.230   0.695
69096SOL    HW2 9186  11.697  13.167   0.766
69097SOL     OW 9187   6.005   2.455   4.314
69097SOL    HW1 9188   6.013   2.360   4.321
69097SOL    HW2 9189   6.042   2.488   4.396
69098SOL     OW 9190   9.051   1.417   9.644
69098SOL    HW1 9191   9.116   1.382   9.583
69098SOL    HW2 9192   9.102   1.448   9.719
69099SOL     OW 9193   6.584  12.840   9.750
69099SOL    HW1 9194   6.671  12.801   9.740
69099SOL    HW2 9195   6.557  12.863   9.661
69100SOL     OW 9196   8.879   9.348   5.646
69100SOL    HW1 9197   8.790   9.326   5.671
69100SOL    HW2 9198   8.877   9.441   5.627
69101SOL     OW 9199  13.362  12.648   4.810
69101SOL    HW1 9200  13.275  12.621   4.782
69101SOL    HW2 9201  13.418  12.634   4.734
69102SOL     OW 9202   5.509  10.296  11.188
69102SOL    HW1 9203   5.604  10.304  11.182
69102SOL    HW2 9204   5.485  10.350  11.263
69103SOL     OW 9205   1.205   5.168   2.379
69103SOL    HW1 9206   1.115   5.198   2.392
69103SOL    HW2 9207   1.207   5.136   2.289
69104SOL     OW 9208   2.914   1.053   3.356
69104SOL    HW1 9209   2.928   1.143   3.326
69104SOL    HW2 9210   3.001   1.014   3.355
69105SOL     OW 9211   7.594  11.556   8.306
69105SOL    HW1 9212   7.568  11.475   8.351
69105SOL    HW2 9213   7.609  11.618   8.377
69106SOL     OW 9214  10.306   4.454   6.474
69106SOL    HW1 9215  10.253   4.534   6.463
69106SOL    HW2 9216  10.342   4.462   6.563
69107SOL     OW 9217  10.943   8.300   5.221
69107SOL    HW1 9218  10.864   8.349   5.199
69107SOL    HW2 9219  10.955   8.240   5.147
69108SOL     OW 9220   4.126   2.035  11.790
69108SOL    HW1 9221   4.149   1.954  11.745
69108SOL    HW2 9222   4.079   2.007  11.868
69109SOL     OW 9223   5.674   6.868  11.385
69109SOL    HW1 9224   5.606   6.873  11.319
69109SOL    HW2 9225   5.756   6.878  11.336
69110SOL     OW 9226   0.958   8.374   4.815
69110SOL    HW1 9227   1.044   8.331   4.820
69110SOL    HW2 9228   0.975   8.453   4.764
69111SOL     OW 9229   0.073  14.651   0.246
69111SOL    HW1 9230  14.864  14.674   0.296
69111SOL    HW2 9231   0.039  14.616   0.164
69112SOL     OW 9232   5.727  11.024   9.791
69112SOL    HW1 9233   5.644  11.061   9.761
69112SOL    HW2 9234   5.715  10.929   9.782
69113SOL     OW 9235  11.808   7.604   1.724
69113SOL    HW1 9236  11.817   7.511   1.703
69113SOL    HW2 9237  11.893   7.642   1.702
69114SOL     OW 9238   9.616   8.963   1.943
69114SOL    HW1 9239   9.521   8.952   1.954
69114SOL    HW2 9240   9.643   9.016   2.018
69115SOL     OW 9241  10.867   1.318  11.430
69115SOL    HW1 9242  10.878   1.246  11.368
69115SOL    HW2 9243  10.776   1.312  11.457
69116SOL     OW 9244   4.864   3.123   8.447
69116SOL    HW1 9245   4.838   3.108   8.356
69116SOL    HW2 9246   4.960   3.130   8.443
69117SOL     OW 9247   6.545   8.321   9.467
69117SOL    HW1 9248   6.450   8.314   9.457
69117SOL    HW2 9249   6.579   8.319   9.377
69118SOL     OW 9250  10.718   8.385   5.412
69118SOL    HW1 9251  10.642   8.380   5.354
69118SOL    HW2 9252  10.771   8.456   5.376
69119SOL     OW 9253   0.394  11.191   3.382
69119SOL    HW1 9254   0.479  11.166   3.346
69119SOL    HW2 9255   0.406  11.283   3.408
69120SOL     OW 9256  10.297  10.932   1.992
69120SOL    HW1 9257  10.249  10.988   2.052
69120SOL    HW2 9258  10.326  10.858   2.046
69121SOL     OW 9259   0.997  10.026  12.681
69121SOL    HW1 9260   0.951  10.096  12.635
69121SOL    HW2 9261   1.087  10.058  12.688
69122SOL     OW 9262   8.344   5.943  11.022
69122SOL    HW1 9263   8.322   5.928  10.931
69122SOL    HW2 9264   8.281   5.890  11.071
69123SOL     OW 9265   0.203   4.353   7.755
69123SOL    HW1 9266   0.225   4.444   7.775
69123SOL    HW2 9267   0.192   4.351   7.660
69124SOL     OW 9268   3.178  13.312   1.450
69124SOL    HW1 9269   3.165  13.404   1.429
69124SOL    HW2 9270   3.111  13.265   1.401
69125SOL     OW 9271   3.414   0.736  14.335
69125SOL    HW1 9272   3.473   0.761  14.406
69125SOL    HW2 9273   3.407   0.815  14.281
69126SOL     OW 9274   2.844   3.126   4.677
69126SOL    HW1 9275   2.863   3.177   4.756
69126SOL    HW2 9276   2.749   3.114   4.679
69127SOL     OW 9277   9.598  14.170  13.430
69127SOL    HW1 9278   9.614  14.197  13.339
69127SOL    HW2 9279   9.665  14.216  13.481
69128SOL     OW 9280   1.838   1.682   5.331
69128SOL    HW1 9281   1.763   1.711   5.279
69128SOL    HW2 9282   1.799   1.640   5.407
69129SOL     OW 9283  12.532   5.005   6.455
69129SOL    HW1 9284  12.521   4.932   6.515
69129SOL    HW2 9285  12.627   5.010   6.440
69130SOL     OW 9286  12.305  12.127  12.909
69130SOL    HW1 9287  12.268  12.106  12.823
69130SOL    HW2 9288  12.368  12.056  12.925
69131SOL     OW 9289  13.104   4.393  13.166
69131SOL    HW1 9290  13.039   4.456  13.137
69131SOL    HW2 9291  13.186   4.425  13.128
69132SOL     OW 9292  14.701   1.366  10.897
69132SOL    HW1 9293  14.637   1.420  10.851
69132SOL    HW2 9294  14.715   1.290  10.839
69133SOL     OW 9295  14.440   6.439   1.548
69133SOL    HW1 9296  14.533   6.456   1.531
69133SOL    HW2 9297  14.440   6.366   1.611
69134SOL     OW 9298   9.534   8.554  13.772
69134SOL    HW1 9299   9.530   8.582  13.680
69134SOL    HW2 9300   9.605   8.606  13.809
69135SOL     OW 9301   6.878   4.095  14.063
69135SOL    HW1 9302   6.800   4.051  14.096
69135SOL    HW2 9303   6.878   4.180  14.106
69136SOL     OW 9304  12.186   2.154   8.117
69136SOL    HW1 9305  12.260   2.103   8.086
69136SOL    HW2 9306  12.122   2.151   8.046
69137SOL     OW 9307  11.929   6.443  11.690
69137SOL    HW1 9308  11.950   6.469  11.600
69137SOL    HW2 9309  11.959   6.516  11.744
69138SOL     OW 9310   0.008   7.219   6.446
69138SOL    HW1 9311   0.021   7.219   6.540
69138SOL    HW2 9312   0.092   7.193   6.409
69139SOL     OW 9313  13.073  12.415  14.750
69139SOL    HW1 9314  13.117  12.348  14.697
69139SOL    HW2 9315  13.062  12.375  14.836
69140SOL     OW 9316   2.257  12.888   9.131
69140SOL    HW1 9317   2.267  12.819   9.065
69140SOL    HW2 9318   2.167  12.920   9.119
69141SOL     OW 9319   5.882  11.307  12.650
69141SOL    HW1 9320   5.925  11.368  12.591
69141SOL    HW2 9321   5.950  11.284  12.714
69142SOL     OW 9322   5.793   1.410  10.552
69142SOL    HW1 9323   5.760   1.482  10.497
69142SOL    HW2 9324   5.852   1.361  10.495
69143SOL     OW 9325  12.809   4.372   3.473
69143SOL    HW1 9326  12.811   4.446   3.412
69143SOL    HW2 9327  12.847   4.406   3.554
69144SOL     OW 9328   1.265   7.850   4.503
69144SOL    HW1 9329   1.314   7.922   4.464
69144SOL    HW2 9330   1.272   7.865   4.597
69145SOL     OW 9331  10.321   1.950   7.939
69145SOL    HW1 9332  10.416   1.950   7.933
69145SOL    HW2 9333  10.292   1.983   7.854
69146SOL     OW 9334   5.771  13.519  11.797
69146SOL    HW1 9335   5.866  13.521  11.782
69146SOL    HW2 9336   5.758  13.567  11.878
69147SOL     OW 9337  11.970   5.612   3.128
69147SOL    HW1 9338  11.900   5.612   3.194
69147SOL    HW2 9339  12.032   5.678   3.159
69148SOL     OW 9340   4.574  12.077   2.054
69148SOL    HW1 9341   4.560  11.982   2.058
69148SOL    HW2 9342   4.635  12.089   1.981
69149SOL     OW 9343   6.172   7.101   9.718
69149SOL    HW1 9344   6.248   7.089   9.775
69149SOL    HW2 9345   6.167   7.020   9.668
69150SOL     OW 9346   8.774   9.019  13.482
69150SOL    HW1 9347   8.758   9.106  13.519
69150SOL    HW2 9348   8.838   9.034  13.412
69151SOL     OW 9349   5.557  12.881   3.299
69151SOL    HW1 9350   5.635  12.911   3.345
69151SOL    HW2 9351   5.590  12.838   3.220
69152SOL     OW 9352  11.169  10.778   9.472
69152SOL    HW1 9353  11.205  10.829   9.544
69152SOL    HW2 9354  11.178  10.833   9.395
69153SOL     OW 9355  11.967  11.912   3.397
69153SOL    HW1 9356  12.057  11.943   3.404
69153SOL    HW2 9357  11.972  11.837   3.338
69154SOL     OW 9358   7.919   3.944   7.474
69154SOL    HW1 9359   7.972   3.897   7.409
69154SOL    HW2 9360   7.907   4.031   7.438
69155SOL     OW 9361   9.246   0.482   4.918
69155SOL    HW1 9362   9.187   0.510   4.848
69155SOL    HW2 9363   9.208   0.517   4.998
69156SOL     OW 9364   8.023  13.482   5.919
69156SOL    HW1 9365   8.072  13.485   5.837
69156SOL    HW2 9366   7.998  13.573   5.935
69157SOL     OW 9367   2.662  12.741  14.258
69157SOL    HW1 9368   2.670  12.835  14.270
69157SOL    HW2 9369   2.679  12.727  14.165
69158SOL     OW 9370   6.848   6.036   4.435
69158SOL    HW1 9371   6.917   6.066   4.494
69158SOL    HW2 9372   6.861   5.941   4.429
69159SOL     OW 9373   2.778   5.678   3.367
69159SOL    HW1 9374   2.853   5.737   3.377
69159SOL    HW2 9375   2.799   5.604   3.424
69160SOL     OW 9376   7.666   0.393  14.448
69160SOL    HW1 9377   7.627   0.420  14.531
69160SOL    HW2 9378   7.641   0.461  14.386
69161SOL     OW 9379   5.472   2.298   6.933
69161SOL    HW1 9380   5.383   2.332   6.937
69161SOL    HW2 9381   5.480   2.245   7.012
69162SOL     OW 9382  11.635  11.038   6.292
69162SOL    HW1 9383  11.590  11.043   6.376
69162SOL    HW2 9384  11.629  10.946   6.267
69163SOL     OW 9385  11.956  14.764   6.462
69163SOL    HW1 9386  11.944  14.784   6.369
69163SOL    HW2 9387  12.043  14.798   6.483
69164SOL     OW 9388  13.304   8.767   1.145
69164SOL    HW1 9389  13.327   8.805   1.060
69164SOL    HW2 9390  13.381   8.716   1.171
69165SOL     OW 9391  11.116  14.324  10.673
69165SOL    HW1 9392  11.169  14.244  10.667
69165SOL    HW2 9393  11.133  14.357  10.761
69166SOL     OW 9394   8.390   0.618   0.603
69166SOL    HW1 9395   8.387   0.653   0.692
69166SOL    HW2 9396   8.315   0.658   0.560
69167SOL     OW 9397   4.066   5.507   5.854
69167SOL    HW1 9398   4.053   5.514   5.760
69167SOL    HW2 9399   4.147   5.554   5.871
69168SOL     OW 9400   8.701  13.556   3.776
69168SOL    HW1 9401   8.750  13.631   3.743
69168SOL    HW2 9402   8.759  13.481   3.763
69169SOL     OW 9403  13.881   1.387   1.039
69169SOL    HW1 9404  13.817   1.343   0.983
69169SOL    HW2 9405  13.902   1.468   0.993
69170SOL     OW 9406   8.498   0.859   2.540
69170SOL    HW1 9407   8.550   0.904   2.473
69170SOL    HW2 9408   8.422   0.915   2.553
69171SOL     OW 9409   0.017  14.603   1.578
69171SOL    HW1 9410  14.855  14.676   1.631
69171SOL    HW2 9411   0.031  14.532   1.640
69172SOL     OW 9412   9.985   2.740   1.488
69172SOL    HW1 9413   9.943   2.714   1.570
69172SOL    HW2 9414  10.068   2.780   1.514
69173SOL     OW 9415  10.547   5.705   3.677
69173SOL    HW1 9416  10.454   5.719   3.694
69173SOL    HW2 9417  10.556   5.610   3.670
69174SOL     OW 9418   5.296  13.843  10.208
69174SOL    HW1 9419   5.261  13.768  10.256
69174SOL    HW2 9420   5.365  13.878  10.265
69175SOL     OW 9421   8.349   9.607   8.928
69175SOL    HW1 9422   8.318   9.673   8.867
69175SOL    HW2 9423   8.392   9.542   8.872
69176SOL     OW 9424   9.010  12.620   9.165
69176SOL    HW1 9425   9.021  12.526   9.178
69176SOL    HW2 9426   9.095  12.650   9.133
69177SOL     OW 9427   4.469   9.049   2.317
69177SOL    HW1 9428   4.433   9.023   2.232
69177SOL    HW2 9429   4.562   9.028   2.311
69178SOL     OW 9430   3.904   2.341  10.249
69178SOL    HW1 9431   3.932   2.431  10.239
69178SOL    HW2 9432   3.884   2.331  10.342
69179SOL     OW 9433  11.935   7.195   4.731
69179SOL    HW1 9434  11.985   7.276   4.735
69179SOL    HW2 9435  11.933   7.173   4.638
69180SOL     OW 9436  14.315   4.058   2.188
69180SOL    HW1 9437  14.231   4.012   2.177
69180SOL    HW2 9438  14.291   4.146   2.215
69181SOL     OW 9439   4.466   5.671   2.251
69181SOL    HW1 9440   4.498   5.695   2.164
69181SOL    HW2 9441   4.542   5.680   2.308
69182SOL     OW 9442   8.421   4.097  12.389
69182SOL    HW1 9443   8.439   4.178  12.438
69182SOL    HW2 9444   8.482   4.100  12.316
69183SOL     OW 9445   5.589  13.921  11.416
69183SOL    HW1 9446   5.623  13.930  11.327
69183SOL    HW2 9447   5.666  13.935  11.472
69184SOL     OW 9448   7.171   9.548   6.503
69184SOL    HW1 9449   7.111   9.492   6.454
69184SOL    HW2 9450   7.159   9.635   6.465
69185SOL     OW 9451  11.365   5.920  10.196
69185SOL    HW1 9452  11.349   5.825  10.190
69185SOL    HW2 9453  11.412   5.941  10.115
69186SOL     OW 9454   9.686   9.134   1.362
69186SOL    HW1 9455   9.685   9.055   1.414
69186SOL    HW2 9456   9.662   9.204   1.423
69187SOL     OW 9457  14.606   6.070  11.086
69187SOL    HW1 9458  14.531   6.128  11.092
69187SOL    HW2 9459  14.572   5.990  11.045
69188SOL     OW 9460   2.643  11.725  10.837
69188SOL    HW1 9461   2.633  11.735  10.742
69188SOL    HW2 9462   2.569  11.670  10.863
69189SOL     OW 9463   6.755  12.490   3.657
69189SOL    HW1 9464   6.726  12.577   3.630
69189SOL    HW2 9465   6.813  12.461   3.586
69190SOL     OW 9466  13.252  14.207   8.387
69190SOL    HW1 9467  13.243  14.300   8.408
69190SOL    HW2 9468  13.217  14.199   8.298
69191SOL     OW 9469  10.918   1.002   5.935
69191SOL    HW1 9470  10.996   1.056   5.926
69191SOL    HW2 9471  10.951   0.913   5.948
69192SOL     OW 9472  11.364  14.014   5.487
69192SOL    HW1 9473  11.406  14.018   5.402
69192SOL    HW2 9474  11.276  14.048   5.472
69193SOL     OW 9475  10.798   4.608   6.189
69193SOL    HW1 9476  10.734   4.679   6.192
69193SOL    HW2 9477  10.757   4.541   6.134
69194SOL     OW 9478   0.736   5.762   1.542
69194SOL    HW1 9479   0.673   5.769   1.471
69194SOL    HW2 9480   0.796   5.693   1.515
69195SOL     OW 9481  13.315  12.147   0.752
69195SOL    HW1 9482  13.279  12.112   0.671
69195SOL    HW2 9483  13.242  12.191   0.795
69196SOL     OW 9484   0.840   6.963  14.869
69196SOL    HW1 9485   0.827   6.871   0.022
69196SOL    HW2 9486   0.755   6.991  14.835
69197SOL     OW 9487   9.153   8.318   5.450
69197SOL    HW1 9488   9.221   8.255   5.430
69197SOL    HW2 9489   9.199   8.393   5.489
69198SOL     OW 9490   1.603   1.018   9.952
69198SOL    HW1 9491   1.511   1.042   9.945
69198SOL    HW2 9492   1.603   0.937  10.003
69199SOL     OW 9493   3.942   7.170   2.201
69199SOL    HW1 9494   3.910   7.087   2.236
69199SOL    HW2 9495   4.019   7.146   2.150
69200SOL     OW 9496   8.190  10.881  14.443
69200SOL    HW1 9497   8.280  10.860  14.419
69200SOL    HW2 9498   8.191  10.892  14.538
69201SOL     OW 9499   3.607  14.277   8.515
69201SOL    HW1 9500   3.601  14.201   8.456
69201SOL    HW2 9501   3.600  14.240   8.603
69202SOL     OW 9502  13.472  10.710   5.998
69202SOL    HW1 9503  13.563  10.714   6.027
69202SOL    HW2 9504  13.440  10.626   6.030
69203SOL     OW 9505   6.439   1.338   9.018
69203SOL    HW1 9506   6.496   1.360   8.945
69203SOL    HW2 9507   6.481   1.263   9.061
69204SOL     OW 9508   4.010  12.531   2.304
69204SOL    HW1 9509   3.990  12.451   2.255
69204SOL    HW2 9510   3.946  12.595   2.274
69205SOL     OW 9511   1.883   5.043   0.935
69205SOL    HW1 9512   1.825   4.987   0.986
69205SOL    HW2 9513   1.848   5.039   0.846
69206SOL     OW 9514   9.245   0.988   0.713
69206SOL    HW1 9515   9.301   1.050   0.666
69206SOL    HW2 9516   9.164   0.987   0.662
69207SOL     OW 9517  10.187   0.286  14.498
69207SOL    HW1 9518  10.106   0.269  14.450
69207SOL    HW2 9519  10.160   0.335  14.575
69208SOL     OW 9520   2.375   2.187   5.041
69208SOL    HW1 9521   2.357   2.237   5.120
69208SOL    HW2 9522   2.372   2.096   5.069
69209SOL     OW 9523   2.973   9.055  12.451
69209SOL    HW1 9524   2.958   9.147  12.476
69209SOL    HW2 9525   3.016   9.060  12.366
69210SOL     OW 9526   1.779   4.710  14.763
69210SOL    HW1 9527   1.793   4.694  14.856
69210SOL    HW2 9528   1.819   4.796  14.748
69211SOL     OW 9529   6.396   5.638   1.657
69211SOL    HW1 9530   6.332   5.656   1.726
69211SOL    HW2 9531   6.351   5.580   1.596
69212SOL     OW 9532   7.919  13.208   6.841
69212SOL    HW1 9533   7.984  13.206   6.771
69212SOL    HW2 9534   7.854  13.143   6.815
69213SOL     OW 9535  10.398   3.988   7.666
69213SOL    HW1 9536  10.313   4.028   7.680
69213SOL    HW2 9537  10.429   4.026   7.583
69214SOL     OW 9538  10.829  14.093  13.145
69214SOL    HW1 9539  10.760  14.156  13.168
69214SOL    HW2 9540  10.785  14.028  13.091
69215SOL     OW 9541   8.350   7.295   4.576
69215SOL    HW1 9542   8.383   7.207   4.557
69215SOL    HW2 9543   8.362   7.343   4.494
69216SOL     OW 9544   6.084   0.867   0.091
69216SOL    HW1 9545   6.082   0.894  14.868
69216SOL    HW2 9546   6.167   0.901   0.124
69217SOL     OW 9547  13.604   6.759   3.751
69217SOL    HW1 9548  13.570   6.720   3.671
69217SOL    HW2 9549  13.691   6.721   3.762
69218SOL     OW 9550   9.832   8.111   9.078
69218SOL    HW1 9551   9.737   8.102   9.083
69218SOL    HW2 9552   9.849   8.205   9.092
69219SOL     OW 9553   1.328  12.140   7.368
69219SOL    HW1 9554   1.421  12.162   7.360
69219SOL    HW2 9555   1.283  12.221   7.347
69220SOL     OW 9556  12.034   7.040  13.714
69220SOL    HW1 9557  12.043   7.133  13.694
69220SOL    HW2 9558  11.973   7.037  13.788
69221SOL     OW 9559   2.821  10.447  12.120
69221SOL    HW1 9560   2.763  10.518  12.148
69221SOL    HW2 9561   2.908  10.488  12.114
69222SOL     OW 9562  12.676  10.774   7.736
69222SOL    HW1 9563  12.738  10.803   7.803
69222SOL    HW2 9564  12.630  10.853   7.709
69223SOL     OW 9565   9.284  10.759   0.494
69223SOL    HW1 9566   9.217  10.690   0.496
69223SOL    HW2 9567   9.238  10.835   0.459
69224SOL     OW 9568   6.594  13.197   4.197
69224SOL    HW1 9569   6.549  13.271   4.237
69224SOL    HW2 9570   6.649  13.235   4.129
69225SOL     OW 9571   1.856  14.037  13.588
69225SOL    HW1 9572   1.935  14.091  13.588
69225SOL    HW2 9573   1.785  14.098  13.606
69226SOL     OW 9574   0.113   8.027   4.990
69226SOL    HW1 9575   0.191   7.973   5.005
69226SOL    HW2 9576   0.146   8.102   4.941
69227SOL     OW 9577  11.983   4.769  11.025
69227SOL    HW1 9578  11.890   4.749  11.039
69227SOL    HW2 9579  11.994   4.765  10.930
69228SOL     OW 9580   0.550   0.324   0.676
69228SOL    HW1 9581   0.549   0.266   0.600
69228SOL    HW2 9582   0.607   0.396   0.650
69229SOL     OW 9583  11.752   1.045   1.322
69229SOL    HW1 9584  11.780   1.115   1.263
69229SOL    HW2 9585  11.703   0.984   1.266
69230SOL     OW 9586  10.268  12.808  10.581
69230SOL    HW1 9587  10.212  12.878  10.548
69230SOL    HW2 9588  10.307  12.845  10.661
69231SOL     OW 9589   1.958   6.684   3.819
69231SOL    HW1 9590   2.006   6.746   3.764
69231SOL    HW2 9591   1.976   6.598   3.780
69232SOL     OW 9592  10.657   3.999   0.843
69232SOL    HW1 9593  10.617   4.086   0.850
69232SOL    HW2 9594  10.643   3.974   0.751
69233SOL     OW 9595   5.727   1.982   7.748
69233SOL    HW1 9596   5.707   2.074   7.732
69233SOL    HW2 9597   5.752   1.978   7.840
69234SOL     OW 9598   3.402   7.822   7.495
69234SOL    HW1 9599   3.395   7.775   7.412
69234SOL    HW2 9600   3.325   7.879   7.496
69235SOL     OW 9601   1.949  12.937   7.176
69235SOL    HW1 9602   1.979  12.913   7.088
69235SOL    HW2 9603   1.855  12.952   7.165
69236SOL     OW 9604  12.037   1.522  11.198
69236SOL    HW1 9605  11.968   1.496  11.260
69236SOL    HW2 9606  12.079   1.597  11.240
69237SOL     OW 9607   0.002  13.003  13.606
69237SOL    HW1 9608  14.849  13.053  13.685
69237SOL    HW2 9609  14.795  12.947  13.591
69238SOL     OW 9610   8.317   4.035   6.213
69238SOL    HW1 9611   8.282   4.015   6.299
69238SOL    HW2 9612   8.369   4.115   6.226
69239SOL     OW 9613   5.600   2.321  13.808
69239SOL    HW1 9614   5.525   2.358  13.854
69239SOL    HW2 9615   5.618   2.382  13.737
69240SOL     OW 9616  13.805   6.823   1.853
69240SOL    HW1 9617  13.846   6.767   1.788
69240SOL    HW2 9618  13.747   6.881   1.802
69241SOL     OW 9619   5.062   9.132   4.775
69241SOL    HW1 9620   5.124   9.094   4.712
69241SOL    HW2 9621   4.997   9.175   4.720
69242SOL     OW 9622   4.855   4.409  11.654
69242SOL    HW1 9623   4.787   4.414  11.587
69242SOL    HW2 9624   4.866   4.500  11.684
69243SOL     OW 9625  12.679   6.560  11.310
69243SOL    HW1 9626  12.693   6.652  11.289
69243SOL    HW2 9627  12.660   6.559  11.404
69244SOL     OW 9628   9.221   2.091  12.470
69244SOL    HW1 9629   9.167   2.168  12.453
69244SOL    HW2 9630   9.245   2.099  12.562
69245SOL     OW 9631   3.594   5.898   4.402
69245SOL    HW1 9632   3.642   5.820   4.428
69245SOL    HW2 9633   3.562   5.879   4.314
69246SOL     OW 9634   2.701   0.984  10.522
69246SOL    HW1 9635   2.668   0.987  10.432
69246SOL    HW2 9636   2.627   1.014  10.575
69247SOL     OW 9637   9.860   6.415   5.443
69247SOL    HW1 9638   9.949   6.390   5.418
69247SOL    HW2 9639   9.804   6.374   5.377
69248SOL     OW 9640   3.611   3.290   3.073
69248SOL    HW1 9641   3.521   3.322   3.061
69248SOL    HW2 9642   3.666   3.357   3.033
69249SOL     OW 9643  14.378   7.167   8.981
69249SOL    HW1 9644  14.324   7.221   9.040
69249SOL    HW2 9645  14.324   7.156   8.903
69250SOL     OW 9646   2.134   7.860   5.585
69250SOL    HW1 9647   2.151   7.932   5.525
69250SOL    HW2 9648   2.219   7.818   5.598
69251SOL     OW 9649   9.280  10.687   3.248
69251SOL    HW1 9650   9.304  10.673   3.156
69251SOL    HW2 9651   9.316  10.611   3.294
69252SOL     OW 9652   9.670  14.765   5.042
69252SOL    HW1 9653   9.713  14.683   5.065
69252SOL    HW2 9654   9.577  14.743   5.033
69253SOL     OW 9655   9.069   4.368  14.115
69253SOL    HW1 9656   8.977   4.393  14.121
69253SOL    HW2 9657   9.068   4.278  14.084
69254SOL     OW 9658  10.272   7.439  10.600
69254SOL    HW1 9659  10.349   7.389  10.571
69254SOL    HW2 9660  10.200   7.404  10.548
69255SOL     OW 9661   2.688   1.173  13.821
69255SOL    HW1 9662   2.742   1.125  13.884
69255SOL    HW2 9663   2.619   1.213  13.874
69256SOL     OW 9664   9.566  13.877   9.373
69256SOL    HW1 9665   9.599  13.815   9.438
69256SOL    HW2 9666   9.645  13.919   9.338
69257SOL     OW 9667  14.749  11.517  14.189
69257SOL    HW1 9668  14.770  11.472  14.107
69257SOL    HW2 9669  14.695  11.455  14.237
69258SOL     OW 9670   2.404   1.492   9.590
69258SOL    HW1 9671   2.452   1.568   9.622
69258SOL    HW2 9672   2.452   1.417   9.624
69259SOL     OW 9673   7.994   4.260  14.675
69259SOL    HW1 9674   7.975   4.225  14.588
69259SOL    HW2 9675   8.085   4.288  14.670
69260SOL     OW 9676   0.852   1.554  14.723
69260SOL    HW1 9677   0.799   1.597  14.657
69260SOL    HW2 9678   0.793   1.540  14.797
69261SOL     OW 9679   9.322   9.951  13.334
69261SOL    HW1 9680   9.395   9.992  13.288
69261SOL    HW2 9681   9.319   9.997  13.418
69262SOL     OW 9682   2.986   7.482  13.383
69262SOL    HW1 9683   2.969   7.559  13.438
69262SOL    HW2 9684   3.076   7.457  13.405
69263SOL     OW 9685   4.801  12.408  12.597
69263SOL    HW1 9686   4.844  12.491  12.618
69263SOL    HW2 9687   4.753  12.426  12.516
69264SOL     OW 9688  10.548  11.124  14.861
69264SOL    HW1 9689  10.552  11.188  14.789
69264SOL    HW2 9690  10.455  11.111   0.007
69265SOL     OW 9691   0.543  14.781   1.005
69265SOL    HW1 9692   0.574  14.807   0.919
69265SOL    HW2 9693   0.451  14.759   0.992
69266SOL     OW 9694   9.229   7.570  14.221
69266SOL    HW1 9695   9.214   7.647  14.276
69266SOL    HW2 9696   9.183   7.589  14.140
69267SOL     OW 9697   1.725   1.666   7.466
69267SOL    HW1 9698   1.785   1.681   7.393
69267SOL    HW2 9699   1.678   1.585   7.443
69268SOL     OW 9700  11.326   6.156  11.390
69268SOL    HW1 9701  11.327   6.250  11.374
69268SOL    HW2 9702  11.261   6.145  11.460
69269SOL     OW 9703  14.359  10.128   4.192
69269SOL    HW1 9704  14.430  10.179   4.230
69269SOL    HW2 9705  14.397  10.042   4.175
69270SOL     OW 9706  13.634   1.960   3.918
69270SOL    HW1 9707  13.675   1.960   3.832
69270SOL    HW2 9708  13.614   1.867   3.935
69271SOL     OW 9709   5.000   8.565   6.286
69271SOL    HW1 9710   5.064   8.636   6.280
69271SOL    HW2 9711   4.945   8.589   6.361
69272SOL     OW 9712   8.482   2.821   9.405
69272SOL    HW1 9713   8.422   2.808   9.478
69272SOL    HW2 9714   8.475   2.915   9.386
69273SOL     OW 9715   6.170   1.857  13.892
69273SOL    HW1 9716   6.138   1.947  13.900
69273SOL    HW2 9717   6.259   1.860  13.928
69274SOL     OW 9718   3.897  11.472   8.615
69274SOL    HW1 9719   3.982  11.454   8.654
69274SOL    HW2 9720   3.851  11.388   8.619
69275SOL     OW 9721  12.793   7.020  10.370
69275SOL    HW1 9722  12.768   7.100  10.417
69275SOL    HW2 9723  12.785   6.951  10.436
69276SOL     OW 9724   1.381   7.584   1.863
69276SOL    HW1 9725   1.377   7.501   1.910
69276SOL    HW2 9726   1.423   7.644   1.924
69277SOL     OW 9727  13.537   7.424   7.563
69277SOL    HW1 9728  13.632   7.433   7.567
69277SOL    HW2 9729  13.513   7.374   7.641
69278SOL     OW 9730  14.094   6.979   4.420
69278SOL    HW1 9731  14.159   7.049   4.431
69278SOL    HW2 9732  14.023   7.003   4.480
69279SOL     OW 9733  10.282   0.599   2.255
69279SOL    HW1 9734  10.366   0.584   2.212
69279SOL    HW2 9735  10.218   0.554   2.199
69280SOL     OW 9736   3.631   9.389   1.339
69280SOL    HW1 9737   3.669   9.307   1.308
69280SOL    HW2 9738   3.691   9.420   1.407
69281SOL     OW 9739   2.319   9.744  13.991
69281SOL    HW1 9740   2.277   9.660  14.010
69281SOL    HW2 9741   2.412   9.727  14.002
69282SOL     OW 9742   0.867   5.145  13.532
69282SOL    HW1 9743   0.875   5.077  13.466
69282SOL    HW2 9744   0.781   5.130  13.572
69283SOL     OW 9745   1.757   8.937   2.446
69283SOL    HW1 9746   1.852   8.941   2.430
69283SOL    HW2 9747   1.747   8.871   2.514
69284SOL     OW 9748  11.086   0.956   5.083
69284SOL    HW1 9749  11.079   0.997   5.169
69284SOL    HW2 9750  11.028   1.008   5.027
69285SOL     OW 9751   4.683  14.624  13.820
69285SOL    HW1 9752   4.592  14.626  13.851
69285SOL    HW2 9753   4.733  14.668  13.889
69286SOL     OW 9754  10.946  10.382   8.878
69286SOL    HW1 9755  10.868  10.326   8.884
69286SOL    HW2 9756  11.018  10.320   8.863
69287SOL     OW 9757   6.275   7.270  10.353
69287SOL    HW1 9758   6.270   7.234  10.265
69287SOL    HW2 9759   6.369   7.274  10.372
69288SOL     OW 9760   4.809  13.929   3.716
69288SOL    HW1 9761   4.773  13.847   3.684
69288SOL    HW2 9762   4.743  13.963   3.776
69289SOL     OW 9763  10.444   9.107  14.012
69289SOL    HW1 9764  10.423   9.139  14.100
69289SOL    HW2 9765  10.486   9.022  14.027
69290SOL     OW 9766   1.712  11.290   2.374
69290SOL    HW1 9767   1.700  11.384   2.383
69290SOL    HW2 9768   1.805  11.279   2.355
69291SOL     OW 9769   9.990   2.075  10.250
69291SOL    HW1 9770   9.955   2.116  10.330
69291SOL    HW2 9771  10.078   2.111  10.242
69292SOL     OW 9772  12.308   8.416   1.412
69292SOL    HW1 9773  12.397   8.404   1.446
69292SOL    HW2 9774  12.309   8.375   1.326
69293SOL     OW 9775  12.517   1.943   2.260
69293SOL    HW1 9776  12.568   1.877   2.306
69293SOL    HW2 9777  12.482   1.897   2.184
69294SOL     OW 9778   5.480   0.601  14.411
69294SOL    HW1 9779   5.478   0.597  14.316
69294SOL    HW2 9780   5.440   0.685  14.433
69295SOL     OW 9781   4.919   7.690   3.319
69295SOL    HW1 9782   4.962   7.773   3.338
69295SOL    HW2 9783   4.981   7.623   3.348
69296SOL     OW 9784  11.616   3.224   0.658
69296SOL    HW1 9785  11.651   3.306   0.623
69296SOL    HW2 9786  11.540   3.252   0.710
69297SOL     OW 9787   4.149  10.108   2.181
69297SOL    HW1 9788   4.074  10.117   2.123
69297SOL    HW2 9789   4.156  10.014   2.197
69298SOL     OW 9790   3.066   7.018   0.948
69298SOL    HW1 9791   3.154   7.013   0.985
69298SOL    HW2 9792   3.012   6.961   1.004
69299SOL     OW 9793   4.625   4.392   5.375
69299SOL    HW1 9794   4.548   4.429   5.331
69299SOL    HW2 9795   4.693   4.458   5.364
69300SOL     OW 9796   4.847   1.751   0.948
69300SOL    HW1 9797   4.754   1.751   0.973
69300SOL    HW2 9798   4.877   1.663   0.969
69301SOL     OW 9799   1.578   7.229  10.013
69301SOL    HW1 9800   1.536   7.273  10.087
69301SOL    HW2 9801   1.662   7.275  10.003
69302SOL     OW 9802   7.485   0.677  11.796
69302SOL    HW1 9803   7.402   0.633  11.778
69302SOL    HW2 9804   7.519   0.699  11.709
69303SOL     OW 9805  14.361   2.429   8.496
69303SOL    HW1 9806  14.375   2.524   8.487
69303SOL    HW2 9807  14.276   2.421   8.540
69304SOL     OW 9808   3.266   0.984  10.188
69304SOL    HW1 9809   3.233   1.069  10.161
69304SOL    HW2 9810   3.332   1.003  10.254
69305SOL     OW 9811   0.830   4.805   5.832
69305SOL    HW1 9812   0.793   4.822   5.745
69305SOL    HW2 9813   0.812   4.713   5.849
69306SOL     OW 9814  12.715  13.933  13.193
69306SOL    HW1 9815  12.782  13.885  13.242
69306SOL    HW2 9816  12.655  13.967  13.259
69307SOL     OW 9817  12.368   7.809  10.350
69307SOL    HW1 9818  12.439   7.872  10.338
69307SOL    HW2 9819  12.411   7.732  10.387
69308SOL     OW 9820  10.372   3.295  11.390
69308SOL    HW1 9821  10.441   3.307  11.325
69308SOL    HW2 9822  10.416   3.258  11.466
69309SOL     OW 9823  13.997  13.016  13.814
69309SOL    HW1 9824  14.080  13.045  13.776
69309SOL    HW2 9825  14.023  12.969  13.894
69310SOL     OW 9826   2.430  14.231  13.156
69310SOL    HW1 9827   2.482  14.152  13.167
69310SOL    HW2 9828   2.491  14.303  13.170
69311SOL     OW 9829   6.050   0.047   2.551
69311SOL    HW1 9830   5.989   0.075   2.482
69311SOL    HW2 9831   6.114   0.118   2.556
69312SOL     OW 9832   4.391   4.617  10.156
69312SOL    HW1 9833   4.467   4.570  10.122
69312SOL    HW2 9834   4.403   4.707  10.126
69313SOL     OW 9835   3.005  10.795   2.814
69313SOL    HW1 9836   3.036  10.759   2.897
69313SOL    HW2 9837   3.017  10.890   2.823
69314SOL     OW 9838   8.866   2.870   0.901
69314SOL    HW1 9839   8.958   2.889   0.921
69314SOL    HW2 9840   8.816   2.930   0.957
69315SOL     OW 9841  14.157   3.795   3.550
69315SOL    HW1 9842  14.081   3.752   3.589
69315SOL    HW2 9843  14.123   3.841   3.473
69316SOL     OW 9844  14.370   3.783   9.745
69316SOL    HW1 9845  14.274   3.787   9.740
69316SOL    HW2 9846  14.390   3.828   9.828
69317SOL     OW 9847   9.360   6.030  12.015
69317SOL    HW1 9848   9.322   5.942  12.021
69317SOL    HW2 9849   9.441   6.018  11.966
69318SOL     OW 9850   1.976   7.918  12.184
69318SOL    HW1 9851   1.895   7.896  12.138
69318SOL    HW2 9852   1.963   8.007  12.216
69319SOL     OW 9853   5.889   8.650   8.930
69319SOL    HW1 9854   5.805   8.658   8.886
69319SOL    HW2 9855   5.900   8.733   8.977
69320SOL     OW 9856  10.603   2.727  13.461
69320SOL    HW1 9857  10.508   2.731  13.467
69320SOL    HW2 9858  10.633   2.798  13.519
69321SOL     OW 9859  11.298   3.500   0.435
69321SOL    HW1 9860  11.334   3.420   0.473
69321SOL    HW2 9861  11.375   3.558   0.425
69322SOL     OW 9862   6.485   6.951   8.421
69322SOL    HW1 9863   6.501   6.891   8.493
69322SOL    HW2 9864   6.569   6.957   8.376
69323SOL     OW 9865   8.599   8.658  13.146
69323SOL    HW1 9866   8.647   8.741  13.154
69323SOL    HW2 9867   8.545   8.654  13.226
69324SOL     OW 9868   2.692  14.510   0.806
69324SOL    HW1 9869   2.650  14.431   0.772
69324SOL    HW2 9870   2.646  14.528   0.888
69325SOL     OW 9871   9.085   0.163  13.363
69325SOL    HW1 9872   9.140   0.103  13.313
69325SOL    HW2 9873   8.995   0.135  13.344
69326SOL     OW 9874  14.855  14.061  14.839
69326SOL    HW1 9875   0.049  14.038  14.771
69326SOL    HW2 9876  14.771  14.057  14.795
69327SOL     OW 9877  14.786  14.223   6.298
69327SOL    HW1 9878  14.835  14.270   6.230
69327SOL    HW2 9879  14.843  14.226   6.374
69328SOL     OW 9880   0.472   8.145   8.231
69328SOL    HW1 9881   0.495   8.227   8.275
69328SOL    HW2 9882   0.542   8.133   8.167
69329SOL     OW 9883   0.235   7.620   7.995
69329SOL    HW1 9884   0.187   7.537   7.992
69329SOL    HW2 9885   0.206   7.663   8.075
69330SOL     OW 9886   8.046   2.948  10.428
69330SOL    HW1 9887   8.083   2.994  10.353
69330SOL    HW2 9888   7.987   2.883  10.390
69331SOL     OW 9889   9.312   4.497   9.315
69331SOL    HW1 9890   9.302   4.586   9.348
69331SOL    HW2 9891   9.316   4.443   9.393
69332SOL     OW 9892   2.287   5.459  11.344
69332SOL    HW1 9893   2.263   5.400  11.272
69332SOL    HW2 9894   2.287   5.546  11.305
69333SOL     OW 9895  14.448   5.739  11.176
69333SOL    HW1 9896  14.453   5.643  11.182
69333SOL    HW2 9897  14.410   5.755  11.090
69334SOL     OW 9898   3.216  13.569  14.818
69334SOL    HW1 9899   3.136  13.545  14.865
69334SOL    HW2 9900   3.270  13.614   0.014
69335SOL     OW 9901  13.077   6.177   3.323
69335SOL    HW1 9902  13.066   6.246   3.388
69335SOL    HW2 9903  13.163   6.195   3.284
69336SOL     OW 9904   0.953   4.995   7.410
69336SOL    HW1 9905   0.995   5.004   7.325
69336SOL    HW2 9906   0.927   4.904   7.415
69337SOL     OW 9907   3.112   9.753   0.115
69337SOL    HW1 9908   3.027   9.798   0.108
69337SOL    HW2 9909   3.128   9.746   0.209
69338SOL     OW 9910   2.362   3.880   7.626
69338SOL    HW1 9911   2.430   3.928   7.674
69338SOL    HW2 9912   2.299   3.853   7.694
69339SOL     OW 9913   8.061   1.066   3.930
69339SOL    HW1 9914   7.966   1.067   3.920
69339SOL    HW2 9915   8.090   1.151   3.897
69340SOL     OW 9916   3.021  10.289   9.382
69340SOL    HW1 9917   3.104  10.329   9.355
69340SOL    HW2 9918   3.031  10.276   9.477
69341SOL     OW 9919   2.569   8.367  12.700
69341SOL    HW1 9920   2.628   8.340  12.630
69341SOL    HW2 9921   2.502   8.419  12.655
69342SOL     OW 9922   1.601   9.038  14.647
69342SOL    HW1 9923   1.614   9.026  14.553
69342SOL    HW2 9924   1.513   9.004  14.664
69343SOL     OW 9925  12.393   3.709   7.311
69343SOL    HW1 9926  12.394   3.793   7.266
69343SOL    HW2 9927  12.476   3.668   7.287
69344SOL     OW 9928   1.468  10.423   9.336
69344SOL    HW1 9929   1.437  10.491   9.276
69344SOL    HW2 9930   1.428  10.342   9.303
69345SOL     OW 9931   0.341   7.847   1.865
69345SOL    HW1 9932   0.364   7.932   1.903
69345SOL    HW2 9933   0.254   7.828   1.901
69346SOL     OW 9934   8.149  13.552  13.174
69346SOL    HW1 9935   8.141  13.580  13.265
69346SOL    HW2 9936   8.063  13.514  13.153
69347SOL     OW 9937  13.517   9.965   2.917
69347SOL    HW1 9938  13.478   9.919   2.991
69347SOL    HW2 9939  13.484  10.054   2.923
69348SOL     OW 9940   5.443  13.621  13.753
69348SOL    HW1 9941   5.352  13.620  13.782
69348SOL    HW2 9942   5.452  13.541  13.701
69349SOL     OW 9943  14.373  14.198  14.687
69349SOL    HW1 9944  14.461  14.196  14.649
69349SOL    HW2 9945  14.325  14.260  14.633
69350SOL     OW 9946   2.664   1.867  11.470
69350SOL    HW1 9947   2.745   1.850  11.519
69350SOL    HW2 9948   2.682   1.830  11.383
69351SOL     OW 9949   5.199  13.249   8.441
69351SOL    HW1 9950   5.181  13.323   8.498
69351SOL    HW2 9951   5.271  13.279   8.385
69352SOL     OW 9952   4.557  10.405   0.337
69352SOL    HW1 9953   4.623  10.466   0.370
69352SOL    HW2 9954   4.607  10.340   0.288
69353SOL     OW 9955   9.442   8.783  11.599
69353SOL    HW1 9956   9.479   8.870  11.585
69353SOL    HW2 9957   9.384   8.793  11.675
69354SOL     OW 9958   9.546   0.308   3.924
69354SOL    HW1 9959   9.470   0.365   3.916
69354SOL    HW2 9960   9.621   0.366   3.906
69355SOL     OW 9961  12.845   7.798   1.654
69355SOL    HW1 9962  12.906   7.765   1.720
69355SOL    HW2 9963  12.764   7.814   1.702
69356SOL     OW 9964   4.633   2.573  12.266
69356SOL    HW1 9965   4.709   2.616  12.227
69356SOL    HW2 9966   4.663   2.545  12.353
69357SOL     OW 9967   1.309   9.928  11.579
69357SOL    HW1 9968   1.400   9.956  11.573
69357SOL    HW2 9969   1.288   9.930  11.672
69358SOL     OW 9970  10.845   2.816   7.128
69358SOL    HW1 9971  10.831   2.910   7.135
69358SOL    HW2 9972  10.759   2.777   7.149
69359SOL     OW 9973   7.675  14.787   3.158
69359SOL    HW1 9974   7.769  14.805   3.154
69359SOL    HW2 9975   7.666  14.697   3.124
69360SOL     OW 9976  10.076   0.424   0.633
69360SOL    HW1 9977   9.993   0.436   0.678
69360SOL    HW2 9978  10.142   0.429   0.702
69361SOL     OW 9979   2.361   9.792   1.407
69361SOL    HW1 9980   2.384   9.765   1.495
69361SOL    HW2 9981   2.291   9.732   1.380
69362SOL     OW 9982   3.757   0.117   5.591
69362SOL    HW1 9983   3.700   0.193   5.603
69362SOL    HW2 9984   3.758   0.102   5.497
69363SOL     OW 9985   1.939   2.674   7.433
69363SOL    HW1 9986   2.022   2.672   7.385
69363SOL    HW2 9987   1.882   2.730   7.381
69364SOL     OW 9988  13.968   9.693  13.060
69364SOL    HW1 9989  13.905   9.660  13.123
69364SOL    HW2 9990  13.945   9.649  12.978
69365SOL     OW 9991   6.799   0.228  10.294
69365SOL    HW1 9992   6.758   0.180  10.366
69365SOL    HW2 9993   6.843   0.160  10.243
69366SOL     OW 9994   2.323   8.987   9.780
69366SOL    HW1 9995   2.276   8.908   9.810
69366SOL    HW2 9996   2.415   8.960   9.778
69367SOL     OW 9997  12.319  11.947  10.424
69367SOL    HW1 9998  12.353  11.892  10.354
69367SOL    HW2 9999  12.256  11.892  10.471
69368SOL     OW10000   9.914  14.849  13.896
69368SOL    HW110001   9.845   0.046  13.892
69368SOL    HW210002   9.907  14.802  13.813
69369SOL     OW10003   7.606   7.743   8.205
69369SOL    HW110004   7.629   7.651   8.191
69369SOL    HW210005   7.572   7.747   8.294
69370SOL     OW10006   1.951   3.446   8.498
69370SOL    HW110007   1.859   3.442   8.525
69370SOL    HW210008   1.952   3.512   8.429
69371SOL     OW10009  11.553  11.236  13.086
69371SOL    HW110010  11.644  11.265  13.085
69371SOL    HW210011  11.528  11.237  13.178
69372SOL     OW10012   4.884   6.554   8.903
69372SOL    HW110013   4.848   6.557   8.815
69372SOL    HW210014   4.813   6.520   8.957
69373SOL     OW10015   8.948   5.986  11.180
69373SOL    HW110016   9.043   5.981  11.185
69373SOL    HW210017   8.919   5.896  11.188
69374SOL     OW10018   4.636   1.919  12.167
69374SOL    HW110019   4.639   2.001  12.117
69374SOL    HW210020   4.728   1.894  12.177
69375SOL     OW10021   7.684  11.307   5.452
69375SOL    HW110022   7.728  11.223   5.457
69375SOL    HW210023   7.628  11.300   5.374
69376SOL     OW10024   1.949  13.635   8.162
69376SOL    HW110025   1.895  13.576   8.214
69376SOL    HW210026   1.888  13.701   8.129
69377SOL     OW10027   8.657  10.527  13.863
69377SOL    HW110028   8.686  10.605  13.909
69377SOL    HW210029   8.631  10.558  13.776
69378SOL     OW10030   1.713  14.253  12.218
69378SOL    HW110031   1.654  14.321  12.248
69378SOL    HW210032   1.660  14.173  12.221
69379SOL     OW10033   1.018   3.779  10.590
69379SOL    HW110034   0.997   3.763  10.498
69379SOL    HW210035   0.967   3.714  10.638
69380SOL     OW10036  10.184   9.216   4.044
69380SOL    HW110037  10.121   9.216   4.116
69380SOL    HW210038  10.168   9.133   3.998
69381SOL     OW10039   6.267  12.359   9.078
69381SOL    HW110040   6.344  12.315   9.042
69381SOL    HW210041   6.284  12.452   9.065
69382SOL     OW10042   4.909  13.938  12.323
69382SOL    HW110043   4.981  13.958  12.264
69382SOL    HW210044   4.917  14.001  12.394
69383SOL     OW10045   1.904   1.497   3.123
69383SOL    HW110046   1.954   1.505   3.205
69383SOL    HW210047   1.884   1.404   3.116
69384SOL     OW10048   3.887   3.999   7.036
69384SOL    HW110049   3.846   3.957   6.961
69384SOL    HW210050   3.975   3.961   7.040
69385SOL     OW10051   1.948   2.370   3.477
69385SOL    HW110052   1.955   2.459   3.444
69385SOL    HW210053   1.961   2.379   3.572
69386SOL     OW10054   0.974   3.794   3.839
69386SOL    HW110055   0.985   3.701   3.816
69386SOL    HW210056   1.052   3.837   3.803
69387SOL     OW10057  12.537   6.463  11.766
69387SOL    HW110058  12.607   6.418  11.814
69387SOL    HW210059  12.462   6.459  11.825
69388SOL     OW10060  11.019   4.451   6.558
69388SOL    HW110061  11.062   4.385   6.614
69388SOL    HW210062  11.063   4.533   6.580
69389SOL     OW10063   8.448  10.571   5.061
69389SOL    HW110064   8.465  10.573   4.967
69389SOL    HW210065   8.461  10.480   5.086
69390SOL     OW10066  10.391   7.001   5.624
69390SOL    HW110067  10.353   7.002   5.536
69390SOL    HW210068  10.326   6.955   5.677
69391SOL     OW10069  11.626  13.643  13.233
69391SOL    HW110070  11.598  13.556  13.264
69391SOL    HW210071  11.546  13.685  13.204
69392SOL     OW10072  14.081  14.406  14.648
69392SOL    HW110073  14.145  14.411  14.719
69392SOL    HW210074  14.031  14.487  14.656
69393SOL     OW10075   5.487  13.631   8.926
69393SOL    HW110076   5.505  13.722   8.946
69393SOL    HW210077   5.435  13.633   8.845
69394SOL     OW10078   8.969  13.800   2.420
69394SOL    HW110079   8.874  13.795   2.420
69394SOL    HW210080   8.989  13.883   2.463
69395SOL     OW10081   6.690   6.661   2.319
69395SOL    HW110082   6.762   6.724   2.312
69395SOL    HW210083   6.640   6.690   2.395
69396SOL     OW10084   4.281   4.753   6.324
69396SOL    HW110085   4.239   4.738   6.408
69396SOL    HW210086   4.218   4.719   6.260
69397SOL     OW10087  13.749  11.026   2.611
69397SOL    HW110088  13.727  10.994   2.524
69397SOL    HW210089  13.803  11.103   2.596
69398SOL     OW10090  10.469   6.419   3.711
69398SOL    HW110091  10.378   6.433   3.685
69398SOL    HW210092  10.463   6.383   3.799
69399SOL     OW10093   5.757  12.226   8.675
69399SOL    HW110094   5.842  12.271   8.672
69399SOL    HW210095   5.749  12.186   8.588
69400SOL     OW10096   3.993   4.045   1.443
69400SOL    HW110097   4.081   4.068   1.472
69400SOL    HW210098   3.935   4.099   1.498
69401SOL     OW10099   3.632  14.162  14.500
69401SOL    HW110100   3.631  14.208  14.416
69401SOL    HW210101   3.614  14.229  14.565
69402SOL     OW10102   1.034   2.854   9.531
69402SOL    HW110103   1.044   2.945   9.504
69402SOL    HW210104   0.960   2.854   9.591
69403SOL     OW10105   9.276  13.655   9.948
69403SOL    HW110106   9.225  13.730   9.918
69403SOL    HW210107   9.360  13.692   9.976
69404SOL     OW10108   6.162   5.021   5.962
69404SOL    HW110109   6.217   5.094   5.993
69404SOL    HW210110   6.223   4.963   5.916
69405SOL     OW10111   1.386   2.899   9.817
69405SOL    HW110112   1.317   2.954   9.854
69405SOL    HW210113   1.339   2.826   9.777
69406SOL     OW10114   0.252   1.513   0.172
69406SOL    HW110115   0.180   1.539   0.114
69406SOL    HW210116   0.209   1.480   0.250
69407SOL     OW10117  11.605   6.280   8.919
69407SOL    HW110118  11.662   6.220   8.871
69407SOL    HW210119  11.532   6.298   8.859
69408SOL     OW10120  14.017   5.158   6.036
69408SOL    HW110121  13.991   5.230   6.094
69408SOL    HW210122  14.111   5.148   6.052
69409SOL     OW10123   2.796   7.720  10.050
69409SOL    HW110124   2.765   7.801  10.091
69409SOL    HW210125   2.888   7.714  10.076
69410SOL     OW10126  11.233   3.272   0.064
69410SOL    HW110127  11.201   3.187   0.096
69410SOL    HW210128  11.219   3.269  14.839
69411SOL     OW10129   2.152   1.935   4.167
69411SOL    HW110130   2.226   1.879   4.190
69411SOL    HW210131   2.082   1.874   4.142
69412SOL     OW10132   2.520   2.424   7.231
69412SOL    HW110133   2.530   2.399   7.139
69412SOL    HW210134   2.567   2.356   7.280
69413SOL     OW10135   1.236   8.575   2.937
69413SOL    HW110136   1.307   8.574   2.872
69413SOL    HW210137   1.166   8.524   2.896
69414SOL     OW10138   7.887  10.613  13.235
69414SOL    HW110139   7.791  10.613  13.241
69414SOL    HW210140   7.915  10.684  13.293
69415SOL     OW10141   7.608   0.014   6.065
69415SOL    HW110142   7.699   0.039   6.051
69415SOL    HW210143   7.574   0.079   6.126
69416SOL     OW10144   2.605  12.282   8.307
69416SOL    HW110145   2.638  12.268   8.396
69416SOL    HW210146   2.515  12.249   8.310
69417SOL     OW10147  11.142   1.728   6.373
69417SOL    HW110148  11.226   1.705   6.414
69417SOL    HW210149  11.085   1.752   6.446
69418SOL     OW10150   5.755   3.398  12.955
69418SOL    HW110151   5.685   3.349  12.913
69418SOL    HW210152   5.804   3.436  12.882
69419SOL     OW10153   8.320   8.827   7.678
69419SOL    HW110154   8.265   8.752   7.700
69419SOL    HW210155   8.357   8.806   7.593
69420SOL     OW10156  12.551   2.010   5.240
69420SOL    HW110157  12.498   2.090   5.238
69420SOL    HW210158  12.488   1.940   5.253
69421SOL     OW10159   5.015   9.514  13.356
69421SOL    HW110160   4.948   9.581  13.369
69421SOL    HW210161   4.973   9.447  13.302
69422SOL     OW10162   1.367  11.272   5.636
69422SOL    HW110163   1.277  11.260   5.606
69422SOL    HW210164   1.421  11.252   5.559
69423SOL     OW10165  11.843   3.440  12.961
69423SOL    HW110166  11.775   3.379  12.988
69423SOL    HW210167  11.915   3.385  12.930
69424SOL     OW10168  10.070  14.295  13.305
69424SOL    HW110169  10.037  14.218  13.352
69424SOL    HW210170  10.002  14.316  13.242
69425SOL     OW10171   3.737   1.543   9.689
69425SOL    HW110172   3.799   1.496   9.744
69425SOL    HW210173   3.729   1.489   9.610
69426SOL     OW10174  14.079   1.867   6.813
69426SOL    HW110175  14.010   1.887   6.876
69426SOL    HW210176  14.149   1.828   6.865
69427SOL     OW10177  11.045   5.924  11.265
69427SOL    HW110178  11.121   5.912  11.322
69427SOL    HW210179  11.068   5.876  11.185
69428SOL     OW10180   7.824  12.973   6.261
69428SOL    HW110181   7.828  12.877   6.258
69428SOL    HW210182   7.781  12.993   6.344
69429SOL     OW10183  12.917  14.002   3.578
69429SOL    HW110184  12.902  13.945   3.653
69429SOL    HW210185  12.945  14.085   3.617
69430SOL     OW10186  10.426  12.485   7.392
69430SOL    HW110187  10.363  12.552   7.416
69430SOL    HW210188  10.376  12.403   7.396
69431SOL     OW10189   6.193   1.948  11.445
69431SOL    HW110190   6.216   1.861  11.477
69431SOL    HW210191   6.244   1.957  11.364
69432SOL     OW10192  12.146   0.719   6.970
69432SOL    HW110193  12.100   0.798   6.941
69432SOL    HW210194  12.077   0.665   7.008
69433SOL     OW10195   2.969   9.191   3.424
69433SOL    HW110196   2.905   9.236   3.479
69433SOL    HW210197   2.977   9.104   3.463
69434SOL     OW10198   3.363   0.736  13.618
69434SOL    HW110199   3.412   0.815  13.643
69434SOL    HW210200   3.295   0.768  13.559
69435SOL     OW10201   7.847   4.418  10.251
69435SOL    HW110202   7.902   4.468  10.191
69435SOL    HW210203   7.861   4.327  10.228
69436SOL     OW10204   9.347   8.061   6.504
69436SOL    HW110205   9.293   8.078   6.581
69436SOL    HW210206   9.285   8.052   6.432
69437SOL     OW10207   5.234   3.968   7.909
69437SOL    HW110208   5.221   3.874   7.894
69437SOL    HW210209   5.328   3.981   7.900
69438SOL     OW10210   7.465   6.415   7.792
69438SOL    HW110211   7.503   6.452   7.712
69438SOL    HW210212   7.518   6.451   7.863
69439SOL     OW10213  11.400   8.319   0.093
69439SOL    HW110214  11.489   8.300   0.064
69439SOL    HW210215  11.395   8.415   0.096
69440SOL     OW10216   4.055   0.846   0.392
69440SOL    HW110217   4.112   0.912   0.351
69440SOL    HW210218   4.017   0.891   0.467
69441SOL     OW10219   7.616   3.389  11.525
69441SOL    HW110220   7.673   3.349  11.590
69441SOL    HW210221   7.606   3.480  11.555
69442SOL     OW10222   7.584   0.180   3.044
69442SOL    HW110223   7.570   0.210   3.134
69442SOL    HW210224   7.622   0.093   3.054
69443SOL     OW10225  10.278   0.982   5.128
69443SOL    HW110226  10.254   1.072   5.149
69443SOL    HW210227  10.218   0.929   5.180
69444SOL     OW10228   7.683  11.995  12.364
69444SOL    HW110229   7.689  12.072  12.421
69444SOL    HW210230   7.612  11.943  12.402
69445SOL     OW10231   1.066   3.028   8.415
69445SOL    HW110232   1.103   2.940   8.409
69445SOL    HW210233   1.140   3.083   8.440
69446SOL     OW10234   7.596  11.976   6.126
69446SOL    HW110235   7.526  11.951   6.187
69446SOL    HW210236   7.596  12.071   6.126
69447SOL     OW10237   8.713   6.475   5.248
69447SOL    HW110238   8.689   6.545   5.308
69447SOL    HW210239   8.629   6.438   5.220
69448SOL     OW10240  13.991  11.662   2.762
69448SOL    HW110241  13.969  11.747   2.723
69448SOL    HW210242  13.919  11.645   2.824
69449SOL     OW10243   4.626  14.831   4.522
69449SOL    HW110244   4.706   0.003   4.555
69449SOL    HW210245   4.577   0.033   4.482
69450SOL     OW10246   9.992   4.150   8.912
69450SOL    HW110247   9.936   4.214   8.869
69450SOL    HW210248   9.942   4.122   8.988
69451SOL     OW10249   9.655  14.426   2.878
69451SOL    HW110250   9.731  14.451   2.930
69451SOL    HW210251   9.594  14.387   2.941
69452SOL     OW10252  10.056  10.553   0.261
69452SOL    HW110253  10.134  10.601   0.233
69452SOL    HW210254  10.035  10.590   0.347
69453SOL     OW10255   9.340  11.349   1.238
69453SOL    HW110256   9.412  11.364   1.177
69453SOL    HW210257   9.380  11.353   1.325
69454SOL     OW10258   6.741   1.929   2.341
69454SOL    HW110259   6.734   1.869   2.415
69454SOL    HW210260   6.814   1.896   2.289
69455SOL     OW10261   6.224   6.577   3.010
69455SOL    HW110262   6.130   6.572   3.024
69455SOL    HW210263   6.244   6.670   3.008
69456SOL     OW10264   6.679   0.090   4.534
69456SOL    HW110265   6.641   0.036   4.603
69456SOL    HW210266   6.651   0.180   4.556
69457SOL     OW10267   9.549   7.569   6.051
69457SOL    HW110268   9.599   7.626   5.993
69457SOL    HW210269   9.549   7.484   6.008
69458SOL     OW10270   1.057   0.813   0.805
69458SOL    HW110271   1.128   0.748   0.797
69458SOL    HW210272   1.001   0.796   0.730
69459SOL     OW10273  12.013  12.757   2.822
69459SOL    HW110274  12.029  12.683   2.881
69459SOL    HW210275  11.919  12.753   2.804
69460SOL     OW10276  10.777  12.431  11.388
69460SOL    HW110277  10.703  12.453  11.332
69460SOL    HW210278  10.854  12.439  11.332
69461SOL     OW10279  13.252   5.631   9.213
69461SOL    HW110280  13.309   5.579   9.270
69461SOL    HW210281  13.211   5.567   9.155
69462SOL     OW10282  10.824   6.566   9.543
69462SOL    HW110283  10.911   6.526   9.552
69462SOL    HW210284  10.776   6.535   9.620
69463SOL     OW10285  11.525   1.879   7.253
69463SOL    HW110286  11.525   1.821   7.329
69463SOL    HW210287  11.510   1.821   7.178
69464SOL     OW10288   3.405  11.265   8.988
69464SOL    HW110289   3.355  11.243   9.066
69464SOL    HW210290   3.370  11.349   8.959
69465SOL     OW10291  11.816   6.755   9.347
69465SOL    HW110292  11.907   6.776   9.368
69465SOL    HW210293  11.770   6.838   9.355
69466SOL     OW10294   9.161  11.780  10.085
69466SOL    HW110295   9.118  11.854  10.127
69466SOL    HW210296   9.101  11.754  10.014
69467SOL     OW10297  11.145   7.113   3.428
69467SOL    HW110298  11.090   7.171   3.376
69467SOL    HW210299  11.220   7.093   3.371
69468SOL     OW10300   7.705  14.153   0.323
69468SOL    HW110301   7.680  14.094   0.252
69468SOL    HW210302   7.623  14.170   0.369
69469SOL     OW10303  12.008  10.290   8.619
69469SOL    HW110304  12.015  10.196   8.631
69469SOL    HW210305  12.019  10.327   8.707
69470SOL     OW10306   4.785   8.195   9.369
69470SOL    HW110307   4.782   8.102   9.390
69470SOL    HW210308   4.734   8.236   9.439
69471SOL     OW10309  14.646   7.559  13.845
69471SOL    HW110310  14.652   7.466  13.823
69471SOL    HW210311  14.652   7.562  13.940
69472SOL     OW10312   6.861  13.128   1.979
69472SOL    HW110313   6.867  13.119   2.074
69472SOL    HW210314   6.817  13.048   1.951
69473SOL     OW10315   5.456   0.962  12.288
69473SOL    HW110316   5.477   0.957  12.381
69473SOL    HW210317   5.540   0.951  12.244
69474SOL     OW10318   0.373   5.445   3.760
69474SOL    HW110319   0.431   5.383   3.716
69474SOL    HW210320   0.425   5.524   3.769
69475SOL     OW10321  12.392   9.473   5.519
69475SOL    HW110322  12.449   9.510   5.586
69475SOL    HW210323  12.307   9.513   5.534
69476SOL     OW10324   4.478  14.306   9.458
69476SOL    HW110325   4.508  14.264   9.539
69476SOL    HW210326   4.557  14.315   9.405
69477SOL     OW10327  13.173  13.317   3.675
69477SOL    HW110328  13.172  13.314   3.580
69477SOL    HW210329  13.172  13.226   3.702
69478SOL     OW10330   5.947  13.711  12.944
69478SOL    HW110331   6.004  13.787  12.948
69478SOL    HW210332   5.922  13.694  13.035
69479SOL     OW10333  12.943   3.514  11.661
69479SOL    HW110334  12.935   3.575  11.734
69479SOL    HW210335  12.856   3.509  11.623
69480SOL     OW10336   3.177  14.166   8.047
69480SOL    HW110337   3.103  14.124   8.091
69480SOL    HW210338   3.236  14.191   8.118
69481SOL     OW10339   4.961   1.097   6.104
69481SOL    HW110340   4.866   1.085   6.093
69481SOL    HW210341   4.988   1.148   6.028
69482SOL     OW10342  10.768   4.877  13.636
69482SOL    HW110343  10.803   4.896  13.549
69482SOL    HW210344  10.798   4.788  13.655
69483SOL     OW10345   3.845   8.587   1.096
69483SOL    HW110346   3.917   8.549   1.146
69483SOL    HW210347   3.855   8.681   1.108
69484SOL     OW10348  12.509  12.806   4.368
69484SOL    HW110349  12.576  12.853   4.319
69484SOL    HW210350  12.446  12.777   4.302
69485SOL     OW10351   2.641   6.387  11.225
69485SOL    HW110352   2.703   6.455  11.252
69485SOL    HW210353   2.667   6.364  11.136
69486SOL     OW10354   4.469   8.929   3.857
69486SOL    HW110355   4.533   8.927   3.785
69486SOL    HW210356   4.495   8.856   3.913
69487SOL     OW10357   5.336   9.605   5.208
69487SOL    HW110358   5.263   9.660   5.180
69487SOL    HW210359   5.415   9.656   5.188
69488SOL     OW10360  13.855  14.723   1.660
69488SOL    HW110361  13.775  14.772   1.676
69488SOL    HW210362  13.864  14.720   1.565
69489SOL     OW10363   1.645   7.718  10.111
69489SOL    HW110364   1.621   7.699  10.021
69489SOL    HW210365   1.620   7.640  10.160
69490SOL     OW10366   5.423   9.836   1.838
69490SOL    HW110367   5.343   9.857   1.789
69490SOL    HW210368   5.420   9.893   1.914
69491SOL     OW10369   2.929   2.763   2.511
69491SOL    HW110370   2.891   2.788   2.427
69491SOL    HW210371   2.966   2.843   2.546
69492SOL     OW10372  14.000   6.651   9.072
69492SOL    HW110373  14.060   6.718   9.038
69492SOL    HW210374  14.027   6.571   9.028
69493SOL     OW10375  12.994   4.718  11.970
69493SOL    HW110376  12.987   4.736  12.064
69493SOL    HW210377  12.903   4.712  11.940
69494SOL     OW10378   3.003   2.177  12.306
69494SOL    HW110379   3.059   2.120  12.359
69494SOL    HW210380   2.961   2.235  12.370
69495SOL     OW10381   1.449   1.723   3.147
69495SOL    HW110382   1.500   1.744   3.069
69495SOL    HW210383   1.430   1.808   3.187
69496SOL     OW10384   6.807  11.895   1.263
69496SOL    HW110385   6.778  11.950   1.335
69496SOL    HW210386   6.902  11.893   1.271
69497SOL     OW10387  14.613   1.119   0.499
69497SOL    HW110388  14.613   1.052   0.567
69497SOL    HW210389  14.551   1.185   0.530
69498SOL     OW10390   2.702   9.572   9.466
69498SOL    HW110391   2.746   9.637   9.411
69498SOL    HW210392   2.749   9.577   9.550
69499SOL     OW10393   7.547   1.446   8.887
69499SOL    HW110394   7.628   1.414   8.926
69499SOL    HW210395   7.574   1.488   8.806
69500SOL     OW10396  10.958   9.801   9.997
69500SOL    HW110397  10.897   9.756   9.940
69500SOL    HW210398  11.035   9.743   9.999
69501SOL     OW10399   1.450   8.087   4.493
69501SOL    HW110400   1.433   8.181   4.501
69501SOL    HW210401   1.539   8.076   4.525
69502SOL     OW10402  13.468   4.740   0.168
69502SOL    HW110403  13.432   4.658   0.199
69502SOL    HW210404  13.409   4.807   0.202
69503SOL     OW10405  14.307  11.962   7.312
69503SOL    HW110406  14.261  11.984   7.393
69503SOL    HW210407  14.246  11.986   7.242
69504SOL     OW10408   3.274  11.865   5.843
69504SOL    HW110409   3.220  11.815   5.905
69504SOL    HW210410   3.254  11.956   5.861
69505SOL     OW10411   4.085   9.882   8.254
69505SOL    HW110412   4.048   9.968   8.275
69505SOL    HW210413   4.149   9.867   8.324
69506SOL     OW10414  14.112  13.849   4.613
69506SOL    HW110415  14.202  13.830   4.588
69506SOL    HW210416  14.113  13.941   4.639
69507SOL     OW10417   6.806  11.771   7.593
69507SOL    HW110418   6.901  11.777   7.584
69507SOL    HW210419   6.793  11.698   7.654
69508SOL     OW10420  10.775   1.043   2.599
69508SOL    HW110421  10.793   0.986   2.674
69508SOL    HW210422  10.818   1.001   2.525
69509SOL     OW10423   2.301   9.076   3.382
69509SOL    HW110424   2.266   8.987   3.387
69509SOL    HW210425   2.223   9.132   3.379
69510SOL     OW10426  13.738   7.855  10.820
69510SOL    HW110427  13.821   7.834  10.776
69510SOL    HW210428  13.736   7.950  10.823
69511SOL     OW10429  13.542   4.096   0.598
69511SOL    HW110430  13.623   4.090   0.649
69511SOL    HW210431  13.551   4.029   0.530
69512SOL     OW10432  13.186   2.644   6.949
69512SOL    HW110433  13.179   2.616   6.858
69512SOL    HW210434  13.249   2.583   6.988
69513SOL     OW10435   0.235   0.362   6.030
69513SOL    HW110436   0.151   0.321   6.010
69513SOL    HW210437   0.270   0.388   5.945
69514SOL     OW10438   9.859   5.072   6.248
69514SOL    HW110439   9.800   5.061   6.174
69514SOL    HW210440   9.946   5.076   6.209
69515SOL     OW10441   8.159  13.287  11.511
69515SOL    HW110442   8.066  13.310  11.508
69515SOL    HW210443   8.164  13.199  11.475
69516SOL     OW10444  12.232  11.383  10.581
69516SOL    HW110445  12.197  11.296  10.563
69516SOL    HW210446  12.231  11.391  10.676
69517SOL     OW10447   5.928  11.230   7.888
69517SOL    HW110448   5.916  11.208   7.795
69517SOL    HW210449   5.963  11.319   7.887
69518SOL     OW10450   8.398   8.797   5.743
69518SOL    HW110451   8.319   8.745   5.757
69518SOL    HW210452   8.426   8.823   5.831
69519SOL     OW10453   0.672   4.864   1.010
69519SOL    HW110454   0.667   4.897   0.920
69519SOL    HW210455   0.595   4.808   1.020
69520SOL     OW10456  13.563   8.472  12.710
69520SOL    HW110457  13.591   8.562  12.693
69520SOL    HW210458  13.500   8.480  12.781
69521SOL     OW10459   1.454  11.106  10.207
69521SOL    HW110460   1.418  11.017  10.204
69521SOL    HW210461   1.449  11.137  10.117
69522SOL     OW10462   0.722   9.666   3.992
69522SOL    HW110463   0.789   9.608   3.955
69522SOL    HW210464   0.738   9.664   4.086
69523SOL     OW10465   8.550   7.588   3.372
69523SOL    HW110466   8.505   7.505   3.386
69523SOL    HW210467   8.519   7.645   3.443
69524SOL     OW10468   6.073   6.300   4.172
69524SOL    HW110469   6.075   6.390   4.205
69524SOL    HW210470   6.163   6.283   4.143
69525SOL     OW10471   3.335  14.540   1.654
69525SOL    HW110472   3.352  14.611   1.716
69525SOL    HW210473   3.355  14.578   1.568
69526SOL     OW10474  10.955   4.054  10.137
69526SOL    HW110475  10.881   4.105  10.170
69526SOL    HW210476  11.031   4.095  10.177
69527SOL     OW10477  11.470   2.002   1.034
69527SOL    HW110478  11.448   1.990   0.942
69527SOL    HW210479  11.400   2.058   1.068
69528SOL     OW10480  13.841   4.071   7.353
69528SOL    HW110481  13.884   4.109   7.430
69528SOL    HW210482  13.798   4.145   7.310
69529SOL     OW10483   8.713  12.038   8.738
69529SOL    HW110484   8.762  12.116   8.713
69529SOL    HW210485   8.635  12.072   8.782
69530SOL     OW10486  10.904   8.126   9.998
69530SOL    HW110487  10.860   8.041   9.999
69530SOL    HW210488  10.876   8.169  10.078
69531SOL     OW10489   8.918   9.354  12.507
69531SOL    HW110490   8.892   9.375  12.597
69531SOL    HW210491   8.877   9.422  12.454
69532SOL     OW10492   5.236   8.309  10.450
69532SOL    HW110493   5.240   8.382  10.389
69532SOL    HW210494   5.292   8.335  10.523
69533SOL     OW10495   2.733   5.425   0.877
69533SOL    HW110496   2.749   5.472   0.796
69533SOL    HW210497   2.790   5.349   0.873
69534SOL     OW10498   5.520   9.085   6.295
69534SOL    HW110499   5.576   9.009   6.312
69534SOL    HW210500   5.565   9.158   6.338
69535SOL     OW10501   7.543   2.464  14.568
69535SOL    HW110502   7.617   2.511  14.530
69535SOL    HW210503   7.583   2.398  14.625
69536SOL     OW10504  13.470  11.736  12.472
69536SOL    HW110505  13.497  11.648  12.500
69536SOL    HW210506  13.457  11.784  12.553
69537SOL     OW10507   8.107   3.749   4.856
69537SOL    HW110508   8.042   3.817   4.872
69537SOL    HW210509   8.186   3.797   4.831
69538SOL     OW10510   5.596   7.048   2.753
69538SOL    HW110511   5.562   6.974   2.704
69538SOL    HW210512   5.538   7.056   2.829
69539SOL     OW10513   2.736  11.186   4.562
69539SOL    HW110514   2.807  11.248   4.576
69539SOL    HW210515   2.735  11.171   4.468
69540SOL     OW10516  13.400  11.112  10.549
69540SOL    HW110517  13.351  11.135  10.629
69540SOL    HW210518  13.442  11.193  10.522
69541SOL     OW10519   7.728  11.292  13.766
69541SOL    HW110520   7.705  11.305  13.858
69541SOL    HW210521   7.824  11.296  13.764
69542SOL     OW10522   1.629   3.067   0.979
69542SOL    HW110523   1.632   2.986   0.928
69542SOL    HW210524   1.581   3.044   1.059
69543SOL     OW10525   6.171   2.213   3.274
69543SOL    HW110526   6.185   2.218   3.179
69543SOL    HW210527   6.258   2.199   3.311
69544SOL     OW10528   9.365   8.168  11.893
69544SOL    HW110529   9.340   8.081  11.864
69544SOL    HW210530   9.306   8.188  11.966
69545SOL     OW10531   3.756   7.379   8.876
69545SOL    HW110532   3.801   7.456   8.843
69545SOL    HW210533   3.757   7.388   8.971
69546SOL     OW10534   1.925  14.570   4.785
69546SOL    HW110535   1.980  14.496   4.757
69546SOL    HW210536   1.843  14.530   4.812
69547SOL     OW10537   8.444   1.778   0.387
69547SOL    HW110538   8.435   1.707   0.451
69547SOL    HW210539   8.441   1.734   0.302
69548SOL     OW10540   0.205   9.894   3.594
69548SOL    HW110541   0.266   9.825   3.565
69548SOL    HW210542   0.119   9.863   3.566
69549SOL     OW10543   0.290   8.179  10.207
69549SOL    HW110544   0.372   8.221  10.181
69549SOL    HW210545   0.239   8.173  10.127
69550SOL     OW10546   5.123   6.974   5.153
69550SOL    HW110547   5.107   6.998   5.245
69550SOL    HW210548   5.060   7.026   5.103
69551SOL     OW10549  12.581   4.838   5.215
69551SOL    HW110550  12.515   4.848   5.283
69551SOL    HW210551  12.633   4.763   5.243
69552SOL     OW10552   4.962   6.713  11.560
69552SOL    HW110553   4.966   6.725  11.465
69552SOL    HW210554   4.938   6.621  11.573
69553SOL     OW10555   1.856   1.371   4.047
69553SOL    HW110556   1.762   1.386   4.053
69553SOL    HW210557   1.892   1.456   4.020
69554SOL     OW10558  11.608   2.628   4.770
69554SOL    HW110559  11.639   2.695   4.830
69554SOL    HW210560  11.513   2.639   4.769
69555SOL     OW10561   6.857  14.785   0.423
69555SOL    HW110562   6.779  14.776   0.478
69555SOL    HW210563   6.830  14.753   0.337
69556SOL     OW10564  14.759   5.350  12.046
69556SOL    HW110565  14.746   5.329  11.953
69556SOL    HW210566  14.783   5.267  12.087
69557SOL     OW10567  14.090  14.678   8.217
69557SOL    HW110568  14.071  14.763   8.256
69557SOL    HW210569  14.115  14.623   8.290
69558SOL     OW10570   6.906   7.725   3.831
69558SOL    HW110571   6.965   7.773   3.889
69558SOL    HW210572   6.961   7.697   3.758
69559SOL     OW10573   7.831   9.244   7.645
69559SOL    HW110574   7.921   9.277   7.653
69559SOL    HW210575   7.838   9.171   7.584
69560SOL     OW10576   4.572   6.397  11.242
69560SOL    HW110577   4.530   6.407  11.327
69560SOL    HW210578   4.663   6.374  11.263
69561SOL     OW10579   2.153  13.423   6.885
69561SOL    HW110580   2.124  13.503   6.928
69561SOL    HW210581   2.101  13.419   6.804
69562SOL     OW10582  11.396   3.236   5.882
69562SOL    HW110583  11.402   3.156   5.829
69562SOL    HW210584  11.341   3.211   5.957
69563SOL     OW10585  12.568   1.833   1.178
69563SOL    HW110586  12.652   1.813   1.136
69563SOL    HW210587  12.591   1.883   1.256
69564SOL     OW10588   8.798  10.699  12.716
69564SOL    HW110589   8.776  10.762  12.784
69564SOL    HW210590   8.740  10.721  12.643
69565SOL     OW10591  14.313   3.766  12.518
69565SOL    HW110592  14.268   3.822  12.581
69565SOL    HW210593  14.258   3.688  12.511
69566SOL     OW10594   1.031   3.342  10.321
69566SOL    HW110595   1.080   3.281  10.265
69566SOL    HW210596   0.978   3.393  10.260
69567SOL     OW10597   1.223   8.892  11.548
69567SOL    HW110598   1.287   8.835  11.591
69567SOL    HW210599   1.275   8.951  11.494
69568SOL     OW10600   3.583   0.044   4.199
69568SOL    HW110601   3.510  14.869   4.158
69568SOL    HW210602   3.562   0.045   4.293
69569SOL     OW10603   6.550   6.192  13.470
69569SOL    HW110604   6.643   6.207  13.455
69569SOL    HW210605   6.512   6.190  13.382
69570SOL     OW10606   8.264  12.335   9.149
69570SOL    HW110607   8.276  12.285   9.068
69570SOL    HW210608   8.310  12.285   9.216
69571SOL     OW10609   1.041  12.670   5.823
69571SOL    HW110610   1.135  12.663   5.810
69571SOL    HW210611   1.028  12.649   5.915
69572SOL     OW10612   8.468  12.435   1.996
69572SOL    HW110613   8.483  12.421   1.902
69572SOL    HW210614   8.527  12.373   2.039
69573SOL     OW10615   4.903  11.802   9.044
69573SOL    HW110616   4.981  11.747   9.034
69573SOL    HW210617   4.863  11.772   9.125
69574SOL     OW10618   5.710   1.120   0.330
69574SOL    HW110619   5.793   1.083   0.301
69574SOL    HW210620   5.730   1.161   0.414
69575SOL     OW10621   0.362   8.522  14.810
69575SOL    HW110622   0.447   8.537  14.851
69575SOL    HW210623   0.334   8.437  14.845
69576SOL     OW10624   4.263   4.864   3.717
69576SOL    HW110625   4.199   4.823   3.776
69576SOL    HW210626   4.345   4.818   3.734
69577SOL     OW10627   5.997   9.609  11.651
69577SOL    HW110628   5.976   9.565  11.569
69577SOL    HW210629   6.084   9.647  11.637
69578SOL     OW10630  13.310  13.840  14.159
69578SOL    HW110631  13.382  13.887  14.117
69578SOL    HW210632  13.351  13.788  14.227
69579SOL     OW10633   2.225   3.152   0.793
69579SOL    HW110634   2.170   3.092   0.742
69579SOL    HW210635   2.310   3.151   0.748
69580SOL     OW10636  14.223  10.125   9.451
69580SOL    HW110637  14.273  10.056   9.494
69580SOL    HW210638  14.203  10.090   9.364
69581SOL     OW10639  11.645  11.538  13.053
69581SOL    HW110640  11.596  11.478  12.997
69581SOL    HW210641  11.687  11.481  13.118
69582SOL     OW10642   1.468   5.223   0.092
69582SOL    HW110643   1.431   5.261   0.172
69582SOL    HW210644   1.397   5.231   0.028
69583SOL     OW10645   0.018   1.310   3.040
69583SOL    HW110646   0.045   1.317   3.131
69583SOL    HW210647  14.843   1.225   3.035
69584SOL     OW10648   1.846   8.795   0.442
69584SOL    HW110649   1.923   8.852   0.448
69584SOL    HW210650   1.778   8.840   0.492
69585SOL     OW10651   5.199   3.290  14.099
69585SOL    HW110652   5.264   3.287  14.029
69585SOL    HW210653   5.168   3.200  14.107
69586SOL     OW10654   5.329   8.839  10.350
69586SOL    HW110655   5.405   8.797  10.390
69586SOL    HW210656   5.365   8.891  10.278
69587SOL     OW10657  13.631  10.729  10.250
69587SOL    HW110658  13.586  10.668  10.192
69587SOL    HW210659  13.571  10.803  10.258
69588SOL     OW10660   7.714   1.079   1.931
69588SOL    HW110661   7.701   0.986   1.951
69588SOL    HW210662   7.628   1.119   1.947
69589SOL     OW10663   5.324  11.548   7.808
69589SOL    HW110664   5.370  11.499   7.876
69589SOL    HW210665   5.322  11.638   7.841
69590SOL     OW10666   6.155  11.264   9.074
69590SOL    HW110667   6.175  11.190   9.016
69590SOL    HW210668   6.238  11.282   9.119
69591SOL     OW10669  13.391   1.698   4.371
69591SOL    HW110670  13.348   1.661   4.294
69591SOL    HW210671  13.484   1.702   4.347
69592SOL     OW10672   7.607   5.682   7.560
69592SOL    HW110673   7.601   5.617   7.630
69592SOL    HW210674   7.667   5.749   7.594
69593SOL     OW10675   1.564   7.409  12.014
69593SOL    HW110676   1.649   7.415  12.056
69593SOL    HW210677   1.580   7.430  11.922
69594SOL     OW10678   5.301   6.361   4.724
69594SOL    HW110679   5.292   6.446   4.767
69594SOL    HW210680   5.298   6.298   4.795
69595SOL     OW10681   9.312   4.188  14.436
69595SOL    HW110682   9.224   4.206  14.468
69595SOL    HW210683   9.299   4.151  14.348
69596SOL     OW10684  10.602  11.953  13.653
69596SOL    HW110685  10.511  11.924  13.644
69596SOL    HW210686  10.650  11.873  13.676
69597SOL     OW10687   7.150   6.071   2.519
69597SOL    HW110688   7.185   6.158   2.501
69597SOL    HW210689   7.173   6.054   2.611
69598SOL     OW10690   9.722   0.003   0.844
69598SOL    HW110691   9.644  14.835   0.805
69598SOL    HW210692   9.717  14.850   0.937
69599SOL     OW10693   3.799   7.933   1.742
69599SOL    HW110694   3.838   7.846   1.750
69599SOL    HW210695   3.865   7.986   1.699
69600SOL     OW10696   3.496  13.369   1.020
69600SOL    HW110697   3.488  13.463   1.038
69600SOL    HW210698   3.539  13.333   1.097
69601SOL     OW10699   0.354   2.566   4.725
69601SOL    HW110700   0.326   2.528   4.809
69601SOL    HW210701   0.448   2.578   4.734
69602SOL     OW10702  14.211   0.971   8.328
69602SOL    HW110703  14.303   0.957   8.305
69602SOL    HW210704  14.206   0.952   8.421
69603SOL     OW10705   8.720   2.848   2.945
69603SOL    HW110706   8.776   2.925   2.956
69603SOL    HW210707   8.734   2.822   2.854
69604SOL     OW10708   6.763   4.229   1.177
69604SOL    HW110709   6.773   4.212   1.083
69604SOL    HW210710   6.849   4.209   1.214
69605SOL     OW10711   5.019   3.036   3.909
69605SOL    HW110712   5.048   3.112   3.859
69605SOL    HW210713   4.971   2.982   3.846
69606SOL     OW10714   6.803   0.950   6.995
69606SOL    HW110715   6.743   0.996   6.938
69606SOL    HW210716   6.814   1.008   7.071
69607SOL     OW10717  13.899   8.629   4.860
69607SOL    HW110718  13.951   8.640   4.781
69607SOL    HW210719  13.865   8.540   4.855
69608SOL     OW10720  12.075  13.312   4.894
69608SOL    HW110721  12.026  13.317   4.977
69608SOL    HW210722  12.119  13.227   4.898
69609SOL     OW10723  12.410   6.758  12.360
69609SOL    HW110724  12.332   6.783  12.309
69609SOL    HW210725  12.445   6.841  12.391
69610SOL     OW10726   0.334  12.438   7.387
69610SOL    HW110727   0.305  12.349   7.406
69610SOL    HW210728   0.344  12.440   7.291
69611SOL     OW10729  10.601   4.108   4.251
69611SOL    HW110730  10.538   4.157   4.199
69611SOL    HW210731  10.683   4.155   4.241
69612SOL     OW10732   2.505   3.118   0.652
69612SOL    HW110733   2.456   3.058   0.597
69612SOL    HW210734   2.578   3.147   0.597
69613SOL     OW10735   4.692   9.816   9.980
69613SOL    HW110736   4.656   9.904   9.965
69613SOL    HW210737   4.742   9.825  10.062
69614SOL     OW10738  12.912   4.191   4.962
69614SOL    HW110739  12.928   4.097   4.954
69614SOL    HW210740  12.984   4.232   4.915
69615SOL     OW10741   6.107  10.429   1.516
69615SOL    HW110742   6.030  10.439   1.461
69615SOL    HW210743   6.081  10.464   1.601
69616SOL     OW10744   6.650   3.129   7.070
69616SOL    HW110745   6.617   3.143   6.982
69616SOL    HW210746   6.715   3.059   7.061
69617SOL     OW10747   1.678  11.816   9.294
69617SOL    HW110748   1.679  11.912   9.286
69617SOL    HW210749   1.593  11.797   9.334
69618SOL     OW10750  11.866   2.420   8.243
69618SOL    HW110751  11.909   2.384   8.321
69618SOL    HW210752  11.800   2.480   8.277
69619SOL     OW10753   7.701   0.468   0.246
69619SOL    HW110754   7.711   0.563   0.252
69619SOL    HW210755   7.627   0.449   0.303
69620SOL     OW10756   3.776   4.124   5.261
69620SOL    HW110757   3.831   4.092   5.333
69620SOL    HW210758   3.687   4.098   5.287
69621SOL     OW10759   2.227  12.003   9.757
69621SOL    HW110760   2.217  12.055   9.677
69621SOL    HW210761   2.205  11.914   9.731
69622SOL     OW10762  12.364  14.596  11.563
69622SOL    HW110763  12.284  14.597  11.511
69622SOL    HW210764  12.345  14.655  11.636
69623SOL     OW10765   6.956  11.724   8.900
69623SOL    HW110766   6.952  11.629   8.901
69623SOL    HW210767   7.023  11.746   8.965
69624SOL     OW10768   9.990   4.264   8.320
69624SOL    HW110769  10.071   4.314   8.314
69624SOL    HW210770  10.011   4.179   8.283
69625SOL     OW10771   3.314  14.517   3.908
69625SOL    HW110772   3.400  14.547   3.938
69625SOL    HW210773   3.334  14.448   3.844
69626SOL     OW10774   0.632   5.996   0.834
69626SOL    HW110775   0.582   5.916   0.817
69626SOL    HW210776   0.645   6.035   0.747
69627SOL     OW10777  12.335  13.266   3.429
69627SOL    HW110778  12.252  13.314   3.424
69627SOL    HW210779  12.389  13.317   3.489
69628SOL     OW10780  11.949   9.183   7.731
69628SOL    HW110781  11.987   9.097   7.745
69628SOL    HW210782  11.982   9.236   7.804
69629SOL     OW10783   0.881  10.495   0.097
69629SOL    HW110784   0.894  10.583   0.061
69629SOL    HW210785   0.947  10.441   0.054
69630SOL     OW10786  12.365   8.802   2.531
69630SOL    HW110787  12.353   8.897   2.533
69630SOL    HW210788  12.460   8.789   2.526
69631SOL     OW10789   1.391   8.288   8.637
69631SOL    HW110790   1.377   8.369   8.686
69631SOL    HW210791   1.483   8.266   8.651
69632SOL     OW10792   6.859   4.211  11.039
69632SOL    HW110793   6.924   4.280  11.053
69632SOL    HW210794   6.791   4.252  10.986
69633SOL     OW10795   2.451   6.258  10.097
69633SOL    HW110796   2.426   6.272  10.006
69633SOL    HW210797   2.401   6.180  10.124
69634SOL     OW10798   6.207   1.429   1.693
69634SOL    HW110799   6.287   1.480   1.683
69634SOL    HW210800   6.143   1.474   1.638
69635SOL     OW10801   8.275   1.943   7.314
69635SOL    HW110802   8.210   1.918   7.380
69635SOL    HW210803   8.248   2.031   7.287
69636SOL     OW10804   3.692  13.417  13.362
69636SOL    HW110805   3.747  13.352  13.404
69636SOL    HW210806   3.602  13.384  13.372
69637SOL     OW10807   0.360   7.090   9.334
69637SOL    HW110808   0.391   7.145   9.262
69637SOL    HW210809   0.293   7.143   9.378
69638SOL     OW10810   7.422   3.926   1.521
69638SOL    HW110811   7.509   3.893   1.539
69638SOL    HW210812   7.406   3.991   1.589
69639SOL     OW10813   3.275   1.843  12.748
69639SOL    HW110814   3.259   1.842  12.654
69639SOL    HW210815   3.352   1.899  12.759
69640SOL     OW10816  14.508   6.363  13.387
69640SOL    HW110817  14.454   6.297  13.431
69640SOL    HW210818  14.446   6.432  13.363
69641SOL     OW10819  10.618   9.991   6.719
69641SOL    HW110820  10.639  10.062   6.780
69641SOL    HW210821  10.564   9.930   6.769
69642SOL     OW10822   9.125   9.004  11.120
69642SOL    HW110823   9.204   8.951  11.124
69642SOL    HW210824   9.150   9.082  11.071
69643SOL     OW10825   7.154  14.518  13.994
69643SOL    HW110826   7.211  14.576  13.944
69643SOL    HW210827   7.201  14.504  14.077
69644SOL     OW10828  13.756   3.415   3.572
69644SOL    HW110829  13.667   3.439   3.546
69644SOL    HW210830  13.745   3.351   3.642
69645SOL     OW10831   2.422  10.470   1.707
69645SOL    HW110832   2.453  10.491   1.619
69645SOL    HW210833   2.347  10.412   1.693
69646SOL     OW10834   0.036  11.638   5.727
69646SOL    HW110835   0.083  11.586   5.662
69646SOL    HW210836  14.818  11.600   5.729
69647SOL     OW10837   2.147   4.792  12.727
69647SOL    HW110838   2.212   4.817  12.794
69647SOL    HW210839   2.069   4.771  12.777
69648SOL     OW10840   7.558   8.563  14.417
69648SOL    HW110841   7.512   8.524  14.491
69648SOL    HW210842   7.523   8.652  14.411
69649SOL     OW10843   2.415  12.338   2.785
69649SOL    HW110844   2.443  12.385   2.706
69649SOL    HW210845   2.421  12.246   2.761
69650SOL     OW10846   0.987   6.030  12.355
69650SOL    HW110847   1.074   6.071  12.356
69650SOL    HW210848   0.976   5.999  12.265
69651SOL     OW10849   4.399   7.109   7.681
69651SOL    HW110850   4.422   7.201   7.669
69651SOL    HW210851   4.318   7.111   7.732
69652SOL     OW10852   6.746  10.118   4.259
69652SOL    HW110853   6.743  10.088   4.168
69652SOL    HW210854   6.660  10.096   4.294
69653SOL     OW10855  13.232  11.216  11.805
69653SOL    HW110856  13.323  11.185  11.803
69653SOL    HW210857  13.199  11.198  11.717
69654SOL     OW10858   0.602  10.413   3.846
69654SOL    HW110859   0.577  10.348   3.911
69654SOL    HW210860   0.609  10.495   3.896
69655SOL     OW10861   5.484   4.432   2.863
69655SOL    HW110862   5.561   4.488   2.857
69655SOL    HW210863   5.420   4.473   2.806
69656SOL     OW10864   3.156  12.618   5.469
69656SOL    HW110865   3.100  12.568   5.527
69656SOL    HW210866   3.128  12.709   5.481
69657SOL     OW10867  11.767  12.627   2.726
69657SOL    HW110868  11.716  12.589   2.798
69657SOL    HW210869  11.715  12.608   2.648
69658SOL     OW10870   2.667   7.123   0.382
69658SOL    HW110871   2.618   7.132   0.464
69658SOL    HW210872   2.601   7.132   0.314
69659SOL     OW10873   7.893   7.275   8.599
69659SOL    HW110874   7.911   7.181   8.594
69659SOL    HW210875   7.946   7.305   8.673
69660SOL     OW10876  13.431   1.195   2.312
69660SOL    HW110877  13.347   1.149   2.317
69660SOL    HW210878  13.417   1.262   2.245
69661SOL     OW10879  11.891   7.567   3.393
69661SOL    HW110880  11.963   7.595   3.336
69661SOL    HW210881  11.929   7.567   3.481
69662SOL     OW10882   5.858  14.014   8.314
69662SOL    HW110883   5.774  14.059   8.328
69662SOL    HW210884   5.922  14.072   8.356
69663SOL     OW10885   1.822  10.228  12.385
69663SOL    HW110886   1.748  10.286  12.405
69663SOL    HW210887   1.879  10.282  12.330
69664SOL     OW10888  13.210   4.420   6.983
69664SOL    HW110889  13.261   4.339   6.976
69664SOL    HW210890  13.271   4.484   7.019
69665SOL     OW10891  14.136   1.228  12.354
69665SOL    HW110892  14.089   1.187  12.427
69665SOL    HW210893  14.169   1.310  12.390
69666SOL     OW10894   9.371   8.365  14.856
69666SOL    HW110895   9.331   8.378   0.073
69666SOL    HW210896   9.297   8.360  14.796
69667SOL     OW10897   7.202   5.038   8.715
69667SOL    HW110898   7.218   4.978   8.642
69667SOL    HW210899   7.276   5.023   8.775
69668SOL     OW10900  13.569  13.187   2.352
69668SOL    HW110901  13.546  13.131   2.426
69668SOL    HW210902  13.658  13.216   2.371
69669SOL     OW10903   2.525  13.544   4.048
69669SOL    HW110904   2.500  13.527   3.957
69669SOL    HW210905   2.501  13.464   4.094
69670SOL     OW10906   5.554   2.568   2.096
69670SOL    HW110907   5.497   2.532   2.164
69670SOL    HW210908   5.499   2.572   2.018
69671SOL     OW10909   1.611  13.644  10.258
69671SOL    HW110910   1.681  13.704  10.231
69671SOL    HW210911   1.652  13.558  10.260
69672SOL     OW10912   1.788   7.258   9.411
69672SOL    HW110913   1.738   7.176   9.407
69672SOL    HW210914   1.818   7.273   9.321
69673SOL     OW10915   4.543   8.373   4.146
69673SOL    HW110916   4.561   8.311   4.076
69673SOL    HW210917   4.622   8.427   4.152
69674SOL     OW10918   6.969   6.522  14.257
69674SOL    HW110919   6.925   6.571  14.187
69674SOL    HW210920   7.052   6.569  14.270
69675SOL     OW10921  13.287   6.513  13.789
69675SOL    HW110922  13.304   6.452  13.717
69675SOL    HW210923  13.356   6.495  13.852
69676SOL     OW10924   1.023   7.308  11.220
69676SOL    HW110925   1.065   7.380  11.174
69676SOL    HW210926   1.077   7.295  11.298
69677SOL     OW10927  12.244   2.675  11.631
69677SOL    HW110928  12.179   2.623  11.679
69677SOL    HW210929  12.298   2.715  11.699
69678SOL     OW10930   7.873  13.608   2.142
69678SOL    HW110931   7.924  13.630   2.220
69678SOL    HW210932   7.918  13.533   2.104
69679SOL     OW10933   6.104   8.681  11.157
69679SOL    HW110934   6.107   8.758  11.100
69679SOL    HW210935   6.011   8.672  11.180
69680SOL     OW10936   0.977   7.944   9.770
69680SOL    HW110937   0.899   7.964   9.718
69680SOL    HW210938   1.024   7.878   9.719
69681SOL     OW10939   2.075   6.676   1.811
69681SOL    HW110940   1.994   6.637   1.844
69681SOL    HW210941   2.119   6.604   1.766
69682SOL     OW10942   8.745  12.906  11.946
69682SOL    HW110943   8.671  12.855  11.980
69682SOL    HW210944   8.715  12.936  11.860
69683SOL     OW10945   3.358  12.057  10.266
69683SOL    HW110946   3.341  11.965  10.284
69683SOL    HW210947   3.438  12.057  10.213
69684SOL     OW10948   2.890   7.132  14.713
69684SOL    HW110949   2.952   7.110  14.783
69684SOL    HW210950   2.938   7.192  14.657
69685SOL     OW10951   3.314   9.773   9.473
69685SOL    HW110952   3.371   9.748   9.546
69685SOL    HW210953   3.290   9.691   9.431
69686SOL     OW10954  10.422   0.333  11.781
69686SOL    HW110955  10.404   0.333  11.687
69686SOL    HW210956  10.391   0.419  11.811
69687SOL     OW10957   3.908  12.240   9.739
69687SOL    HW110958   3.881  12.237   9.831
69687SOL    HW210959   3.839  12.290   9.696
69688SOL     OW10960   5.682   8.664   5.481
69688SOL    HW110961   5.616   8.599   5.454
69688SOL    HW210962   5.632   8.744   5.494
69689SOL     OW10963  13.435  12.431  11.375
69689SOL    HW110964  13.460  12.422  11.467
69689SOL    HW210965  13.388  12.514  11.370
69690SOL     OW10966   1.027  13.702   8.611
69690SOL    HW110967   0.983  13.774   8.656
69690SOL    HW210968   1.116  13.734   8.596
69691SOL     OW10969   3.154   5.972   0.974
69691SOL    HW110970   3.075   6.004   1.018
69691SOL    HW210971   3.148   6.009   0.886
69692SOL     OW10972  14.673   2.655   6.892
69692SOL    HW110973  14.626   2.714   6.833
69692SOL    HW210974  14.611   2.584   6.909
69693SOL     OW10975   5.393   8.337   9.015
69693SOL    HW110976   5.356   8.387   9.088
69693SOL    HW210977   5.326   8.341   8.947
69694SOL     OW10978   3.316   7.207   0.947
69694SOL    HW110979   3.294   7.129   0.897
69694SOL    HW210980   3.378   7.255   0.891
69695SOL     OW10981  13.332   5.470  14.024
69695SOL    HW110982  13.351   5.564  14.027
69695SOL    HW210983  13.401   5.429  14.076
69696SOL     OW10984  10.322  11.744   7.806
69696SOL    HW110985  10.296  11.820   7.754
69696SOL    HW210986  10.330  11.673   7.742
69697SOL     OW10987  13.341   2.681  11.716
69697SOL    HW110988  13.367   2.701  11.805
69697SOL    HW210989  13.281   2.751  11.691
69698SOL     OW10990   5.040   8.443  13.392
69698SOL    HW110991   5.063   8.360  13.351
69698SOL    HW210992   5.116   8.462  13.448
69699SOL     OW10993   2.721   6.897  14.785
69699SOL    HW110994   2.780   6.931  14.852
69699SOL    HW210995   2.764   6.918  14.702
69700SOL     OW10996   3.263   5.400   6.385
69700SOL    HW110997   3.188   5.398   6.326
69700SOL    HW210998   3.269   5.491   6.413
69701SOL     OW10999   1.928  14.691   2.300
69701SOL    HW111000   1.965  14.722   2.383
69701SOL    HW211001   1.911  14.771   2.250
69702SOL     OW11002   7.097   5.414  12.628
69702SOL    HW111003   7.032   5.408  12.557
69702SOL    HW211004   7.061   5.479  12.687
69703SOL     OW11005   9.297   7.887   5.021
69703SOL    HW111006   9.224   7.848   4.972
69703SOL    HW211007   9.260   7.906   5.107
69704SOL     OW11008  12.543  10.567   5.998
69704SOL    HW111009  12.608  10.554   5.930
69704SOL    HW211010  12.581  10.631   6.057
69705SOL     OW11011   3.534   9.422   0.946
69705SOL    HW111012   3.600   9.420   1.016
69705SOL    HW211013   3.454   9.451   0.990
69706SOL     OW11014   2.068  10.726   1.049
69706SOL    HW111015   2.085  10.729   0.955
69706SOL    HW211016   1.978  10.757   1.059
69707SOL     OW11017  12.704  14.072   4.733
69707SOL    HW111018  12.641  14.015   4.690
69707SOL    HW211019  12.663  14.158   4.733
69708SOL     OW11020   6.805   9.305   2.555
69708SOL    HW111021   6.890   9.296   2.597
69708SOL    HW211022   6.822   9.289   2.462
69709SOL     OW11023   0.213   0.351   1.566
69709SOL    HW111024   0.249   0.294   1.498
69709SOL    HW211025   0.163   0.417   1.518
69710SOL     OW11026   7.872   2.212   5.299
69710SOL    HW111027   7.895   2.264   5.375
69710SOL    HW211028   7.795   2.162   5.326
69711SOL     OW11029  11.106  11.375   5.090
69711SOL    HW111030  11.128  11.380   4.997
69711SOL    HW211031  11.095  11.281   5.107
69712SOL     OW11032  10.438   6.014   1.623
69712SOL    HW111033  10.352   6.008   1.581
69712SOL    HW211034  10.418   6.037   1.714
69713SOL     OW11035  14.867  14.731   3.396
69713SOL    HW111036  14.837  14.770   3.478
69713SOL    HW211037   0.087  14.763   3.386
69714SOL     OW11038   7.174   5.015   7.143
69714SOL    HW111039   7.119   5.092   7.131
69714SOL    HW211040   7.202   5.019   7.235
69715SOL     OW11041  14.183   6.114  10.678
69715SOL    HW111042  14.235   6.035  10.661
69715SOL    HW211043  14.115   6.113  10.610
69716SOL     OW11044   6.408   8.489  14.707
69716SOL    HW111045   6.384   8.397  14.708
69716SOL    HW211046   6.325   8.536  14.699
69717SOL     OW11047  14.548   5.580   6.787
69717SOL    HW111048  14.601   5.535   6.853
69717SOL    HW211049  14.509   5.509   6.735
69718SOL     OW11050   0.953  14.090   4.267
69718SOL    HW111051   0.979  14.177   4.236
69718SOL    HW211052   0.940  14.038   4.187
69719SOL     OW11053   8.105   5.876   0.689
69719SOL    HW111054   8.015   5.857   0.662
69719SOL    HW211055   8.097   5.950   0.748
69720SOL     OW11056   4.755   5.241   2.100
69720SOL    HW111057   4.743   5.268   2.008
69720SOL    HW211058   4.790   5.152   2.095
69721SOL     OW11059   2.771   2.244  10.763
69721SOL    HW111060   2.696   2.302  10.751
69721SOL    HW211061   2.741   2.178  10.825
69722SOL     OW11062   2.719  12.880   7.092
69722SOL    HW111063   2.757  12.886   7.179
69722SOL    HW211064   2.778  12.822   7.044
69723SOL     OW11065   3.858   4.740   7.882
69723SOL    HW111066   3.931   4.714   7.827
69723SOL    HW211067   3.786   4.683   7.854
69724SOL     OW11068   4.022  14.528  11.471
69724SOL    HW111069   4.101  14.581  11.488
69724SOL    HW211070   4.056  14.442  11.448
69725SOL     OW11071  12.831   4.806   1.974
69725SOL    HW111072  12.740   4.804   2.001
69725SOL    HW211073  12.843   4.891   1.933
69726SOL     OW11074   9.083  10.189   0.672
69726SOL    HW111075   9.106  10.274   0.708
69726SOL    HW211076   9.006  10.206   0.617
69727SOL     OW11077   6.098   3.941   6.204
69727SOL    HW111078   6.115   3.908   6.292
69727SOL    HW211079   6.028   4.006   6.216
69728SOL     OW11080   2.204   8.710  14.747
69728SOL    HW111081   2.131   8.664  14.704
69728SOL    HW211082   2.240   8.647  14.809
69729SOL     OW11083  14.263   9.319   9.173
69729SOL    HW111084  14.326   9.249   9.151
69729SOL    HW211085  14.287   9.391   9.116
69730SOL     OW11086   5.145   9.894   6.909
69730SOL    HW111087   5.119   9.838   6.982
69730SOL    HW211088   5.238   9.874   6.895
69731SOL     OW11089  13.572   2.136   7.617
69731SOL    HW111090  13.650   2.166   7.571
69731SOL    HW211091  13.500   2.151   7.556
69732SOL     OW11092   2.587  12.121   9.334
69732SOL    HW111093   2.547  12.203   9.304
69732SOL    HW211094   2.675  12.147   9.364
69733SOL     OW11095   4.727   1.285  11.054
69733SOL    HW111096   4.674   1.363  11.064
69733SOL    HW211097   4.806   1.302  11.105
69734SOL     OW11098  10.640   2.363   8.729
69734SOL    HW111099  10.665   2.276   8.759
69734SOL    HW211100  10.618   2.411   8.809
69735SOL     OW11101   0.900   6.936  13.249
69735SOL    HW111102   0.921   6.859  13.301
69735SOL    HW211103   0.845   6.990  13.306
69736SOL     OW11104   8.779   4.331   1.383
69736SOL    HW111105   8.683   4.327   1.380
69736SOL    HW211106   8.808   4.278   1.309
69737SOL     OW11107  11.586   3.345  13.554
69737SOL    HW111108  11.573   3.415  13.490
69737SOL    HW211109  11.601   3.390  13.637
69738SOL     OW11110   5.634  12.480   1.306
69738SOL    HW111111   5.674  12.491   1.220
69738SOL    HW211112   5.565  12.546   1.309
69739SOL     OW11113  11.041   5.691  10.292
69739SOL    HW111114  10.957   5.681  10.335
69739SOL    HW211115  11.041   5.781  10.259
69740SOL     OW11116  13.140   7.736  10.279
69740SOL    HW111117  13.061   7.722  10.226
69740SOL    HW211118  13.212   7.715  10.219
69741SOL     OW11119   5.331  14.081  14.336
69741SOL    HW111120   5.359  14.020  14.268
69741SOL    HW211121   5.326  14.027  14.415
69742SOL     OW11122   8.128   5.091   8.586
69742SOL    HW111123   8.069   5.072   8.513
69742SOL    HW211124   8.208   5.042   8.565
69743SOL     OW11125   2.169  12.464   8.387
69743SOL    HW111126   2.184  12.549   8.429
69743SOL    HW211127   2.191  12.478   8.295
69744SOL     OW11128   3.586   7.723   0.786
69744SOL    HW111129   3.570   7.687   0.699
69744SOL    HW211130   3.670   7.768   0.778
69745SOL     OW11131  14.773   0.242   9.856
69745SOL    HW111132  14.694   0.289   9.828
69745SOL    HW211133  14.746   0.150   9.860
69746SOL     OW11134  14.673   1.752   9.963
69746SOL    HW111135  14.643   1.715  10.046
69746SOL    HW211136  14.767   1.765   9.974
69747SOL     OW11137   3.548  10.276  14.538
69747SOL    HW111138   3.595  10.241  14.614
69747SOL    HW211139   3.599  10.353  14.512
69748SOL     OW11140   2.681   9.013  10.911
69748SOL    HW111141   2.767   8.974  10.896
69748SOL    HW211142   2.687   9.051  10.999
69749SOL     OW11143   6.954   1.830   2.630
69749SOL    HW111144   6.970   1.739   2.656
69749SOL    HW211145   7.005   1.842   2.550
69750SOL     OW11146   7.405  13.453   2.647
69750SOL    HW111147   7.435  13.495   2.727
69750SOL    HW211148   7.462  13.488   2.578
69751SOL     OW11149   9.693  12.064   0.173
69751SOL    HW111150   9.665  12.116   0.248
69751SOL    HW211151   9.617  12.009   0.152
69752SOL     OW11152   9.601  10.752   2.247
69752SOL    HW111153   9.639  10.672   2.211
69752SOL    HW211154   9.666  10.783   2.311
69753SOL     OW11155   0.867   6.613  13.700
69753SOL    HW111156   0.792   6.574  13.654
69753SOL    HW211157   0.838   6.701  13.724
69754SOL     OW11158  14.860   1.992  12.461
69754SOL    HW111159  14.809   1.943  12.396
69754SOL    HW211160  14.848   2.084  12.438
69755SOL     OW11161   0.750   0.389   2.659
69755SOL    HW111162   0.769   0.412   2.568
69755SOL    HW211163   0.832   0.403   2.706
69756SOL     OW11164   5.531   8.315  12.701
69756SOL    HW111165   5.506   8.402  12.733
69756SOL    HW211166   5.480   8.254  12.755
69757SOL     OW11167  11.232  13.853   8.988
69757SOL    HW111168  11.190  13.809   8.914
69757SOL    HW211169  11.179  13.828   9.064
69758SOL     OW11170   3.300   7.586   2.527
69758SOL    HW111171   3.236   7.514   2.522
69758SOL    HW211172   3.344   7.583   2.442
69759SOL     OW11173  11.805   6.987   8.975
69759SOL    HW111174  11.770   6.929   8.907
69759SOL    HW211175  11.777   6.947   9.057
69760SOL     OW11176   9.103  14.755   9.710
69760SOL    HW111177   9.157  14.816   9.760
69760SOL    HW211178   9.051  14.709   9.776
69761SOL     OW11179  14.524   2.954   7.267
69761SOL    HW111180  14.598   2.894   7.268
69761SOL    HW211181  14.453   2.905   7.310
69762SOL     OW11182   8.861  14.123   1.650
69762SOL    HW111183   8.938  14.074   1.622
69762SOL    HW211184   8.787  14.067   1.627
69763SOL     OW11185  14.620   7.475   4.406
69763SOL    HW111186  14.535   7.468   4.361
69763SOL    HW211187  14.605   7.537   4.477
69764SOL     OW11188   9.204   4.116   0.118
69764SOL    HW111189   9.159   4.050   0.067
69764SOL    HW211190   9.137   4.180   0.140
69765SOL     OW11191   2.723   5.872   8.855
69765SOL    HW111192   2.790   5.805   8.870
69765SOL    HW211193   2.649   5.824   8.818
69766SOL     OW11194   6.879   6.102   7.425
69766SOL    HW111195   6.925   6.103   7.508
69766SOL    HW211196   6.818   6.028   7.432
69767SOL     OW11197  10.387  11.662  10.213
69767SOL    HW111198  10.380  11.714  10.294
69767SOL    HW211199  10.336  11.712  10.149
69768SOL     OW11200   2.905   0.626  10.319
69768SOL    HW111201   2.975   0.562  10.305
69768SOL    HW211202   2.845   0.612  10.246
69769SOL     OW11203   1.455   4.202   2.429
69769SOL    HW111204   1.369   4.240   2.408
69769SOL    HW211205   1.436   4.130   2.489
69770SOL     OW11206   8.309   4.030  14.775
69770SOL    HW111207   8.214   4.036  14.766
69770SOL    HW211208   8.341   4.115  14.748
69771SOL     OW11209   7.381   8.620   3.385
69771SOL    HW111210   7.476   8.615   3.372
69771SOL    HW211211   7.350   8.680   3.317
69772SOL     OW11212  13.534  14.080   6.660
69772SOL    HW111213  13.529  14.004   6.602
69772SOL    HW211214  13.455  14.131   6.639
69773SOL     OW11215   9.115   1.972   8.632
69773SOL    HW111216   9.153   1.943   8.549
69773SOL    HW211217   9.152   1.913   8.697
69774SOL     OW11218   5.912  14.412   3.121
69774SOL    HW111219   5.932  14.502   3.095
69774SOL    HW211220   5.953  14.358   3.053
69775SOL     OW11221   7.826   2.487  11.514
69775SOL    HW111222   7.850   2.403  11.477
69775SOL    HW211223   7.815   2.545  11.438
69776SOL     OW11224   1.160   5.489   1.621
69776SOL    HW111225   1.223   5.483   1.692
69776SOL    HW211226   1.210   5.524   1.547
69777SOL     OW11227   8.470  10.915   1.194
69777SOL    HW111228   8.387  10.872   1.213
69777SOL    HW211229   8.446  11.002   1.161
69778SOL     OW11230  12.322  14.580   0.502
69778SOL    HW111231  12.318  14.513   0.433
69778SOL    HW211232  12.358  14.535   0.578
69779SOL     OW11233  12.674   6.153   7.567
69779SOL    HW111234  12.594   6.103   7.584
69779SOL    HW211235  12.665   6.183   7.476
69780SOL     OW11236   5.804  12.702   1.968
69780SOL    HW111237   5.708  12.709   1.966
69780SOL    HW211238   5.835  12.788   1.939
69781SOL     OW11239  11.653  11.449   7.322
69781SOL    HW111240  11.632  11.539   7.347
69781SOL    HW211241  11.568  11.408   7.305
69782SOL     OW11242   0.770   2.738  13.719
69782SOL    HW111243   0.691   2.684  13.720
69782SOL    HW211244   0.769   2.785  13.802
69783SOL     OW11245   1.047   3.673   8.941
69783SOL    HW111246   1.014   3.762   8.928
69783SOL    HW211247   1.131   3.685   8.985
69784SOL     OW11248  11.483  10.505  13.658
69784SOL    HW111249  11.548  10.467  13.599
69784SOL    HW211250  11.440  10.429  13.697
69785SOL     OW11251   2.903   1.111  14.423
69785SOL    HW111252   2.856   1.042  14.469
69785SOL    HW211253   2.842   1.141  14.355
69786SOL     OW11254   1.300  11.838   4.456
69786SOL    HW111255   1.241  11.912   4.472
69786SOL    HW211256   1.303  11.830   4.361
69787SOL     OW11257   1.363  13.960   6.474
69787SOL    HW111258   1.276  13.991   6.448
69787SOL    HW211259   1.424  14.015   6.425
69788SOL     OW11260   8.038  10.749   3.024
69788SOL    HW111261   7.965  10.765   3.084
69788SOL    HW211262   8.108  10.806   3.056
69789SOL     OW11263   2.554   3.018   0.994
69789SOL    HW111264   2.627   3.078   0.976
69789SOL    HW211265   2.557   2.955   0.922
69790SOL     OW11266   1.922   9.075  12.444
69790SOL    HW111267   1.993   9.069  12.381
69790SOL    HW211268   1.849   9.030  12.402
69791SOL     OW11269  14.302   2.768  11.518
69791SOL    HW111270  14.318   2.821  11.441
69791SOL    HW211271  14.208   2.750  11.516
69792SOL     OW11272   6.173  13.785   1.302
69792SOL    HW111273   6.203  13.718   1.364
69792SOL    HW211274   6.150  13.735   1.223
69793SOL     OW11275   2.731   0.090   4.536
69793SOL    HW111276   2.686   0.145   4.473
69793SOL    HW211277   2.694   0.003   4.523
69794SOL     OW11278  11.629  12.066  13.846
69794SOL    HW111279  11.545  12.039  13.884
69794SOL    HW211280  11.605  12.109  13.764
69795SOL     OW11281   2.442  10.652   8.689
69795SOL    HW111282   2.419  10.732   8.736
69795SOL    HW211283   2.462  10.589   8.758
69796SOL     OW11284  13.128   8.956   4.578
69796SOL    HW111285  13.183   8.990   4.507
69796SOL    HW211286  13.058   8.909   4.533
69797SOL     OW11287   9.044   3.901   9.883
69797SOL    HW111288   8.979   3.888   9.814
69797SOL    HW211289   9.017   3.981   9.928
69798SOL     OW11290   6.020   2.540   4.039
69798SOL    HW111291   5.991   2.459   3.998
69798SOL    HW211292   6.015   2.524   4.133
69799SOL     OW11293   5.227   9.193  13.209
69799SOL    HW111294   5.193   9.140  13.137
69799SOL    HW211295   5.152   9.209  13.265
69800SOL     OW11296   4.718  10.237  11.062
69800SOL    HW111297   4.698  10.217  11.153
69800SOL    HW211298   4.777  10.168  11.034
69801SOL     OW11299  10.440  14.147  10.601
69801SOL    HW111300  10.487  14.073  10.563
69801SOL    HW211301  10.502  14.220  10.599
69802SOL     OW11302   4.054   2.560  13.891
69802SOL    HW111303   4.107   2.481  13.896
69802SOL    HW211304   3.993   2.553  13.964
69803SOL     OW11305   4.431   1.879   6.221
69803SOL    HW111306   4.437   1.966   6.261
69803SOL    HW211307   4.427   1.896   6.127
69804SOL     OW11308   0.389  14.700   8.859
69804SOL    HW111309   0.320  14.700   8.794
69804SOL    HW211310   0.443  14.776   8.837
69805SOL     OW11311   4.566   0.821   0.018
69805SOL    HW111312   4.632   0.864   0.073
69805SOL    HW211313   4.498   0.794   0.080
69806SOL     OW11314   5.689  11.239  12.336
69806SOL    HW111315   5.770  11.194  12.362
69806SOL    HW211316   5.631  11.229  12.411
69807SOL     OW11317   1.972  10.237   7.312
69807SOL    HW111318   2.057  10.210   7.277
69807SOL    HW211319   1.919  10.258   7.235
69808SOL     OW11320   1.569  13.456   7.548
69808SOL    HW111321   1.494  13.492   7.595
69808SOL    HW211322   1.530  13.403   7.478
69809SOL     OW11323   3.037   8.818   9.594
69809SOL    HW111324   3.023   8.865   9.676
69809SOL    HW211325   2.956   8.832   9.544
69810SOL     OW11326   4.633   0.349   4.554
69810SOL    HW111327   4.568   0.385   4.614
69810SOL    HW211328   4.581   0.310   4.483
69811SOL     OW11329   5.199   7.384   2.067
69811SOL    HW111330   5.269   7.397   2.003
69811SOL    HW211331   5.127   7.438   2.036
69812SOL     OW11332  14.192  12.226   9.416
69812SOL    HW111333  14.283  12.240   9.389
69812SOL    HW211334  14.163  12.312   9.447
69813SOL     OW11335   3.049  14.515   1.449
69813SOL    HW111336   3.138  14.482   1.432
69813SOL    HW211337   3.062  14.604   1.481
69814SOL     OW11338  10.711   3.881   2.264
69814SOL    HW111339  10.694   3.793   2.297
69814SOL    HW211340  10.637   3.900   2.206
69815SOL     OW11341   0.727  14.319   3.948
69815SOL    HW111342   0.776  14.255   3.895
69815SOL    HW211343   0.635  14.298   3.931
69816SOL     OW11344  14.594   6.230   0.369
69816SOL    HW111345  14.686   6.256   0.366
69816SOL    HW211346  14.554   6.290   0.432
69817SOL     OW11347  12.394   8.401  13.209
69817SOL    HW111348  12.486   8.424  13.193
69817SOL    HW211349  12.388   8.390  13.304
69818SOL     OW11350  12.182  13.373   0.285
69818SOL    HW111351  12.123  13.430   0.235
69818SOL    HW211352  12.240  13.433   0.331
69819SOL     OW11353  11.512   8.683   2.626
69819SOL    HW111354  11.434   8.628   2.637
69819SOL    HW211355  11.583   8.621   2.607
69820SOL     OW11356   2.727   9.987  10.177
69820SOL    HW111357   2.653   9.935  10.208
69820SOL    HW211358   2.764  10.026  10.256
69821SOL     OW11359   2.133  10.658   3.373
69821SOL    HW111360   2.183  10.688   3.450
69821SOL    HW211361   2.126  10.563   3.386
69822SOL     OW11362   1.042  12.689   0.152
69822SOL    HW111363   0.963  12.662   0.198
69822SOL    HW211364   1.021  12.681   0.059
69823SOL     OW11365   1.434   7.722   0.188
69823SOL    HW111366   1.436   7.645   0.131
69823SOL    HW211367   1.526   7.739   0.209
69824SOL     OW11368  12.192   4.246   3.008
69824SOL    HW111369  12.112   4.295   2.990
69824SOL    HW211370  12.260   4.294   2.961
69825SOL     OW11371   5.054   7.791   7.853
69825SOL    HW111372   5.008   7.721   7.807
69825SOL    HW211373   5.035   7.870   7.802
69826SOL     OW11374   8.981  12.084   8.054
69826SOL    HW111375   9.015  12.005   8.096
69826SOL    HW211376   9.059  12.131   8.023
69827SOL     OW11377  11.415   7.667   7.147
69827SOL    HW111378  11.347   7.726   7.115
69827SOL    HW211379  11.367   7.597   7.191
69828SOL     OW11380   2.874   0.912   7.584
69828SOL    HW111381   2.888   0.879   7.672
69828SOL    HW211382   2.962   0.937   7.554
69829SOL     OW11383   3.986   4.591   3.536
69829SOL    HW111384   3.992   4.686   3.547
69829SOL    HW211385   4.038   4.572   3.457
69830SOL     OW11386   8.245  13.213   6.832
69830SOL    HW111387   8.257  13.279   6.901
69830SOL    HW211388   8.248  13.263   6.750
69831SOL     OW11389   1.515  12.083  14.742
69831SOL    HW111390   1.559  12.077  14.657
69831SOL    HW211391   1.445  12.018  14.737
69832SOL     OW11392  13.873   7.771   9.041
69832SOL    HW111393  13.802   7.799   8.985
69832SOL    HW211394  13.862   7.822   9.122
69833SOL     OW11395   4.690   3.464  10.663
69833SOL    HW111396   4.776   3.427  10.642
69833SOL    HW211397   4.647   3.475  10.578
69834SOL     OW11398  12.844   0.727   4.117
69834SOL    HW111399  12.790   0.688   4.185
69834SOL    HW211400  12.829   0.821   4.127
69835SOL     OW11401   5.004   3.791   5.747
69835SOL    HW111402   5.047   3.863   5.794
69835SOL    HW211403   4.996   3.721   5.811
69836SOL     OW11404  10.793   6.488   6.478
69836SOL    HW111405  10.772   6.444   6.560
69836SOL    HW211406  10.731   6.454   6.414
69837SOL     OW11407   8.783   2.721   7.801
69837SOL    HW111408   8.852   2.657   7.783
69837SOL    HW211409   8.713   2.698   7.740
69838SOL     OW11410   0.308   4.651  14.829
69838SOL    HW111411   0.217   4.676  14.816
69838SOL    HW211412   0.338   4.702   0.035
69839SOL     OW11413   6.387   9.115   4.152
69839SOL    HW111414   6.363   9.104   4.244
69839SOL    HW211415   6.304   9.119   4.106
69840SOL     OW11416  13.360  11.299   4.555
69840SOL    HW111417  13.402  11.368   4.607
69840SOL    HW211418  13.281  11.341   4.520
69841SOL     OW11419   5.422   4.172   7.533
69841SOL    HW111420   5.500   4.220   7.561
69841SOL    HW211421   5.407   4.202   7.443
69842SOL     OW11422   4.918   1.617   4.391
69842SOL    HW111423   4.826   1.632   4.416
69842SOL    HW211424   4.931   1.523   4.404
69843SOL     OW11425  12.856   5.037   9.979
69843SOL    HW111426  12.879   4.945   9.994
69843SOL    HW211427  12.803   5.060  10.056
69844SOL     OW11428  14.107   1.562  14.416
69844SOL    HW111429  14.094   1.650  14.380
69844SOL    HW211430  14.081   1.570  14.508
69845SOL     OW11431  14.061   3.263  10.312
69845SOL    HW111432  14.102   3.344  10.282
69845SOL    HW211433  14.004   3.290  10.383
69846SOL     OW11434   6.765   1.622  12.227
69846SOL    HW111435   6.786   1.669  12.146
69846SOL    HW211436   6.723   1.541  12.197
69847SOL     OW11437  10.594  11.876  14.844
69847SOL    HW111438  10.608  11.855  14.751
69847SOL    HW211439  10.549  11.960  14.843
69848SOL     OW11440   8.648  10.864  13.195
69848SOL    HW111441   8.627  10.952  13.227
69848SOL    HW211442   8.609  10.805  13.259
69849SOL     OW11443   7.410   3.368   5.996
69849SOL    HW111444   7.338   3.331   5.945
69849SOL    HW211445   7.452   3.292   6.037
69850SOL     OW11446   9.436  11.836   1.036
69850SOL    HW111447   9.392  11.872   0.959
69850SOL    HW211448   9.483  11.759   1.003
69851SOL     OW11449   9.126  11.630   4.579
69851SOL    HW111450   9.042  11.609   4.538
69851SOL    HW211451   9.191  11.610   4.512
69852SOL     OW11452   7.340   5.095  10.285
69852SOL    HW111453   7.279   5.053  10.224
69852SOL    HW211454   7.310   5.068  10.371
69853SOL     OW11455  13.241   4.004  11.689
69853SOL    HW111456  13.303   3.936  11.660
69853SOL    HW211457  13.291   4.056  11.751
69854SOL     OW11458  11.496   1.363   1.570
69854SOL    HW111459  11.453   1.418   1.504
69854SOL    HW211460  11.457   1.392   1.653
69855SOL     OW11461   0.898   6.567   8.047
69855SOL    HW111462   0.882   6.560   8.141
69855SOL    HW211463   0.992   6.586   8.040
69856SOL     OW11464   8.948  13.358   5.498
69856SOL    HW111465   9.004  13.301   5.550
69856SOL    HW211466   8.871  13.305   5.478
69857SOL     OW11467   5.394   2.949   1.951
69857SOL    HW111468   5.358   2.994   2.028
69857SOL    HW211469   5.481   2.987   1.940
69858SOL     OW11470   0.414  12.118   2.953
69858SOL    HW111471   0.428  12.196   2.898
69858SOL    HW211472   0.374  12.054   2.894
69859SOL     OW11473  12.757  13.924  11.715
69859SOL    HW111474  12.823  13.893  11.777
69859SOL    HW211475  12.784  14.013  11.695
69860SOL     OW11476   2.059   4.307   6.724
69860SOL    HW111477   2.126   4.239   6.724
69860SOL    HW211478   1.989   4.272   6.668
69861SOL     OW11479   9.761   0.764   5.902
69861SOL    HW111480   9.787   0.705   5.973
69861SOL    HW211481   9.840   0.774   5.850
69862SOL     OW11482  13.871   2.463   1.419
69862SOL    HW111483  13.837   2.516   1.491
69862SOL    HW211484  13.966   2.465   1.431
69863SOL     OW11485   1.603  12.524   0.618
69863SOL    HW111486   1.629  12.612   0.591
69863SOL    HW211487   1.510  12.520   0.598
69864SOL     OW11488  13.549   7.593   4.882
69864SOL    HW111489  13.470   7.647   4.884
69864SOL    HW211490  13.571   7.578   4.974
69865SOL     OW11491  12.165  11.938   1.847
69865SOL    HW111492  12.208  11.877   1.787
69865SOL    HW211493  12.189  11.907   1.935
69866SOL     OW11494  13.074   8.344  11.918
69866SOL    HW111495  12.985   8.325  11.948
69866SOL    HW211496  13.089   8.283  11.846
69867SOL     OW11497   2.010   8.956   2.554
69867SOL    HW111498   1.981   8.928   2.641
69867SOL    HW211499   2.101   8.929   2.550
69868SOL     OW11500  12.664   0.364   6.010
69868SOL    HW111501  12.749   0.405   5.996
69868SOL    HW211502  12.628   0.409   6.086
69869SOL     OW11503   7.771   0.989   7.369
69869SOL    HW111504   7.742   0.898   7.370
69869SOL    HW211505   7.691   1.040   7.377
69870SOL     OW11506  13.721   4.015   1.828
69870SOL    HW111507  13.788   4.071   1.868
69870SOL    HW211508  13.761   3.981   1.749
69871SOL     OW11509   7.376   2.016   1.636
69871SOL    HW111510   7.397   2.108   1.647
69871SOL    HW211511   7.302   2.014   1.576
69872SOL     OW11512  13.100   5.050  12.009
69872SOL    HW111513  13.067   5.122  11.955
69872SOL    HW211514  13.133   4.986  11.946
69873SOL     OW11515   2.193   8.648   7.785
69873SOL    HW111516   2.255   8.634   7.856
69873SOL    HW211517   2.235   8.610   7.707
69874SOL     OW11518   2.189  12.657   4.220
69874SOL    HW111519   2.202  12.591   4.152
69874SOL    HW211520   2.271  12.658   4.270
69875SOL     OW11521   7.142   4.317  13.646
69875SOL    HW111522   7.052   4.296  13.619
69875SOL    HW211523   7.161   4.400  13.603
69876SOL     OW11524  12.086  10.948   0.779
69876SOL    HW111525  12.169  10.905   0.799
69876SOL    HW211526  12.106  11.009   0.708
69877SOL     OW11527   7.171   6.876   6.871
69877SOL    HW111528   7.154   6.865   6.965
69877SOL    HW211529   7.250   6.824   6.854
69878SOL     OW11530   0.267   0.289   0.403
69878SOL    HW111531   0.256   0.382   0.381
69878SOL    HW211532   0.179   0.253   0.405
69879SOL     OW11533   2.089   1.302   1.252
69879SOL    HW111534   2.074   1.347   1.336
69879SOL    HW211535   2.111   1.212   1.277
69880SOL     OW11536   1.080   6.054   7.739
69880SOL    HW111537   1.128   6.071   7.821
69880SOL    HW211538   0.990   6.083   7.757
69881SOL     OW11539   7.362   1.189  12.654
69881SOL    HW111540   7.333   1.141  12.576
69881SOL    HW211541   7.440   1.237  12.624
69882SOL     OW11542  11.899  14.787   7.750
69882SOL    HW111543  11.806  14.806   7.732
69882SOL    HW211544  11.933  14.869   7.787
69883SOL     OW11545   8.657   9.513   0.814
69883SOL    HW111546   8.621   9.442   0.868
69883SOL    HW211547   8.750   9.516   0.838
69884SOL     OW11548   8.931   2.302   8.433
69884SOL    HW111549   9.024   2.285   8.452
69884SOL    HW211550   8.891   2.310   8.520
69885SOL     OW11551   5.607   5.890  12.008
69885SOL    HW111552   5.567   5.866  11.924
69885SOL    HW211553   5.579   5.980  12.023
69886SOL     OW11554   1.308   2.540   7.838
69886SOL    HW111555   1.242   2.608   7.826
69886SOL    HW211556   1.284   2.471   7.776
69887SOL     OW11557   2.304  13.936  13.440
69887SOL    HW111558   2.233  13.897  13.389
69887SOL    HW211559   2.303  14.029  13.415
69888SOL     OW11560   3.312   9.745  13.346
69888SOL    HW111561   3.325   9.668  13.290
69888SOL    HW211562   3.293   9.815  13.284
69889SOL     OW11563  11.283  11.293   8.077
69889SOL    HW111564  11.367  11.287   8.121
69889SOL    HW211565  11.222  11.319   8.146
69890SOL     OW11566  12.908  11.741   0.196
69890SOL    HW111567  12.897  11.836   0.202
69890SOL    HW211568  12.966  11.729   0.121
69891SOL     OW11569   9.405  11.018   0.111
69891SOL    HW111570   9.399  11.106   0.074
69891SOL    HW211571   9.383  10.960   0.038
69892SOL     OW11572   9.383   1.446   2.883
69892SOL    HW111573   9.427   1.500   2.817
69892SOL    HW211574   9.324   1.507   2.928
69893SOL     OW11575   0.190  10.888  11.405
69893SOL    HW111576   0.155  10.851  11.323
69893SOL    HW211577   0.126  10.864  11.471
69894SOL     OW11578   0.258   4.880  13.857
69894SOL    HW111579   0.306   4.846  13.782
69894SOL    HW211580   0.256   4.975  13.843
69895SOL     OW11581   6.722  10.157   8.956
69895SOL    HW111582   6.728  10.065   8.983
69895SOL    HW211583   6.682  10.153   8.869
69896SOL     OW11584   8.093   9.924   6.322
69896SOL    HW111585   8.155   9.916   6.395
69896SOL    HW211586   8.058  10.012   6.331
69897SOL     OW11587   3.810   7.399   2.187
69897SOL    HW111588   3.872   7.326   2.183
69897SOL    HW211589   3.801   7.427   2.095
69898SOL     OW11590   9.567   2.460   3.695
69898SOL    HW111591   9.504   2.455   3.768
69898SOL    HW211592   9.613   2.542   3.709
69899SOL     OW11593   5.553   5.687   7.944
69899SOL    HW111594   5.462   5.694   7.914
69899SOL    HW211595   5.547   5.640   8.027
69900SOL     OW11596  13.752   3.205  10.506
69900SOL    HW111597  13.681   3.158  10.549
69900SOL    HW211598  13.751   3.292  10.546
69901SOL     OW11599  11.447  11.086   1.484
69901SOL    HW111600  11.500  11.035   1.546
69901SOL    HW211601  11.357  11.075   1.515
69902SOL     OW11602   2.870   9.431   5.850
69902SOL    HW111603   2.805   9.386   5.796
69902SOL    HW211604   2.926   9.476   5.788
69903SOL     OW11605  10.961   0.888  10.225
69903SOL    HW111606  10.907   0.890  10.145
69903SOL    HW211607  10.900   0.913  10.295
69904SOL     OW11608   0.941   9.358   6.981
69904SOL    HW111609   0.970   9.444   6.950
69904SOL    HW211610   0.999   9.339   7.055
69905SOL     OW11611  11.154   0.957   2.304
69905SOL    HW111612  11.194   0.886   2.354
69905SOL    HW211613  11.223   0.988   2.246
69906SOL     OW11614   8.935   5.433   4.165
69906SOL    HW111615   8.986   5.467   4.238
69906SOL    HW211616   8.874   5.503   4.143
69907SOL     OW11617   5.467   8.258  14.410
69907SOL    HW111618   5.549   8.270  14.363
69907SOL    HW211619   5.487   8.192  14.477
69908SOL     OW11620   9.609   0.447   1.842
69908SOL    HW111621   9.699   0.480   1.834
69908SOL    HW211622   9.616   0.354   1.822
69909SOL     OW11623   7.141  13.533   7.736
69909SOL    HW111624   7.163  13.620   7.769
69909SOL    HW211625   7.093  13.549   7.655
69910SOL     OW11626  11.589  14.470  12.545
69910SOL    HW111627  11.632  14.398  12.591
69910SOL    HW211628  11.656  14.539  12.540
69911SOL     OW11629   0.123   4.392  10.812
69911SOL    HW111630   0.210   4.427  10.828
69911SOL    HW211631   0.109   4.401  10.718
69912SOL     OW11632  14.758   0.338  13.191
69912SOL    HW111633  14.835   0.371  13.145
69912SOL    HW211634  14.685   0.361  13.134
69913SOL     OW11635  10.985   1.036  11.235
69913SOL    HW111636  11.018   0.957  11.278
69913SOL    HW211637  10.892   1.038  11.256
69914SOL     OW11638  13.846  10.474   7.496
69914SOL    HW111639  13.782  10.544   7.508
69914SOL    HW211640  13.797  10.405   7.450
69915SOL     OW11641   5.535   5.228   8.980
69915SOL    HW111642   5.512   5.258   9.068
69915SOL    HW211643   5.454   5.237   8.929
69916SOL     OW11644   4.646   5.596   5.975
69916SOL    HW111645   4.607   5.677   5.944
69916SOL    HW211646   4.709   5.623   6.042
69917SOL     OW11647   6.804  13.936  14.691
69917SOL    HW111648   6.806  13.915  14.598
69917SOL    HW211649   6.712  13.952  14.710
69918SOL     OW11650  13.337   7.196   8.879
69918SOL    HW111651  13.325   7.101   8.868
69918SOL    HW211652  13.327   7.232   8.792
69919SOL     OW11653  12.323   2.902  11.812
69919SOL    HW111654  12.406   2.855  11.801
69919SOL    HW211655  12.303   2.894  11.905
69920SOL     OW11656   0.297   7.862   3.397
69920SOL    HW111657   0.293   7.775   3.357
69920SOL    HW211658   0.205   7.890   3.403
69921SOL     OW11659   8.439   4.269   9.703
69921SOL    HW111660   8.455   4.187   9.658
69921SOL    HW211661   8.455   4.337   9.637
69922SOL     OW11662   4.665  14.233   6.628
69922SOL    HW111663   4.624  14.320   6.630
69922SOL    HW211664   4.655  14.204   6.537
69923SOL     OW11665  10.603  14.311   7.166
69923SOL    HW111666  10.580  14.391   7.213
69923SOL    HW211667  10.529  14.253   7.181
69924SOL     OW11668  14.543  12.810   3.726
69924SOL    HW111669  14.601  12.832   3.654
69924SOL    HW211670  14.601  12.775   3.794
69925SOL     OW11671   5.627  13.062   2.301
69925SOL    HW111672   5.546  13.015   2.324
69925SOL    HW211673   5.693  13.026   2.360
69926SOL     OW11674  12.144   1.704   7.959
69926SOL    HW111675  12.208   1.637   7.982
69926SOL    HW211676  12.063   1.676   8.002
69927SOL     OW11677   1.047  13.733   9.396
69927SOL    HW111678   1.096  13.740   9.314
69927SOL    HW211679   0.955  13.725   9.368
69928SOL     OW11680   4.236   3.764   6.235
69928SOL    HW111681   4.306   3.711   6.197
69928SOL    HW211682   4.188   3.798   6.160
69929SOL     OW11683   2.836   5.426  11.653
69929SOL    HW111684   2.837   5.519  11.677
69929SOL    HW211685   2.884   5.423  11.570
69930SOL     OW11686   2.619   2.544   5.449
69930SOL    HW111687   2.675   2.500   5.513
69930SOL    HW211688   2.536   2.496   5.453
69931SOL     OW11689   1.359   2.818  11.136
69931SOL    HW111690   1.395   2.896  11.178
69931SOL    HW211691   1.277   2.847  11.097
69932SOL     OW11692  11.251   1.945   5.265
69932SOL    HW111693  11.305   1.937   5.186
69932SOL    HW211694  11.196   2.021   5.249
69933SOL     OW11695  10.401   3.957   3.144
69933SOL    HW111696  10.434   3.972   3.232
69933SOL    HW211697  10.388   3.863   3.138
69934SOL     OW11698   7.168   4.171  14.056
69934SOL    HW111699   7.149   4.253  14.010
69934SOL    HW211700   7.092   4.115  14.037
69935SOL     OW11701   9.436  10.942  13.956
69935SOL    HW111702   9.367  10.952  14.022
69935SOL    HW211703   9.489  11.021  13.965
69936SOL     OW11704  11.172  11.226  14.754
69936SOL    HW111705  11.183  11.214  14.849
69936SOL    HW211706  11.078  11.239  14.742
69937SOL     OW11707  12.703   8.225   7.690
69937SOL    HW111708  12.675   8.279   7.764
69937SOL    HW211709  12.735   8.287   7.625
69938SOL     OW11710  14.397  13.865  11.144
69938SOL    HW111711  14.390  13.784  11.092
69938SOL    HW211712  14.329  13.857  11.210
69939SOL     OW11713  14.549   6.772   8.163
69939SOL    HW111714  14.622   6.834   8.167
69939SOL    HW211715  14.557   6.721   8.244
69940SOL     OW11716   4.936   0.241  11.106
69940SOL    HW111717   4.886   0.245  11.188
69940SOL    HW211718   4.878   0.282  11.041
69941SOL     OW11719  12.045   2.635   3.598
69941SOL    HW111720  12.004   2.552   3.574
69941SOL    HW211721  11.972   2.696   3.609
69942SOL     OW11722   7.382  13.848   7.279
69942SOL    HW111723   7.413  13.906   7.349
69942SOL    HW211724   7.461  13.811   7.241
69943SOL     OW11725   6.124   2.936  12.497
69943SOL    HW111726   6.169   2.898  12.573
69943SOL    HW211727   6.153   3.027  12.495
69944SOL     OW11728   8.525   2.858   0.485
69944SOL    HW111729   8.447   2.894   0.442
69944SOL    HW211730   8.592   2.926   0.472
69945SOL     OW11731   3.501   4.009  10.621
69945SOL    HW111732   3.424   3.956  10.646
69945SOL    HW211733   3.576   3.956  10.649
69946SOL     OW11734   5.439  11.747   5.600
69946SOL    HW111735   5.392  11.799   5.666
69946SOL    HW211736   5.512  11.709   5.649
69947SOL     OW11737   8.038   8.120   2.348
69947SOL    HW111738   8.131   8.099   2.335
69947SOL    HW211739   8.029   8.132   2.442
69948SOL     OW11740  10.975   6.774  13.581
69948SOL    HW111741  11.049   6.715  13.567
69948SOL    HW211742  11.015   6.855  13.613
69949SOL     OW11743  11.894   0.007  11.269
69949SOL    HW111744  11.865   0.098  11.261
69949SOL    HW211745  11.936   0.003  11.355
69950SOL     OW11746   2.987  10.585   9.351
69950SOL    HW111747   2.942  10.602   9.268
69950SOL    HW211748   2.997  10.489   9.353
69951SOL     OW11749   6.573   4.238   8.197
69951SOL    HW111750   6.609   4.268   8.280
69951SOL    HW211751   6.497   4.294   8.183
69952SOL     OW11752   6.016   4.442   8.110
69952SOL    HW111753   5.995   4.453   8.203
69952SOL    HW211754   5.995   4.350   8.091
69953SOL     OW11755  12.053  10.648   5.309
69953SOL    HW111756  12.027  10.618   5.396
69953SOL    HW211757  11.972  10.684   5.271
69954SOL     OW11758   7.705   9.387   8.694
69954SOL    HW111759   7.715   9.394   8.599
69954SOL    HW211760   7.749   9.465   8.728
69955SOL     OW11761  13.721   2.054   0.300
69955SOL    HW111762  13.687   1.977   0.347
69955SOL    HW211763  13.645   2.091   0.257
69956SOL     OW11764  12.858   3.773   5.104
69956SOL    HW111765  12.772   3.732   5.097
69956SOL    HW211766  12.850   3.854   5.054
69957SOL     OW11767   2.620  13.968  11.164
69957SOL    HW111768   2.531  13.934  11.175
69957SOL    HW211769   2.611  14.062  11.180
69958SOL     OW11770   9.767   0.855  13.463
69958SOL    HW111771   9.699   0.880  13.526
69958SOL    HW211772   9.834   0.812  13.515
69959SOL     OW11773   8.099   6.160   0.774
69959SOL    HW111774   8.116   6.204   0.858
69959SOL    HW211775   8.170   6.189   0.717
69960SOL     OW11776   2.093  10.829   8.918
69960SOL    HW111777   2.041  10.905   8.893
69960SOL    HW211778   2.152  10.815   8.843
69961SOL     OW11779   5.380   8.260   8.617
69961SOL    HW111780   5.326   8.284   8.691
69961SOL    HW211781   5.423   8.179   8.643
69962SOL     OW11782   5.133   6.134   0.416
69962SOL    HW111783   5.176   6.178   0.343
69962SOL    HW211784   5.201   6.127   0.483
69963SOL     OW11785   1.528   0.813   0.680
69963SOL    HW111786   1.467   0.745   0.651
69963SOL    HW211787   1.565   0.779   0.761
69964SOL     OW11788   8.557   1.083   8.288
69964SOL    HW111789   8.533   1.084   8.196
69964SOL    HW211790   8.474   1.079   8.335
69965SOL     OW11791  13.601  13.217   1.536
69965SOL    HW111792  13.677  13.241   1.482
69965SOL    HW211793  13.602  13.280   1.608
69966SOL     OW11794  10.553   5.987  11.413
69966SOL    HW111795  10.524   5.932  11.485
69966SOL    HW211796  10.635   5.946  11.383
69967SOL     OW11797  10.371   3.051  14.279
69967SOL    HW111798  10.326   3.134  14.263
69967SOL    HW211799  10.387   3.050  14.374
69968SOL     OW11800  10.741   1.456   0.871
69968SOL    HW111801  10.652   1.488   0.884
69968SOL    HW211802  10.795   1.535   0.866
69969SOL     OW11803   5.371   9.325   1.920
69969SOL    HW111804   5.311   9.317   1.846
69969SOL    HW211805   5.365   9.241   1.966
69970SOL     OW11806   1.142   5.359  13.502
69970SOL    HW111807   1.150   5.450  13.474
69970SOL    HW211808   1.078   5.321  13.441
69971SOL     OW11809   9.408   7.171   3.090
69971SOL    HW111810   9.420   7.136   3.001
69971SOL    HW211811   9.429   7.097   3.147
69972SOL     OW11812   1.494  12.199   0.547
69972SOL    HW111813   1.563  12.133   0.533
69972SOL    HW211814   1.419  12.148   0.578
69973SOL     OW11815   2.409   7.029   9.134
69973SOL    HW111816   2.434   7.075   9.213
69973SOL    HW211817   2.387   6.941   9.163
69974SOL     OW11818   9.745   4.758  13.321
69974SOL    HW111819   9.719   4.817  13.250
69974SOL    HW211820   9.667   4.752  13.377
69975SOL     OW11821   5.230   9.977  10.027
69975SOL    HW111822   5.157  10.012   9.976
69975SOL    HW211823   5.267   9.908   9.971
69976SOL     OW11824   7.918   5.900   8.237
69976SOL    HW111825   7.854   5.830   8.242
69976SOL    HW211826   8.003   5.856   8.244
69977SOL     OW11827   8.064  14.405   6.904
69977SOL    HW111828   8.144  14.355   6.924
69977SOL    HW211829   7.998  14.338   6.886
69978SOL     OW11830  13.668  11.165   4.573
69978SOL    HW111831  13.663  11.078   4.614
69978SOL    HW211832  13.695  11.223   4.644
69979SOL     OW11833   1.755   3.587   4.594
69979SOL    HW111834   1.828   3.534   4.624
69979SOL    HW211835   1.696   3.592   4.670
69980SOL     OW11836  13.908   1.701  12.592
69980SOL    HW111837  13.971   1.629  12.600
69980SOL    HW211838  13.945   1.757  12.523
69981SOL     OW11839  12.383  14.605  13.636
69981SOL    HW111840  12.416  14.630  13.722
69981SOL    HW211841  12.456  14.558  13.596
69982SOL     OW11842   5.540  14.547   2.324
69982SOL    HW111843   5.473  14.480   2.309
69982SOL    HW211844   5.619  14.512   2.282
69983SOL     OW11845   6.852   1.106   4.234
69983SOL    HW111846   6.927   1.046   4.233
69983SOL    HW211847   6.791   1.068   4.170
69984SOL     OW11848  10.832   5.976   6.420
69984SOL    HW111849  10.821   6.027   6.340
69984SOL    HW211850  10.904   6.019   6.466
69985SOL     OW11851  13.597  11.750  12.232
69985SOL    HW111852  13.561  11.743  12.320
69985SOL    HW211853  13.522  11.741  12.174
69986SOL     OW11854   5.840  13.697   3.244
69986SOL    HW111855   5.918  13.641   3.242
69986SOL    HW211856   5.875  13.786   3.242
69987SOL     OW11857  14.338  12.250   0.140
69987SOL    HW111858  14.370  12.269   0.051
69987SOL    HW211859  14.261  12.305   0.150
69988SOL     OW11860   4.679   4.932  11.149
69988SOL    HW111861   4.759   4.950  11.199
69988SOL    HW211862   4.611   4.984  11.192
69989SOL     OW11863  14.562   1.123   8.439
69989SOL    HW111864  14.646   1.106   8.397
69989SOL    HW211865  14.499   1.072   8.390
69990SOL     OW11866   9.477   2.979   4.727
69990SOL    HW111867   9.523   2.936   4.655
69990SOL    HW211868   9.394   3.008   4.688
69991SOL     OW11869  13.193   2.141   4.807
69991SOL    HW111870  13.159   2.173   4.890
69991SOL    HW211871  13.115   2.131   4.751
69992SOL     OW11872   4.844   6.057   4.095
69992SOL    HW111873   4.763   6.011   4.073
69992SOL    HW211874   4.823   6.105   4.175
69993SOL     OW11875  10.860   6.497   9.219
69993SOL    HW111876  10.843   6.491   9.313
69993SOL    HW211877  10.851   6.407   9.187
69994SOL     OW11878   4.834   0.182  14.811
69994SOL    HW111879   4.919   0.167  14.851
69994SOL    HW211880   4.810   0.271  14.838
69995SOL     OW11881  11.643  14.571  13.040
69995SOL    HW111882  11.653  14.488  12.994
69995SOL    HW211883  11.677  14.554  13.128
69996SOL     OW11884  12.874   8.883   4.481
69996SOL    HW111885  12.837   8.971   4.476
69996SOL    HW211886  12.821   8.832   4.421
69997SOL     OW11887   2.509   9.149   9.235
69997SOL    HW111888   2.573   9.077   9.234
69997SOL    HW211889   2.488   9.161   9.327
69998SOL     OW11890   0.930  12.180   4.394
69998SOL    HW111891   0.971  12.264   4.414
69998SOL    HW211892   0.940  12.170   4.299
69999SOL     OW11893   8.833  10.524   5.568
69999SOL    HW111894   8.820  10.440   5.524
69999SOL    HW211895   8.873  10.502   5.652
70000SOL     OW11896   9.748   1.414   3.829
70000SOL    HW111897   9.664   1.392   3.870
70000SOL    HW211898   9.725   1.454   3.746
70001SOL     OW11899   2.922   8.216   4.154
70001SOL    HW111900   2.951   8.197   4.065
70001SOL    HW211901   2.875   8.299   4.146
70002SOL     OW11902   0.399   3.580   3.416
70002SOL    HW111903   0.447   3.501   3.391
70002SOL    HW211904   0.396   3.576   3.512
70003SOL     OW11905   0.261   7.837   4.035
70003SOL    HW111906   0.172   7.805   4.020
70003SOL    HW211907   0.250   7.909   4.098
70004SOL     OW11908   0.899  11.055   5.445
70004SOL    HW111909   0.956  11.116   5.399
70004SOL    HW211910   0.940  10.970   5.432
70005SOL     OW11911   1.930   9.817   9.687
70005SOL    HW111912   1.932   9.905   9.725
70005SOL    HW211913   1.926   9.759   9.763
70006SOL     OW11914  12.127   6.263   0.470
70006SOL    HW111915  12.039   6.251   0.434
70006SOL    HW211916  12.119   6.235   0.561
70007SOL     OW11917   8.199  13.021   1.785
70007SOL    HW111918   8.281  13.021   1.834
70007SOL    HW211919   8.219  13.067   1.703
70008SOL     OW11920  12.756   3.052   8.830
70008SOL    HW111921  12.713   3.102   8.761
70008SOL    HW211922  12.849   3.055   8.807
70009SOL     OW11923   6.189   6.620  11.638
70009SOL    HW111924   6.157   6.574  11.561
70009SOL    HW211925   6.285   6.614  11.632
70010SOL     OW11926   8.981  10.998   8.370
70010SOL    HW111927   8.906  11.038   8.326
70010SOL    HW211928   8.943  10.953   8.446
70011SOL     OW11929   9.221  14.098  11.692
70011SOL    HW111930   9.236  14.160  11.764
70011SOL    HW211931   9.249  14.013  11.726
70012SOL     OW11932  12.707   7.685   2.761
70012SOL    HW111933  12.708   7.590   2.773
70012SOL    HW211934  12.633   7.701   2.702
70013SOL     OW11935  12.071   0.396  14.019
70013SOL    HW111936  12.018   0.460  13.972
70013SOL    HW211937  12.150   0.386  13.966
70014SOL     OW11938   9.311   3.684  12.846
70014SOL    HW111939   9.401   3.678  12.878
70014SOL    HW211940   9.297   3.603  12.798
70015SOL     OW11941   7.285  11.916   5.046
70015SOL    HW111942   7.283  11.855   4.972
70015SOL    HW211943   7.196  11.916   5.080
70016SOL     OW11944  12.685   5.002   4.416
70016SOL    HW111945  12.703   5.092   4.389
70016SOL    HW211946  12.616   4.972   4.356
70017SOL     OW11947  11.107   5.402  14.847
70017SOL    HW111948  11.152   5.460  14.785
70017SOL    HW211949  11.035   5.455   0.012
70018SOL     OW11950   7.289   9.801   0.697
70018SOL    HW111951   7.231   9.774   0.768
70018SOL    HW211952   7.240   9.783   0.617
70019SOL     OW11953  11.045  11.159  12.795
70019SOL    HW111954  10.998  11.178  12.876
70019SOL    HW211955  11.079  11.070  12.806
70020SOL     OW11956   1.343   9.996  12.528
70020SOL    HW111957   1.361  10.009  12.435
70020SOL    HW211958   1.428  10.004  12.570
70021SOL     OW11959   1.159   4.140  11.713
70021SOL    HW111960   1.106   4.060  11.713
70021SOL    HW211961   1.228   4.123  11.776
70022SOL     OW11962  11.816   2.437  12.958
70022SOL    HW111963  11.848   2.382  13.030
70022SOL    HW211964  11.762   2.377  12.906
70023SOL     OW11965   7.288  11.466   8.802
70023SOL    HW111966   7.213  11.456   8.860
70023SOL    HW211967   7.362  11.431   8.851
70024SOL     OW11968   6.418  12.441  13.713
70024SOL    HW111969   6.433  12.479  13.800
70024SOL    HW211970   6.489  12.378  13.701
70025SOL     OW11971   6.920   6.144   3.014
70025SOL    HW111972   6.832   6.127   3.049
70025SOL    HW211973   6.976   6.079   3.056
70026SOL     OW11974   5.460   9.814   7.957
70026SOL    HW111975   5.434   9.743   8.016
70026SOL    HW211976   5.459   9.892   8.011
70027SOL     OW11977   3.887  14.523  13.957
70027SOL    HW111978   3.843  14.448  13.996
70027SOL    HW211979   3.817  14.576  13.920
70028SOL     OW11980  12.830  10.607   9.021
70028SOL    HW111981  12.835  10.531   8.963
70028SOL    HW211982  12.912  10.653   9.007
70029SOL     OW11983   9.234  11.659  14.620
70029SOL    HW111984   9.213  11.680  14.529
70029SOL    HW211985   9.309  11.715  14.641
70030SOL     OW11986   2.839   9.911   8.354
70030SOL    HW111987   2.895   9.879   8.426
70030SOL    HW211988   2.848  10.006   8.358
70031SOL     OW11989   0.571   1.634  12.682
70031SOL    HW111990   0.565   1.667  12.771
70031SOL    HW211991   0.481   1.630  12.651
70032SOL     OW11992   0.837   8.768   0.586
70032SOL    HW111993   0.760   8.771   0.529
70032SOL    HW211994   0.898   8.711   0.541
70033SOL     OW11995   0.645   1.829   2.820
70033SOL    HW111996   0.709   1.759   2.808
70033SOL    HW211997   0.592   1.801   2.895
70034SOL     OW11998   5.400   9.756  13.788
70034SOL    HW111999   5.455   9.824  13.748
70034SOL    HW212000   5.357   9.800  13.861
70035SOL     OW12001   2.127   0.449   4.484
70035SOL    HW112002   2.219   0.448   4.511
70035SOL    HW212003   2.120   0.379   4.419
70036SOL     OW12004   2.265   8.242   6.335
70036SOL    HW112005   2.302   8.264   6.421
70036SOL    HW212006   2.255   8.147   6.337
70037SOL     OW12007  11.138   0.152   1.703
70037SOL    HW112008  11.182   0.229   1.739
70037SOL    HW212009  11.091   0.185   1.627
70038SOL     OW12010  11.612   3.887  12.827
70038SOL    HW112011  11.608   3.938  12.745
70038SOL    HW212012  11.529   3.839  12.829
70039SOL     OW12013   1.005   2.466   4.472
70039SOL    HW112014   0.933   2.465   4.535
70039SOL    HW212015   1.043   2.378   4.478
70040SOL     OW12016  12.171   8.010   1.650
70040SOL    HW112017  12.128   8.095   1.637
70040SOL    HW212018  12.260   8.033   1.676
70041SOL     OW12019   4.883   9.482   8.073
70041SOL    HW112020   4.935   9.461   8.151
70041SOL    HW212021   4.937   9.452   8.000
70042SOL     OW12022  14.045   5.673   7.524
70042SOL    HW112023  13.955   5.655   7.549
70042SOL    HW212024  14.050   5.651   7.431
70043SOL     OW12025   9.661  10.475   8.641
70043SOL    HW112026   9.732  10.531   8.611
70043SOL    HW212027   9.661  10.484   8.736
70044SOL     OW12028  11.980   2.547   0.366
70044SOL    HW112029  11.914   2.617   0.362
70044SOL    HW212030  12.063   2.592   0.349
70045SOL     OW12031   6.951   1.478  14.332
70045SOL    HW112032   6.964   1.466  14.426
70045SOL    HW212033   6.997   1.403  14.292
70046SOL     OW12034  13.155   7.003  14.188
70046SOL    HW112035  13.066   7.028  14.163
70046SOL    HW212036  13.205   7.007  14.106
70047SOL     OW12037  10.893  11.815   0.106
70047SOL    HW112038  10.801  11.823   0.133
70047SOL    HW212039  10.891  11.826   0.011
70048SOL     OW12040  10.799   1.003   9.536
70048SOL    HW112041  10.781   1.038   9.449
70048SOL    HW212042  10.861   1.064   9.575
70049SOL     OW12043   9.800   7.719  13.712
70049SOL    HW112044   9.710   7.733  13.741
70049SOL    HW212045   9.836   7.807  13.702
70050SOL     OW12046   1.313   9.387  11.392
70050SOL    HW112047   1.328   9.322  11.323
70050SOL    HW212048   1.360   9.352  11.468
70051SOL     OW12049   5.473  12.041   8.895
70051SOL    HW112050   5.556  12.078   8.927
70051SOL    HW212051   5.462  11.960   8.945
70052SOL     OW12052   4.845   2.454   5.254
70052SOL    HW112053   4.807   2.481   5.170
70052SOL    HW212054   4.803   2.370   5.273
70053SOL     OW12055   0.928   2.387  10.980
70053SOL    HW112056   0.963   2.475  10.966
70053SOL    HW212057   0.938   2.344  10.895
70054SOL     OW12058   0.141   4.112   6.755
70054SOL    HW112059   0.098   4.189   6.719
70054SOL    HW212060   0.232   4.118   6.725
70055SOL     OW12061   5.059   0.811   4.635
70055SOL    HW112062   5.097   0.896   4.610
70055SOL    HW212063   5.134   0.751   4.637
70056SOL     OW12064   2.143  11.180  10.017
70056SOL    HW112065   2.124  11.155   9.927
70056SOL    HW212066   2.106  11.268  10.026
70057SOL     OW12067  14.085  14.055  13.749
70057SOL    HW112068  14.141  14.122  13.788
70057SOL    HW212069  14.115  14.049  13.658
70058SOL     OW12070  10.223   1.549   7.070
70058SOL    HW112071  10.200   1.638   7.040
70058SOL    HW212072  10.142   1.499   7.059
70059SOL     OW12073   8.661   3.302  10.921
70059SOL    HW112074   8.589   3.244  10.897
70059SOL    HW212075   8.624   3.358  10.990
70060SOL     OW12076   8.368   5.978   4.965
70060SOL    HW112077   8.393   5.910   4.903
70060SOL    HW212078   8.272   5.977   4.965
70061SOL     OW12079  10.034   9.437   0.910
70061SOL    HW112080  10.013   9.348   0.938
70061SOL    HW212081  10.102   9.465   0.972
70062SOL     OW12082   8.767  13.023  12.544
70062SOL    HW112083   8.831  13.061  12.484
70062SOL    HW212084   8.696  13.086  12.546
70063SOL     OW12085   9.335   7.439   7.735
70063SOL    HW112086   9.294   7.360   7.771
70063SOL    HW212087   9.424   7.412   7.715
70064SOL     OW12088  13.269   0.204   8.068
70064SOL    HW112089  13.206   0.275   8.074
70064SOL    HW212090  13.320   0.223   7.989
70065SOL     OW12091  14.197   7.727   5.985
70065SOL    HW112092  14.102   7.741   5.979
70065SOL    HW212093  14.220   7.753   6.074
70066SOL     OW12094   6.079  10.788   2.788
70066SOL    HW112095   6.172  10.800   2.770
70066SOL    HW212096   6.035  10.821   2.709
70067SOL     OW12097   2.920   2.365   0.936
70067SOL    HW112098   2.940   2.434   0.872
70067SOL    HW212099   2.854   2.310   0.894
70068SOL     OW12100   8.737   1.303  10.838
70068SOL    HW112101   8.782   1.218  10.834
70068SOL    HW212102   8.714   1.313  10.930
70069SOL     OW12103   6.265  12.095   4.822
70069SOL    HW112104   6.359  12.079   4.826
70069SOL    HW212105   6.229  12.045   4.895
70070SOL     OW12106   1.437  12.594   6.068
70070SOL    HW112107   1.514  12.641   6.099
70070SOL    HW212108   1.368  12.660   6.064
70071SOL     OW12109  10.393  14.204   8.767
70071SOL    HW112110  10.459  14.232   8.704
70071SOL    HW212111  10.394  14.109   8.762
70072SOL     OW12112   8.994  10.999   5.494
70072SOL    HW112113   8.938  10.932   5.532
70072SOL    HW212114   9.075  10.994   5.545
70073SOL     OW12115  13.702  12.497   0.640
70073SOL    HW112116  13.762  12.427   0.666
70073SOL    HW212117  13.625  12.484   0.696
70074SOL     OW12118   5.279   0.698  10.309
70074SOL    HW112119   5.225   0.625  10.341
70074SOL    HW212120   5.253   0.707  10.217
70075SOL     OW12121   1.124   1.587  10.670
70075SOL    HW112122   1.077   1.516  10.714
70075SOL    HW212123   1.216   1.568  10.688
70076SOL     OW12124   8.054   7.943  10.151
70076SOL    HW112125   8.118   7.990  10.097
70076SOL    HW212126   8.039   8.001  10.226
70077SOL     OW12127   6.211   5.312   3.899
70077SOL    HW112128   6.181   5.255   3.828
70077SOL    HW212129   6.279   5.366   3.860
70078SOL     OW12130  11.652   8.333   8.112
70078SOL    HW112131  11.721   8.269   8.093
70078SOL    HW212132  11.697   8.403   8.158
70079SOL     OW12133   8.907   4.248  13.705
70079SOL    HW112134   8.871   4.159  13.700
70079SOL    HW212135   8.865   4.295  13.632
70080SOL     OW12136   2.749   5.661  13.969
70080SOL    HW112137   2.809   5.658  13.894
70080SOL    HW212138   2.681   5.597  13.949
70081SOL     OW12139   6.347  10.422   5.219
70081SOL    HW112140   6.256  10.452   5.222
70081SOL    HW212141   6.394  10.482   5.277
70082SOL     OW12142   5.043   1.248  13.783
70082SOL    HW112143   5.106   1.176  13.790
70082SOL    HW212144   4.959   1.205  13.769
70083SOL     OW12145  14.650  12.503   7.519
70083SOL    HW112146  14.566  12.548   7.508
70083SOL    HW212147  14.681  12.487   7.430
70084SOL     OW12148   2.465   5.537   7.787
70084SOL    HW112149   2.399   5.512   7.722
70084SOL    HW212150   2.415   5.567   7.863
70085SOL     OW12151   9.247   2.670   5.689
70085SOL    HW112152   9.244   2.740   5.624
70085SOL    HW212153   9.258   2.715   5.773
70086SOL     OW12154  14.539   4.226   1.848
70086SOL    HW112155  14.598   4.174   1.903
70086SOL    HW212156  14.501   4.290   1.908
70087SOL     OW12157   7.291  10.878   1.908
70087SOL    HW112158   7.260  10.933   1.980
70087SOL    HW212159   7.255  10.791   1.927
70088SOL     OW12160  11.856   2.550  10.781
70088SOL    HW112161  11.798   2.499  10.838
70088SOL    HW212162  11.881   2.489  10.711
70089SOL     OW12163   9.446   5.501   7.589
70089SOL    HW112164   9.370   5.477   7.535
70089SOL    HW212165   9.447   5.435   7.658
70090SOL     OW12166  10.452   4.877  14.193
70090SOL    HW112167  10.541   4.890  14.226
70090SOL    HW212168  10.463   4.849  14.102
70091SOL     OW12169  10.018   3.207   9.063
70091SOL    HW112170  10.075   3.257   9.122
70091SOL    HW212171  10.034   3.244   8.977
70092SOL     OW12172  10.801   3.849   7.579
70092SOL    HW112173  10.868   3.792   7.543
70092SOL    HW212174  10.766   3.896   7.503
70093SOL     OW12175  11.867  11.875  12.959
70093SOL    HW112176  11.796  11.858  13.020
70093SOL    HW212177  11.947  11.857  13.008
70094SOL     OW12178  12.890  14.855  12.520
70094SOL    HW112179  12.936  14.773  12.502
70094SOL    HW212180  12.938   0.025  12.592
70095SOL     OW12181   8.264  10.924   0.526
70095SOL    HW112182   8.276  11.019   0.518
70095SOL    HW212183   8.329  10.886   0.467
70096SOL     OW12184  10.993   7.624   8.994
70096SOL    HW112185  11.004   7.663   8.907
70096SOL    HW212186  10.995   7.530   8.978
70097SOL     OW12187   8.931   4.705   1.060
70097SOL    HW112188   8.841   4.718   1.092
70097SOL    HW212189   8.963   4.629   1.108
70098SOL     OW12190   0.233  11.353   5.918
70098SOL    HW112191   0.303  11.358   5.853
70098SOL    HW212192   0.156  11.325   5.869
70099SOL     OW12193   5.675   7.315  10.266
70099SOL    HW112194   5.590   7.341  10.299
70099SOL    HW212195   5.707   7.251  10.329
70100SOL     OW12196   9.769  11.803   8.028
70100SOL    HW112197   9.763  11.728   7.968
70100SOL    HW212198   9.800  11.875   7.973
70101SOL     OW12199  12.162  10.294  14.454
70101SOL    HW112200  12.201  10.380  14.472
70101SOL    HW212201  12.183  10.242  14.532
70102SOL     OW12202   6.918   2.131   2.280
70102SOL    HW112203   6.861   2.058   2.259
70102SOL    HW212204   6.902   2.148   2.373
70103SOL     OW12205   3.828   3.548   4.066
70103SOL    HW112206   3.884   3.598   4.125
70103SOL    HW212207   3.788   3.482   4.121
70104SOL     OW12208  14.283  14.612  12.009
70104SOL    HW112209  14.257  14.556  11.936
70104SOL    HW212210  14.359  14.567  12.047
70105SOL     OW12211  10.141   4.019   4.484
70105SOL    HW112212  10.171   3.981   4.401
70105SOL    HW212213  10.201   3.985   4.549
70106SOL     OW12214  12.306   3.967   2.181
70106SOL    HW112215  12.394   4.002   2.199
70106SOL    HW212216  12.256   4.043   2.151
70107SOL     OW12217   9.957  10.209   8.443
70107SOL    HW112218   9.862  10.206   8.432
70107SOL    HW212219   9.976  10.300   8.465
70108SOL     OW12220   8.175  12.434   4.634
70108SOL    HW112221   8.269  12.450   4.634
70108SOL    HW212222   8.163  12.356   4.689
70109SOL     OW12223   3.270  12.727   6.739
70109SOL    HW112224   3.347  12.739   6.684
70109SOL    HW212225   3.206  12.789   6.705
70110SOL     OW12226   9.566  10.391  11.656
70110SOL    HW112227   9.522  10.441  11.587
70110SOL    HW212228   9.496  10.346  11.703
70111SOL     OW12229  10.673   6.753   3.022
70111SOL    HW112230  10.666   6.816   3.094
70111SOL    HW212231  10.596   6.697   3.032
70112SOL     OW12232  10.102   3.056   4.129
70112SOL    HW112233  10.147   3.127   4.084
70112SOL    HW212234  10.077   2.995   4.060
70113SOL     OW12235   6.016   5.746   3.531
70113SOL    HW112236   6.096   5.773   3.576
70113SOL    HW212237   5.959   5.824   3.535
70114SOL     OW12238  11.043   3.141   1.224
70114SOL    HW112239  10.961   3.120   1.179
70114SOL    HW212240  11.024   3.221   1.273
70115SOL     OW12241  13.957   8.086  14.727
70115SOL    HW112242  13.982   7.997  14.750
70115SOL    HW212243  13.994   8.099  14.639
70116SOL     OW12244   7.562   5.956  13.655
70116SOL    HW112245   7.502   5.954  13.730
70116SOL    HW212246   7.506   5.938  13.579
70117SOL     OW12247   4.003   9.922  10.497
70117SOL    HW112248   4.015  10.003  10.449
70117SOL    HW212249   4.021   9.853  10.434
70118SOL     OW12250  11.813   6.514   0.496
70118SOL    HW112251  11.804   6.419   0.503
70118SOL    HW212252  11.725   6.548   0.508
70119SOL     OW12253   1.905   7.533  10.276
70119SOL    HW112254   1.903   7.625  10.248
70119SOL    HW212255   1.997   7.517  10.297
70120SOL     OW12256   5.577  10.399   4.608
70120SOL    HW112257   5.669  10.420   4.619
70120SOL    HW212258   5.534  10.434   4.686
70121SOL     OW12259   8.204  13.256  10.833
70121SOL    HW112260   8.147  13.202  10.889
70121SOL    HW212261   8.144  13.294  10.768
70122SOL     OW12262   4.396   2.493   5.851
70122SOL    HW112263   4.331   2.563   5.857
70122SOL    HW212264   4.348   2.419   5.813
70123SOL     OW12265   2.300   5.115  11.355
70123SOL    HW112266   2.242   5.042  11.375
70123SOL    HW212267   2.291   5.127  11.260
70124SOL     OW12268  10.188   8.652  13.355
70124SOL    HW112269  10.108   8.630  13.403
70124SOL    HW212270  10.213   8.738  13.390
70125SOL     OW12271   7.108   5.345  13.531
70125SOL    HW112272   7.121   5.436  13.558
70125SOL    HW212273   7.197   5.311  13.521
70126SOL     OW12274   2.718   0.482   5.145
70126SOL    HW112275   2.769   0.510   5.221
70126SOL    HW212276   2.738   0.389   5.136
70127SOL     OW12277  11.012   5.068   1.013
70127SOL    HW112278  10.953   5.040   0.943
70127SOL    HW212279  10.958   5.066   1.092
70128SOL     OW12280  10.377   4.398  10.478
70128SOL    HW112281  10.410   4.404  10.568
70128SOL    HW212282  10.286   4.427  10.483
70129SOL     OW12283   4.581   0.578  12.320
70129SOL    HW112284   4.615   0.621  12.241
70129SOL    HW212285   4.531   0.646  12.364
70130SOL     OW12286  13.881   5.821   4.497
70130SOL    HW112287  13.795   5.830   4.538
70130SOL    HW212288  13.891   5.902   4.447
70131SOL     OW12289   1.053  11.184   6.248
70131SOL    HW112290   1.054  11.194   6.343
70131SOL    HW212291   1.030  11.092   6.234
70132SOL     OW12292   3.659  12.734   5.781
70132SOL    HW112293   3.580  12.763   5.734
70132SOL    HW212294   3.683  12.652   5.739
70133SOL     OW12295   8.441  13.716  12.910
70133SOL    HW112296   8.493  13.644  12.945
70133SOL    HW212297   8.427  13.774  12.985
70134SOL     OW12298   4.954  10.017  12.955
70134SOL    HW112299   5.008   9.971  13.019
70134SOL    HW212300   4.891  10.066  13.009
70135SOL     OW12301   3.387   1.066   9.358
70135SOL    HW112302   3.303   1.076   9.314
70135SOL    HW212303   3.370   1.093   9.448
70136SOL     OW12304   5.071   1.278   4.706
70136SOL    HW112305   4.981   1.244   4.713
70136SOL    HW212306   5.111   1.257   4.791
70137SOL     OW12307  12.330   5.956  13.589
70137SOL    HW112308  12.385   5.954  13.510
70137SOL    HW212309  12.261   5.892  13.572
70138SOL     OW12310   1.280  14.123  10.738
70138SOL    HW112311   1.277  14.181  10.814
70138SOL    HW212312   1.344  14.163  10.679
70139SOL     OW12313   5.624   0.138   9.035
70139SOL    HW112314   5.545   0.135   9.088
70139SOL    HW212315   5.694   0.114   9.095
70140SOL     OW12316  10.695  12.326   2.677
70140SOL    HW112317  10.771  12.376   2.647
70140SOL    HW212318  10.733  12.248   2.718
70141SOL     OW12319   8.609   0.087   4.903
70141SOL    HW112320   8.560   0.071   4.822
70141SOL    HW212321   8.625  14.869   4.939
70142SOL     OW12322   4.442  12.822   6.345
70142SOL    HW112323   4.457  12.887   6.277
70142SOL    HW212324   4.423  12.873   6.424
70143SOL     OW12325  13.940  12.862   0.644
70143SOL    HW112326  13.862  12.913   0.664
70143SOL    HW212327  13.955  12.809   0.723
70144SOL     OW12328   1.092   4.654   8.156
70144SOL    HW112329   1.097   4.615   8.069
70144SOL    HW212330   1.048   4.738   8.144
70145SOL     OW12331  10.331   6.795   3.442
70145SOL    HW112332  10.298   6.860   3.380
70145SOL    HW212333  10.267   6.796   3.514
70146SOL     OW12334   3.005  10.744  13.805
70146SOL    HW112335   3.026  10.651  13.800
70146SOL    HW212336   2.946  10.760  13.732
70147SOL     OW12337   1.739   2.607  14.580
70147SOL    HW112338   1.693   2.615  14.496
70147SOL    HW212339   1.819   2.658  14.568
70148SOL     OW12340   2.622   9.436  13.822
70148SOL    HW112341   2.560   9.370  13.853
70148SOL    HW212342   2.690   9.438  13.889
70149SOL     OW12343   7.532   8.872   1.861
70149SOL    HW112344   7.563   8.794   1.816
70149SOL    HW212345   7.529   8.939   1.793
70150SOL     OW12346  14.485  10.225   5.609
70150SOL    HW112347  14.399  10.189   5.631
70150SOL    HW212348  14.547  10.174   5.661
70151SOL     OW12349   8.430   9.111   5.800
70151SOL    HW112350   8.405   9.126   5.892
70151SOL    HW212351   8.346   9.106   5.754
70152SOL     OW12352   8.924   7.548  10.578
70152SOL    HW112353   9.015   7.519  10.588
70152SOL    HW212354   8.901   7.526  10.488
70153SOL     OW12355   2.950   3.569  10.645
70153SOL    HW112356   2.983   3.546  10.732
70153SOL    HW212357   2.866   3.523  10.639
70154SOL     OW12358  14.551   5.718  11.774
70154SOL    HW112359  14.591   5.707  11.687
70154SOL    HW212360  14.457   5.714  11.758
70155SOL     OW12361   5.756  14.679   3.847
70155SOL    HW112362   5.730  14.690   3.756
70155SOL    HW212363   5.800  14.761   3.869
70156SOL     OW12364  10.019   8.065   0.835
70156SOL    HW112365  10.089   8.011   0.871
70156SOL    HW212366   9.957   8.003   0.798
70157SOL     OW12367   8.426   4.914   5.682
70157SOL    HW112368   8.462   4.960   5.606
70157SOL    HW212369   8.403   4.984   5.743
70158SOL     OW12370   5.105  13.090  14.757
70158SOL    HW112371   5.144  13.147  14.823
70158SOL    HW212372   5.013  13.119  14.752
70159SOL     OW12373   8.257   1.633   4.506
70159SOL    HW112374   8.220   1.722   4.506
70159SOL    HW212375   8.329   1.638   4.444
70160SOL     OW12376   3.622   0.993   3.716
70160SOL    HW112377   3.711   0.960   3.720
70160SOL    HW212378   3.577   0.937   3.653
70161SOL     OW12379   6.273  10.526   0.048
70161SOL    HW112380   6.292  10.515  14.825
70161SOL    HW212381   6.316  10.452   0.091
70162SOL     OW12382   3.471  10.919   7.723
70162SOL    HW112383   3.402  10.938   7.787
70162SOL    HW212384   3.541  10.879   7.775
70163SOL     OW12385   6.102   8.936   1.387
70163SOL    HW112386   6.177   8.977   1.343
70163SOL    HW212387   6.065   9.006   1.441
70164SOL     OW12388   0.522   2.150  14.464
70164SOL    HW112389   0.567   2.143  14.380
70164SOL    HW212390   0.592   2.165  14.527
70165SOL     OW12391   6.610   5.669   0.434
70165SOL    HW112392   6.619   5.625   0.519
70165SOL    HW212393   6.699   5.697   0.413
70166SOL     OW12394   8.936  11.894  10.335
70166SOL    HW112395   9.006  11.933  10.282
70166SOL    HW212396   8.925  11.954  10.409
70167SOL     OW12397   9.048   2.003  12.130
70167SOL    HW112398   9.111   2.028  12.063
70167SOL    HW212399   9.068   1.912  12.149
70168SOL     OW12400   2.360  10.013  13.886
70168SOL    HW112401   2.341   9.919  13.892
70168SOL    HW212402   2.378  10.039  13.976
70169SOL     OW12403   2.074   1.434  11.634
70169SOL    HW112404   2.163   1.399  11.637
70169SOL    HW212405   2.086   1.528  11.615
70170SOL     OW12406   3.092   8.466  12.499
70170SOL    HW112407   3.163   8.529  12.514
70170SOL    HW212408   3.015   8.508  12.537
70171SOL     OW12409   8.155  14.296  11.816
70171SOL    HW112410   8.182  14.241  11.741
70171SOL    HW212411   8.091  14.242  11.862
70172SOL     OW12412  13.474  13.633   4.811
70172SOL    HW112413  13.550  13.620   4.868
70172SOL    HW212414  13.507  13.690   4.741
70173SOL     OW12415   6.085   4.010   5.051
70173SOL    HW112416   6.136   4.075   5.100
70173SOL    HW212417   6.123   4.013   4.963
70174SOL     OW12418   0.315  13.065   0.018
70174SOL    HW112419   0.378  12.995   0.036
70174SOL    HW212420   0.302  13.109   0.102
70175SOL     OW12421   1.108   0.878  13.063
70175SOL    HW112422   1.027   0.929  13.071
70175SOL    HW212423   1.130   0.882  12.970
70176SOL     OW12424   5.837  13.579  10.901
70176SOL    HW112425   5.782  13.594  10.978
70176SOL    HW212426   5.808  13.494  10.867
70177SOL     OW12427   6.287   0.709  13.010
70177SOL    HW112428   6.245   0.777  13.063
70177SOL    HW212429   6.213   0.657  12.977
70178SOL     OW12430   4.994   6.431  10.884
70178SOL    HW112431   4.951   6.516  10.891
70178SOL    HW212432   4.925   6.367  10.902
70179SOL     OW12433  13.475   6.188  13.193
70179SOL    HW112434  13.428   6.156  13.271
70179SOL    HW212435  13.417   6.255  13.156
70180SOL     OW12436   9.124   2.063   5.047
70180SOL    HW112437   9.145   2.085   5.137
70180SOL    HW212438   9.084   2.142   5.011
70181SOL     OW12439  11.814   1.322   9.495
70181SOL    HW112440  11.760   1.285   9.426
70181SOL    HW212441  11.751   1.359   9.557
70182SOL     OW12442   3.041   6.371   7.208
70182SOL    HW112443   3.105   6.433   7.175
70182SOL    HW212444   3.080   6.285   7.192
70183SOL     OW12445  11.755   9.179   9.310
70183SOL    HW112446  11.735   9.261   9.356
70183SOL    HW212447  11.748   9.112   9.378
70184SOL     OW12448   9.034   2.372   5.302
70184SOL    HW112449   9.005   2.451   5.347
70184SOL    HW212450   8.973   2.304   5.332
70185SOL     OW12451   6.193  11.439   4.536
70185SOL    HW112452   6.183  11.366   4.475
70185SOL    HW212453   6.206  11.515   4.481
70186SOL     OW12454  13.740   0.391  12.614
70186SOL    HW112455  13.833   0.371  12.630
70186SOL    HW212456  13.699   0.305  12.601
70187SOL     OW12457  14.312  12.744   4.379
70187SOL    HW112458  14.396  12.754   4.335
70187SOL    HW212459  14.330  12.682   4.450
70188SOL     OW12460  12.201   6.032  12.699
70188SOL    HW112461  12.243   6.111  12.665
70188SOL    HW212462  12.270   5.966  12.698
70189SOL     OW12463   3.169   8.915   3.327
70189SOL    HW112464   3.104   8.981   3.352
70189SOL    HW212465   3.169   8.852   3.399
70190SOL     OW12466   5.041  13.939   9.754
70190SOL    HW112467   5.036  13.895   9.669
70190SOL    HW212468   5.123  13.907   9.793
70191SOL     OW12469   6.399   1.907   7.344
70191SOL    HW112470   6.409   1.955   7.426
70191SOL    HW212471   6.338   1.959   7.293
70192SOL     OW12472   8.684   2.618   5.342
70192SOL    HW112473   8.713   2.545   5.397
70192SOL    HW212474   8.726   2.695   5.380
70193SOL     OW12475   3.033   4.753   5.778
70193SOL    HW112476   3.036   4.771   5.872
70193SOL    HW212477   2.967   4.684   5.768
70194SOL     OW12478   4.222   0.287  10.931
70194SOL    HW112479   4.277   0.212  10.955
70194SOL    HW212480   4.263   0.323  10.853
70195SOL     OW12481   9.082  10.058  13.149
70195SOL    HW112482   9.163  10.109  13.151
70195SOL    HW212483   9.051  10.059  13.240
70196SOL     OW12484   4.171   5.552  10.721
70196SOL    HW112485   4.241   5.486  10.715
70196SOL    HW212486   4.118   5.524  10.795
70197SOL     OW12487  11.369  14.225   6.492
70197SOL    HW112488  11.318  14.305   6.499
70197SOL    HW212489  11.458  14.251   6.515
70198SOL     OW12490   2.917   6.847   5.529
70198SOL    HW112491   2.894   6.822   5.619
70198SOL    HW212492   2.931   6.763   5.484
70199SOL     OW12493   8.088   8.605  13.945
70199SOL    HW112494   8.168   8.638  13.904
70199SOL    HW212495   8.019   8.663  13.911
70200SOL     OW12496  13.789  11.786   0.418
70200SOL    HW112497  13.798  11.693   0.401
70200SOL    HW212498  13.716  11.792   0.480
70201SOL     OW12499   9.563   7.040  13.320
70201SOL    HW112500   9.494   7.102  13.338
70201SOL    HW212501   9.522   6.954  13.329
70202SOL     OW12502  13.764   5.816   8.706
70202SOL    HW112503  13.802   5.769   8.632
70202SOL    HW212504  13.674   5.834   8.680
70203SOL     OW12505   3.747  12.317  14.867
70203SOL    HW112506   3.773  12.333  14.776
70203SOL    HW212507   3.717  12.226  14.867
70204SOL     OW12508   2.745  14.852   5.515
70204SOL    HW112509   2.804  14.847   5.590
70204SOL    HW212510   2.660  14.823   5.549
70205SOL     OW12511  13.558   5.706  11.513
70205SOL    HW112512  13.634   5.672  11.465
70205SOL    HW212513  13.596   5.745  11.592
70206SOL     OW12514   4.866  14.300   7.927
70206SOL    HW112515   4.926  14.227   7.912
70206SOL    HW212516   4.811  14.272   8.000
70207SOL     OW12517   3.365   5.438   2.954
70207SOL    HW112518   3.410   5.443   2.870
70207SOL    HW212519   3.278   5.473   2.937
70208SOL     OW12520  10.634   9.708   5.287
70208SOL    HW112521  10.671   9.641   5.344
70208SOL    HW212522  10.702   9.723   5.221
70209SOL     OW12523   3.927   5.079   7.146
70209SOL    HW112524   4.016   5.042   7.141
70209SOL    HW212525   3.912   5.118   7.060
70210SOL     OW12526  10.345   3.652   5.688
70210SOL    HW112527  10.374   3.741   5.667
70210SOL    HW212528  10.380   3.598   5.617
70211SOL     OW12529  11.806   0.388   8.523
70211SOL    HW112530  11.715   0.406   8.503
70211SOL    HW212531  11.824   0.437   8.603
70212SOL     OW12532  11.875  13.898   5.252
70212SOL    HW112533  11.871  13.987   5.216
70212SOL    HW212534  11.965  13.888   5.281
70213SOL     OW12535   8.603   0.979   9.433
70213SOL    HW112536   8.588   0.954   9.525
70213SOL    HW212537   8.640   0.901   9.392
70214SOL     OW12538  11.199   0.029   6.571
70214SOL    HW112539  11.266  14.838   6.605
70214SOL    HW212540  11.116  14.859   6.599
70215SOL     OW12541   8.145   4.808   8.271
70215SOL    HW112542   8.217   4.842   8.218
70215SOL    HW212543   8.188   4.764   8.344
70216SOL     OW12544   6.463  12.520  12.062
70216SOL    HW112545   6.498  12.520  12.151
70216SOL    HW212546   6.491  12.437  12.025
70217SOL     OW12547  10.903  13.316  14.043
70217SOL    HW112548  10.986  13.290  14.084
70217SOL    HW212549  10.845  13.241  14.058
70218SOL     OW12550  10.107  11.023   1.155
70218SOL    HW112551  10.018  11.032   1.122
70218SOL    HW212552  10.163  11.052   1.083
70219SOL     OW12553  14.611  11.787   5.106
70219SOL    HW112554  14.521  11.790   5.074
70219SOL    HW212555  14.610  11.718   5.173
70220SOL     OW12556   1.535  14.732   7.372
70220SOL    HW112557   1.559  14.709   7.282
70220SOL    HW212558   1.579  14.815   7.389
70221SOL     OW12559   6.154   8.148   1.741
70221SOL    HW112560   6.086   8.083   1.762
70221SOL    HW212561   6.220   8.135   1.809
70222SOL     OW12562   8.175  11.234  13.947
70222SOL    HW112563   8.109  11.235  14.016
70222SOL    HW212564   8.242  11.295  13.978
70223SOL     OW12565   3.693   8.491   3.710
70223SOL    HW112566   3.679   8.450   3.625
70223SOL    HW212567   3.759   8.437   3.753
70224SOL     OW12568  11.248  12.444   5.237
70224SOL    HW112569  11.208  12.530   5.250
70224SOL    HW212570  11.226  12.422   5.146
70225SOL     OW12571   2.400   6.144  10.692
70225SOL    HW112572   2.418   6.127  10.599
70225SOL    HW212573   2.324   6.091  10.712
70226SOL     OW12574   5.893   1.911  10.021
70226SOL    HW112575   5.954   1.970   9.976
70226SOL    HW212576   5.820   1.902   9.960
70227SOL     OW12577   1.821   5.280  12.444
70227SOL    HW112578   1.787   5.368  12.458
70227SOL    HW212579   1.894   5.292  12.383
70228SOL     OW12580   0.960   5.211  13.785
70228SOL    HW112581   0.941   5.119  13.805
70228SOL    HW212582   0.971   5.213  13.690
70229SOL     OW12583   9.637   8.665  12.546
70229SOL    HW112584   9.568   8.622  12.595
70229SOL    HW212585   9.593   8.701  12.469
70230SOL     OW12586   6.795   5.582   1.740
70230SOL    HW112587   6.751   5.557   1.821
70230SOL    HW212588   6.735   5.645   1.699
70231SOL     OW12589   1.396   3.610   6.886
70231SOL    HW112590   1.321   3.562   6.923
70231SOL    HW212591   1.423   3.668   6.957
70232SOL     OW12592   3.923   2.061   1.890
70232SOL    HW112593   3.990   2.126   1.910
70232SOL    HW212594   3.952   1.982   1.935
70233SOL     OW12595  11.123   3.451   3.795
70233SOL    HW112596  11.112   3.456   3.890
70233SOL    HW212597  11.117   3.358   3.775
70234SOL     OW12598   6.126   8.891   6.634
70234SOL    HW112599   6.122   8.985   6.652
70234SOL    HW212600   6.219   8.874   6.616
70235SOL     OW12601   0.700   8.738   2.618
70235SOL    HW112602   0.631   8.703   2.675
70235SOL    HW212603   0.658   8.811   2.572
70236SOL     OW12604   3.944  11.881   1.246
70236SOL    HW112605   3.960  11.787   1.259
70236SOL    HW212606   3.849  11.890   1.255
70237SOL     OW12607   4.577  13.724   3.572
70237SOL    HW112608   4.637  13.650   3.574
70237SOL    HW212609   4.580  13.755   3.481
70238SOL     OW12610   3.608  13.298   6.947
70238SOL    HW112611   3.647  13.214   6.922
70238SOL    HW212612   3.570  13.283   7.033
70239SOL     OW12613   6.482   1.215  13.966
70239SOL    HW112614   6.426   1.252  13.898
70239SOL    HW212615   6.431   1.224  14.047
70240SOL     OW12616   0.786   1.661   9.244
70240SOL    HW112617   0.836   1.741   9.264
70240SOL    HW212618   0.851   1.591   9.248
70241SOL     OW12619   2.414  14.805   6.626
70241SOL    HW112620   2.509  14.806   6.612
70241SOL    HW212621   2.377  14.839   6.545
70242SOL     OW12622  13.054   5.129   1.370
70242SOL    HW112623  12.973   5.087   1.399
70242SOL    HW212624  13.069   5.095   1.282
70243SOL     OW12625   0.037   7.151  13.879
70243SOL    HW112626   0.029   7.227  13.936
70243SOL    HW212627   0.105   7.097  13.920
70244SOL     OW12628   7.893   5.113   9.615
70244SOL    HW112629   7.900   5.067   9.698
70244SOL    HW212630   7.806   5.154   9.617
70245SOL     OW12631  14.197   5.495  12.981
70245SOL    HW112632  14.277   5.500  13.033
70245SOL    HW212633  14.136   5.555  13.025
70246SOL     OW12634  13.074  14.036   5.322
70246SOL    HW112635  12.999  14.095   5.329
70246SOL    HW212636  13.054  13.966   5.384
70247SOL     OW12637   1.458   4.705  13.775
70247SOL    HW112638   1.521   4.664  13.715
70247SOL    HW212639   1.513   4.747  13.842
70248SOL     OW12640   7.811   8.914   4.543
70248SOL    HW112641   7.863   8.845   4.584
70248SOL    HW212642   7.756   8.949   4.614
70249SOL     OW12643  14.337   0.299   2.437
70249SOL    HW112644  14.254   0.342   2.454
70249SOL    HW212645  14.395   0.369   2.406
70250SOL     OW12646   8.502  13.288   4.360
70250SOL    HW112647   8.456  13.267   4.279
70250SOL    HW212648   8.485  13.213   4.417
70251SOL     OW12649   5.850   0.011  12.291
70251SOL    HW112650   5.815   0.097  12.311
70251SOL    HW212651   5.922  14.868  12.353
70252SOL     OW12652   9.174   3.347   2.096
70252SOL    HW112653   9.213   3.296   2.025
70252SOL    HW212654   9.234   3.421   2.108
70253SOL     OW12655   0.918  14.445   0.819
70253SOL    HW112656   0.891  14.363   0.859
70253SOL    HW212657   0.843  14.470   0.764
70254SOL     OW12658   1.726  12.105   2.574
70254SOL    HW112659   1.696  12.066   2.492
70254SOL    HW212660   1.820  12.115   2.563
70255SOL     OW12661  14.591  12.426   5.932
70255SOL    HW112662  14.631  12.339   5.932
70255SOL    HW212663  14.510  12.416   5.882
70256SOL     OW12664  13.635   9.427   3.177
70256SOL    HW112665  13.603   9.443   3.266
70256SOL    HW212666  13.631   9.513   3.134
70257SOL     OW12667   2.538   2.056   2.989
70257SOL    HW112668   2.541   1.974   2.939
70257SOL    HW212669   2.505   2.120   2.927
70258SOL     OW12670   5.675   1.178   9.927
70258SOL    HW112671   5.727   1.108   9.888
70258SOL    HW212672   5.697   1.175  10.020
70259SOL     OW12673   6.813   3.156   3.112
70259SOL    HW112674   6.721   3.137   3.095
70259SOL    HW212675   6.815   3.194   3.199
70260SOL     OW12676   1.118  11.772  10.698
70260SOL    HW112677   1.061  11.844  10.670
70260SOL    HW212678   1.107  11.769  10.793
70261SOL     OW12679  11.926  13.221   4.164
70261SOL    HW112680  11.979  13.149   4.199
70261SOL    HW212681  11.852  13.228   4.225
70262SOL     OW12682   1.121  10.547  13.375
70262SOL    HW112683   1.198  10.591  13.339
70262SOL    HW212684   1.061  10.617  13.398
70263SOL     OW12685   8.105   3.605  10.729
70263SOL    HW112686   8.100   3.678  10.667
70263SOL    HW212687   8.163   3.637  10.799
70264SOL     OW12688   2.568   8.426   3.520
70264SOL    HW112689   2.636   8.387   3.575
70264SOL    HW212690   2.501   8.358   3.514
70265SOL     OW12691   0.337  11.813   2.973
70265SOL    HW112692   0.269  11.810   2.906
70265SOL    HW212693   0.329  11.900   3.013
70266SOL     OW12694   0.203   5.054   4.402
70266SOL    HW112695   0.273   5.120   4.400
70266SOL    HW212696   0.231   4.989   4.338
70267SOL     OW12697   9.179  11.133   6.914
70267SOL    HW112698   9.107  11.070   6.915
70267SOL    HW212699   9.253  11.087   6.954
70268SOL     OW12700   7.672   8.628  11.675
70268SOL    HW112701   7.665   8.589  11.588
70268SOL    HW212702   7.597   8.594  11.723
70269SOL     OW12703  12.200   3.265  10.330
70269SOL    HW112704  12.204   3.357  10.301
70269SOL    HW212705  12.136   3.265  10.401
70270SOL     OW12706   4.223   4.534   9.590
70270SOL    HW112707   4.239   4.618   9.547
70270SOL    HW212708   4.309   4.495   9.601
70271SOL     OW12709  12.883  11.909  11.250
70271SOL    HW112710  12.898  11.913  11.344
70271SOL    HW212711  12.971  11.909  11.212
70272SOL     OW12712   2.039  12.801  13.259
70272SOL    HW112713   1.967  12.820  13.199
70272SOL    HW212714   2.000  12.805  13.346
70273SOL     OW12715   5.155   5.924  10.432
70273SOL    HW112716   5.114   5.944  10.516
70273SOL    HW212717   5.188   5.835  10.442
70274SOL     OW12718   1.288   7.320  11.052
70274SOL    HW112719   1.357   7.306  11.116
70274SOL    HW212720   1.300   7.250  10.988
70275SOL     OW12721  12.779   6.580   3.193
70275SOL    HW112722  12.790   6.674   3.176
70275SOL    HW212723  12.742   6.546   3.111
70276SOL     OW12724   6.445   7.739   4.394
70276SOL    HW112725   6.378   7.777   4.451
70276SOL    HW212726   6.458   7.651   4.428
70277SOL     OW12727  12.880  10.167   0.539
70277SOL    HW112728  12.834  10.248   0.519
70277SOL    HW212729  12.831  10.099   0.493
70278SOL     OW12730   9.333   7.639   0.710
70278SOL    HW112731   9.304   7.635   0.619
70278SOL    HW212732   9.342   7.547   0.737
70279SOL     OW12733  12.493  14.219   7.598
70279SOL    HW112734  12.415  14.261   7.633
70279SOL    HW212735  12.484  14.127   7.624
70280SOL     OW12736   4.371   8.183   0.043
70280SOL    HW112737   4.409   8.253   0.097
70280SOL    HW212738   4.442   8.120   0.032
70281SOL     OW12739  14.118   8.292   7.162
70281SOL    HW112740  14.035   8.280   7.207
70281SOL    HW212741  14.149   8.203   7.143
70282SOL     OW12742   4.210   5.097  10.113
70282SOL    HW112743   4.128   5.125  10.155
70282SOL    HW212744   4.196   5.004  10.096
70283SOL     OW12745  11.212   6.656  14.404
70283SOL    HW112746  11.177   6.576  14.442
70283SOL    HW212747  11.143   6.721  14.417
70284SOL     OW12748  12.581   2.865   1.350
70284SOL    HW112749  12.530   2.944   1.366
70284SOL    HW212750  12.672   2.892   1.362
70285SOL     OW12751   0.800   1.399  13.732
70285SOL    HW112752   0.742   1.456  13.681
70285SOL    HW212753   0.840   1.341  13.667
70286SOL     OW12754   7.921   8.804   7.587
70286SOL    HW112755   7.992   8.785   7.526
70286SOL    HW212756   7.845   8.820   7.531
70287SOL     OW12757   1.594   6.998   3.340
70287SOL    HW112758   1.524   6.936   3.362
70287SOL    HW212759   1.613   7.042   3.423
70288SOL     OW12760  13.519   1.883   1.394
70288SOL    HW112761  13.531   1.853   1.484
70288SOL    HW212762  13.599   1.856   1.349
70289SOL     OW12763   3.975   4.999   5.122
70289SOL    HW112764   3.910   4.940   5.084
70289SOL    HW212765   3.988   4.966   5.211
70290SOL     OW12766   7.526  12.556   6.991
70290SOL    HW112767   7.489  12.639   6.960
70290SOL    HW212768   7.601  12.541   6.933
70291SOL     OW12769   9.085   3.630  14.177
70291SOL    HW112770   9.092   3.606  14.084
70291SOL    HW212771   9.100   3.548  14.223
70292SOL     OW12772   7.931   3.340   5.712
70292SOL    HW112773   7.847   3.375   5.681
70292SOL    HW212774   7.937   3.254   5.671
70293SOL     OW12775   5.072   2.781   6.995
70293SOL    HW112776   4.984   2.745   7.010
70293SOL    HW212777   5.124   2.747   7.068
70294SOL     OW12778   3.965   5.789   8.475
70294SOL    HW112779   4.010   5.711   8.443
70294SOL    HW212780   3.883   5.757   8.511
70295SOL     OW12781   7.125  11.176   1.935
70295SOL    HW112782   7.125  11.145   1.844
70295SOL    HW212783   7.109  11.097   1.987
70296SOL     OW12784  11.126   4.953  12.464
70296SOL    HW112785  11.072   4.996  12.530
70296SOL    HW212786  11.063   4.907  12.408
70297SOL     OW12787  12.845  11.603   2.545
70297SOL    HW112788  12.757  11.580   2.575
70297SOL    HW212789  12.860  11.544   2.471
70298SOL     OW12790   9.566   8.962   2.551
70298SOL    HW112791   9.539   8.871   2.566
70298SOL    HW212792   9.486   9.012   2.562
70299SOL     OW12793  11.474   2.171  14.386
70299SOL    HW112794  11.417   2.096  14.366
70299SOL    HW212795  11.495   2.208  14.300
70300SOL     OW12796  13.204  14.381   6.020
70300SOL    HW112797  13.181  14.431   6.099
70300SOL    HW212798  13.120  14.370   5.974
70301SOL     OW12799   2.371   8.828  13.929
70301SOL    HW112800   2.276   8.823  13.933
70301SOL    HW212801   2.399   8.830  14.021
70302SOL     OW12802  14.105   4.013   8.248
70302SOL    HW112803  14.083   4.095   8.293
70302SOL    HW212804  14.084   3.944   8.310
70303SOL     OW12805   6.090  14.771   3.093
70303SOL    HW112806   6.166  14.762   3.036
70303SOL    HW212807   6.015  14.747   3.038
70304SOL     OW12808   4.239   4.801   4.303
70304SOL    HW112809   4.314   4.743   4.318
70304SOL    HW212810   4.250   4.831   4.213
70305SOL     OW12811   8.234   6.494   5.286
70305SOL    HW112812   8.249   6.588   5.295
70305SOL    HW212813   8.150   6.479   5.331
70306SOL     OW12814   4.377  11.497  10.789
70306SOL    HW112815   4.470  11.520  10.795
70306SOL    HW212816   4.348  11.538  10.707
70307SOL     OW12817  11.867  10.567   8.887
70307SOL    HW112818  11.857  10.608   8.973
70307SOL    HW212819  11.929  10.496   8.902
70308SOL     OW12820   3.747   7.252   4.795
70308SOL    HW112821   3.699   7.169   4.801
70308SOL    HW212822   3.757   7.281   4.886
70309SOL     OW12823   1.650   8.435  14.493
70309SOL    HW112824   1.575   8.421  14.435
70309SOL    HW212825   1.613   8.428  14.581
70310SOL     OW12826   0.800  14.356  14.490
70310SOL    HW112827   0.878  14.402  14.460
70310SOL    HW212828   0.733  14.377  14.425
70311SOL     OW12829   0.577  11.345  12.236
70311SOL    HW112830   0.511  11.404  12.200
70311SOL    HW212831   0.621  11.309  12.159
70312SOL     OW12832   9.006   3.556   8.659
70312SOL    HW112833   8.913   3.534   8.657
70312SOL    HW212834   9.045   3.503   8.590
70313SOL     OW12835   0.976   6.870   6.491
70313SOL    HW112836   0.940   6.949   6.451
70313SOL    HW212837   0.917   6.800   6.464
70314SOL     OW12838   8.284  13.543   8.669
70314SOL    HW112839   8.255  13.538   8.760
70314SOL    HW212840   8.273  13.635   8.646
70315SOL     OW12841   6.671   3.991  14.509
70315SOL    HW112842   6.628   3.924  14.456
70315SOL    HW212843   6.647   4.074  14.467
70316SOL     OW12844   9.223   7.807   9.269
70316SOL    HW112845   9.233   7.782   9.361
70316SOL    HW212846   9.178   7.733   9.228
70317SOL     OW12847  11.423   0.788   0.380
70317SOL    HW112848  11.328   0.780   0.390
70317SOL    HW212849  11.453   0.698   0.361
70318SOL     OW12850  14.456   0.628   8.087
70318SOL    HW112851  14.410   0.602   8.166
70318SOL    HW212852  14.519   0.558   8.071
70319SOL     OW12853   3.868   0.956   6.434
70319SOL    HW112854   3.949   0.909   6.451
70319SOL    HW212855   3.821   0.900   6.371
70320SOL     OW12856   2.520   5.823  10.742
70320SOL    HW112857   2.472   5.741  10.755
70320SOL    HW212858   2.464   5.874  10.683
70321SOL     OW12859   5.968   5.953  11.760
70321SOL    HW112860   5.966   6.027  11.699
70321SOL    HW212861   6.061   5.942  11.782
70322SOL     OW12862   9.990   5.115   5.322
70322SOL    HW112863   9.950   5.040   5.365
70322SOL    HW212864   9.939   5.128   5.242
70323SOL     OW12865  12.533   9.639   5.687
70323SOL    HW112866  12.609   9.666   5.738
70323SOL    HW212867  12.461   9.637   5.750
70324SOL     OW12868  14.673   1.338  12.806
70324SOL    HW112869  14.746   1.394  12.832
70324SOL    HW212870  14.595   1.394  12.815
70325SOL     OW12871   4.919   1.597  14.113
70325SOL    HW112872   4.900   1.530  14.047
70325SOL    HW212873   5.009   1.579  14.140
70326SOL     OW12874   4.902  10.973  12.846
70326SOL    HW112875   4.958  10.919  12.902
70326SOL    HW212876   4.961  11.008  12.779
70327SOL     OW12877   3.143   0.317   6.361
70327SOL    HW112878   3.137   0.364   6.445
70327SOL    HW212879   3.227   0.271   6.366
70328SOL     OW12880  11.808  13.351  12.743
70328SOL    HW112881  11.720  13.347  12.780
70328SOL    HW212882  11.864  13.382  12.815
70329SOL     OW12883   6.883   4.136   9.000
70329SOL    HW112884   6.912   4.103   9.085
70329SOL    HW212885   6.958   4.186   8.967
70330SOL     OW12886  10.795   4.240   3.577
70330SOL    HW112887  10.717   4.291   3.554
70330SOL    HW212888  10.784   4.219   3.669
70331SOL     OW12889  11.275  14.717   6.953
70331SOL    HW112890  11.202  14.657   6.938
70331SOL    HW212891  11.243  14.802   6.924
70332SOL     OW12892  13.217  10.313   6.306
70332SOL    HW112893  13.174  10.303   6.391
70332SOL    HW212894  13.223  10.224   6.272
70333SOL     OW12895   0.839   9.100   4.409
70333SOL    HW112896   0.900   9.080   4.480
70333SOL    HW212897   0.758   9.057   4.434
70334SOL     OW12898   8.589  11.016   1.739
70334SOL    HW112899   8.624  11.103   1.723
70334SOL    HW212900   8.496  11.023   1.719
70335SOL     OW12901  10.705   9.465   6.714
70335SOL    HW112902  10.798   9.482   6.697
70335SOL    HW212903  10.701   9.375   6.746
70336SOL     OW12904   5.172   1.919  12.173
70336SOL    HW112905   5.263   1.896  12.192
70336SOL    HW212906   5.165   2.012  12.193
70337SOL     OW12907   7.058   8.508  13.524
70337SOL    HW112908   7.107   8.524  13.605
70337SOL    HW212909   7.113   8.547  13.455
70338SOL     OW12910  14.606   5.962   9.583
70338SOL    HW112911  14.621   5.988   9.492
70338SOL    HW212912  14.566   5.875   9.577
70339SOL     OW12913   2.465  13.279   7.625
70339SOL    HW112914   2.477  13.319   7.539
70339SOL    HW212915   2.431  13.191   7.606
70340SOL     OW12916   6.285   5.966   7.253
70340SOL    HW112917   6.360   6.017   7.282
70340SOL    HW212918   6.209   6.021   7.274
70341SOL     OW12919   8.410  14.611  11.257
70341SOL    HW112920   8.479  14.676  11.246
70341SOL    HW212921   8.428  14.569  11.341
70342SOL     OW12922   0.253   8.258   1.189
70342SOL    HW112923   0.322   8.206   1.231
70342SOL    HW212924   0.295   8.295   1.112
70343SOL     OW12925   9.347   5.623   2.310
70343SOL    HW112926   9.337   5.718   2.309
70343SOL    HW212927   9.363   5.601   2.401
70344SOL     OW12928  11.325   3.338  11.324
70344SOL    HW112929  11.367   3.314  11.242
70344SOL    HW212930  11.327   3.434  11.326
70345SOL     OW12931   3.247   2.739   6.305
70345SOL    HW112932   3.324   2.747   6.249
70345SOL    HW212933   3.284   2.729   6.393
70346SOL     OW12934  10.263   8.416  12.765
70346SOL    HW112935  10.251   8.335  12.814
70346SOL    HW212936  10.181   8.463  12.776
70347SOL     OW12937   4.614   1.594   1.858
70347SOL    HW112938   4.700   1.579   1.819
70347SOL    HW212939   4.581   1.673   1.815
70348SOL     OW12940  14.014  12.994   3.979
70348SOL    HW112941  14.099  12.991   4.022
70348SOL    HW212942  14.034  12.990   3.886
70349SOL     OW12943   6.010   6.535  10.567
70349SOL    HW112944   6.105   6.537  10.553
70349SOL    HW212945   5.980   6.623  10.546
70350SOL     OW12946  11.897   4.003   6.228
70350SOL    HW112947  11.856   3.946   6.293
70350SOL    HW212948  11.843   4.082   6.228
70351SOL     OW12949   7.260   9.027  14.241
70351SOL    HW112950   7.225   8.986  14.320
70351SOL    HW212951   7.183   9.046  14.187
70352SOL     OW12952   6.679  14.585   7.322
70352SOL    HW112953   6.700  14.632   7.242
70352SOL    HW212954   6.732  14.627   7.390
70353SOL     OW12955   7.973  10.785  13.423
70353SOL    HW112956   8.064  10.758  13.433
70353SOL    HW212957   7.967  10.865  13.476
70354SOL     OW12958   6.616   9.152   1.535
70354SOL    HW112959   6.598   9.123   1.624
70354SOL    HW212960   6.546   9.213   1.515
70355SOL     OW12961   7.772   5.008   2.521
70355SOL    HW112962   7.782   4.965   2.606
70355SOL    HW212963   7.845   5.069   2.516
70356SOL     OW12964  11.253  13.014   7.025
70356SOL    HW112965  11.290  13.101   7.014
70356SOL    HW212966  11.169  13.028   7.069
70357SOL     OW12967   6.474   2.529   7.524
70357SOL    HW112968   6.492   2.621   7.542
70357SOL    HW212969   6.398   2.530   7.465
70358SOL     OW12970   4.158   5.551   1.071
70358SOL    HW112971   4.203   5.477   1.113
70358SOL    HW212972   4.081   5.566   1.125
70359SOL     OW12973   3.224   1.226   6.792
70359SOL    HW112974   3.164   1.299   6.808
70359SOL    HW212975   3.187   1.181   6.716
70360SOL     OW12976   9.623   4.992   6.095
70360SOL    HW112977   9.561   5.011   6.166
70360SOL    HW212978   9.568   4.961   6.023
70361SOL     OW12979   4.069   7.012  11.331
70361SOL    HW112980   4.154   7.055  11.341
70361SOL    HW212981   4.017   7.072  11.279
70362SOL     OW12982   7.163   6.175   1.938
70362SOL    HW112983   7.244   6.225   1.942
70362SOL    HW212984   7.115   6.212   1.864
70363SOL     OW12985   0.085   9.881   8.857
70363SOL    HW112986   0.144   9.813   8.890
70363SOL    HW212987   0.130   9.963   8.875
70364SOL     OW12988   6.839  12.200   8.719
70364SOL    HW112989   6.764  12.145   8.741
70364SOL    HW212990   6.804  12.288   8.713
70365SOL     OW12991  10.631   7.457   2.858
70365SOL    HW112992  10.712   7.433   2.813
70365SOL    HW212993  10.595   7.374   2.888
70366SOL     OW12994   8.881  14.018   4.532
70366SOL    HW112995   8.976  14.029   4.532
70366SOL    HW212996   8.863  13.961   4.607
70367SOL     OW12997   3.904  13.521  13.942
70367SOL    HW112998   3.902  13.454  13.873
70367SOL    HW212999   3.856  13.482  14.015
70368SOL     OW13000  10.755   2.249   6.547
70368SOL    HW113001  10.832   2.228   6.599
70368SOL    HW213002  10.695   2.291   6.610
70369SOL     OW13003  11.605  14.568   2.213
70369SOL    HW113004  11.601  14.534   2.124
70369SOL    HW213005  11.513  14.570   2.241
70370SOL     OW13006   7.697   5.255  14.820
70370SOL    HW113007   7.616   5.300  14.842
70370SOL    HW213008   7.691   5.171  14.864
70371SOL     OW13009   0.311   4.859  11.279
70371SOL    HW113010   0.270   4.805  11.212
70371SOL    HW213011   0.330   4.799  11.351
70372SOL     OW13012   9.625  10.727   2.947
70372SOL    HW113013   9.610  10.760   2.858
70372SOL    HW213014   9.539  10.733   2.989
70373SOL     OW13015   3.987   2.902   1.615
70373SOL    HW113016   4.000   2.994   1.593
70373SOL    HW213017   3.892   2.888   1.608
70374SOL     OW13018   1.996   5.720  13.922
70374SOL    HW113019   1.917   5.726  13.975
70374SOL    HW213020   2.066   5.700  13.985
70375SOL     OW13021  12.802  12.489  10.639
70375SOL    HW113022  12.709  12.468  10.639
70375SOL    HW213023  12.831  12.468  10.550
70376SOL     OW13024   5.307   2.604   1.091
70376SOL    HW113025   5.253   2.678   1.121
70376SOL    HW213026   5.396   2.627   1.117
70377SOL     OW13027   6.682   4.501   7.700
70377SOL    HW113028   6.740   4.443   7.750
70377SOL    HW213029   6.594   4.468   7.717
70378SOL     OW13030  12.924   5.313   4.789
70378SOL    HW113031  12.849   5.363   4.821
70378SOL    HW213032  12.892   5.223   4.782
70379SOL     OW13033   6.512  14.319   5.360
70379SOL    HW113034   6.545  14.402   5.395
70379SOL    HW213035   6.571  14.298   5.287
70380SOL     OW13036   1.044   0.883   2.438
70380SOL    HW113037   1.062   0.796   2.472
70380SOL    HW213038   1.124   0.933   2.454
70381SOL     OW13039  12.847   2.501   0.222
70381SOL    HW113040  12.784   2.500   0.150
70381SOL    HW213041  12.898   2.421   0.210
70382SOL     OW13042   7.701  11.483   4.292
70382SOL    HW113043   7.723  11.465   4.201
70382SOL    HW213044   7.613  11.448   4.303
70383SOL     OW13045  12.398  11.276   4.318
70383SOL    HW113046  12.371  11.261   4.409
70383SOL    HW213047  12.488  11.309   4.326
70384SOL     OW13048  13.721   7.130   0.116
70384SOL    HW113049  13.694   7.060   0.056
70384SOL    HW213050  13.815   7.119   0.126
70385SOL     OW13051  13.930  12.507  11.697
70385SOL    HW113052  13.901  12.562  11.769
70385SOL    HW213053  13.919  12.417  11.729
70386SOL     OW13054   8.277   0.201   2.752
70386SOL    HW113055   8.185   0.183   2.770
70386SOL    HW213056   8.297   0.279   2.802
70387SOL     OW13057   6.686  10.423  10.056
70387SOL    HW113058   6.617  10.396  10.116
70387SOL    HW213059   6.672  10.371   9.977
70388SOL     OW13060  13.341   9.705   2.058
70388SOL    HW113061  13.424   9.751   2.069
70388SOL    HW213062  13.352   9.654   1.978
70389SOL     OW13063   4.122   5.528   3.602
70389SOL    HW113064   4.094   5.438   3.611
70389SOL    HW213065   4.112   5.566   3.690
70390SOL     OW13066   8.148  14.575   8.596
70390SOL    HW113067   8.185  14.621   8.672
70390SOL    HW213068   8.216  14.582   8.529
70391SOL     OW13069  14.068   9.715   3.062
70391SOL    HW113070  14.039   9.770   3.135
70391SOL    HW213071  13.988   9.672   3.031
70392SOL     OW13072   5.771   2.424   7.878
70392SOL    HW113073   5.863   2.434   7.905
70392SOL    HW213074   5.735   2.512   7.884
70393SOL     OW13075   2.225   8.813   3.172
70393SOL    HW113076   2.207   8.795   3.080
70393SOL    HW213077   2.148   8.780   3.219
70394SOL     OW13078  11.946   7.404   9.311
70394SOL    HW113079  11.913   7.415   9.400
70394SOL    HW213080  11.872   7.371   9.261
70395SOL     OW13081  10.347   1.427  10.046
70395SOL    HW113082  10.392   1.506  10.074
70395SOL    HW213083  10.389   1.403   9.964
70396SOL     OW13084   9.055  10.153  13.539
70396SOL    HW113085   8.995  10.130  13.468
70396SOL    HW213086   9.004  10.139  13.619
70397SOL     OW13087  11.529  13.852   1.827
70397SOL    HW113088  11.511  13.943   1.853
70397SOL    HW213089  11.450  13.804   1.852
70398SOL     OW13090  13.500  11.424   6.420
70398SOL    HW113091  13.581  11.442   6.372
70398SOL    HW213092  13.525  11.426   6.512
70399SOL     OW13093   3.254   4.163   1.531
70399SOL    HW113094   3.176   4.185   1.480
70399SOL    HW213095   3.226   4.167   1.622
70400SOL     OW13096  12.207   9.354  13.174
70400SOL    HW113097  12.225   9.329  13.083
70400SOL    HW213098  12.264   9.298  13.226
70401SOL     OW13099   7.851  10.568   2.096
70401SOL    HW113100   7.936  10.548   2.057
70401SOL    HW213101   7.859  10.536   2.186
70402SOL     OW13102   0.839   1.857   6.086
70402SOL    HW113103   0.890   1.877   6.008
70402SOL    HW213104   0.831   1.941   6.131
70403SOL     OW13105   2.015   8.211   1.744
70403SOL    HW113106   2.058   8.296   1.746
70403SOL    HW213107   2.076   8.154   1.697
70404SOL     OW13108   3.470   6.791   0.218
70404SOL    HW113109   3.451   6.880   0.190
70404SOL    HW213110   3.440   6.736   0.146
70405SOL     OW13111   6.305  13.277   0.751
70405SOL    HW113112   6.334  13.231   0.673
70405SOL    HW213113   6.267  13.209   0.807
70406SOL     OW13114  10.097  11.042  12.379
70406SOL    HW113115  10.159  11.074  12.314
70406SOL    HW213116  10.096  10.947  12.365
70407SOL     OW13117   1.610   5.676  11.153
70407SOL    HW113118   1.579   5.711  11.236
70407SOL    HW213119   1.679   5.615  11.177
70408SOL     OW13120  12.248  12.175   0.737
70408SOL    HW113121  12.236  12.177   0.642
70408SOL    HW213122  12.328  12.224   0.752
70409SOL     OW13123   7.604   7.312  10.898
70409SOL    HW113124   7.599   7.311  10.993
70409SOL    HW213125   7.697   7.316  10.878
70410SOL     OW13126  13.881  12.748  12.471
70410SOL    HW113127  13.912  12.680  12.531
70410SOL    HW213128  13.856  12.820  12.529
70411SOL     OW13129   1.059   7.617   3.248
70411SOL    HW113130   0.967   7.614   3.277
70411SOL    HW213131   1.107   7.644   3.326
70412SOL     OW13132  10.921   8.970  10.008
70412SOL    HW113133  10.863   9.042  10.033
70412SOL    HW213134  10.992   9.013   9.960
70413SOL     OW13135   0.015   0.096   5.500
70413SOL    HW113136   0.007   0.178   5.451
70413SOL    HW213137   0.076   0.043   5.448
70414SOL     OW13138   3.139   7.995   2.652
70414SOL    HW113139   3.121   8.012   2.560
70414SOL    HW213140   3.212   8.053   2.674
70415SOL     OW13141   5.067   9.387   9.305
70415SOL    HW113142   5.072   9.402   9.211
70415SOL    HW213143   5.151   9.347   9.328
70416SOL     OW13144   2.384   1.847   4.517
70416SOL    HW113145   2.346   1.913   4.576
70416SOL    HW213146   2.309   1.816   4.465
70417SOL     OW13147   3.232  14.367   9.065
70417SOL    HW113148   3.142  14.344   9.041
70417SOL    HW213149   3.287  14.318   9.004
70418SOL     OW13150   4.990  14.005   9.238
70418SOL    HW113151   5.018  13.931   9.185
70418SOL    HW213152   4.990  14.079   9.176
70419SOL     OW13153  11.682   8.666   4.862
70419SOL    HW113154  11.597   8.652   4.820
70419SOL    HW213155  11.661   8.692   4.952
70420SOL     OW13156   4.924   9.353   7.122
70420SOL    HW113157   4.975   9.316   7.050
70420SOL    HW213158   4.843   9.301   7.123
70421SOL     OW13159   5.262   5.017  10.135
70421SOL    HW113160   5.173   4.999  10.165
70421SOL    HW213161   5.297   4.932  10.111
70422SOL     OW13162   9.534  12.891   2.823
70422SOL    HW113163   9.532  12.869   2.730
70422SOL    HW213164   9.462  12.841   2.862
70423SOL     OW13165  10.365   8.853  11.370
70423SOL    HW113166  10.379   8.874  11.278
70423SOL    HW213167  10.317   8.928  11.405
70424SOL     OW13168  13.243  13.009   3.497
70424SOL    HW113169  13.176  13.012   3.565
70424SOL    HW213170  13.207  13.063   3.426
70425SOL     OW13171  12.793  12.405   4.938
70425SOL    HW113172  12.741  12.391   4.859
70425SOL    HW213173  12.881  12.427   4.906
70426SOL     OW13174   5.322   9.606   6.737
70426SOL    HW113175   5.280   9.675   6.686
70426SOL    HW213176   5.259   9.585   6.806
70427SOL     OW13177   7.408   0.355   5.199
70427SOL    HW113178   7.479   0.338   5.138
70427SOL    HW213179   7.451   0.358   5.285
70428SOL     OW13180   7.594  12.335   3.080
70428SOL    HW113181   7.524  12.276   3.052
70428SOL    HW213182   7.663  12.276   3.113
70429SOL     OW13183  10.533   3.725  11.964
70429SOL    HW113184  10.516   3.795  12.027
70429SOL    HW213185  10.594   3.763  11.901
70430SOL     OW13186   9.093   4.165  14.583
70430SOL    HW113187   9.072   4.113  14.660
70430SOL    HW213188   9.045   4.247  14.595
70431SOL     OW13189  10.407  13.640  10.598
70431SOL    HW113190  10.336  13.583  10.568
70431SOL    HW213191  10.371  13.686  10.673
70432SOL     OW13192  13.817  10.608   6.770
70432SOL    HW113193  13.857  10.670   6.708
70432SOL    HW213194  13.834  10.522   6.731
70433SOL     OW13195   1.567  11.630   1.368
70433SOL    HW113196   1.617  11.569   1.313
70433SOL    HW213197   1.481  11.589   1.376
70434SOL     OW13198   0.895  13.766   5.528
70434SOL    HW113199   0.909  13.762   5.434
70434SOL    HW213200   0.893  13.860   5.548
70435SOL     OW13201   7.513   1.701   6.381
70435SOL    HW113202   7.603   1.722   6.406
70435SOL    HW213203   7.467   1.692   6.465
70436SOL     OW13204   2.955   3.427   4.638
70436SOL    HW113205   2.905   3.489   4.691
70436SOL    HW213206   3.014   3.481   4.586
70437SOL     OW13207   2.681  14.470  11.836
70437SOL    HW113208   2.763  14.425  11.817
70437SOL    HW213209   2.708  14.552  11.879
70438SOL     OW13210   5.540   2.745   7.612
70438SOL    HW113211   5.571   2.731   7.701
70438SOL    HW213212   5.501   2.833   7.613
70439SOL     OW13213   5.123   9.632  10.410
70439SOL    HW113214   5.137   9.657  10.318
70439SOL    HW213215   5.055   9.565  10.406
70440SOL     OW13216  12.689   7.134   3.976
70440SOL    HW113217  12.760   7.198   3.982
70440SOL    HW213218  12.609   7.187   3.969
70441SOL     OW13219   5.091   4.098   5.532
70441SOL    HW113220   5.140   4.179   5.522
70441SOL    HW213221   5.156   4.029   5.515
70442SOL     OW13222  12.077   9.329   2.579
70442SOL    HW113223  12.112   9.247   2.544
70442SOL    HW213224  12.155   9.378   2.608
70443SOL     OW13225   1.435   6.373   2.228
70443SOL    HW113226   1.490   6.328   2.291
70443SOL    HW213227   1.399   6.447   2.276
70444SOL     OW13228   5.804  11.393  12.902
70444SOL    HW113229   5.897  11.383  12.924
70444SOL    HW213230   5.803  11.398  12.806
70445SOL     OW13231   4.725   7.687  13.136
70445SOL    HW113232   4.812   7.683  13.176
70445SOL    HW213233   4.740   7.665  13.044
70446SOL     OW13234   7.411   1.866   8.176
70446SOL    HW113235   7.413   1.907   8.263
70446SOL    HW213236   7.493   1.894   8.135
70447SOL     OW13237   1.548   3.882  11.461
70447SOL    HW113238   1.470   3.827  11.459
70447SOL    HW213239   1.571   3.888  11.554
70448SOL     OW13240   4.321  14.258   0.788
70448SOL    HW113241   4.334  14.169   0.821
70448SOL    HW213242   4.227  14.264   0.771
70449SOL     OW13243   6.626  11.180   4.246
70449SOL    HW113244   6.557  11.246   4.250
70449SOL    HW213245   6.696  11.215   4.302
70450SOL     OW13246   0.982   5.440   7.903
70450SOL    HW113247   0.993   5.456   7.996
70450SOL    HW213248   0.952   5.523   7.868
70451SOL     OW13249  13.277  10.337   0.726
70451SOL    HW113250  13.182  10.336   0.711
70451SOL    HW213251  13.310  10.264   0.674
70452SOL     OW13252   4.418  12.112  12.514
70452SOL    HW113253   4.409  12.207  12.522
70452SOL    HW213254   4.507  12.099  12.482
70453SOL     OW13255   6.455   1.148   4.493
70453SOL    HW113256   6.374   1.097   4.480
70453SOL    HW213257   6.427   1.239   4.484
70454SOL     OW13258  10.600   0.491   6.883
70454SOL    HW113259  10.694   0.509   6.887
70454SOL    HW213260  10.586   0.420   6.946
70455SOL     OW13261   3.649   1.437  11.220
70455SOL    HW113262   3.573   1.493  11.204
70455SOL    HW213263   3.620   1.378  11.290
70456SOL     OW13264   7.441  13.578   0.678
70456SOL    HW113265   7.509  13.619   0.624
70456SOL    HW213266   7.489  13.516   0.733
70457SOL     OW13267   1.384   3.896  13.410
70457SOL    HW113268   1.414   3.807  13.393
70457SOL    HW213269   1.288   3.889  13.413
70458SOL     OW13270  12.553   6.078   4.811
70458SOL    HW113271  12.587   6.018   4.745
70458SOL    HW213272  12.519   6.152   4.761
70459SOL     OW13273   4.453   4.144   1.121
70459SOL    HW113274   4.405   4.116   1.199
70459SOL    HW213275   4.540   4.107   1.133
70460SOL     OW13276   9.093   1.226  13.652
70460SOL    HW113277   9.115   1.280  13.575
70460SOL    HW213278   9.020   1.172  13.623
70461SOL     OW13279   1.913  12.657   2.995
70461SOL    HW113280   1.880  12.572   3.022
70461SOL    HW213281   1.863  12.720   3.046
70462SOL     OW13282  11.498  11.569  10.726
70462SOL    HW113283  11.558  11.499  10.751
70462SOL    HW213284  11.455  11.594  10.808
70463SOL     OW13285  12.858  12.946  11.065
70463SOL    HW113286  12.899  12.875  11.114
70463SOL    HW213287  12.908  12.950  10.983
70464SOL     OW13288   5.558  11.980   2.927
70464SOL    HW113289   5.563  12.048   2.859
70464SOL    HW213290   5.647  11.975   2.962
70465SOL     OW13291  14.188   9.567  13.984
70465SOL    HW113292  14.211   9.641  14.041
70465SOL    HW213293  14.106   9.534  14.021
70466SOL     OW13294   3.919   7.895   5.711
70466SOL    HW113295   3.870   7.918   5.790
70466SOL    HW213296   3.853   7.859   5.651
70467SOL     OW13297  11.379   8.669  13.558
70467SOL    HW113298  11.407   8.589  13.602
70467SOL    HW213299  11.415   8.663  13.470
70468SOL     OW13300   4.173  10.687   7.534
70468SOL    HW113301   4.174  10.779   7.507
70468SOL    HW213302   4.247  10.647   7.489
70469SOL     OW13303  13.345   4.829  14.414
70469SOL    HW113304  13.383   4.910  14.380
70469SOL    HW213305  13.421   4.776  14.440
70470SOL     OW13306   2.162   6.836   7.265
70470SOL    HW113307   2.214   6.760   7.239
70470SOL    HW213308   2.201   6.864   7.348
70471SOL     OW13309   2.236   2.646   4.716
70471SOL    HW113310   2.261   2.703   4.643
70471SOL    HW213311   2.141   2.643   4.713
70472SOL     OW13312   6.428   5.602   4.198
70472SOL    HW113313   6.387   5.515   4.199
70472SOL    HW213314   6.460   5.615   4.287
70473SOL     OW13315   0.899   3.480   8.410
70473SOL    HW113316   0.984   3.520   8.395
70473SOL    HW213317   0.911   3.425   8.487
70474SOL     OW13318   6.557   4.563   8.793
70474SOL    HW113319   6.495   4.497   8.825
70474SOL    HW213320   6.634   4.552   8.849
70475SOL     OW13321   1.928   2.602   3.767
70475SOL    HW113322   1.985   2.535   3.806
70475SOL    HW213323   1.985   2.648   3.705
70476SOL     OW13324   5.004  13.104   6.356
70476SOL    HW113325   4.942  13.089   6.284
70476SOL    HW213326   5.061  13.174   6.325
70477SOL     OW13327  14.387   9.965  10.875
70477SOL    HW113328  14.349   9.887  10.834
70477SOL    HW213329  14.343   9.972  10.960
70478SOL     OW13330  13.955   2.060   3.920
70478SOL    HW113331  13.921   2.040   3.833
70478SOL    HW213332  13.923   2.148   3.939
70479SOL     OW13333   3.367   7.044   5.885
70479SOL    HW113334   3.299   7.089   5.935
70479SOL    HW213335   3.319   6.990   5.823
70480SOL     OW13336  11.672   6.044   8.398
70480SOL    HW113337  11.638   5.998   8.321
70480SOL    HW213338  11.614   6.017   8.469
70481SOL     OW13339  12.451   0.684  11.327
70481SOL    HW113340  12.490   0.772  11.322
70481SOL    HW213341  12.362   0.695  11.294
70482SOL     OW13342   9.568   6.809   1.813
70482SOL    HW113343   9.580   6.733   1.756
70482SOL    HW213344   9.638   6.869   1.787
70483SOL     OW13345   8.247   4.355  14.683
70483SOL    HW113346   8.251   4.409  14.761
70483SOL    HW213347   8.336   4.323  14.671
70484SOL     OW13348  12.359   9.642   4.861
70484SOL    HW113349  12.343   9.586   4.785
70484SOL    HW213350  12.287   9.705   4.861
70485SOL     OW13351   5.635   7.999   3.007
70485SOL    HW113352   5.580   8.031   3.078
70485SOL    HW213353   5.587   8.024   2.927
70486SOL     OW13354   5.234   5.657   5.009
70486SOL    HW113355   5.317   5.658   4.961
70486SOL    HW213356   5.245   5.587   5.073
70487SOL     OW13357   5.278   2.255  11.633
70487SOL    HW113358   5.341   2.186  11.654
70487SOL    HW213359   5.217   2.214  11.571
70488SOL     OW13360  14.017  13.741   3.629
70488SOL    HW113361  14.062  13.767   3.710
70488SOL    HW213362  13.965  13.665   3.655
70489SOL     OW13363   6.526   5.252   3.475
70489SOL    HW113364   6.439   5.240   3.438
70489SOL    HW213365   6.522   5.208   3.560
70490SOL     OW13366  11.589   7.918   6.413
70490SOL    HW113367  11.633   8.001   6.397
70490SOL    HW213368  11.579   7.914   6.508
70491SOL     OW13369   7.909  11.601  13.729
70491SOL    HW113370   7.988  11.580  13.778
70491SOL    HW213371   7.838  11.592  13.792
70492SOL     OW13372   8.267  14.318   7.923
70492SOL    HW113373   8.319  14.370   7.862
70492SOL    HW213374   8.254  14.235   7.877
70493SOL     OW13375   8.219  12.577  14.062
70493SOL    HW113376   8.188  12.517  13.995
70493SOL    HW213377   8.219  12.663  14.020
70494SOL     OW13378   2.456  10.544   1.454
70494SOL    HW113379   2.437  10.492   1.376
70494SOL    HW213380   2.374  10.589   1.473
70495SOL     OW13381  13.436  13.599   5.152
70495SOL    HW113382  13.457  13.682   5.109
70495SOL    HW213383  13.340  13.595   5.151
70496SOL     OW13384   3.611  10.196   5.812
70496SOL    HW113385   3.536  10.248   5.840
70496SOL    HW213386   3.664  10.186   5.891
70497SOL     OW13387   5.540   1.961   9.489
70497SOL    HW113388   5.544   1.882   9.434
70497SOL    HW213389   5.465   2.009   9.455
70498SOL     OW13390  11.159  12.835   3.731
70498SOL    HW113391  11.123  12.788   3.656
70498SOL    HW213392  11.098  12.817   3.803
70499SOL     OW13393  10.461  10.232   0.978
70499SOL    HW113394  10.541  10.179   0.984
70499SOL    HW213395  10.473  10.300   1.044
70500SOL     OW13396  12.403  13.090  12.542
70500SOL    HW113397  12.410  12.994  12.548
70500SOL    HW213398  12.310  13.108  12.559
70501SOL     OW13399   3.415   1.561  11.148
70501SOL    HW113400   3.368   1.635  11.188
70501SOL    HW213401   3.408   1.576  11.054
70502SOL     OW13402   7.353   8.677   7.531
70502SOL    HW113403   7.402   8.621   7.471
70502SOL    HW213404   7.344   8.760   7.485
70503SOL     OW13405   5.941   5.800   2.835
70503SOL    HW113406   6.017   5.748   2.859
70503SOL    HW213407   5.922   5.775   2.745
70504SOL     OW13408   1.264   2.821   6.044
70504SOL    HW113409   1.337   2.857   6.095
70504SOL    HW213410   1.264   2.728   6.066
70505SOL     OW13411   6.835  11.703  12.830
70505SOL    HW113412   6.822  11.798  12.831
70505SOL    HW213413   6.868  11.683  12.918
70506SOL     OW13414   3.729   9.790   9.331
70506SOL    HW113415   3.648   9.781   9.381
70506SOL    HW213416   3.751   9.700   9.306
70507SOL     OW13417   6.365  13.783   8.562
70507SOL    HW113418   6.289  13.840   8.568
70507SOL    HW213419   6.342  13.718   8.495
70508SOL     OW13420   2.193   1.775   8.408
70508SOL    HW113421   2.270   1.718   8.396
70508SOL    HW213422   2.216   1.831   8.482
70509SOL     OW13423  12.080  12.736   7.703
70509SOL    HW113424  12.160  12.775   7.667
70509SOL    HW213425  12.104  12.709   7.791
70510SOL     OW13426   3.573  12.492   4.972
70510SOL    HW113427   3.536  12.404   4.980
70510SOL    HW213428   3.651  12.481   4.918
70511SOL     OW13429  12.241   2.424   1.422
70511SOL    HW113430  12.168   2.486   1.428
70511SOL    HW213431  12.309   2.473   1.375
70512SOL     OW13432   3.813   8.022   9.034
70512SOL    HW113433   3.887   7.965   9.011
70512SOL    HW213434   3.763   8.029   8.953
70513SOL     OW13435   8.734   6.985  13.064
70513SOL    HW113436   8.824   7.014  13.075
70513SOL    HW213437   8.730   6.956  12.973
70514SOL     OW13438   7.750   3.825  10.588
70514SOL    HW113439   7.776   3.882  10.516
70514SOL    HW213440   7.824   3.827  10.649
70515SOL     OW13441   7.948   7.177   0.086
70515SOL    HW113442   8.008   7.196   0.014
70515SOL    HW213443   7.873   7.235   0.071
70516SOL     OW13444  11.259  11.777   8.994
70516SOL    HW113445  11.343  11.777   8.948
70516SOL    HW213446  11.235  11.869   9.002
70517SOL     OW13447  12.346  11.705   8.907
70517SOL    HW113448  12.380  11.760   8.836
70517SOL    HW213449  12.251  11.709   8.897
70518SOL     OW13450  14.562  14.580   1.710
70518SOL    HW113451  14.517  14.509   1.757
70518SOL    HW213452  14.628  14.611   1.772
70519SOL     OW13453   2.738   0.384   2.261
70519SOL    HW113454   2.813   0.415   2.210
70519SOL    HW213455   2.669   0.447   2.240
70520SOL     OW13456   5.953  11.753   7.335
70520SOL    HW113457   5.882  11.765   7.272
70520SOL    HW213458   5.910  11.757   7.421
70521SOL     OW13459   4.564  11.140   4.015
70521SOL    HW113460   4.651  11.112   3.986
70521SOL    HW213461   4.562  11.119   4.108
70522SOL     OW13462   9.160   2.522   4.181
70522SOL    HW113463   9.107   2.601   4.171
70522SOL    HW213464   9.206   2.534   4.264
70523SOL     OW13465   2.288   3.475  14.469
70523SOL    HW113466   2.275   3.390  14.425
70523SOL    HW213467   2.203   3.519  14.462
70524SOL     OW13468   6.205   3.669  13.382
70524SOL    HW113469   6.273   3.608  13.412
70524SOL    HW213470   6.229   3.752  13.423
70525SOL     OW13471  14.261   6.454   1.346
70525SOL    HW113472  14.312   6.470   1.425
70525SOL    HW213473  14.261   6.358   1.336
70526SOL     OW13474   9.669   2.454   9.525
70526SOL    HW113475   9.712   2.534   9.493
70526SOL    HW213476   9.585   2.453   9.479
70527SOL     OW13477   9.401  12.868  11.445
70527SOL    HW113478   9.355  12.888  11.526
70527SOL    HW213479   9.385  12.943  11.388
70528SOL     OW13480   3.641   7.726  11.099
70528SOL    HW113481   3.662   7.786  11.170
70528SOL    HW213482   3.680   7.643  11.126
70529SOL     OW13483   8.185   7.989   1.125
70529SOL    HW113484   8.094   7.968   1.105
70529SOL    HW213485   8.190   7.986   1.221
70530SOL     OW13486  12.814  13.301   9.459
70530SOL    HW113487  12.765  13.301   9.377
70530SOL    HW213488  12.900  13.337   9.436
70531SOL     OW13489   3.145   6.587   4.981
70531SOL    HW113490   3.234   6.571   5.014
70531SOL    HW213491   3.129   6.680   4.998
70532SOL     OW13492   3.880   0.920   5.059
70532SOL    HW113493   3.884   0.834   5.101
70532SOL    HW213494   3.787   0.941   5.057
70533SOL     OW13495   1.439   8.903   2.316
70533SOL    HW113496   1.471   8.968   2.254
70533SOL    HW213497   1.424   8.952   2.397
70534SOL     OW13498  12.855  11.412  10.191
70534SOL    HW113499  12.780  11.440  10.244
70534SOL    HW213500  12.928  11.465  10.223
70535SOL     OW13501   3.895   6.871   4.395
70535SOL    HW113502   3.896   6.900   4.304
70535SOL    HW213503   3.976   6.821   4.405
70536SOL     OW13504  14.832   8.234  13.718
70536SOL    HW113505  14.834   8.204  13.809
70536SOL    HW213506  14.753   8.287  13.712
70537SOL     OW13507   6.300   1.853   9.105
70537SOL    HW113508   6.296   1.834   9.198
70537SOL    HW213509   6.365   1.792   9.070
70538SOL     OW13510  11.442  12.543  13.347
70538SOL    HW113511  11.369  12.481  13.357
70538SOL    HW213512  11.516  12.490  13.319
70539SOL     OW13513   0.084   3.386   5.138
70539SOL    HW113514   0.016   3.352   5.081
70539SOL    HW213515   0.152   3.417   5.078
70540SOL     OW13516   9.677  10.747   6.672
70540SOL    HW113517   9.628  10.669   6.700
70540SOL    HW213518   9.619  10.791   6.610
70541SOL     OW13519   3.924   8.243   8.263
70541SOL    HW113520   3.896   8.275   8.177
70541SOL    HW213521   4.009   8.285   8.278
70542SOL     OW13522  12.531   8.372   3.316
70542SOL    HW113523  12.474   8.298   3.336
70542SOL    HW213524  12.612   8.332   3.283
70543SOL     OW13525   2.610   7.841   9.600
70543SOL    HW113526   2.647   7.760   9.634
70543SOL    HW213527   2.600   7.897   9.678
70544SOL     OW13528   4.600  11.731  11.638
70544SOL    HW113529   4.689  11.734  11.674
70544SOL    HW213530   4.593  11.812  11.587
70545SOL     OW13531   6.082  10.492   2.692
70545SOL    HW113532   6.077  10.580   2.728
70545SOL    HW213533   6.175  10.479   2.672
70546SOL     OW13534   3.194  11.474  10.362
70546SOL    HW113535   3.199  11.383  10.331
70546SOL    HW213536   3.182  11.466  10.457
70547SOL     OW13537   7.810  10.049   6.412
70547SOL    HW113538   7.852  10.133   6.392
70547SOL    HW213539   7.861  10.013   6.485
70548SOL     OW13540   3.735   3.306  11.077
70548SOL    HW113541   3.796   3.245  11.120
70548SOL    HW213542   3.652   3.294  11.123
70549SOL     OW13543  14.527   1.540  10.787
70549SOL    HW113544  14.488   1.617  10.830
70549SOL    HW213545  14.463   1.515  10.721
70550SOL     OW13546  11.520   5.495  10.964
70550SOL    HW113547  11.540   5.408  10.997
70550SOL    HW213548  11.424   5.501  10.968
70551SOL     OW13549  11.607  10.604  14.137
70551SOL    HW113550  11.568  10.692  14.143
70551SOL    HW213551  11.539  10.551  14.096
70552SOL     OW13552   3.366   6.445   6.942
70552SOL    HW113553   3.340   6.480   7.027
70552SOL    HW213554   3.354   6.519   6.882
70553SOL     OW13555  13.663   6.187   4.430
70553SOL    HW113556  13.636   6.095   4.434
70553SOL    HW213557  13.754   6.187   4.459
70554SOL     OW13558   8.531  11.961   6.095
70554SOL    HW113559   8.615  11.999   6.071
70554SOL    HW213560   8.475  11.976   6.019
70555SOL     OW13561   5.858   5.251   8.561
70555SOL    HW113562   5.790   5.236   8.626
70555SOL    HW213563   5.845   5.182   8.496
70556SOL     OW13564   6.059   4.131  13.207
70556SOL    HW113565   6.150   4.132  13.238
70556SOL    HW213566   6.057   4.060  13.143
70557SOL     OW13567  11.747  12.400  11.211
70557SOL    HW113568  11.779  12.456  11.282
70557SOL    HW213569  11.778  12.312  11.233
70558SOL     OW13570   4.944  13.553  12.718
70558SOL    HW113571   4.996  13.478  12.687
70558SOL    HW213572   4.982  13.628  12.673
70559SOL     OW13573   7.114   1.169  11.936
70559SOL    HW113574   7.175   1.240  11.920
70559SOL    HW213575   7.144   1.129  12.017
70560SOL     OW13576  10.555   5.533   7.544
70560SOL    HW113577  10.609   5.456   7.565
70560SOL    HW213578  10.574   5.595   7.614
70561SOL     OW13579   7.325   6.379   2.196
70561SOL    HW113580   7.408   6.343   2.228
70561SOL    HW213581   7.339   6.394   2.103
70562SOL     OW13582  10.615   7.891   3.195
70562SOL    HW113583  10.524   7.913   3.215
70562SOL    HW213584  10.618   7.795   3.198
70563SOL     OW13585   1.195   3.835  10.121
70563SOL    HW113586   1.167   3.784  10.046
70563SOL    HW213587   1.209   3.771  10.190
70564SOL     OW13588   6.883  11.623  11.927
70564SOL    HW113589   6.792  11.602  11.950
70564SOL    HW213590   6.931  11.615  12.009
70565SOL     OW13591  11.935  11.266  14.708
70565SOL    HW113592  11.924  11.322  14.630
70565SOL    HW213593  12.029  11.262  14.721
70566SOL     OW13594   3.591  13.697   2.492
70566SOL    HW113595   3.517  13.700   2.553
70566SOL    HW213596   3.601  13.788   2.462
70567SOL     OW13597   3.804   0.693  11.891
70567SOL    HW113598   3.872   0.664  11.953
70567SOL    HW213599   3.725   0.700  11.944
70568SOL     OW13600   3.463  13.445   1.576
70568SOL    HW113601   3.409  13.366   1.572
70568SOL    HW213602   3.530  13.424   1.642
70569SOL     OW13603   7.868   6.593   7.856
70569SOL    HW113604   7.937   6.537   7.820
70569SOL    HW213605   7.859   6.664   7.792
70570SOL     OW13606   5.896   5.502   7.868
70570SOL    HW113607   5.829   5.501   7.800
70570SOL    HW213608   5.978   5.512   7.821
70571SOL     OW13609  11.161   8.946  13.998
70571SOL    HW113610  11.253   8.921  13.988
70571SOL    HW213611  11.145   9.009  13.928
70572SOL     OW13612  12.133   7.768   4.425
70572SOL    HW113613  12.182   7.732   4.500
70572SOL    HW213614  12.118   7.859   4.449
70573SOL     OW13615   7.668  11.546   9.677
70573SOL    HW113616   7.682  11.456   9.647
70573SOL    HW213617   7.745  11.594   9.647
70574SOL     OW13618   4.814  14.056   1.925
70574SOL    HW113619   4.886  13.996   1.907
70574SOL    HW213620   4.791  14.092   1.839
70575SOL     OW13621   0.192   9.223   7.236
70575SOL    HW113622   0.284   9.251   7.241
70575SOL    HW213623   0.151   9.261   7.314
70576SOL     OW13624   4.917   6.108   0.083
70576SOL    HW113625   4.922   6.013   0.076
70576SOL    HW213626   4.829   6.124   0.116
70577SOL     OW13627  12.203   6.191   2.974
70577SOL    HW113628  12.234   6.135   2.903
70577SOL    HW213629  12.107   6.189   2.966
70578SOL     OW13630  11.594   8.146   5.257
70578SOL    HW113631  11.593   8.223   5.200
70578SOL    HW213632  11.609   8.072   5.198
70579SOL     OW13633  11.460  12.145   8.835
70579SOL    HW113634  11.535  12.174   8.785
70579SOL    HW213635  11.385  12.161   8.778
70580SOL     OW13636   5.875  10.893   7.819
70580SOL    HW113637   5.879  10.972   7.765
70580SOL    HW213638   5.889  10.821   7.756
70581SOL     OW13639   4.596   5.229  12.866
70581SOL    HW113640   4.634   5.186  12.942
70581SOL    HW213641   4.542   5.300  12.902
70582SOL     OW13642   8.264   0.676   7.069
70582SOL    HW113643   8.318   0.693   7.147
70582SOL    HW213644   8.191   0.623   7.102
70583SOL     OW13645   6.973   6.210  12.187
70583SOL    HW113646   6.928   6.262  12.120
70583SOL    HW213647   6.965   6.120  12.156
70584SOL     OW13648   5.042   8.055   2.131
70584SOL    HW113649   5.103   7.983   2.144
70584SOL    HW213650   5.078   8.104   2.058
70585SOL     OW13651   3.914   4.376   0.831
70585SOL    HW113652   3.911   4.441   0.762
70585SOL    HW213653   3.859   4.412   0.900
70586SOL     OW13654   9.786   9.339   0.695
70586SOL    HW113655   9.863   9.356   0.641
70586SOL    HW213656   9.741   9.268   0.649
70587SOL     OW13657   9.438   6.532  10.123
70587SOL    HW113658   9.501   6.462  10.136
70587SOL    HW213659   9.360   6.488  10.088
70588SOL     OW13660   1.781  13.897   9.817
70588SOL    HW113661   1.846  13.894   9.888
70588SOL    HW213662   1.770  13.805   9.792
70589SOL     OW13663   2.948  10.652  10.960
70589SOL    HW113664   3.041  10.664  10.940
70589SOL    HW213665   2.919  10.585  10.898
70590SOL     OW13666   3.441   6.685   9.784
70590SOL    HW113667   3.517   6.644   9.824
70590SOL    HW213668   3.377   6.693   9.855
70591SOL     OW13669   8.909  13.265  11.992
70591SOL    HW113670   8.984  13.260  11.932
70591SOL    HW213671   8.835  13.289  11.937
70592SOL     OW13672  10.324  10.183   5.578
70592SOL    HW113673  10.266  10.107   5.581
70592SOL    HW213674  10.344  10.193   5.485
70593SOL     OW13675   3.170  12.013  11.897
70593SOL    HW113676   3.098  11.955  11.924
70593SOL    HW213677   3.249  11.970  11.931
70594SOL     OW13678   0.318   6.715   0.807
70594SOL    HW113679   0.266   6.732   0.886
70594SOL    HW213680   0.400   6.762   0.821
70595SOL     OW13681  13.221   3.052   8.301
70595SOL    HW113682  13.155   3.120   8.290
70595SOL    HW213683  13.258   3.041   8.213
70596SOL     OW13684   2.103   7.769   0.219
70596SOL    HW113685   2.137   7.691   0.176
70596SOL    HW213686   2.181   7.821   0.238
70597SOL     OW13687   9.127   4.360   1.451
70597SOL    HW113688   9.083   4.279   1.426
70597SOL    HW213689   9.188   4.378   1.379
70598SOL     OW13690  11.158  13.364  10.276
70598SOL    HW113691  11.117  13.415  10.207
70598SOL    HW213692  11.153  13.273  10.246
70599SOL     OW13693  11.960   6.531   8.520
70599SOL    HW113694  12.013   6.453   8.539
70599SOL    HW213695  11.973   6.588   8.596
70600SOL     OW13696  10.752  11.490   7.856
70600SOL    HW113697  10.821  11.548   7.890
70600SOL    HW213698  10.769  11.406   7.898
70601SOL     OW13699   2.913   2.595  12.157
70601SOL    HW113700   2.983   2.543  12.117
70601SOL    HW213701   2.907   2.674  12.102
70602SOL     OW13702   8.199  12.788   8.676
70602SOL    HW113703   8.203  12.866   8.621
70602SOL    HW213704   8.165  12.820   8.760
70603SOL     OW13705  13.668   6.149   3.962
70603SOL    HW113706  13.609   6.106   4.023
70603SOL    HW213707  13.641   6.241   3.964
70604SOL     OW13708   0.394   0.193   9.578
70604SOL    HW113709   0.315   0.189   9.633
70604SOL    HW213710   0.362   0.173   9.490
70605SOL     OW13711   1.747  13.491   8.323
70605SOL    HW113712   1.798  13.416   8.354
70605SOL    HW213713   1.756  13.556   8.393
70606SOL     OW13714   6.569  14.091   5.702
70606SOL    HW113715   6.536  14.149   5.771
70606SOL    HW213716   6.502  14.023   5.694
70607SOL     OW13717   0.730  14.690   1.685
70607SOL    HW113718   0.642  14.658   1.662
70607SOL    HW213719   0.779  14.685   1.603
70608SOL     OW13720   3.903   4.387   6.704
70608SOL    HW113721   3.966   4.319   6.729
70608SOL    HW213722   3.918   4.402   6.611
70609SOL     OW13723  11.996   1.409  13.387
70609SOL    HW113724  12.017   1.480  13.327
70609SOL    HW213725  12.053   1.337  13.361
70610SOL     OW13726   6.108  12.861  12.529
70610SOL    HW113727   6.047  12.866  12.456
70610SOL    HW213728   6.194  12.860  12.488
70611SOL     OW13729   5.740   5.734   2.252
70611SOL    HW113730   5.768   5.643   2.263
70611SOL    HW213731   5.729   5.766   2.342
70612SOL     OW13732   6.371  13.862   8.108
70612SOL    HW113733   6.367  13.885   8.015
70612SOL    HW213734   6.371  13.947   8.153
70613SOL     OW13735   1.511   7.384   7.230
70613SOL    HW113736   1.549   7.468   7.256
70613SOL    HW213737   1.472   7.401   7.144
70614SOL     OW13738   0.621   6.892   8.036
70614SOL    HW113739   0.529   6.873   8.018
70614SOL    HW213740   0.670   6.829   7.983
70615SOL     OW13741  13.980   1.394  12.786
70615SOL    HW113742  13.889   1.424  12.789
70615SOL    HW213743  14.027   1.463  12.740
70616SOL     OW13744   3.456   6.110  12.084
70616SOL    HW113745   3.473   6.043  12.151
70616SOL    HW213746   3.361   6.113  12.077
70617SOL     OW13747  13.996   3.364  11.525
70617SOL    HW113748  14.080   3.322  11.506
70617SOL    HW213749  14.015   3.427  11.594
70618SOL     OW13750  13.638   1.249   5.170
70618SOL    HW113751  13.670   1.184   5.107
70618SOL    HW213752  13.714   1.302   5.191
70619SOL     OW13753   8.401   0.591  13.108
70619SOL    HW113754   8.456   0.516  13.132
70619SOL    HW213755   8.318   0.552  13.081
70620SOL     OW13756   1.823   6.214   4.624
70620SOL    HW113757   1.863   6.139   4.668
70620SOL    HW213758   1.891   6.282   4.627
70621SOL     OW13759  13.438  13.684   6.669
70621SOL    HW113760  13.412  13.596   6.641
70621SOL    HW213761  13.525  13.697   6.633
70622SOL     OW13762   8.715  12.223  14.182
70622SOL    HW113763   8.754  12.182  14.260
70622SOL    HW213764   8.665  12.152  14.140
70623SOL     OW13765   9.780   4.244  13.049
70623SOL    HW113766   9.766   4.336  13.028
70623SOL    HW213767   9.794   4.243  13.144
70624SOL     OW13768   8.201  14.034   7.781
70624SOL    HW113769   8.159  14.066   7.701
70624SOL    HW213770   8.196  13.939   7.774
70625SOL     OW13771  12.557  10.210  12.471
70625SOL    HW113772  12.562  10.300  12.437
70625SOL    HW213773  12.577  10.218  12.564
70626SOL     OW13774   6.700  10.605  11.268
70626SOL    HW113775   6.685  10.676  11.205
70626SOL    HW213776   6.738  10.649  11.344
70627SOL     OW13777  12.494   4.802   0.148
70627SOL    HW113778  12.539   4.884   0.130
70627SOL    HW213779  12.425   4.825   0.210
70628SOL     OW13780  11.026   1.472   6.314
70628SOL    HW113781  10.942   1.517   6.302
70628SOL    HW213782  11.090   1.542   6.326
70629SOL     OW13783   5.227   5.643   5.407
70629SOL    HW113784   5.132   5.643   5.398
70629SOL    HW213785   5.256   5.570   5.352
70630SOL     OW13786  10.107   3.034   3.441
70630SOL    HW113787  10.095   3.049   3.347
70630SOL    HW213788  10.098   3.121   3.480
70631SOL     OW13789  12.080  12.725  11.226
70631SOL    HW113790  12.142  12.774  11.280
70631SOL    HW213791  12.011  12.788  11.205
70632SOL     OW13792  13.552  13.200   5.797
70632SOL    HW113793  13.546  13.275   5.737
70632SOL    HW213794  13.462  13.168   5.804
70633SOL     OW13795   4.633   1.572  10.708
70633SOL    HW113796   4.612   1.482  10.683
70633SOL    HW213797   4.714   1.592  10.661
70634SOL     OW13798   7.702   6.181  14.563
70634SOL    HW113799   7.766   6.179  14.492
70634SOL    HW213800   7.742   6.237  14.630
70635SOL     OW13801   8.203  11.880   2.037
70635SOL    HW113802   8.200  11.949   2.103
70635SOL    HW213803   8.268  11.818   2.071
70636SOL     OW13804   6.254  12.874   7.805
70636SOL    HW113805   6.177  12.886   7.860
70636SOL    HW213806   6.271  12.961   7.767
70637SOL     OW13807   7.450  12.030  11.273
70637SOL    HW113808   7.452  12.019  11.368
70637SOL    HW213809   7.540  12.052  11.249
70638SOL     OW13810   5.427   6.886  13.688
70638SOL    HW113811   5.443   6.837  13.769
70638SOL    HW213812   5.513   6.895  13.648
70639SOL     OW13813   6.789   0.309   5.203
70639SOL    HW113814   6.730   0.359   5.148
70639SOL    HW213815   6.876   0.333   5.174
70640SOL     OW13816   7.656   4.986  14.499
70640SOL    HW113817   7.590   5.049  14.470
70640SOL    HW213818   7.732   5.040  14.522
70641SOL     OW13819   1.100  13.200   0.214
70641SOL    HW113820   1.105  13.293   0.238
70641SOL    HW213821   1.166  13.158   0.269
70642SOL     OW13822  14.454  11.862  10.192
70642SOL    HW113823  14.534  11.897  10.232
70642SOL    HW213824  14.455  11.769  10.215
70643SOL     OW13825  10.308   1.595  11.385
70643SOL    HW113826  10.276   1.625  11.470
70643SOL    HW213827  10.241   1.535  11.354
70644SOL     OW13828   9.225  12.063   5.046
70644SOL    HW113829   9.167  12.001   5.091
70644SOL    HW213830   9.171  12.141   5.033
70645SOL     OW13831  12.852   8.860  14.424
70645SOL    HW113832  12.867   8.954  14.433
70645SOL    HW213833  12.778   8.853  14.364
70646SOL     OW13834   2.735   8.240  13.537
70646SOL    HW113835   2.769   8.320  13.496
70646SOL    HW213836   2.640   8.249  13.533
70647SOL     OW13837   5.980  14.425   8.599
70647SOL    HW113838   5.926  14.457   8.527
70647SOL    HW213839   6.030  14.502   8.627
70648SOL     OW13840  10.485  12.775   6.288
70648SOL    HW113841  10.533  12.856   6.271
70648SOL    HW213842  10.548  12.705   6.271
70649SOL     OW13843   2.819  11.128   8.696
70649SOL    HW113844   2.811  11.072   8.773
70649SOL    HW213845   2.880  11.082   8.638
70650SOL     OW13846  11.794   1.543   9.990
70650SOL    HW113847  11.709   1.509   9.962
70650SOL    HW213848  11.778   1.579  10.077
70651SOL     OW13849  13.186  12.627   7.694
70651SOL    HW113850  13.121  12.573   7.740
70651SOL    HW213851  13.225  12.681   7.762
70652SOL     OW13852   2.249  11.531   1.385
70652SOL    HW113853   2.306  11.606   1.401
70652SOL    HW213854   2.254  11.516   1.291
70653SOL     OW13855   2.981   2.463   1.183
70653SOL    HW113856   2.974   2.438   1.090
70653SOL    HW213857   2.929   2.397   1.229
70654SOL     OW13858   5.309   6.828   9.936
70654SOL    HW113859   5.260   6.899   9.895
70654SOL    HW213860   5.249   6.791  10.000
70655SOL     OW13861   7.375   1.486   2.681
70655SOL    HW113862   7.335   1.425   2.619
70655SOL    HW213863   7.319   1.482   2.758
70656SOL     OW13864  10.276   3.626  11.953
70656SOL    HW113865  10.223   3.676  11.892
70656SOL    HW213866  10.364   3.664  11.945
70657SOL     OW13867  13.182   0.569   7.780
70657SOL    HW113868  13.121   0.641   7.761
70657SOL    HW213869  13.245   0.572   7.707
70658SOL     OW13870   8.134   2.434   5.107
70658SOL    HW113871   8.049   2.477   5.109
70658SOL    HW213872   8.148   2.403   5.196
70659SOL     OW13873   0.819   2.818   6.830
70659SOL    HW113874   0.888   2.837   6.766
70659SOL    HW213875   0.754   2.768   6.780
70660SOL     OW13876  12.424   1.372   8.482
70660SOL    HW113877  12.474   1.451   8.461
70660SOL    HW213878  12.360   1.364   8.412
70661SOL     OW13879  12.165   2.458   3.792
70661SOL    HW113880  12.162   2.531   3.729
70661SOL    HW213881  12.079   2.458   3.833
70662SOL     OW13882  14.565  13.520   3.159
70662SOL    HW113883  14.477  13.559   3.163
70662SOL    HW213884  14.550  13.427   3.175
70663SOL     OW13885  10.333  10.089   8.673
70663SOL    HW113886  10.243  10.079   8.642
70663SOL    HW213887  10.387  10.078   8.594
70664SOL     OW13888  12.394   9.720   7.443
70664SOL    HW113889  12.432   9.646   7.396
70664SOL    HW213890  12.385   9.788   7.376
70665SOL     OW13891   4.242   5.833   8.271
70665SOL    HW113892   4.180   5.872   8.332
70665SOL    HW213893   4.273   5.907   8.218
70666SOL     OW13894   7.455   4.216  13.134
70666SOL    HW113895   7.484   4.166  13.211
70666SOL    HW213896   7.375   4.172  13.106
70667SOL     OW13897   6.615   3.127   5.244
70667SOL    HW113898   6.540   3.180   5.219
70667SOL    HW213899   6.689   3.164   5.196
70668SOL     OW13900   8.862   1.578   8.744
70668SOL    HW113901   8.834   1.494   8.707
70668SOL    HW213902   8.781   1.630   8.749
70669SOL     OW13903   0.159   2.955   9.830
70669SOL    HW113904   0.115   3.026   9.782
70669SOL    HW213905   0.175   2.992   9.917
70670SOL     OW13906   3.427   2.532   3.169
70670SOL    HW113907   3.482   2.477   3.114
70670SOL    HW213908   3.459   2.621   3.154
70671SOL     OW13909  10.510   8.049  12.352
70671SOL    HW113910  10.541   8.072  12.265
70671SOL    HW213911  10.534   8.123  12.407
70672SOL     OW13912   6.114   9.496   4.011
70672SOL    HW113913   6.143   9.571   4.062
70672SOL    HW213914   6.048   9.454   4.066
70673SOL     OW13915  11.070  11.170  13.743
70673SOL    HW113916  10.996  11.126  13.784
70673SOL    HW213917  11.144  11.150  13.800
70674SOL     OW13918   9.154  10.662   9.697
70674SOL    HW113919   9.103  10.602   9.642
70674SOL    HW213920   9.191  10.605   9.765
70675SOL     OW13921  10.207   0.117  13.191
70675SOL    HW113922  10.296   0.148  13.208
70675SOL    HW213923  10.187   0.151  13.104
70676SOL     OW13924   2.028   1.883   9.971
70676SOL    HW113925   2.038   1.861  10.064
70676SOL    HW213926   1.981   1.966   9.971
70677SOL     OW13927  12.334  11.127   9.108
70677SOL    HW113928  12.423  11.150   9.085
70677SOL    HW213929  12.284  11.208   9.098
70678SOL     OW13930   6.289   4.745  11.255
70678SOL    HW113931   6.292   4.814  11.189
70678SOL    HW213932   6.200   4.710  11.249
70679SOL     OW13933  13.704   9.435  10.447
70679SOL    HW113934  13.795   9.426  10.477
70679SOL    HW213935  13.696   9.372  10.376
70680SOL     OW13936   8.345  11.015   7.566
70680SOL    HW113937   8.336  11.110   7.555
70680SOL    HW213938   8.281  10.992   7.633
70681SOL     OW13939  13.099  10.423   0.434
70681SOL    HW113940  13.174  10.439   0.376
70681SOL    HW213941  13.113  10.481   0.508
70682SOL     OW13942  13.977  14.538   1.864
70682SOL    HW113943  13.967  14.566   1.954
70682SOL    HW213944  13.914  14.590   1.815
70683SOL     OW13945   9.772   3.685  11.317
70683SOL    HW113946   9.797   3.745  11.247
70683SOL    HW213947   9.762   3.600  11.274
70684SOL     OW13948  13.340   4.506   1.675
70684SOL    HW113949  13.347   4.472   1.764
70684SOL    HW213950  13.309   4.596   1.686
70685SOL     OW13951   2.071   3.537   9.664
70685SOL    HW113952   2.092   3.444   9.679
70685SOL    HW213953   2.039   3.568   9.748
70686SOL     OW13954   3.374   0.201   6.108
70686SOL    HW113955   3.450   0.248   6.075
70686SOL    HW213956   3.360   0.131   6.044
70687SOL     OW13957  11.955  13.389   4.672
70687SOL    HW113958  11.994  13.334   4.739
70687SOL    HW213959  11.903  13.454   4.721
70688SOL     OW13960   7.117   5.827  13.199
70688SOL    HW113961   7.040   5.882  13.210
70688SOL    HW213962   7.082   5.739  13.184
70689SOL     OW13963   7.024   6.029  14.160
70689SOL    HW113964   6.957   6.097  14.164
70689SOL    HW213965   6.983   5.952  14.201
70690SOL     OW13966   6.099  10.274  12.760
70690SOL    HW113967   6.124  10.266  12.852
70690SOL    HW213968   6.005  10.259  12.759
70691SOL     OW13969   9.136   8.636   7.429
70691SOL    HW113970   9.219   8.683   7.437
70691SOL    HW213971   9.095   8.644   7.515
70692SOL     OW13972   5.544  11.832   1.445
70692SOL    HW113973   5.450  11.832   1.424
70692SOL    HW213974   5.579  11.755   1.400
70693SOL     OW13975   6.705   4.151   7.054
70693SOL    HW113976   6.637   4.109   7.107
70693SOL    HW213977   6.681   4.244   7.054
70694SOL     OW13978   1.798  12.689  12.775
70694SOL    HW113979   1.759  12.705  12.689
70694SOL    HW213980   1.748  12.615  12.810
70695SOL     OW13981  11.224  12.493   8.787
70695SOL    HW113982  11.182  12.408   8.776
70695SOL    HW213983  11.264  12.490   8.874
70696SOL     OW13984   1.129   5.006   1.885
70696SOL    HW113985   1.110   5.045   1.800
70696SOL    HW213986   1.087   5.063   1.948
70697SOL     OW13987   3.788   4.847   2.508
70697SOL    HW113988   3.855   4.817   2.447
70697SOL    HW213989   3.827   4.834   2.595
70698SOL     OW13990   7.649  10.144   3.826
70698SOL    HW113991   7.611  10.087   3.760
70698SOL    HW213992   7.697  10.210   3.776
70699SOL     OW13993   1.368   7.202  12.878
70699SOL    HW113994   1.384   7.169  12.790
70699SOL    HW213995   1.286   7.252  12.870
70700SOL     OW13996  11.920   4.951   8.634
70700SOL    HW113997  11.842   4.988   8.593
70700SOL    HW213998  11.923   4.860   8.602
70701SOL     OW13999  13.296   3.888   8.491
70701SOL    HW114000  13.253   3.945   8.427
70701SOL    HW214001  13.387   3.884   8.462
70702SOL     OW14002   8.198   9.309   0.987
70702SOL    HW114003   8.233   9.339   0.903
70702SOL    HW214004   8.104   9.306   0.975
70703SOL     OW14005  12.989   7.021   4.842
70703SOL    HW114006  13.080   6.993   4.836
70703SOL    HW214007  12.954   7.006   4.754
70704SOL     OW14008  14.425   0.699   2.125
70704SOL    HW114009  14.343   0.662   2.093
70704SOL    HW214010  14.413   0.707   2.219
70705SOL     OW14011  11.518  14.239   7.141
70705SOL    HW114012  11.579  14.180   7.096
70705SOL    HW214013  11.471  14.182   7.202
70706SOL     OW14014  14.299   8.003   5.303
70706SOL    HW114015  14.213   7.964   5.291
70706SOL    HW214016  14.353   7.932   5.337
70707SOL     OW14017   7.445  11.726   7.053
70707SOL    HW114018   7.471  11.691   7.139
70707SOL    HW214019   7.365  11.774   7.070
70708SOL     OW14020  10.638   9.332  11.228
70708SOL    HW114021  10.682   9.404  11.183
70708SOL    HW214022  10.651   9.350  11.321
70709SOL     OW14023  11.458   8.060   4.258
70709SOL    HW114024  11.497   7.973   4.265
70709SOL    HW214025  11.377   8.046   4.209
70710SOL     OW14026   9.330  13.118   1.352
70710SOL    HW114027   9.283  13.042   1.319
70710SOL    HW214028   9.366  13.160   1.273
70711SOL     OW14029   5.614   3.935  12.470
70711SOL    HW114030   5.658   3.950  12.386
70711SOL    HW214031   5.645   4.006  12.526
70712SOL     OW14032  10.865   2.052   4.220
70712SOL    HW114033  10.931   2.007   4.273
70712SOL    HW214034  10.850   1.993   4.146
70713SOL     OW14035  14.007   2.555  11.250
70713SOL    HW114036  13.952   2.594  11.182
70713SOL    HW214037  14.090   2.538  11.206
70714SOL     OW14038   4.288   1.194   4.216
70714SOL    HW114039   4.334   1.244   4.284
70714SOL    HW214040   4.233   1.132   4.265
70715SOL     OW14041   2.362   1.446  10.017
70715SOL    HW114042   2.438   1.455   9.960
70715SOL    HW214043   2.385   1.374  10.077
70716SOL     OW14044   7.102   3.592   4.388
70716SOL    HW114045   7.086   3.554   4.302
70716SOL    HW214046   7.105   3.686   4.372
70717SOL     OW14047  14.115   9.641   8.842
70717SOL    HW114048  14.067   9.570   8.885
70717SOL    HW214049  14.142   9.604   8.759
70718SOL     OW14050   2.552   4.492   6.895
70718SOL    HW114051   2.603   4.569   6.868
70718SOL    HW214052   2.478   4.529   6.944
70719SOL     OW14053   4.855   9.378  12.096
70719SOL    HW114054   4.901   9.462  12.100
70719SOL    HW214055   4.832   9.359  12.188
70720SOL     OW14056   1.363  10.762  11.175
70720SOL    HW114057   1.297  10.831  11.172
70720SOL    HW214058   1.447  10.808  11.183
70721SOL     OW14059   9.822  11.649  10.429
70721SOL    HW114060   9.888  11.659  10.497
70721SOL    HW214061   9.777  11.567  10.451
70722SOL     OW14062   9.031  10.026  14.422
70722SOL    HW114063   9.030  10.110  14.468
70722SOL    HW214064   9.085   9.969  14.477
70723SOL     OW14065   6.344   4.376   5.636
70723SOL    HW114066   6.403   4.448   5.657
70723SOL    HW214067   6.270   4.388   5.695
70724SOL     OW14068   4.091  11.952   7.335
70724SOL    HW114069   4.072  12.043   7.312
70724SOL    HW214070   4.136  11.958   7.419
70725SOL     OW14071  13.754   7.215   7.927
70725SOL    HW114072  13.728   7.157   7.998
70725SOL    HW214073  13.674   7.227   7.876
70726SOL     OW14074   7.663  10.597   4.951
70726SOL    HW114075   7.744  10.567   4.909
70726SOL    HW214076   7.654  10.688   4.923
70727SOL     OW14077  12.055   3.917   9.617
70727SOL    HW114078  12.143   3.879   9.608
70727SOL    HW214079  12.009   3.855   9.674
70728SOL     OW14080  12.441   6.949   3.802
70728SOL    HW114081  12.466   6.878   3.744
70728SOL    HW214082  12.361   6.985   3.763
70729SOL     OW14083  10.630   1.705   1.055
70729SOL    HW114084  10.624   1.702   0.960
70729SOL    HW214085  10.724   1.712   1.073
70730SOL     OW14086  11.006   2.496   5.573
70730SOL    HW114087  11.056   2.430   5.621
70730SOL    HW214088  11.042   2.579   5.603
70731SOL     OW14089  14.797  13.044  13.315
70731SOL    HW114090  14.738  13.003  13.251
70731SOL    HW214091  14.844  12.970  13.354
70732SOL     OW14092   1.853   5.793   1.441
70732SOL    HW114093   1.865   5.862   1.506
70732SOL    HW214094   1.902   5.823   1.365
70733SOL     OW14095   2.794   6.604   0.526
70733SOL    HW114096   2.847   6.580   0.450
70733SOL    HW214097   2.790   6.700   0.524
70734SOL     OW14098  11.667   6.240   6.869
70734SOL    HW114099  11.584   6.242   6.916
70734SOL    HW214100  11.646   6.269   6.780
70735SOL     OW14101   7.764   7.605   4.681
70735SOL    HW114102   7.824   7.678   4.699
70735SOL    HW214103   7.807   7.529   4.720
70736SOL     OW14104   4.751  12.131  12.636
70736SOL    HW114105   4.835  12.088  12.649
70736SOL    HW214106   4.774  12.217  12.599
70737SOL     OW14107  14.502   0.142   8.067
70737SOL    HW114108  14.567   0.072   8.062
70737SOL    HW214109  14.426   0.101   8.109
70738SOL     OW14110   4.543   6.975   2.217
70738SOL    HW114111   4.486   7.018   2.280
70738SOL    HW214112   4.607   6.929   2.270
70739SOL     OW14113   5.819   0.220   3.244
70739SOL    HW114114   5.811   0.147   3.183
70739SOL    HW214115   5.733   0.263   3.242
70740SOL     OW14116   8.842  10.746   6.391
70740SOL    HW114117   8.868  10.835   6.369
70740SOL    HW214118   8.862  10.738   6.484
70741SOL     OW14119   6.431  12.079  11.674
70741SOL    HW114120   6.496  12.009  11.669
70741SOL    HW214121   6.361  12.043  11.729
70742SOL     OW14122   5.329  10.501   6.014
70742SOL    HW114123   5.343  10.561   5.940
70742SOL    HW214124   5.236  10.478   6.008
70743SOL     OW14125  14.242   6.426  14.330
70743SOL    HW114126  14.162   6.439  14.381
70743SOL    HW214127  14.303   6.383  14.390
70744SOL     OW14128  14.043  13.355   5.564
70744SOL    HW114129  14.138  13.342   5.557
70744SOL    HW214130  14.026  13.433   5.513
70745SOL     OW14131  14.225  14.852   1.442
70745SOL    HW114132  14.275  14.786   1.489
70745SOL    HW214133  14.181  14.804   1.372
70746SOL     OW14134  12.474   2.047   6.789
70746SOL    HW114135  12.432   2.133   6.782
70746SOL    HW214136  12.567   2.066   6.788
70747SOL     OW14137   2.340   4.548  13.408
70747SOL    HW114138   2.310   4.472  13.359
70747SOL    HW214139   2.425   4.569  13.369
70748SOL     OW14140   4.161   6.818   1.818
70748SOL    HW114141   4.202   6.904   1.808
70748SOL    HW214142   4.071   6.831   1.786
70749SOL     OW14143   8.632  13.325   8.523
70749SOL    HW114144   8.635  13.242   8.570
70749SOL    HW214145   8.724  13.352   8.517
70750SOL     OW14146   5.891   3.659   3.827
70750SOL    HW114147   5.925   3.613   3.750
70750SOL    HW214148   5.886   3.592   3.895
70751SOL     OW14149   5.532   0.854   3.355
70751SOL    HW114150   5.520   0.772   3.307
70751SOL    HW214151   5.444   0.877   3.385
70752SOL     OW14152   8.552   2.921   4.121
70752SOL    HW114153   8.638   2.959   4.105
70752SOL    HW214154   8.537   2.862   4.047
70753SOL     OW14155  12.936   4.619  13.139
70753SOL    HW114156  12.859   4.594  13.190
70753SOL    HW214157  12.963   4.703  13.176
70754SOL     OW14158   6.344  12.695   2.255
70754SOL    HW114159   6.395  12.664   2.330
70754SOL    HW214160   6.331  12.616   2.202
70755SOL     OW14161   8.663  14.358   8.928
70755SOL    HW114162   8.587  14.311   8.962
70755SOL    HW214163   8.738  14.323   8.977
70756SOL     OW14164  13.657   7.045  11.604
70756SOL    HW114165  13.566   7.063  11.628
70756SOL    HW214166  13.669   7.090  11.520
70757SOL     OW14167  13.399  13.356  12.549
70757SOL    HW114168  13.423  13.439  12.591
70757SOL    HW214169  13.383  13.379  12.458
70758SOL     OW14170  11.821  12.814   8.607
70758SOL    HW114171  11.777  12.736   8.642
70758SOL    HW214172  11.905  12.782   8.574
70759SOL     OW14173  12.003   0.407   7.678
70759SOL    HW114174  11.931   0.360   7.636
70759SOL    HW214175  12.019   0.481   7.620
70760SOL     OW14176   3.468   6.681   6.757
70760SOL    HW114177   3.550   6.648   6.720
70760SOL    HW214178   3.495   6.728   6.836
70761SOL     OW14179  12.117  11.932   0.564
70761SOL    HW114180  12.069  11.871   0.508
70761SOL    HW214181  12.061  11.941   0.642
70762SOL     OW14182   4.770   9.053  14.187
70762SOL    HW114183   4.721   9.102  14.121
70762SOL    HW214184   4.840   9.112  14.214
70763SOL     OW14185   2.654   6.028  12.426
70763SOL    HW114186   2.678   5.935  12.430
70763SOL    HW214187   2.674   6.061  12.514
70764SOL     OW14188   4.287   9.219   9.065
70764SOL    HW114189   4.323   9.149   9.010
70764SOL    HW214190   4.298   9.298   9.012
70765SOL     OW14191   0.761   7.777  12.945
70765SOL    HW114192   0.775   7.824  12.862
70765SOL    HW214193   0.835   7.804  13.000
70766SOL     OW14194   4.837   4.022   4.827
70766SOL    HW114195   4.835   4.108   4.785
70766SOL    HW214196   4.745   4.000   4.840
70767SOL     OW14197   3.265  12.969   8.164
70767SOL    HW114198   3.268  12.960   8.068
70767SOL    HW214199   3.176  12.998   8.183
70768SOL     OW14200  11.304  14.196   3.384
70768SOL    HW114201  11.327  14.199   3.477
70768SOL    HW214202  11.295  14.103   3.364
70769SOL     OW14203   9.077   6.119  14.854
70769SOL    HW114204   9.149   6.081   0.034
70769SOL    HW214205   9.106   6.113  14.763
70770SOL     OW14206  13.463  11.943   1.923
70770SOL    HW114207  13.468  12.034   1.895
70770SOL    HW214208  13.400  11.902   1.864
70771SOL     OW14209   4.121   7.610   0.998
70771SOL    HW114210   4.109   7.530   0.945
70771SOL    HW214211   4.062   7.674   0.959
70772SOL     OW14212  11.972   9.415   4.080
70772SOL    HW114213  11.910   9.487   4.093
70772SOL    HW214214  11.988   9.381   4.168
70773SOL     OW14215  12.268   8.870  13.521
70773SOL    HW114216  12.225   8.813  13.585
70773SOL    HW214217  12.319   8.932  13.574
70774SOL     OW14218  10.052   1.473   2.671
70774SOL    HW114219  10.132   1.482   2.618
70774SOL    HW214220  10.080   1.421   2.747
70775SOL     OW14221   1.439   6.325   3.431
70775SOL    HW114222   1.371   6.267   3.395
70775SOL    HW214223   1.419   6.411   3.395
70776SOL     OW14224  14.404  14.609  11.316
70776SOL    HW114225  14.369  14.661  11.388
70776SOL    HW214226  14.424  14.673  11.248
70777SOL     OW14227  13.131  14.482   8.427
70777SOL    HW114228  13.152  14.497   8.519
70777SOL    HW214229  13.163  14.560   8.382
70778SOL     OW14230   3.980  10.157  14.700
70778SOL    HW114231   3.942  10.133  14.785
70778SOL    HW214232   3.930  10.234  14.673
70779SOL     OW14233  13.038  13.152   9.173
70779SOL    HW114234  13.025  13.071   9.124
70779SOL    HW214235  13.075  13.124   9.256
70780SOL     OW14236   2.272  11.722   9.171
70780SOL    HW114237   2.348  11.777   9.155
70780SOL    HW214238   2.307  11.633   9.174
70781SOL     OW14239   6.185  12.575   5.027
70781SOL    HW114240   6.132  12.556   4.950
70781SOL    HW214241   6.209  12.489   5.062
70782SOL     OW14242  10.286  11.109   0.051
70782SOL    HW114243  10.318  11.081   0.137
70782SOL    HW214244  10.205  11.059   0.038
70783SOL     OW14245  12.709  11.263   7.937
70783SOL    HW114246  12.744  11.175   7.947
70783SOL    HW214247  12.713  11.281   7.843
70784SOL     OW14248  13.299   7.401   6.815
70784SOL    HW114249  13.327   7.324   6.765
70784SOL    HW214250  13.370   7.416   6.878
70785SOL     OW14251   5.356   3.839   3.905
70785SOL    HW114252   5.313   3.794   3.832
70785SOL    HW214253   5.285   3.882   3.952
70786SOL     OW14254  13.189  11.101   2.081
70786SOL    HW114255  13.221  11.123   1.993
70786SOL    HW214256  13.108  11.053   2.065
70787SOL     OW14257  10.742  12.569   9.276
70787SOL    HW114258  10.729  12.631   9.204
70787SOL    HW214259  10.800  12.614   9.337
70788SOL     OW14260   0.296  10.586  12.714
70788SOL    HW114261   0.369  10.620  12.766
70788SOL    HW214262   0.327  10.591  12.623
70789SOL     OW14263   1.239   3.094   6.691
70789SOL    HW114264   1.193   3.154   6.750
70789SOL    HW214265   1.223   3.130   6.603
70790SOL     OW14266   9.526   2.703   3.448
70790SOL    HW114267   9.447   2.749   3.474
70790SOL    HW214268   9.584   2.710   3.524
70791SOL     OW14269   8.130  14.108   6.252
70791SOL    HW114270   8.203  14.131   6.311
70791SOL    HW214271   8.063  14.071   6.310
70792SOL     OW14272   6.457  13.175  11.928
70792SOL    HW114273   6.408  13.158  12.008
70792SOL    HW214274   6.549  13.174  11.955
70793SOL     OW14275  13.239  12.280  14.319
70793SOL    HW114276  13.145  12.263  14.322
70793SOL    HW214277  13.274  12.215  14.259
70794SOL     OW14278  12.016   2.795  12.078
70794SOL    HW114279  12.033   2.702  12.091
70794SOL    HW214280  12.102   2.832  12.056
70795SOL     OW14281   1.608  10.884   5.593
70795SOL    HW114282   1.516  10.897   5.569
70795SOL    HW214283   1.626  10.951   5.659
70796SOL     OW14284   9.962   1.485  11.698
70796SOL    HW114285  10.030   1.488  11.766
70796SOL    HW214286   9.902   1.556  11.720
70797SOL     OW14287   7.499   8.374   3.080
70797SOL    HW114288   7.496   8.405   2.990
70797SOL    HW214289   7.448   8.439   3.129
70798SOL     OW14290   6.879  13.143   2.260
70798SOL    HW114291   6.919  13.225   2.289
70798SOL    HW214292   6.788  13.150   2.288
70799SOL     OW14293   4.091  14.512   7.150
70799SOL    HW114294   4.084  14.545   7.239
70799SOL    HW214295   4.176  14.468   7.147
70800SOL     OW14296  11.118  13.807   0.723
70800SOL    HW114297  11.058  13.761   0.665
70800SOL    HW214298  11.106  13.765   0.808
70801SOL     OW14299   6.107  12.997   2.618
70801SOL    HW114300   6.178  12.954   2.665
70801SOL    HW214301   6.143  13.018   2.532
70802SOL     OW14302   2.842   4.255   6.478
70802SOL    HW114303   2.805   4.174   6.443
70802SOL    HW214304   2.768   4.298   6.522
70803SOL     OW14305  10.987  10.139   4.970
70803SOL    HW114306  10.998  10.044   4.971
70803SOL    HW214307  11.008  10.166   4.881
70804SOL     OW14308  10.527   6.665  12.550
70804SOL    HW114309  10.448   6.718  12.565
70804SOL    HW214310  10.493   6.580  12.523
70805SOL     OW14311   2.283   4.630   7.330
70805SOL    HW114312   2.225   4.608   7.258
70805SOL    HW214313   2.228   4.681   7.390
70806SOL     OW14314   8.384  14.196   8.593
70806SOL    HW114315   8.452  14.261   8.577
70806SOL    HW214316   8.337  14.190   8.510
70807SOL     OW14317   2.237  12.341  11.207
70807SOL    HW114318   2.251  12.257  11.251
70807SOL    HW214319   2.255  12.406  11.274
70808SOL     OW14320   4.268   5.293   1.149
70808SOL    HW114321   4.343   5.235   1.163
70808SOL    HW214322   4.192   5.236   1.157
70809SOL     OW14323   0.552   8.876  14.215
70809SOL    HW114324   0.627   8.916  14.173
70809SOL    HW214325   0.504   8.949  14.254
70810SOL     OW14326  14.395   4.346   4.142
70810SOL    HW114327  14.364   4.269   4.094
70810SOL    HW214328  14.460   4.311   4.204
70811SOL     OW14329   5.835   5.288   6.901
70811SOL    HW114330   5.863   5.314   6.814
70811SOL    HW214331   5.795   5.367   6.938
70812SOL     OW14332  14.161   7.961   5.661
70812SOL    HW114333  14.166   8.057   5.662
70812SOL    HW214334  14.078   7.942   5.617
70813SOL     OW14335   9.388   2.224  10.458
70813SOL    HW114336   9.364   2.132  10.447
70813SOL    HW214337   9.317   2.273  10.416
70814SOL     OW14338  13.008   4.100   8.854
70814SOL    HW114339  13.067   4.110   8.779
70814SOL    HW214340  12.951   4.177   8.849
70815SOL     OW14341  14.454   2.774  14.262
70815SOL    HW114342  14.508   2.710  14.215
70815SOL    HW214343  14.476   2.760  14.354
70816SOL     OW14344   0.680  13.402   5.740
70816SOL    HW114345   0.667  13.484   5.693
70816SOL    HW214346   0.751  13.359   5.694
70817SOL     OW14347  14.560   3.983  14.120
70817SOL    HW114348  14.628   4.050  14.110
70817SOL    HW214349  14.570   3.927  14.042
70818SOL     OW14350  11.850  10.627  11.847
70818SOL    HW114351  11.869  10.572  11.771
70818SOL    HW214352  11.935  10.658  11.877
70819SOL     OW14353  11.349  14.319  11.642
70819SOL    HW114354  11.381  14.260  11.574
70819SOL    HW214355  11.406  14.396  11.636
70820SOL     OW14356  10.143   8.910   1.951
70820SOL    HW114357  10.184   8.846   1.894
70820SOL    HW214358  10.161   8.995   1.910
70821SOL     OW14359  11.508   0.226   6.682
70821SOL    HW114360  11.473   0.202   6.596
70821SOL    HW214361  11.552   0.147   6.713
70822SOL     OW14362  12.818  10.108  11.339
70822SOL    HW114363  12.840  10.201  11.352
70822SOL    HW214364  12.729  10.110  11.303
70823SOL     OW14365   8.582   2.478  10.767
70823SOL    HW114366   8.511   2.466  10.829
70823SOL    HW214367   8.621   2.391  10.757
70824SOL     OW14368   6.187  11.621   9.906
70824SOL    HW114369   6.103  11.606   9.862
70824SOL    HW214370   6.251  11.574   9.852
70825SOL     OW14371  12.144   3.194   8.842
70825SOL    HW114372  12.099   3.225   8.763
70825SOL    HW214373  12.074   3.169   8.902
70826SOL     OW14374   4.355   1.879  14.776
70826SOL    HW114375   4.366   1.954  14.718
70826SOL    HW214376   4.378   1.913  14.863
70827SOL     OW14377  10.418   3.667   7.866
70827SOL    HW114378  10.498   3.696   7.909
70827SOL    HW214379  10.431   3.688   7.774
70828SOL     OW14380   1.527  10.600   8.861
70828SOL    HW114381   1.604  10.650   8.833
70828SOL    HW214382   1.488  10.569   8.779
70829SOL     OW14383   6.620   8.242   3.718
70829SOL    HW114384   6.616   8.148   3.704
70829SOL    HW214385   6.689   8.272   3.659
70830SOL     OW14386   6.705  13.262   5.125
70830SOL    HW114387   6.637  13.272   5.191
70830SOL    HW214388   6.771  13.205   5.165
70831SOL     OW14389   9.158  12.786   3.407
70831SOL    HW114390   9.153  12.767   3.500
70831SOL    HW214391   9.214  12.717   3.371
70832SOL     OW14392  11.536   2.368   4.937
70832SOL    HW114393  11.516   2.301   4.871
70832SOL    HW214394  11.620   2.404   4.909
70833SOL     OW14395   3.935  13.939   3.775
70833SOL    HW114396   3.854  13.889   3.783
70833SOL    HW214397   3.917  14.005   3.708
70834SOL     OW14398   4.627   8.775   9.379
70834SOL    HW114399   4.696   8.802   9.320
70834SOL    HW214400   4.661   8.696   9.421
70835SOL     OW14401  13.308  10.450   0.235
70835SOL    HW114402  13.320  10.403   0.153
70835SOL    HW214403  13.390  10.498   0.248
70836SOL     OW14404  13.540   7.230   4.848
70836SOL    HW114405  13.613   7.279   4.886
70836SOL    HW214406  13.564   7.220   4.756
70837SOL     OW14407   0.868   9.349   4.203
70837SOL    HW114408   0.858   9.254   4.210
70837SOL    HW214409   0.824   9.384   4.281
70838SOL     OW14410  12.837   7.758  13.099
70838SOL    HW114411  12.803   7.720  13.018
70838SOL    HW214412  12.910   7.812  13.071
70839SOL     OW14413   6.407  13.229  12.203
70839SOL    HW114414   6.483  13.272  12.242
70839SOL    HW214415   6.340  13.298  12.198
70840SOL     OW14416   4.346   7.342  12.342
70840SOL    HW114417   4.434   7.314  12.319
70840SOL    HW214418   4.338   7.430  12.304
70841SOL     OW14419  14.104   5.596   2.421
70841SOL    HW114420  14.126   5.658   2.490
70841SOL    HW214421  14.148   5.515   2.446
70842SOL     OW14422   6.299   3.005   3.327
70842SOL    HW114423   6.223   3.060   3.349
70842SOL    HW214424   6.262   2.933   3.275
70843SOL     OW14425   9.013  13.465   6.340
70843SOL    HW114426   8.950  13.457   6.268
70843SOL    HW214427   9.064  13.543   6.318
70844SOL     OW14428   8.874  14.645   4.266
70844SOL    HW114429   8.915  14.688   4.190
70844SOL    HW214430   8.782  14.670   4.261
70845SOL     OW14431   8.028  11.262   8.838
70845SOL    HW114432   7.958  11.323   8.859
70845SOL    HW214433   7.996  11.177   8.869
70846SOL     OW14434  14.620   1.801   9.011
70846SOL    HW114435  14.660   1.716   9.031
70846SOL    HW214436  14.682   1.865   9.046
70847SOL     OW14437   7.333   2.023   5.408
70847SOL    HW114438   7.246   2.058   5.388
70847SOL    HW214439   7.316   1.945   5.461
70848SOL     OW14440   5.322   6.106   5.578
70848SOL    HW114441   5.322   6.025   5.529
70848SOL    HW214442   5.354   6.082   5.665
70849SOL     OW14443  11.240   0.942   3.025
70849SOL    HW114444  11.163   0.885   3.016
70849SOL    HW214445  11.234   1.002   2.951
70850SOL     OW14446   5.746  11.712   4.904
70850SOL    HW114447   5.749  11.685   4.812
70850SOL    HW214448   5.680  11.782   4.906
70851SOL     OW14449  11.759   1.232  12.614
70851SOL    HW114450  11.743   1.167  12.546
70851SOL    HW214451  11.782   1.180  12.692
70852SOL     OW14452   4.586  13.684   4.599
70852SOL    HW114453   4.596  13.595   4.566
70852SOL    HW214454   4.572  13.673   4.693
70853SOL     OW14455  12.821   1.546  12.632
70853SOL    HW114456  12.734   1.508  12.636
70853SOL    HW214457  12.876   1.476  12.595
70854SOL     OW14458  13.493   7.017  12.216
70854SOL    HW114459  13.559   6.951  12.195
70854SOL    HW214460  13.501   7.029  12.311
70855SOL     OW14461   3.142  14.118   3.821
70855SOL    HW114462   3.198  14.123   3.744
70855SOL    HW214463   3.112  14.027   3.824
70856SOL     OW14464  12.741   3.303   6.749
70856SOL    HW114465  12.823   3.288   6.701
70856SOL    HW214466  12.695   3.369   6.697
70857SOL     OW14467   6.216   0.315  12.659
70857SOL    HW114468   6.282   0.251  12.634
70857SOL    HW214469   6.237   0.393  12.609
70858SOL     OW14470  13.280  11.052   4.519
70858SOL    HW114471  13.331  11.130   4.542
70858SOL    HW214472  13.295  10.991   4.591
70859SOL     OW14473   7.733   0.349   4.736
70859SOL    HW114474   7.790   0.425   4.721
70859SOL    HW214475   7.734   0.302   4.652
70860SOL     OW14476   8.110   6.329  14.757
70860SOL    HW114477   8.027   6.315  14.711
70860SOL    HW214478   8.139   6.415  14.728
70861SOL     OW14479   1.525   6.970   3.791
70861SOL    HW114480   1.553   6.879   3.778
70861SOL    HW214481   1.490   6.971   3.880
70862SOL     OW14482   1.137  12.984   0.404
70862SOL    HW114483   1.111  13.007   0.494
70862SOL    HW214484   1.188  12.904   0.413
70863SOL     OW14485   4.148   1.527  14.209
70863SOL    HW114486   4.182   1.490  14.290
70863SOL    HW214487   4.062   1.562  14.232
70864SOL     OW14488   3.055  11.241   5.324
70864SOL    HW114489   3.075  11.311   5.262
70864SOL    HW214490   2.959  11.236   5.324
70865SOL     OW14491   2.193   8.599   5.524
70865SOL    HW114492   2.188   8.594   5.620
70865SOL    HW214493   2.143   8.524   5.493
70866SOL     OW14494   6.746  13.028   0.655
70866SOL    HW114495   6.692  12.990   0.586
70866SOL    HW214496   6.686  13.043   0.727
70867SOL     OW14497   2.515  13.367  13.355
70867SOL    HW114498   2.497  13.446  13.407
70867SOL    HW214499   2.435  13.355  13.303
70868SOL     OW14500   2.008  13.623   7.017
70868SOL    HW114501   2.029  13.597   7.107
70868SOL    HW214502   1.945  13.695   7.027
70869SOL     OW14503   0.864  13.448   2.724
70869SOL    HW114504   0.822  13.493   2.797
70869SOL    HW214505   0.805  13.461   2.650
70870SOL     OW14506   2.461   2.635  11.971
70870SOL    HW114507   2.415   2.568  11.920
70870SOL    HW214508   2.553   2.611  11.964
70871SOL     OW14509  11.975   2.866   1.483
70871SOL    HW114510  12.004   2.952   1.451
70871SOL    HW214511  11.880   2.874   1.489
70872SOL     OW14512  13.833  12.580   1.249
70872SOL    HW114513  13.860  12.514   1.312
70872SOL    HW214514  13.810  12.531   1.171
70873SOL     OW14515   3.844  13.042  12.439
70873SOL    HW114516   3.868  13.056  12.347
70873SOL    HW214517   3.765  13.094  12.451
70874SOL     OW14518   7.824   3.937  11.630
70874SOL    HW114519   7.830   3.868  11.563
70874SOL    HW214520   7.913   3.943  11.666
70875SOL     OW14521   7.036   2.555   2.257
70875SOL    HW114522   6.947   2.529   2.234
70875SOL    HW214523   7.039   2.649   2.238
70876SOL     OW14524   4.403   2.783   8.943
70876SOL    HW114525   4.361   2.703   8.912
70876SOL    HW214526   4.440   2.822   8.864
70877SOL     OW14527   5.776  13.239  10.095
70877SOL    HW114528   5.807  13.307  10.035
70877SOL    HW214529   5.681  13.242  10.089
70878SOL     OW14530  14.844   6.126   6.566
70878SOL    HW114531  14.778   6.192   6.544
70878SOL    HW214532  14.832   6.109   6.659
70879SOL     OW14533   1.611   4.897   8.325
70879SOL    HW114534   1.531   4.860   8.363
70879SOL    HW214535   1.679   4.832   8.346
70880SOL     OW14536  11.631   6.891  12.544
70880SOL    HW114537  11.711   6.928  12.508
70880SOL    HW214538  11.588   6.848  12.470
70881SOL     OW14539   2.986   2.535   4.862
70881SOL    HW114540   3.030   2.600   4.809
70881SOL    HW214541   2.902   2.520   4.818
70882SOL     OW14542   2.825  13.435   5.770
70882SOL    HW114543   2.746  13.489   5.763
70882SOL    HW214544   2.892  13.483   5.720
70883SOL     OW14545   5.636   1.827  12.814
70883SOL    HW114546   5.626   1.903  12.757
70883SOL    HW214547   5.557   1.774  12.798
70884SOL     OW14548   1.468   1.779   3.946
70884SOL    HW114549   1.401   1.726   3.988
70884SOL    HW214550   1.446   1.869   3.970
70885SOL     OW14551  14.108  10.810   2.599
70885SOL    HW114552  14.065  10.895   2.583
70885SOL    HW214553  14.109  10.767   2.514
70886SOL     OW14554   1.594   7.025   0.634
70886SOL    HW114555   1.642   7.009   0.553
70886SOL    HW214556   1.515   6.972   0.627
70887SOL     OW14557   6.022   9.954   4.907
70887SOL    HW114558   6.100   9.977   4.957
70887SOL    HW214559   6.054   9.895   4.839
70888SOL     OW14560   7.570   3.427   2.751
70888SOL    HW114561   7.635   3.380   2.699
70888SOL    HW214562   7.615   3.508   2.777
70889SOL     OW14563  13.966   1.765   6.585
70889SOL    HW114564  14.008   1.817   6.654
70889SOL    HW214565  14.027   1.770   6.511
70890SOL     OW14566   3.975   9.227   6.883
70890SOL    HW114567   4.055   9.227   6.831
70890SOL    HW214568   3.921   9.158   6.844
70891SOL     OW14569   4.738   8.335   5.281
70891SOL    HW114570   4.751   8.263   5.343
70891SOL    HW214571   4.643   8.334   5.264
70892SOL     OW14572   1.109   9.540   3.222
70892SOL    HW114573   1.132   9.532   3.314
70892SOL    HW214574   1.019   9.574   3.222
70893SOL     OW14575   3.872   9.320   3.823
70893SOL    HW114576   3.794   9.294   3.872
70893SOL    HW214577   3.906   9.238   3.788
70894SOL     OW14578   7.371   6.824  10.873
70894SOL    HW114579   7.309   6.895  10.889
70894SOL    HW214580   7.329   6.746  10.910
70895SOL     OW14581   3.683   6.788  11.041
70895SOL    HW114582   3.777   6.798  11.032
70895SOL    HW214583   3.672   6.726  11.114
70896SOL     OW14584   7.897   6.665  10.247
70896SOL    HW114585   7.959   6.593  10.255
70896SOL    HW214586   7.930   6.717  10.173
70897SOL     OW14587   2.326  14.685   1.375
70897SOL    HW114588   2.256  14.698   1.438
70897SOL    HW214589   2.401  14.656   1.428
70898SOL     OW14590   0.688   4.712   3.863
70898SOL    HW114591   0.715   4.749   3.947
70898SOL    HW214592   0.737   4.631   3.856
70899SOL     OW14593   6.385   3.776   1.127
70899SOL    HW114594   6.411   3.701   1.073
70899SOL    HW214595   6.458   3.790   1.187
70900SOL     OW14596   6.345   5.445   9.090
70900SOL    HW114597   6.363   5.385   9.017
70900SOL    HW214598   6.331   5.389   9.165
70901SOL     OW14599   0.689   9.787  12.847
70901SOL    HW114600   0.772   9.827  12.871
70901SOL    HW214601   0.713   9.714  12.790
70902SOL     OW14602  12.776   0.252   9.361
70902SOL    HW114603  12.723   0.185   9.317
70902SOL    HW214604  12.853   0.206   9.392
70903SOL     OW14605   6.205   3.105   0.640
70903SOL    HW114606   6.200   3.011   0.625
70903SOL    HW214607   6.162   3.144   0.564
70904SOL     OW14608   1.810   7.467   1.849
70904SOL    HW114609   1.760   7.389   1.826
70904SOL    HW214610   1.896   7.453   1.810
70905SOL     OW14611   7.424  11.264   2.959
70905SOL    HW114612   7.512  11.249   2.924
70905SOL    HW214613   7.422  11.357   2.981
70906SOL     OW14614   0.144   9.172  13.915
70906SOL    HW114615   0.196   9.252  13.905
70906SOL    HW214616   0.189   9.108  13.860
70907SOL     OW14617   3.210  10.243   2.989
70907SOL    HW114618   3.177  10.314   3.045
70907SOL    HW214619   3.262  10.189   3.049
70908SOL     OW14620   3.015   9.963  14.436
70908SOL    HW114621   3.033  10.041  14.383
70908SOL    HW214622   3.001   9.893  14.372
70909SOL     OW14623  13.015   4.094   0.574
70909SOL    HW114624  12.953   4.054   0.635
70909SOL    HW214625  13.092   4.037   0.576
70910SOL     OW14626   4.661   1.375   1.001
70910SOL    HW114627   4.736   1.352   0.946
70910SOL    HW214628   4.595   1.408   0.940
70911SOL     OW14629  14.579   0.947  10.069
70911SOL    HW114630  14.498   0.904  10.039
70911SOL    HW214631  14.648   0.907  10.018
70912SOL     OW14632   4.283   0.392  14.245
70912SOL    HW114633   4.349   0.364  14.182
70912SOL    HW214634   4.206   0.411  14.191
70913SOL     OW14635   5.920  13.408   8.835
70913SOL    HW114636   5.916  13.502   8.853
70913SOL    HW214637   5.928  13.401   8.740
70914SOL     OW14638   5.694   7.023   8.397
70914SOL    HW114639   5.727   7.110   8.378
70914SOL    HW214640   5.670   6.987   8.311
70915SOL     OW14641   6.105  11.331   3.970
70915SOL    HW114642   6.185  11.286   3.997
70915SOL    HW214643   6.087  11.393   4.040
70916SOL     OW14644  10.673   8.999  11.491
70916SOL    HW114645  10.673   8.989  11.396
70916SOL    HW214646  10.640   8.916  11.524
70917SOL     OW14647  12.590  13.451  11.380
70917SOL    HW114648  12.594  13.545  11.363
70917SOL    HW214649  12.620  13.410  11.299
70918SOL     OW14650   8.346  12.924   3.894
70918SOL    HW114651   8.430  12.923   3.848
70918SOL    HW214652   8.303  12.843   3.866
70919SOL     OW14653   5.346   7.120   5.396
70919SOL    HW114654   5.412   7.066   5.352
70919SOL    HW214655   5.364   7.108   5.489
70920SOL     OW14656   3.254   2.929  11.138
70920SOL    HW114657   3.162   2.907  11.157
70920SOL    HW214658   3.249   3.014  11.095
70921SOL     OW14659   7.912   8.504   0.443
70921SOL    HW114660   7.992   8.453   0.456
70921SOL    HW214661   7.871   8.466   0.366
70922SOL     OW14662   7.246   7.716  10.397
70922SOL    HW114663   7.331   7.724  10.440
70922SOL    HW214664   7.247   7.628  10.360
70923SOL     OW14665   8.591  10.245   6.863
70923SOL    HW114666   8.584  10.302   6.940
70923SOL    HW214667   8.567  10.302   6.790
70924SOL     OW14668   3.664  10.006  10.005
70924SOL    HW114669   3.716   9.969  10.076
70924SOL    HW214670   3.722  10.069   9.962
70925SOL     OW14671   2.843   8.640   7.113
70925SOL    HW114672   2.748   8.645   7.121
70925SOL    HW214673   2.860   8.660   7.021
70926SOL     OW14674   9.212   1.239   2.090
70926SOL    HW114675   9.177   1.152   2.068
70926SOL    HW214676   9.253   1.227   2.175
70927SOL     OW14677  12.673  12.271   0.937
70927SOL    HW114678  12.673  12.276   0.841
70927SOL    HW214679  12.705  12.356   0.966
70928SOL     OW14680  11.774   6.347  10.261
70928SOL    HW114681  11.700   6.372  10.316
70928SOL    HW214682  11.786   6.421  10.201
70929SOL     OW14683   5.329   1.159  12.154
70929SOL    HW114684   5.354   1.082  12.205
70929SOL    HW214685   5.248   1.133  12.110
70930SOL     OW14686   9.489  10.303   7.896
70930SOL    HW114687   9.410  10.250   7.896
70930SOL    HW214688   9.505  10.323   7.804
70931SOL     OW14689   9.148  13.941   1.143
70931SOL    HW114690   9.085  13.871   1.159
70931SOL    HW214691   9.215  13.901   1.087
70932SOL     OW14692   3.944   1.220   1.817
70932SOL    HW114693   3.931   1.133   1.855
70932SOL    HW214694   3.897   1.217   1.734
70933SOL     OW14695   1.454   2.265  14.662
70933SOL    HW114696   1.449   2.353  14.624
70933SOL    HW214697   1.385   2.263  14.728
70934SOL     OW14698  14.188   4.525   1.415
70934SOL    HW114699  14.149   4.483   1.339
70934SOL    HW214700  14.163   4.470   1.489
70935SOL     OW14701   1.376  14.421   0.143
70935SOL    HW114702   1.291  14.466   0.144
70935SOL    HW214703   1.385  14.390   0.053
70936SOL     OW14704   7.687   5.911   8.650
70936SOL    HW114705   7.700   6.005   8.634
70936SOL    HW214706   7.600   5.906   8.689
70937SOL     OW14707  12.704   3.017   6.072
70937SOL    HW114708  12.666   2.979   5.993
70937SOL    HW214709  12.793   2.981   6.075
70938SOL     OW14710   1.492   9.172  13.451
70938SOL    HW114711   1.491   9.220  13.368
70938SOL    HW214712   1.429   9.101  13.439
70939SOL     OW14713  11.556  13.236  12.845
70939SOL    HW114714  11.483  13.177  12.865
70939SOL    HW214715  11.536  13.316  12.893
70940SOL     OW14716  10.029  14.523   3.278
70940SOL    HW114717  10.001  14.525   3.369
70940SOL    HW214718   9.949  14.506   3.229
70941SOL     OW14719   9.362   9.362   7.527
70941SOL    HW114720   9.334   9.397   7.442
70941SOL    HW214721   9.457   9.372   7.527
70942SOL     OW14722   1.545   7.056   7.156
70942SOL    HW114723   1.464   7.042   7.108
70942SOL    HW214724   1.535   7.142   7.196
70943SOL     OW14725   5.038   4.402  12.814
70943SOL    HW114726   5.066   4.373  12.900
70943SOL    HW214727   4.967   4.465  12.831
70944SOL     OW14728  11.716  11.876   3.048
70944SOL    HW114729  11.771  11.912   3.118
70944SOL    HW214730  11.776  11.834   2.988
70945SOL     OW14731   3.816  10.280   9.402
70945SOL    HW114732   3.838  10.193   9.435
70945SOL    HW214733   3.894  10.332   9.419
70946SOL     OW14734   1.335   9.410  13.716
70946SOL    HW114735   1.385   9.491  13.722
70946SOL    HW214736   1.309   9.406  13.624
70947SOL     OW14737  14.372   5.759   1.569
70947SOL    HW114738  14.279   5.753   1.545
70947SOL    HW214739  14.374   5.816   1.646
70948SOL     OW14740   2.106   8.135  11.397
70948SOL    HW114741   2.192   8.095  11.407
70948SOL    HW214742   2.046   8.075  11.440
70949SOL     OW14743  12.717   0.552  14.644
70949SOL    HW114744  12.672   0.491  14.585
70949SOL    HW214745  12.677   0.537  14.729
70950SOL     OW14746  10.615   8.063   0.364
70950SOL    HW114747  10.664   8.078   0.283
70950SOL    HW214748  10.588   7.971   0.359
70951SOL     OW14749   9.767  11.991   5.782
70951SOL    HW114750   9.741  11.901   5.799
70951SOL    HW214751   9.733  12.009   5.694
70952SOL     OW14752   8.590  13.104  11.061
70952SOL    HW114753   8.641  13.130  10.985
70952SOL    HW214754   8.527  13.040  11.027
70953SOL     OW14755   7.463   5.981   8.921
70953SOL    HW114756   7.392   5.956   8.980
70953SOL    HW214757   7.471   6.076   8.933
70954SOL     OW14758  11.645  13.197   0.024
70954SOL    HW114759  11.723  13.141   0.025
70954SOL    HW214760  11.590  13.162   0.094
70955SOL     OW14761   6.025  14.544   3.774
70955SOL    HW114762   6.061  14.511   3.857
70955SOL    HW214763   5.970  14.618   3.799
70956SOL     OW14764  10.143   1.713  13.567
70956SOL    HW114765  10.236   1.704  13.550
70956SOL    HW214766  10.101   1.680  13.487
70957SOL     OW14767   1.307   4.981   5.846
70957SOL    HW114768   1.366   4.935   5.786
70957SOL    HW214769   1.297   5.068   5.807
70958SOL     OW14770  13.906   7.920   9.280
70958SOL    HW114771  13.986   7.972   9.289
70958SOL    HW214772  13.910   7.857   9.351
70959SOL     OW14773   8.651  13.942   0.612
70959SOL    HW114774   8.687  14.016   0.564
70959SOL    HW214775   8.586  13.981   0.670
70960SOL     OW14776  12.576   4.082  12.154
70960SOL    HW114777  12.587   4.142  12.080
70960SOL    HW214778  12.665   4.061  12.182
70961SOL     OW14779  14.241   5.253  12.859
70961SOL    HW114780  14.334   5.250  12.885
70961SOL    HW214781  14.209   5.336  12.895
70962SOL     OW14782   7.701   8.090  12.904
70962SOL    HW114783   7.715   7.998  12.925
70962SOL    HW214784   7.606   8.101  12.907
70963SOL     OW14785  13.658   0.587   1.944
70963SOL    HW114786  13.727   0.522   1.962
70963SOL    HW214787  13.585   0.535   1.911
70964SOL     OW14788  12.851  11.424   2.350
70964SOL    HW114789  12.902  11.392   2.276
70964SOL    HW214790  12.796  11.350   2.375
70965SOL     OW14791   6.721  12.093   9.337
70965SOL    HW114792   6.680  12.007   9.324
70965SOL    HW214793   6.776  12.105   9.259
70966SOL     OW14794   9.093   2.647   1.283
70966SOL    HW114795   9.109   2.672   1.192
70966SOL    HW214796   9.129   2.559   1.290
70967SOL     OW14797   8.422  13.058  13.262
70967SOL    HW114798   8.437  13.128  13.325
70967SOL    HW214799   8.326  13.053  13.254
70968SOL     OW14800  13.395   0.072  13.013
70968SOL    HW114801  13.452   0.067  12.936
70968SOL    HW214802  13.420  14.866  13.067
70969SOL     OW14803   1.385   7.555  10.723
70969SOL    HW114804   1.429   7.521  10.801
70969SOL    HW214805   1.338   7.633  10.755
70970SOL     OW14806   5.602   8.182   3.892
70970SOL    HW114807   5.572   8.144   3.809
70970SOL    HW214808   5.651   8.261   3.866
70971SOL     OW14809  10.201   8.239   5.929
70971SOL    HW114810  10.234   8.236   5.839
70971SOL    HW214811  10.143   8.164   5.937
70972SOL     OW14812   1.965   5.163  13.982
70972SOL    HW114813   1.893   5.211  14.023
70972SOL    HW214814   1.951   5.174  13.888
70973SOL     OW14815  14.718  12.719  11.350
70973SOL    HW114816  14.651  12.761  11.296
70973SOL    HW214817  14.674  12.701  11.433
70974SOL     OW14818  11.343   9.782   8.942
70974SOL    HW114819  11.280   9.713   8.962
70974SOL    HW214820  11.366   9.819   9.027
70975SOL     OW14821  14.671  11.589   0.800
70975SOL    HW114822  14.751  11.641   0.811
70975SOL    HW214823  14.600  11.652   0.809
70976SOL     OW14824   2.275   6.623  12.853
70976SOL    HW114825   2.358   6.606  12.808
70976SOL    HW214826   2.208   6.589  12.794
70977SOL     OW14827   7.292  14.863  12.302
70977SOL    HW114828   7.309   0.086  12.286
70977SOL    HW214829   7.303  14.822  12.216
70978SOL     OW14830  14.204  12.930   0.628
70978SOL    HW114831  14.223  12.993   0.697
70978SOL    HW214832  14.109  12.914   0.636
70979SOL     OW14833   4.987   5.339  13.693
70979SOL    HW114834   4.985   5.419  13.747
70979SOL    HW214835   5.055   5.356  13.628
70980SOL     OW14836   4.561   5.569   2.616
70980SOL    HW114837   4.619   5.642   2.594
70980SOL    HW214838   4.589   5.542   2.703
70981SOL     OW14839  14.311  11.831   7.914
70981SOL    HW114840  14.285  11.739   7.913
70981SOL    HW214841  14.332  11.851   7.823
70982SOL     OW14842   5.645  14.123   5.010
70982SOL    HW114843   5.667  14.102   5.101
70982SOL    HW214844   5.600  14.207   5.015
70983SOL     OW14845   8.903   9.083  10.738
70983SOL    HW114846   8.909   9.010  10.800
70983SOL    HW214847   8.980   9.136  10.756
70984SOL     OW14848   3.212   4.950   5.256
70984SOL    HW114849   3.161   5.030   5.251
70984SOL    HW214850   3.284   4.971   5.316
70985SOL     OW14851   7.593   8.184   6.619
70985SOL    HW114852   7.658   8.255   6.624
70985SOL    HW214853   7.537   8.209   6.546
70986SOL     OW14854   8.801   7.987   8.741
70986SOL    HW114855   8.814   7.956   8.830
70986SOL    HW214856   8.866   7.940   8.689
70987SOL     OW14857   0.556  10.673   3.947
70987SOL    HW114858   0.461  10.664   3.940
70987SOL    HW214859   0.569  10.764   3.974
70988SOL     OW14860   4.688   4.845   0.327
70988SOL    HW114861   4.742   4.924   0.338
70988SOL    HW214862   4.683   4.833   0.232
70989SOL     OW14863   4.188   4.086  14.824
70989SOL    HW114864   4.228   4.111  14.741
70989SOL    HW214865   4.256   4.104   0.020
70990SOL     OW14866   7.759  14.659   9.543
70990SOL    HW114867   7.683  14.617   9.502
70990SOL    HW214868   7.721  14.727   9.599
70991SOL     OW14869   1.890   7.127  10.055
70991SOL    HW114870   1.853   7.039  10.063
70991SOL    HW214871   1.890   7.161  10.145
70992SOL     OW14872  10.913  11.118  13.985
70992SOL    HW114873  10.854  11.126  13.910
70992SOL    HW214874  10.936  11.025  13.988
70993SOL     OW14875   5.953   6.040   7.143
70993SOL    HW114876   5.998   6.108   7.093
70993SOL    HW214877   5.959   5.962   7.089
70994SOL     OW14878   9.239   4.721   4.635
70994SOL    HW114879   9.240   4.723   4.539
70994SOL    HW214880   9.187   4.798   4.659
70995SOL     OW14881   3.183   4.902   2.396
70995SOL    HW114882   3.262   4.851   2.411
70995SOL    HW214883   3.215   4.989   2.373
70996SOL     OW14884  14.439  11.987   0.167
70996SOL    HW114885  14.456  11.935   0.089
70996SOL    HW214886  14.381  12.057   0.137
70997SOL     OW14887   7.548  11.605   5.312
70997SOL    HW114888   7.620  11.667   5.305
70997SOL    HW214889   7.509  11.603   5.225
70998SOL     OW14890   0.091   1.584  12.264
70998SOL    HW114891   0.028   1.553  12.329
70998SOL    HW214892   0.175   1.581  12.308
70999SOL     OW14893   8.911  13.611   2.674
70999SOL    HW114894   8.874  13.699   2.669
70999SOL    HW214895   8.883  13.578   2.759
71000SOL     OW14896  11.467   9.304   4.994
71000SOL    HW114897  11.421   9.242   5.050
71000SOL    HW214898  11.551   9.319   5.038
71001SOL     OW14899  12.507  12.811   7.253
71001SOL    HW114900  12.467  12.840   7.335
71001SOL    HW214901  12.471  12.871   7.187
71002SOL     OW14902   7.998  11.237  12.753
71002SOL    HW114903   7.994  11.272  12.842
71002SOL    HW214904   7.945  11.158  12.756
71003SOL     OW14905   2.200   7.755   4.132
71003SOL    HW114906   2.210   7.665   4.100
71003SOL    HW214907   2.264   7.805   4.082
71004SOL     OW14908   6.997   5.986  14.751
71004SOL    HW114909   7.061   6.017  14.687
71004SOL    HW214910   6.980   6.062  14.807
71005SOL     OW14911  14.307  12.553   1.776
71005SOL    HW114912  14.343  12.599   1.851
71005SOL    HW214913  14.370  12.567   1.706
71006SOL     OW14914   8.668   5.221  13.316
71006SOL    HW114915   8.578   5.224  13.348
71006SOL    HW214916   8.715   5.168  13.381
71007SOL     OW14917   2.569   4.113   7.705
71007SOL    HW114918   2.563   4.074   7.792
71007SOL    HW214919   2.661   4.137   7.696
71008SOL     OW14920   9.733  13.305   8.450
71008SOL    HW114921   9.776  13.248   8.386
71008SOL    HW214922   9.684  13.368   8.397
71009SOL     OW14923   9.174   3.879   5.938
71009SOL    HW114924   9.256   3.866   5.986
71009SOL    HW214925   9.114   3.917   6.002
71010SOL     OW14926   3.303   4.603   1.339
71010SOL    HW114927   3.305   4.512   1.310
71010SOL    HW214928   3.395   4.629   1.346
71011SOL     OW14929  11.582  11.164  12.188
71011SOL    HW114930  11.634  11.244  12.197
71011SOL    HW214931  11.590  11.141  12.095
71012SOL     OW14932  13.537   3.784   0.844
71012SOL    HW114933  13.566   3.860   0.895
71012SOL    HW214934  13.549   3.810   0.753
71013SOL     OW14935  11.025   1.226   7.571
71013SOL    HW114936  11.032   1.154   7.634
71013SOL    HW214937  10.943   1.211   7.525
71014SOL     OW14938   4.683   1.190   8.170
71014SOL    HW114939   4.713   1.187   8.079
71014SOL    HW214940   4.700   1.280   8.198
71015SOL     OW14941   9.416   9.110   8.791
71015SOL    HW114942   9.379   9.025   8.767
71015SOL    HW214943   9.392   9.121   8.883
71016SOL     OW14944  13.198   4.477  12.580
71016SOL    HW114945  13.288   4.444  12.589
71016SOL    HW214946  13.169   4.490  12.670
71017SOL     OW14947   7.947  12.915   3.707
71017SOL    HW114948   7.995  12.969   3.645
71017SOL    HW214949   7.901  12.850   3.653
71018SOL     OW14950   6.815  13.511   6.906
71018SOL    HW114951   6.897  13.512   6.955
71018SOL    HW214952   6.838  13.545   6.819
71019SOL     OW14953  14.431   9.915   9.280
71019SOL    HW114954  14.492   9.857   9.324
71019SOL    HW214955  14.484   9.962   9.216
71020SOL     OW14956  13.859   1.577  13.678
71020SOL    HW114957  13.767   1.601  13.666
71020SOL    HW214958  13.908   1.657  13.663
71021SOL     OW14959  11.761   4.705  11.300
71021SOL    HW114960  11.725   4.625  11.338
71021SOL    HW214961  11.684   4.756  11.274
71022SOL     OW14962   5.179   5.511   9.576
71022SOL    HW114963   5.140   5.424   9.571
71022SOL    HW214964   5.260   5.498   9.625
71023SOL     OW14965  11.049   6.031  13.696
71023SOL    HW114966  11.088   6.050  13.611
71023SOL    HW214967  10.955   6.027  13.679
71024SOL     OW14968  13.690  10.182  10.186
71024SOL    HW114969  13.736  10.123  10.246
71024SOL    HW214970  13.745  10.184  10.108
71025SOL     OW14971   8.113   5.317  11.482
71025SOL    HW114972   8.032   5.368  11.476
71025SOL    HW214973   8.182   5.379  11.459
71026SOL     OW14974   0.846   1.564  10.918
71026SOL    HW114975   0.784   1.612  10.863
71026SOL    HW214976   0.805   1.561  11.004
71027SOL     OW14977  11.361   9.542   2.302
71027SOL    HW114978  11.370   9.448   2.284
71027SOL    HW214979  11.275   9.551   2.343
71028SOL     OW14980   6.333   6.112  14.679
71028SOL    HW114981   6.424   6.092  14.657
71028SOL    HW214982   6.329   6.207  14.681
71029SOL     OW14983   4.033   8.878   0.499
71029SOL    HW114984   4.038   8.823   0.577
71029SOL    HW214985   3.950   8.925   0.508
71030SOL     OW14986  13.245   7.108   1.543
71030SOL    HW114987  13.226   7.193   1.503
71030SOL    HW214988  13.181   7.100   1.614
71031SOL     OW14989   1.554   7.252   3.801
71031SOL    HW114990   1.520   7.163   3.815
71031SOL    HW214991   1.539   7.296   3.885
71032SOL     OW14992   1.037   0.235  14.449
71032SOL    HW114993   1.046   0.329  14.434
71032SOL    HW214994   1.025   0.226  14.543
71033SOL     OW14995  14.191   8.617   4.174
71033SOL    HW114996  14.167   8.689   4.231
71033SOL    HW214997  14.108   8.579   4.146
71034SOL     OW14998  13.253  12.369   1.091
71034SOL    HW114999  13.279  12.460   1.075
71034SOL    HW215000  13.258  12.359   1.186
71035SOL     OW15001   3.044  14.331   1.848
71035SOL    HW115002   3.102  14.317   1.773
71035SOL    HW215003   3.033  14.426   1.852
71036SOL     OW15004   4.178   0.176  12.506
71036SOL    HW115005   4.268   0.202  12.527
71036SOL    HW215006   4.125   0.216  12.575
71037SOL     OW15007   8.683  13.276  13.421
71037SOL    HW115008   8.729  13.242  13.498
71037SOL    HW215009   8.595  13.297  13.453
71038SOL     OW15010  12.619   3.180   5.691
71038SOL    HW115011  12.540   3.232   5.705
71038SOL    HW215012  12.598   3.094   5.729
71039SOL     OW15013  13.207  13.940   8.514
71039SOL    HW115014  13.157  13.922   8.594
71039SOL    HW215015  13.194  14.034   8.498
71040SOL     OW15016   0.242  11.133   2.681
71040SOL    HW115017   0.296  11.186   2.623
71040SOL    HW215018   0.244  11.045   2.642
71041SOL     OW15019   7.846   0.161   1.195
71041SOL    HW115020   7.883   0.192   1.277
71041SOL    HW215021   7.753   0.181   1.201
71042SOL     OW15022  11.134   5.131   9.793
71042SOL    HW115023  11.122   5.158   9.702
71042SOL    HW215024  11.081   5.192   9.844
71043SOL     OW15025   3.396   4.231   8.068
71043SOL    HW115026   3.480   4.202   8.104
71043SOL    HW215027   3.330   4.185   8.119
71044SOL     OW15028   1.622   3.720   0.906
71044SOL    HW115029   1.550   3.681   0.955
71044SOL    HW215030   1.700   3.675   0.938
71045SOL     OW15031   6.731   8.100  12.247
71045SOL    HW115032   6.712   8.190  12.223
71045SOL    HW215033   6.655   8.072  12.298
71046SOL     OW15034   8.116   3.413   2.028
71046SOL    HW115035   8.059   3.373   1.963
71046SOL    HW215036   8.177   3.343   2.054
71047SOL     OW15037   6.738   9.416  12.716
71047SOL    HW115038   6.680   9.489  12.735
71047SOL    HW215039   6.718   9.351  12.784
71048SOL     OW15040  12.461   7.601  10.493
71048SOL    HW115041  12.431   7.549  10.568
71048SOL    HW215042  12.556   7.587  10.490
71049SOL     OW15043   4.591  10.354  12.009
71049SOL    HW115044   4.620  10.433  11.965
71049SOL    HW215045   4.502  10.375  12.039
71050SOL     OW15046  11.208  12.169  11.065
71050SOL    HW115047  11.173  12.150  10.977
71050SOL    HW215048  11.177  12.258  11.083
71051SOL     OW15049  10.191   5.087  10.108
71051SOL    HW115050  10.187   5.086  10.203
71051SOL    HW215051  10.273   5.043  10.087
71052SOL     OW15052   9.374  13.421   1.746
71052SOL    HW115053   9.321  13.475   1.688
71052SOL    HW215054   9.371  13.466   1.830
71053SOL     OW15055   9.612   8.596   5.393
71053SOL    HW115056   9.690   8.651   5.381
71053SOL    HW215057   9.568   8.597   5.308
71054SOL     OW15058   6.569   6.155   5.362
71054SOL    HW115059   6.588   6.062   5.352
71054SOL    HW215060   6.506   6.174   5.293
71055SOL     OW15061   6.649  12.664  14.250
71055SOL    HW115062   6.589  12.664  14.325
71055SOL    HW215063   6.639  12.750  14.211
71056SOL     OW15064  12.568   3.147   1.436
71056SOL    HW115065  12.488   3.196   1.416
71056SOL    HW215066  12.561   3.127   1.529
71057SOL     OW15067   6.839   9.412   8.699
71057SOL    HW115068   6.895   9.335   8.707
71057SOL    HW215069   6.787   9.412   8.779
71058SOL     OW15070   3.791   5.672   3.516
71058SOL    HW115071   3.853   5.645   3.448
71058SOL    HW215072   3.824   5.630   3.596
71059SOL     OW15073   6.932   3.458  10.837
71059SOL    HW115074   6.904   3.550  10.839
71059SOL    HW215075   6.922   3.432  10.746
71060SOL     OW15076   8.116  13.665  13.416
71060SOL    HW115077   8.155  13.744  13.454
71060SOL    HW215078   8.047  13.641  13.477
71061SOL     OW15079   0.501   1.497   9.589
71061SOL    HW115080   0.507   1.424   9.650
71061SOL    HW215081   0.415   1.537   9.607
71062SOL     OW15082  11.387   3.249   8.013
71062SOL    HW115083  11.474   3.209   8.015
71062SOL    HW215084  11.339   3.201   7.946
71063SOL     OW15085   1.040   4.278  12.207
71063SOL    HW115086   1.065   4.359  12.161
71063SOL    HW215087   1.047   4.300  12.300
71064SOL     OW15088   5.808   1.516   4.763
71064SOL    HW115089   5.749   1.461   4.815
71064SOL    HW215090   5.854   1.570   4.826
71065SOL     OW15091   6.689   5.616   7.183
71065SOL    HW115092   6.675   5.704   7.149
71065SOL    HW215093   6.668   5.558   7.110
71066SOL     OW15094   8.836   9.405  12.800
71066SOL    HW115095   8.853   9.498  12.813
71066SOL    HW215096   8.745   9.400  12.771
71067SOL     OW15097   3.884   9.586   4.187
71067SOL    HW115098   3.924   9.606   4.102
71067SOL    HW215099   3.824   9.514   4.169
71068SOL     OW15100   1.111   7.018   8.057
71068SOL    HW115101   1.018   7.028   8.040
71068SOL    HW215102   1.121   6.927   8.085
71069SOL     OW15103   4.822  14.396  13.759
71069SOL    HW115104   4.773  14.477  13.776
71069SOL    HW215105   4.756  14.328  13.765
71070SOL     OW15106   3.056   8.584  13.748
71070SOL    HW115107   3.078   8.673  13.722
71070SOL    HW215108   3.021   8.543  13.669
71071SOL     OW15109   7.932   8.030  12.078
71071SOL    HW115110   7.948   7.940  12.050
71071SOL    HW215111   7.942   8.027  12.173
71072SOL     OW15112   5.201  12.381  11.850
71072SOL    HW115113   5.174  12.292  11.828
71072SOL    HW215114   5.166  12.395  11.938
71073SOL     OW15115   4.571  13.794   6.885
71073SOL    HW115116   4.645  13.780   6.944
71073SOL    HW215117   4.510  13.724   6.906
71074SOL     OW15118  12.334   8.985   8.710
71074SOL    HW115119  12.338   8.920   8.780
71074SOL    HW215120  12.247   9.025   8.719
71075SOL     OW15121   3.369   5.048  13.582
71075SOL    HW115122   3.276   5.038  13.562
71075SOL    HW215123   3.385   5.143  13.576
71076SOL     OW15124  12.408  13.332  10.458
71076SOL    HW115125  12.384  13.279  10.533
71076SOL    HW215126  12.325  13.361  10.421
71077SOL     OW15127   9.372  13.136   0.048
71077SOL    HW115128   9.431  13.127  14.843
71077SOL    HW215129   9.320  13.056   0.047
71078SOL     OW15130  11.359   3.825   2.026
71078SOL    HW115131  11.266   3.823   2.005
71078SOL    HW215132  11.403   3.837   1.942
71079SOL     OW15133  11.998  12.924   4.189
71079SOL    HW115134  12.019  12.859   4.256
71079SOL    HW215135  11.942  12.878   4.127
71080SOL     OW15136   2.643  10.678   5.672
71080SOL    HW115137   2.648  10.773   5.685
71080SOL    HW215138   2.572  10.650   5.730
71081SOL     OW15139   0.755  11.219   6.097
71081SOL    HW115140   0.676  11.174   6.128
71081SOL    HW215141   0.744  11.225   6.002
71082SOL     OW15142   8.416   8.801  10.961
71082SOL    HW115143   8.426   8.882  11.012
71082SOL    HW215144   8.323   8.800  10.936
71083SOL     OW15145  11.947   1.262   8.130
71083SOL    HW115146  11.945   1.250   8.225
71083SOL    HW215147  11.859   1.239   8.101
71084SOL     OW15148   9.885   7.915   4.733
71084SOL    HW115149   9.941   7.910   4.810
71084SOL    HW215150   9.941   7.887   4.660
71085SOL     OW15151  10.268  10.619   5.699
71085SOL    HW115152  10.180  10.648   5.722
71085SOL    HW215153  10.253  10.545   5.640
71086SOL     OW15154   6.212   0.989   2.329
71086SOL    HW115155   6.286   1.006   2.387
71086SOL    HW215156   6.231   1.041   2.250
71087SOL     OW15157  14.013   3.283   5.843
71087SOL    HW115158  13.973   3.350   5.898
71087SOL    HW215159  13.981   3.303   5.755
71088SOL     OW15160   1.991  13.475   7.283
71088SOL    HW115161   1.920  13.531   7.314
71088SOL    HW215162   1.947  13.401   7.241
71089SOL     OW15163   1.684   5.845   5.196
71089SOL    HW115164   1.753   5.779   5.202
71089SOL    HW215165   1.610   5.799   5.156
71090SOL     OW15166   6.946   3.453  10.555
71090SOL    HW115167   7.041   3.464  10.557
71090SOL    HW215168   6.931   3.389  10.485
71091SOL     OW15169  14.352   1.747  10.984
71091SOL    HW115170  14.409   1.823  10.998
71091SOL    HW215171  14.357   1.697  11.066
71092SOL     OW15172   5.297   1.432   7.659
71092SOL    HW115173   5.324   1.396   7.575
71092SOL    HW215174   5.265   1.520   7.638
71093SOL     OW15175  13.039  14.334   8.771
71093SOL    HW115176  13.098  14.390   8.822
71093SOL    HW215177  13.096  14.290   8.707
71094SOL     OW15178  13.161   4.403   5.621
71094SOL    HW115179  13.235   4.463   5.609
71094SOL    HW215180  13.113   4.407   5.538
71095SOL     OW15181   6.384  13.165  11.217
71095SOL    HW115182   6.332  13.100  11.168
71095SOL    HW215183   6.322  13.235  11.235
71096SOL     OW15184   6.750  14.484   9.504
71096SOL    HW115185   6.737  14.390   9.516
71096SOL    HW215186   6.841  14.493   9.478
71097SOL     OW15187   6.476   6.230   0.123
71097SOL    HW115188   6.391   6.254   0.085
71097SOL    HW215189   6.455   6.166   0.191
71098SOL     OW15190  10.829   4.824   9.623
71098SOL    HW115191  10.820   4.853   9.714
71098SOL    HW215192  10.787   4.893   9.572
71099SOL     OW15193   7.374  12.443   0.440
71099SOL    HW115194   7.286  12.456   0.403
71099SOL    HW215195   7.384  12.515   0.503
71100SOL     OW15196   7.685  11.758  11.669
71100SOL    HW115197   7.694  11.745  11.763
71100SOL    HW215198   7.726  11.681  11.630
71101SOL     OW15199   9.046   9.766  14.728
71101SOL    HW115200   9.069   9.857  14.708
71101SOL    HW215201   9.124   9.715  14.705
71102SOL     OW15202  12.190   4.759   2.655
71102SOL    HW115203  12.125   4.815   2.697
71102SOL    HW215204  12.168   4.763   2.562
71103SOL     OW15205   7.089   6.176   3.637
71103SOL    HW115206   7.006   6.205   3.676
71103SOL    HW215207   7.147   6.160   3.711
71104SOL     OW15208   6.151   0.522   3.840
71104SOL    HW115209   6.092   0.550   3.770
71104SOL    HW215210   6.103   0.539   3.921
71105SOL     OW15211   5.188  14.763   5.816
71105SOL    HW115212   5.123  14.708   5.771
71105SOL    HW215213   5.165  14.852   5.792
71106SOL     OW15214   6.098   8.203   0.422
71106SOL    HW115215   6.145   8.180   0.502
71106SOL    HW215216   6.090   8.120   0.375
71107SOL     OW15217  14.856   6.671  12.719
71107SOL    HW115218  14.793   6.709  12.780
71107SOL    HW215219   0.019   6.593  12.764
71108SOL     OW15220  13.340   8.892   0.899
71108SOL    HW115221  13.348   8.986   0.878
71108SOL    HW215222  13.342   8.849   0.813
71109SOL     OW15223   3.269   0.332  14.642
71109SOL    HW115224   3.237   0.246  14.668
71109SOL    HW215225   3.357   0.316  14.608
71110SOL     OW15226   0.930   0.933  13.929
71110SOL    HW115227   0.868   0.994  13.890
71110SOL    HW215228   0.968   0.886  13.855
71111SOL     OW15229  13.263   2.267  12.254
71111SOL    HW115230  13.280   2.358  12.228
71111SOL    HW215231  13.286   2.216  12.177
71112SOL     OW15232   6.147   5.717   9.006
71112SOL    HW115233   6.223   5.675   8.966
71112SOL    HW215234   6.073   5.660   8.984
71113SOL     OW15235   6.340   6.363   3.138
71113SOL    HW115236   6.420   6.348   3.088
71113SOL    HW215237   6.291   6.428   3.088
71114SOL     OW15238   0.189   6.327   6.140
71114SOL    HW115239   0.099   6.321   6.174
71114SOL    HW215240   0.230   6.396   6.192
71115SOL     OW15241   5.163   5.692   1.925
71115SOL    HW115242   5.149   5.776   1.881
71115SOL    HW215243   5.077   5.669   1.962
71116SOL     OW15244  14.347   7.472  10.259
71116SOL    HW115245  14.292   7.509  10.328
71116SOL    HW215246  14.287   7.457  10.185
71117SOL     OW15247   1.456   2.763  10.732
71117SOL    HW115248   1.391   2.824  10.767
71117SOL    HW215249   1.501   2.730  10.810
71118SOL     OW15250   4.015   8.382   2.591
71118SOL    HW115251   4.089   8.326   2.615
71118SOL    HW215252   4.046   8.471   2.609
71119SOL     OW15253  12.005   5.538   1.307
71119SOL    HW115254  12.071   5.606   1.293
71119SOL    HW215255  11.972   5.519   1.219
71120SOL     OW15256   0.601   7.829  13.747
71120SOL    HW115257   0.539   7.803  13.680
71120SOL    HW215258   0.636   7.746  13.780
71121SOL     OW15259   2.849   4.071  11.511
71121SOL    HW115260   2.829   4.005  11.577
71121SOL    HW215261   2.774   4.131  11.514
71122SOL     OW15262   2.262   7.828   8.913
71122SOL    HW115263   2.272   7.855   9.004
71122SOL    HW215264   2.332   7.764   8.899
71123SOL     OW15265  12.165  12.444   8.108
71123SOL    HW115266  12.234  12.380   8.124
71123SOL    HW215267  12.085  12.401   8.139
71124SOL     OW15268   9.612  10.867   7.948
71124SOL    HW115269   9.652  10.784   7.972
71124SOL    HW215270   9.518  10.852   7.957
71125SOL     OW15271  13.680  14.725   6.327
71125SOL    HW115272  13.632  14.742   6.247
71125SOL    HW215273  13.637  14.649   6.367
71126SOL     OW15274   7.873  14.253   6.764
71126SOL    HW115275   7.889  14.160   6.747
71126SOL    HW215276   7.799  14.253   6.825
71127SOL     OW15277   4.531   8.741   0.230
71127SOL    HW115278   4.501   8.832   0.236
71127SOL    HW215279   4.482   8.704   0.157
71128SOL     OW15280   7.919   2.883   2.553
71128SOL    HW115281   7.874   2.888   2.638
71128SOL    HW215282   7.870   2.817   2.504
71129SOL     OW15283   8.884   7.776   3.213
71129SOL    HW115284   8.831   7.828   3.153
71129SOL    HW215285   8.970   7.818   3.212
71130SOL     OW15286   0.210   9.389  11.169
71130SOL    HW115287   0.225   9.322  11.102
71130SOL    HW215288   0.159   9.457  11.125
71131SOL     OW15289   5.133   7.679   4.325
71131SOL    HW115290   5.176   7.609   4.374
71131SOL    HW215291   5.042   7.648   4.316
71132SOL     OW15292   1.312   1.705   6.324
71132SOL    HW115293   1.399   1.736   6.299
71132SOL    HW215294   1.327   1.651   6.402
71133SOL     OW15295  11.377   9.813  11.551
71133SOL    HW115296  11.450   9.874  11.542
71133SOL    HW215297  11.333   9.815  11.466
71134SOL     OW15298   4.327  12.434   9.122
71134SOL    HW115299   4.411  12.445   9.076
71134SOL    HW215300   4.342  12.361   9.182
71135SOL     OW15301  10.579   1.396   2.174
71135SOL    HW115302  10.589   1.391   2.079
71135SOL    HW215303  10.643   1.333   2.208
71136SOL     OW15304   9.708  12.462   3.893
71136SOL    HW115305   9.702  12.368   3.877
71136SOL    HW215306   9.799  12.476   3.917
71137SOL     OW15307  10.774   4.251   1.764
71137SOL    HW115308  10.835   4.188   1.724
71137SOL    HW215309  10.726   4.288   1.689
71138SOL     OW15310  11.604  12.116   7.599
71138SOL    HW115311  11.693  12.150   7.597
71138SOL    HW215312  11.582  12.114   7.693
71139SOL     OW15313   5.166   5.838   7.618
71139SOL    HW115314   5.078   5.822   7.654
71139SOL    HW215315   5.188   5.927   7.646
71140SOL     OW15316  10.991  13.300   4.592
71140SOL    HW115317  10.897  13.310   4.577
71140SOL    HW215318  11.021  13.243   4.521
71141SOL     OW15319   1.113   7.445   0.330
71141SOL    HW115320   1.149   7.459   0.418
71141SOL    HW215321   1.189   7.440   0.273
71142SOL     OW15322  13.172   8.382   8.020
71142SOL    HW115323  13.218   8.438   7.957
71142SOL    HW215324  13.242   8.345   8.073
71143SOL     OW15325   1.680  12.991   1.589
71143SOL    HW115326   1.762  12.943   1.597
71143SOL    HW215327   1.701  13.079   1.621
71144SOL     OW15328   5.861   8.755   7.568
71144SOL    HW115329   5.860   8.745   7.473
71144SOL    HW215330   5.794   8.694   7.600
71145SOL     OW15331   0.304  14.846  12.031
71145SOL    HW115332   0.308  14.751  12.025
71145SOL    HW215333   0.224  14.864  12.080
71146SOL     OW15334   1.675  11.575   2.430
71146SOL    HW115335   1.664  11.563   2.524
71146SOL    HW215336   1.663  11.669   2.416
71147SOL     OW15337  13.599  12.970   4.366
71147SOL    HW115338  13.590  13.040   4.301
71147SOL    HW215339  13.578  13.012   4.449
71148SOL     OW15340   8.732   2.135  11.665
71148SOL    HW115341   8.654   2.160  11.615
71148SOL    HW215342   8.763   2.055  11.623
71149SOL     OW15343   1.512   2.674   8.564
71149SOL    HW115344   1.568   2.673   8.485
71149SOL    HW215345   1.474   2.762   8.565
71150SOL     OW15346   3.582   6.193   9.973
71150SOL    HW115347   3.652   6.204  10.037
71150SOL    HW215348   3.564   6.099   9.973
71151SOL     OW15349   9.257   1.966   5.526
71151SOL    HW115350   9.320   1.896   5.506
71151SOL    HW215351   9.227   1.946   5.615
71152SOL     OW15352   6.255   9.205  13.208
71152SOL    HW115353   6.185   9.159  13.252
71152SOL    HW215354   6.334   9.184  13.258
71153SOL     OW15355  11.867   7.273   8.480
71153SOL    HW115356  11.779   7.261   8.443
71153SOL    HW215357  11.896   7.184   8.500
71154SOL     OW15358   3.136   8.438   0.957
71154SOL    HW115359   3.063   8.390   0.998
71154SOL    HW215360   3.111   8.446   0.865
71155SOL     OW15361   3.323  14.260  10.430
71155SOL    HW115362   3.418  14.270  10.421
71155SOL    HW215363   3.288  14.345  10.404
71156SOL     OW15364   6.064  11.093   4.802
71156SOL    HW115365   6.107  11.030   4.861
71156SOL    HW215366   6.048  11.170   4.857
71157SOL     OW15367   8.980  10.209   7.960
71157SOL    HW115368   9.076  10.210   7.962
71157SOL    HW215369   8.958  10.137   7.902
71158SOL     OW15370   5.131   3.490   5.410
71158SOL    HW115371   5.130   3.421   5.475
71158SOL    HW215372   5.217   3.532   5.420
71159SOL     OW15373  14.665   0.940  12.432
71159SOL    HW115374  14.600   0.985  12.486
71159SOL    HW215375  14.614   0.905  12.358
71160SOL     OW15376   0.388   3.369  10.209
71160SOL    HW115377   0.307   3.418  10.220
71160SOL    HW215378   0.367   3.280  10.236
71161SOL     OW15379   9.100   3.115   2.501
71161SOL    HW115380   9.101   3.111   2.405
71161SOL    HW215381   9.188   3.144   2.524
71162SOL     OW15382   9.147   3.308  10.533
71162SOL    HW115383   9.108   3.271  10.612
71162SOL    HW215384   9.185   3.391  10.561
71163SOL     OW15385   7.659   8.808   4.317
71163SOL    HW115386   7.714   8.857   4.378
71163SOL    HW215387   7.608   8.875   4.271
71164SOL     OW15388   4.043   8.313  11.838
71164SOL    HW115389   4.062   8.374  11.910
71164SOL    HW215390   4.056   8.226  11.876
71165SOL     OW15391   8.466  14.072  13.080
71165SOL    HW115392   8.490  14.060  12.988
71165SOL    HW215393   8.379  14.031  13.087
71166SOL     OW15394  10.577   3.757   3.760
71166SOL    HW115395  10.662   3.799   3.748
71166SOL    HW215396  10.569   3.745   3.855
71167SOL     OW15397  13.799   9.339   0.422
71167SOL    HW115398  13.879   9.348   0.371
71167SOL    HW215399  13.787   9.424   0.464
71168SOL     OW15400   0.953   1.863   4.402
71168SOL    HW115401   0.986   1.929   4.463
71168SOL    HW215402   0.936   1.786   4.456
71169SOL     OW15403   7.569   0.109   9.229
71169SOL    HW115404   7.542   0.101   9.321
71169SOL    HW215405   7.512   0.176   9.193
71170SOL     OW15406   7.407   3.434   1.697
71170SOL    HW115407   7.440   3.469   1.779
71170SOL    HW215408   7.311   3.434   1.707
71171SOL     OW15409   5.333  12.228  10.555
71171SOL    HW115410   5.298  12.177  10.628
71171SOL    HW215411   5.426  12.205  10.553
71172SOL     OW15412   4.809  12.461   4.826
71172SOL    HW115413   4.785  12.389   4.884
71172SOL    HW215414   4.831  12.533   4.885
71173SOL     OW15415   3.052   7.233   5.377
71173SOL    HW115416   3.035   7.323   5.349
71173SOL    HW215417   3.146   7.222   5.368
71174SOL     OW15418  10.039   7.236   8.789
71174SOL    HW115419  10.127   7.243   8.751
71174SOL    HW215420  10.016   7.326   8.813
71175SOL     OW15421  13.027  10.065   0.086
71175SOL    HW115422  13.078  10.064   0.005
71175SOL    HW215423  12.987   9.978   0.090
71176SOL     OW15424  14.332  12.351  14.290
71176SOL    HW115425  14.261  12.375  14.348
71176SOL    HW215426  14.411  12.385  14.332
71177SOL     OW15427  12.901   3.519   0.491
71177SOL    HW115428  12.856   3.458   0.432
71177SOL    HW215429  12.873   3.491   0.578
71178SOL     OW15430   6.149   6.169   2.432
71178SOL    HW115431   6.143   6.082   2.470
71178SOL    HW215432   6.079   6.219   2.474
71179SOL     OW15433   5.756   1.309   7.805
71179SOL    HW115434   5.702   1.356   7.869
71179SOL    HW215435   5.832   1.365   7.794
71180SOL     OW15436   8.105   0.870  10.694
71180SOL    HW115437   8.012   0.875  10.718
71180SOL    HW215438   8.150   0.849  10.775
71181SOL     OW15439   5.096   6.050  13.733
71181SOL    HW115440   5.042   6.018  13.806
71181SOL    HW215441   5.129   6.135  13.763
71182SOL     OW15442   1.819  13.822  11.301
71182SOL    HW115443   1.856  13.889  11.358
71182SOL    HW215444   1.776  13.760  11.360
71183SOL     OW15445   0.730  12.424   7.408
71183SOL    HW115446   0.741  12.332   7.431
71183SOL    HW215447   0.649  12.451   7.452
71184SOL     OW15448   1.357   3.440   4.243
71184SOL    HW115449   1.269   3.403   4.244
71184SOL    HW215450   1.415   3.363   4.237
71185SOL     OW15451  12.332   9.256   8.336
71185SOL    HW115452  12.331   9.300   8.421
71185SOL    HW215453  12.409   9.199   8.339
71186SOL     OW15454   5.959  10.871   0.785
71186SOL    HW115455   5.908  10.823   0.720
71186SOL    HW215456   6.002  10.940   0.735
71187SOL     OW15457  14.718  11.909   9.922
71187SOL    HW115458  14.802  11.950   9.941
71187SOL    HW215459  14.682  11.960   9.850
71188SOL     OW15460   9.518   9.962   9.681
71188SOL    HW115461   9.596   9.952   9.627
71188SOL    HW215462   9.506   9.876   9.722
71189SOL     OW15463   3.029  12.200   4.768
71189SOL    HW115464   3.086  12.275   4.789
71189SOL    HW215465   2.940  12.233   4.782
71190SOL     OW15466  14.174   0.006  12.985
71190SOL    HW115467  14.176   0.092  12.943
71190SOL    HW215468  14.193  14.813  12.914
71191SOL     OW15469   0.051   3.063  10.705
71191SOL    HW115470   0.067   2.971  10.682
71191SOL    HW215471   0.121   3.111  10.660
71192SOL     OW15472  14.510  14.355   8.646
71192SOL    HW115473  14.453  14.428   8.670
71192SOL    HW215474  14.596  14.394   8.631
71193SOL     OW15475  11.403   8.575  14.530
71193SOL    HW115476  11.499   8.581  14.532
71193SOL    HW215477  11.374   8.665  14.516
71194SOL     OW15478   0.619   9.432   5.936
71194SOL    HW115479   0.565   9.385   6.000
71194SOL    HW215480   0.684   9.367   5.909
71195SOL     OW15481   0.992  11.304   2.236
71195SOL    HW115482   0.905  11.272   2.260
71195SOL    HW215483   1.039  11.308   2.319
71196SOL     OW15484   8.609   4.942   0.037
71196SOL    HW115485   8.519   4.956   0.067
71196SOL    HW215486   8.663   4.956   0.114
71197SOL     OW15487   0.467   9.853  14.342
71197SOL    HW115488   0.561   9.839  14.352
71197SOL    HW215489   0.460   9.939  14.301
71198SOL     OW15490   4.742   8.497   7.659
71198SOL    HW115491   4.730   8.550   7.580
71198SOL    HW215492   4.806   8.546   7.711
71199SOL     OW15493  12.826   4.757   7.049
71199SOL    HW115494  12.896   4.747   7.114
71199SOL    HW215495  12.749   4.779   7.101
71200SOL     OW15496   4.343   3.303   9.773
71200SOL    HW115497   4.274   3.263   9.720
71200SOL    HW215498   4.350   3.247   9.850
71201SOL     OW15499  13.761  12.015  12.212
71201SOL    HW115500  13.855  12.021  12.197
71201SOL    HW215501  13.736  11.929  12.177
71202SOL     OW15502   3.804   0.239   7.226
71202SOL    HW115503   3.738   0.170   7.230
71202SOL    HW215504   3.847   0.227   7.142
71203SOL     OW15505   8.520  12.218  13.773
71203SOL    HW115506   8.556  12.299  13.735
71203SOL    HW215507   8.488  12.244  13.859
71204SOL     OW15508   1.238  14.040  12.533
71204SOL    HW115509   1.273  13.951  12.533
71204SOL    HW215510   1.241  14.067  12.442
71205SOL     OW15511   3.807  12.327  10.682
71205SOL    HW115512   3.783  12.247  10.635
71205SOL    HW215513   3.741  12.391  10.657
71206SOL     OW15514   7.776  11.387   7.128
71206SOL    HW115515   7.701  11.415   7.179
71206SOL    HW215516   7.741  11.323   7.066
71207SOL     OW15517  12.795   3.561  11.099
71207SOL    HW115518  12.787   3.638  11.155
71207SOL    HW215519  12.812   3.489  11.160
71208SOL     OW15520   5.114   1.851   5.617
71208SOL    HW115521   5.151   1.939   5.614
71208SOL    HW215522   5.027   1.863   5.656
71209SOL     OW15523   4.771   5.996   9.826
71209SOL    HW115524   4.682   5.959   9.822
71209SOL    HW215525   4.811   5.954   9.902
71210SOL     OW15526   5.845   0.318  11.624
71210SOL    HW115527   5.827   0.226  11.604
71210SOL    HW215528   5.823   0.365  11.544
71211SOL     OW15529   4.560   9.336   7.259
71211SOL    HW115530   4.510   9.415   7.276
71211SOL    HW215531   4.589   9.307   7.346
71212SOL     OW15532   3.650   7.596   6.941
71212SOL    HW115533   3.603   7.615   7.022
71212SOL    HW215534   3.632   7.671   6.884
71213SOL     OW15535  14.064   9.379   6.618
71213SOL    HW115536  14.005   9.303   6.620
71213SOL    HW215537  14.040   9.426   6.538
71214SOL     OW15538  13.728  12.755   6.709
71214SOL    HW115539  13.743  12.847   6.686
71214SOL    HW215540  13.753  12.748   6.801
71215SOL     OW15541   0.253   8.111   4.721
71215SOL    HW115542   0.313   8.060   4.775
71215SOL    HW215543   0.305   8.185   4.691
71216SOL     OW15544  13.573  10.571  11.473
71216SOL    HW115545  13.541  10.632  11.539
71216SOL    HW215546  13.638  10.518  11.518
71217SOL     OW15547   7.431   5.188   0.970
71217SOL    HW115548   7.419   5.185   0.875
71217SOL    HW215549   7.345   5.169   1.006
71218SOL     OW15550   9.289  14.464   5.095
71218SOL    HW115551   9.311  14.537   5.037
71218SOL    HW215552   9.291  14.502   5.183
71219SOL     OW15553  10.824  10.284  14.237
71219SOL    HW115554  10.848  10.199  14.273
71219SOL    HW215555  10.770  10.263  14.161
71220SOL     OW15556   0.661  11.236  11.980
71220SOL    HW115557   0.569  11.261  11.968
71220SOL    HW215558   0.671  11.156  11.929
71221SOL     OW15559  13.263   6.350   7.774
71221SOL    HW115560  13.337   6.372   7.831
71221SOL    HW215561  13.295   6.367   7.685
71222SOL     OW15562   2.114  13.988   9.457
71222SOL    HW115563   2.165  13.963   9.534
71222SOL    HW215564   2.027  14.007   9.492
71223SOL     OW15565  14.789   2.490  11.972
71223SOL    HW115566  14.867   2.476  12.026
71223SOL    HW215567  14.802   2.431  11.897
71224SOL     OW15568  10.147  14.560  13.876
71224SOL    HW115569  10.155  14.628  13.943
71224SOL    HW215570  10.230  14.564  13.828
71225SOL     OW15571  10.927   4.144  14.776
71225SOL    HW115572  10.909   4.154  14.869
71225SOL    HW215573  11.022   4.153  14.768
71226SOL     OW15574  14.529  11.792   4.371
71226SOL    HW115575  14.435  11.813   4.372
71226SOL    HW215576  14.571  11.871   4.339
71227SOL     OW15577   1.307   1.039   3.694
71227SOL    HW115578   1.349   1.124   3.678
71227SOL    HW215579   1.258   1.022   3.614
71228SOL     OW15580   0.963  10.483  11.363
71228SOL    HW115581   0.979  10.398  11.321
71228SOL    HW215582   1.018  10.482  11.441
71229SOL     OW15583   1.517  10.288   2.833
71229SOL    HW115584   1.574  10.339   2.775
71229SOL    HW215585   1.541  10.197   2.816
71230SOL     OW15586  11.821  11.276   5.890
71230SOL    HW115587  11.800  11.269   5.983
71230SOL    HW215588  11.915  11.295   5.888
71231SOL     OW15589  10.316   0.788  12.776
71231SOL    HW115590  10.299   0.868  12.826
71231SOL    HW215591  10.407   0.795  12.749
71232SOL     OW15592  12.634  13.634  14.747
71232SOL    HW115593  12.560  13.577  14.727
71232SOL    HW215594  12.631  13.702  14.680
71233SOL     OW15595  12.596  11.213  10.359
71233SOL    HW115596  12.660  11.276  10.392
71233SOL    HW215597  12.556  11.257  10.283
71234SOL     OW15598   0.680   2.854   4.112
71234SOL    HW115599   0.639   2.938   4.092
71234SOL    HW215600   0.680   2.807   4.029
71235SOL     OW15601   7.404   6.709   3.105
71235SOL    HW115602   7.373   6.785   3.056
71235SOL    HW215603   7.350   6.637   3.073
71236SOL     OW15604   6.084  10.304   7.206
71236SOL    HW115605   6.129  10.224   7.232
71236SOL    HW215606   5.996  10.295   7.245
71237SOL     OW15607   8.445   3.312   3.437
71237SOL    HW115608   8.420   3.226   3.404
71237SOL    HW215609   8.371   3.339   3.491
71238SOL     OW15610   8.393   0.843  13.212
71238SOL    HW115611   8.467   0.858  13.153
71238SOL    HW215612   8.385   0.748  13.217
71239SOL     OW15613  11.046  11.804   2.832
71239SOL    HW115614  11.052  11.826   2.739
71239SOL    HW215615  11.129  11.834   2.869
71240SOL     OW15616   9.003   3.732  13.588
71240SOL    HW115617   9.032   3.651  13.546
71240SOL    HW215618   8.910   3.738  13.568
71241SOL     OW15619   3.428   3.075   3.304
71241SOL    HW115620   3.400   2.987   3.329
71241SOL    HW215621   3.521   3.077   3.327
71242SOL     OW15622   0.811   2.954  12.380
71242SOL    HW115623   0.724   2.994  12.387
71242SOL    HW215624   0.794   2.861  12.368
71243SOL     OW15625  12.113   3.585   7.963
71243SOL    HW115626  12.047   3.654   7.954
71243SOL    HW215627  12.174   3.600   7.891
71244SOL     OW15628   8.894   0.153  12.193
71244SOL    HW115629   8.826   0.140  12.259
71244SOL    HW215630   8.921   0.244  12.205
71245SOL     OW15631   7.174   6.303  10.841
71245SOL    HW115632   7.199   6.392  10.816
71245SOL    HW215633   7.228   6.246  10.786
71246SOL     OW15634   2.314  11.550   5.301
71246SOL    HW115635   2.226  11.513   5.308
71246SOL    HW215636   2.368  11.498   5.361
71247SOL     OW15637   0.367  13.185  11.098
71247SOL    HW115638   0.321  13.235  11.165
71247SOL    HW215639   0.302  13.172  11.029
71248SOL     OW15640  14.097  13.669   4.142
71248SOL    HW115641  14.097  13.758   4.178
71248SOL    HW215642  14.106  13.612   4.218
71249SOL     OW15643   3.775   4.565   0.006
71249SOL    HW115644   3.734   4.545   0.090
71249SOL    HW215645   3.703   4.559  14.812
71250SOL     OW15646  12.153   7.372   4.611
71250SOL    HW115647  12.136   7.287   4.571
71250SOL    HW215648  12.102   7.434   4.559
71251SOL     OW15649   6.242   1.721   4.930
71251SOL    HW115650   6.301   1.762   4.994
71251SOL    HW215651   6.290   1.644   4.899
71252SOL     OW15652   8.815   3.421   5.752
71252SOL    HW115653   8.846   3.431   5.842
71252SOL    HW215654   8.744   3.357   5.759
71253SOL     OW15655   0.872  10.062   9.533
71253SOL    HW115656   0.962  10.079   9.506
71253SOL    HW215657   0.868  10.090   9.625
71254SOL     OW15658   6.552   3.644  10.710
71254SOL    HW115659   6.528   3.605  10.794
71254SOL    HW215660   6.509   3.730  10.710
71255SOL     OW15661   8.290  10.289  12.725
71255SOL    HW115662   8.223  10.294  12.657
71255SOL    HW215663   8.365  10.249  12.683
71256SOL     OW15664   7.531  14.143   8.151
71256SOL    HW115665   7.515  14.060   8.196
71256SOL    HW215666   7.507  14.210   8.215
71257SOL     OW15667   3.041  12.165   3.540
71257SOL    HW115668   3.008  12.210   3.462
71257SOL    HW215669   3.066  12.236   3.599
71258SOL     OW15670   9.843   4.988  13.461
71258SOL    HW115671   9.890   4.966  13.542
71258SOL    HW215672   9.844   4.907  13.410
71259SOL     OW15673   5.264  14.174  13.376
71259SOL    HW115674   5.357  14.196  13.379
71259SOL    HW215675   5.231  14.218  13.298
71260SOL     OW15676   5.750  12.698   5.535
71260SOL    HW115677   5.709  12.667   5.616
71260SOL    HW215678   5.690  12.765   5.502
71261SOL     OW15679   5.325   9.803  12.797
71261SOL    HW115680   5.414   9.771  12.810
71261SOL    HW215681   5.293   9.754  12.721
71262SOL     OW15682  13.233  10.149   8.977
71262SOL    HW115683  13.152  10.138   8.927
71262SOL    HW215684  13.241  10.243   8.991
71263SOL     OW15685   5.175  12.708   1.174
71263SOL    HW115686   5.133  12.623   1.161
71263SOL    HW215687   5.149  12.760   1.098
71264SOL     OW15688   4.359  13.816   2.938
71264SOL    HW115689   4.360  13.899   2.891
71264SOL    HW215690   4.314  13.755   2.880
71265SOL     OW15691   8.583  13.581   0.214
71265SOL    HW115692   8.543  13.634   0.284
71265SOL    HW215693   8.654  13.636   0.181
71266SOL     OW15694   7.003   3.362  13.563
71266SOL    HW115695   6.945   3.380  13.637
71266SOL    HW215696   6.966   3.414  13.491
71267SOL     OW15697   3.122   1.429  10.357
71267SOL    HW115698   3.215   1.430  10.336
71267SOL    HW215699   3.108   1.345  10.401
71268SOL     OW15700  13.488  14.158  13.798
71268SOL    HW115701  13.520  14.123  13.715
71268SOL    HW215702  13.567  14.182  13.846
71269SOL     OW15703   3.170  10.970  10.095
71269SOL    HW115704   3.113  11.046  10.103
71269SOL    HW215705   3.134  10.907  10.157
71270SOL     OW15706   8.754  10.994   8.217
71270SOL    HW115707   8.685  10.936   8.251
71270SOL    HW215708   8.761  10.971   8.125
71271SOL     OW15709   4.243  12.934   9.832
71271SOL    HW115710   4.182  12.893   9.894
71271SOL    HW215711   4.202  12.922   9.747
71272SOL     OW15712   9.705   9.533   5.051
71272SOL    HW115713   9.658   9.567   5.127
71272SOL    HW215714   9.789   9.504   5.086
71273SOL     OW15715   1.554   0.785  13.324
71273SOL    HW115716   1.551   0.800  13.419
71273SOL    HW215717   1.477   0.829  13.290
71274SOL     OW15718   4.940   8.800  10.673
71274SOL    HW115719   4.978   8.775  10.758
71274SOL    HW215720   5.009   8.849  10.629
71275SOL     OW15721   4.616   5.038  14.220
71275SOL    HW115722   4.688   5.081  14.173
71275SOL    HW215723   4.615   5.079  14.306
71276SOL     OW15724   4.462  12.115  14.250
71276SOL    HW115725   4.421  12.136  14.334
71276SOL    HW215726   4.556  12.123  14.266
71277SOL     OW15727   2.379   0.091   3.605
71277SOL    HW115728   2.449   0.135   3.557
71277SOL    HW215729   2.423   0.018   3.650
71278SOL     OW15730   5.533   3.481   8.822
71278SOL    HW115731   5.623   3.464   8.850
71278SOL    HW215732   5.517   3.417   8.753
71279SOL     OW15733   3.050   9.232   5.157
71279SOL    HW115734   3.004   9.316   5.160
71279SOL    HW215735   2.981   9.167   5.167
71280SOL     OW15736   7.949   6.814   7.017
71280SOL    HW115737   7.964   6.788   7.108
71280SOL    HW215738   7.938   6.732   6.969
71281SOL     OW15739   3.651   0.946   7.857
71281SOL    HW115740   3.689   0.978   7.938
71281SOL    HW215741   3.591   1.015   7.829
71282SOL     OW15742  14.018  14.272  13.477
71282SOL    HW115743  13.924  14.254  13.480
71282SOL    HW215744  14.059  14.186  13.486
71283SOL     OW15745  10.603   7.966   1.854
71283SOL    HW115746  10.513   7.989   1.877
71283SOL    HW215747  10.642   8.048   1.825
71284SOL     OW15748   6.841   2.143  10.043
71284SOL    HW115749   6.798   2.082   9.983
71284SOL    HW215750   6.916   2.095  10.077
71285SOL     OW15751   2.392   7.027   8.125
71285SOL    HW115752   2.371   6.934   8.110
71285SOL    HW215753   2.488   7.031   8.119
71286SOL     OW15754  13.051  14.641  11.826
71286SOL    HW115755  13.002  14.601  11.898
71286SOL    HW215756  13.035  14.735  11.836
71287SOL     OW15757   7.387   6.912   1.265
71287SOL    HW115758   7.396   6.836   1.322
71287SOL    HW215759   7.419   6.882   1.180
71288SOL     OW15760  12.965   8.608  11.030
71288SOL    HW115761  12.907   8.580  11.101
71288SOL    HW215762  12.996   8.694  11.059
71289SOL     OW15763  13.821   2.869   8.341
71289SOL    HW115764  13.862   2.885   8.256
71289SOL    HW215765  13.812   2.774   8.345
71290SOL     OW15766   0.935   2.624   1.794
71290SOL    HW115767   1.010   2.616   1.735
71290SOL    HW215768   0.961   2.576   1.873
71291SOL     OW15769   6.483   5.303  11.683
71291SOL    HW115770   6.462   5.395  11.693
71291SOL    HW215771   6.501   5.273  11.773
71292SOL     OW15772   6.256   2.828   8.872
71292SOL    HW115773   6.279   2.902   8.816
71292SOL    HW215774   6.296   2.849   8.957
71293SOL     OW15775   5.990   4.671   8.654
71293SOL    HW115776   5.982   4.743   8.591
71293SOL    HW215777   6.077   4.683   8.693
71294SOL     OW15778   9.910  13.699   6.601
71294SOL    HW115779   9.872  13.685   6.688
71294SOL    HW215780   9.844  13.665   6.540
71295SOL     OW15781  10.011  12.516   0.427
71295SOL    HW115782   9.935  12.574   0.431
71295SOL    HW215783   9.985  12.447   0.367
71296SOL     OW15784  14.256  11.388   1.262
71296SOL    HW115785  14.298  11.374   1.177
71296SOL    HW215786  14.184  11.447   1.244
71297SOL     OW15787  10.335   2.692   5.408
71297SOL    HW115788  10.380   2.753   5.349
71297SOL    HW215789  10.405   2.640   5.446
71298SOL     OW15790   3.731  10.874   5.606
71298SOL    HW115791   3.645  10.873   5.565
71298SOL    HW215792   3.788  10.826   5.545
71299SOL     OW15793   1.440  11.912   4.665
71299SOL    HW115794   1.380  11.877   4.599
71299SOL    HW215795   1.412  11.872   4.747
71300SOL     OW15796   7.065  12.422   1.632
71300SOL    HW115797   7.128  12.437   1.561
71300SOL    HW215798   7.115  12.377   1.699
71301SOL     OW15799  14.434  12.133   4.521
71301SOL    HW115800  14.355  12.144   4.575
71301SOL    HW215801  14.435  12.209   4.464
71302SOL     OW15802   3.859  14.009   7.877
71302SOL    HW115803   3.835  14.080   7.937
71302SOL    HW215804   3.860  14.049   7.790
71303SOL     OW15805   9.846  10.991  11.255
71303SOL    HW115806   9.786  10.919  11.274
71303SOL    HW215807   9.919  10.977  11.316
71304SOL     OW15808   1.886   4.184  12.274
71304SOL    HW115809   1.977   4.170  12.247
71304SOL    HW215810   1.842   4.212  12.193
71305SOL     OW15811   8.497   9.659   1.396
71305SOL    HW115812   8.579   9.658   1.347
71305SOL    HW215813   8.437   9.605   1.345
71306SOL     OW15814  13.198   6.874   5.999
71306SOL    HW115815  13.224   6.807   5.936
71306SOL    HW215816  13.120   6.839   6.042
71307SOL     OW15817   7.184   8.323   8.471
71307SOL    HW115818   7.089   8.335   8.470
71307SOL    HW215819   7.215   8.372   8.395
71308SOL     OW15820   6.904  11.169  12.495
71308SOL    HW115821   6.893  11.236  12.428
71308SOL    HW215822   6.983  11.194  12.542
71309SOL     OW15823  12.159   6.093  12.279
71309SOL    HW115824  12.091   6.144  12.322
71309SOL    HW215825  12.121   6.006  12.266
71310SOL     OW15826   1.996  12.504   6.575
71310SOL    HW115827   2.004  12.593   6.539
71310SOL    HW215828   2.049  12.506   6.655
71311SOL     OW15829  14.637  11.655   8.059
71311SOL    HW115830  14.700  11.584   8.046
71311SOL    HW215831  14.689  11.727   8.093
71312SOL     OW15832   9.273  13.611  12.379
71312SOL    HW115833   9.214  13.687  12.377
71312SOL    HW215834   9.355  13.646  12.413
71313SOL     OW15835  13.220   7.606   1.122
71313SOL    HW115836  13.193   7.517   1.146
71313SOL    HW215837  13.164   7.629   1.048
71314SOL     OW15838   5.877   8.240  12.418
71314SOL    HW115839   5.905   8.226  12.509
71314SOL    HW215840   5.857   8.152  12.386
71315SOL     OW15841  11.088   9.989   2.468
71315SOL    HW115842  11.131  10.001   2.384
71315SOL    HW215843  11.159   9.981   2.531
71316SOL     OW15844   8.363  14.237   7.574
71316SOL    HW115845   8.390  14.294   7.646
71316SOL    HW215846   8.280  14.274   7.543
71317SOL     OW15847  11.256   0.641   1.589
71317SOL    HW115848  11.288   0.559   1.551
71317SOL    HW215849  11.279   0.708   1.525
71318SOL     OW15850  10.974  12.064  12.891
71318SOL    HW115851  10.965  12.004  12.965
71318SOL    HW215852  10.884  12.079  12.860
71319SOL     OW15853   0.431   2.144   9.359
71319SOL    HW115854   0.445   2.115   9.269
71319SOL    HW215855   0.484   2.223   9.368
71320SOL     OW15856  13.313   4.923  12.739
71320SOL    HW115857  13.389   4.977  12.762
71320SOL    HW215858  13.240   4.965  12.785
71321SOL     OW15859   2.300  13.353   2.604
71321SOL    HW115860   2.278  13.267   2.638
71321SOL    HW215861   2.219  13.404   2.612
71322SOL     OW15862  10.591   6.312   5.996
71322SOL    HW115863  10.540   6.278   5.922
71322SOL    HW215864  10.677   6.273   5.985
71323SOL     OW15865  10.279   9.984  14.150
71323SOL    HW115866  10.275   9.895  14.116
71323SOL    HW215867  10.367   9.993  14.185
71324SOL     OW15868   3.917   6.046   2.844
71324SOL    HW115869   4.004   6.010   2.862
71324SOL    HW215870   3.879   5.985   2.780
71325SOL     OW15871   8.685  11.544   1.627
71325SOL    HW115872   8.600  11.516   1.660
71325SOL    HW215873   8.683  11.639   1.632
71326SOL     OW15874  11.434  12.539   4.739
71326SOL    HW115875  11.464  12.605   4.676
71326SOL    HW215876  11.344  12.520   4.712
71327SOL     OW15877   7.985  11.766   8.149
71327SOL    HW115878   8.063  11.820   8.152
71327SOL    HW215879   7.993  11.709   8.226
71328SOL     OW15880   3.928   6.085   5.373
71328SOL    HW115881   3.987   6.160   5.376
71328SOL    HW215882   3.859   6.106   5.436
71329SOL     OW15883  14.719   2.928   6.555
71329SOL    HW115884  14.813   2.941   6.564
71329SOL    HW215885  14.680   2.994   6.613
71330SOL     OW15886  14.452   5.302   8.611
71330SOL    HW115887  14.382   5.344   8.561
71330SOL    HW215888  14.469   5.363   8.684
71331SOL     OW15889   3.778   9.989   9.110
71331SOL    HW115890   3.709   9.946   9.159
71331SOL    HW215891   3.751  10.081   9.105
71332SOL     OW15892  12.372   5.457  10.695
71332SOL    HW115893  12.429   5.497  10.761
71332SOL    HW215894  12.284   5.462  10.732
71333SOL     OW15895   7.931  12.295   3.812
71333SOL    HW115896   8.016  12.337   3.825
71333SOL    HW215897   7.906  12.264   3.898
71334SOL     OW15898   7.495   2.262   2.111
71334SOL    HW115899   7.458   2.343   2.146
71334SOL    HW215900   7.469   2.263   2.018
71335SOL     OW15901   9.047   1.918   4.625
71335SOL    HW115902   9.036   2.012   4.639
71335SOL    HW215903   9.124   1.911   4.569
71336SOL     OW15904   9.592  10.151  11.400
71336SOL    HW115905   9.503  10.147  11.365
71336SOL    HW215906   9.582  10.191  11.487
71337SOL     OW15907   8.833  12.855   1.408
71337SOL    HW115908   8.884  12.865   1.327
71337SOL    HW215909   8.744  12.880   1.383
71338SOL     OW15910  10.279   1.993   9.999
71338SOL    HW115911  10.194   1.952  10.008
71338SOL    HW215912  10.287   2.049  10.076
71339SOL     OW15913   5.306   7.198   8.673
71339SOL    HW115914   5.239   7.185   8.739
71339SOL    HW215915   5.361   7.268   8.707
71340SOL     OW15916  14.713  14.745   0.355
71340SOL    HW115917  14.642  14.682   0.367
71340SOL    HW215918  14.737  14.773   0.444
71341SOL     OW15919   5.540  12.226   7.852
71341SOL    HW115920   5.472  12.280   7.812
71341SOL    HW215921   5.574  12.279   7.924
71342SOL     OW15922   2.567  14.865   1.792
71342SOL    HW115923   2.543   0.064   1.854
71342SOL    HW215924   2.487  14.816   1.778
71343SOL     OW15925  10.452  12.595  13.257
71343SOL    HW115926  10.415  12.568  13.341
71343SOL    HW215927  10.477  12.686  13.270
71344SOL     OW15928   6.392   3.043  14.497
71344SOL    HW115929   6.473   3.050  14.446
71344SOL    HW215930   6.366   3.134  14.513
71345SOL     OW15931   1.179  10.377  14.129
71345SOL    HW115932   1.227  10.400  14.208
71345SOL    HW215933   1.132  10.298  14.151
71346SOL     OW15934   0.357   9.058   4.433
71346SOL    HW115935   0.300   8.994   4.389
71346SOL    HW215936   0.345   9.139   4.383
71347SOL     OW15937   8.436   9.322  12.454
71347SOL    HW115938   8.439   9.227  12.459
71347SOL    HW215939   8.354   9.346  12.496
71348SOL     OW15940  14.810  13.605   6.378
71348SOL    HW115941  14.778  13.683   6.332
71348SOL    HW215942  14.733  13.549   6.386
71349SOL     OW15943   9.920   1.131   3.580
71349SOL    HW115944   9.947   1.210   3.534
71349SOL    HW215945  10.002   1.083   3.595
71350SOL     OW15946   6.831   1.147   0.679
71350SOL    HW115947   6.782   1.066   0.695
71350SOL    HW215948   6.843   1.150   0.584
71351SOL     OW15949  10.081  13.336   9.334
71351SOL    HW115950  10.106  13.346   9.426
71351SOL    HW215951  10.017  13.265   9.334
71352SOL     OW15952   2.018   6.475   3.029
71352SOL    HW115953   2.013   6.394   3.080
71352SOL    HW215954   1.965   6.537   3.078
71353SOL     OW15955   6.098   1.008   3.435
71353SOL    HW115956   6.172   1.002   3.495
71353SOL    HW215957   6.027   0.962   3.478
71354SOL     OW15958  12.183   6.848  12.203
71354SOL    HW115959  12.113   6.908  12.178
71354SOL    HW215960  12.143   6.762  12.201
71355SOL     OW15961  10.608   4.813   7.581
71355SOL    HW115962  10.522   4.772   7.574
71355SOL    HW215963  10.621   4.856   7.496
71356SOL     OW15964  10.338   2.864  10.673
71356SOL    HW115965  10.420   2.840  10.718
71356SOL    HW215966  10.349   2.956  10.649
71357SOL     OW15967   6.091   8.363   5.467
71357SOL    HW115968   6.146   8.315   5.405
71357SOL    HW215969   6.084   8.305   5.542
71358SOL     OW15970  12.854   9.724   5.344
71358SOL    HW115971  12.789   9.682   5.287
71358SOL    HW215972  12.813   9.806   5.371
71359SOL     OW15973   7.172  12.284   5.233
71359SOL    HW115974   7.256  12.257   5.270
71359SOL    HW215975   7.168  12.240   5.148
71360SOL     OW15976  11.638   3.266   3.107
71360SOL    HW115977  11.603   3.188   3.064
71360SOL    HW215978  11.732   3.250   3.113
71361SOL     OW15979   0.073   9.182  11.665
71361SOL    HW115980   0.116   9.245  11.608
71361SOL    HW215981   0.069   9.224  11.750
71362SOL     OW15982   9.113  14.607   4.862
71362SOL    HW115983   9.182  14.647   4.809
71362SOL    HW215984   9.064  14.681   4.899
71363SOL     OW15985   9.665   6.628   8.963
71363SOL    HW115986   9.572   6.622   8.986
71363SOL    HW215987   9.664   6.651   8.870
71364SOL     OW15988   0.077   1.084   0.829
71364SOL    HW115989   0.078   1.071   0.924
71364SOL    HW215990   0.168   1.068   0.802
71365SOL     OW15991  14.293   5.094   8.810
71365SOL    HW115992  14.274   5.186   8.828
71365SOL    HW215993  14.240   5.073   8.734
71366SOL     OW15994   4.469   3.439  14.161
71366SOL    HW115995   4.556   3.401  14.172
71366SOL    HW215996   4.485   3.532  14.144
71367SOL     OW15997   4.815   0.928  12.187
71367SOL    HW115998   4.724   0.942  12.214
71367SOL    HW215999   4.859   1.010  12.207
71368SOL     OW16000   8.249   8.830   1.300
71368SOL    HW116001   8.286   8.912   1.333
71368SOL    HW216002   8.322   8.768   1.303
71369SOL     OW16003   9.783  10.738   7.430
71369SOL    HW116004   9.726  10.784   7.491
71369SOL    HW216005   9.727  10.716   7.356
71370SOL     OW16006   5.002  12.406   3.156
71370SOL    HW116007   4.980  12.350   3.082
71370SOL    HW216008   4.928  12.396   3.216
71371SOL     OW16009  13.554   3.441   1.211
71371SOL    HW116010  13.483   3.503   1.189
71371SOL    HW216011  13.597   3.481   1.287
71372SOL     OW16012  10.064  12.968   5.613
71372SOL    HW116013   9.970  12.961   5.594
71372SOL    HW216014  10.094  13.043   5.562
71373SOL     OW16015   0.123  10.392  10.247
71373SOL    HW116016   0.102  10.483  10.270
71373SOL    HW216017   0.042  10.344  10.261
71374SOL     OW16018   1.237   0.445   5.807
71374SOL    HW116019   1.162   0.478   5.858
71374SOL    HW216020   1.240   0.352   5.826
71375SOL     OW16021   4.598  12.150   4.426
71375SOL    HW116022   4.650  12.117   4.354
71375SOL    HW216023   4.510  12.160   4.391
71376SOL     OW16024  14.851   1.056  14.097
71376SOL    HW116025  14.865   1.150  14.108
71376SOL    HW216026   0.066   1.017  14.118
71377SOL     OW16027   3.403   6.870  10.978
71377SOL    HW116028   3.414   6.956  10.939
71377SOL    HW216029   3.485   6.824  10.960
71378SOL     OW16030   4.914  11.826   6.016
71378SOL    HW116031   4.910  11.783   6.101
71378SOL    HW216032   4.834  11.798   5.971
71379SOL     OW16033   2.931   5.568   7.139
71379SOL    HW116034   2.950   5.501   7.204
71379SOL    HW216035   2.857   5.617   7.176
71380SOL     OW16036   9.082   0.989   5.451
71380SOL    HW116037   9.112   1.073   5.418
71380SOL    HW216038   9.015   1.011   5.516
71381SOL     OW16039   2.407   4.603   0.398
71381SOL    HW116040   2.391   4.651   0.316
71381SOL    HW216041   2.366   4.518   0.385
71382SOL     OW16042  11.986  10.528  12.668
71382SOL    HW116043  12.063  10.586  12.662
71382SOL    HW216044  11.912  10.588  12.675
71383SOL     OW16045   0.411   4.902  14.373
71383SOL    HW116046   0.462   4.974  14.335
71383SOL    HW216047   0.320   4.931  14.367
71384SOL     OW16048  13.265   8.765   4.742
71384SOL    HW116049  13.301   8.784   4.829
71384SOL    HW216050  13.238   8.850   4.708
71385SOL     OW16051   5.777   1.207  11.880
71385SOL    HW116052   5.837   1.247  11.943
71385SOL    HW216053   5.689   1.228  11.913
71386SOL     OW16054   7.166   0.284   8.853
71386SOL    HW116055   7.167   0.188   8.848
71386SOL    HW216056   7.091   0.311   8.801
71387SOL     OW16057  13.607   8.563   7.177
71387SOL    HW116058  13.640   8.482   7.138
71387SOL    HW216059  13.512   8.554   7.174
71388SOL     OW16060   1.293  14.552  13.031
71388SOL    HW116061   1.275  14.477  12.975
71388SOL    HW216062   1.368  14.526  13.084
71389SOL     OW16063  11.851  11.258   1.197
71389SOL    HW116064  11.793  11.269   1.272
71389SOL    HW216065  11.939  11.276   1.233
71390SOL     OW16066   2.325   9.303   9.970
71390SOL    HW116067   2.241   9.266   9.943
71390SOL    HW216068   2.310   9.397   9.971
71391SOL     OW16069   6.554   4.459   2.275
71391SOL    HW116070   6.616   4.506   2.331
71391SOL    HW216071   6.470   4.466   2.320
71392SOL     OW16072   9.280  11.449  14.117
71392SOL    HW116073   9.289  11.528  14.064
71392SOL    HW216074   9.259  11.380  14.054
71393SOL     OW16075   2.692  10.378   1.748
71393SOL    HW116076   2.660  10.302   1.797
71393SOL    HW216077   2.636  10.450   1.777
71394SOL     OW16078   1.395   4.929   6.513
71394SOL    HW116079   1.307   4.897   6.493
71394SOL    HW216080   1.409   4.908   6.605
71395SOL     OW16081   3.630  13.656   7.726
71395SOL    HW116082   3.540  13.655   7.759
71395SOL    HW216083   3.657  13.565   7.728
71396SOL     OW16084   3.979   8.915   6.616
71396SOL    HW116085   4.026   8.835   6.591
71396SOL    HW216086   4.036   8.986   6.587
71397SOL     OW16087  11.212   7.042   8.681
71397SOL    HW116088  11.258   7.011   8.603
71397SOL    HW216089  11.273   7.105   8.721
71398SOL     OW16090  10.232  14.800  13.648
71398SOL    HW116091  10.286  14.731  13.687
71398SOL    HW216092  10.187  14.757  13.575
71399SOL     OW16093  12.102  11.603  14.411
71399SOL    HW116094  12.098  11.635  14.321
71399SOL    HW216095  12.181  11.644  14.447
71400SOL     OW16096   5.407  10.472  13.602
71400SOL    HW116097   5.494  10.505  13.579
71400SOL    HW216098   5.422  10.382  13.629
71401SOL     OW16099   9.266  10.001   1.116
71401SOL    HW116100   9.221  10.007   1.032
71401SOL    HW216101   9.203   9.959   1.175
71402SOL     OW16102   7.586   5.114   6.523
71402SOL    HW116103   7.564   5.207   6.526
71402SOL    HW216104   7.510   5.070   6.562
71403SOL     OW16105   7.948  10.466  10.020
71403SOL    HW116106   7.863  10.455   9.977
71403SOL    HW216107   7.952  10.559  10.043
71404SOL     OW16108   7.474   7.464  14.596
71404SOL    HW116109   7.445   7.374  14.578
71404SOL    HW216110   7.535   7.483  14.526
71405SOL     OW16111   1.826  10.491  13.565
71405SOL    HW116112   1.907  10.484  13.616
71405SOL    HW216113   1.855  10.483  13.474
71406SOL     OW16114  12.013   9.314   8.584
71406SOL    HW116115  12.016   9.359   8.499
71406SOL    HW216116  12.066   9.368   8.642
71407SOL     OW16117   3.407   0.201  12.391
71407SOL    HW116118   3.360   0.265  12.338
71407SOL    HW216119   3.398   0.234  12.481
71408SOL     OW16120   8.197   0.737  12.499
71408SOL    HW116121   8.125   0.724  12.561
71408SOL    HW216122   8.158   0.717  12.414
71409SOL     OW16123   4.067   8.976   1.026
71409SOL    HW116124   4.049   9.063   1.061
71409SOL    HW216125   4.093   8.992   0.935
71410SOL     OW16126   2.769  10.061   4.220
71410SOL    HW116127   2.768  10.118   4.297
71410SOL    HW216128   2.700   9.997   4.236
71411SOL     OW16129   3.244  10.995  10.778
71411SOL    HW116130   3.325  11.021  10.735
71411SOL    HW216131   3.267  10.990  10.871
71412SOL     OW16132   8.055  13.332   4.762
71412SOL    HW116133   7.966  13.366   4.761
71412SOL    HW216134   8.071  13.301   4.673
71413SOL     OW16135   4.031  12.999   1.597
71413SOL    HW116136   4.004  13.086   1.625
71413SOL    HW216137   3.972  12.977   1.525
71414SOL     OW16138   3.078  10.870  10.505
71414SOL    HW116139   3.035  10.789  10.533
71414SOL    HW216140   3.050  10.935  10.569
71415SOL     OW16141  11.551   3.449   4.880
71415SOL    HW116142  11.531   3.369   4.831
71415SOL    HW216143  11.476   3.460   4.938
71416SOL     OW16144   4.333  11.662   9.582
71416SOL    HW116145   4.290  11.650   9.667
71416SOL    HW216146   4.261  11.669   9.519
71417SOL     OW16147   1.282   1.819   9.753
71417SOL    HW116148   1.341   1.749   9.778
71417SOL    HW216149   1.244   1.790   9.670
71418SOL     OW16150   5.874  12.213   3.696
71418SOL    HW116151   5.843  12.301   3.676
71418SOL    HW216152   5.819  12.183   3.768
71419SOL     OW16153   4.220  12.867   1.138
71419SOL    HW116154   4.191  12.908   1.219
71419SOL    HW216155   4.183  12.779   1.141
71420SOL     OW16156   0.016   1.401   8.714
71420SOL    HW116157  14.840   1.433   8.791
71420SOL    HW216158  14.862   1.308   8.709
71421SOL     OW16159   2.221   8.264  10.940
71421SOL    HW116160   2.204   8.318  11.017
71421SOL    HW216161   2.200   8.175  10.967
71422SOL     OW16162   0.721   1.509   2.235
71422SOL    HW116163   0.799   1.464   2.203
71422SOL    HW216164   0.710   1.583   2.175
71423SOL     OW16165  14.235  12.159   3.363
71423SOL    HW116166  14.265  12.241   3.402
71423SOL    HW216167  14.176  12.186   3.292
71424SOL     OW16168   9.443   8.623   7.972
71424SOL    HW116169   9.366   8.677   7.991
71424SOL    HW216170   9.407   8.536   7.954
71425SOL     OW16171   2.400   3.955   2.946
71425SOL    HW116172   2.392   3.990   2.857
71425SOL    HW216173   2.452   3.875   2.936
71426SOL     OW16174  12.130   5.180   2.434
71426SOL    HW116175  12.046   5.136   2.420
71426SOL    HW216176  12.127   5.209   2.525
71427SOL     OW16177  11.210   1.272  14.763
71427SOL    HW116178  11.270   1.345  14.776
71427SOL    HW216179  11.212   1.225  14.846
71428SOL     OW16180   4.061  13.964   0.642
71428SOL    HW116181   4.109  13.996   0.566
71428SOL    HW216182   3.982  13.925   0.605
71429SOL     OW16183  14.281  12.518  13.762
71429SOL    HW116184  14.256  12.475  13.843
71429SOL    HW216185  14.286  12.611  13.784
71430SOL     OW16186   0.199   5.311   0.601
71430SOL    HW116187   0.263   5.357   0.546
71430SOL    HW216188   0.218   5.218   0.587
71431SOL     OW16189   9.986   9.056   4.376
71431SOL    HW116190   9.911   9.116   4.381
71431SOL    HW216191  10.063   9.113   4.384
71432SOL     OW16192  12.777   7.407   3.371
71432SOL    HW116193  12.784   7.373   3.282
71432SOL    HW216194  12.864   7.445   3.389
71433SOL     OW16195   4.186   0.928   2.398
71433SOL    HW116196   4.102   0.972   2.387
71433SOL    HW216197   4.203   0.888   2.312
71434SOL     OW16198   5.449  14.577   7.466
71434SOL    HW116199   5.435  14.664   7.428
71434SOL    HW216200   5.368  14.559   7.514
71435SOL     OW16201  13.625  11.801   0.626
71435SOL    HW116202  13.620  11.867   0.694
71435SOL    HW216203  13.658  11.723   0.671
71436SOL     OW16204   3.486   6.552   7.595
71436SOL    HW116205   3.407   6.513   7.559
71436SOL    HW216206   3.517   6.612   7.527
71437SOL     OW16207   0.870  14.868  12.303
71437SOL    HW116208   0.789  14.835  12.342
71437SOL    HW216209   0.842   0.060  12.236
71438SOL     OW16210   9.374   2.243   5.463
71438SOL    HW116211   9.343   2.154   5.482
71438SOL    HW216212   9.347   2.294   5.540
71439SOL     OW16213  11.884   3.706   9.243
71439SOL    HW116214  11.957   3.765   9.224
71439SOL    HW216215  11.922   3.618   9.236
71440SOL     OW16216   6.346   5.002   8.045
71440SOL    HW116217   6.345   4.939   7.974
71440SOL    HW216218   6.426   4.983   8.094
71441SOL     OW16219  14.772   6.292   9.573
71441SOL    HW116220  14.751   6.362   9.512
71441SOL    HW216221  14.858   6.260   9.546
71442SOL     OW16222   8.950   7.343   5.178
71442SOL    HW116223   8.941   7.402   5.253
71442SOL    HW216224   9.027   7.374   5.132
71443SOL     OW16225  11.130   0.104   7.297
71443SOL    HW116226  11.162   0.014   7.298
71443SOL    HW216227  11.035   0.096   7.306
71444SOL     OW16228   9.828   0.480   0.755
71444SOL    HW116229   9.789   0.559   0.791
71444SOL    HW216230   9.770   0.409   0.783
71445SOL     OW16231  12.996  12.752   9.415
71445SOL    HW116232  12.962  12.841   9.403
71445SOL    HW216233  12.960  12.723   9.499
71446SOL     OW16234   3.242  10.495  13.924
71446SOL    HW116235   3.266  10.465  13.836
71446SOL    HW216236   3.321  10.538  13.957
71447SOL     OW16237   5.926   9.572   8.889
71447SOL    HW116238   6.004   9.544   8.841
71447SOL    HW216239   5.864   9.598   8.820
71448SOL     OW16240   5.547   3.967   6.567
71448SOL    HW116241   5.538   3.928   6.653
71448SOL    HW216242   5.627   4.019   6.572
71449SOL     OW16243   1.030  11.072   4.450
71449SOL    HW116244   0.968  11.019   4.400
71449SOL    HW216245   0.977  11.142   4.487
71450SOL     OW16246  11.326   2.690   4.618
71450SOL    HW116247  11.362   2.601   4.622
71450SOL    HW216248  11.351   2.722   4.531
71451SOL     OW16249   3.029   8.031  10.110
71451SOL    HW116250   3.103   8.025  10.171
71451SOL    HW216251   3.069   8.057  10.027
71452SOL     OW16252  14.011   1.602  14.692
71452SOL    HW116253  13.983   1.608  14.783
71452SOL    HW216254  14.080   1.668  14.684
71453SOL     OW16255   0.082   1.963   2.627
71453SOL    HW116256   0.029   2.041   2.643
71453SOL    HW216257   0.027   1.908   2.571
71454SOL     OW16258  12.451   7.310   4.008
71454SOL    HW116259  12.505   7.388   4.005
71454SOL    HW216260  12.361   7.342   4.002
71455SOL     OW16261  10.498  12.099  12.350
71455SOL    HW116262  10.581  12.145  12.337
71455SOL    HW216263  10.471  12.073  12.262
71456SOL     OW16264   9.725   6.040   2.865
71456SOL    HW116265   9.693   6.093   2.938
71456SOL    HW216266   9.820   6.053   2.865
71457SOL     OW16267  13.522   9.683  14.784
71457SOL    HW116268  13.616   9.667  14.794
71457SOL    HW216269  13.499   9.740  14.857
71458SOL     OW16270  10.185   2.020  10.820
71458SOL    HW116271  10.134   2.050  10.745
71458SOL    HW216272  10.122   1.975  10.876
71459SOL     OW16273  14.439   9.473  11.906
71459SOL    HW116274  14.496   9.424  11.965
71459SOL    HW216275  14.438   9.421  11.825
71460SOL     OW16276   7.812  11.932   6.332
71460SOL    HW116277   7.771  11.953   6.249
71460SOL    HW216278   7.906  11.942   6.316
71461SOL     OW16279  10.883   7.420   5.427
71461SOL    HW116280  10.960   7.427   5.483
71461SOL    HW216281  10.867   7.509   5.397
71462SOL     OW16282   5.363  13.475   0.882
71462SOL    HW116283   5.309  13.396   0.893
71462SOL    HW216284   5.436  13.446   0.826
71463SOL     OW16285   4.617   3.217   5.651
71463SOL    HW116286   4.625   3.261   5.736
71463SOL    HW216287   4.657   3.132   5.665
71464SOL     OW16288   4.241   1.217   3.151
71464SOL    HW116289   4.318   1.169   3.182
71464SOL    HW216290   4.167   1.165   3.180
71465SOL     OW16291  11.251   4.877   7.516
71465SOL    HW116292  11.256   4.971   7.498
71465SOL    HW216293  11.330   4.857   7.565
71466SOL     OW16294  10.501  10.681   1.268
71466SOL    HW116295  10.540  10.734   1.337
71466SOL    HW216296  10.414  10.660   1.300
71467SOL     OW16297   7.540   6.628   9.487
71467SOL    HW116298   7.568   6.663   9.403
71467SOL    HW216299   7.473   6.563   9.465
71468SOL     OW16300   0.059   3.516   0.932
71468SOL    HW116301   0.047   3.465   0.852
71468SOL    HW216302  14.857   3.580   0.930
71469SOL     OW16303   9.538  10.193  11.980
71469SOL    HW116304   9.513  10.104  12.001
71469SOL    HW216305   9.457  10.236  11.954
71470SOL     OW16306   6.202   4.249   8.519
71470SOL    HW116307   6.165   4.218   8.601
71470SOL    HW216308   6.280   4.298   8.544
71471SOL     OW16309   7.276  12.318   6.541
71471SOL    HW116310   7.347  12.341   6.600
71471SOL    HW216311   7.292  12.227   6.517
71472SOL     OW16312   6.858  10.715  13.549
71472SOL    HW116313   6.816  10.797  13.576
71472SOL    HW216314   6.794  10.647  13.571
71473SOL     OW16315   6.517  14.348   3.941
71473SOL    HW116316   6.571  14.282   3.897
71473SOL    HW216317   6.432  14.342   3.897
71474SOL     OW16318   7.929  13.835  11.099
71474SOL    HW116319   7.947  13.772  11.168
71474SOL    HW216320   7.984  13.910  11.119
71475SOL     OW16321  11.476   5.632   0.365
71475SOL    HW116322  11.413   5.566   0.394
71475SOL    HW216323  11.553   5.618   0.420
71476SOL     OW16324   9.855  11.836  12.930
71476SOL    HW116325   9.779  11.893  12.915
71476SOL    HW216326   9.862  11.832  13.026
71477SOL     OW16327   3.472   2.187   7.910
71477SOL    HW116328   3.414   2.257   7.878
71477SOL    HW216329   3.427   2.106   7.887
71478SOL     OW16330   9.839   6.553   0.317
71478SOL    HW116331   9.902   6.505   0.264
71478SOL    HW216332   9.891   6.616   0.367
71479SOL     OW16333   1.712  12.818   6.714
71479SOL    HW116334   1.801  12.812   6.680
71479SOL    HW216335   1.664  12.748   6.670
71480SOL     OW16336   6.920   9.636  13.393
71480SOL    HW116337   6.910   9.720  13.439
71480SOL    HW216338   7.015   9.623  13.389
71481SOL     OW16339   8.914   9.434  13.581
71481SOL    HW116340   8.991   9.378  13.572
71481SOL    HW216341   8.893   9.433  13.674
71482SOL     OW16342  14.769  12.615   6.022
71482SOL    HW116343  14.701  12.554   5.994
71482SOL    HW216344  14.830  12.618   5.948
71483SOL     OW16345   2.655   9.950   1.105
71483SOL    HW116346   2.593   9.969   1.176
71483SOL    HW216347   2.689  10.036   1.080
71484SOL     OW16348   0.255   0.555   5.448
71484SOL    HW116349   0.311   0.551   5.371
71484SOL    HW216350   0.176   0.506   5.423
71485SOL     OW16351  11.888  12.426   3.615
71485SOL    HW116352  11.802  12.440   3.654
71485SOL    HW216353  11.871  12.418   3.521
71486SOL     OW16354   1.325   5.543   1.833
71486SOL    HW116355   1.317   5.596   1.913
71486SOL    HW216356   1.374   5.598   1.773
71487SOL     OW16357  13.522  11.311   5.348
71487SOL    HW116358  13.539  11.276   5.435
71487SOL    HW216359  13.607  11.343   5.318
71488SOL     OW16360   2.955   9.784  14.266
71488SOL    HW116361   3.010   9.727  14.212
71488SOL    HW216362   2.868   9.779  14.227
71489SOL     OW16363  12.712  13.428  11.968
71489SOL    HW116364  12.620  13.403  11.964
71489SOL    HW216365  12.718  13.485  12.044
71490SOL     OW16366   2.720  12.369   9.935
71490SOL    HW116367   2.725  12.355  10.030
71490SOL    HW216368   2.640  12.419   9.922
71491SOL     OW16369   3.567   8.079  11.669
71491SOL    HW116370   3.532   8.034  11.592
71491SOL    HW216371   3.495   8.077  11.732
71492SOL     OW16372  10.735   3.671   6.426
71492SOL    HW116373  10.756   3.723   6.348
71492SOL    HW216374  10.681   3.729   6.479
71493SOL     OW16375  12.561   6.135   0.168
71493SOL    HW116376  12.531   6.210   0.116
71493SOL    HW216377  12.482   6.081   0.179
71494SOL     OW16378  12.732  13.643   7.712
71494SOL    HW116379  12.757  13.678   7.626
71494SOL    HW216380  12.813  13.647   7.763
71495SOL     OW16381   3.838   6.028  12.001
71495SOL    HW116382   3.753   6.004  12.036
71495SOL    HW216383   3.894   6.039  12.078
71496SOL     OW16384  12.975  12.947   5.813
71496SOL    HW116385  12.932  12.940   5.727
71496SOL    HW216386  13.027  12.867   5.820
71497SOL     OW16387  10.783   7.858   9.355
71497SOL    HW116388  10.778   7.796   9.428
71497SOL    HW216389  10.825   7.936   9.393
71498SOL     OW16390  13.989  10.075   7.856
71498SOL    HW116391  14.001  10.142   7.789
71498SOL    HW216392  14.065  10.086   7.914
71499SOL     OW16393   8.811   0.935  14.492
71499SOL    HW116394   8.854   0.999  14.550
71499SOL    HW216395   8.795   0.859  14.548
71500SOL     OW16396  10.511   3.730   6.167
71500SOL    HW116397  10.471   3.810   6.200
71500SOL    HW216398  10.604   3.753   6.155
71501SOL     OW16399   9.771   0.359   6.756
71501SOL    HW116400   9.807   0.272   6.777
71501SOL    HW216401   9.825   0.390   6.683
71502SOL     OW16402   1.942  13.959   7.757
71502SOL    HW116403   1.876  14.029   7.756
71502SOL    HW216404   1.904  13.891   7.701
71503SOL     OW16405   1.745   1.857  14.323
71503SOL    HW116406   1.656   1.856  14.357
71503SOL    HW216407   1.799   1.882  14.398
71504SOL     OW16408   0.018  11.689   7.134
71504SOL    HW116409   0.068  11.759   7.176
71504SOL    HW216410   0.031  11.613   7.191
71505SOL     OW16411   4.157   7.748   9.255
71505SOL    HW116412   4.238   7.707   9.286
71505SOL    HW216413   4.164   7.840   9.283
71506SOL     OW16414   1.242   4.691   9.678
71506SOL    HW116415   1.293   4.629   9.626
71506SOL    HW216416   1.212   4.640   9.754
71507SOL     OW16417   9.913  12.829   1.396
71507SOL    HW116418   9.834  12.882   1.409
71507SOL    HW216419   9.886  12.761   1.334
71508SOL     OW16420  12.822   3.920  10.179
71508SOL    HW116421  12.729   3.930  10.164
71508SOL    HW216422  12.861   4.000  10.145
71509SOL     OW16423   5.012  11.795   0.358
71509SOL    HW116424   5.049  11.840   0.433
71509SOL    HW216425   5.025  11.855   0.284
71510SOL     OW16426   6.804  13.260  13.869
71510SOL    HW116427   6.889  13.222  13.851
71510SOL    HW216428   6.810  13.349  13.833
71511SOL     OW16429  12.844   0.507   7.528
71511SOL    HW116430  12.753   0.479   7.521
71511SOL    HW216431  12.839   0.598   7.557
71512SOL     OW16432   7.848   0.885  11.660
71512SOL    HW116433   7.913   0.818  11.683
71512SOL    HW216434   7.828   0.928  11.743
71513SOL     OW16435   4.298   7.167   1.345
71513SOL    HW116436   4.211   7.154   1.381
71513SOL    HW216437   4.283   7.193   1.254
71514SOL     OW16438  11.678   4.727  14.062
71514SOL    HW116439  11.735   4.651  14.050
71514SOL    HW216440  11.607   4.713  14.000
71515SOL     OW16441   6.718   1.865  11.150
71515SOL    HW116442   6.670   1.886  11.230
71515SOL    HW216443   6.698   1.773  11.133
71516SOL     OW16444   5.643  13.485   6.328
71516SOL    HW116445   5.566  13.520   6.372
71516SOL    HW216446   5.627  13.503   6.235
71517SOL     OW16447   7.338   3.132   7.305
71517SOL    HW116448   7.298   3.210   7.344
71517SOL    HW216449   7.399   3.100   7.371
71518SOL     OW16450   6.508   9.579   5.411
71518SOL    HW116451   6.510   9.548   5.502
71518SOL    HW216452   6.470   9.666   5.416
71519SOL     OW16453   7.979  13.288   9.511
71519SOL    HW116454   7.925  13.231   9.457
71519SOL    HW216455   8.006  13.358   9.452
71520SOL     OW16456  13.932   9.627   3.855
71520SOL    HW116457  13.945   9.648   3.948
71520SOL    HW216458  13.940   9.712   3.811
71521SOL     OW16459   4.576  14.619   5.655
71521SOL    HW116460   4.524  14.680   5.603
71521SOL    HW216461   4.517  14.545   5.672
71522SOL     OW16462   2.252  10.027   3.603
71522SOL    HW116463   2.304  10.107   3.613
71522SOL    HW216464   2.166  10.058   3.575
71523SOL     OW16465  12.852  12.140  13.820
71523SOL    HW116466  12.808  12.056  13.807
71523SOL    HW216467  12.836  12.187  13.738
71524SOL     OW16468   7.090   0.120   3.808
71524SOL    HW116469   7.128   0.133   3.721
71524SOL    HW216470   7.163   0.089   3.862
71525SOL     OW16471  10.069   2.070   6.336
71525SOL    HW116472  10.016   2.139   6.295
71525SOL    HW216473  10.131   2.043   6.268
71526SOL     OW16474   5.041  13.798  12.892
71526SOL    HW116475   5.114  13.835  12.943
71526SOL    HW216476   5.039  13.706  12.918
71527SOL     OW16477   1.096  10.968  14.106
71527SOL    HW116478   1.135  10.900  14.161
71527SOL    HW216479   1.171  11.016  14.071
71528SOL     OW16480   9.496   6.047  11.622
71528SOL    HW116481   9.415   6.088  11.591
71528SOL    HW216482   9.566   6.101  11.584
71529SOL     OW16483  12.368   5.717   9.745
71529SOL    HW116484  12.394   5.774   9.673
71529SOL    HW216485  12.326   5.776   9.808
71530SOL     OW16486  12.605   0.422   6.495
71530SOL    HW116487  12.549   0.348   6.522
71530SOL    HW216488  12.634   0.460   6.578
71531SOL     OW16489  13.863   7.622   3.182
71531SOL    HW116490  13.870   7.527   3.198
71531SOL    HW216491  13.927   7.660   3.243
71532SOL     OW16492  12.717  14.108  10.366
71532SOL    HW116493  12.635  14.092  10.320
71532SOL    HW216494  12.754  14.185  10.323
71533SOL     OW16495   9.792  13.153   4.971
71533SOL    HW116496   9.698  13.147   4.956
71533SOL    HW216497   9.832  13.110   4.895
71534SOL     OW16498   8.004   9.810  13.720
71534SOL    HW116499   7.935   9.825  13.785
71534SOL    HW216500   8.073   9.764  13.768
71535SOL     OW16501   7.812  14.624   7.130
71535SOL    HW116502   7.891  14.574   7.152
71535SOL    HW216503   7.790  14.596   7.041
71536SOL     OW16504   4.729  12.140  12.241
71536SOL    HW116505   4.638  12.132  12.211
71536SOL    HW216506   4.781  12.113  12.166
71537SOL     OW16507   1.662  11.120   8.807
71537SOL    HW116508   1.731  11.112   8.873
71537SOL    HW216509   1.697  11.074   8.730
71538SOL     OW16510   8.704   7.220  13.883
71538SOL    HW116511   8.697   7.189  13.974
71538SOL    HW216512   8.624   7.189  13.841
71539SOL     OW16513  13.159  12.723   4.163
71539SOL    HW116514  13.141  12.667   4.088
71539SOL    HW216515  13.231  12.779   4.133
71540SOL     OW16516   4.845   6.258   3.556
71540SOL    HW116517   4.839   6.162   3.555
71540SOL    HW216518   4.775   6.286   3.615
71541SOL     OW16519  12.983  11.060   4.609
71541SOL    HW116520  12.992  11.132   4.671
71541SOL    HW216521  13.072  11.030   4.592
71542SOL     OW16522  13.928  13.252  10.650
71542SOL    HW116523  13.952  13.211  10.733
71542SOL    HW216524  13.983  13.210  10.584
71543SOL     OW16525  13.450  12.734   6.260
71543SOL    HW116526  13.465  12.724   6.354
71543SOL    HW216527  13.380  12.672   6.240
71544SOL     OW16528   7.997   9.372   1.213
71544SOL    HW116529   7.989   9.291   1.162
71544SOL    HW216530   8.021   9.343   1.301
71545SOL     OW16531   5.641  14.228   9.422
71545SOL    HW116532   5.685  14.287   9.483
71545SOL    HW216533   5.677  14.142   9.441
71546SOL     OW16534  13.902   4.013   8.956
71546SOL    HW116535  13.993   3.999   8.930
71546SOL    HW216536  13.903   4.012   9.052
71547SOL     OW16537   9.890   7.737   3.551
71547SOL    HW116538   9.817   7.737   3.489
71547SOL    HW216539   9.927   7.649   3.546
71548SOL     OW16540   3.234  12.546   1.426
71548SOL    HW116541   3.231  12.466   1.372
71548SOL    HW216542   3.152  12.545   1.475
71549SOL     OW16543  12.802   8.535  14.511
71549SOL    HW116544  12.715   8.544  14.473
71549SOL    HW216545  12.791   8.471  14.582
71550SOL     OW16546  12.132   3.626   2.446
71550SOL    HW116547  12.119   3.712   2.485
71550SOL    HW216548  12.155   3.569   2.520
71551SOL     OW16549  11.702   7.204  11.890
71551SOL    HW116550  11.610   7.199  11.868
71551SOL    HW216551  11.714   7.292  11.925
71552SOL     OW16552   5.282  11.853   1.453
71552SOL    HW116553   5.227  11.791   1.500
71552SOL    HW216554   5.251  11.939   1.481
71553SOL     OW16555   4.876   3.495   9.270
71553SOL    HW116556   4.899   3.588   9.273
71553SOL    HW216557   4.781   3.494   9.274
71554SOL     OW16558  13.467   3.280   8.169
71554SOL    HW116559  13.454   3.247   8.080
71554SOL    HW216560  13.559   3.307   8.171
71555SOL     OW16561   3.287  10.296  14.753
71555SOL    HW116562   3.270  10.362  14.820
71555SOL    HW216563   3.239  10.327  14.676
71556SOL     OW16564   8.613   5.111   2.862
71556SOL    HW116565   8.568   5.142   2.940
71556SOL    HW216566   8.593   5.018   2.858
71557SOL     OW16567  12.475   3.292  14.439
71557SOL    HW116568  12.416   3.249  14.502
71557SOL    HW216569  12.427   3.290  14.356
71558SOL     OW16570  14.318   5.291   3.304
71558SOL    HW116571  14.406   5.323   3.325
71558SOL    HW216572  14.263   5.323   3.376
71559SOL     OW16573   9.728   0.977  10.713
71559SOL    HW116574   9.674   0.979  10.792
71559SOL    HW216575   9.731   0.885  10.687
71560SOL     OW16576   2.186   3.060   9.225
71560SOL    HW116577   2.144   3.027   9.145
71560SOL    HW216578   2.126   3.128   9.257
71561SOL     OW16579  13.305   3.281   4.447
71561SOL    HW116580  13.233   3.335   4.414
71561SOL    HW216581  13.314   3.307   4.539
71562SOL     OW16582  14.574   0.399   8.472
71562SOL    HW116583  14.625   0.318   8.465
71562SOL    HW216584  14.614   0.457   8.407
71563SOL     OW16585   5.514   3.763   9.862
71563SOL    HW116586   5.479   3.844   9.824
71563SOL    HW216587   5.566   3.792   9.937
71564SOL     OW16588  14.593   2.131   0.133
71564SOL    HW116589  14.653   2.131   0.207
71564SOL    HW216590  14.578   2.223   0.114
71565SOL     OW16591   4.273   9.710   8.950
71565SOL    HW116592   4.265   9.769   8.876
71565SOL    HW216593   4.324   9.759   9.015
71566SOL     OW16594   5.177  14.106  10.953
71566SOL    HW116595   5.082  14.111  10.944
71566SOL    HW216596   5.195  14.143  11.039
71567SOL     OW16597  14.604  10.638   2.565
71567SOL    HW116598  14.630  10.621   2.656
71567SOL    HW216599  14.680  10.684   2.528
71568SOL     OW16600  13.097  13.148   2.488
71568SOL    HW116601  13.075  13.187   2.404
71568SOL    HW216602  13.162  13.208   2.526
71569SOL     OW16603   6.110   7.871   1.463
71569SOL    HW116604   6.129   7.867   1.557
71569SOL    HW216605   6.195   7.889   1.422
71570SOL     OW16606   5.710   6.459   8.621
71570SOL    HW116607   5.759   6.424   8.695
71570SOL    HW216608   5.675   6.542   8.653
71571SOL     OW16609   8.327  14.814   2.405
71571SOL    HW116610   8.233  14.831   2.408
71571SOL    HW216611   8.366   0.016   2.456
71572SOL     OW16612   4.372  12.963  10.845
71572SOL    HW116613   4.310  13.009  10.902
71572SOL    HW216614   4.355  12.999  10.758
71573SOL     OW16615  11.640   7.601   6.028
71573SOL    HW116616  11.714   7.630   5.976
71573SOL    HW216617  11.646   7.652   6.109
71574SOL     OW16618   2.454   3.474   8.377
71574SOL    HW116619   2.464   3.569   8.384
71574SOL    HW216620   2.526   3.439   8.429
71575SOL     OW16621   2.279   0.334   3.028
71575SOL    HW116622   2.352   0.331   3.089
71575SOL    HW216623   2.244   0.245   3.027
71576SOL     OW16624   7.258   6.409   7.497
71576SOL    HW116625   7.175   6.377   7.534
71576SOL    HW216626   7.259   6.502   7.519
71577SOL     OW16627   7.251   4.591   6.983
71577SOL    HW116628   7.228   4.677   6.947
71577SOL    HW216629   7.191   4.578   7.056
71578SOL     OW16630   0.574   1.414  14.629
71578SOL    HW116631   0.536   1.355  14.695
71578SOL    HW216632   0.667   1.391  14.626
71579SOL     OW16633  12.236   6.971   7.412
71579SOL    HW116634  12.267   6.900   7.468
71579SOL    HW216635  12.270   6.949   7.325
71580SOL     OW16636  12.474   3.117   9.524
71580SOL    HW116637  12.473   3.145   9.433
71580SOL    HW216638  12.388   3.079   9.539
71581SOL     OW16639  14.144   4.413  10.997
71581SOL    HW116640  14.053   4.425  11.021
71581SOL    HW216641  14.186   4.378  11.076
71582SOL     OW16642   1.546  10.463   3.117
71582SOL    HW116643   1.525  10.539   3.063
71582SOL    HW216644   1.495  10.391   3.079
71583SOL     OW16645  14.544   2.261   0.762
71583SOL    HW116646  14.527   2.246   0.855
71583SOL    HW216647  14.636   2.236   0.751
71584SOL     OW16648   1.232   8.511   8.127
71584SOL    HW116649   1.167   8.560   8.078
71584SOL    HW216650   1.224   8.421   8.096
71585SOL     OW16651   2.291   5.107  10.122
71585SOL    HW116652   2.296   5.039  10.054
71585SOL    HW216653   2.208   5.151  10.106
71586SOL     OW16654   6.023   6.238  11.708
71586SOL    HW116655   6.034   6.302  11.778
71586SOL    HW216656   6.112   6.222  11.676
71587SOL     OW16657   5.730  13.034   5.321
71587SOL    HW116658   5.683  13.117   5.308
71587SOL    HW216659   5.662  12.970   5.340
71588SOL     OW16660  13.018   3.034   5.953
71588SOL    HW116661  13.014   2.939   5.942
71588SOL    HW216662  12.954   3.068   5.890
71589SOL     OW16663  14.766   6.183   5.222
71589SOL    HW116664  14.767   6.207   5.314
71589SOL    HW216665  14.750   6.089   5.221
71590SOL     OW16666   2.430   4.293   9.045
71590SOL    HW116667   2.525   4.283   9.051
71590SOL    HW216668   2.396   4.253   9.125
71591SOL     OW16669  11.261   6.557   7.730
71591SOL    HW116670  11.231   6.470   7.758
71591SOL    HW216671  11.180   6.604   7.710
71592SOL     OW16672   9.503  13.865   0.731
71592SOL    HW116673   9.497  13.929   0.659
71592SOL    HW216674   9.596  13.862   0.752
71593SOL     OW16675   0.816   2.546   9.263
71593SOL    HW116676   0.884   2.479   9.272
71593SOL    HW216677   0.789   2.540   9.171
71594SOL     OW16678   4.384  12.778   8.160
71594SOL    HW116679   4.413  12.695   8.122
71594SOL    HW216680   4.446  12.843   8.128
71595SOL     OW16681  10.627  14.228  11.381
71595SOL    HW116682  10.629  14.151  11.323
71595SOL    HW216683  10.676  14.295  11.334
71596SOL     OW16684  14.358   0.829   4.265
71596SOL    HW116685  14.311   0.904   4.301
71596SOL    HW216686  14.369   0.770   4.340
71597SOL     OW16687   0.794   3.528  11.114
71597SOL    HW116688   0.718   3.545  11.170
71597SOL    HW216689   0.812   3.612  11.071
71598SOL     OW16690  12.462   1.373   1.844
71598SOL    HW116691  12.522   1.315   1.797
71598SOL    HW216692  12.444   1.444   1.783
71599SOL     OW16693  13.404   0.579   6.185
71599SOL    HW116694  13.434   0.660   6.227
71599SOL    HW216695  13.334   0.547   6.242
71600SOL     OW16696  10.870   5.174   7.074
71600SOL    HW116697  10.818   5.106   7.033
71600SOL    HW216698  10.865   5.248   7.013
71601SOL     OW16699   5.287  12.689   5.387
71601SOL    HW116700   5.336  12.642   5.320
71601SOL    HW216701   5.244  12.620   5.438
71602SOL     OW16702   4.487  14.833   7.447
71602SOL    HW116703   4.460   0.038   7.393
71602SOL    HW216704   4.449  14.851   7.533
71603SOL     OW16705  14.688   0.303   4.499
71603SOL    HW116706  14.700   0.210   4.479
71603SOL    HW216707  14.770   0.329   4.542
71604SOL     OW16708  13.662   5.632   7.494
71604SOL    HW116709  13.700   5.640   7.582
71604SOL    HW216710  13.694   5.709   7.447
71605SOL     OW16711   7.724   4.574   7.816
71605SOL    HW116712   7.647   4.628   7.794
71605SOL    HW216713   7.798   4.635   7.810
71606SOL     OW16714   2.267   2.752   5.516
71606SOL    HW116715   2.185   2.762   5.565
71606SOL    HW216716   2.316   2.686   5.564
71607SOL     OW16717  11.331   0.789   6.281
71607SOL    HW116718  11.327   0.747   6.367
71607SOL    HW216719  11.279   0.733   6.224
71608SOL     OW16720  11.048   8.574   1.284
71608SOL    HW116721  11.117   8.637   1.305
71608SOL    HW216722  11.091   8.489   1.290
71609SOL     OW16723   6.765   9.551   2.920
71609SOL    HW116724   6.820   9.535   2.843
71609SOL    HW216725   6.726   9.466   2.939
71610SOL     OW16726   1.815   6.537  12.750
71610SOL    HW116727   1.892   6.502  12.707
71610SOL    HW216728   1.827   6.515  12.843
71611SOL     OW16729   5.985  14.181  13.542
71611SOL    HW116730   6.065  14.185  13.490
71611SOL    HW216731   6.000  14.241  13.615
71612SOL     OW16732   2.457  12.039   7.169
71612SOL    HW116733   2.483  11.960   7.217
71612SOL    HW216734   2.531  12.098   7.179
71613SOL     OW16735   9.915  11.691   7.227
71613SOL    HW116736   9.890  11.764   7.283
71613SOL    HW216737   9.864  11.703   7.147
71614SOL     OW16738  13.841  11.003   5.681
71614SOL    HW116739  13.861  10.919   5.723
71614SOL    HW216740  13.778  10.981   5.613
71615SOL     OW16741   5.723   5.498  10.891
71615SOL    HW116742   5.767   5.470  10.810
71615SOL    HW216743   5.794   5.529  10.947
71616SOL     OW16744  11.919   3.128   8.992
71616SOL    HW116745  11.939   3.057   9.053
71616SOL    HW216746  11.893   3.201   9.047
71617SOL     OW16747   2.232   9.110   0.648
71617SOL    HW116748   2.157   9.111   0.589
71617SOL    HW216749   2.293   9.174   0.610
71618SOL     OW16750  12.820   9.804   9.308
71618SOL    HW116751  12.791   9.788   9.218
71618SOL    HW216752  12.899   9.857   9.299
71619SOL     OW16753   6.253   6.482  14.585
71619SOL    HW116754   6.250   6.576  14.573
71619SOL    HW216755   6.163   6.457  14.605
71620SOL     OW16756   5.335   2.391   3.519
71620SOL    HW116757   5.356   2.300   3.499
71620SOL    HW216758   5.259   2.385   3.578
71621SOL     OW16759   5.157   5.655  13.522
71621SOL    HW116760   5.079   5.692  13.564
71621SOL    HW216761   5.218   5.729  13.516
71622SOL     OW16762  13.304   7.624  12.932
71622SOL    HW116763  13.238   7.605  12.999
71622SOL    HW216764  13.346   7.539  12.916
71623SOL     OW16765   3.519  13.463   9.228
71623SOL    HW116766   3.591  13.401   9.212
71623SOL    HW216767   3.441  13.417   9.198
71624SOL     OW16768   5.230  12.249   3.705
71624SOL    HW116769   5.185  12.241   3.620
71624SOL    HW216770   5.219  12.340   3.729
71625SOL     OW16771  10.194   0.158  12.675
71625SOL    HW116772  10.213   0.072  12.712
71625SOL    HW216773  10.099   0.157  12.661
71626SOL     OW16774   2.718  13.159   2.435
71626SOL    HW116775   2.769  13.082   2.458
71626SOL    HW216776   2.632  13.145   2.474
71627SOL     OW16777  11.786   6.666   8.250
71627SOL    HW116778  11.824   6.586   8.212
71627SOL    HW216779  11.719   6.692   8.187
71628SOL     OW16780   4.794   2.350   2.758
71628SOL    HW116781   4.706   2.361   2.795
71628SOL    HW216782   4.850   2.332   2.834
71629SOL     OW16783   0.527   4.244  12.675
71629SOL    HW116784   0.492   4.245  12.764
71629SOL    HW216785   0.559   4.333  12.661
71630SOL     OW16786  13.229   9.297  12.581
71630SOL    HW116787  13.181   9.299  12.498
71630SOL    HW216788  13.319   9.319  12.556
71631SOL     OW16789  12.285  11.366  14.435
71631SOL    HW116790  12.194  11.375  14.463
71631SOL    HW216791  12.284  11.389  14.342
71632SOL     OW16792   0.457   7.532   1.341
71632SOL    HW116793   0.529   7.498   1.394
71632SOL    HW216794   0.452   7.625   1.363
71633SOL     OW16795   1.165   9.721   0.019
71633SOL    HW116796   1.134   9.652   0.077
71633SOL    HW216797   1.204   9.786   0.078
71634SOL     OW16798   4.938   5.512  13.249
71634SOL    HW116799   4.942   5.543  13.158
71634SOL    HW216800   4.909   5.588  13.299
71635SOL     OW16801   1.010   3.893   4.327
71635SOL    HW116802   1.096   3.933   4.314
71635SOL    HW216803   1.012   3.814   4.274
71636SOL     OW16804   9.048   9.330  14.768
71636SOL    HW116805   8.968   9.306  14.721
71636SOL    HW216806   9.117   9.277  14.728
71637SOL     OW16807   5.088  13.174   0.439
71637SOL    HW116808   5.037  13.098   0.411
71637SOL    HW216809   5.048  13.200   0.522
71638SOL     OW16810  11.572   2.961   1.434
71638SOL    HW116811  11.478   2.969   1.421
71638SOL    HW216812  11.606   3.050   1.425
71639SOL     OW16813   5.657   2.739   0.698
71639SOL    HW116814   5.663   2.831   0.725
71639SOL    HW216815   5.596   2.740   0.624
71640SOL     OW16816   2.025   6.055   8.902
71640SOL    HW116817   2.037   6.146   8.877
71640SOL    HW216818   2.061   6.005   8.828
71641SOL     OW16819   3.481   0.337   4.077
71641SOL    HW116820   3.466   0.281   4.152
71641SOL    HW216821   3.460   0.282   4.001
71642SOL     OW16822   1.600   9.614   2.996
71642SOL    HW116823   1.648   9.681   3.045
71642SOL    HW216824   1.525   9.592   3.051
71643SOL     OW16825  13.830  13.786  11.127
71643SOL    HW116826  13.782  13.841  11.065
71643SOL    HW216827  13.896  13.742  11.074
71644SOL     OW16828  11.320  14.443   4.020
71644SOL    HW116829  11.296  14.372   4.079
71644SOL    HW216830  11.327  14.401   3.934
71645SOL     OW16831   4.452   6.675   2.159
71645SOL    HW116832   4.435   6.769   2.151
71645SOL    HW216833   4.546   6.669   2.177
71646SOL     OW16834  12.724  14.779  10.047
71646SOL    HW116835  12.645  14.831  10.057
71646SOL    HW216836  12.790  14.823  10.101
71647SOL     OW16837   2.067   3.708  10.390
71647SOL    HW116838   2.053   3.614  10.394
71647SOL    HW216839   2.148   3.723  10.439
71648SOL     OW16840   4.188   0.184   3.941
71648SOL    HW116841   4.275   0.146   3.952
71648SOL    HW216842   4.198   0.246   3.869
71649SOL     OW16843  10.520  13.859  14.200
71649SOL    HW116844  10.579  13.883  14.271
71649SOL    HW216845  10.553  13.774  14.169
71650SOL     OW16846  12.901  13.470   0.320
71650SOL    HW116847  12.936  13.454   0.232
71650SOL    HW216848  12.975  13.506   0.370
71651SOL     OW16849  10.774   5.992  13.606
71651SOL    HW116850  10.724   5.959  13.681
71651SOL    HW216851  10.784   5.916  13.548
71652SOL     OW16852   6.573  14.834   5.016
71652SOL    HW116853   6.544  14.808   5.103
71652SOL    HW216854   6.666  14.855   5.027
71653SOL     OW16855   7.202   6.812   7.815
71653SOL    HW116856   7.259   6.885   7.839
71653SOL    HW216857   7.245   6.773   7.739
71654SOL     OW16858   8.707  11.344   7.666
71654SOL    HW116859   8.638  11.364   7.729
71654SOL    HW216860   8.701  11.250   7.652
71655SOL     OW16861   4.217  11.669   6.001
71655SOL    HW116862   4.197  11.683   5.908
71655SOL    HW216863   4.161  11.595   6.026
71656SOL     OW16864   0.014   7.364  14.071
71656SOL    HW116865   0.032   7.338  14.162
71656SOL    HW216866  14.793   7.394  14.072
71657SOL     OW16867   7.530   2.141   5.586
71657SOL    HW116868   7.441   2.105   5.586
71657SOL    HW216869   7.544   2.169   5.676
71658SOL     OW16870   4.719   7.646   6.888
71658SOL    HW116871   4.694   7.671   6.799
71658SOL    HW216872   4.751   7.727   6.927
71659SOL     OW16873   1.224   3.650   8.690
71659SOL    HW116874   1.306   3.699   8.683
71659SOL    HW216875   1.227   3.610   8.777
71660SOL     OW16876   7.265  14.866  10.308
71660SOL    HW116877   7.183   0.013  10.354
71660SOL    HW216878   7.263  14.772  10.289
71661SOL     OW16879   5.008   1.795  12.616
71661SOL    HW116880   4.936   1.779  12.555
71661SOL    HW216881   5.087   1.782  12.564
71662SOL     OW16882   1.352   4.671   8.901
71662SOL    HW116883   1.382   4.590   8.861
71662SOL    HW216884   1.409   4.683   8.977
71663SOL     OW16885  10.852   7.069   7.901
71663SOL    HW116886  10.921   7.006   7.922
71663SOL    HW216887  10.894   7.155   7.908
71664SOL     OW16888  11.546  13.857   1.297
71664SOL    HW116889  11.514  13.947   1.299
71664SOL    HW216890  11.547  13.829   1.388
71665SOL     OW16891   6.225   4.292   0.171
71665SOL    HW116892   6.300   4.351   0.174
71665SOL    HW216893   6.190   4.302   0.082
71666SOL     OW16894  11.274  14.584  11.219
71666SOL    HW116895  11.196  14.543  11.256
71666SOL    HW216896  11.347  14.531  11.254
71667SOL     OW16897  14.231  10.277   0.776
71667SOL    HW116898  14.241  10.190   0.813
71667SOL    HW216899  14.280  10.334   0.836
71668SOL     OW16900   4.110  11.617   0.437
71668SOL    HW116901   4.140  11.677   0.505
71668SOL    HW216902   4.154  11.647   0.357
71669SOL     OW16903   0.671  12.787  13.060
71669SOL    HW116904   0.663  12.841  13.138
71669SOL    HW216905   0.760  12.752  13.064
71670SOL     OW16906  14.071   9.820   5.481
71670SOL    HW116907  14.116   9.807   5.397
71670SOL    HW216908  14.128   9.779   5.546
71671SOL     OW16909  10.298   3.854   6.906
71671SOL    HW116910  10.271   3.891   6.991
71671SOL    HW216911  10.371   3.796   6.927
71672SOL     OW16912  10.556   5.660  14.245
71672SOL    HW116913  10.551   5.742  14.195
71672SOL    HW216914  10.516   5.682  14.329
71673SOL     OW16915   7.074   2.081  10.221
71673SOL    HW116916   7.146   2.024  10.250
71673SOL    HW216917   7.020   2.092  10.299
71674SOL     OW16918   3.276  10.933   5.805
71674SOL    HW116919   3.369  10.909   5.814
71674SOL    HW216920   3.267  10.958   5.713
71675SOL     OW16921   6.462   4.662   6.962
71675SOL    HW116922   6.436   4.716   7.036
71675SOL    HW216923   6.463   4.722   6.887
71676SOL     OW16924   8.521   3.698  13.004
71676SOL    HW116925   8.556   3.749  12.931
71676SOL    HW216926   8.586   3.630  13.020
71677SOL     OW16927   3.571  13.154   6.047
71677SOL    HW116928   3.535  13.215   6.111
71677SOL    HW216929   3.504  13.086   6.039
71678SOL     OW16930   8.983   0.863  13.721
71678SOL    HW116931   9.064   0.834  13.763
71678SOL    HW216932   8.983   0.818  13.636
71679SOL     OW16933   0.471   2.782  10.425
71679SOL    HW116934   0.501   2.860  10.472
71679SOL    HW216935   0.380   2.802  10.401
71680SOL     OW16936   4.234  13.636  11.892
71680SOL    HW116937   4.295  13.647  11.820
71680SOL    HW216938   4.284  13.589  11.959
71681SOL     OW16939   4.925   2.859   5.244
71681SOL    HW116940   4.850   2.806   5.271
71681SOL    HW216941   4.981   2.862   5.322
71682SOL     OW16942  11.783   0.771  10.824
71682SOL    HW116943  11.705   0.810  10.863
71682SOL    HW216944  11.836   0.845  10.795
71683SOL     OW16945  14.773   0.054   4.379
71683SOL    HW116946  14.830  14.847   4.372
71683SOL    HW216947  14.693   0.021   4.419
71684SOL     OW16948  12.222   7.393   4.922
71684SOL    HW116949  12.316   7.387   4.937
71684SOL    HW216950  12.212   7.386   4.827
71685SOL     OW16951  11.594  13.458   3.564
71685SOL    HW116952  11.655  13.460   3.638
71685SOL    HW216953  11.620  13.379   3.515
71686SOL     OW16954  13.388   9.863  12.696
71686SOL    HW116955  13.302   9.836  12.662
71686SOL    HW216956  13.386   9.959  12.693
71687SOL     OW16957  11.860   6.512   6.006
71687SOL    HW116958  11.879   6.439   5.947
71687SOL    HW216959  11.791   6.479   6.064
71688SOL     OW16960  14.029  11.808   2.089
71688SOL    HW116961  14.117  11.832   2.062
71688SOL    HW216962  13.993  11.758   2.015
71689SOL     OW16963   7.704   4.998  11.898
71689SOL    HW116964   7.737   4.919  11.856
71689SOL    HW216965   7.697   5.063  11.827
71690SOL     OW16966  11.487   8.151   2.420
71690SOL    HW116967  11.393   8.156   2.404
71690SOL    HW216968  11.496   8.164   2.514
71691SOL     OW16969   2.852  10.437   6.658
71691SOL    HW116970   2.771  10.428   6.608
71691SOL    HW216971   2.884  10.525   6.634
71692SOL     OW16972  13.761   1.939   7.976
71692SOL    HW116973  13.679   1.983   8.000
71692SOL    HW216974  13.824   1.967   8.043
71693SOL     OW16975  10.819   9.731  11.376
71693SOL    HW116976  10.774   9.725  11.291
71693SOL    HW216977  10.818   9.641  11.409
71694SOL     OW16978   8.295   2.605   7.459
71694SOL    HW116979   8.262   2.675   7.515
71694SOL    HW216980   8.316   2.649   7.376
71695SOL     OW16981  14.796  10.233   3.857
71695SOL    HW116982  14.774  10.230   3.950
71695SOL    HW216983  14.861  10.164   3.846
71696SOL     OW16984   9.988   9.518   8.827
71696SOL    HW116985   9.988   9.612   8.845
71696SOL    HW216986   9.938   9.479   8.899
71697SOL     OW16987  11.013  10.051  12.475
71697SOL    HW116988  10.933  10.012  12.511
71697SOL    HW216989  11.036  10.120  12.536
71698SOL     OW16990   6.969   9.029   5.537
71698SOL    HW116991   6.969   8.948   5.588
71698SOL    HW216992   6.896   9.019   5.476
71699SOL     OW16993   6.552   5.497  14.036
71699SOL    HW116994   6.481   5.461  13.983
71699SOL    HW216995   6.620   5.430  14.034
71700SOL     OW16996  14.350   0.137   6.231
71700SOL    HW116997  14.336   0.231   6.220
71700SOL    HW216998  14.302   0.097   6.159
71701SOL     OW16999  10.861  14.421   6.581
71701SOL    HW117000  10.837  14.474   6.505
71701SOL    HW217001  10.957  14.418   6.580
71702SOL     OW17002  11.842  12.549  14.426
71702SOL    HW117003  11.795  12.585  14.501
71702SOL    HW217004  11.851  12.455  14.445
71703SOL     OW17005   7.503  10.034   6.977
71703SOL    HW117006   7.565  10.011   6.908
71703SOL    HW217007   7.464   9.950   7.003
71704SOL     OW17008   7.519   6.163   2.277
71704SOL    HW117009   7.614   6.162   2.278
71704SOL    HW217010   7.493   6.117   2.357
71705SOL     OW17011   6.818  10.241  14.754
71705SOL    HW117012   6.772  10.157  14.748
71705SOL    HW217013   6.891  10.224  14.814
71706SOL     OW17014  13.610   9.415   2.738
71706SOL    HW117015  13.671   9.384   2.805
71706SOL    HW217016  13.601   9.341   2.678
71707SOL     OW17017  11.254   1.908   4.489
71707SOL    HW117018  11.199   1.902   4.411
71707SOL    HW217019  11.210   1.972   4.545
71708SOL     OW17020   8.371   7.623   7.693
71708SOL    HW117021   8.284   7.584   7.685
71708SOL    HW217022   8.429   7.560   7.649
71709SOL     OW17023  14.324   0.370  14.654
71709SOL    HW117024  14.323   0.465  14.649
71709SOL    HW217025  14.414   0.348  14.678
71710SOL     OW17026   9.882   9.448  12.651
71710SOL    HW117027   9.872   9.371  12.596
71710SOL    HW217028   9.951   9.499  12.609
71711SOL     OW17029   4.480   7.442   2.134
71711SOL    HW117030   4.426   7.401   2.202
71711SOL    HW217031   4.520   7.517   2.178
71712SOL     OW17032  11.118  12.471   2.043
71712SOL    HW117033  11.155  12.553   2.075
71712SOL    HW217034  11.152  12.404   2.103
71713SOL     OW17035  11.001  12.454   8.302
71713SOL    HW117036  11.015  12.421   8.391
71713SOL    HW217037  11.086  12.444   8.259
71714SOL     OW17038  13.338  11.938   8.738
71714SOL    HW117039  13.352  11.921   8.645
71714SOL    HW217040  13.387  12.019   8.755
71715SOL     OW17041   5.058   3.920   3.897
71715SOL    HW117042   5.032   3.836   3.859
71715SOL    HW217043   4.984   3.946   3.951
71716SOL     OW17044  11.215  14.488  12.910
71716SOL    HW117045  11.277  14.453  12.974
71716SOL    HW217046  11.254  14.570  12.880
71717SOL     OW17047   5.197   1.114   2.318
71717SOL    HW117048   5.216   1.169   2.242
71717SOL    HW217049   5.196   1.025   2.284
71718SOL     OW17050   2.522   2.876  11.713
71718SOL    HW117051   2.498   2.963  11.680
71718SOL    HW217052   2.474   2.867  11.795
71719SOL     OW17053   8.631   9.385   5.795
71719SOL    HW117054   8.646   9.366   5.887
71719SOL    HW217055   8.545   9.346   5.776
71720SOL     OW17056   0.538  12.087   1.151
71720SOL    HW117057   0.489  12.057   1.074
71720SOL    HW217058   0.502  12.174   1.170
71721SOL     OW17059  13.262  13.513  13.963
71721SOL    HW117060  13.299  13.577  14.025
71721SOL    HW217061  13.196  13.562  13.914
71722SOL     OW17062   0.933   4.331   9.927
71722SOL    HW117063   1.014   4.305   9.971
71722SOL    HW217064   0.893   4.249   9.898
71723SOL     OW17065   6.539  14.609   6.940
71723SOL    HW117066   6.535  14.621   6.846
71723SOL    HW217067   6.458  14.563   6.962
71724SOL     OW17068  12.506   3.344  13.800
71724SOL    HW117069  12.442   3.413  13.821
71724SOL    HW217070  12.581   3.362  13.857
71725SOL     OW17071  14.729   3.734   0.023
71725SOL    HW117072  14.782   3.685   0.086
71725SOL    HW217073  14.646   3.748   0.068
71726SOL     OW17074   1.938   7.561  13.393
71726SOL    HW117075   1.868   7.595  13.449
71726SOL    HW217076   1.916   7.592  13.305
71727SOL     OW17077   1.545   4.625  13.516
71727SOL    HW117078   1.455   4.629  13.485
71727SOL    HW217079   1.572   4.534  13.500
71728SOL     OW17080   2.181  11.877  13.061
71728SOL    HW117081   2.140  11.825  12.992
71728SOL    HW217082   2.109  11.929  13.097
71729SOL     OW17083  13.108   3.339   3.254
71729SOL    HW117084  13.102   3.296   3.169
71729SOL    HW217085  13.034   3.306   3.304
71730SOL     OW17086  14.256   0.144   3.524
71730SOL    HW117087  14.210   0.214   3.569
71730SOL    HW217088  14.277   0.180   3.438
71731SOL     OW17089  13.603   5.835   2.756
71731SOL    HW117090  13.604   5.909   2.695
71731SOL    HW217091  13.534   5.777   2.722
71732SOL     OW17092   7.155   2.092  12.839
71732SOL    HW117093   7.238   2.068  12.798
71732SOL    HW217094   7.174   2.090  12.933
71733SOL     OW17095   9.107  10.545   0.453
71733SOL    HW117096   9.103  10.532   0.358
71733SOL    HW217097   9.040  10.487   0.488
71734SOL     OW17098   0.982   5.186   8.750
71734SOL    HW117099   0.913   5.172   8.686
71734SOL    HW217100   1.063   5.169   8.703
71735SOL     OW17101   3.429   7.979  12.852
71735SOL    HW117102   3.409   8.011  12.764
71735SOL    HW217103   3.517   8.012  12.870
71736SOL     OW17104   8.949   7.223  10.822
71736SOL    HW117105   9.036   7.239  10.784
71736SOL    HW217106   8.951   7.268  10.907
71737SOL     OW17107  13.954   9.643  10.657
71737SOL    HW117108  13.872   9.593  10.655
71737SOL    HW217109  13.985   9.640  10.566
71738SOL     OW17110  11.300   2.748   9.466
71738SOL    HW117111  11.368   2.757   9.399
71738SOL    HW217112  11.235   2.691   9.427
71739SOL     OW17113  11.575   0.990   9.052
71739SOL    HW117114  11.523   0.978   8.972
71739SOL    HW217115  11.645   0.925   9.044
71740SOL     OW17116  13.210   0.581  14.546
71740SOL    HW117117  13.133   0.565  14.600
71740SOL    HW217118  13.279   0.602  14.609
71741SOL     OW17119   0.168   4.412   7.369
71741SOL    HW117120   0.130   4.417   7.281
71741SOL    HW217121   0.191   4.320   7.380
71742SOL     OW17122   3.564   4.365  11.956
71742SOL    HW117123   3.548   4.452  11.921
71742SOL    HW217124   3.484   4.344  12.005
71743SOL     OW17125  14.259  12.607   0.840
71743SOL    HW117126  14.175  12.645   0.865
71743SOL    HW217127  14.325  12.666   0.877
71744SOL     OW17128   2.146   1.412  10.602
71744SOL    HW117129   2.225   1.406  10.549
71744SOL    HW217130   2.093   1.337  10.574
71745SOL     OW17131  10.905   9.999  11.635
71745SOL    HW117132  10.914  10.077  11.690
71745SOL    HW217133  10.920  10.031  11.546
71746SOL     OW17134   1.595   6.708   9.503
71746SOL    HW117135   1.501   6.721   9.516
71746SOL    HW217136   1.614   6.622   9.539
71747SOL     OW17137   2.246  10.824   9.549
71747SOL    HW117138   2.274  10.845   9.638
71747SOL    HW217139   2.163  10.871   9.538
71748SOL     OW17140   5.843   9.999  13.521
71748SOL    HW117141   5.924   9.966  13.560
71748SOL    HW217142   5.848   9.971  13.430
71749SOL     OW17143  11.446   0.695   0.017
71749SOL    HW117144  11.370   0.686  14.829
71749SOL    HW217145  11.521   0.702  14.827
71750SOL     OW17146   1.371   3.118   4.518
71750SOL    HW117147   1.284   3.082   4.500
71750SOL    HW217148   1.431   3.057   4.476
71751SOL     OW17149  11.206   8.924   1.930
71751SOL    HW117150  11.201   8.982   1.854
71751SOL    HW217151  11.185   8.981   2.004
71752SOL     OW17152   3.447  14.177   9.633
71752SOL    HW117153   3.534  14.144   9.656
71752SOL    HW217154   3.403  14.190   9.717
71753SOL     OW17155   6.616  11.778   6.411
71753SOL    HW117156   6.636  11.698   6.363
71753SOL    HW217157   6.627  11.848   6.347
71754SOL     OW17158   7.874   2.018   3.020
71754SOL    HW117159   7.867   2.086   2.953
71754SOL    HW217160   7.789   1.974   3.019
71755SOL     OW17161   7.272   4.183   9.423
71755SOL    HW117162   7.334   4.161   9.493
71755SOL    HW217163   7.222   4.257   9.459
71756SOL     OW17164   2.250  13.265   5.844
71756SOL    HW117165   2.230  13.347   5.797
71756SOL    HW217166   2.282  13.206   5.777
71757SOL     OW17167   5.786  10.548   3.855
71757SOL    HW117168   5.775  10.608   3.781
71757SOL    HW217169   5.826  10.470   3.816
71758SOL     OW17170  11.517   0.316   7.765
71758SOL    HW117171  11.568   0.362   7.831
71758SOL    HW217172  11.490   0.384   7.704
71759SOL     OW17173   7.814   9.433  14.603
71759SOL    HW117174   7.778   9.345  14.612
71759SOL    HW217175   7.800   9.455  14.511
71760SOL     OW17176   9.128  11.134   9.875
71760SOL    HW117177   9.092  11.133   9.786
71760SOL    HW217178   9.223  11.138   9.862
71761SOL     OW17179  13.244  13.882   6.542
71761SOL    HW117180  13.281  13.836   6.617
71761SOL    HW217181  13.168  13.928   6.576
71762SOL     OW17182   7.678  13.408  14.459
71762SOL    HW117183   7.599  13.406  14.513
71762SOL    HW217184   7.657  13.471  14.389
71763SOL     OW17185  11.677   8.905   2.550
71763SOL    HW117186  11.600   8.960   2.537
71763SOL    HW217187  11.644   8.815   2.546
71764SOL     OW17188   6.073  13.045   6.844
71764SOL    HW117189   6.038  13.115   6.789
71764SOL    HW217190   6.168  13.057   6.840
71765SOL     OW17191   6.490  13.682   0.330
71765SOL    HW117192   6.491  13.745   0.257
71765SOL    HW217193   6.457  13.733   0.404
71766SOL     OW17194   0.681   5.731  13.319
71766SOL    HW117195   0.647   5.643  13.301
71766SOL    HW217196   0.757   5.739  13.260
71767SOL     OW17197  13.580  13.491   1.624
71767SOL    HW117198  13.563  13.514   1.716
71767SOL    HW217199  13.493  13.469   1.589
71768SOL     OW17200   9.141  12.106   7.740
71768SOL    HW117201   9.229  12.071   7.732
71768SOL    HW217202   9.153  12.198   7.764
71769SOL     OW17203   6.508   9.047   1.764
71769SOL    HW117204   6.570   9.068   1.834
71769SOL    HW217205   6.486   8.955   1.778
71770SOL     OW17206  11.192   7.065   4.837
71770SOL    HW117207  11.252   7.040   4.908
71770SOL    HW217208  11.247   7.114   4.776
71771SOL     OW17209   8.319   6.763   7.734
71771SOL    HW117210   8.405   6.722   7.724
71771SOL    HW217211   8.287   6.773   7.644
71772SOL     OW17212   8.603   2.482   4.342
71772SOL    HW117213   8.572   2.405   4.390
71772SOL    HW217214   8.527   2.541   4.339
71773SOL     OW17215   3.916   2.239   8.187
71773SOL    HW117216   3.997   2.194   8.162
71773SOL    HW217217   3.846   2.186   8.149
71774SOL     OW17218   3.411   0.852   1.145
71774SOL    HW117219   3.503   0.875   1.133
71774SOL    HW217220   3.372   0.863   1.058
71775SOL     OW17221   6.617   0.373  14.619
71775SOL    HW117222   6.579   0.413  14.541
71775SOL    HW217223   6.682   0.436  14.650
71776SOL     OW17224   5.056   5.037   1.592
71776SOL    HW117225   5.041   5.121   1.636
71776SOL    HW217226   5.136   5.003   1.630
71777SOL     OW17227   5.962  10.613   2.237
71777SOL    HW117228   5.988  10.528   2.201
71777SOL    HW217229   6.023  10.676   2.197
71778SOL     OW17230   9.753  11.958   4.249
71778SOL    HW117231   9.813  11.933   4.319
71778SOL    HW217232   9.780  12.046   4.225
71779SOL     OW17233  11.420   9.019  11.184
71779SOL    HW117234  11.380   9.105  11.196
71779SOL    HW217235  11.349   8.964  11.150
71780SOL     OW17236  12.359   8.087  11.403
71780SOL    HW117237  12.309   8.087  11.484
71780SOL    HW217238  12.450   8.100  11.431
71781SOL     OW17239   3.118  12.765   1.295
71781SOL    HW117240   3.162  12.698   1.347
71781SOL    HW217241   3.096  12.721   1.213
71782SOL     OW17242   1.755   9.937  10.359
71782SOL    HW117243   1.721   9.945  10.448
71782SOL    HW217244   1.718  10.011  10.312
71783SOL     OW17245  14.801  13.588   2.005
71783SOL    HW117246  14.852  13.512   1.977
71783SOL    HW217247  14.718  13.579   1.959
71784SOL     OW17248   5.552   9.461   3.223
71784SOL    HW117249   5.474   9.491   3.175
71784SOL    HW217250   5.600   9.408   3.160
71785SOL     OW17251  14.805   4.152   7.356
71785SOL    HW117252  14.869   4.118   7.294
71785SOL    HW217253  14.856   4.170   7.436
71786SOL     OW17254   6.301  13.893  12.987
71786SOL    HW117255   6.293  13.987  13.004
71786SOL    HW217256   6.346  13.887  12.903
71787SOL     OW17257  10.750   1.667   6.236
71787SOL    HW117258  10.818   1.715   6.189
71787SOL    HW217259  10.687   1.641   6.168
71788SOL     OW17260   8.606   2.533  11.319
71788SOL    HW117261   8.539   2.505  11.383
71788SOL    HW217262   8.670   2.462  11.320
71789SOL     OW17263   8.951   3.679  11.424
71789SOL    HW117264   8.879   3.653  11.366
71789SOL    HW217265   9.030   3.661  11.373
71790SOL     OW17266   5.429  10.486   2.099
71790SOL    HW117267   5.477  10.569   2.103
71790SOL    HW217268   5.376  10.494   2.019
71791SOL     OW17269   9.053  12.125   4.669
71791SOL    HW117270   8.966  12.146   4.634
71791SOL    HW217271   9.049  12.031   4.687
71792SOL     OW17272   7.404   6.664   2.197
71792SOL    HW117273   7.376   6.581   2.234
71792SOL    HW217274   7.333   6.688   2.137
71793SOL     OW17275   7.708   4.850   0.286
71793SOL    HW117276   7.758   4.896   0.354
71793SOL    HW217277   7.771   4.792   0.244
71794SOL     OW17278   4.285   8.024   9.068
71794SOL    HW117279   4.275   7.936   9.032
71794SOL    HW217280   4.233   8.024   9.148
71795SOL     OW17281  11.002   9.237   5.131
71795SOL    HW117282  10.920   9.278   5.105
71795SOL    HW217283  10.996   9.229   5.226
71796SOL     OW17284   7.480   0.623   3.346
71796SOL    HW117285   7.566   0.656   3.320
71796SOL    HW217286   7.444   0.582   3.267
71797SOL     OW17287   6.116   3.893   2.706
71797SOL    HW117288   6.104   3.835   2.781
71797SOL    HW217289   6.183   3.955   2.734
71798SOL     OW17290   8.435   0.016  11.883
71798SOL    HW117291   8.352   0.058  11.905
71798SOL    HW217292   8.428  14.798  11.921
71799SOL     OW17293   1.902   0.408   6.106
71799SOL    HW117294   1.933   0.319   6.096
71799SOL    HW217295   1.825   0.401   6.163
71800SOL     OW17296  10.175  10.891   8.374
71800SOL    HW117297  10.168  10.815   8.316
71800SOL    HW217298  10.122  10.958   8.332
71801SOL     OW17299   0.559   6.627   0.623
71801SOL    HW117300   0.537   6.685   0.696
71801SOL    HW217301   0.508   6.661   0.550
71802SOL     OW17302   4.565   5.962   5.633
71802SOL    HW117303   4.638   5.965   5.695
71802SOL    HW217304   4.606   5.967   5.547
71803SOL     OW17305  11.405  11.427   1.853
71803SOL    HW117306  11.368  11.456   1.936
71803SOL    HW217307  11.349  11.467   1.786
71804SOL     OW17308   7.702   2.774   2.435
71804SOL    HW117309   7.670   2.686   2.454
71804SOL    HW217310   7.698   2.780   2.339
71805SOL     OW17311  13.420   1.752   8.992
71805SOL    HW117312  13.490   1.704   9.037
71805SOL    HW217313  13.444   1.844   9.002
71806SOL     OW17314   0.500  14.543   0.382
71806SOL    HW117315   0.488  14.502   0.467
71806SOL    HW217316   0.553  14.481   0.332
71807SOL     OW17317  14.450   6.102   8.772
71807SOL    HW117318  14.407   6.033   8.823
71807SOL    HW217319  14.378   6.148   8.729
71808SOL     OW17320   2.265  13.567   1.992
71808SOL    HW117321   2.204  13.630   1.955
71808SOL    HW217322   2.294  13.607   2.075
71809SOL     OW17323   6.161   4.684   7.153
71809SOL    HW117324   6.146   4.756   7.214
71809SOL    HW217325   6.155   4.724   7.066
71810SOL     OW17326   3.452   6.970   2.453
71810SOL    HW117327   3.523   6.906   2.447
71810SOL    HW217328   3.491   7.045   2.498
71811SOL     OW17329  12.377   8.816   0.200
71811SOL    HW117330  12.382   8.912   0.191
71811SOL    HW217331  12.445   8.783   0.141
71812SOL     OW17332   8.305  13.489   1.521
71812SOL    HW117333   8.319  13.424   1.589
71812SOL    HW217334   8.381  13.546   1.526
71813SOL     OW17335   9.121  11.071   7.437
71813SOL    HW117336   9.216  11.088   7.435
71813SOL    HW217337   9.104  11.040   7.526
71814SOL     OW17338   4.229  11.791  13.096
71814SOL    HW117339   4.241  11.768  13.003
71814SOL    HW217340   4.267  11.878  13.103
71815SOL     OW17341   6.555   3.526  10.996
71815SOL    HW117342   6.543   3.611  11.037
71815SOL    HW217343   6.624   3.484  11.048
71816SOL     OW17344   4.586  11.074   4.280
71816SOL    HW117345   4.586  11.138   4.351
71816SOL    HW217346   4.664  11.020   4.296
71817SOL     OW17347   8.000  14.784   1.228
71817SOL    HW117348   8.024  14.767   1.137
71817SOL    HW217349   7.970   0.006   1.228
71818SOL     OW17350   8.005   2.197  11.743
71818SOL    HW117351   8.048   2.243  11.671
71818SOL    HW217352   7.997   2.106  11.712
71819SOL     OW17353   0.620  11.664  14.418
71819SOL    HW117354   0.666  11.666  14.334
71819SOL    HW217355   0.577  11.578  14.420
71820SOL     OW17356  11.772  10.650  11.463
71820SOL    HW117357  11.754  10.739  11.435
71820SOL    HW217358  11.730  10.594  11.398
71821SOL     OW17359   7.226   4.715   7.950
71821SOL    HW117360   7.312   4.701   7.990
71821SOL    HW217361   7.239   4.787   7.889
71822SOL     OW17362   9.709  11.512   5.311
71822SOL    HW117363   9.695  11.427   5.352
71822SOL    HW217364   9.794  11.541   5.343
71823SOL     OW17365   0.693  11.299   0.113
71823SOL    HW117366   0.682  11.219   0.165
71823SOL    HW217367   0.612  11.306   0.062
71824SOL     OW17368   1.000   9.252   7.479
71824SOL    HW117369   0.913   9.233   7.513
71824SOL    HW217370   1.052   9.272   7.556
71825SOL     OW17371  10.873   4.850  13.947
71825SOL    HW117372  10.830   4.815  14.025
71825SOL    HW217373  10.950   4.897  13.982
71826SOL     OW17374  14.117   4.360   8.988
71826SOL    HW117375  14.084   4.401   8.908
71826SOL    HW217376  14.109   4.266   8.972
71827SOL     OW17377   7.492   0.470  11.534
71827SOL    HW117378   7.506   0.565  11.542
71827SOL    HW217379   7.450   0.445  11.616
71828SOL     OW17380  13.691   3.945  11.644
71828SOL    HW117381  13.670   4.003  11.718
71828SOL    HW217382  13.748   3.998  11.589
71829SOL     OW17383   7.506  14.266   4.014
71829SOL    HW117384   7.458  14.313   3.946
71829SOL    HW217385   7.514  14.329   4.085
71830SOL     OW17386  11.281   7.067   2.130
71830SOL    HW117387  11.253   6.984   2.170
71830SOL    HW217388  11.339   7.106   2.194
71831SOL     OW17389   5.128   8.665   7.696
71831SOL    HW117390   5.197   8.614   7.655
71831SOL    HW217391   5.174   8.729   7.751
71832SOL     OW17392   8.093   5.703   1.461
71832SOL    HW117393   8.182   5.673   1.443
71832SOL    HW217394   8.043   5.622   1.476
71833SOL     OW17395   5.545  11.034   8.518
71833SOL    HW117396   5.479  11.103   8.502
71833SOL    HW217397   5.573  11.007   8.431
71834SOL     OW17398  10.417   2.427  12.253
71834SOL    HW117399  10.415   2.454  12.161
71834SOL    HW217400  10.372   2.497  12.300
71835SOL     OW17401   6.783   2.032   9.698
71835SOL    HW117402   6.776   1.938   9.681
71835SOL    HW217403   6.797   2.070   9.611
71836SOL     OW17404   0.846  10.285   4.153
71836SOL    HW117405   0.905  10.332   4.094
71836SOL    HW217406   0.820  10.208   4.105
71837SOL     OW17407   0.589   2.869   6.217
71837SOL    HW117408   0.560   2.858   6.126
71837SOL    HW217409   0.520   2.921   6.258
71838SOL     OW17410   3.872   9.524   6.306
71838SOL    HW117411   3.796   9.470   6.288
71838SOL    HW217412   3.923   9.474   6.370
71839SOL     OW17413   4.917   5.069   4.788
71839SOL    HW117414   5.005   5.063   4.825
71839SOL    HW217415   4.859   5.064   4.864
71840SOL     OW17416  13.658   6.491   3.690
71840SOL    HW117417  13.567   6.461   3.695
71840SOL    HW217418  13.709   6.410   3.677
71841SOL     OW17419  12.175  13.441  14.384
71841SOL    HW117420  12.244  13.495  14.422
71841SOL    HW217421  12.221  13.363  14.352
71842SOL     OW17422   2.258   6.256   6.079
71842SOL    HW117423   2.299   6.216   6.155
71842SOL    HW217424   2.219   6.337   6.113
71843SOL     OW17425   5.165   4.574   3.527
71843SOL    HW117426   5.204   4.661   3.521
71843SOL    HW217427   5.134   4.556   3.438
71844SOL     OW17428   7.157  10.440  14.665
71844SOL    HW117429   7.119  10.465  14.750
71844SOL    HW217430   7.191  10.352  14.680
71845SOL     OW17431  11.793   0.092  11.709
71845SOL    HW117432  11.814   0.183  11.690
71845SOL    HW217433  11.784   0.089  11.805
71846SOL     OW17434  10.872  10.747   9.725
71846SOL    HW117435  10.888  10.779   9.637
71846SOL    HW217436  10.950  10.697   9.748
71847SOL     OW17437   7.993  14.584   5.628
71847SOL    HW117438   8.068  14.628   5.667
71847SOL    HW217439   7.986  14.501   5.676
71848SOL     OW17440  11.201   0.883   0.720
71848SOL    HW117441  11.266   0.812   0.719
71848SOL    HW217442  11.253   0.962   0.730
71849SOL     OW17443   1.221   3.514   1.219
71849SOL    HW117444   1.184   3.524   1.306
71849SOL    HW217445   1.165   3.568   1.163
71850SOL     OW17446  14.420   2.935   1.699
71850SOL    HW117447  14.514   2.949   1.691
71850SOL    HW217448  14.404   2.931   1.793
71851SOL     OW17449   3.376   3.531   2.401
71851SOL    HW117450   3.355   3.466   2.468
71851SOL    HW217451   3.299   3.588   2.398
71852SOL     OW17452   4.940   3.529   0.388
71852SOL    HW117453   4.880   3.604   0.393
71852SOL    HW217454   4.890   3.461   0.344
71853SOL     OW17455   7.548   6.504   8.946
71853SOL    HW117456   7.467   6.525   8.900
71853SOL    HW217457   7.607   6.577   8.927
71854SOL     OW17458   4.602   9.255  14.815
71854SOL    HW117459   4.578   9.280  14.726
71854SOL    HW217460   4.601   9.159  14.815
71855SOL     OW17461  10.876  11.455  10.545
71855SOL    HW117462  10.825  11.452  10.626
71855SOL    HW217463  10.818  11.418  10.478
71856SOL     OW17464  11.618   0.458   9.508
71856SOL    HW117465  11.635   0.475   9.415
71856SOL    HW217466  11.524   0.442   9.512
71857SOL     OW17467   7.565  10.069   5.619
71857SOL    HW117468   7.600  10.011   5.552
71857SOL    HW217469   7.515  10.135   5.570
71858SOL     OW17470   4.677  13.138   1.554
71858SOL    HW117471   4.735  13.211   1.533
71858SOL    HW217472   4.609  13.178   1.608
71859SOL     OW17473  10.197   8.266   2.417
71859SOL    HW117474  10.281   8.276   2.373
71859SOL    HW217475  10.179   8.352   2.455
71860SOL     OW17476   5.844   7.744   9.273
71860SOL    HW117477   5.820   7.762   9.363
71860SOL    HW217478   5.880   7.655   9.275
71861SOL     OW17479   8.986   2.327   9.090
71861SOL    HW117480   9.036   2.409   9.099
71861SOL    HW217481   9.014   2.273   9.164
71862SOL     OW17482  11.415   8.412  11.147
71862SOL    HW117483  11.508   8.398  11.125
71862SOL    HW217484  11.372   8.421  11.062
71863SOL     OW17485   8.916   4.473   3.708
71863SOL    HW117486   8.874   4.420   3.776
71863SOL    HW217487   8.868   4.556   3.710
71864SOL     OW17488   2.274  10.430   5.534
71864SOL    HW117489   2.290  10.382   5.614
71864SOL    HW217490   2.236  10.513   5.563
71865SOL     OW17491   6.163   9.263  13.737
71865SOL    HW117492   6.117   9.201  13.680
71865SOL    HW217493   6.186   9.212  13.814
71866SOL     OW17494  12.560  14.074  14.776
71866SOL    HW117495  12.558  13.995  14.721
71866SOL    HW217496  12.469  14.103  14.778
71867SOL     OW17497   6.359   0.405   3.361
71867SOL    HW117498   6.329   0.356   3.284
71867SOL    HW217499   6.278   0.437   3.402
71868SOL     OW17500  13.018  12.542  11.310
71868SOL    HW117501  12.935  12.582  11.336
71868SOL    HW217502  13.019  12.458  11.356
71869SOL     OW17503   8.491   7.892  10.706
71869SOL    HW117504   8.467   7.800  10.719
71869SOL    HW217505   8.581   7.889  10.676
71870SOL     OW17506   9.525   0.734   7.057
71870SOL    HW117507   9.545   0.652   7.013
71870SOL    HW217508   9.493   0.709   7.143
71871SOL     OW17509   7.145   0.839  11.941
71871SOL    HW117510   7.081   0.903  11.910
71871SOL    HW217511   7.094   0.773  11.988
71872SOL     OW17512   8.577   0.970   3.320
71872SOL    HW117513   8.654   0.948   3.268
71872SOL    HW217514   8.594   0.931   3.406
71873SOL     OW17515   5.254  12.300   4.471
71873SOL    HW117516   5.228  12.392   4.464
71873SOL    HW217517   5.294  12.280   4.386
71874SOL     OW17518   3.924  13.825  14.550
71874SOL    HW117519   3.884  13.912  14.551
71874SOL    HW217520   4.014  13.841  14.520
71875SOL     OW17521   3.334   0.796  10.021
71875SOL    HW117522   3.346   0.721  10.079
71875SOL    HW217523   3.305   0.866  10.079
71876SOL     OW17524   6.628   1.486   1.723
71876SOL    HW117525   6.621   1.408   1.779
71876SOL    HW217526   6.538   1.513   1.709
71877SOL     OW17527  13.926   7.412   4.237
71877SOL    HW117528  13.947   7.503   4.220
71877SOL    HW217529  13.970   7.392   4.319
71878SOL     OW17530   2.092   8.392  14.429
71878SOL    HW117531   2.167   8.341  14.397
71878SOL    HW217532   2.026   8.325  14.450
71879SOL     OW17533   4.710   9.097   0.330
71879SOL    HW117534   4.744   9.071   0.244
71879SOL    HW217535   4.616   9.106   0.317
71880SOL     OW17536  11.175   3.617   1.666
71880SOL    HW117537  11.262   3.652   1.648
71880SOL    HW217538  11.125   3.633   1.585
71881SOL     OW17539   0.480  10.324   0.428
71881SOL    HW117540   0.553  10.353   0.373
71881SOL    HW217541   0.436  10.405   0.452
71882SOL     OW17542   9.859   3.795   1.196
71882SOL    HW117543   9.869   3.705   1.167
71882SOL    HW217544   9.765   3.804   1.215
71883SOL     OW17545   5.742   7.599   2.435
71883SOL    HW117546   5.832   7.629   2.442
71883SOL    HW217547   5.746   7.525   2.374
71884SOL     OW17548   7.735  12.925   9.935
71884SOL    HW117549   7.692  12.844   9.909
71884SOL    HW217550   7.671  12.994   9.916
71885SOL     OW17551   8.064   7.934   3.790
71885SOL    HW117552   7.971   7.954   3.800
71885SOL    HW217553   8.078   7.856   3.844
71886SOL     OW17554  11.996  12.633   1.856
71886SOL    HW117555  11.935  12.666   1.922
71886SOL    HW217556  11.995  12.538   1.869
71887SOL     OW17557   7.871   8.077   1.840
71887SOL    HW117558   7.861   7.982   1.835
71887SOL    HW217559   7.903   8.094   1.928
71888SOL     OW17560   4.320   2.256   3.220
71888SOL    HW117561   4.322   2.236   3.314
71888SOL    HW217562   4.402   2.220   3.186
71889SOL     OW17563  11.956  11.363  13.416
71889SOL    HW117564  11.961  11.268  13.419
71889SOL    HW217565  12.042  11.391  13.386
71890SOL     OW17566   3.836  12.819   6.776
71890SOL    HW117567   3.768  12.846   6.714
71890SOL    HW217568   3.881  12.746   6.733
71891SOL     OW17569   6.650   8.448  13.719
71891SOL    HW117570   6.558   8.474  13.719
71891SOL    HW217571   6.696   8.522  13.678
71892SOL     OW17572   6.622   6.371  10.934
71892SOL    HW117573   6.637   6.368  10.840
71892SOL    HW217574   6.648   6.284  10.965
71893SOL     OW17575  10.914   7.478   5.857
71893SOL    HW117576  10.864   7.551   5.821
71893SOL    HW217577  10.944   7.429   5.780
71894SOL     OW17578   3.335   0.913  13.265
71894SOL    HW117579   3.361   0.922  13.173
71894SOL    HW217580   3.314   1.002  13.293
71895SOL     OW17581   6.106   3.576   0.557
71895SOL    HW117582   6.020   3.615   0.541
71895SOL    HW217583   6.168   3.633   0.510
71896SOL     OW17584  13.224   9.223   2.867
71896SOL    HW117585  13.187   9.310   2.853
71896SOL    HW217586  13.311   9.240   2.903
71897SOL     OW17587  14.318   8.269  11.259
71897SOL    HW117588  14.383   8.216  11.212
71897SOL    HW217589  14.248   8.207  11.280
71898SOL     OW17590   6.310   7.305   2.814
71898SOL    HW117591   6.377   7.372   2.801
71898SOL    HW217592   6.231   7.354   2.835
71899SOL     OW17593   0.324   3.479   5.412
71899SOL    HW117594   0.264   3.535   5.363
71899SOL    HW217595   0.267   3.415   5.455
71900SOL     OW17596   7.583   8.897  10.605
71900SOL    HW117597   7.605   8.953  10.680
71900SOL    HW217598   7.600   8.952  10.528
71901SOL     OW17599   0.649  13.106  11.955
71901SOL    HW117600   0.728  13.066  11.916
71901SOL    HW217601   0.631  13.053  12.032
71902SOL     OW17602  13.175   1.969   6.267
71902SOL    HW117603  13.195   1.963   6.361
71902SOL    HW217604  13.257   1.945   6.223
71903SOL     OW17605  14.598  10.468  12.204
71903SOL    HW117606  14.576  10.440  12.116
71903SOL    HW217607  14.630  10.389  12.248
71904SOL     OW17608   0.598  11.856   2.764
71904SOL    HW117609   0.547  11.776   2.751
71904SOL    HW217610   0.684  11.835   2.727
71905SOL     OW17611  14.076   4.101   3.933
71905SOL    HW117612  14.003   4.043   3.952
71905SOL    HW217613  14.063   4.176   3.991
71906SOL     OW17614   7.792   7.372   9.454
71906SOL    HW117615   7.795   7.283   9.418
71906SOL    HW217616   7.699   7.389   9.468
71907SOL     OW17617   8.270   8.548   9.063
71907SOL    HW117618   8.251   8.481   8.998
71907SOL    HW217619   8.208   8.618   9.045
71908SOL     OW17620   7.746   9.326   8.980
71908SOL    HW117621   7.793   9.409   8.969
71908SOL    HW217622   7.792   9.264   8.924
71909SOL     OW17623  12.295   8.394   0.311
71909SOL    HW117624  12.349   8.352   0.378
71909SOL    HW217625  12.346   8.386   0.231
71910SOL     OW17626   4.538   3.875  10.754
71910SOL    HW117627   4.465   3.814  10.765
71910SOL    HW217628   4.613   3.829  10.792
71911SOL     OW17629  10.996   9.771  11.738
71911SOL    HW117630  10.985   9.856  11.695
71911SOL    HW217631  10.993   9.791  11.832
71912SOL     OW17632   6.310  13.353   9.684
71912SOL    HW117633   6.237  13.407   9.655
71912SOL    HW217634   6.278  13.308   9.762
71913SOL     OW17635  11.084   4.621   5.276
71913SOL    HW117636  11.082   4.607   5.181
71913SOL    HW217637  11.164   4.578   5.305
71914SOL     OW17638  10.713  12.018  10.964
71914SOL    HW117639  10.784  12.021  11.028
71914SOL    HW217640  10.724  11.934  10.920
71915SOL     OW17641   8.191   2.957   9.811
71915SOL    HW117642   8.196   3.053   9.814
71915SOL    HW217643   8.233   2.928   9.892
71916SOL     OW17644  13.257  13.574   2.547
71916SOL    HW117645  13.190  13.555   2.481
71916SOL    HW217646  13.243  13.665   2.571
71917SOL     OW17647   7.732  13.007   1.519
71917SOL    HW117648   7.728  13.103   1.519
71917SOL    HW217649   7.652  12.980   1.473
71918SOL     OW17650  13.783  10.607   8.967
71918SOL    HW117651  13.856  10.545   8.972
71918SOL    HW217652  13.711  10.563   9.012
71919SOL     OW17653  10.965   3.683   0.041
71919SOL    HW117654  11.017   3.608   0.070
71919SOL    HW217655  11.027   3.739  14.863
71920SOL     OW17656   9.568   8.317  13.282
71920SOL    HW117657   9.543   8.225  13.272
71920SOL    HW217658   9.487   8.366  13.266
71921SOL     OW17659  13.682  14.686   5.775
71921SOL    HW117660  13.657  14.602   5.815
71921SOL    HW217661  13.748  14.722   5.834
71922SOL     OW17662  10.255   1.124   6.571
71922SOL    HW117663  10.289   1.059   6.509
71922SOL    HW217664  10.325   1.188   6.580
71923SOL     OW17665  12.169  10.258  10.739
71923SOL    HW117666  12.221  10.337  10.725
71923SOL    HW217667  12.233  10.189  10.757
71924SOL     OW17668  11.944   2.346  10.593
71924SOL    HW117669  12.004   2.348  10.518
71924SOL    HW217670  12.000   2.325  10.668
71925SOL     OW17671   6.255   2.512   7.357
71925SOL    HW117672   6.253   2.502   7.262
71925SOL    HW217673   6.230   2.426   7.391
71926SOL     OW17674   0.726   7.531  13.622
71926SOL    HW117675   0.678   7.489  13.551
71926SOL    HW217676   0.676   7.510  13.701
71927SOL     OW17677   5.438   4.618  13.426
71927SOL    HW117678   5.355   4.580  13.455
71927SOL    HW217679   5.504   4.558  13.458
71928SOL     OW17680   7.099   1.030  12.724
71928SOL    HW117681   7.127   1.057  12.636
71928SOL    HW217682   7.078   1.113  12.768
71929SOL     OW17683   1.693   9.105  14.377
71929SOL    HW117684   1.758   9.123  14.445
71929SOL    HW217685   1.739   9.047  14.316
71930SOL     OW17686   1.746  13.696  11.592
71930SOL    HW117687   1.666  13.649  11.616
71930SOL    HW217688   1.817  13.635  11.612
71931SOL     OW17689   1.349  12.837   7.318
71931SOL    HW117690   1.313  12.878   7.397
71931SOL    HW217691   1.439  12.870   7.314
71932SOL     OW17692  11.380   7.254   4.338
71932SOL    HW117693  11.406   7.183   4.279
71932SOL    HW217694  11.362   7.328   4.280
71933SOL     OW17695  11.857  13.269   5.100
71933SOL    HW117696  11.817  13.350   5.129
71933SOL    HW217697  11.928  13.254   5.162
71934SOL     OW17698   5.892  13.246  12.005
71934SOL    HW117699   5.975  13.225  11.961
71934SOL    HW217700   5.874  13.337  11.979
71935SOL     OW17701   6.609   7.416   0.440
71935SOL    HW117702   6.645   7.501   0.419
71935SOL    HW217703   6.523   7.435   0.479
71936SOL     OW17704   0.479   3.647   8.494
71936SOL    HW117705   0.447   3.736   8.508
71936SOL    HW217706   0.432   3.615   8.417
71937SOL     OW17707  11.743   1.250   5.431
71937SOL    HW117708  11.793   1.260   5.511
71937SOL    HW217709  11.709   1.160   5.434
71938SOL     OW17710   3.630  12.529  11.122
71938SOL    HW117711   3.611  12.483  11.040
71938SOL    HW217712   3.644  12.460  11.186
71939SOL     OW17713  14.718  10.373  10.797
71939SOL    HW117714  14.643  10.314  10.791
71939SOL    HW217715  14.772  10.336  10.867
71940SOL     OW17716  13.107   8.401   4.407
71940SOL    HW117717  13.143   8.444   4.484
71940SOL    HW217718  13.158   8.437   4.334
71941SOL     OW17719   1.228  12.230   0.208
71941SOL    HW117720   1.295  12.216   0.142
71941SOL    HW217721   1.224  12.325   0.219
71942SOL     OW17722   0.207   3.876   9.453
71942SOL    HW117723   0.238   3.832   9.373
71942SOL    HW217724   0.140   3.817   9.488
71943SOL     OW17725   7.285   7.498  14.803
71943SOL    HW117726   7.326   7.486  14.718
71943SOL    HW217727   7.355   7.486  14.867
71944SOL     OW17728   0.085   3.863  11.080
71944SOL    HW117729   0.078   3.778  11.124
71944SOL    HW217730   0.011   3.914  11.114
71945SOL     OW17731   0.650   5.529   0.331
71945SOL    HW117732   0.607   5.477   0.263
71945SOL    HW217733   0.741   5.536   0.302
71946SOL     OW17734   3.118   4.973   0.287
71946SOL    HW117735   3.039   5.018   0.317
71946SOL    HW217736   3.124   4.895   0.342
71947SOL     OW17737  10.161  14.038   2.520
71947SOL    HW117738  10.128  13.958   2.560
71947SOL    HW217739  10.135  14.032   2.428
71948SOL     OW17740  11.733   5.108   0.581
71948SOL    HW117741  11.785   5.186   0.562
71948SOL    HW217742  11.788   5.035   0.553
71949SOL     OW17743   8.315   0.496   3.372
71949SOL    HW117744   8.344   0.536   3.290
71949SOL    HW217745   8.375   0.530   3.438
71950SOL     OW17746   4.651  10.807   6.057
71950SOL    HW117747   4.565  10.823   6.095
71950SOL    HW217748   4.693  10.746   6.118
71951SOL     OW17749   4.911   7.571  12.079
71951SOL    HW117750   4.886   7.480  12.065
71951SOL    HW217751   4.993   7.566  12.128
71952SOL     OW17752   8.506   5.115   2.038
71952SOL    HW117753   8.484   5.023   2.026
71952SOL    HW217754   8.504   5.128   2.132
71953SOL     OW17755  14.092   4.394   1.975
71953SOL    HW117756  14.143   4.412   1.896
71953SOL    HW217757  14.042   4.475   1.990
71954SOL     OW17758   0.946   9.873  12.892
71954SOL    HW117759   0.979   9.795  12.847
71954SOL    HW217760   0.957   9.943  12.828
71955SOL     OW17761   5.275   7.175   4.909
71955SOL    HW117762   5.361   7.173   4.869
71955SOL    HW217763   5.225   7.107   4.864
71956SOL     OW17764   8.395  13.473   2.043
71956SOL    HW117765   8.490  13.478   2.054
71956SOL    HW217766   8.363  13.559   2.072
71957SOL     OW17767   1.700  10.317   8.144
71957SOL    HW117768   1.667  10.228   8.154
71957SOL    HW217769   1.710  10.329   8.049
71958SOL     OW17770   0.615  14.634   1.219
71958SOL    HW117771   0.526  14.614   1.247
71958SOL    HW217772   0.604  14.680   1.136
71959SOL     OW17773  13.788  12.159   0.826
71959SOL    HW117774  13.835  12.227   0.776
71959SOL    HW217775  13.696  12.177   0.808
71960SOL     OW17776   6.285   4.258   6.125
71960SOL    HW117777   6.290   4.198   6.200
71960SOL    HW217778   6.369   4.249   6.082
71961SOL     OW17779  10.615  11.454  13.764
71961SOL    HW117780  10.626  11.396  13.839
71961SOL    HW217781  10.595  11.540  13.802
71962SOL     OW17782  10.588   6.341   9.712
71962SOL    HW117783  10.498   6.344   9.681
71962SOL    HW217784  10.586   6.385   9.798
71963SOL     OW17785   6.777   7.808   9.899
71963SOL    HW117786   6.809   7.732   9.948
71963SOL    HW217787   6.846   7.874   9.908
71964SOL     OW17788   8.898   8.143   2.749
71964SOL    HW117789   8.894   8.182   2.836
71964SOL    HW217790   8.931   8.054   2.765
71965SOL     OW17791  13.150   0.927   1.062
71965SOL    HW117792  13.106   0.893   0.984
71965SOL    HW217793  13.242   0.903   1.049
71966SOL     OW17794  12.965  12.852   4.771
71966SOL    HW117795  13.040  12.857   4.831
71966SOL    HW217796  12.963  12.761   4.742
71967SOL     OW17797   2.706  10.728   3.847
71967SOL    HW117798   2.658  10.679   3.914
71967SOL    HW217799   2.760  10.790   3.896
71968SOL     OW17800  10.782  10.278  14.662
71968SOL    HW117801  10.769  10.192  14.621
71968SOL    HW217802  10.699  10.324  14.647
71969SOL     OW17803   0.364   2.932  12.879
71969SOL    HW117804   0.351   3.027  12.878
71969SOL    HW217805   0.366   2.909  12.972
71970SOL     OW17806  10.999   7.635   1.895
71970SOL    HW117807  10.907   7.659   1.906
71970SOL    HW217808  11.016   7.647   1.802
71971SOL     OW17809  13.119   3.858  10.636
71971SOL    HW117810  13.094   3.779  10.588
71971SOL    HW217811  13.068   3.854  10.717
71972SOL     OW17812   7.434  13.038   6.359
71972SOL    HW117813   7.487  13.114   6.335
71972SOL    HW217814   7.485  12.994   6.427
71973SOL     OW17815  11.095  10.435   3.840
71973SOL    HW117816  11.035  10.509   3.832
71973SOL    HW217817  11.071  10.394   3.923
71974SOL     OW17818   5.492   5.127   6.683
71974SOL    HW117819   5.430   5.177   6.630
71974SOL    HW217820   5.507   5.181   6.760
71975SOL     OW17821   7.126   7.898  11.677
71975SOL    HW117822   7.102   7.947  11.599
71975SOL    HW217823   7.222   7.894  11.675
71976SOL     OW17824  14.202   4.746  13.407
71976SOL    HW117825  14.191   4.737  13.501
71976SOL    HW217826  14.113   4.759  13.373
71977SOL     OW17827   8.298   1.070   9.251
71977SOL    HW117828   8.363   1.065   9.181
71977SOL    HW217829   8.348   1.057   9.331
71978SOL     OW17830  11.073  13.180  13.821
71978SOL    HW117831  11.134  13.145  13.885
71978SOL    HW217832  10.999  13.214  13.872
71979SOL     OW17833  13.031   1.687  11.383
71979SOL    HW117834  13.082   1.766  11.401
71979SOL    HW217835  12.940   1.715  11.391
71980SOL     OW17836  13.205   8.997  10.624
71980SOL    HW117837  13.224   8.913  10.583
71980SOL    HW217838  13.267   9.004  10.697
71981SOL     OW17839   9.013  12.597   2.533
71981SOL    HW117840   9.102  12.567   2.517
71981SOL    HW217841   8.993  12.655   2.460
71982SOL     OW17842   2.910  10.154  11.914
71982SOL    HW117843   2.848  10.160  11.987
71982SOL    HW217844   2.887  10.228  11.858
71983SOL     OW17845  13.828   3.586   7.394
71983SOL    HW117846  13.856   3.592   7.302
71983SOL    HW217847  13.732   3.584   7.389
71984SOL     OW17848  13.283   5.208   9.471
71984SOL    HW117849  13.252   5.164   9.392
71984SOL    HW217850  13.219   5.186   9.538
71985SOL     OW17851   1.732  14.506   7.968
71985SOL    HW117852   1.683  14.555   8.034
71985SOL    HW217853   1.818  14.548   7.967
71986SOL     OW17854   3.563  10.845   2.165
71986SOL    HW117855   3.542  10.827   2.073
71986SOL    HW217856   3.494  10.903   2.194
71987SOL     OW17857   2.332  12.141  13.002
71987SOL    HW117858   2.412  12.095  13.029
71987SOL    HW217859   2.264  12.074  13.004
71988SOL     OW17860   0.256   2.862  13.428
71988SOL    HW117861   0.269   2.951  13.394
71988SOL    HW217862   0.317   2.856  13.502
71989SOL     OW17863  12.884  11.561   5.564
71989SOL    HW117864  12.869  11.483   5.617
71989SOL    HW217865  12.925  11.528   5.483
71990SOL     OW17866  12.077   3.410   5.692
71990SOL    HW117867  12.110   3.339   5.748
71990SOL    HW217868  12.103   3.385   5.603
71991SOL     OW17869   8.886   9.349  14.494
71991SOL    HW117870   8.829   9.355  14.417
71991SOL    HW217871   8.877   9.434  14.537
71992SOL     OW17872   0.497   0.666   9.667
71992SOL    HW117873   0.527   0.579   9.641
71992SOL    HW217874   0.571   0.724   9.648
71993SOL     OW17875  13.695  11.297  11.684
71993SOL    HW117876  13.733  11.361  11.745
71993SOL    HW217877  13.700  11.340  11.598
71994SOL     OW17878  11.995   4.669   9.467
71994SOL    HW117879  12.036   4.725   9.400
71994SOL    HW217880  11.972   4.730   9.537
71995SOL     OW17881   8.384   3.573   6.574
71995SOL    HW117882   8.392   3.612   6.487
71995SOL    HW217883   8.395   3.647   6.634
71996SOL     OW17884   0.928  12.871  13.184
71996SOL    HW117885   1.017  12.872  13.219
71996SOL    HW217886   0.940  12.868  13.089
71997SOL     OW17887   5.788  11.851  12.057
71997SOL    HW117888   5.835  11.840  11.974
71997SOL    HW217889   5.757  11.942  12.055
71998SOL     OW17890   5.506   5.041   0.336
71998SOL    HW117891   5.524   4.967   0.393
71998SOL    HW217892   5.580   5.045   0.276
71999SOL     OW17893   3.364   0.985  12.201
71999SOL    HW117894   3.278   1.004  12.240
71999SOL    HW217895   3.350   0.994  12.107
72000SOL     OW17896   8.477   7.597  10.776
72000SOL    HW117897   8.552   7.571  10.830
72000SOL    HW217898   8.506   7.580  10.686
72001SOL     OW17899   9.563   9.312   3.653
72001SOL    HW117900   9.500   9.285   3.720
72001SOL    HW217901   9.647   9.314   3.699
72002SOL     OW17902   7.107  12.735   0.276
72002SOL    HW117903   7.016  12.726   0.247
72002SOL    HW217904   7.102  12.791   0.353
72003SOL     OW17905  11.336   6.295   6.910
72003SOL    HW117906  11.360   6.205   6.886
72003SOL    HW217907  11.308   6.289   7.001
72004SOL     OW17908   5.513   3.266   1.566
72004SOL    HW117909   5.485   3.276   1.657
72004SOL    HW217910   5.543   3.354   1.541
72005SOL     OW17911   5.309   1.626   3.816
72005SOL    HW117912   5.286   1.586   3.900
72005SOL    HW217913   5.393   1.668   3.831
72006SOL     OW17914   3.708   6.707  10.779
72006SOL    HW117915   3.708   6.700  10.874
72006SOL    HW217916   3.787   6.660  10.751
72007SOL     OW17917   6.999  10.096   9.447
72007SOL    HW117918   7.030  10.186   9.443
72007SOL    HW217919   7.062  10.047   9.394
72008SOL     OW17920   9.000  10.934   9.044
72008SOL    HW117921   9.090  10.947   9.073
72008SOL    HW217922   8.949  10.932   9.125
72009SOL     OW17923   5.075   2.353  13.694
72009SOL    HW117924   5.123   2.289  13.747
72009SOL    HW217925   5.136   2.426  13.684
72010SOL     OW17926   4.305   0.226   9.505
72010SOL    HW117927   4.355   0.182   9.573
72010SOL    HW217928   4.368   0.239   9.434
72011SOL     OW17929  12.410  11.537  12.457
72011SOL    HW117930  12.363  11.620  12.465
72011SOL    HW217931  12.502  11.563  12.445
72012SOL     OW17932   5.016   2.826   7.930
72012SOL    HW117933   4.980   2.794   8.013
72012SOL    HW217934   4.943   2.818   7.869
72013SOL     OW17935   6.623   0.252  11.235
72013SOL    HW117936   6.701   0.272  11.185
72013SOL    HW217937   6.626   0.157  11.248
72014SOL     OW17938   1.680   0.571  11.279
72014SOL    HW117939   1.650   0.631  11.211
72014SOL    HW217940   1.686   0.626  11.358
72015SOL     OW17941   8.447   2.446  13.294
72015SOL    HW117942   8.401   2.387  13.353
72015SOL    HW217943   8.517   2.393  13.255
72016SOL     OW17944   9.091   8.448   2.507
72016SOL    HW117945   9.183   8.454   2.533
72016SOL    HW217946   9.067   8.537   2.483
72017SOL     OW17947  11.272   5.529   2.906
72017SOL    HW117948  11.250   5.443   2.869
72017SOL    HW217949  11.217   5.537   2.983
72018SOL     OW17950   3.174   2.818  12.092
72018SOL    HW117951   3.211   2.749  12.146
72018SOL    HW217952   3.249   2.860  12.051
72019SOL     OW17953   8.762   3.425   4.117
72019SOL    HW117954   8.684   3.384   4.155
72019SOL    HW217955   8.728   3.502   4.070
72020SOL     OW17956   1.037   1.343  11.154
72020SOL    HW117957   1.059   1.304  11.069
72020SOL    HW217958   1.094   1.298  11.216
72021SOL     OW17959   1.696  11.725   3.248
72021SOL    HW117960   1.631  11.766   3.305
72021SOL    HW217961   1.747  11.669   3.306
72022SOL     OW17962   1.617   5.307   7.139
72022SOL    HW117963   1.694   5.321   7.195
72022SOL    HW217964   1.650   5.257   7.065
72023SOL     OW17965   9.954   7.304   1.428
72023SOL    HW117966   9.985   7.374   1.371
72023SOL    HW217967   9.991   7.325   1.514
72024SOL     OW17968   0.745  12.343  11.311
72024SOL    HW117969   0.732  12.248  11.317
72024SOL    HW217970   0.729  12.363  11.219
72025SOL     OW17971   5.099   0.354   3.929
72025SOL    HW117972   5.047   0.285   3.971
72025SOL    HW217973   5.160   0.307   3.872
72026SOL     OW17974  10.553   6.406   2.407
72026SOL    HW117975  10.581   6.473   2.469
72026SOL    HW217976  10.593   6.325   2.439
72027SOL     OW17977   7.975  10.893   7.085
72027SOL    HW117978   8.068  10.916   7.088
72027SOL    HW217979   7.972  10.799   7.101
72028SOL     OW17980   8.646   3.149   7.050
72028SOL    HW117981   8.573   3.210   7.058
72028SOL    HW217982   8.615   3.083   6.987
72029SOL     OW17983  13.287  14.532  10.759
72029SOL    HW117984  13.276  14.468  10.688
72029SOL    HW217985  13.220  14.598  10.742
72030SOL     OW17986  13.276   7.692   3.155
72030SOL    HW117987  13.276   7.786   3.173
72030SOL    HW217988  13.332   7.683   3.078
72031SOL     OW17989   2.078   2.720  10.587
72031SOL    HW117990   2.046   2.802  10.551
72031SOL    HW217991   2.059   2.654  10.520
72032SOL     OW17992   2.443  14.566  11.436
72032SOL    HW117993   2.413  14.562  11.527
72032SOL    HW217994   2.531  14.529  11.438
72033SOL     OW17995  11.472   4.591  10.737
72033SOL    HW117996  11.472   4.659  10.805
72033SOL    HW217997  11.466   4.509  10.785
72034SOL     OW17998   9.323   8.116   3.480
72034SOL    HW117999   9.362   8.031   3.500
72034SOL    HW218000   9.228   8.101   3.482
72035SOL     OW18001   0.472  11.582   8.526
72035SOL    HW118002   0.396  11.569   8.470
72035SOL    HW218003   0.435  11.611   8.610
72036SOL     OW18004   1.479   4.504  12.952
72036SOL    HW118005   1.556   4.557  12.929
72036SOL    HW218006   1.515   4.430  13.001
72037SOL     OW18007   1.660  11.225   3.358
72037SOL    HW118008   1.568  11.197   3.360
72037SOL    HW218009   1.655  11.321   3.363
72038SOL     OW18010   4.024  12.329   7.085
72038SOL    HW118011   4.005  12.421   7.105
72038SOL    HW218012   4.118  12.327   7.067
72039SOL     OW18013   1.687   5.242   8.462
72039SOL    HW118014   1.677   5.333   8.436
72039SOL    HW218015   1.635   5.193   8.398
72040SOL     OW18016  10.468   0.579   3.031
72040SOL    HW118017  10.411   0.652   3.008
72040SOL    HW218018  10.441   0.508   2.972
72041SOL     OW18019   9.380   6.623  11.419
72041SOL    HW118020   9.443   6.585  11.480
72041SOL    HW218021   9.371   6.557  11.350
72042SOL     OW18022  10.771  13.428  11.631
72042SOL    HW118023  10.755  13.358  11.569
72042SOL    HW218024  10.718  13.405  11.708
72043SOL     OW18025  12.414   7.227   0.332
72043SOL    HW118026  12.411   7.132   0.323
72043SOL    HW218027  12.458   7.258   0.253
72044SOL     OW18028  12.576   6.868   5.794
72044SOL    HW118029  12.571   6.830   5.882
72044SOL    HW218030  12.486   6.896   5.775
72045SOL     OW18031   8.192   8.213   5.304
72045SOL    HW118032   8.191   8.302   5.339
72045SOL    HW218033   8.103   8.200   5.269
72046SOL     OW18034   5.039  10.031   7.907
72046SOL    HW118035   5.051   9.945   7.947
72046SOL    HW218036   4.962  10.021   7.851
72047SOL     OW18037  11.129   2.085   0.275
72047SOL    HW118038  11.126   2.160   0.334
72047SOL    HW218039  11.220   2.055   0.278
72048SOL     OW18040  10.124   9.792  11.465
72048SOL    HW118041  10.123   9.696  11.467
72048SOL    HW218042  10.044   9.817  11.510
72049SOL     OW18043   5.854   4.647  13.899
72049SOL    HW118044   5.776   4.673  13.849
72049SOL    HW218045   5.864   4.554  13.879
72050SOL     OW18046   6.314  12.652  10.899
72050SOL    HW118047   6.293  12.631  10.808
72050SOL    HW218048   6.247  12.608  10.951
72051SOL     OW18049  10.011   8.377  14.384
72051SOL    HW118050   9.937   8.357  14.328
72051SOL    HW218051  10.023   8.299  14.438
72052SOL     OW18052   9.996  13.427   2.399
72052SOL    HW118053  10.070  13.384   2.357
72052SOL    HW218054  10.035  13.494   2.454
72053SOL     OW18055   1.044   7.871  11.867
72053SOL    HW118056   1.084   7.815  11.801
72053SOL    HW218057   0.959   7.831  11.885
72054SOL     OW18058  12.956   6.893  10.641
72054SOL    HW118059  12.959   6.860  10.731
72054SOL    HW218060  12.882   6.954  10.642
72055SOL     OW18061   5.778   9.947  12.797
72055SOL    HW118062   5.716   9.948  12.870
72055SOL    HW218063   5.795   9.854  12.781
72056SOL     OW18064  10.193   0.947   2.531
72056SOL    HW118065  10.287   0.929   2.537
72056SOL    HW218066  10.185   1.002   2.453
72057SOL     OW18067   0.374   4.634   7.399
72057SOL    HW118068   0.311   4.564   7.384
72057SOL    HW218069   0.320   4.710   7.422
72058SOL     OW18070   0.430   9.608   2.512
72058SOL    HW118071   0.350   9.572   2.474
72058SOL    HW218072   0.494   9.603   2.441
72059SOL     OW18073  14.278   5.537  11.518
72059SOL    HW118074  14.344   5.481  11.560
72059SOL    HW218075  14.283   5.619  11.567
72060SOL     OW18076   8.445  13.523  14.862
72060SOL    HW118077   8.481  13.501   0.078
72060SOL    HW218078   8.468  13.615  14.849
72061SOL     OW18079   3.128   1.180   9.325
72061SOL    HW118080   3.067   1.125   9.278
72061SOL    HW218081   3.088   1.192   9.412
72062SOL     OW18082   8.551   6.261   5.507
72062SOL    HW118083   8.577   6.193   5.569
72062SOL    HW218084   8.614   6.332   5.521
72063SOL     OW18085  11.036  12.928   8.177
72063SOL    HW118086  10.993  12.998   8.226
72063SOL    HW218087  10.977  12.853   8.185
72064SOL     OW18088  10.172   1.984   8.262
72064SOL    HW118089  10.252   2.007   8.308
72064SOL    HW218090  10.192   1.901   8.218
72065SOL     OW18091   6.920  10.952   1.555
72065SOL    HW118092   6.855  10.916   1.616
72065SOL    HW218093   6.903  10.907   1.472
72066SOL     OW18094  10.648  11.520   9.893
72066SOL    HW118095  10.693  11.436   9.890
72066SOL    HW218096  10.699  11.572   9.955
72067SOL     OW18097   6.728   3.770   5.392
72067SOL    HW118098   6.713   3.676   5.380
72067SOL    HW218099   6.645   3.804   5.424
72068SOL     OW18100   3.995  11.035   6.459
72068SOL    HW118101   4.068  11.068   6.512
72068SOL    HW218102   3.953  10.970   6.516
72069SOL     OW18103   2.052   5.999   3.830
72069SOL    HW118104   2.029   5.940   3.758
72069SOL    HW218105   2.123   6.053   3.795
72070SOL     OW18106   6.435   4.430   1.688
72070SOL    HW118107   6.342   4.408   1.677
72070SOL    HW218108   6.435   4.525   1.700
72071SOL     OW18109   0.436   7.138   7.610
72071SOL    HW118110   0.476   7.172   7.530
72071SOL    HW218111   0.505   7.087   7.653
72072SOL     OW18112  12.171   3.761   8.868
72072SOL    HW118113  12.210   3.843   8.898
72072SOL    HW218114  12.077   3.780   8.865
72073SOL     OW18115   0.040   9.052   6.912
72073SOL    HW118116  14.864   9.134   6.931
72073SOL    HW218117  14.861   9.015   6.838
72074SOL     OW18118   4.705   0.815  12.624
72074SOL    HW118119   4.795   0.847  12.619
72074SOL    HW218120   4.711   0.732  12.670
72075SOL     OW18121   4.008   4.193  13.156
72075SOL    HW118122   4.022   4.114  13.208
72075SOL    HW218123   4.095   4.225  13.135
72076SOL     OW18124   6.621   2.110  11.931
72076SOL    HW118125   6.621   2.018  11.904
72076SOL    HW218126   6.570   2.155  11.864
72077SOL     OW18127   8.521  12.165   6.592
72077SOL    HW118128   8.607  12.167   6.634
72077SOL    HW218129   8.535  12.113   6.512
72078SOL     OW18130  11.414   9.655   6.153
72078SOL    HW118131  11.359   9.669   6.231
72078SOL    HW218132  11.369   9.703   6.083
72079SOL     OW18133   5.866   4.941   7.821
72079SOL    HW118134   5.881   5.024   7.866
72079SOL    HW218135   5.852   4.877   7.891
72080SOL     OW18136  14.298   5.413  12.246
72080SOL    HW118137  14.367   5.347  12.245
72080SOL    HW218138  14.237   5.382  12.314
72081SOL     OW18139  11.599   9.499   2.934
72081SOL    HW118140  11.663   9.566   2.958
72081SOL    HW218141  11.535   9.545   2.879
72082SOL     OW18142   7.489   5.296  11.184
72082SOL    HW118143   7.449   5.235  11.122
72082SOL    HW218144   7.509   5.374  11.132
72083SOL     OW18145   2.135  12.722  10.184
72083SOL    HW118146   2.074  12.748  10.115
72083SOL    HW218147   2.114  12.779  10.257
72084SOL     OW18148  11.389   6.153   3.374
72084SOL    HW118149  11.375   6.244   3.399
72084SOL    HW218150  11.310   6.107   3.404
72085SOL     OW18151   0.749   5.161   7.991
72085SOL    HW118152   0.689   5.211   7.935
72085SOL    HW218153   0.833   5.166   7.946
72086SOL     OW18154   3.737   9.567  14.487
72086SOL    HW118155   3.785   9.623  14.547
72086SOL    HW218156   3.770   9.479  14.504
72087SOL     OW18157  13.654   5.364   4.747
72087SOL    HW118158  13.721   5.355   4.679
72087SOL    HW218159  13.693   5.324   4.825
72088SOL     OW18160   1.902   0.451   8.048
72088SOL    HW118161   1.838   0.404   8.102
72088SOL    HW218162   1.974   0.469   8.107
72089SOL     OW18163   0.219  14.155   6.088
72089SOL    HW118164   0.217  14.181   6.181
72089SOL    HW218165   0.157  14.214   6.046
72090SOL     OW18166  11.200   9.034   8.440
72090SOL    HW118167  11.142   9.027   8.515
72090SOL    HW218168  11.200   9.127   8.418
72091SOL     OW18169  14.385   2.951   2.606
72091SOL    HW118170  14.371   2.876   2.549
72091SOL    HW218171  14.474   2.940   2.640
72092SOL     OW18172   8.875   0.702   2.444
72092SOL    HW118173   8.797   0.648   2.430
72092SOL    HW218174   8.946   0.639   2.457
72093SOL     OW18175  12.382  11.719  14.497
72093SOL    HW118176  12.401  11.715  14.591
72093SOL    HW218177  12.389  11.812  14.474
72094SOL     OW18178   0.591   8.673   4.317
72094SOL    HW118179   0.512   8.636   4.358
72094SOL    HW218180   0.637   8.597   4.281
72095SOL     OW18181   3.145  10.307  13.182
72095SOL    HW118182   3.138  10.357  13.100
72095SOL    HW218183   3.186  10.225  13.156
72096SOL     OW18184   8.592   5.968  11.103
72096SOL    HW118185   8.503   5.963  11.069
72096SOL    HW218186   8.595   5.901  11.172
72097SOL     OW18187   3.705  12.731   4.015
72097SOL    HW118188   3.621  12.712   4.056
72097SOL    HW218189   3.698  12.822   3.987
72098SOL     OW18190   7.398  13.647   9.178
72098SOL    HW118191   7.390  13.554   9.156
72098SOL    HW218192   7.365  13.653   9.268
72099SOL     OW18193   3.631   8.471   7.451
72099SOL    HW118194   3.544   8.505   7.474
72099SOL    HW218195   3.618   8.429   7.366
72100SOL     OW18196   8.906   8.859   1.856
72100SOL    HW118197   8.885   8.864   1.949
72100SOL    HW218198   8.824   8.832   1.814
72101SOL     OW18199   9.560   7.778   9.515
72101SOL    HW118200   9.518   7.837   9.578
72101SOL    HW218201   9.534   7.691   9.543
72102SOL     OW18202  11.341  14.715  12.828
72102SOL    HW118203  11.348  14.714  12.732
72102SOL    HW218204  11.407  14.778  12.856
72103SOL     OW18205  12.606   9.717   6.287
72103SOL    HW118206  12.615   9.684   6.377
72103SOL    HW218207  12.637   9.644   6.232
72104SOL     OW18208   7.259  13.404  12.806
72104SOL    HW118209   7.198  13.442  12.869
72104SOL    HW218210   7.203  13.353  12.747
72105SOL     OW18211   2.743   2.695   9.865
72105SOL    HW118212   2.816   2.633   9.873
72105SOL    HW218213   2.676   2.661   9.923
72106SOL     OW18214   3.479   4.152  11.795
72106SOL    HW118215   3.511   4.222  11.853
72106SOL    HW218216   3.557   4.102  11.773
72107SOL     OW18217   8.543  13.191   1.804
72107SOL    HW118218   8.508  13.165   1.889
72107SOL    HW218219   8.634  13.216   1.822
72108SOL     OW18220   3.352   6.055   0.002
72108SOL    HW118221   3.374   6.086   0.090
72108SOL    HW218222   3.414   5.983  14.856
72109SOL     OW18223   2.643   5.573  11.934
72109SOL    HW118224   2.665   5.649  11.879
72109SOL    HW218225   2.561   5.540  11.898
72110SOL     OW18226   2.270   1.282   9.300
72110SOL    HW118227   2.252   1.247   9.387
72110SOL    HW218228   2.365   1.277   9.290
72111SOL     OW18229  12.159   1.205  11.041
72111SOL    HW118230  12.080   1.155  11.020
72111SOL    HW218231  12.193   1.232  10.956
72112SOL     OW18232   0.382   1.510   3.985
72112SOL    HW118233   0.422   1.596   3.973
72112SOL    HW218234   0.454   1.448   3.977
72113SOL     OW18235  12.374   1.926   3.921
72113SOL    HW118236  12.382   1.958   3.831
72113SOL    HW218237  12.388   2.004   3.976
72114SOL     OW18238   1.112   7.474   9.864
72114SOL    HW118239   1.019   7.475   9.886
72114SOL    HW218240   1.156   7.455   9.947
72115SOL     OW18241  10.797   7.542   3.932
72115SOL    HW118242  10.801   7.636   3.914
72115SOL    HW218243  10.845   7.501   3.860
72116SOL     OW18244  11.330  12.145   1.039
72116SOL    HW118245  11.399  12.167   1.102
72116SOL    HW218246  11.250  12.144   1.091
72117SOL     OW18247   1.414  13.962   8.754
72117SOL    HW118248   1.492  13.977   8.702
72117SOL    HW218249   1.356  13.911   8.697
72118SOL     OW18250   5.911   6.180   3.290
72118SOL    HW118251   5.949   6.110   3.237
72118SOL    HW218252   5.862   6.234   3.227
72119SOL     OW18253  11.771   0.524   5.168
72119SOL    HW118254  11.842   0.486   5.116
72119SOL    HW218255  11.698   0.532   5.107
72120SOL     OW18256  11.987  13.628   1.873
72120SOL    HW118257  12.005  13.554   1.931
72120SOL    HW218258  12.049  13.695   1.899
72121SOL     OW18259  14.312  13.590  11.052
72121SOL    HW118260  14.292  13.617  10.963
72121SOL    HW218261  14.229  13.595  11.099
72122SOL     OW18262   2.600   9.258   2.884
72122SOL    HW118263   2.518   9.250   2.836
72122SOL    HW218264   2.640   9.171   2.879
72123SOL     OW18265   3.688  10.095   7.044
72123SOL    HW118266   3.690  10.144   7.126
72123SOL    HW218267   3.595  10.078   7.028
72124SOL     OW18268   2.605  10.006  10.753
72124SOL    HW118269   2.598  10.082  10.810
72124SOL    HW218270   2.515   9.988  10.726
72125SOL     OW18271   1.771   7.558   1.419
72125SOL    HW118272   1.781   7.573   1.325
72125SOL    HW218273   1.695   7.610   1.443
72126SOL     OW18274   3.399   2.902  11.923
72126SOL    HW118275   3.388   2.976  11.863
72126SOL    HW218276   3.414   2.827  11.865
72127SOL     OW18277   9.351  10.224  13.917
72127SOL    HW118278   9.285  10.292  13.904
72127SOL    HW218279   9.317  10.148  13.870
72128SOL     OW18280   9.759   7.971  11.047
72128SOL    HW118281   9.712   8.052  11.030
72128SOL    HW218282   9.806   7.987  11.129
72129SOL     OW18283   4.460  12.979   1.032
72129SOL    HW118284   4.383  12.945   1.077
72129SOL    HW218285   4.533  12.930   1.070
72130SOL     OW18286   1.240   2.928   7.414
72130SOL    HW118287   1.314   2.938   7.474
72130SOL    HW218288   1.239   2.834   7.393
72131SOL     OW18289   0.143   4.699   3.750
72131SOL    HW118290   0.062   4.714   3.799
72131SOL    HW218291   0.131   4.749   3.669
72132SOL     OW18292  12.285   4.840   5.797
72132SOL    HW118293  12.363   4.874   5.754
72132SOL    HW218294  12.215   4.853   5.732
72133SOL     OW18295   7.152   3.292   9.927
72133SOL    HW118296   7.082   3.247   9.879
72133SOL    HW218297   7.128   3.384   9.924
72134SOL     OW18298   3.604  11.152   5.746
72134SOL    HW118299   3.569  11.062   5.748
72134SOL    HW218300   3.635  11.168   5.835
72135SOL     OW18301   3.781   8.350  11.302
72135SOL    HW118302   3.696   8.366  11.261
72135SOL    HW218303   3.774   8.261  11.337
72136SOL     OW18304   7.445   6.724  10.452
72136SOL    HW118305   7.535   6.696  10.432
72136SOL    HW218306   7.453   6.817  10.474
72137SOL     OW18307   8.163   5.493   0.093
72137SOL    HW118308   8.146   5.476   0.185
72137SOL    HW218309   8.094   5.554   0.066
72138SOL     OW18310   9.185   9.869  14.161
72138SOL    HW118311   9.144   9.785  14.185
72138SOL    HW218312   9.249   9.846  14.094
72139SOL     OW18313   5.938   6.593   9.324
72139SOL    HW118314   6.025   6.612   9.360
72139SOL    HW218315   5.915   6.507   9.359
72140SOL     OW18316   0.058   8.498  10.569
72140SOL    HW118317   0.104   8.465  10.492
72140SOL    HW218318   0.128   8.512  10.634
72141SOL     OW18319   2.043   4.434   5.246
72141SOL    HW118320   2.002   4.518   5.229
72141SOL    HW218321   2.077   4.440   5.335
72142SOL     OW18322   7.505   8.820   6.703
72142SOL    HW118323   7.464   8.881   6.764
72142SOL    HW218324   7.596   8.813   6.732
72143SOL     OW18325   9.205   9.864   9.822
72143SOL    HW118326   9.242   9.790   9.773
72143SOL    HW218327   9.138   9.825   9.877
72144SOL     OW18328  12.955  10.466   1.362
72144SOL    HW118329  12.971  10.374   1.340
72144SOL    HW218330  12.883  10.492   1.303
72145SOL     OW18331   9.574  10.481   4.037
72145SOL    HW118332   9.612  10.567   4.058
72145SOL    HW218333   9.609  10.460   3.950
72146SOL     OW18334   4.093   4.707   6.589
72146SOL    HW118335   4.006   4.735   6.617
72146SOL    HW218336   4.080   4.618   6.557
72147SOL     OW18337   3.240   2.302   3.174
72147SOL    HW118338   3.152   2.331   3.196
72147SOL    HW218339   3.296   2.377   3.193
72148SOL     OW18340   1.312  14.618   6.866
72148SOL    HW118341   1.395  14.650   6.899
72148SOL    HW218342   1.261  14.697   6.847
72149SOL     OW18343   1.974   6.126  12.476
72149SOL    HW118344   1.958   6.044  12.522
72149SOL    HW218345   1.957   6.194  12.542
72150SOL     OW18346  12.113   8.405  10.316
72150SOL    HW118347  12.112   8.486  10.265
72150SOL    HW218348  12.195   8.363  10.293
72151SOL     OW18349   8.524  13.805  13.508
72151SOL    HW118350   8.612  13.776  13.532
72151SOL    HW218351   8.536  13.854  13.427
72152SOL     OW18352  11.798  10.608   1.257
72152SOL    HW118353  11.833  10.520   1.243
72152SOL    HW218354  11.776  10.639   1.170
72153SOL     OW18355  13.142   7.741   5.014
72153SOL    HW118356  13.073   7.805   5.030
72153SOL    HW218357  13.096   7.659   4.994
72154SOL     OW18358  12.346   1.065   7.778
72154SOL    HW118359  12.275   1.061   7.842
72154SOL    HW218360  12.364   0.973   7.757
72155SOL     OW18361   6.316  14.811   3.827
72155SOL    HW118362   6.234  14.810   3.778
72155SOL    HW218363   6.381  14.844   3.764
72156SOL     OW18364   5.322   5.701  10.499
72156SOL    HW118365   5.303   5.632  10.564
72156SOL    HW218366   5.410   5.730  10.521
72157SOL     OW18367   9.990   2.365  12.925
72157SOL    HW118368  10.064   2.426  12.931
72157SOL    HW218369  10.031   2.278  12.920
72158SOL     OW18370   2.970   3.671   5.994
72158SOL    HW118371   2.968   3.597   6.055
72158SOL    HW218372   3.028   3.642   5.923
72159SOL     OW18373   6.940  10.576  11.817
72159SOL    HW118374   7.032  10.592  11.840
72159SOL    HW218375   6.942  10.557  11.723
72160SOL     OW18376   7.326   5.438  12.096
72160SOL    HW118377   7.263   5.391  12.041
72160SOL    HW218378   7.271   5.489  12.156
72161SOL     OW18379   3.440   1.013  13.723
72161SOL    HW118380   3.502   1.014  13.796
72161SOL    HW218381   3.486   1.056  13.652
72162SOL     OW18382   3.267  14.404   4.477
72162SOL    HW118383   3.199  14.472   4.486
72162SOL    HW218384   3.218  14.324   4.456
72163SOL     OW18385   3.553   0.408  10.874
72163SOL    HW118386   3.531   0.428  10.783
72163SOL    HW218387   3.499   0.468  10.925
72164SOL     OW18388  12.854   1.058   5.567
72164SOL    HW118389  12.798   1.111   5.624
72164SOL    HW218390  12.938   1.055   5.614
72165SOL     OW18391  12.759   6.823   5.601
72165SOL    HW118392  12.816   6.757   5.641
72165SOL    HW218393  12.689   6.837   5.665
72166SOL     OW18394   4.022  11.984   4.130
72166SOL    HW118395   4.038  12.031   4.212
72166SOL    HW218396   4.072  11.903   4.139
72167SOL     OW18397  11.943   6.834   7.467
72167SOL    HW118398  11.856   6.830   7.508
72167SOL    HW218399  11.945   6.920   7.425
72168SOL     OW18400  14.306  13.319   3.059
72168SOL    HW118401  14.268  13.337   3.145
72168SOL    HW218402  14.397  13.299   3.077
72169SOL     OW18403  10.664  11.724  12.480
72169SOL    HW118404  10.578  11.761  12.503
72169SOL    HW218405  10.720  11.800  12.469
72170SOL     OW18406   5.397   8.854  12.561
72170SOL    HW118407   5.397   8.925  12.497
72170SOL    HW218408   5.420   8.776  12.510
72171SOL     OW18409   8.904  13.397   8.583
72171SOL    HW118410   8.889  13.478   8.632
72171SOL    HW218411   8.999  13.392   8.572
72172SOL     OW18412   2.580   2.976   7.199
72172SOL    HW118413   2.652   2.983   7.262
72172SOL    HW218414   2.545   2.888   7.214
72173SOL     OW18415   7.497  14.509  10.347
72173SOL    HW118416   7.465  14.427  10.384
72173SOL    HW218417   7.436  14.529  10.277
72174SOL     OW18418   1.510   5.348   3.626
72174SOL    HW118419   1.499   5.346   3.531
72174SOL    HW218420   1.597   5.386   3.639
72175SOL     OW18421   7.435  11.147   8.708
72175SOL    HW118422   7.384  11.216   8.666
72175SOL    HW218423   7.378  11.113   8.777
72176SOL     OW18424   2.083   3.587   5.499
72176SOL    HW118425   2.132   3.620   5.424
72176SOL    HW218426   2.149   3.561   5.563
72177SOL     OW18427   1.781   7.959   0.321
72177SOL    HW118428   1.800   7.949   0.415
72177SOL    HW218429   1.754   7.871   0.293
72178SOL     OW18430  12.010   5.269   4.576
72178SOL    HW118431  12.059   5.289   4.496
72178SOL    HW218432  11.919   5.289   4.554
72179SOL     OW18433   8.018   3.125   9.078
72179SOL    HW118434   8.065   3.056   9.031
72179SOL    HW218435   7.973   3.079   9.149
72180SOL     OW18436   7.346   2.289   2.838
72180SOL    HW118437   7.427   2.292   2.890
72180SOL    HW218438   7.276   2.298   2.903
72181SOL     OW18439   8.568   2.743   7.080
72181SOL    HW118440   8.530   2.806   7.018
72181SOL    HW218441   8.663   2.753   7.067
72182SOL     OW18442  12.031   2.401   5.823
72182SOL    HW118443  12.058   2.347   5.749
72182SOL    HW218444  11.944   2.368   5.846
72183SOL     OW18445   0.527   8.032   0.986
72183SOL    HW118446   0.594   7.970   0.957
72183SOL    HW218447   0.560   8.067   1.068
72184SOL     OW18448   8.189   3.454   4.554
72184SOL    HW118449   8.098   3.476   4.575
72184SOL    HW218450   8.203   3.491   4.467
72185SOL     OW18451   1.976  12.971   3.221
72185SOL    HW118452   2.059  13.013   3.198
72185SOL    HW218453   1.954  13.007   3.307
72186SOL     OW18454  11.516  11.527   9.244
72186SOL    HW118455  11.532  11.561   9.156
72186SOL    HW218456  11.604  11.507   9.278
72187SOL     OW18457   2.011   3.398  10.350
72187SOL    HW118458   2.077   3.353  10.296
72187SOL    HW218459   1.928   3.381  10.306
72188SOL     OW18460   9.117   6.997  12.704
72188SOL    HW118461   9.106   7.022  12.612
72188SOL    HW218462   9.074   6.912  12.711
72189SOL     OW18463   7.481   7.312   8.149
72189SOL    HW118464   7.531   7.231   8.152
72189SOL    HW218465   7.441   7.319   8.236
72190SOL     OW18466   6.723   3.589   1.053
72190SOL    HW118467   6.653   3.526   1.036
72190SOL    HW218468   6.686   3.650   1.117
72191SOL     OW18469  11.149   5.848   6.042
72191SOL    HW118470  11.109   5.856   5.955
72191SOL    HW218471  11.191   5.932   6.058
72192SOL     OW18472   7.140   8.236   9.225
72192SOL    HW118473   7.124   8.217   9.132
72192SOL    HW218474   7.081   8.308   9.245
72193SOL     OW18475   6.645  13.099  13.696
72193SOL    HW118476   6.681  13.095  13.607
72193SOL    HW218477   6.716  13.135  13.749
72194SOL     OW18478  14.387  11.667  11.469
72194SOL    HW118479  14.369  11.728  11.398
72194SOL    HW218480  14.469  11.697  11.508
72195SOL     OW18481   6.391   0.448   1.614
72195SOL    HW118482   6.471   0.499   1.628
72195SOL    HW218483   6.338   0.503   1.555
72196SOL     OW18484   4.623  13.642   0.016
72196SOL    HW118485   4.710  13.621   0.048
72196SOL    HW218486   4.575  13.671   0.093
72197SOL     OW18487   0.926   7.528   7.155
72197SOL    HW118488   0.952   7.450   7.107
72197SOL    HW218489   0.849   7.501   7.206
72198SOL     OW18490  12.710   8.187   6.012
72198SOL    HW118491  12.669   8.136   6.081
72198SOL    HW218492  12.804   8.178   6.028
72199SOL     OW18493   0.253   0.131   3.931
72199SOL    HW118494   0.285   0.052   3.975
72199SOL    HW218495   0.333   0.179   3.907
72200SOL     OW18496  13.038   1.958   2.682
72200SOL    HW118497  13.031   2.043   2.640
72200SOL    HW218498  12.950   1.940   2.715
72201SOL     OW18499  12.863  10.457   0.284
72201SOL    HW118500  12.943  10.426   0.327
72201SOL    HW218501  12.794  10.439   0.348
72202SOL     OW18502   0.019  12.217   3.934
72202SOL    HW118503   0.023  12.177   3.847
72202SOL    HW218504  14.857  12.306   3.919
72203SOL     OW18505  11.843  11.416   0.974
72203SOL    HW118506  11.842  11.342   1.035
72203SOL    HW218507  11.913  11.473   1.007
72204SOL     OW18508   9.825   4.552   5.795
72204SOL    HW118509   9.823   4.462   5.829
72204SOL    HW218510   9.746   4.560   5.742
72205SOL     OW18511  14.215   3.545   6.565
72205SOL    HW118512  14.232   3.639   6.561
72205SOL    HW218513  14.301   3.506   6.580
72206SOL     OW18514  13.692   3.315   1.718
72206SOL    HW118515  13.663   3.294   1.807
72206SOL    HW218516  13.690   3.410   1.715
72207SOL     OW18517   6.848   6.302   6.286
72207SOL    HW118518   6.898   6.271   6.210
72207SOL    HW218519   6.756   6.293   6.260
72208SOL     OW18520   6.193   7.921   4.624
72208SOL    HW118521   6.196   7.871   4.706
72208SOL    HW218522   6.108   7.899   4.586
72209SOL     OW18523   6.809   5.438  13.258
72209SOL    HW118524   6.735   5.439  13.198
72209SOL    HW218525   6.797   5.515  13.314
72210SOL     OW18526  14.714   3.366  13.366
72210SOL    HW118527  14.750   3.417  13.438
72210SOL    HW218528  14.762   3.283  13.369
72211SOL     OW18529   9.438  13.024   0.300
72211SOL    HW118530   9.355  12.977   0.291
72211SOL    HW218531   9.460  13.052   0.211
72212SOL     OW18532   3.280   4.342  12.743
72212SOL    HW118533   3.249   4.327  12.832
72212SOL    HW218534   3.201   4.353  12.691
72213SOL     OW18535   9.372   1.819   7.209
72213SOL    HW118536   9.347   1.824   7.301
72213SOL    HW218537   9.391   1.909   7.184
72214SOL     OW18538   1.656  11.566  12.892
72214SOL    HW118539   1.687  11.647  12.931
72214SOL    HW218540   1.561  11.571  12.895
72215SOL     OW18541  13.796   5.144   8.189
72215SOL    HW118542  13.734   5.143   8.116
72215SOL    HW218543  13.745   5.174   8.264
72216SOL     OW18544   6.914   3.365   8.742
72216SOL    HW118545   6.820   3.366   8.722
72216SOL    HW218546   6.945   3.283   8.704
72217SOL     OW18547  12.836   7.519  11.095
72217SOL    HW118548  12.801   7.460  11.163
72217SOL    HW218549  12.834   7.606  11.135
72218SOL     OW18550  13.695  11.976  10.333
72218SOL    HW118551  13.650  11.947  10.253
72218SOL    HW218552  13.648  11.932  10.404
72219SOL     OW18553   8.567  12.156   4.315
72219SOL    HW118554   8.600  12.080   4.267
72219SOL    HW218555   8.603  12.231   4.268
72220SOL     OW18556   9.204   2.260   0.555
72220SOL    HW118557   9.132   2.297   0.504
72220SOL    HW218558   9.254   2.209   0.492
72221SOL     OW18559  10.328   8.152   4.302
72221SOL    HW118560  10.242   8.193   4.309
72221SOL    HW218561  10.313   8.061   4.326
72222SOL     OW18562   4.838   6.189   4.357
72222SOL    HW118563   4.925   6.171   4.321
72222SOL    HW218564   4.830   6.130   4.432
72223SOL     OW18565  14.206  10.516   5.913
72223SOL    HW118566  14.159  10.467   5.981
72223SOL    HW218567  14.228  10.599   5.955
72224SOL     OW18568   3.869  13.416   4.103
72224SOL    HW118569   3.924  13.355   4.153
72224SOL    HW218570   3.802  13.445   4.165
72225SOL     OW18571  11.941   1.503   0.830
72225SOL    HW118572  11.875   1.436   0.815
72225SOL    HW218573  11.891   1.581   0.854
72226SOL     OW18574   8.147   5.992  14.823
72226SOL    HW118575   8.110   5.996   0.041
72226SOL    HW218576   8.236   5.958  14.835
72227SOL     OW18577   8.350  12.704  10.572
72227SOL    HW118578   8.331  12.653  10.651
72227SOL    HW218579   8.297  12.784  10.582
72228SOL     OW18580   0.870   1.775   5.158
72228SOL    HW118581   0.800   1.770   5.224
72228SOL    HW218582   0.900   1.866   5.162
72229SOL     OW18583   4.357   8.801  10.773
72229SOL    HW118584   4.343   8.798  10.867
72229SOL    HW218585   4.424   8.734  10.757
72230SOL     OW18586   7.422  11.049  14.399
72230SOL    HW118587   7.470  11.026  14.478
72230SOL    HW218588   7.342  10.997  14.403
72231SOL     OW18589  11.660   4.731  12.300
72231SOL    HW118590  11.637   4.823  12.292
72231SOL    HW218591  11.742   4.730  12.350
72232SOL     OW18592   1.095   4.325   4.335
72232SOL    HW118593   1.130   4.414   4.345
72232SOL    HW218594   1.030   4.333   4.265
72233SOL     OW18595   7.827   9.087   7.411
72233SOL    HW118596   7.912   9.076   7.368
72233SOL    HW218597   7.770   9.119   7.341
72234SOL     OW18598  14.377   7.053  12.793
72234SOL    HW118599  14.425   7.122  12.748
72234SOL    HW218600  14.382   6.978  12.734
72235SOL     OW18601   5.408   8.164   1.851
72235SOL    HW118602   5.459   8.083   1.857
72235SOL    HW218603   5.444   8.210   1.776
72236SOL     OW18604   0.282  10.500   2.017
72236SOL    HW118605   0.262  10.426   1.960
72236SOL    HW218606   0.213  10.564   1.999
72237SOL     OW18607  10.875   3.200   7.792
72237SOL    HW118608  10.917   3.189   7.877
72237SOL    HW218609  10.793   3.247   7.811
72238SOL     OW18610   5.123   6.766   0.180
72238SOL    HW118611   5.081   6.680   0.180
72238SOL    HW218612   5.185   6.763   0.252
72239SOL     OW18613  13.559  10.071  14.823
72239SOL    HW118614  13.647  10.079  14.785
72239SOL    HW218615  13.501  10.066  14.747
72240SOL     OW18616  12.715   0.300   7.982
72240SOL    HW118617  12.785   0.280   8.044
72240SOL    HW218618  12.720   0.394   7.969
72241SOL     OW18619  11.684  12.602  12.544
72241SOL    HW118620  11.629  12.673  12.512
72241SOL    HW218621  11.696  12.545  12.468
72242SOL     OW18622   5.956  13.485   4.498
72242SOL    HW118623   5.972  13.579   4.492
72242SOL    HW218624   5.967  13.464   4.591
72243SOL     OW18625  14.363   2.563  13.189
72243SOL    HW118626  14.363   2.523  13.102
72243SOL    HW218627  14.338   2.654  13.173
72244SOL     OW18628   7.691  11.800  10.768
72244SOL    HW118629   7.739  11.718  10.778
72244SOL    HW218630   7.672  11.806  10.675
72245SOL     OW18631   3.656  12.309  11.851
72245SOL    HW118632   3.581  12.295  11.910
72245SOL    HW218633   3.717  12.361  11.903
72246SOL     OW18634   4.729  10.436  14.222
72246SOL    HW118635   4.728  10.341  14.229
72246SOL    HW218636   4.643  10.464  14.251
72247SOL     OW18637   9.955   5.830  11.927
72247SOL    HW118638   9.888   5.797  11.868
72247SOL    HW218639   9.908   5.850  12.008
72248SOL     OW18640  11.197  13.727   1.759
72248SOL    HW118641  11.156  13.642   1.775
72248SOL    HW218642  11.192  13.772   1.843
72249SOL     OW18643   5.604   2.882  11.666
72249SOL    HW118644   5.638   2.903  11.754
72249SOL    HW218645   5.594   2.787  11.666
72250SOL     OW18646   0.119   0.129   1.685
72250SOL    HW118647   0.071   0.116   1.603
72250SOL    HW218648   0.134   0.224   1.688
72251SOL     OW18649   7.667   4.375   1.768
72251SOL    HW118650   7.592   4.374   1.827
72251SOL    HW218651   7.680   4.468   1.747
72252SOL     OW18652  14.792   4.662   1.344
72252SOL    HW118653  14.858   4.703   1.289
72252SOL    HW218654  14.710   4.705   1.319
72253SOL     OW18655  11.479   1.718   3.859
72253SOL    HW118656  11.519   1.631   3.856
72253SOL    HW218657  11.515   1.758   3.938
72254SOL     OW18658  13.166   1.167   4.372
72254SOL    HW118659  13.077   1.187   4.340
72254SOL    HW218660  13.167   1.198   4.462
72255SOL     OW18661   2.157   8.670   5.854
72255SOL    HW118662   2.189   8.582   5.832
72255SOL    HW218663   2.232   8.728   5.837
72256SOL     OW18664  11.797   7.577   2.000
72256SOL    HW118665  11.815   7.556   1.909
72256SOL    HW218666  11.877   7.552   2.047
72257SOL     OW18667   1.025  10.452   4.036
72257SOL    HW118668   0.974  10.532   4.047
72257SOL    HW218669   1.112  10.482   4.009
72258SOL     OW18670   8.907   0.750  13.167
72258SOL    HW118671   8.870   0.831  13.133
72258SOL    HW218672   8.871   0.682  13.109
72259SOL     OW18673   2.991  11.773   7.998
72259SOL    HW118674   2.934  11.803   8.069
72259SOL    HW218675   3.071  11.743   8.042
72260SOL     OW18676  12.693   7.585   6.517
72260SOL    HW118677  12.637   7.626   6.583
72260SOL    HW218678  12.655   7.499   6.501
72261SOL     OW18679   1.727   1.924  10.178
72261SOL    HW118680   1.765   1.975  10.105
72261SOL    HW218681   1.635   1.914  10.154
72262SOL     OW18682   5.521  13.401   3.271
72262SOL    HW118683   5.573  13.413   3.191
72262SOL    HW218684   5.461  13.330   3.250
72263SOL     OW18685   4.094  14.157   8.917
72263SOL    HW118686   4.156  14.203   8.972
72263SOL    HW218687   4.022  14.134   8.976
72264SOL     OW18688  11.998  11.429   6.982
72264SOL    HW118689  11.905  11.422   7.003
72264SOL    HW218690  12.003  11.492   6.910
72265SOL     OW18691   0.244   2.388   4.359
72265SOL    HW118692   0.202   2.360   4.278
72265SOL    HW218693   0.334   2.357   4.352
72266SOL     OW18694   6.774   8.254  11.226
72266SOL    HW118695   6.830   8.262  11.303
72266SOL    HW218696   6.691   8.223  11.260
72267SOL     OW18697   9.224  14.250   1.761
72267SOL    HW118698   9.272  14.193   1.702
72267SOL    HW218699   9.237  14.338   1.726
72268SOL     OW18700   6.104   9.920   8.613
72268SOL    HW118701   6.069  10.007   8.596
72268SOL    HW218702   6.046   9.860   8.567
72269SOL     OW18703   5.268   0.227   9.917
72269SOL    HW118704   5.290   0.159   9.981
72269SOL    HW218705   5.290   0.188   9.832
72270SOL     OW18706   2.178   2.463   0.786
72270SOL    HW118707   2.267   2.467   0.822
72270SOL    HW218708   2.190   2.432   0.696
72271SOL     OW18709   8.737   4.612   3.318
72271SOL    HW118710   8.809   4.669   3.291
72271SOL    HW218711   8.700   4.580   3.236
72272SOL     OW18712  13.714   5.346  10.073
72272SOL    HW118713  13.643   5.359  10.009
72272SOL    HW218714  13.723   5.431  10.116
72273SOL     OW18715   5.656  13.591   2.264
72273SOL    HW118716   5.581  13.533   2.256
72273SOL    HW218717   5.695  13.568   2.349
72274SOL     OW18718   9.320  10.891   7.954
72274SOL    HW118719   9.314  10.924   7.864
72274SOL    HW218720   9.293  10.800   7.948
72275SOL     OW18721  11.181   6.111   0.706
72275SOL    HW118722  11.103   6.091   0.758
72275SOL    HW218723  11.149   6.117   0.616
72276SOL     OW18724   0.752  12.422   9.186
72276SOL    HW118725   0.705  12.358   9.240
72276SOL    HW218726   0.729  12.399   9.096
72277SOL     OW18727   6.739   8.357  12.981
72277SOL    HW118728   6.697   8.292  13.037
72277SOL    HW218729   6.826   8.368  13.018
72278SOL     OW18730   4.563   7.419   8.605
72278SOL    HW118731   4.516   7.485   8.655
72278SOL    HW218732   4.604   7.467   8.533
72279SOL     OW18733   0.359   2.559   3.463
72279SOL    HW118734   0.391   2.611   3.536
72279SOL    HW218735   0.342   2.622   3.393
72280SOL     OW18736   1.169   4.360   0.639
72280SOL    HW118737   1.188   4.433   0.697
72280SOL    HW218738   1.152   4.286   0.697
72281SOL     OW18739   5.684  13.582   7.641
72281SOL    HW118740   5.712  13.559   7.730
72281SOL    HW218741   5.676  13.677   7.642
72282SOL     OW18742   5.750   4.188  11.097
72282SOL    HW118743   5.753   4.092  11.091
72282SOL    HW218744   5.741   4.217  11.007
72283SOL     OW18745  11.738  12.152  13.114
72283SOL    HW118746  11.832  12.138  13.125
72283SOL    HW218747  11.698  12.067  13.131
72284SOL     OW18748   5.551   1.839   4.577
72284SOL    HW118749   5.598   1.856   4.495
72284SOL    HW218750   5.459   1.849   4.554
72285SOL     OW18751   3.774   4.334  12.320
72285SOL    HW118752   3.679   4.335  12.312
72285SOL    HW218753   3.804   4.295  12.238
72286SOL     OW18754   4.773  10.966   2.852
72286SOL    HW118755   4.768  11.061   2.865
72286SOL    HW218756   4.737  10.929   2.933
72287SOL     OW18757   8.029   8.913  14.274
72287SOL    HW118758   7.952   8.947  14.319
72287SOL    HW218759   8.096   8.980  14.287
72288SOL     OW18760   3.675  10.555  13.299
72288SOL    HW118761   3.761  10.585  13.271
72288SOL    HW218762   3.668  10.582  13.390
72289SOL     OW18763   5.194   4.124  14.422
72289SOL    HW118764   5.249   4.191  14.462
72289SOL    HW218765   5.171   4.159  14.336
72290SOL     OW18766   5.354   1.995  14.698
72290SOL    HW118767   5.425   2.020  14.757
72290SOL    HW218768   5.284   1.966  14.757
72291SOL     OW18769   4.909  14.625   0.314
72291SOL    HW118770   4.912  14.720   0.328
72291SOL    HW218771   4.902  14.615   0.219
72292SOL     OW18772  14.795  13.740   2.355
72292SOL    HW118773  14.792  13.644   2.346
72292SOL    HW218774  14.746  13.757   2.435
72293SOL     OW18775   9.646   7.276   5.867
72293SOL    HW118776   9.680   7.333   5.798
72293SOL    HW218777   9.648   7.189   5.828
72294SOL     OW18778   1.821   4.637   1.402
72294SOL    HW118779   1.745   4.689   1.429
72294SOL    HW218780   1.894   4.699   1.404
72295SOL     OW18781   3.950   2.218   3.807
72295SOL    HW118782   3.971   2.180   3.721
72295SOL    HW218783   3.915   2.305   3.786
72296SOL     OW18784   1.397   4.748   0.748
72296SOL    HW118785   1.429   4.789   0.828
72296SOL    HW218786   1.360   4.664   0.777
72297SOL     OW18787  14.596   3.813  11.507
72297SOL    HW118788  14.504   3.791  11.520
72297SOL    HW218789  14.603   3.833  11.413
72298SOL     OW18790  10.791  13.916   0.596
72298SOL    HW118791  10.831  13.884   0.676
72298SOL    HW218792  10.746  13.840   0.559
72299SOL     OW18793   3.520   6.885   1.796
72299SOL    HW118794   3.518   6.979   1.812
72299SOL    HW218795   3.584   6.852   1.859
72300SOL     OW18796  11.620  14.659   8.374
72300SOL    HW118797  11.711  14.654   8.345
72300SOL    HW218798  11.622  14.625   8.464
72301SOL     OW18799   1.880   8.133   9.278
72301SOL    HW118800   1.924   8.050   9.259
72301SOL    HW218801   1.809   8.137   9.215
72302SOL     OW18802  13.710  12.480   1.534
72302SOL    HW118803  13.627  12.487   1.488
72302SOL    HW218804  13.719  12.564   1.579
72303SOL     OW18805  14.513   5.231  12.976
72303SOL    HW118806  14.537   5.315  13.015
72303SOL    HW218807  14.541   5.166  13.040
72304SOL     OW18808  11.567   9.759  10.294
72304SOL    HW118809  11.473   9.743  10.290
72304SOL    HW218810  11.605   9.693  10.237
72305SOL     OW18811  13.199   4.620   5.355
72305SOL    HW118812  13.116   4.573   5.367
72305SOL    HW218813  13.218   4.658   5.440
72306SOL     OW18814   9.566   3.544  12.382
72306SOL    HW118815   9.494   3.607  12.389
72306SOL    HW218816   9.635   3.593  12.337
72307SOL     OW18817  14.538   0.495  10.153
72307SOL    HW118818  14.455   0.485  10.198
72307SOL    HW218819  14.604   0.494  10.223
72308SOL     OW18820   2.571   0.388   1.177
72308SOL    HW118821   2.599   0.480   1.173
72308SOL    HW218822   2.652   0.338   1.186
72309SOL     OW18823   7.873   1.157  13.995
72309SOL    HW118824   7.936   1.099  13.953
72309SOL    HW218825   7.793   1.104  14.002
72310SOL     OW18826   9.308   4.990   1.750
72310SOL    HW118827   9.298   4.921   1.684
72310SOL    HW218828   9.339   5.066   1.700
72311SOL     OW18829  14.332   8.332  14.604
72311SOL    HW118830  14.255   8.387  14.595
72311SOL    HW218831  14.404   8.386  14.570
72312SOL     OW18832  13.717  10.800  12.651
72312SOL    HW118833  13.665  10.749  12.714
72312SOL    HW218834  13.808  10.780  12.674
72313SOL     OW18835   7.643   1.357   6.226
72313SOL    HW118836   7.731   1.351   6.264
72313SOL    HW218837   7.635   1.280   6.170
72314SOL     OW18838   6.186   2.077  12.530
72314SOL    HW118839   6.271   2.036  12.545
72314SOL    HW218840   6.194   2.120  12.446
72315SOL     OW18841  11.890   5.106  12.061
72315SOL    HW118842  11.969   5.148  12.096
72315SOL    HW218843  11.905   5.013  12.076
72316SOL     OW18844  12.236  12.488   7.767
72316SOL    HW118845  12.220  12.564   7.823
72316SOL    HW218846  12.252  12.416   7.828
72317SOL     OW18847   8.501   2.466  10.423
72317SOL    HW118848   8.468   2.550  10.455
72317SOL    HW218849   8.596   2.471  10.435
72318SOL     OW18850   7.805   3.550  10.592
72318SOL    HW118851   7.760   3.634  10.583
72318SOL    HW218852   7.764   3.508  10.668
72319SOL     OW18853   6.646   4.348   0.440
72319SOL    HW118854   6.624   4.425   0.493
72319SOL    HW218855   6.741   4.340   0.448
72320SOL     OW18856   0.118   1.405   7.646
72320SOL    HW118857   0.125   1.392   7.740
72320SOL    HW218858   0.071   1.487   7.636
72321SOL     OW18859   0.309   7.338   7.086
72321SOL    HW118860   0.287   7.423   7.124
72321SOL    HW218861   0.389   7.311   7.132
72322SOL     OW18862   5.880  11.528   0.758
72322SOL    HW118863   5.830  11.514   0.838
72322SOL    HW218864   5.926  11.445   0.743
72323SOL     OW18865  12.723   0.844  14.726
72323SOL    HW118866  12.701   0.854  14.819
72323SOL    HW218867  12.729   0.750  14.713
72324SOL     OW18868   5.539  12.593   4.452
72324SOL    HW118869   5.512  12.683   4.433
72324SOL    HW218870   5.608  12.603   4.517
72325SOL     OW18871   6.112  10.745  13.564
72325SOL    HW118872   6.131  10.742  13.658
72325SOL    HW218873   6.103  10.654  13.538
72326SOL     OW18874  12.701   0.883   7.326
72326SOL    HW118875  12.744   0.917   7.247
72326SOL    HW218876  12.608   0.891   7.309
72327SOL     OW18877   0.118   5.079   7.203
72327SOL    HW118878   0.065   5.003   7.229
72327SOL    HW218879   0.206   5.058   7.232
72328SOL     OW18880  11.460   0.108   7.182
72328SOL    HW118881  11.393   0.085   7.117
72328SOL    HW218882  11.538   0.061   7.153
72329SOL     OW18883   4.656   1.525   2.489
72329SOL    HW118884   4.684   1.562   2.573
72329SOL    HW218885   4.737   1.509   2.441
72330SOL     OW18886   8.103  10.352   8.072
72330SOL    HW118887   8.171  10.416   8.091
72330SOL    HW218888   8.107  10.340   7.977
72331SOL     OW18889   2.391  14.549   6.900
72331SOL    HW118890   2.408  14.640   6.922
72331SOL    HW218891   2.462  14.526   6.839
72332SOL     OW18892   4.872   9.726   2.525
72332SOL    HW118893   4.944   9.743   2.585
72332SOL    HW218894   4.828   9.649   2.561
72333SOL     OW18895   3.311  11.306   7.791
72333SOL    HW118896   3.405  11.305   7.810
72333SOL    HW218897   3.305  11.351   7.706
72334SOL     OW18898   8.669  14.693   5.180
72334SOL    HW118899   8.733  14.629   5.212
72334SOL    HW218900   8.658  14.672   5.087
72335SOL     OW18901   2.008  14.571   0.742
72335SOL    HW118902   1.968  14.531   0.819
72335SOL    HW218903   1.951  14.644   0.719
72336SOL     OW18904   8.511  14.739   1.450
72336SOL    HW118905   8.478  14.786   1.374
72336SOL    HW218906   8.526  14.650   1.419
72337SOL     OW18907  12.306   6.156   6.056
72337SOL    HW118908  12.328   6.147   6.148
72337SOL    HW218909  12.288   6.249   6.044
72338SOL     OW18910   3.910   6.414   2.693
72338SOL    HW118911   3.877   6.324   2.682
72338SOL    HW218912   4.004   6.407   2.674
72339SOL     OW18913   7.212  10.632   6.894
72339SOL    HW118914   7.145  10.565   6.907
72339SOL    HW218915   7.215  10.680   6.976
72340SOL     OW18916   2.482   5.001   3.373
72340SOL    HW118917   2.478   4.976   3.465
72340SOL    HW218918   2.471   4.919   3.325
72341SOL     OW18919  11.387  14.364   7.779
72341SOL    HW118920  11.350  14.441   7.821
72341SOL    HW218921  11.459  14.398   7.725
72342SOL     OW18922  13.588   6.157  13.541
72342SOL    HW118923  13.666   6.112  13.573
72342SOL    HW218924  13.535   6.088  13.502
72343SOL     OW18925  12.945   2.347  11.742
72343SOL    HW118926  12.943   2.253  11.723
72343SOL    HW218927  12.971   2.386  11.659
72344SOL     OW18928   7.408   6.896   9.537
72344SOL    HW118929   7.410   6.809   9.496
72344SOL    HW218930   7.385   6.879   9.628
72345SOL     OW18931   7.647   6.353   2.871
72345SOL    HW118932   7.712   6.283   2.883
72345SOL    HW218933   7.684   6.409   2.803
72346SOL     OW18934  13.252  12.892  12.750
72346SOL    HW118935  13.170  12.876  12.703
72346SOL    HW218936  13.300  12.953  12.694
72347SOL     OW18937   7.232  11.844  14.640
72347SOL    HW118938   7.321  11.818  14.618
72347SOL    HW218939   7.238  11.939  14.656
72348SOL     OW18940   4.367  14.142   5.186
72348SOL    HW118941   4.414  14.226   5.196
72348SOL    HW218942   4.407  14.102   5.108
72349SOL     OW18943   1.781   0.730   5.915
72349SOL    HW118944   1.815   0.820   5.910
72349SOL    HW218945   1.754   0.711   5.825
72350SOL     OW18946  11.007   2.838  11.556
72350SOL    HW118947  11.067   2.789  11.613
72350SOL    HW218948  10.928   2.785  11.554
72351SOL     OW18949   3.770   2.989   4.092
72351SOL    HW118950   3.768   3.080   4.062
72351SOL    HW218951   3.763   2.995   4.187
72352SOL     OW18952   0.279  12.859  10.105
72352SOL    HW118953   0.195  12.882  10.066
72352SOL    HW218954   0.266  12.773  10.144
72353SOL     OW18955  12.039   9.237   0.041
72353SOL    HW118956  11.957   9.272   0.008
72353SOL    HW218957  12.079   9.194  14.835
72354SOL     OW18958   7.075   4.432   3.920
72354SOL    HW118959   7.001   4.450   3.978
72354SOL    HW218960   7.048   4.468   3.836
72355SOL     OW18961  11.427   9.636  10.639
72355SOL    HW118962  11.450   9.574  10.709
72355SOL    HW218963  11.490   9.618  10.570
72356SOL     OW18964  13.502   8.099  10.845
72356SOL    HW118965  13.469   8.123  10.758
72356SOL    HW218966  13.549   8.176  10.875
72357SOL     OW18967   1.494  10.541   3.365
72357SOL    HW118968   1.552  10.488   3.310
72357SOL    HW218969   1.416  10.554   3.311
72358SOL     OW18970   0.599  14.823   0.734
72358SOL    HW118971   0.529  14.825   0.668
72358SOL    HW218972   0.679  14.809   0.684
72359SOL     OW18973   1.121   0.772  11.653
72359SOL    HW118974   1.135   0.834  11.725
72359SOL    HW218975   1.052   0.714  11.684
72360SOL     OW18976  14.111   3.302  10.936
72360SOL    HW118977  14.120   3.374  11.000
72360SOL    HW218978  14.084   3.227  10.989
72361SOL     OW18979   1.735  11.904   1.700
72361SOL    HW118980   1.734  11.956   1.781
72361SOL    HW218981   1.703  11.818   1.726
72362SOL     OW18982   2.706  10.081  12.321
72362SOL    HW118983   2.797  10.055  12.335
72362SOL    HW218984   2.684  10.133  12.398
72363SOL     OW18985  13.149   9.788   9.371
72363SOL    HW118986  13.142   9.696   9.344
72363SOL    HW218987  13.125   9.838   9.294
72364SOL     OW18988   0.437  11.677  10.506
72364SOL    HW118989   0.412  11.593  10.466
72364SOL    HW218990   0.530  11.667  10.526
72365SOL     OW18991   4.663   4.822  12.770
72365SOL    HW118992   4.630   4.902  12.728
72365SOL    HW218993   4.595   4.757  12.751
72366SOL     OW18994   2.953  10.403  11.785
72366SOL    HW118995   3.043  10.389  11.814
72366SOL    HW218996   2.958  10.404  11.689
72367SOL     OW18997  14.341   6.308  12.590
72367SOL    HW118998  14.407   6.316  12.658
72367SOL    HW218999  14.363   6.227  12.544
72368SOL     OW19000  14.857   2.640   5.843
72368SOL    HW119001  14.827   2.713   5.897
72368SOL    HW219002   0.083   2.642   5.852
72369SOL     OW19003   0.913   4.285   8.873
72369SOL    HW119004   0.960   4.299   8.791
72369SOL    HW219005   0.962   4.338   8.937
72370SOL     OW19006  10.001   3.569   2.893
72370SOL    HW119007   9.938   3.510   2.935
72370SOL    HW219008  10.086   3.538   2.925
72371SOL     OW19009   4.736   7.306  11.699
72371SOL    HW119010   4.750   7.308  11.604
72371SOL    HW219011   4.756   7.395  11.728
72372SOL     OW19012  14.390   7.604   1.824
72372SOL    HW119013  14.371   7.511   1.839
72372SOL    HW219014  14.354   7.648   1.901
72373SOL     OW19015   7.848   1.390   4.751
72373SOL    HW119016   7.813   1.474   4.720
72373SOL    HW219017   7.867   1.341   4.672
72374SOL     OW19018   9.761   3.069   9.128
72374SOL    HW119019   9.844   3.117   9.125
72374SOL    HW219020   9.754   3.029   9.041
72375SOL     OW19021  11.291  10.792   4.450
72375SOL    HW119022  11.254  10.853   4.385
72375SOL    HW219023  11.283  10.838   4.533
72376SOL     OW19024   0.592   5.757   1.008
72376SOL    HW119025   0.646   5.704   0.950
72376SOL    HW219026   0.507   5.762   0.965
72377SOL     OW19027   6.812   9.917   6.435
72377SOL    HW119028   6.898   9.880   6.417
72377SOL    HW219029   6.751   9.844   6.420
72378SOL     OW19030   8.020   1.745   0.265
72378SOL    HW119031   8.086   1.753   0.196
72378SOL    HW219032   7.942   1.713   0.219
72379SOL     OW19033   7.336  11.191  12.920
72379SOL    HW119034   7.423  11.156  12.900
72379SOL    HW219035   7.350  11.251  12.994
72380SOL     OW19036   1.320   4.968  13.790
72380SOL    HW119037   1.337   4.878  13.816
72380SOL    HW219038   1.349   5.021  13.865
72381SOL     OW19039  14.851   0.880   6.606
72381SOL    HW119040   0.052   0.818   6.622
72381SOL    HW219041  14.776   0.844   6.653
72382SOL     OW19042   0.958   8.432   3.783
72382SOL    HW119043   1.023   8.362   3.771
72382SOL    HW219044   0.902   8.426   3.706
72383SOL     OW19045  13.123   6.701  14.418
72383SOL    HW119046  13.030   6.681  14.417
72383SOL    HW219047  13.146   6.703  14.511
72384SOL     OW19048   0.641  13.369  10.521
72384SOL    HW119049   0.648  13.344  10.613
72384SOL    HW219050   0.548  13.362  10.501
72385SOL     OW19051  10.649   2.624   9.246
72385SOL    HW119052  10.717   2.688   9.268
72385SOL    HW219053  10.579   2.639   9.309
72386SOL     OW19054   2.697   2.795   9.628
72386SOL    HW119055   2.734   2.711   9.603
72386SOL    HW219056   2.691   2.792   9.724
72387SOL     OW19057  13.749   5.360  11.715
72387SOL    HW119058  13.794   5.329  11.794
72387SOL    HW219059  13.787   5.307  11.645
72388SOL     OW19060   1.418  13.066   1.994
72388SOL    HW119061   1.449  12.976   1.984
72388SOL    HW219062   1.466  13.099   2.070
72389SOL     OW19063   6.963   8.916   6.482
72389SOL    HW119064   6.892   8.900   6.544
72389SOL    HW219065   6.947   8.854   6.410
72390SOL     OW19066   3.271   2.745   8.818
72390SOL    HW119067   3.291   2.818   8.760
72390SOL    HW219068   3.348   2.688   8.812
72391SOL     OW19069   6.984   9.657   1.783
72391SOL    HW119070   7.026   9.655   1.698
72391SOL    HW219071   6.954   9.567   1.797
72392SOL     OW19072   9.063   9.175   0.138
72392SOL    HW119073   9.145   9.128   0.123
72392SOL    HW219074   9.054   9.233   0.062
72393SOL     OW19075   4.875   4.583   9.610
72393SOL    HW119076   4.959   4.598   9.654
72393SOL    HW219077   4.898   4.528   9.534
72394SOL     OW19078   0.032   1.488   7.945
72394SOL    HW119079  14.858   1.517   8.025
72394SOL    HW219080   0.123   1.514   7.956
72395SOL     OW19081   1.032   2.940   6.690
72395SOL    HW119082   1.115   2.988   6.694
72395SOL    HW219083   0.998   2.958   6.602
72396SOL     OW19084  13.603   3.895   8.879
72396SOL    HW119085  13.605   3.862   8.969
72396SOL    HW219086  13.600   3.816   8.825
72397SOL     OW19087  12.321   5.862   1.469
72397SOL    HW119088  12.253   5.814   1.516
72397SOL    HW219089  12.274   5.911   1.402
72398SOL     OW19090   5.753   0.106   7.574
72398SOL    HW119091   5.694   0.181   7.568
72398SOL    HW219092   5.735   0.069   7.660
72399SOL     OW19093   4.474  13.876   3.977
72399SOL    HW119094   4.469  13.843   4.067
72399SOL    HW219095   4.440  13.805   3.923
72400SOL     OW19096   3.300   0.880   0.892
72400SOL    HW119097   3.263   0.802   0.850
72400SOL    HW219098   3.225   0.938   0.905
72401SOL     OW19099   1.485   2.997   8.564
72401SOL    HW119100   1.508   3.028   8.651
72401SOL    HW219101   1.565   3.007   8.513
72402SOL     OW19102   6.444   9.833  11.771
72402SOL    HW119103   6.451   9.743  11.801
72402SOL    HW219104   6.378   9.873  11.828
72403SOL     OW19105   1.437   4.370   5.879
72403SOL    HW119106   1.456   4.462   5.863
72403SOL    HW219107   1.348   4.370   5.915
72404SOL     OW19108   2.274  12.471   2.945
72404SOL    HW119109   2.321  12.415   2.883
72404SOL    HW219110   2.260  12.415   3.022
72405SOL     OW19111  13.089   8.095   5.162
72405SOL    HW119112  13.032   8.018   5.154
72405SOL    HW219113  13.035   8.167   5.131
72406SOL     OW19114  12.861  11.016   6.997
72406SOL    HW119115  12.899  10.931   6.974
72406SOL    HW219116  12.834  11.053   6.913
72407SOL     OW19117   0.956   9.211   5.008
72407SOL    HW119118   0.909   9.292   4.988
72407SOL    HW219119   0.982   9.222   5.100
72408SOL     OW19120   5.762  14.249  14.008
72408SOL    HW119121   5.809  14.192  14.069
72408SOL    HW219122   5.759  14.200  13.926
72409SOL     OW19123   8.494   5.166   9.302
72409SOL    HW119124   8.526   5.091   9.351
72409SOL    HW219125   8.453   5.223   9.368
72410SOL     OW19126   2.104  10.575   2.311
72410SOL    HW119127   2.051  10.654   2.303
72410SOL    HW219128   2.040  10.504   2.322
72411SOL     OW19129   5.850  11.829  10.828
72411SOL    HW119130   5.807  11.764  10.884
72411SOL    HW219131   5.944  11.810  10.838
72412SOL     OW19132  14.693  11.166   8.242
72412SOL    HW119133  14.612  11.128   8.276
72412SOL    HW219134  14.762  11.131   8.299
72413SOL     OW19135   0.918   9.968   5.411
72413SOL    HW119136   0.964   9.897   5.454
72413SOL    HW219137   0.831   9.969   5.452
72414SOL     OW19138  11.628  13.092   7.827
72414SOL    HW119139  11.581  13.098   7.910
72414SOL    HW219140  11.689  13.019   7.838
72415SOL     OW19141  10.238   6.809  14.784
72415SOL    HW119142  10.203   6.851  14.862
72415SOL    HW219143  10.259   6.720  14.812
72416SOL     OW19144   5.107   8.939   1.510
72416SOL    HW119145   5.081   8.859   1.466
72416SOL    HW219146   5.124   9.001   1.440
72417SOL     OW19147   9.448  13.825   3.448
72417SOL    HW119148   9.515  13.812   3.381
72417SOL    HW219149   9.493  13.874   3.517
72418SOL     OW19150   3.178   6.840   3.304
72418SOL    HW119151   3.273   6.830   3.299
72418SOL    HW219152   3.165   6.923   3.350
72419SOL     OW19153  11.296  10.976   8.847
72419SOL    HW119154  11.270  10.951   8.935
72419SOL    HW219155  11.221  10.950   8.792
72420SOL     OW19156   9.394  13.807   8.264
72420SOL    HW119157   9.478  13.768   8.287
72420SOL    HW219158   9.331  13.770   8.326
72421SOL     OW19159   3.791   2.777   0.943
72421SOL    HW119160   3.864   2.810   0.890
72421SOL    HW219161   3.826   2.699   0.986
72422SOL     OW19162   9.054   2.019   7.273
72422SOL    HW119163   8.979   2.053   7.224
72422SOL    HW219164   9.058   1.926   7.249
72423SOL     OW19165   0.204  14.617   5.552
72423SOL    HW119166   0.269  14.558   5.589
72423SOL    HW219167   0.246  14.703   5.553
72424SOL     OW19168  12.991   2.106   6.630
72424SOL    HW119169  13.021   2.038   6.571
72424SOL    HW219170  13.052   2.103   6.704
72425SOL     OW19171   8.596   0.005  13.054
72425SOL    HW119172   8.624  14.803  13.112
72425SOL    HW219173   8.557  14.830  12.979
72426SOL     OW19174   1.448   4.950   3.623
72426SOL    HW119175   1.412   4.880   3.569
72426SOL    HW219176   1.505   4.999   3.563
72427SOL     OW19177   0.396  13.416   3.054
72427SOL    HW119178   0.434  13.494   3.092
72427SOL    HW219179   0.304  13.418   3.080
72428SOL     OW19180  10.928   3.878   7.888
72428SOL    HW119181  10.990   3.805   7.892
72428SOL    HW219182  10.921   3.898   7.794
72429SOL     OW19183   4.797   7.247   8.104
72429SOL    HW119184   4.821   7.248   8.197
72429SOL    HW219185   4.713   7.201   8.101
72430SOL     OW19186  10.483   0.459   4.425
72430SOL    HW119187  10.431   0.384   4.453
72430SOL    HW219188  10.443   0.534   4.470
72431SOL     OW19189   5.382   3.448   2.662
72431SOL    HW119190   5.442   3.414   2.729
72431SOL    HW219191   5.373   3.541   2.683
72432SOL     OW19192   2.353   3.356  14.047
72432SOL    HW119193   2.370   3.369  13.954
72432SOL    HW219194   2.418   3.410  14.091
72433SOL     OW19195   4.128   7.081  12.984
72433SOL    HW119196   4.061   7.026  12.945
72433SOL    HW219197   4.131   7.159  12.929
72434SOL     OW19198   3.822   1.837   8.356
72434SOL    HW119199   3.880   1.899   8.401
72434SOL    HW219200   3.881   1.784   8.303
72435SOL     OW19201   7.060   3.620   6.409
72435SOL    HW119202   6.979   3.635   6.359
72435SOL    HW219203   7.076   3.526   6.401
72436SOL     OW19204  11.815   0.370  12.480
72436SOL    HW119205  11.837   0.367  12.573
72436SOL    HW219206  11.898   0.383  12.435
72437SOL     OW19207   8.240   9.615  12.333
72437SOL    HW119208   8.322   9.662  12.344
72437SOL    HW219209   8.257   9.553  12.262
72438SOL     OW19210  11.485   3.657   2.255
72438SOL    HW119211  11.556   3.625   2.199
72438SOL    HW219212  11.431   3.710   2.196
72439SOL     OW19213   3.729  14.411  10.774
72439SOL    HW119214   3.660  14.348  10.793
72439SOL    HW219215   3.718  14.480  10.839
72440SOL     OW19216   9.437  14.165  10.342
72440SOL    HW119217   9.463  14.257  10.347
72440SOL    HW219218   9.459  14.129  10.427
72441SOL     OW19219   8.942  14.142   6.285
72441SOL    HW119220   8.932  14.236   6.298
72441SOL    HW219221   8.953  14.107   6.373
72442SOL     OW19222   2.338   3.262   8.905
72442SOL    HW119223   2.362   3.276   8.996
72442SOL    HW219224   2.325   3.350   8.869
72443SOL     OW19225   5.912   5.055   9.089
72443SOL    HW119226   5.901   5.139   9.045
72443SOL    HW219227   5.852   5.060   9.164
72444SOL     OW19228  14.497   1.803  12.676
72444SOL    HW119229  14.539   1.731  12.724
72444SOL    HW219230  14.485   1.769  12.587
72445SOL     OW19231   0.655   6.619   5.169
72445SOL    HW119232   0.735   6.665   5.142
72445SOL    HW219233   0.666   6.605   5.263
72446SOL     OW19234   5.997   6.689  10.205
72446SOL    HW119235   5.918   6.733  10.173
72446SOL    HW219236   6.008   6.614  10.147
72447SOL     OW19237   6.778  14.302  10.550
72447SOL    HW119238   6.702  14.361  10.557
72447SOL    HW219239   6.749  14.221  10.591
72448SOL     OW19240  11.742  13.743   7.272
72448SOL    HW119241  11.836  13.761   7.279
72448SOL    HW219242  11.700  13.825   7.298
72449SOL     OW19243  11.331   1.329   3.217
72449SOL    HW119244  11.329   1.246   3.266
72449SOL    HW219245  11.385   1.387   3.271
72450SOL     OW19246   7.796  14.667   6.223
72450SOL    HW119247   7.731  14.668   6.153
72450SOL    HW219248   7.748  14.638   6.301
72451SOL     OW19249  11.699   2.786   0.120
72451SOL    HW119250  11.663   2.697   0.119
72451SOL    HW219251  11.657   2.829   0.045
72452SOL     OW19252   0.253   6.644   2.327
72452SOL    HW119253   0.304   6.724   2.340
72452SOL    HW219254   0.169   6.675   2.292
72453SOL     OW19255   0.677   3.210   8.070
72453SOL    HW119256   0.754   3.267   8.064
72453SOL    HW219257   0.653   3.212   8.162
72454SOL     OW19258   1.421  13.109   0.911
72454SOL    HW119259   1.444  13.171   0.842
72454SOL    HW219260   1.332  13.134   0.936
72455SOL     OW19261  13.054   5.546   4.716
72455SOL    HW119262  13.099   5.560   4.800
72455SOL    HW219263  12.993   5.475   4.733
72456SOL     OW19264   1.622   3.056   0.588
72456SOL    HW119265   1.646   2.987   0.526
72456SOL    HW219266   1.592   3.128   0.533
72457SOL     OW19267   1.269   6.402   9.176
72457SOL    HW119268   1.239   6.357   9.255
72457SOL    HW219269   1.208   6.475   9.166
72458SOL     OW19270   6.844   4.880   7.107
72458SOL    HW119271   6.921   4.937   7.110
72458SOL    HW219272   6.770   4.939   7.123
72459SOL     OW19273   5.312   0.281  12.899
72459SOL    HW119274   5.326   0.218  12.829
72459SOL    HW219275   5.384   0.344  12.889
72460SOL     OW19276   4.944  12.191   4.746
72460SOL    HW119277   4.892  12.270   4.762
72460SOL    HW219278   4.883  12.131   4.704
72461SOL     OW19279  11.465   6.363  12.808
72461SOL    HW119280  11.383   6.313  12.813
72461SOL    HW219281  11.447   6.443  12.858
72462SOL     OW19282   0.316   9.811  13.624
72462SOL    HW119283   0.370   9.890  13.625
72462SOL    HW219284   0.257   9.822  13.699
72463SOL     OW19285  13.009   3.350   6.868
72463SOL    HW119286  12.969   3.270   6.902
72463SOL    HW219287  13.034   3.329   6.779
72464SOL     OW19288  13.984   9.344   2.584
72464SOL    HW119289  14.058   9.294   2.550
72464SOL    HW219290  13.911   9.282   2.586
72465SOL     OW19291   4.670   1.723   9.669
72465SOL    HW119292   4.617   1.680   9.736
72465SOL    HW219293   4.643   1.815   9.672
72466SOL     OW19294   3.230   7.873   4.942
72466SOL    HW119295   3.143   7.909   4.961
72466SOL    HW219296   3.276   7.877   5.026
72467SOL     OW19297   8.078   9.840   4.520
72467SOL    HW119298   8.026   9.803   4.449
72467SOL    HW219299   8.085   9.770   4.584
72468SOL     OW19300  14.784   0.274  10.414
72468SOL    HW119301  14.797   0.272  10.319
72468SOL    HW219302  14.859   0.323  10.448
72469SOL     OW19303  14.742  13.001   8.873
72469SOL    HW119304  14.823  13.018   8.920
72469SOL    HW219305  14.711  13.087   8.846
72470SOL     OW19306   4.518  10.740   1.806
72470SOL    HW119307   4.508  10.813   1.867
72470SOL    HW219308   4.536  10.664   1.862
72471SOL     OW19309   6.122  11.473  12.874
72471SOL    HW119310   6.211  11.470  12.909
72471SOL    HW219311   6.129  11.431  12.788
72472SOL     OW19312   0.104   5.638   5.169
72472SOL    HW119313   0.077   5.729   5.184
72472SOL    HW219314   0.184   5.645   5.117
72473SOL     OW19315   8.473  12.318   3.452
72473SOL    HW119316   8.502  12.298   3.541
72473SOL    HW219317   8.400  12.379   3.464
72474SOL     OW19318  13.336   3.454  14.685
72474SOL    HW119319  13.347   3.547  14.705
72474SOL    HW219320  13.400   3.411  14.742
72475SOL     OW19321   2.101   1.684  11.512
72475SOL    HW119322   2.112   1.674  11.417
72475SOL    HW219323   2.012   1.717  11.522
72476SOL     OW19324  12.570   1.310   3.797
72476SOL    HW119325  12.651   1.306   3.848
72476SOL    HW219326  12.570   1.397   3.758
72477SOL     OW19327  14.398   3.016  13.271
72477SOL    HW119328  14.387   2.961  13.193
72477SOL    HW219329  14.313   3.057  13.284
72478SOL     OW19330  14.475   9.735  11.930
72478SOL    HW119331  14.429   9.747  11.847
72478SOL    HW219332  14.469   9.641  11.947
72479SOL     OW19333   5.539   5.137   4.743
72479SOL    HW119334   5.618   5.192   4.744
72479SOL    HW219335   5.547   5.087   4.662
72480SOL     OW19336  12.577   2.554  10.922
72480SOL    HW119337  12.483   2.562  10.910
72480SOL    HW219338  12.613   2.566  10.834
72481SOL     OW19339   8.589   7.772   4.942
72481SOL    HW119340   8.626   7.701   4.994
72481SOL    HW219341   8.654   7.789   4.873
72482SOL     OW19342  10.115   3.273   2.679
72482SOL    HW119343  10.140   3.297   2.768
72482SOL    HW219344  10.195   3.283   2.628
72483SOL     OW19345  14.674   3.859   1.895
72483SOL    HW119346  14.750   3.897   1.940
72483SOL    HW219347  14.683   3.765   1.908
72484SOL     OW19348   2.886   7.810  12.260
72484SOL    HW119349   2.819   7.752  12.296
72484SOL    HW219350   2.926   7.758  12.190
72485SOL     OW19351  12.940   6.522   7.427
72485SOL    HW119352  12.998   6.588   7.466
72485SOL    HW219353  12.965   6.441   7.472
72486SOL     OW19354   6.779   8.320   1.244
72486SOL    HW119355   6.736   8.368   1.174
72486SOL    HW219356   6.741   8.354   1.325
72487SOL     OW19357   5.636  14.840   6.405
72487SOL    HW119358   5.632  14.806   6.494
72487SOL    HW219359   5.568   0.038   6.402
72488SOL     OW19360  13.413   8.499  14.412
72488SOL    HW119361  13.410   8.539  14.498
72488SOL    HW219362  13.453   8.565  14.356
72489SOL     OW19363  11.418   8.733  11.343
72489SOL    HW119364  11.456   8.738  11.255
72489SOL    HW219365  11.324   8.741  11.328
72490SOL     OW19366   0.005   5.814  13.810
72490SOL    HW119367   0.072   5.873  13.844
72490SOL    HW219368  14.792   5.849  13.843
72491SOL     OW19369  13.733   5.808   2.116
72491SOL    HW119370  13.736   5.739   2.183
72491SOL    HW219371  13.801   5.784   2.053
72492SOL     OW19372   1.309  10.029   6.703
72492SOL    HW119373   1.301  10.110   6.652
72492SOL    HW219374   1.336  10.059   6.790
72493SOL     OW19375   5.176   4.552   5.942
72493SOL    HW119376   5.121   4.567   6.019
72493SOL    HW219377   5.153   4.623   5.882
72494SOL     OW19378  13.766   5.680   0.907
72494SOL    HW119379  13.856   5.667   0.937
72494SOL    HW219380  13.755   5.614   0.838
72495SOL     OW19381   6.977  12.727  10.867
72495SOL    HW119382   6.889  12.698  10.889
72495SOL    HW219383   6.978  12.820  10.887
72496SOL     OW19384   4.126   7.185   6.449
72496SOL    HW119385   4.038   7.155   6.428
72496SOL    HW219386   4.184   7.131   6.395
72497SOL     OW19387  10.948   6.818  10.893
72497SOL    HW119388  11.042   6.813  10.873
72497SOL    HW219389  10.908   6.754  10.834
72498SOL     OW19390   0.136  12.386  14.558
72498SOL    HW119391   0.174  12.472  14.539
72498SOL    HW219392   0.075  12.370  14.486
72499SOL     OW19393   1.633   9.819  14.020
72499SOL    HW119394   1.700   9.760  13.986
72499SOL    HW219395   1.584   9.847  13.943
72500SOL     OW19396   5.126   2.662   8.409
72500SOL    HW119397   5.199   2.620   8.454
72500SOL    HW219398   5.156   2.671   8.319
72501SOL     OW19399  13.783   3.906   1.213
72501SOL    HW119400  13.715   3.841   1.194
72501SOL    HW219401  13.860   3.854   1.237
72502SOL     OW19402   4.956   5.273  10.098
72502SOL    HW119403   5.030   5.297  10.042
72502SOL    HW219404   4.893   5.345  10.084
72503SOL     OW19405  12.170   3.816   9.945
72503SOL    HW119406  12.222   3.775  10.015
72503SOL    HW219407  12.215   3.898   9.927
72504SOL     OW19408   9.653   3.211   1.434
72504SOL    HW119409   9.630   3.233   1.524
72504SOL    HW219410   9.636   3.117   1.427
72505SOL     OW19411   2.823   0.329   6.657
72505SOL    HW119412   2.783   0.412   6.632
72505SOL    HW219413   2.797   0.268   6.588
72506SOL     OW19414  12.800   6.092   5.742
72506SOL    HW119415  12.716   6.111   5.700
72506SOL    HW219416  12.796   5.998   5.761
72507SOL     OW19417  12.211   9.968   1.461
72507SOL    HW119418  12.122   9.978   1.493
72507SOL    HW219419  12.208   9.890   1.405
72508SOL     OW19420   1.506   9.860   9.579
72508SOL    HW119421   1.485   9.951   9.601
72508SOL    HW219422   1.550   9.866   9.494
72509SOL     OW19423  14.537  13.409   0.554
72509SOL    HW119424  14.485  13.391   0.476
72509SOL    HW219425  14.598  13.478   0.526
72510SOL     OW19426  10.890  10.826  12.087
72510SOL    HW119427  10.818  10.888  12.084
72510SOL    HW219428  10.890  10.792  12.177
72511SOL     OW19429   6.365  13.907   4.884
72511SOL    HW119430   6.416  13.975   4.928
72511SOL    HW219431   6.294  13.954   4.840
72512SOL     OW19432   7.147   9.711   0.909
72512SOL    HW119433   7.125   9.628   0.866
72512SOL    HW219434   7.081   9.722   0.977
72513SOL     OW19435   0.866   7.122   3.167
72513SOL    HW119436   0.842   7.212   3.145
72513SOL    HW219437   0.871   7.121   3.262
72514SOL     OW19438  14.221   3.409   2.852
72514SOL    HW119439  14.224   3.385   2.759
72514SOL    HW219440  14.223   3.326   2.899
72515SOL     OW19441   9.677   2.970  13.048
72515SOL    HW119442   9.648   2.896  13.102
72515SOL    HW219443   9.634   3.046  13.087
72516SOL     OW19444  14.259   7.026   6.480
72516SOL    HW119445  14.228   7.088   6.546
72516SOL    HW219446  14.220   6.942   6.505
72517SOL     OW19447   7.593  10.782  10.081
72517SOL    HW119448   7.505  10.815  10.062
72517SOL    HW219449   7.580  10.690  10.103
72518SOL     OW19450   7.725   3.467   8.496
72518SOL    HW119451   7.763   3.548   8.461
72518SOL    HW219452   7.787   3.439   8.564
72519SOL     OW19453   1.656  11.295  11.427
72519SOL    HW119454   1.745  11.261  11.417
72519SOL    HW219455   1.601  11.232  11.379
72520SOL     OW19456  12.106  11.467   3.914
72520SOL    HW119457  12.165  11.422   3.975
72520SOL    HW219458  12.024  11.478   3.962
72521SOL     OW19459   6.964  10.282   8.930
72521SOL    HW119460   6.889  10.223   8.927
72521SOL    HW219461   6.992  10.291   8.839
72522SOL     OW19462   0.497  10.547   6.287
72522SOL    HW119463   0.456  10.582   6.366
72522SOL    HW219464   0.428  10.548   6.221
72523SOL     OW19465   2.356   3.186   7.811
72523SOL    HW119466   2.353   3.115   7.747
72523SOL    HW219467   2.365   3.266   7.759
72524SOL     OW19468   6.713   9.471   3.853
72524SOL    HW119469   6.739   9.531   3.783
72524SOL    HW219470   6.631   9.507   3.887
72525SOL     OW19471  11.009  14.067  12.655
72525SOL    HW119472  11.078  14.126  12.685
72525SOL    HW219473  11.014  14.070  12.560
72526SOL     OW19474  10.204  13.207   0.762
72526SOL    HW119475  10.235  13.126   0.803
72526SOL    HW219476  10.119  13.184   0.725
72527SOL     OW19477  10.605  13.626  14.066
72527SOL    HW119478  10.678  13.649  14.124
72527SOL    HW219479  10.633  13.654  13.979
72528SOL     OW19480   4.286   0.163  13.118
72528SOL    HW119481   4.199   0.197  13.095
72528SOL    HW219482   4.346   0.234  13.096
72529SOL     OW19483   5.668  13.425  13.948
72529SOL    HW119484   5.605  13.432  14.019
72529SOL    HW219485   5.651  13.340  13.908
72530SOL     OW19486   1.035   1.793   4.715
72530SOL    HW119487   0.957   1.796   4.770
72530SOL    HW219488   1.033   1.707   4.675
72531SOL     OW19489   5.869   5.212  14.834
72531SOL    HW119490   5.925   5.261   0.025
72531SOL    HW219491   5.780   5.228  14.865
72532SOL     OW19492  11.013   7.678  14.106
72532SOL    HW119493  11.059   7.675  14.022
72532SOL    HW219494  10.982   7.589  14.120
72533SOL     OW19495  13.669   4.760   8.962
72533SOL    HW119496  13.666   4.852   8.990
72533SOL    HW219497  13.631   4.712   9.036
72534SOL     OW19498  13.216   4.342  14.722
72534SOL    HW119499  13.216   4.434  14.698
72534SOL    HW219500  13.123   4.320  14.732
72535SOL     OW19501   5.454  14.323   5.590
72535SOL    HW119502   5.515  14.378   5.541
72535SOL    HW219503   5.420  14.262   5.524
72536SOL     OW19504  11.146   7.076  14.342
72536SOL    HW119505  11.146   7.013  14.270
72536SOL    HW219506  11.095   7.033  14.411
72537SOL     OW19507   2.777   6.478   4.811
72537SOL    HW119508   2.857   6.514   4.773
72537SOL    HW219509   2.791   6.484   4.906
72538SOL     OW19510   8.142   0.663   1.462
72538SOL    HW119511   8.053   0.689   1.439
72538SOL    HW219512   8.143   0.662   1.557
72539SOL     OW19513   1.378   4.156   6.582
72539SOL    HW119514   1.321   4.231   6.564
72539SOL    HW219515   1.318   4.087   6.610
72540SOL     OW19516   3.974   6.840   7.093
72540SOL    HW119517   3.949   6.908   7.030
72540SOL    HW219518   4.067   6.826   7.076
72541SOL     OW19519  12.892   0.282   6.748
72541SOL    HW119520  12.816   0.340   6.735
72541SOL    HW219521  12.965   0.341   6.762
72542SOL     OW19522   4.835   1.606  14.661
72542SOL    HW119523   4.837   1.665  14.736
72542SOL    HW219524   4.927   1.585  14.645
72543SOL     OW19525   1.538   9.340   5.184
72543SOL    HW119526   1.571   9.255   5.155
72543SOL    HW219527   1.580   9.355   5.269
72544SOL     OW19528  14.240   3.549   4.742
72544SOL    HW119529  14.163   3.542   4.798
72544SOL    HW219530  14.209   3.524   4.655
72545SOL     OW19531   3.427  13.666   2.213
72545SOL    HW119532   3.333  13.682   2.218
72545SOL    HW219533   3.435  13.570   2.212
72546SOL     OW19534   6.974   3.337   7.265
72546SOL    HW119535   7.038   3.297   7.207
72546SOL    HW219536   7.009   3.425   7.282
72547SOL     OW19537   0.235  14.490   0.889
72547SOL    HW119538   0.185  14.418   0.925
72547SOL    HW219539   0.247  14.468   0.796
72548SOL     OW19540   3.830   4.158   4.395
72548SOL    HW119541   3.805   4.144   4.303
72548SOL    HW219542   3.898   4.093   4.412
72549SOL     OW19543   3.235   1.092   1.842
72549SOL    HW119544   3.240   1.018   1.902
72549SOL    HW219545   3.144   1.093   1.813
72550SOL     OW19546   9.652   9.874   1.372
72550SOL    HW119547   9.745   9.859   1.357
72550SOL    HW219548   9.623   9.926   1.296
72551SOL     OW19549   6.462  13.304  11.554
72551SOL    HW119550   6.507  13.323  11.471
72551SOL    HW219551   6.528  13.319  11.621
72552SOL     OW19552  11.705  13.668   6.467
72552SOL    HW119553  11.739  13.750   6.503
72552SOL    HW219554  11.782  13.616   6.446
72553SOL     OW19555   7.673   9.716  13.363
72553SOL    HW119556   7.688   9.810  13.352
72553SOL    HW219557   7.737   9.675  13.305
72554SOL     OW19558  11.563   7.742   2.610
72554SOL    HW119559  11.585   7.650   2.594
72554SOL    HW219560  11.639   7.791   2.580
72555SOL     OW19561   0.121  11.296   8.514
72555SOL    HW119562   0.066  11.373   8.527
72555SOL    HW219563   0.170  11.287   8.596
72556SOL     OW19564  12.674  10.738   5.044
72556SOL    HW119565  12.597  10.767   5.094
72556SOL    HW219566  12.700  10.815   4.993
72557SOL     OW19567  14.840   2.387  10.896
72557SOL    HW119568   0.060   2.354  10.890
72557SOL    HW219569  14.812   2.400  10.805
72558SOL     OW19570   5.937   8.213  13.782
72558SOL    HW119571   5.970   8.154  13.850
72558SOL    HW219572   5.849   8.180  13.762
72559SOL     OW19573   7.438  14.429   7.825
72559SOL    HW119574   7.352  14.390   7.819
72559SOL    HW219575   7.499  14.360   7.799
72560SOL     OW19576   9.153  14.517  13.955
72560SOL    HW119577   9.116  14.464  14.025
72560SOL    HW219578   9.154  14.460  13.878
72561SOL     OW19579  14.809  11.288   4.594
72561SOL    HW119580  14.857  11.276   4.512
72561SOL    HW219581  14.853  11.361   4.637
72562SOL     OW19582   6.824  11.617   3.350
72562SOL    HW119583   6.827  11.619   3.255
72562SOL    HW219584   6.819  11.710   3.376
72563SOL     OW19585  12.294   9.108   5.365
72563SOL    HW119586  12.341   9.034   5.403
72563SOL    HW219587  12.345   9.133   5.288
72564SOL     OW19588   6.907   1.049   9.679
72564SOL    HW119589   6.886   1.064   9.771
72564SOL    HW219590   6.992   1.092   9.667
72565SOL     OW19591   6.650   7.708  12.974
72565SOL    HW119592   6.684   7.666  12.895
72565SOL    HW219593   6.714   7.686  13.042
72566SOL     OW19594   8.976   6.585   1.636
72566SOL    HW119595   8.956   6.636   1.714
72566SOL    HW219596   9.072   6.582   1.634
72567SOL     OW19597  13.503  12.946   1.914
72567SOL    HW119598  13.423  12.997   1.905
72567SOL    HW219599  13.571  13.010   1.930
72568SOL     OW19600   6.905   3.609   7.610
72568SOL    HW119601   6.867   3.690   7.642
72568SOL    HW219602   6.947   3.570   7.686
72569SOL     OW19603   4.090  13.126  13.783
72569SOL    HW119604   4.172  13.148  13.737
72569SOL    HW219605   4.063  13.043  13.744
72570SOL     OW19606   6.248  11.705   4.459
72570SOL    HW119607   6.308  11.736   4.391
72570SOL    HW219608   6.303  11.698   4.537
72571SOL     OW19609  10.072   3.009   2.701
72571SOL    HW119610  10.126   3.087   2.695
72571SOL    HW219611  10.060   2.994   2.795
72572SOL     OW19612   6.974  11.440   8.949
72572SOL    HW119613   7.030  11.418   9.023
72572SOL    HW219614   6.897  11.385   8.959
72573SOL     OW19615  13.158   0.481   9.861
72573SOL    HW119616  13.142   0.500   9.954
72573SOL    HW219617  13.237   0.530   9.839
72574SOL     OW19618   6.030   7.715   2.446
72574SOL    HW119619   6.046   7.646   2.381
72574SOL    HW219620   6.065   7.679   2.528
72575SOL     OW19621  11.915   3.540   3.953
72575SOL    HW119622  11.886   3.628   3.975
72575SOL    HW219623  11.896   3.530   3.859
72576SOL     OW19624  11.028   3.476   0.437
72576SOL    HW119625  11.124   3.477   0.433
72576SOL    HW219626  11.008   3.410   0.504
72577SOL     OW19627   8.476  12.367   2.475
72577SOL    HW119628   8.545  12.395   2.415
72577SOL    HW219629   8.505  12.282   2.506
72578SOL     OW19630  12.597  10.822   2.882
72578SOL    HW119631  12.616  10.827   2.976
72578SOL    HW219632  12.513  10.867   2.873
72579SOL     OW19633   3.164   2.766   1.424
72579SOL    HW119634   3.205   2.830   1.482
72579SOL    HW219635   3.079   2.747   1.466
72580SOL     OW19636   1.341   4.563   6.532
72580SOL    HW119637   1.407   4.625   6.564
72580SOL    HW219638   1.319   4.509   6.608
72581SOL     OW19639   9.874   6.959   3.744
72581SOL    HW119640   9.913   7.033   3.698
72581SOL    HW219641   9.781   6.980   3.750
72582SOL     OW19642   1.433  10.883   3.277
72582SOL    HW119643   1.396  10.819   3.217
72582SOL    HW219644   1.514  10.843   3.308
72583SOL     OW19645   5.776   7.878  13.238
72583SOL    HW119646   5.833   7.830  13.178
72583SOL    HW219647   5.744   7.812  13.299
72584SOL     OW19648  14.701  12.704   1.733
72584SOL    HW119649  14.632  12.670   1.675
72584SOL    HW219650  14.697  12.649   1.811
72585SOL     OW19651  12.481   2.950   7.933
72585SOL    HW119652  12.571   2.925   7.913
72585SOL    HW219653  12.488   3.004   8.012
72586SOL     OW19654   2.993   5.141   8.779
72586SOL    HW119655   2.916   5.184   8.816
72586SOL    HW219656   3.023   5.201   8.711
72587SOL     OW19657   6.496  12.639  14.492
72587SOL    HW119658   6.573  12.675  14.536
72587SOL    HW219659   6.501  12.545  14.506
72588SOL     OW19660   8.524   2.078   1.212
72588SOL    HW119661   8.536   2.002   1.154
72588SOL    HW219662   8.569   2.149   1.167
72589SOL     OW19663   2.659  14.151   5.001
72589SOL    HW119664   2.679  14.223   5.060
72589SOL    HW219665   2.617  14.192   4.926
72590SOL     OW19666   2.758   0.442   7.173
72590SOL    HW119667   2.724   0.416   7.259
72590SOL    HW219668   2.707   0.392   7.110
72591SOL     OW19669  14.279   4.980   2.032
72591SOL    HW119670  14.280   4.899   1.981
72591SOL    HW219671  14.200   4.973   2.086
72592SOL     OW19672   1.533   0.747  10.561
72592SOL    HW119673   1.476   0.751  10.485
72592SOL    HW219674   1.488   0.688  10.622
72593SOL     OW19675   1.474  10.154   6.200
72593SOL    HW119676   1.437  10.082   6.150
72593SOL    HW219677   1.508  10.114   6.280
72594SOL     OW19678   4.157   1.782  10.128
72594SOL    HW119679   4.188   1.808  10.041
72594SOL    HW219680   4.203   1.840  10.188
72595SOL     OW19681  13.002   9.279  11.473
72595SOL    HW119682  12.994   9.339  11.548
72595SOL    HW219683  12.921   9.291  11.424
72596SOL     OW19684   8.271  12.493   0.066
72596SOL    HW119685   8.296  12.522   0.154
72596SOL    HW219686   8.175  12.495   0.067
72597SOL     OW19687  11.261   2.513   7.034
72597SOL    HW119688  11.279   2.598   7.074
72597SOL    HW219689  11.302   2.518   6.948
72598SOL     OW19690   3.394   7.702  13.461
72598SOL    HW119691   3.352   7.762  13.522
72598SOL    HW219692   3.435   7.636  13.518
72599SOL     OW19693  12.529   6.907   6.332
72599SOL    HW119694  12.570   6.828   6.368
72599SOL    HW219695  12.588   6.978   6.356
72600SOL     OW19696  14.282   6.841   2.515
72600SOL    HW119697  14.262   6.901   2.443
72600SOL    HW219698  14.214   6.774   2.510
72601SOL     OW19699  10.731   2.183   8.356
72601SOL    HW119700  10.682   2.262   8.336
72601SOL    HW219701  10.665   2.113   8.355
72602SOL     OW19702  10.522  11.142   3.894
72602SOL    HW119703  10.590  11.206   3.915
72602SOL    HW219704  10.497  11.104   3.978
72603SOL     OW19705   7.816   3.108   8.774
72603SOL    HW119706   7.797   3.014   8.779
72603SOL    HW219707   7.902   3.113   8.734
72604SOL     OW19708   4.140  14.107  10.465
72604SOL    HW119709   4.122  14.175  10.400
72604SOL    HW219710   4.055  14.090  10.507
72605SOL     OW19711   6.626   6.692   5.747
72605SOL    HW119712   6.662   6.745   5.819
72605SOL    HW219713   6.544   6.737   5.724
72606SOL     OW19714   0.345   7.027  12.439
72606SOL    HW119715   0.426   7.021  12.389
72606SOL    HW219716   0.276   7.015  12.374
72607SOL     OW19717   4.110   8.985   4.012
72607SOL    HW119718   4.169   9.061   4.015
72607SOL    HW219719   4.131   8.941   3.930
72608SOL     OW19720  14.100   7.443   5.920
72608SOL    HW119721  14.133   7.526   5.884
72608SOL    HW219722  14.149   7.431   6.001
72609SOL     OW19723  10.407  13.277   1.886
72609SOL    HW119724  10.312  13.271   1.880
72609SOL    HW219725  10.439  13.216   1.820
72610SOL     OW19726  11.576   9.124   4.598
72610SOL    HW119727  11.496   9.080   4.568
72610SOL    HW219728  11.549   9.214   4.614
72611SOL     OW19729   4.993   0.609   9.051
72611SOL    HW119730   5.053   0.560   9.107
72611SOL    HW219731   5.033   0.695   9.041
72612SOL     OW19732  11.364  12.135   9.297
72612SOL    HW119733  11.324  12.221   9.300
72612SOL    HW219734  11.457  12.152   9.280
72613SOL     OW19735  14.505   5.689  10.289
72613SOL    HW119736  14.473   5.621  10.348
72613SOL    HW219737  14.524   5.643  10.207
72614SOL     OW19738   0.094  14.187   7.396
72614SOL    HW119739   0.081  14.099   7.431
72614SOL    HW219740   0.094  14.176   7.301
72615SOL     OW19741   2.367   7.655   1.122
72615SOL    HW119742   2.331   7.654   1.033
72615SOL    HW219743   2.344   7.569   1.158
72616SOL     OW19744   5.123  11.649   3.487
72616SOL    HW119745   5.054  11.715   3.489
72616SOL    HW219746   5.152  11.647   3.396
72617SOL     OW19747   9.648  11.106  12.880
72617SOL    HW119748   9.640  11.020  12.839
72617SOL    HW219749   9.641  11.090  12.974
72618SOL     OW19750  13.150  10.627  12.238
72618SOL    HW119751  13.231  10.649  12.282
72618SOL    HW219752  13.154  10.675  12.155
72619SOL     OW19753   4.841   7.899   7.281
72619SOL    HW119754   4.754   7.884   7.318
72619SOL    HW219755   4.894   7.926   7.355
72620SOL     OW19756   0.631   3.670  10.706
72620SOL    HW119757   0.586   3.674  10.790
72620SOL    HW219758   0.714   3.626  10.726
72621SOL     OW19759   0.272   5.160   3.882
72621SOL    HW119760   0.245   5.216   3.810
72621SOL    HW219761   0.244   5.207   3.961
72622SOL     OW19762  10.628  14.360   1.986
72622SOL    HW119763  10.552  14.372   2.043
72622SOL    HW219764  10.595  14.372   1.897
72623SOL     OW19765   3.109  10.094  12.107
72623SOL    HW119766   3.066  10.130  12.030
72623SOL    HW219767   3.203  10.110  12.092
72624SOL     OW19768   7.097  11.894   7.534
72624SOL    HW119769   7.033  11.927   7.470
72624SOL    HW219770   7.072  11.936   7.616
72625SOL     OW19771  10.116   1.854   1.131
72625SOL    HW119772  10.179   1.880   1.198
72625SOL    HW219773  10.143   1.766   1.104
72626SOL     OW19774   8.393   5.303   3.129
72626SOL    HW119775   8.329   5.325   3.196
72626SOL    HW219776   8.438   5.386   3.110
72627SOL     OW19777   8.758   2.467  14.137
72627SOL    HW119778   8.714   2.546  14.170
72627SOL    HW219779   8.697   2.396  14.158
72628SOL     OW19780   5.469   5.055   7.189
72628SOL    HW119781   5.535   5.124   7.183
72628SOL    HW219782   5.386   5.099   7.170
72629SOL     OW19783   3.480   3.344   5.126
72629SOL    HW119784   3.496   3.253   5.101
72629SOL    HW219785   3.385   3.354   5.119
72630SOL     OW19786  13.110   4.324  10.971
72630SOL    HW119787  13.195   4.307  10.931
72630SOL    HW219788  13.047   4.288  10.909
72631SOL     OW19789   9.500   8.935   5.312
72631SOL    HW119790   9.587   8.900   5.296
72631SOL    HW219791   9.514   9.029   5.325
72632SOL     OW19792  13.145   7.354   0.795
72632SOL    HW119793  13.140   7.268   0.837
72632SOL    HW219794  13.057   7.369   0.761
72633SOL     OW19795   7.989  11.967  10.627
72633SOL    HW119796   7.987  11.902  10.557
72633SOL    HW219797   8.079  12.000  10.627
72634SOL     OW19798  10.842   6.226   0.239
72634SOL    HW119799  10.764   6.177   0.265
72634SOL    HW219800  10.830   6.313   0.278
72635SOL     OW19801   3.602   7.011  11.727
72635SOL    HW119802   3.521   7.003  11.777
72635SOL    HW219803   3.575   7.039  11.640
72636SOL     OW19804   1.875   5.569   1.580
72636SOL    HW119805   1.800   5.515   1.555
72636SOL    HW219806   1.865   5.650   1.531
72637SOL     OW19807  14.570   7.781   6.322
72637SOL    HW119808  14.593   7.835   6.398
72637SOL    HW219809  14.602   7.694   6.344
72638SOL     OW19810   5.931  12.453   0.544
72638SOL    HW119811   5.933  12.535   0.595
72638SOL    HW219812   6.021  12.441   0.515
72639SOL     OW19813   2.753  12.676  13.994
72639SOL    HW119814   2.757  12.758  13.945
72639SOL    HW219815   2.706  12.616  13.935
72640SOL     OW19816  10.084  12.190   6.368
72640SOL    HW119817  10.026  12.120   6.338
72640SOL    HW219818  10.147  12.147   6.426
72641SOL     OW19819   1.641   2.504  11.505
72641SOL    HW119820   1.623   2.598  11.501
72641SOL    HW219821   1.736   2.498  11.509
72642SOL     OW19822  11.230   0.666   1.896
72642SOL    HW119823  11.255   0.646   1.806
72642SOL    HW219824  11.313   0.668   1.944
72643SOL     OW19825   9.342   4.333   7.650
72643SOL    HW119826   9.284   4.400   7.688
72643SOL    HW219827   9.340   4.350   7.556
72644SOL     OW19828   4.062   5.883  11.962
72644SOL    HW119829   4.102   5.837  12.035
72644SOL    HW219830   3.993   5.936  12.001
72645SOL     OW19831   6.028  11.058   3.335
72645SOL    HW119832   6.098  11.089   3.278
72645SOL    HW219833   5.969  11.011   3.277
72646SOL     OW19834   7.730   8.738   8.402
72646SOL    HW119835   7.704   8.649   8.426
72646SOL    HW219836   7.807   8.726   8.346
72647SOL     OW19837  13.016   6.214  11.637
72647SOL    HW119838  13.091   6.261  11.602
72647SOL    HW219839  12.993   6.261  11.718
72648SOL     OW19840   3.086  13.630   2.870
72648SOL    HW119841   3.130  13.649   2.953
72648SOL    HW219842   2.993  13.649   2.887
72649SOL     OW19843  13.170   5.978   1.469
72649SOL    HW119844  13.185   5.953   1.378
72649SOL    HW219845  13.091   6.032   1.467
72650SOL     OW19846  14.354  10.027  14.199
72650SOL    HW119847  14.277  10.073  14.164
72650SOL    HW219848  14.321   9.939  14.219
72651SOL     OW19849  10.511  14.713   1.639
72651SOL    HW119850  10.598  14.696   1.602
72651SOL    HW219851  10.508  14.808   1.649
72652SOL     OW19852   2.331  14.171   4.846
72652SOL    HW119853   2.250  14.199   4.888
72652SOL    HW219854   2.367  14.105   4.904
72653SOL     OW19855  11.841  13.745   2.335
72653SOL    HW119856  11.850  13.732   2.430
72653SOL    HW219857  11.858  13.658   2.298
72654SOL     OW19858   4.112   8.336   3.136
72654SOL    HW119859   4.121   8.241   3.130
72654SOL    HW219860   4.024   8.354   3.103
72655SOL     OW19861  10.053  11.725  10.850
72655SOL    HW119862  10.096  11.810  10.843
72655SOL    HW219863  10.073  11.695  10.938
72656SOL     OW19864   2.705   1.440   0.192
72656SOL    HW119865   2.746   1.403   0.270
72656SOL    HW219866   2.713   1.373   0.125
72657SOL     OW19867  13.176   4.470   4.986
72657SOL    HW119868  13.182   4.384   4.943
72657SOL    HW219869  13.084   4.475   5.014
72658SOL     OW19870   2.455   8.474  10.351
72658SOL    HW119871   2.490   8.387  10.330
72658SOL    HW219872   2.360   8.461  10.355
72659SOL     OW19873  13.365  10.227   1.891
72659SOL    HW119874  13.274  10.236   1.920
72659SOL    HW219875  13.413  10.200   1.970
72660SOL     OW19876   1.242  11.609  13.177
72660SOL    HW119877   1.313  11.551  13.205
72660SOL    HW219878   1.247  11.683  13.238
72661SOL     OW19879   3.686  11.888  12.215
72661SOL    HW119880   3.747  11.920  12.283
72661SOL    HW219881   3.688  11.793  12.225
72662SOL     OW19882  11.560   7.561  11.158
72662SOL    HW119883  11.566   7.639  11.212
72662SOL    HW219884  11.631   7.504  11.189
72663SOL     OW19885   1.797   5.121  10.174
72663SOL    HW119886   1.736   5.169  10.118
72663SOL    HW219887   1.761   5.032  10.177
72664SOL     OW19888   7.497   0.955   8.273
72664SOL    HW119889   7.589   0.928   8.266
72664SOL    HW219890   7.482   1.012   8.198
72665SOL     OW19891  12.464   9.670  12.610
72665SOL    HW119892  12.484   9.585  12.650
72665SOL    HW219893  12.393   9.652  12.549
72666SOL     OW19894   1.673   8.817   6.624
72666SOL    HW119895   1.759   8.806   6.583
72666SOL    HW219896   1.692   8.821   6.717
72667SOL     OW19897   2.071   3.947   3.505
72667SOL    HW119898   2.004   3.995   3.456
72667SOL    HW219899   2.133   4.014   3.532
72668SOL     OW19900  12.393   6.459   7.307
72668SOL    HW119901  12.464   6.462   7.371
72668SOL    HW219902  12.386   6.549   7.275
72669SOL     OW19903   1.753   4.173  14.083
72669SOL    HW119904   1.689   4.120  14.035
72669SOL    HW219905   1.742   4.146  14.175
72670SOL     OW19906   9.802   7.559   0.028
72670SOL    HW119907   9.714   7.562   0.065
72670SOL    HW219908   9.836   7.648   0.041
72671SOL     OW19909   2.165   1.445  14.559
72671SOL    HW119910   2.126   1.358  14.560
72671SOL    HW219911   2.159   1.472  14.467
72672SOL     OW19912  11.317   3.276  14.352
72672SOL    HW119913  11.404   3.293  14.388
72672SOL    HW219914  11.272   3.226  14.419
72673SOL     OW19915   3.541  10.772   6.522
72673SOL    HW119916   3.631  10.761   6.491
72673SOL    HW219917   3.550  10.814   6.607
72674SOL     OW19918   5.525   7.352   0.799
72674SOL    HW119919   5.484   7.429   0.758
72674SOL    HW219920   5.584   7.389   0.865
72675SOL     OW19921   6.356   1.094   2.564
72675SOL    HW119922   6.302   1.089   2.644
72675SOL    HW219923   6.396   1.007   2.558
72676SOL     OW19924   1.639  14.130   4.657
72676SOL    HW119925   1.663  14.111   4.566
72676SOL    HW219926   1.656  14.224   4.667
72677SOL     OW19927   4.834   9.088  12.867
72677SOL    HW119928   4.822   9.050  12.954
72677SOL    HW219929   4.886   9.167  12.882
72678SOL     OW19930   3.507   7.362  11.601
72678SOL    HW119931   3.581   7.385  11.657
72678SOL    HW219932   3.537   7.285  11.552
72679SOL     OW19933  14.249   2.598  14.727
72679SOL    HW119934  14.263   2.667  14.792
72679SOL    HW219935  14.319   2.612  14.663
72680SOL     OW19936  14.771   6.825  10.944
72680SOL    HW119937  14.764   6.766  11.019
72680SOL    HW219938  14.688   6.813  10.897
72681SOL     OW19939   6.302   7.138  10.109
72681SOL    HW119940   6.290   7.050  10.072
72681SOL    HW219941   6.389   7.165  10.080
72682SOL     OW19942  13.688   0.620   9.721
72682SOL    HW119943  13.613   0.566   9.698
72682SOL    HW219944  13.764   0.563   9.712
72683SOL     OW19945   9.742   9.890   3.354
72683SOL    HW119946   9.696   9.816   3.392
72683SOL    HW219947   9.787   9.854   3.277
72684SOL     OW19948   2.361   7.860   0.226
72684SOL    HW119949   2.355   7.952   0.199
72684SOL    HW219950   2.413   7.862   0.307
72685SOL     OW19951  12.807   0.070  13.834
72685SOL    HW119952  12.835   0.143  13.890
72685SOL    HW219953  12.810  14.863  13.892
72686SOL     OW19954  14.165   8.386   5.125
72686SOL    HW119955  14.195   8.345   5.206
72686SOL    HW219956  14.174   8.317   5.059
72687SOL     OW19957   2.770   2.499   7.023
72687SOL    HW119958   2.682   2.464   7.010
72687SOL    HW219959   2.779   2.506   7.118
72688SOL     OW19960   4.882   0.594   6.024
72688SOL    HW119961   4.940   0.659   5.984
72688SOL    HW219962   4.814   0.578   5.958
72689SOL     OW19963   3.934   1.729   3.341
72689SOL    HW119964   3.961   1.690   3.258
72689SOL    HW219965   3.861   1.786   3.318
72690SOL     OW19966   7.264   0.816   3.574
72690SOL    HW119967   7.351   0.790   3.543
72690SOL    HW219968   7.212   0.736   3.571
72691SOL     OW19969   0.120  10.587  11.354
72691SOL    HW119970   0.122  10.495  11.380
72691SOL    HW219971   0.135  10.585  11.259
72692SOL     OW19972  10.689  11.535   0.087
72692SOL    HW119973  10.721  11.535   0.177
72692SOL    HW219974  10.768  11.538   0.034
72693SOL     OW19975   9.892  14.064  13.926
72693SOL    HW119976   9.960  14.130  13.934
72693SOL    HW219977   9.925  13.989  13.975
72694SOL     OW19978   4.740   1.992   4.041
72694SOL    HW119979   4.726   2.070   3.988
72694SOL    HW219980   4.713   2.017   4.129
72695SOL     OW19981   2.850  14.431  12.162
72695SOL    HW119982   2.778  14.373  12.190
72695SOL    HW219983   2.824  14.517  12.194
72696SOL     OW19984  10.010  12.147   0.490
72696SOL    HW119985  10.041  12.227   0.447
72696SOL    HW219986   9.964  12.100   0.421
72697SOL     OW19987   2.163   5.812   7.784
72697SOL    HW119988   2.237   5.818   7.844
72697SOL    HW219989   2.113   5.736   7.815
72698SOL     OW19990   4.586  11.168   5.092
72698SOL    HW119991   4.546  11.085   5.069
72698SOL    HW219992   4.680  11.154   5.082
72699SOL     OW19993   6.471  12.891   4.812
72699SOL    HW119994   6.435  12.979   4.819
72699SOL    HW219995   6.456  12.852   4.898
72700SOL     OW19996   5.666   5.961   5.359
72700SOL    HW119997   5.613   5.881   5.356
72700SOL    HW219998   5.624   6.019   5.294
72701SOL     OW19999   9.281  14.734   8.901
72701SOL    HW120000   9.297  14.643   8.928
72701SOL    HW220001   9.363  14.779   8.921
72702SOL     OW20002  11.618   5.942  14.128
72702SOL    HW120003  11.565   6.012  14.165
72702SOL    HW220004  11.582   5.862  14.167
72703SOL     OW20005   9.287   1.075   8.095
72703SOL    HW120006   9.381   1.063   8.083
72703SOL    HW220007   9.261   1.004   8.153
72704SOL     OW20008  13.536   1.534   7.071
72704SOL    HW120009  13.580   1.602   7.019
72704SOL    HW220010  13.607   1.485   7.111
72705SOL     OW20011  11.473  12.870  14.099
72705SOL    HW120012  11.452  12.963  14.111
72705SOL    HW220013  11.564  12.863  14.126
72706SOL     OW20014   4.159  13.010   1.362
72706SOL    HW120015   4.140  12.983   1.452
72706SOL    HW220016   4.254  13.018   1.359
72707SOL     OW20017   9.196   9.454   4.568
72707SOL    HW120018   9.173   9.413   4.484
72707SOL    HW220019   9.157   9.396   4.634
72708SOL     OW20020   8.888  10.353   1.818
72708SOL    HW120021   8.797  10.351   1.847
72708SOL    HW220022   8.896  10.437   1.771
72709SOL     OW20023   9.827  12.045   7.888
72709SOL    HW120024   9.770  12.096   7.830
72709SOL    HW220025   9.797  12.066   7.976
72710SOL     OW20026  14.026   9.511   2.139
72710SOL    HW120027  13.939   9.479   2.164
72710SOL    HW220028  14.041   9.475   2.052
72711SOL     OW20029   4.504   2.420  10.393
72711SOL    HW120030   4.518   2.475  10.471
72711SOL    HW220031   4.464   2.340  10.428
72712SOL     OW20032  10.089  10.975   4.238
72712SOL    HW120033  10.107  11.054   4.290
72712SOL    HW220034  10.171  10.924   4.243
72713SOL     OW20035   4.951   9.730   9.812
72713SOL    HW120036   4.856   9.728   9.806
72713SOL    HW220037   4.975   9.642   9.842
72714SOL     OW20038   6.378  11.002   2.955
72714SOL    HW120039   6.423  11.071   2.906
72714SOL    HW220040   6.356  10.936   2.889
72715SOL     OW20041   9.846   5.891   2.447
72715SOL    HW120042   9.791   5.946   2.391
72715SOL    HW220043   9.936   5.913   2.422
72716SOL     OW20044   6.826  14.199   4.339
72716SOL    HW120045   6.772  14.273   4.366
72716SOL    HW220046   6.852  14.157   4.421
72717SOL     OW20047   2.023   6.559   2.458
72717SOL    HW120048   1.972   6.495   2.409
72717SOL    HW220049   2.020   6.527   2.549
72718SOL     OW20050   9.787   1.196   6.912
72718SOL    HW120051   9.851   1.256   6.873
72718SOL    HW220052   9.714   1.252   6.938
72719SOL     OW20053  12.661   7.396  12.249
72719SOL    HW120054  12.747   7.427  12.280
72719SOL    HW220055  12.626   7.345  12.323
72720SOL     OW20056   5.529  14.328   5.206
72720SOL    HW120057   5.552  14.289   5.291
72720SOL    HW220058   5.436  14.349   5.214
72721SOL     OW20059   9.189  10.403   1.398
72721SOL    HW120060   9.192  10.380   1.305
72721SOL    HW220061   9.265  10.360   1.436
72722SOL     OW20062  11.379  14.008  10.066
72722SOL    HW120063  11.469  13.989  10.095
72722SOL    HW220064  11.325  13.994  10.144
72723SOL     OW20065  11.995  13.803   8.512
72723SOL    HW120066  11.983  13.713   8.484
72723SOL    HW220067  11.943  13.855   8.451
72724SOL     OW20068  14.217   6.739   8.340
72724SOL    HW120069  14.169   6.790   8.275
72724SOL    HW220070  14.264   6.673   8.289
72725SOL     OW20071  11.432   2.622   1.166
72725SOL    HW120072  11.440   2.527   1.153
72725SOL    HW220073  11.498   2.660   1.108
72726SOL     OW20074  12.076   2.444  13.462
72726SOL    HW120075  12.118   2.518  13.418
72726SOL    HW220076  12.123   2.435  13.545
72727SOL     OW20077   3.475   9.644  14.793
72727SOL    HW120078   3.524   9.725  14.808
72727SOL    HW220079   3.542   9.577  14.781
72728SOL     OW20080  10.815   6.666   2.532
72728SOL    HW120081  10.755   6.679   2.459
72728SOL    HW220082  10.883   6.608   2.497
72729SOL     OW20083   9.003  13.478  13.003
72729SOL    HW120084   9.056  13.507  12.929
72729SOL    HW220085   8.917  13.459  12.964
72730SOL     OW20086   5.882  10.030   4.664
72730SOL    HW120087   5.950  10.096   4.646
72730SOL    HW220088   5.870  10.032   4.759
72731SOL     OW20089   0.583   9.120   2.247
72731SOL    HW120090   0.567   9.105   2.341
72731SOL    HW220091   0.634   9.200   2.244
72732SOL     OW20092   7.356   8.661   8.157
72732SOL    HW120093   7.449   8.683   8.151
72732SOL    HW220094   7.317   8.703   8.081
72733SOL     OW20095  12.123   1.460   3.073
72733SOL    HW120096  12.094   1.449   2.982
72733SOL    HW220097  12.196   1.399   3.082
72734SOL     OW20098   6.893  12.954  14.553
72734SOL    HW120099   6.931  13.010  14.620
72734SOL    HW220100   6.934  12.984  14.471
72735SOL     OW20101   3.692   0.800  13.959
72735SOL    HW120102   3.688   0.801  14.055
72735SOL    HW220103   3.615   0.750  13.932
72736SOL     OW20104   8.490   2.093   7.065
72736SOL    HW120105   8.438   2.163   7.104
72736SOL    HW220106   8.497   2.027   7.134
72737SOL     OW20107   4.626   6.936  13.459
72737SOL    HW120108   4.646   6.843  13.453
72737SOL    HW220109   4.534   6.939  13.485
72738SOL     OW20110   7.144   3.520   2.034
72738SOL    HW120111   7.171   3.465   1.961
72738SOL    HW220112   7.175   3.608   2.010
72739SOL     OW20113   3.355   6.645   1.370
72739SOL    HW120114   3.328   6.661   1.279
72739SOL    HW220115   3.425   6.707   1.386
72740SOL     OW20116  11.452  11.587   4.882
72740SOL    HW120117  11.461  11.648   4.955
72740SOL    HW220118  11.523  11.524   4.894
72741SOL     OW20119   0.753   9.681   2.785
72741SOL    HW120120   0.750   9.639   2.699
72741SOL    HW220121   0.836   9.729   2.786
72742SOL     OW20122  11.346   9.824  14.087
72742SOL    HW120123  11.285   9.864  14.024
72742SOL    HW220124  11.432   9.856  14.060
72743SOL     OW20125  13.219  12.509  14.171
72743SOL    HW120126  13.225  12.422  14.210
72743SOL    HW220127  13.236  12.495  14.078
72744SOL     OW20128  10.787   5.510  14.524
72744SOL    HW120129  10.816   5.600  14.540
72744SOL    HW220130  10.840   5.481  14.449
72745SOL     OW20131   2.209  10.807   1.267
72745SOL    HW120132   2.197  10.745   1.339
72745SOL    HW220133   2.148  10.777   1.199
72746SOL     OW20134   8.370  11.224   2.384
72746SOL    HW120135   8.339  11.280   2.455
72746SOL    HW220136   8.323  11.256   2.307
72747SOL     OW20137   7.928   3.596  13.246
72747SOL    HW120138   7.885   3.628  13.166
72747SOL    HW220139   7.989   3.667  13.269
72748SOL     OW20140   0.218  14.103   3.886
72748SOL    HW120141   0.146  14.042   3.903
72748SOL    HW220142   0.175  14.186   3.866
72749SOL     OW20143   8.963   3.098   4.507
72749SOL    HW120144   8.974   3.078   4.414
72749SOL    HW220145   8.888   3.045   4.535
72750SOL     OW20146   6.949   3.261   6.222
72750SOL    HW120147   6.895   3.340   6.223
72750SOL    HW220148   7.013   3.275   6.291
72751SOL     OW20149  12.676   8.338  13.177
72751SOL    HW120150  12.702   8.409  13.236
72751SOL    HW220151  12.758   8.304  13.142
72752SOL     OW20152   4.352   8.527   9.592
72752SOL    HW120153   4.371   8.584   9.518
72752SOL    HW220154   4.356   8.584   9.668
72753SOL     OW20155   9.823   3.228   5.494
72753SOL    HW120156   9.881   3.268   5.559
72753SOL    HW220157   9.787   3.302   5.445
72754SOL     OW20158  14.651   0.316  10.944
72754SOL    HW120159  14.681   0.356  11.026
72754SOL    HW220160  14.574   0.367  10.919
72755SOL     OW20161   1.960  12.081   6.722
72755SOL    HW120162   1.889  12.020   6.701
72755SOL    HW220163   1.916  12.164   6.738
72756SOL     OW20164   9.105   3.578   3.193
72756SOL    HW120165   9.010   3.582   3.204
72756SOL    HW220166   9.129   3.667   3.167
72757SOL     OW20167   3.886   2.466   0.072
72757SOL    HW120168   3.810   2.465   0.013
72757SOL    HW220169   3.848   2.482   0.158
72758SOL     OW20170  12.481   4.431   5.372
72758SOL    HW120171  12.417   4.494   5.405
72758SOL    HW220172  12.447   4.346   5.398
72759SOL     OW20173   9.641   6.326   5.873
72759SOL    HW120174   9.640   6.260   5.804
72759SOL    HW220175   9.633   6.276   5.954
72760SOL     OW20176  11.614  12.054  12.869
72760SOL    HW120177  11.673  12.060  12.794
72760SOL    HW220178  11.652  12.111  12.935
72761SOL     OW20179   9.381   4.183  12.392
72761SOL    HW120180   9.466   4.226  12.384
72761SOL    HW220181   9.342   4.193  12.305
72762SOL     OW20182   2.067  11.423  10.081
72762SOL    HW120183   2.081  11.486  10.010
72762SOL    HW220184   2.024  11.474  10.150
72763SOL     OW20185   7.948   9.111  10.680
72763SOL    HW120186   8.003   9.189  10.668
72763SOL    HW220187   8.010   9.039  10.688
72764SOL     OW20188  13.781   3.030   1.383
72764SOL    HW120189  13.856   2.978   1.354
72764SOL    HW220190  13.782   3.107   1.327
72765SOL     OW20191   8.141  14.641  12.611
72765SOL    HW120192   8.123  14.550  12.633
72765SOL    HW220193   8.236  14.649  12.615
72766SOL     OW20194   4.395   0.538   5.946
72766SOL    HW120195   4.300   0.552   5.949
72766SOL    HW220196   4.407   0.449   5.979
72767SOL     OW20197   5.345   4.168   8.061
72767SOL    HW120198   5.417   4.149   8.001
72767SOL    HW220199   5.269   4.124   8.023
72768SOL     OW20200  12.658   4.884   8.116
72768SOL    HW120201  12.626   4.958   8.064
72768SOL    HW220202  12.588   4.819   8.110
72769SOL     OW20203   7.379   9.049   6.084
72769SOL    HW120204   7.398   9.040   6.177
72769SOL    HW220205   7.440   9.115   6.053
72770SOL     OW20206   7.366  12.168   0.386
72770SOL    HW120207   7.388  12.184   0.294
72770SOL    HW220208   7.376  12.253   0.429
72771SOL     OW20209   9.401   6.783  13.280
72771SOL    HW120210   9.323   6.743  13.318
72771SOL    HW220211   9.426   6.724  13.209
72772SOL     OW20212   3.216  11.346   5.919
72772SOL    HW120213   3.301  11.307   5.936
72772SOL    HW220214   3.236  11.434   5.885
72773SOL     OW20215   2.854  14.110  12.894
72773SOL    HW120216   2.942  14.078  12.875
72773SOL    HW220217   2.868  14.182  12.956
72774SOL     OW20218   5.770  14.494  10.132
72774SOL    HW120219   5.790  14.460  10.219
72774SOL    HW220220   5.775  14.589  10.141
72775SOL     OW20221   1.283   7.405  14.254
72775SOL    HW120222   1.249   7.406  14.165
72775SOL    HW220223   1.374   7.435  14.246
72776SOL     OW20224   1.698   8.336  10.394
72776SOL    HW120225   1.699   8.374  10.306
72776SOL    HW220226   1.790   8.321  10.415
72777SOL     OW20227   4.174  14.802   8.849
72777SOL    HW120228   4.097  14.844   8.809
72777SOL    HW220229   4.242   0.000   8.847
72778SOL     OW20230   2.349   6.044   0.693
72778SOL    HW120231   2.397   6.110   0.643
72778SOL    HW220232   2.325   5.978   0.628
72779SOL     OW20233   5.126   6.098   8.838
72779SOL    HW120234   5.169   6.139   8.763
72779SOL    HW220235   5.162   6.009   8.841
72780SOL     OW20236   4.176   2.387  13.494
72780SOL    HW120237   4.223   2.468  13.511
72780SOL    HW220238   4.217   2.323  13.553
72781SOL     OW20239   2.943   7.762   6.878
72781SOL    HW120240   2.853   7.785   6.901
72781SOL    HW220241   2.941   7.750   6.783
72782SOL     OW20242   2.491  12.517   2.273
72782SOL    HW120243   2.568  12.513   2.217
72782SOL    HW220244   2.501  12.444   2.334
72783SOL     OW20245   4.570  14.390   1.599
72783SOL    HW120246   4.561  14.418   1.508
72783SOL    HW220247   4.623  14.457   1.640
72784SOL     OW20248   3.839   1.257   1.018
72784SOL    HW120249   3.891   1.300   1.086
72784SOL    HW220250   3.748   1.276   1.041
72785SOL     OW20251  12.481   9.326   7.511
72785SOL    HW120252  12.496   9.237   7.480
72785SOL    HW220253  12.507   9.325   7.603
72786SOL     OW20254   7.858   2.418   5.453
72786SOL    HW120255   7.859   2.445   5.545
72786SOL    HW220256   7.785   2.467   5.415
72787SOL     OW20257  12.817  10.193   2.442
72787SOL    HW120258  12.786  10.200   2.352
72787SOL    HW220259  12.894  10.137   2.437
72788SOL     OW20260  12.608   8.182   8.938
72788SOL    HW120261  12.699   8.155   8.953
72788SOL    HW220262  12.615   8.260   8.883
72789SOL     OW20263   2.453   1.204   6.768
72789SOL    HW120264   2.483   1.294   6.762
72789SOL    HW220265   2.507   1.165   6.837
72790SOL     OW20266   3.019   4.725  10.339
72790SOL    HW120267   3.108   4.702  10.312
72790SOL    HW220268   2.963   4.684  10.273
72791SOL     OW20269   4.373   2.154   7.835
72791SOL    HW120270   4.395   2.086   7.898
72791SOL    HW220271   4.367   2.108   7.751
72792SOL     OW20272   1.705   0.498  13.065
72792SOL    HW120273   1.733   0.581  13.104
72792SOL    HW220274   1.780   0.440  13.076
72793SOL     OW20275  13.163  11.216   3.081
72793SOL    HW120276  13.069  11.213   3.098
72793SOL    HW220277  13.198  11.273   3.149
72794SOL     OW20278  11.080   1.445   8.011
72794SOL    HW120279  11.083   1.540   7.999
72794SOL    HW220280  10.999   1.429   8.059
72795SOL     OW20281   2.016   0.900   6.443
72795SOL    HW120282   2.107   0.875   6.457
72795SOL    HW220283   1.986   0.929   6.530
72796SOL     OW20284   0.114   6.263  12.618
72796SOL    HW120285   0.073   6.256  12.532
72796SOL    HW220286   0.200   6.301  12.600
72797SOL     OW20287   5.949   5.370   4.546
72797SOL    HW120288   5.995   5.421   4.613
72797SOL    HW220289   5.910   5.298   4.595
72798SOL     OW20290   8.132  12.788   4.323
72798SOL    HW120291   8.048  12.827   4.299
72798SOL    HW220292   8.198  12.845   4.284
72799SOL     OW20293  14.123   4.427   7.528
72799SOL    HW120294  14.206   4.456   7.488
72799SOL    HW220295  14.116   4.478   7.608
72800SOL     OW20296   7.574   2.534   2.437
72800SOL    HW120297   7.495   2.551   2.386
72800SOL    HW220298   7.544   2.480   2.510
72801SOL     OW20299  13.380   2.803   1.004
72801SOL    HW120300  13.349   2.814   1.094
72801SOL    HW220301  13.326   2.732   0.969
72802SOL     OW20302   6.414   0.928  13.680
72802SOL    HW120303   6.383   0.886  13.761
72802SOL    HW220304   6.492   0.878  13.656
72803SOL     OW20305   0.702   4.445   6.961
72803SOL    HW120306   0.612   4.445   6.931
72803SOL    HW220307   0.745   4.513   6.908
72804SOL     OW20308   2.014  10.207  14.194
72804SOL    HW120309   2.028  10.174  14.106
72804SOL    HW220310   1.991  10.130  14.246
72805SOL     OW20311   9.128   4.024  13.770
72805SOL    HW120312   9.061   4.008  13.703
72805SOL    HW220313   9.163   3.937  13.790
72806SOL     OW20314   8.783   1.685   1.810
72806SOL    HW120315   8.800   1.758   1.869
72806SOL    HW220316   8.825   1.609   1.852
72807SOL     OW20317  14.682   2.270   2.822
72807SOL    HW120318  14.741   2.320   2.879
72807SOL    HW220319  14.686   2.181   2.856
72808SOL     OW20320   7.060   6.349  11.324
72808SOL    HW120321   6.965   6.365  11.316
72808SOL    HW220322   7.086   6.316  11.238
72809SOL     OW20323   2.284   0.087   6.869
72809SOL    HW120324   2.323   0.043   6.793
72809SOL    HW220325   2.190   0.079   6.856
72810SOL     OW20326   2.985  10.136   1.474
72810SOL    HW120327   3.009  10.163   1.385
72810SOL    HW220328   3.046  10.183   1.531
72811SOL     OW20329  14.781   4.618  12.434
72811SOL    HW120330  14.780   4.644  12.527
72811SOL    HW220331  14.838   4.542  12.432
72812SOL     OW20332   5.210   0.205  14.764
72812SOL    HW120333   5.299   0.180  14.790
72812SOL    HW220334   5.196   0.159  14.682
72813SOL     OW20335  10.869   1.345  12.433
72813SOL    HW120336  10.868   1.365  12.340
72813SOL    HW220337  10.866   1.249  12.437
72814SOL     OW20338  10.827   6.440   4.375
72814SOL    HW120339  10.892   6.496   4.334
72814SOL    HW220340  10.835   6.457   4.468
72815SOL     OW20341  12.237   5.972   6.933
72815SOL    HW120342  12.189   5.965   7.016
72815SOL    HW220343  12.254   5.881   6.908
72816SOL     OW20344  10.950   3.114   2.854
72816SOL    HW120345  10.902   3.196   2.845
72816SOL    HW220346  10.960   3.082   2.764
72817SOL     OW20347   3.488   0.476   9.277
72817SOL    HW120348   3.456   0.542   9.216
72817SOL    HW220349   3.483   0.518   9.363
72818SOL     OW20350   6.094  10.808   3.162
72818SOL    HW120351   6.056  10.731   3.204
72818SOL    HW220352   6.041  10.821   3.083
72819SOL     OW20353   5.023   4.003   7.004
72819SOL    HW120354   5.028   4.045   7.090
72819SOL    HW220355   5.084   4.052   6.949
72820SOL     OW20356   1.751  11.698  14.128
72820SOL    HW120357   1.666  11.659  14.149
72820SOL    HW220358   1.805  11.624  14.101
72821SOL     OW20359   3.649  11.789   6.558
72821SOL    HW120360   3.615  11.744   6.481
72821SOL    HW220361   3.601  11.872   6.561
72822SOL     OW20362   8.995   6.387  14.540
72822SOL    HW120363   8.939   6.379  14.463
72822SOL    HW220364   9.079   6.417  14.506
72823SOL     OW20365   0.132   5.800  14.114
72823SOL    HW120366   0.159   5.840  14.032
72823SOL    HW220367   0.196   5.730  14.129
72824SOL     OW20368   1.428  11.030   3.664
72824SOL    HW120369   1.376  10.963   3.620
72824SOL    HW220370   1.503  10.982   3.700
72825SOL     OW20371  14.252   1.100   4.423
72825SOL    HW120372  14.196   1.178   4.421
72825SOL    HW220373  14.329   1.125   4.373
72826SOL     OW20374   2.717   0.088  13.144
72826SOL    HW120375   2.668   0.047  13.073
72826SOL    HW220376   2.654   0.094  13.216
72827SOL     OW20377  12.236   3.251   9.368
72827SOL    HW120378  12.176   3.203   9.424
72827SOL    HW220379  12.269   3.186   9.306
72828SOL     OW20380  11.507   5.569   7.053
72828SOL    HW120381  11.530   5.518   7.131
72828SOL    HW220382  11.589   5.579   7.006
72829SOL     OW20383   8.418  12.881   5.058
72829SOL    HW120384   8.465  12.964   5.068
72829SOL    HW220385   8.465  12.834   4.989
72830SOL     OW20386  13.520  10.527   0.719
72830SOL    HW120387  13.491  10.470   0.790
72830SOL    HW220388  13.506  10.477   0.640
72831SOL     OW20389   2.227   2.741   5.231
72831SOL    HW120390   2.248   2.747   5.324
72831SOL    HW220391   2.252   2.826   5.195
72832SOL     OW20392  10.942   5.612  12.920
72832SOL    HW120393  10.937   5.517  12.933
72832SOL    HW220394  10.973   5.646  13.003
72833SOL     OW20395   6.709   1.543  11.511
72833SOL    HW120396   6.687   1.630  11.545
72833SOL    HW220397   6.730   1.491  11.589
72834SOL     OW20398  12.947   1.273  12.606
72834SOL    HW120399  12.956   1.262  12.701
72834SOL    HW220400  12.940   1.184  12.572
72835SOL     OW20401   6.766   2.464   8.529
72835SOL    HW120402   6.810   2.522   8.592
72835SOL    HW220403   6.783   2.504   8.444
72836SOL     OW20404  13.933   9.930  13.175
72836SOL    HW120405  13.957   9.845  13.137
72836SOL    HW220406  14.009   9.986  13.160
72837SOL     OW20407   6.883   2.298   0.711
72837SOL    HW120408   6.946   2.334   0.648
72837SOL    HW220409   6.878   2.363   0.781
72838SOL     OW20410   0.917   2.508   5.227
72838SOL    HW120411   0.834   2.497   5.274
72838SOL    HW220412   0.967   2.571   5.280
72839SOL     OW20413  11.547   7.359   4.513
72839SOL    HW120414  11.510   7.303   4.445
72839SOL    HW220415  11.604   7.420   4.467
72840SOL     OW20416   9.912   2.589   6.373
72840SOL    HW120417   9.920   2.678   6.406
72840SOL    HW220418  10.001   2.565   6.347
72841SOL     OW20419  14.544   7.027   6.296
72841SOL    HW120420  14.620   6.969   6.301
72841SOL    HW220421  14.470   6.973   6.326
72842SOL     OW20422   9.569   2.097  10.003
72842SOL    HW120423   9.570   2.023  10.063
72842SOL    HW220424   9.501   2.155  10.039
72843SOL     OW20425  10.410   3.580   8.135
72843SOL    HW120426  10.314   3.578   8.132
72843SOL    HW220427  10.434   3.667   8.103
72844SOL     OW20428   5.369  10.811  13.212
72844SOL    HW120429   5.465  10.801  13.218
72844SOL    HW220430   5.354  10.844  13.124
72845SOL     OW20431   9.025   6.875  13.525
72845SOL    HW120432   8.985   6.956  13.557
72845SOL    HW220433   9.109   6.902  13.489
72846SOL     OW20434  14.475   4.397   6.359
72846SOL    HW120435  14.395   4.444   6.379
72846SOL    HW220436  14.480   4.328   6.425
72847SOL     OW20437  13.302   9.447  12.200
72847SOL    HW120438  13.326   9.391  12.126
72847SOL    HW220439  13.357   9.524  12.190
72848SOL     OW20440   0.858   1.041  12.248
72848SOL    HW120441   0.864   1.129  12.209
72848SOL    HW220442   0.800   1.052  12.323
72849SOL     OW20443   9.282   4.016   9.694
72849SOL    HW120444   9.259   4.108   9.685
72849SOL    HW220445   9.203   3.975   9.729
72850SOL     OW20446   3.457   2.629   2.252
72850SOL    HW120447   3.485   2.559   2.311
72850SOL    HW220448   3.460   2.708   2.307
72851SOL     OW20449   4.334  10.661   8.192
72851SOL    HW120450   4.258  10.708   8.159
72851SOL    HW220451   4.370  10.617   8.115
72852SOL     OW20452   9.363   0.419   2.724
72852SOL    HW120453   9.295   0.399   2.788
72852SOL    HW220454   9.348   0.358   2.652
72853SOL     OW20455  12.439   3.538   5.018
72853SOL    HW120456  12.458   3.621   5.062
72853SOL    HW220457  12.524   3.505   4.991
72854SOL     OW20458   3.964  13.771   1.344
72854SOL    HW120459   3.917  13.775   1.261
72854SOL    HW220460   4.048  13.730   1.323
72855SOL     OW20461   0.520  13.550   4.470
72855SOL    HW120462   0.493  13.470   4.425
72855SOL    HW220463   0.546  13.609   4.400
72856SOL     OW20464   2.273   7.259   7.456
72856SOL    HW120465   2.337   7.202   7.412
72856SOL    HW220466   2.306   7.348   7.441
72857SOL     OW20467  12.963   4.540  11.616
72857SOL    HW120468  12.923   4.555  11.702
72857SOL    HW220469  13.056   4.528  11.634
72858SOL     OW20470   7.646  13.506   8.270
72858SOL    HW120471   7.622  13.434   8.212
72858SOL    HW220472   7.585  13.576   8.248
72859SOL     OW20473   8.203  13.236   5.628
72859SOL    HW120474   8.139  13.190   5.681
72859SOL    HW220475   8.271  13.171   5.609
72860SOL     OW20476   9.741   0.385  14.203
72860SOL    HW120477   9.817   0.327  14.205
72860SOL    HW220478   9.668   0.328  14.178
72861SOL     OW20479  14.729  13.525   6.639
72861SOL    HW120480  14.760  13.533   6.729
72861SOL    HW220481  14.803  13.555   6.586
72862SOL     OW20482   0.082   7.931  14.506
72862SOL    HW120483   0.112   7.841  14.494
72862SOL    HW220484   0.023   7.947  14.432
72863SOL     OW20485   5.627  13.799   6.153
72863SOL    HW120486   5.704  13.764   6.199
72863SOL    HW220487   5.571  13.832   6.223
72864SOL     OW20488   8.931   8.776   5.398
72864SOL    HW120489   8.843   8.773   5.362
72864SOL    HW220490   8.942   8.867   5.429
72865SOL     OW20491  11.779  14.604   7.158
72865SOL    HW120492  11.800  14.514   7.184
72865SOL    HW220493  11.695  14.597   7.113
72866SOL     OW20494   6.751  11.925   9.065
72866SOL    HW120495   6.809  11.850   9.074
72866SOL    HW220496   6.806  12.001   9.083
72867SOL     OW20497  12.815  13.826   5.123
72867SOL    HW120498  12.772  13.911   5.115
72867SOL    HW220499  12.810  13.788   5.035
72868SOL     OW20500  13.961   0.875   7.236
72868SOL    HW120501  13.990   0.946   7.293
72868SOL    HW220502  13.922   0.920   7.161
72869SOL     OW20503  14.491   1.222   9.853
72869SOL    HW120504  14.396   1.206   9.857
72869SOL    HW220505  14.522   1.166   9.782
72870SOL     OW20506   8.687  11.238   8.357
72870SOL    HW120507   8.746  11.305   8.323
72870SOL    HW220508   8.711  11.159   8.308
72871SOL     OW20509  11.238  13.534   2.738
72871SOL    HW120510  11.254  13.447   2.703
72871SOL    HW220511  11.161  13.566   2.689
72872SOL     OW20512  10.152   7.729   4.117
72872SOL    HW120513  10.106   7.653   4.083
72872SOL    HW220514  10.097   7.803   4.095
72873SOL     OW20515   8.471   0.113   6.048
72873SOL    HW120516   8.427   0.077   5.971
72873SOL    HW220517   8.404   0.165   6.092
72874SOL     OW20518   3.217  13.622   4.293
72874SOL    HW120519   3.214  13.712   4.261
72874SOL    HW220520   3.222  13.569   4.214
72875SOL     OW20521   0.991  14.039   2.954
72875SOL    HW120522   0.948  13.975   3.011
72875SOL    HW220523   1.064  14.072   3.007
72876SOL     OW20524   6.791  11.439   1.314
72876SOL    HW120525   6.800  11.364   1.373
72876SOL    HW220526   6.765  11.511   1.372
72877SOL     OW20527  14.253   0.471   3.465
72877SOL    HW120528  14.325   0.530   3.445
72877SOL    HW220529  14.280   0.427   3.546
72878SOL     OW20530  11.280  10.555   1.784
72878SOL    HW120531  11.242  10.502   1.854
72878SOL    HW220532  11.371  10.567   1.810
72879SOL     OW20533   5.437  14.269   0.341
72879SOL    HW120534   5.404  14.183   0.315
72879SOL    HW220535   5.532  14.258   0.345
72880SOL     OW20536   2.857   8.665   6.827
72880SOL    HW120537   2.809   8.662   6.744
72880SOL    HW220538   2.947   8.641   6.803
72881SOL     OW20539   9.373   9.132   9.705
72881SOL    HW120540   9.331   9.059   9.659
72881SOL    HW220541   9.452   9.150   9.654
72882SOL     OW20542   0.054   3.156   9.669
72882SOL    HW120543  14.843   3.105   9.661
72882SOL    HW220544   0.026   3.247   9.666
72883SOL     OW20545  11.283   0.526   3.747
72883SOL    HW120546  11.219   0.458   3.727
72883SOL    HW220547  11.335   0.489   3.819
72884SOL     OW20548   6.657   2.682   9.937
72884SOL    HW120549   6.668   2.628  10.015
72884SOL    HW220550   6.657   2.620   9.864
72885SOL     OW20551  11.806   3.945  13.026
72885SOL    HW120552  11.746   3.895  12.970
72885SOL    HW220553  11.749   4.004  13.076
72886SOL     OW20554   3.804  11.888  10.371
72886SOL    HW120555   3.852  11.825  10.424
72886SOL    HW220556   3.790  11.845  10.287
72887SOL     OW20557   5.191   0.484   7.922
72887SOL    HW120558   5.224   0.394   7.927
72887SOL    HW220559   5.227   0.517   7.839
72888SOL     OW20560   8.584   5.966  10.056
72888SOL    HW120561   8.494   5.994  10.070
72888SOL    HW220562   8.598   5.897  10.121
72889SOL     OW20563  10.568   0.692   7.555
72889SOL    HW120564  10.491   0.645   7.524
72889SOL    HW220565  10.567   0.775   7.508
72890SOL     OW20566   0.653   3.609   3.011
72890SOL    HW120567   0.737   3.641   3.043
72890SOL    HW220568   0.665   3.603   2.916
72891SOL     OW20569  10.260   6.064  10.300
72891SOL    HW120570  10.166   6.082  10.292
72891SOL    HW220571  10.300   6.120  10.234
72892SOL     OW20572  12.712   5.057   2.384
72892SOL    HW120573  12.671   5.124   2.439
72892SOL    HW220574  12.676   5.071   2.297
72893SOL     OW20575  12.967   4.281   6.707
72893SOL    HW120576  13.059   4.301   6.687
72893SOL    HW220577  12.962   4.285   6.802
72894SOL     OW20578  12.067  12.284   3.755
72894SOL    HW120579  11.989  12.329   3.722
72894SOL    HW220580  12.130  12.289   3.683
72895SOL     OW20581   2.518  13.910   4.714
72895SOL    HW120582   2.510  13.929   4.621
72895SOL    HW220583   2.601  13.950   4.740
72896SOL     OW20584   8.813   9.463  11.549
72896SOL    HW120585   8.835   9.556  11.540
72896SOL    HW220586   8.718   9.461  11.552
72897SOL     OW20587   6.606  10.463   7.463
72897SOL    HW120588   6.651  10.489   7.383
72897SOL    HW220589   6.516  10.445   7.435
72898SOL     OW20590   7.743   6.739   8.076
72898SOL    HW120591   7.756   6.694   7.993
72898SOL    HW220592   7.797   6.690   8.138
72899SOL     OW20593   8.453   9.952   3.240
72899SOL    HW120594   8.520  10.007   3.280
72899SOL    HW220595   8.497   9.911   3.166
72900SOL     OW20596   0.327   8.723   5.826
72900SOL    HW120597   0.381   8.725   5.905
72900SOL    HW220598   0.259   8.789   5.842
72901SOL     OW20599   2.355   1.672   0.433
72901SOL    HW120600   2.411   1.687   0.356
72901SOL    HW220601   2.315   1.587   0.417
72902SOL     OW20602   1.509   8.773   2.091
72902SOL    HW120603   1.461   8.691   2.074
72902SOL    HW220604   1.468   8.809   2.170
72903SOL     OW20605   6.008   6.967   0.333
72903SOL    HW120606   6.033   6.880   0.362
72903SOL    HW220607   5.977   7.011   0.412
72904SOL     OW20608   9.194  10.540  11.640
72904SOL    HW120609   9.188  10.532  11.545
72904SOL    HW220610   9.218  10.631  11.655
72905SOL     OW20611   5.642   5.876   0.214
72905SOL    HW120612   5.715   5.911   0.163
72905SOL    HW220613   5.638   5.931   0.293
72906SOL     OW20614   6.997  11.583  12.179
72906SOL    HW120615   7.053  11.526  12.231
72906SOL    HW220616   6.967  11.650  12.240
72907SOL     OW20617   3.318   5.745   2.439
72907SOL    HW120618   3.360   5.660   2.453
72907SOL    HW220619   3.360   5.779   2.360
72908SOL     OW20620   8.351   6.750   0.428
72908SOL    HW120621   8.278   6.778   0.484
72908SOL    HW220622   8.330   6.660   0.405
72909SOL     OW20623   1.658   4.716   3.810
72909SOL    HW120624   1.683   4.775   3.739
72909SOL    HW220625   1.736   4.664   3.827
72910SOL     OW20626   0.297   5.794   0.347
72910SOL    HW120627   0.348   5.876   0.341
72910SOL    HW220628   0.209   5.818   0.319
72911SOL     OW20629   0.401   4.705  11.916
72911SOL    HW120630   0.404   4.739  12.005
72911SOL    HW220631   0.342   4.764  11.869
72912SOL     OW20632  12.790   9.253   8.364
72912SOL    HW120633  12.727   9.272   8.434
72912SOL    HW220634  12.743   9.276   8.284
72913SOL     OW20635   3.148  10.765   7.765
72913SOL    HW120636   3.188  10.819   7.834
72913SOL    HW220637   3.151  10.676   7.800
72914SOL     OW20638   9.431  11.788   7.016
72914SOL    HW120639   9.363  11.720   7.021
72914SOL    HW220640   9.460  11.799   7.107
72915SOL     OW20641   9.953  14.380   0.515
72915SOL    HW120642   9.963  14.285   0.512
72915SOL    HW220643   9.997  14.406   0.596
72916SOL     OW20644   1.452  11.232  10.452
72916SOL    HW120645   1.488  11.187  10.375
72916SOL    HW220646   1.440  11.162  10.517
72917SOL     OW20647   7.952   3.541  11.460
72917SOL    HW120648   7.899   3.511  11.386
72917SOL    HW220649   7.964   3.635  11.445
72918SOL     OW20650   2.865  11.964   1.319
72918SOL    HW120651   2.869  12.020   1.396
72918SOL    HW220652   2.794  12.000   1.266
72919SOL     OW20653   8.276   4.636   3.183
72919SOL    HW120654   8.200   4.677   3.143
72919SOL    HW220655   8.250   4.544   3.195
72920SOL     OW20656   5.982   9.922   1.852
72920SOL    HW120657   5.969   9.828   1.867
72920SOL    HW220658   6.067   9.928   1.808
72921SOL     OW20659  14.082   3.587   0.740
72921SOL    HW120660  14.026   3.657   0.706
72921SOL    HW220661  14.055   3.576   0.831
72922SOL     OW20662   7.370   7.824   6.992
72922SOL    HW120663   7.429   7.886   6.948
72922SOL    HW220664   7.421   7.743   6.999
72923SOL     OW20665  11.403  11.426  12.498
72923SOL    HW120666  11.447  11.413  12.414
72923SOL    HW220667  11.470  11.467  12.554
72924SOL     OW20668   8.472  12.745   1.288
72924SOL    HW120669   8.424  12.799   1.352
72924SOL    HW220670   8.406  12.724   1.222
72925SOL     OW20671   6.959  12.988   0.098
72925SOL    HW120672   6.889  12.939   0.054
72925SOL    HW220673   7.010  13.026   0.026
72926SOL     OW20674  12.366  12.602   7.577
72926SOL    HW120675  12.355  12.685   7.624
72926SOL    HW220676  12.323  12.537   7.632
72927SOL     OW20677   6.503  11.808  12.457
72927SOL    HW120678   6.548  11.753  12.521
72927SOL    HW220679   6.410  11.786  12.468
72928SOL     OW20680   1.160   6.840   2.497
72928SOL    HW120681   1.106   6.778   2.448
72928SOL    HW220682   1.132   6.829   2.588
72929SOL     OW20683  11.838  12.443  12.731
72929SOL    HW120684  11.798  12.512  12.678
72929SOL    HW220685  11.783  12.437  12.809
72930SOL     OW20686  10.564  14.064  12.563
72930SOL    HW120687  10.636  14.099  12.616
72930SOL    HW220688  10.491  14.124  12.578
72931SOL     OW20689  12.535   6.090   5.318
72931SOL    HW120690  12.511   6.181   5.335
72931SOL    HW220691  12.561   6.089   5.225
72932SOL     OW20692   6.873  10.249  14.486
72932SOL    HW120693   6.902  10.326  14.436
72932SOL    HW220694   6.873  10.279  14.577
72933SOL     OW20695   0.896   7.026   0.271
72933SOL    HW120696   0.829   6.975   0.317
72933SOL    HW220697   0.869   7.024   0.179
72934SOL     OW20698   6.442   8.129   5.162
72934SOL    HW120699   6.531   8.114   5.129
72934SOL    HW220700   6.454   8.152   5.254
72935SOL     OW20701   6.547   1.338  13.473
72935SOL    HW120702   6.512   1.318  13.560
72935SOL    HW220703   6.561   1.433  13.473
72936SOL     OW20704   4.276   8.864   0.783
72936SOL    HW120705   4.241   8.789   0.832
72936SOL    HW220706   4.332   8.825   0.716
72937SOL     OW20707   4.534   3.458   5.181
72937SOL    HW120708   4.511   3.529   5.241
72937SOL    HW220709   4.628   3.466   5.170
72938SOL     OW20710   3.679  10.711   3.746
72938SOL    HW120711   3.660  10.803   3.730
72938SOL    HW220712   3.593  10.670   3.756
72939SOL     OW20713   0.286  11.070  13.357
72939SOL    HW120714   0.284  11.010  13.432
72939SOL    HW220715   0.231  11.143  13.384
72940SOL     OW20716  12.194   6.284   5.240
72940SOL    HW120717  12.274   6.299   5.191
72940SOL    HW220718  12.183   6.364   5.292
72941SOL     OW20719   8.307  11.156   4.483
72941SOL    HW120720   8.243  11.184   4.417
72941SOL    HW220721   8.261  11.089   4.534
72942SOL     OW20722  10.360   6.862   8.146
72942SOL    HW120723  10.427   6.796   8.163
72942SOL    HW220724  10.408   6.941   8.122
72943SOL     OW20725  10.019   5.673   7.548
72943SOL    HW120726  10.021   5.703   7.639
72943SOL    HW220727   9.997   5.751   7.497
72944SOL     OW20728   0.894   9.288   6.723
72944SOL    HW120729   0.927   9.301   6.812
72944SOL    HW220730   0.808   9.248   6.735
72945SOL     OW20731   6.810  10.575   8.509
72945SOL    HW120732   6.768  10.583   8.423
72945SOL    HW220733   6.757  10.509   8.555
72946SOL     OW20734   0.840   4.160   0.785
72946SOL    HW120735   0.808   4.221   0.718
72946SOL    HW220736   0.760   4.119   0.819
72947SOL     OW20737   3.725  11.396   3.523
72947SOL    HW120738   3.736  11.479   3.476
72947SOL    HW220739   3.773  11.409   3.605
72948SOL     OW20740  12.132   0.039   4.349
72948SOL    HW120741  12.178   0.092   4.283
72948SOL    HW220742  12.046   0.081   4.356
72949SOL     OW20743   7.943  13.617   5.404
72949SOL    HW120744   7.931  13.670   5.483
72949SOL    HW220745   7.955  13.528   5.436
72950SOL     OW20746   9.046  10.478   8.044
72950SOL    HW120747   8.952  10.496   8.051
72950SOL    HW220748   9.051  10.388   8.014
72951SOL     OW20749   2.317   9.328   3.857
72951SOL    HW120750   2.409   9.333   3.882
72951SOL    HW220751   2.278   9.406   3.895
72952SOL     OW20752   4.310   0.067   6.009
72952SOL    HW120753   4.252   0.048   6.083
72952SOL    HW220754   4.388   0.106   6.049
72953SOL     OW20755   1.443   3.813   6.440
72953SOL    HW120756   1.478   3.819   6.351
72953SOL    HW220757   1.519   3.801   6.496
72954SOL     OW20758   9.287   0.647   8.246
72954SOL    HW120759   9.375   0.663   8.212
72954SOL    HW220760   9.238   0.615   8.170
72955SOL     OW20761  10.308   2.516   6.034
72955SOL    HW120762  10.328   2.538   5.942
72955SOL    HW220763  10.294   2.422   6.033
72956SOL     OW20764   0.728   5.823   4.924
72956SOL    HW120765   0.816   5.855   4.910
72956SOL    HW220766   0.739   5.730   4.947
72957SOL     OW20767   3.645  10.212  11.944
72957SOL    HW120768   3.717  10.154  11.970
72957SOL    HW220769   3.565  10.162  11.963
72958SOL     OW20770  10.260   1.240   5.258
72958SOL    HW120771  10.236   1.233   5.350
72958SOL    HW220772  10.294   1.329   5.249
72959SOL     OW20773   7.827   0.685   1.037
72959SOL    HW120774   7.893   0.664   0.972
72959SOL    HW220775   7.877   0.697   1.118
72960SOL     OW20776   3.286   6.966   6.979
72960SOL    HW120777   3.341   7.014   6.917
72960SOL    HW220778   3.346   6.910   7.027
72961SOL     OW20779   1.413   1.918   6.010
72961SOL    HW120780   1.357   1.935   6.086
72961SOL    HW220781   1.361   1.949   5.936
72962SOL     OW20782   3.183  11.083   7.695
72962SOL    HW120783   3.216  11.144   7.761
72962SOL    HW220784   3.260  11.062   7.641
72963SOL     OW20785   7.453   7.833  14.837
72963SOL    HW120786   7.395   7.810  14.764
72963SOL    HW220787   7.482   7.922  14.817
72964SOL     OW20788   3.888   7.714  11.571
72964SOL    HW120789   3.854   7.763  11.646
72964SOL    HW220790   3.973   7.681  11.600
72965SOL     OW20791   0.340   4.023   5.029
72965SOL    HW120792   0.255   4.026   4.987
72965SOL    HW220793   0.370   3.933   5.017
72966SOL     OW20794   2.425   8.304   0.284
72966SOL    HW120795   2.400   8.242   0.216
72966SOL    HW220796   2.465   8.250   0.352
72967SOL     OW20797   0.703   1.951  11.513
72967SOL    HW120798   0.714   2.046  11.522
72967SOL    HW220799   0.681   1.921  11.601
72968SOL     OW20800   5.329  13.481  12.936
72968SOL    HW120801   5.244  13.519  12.957
72968SOL    HW220802   5.382  13.494  13.015
72969SOL     OW20803   3.233  14.700  13.797
72969SOL    HW120804   3.254  14.620  13.748
72969SOL    HW220805   3.278  14.770  13.749
72970SOL     OW20806   3.202  12.291   7.972
72970SOL    HW120807   3.202  12.386   7.973
72970SOL    HW220808   3.276  12.268   7.915
72971SOL     OW20809   6.589  11.645   9.979
72971SOL    HW120810   6.534  11.720   9.957
72971SOL    HW220811   6.662  11.682  10.029
72972SOL     OW20812  14.409  12.785   1.276
72972SOL    HW120813  14.333  12.842   1.263
72972SOL    HW220814  14.440  12.805   1.364
72973SOL     OW20815   6.689  14.550   3.903
72973SOL    HW120816   6.634  14.626   3.922
72973SOL    HW220817   6.635  14.474   3.925
72974SOL     OW20818   0.257   9.853  10.528
72974SOL    HW120819   0.187   9.799  10.490
72974SOL    HW220820   0.293   9.901  10.453
72975SOL     OW20821   0.976  10.003   6.888
72975SOL    HW120822   0.985   9.936   6.820
72975SOL    HW220823   1.000  10.085   6.845
72976SOL     OW20824  11.517  11.588   3.227
72976SOL    HW120825  11.487  11.610   3.316
72976SOL    HW220826  11.611  11.575   3.236
72977SOL     OW20827   9.757   7.938   6.522
72977SOL    HW120828   9.751   8.033   6.521
72977SOL    HW220829   9.688   7.910   6.583
72978SOL     OW20830   0.175  11.482   1.749
72978SOL    HW120831   0.231  11.404   1.750
72978SOL    HW220832   0.167  11.504   1.656
72979SOL     OW20833   4.583  10.590   1.186
72979SOL    HW120834   4.622  10.621   1.104
72979SOL    HW220835   4.586  10.666   1.244
72980SOL     OW20836   9.695  14.401   3.758
72980SOL    HW120837   9.631  14.339   3.724
72980SOL    HW220838   9.757  14.347   3.806
72981SOL     OW20839   8.684  12.107  13.139
72981SOL    HW120840   8.762  12.082  13.189
72981SOL    HW220841   8.713  12.178  13.082
72982SOL     OW20842  12.725   6.460  10.232
72982SOL    HW120843  12.757   6.448  10.142
72982SOL    HW220844  12.707   6.371  10.263
72983SOL     OW20845   8.383  10.178  14.818
72983SOL    HW120846   8.426  10.260  14.795
72983SOL    HW220847   8.436  10.110  14.776
72984SOL     OW20848   0.637   8.859  11.671
72984SOL    HW120849   0.601   8.794  11.732
72984SOL    HW220850   0.720   8.821  11.641
72985SOL     OW20851   1.920  14.285   3.063
72985SOL    HW120852   1.900  14.378   3.070
72985SOL    HW220853   1.904  14.265   2.970
72986SOL     OW20854  14.132   2.686   3.436
72986SOL    HW120855  14.072   2.686   3.361
72986SOL    HW220856  14.156   2.778   3.446
72987SOL     OW20857   9.864   8.257   3.872
72987SOL    HW120858   9.916   8.258   3.952
72987SOL    HW220859   9.796   8.191   3.888
72988SOL     OW20860  13.940  10.781   7.381
72988SOL    HW120861  13.953  10.803   7.473
72988SOL    HW220862  14.027  10.758   7.349
72989SOL     OW20863   3.920  12.378   6.253
72989SOL    HW120864   3.994  12.318   6.259
72989SOL    HW220865   3.925  12.413   6.164
72990SOL     OW20866  11.005   5.602   1.152
72990SOL    HW120867  11.065   5.619   1.079
72990SOL    HW220868  11.061   5.563   1.220
72991SOL     OW20869   0.284  12.200  11.008
72991SOL    HW120870   0.328  12.116  10.991
72991SOL    HW220871   0.201  12.193  10.961
72992SOL     OW20872   2.072  14.040   4.908
72992SOL    HW120873   2.010  14.027   4.836
72992SOL    HW220874   2.074  13.956   4.953
72993SOL     OW20875   1.828   1.969  14.551
72993SOL    HW120876   1.868   2.056  14.549
72993SOL    HW220877   1.735   1.986  14.560
72994SOL     OW20878  10.876   9.498  13.503
72994SOL    HW120879  10.813   9.433  13.536
72994SOL    HW220880  10.962   9.459  13.519
72995SOL     OW20881   0.315   2.281   5.432
72995SOL    HW120882   0.220   2.293   5.429
72995SOL    HW220883   0.330   2.204   5.379
72996SOL     OW20884  14.258   5.367   2.452
72996SOL    HW120885  14.195   5.312   2.499
72996SOL    HW220886  14.343   5.331   2.476
72997SOL     OW20887   0.525   9.218  13.162
72997SOL    HW120888   0.511   9.224  13.257
72997SOL    HW220889   0.567   9.133  13.150
72998SOL     OW20890  14.373   7.059  14.258
72998SOL    HW120891  14.336   7.134  14.305
72998SOL    HW220892  14.354   6.984  14.314
72999SOL     OW20893   5.310   8.724   8.700
72999SOL    HW120894   5.233   8.688   8.744
72999SOL    HW220895   5.327   8.663   8.628
73000SOL     OW20896   6.061   3.275   1.213
73000SOL    HW120897   6.116   3.236   1.145
73000SOL    HW220898   5.997   3.327   1.165
73001SOL     OW20899  10.457   3.813   0.864
73001SOL    HW120900  10.445   3.786   0.773
73001SOL    HW220901  10.544   3.852   0.865
73002SOL     OW20902   7.579   8.972   0.506
73002SOL    HW120903   7.644   8.985   0.438
73002SOL    HW220904   7.618   9.010   0.585
73003SOL     OW20905   6.248   8.131  13.839
73003SOL    HW120906   6.234   8.190  13.765
73003SOL    HW220907   6.219   8.046  13.808
73004SOL     OW20908  12.065   7.168   3.362
73004SOL    HW120909  12.058   7.200   3.272
73004SOL    HW220910  12.132   7.224   3.402
73005SOL     OW20911   9.435   7.192   8.339
73005SOL    HW120912   9.374   7.184   8.412
73005SOL    HW220913   9.386   7.240   8.272
73006SOL     OW20914  12.787   6.728  13.286
73006SOL    HW120915  12.752   6.817  13.293
73006SOL    HW220916  12.861   6.736  13.226
73007SOL     OW20917   3.209   2.324  12.812
73007SOL    HW120918   3.197   2.242  12.860
73007SOL    HW220919   3.197   2.392  12.878
73008SOL     OW20920   5.997   7.459  14.138
73008SOL    HW120921   6.079   7.503  14.159
73008SOL    HW220922   6.016   7.409  14.058
73009SOL     OW20923  13.837  13.073   3.439
73009SOL    HW120924  13.779  13.103   3.510
73009SOL    HW220925  13.787  13.089   3.359
73010SOL     OW20926  11.941  12.618   0.288
73010SOL    HW120927  11.896  12.624   0.204
73010SOL    HW220928  11.985  12.533   0.286
73011SOL     OW20929   7.019   0.012  14.520
73011SOL    HW120930   7.090  14.826  14.489
73011SOL    HW220931   6.960   0.020  14.445
73012SOL     OW20932   2.977  14.746   3.868
73012SOL    HW120933   3.068  14.728   3.845
73012SOL    HW220934   2.926  14.698   3.803
73013SOL     OW20935  12.496   9.942   5.629
73013SOL    HW120936  12.549   9.959   5.707
73013SOL    HW220937  12.413   9.910   5.663
73014SOL     OW20938   6.367   8.403   2.095
73014SOL    HW120939   6.428   8.477   2.094
73014SOL    HW220940   6.283   8.441   2.121
73015SOL     OW20941  10.430   2.325   3.243
73015SOL    HW120942  10.483   2.246   3.248
73015SOL    HW220943  10.366   2.307   3.174
73016SOL     OW20944  13.890   0.056   7.431
73016SOL    HW120945  13.951   0.026   7.363
73016SOL    HW220946  13.836   0.122   7.387
73017SOL     OW20947  11.102   6.242   3.671
73017SOL    HW120948  11.184   6.207   3.636
73017SOL    HW220949  11.040   6.234   3.599
73018SOL     OW20950  10.779   1.532  10.508
73018SOL    HW120951  10.782   1.489  10.594
73018SOL    HW220952  10.870   1.528  10.477
73019SOL     OW20953   3.256  10.861   4.847
73019SOL    HW120954   3.199  10.802   4.797
73019SOL    HW220955   3.256  10.824   4.935
73020SOL     OW20956  11.604   2.530   6.613
73020SOL    HW120957  11.671   2.596   6.596
73020SOL    HW220958  11.569   2.508   6.527
73021SOL     OW20959   9.008   8.728  12.695
73021SOL    HW120960   8.971   8.691  12.615
73021SOL    HW220961   8.933   8.738  12.754
73022SOL     OW20962  13.002   8.239   7.634
73022SOL    HW120963  12.952   8.282   7.565
73022SOL    HW220964  12.970   8.279   7.715
73023SOL     OW20965   3.074   3.268   1.622
73023SOL    HW120966   3.112   3.350   1.654
73023SOL    HW220967   3.033   3.291   1.539
73024SOL     OW20968  13.613  10.873   1.176
73024SOL    HW120969  13.654  10.787   1.168
73024SOL    HW220970  13.584  10.876   1.267
73025SOL     OW20971   2.786   7.292  13.473
73025SOL    HW120972   2.712   7.330  13.425
73025SOL    HW220973   2.864   7.329  13.431
73026SOL     OW20974   8.183  10.559  14.064
73026SOL    HW120975   8.198  10.494  13.996
73026SOL    HW220976   8.159  10.507  14.141
73027SOL     OW20977   2.718  13.776   8.121
73027SOL    HW120978   2.645  13.714   8.130
73027SOL    HW220979   2.786  13.741   8.177
73028SOL     OW20980  13.877   0.914   7.952
73028SOL    HW120981  13.887   0.948   7.863
73028SOL    HW220982  13.923   0.830   7.951
73029SOL     OW20983   3.702  14.717   9.172
73029SOL    HW120984   3.769  14.737   9.106
73029SOL    HW220985   3.677  14.626   9.154
73030SOL     OW20986  10.187   2.749   5.771
73030SOL    HW120987  10.107   2.701   5.751
73030SOL    HW220988  10.159   2.838   5.787
73031SOL     OW20989   2.235  10.561   9.457
73031SOL    HW120990   2.140  10.557   9.464
73031SOL    HW220991   2.256  10.654   9.466
73032SOL     OW20992   6.406   8.802   9.325
73032SOL    HW120993   6.383   8.750   9.248
73032SOL    HW220994   6.374   8.890   9.304
73033SOL     OW20995   8.328  13.570   7.593
73033SOL    HW120996   8.392  13.537   7.657
73033SOL    HW220997   8.265  13.498   7.584
73034SOL     OW20998   8.770   4.603   9.380
73034SOL    HW120999   8.840   4.662   9.406
73034SOL    HW221000   8.749   4.627   9.290
73035SOL     OW21001   9.870  11.800  14.846
73035SOL    HW121002   9.806  11.858  14.805
73035SOL    HW221003   9.943  11.858   0.001
73036SOL     OW21004   6.406   9.731   3.011
73036SOL    HW121005   6.410   9.676   2.933
73036SOL    HW221006   6.463   9.805   2.992
73037SOL     OW21007   1.232   0.032   8.444
73037SOL    HW121008   1.280   0.077   8.513
73037SOL    HW221009   1.175  14.840   8.491
73038SOL     OW21010   1.799   1.885  12.710
73038SOL    HW121011   1.889   1.853  12.718
73038SOL    HW221012   1.804   1.976  12.740
73039SOL     OW21013   9.241  12.527  14.781
73039SOL    HW121014   9.265  12.604  14.729
73039SOL    HW221015   9.150  12.544  14.808
73040SOL     OW21016  11.631   6.450  10.944
73040SOL    HW121017  11.583   6.467  10.863
73040SOL    HW221018  11.719   6.427  10.915
73041SOL     OW21019   2.041  10.998   6.075
73041SOL    HW121020   1.995  11.015   6.157
73041SOL    HW221021   2.119  11.055   6.079
73042SOL     OW21022  12.073   0.776   9.676
73042SOL    HW121023  12.099   0.684   9.671
73042SOL    HW221024  12.146   0.823   9.636
73043SOL     OW21025   2.919   8.694   4.030
73043SOL    HW121026   2.885   8.669   3.944
73043SOL    HW221027   2.899   8.787   4.038
73044SOL     OW21028   4.179  11.585   2.016
73044SOL    HW121029   4.159  11.677   2.034
73044SOL    HW221030   4.274  11.581   2.010
73045SOL     OW21031   6.930   8.500  14.629
73045SOL    HW121032   6.838   8.474  14.620
73045SOL    HW221033   6.938   8.578  14.573
73046SOL     OW21034   6.564   5.425   7.404
73046SOL    HW121035   6.485   5.462   7.365
73046SOL    HW221036   6.606   5.499   7.448
73047SOL     OW21037   3.138   3.179  12.409
73047SOL    HW121038   3.160   3.266  12.374
73047SOL    HW221039   3.143   3.121  12.333
73048SOL     OW21040   8.387   6.134  10.612
73048SOL    HW121041   8.369   6.226  10.632
73048SOL    HW221042   8.434   6.137  10.528
73049SOL     OW21043   4.725   7.562   8.020
73049SOL    HW121044   4.778   7.489   7.988
73049SOL    HW221045   4.768   7.640   7.986
73050SOL     OW21046   5.184   3.848   7.156
73050SOL    HW121047   5.262   3.903   7.160
73050SOL    HW221048   5.136   3.880   7.080
73051SOL     OW21049   3.771   1.258   8.002
73051SOL    HW121050   3.796   1.344   8.035
73051SOL    HW221051   3.768   1.202   8.079
73052SOL     OW21052  10.975   6.172   8.507
73052SOL    HW121053  10.901   6.113   8.516
73052SOL    HW221054  10.998   6.196   8.596
73053SOL     OW21055   0.946   8.228   6.881
73053SOL    HW121056   1.040   8.213   6.870
73053SOL    HW221057   0.932   8.231   6.976
73054SOL     OW21058  11.754   0.359   5.827
73054SOL    HW121059  11.786   0.409   5.902
73054SOL    HW221060  11.732   0.425   5.761
73055SOL     OW21061   1.173  14.531  11.944
73055SOL    HW121062   1.256  14.506  11.986
73055SOL    HW221063   1.194  14.537  11.851
73056SOL     OW21064   7.804  11.108  10.797
73056SOL    HW121065   7.848  11.132  10.715
73056SOL    HW221066   7.853  11.154  10.865
73057SOL     OW21067  11.166   5.925   2.710
73057SOL    HW121068  11.117   5.899   2.788
73057SOL    HW221069  11.171   6.020   2.715
73058SOL     OW21070   6.518  13.607   2.538
73058SOL    HW121071   6.595  13.558   2.568
73058SOL    HW221072   6.535  13.624   2.446
73059SOL     OW21073   1.095   8.822   3.020
73059SOL    HW121074   1.164   8.756   3.023
73059SOL    HW221075   1.013   8.772   3.016
73060SOL     OW21076   8.024  11.170  14.484
73060SOL    HW121077   7.997  11.181  14.393
73060SOL    HW221078   7.967  11.230  14.533
73061SOL     OW21079  10.439   1.205   7.333
73061SOL    HW121080  10.403   1.118   7.352
73061SOL    HW221081  10.532   1.197   7.355
73062SOL     OW21082   6.408   3.473   0.496
73062SOL    HW121083   6.348   3.547   0.498
73062SOL    HW221084   6.481   3.500   0.551
73063SOL     OW21085   9.358   6.735   9.450
73063SOL    HW121086   9.315   6.650   9.448
73063SOL    HW221087   9.444   6.719   9.412
73064SOL     OW21088   1.035   9.434  11.442
73064SOL    HW121089   1.130   9.440  11.445
73064SOL    HW221090   1.017   9.340  11.440
73065SOL     OW21091   0.872   9.817   0.776
73065SOL    HW121092   0.818   9.765   0.717
73065SOL    HW221093   0.962   9.801   0.746
73066SOL     OW21094   6.173  10.219  10.696
73066SOL    HW121095   6.221  10.288  10.743
73066SOL    HW221096   6.163  10.254  10.607
73067SOL     OW21097  13.000   3.768   7.412
73067SOL    HW121098  13.038   3.782   7.498
73067SOL    HW221099  12.908   3.795   7.421
73068SOL     OW21100  13.880   6.390   3.907
73068SOL    HW121101  13.810   6.410   3.970
73068SOL    HW221102  13.910   6.303   3.931
73069SOL     OW21103  14.141   3.307   6.474
73069SOL    HW121104  14.166   3.391   6.513
73069SOL    HW221105  14.209   3.289   6.409
73070SOL     OW21106   6.214   3.009   6.289
73070SOL    HW121107   6.270   2.951   6.239
73070SOL    HW221108   6.127   2.969   6.283
73071SOL     OW21109  12.908  10.174   1.358
73071SOL    HW121110  12.852  10.176   1.436
73071SOL    HW221111  12.851  10.139   1.289
73072SOL     OW21112   7.417   8.991  11.791
73072SOL    HW121113   7.451   9.081  11.793
73072SOL    HW221114   7.458   8.948  11.867
73073SOL     OW21115  13.608   4.394  13.297
73073SOL    HW121116  13.690   4.400  13.248
73073SOL    HW221117  13.634   4.371  13.386
73074SOL     OW21118   0.004   1.820   7.920
73074SOL    HW121119  14.819   1.899   7.927
73074SOL    HW221120  14.822   1.751   7.962
73075SOL     OW21121   6.022   3.404   9.251
73075SOL    HW121122   6.055   3.376   9.336
73075SOL    HW221123   5.926   3.400   9.260
73076SOL     OW21124   7.189   6.664   7.234
73076SOL    HW121125   7.274   6.626   7.211
73076SOL    HW221126   7.125   6.607   7.191
73077SOL     OW21127  13.828   0.182   6.217
73077SOL    HW121128  13.785   0.223   6.141
73077SOL    HW221129  13.835   0.253   6.281
73078SOL     OW21130  12.235   2.437  13.740
73078SOL    HW121131  12.201   2.525  13.758
73078SOL    HW221132  12.330   2.448  13.735
73079SOL     OW21133   6.994  12.759   6.960
73079SOL    HW121134   6.913  12.758   7.010
73079SOL    HW221135   6.969  12.788   6.872
73080SOL     OW21136   4.439   7.318   4.972
73080SOL    HW121137   4.532   7.313   4.949
73080SOL    HW221138   4.414   7.228   4.990
73081SOL     OW21139   3.021  12.996  13.032
73081SOL    HW121140   3.096  13.056  13.026
73081SOL    HW221141   2.985  12.995  12.944
73082SOL     OW21142  11.397   9.340   6.635
73082SOL    HW121143  11.332   9.409   6.653
73082SOL    HW221144  11.410   9.297   6.719
73083SOL     OW21145   0.972   9.764  12.086
73083SOL    HW121146   0.896   9.779  12.029
73083SOL    HW221147   0.991   9.671  12.076
73084SOL     OW21148   1.466  12.763  10.379
73084SOL    HW121149   1.454  12.701  10.307
73084SOL    HW221150   1.473  12.848  10.337
73085SOL     OW21151   7.901   1.780   3.196
73085SOL    HW121152   7.911   1.845   3.126
73085SOL    HW221153   7.898   1.696   3.150
73086SOL     OW21154  13.150   4.051   8.340
73086SOL    HW121155  13.192   4.114   8.282
73086SOL    HW221156  13.060   4.083   8.351
73087SOL     OW21157   0.955   4.546  11.742
73087SOL    HW121158   0.928   4.485  11.673
73087SOL    HW221159   0.893   4.619  11.735
73088SOL     OW21160   4.357  13.472   5.907
73088SOL    HW121161   4.424  13.411   5.937
73088SOL    HW221162   4.288  13.416   5.870
73089SOL     OW21163   7.755   2.326   9.284
73089SOL    HW121164   7.759   2.231   9.280
73089SOL    HW221165   7.664   2.348   9.264
73090SOL     OW21166   1.647   1.398  13.334
73090SOL    HW121167   1.605   1.483  13.319
73090SOL    HW221168   1.587   1.352  13.394
73091SOL     OW21169   4.453  14.550  10.097
73091SOL    HW121170   4.545  14.534  10.075
73091SOL    HW221171   4.453  14.632  10.146
73092SOL     OW21172   6.303   9.888   1.910
73092SOL    HW121173   6.298   9.792   1.907
73092SOL    HW221174   6.334   9.907   1.998
73093SOL     OW21175  12.015   1.871  14.094
73093SOL    HW121176  11.990   1.809  14.164
73093SOL    HW221177  12.094   1.913  14.127
73094SOL     OW21178   2.703   8.300  12.450
73094SOL    HW121179   2.768   8.234  12.425
73094SOL    HW221180   2.633   8.291  12.386
73095SOL     OW21181   0.020   6.963  11.282
73095SOL    HW121182   0.083   6.903  11.320
73095SOL    HW221183   0.072   7.023  11.229
73096SOL     OW21184  13.034   7.979  10.882
73096SOL    HW121185  13.051   7.913  10.815
73096SOL    HW221186  13.083   8.056  10.853
73097SOL     OW21187   5.522  13.785  12.798
73097SOL    HW121188   5.454  13.755  12.738
73097SOL    HW221189   5.604  13.752  12.760
73098SOL     OW21190   5.684  10.983   2.421
73098SOL    HW121191   5.690  10.887   2.419
73098SOL    HW221192   5.593  11.002   2.401
73099SOL     OW21193  12.590  11.931   2.116
73099SOL    HW121194  12.529  11.859   2.103
73099SOL    HW221195  12.534  12.009   2.118
73100SOL     OW21196  12.619   0.111   3.567
73100SOL    HW121197  12.611   0.199   3.531
73100SOL    HW221198  12.529   0.083   3.584
73101SOL     OW21199   6.779   0.784   4.491
73101SOL    HW121200   6.694   0.812   4.458
73101SOL    HW221201   6.804   0.852   4.554
73102SOL     OW21202   5.316   5.841  13.816
73102SOL    HW121203   5.243   5.896  13.787
73102SOL    HW221204   5.351   5.885  13.893
73103SOL     OW21205  10.325   4.466   2.477
73103SOL    HW121206  10.313   4.558   2.499
73103SOL    HW221207  10.347   4.424   2.560
73104SOL     OW21208   9.621   1.428   0.358
73104SOL    HW121209   9.623   1.345   0.405
73104SOL    HW221210   9.659   1.409   0.273
73105SOL     OW21211   5.218   7.845  12.422
73105SOL    HW121212   5.244   7.837  12.330
73105SOL    HW221213   5.237   7.759  12.460
73106SOL     OW21214  10.300   7.969   9.560
73106SOL    HW121215  10.245   7.892   9.546
73106SOL    HW221216  10.329   7.994   9.473
73107SOL     OW21217   1.669   0.525   3.144
73107SOL    HW121218   1.616   0.603   3.126
73107SOL    HW221219   1.604   0.457   3.165
73108SOL     OW21220  12.578   4.218   9.043
73108SOL    HW121221  12.530   4.254   9.117
73108SOL    HW221222  12.601   4.129   9.071
73109SOL     OW21223   9.516   2.422  10.585
73109SOL    HW121224   9.479   2.342  10.550
73109SOL    HW221225   9.470   2.435  10.669
73110SOL     OW21226   6.365   1.173   5.839
73110SOL    HW121227   6.425   1.230   5.887
73110SOL    HW221228   6.350   1.099   5.898
73111SOL     OW21229   0.338  10.259   6.635
73111SOL    HW121230   0.279  10.311   6.580
73111SOL    HW221231   0.285  10.238   6.712
73112SOL     OW21232  11.271   5.110  10.101
73112SOL    HW121233  11.238   5.128  10.013
73112SOL    HW221234  11.217   5.165  10.158
73113SOL     OW21235   7.034  13.584  14.409
73113SOL    HW121236   7.104  13.648  14.423
73113SOL    HW221237   6.960  13.635  14.378
73114SOL     OW21238   2.789  13.522   3.486
73114SOL    HW121239   2.838  13.604   3.497
73114SOL    HW221240   2.856  13.453   3.493
73115SOL     OW21241  13.735   6.335   0.726
73115SOL    HW121242  13.788   6.260   0.699
73115SOL    HW221243  13.707   6.313   0.815
73116SOL     OW21244   2.510   4.545  10.778
73116SOL    HW121245   2.518   4.641  10.783
73116SOL    HW221246   2.500   4.517  10.870
73117SOL     OW21247   8.610  12.756  10.431
73117SOL    HW121248   8.521  12.723  10.445
73117SOL    HW221249   8.637  12.789  10.517
73118SOL     OW21250   5.689  10.973  13.149
73118SOL    HW121251   5.673  10.880  13.129
73118SOL    HW221252   5.670  11.018  13.067
73119SOL     OW21253   3.537  11.415   2.327
73119SOL    HW121254   3.519  11.352   2.397
73119SOL    HW221255   3.518  11.500   2.366
73120SOL     OW21256  10.212  12.661   9.668
73120SOL    HW121257  10.274  12.692   9.602
73120SOL    HW221258  10.162  12.739   9.693
73121SOL     OW21259   5.647   4.932   3.117
73121SOL    HW121260   5.732   4.954   3.077
73121SOL    HW221261   5.583   4.964   3.054
73122SOL     OW21262  14.325   3.306   0.847
73122SOL    HW121263  14.326   3.396   0.878
73122SOL    HW221264  14.253   3.265   0.895
73123SOL     OW21265   6.147  13.138   4.234
73123SOL    HW121266   6.142  13.229   4.264
73123SOL    HW221267   6.177  13.144   4.144
73124SOL     OW21268   5.075  13.083   3.792
73124SOL    HW121269   5.140  13.014   3.802
73124SOL    HW221270   5.083  13.135   3.872
73125SOL     OW21271   7.674   5.098   7.628
73125SOL    HW121272   7.752   5.140   7.664
73125SOL    HW221273   7.604   5.161   7.642
73126SOL     OW21274   8.288   4.975   4.907
73126SOL    HW121275   8.383   4.983   4.900
73126SOL    HW221276   8.256   5.064   4.891
73127SOL     OW21277   7.189   6.583   2.991
73127SOL    HW121278   7.150   6.496   2.979
73127SOL    HW221279   7.169   6.629   2.910
73128SOL     OW21280   1.608   3.819   4.234
73128SOL    HW121281   1.623   3.729   4.205
73128SOL    HW221282   1.517   3.837   4.209
73129SOL     OW21283   4.238   2.975   2.380
73129SOL    HW121284   4.252   3.013   2.293
73129SOL    HW221285   4.327   2.964   2.416
73130SOL     OW21286   0.388   3.867   3.801
73130SOL    HW121287   0.435   3.801   3.851
73130SOL    HW221288   0.348   3.923   3.867
73131SOL     OW21289  10.438  12.414  13.992
73131SOL    HW121290  10.408  12.423  13.902
73131SOL    HW221291  10.433  12.320  14.011
73132SOL     OW21292   6.200   8.097   6.002
73132SOL    HW121293   6.238   8.009   5.997
73132SOL    HW221294   6.188   8.114   6.095
73133SOL     OW21295   5.496   3.683   5.860
73133SOL    HW121296   5.463   3.599   5.892
73133SOL    HW221297   5.487   3.678   5.765
73134SOL     OW21298   4.205  14.297   9.537
73134SOL    HW121299   4.220  14.266   9.627
73134SOL    HW221300   4.293  14.308   9.500
73135SOL     OW21301   6.369   5.031   3.365
73135SOL    HW121302   6.407   5.005   3.281
73135SOL    HW221303   6.444   5.047   3.422
73136SOL     OW21304   4.143   3.982   1.118
73136SOL    HW121305   4.115   4.060   1.070
73136SOL    HW221306   4.191   4.016   1.193
73137SOL     OW21307   5.477  13.286  11.994
73137SOL    HW121308   5.413  13.233  11.947
73137SOL    HW221309   5.466  13.374  11.957
73138SOL     OW21310  10.356   1.819  14.585
73138SOL    HW121311  10.399   1.899  14.615
73138SOL    HW221312  10.428   1.761  14.561
73139SOL     OW21313   9.127   7.160   5.586
73139SOL    HW121314   9.110   7.231   5.649
73139SOL    HW221315   9.223   7.151   5.587
73140SOL     OW21316  13.986  13.368   3.489
73140SOL    HW121317  13.953  13.345   3.402
73140SOL    HW221318  13.921  13.333   3.549
73141SOL     OW21319   5.225   4.509  13.586
73141SOL    HW121320   5.147   4.520  13.640
73141SOL    HW221321   5.251   4.417  13.599
73142SOL     OW21322   1.107  13.699   6.834
73142SOL    HW121323   1.142  13.654   6.911
73142SOL    HW221324   1.012  13.703   6.850
73143SOL     OW21325   3.568   2.209  11.733
73143SOL    HW121326   3.636   2.185  11.669
73143SOL    HW221327   3.613   2.265  11.795
73144SOL     OW21328  12.160   3.236  12.119
73144SOL    HW121329  12.198   3.169  12.176
73144SOL    HW221330  12.236   3.283  12.084
73145SOL     OW21331   5.255   2.245   2.228
73145SOL    HW121332   5.213   2.178   2.282
73145SOL    HW221333   5.185   2.280   2.173
73146SOL     OW21334   2.084  12.346   7.200
73146SOL    HW121335   2.051  12.317   7.285
73146SOL    HW221336   2.007  12.343   7.143
73147SOL     OW21337   7.781  12.424  11.130
73147SOL    HW121338   7.740  12.457  11.210
73147SOL    HW221339   7.733  12.468  11.059
73148SOL     OW21340   4.177  10.723  11.425
73148SOL    HW121341   4.269  10.739  11.403
73148SOL    HW221342   4.160  10.782  11.498
73149SOL     OW21343  10.394  12.635   8.261
73149SOL    HW121344  10.372  12.721   8.226
73149SOL    HW221345  10.340  12.574   8.212
73150SOL     OW21346   9.210   7.535   7.523
73150SOL    HW121347   9.279   7.538   7.589
73150SOL    HW221348   9.246   7.478   7.454
73151SOL     OW21349  14.492   8.804   3.403
73151SOL    HW121350  14.406   8.790   3.443
73151SOL    HW221351  14.543   8.728   3.429
73152SOL     OW21352   8.254   9.546   1.263
73152SOL    HW121353   8.194   9.570   1.334
73152SOL    HW221354   8.198   9.538   1.186
73153SOL     OW21355   0.046   5.993   1.146
73153SOL    HW121356  14.867   6.062   1.100
73153SOL    HW221357  14.867   5.980   1.227
73154SOL     OW21358   3.797   2.257  11.125
73154SOL    HW121359   3.855   2.217  11.059
73154SOL    HW221360   3.794   2.349  11.101
73155SOL     OW21361  12.517  12.292   3.992
73155SOL    HW121362  12.454  12.356   3.958
73155SOL    HW221363  12.517  12.306   4.086
73156SOL     OW21364   8.516   6.184   3.953
73156SOL    HW121365   8.574   6.165   3.879
73156SOL    HW221366   8.576   6.199   4.026
73157SOL     OW21367  11.941   5.004  12.701
73157SOL    HW121368  11.944   5.096  12.676
73157SOL    HW221369  12.016   4.992  12.759
73158SOL     OW21370   0.462   2.327   6.867
73158SOL    HW121371   0.503   2.247   6.836
73158SOL    HW221372   0.450   2.314   6.961
73159SOL     OW21373  12.459   0.272   2.414
73159SOL    HW121374  12.468   0.253   2.508
73159SOL    HW221375  12.466   0.187   2.372
73160SOL     OW21376   3.181  12.745   4.945
73160SOL    HW121377   3.234  12.731   4.866
73160SOL    HW221378   3.194  12.838   4.965
73161SOL     OW21379  10.116  12.385   8.449
73161SOL    HW121380  10.122  12.481   8.443
73161SOL    HW221381  10.184  12.353   8.389
73162SOL     OW21382   0.070   9.962   8.087
73162SOL    HW121383   0.106  10.048   8.106
73162SOL    HW221384  14.858   9.958   8.137
73163SOL     OW21385   7.442   6.875   3.562
73163SOL    HW121386   7.532   6.843   3.570
73163SOL    HW221387   7.403   6.862   3.648
73164SOL     OW21388   1.714   0.131   1.568
73164SOL    HW121389   1.675   0.206   1.613
73164SOL    HW221390   1.736   0.070   1.638
73165SOL     OW21391   5.211   6.749  12.550
73165SOL    HW121392   5.273   6.676  12.549
73165SOL    HW221393   5.217   6.786  12.462
73166SOL     OW21394   2.015  11.030   5.807
73166SOL    HW121395   1.929  11.012   5.770
73166SOL    HW221396   2.000  11.032   5.902
73167SOL     OW21397  14.471  10.386  14.372
73167SOL    HW121398  14.486  10.405  14.465
73167SOL    HW221399  14.417  10.307  14.372
73168SOL     OW21400  12.025   1.519   9.179
73168SOL    HW121401  12.025   1.490   9.270
73168SOL    HW221402  12.034   1.614   9.184
73169SOL     OW21403   9.215  13.852   9.649
73169SOL    HW121404   9.240  13.886   9.734
73169SOL    HW221405   9.264  13.771   9.640
73170SOL     OW21406   4.566   6.752   9.237
73170SOL    HW121407   4.496   6.711   9.186
73170SOL    HW221408   4.577   6.696   9.314
73171SOL     OW21409   3.148   9.209  13.712
73171SOL    HW121410   3.199   9.138  13.751
73171SOL    HW221411   3.063   9.205  13.755
73172SOL     OW21412   3.069   2.671   4.607
73172SOL    HW121413   3.145   2.711   4.650
73172SOL    HW221414   3.106   2.620   4.536
73173SOL     OW21415   9.439   6.105   7.646
73173SOL    HW121416   9.360   6.127   7.694
73173SOL    HW221417   9.467   6.187   7.606
73174SOL     OW21418   0.649   5.110   0.857
73174SOL    HW121419   0.705   5.104   0.780
73174SOL    HW221420   0.698   5.164   0.918
73175SOL     OW21421   5.401   9.929  10.897
73175SOL    HW121422   5.483   9.928  10.947
73175SOL    HW221423   5.425   9.895  10.811
73176SOL     OW21424   9.164  12.089   7.197
73176SOL    HW121425   9.104  12.018   7.178
73176SOL    HW221426   9.129  12.130   7.276
73177SOL     OW21427  13.684  12.626  10.967
73177SOL    HW121428  13.664  12.689  11.036
73177SOL    HW221429  13.620  12.644  10.898
73178SOL     OW21430   8.214   5.486   9.766
73178SOL    HW121431   8.238   5.579   9.761
73178SOL    HW221432   8.275   5.449   9.829
73179SOL     OW21433   8.317  12.952   3.298
73179SOL    HW121434   8.347  12.884   3.236
73179SOL    HW221435   8.234  12.982   3.261
73180SOL     OW21436   1.550   0.807   7.367
73180SOL    HW121437   1.514   0.800   7.279
73180SOL    HW221438   1.482   0.853   7.417
73181SOL     OW21439   3.942  10.999  11.027
73181SOL    HW121440   4.035  11.016  11.011
73181SOL    HW221441   3.941  10.953  11.111
73182SOL     OW21442  12.757  13.707  14.134
73182SOL    HW121443  12.795  13.794  14.136
73182SOL    HW221444  12.665  13.721  14.110
73183SOL     OW21445   9.051  13.973  13.043
73183SOL    HW121446   8.973  14.005  13.089
73183SOL    HW221447   9.064  13.884  13.077
73184SOL     OW21448   7.593   1.864  10.248
73184SOL    HW121449   7.532   1.794  10.224
73184SOL    HW221450   7.658   1.820  10.304
73185SOL     OW21451  14.507   2.826   6.742
73185SOL    HW121452  14.555   2.908   6.753
73185SOL    HW221453  14.472   2.831   6.653
73186SOL     OW21454   5.351   9.077   2.820
73186SOL    HW121455   5.272   9.127   2.799
73186SOL    HW221456   5.397   9.069   2.737
73187SOL     OW21457   3.464   4.786   8.239
73187SOL    HW121458   3.396   4.724   8.213
73187SOL    HW221459   3.533   4.731   8.277
73188SOL     OW21460   2.887   9.718  14.549
73188SOL    HW121461   2.873   9.757  14.462
73188SOL    HW221462   2.977   9.684  14.546
73189SOL     OW21463  10.627  12.667   0.777
73189SOL    HW121464  10.636  12.572   0.771
73189SOL    HW221465  10.710  12.697   0.814
73190SOL     OW21466  14.703   1.744   4.326
73190SOL    HW121467  14.628   1.685   4.323
73190SOL    HW221468  14.670   1.823   4.368
73191SOL     OW21469  13.266  14.582  12.283
73191SOL    HW121470  13.319  14.503  12.277
73191SOL    HW221471  13.247  14.605  12.192
73192SOL     OW21472   3.441  12.088   6.009
73192SOL    HW121473   3.379  12.047   6.070
73192SOL    HW221474   3.471  12.166   6.055
73193SOL     OW21475  11.013   7.694  11.759
73193SOL    HW121476  10.935   7.663  11.804
73193SOL    HW221477  11.062   7.614  11.738
73194SOL     OW21478   1.802   6.291   1.404
73194SOL    HW121479   1.710   6.295   1.377
73194SOL    HW221480   1.799   6.301   1.499
73195SOL     OW21481   5.106  12.254   6.262
73195SOL    HW121482   5.148  12.272   6.177
73195SOL    HW221483   5.027  12.204   6.239
73196SOL     OW21484   9.033  12.322  13.112
73196SOL    HW121485   8.960  12.327  13.174
73196SOL    HW221486   9.105  12.283  13.163
73197SOL     OW21487   7.258  14.048   0.676
73197SOL    HW121488   7.307  14.002   0.608
73197SOL    HW221489   7.249  14.137   0.642
73198SOL     OW21490   4.340   5.636   1.729
73198SOL    HW121491   4.265   5.683   1.765
73198SOL    HW221492   4.407   5.704   1.717
73199SOL     OW21493   7.903   9.077   6.348
73199SOL    HW121494   7.866   8.992   6.374
73199SOL    HW221495   7.828   9.137   6.348
73200SOL     OW21496   2.451   9.512  12.897
73200SOL    HW121497   2.385   9.445  12.914
73200SOL    HW221498   2.406   9.595  12.912
73201SOL     OW21499   1.141   2.282   5.341
73201SOL    HW121500   1.075   2.230   5.387
73201SOL    HW221501   1.108   2.290   5.252
73202SOL     OW21502   3.938   5.450   6.953
73202SOL    HW121503   3.951   5.405   6.870
73202SOL    HW221504   4.018   5.434   7.003
73203SOL     OW21505   2.455  10.382   0.716
73203SOL    HW121506   2.482  10.312   0.775
73203SOL    HW221507   2.472  10.463   0.764
73204SOL     OW21508   6.442   7.254  14.025
73204SOL    HW121509   6.348   7.238  14.027
73204SOL    HW221510   6.451   7.348  14.009
73205SOL     OW21511   0.453   0.428   4.802
73205SOL    HW121512   0.405   0.511   4.800
73205SOL    HW221513   0.505   0.433   4.883
73206SOL     OW21514  11.195   8.966  12.239
73206SOL    HW121515  11.111   8.923  12.256
73206SOL    HW221516  11.244   8.902  12.187
73207SOL     OW21517  14.033   3.875   7.297
73207SOL    HW121518  13.982   3.808   7.251
73207SOL    HW221519  13.974   3.950   7.305
73208SOL     OW21520   5.154  11.646   3.782
73208SOL    HW121521   5.128  11.628   3.692
73208SOL    HW221522   5.250  11.643   3.780
73209SOL     OW21523   1.816  10.811   3.562
73209SOL    HW121524   1.841  10.722   3.585
73209SOL    HW221525   1.898  10.852   3.533
73210SOL     OW21526   8.315   8.277  10.652
73210SOL    HW121527   8.345   8.267  10.743
73210SOL    HW221528   8.284   8.367  10.647
73211SOL     OW21529   0.571   1.184  10.236
73211SOL    HW121530   0.584   1.275  10.207
73211SOL    HW221531   0.633   1.174  10.308
73212SOL     OW21532   2.620   8.368   0.503
73212SOL    HW121533   2.559   8.440   0.484
73212SOL    HW221534   2.565   8.292   0.515
73213SOL     OW21535   8.875   7.123   2.928
73213SOL    HW121536   8.883   7.028   2.937
73213SOL    HW221537   8.883   7.138   2.834
73214SOL     OW21538  13.844   5.672   8.266
73214SOL    HW121539  13.749   5.673   8.279
73214SOL    HW221540  13.860   5.594   8.213
73215SOL     OW21541  11.353   8.358   1.700
73215SOL    HW121542  11.272   8.405   1.681
73215SOL    HW221543  11.337   8.319   1.786
73216SOL     OW21544  13.385   7.991   5.418
73216SOL    HW121545  13.378   7.980   5.512
73216SOL    HW221546  13.309   7.943   5.383
73217SOL     OW21547   5.922   1.642  14.089
73217SOL    HW121548   5.994   1.660  14.150
73217SOL    HW221549   5.889   1.728  14.065
73218SOL     OW21550  14.279  12.078   1.390
73218SOL    HW121551  14.346  12.037   1.445
73218SOL    HW221552  14.308  12.059   1.300
73219SOL     OW21553  10.374  10.976   2.984
73219SOL    HW121554  10.425  10.923   3.046
73219SOL    HW221555  10.353  11.056   3.032
73220SOL     OW21556   1.025   9.912   7.738
73220SOL    HW121557   1.020   9.972   7.664
73220SOL    HW221558   0.986   9.960   7.811
73221SOL     OW21559   6.542   6.921  11.495
73221SOL    HW121560   6.495   6.989  11.544
73221SOL    HW221561   6.574   6.861  11.562
73222SOL     OW21562   8.707   0.561   8.665
73222SOL    HW121563   8.695   0.469   8.687
73222SOL    HW221564   8.767   0.560   8.590
73223SOL     OW21565   2.472   8.965   0.936
73223SOL    HW121566   2.446   8.972   1.028
73223SOL    HW221567   2.519   8.882   0.930
73224SOL     OW21568   2.477  13.481  14.601
73224SOL    HW121569   2.436  13.457  14.685
73224SOL    HW221570   2.467  13.576  14.595
73225SOL     OW21571   2.892  11.646   2.007
73225SOL    HW121572   2.805  11.654   1.967
73225SOL    HW221573   2.906  11.730   2.050
73226SOL     OW21574   6.108   1.232   5.788
73226SOL    HW121575   6.197   1.197   5.794
73226SOL    HW221576   6.063   1.172   5.729
73227SOL     OW21577  12.604   7.471   4.435
73227SOL    HW121578  12.651   7.553   4.454
73227SOL    HW221579  12.518   7.484   4.474
73228SOL     OW21580   7.243   9.642   7.471
73228SOL    HW121581   7.253   9.579   7.542
73228SOL    HW221582   7.173   9.607   7.417
73229SOL     OW21583   3.266  10.034   9.674
73229SOL    HW121584   3.172  10.048   9.672
73229SOL    HW221585   3.303  10.104   9.620
73230SOL     OW21586   8.998  13.042  13.375
73230SOL    HW121587   9.065  13.021  13.440
73230SOL    HW221588   8.936  12.969  13.381
73231SOL     OW21589  10.151  13.517   0.881
73231SOL    HW121590  10.241  13.527   0.849
73231SOL    HW221591  10.161  13.468   0.962
73232SOL     OW21592   9.132   6.888  12.078
73232SOL    HW121593   9.056   6.856  12.030
73232SOL    HW221594   9.145   6.977  12.045
73233SOL     OW21595  12.690   9.712   0.170
73233SOL    HW121596  12.596   9.726   0.172
73233SOL    HW221597  12.701   9.617   0.167
73234SOL     OW21598  11.670   2.034   1.598
73234SOL    HW121599  11.715   1.953   1.573
73234SOL    HW221600  11.720   2.066   1.674
73235SOL     OW21601  12.395   4.898   4.376
73235SOL    HW121602  12.424   4.865   4.291
73235SOL    HW221603  12.300   4.901   4.370
73236SOL     OW21604  10.144   1.228  10.148
73236SOL    HW121605  10.118   1.199  10.061
73236SOL    HW221606  10.194   1.308  10.133
73237SOL     OW21607   4.421   4.550   5.669
73237SOL    HW121608   4.398   4.476   5.612
73237SOL    HW221609   4.480   4.512   5.734
73238SOL     OW21610   0.558   4.626  13.124
73238SOL    HW121611   0.647   4.656  13.108
73238SOL    HW221612   0.553   4.540  13.082
73239SOL     OW21613   0.209   5.097   5.124
73239SOL    HW121614   0.148   5.169   5.108
73239SOL    HW221615   0.247   5.079   5.038
73240SOL     OW21616  14.603   7.157   2.582
73240SOL    HW121617  14.650   7.175   2.500
73240SOL    HW221618  14.620   7.234   2.636
73241SOL     OW21619   2.390  10.299  11.462
73241SOL    HW121620   2.326  10.360  11.501
73241SOL    HW221621   2.461  10.296  11.526
73242SOL     OW21622  11.852   6.885   2.137
73242SOL    HW121623  11.828   6.844   2.220
73242SOL    HW221624  11.922   6.947   2.160
73243SOL     OW21625   6.466   7.985   3.788
73243SOL    HW121626   6.491   8.047   3.857
73243SOL    HW221627   6.516   7.906   3.807
73244SOL     OW21628   8.571   1.739   3.532
73244SOL    HW121629   8.619   1.725   3.451
73244SOL    HW221630   8.548   1.832   3.531
73245SOL     OW21631  12.585   7.204  10.815
73245SOL    HW121632  12.506   7.162  10.781
73245SOL    HW221633  12.557   7.292  10.841
73246SOL     OW21634  11.356  14.125   1.586
73246SOL    HW121635  11.415  14.184   1.633
73246SOL    HW221636  11.376  14.038   1.622
73247SOL     OW21637  10.906  11.770  13.709
73247SOL    HW121638  10.859  11.709  13.652
73247SOL    HW221639  10.951  11.830  13.649
73248SOL     OW21640   4.811  14.125   6.074
73248SOL    HW121641   4.803  14.033   6.101
73248SOL    HW221642   4.851  14.169   6.150
73249SOL     OW21643  10.535  13.530  10.113
73249SOL    HW121644  10.523  13.458  10.051
73249SOL    HW221645  10.456  13.528  10.167
73250SOL     OW21646  11.928  13.631   5.878
73250SOL    HW121647  12.002  13.645   5.819
73250SOL    HW221648  11.865  13.581   5.826
73251SOL     OW21649   7.763  13.927   9.291
73251SOL    HW121650   7.833  13.873   9.255
73251SOL    HW221651   7.691  13.918   9.229
73252SOL     OW21652   5.109   6.767   4.984
73252SOL    HW121653   5.096   6.820   4.905
73252SOL    HW221654   5.121   6.831   5.054
73253SOL     OW21655   2.021  14.059  11.738
73253SOL    HW121656   2.085  14.127  11.714
73253SOL    HW221657   2.068  14.003  11.800
73254SOL     OW21658   6.747   7.943  14.592
73254SOL    HW121659   6.676   7.883  14.615
73254SOL    HW221660   6.784   7.907  14.512
73255SOL     OW21661   8.614  10.791  10.086
73255SOL    HW121662   8.573  10.867  10.127
73255SOL    HW221663   8.639  10.734  10.159
73256SOL     OW21664   4.017   0.697  14.548
73256SOL    HW121665   4.090   0.636  14.534
73256SOL    HW221666   3.999   0.733  14.461
73257SOL     OW21667  11.364   5.303   7.223
73257SOL    HW121668  11.373   5.398   7.212
73257SOL    HW221669  11.281   5.281   7.180
73258SOL     OW21670  14.848   1.978   9.017
73258SOL    HW121671  14.847   1.967   8.922
73258SOL    HW221672   0.062   1.941   9.045
73259SOL     OW21673   6.344  13.435   2.676
73259SOL    HW121674   6.389  13.511   2.638
73259SOL    HW221675   6.360  13.441   2.770
73260SOL     OW21676  14.320  10.895  12.815
73260SOL    HW121677  14.308  10.830  12.885
73260SOL    HW221678  14.338  10.843  12.737
73261SOL     OW21679  12.865  12.784   8.396
73261SOL    HW121680  12.813  12.787   8.315
73261SOL    HW221681  12.883  12.876   8.416
73262SOL     OW21682   7.518   6.370  11.113
73262SOL    HW121683   7.479   6.316  11.181
73262SOL    HW221684   7.578   6.311  11.067
73263SOL     OW21685   7.431   1.364   4.421
73263SOL    HW121686   7.504   1.313   4.456
73263SOL    HW221687   7.410   1.321   4.338
73264SOL     OW21688   0.733   1.388   8.213
73264SOL    HW121689   0.699   1.367   8.126
73264SOL    HW221690   0.801   1.454   8.197
73265SOL     OW21691   2.513   9.220   8.691
73265SOL    HW121692   2.491   9.309   8.718
73265SOL    HW221693   2.581   9.192   8.753
73266SOL     OW21694   0.710   0.698   2.317
73266SOL    HW121695   0.728   0.783   2.277
73266SOL    HW221696   0.676   0.719   2.404
73267SOL     OW21697  14.551   3.737   7.789
73267SOL    HW121698  14.553   3.655   7.839
73267SOL    HW221699  14.497   3.796   7.842
73268SOL     OW21700   8.754  14.596   5.803
73268SOL    HW121701   8.719  14.596   5.713
73268SOL    HW221702   8.759  14.689   5.826
73269SOL     OW21703   0.130  12.166  12.597
73269SOL    HW121704   0.096  12.189  12.683
73269SOL    HW221705   0.087  12.228  12.538
73270SOL     OW21706   5.229   5.903   0.767
73270SOL    HW121707   5.149   5.858   0.740
73270SOL    HW221708   5.225   5.904   0.862
73271SOL     OW21709   3.178   2.969   5.904
73271SOL    HW121710   3.198   3.024   5.828
73271SOL    HW221711   3.216   3.015   5.978
73272SOL     OW21712   4.234   9.152   0.389
73272SOL    HW121713   4.162   9.177   0.447
73272SOL    HW221714   4.306   9.130   0.449
73273SOL     OW21715   3.773   8.655   7.271
73273SOL    HW121716   3.719   8.583   7.303
73273SOL    HW221717   3.857   8.615   7.249
73274SOL     OW21718   1.555  12.391   7.995
73274SOL    HW121719   1.559  12.407   8.089
73274SOL    HW221720   1.540  12.297   7.988
73275SOL     OW21721   7.273  12.688   9.753
73275SOL    HW121722   7.194  12.736   9.777
73275SOL    HW221723   7.242  12.601   9.730
73276SOL     OW21724   9.671  12.814   9.230
73276SOL    HW121725   9.635  12.787   9.315
73276SOL    HW221726   9.733  12.745   9.208
73277SOL     OW21727  11.743   7.377   3.917
73277SOL    HW121728  11.778   7.353   3.831
73277SOL    HW221729  11.818   7.412   3.965
73278SOL     OW21730   8.122   2.040   8.200
73278SOL    HW121731   8.185   2.052   8.271
73278SOL    HW221732   8.057   2.110   8.214
73279SOL     OW21733  14.134  10.193   4.829
73279SOL    HW121734  14.229  10.191   4.823
73279SOL    HW221735  14.103  10.162   4.744
73280SOL     OW21736   9.331   3.875   8.295
73280SOL    HW121737   9.382   3.849   8.218
73280SOL    HW221738   9.356   3.966   8.311
73281SOL     OW21739  13.517  13.846  12.942
73281SOL    HW121740  13.543  13.759  12.972
73281SOL    HW221741  13.438  13.866  12.992
73282SOL     OW21742   9.506  11.064   2.343
73282SOL    HW121743   9.417  11.074   2.378
73282SOL    HW221744   9.500  10.990   2.283
73283SOL     OW21745   2.167   1.996  12.775
73283SOL    HW121746   2.259   1.995  12.804
73283SOL    HW221747   2.151   2.087  12.750
73284SOL     OW21748  12.410  10.714  14.742
73284SOL    HW121749  12.366  10.776  14.800
73284SOL    HW221750  12.492  10.757  14.718
73285SOL     OW21751  14.477   9.682   9.492
73285SOL    HW121752  14.525   9.655   9.570
73285SOL    HW221753  14.543   9.686   9.423
73286SOL     OW21754   3.318   6.037  12.897
73286SOL    HW121755   3.267   5.956  12.889
73286SOL    HW221756   3.313   6.060  12.990
73287SOL     OW21757  10.808  14.068  12.043
73287SOL    HW121758  10.770  14.071  12.131
73287SOL    HW221759  10.742  14.111  11.987
73288SOL     OW21760   5.848  13.325   6.239
73288SOL    HW121761   5.771  13.374   6.269
73288SOL    HW221762   5.827  13.234   6.259
73289SOL     OW21763   0.961   2.049   3.050
73289SOL    HW121764   0.880   2.067   3.002
73289SOL    HW221765   0.982   1.959   3.028
73290SOL     OW21766  11.112   5.691   5.557
73290SOL    HW121767  11.206   5.702   5.546
73290SOL    HW221768  11.085   5.637   5.482
73291SOL     OW21769   2.870   4.928   0.073
73291SOL    HW121770   2.871   5.011   0.120
73291SOL    HW221771   2.857   4.862   0.142
73292SOL     OW21772   6.567  11.467   0.323
73292SOL    HW121773   6.477  11.497   0.335
73292SOL    HW221774   6.577  11.456   0.229
73293SOL     OW21775   2.941  11.080  13.445
73293SOL    HW121776   2.963  11.169  13.421
73293SOL    HW221777   2.976  11.026  13.374
73294SOL     OW21778   6.678   9.194   4.185
73294SOL    HW121779   6.582   9.204   4.182
73294SOL    HW221780   6.700   9.209   4.277
73295SOL     OW21781   2.127  14.044   2.049
73295SOL    HW121782   2.153  13.991   2.124
73295SOL    HW221783   2.202  14.100   2.032
73296SOL     OW21784  11.366   9.728   0.640
73296SOL    HW121785  11.338   9.763   0.725
73296SOL    HW221786  11.447   9.681   0.660
73297SOL     OW21787   4.540   6.786   6.384
73297SOL    HW121788   4.530   6.864   6.439
73297SOL    HW221789   4.450   6.759   6.364
73298SOL     OW21790   3.479   6.628   2.011
73298SOL    HW121791   3.389   6.609   1.986
73298SOL    HW221792   3.530   6.612   1.931
73299SOL     OW21793   8.233  13.201  12.855
73299SOL    HW121794   8.307  13.183  12.797
73299SOL    HW221795   8.268  13.260  12.921
73300SOL     OW21796   2.467   7.512  10.408
73300SOL    HW121797   2.504   7.456  10.339
73300SOL    HW221798   2.543   7.543  10.458
73301SOL     OW21799   2.358  11.077   4.082
73301SOL    HW121800   2.305  11.025   4.142
73301SOL    HW221801   2.444  11.035   4.082
73302SOL     OW21802   0.694  13.119  11.645
73302SOL    HW121803   0.665  13.045  11.699
73302SOL    HW221804   0.630  13.124  11.574
73303SOL     OW21805   4.568   5.578   0.598
73303SOL    HW121806   4.561   5.673   0.584
73303SOL    HW221807   4.559   5.567   0.692
73304SOL     OW21808   6.100   7.087  10.727
73304SOL    HW121809   6.189   7.063  10.702
73304SOL    HW221810   6.069   7.143  10.656
73305SOL     OW21811  11.555   2.424   5.559
73305SOL    HW121812  11.528   2.504   5.604
73305SOL    HW221813  11.488   2.411   5.492
73306SOL     OW21814   5.974  14.499   2.572
73306SOL    HW121815   5.886  14.464   2.560
73306SOL    HW221816   5.979  14.574   2.513
73307SOL     OW21817   8.290   8.253   3.607
73307SOL    HW121818   8.356   8.185   3.593
73307SOL    HW221819   8.221   8.233   3.544
73308SOL     OW21820   1.158   8.186   1.453
73308SOL    HW121821   1.219   8.231   1.395
73308SOL    HW221822   1.082   8.244   1.458
73309SOL     OW21823   3.197   2.792   5.450
73309SOL    HW121824   3.242   2.720   5.405
73309SOL    HW221825   3.208   2.772   5.543
73310SOL     OW21826   7.051  14.398  10.480
73310SOL    HW121827   7.001  14.470  10.518
73310SOL    HW221828   7.004  14.320  10.507
73311SOL     OW21829   8.148   8.838   5.586
73311SOL    HW121830   8.145   8.799   5.498
73311SOL    HW221831   8.152   8.763   5.645
73312SOL     OW21832  12.759  14.833   0.788
73312SOL    HW121833  12.720  14.746   0.792
73312SOL    HW221834  12.743   0.001   0.875
73313SOL     OW21835  11.332   7.087   9.832
73313SOL    HW121836  11.280   7.105   9.911
73313SOL    HW221837  11.402   7.151   9.835
73314SOL     OW21838   2.466   1.668  10.846
73314SOL    HW121839   2.428   1.585  10.871
73314SOL    HW221840   2.497   1.655  10.756
73315SOL     OW21841   5.609  11.340  13.417
73315SOL    HW121842   5.649  11.309  13.499
73315SOL    HW221843   5.521  11.368  13.442
73316SOL     OW21844   9.354  10.663   7.785
73316SOL    HW121845   9.370  10.575   7.751
73316SOL    HW221846   9.265  10.660   7.819
73317SOL     OW21847   7.704  11.127   5.953
73317SOL    HW121848   7.622  11.157   5.915
73317SOL    HW221849   7.702  11.158   6.043
73318SOL     OW21850   0.872   1.734   7.785
73318SOL    HW121851   0.964   1.746   7.760
73318SOL    HW221852   0.828   1.713   7.702
73319SOL     OW21853  10.400   8.096  14.861
73319SOL    HW121854  10.353   8.159   0.046
73319SOL    HW221855  10.460   8.052   0.051
73320SOL     OW21856   6.934   4.181   9.486
73320SOL    HW121857   6.953   4.274   9.497
73320SOL    HW221858   6.869   4.162   9.553
73321SOL     OW21859  12.352   3.839  13.305
73321SOL    HW121860  12.341   3.839  13.210
73321SOL    HW221861  12.444   3.817  13.319
73322SOL     OW21862   0.709  10.489   8.889
73322SOL    HW121863   0.788  10.459   8.845
73322SOL    HW221864   0.709  10.442   8.973
73323SOL     OW21865   1.217  10.138   5.997
73323SOL    HW121866   1.274  10.062   6.001
73323SOL    HW221867   1.271  10.206   5.956
73324SOL     OW21868   2.046   5.095   7.810
73324SOL    HW121869   1.978   5.059   7.753
73324SOL    HW221870   2.088   5.163   7.758
73325SOL     OW21871   9.375   7.412   7.360
73325SOL    HW121872   9.423   7.387   7.281
73325SOL    HW221873   9.441   7.410   7.430
73326SOL     OW21874   1.262  11.629   2.268
73326SOL    HW121875   1.270  11.548   2.216
73326SOL    HW221876   1.180  11.618   2.316
73327SOL     OW21877  11.069   5.209   8.232
73327SOL    HW121878  11.074   5.114   8.232
73327SOL    HW221879  11.150   5.237   8.190
73328SOL     OW21880   3.655  13.358  12.366
73328SOL    HW121881   3.680  13.319  12.450
73328SOL    HW221882   3.646  13.452  12.385
73329SOL     OW21883   5.556   0.537   2.619
73329SOL    HW121884   5.630   0.555   2.677
73329SOL    HW221885   5.497   0.482   2.671
73330SOL     OW21886   9.056  12.591   0.505
73330SOL    HW121887   9.137  12.541   0.522
73330SOL    HW221888   8.995  12.561   0.572
73331SOL     OW21889  10.747  10.073   1.533
73331SOL    HW121890  10.745   9.977   1.530
73331SOL    HW221891  10.668  10.097   1.581
73332SOL     OW21892  12.987  11.093  10.811
73332SOL    HW121893  12.986  10.999  10.828
73332SOL    HW221894  12.950  11.102  10.723
73333SOL     OW21895   2.419   0.193   4.343
73333SOL    HW121896   2.495   0.230   4.389
73333SOL    HW221897   2.457   0.140   4.273
73334SOL     OW21898  13.288  10.228   4.112
73334SOL    HW121899  13.291  10.315   4.072
73334SOL    HW221900  13.223  10.236   4.182
73335SOL     OW21901   9.887   4.518   8.400
73335SOL    HW121902   9.860   4.552   8.485
73335SOL    HW221903   9.918   4.429   8.418
73336SOL     OW21904   4.194  11.473  11.269
73336SOL    HW121905   4.286  11.473  11.240
73336SOL    HW221906   4.144  11.484  11.188
73337SOL     OW21907   5.334   3.380  10.997
73337SOL    HW121908   5.264   3.421  11.048
73337SOL    HW221909   5.324   3.417  10.909
73338SOL     OW21910   8.336  10.609  12.687
73338SOL    HW121911   8.363  10.635  12.599
73338SOL    HW221912   8.390  10.662  12.746
73339SOL     OW21913  11.314   5.312  12.175
73339SOL    HW121914  11.399   5.356  12.177
73339SOL    HW221915  11.260   5.361  12.237
73340SOL     OW21916   5.878  10.241  11.634
73340SOL    HW121917   5.960  10.289  11.647
73340SOL    HW221918   5.890  10.197  11.550
73341SOL     OW21919  10.911   7.548   0.004
73341SOL    HW121920  10.879   7.458   0.006
73341SOL    HW221921  10.852   7.594  14.815
73342SOL     OW21922   1.017  10.701  12.318
73342SOL    HW121923   1.017  10.783  12.367
73342SOL    HW221924   0.925  10.685  12.297
73343SOL     OW21925  11.197   9.319   8.399
73343SOL    HW121926  11.157   9.361   8.323
73343SOL    HW221927  11.128   9.318   8.465
73344SOL     OW21928  14.761  13.977   9.089
73344SOL    HW121929  14.702  13.966   9.163
73344SOL    HW221930  14.849  13.968   9.125
73345SOL     OW21931  10.036   0.833   3.831
73345SOL    HW121932  10.127   0.840   3.860
73345SOL    HW221933  10.040   0.848   3.736
73346SOL     OW21934   6.566  13.346  11.305
73346SOL    HW121935   6.499  13.293  11.261
73346SOL    HW221936   6.648  13.302  11.283
73347SOL     OW21937   1.475   7.543   7.762
73347SOL    HW121938   1.394   7.494   7.776
73347SOL    HW221939   1.543   7.491   7.803
73348SOL     OW21940   2.989  10.062   6.212
73348SOL    HW121941   2.938  10.109   6.146
73348SOL    HW221942   2.965  10.102   6.295
73349SOL     OW21943   6.621   8.016   9.439
73349SOL    HW121944   6.604   7.940   9.383
73349SOL    HW221945   6.534   8.046   9.465
73350SOL     OW21946   3.683   8.965   0.128
73350SOL    HW121947   3.693   8.992   0.036
73350SOL    HW221948   3.744   9.021   0.175
73351SOL     OW21949   7.911  12.089  13.054
73351SOL    HW121950   7.977  12.116  12.990
73351SOL    HW221951   7.958  12.033  13.115
73352SOL     OW21952  13.568   3.359   9.776
73352SOL    HW121953  13.604   3.307   9.704
73352SOL    HW221954  13.578   3.304   9.853
73353SOL     OW21955   9.884   5.898  11.576
73353SOL    HW121956   9.888   5.802  11.584
73353SOL    HW221957   9.857   5.913  11.485
73354SOL     OW21958  11.397  14.680  14.605
73354SOL    HW121959  11.456  14.606  14.591
73354SOL    HW221960  11.346  14.685  14.524
73355SOL     OW21961   4.738  14.090   3.512
73355SOL    HW121962   4.732  14.025   3.582
73355SOL    HW221963   4.668  14.152   3.532
73356SOL     OW21964   7.349   7.646   7.862
73356SOL    HW121965   7.353   7.587   7.937
73356SOL    HW221966   7.416   7.712   7.880
73357SOL     OW21967   3.333  11.523   4.868
73357SOL    HW121968   3.237  11.521   4.872
73357SOL    HW221969   3.358  11.431   4.861
73358SOL     OW21970   4.112   9.573  13.677
73358SOL    HW121971   4.035   9.627  13.696
73358SOL    HW221972   4.081   9.509  13.613
73359SOL     OW21973   9.386   3.750   6.425
73359SOL    HW121974   9.303   3.776   6.384
73359SOL    HW221975   9.439   3.716   6.353
73360SOL     OW21976   2.733  13.727   7.746
73360SOL    HW121977   2.750  13.633   7.744
73360SOL    HW221978   2.649  13.735   7.792
73361SOL     OW21979  12.573  12.647   1.121
73361SOL    HW121980  12.620  12.633   1.039
73361SOL    HW221981  12.483  12.666   1.094
73362SOL     OW21982  10.449   0.187  10.138
73362SOL    HW121983  10.452   0.246  10.213
73362SOL    HW221984  10.508   0.227  10.073
73363SOL     OW21985  12.059   2.252   0.659
73363SOL    HW121986  11.986   2.288   0.608
73363SOL    HW221987  12.083   2.322   0.719
73364SOL     OW21988   5.927   4.102   0.950
73364SOL    HW121989   6.010   4.114   0.904
73364SOL    HW221990   5.879   4.039   0.897
73365SOL     OW21991   7.563   4.030  10.184
73365SOL    HW121992   7.472   4.003  10.200
73365SOL    HW221993   7.560   4.071  10.097
73366SOL     OW21994  13.632   9.446  10.052
73366SOL    HW121995  13.715   9.400  10.067
73366SOL    HW221996  13.659   9.531  10.015
73367SOL     OW21997   0.368  12.311   0.703
73367SOL    HW121998   0.372  12.383   0.767
73367SOL    HW221999   0.279  12.277   0.712
73368SOL     OW22000   4.821  11.956  11.553
73368SOL    HW122001   4.820  11.935  11.646
73368SOL    HW222002   4.837  12.050  11.549
73369SOL     OW22003  14.128  10.960   0.583
73369SOL    HW122004  14.194  10.969   0.514
73369SOL    HW222005  14.112  10.866   0.588
73370SOL     OW22006   5.044   5.481   9.346
73370SOL    HW122007   5.121   5.527   9.381
73370SOL    HW222008   5.035   5.403   9.401
73371SOL     OW22009   2.587   5.652   9.122
73371SOL    HW122010   2.544   5.734   9.145
73371SOL    HW222011   2.550   5.627   9.038
73372SOL     OW22012   0.478   9.152  11.853
73372SOL    HW122013   0.391   9.124  11.881
73372SOL    HW222014   0.471   9.162  11.758
73373SOL     OW22015   9.922   4.857   6.836
73373SOL    HW122016   9.988   4.818   6.892
73373SOL    HW222017   9.947   4.949   6.829
73374SOL     OW22018   7.736   3.808   3.796
73374SOL    HW122019   7.715   3.870   3.726
73374SOL    HW222020   7.651   3.776   3.826
73375SOL     OW22021  12.348  12.209   5.955
73375SOL    HW122022  12.358  12.300   5.982
73375SOL    HW222023  12.433  12.185   5.919
73376SOL     OW22024   8.103   1.710   8.973
73376SOL    HW122025   8.121   1.676   9.061
73376SOL    HW222026   8.017   1.750   8.981
73377SOL     OW22027   4.014   1.309   2.278
73377SOL    HW122028   3.967   1.299   2.195
73377SOL    HW222029   4.028   1.219   2.308
73378SOL     OW22030  11.395   0.142   0.091
73378SOL    HW122031  11.327   0.194   0.047
73378SOL    HW222032  11.467   0.140   0.029
73379SOL     OW22033  14.301  12.034  11.869
73379SOL    HW122034  14.264  12.120  11.891
73379SOL    HW222035  14.254  12.008  11.789
73380SOL     OW22036   6.611   0.605   3.144
73380SOL    HW122037   6.598   0.612   3.238
73380SOL    HW222038   6.631   0.694   3.115
73381SOL     OW22039   6.995   6.985  10.755
73381SOL    HW122040   7.085   6.971  10.784
73381SOL    HW222041   6.942   6.974  10.834
73382SOL     OW22042   8.042   4.016   9.335
73382SOL    HW122043   8.096   3.996   9.259
73382SOL    HW222044   8.048   4.111   9.344
73383SOL     OW22045   3.787  13.733   7.492
73383SOL    HW122046   3.829  13.648   7.489
73383SOL    HW222047   3.718  13.724   7.558
73384SOL     OW22048   9.578   4.303   4.924
73384SOL    HW122049   9.503   4.360   4.907
73384SOL    HW222050   9.634   4.314   4.847
73385SOL     OW22051   9.611   7.338  12.687
73385SOL    HW122052   9.555   7.322  12.612
73385SOL    HW222053   9.698   7.311  12.658
73386SOL     OW22054   4.021  13.045   3.784
73386SOL    HW122055   4.114  13.022   3.787
73386SOL    HW222056   4.005  13.065   3.692
73387SOL     OW22057   0.361  13.081  12.870
73387SOL    HW122058   0.395  13.019  12.806
73387SOL    HW222059   0.317  13.026  12.935
73388SOL     OW22060  10.613   4.402  14.577
73388SOL    HW122061  10.521   4.405  14.606
73388SOL    HW222062  10.664   4.403  14.658
73389SOL     OW22063   5.677   6.325   6.962
73389SOL    HW122064   5.737   6.368   7.023
73389SOL    HW222065   5.705   6.234   6.962
73390SOL     OW22066   6.090   7.360   1.923
73390SOL    HW122067   6.017   7.354   1.984
73390SOL    HW222068   6.059   7.315   1.844
73391SOL     OW22069  10.385  12.826   1.588
73391SOL    HW122070  10.336  12.831   1.506
73391SOL    HW222071  10.426  12.740   1.587
73392SOL     OW22072   8.940   0.928  14.252
73392SOL    HW122073   8.862   0.943  14.306
73392SOL    HW222074   8.945   1.005  14.196
73393SOL     OW22075   2.450  11.900   4.946
73393SOL    HW122076   2.407  11.940   4.870
73393SOL    HW222077   2.422  11.953   5.020
73394SOL     OW22078   8.303   4.274   2.641
73394SOL    HW122079   8.267   4.287   2.729
73394SOL    HW222080   8.286   4.181   2.622
73395SOL     OW22081   2.730   6.798   9.011
73395SOL    HW122082   2.785   6.817   9.087
73395SOL    HW222083   2.682   6.879   8.995
73396SOL     OW22084   3.614   4.560   3.967
73396SOL    HW122085   3.637   4.511   4.046
73396SOL    HW222086   3.684   4.538   3.905
73397SOL     OW22087  14.489   5.248   7.802
73397SOL    HW122088  14.436   5.309   7.751
73397SOL    HW222089  14.468   5.161   7.766
73398SOL     OW22090   8.611   7.432  13.724
73398SOL    HW122091   8.674   7.409  13.656
73398SOL    HW222092   8.626   7.367  13.793
73399SOL     OW22093   8.428   7.660   3.739
73399SOL    HW122094   8.364   7.598   3.773
73399SOL    HW222095   8.404   7.671   3.647
73400SOL     OW22096   2.424   7.320   9.024
73400SOL    HW122097   2.520   7.316   9.025
73400SOL    HW222098   2.397   7.281   9.107
73401SOL     OW22099   9.858   7.860   9.894
73401SOL    HW122100   9.924   7.804   9.852
73401SOL    HW222101   9.831   7.920   9.825
73402SOL     OW22102   8.508   0.122   3.573
73402SOL    HW122103   8.419   0.157   3.564
73402SOL    HW222104   8.554   0.154   3.495
73403SOL     OW22105   2.673  12.704   8.907
73403SOL    HW122106   2.580  12.694   8.889
73403SOL    HW222107   2.693  12.635   8.971
73404SOL     OW22108   3.072  12.786   2.615
73404SOL    HW122109   3.094  12.754   2.702
73404SOL    HW222110   3.142  12.848   2.594
73405SOL     OW22111   5.603   2.009   9.205
73405SOL    HW122112   5.667   1.939   9.194
73405SOL    HW222113   5.643   2.068   9.269
73406SOL     OW22114   3.460   5.602  12.931
73406SOL    HW122115   3.455   5.678  12.988
73406SOL    HW222116   3.369   5.576  12.918
73407SOL     OW22117  13.544  14.040   8.589
73407SOL    HW122118  13.498  13.985   8.525
73407SOL    HW222119  13.560  14.122   8.543
73408SOL     OW22120   9.421  11.677   2.484
73408SOL    HW122121   9.384  11.590   2.495
73408SOL    HW222122   9.351  11.736   2.511
73409SOL     OW22123   7.899   3.415   9.294
73409SOL    HW122124   7.866   3.407   9.384
73409SOL    HW222125   7.865   3.499   9.263
73410SOL     OW22126   7.213  12.228   3.316
73410SOL    HW122127   7.296  12.218   3.363
73410SOL    HW222128   7.154  12.166   3.358
73411SOL     OW22129   1.973   9.007   4.214
73411SOL    HW122130   1.933   9.060   4.145
73411SOL    HW222131   2.039   9.065   4.253
73412SOL     OW22132   1.923  10.363   2.374
73412SOL    HW122133   1.837  10.322   2.368
73412SOL    HW222134   1.927  10.399   2.462
73413SOL     OW22135   8.014   2.785   6.931
73413SOL    HW122136   8.006   2.778   7.026
73413SOL    HW222137   7.926   2.810   6.901
73414SOL     OW22138   4.272   8.723   0.106
73414SOL    HW122139   4.217   8.734   0.029
73414SOL    HW222140   4.245   8.793   0.165
73415SOL     OW22141   2.432  13.278   8.331
73415SOL    HW122142   2.414  13.372   8.324
73415SOL    HW222143   2.404  13.242   8.247
73416SOL     OW22144  11.038   3.281   7.572
73416SOL    HW122145  10.982   3.252   7.644
73416SOL    HW222146  11.056   3.201   7.522
73417SOL     OW22147   3.220  13.853  12.904
73417SOL    HW122148   3.170  13.934  12.891
73417SOL    HW222149   3.302  13.882  12.945
73418SOL     OW22150  12.696  12.597   6.019
73418SOL    HW122151  12.732  12.659   6.083
73418SOL    HW222152  12.628  12.647   5.974
73419SOL     OW22153   4.162   6.939   9.872
73419SOL    HW122154   4.084   6.903   9.828
73419SOL    HW222155   4.202   6.864   9.916
73420SOL     OW22156   5.383   9.433   1.523
73420SOL    HW122157   5.294   9.418   1.556
73420SOL    HW222158   5.418   9.501   1.580
73421SOL     OW22159  12.300   3.538   7.758
73421SOL    HW122160  12.293   3.592   7.679
73421SOL    HW222161  12.393   3.533   7.776
73422SOL     OW22162   3.584   7.509  12.322
73422SOL    HW122163   3.579   7.579  12.257
73422SOL    HW222164   3.674   7.478  12.318
73423SOL     OW22165  11.561   0.167   4.128
73423SOL    HW122166  11.586   0.080   4.097
73423SOL    HW222167  11.620   0.226   4.082
73424SOL     OW22168  12.044   4.685   6.530
73424SOL    HW122169  12.134   4.665   6.555
73424SOL    HW222170  12.050   4.767   6.481
73425SOL     OW22171  14.443   4.449   3.027
73425SOL    HW122172  14.498   4.520   2.992
73425SOL    HW222173  14.475   4.370   2.984
73426SOL     OW22174  11.049   4.290   0.412
73426SOL    HW122175  10.957   4.283   0.438
73426SOL    HW222176  11.095   4.232   0.474
73427SOL     OW22177  11.231   0.153   9.461
73427SOL    HW122178  11.246   0.058   9.461
73427SOL    HW222179  11.318   0.192   9.452
73428SOL     OW22180   7.264  13.659   4.145
73428SOL    HW122181   7.300  13.570   4.143
73428SOL    HW222182   7.292  13.695   4.229
73429SOL     OW22183   6.742   7.299   5.798
73429SOL    HW122184   6.665   7.279   5.850
73429SOL    HW222185   6.816   7.280   5.856
73430SOL     OW22186   3.251  10.356   6.297
73430SOL    HW122187   3.179  10.357   6.360
73430SOL    HW222188   3.256  10.446   6.265
73431SOL     OW22189   0.237   0.941   8.739
73431SOL    HW122190   0.222   0.847   8.732
73431SOL    HW222191   0.274   0.953   8.827
73432SOL     OW22192   8.024  10.626  14.545
73432SOL    HW122193   8.119  10.632  14.542
73432SOL    HW222194   7.993  10.709  14.510
73433SOL     OW22195   3.066   0.851  10.387
73433SOL    HW122196   2.992   0.812  10.340
73433SOL    HW222197   3.092   0.785  10.451
73434SOL     OW22198  12.714   7.296   7.455
73434SOL    HW122199  12.656   7.241   7.403
73434SOL    HW222200  12.678   7.385   7.445
73435SOL     OW22201   7.017   7.981  14.738
73435SOL    HW122202   7.012   8.051  14.673
73435SOL    HW222203   6.945   7.922  14.716
73436SOL     OW22204   7.274   1.794  12.737
73436SOL    HW122205   7.239   1.731  12.800
73436SOL    HW222206   7.216   1.787  12.661
73437SOL     OW22207  12.493   9.158   0.365
73437SOL    HW122208  12.543   9.080   0.388
73437SOL    HW222209  12.536   9.229   0.411
73438SOL     OW22210   1.307  11.023  13.162
73438SOL    HW122211   1.272  11.112  13.172
73438SOL    HW222212   1.320  10.993  13.252
73439SOL     OW22213  11.118  12.848   0.054
73439SOL    HW122214  11.146  12.880   0.140
73439SOL    HW222215  11.193  12.799   0.021
73440SOL     OW22216   0.488   3.813  12.253
73440SOL    HW122217   0.542   3.865  12.193
73440SOL    HW222218   0.490   3.725  12.216
73441SOL     OW22219  10.433   7.462  11.469
73441SOL    HW122220  10.527   7.479  11.464
73441SOL    HW222221  10.426   7.367  11.468
73442SOL     OW22222   6.602  10.510  10.506
73442SOL    HW122223   6.603  10.417  10.483
73442SOL    HW222224   6.535  10.548  10.450
73443SOL     OW22225  10.662   7.344   5.207
73443SOL    HW122226  10.613   7.290   5.270
73443SOL    HW222227  10.741   7.371   5.255
73444SOL     OW22228   2.012  14.106   1.032
73444SOL    HW122229   1.937  14.077   1.085
73444SOL    HW222230   2.088  14.065   1.074
73445SOL     OW22231   7.670  14.311   3.244
73445SOL    HW122232   7.761  14.330   3.220
73445SOL    HW222233   7.659  14.351   3.330
73446SOL     OW22234   7.078  12.040   6.245
73446SOL    HW122235   7.032  12.050   6.162
73446SOL    HW222236   7.030  12.096   6.306
73447SOL     OW22237   0.232  13.839   8.040
73447SOL    HW122238   0.147  13.852   8.082
73447SOL    HW222239   0.211  13.807   7.952
73448SOL     OW22240   8.386   9.119   9.142
73448SOL    HW122241   8.396   9.166   9.225
73448SOL    HW222242   8.355   9.032   9.167
73449SOL     OW22243   7.310   6.646   2.626
73449SOL    HW122244   7.356   6.710   2.682
73449SOL    HW222245   7.233   6.693   2.594
73450SOL     OW22246  12.697   2.455  12.354
73450SOL    HW122247  12.773   2.420  12.401
73450SOL    HW222248  12.697   2.407  12.271
73451SOL     OW22249  12.950   6.906   6.494
73451SOL    HW122250  13.003   6.887   6.571
73451SOL    HW222251  12.946   6.823   6.446
73452SOL     OW22252   8.354   9.877   4.826
73452SOL    HW122253   8.331   9.876   4.919
73452SOL    HW222254   8.396   9.962   4.813
73453SOL     OW22255  10.051   9.531   9.181
73453SOL    HW122256  10.142   9.541   9.208
73453SOL    HW222257  10.042   9.590   9.106
73454SOL     OW22258   6.787   4.888   9.535
73454SOL    HW122259   6.757   4.871   9.624
73454SOL    HW222260   6.879   4.861   9.535
73455SOL     OW22261   6.036  13.235   3.749
73455SOL    HW122262   6.130  13.253   3.746
73455SOL    HW222263   6.026  13.174   3.822
73456SOL     OW22264   0.653   8.520  10.253
73456SOL    HW122265   0.733   8.502  10.203
73456SOL    HW222266   0.621   8.602  10.217
73457SOL     OW22267   9.476   6.981  12.524
73457SOL    HW122268   9.420   7.036  12.578
73457SOL    HW222269   9.441   6.991  12.435
73458SOL     OW22270   8.639   1.238   3.097
73458SOL    HW122271   8.720   1.275   3.062
73458SOL    HW222272   8.653   1.234   3.191
73459SOL     OW22273  12.173   6.779   3.721
73459SOL    HW122274  12.227   6.777   3.641
73459SOL    HW222275  12.139   6.868   3.725
73460SOL     OW22276  14.068   1.235  11.188
73460SOL    HW122277  14.120   1.248  11.267
73460SOL    HW222278  14.120   1.177  11.133
73461SOL     OW22279   8.995   9.464  12.213
73461SOL    HW122280   8.911   9.455  12.259
73461SOL    HW222281   9.057   9.488  12.282
73462SOL     OW22282   4.730  11.482  12.983
73462SOL    HW122283   4.640  11.514  12.978
73462SOL    HW222284   4.722  11.392  13.015
73463SOL     OW22285   6.248   8.290   7.533
73463SOL    HW122286   6.163   8.321   7.501
73463SOL    HW222287   6.253   8.322   7.623
73464SOL     OW22288   9.093   0.629   3.156
73464SOL    HW122289   9.168   0.573   3.175
73464SOL    HW222290   9.028   0.606   3.223
73465SOL     OW22291  13.936   8.284   6.070
73465SOL    HW122292  13.969   8.269   6.158
73465SOL    HW222293  13.842   8.265   6.076
73466SOL     OW22294   4.929   5.496   2.807
73466SOL    HW122295   4.971   5.547   2.875
73466SOL    HW222296   4.961   5.534   2.725
73467SOL     OW22297   3.524   9.532  12.718
73467SOL    HW122298   3.536   9.533  12.623
73467SOL    HW222299   3.534   9.623  12.745
73468SOL     OW22300   9.985   6.145   6.662
73468SOL    HW122301  10.053   6.130   6.728
73468SOL    HW222302   9.947   6.230   6.686
73469SOL     OW22303   8.637   8.850  14.806
73469SOL    HW122304   8.601   8.904  14.736
73469SOL    HW222305   8.727   8.879  14.814
73470SOL     OW22306   1.173   3.201   7.433
73470SOL    HW122307   1.121   3.199   7.513
73470SOL    HW222308   1.191   3.109   7.414
73471SOL     OW22309   7.757  10.298   4.552
73471SOL    HW122310   7.707  10.352   4.491
73471SOL    HW222311   7.798  10.231   4.497
73472SOL     OW22312   0.088   5.445  12.407
73472SOL    HW122313   0.055   5.469  12.494
73472SOL    HW222314   0.017   5.470  12.347
73473SOL     OW22315   3.321   2.107   3.386
73473SOL    HW122316   3.336   2.039   3.451
73473SOL    HW222317   3.244   2.079   3.338
73474SOL     OW22318   3.815   4.329  12.993
73474SOL    HW122319   3.886   4.276  13.029
73474SOL    HW222320   3.822   4.413  13.039
73475SOL     OW22321  10.493  10.150   2.889
73475SOL    HW122322  10.554  10.223   2.883
73475SOL    HW222323  10.489  10.114   2.800
73476SOL     OW22324   8.863   3.624  12.270
73476SOL    HW122325   8.840   3.663  12.186
73476SOL    HW222326   8.832   3.687  12.335
73477SOL     OW22327   0.262  14.770   5.821
73477SOL    HW122328   0.182  14.809   5.785
73477SOL    HW222329   0.319  14.756   5.745
73478SOL     OW22330   9.447   8.519  12.689
73478SOL    HW122331   9.398   8.549  12.766
73478SOL    HW222332   9.463   8.426  12.705
73479SOL     OW22333   0.692   8.096   6.885
73479SOL    HW122334   0.717   8.115   6.976
73479SOL    HW222335   0.769   8.119   6.833
73480SOL     OW22336   7.050   3.874   9.126
73480SOL    HW122337   7.080   3.903   9.040
73480SOL    HW222338   7.068   3.948   9.184
73481SOL     OW22339   0.506   3.096   4.136
73481SOL    HW122340   0.417   3.126   4.120
73481SOL    HW222341   0.498   3.030   4.204
73482SOL     OW22342   3.855   9.978   2.346
73482SOL    HW122343   3.820   9.905   2.397
73482SOL    HW222344   3.903  10.032   2.409
73483SOL     OW22345  14.477   4.682   2.829
73483SOL    HW122346  14.498   4.741   2.901
73483SOL    HW222347  14.382   4.679   2.826
73484SOL     OW22348   6.410   0.289  10.568
73484SOL    HW122349   6.358   0.237  10.507
73484SOL    HW222350   6.500   0.260  10.553
73485SOL     OW22351   0.653   8.017  13.939
73485SOL    HW122352   0.573   8.070  13.946
73485SOL    HW222353   0.631   7.947  13.878
73486SOL     OW22354  10.146  13.272   4.665
73486SOL    HW122355  10.091  13.348   4.685
73486SOL    HW222356  10.102  13.229   4.592
73487SOL     OW22357   4.178   3.809  13.963
73487SOL    HW122358   4.143   3.777  14.046
73487SOL    HW222359   4.193   3.730  13.911
73488SOL     OW22360  11.790  10.265   6.960
73488SOL    HW122361  11.771  10.240   6.870
73488SOL    HW222362  11.715  10.319   6.986
73489SOL     OW22363  11.266   8.118   7.389
73489SOL    HW122364  11.303   8.189   7.440
73489SOL    HW222365  11.341   8.068   7.358
73490SOL     OW22366   4.041   1.496   4.353
73490SOL    HW122367   4.119   1.487   4.298
73490SOL    HW222368   4.011   1.585   4.338
73491SOL     OW22369  11.238  11.551   2.046
73491SOL    HW122370  11.233  11.486   2.115
73491SOL    HW222371  11.194  11.628   2.082
73492SOL     OW22372   4.397  10.256   0.519
73492SOL    HW122373   4.322  10.253   0.459
73492SOL    HW222374   4.451  10.329   0.487
73493SOL     OW22375   0.979   7.042   5.323
73493SOL    HW122376   1.032   7.050   5.402
73493SOL    HW222377   0.892   7.071   5.349
73494SOL     OW22378   5.355   5.623  11.862
73494SOL    HW122379   5.449   5.608  11.849
73494SOL    HW222380   5.324   5.543  11.904
73495SOL     OW22381   1.486  14.074   5.202
73495SOL    HW122382   1.414  14.135   5.184
73495SOL    HW222383   1.525  14.056   5.116
73496SOL     OW22384  11.203   8.204   2.424
73496SOL    HW122385  11.186   8.298   2.426
73496SOL    HW222386  11.117   8.163   2.430
73497SOL     OW22387   0.420  13.206   7.637
73497SOL    HW122388   0.497  13.260   7.659
73497SOL    HW222389   0.371  13.199   7.718
73498SOL     OW22390  13.929   1.942  11.888
73498SOL    HW122391  13.867   1.998  11.935
73498SOL    HW222392  13.882   1.861  11.872
73499SOL     OW22393   8.532   2.383   6.614
73499SOL    HW122394   8.556   2.297   6.648
73499SOL    HW222395   8.509   2.367   6.523
73500SOL     OW22396   2.919   8.726   0.665
73500SOL    HW122397   2.923   8.720   0.760
73500SOL    HW222398   3.011   8.733   0.637
73501SOL     OW22399   8.943   6.728   0.141
73501SOL    HW122400   8.977   6.750   0.228
73501SOL    HW222401   8.867   6.672   0.158
73502SOL     OW22402   6.833  14.661  13.243
73502SOL    HW122403   6.882  14.619  13.314
73502SOL    HW222404   6.793  14.588  13.196
73503SOL     OW22405   7.445  12.022   8.539
73503SOL    HW122406   7.489  12.091   8.490
73503SOL    HW222407   7.500  12.007   8.616
73504SOL     OW22408  13.115  10.852  14.282
73504SOL    HW122409  13.109  10.945  14.304
73504SOL    HW222410  13.202  10.843  14.242
73505SOL     OW22411   4.806   4.911   2.019
73505SOL    HW122412   4.893   4.951   2.027
73505SOL    HW222413   4.797   4.892   1.926
73506SOL     OW22414   2.241  14.421   1.861
73506SOL    HW122415   2.327  14.460   1.870
73506SOL    HW222416   2.258  14.327   1.856
73507SOL     OW22417   6.247   7.899  14.563
73507SOL    HW122418   6.186   7.969  14.542
73507SOL    HW222419   6.231   7.833  14.496
73508SOL     OW22420  12.391   5.729  11.068
73508SOL    HW122421  12.309   5.767  11.039
73508SOL    HW222422  12.455   5.799  11.059
73509SOL     OW22423  12.333   2.133   9.116
73509SOL    HW122424  12.389   2.133   9.194
73509SOL    HW222425  12.391   2.109   9.044
73510SOL     OW22426   2.498   6.224   9.771
73510SOL    HW122427   2.579   6.214   9.821
73510SOL    HW222428   2.444   6.149   9.796
73511SOL     OW22429   3.757  12.630   1.199
73511SOL    HW122430   3.750  12.547   1.152
73511SOL    HW222431   3.692  12.625   1.269
73512SOL     OW22432  12.059  14.561   5.371
73512SOL    HW122433  12.084  14.469   5.360
73512SOL    HW222434  12.053  14.573   5.466
73513SOL     OW22435  11.970  11.276   8.737
73513SOL    HW122436  11.963  11.192   8.782
73513SOL    HW222437  11.883  11.315   8.747
73514SOL     OW22438   1.628  12.743   6.182
73514SOL    HW122439   1.716  12.708   6.191
73514SOL    HW222440   1.640  12.838   6.179
73515SOL     OW22441   9.382   5.682  13.645
73515SOL    HW122442   9.333   5.607  13.678
73515SOL    HW222443   9.468   5.647  13.621
73516SOL     OW22444   9.893  12.920   2.061
73516SOL    HW122445   9.824  12.854   2.061
73516SOL    HW222446   9.910  12.937   1.969
73517SOL     OW22447   2.841  10.407   7.982
73517SOL    HW122448   2.754  10.446   7.977
73517SOL    HW222449   2.830  10.318   7.949
73518SOL     OW22450   1.500   4.604  12.297
73518SOL    HW122451   1.593   4.628  12.295
73518SOL    HW222452   1.498   4.517  12.258
73519SOL     OW22453   1.762   2.019   7.038
73519SOL    HW122454   1.809   2.091   6.995
73519SOL    HW222455   1.826   1.948   7.042
73520SOL     OW22456  10.006  10.700  13.090
73520SOL    HW122457   9.951  10.630  13.053
73520SOL    HW222458   9.967  10.718  13.176
73521SOL     OW22459   7.952  10.637  13.721
73521SOL    HW122460   7.981  10.693  13.793
73521SOL    HW222461   8.025  10.639  13.659
73522SOL     OW22462   2.284  12.913   5.994
73522SOL    HW122463   2.233  12.993   6.004
73522SOL    HW222464   2.306  12.887   6.083
73523SOL     OW22465  12.500   6.046  13.798
73523SOL    HW122466  12.445   5.990  13.743
73523SOL    HW222467  12.440   6.114  13.830
73524SOL     OW22468   9.675   4.834   6.373
73524SOL    HW122469   9.717   4.895   6.434
73524SOL    HW222470   9.657   4.886   6.295
73525SOL     OW22471   5.495   2.240   7.409
73525SOL    HW122472   5.485   2.327   7.446
73525SOL    HW222473   5.589   2.231   7.393
73526SOL     OW22474   3.178   8.904   6.775
73526SOL    HW122475   3.101   8.849   6.791
73526SOL    HW222476   3.212   8.874   6.691
73527SOL     OW22477   7.314   0.715   6.230
73527SOL    HW122478   7.268   0.754   6.156
73527SOL    HW222479   7.340   0.789   6.285
73528SOL     OW22480   7.174  11.507   5.898
73528SOL    HW122481   7.227  11.483   5.823
73528SOL    HW222482   7.216  11.586   5.933
73529SOL     OW22483   4.144   0.630   0.898
73529SOL    HW122484   4.205   0.668   0.962
73529SOL    HW222485   4.166   0.674   0.816
73530SOL     OW22486   3.288   9.739  10.890
73530SOL    HW122487   3.314   9.685  10.965
73530SOL    HW222488   3.201   9.706  10.866
73531SOL     OW22489   5.795  13.995   8.041
73531SOL    HW122490   5.821  14.017   8.130
73531SOL    HW222491   5.757  14.076   8.007
73532SOL     OW22492   6.622   9.877  13.449
73532SOL    HW122493   6.529   9.874  13.473
73532SOL    HW222494   6.662   9.805  13.499
73533SOL     OW22495   4.584  12.266  10.088
73533SOL    HW122496   4.601  12.273  10.182
73533SOL    HW222497   4.667  12.291  10.047
73534SOL     OW22498   2.963   3.039   8.301
73534SOL    HW122499   3.037   3.001   8.254
73534SOL    HW222500   2.962   3.131   8.274
73535SOL     OW22501   6.564   8.793  14.685
73535SOL    HW122502   6.535   8.844  14.761
73535SOL    HW222503   6.650   8.828  14.663
73536SOL     OW22504   4.969   6.903   1.912
73536SOL    HW122505   4.932   6.982   1.873
73536SOL    HW222506   4.937   6.904   2.002
73537SOL     OW22507   0.521   2.398   9.370
73537SOL    HW122508   0.577   2.403   9.448
73537SOL    HW222509   0.524   2.487   9.333
73538SOL     OW22510   5.361   2.449  13.966
73538SOL    HW122511   5.313   2.519  14.011
73538SOL    HW222512   5.334   2.369  14.011
73539SOL     OW22513   3.463   9.048   6.020
73539SOL    HW122514   3.530   9.026   5.956
73539SOL    HW222515   3.470   9.143   6.030
73540SOL     OW22516  11.034   4.024   1.949
73540SOL    HW122517  11.050   3.975   2.029
73540SOL    HW222518  11.115   4.072   1.933
73541SOL     OW22519   7.155   4.494   2.150
73541SOL    HW122520   7.188   4.547   2.078
73541SOL    HW222521   7.081   4.446   2.113
73542SOL     OW22522   8.955  10.895   9.308
73542SOL    HW122523   9.018  10.830   9.337
73542SOL    HW222524   8.872  10.848   9.301
73543SOL     OW22525   0.600   0.816   2.557
73543SOL    HW122526   0.666   0.885   2.566
73543SOL    HW222527   0.546   0.844   2.483
73544SOL     OW22528   9.552   5.306   5.571
73544SOL    HW122529   9.459   5.288   5.553
73544SOL    HW222530   9.588   5.333   5.487
73545SOL     OW22531  10.907  10.874   5.101
73545SOL    HW122532  10.948  10.890   5.016
73545SOL    HW222533  10.938  10.787   5.126
73546SOL     OW22534   3.424   1.274   3.490
73546SOL    HW122535   3.354   1.255   3.427
73546SOL    HW222536   3.470   1.348   3.452
73547SOL     OW22537   5.023  12.039   6.546
73547SOL    HW122538   4.979  12.032   6.462
73547SOL    HW222539   5.106  11.994   6.534
73548SOL     OW22540   2.191   4.875   5.223
73548SOL    HW122541   2.198   4.818   5.147
73548SOL    HW222542   2.236   4.828   5.293
73549SOL     OW22543  12.560   6.298   0.409
73549SOL    HW122544  12.608   6.228   0.453
73549SOL    HW222545  12.519   6.255   0.333
73550SOL     OW22546   1.320   4.852   3.977
73550SOL    HW122547   1.354   4.770   4.012
73550SOL    HW222548   1.387   4.882   3.915
73551SOL     OW22549  14.813  12.257   3.171
73551SOL    HW122550  14.834  12.174   3.214
73551SOL    HW222551   0.024  12.280   3.124
73552SOL     OW22552   1.149  10.582   9.187
73552SOL    HW122553   1.065  10.578   9.141
73552SOL    HW222554   1.213  10.602   9.119
73553SOL     OW22555   5.917  10.234  13.257
73553SOL    HW122556   5.974  10.251  13.332
73553SOL    HW222557   5.829  10.247  13.291
73554SOL     OW22558   8.520   4.889   8.455
73554SOL    HW122559   8.485   4.853   8.536
73554SOL    HW222560   8.576   4.820   8.420
73555SOL     OW22561   8.186   9.881   2.176
73555SOL    HW122562   8.197   9.975   2.167
73555SOL    HW222563   8.095   9.869   2.204
73556SOL     OW22564   5.910  13.502   0.422
73556SOL    HW122565   5.872  13.586   0.449
73556SOL    HW222566   5.842  13.462   0.366
73557SOL     OW22567   0.164   2.573  13.733
73557SOL    HW122568   0.190   2.555  13.642
73557SOL    HW222569   0.206   2.656  13.754
73558SOL     OW22570  12.725   2.117   9.604
73558SOL    HW122571  12.776   2.038   9.588
73558SOL    HW222572  12.772   2.186   9.557
73559SOL     OW22573   4.449  11.944   6.499
73559SOL    HW122574   4.468  11.972   6.409
73559SOL    HW222575   4.356  11.920   6.497
73560SOL     OW22576  12.323   7.814   0.665
73560SOL    HW122577  12.336   7.776   0.752
73560SOL    HW222578  12.333   7.908   0.678
73561SOL     OW22579   7.571  11.931   0.335
73561SOL    HW122580   7.480  11.958   0.347
73561SOL    HW222581   7.621  11.993   0.388
73562SOL     OW22582   6.544   6.809  10.383
73562SOL    HW122583   6.631   6.803  10.343
73562SOL    HW222584   6.562   6.827  10.475
73563SOL     OW22585   6.098  14.147   6.876
73563SOL    HW122586   6.037  14.174   6.945
73563SOL    HW222587   6.042  14.121   6.803
73564SOL     OW22588   0.984   9.588   9.669
73564SOL    HW122589   1.064   9.640   9.657
73564SOL    HW222590   0.925   9.647   9.716
73565SOL     OW22591   4.691   9.718   4.542
73565SOL    HW122592   4.709   9.768   4.462
73565SOL    HW222593   4.647   9.780   4.600
73566SOL     OW22594   9.895  13.853   8.633
73566SOL    HW122595   9.978  13.897   8.651
73566SOL    HW222596   9.830  13.924   8.629
73567SOL     OW22597  10.714  13.728  13.810
73567SOL    HW122598  10.788  13.669  13.826
73567SOL    HW222599  10.669  13.690  13.735
73568SOL     OW22600  11.099  14.464  14.185
73568SOL    HW122601  11.036  14.400  14.154
73568SOL    HW222602  11.057  14.505  14.260
73569SOL     OW22603  10.793  12.901  12.069
73569SOL    HW122604  10.798  12.805  12.068
73569SOL    HW222605  10.832  12.928  11.986
73570SOL     OW22606  12.526  14.115  11.961
73570SOL    HW122607  12.521  14.046  12.028
73570SOL    HW222608  12.588  14.178  11.996
73571SOL     OW22609  14.416   6.267  11.082
73571SOL    HW122610  14.390   6.342  11.136
73571SOL    HW222611  14.479   6.303  11.019
73572SOL     OW22612  14.801  11.474  12.815
73572SOL    HW122613  14.756  11.410  12.870
73572SOL    HW222614  14.831  11.542  12.875
73573SOL     OW22615   6.186  13.391   7.548
73573SOL    HW122616   6.136  13.368   7.469
73573SOL    HW222617   6.274  13.360   7.529
73574SOL     OW22618  12.662   2.658   6.458
73574SOL    HW122619  12.627   2.685   6.543
73574SOL    HW222620  12.589   2.612   6.416
73575SOL     OW22621  11.106   6.223   0.096
73575SOL    HW122622  11.023   6.226   0.144
73575SOL    HW222623  11.167   6.273   0.150
73576SOL     OW22624   1.623   2.518   2.515
73576SOL    HW122625   1.680   2.571   2.570
73576SOL    HW222626   1.553   2.488   2.574
73577SOL     OW22627   4.532   0.635   4.058
73577SOL    HW122628   4.542   0.722   4.019
73577SOL    HW222629   4.556   0.647   4.150
73578SOL     OW22630   1.159  13.555   7.070
73578SOL    HW122631   1.219  13.607   7.123
73578SOL    HW222632   1.075  13.561   7.116
73579SOL     OW22633   2.315   7.204   3.920
73579SOL    HW122634   2.287   7.250   3.841
73579SOL    HW222635   2.410   7.213   3.921
73580SOL     OW22636  13.962   4.926  13.552
73580SOL    HW122637  13.905   4.989  13.596
73580SOL    HW222638  14.047   4.970  13.548
73581SOL     OW22639  13.544  14.862   8.583
73581SOL    HW122640  13.612   0.007   8.649
73581SOL    HW222641  13.505   0.079   8.569
73582SOL     OW22642   3.600   3.607   3.242
73582SOL    HW122643   3.612   3.668   3.315
73582SOL    HW222644   3.651   3.530   3.266
73583SOL     OW22645  10.241   7.372  13.407
73583SOL    HW122646  10.313   7.339  13.352
73583SOL    HW222647  10.163   7.326  13.376
73584SOL     OW22648   2.262   3.849   4.656
73584SOL    HW122649   2.269   3.831   4.750
73584SOL    HW222650   2.192   3.791   4.625
73585SOL     OW22651   0.308   4.374   9.707
73585SOL    HW122652   0.322   4.438   9.637
73585SOL    HW222653   0.280   4.295   9.661
73586SOL     OW22654  14.088  10.390   6.115
73586SOL    HW122655  14.028  10.357   6.182
73586SOL    HW222656  14.096  10.319   6.052
73587SOL     OW22657   7.344   4.359  12.800
73587SOL    HW122658   7.377   4.269  12.808
73587SOL    HW222659   7.415   4.406  12.756
73588SOL     OW22660  12.927   4.201  11.785
73588SOL    HW122661  12.834   4.184  11.795
73588SOL    HW222662  12.968   4.115  11.784
73589SOL     OW22663   9.061   8.035  13.640
73589SOL    HW122664   9.059   7.953  13.689
73589SOL    HW222665   9.121   8.019  13.568
73590SOL     OW22666   5.528  11.465   1.402
73590SOL    HW122667   5.572  11.524   1.341
73590SOL    HW222668   5.571  11.482   1.486
73591SOL     OW22669   2.100   6.165  13.683
73591SOL    HW122670   2.029   6.223  13.709
73591SOL    HW222671   2.179   6.211  13.713
73592SOL     OW22672   4.772   0.830   6.875
73592SOL    HW122673   4.690   0.873   6.852
73592SOL    HW222674   4.800   0.788   6.794
73593SOL     OW22675  11.303   5.555  14.223
73593SOL    HW122676  11.320   5.476  14.172
73593SOL    HW222677  11.228   5.596  14.180
73594SOL     OW22678  11.083   9.347  13.620
73594SOL    HW122679  11.164   9.321  13.576
73594SOL    HW222680  11.110   9.413  13.683
73595SOL     OW22681   9.619   3.378  12.577
73595SOL    HW122682   9.596   3.447  12.514
73595SOL    HW222683   9.692   3.415  12.627
73596SOL     OW22684   1.673  11.145   7.956
73596SOL    HW122685   1.762  11.173   7.976
73596SOL    HW222686   1.625  11.160   8.037
73597SOL     OW22687   7.533   8.522   1.176
73597SOL    HW122688   7.563   8.473   1.099
73597SOL    HW222689   7.486   8.457   1.229
73598SOL     OW22690  10.927   4.094   1.034
73598SOL    HW122691  10.864   4.153   1.077
73598SOL    HW222692  10.924   4.119   0.942
73599SOL     OW22693   5.305  14.359  12.257
73599SOL    HW122694   5.313  14.440  12.206
73599SOL    HW222695   5.233  14.312  12.215
73600SOL     OW22696   8.575   6.220  12.468
73600SOL    HW122697   8.480   6.211  12.474
73600SOL    HW222698   8.596   6.296  12.521
73601SOL     OW22699   8.121   0.322  10.089
73601SOL    HW122700   8.040   0.374  10.095
73601SOL    HW222701   8.190   0.386  10.107
73602SOL     OW22702  10.202   9.413   1.407
73602SOL    HW122703  10.220   9.352   1.479
73602SOL    HW222704  10.172   9.358   1.335
73603SOL     OW22705  12.169   1.300  11.872
73603SOL    HW122706  12.221   1.380  11.873
73603SOL    HW222707  12.160   1.276  11.964
73604SOL     OW22708   9.802   9.881  12.217
73604SOL    HW122709   9.735   9.814  12.202
73604SOL    HW222710   9.754   9.964  12.215
73605SOL     OW22711   3.638  11.116   2.903
73605SOL    HW122712   3.573  11.109   2.832
73605SOL    HW222713   3.707  11.055   2.879
73606SOL     OW22714   7.987  11.078   5.176
73606SOL    HW122715   8.008  11.160   5.131
73606SOL    HW222716   8.069  11.052   5.218
73607SOL     OW22717   1.770   7.523   2.583
73607SOL    HW122718   1.680   7.551   2.599
73607SOL    HW222719   1.769   7.488   2.494
73608SOL     OW22720   9.782   4.252   7.869
73608SOL    HW122721   9.733   4.171   7.882
73608SOL    HW222722   9.715   4.318   7.850
73609SOL     OW22723   1.282   0.359  12.584
73609SOL    HW122724   1.263   0.275  12.626
73609SOL    HW222725   1.259   0.345  12.492
73610SOL     OW22726   5.735  14.661   3.541
73610SOL    HW122727   5.761  14.741   3.496
73610SOL    HW222728   5.742  14.592   3.475
73611SOL     OW22729   5.338   4.075   3.152
73611SOL    HW122730   5.326   4.144   3.218
73611SOL    HW222731   5.428   4.047   3.163
73612SOL     OW22732   7.428   8.471   2.785
73612SOL    HW122733   7.468   8.556   2.803
73612SOL    HW222734   7.334   8.486   2.799
73613SOL     OW22735   6.767   7.486  10.588
73613SOL    HW122736   6.775   7.575  10.555
73613SOL    HW222737   6.677   7.479  10.619
73614SOL     OW22738   3.114   7.581   6.054
73614SOL    HW122739   3.058   7.526   5.999
73614SOL    HW222740   3.088   7.559   6.144
73615SOL     OW22741   8.662   4.991   4.532
73615SOL    HW122742   8.661   5.085   4.517
73615SOL    HW222743   8.713   4.980   4.612
73616SOL     OW22744   7.370  10.109  10.129
73616SOL    HW122745   7.420  10.057  10.066
73616SOL    HW222746   7.431  10.125  10.201
73617SOL     OW22747   8.294  12.255   9.409
73617SOL    HW122748   8.322  12.345   9.424
73617SOL    HW222749   8.375  12.204   9.409
73618SOL     OW22750   4.294   9.534   6.093
73618SOL    HW122751   4.327   9.581   6.170
73618SOL    HW222752   4.239   9.465   6.129
73619SOL     OW22753   3.203   2.948  10.134
73619SOL    HW122754   3.174   2.938  10.225
73619SOL    HW222755   3.254   3.029  10.134
73620SOL     OW22756  10.248  14.519   4.750
73620SOL    HW122757  10.197  14.449   4.792
73620SOL    HW222758  10.333  14.479   4.732
73621SOL     OW22759   2.291  14.637   7.474
73621SOL    HW122760   2.345  14.717   7.469
73621SOL    HW222761   2.241  14.647   7.555
73622SOL     OW22762   0.241   3.603   6.172
73622SOL    HW122763   0.172   3.541   6.145
73622SOL    HW222764   0.227   3.680   6.118
73623SOL     OW22765   1.775   6.717  11.395
73623SOL    HW122766   1.713   6.658  11.438
73623SOL    HW222767   1.787   6.680  11.307
73624SOL     OW22768   1.225   0.446  11.691
73624SOL    HW122769   1.206   0.479  11.779
73624SOL    HW222770   1.317   0.418  11.695
73625SOL     OW22771   3.506   1.877  11.470
73625SOL    HW122772   3.475   1.903  11.557
73625SOL    HW222773   3.437   1.820  11.437
73626SOL     OW22774   4.854   8.783   4.372
73626SOL    HW122775   4.842   8.878   4.360
73626SOL    HW222776   4.864   8.772   4.466
73627SOL     OW22777  12.403   1.448   2.115
73627SOL    HW122778  12.437   1.380   2.173
73627SOL    HW222779  12.428   1.419   2.027
73628SOL     OW22780   5.556  14.238   9.151
73628SOL    HW122781   5.643  14.272   9.128
73628SOL    HW222782   5.565  14.210   9.242
73629SOL     OW22783   1.023   8.083   5.887
73629SOL    HW122784   0.996   8.163   5.932
73629SOL    HW222785   1.080   8.038   5.950
73630SOL     OW22786   1.810   2.493   4.033
73630SOL    HW122787   1.820   2.585   4.010
73630SOL    HW222788   1.891   2.470   4.078
73631SOL     OW22789  11.323   5.989  12.429
73631SOL    HW122790  11.359   5.907  12.465
73631SOL    HW222791  11.233   5.992  12.462
73632SOL     OW22792  10.447   5.041   8.255
73632SOL    HW122793  10.430   5.135   8.245
73632SOL    HW222794  10.480   5.032   8.344
73633SOL     OW22795  12.047   3.679  10.508
73633SOL    HW122796  12.055   3.691  10.602
73633SOL    HW222797  11.968   3.727  10.484
73634SOL     OW22798   6.072   0.565  12.889
73634SOL    HW122799   6.103   0.593  12.803
73634SOL    HW222800   6.006   0.630  12.913
73635SOL     OW22801  10.330   3.413  13.777
73635SOL    HW122802  10.263   3.427  13.844
73635SOL    HW222803  10.282   3.378  13.702
73636SOL     OW22804   5.857  11.253   4.518
73636SOL    HW122805   5.783  11.223   4.570
73636SOL    HW222806   5.916  11.293   4.582
73637SOL     OW22807  11.255   3.540   9.696
73637SOL    HW122808  11.290   3.625   9.723
73637SOL    HW222809  11.216   3.504   9.775
73638SOL     OW22810  13.050   1.492  13.389
73638SOL    HW122811  13.067   1.564  13.328
73638SOL    HW222812  13.112   1.506  13.461
73639SOL     OW22813  12.995   4.800  12.802
73639SOL    HW122814  13.062   4.822  12.867
73639SOL    HW222815  13.044   4.777  12.723
73640SOL     OW22816   3.744   2.142   7.938
73640SOL    HW122817   3.656   2.163   7.908
73640SOL    HW222818   3.731   2.080   8.010
73641SOL     OW22819   9.699   0.787   8.951
73641SOL    HW122820   9.790   0.770   8.925
73641SOL    HW222821   9.673   0.708   8.998
73642SOL     OW22822   6.505  13.309   3.626
73642SOL    HW122823   6.424  13.258   3.622
73642SOL    HW222824   6.495  13.364   3.704
73643SOL     OW22825   4.059  10.300   0.080
73643SOL    HW122826   3.991  10.294   0.148
73643SOL    HW222827   4.118  10.369   0.111
73644SOL     OW22828   0.268  14.022   3.222
73644SOL    HW122829   0.327  14.066   3.161
73644SOL    HW222830   0.326  13.981   3.286
73645SOL     OW22831  13.851   4.757  14.531
73645SOL    HW122832  13.859   4.731  14.623
73645SOL    HW222833  13.877   4.849  14.529
73646SOL     OW22834  12.116   8.358   8.711
73646SOL    HW122835  12.142   8.298   8.642
73646SOL    HW222836  12.039   8.317   8.750
73647SOL     OW22837   1.123  11.291   9.085
73647SOL    HW122838   1.095  11.228   9.019
73647SOL    HW222839   1.078  11.264   9.165
73648SOL     OW22840   0.951  14.134   5.121
73648SOL    HW122841   1.043  14.133   5.150
73648SOL    HW222842   0.950  14.073   5.047
73649SOL     OW22843  14.039   7.353   4.469
73649SOL    HW122844  13.985   7.293   4.521
73649SOL    HW222845  14.129   7.332   4.494
73650SOL     OW22846   9.004   8.461   5.232
73650SOL    HW122847   9.027   8.487   5.143
73650SOL    HW222848   9.032   8.369   5.238
73651SOL     OW22849   8.843   3.576  12.939
73651SOL    HW122850   8.853   3.497  12.992
73651SOL    HW222851   8.786   3.549  12.867
73652SOL     OW22852   9.998   9.505   6.449
73652SOL    HW122853   9.991   9.434   6.513
73652SOL    HW222854   9.909   9.518   6.416
73653SOL     OW22855   8.922   4.739   6.217
73653SOL    HW122856   8.886   4.824   6.242
73653SOL    HW222857   8.848   4.679   6.223
73654SOL     OW22858   3.237   3.113  13.203
73654SOL    HW122859   3.266   3.044  13.262
73654SOL    HW222860   3.144   3.125  13.224
73655SOL     OW22861   5.146   6.895  11.785
73655SOL    HW122862   5.086   6.822  11.798
73655SOL    HW222863   5.233   6.856  11.788
73656SOL     OW22864  12.470  12.520   8.150
73656SOL    HW122865  12.530  12.566   8.091
73656SOL    HW222866  12.450  12.438   8.105
73657SOL     OW22867   0.502   5.033   7.127
73657SOL    HW122868   0.457   5.043   7.211
73657SOL    HW222869   0.432   5.024   7.063
73658SOL     OW22870   6.688   0.108  10.516
73658SOL    HW122871   6.727   0.119  10.603
73658SOL    HW222872   6.636   0.028  10.523
73659SOL     OW22873   1.816  14.320  11.980
73659SOL    HW122874   1.795  14.282  12.065
73659SOL    HW222875   1.885  14.384  11.999
73660SOL     OW22876   1.243  14.780  10.200
73660SOL    HW122877   1.316  14.832  10.235
73660SOL    HW222878   1.168  14.806  10.254
73661SOL     OW22879   8.030  10.028  12.264
73661SOL    HW122880   7.995   9.939  12.262
73661SOL    HW222881   7.960  10.081  12.302
73662SOL     OW22882   3.242  11.419   6.744
73662SOL    HW122883   3.157  11.404   6.702
73662SOL    HW222884   3.267  11.333   6.779
73663SOL     OW22885   0.341   3.047   7.775
73663SOL    HW122886   0.268   2.985   7.774
73663SOL    HW222887   0.302   3.129   7.806
73664SOL     OW22888   8.633   9.057   9.083
73664SOL    HW122889   8.546   9.076   9.117
73664SOL    HW222890   8.620   8.982   9.025
73665SOL     OW22891   7.878   1.565   3.034
73665SOL    HW122892   7.793   1.567   2.990
73665SOL    HW222893   7.913   1.479   3.015
73666SOL     OW22894  12.617  10.381   5.292
73666SOL    HW122895  12.543  10.341   5.246
73666SOL    HW222896  12.613  10.343   5.379
73667SOL     OW22897   2.811  13.243   5.375
73667SOL    HW122898   2.755  13.184   5.325
73667SOL    HW222899   2.783  13.331   5.349
73668SOL     OW22900   8.745   7.551   1.359
73668SOL    HW122901   8.781   7.494   1.427
73668SOL    HW222902   8.731   7.493   1.285
73669SOL     OW22903   9.711  10.521  10.576
73669SOL    HW122904   9.628  10.474  10.570
73669SOL    HW222905   9.711  10.580  10.501
73670SOL     OW22906   1.015   4.844  10.946
73670SOL    HW122907   1.085   4.898  10.983
73670SOL    HW222908   0.936   4.870  10.993
73671SOL     OW22909   8.106  10.067   0.179
73671SOL    HW122910   8.184  10.121   0.179
73671SOL    HW222911   8.127   9.994   0.120
73672SOL     OW22912   8.016  11.565   3.594
73672SOL    HW122913   7.940  11.536   3.645
73672SOL    HW222914   8.002  11.660   3.583
73673SOL     OW22915  10.572   8.020   7.721
73673SOL    HW122916  10.654   8.012   7.769
73673SOL    HW222917  10.508   8.045   7.787
73674SOL     OW22918   8.261   0.857   7.774
73674SOL    HW122919   8.239   0.797   7.703
73674SOL    HW222920   8.350   0.832   7.800
73675SOL     OW22921   1.295  10.863   2.904
73675SOL    HW122922   1.211  10.844   2.946
73675SOL    HW222923   1.293  10.814   2.822
73676SOL     OW22924  10.416  13.748   6.578
73676SOL    HW122925  10.494  13.802   6.568
73676SOL    HW222926  10.378  13.775   6.661
73677SOL     OW22927   1.902   9.755  13.100
73677SOL    HW122928   1.948   9.740  13.017
73677SOL    HW222929   1.821   9.705  13.093
73678SOL     OW22930   6.594   3.460   0.246
73678SOL    HW122931   6.525   3.459   0.312
73678SOL    HW222932   6.662   3.516   0.283
73679SOL     OW22933   8.703   4.565   6.215
73679SOL    HW122934   8.726   4.480   6.177
73679SOL    HW222935   8.662   4.613   6.143
73680SOL     OW22936  11.789  14.280   4.120
73680SOL    HW122937  11.709  14.307   4.166
73680SOL    HW222938  11.838  14.361   4.108
73681SOL     OW22939   3.574   0.492   3.300
73681SOL    HW122940   3.635   0.552   3.257
73681SOL    HW222941   3.489   0.513   3.262
73682SOL     OW22942  10.503   7.183   0.208
73682SOL    HW122943  10.545   7.127   0.273
73682SOL    HW222944  10.428   7.131   0.177
73683SOL     OW22945   6.124  12.411   4.300
73683SOL    HW122946   6.155  12.339   4.246
73683SOL    HW222947   6.195  12.475   4.297
73684SOL     OW22948   2.539   6.752   4.034
73684SOL    HW122949   2.608   6.688   4.014
73684SOL    HW222950   2.539   6.758   4.129
73685SOL     OW22951  11.308  10.820   9.141
73685SOL    HW122952  11.278  10.737   9.106
73685SOL    HW222953  11.229  10.861   9.176
73686SOL     OW22954   0.281  12.382   0.129
73686SOL    HW122955   0.248  12.373   0.219
73686SOL    HW222956   0.218  12.333   0.076
73687SOL     OW22957   5.481   9.785  12.332
73687SOL    HW122958   5.576   9.781  12.337
73687SOL    HW222959   5.454   9.695  12.312
73688SOL     OW22960  14.200   9.795   2.528
73688SOL    HW122961  14.124   9.766   2.479
73688SOL    HW222962  14.243   9.715   2.556
73689SOL     OW22963  13.855   7.463   7.253
73689SOL    HW122964  13.768   7.436   7.223
73689SOL    HW222965  13.905   7.477   7.174
73690SOL     OW22966   8.873  12.839  11.036
73690SOL    HW122967   8.909  12.773  11.095
73690SOL    HW222968   8.931  12.914  11.045
73691SOL     OW22969   1.691   8.004   3.775
73691SOL    HW122970   1.719   8.095   3.779
73691SOL    HW222971   1.746   7.959   3.840
73692SOL     OW22972  12.064   4.809   5.154
73692SOL    HW122973  12.124   4.842   5.088
73692SOL    HW222974  12.115   4.806   5.234
73693SOL     OW22975  13.691   8.523  11.503
73693SOL    HW122976  13.732   8.535  11.418
73693SOL    HW222977  13.610   8.573  11.498
73694SOL     OW22978  11.966   3.057  14.192
73694SOL    HW122979  11.941   3.026  14.105
73694SOL    HW222980  12.015   2.984  14.230
73695SOL     OW22981  13.001   4.784  13.560
73695SOL    HW122982  13.054   4.771  13.482
73695SOL    HW222983  13.063   4.779  13.633
73696SOL     OW22984  13.574  12.260   8.179
73696SOL    HW122985  13.612  12.268   8.092
73696SOL    HW222986  13.595  12.342   8.223
73697SOL     OW22987   5.863  14.664  11.415
73697SOL    HW122988   5.920  14.666  11.338
73697SOL    HW222989   5.818  14.580  11.410
73698SOL     OW22990   5.702   2.256   5.910
73698SOL    HW122991   5.768   2.190   5.893
73698SOL    HW222992   5.702   2.311   5.831
73699SOL     OW22993  10.782   9.959   0.416
73699SOL    HW122994  10.872   9.951   0.449
73699SOL    HW222995  10.748   9.870   0.419
73700SOL     OW22996   5.310   4.898   4.686
73700SOL    HW122997   5.300   4.964   4.754
73700SOL    HW222998   5.386   4.927   4.635
73701SOL     OW22999   7.301   8.658   1.849
73701SOL    HW123000   7.375   8.632   1.794
73701SOL    HW223001   7.293   8.587   1.913
73702SOL     OW23002   0.558   0.817   0.343
73702SOL    HW123003   0.468   0.786   0.335
73702SOL    HW223004   0.611   0.737   0.349
73703SOL     OW23005   0.963   7.834   9.150
73703SOL    HW123006   1.035   7.894   9.129
73703SOL    HW223007   0.891   7.891   9.177
73704SOL     OW23008  10.803   7.208   4.609
73704SOL    HW123009  10.745   7.214   4.533
73704SOL    HW223010  10.794   7.293   4.653
73705SOL     OW23011  14.164   7.535   7.741
73705SOL    HW123012  14.111   7.467   7.782
73705SOL    HW223013  14.232   7.487   7.695
73706SOL     OW23014   9.917   3.229  11.706
73706SOL    HW123015   9.937   3.135  11.705
73706SOL    HW223016   9.996   3.270  11.742
73707SOL     OW23017  12.270  10.626  10.951
73707SOL    HW123018  12.176  10.613  10.939
73707SOL    HW223019  12.277  10.711  10.995
73708SOL     OW23020   3.637  12.149   8.912
73708SOL    HW123021   3.608  12.086   8.846
73708SOL    HW223022   3.631  12.234   8.868
73709SOL     OW23023  12.752  13.598   1.553
73709SOL    HW123024  12.729  13.528   1.492
73709SOL    HW223025  12.837  13.630   1.522
73710SOL     OW23026  14.318   6.055   0.663
73710SOL    HW123027  14.303   6.145   0.692
73710SOL    HW223028  14.230   6.018   0.655
73711SOL     OW23029   3.356   4.801   3.690
73711SOL    HW123030   3.449   4.780   3.686
73711SOL    HW223031   3.336   4.805   3.784
73712SOL     OW23032   3.558  10.324   8.719
73712SOL    HW123033   3.526  10.355   8.804
73712SOL    HW223034   3.546  10.399   8.661
73713SOL     OW23035  11.150  11.522   9.765
73713SOL    HW123036  11.092  11.551   9.695
73713SOL    HW223037  11.198  11.448   9.728
73714SOL     OW23038   2.672  10.859   4.929
73714SOL    HW123039   2.590  10.906   4.943
73714SOL    HW223040   2.724  10.919   4.875
73715SOL     OW23041   7.754   6.643  14.566
73715SOL    HW123042   7.760   6.728  14.610
73715SOL    HW223043   7.761   6.663  14.473
73716SOL     OW23044   3.537  11.806   5.747
73716SOL    HW123045   3.513  11.822   5.656
73716SOL    HW223046   3.473  11.856   5.798
73717SOL     OW23047  14.647  12.911  11.794
73717SOL    HW123048  14.692  12.841  11.747
73717SOL    HW223049  14.717  12.955  11.843
73718SOL     OW23050  10.399   0.966   8.291
73718SOL    HW123051  10.386   1.022   8.368
73718SOL    HW223052  10.447   1.021   8.229
73719SOL     OW23053   5.070   6.029   1.301
73719SOL    HW123054   5.151   5.983   1.325
73719SOL    HW223055   5.039   5.983   1.224
73720SOL     OW23056  12.467   4.207   6.851
73720SOL    HW123057  12.462   4.293   6.893
73720SOL    HW223058  12.392   4.205   6.792
73721SOL     OW23059   9.213   6.354   1.798
73721SOL    HW123060   9.126   6.323   1.822
73721SOL    HW223061   9.258   6.276   1.764
73722SOL     OW23062  12.020   0.339   6.347
73722SOL    HW123063  11.961   0.368   6.278
73722SOL    HW223064  12.083   0.283   6.303
73723SOL     OW23065   3.884  14.198   8.525
73723SOL    HW123066   3.867  14.107   8.550
73723SOL    HW223067   3.806  14.225   8.477
73724SOL     OW23068   0.251   4.480  14.101
73724SOL    HW123069   0.319   4.437  14.049
73724SOL    HW223070   0.298   4.546  14.152
73725SOL     OW23071   7.738   9.020  12.016
73725SOL    HW123072   7.734   9.052  12.106
73725SOL    HW223073   7.692   8.936  12.018
73726SOL     OW23074  13.380   9.762   4.999
73726SOL    HW123075  13.377   9.724   4.911
73726SOL    HW223076  13.443   9.708   5.046
73727SOL     OW23077   6.489   9.612  12.507
73727SOL    HW123078   6.444   9.630  12.424
73727SOL    HW223079   6.564   9.557  12.482
73728SOL     OW23080   5.372  11.958   4.159
73728SOL    HW123081   5.364  11.909   4.077
73728SOL    HW223082   5.465  11.952   4.181
73729SOL     OW23083  13.739  11.858   1.690
73729SOL    HW123084  13.794  11.805   1.632
73729SOL    HW223085  13.652  11.855   1.650
73730SOL     OW23086   7.799  10.966   6.896
73730SOL    HW123087   7.760  10.882   6.869
73730SOL    HW223088   7.853  10.943   6.972
73731SOL     OW23089  12.723   8.596  12.924
73731SOL    HW123090  12.673   8.660  12.874
73731SOL    HW223091  12.700   8.614  13.015
73732SOL     OW23092  10.384   0.568  11.896
73732SOL    HW123093  10.389   0.643  11.837
73732SOL    HW223094  10.461   0.577  11.953
73733SOL     OW23095  13.455   0.952   5.118
73733SOL    HW123096  13.452   0.858   5.134
73733SOL    HW223097  13.544   0.968   5.085
73734SOL     OW23098   4.020   2.868   0.752
73734SOL    HW123099   3.961   2.909   0.688
73734SOL    HW223100   4.030   2.778   0.721
73735SOL     OW23101   9.440  13.639   7.151
73735SOL    HW123102   9.513  13.701   7.163
73735SOL    HW223103   9.384  13.680   7.085
73736SOL     OW23104   3.851  14.557   6.983
73736SOL    HW123105   3.904  14.557   7.063
73736SOL    HW223106   3.910  14.524   6.915
73737SOL     OW23107  12.845   0.444   5.577
73737SOL    HW123108  12.906   0.509   5.544
73737SOL    HW223109  12.897   0.389   5.635
73738SOL     OW23110  12.398  13.659   4.577
73738SOL    HW123111  12.376  13.567   4.561
73738SOL    HW223112  12.460  13.682   4.508
73739SOL     OW23113   4.635  13.727   1.410
73739SOL    HW123114   4.648  13.821   1.421
73739SOL    HW223115   4.565  13.719   1.346
73740SOL     OW23116   4.668   8.656  12.610
73740SOL    HW123117   4.731   8.648  12.682
73740SOL    HW223118   4.593   8.604  12.638
73741SOL     OW23119   2.018   0.607   4.736
73741SOL    HW123120   2.039   0.588   4.645
73741SOL    HW223121   2.041   0.699   4.747
73742SOL     OW23122   7.957  12.658  11.818
73742SOL    HW123123   7.888  12.721  11.797
73742SOL    HW223124   7.943  12.585  11.758
73743SOL     OW23125   6.725   8.178   2.480
73743SOL    HW123126   6.695   8.232   2.554
73743SOL    HW223127   6.737   8.091   2.518
73744SOL     OW23128   5.929   5.729   2.577
73744SOL    HW123129   5.967   5.721   2.490
73744SOL    HW223130   5.914   5.638   2.605
73745SOL     OW23131   5.232  10.691  12.446
73745SOL    HW123132   5.304  10.747  12.419
73745SOL    HW223133   5.154  10.746  12.438
73746SOL     OW23134   9.519  11.146   5.103
73746SOL    HW123135   9.504  11.059   5.141
73746SOL    HW223136   9.457  11.151   5.031
73747SOL     OW23137  12.400   8.122   3.364
73747SOL    HW123138  12.426   8.104   3.273
73747SOL    HW223139  12.340   8.051   3.386
73748SOL     OW23140  10.245  10.407   3.737
73748SOL    HW123141  10.318  10.433   3.682
73748SOL    HW223142  10.168  10.416   3.681
73749SOL     OW23143   7.672   3.181  14.690
73749SOL    HW123144   7.673   3.269  14.653
73749SOL    HW223145   7.696   3.194  14.782
73750SOL     OW23146   0.089  14.405  13.483
73750SOL    HW123147   0.029  14.479  13.491
73750SOL    HW223148   0.035  14.333  13.451
73751SOL     OW23149  13.591  13.505   2.917
73751SOL    HW123150  13.573  13.490   2.824
73751SOL    HW223151  13.660  13.572   2.918
73752SOL     OW23152   3.862   2.576   2.661
73752SOL    HW123153   3.944   2.615   2.689
73752SOL    HW223154   3.827   2.535   2.741
73753SOL     OW23155  12.139   2.908   7.541
73753SOL    HW123156  12.159   2.816   7.523
73753SOL    HW223157  12.106   2.908   7.631
73754SOL     OW23158  13.272   5.532  12.240
73754SOL    HW123159  13.264   5.443  12.274
73754SOL    HW223160  13.356   5.564  12.275
73755SOL     OW23161   4.110  12.446   6.595
73755SOL    HW123162   4.194  12.410   6.567
73755SOL    HW223163   4.047  12.376   6.576
73756SOL     OW23164   3.515   4.981  14.111
73756SOL    HW123165   3.432   4.996  14.156
73756SOL    HW223166   3.495   4.992  14.019
73757SOL     OW23167  13.230  10.013   8.080
73757SOL    HW123168  13.266   9.994   8.167
73757SOL    HW223169  13.260  10.101   8.061
73758SOL     OW23170  11.585   5.778   4.927
73758SOL    HW123171  11.632   5.840   4.983
73758SOL    HW223172  11.516   5.743   4.983
73759SOL     OW23173   3.777   7.664   2.284
73759SOL    HW123174   3.789   7.729   2.216
73759SOL    HW223175   3.810   7.583   2.246
73760SOL     OW23176  11.854  11.490   3.194
73760SOL    HW123177  11.819  11.562   3.246
73760SOL    HW223178  11.838  11.412   3.247
73761SOL     OW23179  11.892   6.122   5.169
73761SOL    HW123180  11.890   6.199   5.111
73761SOL    HW223181  11.975   6.131   5.216
73762SOL     OW23182  10.136  13.559  11.893
73762SOL    HW123183  10.207  13.546  11.955
73762SOL    HW223184  10.180  13.581  11.811
73763SOL     OW23185   0.058   9.708   4.251
73763SOL    HW123186   0.017   9.694   4.165
73763SOL    HW223187   0.020   9.791   4.281
73764SOL     OW23188   5.827  11.425   1.232
73764SOL    HW123189   5.913  11.452   1.263
73764SOL    HW223190   5.767  11.493   1.264
73765SOL     OW23191   0.904   2.302   2.310
73765SOL    HW123192   0.833   2.363   2.291
73765SOL    HW223193   0.945   2.337   2.389
73766SOL     OW23194   1.999   7.652   2.681
73766SOL    HW123195   2.006   7.706   2.603
73766SOL    HW223196   1.932   7.587   2.659
73767SOL     OW23197   4.448   0.335  12.350
73767SOL    HW123198   4.517   0.399  12.340
73767SOL    HW223199   4.377   0.366  12.293
73768SOL     OW23200   5.882  12.545   5.978
73768SOL    HW123201   5.884  12.640   5.985
73768SOL    HW223202   5.930  12.526   5.898
73769SOL     OW23203   1.328   4.700   7.461
73769SOL    HW123204   1.293   4.786   7.439
73769SOL    HW223205   1.266   4.638   7.422
73770SOL     OW23206   3.035  14.834   9.541
73770SOL    HW123207   3.071  14.780   9.471
73770SOL    HW223208   2.949  14.795   9.560
73771SOL     OW23209   5.502  14.772   4.788
73771SOL    HW123210   5.480  14.681   4.770
73771SOL    HW223211   5.589  14.768   4.828
73772SOL     OW23212  10.230   6.223   1.423
73772SOL    HW123213  10.211   6.273   1.344
73772SOL    HW223214  10.248   6.134   1.391
73773SOL     OW23215   8.133   8.811  10.926
73773SOL    HW123216   8.100   8.733  10.881
73773SOL    HW223217   8.065   8.832  10.990
73774SOL     OW23218   3.195   9.959  14.722
73774SOL    HW123219   3.277   9.991  14.683
73774SOL    HW223220   3.173   9.882  14.670
73775SOL     OW23221   7.906  14.471   9.741
73775SOL    HW123222   7.962  14.446   9.668
73775SOL    HW223223   7.839  14.527   9.702
73776SOL     OW23224  12.954  11.018   2.506
73776SOL    HW123225  12.963  11.103   2.550
73776SOL    HW223226  12.949  10.954   2.577
73777SOL     OW23227   0.325   8.568   3.904
73777SOL    HW123228   0.402   8.511   3.899
73777SOL    HW223229   0.316   8.586   3.998
73778SOL     OW23230   5.577   7.050   0.416
73778SOL    HW123231   5.493   7.057   0.371
73778SOL    HW223232   5.636   7.108   0.366
73779SOL     OW23233   2.852  10.926   5.909
73779SOL    HW123234   2.910  11.002   5.903
73779SOL    HW223235   2.788  10.940   5.838
73780SOL     OW23236  13.804   8.044   9.006
73780SOL    HW123237  13.714   8.072   9.023
73780SOL    HW223238  13.855   8.086   9.076
73781SOL     OW23239   6.237   4.773  13.448
73781SOL    HW123240   6.243   4.768  13.353
73781SOL    HW223241   6.273   4.690  13.480
73782SOL     OW23242  14.748   4.606  13.846
73782SOL    HW123243  14.694   4.570  13.917
73782SOL    HW223244  14.792   4.681  13.886
73783SOL     OW23245   3.952   1.747   2.366
73783SOL    HW123246   4.028   1.726   2.311
73783SOL    HW223247   3.985   1.813   2.428
73784SOL     OW23248  14.697  14.058   9.696
73784SOL    HW123249  14.668  14.049   9.787
73784SOL    HW223250  14.663  14.142   9.668
73785SOL     OW23251   4.500  13.002   6.164
73785SOL    HW123252   4.456  12.945   6.101
73785SOL    HW223253   4.473  13.091   6.140
73786SOL     OW23254  14.670   3.731  12.690
73786SOL    HW123255  14.763   3.750  12.675
73786SOL    HW223256  14.643   3.682  12.613
73787SOL     OW23257   0.574   9.969   7.796
73787SOL    HW123258   0.566  10.058   7.830
73787SOL    HW223259   0.645   9.974   7.731
73788SOL     OW23260   1.621  10.095   1.625
73788SOL    HW123261   1.587  10.107   1.536
73788SOL    HW223262   1.715  10.078   1.612
73789SOL     OW23263   6.658  11.583   9.091
73789SOL    HW123264   6.731  11.532   9.057
73789SOL    HW223265   6.640  11.648   9.023
73790SOL     OW23266   1.439  14.171   1.796
73790SOL    HW123267   1.451  14.163   1.891
73790SOL    HW223268   1.528  14.168   1.761
73791SOL     OW23269   5.459   6.714  14.611
73791SOL    HW123270   5.517   6.638  14.622
73791SOL    HW223271   5.492   6.778  14.673
73792SOL     OW23272   2.815   8.042   2.371
73792SOL    HW123273   2.801   8.069   2.461
73792SOL    HW223274   2.729   8.012   2.341
73793SOL     OW23275   2.064  12.675  11.402
73793SOL    HW123276   2.129  12.675  11.332
73793SOL    HW223277   2.069  12.763  11.440
73794SOL     OW23278  10.802  11.897   8.278
73794SOL    HW123279  10.833  11.933   8.195
73794SOL    HW223280  10.797  11.973   8.337
73795SOL     OW23281  13.910   8.626   2.658
73795SOL    HW123282  13.825   8.662   2.632
73795SOL    HW223283  13.972   8.660   2.594
73796SOL     OW23284  12.755  13.289   1.860
73796SOL    HW123285  12.766  13.201   1.825
73796SOL    HW223286  12.660  13.303   1.861
73797SOL     OW23287  13.166  12.575   7.043
73797SOL    HW123288  13.096  12.635   7.070
73797SOL    HW223289  13.231  12.633   7.004
73798SOL     OW23290  10.128   1.415   6.422
73798SOL    HW123291  10.087   1.332   6.397
73798SOL    HW223292  10.114   1.473   6.347
73799SOL     OW23293   5.730  12.283  14.868
73799SOL    HW123294   5.794  12.354  14.857
73799SOL    HW223295   5.693  12.297   0.086
73800SOL     OW23296  11.879   4.840  12.113
73800SOL    HW123297  11.837   4.772  12.165
73800SOL    HW223298  11.883   4.805  12.024
73801SOL     OW23299  14.758   3.975   4.516
73801SOL    HW123300  14.801   3.890   4.515
73801SOL    HW223301  14.808   4.028   4.453
73802SOL     OW23302  13.969  12.051   4.552
73802SOL    HW123303  13.947  12.060   4.460
73802SOL    HW223304  13.914  12.116   4.596
73803SOL     OW23305   4.837   8.315   2.650
73803SOL    HW123306   4.880   8.353   2.727
73803SOL    HW223307   4.756   8.277   2.684
73804SOL     OW23308  14.561  10.447   3.072
73804SOL    HW123309  14.482  10.499   3.087
73804SOL    HW223310  14.614  10.461   3.150
73805SOL     OW23311  14.820   8.958   5.220
73805SOL    HW123312  14.733   8.997   5.229
73805SOL    HW223313  14.835   8.954   5.125
73806SOL     OW23314   7.886   2.167   0.522
73806SOL    HW123315   7.791   2.171   0.515
73806SOL    HW223316   7.910   2.087   0.475
73807SOL     OW23317   7.416   5.503  11.012
73807SOL    HW123318   7.429   5.465  10.925
73807SOL    HW223319   7.321   5.505  11.023
73808SOL     OW23320   8.490   2.368   4.702
73808SOL    HW123321   8.433   2.355   4.778
73808SOL    HW223322   8.481   2.461   4.680
73809SOL     OW23323  12.111   4.039   6.788
73809SOL    HW123324  12.170   4.077   6.723
73809SOL    HW223325  12.168   4.011   6.859
73810SOL     OW23326   4.894   6.518  13.703
73810SOL    HW123327   4.957   6.583  13.731
73810SOL    HW223328   4.816   6.535  13.756
73811SOL     OW23329   6.447   0.657   2.028
73811SOL    HW123330   6.520   0.695   2.078
73811SOL    HW223331   6.370   0.677   2.081
73812SOL     OW23332   1.140   6.633   7.252
73812SOL    HW123333   1.164   6.558   7.307
73812SOL    HW223334   1.202   6.630   7.180
73813SOL     OW23335   3.249   9.519   9.390
73813SOL    HW123336   3.297   9.495   9.469
73813SOL    HW223337   3.168   9.469   9.395
73814SOL     OW23338  11.211   9.309   4.536
73814SOL    HW123339  11.225   9.218   4.561
73814SOL    HW223340  11.238   9.359   4.613
73815SOL     OW23341  12.827   9.813   8.455
73815SOL    HW123342  12.874   9.781   8.378
73815SOL    HW223343  12.802   9.734   8.502
73816SOL     OW23344   3.601   1.318  14.516
73816SOL    HW123345   3.523   1.290  14.468
73816SOL    HW223346   3.652   1.369  14.453
73817SOL     OW23347  13.720   4.583   6.722
73817SOL    HW123348  13.764   4.523   6.782
73817SOL    HW223349  13.666   4.525   6.667
73818SOL     OW23350   1.756   3.361   2.629
73818SOL    HW123351   1.703   3.286   2.603
73818SOL    HW223352   1.795   3.336   2.713
73819SOL     OW23353   7.661   5.001   7.338
73819SOL    HW123354   7.635   5.040   7.421
73819SOL    HW223355   7.741   5.047   7.313
73820SOL     OW23356  12.243   7.192  11.070
73820SOL    HW123357  12.208   7.145  11.146
73820SOL    HW223358  12.333   7.215  11.095
73821SOL     OW23359  12.894   1.816  10.468
73821SOL    HW123360  12.884   1.768  10.385
73821SOL    HW223361  12.950   1.759  10.521
73822SOL     OW23362  12.774   3.744   4.686
73822SOL    HW123363  12.710   3.788   4.631
73822SOL    HW223364  12.740   3.655   4.695
73823SOL     OW23365   6.447   4.808   2.708
73823SOL    HW123366   6.355   4.802   2.681
73823SOL    HW223367   6.444   4.848   2.794
73824SOL     OW23368  11.149   6.449  14.546
73824SOL    HW123369  11.229   6.415  14.586
73824SOL    HW223370  11.093   6.471  14.621
73825SOL     OW23371   1.381  12.046  12.256
73825SOL    HW123372   1.333  12.117  12.214
73825SOL    HW223373   1.313  11.993  12.298
73826SOL     OW23374  11.019   5.827   3.487
73826SOL    HW123375  11.053   5.810   3.575
73826SOL    HW223376  11.098   5.843   3.434
73827SOL     OW23377   5.117  12.736  13.704
73827SOL    HW123378   5.092  12.666  13.643
73827SOL    HW223379   5.194  12.776  13.664
73828SOL     OW23380   1.064   2.588   2.911
73828SOL    HW123381   1.001   2.521   2.886
73828SOL    HW223382   1.022   2.671   2.888
73829SOL     OW23383  11.618   3.503   6.366
73829SOL    HW123384  11.698   3.532   6.411
73829SOL    HW223385  11.583   3.434   6.423
73830SOL     OW23386   6.026   5.379   2.798
73830SOL    HW123387   6.047   5.297   2.843
73830SOL    HW223388   5.968   5.425   2.859
73831SOL     OW23389  12.438  14.805   5.525
73831SOL    HW123390  12.444  14.730   5.466
73831SOL    HW223391  12.525  14.845   5.522
73832SOL     OW23392   1.944  10.319   8.252
73832SOL    HW123393   1.942  10.224   8.260
73832SOL    HW223394   1.854  10.344   8.232
73833SOL     OW23395   2.613  12.962  13.041
73833SOL    HW123396   2.558  13.013  12.981
73833SOL    HW223397   2.575  12.976  13.127
73834SOL     OW23398   7.520  12.975  12.812
73834SOL    HW123399   7.493  13.064  12.834
73834SOL    HW223400   7.616  12.977  12.814
73835SOL     OW23401  11.665   2.340   9.784
73835SOL    HW123402  11.717   2.404   9.737
73835SOL    HW223403  11.639   2.276   9.717
73836SOL     OW23404  12.235   7.483   3.963
73836SOL    HW123405  12.244   7.509   3.871
73836SOL    HW223406  12.166   7.417   3.962
73837SOL     OW23407  13.745   3.590   2.594
73837SOL    HW123408  13.675   3.571   2.531
73837SOL    HW223409  13.699   3.613   2.674
73838SOL     OW23410   8.912   6.364  10.458
73838SOL    HW123411   8.854   6.439  10.472
73838SOL    HW223412   8.967   6.390  10.384
73839SOL     OW23413  11.749  10.666   5.740
73839SOL    HW123414  11.768  10.635   5.651
73839SOL    HW223415  11.834  10.661   5.785
73840SOL     OW23416   3.060  14.388   7.932
73840SOL    HW123417   3.085  14.305   7.972
73840SOL    HW223418   3.139  14.442   7.936
73841SOL     OW23419   5.762   0.531   1.446
73841SOL    HW123420   5.700   0.574   1.505
73841SOL    HW223421   5.734   0.557   1.358
73842SOL     OW23422   3.748   1.366   9.269
73842SOL    HW123423   3.805   1.442   9.256
73842SOL    HW223424   3.764   1.340   9.360
73843SOL     OW23425   9.783  12.224  10.473
73843SOL    HW123426   9.754  12.277  10.548
73843SOL    HW223427   9.809  12.140  10.512
73844SOL     OW23428  10.903   6.780   6.995
73844SOL    HW123429  10.854   6.790   7.077
73844SOL    HW223430  10.898   6.867   6.954
73845SOL     OW23431   4.843   7.514   5.735
73845SOL    HW123432   4.921   7.569   5.719
73845SOL    HW223433   4.781   7.541   5.668
73846SOL     OW23434  11.412   6.674   0.880
73846SOL    HW123435  11.502   6.702   0.861
73846SOL    HW223436  11.419   6.580   0.896
73847SOL     OW23437  11.530  12.532  12.228
73847SOL    HW123438  11.623  12.522  12.250
73847SOL    HW223439  11.528  12.530  12.132
73848SOL     OW23440   7.810   2.544   7.518
73848SOL    HW123441   7.765   2.551   7.602
73848SOL    HW223442   7.860   2.625   7.511
73849SOL     OW23443   0.507   3.275   2.224
73849SOL    HW123444   0.500   3.368   2.202
73849SOL    HW223445   0.443   3.263   2.295
73850SOL     OW23446  12.362  11.756  14.774
73850SOL    HW123447  12.306  11.830  14.748
73850SOL    HW223448  12.374  11.768  14.868
73851SOL     OW23449   0.681  13.099  13.536
73851SOL    HW123450   0.678  13.091  13.631
73851SOL    HW223451   0.676  13.193  13.520
73852SOL     OW23452  10.249   0.439   2.031
73852SOL    HW123453  10.317   0.476   1.975
73852SOL    HW223454  10.186   0.402   1.970
73853SOL     OW23455  12.203   5.349   7.384
73853SOL    HW123456  12.202   5.273   7.326
73853SOL    HW223457  12.295   5.377   7.386
73854SOL     OW23458   7.922   4.963  13.438
73854SOL    HW123459   7.972   5.035  13.476
73854SOL    HW223460   7.879   4.922  13.514
73855SOL     OW23461  12.892   9.420  14.867
73855SOL    HW123462  12.961   9.478  14.835
73855SOL    HW223463  12.821   9.431  14.805
73856SOL     OW23464   1.171   7.136   5.535
73856SOL    HW123465   1.120   7.196   5.590
73856SOL    HW223466   1.241   7.191   5.499
73857SOL     OW23467  12.448   2.419  10.154
73857SOL    HW123468  12.498   2.338  10.154
73857SOL    HW223469  12.369   2.399  10.104
73858SOL     OW23470  14.688  14.643  10.763
73858SOL    HW123471  14.620  14.579  10.744
73858SOL    HW223472  14.761  14.618  10.706
73859SOL     OW23473   0.405  11.287   1.739
73859SOL    HW123474   0.425  11.246   1.824
73859SOL    HW223475   0.459  11.238   1.676
73860SOL     OW23476   4.157  12.321   0.549
73860SOL    HW123477   4.227  12.269   0.508
73860SOL    HW223478   4.077  12.292   0.505
73861SOL     OW23479   4.624  11.430  11.719
73861SOL    HW123480   4.635  11.505  11.660
73861SOL    HW223481   4.539  11.393  11.696
73862SOL     OW23482   7.041   6.331   8.426
73862SOL    HW123483   6.974   6.347   8.359
73862SOL    HW223484   7.120   6.309   8.376
73863SOL     OW23485   2.147   3.817   2.599
73863SOL    HW123486   2.172   3.867   2.522
73863SOL    HW223487   2.139   3.882   2.669
73864SOL     OW23488   9.737  11.300  13.764
73864SOL    HW123489   9.802  11.333  13.828
73864SOL    HW223490   9.684  11.377  13.743
73865SOL     OW23491  14.659   7.712   7.356
73865SOL    HW123492  14.740   7.699   7.305
73865SOL    HW223493  14.686   7.699   7.447
73866SOL     OW23494  12.377  11.179   1.594
73866SOL    HW123495  12.392  11.105   1.535
73866SOL    HW223496  12.464  11.220   1.603
73867SOL     OW23497   1.303   5.918  10.617
73867SOL    HW123498   1.284   5.881  10.703
73867SOL    HW223499   1.296   5.844  10.557
73868SOL     OW23500   5.127   3.088  13.631
73868SOL    HW123501   5.200   3.126  13.583
73868SOL    HW223502   5.090   3.161  13.681
73869SOL     OW23503   7.979  14.413   3.621
73869SOL    HW123504   7.895  14.392   3.660
73869SOL    HW223505   8.025  14.329   3.616
73870SOL     OW23506   2.032  14.322   3.512
73870SOL    HW123507   2.035  14.418   3.518
73870SOL    HW223508   1.945  14.304   3.477
73871SOL     OW23509   5.620   5.180   6.073
73871SOL    HW123510   5.542   5.124   6.075
73871SOL    HW223511   5.597   5.255   6.128
73872SOL     OW23512  12.912  11.453   3.143
73872SOL    HW123513  12.870  11.402   3.073
73872SOL    HW223514  12.840  11.497   3.187
73873SOL     OW23515  10.748   3.698  10.800
73873SOL    HW123516  10.752   3.670  10.708
73873SOL    HW223517  10.836   3.681  10.834
73874SOL     OW23518   5.561   1.715   3.881
73874SOL    HW123519   5.633   1.654   3.898
73874SOL    HW223520   5.582   1.755   3.797
73875SOL     OW23521  11.079  11.986  10.355
73875SOL    HW123522  10.985  11.970  10.365
73875SOL    HW223523  11.120  11.907  10.391
73876SOL     OW23524   5.962   9.480   0.245
73876SOL    HW123525   6.033   9.539   0.269
73876SOL    HW223526   5.890   9.538   0.221
73877SOL     OW23527   3.532  13.603   1.936
73877SOL    HW123528   3.445  13.567   1.915
73877SOL    HW223529   3.522  13.640   2.024
73878SOL     OW23530   2.292   4.893   2.974
73878SOL    HW123531   2.356   4.962   2.956
73878SOL    HW223532   2.345   4.821   3.008
73879SOL     OW23533  12.137   5.945   7.446
73879SOL    HW123534  12.118   6.036   7.468
73879SOL    HW223535  12.178   5.910   7.526
73880SOL     OW23536   3.994  13.076   5.153
73880SOL    HW123537   3.928  13.144   5.143
73880SOL    HW223538   3.952  12.997   5.119
73881SOL     OW23539  11.029   2.964  14.692
73881SOL    HW123540  11.103   2.940  14.747
73881SOL    HW223541  10.963   2.996  14.753
73882SOL     OW23542   5.221  10.755   0.862
73882SOL    HW123543   5.238  10.804   0.943
73882SOL    HW223544   5.158  10.688   0.888
73883SOL     OW23545  13.972   5.045  11.312
73883SOL    HW123546  14.057   5.004  11.328
73883SOL    HW223547  13.956   5.033  11.218
73884SOL     OW23548   1.353  11.886   8.956
73884SOL    HW123549   1.296  11.953   8.920
73884SOL    HW223550   1.295  11.831   9.009
73885SOL     OW23551   4.784  11.455   4.599
73885SOL    HW123552   4.750  11.543   4.619
73885SOL    HW223553   4.845  11.437   4.671
73886SOL     OW23554  10.977   7.540   9.370
73886SOL    HW123555  10.981   7.635   9.381
73886SOL    HW223556  10.884   7.518   9.382
73887SOL     OW23557  12.386  10.928  12.207
73887SOL    HW123558  12.297  10.923  12.240
73887SOL    HW223559  12.428  10.997  12.259
73888SOL     OW23560  12.359   8.946   3.544
73888SOL    HW123561  12.345   8.911   3.456
73888SOL    HW223562  12.335   8.875   3.603
73889SOL     OW23563   9.669   3.867  10.718
73889SOL    HW123564   9.677   3.896  10.627
73889SOL    HW223565   9.575   3.871  10.736
73890SOL     OW23566  12.584   9.278   9.613
73890SOL    HW123567  12.520   9.223   9.568
73890SOL    HW223568  12.663   9.224   9.617
73891SOL     OW23569   5.519   8.352   2.898
73891SOL    HW123570   5.597   8.374   2.950
73891SOL    HW223571   5.451   8.410   2.932
73892SOL     OW23572   3.593   9.907   7.637
73892SOL    HW123573   3.553   9.983   7.596
73892SOL    HW223574   3.574   9.917   7.731
73893SOL     OW23575  13.081   2.389   1.526
73893SOL    HW123576  13.019   2.317   1.536
73893SOL    HW223577  13.145   2.357   1.463
73894SOL     OW23578   7.461  12.044   8.969
73894SOL    HW123579   7.468  11.999   9.053
73894SOL    HW223580   7.477  12.136   8.991
73895SOL     OW23581  12.435  12.249   1.243
73895SOL    HW123582  12.394  12.319   1.193
73895SOL    HW223583  12.362  12.202   1.284
73896SOL     OW23584   1.091   9.711   7.949
73896SOL    HW123585   1.098   9.788   7.894
73896SOL    HW223586   1.133   9.736   8.031
73897SOL     OW23587  14.565   7.513   4.064
73897SOL    HW123588  14.594   7.465   3.986
73897SOL    HW223589  14.639   7.505   4.125
73898SOL     OW23590   5.467  12.591   2.785
73898SOL    HW123591   5.508  12.512   2.821
73898SOL    HW223592   5.510  12.663   2.830
73899SOL     OW23593   3.608   3.977   9.139
73899SOL    HW123594   3.579   4.058   9.180
73899SOL    HW223595   3.572   3.981   9.050
73900SOL     OW23596  11.807  12.849   9.439
73900SOL    HW123597  11.866  12.790   9.485
73900SOL    HW223598  11.723  12.803   9.438
73901SOL     OW23599  10.826  11.125   1.087
73901SOL    HW123600  10.778  11.045   1.112
73901SOL    HW223601  10.811  11.132   0.993
73902SOL     OW23602   2.726   1.122   1.446
73902SOL    HW123603   2.641   1.084   1.468
73902SOL    HW223604   2.718   1.214   1.472
73903SOL     OW23605   5.745   4.472   6.065
73903SOL    HW123606   5.671   4.518   6.026
73903SOL    HW223607   5.705   4.403   6.118
73904SOL     OW23608   7.340   0.745   9.977
73904SOL    HW123609   7.261   0.800   9.976
73904SOL    HW223610   7.316   0.670  10.032
73905SOL     OW23611   4.989  10.658  12.185
73905SOL    HW123612   5.064  10.689  12.135
73905SOL    HW223613   4.913  10.693  12.138
73906SOL     OW23614  11.905   8.778   3.522
73906SOL    HW123615  11.931   8.864   3.555
73906SOL    HW223616  11.870   8.733   3.599
73907SOL     OW23617   9.136  12.289   2.489
73907SOL    HW123618   9.110  12.266   2.578
73907SOL    HW223619   9.230  12.269   2.486
73908SOL     OW23620  13.777   9.617  14.784
73908SOL    HW123621  13.785   9.530  14.822
73908SOL    HW223622  13.866   9.640  14.755
73909SOL     OW23623   3.085   5.166  12.737
73909SOL    HW123624   3.095   5.186  12.830
73909SOL    HW223625   2.990   5.170  12.722
73910SOL     OW23626   8.545   4.952   4.971
73910SOL    HW123627   8.564   5.031   5.022
73910SOL    HW223628   8.535   4.883   5.037
73911SOL     OW23629   6.987  10.002   9.702
73911SOL    HW123630   7.063  10.025   9.757
73911SOL    HW223631   7.004  10.047   9.619
73912SOL     OW23632   2.635   2.415   9.939
73912SOL    HW123633   2.664   2.371  10.018
73912SOL    HW223634   2.598   2.498   9.970
73913SOL     OW23635   5.314  12.640   8.710
73913SOL    HW123636   5.328  12.734   8.714
73913SOL    HW223637   5.223  12.630   8.683
73914SOL     OW23638   2.112   5.618  13.206
73914SOL    HW123639   2.138   5.697  13.254
73914SOL    HW223640   2.032   5.588  13.250
73915SOL     OW23641   0.599  13.380  11.924
73915SOL    HW123642   0.602  13.285  11.933
73915SOL    HW223643   0.667  13.412  11.983
73916SOL     OW23644  10.568  13.973  13.769
73916SOL    HW123645  10.629  13.903  13.790
73916SOL    HW223646  10.510  13.979  13.845
73917SOL     OW23647   9.656   0.999  11.405
73917SOL    HW123648   9.741   1.027  11.370
73917SOL    HW223649   9.675   0.916  11.449
73918SOL     OW23650   5.971   1.641  10.801
73918SOL    HW123651   5.890   1.590  10.811
73918SOL    HW223652   6.018   1.597  10.730
73919SOL     OW23653  14.051  12.389  13.671
73919SOL    HW123654  14.075  12.318  13.731
73919SOL    HW223655  14.106  12.463  13.697
73920SOL     OW23656   2.864   4.337  13.359
73920SOL    HW123657   2.778   4.341  13.402
73920SOL    HW223658   2.925   4.318  13.431
73921SOL     OW23659  13.403  13.467   3.661
73921SOL    HW123660  13.452  13.420   3.728
73921SOL    HW223661  13.312  13.438   3.673
73922SOL     OW23662   5.397   6.635   2.987
73922SOL    HW123663   5.434   6.709   3.035
73922SOL    HW223664   5.340   6.675   2.922
73923SOL     OW23665   2.568   4.060  14.220
73923SOL    HW123666   2.527   3.977  14.195
73923SOL    HW223667   2.502   4.105  14.273
73924SOL     OW23668   6.305   5.767   5.226
73924SOL    HW123669   6.369   5.830   5.194
73924SOL    HW223670   6.285   5.712   5.150
73925SOL     OW23671   1.923   4.195  10.560
73925SOL    HW123672   1.893   4.150  10.639
73925SOL    HW223673   1.900   4.136  10.489
73926SOL     OW23674   4.653  14.366   1.938
73926SOL    HW123675   4.622  14.283   1.975
73926SOL    HW223676   4.596  14.380   1.862
73927SOL     OW23677  13.227  12.990  11.092
73927SOL    HW123678  13.193  12.953  11.174
73927SOL    HW223679  13.158  12.976  11.028
73928SOL     OW23680  10.769   9.164   3.019
73928SOL    HW123681  10.841   9.221   2.994
73928SOL    HW223682  10.771   9.094   2.954
73929SOL     OW23683   5.330  10.426   6.969
73929SOL    HW123684   5.338  10.484   7.045
73929SOL    HW223685   5.266  10.470   6.913
73930SOL     OW23686   5.271   2.809  10.623
73930SOL    HW123687   5.268   2.898  10.589
73930SOL    HW223688   5.339   2.766  10.572
73931SOL     OW23689   7.848   5.923  13.161
73931SOL    HW123690   7.772   5.977  13.183
73931SOL    HW223691   7.811   5.848  13.113
73932SOL     OW23692   3.736   3.240   7.625
73932SOL    HW123693   3.717   3.328   7.657
73932SOL    HW223694   3.783   3.254   7.543
73933SOL     OW23695   5.405  11.512   6.884
73933SOL    HW123696   5.392  11.605   6.866
73933SOL    HW223697   5.483  11.488   6.833
73934SOL     OW23698   9.527  14.668   9.748
73934SOL    HW123699   9.588  14.738   9.771
73934SOL    HW223700   9.557  14.593   9.800
73935SOL     OW23701   3.300   9.821   2.015
73935SOL    HW123702   3.210   9.791   2.004
73935SOL    HW223703   3.353   9.754   1.972
73936SOL     OW23704   4.194  11.147  10.111
73936SOL    HW123705   4.125  11.202  10.148
73936SOL    HW223706   4.236  11.203  10.045
73937SOL     OW23707  14.779   9.209  10.469
73937SOL    HW123708  14.767   9.304  10.457
73937SOL    HW223709  14.847   9.202  10.536
73938SOL     OW23710   5.841   6.494  12.147
73938SOL    HW123711   5.792   6.571  12.117
73938SOL    HW223712   5.882   6.460  12.068
73939SOL     OW23713   7.987  12.757   6.947
73939SOL    HW123714   8.046  12.816   6.900
73939SOL    HW223715   7.901  12.775   6.909
73940SOL     OW23716   5.200   7.057  11.552
73940SOL    HW123717   5.232   6.980  11.505
73940SOL    HW223718   5.173   7.024  11.637
73941SOL     OW23719   2.082   8.476   1.668
73941SOL    HW123720   2.136   8.505   1.594
73941SOL    HW223721   2.061   8.557   1.715
73942SOL     OW23722   9.599  11.226  12.017
73942SOL    HW123723   9.667  11.234  12.085
73942SOL    HW223724   9.535  11.167  12.055
73943SOL     OW23725  12.218   9.841   5.756
73943SOL    HW123726  12.127   9.814   5.766
73943SOL    HW223727  12.215   9.936   5.754
73944SOL     OW23728   5.968   6.635   7.847
73944SOL    HW123729   6.019   6.705   7.886
73944SOL    HW223730   5.905   6.610   7.914
73945SOL     OW23731   2.464  13.395  11.527
73945SOL    HW123732   2.547  13.369  11.487
73945SOL    HW223733   2.473  13.489  11.542
73946SOL     OW23734   8.556  11.080   4.612
73946SOL    HW123735   8.467  11.103   4.639
73946SOL    HW223736   8.544  11.016   4.541
73947SOL     OW23737  13.911  12.266   4.719
73947SOL    HW123738  13.938  12.247   4.808
73947SOL    HW223739  13.847  12.337   4.728
73948SOL     OW23740  10.477  14.085   2.692
73948SOL    HW123741  10.391  14.125   2.708
73948SOL    HW223742  10.488  14.022   2.764
73949SOL     OW23743   0.035  12.505   6.642
73949SOL    HW123744  14.865  12.580   6.686
73949SOL    HW223745   0.129  12.516   6.655
73950SOL     OW23746   5.562   7.649   9.383
73950SOL    HW123747   5.625   7.654   9.454
73950SOL    HW223748   5.603   7.695   9.310
73951SOL     OW23749   5.641   0.007   5.627
73951SOL    HW123750   5.682  14.791   5.638
73951SOL    HW223751   5.675   0.059   5.699
73952SOL     OW23752  14.263  13.799  12.785
73952SOL    HW123753  14.227  13.713  12.804
73952SOL    HW223754  14.245  13.813  12.692
73953SOL     OW23755   1.023   0.928   7.542
73953SOL    HW123756   0.975   0.894   7.467
73953SOL    HW223757   1.017   1.023   7.533
73954SOL     OW23758   4.940   8.786   1.196
73954SOL    HW123759   4.912   8.877   1.203
73954SOL    HW223760   5.026   8.784   1.237
73955SOL     OW23761   6.139   0.484   7.753
73955SOL    HW123762   6.219   0.433   7.738
73955SOL    HW223763   6.148   0.517   7.842
73956SOL     OW23764   4.376   1.067   0.631
73956SOL    HW123765   4.432   1.145   0.633
73956SOL    HW223766   4.347   1.056   0.721
73957SOL     OW23767   4.662   7.375  11.967
73957SOL    HW123768   4.694   7.321  11.895
73957SOL    HW223769   4.570   7.390  11.948
73958SOL     OW23770   5.950   1.061   9.544
73958SOL    HW123771   6.011   1.058   9.471
73958SOL    HW223772   5.924   1.153   9.550
73959SOL     OW23773   8.418  13.115   1.070
73959SOL    HW123774   8.375  13.169   1.004
73959SOL    HW223775   8.349  13.055   1.100
73960SOL     OW23776   5.666   2.432   5.347
73960SOL    HW123777   5.657   2.345   5.387
73960SOL    HW223778   5.588   2.441   5.292
73961SOL     OW23779   4.294   8.305   1.763
73961SOL    HW123780   4.385   8.315   1.791
73961SOL    HW223781   4.299   8.280   1.671
73962SOL     OW23782   2.583   8.730   6.071
73962SOL    HW123783   2.535   8.808   6.043
73962SOL    HW223784   2.661   8.764   6.114
73963SOL     OW23785   5.940  14.691   6.633
73963SOL    HW123786   5.935  14.597   6.651
73963SOL    HW223787   6.034  14.710   6.631
73964SOL     OW23788   6.895   8.711  12.396
73964SOL    HW123789   6.835   8.706  12.322
73964SOL    HW223790   6.907   8.805  12.410
73965SOL     OW23791  14.807   4.897   8.976
73965SOL    HW123792   0.008   4.873   9.036
73965SOL    HW223793  14.727   4.868   9.020
73966SOL     OW23794  12.702   8.167   6.876
73966SOL    HW123795  12.778   8.115   6.901
73966SOL    HW223796  12.739   8.244   6.832
73967SOL     OW23797   9.415  13.383   7.507
73967SOL    HW123798   9.336  13.431   7.483
73967SOL    HW223799   9.483  13.418   7.449
73968SOL     OW23800  10.150   5.875  11.335
73968SOL    HW123801  10.100   5.910  11.260
73968SOL    HW223802  10.086   5.822  11.383
73969SOL     OW23803   3.417  12.647   3.451
73969SOL    HW123804   3.512  12.657   3.444
73969SOL    HW223805   3.383  12.692   3.373
73970SOL     OW23806   0.504   9.446  11.921
73970SOL    HW123807   0.523   9.354  11.898
73970SOL    HW223808   0.587   9.479  11.956
73971SOL     OW23809  10.950   6.555   2.759
73971SOL    HW123810  10.912   6.573   2.673
73971SOL    HW223811  10.926   6.631   2.812
73972SOL     OW23812  11.380  10.615   2.132
73972SOL    HW123813  11.472  10.642   2.137
73972SOL    HW223814  11.382  10.528   2.091
73973SOL     OW23815   4.820   7.018  14.359
73973SOL    HW123816   4.897   7.056  14.403
73973SOL    HW223817   4.766   6.985  14.430
73974SOL     OW23818   6.266   7.673  12.329
73974SOL    HW123819   6.319   7.624  12.268
73974SOL    HW223820   6.255   7.759  12.288
73975SOL     OW23821   5.159  13.007  14.275
73975SOL    HW123822   5.221  12.941  14.246
73975SOL    HW223823   5.188  13.031  14.363
73976SOL     OW23824   0.736  14.666   7.545
73976SOL    HW123825   0.693  14.587   7.512
73976SOL    HW223826   0.828  14.654   7.523
73977SOL     OW23827   0.706   8.083  12.441
73977SOL    HW123828   0.774   8.072  12.376
73977SOL    HW223829   0.628   8.106  12.390
73978SOL     OW23830   0.310   1.263   2.817
73978SOL    HW123831   0.275   1.187   2.863
73978SOL    HW223832   0.355   1.313   2.885
73979SOL     OW23833  11.110  10.074   3.644
73979SOL    HW123834  11.044  10.141   3.627
73979SOL    HW223835  11.184  10.122   3.680
73980SOL     OW23836   5.553   8.870  11.306
73980SOL    HW123837   5.568   8.834  11.219
73980SOL    HW223838   5.465   8.907  11.303
73981SOL     OW23839   5.083   8.405   2.517
73981SOL    HW123840   5.135   8.356   2.580
73981SOL    HW223841   4.993   8.378   2.534
73982SOL     OW23842   0.414   5.615   3.337
73982SOL    HW123843   0.466   5.543   3.300
73982SOL    HW223844   0.344   5.629   3.274
73983SOL     OW23845   9.729   5.654   3.334
73983SOL    HW123846   9.769   5.670   3.419
73983SOL    HW223847   9.687   5.737   3.311
73984SOL     OW23848   5.386   0.030  10.084
73984SOL    HW123849   5.425  14.820  10.049
73984SOL    HW223850   5.342   0.003  10.165
73985SOL     OW23851  11.455   3.182  10.166
73985SOL    HW123852  11.408   3.252  10.212
73985SOL    HW223853  11.497   3.226  10.093
73986SOL     OW23854   2.312  14.412   8.225
73986SOL    HW123855   2.308  14.469   8.149
73986SOL    HW223856   2.394  14.436   8.269
73987SOL     OW23857  12.331   7.492  14.308
73987SOL    HW123858  12.326   7.576  14.353
73987SOL    HW223859  12.279   7.432  14.362
73988SOL     OW23860  14.810  13.084   0.823
73988SOL    HW123861  14.803  13.127   0.738
73988SOL    HW223862  14.787  13.151   0.887
73989SOL     OW23863   4.947  10.635  12.680
73989SOL    HW123864   4.926  10.669  12.593
73989SOL    HW223865   4.968  10.543  12.666
73990SOL     OW23866   3.757   6.214   4.769
73990SOL    HW123867   3.745   6.163   4.689
73990SOL    HW223868   3.751   6.150   4.840
73991SOL     OW23869  13.478   5.719  12.332
73991SOL    HW123870  13.538   5.698  12.261
73991SOL    HW223871  13.477   5.814  12.336
73992SOL     OW23872   4.362   5.152   0.237
73992SOL    HW123873   4.293   5.218   0.241
73992SOL    HW223874   4.435   5.196   0.194
73993SOL     OW23875  12.742   6.469   6.201
73993SOL    HW123876  12.812   6.456   6.264
73993SOL    HW223877  12.747   6.393   6.143
73994SOL     OW23878   2.459   5.712   9.849
73994SOL    HW123879   2.387   5.689   9.791
73994SOL    HW223880   2.532   5.658   9.820
73995SOL     OW23881   1.152   6.944   3.285
73995SOL    HW123882   1.066   6.919   3.319
73995SOL    HW223883   1.188   7.004   3.351
73996SOL     OW23884  11.026   4.942   2.624
73996SOL    HW123885  10.965   4.897   2.565
73996SOL    HW223886  10.974   5.014   2.661
73997SOL     OW23887  11.445   2.601  13.401
73997SOL    HW123888  11.529   2.639  13.375
73997SOL    HW223889  11.416   2.552  13.325
73998SOL     OW23890  11.452   4.176   5.265
73998SOL    HW123891  11.399   4.107   5.302
73998SOL    HW223892  11.511   4.131   5.203
73999SOL     OW23893  13.489   6.790  13.608
73999SOL    HW123894  13.415   6.781  13.668
73999SOL    HW223895  13.512   6.700  13.584
74000SOL     OW23896   3.282   9.549   7.331
74000SOL    HW123897   3.228   9.615   7.287
74000SOL    HW223898   3.263   9.467   7.285
74001SOL     OW23899  12.707   6.692  10.922
74001SOL    HW123900  12.652   6.733  10.855
74001SOL    HW223901  12.741   6.766  10.973
74002SOL     OW23902  12.447   1.173   5.912
74002SOL    HW123903  12.370   1.151   5.965
74002SOL    HW223904  12.504   1.222   5.972
74003SOL     OW23905   4.178  13.391   6.219
74003SOL    HW123906   4.219  13.471   6.251
74003SOL    HW223907   4.121  13.363   6.291
74004SOL     OW23908   4.161   1.247   1.454
74004SOL    HW123909   4.224   1.177   1.440
74004SOL    HW223910   4.214   1.327   1.450
74005SOL     OW23911   3.812   9.400   0.859
74005SOL    HW123912   3.718   9.392   0.840
74005SOL    HW223913   3.841   9.473   0.804
74006SOL     OW23914   4.420   5.601  12.074
74006SOL    HW123915   4.516   5.596  12.076
74006SOL    HW223916   4.400   5.693  12.091
74007SOL     OW23917  11.857   3.231   0.167
74007SOL    HW123918  11.861   3.136   0.163
74007SOL    HW223919  11.781   3.250   0.221
74008SOL     OW23920  14.345  11.078  12.443
74008SOL    HW123921  14.317  11.147  12.384
74008SOL    HW223922  14.430  11.107  12.476
74009SOL     OW23923   7.291  11.209   4.153
74009SOL    HW123924   7.214  11.263   4.172
74009SOL    HW223925   7.260  11.119   4.163
74010SOL     OW23926  10.869  14.350  10.070
74010SOL    HW123927  10.927  14.292  10.119
74010SOL    HW223928  10.864  14.429  10.124
74011SOL     OW23929   3.254   8.052   3.762
74011SOL    HW123930   3.206   7.976   3.729
74011SOL    HW223931   3.281   8.099   3.683
74012SOL     OW23932   5.243   4.805  13.986
74012SOL    HW123933   5.275   4.746  13.918
74012SOL    HW223934   5.322   4.835  14.031
74013SOL     OW23935   6.767   7.864  11.764
74013SOL    HW123936   6.810   7.802  11.824
74013SOL    HW223937   6.674   7.847  11.775
74014SOL     OW23938   9.734  10.199   8.748
74014SOL    HW123939   9.701  10.288   8.758
74014SOL    HW223940   9.682  10.161   8.676
74015SOL     OW23941   1.285   9.208   0.226
74015SOL    HW123942   1.291   9.202   0.322
74015SOL    HW223943   1.327   9.128   0.195
74016SOL     OW23944  11.742   6.763   5.936
74016SOL    HW123945  11.782   6.742   5.852
74016SOL    HW223946  11.761   6.687   5.991
74017SOL     OW23947  10.418  12.067   5.388
74017SOL    HW123948  10.463  12.059   5.472
74017SOL    HW223949  10.357  11.993   5.386
74018SOL     OW23950  12.053   1.921   6.708
74018SOL    HW123951  12.000   1.955   6.780
74018SOL    HW223952  12.019   1.964   6.630
74019SOL     OW23953   2.530   8.372  14.773
74019SOL    HW123954   2.580   8.401  14.696
74019SOL    HW223955   2.597   8.344  14.835
74020SOL     OW23956  11.521   6.661   8.166
74020SOL    HW123957  11.493   6.648   8.076
74020SOL    HW223958  11.441   6.648   8.218
74021SOL     OW23959   5.552  12.943   8.248
74021SOL    HW123960   5.648  12.936   8.251
74021SOL    HW223961   5.521  12.852   8.253
74022SOL     OW23962  14.614  11.270  14.060
74022SOL    HW123963  14.595  11.347  14.007
74022SOL    HW223964  14.644  11.204  13.997
74023SOL     OW23965  14.637   9.941  12.992
74023SOL    HW123966  14.636   9.847  13.009
74023SOL    HW223967  14.726   9.960  12.965
74024SOL     OW23968  10.038  13.535  13.996
74024SOL    HW123969  10.083  13.452  14.007
74024SOL    HW223970  10.049  13.580  14.080
74025SOL     OW23971  13.737   8.392   6.480
74025SOL    HW123972  13.674   8.427   6.543
74025SOL    HW223973  13.711   8.300   6.470
74026SOL     OW23974   5.375   8.759  13.392
74026SOL    HW123975   5.428   8.780  13.315
74026SOL    HW223976   5.438   8.722  13.455
74027SOL     OW23977   2.483  13.077  11.024
74027SOL    HW123978   2.511  13.050  10.937
74027SOL    HW223979   2.390  13.054  11.027
74028SOL     OW23980   6.180  13.428  13.899
74028SOL    HW123981   6.216  13.494  13.958
74028SOL    HW223982   6.086  13.449  13.894
74029SOL     OW23983   7.786   7.849  12.969
74029SOL    HW123984   7.761   7.776  12.913
74029SOL    HW223985   7.864   7.819  13.015
74030SOL     OW23986  14.673  10.169   6.648
74030SOL    HW123987  14.762  10.134   6.649
74030SOL    HW223988  14.684  10.261   6.624
74031SOL     OW23989  14.499   5.006  11.219
74031SOL    HW123990  14.550   5.031  11.142
74031SOL    HW223991  14.420   5.061  11.215
74032SOL     OW23992  10.534   8.393  11.561
74032SOL    HW123993  10.456   8.400  11.507
74032SOL    HW223994  10.598   8.449  11.517
74033SOL     OW23995   6.429   5.368   1.443
74033SOL    HW123996   6.493   5.423   1.399
74033SOL    HW223997   6.347   5.418   1.439
74034SOL     OW23998   2.972   8.585   4.676
74034SOL    HW123999   3.056   8.581   4.721
74034SOL    HW224000   2.988   8.642   4.600
74035SOL     OW24001   6.435   7.866   0.063
74035SOL    HW124002   6.511   7.883   0.118
74035SOL    HW224003   6.380   7.808   0.115
74036SOL     OW24004  14.831   5.459   9.182
74036SOL    HW124005   0.050   5.483   9.209
74036SOL    HW224006  14.774   5.521   9.228
74037SOL     OW24007  10.920   0.864   3.785
74037SOL    HW124008  10.954   0.775   3.775
74037SOL    HW224009  10.913   0.876   3.880
74038SOL     OW24010  12.252  14.154  12.834
74038SOL    HW124011  12.330  14.142  12.780
74038SOL    HW224012  12.219  14.065  12.849
74039SOL     OW24013   7.646   5.519   4.555
74039SOL    HW124014   7.720   5.459   4.564
74039SOL    HW224015   7.611   5.527   4.644
74040SOL     OW24016   3.933  11.943  13.071
74040SOL    HW124017   3.945  11.881  13.143
74040SOL    HW224018   3.927  11.889  12.993
74041SOL     OW24019   3.853  13.945   6.529
74041SOL    HW124020   3.862  14.037   6.502
74041SOL    HW224021   3.934  13.904   6.499
74042SOL     OW24022   6.929   2.322   1.249
74042SOL    HW124023   6.949   2.262   1.321
74042SOL    HW224024   6.885   2.396   1.292
74043SOL     OW24025  14.261  10.652   5.573
74043SOL    HW124026  14.324  10.683   5.638
74043SOL    HW224027  14.192  10.719   5.571
74044SOL     OW24028   9.293  13.855   2.262
74044SOL    HW124029   9.211  13.825   2.224
74044SOL    HW224030   9.292  13.950   2.250
74045SOL     OW24031  11.753  13.006   4.976
74045SOL    HW124032  11.698  12.978   5.048
74045SOL    HW224033  11.811  13.072   5.014
74046SOL     OW24034  10.846   4.888   1.598
74046SOL    HW124035  10.868   4.821   1.663
74046SOL    HW224036  10.750   4.889   1.595
74047SOL     OW24037  11.313   5.137   7.464
74047SOL    HW124038  11.337   5.202   7.398
74047SOL    HW224039  11.236   5.174   7.507
74048SOL     OW24040   1.720   9.739  10.181
74048SOL    HW124041   1.642   9.689  10.204
74048SOL    HW224042   1.735   9.796  10.256
74049SOL     OW24043   9.596   2.254   6.522
74049SOL    HW124044   9.622   2.303   6.600
74049SOL    HW224045   9.679   2.238   6.476
74050SOL     OW24046   7.529   7.524  10.739
74050SOL    HW124047   7.559   7.450  10.792
74050SOL    HW224048   7.496   7.587  10.804
74051SOL     OW24049   4.661   3.251   0.589
74051SOL    HW124050   4.742   3.292   0.618
74051SOL    HW224051   4.602   3.324   0.569
74052SOL     OW24052   7.748   4.644  10.594
74052SOL    HW124053   7.780   4.730  10.567
74052SOL    HW224054   7.815   4.582  10.565
74053SOL     OW24055   5.406  10.744   2.372
74053SOL    HW124056   5.444  10.744   2.285
74053SOL    HW224057   5.434  10.661   2.411
74054SOL     OW24058   2.058  14.145   6.330
74054SOL    HW124059   2.049  14.171   6.238
74054SOL    HW224060   2.123  14.206   6.365
74055SOL     OW24061   0.918   4.589   5.174
74055SOL    HW124062   0.946   4.534   5.248
74055SOL    HW224063   0.868   4.660   5.214
74056SOL     OW24064  10.622   9.051   3.428
74056SOL    HW124065  10.672   9.133   3.430
74056SOL    HW224066  10.553   9.066   3.363
74057SOL     OW24067  14.665  10.942   7.564
74057SOL    HW124068  14.695  10.855   7.590
74057SOL    HW224069  14.740  10.999   7.579
74058SOL     OW24070   5.863   4.462   3.666
74058SOL    HW124071   5.935   4.524   3.678
74058SOL    HW224072   5.792   4.497   3.720
74059SOL     OW24073   9.079  13.411   0.204
74059SOL    HW124074   9.021  13.340   0.232
74059SOL    HW224075   9.045  13.438   0.118
74060SOL     OW24076  12.017   7.751  14.844
74060SOL    HW124077  12.084   7.803   0.018
74060SOL    HW224078  12.031   7.767  14.750
74061SOL     OW24079  11.409   6.682   4.599
74061SOL    HW124080  11.334   6.637   4.637
74061SOL    HW224081  11.453   6.616   4.546
74062SOL     OW24082  11.493   9.927   6.207
74062SOL    HW124083  11.450   9.894   6.286
74062SOL    HW224084  11.531   9.848   6.166
74063SOL     OW24085  12.879  14.004   8.931
74063SOL    HW124086  12.800  13.997   8.985
74063SOL    HW224087  12.948  13.965   8.985
74064SOL     OW24088  14.698  14.262  14.210
74064SOL    HW124089  14.741  14.343  14.182
74064SOL    HW224090  14.763  14.219  14.265
74065SOL     OW24091   3.411  14.697   5.456
74065SOL    HW124092   3.392  14.778   5.409
74065SOL    HW224093   3.348  14.634   5.423
74066SOL     OW24094   1.603   5.182   5.441
74066SOL    HW124095   1.612   5.276   5.430
74066SOL    HW224096   1.689   5.146   5.418
74067SOL     OW24097   0.179  10.993   7.382
74067SOL    HW124098   0.267  10.969   7.411
74067SOL    HW224099   0.127  10.993   7.462
74068SOL     OW24100  11.333   9.643   4.441
74068SOL    HW124101  11.333   9.553   4.406
74068SOL    HW224102  11.413   9.682   4.407
74069SOL     OW24103   0.747  11.308   4.352
74069SOL    HW124104   0.777  11.283   4.439
74069SOL    HW224105   0.721  11.225   4.311
74070SOL     OW24106   9.074   7.303  14.182
74070SOL    HW124107   9.002   7.348  14.138
74070SOL    HW224108   9.122   7.372  14.227
74071SOL     OW24109   7.948  10.189   4.892
74071SOL    HW124110   7.857  10.202   4.867
74071SOL    HW224111   7.960  10.244   4.970
74072SOL     OW24112   0.146   6.557  10.050
74072SOL    HW124113   0.115   6.616  10.119
74072SOL    HW224114   0.068   6.509  10.022
74073SOL     OW24115   6.199   4.949  11.077
74073SOL    HW124116   6.189   4.901  10.995
74073SOL    HW224117   6.109   4.966  11.106
74074SOL     OW24118  13.159   1.902   9.789
74074SOL    HW124119  13.092   1.970   9.794
74074SOL    HW224120  13.109   1.820   9.787
74075SOL     OW24121   3.311   5.529   1.258
74075SOL    HW124122   3.305   5.533   1.354
74075SOL    HW224123   3.225   5.555   1.227
74076SOL     OW24124   0.597  14.331   6.703
74076SOL    HW124125   0.692  14.338   6.714
74076SOL    HW224126   0.584  14.246   6.660
74077SOL     OW24127   4.246   1.736   6.368
74077SOL    HW124128   4.222   1.785   6.447
74077SOL    HW224129   4.314   1.788   6.327
74078SOL     OW24130   8.623   1.609   9.750
74078SOL    HW124131   8.579   1.534   9.709
74078SOL    HW224132   8.551   1.666   9.778
74079SOL     OW24133   1.768   1.606   2.041
74079SOL    HW124134   1.773   1.523   1.994
74079SOL    HW224135   1.850   1.610   2.090
74080SOL     OW24136  11.978  13.552  12.550
74080SOL    HW124137  11.904  13.528  12.494
74080SOL    HW224138  11.944  13.545  12.639
74081SOL     OW24139   4.710   2.622   4.577
74081SOL    HW124140   4.799   2.595   4.602
74081SOL    HW224141   4.703   2.712   4.610
74082SOL     OW24142   6.371   8.556   8.753
74082SOL    HW124143   6.299   8.572   8.813
74082SOL    HW224144   6.338   8.584   8.668
74083SOL     OW24145   4.516   3.983  10.390
74083SOL    HW124146   4.610   3.995  10.409
74083SOL    HW224147   4.506   4.010  10.299
74084SOL     OW24148  12.765  14.572   7.770
74084SOL    HW124149  12.780  14.485   7.732
74084SOL    HW224150  12.810  14.570   7.854
74085SOL     OW24151   3.957   4.470   4.978
74085SOL    HW124152   4.033   4.415   4.961
74085SOL    HW224153   3.913   4.428   5.052
74086SOL     OW24154   7.185   6.630   8.159
74086SOL    HW124155   7.150   6.613   8.246
74086SOL    HW224156   7.267   6.676   8.174
74087SOL     OW24157   2.039   1.128  12.163
74087SOL    HW124158   2.048   1.223  12.167
74087SOL    HW224159   1.959   1.109  12.211
74088SOL     OW24160   9.311   4.179   2.276
74088SOL    HW124161   9.395   4.206   2.236
74088SOL    HW224162   9.246   4.195   2.207
74089SOL     OW24163   0.918   0.458   7.872
74089SOL    HW124164   0.990   0.514   7.844
74089SOL    HW224165   0.840   0.499   7.834
74090SOL     OW24166  14.834   0.301  14.849
74090SOL    HW124167   0.030   0.281  14.782
74090SOL    HW224168  14.823   0.219   0.027
74091SOL     OW24169  11.337  11.937  11.809
74091SOL    HW124170  11.384  11.971  11.734
74091SOL    HW224171  11.269  11.880  11.772
74092SOL     OW24172  14.053   6.746   3.205
74092SOL    HW124173  14.059   6.660   3.247
74092SOL    HW224174  14.060   6.808   3.278
74093SOL     OW24175  12.749  11.592  11.572
74093SOL    HW124176  12.830  11.593  11.521
74093SOL    HW224177  12.725  11.684  11.581
74094SOL     OW24178  13.078   4.624   6.483
74094SOL    HW124179  13.148   4.560   6.489
74094SOL    HW224180  13.032   4.618   6.567
74095SOL     OW24181   6.973  10.721   4.090
74095SOL    HW124182   6.883  10.753   4.099
74095SOL    HW224183   6.968  10.628   4.114
74096SOL     OW24184   2.920   5.069   6.924
74096SOL    HW124185   2.996   5.021   6.956
74096SOL    HW224186   2.893   5.122   6.999
74097SOL     OW24187  13.499   4.663   4.186
74097SOL    HW124188  13.424   4.684   4.242
74097SOL    HW224189  13.574   4.699   4.232
74098SOL     OW24190  12.223  11.708   8.600
74098SOL    HW124191  12.211  11.620   8.637
74098SOL    HW224192  12.176  11.766   8.660
74099SOL     OW24193   5.052  14.401  11.338
74099SOL    HW124194   5.007  14.320  11.311
74099SOL    HW224195   5.129  14.370  11.386
74100SOL     OW24196   2.905  13.813  13.593
74100SOL    HW124197   2.926  13.868  13.517
74100SOL    HW224198   2.833  13.757  13.562
74101SOL     OW24199   3.162  14.391   7.529
74101SOL    HW124200   3.121  14.332   7.592
74101SOL    HW224201   3.158  14.343   7.446
74102SOL     OW24202  13.797  14.326   0.670
74102SOL    HW124203  13.779  14.402   0.725
74102SOL    HW224204  13.881  14.345   0.629
74103SOL     OW24205   5.306  11.502   9.803
74103SOL    HW124206   5.259  11.511   9.720
74103SOL    HW224207   5.331  11.410   9.806
74104SOL     OW24208   6.632  11.059   9.859
74104SOL    HW124209   6.551  11.053   9.909
74104SOL    HW224210   6.605  11.051   9.768
74105SOL     OW24211  14.658  11.116  13.839
74105SOL    HW124212  14.651  11.205  13.805
74105SOL    HW224213  14.717  11.072  13.778
74106SOL     OW24214  11.611  11.044   5.034
74106SOL    HW124215  11.649  10.995   4.961
74106SOL    HW224216  11.539  10.989   5.065
74107SOL     OW24217   3.289   9.055   6.969
74107SOL    HW124218   3.322   9.136   6.930
74107SOL    HW224219   3.269   8.999   6.894
74108SOL     OW24220  13.856  14.691  12.665
74108SOL    HW124221  13.835  14.728  12.751
74108SOL    HW224222  13.911  14.757  12.623
74109SOL     OW24223   1.631   6.273   7.045
74109SOL    HW124224   1.543   6.249   7.073
74109SOL    HW224225   1.689   6.240   7.114
74110SOL     OW24226  10.712   2.499  13.383
74110SOL    HW124227  10.645   2.432  13.397
74110SOL    HW224228  10.671   2.580  13.411
74111SOL     OW24229  14.745   0.584   5.339
74111SOL    HW124230  14.761   0.666   5.291
74111SOL    HW224231  14.715   0.613   5.425
74112SOL     OW24232   5.733   3.452   8.102
74112SOL    HW124233   5.687   3.527   8.139
74112SOL    HW224234   5.722   3.461   8.008
74113SOL     OW24235   2.924   1.064   8.015
74113SOL    HW124236   2.927   1.119   8.093
74113SOL    HW224237   2.957   1.121   7.945
74114SOL     OW24238   4.128   7.581  10.975
74114SOL    HW124239   4.083   7.530  11.042
74114SOL    HW224240   4.220   7.578  10.999
74115SOL     OW24241   6.816   7.897   6.702
74115SOL    HW124242   6.817   7.982   6.658
74115SOL    HW224243   6.759   7.910   6.778
74116SOL     OW24244   8.966   1.652   0.147
74116SOL    HW124245   8.991   1.678   0.059
74116SOL    HW224246   8.976   1.557   0.148
74117SOL     OW24247   9.133  14.743  13.510
74117SOL    HW124248   9.104  14.697  13.431
74117SOL    HW224249   9.170  14.825  13.477
74118SOL     OW24250   3.392   3.658   4.329
74118SOL    HW124251   3.425   3.691   4.245
74118SOL    HW224252   3.344   3.731   4.367
74119SOL     OW24253   1.323   5.421   2.821
74119SOL    HW124254   1.380   5.364   2.872
74119SOL    HW224255   1.311   5.499   2.877
74120SOL     OW24256   2.260  12.204   1.703
74120SOL    HW124257   2.323  12.137   1.678
74120SOL    HW224258   2.247  12.255   1.623
74121SOL     OW24259  14.847   3.063   2.725
74121SOL    HW124260   0.063   3.090   2.691
74121SOL    HW224261  14.798   3.145   2.732
74122SOL     OW24262  11.203   8.750   0.221
74122SOL    HW124263  11.253   8.735   0.141
74122SOL    HW224264  11.175   8.842   0.214
74123SOL     OW24265  12.514  10.627  13.859
74123SOL    HW124266  12.422  10.625  13.883
74123SOL    HW224267  12.539  10.719  13.867
74124SOL     OW24268   5.751   2.268   2.439
74124SOL    HW124269   5.822   2.231   2.492
74124SOL    HW224270   5.796   2.326   2.377
74125SOL     OW24271   2.457   0.614  10.541
74125SOL    HW124272   2.461   0.524  10.508
74125SOL    HW224273   2.548   0.639  10.552
74126SOL     OW24274   0.574  14.472   6.979
74126SOL    HW124275   0.633  14.514   7.042
74126SOL    HW224276   0.605  14.381   6.976
74127SOL     OW24277   5.943   9.315   8.289
74127SOL    HW124278   5.885   9.322   8.365
74127SOL    HW224279   6.031   9.320   8.325
74128SOL     OW24280   7.009  14.005   8.970
74128SOL    HW124281   7.074  13.972   9.032
74128SOL    HW224282   6.983  14.090   9.005
74129SOL     OW24283   0.139  14.366   4.804
74129SOL    HW124284   0.133  14.281   4.760
74129SOL    HW224285   0.123  14.346   4.896
74130SOL     OW24286  14.173  12.435   5.899
74130SOL    HW124287  14.118  12.431   5.821
74130SOL    HW224288  14.249  12.486   5.872
74131SOL     OW24289  11.621   0.740   4.414
74131SOL    HW124290  11.696   0.723   4.472
74131SOL    HW224291  11.559   0.670   4.434
74132SOL     OW24292   0.200   1.617   2.549
74132SOL    HW124293   0.281   1.653   2.584
74132SOL    HW224294   0.178   1.545   2.609
74133SOL     OW24295   4.430   8.725   1.127
74133SOL    HW124296   4.415   8.819   1.124
74133SOL    HW224297   4.522   8.715   1.101
74134SOL     OW24298   3.672   4.611   5.994
74134SOL    HW124299   3.615   4.677   6.034
74134SOL    HW224300   3.687   4.547   6.064
74135SOL     OW24301   0.222   7.852  12.364
74135SOL    HW124302   0.265   7.775  12.403
74135SOL    HW224303   0.129   7.838  12.380
74136SOL     OW24304  12.529   7.302   2.076
74136SOL    HW124305  12.561   7.361   2.007
74136SOL    HW224306  12.568   7.217   2.054
74137SOL     OW24307  12.982  10.787   5.314
74137SOL    HW124308  13.056  10.726   5.310
74137SOL    HW224309  12.907  10.736   5.284
74138SOL     OW24310   8.237   5.851  14.004
74138SOL    HW124311   8.250   5.900  13.923
74138SOL    HW224312   8.236   5.918  14.072
74139SOL     OW24313   2.897   0.153   8.992
74139SOL    HW124314   2.948   0.142   9.072
74139SOL    HW224315   2.906   0.069   8.947
74140SOL     OW24316   2.751   7.917   8.272
74140SOL    HW124317   2.826   7.873   8.232
74140SOL    HW224318   2.771   7.920   8.365
74141SOL     OW24319   8.739   3.437  14.086
74141SOL    HW124320   8.648   3.459  14.105
74141SOL    HW224321   8.735   3.352  14.042
74142SOL     OW24322  11.866   0.931   7.966
74142SOL    HW124323  11.824   0.909   8.049
74142SOL    HW224324  11.943   0.875   7.962
74143SOL     OW24325   2.019   5.357   1.317
74143SOL    HW124326   2.050   5.434   1.366
74143SOL    HW224327   2.047   5.374   1.227
74144SOL     OW24328   7.665   3.125   8.533
74144SOL    HW124329   7.719   3.143   8.610
74144SOL    HW224330   7.665   3.207   8.484
74145SOL     OW24331  14.622   4.597   5.948
74145SOL    HW124332  14.613   4.673   6.005
74145SOL    HW224333  14.621   4.522   6.008
74146SOL     OW24334  13.816  11.812  11.000
74146SOL    HW124335  13.880  11.781  11.064
74146SOL    HW224336  13.854  11.790  10.915
74147SOL     OW24337   0.531  12.041  13.932
74147SOL    HW124338   0.543  12.136  13.935
74147SOL    HW224339   0.532  12.019  13.839
74148SOL     OW24340  13.447  11.910  11.669
74148SOL    HW124341  13.374  11.849  11.677
74148SOL    HW224342  13.450  11.932  11.576
74149SOL     OW24343  12.755   2.618   9.380
74149SOL    HW124344  12.813   2.632   9.455
74149SOL    HW224345  12.686   2.684   9.391
74150SOL     OW24346   2.355   2.168   0.310
74150SOL    HW124347   2.336   2.078   0.287
74150SOL    HW224348   2.445   2.182   0.282
74151SOL     OW24349  10.085   2.567   7.104
74151SOL    HW124350  10.140   2.572   7.026
74151SOL    HW224351  10.040   2.651   7.107
74152SOL     OW24352   8.886   8.932   2.682
74152SOL    HW124353   8.823   8.905   2.615
74152SOL    HW224354   8.945   8.991   2.636
74153SOL     OW24355   8.690   5.032   6.069
74153SOL    HW124356   8.751   5.022   6.142
74153SOL    HW224357   8.746   5.051   5.994
74154SOL     OW24358  14.342   7.391   7.562
74154SOL    HW124359  14.409   7.328   7.536
74154SOL    HW224360  14.268   7.374   7.504
74155SOL     OW24361  13.818   8.532   5.788
74155SOL    HW124362  13.830   8.626   5.774
74155SOL    HW224363  13.731   8.513   5.752
74156SOL     OW24364  12.343   5.584  13.877
74156SOL    HW124365  12.382   5.665  13.909
74156SOL    HW224366  12.340   5.595  13.782
74157SOL     OW24367   5.020   9.891  12.027
74157SOL    HW124368   4.943   9.922  11.981
74157SOL    HW224369   5.094   9.937  11.986
74158SOL     OW24370   2.404   3.717  14.499
74158SOL    HW124371   2.373   3.627  14.489
74158SOL    HW224372   2.470   3.712  14.569
74159SOL     OW24373  10.410  13.127   2.146
74159SOL    HW124374  10.400  13.173   2.062
74159SOL    HW224375  10.371  13.041   2.131
74160SOL     OW24376  11.214   9.591  14.858
74160SOL    HW124377  11.187   9.571  14.768
74160SOL    HW224378  11.147   9.652   0.020
74161SOL     OW24379   6.643   1.867  12.651
74161SOL    HW124380   6.635   1.805  12.579
74161SOL    HW224381   6.700   1.936  12.616
74162SOL     OW24382  12.764   6.304  10.719
74162SOL    HW124383  12.712   6.340  10.790
74162SOL    HW224384  12.854   6.330  10.739
74163SOL     OW24385   0.921   4.790   0.169
74163SOL    HW124386   0.988   4.783   0.236
74163SOL    HW224387   0.962   4.757   0.090
74164SOL     OW24388   3.249   7.181  11.679
74164SOL    HW124389   3.221   7.204  11.767
74164SOL    HW224390   3.331   7.229  11.666
74165SOL     OW24391  14.743   7.933  14.704
74165SOL    HW124392  14.752   8.027  14.720
74165SOL    HW224393  14.820   7.910  14.652
74166SOL     OW24394   6.505  12.252  12.000
74166SOL    HW124395   6.483  12.160  11.985
74166SOL    HW224396   6.559  12.251  12.079
74167SOL     OW24397   7.970   2.537   2.007
74167SOL    HW124398   8.054   2.511   1.969
74167SOL    HW224399   7.951   2.469   2.072
74168SOL     OW24400   3.474   0.176   2.383
74168SOL    HW124401   3.546   0.182   2.446
74168SOL    HW224402   3.503   0.111   2.319
74169SOL     OW24403   0.205   4.178   2.030
74169SOL    HW124404   0.214   4.136   1.945
74169SOL    HW224405   0.148   4.253   2.015
74170SOL     OW24406   5.837  13.019   9.002
74170SOL    HW124407   5.764  13.059   8.955
74170SOL    HW224408   5.796  12.957   9.063
74171SOL     OW24409  13.253   2.890   4.113
74171SOL    HW124410  13.161   2.900   4.088
74171SOL    HW224411  13.274   2.971   4.160
74172SOL     OW24412   6.703   2.578   3.623
74172SOL    HW124413   6.766   2.509   3.603
74172SOL    HW224414   6.639   2.536   3.680
74173SOL     OW24415   0.723   9.043  12.786
74173SOL    HW124416   0.639   9.020  12.746
74173SOL    HW224417   0.750   9.122  12.740
74174SOL     OW24418   2.086  11.935   5.517
74174SOL    HW124419   2.128  11.970   5.596
74174SOL    HW224420   2.157  11.889   5.472
74175SOL     OW24421   1.515   6.813   9.777
74175SOL    HW124422   1.473   6.882   9.727
74175SOL    HW224423   1.470   6.813   9.861
74176SOL     OW24424   6.178   3.605  14.271
74176SOL    HW124425   6.158   3.536  14.334
74176SOL    HW224426   6.225   3.560  14.201
74177SOL     OW24427  13.433   0.832   6.297
74177SOL    HW124428  13.345   0.856   6.324
74177SOL    HW224429  13.470   0.912   6.260
74178SOL     OW24430   2.073  13.218   6.468
74178SOL    HW124431   2.156  13.261   6.443
74178SOL    HW224432   2.091  13.125   6.460
74179SOL     OW24433   3.541   3.136   0.485
74179SOL    HW124434   3.537   3.192   0.407
74179SOL    HW224435   3.635   3.122   0.500
74180SOL     OW24436  13.925   8.976   9.150
74180SOL    HW124437  14.006   8.953   9.106
74180SOL    HW224438  13.863   8.991   9.078
74181SOL     OW24439  13.339   9.099   4.415
74181SOL    HW124440  13.385   9.025   4.454
74181SOL    HW224441  13.336   9.165   4.485
74182SOL     OW24442  14.805  11.445  10.581
74182SOL    HW124443  14.749  11.372  10.554
74182SOL    HW224444  14.774  11.467  10.669
74183SOL     OW24445   5.865  14.147  10.456
74183SOL    HW124446   5.867  14.110  10.368
74183SOL    HW224447   5.806  14.090  10.504
74184SOL     OW24448   4.897   5.273   4.138
74184SOL    HW124449   4.921   5.225   4.218
74184SOL    HW224450   4.809   5.306   4.155
74185SOL     OW24451   2.978   6.350   8.612
74185SOL    HW124452   2.944   6.316   8.529
74185SOL    HW224453   2.938   6.436   8.621
74186SOL     OW24454   2.965  13.801  10.895
74186SOL    HW124455   3.049  13.808  10.849
74186SOL    HW224456   2.900  13.834  10.833
74187SOL     OW24457   7.915  13.266   5.556
74187SOL    HW124458   7.937  13.267   5.649
74187SOL    HW224459   7.988  13.310   5.514
74188SOL     OW24460  12.703   0.830   4.539
74188SOL    HW124461  12.763   0.875   4.599
74188SOL    HW224462  12.622   0.821   4.590
74189SOL     OW24463   0.343   6.051  12.476
74189SOL    HW124464   0.343   6.139  12.440
74189SOL    HW224465   0.413   6.051  12.542
74190SOL     OW24466   2.611   2.435  12.753
74190SOL    HW124467   2.582   2.422  12.843
74190SOL    HW224468   2.565   2.367  12.703
74191SOL     OW24469   2.781   6.946   6.612
74191SOL    HW124470   2.729   6.869   6.636
74191SOL    HW224471   2.719   7.019   6.616
74192SOL     OW24472   2.987  11.630   7.753
74192SOL    HW124473   2.933  11.577   7.811
74192SOL    HW224474   3.021  11.699   7.809
74193SOL     OW24475   2.737   3.312  10.481
74193SOL    HW124476   2.685   3.232  10.483
74193SOL    HW224477   2.672   3.383  10.481
74194SOL     OW24478   4.888   1.695  11.831
74194SOL    HW124479   4.836   1.663  11.757
74194SOL    HW224480   4.848   1.654  11.908
74195SOL     OW24481  10.032  14.311   7.640
74195SOL    HW124482  10.080  14.228   7.638
74195SOL    HW224483  10.090  14.370   7.689
74196SOL     OW24484   8.441  12.407   2.909
74196SOL    HW124485   8.508  12.395   2.977
74196SOL    HW224486   8.472  12.480   2.856
74197SOL     OW24487   0.114  11.885   4.646
74197SOL    HW124488   0.075  11.878   4.559
74197SOL    HW224489   0.039  11.901   4.704
74198SOL     OW24490  12.820   9.526  11.130
74198SOL    HW124491  12.850   9.598  11.187
74198SOL    HW224492  12.798   9.569  11.048
74199SOL     OW24493   8.988   0.304   9.767
74199SOL    HW124494   9.042   0.292   9.845
74199SOL    HW224495   8.981   0.399   9.757
74200SOL     OW24496   7.345   5.670   0.550
74200SOL    HW124497   7.383   5.602   0.605
74200SOL    HW224498   7.348   5.749   0.604
74201SOL     OW24499  12.098   8.203  12.608
74201SOL    HW124500  12.137   8.279  12.651
74201SOL    HW224501  12.072   8.145  12.679
74202SOL     OW24502   1.739   8.897   9.049
74202SOL    HW124503   1.725   8.849   9.130
74202SOL    HW224504   1.811   8.958   9.068
74203SOL     OW24505   8.393   5.020   0.207
74203SOL    HW124506   8.375   5.110   0.179
74203SOL    HW224507   8.306   4.982   0.222
74204SOL     OW24508   7.292   2.069   8.921
74204SOL    HW124509   7.329   1.985   8.949
74204SOL    HW224510   7.257   2.107   9.001
74205SOL     OW24511   5.294   3.939   0.345
74205SOL    HW124512   5.245   3.861   0.370
74205SOL    HW224513   5.346   3.911   0.269
74206SOL     OW24514  13.442  11.040   2.207
74206SOL    HW124515  13.500  11.070   2.137
74206SOL    HW224516  13.357  11.079   2.186
74207SOL     OW24517   9.036   2.274   5.687
74207SOL    HW124518   8.967   2.266   5.753
74207SOL    HW224519   9.005   2.222   5.613
74208SOL     OW24520   2.755   1.631  12.014
74208SOL    HW124521   2.728   1.595  12.098
74208SOL    HW224522   2.684   1.690  11.989
74209SOL     OW24523   3.839   9.915   6.658
74209SOL    HW124524   3.924   9.910   6.614
74209SOL    HW224525   3.779   9.867   6.601
74210SOL     OW24526   6.684   2.999  10.092
74210SOL    HW124527   6.736   2.924  10.120
74210SOL    HW224528   6.728   3.074  10.130
74211SOL     OW24529   2.020  12.856   8.039
74211SOL    HW124530   2.031  12.944   8.003
74211SOL    HW224531   2.035  12.798   7.965
74212SOL     OW24532  14.058  11.405  11.438
74212SOL    HW124533  13.998  11.348  11.390
74212SOL    HW224534  14.017  11.491  11.436
74213SOL     OW24535  11.354   1.726  13.097
74213SOL    HW124536  11.259   1.732  13.083
74213SOL    HW224537  11.381   1.653  13.041
74214SOL     OW24538   0.692   5.096  10.315
74214SOL    HW124539   0.617   5.060  10.364
74214SOL    HW224540   0.684   5.058  10.228
74215SOL     OW24541  14.405   3.253  10.479
74215SOL    HW124542  14.405   3.159  10.494
74215SOL    HW224543  14.497   3.274  10.462
74216SOL     OW24544   4.578  13.876   1.065
74216SOL    HW124545   4.516  13.910   1.000
74216SOL    HW224546   4.641  13.825   1.013
74217SOL     OW24547  14.228  12.497  12.627
74217SOL    HW124548  14.293  12.431  12.601
74217SOL    HW224549  14.209  12.544  12.546
74218SOL     OW24550   9.586  14.198   4.038
74218SOL    HW124551   9.595  14.106   4.011
74218SOL    HW224552   9.616  14.199   4.129
74219SOL     OW24553   8.044   8.307  11.350
74219SOL    HW124554   8.095   8.273  11.423
74219SOL    HW224555   8.076   8.259  11.274
74220SOL     OW24556  12.736  14.709  13.988
74220SOL    HW124557  12.783  14.726  14.070
74220SOL    HW224558  12.737  14.613  13.979
74221SOL     OW24559   6.902   8.847  12.974
74221SOL    HW124560   6.945   8.924  12.936
74221SOL    HW224561   6.875   8.794  12.899
74222SOL     OW24562  10.248   6.538  11.811
74222SOL    HW124563  10.269   6.582  11.729
74222SOL    HW224564  10.244   6.445  11.789
74223SOL     OW24565  10.824  12.222  11.940
74223SOL    HW124566  10.780  12.145  11.976
74223SOL    HW224567  10.878  12.254  12.012
74224SOL     OW24568  14.012   4.441  13.816
74224SOL    HW124569  14.061   4.401  13.744
74224SOL    HW224570  14.058   4.411  13.895
74225SOL     OW24571  11.192   9.441   1.449
74225SOL    HW124572  11.229   9.509   1.394
74225SOL    HW224573  11.199   9.476   1.538
74226SOL     OW24574  10.235   1.452   4.747
74226SOL    HW124575  10.191   1.472   4.665
74226SOL    HW224576  10.164   1.429   4.808
74227SOL     OW24577   1.977   6.355   8.815
74227SOL    HW124578   2.068   6.384   8.819
74227SOL    HW224579   1.925   6.433   8.832
74228SOL     OW24580   2.527  14.242  10.307
74228SOL    HW124581   2.515  14.256  10.401
74228SOL    HW224582   2.593  14.307  10.281
74229SOL     OW24583   2.102   6.443   8.474
74229SOL    HW124584   2.059   6.523   8.445
74229SOL    HW224585   2.189   6.470   8.502
74230SOL     OW24586   0.697  11.077   4.851
74230SOL    HW124587   0.610  11.062   4.889
74230SOL    HW224588   0.715  10.997   4.801
74231SOL     OW24589   5.214  13.692  11.198
74231SOL    HW124590   5.262  13.743  11.264
74231SOL    HW224591   5.172  13.757  11.143
74232SOL     OW24592   1.088   6.376  10.889
74232SOL    HW124593   1.106   6.468  10.910
74232SOL    HW224594   1.106   6.369  10.795
74233SOL     OW24595  12.022   8.293  11.799
74233SOL    HW124596  12.097   8.321  11.853
74233SOL    HW224597  11.955   8.268  11.862
74234SOL     OW24598   8.079  13.996   9.565
74234SOL    HW124599   8.141  13.928   9.590
74234SOL    HW224600   7.997  13.950   9.550
74235SOL     OW24601   1.313   4.307   3.527
74235SOL    HW124602   1.376   4.316   3.455
74235SOL    HW224603   1.232   4.280   3.484
74236SOL     OW24604  10.062  10.744  10.147
74236SOL    HW124605   9.997  10.801  10.105
74236SOL    HW224606  10.119  10.716  10.076
74237SOL     OW24607   7.323   0.839  12.365
74237SOL    HW124608   7.371   0.857  12.284
74237SOL    HW224609   7.383   0.788  12.418
74238SOL     OW24610   5.716   2.951   7.407
74238SOL    HW124611   5.773   3.019   7.371
74238SOL    HW224612   5.673   2.992   7.482
74239SOL     OW24613   3.662   0.589   0.056
74239SOL    HW124614   3.665   0.586  14.830
74239SOL    HW224615   3.589   0.647   0.075
74240SOL     OW24616  13.301   9.472   5.035
74240SOL    HW124617  13.228   9.412   5.024
74240SOL    HW224618  13.260   9.558   5.048
74241SOL     OW24619  10.877   1.409   9.920
74241SOL    HW124620  10.838   1.369   9.843
74241SOL    HW224621  10.817   1.480   9.943
74242SOL     OW24622   5.131   0.780  14.391
74242SOL    HW124623   5.185   0.826  14.454
74242SOL    HW224624   5.130   0.837  14.314
74243SOL     OW24625  13.327   8.415   9.640
74243SOL    HW124626  13.341   8.397   9.547
74243SOL    HW224627  13.336   8.509   9.649
74244SOL     OW24628   4.695  10.355   9.483
74244SOL    HW124629   4.633  10.294   9.523
74244SOL    HW224630   4.781  10.320   9.506
74245SOL     OW24631   1.747  13.569  12.648
74245SOL    HW124632   1.694  13.606  12.719
74245SOL    HW224633   1.781  13.645  12.601
74246SOL     OW24634  12.053   5.067  13.069
74246SOL    HW124635  12.101   5.010  13.129
74246SOL    HW224636  12.059   5.023  12.984
74247SOL     OW24637  13.601   1.838   0.025
74247SOL    HW124638  13.630   1.796  14.813
74247SOL    HW224639  13.582   1.928  14.869
74248SOL     OW24640   6.494   5.333  12.487
74248SOL    HW124641   6.524   5.418  12.519
74248SOL    HW224642   6.520   5.332  12.394
74249SOL     OW24643   2.336   0.280   1.313
74249SOL    HW124644   2.311   0.207   1.257
74249SOL    HW224645   2.417   0.313   1.274
74250SOL     OW24646  11.311   1.669  13.614
74250SOL    HW124647  11.254   1.685  13.539
74250SOL    HW224648  11.333   1.577  13.608
74251SOL     OW24649   8.939   5.331   8.517
74251SOL    HW124650   8.915   5.340   8.425
74251SOL    HW224651   9.010   5.267   8.518
74252SOL     OW24652  14.603  12.275   1.220
74252SOL    HW124653  14.693  12.271   1.254
74252SOL    HW224654  14.614  12.270   1.125
74253SOL     OW24655  10.045   9.130  10.336
74253SOL    HW124656  10.084   9.063  10.391
74253SOL    HW224657   9.975   9.168  10.390
74254SOL     OW24658  14.744  12.758   7.664
74254SOL    HW124659  14.716  12.678   7.620
74254SOL    HW224660  14.662  12.804   7.683
74255SOL     OW24661  10.137  10.574   6.125
74255SOL    HW124662  10.071  10.508   6.103
74255SOL    HW224663  10.108  10.652   6.078
74256SOL     OW24664  13.369   3.759   7.766
74256SOL    HW124665  13.434   3.830   7.769
74256SOL    HW224666  13.405   3.697   7.702
74257SOL     OW24667   3.133   4.612   3.719
74257SOL    HW124668   3.082   4.687   3.750
74257SOL    HW224669   3.177   4.645   3.640
74258SOL     OW24670   6.392  10.484  12.276
74258SOL    HW124671   6.432  10.472  12.362
74258SOL    HW224672   6.446  10.550  12.232
74259SOL     OW24673   3.336   4.408   0.717
74259SOL    HW124674   3.269   4.380   0.654
74259SOL    HW224675   3.289   4.469   0.775
74260SOL     OW24676   7.436  13.487  14.592
74260SOL    HW124677   7.484  13.563  14.625
74260SOL    HW224678   7.358  13.482  14.648
74261SOL     OW24679  11.072   9.947   6.562
74261SOL    HW124680  11.007   9.980   6.501
74261SOL    HW224681  11.037   9.862   6.590
74262SOL     OW24682   9.552   3.734   2.573
74262SOL    HW124683   9.519   3.820   2.599
74262SOL    HW224684   9.594   3.700   2.652
74263SOL     OW24685   7.089   7.871   4.005
74263SOL    HW124686   7.173   7.833   3.981
74263SOL    HW224687   7.092   7.879   4.101
74264SOL     OW24688   3.656  10.177   4.511
74264SOL    HW124689   3.630  10.126   4.434
74264SOL    HW224690   3.708  10.249   4.476
74265SOL     OW24691  12.681  10.883   1.919
74265SOL    HW124692  12.664  10.905   2.010
74265SOL    HW224693  12.737  10.805   1.923
74266SOL     OW24694   8.662   5.130   1.257
74266SOL    HW124695   8.645   5.214   1.301
74266SOL    HW224696   8.732   5.090   1.308
74267SOL     OW24697   5.669   3.994   1.706
74267SOL    HW124698   5.665   4.011   1.612
74267SOL    HW224699   5.714   4.070   1.743
74268SOL     OW24700   6.359   0.027  12.976
74268SOL    HW124701   6.334   0.077  13.053
74268SOL    HW224702   6.324  14.809  12.992
74269SOL     OW24703   9.937   4.964   2.783
74269SOL    HW124704   9.993   5.016   2.725
74269SOL    HW224705   9.969   4.984   2.871
74270SOL     OW24706   2.316   4.418   8.504
74270SOL    HW124707   2.253   4.478   8.462
74270SOL    HW224708   2.395   4.470   8.516
74271SOL     OW24709  14.359   7.016   8.113
74271SOL    HW124710  14.421   6.980   8.176
74271SOL    HW224711  14.302   7.073   8.165
74272SOL     OW24712  13.480  11.865   6.482
74272SOL    HW124713  13.551  11.838   6.541
74272SOL    HW224714  13.465  11.789   6.427
74273SOL     OW24715   7.042   5.888   5.774
74273SOL    HW124716   7.059   5.979   5.750
74273SOL    HW224717   7.125   5.843   5.755
74274SOL     OW24718   1.699  11.343  14.291
74274SOL    HW124719   1.748  11.416  14.252
74274SOL    HW224720   1.634  11.386  14.347
74275SOL     OW24721   2.568  11.344   1.911
74275SOL    HW124722   2.621  11.266   1.891
74275SOL    HW224723   2.538  11.374   1.825
74276SOL     OW24724   9.121  10.624  11.369
74276SOL    HW124725   9.032  10.595  11.349
74276SOL    HW224726   9.111  10.714  11.401
74277SOL     OW24727   2.395   1.090   0.301
74277SOL    HW124728   2.362   1.171   0.260
74277SOL    HW224729   2.462   1.120   0.362
74278SOL     OW24730   7.888  12.869   2.404
74278SOL    HW124731   7.806  12.820   2.410
74278SOL    HW224732   7.949  12.808   2.362
74279SOL     OW24733  13.262  11.184  12.111
74279SOL    HW124734  13.302  11.099  12.095
74279SOL    HW224735  13.294  11.241  12.041
74280SOL     OW24736   2.563   7.315   1.949
74280SOL    HW124737   2.587   7.334   2.040
74280SOL    HW224738   2.583   7.395   1.901
74281SOL     OW24739  10.201  14.178   4.621
74281SOL    HW124740  10.242  14.163   4.706
74281SOL    HW224741  10.231  14.265   4.595
74282SOL     OW24742  13.145   8.058  14.321
74282SOL    HW124743  13.232   8.034  14.289
74282SOL    HW224744  13.163   8.108  14.401
74283SOL     OW24745   8.432   2.431  12.091
74283SOL    HW124746   8.354   2.395  12.134
74283SOL    HW224747   8.416   2.418  11.997
74284SOL     OW24748   4.103   2.168  12.175
74284SOL    HW124749   4.144   2.135  12.255
74284SOL    HW224750   4.111   2.263  12.182
74285SOL     OW24751   9.224  13.269   3.058
74285SOL    HW124752   9.281  13.195   3.039
74285SOL    HW224753   9.189  13.251   3.145
74286SOL     OW24754   5.291  12.081  13.754
74286SOL    HW124755   5.245  12.116  13.831
74286SOL    HW224756   5.238  12.006  13.727
74287SOL     OW24757  12.197   6.557   7.584
74287SOL    HW124758  12.270   6.495   7.582
74287SOL    HW224759  12.231   6.636   7.542
74288SOL     OW24760   2.185  11.937   0.430
74288SOL    HW124761   2.223  11.853   0.457
74288SOL    HW224762   2.245  11.970   0.363
74289SOL     OW24763   0.870   4.338   0.580
74289SOL    HW124764   0.961   4.327   0.552
74289SOL    HW224765   0.820   4.277   0.525
74290SOL     OW24766   5.054  11.246   2.994
74290SOL    HW124767   5.094  11.333   3.001
74290SOL    HW224768   4.968  11.256   3.034
74291SOL     OW24769   4.546  10.457  11.084
74291SOL    HW124770   4.583  10.514  11.151
74291SOL    HW224771   4.621  10.405  11.053
74292SOL     OW24772  12.601   1.103   9.438
74292SOL    HW124773  12.656   1.025   9.427
74292SOL    HW224774  12.574   1.100   9.530
74293SOL     OW24775   7.504   7.575   8.755
74293SOL    HW124776   7.521   7.486   8.723
74293SOL    HW224777   7.562   7.584   8.831
74294SOL     OW24778   6.362   5.274  13.979
74294SOL    HW124779   6.419   5.197  13.974
74294SOL    HW224780   6.303   5.256  14.052
74295SOL     OW24781   0.770   1.505  13.976
74295SOL    HW124782   0.743   1.596  13.963
74295SOL    HW224783   0.807   1.479  13.892
74296SOL     OW24784   2.563   1.795   2.427
74296SOL    HW124785   2.579   1.846   2.348
74296SOL    HW224786   2.529   1.712   2.396
74297SOL     OW24787   6.081   1.813   8.250
74297SOL    HW124788   6.094   1.906   8.231
74297SOL    HW224789   6.160   1.787   8.297
74298SOL     OW24790   3.335   5.082   0.130
74298SOL    HW124791   3.242   5.071   0.150
74298SOL    HW224792   3.378   5.005   0.166
74299SOL     OW24793   2.801   6.126   1.769
74299SOL    HW124794   2.720   6.131   1.820
74299SOL    HW224795   2.869   6.108   1.834
74300SOL     OW24796  11.510   0.834   7.780
74300SOL    HW124797  11.472   0.876   7.858
74300SOL    HW224798  11.436   0.792   7.737
74301SOL     OW24799   8.200  11.429   3.702
74301SOL    HW124800   8.135  11.469   3.644
74301SOL    HW224801   8.253  11.374   3.645
74302SOL     OW24802   9.281   1.766   6.075
74302SOL    HW124803   9.202   1.725   6.041
74302SOL    HW224804   9.265   1.775   6.169
74303SOL     OW24805   7.542  12.944  12.481
74303SOL    HW124806   7.458  12.939  12.437
74303SOL    HW224807   7.522  12.929  12.574
74304SOL     OW24808   4.151   8.224  10.926
74304SOL    HW124809   4.220   8.286  10.903
74304SOL    HW224810   4.070   8.270  10.903
74305SOL     OW24811   5.677   7.816  12.646
74305SOL    HW124812   5.746   7.881  12.631
74305SOL    HW224813   5.613   7.862  12.699
74306SOL     OW24814   0.876  14.125   1.987
74306SOL    HW124815   0.953  14.076   2.016
74306SOL    HW224816   0.908  14.178   1.914
74307SOL     OW24817  13.513   6.210   3.417
74307SOL    HW124818  13.601   6.190   3.448
74307SOL    HW224819  13.522   6.217   3.322
74308SOL     OW24820  13.172   1.323  10.714
74308SOL    HW124821  13.213   1.357  10.635
74308SOL    HW224822  13.242   1.322  10.779
74309SOL     OW24823   7.426  14.548  13.004
74309SOL    HW124824   7.370  14.478  13.040
74309SOL    HW224825   7.381  14.576  12.925
74310SOL     OW24826  13.215   6.236  11.941
74310SOL    HW124827  13.284   6.269  11.882
74310SOL    HW224828  13.181   6.315  11.984
74311SOL     OW24829   9.801   5.613   2.325
74311SOL    HW124830   9.743   5.630   2.251
74311SOL    HW224831   9.803   5.695   2.374
74312SOL     OW24832   6.170   8.038   0.640
74312SOL    HW124833   6.129   7.953   0.655
74312SOL    HW224834   6.257   8.016   0.605
74313SOL     OW24835   6.563   3.274   2.859
74313SOL    HW124836   6.587   3.290   2.950
74313SOL    HW224837   6.551   3.361   2.822
74314SOL     OW24838   4.832   9.619  12.812
74314SOL    HW124839   4.765   9.673  12.852
74314SOL    HW224840   4.912   9.638  12.862
74315SOL     OW24841  12.792   4.522  14.132
74315SOL    HW124842  12.794   4.463  14.207
74315SOL    HW224843  12.706   4.510  14.093
74316SOL     OW24844  12.448   3.966   7.228
74316SOL    HW124845  12.396   4.019   7.289
74316SOL    HW224846  12.501   4.029   7.181
74317SOL     OW24847   8.549   4.608   7.373
74317SOL    HW124848   8.458   4.581   7.357
74317SOL    HW224849   8.542   4.690   7.423
74318SOL     OW24850  14.319  13.143  12.338
74318SOL    HW124851  14.294  13.176  12.251
74318SOL    HW224852  14.241  13.098  12.370
74319SOL     OW24853  11.261   0.213   1.036
74319SOL    HW124854  11.347   0.182   1.065
74319SOL    HW224855  11.280   0.271   0.962
74320SOL     OW24856  11.724  11.595   8.620
74320SOL    HW124857  11.689  11.508   8.641
74320SOL    HW224858  11.816  11.591   8.646
74321SOL     OW24859  14.682   8.346   5.141
74321SOL    HW124860  14.655   8.273   5.084
74321SOL    HW224861  14.730   8.304   5.212
74322SOL     OW24862   3.525   1.515  14.715
74322SOL    HW124863   3.555   1.475  14.796
74322SOL    HW224864   3.558   1.457  14.646
74323SOL     OW24865   8.613   2.918  12.707
74323SOL    HW124866   8.574   2.960  12.630
74323SOL    HW224867   8.559   2.839  12.720
74324SOL     OW24868   5.217   9.114   8.091
74324SOL    HW124869   5.134   9.072   8.070
74324SOL    HW224870   5.246   9.154   8.009
74325SOL     OW24871   7.635  13.853  12.424
74325SOL    HW124872   7.648  13.803  12.505
74325SOL    HW224873   7.631  13.944  12.452
74326SOL     OW24874   4.694   8.716   1.091
74326SOL    HW124875   4.783   8.741   1.116
74326SOL    HW224876   4.699   8.621   1.077
74327SOL     OW24877   2.076   9.238   4.369
74327SOL    HW124878   2.156   9.192   4.395
74327SOL    HW224879   2.068   9.310   4.432
74328SOL     OW24880   4.183  11.772   7.115
74328SOL    HW124881   4.132  11.713   7.171
74328SOL    HW224882   4.173  11.858   7.155
74329SOL     OW24883  10.386   8.720   0.403
74329SOL    HW124884  10.398   8.801   0.352
74329SOL    HW224885  10.301   8.731   0.445
74330SOL     OW24886  14.402   8.721   1.374
74330SOL    HW124887  14.488   8.687   1.348
74330SOL    HW224888  14.371   8.659   1.440
74331SOL     OW24889   5.513   7.206   1.409
74331SOL    HW124890   5.524   7.115   1.436
74331SOL    HW224891   5.464   7.201   1.327
74332SOL     OW24892   7.613  13.352   9.350
74332SOL    HW124893   7.585  13.386   9.435
74332SOL    HW224894   7.550  13.388   9.288
74333SOL     OW24895  12.459   4.010  10.641
74333SOL    HW124896  12.518   3.935  10.654
74333SOL    HW224897  12.413   4.018  10.725
74334SOL     OW24898  13.786   4.773  10.763
74334SOL    HW124899  13.867   4.786  10.714
74334SOL    HW224900  13.807   4.799  10.852
74335SOL     OW24901  11.879   7.761   4.373
74335SOL    HW124902  11.840   7.675   4.385
74335SOL    HW224903  11.973   7.746   4.385
74336SOL     OW24904  12.043   3.169   1.134
74336SOL    HW124905  12.018   3.261   1.129
74336SOL    HW224906  11.967   3.122   1.101
74337SOL     OW24907  10.435   0.425   7.806
74337SOL    HW124908  10.523   0.463   7.813
74337SOL    HW224909  10.450   0.338   7.771
74338SOL     OW24910   1.475   2.958   8.129
74338SOL    HW124911   1.553   2.991   8.174
74338SOL    HW224912   1.475   2.864   8.147
74339SOL     OW24913   7.022  12.415   0.337
74339SOL    HW124914   6.987  12.373   0.416
74339SOL    HW224915   6.975  12.499   0.333
74340SOL     OW24916   9.581  14.529  12.942
74340SOL    HW124917   9.583  14.443  12.985
74340SOL    HW224918   9.488  14.545  12.924
74341SOL     OW24919  13.283  14.704   1.555
74341SOL    HW124920  13.244  14.760   1.622
74341SOL    HW224921  13.376  14.703   1.575
74342SOL     OW24922   8.079  14.403   8.940
74342SOL    HW124923   8.136  14.477   8.925
74342SOL    HW224924   8.103  14.339   8.873
74343SOL     OW24925   0.275   1.070  13.080
74343SOL    HW124926   0.266   1.078  12.985
74343SOL    HW224927   0.220   1.140  13.114
74344SOL     OW24928   1.174   1.401   9.739
74344SOL    HW124929   1.206   1.418   9.827
74344SOL    HW224930   1.108   1.468   9.724
74345SOL     OW24931  14.596   5.371   5.252
74345SOL    HW124932  14.516   5.319   5.250
74345SOL    HW224933  14.595   5.421   5.171
74346SOL     OW24934   3.901   7.964  11.044
74346SOL    HW124935   3.854   8.033  10.997
74346SOL    HW224936   3.840   7.937  11.113
74347SOL     OW24937   0.690  14.283   2.562
74347SOL    HW124938   0.781  14.253   2.558
74347SOL    HW224939   0.696  14.371   2.598
74348SOL     OW24940   0.623   6.115  10.320
74348SOL    HW124941   0.648   6.028  10.351
74348SOL    HW224942   0.663   6.121  10.233
74349SOL     OW24943  10.481   9.595  11.464
74349SOL    HW124944  10.517   9.571  11.550
74349SOL    HW224945  10.453   9.686  11.474
74350SOL     OW24946   6.739   3.683   2.821
74350SOL    HW124947   6.679   3.666   2.749
74350SOL    HW224948   6.715   3.771   2.851
74351SOL     OW24949  11.488  13.093   0.231
74351SOL    HW124950  11.401  13.133   0.225
74351SOL    HW224951  11.528  13.134   0.309
74352SOL     OW24952   2.425   2.562   1.523
74352SOL    HW124953   2.414   2.653   1.553
74352SOL    HW224954   2.403   2.565   1.430
74353SOL     OW24955   6.176   5.361  10.020
74353SOL    HW124956   6.104   5.415  10.053
74353SOL    HW224957   6.161   5.357   9.925
74354SOL     OW24958  12.755   5.294  10.883
74354SOL    HW124959  12.841   5.275  10.847
74354SOL    HW224960  12.693   5.266  10.816
74355SOL     OW24961   5.534   5.944   8.706
74355SOL    HW124962   5.545   5.850   8.694
74355SOL    HW224963   5.613   5.971   8.754
74356SOL     OW24964   6.561  12.968   0.472
74356SOL    HW124965   6.507  13.044   0.493
74356SOL    HW224966   6.502  12.893   0.480
74357SOL     OW24967  14.116   1.614   4.425
74357SOL    HW124968  14.141   1.680   4.360
74357SOL    HW224969  14.082   1.665   4.498
74358SOL     OW24970   7.211  11.269   6.092
74358SOL    HW124971   7.195  11.337   6.026
74358SOL    HW224972   7.164  11.193   6.059
74359SOL     OW24973   1.655   0.062   0.425
74359SOL    HW124974   1.711   0.088   0.498
74359SOL    HW224975   1.584   0.012   0.465
74360SOL     OW24976   1.595   6.581   6.383
74360SOL    HW124977   1.640   6.534   6.313
74360SOL    HW224978   1.509   6.540   6.388
74361SOL     OW24979   6.029  10.774   2.500
74361SOL    HW124980   6.022  10.698   2.442
74361SOL    HW224981   6.086  10.835   2.453
74362SOL     OW24982   4.154  10.419   1.348
74362SOL    HW124983   4.225  10.365   1.384
74362SOL    HW224984   4.195  10.467   1.276
74363SOL     OW24985   5.584   7.246   3.498
74363SOL    HW124986   5.603   7.330   3.456
74363SOL    HW224987   5.652   7.237   3.565
74364SOL     OW24988  10.957   7.897  10.407
74364SOL    HW124989  10.943   7.862  10.319
74364SOL    HW224990  10.938   7.823  10.465
74365SOL     OW24991   8.168  10.952   4.170
74365SOL    HW124992   8.223  11.016   4.125
74365SOL    HW224993   8.079  10.977   4.148
74366SOL     OW24994  10.641  14.719   8.372
74366SOL    HW124995  10.646  14.800   8.321
74366SOL    HW224996  10.605  14.747   8.456
74367SOL     OW24997   2.056  11.037  12.703
74367SOL    HW124998   2.063  10.941  12.696
74367SOL    HW224999   2.004  11.051  12.782
74368SOL     OW25000   7.492   3.166   0.939
74368SOL    HW125001   7.522   3.198   0.854
74368SOL    HW225002   7.399   3.191   0.942
74369SOL     OW25003   3.878   2.136  12.779
74369SOL    HW125004   3.874   2.226  12.812
74369SOL    HW225005   3.923   2.087  12.848
74370SOL     OW25006   6.244   7.864  13.405
74370SOL    HW125007   6.174   7.928  13.395
74370SOL    HW225008   6.324   7.912  13.385
74371SOL     OW25009  10.251   6.993   4.025
74371SOL    HW125010  10.316   6.944   3.974
74371SOL    HW225011  10.280   7.084   4.020
74372SOL     OW25012   6.902   6.457  13.460
74372SOL    HW125013   6.869   6.419  13.541
74372SOL    HW225014   6.965   6.524  13.488
74373SOL     OW25015   4.696  14.644  11.531
74373SOL    HW125016   4.776  14.664  11.483
74373SOL    HW225017   4.726  14.619  11.618
74374SOL     OW25018  10.204   7.456   1.062
74374SOL    HW125019  10.268   7.499   1.006
74374SOL    HW225020  10.255   7.390   1.110
74375SOL     OW25021  13.131   4.914  11.284
74375SOL    HW125022  13.139   4.823  11.254
74375SOL    HW225023  13.044   4.918  11.324
74376SOL     OW25024  10.096   3.351   6.391
74376SOL    HW125025  10.072   3.437   6.356
74376SOL    HW225026  10.104   3.295   6.314
74377SOL     OW25027   5.419   5.538   3.560
74377SOL    HW125028   5.506   5.504   3.539
74377SOL    HW225029   5.371   5.462   3.594
74378SOL     OW25030  13.118  13.986  10.544
74378SOL    HW125031  13.103  14.076  10.516
74378SOL    HW225032  13.212  13.972  10.532
74379SOL     OW25033   6.880  13.127   2.613
74379SOL    HW125034   6.945  13.151   2.679
74379SOL    HW225035   6.828  13.206   2.600
74380SOL     OW25036  11.728   9.057   6.238
74380SOL    HW125037  11.807   9.003   6.242
74380SOL    HW225038  11.658   8.995   6.218
74381SOL     OW25039   5.511   9.727   2.300
74381SOL    HW125040   5.591   9.681   2.325
74381SOL    HW225041   5.476   9.760   2.382
74382SOL     OW25042  12.941  13.250  11.358
74382SOL    HW125043  12.890  13.233  11.437
74382SOL    HW225044  13.031  13.231  11.382
74383SOL     OW25045   2.665  10.338  13.965
74383SOL    HW125046   2.703  10.271  13.909
74383SOL    HW225047   2.620  10.397  13.904
74384SOL     OW25048  14.236   5.328   7.160
74384SOL    HW125049  14.189   5.251   7.128
74384SOL    HW225050  14.325   5.317   7.126
74385SOL     OW25051   8.750  10.437  10.640
74385SOL    HW125052   8.725  10.354  10.601
74385SOL    HW225053   8.738  10.424  10.734
74386SOL     OW25054   9.644  14.339   6.757
74386SOL    HW125055   9.653  14.263   6.700
74386SOL    HW225056   9.672  14.308   6.843
74387SOL     OW25057   5.906  11.172   8.939
74387SOL    HW125058   5.835  11.158   9.002
74387SOL    HW225059   5.969  11.226   8.987
74388SOL     OW25060   4.816   6.294  14.030
74388SOL    HW125061   4.907   6.309  14.055
74388SOL    HW225062   4.767   6.308  14.111
74389SOL     OW25063  13.643   7.723   4.523
74389SOL    HW125064  13.643   7.807   4.569
74389SOL    HW225065  13.721   7.679   4.556
74390SOL     OW25066  12.919  10.327  12.484
74390SOL    HW125067  12.916  10.404  12.428
74390SOL    HW225068  12.900  10.254  12.425
74391SOL     OW25069   2.616   3.172  10.740
74391SOL    HW125070   2.582   3.160  10.652
74391SOL    HW225071   2.704   3.209  10.727
74392SOL     OW25072  12.010   7.636  12.143
74392SOL    HW125073  11.944   7.568  12.127
74392SOL    HW225074  11.990   7.705  12.080
74393SOL     OW25075  12.663   2.456   3.555
74393SOL    HW125076  12.657   2.487   3.464
74393SOL    HW225077  12.756   2.459   3.575
74394SOL     OW25078  10.021   8.870  12.064
74394SOL    HW125079   9.931   8.868  12.096
74394SOL    HW225080  10.057   8.951  12.101
74395SOL     OW25081   2.715  12.172   7.472
74395SOL    HW125082   2.653  12.132   7.532
74395SOL    HW225083   2.682  12.261   7.459
74396SOL     OW25084   3.291   7.820  10.004
74396SOL    HW125085   3.340   7.855   9.930
74396SOL    HW225086   3.301   7.885  10.074
74397SOL     OW25087  13.588   3.500   8.682
74397SOL    HW125088  13.547   3.528   8.600
74397SOL    HW225089  13.558   3.410   8.694
74398SOL     OW25090   0.634   4.251  11.132
74398SOL    HW125091   0.655   4.252  11.225
74398SOL    HW225092   0.628   4.158  11.109
74399SOL     OW25093   8.106  13.936  14.553
74399SOL    HW125094   8.113  13.961  14.645
74399SOL    HW225095   8.025  13.885  14.549
74400SOL     OW25096   0.297  12.156   8.752
74400SOL    HW125097   0.237  12.108   8.696
74400SOL    HW225098   0.382  12.115   8.737
74401SOL     OW25099   3.149  12.324  13.269
74401SOL    HW125100   3.216  12.257  13.253
74401SOL    HW225101   3.188  12.384  13.332
74402SOL     OW25102   9.479   8.828  12.893
74402SOL    HW125103   9.424   8.752  12.910
74402SOL    HW225104   9.454   8.857  12.805
74403SOL     OW25105  13.615   3.062   6.712
74403SOL    HW125106  13.530   3.045   6.671
74403SOL    HW225107  13.595   3.115   6.789
74404SOL     OW25108   1.706  10.739   6.815
74404SOL    HW125109   1.710  10.692   6.731
74404SOL    HW225110   1.776  10.804   6.810
74405SOL     OW25111   2.905   2.651  14.277
74405SOL    HW125112   2.917   2.642  14.183
74405SOL    HW225113   2.942   2.570  14.314
74406SOL     OW25114  10.031   1.192  13.396
74406SOL    HW125115  10.083   1.116  13.422
74406SOL    HW225116   9.950   1.185  13.446
74407SOL     OW25117  11.046   2.898  14.189
74407SOL    HW125118  11.119   2.852  14.148
74407SOL    HW225119  11.076   2.921  14.277
74408SOL     OW25120   6.451   6.583   2.199
74408SOL    HW125121   6.527   6.626   2.238
74408SOL    HW225122   6.418   6.526   2.269
74409SOL     OW25123   2.662  11.875  11.949
74409SOL    HW125124   2.581  11.876  11.897
74409SOL    HW225125   2.698  11.788  11.935
74410SOL     OW25126   5.894   4.441   3.345
74410SOL    HW125127   5.849   4.434   3.430
74410SOL    HW225128   5.984   4.463   3.368
74411SOL     OW25129   4.068  14.157   4.376
74411SOL    HW125130   4.075  14.130   4.468
74411SOL    HW225131   4.068  14.075   4.327
74412SOL     OW25132   2.531   5.427  12.540
74412SOL    HW125133   2.557   5.492  12.475
74412SOL    HW225134   2.453   5.463  12.581
74413SOL     OW25135   7.800   5.161   4.263
74413SOL    HW125136   7.776   5.245   4.301
74413SOL    HW225137   7.719   5.110   4.265
74414SOL     OW25138  12.348  12.926   2.750
74414SOL    HW125139  12.405  13.002   2.739
74414SOL    HW225140  12.343  12.913   2.845
74415SOL     OW25141  12.554   9.845   6.734
74415SOL    HW125142  12.512   9.917   6.686
74415SOL    HW225143  12.496   9.770   6.720
74416SOL     OW25144   8.479  14.415   8.106
74416SOL    HW125145   8.417  14.486   8.120
74416SOL    HW225146   8.440  14.363   8.035
74417SOL     OW25147   5.567   9.602   6.179
74417SOL    HW125148   5.573   9.596   6.274
74417SOL    HW225149   5.587   9.514   6.148
74418SOL     OW25150  13.670  12.346   6.064
74418SOL    HW125151  13.605  12.281   6.091
74418SOL    HW225152  13.673  12.409   6.136
74419SOL     OW25153  12.224   8.434  11.933
74419SOL    HW125154  12.301   8.377  11.938
74419SOL    HW225155  12.251   8.515  11.978
74420SOL     OW25156   3.604   5.118  10.260
74420SOL    HW125157   3.638   5.083  10.178
74420SOL    HW225158   3.581   5.041  10.311
74421SOL     OW25159   1.540  13.585   1.013
74421SOL    HW125160   1.497  13.507   1.049
74421SOL    HW225161   1.591  13.552   0.939
74422SOL     OW25162   0.974   6.896   4.899
74422SOL    HW125163   1.069   6.880   4.894
74422SOL    HW225164   0.962   6.983   4.863
74423SOL     OW25165  13.897  12.922   4.210
74423SOL    HW125166  13.956  12.952   4.141
74423SOL    HW225167  13.811  12.917   4.167
74424SOL     OW25168   5.769   1.594  11.007
74424SOL    HW125169   5.778   1.640  11.091
74424SOL    HW225170   5.682   1.555  11.011
74425SOL     OW25171   9.357  12.500   6.220
74425SOL    HW125172   9.416  12.447   6.274
74425SOL    HW225173   9.415  12.559   6.172
74426SOL     OW25174   3.626   4.607   7.275
74426SOL    HW125175   3.664   4.530   7.317
74426SOL    HW225176   3.636   4.677   7.341
74427SOL     OW25177   1.812   5.952   1.710
74427SOL    HW125178   1.817   5.881   1.774
74427SOL    HW225179   1.874   6.018   1.742
74428SOL     OW25180  14.329   6.652  14.228
74428SOL    HW125181  14.296   6.731  14.271
74428SOL    HW225182  14.287   6.580  14.274
74429SOL     OW25183   8.923   8.435  10.989
74429SOL    HW125184   8.914   8.344  11.018
74429SOL    HW225185   8.844   8.453  10.940
74430SOL     OW25186   1.449   2.368   4.507
74430SOL    HW125187   1.480   2.439   4.564
74430SOL    HW225188   1.435   2.411   4.423
74431SOL     OW25189   5.181   9.499   8.690
74431SOL    HW125190   5.116   9.521   8.623
74431SOL    HW225191   5.263   9.533   8.656
74432SOL     OW25192   1.332  14.442   7.625
74432SOL    HW125193   1.267  14.447   7.695
74432SOL    HW225194   1.347  14.532   7.599
74433SOL     OW25195  11.897   5.411   9.261
74433SOL    HW125196  11.913   5.459   9.180
74433SOL    HW225197  11.964   5.343   9.263
74434SOL     OW25198  11.819   5.206   1.831
74434SOL    HW125199  11.826   5.221   1.736
74434SOL    HW225200  11.853   5.286   1.870
74435SOL     OW25201  14.123   0.246  12.825
74435SOL    HW125202  14.054   0.309  12.804
74435SOL    HW225203  14.205   0.290  12.801
74436SOL     OW25204   8.070  14.175   8.473
74436SOL    HW125205   8.007  14.116   8.431
74436SOL    HW225206   8.144  14.177   8.413
74437SOL     OW25207   2.060   0.554   2.358
74437SOL    HW125208   2.153   0.551   2.336
74437SOL    HW225209   2.031   0.640   2.327
74438SOL     OW25210  14.865   7.057  14.690
74438SOL    HW125211  14.832   7.085  14.775
74438SOL    HW225212   0.023   7.138  14.647
74439SOL     OW25213   6.245   3.293   3.562
74439SOL    HW125214   6.296   3.357   3.513
74439SOL    HW225215   6.308   3.225   3.587
74440SOL     OW25216   0.569  14.376   1.062
74440SOL    HW125217   0.561  14.468   1.087
74440SOL    HW225218   0.533  14.327   1.136
74441SOL     OW25219   4.569  12.784  14.656
74441SOL    HW125220   4.527  12.713  14.704
74441SOL    HW225221   4.661  12.782  14.684
74442SOL     OW25222   9.913   2.543   3.687
74442SOL    HW125223   9.847   2.586   3.634
74442SOL    HW225224   9.863   2.494   3.753
74443SOL     OW25225   6.894   4.540   0.250
74443SOL    HW125226   6.954   4.559   0.322
74443SOL    HW225227   6.809   4.572   0.280
74444SOL     OW25228  11.565  12.067   3.472
74444SOL    HW125229  11.541  12.157   3.451
74444SOL    HW225230  11.500  12.014   3.425
74445SOL     OW25231   2.595   9.380  14.783
74445SOL    HW125232   2.526   9.357  14.845
74445SOL    HW225233   2.621   9.468  14.808
74446SOL     OW25234   6.935  12.771   2.118
74446SOL    HW125235   6.955  12.681   2.095
74446SOL    HW225236   6.931  12.772   2.213
74447SOL     OW25237   2.057   5.850   9.422
74447SOL    HW125238   2.008   5.928   9.395
74447SOL    HW225239   2.144   5.883   9.444
74448SOL     OW25240   6.685  10.918   0.029
74448SOL    HW125241   6.600  10.899   0.067
74448SOL    HW225242   6.735  10.836   0.039
74449SOL     OW25243   5.202  11.868   6.936
74449SOL    HW125244   5.143  11.802   6.972
74449SOL    HW225245   5.162  11.952   6.960
74450SOL     OW25246   9.498  12.911  10.238
74450SOL    HW125247   9.435  12.870  10.299
74450SOL    HW225248   9.476  13.004  10.240
74451SOL     OW25249   0.859   6.748  11.670
74451SOL    HW125250   0.810   6.805  11.610
74451SOL    HW225251   0.792   6.712  11.727
74452SOL     OW25252   6.476  12.418   1.711
74452SOL    HW125253   6.399  12.449   1.664
74452SOL    HW225254   6.531  12.496   1.721
74453SOL     OW25255  13.430   5.458  11.937
74453SOL    HW125256  13.442   5.476  11.843
74453SOL    HW225257  13.337   5.478  11.953
74454SOL     OW25258  14.060  11.827   8.242
74454SOL    HW125259  13.999  11.853   8.310
74454SOL    HW225260  14.018  11.753   8.198
74455SOL     OW25261   4.874   3.078   6.894
74455SOL    HW125262   4.827   3.131   6.957
74455SOL    HW225263   4.948   3.042   6.943
74456SOL     OW25264   8.565   4.388   8.752
74456SOL    HW125265   8.632   4.403   8.819
74456SOL    HW225266   8.545   4.295   8.758
74457SOL     OW25267   4.251  12.952  14.648
74457SOL    HW125268   4.164  12.919  14.668
74457SOL    HW225269   4.289  12.974  14.733
74458SOL     OW25270   7.033   8.126  13.780
74458SOL    HW125271   7.065   8.194  13.720
74458SOL    HW225272   6.944   8.107  13.749
74459SOL     OW25273  13.745  14.541  11.139
74459SOL    HW125274  13.824  14.571  11.094
74459SOL    HW225275  13.675  14.549  11.075
74460SOL     OW25276   3.853   7.950  10.283
74460SOL    HW125277   3.875   7.994  10.201
74460SOL    HW225278   3.914   7.987  10.347
74461SOL     OW25279  14.312   8.865  14.425
74461SOL    HW125280  14.263   8.864  14.343
74461SOL    HW225281  14.351   8.778  14.431
74462SOL     OW25282  12.198   8.371   9.145
74462SOL    HW125283  12.155   8.457   9.141
74462SOL    HW225284  12.132   8.313   9.182
74463SOL     OW25285  12.917  10.516  13.743
74463SOL    HW125286  12.900  10.606  13.716
74463SOL    HW225287  12.989  10.486  13.687
74464SOL     OW25288  11.759   1.180   0.612
74464SOL    HW125289  11.823   1.111   0.627
74464SOL    HW225290  11.674   1.137   0.625
74465SOL     OW25291  12.875   2.712  13.374
74465SOL    HW125292  12.950   2.691  13.429
74465SOL    HW225293  12.865   2.637  13.316
74466SOL     OW25294  10.341   4.753   0.494
74466SOL    HW125295  10.313   4.819   0.430
74466SOL    HW225296  10.312   4.670   0.457
74467SOL     OW25297   5.469   9.027   1.421
74467SOL    HW125298   5.544   9.073   1.459
74467SOL    HW225299   5.502   8.988   1.340
74468SOL     OW25300  10.725   0.289   4.905
74468SOL    HW125301  10.672   0.282   4.826
74468SOL    HW225302  10.698   0.372   4.945
74469SOL     OW25303   5.484   0.469  13.297
74469SOL    HW125304   5.530   0.422  13.228
74469SOL    HW225305   5.416   0.409  13.327
74470SOL     OW25306  11.351   8.201   4.748
74470SOL    HW125307  11.276   8.227   4.801
74470SOL    HW225308  11.424   8.254   4.780
74471SOL     OW25309   5.482   4.853   8.145
74471SOL    HW125310   5.441   4.923   8.195
74471SOL    HW225311   5.487   4.887   8.055
74472SOL     OW25312  10.691   3.811   0.112
74472SOL    HW125313  10.653   3.864   0.042
74472SOL    HW225314  10.767   3.770   0.073
74473SOL     OW25315   4.970   2.924  14.132
74473SOL    HW125316   5.027   2.962  14.066
74473SOL    HW225317   4.882   2.945  14.103
74474SOL     OW25318   7.087   4.865  11.324
74474SOL    HW125319   7.069   4.959  11.324
74474SOL    HW225320   7.021   4.828  11.265
74475SOL     OW25321  12.481   3.984   2.819
74475SOL    HW125322  12.461   3.895   2.845
74475SOL    HW225323  12.530   4.021   2.893
74476SOL     OW25324   9.622   9.570   8.178
74476SOL    HW125325   9.693   9.510   8.154
74476SOL    HW225326   9.547   9.539   8.128
74477SOL     OW25327   6.746  10.901  14.628
74477SOL    HW125328   6.673  10.843  14.608
74477SOL    HW225329   6.730  10.929  14.718
74478SOL     OW25330   4.924   3.303   5.805
74478SOL    HW125331   4.849   3.258   5.768
74478SOL    HW225332   4.916   3.289   5.900
74479SOL     OW25333   3.471   7.402   8.818
74479SOL    HW125334   3.456   7.370   8.729
74479SOL    HW225335   3.566   7.414   8.824
74480SOL     OW25336  11.771   1.935   0.654
74480SOL    HW125337  11.794   1.842   0.653
74480SOL    HW225338  11.803   1.968   0.570
74481SOL     OW25339   6.612   2.784   2.853
74481SOL    HW125340   6.579   2.747   2.935
74481SOL    HW225341   6.558   2.862   2.838
74482SOL     OW25342   2.162  11.080   5.577
74482SOL    HW125343   2.117  11.143   5.522
74482SOL    HW225344   2.100  11.060   5.647
74483SOL     OW25345   6.945   1.050   7.581
74483SOL    HW125346   7.000   0.974   7.562
74483SOL    HW225347   6.858   1.012   7.599
74484SOL     OW25348   1.284   3.061  12.977
74484SOL    HW125349   1.220   3.122  12.939
74484SOL    HW225350   1.239   2.977  12.979
74485SOL     OW25351  10.997   9.942  12.900
74485SOL    HW125352  11.044  10.022  12.876
74485SOL    HW225353  10.968   9.905  12.817
74486SOL     OW25354  11.170  13.367   9.452
74486SOL    HW125355  11.242  13.400   9.399
74486SOL    HW225356  11.104  13.437   9.451
74487SOL     OW25357   9.400   5.783  12.855
74487SOL    HW125358   9.382   5.691  12.876
74487SOL    HW225359   9.313   5.821  12.840
74488SOL     OW25360  11.501   4.985   5.396
74488SOL    HW125361  11.463   5.044   5.462
74488SOL    HW225362  11.531   4.909   5.446
74489SOL     OW25363   8.028  11.549  11.532
74489SOL    HW125364   7.946  11.505  11.510
74489SOL    HW225365   8.016  11.640  11.505
74490SOL     OW25366   7.737   6.701   0.160
74490SOL    HW125367   7.811   6.761   0.155
74490SOL    HW225368   7.771   6.617   0.128
74491SOL     OW25369  11.355  10.714  13.085
74491SOL    HW125370  11.399  10.728  13.001
74491SOL    HW225371  11.402  10.771  13.146
74492SOL     OW25372   8.385   1.569  11.948
74492SOL    HW125373   8.303   1.523  11.965
74492SOL    HW225374   8.358   1.653  11.911
74493SOL     OW25375   2.865  12.480   7.577
74493SOL    HW125376   2.944  12.430   7.562
74493SOL    HW225377   2.823  12.438   7.652
74494SOL     OW25378   3.970  10.222   3.562
74494SOL    HW125379   3.956  10.146   3.619
74494SOL    HW225380   3.984  10.185   3.475
74495SOL     OW25381   3.438   7.992   2.477
74495SOL    HW125382   3.447   7.912   2.529
74495SOL    HW225383   3.519   7.996   2.426
74496SOL     OW25384   1.277   8.204   9.860
74496SOL    HW125385   1.236   8.249   9.934
74496SOL    HW225386   1.276   8.111   9.885
74497SOL     OW25387   8.902   6.396   9.233
74497SOL    HW125388   8.963   6.432   9.168
74497SOL    HW225389   8.958   6.351   9.296
74498SOL     OW25390  12.520   2.611   5.824
74498SOL    HW125391  12.481   2.603   5.737
74498SOL    HW225392  12.459   2.567   5.882
74499SOL     OW25393  11.377  12.128   5.911
74499SOL    HW125394  11.422  12.128   5.826
74499SOL    HW225395  11.428  12.069   5.965
74500SOL     OW25396  10.985   5.853   2.482
74500SOL    HW125397  10.926   5.777   2.480
74500SOL    HW225398  11.055   5.828   2.542
74501SOL     OW25399   9.626  11.146  14.053
74501SOL    HW125400   9.707  11.127  14.006
74501SOL    HW225401   9.614  11.241  14.043
74502SOL     OW25402   8.195  10.975  13.879
74502SOL    HW125403   8.285  10.994  13.853
74502SOL    HW225404   8.169  11.049  13.932
74503SOL     OW25405   5.632   7.859   0.607
74503SOL    HW125406   5.602   7.820   0.525
74503SOL    HW225407   5.654   7.950   0.584
74504SOL     OW25408   2.673   1.674   6.923
74504SOL    HW125409   2.623   1.736   6.871
74504SOL    HW225410   2.764   1.686   6.896
74505SOL     OW25411   4.922   4.736   9.348
74505SOL    HW125412   4.833   4.760   9.321
74505SOL    HW225413   4.928   4.643   9.328
74506SOL     OW25414   1.905   6.543  10.453
74506SOL    HW125415   1.848   6.577  10.384
74506SOL    HW225416   1.907   6.613  10.518
74507SOL     OW25417  12.902   9.054   2.442
74507SOL    HW125418  12.952   9.092   2.515
74507SOL    HW225419  12.821   9.105   2.439
74508SOL     OW25420   3.865   3.165  14.669
74508SOL    HW125421   3.926   3.218  14.618
74508SOL    HW225422   3.824   3.107  14.604
74509SOL     OW25423  13.322   6.386  13.068
74509SOL    HW125424  13.314   6.396  12.973
74509SOL    HW225425  13.235   6.406  13.102
74510SOL     OW25426   1.478   0.972   6.102
74510SOL    HW125427   1.394   1.016   6.112
74510SOL    HW225428   1.544   1.042   6.105
74511SOL     OW25429   2.739   7.773   2.744
74511SOL    HW125430   2.727   7.852   2.691
74511SOL    HW225431   2.650   7.742   2.761
74512SOL     OW25432  13.933   5.762  10.836
74512SOL    HW125433  13.956   5.852  10.813
74512SOL    HW225434  13.902   5.767  10.926
74513SOL     OW25435   7.711   3.724   4.408
74513SOL    HW125436   7.658   3.703   4.485
74513SOL    HW225437   7.655   3.708   4.333
74514SOL     OW25438   9.439   0.561   7.281
74514SOL    HW125439   9.484   0.481   7.306
74514SOL    HW225440   9.405   0.596   7.364
74515SOL     OW25441   3.442  13.904   3.583
74515SOL    HW125442   3.377  13.952   3.531
74515SOL    HW225443   3.486  13.972   3.634
74516SOL     OW25444   2.073  14.204  13.607
74516SOL    HW125445   2.040  14.293  13.618
74516SOL    HW225446   2.161  14.215  13.570
74517SOL     OW25447   9.284   9.664  13.289
74517SOL    HW125448   9.354   9.630  13.343
74517SOL    HW225449   9.267   9.752  13.324
74518SOL     OW25450   3.304   8.363  10.562
74518SOL    HW125451   3.298   8.428  10.631
74518SOL    HW225452   3.256   8.287  10.596
74519SOL     OW25453   9.015   5.980   9.296
74519SOL    HW125454   9.049   6.035   9.226
74519SOL    HW225455   8.977   5.904   9.252
74520SOL     OW25456   9.044   9.750   7.950
74520SOL    HW125457   8.974   9.707   7.902
74520SOL    HW225458   8.999   9.815   8.005
74521SOL     OW25459  11.192  13.234   5.693
74521SOL    HW125460  11.272  13.267   5.653
74521SOL    HW225461  11.144  13.313   5.720
74522SOL     OW25462   3.510  11.445  14.861
74522SOL    HW125463   3.601  11.429   0.016
74522SOL    HW225464   3.510  11.439  14.766
74523SOL     OW25465   6.474  14.616   2.277
74523SOL    HW125466   6.520  14.532   2.280
74523SOL    HW225467   6.536  14.676   2.236
74524SOL     OW25468   9.343   2.238   6.640
74524SOL    HW125469   9.433   2.236   6.606
74524SOL    HW225470   9.289   2.251   6.562
74525SOL     OW25471   3.663  13.633  13.909
74525SOL    HW125472   3.755  13.607  13.902
74525SOL    HW225473   3.633  13.590  13.989
74526SOL     OW25474  10.987   9.343   8.570
74526SOL    HW125475  10.991   9.316   8.662
74526SOL    HW225476  10.918   9.289   8.532
74527SOL     OW25477   5.158  12.628  10.246
74527SOL    HW125478   5.147  12.685  10.170
74527SOL    HW225479   5.085  12.568  10.243
74528SOL     OW25480   7.485   7.504   2.551
74528SOL    HW125481   7.437   7.542   2.625
74528SOL    HW225482   7.501   7.414   2.578
74529SOL     OW25483  10.194   7.734  14.083
74529SOL    HW125484  10.151   7.817  14.062
74529SOL    HW225485  10.242   7.711  14.003
74530SOL     OW25486  10.134   3.277   3.224
74530SOL    HW125487  10.225   3.303   3.242
74530SOL    HW225488  10.081   3.350   3.254
74531SOL     OW25489   0.934  13.959  11.293
74531SOL    HW125490   0.966  14.003  11.215
74531SOL    HW225491   0.845  13.993  11.306
74532SOL     OW25492   0.316  11.713  12.064
74532SOL    HW125493   0.249  11.764  12.109
74532SOL    HW225494   0.268  11.644  12.020
74533SOL     OW25495   2.483   6.239   0.240
74533SOL    HW125496   2.404   6.222   0.189
74533SOL    HW225497   2.555   6.217   0.180
74534SOL     OW25498  13.273   4.388   7.829
74534SOL    HW125499  13.271   4.374   7.735
74534SOL    HW225500  13.327   4.318   7.864
74535SOL     OW25501   3.789  13.360  11.330
74535SOL    HW125502   3.783  13.418  11.406
74535SOL    HW225503   3.870  13.312  11.343
74536SOL     OW25504   2.959   3.485   2.218
74536SOL    HW125505   2.937   3.410   2.274
74536SOL    HW225506   2.930   3.459   2.130
74537SOL     OW25507  13.624   7.455  10.443
74537SOL    HW125508  13.551   7.393  10.434
74537SOL    HW225509  13.581   7.540  10.455
74538SOL     OW25510   2.483  10.475  10.339
74538SOL    HW125511   2.390  10.491  10.325
74538SOL    HW225512   2.496  10.383  10.317
74539SOL     OW25513   8.080  13.028  14.073
74539SOL    HW125514   8.058  13.104  14.020
74539SOL    HW225515   7.996  12.999  14.110
74540SOL     OW25516   8.430   7.772   7.935
74540SOL    HW125517   8.392   7.720   7.864
74540SOL    HW225518   8.518   7.794   7.903
74541SOL     OW25519  14.184  11.912  11.632
74541SOL    HW125520  14.184  11.990  11.577
74541SOL    HW225521  14.103  11.919  11.684
74542SOL     OW25522   2.131   4.452   4.780
74542SOL    HW125523   2.201   4.430   4.717
74542SOL    HW225524   2.142   4.388   4.850
74543SOL     OW25525   6.584   3.862  13.401
74543SOL    HW125526   6.528   3.815  13.339
74543SOL    HW225527   6.632   3.924  13.346
74544SOL     OW25528   8.549   6.693  13.210
74544SOL    HW125529   8.454   6.686  13.218
74544SOL    HW225530   8.582   6.607  13.235
74545SOL     OW25531  12.871   8.950  10.142
74545SOL    HW125532  12.931   8.931  10.214
74545SOL    HW225533  12.847   9.042  10.154
74546SOL     OW25534  13.326   6.075   6.612
74546SOL    HW125535  13.422   6.064   6.610
74546SOL    HW225536  13.302   6.089   6.520
74547SOL     OW25537  13.929   8.939   2.577
74547SOL    HW125538  13.979   8.925   2.497
74547SOL    HW225539  13.975   8.889   2.644
74548SOL     OW25540   3.916   2.000   9.513
74548SOL    HW125541   3.927   2.088   9.548
74548SOL    HW225542   3.965   2.000   9.430
74549SOL     OW25543   4.514  10.089   7.064
74549SOL    HW125544   4.487  10.165   7.116
74549SOL    HW225545   4.506  10.119   6.973
74550SOL     OW25546   4.866   3.729   6.836
74550SOL    HW125547   4.777   3.714   6.806
74550SOL    HW225548   4.868   3.822   6.859
74551SOL     OW25549   5.228   1.077  10.818
74551SOL    HW125550   5.307   1.051  10.865
74551SOL    HW225551   5.184   1.138  10.876
74552SOL     OW25552   5.112  11.567   1.061
74552SOL    HW125553   5.094  11.533   0.974
74552SOL    HW225554   5.071  11.505   1.121
74553SOL     OW25555   6.710   8.120   5.475
74553SOL    HW125556   6.804   8.129   5.488
74553SOL    HW225557   6.683   8.202   5.433
74554SOL     OW25558   3.853   6.360   1.699
74554SOL    HW125559   3.877   6.320   1.782
74554SOL    HW225560   3.933   6.356   1.647
74555SOL     OW25561   1.289   5.282   5.367
74555SOL    HW125562   1.216   5.339   5.392
74555SOL    HW225563   1.332   5.260   5.450
74556SOL     OW25564  14.247  12.231   4.127
74556SOL    HW125565  14.258  12.138   4.148
74556SOL    HW225566  14.168  12.234   4.073
74557SOL     OW25567   2.755  12.912  10.493
74557SOL    HW125568   2.834  12.932  10.443
74557SOL    HW225569   2.688  12.969  10.455
74558SOL     OW25570   3.475  14.032   5.563
74558SOL    HW125571   3.526  14.080   5.628
74558SOL    HW225572   3.540  13.990   5.507
74559SOL     OW25573   3.382   2.354   8.518
74559SOL    HW125574   3.392   2.330   8.610
74559SOL    HW225575   3.451   2.418   8.502
74560SOL     OW25576   2.734  10.376   9.645
74560SOL    HW125577   2.774  10.374   9.733
74560SOL    HW225578   2.762  10.460   9.609
74561SOL     OW25579   0.699   2.727   5.372
74561SOL    HW125580   0.739   2.804   5.414
74561SOL    HW225581   0.723   2.735   5.280
74562SOL     OW25582   5.478   4.543   9.914
74562SOL    HW125583   5.435   4.458   9.904
74562SOL    HW225584   5.425   4.603   9.861
74563SOL     OW25585   0.254  12.028  13.802
74563SOL    HW125586   0.160  12.019  13.819
74563SOL    HW225587   0.291  12.055  13.886
74564SOL     OW25588  12.186  14.797   1.554
74564SOL    HW125589  12.163   0.020   1.547
74564SOL    HW225590  12.180  14.777   1.647
74565SOL     OW25591   6.980   5.908   6.047
74565SOL    HW125592   7.053   5.878   6.101
74565SOL    HW225593   7.004   5.884   5.958
74566SOL     OW25594   2.964  12.776   9.440
74566SOL    HW125595   2.964  12.829   9.361
74566SOL    HW225596   2.872  12.754   9.454
74567SOL     OW25597  14.358   9.347  14.001
74567SOL    HW125598  14.410   9.326  14.079
74567SOL    HW225599  14.296   9.413  14.031
74568SOL     OW25600   4.887   0.416   1.294
74568SOL    HW125601   4.928   0.346   1.243
74568SOL    HW225602   4.820   0.452   1.235
74569SOL     OW25603  10.845   5.406   2.734
74569SOL    HW125604  10.841   5.448   2.820
74569SOL    HW225605  10.754   5.399   2.706
74570SOL     OW25606  13.852   9.128   4.102
74570SOL    HW125607  13.821   9.038   4.104
74570SOL    HW225608  13.929   9.129   4.159
74571SOL     OW25609  12.128   8.382  13.644
74571SOL    HW125610  12.205   8.433  13.617
74571SOL    HW225611  12.164   8.309  13.694
74572SOL     OW25612   8.798  10.555  14.767
74572SOL    HW125613   8.775  10.594  14.682
74572SOL    HW225614   8.893  10.561  14.771
74573SOL     OW25615  10.195   6.537   6.483
74573SOL    HW125616  10.103   6.553   6.461
74573SOL    HW225617  10.238   6.520   6.399
74574SOL     OW25618   8.089  14.067   3.622
74574SOL    HW125619   8.104  14.002   3.553
74574SOL    HW225620   8.147  14.039   3.694
74575SOL     OW25621  12.904   2.618   2.433
74575SOL    HW125622  12.868   2.660   2.354
74575SOL    HW225623  12.826   2.588   2.480
74576SOL     OW25624   4.642  13.188   0.978
74576SOL    HW125625   4.704  13.119   0.951
74576SOL    HW225626   4.559  13.142   0.987
74577SOL     OW25627   6.455  12.858   6.947
74577SOL    HW125628   6.395  12.789   6.977
74577SOL    HW225629   6.491  12.824   6.865
74578SOL     OW25630  11.696   0.531  10.730
74578SOL    HW125631  11.649   0.487  10.801
74578SOL    HW225632  11.709   0.620  10.762
74579SOL     OW25633  14.396   8.240  10.432
74579SOL    HW125634  14.389   8.147  10.453
74579SOL    HW225635  14.307   8.266  10.409
74580SOL     OW25636  11.428   3.802   0.068
74580SOL    HW125637  11.411   3.731   0.006
74580SOL    HW225638  11.428   3.881   0.014
74581SOL     OW25639  11.181  10.248   9.455
74581SOL    HW125640  11.093  10.240   9.492
74581SOL    HW225641  11.215  10.329   9.492
74582SOL     OW25642   3.567   2.659   9.642
74582SOL    HW125643   3.486   2.704   9.665
74582SOL    HW225644   3.568   2.581   9.697
74583SOL     OW25645   2.173  10.435   9.216
74583SOL    HW125646   2.190  10.461   9.307
74583SOL    HW225647   2.179  10.339   9.217
74584SOL     OW25648   6.506  14.270   3.474
74584SOL    HW125649   6.446  14.209   3.515
74584SOL    HW225650   6.450  14.330   3.423
74585SOL     OW25651   0.266   8.062   6.401
74585SOL    HW125652   0.360   8.069   6.385
74585SOL    HW225653   0.226   8.068   6.314
74586SOL     OW25654  11.024  11.887   3.483
74586SOL    HW125655  11.052  11.970   3.522
74586SOL    HW225656  10.948  11.910   3.429
74587SOL     OW25657   6.513   8.199   1.623
74587SOL    HW125658   6.485   8.161   1.707
74587SOL    HW225659   6.565   8.129   1.582
74588SOL     OW25660  11.799   6.533   1.946
74588SOL    HW125661  11.761   6.475   1.880
74588SOL    HW225662  11.768   6.621   1.922
74589SOL     OW25663   9.642   3.354  10.864
74589SOL    HW125664   9.673   3.274  10.905
74589SOL    HW225665   9.569   3.383  10.919
74590SOL     OW25666  12.655  14.379  13.146
74590SOL    HW125667  12.624  14.333  13.068
74590SOL    HW225668  12.582  14.435  13.172
74591SOL     OW25669   9.748  14.716   6.042
74591SOL    HW125670   9.774  14.747   5.955
74591SOL    HW225671   9.751  14.621   6.036
74592SOL     OW25672  10.976   0.194  11.374
74592SOL    HW125673  10.980   0.285  11.404
74592SOL    HW225674  10.923   0.150  11.440
74593SOL     OW25675   8.680   3.615   9.592
74593SOL    HW125676   8.679   3.650   9.503
74593SOL    HW225677   8.588   3.595   9.611
74594SOL     OW25678   9.794  12.253  11.195
74594SOL    HW125679   9.820  12.228  11.283
74594SOL    HW225680   9.782  12.348  11.199
74595SOL     OW25681   4.801  11.369   0.338
74595SOL    HW125682   4.886  11.330   0.321
74595SOL    HW225683   4.739  11.297   0.328
74596SOL     OW25684   0.309  11.297  11.161
74596SOL    HW125685   0.301  11.391  11.177
74596SOL    HW225686   0.297  11.257  11.247
74597SOL     OW25687  12.677  11.632  14.799
74597SOL    HW125688  12.668  11.726  14.779
74597SOL    HW225689  12.768  11.612  14.778
74598SOL     OW25690   3.703   6.643  12.809
74598SOL    HW125691   3.680   6.733  12.829
74598SOL    HW225692   3.620   6.601  12.786
74599SOL     OW25693   5.791   8.015   1.870
74599SOL    HW125694   5.800   8.103   1.833
74599SOL    HW225695   5.758   8.030   1.959
74600SOL     OW25696   6.231   5.255   5.282
74600SOL    HW125697   6.281   5.290   5.208
74600SOL    HW225698   6.189   5.331   5.320
74601SOL     OW25699   5.268  11.225   5.303
74601SOL    HW125700   5.206  11.152   5.298
74601SOL    HW225701   5.219  11.300   5.270
74602SOL     OW25702   4.564   3.254   4.698
74602SOL    HW125703   4.477   3.223   4.723
74602SOL    HW225704   4.620   3.234   4.773
74603SOL     OW25705   8.438   8.427   1.507
74603SOL    HW125706   8.491   8.353   1.536
74603SOL    HW225707   8.348   8.395   1.510
74604SOL     OW25708  14.611   8.177   4.945
74604SOL    HW125709  14.530   8.177   4.894
74604SOL    HW225710  14.676   8.220   4.888
74605SOL     OW25711   6.770   8.651  10.359
74605SOL    HW125712   6.701   8.702  10.401
74605SOL    HW225713   6.726   8.573  10.327
74606SOL     OW25714   3.289  10.810   6.398
74606SOL    HW125715   3.257  10.751   6.329
74606SOL    HW225716   3.380  10.783   6.411
74607SOL     OW25717   7.512  11.045  13.137
74607SOL    HW125718   7.589  11.087  13.099
74607SOL    HW225719   7.547  10.990  13.207
74608SOL     OW25720   2.761   1.825  10.892
74608SOL    HW125721   2.746   1.734  10.918
74608SOL    HW225722   2.710   1.876  10.954
74609SOL     OW25723   3.661   1.628   5.146
74609SOL    HW125724   3.595   1.673   5.198
74609SOL    HW225725   3.665   1.540   5.182
74610SOL     OW25726   9.959   2.940   7.216
74610SOL    HW125727   9.882   2.903   7.173
74610SOL    HW225728   9.924   2.994   7.287
74611SOL     OW25729   4.611   2.327   0.194
74611SOL    HW125730   4.695   2.337   0.149
74611SOL    HW225731   4.635   2.312   0.285
74612SOL     OW25732   8.077  10.925  14.194
74612SOL    HW125733   8.004  10.864  14.194
74612SOL    HW225734   8.105  10.929  14.286
74613SOL     OW25735   9.762   1.263   9.261
74613SOL    HW125736   9.837   1.279   9.319
74613SOL    HW225737   9.794   1.198   9.198
74614SOL     OW25738   2.509   1.109   4.398
74614SOL    HW125739   2.590   1.144   4.433
74614SOL    HW225740   2.470   1.061   4.471
74615SOL     OW25741   2.111  12.871   1.049
74615SOL    HW125742   2.157  12.831   0.975
74615SOL    HW225743   2.109  12.964   1.029
74616SOL     OW25744   6.241  12.607  14.016
74616SOL    HW125745   6.270  12.641  13.931
74616SOL    HW225746   6.146  12.597  14.006
74617SOL     OW25747   4.124   6.256   5.160
74617SOL    HW125748   4.190   6.190   5.138
74617SOL    HW225749   4.128   6.263   5.256
74618SOL     OW25750   6.457   0.652   8.481
74618SOL    HW125751   6.458   0.715   8.409
74618SOL    HW225752   6.548   0.624   8.489
74619SOL     OW25753   7.030  12.037   9.715
74619SOL    HW125754   7.019  11.987   9.796
74619SOL    HW225755   6.941  12.050   9.683
74620SOL     OW25756   5.712  14.527   4.668
74620SOL    HW125757   5.617  14.533   4.654
74620SOL    HW225758   5.721  14.481   4.751
74621SOL     OW25759   5.522  11.400  11.417
74621SOL    HW125760   5.587  11.470  11.415
74621SOL    HW225761   5.527  11.360  11.331
74622SOL     OW25762  13.317   4.620   6.251
74622SOL    HW125763  13.354   4.592   6.167
74622SOL    HW225764  13.246   4.558   6.267
74623SOL     OW25765  11.773  14.374   4.808
74623SOL    HW125766  11.758  14.464   4.839
74623SOL    HW225767  11.824  14.384   4.728
74624SOL     OW25768   6.182  11.349   8.620
74624SOL    HW125769   6.102  11.348   8.673
74624SOL    HW225770   6.163  11.410   8.549
74625SOL     OW25771   7.532   4.448   2.195
74625SOL    HW125772   7.486   4.463   2.113
74625SOL    HW225773   7.465   4.463   2.263
74626SOL     OW25774   3.425   9.165   9.388
74626SOL    HW125775   3.499   9.225   9.375
74626SOL    HW225776   3.409   9.127   9.302
74627SOL     OW25777   0.789   4.293   6.028
74627SOL    HW125778   0.785   4.385   6.055
74627SOL    HW225779   0.870   4.260   6.068
74628SOL     OW25780  10.927   6.725   0.623
74628SOL    HW125781  10.842   6.747   0.662
74628SOL    HW225782  10.963   6.658   0.681
74629SOL     OW25783   8.123   3.306   4.196
74629SOL    HW125784   8.053   3.265   4.246
74629SOL    HW225785   8.088   3.393   4.173
74630SOL     OW25786  13.634   2.658   2.794
74630SOL    HW125787  13.556   2.642   2.846
74630SOL    HW225788  13.694   2.587   2.817
74631SOL     OW25789   6.749   5.845  14.213
74631SOL    HW125790   6.801   5.842  14.293
74631SOL    HW225791   6.660   5.865  14.242
74632SOL     OW25792  10.143   4.422   9.058
74632SOL    HW125793  10.183   4.337   9.041
74632SOL    HW225794  10.049   4.407   9.046
74633SOL     OW25795   4.100  12.306  12.662
74633SOL    HW125796   4.145  12.247  12.724
74633SOL    HW225797   4.014  12.266  12.650
74634SOL     OW25798  11.084   6.877   1.960
74634SOL    HW125799  11.155   6.941   1.949
74634SOL    HW225800  11.048   6.896   2.047
74635SOL     OW25801   6.525   9.407  14.215
74635SOL    HW125802   6.452   9.456  14.252
74635SOL    HW225803   6.514   9.318  14.249
74636SOL     OW25804  13.101   1.338   4.903
74636SOL    HW125805  13.154   1.417   4.898
74636SOL    HW225806  13.156   1.275   4.950
74637SOL     OW25807   7.901   9.154  14.736
74637SOL    HW125808   7.817   9.166  14.691
74637SOL    HW225809   7.902   9.219  14.806
74638SOL     OW25810   6.992   9.783  12.889
74638SOL    HW125811   6.966   9.696  12.859
74638SOL    HW225812   7.078   9.769  12.929
74639SOL     OW25813   2.819   0.494   6.024
74639SOL    HW125814   2.900   0.471   6.068
74639SOL    HW225815   2.769   0.542   6.090
74640SOL     OW25816   3.904   5.124   7.412
74640SOL    HW125817   3.902   5.122   7.316
74640SOL    HW225818   3.911   5.217   7.434
74641SOL     OW25819   6.019  13.432   3.000
74641SOL    HW125820   6.081  13.500   3.030
74641SOL    HW225821   6.068  13.383   2.935
74642SOL     OW25822   8.960   9.885   6.942
74642SOL    HW125823   8.970   9.953   6.875
74642SOL    HW225824   8.869   9.856   6.932
74643SOL     OW25825   9.801  12.014   6.703
74643SOL    HW125826   9.766  12.079   6.642
74643SOL    HW225827   9.848  12.066   6.768
74644SOL     OW25828   1.039   5.831   0.444
74644SOL    HW125829   1.052   5.736   0.433
74644SOL    HW225830   1.127   5.867   0.445
74645SOL     OW25831   4.099  13.657   7.714
74645SOL    HW125832   4.065  13.602   7.644
74645SOL    HW225833   4.085  13.746   7.684
74646SOL     OW25834   5.964   3.417   7.643
74646SOL    HW125835   5.923   3.480   7.583
74646SOL    HW225836   6.058   3.429   7.630
74647SOL     OW25837   2.577  12.430   8.060
74647SOL    HW125838   2.561  12.521   8.083
74647SOL    HW225839   2.611  12.391   8.140
74648SOL     OW25840   0.397  10.083  13.314
74648SOL    HW125841   0.411  10.174  13.286
74648SOL    HW225842   0.302  10.078  13.327
74649SOL     OW25843   4.339   3.329  12.105
74649SOL    HW125844   4.307   3.351  12.192
74649SOL    HW225845   4.427   3.366  12.100
74650SOL     OW25846   5.729   4.829  13.652
74650SOL    HW125847   5.647   4.779  13.651
74650SOL    HW225848   5.792   4.773  13.607
74651SOL     OW25849   6.868   8.020   3.628
74651SOL    HW125850   6.827   7.958   3.689
74651SOL    HW225851   6.803   8.032   3.559
74652SOL     OW25852   6.695   5.158   0.128
74652SOL    HW125853   6.773   5.193   0.085
74652SOL    HW225854   6.624   5.175   0.067
74653SOL     OW25855  10.016   7.754   9.271
74653SOL    HW125856  10.013   7.764   9.176
74653SOL    HW225857   9.925   7.735   9.296
74654SOL     OW25858  11.407   7.988  12.979
74654SOL    HW125859  11.457   8.036  12.913
74654SOL    HW225860  11.348   8.053  13.016
74655SOL     OW25861  10.148   2.895   1.037
74655SOL    HW125862  10.106   2.960   1.094
74655SOL    HW225863  10.076   2.848   0.996
74656SOL     OW25864  13.788   6.096   5.046
74656SOL    HW125865  13.822   6.162   5.106
74656SOL    HW225866  13.837   6.017   5.068
74657SOL     OW25867   0.075   1.844   7.542
74657SOL    HW125868   0.124   1.815   7.465
74657SOL    HW225869  14.866   1.885   7.508
74658SOL     OW25870  14.658   9.667  14.134
74658SOL    HW125871  14.622   9.611  14.203
74658SOL    HW225872  14.628   9.755  14.158
74659SOL     OW25873  10.979  10.438   9.199
74659SOL    HW125874  10.967  10.409   9.109
74659SOL    HW225875  10.925  10.379   9.251
74660SOL     OW25876   3.306   8.064  10.228
74660SOL    HW125877   3.306   8.042  10.322
74660SOL    HW225878   3.395   8.098  10.212
74661SOL     OW25879  11.764  10.353   5.342
74661SOL    HW125880  11.827  10.282   5.331
74661SOL    HW225881  11.679  10.310   5.347
74662SOL     OW25882  11.137   6.246   5.788
74662SOL    HW125883  11.206   6.293   5.741
74662SOL    HW225884  11.057   6.294   5.765
74663SOL     OW25885  14.405   1.832  14.253
74663SOL    HW125886  14.440   1.814  14.166
74663SOL    HW225887  14.311   1.817  14.244
74664SOL     OW25888   3.509  11.308   5.038
74664SOL    HW125889   3.498  11.367   5.112
74664SOL    HW225890   3.422  11.303   4.998
74665SOL     OW25891  13.140  14.076   5.878
74665SOL    HW125892  13.129  13.989   5.840
74665SOL    HW225893  13.164  14.132   5.803
74666SOL     OW25894  12.555   4.567  10.671
74666SOL    HW125895  12.572   4.483  10.716
74666SOL    HW225896  12.474   4.599  10.710
74667SOL     OW25897  12.502   2.531   1.268
74667SOL    HW125898  12.503   2.626   1.284
74667SOL    HW225899  12.594   2.505   1.275
74668SOL     OW25900  10.083  14.079   5.153
74668SOL    HW125901  10.059  13.989   5.177
74668SOL    HW225902  10.124  14.115   5.231
74669SOL     OW25903   3.795   9.782   2.553
74669SOL    HW125904   3.798   9.797   2.647
74669SOL    HW225905   3.864   9.717   2.537
74670SOL     OW25906   6.928   8.866   5.788
74670SOL    HW125907   6.990   8.796   5.806
74670SOL    HW225908   6.901   8.897   5.874
74671SOL     OW25909  12.579  10.824   4.256
74671SOL    HW125910  12.592  10.918   4.247
74671SOL    HW225911  12.515  10.816   4.327
74672SOL     OW25912  11.802   0.359  11.590
74672SOL    HW125913  11.837   0.327  11.507
74672SOL    HW225914  11.854   0.437  11.610
74673SOL     OW25915  14.633   6.162  14.180
74673SOL    HW125916  14.620   6.256  14.170
74673SOL    HW225917  14.727   6.149  14.165
74674SOL     OW25918  13.922   4.475   4.832
74674SOL    HW125919  13.869   4.531   4.889
74674SOL    HW225920  13.922   4.521   4.748
74675SOL     OW25921  13.152  12.951  12.086
74675SOL    HW125922  13.233  12.997  12.068
74675SOL    HW225923  13.083  13.009  12.054
74676SOL     OW25924   6.210   7.478  13.820
74676SOL    HW125925   6.227   7.396  13.773
74676SOL    HW225926   6.133   7.515  13.777
74677SOL     OW25927   1.739  11.805  13.023
74677SOL    HW125928   1.746  11.888  12.975
74677SOL    HW225929   1.828  11.787  13.053
74678SOL     OW25930   8.888   2.827   5.042
74678SOL    HW125931   8.956   2.783   5.094
74678SOL    HW225932   8.832   2.869   5.107
74679SOL     OW25933   0.683  11.363   6.772
74679SOL    HW125934   0.645  11.285   6.731
74679SOL    HW225935   0.724  11.411   6.700
74680SOL     OW25936   9.608   5.002   3.061
74680SOL    HW125937   9.553   5.078   3.079
74680SOL    HW225938   9.549   4.937   3.024
74681SOL     OW25939   8.676   1.332  11.084
74681SOL    HW125940   8.714   1.414  11.054
74681SOL    HW225941   8.597   1.357  11.132
74682SOL     OW25942  12.791  11.159   1.600
74682SOL    HW125943  12.744  11.087   1.640
74682SOL    HW225944  12.741  11.237   1.622
74683SOL     OW25945  13.667   0.824   8.983
74683SOL    HW125946  13.671   0.786   9.070
74683SOL    HW225947  13.672   0.918   8.997
74684SOL     OW25948   5.986  11.605  12.163
74684SOL    HW125949   5.925  11.532  12.176
74684SOL    HW225950   5.933  11.675  12.125
74685SOL     OW25951   9.629   7.941  10.060
74685SOL    HW125952   9.623   7.925  10.155
74685SOL    HW225953   9.720   7.968  10.046
74686SOL     OW25954   9.940   5.501   8.793
74686SOL    HW125955   9.846   5.481   8.796
74686SOL    HW225956   9.973   5.446   8.722
74687SOL     OW25957   4.240   0.689   1.875
74687SOL    HW125958   4.249   0.783   1.858
74687SOL    HW225959   4.330   0.658   1.885
74688SOL     OW25960   7.973   4.463   0.966
74688SOL    HW125961   7.927   4.382   0.947
74688SOL    HW225962   7.913   4.532   0.938
74689SOL     OW25963   1.418   5.062   8.038
74689SOL    HW125964   1.407   5.145   7.991
74689SOL    HW225965   1.459   5.087   8.121
74690SOL     OW25966   9.598   9.405  12.542
74690SOL    HW125967   9.609   9.444  12.629
74690SOL    HW225968   9.681   9.423  12.497
74691SOL     OW25969   7.192  13.208   6.755
74691SOL    HW125970   7.122  13.207   6.820
74691SOL    HW225971   7.154  13.253   6.679
74692SOL     OW25972  13.954  12.461  10.353
74692SOL    HW125973  14.029  12.443  10.411
74692SOL    HW225974  13.927  12.375  10.321
74693SOL     OW25975   4.364  12.095   2.294
74693SOL    HW125976   4.451  12.104   2.255
74693SOL    HW225977   4.305  12.131   2.228
74694SOL     OW25978  11.496  13.447   8.030
74694SOL    HW125979  11.455  13.533   8.029
74694SOL    HW225980  11.430  13.390   8.070
74695SOL     OW25981  10.574  14.207   3.030
74695SOL    HW125982  10.631  14.282   3.011
74695SOL    HW225983  10.591  14.186   3.121
74696SOL     OW25984  13.977  10.140  12.196
74696SOL    HW125985  13.900  10.187  12.227
74696SOL    HW225986  14.048  10.203  12.200
74697SOL     OW25987   1.387   6.288   8.943
74697SOL    HW125988   1.383   6.364   8.885
74697SOL    HW225989   1.322   6.307   9.010
74698SOL     OW25990   6.320   6.559   3.681
74698SOL    HW125991   6.272   6.565   3.598
74698SOL    HW225992   6.254   6.529   3.744
74699SOL     OW25993  11.268   0.305  14.790
74699SOL    HW125994  11.294   0.396  14.773
74699SOL    HW225995  11.177   0.300  14.762
74700SOL     OW25996   3.580   9.477  13.007
74700SOL    HW125997   3.633   9.512  12.936
74700SOL    HW225998   3.501   9.443  12.964
74701SOL     OW25999   1.948   3.078  11.572
74701SOL    HW126000   2.022   3.058  11.515
74701SOL    HW226001   1.928   3.170  11.556
74702SOL     OW26002   1.034  11.878   3.202
74702SOL    HW126003   1.043  11.792   3.161
74702SOL    HW226004   1.016  11.938   3.129
74703SOL     OW26005   0.462  13.811  10.560
74703SOL    HW126006   0.543  13.855  10.537
74703SOL    HW226007   0.443  13.839  10.650
74704SOL     OW26008  14.427   0.474   8.841
74704SOL    HW126009  14.335   0.490   8.822
74704SOL    HW226010  14.463   0.439   8.759
74705SOL     OW26011   5.335  10.111   3.798
74705SOL    HW126012   5.333  10.150   3.885
74705SOL    HW226013   5.310  10.182   3.739
74706SOL     OW26014  11.706   3.335   9.647
74706SOL    HW126015  11.782   3.394   9.649
74706SOL    HW226016  11.726   3.274   9.576
74707SOL     OW26017  13.870   6.645   1.648
74707SOL    HW126018  13.854   6.579   1.581
74707SOL    HW226019  13.942   6.610   1.699
74708SOL     OW26020  13.527   1.887  11.837
74708SOL    HW126021  13.622   1.894  11.830
74708SOL    HW226022  13.504   1.938  11.915
74709SOL     OW26023   4.590  10.870   8.056
74709SOL    HW126024   4.554  10.824   7.981
74709SOL    HW226025   4.638  10.803   8.105
74710SOL     OW26026   7.102   7.423   0.133
74710SOL    HW126027   7.152   7.419   0.052
74710SOL    HW226028   7.011   7.412   0.105
74711SOL     OW26029  13.434  13.306   5.255
74711SOL    HW126030  13.470  13.342   5.174
74711SOL    HW226031  13.366  13.369   5.281
74712SOL     OW26032   7.497   0.852  13.554
74712SOL    HW126033   7.479   0.824  13.464
74712SOL    HW226034   7.585   0.888  13.550
74713SOL     OW26035   0.216  12.956  13.072
74713SOL    HW126036   0.220  12.871  13.115
74713SOL    HW226037   0.255  13.017  13.135
74714SOL     OW26038   2.879   4.529   4.774
74714SOL    HW126039   2.931   4.522   4.854
74714SOL    HW226040   2.848   4.441   4.758
74715SOL     OW26041  13.344   8.885   2.186
74715SOL    HW126042  13.259   8.927   2.203
74715SOL    HW226043  13.349   8.881   2.090
74716SOL     OW26044   6.366   0.271  14.694
74716SOL    HW126045   6.314   0.228  14.626
74716SOL    HW226046   6.445   0.300  14.649
74717SOL     OW26047   7.512   5.323   4.394
74717SOL    HW126048   7.559   5.381   4.454
74717SOL    HW226049   7.484   5.249   4.447
74718SOL     OW26050  11.337   8.835  14.448
74718SOL    HW126051  11.372   8.834  14.537
74718SOL    HW226052  11.339   8.927  14.422
74719SOL     OW26053   1.984  14.056  12.585
74719SOL    HW126054   2.066  14.049  12.536
74719SOL    HW226055   1.968  14.150  12.593
74720SOL     OW26056   4.442   0.763  13.812
74720SOL    HW126057   4.356   0.750  13.852
74720SOL    HW226058   4.424   0.769  13.718
74721SOL     OW26059   4.679   9.798  14.350
74721SOL    HW126060   4.706   9.801  14.442
74721SOL    HW226061   4.616   9.726  14.346
74722SOL     OW26062   0.724  10.007  13.984
74722SOL    HW126063   0.782   9.936  14.013
74722SOL    HW226064   0.777  10.086  13.995
74723SOL     OW26065   1.565   6.631   1.002
74723SOL    HW126066   1.497   6.674   0.949
74723SOL    HW226067   1.632   6.698   1.013
74724SOL     OW26068   9.058   8.181  11.345
74724SOL    HW126069   9.085   8.105  11.397
74724SOL    HW226070   8.994   8.146  11.283
74725SOL     OW26071   0.249   3.393  11.267
74725SOL    HW126072   0.213   3.358  11.185
74725SOL    HW226073   0.213   3.336  11.335
74726SOL     OW26074  12.456   6.698   5.119
74726SOL    HW126075  12.528   6.688   5.182
74726SOL    HW226076  12.378   6.676   5.169
74727SOL     OW26077   2.637  11.526   6.412
74727SOL    HW126078   2.725  11.492   6.426
74727SOL    HW226079   2.646  11.621   6.419
74728SOL     OW26080  10.261   0.524  10.053
74728SOL    HW126081  10.170   0.497  10.038
74728SOL    HW226082  10.266   0.540  10.147
74729SOL     OW26083  12.257   4.490   7.137
74729SOL    HW126084  12.233   4.399   7.121
74729SOL    HW226085  12.315   4.513   7.065
74730SOL     OW26086   7.846  10.786   6.078
74730SOL    HW126087   7.824  10.736   6.000
74730SOL    HW226088   7.778  10.854   6.084
74731SOL     OW26089   3.253  11.901   7.049
74731SOL    HW126090   3.165  11.938   7.047
74731SOL    HW226091   3.280  11.908   7.141
74732SOL     OW26092  11.127   0.128   8.468
74732SOL    HW126093  11.115   0.142   8.562
74732SOL    HW226094  11.045   0.158   8.429
74733SOL     OW26095   3.870   9.349  11.031
74733SOL    HW126096   3.826   9.303  10.959
74733SOL    HW226097   3.800   9.370  11.092
74734SOL     OW26098   2.230   6.936  13.971
74734SOL    HW126099   2.302   6.885  13.933
74734SOL    HW226100   2.158   6.925  13.908
74735SOL     OW26101  11.052   7.320   5.642
74735SOL    HW126102  11.144   7.346   5.642
74735SOL    HW226103  11.052   7.232   5.680
74736SOL     OW26104  12.745   2.706   4.467
74736SOL    HW126105  12.822   2.743   4.509
74736SOL    HW226106  12.702   2.655   4.536
74737SOL     OW26107   1.308   7.341   0.152
74737SOL    HW126108   1.402   7.359   0.146
74737SOL    HW226109   1.302   7.248   0.173
74738SOL     OW26110   9.528   0.597   1.109
74738SOL    HW126111   9.489   0.609   1.023
74738SOL    HW226112   9.463   0.631   1.170
74739SOL     OW26113   1.679  12.390   4.720
74739SOL    HW126114   1.657  12.352   4.635
74739SOL    HW226115   1.773  12.409   4.713
74740SOL     OW26116   7.180   4.214  14.742
74740SOL    HW126117   7.142   4.279  14.801
74740SOL    HW226118   7.138   4.231  14.657
74741SOL     OW26119   7.321  10.407   3.762
74741SOL    HW126120   7.257  10.473   3.736
74741SOL    HW226121   7.285  10.324   3.732
74742SOL     OW26122  10.520   6.662  10.978
74742SOL    HW126123  10.433   6.684  10.944
74742SOL    HW226124  10.551   6.594  10.919
74743SOL     OW26125  11.049   0.680   9.539
74743SOL    HW126126  11.066   0.589   9.516
74743SOL    HW226127  10.954   0.684   9.551
74744SOL     OW26128  11.278  13.358   6.466
74744SOL    HW126129  11.359  13.410   6.463
74744SOL    HW226130  11.270  13.321   6.379
74745SOL     OW26131  10.755   3.446   3.770
74745SOL    HW126132  10.795   3.478   3.689
74745SOL    HW226133  10.771   3.516   3.834
74746SOL     OW26134  11.586   3.514   1.723
74746SOL    HW126135  11.595   3.570   1.800
74746SOL    HW226136  11.531   3.441   1.753
74747SOL     OW26137   2.643   3.393   0.366
74747SOL    HW126138   2.552   3.366   0.375
74747SOL    HW226139   2.693   3.315   0.392
74748SOL     OW26140  13.716   3.583   1.747
74748SOL    HW126141  13.789   3.618   1.695
74748SOL    HW226142  13.755   3.565   1.832
74749SOL     OW26143  10.145   2.548   5.526
74749SOL    HW126144  10.081   2.615   5.551
74749SOL    HW226145  10.227   2.596   5.515
74750SOL     OW26146   0.592   3.192   8.322
74750SOL    HW126147   0.624   3.115   8.369
74750SOL    HW226148   0.541   3.240   8.387
74751SOL     OW26149   6.422   0.050  11.748
74751SOL    HW126150   6.451   0.012  11.665
74751SOL    HW226151   6.357   0.115  11.722
74752SOL     OW26152  12.171   7.445   1.019
74752SOL    HW126153  12.085   7.464   1.056
74752SOL    HW226154  12.167   7.352   0.996
74753SOL     OW26155  12.256  11.660   3.761
74753SOL    HW126156  12.206  11.603   3.819
74753SOL    HW226157  12.198  11.676   3.687
74754SOL     OW26158  11.073   8.085   4.507
74754SOL    HW126159  11.055   8.001   4.466
74754SOL    HW226160  11.029   8.081   4.591
74755SOL     OW26161   3.101   0.551   7.784
74755SOL    HW126162   3.095   0.456   7.776
74755SOL    HW226163   3.124   0.566   7.876
74756SOL     OW26164   9.610  13.419   2.189
74756SOL    HW126165   9.558  13.499   2.180
74756SOL    HW226166   9.701  13.450   2.188
74757SOL     OW26167  10.435   4.944  10.921
74757SOL    HW126168  10.357   4.896  10.949
74757SOL    HW226169  10.448   5.010  10.989
74758SOL     OW26170   8.940  11.805   3.521
74758SOL    HW126171   9.018  11.831   3.569
74758SOL    HW226172   8.972  11.754   3.447
74759SOL     OW26173  14.162   4.193   3.403
74759SOL    HW126174  14.230   4.227   3.461
74759SOL    HW226175  14.167   4.247   3.325
74760SOL     OW26176   5.089  10.294   5.865
74760SOL    HW126177   5.058  10.385   5.865
74760SOL    HW226178   5.051  10.255   5.943
74761SOL     OW26179   2.737   6.498   7.802
74761SOL    HW126180   2.685   6.481   7.724
74761SOL    HW226181   2.816   6.540   7.770
74762SOL     OW26182  10.335   1.698   3.368
74762SOL    HW126183  10.324   1.686   3.462
74762SOL    HW226184  10.394   1.774   3.361
74763SOL     OW26185  12.664  14.636   2.634
74763SOL    HW126186  12.653  14.638   2.729
74763SOL    HW226187  12.577  14.614   2.600
74764SOL     OW26188   8.762   3.099   4.032
74764SOL    HW126189   8.694   3.145   3.984
74764SOL    HW226190   8.822   3.167   4.062
74765SOL     OW26191   2.896  12.814   7.887
74765SOL    HW126192   2.846  12.895   7.877
74765SOL    HW226193   2.937  12.799   7.801
74766SOL     OW26194  12.520  10.033   3.328
74766SOL    HW126195  12.449  10.021   3.390
74766SOL    HW226196  12.493   9.985   3.250
74767SOL     OW26197  13.154   5.292  11.898
74767SOL    HW126198  13.120   5.363  11.952
74767SOL    HW226199  13.142   5.323  11.808
74768SOL     OW26200  13.842   8.941   2.122
74768SOL    HW126201  13.936   8.962   2.125
74768SOL    HW226202  13.801   9.023   2.093
74769SOL     OW26203  13.149   4.895  10.137
74769SOL    HW126204  13.199   4.965  10.095
74769SOL    HW226205  13.187   4.887  10.224
74770SOL     OW26206   2.826   7.000   7.288
74770SOL    HW126207   2.915   7.027   7.266
74770SOL    HW226208   2.770   7.065   7.247
74771SOL     OW26209  12.217   8.903  14.746
74771SOL    HW126210  12.308   8.934  14.751
74771SOL    HW226211  12.223   8.808  14.760
74772SOL     OW26212   7.839   1.085   7.924
74772SOL    HW126213   7.860   1.119   8.010
74772SOL    HW226214   7.896   1.133   7.864
74773SOL     OW26215   6.650   0.840   7.410
74773SOL    HW126216   6.605   0.799   7.484
74773SOL    HW226217   6.605   0.924   7.399
74774SOL     OW26218   3.986   1.030  11.424
74774SOL    HW126219   3.981   0.947  11.377
74774SOL    HW226220   3.979   1.006  11.516
74775SOL     OW26221   5.883  11.622   5.504
74775SOL    HW126222   5.894  11.534   5.542
74775SOL    HW226223   5.807  11.614   5.446
74776SOL     OW26224  12.087  11.546  12.862
74776SOL    HW126225  12.000  11.566  12.828
74776SOL    HW226226  12.071  11.484  12.934
74777SOL     OW26227  10.569   8.955  13.505
74777SOL    HW126228  10.651   8.927  13.545
74777SOL    HW226229  10.585   9.045  13.478
74778SOL     OW26230   7.155   9.922  12.347
74778SOL    HW126231   7.231   9.924  12.406
74778SOL    HW226232   7.113  10.007  12.359
74779SOL     OW26233  10.826   6.044  14.766
74779SOL    HW126234  10.789   6.065  14.680
74779SOL    HW226235  10.916   6.015  14.746
74780SOL     OW26236  10.587  10.574  12.066
74780SOL    HW126237  10.505  10.607  12.102
74780SOL    HW226238  10.618  10.511  12.131
74781SOL     OW26239   0.390   1.637   0.781
74781SOL    HW126240   0.428   1.578   0.717
74781SOL    HW226241   0.376   1.582   0.859
74782SOL     OW26242   5.545   4.375   2.298
74782SOL    HW126243   5.509   4.306   2.242
74782SOL    HW226244   5.630   4.396   2.259
74783SOL     OW26245  12.435  10.822   5.161
74783SOL    HW126246  12.389  10.756   5.109
74783SOL    HW226247  12.407  10.805   5.251
74784SOL     OW26248   9.082  14.217   6.056
74784SOL    HW126249   9.022  14.282   6.020
74784SOL    HW226250   9.048  14.198   6.143
74785SOL     OW26251  11.352   2.287  12.119
74785SOL    HW126252  11.290   2.234  12.169
74785SOL    HW226253  11.332   2.267  12.027
74786SOL     OW26254  11.519  12.202  13.609
74786SOL    HW126255  11.491  12.240  13.526
74786SOL    HW226256  11.442  12.208  13.666
74787SOL     OW26257   9.616   9.058  10.437
74787SOL    HW126258   9.690   9.105  10.401
74787SOL    HW226259   9.551   9.126  10.457
74788SOL     OW26260   3.116  13.923   0.376
74788SOL    HW126261   3.193  13.975   0.396
74788SOL    HW226262   3.045  13.986   0.368
74789SOL     OW26263   1.058  12.819  13.955
74789SOL    HW126264   1.139  12.786  13.994
74789SOL    HW226265   1.012  12.862  14.028
74790SOL     OW26266   7.155   4.304   1.851
74790SOL    HW126267   7.078   4.313   1.907
74790SOL    HW226268   7.213   4.245   1.900
74791SOL     OW26269   4.799   2.495   9.546
74791SOL    HW126270   4.804   2.418   9.489
74791SOL    HW226271   4.815   2.461   9.634
74792SOL     OW26272   7.821  14.592   5.141
74792SOL    HW126273   7.888  14.651   5.107
74792SOL    HW226274   7.859  14.554   5.220
74793SOL     OW26275  14.545   2.386   0.075
74793SOL    HW126276  14.606   2.458   0.060
74793SOL    HW226277  14.461   2.429   0.089
74794SOL     OW26278   5.316   5.042   3.637
74794SOL    HW126279   5.321   5.100   3.561
74794SOL    HW226280   5.348   5.094   3.710
74795SOL     OW26281   4.379  10.185   1.225
74795SOL    HW126282   4.415  10.253   1.281
74795SOL    HW226283   4.415  10.203   1.138
74796SOL     OW26284   1.679   4.547  10.097
74796SOL    HW126285   1.646   4.498  10.173
74796SOL    HW226286   1.706   4.631  10.133
74797SOL     OW26287  12.467   6.242   9.087
74797SOL    HW126288  12.439   6.153   9.064
74797SOL    HW226289  12.441   6.252   9.179
74798SOL     OW26290  11.560   0.401  14.687
74798SOL    HW126291  11.630   0.385  14.624
74798SOL    HW226292  11.546   0.317  14.729
74799SOL     OW26293   5.960   9.964  14.183
74799SOL    HW126294   5.909  10.043  14.204
74799SOL    HW226295   5.903   9.913  14.126
74800SOL     OW26296   0.204  10.696   4.032
74800SOL    HW126297   0.182  10.664   3.945
74800SOL    HW226298   0.128  10.749   4.058
74801SOL     OW26299   0.464   4.994   2.287
74801SOL    HW126300   0.388   5.047   2.264
74801SOL    HW226301   0.488   5.023   2.375
74802SOL     OW26302   0.363   5.688   5.057
74802SOL    HW126303   0.419   5.660   4.985
74802SOL    HW226304   0.349   5.781   5.041
74803SOL     OW26305   2.874   8.069  12.350
74803SOL    HW126306   2.868   7.981  12.313
74803SOL    HW226307   2.864   8.128  12.275
74804SOL     OW26308   7.105   8.996   8.584
74804SOL    HW126309   7.042   8.925   8.571
74804SOL    HW226310   7.190   8.953   8.577
74805SOL     OW26311   8.071  10.868   1.748
74805SOL    HW126312   8.004  10.930   1.776
74805SOL    HW226313   8.022  10.797   1.705
74806SOL     OW26314   5.371   8.545   3.859
74806SOL    HW126315   5.398   8.513   3.944
74806SOL    HW226316   5.400   8.636   3.857
74807SOL     OW26317   5.439   6.874  10.527
74807SOL    HW126318   5.368   6.908  10.472
74807SOL    HW226319   5.454   6.943  10.591
74808SOL     OW26320   1.398   9.746  10.443
74808SOL    HW126321   1.478   9.716  10.487
74808SOL    HW226322   1.392   9.692  10.365
74809SOL     OW26323   4.758   4.134  13.983
74809SOL    HW126324   4.802   4.173  14.059
74809SOL    HW226325   4.686   4.084  14.020
74810SOL     OW26326   3.584   2.111   3.747
74810SOL    HW126327   3.628   2.194   3.762
74810SOL    HW226328   3.542   2.090   3.830
74811SOL     OW26329  10.508   7.657  13.015
74811SOL    HW126330  10.441   7.590  13.028
74811SOL    HW226331  10.536   7.646  12.924
74812SOL     OW26332   4.995   9.267   1.329
74812SOL    HW126333   5.068   9.205   1.332
74812SOL    HW226334   4.918   9.214   1.310
74813SOL     OW26335   3.949  14.063   9.134
74813SOL    HW126336   4.036  14.033   9.159
74813SOL    HW226337   3.890  14.013   9.190
74814SOL     OW26338  14.519   6.625   0.799
74814SOL    HW126339  14.504   6.530   0.799
74814SOL    HW226340  14.574   6.639   0.877
74815SOL     OW26341  11.015  11.776   4.481
74815SOL    HW126342  10.989  11.770   4.573
74815SOL    HW226343  10.969  11.703   4.439
74816SOL     OW26344  10.321  10.151   5.931
74816SOL    HW126345  10.378  10.108   5.995
74816SOL    HW226346  10.256  10.085   5.908
74817SOL     OW26347   9.782   4.964   4.696
74817SOL    HW126348   9.710   5.014   4.657
74817SOL    HW226349   9.794   5.003   4.783
74818SOL     OW26350  10.135   6.717   1.426
74818SOL    HW126351  10.175   6.652   1.484
74818SOL    HW226352  10.101   6.783   1.486
74819SOL     OW26353   6.775   9.972  13.830
74819SOL    HW126354   6.871   9.972  13.837
74819SOL    HW226355   6.749  10.057  13.865
74820SOL     OW26356  11.824   1.281  10.947
74820SOL    HW126357  11.818   1.371  10.979
74820SOL    HW226358  11.905   1.279  10.895
74821SOL     OW26359   8.184   5.451   9.378
74821SOL    HW126360   8.104   5.417   9.339
74821SOL    HW226361   8.211   5.385   9.442
74822SOL     OW26362   7.734   0.695   2.995
74822SOL    HW126363   7.645   0.684   2.959
74822SOL    HW226364   7.791   0.655   2.929
74823SOL     OW26365   5.710   6.987   9.300
74823SOL    HW126366   5.662   7.057   9.344
74823SOL    HW226367   5.705   7.009   9.207
74824SOL     OW26368   7.845   0.717   9.567
74824SOL    HW126369   7.859   0.760   9.483
74824SOL    HW226370   7.750   0.704   9.572
74825SOL     OW26371  10.027   7.738   2.773
74825SOL    HW126372  10.009   7.644   2.770
74825SOL    HW226373  10.117   7.746   2.743
74826SOL     OW26374   3.318   4.426   1.701
74826SOL    HW126375   3.277   4.492   1.756
74826SOL    HW226376   3.337   4.353   1.761
74827SOL     OW26377   1.654  14.284   0.351
74827SOL    HW126378   1.580  14.340   0.373
74827SOL    HW226379   1.701  14.271   0.433
74828SOL     OW26380   6.521   2.241   2.632
74828SOL    HW126381   6.597   2.254   2.574
74828SOL    HW226382   6.481   2.327   2.638
74829SOL     OW26383   2.190  11.500  12.965
74829SOL    HW126384   2.208  11.504  12.871
74829SOL    HW226385   2.182  11.407  12.984
74830SOL     OW26386   6.956   5.754   4.415
74830SOL    HW126387   6.889   5.689   4.437
74830SOL    HW226388   6.994   5.723   4.334
74831SOL     OW26389  14.855   0.133  10.838
74831SOL    HW126390  14.809   0.116  10.756
74831SOL    HW226391  14.804   0.203  10.880
74832SOL     OW26392   9.218   8.300   6.948
74832SOL    HW126393   9.144   8.359   6.933
74832SOL    HW226394   9.182   8.212   6.936
74833SOL     OW26395   7.503  10.254   9.875
74833SOL    HW126396   7.505  10.264   9.780
74833SOL    HW226397   7.448  10.326   9.906
74834SOL     OW26398  11.716   2.224  10.459
74834SOL    HW126399  11.703   2.291  10.392
74834SOL    HW226400  11.791   2.255  10.510
74835SOL     OW26401   5.507  13.201  10.049
74835SOL    HW126402   5.492  13.119  10.002
74835SOL    HW226403   5.431  13.255  10.028
74836SOL     OW26404   6.881   6.669  11.422
74836SOL    HW126405   6.858   6.681  11.514
74836SOL    HW226406   6.944   6.598  11.421
74837SOL     OW26407   1.192  13.573   7.446
74837SOL    HW126408   1.219  13.665   7.445
74837SOL    HW226409   1.257  13.528   7.392
74838SOL     OW26410  13.526   3.686  12.592
74838SOL    HW126411  13.493   3.625  12.658
74838SOL    HW226412  13.447   3.727  12.557
74839SOL     OW26413   1.033   4.417  10.579
74839SOL    HW126414   1.060   4.489  10.637
74839SOL    HW226415   1.114   4.366  10.566
74840SOL     OW26416   8.219  12.759   2.711
74840SOL    HW126417   8.263  12.681   2.677
74840SOL    HW226418   8.194  12.808   2.633
74841SOL     OW26419   0.894   8.809  12.804
74841SOL    HW126420   0.840   8.888  12.812
74841SOL    HW226421   0.879   8.779  12.714
74842SOL     OW26422   7.194   7.023  11.731
74842SOL    HW126423   7.099   7.036  11.732
74842SOL    HW226424   7.229   7.097  11.780
74843SOL     OW26425   6.883   8.972   9.691
74843SOL    HW126426   6.902   8.935   9.777
74843SOL    HW226427   6.968   8.996   9.655
74844SOL     OW26428   2.066   0.190  13.219
74844SOL    HW126429   2.090   0.200  13.127
74844SOL    HW226430   1.974   0.217  13.222
74845SOL     OW26431   2.968  11.532  13.054
74845SOL    HW126432   3.032  11.512  13.123
74845SOL    HW226433   2.992  11.620  13.025
74846SOL     OW26434   4.640   0.759   3.309
74846SOL    HW126435   4.646   0.830   3.372
74846SOL    HW226436   4.715   0.773   3.250
74847SOL     OW26437   0.772   4.715   8.232
74847SOL    HW126438   0.763   4.748   8.143
74847SOL    HW226439   0.767   4.793   8.288
74848SOL     OW26440  13.870   3.669  13.741
74848SOL    HW126441  13.916   3.753  13.740
74848SOL    HW226442  13.798   3.682  13.803
74849SOL     OW26443  10.423  13.410  14.022
74849SOL    HW126444  10.476  13.486  14.044
74849SOL    HW226445  10.439  13.395  13.929
74850SOL     OW26446  12.334   8.562   3.352
74850SOL    HW126447  12.346   8.545   3.446
74850SOL    HW226448  12.414   8.530   3.311
74851SOL     OW26449  13.245   3.504   6.657
74851SOL    HW126450  13.226   3.568   6.726
74851SOL    HW226451  13.296   3.436   6.701
74852SOL     OW26452   6.436   5.849  10.548
74852SOL    HW126453   6.476   5.885  10.469
74852SOL    HW226454   6.346   5.881  10.547
74853SOL     OW26455   2.656  10.823   3.569
74853SOL    HW126456   2.681  10.797   3.658
74853SOL    HW226457   2.732  10.802   3.515
74854SOL     OW26458   6.784   7.759  13.965
74854SOL    HW126459   6.716   7.774  13.899
74854SOL    HW226460   6.736   7.756  14.048
74855SOL     OW26461   2.275   5.476   1.924
74855SOL    HW126462   2.217   5.502   1.852
74855SOL    HW226463   2.244   5.527   1.999
74856SOL     OW26464   9.204   4.838   3.509
74856SOL    HW126465   9.155   4.919   3.496
74856SOL    HW226466   9.289   4.866   3.543
74857SOL     OW26467   6.533   0.745   6.684
74857SOL    HW126468   6.484   0.664   6.699
74857SOL    HW226469   6.499   0.805   6.750
74858SOL     OW26470  13.644  11.792   3.181
74858SOL    HW126471  13.681  11.743   3.255
74858SOL    HW226472  13.567  11.742   3.154
74859SOL     OW26473   8.996   8.139   4.451
74859SOL    HW126474   8.932   8.074   4.481
74859SOL    HW226475   8.962   8.223   4.483
74860SOL     OW26476   8.454  13.801   8.057
74860SOL    HW126477   8.510  13.832   7.987
74860SOL    HW226478   8.375  13.856   8.051
74861SOL     OW26479   6.856  14.081   5.766
74861SOL    HW126480   6.762  14.072   5.783
74861SOL    HW226481   6.874  14.018   5.696
74862SOL     OW26482   0.103  13.297  13.586
74862SOL    HW126483   0.195  13.303  13.612
74862SOL    HW226484   0.106  13.285  13.492
74863SOL     OW26485  11.422  12.993  11.933
74863SOL    HW126486  11.465  13.050  11.870
74863SOL    HW226487  11.491  12.935  11.965
74864SOL     OW26488  13.234   9.566  14.515
74864SOL    HW126489  13.296   9.607  14.454
74864SOL    HW226490  13.290   9.520  14.577
74865SOL     OW26491   6.410   5.652   6.009
74865SOL    HW126492   6.442   5.576   5.961
74865SOL    HW226493   6.482   5.715   6.004
74866SOL     OW26494  14.162   9.759   1.331
74866SOL    HW126495  14.222   9.687   1.351
74866SOL    HW226496  14.093   9.719   1.278
74867SOL     OW26497   7.100   6.254   6.813
74867SOL    HW126498   7.123   6.161   6.824
74867SOL    HW226499   7.059   6.278   6.896
74868SOL     OW26500  12.040   7.610  13.808
74868SOL    HW126501  11.994   7.531  13.833
74868SOL    HW226502  11.971   7.669  13.775
74869SOL     OW26503  13.187   6.019  11.336
74869SOL    HW126504  13.269   5.971  11.332
74869SOL    HW226505  13.147   6.006  11.250
74870SOL     OW26506   0.696   7.869   7.980
74870SOL    HW126507   0.679   7.962   7.994
74870SOL    HW226508   0.609   7.830   7.969
74871SOL     OW26509   4.768   6.804   2.866
74871SOL    HW126510   4.777   6.719   2.909
74871SOL    HW226511   4.798   6.788   2.776
74872SOL     OW26512   4.032   2.975   6.546
74872SOL    HW126513   4.041   2.948   6.637
74872SOL    HW226514   4.122   2.989   6.516
74873SOL     OW26515   1.645   6.939   5.917
74873SOL    HW126516   1.707   6.952   5.989
74873SOL    HW226517   1.650   6.845   5.898
74874SOL     OW26518   3.543   1.124   6.209
74874SOL    HW126519   3.471   1.065   6.185
74874SOL    HW226520   3.573   1.092   6.294
74875SOL     OW26521  14.456   6.910   0.055
74875SOL    HW126522  14.458   6.944   0.144
74875SOL    HW226523  14.547   6.910   0.026
74876SOL     OW26524   9.136   3.704  11.219
74876SOL    HW126525   9.099   3.776  11.169
74876SOL    HW226526   9.163   3.640  11.153
74877SOL     OW26527  12.106   1.053   2.841
74877SOL    HW126528  12.162   0.990   2.886
74877SOL    HW226529  12.062   1.100   2.912
74878SOL     OW26530   8.957  14.600   2.139
74878SOL    HW126531   8.885  14.662   2.132
74878SOL    HW226532   8.998  14.617   2.224
74879SOL     OW26533   3.368   6.712   0.456
74879SOL    HW126534   3.419   6.726   0.376
74879SOL    HW226535   3.422   6.745   0.527
74880SOL     OW26536  12.287  11.896   9.245
74880SOL    HW126537  12.373  11.855   9.258
74880SOL    HW226538  12.224  11.826   9.265
74881SOL     OW26539   9.661   9.794   2.436
74881SOL    HW126540   9.747   9.797   2.479
74881SOL    HW226541   9.681   9.798   2.343
74882SOL     OW26542   0.834   2.252   4.313
74882SOL    HW126543   0.863   2.203   4.389
74882SOL    HW226544   0.861   2.342   4.329
74883SOL     OW26545   9.574   4.617   0.196
74883SOL    HW126546   9.559   4.531   0.156
74883SOL    HW226547   9.616   4.668   0.126
74884SOL     OW26548   7.718   4.190   5.366
74884SOL    HW126549   7.789   4.226   5.312
74884SOL    HW226550   7.639   4.235   5.336
74885SOL     OW26551   0.432  13.584   5.809
74885SOL    HW126552   0.444  13.650   5.741
74885SOL    HW226553   0.395  13.633   5.883
74886SOL     OW26554   1.745   9.902   4.558
74886SOL    HW126555   1.742   9.930   4.650
74886SOL    HW226556   1.838   9.894   4.538
74887SOL     OW26557   9.360   8.304  12.302
74887SOL    HW126558   9.386   8.284  12.392
74887SOL    HW226559   9.416   8.377  12.277
74888SOL     OW26560  13.545   5.826   4.084
74888SOL    HW126561  13.639   5.811   4.093
74888SOL    HW226562  13.538   5.898   4.022
74889SOL     OW26563  10.286   6.728   5.403
74889SOL    HW126564  10.240   6.707   5.485
74889SOL    HW226565  10.287   6.645   5.355
74890SOL     OW26566  14.360   4.480   7.944
74890SOL    HW126567  14.415   4.457   8.019
74890SOL    HW226568  14.341   4.397   7.901
74891SOL     OW26569  10.114   4.783   1.107
74891SOL    HW126570  10.197   4.742   1.129
74891SOL    HW226571  10.078   4.729   1.037
74892SOL     OW26572  14.105  10.577   7.603
74892SOL    HW126573  14.033  10.554   7.545
74892SOL    HW226574  14.065  10.585   7.689
74893SOL     OW26575   0.285  12.449  13.850
74893SOL    HW126576   0.298  12.472  13.758
74893SOL    HW226577   0.373  12.429  13.882
74894SOL     OW26578   4.680   1.852   3.545
74894SOL    HW126579   4.742   1.781   3.527
74894SOL    HW226580   4.681   1.861   3.640
74895SOL     OW26581  13.354   1.886   5.054
74895SOL    HW126582  13.407   1.806   5.054
74895SOL    HW226583  13.392   1.940   4.984
74896SOL     OW26584   1.763   0.612  12.684
74896SOL    HW126585   1.796   0.623  12.773
74896SOL    HW226586   1.729   0.698  12.660
74897SOL     OW26587   0.100   6.473  14.224
74897SOL    HW126588   0.098   6.500  14.132
74897SOL    HW226589   0.187   6.499  14.254
74898SOL     OW26590  11.310   4.028  11.069
74898SOL    HW126591  11.372   4.075  11.125
74898SOL    HW226592  11.364   3.977  11.009
74899SOL     OW26593  11.375  10.891   0.769
74899SOL    HW126594  11.302  10.952   0.755
74899SOL    HW226595  11.367  10.866   0.861
74900SOL     OW26596   4.285   9.207   3.124
74900SOL    HW126597   4.229   9.212   3.201
74900SOL    HW226598   4.249   9.133   3.074
74901SOL     OW26599  10.699  11.616  14.580
74901SOL    HW126600  10.729  11.554  14.514
74901SOL    HW226601  10.698  11.566  14.662
74902SOL     OW26602  13.566  10.966   6.435
74902SOL    HW126603  13.556  11.053   6.396
74902SOL    HW226604  13.591  10.983   6.525
74903SOL     OW26605  12.360   6.971   0.447
74903SOL    HW126606  12.337   6.887   0.408
74903SOL    HW226607  12.292   6.987   0.512
74904SOL     OW26608   4.009   0.705  10.682
74904SOL    HW126609   3.987   0.751  10.601
74904SOL    HW226610   4.068   0.764  10.728
74905SOL     OW26611   1.664   5.147   1.418
74905SOL    HW126612   1.584   5.130   1.369
74905SOL    HW226613   1.693   5.061   1.448
74906SOL     OW26614   9.309   7.383   9.916
74906SOL    HW126615   9.356   7.387   9.833
74906SOL    HW226616   9.313   7.290   9.942
74907SOL     OW26617  11.686   6.540   5.439
74907SOL    HW126618  11.745   6.513   5.368
74907SOL    HW226619  11.713   6.629   5.460
74908SOL     OW26620   6.881   0.740   6.141
74908SOL    HW126621   6.916   0.731   6.229
74908SOL    HW226622   6.912   0.826   6.111
74909SOL     OW26623   5.651   4.754   7.583
74909SOL    HW126624   5.686   4.722   7.500
74909SOL    HW226625   5.676   4.846   7.585
74910SOL     OW26626  14.351   6.974  10.970
74910SOL    HW126627  14.266   6.979  10.928
74910SOL    HW226628  14.393   6.898  10.931
74911SOL     OW26629   3.974   3.849   7.929
74911SOL    HW126630   4.006   3.822   8.015
74911SOL    HW226631   4.036   3.810   7.867
74912SOL     OW26632   2.876  12.347  12.914
74912SOL    HW126633   2.967  12.354  12.942
74912SOL    HW226634   2.870  12.403  12.837
74913SOL     OW26635   8.912   8.778   4.986
74913SOL    HW126636   8.859   8.775   5.065
74913SOL    HW226637   8.853   8.811   4.919
74914SOL     OW26638  13.276  10.730   1.710
74914SOL    HW126639  13.333  10.683   1.770
74914SOL    HW226640  13.335  10.767   1.644
74915SOL     OW26641  13.300   2.707  12.894
74915SOL    HW126642  13.231   2.665  12.843
74915SOL    HW226643  13.354   2.635  12.926
74916SOL     OW26644   2.926  13.880   1.392
74916SOL    HW126645   2.971  13.955   1.431
74916SOL    HW226646   2.858  13.858   1.455
74917SOL     OW26647  12.875  10.698   9.968
74917SOL    HW126648  12.966  10.715   9.943
74917SOL    HW226649  12.827  10.699   9.885
74918SOL     OW26650   0.000   1.831  13.370
74918SOL    HW126651  14.807   1.767  13.404
74918SOL    HW226652   0.051   1.858  13.446
74919SOL     OW26653  13.271   6.449   4.716
74919SOL    HW126654  13.335   6.446   4.645
74919SOL    HW226655  13.187   6.464   4.672
74920SOL     OW26656  12.510   2.975  13.673
74920SOL    HW126657  12.452   2.900  13.665
74920SOL    HW226658  12.570   2.968  13.599
74921SOL     OW26659  11.762  14.618   9.853
74921SOL    HW126660  11.672  14.585   9.856
74921SOL    HW226661  11.812  14.556   9.907
74922SOL     OW26662  10.603   0.811   6.547
74922SOL    HW126663  10.526   0.867   6.540
74922SOL    HW226664  10.663   0.860   6.605
74923SOL     OW26665   3.590   8.672   3.880
74923SOL    HW126666   3.511   8.618   3.889
74923SOL    HW226667   3.645   8.624   3.818
74924SOL     OW26668   4.824  14.372   2.419
74924SOL    HW126669   4.855  14.317   2.491
74924SOL    HW226670   4.894  14.370   2.355
74925SOL     OW26671   3.305   4.830   6.325
74925SOL    HW126672   3.335   4.824   6.416
74925SOL    HW226673   3.257   4.913   6.321
74926SOL     OW26674   8.316  14.272   3.243
74926SOL    HW126675   8.336  14.358   3.280
74926SOL    HW226676   8.348  14.276   3.153
74927SOL     OW26677   5.288   1.392  12.573
74927SOL    HW126678   5.235   1.412  12.496
74927SOL    HW226679   5.228   1.405  12.647
74928SOL     OW26680   8.154  13.357  10.193
74928SOL    HW126681   8.066  13.383  10.167
74928SOL    HW226682   8.212  13.420  10.150
74929SOL     OW26683  10.112   5.534   5.117
74929SOL    HW126684  10.099   5.440   5.102
74929SOL    HW226685  10.138   5.540   5.209
74930SOL     OW26686   9.390   6.120   2.834
74930SOL    HW126687   9.438   6.199   2.858
74930SOL    HW226688   9.394   6.064   2.911
74931SOL     OW26689  11.870   4.156   2.720
74931SOL    HW126690  11.848   4.070   2.756
74931SOL    HW226691  11.787   4.205   2.724
74932SOL     OW26692   2.901   4.511   5.346
74932SOL    HW126693   2.976   4.459   5.372
74932SOL    HW226694   2.937   4.584   5.295
74933SOL     OW26695   9.560   2.202   9.291
74933SOL    HW126696   9.655   2.199   9.282
74933SOL    HW226697   9.533   2.111   9.295
74934SOL     OW26698  12.253   8.249   7.102
74934SOL    HW126699  12.193   8.322   7.120
74934SOL    HW226700  12.225   8.180   7.161
74935SOL     OW26701   8.625   1.789  14.801
74935SOL    HW126702   8.570   1.808  14.726
74935SOL    HW226703   8.709   1.830  14.781
74936SOL     OW26704  14.614  14.383  13.447
74936SOL    HW126705  14.671  14.306  13.457
74936SOL    HW226706  14.672  14.458  13.459
74937SOL     OW26707   8.088   8.977   9.413
74937SOL    HW126708   8.101   9.060   9.460
74937SOL    HW226709   8.005   8.943   9.446
74938SOL     OW26710   7.467   5.394   0.029
74938SOL    HW126711   7.376   5.373   0.048
74938SOL    HW226712   7.487   5.469   0.085
74939SOL     OW26713   4.903   9.437   9.641
74939SOL    HW126714   4.930   9.466   9.728
74939SOL    HW226715   4.941   9.350   9.631
74940SOL     OW26716   8.213  13.853   6.894
74940SOL    HW126717   8.203  13.811   6.809
74940SOL    HW226718   8.302  13.887   6.894
74941SOL     OW26719   5.767   1.063  10.466
74941SOL    HW126720   5.805   0.977  10.484
74941SOL    HW226721   5.673   1.049  10.469
74942SOL     OW26722   2.234   6.545  14.201
74942SOL    HW126723   2.227   6.545  14.297
74942SOL    HW226724   2.159   6.596  14.171
74943SOL     OW26725   8.305   4.486  12.358
74943SOL    HW126726   8.279   4.574  12.387
74943SOL    HW226727   8.306   4.492  12.263
74944SOL     OW26728   4.702   2.725   6.534
74944SOL    HW126729   4.678   2.759   6.621
74944SOL    HW226730   4.694   2.630   6.542
74945SOL     OW26731   3.613   4.771   0.285
74945SOL    HW126732   3.632   4.698   0.345
74945SOL    HW226733   3.518   4.776   0.283
74946SOL     OW26734  14.692   2.401   7.584
74946SOL    HW126735  14.684   2.497   7.587
74946SOL    HW226736  14.786   2.385   7.583
74947SOL     OW26737  12.229   1.912   6.435
74947SOL    HW126738  12.287   1.882   6.505
74947SOL    HW226739  12.142   1.883   6.461
74948SOL     OW26740  13.191   5.826   6.680
74948SOL    HW126741  13.238   5.908   6.670
74948SOL    HW226742  13.259   5.758   6.677
74949SOL     OW26743   4.650   2.226  13.442
74949SOL    HW126744   4.563   2.259  13.422
74949SOL    HW226745   4.709   2.298  13.417
74950SOL     OW26746   8.628   3.330   9.715
74950SOL    HW126747   8.588   3.413   9.742
74950SOL    HW226748   8.699   3.355   9.657
74951SOL     OW26749   7.696  10.382   8.925
74951SOL    HW126750   7.739  10.307   8.884
74951SOL    HW226751   7.732  10.459   8.880
74952SOL     OW26752   4.716   0.468   7.206
74952SOL    HW126753   4.631   0.508   7.223
74952SOL    HW226754   4.759   0.529   7.146
74953SOL     OW26755   4.962   5.968  14.572
74953SOL    HW126756   5.051   5.932  14.565
74953SOL    HW226757   4.972   6.049  14.622
74954SOL     OW26758   2.881   6.914   8.763
74954SOL    HW126759   2.830   6.883   8.837
74954SOL    HW226760   2.902   7.005   8.785
74955SOL     OW26761   6.212   9.575   2.669
74955SOL    HW126762   6.123   9.607   2.682
74955SOL    HW226763   6.213   9.544   2.579
74956SOL     OW26764  12.802  10.518  12.708
74956SOL    HW126765  12.842  10.474  12.633
74956SOL    HW226766  12.811  10.456  12.780
74957SOL     OW26767   8.401  12.241   0.542
74957SOL    HW126768   8.345  12.209   0.613
74957SOL    HW226769   8.406  12.336   0.555
74958SOL     OW26770   8.951  11.986  12.060
74958SOL    HW126771   8.907  11.902  12.052
74958SOL    HW226772   9.041  11.969  12.031
74959SOL     OW26773   4.937  12.488  10.139
74959SOL    HW126774   4.930  12.496  10.044
74959SOL    HW226775   4.934  12.393  10.155
74960SOL     OW26776  14.268   9.553   4.560
74960SOL    HW126777  14.319   9.591   4.631
74960SOL    HW226778  14.207   9.622   4.535
74961SOL     OW26779   7.248   0.535  10.117
74961SOL    HW126780   7.162   0.540  10.074
74961SOL    HW226781   7.292   0.463  10.073
74962SOL     OW26782   5.962   6.882  14.788
74962SOL    HW126783   6.006   6.815  14.841
74962SOL    HW226784   6.026   6.906  14.721
74963SOL     OW26785   9.001   6.080  12.109
74963SOL    HW126786   9.001   6.149  12.042
74963SOL    HW226787   9.016   6.126  12.191
74964SOL     OW26788   7.824   0.688   3.580
74964SOL    HW126789   7.827   0.661   3.671
74964SOL    HW226790   7.915   0.683   3.550
74965SOL     OW26791  13.187   0.456   2.149
74965SOL    HW126792  13.104   0.409   2.163
74965SOL    HW226793  13.175   0.540   2.193
74966SOL     OW26794   8.697  11.080   3.037
74966SOL    HW126795   8.721  11.140   2.966
74966SOL    HW226796   8.764  11.012   3.035
74967SOL     OW26797   5.684   5.119   1.827
74967SOL    HW126798   5.738   5.129   1.749
74967SOL    HW226799   5.624   5.047   1.806
74968SOL     OW26800   1.729  11.490   4.580
74968SOL    HW126801   1.699  11.496   4.671
74968SOL    HW226802   1.697  11.570   4.539
74969SOL     OW26803   9.943  13.836   1.312
74969SOL    HW126804   9.944  13.744   1.286
74969SOL    HW226805  10.033  13.866   1.301
74970SOL     OW26806   2.059   2.131  10.224
74970SOL    HW126807   1.993   2.094  10.283
74970SOL    HW226808   2.090   2.210  10.269
74971SOL     OW26809   0.002  11.642   6.667
74971SOL    HW126810  14.844  11.732   6.649
74971SOL    HW226811   0.094  11.639   6.642
74972SOL     OW26812   0.452  13.856   2.846
74972SOL    HW126813   0.385  13.856   2.778
74972SOL    HW226814   0.529  13.818   2.803
74973SOL     OW26815  11.991  13.874   4.633
74973SOL    HW126816  11.901  13.843   4.625
74973SOL    HW226817  11.982  13.967   4.655
74974SOL     OW26818   4.296   9.931   5.219
74974SOL    HW126819   4.384   9.899   5.199
74974SOL    HW226820   4.270   9.884   5.297
74975SOL     OW26821  14.695   4.996  11.459
74975SOL    HW126822  14.633   4.975  11.390
74975SOL    HW226823  14.687   5.091  11.471
74976SOL     OW26824   5.307  11.301  10.037
74976SOL    HW126825   5.212  11.305  10.020
74976SOL    HW226826   5.328  11.208  10.031
74977SOL     OW26827   9.461   0.044   6.349
74977SOL    HW126828   9.458  14.818   6.356
74977SOL    HW226829   9.500   0.061   6.263
74978SOL     OW26830  11.914   1.318   5.216
74978SOL    HW126831  11.982   1.251   5.225
74978SOL    HW226832  11.865   1.314   5.298
74979SOL     OW26833   0.492   6.151  11.358
74979SOL    HW126834   0.447   6.233  11.336
74979SOL    HW226835   0.571   6.179  11.405
74980SOL     OW26836  13.405   2.512  10.011
74980SOL    HW126837  13.326   2.470   9.977
74980SOL    HW226838  13.383   2.605  10.015
74981SOL     OW26839   0.441   1.129  12.603
74981SOL    HW126840   0.419   1.040  12.632
74981SOL    HW226841   0.360   1.161  12.563
74982SOL     OW26842   5.689  11.588  11.532
74982SOL    HW126843   5.667  11.678  11.505
74982SOL    HW226844   5.784  11.587  11.536
74983SOL     OW26845   7.367  11.615   9.120
74983SOL    HW126846   7.455  11.641   9.091
74983SOL    HW226847   7.378  11.590   9.211
74984SOL     OW26848   3.131  13.623   0.797
74984SOL    HW126849   3.098  13.654   0.881
74984SOL    HW226850   3.143  13.702   0.745
74985SOL     OW26851   1.518   7.049   8.265
74985SOL    HW126852   1.482   7.128   8.224
74985SOL    HW226853   1.604   7.077   8.299
74986SOL     OW26854   1.664  11.386  10.765
74986SOL    HW126855   1.595  11.320  10.766
74986SOL    HW226856   1.675  11.412  10.856
74987SOL     OW26857  12.887   7.994   8.806
74987SOL    HW126858  12.966   8.047   8.799
74987SOL    HW226859  12.889   7.959   8.895
74988SOL     OW26860   4.635   1.047  11.139
74988SOL    HW126861   4.671   1.133  11.119
74988SOL    HW226862   4.648   0.996  11.060
74989SOL     OW26863   9.342  12.298  14.679
74989SOL    HW126864   9.375  12.249  14.754
74989SOL    HW226865   9.314  12.382  14.716
74990SOL     OW26866   0.943  14.542  12.060
74990SOL    HW126867   0.934  14.630  12.096
74990SOL    HW226868   1.031  14.540  12.021
74991SOL     OW26869   9.446  13.734  10.340
74991SOL    HW126870   9.408  13.646  10.337
74991SOL    HW226871   9.453  13.760  10.249
74992SOL     OW26872   6.274   9.568   5.631
74992SOL    HW126873   6.311   9.484   5.657
74992SOL    HW226874   6.310   9.630   5.694
74993SOL     OW26875   4.612  10.398   5.428
74993SOL    HW126876   4.538  10.345   5.397
74993SOL    HW226877   4.689  10.354   5.393
74994SOL     OW26878  12.685   1.312  14.047
74994SOL    HW126879  12.606   1.363  14.025
74994SOL    HW226880  12.756   1.375  14.042
74995SOL     OW26881  12.859   7.255   5.828
74995SOL    HW126882  12.784   7.259   5.769
74995SOL    HW226883  12.867   7.162   5.851
74996SOL     OW26884   3.067  10.008   5.421
74996SOL    HW126885   2.974   9.999   5.445
74996SOL    HW226886   3.085  10.101   5.429
74997SOL     OW26887   3.784  11.005  10.140
74997SOL    HW126888   3.720  11.057  10.092
74997SOL    HW226889   3.738  10.977  10.219
74998SOL     OW26890  12.694   6.657   4.596
74998SOL    HW126891  12.744   6.580   4.625
74998SOL    HW226892  12.658   6.692   4.677
74999SOL     OW26893   2.700  11.545   0.930
74999SOL    HW126894   2.717  11.606   0.858
74999SOL    HW226895   2.618  11.501   0.905
75000SOL     OW26896  11.084   9.328  14.109
75000SOL    HW126897  11.044   9.273  14.177
75000SOL    HW226898  11.173   9.295  14.101
75001SOL     OW26899   9.771  14.348  13.560
75001SOL    HW126900   9.710  14.358  13.633
75001SOL    HW226901   9.855  14.377  13.596
75002SOL     OW26902  12.731   8.858   4.144
75002SOL    HW126903  12.673   8.800   4.096
75002SOL    HW226904  12.675   8.898   4.211
75003SOL     OW26905   3.767  11.196  10.414
75003SOL    HW126906   3.837  11.162  10.470
75003SOL    HW226907   3.812  11.234  10.339
75004SOL     OW26908   6.115   3.272   5.130
75004SOL    HW126909   6.053   3.239   5.194
75004SOL    HW226910   6.093   3.365   5.121
75005SOL     OW26911   3.154  11.161   7.004
75005SOL    HW126912   3.175  11.075   7.039
75005SOL    HW226913   3.216  11.174   6.932
75006SOL     OW26914   8.098   8.655  12.763
75006SOL    HW126915   8.003   8.656  12.764
75006SOL    HW226916   8.123   8.747  12.769
75007SOL     OW26917   3.743   9.835   4.193
75007SOL    HW126918   3.798   9.904   4.231
75007SOL    HW226919   3.802   9.760   4.186
75008SOL     OW26920   3.595   9.389  11.229
75008SOL    HW126921   3.626   9.365  11.316
75008SOL    HW226922   3.586   9.484  11.232
75009SOL     OW26923   1.649   7.740   5.798
75009SOL    HW126924   1.679   7.717   5.886
75009SOL    HW226925   1.656   7.836   5.796
75010SOL     OW26926   7.686   6.428  12.306
75010SOL    HW126927   7.633   6.484  12.249
75010SOL    HW226928   7.689   6.344  12.260
75011SOL     OW26929   3.428   7.463   8.263
75011SOL    HW126930   3.495   7.402   8.232
75011SOL    HW226931   3.468   7.505   8.339
75012SOL     OW26932   3.460  10.523   0.621
75012SOL    HW126933   3.410  10.540   0.541
75012SOL    HW226934   3.550  10.544   0.597
75013SOL     OW26935  14.652   9.384   8.954
75013SOL    HW126936  14.721   9.327   8.987
75013SOL    HW226937  14.697   9.448   8.900
75014SOL     OW26938  12.782   8.104   1.136
75014SOL    HW126939  12.733   8.160   1.077
75014SOL    HW226940  12.863   8.085   1.088
75015SOL     OW26941   3.691   9.257  12.403
75015SOL    HW126942   3.672   9.169  12.369
75015SOL    HW226943   3.665   9.315  12.331
75016SOL     OW26944  13.118   0.719  10.917
75016SOL    HW126945  13.088   0.724  10.826
75016SOL    HW226946  13.101   0.806  10.953
75017SOL     OW26947  11.113  10.007   1.260
75017SOL    HW126948  11.203  10.038   1.271
75017SOL    HW226949  11.060  10.087   1.266
75018SOL     OW26950   7.247   1.193   6.871
75018SOL    HW126951   7.203   1.269   6.908
75018SOL    HW226952   7.187   1.160   6.804
75019SOL     OW26953   1.436   7.471   4.772
75019SOL    HW126954   1.453   7.479   4.678
75019SOL    HW226955   1.464   7.382   4.793
75020SOL     OW26956  11.781  11.798   9.383
75020SOL    HW126957  11.787  11.714   9.428
75020SOL    HW226958  11.851  11.851   9.422
75021SOL     OW26959   2.514  14.028   2.737
75021SOL    HW126960   2.455  13.992   2.804
75021SOL    HW226961   2.468  14.105   2.704
75022SOL     OW26962   0.827  13.485   7.577
75022SOL    HW126963   0.809  13.544   7.503
75022SOL    HW226964   0.862  13.542   7.645
75023SOL     OW26965   2.562  13.027  14.554
75023SOL    HW126966   2.595  13.028  14.464
75023SOL    HW226967   2.630  13.071  14.605
75024SOL     OW26968   0.546   5.439   2.469
75024SOL    HW126969   0.619   5.411   2.413
75024SOL    HW226970   0.471   5.441   2.410
75025SOL     OW26971   2.155   8.800   0.949
75025SOL    HW126972   2.140   8.765   0.861
75025SOL    HW226973   2.202   8.730   0.995
75026SOL     OW26974   4.488   4.807  12.063
75026SOL    HW126975   4.454   4.719  12.079
75026SOL    HW226976   4.434   4.841  11.991
75027SOL     OW26977   8.739   0.556   7.269
75027SOL    HW126978   8.818   0.593   7.228
75027SOL    HW226979   8.694   0.631   7.306
75028SOL     OW26980   3.494   4.117  12.298
75028SOL    HW126981   3.510   4.099  12.390
75028SOL    HW226982   3.570   4.081  12.252
75029SOL     OW26983  10.852  12.393   6.588
75029SOL    HW126984  10.864  12.474   6.638
75029SOL    HW226985  10.931  12.341   6.607
75030SOL     OW26986   8.945   1.539   7.314
75030SOL    HW126987   8.918   1.574   7.229
75030SOL    HW226988   9.035   1.571   7.325
75031SOL     OW26989  12.133   9.001  13.841
75031SOL    HW126990  12.197   9.010  13.771
75031SOL    HW226991  12.111   8.907  13.841
75032SOL     OW26992  12.142  14.635   5.947
75032SOL    HW126993  12.193  14.580   5.887
75032SOL    HW226994  12.079  14.576   5.987
75033SOL     OW26995   4.704   5.533   6.671
75033SOL    HW126996   4.763   5.607   6.654
75033SOL    HW226997   4.644   5.533   6.597
75034SOL     OW26998  10.472  14.164  12.167
75034SOL    HW126999  10.485  14.137  12.076
75034SOL    HW227000  10.498  14.256  12.169
75035SOL     OW27001   2.759   2.736  11.771
75035SOL    HW127002   2.687   2.793  11.743
75035SOL    HW227003   2.803   2.786  11.839
75036SOL     OW27004  12.889   1.930   4.232
75036SOL    HW127005  12.807   1.939   4.281
75036SOL    HW227006  12.909   2.019   4.203
75037SOL     OW27007   4.926   4.890  14.080
75037SOL    HW127008   4.883   4.835  14.015
75037SOL    HW227009   4.895   4.857  14.164
75038SOL     OW27010   8.345   9.716   4.618
75038SOL    HW127011   8.342   9.792   4.676
75038SOL    HW227012   8.437   9.691   4.615
75039SOL     OW27013  13.775   5.793   7.944
75039SOL    HW127014  13.741   5.722   7.998
75039SOL    HW227015  13.771   5.871   8.001
75040SOL     OW27016   0.024   7.720  10.237
75040SOL    HW127017   0.009   7.814  10.231
75040SOL    HW227018   0.090   7.710  10.306
75041SOL     OW27019   5.096   9.054   3.371
75041SOL    HW127020   5.094   9.049   3.467
75041SOL    HW227021   5.009   9.087   3.347
75042SOL     OW27022   4.307   2.461   4.745
75042SOL    HW127023   4.343   2.465   4.657
75042SOL    HW227024   4.362   2.521   4.796
75043SOL     OW27025   2.125  12.712  13.646
75043SOL    HW127026   2.060  12.740  13.581
75043SOL    HW227027   2.204  12.763  13.624
75044SOL     OW27028   2.668   9.745   7.227
75044SOL    HW127029   2.583   9.734   7.269
75044SOL    HW227030   2.730   9.745   7.300
75045SOL     OW27031  11.101   9.897   7.455
75045SOL    HW127032  11.142   9.846   7.525
75045SOL    HW227033  11.148   9.980   7.456
75046SOL     OW27034  13.853  14.050   1.564
75046SOL    HW127035  13.874  14.109   1.492
75046SOL    HW227036  13.768  14.013   1.542
75047SOL     OW27037  11.417  12.951   4.897
75047SOL    HW127038  11.450  13.040   4.910
75047SOL    HW227039  11.420  12.938   4.802
75048SOL     OW27040   7.756   7.099   5.334
75048SOL    HW127041   7.802   7.168   5.287
75048SOL    HW227042   7.803   7.019   5.311
75049SOL     OW27043  12.357  10.879  13.300
75049SOL    HW127044  12.372  10.822  13.225
75049SOL    HW227045  12.291  10.942  13.270
75050SOL     OW27046  14.483   3.862  11.229
75050SOL    HW127047  14.397   3.828  11.255
75050SOL    HW227048  14.504   3.816  11.148
75051SOL     OW27049   0.227   3.061  12.634
75051SOL    HW127050   0.273   2.984  12.599
75051SOL    HW227051   0.292   3.104  12.689
75052SOL     OW27052   2.001  10.341  12.739
75052SOL    HW127053   2.024  10.254  12.771
75052SOL    HW227054   1.905  10.341  12.735
75053SOL     OW27055   8.260   4.788  12.329
75053SOL    HW127056   8.187   4.804  12.390
75053SOL    HW227057   8.236   4.837  12.250
75054SOL     OW27058   6.894   2.173   0.274
75054SOL    HW127059   6.924   2.208   0.358
75054SOL    HW227060   6.815   2.124   0.296
75055SOL     OW27061  10.719   3.481   5.367
75055SOL    HW127062  10.780   3.461   5.438
75055SOL    HW227063  10.751   3.564   5.332
75056SOL     OW27064  12.912   6.229   2.567
75056SOL    HW127065  12.834   6.184   2.599
75056SOL    HW227066  12.972   6.230   2.641
75057SOL     OW27067   4.305   4.115   0.862
75057SOL    HW127068   4.228   4.161   0.895
75057SOL    HW227069   4.352   4.089   0.941
75058SOL     OW27070   1.568   2.896   4.762
75058SOL    HW127071   1.646   2.870   4.714
75058SOL    HW227072   1.594   2.892   4.854
75059SOL     OW27073   5.114  14.732  14.796
75059SOL    HW127074   5.109  14.792  14.721
75059SOL    HW227075   5.167  14.659  14.765
75060SOL     OW27076   5.546   1.502   9.740
75060SOL    HW127077   5.637   1.476   9.725
75060SOL    HW227078   5.537   1.585   9.694
75061SOL     OW27079  13.014  12.093   7.606
75061SOL    HW127080  12.952  12.147   7.559
75061SOL    HW227081  13.100  12.126   7.581
75062SOL     OW27082   9.371   9.419   5.447
75062SOL    HW127083   9.344   9.352   5.509
75062SOL    HW227084   9.289   9.453   5.411
75063SOL     OW27085   7.341   2.289   6.713
75063SOL    HW127086   7.402   2.358   6.738
75063SOL    HW227087   7.291   2.271   6.792
75064SOL     OW27088   3.536  10.236   8.343
75064SOL    HW127089   3.564  10.144   8.341
75064SOL    HW227090   3.601  10.282   8.291
75065SOL     OW27091   6.076  11.192   7.362
75065SOL    HW127092   6.138  11.119   7.367
75065SOL    HW227093   6.119  11.256   7.305
75066SOL     OW27094   1.166   2.493  14.707
75066SOL    HW127095   1.113   2.573  14.714
75066SOL    HW227096   1.210   2.501  14.622
75067SOL     OW27097   7.472  13.849   9.597
75067SOL    HW127098   7.443  13.850   9.689
75067SOL    HW227099   7.562  13.879   9.600
75068SOL     OW27100   6.317  14.665  10.886
75068SOL    HW127101   6.315  14.628  10.974
75068SOL    HW227102   6.225  14.676  10.862
75069SOL     OW27103   7.562   0.295   8.280
75069SOL    HW127104   7.486   0.239   8.266
75069SOL    HW227105   7.614   0.248   8.345
75070SOL     OW27106   0.878   4.519  13.411
75070SOL    HW127107   0.847   4.448  13.355
75070SOL    HW227108   0.850   4.599  13.365
75071SOL     OW27109  14.104   2.664   0.565
75071SOL    HW127110  14.052   2.672   0.485
75071SOL    HW227111  14.039   2.658   0.635
75072SOL     OW27112   6.136   1.805   0.157
75072SOL    HW127113   6.043   1.824   0.145
75072SOL    HW227114   6.173   1.805   0.069
75073SOL     OW27115   0.778  12.188   7.915
75073SOL    HW127116   0.851  12.199   7.855
75073SOL    HW227117   0.818  12.165   7.999
75074SOL     OW27118   0.743   5.041   8.769
75074SOL    HW127119   0.807   4.970   8.769
75074SOL    HW227120   0.658   4.997   8.769
75075SOL     OW27121   0.784  10.442   1.915
75075SOL    HW127122   0.689  10.451   1.908
75075SOL    HW227123   0.818  10.494   1.842
75076SOL     OW27124   7.023   3.829   1.438
75076SOL    HW127125   7.080   3.869   1.371
75076SOL    HW227126   6.962   3.900   1.462
75077SOL     OW27127  14.859   8.503   7.108
75077SOL    HW127128  14.781   8.545   7.146
75077SOL    HW227129   0.052   8.575   7.097
75078SOL     OW27130   8.888   9.815   3.401
75078SOL    HW127131   8.834   9.866   3.462
75078SOL    HW227132   8.835   9.738   3.381
75079SOL     OW27133  13.483   0.805  14.682
75079SOL    HW127134  13.399   0.796  14.726
75079SOL    HW227135  13.525   0.880  14.725
75080SOL     OW27136  12.868   8.158  13.026
75080SOL    HW127137  12.910   8.225  13.080
75080SOL    HW227138  12.926   8.082  13.032
75081SOL     OW27139  12.829   8.219   6.467
75081SOL    HW127140  12.812   8.127   6.488
75081SOL    HW227141  12.826   8.264   6.551
75082SOL     OW27142   4.029  13.448   8.620
75082SOL    HW127143   4.070  13.436   8.706
75082SOL    HW227144   3.992  13.536   8.623
75083SOL     OW27145   5.112  11.162   7.885
75083SOL    HW127146   5.091  11.104   7.958
75083SOL    HW227147   5.046  11.232   7.890
75084SOL     OW27148   1.911   1.184   1.853
75084SOL    HW127149   1.988   1.231   1.822
75084SOL    HW227150   1.880   1.236   1.927
75085SOL     OW27151   9.000  12.019   5.186
75085SOL    HW127152   8.985  12.056   5.273
75085SOL    HW227153   9.008  11.925   5.202
75086SOL     OW27154   9.274   8.966  10.684
75086SOL    HW127155   9.208   8.899  10.664
75086SOL    HW227156   9.336   8.921  10.741
75087SOL     OW27157  14.306  14.117   0.075
75087SOL    HW127158  14.290  14.192   0.132
75087SOL    HW227159  14.314  14.155  14.857
75088SOL     OW27160   7.381  11.197   7.492
75088SOL    HW127161   7.382  11.136   7.418
75088SOL    HW227162   7.423  11.149   7.563
75089SOL     OW27163   4.546   0.241   0.915
75089SOL    HW127164   4.555   0.217   0.822
75089SOL    HW227165   4.590   0.172   0.962
75090SOL     OW27166   4.492   5.880  14.371
75090SOL    HW127167   4.559   5.945  14.392
75090SOL    HW227168   4.439   5.921  14.303
75091SOL     OW27169   4.125   6.780   8.601
75091SOL    HW127170   4.057   6.784   8.667
75091SOL    HW227171   4.206   6.766   8.650
75092SOL     OW27172   0.315   8.932   9.514
75092SOL    HW127173   0.231   8.948   9.556
75092SOL    HW227174   0.337   8.842   9.540
75093SOL     OW27175   5.416   2.085   7.199
75093SOL    HW127176   5.447   2.158   7.253
75093SOL    HW227177   5.333   2.059   7.238
75094SOL     OW27178   8.144   4.986  12.718
75094SOL    HW127179   8.113   5.034  12.795
75094SOL    HW227180   8.235   4.963  12.739
75095SOL     OW27181   0.523   5.000  11.119
75095SOL    HW127182   0.472   4.959  11.189
75095SOL    HW227183   0.464   5.000  11.043
75096SOL     OW27184   2.821   2.504   1.736
75096SOL    HW127185   2.832   2.596   1.757
75096SOL    HW227186   2.828   2.459   1.820
75097SOL     OW27187   5.161   6.401   0.879
75097SOL    HW127188   5.230   6.352   0.835
75097SOL    HW227189   5.207   6.468   0.930
75098SOL     OW27190  12.803   0.942   4.296
75098SOL    HW127191  12.870   1.002   4.329
75098SOL    HW227192  12.776   0.892   4.373
75099SOL     OW27193  11.865  11.840   7.846
75099SOL    HW127194  11.950  11.828   7.888
75099SOL    HW227195  11.846  11.933   7.858
75100SOL     OW27196   7.812  10.290   9.401
75100SOL    HW127197   7.798  10.227   9.331
75100SOL    HW227198   7.907  10.291   9.413
75101SOL     OW27199   1.301   1.900   4.431
75101SOL    HW127200   1.346   1.853   4.502
75101SOL    HW227201   1.322   1.992   4.447
75102SOL     OW27202  14.093   1.795   4.633
75102SOL    HW127203  14.026   1.781   4.700
75102SOL    HW227204  14.067   1.876   4.589
75103SOL     OW27205   9.093  14.496   5.680
75103SOL    HW127206   9.138  14.555   5.740
75103SOL    HW227207   9.154  14.483   5.608
75104SOL     OW27208   4.342  14.059   2.835
75104SOL    HW127209   4.354  14.131   2.774
75104SOL    HW227210   4.275  14.089   2.896
75105SOL     OW27211  14.192   2.536  13.849
75105SOL    HW127212  14.193   2.468  13.782
75105SOL    HW227213  14.236   2.611  13.807
75106SOL     OW27214   2.054   6.710  14.519
75106SOL    HW127215   2.102   6.781  14.476
75106SOL    HW227216   2.109   6.633  14.507
75107SOL     OW27217   8.894   9.806   5.633
75107SOL    HW127218   8.893   9.797   5.728
75107SOL    HW227219   8.850   9.727   5.600
75108SOL     OW27220   4.067   4.525   9.249
75108SOL    HW127221   4.048   4.522   9.342
75108SOL    HW227222   3.984   4.499   9.207
75109SOL     OW27223   0.439  13.112   1.164
75109SOL    HW127224   0.526  13.138   1.134
75109SOL    HW227225   0.391  13.194   1.171
75110SOL     OW27226  13.332  12.939  13.385
75110SOL    HW127227  13.414  12.955  13.339
75110SOL    HW227228  13.318  13.019  13.437
75111SOL     OW27229   1.429  11.453   6.521
75111SOL    HW127230   1.354  11.485   6.571
75111SOL    HW227231   1.506  11.481   6.571
75112SOL     OW27232   1.519   4.734   8.633
75112SOL    HW127233   1.523   4.639   8.629
75112SOL    HW227234   1.433   4.757   8.597
75113SOL     OW27235   6.421  13.362  10.660
75113SOL    HW127236   6.397  13.381  10.751
75113SOL    HW227237   6.386  13.435  10.610
75114SOL     OW27238   6.401   9.418  13.949
75114SOL    HW127239   6.329   9.478  13.967
75114SOL    HW227240   6.437   9.396  14.035
75115SOL     OW27241   3.309  14.549  10.596
75115SOL    HW127242   3.263  14.626  10.562
75115SOL    HW227243   3.385  14.538  10.538
75116SOL     OW27244   6.457  14.219   4.489
75116SOL    HW127245   6.410  14.138   4.508
75116SOL    HW227246   6.528  14.221   4.553
75117SOL     OW27247   1.424  12.795   6.391
75117SOL    HW127248   1.339  12.754   6.406
75117SOL    HW227249   1.488  12.725   6.408
75118SOL     OW27250  11.437   3.984   3.812
75118SOL    HW127251  11.408   4.022   3.895
75118SOL    HW227252  11.494   4.050   3.774
75119SOL     OW27253   8.848   5.889   5.742
75119SOL    HW127254   8.855   5.955   5.811
75119SOL    HW227255   8.938   5.861   5.726
75120SOL     OW27256   3.606  12.859  10.993
75120SOL    HW127257   3.574  12.917  11.062
75120SOL    HW227258   3.634  12.780  11.038
75121SOL     OW27259  10.566   5.695   0.447
75121SOL    HW127260  10.593   5.637   0.518
75121SOL    HW227261  10.470   5.685   0.444
75122SOL     OW27262   5.177   8.294   7.195
75122SOL    HW127263   5.237   8.368   7.202
75122SOL    HW227264   5.142   8.282   7.283
75123SOL     OW27265   0.580   0.406   9.588
75123SOL    HW127266   0.577   0.433   9.496
75123SOL    HW227267   0.531   0.324   9.590
75124SOL     OW27268   6.962   3.820  10.589
75124SOL    HW127269   6.916   3.761  10.648
75124SOL    HW227270   6.897   3.887  10.566
75125SOL     OW27271   0.128  11.877  12.199
75125SOL    HW127272   0.076  11.927  12.261
75125SOL    HW227273   0.067  11.853  12.129
75126SOL     OW27274   3.660   8.664  14.314
75126SOL    HW127275   3.583   8.615  14.285
75126SOL    HW227276   3.695   8.612  14.387
75127SOL     OW27277   6.567  14.504  11.001
75127SOL    HW127278   6.506  14.478  10.932
75127SOL    HW227279   6.646  14.452  10.985
75128SOL     OW27280   6.882   0.280   2.479
75128SOL    HW127281   6.875   0.370   2.513
75128SOL    HW227282   6.902   0.228   2.557
75129SOL     OW27283   6.733   6.917   1.985
75129SOL    HW127284   6.722   6.939   2.077
75129SOL    HW227285   6.646   6.893   1.955
75130SOL     OW27286   4.962   9.398   5.473
75130SOL    HW127287   4.995   9.325   5.525
75130SOL    HW227288   4.879   9.366   5.436
75131SOL     OW27289  10.675  13.769  12.216
75131SOL    HW127290  10.684  13.864  12.215
75131SOL    HW227291  10.668  13.744  12.124
75132SOL     OW27292   1.562   5.000  10.285
75132SOL    HW127293   1.536   5.024  10.195
75132SOL    HW227294   1.504   5.052  10.341
75133SOL     OW27295   9.928   7.355  10.060
75133SOL    HW127296   9.952   7.331  10.149
75133SOL    HW227297   9.902   7.272  10.019
75134SOL     OW27298   3.993  11.524   4.673
75134SOL    HW127299   3.898  11.515   4.664
75134SOL    HW227300   4.028  11.442   4.637
75135SOL     OW27301  10.135   1.297   2.213
75135SOL    HW127302  10.147   1.288   2.308
75135SOL    HW227303  10.046   1.331   2.203
75136SOL     OW27304   4.003  14.457   4.554
75136SOL    HW127305   3.999  14.396   4.627
75136SOL    HW227306   4.083  14.433   4.508
75137SOL     OW27307   8.223  11.110   6.049
75137SOL    HW127308   8.273  11.190   6.061
75137SOL    HW227309   8.220  11.097   5.954
75138SOL     OW27310   3.256  13.849  10.745
75138SOL    HW127311   3.277  13.876  10.655
75138SOL    HW227312   3.278  13.756  10.747
75139SOL     OW27313  10.626  13.440   1.045
75139SOL    HW127314  10.686  13.504   1.085
75139SOL    HW227315  10.653  13.356   1.082
75140SOL     OW27316   7.297   1.853   6.640
75140SOL    HW127317   7.255   1.767   6.634
75140SOL    HW227318   7.235   1.906   6.691
75141SOL     OW27319   9.041  14.259   7.279
75141SOL    HW127320   8.984  14.189   7.249
75141SOL    HW227321   8.996  14.296   7.355
75142SOL     OW27322   3.190   3.072  14.636
75142SOL    HW127323   3.226   3.072  14.547
75142SOL    HW227324   3.127   3.144  14.637
75143SOL     OW27325   5.094   2.523   5.157
75143SOL    HW127326   5.088   2.538   5.063
75143SOL    HW227327   5.007   2.491   5.182
75144SOL     OW27328   7.517   1.731  11.363
75144SOL    HW127329   7.521   1.640  11.392
75144SOL    HW227330   7.594   1.773  11.403
75145SOL     OW27331  11.473  11.278  13.355
75145SOL    HW127332  11.460  11.325  13.438
75145SOL    HW227333  11.544  11.216  13.374
75146SOL     OW27334   0.520  12.135   6.214
75146SOL    HW127335   0.475  12.090   6.143
75146SOL    HW227336   0.491  12.089   6.293
75147SOL     OW27337   7.180  13.598  11.618
75147SOL    HW127338   7.212  13.685  11.640
75147SOL    HW227339   7.181  13.595  11.523
75148SOL     OW27340  10.165  14.483   5.775
75148SOL    HW127341  10.178  14.551   5.708
75148SOL    HW227342  10.092  14.516   5.828
75149SOL     OW27343  11.649  12.016   9.581
75149SOL    HW127344  11.618  11.977   9.662
75149SOL    HW227345  11.675  11.942   9.527
75150SOL     OW27346   2.308  10.034   6.129
75150SOL    HW127347   2.301  10.008   6.221
75150SOL    HW227348   2.266  10.120   6.125
75151SOL     OW27349  12.737   8.510   9.083
75151SOL    HW127350  12.776   8.515   8.996
75151SOL    HW227351  12.649   8.475   9.067
75152SOL     OW27352  10.111   9.763   0.793
75152SOL    HW127353  10.115   9.792   0.884
75152SOL    HW227354  10.128   9.842   0.741
75153SOL     OW27355  12.846  12.499   0.451
75153SOL    HW127356  12.768  12.549   0.425
75153SOL    HW227357  12.865  12.530   0.540
75154SOL     OW27358   3.304  13.654   8.460
75154SOL    HW127359   3.242  13.702   8.405
75154SOL    HW227360   3.384  13.648   8.407
75155SOL     OW27361  10.997   5.005   3.903
75155SOL    HW127362  11.052   5.083   3.900
75155SOL    HW227363  10.907   5.039   3.897
75156SOL     OW27364   7.182   1.521   4.846
75156SOL    HW127365   7.146   1.593   4.794
75156SOL    HW227366   7.259   1.492   4.797
75157SOL     OW27367  10.834   7.936   4.115
75157SOL    HW127368  10.802   7.974   4.197
75157SOL    HW227369  10.910   7.884   4.141
75158SOL     OW27370  10.599  10.782  13.465
75158SOL    HW127371  10.611  10.862  13.415
75158SOL    HW227372  10.660  10.792  13.539
75159SOL     OW27373  14.534   6.081   6.834
75159SOL    HW127374  14.629   6.078   6.844
75159SOL    HW227375  14.520   6.116   6.746
75160SOL     OW27376   9.526   9.700   9.753
75160SOL    HW127377   9.589   9.654   9.698
75160SOL    HW227378   9.441   9.664   9.727
75161SOL     OW27379   6.988   8.635  13.121
75161SOL    HW127380   6.963   8.713  13.071
75161SOL    HW227381   7.042   8.669  13.193
75162SOL     OW27382   9.080   6.945  10.591
75162SOL    HW127383   9.051   6.944  10.683
75162SOL    HW227384   9.003   6.974  10.543
75163SOL     OW27385   9.160   9.684   5.428
75163SOL    HW127386   9.093   9.655   5.366
75163SOL    HW227387   9.162   9.779   5.419
75164SOL     OW27388  11.337   5.790   0.750
75164SOL    HW127389  11.359   5.844   0.826
75164SOL    HW227390  11.413   5.733   0.738
75165SOL     OW27391   7.084  12.628   6.553
75165SOL    HW127392   7.105  12.608   6.645
75165SOL    HW227393   7.135  12.707   6.534
75166SOL     OW27394   1.139   0.005   2.579
75166SOL    HW127395   1.106  14.811   2.516
75166SOL    HW227396   1.232  14.853   2.588
75167SOL     OW27397  13.568   3.748   1.212
75167SOL    HW127398  13.609   3.718   1.293
75167SOL    HW227399  13.490   3.694   1.202
75168SOL     OW27400   2.816   3.577   7.554
75168SOL    HW127401   2.812   3.527   7.635
75168SOL    HW227402   2.900   3.623   7.558
75169SOL     OW27403   8.676   9.459  13.083
75169SOL    HW127404   8.766   9.428  13.098
75169SOL    HW227405   8.687   9.547  13.047
75170SOL     OW27406   4.073  13.220   9.582
75170SOL    HW127407   4.129  13.263   9.646
75170SOL    HW227408   4.038  13.144   9.628
75171SOL     OW27409   7.370   8.223   8.789
75171SOL    HW127410   7.400   8.161   8.855
75171SOL    HW227411   7.344   8.168   8.715
75172SOL     OW27412   7.421  11.444   6.581
75172SOL    HW127413   7.494  11.498   6.611
75172SOL    HW227414   7.352  11.507   6.559
75173SOL     OW27415   4.710   9.640   3.499
75173SOL    HW127416   4.694   9.567   3.559
75173SOL    HW227417   4.784   9.611   3.446
75174SOL     OW27418   1.328  10.559   2.425
75174SOL    HW127419   1.309  10.505   2.348
75174SOL    HW227420   1.242  10.577   2.463
75175SOL     OW27421   2.289   9.689   6.721
75175SOL    HW127422   2.371   9.731   6.747
75175SOL    HW227423   2.271   9.625   6.790
75176SOL     OW27424   2.413  10.192   0.903
75176SOL    HW127425   2.499  10.157   0.929
75176SOL    HW227426   2.369  10.211   0.986
75177SOL     OW27427  11.745  10.698   0.994
75177SOL    HW127428  11.775  10.784   1.025
75177SOL    HW227429  11.780  10.691   0.905
75178SOL     OW27430  13.170  11.618  13.335
75178SOL    HW127431  13.165  11.576  13.249
75178SOL    HW227432  13.263  11.637  13.347
75179SOL     OW27433   8.486   2.827  13.679
75179SOL    HW127434   8.515   2.848  13.590
75179SOL    HW227435   8.558   2.774  13.715
75180SOL     OW27436  11.974  11.112   7.141
75180SOL    HW127437  11.909  11.043   7.155
75180SOL    HW227438  11.956  11.176   7.210
75181SOL     OW27439   8.997   8.397  14.409
75181SOL    HW127440   9.068   8.395  14.344
75181SOL    HW227441   9.039   8.426  14.489
75182SOL     OW27442  14.270   7.129  11.317
75182SOL    HW127443  14.189   7.118  11.268
75182SOL    HW227444  14.254   7.203  11.375
75183SOL     OW27445   6.863  14.473  12.920
75183SOL    HW127446   6.839  14.477  12.828
75183SOL    HW227447   6.870  14.564  12.947
75184SOL     OW27448   0.361  11.349  10.131
75184SOL    HW127449   0.323  11.319  10.214
75184SOL    HW227450   0.327  11.438  10.120
75185SOL     OW27451   2.766  10.594  13.404
75185SOL    HW127452   2.837  10.530  13.416
75185SOL    HW227453   2.794  10.671  13.454
75186SOL     OW27454  12.585   8.444   5.220
75186SOL    HW127455  12.568   8.533   5.191
75186SOL    HW227456  12.633   8.454   5.302
75187SOL     OW27457   6.790   6.070  11.770
75187SOL    HW127458   6.756   6.065  11.859
75187SOL    HW227459   6.787   6.164  11.748
75188SOL     OW27460  13.051   8.978   1.948
75188SOL    HW127461  13.073   8.886   1.961
75188SOL    HW227462  13.130   9.017   1.911
75189SOL     OW27463   9.914  13.213  12.395
75189SOL    HW127464   9.970  13.166  12.457
75189SOL    HW227465   9.925  13.305  12.418
75190SOL     OW27466   0.752   2.623   6.278
75190SOL    HW127467   0.707   2.705   6.301
75190SOL    HW227468   0.809   2.647   6.205
75191SOL     OW27469  12.163  14.337  11.725
75191SOL    HW127470  12.121  14.283  11.658
75191SOL    HW227471  12.256  14.329  11.706
75192SOL     OW27472  11.243  11.928   7.720
75192SOL    HW127473  11.171  11.952   7.779
75192SOL    HW227474  11.212  11.953   7.633
75193SOL     OW27475   1.042   4.297   1.076
75193SOL    HW127476   1.032   4.263   1.165
75193SOL    HW227477   1.122   4.257   1.044
75194SOL     OW27478   4.649   2.957   2.073
75194SOL    HW127479   4.661   3.005   2.155
75194SOL    HW227480   4.568   2.991   2.036
75195SOL     OW27481  13.692   4.000   0.965
75195SOL    HW127482  13.736   3.956   1.038
75195SOL    HW227483  13.658   4.081   1.003
75196SOL     OW27484   9.824   0.484   9.408
75196SOL    HW127485   9.829   0.474   9.503
75196SOL    HW227486   9.744   0.534   9.393
75197SOL     OW27487  10.154   5.662  13.546
75197SOL    HW127488  10.232   5.694  13.589
75197SOL    HW227489  10.104   5.619  13.615
75198SOL     OW27490   0.064   3.804   8.920
75198SOL    HW127491   0.148   3.757   8.919
75198SOL    HW227492   0.018   3.773   8.843
75199SOL     OW27493  14.569  11.419  11.073
75199SOL    HW127494  14.603  11.370  11.148
75199SOL    HW227495  14.494  11.368  11.043
75200SOL     OW27496   7.885  13.341  11.491
75200SOL    HW127497   7.907  13.265  11.437
75200SOL    HW227498   7.798  13.321  11.525
75201SOL     OW27499   1.471  14.306   5.054
75201SOL    HW127500   1.487  14.283   4.962
75201SOL    HW227501   1.395  14.364   5.051
75202SOL     OW27502   4.313   6.038   5.811
75202SOL    HW127503   4.234   5.996   5.776
75202SOL    HW227504   4.381   6.018   5.747
75203SOL     OW27505   2.751  14.717   8.103
75203SOL    HW127506   2.765  14.795   8.157
75203SOL    HW227507   2.682  14.741   8.042
75204SOL     OW27508   4.374  13.919   5.628
75204SOL    HW127509   4.310  13.948   5.563
75204SOL    HW227510   4.350  13.965   5.709
75205SOL     OW27511  12.667  10.455  14.523
75205SOL    HW127512  12.729  10.491  14.459
75205SOL    HW227513  12.701  10.484  14.607
75206SOL     OW27514   9.456   5.325  13.467
75206SOL    HW127515   9.497   5.260  13.410
75206SOL    HW227516   9.417   5.388  13.406
75207SOL     OW27517  14.787  14.153   4.876
75207SOL    HW127518  14.755  14.232   4.920
75207SOL    HW227519  14.735  14.082   4.913
75208SOL     OW27520   0.434  14.218   1.709
75208SOL    HW127521   0.505  14.269   1.669
75208SOL    HW227522   0.478  14.167   1.778
75209SOL     OW27523   8.009   0.698   6.147
75209SOL    HW127524   8.098   0.735   6.149
75209SOL    HW227525   8.008   0.634   6.218
75210SOL     OW27526  12.031   6.316   2.316
75210SOL    HW127527  11.955   6.358   2.277
75210SOL    HW227528  12.086   6.292   2.241
75211SOL     OW27529   7.299   2.858  13.007
75211SOL    HW127530   7.307   2.816  12.922
75211SOL    HW227531   7.255   2.941  12.989
75212SOL     OW27532   1.633   3.645   0.414
75212SOL    HW127533   1.633   3.596   0.496
75212SOL    HW227534   1.576   3.720   0.431
75213SOL     OW27535   5.265   1.315  11.095
75213SOL    HW127536   5.224   1.384  11.042
75213SOL    HW227537   5.211   1.311  11.174
75214SOL     OW27538  13.685  14.440  14.018
75214SOL    HW127539  13.615  14.472  13.961
75214SOL    HW227540  13.646  14.365  14.064
75215SOL     OW27541   0.427   2.094   5.119
75215SOL    HW127542   0.342   2.061   5.147
75215SOL    HW227543   0.411   2.133   5.033
75216SOL     OW27544   5.412   7.379   2.758
75216SOL    HW127545   5.319   7.385   2.739
75216SOL    HW227546   5.438   7.293   2.724
75217SOL     OW27547   8.408   2.338   6.394
75217SOL    HW127548   8.317   2.336   6.423
75217SOL    HW227549   8.422   2.253   6.354
75218SOL     OW27550  11.007  12.074   7.844
75218SOL    HW127551  10.931  12.080   7.903
75218SOL    HW227552  10.975  12.023   7.769
75219SOL     OW27553   2.506   6.181  12.218
75219SOL    HW127554   2.583   6.181  12.276
75219SOL    HW227555   2.437   6.221  12.271
75220SOL     OW27556   5.456  10.400  12.044
75220SOL    HW127557   5.477  10.309  12.026
75220SOL    HW227558   5.413  10.399  12.129
75221SOL     OW27559  11.275   0.777   3.877
75221SOL    HW127560  11.338   0.779   3.949
75221SOL    HW227561  11.289   0.692   3.835
75222SOL     OW27562   1.140  14.014   6.311
75222SOL    HW127563   1.118  14.072   6.238
75222SOL    HW227564   1.131  13.926   6.275
75223SOL     OW27565   4.097  10.156   5.031
75223SOL    HW127566   4.044  10.077   5.045
75223SOL    HW227567   4.136  10.175   5.117
75224SOL     OW27568  11.381   7.140   0.586
75224SOL    HW127569  11.376   7.122   0.680
75224SOL    HW227570  11.325   7.216   0.572
75225SOL     OW27571   1.006  10.971   1.709
75225SOL    HW127572   1.086  10.932   1.676
75225SOL    HW227573   1.034  11.028   1.781
75226SOL     OW27574  10.492   6.165   3.458
75226SOL    HW127575  10.518   6.124   3.540
75226SOL    HW227576  10.423   6.108   3.423
75227SOL     OW27577  12.582   6.104   0.635
75227SOL    HW127578  12.493   6.086   0.662
75227SOL    HW227579  12.630   6.022   0.653
75228SOL     OW27580   4.931   6.785   4.725
75228SOL    HW127581   4.923   6.693   4.751
75228SOL    HW227582   4.908   6.785   4.632
75229SOL     OW27583   2.800   5.702  11.656
75229SOL    HW127584   2.732   5.710  11.590
75229SOL    HW227585   2.784   5.773  11.717
75230SOL     OW27586   2.427   8.812  11.671
75230SOL    HW127587   2.377   8.761  11.608
75230SOL    HW227588   2.517   8.780  11.661
75231SOL     OW27589   0.034   8.097   1.065
75231SOL    HW127590   0.100   8.163   1.086
75231SOL    HW227591  14.828   8.120   1.120
75232SOL     OW27592  13.740   1.054   5.726
75232SOL    HW127593  13.674   1.024   5.664
75232SOL    HW227594  13.693   1.107   5.789
75233SOL     OW27595  10.689   1.710   4.814
75233SOL    HW127596  10.618   1.762   4.776
75233SOL    HW227597  10.703   1.640   4.750
75234SOL     OW27598  10.959   4.473   3.167
75234SOL    HW127599  10.894   4.543   3.162
75234SOL    HW227600  11.036   4.508   3.122
75235SOL     OW27601   7.970   7.627  12.635
75235SOL    HW127602   7.893   7.599  12.585
75235SOL    HW227603   7.947   7.610  12.726
75236SOL     OW27604   0.361   5.097   0.839
75236SOL    HW127605   0.383   5.191   0.836
75236SOL    HW227606   0.445   5.053   0.845
75237SOL     OW27607   1.729   6.069  12.066
75237SOL    HW127608   1.641   6.049  12.033
75237SOL    HW227609   1.781   5.993  12.042
75238SOL     OW27610   6.722  12.551  12.659
75238SOL    HW127611   6.733  12.457  12.646
75238SOL    HW227612   6.799  12.577  12.709
75239SOL     OW27613   2.097  12.534   6.032
75239SOL    HW127614   2.016  12.495   6.064
75239SOL    HW227615   2.130  12.472   5.967
75240SOL     OW27616   3.737   3.731   7.121
75240SOL    HW127617   3.785   3.790   7.178
75240SOL    HW227618   3.779   3.646   7.134
75241SOL     OW27619   7.982  11.949   5.281
75241SOL    HW127620   8.006  12.006   5.208
75241SOL    HW227621   7.984  12.006   5.358
75242SOL     OW27622   1.594  14.864  11.159
75242SOL    HW127623   1.639  14.821  11.086
75242SOL    HW227624   1.647  14.840  11.236
75243SOL     OW27625  12.733  14.499   0.726
75243SOL    HW127626  12.814  14.538   0.759
75243SOL    HW227627  12.762  14.432   0.664
75244SOL     OW27628  12.151   6.578  14.778
75244SOL    HW127629  12.239   6.541  14.776
75244SOL    HW227630  12.093   6.502  14.765
75245SOL     OW27631   5.563   2.411   8.604
75245SOL    HW127632   5.606   2.463   8.672
75245SOL    HW227633   5.621   2.336   8.592
75246SOL     OW27634   8.089   9.898   5.498
75246SOL    HW127635   8.049   9.919   5.414
75246SOL    HW227636   8.155   9.833   5.477
75247SOL     OW27637  10.604   7.561  12.176
75247SOL    HW127638  10.590   7.483  12.230
75247SOL    HW227639  10.699   7.572  12.174
75248SOL     OW27640  10.332   4.767   6.109
75248SOL    HW127641  10.341   4.673   6.119
75248SOL    HW227642  10.245   4.788   6.143
75249SOL     OW27643   8.733  10.099  12.736
75249SOL    HW127644   8.758  10.126  12.825
75249SOL    HW227645   8.659  10.157  12.714
75250SOL     OW27646  11.212  12.350   2.966
75250SOL    HW127647  11.239  12.262   2.942
75250SOL    HW227648  11.239  12.361   3.057
75251SOL     OW27649   4.188   5.069  12.076
75251SOL    HW127650   4.134   5.148  12.074
75251SOL    HW227651   4.258   5.089  12.138
75252SOL     OW27652   4.877  12.269   4.416
75252SOL    HW127653   4.962  12.264   4.460
75252SOL    HW227654   4.893  12.239   4.327
75253SOL     OW27655   8.949   1.241   9.207
75253SOL    HW127656   8.945   1.295   9.129
75253SOL    HW227657   8.883   1.172   9.192
75254SOL     OW27658  10.640  10.029   2.089
75254SOL    HW127659  10.681   9.965   2.031
75254SOL    HW227660  10.710  10.058   2.147
75255SOL     OW27661  14.057  11.522   8.778
75255SOL    HW127662  14.053  11.586   8.707
75255SOL    HW227663  14.108  11.449   8.743
75256SOL     OW27664   6.876   6.764   3.422
75256SOL    HW127665   6.932   6.690   3.397
75256SOL    HW227666   6.847   6.801   3.339
75257SOL     OW27667   7.454   5.946   0.934
75257SOL    HW127668   7.432   5.929   1.026
75257SOL    HW227669   7.540   5.988   0.937
75258SOL     OW27670   2.334   0.619   2.044
75258SOL    HW127671   2.357   0.673   1.968
75258SOL    HW227672   2.365   0.670   2.120
75259SOL     OW27673  11.705   7.304  14.216
75259SOL    HW127674  11.691   7.390  14.177
75259SOL    HW227675  11.693   7.318  14.310
75260SOL     OW27676  10.212   2.899   7.466
75260SOL    HW127677  10.254   2.948   7.536
75260SOL    HW227678  10.246   2.939   7.385
75261SOL     OW27679   6.070   8.745   0.179
75261SOL    HW127680   6.124   8.697   0.242
75261SOL    HW227681   6.132   8.793   0.125
75262SOL     OW27682   3.292  12.038   5.162
75262SOL    HW127683   3.331  12.120   5.192
75262SOL    HW227684   3.216  12.026   5.219
75263SOL     OW27685   0.767   9.440  11.552
75263SOL    HW127686   0.859   9.467  11.553
75263SOL    HW227687   0.768   9.350  11.585
75264SOL     OW27688  12.284  14.647   0.111
75264SOL    HW127689  12.316  14.730   0.075
75264SOL    HW227690  12.192  14.644   0.085
75265SOL     OW27691   8.828   4.154   4.166
75265SOL    HW127692   8.735   4.147   4.184
75265SOL    HW227693   8.843   4.247   4.149
75266SOL     OW27694   4.352  13.261   6.673
75266SOL    HW127695   4.433  13.218   6.700
75266SOL    HW227696   4.369  13.355   6.683
75267SOL     OW27697  12.757   3.024   0.186
75267SOL    HW127698  12.697   2.956   0.218
75267SOL    HW227699  12.794   2.986   0.106
75268SOL     OW27700   1.079   3.311   3.256
75268SOL    HW127701   1.131   3.389   3.278
75268SOL    HW227702   1.140   3.238   3.264
75269SOL     OW27703   6.149   3.619   7.072
75269SOL    HW127704   6.113   3.535   7.046
75269SOL    HW227705   6.213   3.640   7.003
75270SOL     OW27706   3.917   0.294  12.836
75270SOL    HW127707   3.874   0.211  12.858
75270SOL    HW227708   3.930   0.290  12.741
75271SOL     OW27709   3.703   8.013   7.917
75271SOL    HW127710   3.687   7.985   8.008
75271SOL    HW227711   3.628   8.068   7.895
75272SOL     OW27712  13.887   0.289   0.115
75272SOL    HW127713  13.882   0.379   0.149
75272SOL    HW227714  13.974   0.283   0.076
75273SOL     OW27715   3.098   0.844   3.049
75273SOL    HW127716   3.098   0.864   3.143
75273SOL    HW227717   3.100   0.749   3.045
75274SOL     OW27718  11.081   7.245   2.084
75274SOL    HW127719  11.155   7.187   2.105
75274SOL    HW227720  11.009   7.211   2.136
75275SOL     OW27721  13.599   5.582   1.615
75275SOL    HW127722  13.603   5.563   1.521
75275SOL    HW227723  13.668   5.647   1.629
75276SOL     OW27724   1.553   7.646   0.892
75276SOL    HW127725   1.515   7.559   0.903
75276SOL    HW227726   1.533   7.669   0.801
75277SOL     OW27727   7.346   8.673   6.531
75277SOL    HW127728   7.300   8.732   6.472
75277SOL    HW227729   7.396   8.731   6.589
75278SOL     OW27730   3.922   2.868   9.837
75278SOL    HW127731   3.835   2.899   9.815
75278SOL    HW227732   3.982   2.929   9.793
75279SOL     OW27733   3.176   1.321   8.496
75279SOL    HW127734   3.095   1.371   8.486
75279SOL    HW227735   3.148   1.230   8.502
75280SOL     OW27736  13.733   4.458  13.004
75280SOL    HW127737  13.661   4.467  12.941
75280SOL    HW227738  13.732   4.540  13.054
75281SOL     OW27739   5.333   3.013   4.847
75281SOL    HW127740   5.325   2.917   4.842
75281SOL    HW227741   5.330   3.042   4.756
75282SOL     OW27742   2.884   9.724   9.342
75282SOL    HW127743   2.868   9.818   9.346
75282SOL    HW227744   2.927   9.710   9.258
75283SOL     OW27745  13.818   5.561   7.213
75283SOL    HW127746  13.761   5.547   7.138
75283SOL    HW227747  13.849   5.651   7.204
75284SOL     OW27748  10.519  11.561   3.272
75284SOL    HW127749  10.534  11.599   3.186
75284SOL    HW227750  10.573  11.482   3.273
75285SOL     OW27751  12.094  13.195  14.043
75285SOL    HW127752  12.075  13.288  14.056
75285SOL    HW227753  12.016  13.161  13.999
75286SOL     OW27754   4.995   4.106   7.876
75286SOL    HW127755   5.055   4.034   7.899
75286SOL    HW227756   5.052   4.181   7.862
75287SOL     OW27757   1.956   4.345  13.350
75287SOL    HW127758   2.034   4.399  13.363
75287SOL    HW227759   1.990   4.258  13.331
75288SOL     OW27760  10.306   5.014   7.451
75288SOL    HW127761  10.391   5.011   7.407
75288SOL    HW227762  10.273   4.924   7.446
75289SOL     OW27763   8.802   6.897   2.112
75289SOL    HW127764   8.825   6.806   2.094
75289SOL    HW227765   8.885   6.938   2.140
75290SOL     OW27766   2.129  10.286   4.816
75290SOL    HW127767   2.107  10.320   4.729
75290SOL    HW227768   2.125  10.362   4.874
75291SOL     OW27769   4.457   6.995  12.316
75291SOL    HW127770   4.475   7.028  12.404
75291SOL    HW227771   4.540   7.003  12.269
75292SOL     OW27772   3.848   9.525  10.682
75292SOL    HW127773   3.792   9.551  10.608
75292SOL    HW227774   3.876   9.436  10.660
75293SOL     OW27775  10.188   9.546   3.455
75293SOL    HW127776  10.132   9.484   3.501
75293SOL    HW227777  10.153   9.632   3.478
75294SOL     OW27778   4.010   7.008   4.893
75294SOL    HW127779   4.018   6.918   4.925
75294SOL    HW227780   3.985   6.998   4.801
75295SOL     OW27781   3.333  10.115  14.222
75295SOL    HW127782   3.329  10.070  14.306
75295SOL    HW227783   3.258  10.174  14.222
75296SOL     OW27784   7.907  14.335   8.102
75296SOL    HW127785   7.925  14.247   8.068
75296SOL    HW227786   7.813  14.348   8.086
75297SOL     OW27787   2.655  12.344  13.987
75297SOL    HW127788   2.729  12.394  14.023
75297SOL    HW227789   2.612  12.405  13.927
75298SOL     OW27790   8.914   9.904   4.547
75298SOL    HW127791   8.930   9.928   4.456
75298SOL    HW227792   8.979   9.837   4.567
75299SOL     OW27793   7.533  14.005  13.877
75299SOL    HW127794   7.467  14.061  13.917
75299SOL    HW227795   7.544  13.933  13.939
75300SOL     OW27796   4.984   6.442   5.457
75300SOL    HW127797   4.950   6.362   5.416
75300SOL    HW227798   4.950   6.438   5.546
75301SOL     OW27799   3.279   7.616   9.673
75301SOL    HW127800   3.287   7.527   9.636
75301SOL    HW227801   3.364   7.632   9.713
75302SOL     OW27802  12.010   4.505   2.093
75302SOL    HW127803  11.966   4.590   2.100
75302SOL    HW227804  12.048   4.505   2.005
75303SOL     OW27805  10.600  12.646  14.088
75303SOL    HW127806  10.540  12.574  14.065
75303SOL    HW227807  10.679  12.602  14.118
75304SOL     OW27808   0.016   7.089  10.165
75304SOL    HW127809  14.859   7.158  10.104
75304SOL    HW227810  14.862   7.123  10.251
75305SOL     OW27811   0.437   1.547  14.416
75305SOL    HW127812   0.370   1.510  14.473
75305SOL    HW227813   0.520   1.526  14.460
75306SOL     OW27814  12.986  11.810   5.621
75306SOL    HW127815  12.977  11.796   5.716
75306SOL    HW227816  12.950  11.730   5.582
75307SOL     OW27817  13.225   0.203  10.152
75307SOL    HW127818  13.170   0.136  10.112
75307SOL    HW227819  13.281   0.155  10.213
75308SOL     OW27820  12.571   3.794  10.818
75308SOL    HW127821  12.607   3.852  10.885
75308SOL    HW227822  12.486   3.767  10.853
75309SOL     OW27823  10.754   8.335  12.775
75309SOL    HW127824  10.670   8.366  12.808
75309SOL    HW227825  10.754   8.241  12.793
75310SOL     OW27826   5.393   9.673   0.412
75310SOL    HW127827   5.380   9.749   0.469
75310SOL    HW227828   5.480   9.687   0.373
75311SOL     OW27829   0.750  13.110  12.719
75311SOL    HW127830   0.840  13.107  12.688
75311SOL    HW227831   0.727  13.203  12.719
75312SOL     OW27832   9.645   7.116   3.750
75312SOL    HW127833   9.676   7.192   3.700
75312SOL    HW227834   9.632   7.149   3.839
75313SOL     OW27835   9.963  13.754   9.815
75313SOL    HW127836   9.984  13.828   9.758
75313SOL    HW227837   9.994  13.677   9.768
75314SOL     OW27838   7.422  10.163   5.175
75314SOL    HW127839   7.427  10.167   5.270
75314SOL    HW227840   7.461  10.244   5.145
75315SOL     OW27841   4.691  12.640   8.814
75315SOL    HW127842   4.676  12.589   8.734
75315SOL    HW227843   4.759  12.703   8.789
75316SOL     OW27844   8.686  13.171   8.782
75316SOL    HW127845   8.593  13.177   8.762
75316SOL    HW227846   8.694  13.090   8.833
75317SOL     OW27847   6.987   7.377   7.822
75317SOL    HW127848   6.976   7.285   7.798
75317SOL    HW227849   6.932   7.425   7.760
75318SOL     OW27850  13.138   2.898  13.458
75318SOL    HW127851  13.112   2.966  13.520
75318SOL    HW227852  13.228   2.920  13.435
75319SOL     OW27853   5.106  12.444   7.506
75319SOL    HW127854   5.185  12.470   7.459
75319SOL    HW227855   5.039  12.506   7.477
75320SOL     OW27856  10.033   2.935   8.962
75320SOL    HW127857  10.027   2.883   9.042
75320SOL    HW227858  10.037   3.026   8.992
75321SOL     OW27859  12.145   2.714   5.309
75321SOL    HW127860  12.238   2.722   5.289
75321SOL    HW227861  12.138   2.743   5.400
75322SOL     OW27862   5.986  14.827   1.315
75322SOL    HW127863   6.004  14.735   1.296
75322SOL    HW227864   5.893  14.838   1.294
75323SOL     OW27865   0.699   8.584  11.843
75323SOL    HW127866   0.717   8.511  11.784
75323SOL    HW227867   0.727   8.553  11.929
75324SOL     OW27868   5.324  14.024   9.441
75324SOL    HW127869   5.243  14.073   9.423
75324SOL    HW227870   5.337  13.970   9.363
75325SOL     OW27871  13.777   0.951   3.085
75325SOL    HW127872  13.767   0.875   3.141
75325SOL    HW227873  13.756   1.025   3.141
75326SOL     OW27874   9.859   2.621   7.833
75326SOL    HW127875   9.950   2.616   7.862
75326SOL    HW227876   9.826   2.703   7.870
75327SOL     OW27877   5.989  11.838   6.620
75327SOL    HW127878   6.006  11.933   6.622
75327SOL    HW227879   5.905  11.830   6.575
75328SOL     OW27880   1.702   2.359   1.256
75328SOL    HW127881   1.682   2.419   1.185
75328SOL    HW227882   1.647   2.389   1.329
75329SOL     OW27883  12.006   8.357   0.044
75329SOL    HW127884  11.928   8.381   0.094
75329SOL    HW227885  12.076   8.411   0.080
75330SOL     OW27886   2.479   6.643  14.531
75330SOL    HW127887   2.504   6.697  14.457
75330SOL    HW227888   2.540   6.570  14.529
75331SOL     OW27889  12.038  13.616   1.596
75331SOL    HW127890  12.085  13.533   1.603
75331SOL    HW227891  12.016  13.639   1.686
75332SOL     OW27892  13.324   1.097  11.040
75332SOL    HW127893  13.385   1.154  10.994
75332SOL    HW227894  13.377   1.052  11.105
75333SOL     OW27895  10.853   0.485   0.939
75333SOL    HW127896  10.908   0.563   0.935
75333SOL    HW227897  10.896   0.423   0.880
75334SOL     OW27898   0.498   2.310  10.662
75334SOL    HW127899   0.473   2.359  10.584
75334SOL    HW227900   0.583   2.272  10.640
75335SOL     OW27901   1.766  14.313   9.618
75335SOL    HW127902   1.675  14.301   9.593
75335SOL    HW227903   1.817  14.278   9.545
75336SOL     OW27904   5.760   3.245  13.779
75336SOL    HW127905   5.796   3.306  13.715
75336SOL    HW227906   5.831   3.183  13.795
75337SOL     OW27907   0.464   0.244   9.183
75337SOL    HW127908   0.531   0.181   9.155
75337SOL    HW227909   0.428   0.279   9.102
75338SOL     OW27910   1.105  10.493   1.047
75338SOL    HW127911   1.095  10.443   0.966
75338SOL    HW227912   1.198  10.483   1.069
75339SOL     OW27913   9.505   8.358   9.244
75339SOL    HW127914   9.441   8.313   9.299
75339SOL    HW227915   9.529   8.436   9.295
75340SOL     OW27916   5.563   4.482   9.435
75340SOL    HW127917   5.598   4.435   9.359
75340SOL    HW227918   5.473   4.503   9.410
75341SOL     OW27919  14.034   3.674   2.604
75341SOL    HW127920  13.947   3.637   2.615
75341SOL    HW227921  14.063   3.693   2.694
75342SOL     OW27922  12.441  11.970   8.139
75342SOL    HW127923  12.522  11.948   8.092
75342SOL    HW227924  12.371  11.948   8.077
75343SOL     OW27925   1.242   1.790   5.161
75343SOL    HW127926   1.248   1.786   5.256
75343SOL    HW227927   1.164   1.739   5.139
75344SOL     OW27928  12.387   0.869   8.788
75344SOL    HW127929  12.366   0.848   8.698
75344SOL    HW227930  12.398   0.965   8.788
75345SOL     OW27931   4.637   7.790   4.165
75345SOL    HW127932   4.626   7.878   4.128
75345SOL    HW227933   4.584   7.792   4.245
75346SOL     OW27934   6.028  13.446   3.369
75346SOL    HW127935   6.099  13.391   3.336
75346SOL    HW227936   5.948  13.399   3.347
75347SOL     OW27937  12.629  11.571   2.690
75347SOL    HW127938  12.645  11.605   2.778
75347SOL    HW227939  12.562  11.504   2.702
75348SOL     OW27940   5.348  13.732  11.658
75348SOL    HW127941   5.335  13.639  11.640
75348SOL    HW227942   5.405  13.733  11.735
75349SOL     OW27943   9.846   3.529  10.399
75349SOL    HW127944   9.818   3.577  10.477
75349SOL    HW227945   9.899   3.591  10.349
75350SOL     OW27946   3.687  11.711  11.067
75350SOL    HW127947   3.682  11.617  11.048
75350SOL    HW227948   3.613  11.728  11.125
75351SOL     OW27949   7.015   8.193   1.534
75351SOL    HW127950   7.046   8.176   1.623
75351SOL    HW227951   6.937   8.138   1.525
75352SOL     OW27952  12.870   8.548  10.014
75352SOL    HW127953  12.893   8.516  10.102
75352SOL    HW227954  12.790   8.599  10.027
75353SOL     OW27955   2.070   8.965  14.715
75353SOL    HW127956   2.117   8.997  14.638
75353SOL    HW227957   2.101   8.876  14.727
75354SOL     OW27958  12.230   7.167   0.931
75354SOL    HW127959  12.255   7.193   0.843
75354SOL    HW227960  12.308   7.127   0.968
75355SOL     OW27961   6.481  10.783  14.631
75355SOL    HW127962   6.413  10.834  14.676
75355SOL    HW227963   6.434  10.709  14.594
75356SOL     OW27964   6.205   8.330   0.862
75356SOL    HW127965   6.149   8.276   0.917
75356SOL    HW227966   6.235   8.400   0.920
75357SOL     OW27967  13.189  14.647   2.915
75357SOL    HW127968  13.200  14.742   2.925
75357SOL    HW227969  13.266  14.620   2.864
75358SOL     OW27970   7.547  10.400   0.792
75358SOL    HW127971   7.459  10.368   0.770
75358SOL    HW227972   7.594  10.322   0.821
75359SOL     OW27973   6.966   9.425   7.289
75359SOL    HW127974   6.984   9.373   7.211
75359SOL    HW227975   7.036   9.402   7.350
75360SOL     OW27976  10.111   6.405  10.214
75360SOL    HW127977  10.163   6.410  10.134
75360SOL    HW227978  10.076   6.316  10.214
75361SOL     OW27979   2.717  12.381   6.049
75361SOL    HW127980   2.711  12.475   6.031
75361SOL    HW227981   2.626  12.354   6.063
75362SOL     OW27982   9.468   9.129  12.847
75362SOL    HW127983   9.494   9.146  12.756
75362SOL    HW227984   9.432   9.040  12.845
75363SOL     OW27985   7.692   2.679  10.195
75363SOL    HW127986   7.678   2.593  10.156
75363SOL    HW227987   7.669   2.668  10.287
75364SOL     OW27988   7.057   7.053   2.570
75364SOL    HW127989   7.101   6.987   2.518
75364SOL    HW227990   7.086   7.137   2.533
75365SOL     OW27991   1.694   9.174   7.026
75365SOL    HW127992   1.729   9.246   7.078
75365SOL    HW227993   1.601   9.196   7.014
75366SOL     OW27994   1.060  14.310  11.103
75366SOL    HW127995   1.037  14.220  11.084
75366SOL    HW227996   1.050  14.318  11.198
75367SOL     OW27997   2.589  14.012   8.124
75367SOL    HW127998   2.644  14.062   8.184
75367SOL    HW227999   2.626  13.923   8.126
75368SOL     OW28000   3.185   9.654   4.512
75368SOL    HW128001   3.167   9.561   4.500
75368SOL    HW228002   3.101   9.697   4.499
75369SOL     OW28003  12.719   3.327   4.230
75369SOL    HW128004  12.626   3.316   4.209
75369SOL    HW228005  12.748   3.240   4.258
75370SOL     OW28006   3.633  10.140  13.599
75370SOL    HW128007   3.581  10.181  13.530
75370SOL    HW228008   3.581  10.065  13.627
75371SOL     OW28009   5.040   3.231   9.938
75371SOL    HW128010   4.954   3.215   9.899
75371SOL    HW228011   5.090   3.151   9.920
75372SOL     OW28012   0.235   3.769   9.970
75372SOL    HW128013   0.322   3.800   9.998
75372SOL    HW228014   0.232   3.789   9.876
75373SOL     OW28015   2.114   0.608   1.525
75373SOL    HW128016   2.090   0.572   1.610
75373SOL    HW228017   2.041   0.666   1.502
75374SOL     OW28018   6.926   9.860   5.574
75374SOL    HW128019   6.868   9.843   5.499
75374SOL    HW228020   6.873   9.839   5.650
75375SOL     OW28021  11.686  13.771  12.001
75375SOL    HW128022  11.610  13.739  11.952
75375SOL    HW228023  11.671  13.740  12.090
75376SOL     OW28024   3.067   4.520  12.125
75376SOL    HW128025   2.998   4.565  12.076
75376SOL    HW228026   3.135   4.501  12.059
75377SOL     OW28027   2.800  10.889   1.635
75377SOL    HW128028   2.719  10.849   1.603
75377SOL    HW228029   2.820  10.840   1.715
75378SOL     OW28030  13.727   3.395   1.026
75378SOL    HW128031  13.649   3.396   1.081
75378SOL    HW228032  13.767   3.481   1.040
75379SOL     OW28033   2.685   1.201   2.348
75379SOL    HW128034   2.772   1.164   2.368
75379SOL    HW228035   2.698   1.295   2.352
75380SOL     OW28036  14.650   4.248  12.767
75380SOL    HW128037  14.611   4.333  12.749
75380SOL    HW228038  14.649   4.241  12.863
75381SOL     OW28039   4.431  13.739   4.205
75381SOL    HW128040   4.412  13.816   4.259
75381SOL    HW228041   4.400  13.665   4.256
75382SOL     OW28042   4.565   9.937  13.077
75382SOL    HW128043   4.588   9.851  13.111
75382SOL    HW228044   4.490   9.922  13.021
75383SOL     OW28045   8.133  14.264  10.744
75383SOL    HW128046   8.198  14.194  10.735
75383SOL    HW228047   8.086  14.243  10.825
75384SOL     OW28048   4.084  12.838  10.018
75384SOL    HW128049   3.996  12.804  10.034
75384SOL    HW228050   4.139  12.794  10.083
75385SOL     OW28051   4.348  11.241  10.505
75385SOL    HW128052   4.332  11.147  10.514
75385SOL    HW228053   4.265  11.275  10.472
75386SOL     OW28054   0.522  14.447  14.083
75386SOL    HW128055   0.435  14.410  14.069
75386SOL    HW228056   0.548  14.479  13.996
75387SOL     OW28057   2.063  10.572  13.206
75387SOL    HW128058   2.080  10.481  13.183
75387SOL    HW228059   1.981  10.570  13.255
75388SOL     OW28060   9.572   4.448   0.437
75388SOL    HW128061   9.577   4.524   0.379
75388SOL    HW228062   9.500   4.396   0.400
75389SOL     OW28063  13.291   7.458  11.632
75389SOL    HW128064  13.311   7.542  11.674
75389SOL    HW228065  13.214   7.427  11.678
75390SOL     OW28066  13.405   6.528  14.396
75390SOL    HW128067  13.427   6.618  14.419
75390SOL    HW228068  13.461   6.507  14.321
75391SOL     OW28069   1.564   6.651   8.975
75391SOL    HW128070   1.533   6.629   9.063
75391SOL    HW228071   1.524   6.585   8.919
75392SOL     OW28072   7.765   5.441   0.710
75392SOL    HW128073   7.771   5.411   0.801
75392SOL    HW228074   7.743   5.362   0.660
75393SOL     OW28075   6.520   3.556   6.573
75393SOL    HW128076   6.530   3.461   6.574
75393SOL    HW228077   6.511   3.580   6.666
75394SOL     OW28078   0.723   7.050   0.952
75394SOL    HW128079   0.793   7.045   1.018
75394SOL    HW228080   0.766   7.082   0.873
75395SOL     OW28081   0.428  12.364   1.744
75395SOL    HW128082   0.426  12.285   1.799
75395SOL    HW228083   0.338  12.396   1.745
75396SOL     OW28084  11.767   5.080   2.289
75396SOL    HW128085  11.688   5.057   2.241
75396SOL    HW228086  11.738   5.091   2.380
75397SOL     OW28087   0.761  14.137   3.254
75397SOL    HW128088   0.743  14.094   3.170
75397SOL    HW228089   0.747  14.230   3.236
75398SOL     OW28090  11.777   4.846   6.435
75398SOL    HW128091  11.776   4.769   6.379
75398SOL    HW228092  11.726   4.911   6.388
75399SOL     OW28093   6.126   9.016  10.564
75399SOL    HW128094   6.145   9.085  10.627
75399SOL    HW228095   6.068   9.057  10.500
75400SOL     OW28096   1.911  13.433   2.863
75400SOL    HW128097   2.005  13.451   2.850
75400SOL    HW228098   1.867  13.504   2.816
75401SOL     OW28099   2.047   9.372   2.270
75401SOL    HW128100   2.012   9.328   2.347
75401SOL    HW228101   2.134   9.402   2.296
75402SOL     OW28102  10.867  14.021  14.720
75402SOL    HW128103  10.783  14.067  14.721
75402SOL    HW228104  10.853  13.949  14.659
75403SOL     OW28105   8.117   2.584   5.647
75403SOL    HW128106   8.068   2.666   5.637
75403SOL    HW228107   8.208   2.609   5.636
75404SOL     OW28108  13.899   6.647   3.785
75404SOL    HW128109  13.881   6.554   3.801
75404SOL    HW228110  13.924   6.682   3.871
75405SOL     OW28111   0.290  11.705   1.503
75405SOL    HW128112   0.335  11.677   1.583
75405SOL    HW228113   0.208  11.656   1.502
75406SOL     OW28114   9.069   6.509   8.755
75406SOL    HW128115   9.155   6.546   8.735
75406SOL    HW228116   9.083   6.414   8.757
75407SOL     OW28117  12.221  10.958   2.240
75407SOL    HW128118  12.291  10.946   2.305
75407SOL    HW228119  12.264  10.944   2.156
75408SOL     OW28120   8.885   8.234   5.464
75408SOL    HW128121   8.843   8.313   5.430
75408SOL    HW228122   8.977   8.258   5.473
75409SOL     OW28123  12.092   1.051  13.224
75409SOL    HW128124  12.148   1.128  13.236
75409SOL    HW228125  12.131   0.983  13.279
75410SOL     OW28126  13.288  11.400  11.460
75410SOL    HW128127  13.306  11.494  11.464
75410SOL    HW228128  13.295  11.379  11.367
75411SOL     OW28129   2.844  11.033  11.268
75411SOL    HW128130   2.880  11.121  11.280
75411SOL    HW228131   2.794  11.038  11.187
75412SOL     OW28132   3.894   3.837  13.048
75412SOL    HW128133   3.852   3.922  13.059
75412SOL    HW228134   3.840   3.792  12.984
75413SOL     OW28135  14.322  12.199  12.912
75413SOL    HW128136  14.387  12.155  12.967
75413SOL    HW228137  14.374  12.244  12.845
75414SOL     OW28138   7.618  13.126  10.941
75414SOL    HW128139   7.613  13.222  10.936
75414SOL    HW228140   7.566  13.103  11.019
75415SOL     OW28141   8.410   4.507   8.253
75415SOL    HW128142   8.501   4.521   8.228
75415SOL    HW228143   8.389   4.419   8.223
75416SOL     OW28144   2.098  14.060  10.044
75416SOL    HW128145   2.079  14.097  10.130
75416SOL    HW228146   2.180  14.101  10.018
75417SOL     OW28147   1.389  12.449   8.613
75417SOL    HW128148   1.445  12.435   8.689
75417SOL    HW228149   1.441  12.502   8.553
75418SOL     OW28150  14.009   0.977   3.826
75418SOL    HW128151  13.934   0.918   3.832
75418SOL    HW228152  13.975   1.054   3.780
75419SOL     OW28153   5.486   2.626   1.338
75419SOL    HW128154   5.553   2.649   1.273
75419SOL    HW228155   5.481   2.704   1.394
75420SOL     OW28156   1.982   8.137   0.682
75420SOL    HW128157   2.015   8.048   0.673
75420SOL    HW228158   1.918   8.132   0.753
75421SOL     OW28159  11.457  13.616   3.416
75421SOL    HW128160  11.498  13.556   3.479
75421SOL    HW228161  11.374  13.573   3.394
75422SOL     OW28162   2.226  14.606   9.689
75422SOL    HW128163   2.145  14.636   9.648
75422SOL    HW228164   2.206  14.603   9.783
75423SOL     OW28165   5.510   2.729   0.172
75423SOL    HW128166   5.465   2.805   0.136
75423SOL    HW228167   5.592   2.724   0.123
75424SOL     OW28168   6.041  12.910  13.183
75424SOL    HW128169   6.060  12.992  13.138
75424SOL    HW228170   5.979  12.933  13.252
75425SOL     OW28171  12.866   3.492  14.637
75425SOL    HW128172  12.948   3.481  14.685
75425SOL    HW228173  12.797   3.474  14.701
75426SOL     OW28174   5.830   6.242  11.518
75426SOL    HW128175   5.823   6.337  11.503
75426SOL    HW228176   5.894   6.234  11.589
75427SOL     OW28177   9.157   8.337   2.907
75427SOL    HW128178   9.232   8.392   2.927
75427SOL    HW228179   9.179   8.295   2.823
75428SOL     OW28180   0.370   2.100  11.495
75428SOL    HW128181   0.401   2.101  11.586
75428SOL    HW228182   0.429   2.039  11.451
75429SOL     OW28183   9.840   2.866   9.686
75429SOL    HW128184   9.746   2.875   9.667
75429SOL    HW228185   9.874   2.814   9.613
75430SOL     OW28186   9.348  10.707  13.506
75430SOL    HW128187   9.322  10.690  13.597
75430SOL    HW228188   9.421  10.769  13.513
75431SOL     OW28189   9.770   0.832   0.106
75431SOL    HW128190   9.683   0.847   0.070
75431SOL    HW228191   9.830   0.864   0.038
75432SOL     OW28192   7.683  14.138   7.938
75432SOL    HW128193   7.623  14.122   8.011
75432SOL    HW228194   7.768  14.108   7.971
75433SOL     OW28195   9.092  13.730  13.160
75433SOL    HW128196   9.028  13.663  13.134
75433SOL    HW228197   9.176  13.684  13.161
75434SOL     OW28198  11.149   3.150  11.831
75434SOL    HW128199  11.077   3.120  11.775
75434SOL    HW228200  11.106   3.183  11.910
75435SOL     OW28201   4.353  14.550  10.617
75435SOL    HW128202   4.270  14.595  10.631
75435SOL    HW228203   4.344  14.467  10.665
75436SOL     OW28204  10.097   2.061  12.415
75436SOL    HW128205  10.173   2.118  12.402
75436SOL    HW228206  10.025   2.106  12.370
75437SOL     OW28207  11.384   8.480   1.009
75437SOL    HW128208  11.372   8.390   1.037
75437SOL    HW228209  11.459   8.476   0.948
75438SOL     OW28210   6.627   9.251   3.430
75438SOL    HW128211   6.574   9.174   3.448
75438SOL    HW228212   6.671   9.270   3.513
75439SOL     OW28213   8.637  14.033  10.440
75439SOL    HW128214   8.660  13.974  10.513
75439SOL    HW228215   8.638  14.120  10.479
75440SOL     OW28216  12.846   2.590   5.443
75440SOL    HW128217  12.817   2.626   5.526
75440SOL    HW228218  12.871   2.666   5.390
75441SOL     OW28219  12.623   1.316   3.156
75441SOL    HW128220  12.658   1.403   3.134
75441SOL    HW228221  12.571   1.331   3.235
75442SOL     OW28222   8.951   4.824  13.890
75442SOL    HW128223   8.953   4.813  13.985
75442SOL    HW228224   9.033   4.785  13.859
75443SOL     OW28225   9.885  10.017  13.738
75443SOL    HW128226   9.793  10.010  13.711
75443SOL    HW228227   9.898   9.944  13.798
75444SOL     OW28228   7.530   2.582   2.864
75444SOL    HW128229   7.572   2.668   2.867
75444SOL    HW228230   7.542   2.546   2.952
75445SOL     OW28231  13.899  12.799   7.950
75445SOL    HW128232  13.940  12.885   7.941
75445SOL    HW228233  13.927  12.767   8.035
75446SOL     OW28234   9.762  10.967   0.475
75446SOL    HW128235   9.773  11.016   0.557
75446SOL    HW228236   9.686  10.911   0.491
75447SOL     OW28237  13.496   9.299   5.156
75447SOL    HW128238  13.585   9.307   5.121
75447SOL    HW228239  13.456   9.385   5.139
75448SOL     OW28240  14.032   6.003   9.092
75448SOL    HW128241  14.022   6.064   9.165
75448SOL    HW228242  13.948   5.958   9.086
75449SOL     OW28243  13.600  11.517   4.540
75449SOL    HW128244  13.662  11.482   4.475
75449SOL    HW228245  13.647  11.512   4.623
75450SOL     OW28246  14.399  14.583  10.414
75450SOL    HW128247  14.354  14.501  10.436
75450SOL    HW228248  14.336  14.651  10.438
75451SOL     OW28249   1.217  10.767  10.790
75451SOL    HW128250   1.187  10.686  10.831
75451SOL    HW228251   1.206  10.752  10.696
75452SOL     OW28252   2.317   0.316   8.882
75452SOL    HW128253   2.307   0.408   8.905
75452SOL    HW228254   2.412   0.303   8.879
75453SOL     OW28255   7.027  12.238   2.902
75453SOL    HW128256   7.103  12.277   2.945
75453SOL    HW228257   7.044  12.144   2.904
75454SOL     OW28258   9.435  13.520   4.074
75454SOL    HW128259   9.529  13.521   4.055
75454SOL    HW228260   9.396  13.578   4.008
75455SOL     OW28261   9.242   8.166  10.914
75455SOL    HW128262   9.262   8.107  10.987
75455SOL    HW228263   9.218   8.248  10.956
75456SOL     OW28264   1.371  13.231   6.005
75456SOL    HW128265   1.438  13.168   6.035
75456SOL    HW228266   1.351  13.282   6.083
75457SOL     OW28267   2.157   8.686  12.208
75457SOL    HW128268   2.208   8.760  12.173
75457SOL    HW228269   2.114   8.649  12.131
75458SOL     OW28270  10.008   2.193   5.950
75458SOL    HW128271   9.950   2.211   5.875
75458SOL    HW228272   9.971   2.245   6.021
75459SOL     OW28273   1.261  13.054   5.449
75459SOL    HW128274   1.335  13.114   5.440
75459SOL    HW228275   1.268  13.021   5.539
75460SOL     OW28276   6.049   3.204  10.157
75460SOL    HW128277   6.061   3.238  10.246
75460SOL    HW228278   6.136   3.174  10.131
75461SOL     OW28279   8.129  14.450  14.779
75461SOL    HW128280   8.097  14.450  14.869
75461SOL    HW228281   8.161  14.538  14.764
75462SOL     OW28282  14.851   2.352  11.520
75462SOL    HW128283  14.763   2.387  11.532
75462SOL    HW228284  14.859   2.340  11.425
75463SOL     OW28285   7.058  11.922   1.345
75463SOL    HW128286   7.093  12.010   1.336
75463SOL    HW228287   7.135  11.865   1.346
75464SOL     OW28288   6.902  12.414   6.125
75464SOL    HW128289   6.848  12.477   6.171
75464SOL    HW228290   6.954  12.372   6.193
75465SOL     OW28291   7.006  11.765   6.982
75465SOL    HW128292   6.999  11.822   6.905
75465SOL    HW228293   6.923  11.717   6.983
75466SOL     OW28294   1.077   5.335  12.440
75466SOL    HW128295   1.005   5.278  12.465
75466SOL    HW228296   1.092   5.314  12.347
75467SOL     OW28297   2.086   9.450   4.156
75467SOL    HW128298   2.004   9.463   4.109
75467SOL    HW228299   2.071   9.373   4.210
75468SOL     OW28300  13.185   8.297   2.120
75468SOL    HW128301  13.256   8.359   2.136
75468SOL    HW228302  13.141   8.331   2.042
75469SOL     OW28303   5.251   6.522   8.230
75469SOL    HW128304   5.321   6.487   8.286
75469SOL    HW228305   5.286   6.606   8.199
75470SOL     OW28306  13.284   4.879   7.875
75470SOL    HW128307  13.370   4.858   7.839
75470SOL    HW228308  13.231   4.801   7.859
75471SOL     OW28309  11.926   2.065   2.240
75471SOL    HW128310  11.843   2.100   2.272
75471SOL    HW228311  11.969   2.141   2.200
75472SOL     OW28312  13.183   7.556   1.693
75472SOL    HW128313  13.253   7.622   1.695
75472SOL    HW228314  13.121   7.586   1.759
75473SOL     OW28315   6.011   6.588  12.643
75473SOL    HW128316   6.063   6.518  12.604
75473SOL    HW228317   6.074   6.657  12.662
75474SOL     OW28318   1.869   3.028   9.461
75474SOL    HW128319   1.847   2.985   9.544
75474SOL    HW228320   1.879   2.955   9.399
75475SOL     OW28321   6.405   4.870  14.005
75475SOL    HW128322   6.421   4.930  13.933
75475SOL    HW228323   6.311   4.874  14.021
75476SOL     OW28324   8.538  10.216   1.618
75476SOL    HW128325   8.575  10.282   1.559
75476SOL    HW228326   8.608  10.151   1.629
75477SOL     OW28327   1.653  12.812   0.568
75477SOL    HW128328   1.600  12.892   0.558
75477SOL    HW228329   1.740  12.837   0.536
75478SOL     OW28330   7.704   6.989   7.595
75478SOL    HW128331   7.720   7.013   7.504
75478SOL    HW228332   7.686   7.072   7.639
75479SOL     OW28333   6.378   7.143   8.145
75479SOL    HW128334   6.320   7.078   8.185
75479SOL    HW228335   6.460   7.096   8.130
75480SOL     OW28336  11.304  11.084   2.619
75480SOL    HW128337  11.250  11.010   2.589
75480SOL    HW228338  11.361  11.103   2.545
75481SOL     OW28339  10.203  10.431   2.311
75481SOL    HW128340  10.131  10.492   2.298
75481SOL    HW228341  10.203  10.415   2.406
75482SOL     OW28342   0.126   5.226  10.779
75482SOL    HW128343   0.156   5.261  10.864
75482SOL    HW228344   0.055   5.284  10.753
75483SOL     OW28345   7.788  13.331   0.534
75483SOL    HW128346   7.848  13.322   0.608
75483SOL    HW228347   7.739  13.411   0.552
75484SOL     OW28348  12.835  12.156  10.113
75484SOL    HW128349  12.798  12.076  10.076
75484SOL    HW228350  12.758  12.207  10.140
75485SOL     OW28351  13.510   6.525   1.028
75485SOL    HW128352  13.526   6.476   1.109
75485SOL    HW228353  13.448   6.594   1.055
75486SOL     OW28354   4.899  12.893  14.361
75486SOL    HW128355   4.880  12.928  14.448
75486SOL    HW228356   4.989  12.921  14.343
75487SOL     OW28357   6.351   5.457  10.983
75487SOL    HW128358   6.428   5.500  10.945
75487SOL    HW228359   6.381   5.424  11.067
75488SOL     OW28360  10.550  10.352   7.722
75488SOL    HW128361  10.541  10.266   7.681
75488SOL    HW228362  10.644  10.368   7.724
75489SOL     OW28363  13.122  14.751  14.459
75489SOL    HW128364  13.080  14.670  14.431
75489SOL    HW228365  13.194  14.723  14.515
75490SOL     OW28366   2.493  10.716   0.150
75490SOL    HW128367   2.499  10.809   0.127
75490SOL    HW228368   2.466  10.716   0.242
75491SOL     OW28369   2.106  12.626   3.214
75491SOL    HW128370   2.146  12.713   3.218
75491SOL    HW228371   2.060  12.625   3.130
75492SOL     OW28372   8.712  14.340   1.570
75492SOL    HW128373   8.780  14.390   1.527
75492SOL    HW228374   8.759  14.274   1.621
75493SOL     OW28375   6.162  11.851  13.614
75493SOL    HW128376   6.217  11.889  13.683
75493SOL    HW228377   6.223  11.800  13.560
75494SOL     OW28378  14.591  14.083   8.522
75494SOL    HW128379  14.545  14.166   8.506
75494SOL    HW228380  14.679  14.109   8.546
75495SOL     OW28381   6.322  11.981   6.716
75495SOL    HW128382   6.331  12.034   6.637
75495SOL    HW228383   6.372  11.902   6.698
75496SOL     OW28384   3.739  14.694  10.083
75496SOL    HW128385   3.737  14.775  10.031
75496SOL    HW228386   3.830  14.684  10.109
75497SOL     OW28387   5.060   5.435   2.066
75497SOL    HW128388   5.050   5.393   1.980
75497SOL    HW228389   5.150   5.468   2.065
75498SOL     OW28390  12.462   7.435   2.485
75498SOL    HW128391  12.404   7.389   2.425
75498SOL    HW228392  12.409   7.506   2.520
75499SOL     OW28393   7.048   8.885   9.926
75499SOL    HW128394   7.097   8.852   9.851
75499SOL    HW228395   7.075   8.829   9.999
75500SOL     OW28396   4.209  14.138   7.341
75500SOL    HW128397   4.267  14.203   7.303
75500SOL    HW228398   4.135  14.188   7.376
75501SOL     OW28399   6.625  12.281  11.630
75501SOL    HW128400   6.665  12.216  11.572
75501SOL    HW228401   6.561  12.230  11.681
75502SOL     OW28402   2.917  13.013   3.164
75502SOL    HW128403   2.972  12.964   3.104
75502SOL    HW228404   2.844  12.954   3.183
75503SOL     OW28405   3.741   1.964   3.179
75503SOL    HW128406   3.654   1.999   3.159
75503SOL    HW228407   3.744   1.961   3.275
75504SOL     OW28408   3.664   3.605  12.652
75504SOL    HW128409   3.720   3.619  12.729
75504SOL    HW228410   3.638   3.513  12.659
75505SOL     OW28411  12.668   0.434   9.560
75505SOL    HW128412  12.601   0.500   9.542
75505SOL    HW228413  12.660   0.371   9.489
75506SOL     OW28414   6.479   2.871   4.002
75506SOL    HW128415   6.451   2.872   4.094
75506SOL    HW228416   6.461   2.960   3.971
75507SOL     OW28417  10.877   1.230   0.825
75507SOL    HW128418  10.809   1.171   0.858
75507SOL    HW228419  10.845   1.318   0.844
75508SOL     OW28420  12.226   6.881   6.717
75508SOL    HW128421  12.250   6.974   6.715
75508SOL    HW228422  12.148   6.875   6.663
75509SOL     OW28423  10.461   3.414   3.946
75509SOL    HW128424  10.543   3.413   3.897
75509SOL    HW228425  10.393   3.418   3.878
75510SOL     OW28426   2.006   7.866   5.826
75510SOL    HW128427   2.029   7.877   5.733
75510SOL    HW228428   1.960   7.947   5.849
75511SOL     OW28429   0.921  10.874   4.057
75511SOL    HW128430   0.888  10.784   4.068
75511SOL    HW228431   1.003  10.875   4.105
75512SOL     OW28432   9.953   1.800  12.512
75512SOL    HW128433  10.038   1.759  12.526
75512SOL    HW228434   9.971   1.894  12.508
75513SOL     OW28435  11.761   9.484  14.597
75513SOL    HW128436  11.681   9.497  14.648
75513SOL    HW228437  11.809   9.416  14.644
75514SOL     OW28438  14.479  10.378   4.459
75514SOL    HW128439  14.556  10.360   4.514
75514SOL    HW228440  14.516  10.393   4.372
75515SOL     OW28441   2.030  10.577  14.701
75515SOL    HW128442   2.055  10.486  14.715
75515SOL    HW228443   2.011  10.610  14.789
75516SOL     OW28444   7.887   1.669  12.891
75516SOL    HW128445   7.857   1.754  12.922
75516SOL    HW228446   7.891   1.614  12.969
75517SOL     OW28447   5.117   0.697   6.648
75517SOL    HW128448   5.129   0.780   6.694
75517SOL    HW228449   5.197   0.647   6.665
75518SOL     OW28450  12.023   2.260   9.502
75518SOL    HW128451  12.115   2.276   9.482
75518SOL    HW228452  12.008   2.302   9.586
75519SOL     OW28453   2.252  11.412   9.006
75519SOL    HW128454   2.234  11.453   8.921
75519SOL    HW228455   2.167  11.403   9.047
75520SOL     OW28456   7.567  11.743   0.799
75520SOL    HW128457   7.530  11.829   0.820
75520SOL    HW228458   7.661  11.752   0.816
75521SOL     OW28459   9.749   6.780   4.651
75521SOL    HW128460   9.784   6.823   4.573
75521SOL    HW228461   9.824   6.771   4.710
75522SOL     OW28462  12.343  12.935  13.992
75522SOL    HW128463  12.354  12.997  13.920
75522SOL    HW228464  12.249  12.930  14.005
75523SOL     OW28465   7.512   9.771   0.560
75523SOL    HW128466   7.446   9.791   0.627
75523SOL    HW228467   7.484   9.821   0.484
75524SOL     OW28468   9.495   9.537   5.810
75524SOL    HW128469   9.534   9.620   5.837
75524SOL    HW228470   9.427   9.562   5.747
75525SOL     OW28471   8.089  13.989  14.823
75525SOL    HW128472   8.058  14.045   0.025
75525SOL    HW228473   8.033  13.912  14.827
75526SOL     OW28474  13.036   8.947   6.851
75526SOL    HW128475  13.103   9.013   6.871
75526SOL    HW228476  12.953   8.994   6.858
75527SOL     OW28477   0.313  13.733   2.304
75527SOL    HW128478   0.279  13.677   2.234
75527SOL    HW228479   0.408  13.719   2.302
75528SOL     OW28480  12.074   2.972  12.568
75528SOL    HW128481  12.087   2.908  12.637
75528SOL    HW228482  12.034   2.923  12.496
75529SOL     OW28483   9.447  13.712   6.726
75529SOL    HW128484   9.402  13.634   6.693
75529SOL    HW228485   9.533  13.680   6.752
75530SOL     OW28486  14.242   9.086   0.421
75530SOL    HW128487  14.319   9.030   0.412
75530SOL    HW228488  14.177   9.047   0.362
75531SOL     OW28489  11.491  14.824   8.136
75531SOL    HW128490  11.439  14.746   8.158
75531SOL    HW228491  11.429   0.027   8.143
75532SOL     OW28492   5.773  13.291   8.523
75532SOL    HW128493   5.732  13.369   8.485
75532SOL    HW228494   5.867  13.307   8.515
75533SOL     OW28495   4.145  10.963   7.478
75533SOL    HW128496   4.189  11.024   7.419
75533SOL    HW228497   4.067  11.010   7.507
75534SOL     OW28498   9.091  14.577  14.669
75534SOL    HW128499   9.183  14.581  14.692
75534SOL    HW228500   9.049  14.642  14.725
75535SOL     OW28501  11.060   4.397  12.810
75535SOL    HW128502  11.113   4.477  12.805
75535SOL    HW228503  11.017   4.402  12.895
75536SOL     OW28504   9.878  14.255  12.998
75536SOL    HW128505   9.937  14.322  12.964
75536SOL    HW228506   9.935  14.179  13.013
75537SOL     OW28507   9.115   1.464   6.775
75537SOL    HW128508   9.083   1.445   6.863
75537SOL    HW228509   9.196   1.412   6.767
75538SOL     OW28510  12.986   8.279   5.580
75538SOL    HW128511  13.020   8.235   5.658
75538SOL    HW228512  13.058   8.276   5.517
75539SOL     OW28513   4.160  13.148   2.048
75539SOL    HW128514   4.165  13.053   2.060
75539SOL    HW228515   4.081  13.161   1.996
75540SOL     OW28516   5.754   9.254  12.483
75540SOL    HW128517   5.778   9.339  12.446
75540SOL    HW228518   5.762   9.265  12.577
75541SOL     OW28519   3.732   5.285   9.851
75541SOL    HW128520   3.804   5.222   9.855
75541SOL    HW228521   3.759   5.356   9.910
75542SOL     OW28522   6.836   1.573   7.304
75542SOL    HW128523   6.892   1.605   7.233
75542SOL    HW228524   6.894   1.517   7.356
75543SOL     OW28525  11.437   4.082  11.550
75543SOL    HW128526  11.370   4.092  11.617
75543SOL    HW228527  11.518   4.112  11.593
75544SOL     OW28528   4.945   5.026  13.387
75544SOL    HW128529   5.031   4.984  13.380
75544SOL    HW228530   4.958   5.114  13.353
75545SOL     OW28531   3.960  11.613   1.323
75545SOL    HW128532   4.039  11.596   1.273
75545SOL    HW228533   3.939  11.530   1.365
75546SOL     OW28534   7.708   7.193  13.752
75546SOL    HW128535   7.637   7.222  13.694
75546SOL    HW228536   7.740   7.272  13.794
75547SOL     OW28537   7.377   2.315  14.012
75547SOL    HW128538   7.444   2.267  14.060
75547SOL    HW228539   7.336   2.249  13.956
75548SOL     OW28540   2.477   0.455   5.666
75548SOL    HW128541   2.557   0.417   5.703
75548SOL    HW228542   2.447   0.517   5.732
75549SOL     OW28543   1.758   8.498  13.658
75549SOL    HW128544   1.667   8.493  13.631
75549SOL    HW228545   1.807   8.508  13.576
75550SOL     OW28546  10.895   8.249   0.826
75550SOL    HW128547  10.931   8.330   0.789
75550SOL    HW228548  10.816   8.232   0.775
75551SOL     OW28549   8.628   0.896   7.810
75551SOL    HW128550   8.598   0.986   7.798
75551SOL    HW228551   8.711   0.904   7.856
75552SOL     OW28552   3.086   9.693   1.299
75552SOL    HW128553   3.117   9.768   1.247
75552SOL    HW228554   2.994   9.684   1.276
75553SOL     OW28555  11.882   1.023  12.768
75553SOL    HW128556  11.815   0.966  12.807
75553SOL    HW228557  11.909   1.080  12.840
75554SOL     OW28558   5.968   2.938   5.248
75554SOL    HW128559   6.012   2.951   5.163
75554SOL    HW228560   6.040   2.928   5.310
75555SOL     OW28561  10.786  13.408   6.196
75555SOL    HW128562  10.812  13.456   6.275
75555SOL    HW228563  10.854  13.342   6.185
75556SOL     OW28564  13.916   0.918   5.568
75556SOL    HW128565  13.865   0.900   5.489
75556SOL    HW228566  13.861   0.977   5.619
75557SOL     OW28567   2.041   9.979  11.434
75557SOL    HW128568   2.127  10.019  11.421
75557SOL    HW228569   1.986  10.051  11.465
75558SOL     OW28570   7.983   2.584  12.445
75558SOL    HW128571   7.981   2.501  12.397
75558SOL    HW228572   7.965   2.651  12.379
75559SOL     OW28573   1.352   5.361  14.420
75559SOL    HW128574   1.406   5.393  14.492
75559SOL    HW228575   1.390   5.402  14.342
75560SOL     OW28576   2.418  10.758  11.084
75560SOL    HW128577   2.475  10.768  11.161
75560SOL    HW228578   2.457  10.685  11.035
75561SOL     OW28579  10.192  13.863  11.860
75561SOL    HW128580  10.180  13.817  11.777
75561SOL    HW228581  10.119  13.925  11.864
75562SOL     OW28582   7.252  14.651   3.546
75562SOL    HW128583   7.208  14.609   3.619
75562SOL    HW228584   7.182  14.677   3.487
75563SOL     OW28585   0.084   0.763   0.149
75563SOL    HW128586   0.008   0.721   0.189
75563SOL    HW228587   0.048   0.817   0.079
75564SOL     OW28588   8.598   4.565   0.304
75564SOL    HW128589   8.560   4.653   0.304
75564SOL    HW228590   8.559   4.522   0.380
75565SOL     OW28591   7.994   5.806   1.109
75565SOL    HW128592   7.942   5.869   1.159
75565SOL    HW228593   7.936   5.732   1.095
75566SOL     OW28594   7.731   5.666   4.806
75566SOL    HW128595   7.732   5.722   4.884
75566SOL    HW228596   7.661   5.703   4.752
75567SOL     OW28597   9.631  13.708   8.041
75567SOL    HW128598   9.710  13.757   8.020
75567SOL    HW228599   9.662  13.622   8.068
75568SOL     OW28600   5.436  12.600   0.960
75568SOL    HW128601   5.480  12.578   1.042
75568SOL    HW228602   5.342  12.593   0.980
75569SOL     OW28603  12.596   1.603   9.564
75569SOL    HW128604  12.547   1.674   9.604
75569SOL    HW228605  12.684   1.609   9.602
75570SOL     OW28606   9.237   1.451   5.035
75570SOL    HW128607   9.251   1.544   5.018
75570SOL    HW228608   9.289   1.433   5.114
75571SOL     OW28609   9.528  13.466   9.410
75571SOL    HW128610   9.529  13.394   9.347
75571SOL    HW228611   9.463  13.527   9.376
75572SOL     OW28612   5.185   6.749   7.918
75572SOL    HW128613   5.210   6.815   7.854
75572SOL    HW228614   5.092   6.766   7.935
75573SOL     OW28615  14.194   7.935   8.757
75573SOL    HW128616  14.153   7.999   8.816
75573SOL    HW228617  14.273   7.979   8.726
75574SOL     OW28618  10.592   3.613   9.351
75574SOL    HW128619  10.655   3.672   9.391
75574SOL    HW228620  10.638   3.576   9.276
75575SOL     OW28621  11.373   9.557  10.123
75575SOL    HW128622  11.362   9.466  10.094
75575SOL    HW228623  11.285   9.594  10.119
75576SOL     OW28624   8.023  12.847   4.870
75576SOL    HW128625   7.963  12.904   4.822
75576SOL    HW228626   7.998  12.857   4.962
75577SOL     OW28627   5.299  12.858   2.084
75577SOL    HW128628   5.391  12.873   2.064
75577SOL    HW228629   5.253  12.888   2.005
75578SOL     OW28630   1.460   4.210   8.615
75578SOL    HW128631   1.377   4.184   8.655
75578SOL    HW228632   1.438   4.231   8.524
75579SOL     OW28633  12.794  13.253  13.323
75579SOL    HW128634  12.887  13.232  13.309
75579SOL    HW228635  12.755  13.246  13.236
75580SOL     OW28636   2.848  12.232   6.245
75580SOL    HW128637   2.756  12.215   6.226
75580SOL    HW228638   2.874  12.161   6.304
75581SOL     OW28639   6.953   2.326  14.308
75581SOL    HW128640   7.040   2.294  14.285
75581SOL    HW228641   6.916   2.357  14.226
75582SOL     OW28642  10.732   5.702  13.504
75582SOL    HW128643  10.777   5.710  13.420
75582SOL    HW228644  10.795   5.657  13.560
75583SOL     OW28645   7.311   5.142   3.674
75583SOL    HW128646   7.349   5.136   3.586
75583SOL    HW228647   7.238   5.203   3.664
75584SOL     OW28648   0.994   3.480   0.434
75584SOL    HW128649   0.959   3.521   0.514
75584SOL    HW228650   0.929   3.499   0.367
75585SOL     OW28651   9.535  10.554   9.620
75585SOL    HW128652   9.552  10.648   9.625
75585SOL    HW228653   9.595  10.516   9.684
75586SOL     OW28654  11.013  12.093   6.878
75586SOL    HW128655  11.051  12.100   6.966
75586SOL    HW228656  11.050  12.012   6.842
75587SOL     OW28657   1.571   7.343  13.910
75587SOL    HW128658   1.498   7.286  13.885
75587SOL    HW228659   1.574   7.410  13.842
75588SOL     OW28660   6.545  12.660   9.047
75588SOL    HW128661   6.591  12.594   8.995
75588SOL    HW228662   6.576  12.646   9.136
75589SOL     OW28663  12.393  12.808   5.893
75589SOL    HW128664  12.370  12.836   5.981
75589SOL    HW228665  12.337  12.732   5.877
75590SOL     OW28666   1.678  12.101   9.249
75590SOL    HW128667   1.747  12.167   9.254
75590SOL    HW228668   1.604  12.139   9.296
75591SOL     OW28669   3.049   0.598  12.399
75591SOL    HW128670   3.036   0.513  12.356
75591SOL    HW228671   3.142   0.617  12.387
75592SOL     OW28672   8.702   1.390   2.076
75592SOL    HW128673   8.738   1.477   2.093
75592SOL    HW228674   8.731   1.337   2.150
75593SOL     OW28675   3.027   4.703   8.171
75593SOL    HW128676   2.983   4.787   8.162
75593SOL    HW228677   3.120   4.723   8.161
75594SOL     OW28678   1.031   5.835   3.088
75594SOL    HW128679   1.042   5.851   3.181
75594SOL    HW228680   0.982   5.912   3.056
75595SOL     OW28681  12.249   1.146   3.376
75595SOL    HW128682  12.154   1.134   3.369
75595SOL    HW228683  12.263   1.172   3.467
75596SOL     OW28684  10.623   8.063  12.858
75596SOL    HW128685  10.580   8.073  12.943
75596SOL    HW228686  10.552   8.076  12.794
75597SOL     OW28687  12.753  11.848   2.897
75597SOL    HW128688  12.797  11.836   2.812
75597SOL    HW228689  12.697  11.925   2.884
75598SOL     OW28690  14.805   4.547   5.773
75598SOL    HW128691  14.735   4.577   5.830
75598SOL    HW228692  14.791   4.594   5.691
75599SOL     OW28693   9.131  11.032   7.160
75599SOL    HW128694   9.164  11.040   7.249
75599SOL    HW228695   9.052  11.086   7.159
75600SOL     OW28696  11.639   0.130  12.216
75600SOL    HW128697  11.558   0.108  12.261
75600SOL    HW228698  11.641   0.225  12.214
75601SOL     OW28699  10.974   9.815   0.863
75601SOL    HW128700  10.898   9.767   0.896
75601SOL    HW228701  10.994   9.773   0.779
75602SOL     OW28702   8.598   9.390  12.679
75602SOL    HW128703   8.574   9.326  12.613
75602SOL    HW228704   8.568   9.474  12.643
75603SOL     OW28705  11.568   9.982   8.585
75603SOL    HW128706  11.639  10.037   8.619
75603SOL    HW228707  11.507   9.974   8.658
75604SOL     OW28708  10.129  10.456   5.504
75604SOL    HW128709  10.064  10.391   5.532
75604SOL    HW228710  10.176  10.413   5.432
75605SOL     OW28711   1.063   3.231   2.725
75605SOL    HW128712   1.105   3.165   2.670
75605SOL    HW228713   1.113   3.230   2.806
75606SOL     OW28714   5.684   7.885   1.480
75606SOL    HW128715   5.733   7.848   1.406
75606SOL    HW228716   5.621   7.817   1.503
75607SOL     OW28717   3.558   2.546   6.142
75607SOL    HW128718   3.528   2.464   6.180
75607SOL    HW228719   3.579   2.602   6.217
75608SOL     OW28720  12.928  12.834  13.007
75608SOL    HW128721  12.972  12.902  13.058
75608SOL    HW228722  12.984  12.757  13.017
75609SOL     OW28723  14.536   7.729   9.391
75609SOL    HW128724  14.620   7.775   9.404
75609SOL    HW228725  14.561   7.645   9.354
75610SOL     OW28726  14.842  14.286  12.870
75610SOL    HW128727   0.007  14.348  12.935
75610SOL    HW228728  14.794  14.221  12.921
75611SOL     OW28729   1.082  10.898   4.973
75611SOL    HW128730   1.038  10.895   4.888
75611SOL    HW228731   1.148  10.829   4.968
75612SOL     OW28732  11.372  12.801   5.104
75612SOL    HW128733  11.391  12.846   5.022
75612SOL    HW228734  11.384  12.708   5.085
75613SOL     OW28735   2.539   7.116  12.957
75613SOL    HW128736   2.514   7.080  13.042
75613SOL    HW228737   2.634   7.128  12.963
75614SOL     OW28738   1.947   8.067  13.751
75614SOL    HW128739   1.968   7.974  13.742
75614SOL    HW228740   2.019   8.112  13.707
75615SOL     OW28741   6.128   3.855   6.463
75615SOL    HW128742   6.092   3.825   6.546
75615SOL    HW228743   6.182   3.783   6.432
75616SOL     OW28744   1.280   0.577   5.079
75616SOL    HW128745   1.364   0.587   5.036
75616SOL    HW228746   1.216   0.576   5.008
75617SOL     OW28747   1.814  13.965   6.653
75617SOL    HW128748   1.905  13.945   6.674
75617SOL    HW228749   1.767  13.884   6.674
75618SOL     OW28750   2.047   4.094  13.306
75618SOL    HW128751   2.112   4.063  13.243
75618SOL    HW228752   2.053   4.032  13.379
75619SOL     OW28753   7.127   4.447   1.215
75619SOL    HW128754   7.106   4.498   1.137
75619SOL    HW228755   7.105   4.357   1.192
75620SOL     OW28756   4.752  10.056   8.033
75620SOL    HW128757   4.685  10.039   7.967
75620SOL    HW228758   4.761   9.973   8.080
75621SOL     OW28759  13.861   5.766   1.722
75621SOL    HW128760  13.948   5.790   1.690
75621SOL    HW228761  13.873   5.683   1.767
75622SOL     OW28762  14.442   6.846   3.919
75622SOL    HW128763  14.355   6.807   3.926
75622SOL    HW228764  14.425   6.938   3.896
75623SOL     OW28765   9.820   8.021  13.672
75623SOL    HW128766   9.728   8.004  13.654
75623SOL    HW228767   9.831   8.115  13.659
75624SOL     OW28768   1.860   4.688   7.240
75624SOL    HW128769   1.772   4.701   7.204
75624SOL    HW228770   1.852   4.610   7.295
75625SOL     OW28771  13.621   3.226  13.141
75625SOL    HW128772  13.716   3.219  13.138
75625SOL    HW228773  13.601   3.251  13.231
75626SOL     OW28774   8.121  11.878  12.516
75626SOL    HW128775   8.061  11.856  12.445
75626SOL    HW228776   8.110  11.807  12.579
75627SOL     OW28777   4.844   2.259  13.815
75627SOL    HW128778   4.924   2.286  13.770
75627SOL    HW228779   4.851   2.164  13.823
75628SOL     OW28780   5.866   3.047   5.670
75628SOL    HW128781   5.832   3.078   5.753
75628SOL    HW228782   5.954   3.084   5.664
75629SOL     OW28783  11.730   3.903   9.918
75629SOL    HW128784  11.742   3.819   9.962
75629SOL    HW228785  11.818   3.930   9.892
75630SOL     OW28786  13.377   3.921  10.825
75630SOL    HW128787  13.294   3.909  10.779
75630SOL    HW228788  13.382   3.847  10.885
75631SOL     OW28789   1.760   7.932   7.078
75631SOL    HW128790   1.779   7.921   7.171
75631SOL    HW228791   1.665   7.941   7.075
75632SOL     OW28792   7.184   3.516  11.890
75632SOL    HW128793   7.212   3.527  11.800
75632SOL    HW228794   7.187   3.605  11.927
75633SOL     OW28795   1.968  10.045   3.967
75633SOL    HW128796   1.913  10.108   3.920
75633SOL    HW228797   1.916   9.965   3.970
75634SOL     OW28798   9.812   4.552   4.376
75634SOL    HW128799   9.717   4.556   4.371
75634SOL    HW228800   9.835   4.612   4.448
75635SOL     OW28801   9.714  11.148  13.150
75635SOL    HW128802   9.804  11.128  13.124
75635SOL    HW228803   9.716  11.239  13.179
75636SOL     OW28804   9.312   8.136  13.045
75636SOL    HW128805   9.373   8.067  13.069
75636SOL    HW228806   9.227   8.092  13.037
75637SOL     OW28807   1.025  14.480  14.199
75637SOL    HW128808   0.946  14.483  14.146
75637SOL    HW228809   1.062  14.393  14.183
75638SOL     OW28810   7.928   0.373   0.405
75638SOL    HW128811   7.967   0.399   0.321
75638SOL    HW228812   7.834   0.378   0.391
75639SOL     OW28813   5.192  11.068  10.539
75639SOL    HW128814   5.270  11.022  10.570
75639SOL    HW228815   5.197  11.061  10.443
75640SOL     OW28816  11.659   6.846   8.769
75640SOL    HW128817  11.703   6.861   8.686
75640SOL    HW228818  11.683   6.756   8.794
75641SOL     OW28819  14.840  13.849   6.879
75641SOL    HW128820  14.833  13.850   6.975
75641SOL    HW228821   0.064  13.844   6.861
75642SOL     OW28822   5.877   8.595   5.934
75642SOL    HW128823   5.913   8.684   5.931
75642SOL    HW228824   5.949   8.542   5.968
75643SOL     OW28825  14.457   5.136  10.352
75643SOL    HW128826  14.440   5.161  10.443
75643SOL    HW228827  14.539   5.179  10.330
75644SOL     OW28828   7.729   5.474   8.754
75644SOL    HW128829   7.639   5.496   8.775
75644SOL    HW228830   7.773   5.558   8.741
75645SOL     OW28831   4.325  14.529   2.922
75645SOL    HW128832   4.405  14.583   2.921
75645SOL    HW228833   4.345  14.458   2.982
75646SOL     OW28834   5.441  10.760   7.689
75646SOL    HW128835   5.398  10.845   7.688
75646SOL    HW228836   5.373  10.698   7.662
75647SOL     OW28837  12.986   9.858   8.037
75647SOL    HW128838  13.068   9.905   8.049
75647SOL    HW228839  12.989   9.788   8.103
75648SOL     OW28840   2.117   8.225   5.722
75648SOL    HW128841   2.070   8.284   5.662
75648SOL    HW228842   2.052   8.201   5.787
75649SOL     OW28843   5.810   9.653  13.045
75649SOL    HW128844   5.860   9.582  13.004
75649SOL    HW228845   5.784   9.709  12.971
75650SOL     OW28846   8.797  13.229  14.588
75650SOL    HW128847   8.743  13.293  14.543
75650SOL    HW228848   8.822  13.272  14.670
75651SOL     OW28849   1.767  10.403   0.942
75651SOL    HW128850   1.847  10.356   0.968
75651SOL    HW228851   1.706  10.333   0.916
75652SOL     OW28852   7.976   3.435   6.335
75652SOL    HW128853   7.975   3.352   6.287
75652SOL    HW228854   8.012   3.498   6.272
75653SOL     OW28855   2.671   7.236   1.442
75653SOL    HW128856   2.646   7.280   1.360
75653SOL    HW228857   2.691   7.307   1.502
75654SOL     OW28858   1.140  12.028   4.553
75654SOL    HW128859   1.066  12.068   4.508
75654SOL    HW228860   1.153  12.082   4.631
75655SOL     OW28861  14.409   0.369   1.174
75655SOL    HW128862  14.473   0.352   1.104
75655SOL    HW228863  14.386   0.282   1.208
75656SOL     OW28864   1.349   1.865   8.246
75656SOL    HW128865   1.409   1.895   8.177
75656SOL    HW228866   1.262   1.872   8.206
75657SOL     OW28867  14.125  10.464  14.361
75657SOL    HW128868  14.169  10.547  14.382
75657SOL    HW228869  14.180  10.398  14.403
75658SOL     OW28870   1.702   6.261   3.543
75658SOL    HW128871   1.621   6.262   3.491
75658SOL    HW228872   1.683   6.315   3.619
75659SOL     OW28873  12.974  10.145  10.622
75659SOL    HW128874  12.997  10.137  10.530
75659SOL    HW228875  13.025  10.219  10.654
75660SOL     OW28876  13.726  12.535  14.484
75660SOL    HW128877  13.770  12.619  14.474
75660SOL    HW228878  13.725  12.519  14.578
75661SOL     OW28879  13.606   0.554  14.086
75661SOL    HW128880  13.622   0.461  14.104
75661SOL    HW228881  13.614   0.561  13.991
75662SOL     OW28882   1.474  11.765   2.023
75662SOL    HW128883   1.497  11.713   2.100
75662SOL    HW228884   1.433  11.703   1.963
75663SOL     OW28885   1.368  14.772   0.466
75663SOL    HW128886   1.338  14.764   0.376
75663SOL    HW228887   1.363  14.866   0.484
75664SOL     OW28888  10.802  11.100   7.745
75664SOL    HW128889  10.826  11.038   7.814
75664SOL    HW228890  10.712  11.078   7.723
75665SOL     OW28891   0.739  11.864  12.851
75665SOL    HW128892   0.759  11.930  12.917
75665SOL    HW228893   0.733  11.912  12.769
75666SOL     OW28894   3.170   8.552   7.860
75666SOL    HW128895   3.242   8.612   7.879
75666SOL    HW228896   3.197   8.469   7.900
75667SOL     OW28897   3.104   0.463   6.590
75667SOL    HW128898   3.184   0.515   6.599
75667SOL    HW228899   3.086   0.431   6.678
75668SOL     OW28900   9.936  12.424   6.411
75668SOL    HW128901   9.898  12.384   6.489
75668SOL    HW228902  10.002  12.361   6.382
75669SOL     OW28903   3.375  10.389   9.928
75669SOL    HW128904   3.370  10.313   9.987
75669SOL    HW228905   3.404  10.461   9.984
75670SOL     OW28906   5.290   1.110  14.751
75670SOL    HW128907   5.327   1.030  14.789
75670SOL    HW228908   5.366   1.160  14.723
75671SOL     OW28909   0.818  11.850   7.939
75671SOL    HW128910   0.890  11.910   7.917
75671SOL    HW228911   0.747  11.875   7.879
75672SOL     OW28912   3.943   7.876   2.153
75672SOL    HW128913   3.977   7.883   2.242
75672SOL    HW228914   4.016   7.843   2.101
75673SOL     OW28915  11.728   6.724  11.935
75673SOL    HW128916  11.740   6.629  11.924
75673SOL    HW228917  11.735   6.760  11.847
75674SOL     OW28918  11.843   4.857   8.255
75674SOL    HW128919  11.791   4.884   8.179
75674SOL    HW228920  11.911   4.801   8.219
75675SOL     OW28921   9.553   5.069   6.719
75675SOL    HW128922   9.525   5.151   6.678
75675SOL    HW228923   9.570   5.092   6.810
75676SOL     OW28924  13.664   7.118   3.558
75676SOL    HW128925  13.684   7.043   3.503
75676SOL    HW228926  13.569   7.121   3.562
75677SOL     OW28927   2.722   2.111   3.356
75677SOL    HW128928   2.628   2.115   3.372
75677SOL    HW228929   2.751   2.036   3.408
75678SOL     OW28930  12.268   2.415   9.068
75678SOL    HW128931  12.263   2.418   8.972
75678SOL    HW228932  12.266   2.322   9.089
75679SOL     OW28933  12.655   5.104   7.926
75679SOL    HW128934  12.747   5.079   7.920
75679SOL    HW228935  12.657   5.193   7.960
75680SOL     OW28936   6.710   6.979   7.615
75680SOL    HW128937   6.797   7.002   7.583
75680SOL    HW228938   6.696   6.889   7.586
75681SOL     OW28939   4.615  11.300   4.443
75681SOL    HW128940   4.542  11.287   4.504
75681SOL    HW228941   4.679  11.350   4.494
75682SOL     OW28942  13.944  10.154   9.377
75682SOL    HW128943  14.002  10.112   9.313
75682SOL    HW228944  13.964  10.248   9.369
75683SOL     OW28945   5.946  11.679   3.940
75683SOL    HW128946   5.879  11.716   3.997
75683SOL    HW228947   6.028  11.712   3.976
75684SOL     OW28948  11.136   6.682   8.574
75684SOL    HW128949  11.138   6.732   8.655
75684SOL    HW228950  11.043   6.666   8.557
75685SOL     OW28951   9.374   6.043   8.482
75685SOL    HW128952   9.301   5.992   8.518
75685SOL    HW228953   9.428   5.978   8.437
75686SOL     OW28954   9.384   3.914  14.650
75686SOL    HW128955   9.445   3.894  14.580
75686SOL    HW228956   9.297   3.905  14.609
75687SOL     OW28957  11.856   7.403   0.817
75687SOL    HW128958  11.900   7.424   0.899
75687SOL    HW228959  11.771   7.447   0.823
75688SOL     OW28960  10.785  10.922   1.863
75688SOL    HW128961  10.852  10.914   1.931
75688SOL    HW228962  10.766  11.015   1.859
75689SOL     OW28963   0.416   4.093   4.420
75689SOL    HW128964   0.507   4.102   4.447
75689SOL    HW228965   0.371   4.060   4.499
75690SOL     OW28966   6.929   1.084   5.592
75690SOL    HW128967   6.899   1.082   5.501
75690SOL    HW228968   6.978   1.165   5.599
75691SOL     OW28969   1.863   7.665   9.522
75691SOL    HW128970   1.800   7.727   9.560
75691SOL    HW228971   1.945   7.715   9.516
75692SOL     OW28972   4.039  11.368   2.084
75692SOL    HW128973   4.114  11.325   2.044
75692SOL    HW228974   4.055  11.462   2.069
75693SOL     OW28975   4.259  11.856   1.341
75693SOL    HW128976   4.180  11.910   1.346
75693SOL    HW228977   4.317  11.904   1.282
75694SOL     OW28978  11.775   3.759  14.404
75694SOL    HW128979  11.771   3.850  14.433
75694SOL    HW228980  11.856   3.754  14.353
75695SOL     OW28981   2.329   4.313   2.118
75695SOL    HW128982   2.328   4.367   2.197
75695SOL    HW228983   2.317   4.223   2.150
75696SOL     OW28984   7.779   2.611   7.127
75696SOL    HW128985   7.787   2.599   7.032
75696SOL    HW228986   7.836   2.544   7.165
75697SOL     OW28987  11.581  12.279   8.546
75697SOL    HW128988  11.518  12.231   8.492
75697SOL    HW228989  11.642  12.319   8.484
75698SOL     OW28990  13.623   2.004   6.167
75698SOL    HW128991  13.677   1.971   6.095
75698SOL    HW228992  13.537   1.965   6.152
75699SOL     OW28993  13.599  14.599   2.921
75699SOL    HW128994  13.638  14.551   2.994
75699SOL    HW228995  13.665  14.663   2.895
75700SOL     OW28996  13.523   7.439   4.636
75700SOL    HW128997  13.579   7.505   4.676
75700SOL    HW228998  13.434   7.464   4.663
75701SOL     OW28999   3.004  11.344   8.798
75701SOL    HW129000   3.020  11.287   8.723
75701SOL    HW229001   2.922  11.312   8.836
75702SOL     OW29002  10.410  11.681   4.350
75702SOL    HW129003  10.334  11.623   4.360
75702SOL    HW229004  10.377  11.767   4.378
75703SOL     OW29005  14.390  14.039   6.566
75703SOL    HW129006  14.431  13.953   6.572
75703SOL    HW229007  14.435  14.081   6.492
75704SOL     OW29008   1.062   8.700   8.792
75704SOL    HW129009   0.994   8.706   8.726
75704SOL    HW229010   1.050   8.614   8.832
75705SOL     OW29011   0.792   8.381   3.570
75705SOL    HW129012   0.720   8.444   3.567
75705SOL    HW229013   0.800   8.349   3.480
75706SOL     OW29014   4.504   2.408   2.811
75706SOL    HW129015   4.450   2.400   2.889
75706SOL    HW229016   4.452   2.367   2.742
75707SOL     OW29017   3.275  14.149  11.144
75707SOL    HW129018   3.249  14.078  11.085
75707SOL    HW229019   3.346  14.113  11.196
75708SOL     OW29020   4.803   4.052   1.657
75708SOL    HW129021   4.713   4.062   1.690
75708SOL    HW229022   4.810   3.959   1.636
75709SOL     OW29023   4.129   0.181   3.224
75709SOL    HW129024   4.152   0.108   3.280
75709SOL    HW229025   4.034   0.178   3.218
75710SOL     OW29026  10.068   4.861   6.185
75710SOL    HW129027   9.983   4.888   6.219
75710SOL    HW229028  10.087   4.925   6.116
75711SOL     OW29029   0.637  11.353  10.143
75711SOL    HW129030   0.651  11.259  10.153
75711SOL    HW229031   0.544  11.361  10.123
75712SOL     OW29032   2.709   4.695   1.782
75712SOL    HW129033   2.664   4.633   1.724
75712SOL    HW229034   2.661   4.777   1.770
75713SOL     OW29035   1.626   1.243   0.422
75713SOL    HW129036   1.557   1.221   0.360
75713SOL    HW229037   1.615   1.182   0.494
75714SOL     OW29038   9.489   4.461   1.349
75714SOL    HW129039   9.445   4.537   1.311
75714SOL    HW229040   9.582   4.481   1.341
75715SOL     OW29041   8.845   2.896   5.555
75715SOL    HW129042   8.772   2.920   5.611
75715SOL    HW229043   8.892   2.978   5.541
75716SOL     OW29044   7.449   2.353  11.195
75716SOL    HW129045   7.388   2.299  11.144
75716SOL    HW229046   7.511   2.387  11.130
75717SOL     OW29047  11.422  10.459  10.777
75717SOL    HW129048  11.343  10.508  10.796
75717SOL    HW229049  11.485  10.525  10.747
75718SOL     OW29050  13.662  11.802   7.797
75718SOL    HW129051  13.594  11.736   7.809
75718SOL    HW229052  13.681  11.800   7.704
75719SOL     OW29053  10.896   9.313  11.708
75719SOL    HW129054  10.809   9.274  11.712
75719SOL    HW229055  10.910   9.349  11.796
75720SOL     OW29056  12.355  10.091  10.825
75720SOL    HW129057  12.408  10.040  10.764
75720SOL    HW229058  12.331  10.029  10.893
75721SOL     OW29059   7.813  13.466   3.462
75721SOL    HW129060   7.787  13.508   3.380
75721SOL    HW229061   7.734  13.469   3.517
75722SOL     OW29062   2.398   0.254  10.960
75722SOL    HW129063   2.458   0.263  10.886
75722SOL    HW229064   2.456   0.243  11.036
75723SOL     OW29065  13.506   2.166   2.514
75723SOL    HW129066  13.412   2.164   2.530
75723SOL    HW229067  13.517   2.230   2.443
75724SOL     OW29068   0.455   6.452  13.253
75724SOL    HW129069   0.396   6.409  13.315
75724SOL    HW229070   0.407   6.531  13.227
75725SOL     OW29071  13.651   9.176   7.351
75725SOL    HW129072  13.686   9.200   7.437
75725SOL    HW229073  13.635   9.082   7.356
75726SOL     OW29074   9.549  13.169  12.646
75726SOL    HW129075   9.613  13.115  12.600
75726SOL    HW229076   9.469  13.117  12.644
75727SOL     OW29077   0.078  13.948   9.718
75727SOL    HW129078   0.075  13.895   9.638
75727SOL    HW229079  14.863  13.994   9.720
75728SOL     OW29080   4.212  12.013  12.686
75728SOL    HW129081   4.295  12.021  12.638
75728SOL    HW229082   4.231  12.047  12.773
75729SOL     OW29083  14.069   4.359   5.635
75729SOL    HW129084  13.976   4.335   5.630
75729SOL    HW229085  14.082   4.419   5.561
75730SOL     OW29086   7.387   0.543   7.797
75730SOL    HW129087   7.363   0.576   7.883
75730SOL    HW229088   7.472   0.499   7.810
75731SOL     OW29089  13.219   2.349   9.942
75731SOL    HW129090  13.194   2.259   9.919
75731SOL    HW229091  13.143   2.384   9.988
75732SOL     OW29092   4.972  13.457   6.321
75732SOL    HW129093   4.947  13.439   6.412
75732SOL    HW229094   5.052  13.406   6.308
75733SOL     OW29095   1.234   6.614   9.630
75733SOL    HW129096   1.285   6.686   9.668
75733SOL    HW229097   1.251   6.620   9.536
75734SOL     OW29098  10.424  11.087   6.154
75734SOL    HW129099  10.480  11.094   6.076
75734SOL    HW229100  10.347  11.038   6.125
75735SOL     OW29101   9.191   7.022   1.512
75735SOL    HW129102   9.224   6.933   1.496
75735SOL    HW229103   9.234   7.049   1.594
75736SOL     OW29104  10.578   2.926  12.811
75736SOL    HW129105  10.604   2.962  12.726
75736SOL    HW229106  10.495   2.969  12.831
75737SOL     OW29107   1.350  13.735   7.300
75737SOL    HW129108   1.441  13.719   7.278
75737SOL    HW229109   1.331  13.823   7.266
75738SOL     OW29110   3.804   9.325  14.602
75738SOL    HW129111   3.771   9.343  14.690
75738SOL    HW229112   3.861   9.249  14.613
75739SOL     OW29113  12.682   6.135   1.024
75739SOL    HW129114  12.766   6.103   0.991
75739SOL    HW229115  12.659   6.206   0.964
75740SOL     OW29116  13.378  11.227   4.276
75740SOL    HW129117  13.464  11.185   4.280
75740SOL    HW229118  13.352  11.240   4.367
75741SOL     OW29119   9.412   5.834   7.283
75741SOL    HW129120   9.326   5.847   7.243
75741SOL    HW229121   9.395   5.835   7.377
75742SOL     OW29122   1.188   6.223   3.285
75742SOL    HW129123   1.178   6.317   3.299
75742SOL    HW229124   1.157   6.208   3.196
75743SOL     OW29125   7.915  14.414   6.344
75743SOL    HW129126   7.914  14.344   6.279
75743SOL    HW229127   7.914  14.494   6.292
75744SOL     OW29128   4.344   3.925  13.465
75744SOL    HW129129   4.311   3.928  13.555
75744SOL    HW229130   4.322   3.837  13.435
75745SOL     OW29131   7.212  14.308   7.781
75745SOL    HW129132   7.170  14.257   7.712
75745SOL    HW229133   7.152  14.380   7.798
75746SOL     OW29134   6.680   2.748   5.170
75746SOL    HW129135   6.699   2.827   5.119
75746SOL    HW229136   6.716   2.677   5.117
75747SOL     OW29137  13.987   9.915   6.546
75747SOL    HW129138  14.052   9.915   6.616
75747SOL    HW229139  13.991  10.003   6.510
75748SOL     OW29140   0.149  10.864   2.695
75748SOL    HW129141   0.132  10.770   2.702
75748SOL    HW229142   0.063  10.905   2.698
75749SOL     OW29143  12.930   4.311   0.428
75749SOL    HW129144  12.877   4.258   0.368
75749SOL    HW229145  12.971   4.248   0.487
75750SOL     OW29146   4.203   1.727   5.844
75750SOL    HW129147   4.151   1.797   5.885
75750SOL    HW229148   4.184   1.734   5.751
75751SOL     OW29149   0.406  11.497  14.564
75751SOL    HW129150   0.395  11.568  14.628
75751SOL    HW229151   0.343  11.518  14.495
75752SOL     OW29152   7.616   8.528   1.466
75752SOL    HW129153   7.557   8.463   1.429
75752SOL    HW229154   7.609   8.604   1.408
75753SOL     OW29155   4.370  12.935  13.317
75753SOL    HW129156   4.284  12.928  13.358
75753SOL    HW229157   4.352  12.972  13.231
75754SOL     OW29158  14.380   3.975   8.152
75754SOL    HW129159  14.451   3.947   8.210
75754SOL    HW229160  14.309   4.000   8.210
75755SOL     OW29161   4.605   9.830   5.215
75755SOL    HW129162   4.593   9.775   5.138
75755SOL    HW229163   4.567   9.779   5.287
75756SOL     OW29164   1.363  14.259  14.481
75756SOL    HW129165   1.438  14.290  14.430
75756SOL    HW229166   1.362  14.164  14.466
75757SOL     OW29167  14.525   8.478  13.860
75757SOL    HW129168  14.616   8.510  13.864
75757SOL    HW229169  14.517   8.442  13.772
75758SOL     OW29170  12.189   8.135   4.049
75758SOL    HW129171  12.233   8.152   3.966
75758SOL    HW229172  12.240   8.185   4.113
75759SOL     OW29173  14.016  11.150  12.982
75759SOL    HW129174  13.923  11.169  12.969
75759SOL    HW229175  14.016  11.068  13.032
75760SOL     OW29176   2.868  11.438  10.349
75760SOL    HW129177   2.909  11.364  10.393
75760SOL    HW229178   2.883  11.422  10.256
75761SOL     OW29179  11.393   4.327  12.876
75761SOL    HW129180  11.298   4.320  12.880
75761SOL    HW229181  11.414   4.327  12.783
75762SOL     OW29182   9.023  14.475   3.187
75762SOL    HW129183   9.004  14.420   3.263
75762SOL    HW229184   8.937  14.502   3.155
75763SOL     OW29185   4.094  13.438  11.720
75763SOL    HW129186   4.098  13.348  11.754
75763SOL    HW229187   4.137  13.490  11.787
75764SOL     OW29188  11.031  13.174   5.333
75764SOL    HW129189  10.960  13.148   5.392
75764SOL    HW229190  11.077  13.092   5.314
75765SOL     OW29191   7.206   8.420   0.554
75765SOL    HW129192   7.220   8.514   0.549
75765SOL    HW229193   7.122   8.405   0.509
75766SOL     OW29194  12.650   8.882  10.001
75766SOL    HW129195  12.730   8.862  10.048
75766SOL    HW229196  12.640   8.977  10.009
75767SOL     OW29197   3.935   0.552   4.488
75767SOL    HW129198   3.969   0.470   4.453
75767SOL    HW229199   3.843   0.535   4.505
75768SOL     OW29200   7.749   9.905   1.091
75768SOL    HW129201   7.839   9.883   1.115
75768SOL    HW229202   7.744   9.886   0.998
75769SOL     OW29203   7.910   5.805   2.259
75769SOL    HW129204   7.928   5.855   2.338
75769SOL    HW229205   7.850   5.736   2.288
75770SOL     OW29206   8.851  14.863  14.662
75770SOL    HW129207   8.938   0.031  14.649
75770SOL    HW229208   8.826  14.830  14.576
75771SOL     OW29209  14.695   5.731   0.591
75771SOL    HW129210  14.696   5.687   0.676
75771SOL    HW229211  14.685   5.824   0.611
75772SOL     OW29212   3.121  10.459   0.666
75772SOL    HW129213   3.207  10.447   0.705
75772SOL    HW229214   3.123  10.404   0.587
75773SOL     OW29215   6.278   5.597   8.233
75773SOL    HW129216   6.268   5.503   8.219
75773SOL    HW229217   6.365   5.617   8.200
75774SOL     OW29218   5.028   8.677   4.650
75774SOL    HW129219   4.975   8.621   4.707
75774SOL    HW229220   5.038   8.627   4.569
75775SOL     OW29221   3.936   9.637   5.209
75775SOL    HW129222   3.938   9.546   5.179
75775SOL    HW229223   3.844   9.664   5.200
75776SOL     OW29224   6.586  11.806  13.396
75776SOL    HW129225   6.541  11.888  13.376
75776SOL    HW229226   6.520  11.752  13.439
75777SOL     OW29227   2.523   4.752  12.678
75777SOL    HW129228   2.530   4.807  12.600
75777SOL    HW229229   2.600   4.695  12.674
75778SOL     OW29230  11.051  10.324  14.085
75778SOL    HW129231  10.956  10.314  14.091
75778SOL    HW229232  11.063  10.415  14.057
75779SOL     OW29233   9.772  12.021  14.634
75779SOL    HW129234   9.850  12.007  14.580
75779SOL    HW229235   9.745  12.110  14.614
75780SOL     OW29236   5.539   3.295   3.675
75780SOL    HW129237   5.509   3.337   3.756
75780SOL    HW229238   5.501   3.208   3.677
75781SOL     OW29239   2.688   2.502  11.999
75781SOL    HW129240   2.770   2.513  12.046
75781SOL    HW229241   2.711   2.445  11.925
75782SOL     OW29242  11.034   1.972  10.624
75782SOL    HW129243  11.038   1.877  10.635
75782SOL    HW229244  11.027   1.985  10.530
75783SOL     OW29245   2.917  12.809   3.986
75783SOL    HW129246   2.941  12.721   3.956
75783SOL    HW229247   2.999  12.848   4.015
75784SOL     OW29248  11.028   5.452   5.430
75784SOL    HW129249  10.997   5.489   5.347
75784SOL    HW229250  10.949   5.417   5.471
75785SOL     OW29251   9.975   8.297   0.300
75785SOL    HW129252   9.884   8.267   0.300
75785SOL    HW229253   9.998   8.301   0.393
75786SOL     OW29254   1.865  10.997  13.973
75786SOL    HW129255   1.833  10.946  13.899
75786SOL    HW229256   1.787  11.029  14.017
75787SOL     OW29257  12.302   3.517   4.781
75787SOL    HW129258  12.265   3.429   4.783
75787SOL    HW229259  12.325   3.536   4.872
75788SOL     OW29260  14.431   9.346   5.924
75788SOL    HW129261  14.427   9.394   6.007
75788SOL    HW229262  14.341   9.347   5.892
75789SOL     OW29263  11.157   7.948  11.771
75789SOL    HW129264  11.096   7.875  11.754
75789SOL    HW229265  11.129   7.984  11.854
75790SOL     OW29266   7.461   5.909   6.716
75790SOL    HW129267   7.377   5.906   6.669
75790SOL    HW229268   7.513   5.973   6.666
75791SOL     OW29269   1.905  14.826   3.504
75791SOL    HW129270   1.858  14.843   3.422
75791SOL    HW229271   1.953   0.037   3.521
75792SOL     OW29272   3.631  14.221  13.291
75792SOL    HW129273   3.655  14.288  13.355
75792SOL    HW229274   3.613  14.271  13.211
75793SOL     OW29275  13.566   9.411   8.248
75793SOL    HW129276  13.494   9.461   8.210
75793SOL    HW229277  13.524   9.346   8.304
75794SOL     OW29278   7.526  14.531   8.681
75794SOL    HW129279   7.455  14.483   8.639
75794SOL    HW229280   7.560  14.469   8.746
75795SOL     OW29281   2.096   4.554   4.257
75795SOL    HW129282   2.166   4.552   4.192
75795SOL    HW229283   2.127   4.498   4.328
75796SOL     OW29284  10.621   1.591   4.375
75796SOL    HW129285  10.563   1.593   4.298
75796SOL    HW229286  10.632   1.683   4.399
75797SOL     OW29287   3.398   3.827   3.594
75797SOL    HW129288   3.317   3.871   3.620
75797SOL    HW229289   3.455   3.898   3.564
75798SOL     OW29290  12.701   5.693  12.640
75798SOL    HW129291  12.667   5.782  12.635
75798SOL    HW229292  12.795   5.704  12.653
75799SOL     OW29293   9.580   2.148   5.282
75799SOL    HW129294   9.514   2.162   5.350
75799SOL    HW229295   9.653   2.108   5.328
75800SOL     OW29296   0.880  13.891   8.410
75800SOL    HW129297   0.946  13.912   8.343
75800SOL    HW229298   0.915  13.813   8.453
75801SOL     OW29299   8.399   0.570  10.954
75801SOL    HW129300   8.360   0.651  10.922
75801SOL    HW229301   8.480   0.560  10.903
75802SOL     OW29302  14.165   3.838   2.046
75802SOL    HW129303  14.188   3.748   2.068
75802SOL    HW229304  14.239   3.870   1.994
75803SOL     OW29305   6.170   9.708  13.746
75803SOL    HW129306   6.154   9.627  13.697
75803SOL    HW229307   6.176   9.680  13.837
75804SOL     OW29308  13.480  14.795   6.555
75804SOL    HW129309  13.513   0.008   6.519
75804SOL    HW229310  13.546  14.770   6.620
75805SOL     OW29311   0.504   3.894   2.795
75805SOL    HW129312   0.458   3.872   2.876
75805SOL    HW229313   0.439   3.879   2.726
75806SOL     OW29314   5.054  10.785   7.749
75806SOL    HW129315   5.026  10.716   7.690
75806SOL    HW229316   5.116  10.742   7.808
75807SOL     OW29317   0.524  11.758   9.003
75807SOL    HW129318   0.512  11.664   8.992
75807SOL    HW229319   0.584  11.766   9.077
75808SOL     OW29320  14.094   1.439  11.911
75808SOL    HW129321  14.140   1.381  11.971
75808SOL    HW229322  14.021   1.386  11.879
75809SOL     OW29323  13.211   5.010   6.173
75809SOL    HW129324  13.145   4.958   6.218
75809SOL    HW229325  13.167   5.046   6.097
75810SOL     OW29326   5.334   5.734   0.509
75810SOL    HW129327   5.376   5.820   0.515
75810SOL    HW229328   5.251   5.745   0.555
75811SOL     OW29329   0.984   1.653   0.145
75811SOL    HW129330   1.046   1.580   0.142
75811SOL    HW229331   0.898   1.612   0.133
75812SOL     OW29332   5.170   1.550   4.026
75812SOL    HW129333   5.230   1.514   4.092
75812SOL    HW229334   5.092   1.495   4.032
75813SOL     OW29335   2.428   6.808   6.005
75813SOL    HW129336   2.364   6.865   6.048
75813SOL    HW229337   2.398   6.802   5.915
75814SOL     OW29338   6.205   4.314   5.887
75814SOL    HW129339   6.243   4.289   5.971
75814SOL    HW229340   6.119   4.351   5.909
75815SOL     OW29341   9.721   6.474   8.395
75815SOL    HW129342   9.692   6.477   8.304
75815SOL    HW229343   9.682   6.394   8.430
75816SOL     OW29344  13.915   7.085   2.245
75816SOL    HW129345  13.879   7.000   2.220
75816SOL    HW229346  13.944   7.124   2.163
75817SOL     OW29347   7.008   5.496   2.055
75817SOL    HW129348   7.054   5.504   2.138
75817SOL    HW229349   7.061   5.436   2.003
75818SOL     OW29350   4.613  11.084  10.064
75818SOL    HW129351   4.605  11.029   9.986
75818SOL    HW229352   4.708  11.093  10.077
75819SOL     OW29353   3.177   2.014   2.809
75819SOL    HW129354   3.097   2.052   2.845
75819SOL    HW229355   3.229   1.990   2.886
75820SOL     OW29356   5.855   7.548  10.396
75820SOL    HW129357   5.849   7.480  10.329
75820SOL    HW229358   5.764   7.574  10.411
75821SOL     OW29359   4.307   8.984  12.948
75821SOL    HW129360   4.213   8.990  12.967
75821SOL    HW229361   4.314   8.996  12.854
75822SOL     OW29362   9.908  13.524   0.063
75822SOL    HW129363   9.949  13.585   0.123
75822SOL    HW229364   9.839  13.481   0.115
75823SOL     OW29365   6.261   8.072   9.726
75823SOL    HW129366   6.324   8.004   9.704
75823SOL    HW229367   6.180   8.045   9.683
75824SOL     OW29368  12.603   7.920   2.432
75824SOL    HW129369  12.634   8.005   2.465
75824SOL    HW229370  12.627   7.857   2.500
75825SOL     OW29371   6.602   3.543   5.272
75825SOL    HW129372   6.531   3.503   5.324
75825SOL    HW229373   6.674   3.481   5.279
75826SOL     OW29374   5.668  11.170   7.556
75826SOL    HW129375   5.657  11.227   7.480
75826SOL    HW229376   5.649  11.082   7.524
75827SOL     OW29377  12.374  11.804  10.997
75827SOL    HW129378  12.409  11.891  11.020
75827SOL    HW229379  12.404  11.789  10.908
75828SOL     OW29380   7.456   9.724   6.951
75828SOL    HW129381   7.368   9.733   6.914
75828SOL    HW229382   7.514   9.752   6.880
75829SOL     OW29383  13.974  14.577  12.188
75829SOL    HW129384  13.925  14.561  12.107
75829SOL    HW229385  13.911  14.619  12.246
75830SOL     OW29386  13.966   5.977  11.594
75830SOL    HW129387  13.888   5.926  11.616
75830SOL    HW229388  14.032   5.946  11.656
75831SOL     OW29389  11.593   9.891  14.005
75831SOL    HW129390  11.631   9.901  14.092
75831SOL    HW229391  11.638   9.815  13.968
75832SOL     OW29392   4.610   8.660   7.440
75832SOL    HW129393   4.559   8.737   7.466
75832SOL    HW229394   4.554   8.586   7.463
75833SOL     OW29395   6.796  10.881  10.432
75833SOL    HW129396   6.845  10.963  10.427
75833SOL    HW229397   6.765  10.866  10.342
75834SOL     OW29398   8.964  13.911   9.587
75834SOL    HW129399   9.059  13.901   9.593
75834SOL    HW229400   8.937  13.939   9.675
75835SOL     OW29401  10.332   7.466  13.092
75835SOL    HW129402  10.238   7.447  13.092
75835SOL    HW229403  10.373   7.384  13.064
75836SOL     OW29404   0.711   1.021   1.885
75836SOL    HW129405   0.671   1.037   1.800
75836SOL    HW229406   0.650   0.962   1.930
75837SOL     OW29407   3.845  10.871   3.494
75837SOL    HW129408   3.796  10.803   3.540
75837SOL    HW229409   3.782  10.942   3.484
75838SOL     OW29410  12.659  12.027   5.358
75838SOL    HW129411  12.683  11.941   5.325
75838SOL    HW229412  12.578  12.049   5.312
75839SOL     OW29413  13.717   7.314  12.421
75839SOL    HW129414  13.778   7.314  12.347
75839SOL    HW229415  13.637   7.353  12.387
75840SOL     OW29416  12.514   3.816   7.809
75840SOL    HW129417  12.476   3.787   7.726
75840SOL    HW229418  12.598   3.855   7.784
75841SOL     OW29419   7.833   1.665   7.175
75841SOL    HW129420   7.773   1.711   7.234
75841SOL    HW229421   7.920   1.698   7.199
75842SOL     OW29422  10.288   5.602  13.267
75842SOL    HW129423  10.374   5.625  13.302
75842SOL    HW229424  10.302   5.519  13.222
75843SOL     OW29425   6.014   5.134   0.592
75843SOL    HW129426   6.023   5.097   0.680
75843SOL    HW229427   6.103   5.131   0.556
75844SOL     OW29428   9.519   7.800  11.039
75844SOL    HW129429   9.506   7.807  10.945
75844SOL    HW229430   9.602   7.845  11.055
75845SOL     OW29431   4.750   0.173  11.784
75845SOL    HW129432   4.736   0.083  11.814
75845SOL    HW229433   4.822   0.166  11.721
75846SOL     OW29434  10.509  11.113   8.175
75846SOL    HW129435  10.561  11.137   8.099
75846SOL    HW229436  10.418  11.126   8.148
75847SOL     OW29437   1.334  11.797   7.051
75847SOL    HW129438   1.271  11.794   6.980
75847SOL    HW229439   1.296  11.857   7.116
75848SOL     OW29440   1.980  10.438   8.531
75848SOL    HW129441   1.962  10.389   8.451
75848SOL    HW229442   1.950  10.380   8.602
75849SOL     OW29443   0.589  13.916  10.803
75849SOL    HW129444   0.580  13.853  10.874
75849SOL    HW229445   0.666  13.887  10.754
75850SOL     OW29446  11.381   6.016   2.934
75850SOL    HW129447  11.308   5.956   2.949
75850SOL    HW229448  11.449   5.961   2.894
75851SOL     OW29449   9.042   8.931   7.541
75851SOL    HW129450   8.948   8.949   7.534
75851SOL    HW229451   9.069   8.911   7.451
75852SOL     OW29452   5.000   6.528   0.235
75852SOL    HW129453   4.993   6.525   0.331
75852SOL    HW229454   4.934   6.466   0.204
75853SOL     OW29455   0.067  10.583   3.031
75853SOL    HW129456   0.082  10.677   3.028
75853SOL    HW229457   0.140  10.546   2.981
75854SOL     OW29458   3.220  14.477   6.968
75854SOL    HW129459   3.209  14.386   6.941
75854SOL    HW229460   3.278  14.515   6.902
75855SOL     OW29461  10.909   6.023  11.544
75855SOL    HW129462  10.842   6.055  11.604
75855SOL    HW229463  10.862   5.970  11.481
75856SOL     OW29464  12.224   1.347   8.827
75856SOL    HW129465  12.179   1.312   8.904
75856SOL    HW229466  12.172   1.424   8.803
75857SOL     OW29467  12.042   6.144   3.203
75857SOL    HW129468  11.971   6.204   3.180
75857SOL    HW229469  12.106   6.155   3.133
75858SOL     OW29470   3.840   8.053   9.309
75858SOL    HW129471   3.760   8.101   9.330
75858SOL    HW229472   3.826   8.020   9.221
75859SOL     OW29473  10.300   0.175   5.256
75859SOL    HW129474  10.233   0.240   5.237
75859SOL    HW229475  10.374   0.226   5.289
75860SOL     OW29476   1.751   9.888   6.269
75860SOL    HW129477   1.836   9.932   6.262
75860SOL    HW229478   1.694   9.953   6.311
75861SOL     OW29479   3.480   8.604   0.850
75861SOL    HW129480   3.467   8.510   0.864
75861SOL    HW229481   3.575   8.615   0.846
75862SOL     OW29482   1.294   2.022   7.867
75862SOL    HW129483   1.342   2.022   7.950
75862SOL    HW229484   1.217   2.077   7.884
75863SOL     OW29485  11.705  13.813  13.440
75863SOL    HW129486  11.798  13.794  13.449
75863SOL    HW229487  11.676  13.757  13.369
75864SOL     OW29488   1.363   6.188   7.041
75864SOL    HW129489   1.385   6.108   6.994
75864SOL    HW229490   1.293   6.162   7.102
75865SOL     OW29491   4.725   8.978   4.621
75865SOL    HW129492   4.642   8.994   4.577
75865SOL    HW229493   4.706   8.908   4.684
75866SOL     OW29494   6.746   0.955   3.007
75866SOL    HW129495   6.702   0.924   3.086
75866SOL    HW229496   6.753   1.050   3.019
75867SOL     OW29497   0.381   7.965   7.682
75867SOL    HW129498   0.398   7.903   7.753
75867SOL    HW229499   0.287   7.985   7.689
75868SOL     OW29500   1.873   5.353  13.573
75868SOL    HW129501   1.903   5.266  13.599
75868SOL    HW229502   1.853   5.397  13.656
75869SOL     OW29503   8.813   2.321  10.757
75869SOL    HW129504   8.873   2.391  10.781
75869SOL    HW229505   8.831   2.305  10.664
75870SOL     OW29506   4.240   8.606   2.636
75870SOL    HW129507   4.192   8.608   2.718
75870SOL    HW229508   4.255   8.699   2.614
75871SOL     OW29509   6.586   3.698  13.625
75871SOL    HW129510   6.577   3.757  13.550
75871SOL    HW229511   6.654   3.636  13.600
75872SOL     OW29512  12.415   8.488   7.511
75872SOL    HW129513  12.375   8.553   7.569
75872SOL    HW229514  12.508   8.508   7.513
75873SOL     OW29515   0.604  12.699  12.415
75873SOL    HW129516   0.531  12.671  12.361
75873SOL    HW229517   0.648  12.767  12.363
75874SOL     OW29518  14.642   4.428   1.692
75874SOL    HW129519  14.602   4.343   1.709
75874SOL    HW229520  14.584   4.468   1.627
75875SOL     OW29521   4.087  11.129   0.192
75875SOL    HW129522   4.117  11.191   0.258
75875SOL    HW229523   4.032  11.182   0.133
75876SOL     OW29524  13.217  12.757   0.892
75876SOL    HW129525  13.270  12.743   0.971
75876SOL    HW229526  13.127  12.764   0.924
75877SOL     OW29527   1.954   2.645   2.879
75877SOL    HW129528   1.928   2.717   2.937
75877SOL    HW229529   2.047   2.633   2.895
75878SOL     OW29530   6.928   2.274   4.645
75878SOL    HW129531   6.964   2.201   4.695
75878SOL    HW229532   6.994   2.343   4.652
75879SOL     OW29533   2.790   7.137  11.110
75879SOL    HW129534   2.753   7.128  11.197
75879SOL    HW229535   2.881   7.108  11.120
75880SOL     OW29536   0.500   7.219   9.595
75880SOL    HW129537   0.453   7.220   9.512
75880SOL    HW229538   0.564   7.148   9.585
75881SOL     OW29539  11.944  13.184   0.406
75881SOL    HW129540  11.959  13.189   0.500
75881SOL    HW229541  11.858  13.224   0.393
75882SOL     OW29542   0.871   4.791   8.788
75882SOL    HW129543   0.848   4.698   8.782
75882SOL    HW229544   0.967   4.791   8.795
75883SOL     OW29545  13.084  13.308   6.589
75883SOL    HW129546  13.072  13.316   6.494
75883SOL    HW229547  12.996  13.300   6.624
75884SOL     OW29548   5.056  12.269  11.234
75884SOL    HW129549   5.135  12.215  11.228
75884SOL    HW229550   5.014  12.260  11.149
75885SOL     OW29551   1.584   4.738   7.518
75885SOL    HW129552   1.497   4.712   7.487
75885SOL    HW229553   1.609   4.812   7.462
75886SOL     OW29554  12.272  13.602  13.939
75886SOL    HW129555  12.298  13.537  13.874
75886SOL    HW229556  12.231  13.671  13.888
75887SOL     OW29557   9.233  14.660   5.369
75887SOL    HW129558   9.271  14.599   5.432
75887SOL    HW229559   9.307  14.714   5.340
75888SOL     OW29560  14.772   1.819   1.023
75888SOL    HW129561  14.690   1.795   0.979
75888SOL    HW229562  14.750   1.898   1.073
75889SOL     OW29563   8.246   8.175   7.498
75889SOL    HW129564   8.299   8.106   7.458
75889SOL    HW229565   8.297   8.255   7.484
75890SOL     OW29566   7.219  10.400  10.506
75890SOL    HW129567   7.296  10.455  10.489
75890SOL    HW229568   7.177  10.392  10.420
75891SOL     OW29569   2.405  11.877   9.966
75891SOL    HW129570   2.358  11.934   9.905
75891SOL    HW229571   2.467  11.936  10.009
75892SOL     OW29572  10.696   7.415   1.121
75892SOL    HW129573  10.628   7.480   1.141
75892SOL    HW229574  10.731   7.443   1.036
75893SOL     OW29575   3.747   9.080   6.243
75893SOL    HW129576   3.758   8.998   6.291
75893SOL    HW229577   3.814   9.138   6.279
75894SOL     OW29578  13.753   1.910   5.934
75894SOL    HW129579  13.783   2.001   5.921
75894SOL    HW229580  13.695   1.894   5.860
75895SOL     OW29581  10.929  13.821  10.333
75895SOL    HW129582  10.843  13.796  10.300
75895SOL    HW229583  10.948  13.756  10.401
75896SOL     OW29584  12.990  13.504   7.514
75896SOL    HW129585  13.041  13.504   7.433
75896SOL    HW229586  13.007  13.418   7.552
75897SOL     OW29587   0.639   5.166   3.527
75897SOL    HW129588   0.549   5.141   3.551
75897SOL    HW229589   0.692   5.089   3.548
75898SOL     OW29590   8.249   1.556   4.792
75898SOL    HW129591   8.169   1.509   4.816
75898SOL    HW229592   8.237   1.579   4.700
75899SOL     OW29593   0.063   1.965   4.049
75899SOL    HW129594   0.030   1.998   4.133
75899SOL    HW229595  14.855   1.964   3.992
75900SOL     OW29596   8.497   0.514   9.269
75900SOL    HW129597   8.487   0.424   9.297
75900SOL    HW229598   8.421   0.529   9.212
75901SOL     OW29599   2.896  11.322   3.158
75901SOL    HW129600   2.823  11.260   3.157
75901SOL    HW229601   2.949  11.295   3.233
75902SOL     OW29602   7.872   0.729   4.272
75902SOL    HW129603   7.909   0.736   4.359
75902SOL    HW229604   7.778   0.747   4.284
75903SOL     OW29605   5.179   9.556  10.115
75903SOL    HW129606   5.240   9.626  10.136
75903SOL    HW229607   5.220   9.477  10.150
75904SOL     OW29608   0.376   3.272   1.971
75904SOL    HW129609   0.290   3.307   1.992
75904SOL    HW229610   0.420   3.261   2.056
75905SOL     OW29611   3.042   1.007   0.907
75905SOL    HW129612   2.977   0.966   0.963
75905SOL    HW229613   3.029   0.966   0.821
75906SOL     OW29614   8.435   5.329   3.996
75906SOL    HW129615   8.363   5.385   4.022
75906SOL    HW229616   8.462   5.361   3.911
75907SOL     OW29617  11.684   5.461  10.162
75907SOL    HW129618  11.779   5.455  10.162
75907SOL    HW229619  11.659   5.458  10.070
75908SOL     OW29620  10.372   7.134   4.844
75908SOL    HW129621  10.351   7.180   4.925
75908SOL    HW229622  10.467   7.137   4.838
75909SOL     OW29623   3.610  12.504  10.621
75909SOL    HW129624   3.573  12.493  10.534
75909SOL    HW229625   3.616  12.599  10.633
75910SOL     OW29626  13.841  11.475  10.383
75910SOL    HW129627  13.769  11.525  10.421
75910SOL    HW229628  13.874  11.529  10.312
75911SOL     OW29629  12.861   9.184   3.419
75911SOL    HW129630  12.839   9.106   3.367
75911SOL    HW229631  12.940   9.159   3.467
75912SOL     OW29632   2.024   5.750  11.078
75912SOL    HW129633   1.949   5.692  11.092
75912SOL    HW229634   1.999   5.832  11.120
75913SOL     OW29635   6.457   1.063  14.452
75913SOL    HW129636   6.463   0.984  14.506
75913SOL    HW229637   6.480   1.135  14.511
75914SOL     OW29638  13.095   1.316   5.609
75914SOL    HW129639  13.055   1.383   5.665
75914SOL    HW229640  13.072   1.233   5.651
75915SOL     OW29641  12.703   7.743   1.970
75915SOL    HW129642  12.723   7.668   2.026
75915SOL    HW229643  12.695   7.816   2.031
75916SOL     OW29644   9.360   0.379  14.762
75916SOL    HW129645   9.400   0.404  14.679
75916SOL    HW229646   9.386   0.288  14.775
75917SOL     OW29647   0.005   2.700  12.481
75917SOL    HW129648   0.040   2.673  12.396
75917SOL    HW229649  14.835   2.621  12.517
75918SOL     OW29650   6.588   0.907  10.717
75918SOL    HW129651   6.559   0.936  10.631
75918SOL    HW229652   6.684   0.913  10.713
75919SOL     OW29653  10.675   3.427  10.167
75919SOL    HW129654  10.642   3.365  10.232
75919SOL    HW229655  10.679   3.511  10.213
75920SOL     OW29656  14.232   3.377   5.520
75920SOL    HW129657  14.151   3.423   5.540
75920SOL    HW229658  14.208   3.284   5.524
75921SOL     OW29659  11.508   7.022   3.679
75921SOL    HW129660  11.416   7.001   3.661
75921SOL    HW229661  11.549   7.028   3.593
75922SOL     OW29662   3.497   7.236   9.453
75922SOL    HW129663   3.518   7.174   9.384
75922SOL    HW229664   3.457   7.310   9.407
75923SOL     OW29665   2.650   1.536   3.767
75923SOL    HW129666   2.617   1.516   3.854
75923SOL    HW229667   2.648   1.452   3.721
75924SOL     OW29668   8.981  11.567   7.989
75924SOL    HW129669   9.003  11.484   7.947
75924SOL    HW229670   9.057  11.622   7.975
75925SOL     OW29671  12.477   9.223   9.036
75925SOL    HW129672  12.519   9.219   9.122
75925SOL    HW229673  12.535   9.278   8.983
75926SOL     OW29674   3.748   8.787   6.572
75926SOL    HW129675   3.815   8.849   6.601
75926SOL    HW229676   3.753   8.715   6.634
75927SOL     OW29677   5.524  14.330  10.025
75927SOL    HW129678   5.450  14.367   9.977
75927SOL    HW229679   5.559  14.403  10.076
75928SOL     OW29680   8.340   9.888   3.606
75928SOL    HW129681   8.384   9.881   3.521
75928SOL    HW229682   8.266   9.827   3.600
75929SOL     OW29683   4.601   0.532   2.987
75929SOL    HW129684   4.535   0.511   3.053
75929SOL    HW229685   4.564   0.499   2.905
75930SOL     OW29686   9.153   8.980   3.728
75930SOL    HW129687   9.070   8.937   3.706
75930SOL    HW229688   9.147   8.994   3.823
75931SOL     OW29689   8.138  13.244   6.078
75931SOL    HW129690   8.083  13.310   6.037
75931SOL    HW229691   8.137  13.265   6.171
75932SOL     OW29692  12.701  11.406  11.744
75932SOL    HW129693  12.758  11.342  11.702
75932SOL    HW229694  12.716  11.487  11.696
75933SOL     OW29695   6.804   2.326   9.240
75933SOL    HW129696   6.723   2.326   9.189
75933SOL    HW229697   6.840   2.413   9.226
75934SOL     OW29698  13.117   1.939   5.161
75934SOL    HW129699  13.194   1.905   5.116
75934SOL    HW229700  13.055   1.865   5.161
75935SOL     OW29701   3.014   1.932  14.212
75935SOL    HW129702   3.067   1.981  14.275
75935SOL    HW229703   3.062   1.849  14.200
75936SOL     OW29704   1.958  14.824   3.097
75936SOL    HW129705   1.940   0.006   3.019
75936SOL    HW229706   2.052  14.836   3.113
75937SOL     OW29707   7.592   8.207   0.447
75937SOL    HW129708   7.567   8.254   0.368
75937SOL    HW229709   7.622   8.121   0.416
75938SOL     OW29710   7.159   1.895   2.053
75938SOL    HW129711   7.164   1.990   2.045
75938SOL    HW229712   7.198   1.876   2.138
75939SOL     OW29713  12.968   1.987  13.980
75939SOL    HW129714  12.970   1.896  13.953
75939SOL    HW229715  13.010   2.034  13.908
75940SOL     OW29716   1.607  14.511  12.117
75940SOL    HW129717   1.702  14.508  12.127
75940SOL    HW229718   1.576  14.552  12.198
75941SOL     OW29719   4.797   4.794   1.040
75941SOL    HW129720   4.858   4.866   1.026
75941SOL    HW229721   4.758   4.812   1.126
75942SOL     OW29722  14.784   8.573   3.328
75942SOL    HW129723  14.740   8.552   3.246
75942SOL    HW229724  14.773   8.495   3.382
75943SOL     OW29725   9.964   1.162   6.355
75943SOL    HW129726  10.008   1.083   6.388
75943SOL    HW229727   9.878   1.161   6.398
75944SOL     OW29728   8.398   9.219   9.941
75944SOL    HW129729   8.433   9.297   9.986
75944SOL    HW229730   8.351   9.254   9.866
75945SOL     OW29731  10.032  12.809  11.699
75945SOL    HW129732  10.061  12.777  11.613
75945SOL    HW229733  10.047  12.736  11.759
75946SOL     OW29734   7.605  13.618   0.270
75946SOL    HW129735   7.552  13.697   0.264
75946SOL    HW229736   7.547  13.547   0.241
75947SOL     OW29737   7.955   0.485   9.709
75947SOL    HW129738   8.039   0.452   9.679
75947SOL    HW229739   7.937   0.560   9.653
75948SOL     OW29740   3.417   2.898   6.936
75948SOL    HW129741   3.438   2.982   6.978
75948SOL    HW229742   3.413   2.918   6.843
75949SOL     OW29743   2.145   9.251   6.735
75949SOL    HW129744   2.142   9.324   6.674
75949SOL    HW229745   2.074   9.193   6.707
75950SOL     OW29746  11.405  10.465  14.369
75950SOL    HW129747  11.473  10.447  14.434
75950SOL    HW229748  11.450  10.456  14.285
75951SOL     OW29749   8.148  11.612   1.689
75951SOL    HW129750   8.218  11.604   1.624
75951SOL    HW229751   8.114  11.700   1.678
75952SOL     OW29752  14.221   8.347   0.537
75952SOL    HW129753  14.133   8.381   0.518
75952SOL    HW229754  14.221   8.336   0.632
75953SOL     OW29755   1.064  11.619   8.352
75953SOL    HW129756   0.994  11.671   8.313
75953SOL    HW229757   1.139  11.678   8.355
75954SOL     OW29758  14.658   4.519   2.699
75954SOL    HW129759  14.592   4.567   2.750
75954SOL    HW229760  14.608   4.450   2.656
75955SOL     OW29761  13.736   5.790  10.059
75955SOL    HW129762  13.775   5.866  10.104
75955SOL    HW229763  13.642   5.799  10.075
75956SOL     OW29764   6.635   9.795   9.347
75956SOL    HW129765   6.548   9.804   9.308
75956SOL    HW229766   6.631   9.713   9.397
75957SOL     OW29767   9.221  10.861   8.268
75957SOL    HW129768   9.171  10.833   8.191
75957SOL    HW229769   9.164  10.923   8.313
75958SOL     OW29770   1.294  14.517  11.678
75958SOL    HW129771   1.375  14.469  11.663
75958SOL    HW229772   1.299  14.591  11.618
75959SOL     OW29773   2.467  14.668   2.063
75959SOL    HW129774   2.449  14.684   2.155
75959SOL    HW229775   2.405  14.722   2.015
75960SOL     OW29776   3.950   7.465   4.457
75960SOL    HW129777   3.880   7.442   4.518
75960SOL    HW229778   3.905   7.494   4.378
75961SOL     OW29779   4.813   4.576   5.331
75961SOL    HW129780   4.879   4.512   5.358
75961SOL    HW229781   4.838   4.599   5.241
75962SOL     OW29782   2.093   6.381  11.136
75962SOL    HW129783   2.025   6.418  11.079
75962SOL    HW229784   2.175   6.398  11.089
75963SOL     OW29785   8.301   4.721   4.772
75963SOL    HW129786   8.309   4.796   4.832
75963SOL    HW229787   8.329   4.756   4.687
75964SOL     OW29788   9.440   7.264   9.686
75964SOL    HW129789   9.364   7.273   9.629
75964SOL    HW229790   9.462   7.171   9.682
75965SOL     OW29791   6.056   8.400  14.453
75965SOL    HW129792   6.062   8.382  14.360
75965SOL    HW229793   6.063   8.314  14.495
75966SOL     OW29794   6.057   1.244  11.683
75966SOL    HW129795   6.103   1.232  11.766
75966SOL    HW229796   5.989   1.309  11.702
75967SOL     OW29797   3.154  11.925  14.229
75967SOL    HW129798   3.072  11.974  14.230
75967SOL    HW229799   3.131  11.840  14.193
75968SOL     OW29800   9.633  13.403   9.001
75968SOL    HW129801   9.593  13.433   8.919
75968SOL    HW229802   9.650  13.483   9.050
75969SOL     OW29803   2.549   7.538  10.829
75969SOL    HW129804   2.457   7.562  10.827
75969SOL    HW229805   2.548   7.442  10.829
75970SOL     OW29806   6.536   3.552   8.950
75970SOL    HW129807   6.630   3.537   8.947
75970SOL    HW229808   6.525   3.625   9.011
75971SOL     OW29809   7.813   7.320   1.477
75971SOL    HW129810   7.779   7.355   1.394
75971SOL    HW229811   7.815   7.225   1.463
75972SOL     OW29812  12.965   2.921  11.413
75972SOL    HW129813  12.939   2.958  11.497
75972SOL    HW229814  12.883   2.893  11.373
75973SOL     OW29815   3.429  14.822  12.254
75973SOL    HW129816   3.361  14.824  12.322
75973SOL    HW229817   3.477   0.034  12.265
75974SOL     OW29818   6.200   0.970  14.289
75974SOL    HW129819   6.196   0.882  14.325
75974SOL    HW229820   6.277   1.009  14.330
75975SOL     OW29821   3.900   7.251   5.794
75975SOL    HW129822   3.814   7.292   5.784
75975SOL    HW229823   3.906   7.229   5.887
75976SOL     OW29824   0.724   5.301  13.108
75976SOL    HW129825   0.698   5.265  13.023
75976SOL    HW229826   0.805   5.255  13.130
75977SOL     OW29827   4.043  14.813   6.862
75977SOL    HW129828   4.093  14.869   6.921
75977SOL    HW229829   4.103  14.741   6.841
75978SOL     OW29830   8.234  12.030   8.963
75978SOL    HW129831   8.148  12.019   8.922
75978SOL    HW229832   8.233  11.970   9.038
75979SOL     OW29833   5.838  11.115  11.592
75979SOL    HW129834   5.785  11.042  11.624
75979SOL    HW229835   5.784  11.193  11.607
75980SOL     OW29836   6.302  12.439   6.610
75980SOL    HW129837   6.367  12.509   6.618
75980SOL    HW229838   6.323  12.397   6.526
75981SOL     OW29839   1.821   3.306  12.753
75981SOL    HW129840   1.756   3.257  12.804
75981SOL    HW229841   1.883   3.340  12.817
75982SOL     OW29842   8.109   7.577   7.450
75982SOL    HW129843   8.044   7.646   7.440
75982SOL    HW229844   8.116   7.563   7.545
75983SOL     OW29845   2.005  10.936   9.501
75983SOL    HW129846   1.925  10.909   9.455
75983SOL    HW229847   2.002  11.032   9.499
75984SOL     OW29848   8.910  11.993   4.183
75984SOL    HW129849   8.969  11.952   4.245
75984SOL    HW229850   8.966  12.052   4.131
75985SOL     OW29851   8.241  10.927   5.226
75985SOL    HW129852   8.319  10.962   5.269
75985SOL    HW229853   8.240  10.834   5.249
75986SOL     OW29854   1.655   0.619   2.834
75986SOL    HW129855   1.661   0.647   2.926
75986SOL    HW229856   1.561   0.607   2.819
75987SOL     OW29857  14.750   2.877   5.485
75987SOL    HW129858  14.711   2.793   5.512
75987SOL    HW229859  14.682   2.920   5.434
75988SOL     OW29860   7.582   2.704  12.128
75988SOL    HW129861   7.599   2.664  12.213
75988SOL    HW229862   7.557   2.794  12.148
75989SOL     OW29863   4.202   1.104   1.184
75989SOL    HW129864   4.123   1.153   1.159
75989SOL    HW229865   4.274   1.164   1.166
75990SOL     OW29866  11.105   4.050   5.737
75990SOL    HW129867  11.142   4.137   5.740
75990SOL    HW229868  11.018   4.059   5.776
75991SOL     OW29869   8.931   3.105  13.075
75991SOL    HW129870   8.977   3.076  12.997
75991SOL    HW229871   8.864   3.038  13.090
75992SOL     OW29872   7.599  13.876  11.217
75992SOL    HW129873   7.661  13.877  11.290
75992SOL    HW229874   7.537  13.947  11.236
75993SOL     OW29875  12.863   7.508  12.916
75993SOL    HW129876  12.777   7.468  12.932
75993SOL    HW229877  12.926   7.446  12.954
75994SOL     OW29878  14.205   3.474  10.169
75994SOL    HW129879  14.216   3.528  10.091
75994SOL    HW229880  14.294   3.458  10.199
75995SOL     OW29881   2.185   6.135  11.961
75995SOL    HW129882   2.216   6.133  12.051
75995SOL    HW229883   2.170   6.227  11.942
75996SOL     OW29884  11.607   7.474  11.684
75996SOL    HW129885  11.520   7.447  11.711
75996SOL    HW229886  11.592   7.541  11.617
75997SOL     OW29887   0.300  10.899  13.591
75997SOL    HW129888   0.331  10.900  13.682
75997SOL    HW229889   0.324  10.812  13.559
75998SOL     OW29890   6.799   3.593   1.344
75998SOL    HW129891   6.883   3.637   1.352
75998SOL    HW229892   6.817   3.516   1.291
75999SOL     OW29893   8.421   3.414   2.044
75999SOL    HW129894   8.377   3.329   2.031
75999SOL    HW229895   8.401   3.437   2.135
76000SOL     OW29896   1.781   6.364   8.484
76000SOL    HW129897   1.738   6.438   8.525
76000SOL    HW229898   1.870   6.395   8.465
76001SOL     OW29899   3.230  13.987   2.850
76001SOL    HW129900   3.281  13.907   2.847
76001SOL    HW229901   3.218  14.005   2.943
76002SOL     OW29902   1.703   9.292  10.227
76002SOL    HW129903   1.646   9.215  10.223
76002SOL    HW229904   1.665   9.354  10.165
76003SOL     OW29905   8.060   6.684   2.110
76003SOL    HW129906   8.031   6.603   2.151
76003SOL    HW229907   8.008   6.752   2.152
76004SOL     OW29908   9.278   4.068   1.453
76004SOL    HW129909   9.195   4.098   1.418
76004SOL    HW229910   9.273   3.973   1.449
76005SOL     OW29911   8.922   9.021   5.509
76005SOL    HW129912   8.840   9.051   5.548
76005SOL    HW229913   8.945   9.091   5.447
76006SOL     OW29914  14.340   7.692   9.133
76006SOL    HW129915  14.419   7.642   9.157
76006SOL    HW229916  14.343   7.697   9.038
76007SOL     OW29917   1.534   0.874   4.565
76007SOL    HW129918   1.532   0.901   4.473
76007SOL    HW229919   1.446   0.894   4.597
76008SOL     OW29920  12.197   4.931  13.336
76008SOL    HW129921  12.110   4.890  13.331
76008SOL    HW229922  12.195   4.980  13.418
76009SOL     OW29923  12.976  10.201   5.391
76009SOL    HW129924  13.043  10.254   5.348
76009SOL    HW229925  12.897  10.215   5.338
76010SOL     OW29926   6.399  11.292  13.253
76010SOL    HW129927   6.327  11.232  13.274
76010SOL    HW229928   6.354  11.370  13.219
76011SOL     OW29929  12.924  13.987  13.552
76011SOL    HW129930  12.882  14.019  13.632
76011SOL    HW229931  12.925  13.892  13.563
76012SOL     OW29932   7.908   4.618   5.413
76012SOL    HW129933   7.979   4.585   5.468
76012SOL    HW229934   7.861   4.680   5.469
76013SOL     OW29935   0.646   0.751   1.303
76013SOL    HW129936   0.611   0.709   1.225
76013SOL    HW229937   0.608   0.702   1.377
76014SOL     OW29938   3.659   7.114   8.930
76014SOL    HW129939   3.681   7.207   8.931
76014SOL    HW229940   3.614   7.101   8.847
76015SOL     OW29941   5.771   6.656   0.695
76015SOL    HW129942   5.734   6.743   0.705
76015SOL    HW229943   5.805   6.634   0.781
76016SOL     OW29944   1.785   9.372   7.200
76016SOL    HW129945   1.865   9.415   7.170
76016SOL    HW229946   1.750   9.430   7.267
76017SOL     OW29947  14.778   7.622  14.508
76017SOL    HW129948  14.733   7.652  14.429
76017SOL    HW229949   0.001   7.618  14.483
76018SOL     OW29950   3.762  10.229   0.285
76018SOL    HW129951   3.831  10.290   0.310
76018SOL    HW229952   3.686  10.256   0.336
76019SOL     OW29953  13.217   5.490   6.547
76019SOL    HW129954  13.279   5.418   6.558
76019SOL    HW229955  13.213   5.531   6.633
76020SOL     OW29956   8.575   3.581  14.837
76020SOL    HW129957   8.649   3.618  14.788
76020SOL    HW229958   8.499   3.630  14.806
76021SOL     OW29959  14.195   3.170   2.431
76021SOL    HW129960  14.268   3.129   2.477
76021SOL    HW229961  14.183   3.254   2.475
76022SOL     OW29962   7.108   7.841  13.621
76022SOL    HW129963   7.103   7.822  13.714
76022SOL    HW229964   7.016   7.850  13.594
76023SOL     OW29965  14.183   7.115   1.843
76023SOL    HW129966  14.130   7.138   1.767
76023SOL    HW229967  14.150   7.030   1.871
76024SOL     OW29968   1.578   4.844  13.963
76024SOL    HW129969   1.532   4.925  13.985
76024SOL    HW229970   1.608   4.809  14.047
76025SOL     OW29971   7.690   6.037   8.364
76025SOL    HW129972   7.767   6.001   8.408
76025SOL    HW229973   7.724   6.071   8.281
76026SOL     OW29974   8.573  10.927   5.023
76026SOL    HW129975   8.556  10.897   5.112
76026SOL    HW229976   8.596  11.019   5.032
76027SOL     OW29977   8.123   7.027   1.776
76027SOL    HW129978   8.166   6.945   1.750
76027SOL    HW229979   8.122   7.079   1.696
76028SOL     OW29980   7.857   4.957   5.540
76028SOL    HW129981   7.933   4.981   5.592
76028SOL    HW229982   7.889   4.954   5.450
76029SOL     OW29983   2.921   6.749   2.906
76029SOL    HW129984   2.949   6.755   2.814
76029SOL    HW229985   2.835   6.708   2.902
76030SOL     OW29986   9.662   3.145   0.472
76030SOL    HW129987   9.728   3.113   0.411
76030SOL    HW229988   9.582   3.152   0.420
76031SOL     OW29989  11.476   9.532   0.004
76031SOL    HW129990  11.542   9.593   0.036
76031SOL    HW229991  11.394   9.580   0.008
76032SOL     OW29992   1.788   1.482   1.639
76032SOL    HW129993   1.866   1.451   1.592
76032SOL    HW229994   1.743   1.402   1.665
76033SOL     OW29995   7.355   3.262   7.700
76033SOL    HW129996   7.450   3.274   7.693
76033SOL    HW229997   7.333   3.294   7.787
76034SOL     OW29998   9.501   1.747   4.350
76034SOL    HW129999   9.562   1.788   4.412
76034SOL    HW230000   9.555   1.722   4.276
76035SOL     OW30001  13.534   9.818  14.022
76035SOL    HW130002  13.546   9.856  13.934
76035SOL    HW230003  13.486   9.737  14.007
76036SOL     OW30004   7.407   5.269  11.423
76036SOL    HW130005   7.419   5.283  11.329
76036SOL    HW230006   7.472   5.203  11.446
76037SOL     OW30007   9.573   9.218  14.104
76037SOL    HW130008   9.622   9.289  14.063
76037SOL    HW230009   9.517   9.184  14.034
76038SOL     OW30010   6.510   6.086   7.852
76038SOL    HW130011   6.492   6.053   7.940
76038SOL    HW230012   6.447   6.041   7.796
76039SOL     OW30013   9.358  11.284   7.661
76039SOL    HW130014   9.445  11.255   7.687
76039SOL    HW230015   9.348  11.254   7.571
76040SOL     OW30016   7.854   4.393   6.242
76040SOL    HW130017   7.815   4.432   6.320
76040SOL    HW230018   7.934   4.351   6.274
76041SOL     OW30019   4.407   3.594   1.479
76041SOL    HW130020   4.461   3.605   1.557
76041SOL    HW230021   4.340   3.662   1.486
76042SOL     OW30022   1.682   5.631   9.982
76042SOL    HW130023   1.730   5.562  10.028
76042SOL    HW230024   1.749   5.680   9.934
76043SOL     OW30025   6.015   7.590   8.530
76043SOL    HW130026   5.960   7.668   8.521
76043SOL    HW230027   6.066   7.587   8.449
76044SOL     OW30028   7.012  11.271  14.622
76044SOL    HW130029   7.001  11.190  14.573
76044SOL    HW230030   7.064  11.327  14.565
76045SOL     OW30031  13.170   0.012   8.936
76045SOL    HW130032  13.131   0.071   8.872
76045SOL    HW230033  13.101  14.816   8.954
76046SOL     OW30034   6.537   9.192   9.169
76046SOL    HW130035   6.450   9.154   9.179
76046SOL    HW230036   6.554   9.191   9.075
76047SOL     OW30037   2.445   1.584  13.240
76047SOL    HW130038   2.368   1.529  13.255
76047SOL    HW230039   2.516   1.537  13.282
76048SOL     OW30040   2.086   7.448  11.124
76048SOL    HW130041   2.027   7.483  11.057
76048SOL    HW230042   2.115   7.364  11.089
76049SOL     OW30043   0.394   3.682  13.524
76049SOL    HW130044   0.434   3.733  13.454
76049SOL    HW230045   0.433   3.595  13.515
76050SOL     OW30046   2.611   3.542   2.778
76050SOL    HW130047   2.587   3.508   2.692
76050SOL    HW230048   2.701   3.571   2.768
76051SOL     OW30049  13.556   9.023   1.928
76051SOL    HW130050  13.634   9.061   1.969
76051SOL    HW230051  13.562   9.049   1.836
76052SOL     OW30052   9.844   9.091  12.662
76052SOL    HW130053   9.853   9.100  12.567
76052SOL    HW230054   9.850   8.997  12.678
76053SOL     OW30055   5.141   0.158   5.861
76053SOL    HW130056   5.131   0.253   5.872
76053SOL    HW230057   5.226   0.138   5.902
76054SOL     OW30058  13.710   0.494   4.378
76054SOL    HW130059  13.649   0.424   4.399
76054SOL    HW230060  13.793   0.449   4.358
76055SOL     OW30061  10.367  13.574   7.803
76055SOL    HW130062  10.335  13.664   7.797
76055SOL    HW230063  10.442  13.571   7.743
76056SOL     OW30064   3.532   9.883  14.470
76056SOL    HW130065   3.470   9.945  14.507
76056SOL    HW230066   3.512   9.800  14.514
76057SOL     OW30067   6.070   5.341  11.513
76057SOL    HW130068   6.122   5.275  11.466
76057SOL    HW230069   6.033   5.396  11.444
76058SOL     OW30070   7.967  12.205   0.732
76058SOL    HW130071   7.983  12.220   0.639
76058SOL    HW230072   7.872  12.211   0.742
76059SOL     OW30073  14.035  14.677   8.630
76059SOL    HW130074  14.083  14.666   8.548
76059SOL    HW230075  14.086  14.629   8.695
76060SOL     OW30076   5.762  10.141  10.594
76060SOL    HW130077   5.833  10.100  10.644
76060SOL    HW230078   5.716  10.195  10.658
76061SOL     OW30079  13.109  10.922   7.071
76061SOL    HW130080  13.065  10.837   7.074
76061SOL    HW230081  13.038  10.985   7.057
76062SOL     OW30082   7.145   3.110  13.010
76062SOL    HW130083   7.152   3.123  13.105
76062SOL    HW230084   7.107   3.191  12.977
76063SOL     OW30085  12.405   3.714   3.674
76063SOL    HW130086  12.464   3.767   3.729
76063SOL    HW230087  12.443   3.626   3.676
76064SOL     OW30088   0.975   0.010  10.944
76064SOL    HW130089   0.927   0.092  10.943
76064SOL    HW230090   0.989  14.859  10.852
76065SOL     OW30091  14.364   6.478  11.237
76065SOL    HW130092  14.366   6.572  11.219
76065SOL    HW230093  14.439   6.463  11.295
76066SOL     OW30094  11.453  13.805  13.153
76066SOL    HW130095  11.472  13.899  13.146
76066SOL    HW230096  11.360  13.798  13.134
76067SOL     OW30097  10.856   4.173  11.891
76067SOL    HW130098  10.890   4.224  11.818
76067SOL    HW230099  10.919   4.102  11.903
76068SOL     OW30100  10.936   8.127  13.725
76068SOL    HW130101  10.913   8.179  13.802
76068SOL    HW230102  10.975   8.048  13.760
76069SOL     OW30103   9.376   2.233  13.163
76069SOL    HW130104   9.340   2.153  13.124
76069SOL    HW230105   9.324   2.304  13.125
76070SOL     OW30106   4.768   1.886   0.223
76070SOL    HW130107   4.783   1.830   0.299
76070SOL    HW230108   4.804   1.971   0.249
76071SOL     OW30109   8.176   4.682   0.914
76071SOL    HW130110   8.160   4.591   0.938
76071SOL    HW230111   8.207   4.723   0.995
76072SOL     OW30112   6.504  13.092  12.895
76072SOL    HW130113   6.541  13.097  12.806
76072SOL    HW230114   6.467  13.004  12.901
76073SOL     OW30115   1.437   2.524   5.856
76073SOL    HW130116   1.402   2.604   5.816
76073SOL    HW230117   1.491   2.485   5.787
76074SOL     OW30118   7.108  12.339  10.646
76074SOL    HW130119   7.138  12.420  10.687
76074SOL    HW230120   7.016  12.355  10.626
76075SOL     OW30121   5.289  10.848   3.469
76075SOL    HW130122   5.372  10.803   3.451
76075SOL    HW230123   5.302  10.937   3.435
76076SOL     OW30124   1.322   6.614   2.331
76076SOL    HW130125   1.360   6.633   2.417
76076SOL    HW230126   1.378   6.662   2.269
76077SOL     OW30127  10.396   5.838   3.068
76077SOL    HW130128  10.368   5.748   3.079
76077SOL    HW230129  10.375   5.880   3.151
76078SOL     OW30130   8.316   4.600  10.575
76078SOL    HW130131   8.246   4.573  10.516
76078SOL    HW230132   8.366   4.665  10.525
76079SOL     OW30133  12.409   4.664   6.869
76079SOL    HW130134  12.329   4.615   6.850
76079SOL    HW230135  12.406   4.740   6.810
76080SOL     OW30136   6.128  13.913   8.513
76080SOL    HW130137   6.069  13.852   8.469
76080SOL    HW230138   6.123  13.993   8.460
76081SOL     OW30139  11.207   4.398   2.367
76081SOL    HW130140  11.147   4.331   2.402
76081SOL    HW230141  11.294   4.361   2.381
76082SOL     OW30142  12.099   7.872   0.289
76082SOL    HW130143  12.107   7.948   0.232
76082SOL    HW230144  12.165   7.810   0.258
76083SOL     OW30145   5.162   1.029   2.906
76083SOL    HW130146   5.223   1.094   2.872
76083SOL    HW230147   5.177   0.952   2.851
76084SOL     OW30148   4.422   4.106  11.299
76084SOL    HW130149   4.341   4.069  11.265
76084SOL    HW230150   4.413   4.099  11.394
76085SOL     OW30151   1.628   7.551   4.934
76085SOL    HW130152   1.542   7.545   4.891
76085SOL    HW230153   1.620   7.493   5.011
76086SOL     OW30154   2.845   2.259   3.625
76086SOL    HW130155   2.906   2.265   3.551
76086SOL    HW230156   2.762   2.232   3.585
76087SOL     OW30157   8.404  11.334  11.755
76087SOL    HW130158   8.348  11.391  11.808
76087SOL    HW230159   8.458  11.395  11.705
76088SOL     OW30160  11.658  11.701   5.268
76088SOL    HW130161  11.590  11.641   5.300
76088SOL    HW230162  11.736  11.646   5.257
76089SOL     OW30163  11.039   5.876   6.940
76089SOL    HW130164  11.095   5.800   6.953
76089SOL    HW230165  11.050   5.929   7.019
76090SOL     OW30166  11.027   5.606   2.671
76090SOL    HW130167  11.117   5.612   2.704
76090SOL    HW230168  11.001   5.516   2.691
76091SOL     OW30169   2.074   4.232  14.303
76091SOL    HW130170   2.053   4.164  14.239
76091SOL    HW230171   2.013   4.216  14.375
76092SOL     OW30172   1.200   7.105   5.152
76092SOL    HW130173   1.225   7.194   5.174
76092SOL    HW230174   1.109   7.097   5.179
76093SOL     OW30175   8.489   0.008   2.865
76093SOL    HW130176   8.406   0.036   2.826
76093SOL    HW230177   8.473  14.788   2.893
76094SOL     OW30178   8.586   2.622  11.697
76094SOL    HW130179   8.660   2.589  11.648
76094SOL    HW230180   8.597   2.587  11.786
76095SOL     OW30181  13.451   7.665  10.495
76095SOL    HW130182  13.469   7.744  10.547
76095SOL    HW230183  13.372   7.628  10.535
76096SOL     OW30184  12.697   8.232  11.141
76096SOL    HW130185  12.688   8.324  11.115
76096SOL    HW230186  12.634   8.185  11.085
76097SOL     OW30187   3.660  13.208   4.823
76097SOL    HW130188   3.699  13.221   4.737
76097SOL    HW230189   3.578  13.259   4.821
76098SOL     OW30190   1.484   8.638  10.840
76098SOL    HW130191   1.557   8.695  10.862
76098SOL    HW230192   1.519   8.550  10.848
76099SOL     OW30193   2.759  11.482   9.224
76099SOL    HW130194   2.784  11.528   9.304
76099SOL    HW230195   2.819  11.516   9.157
76100SOL     OW30196   0.994   6.616   4.525
76100SOL    HW130197   1.049   6.685   4.563
76100SOL    HW230198   0.954   6.656   4.448
76101SOL     OW30199   5.891   7.088   1.650
76101SOL    HW130200   5.881   7.183   1.642
76101SOL    HW230201   5.858   7.054   1.567
76102SOL     OW30202   0.769  12.850   3.167
76102SOL    HW130203   0.778  12.757   3.145
76102SOL    HW230204   0.851  12.871   3.212
76103SOL     OW30205   2.286  13.582  12.338
76103SOL    HW130206   2.322  13.514  12.281
76103SOL    HW230207   2.199  13.551  12.362
76104SOL     OW30208   5.216   9.419   4.559
76104SOL    HW130209   5.283   9.438   4.493
76104SOL    HW230210   5.136   9.403   4.509
76105SOL     OW30211   1.307   6.510  14.639
76105SOL    HW130212   1.375   6.493  14.704
76105SOL    HW230213   1.341   6.583  14.588
76106SOL     OW30214   1.815   3.797   1.402
76106SOL    HW130215   1.759   3.860   1.445
76106SOL    HW230216   1.887   3.849   1.366
76107SOL     OW30217  11.720   9.130   0.465
76107SOL    HW130218  11.801   9.158   0.422
76107SOL    HW230219  11.743   9.050   0.511
76108SOL     OW30220   0.510   8.660   6.057
76108SOL    HW130221   0.467   8.575   6.071
76108SOL    HW230222   0.445   8.724   6.088
76109SOL     OW30223   6.737   8.648   3.838
76109SOL    HW130224   6.729   8.713   3.768
76109SOL    HW230225   6.786   8.693   3.907
76110SOL     OW30226   5.147  14.725   1.483
76110SOL    HW130227   5.157  14.699   1.575
76110SOL    HW230228   5.210  14.797   1.472
76111SOL     OW30229   4.947   3.405  10.553
76111SOL    HW130230   4.959   3.407  10.458
76111SOL    HW230231   5.006   3.472  10.587
76112SOL     OW30232   5.249   5.300   1.286
76112SOL    HW130233   5.310   5.227   1.273
76112SOL    HW230234   5.174   5.278   1.231
76113SOL     OW30235   4.518  10.950   9.831
76113SOL    HW130236   4.490  11.039   9.811
76113SOL    HW230237   4.531  10.910   9.745
76114SOL     OW30238   0.364  13.706   9.294
76114SOL    HW130239   0.400  13.775   9.350
76114SOL    HW230240   0.408  13.718   9.210
76115SOL     OW30241   9.573  10.026  10.273
76115SOL    HW130242   9.480  10.031  10.251
76115SOL    HW230243   9.619  10.042  10.191
76116SOL     OW30244  14.327   5.443  11.258
76116SOL    HW130245  14.322   5.466  11.351
76116SOL    HW230246  14.246   5.477  11.221
76117SOL     OW30247   7.983   4.988  13.089
76117SOL    HW130248   7.927   4.962  13.016
76117SOL    HW230249   7.973   4.919  13.153
76118SOL     OW30250   9.963   4.470   0.696
76118SOL    HW130251   9.920   4.395   0.737
76118SOL    HW230252   9.919   4.546   0.735
76119SOL     OW30253   6.123   7.373   6.497
76119SOL    HW130254   6.200   7.317   6.485
76119SOL    HW230255   6.093   7.391   6.408
76120SOL     OW30256   0.174  10.377  10.694
76120SOL    HW130257   0.255  10.426  10.702
76120SOL    HW230258   0.124  10.424  10.627
76121SOL     OW30259   3.923   7.642  12.787
76121SOL    HW130260   3.951   7.575  12.850
76121SOL    HW230261   3.901   7.593  12.708
76122SOL     OW30262  12.969   5.188   0.578
76122SOL    HW130263  13.038   5.134   0.617
76122SOL    HW230264  13.007   5.221   0.496
76123SOL     OW30265   9.363  13.279   9.753
76123SOL    HW130266   9.457  13.283   9.770
76123SOL    HW230267   9.352  13.207   9.690
76124SOL     OW30268   2.913   1.974   4.656
76124SOL    HW130269   2.974   2.014   4.719
76124SOL    HW230270   2.959   1.980   4.572
76125SOL     OW30271  14.076  10.653  12.260
76125SOL    HW130272  14.081  10.711  12.336
76125SOL    HW230273  14.143  10.685  12.200
76126SOL     OW30274  10.215  11.955   2.274
76126SOL    HW130275  10.268  11.880   2.300
76126SOL    HW230276  10.248  12.027   2.328
76127SOL     OW30277   3.020  10.814   9.686
76127SOL    HW130278   3.027  10.810   9.591
76127SOL    HW230279   3.067  10.893   9.710
76128SOL     OW30280   6.921   5.641  10.373
76128SOL    HW130281   6.877   5.724  10.354
76128SOL    HW230282   6.851   5.577  10.382
76129SOL     OW30283  13.651   0.617   5.494
76129SOL    HW130284  13.580   0.555   5.477
76129SOL    HW230285  13.731   0.571   5.468
76130SOL     OW30286  14.553   1.412   8.675
76130SOL    HW130287  14.539   1.404   8.770
76130SOL    HW230288  14.628   1.471   8.667
76131SOL     OW30289   1.433   5.592  10.675
76131SOL    HW130290   1.344   5.557  10.671
76131SOL    HW230291   1.445   5.636  10.591
76132SOL     OW30292  14.414   6.842   1.603
76132SOL    HW130293  14.424   6.832   1.508
76132SOL    HW230294  14.326   6.808   1.621
76133SOL     OW30295   8.189  10.055   7.672
76133SOL    HW130296   8.269  10.039   7.721
76133SOL    HW230297   8.121  10.062   7.738
76134SOL     OW30298   9.755   1.091   4.678
76134SOL    HW130299   9.692   1.037   4.725
76134SOL    HW230300   9.820   1.029   4.645
76135SOL     OW30301   6.270   9.717  12.342
76135SOL    HW130302   6.177   9.722  12.320
76135SOL    HW230303   6.306   9.801  12.312
76136SOL     OW30304   4.448  11.173  11.215
76136SOL    HW130305   4.520  11.110  11.209
76136SOL    HW230306   4.471  11.241  11.151
76137SOL     OW30307   0.043  11.725   6.133
76137SOL    HW130308   0.104  11.654   6.117
76137SOL    HW230309  14.852  11.690   6.199
76138SOL     OW30310   6.433   7.650   1.002
76138SOL    HW130311   6.474   7.659   1.088
76138SOL    HW230312   6.472   7.720   0.950
76139SOL     OW30313   3.283   7.357   9.616
76139SOL    HW130314   3.361   7.337   9.564
76139SOL    HW230315   3.274   7.282   9.675
76140SOL     OW30316  13.896  13.819   4.432
76140SOL    HW130317  13.947  13.800   4.511
76140SOL    HW230318  13.887  13.914   4.432
76141SOL     OW30319   8.469   0.202  10.354
76141SOL    HW130320   8.428   0.180  10.438
76141SOL    HW230321   8.451   0.127  10.298
76142SOL     OW30322   6.145  11.935   8.466
76142SOL    HW130323   6.135  11.858   8.409
76142SOL    HW230324   6.062  11.981   8.459
76143SOL     OW30325  10.567   5.167  11.471
76143SOL    HW130326  10.556   5.145  11.564
76143SOL    HW230327  10.647   5.121  11.445
76144SOL     OW30328  13.158   6.637   0.202
76144SOL    HW130329  13.172   6.730   0.186
76144SOL    HW230330  13.162   6.628   0.297
76145SOL     OW30331   9.039   0.716  14.121
76145SOL    HW130332   8.999   0.799  14.147
76145SOL    HW230333   8.990   0.649  14.169
76146SOL     OW30334  10.116  12.898   8.043
76146SOL    HW130335  10.155  12.966   8.098
76146SOL    HW230336  10.030  12.933   8.019
76147SOL     OW30337   6.342   6.855   3.701
76147SOL    HW130338   6.316   6.780   3.648
76147SOL    HW230339   6.425   6.829   3.740
76148SOL     OW30340   7.171   2.867   9.072
76148SOL    HW130341   7.228   2.794   9.098
76148SOL    HW230342   7.205   2.942   9.119
76149SOL     OW30343   0.265  10.886   3.226
76149SOL    HW130344   0.199  10.868   3.159
76149SOL    HW230345   0.217  10.929   3.296
76150SOL     OW30346  10.806   7.836  13.389
76150SOL    HW130347  10.793   7.930  13.404
76150SOL    HW230348  10.719   7.804  13.365
76151SOL     OW30349   3.060   7.298   0.155
76151SOL    HW130350   3.084   7.387   0.183
76151SOL    HW230351   2.980   7.278   0.203
76152SOL     OW30352   8.610   8.341  12.867
76152SOL    HW130353   8.641   8.341  12.957
76152SOL    HW230354   8.612   8.434  12.842
76153SOL     OW30355   2.154   3.531  12.480
76153SOL    HW130356   2.065   3.527  12.516
76153SOL    HW230357   2.183   3.440  12.474
76154SOL     OW30358   0.373   6.693   9.900
76154SOL    HW130359   0.317   6.633   9.948
76154SOL    HW230360   0.460   6.653   9.904
76155SOL     OW30361   2.736   7.533   1.507
76155SOL    HW130362   2.828   7.515   1.526
76155SOL    HW230363   2.734   7.626   1.485
76156SOL     OW30364   1.714  13.694   2.609
76156SOL    HW130365   1.769  13.707   2.532
76156SOL    HW230366   1.637  13.747   2.593
76157SOL     OW30367  13.126   3.763   2.696
76157SOL    HW130368  13.101   3.739   2.785
76157SOL    HW230369  13.057   3.727   2.640
76158SOL     OW30370   9.900   6.163  14.353
76158SOL    HW130371   9.935   6.142  14.267
76158SOL    HW230372   9.974   6.202  14.400
76159SOL     OW30373  14.348   2.123  10.105
76159SOL    HW130374  14.357   2.205  10.055
76159SOL    HW230375  14.312   2.150  10.189
76160SOL     OW30376   9.466   5.538   7.227
76160SOL    HW130377   9.412   5.508   7.300
76160SOL    HW230378   9.456   5.633   7.227
76161SOL     OW30379   4.726  12.741   7.195
76161SOL    HW130380   4.636  12.753   7.164
76161SOL    HW230381   4.766  12.681   7.132
76162SOL     OW30382   2.909  12.486  14.096
76162SOL    HW130383   2.894  12.559  14.035
76162SOL    HW230384   2.949  12.526  14.173
76163SOL     OW30385   1.427   8.364  12.742
76163SOL    HW130386   1.345   8.315  12.751
76163SOL    HW230387   1.400   8.451  12.714
76164SOL     OW30388   4.930   7.933   5.004
76164SOL    HW130389   5.017   7.903   5.033
76164SOL    HW230390   4.937   8.028   5.002
76165SOL     OW30391   8.620   9.940   6.439
76165SOL    HW130392   8.632   9.883   6.363
76165SOL    HW230393   8.688   9.912   6.500
76166SOL     OW30394  14.356  10.093  14.825
76166SOL    HW130395  14.353  10.184  14.794
76166SOL    HW230396  14.386  10.099   0.046
76167SOL     OW30397  13.961  14.757  13.123
76167SOL    HW130398  14.048  14.790  13.101
76167SOL    HW230399  13.968  14.728  13.214
76168SOL     OW30400   3.556   9.525   6.160
76168SOL    HW130401   3.568   9.440   6.203
76168SOL    HW230402   3.487   9.568   6.210
76169SOL     OW30403   8.905   2.724  10.512
76169SOL    HW130404   8.919   2.814  10.540
76169SOL    HW230405   8.991   2.695  10.480
76170SOL     OW30406   5.507   7.359   4.660
76170SOL    HW130407   5.530   7.311   4.740
76170SOL    HW230408   5.575   7.426   4.653
76171SOL     OW30409   2.368   7.083   4.182
76171SOL    HW130410   2.349   7.145   4.112
76171SOL    HW230411   2.296   7.020   4.179
76172SOL     OW30412  13.507   2.894   1.342
76172SOL    HW130413  13.430   2.950   1.347
76172SOL    HW230414  13.563   2.935   1.276
76173SOL     OW30415  10.544   2.544   2.931
76173SOL    HW130416  10.562   2.627   2.975
76173SOL    HW230417  10.612   2.536   2.865
76174SOL     OW30418   7.243   7.490  10.269
76174SOL    HW130419   7.163   7.439  10.258
76174SOL    HW230420   7.312   7.425  10.283
76175SOL     OW30421   5.373   1.821   8.174
76175SOL    HW130422   5.468   1.813   8.162
76175SOL    HW230423   5.360   1.809   8.268
76176SOL     OW30424   2.573   2.164   9.319
76176SOL    HW130425   2.500   2.163   9.381
76176SOL    HW230426   2.554   2.092   9.259
76177SOL     OW30427   6.628   6.401   2.503
76177SOL    HW130428   6.564   6.331   2.516
76177SOL    HW230429   6.664   6.385   2.416
76178SOL     OW30430   9.965   9.566  11.049
76178SOL    HW130431   9.968   9.545  10.956
76178SOL    HW230432   9.996   9.656  11.055
76179SOL     OW30433   8.644  14.531  14.668
76179SOL    HW130434   8.643  14.540  14.572
76179SOL    HW230435   8.552  14.529  14.693
76180SOL     OW30436   4.503  12.668  11.898
76180SOL    HW130437   4.559  12.717  11.837
76180SOL    HW230438   4.428  12.641  11.845
76181SOL     OW30439  12.577  10.227   8.778
76181SOL    HW130440  12.570  10.304   8.721
76181SOL    HW230441  12.487  10.207   8.803
76182SOL     OW30442   8.411  11.954  11.510
76182SOL    HW130443   8.386  11.976  11.420
76182SOL    HW230444   8.424  11.859  11.509
76183SOL     OW30445   2.897   3.283   3.606
76183SOL    HW130446   2.893   3.190   3.582
76183SOL    HW230447   2.806   3.312   3.606
76184SOL     OW30448   2.965   8.844   7.881
76184SOL    HW130449   2.919   8.850   7.798
76184SOL    HW230450   3.056   8.827   7.857
76185SOL     OW30451   4.340   7.058   4.060
76185SOL    HW130452   4.354   7.152   4.052
76185SOL    HW230453   4.427   7.020   4.051
76186SOL     OW30454   2.145  11.355  13.374
76186SOL    HW130455   2.061  11.398  13.356
76186SOL    HW230456   2.121  11.266  13.400
76187SOL     OW30457  14.217  10.549   7.192
76187SOL    HW130458  14.212  10.523   7.284
76187SOL    HW230459  14.138  10.510   7.153
76188SOL     OW30460   0.146  14.057  11.345
76188SOL    HW130461   0.059  14.086  11.370
76188SOL    HW230462   0.205  14.100  11.408
76189SOL     OW30463   4.026   6.756   5.002
76189SOL    HW130464   4.108   6.784   5.041
76189SOL    HW230465   4.029   6.660   5.006
76190SOL     OW30466   4.159  11.082   2.788
76190SOL    HW130467   4.175  11.104   2.880
76190SOL    HW230468   4.071  11.116   2.770
76191SOL     OW30469   2.887   5.377   0.327
76191SOL    HW130470   2.811   5.409   0.279
76191SOL    HW230471   2.941   5.333   0.261
76192SOL     OW30472   8.846   6.629   8.856
76192SOL    HW130473   8.893   6.712   8.867
76192SOL    HW230474   8.914   6.567   8.830
76193SOL     OW30475   6.262   3.692   9.707
76193SOL    HW130476   6.335   3.747   9.679
76193SOL    HW230477   6.302   3.619   9.753
76194SOL     OW30478   1.789  11.899  13.950
76194SOL    HW130479   1.882  11.891  13.968
76194SOL    HW230480   1.748  11.832  14.005
76195SOL     OW30481  11.296   1.065   3.271
76195SOL    HW130482  11.273   1.047   3.180
76195SOL    HW230483  11.213   1.062   3.318
76196SOL     OW30484   4.255  10.828  13.630
76196SOL    HW130485   4.299  10.769  13.691
76196SOL    HW230486   4.163  10.826  13.656
76197SOL     OW30487  12.096   6.680   1.462
76197SOL    HW130488  12.131   6.764   1.435
76197SOL    HW230489  12.007   6.699   1.491
76198SOL     OW30490  13.890   3.297   9.665
76198SOL    HW130491  13.884   3.202   9.674
76198SOL    HW230492  13.922   3.328   9.750
76199SOL     OW30493   5.737   6.555   7.458
76199SOL    HW130494   5.740   6.613   7.534
76199SOL    HW230495   5.746   6.613   7.383
76200SOL     OW30496   6.454  14.270   5.880
76200SOL    HW130497   6.372  14.304   5.916
76200SOL    HW230498   6.520  14.293   5.945
76201SOL     OW30499   7.213   4.105  10.832
76201SOL    HW130500   7.140   4.069  10.881
76201SOL    HW230501   7.191   4.088  10.740
76202SOL     OW30502  13.412   3.173   2.474
76202SOL    HW130503  13.358   3.220   2.410
76202SOL    HW230504  13.408   3.226   2.553
76203SOL     OW30505  14.818  10.332   0.812
76203SOL    HW130506  14.803  10.249   0.765
76203SOL    HW230507  14.742  10.386   0.788
76204SOL     OW30508   0.813   2.444   0.125
76204SOL    HW130509   0.752   2.371   0.118
76204SOL    HW230510   0.804   2.475   0.215
76205SOL     OW30511   2.134   3.357  10.682
76205SOL    HW130512   2.097   3.326  10.765
76205SOL    HW230513   2.193   3.286  10.653
76206SOL     OW30514  10.225   5.701  10.425
76206SOL    HW130515  10.296   5.763  10.410
76206SOL    HW230516  10.174   5.703  10.344
76207SOL     OW30517   5.023  10.634  10.273
76207SOL    HW130518   5.111  10.658  10.303
76207SOL    HW230519   5.035  10.611  10.181
76208SOL     OW30520  13.177  12.254  11.450
76208SOL    HW130521  13.253  12.293  11.407
76208SOL    HW230522  13.165  12.170  11.404
76209SOL     OW30523   1.099  11.438  14.710
76209SOL    HW130524   1.022  11.392  14.743
76209SOL    HW230525   1.165  11.370  14.699
76210SOL     OW30526   3.336  13.012   6.118
76210SOL    HW130527   3.385  12.930   6.111
76210SOL    HW230528   3.248  12.989   6.087
76211SOL     OW30529  11.216  10.955   2.943
76211SOL    HW130530  11.286  10.921   2.886
76211SOL    HW230531  11.193  10.882   2.999
76212SOL     OW30532   1.212   6.841  14.860
76212SOL    HW130533   1.207   6.926  14.816
76212SOL    HW230534   1.133   6.794  14.834
76213SOL     OW30535   0.101  13.642  13.514
76213SOL    HW130536   0.193  13.617  13.507
76213SOL    HW230537   0.083  13.643  13.608
76214SOL     OW30538  13.125   1.136   9.047
76214SOL    HW130539  13.075   1.120   8.968
76214SOL    HW230540  13.098   1.223   9.076
76215SOL     OW30541  14.441  12.725   3.409
76215SOL    HW130542  14.518  12.756   3.458
76215SOL    HW230543  14.400  12.661   3.467
76216SOL     OW30544   9.620   2.867  10.424
76216SOL    HW130545   9.543   2.812  10.437
76216SOL    HW230546   9.689   2.824  10.475
76217SOL     OW30547  13.027   9.038   8.328
76217SOL    HW130548  12.955   9.100   8.339
76217SOL    HW230549  13.029   9.020   8.234
76218SOL     OW30550   0.751   3.889   1.395
76218SOL    HW130551   0.715   3.817   1.343
76218SOL    HW230552   0.702   3.886   1.477
76219SOL     OW30553  10.159   5.946   4.100
76219SOL    HW130554  10.094   5.911   4.161
76219SOL    HW230555  10.127   6.035   4.080
76220SOL     OW30556   1.232   7.465  14.001
76220SOL    HW130557   1.151   7.461  13.950
76220SOL    HW230558   1.247   7.559  14.014
76221SOL     OW30559  12.196  10.723   7.505
76221SOL    HW130560  12.169  10.664   7.576
76221SOL    HW230561  12.251  10.788   7.547
76222SOL     OW30562  12.574   5.444   2.209
76222SOL    HW130563  12.577   5.391   2.130
76222SOL    HW230564  12.586   5.534   2.178
76223SOL     OW30565   4.337   0.726  12.179
76223SOL    HW130566   4.426   0.737  12.211
76223SOL    HW230567   4.342   0.750  12.086
76224SOL     OW30568   5.555  12.199   1.308
76224SOL    HW130569   5.616  12.179   1.379
76224SOL    HW230570   5.553  12.295   1.304
76225SOL     OW30571   0.948  14.302   2.959
76225SOL    HW130572   0.959  14.209   2.942
76225SOL    HW230573   0.936  14.341   2.873
76226SOL     OW30574  13.399  11.509   5.153
76226SOL    HW130575  13.431  11.455   5.226
76226SOL    HW230576  13.362  11.586   5.196
76227SOL     OW30577  14.444   2.693   4.230
76227SOL    HW130578  14.434   2.659   4.318
76227SOL    HW230579  14.377   2.761   4.223
76228SOL     OW30580   2.429  13.604   3.328
76228SOL    HW130581   2.417  13.696   3.306
76228SOL    HW230582   2.459  13.564   3.246
76229SOL     OW30583   7.982   9.117  13.605
76229SOL    HW130584   7.948   9.091  13.520
76229SOL    HW230585   8.039   9.192  13.586
76230SOL     OW30586  13.783   8.112  10.554
76230SOL    HW130587  13.755   8.034  10.506
76230SOL    HW230588  13.877   8.117  10.538
76231SOL     OW30589   1.292  11.013  10.893
76231SOL    HW130590   1.273  10.939  10.835
76231SOL    HW230591   1.255  10.986  10.977
76232SOL     OW30592   0.230  10.650   1.695
76232SOL    HW130593   0.266  10.706   1.764
76232SOL    HW230594   0.136  10.644   1.716
76233SOL     OW30595  13.315   8.090   7.058
76233SOL    HW130596  13.224   8.092   7.030
76233SOL    HW230597  13.312   8.107   7.152
76234SOL     OW30598   5.314  10.573   5.049
76234SOL    HW130599   5.294  10.510   5.118
76234SOL    HW230600   5.237  10.630   5.045
76235SOL     OW30601   4.581  10.361   7.473
76235SOL    HW130602   4.544  10.272   7.475
76235SOL    HW230603   4.649  10.357   7.405
76236SOL     OW30604   0.057  14.246   6.542
76236SOL    HW130605   0.135  14.294   6.572
76236SOL    HW230606  14.865  14.253   6.615
76237SOL     OW30607  12.479  12.211   9.503
76237SOL    HW130608  12.518  12.138   9.454
76237SOL    HW230609  12.488  12.287   9.445
76238SOL     OW30610  14.352   9.045   9.151
76238SOL    HW130611  14.301   9.016   9.227
76238SOL    HW230612  14.319   8.992   9.079
76239SOL     OW30613   3.104   4.250   5.724
76239SOL    HW130614   3.142   4.208   5.802
76239SOL    HW230615   3.157   4.328   5.711
76240SOL     OW30616   8.523   3.989  13.231
76240SOL    HW130617   8.610   3.973  13.194
76240SOL    HW230618   8.536   3.985  13.326
76241SOL     OW30619  10.056  11.549  14.158
76241SOL    HW130620  10.048  11.610  14.231
76241SOL    HW230621  10.079  11.604  14.083
76242SOL     OW30622  14.377  12.135  14.701
76242SOL    HW130623  14.355  12.042  14.703
76242SOL    HW230624  14.293  12.179  14.687
76243SOL     OW30625   0.903  10.436  12.803
76243SOL    HW130626   0.998  10.419  12.804
76243SOL    HW230627   0.894  10.521  12.847
76244SOL     OW30628  10.324  14.630   5.566
76244SOL    HW130629  10.414  14.629   5.599
76244SOL    HW230630  10.319  14.709   5.512
76245SOL     OW30631   0.375  11.645   0.797
76245SOL    HW130632   0.283  11.628   0.815
76245SOL    HW230633   0.415  11.559   0.791
76246SOL     OW30634  14.587   1.044   2.748
76246SOL    HW130635  14.529   0.984   2.794
76246SOL    HW230636  14.556   1.131   2.774
76247SOL     OW30637   9.048   8.398   6.528
76247SOL    HW130638   8.969   8.442   6.496
76247SOL    HW230639   9.121   8.446   6.488
76248SOL     OW30640   5.123  13.613   8.343
76248SOL    HW130641   5.165  13.568   8.269
76248SOL    HW230642   5.062  13.673   8.302
76249SOL     OW30643   6.203  10.762   4.911
76249SOL    HW130644   6.137  10.761   4.842
76249SOL    HW230645   6.260  10.687   4.891
76250SOL     OW30646   8.363   5.608   3.573
76250SOL    HW130647   8.285   5.562   3.605
76250SOL    HW230648   8.423   5.610   3.647
76251SOL     OW30649  12.169   1.900  13.208
76251SOL    HW130650  12.121   1.942  13.137
76251SOL    HW230651  12.179   1.969  13.274
76252SOL     OW30652   1.911   2.822   8.146
76252SOL    HW130653   1.966   2.897   8.124
76252SOL    HW230654   1.932   2.756   8.080
76253SOL     OW30655  11.394   4.941   8.568
76253SOL    HW130656  11.440   4.862   8.539
76253SOL    HW230657  11.313   4.908   8.607
76254SOL     OW30658   3.727   2.538  11.080
76254SOL    HW130659   3.804   2.570  11.032
76254SOL    HW230660   3.654   2.552  11.020
76255SOL     OW30661   2.717   8.349   2.180
76255SOL    HW130662   2.806   8.371   2.207
76255SOL    HW230663   2.717   8.254   2.172
76256SOL     OW30664   4.933   0.426   6.513
76256SOL    HW130665   5.027   0.425   6.495
76256SOL    HW230666   4.926   0.440   6.607
76257SOL     OW30667  13.207   8.815  13.559
76257SOL    HW130668  13.186   8.839  13.469
76257SOL    HW230669  13.142   8.862  13.612
76258SOL     OW30670   4.648  14.047   0.483
76258SOL    HW130671   4.614  14.131   0.452
76258SOL    HW230672   4.707  14.069   0.554
76259SOL     OW30673  12.772   9.712   3.524
76259SOL    HW130674  12.765   9.808   3.524
76259SOL    HW230675  12.684   9.682   3.547
76260SOL     OW30676  12.201   0.215  12.414
76260SOL    HW130677  12.243   0.235  12.498
76260SOL    HW230678  12.140   0.288  12.400
76261SOL     OW30679  12.254  12.356  14.457
76261SOL    HW130680  12.209  12.419  14.401
76261SOL    HW230681  12.296  12.295  14.397
76262SOL     OW30682   0.552   4.385  13.021
76262SOL    HW130683   0.639   4.373  12.984
76262SOL    HW230684   0.511   4.299  13.014
76263SOL     OW30685   0.155   2.307   9.817
76263SOL    HW130686   0.098   2.263   9.754
76263SOL    HW230687   0.115   2.291   9.902
76264SOL     OW30688   2.927  13.779  11.374
76264SOL    HW130689   2.969  13.798  11.290
76264SOL    HW230690   2.995  13.739  11.427
76265SOL     OW30691   8.580   4.507  11.121
76265SOL    HW130692   8.641   4.581  11.115
76265SOL    HW230693   8.615   4.442  11.060
76266SOL     OW30694   6.072   5.927  12.309
76266SOL    HW130695   5.994   5.871  12.310
76266SOL    HW230696   6.054   5.994  12.376
76267SOL     OW30697   0.250   3.220   8.211
76267SOL    HW130698   0.289   3.159   8.149
76267SOL    HW230699   0.275   3.185   8.297
76268SOL     OW30700   6.376   0.045   7.149
76268SOL    HW130701   6.437   0.105   7.192
76268SOL    HW230702   6.380  14.834   7.201
76269SOL     OW30703   0.583   0.277  12.790
76269SOL    HW130704   0.539   0.351  12.831
76269SOL    HW230705   0.674   0.305  12.781
76270SOL     OW30706   2.097   2.283  14.765
76270SOL    HW130707   2.090   2.372  14.800
76270SOL    HW230708   2.043   2.230  14.824
76271SOL     OW30709   8.418   2.415   1.333
76271SOL    HW130710   8.509   2.388   1.318
76271SOL    HW230711   8.422   2.470   1.411
76272SOL     OW30712   1.315  12.984   3.480
76272SOL    HW130713   1.344  12.973   3.389
76272SOL    HW230714   1.271  13.069   3.482
76273SOL     OW30715  11.255   5.209  13.603
76273SOL    HW130716  11.269   5.243  13.514
76273SOL    HW230717  11.225   5.119  13.589
76274SOL     OW30718   5.721   9.149   8.505
76274SOL    HW130719   5.701   9.140   8.411
76274SOL    HW230720   5.802   9.099   8.517
76275SOL     OW30721   3.264  10.067  13.083
76275SOL    HW130722   3.306  10.061  13.169
76275SOL    HW230723   3.334  10.096  13.024
76276SOL     OW30724   3.583  14.309   3.374
76276SOL    HW130725   3.624  14.329   3.459
76276SOL    HW230726   3.636  14.355   3.310
76277SOL     OW30727   6.659  10.242  11.729
76277SOL    HW130728   6.585  10.212  11.676
76277SOL    HW230729   6.644  10.203  11.814
76278SOL     OW30730   1.355  13.595  10.352
76278SOL    HW130731   1.434  13.616  10.304
76278SOL    HW230732   1.287  13.648  10.311
76279SOL     OW30733   7.308  11.388   8.556
76279SOL    HW130734   7.226  11.411   8.512
76279SOL    HW230735   7.293  11.409   8.648
76280SOL     OW30736   6.863   5.077  12.757
76280SOL    HW130737   6.927   5.091  12.827
76280SOL    HW230738   6.778   5.089  12.800
76281SOL     OW30739  10.099  11.485   2.753
76281SOL    HW130740  10.044  11.558   2.725
76281SOL    HW230741  10.045  11.407   2.737
76282SOL     OW30742   4.881   4.448   6.454
76282SOL    HW130743   4.848   4.383   6.392
76282SOL    HW230744   4.975   4.429   6.461
76283SOL     OW30745   7.181  13.673   3.856
76283SOL    HW130746   7.121  13.598   3.859
76283SOL    HW230747   7.216  13.679   3.944
76284SOL     OW30748   2.221   5.920   7.329
76284SOL    HW130749   2.153   5.957   7.272
76284SOL    HW230750   2.300   5.968   7.307
76285SOL     OW30751   8.755   9.308   4.146
76285SOL    HW130752   8.787   9.232   4.097
76285SOL    HW230753   8.793   9.297   4.233
76286SOL     OW30754   0.051   1.992   7.254
76286SOL    HW130755   0.011   1.919   7.207
76286SOL    HW230756   0.140   1.997   7.220
76287SOL     OW30757   9.159   9.249  13.590
76287SOL    HW130758   9.211   9.278  13.516
76287SOL    HW230759   9.142   9.156  13.573
76288SOL     OW30760   6.354   0.722  14.469
76288SOL    HW130761   6.393   0.781  14.534
76288SOL    HW230762   6.262   0.714  14.495
76289SOL     OW30763   8.191   0.514  10.649
76289SOL    HW130764   8.276   0.537  10.612
76289SOL    HW230765   8.127   0.555  10.591
76290SOL     OW30766  14.862   6.662  14.638
76290SOL    HW130767  14.818   6.587  14.598
76290SOL    HW230768   0.083   6.632  14.651
76291SOL     OW30769   1.767   6.963   5.303
76291SOL    HW130770   1.804   6.915   5.229
76291SOL    HW230771   1.724   7.039   5.264
76292SOL     OW30772   8.675   4.845  12.647
76292SOL    HW130773   8.626   4.809  12.573
76292SOL    HW230774   8.766   4.821  12.629
76293SOL     OW30775   7.387  13.616   8.244
76293SOL    HW130776   7.349  13.534   8.276
76293SOL    HW230777   7.312  13.665   8.209
76294SOL     OW30778  11.738   8.706   5.556
76294SOL    HW130779  11.685   8.669   5.626
76294SOL    HW230780  11.737   8.640   5.487
76295SOL     OW30781   0.075   1.795  14.603
76295SOL    HW130782   0.161   1.799  14.645
76295SOL    HW230783   0.092   1.761  14.515
76296SOL     OW30784   8.546   3.455   1.684
76296SOL    HW130785   8.545   3.550   1.697
76296SOL    HW230786   8.483   3.440   1.613
76297SOL     OW30787   0.198   3.917   6.329
76297SOL    HW130788   0.173   3.893   6.240
76297SOL    HW230789   0.201   3.834   6.376
76298SOL     OW30790   4.224  11.016   5.385
76298SOL    HW130791   4.160  11.022   5.314
76298SOL    HW230792   4.184  11.062   5.459
76299SOL     OW30793  13.211   9.448   7.295
76299SOL    HW130794  13.289   9.393   7.297
76299SOL    HW230795  13.229   9.512   7.226
76300SOL     OW30796  12.922   7.957   1.946
76300SOL    HW130797  12.911   8.021   2.016
76300SOL    HW230798  12.861   7.887   1.967
76301SOL     OW30799   6.096  14.261   1.121
76301SOL    HW130800   6.134  14.345   1.147
76301SOL    HW230801   6.002  14.273   1.132
76302SOL     OW30802  11.874  11.996   4.581
76302SOL    HW130803  11.845  12.043   4.503
76302SOL    HW230804  11.808  12.016   4.648
76303SOL     OW30805   0.950   1.112   8.165
76303SOL    HW130806   0.884   1.051   8.130
76303SOL    HW230807   1.020   1.055   8.198
76304SOL     OW30808   8.281   5.723   5.996
76304SOL    HW130809   8.326   5.671   5.929
76304SOL    HW230810   8.327   5.703   6.077
76305SOL     OW30811  10.294  10.947  10.214
76305SOL    HW130812  10.233  10.996  10.270
76305SOL    HW230813  10.248  10.865  10.195
76306SOL     OW30814   3.216   0.849   7.434
76306SOL    HW130815   3.238   0.846   7.527
76306SOL    HW230816   3.151   0.918   7.427
76307SOL     OW30817   1.341   8.671   5.227
76307SOL    HW130818   1.405   8.619   5.179
76307SOL    HW230819   1.262   8.667   5.173
76308SOL     OW30820   9.357   1.156  14.221
76308SOL    HW130821   9.358   1.246  14.254
76308SOL    HW230822   9.272   1.122  14.247
76309SOL     OW30823   6.570  11.389   8.136
76309SOL    HW130824   6.605  11.313   8.089
76309SOL    HW230825   6.608  11.464   8.090
76310SOL     OW30826  12.851  10.887   3.049
76310SOL    HW130827  12.935  10.855   3.083
76310SOL    HW230828  12.860  10.982   3.049
76311SOL     OW30829   8.120   3.154   7.341
76311SOL    HW130830   8.118   3.241   7.300
76311SOL    HW230831   8.058   3.102   7.290
76312SOL     OW30832   2.974   6.245   0.998
76312SOL    HW130833   2.912   6.217   1.066
76312SOL    HW230834   2.939   6.208   0.917
76313SOL     OW30835  14.481   7.745  11.636
76313SOL    HW130836  14.500   7.725  11.727
76313SOL    HW230837  14.412   7.812  11.640
76314SOL     OW30838  14.459   6.687   8.937
76314SOL    HW130839  14.497   6.758   8.988
76314SOL    HW230840  14.380   6.724   8.899
76315SOL     OW30841  12.423   0.864   9.771
76315SOL    HW130842  12.446   0.956   9.783
76315SOL    HW230843  12.392   0.859   9.680
76316SOL     OW30844  10.526   3.538  13.625
76316SOL    HW130845  10.608   3.488  13.630
76316SOL    HW230846  10.465   3.490  13.681
76317SOL     OW30847   9.379   0.115  14.750
76317SOL    HW130848   9.388   0.064  14.670
76317SOL    HW230849   9.440   0.073  14.812
76318SOL     OW30850   9.171   8.761  10.548
76318SOL    HW130851   9.214   8.760  10.462
76318SOL    HW230852   9.191   8.676  10.586
76319SOL     OW30853  13.862   4.749   7.193
76319SOL    HW130854  13.876   4.822   7.133
76319SOL    HW230855  13.767   4.747   7.206
76320SOL     OW30856   3.318   1.185  13.346
76320SOL    HW130857   3.338   1.199  13.254
76320SOL    HW230858   3.354   1.262  13.391
76321SOL     OW30859  11.586   0.262  10.221
76321SOL    HW130860  11.521   0.220  10.165
76321SOL    HW230861  11.541   0.337  10.259
76322SOL     OW30862  10.004   9.304   0.203
76322SOL    HW130863   9.990   9.211   0.219
76322SOL    HW230864  10.043   9.307   0.115
76323SOL     OW30865   7.290  12.120   2.582
76323SOL    HW130866   7.296  12.169   2.499
76323SOL    HW230867   7.330  12.035   2.562
76324SOL     OW30868   4.898   1.175  12.199
76324SOL    HW130869   4.806   1.201  12.191
76324SOL    HW230870   4.937   1.242  12.255
76325SOL     OW30871   0.364   6.095   5.840
76325SOL    HW130872   0.379   6.182   5.802
76325SOL    HW230873   0.405   6.035   5.778
76326SOL     OW30874   8.862   1.973   1.251
76326SOL    HW130875   8.804   1.916   1.201
76326SOL    HW230876   8.884   2.044   1.190
76327SOL     OW30877   3.372   5.426   7.776
76327SOL    HW130878   3.377   5.334   7.801
76327SOL    HW230879   3.427   5.432   7.698
76328SOL     OW30880   0.513  10.046   3.796
76328SOL    HW130881   0.502  10.112   3.865
76328SOL    HW230882   0.595  10.002   3.817
76329SOL     OW30883   7.573   4.512   0.879
76329SOL    HW130884   7.497   4.548   0.924
76329SOL    HW230885   7.645   4.569   0.904
76330SOL     OW30886  12.655  11.648  12.501
76330SOL    HW130887  12.671  11.637  12.408
76330SOL    HW230888  12.694  11.570  12.542
76331SOL     OW30889   1.923  11.782  14.544
76331SOL    HW130890   1.988  11.813  14.607
76331SOL    HW230891   1.865  11.726  14.596
76332SOL     OW30892   1.977   5.412  12.044
76332SOL    HW130893   1.902   5.471  12.055
76332SOL    HW230894   2.011   5.433  11.956
76333SOL     OW30895   3.392  13.972   7.651
76333SOL    HW130896   3.384  14.009   7.564
76333SOL    HW230897   3.456  14.028   7.695
76334SOL     OW30898   5.124   5.144   7.891
76334SOL    HW130899   5.037   5.138   7.852
76334SOL    HW230900   5.169   5.211   7.839
76335SOL     OW30901   1.419   6.860  13.112
76335SOL    HW130902   1.467   6.819  13.040
76335SOL    HW230903   1.407   6.951  13.085
76336SOL     OW30904  13.508  10.416   2.413
76336SOL    HW130905  13.598  10.394   2.388
76336SOL    HW230906  13.465  10.331   2.425
76337SOL     OW30907   8.201   3.513   8.215
76337SOL    HW130908   8.198   3.606   8.235
76337SOL    HW230909   8.232   3.472   8.296
76338SOL     OW30910  12.945   2.800   4.929
76338SOL    HW130911  12.858   2.759   4.930
76338SOL    HW230912  12.932   2.882   4.882
76339SOL     OW30913  13.427   4.185  13.273
76339SOL    HW130914  13.398   4.148  13.189
76339SOL    HW230915  13.496   4.246  13.249
76340SOL     OW30916   7.262   6.014   7.952
76340SOL    HW130917   7.307   6.020   7.868
76340SOL    HW230918   7.169   6.013   7.929
76341SOL     OW30919   0.872   2.239  11.210
76341SOL    HW130920   0.866   2.308  11.277
76341SOL    HW230921   0.869   2.287  11.127
76342SOL     OW30922   7.124   3.912   9.469
76342SOL    HW130923   7.142   3.962   9.389
76342SOL    HW230924   7.076   3.974   9.525
76343SOL     OW30925   1.876  13.047   4.521
76343SOL    HW130926   1.794  13.096   4.517
76343SOL    HW230927   1.889  13.028   4.613
76344SOL     OW30928   6.111  10.307  14.019
76344SOL    HW130929   6.142  10.375  13.959
76344SOL    HW230930   6.153  10.330  14.103
76345SOL     OW30931  12.530   8.813  11.163
76345SOL    HW130932  12.617   8.791  11.196
76345SOL    HW230933  12.512   8.899  11.201
76346SOL     OW30934   9.661  13.109   8.626
76346SOL    HW130935   9.570  13.131   8.645
76346SOL    HW230936   9.697  13.188   8.585
76347SOL     OW30937   4.344   1.622  14.666
76347SOL    HW130938   4.420   1.573  14.699
76347SOL    HW230939   4.361   1.712  14.691
76348SOL     OW30940   9.972   7.529   3.308
76348SOL    HW130941   9.979   7.545   3.214
76348SOL    HW230942   9.879   7.513   3.324
76349SOL     OW30943   3.930   3.999   3.891
76349SOL    HW130944   3.946   4.087   3.856
76349SOL    HW230945   3.844   3.975   3.856
76350SOL     OW30946   0.786   2.248   7.925
76350SOL    HW130947   0.733   2.195   7.865
76350SOL    HW230948   0.759   2.221   8.012
76351SOL     OW30949  12.839   0.232  14.764
76351SOL    HW130950  12.846   0.165  14.696
76351SOL    HW230951  12.745   0.251  14.770
76352SOL     OW30952   8.668   9.628   8.640
76352SOL    HW130953   8.648   9.620   8.733
76352SOL    HW230954   8.760   9.601   8.633
76353SOL     OW30955   3.750   0.980  13.163
76353SOL    HW130956   3.795   0.964  13.245
76353SOL    HW230957   3.726   0.893  13.131
76354SOL     OW30958   8.528   8.301   3.252
76354SOL    HW130959   8.473   8.347   3.315
76354SOL    HW230960   8.593   8.255   3.306
76355SOL     OW30961   5.459   3.602   4.059
76355SOL    HW130962   5.366   3.579   4.059
76355SOL    HW230963   5.463   3.686   4.013
76356SOL     OW30964  14.599  12.957  13.753
76356SOL    HW130965  14.519  12.908  13.774
76356SOL    HW230966  14.608  12.949  13.659
76357SOL     OW30967  11.719   5.455   6.544
76357SOL    HW130968  11.666   5.463   6.465
76357SOL    HW230969  11.665   5.493   6.613
76358SOL     OW30970  11.165   0.660   3.196
76358SOL    HW130971  11.236   0.723   3.213
76358SOL    HW230972  11.105   0.671   3.270
76359SOL     OW30973  11.865   6.786  14.146
76359SOL    HW130974  11.841   6.731  14.072
76359SOL    HW230975  11.821   6.746  14.221
76360SOL     OW30976   2.309   7.235   2.036
76360SOL    HW130977   2.395   7.257   1.999
76360SOL    HW230978   2.279   7.160   1.984
76361SOL     OW30979   3.896   2.016   6.028
76361SOL    HW130980   3.855   2.093   5.988
76361SOL    HW230981   3.909   2.041   6.120
76362SOL     OW30982   3.307   6.313   9.023
76362SOL    HW130983   3.385   6.366   9.005
76362SOL    HW230984   3.244   6.339   8.956
76363SOL     OW30985   0.573   3.981   4.734
76363SOL    HW130986   0.608   3.900   4.696
76363SOL    HW230987   0.616   4.051   4.684
76364SOL     OW30988  13.656  13.811   6.288
76364SOL    HW130989  13.681  13.897   6.253
76364SOL    HW230990  13.560  13.811   6.285
76365SOL     OW30991  11.923  10.764   0.092
76365SOL    HW130992  11.963  10.711   0.161
76365SOL    HW230993  11.856  10.707   0.054
76366SOL     OW30994   5.528  13.008   9.814
76366SOL    HW130995   5.437  13.037   9.819
76366SOL    HW230996   5.575  13.083   9.776
76367SOL     OW30997   9.331   3.986   8.767
76367SOL    HW130998   9.287   3.901   8.768
76367SOL    HW230999   9.261   4.050   8.760
76368SOL     OW31000   7.137   7.201  10.592
76368SOL    HW131001   7.120   7.130  10.653
76368SOL    HW231002   7.053   7.218  10.550
76369SOL     OW31003  10.888   0.223   6.630
76369SOL    HW131004  10.794   0.232   6.646
76369SOL    HW231005  10.908   0.132   6.653
76370SOL     OW31006   7.438   8.222  14.389
76370SOL    HW131007   7.515   8.238  14.335
76370SOL    HW231008   7.444   8.129  14.412
76371SOL     OW31009   9.832   9.736  14.800
76371SOL    HW131010   9.881   9.746  14.719
76371SOL    HW231011   9.894   9.759  14.869
76372SOL     OW31012   2.588   5.545  13.578
76372SOL    HW131013   2.522   5.564  13.512
76372SOL    HW231014   2.561   5.462  13.616
76373SOL     OW31015   1.993   6.500   7.381
76373SOL    HW131016   1.917   6.557   7.391
76373SOL    HW231017   2.024   6.485   7.470
76374SOL     OW31018   0.771   7.124   3.692
76374SOL    HW131019   0.831   7.098   3.761
76374SOL    HW231020   0.706   7.054   3.690
76375SOL     OW31021   4.866   6.486   9.366
76375SOL    HW131022   4.867   6.572   9.325
76375SOL    HW231023   4.946   6.443   9.336
76376SOL     OW31024   9.337  14.138   9.702
76376SOL    HW131025   9.403  14.092   9.650
76376SOL    HW231026   9.386  14.180   9.772
76377SOL     OW31027   5.919   7.172   5.471
76377SOL    HW131028   5.964   7.196   5.390
76377SOL    HW231029   5.828   7.158   5.445
76378SOL     OW31030   8.340  10.661  13.194
76378SOL    HW131031   8.376  10.731  13.248
76378SOL    HW231032   8.309  10.704  13.114
76379SOL     OW31033  10.050  14.260   8.470
76379SOL    HW131034  10.097  14.307   8.539
76379SOL    HW231035   9.959  14.258   8.500
76380SOL     OW31036   4.856   1.440   0.152
76380SOL    HW131037   4.915   1.413   0.222
76380SOL    HW231038   4.778   1.472   0.198
76381SOL     OW31039  12.805   2.577  13.076
76381SOL    HW131040  12.833   2.531  12.998
76381SOL    HW231041  12.751   2.649  13.043
76382SOL     OW31042   3.496   9.912  13.657
76382SOL    HW131043   3.480   9.827  13.617
76382SOL    HW231044   3.546   9.893  13.736
76383SOL     OW31045   9.810  10.527   4.761
76383SOL    HW131046   9.819  10.603   4.704
76383SOL    HW231047   9.876  10.540   4.829
76384SOL     OW31048  10.209  14.051   6.655
76384SOL    HW131049  10.177  14.100   6.731
76384SOL    HW231050  10.273  13.991   6.691
76385SOL     OW31051  10.824  10.224  11.832
76385SOL    HW131052  10.770  10.302  11.819
76385SOL    HW231053  10.860  10.235  11.920
76386SOL     OW31054  14.199   4.555   4.227
76386SOL    HW131055  14.265   4.498   4.188
76386SOL    HW231056  14.220   4.642   4.194
76387SOL     OW31057   4.293  12.749  12.507
76387SOL    HW131058   4.260  12.774  12.593
76387SOL    HW231059   4.386  12.771  12.509
76388SOL     OW31060   5.492   2.103  13.654
76388SOL    HW131061   5.559   2.120  13.720
76388SOL    HW231062   5.409   2.121  13.698
76389SOL     OW31063   2.551   4.668   2.284
76389SOL    HW131064   2.618   4.600   2.295
76389SOL    HW231065   2.585   4.725   2.215
76390SOL     OW31066   5.552   1.792   3.389
76390SOL    HW131067   5.567   1.739   3.310
76390SOL    HW231068   5.457   1.799   3.396
76391SOL     OW31069  10.355   1.443   2.666
76391SOL    HW131070  10.436   1.420   2.711
76391SOL    HW231071  10.371   1.532   2.633
76392SOL     OW31072   9.512  12.186   3.185
76392SOL    HW131073   9.538  12.094   3.178
76392SOL    HW231074   9.525  12.208   3.277
76393SOL     OW31075  11.200  10.551   6.055
76393SOL    HW131076  11.189  10.555   5.960
76393SOL    HW231077  11.136  10.614   6.089
76394SOL     OW31078   4.488  14.246   4.049
76394SOL    HW131079   4.481  14.327   4.100
76394SOL    HW231080   4.400  14.208   4.052
76395SOL     OW31081   5.330   8.508   8.019
76395SOL    HW131082   5.406   8.530   7.965
76395SOL    HW231083   5.366   8.459   8.093
76396SOL     OW31084   5.154   4.584   3.832
76396SOL    HW131085   5.066   4.607   3.802
76396SOL    HW231086   5.202   4.566   3.752
76397SOL     OW31087   2.042   6.262   1.016
76397SOL    HW131088   2.104   6.317   1.062
76397SOL    HW231089   2.063   6.173   1.044
76398SOL     OW31090  11.172  11.145  11.858
76398SOL    HW131091  11.233  11.208  11.818
76398SOL    HW231092  11.142  11.189  11.937
76399SOL     OW31093   2.889  13.320   1.364
76399SOL    HW131094   2.862  13.264   1.291
76399SOL    HW231095   2.885  13.409   1.328
76400SOL     OW31096   3.244  13.358   6.166
76400SOL    HW131097   3.328  13.372   6.210
76400SOL    HW231098   3.213  13.446   6.145
76401SOL     OW31099   5.116   6.133   6.388
76401SOL    HW131100   5.068   6.162   6.311
76401SOL    HW231101   5.190   6.082   6.353
76402SOL     OW31102  11.884  14.678   3.736
76402SOL    HW131103  11.882  14.645   3.647
76402SOL    HW231104  11.944  14.753   3.733
76403SOL     OW31105   9.612   4.917   7.102
76403SOL    HW131106   9.640   4.863   7.028
76403SOL    HW231107   9.616   4.859   7.178
76404SOL     OW31108   2.585  12.526  13.805
76404SOL    HW131109   2.621  12.528  13.716
76404SOL    HW231110   2.494  12.551  13.794
76405SOL     OW31111   3.564  10.334   0.434
76405SOL    HW131112   3.512  10.277   0.491
76405SOL    HW231113   3.512  10.413   0.424
76406SOL     OW31114   0.102   2.786  11.593
76406SOL    HW131115   0.149   2.704  11.575
76406SOL    HW231116   0.157   2.855  11.557
76407SOL     OW31117   2.226   9.357   7.936
76407SOL    HW131118   2.291   9.370   7.867
76407SOL    HW231119   2.211   9.262   7.938
76408SOL     OW31120   6.372   9.952   9.483
76408SOL    HW131121   6.433  10.020   9.513
76408SOL    HW231122   6.344   9.908   9.563
76409SOL     OW31123   8.460  12.075   8.799
76409SOL    HW131124   8.404  12.119   8.735
76409SOL    HW231125   8.401  12.047   8.868
76410SOL     OW31126   7.655   7.209   1.787
76410SOL    HW131127   7.637   7.117   1.769
76410SOL    HW231128   7.738   7.226   1.742
76411SOL     OW31129   9.861   1.742   9.734
76411SOL    HW131130   9.778   1.739   9.782
76411SOL    HW231131   9.879   1.650   9.713
76412SOL     OW31132  11.744   7.599   3.117
76412SOL    HW131133  11.698   7.516   3.108
76412SOL    HW231134  11.788   7.594   3.202
76413SOL     OW31135   4.365   9.352  13.305
76413SOL    HW131136   4.302   9.380  13.372
76413SOL    HW231137   4.374   9.428  13.248
76414SOL     OW31138   4.635   8.181   3.141
76414SOL    HW131139   4.711   8.191   3.199
76414SOL    HW231140   4.620   8.269   3.107
76415SOL     OW31141  11.818   9.735  10.846
76415SOL    HW131142  11.744   9.787  10.814
76415SOL    HW231143  11.871   9.719  10.769
76416SOL     OW31144  12.285   8.490   6.376
76416SOL    HW131145  12.297   8.439   6.456
76416SOL    HW231146  12.303   8.581   6.402
76417SOL     OW31147   7.571   0.361   3.258
76417SOL    HW131148   7.647   0.390   3.207
76417SOL    HW231149   7.585   0.398   3.345
76418SOL     OW31150   8.950   1.826   7.762
76418SOL    HW131151   8.890   1.781   7.822
76418SOL    HW231152   8.973   1.759   7.698
76419SOL     OW31153   3.751   9.094  10.874
76419SOL    HW131154   3.747   8.998  10.878
76419SOL    HW231155   3.697   9.116  10.798
76420SOL     OW31156  14.507  12.778  14.667
76420SOL    HW131157  14.522  12.865  14.631
76420SOL    HW231158  14.577  12.724  14.629
76421SOL     OW31159   0.665  13.178  14.679
76421SOL    HW131160   0.589  13.190  14.735
76421SOL    HW231161   0.706  13.265  14.676
76422SOL     OW31162   0.035   3.808   6.092
76422SOL    HW131163  14.844   3.875   6.059
76422SOL    HW231164   0.005   3.728   6.049
76423SOL     OW31165   6.946  12.076   6.010
76423SOL    HW131166   6.955  12.110   5.921
76423SOL    HW231167   6.895  11.996   5.999
76424SOL     OW31168  14.714  13.280  10.233
76424SOL    HW131169  14.634  13.282  10.181
76424SOL    HW231170  14.744  13.371  10.235
76425SOL     OW31171   8.232  11.555   9.209
76425SOL    HW131172   8.310  11.580   9.259
76425SOL    HW231173   8.266  11.523   9.125
76426SOL     OW31174   9.551   9.205   5.379
76426SOL    HW131175   9.534   9.167   5.465
76426SOL    HW231176   9.481   9.269   5.366
76427SOL     OW31177  11.586  14.595   0.398
76427SOL    HW131178  11.567  14.689   0.388
76427SOL    HW231179  11.501  14.552   0.384
76428SOL     OW31180   5.831  12.450   0.271
76428SOL    HW131181   5.904  12.421   0.216
76428SOL    HW231182   5.870  12.464   0.357
76429SOL     OW31183   2.329   1.949   2.290
76429SOL    HW131184   2.253   1.934   2.346
76429SOL    HW231185   2.297   1.933   2.201
76430SOL     OW31186  12.923  12.593  14.084
76430SOL    HW131187  12.921  12.613  13.990
76430SOL    HW231188  13.013  12.569  14.101
76431SOL     OW31189   8.802   1.910   8.371
76431SOL    HW131190   8.862   1.946   8.306
76431SOL    HW231191   8.726   1.968   8.369
76432SOL     OW31192   1.859   7.679   7.282
76432SOL    HW131193   1.776   7.694   7.235
76432SOL    HW231194   1.833   7.666   7.373
76433SOL     OW31195   8.702  14.204   6.131
76433SOL    HW131196   8.759  14.263   6.181
76433SOL    HW231197   8.613  14.228   6.158
76434SOL     OW31198   4.530   0.918   7.482
76434SOL    HW131199   4.542   0.941   7.390
76434SOL    HW231200   4.527   1.003   7.528
76435SOL     OW31201   6.829   6.119   5.113
76435SOL    HW131202   6.777   6.039   5.099
76435SOL    HW231203   6.863   6.141   5.027
76436SOL     OW31204  11.740  12.337   6.716
76436SOL    HW131205  11.714  12.294   6.797
76436SOL    HW231206  11.662  12.333   6.660
76437SOL     OW31207  13.836  11.793  10.704
76437SOL    HW131208  13.851  11.699  10.696
76437SOL    HW231209  13.898  11.833  10.643
76438SOL     OW31210   2.133  12.401   6.352
76438SOL    HW131211   2.057  12.420   6.297
76438SOL    HW231212   2.103  12.417   6.441
76439SOL     OW31213   0.624  11.912  12.580
76439SOL    HW131214   0.665  11.988  12.540
76439SOL    HW231215   0.531  11.923  12.564
76440SOL     OW31216   1.440   7.156   4.776
76440SOL    HW131217   1.471   7.110   4.698
76440SOL    HW231218   1.464   7.098   4.849
76441SOL     OW31219  13.761   2.813   6.131
76441SOL    HW131220  13.727   2.805   6.220
76441SOL    HW231221  13.824   2.885   6.135
76442SOL     OW31222   7.850  11.336   9.498
76442SOL    HW131223   7.900  11.363   9.576
76442SOL    HW231224   7.864  11.241   9.492
76443SOL     OW31225  10.136   3.586   7.592
76443SOL    HW131226  10.134   3.556   7.683
76443SOL    HW231227  10.078   3.526   7.545
76444SOL     OW31228  13.615  10.494   7.756
76444SOL    HW131229  13.579  10.470   7.670
76444SOL    HW231230  13.641  10.586   7.747
76445SOL     OW31231  12.938   7.527   1.338
76445SOL    HW131232  13.024   7.564   1.360
76445SOL    HW231233  12.915   7.474   1.415
76446SOL     OW31234   5.425   1.323   6.083
76446SOL    HW131235   5.368   1.397   6.063
76446SOL    HW231236   5.421   1.315   6.179
76447SOL     OW31237  10.889  10.106  13.771
76447SOL    HW131238  10.798  10.085  13.787
76447SOL    HW231239  10.938  10.043  13.823
76448SOL     OW31240  10.033   0.795   4.637
76448SOL    HW131241   9.961   0.823   4.581
76448SOL    HW231242  10.032   0.856   4.710
76449SOL     OW31243  13.310   1.233  12.462
76449SOL    HW131244  13.240   1.182  12.423
76449SOL    HW231245  13.390   1.198  12.423
76450SOL     OW31246  13.574  13.237  14.394
76450SOL    HW131247  13.616  13.174  14.453
76450SOL    HW231248  13.592  13.323  14.433
76451SOL     OW31249   6.519   4.585   0.566
76451SOL    HW131250   6.536   4.652   0.501
76451SOL    HW231251   6.563   4.617   0.645
76452SOL     OW31252   7.739   4.349   2.786
76452SOL    HW131253   7.728   4.318   2.696
76452SOL    HW231254   7.661   4.317   2.832
76453SOL     OW31255   0.941   4.065   3.912
76453SOL    HW131256   1.032   4.094   3.913
76453SOL    HW231257   0.945   3.973   3.885
76454SOL     OW31258   5.657   4.691   9.590
76454SOL    HW131259   5.747   4.687   9.624
76454SOL    HW231260   5.641   4.603   9.556
76455SOL     OW31261   5.872   8.951  13.152
76455SOL    HW131262   5.789   8.968  13.109
76455SOL    HW231263   5.938   8.963  13.083
76456SOL     OW31264   9.844   1.084   9.613
76456SOL    HW131265   9.875   1.100   9.525
76456SOL    HW231266   9.855   1.167   9.659
76457SOL     OW31267   2.092  10.508   0.354
76457SOL    HW131268   2.058  10.595   0.377
76457SOL    HW231269   2.077  10.501   0.260
76458SOL     OW31270   5.811  10.494   7.779
76458SOL    HW131271   5.831  10.477   7.687
76458SOL    HW231272   5.894  10.485   7.824
76459SOL     OW31273   1.241  14.363   0.570
76459SOL    HW131274   1.295  14.338   0.644
76459SOL    HW231275   1.269  14.305   0.499
76460SOL     OW31276   7.277  14.029  14.286
76460SOL    HW131277   7.182  14.033  14.289
76460SOL    HW231278   7.306  14.113  14.322
76461SOL     OW31279  13.212   0.962   2.564
76461SOL    HW131280  13.249   0.944   2.478
76461SOL    HW231281  13.164   1.044   2.553
76462SOL     OW31282   3.093  14.721   0.928
76462SOL    HW131283   3.100  14.743   0.835
76462SOL    HW231284   3.049  14.797   0.967
76463SOL     OW31285   9.624   3.980  13.301
76463SOL    HW131286   9.679   4.058  13.302
76463SOL    HW231287   9.616   3.958  13.209
76464SOL     OW31288   4.954  12.651   4.203
76464SOL    HW131289   5.004  12.570   4.209
76464SOL    HW231290   5.015  12.715   4.166
76465SOL     OW31291  13.394   4.411   7.242
76465SOL    HW131292  13.445   4.395   7.163
76465SOL    HW231293  13.328   4.342   7.242
76466SOL     OW31294  11.567   7.030  11.282
76466SOL    HW131295  11.474   7.011  11.300
76466SOL    HW231296  11.591   7.094  11.350
76467SOL     OW31297  11.408   2.729  11.591
76467SOL    HW131298  11.489   2.743  11.541
76467SOL    HW231299  11.377   2.817  11.612
76468SOL     OW31300  11.015  13.330   6.789
76468SOL    HW131301  11.051  13.403   6.739
76468SOL    HW231302  11.066  13.254   6.761
76469SOL     OW31303   0.791   5.017   0.280
76469SOL    HW131304   0.810   4.931   0.243
76469SOL    HW231305   0.713   5.004   0.333
76470SOL     OW31306  11.173   2.809   7.696
76470SOL    HW131307  11.160   2.720   7.729
76470SOL    HW231308  11.087   2.850   7.700
76471SOL     OW31309   5.241   9.791   6.581
76471SOL    HW131310   5.164   9.839   6.611
76471SOL    HW231311   5.225   9.775   6.488
76472SOL     OW31312  12.818  13.451  12.428
76472SOL    HW131313  12.829  13.369  12.379
76472SOL    HW231314  12.820  13.519  12.361
76473SOL     OW31315  10.064  13.722   5.041
76473SOL    HW131316  10.091  13.752   5.127
76473SOL    HW231317  10.078  13.628   5.043
76474SOL     OW31318  12.082  13.913   9.706
76474SOL    HW131319  12.004  13.939   9.755
76474SOL    HW231320  12.104  13.827   9.740
76475SOL     OW31321   1.520   2.260  13.737
76475SOL    HW131322   1.439   2.230  13.697
76475SOL    HW231323   1.517   2.355  13.731
76476SOL     OW31324   2.306   8.659   9.702
76476SOL    HW131325   2.269   8.595   9.642
76476SOL    HW231326   2.369   8.609   9.755
76477SOL     OW31327   1.803  12.014  11.089
76477SOL    HW131328   1.798  12.050  11.000
76477SOL    HW231329   1.820  12.091  11.144
76478SOL     OW31330   3.673   4.344   4.208
76478SOL    HW131331   3.654   4.383   4.293
76478SOL    HW231332   3.602   4.281   4.194
76479SOL     OW31333   0.602  10.917   4.076
76479SOL    HW131334   0.559  10.992   4.116
76479SOL    HW231335   0.654  10.953   4.005
76480SOL     OW31336   0.218   2.866  14.402
76480SOL    HW131337   0.151   2.913  14.353
76480SOL    HW231338   0.293   2.926  14.402
76481SOL     OW31339  11.804   3.680   1.608
76481SOL    HW131340  11.779   3.618   1.676
76481SOL    HW231341  11.866   3.739   1.651
76482SOL     OW31342   4.911   7.349   5.492
76482SOL    HW131343   4.949   7.293   5.561
76482SOL    HW231344   4.861   7.415   5.540
76483SOL     OW31345  14.744  13.382  13.114
76483SOL    HW131346  14.726  13.472  13.088
76483SOL    HW231347  14.657  13.341  13.118
76484SOL     OW31348  10.232   0.378  11.008
76484SOL    HW131349  10.163   0.424  10.960
76484SOL    HW231350  10.310   0.431  10.994
76485SOL     OW31351   8.083   8.729  14.694
76485SOL    HW131352   8.089   8.758  14.603
76485SOL    HW231353   8.015   8.785  14.733
76486SOL     OW31354  10.335   6.112   1.898
76486SOL    HW131355  10.348   6.051   1.971
76486SOL    HW231356  10.244   6.140   1.907
76487SOL     OW31357   0.673  10.244   8.283
76487SOL    HW131358   0.694  10.210   8.369
76487SOL    HW231359   0.582  10.220   8.269
76488SOL     OW31360  14.269  11.067   2.523
76488SOL    HW131361  14.258  11.152   2.482
76488SOL    HW231362  14.298  11.009   2.453
76489SOL     OW31363   3.130   8.119  12.237
76489SOL    HW131364   3.069   8.129  12.310
76489SOL    HW231365   3.216   8.130  12.277
76490SOL     OW31366  11.074   6.475   5.077
76490SOL    HW131367  11.011   6.441   5.141
76490SOL    HW231368  11.024   6.481   4.996
76491SOL     OW31369   5.565   5.437   5.636
76491SOL    HW131370   5.612   5.383   5.700
76491SOL    HW231371   5.598   5.407   5.551
76492SOL     OW31372  10.222   2.972   0.362
76492SOL    HW131373  10.221   3.061   0.398
76492SOL    HW231374  10.176   2.979   0.278
76493SOL     OW31375   8.376   1.054   6.156
76493SOL    HW131376   8.463   1.076   6.191
76493SOL    HW231377   8.315   1.091   6.219
76494SOL     OW31378   2.764   7.019  12.193
76494SOL    HW131379   2.711   6.991  12.118
76494SOL    HW231380   2.779   7.113  12.179
76495SOL     OW31381  11.280   9.633   6.710
76495SOL    HW131382  11.306   9.661   6.798
76495SOL    HW231383  11.187   9.654   6.705
76496SOL     OW31384  11.611   1.721  14.414
76496SOL    HW131385  11.537   1.762  14.459
76496SOL    HW231386  11.688   1.745  14.466
76497SOL     OW31387   2.640   2.691  10.724
76497SOL    HW131388   2.619   2.732  10.640
76497SOL    HW231389   2.572   2.624  10.735
76498SOL     OW31390   1.512  11.773   0.987
76498SOL    HW131391   1.449  11.776   0.914
76498SOL    HW231392   1.471  11.713   1.050
76499SOL     OW31393  11.228   0.192   8.239
76499SOL    HW131394  11.151   0.233   8.199
76499SOL    HW231395  11.198   0.166   8.326
76500SOL     OW31396   1.382  13.355   3.229
76500SOL    HW131397   1.454  13.379   3.170
76500SOL    HW231398   1.395  13.410   3.306
76501SOL     OW31399   3.263   4.012  14.605
76501SOL    HW131400   3.334   4.030  14.666
76501SOL    HW231401   3.194   3.975  14.660
76502SOL     OW31402  10.193   0.525   1.640
76502SOL    HW131403  10.238   0.484   1.566
76502SOL    HW231404  10.256   0.523   1.711
76503SOL     OW31405  10.806  11.898  12.280
76503SOL    HW131406  10.795  11.967  12.345
76503SOL    HW231407  10.893  11.914  12.242
76504SOL     OW31408   4.242   0.826   3.376
76504SOL    HW131409   4.230   0.880   3.454
76504SOL    HW231410   4.159   0.779   3.367
76505SOL     OW31411  12.602   6.446   7.783
76505SOL    HW131412  12.630   6.410   7.867
76505SOL    HW231413  12.683   6.472   7.740
76506SOL     OW31414  10.307  11.028   8.747
76506SOL    HW131415  10.351  11.029   8.662
76506SOL    HW231416  10.224  11.073   8.732
76507SOL     OW31417  13.430  12.286   9.638
76507SOL    HW131418  13.416  12.237   9.720
76507SOL    HW231419  13.341  12.310   9.610
76508SOL     OW31420  14.311  13.137  13.951
76508SOL    HW131421  14.314  13.229  13.925
76508SOL    HW231422  14.304  13.138  14.046
76509SOL     OW31423  12.503   3.760   5.186
76509SOL    HW131424  12.469   3.830   5.243
76509SOL    HW231425  12.555   3.705   5.244
76510SOL     OW31426  10.340  12.884   2.727
76510SOL    HW131427  10.263  12.868   2.672
76510SOL    HW231428  10.354  12.802   2.773
76511SOL     OW31429   9.185   1.507  13.817
76511SOL    HW131430   9.254   1.504  13.883
76511SOL    HW231431   9.173   1.416  13.790
76512SOL     OW31432  13.322   8.446  11.937
76512SOL    HW131433  13.327   8.534  11.974
76512SOL    HW231434  13.229   8.432  11.921
76513SOL     OW31435   4.170   4.847  13.832
76513SOL    HW131436   4.134   4.824  13.746
76513SOL    HW231437   4.264   4.841  13.821
76514SOL     OW31438   9.022   7.540  13.762
76514SOL    HW131439   8.952   7.509  13.820
76514SOL    HW231440   9.046   7.463  13.710
76515SOL     OW31441  14.333   7.583   0.050
76515SOL    HW131442  14.253   7.633   0.063
76515SOL    HW231443  14.342   7.530   0.130
76516SOL     OW31444  10.024  10.466   9.900
76516SOL    HW131445   9.960  10.470   9.970
76516SOL    HW231446  10.029  10.373   9.876
76517SOL     OW31447   9.744   2.916   1.682
76517SOL    HW131448   9.723   2.966   1.761
76517SOL    HW231449   9.818   2.862   1.706
76518SOL     OW31450   0.142   7.604   5.097
76518SOL    HW131451   0.212   7.565   5.046
76518SOL    HW231452   0.072   7.538   5.097
76519SOL     OW31453   9.994   9.654   5.842
76519SOL    HW131454  10.033   9.651   5.929
76519SOL    HW231455   9.919   9.712   5.851
76520SOL     OW31456   1.207  11.198   7.248
76520SOL    HW131457   1.125  11.241   7.224
76520SOL    HW231458   1.257  11.195   7.166
76521SOL     OW31459   1.101  10.891   4.696
76521SOL    HW131460   1.101  10.919   4.605
76521SOL    HW231461   1.192  10.899   4.724
76522SOL     OW31462   7.750   0.743  13.210
76522SOL    HW131463   7.669   0.794  13.212
76522SOL    HW231464   7.815   0.801  13.172
76523SOL     OW31465   8.421   0.932   1.632
76523SOL    HW131466   8.327   0.946   1.619
76523SOL    HW231467   8.461   0.960   1.550
76524SOL     OW31468  12.497   0.742  12.859
76524SOL    HW131469  12.516   0.752  12.952
76524SOL    HW231470  12.544   0.663  12.833
76525SOL     OW31471  12.897   0.937  11.835
76525SOL    HW131472  12.880   0.867  11.772
76525SOL    HW231473  12.896   0.893  11.920
76526SOL     OW31474  13.044   6.514   4.545
76526SOL    HW131475  13.089   6.532   4.463
76526SOL    HW231476  13.029   6.600   4.584
76527SOL     OW31477  14.316   1.339   1.647
76527SOL    HW131478  14.286   1.310   1.561
76527SOL    HW231479  14.400   1.381   1.631
76528SOL     OW31480  10.933   0.023  11.653
76528SOL    HW131481  10.979   0.075  11.719
76528SOL    HW231482  10.951  14.802  11.676
76529SOL     OW31483   2.520   5.114  12.936
76529SOL    HW131484   2.539   5.197  12.893
76529SOL    HW231485   2.435   5.088  12.901
76530SOL     OW31486   5.093   0.822   0.060
76530SOL    HW131487   5.104   0.828   0.155
76530SOL    HW231488   5.091   0.728   0.042
76531SOL     OW31489   3.327   1.629  14.452
76531SOL    HW131490   3.243   1.634  14.498
76531SOL    HW231491   3.389   1.598  14.518
76532SOL     OW31492   5.932   8.792   4.624
76532SOL    HW131493   5.853   8.804   4.572
76532SOL    HW231494   5.900   8.782   4.714
76533SOL     OW31495   1.541   1.528   3.775
76533SOL    HW131496   1.584   1.583   3.709
76533SOL    HW231497   1.485   1.589   3.823
76534SOL     OW31498   5.786  11.227   6.764
76534SOL    HW131499   5.844  11.230   6.839
76534SOL    HW231500   5.795  11.137   6.730
76535SOL     OW31501   3.981  13.608   7.952
76535SOL    HW131502   3.905  13.665   7.961
76535SOL    HW231503   4.011  13.622   7.862
76536SOL     OW31504  11.509   9.495   3.467
76536SOL    HW131505  11.538   9.543   3.388
76536SOL    HW231506  11.480   9.410   3.434
76537SOL     OW31507   6.878  12.812   1.628
76537SOL    HW131508   6.856  12.805   1.535
76537SOL    HW231509   6.793  12.807   1.673
76538SOL     OW31510   1.012  14.829   1.263
76538SOL    HW131511   1.040  14.823   1.171
76538SOL    HW231512   1.039   0.046   1.291
76539SOL     OW31513   0.206   2.398   8.618
76539SOL    HW131514   0.181   2.375   8.528
76539SOL    HW231515   0.224   2.314   8.660
76540SOL     OW31516  11.654  10.782   6.895
76540SOL    HW131517  11.719  10.773   6.964
76540SOL    HW231518  11.652  10.697   6.852
76541SOL     OW31519   5.005   4.539  13.746
76541SOL    HW131520   5.004   4.631  13.772
76541SOL    HW231521   4.958   4.494  13.816
76542SOL     OW31522  14.467   3.414  10.224
76542SOL    HW131523  14.456   3.326  10.262
76542SOL    HW231524  14.556   3.413  10.189
76543SOL     OW31525   4.028   5.755   2.537
76543SOL    HW131526   4.123   5.760   2.524
76543SOL    HW231527   4.011   5.662   2.555
76544SOL     OW31528   4.611   9.810   3.707
76544SOL    HW131529   4.517   9.792   3.707
76544SOL    HW231530   4.641   9.775   3.623
76545SOL     OW31531   8.016   6.932   8.335
76545SOL    HW131532   8.111   6.939   8.344
76545SOL    HW231533   7.983   6.934   8.425
76546SOL     OW31534   0.745  14.262   0.676
76546SOL    HW131535   0.736  14.182   0.624
76546SOL    HW231536   0.734  14.234   0.767
76547SOL     OW31537   7.754   5.822   9.257
76547SOL    HW131538   7.750   5.813   9.352
76547SOL    HW231539   7.673   5.867   9.234
76548SOL     OW31540   6.498   2.513   0.348
76548SOL    HW131541   6.558   2.575   0.390
76548SOL    HW231542   6.430   2.568   0.310
76549SOL     OW31543  11.380   2.498   6.774
76549SOL    HW131544  11.468   2.498   6.735
76549SOL    HW231545  11.331   2.561   6.722
76550SOL     OW31546  10.507   4.501  11.320
76550SOL    HW131547  10.421   4.533  11.348
76550SOL    HW231548  10.499   4.405  11.321
76551SOL     OW31549   2.105   0.977  11.779
76551SOL    HW131550   2.199   0.969  11.764
76551SOL    HW231551   2.097   1.042  11.849
76552SOL     OW31552   2.646   3.384   3.618
76552SOL    HW131553   2.598   3.301   3.618
76552SOL    HW231554   2.606   3.435   3.688
76553SOL     OW31555   1.155   4.792   1.691
76553SOL    HW131556   1.111   4.852   1.751
76553SOL    HW231557   1.246   4.792   1.720
76554SOL     OW31558   4.942   8.399   2.902
76554SOL    HW131559   4.995   8.390   2.982
76554SOL    HW231560   4.959   8.489   2.873
76555SOL     OW31561   0.797   2.929  11.246
76555SOL    HW131562   0.756   2.936  11.159
76555SOL    HW231563   0.816   3.019  11.271
76556SOL     OW31564   8.226  14.094  11.648
76556SOL    HW131565   8.245  14.004  11.674
76556SOL    HW231566   8.221  14.091  11.552
76557SOL     OW31567   4.354  13.703   8.671
76557SOL    HW131568   4.374  13.620   8.715
76557SOL    HW231569   4.412  13.767   8.712
76558SOL     OW31570   5.825  12.270   2.184
76558SOL    HW131571   5.816  12.319   2.102
76558SOL    HW231572   5.778  12.188   2.168
76559SOL     OW31573  11.616   3.039   8.048
76559SOL    HW131574  11.570   2.980   7.989
76559SOL    HW231575  11.651   3.107   7.990
76560SOL     OW31576   5.556   7.706  11.047
76560SOL    HW131577   5.485   7.706  11.111
76560SOL    HW231578   5.602   7.624  11.062
76561SOL     OW31579   4.175   9.579  10.576
76561SOL    HW131580   4.157   9.486  10.565
76561SOL    HW231581   4.206   9.587  10.667
76562SOL     OW31582  13.173   2.533  13.354
76562SOL    HW131583  13.176   2.599  13.424
76562SOL    HW231584  13.178   2.583  13.273
76563SOL     OW31585   1.884   6.427  10.948
76563SOL    HW131586   1.925   6.391  10.869
76563SOL    HW231587   1.835   6.353  10.985
76564SOL     OW31588   2.770   6.644  11.377
76564SOL    HW131589   2.787   6.568  11.433
76564SOL    HW231590   2.675   6.656  11.379
76565SOL     OW31591  10.393  11.769  11.785
76565SOL    HW131592  10.409  11.862  11.768
76565SOL    HW231593  10.340  11.740  11.711
76566SOL     OW31594  12.462   0.675  13.749
76566SOL    HW131595  12.518   0.740  13.706
76566SOL    HW231596  12.520   0.629  13.810
76567SOL     OW31597   8.885   6.324   1.538
76567SOL    HW131598   8.884   6.403   1.592
76567SOL    HW231599   8.957   6.338   1.477
76568SOL     OW31600   0.022   2.648   3.481
76568SOL    HW131601  14.803   2.664   3.450
76568SOL    HW231602   0.077   2.707   3.429
76569SOL     OW31603  12.853   3.447   0.768
76569SOL    HW131604  12.891   3.372   0.813
76569SOL    HW231605  12.885   3.523   0.818
76570SOL     OW31606   9.051   2.720   6.029
76570SOL    HW131607   8.994   2.797   6.035
76570SOL    HW231608   8.996   2.653   5.989
76571SOL     OW31609  10.155  13.275   4.195
76571SOL    HW131610  10.137  13.188   4.161
76571SOL    HW231611  10.081  13.328   4.167
76572SOL     OW31612  10.132  11.029  13.124
76572SOL    HW131613  10.115  10.992  13.038
76572SOL    HW231614  10.112  11.122  13.115
76573SOL     OW31615  13.620   5.211   2.023
76573SOL    HW131616  13.716   5.210   2.024
76573SOL    HW231617  13.597   5.242   1.936
76574SOL     OW31618   9.531  12.688   1.212
76574SOL    HW131619   9.520  12.611   1.267
76574SOL    HW231620   9.625  12.705   1.212
76575SOL     OW31621   5.601  11.241  14.751
76575SOL    HW131622   5.538  11.221  14.682
76575SOL    HW231623   5.548  11.253  14.829
76576SOL     OW31624   9.179   8.483   0.179
76576SOL    HW131625   9.195   8.503   0.272
76576SOL    HW231626   9.104   8.539   0.156
76577SOL     OW31627  13.973   8.520   9.256
76577SOL    HW131628  13.910   8.581   9.218
76577SOL    HW231629  14.043   8.514   9.191
76578SOL     OW31630   2.864   1.384   3.980
76578SOL    HW131631   2.895   1.467   3.943
76578SOL    HW231632   2.850   1.328   3.904
76579SOL     OW31633   2.476  12.179  10.284
76579SOL    HW131634   2.546  12.120  10.255
76579SOL    HW231635   2.402  12.159  10.226
76580SOL     OW31636  14.313   1.312   6.568
76580SOL    HW131637  14.366   1.311   6.489
76580SOL    HW231638  14.359   1.255   6.629
76581SOL     OW31639   6.041  14.555   7.127
76581SOL    HW131640   6.069  14.474   7.170
76581SOL    HW231641   6.097  14.623   7.165
76582SOL     OW31642   8.280  11.803  13.709
76582SOL    HW131643   8.214  11.806  13.639
76582SOL    HW231644   8.330  11.883  13.697
76583SOL     OW31645   2.010  11.461  11.739
76583SOL    HW131646   1.935  11.490  11.790
76583SOL    HW231647   1.982  11.380  11.698
76584SOL     OW31648  11.036   4.631   6.342
76584SOL    HW131649  11.040   4.555   6.399
76584SOL    HW231650  10.946   4.633   6.310
76585SOL     OW31651   3.152  12.394  12.444
76585SOL    HW131652   3.090  12.321  12.442
76585SOL    HW231653   3.238  12.353  12.449
76586SOL     OW31654   4.095   9.782  14.495
76586SOL    HW131655   4.145   9.701  14.482
76586SOL    HW231656   4.116   9.835  14.418
76587SOL     OW31657   4.304  13.684  12.790
76587SOL    HW131658   4.277  13.606  12.838
76587SOL    HW231659   4.373  13.722  12.844
76588SOL     OW31660   4.253   8.640  10.115
76588SOL    HW131661   4.299   8.561  10.146
76588SOL    HW231662   4.294   8.711  10.164
76589SOL     OW31663   2.086   9.741  14.837
76589SOL    HW131664   2.182   9.746  14.836
76589SOL    HW231665   2.064   9.700  14.753
76590SOL     OW31666  14.660   5.992  13.845
76590SOL    HW131667  14.651   6.071  13.793
76590SOL    HW231668  14.610   6.011  13.925
76591SOL     OW31669   0.695  11.495   3.123
76591SOL    HW131670   0.715  11.557   3.052
76591SOL    HW231671   0.602  11.505   3.138
76592SOL     OW31672  10.257   9.145  12.937
76592SOL    HW131673  10.344   9.103  12.936
76592SOL    HW231674  10.198   9.075  12.966
76593SOL     OW31675   4.725   8.254   8.985
76593SOL    HW131676   4.646   8.205   9.007
76593SOL    HW231677   4.699   8.309   8.911
76594SOL     OW31678  10.956  13.710   0.471
76594SOL    HW131679  10.906  13.777   0.425
76594SOL    HW231680  10.901  13.632   0.469
76595SOL     OW31681  12.074  12.974   2.670
76595SOL    HW131682  12.169  12.978   2.655
76595SOL    HW231683  12.061  12.894   2.721
76596SOL     OW31684  13.981   0.827   3.546
76596SOL    HW131685  14.005   0.919   3.534
76596SOL    HW231686  13.934   0.826   3.630
76597SOL     OW31687   1.652  11.543   4.148
76597SOL    HW131688   1.723  11.605   4.130
76597SOL    HW231689   1.695  11.467   4.186
76598SOL     OW31690   6.256   8.659  14.316
76598SOL    HW131691   6.282   8.567  14.319
76598SOL    HW231692   6.295   8.698  14.394
76599SOL     OW31693  13.261   7.302   1.156
76599SOL    HW131694  13.166   7.306   1.161
76599SOL    HW231695  13.280   7.226   1.100
76600SOL     OW31696   0.406  11.267  11.969
76600SOL    HW131697   0.408  11.248  11.875
76600SOL    HW231698   0.349  11.201  12.006
76601SOL     OW31699   5.835   3.586  14.828
76601SOL    HW131700   5.819   3.587  14.734
76601SOL    HW231701   5.790   3.665  14.861
76602SOL     OW31702   5.178   7.663  14.776
76602SOL    HW131703   5.128   7.727  14.827
76602SOL    HW231704   5.238   7.716  14.723
76603SOL     OW31705  14.796   6.629   8.579
76603SOL    HW131706   0.019   6.644   8.598
76603SOL    HW231707  14.778   6.543   8.617
76604SOL     OW31708   7.024   2.062  11.918
76604SOL    HW131709   7.027   2.092  11.828
76604SOL    HW231710   6.956   2.115  11.959
76605SOL     OW31711   1.607  10.041   9.377
76605SOL    HW131712   1.693   9.999   9.376
76605SOL    HW231713   1.610  10.100   9.452
76606SOL     OW31714   2.171  12.322   1.482
76606SOL    HW131715   2.121  12.400   1.508
76606SOL    HW231716   2.105  12.262   1.447
76607SOL     OW31717   4.411  11.722  12.643
76607SOL    HW131718   4.374  11.697  12.727
76607SOL    HW231719   4.339  11.713  12.581
76608SOL     OW31720   7.576   8.044   0.778
76608SOL    HW131721   7.574   8.008   0.867
76608SOL    HW231722   7.554   8.136   0.789
76609SOL     OW31723   7.482  10.208  11.925
76609SOL    HW131724   7.532  10.187  11.846
76609SOL    HW231725   7.421  10.135  11.936
76610SOL     OW31726   2.217  11.406   2.937
76610SOL    HW131727   2.267  11.337   2.980
76610SOL    HW231728   2.283  11.463   2.898
76611SOL     OW31729   1.699  10.347   6.759
76611SOL    HW131730   1.717  10.257   6.731
76611SOL    HW231731   1.718  10.401   6.682
76612SOL     OW31732   1.819   6.071  10.037
76612SOL    HW131733   1.891   6.046  10.095
76612SOL    HW231734   1.756   6.114  10.095
76613SOL     OW31735   6.134   1.151  12.883
76613SOL    HW131736   6.195   1.174  12.813
76613SOL    HW231737   6.129   1.229  12.938
76614SOL     OW31738   0.914   6.097   4.058
76614SOL    HW131739   0.978   6.165   4.036
76614SOL    HW231740   0.955   6.048   4.129
76615SOL     OW31741   8.799   3.973  10.908
76615SOL    HW131742   8.819   4.063  10.879
76615SOL    HW231743   8.767   3.930  10.829
76616SOL     OW31744  14.282   0.133  11.424
76616SOL    HW131745  14.287   0.199  11.493
76616SOL    HW231746  14.323   0.174  11.348
76617SOL     OW31747   6.358  10.072  10.058
76617SOL    HW131748   6.365  10.093  10.151
76617SOL    HW231749   6.314   9.987  10.055
76618SOL     OW31750  14.452  13.803   2.560
76618SOL    HW131751  14.389  13.866   2.524
76618SOL    HW231752  14.434  13.722   2.513
76619SOL     OW31753  14.506  11.842   2.123
76619SOL    HW131754  14.600  11.829   2.140
76619SOL    HW231755  14.497  11.936   2.111
76620SOL     OW31756  14.579   9.055   9.951
76620SOL    HW131757  14.574   9.049  10.046
76620SOL    HW231758  14.493   9.086   9.924
76621SOL     OW31759  10.114   0.287   2.444
76621SOL    HW131760  10.071   0.365   2.408
76621SOL    HW231761  10.083   0.216   2.389
76622SOL     OW31762   1.894   1.018   0.629
76622SOL    HW131763   1.938   1.063   0.702
76622SOL    HW231764   1.801   1.027   0.649
76623SOL     OW31765   8.274  14.723   2.768
76623SOL    HW131766   8.205  14.790   2.764
76623SOL    HW231767   8.327  14.740   2.690
76624SOL     OW31768  14.518   1.502   1.549
76624SOL    HW131769  14.525   1.486   1.455
76624SOL    HW231770  14.608   1.499   1.581
76625SOL     OW31771   2.529   4.797  11.367
76625SOL    HW131772   2.559   4.825  11.281
76625SOL    HW231773   2.528   4.877  11.420
76626SOL     OW31774   9.663   4.878   2.103
76626SOL    HW131775   9.706   4.943   2.047
76626SOL    HW231776   9.589   4.925   2.142
76627SOL     OW31777  11.968   0.940  12.516
76627SOL    HW131778  11.905   0.987  12.463
76627SOL    HW231779  11.951   0.968  12.606
76628SOL     OW31780   5.830  13.114   4.491
76628SOL    HW131781   5.827  13.142   4.400
76628SOL    HW231782   5.922  13.092   4.507
76629SOL     OW31783   2.427  11.536  10.893
76629SOL    HW131784   2.381  11.453  10.880
76629SOL    HW231785   2.369  11.587  10.949
76630SOL     OW31786  14.506   2.659   9.648
76630SOL    HW131787  14.445   2.586   9.654
76630SOL    HW231788  14.565   2.635   9.576
76631SOL     OW31789   0.895  14.352   5.697
76631SOL    HW131790   0.883  14.447   5.690
76631SOL    HW231791   0.837  14.315   5.631
76632SOL     OW31792   9.654   2.297  10.963
76632SOL    HW131793   9.746   2.269  10.957
76632SOL    HW231794   9.616   2.240  11.029
76633SOL     OW31795  13.282  11.746   3.507
76633SOL    HW131796  13.244  11.785   3.585
76633SOL    HW231797  13.213  11.752   3.440
76634SOL     OW31798  13.114  11.075  11.282
76634SOL    HW131799  13.151  11.123  11.208
76634SOL    HW231800  13.019  11.081  11.270
76635SOL     OW31801   3.882   1.195  13.024
76635SOL    HW131802   3.822   1.142  13.076
76635SOL    HW231803   3.882   1.280  13.067
76636SOL     OW31804  13.620   8.417   9.171
76636SOL    HW131805  13.687   8.411   9.103
76636SOL    HW231806  13.592   8.508   9.169
76637SOL     OW31807   1.836  14.470   0.935
76637SOL    HW131808   1.790  14.420   1.002
76637SOL    HW231809   1.770  14.486   0.868
76638SOL     OW31810  12.540   7.687  14.736
76638SOL    HW131811  12.535   7.779  14.760
76638SOL    HW231812  12.575   7.688  14.647
76639SOL     OW31813   1.548   9.690   4.468
76639SOL    HW131814   1.561   9.663   4.377
76639SOL    HW231815   1.628   9.739   4.490
76640SOL     OW31816   9.495   4.795   0.372
76640SOL    HW131817   9.511   4.716   0.321
76640SOL    HW231818   9.544   4.782   0.453
76641SOL     OW31819   8.054   4.173   0.054
76641SOL    HW131820   7.997   4.198   0.127
76641SOL    HW231821   8.019   4.219  14.848
76642SOL     OW31822   9.413  11.063  10.594
76642SOL    HW131823   9.414  11.048  10.499
76642SOL    HW231824   9.374  10.983  10.630
76643SOL     OW31825   5.059  13.266   5.880
76643SOL    HW131826   5.008  13.330   5.929
76643SOL    HW231827   5.029  13.276   5.789
76644SOL     OW31828  10.913   7.412   2.830
76644SOL    HW131829  10.882   7.330   2.867
76644SOL    HW231830  10.919   7.472   2.904
76645SOL     OW31831   0.498   9.595   9.971
76645SOL    HW131832   0.585   9.556   9.968
76645SOL    HW231833   0.508   9.673  10.026
76646SOL     OW31834  10.005   6.867   7.997
76646SOL    HW131835   9.917   6.890   8.028
76646SOL    HW231836  10.057   6.945   8.014
76647SOL     OW31837  13.965   4.636   4.626
76647SOL    HW131838  14.039   4.692   4.648
76647SOL    HW231839  13.889   4.695   4.627
76648SOL     OW31840   3.328   7.790   8.453
76648SOL    HW131841   3.238   7.821   8.445
76648SOL    HW231842   3.358   7.777   8.363
76649SOL     OW31843   9.736   5.992   8.221
76649SOL    HW131844   9.732   5.990   8.125
76649SOL    HW231845   9.829   5.979   8.241
76650SOL     OW31846   3.328   9.997  10.355
76650SOL    HW131847   3.368  10.040  10.431
76650SOL    HW231848   3.366  10.042  10.279
76651SOL     OW31849   3.253   0.066  14.724
76651SOL    HW131850   3.284   0.115  14.800
76651SOL    HW231851   3.235  14.848  14.758
76652SOL     OW31852   2.463   1.417  12.949
76652SOL    HW131853   2.372   1.398  12.928
76652SOL    HW231854   2.469   1.512  12.948
76653SOL     OW31855   8.666  12.157   2.632
76653SOL    HW131856   8.683  12.137   2.724
76653SOL    HW231857   8.673  12.253   2.626
76654SOL     OW31858   3.002  10.654  12.220
76654SOL    HW131859   3.061  10.667  12.294
76654SOL    HW231860   3.025  10.723  12.159
76655SOL     OW31861   7.081   1.760  10.120
76655SOL    HW131862   7.061   1.847  10.155
76655SOL    HW231863   7.099   1.707  10.198
76656SOL     OW31864   3.910   7.587   8.793
76656SOL    HW131865   3.930   7.679   8.778
76656SOL    HW231866   3.982   7.540   8.750
76657SOL     OW31867   8.091  12.373  14.524
76657SOL    HW131868   8.030  12.337  14.461
76657SOL    HW231869   8.079  12.468  14.519
76658SOL     OW31870  11.390  13.070   1.116
76658SOL    HW131871  11.408  13.159   1.085
76658SOL    HW231872  11.295  13.060   1.105
76659SOL     OW31873  13.370   2.647   2.610
76659SOL    HW131874  13.410   2.579   2.556
76659SOL    HW231875  13.443   2.703   2.637
76660SOL     OW31876   0.838   5.434   5.732
76660SOL    HW131877   0.746   5.407   5.728
76660SOL    HW231878   0.846   5.479   5.816
76661SOL     OW31879  14.113   0.283  11.142
76661SOL    HW131880  14.077   0.359  11.097
76661SOL    HW231881  14.046   0.260  11.207
76662SOL     OW31882  14.321   8.404  10.192
76662SOL    HW131883  14.285   8.488  10.162
76662SOL    HW231884  14.255   8.371  10.253
76663SOL     OW31885   5.084   5.273   5.100
76663SOL    HW131886   5.031   5.200   5.131
76663SOL    HW231887   5.138   5.236   5.030
76664SOL     OW31888   7.657   0.022  14.844
76664SOL    HW131889   7.683   0.103   0.018
76664SOL    HW231890   7.709  14.823   0.018
76665SOL     OW31891   9.665   2.892   1.428
76665SOL    HW131892   9.647   2.798   1.429
76665SOL    HW231893   9.707   2.909   1.513
76666SOL     OW31894  11.974   1.962   8.268
76666SOL    HW131895  11.945   1.911   8.344
76666SOL    HW231896  12.057   1.922   8.243
76667SOL     OW31897   1.721  12.484   2.256
76667SOL    HW131898   1.794  12.537   2.288
76667SOL    HW231899   1.649  12.546   2.246
76668SOL     OW31900  11.072   3.084   4.599
76668SOL    HW131901  11.023   3.002   4.602
76668SOL    HW231902  11.010   3.150   4.630
76669SOL     OW31903   2.691   0.338   5.835
76669SOL    HW131904   2.774   0.291   5.829
76669SOL    HW231905   2.708   0.406   5.901
76670SOL     OW31906   9.545  10.207   9.857
76670SOL    HW131907   9.462  10.213   9.904
76670SOL    HW231908   9.532  10.134   9.797
76671SOL     OW31909  12.211   4.006   4.449
76671SOL    HW131910  12.190   4.098   4.429
76671SOL    HW231911  12.125   3.964   4.460
76672SOL     OW31912  10.809   5.944  10.507
76672SOL    HW131913  10.813   5.849  10.495
76672SOL    HW231914  10.893   5.975  10.475
76673SOL     OW31915   4.737  13.228   3.450
76673SOL    HW131916   4.783  13.145   3.464
76673SOL    HW231917   4.656  13.219   3.501
76674SOL     OW31918   5.946   8.330   5.005
76674SOL    HW131919   5.979   8.272   4.936
76674SOL    HW231920   5.885   8.388   4.960
76675SOL     OW31921  14.736  12.680  10.349
76675SOL    HW131922  14.665  12.633  10.305
76675SOL    HW231923  14.719  12.773  10.331
76676SOL     OW31924  13.534  13.409  11.274
76676SOL    HW131925  13.531  13.317  11.300
76676SOL    HW231926  13.602  13.413  11.207
76677SOL     OW31927   2.230   2.544   5.678
76677SOL    HW131928   2.139   2.523   5.698
76677SOL    HW231929   2.277   2.523   5.759
76678SOL     OW31930   3.085  10.898  12.083
76678SOL    HW131931   3.145  10.930  12.016
76678SOL    HW231932   3.122  10.930  12.166
76679SOL     OW31933   3.159   7.568   9.018
76679SOL    HW131934   3.131   7.622   8.944
76679SOL    HW231935   3.135   7.479   8.994
76680SOL     OW31936  14.636   5.320   8.023
76680SOL    HW131937  14.601   5.298   7.937
76680SOL    HW231938  14.731   5.314   8.013
76681SOL     OW31939   4.752   9.878   9.536
76681SOL    HW131940   4.710   9.926   9.465
76681SOL    HW231941   4.841   9.861   9.505
76682SOL     OW31942   4.413   1.484  13.870
76682SOL    HW131943   4.455   1.567  13.893
76682SOL    HW231944   4.481   1.433  13.826
76683SOL     OW31945   5.010   6.728   9.543
76683SOL    HW131946   4.984   6.705   9.454
76683SOL    HW231947   5.017   6.644   9.589
76684SOL     OW31948   5.499   3.900  10.167
76684SOL    HW131949   5.408   3.928  10.162
76684SOL    HW231950   5.547   3.978  10.196
76685SOL     OW31951  10.851   4.837   2.446
76685SOL    HW131952  10.907   4.798   2.378
76685SOL    HW231953  10.781   4.880   2.398
76686SOL     OW31954   6.068   4.249   9.881
76686SOL    HW131955   6.032   4.174   9.929
76686SOL    HW231956   6.027   4.243   9.795
76687SOL     OW31957   1.805  12.326   9.958
76687SOL    HW131958   1.713  12.314   9.981
76687SOL    HW231959   1.847  12.243   9.979
76688SOL     OW31960   3.711  10.808   2.412
76688SOL    HW131961   3.656  10.829   2.337
76688SOL    HW231962   3.781  10.874   2.410
76689SOL     OW31963  14.106  13.000   6.940
76689SOL    HW131964  14.047  12.939   6.984
76689SOL    HW231965  14.172  13.021   7.006
76690SOL     OW31966   8.768   8.501   1.062
76690SOL    HW131967   8.814   8.585   1.053
76690SOL    HW231968   8.832   8.443   1.102
76691SOL     OW31969  11.343   1.956   7.531
76691SOL    HW131970  11.405   1.883   7.532
76691SOL    HW231971  11.278   1.932   7.466
76692SOL     OW31972  10.423  13.290   4.563
76692SOL    HW131973  10.330  13.308   4.566
76692SOL    HW231974  10.460  13.364   4.515
76693SOL     OW31975  13.168  11.174  11.549
76693SOL    HW131976  13.225  11.248  11.528
76693SOL    HW231977  13.165  11.123  11.468
76694SOL     OW31978   9.985   7.290   7.682
76694SOL    HW131979  10.037   7.307   7.760
76694SOL    HW231980   9.942   7.374   7.663
76695SOL     OW31981  10.386   7.954  12.981
76695SOL    HW131982  10.374   7.968  12.887
76695SOL    HW231983  10.418   7.864  12.988
76696SOL     OW31984   0.347   6.471  10.301
76696SOL    HW131985   0.254   6.472  10.322
76696SOL    HW231986   0.385   6.537  10.360
76697SOL     OW31987   8.502  13.386   6.143
76697SOL    HW131988   8.534  13.370   6.232
76697SOL    HW231989   8.406  13.384   6.151
76698SOL     OW31990   4.673   3.193  10.278
76698SOL    HW131991   4.714   3.108  10.264
76698SOL    HW231992   4.648   3.192  10.371
76699SOL     OW31993   3.751   2.886   0.609
76699SOL    HW131994   3.691   2.871   0.682
76699SOL    HW231995   3.742   2.808   0.554
76700SOL     OW31996   2.087  11.713   2.402
76700SOL    HW131997   2.140  11.788   2.374
76700SOL    HW231998   2.150  11.642   2.415
76701SOL     OW31999  11.554   1.787   5.785
76701SOL    HW132000  11.558   1.693   5.802
76701SOL    HW232001  11.481   1.819   5.837
76702SOL     OW32002   8.294   6.010  13.418
76702SOL    HW132003   8.345   6.090  13.436
76702SOL    HW232004   8.204   6.041  13.411
76703SOL     OW32005   0.907   3.524   0.681
76703SOL    HW132006   0.837   3.516   0.746
76703SOL    HW232007   0.988   3.514   0.731
76704SOL     OW32008  10.484  10.540  13.182
76704SOL    HW132009  10.435  10.619  13.159
76704SOL    HW232010  10.475  10.533  13.277
76705SOL     OW32011   1.639  14.843   5.479
76705SOL    HW132012   1.708   0.004   5.537
76705SOL    HW232013   1.639   0.036   5.407
76706SOL     OW32014   2.289   6.611   3.885
76706SOL    HW132015   2.278   6.662   3.804
76706SOL    HW232016   2.321   6.675   3.948
76707SOL     OW32017   5.330  13.425   5.733
76707SOL    HW132018   5.286  13.470   5.661
76707SOL    HW232019   5.404  13.482   5.755
76708SOL     OW32020   9.778  10.271   2.697
76708SOL    HW132021   9.866  10.293   2.728
76708SOL    HW232022   9.787  10.268   2.601
76709SOL     OW32023  10.403  12.480   1.877
76709SOL    HW132024  10.379  12.456   1.787
76709SOL    HW232025  10.327  12.528   1.910
76710SOL     OW32026  12.734   9.199  14.611
76710SOL    HW132027  12.807   9.153  14.652
76710SOL    HW232028  12.656   9.168  14.657
76711SOL     OW32029   8.321   2.884  10.041
76711SOL    HW132030   8.396   2.942  10.049
76711SOL    HW232031   8.348   2.803  10.084
76712SOL     OW32032   8.461   2.772   5.364
76712SOL    HW132033   8.413   2.798   5.285
76712SOL    HW232034   8.527   2.710   5.332
76713SOL     OW32035   4.859   7.698   9.362
76713SOL    HW132036   4.927   7.737   9.307
76713SOL    HW232037   4.831   7.621   9.314
76714SOL     OW32038   8.337   0.634   2.297
76714SOL    HW132039   8.379   0.720   2.304
76714SOL    HW232040   8.308   0.628   2.206
76715SOL     OW32041  11.424  11.318   7.298
76715SOL    HW132042  11.383  11.373   7.365
76715SOL    HW232043  11.356  11.306   7.232
76716SOL     OW32044   8.976  10.120   1.968
76716SOL    HW132045   8.963  10.158   1.881
76716SOL    HW232046   8.929  10.036   1.965
76717SOL     OW32047   0.683   1.916   6.442
76717SOL    HW132048   0.666   1.824   6.424
76717SOL    HW232049   0.597   1.958   6.433
76718SOL     OW32050   0.368   5.817   8.446
76718SOL    HW132051   0.314   5.895   8.453
76718SOL    HW232052   0.421   5.816   8.526
76719SOL     OW32053  11.681   0.328   0.675
76719SOL    HW132054  11.669   0.240   0.640
76719SOL    HW232055  11.679   0.385   0.598
76720SOL     OW32056  12.394   5.436   0.412
76720SOL    HW132057  12.372   5.445   0.505
76720SOL    HW232058  12.336   5.367   0.381
76721SOL     OW32059   3.091  12.373   0.705
76721SOL    HW132060   3.170  12.366   0.759
76721SOL    HW232061   3.119  12.426   0.629
76722SOL     OW32062   5.849   9.553  10.742
76722SOL    HW132063   5.879   9.624  10.686
76722SOL    HW232064   5.769   9.587  10.784
76723SOL     OW32065   6.453  13.227   5.574
76723SOL    HW132066   6.450  13.322   5.563
76723SOL    HW232067   6.539  13.210   5.613
76724SOL     OW32068   5.261   4.605  12.996
76724SOL    HW132069   5.228   4.694  12.992
76724SOL    HW232070   5.198   4.559  13.052
76725SOL     OW32071   4.658   4.983  11.874
76725SOL    HW132072   4.613   5.041  11.812
76725SOL    HW232073   4.587   4.932  11.913
76726SOL     OW32074   8.137   8.985  13.769
76726SOL    HW132075   8.087   9.046  13.715
76726SOL    HW232076   8.170   8.919  13.708
76727SOL     OW32077  10.055   7.816  11.957
76727SOL    HW132078  10.119   7.753  11.923
76727SOL    HW232079  10.066   7.813  12.052
76728SOL     OW32080   9.238   0.950  11.318
76728SOL    HW132081   9.266   0.966  11.408
76728SOL    HW232082   9.149   0.914  11.327
76729SOL     OW32083   1.628   4.864  12.694
76729SOL    HW132084   1.649   4.885  12.785
76729SOL    HW232085   1.700   4.901  12.643
76730SOL     OW32086  13.269  13.974   9.708
76730SOL    HW132087  13.247  14.022   9.787
76730SOL    HW232088  13.343  13.919   9.733
76731SOL     OW32089  10.535  12.837   7.996
76731SOL    HW132090  10.600  12.833   7.927
76731SOL    HW232091  10.452  12.817   7.952
76732SOL     OW32092   3.538   5.609   8.739
76732SOL    HW132093   3.445   5.628   8.749
76732SOL    HW232094   3.580   5.657   8.809
76733SOL     OW32095  11.603  14.212   8.993
76733SOL    HW132096  11.537  14.153   8.957
76733SOL    HW232097  11.606  14.286   8.933
76734SOL     OW32098   9.482   4.246   9.242
76734SOL    HW132099   9.472   4.339   9.220
76734SOL    HW232100   9.397   4.207   9.218
76735SOL     OW32101   2.895   8.877  14.826
76735SOL    HW132102   2.828   8.877   0.025
76735SOL    HW232103   2.976   8.901   0.002
76736SOL     OW32104   7.405   2.944  13.640
76736SOL    HW132105   7.345   2.960  13.567
76736SOL    HW232106   7.386   2.853  13.667
76737SOL     OW32107  13.076   5.125   5.150
76737SOL    HW132108  13.048   5.054   5.208
76737SOL    HW232109  13.168   5.106   5.131
76738SOL     OW32110   9.972   1.051   4.173
76738SOL    HW132111   9.921   1.126   4.204
76738SOL    HW232112   9.931   1.027   4.090
76739SOL     OW32113  12.501   7.633   9.087
76739SOL    HW132114  12.465   7.684   9.160
76739SOL    HW232115  12.436   7.643   9.017
76740SOL     OW32116  11.138  10.109   5.281
76740SOL    HW132117  11.061  10.095   5.336
76740SOL    HW232118  11.165  10.021   5.254
76741SOL     OW32119   6.527   1.961   3.472
76741SOL    HW132120   6.556   2.007   3.551
76741SOL    HW232121   6.606   1.919   3.439
76742SOL     OW32122  10.232   9.455   4.680
76742SOL    HW132123  10.238   9.515   4.606
76742SOL    HW232124  10.142   9.464   4.711
76743SOL     OW32125  11.269  12.738   8.419
76743SOL    HW132126  11.302  12.776   8.338
76743SOL    HW232127  11.327  12.772   8.487
76744SOL     OW32128   9.591  11.947   3.432
76744SOL    HW132129   9.642  11.964   3.353
76744SOL    HW232130   9.601  11.853   3.447
76745SOL     OW32131   7.171   7.245   8.105
76745SOL    HW132132   7.120   7.278   8.179
76745SOL    HW232133   7.111   7.186   8.059
76746SOL     OW32134  10.259  13.773   8.846
76746SOL    HW132135  10.226  13.690   8.813
76746SOL    HW232136  10.211  13.788   8.927
76747SOL     OW32137  12.317  14.563   2.042
76747SOL    HW132138  12.392  14.507   2.060
76747SOL    HW232139  12.303  14.611   2.124
76748SOL     OW32140   4.813   9.714  13.348
76748SOL    HW132141   4.761   9.645  13.388
76748SOL    HW232142   4.769   9.796  13.372
76749SOL     OW32143  12.065   8.441   0.880
76749SOL    HW132144  12.085   8.525   0.839
76749SOL    HW232145  12.150   8.403   0.901
76750SOL     OW32146   4.397  11.004  10.249
76750SOL    HW132147   4.473  11.054  10.220
76750SOL    HW232148   4.323  11.042  10.202
76751SOL     OW32149  14.173  11.583   2.480
76751SOL    HW132150  14.203  11.649   2.543
76751SOL    HW232151  14.078  11.579   2.493
76752SOL     OW32152   9.830  12.801  11.952
76752SOL    HW132153   9.804  12.774  12.040
76752SOL    HW232154   9.814  12.896  11.950
76753SOL     OW32155  12.211   1.695   8.573
76753SOL    HW132156  12.244   1.779   8.606
76753SOL    HW232157  12.134   1.677   8.628
76754SOL     OW32158  10.387   2.064   1.206
76754SOL    HW132159  10.422   2.151   1.191
76754SOL    HW232160  10.432   2.033   1.285
76755SOL     OW32161  13.930   6.066  13.723
76755SOL    HW132162  13.931   6.055  13.818
76755SOL    HW232163  13.919   6.161  13.710
76756SOL     OW32164   2.328  14.331  11.309
76756SOL    HW132165   2.354  14.409  11.358
76756SOL    HW232166   2.239  14.349  11.281
76757SOL     OW32167  13.468   9.012   6.660
76757SOL    HW132168  13.400   9.077   6.639
76757SOL    HW232169  13.460   8.946   6.591
76758SOL     OW32170   4.122  13.928   3.547
76758SOL    HW132171   4.203  13.905   3.593
76758SOL    HW232172   4.053  13.896   3.605
76759SOL     OW32173   3.411   5.194   9.293
76759SOL    HW132174   3.453   5.187   9.208
76759SOL    HW232175   3.448   5.122   9.345
76760SOL     OW32176   3.706   8.655   0.718
76760SOL    HW132177   3.729   8.695   0.634
76760SOL    HW232178   3.750   8.570   0.716
76761SOL     OW32179   9.987   5.831   7.320
76761SOL    HW132180   9.999   5.777   7.242
76761SOL    HW232181   9.899   5.868   7.310
76762SOL     OW32182  10.228  14.454   6.696
76762SOL    HW132183  10.256  14.367   6.724
76762SOL    HW232184  10.135  14.458   6.718
76763SOL     OW32185   0.062  12.662  14.814
76763SOL    HW132186   0.067  12.755  14.790
76763SOL    HW232187   0.151  12.630  14.803
76764SOL     OW32188  10.012  14.461   6.287
76764SOL    HW132189  10.024  14.516   6.364
76764SOL    HW232190   9.969  14.517   6.223
76765SOL     OW32191   9.853   2.646  14.668
76765SOL    HW132192   9.898   2.581  14.615
76765SOL    HW232193   9.816   2.708  14.605
76766SOL     OW32194   5.697  14.438   6.750
76766SOL    HW132195   5.658  14.365   6.702
76766SOL    HW232196   5.788  14.411   6.765
76767SOL     OW32197  12.306   4.650  12.938
76767SOL    HW132198  12.306   4.618  13.029
76767SOL    HW232199  12.228   4.609  12.899
76768SOL     OW32200   0.491   7.466   6.290
76768SOL    HW132201   0.570   7.419   6.317
76768SOL    HW232202   0.444   7.403   6.235
76769SOL     OW32203  10.655   8.478   2.186
76769SOL    HW132204  10.626   8.547   2.245
76769SOL    HW232205  10.749   8.491   2.177
76770SOL     OW32206   2.109  14.020   7.955
76770SOL    HW132207   2.140  14.099   7.910
76770SOL    HW232208   2.046  13.981   7.895
76771SOL     OW32209   0.446   9.841   6.612
76771SOL    HW132210   0.471   9.931   6.591
76771SOL    HW232211   0.368   9.824   6.559
76772SOL     OW32212  11.822   2.490  11.558
76772SOL    HW132213  11.775   2.570  11.582
76772SOL    HW232214  11.808   2.481  11.464
76773SOL     OW32215  10.311   7.261  12.270
76773SOL    HW132216  10.368   7.273  12.193
76773SOL    HW232217  10.370   7.233  12.339
76774SOL     OW32218   9.476   9.084   2.896
76774SOL    HW132219   9.552   9.113   2.845
76774SOL    HW232220   9.460   9.156   2.957
76775SOL     OW32221   0.732   7.087   1.479
76775SOL    HW132222   0.667   7.053   1.418
76775SOL    HW232223   0.765   7.009   1.524
76776SOL     OW32224   1.547   8.177   3.074
76776SOL    HW132225   1.547   8.107   3.140
76776SOL    HW232226   1.592   8.138   2.998
76777SOL     OW32227  11.465  12.488   4.333
76777SOL    HW132228  11.561  12.478   4.334
76777SOL    HW232229  11.433  12.400   4.312
76778SOL     OW32230  14.248  13.952   6.058
76778SOL    HW132231  14.216  13.864   6.038
76778SOL    HW232232  14.257  13.994   5.972
76779SOL     OW32233   3.837   6.787  13.186
76779SOL    HW132234   3.798   6.704  13.160
76779SOL    HW232235   3.834   6.787  13.282
76780SOL     OW32236   9.275  11.493  10.068
76780SOL    HW132237   9.217  11.561  10.036
76780SOL    HW232238   9.261  11.419  10.009
76781SOL     OW32239  11.063   1.461  10.106
76781SOL    HW132240  11.054   1.551  10.075
76781SOL    HW232241  10.992   1.413  10.063
76782SOL     OW32242   2.460   0.315  10.531
76782SOL    HW132243   2.521   0.296  10.602
76782SOL    HW232244   2.402   0.239  10.529
76783SOL     OW32245  14.835  11.036   6.909
76783SOL    HW132246  14.806  11.126   6.893
76783SOL    HW232247  14.837  10.996   6.822
76784SOL     OW32248  10.369   2.666  13.823
76784SOL    HW132249  10.432   2.726  13.863
76784SOL    HW232250  10.286   2.712  13.825
76785SOL     OW32251   1.574   1.185   3.348
76785SOL    HW132252   1.546   1.254   3.408
76785SOL    HW232253   1.556   1.221   3.261
76786SOL     OW32254   0.692   2.788   2.205
76786SOL    HW132255   0.683   2.782   2.110
76786SOL    HW232256   0.772   2.838   2.218
76787SOL     OW32257   4.083   3.690   8.111
76787SOL    HW132258   4.119   3.602   8.098
76787SOL    HW232259   4.145   3.733   8.170
76788SOL     OW32260   5.908   3.009   4.507
76788SOL    HW132261   5.940   3.094   4.536
76788SOL    HW232262   5.902   3.017   4.412
76789SOL     OW32263  14.191   3.193   0.092
76789SOL    HW132264  14.190   3.152   0.006
76789SOL    HW232265  14.152   3.127   0.150
76790SOL     OW32266   2.744   1.752   9.150
76790SOL    HW132267   2.763   1.818   9.217
76790SOL    HW232268   2.691   1.686   9.195
76791SOL     OW32269   4.067   1.604  12.507
76791SOL    HW132270   3.984   1.649  12.524
76791SOL    HW232271   4.124   1.672  12.472
76792SOL     OW32272  10.465   5.211   0.472
76792SOL    HW132273  10.460   5.227   0.378
76792SOL    HW232274  10.528   5.139   0.481
76793SOL     OW32275   3.893   1.575  12.862
76793SOL    HW132276   3.928   1.514  12.798
76793SOL    HW232277   3.932   1.547  12.945
76794SOL     OW32278  12.382   1.831   0.812
76794SOL    HW132279  12.329   1.892   0.760
76794SOL    HW232280  12.472   1.860   0.799
76795SOL     OW32281   9.226   8.334   9.395
76795SOL    HW132282   9.170   8.367   9.465
76795SOL    HW232283   9.165   8.303   9.328
76796SOL     OW32284   8.729   9.013   4.263
76796SOL    HW132285   8.761   9.017   4.173
76796SOL    HW232286   8.666   8.941   4.263
76797SOL     OW32287   0.005   9.580   2.762
76797SOL    HW132288   0.072   9.525   2.802
76797SOL    HW232289   0.041   9.669   2.767
76798SOL     OW32290   4.964   8.848  13.632
76798SOL    HW132291   5.016   8.870  13.554
76798SOL    HW232292   5.025   8.803  13.690
76799SOL     OW32293   3.441   8.774   7.414
76799SOL    HW132294   3.468   8.850   7.465
76799SOL    HW232295   3.434   8.806   7.324
76800SOL     OW32296   8.154   1.189   6.444
76800SOL    HW132297   8.150   1.248   6.519
76800SOL    HW232298   8.220   1.125   6.468
76801SOL     OW32299   7.669   1.896   4.860
76801SOL    HW132300   7.714   1.892   4.944
76801SOL    HW232301   7.630   1.983   4.858
76802SOL     OW32302   7.359   6.346   6.422
76802SOL    HW132303   7.265   6.353   6.442
76802SOL    HW232304   7.388   6.437   6.416
76803SOL     OW32305   8.345  11.643   2.091
76803SOL    HW132306   8.286  11.592   2.036
76803SOL    HW232307   8.406  11.578   2.127
76804SOL     OW32308  10.506   3.920   2.101
76804SOL    HW132309  10.526   4.002   2.055
76804SOL    HW232310  10.454   3.869   2.039
76805SOL     OW32311  14.467   3.289   1.640
76805SOL    HW132312  14.420   3.267   1.721
76805SOL    HW232313  14.512   3.209   1.616
76806SOL     OW32314   7.240   7.476  12.324
76806SOL    HW132315   7.153   7.509  12.301
76806SOL    HW232316   7.242   7.477  12.419
76807SOL     OW32317   6.443   8.537   4.933
76807SOL    HW132318   6.383   8.545   5.007
76807SOL    HW232319   6.415   8.604   4.872
76808SOL     OW32320  11.078   0.379  12.076
76808SOL    HW132321  11.144   0.429  12.028
76808SOL    HW232322  11.126   0.307  12.117
76809SOL     OW32323  13.759  10.881  11.888
76809SOL    HW132324  13.778  10.845  11.974
76809SOL    HW232325  13.666  10.862  11.873
76810SOL     OW32326   2.357   6.452   4.195
76810SOL    HW132327   2.276   6.437   4.243
76810SOL    HW232328   2.384   6.540   4.220
76811SOL     OW32329   0.576   0.233   5.770
76811SOL    HW132330   0.539   0.266   5.852
76811SOL    HW232331   0.538   0.290   5.702
76812SOL     OW32332   0.449   5.743  11.238
76812SOL    HW132333   0.442   5.736  11.142
76812SOL    HW232334   0.369   5.702  11.270
76813SOL     OW32335   5.210   8.999   4.591
76813SOL    HW132336   5.173   9.017   4.505
76813SOL    HW232337   5.235   8.907   4.588
76814SOL     OW32338   6.369   7.800   9.612
76814SOL    HW132339   6.343   7.714   9.578
76814SOL    HW232340   6.462   7.789   9.635
76815SOL     OW32341  13.668   4.059  11.893
76815SOL    HW132342  13.643   4.050  11.985
76815SOL    HW232343  13.735   4.127  11.893
76816SOL     OW32344   5.133   5.541   1.686
76816SOL    HW132345   5.220   5.549   1.645
76816SOL    HW232346   5.145   5.578   1.773
76817SOL     OW32347   8.094   4.020   8.581
76817SOL    HW132348   8.163   4.073   8.540
76817SOL    HW232349   8.013   4.068   8.563
76818SOL     OW32350   6.925   4.851   7.810
76818SOL    HW132351   6.872   4.897   7.745
76818SOL    HW232352   6.863   4.830   7.880
76819SOL     OW32353   5.432   5.720  14.588
76819SOL    HW132354   5.427   5.633  14.629
76819SOL    HW232355   5.525   5.743  14.594
76820SOL     OW32356   5.353  12.504   3.809
76820SOL    HW132357   5.446  12.479   3.808
76820SOL    HW232358   5.330  12.506   3.902
76821SOL     OW32359   0.912   2.062   2.595
76821SOL    HW132360   0.840   2.041   2.535
76821SOL    HW232361   0.872   2.057   2.682
76822SOL     OW32362  12.782   2.386   5.145
76822SOL    HW132363  12.728   2.463   5.165
76822SOL    HW232364  12.784   2.337   5.226
76823SOL     OW32365  12.226   8.963   5.631
76823SOL    HW132366  12.189   8.984   5.546
76823SOL    HW232367  12.321   8.961   5.616
76824SOL     OW32368   0.447   9.770   2.135
76824SOL    HW132369   0.365   9.790   2.180
76824SOL    HW232370   0.422   9.756   2.044
76825SOL     OW32371   0.452   9.371   7.293
76825SOL    HW132372   0.448   9.410   7.380
76825SOL    HW232373   0.546   9.367   7.273
76826SOL     OW32374   6.051   1.942   0.882
76826SOL    HW132375   6.046   1.849   0.903
76826SOL    HW232376   5.982   1.982   0.936
76827SOL     OW32377  10.558   9.848   0.264
76827SOL    HW132378  10.551   9.769   0.317
76827SOL    HW232379  10.563   9.919   0.328
76828SOL     OW32380   9.705  12.461   4.387
76828SOL    HW132381   9.721  12.555   4.374
76828SOL    HW232382   9.688  12.453   4.481
76829SOL     OW32383   0.668  12.163   6.711
76829SOL    HW132384   0.675  12.257   6.695
76829SOL    HW232385   0.746  12.141   6.762
76830SOL     OW32386   9.895   1.151  13.113
76830SOL    HW132387   9.893   1.105  13.196
76830SOL    HW232388   9.803   1.168  13.092
76831SOL     OW32389   1.814   0.983   7.722
76831SOL    HW132390   1.761   1.054   7.685
76831SOL    HW232391   1.903   1.017   7.722
76832SOL     OW32392   6.831   8.411   4.163
76832SOL    HW132393   6.925   8.408   4.146
76832SOL    HW232394   6.791   8.396   4.078
76833SOL     OW32395   0.875   2.983   8.155
76833SOL    HW132396   0.800   2.960   8.210
76833SOL    HW232397   0.929   3.039   8.210
76834SOL     OW32398   7.175   9.716  12.161
76834SOL    HW132399   7.157   9.790  12.218
76834SOL    HW232400   7.096   9.708  12.107
76835SOL     OW32401   8.121  13.478   0.860
76835SOL    HW132402   8.138  13.564   0.822
76835SOL    HW232403   8.033  13.485   0.897
76836SOL     OW32404  14.575  13.469   6.313
76836SOL    HW132405  14.484  13.440   6.323
76836SOL    HW232406  14.580  13.498   6.222
76837SOL     OW32407   9.419   1.577   0.245
76837SOL    HW132408   9.468   1.639   0.191
76837SOL    HW232409   9.482   1.508   0.266
76838SOL     OW32410   9.632  12.671   6.704
76838SOL    HW132411   9.665  12.662   6.615
76838SOL    HW232412   9.562  12.605   6.711
76839SOL     OW32413  11.144  13.600   4.699
76839SOL    HW132414  11.156  13.506   4.682
76839SOL    HW232415  11.169  13.610   4.791
76840SOL     OW32416   1.558   7.836   6.082
76840SOL    HW132417   1.505   7.769   6.124
76840SOL    HW232418   1.595   7.887   6.154
76841SOL     OW32419   0.131  12.246   7.213
76841SOL    HW132420   0.061  12.307   7.237
76841SOL    HW232421   0.187  12.295   7.154
76842SOL     OW32422  12.588  14.217   7.937
76842SOL    HW132423  12.559  14.303   7.965
76842SOL    HW232424  12.611  14.229   7.844
76843SOL     OW32425  14.710   6.899   5.478
76843SOL    HW132426  14.788   6.953   5.466
76843SOL    HW232427  14.639   6.962   5.490
76844SOL     OW32428  10.257   8.361   7.078
76844SOL    HW132429  10.205   8.297   7.126
76844SOL    HW232430  10.348   8.331   7.089
76845SOL     OW32431  13.730  10.325   0.864
76845SOL    HW132432  13.755  10.410   0.900
76845SOL    HW232433  13.782  10.317   0.784
76846SOL     OW32434  10.231   9.631   7.587
76846SOL    HW132435  10.307   9.636   7.645
76846SOL    HW232436  10.167   9.578   7.635
76847SOL     OW32437   0.683  14.853  14.193
76847SOL    HW132438   0.677  14.864  14.098
76847SOL    HW232439   0.599   0.013  14.227
76848SOL     OW32440   2.237   3.311   8.037
76848SOL    HW132441   2.266   3.256   7.964
76848SOL    HW232442   2.169   3.366   8.000
76849SOL     OW32443  12.270  10.862   8.716
76849SOL    HW132444  12.204  10.926   8.690
76849SOL    HW232445  12.255  10.849   8.810
76850SOL     OW32446   4.113   4.873   8.769
76850SOL    HW132447   4.165   4.817   8.711
76850SOL    HW232448   4.054   4.920   8.709
76851SOL     OW32449  13.489   2.938  13.767
76851SOL    HW132450  13.500   2.873  13.837
76851SOL    HW232451  13.515   3.021  13.807
76852SOL     OW32452  13.507  14.421   7.311
76852SOL    HW132453  13.429  14.403   7.364
76852SOL    HW232454  13.559  14.481   7.363
76853SOL     OW32455   4.340  10.960  10.529
76853SOL    HW132456   4.365  10.962  10.436
76853SOL    HW232457   4.304  10.873  10.542
76854SOL     OW32458   4.755   1.364   0.740
76854SOL    HW132459   4.667   1.351   0.704
76854SOL    HW232460   4.795   1.277   0.737
76855SOL     OW32461  11.537  12.538   8.243
76855SOL    HW132462  11.474  12.490   8.189
76855SOL    HW232463  11.600  12.471   8.271
76856SOL     OW32464   6.858   3.264  12.422
76856SOL    HW132465   6.942   3.277  12.379
76856SOL    HW232466   6.870   3.299  12.510
76857SOL     OW32467   8.310   3.447   5.238
76857SOL    HW132468   8.309   3.448   5.334
76857SOL    HW232469   8.218   3.460   5.213
76858SOL     OW32470  13.540   3.808  11.900
76858SOL    HW132471  13.579   3.895  11.904
76858SOL    HW232472  13.589   3.763  11.831
76859SOL     OW32473  13.269   3.156   5.407
76859SOL    HW132474  13.363   3.173   5.411
76859SOL    HW232475  13.231   3.237   5.375
76860SOL     OW32476   8.774   9.512  12.339
76860SOL    HW132477   8.694   9.495  12.290
76860SOL    HW232478   8.762   9.600  12.375
76861SOL     OW32479   4.673   8.706   8.423
76861SOL    HW132480   4.635   8.661   8.499
76861SOL    HW232481   4.767   8.691   8.430
76862SOL     OW32482   5.742  11.547   3.439
76862SOL    HW132483   5.811  11.504   3.388
76862SOL    HW232484   5.683  11.477   3.464
76863SOL     OW32485   8.305   2.230  12.630
76863SOL    HW132486   8.258   2.161  12.584
76863SOL    HW232487   8.241   2.267  12.691
76864SOL     OW32488   8.650  14.624   3.100
76864SOL    HW132489   8.672  14.711   3.134
76864SOL    HW232490   8.561  14.634   3.065
76865SOL     OW32491   0.558   2.250   2.070
76865SOL    HW132492   0.585   2.163   2.099
76865SOL    HW232493   0.630   2.279   2.014
76866SOL     OW32494   0.452   9.152  13.426
76866SOL    HW132495   0.357   9.166  13.431
76866SOL    HW232496   0.486   9.193  13.505
76867SOL     OW32497  13.001   8.741  14.851
76867SOL    HW132498  13.009   8.664  14.795
76867SOL    HW232499  13.043   8.715   0.064
76868SOL     OW32500   9.176   6.288   2.789
76868SOL    HW132501   9.250   6.233   2.812
76868SOL    HW232502   9.179   6.360   2.851
76869SOL     OW32503   1.334   3.214   0.008
76869SOL    HW132504   1.306   3.287  14.822
76869SOL    HW232505   1.365   3.256   0.089
76870SOL     OW32506   2.651   9.409   5.002
76870SOL    HW132507   2.723   9.458   4.964
76870SOL    HW232508   2.636   9.337   4.942
76871SOL     OW32509   6.021   4.553  12.872
76871SOL    HW132510   5.994   4.496  12.943
76871SOL    HW232511   6.022   4.641  12.911
76872SOL     OW32512   9.894  14.759  12.638
76872SOL    HW132513   9.902  14.701  12.714
76872SOL    HW232514   9.860  14.841  12.673
76873SOL     OW32515   5.129   6.533   4.143
76873SOL    HW132516   5.195   6.601   4.130
76873SOL    HW232517   5.169   6.453   4.109
76874SOL     OW32518  12.086   9.816   6.416
76874SOL    HW132519  12.153   9.878   6.444
76874SOL    HW232520  12.080   9.753   6.488
76875SOL     OW32521   1.930   1.236   7.473
76875SOL    HW132522   1.841   1.203   7.487
76875SOL    HW232523   1.922   1.331   7.473
76876SOL     OW32524   0.757   9.467   5.020
76876SOL    HW132525   0.669   9.455   5.056
76876SOL    HW232526   0.745   9.469   4.925
76877SOL     OW32527   2.833   7.444   6.918
76877SOL    HW132528   2.802   7.360   6.886
76877SOL    HW232529   2.776   7.509   6.878
76878SOL     OW32530   0.142   9.579   9.178
76878SOL    HW132531   0.109   9.665   9.149
76878SOL    HW232532   0.104   9.517   9.116
76879SOL     OW32533  12.607   6.054  14.383
76879SOL    HW132534  12.579   6.145  14.398
76879SOL    HW232535  12.528   6.002  14.394
76880SOL     OW32536   2.752   6.483  14.631
76880SOL    HW132537   2.761   6.567  14.588
76880SOL    HW232538   2.707   6.503  14.713
76881SOL     OW32539   2.276   9.491   6.919
76881SOL    HW132540   2.369   9.474   6.904
76881SOL    HW232541   2.247   9.422   6.978
76882SOL     OW32542   7.597   3.179   2.455
76882SOL    HW132543   7.652   3.234   2.511
76882SOL    HW232544   7.579   3.101   2.507
76883SOL     OW32545   7.723   9.253  13.428
76883SOL    HW132546   7.757   9.164  13.415
76883SOL    HW232547   7.798   9.309  13.409
76884SOL     OW32548   9.075   8.547   4.984
76884SOL    HW132549   9.032   8.629   4.960
76884SOL    HW232550   9.156   8.546   4.933
76885SOL     OW32551   0.163   0.431  11.811
76885SOL    HW132552   0.172   0.463  11.721
76885SOL    HW232553   0.162   0.335  11.803
76886SOL     OW32554   1.160   9.438   4.876
76886SOL    HW132555   1.165   9.384   4.797
76886SOL    HW232556   1.082   9.491   4.863
76887SOL     OW32557   8.412   0.295   7.063
76887SOL    HW132558   8.362   0.299   7.145
76887SOL    HW232559   8.503   0.305   7.091
76888SOL     OW32560   1.122  10.611   0.503
76888SOL    HW132561   1.146  10.563   0.425
76888SOL    HW232562   1.053  10.672   0.474
76889SOL     OW32563  10.959   8.890  14.795
76889SOL    HW132564  11.016   8.925  14.863
76889SOL    HW232565  10.912   8.966  14.760
76890SOL     OW32566   6.044  12.442   2.249
76890SOL    HW132567   5.968  12.388   2.227
76890SOL    HW232568   6.109  12.420   2.182
76891SOL     OW32569  13.761   8.909   0.684
76891SOL    HW132570  13.771   8.949   0.597
76891SOL    HW232571  13.844   8.864   0.699
76892SOL     OW32572  13.348   1.117  12.702
76892SOL    HW132573  13.287   1.144  12.771
76892SOL    HW232574  13.341   1.186  12.636
76893SOL     OW32575   0.794   4.528   9.339
76893SOL    HW132576   0.855   4.487   9.400
76893SOL    HW232577   0.713   4.479   9.349
76894SOL     OW32578  10.405   7.908   3.966
76894SOL    HW132579  10.389   7.863   3.883
76894SOL    HW232580  10.402   7.838   4.032
76895SOL     OW32581   9.940  11.990   0.958
76895SOL    HW132582   9.959  11.923   1.023
76895SOL    HW232583   9.901  11.943   0.885
76896SOL     OW32584  14.111   6.022   3.715
76896SOL    HW132585  14.029   6.068   3.730
76896SOL    HW232586  14.164   6.082   3.662
76897SOL     OW32587  10.721   9.130  10.587
76897SOL    HW132588  10.808   9.094  10.566
76897SOL    HW232589  10.682   9.066  10.645
76898SOL     OW32590   4.612   2.012   9.666
76898SOL    HW132591   4.589   2.028   9.758
76898SOL    HW232592   4.584   2.091   9.620
76899SOL     OW32593   4.995   4.554   3.234
76899SOL    HW132594   5.066   4.530   3.174
76899SOL    HW232595   4.915   4.536   3.184
76900SOL     OW32596   2.863  11.241   0.722
76900SOL    HW132597   2.877  11.264   0.814
76900SOL    HW232598   2.822  11.154   0.725
76901SOL     OW32599   2.638   3.044  11.413
76901SOL    HW132600   2.598   3.121  11.371
76901SOL    HW232601   2.634   2.976  11.346
76902SOL     OW32602   2.786   3.268   6.760
76902SOL    HW132603   2.782   3.240   6.851
76902SOL    HW232604   2.714   3.330   6.751
76903SOL     OW32605   7.647  13.644   8.960
76903SOL    HW132606   7.597  13.563   8.954
76903SOL    HW232607   7.581  13.713   8.963
76904SOL     OW32608   4.226   1.776  12.368
76904SOL    HW132609   4.266   1.755  12.283
76904SOL    HW232610   4.246   1.869  12.381
76905SOL     OW32611   0.874   2.222  10.267
76905SOL    HW132612   0.900   2.150  10.324
76905SOL    HW232613   0.955   2.248  10.222
76906SOL     OW32614   1.368   1.781  11.545
76906SOL    HW132615   1.362   1.856  11.485
76906SOL    HW232616   1.446   1.734  11.516
76907SOL     OW32617  14.446   2.028   5.265
76907SOL    HW132618  14.437   1.993   5.177
76907SOL    HW232619  14.360   2.066   5.285
76908SOL     OW32620   7.830  12.649   8.210
76908SOL    HW132621   7.822  12.554   8.206
76908SOL    HW232622   7.914  12.664   8.253
76909SOL     OW32623  14.608   9.661   1.936
76909SOL    HW132624  14.688   9.677   1.986
76909SOL    HW232625  14.638   9.639   1.848
76910SOL     OW32626  12.096   4.183   0.924
76910SOL    HW132627  12.119   4.226   1.006
76910SOL    HW232628  12.069   4.095   0.949
76911SOL     OW32629  13.624   9.046   3.132
76911SOL    HW132630  13.715   9.031   3.156
76911SOL    HW232631  13.580   9.066   3.216
76912SOL     OW32632  12.401   0.460   8.428
76912SOL    HW132633  12.377   0.457   8.335
76912SOL    HW232634  12.458   0.384   8.441
76913SOL     OW32635   9.868   8.395   3.228
76913SOL    HW132636   9.819   8.413   3.308
76913SOL    HW232637   9.838   8.308   3.200
76914SOL     OW32638   0.472   7.230   4.968
76914SOL    HW132639   0.510   7.166   4.907
76914SOL    HW232640   0.386   7.193   4.990
76915SOL     OW32641  10.575   0.830  12.720
76915SOL    HW132642  10.572   0.842  12.625
76915SOL    HW232643  10.667   0.819  12.740
76916SOL     OW32644  11.844   5.114   7.878
76916SOL    HW132645  11.778   5.152   7.819
76916SOL    HW232646  11.802   5.114   7.964
76917SOL     OW32647  13.621   8.320   8.325
76917SOL    HW132648  13.690   8.370   8.282
76917SOL    HW232649  13.620   8.236   8.281
76918SOL     OW32650   3.862   5.348   1.573
76918SOL    HW132651   3.910   5.267   1.591
76918SOL    HW232652   3.855   5.351   1.478
76919SOL     OW32653   6.290   7.248   3.359
76919SOL    HW132654   6.278   7.339   3.388
76919SOL    HW232655   6.288   7.197   3.440
76920SOL     OW32656   5.448  13.148   0.746
76920SOL    HW132657   5.491  13.073   0.706
76920SOL    HW232658   5.430  13.207   0.672
76921SOL     OW32659   4.704  14.851   0.951
76921SOL    HW132660   4.612  14.827   0.941
76921SOL    HW232661   4.714   0.002   1.044
76922SOL     OW32662   6.826   9.773   9.669
76922SOL    HW132663   6.872   9.735   9.595
76922SOL    HW232664   6.891   9.828   9.712
76923SOL     OW32665   4.983   5.297   1.630
76923SOL    HW132666   5.031   5.379   1.634
76923SOL    HW232667   4.893   5.320   1.652
76924SOL     OW32668  10.375  10.770   3.479
76924SOL    HW132669  10.391  10.681   3.509
76924SOL    HW232670  10.338  10.815   3.555
76925SOL     OW32671   0.162  10.217   7.029
76925SOL    HW132672   0.166  10.152   6.958
76925SOL    HW232673   0.191  10.170   7.107
76926SOL     OW32674   2.752  13.306  11.128
76926SOL    HW132675   2.723  13.216  11.121
76926SOL    HW232676   2.710  13.340  11.207
76927SOL     OW32677   9.660   6.108   1.153
76927SOL    HW132678   9.729   6.132   1.091
76927SOL    HW232679   9.668   6.013   1.161
76928SOL     OW32680  12.020   6.429  13.768
76928SOL    HW132681  11.945   6.472  13.809
76928SOL    HW232682  12.096   6.461  13.816
76929SOL     OW32683   3.237   9.841  12.597
76929SOL    HW132684   3.288   9.861  12.518
76929SOL    HW232685   3.302   9.839  12.667
76930SOL     OW32686  12.071   2.115  11.765
76930SOL    HW132687  12.110   2.128  11.678
76930SOL    HW232688  11.989   2.165  11.762
76931SOL     OW32689   1.170   5.330   3.717
76931SOL    HW132690   1.253   5.310   3.760
76931SOL    HW232691   1.111   5.355   3.788
76932SOL     OW32692  11.418   0.386  12.998
76932SOL    HW132693  11.414   0.477  12.969
76932SOL    HW232694  11.501   0.379  13.046
76933SOL     OW32695   1.587   0.510  13.354
76933SOL    HW132696   1.530   0.586  13.352
76933SOL    HW232697   1.590   0.480  13.263
76934SOL     OW32698   7.754  11.398   3.995
76934SOL    HW132699   7.841  11.382   4.030
76934SOL    HW232700   7.706  11.317   4.012
76935SOL     OW32701   8.231   2.780   7.906
76935SOL    HW132702   8.247   2.874   7.918
76935SOL    HW232703   8.202   2.750   7.992
76936SOL     OW32704   2.932  14.678  10.242
76936SOL    HW132705   2.983  14.652  10.165
76936SOL    HW232706   2.995  14.678  10.314
76937SOL     OW32707   2.602  14.453  13.180
76937SOL    HW132708   2.604  14.443  13.275
76937SOL    HW232709   2.595  14.547  13.165
76938SOL     OW32710   2.895   6.720   7.389
76938SOL    HW132711   2.894   6.808   7.352
76938SOL    HW232712   2.972   6.719   7.446
76939SOL     OW32713   6.087   6.953   3.797
76939SOL    HW132714   6.151   6.889   3.767
76939SOL    HW232715   6.134   7.005   3.862
76940SOL     OW32716   3.577   5.017   8.482
76940SOL    HW132717   3.495   5.040   8.439
76940SOL    HW232718   3.550   4.982   8.567
76941SOL     OW32719   0.760   2.215  11.844
76941SOL    HW132720   0.708   2.289  11.812
76941SOL    HW232721   0.827   2.203  11.777
76942SOL     OW32722   0.658   5.344  12.398
76942SOL    HW132723   0.723   5.276  12.416
76942SOL    HW232724   0.666   5.360  12.304
76943SOL     OW32725   7.761   0.831   6.083
76943SOL    HW132726   7.844   0.795   6.112
76943SOL    HW232727   7.760   0.817   5.988
76944SOL     OW32728   3.400  14.569  12.579
76944SOL    HW132729   3.391  14.527  12.664
76944SOL    HW232730   3.488  14.545  12.549
76945SOL     OW32731  11.985  12.445   2.737
76945SOL    HW132732  11.890  12.454   2.734
76945SOL    HW232733  12.013  12.502   2.808
76946SOL     OW32734  12.267  11.926  13.443
76946SOL    HW132735  12.342  11.956  13.494
76946SOL    HW232736  12.218  12.006  13.423
76947SOL     OW32737  11.984   9.017  12.995
76947SOL    HW132738  11.932   8.937  12.997
76947SOL    HW232739  12.055   9.001  13.057
76948SOL     OW32740  11.218   6.779  10.836
76948SOL    HW132741  11.246   6.688  10.837
76948SOL    HW232742  11.291   6.827  10.876
76949SOL     OW32743   4.180   0.065   4.632
76949SOL    HW132744   4.121   0.082   4.705
76949SOL    HW232745   4.263   0.107   4.657
76950SOL     OW32746   6.687   3.274   0.465
76950SOL    HW132747   6.675   3.262   0.371
76950SOL    HW232748   6.626   3.212   0.505
76951SOL     OW32749   5.335  10.734   6.181
76951SOL    HW132750   5.353  10.656   6.128
76951SOL    HW232751   5.315  10.802   6.117
76952SOL     OW32752   1.504   2.803   4.034
76952SOL    HW132753   1.458   2.718   4.033
76952SOL    HW232754   1.435   2.867   4.050
76953SOL     OW32755   2.870  10.517   5.647
76953SOL    HW132756   2.839  10.429   5.671
76953SOL    HW232757   2.794  10.573   5.658
76954SOL     OW32758   8.284   0.129   8.414
76954SOL    HW132759   8.195   0.135   8.448
76954SOL    HW232760   8.278   0.163   8.324
76955SOL     OW32761   4.653   0.389   6.518
76955SOL    HW132762   4.649   0.379   6.423
76955SOL    HW232763   4.746   0.403   6.537
76956SOL     OW32764  14.124   3.137  13.293
76956SOL    HW132765  14.095   3.157  13.382
76956SOL    HW232766  14.094   3.212  13.241
76957SOL     OW32767   6.868   1.488  12.917
76957SOL    HW132768   6.778   1.504  12.946
76957SOL    HW232769   6.874   1.394  12.904
76958SOL     OW32770   6.551  10.223   4.651
76958SOL    HW132771   6.623  10.215   4.588
76958SOL    HW232772   6.579  10.172   4.726
76959SOL     OW32773   1.408   4.949   1.676
76959SOL    HW132774   1.441   4.952   1.766
76959SOL    HW232775   1.355   5.028   1.668
76960SOL     OW32776  13.162  10.688  13.807
76960SOL    HW132777  13.224  10.642  13.864
76960SOL    HW232778  13.076  10.665  13.842
76961SOL     OW32779   7.842   7.769   9.741
76961SOL    HW132780   7.854   7.807   9.655
76961SOL    HW232781   7.879   7.833   9.802
76962SOL     OW32782   8.932  13.693   3.039
76962SOL    HW132783   8.906  13.601   3.032
76962SOL    HW232784   9.028  13.691   3.041
76963SOL     OW32785   2.627   1.310   5.328
76963SOL    HW132786   2.625   1.316   5.423
76963SOL    HW232787   2.561   1.245   5.306
76964SOL     OW32788  11.580   3.980   5.093
76964SOL    HW132789  11.535   3.964   5.010
76964SOL    HW232790  11.540   3.919   5.155
76965SOL     OW32791   6.900   4.187  10.329
76965SOL    HW132792   6.850   4.106  10.318
76965SOL    HW232793   6.963   4.167  10.398
76966SOL     OW32794   5.639   3.760   6.108
76966SOL    HW132795   5.588   3.790   6.183
76966SOL    HW232796   5.577   3.760   6.036
76967SOL     OW32797   9.180   3.933  12.266
76967SOL    HW132798   9.188   3.859  12.206
76967SOL    HW232799   9.167   4.009  12.208
76968SOL     OW32800  10.436  12.355  10.477
76968SOL    HW132801  10.404  12.415  10.544
76968SOL    HW232802  10.531  12.362  10.482
76969SOL     OW32803   7.634  13.068   0.641
76969SOL    HW132804   7.685  12.990   0.663
76969SOL    HW232805   7.650  13.081   0.547
76970SOL     OW32806  12.014   6.360  14.722
76970SOL    HW132807  11.939   6.325  14.673
76970SOL    HW232808  12.078   6.289  14.721
76971SOL     OW32809   2.007   0.963   6.703
76971SOL    HW132810   1.962   1.003   6.778
76971SOL    HW232811   2.099   0.985   6.716
76972SOL     OW32812   9.309   1.429   4.056
76972SOL    HW132813   9.391   1.477   4.069
76972SOL    HW232814   9.320   1.386   3.971
76973SOL     OW32815  10.656   4.314  14.846
76973SOL    HW132816  10.681   4.289   0.065
76973SOL    HW232817  10.561   4.307  14.845
76974SOL     OW32818   5.986   8.853   5.921
76974SOL    HW132819   6.008   8.882   6.010
76974SOL    HW232820   6.071   8.841   5.879
76975SOL     OW32821   0.096   1.422   4.927
76975SOL    HW132822   0.124   1.461   4.845
76975SOL    HW232823   0.004   1.448   4.936
76976SOL     OW32824   1.327   3.194   2.486
76976SOL    HW132825   1.404   3.178   2.431
76976SOL    HW232826   1.355   3.264   2.546
76977SOL     OW32827   6.004   1.402   7.203
76977SOL    HW132828   5.988   1.353   7.284
76977SOL    HW232829   5.983   1.492   7.225
76978SOL     OW32830  13.681   9.857   4.729
76978SOL    HW132831  13.694   9.834   4.821
76978SOL    HW232832  13.588   9.880   4.723
76979SOL     OW32833   9.587   1.928   6.093
76979SOL    HW132834   9.681   1.911   6.100
76979SOL    HW232835   9.554   1.920   6.183
76980SOL     OW32836   8.029   0.183   8.476
76980SOL    HW132837   7.952   0.180   8.421
76980SOL    HW232838   8.044   0.276   8.492
76981SOL     OW32839   1.950  12.916   9.600
76981SOL    HW132840   2.027  12.938   9.548
76981SOL    HW232841   1.982  12.853   9.665
76982SOL     OW32842   8.289   1.113   8.870
76982SOL    HW132843   8.358   1.106   8.936
76982SOL    HW232844   8.229   1.179   8.905
76983SOL     OW32845   8.007   9.328   8.695
76983SOL    HW132846   8.006   9.409   8.745
76983SOL    HW232847   8.044   9.352   8.611
76984SOL     OW32848   5.664  12.378  13.021
76984SOL    HW132849   5.697  12.302  13.069
76984SOL    HW232850   5.738  12.406  12.967
76985SOL     OW32851   6.157   1.767  12.709
76985SOL    HW132852   6.109   1.725  12.638
76985SOL    HW232853   6.091   1.818  12.756
76986SOL     OW32854   7.437   9.339   2.545
76986SOL    HW132855   7.394   9.293   2.617
76986SOL    HW232856   7.442   9.275   2.474
76987SOL     OW32857  10.606  10.601   3.124
76987SOL    HW132858  10.658  10.651   3.061
76987SOL    HW232859  10.540  10.663   3.155
76988SOL     OW32860  11.172  13.017  12.073
76988SOL    HW132861  11.130  13.048  11.993
76988SOL    HW232862  11.264  13.006  12.050
76989SOL     OW32863   7.236   3.932  14.777
76989SOL    HW132864   7.164   3.890  14.824
76989SOL    HW232865   7.208   4.022  14.765
76990SOL     OW32866  11.075   2.510   3.165
76990SOL    HW132867  10.989   2.506   3.209
76990SOL    HW232868  11.108   2.598   3.185
76991SOL     OW32869  12.743   8.142   9.344
76991SOL    HW132870  12.651   8.169   9.347
76991SOL    HW232871  12.773   8.150   9.434
76992SOL     OW32872   5.833   7.112  11.852
76992SOL    HW132873   5.743   7.143  11.853
76992SOL    HW232874   5.881   7.179  11.902
76993SOL     OW32875   4.940  13.332  14.312
76993SOL    HW132876   4.876  13.343  14.242
76993SOL    HW232877   4.944  13.237  14.326
76994SOL     OW32878   0.067  12.398   9.774
76994SOL    HW132879   0.123  12.457   9.723
76994SOL    HW232880   0.018  12.348   9.709
76995SOL     OW32881   8.373   9.659   1.732
76995SOL    HW132882   8.352   9.748   1.704
76995SOL    HW232883   8.337   9.653   1.821
76996SOL     OW32884   3.824  11.172   0.407
76996SOL    HW132885   3.817  11.233   0.334
76996SOL    HW232886   3.884  11.214   0.468
76997SOL     OW32887   6.304   1.715   7.124
76997SOL    HW132888   6.322   1.624   7.146
76997SOL    HW232889   6.357   1.765   7.186
76998SOL     OW32890   8.059  10.011   8.177
76998SOL    HW132891   8.128  10.049   8.122
76998SOL    HW232892   8.058  10.066   8.256
76999SOL     OW32893   1.268  13.476  14.815
76999SOL    HW132894   1.214  13.545  14.776
76999SOL    HW232895   1.214  13.398  14.811
77000SOL     OW32896   2.211   8.708   8.499
77000SOL    HW132897   2.289   8.732   8.449
77000SOL    HW232898   2.214   8.763   8.577
77001SOL     OW32899  10.137  12.034  10.993
77001SOL    HW132900  10.055  12.038  10.945
77001SOL    HW232901  10.189  12.106  10.957
77002SOL     OW32902  13.095  10.064   1.685
77002SOL    HW132903  13.120   9.993   1.744
77002SOL    HW232904  13.022  10.029   1.634
77003SOL     OW32905  10.356   9.232   2.268
77003SOL    HW132906  10.444   9.202   2.245
77003SOL    HW232907  10.332   9.178   2.344
77004SOL     OW32908  13.492  12.669   0.078
77004SOL    HW132909  13.550  12.726   0.127
77004SOL    HW232910  13.411  12.668   0.128
77005SOL     OW32911   6.576   4.633   3.326
77005SOL    HW132912   6.634   4.603   3.397
77005SOL    HW232913   6.533   4.553   3.296
77006SOL     OW32914  10.129   7.604   5.634
77006SOL    HW132915  10.083   7.564   5.560
77006SOL    HW232916  10.066   7.666   5.670
77007SOL     OW32917   9.340   4.740   3.917
77007SOL    HW132918   9.246   4.734   3.933
77007SOL    HW232919   9.380   4.698   3.993
77008SOL     OW32920  14.777   3.626   6.893
77008SOL    HW132921  14.812   3.632   6.982
77008SOL    HW232922  14.795   3.711   6.853
77009SOL     OW32923   3.985   6.559  13.388
77009SOL    HW132924   4.060   6.596  13.341
77009SOL    HW232925   4.010   6.562  13.480
77010SOL     OW32926  12.120   7.804   3.869
77010SOL    HW132927  12.080   7.789   3.954
77010SOL    HW232928  12.191   7.741   3.864
77011SOL     OW32929  12.705  12.509   9.128
77011SOL    HW132930  12.742  12.462   9.203
77011SOL    HW232931  12.611  12.490   9.132
77012SOL     OW32932  14.217  10.431   4.486
77012SOL    HW132933  14.311  10.420   4.475
77012SOL    HW232934  14.207  10.520   4.519
77013SOL     OW32935   8.398   6.036   2.792
77013SOL    HW132936   8.437   5.993   2.867
77013SOL    HW232937   8.304   6.040   2.812
77014SOL     OW32938   2.363   8.409   2.386
77014SOL    HW132939   2.281   8.417   2.336
77014SOL    HW232940   2.430   8.440   2.326
77015SOL     OW32941  11.899   0.773   1.768
77015SOL    HW132942  11.842   0.845   1.795
77015SOL    HW232943  11.987   0.806   1.783
77016SOL     OW32944   4.139   7.316  11.282
77016SOL    HW132945   4.075   7.324  11.352
77016SOL    HW232946   4.190   7.396  11.287
77017SOL     OW32947   1.391  11.753   5.292
77017SOL    HW132948   1.383  11.659   5.302
77017SOL    HW232949   1.314  11.779   5.241
77018SOL     OW32950   3.601   9.656  11.183
77018SOL    HW132951   3.529   9.703  11.225
77018SOL    HW232952   3.577   9.653  11.091
77019SOL     OW32953   9.798  13.891   9.002
77019SOL    HW132954   9.772  13.811   9.047
77019SOL    HW232955   9.798  13.958   9.070
77020SOL     OW32956   6.114  11.558   9.056
77020SOL    HW132957   6.103  11.479   9.003
77020SOL    HW232958   6.181  11.536   9.120
77021SOL     OW32959  10.075   3.635   5.295
77021SOL    HW132960  10.161   3.594   5.281
77021SOL    HW232961  10.095   3.726   5.316
77022SOL     OW32962  10.992   4.686  12.847
77022SOL    HW132963  11.069   4.685  12.905
77022SOL    HW232964  10.923   4.643  12.898
77023SOL     OW32965  14.855  12.773   4.926
77023SOL    HW132966  14.810  12.701   4.969
77023SOL    HW232967  14.786  12.822   4.881
77024SOL     OW32968  13.712   3.452   7.981
77024SOL    HW132969  13.637   3.509   7.962
77024SOL    HW232970  13.789   3.505   7.960
77025SOL     OW32971   9.880   7.335  13.743
77025SOL    HW132972   9.817   7.289  13.688
77025SOL    HW232973   9.949   7.270  13.760
77026SOL     OW32974  13.402   8.907  11.454
77026SOL    HW132975  13.377   8.817  11.472
77026SOL    HW232976  13.453   8.901  11.373
77027SOL     OW32977   4.807   4.070   3.122
77027SOL    HW132978   4.772   4.089   3.209
77027SOL    HW232979   4.825   4.157   3.085
77028SOL     OW32980   6.028   8.654  10.465
77028SOL    HW132981   6.031   8.676  10.559
77028SOL    HW232982   6.091   8.582  10.456
77029SOL     OW32983  10.804  10.259   4.685
77029SOL    HW132984  10.865  10.253   4.611
77029SOL    HW232985  10.792  10.353   4.698
77030SOL     OW32986  11.181  13.383   8.372
77030SOL    HW132987  11.258  13.439   8.377
77030SOL    HW232988  11.202  13.318   8.305
77031SOL     OW32989  10.060   1.521   4.508
77031SOL    HW132990  10.047   1.541   4.416
77031SOL    HW232991   9.985   1.560   4.552
77032SOL     OW32992  12.767   2.132   9.881
77032SOL    HW132993  12.740   2.126   9.789
77032SOL    HW232994  12.746   2.046   9.918
77033SOL     OW32995   6.327   2.443   5.502
77033SOL    HW132996   6.251   2.457   5.446
77033SOL    HW232997   6.400   2.436   5.442
77034SOL     OW32998   5.466   2.750  10.177
77034SOL    HW132999   5.391   2.795  10.140
77034SOL    HW233000   5.510   2.816  10.231
77035SOL     OW33001   1.374   7.067   6.194
77035SOL    HW133002   1.401   7.086   6.104
77035SOL    HW233003   1.310   6.995   6.185
77036SOL     OW33004   4.340   0.502   9.941
77036SOL    HW133005   4.248   0.479   9.927
77036SOL    HW233006   4.385   0.418   9.951
77037SOL     OW33007  10.735   1.111   3.389
77037SOL    HW133008  10.709   1.202   3.402
77037SOL    HW233009  10.706   1.066   3.468
77038SOL     OW33010  12.845   4.115   9.349
77038SOL    HW133011  12.822   4.034   9.395
77038SOL    HW233012  12.811   4.102   9.260
77039SOL     OW33013  11.689  12.379  13.771
77039SOL    HW133014  11.775  12.385  13.729
77039SOL    HW233015  11.632  12.342  13.703
77040SOL     OW33016   7.995  13.432   4.416
77040SOL    HW133017   7.985  13.420   4.321
77040SOL    HW233018   8.065  13.371   4.440
77041SOL     OW33019   3.876   0.328  12.534
77041SOL    HW133020   3.915   0.315  12.448
77041SOL    HW233021   3.792   0.282  12.529
77042SOL     OW33022   0.973   3.801  12.323
77042SOL    HW133023   0.964   3.890  12.355
77042SOL    HW233024   0.885   3.763  12.331
77043SOL     OW33025   2.234  10.857   4.580
77043SOL    HW133026   2.271  10.801   4.511
77043SOL    HW233027   2.308  10.909   4.611
77044SOL     OW33028   4.227  14.799  14.361
77044SOL    HW133029   4.276  14.860  14.417
77044SOL    HW233030   4.257  14.818  14.272
77045SOL     OW33031   6.381  13.868   6.599
77045SOL    HW133032   6.447  13.917   6.550
77045SOL    HW233033   6.380  13.908   6.685
77046SOL     OW33034   9.595   7.467   8.333
77046SOL    HW133035   9.643   7.385   8.334
77046SOL    HW233036   9.503   7.441   8.333
77047SOL     OW33037   1.673   4.093   5.973
77047SOL    HW133038   1.629   4.039   5.908
77047SOL    HW233039   1.743   4.137   5.925
77048SOL     OW33040  11.788   9.365  10.605
77048SOL    HW133041  11.703   9.347  10.565
77048SOL    HW233042  11.830   9.426  10.546
77049SOL     OW33043   2.968   3.990  14.169
77049SOL    HW133044   2.959   4.050  14.243
77049SOL    HW233045   2.879   3.959  14.153
77050SOL     OW33046   5.214  14.327   8.016
77050SOL    HW133047   5.191  14.251   7.961
77050SOL    HW233048   5.162  14.399   7.980
77051SOL     OW33049   5.852   6.839  12.013
77051SOL    HW133050   5.848   6.933  11.995
77051SOL    HW233051   5.788   6.800  11.953
77052SOL     OW33052  11.478   1.519  11.094
77052SOL    HW133053  11.481   1.424  11.078
77052SOL    HW233054  11.488   1.528  11.189
77053SOL     OW33055   1.091   0.937  12.238
77053SOL    HW133056   0.998   0.960  12.241
77053SOL    HW233057   1.108   0.918  12.146
77054SOL     OW33058   8.071  12.244   0.393
77054SOL    HW133059   8.150  12.272   0.440
77054SOL    HW233060   8.103  12.184   0.325
77055SOL     OW33061   1.687   7.188  11.635
77055SOL    HW133062   1.680   7.125  11.706
77055SOL    HW233063   1.772   7.170  11.596
77056SOL     OW33064   7.375  13.685   7.534
77056SOL    HW133065   7.314  13.625   7.492
77056SOL    HW233066   7.462  13.652   7.511
77057SOL     OW33067   1.388   4.072   2.956
77057SOL    HW133068   1.462   4.035   3.004
77057SOL    HW233069   1.324   4.000   2.953
77058SOL     OW33070   1.089  12.808  11.324
77058SOL    HW133071   1.160  12.860  11.361
77058SOL    HW233072   1.009  12.855  11.347
77059SOL     OW33073   2.459   6.833  14.756
77059SOL    HW133074   2.443   6.783  14.677
77059SOL    HW233075   2.551   6.859  14.750
77060SOL     OW33076   2.402  14.136   6.820
77060SOL    HW133077   2.427  14.209   6.876
77060SOL    HW233078   2.401  14.172   6.731
77061SOL     OW33079   3.597   7.864  13.711
77061SOL    HW133080   3.612   7.785  13.659
77061SOL    HW233081   3.561   7.928  13.649
77062SOL     OW33082   8.968  11.524   1.702
77062SOL    HW133083   8.891  11.527   1.646
77062SOL    HW233084   9.020  11.451   1.668
77063SOL     OW33085   1.359   7.954   9.619
77063SOL    HW133086   1.280   7.900   9.616
77063SOL    HW233087   1.354   7.999   9.704
77064SOL     OW33088  10.129   0.058   0.627
77064SOL    HW133089  10.052   0.115   0.634
77064SOL    HW233090  10.163   0.053   0.716
77065SOL     OW33091   8.686   2.044   8.842
77065SOL    HW133092   8.727   2.131   8.844
77065SOL    HW233093   8.727   2.000   8.767
77066SOL     OW33094  10.245   8.064   0.421
77066SOL    HW133095  10.195   8.140   0.390
77066SOL    HW233096  10.214   7.992   0.366
77067SOL     OW33097   6.119  10.123   9.656
77067SOL    HW133098   6.208  10.127   9.692
77067SOL    HW233099   6.112  10.034   9.622
77068SOL     OW33100   7.764  11.988   7.930
77068SOL    HW133101   7.759  11.895   7.951
77068SOL    HW233102   7.677  12.011   7.898
77069SOL     OW33103   2.666   2.679   7.555
77069SOL    HW133104   2.619   2.602   7.587
77069SOL    HW233105   2.608   2.716   7.488
77070SOL     OW33106   5.795  14.004   0.527
77070SOL    HW133107   5.775  14.065   0.456
77070SOL    HW233108   5.750  14.040   0.603
77071SOL     OW33109   3.977   4.358   3.245
77071SOL    HW133110   4.064   4.383   3.277
77071SOL    HW233111   3.939   4.440   3.213
77072SOL     OW33112   8.017  10.603   7.133
77072SOL    HW133113   8.043  10.632   7.221
77072SOL    HW233114   8.094  10.620   7.079
77073SOL     OW33115  13.297   9.694  13.296
77073SOL    HW133116  13.342   9.745  13.362
77073SOL    HW233117  13.335   9.606  13.303
77074SOL     OW33118  14.851   6.865   4.399
77074SOL    HW133119   0.004   6.908   4.482
77074SOL    HW233120  14.758   6.843   4.407
77075SOL     OW33121   2.907  13.622  12.880
77075SOL    HW133122   2.923  13.529  12.865
77075SOL    HW233123   2.820  13.626  12.919
77076SOL     OW33124  11.070   0.896   1.948
77076SOL    HW133125  11.024   0.892   2.031
77076SOL    HW233126  11.118   0.814   1.942
77077SOL     OW33127   9.254  13.052   4.344
77077SOL    HW133128   9.323  13.117   4.334
77077SOL    HW233129   9.189  13.077   4.278
77078SOL     OW33130   6.808   2.219   8.722
77078SOL    HW133131   6.770   2.176   8.646
77078SOL    HW233132   6.897   2.185   8.727
77079SOL     OW33133  10.793   8.361   0.387
77079SOL    HW133134  10.888   8.357   0.387
77079SOL    HW233135  10.771   8.427   0.453
77080SOL     OW33136   3.603   3.865   9.899
77080SOL    HW133137   3.662   3.918   9.844
77080SOL    HW233138   3.523   3.857   9.847
77081SOL     OW33139   8.831   9.272   0.238
77081SOL    HW133140   8.921   9.257   0.210
77081SOL    HW233141   8.818   9.214   0.313
77082SOL     OW33142   5.322   2.954   7.603
77082SOL    HW133143   5.267   2.879   7.583
77082SOL    HW233144   5.357   2.982   7.518
77083SOL     OW33145  10.744   9.609   0.985
77083SOL    HW133146  10.822   9.584   1.034
77083SOL    HW233147  10.728   9.535   0.927
77084SOL     OW33148  10.420  10.358   8.112
77084SOL    HW133149  10.401  10.267   8.088
77084SOL    HW233150  10.413  10.406   8.029
77085SOL     OW33151   8.733   0.697   3.818
77085SOL    HW133152   8.718   0.615   3.772
77085SOL    HW233153   8.679   0.692   3.896
77086SOL     OW33154   5.131   5.418   3.415
77086SOL    HW133155   5.041   5.408   3.384
77086SOL    HW233156   5.125   5.408   3.510
77087SOL     OW33157   2.302  13.368   6.489
77087SOL    HW133158   2.321  13.425   6.563
77087SOL    HW233159   2.296  13.426   6.414
77088SOL     OW33160   2.912   1.715   3.357
77088SOL    HW133161   2.866   1.752   3.433
77088SOL    HW233162   2.845   1.708   3.289
77089SOL     OW33163   1.452   6.584   2.018
77089SOL    HW133164   1.495   6.557   1.937
77089SOL    HW233165   1.454   6.506   2.074
77090SOL     OW33166  12.924  11.645   3.560
77090SOL    HW133167  12.906  11.706   3.489
77090SOL    HW233168  12.957  11.566   3.517
77091SOL     OW33169   3.478   2.158   3.984
77091SOL    HW133170   3.477   2.093   4.054
77091SOL    HW233171   3.412   2.223   4.011
77092SOL     OW33172   0.435   3.038   0.802
77092SOL    HW133173   0.457   2.952   0.840
77092SOL    HW233174   0.515   3.065   0.756
77093SOL     OW33175  13.317  14.487  14.338
77093SOL    HW133176  13.391  14.442  14.378
77093SOL    HW233177  13.340  14.580  14.342
77094SOL     OW33178  13.647   9.133   7.761
77094SOL    HW133179  13.680   9.180   7.684
77094SOL    HW233180  13.714   9.068   7.780
77095SOL     OW33181   0.879   4.359   0.251
77095SOL    HW133182   0.845   4.356   0.161
77095SOL    HW233183   0.944   4.289   0.254
77096SOL     OW33184   5.723   3.522   2.611
77096SOL    HW133185   5.659   3.488   2.549
77096SOL    HW233186   5.683   3.601   2.647
77097SOL     OW33187   1.810   9.912   5.630
77097SOL    HW133188   1.722   9.928   5.665
77097SOL    HW233189   1.866   9.974   5.677
77098SOL     OW33190   3.530   0.462  12.054
77098SOL    HW133191   3.468   0.466  11.981
77098SOL    HW233192   3.540   0.553  12.083
77099SOL     OW33193   3.639   6.019   4.654
77099SOL    HW133194   3.662   5.987   4.566
77099SOL    HW233195   3.567   5.963   4.681
77100SOL     OW33196   8.291   0.240   3.901
77100SOL    HW133197   8.302   0.186   3.979
77100SOL    HW233198   8.301   0.179   3.828
77101SOL     OW33199   5.000   2.345  11.171
77101SOL    HW133200   4.996   2.319  11.079
77101SOL    HW233201   4.909   2.362  11.195
77102SOL     OW33202  14.248   7.884  11.379
77102SOL    HW133203  14.230   7.801  11.334
77102SOL    HW233204  14.211   7.951  11.320
77103SOL     OW33205   3.402  12.555  13.953
77103SOL    HW133206   3.483  12.546  14.004
77103SOL    HW233207   3.343  12.604  14.011
77104SOL     OW33208   4.642   9.276   1.821
77104SOL    HW133209   4.680   9.250   1.737
77104SOL    HW233210   4.666   9.206   1.881
77105SOL     OW33211   9.750   6.361   6.875
77105SOL    HW133212   9.784   6.389   6.790
77105SOL    HW233213   9.819   6.303   6.910
77106SOL     OW33214   8.869   4.790   2.605
77106SOL    HW133215   8.866   4.866   2.663
77106SOL    HW233216   8.954   4.749   2.624
77107SOL     OW33217  10.798   8.474  10.292
77107SOL    HW133218  10.712   8.445  10.323
77107SOL    HW233219  10.822   8.545  10.351
77108SOL     OW33220   5.315  13.467  11.627
77108SOL    HW133221   5.361  13.442  11.547
77108SOL    HW233222   5.281  13.385  11.662
77109SOL     OW33223   7.760   2.163   3.989
77109SOL    HW133224   7.855   2.158   3.984
77109SOL    HW233225   7.731   2.155   3.898
77110SOL     OW33226   3.871  10.867   6.633
77110SOL    HW133227   3.792  10.918   6.647
77110SOL    HW233228   3.905  10.850   6.721
77111SOL     OW33229   0.488   5.515   1.788
77111SOL    HW133230   0.476   5.582   1.721
77111SOL    HW233231   0.520   5.438   1.741
77112SOL     OW33232   4.571   5.328   4.528
77112SOL    HW133233   4.584   5.408   4.578
77112SOL    HW233234   4.584   5.354   4.437
77113SOL     OW33235   3.829  14.694   6.043
77113SOL    HW133236   3.765  14.723   6.107
77113SOL    HW233237   3.842  14.770   5.987
77114SOL     OW33238   5.888   9.307  10.047
77114SOL    HW133239   5.982   9.285  10.048
77114SOL    HW233240   5.864   9.313  10.140
77115SOL     OW33241  12.174  13.455  10.308
77115SOL    HW133242  12.177  13.493  10.396
77115SOL    HW233243  12.082  13.430  10.297
77116SOL     OW33244   6.463   8.748   5.498
77116SOL    HW133245   6.392   8.710   5.446
77116SOL    HW233246   6.520   8.791   5.433
77117SOL     OW33247   5.834  12.939  12.028
77117SOL    HW133248   5.797  12.885  11.958
77117SOL    HW233249   5.828  13.028  11.994
77118SOL     OW33250   6.584  14.361  14.475
77118SOL    HW133251   6.632  14.430  14.430
77118SOL    HW233252   6.494  14.371  14.444
77119SOL     OW33253  13.679   4.931   5.715
77119SOL    HW133254  13.722   5.007   5.755
77119SOL    HW233255  13.648   4.879   5.790
77120SOL     OW33256   1.356  10.681   9.043
77120SOL    HW133257   1.425  10.647   8.986
77120SOL    HW233258   1.398  10.753   9.091
77121SOL     OW33259   2.526  13.271   7.335
77121SOL    HW133260   2.522  13.184   7.296
77121SOL    HW233261   2.549  13.329   7.263
77122SOL     OW33262   2.903   5.822   1.196
77122SOL    HW133263   2.896   5.870   1.114
77122SOL    HW233264   2.824   5.846   1.245
77123SOL     OW33265   9.711   3.893  10.469
77123SOL    HW133266   9.789   3.842  10.491
77123SOL    HW233267   9.741   3.984  10.469
77124SOL     OW33268   6.297  13.278  12.909
77124SOL    HW133269   6.356  13.324  12.849
77124SOL    HW233270   6.324  13.186  12.904
77125SOL     OW33271   3.230   4.881   8.116
77125SOL    HW133272   3.176   4.941   8.167
77125SOL    HW233273   3.317   4.889   8.155
77126SOL     OW33274  11.341   8.983  11.492
77126SOL    HW133275  11.262   9.011  11.445
77126SOL    HW233276  11.376   8.911  11.439
77127SOL     OW33277  12.737  10.534  11.985
77127SOL    HW133278  12.647  10.533  11.952
77127SOL    HW233279  12.737  10.472  12.058
77128SOL     OW33280   9.075  12.915   9.252
77128SOL    HW133281   9.097  12.926   9.159
77128SOL    HW233282   9.160  12.916   9.296
77129SOL     OW33283   0.772  10.603  10.466
77129SOL    HW133284   0.733  10.679  10.508
77129SOL    HW233285   0.703  10.568  10.410
77130SOL     OW33286   5.336   7.459   3.457
77130SOL    HW133287   5.316   7.397   3.528
77130SOL    HW233288   5.427   7.440   3.434
77131SOL     OW33289   0.223   8.219   5.950
77131SOL    HW133290   0.194   8.137   5.910
77131SOL    HW233291   0.307   8.238   5.907
77132SOL     OW33292   9.991  13.329   0.555
77132SOL    HW133293  10.059  13.294   0.497
77132SOL    HW233294   9.958  13.252   0.602
77133SOL     OW33295  11.794   8.413   9.763
77133SOL    HW133296  11.797   8.431   9.856
77133SOL    HW233297  11.741   8.333   9.756
77134SOL     OW33298  13.793   1.423   8.970
77134SOL    HW133299  13.860   1.399   9.033
77134SOL    HW233300  13.842   1.449   8.892
77135SOL     OW33301   1.755  14.764   1.722
77135SOL    HW133302   1.840  14.772   1.766
77135SOL    HW233303   1.699  14.721   1.787
77136SOL     OW33304  14.103   6.507  11.256
77136SOL    HW133305  14.197   6.494  11.240
77136SOL    HW233306  14.062   6.427  11.224
77137SOL     OW33307   0.353   6.274   9.370
77137SOL    HW133308   0.439   6.261   9.410
77137SOL    HW233309   0.371   6.275   9.276
77138SOL     OW33310  13.014   1.849   8.271
77138SOL    HW133311  13.099   1.805   8.261
77138SOL    HW233312  13.029   1.914   8.341
77139SOL     OW33313   2.890  12.611   1.583
77139SOL    HW133314   2.834  12.688   1.572
77139SOL    HW233315   2.869  12.555   1.508
77140SOL     OW33316   1.383   6.377   7.667
77140SOL    HW133317   1.423   6.309   7.613
77140SOL    HW233318   1.426   6.458   7.639
77141SOL     OW33319   2.708  14.856   6.702
77141SOL    HW133320   2.669   0.065   6.742
77141SOL    HW233321   2.710   0.006   6.608
77142SOL     OW33322   5.376   6.238   3.750
77142SOL    HW133323   5.417   6.155   3.773
77142SOL    HW233324   5.445   6.303   3.760
77143SOL     OW33325   5.254   4.914  14.839
77143SOL    HW133326   5.235   4.962   0.050
77143SOL    HW233327   5.349   4.925  14.827
77144SOL     OW33328   1.392  12.943   5.160
77144SOL    HW133329   1.333  12.921   5.232
77144SOL    HW233330   1.333  12.969   5.089
77145SOL     OW33331   0.961   1.298  13.258
77145SOL    HW133332   0.984   1.369  13.318
77145SOL    HW233333   0.913   1.341  13.187
77146SOL     OW33334   3.480  11.268  11.455
77146SOL    HW133335   3.479  11.363  11.470
77146SOL    HW233336   3.539  11.234  11.522
77147SOL     OW33337   0.009   9.615   0.051
77147SOL    HW133338   0.041   9.544  14.865
77147SOL    HW233339   0.045   9.597   0.137
77148SOL     OW33340   1.632  11.729   9.610
77148SOL    HW133341   1.541  11.739   9.639
77148SOL    HW233342   1.637  11.639   9.577
77149SOL     OW33343   9.045   6.624  11.764
77149SOL    HW133344   9.038   6.576  11.681
77149SOL    HW233345   9.123   6.679  11.753
77150SOL     OW33346  14.231   5.930  14.599
77150SOL    HW133347  14.311   5.978  14.620
77150SOL    HW233348  14.171   5.996  14.565
77151SOL     OW33349   6.870   4.067   3.757
77151SOL    HW133350   6.857   4.133   3.824
77151SOL    HW233351   6.783   4.055   3.718
77152SOL     OW33352  11.369   5.082  10.928
77152SOL    HW133353  11.350   5.045  11.014
77152SOL    HW233354  11.313   5.033  10.867
77153SOL     OW33355   9.330   9.032   4.296
77153SOL    HW133356   9.366   9.037   4.208
77153SOL    HW233357   9.347   8.943   4.325
77154SOL     OW33358  10.603   8.420  11.194
77154SOL    HW133359  10.607   8.505  11.239
77154SOL    HW233360  10.539   8.435  11.123
77155SOL     OW33361   8.323   3.498   5.528
77155SOL    HW133362   8.372   3.534   5.603
77155SOL    HW233363   8.231   3.510   5.551
77156SOL     OW33364  13.719   2.095  11.917
77156SOL    HW133365  13.714   2.130  12.006
77156SOL    HW233366  13.649   2.139  11.869
77157SOL     OW33367   6.363   3.977   7.014
77157SOL    HW133368   6.406   3.997   6.931
77157SOL    HW233369   6.321   4.059   7.039
77158SOL     OW33370   4.550   8.123   8.726
77158SOL    HW133371   4.463   8.092   8.701
77158SOL    HW233372   4.603   8.043   8.729
77159SOL     OW33373  11.222  11.021  14.360
77159SOL    HW133374  11.194  10.933  14.384
77159SOL    HW233375  11.264  11.056  14.439
77160SOL     OW33376   4.847   5.569   0.153
77160SOL    HW133377   4.882   5.649   0.115
77160SOL    HW233378   4.849   5.505   0.081
77161SOL     OW33379   7.128   8.121   3.349
77161SOL    HW133380   7.140   8.068   3.429
77161SOL    HW233381   7.148   8.210   3.377
77162SOL     OW33382   4.197   3.411  14.147
77162SOL    HW133383   4.175   3.325  14.112
77162SOL    HW233384   4.292   3.414  14.144
77163SOL     OW33385  14.391   9.100  11.491
77163SOL    HW133386  14.482   9.098  11.519
77163SOL    HW233387  14.389   9.159  11.416
77164SOL     OW33388   7.479   4.144   9.232
77164SOL    HW133389   7.413   4.142   9.301
77164SOL    HW233390   7.549   4.200   9.266
77165SOL     OW33391   9.111   3.708  12.099
77165SOL    HW133392   9.084   3.758  12.022
77165SOL    HW233393   9.091   3.617  12.077
77166SOL     OW33394   0.236   6.891   6.383
77166SOL    HW133395   0.320   6.846   6.374
77166SOL    HW233396   0.240   6.963   6.320
77167SOL     OW33397  11.017   3.039   3.365
77167SOL    HW133398  10.988   2.949   3.355
77167SOL    HW233399  10.967   3.073   3.439
77168SOL     OW33400  13.390   6.081   4.113
77168SOL    HW133401  13.342   6.131   4.048
77168SOL    HW233402  13.330   6.071   4.186
77169SOL     OW33403   9.730   3.508   0.177
77169SOL    HW133404   9.658   3.446   0.169
77169SOL    HW233405   9.781   3.476   0.251
77170SOL     OW33406  11.246  10.986   0.994
77170SOL    HW133407  11.221  11.023   1.078
77170SOL    HW233408  11.207  10.899   0.993
77171SOL     OW33409  11.964   4.536   7.120
77171SOL    HW133410  12.035   4.473   7.139
77171SOL    HW233411  11.891   4.481   7.093
77172SOL     OW33412  10.238   9.550  12.696
77172SOL    HW133413  10.191   9.531  12.614
77172SOL    HW233414  10.323   9.583  12.668
77173SOL     OW33415   8.833  14.644  14.820
77173SOL    HW133416   8.848  14.718  14.763
77173SOL    HW233417   8.781  14.583  14.768
77174SOL     OW33418  13.534   2.508   2.425
77174SOL    HW133419  13.514   2.433   2.368
77174SOL    HW233420  13.551   2.580   2.365
77175SOL     OW33421   1.030   7.139  10.987
77175SOL    HW133422   1.044   7.192  11.065
77175SOL    HW233423   1.071   7.055  11.008
77176SOL     OW33424   1.737  12.529  13.219
77176SOL    HW133425   1.797  12.537  13.293
77176SOL    HW233426   1.653  12.506  13.257
77177SOL     OW33427   6.875  13.977   4.172
77177SOL    HW133428   6.861  14.066   4.205
77177SOL    HW233429   6.892  13.925   4.250
77178SOL     OW33430   6.075  14.309   7.240
77178SOL    HW133431   6.026  14.235   7.276
77178SOL    HW233432   6.145  14.267   7.189
77179SOL     OW33433   0.261   2.093  10.512
77179SOL    HW133434   0.222   2.033  10.577
77179SOL    HW233435   0.348   2.057  10.496
77180SOL     OW33436  13.954   8.517   3.613
77180SOL    HW133437  14.047   8.502   3.597
77180SOL    HW233438  13.951   8.571   3.692
77181SOL     OW33439  10.919  10.777   6.942
77181SOL    HW133440  10.834  10.802   6.906
77181SOL    HW233441  10.901  10.699   6.995
77182SOL     OW33442  11.793  10.060   1.435
77182SOL    HW133443  11.800  10.013   1.352
77182SOL    HW233444  11.721  10.121   1.423
77183SOL     OW33445   7.411   4.234   8.954
77183SOL    HW133446   7.442   4.187   8.877
77183SOL    HW233447   7.432   4.177   9.028
77184SOL     OW33448  14.835   3.758   5.427
77184SOL    HW133449   0.025   3.782   5.498
77184SOL    HW233450   0.022   3.740   5.352
77185SOL     OW33451   7.978   7.821   6.428
77185SOL    HW133452   8.016   7.858   6.508
77185SOL    HW233453   7.896   7.869   6.416
77186SOL     OW33454   9.575   6.126   1.897
77186SOL    HW133455   9.598   6.199   1.841
77186SOL    HW233456   9.514   6.163   1.961
77187SOL     OW33457  13.515  13.390  11.830
77187SOL    HW133458  13.517  13.295  11.829
77187SOL    HW233459  13.489  13.414  11.741
77188SOL     OW33460   5.331   7.547  11.213
77188SOL    HW133461   5.267   7.567  11.145
77188SOL    HW233462   5.279   7.543  11.294
77189SOL     OW33463  12.921  11.257   9.797
77189SOL    HW133464  12.991  11.284   9.737
77189SOL    HW233465  12.965  11.241   9.880
77190SOL     OW33466  13.535   5.557   4.005
77190SOL    HW133467  13.444   5.553   4.035
77190SOL    HW233468  13.552   5.651   3.993
77191SOL     OW33469   4.577  11.512   9.104
77191SOL    HW133470   4.508  11.577   9.087
77191SOL    HW233471   4.530  11.429   9.111
77192SOL     OW33472   3.521  11.736   4.943
77192SOL    HW133473   3.455  11.670   4.923
77192SOL    HW233474   3.579  11.694   5.007
77193SOL     OW33475   0.582   6.466   7.867
77193SOL    HW133476   0.599   6.439   7.957
77193SOL    HW233477   0.487   6.480   7.864
77194SOL     OW33478   8.746   3.955   0.605
77194SOL    HW133479   8.801   3.901   0.662
77194SOL    HW233480   8.780   4.044   0.617
77195SOL     OW33481  11.073   0.542  12.663
77195SOL    HW133482  11.056   0.536  12.757
77195SOL    HW233483  11.168   0.541  12.656
77196SOL     OW33484  14.453   2.011   9.876
77196SOL    HW133485  14.422   2.060   9.952
77196SOL    HW233486  14.411   2.054   9.801
77197SOL     OW33487   8.870   1.139  14.719
77197SOL    HW133488   8.941   1.090  14.759
77197SOL    HW233489   8.815   1.167  14.792
77198SOL     OW33490   6.476   2.166  10.889
77198SOL    HW133491   6.388   2.180  10.924
77198SOL    HW233492   6.507   2.254  10.866
77199SOL     OW33493  11.951   0.557   7.060
77199SOL    HW133494  11.925   0.592   7.145
77199SOL    HW233495  11.869   0.554   7.010
77200SOL     OW33496  11.926   2.933  10.953
77200SOL    HW133497  12.016   2.945  10.922
77200SOL    HW233498  11.874   2.990  10.897
77201SOL     OW33499   2.626   1.442  11.454
77201SOL    HW133500   2.675   1.364  11.428
77201SOL    HW233501   2.655   1.460  11.543
77202SOL     OW33502   8.428  10.270  14.418
77202SOL    HW133503   8.339  10.238  14.434
77202SOL    HW233504   8.455  10.225  14.338
77203SOL     OW33505  13.189   5.277  12.353
77203SOL    HW133506  13.128   5.204  12.353
77203SOL    HW233507  13.213   5.289  12.445
77204SOL     OW33508   9.637   0.753   7.564
77204SOL    HW133509   9.553   0.744   7.610
77204SOL    HW233510   9.624   0.826   7.504
77205SOL     OW33511   6.001   7.305   9.741
77205SOL    HW133512   6.071   7.241   9.749
77205SOL    HW233513   5.972   7.298   9.650
77206SOL     OW33514   8.489  13.819  10.836
77206SOL    HW133515   8.447  13.740  10.802
77206SOL    HW233516   8.519  13.866  10.758
77207SOL     OW33517   9.333   4.345   0.284
77207SOL    HW133518   9.386   4.367   0.208
77207SOL    HW233519   9.269   4.416   0.291
77208SOL     OW33520  11.733   4.537  12.537
77208SOL    HW133521  11.751   4.443  12.535
77208SOL    HW233522  11.815   4.578  12.511
77209SOL     OW33523   2.017   5.478   2.983
77209SOL    HW133524   2.089   5.471   3.046
77209SOL    HW233525   2.024   5.567   2.948
77210SOL     OW33526   6.953   4.356   2.040
77210SOL    HW133527   6.860   4.380   2.041
77210SOL    HW233528   6.958   4.275   2.090
77211SOL     OW33529   8.920  14.061   8.325
77211SOL    HW133530   8.833  14.020   8.327
77211SOL    HW233531   8.911  14.133   8.263
77212SOL     OW33532   8.863   9.485   4.682
77212SOL    HW133533   8.857   9.505   4.775
77212SOL    HW233534   8.903   9.398   4.679
77213SOL     OW33535   5.021   8.411   7.692
77213SOL    HW133536   5.066   8.487   7.729
77213SOL    HW233537   4.962   8.382   7.762
77214SOL     OW33538   8.434   7.349   0.277
77214SOL    HW133539   8.426   7.254   0.287
77214SOL    HW233540   8.526   7.363   0.256
77215SOL     OW33541   1.907  12.788   4.477
77215SOL    HW133542   1.972  12.762   4.543
77215SOL    HW233543   1.890  12.880   4.495
77216SOL     OW33544   2.156   9.367   3.620
77216SOL    HW133545   2.210   9.349   3.697
77216SOL    HW233546   2.217   9.405   3.556
77217SOL     OW33547  10.802  11.295   9.796
77217SOL    HW133548  10.868  11.331   9.737
77217SOL    HW233549  10.788  11.205   9.764
77218SOL     OW33550   7.384   1.973  11.824
77218SOL    HW133551   7.374   2.039  11.755
77218SOL    HW233552   7.431   1.901  11.781
77219SOL     OW33553   6.878  13.399  13.122
77219SOL    HW133554   6.829  13.481  13.126
77219SOL    HW233555   6.821  13.339  13.074
77220SOL     OW33556  12.360   0.942   3.000
77220SOL    HW133557  12.397   1.031   2.994
77220SOL    HW233558  12.397   0.907   3.081
77221SOL     OW33559  12.218  14.523   2.461
77221SOL    HW133560  12.138  14.568   2.489
77221SOL    HW233561  12.191  14.470   2.387
77222SOL     OW33562  12.707   2.587   1.569
77222SOL    HW133563  12.682   2.674   1.537
77222SOL    HW233564  12.794   2.600   1.607
77223SOL     OW33565  12.400  11.403  12.880
77223SOL    HW133566  12.384  11.482  12.828
77223SOL    HW233567  12.394  11.433  12.971
77224SOL     OW33568   4.041   4.652  10.802
77224SOL    HW133569   4.084   4.610  10.877
77224SOL    HW233570   4.065   4.597  10.727
77225SOL     OW33571  11.635   6.484   6.138
77225SOL    HW133572  11.640   6.405   6.192
77225SOL    HW233573  11.590   6.548   6.193
77226SOL     OW33574  14.373   1.133  12.876
77226SOL    HW133575  14.364   1.078  12.954
77226SOL    HW233576  14.368   1.222  12.910
77227SOL     OW33577   4.734   2.994   6.148
77227SOL    HW133578   4.694   3.028   6.228
77227SOL    HW233579   4.662   2.994   6.084
77228SOL     OW33580  13.412   8.857   6.450
77228SOL    HW133581  13.332   8.806   6.439
77228SOL    HW233582  13.401   8.933   6.393
77229SOL     OW33583  10.016  12.361  14.370
77229SOL    HW133584  10.075  12.350  14.444
77229SOL    HW233585  10.038  12.288  14.311
77230SOL     OW33586   6.026   7.206   8.182
77230SOL    HW133587   6.118   7.188   8.202
77230SOL    HW233588   6.026   7.295   8.146
77231SOL     OW33589  11.180  11.416   4.500
77231SOL    HW133590  11.121  11.368   4.442
77231SOL    HW233591  11.177  11.368   4.582
77232SOL     OW33592   1.612  11.438  11.086
77232SOL    HW133593   1.659  11.480  11.158
77232SOL    HW233594   1.639  11.347  11.089
77233SOL     OW33595  11.224   5.354  10.547
77233SOL    HW133596  11.262   5.422  10.492
77233SOL    HW233597  11.218   5.395  10.634
77234SOL     OW33598   5.121   0.535   8.195
77234SOL    HW133599   5.115   0.630   8.186
77234SOL    HW233600   5.107   0.501   8.107
77235SOL     OW33601  10.737   3.280  11.836
77235SOL    HW133602  10.678   3.317  11.900
77235SOL    HW233603  10.788   3.215  11.884
77236SOL     OW33604   7.600   4.834   5.910
77236SOL    HW133605   7.577   4.796   5.995
77236SOL    HW233606   7.696   4.837   5.911
77237SOL     OW33607  13.643   8.414  10.475
77237SOL    HW133608  13.685   8.339  10.432
77237SOL    HW233609  13.607   8.378  10.556
77238SOL     OW33610   0.000   4.849   7.319
77238SOL    HW133611   0.035   4.799   7.245
77238SOL    HW233612  14.777   4.827   7.322
77239SOL     OW33613   1.300   0.417   7.237
77239SOL    HW133614   1.276   0.509   7.246
77239SOL    HW233615   1.218   0.371   7.222
77240SOL     OW33616   1.136  11.966   5.868
77240SOL    HW133617   1.176  11.886   5.835
77240SOL    HW233618   1.193  11.993   5.940
77241SOL     OW33619   0.093  10.800  14.651
77241SOL    HW133620   0.137  10.885  14.659
77241SOL    HW233621   0.037  10.809  14.575
77242SOL     OW33622   3.063  13.525  10.865
77242SOL    HW133623   3.043  13.522  10.958
77242SOL    HW233624   3.006  13.592  10.830
77243SOL     OW33625  11.738   3.527   7.997
77243SOL    HW133626  11.668   3.556   8.056
77243SOL    HW233627  11.700   3.455   7.947
77244SOL     OW33628  11.812   5.142   2.759
77244SOL    HW133629  11.763   5.167   2.838
77244SOL    HW233630  11.863   5.066   2.785
77245SOL     OW33631  11.370  13.605   9.897
77245SOL    HW133632  11.339  13.558   9.819
77245SOL    HW233633  11.326  13.689   9.893
77246SOL     OW33634   4.327   4.328   3.677
77246SOL    HW133635   4.308   4.333   3.770
77246SOL    HW233636   4.241   4.321   3.635
77247SOL     OW33637   0.816   5.454   3.443
77247SOL    HW133638   0.891   5.513   3.433
77247SOL    HW233639   0.855   5.370   3.469
77248SOL     OW33640  14.016   5.663   5.424
77248SOL    HW133641  13.945   5.660   5.359
77248SOL    HW233642  13.972   5.678   5.507
77249SOL     OW33643  13.239  10.148  12.890
77249SOL    HW133644  13.272  10.218  12.947
77249SOL    HW233645  13.256  10.068  12.939
77250SOL     OW33646  11.137  11.460   1.205
77250SOL    HW133647  11.105  11.370   1.214
77250SOL    HW233648  11.091  11.494   1.128
77251SOL     OW33649   7.614   6.375  13.838
77251SOL    HW133650   7.643   6.329  13.760
77251SOL    HW233651   7.521   6.354  13.845
77252SOL     OW33652  10.734   8.489  13.670
77252SOL    HW133653  10.727   8.434  13.748
77252SOL    HW233654  10.819   8.532  13.679
77253SOL     OW33655   0.696   8.395   8.869
77253SOL    HW133656   0.688   8.486   8.841
77253SOL    HW233657   0.627   8.384   8.934
77254SOL     OW33658   0.868   7.322   7.915
77254SOL    HW133659   0.833   7.251   7.969
77254SOL    HW233660   0.929   7.368   7.972
77255SOL     OW33661   8.787   3.686   1.028
77255SOL    HW133662   8.750   3.632   1.098
77255SOL    HW233663   8.712   3.707   0.972
77256SOL     OW33664   3.805  11.313   7.122
77256SOL    HW133665   3.844  11.258   7.055
77256SOL    HW233666   3.719  11.274   7.139
77257SOL     OW33667   2.872   6.348   4.539
77257SOL    HW133668   2.856   6.420   4.479
77257SOL    HW233669   2.858   6.385   4.626
77258SOL     OW33670  12.191  13.949   2.840
77258SOL    HW133671  12.208  13.988   2.926
77258SOL    HW233672  12.254  13.877   2.833
77259SOL     OW33673  13.230   4.816   9.173
77259SOL    HW133674  13.247   4.819   9.079
77259SOL    HW233675  13.143   4.778   9.180
77260SOL     OW33676   0.137   6.168   9.511
77260SOL    HW133677   0.179   6.090   9.546
77260SOL    HW233678   0.208   6.218   9.470
77261SOL     OW33679   0.801   5.187   8.497
77261SOL    HW133680   0.746   5.110   8.513
77261SOL    HW233681   0.819   5.185   8.403
77262SOL     OW33682  13.042   4.653   9.621
77262SOL    HW133683  12.991   4.628   9.698
77262SOL    HW233684  13.012   4.742   9.600
77263SOL     OW33685   8.303  14.159   8.335
77263SOL    HW133686   8.372  14.119   8.283
77263SOL    HW233687   8.273  14.233   8.283
77264SOL     OW33688  13.862   6.683   8.299
77264SOL    HW133689  13.801   6.642   8.238
77264SOL    HW233690  13.892   6.762   8.253
77265SOL     OW33691   6.873   7.498   7.580
77265SOL    HW133692   6.943   7.441   7.548
77265SOL    HW233693   6.864   7.565   7.512
77266SOL     OW33694   1.655  13.269  13.913
77266SOL    HW133695   1.620  13.185  13.882
77266SOL    HW233696   1.580  13.313  13.953
77267SOL     OW33697   0.705   3.372   4.397
77267SOL    HW133698   0.712   3.410   4.485
77267SOL    HW233699   0.637   3.304   4.406
77268SOL     OW33700   0.687  10.314   8.566
77268SOL    HW133701   0.681  10.264   8.647
77268SOL    HW233702   0.607  10.367   8.565
77269SOL     OW33703   7.104   4.975  12.398
77269SOL    HW133704   7.012   4.950  12.401
77269SOL    HW233705   7.140   4.925  12.325
77270SOL     OW33706   8.065   0.579  11.267
77270SOL    HW133707   8.108   0.664  11.270
77270SOL    HW233708   8.099   0.538  11.188
77271SOL     OW33709   0.719   1.716   7.566
77271SOL    HW133710   0.633   1.758   7.572
77271SOL    HW233711   0.712   1.659   7.489
77272SOL     OW33712   4.786  10.733   6.628
77272SOL    HW133713   4.808  10.771   6.713
77272SOL    HW233714   4.702  10.772   6.605
77273SOL     OW33715  11.938   1.018  14.663
77273SOL    HW133716  11.882   0.967  14.605
77273SOL    HW233717  11.955   1.099  14.616
77274SOL     OW33718  14.492   5.493   2.908
77274SOL    HW133719  14.407   5.504   2.867
77274SOL    HW233720  14.521   5.406   2.881
77275SOL     OW33721   3.541   9.942   4.382
77275SOL    HW133722   3.587   9.928   4.300
77275SOL    HW233723   3.512   9.855   4.409
77276SOL     OW33724   0.602  14.603   8.217
77276SOL    HW133725   0.523  14.606   8.163
77276SOL    HW233726   0.657  14.537   8.175
77277SOL     OW33727   4.726   2.980  14.048
77277SOL    HW133728   4.690   3.058  14.006
77277SOL    HW233729   4.707   2.909  13.986
77278SOL     OW33730  11.235   0.361   1.852
77278SOL    HW133731  11.187   0.438   1.883
77278SOL    HW233732  11.323   0.372   1.886
77279SOL     OW33733  10.907   4.658   0.393
77279SOL    HW133734  10.872   4.609   0.319
77279SOL    HW233735  10.877   4.747   0.380
77280SOL     OW33736  14.383  12.183   2.635
77280SOL    HW133737  14.342  12.110   2.590
77280SOL    HW233738  14.343  12.261   2.597
77281SOL     OW33739   7.799  10.782   7.610
77281SOL    HW133740   7.855  10.851   7.646
77281SOL    HW233741   7.721  10.828   7.579
77282SOL     OW33742   1.487   1.508   1.980
77282SOL    HW133743   1.501   1.508   1.885
77282SOL    HW233744   1.540   1.580   2.013
77283SOL     OW33745   9.535   8.749   1.038
77283SOL    HW133746   9.560   8.707   0.956
77283SOL    HW233747   9.596   8.822   1.047
77284SOL     OW33748  11.654   1.708  10.507
77284SOL    HW133749  11.652   1.706  10.603
77284SOL    HW233750  11.568   1.744  10.482
77285SOL     OW33751   8.247  10.754   1.296
77285SOL    HW133752   8.199  10.808   1.233
77285SOL    HW233753   8.189  10.680   1.312
77286SOL     OW33754   7.111   3.095   8.791
77286SOL    HW133755   7.196   3.129   8.818
77286SOL    HW233756   7.087   3.032   8.859
77287SOL     OW33757   5.583   9.389   9.892
77287SOL    HW133758   5.646   9.362   9.958
77287SOL    HW233759   5.613   9.476   9.863
77288SOL     OW33760  11.759   7.947  10.918
77288SOL    HW133761  11.760   8.043  10.922
77288SOL    HW233762  11.670   7.925  10.890
77289SOL     OW33763   2.655   5.723   5.297
77289SOL    HW133764   2.583   5.660   5.297
77289SOL    HW233765   2.730   5.675   5.331
77290SOL     OW33766   4.274   5.376   6.579
77290SOL    HW133767   4.337   5.326   6.527
77290SOL    HW233768   4.298   5.357   6.670
77291SOL     OW33769   7.123  12.572   1.976
77291SOL    HW133770   7.073  12.494   1.953
77291SOL    HW233771   7.154  12.606   1.892
77292SOL     OW33772   9.627   5.913   5.216
77292SOL    HW133773   9.640   5.899   5.122
77292SOL    HW233774   9.578   5.836   5.245
77293SOL     OW33775   2.686  14.525   6.941
77293SOL    HW133776   2.730  14.609   6.932
77293SOL    HW233777   2.622  14.538   7.011
77294SOL     OW33778   6.346   8.062   9.389
77294SOL    HW133779   6.285   7.991   9.372
77294SOL    HW233780   6.386   8.080   9.304
77295SOL     OW33781   4.167   1.480   2.048
77295SOL    HW133782   4.220   1.542   2.097
77295SOL    HW233783   4.137   1.417   2.113
77296SOL     OW33784  14.605  13.374   5.208
77296SOL    HW133785  14.694  13.390   5.240
77296SOL    HW233786  14.560  13.458   5.219
77297SOL     OW33787   9.409   1.575   6.529
77297SOL    HW133788   9.475   1.510   6.503
77297SOL    HW233789   9.446   1.618   6.606
77298SOL     OW33790  14.090   5.686   1.456
77298SOL    HW133791  14.078   5.633   1.377
77298SOL    HW233792  14.008   5.677   1.504
77299SOL     OW33793   3.145   1.569  12.394
77299SOL    HW133794   3.133   1.646  12.450
77299SOL    HW233795   3.240   1.558  12.389
77300SOL     OW33796  11.908   2.215  11.340
77300SOL    HW133797  11.877   2.268  11.266
77300SOL    HW233798  11.979   2.266  11.378
77301SOL     OW33799   3.580   1.399   8.834
77301SOL    HW133800   3.561   1.466   8.767
77301SOL    HW233801   3.642   1.442   8.893
77302SOL     OW33802   8.656   1.997   2.794
77302SOL    HW133803   8.602   2.072   2.769
77302SOL    HW233804   8.598   1.942   2.847
77303SOL     OW33805  11.341   8.041   5.427
77303SOL    HW133806  11.398   7.995   5.366
77303SOL    HW233807  11.253   8.028   5.391
77304SOL     OW33808   6.223   5.643   0.305
77304SOL    HW133809   6.242   5.735   0.323
77304SOL    HW233810   6.261   5.596   0.379
77305SOL     OW33811   3.282   6.517   7.182
77305SOL    HW133812   3.271   6.592   7.240
77305SOL    HW233813   3.364   6.477   7.210
77306SOL     OW33814   1.606   2.096  10.976
77306SOL    HW133815   1.517   2.077  11.006
77306SOL    HW233816   1.647   2.140  11.050
77307SOL     OW33817   0.720   9.283   5.506
77307SOL    HW133818   0.677   9.286   5.421
77307SOL    HW233819   0.767   9.366   5.513
77308SOL     OW33820   4.176   9.095   6.524
77308SOL    HW133821   4.229   9.030   6.478
77308SOL    HW233822   4.240   9.161   6.552
77309SOL     OW33823   4.908  13.772  14.318
77309SOL    HW133824   4.872  13.718  14.247
77309SOL    HW233825   4.997  13.741  14.329
77310SOL     OW33826   8.525   4.500   0.905
77310SOL    HW133827   8.448   4.481   0.958
77310SOL    HW233828   8.518   4.593   0.884
77311SOL     OW33829   3.796  14.608  12.246
77311SOL    HW133830   3.869  14.647  12.197
77311SOL    HW233831   3.719  14.629  12.193
77312SOL     OW33832   9.027   1.416  11.233
77312SOL    HW133833   9.114   1.456  11.241
77312SOL    HW233834   8.966   1.488  11.250
77313SOL     OW33835   4.078  14.020   8.281
77313SOL    HW133836   3.991  14.028   8.241
77313SOL    HW233837   4.074  13.938   8.331
77314SOL     OW33838   8.316  13.233  13.762
77314SOL    HW133839   8.232  13.260  13.797
77314SOL    HW233840   8.347  13.166  13.823
77315SOL     OW33841   7.204   8.116  13.069
77315SOL    HW133842   7.115   8.146  13.051
77315SOL    HW233843   7.193   8.044  13.130
77316SOL     OW33844   7.104   4.587  10.976
77316SOL    HW133845   7.130   4.552  10.891
77316SOL    HW233846   7.180   4.574  11.032
77317SOL     OW33847   5.339  13.628  12.015
77317SOL    HW133848   5.416  13.664  12.060
77317SOL    HW233849   5.375  13.575  11.944
77318SOL     OW33850   8.780   1.471  10.619
77318SOL    HW133851   8.711   1.537  10.617
77318SOL    HW233852   8.752   1.409  10.687
77319SOL     OW33853   3.476   8.178  13.909
77319SOL    HW133854   3.453   8.257  13.860
77319SOL    HW233855   3.559   8.149  13.871
77320SOL     OW33856   7.876   8.064   4.029
77320SOL    HW133857   7.871   8.008   3.952
77320SOL    HW233858   7.882   8.004   4.103
77321SOL     OW33859  13.026  12.652   5.827
77321SOL    HW133860  12.962  12.583   5.810
77321SOL    HW233861  13.091  12.642   5.759
77322SOL     OW33862  12.791   9.416   0.682
77322SOL    HW133863  12.776   9.368   0.601
77322SOL    HW233864  12.723   9.384   0.742
77323SOL     OW33865  12.171   1.215  10.228
77323SOL    HW133866  12.192   1.122  10.229
77323SOL    HW233867  12.121   1.228  10.148
77324SOL     OW33868  14.441   4.701   4.157
77324SOL    HW133869  14.529   4.735   4.144
77324SOL    HW233870  14.423   4.716   4.250
77325SOL     OW33871  13.045   9.020   6.304
77325SOL    HW133872  13.086   9.096   6.263
77325SOL    HW233873  12.954   9.046   6.316
77326SOL     OW33874   2.025   2.786  14.707
77326SOL    HW133875   1.979   2.819  14.630
77326SOL    HW233876   2.098   2.735  14.672
77327SOL     OW33877   1.316   4.363   3.099
77327SOL    HW133878   1.335   4.281   3.146
77327SOL    HW233879   1.220   4.363   3.091
77328SOL     OW33880  14.512   9.112   2.126
77328SOL    HW133881  14.505   9.069   2.041
77328SOL    HW233882  14.474   9.199   2.113
77329SOL     OW33883  10.372   6.304   6.170
77329SOL    HW133884  10.339   6.392   6.188
77329SOL    HW233885  10.457   6.319   6.127
77330SOL     OW33886   4.099   0.471   5.881
77330SOL    HW133887   4.138   0.505   5.801
77330SOL    HW233888   4.041   0.541   5.911
77331SOL     OW33889   1.789   3.350  10.180
77331SOL    HW133890   1.752   3.438  10.177
77331SOL    HW233891   1.815   3.332  10.090
77332SOL     OW33892  10.114  11.550   6.835
77332SOL    HW133893  10.126  11.636   6.794
77332SOL    HW233894  10.019  11.540   6.844
77333SOL     OW33895   9.491   8.250   8.378
77333SOL    HW133896   9.467   8.327   8.326
77333SOL    HW233897   9.419   8.188   8.365
77334SOL     OW33898   0.662   4.644  10.181
77334SOL    HW133899   0.644   4.699  10.257
77334SOL    HW233900   0.578   4.640  10.134
77335SOL     OW33901  10.158   4.616   2.925
77335SOL    HW133902  10.185   4.658   3.007
77335SOL    HW233903  10.216   4.652   2.859
77336SOL     OW33904  11.217  13.041   3.277
77336SOL    HW133905  11.246  13.023   3.188
77336SOL    HW233906  11.133  13.086   3.266
77337SOL     OW33907   5.698   9.660   0.452
77337SOL    HW133908   5.771   9.641   0.511
77337SOL    HW233909   5.663   9.744   0.484
77338SOL     OW33910   5.486   4.301   0.876
77338SOL    HW133911   5.541   4.372   0.845
77338SOL    HW233912   5.396   4.335   0.867
77339SOL     OW33913   7.538  14.396   5.746
77339SOL    HW133914   7.546  14.379   5.652
77339SOL    HW233915   7.569  14.486   5.757
77340SOL     OW33916  14.497   0.081  14.023
77340SOL    HW133917  14.552   0.093  13.946
77340SOL    HW233918  14.453   0.165  14.035
77341SOL     OW33919  10.082   0.003   4.262
77341SOL    HW133920  10.093  14.820   4.341
77341SOL    HW233921  10.132  14.825   4.195
77342SOL     OW33922  12.739   7.731  11.882
77342SOL    HW133923  12.681   7.655  11.876
77342SOL    HW233924  12.681   7.805  11.894
77343SOL     OW33925   3.140  13.290  13.203
77343SOL    HW133926   3.086  13.341  13.142
77343SOL    HW233927   3.169  13.215  13.151
77344SOL     OW33928  12.700  14.331   0.985
77344SOL    HW133929  12.716  14.319   1.079
77344SOL    HW233930  12.689  14.425   0.974
77345SOL     OW33931  12.218  13.665   1.196
77345SOL    HW133932  12.279  13.671   1.270
77345SOL    HW233933  12.139  13.625   1.234
77346SOL     OW33934  12.982   1.243   6.722
77346SOL    HW133935  12.931   1.319   6.747
77346SOL    HW233936  12.982   1.187   6.800
77347SOL     OW33937  11.376   1.660   9.777
77347SOL    HW133938  11.452   1.713   9.752
77347SOL    HW233939  11.360   1.683   9.869
77348SOL     OW33940  12.001  14.610   0.302
77348SOL    HW133941  11.947  14.584   0.227
77348SOL    HW233942  12.083  14.562   0.290
77349SOL     OW33943  10.130   8.794  12.700
77349SOL    HW133944  10.037   8.789  12.680
77349SOL    HW233945  10.174   8.760  12.622
77350SOL     OW33946   7.607  10.521   5.684
77350SOL    HW133947   7.640  10.455   5.624
77350SOL    HW233948   7.517  10.493   5.702
77351SOL     OW33949   5.075   3.453   7.816
77351SOL    HW133950   5.037   3.409   7.892
77351SOL    HW233951   5.164   3.416   7.810
77352SOL     OW33952  13.977   2.125  11.475
77352SOL    HW133953  13.942   2.192  11.416
77352SOL    HW233954  13.964   2.162  11.563
77353SOL     OW33955   2.194  13.525   5.659
77353SOL    HW133956   2.210  13.593   5.723
77353SOL    HW233957   2.099  13.514   5.659
77354SOL     OW33958   1.146   8.013   9.081
77354SOL    HW133959   1.143   8.040   9.172
77354SOL    HW233960   1.135   8.094   9.031
77355SOL     OW33961   7.713   9.338   4.287
77355SOL    HW133962   7.770   9.261   4.299
77355SOL    HW233963   7.682   9.331   4.196
77356SOL     OW33964  10.043  11.504   8.973
77356SOL    HW133965  10.002  11.544   8.896
77356SOL    HW233966  10.068  11.416   8.945
77357SOL     OW33967   0.499   1.391   6.221
77357SOL    HW133968   0.520   1.441   6.142
77357SOL    HW233969   0.543   1.307   6.207
77358SOL     OW33970   9.848  13.731  13.500
77358SOL    HW133971   9.895  13.743  13.583
77358SOL    HW233972   9.758  13.709  13.527
77359SOL     OW33973   8.059  12.606   2.875
77359SOL    HW133974   7.991  12.660   2.914
77359SOL    HW233975   8.121  12.669   2.837
77360SOL     OW33976  11.012   8.116   5.040
77360SOL    HW133977  11.046   8.047   5.097
77360SOL    HW233978  10.951   8.071   4.982
77361SOL     OW33979  11.667   4.360   2.289
77361SOL    HW133980  11.691   4.376   2.380
77361SOL    HW233981  11.597   4.294   2.294
77362SOL     OW33982   1.456   3.567   5.426
77362SOL    HW133983   1.515   3.568   5.502
77362SOL    HW233984   1.417   3.480   5.427
77363SOL     OW33985  11.024   5.974   9.475
77363SOL    HW133986  10.948   5.925   9.443
77363SOL    HW233987  11.086   5.907   9.504
77364SOL     OW33988  10.966  10.939   2.080
77364SOL    HW133989  10.936  10.852   2.107
77364SOL    HW233990  11.056  10.926   2.049
77365SOL     OW33991  10.989   1.794   3.271
77365SOL    HW133992  10.941   1.816   3.191
77365SOL    HW233993  11.081   1.804   3.247
77366SOL     OW33994   5.352   1.745   7.323
77366SOL    HW133995   5.300   1.702   7.255
77366SOL    HW233996   5.287   1.782   7.383
77367SOL     OW33997  12.087   1.788   0.507
77367SOL    HW133998  12.088   1.780   0.602
77367SOL    HW233999  12.015   1.732   0.479
77368SOL     OW34000  12.992  11.693  11.906
77368SOL    HW134001  13.026  11.765  11.853
77368SOL    HW234002  13.070  11.651  11.942
77369SOL     OW34003  11.096  11.384  10.368
77369SOL    HW134004  11.171  11.437  10.395
77369SOL    HW234005  11.030  11.401  10.435
77370SOL     OW34006   6.555   5.008  11.244
77370SOL    HW134007   6.543   4.976  11.333
77370SOL    HW234008   6.646   4.988  11.223
77371SOL     OW34009   2.437  14.798  10.657
77371SOL    HW134010   2.348  14.792  10.691
77371SOL    HW234011   2.491  14.821  10.733
77372SOL     OW34012  14.265   6.034   8.169
77372SOL    HW134013  14.189   5.979   8.183
77372SOL    HW234014  14.268   6.048   8.075
77373SOL     OW34015  10.936  14.704   7.443
77373SOL    HW134016  10.985  14.673   7.518
77373SOL    HW234017  10.995  14.693   7.368
77374SOL     OW34018   9.640  12.736   3.460
77374SOL    HW134019   9.722  12.729   3.411
77374SOL    HW234020   9.629  12.829   3.474
77375SOL     OW34021   5.206   6.695   4.368
77375SOL    HW134022   5.117   6.662   4.362
77375SOL    HW234023   5.254   6.647   4.300
77376SOL     OW34024  13.646   8.723   8.843
77376SOL    HW134025  13.584   8.776   8.795
77376SOL    HW234026  13.721   8.714   8.785
77377SOL     OW34027   5.363   0.880   9.809
77377SOL    HW134028   5.313   0.961   9.801
77377SOL    HW234029   5.433   0.889   9.744
77378SOL     OW34030  14.005  13.046   3.200
77378SOL    HW134031  13.998  13.027   3.294
77378SOL    HW234032  13.973  13.136   3.192
77379SOL     OW34033   6.446   4.566  12.009
77379SOL    HW134034   6.461   4.613  11.927
77379SOL    HW234035   6.352   4.547  12.009
77380SOL     OW34036   0.732   9.610  14.603
77380SOL    HW134037   0.745   9.515  14.606
77380SOL    HW234038   0.809   9.645  14.647
77381SOL     OW34039  10.935   9.630   1.404
77381SOL    HW134040  11.010   9.633   1.346
77381SOL    HW234041  10.860   9.646   1.347
77382SOL     OW34042   9.837   1.835  11.585
77382SOL    HW134043   9.884   1.858  11.665
77382SOL    HW234044   9.897   1.858  11.514
77383SOL     OW34045  11.632   4.476   6.251
77383SOL    HW134046  11.541   4.507   6.246
77383SOL    HW234047  11.683   4.541   6.204
77384SOL     OW34048   4.710  11.203   8.879
77384SOL    HW134049   4.803  11.225   8.877
77384SOL    HW234050   4.685  11.197   8.786
77385SOL     OW34051   8.367   6.848  11.288
77385SOL    HW134052   8.421   6.820  11.214
77385SOL    HW234053   8.277   6.847  11.254
77386SOL     OW34054  13.291   5.996   2.564
77386SOL    HW134055  13.309   6.090   2.570
77386SOL    HW234056  13.377   5.955   2.573
77387SOL     OW34057   9.374   8.615   1.369
77387SOL    HW134058   9.441   8.558   1.332
77387SOL    HW234059   9.416   8.701   1.376
77388SOL     OW34060   4.576  14.797  10.569
77388SOL    HW134061   4.509  14.730  10.573
77388SOL    HW234062   4.528   0.009  10.557
77389SOL     OW34063   1.134   0.747   6.524
77389SOL    HW134064   1.076   0.821   6.508
77389SOL    HW234065   1.127   0.693   6.445
77390SOL     OW34066   4.618   4.317   6.160
77390SOL    HW134067   4.593   4.237   6.113
77390SOL    HW234068   4.694   4.292   6.212
77391SOL     OW34069   1.560   8.162   1.314
77391SOL    HW134070   1.611   8.084   1.294
77391SOL    HW234071   1.527   8.148   1.402
77392SOL     OW34072  10.593   9.828   1.012
77392SOL    HW134073  10.665   9.768   0.997
77392SOL    HW234074  10.613   9.870   1.095
77393SOL     OW34075   1.108  13.485   2.589
77393SOL    HW134076   1.022  13.477   2.630
77393SOL    HW234077   1.129  13.397   2.559
77394SOL     OW34078  14.131   0.068   3.125
77394SOL    HW134079  14.159   0.090   3.036
77394SOL    HW234080  14.166   0.138   3.179
77395SOL     OW34081  14.050   2.026   1.143
77395SOL    HW134082  14.087   1.944   1.109
77395SOL    HW234083  14.018   2.002   1.230
77396SOL     OW34084   4.468   1.436  10.411
77396SOL    HW134085   4.383   1.419  10.452
77396SOL    HW234086   4.465   1.527  10.384
77397SOL     OW34087  10.927   2.403  12.987
77397SOL    HW134088  10.984   2.334  13.019
77397SOL    HW234089  10.851   2.401  13.045
77398SOL     OW34090  11.311   7.149   8.122
77398SOL    HW134091  11.313   7.245   8.124
77398SOL    HW234092  11.295   7.129   8.029
77399SOL     OW34093  11.000   8.892   9.581
77399SOL    HW134094  11.058   8.819   9.602
77399SOL    HW234095  11.055   8.970   9.587
77400SOL     OW34096   4.002   0.056  14.433
77400SOL    HW134097   4.028   0.146  14.414
77400SOL    HW234098   4.071   0.002  14.395
77401SOL     OW34099  10.662  12.423  11.086
77401SOL    HW134100  10.684  12.350  11.027
77401SOL    HW234101  10.745  12.443  11.129
77402SOL     OW34102   2.492  12.213   3.150
77402SOL    HW134103   2.436  12.144   3.114
77402SOL    HW234104   2.465  12.220   3.242
77403SOL     OW34105   6.127   3.158  11.337
77403SOL    HW134106   6.198   3.214  11.369
77403SOL    HW234107   6.142   3.074  11.379
77404SOL     OW34108  10.534   4.087   8.904
77404SOL    HW134109  10.565   4.078   8.814
77404SOL    HW234110  10.581   4.163   8.938
77405SOL     OW34111  12.575   0.283  14.795
77405SOL    HW134112  12.555   0.352  14.859
77405SOL    HW234113  12.501   0.223  14.800
77406SOL     OW34114  14.659   9.960  11.943
77406SOL    HW134115  14.614   9.878  11.923
77406SOL    HW234116  14.591  10.027  11.940
77407SOL     OW34117   5.736   5.963  14.653
77407SOL    HW134118   5.691   5.886  14.616
77407SOL    HW234119   5.810   5.926  14.701
77408SOL     OW34120   7.708   9.924   4.663
77408SOL    HW134121   7.692   9.925   4.569
77408SOL    HW234122   7.799   9.951   4.672
77409SOL     OW34123   6.145   0.719   2.475
77409SOL    HW134124   6.069   0.685   2.429
77409SOL    HW234125   6.163   0.803   2.434
77410SOL     OW34126   3.160   8.332  13.497
77410SOL    HW134127   3.168   8.236  13.491
77410SOL    HW234128   3.168   8.350  13.591
77411SOL     OW34129  13.742   8.757   0.942
77411SOL    HW134130  13.721   8.832   0.886
77411SOL    HW234131  13.831   8.774   0.973
77412SOL     OW34132   8.342   8.301   6.029
77412SOL    HW134133   8.268   8.241   6.021
77412SOL    HW234134   8.416   8.254   5.990
77413SOL     OW34135   2.553   4.544   8.507
77413SOL    HW134136   2.550   4.638   8.491
77413SOL    HW234137   2.645   4.520   8.493
77414SOL     OW34138   3.608   8.705   2.853
77414SOL    HW134139   3.574   8.683   2.766
77414SOL    HW234140   3.566   8.788   2.875
77415SOL     OW34141   0.570   1.133   5.637
77415SOL    HW134142   0.542   1.103   5.724
77415SOL    HW234143   0.626   1.062   5.605
77416SOL     OW34144  10.001   1.945  10.008
77416SOL    HW134145   9.987   1.980  10.096
77416SOL    HW234146   9.945   1.999   9.952
77417SOL     OW34147   1.154   2.265   3.064
77417SOL    HW134148   1.120   2.177   3.080
77417SOL    HW234149   1.245   2.261   3.095
77418SOL     OW34150   1.276   9.528   1.779
77418SOL    HW134151   1.186   9.506   1.756
77418SOL    HW234152   1.312   9.446   1.813
77419SOL     OW34153   5.732   8.279  10.517
77419SOL    HW134154   5.819   8.316  10.501
77419SOL    HW234155   5.745   8.215  10.587
77420SOL     OW34156  10.351   7.000   6.891
77420SOL    HW134157  10.413   7.068   6.863
77420SOL    HW234158  10.277   7.048   6.926
77421SOL     OW34159   9.343   3.376   2.512
77421SOL    HW134160   9.433   3.344   2.508
77421SOL    HW234161   9.345   3.457   2.460
77422SOL     OW34162   5.428  13.913   0.666
77422SOL    HW134163   5.337  13.925   0.694
77422SOL    HW234164   5.478  13.922   0.747
77423SOL     OW34165   0.413   4.015   9.037
77423SOL    HW134166   0.335   4.046   8.991
77423SOL    HW234167   0.479   4.007   8.969
77424SOL     OW34168   1.110  14.761   9.961
77424SOL    HW134169   1.171  14.743  10.033
77424SOL    HW234170   1.109  14.856   9.953
77425SOL     OW34171   7.188   7.217  10.116
77425SOL    HW134172   7.189   7.124  10.095
77425SOL    HW234173   7.258   7.227  10.181
77426SOL     OW34174   7.839  10.548   3.977
77426SOL    HW134175   7.830  10.486   3.905
77426SOL    HW234176   7.921  10.595   3.959
77427SOL     OW34177   6.181   5.216   0.890
77427SOL    HW134178   6.201   5.290   0.947
77427SOL    HW234179   6.254   5.212   0.828
77428SOL     OW34180   8.564   8.360   1.176
77428SOL    HW134181   8.621   8.283   1.178
77428SOL    HW234182   8.614   8.425   1.126
77429SOL     OW34183  12.125   1.715  11.378
77429SOL    HW134184  12.065   1.732  11.451
77429SOL    HW234185  12.191   1.784  11.385
77430SOL     OW34186  11.651  12.871  11.387
77430SOL    HW134187  11.655  12.790  11.439
77430SOL    HW234188  11.574  12.859  11.331
77431SOL     OW34189   2.464  10.499  13.536
77431SOL    HW134190   2.418  10.581  13.519
77431SOL    HW234191   2.525  10.490  13.463
77432SOL     OW34192   2.218   2.106   7.281
77432SOL    HW134193   2.220   2.171   7.352
77432SOL    HW234194   2.182   2.154   7.206
77433SOL     OW34195   9.061   1.415  14.400
77433SOL    HW134196   9.040   1.499  14.360
77433SOL    HW234197   8.977   1.370  14.407
77434SOL     OW34198  11.321   3.139   9.262
77434SOL    HW134199  11.241   3.162   9.309
77434SOL    HW234200  11.319   3.193   9.183
77435SOL     OW34201   8.270   3.674   4.375
77435SOL    HW134202   8.331   3.739   4.339
77435SOL    HW234203   8.184   3.701   4.343
77436SOL     OW34204  10.436  13.419  12.355
77436SOL    HW134205  10.382  13.399  12.431
77436SOL    HW234206  10.414  13.509  12.332
77437SOL     OW34207   9.649  14.410   4.424
77437SOL    HW134208   9.557  14.412   4.400
77437SOL    HW234209   9.672  14.317   4.428
77438SOL     OW34210   6.544   0.376   3.677
77438SOL    HW134211   6.451   0.376   3.655
77438SOL    HW234212   6.585   0.430   3.609
77439SOL     OW34213  11.587   0.760  14.488
77439SOL    HW134214  11.577   0.681  14.541
77439SOL    HW234215  11.675   0.791  14.508
77440SOL     OW34216  14.521  12.572  12.707
77440SOL    HW134217  14.520  12.667  12.708
77440SOL    HW234218  14.432  12.548  12.682
77441SOL     OW34219   1.878   1.543   9.375
77441SOL    HW134220   1.936   1.513   9.445
77441SOL    HW234221   1.824   1.467   9.355
77442SOL     OW34222  14.512   0.631   1.247
77442SOL    HW134223  14.467   0.651   1.330
77442SOL    HW234224  14.469   0.551   1.216
77443SOL     OW34225   0.828   6.777   9.375
77443SOL    HW134226   0.816   6.775   9.280
77443SOL    HW234227   0.921   6.799   9.387
77444SOL     OW34228   4.750  10.374  12.447
77444SOL    HW134229   4.680  10.308  12.454
77444SOL    HW234230   4.707  10.456  12.472
77445SOL     OW34231   5.437   7.871  12.828
77445SOL    HW134232   5.353   7.912  12.810
77445SOL    HW234233   5.417   7.781  12.852
77446SOL     OW34234   5.974   2.648  10.530
77446SOL    HW134235   5.959   2.664  10.437
77446SOL    HW234236   5.888   2.656  10.571
77447SOL     OW34237   3.602  10.536  14.161
77447SOL    HW134238   3.694  10.521  14.141
77447SOL    HW234239   3.584  10.624  14.128
77448SOL     OW34240   0.162   8.962   1.843
77448SOL    HW134241   0.201   8.974   1.930
77448SOL    HW234242   0.084   9.017   1.845
77449SOL     OW34243  14.730  10.953   3.828
77449SOL    HW134244  14.637  10.967   3.844
77449SOL    HW234245  14.759  11.034   3.787
77450SOL     OW34246   0.689   6.321  14.236
77450SOL    HW134247   0.702   6.270  14.156
77450SOL    HW234248   0.618   6.275  14.282
77451SOL     OW34249   4.977  10.670  10.919
77451SOL    HW134250   5.025  10.735  10.868
77451SOL    HW234251   5.010  10.586  10.888
77452SOL     OW34252  13.962  12.733   4.383
77452SOL    HW134253  14.054  12.706   4.384
77452SOL    HW234254  13.956  12.793   4.309
77453SOL     OW34255  10.755   7.635   9.580
77453SOL    HW134256  10.758   7.545   9.548
77453SOL    HW234257  10.815   7.637   9.654
77454SOL     OW34258   3.140  10.676  12.441
77454SOL    HW134259   3.214  10.628  12.403
77454SOL    HW234260   3.180  10.734  12.506
77455SOL     OW34261   3.490  10.303  10.578
77455SOL    HW134262   3.487  10.212  10.549
77455SOL    HW234263   3.465  10.354  10.501
77456SOL     OW34264  13.826   5.797   4.122
77456SOL    HW134265  13.878   5.717   4.125
77456SOL    HW234266  13.875   5.859   4.176
77457SOL     OW34267  12.608   6.887   7.688
77457SOL    HW134268  12.544   6.950   7.721
77457SOL    HW234269  12.562   6.803   7.688
77458SOL     OW34270   9.851  14.239  11.658
77458SOL    HW134271   9.926  14.232  11.600
77458SOL    HW234272   9.861  14.323  11.702
77459SOL     OW34273  12.383  11.675   0.596
77459SOL    HW134274  12.420  11.701   0.511
77459SOL    HW234275  12.456  11.636   0.643
77460SOL     OW34276   1.090   8.586  11.767
77460SOL    HW134277   1.099   8.679  11.785
77460SOL    HW234278   1.007   8.561  11.808
77461SOL     OW34279   0.172   5.991  13.914
77461SOL    HW134280   0.124   6.051  13.970
77461SOL    HW234281   0.263   5.997  13.944
77462SOL     OW34282   2.735   6.529   8.911
77462SOL    HW134283   2.747   6.622   8.931
77462SOL    HW234284   2.673   6.498   8.978
77463SOL     OW34285   0.958  14.271  13.894
77463SOL    HW134286   0.995  14.199  13.842
77463SOL    HW234287   0.886  14.231  13.942
77464SOL     OW34288   2.544  12.439   7.408
77464SOL    HW134289   2.499  12.355   7.396
77464SOL    HW234290   2.516  12.493   7.334
77465SOL     OW34291   4.332   5.182  14.786
77465SOL    HW134292   4.410   5.148  14.831
77465SOL    HW234293   4.348   5.161  14.694
77466SOL     OW34294   2.432   8.926   0.675
77466SOL    HW134295   2.453   8.965   0.760
77466SOL    HW234296   2.355   8.973   0.645
77467SOL     OW34297  13.358  11.719   6.048
77467SOL    HW134298  13.411  11.746   5.973
77467SOL    HW234299  13.415  11.732   6.124
77468SOL     OW34300  13.741   8.408  13.237
77468SOL    HW134301  13.738   8.406  13.141
77468SOL    HW234302  13.792   8.486  13.258
77469SOL     OW34303  13.171   7.026  11.592
77469SOL    HW134304  13.249   7.066  11.628
77469SOL    HW234305  13.100   7.085  11.617
77470SOL     OW34306   8.032   3.335  14.835
77470SOL    HW134307   8.090   3.327   0.041
77470SOL    HW234308   8.037   3.250  14.791
77471SOL     OW34309   5.364  11.573   7.535
77471SOL    HW134310   5.435  11.637   7.537
77471SOL    HW234311   5.346  11.553   7.627
77472SOL     OW34312  12.048   8.395   3.984
77472SOL    HW134313  11.973   8.337   3.969
77472SOL    HW234314  12.123   8.346   3.950
77473SOL     OW34315   6.172  12.499   0.915
77473SOL    HW134316   6.191  12.566   0.850
77473SOL    HW234317   6.122  12.545   0.983
77474SOL     OW34318   6.577  13.915  13.719
77474SOL    HW134319   6.662  13.953  13.741
77474SOL    HW234320   6.596  13.851  13.650
77475SOL     OW34321   3.212  14.746   6.271
77475SOL    HW134322   3.288  14.779   6.318
77475SOL    HW234323   3.233  14.655   6.252
77476SOL     OW34324   7.135   2.298  11.335
77476SOL    HW134325   7.044   2.327  11.329
77476SOL    HW234326   7.183   2.375  11.363
77477SOL     OW34327   3.499  13.046  12.420
77477SOL    HW134328   3.552  13.111  12.467
77477SOL    HW234329   3.411  13.054  12.458
77478SOL     OW34330   2.880   1.563  12.899
77478SOL    HW134331   2.938   1.548  12.824
77478SOL    HW234332   2.939   1.582  12.972
77479SOL     OW34333   5.948  11.689  10.566
77479SOL    HW134334   5.978  11.626  10.632
77479SOL    HW234335   5.965  11.646  10.483
77480SOL     OW34336   7.119   4.787   9.101
77480SOL    HW134337   7.077   4.845   9.038
77480SOL    HW234338   7.192   4.748   9.053
77481SOL     OW34339   7.749   9.679   5.979
77481SOL    HW134340   7.834   9.674   6.023
77481SOL    HW234341   7.716   9.766   6.002
77482SOL     OW34342  11.925   6.606   9.721
77482SOL    HW134343  11.891   6.557   9.646
77482SOL    HW234344  11.848   6.631   9.770
77483SOL     OW34345   9.144   6.670  13.352
77483SOL    HW134346   9.068   6.724  13.370
77483SOL    HW234347   9.119   6.618  13.275
77484SOL     OW34348   7.066   4.584   7.706
77484SOL    HW134349   7.109   4.554   7.787
77484SOL    HW234350   7.011   4.657   7.734
77485SOL     OW34351   3.350   1.702  12.984
77485SOL    HW134352   3.341   1.734  12.894
77485SOL    HW234353   3.443   1.709  13.002
77486SOL     OW34354  14.546   3.664   5.496
77486SOL    HW134355  14.492   3.727   5.542
77486SOL    HW234356  14.617   3.716   5.457
77487SOL     OW34357   9.162  12.808   8.448
77487SOL    HW134358   9.139  12.716   8.435
77487SOL    HW234359   9.239  12.806   8.504
77488SOL     OW34360   6.853   1.752  11.753
77488SOL    HW134361   6.792   1.797  11.695
77488SOL    HW234362   6.845   1.660  11.729
77489SOL     OW34363   2.442  12.066   1.489
77489SOL    HW134364   2.495  11.992   1.459
77489SOL    HW234365   2.506  12.136   1.506
77490SOL     OW34366   7.456   1.141   8.780
77490SOL    HW134367   7.429   1.151   8.689
77490SOL    HW234368   7.513   1.217   8.796
77491SOL     OW34369  10.471  13.645   3.153
77491SOL    HW134370  10.415  13.586   3.103
77491SOL    HW234371  10.552  13.650   3.102
77492SOL     OW34372   2.920   0.453  11.469
77492SOL    HW134373   2.933   0.423  11.559
77492SOL    HW234374   2.949   0.380  11.415
77493SOL     OW34375  10.458   5.251   9.939
77493SOL    HW134376  10.422   5.183   9.996
77493SOL    HW234377  10.427   5.228   9.851
77494SOL     OW34378   8.102   3.863  12.918
77494SOL    HW134379   8.174   3.879  12.979
77494SOL    HW234380   8.146   3.838  12.836
77495SOL     OW34381   2.962   7.365   6.158
77495SOL    HW134382   2.980   7.299   6.092
77495SOL    HW234383   3.002   7.331   6.238
77496SOL     OW34384  10.144   9.483   2.743
77496SOL    HW134385  10.226   9.474   2.791
77496SOL    HW234386  10.162   9.445   2.657
77497SOL     OW34387   9.301   4.071  11.406
77497SOL    HW134388   9.273   4.152  11.365
77497SOL    HW234389   9.373   4.096  11.463
77498SOL     OW34390  13.930  13.691  14.505
77498SOL    HW134391  13.876  13.751  14.557
77498SOL    HW234392  13.914  13.605  14.543
77499SOL     OW34393   2.089   5.210  13.050
77499SOL    HW134394   2.053   5.168  12.972
77499SOL    HW234395   2.024   5.276  13.074
77500SOL     OW34396   3.300  11.051   6.527
77500SOL    HW134397   3.357  11.088   6.460
77500SOL    HW234398   3.269  10.969   6.489
77501SOL     OW34399  12.500  11.788   9.832
77501SOL    HW134400  12.547  11.852   9.778
77501SOL    HW234401  12.413  11.825   9.843
77502SOL     OW34402   5.506   4.000   7.898
77502SOL    HW134403   5.515   3.998   7.803
77502SOL    HW234404   5.565   3.930   7.928
77503SOL     OW34405   5.291   7.782   4.114
77503SOL    HW134406   5.263   7.788   4.022
77503SOL    HW234407   5.212   7.757   4.162
77504SOL     OW34408   5.879  14.499  12.795
77504SOL    HW134409   5.929  14.517  12.874
77504SOL    HW234410   5.848  14.409  12.805
77505SOL     OW34411   8.086   5.971   7.920
77505SOL    HW134412   8.100   5.876   7.918
77505SOL    HW234413   8.074   5.992   8.013
77506SOL     OW34414  11.003   4.217   7.674
77506SOL    HW134415  11.010   4.170   7.591
77506SOL    HW234416  11.080   4.192   7.723
77507SOL     OW34417   6.633   4.386   6.341
77507SOL    HW134418   6.674   4.310   6.381
77507SOL    HW234419   6.705   4.434   6.301
77508SOL     OW34420   4.275   1.840   8.263
77508SOL    HW134421   4.351   1.785   8.246
77508SOL    HW234422   4.307   1.907   8.324
77509SOL     OW34423   9.397  10.173   4.565
77509SOL    HW134424   9.377  10.138   4.478
77509SOL    HW234425   9.492  10.180   4.568
77510SOL     OW34426   7.947   5.988   3.055
77510SOL    HW134427   8.040   5.986   3.077
77510SOL    HW234428   7.905   5.938   3.124
77511SOL     OW34429   4.373   7.676  11.841
77511SOL    HW134430   4.410   7.593  11.871
77511SOL    HW234431   4.397   7.739  11.909
77512SOL     OW34432  13.977   7.501   8.969
77512SOL    HW134433  13.943   7.589   8.986
77512SOL    HW234434  13.976   7.493   8.873
77513SOL     OW34435   3.970   1.629  11.950
77513SOL    HW134436   3.995   1.714  11.988
77513SOL    HW234437   4.009   1.564  12.008
77514SOL     OW34438   9.852   8.534   0.854
77514SOL    HW134439   9.780   8.491   0.900
77514SOL    HW234440   9.929   8.481   0.875
77515SOL     OW34441  13.150   7.491  13.141
77515SOL    HW134442  13.064   7.486  13.183
77515SOL    HW234443  13.155   7.413  13.086
77516SOL     OW34444   8.975   7.470   8.928
77516SOL    HW134445   9.044   7.432   8.873
77516SOL    HW234446   8.916   7.513   8.867
77517SOL     OW34447  13.393  11.959   5.166
77517SOL    HW134448  13.390  12.000   5.252
77517SOL    HW234449  13.478  11.983   5.130
77518SOL     OW34450   9.995   7.551   3.048
77518SOL    HW134451   9.983   7.521   2.958
77518SOL    HW234452  10.072   7.608   3.045
77519SOL     OW34453   4.602  10.236  13.419
77519SOL    HW134454   4.663  10.268  13.485
77519SOL    HW234455   4.628  10.280  13.339
77520SOL     OW34456  10.710   5.208   2.962
77520SOL    HW134457  10.617   5.228   2.972
77520SOL    HW234458  10.744   5.203   3.051
77521SOL     OW34459  11.953   8.581   2.155
77521SOL    HW134460  11.894   8.511   2.126
77521SOL    HW234461  11.896   8.657   2.167
77522SOL     OW34462   3.106  14.169   5.250
77522SOL    HW134463   3.026  14.175   5.302
77522SOL    HW234464   3.170  14.220   5.300
77523SOL     OW34465   7.775   8.791   4.816
77523SOL    HW134466   7.866   8.777   4.788
77523SOL    HW234467   7.774   8.881   4.848
77524SOL     OW34468  13.938   3.788  10.012
77524SOL    HW134469  13.933   3.800  10.107
77524SOL    HW234470  13.942   3.876   9.977
77525SOL     OW34471  11.903   0.216  13.774
77525SOL    HW134472  11.957   0.242  13.699
77525SOL    HW234473  11.832   0.164  13.735
77526SOL     OW34474   2.873   2.873   2.266
77526SOL    HW134475   2.898   2.930   2.193
77526SOL    HW234476   2.809   2.812   2.227
77527SOL     OW34477  10.808  11.638   8.268
77527SOL    HW134478  10.814  11.733   8.277
77527SOL    HW234479  10.750  11.624   8.194
77528SOL     OW34480   9.458  10.783  10.446
77528SOL    HW134481   9.546  10.817  10.431
77528SOL    HW234482   9.400  10.848  10.404
77529SOL     OW34483   9.448  14.438  12.125
77529SOL    HW134484   9.415  14.525  12.100
77529SOL    HW234485   9.522  14.456  12.183
77530SOL     OW34486   1.798   9.724   4.838
77530SOL    HW134487   1.881   9.758   4.869
77530SOL    HW234488   1.736   9.796   4.848
77531SOL     OW34489  11.607   3.884   1.224
77531SOL    HW134490  11.685   3.828   1.226
77531SOL    HW234491  11.539   3.830   1.185
77532SOL     OW34492   7.922   9.898  11.512
77532SOL    HW134493   7.966   9.879  11.595
77532SOL    HW234494   7.900   9.813  11.476
77533SOL     OW34495   0.062  11.756   2.754
77533SOL    HW134496   0.145  11.707   2.753
77533SOL    HW234497   0.006  11.709   2.693
77534SOL     OW34498   7.007   8.860   5.008
77534SOL    HW134499   7.062   8.783   4.996
77534SOL    HW234500   6.953   8.840   5.084
77535SOL     OW34501  10.583   7.301   8.484
77535SOL    HW134502  10.555   7.335   8.399
77535SOL    HW234503  10.577   7.376   8.543
77536SOL     OW34504   4.786   3.499   5.150
77536SOL    HW134505   4.765   3.590   5.172
77536SOL    HW234506   4.876   3.487   5.182
77537SOL     OW34507  12.605  12.793   8.773
77537SOL    HW134508  12.587  12.887   8.767
77537SOL    HW234509  12.625  12.779   8.866
77538SOL     OW34510   3.856   7.883  11.348
77538SOL    HW134511   3.879   7.850  11.435
77538SOL    HW234512   3.904   7.965  11.340
77539SOL     OW34513   4.392   2.850  11.776
77539SOL    HW134514   4.480   2.816  11.757
77539SOL    HW234515   4.388   2.933  11.729
77540SOL     OW34516   2.004   5.965  13.521
77540SOL    HW134517   2.074   5.921  13.473
77540SOL    HW234518   2.047   6.039  13.564
77541SOL     OW34519   8.031   0.990  12.957
77541SOL    HW134520   8.032   1.086  12.959
77541SOL    HW234521   8.050   0.964  13.047
77542SOL     OW34522   0.237   8.421   0.387
77542SOL    HW134523   0.278   8.350   0.339
77542SOL    HW234524   0.231   8.389   0.477
77543SOL     OW34525   0.104  13.042  11.643
77543SOL    HW134526   0.186  13.079  11.674
77543SOL    HW234527   0.041  13.060  11.714
77544SOL     OW34528  12.759   3.647   6.072
77544SOL    HW134529  12.787   3.711   6.007
77544SOL    HW234530  12.737   3.569   6.022
77545SOL     OW34531   3.095   4.307   6.852
77545SOL    HW134532   3.162   4.374   6.867
77545SOL    HW234533   3.018   4.339   6.899
77546SOL     OW34534   7.738  14.692   1.295
77546SOL    HW134535   7.687  14.744   1.233
77546SOL    HW234536   7.826  14.729   1.290
77547SOL     OW34537   2.935   8.355   4.928
77547SOL    HW134538   2.996   8.344   4.856
77547SOL    HW234539   2.963   8.291   4.994
77548SOL     OW34540   1.433   4.503   2.025
77548SOL    HW134541   1.374   4.520   2.098
77548SOL    HW234542   1.460   4.411   2.037
77549SOL     OW34543   2.477  12.586  12.903
77549SOL    HW134544   2.430  12.661  12.940
77549SOL    HW234545   2.441  12.577  12.815
77550SOL     OW34546   3.016  11.245  10.480
77550SOL    HW134547   3.037  11.299  10.557
77550SOL    HW234548   3.096  11.193  10.466
77551SOL     OW34549  11.721   5.716  14.869
77551SOL    HW134550  11.749   5.643   0.054
77551SOL    HW234551  11.742   5.689  14.780
77552SOL     OW34552  10.672   5.195  10.288
77552SOL    HW134553  10.651   5.104  10.266
77552SOL    HW234554  10.588   5.241  10.281
77553SOL     OW34555  12.549   1.461   7.461
77553SOL    HW134556  12.641   1.450   7.483
77553SOL    HW234557  12.513   1.372   7.465
77554SOL     OW34558   2.163   3.333   3.816
77554SOL    HW134559   2.081   3.358   3.774
77554SOL    HW234560   2.215   3.294   3.746
77555SOL     OW34561   2.254  10.337  14.068
77555SOL    HW134562   2.160  10.328  14.083
77555SOL    HW234563   2.271  10.431  14.078
77556SOL     OW34564  13.611   2.734   5.528
77556SOL    HW134565  13.686   2.762   5.580
77556SOL    HW234566  13.552   2.809   5.528
77557SOL     OW34567  11.677   3.064   4.722
77557SOL    HW134568  11.705   3.008   4.650
77557SOL    HW234569  11.643   3.005   4.788
77558SOL     OW34570   8.799   2.436   6.968
77558SOL    HW134571   8.810   2.428   6.873
77558SOL    HW234572   8.709   2.466   6.979
77559SOL     OW34573   3.793   5.392   5.973
77559SOL    HW134574   3.803   5.487   5.966
77559SOL    HW234575   3.882   5.360   5.989
77560SOL     OW34576   7.236  13.171   0.020
77560SOL    HW134577   7.317  13.124   0.003
77560SOL    HW234578   7.232  13.178   0.116
77561SOL     OW34579  14.624  13.004   8.527
77561SOL    HW134580  14.719  13.003   8.514
77561SOL    HW234581  14.594  12.923   8.487
77562SOL     OW34582   1.756  14.326   3.939
77562SOL    HW134583   1.755  14.238   3.900
77562SOL    HW234584   1.845  14.357   3.925
77563SOL     OW34585   2.361  11.783   0.247
77563SOL    HW134586   2.399  11.845   0.309
77563SOL    HW234587   2.434  11.758   0.190
77564SOL     OW34588  12.787   8.540   8.207
77564SOL    HW134589  12.879   8.564   8.194
77564SOL    HW234590  12.791   8.448   8.237
77565SOL     OW34591   6.807   1.410   6.835
77565SOL    HW134592   6.763   1.336   6.793
77565SOL    HW234593   6.739   1.453   6.886
77566SOL     OW34594   7.572  14.730   5.043
77566SOL    HW134595   7.622  14.667   5.095
77566SOL    HW234596   7.638  14.791   5.009
77567SOL     OW34597  14.706  12.938  10.970
77567SOL    HW134598  14.670  12.923  11.057
77567SOL    HW234599  14.786  12.886  10.967
77568SOL     OW34600  12.381   8.693   6.155
77568SOL    HW134601  12.434   8.614   6.172
77568SOL    HW234602  12.388   8.706   6.060
77569SOL     OW34603   0.305  14.728   3.993
77569SOL    HW134604   0.234  14.731   3.929
77569SOL    HW234605   0.384  14.712   3.941
77570SOL     OW34606  11.030  10.648   7.270
77570SOL    HW134607  10.994  10.627   7.183
77570SOL    HW234608  10.954  10.670   7.323
77571SOL     OW34609   9.822   9.651  13.792
77571SOL    HW134610   9.914   9.676  13.803
77571SOL    HW234611   9.825   9.566  13.749
77572SOL     OW34612  10.460  11.263   2.090
77572SOL    HW134613  10.446  11.261   1.995
77572SOL    HW234614  10.373  11.246   2.128
77573SOL     OW34615   6.534   4.843  13.197
77573SOL    HW134616   6.563   4.933  13.182
77573SOL    HW234617   6.614   4.795  13.219
77574SOL     OW34618  11.812   7.108   3.880
77574SOL    HW134619  11.739   7.169   3.871
77574SOL    HW234620  11.772   7.028   3.916
77575SOL     OW34621   5.657   7.704   7.455
77575SOL    HW134622   5.618   7.758   7.524
77575SOL    HW234623   5.710   7.765   7.404
77576SOL     OW34624   4.787   5.621   9.831
77576SOL    HW134625   4.879   5.644   9.844
77576SOL    HW234626   4.787   5.564   9.755
77577SOL     OW34627   8.340   7.561   1.215
77577SOL    HW134628   8.285   7.514   1.153
77577SOL    HW234629   8.426   7.565   1.172
77578SOL     OW34630  13.128   1.305   7.599
77578SOL    HW134631  13.204   1.298   7.657
77578SOL    HW234632  13.164   1.305   7.511
77579SOL     OW34633   9.024   7.901   7.700
77579SOL    HW134634   9.017   7.805   7.698
77579SOL    HW234635   8.952   7.931   7.644
77580SOL     OW34636  11.755   4.001  14.553
77580SOL    HW134637  11.702   4.075  14.525
77580SOL    HW234638  11.718   3.975  14.637
77581SOL     OW34639   5.015   8.820   0.290
77581SOL    HW134640   5.023   8.916   0.291
77581SOL    HW234641   4.931   8.802   0.332
77582SOL     OW34642   2.816  11.860   7.040
77582SOL    HW134643   2.794  11.900   7.124
77582SOL    HW234644   2.793  11.767   7.051
77583SOL     OW34645   7.684   2.539  11.937
77583SOL    HW134646   7.654   2.555  11.847
77583SOL    HW234647   7.644   2.609  11.989
77584SOL     OW34648   9.703  13.751   4.151
77584SOL    HW134649   9.717  13.667   4.107
77584SOL    HW234650   9.657  13.728   4.232
77585SOL     OW34651  13.457   4.255   5.995
77585SOL    HW134652  13.400   4.224   6.064
77585SOL    HW234653  13.399   4.271   5.921
77586SOL     OW34654   5.781   0.755   2.168
77586SOL    HW134655   5.754   0.666   2.146
77586SOL    HW234656   5.709   0.810   2.136
77587SOL     OW34657  12.475   9.668   3.505
77587SOL    HW134658  12.416   9.744   3.500
77587SOL    HW234659  12.454   9.618   3.426
77588SOL     OW34660   6.147  12.147  13.076
77588SOL    HW134661   6.115  12.205  13.008
77588SOL    HW234662   6.187  12.205  13.140
77589SOL     OW34663  12.591   8.308  10.060
77589SOL    HW134664  12.629   8.222  10.043
77589SOL    HW234665  12.656   8.353  10.114
77590SOL     OW34666   0.831  10.934   0.822
77590SOL    HW134667   0.819  10.991   0.898
77590SOL    HW234668   0.869  10.992   0.756
77591SOL     OW34669  10.444   9.456  12.062
77591SOL    HW134670  10.388   9.532  12.045
77591SOL    HW234671  10.489   9.477  12.144
77592SOL     OW34672   8.655  13.374   7.783
77592SOL    HW134673   8.608  13.458   7.783
77592SOL    HW234674   8.661  13.349   7.875
77593SOL     OW34675   1.310   4.037   0.421
77593SOL    HW134676   1.320   4.125   0.385
77593SOL    HW234677   1.220   4.036   0.455
77594SOL     OW34678   8.586   3.976   5.369
77594SOL    HW134679   8.680   3.980   5.351
77594SOL    HW234680   8.561   4.067   5.384
77595SOL     OW34681  14.766   7.894   0.532
77595SOL    HW134682  14.683   7.894   0.579
77595SOL    HW234683  14.813   7.819   0.567
77596SOL     OW34684   3.125   8.222  12.583
77596SOL    HW134685   3.123   8.298  12.525
77596SOL    HW234686   3.154   8.256  12.667
77597SOL     OW34687  14.182   9.984   0.847
77597SOL    HW134688  14.260   9.949   0.891
77597SOL    HW234689  14.109   9.949   0.897
77598SOL     OW34690   0.882   4.076  12.684
77598SOL    HW134691   0.799   4.040  12.715
77598SOL    HW234692   0.861   4.165  12.657
77599SOL     OW34693   3.729  10.609   0.489
77599SOL    HW134694   3.740  10.567   0.574
77599SOL    HW234695   3.744  10.702   0.505
77600SOL     OW34696   5.117   1.569   3.376
77600SOL    HW134697   5.172   1.615   3.312
77600SOL    HW234698   5.170   1.563   3.455
77601SOL     OW34699   3.426   7.213  13.015
77601SOL    HW134700   3.368   7.279  13.053
77601SOL    HW234701   3.469   7.258  12.942
77602SOL     OW34702   6.947   1.391   5.772
77602SOL    HW134703   7.037   1.361   5.761
77602SOL    HW234704   6.946   1.434   5.857
77603SOL     OW34705   9.775  13.829  10.000
77603SOL    HW134706   9.851  13.791   9.955
77603SOL    HW234707   9.811  13.902  10.050
77604SOL     OW34708   0.068   2.074  11.686
77604SOL    HW134709   0.069   1.994  11.739
77604SOL    HW234710   0.120   2.051  11.608
77605SOL     OW34711  14.249  14.344  10.476
77605SOL    HW134712  14.260  14.253  10.449
77605SOL    HW234713  14.157  14.351  10.503
77606SOL     OW34714   0.069  13.273  13.304
77606SOL    HW134715   0.021  13.338  13.253
77606SOL    HW234716   0.019  13.192  13.291
77607SOL     OW34717  14.676   3.429   8.850
77607SOL    HW134718  14.761   3.430   8.806
77607SOL    HW234719  14.696   3.399   8.939
77608SOL     OW34720   9.441   2.197   6.164
77608SOL    HW134721   9.366   2.152   6.125
77608SOL    HW234722   9.404   2.245   6.238
77609SOL     OW34723  11.250  13.799  12.855
77609SOL    HW134724  11.266  13.877  12.804
77609SOL    HW234725  11.311  13.734  12.820
77610SOL     OW34726   9.415  11.704  12.858
77610SOL    HW134727   9.416  11.645  12.782
77610SOL    HW234728   9.376  11.785  12.825
77611SOL     OW34729   8.359   0.541   8.650
77611SOL    HW134730   8.412   0.610   8.691
77611SOL    HW234731   8.387   0.541   8.559
77612SOL     OW34732  13.262  12.938   5.945
77612SOL    HW134733  13.247  13.016   5.892
77612SOL    HW234734  13.294  12.872   5.883
77613SOL     OW34735  12.401   2.057   3.680
77613SOL    HW134736  12.433   2.030   3.594
77613SOL    HW234737  12.418   2.151   3.684
77614SOL     OW34738   3.581  13.167   7.863
77614SOL    HW134739   3.661  13.125   7.892
77614SOL    HW234740   3.535  13.100   7.813
77615SOL     OW34741   3.442   2.962  12.556
77615SOL    HW134742   3.369   3.017  12.585
77615SOL    HW234743   3.492   2.944  12.635
77616SOL     OW34744   5.411   8.182   5.577
77616SOL    HW134745   5.402   8.122   5.650
77616SOL    HW234746   5.417   8.125   5.500
77617SOL     OW34747  13.462   2.319   8.438
77617SOL    HW134748  13.452   2.331   8.344
77617SOL    HW234749  13.375   2.337   8.475
77618SOL     OW34750   8.080  14.573   3.878
77618SOL    HW134751   7.993  14.541   3.854
77618SOL    HW234752   8.140  14.505   3.847
77619SOL     OW34753   6.807   5.923  13.361
77619SOL    HW134754   6.812   6.010  13.401
77619SOL    HW234755   6.727   5.925  13.309
77620SOL     OW34756   9.370  10.656  14.609
77620SOL    HW134757   9.396  10.720  14.543
77620SOL    HW234758   9.360  10.574  14.562
77621SOL     OW34759   8.321  14.745   0.591
77621SOL    HW134760   8.240  14.702   0.621
77621SOL    HW234761   8.325  14.826   0.642
77622SOL     OW34762   2.075   8.373   5.466
77622SOL    HW134763   2.106   8.307   5.404
77622SOL    HW234764   2.001   8.415   5.422
77623SOL     OW34765   9.213   8.676   6.123
77623SOL    HW134766   9.172   8.762   6.135
77623SOL    HW234767   9.188   8.650   6.034
77624SOL     OW34768  10.912  10.439  14.824
77624SOL    HW134769  10.878  10.380  14.756
77624SOL    HW234770  10.845  10.437   0.023
77625SOL     OW34771  13.675  14.087   8.173
77625SOL    HW134772  13.736  14.161   8.164
77625SOL    HW234773  13.732  14.012   8.192
77626SOL     OW34774  11.279   6.271   7.189
77626SOL    HW134775  11.338   6.311   7.253
77626SOL    HW234776  11.206   6.238   7.241
77627SOL     OW34777  13.343   5.448   2.384
77627SOL    HW134778  13.344   5.370   2.328
77627SOL    HW234779  13.331   5.414   2.472
77628SOL     OW34780   6.120   3.836   1.230
77628SOL    HW134781   6.208   3.824   1.194
77628SOL    HW234782   6.129   3.908   1.292
77629SOL     OW34783  10.230  11.891   5.799
77629SOL    HW134784  10.161  11.832   5.829
77629SOL    HW234785  10.294  11.891   5.870
77630SOL     OW34786  12.569   2.030  11.003
77630SOL    HW134787  12.631   2.050  10.933
77630SOL    HW234788  12.623   2.011  11.079
77631SOL     OW34789  12.976   1.016  10.569
77631SOL    HW134790  12.923   1.024  10.649
77631SOL    HW234791  12.972   1.103  10.529
77632SOL     OW34792   9.815   0.027   0.327
77632SOL    HW134793   9.819   0.117   0.358
77632SOL    HW234794   9.844   0.031   0.236
77633SOL     OW34795  12.576   8.233   0.985
77633SOL    HW134796  12.542   8.216   0.897
77633SOL    HW234797  12.592   8.327   0.988
77634SOL     OW34798  13.179  12.855   3.112
77634SOL    HW134799  13.098  12.903   3.129
77634SOL    HW234800  13.248  12.921   3.116
77635SOL     OW34801   4.004  10.596   9.790
77635SOL    HW134802   4.047  10.641   9.717
77635SOL    HW234803   3.966  10.666   9.843
77636SOL     OW34804   1.246   2.100   0.912
77636SOL    HW134805   1.170   2.043   0.921
77636SOL    HW234806   1.279   2.083   0.824
77637SOL     OW34807   6.866   8.226   5.823
77637SOL    HW134808   6.830   8.314   5.814
77637SOL    HW234809   6.863   8.209   5.917
77638SOL     OW34810   2.158  11.131  11.270
77638SOL    HW134811   2.146  11.036  11.265
77638SOL    HW234812   2.240  11.148  11.224
77639SOL     OW34813   9.880   4.453   7.271
77639SOL    HW134814   9.966   4.412   7.273
77639SOL    HW234815   9.898   4.547   7.265
77640SOL     OW34816   8.423   2.223   2.449
77640SOL    HW134817   8.398   2.152   2.390
77640SOL    HW234818   8.431   2.300   2.393
77641SOL     OW34819   9.450   8.076  11.183
77641SOL    HW134820   9.378   8.017  11.163
77641SOL    HW234821   9.409   8.148  11.232
77642SOL     OW34822   4.387   0.114  10.465
77642SOL    HW134823   4.322   0.142  10.530
77642SOL    HW234824   4.344   0.129  10.381
77643SOL     OW34825  12.308  12.637   3.014
77643SOL    HW134826  12.297  12.730   3.035
77643SOL    HW234827  12.363  12.636   2.936
77644SOL     OW34828   9.732   0.385   2.921
77644SOL    HW134829   9.653   0.429   2.890
77644SOL    HW234830   9.709   0.292   2.926
77645SOL     OW34831   1.170   1.440   0.071
77645SOL    HW134832   1.253   1.439   0.118
77645SOL    HW234833   1.129   1.357   0.094
77646SOL     OW34834  14.754   4.059   6.464
77646SOL    HW134835  14.768   4.153   6.455
77646SOL    HW234836  14.760   4.026   6.374
77647SOL     OW34837   2.381  13.240   3.416
77647SOL    HW134838   2.464  13.194   3.406
77647SOL    HW234839   2.402  13.314   3.474
77648SOL     OW34840  12.902   9.970  13.098
77648SOL    HW134841  12.974  10.028  13.123
77648SOL    HW234842  12.848   9.965  13.177
77649SOL     OW34843   3.952  14.652   2.571
77649SOL    HW134844   3.876  14.623   2.622
77649SOL    HW234845   4.024  14.654   2.635
77650SOL     OW34846   7.168   6.854   9.843
77650SOL    HW134847   7.150   6.760   9.845
77650SOL    HW234848   7.171   6.880   9.935
77651SOL     OW34849  11.831   4.734   2.037
77651SOL    HW134850  11.752   4.680   2.041
77651SOL    HW234851  11.821   4.785   1.956
77652SOL     OW34852   7.706   0.818   1.940
77652SOL    HW134853   7.763   0.814   1.863
77652SOL    HW234854   7.689   0.726   1.961
77653SOL     OW34855  12.409   5.885  12.347
77653SOL    HW134856  12.399   5.927  12.262
77653SOL    HW234857  12.367   5.800  12.336
77654SOL     OW34858  14.581   9.327   1.644
77654SOL    HW134859  14.615   9.313   1.556
77654SOL    HW234860  14.491   9.292   1.641
77655SOL     OW34861  11.755  10.972   0.278
77655SOL    HW134862  11.704  11.021   0.214
77655SOL    HW234863  11.815  10.918   0.227
77656SOL     OW34864   3.136  14.229   4.282
77656SOL    HW134865   3.048  14.190   4.285
77656SOL    HW234866   3.124  14.311   4.234
77657SOL     OW34867   6.437  12.856   0.965
77657SOL    HW134868   6.408  12.812   0.885
77657SOL    HW234869   6.366  12.841   1.028
77658SOL     OW34870   3.669  10.679   4.056
77658SOL    HW134871   3.639  10.589   4.048
77658SOL    HW234872   3.689  10.706   3.966
77659SOL     OW34873   6.150  10.439  11.143
77659SOL    HW134874   6.199  10.419  11.223
77659SOL    HW234875   6.176  10.528  11.121
77660SOL     OW34876  13.408   3.686  14.848
77660SOL    HW134877  13.335   3.710   0.037
77660SOL    HW234878  13.440   3.603   0.014
77661SOL     OW34879   0.521   0.455   1.853
77661SOL    HW134880   0.441   0.428   1.899
77661SOL    HW234881   0.589   0.397   1.887
77662SOL     OW34882   7.806   6.750   7.644
77662SOL    HW134883   7.863   6.724   7.571
77662SOL    HW234884   7.753   6.821   7.609
77663SOL     OW34885   8.777   8.382   6.360
77663SOL    HW134886   8.848   8.377   6.296
77663SOL    HW234887   8.779   8.472   6.391
77664SOL     OW34888  13.194   4.668   3.628
77664SOL    HW134889  13.268   4.673   3.567
77664SOL    HW234890  13.119   4.648   3.573
77665SOL     OW34891   7.558  14.861  12.985
77665SOL    HW134892   7.478   0.015  12.937
77665SOL    HW234893   7.607  14.806  12.924
77666SOL     OW34894  12.875   4.412   6.312
77666SOL    HW134895  12.784   4.418   6.340
77666SOL    HW234896  12.876   4.337   6.252
77667SOL     OW34897   5.425   2.522   1.836
77667SOL    HW134898   5.360   2.592   1.822
77667SOL    HW234899   5.475   2.520   1.754
77668SOL     OW34900  13.700   9.886  12.303
77668SOL    HW134901  13.606   9.867  12.309
77668SOL    HW234902  13.706   9.980  12.318
77669SOL     OW34903   3.270   2.302  13.217
77669SOL    HW134904   3.346   2.308  13.273
77669SOL    HW234905   3.303   2.321  13.129
77670SOL     OW34906  11.275   7.525   5.069
77670SOL    HW134907  11.304   7.474   4.994
77670SOL    HW234908  11.290   7.616   5.043
77671SOL     OW34909   4.574   3.158   1.852
77671SOL    HW134910   4.600   3.078   1.808
77671SOL    HW234911   4.480   3.147   1.870
77672SOL     OW34912   5.934   7.160   6.203
77672SOL    HW134913   6.002   7.099   6.176
77672SOL    HW234914   5.936   7.158   6.299
77673SOL     OW34915   8.111   1.588   9.212
77673SOL    HW134916   8.143   1.497   9.213
77673SOL    HW234917   8.070   1.599   9.297
77674SOL     OW34918  11.997   1.281   3.934
77674SOL    HW134919  12.030   1.250   3.850
77674SOL    HW234920  11.920   1.334   3.911
77675SOL     OW34921   9.487   7.119  10.828
77675SOL    HW134922   9.458   7.115  10.737
77675SOL    HW234923   9.581   7.103  10.824
77676SOL     OW34924   8.309   9.813  10.484
77676SOL    HW134925   8.296   9.753  10.410
77676SOL    HW234926   8.307   9.756  10.561
77677SOL     OW34927   6.527   8.498  11.059
77677SOL    HW134928   6.592   8.433  11.032
77677SOL    HW234929   6.443   8.455  11.043
77678SOL     OW34930   1.232   4.060  10.262
77678SOL    HW134931   1.176   4.073  10.338
77678SOL    HW234932   1.203   3.977  10.224
77679SOL     OW34933  12.916   5.505  13.341
77679SOL    HW134934  12.877   5.488  13.427
77679SOL    HW234935  12.980   5.436  13.330
77680SOL     OW34936   0.327   1.410   7.323
77680SOL    HW134937   0.235   1.388   7.337
77680SOL    HW234938   0.357   1.349   7.256
77681SOL     OW34939   8.058  11.213  13.320
77681SOL    HW134940   7.981  11.156  13.315
77681SOL    HW234941   8.132  11.153  13.324
77682SOL     OW34942  13.607   8.806   9.555
77682SOL    HW134943  13.669   8.732   9.550
77682SOL    HW234944  13.655   8.879   9.516
77683SOL     OW34945   6.080  10.488   8.530
77683SOL    HW134946   6.123  10.571   8.508
77683SOL    HW234947   6.122  10.460   8.611
77684SOL     OW34948   4.586   4.793   6.591
77684SOL    HW134949   4.674   4.801   6.628
77684SOL    HW234950   4.535   4.861   6.636
77685SOL     OW34951  10.213   8.452   1.456
77685SOL    HW134952  10.121   8.436   1.478
77685SOL    HW234953  10.262   8.406   1.524
77686SOL     OW34954   8.218   4.811  13.964
77686SOL    HW134955   8.276   4.744  13.928
77686SOL    HW234956   8.273   4.859  14.026
77687SOL     OW34957  14.774   0.562   0.282
77687SOL    HW134958  14.843   0.584   0.345
77687SOL    HW234959  14.739   0.478   0.314
77688SOL     OW34960   0.298   8.158   5.355
77688SOL    HW134961   0.233   8.200   5.413
77688SOL    HW234962   0.304   8.216   5.280
77689SOL     OW34963   8.496   7.073  10.321
77689SOL    HW134964   8.405   7.081  10.292
77689SOL    HW234965   8.491   7.030  10.406
77690SOL     OW34966   8.359   2.322   8.193
77690SOL    HW134967   8.290   2.355   8.251
77690SOL    HW234968   8.422   2.280   8.252
77691SOL     OW34969   9.577   9.137   2.163
77691SOL    HW134970   9.570   9.232   2.154
77691SOL    HW234971   9.488   9.108   2.182
77692SOL     OW34972   9.353  11.071  13.170
77692SOL    HW134973   9.361  11.165  13.189
77692SOL    HW234974   9.385  11.061  13.081
77693SOL     OW34975  12.524  13.842   4.120
77693SOL    HW134976  12.583  13.910   4.086
77693SOL    HW234977  12.568  13.810   4.198
77694SOL     OW34978   5.495   6.465   7.246
77694SOL    HW134979   5.490   6.436   7.155
77694SOL    HW234980   5.572   6.522   7.249
77695SOL     OW34981   2.862   5.266   6.466
77695SOL    HW134982   2.812   5.213   6.403
77695SOL    HW234983   2.918   5.204   6.511
77696SOL     OW34984   1.757  13.796  11.856
77696SOL    HW134985   1.799  13.882  11.862
77696SOL    HW234986   1.752  13.779  11.761
77697SOL     OW34987   6.161  10.199   6.896
77697SOL    HW134988   6.249  10.191   6.933
77697SOL    HW234989   6.114  10.123   6.930
77698SOL     OW34990   1.374   9.422  11.928
77698SOL    HW134991   1.399   9.460  11.844
77698SOL    HW234992   1.450   9.370  11.954
77699SOL     OW34993  12.263   4.369  14.381
77699SOL    HW134994  12.194   4.423  14.419
77699SOL    HW234995  12.336   4.376  14.443
77700SOL     OW34996  13.031   2.615   0.683
77700SOL    HW134997  12.982   2.662   0.616
77700SOL    HW234998  13.033   2.524   0.653
77701SOL     OW34999  10.055   1.655   2.245
77701SOL    HW135000  10.009   1.572   2.251
77701SOL    HW235001  10.142   1.632   2.212
77702SOL     OW35002  11.348   2.323   6.073
77702SOL    HW135003  11.414   2.387   6.099
77702SOL    HW235004  11.395   2.239   6.070
77703SOL     OW35005   6.788   2.081   8.474
77703SOL    HW135006   6.735   2.065   8.396
77703SOL    HW235007   6.850   2.149   8.447
77704SOL     OW35008   3.455   2.232   1.896
77704SOL    HW135009   3.497   2.170   1.835
77704SOL    HW235010   3.509   2.228   1.975
77705SOL     OW35011   2.060   3.975   3.921
77705SOL    HW135012   1.996   4.003   3.987
77705SOL    HW235013   2.015   3.908   3.870
77706SOL     OW35014   2.874   2.229   1.477
77706SOL    HW135015   2.933   2.184   1.417
77706SOL    HW235016   2.802   2.260   1.422
77707SOL     OW35017   8.767  13.921   9.121
77707SOL    HW135018   8.786  13.832   9.092
77707SOL    HW235019   8.780  13.918   9.216
77708SOL     OW35020   7.461  14.840   0.276
77708SOL    HW135021   7.443  14.832   0.369
77708SOL    HW235022   7.409   0.046   0.247
77709SOL     OW35023  10.856  12.013  13.255
77709SOL    HW135024  10.784  12.070  13.229
77709SOL    HW235025  10.855  11.942  13.191
77710SOL     OW35026  14.099   6.609   9.594
77710SOL    HW135027  14.024   6.554   9.569
77710SOL    HW235028  14.076   6.696   9.563
77711SOL     OW35029  10.157  11.799   5.201
77711SOL    HW135030  10.153  11.877   5.146
77711SOL    HW235031  10.247  11.767   5.189
77712SOL     OW35032   1.676   2.314   8.496
77712SOL    HW135033   1.718   2.387   8.452
77712SOL    HW235034   1.595   2.299   8.447
77713SOL     OW35035   8.826   0.835   2.928
77713SOL    HW135036   8.915   0.798   2.924
77713SOL    HW235037   8.808   0.863   2.838
77714SOL     OW35038   5.521  11.498  12.822
77714SOL    HW135039   5.431  11.465  12.813
77714SOL    HW235040   5.512  11.582  12.866
77715SOL     OW35041  12.283   5.172   2.207
77715SOL    HW135042  12.216   5.197   2.144
77715SOL    HW235043  12.240   5.179   2.293
77716SOL     OW35044   4.671   3.010   3.895
77716SOL    HW135045   4.720   3.092   3.882
77716SOL    HW235046   4.594   3.036   3.947
77717SOL     OW35047   2.861   4.646   3.355
77717SOL    HW135048   2.862   4.693   3.271
77717SOL    HW235049   2.900   4.561   3.335
77718SOL     OW35050   9.690   4.514   2.390
77718SOL    HW135051   9.716   4.578   2.456
77718SOL    HW235052   9.752   4.442   2.401
77719SOL     OW35053   1.040   7.446   3.930
77719SOL    HW135054   0.979   7.380   3.898
77719SOL    HW235055   0.989   7.501   3.989
77720SOL     OW35056  10.702   1.723   1.738
77720SOL    HW135057  10.644   1.787   1.779
77720SOL    HW235058  10.760   1.695   1.808
77721SOL     OW35059   9.520  12.272  11.427
77721SOL    HW135060   9.570  12.350  11.453
77721SOL    HW235061   9.429  12.301  11.426
77722SOL     OW35062  11.299   7.714   9.766
77722SOL    HW135063  11.314   7.626   9.799
77722SOL    HW235064  11.349   7.718   9.684
77723SOL     OW35065  13.732   7.447   1.346
77723SOL    HW135066  13.652   7.403   1.375
77723SOL    HW235067  13.722   7.456   1.252
77724SOL     OW35068   5.648   4.490  12.936
77724SOL    HW135069   5.613   4.410  12.896
77724SOL    HW235070   5.618   4.560  12.877
77725SOL     OW35071   6.883   8.100  11.005
77725SOL    HW135072   6.866   8.169  11.069
77725SOL    HW235073   6.978   8.099  10.994
77726SOL     OW35074   0.206   4.348   9.043
77726SOL    HW135075   0.169   4.261   9.055
77726SOL    HW235076   0.282   4.350   9.101
77727SOL     OW35077  11.436  12.346   5.624
77727SOL    HW135078  11.352  12.352   5.669
77727SOL    HW235079  11.473  12.262   5.651
77728SOL     OW35080   5.874   5.834  11.969
77728SOL    HW135081   5.783   5.861  11.981
77728SOL    HW235082   5.897   5.866  11.882
77729SOL     OW35083   7.968  12.649   5.575
77729SOL    HW135084   8.014  12.716   5.626
77729SOL    HW235085   7.893  12.694   5.538
77730SOL     OW35086  11.038  12.816   8.580
77730SOL    HW135087  11.087  12.781   8.506
77730SOL    HW235088  10.955  12.768   8.579
77731SOL     OW35089   1.481  11.648  14.716
77731SOL    HW135090   1.560  11.650  14.770
77731SOL    HW235091   1.412  11.619  14.776
77732SOL     OW35092   6.551   0.913   4.412
77732SOL    HW135093   6.549   0.998   4.456
77732SOL    HW235094   6.569   0.934   4.321
77733SOL     OW35095   5.620  13.153  11.394
77733SOL    HW135096   5.673  13.224  11.431
77733SOL    HW235097   5.637  13.078  11.451
77734SOL     OW35098   6.466   3.751   2.687
77734SOL    HW135099   6.429   3.837   2.668
77734SOL    HW235100   6.437   3.695   2.615
77735SOL     OW35101   3.522   5.650   9.816
77735SOL    HW135102   3.444   5.690   9.778
77735SOL    HW235103   3.498   5.632   9.907
77736SOL     OW35104   2.572  12.188   5.765
77736SOL    HW135105   2.497  12.245   5.750
77736SOL    HW235106   2.560  12.156   5.854
77737SOL     OW35107   2.577   4.706   7.970
77737SOL    HW135108   2.657   4.713   8.022
77737SOL    HW235109   2.522   4.644   8.017
77738SOL     OW35110   3.438   8.687   5.929
77738SOL    HW135111   3.409   8.725   6.013
77738SOL    HW235112   3.373   8.717   5.866
77739SOL     OW35113   3.000  13.426   8.245
77739SOL    HW135114   3.025  13.426   8.153
77739SOL    HW235115   3.083  13.422   8.293
77740SOL     OW35116   5.961   8.452  13.650
77740SOL    HW135117   5.962   8.395  13.726
77740SOL    HW235118   5.970   8.540  13.685
77741SOL     OW35119   7.565   8.228   9.869
77741SOL    HW135120   7.568   8.315   9.908
77741SOL    HW235121   7.481   8.191   9.896
77742SOL     OW35122   3.183  10.937  14.667
77742SOL    HW135123   3.232  10.874  14.613
77742SOL    HW235124   3.132  10.882  14.726
77743SOL     OW35125   5.713   7.606   6.346
77743SOL    HW135126   5.673   7.689   6.320
77743SOL    HW235127   5.800   7.630   6.379
77744SOL     OW35128   1.848   5.895   7.936
77744SOL    HW135129   1.774   5.852   7.979
77744SOL    HW235130   1.925   5.853   7.974
77745SOL     OW35131   8.693  13.768   7.928
77745SOL    HW135132   8.699  13.745   8.021
77745SOL    HW235133   8.783  13.781   7.901
77746SOL     OW35134   3.660   5.687  13.303
77746SOL    HW135135   3.697   5.709  13.217
77746SOL    HW235136   3.699   5.750  13.363
77747SOL     OW35137   2.412   5.817   9.267
77747SOL    HW135138   2.319   5.791   9.262
77747SOL    HW235139   2.430   5.823   9.361
77748SOL     OW35140  11.151   4.902   0.004
77748SOL    HW135141  11.245   4.920   0.000
77748SOL    HW235142  11.142   4.835   0.071
77749SOL     OW35143   7.424  11.557   2.903
77749SOL    HW135144   7.376  11.634   2.931
77749SOL    HW235145   7.409  11.551   2.809
77750SOL     OW35146  10.248   6.815  11.883
77750SOL    HW135147  10.214   6.784  11.967
77750SOL    HW235148  10.301   6.743  11.851
77751SOL     OW35149  11.000   7.202   6.348
77751SOL    HW135150  11.075   7.252   6.313
77751SOL    HW235151  10.942   7.269   6.384
77752SOL     OW35152  10.549   4.980  13.775
77752SOL    HW135153  10.635   4.956  13.739
77752SOL    HW235154  10.538   4.920  13.849
77753SOL     OW35155   6.523  12.839  10.234
77753SOL    HW135156   6.524  12.935  10.232
77753SOL    HW235157   6.458  12.817  10.301
77754SOL     OW35158   1.351   7.387   5.786
77754SOL    HW135159   1.407   7.317   5.821
77754SOL    HW235160   1.406   7.431   5.721
77755SOL     OW35161  10.787  10.471   0.904
77755SOL    HW135162  10.777  10.549   0.958
77755SOL    HW235163  10.797  10.399   0.966
77756SOL     OW35164  11.758   9.184   6.516
77756SOL    HW135165  11.747   9.185   6.611
77756SOL    HW235166  11.769   9.276   6.492
77757SOL     OW35167   1.695  10.460   8.995
77757SOL    HW135168   1.714  10.412   8.915
77757SOL    HW235169   1.611  10.503   8.978
77758SOL     OW35170   8.660   4.176  10.130
77758SOL    HW135171   8.674   4.200  10.038
77758SOL    HW235172   8.652   4.260  10.175
77759SOL     OW35173  13.153  14.110   1.742
77759SOL    HW135174  13.159  14.193   1.790
77759SOL    HW235175  13.243  14.091   1.716
77760SOL     OW35176   6.622   5.954   9.533
77760SOL    HW135177   6.589   5.946   9.444
77760SOL    HW235178   6.712   5.985   9.523
77761SOL     OW35179   7.459  10.688   8.516
77761SOL    HW135180   7.522  10.647   8.455
77761SOL    HW235181   7.458  10.629   8.591
77762SOL     OW35182   1.215  14.414   3.045
77762SOL    HW135183   1.259  14.475   2.986
77762SOL    HW235184   1.126  14.407   3.009
77763SOL     OW35185   7.500   7.316  11.164
77763SOL    HW135186   7.518   7.224  11.181
77763SOL    HW235187   7.553   7.364  11.227
77764SOL     OW35188   4.580  13.264   9.259
77764SOL    HW135189   4.582  13.232   9.349
77764SOL    HW235190   4.521  13.339   9.261
77765SOL     OW35191   1.613  11.113   8.467
77765SOL    HW135192   1.664  11.054   8.522
77765SOL    HW235193   1.544  11.146   8.524
77766SOL     OW35194  13.975   9.132   4.836
77766SOL    HW135195  14.040   9.201   4.849
77766SOL    HW235196  13.947   9.109   4.925
77767SOL     OW35197   3.334  10.607   6.198
77767SOL    HW135198   3.309  10.639   6.112
77767SOL    HW235199   3.429  10.599   6.194
77768SOL     OW35200   9.122   9.453   5.236
77768SOL    HW135201   9.191   9.410   5.186
77768SOL    HW235202   9.090   9.522   5.178
77769SOL     OW35203  11.930   7.740   2.391
77769SOL    HW135204  11.897   7.769   2.476
77769SOL    HW235205  11.858   7.689   2.353
77770SOL     OW35206   1.561   6.496   8.227
77770SOL    HW135207   1.519   6.534   8.150
77770SOL    HW235208   1.542   6.558   8.297
77771SOL     OW35209   3.669   5.060   3.156
77771SOL    HW135210   3.695   5.016   3.075
77771SOL    HW235211   3.637   5.145   3.128
77772SOL     OW35212   4.126  12.582   4.346
77772SOL    HW135213   4.091  12.518   4.283
77772SOL    HW235214   4.078  12.563   4.427
77773SOL     OW35215   3.772  12.903   4.348
77773SOL    HW135216   3.814  12.852   4.418
77773SOL    HW235217   3.687  12.860   4.334
77774SOL     OW35218   9.882  14.431   1.074
77774SOL    HW135219   9.964  14.481   1.069
77774SOL    HW235220   9.851  14.429   0.983
77775SOL     OW35221   4.183   1.726   6.970
77775SOL    HW135222   4.179   1.637   7.003
77775SOL    HW235223   4.106   1.769   7.007
77776SOL     OW35224   5.263   4.533   2.414
77776SOL    HW135225   5.315   4.491   2.346
77776SOL    HW235226   5.228   4.611   2.372
77777SOL     OW35227  14.069   4.966   2.203
77777SOL    HW135228  13.994   4.941   2.148
77777SOL    HW235229  14.030   5.017   2.274
77778SOL     OW35230   8.455   5.010  12.687
77778SOL    HW135231   8.481   5.053  12.605
77778SOL    HW235232   8.525   4.947  12.705
77779SOL     OW35233  10.442  14.174   4.785
77779SOL    HW135234  10.377  14.143   4.847
77779SOL    HW235235  10.458  14.100   4.727
77780SOL     OW35236   9.867   8.515   1.633
77780SOL    HW135237   9.904   8.461   1.562
77780SOL    HW235238   9.900   8.474   1.713
77781SOL     OW35239  12.044   5.035   5.918
77781SOL    HW135240  12.007   5.086   5.846
77781SOL    HW235241  12.116   4.986   5.878
77782SOL     OW35242  14.686   9.857   5.072
77782SOL    HW135243  14.687   9.909   5.152
77782SOL    HW235244  14.717   9.918   5.004
77783SOL     OW35245   8.428  12.840   9.012
77783SOL    HW135246   8.476  12.819   9.092
77783SOL    HW235247   8.377  12.761   8.993
77784SOL     OW35248   9.666  12.980  14.053
77784SOL    HW135249   9.743  12.928  14.078
77784SOL    HW235250   9.651  13.037  14.128
77785SOL     OW35251   1.682  10.588   6.359
77785SOL    HW135252   1.743  10.581   6.286
77785SOL    HW235253   1.598  10.561   6.323
77786SOL     OW35254   7.727   7.690   2.659
77786SOL    HW135255   7.726   7.625   2.730
77786SOL    HW235256   7.635   7.703   2.637
77787SOL     OW35257   0.527   2.551  13.684
77787SOL    HW135258   0.484   2.482  13.633
77787SOL    HW235259   0.598   2.506  13.730
77788SOL     OW35260  14.328   1.147   6.833
77788SOL    HW135261  14.325   1.066   6.884
77788SOL    HW235262  14.241   1.186   6.845
77789SOL     OW35263   6.198  13.350  13.393
77789SOL    HW135264   6.146  13.419  13.435
77789SOL    HW235265   6.155  13.268  13.418
77790SOL     OW35266   4.247   4.728  10.473
77790SOL    HW135267   4.187   4.663  10.509
77790SOL    HW235268   4.274   4.780  10.549
77791SOL     OW35269  10.748   7.923   2.907
77791SOL    HW135270  10.663   7.897   2.944
77791SOL    HW235271  10.756   7.872   2.827
77792SOL     OW35272  10.136  12.135  14.252
77792SOL    HW135273  10.142  12.124  14.157
77792SOL    HW235274  10.225  12.121  14.284
77793SOL     OW35275   7.019   0.391   5.100
77793SOL    HW135276   6.983   0.420   5.016
77793SOL    HW235277   7.081   0.459   5.125
77794SOL     OW35278   6.405   8.365   4.698
77794SOL    HW135279   6.358   8.385   4.780
77794SOL    HW235280   6.491   8.335   4.726
77795SOL     OW35281   6.642   7.845   9.224
77795SOL    HW135282   6.701   7.917   9.199
77795SOL    HW235283   6.683   7.767   9.188
77796SOL     OW35284  12.103   8.314   3.360
77796SOL    HW135285  12.104   8.310   3.264
77796SOL    HW235286  12.189   8.281   3.386
77797SOL     OW35287   4.053  14.534   5.732
77797SOL    HW135288   3.984  14.590   5.696
77797SOL    HW235289   4.120  14.594   5.764
77798SOL     OW35290  13.835   6.838  11.850
77798SOL    HW135291  13.742   6.858  11.837
77798SOL    HW235292  13.860   6.790  11.772
77799SOL     OW35293  11.992   1.556  10.260
77799SOL    HW135294  12.014   1.614  10.187
77799SOL    HW235295  11.907   1.588  10.290
77800SOL     OW35296  12.591  10.963   8.666
77800SOL    HW135297  12.582  10.915   8.748
77800SOL    HW235298  12.602  10.896   8.599
77801SOL     OW35299   2.073   2.277   3.735
77801SOL    HW135300   2.066   2.310   3.824
77801SOL    HW235301   2.163   2.295   3.710
77802SOL     OW35302   1.856  12.329   5.104
77802SOL    HW135303   1.780  12.288   5.146
77802SOL    HW235304   1.872  12.408   5.155
77803SOL     OW35305  10.391  13.191   1.073
77803SOL    HW135306  10.471  13.154   1.110
77803SOL    HW235307  10.373  13.137   0.996
77804SOL     OW35308   9.141  11.707   5.691
77804SOL    HW135309   9.151  11.724   5.784
77804SOL    HW235310   9.087  11.780   5.659
77805SOL     OW35311   6.404   9.583   9.673
77805SOL    HW135312   6.413   9.525   9.748
77805SOL    HW235313   6.482   9.639   9.676
77806SOL     OW35314   4.484  13.402   3.010
77806SOL    HW135315   4.554  13.373   3.069
77806SOL    HW235316   4.529  13.430   2.931
77807SOL     OW35317   8.981  11.056   1.838
77807SOL    HW135318   8.936  11.062   1.922
77807SOL    HW235319   9.056  10.999   1.856
77808SOL     OW35320   2.529   0.719   6.691
77808SOL    HW135321   2.440   0.751   6.707
77808SOL    HW235322   2.566   0.781   6.628
77809SOL     OW35323   4.166  10.912   7.859
77809SOL    HW135324   4.224  10.836   7.849
77809SOL    HW235325   4.223  10.981   7.892
77810SOL     OW35326   6.556  11.227   3.223
77810SOL    HW135327   6.521  11.140   3.202
77810SOL    HW235328   6.529  11.241   3.314
77811SOL     OW35329   7.050   6.888  12.902
77811SOL    HW135330   7.079   6.954  12.840
77811SOL    HW235331   7.130   6.861  12.947
77812SOL     OW35332   8.250   1.374  13.844
77812SOL    HW135333   8.268   1.284  13.817
77812SOL    HW235334   8.173   1.400  13.793
77813SOL     OW35335   4.124   6.408   8.286
77813SOL    HW135336   4.029   6.399   8.277
77813SOL    HW235337   4.138   6.502   8.300
77814SOL     OW35338  14.119   0.491   9.304
77814SOL    HW135339  14.192   0.468   9.247
77814SOL    HW235340  14.132   0.438   9.383
77815SOL     OW35341   4.198   8.769   5.195
77815SOL    HW135342   4.159   8.825   5.262
77815SOL    HW235343   4.162   8.682   5.213
77816SOL     OW35344   2.282  13.659   2.270
77816SOL    HW135345   2.372  13.626   2.266
77816SOL    HW235346   2.233  13.589   2.314
77817SOL     OW35347   8.047   1.819   0.597
77817SOL    HW135348   7.954   1.842   0.590
77817SOL    HW235349   8.087   1.857   0.518
77818SOL     OW35350   1.228  11.333   5.943
77818SOL    HW135351   1.152  11.299   5.896
77818SOL    HW235352   1.272  11.390   5.881
77819SOL     OW35353   0.223  11.457   2.707
77819SOL    HW135354   0.254  11.388   2.764
77819SOL    HW235355   0.130  11.438   2.695
77820SOL     OW35356   9.022   9.082   2.522
77820SOL    HW135357   9.116   9.077   2.537
77820SOL    HW235358   9.013   9.138   2.445
77821SOL     OW35359   6.638   2.119   0.024
77821SOL    HW135360   6.652   2.094   0.115
77821SOL    HW235361   6.569   2.186   0.027
77822SOL     OW35362  14.849  12.344  12.445
77822SOL    HW135363  14.820  12.408  12.510
77822SOL    HW235364  14.770  12.324  12.395
77823SOL     OW35365  12.642  12.104   8.673
77823SOL    HW135366  12.670  12.132   8.586
77823SOL    HW235367  12.645  12.184   8.726
77824SOL     OW35368  13.262   8.385   4.844
77824SOL    HW135369  13.295   8.456   4.899
77824SOL    HW235370  13.263   8.308   4.901
77825SOL     OW35371  12.110  11.055   8.553
77825SOL    HW135372  12.058  11.134   8.543
77825SOL    HW235373  12.060  10.987   8.507
77826SOL     OW35374  14.610   3.486   5.237
77826SOL    HW135375  14.614   3.507   5.330
77826SOL    HW235376  14.625   3.392   5.232
77827SOL     OW35377   9.773   5.336  13.662
77827SOL    HW135378   9.692   5.381  13.639
77827SOL    HW235379   9.748   5.244  13.669
77828SOL     OW35380   4.904   6.453  11.862
77828SOL    HW135381   4.822   6.469  11.909
77828SOL    HW235382   4.973   6.465  11.928
77829SOL     OW35383  11.619   6.281   1.869
77829SOL    HW135384  11.529   6.312   1.860
77829SOL    HW235385  11.620   6.237   1.954
77830SOL     OW35386   7.652   7.510   7.700
77830SOL    HW135387   7.619   7.452   7.769
77830SOL    HW235388   7.596   7.492   7.624
77831SOL     OW35389  11.794   9.885   5.354
77831SOL    HW135390  11.759   9.834   5.281
77831SOL    HW235391  11.861   9.828   5.393
77832SOL     OW35392   9.982   0.026  14.608
77832SOL    HW135393   9.919  14.868  14.542
77832SOL    HW235394   9.977   0.121  14.609
77833SOL     OW35395  14.324   7.889   1.173
77833SOL    HW135396  14.397   7.873   1.113
77833SOL    HW235397  14.271   7.956   1.129
77834SOL     OW35398   6.454  10.048   4.289
77834SOL    HW135399   6.436  10.025   4.380
77834SOL    HW235400   6.368  10.049   4.247
77835SOL     OW35401  13.805   8.843   4.097
77835SOL    HW135402  13.852   8.786   4.036
77835SOL    HW235403  13.715   8.812   4.094
77836SOL     OW35404   9.859   0.351   2.650
77836SOL    HW135405   9.849   0.431   2.599
77836SOL    HW235406   9.809   0.367   2.730
77837SOL     OW35407   1.459   2.610  10.493
77837SOL    HW135408   1.481   2.653  10.576
77837SOL    HW235409   1.447   2.683  10.431
77838SOL     OW35410   0.662   6.675  12.102
77838SOL    HW135411   0.586   6.617  12.114
77838SOL    HW235412   0.692   6.692  12.191
77839SOL     OW35413   6.442   8.215   7.985
77839SOL    HW135414   6.462   8.284   8.047
77839SOL    HW235415   6.525   8.170   7.972
77840SOL     OW35416   7.381   4.379   3.341
77840SOL    HW135417   7.425   4.385   3.426
77840SOL    HW235418   7.443   4.332   3.285
77841SOL     OW35419  10.566   6.440  10.204
77841SOL    HW135420  10.513   6.475  10.276
77841SOL    HW235421  10.563   6.345  10.217
77842SOL     OW35422  14.060  13.189   0.145
77842SOL    HW135423  14.052  13.123   0.213
77842SOL    HW235424  14.153  13.190   0.123
77843SOL     OW35425  13.308   3.071   1.359
77843SOL    HW135426  13.320   3.109   1.272
77843SOL    HW235427  13.215   3.046   1.361
77844SOL     OW35428   7.360   1.610   5.050
77844SOL    HW135429   7.310   1.680   5.092
77844SOL    HW235430   7.294   1.557   5.005
77845SOL     OW35431   5.745  13.983   9.460
77845SOL    HW135432   5.781  13.995   9.373
77845SOL    HW235433   5.820  13.956   9.514
77846SOL     OW35434   4.516   0.091   5.486
77846SOL    HW135435   4.502   0.159   5.553
77846SOL    HW235436   4.461   0.018   5.514
77847SOL     OW35437   6.122   0.721   4.306
77847SOL    HW135438   6.109   0.640   4.256
77847SOL    HW235439   6.138   0.691   4.396
77848SOL     OW35440   0.127  12.718   7.547
77848SOL    HW135441   0.052  12.724   7.606
77848SOL    HW235442   0.154  12.626   7.553
77849SOL     OW35443   1.223  13.688  11.427
77849SOL    HW135444   1.139  13.727  11.451
77849SOL    HW235445   1.288  13.749  11.462
77850SOL     OW35446   9.996   3.457  13.071
77850SOL    HW135447   9.928   3.524  13.061
77850SOL    HW235448  10.049   3.464  12.992
77851SOL     OW35449  10.283  11.757   4.820
77851SOL    HW135450  10.266  11.848   4.794
77851SOL    HW235451  10.206  11.731   4.870
77852SOL     OW35452   8.143  13.137   5.026
77852SOL    HW135453   8.053  13.155   5.000
77852SOL    HW235454   8.190  13.219   5.007
77853SOL     OW35455  14.533   2.150   3.732
77853SOL    HW135456  14.489   2.066   3.727
77853SOL    HW235457  14.492   2.196   3.805
77854SOL     OW35458   2.216  12.896   5.479
77854SOL    HW135459   2.239  12.975   5.529
77854SOL    HW235460   2.161  12.926   5.408
77855SOL     OW35461   5.298   4.787   8.608
77855SOL    HW135462   5.335   4.754   8.691
77855SOL    HW235463   5.362   4.761   8.542
77856SOL     OW35464   5.409   7.102   8.998
77856SOL    HW135465   5.397   7.197   8.997
77856SOL    HW235466   5.503   7.089   8.996
77857SOL     OW35467   7.717   1.981  10.699
77857SOL    HW135468   7.673   2.026  10.626
77857SOL    HW235469   7.646   1.944  10.751
77858SOL     OW35470   4.893  10.923  10.331
77858SOL    HW135471   4.853  10.848  10.287
77858SOL    HW235472   4.980  10.930  10.292
77859SOL     OW35473   6.288   1.849   3.041
77859SOL    HW135474   6.344   1.771   3.046
77859SOL    HW235475   6.323   1.908   3.107
77860SOL     OW35476   2.448   4.575  11.500
77860SOL    HW135477   2.509   4.648  11.495
77860SOL    HW235478   2.482   4.510  11.438
77861SOL     OW35479  10.690  14.078  14.028
77861SOL    HW135480  10.759  14.054  13.967
77861SOL    HW235481  10.654  13.995  14.058
77862SOL     OW35482   0.722   0.387   3.729
77862SOL    HW135483   0.760   0.381   3.642
77862SOL    HW235484   0.756   0.311   3.776
77863SOL     OW35485   1.256   2.135   1.846
77863SOL    HW135486   1.311   2.167   1.774
77863SOL    HW235487   1.285   2.045   1.860
77864SOL     OW35488  12.647  12.941  13.759
77864SOL    HW135489  12.619  12.969  13.672
77864SOL    HW235490  12.617  13.010  13.817
77865SOL     OW35491   4.003  13.943  10.801
77865SOL    HW135492   4.080  13.999  10.791
77865SOL    HW235493   4.038  13.854  10.801
77866SOL     OW35494  12.847   7.310  10.485
77866SOL    HW135495  12.843   7.401  10.514
77866SOL    HW235496  12.929   7.303  10.437
77867SOL     OW35497  11.014   5.673   2.070
77867SOL    HW135498  10.929   5.655   2.028
77867SOL    HW235499  10.999   5.753   2.121
77868SOL     OW35500  14.669  14.832  10.969
77868SOL    HW135501  14.667  14.773  10.894
77868SOL    HW235502  14.748   0.015  10.956
77869SOL     OW35503  13.673   4.675  13.893
77869SOL    HW135504  13.628   4.652  13.975
77869SOL    HW235505  13.652   4.767  13.879
77870SOL     OW35506   8.642  11.497   9.086
77870SOL    HW135507   8.718  11.488   9.028
77870SOL    HW235508   8.641  11.590   9.111
77871SOL     OW35509   7.413   6.868   7.630
77871SOL    HW135510   7.467   6.900   7.702
77871SOL    HW235511   7.471   6.870   7.554
77872SOL     OW35512   7.563  11.341  10.026
77872SOL    HW135513   7.607  11.425  10.017
77872SOL    HW235514   7.621  11.278   9.982
77873SOL     OW35515  11.930   7.508   4.730
77873SOL    HW135516  11.835   7.510   4.741
77873SOL    HW235517  11.964   7.534   4.815
77874SOL     OW35518  12.240   6.315   5.784
77874SOL    HW135519  12.215   6.324   5.876
77874SOL    HW235520  12.284   6.398   5.764
77875SOL     OW35521   6.509   6.823   5.134
77875SOL    HW135522   6.526   6.890   5.201
77875SOL    HW235523   6.512   6.740   5.182
77876SOL     OW35524  11.944   6.582   3.752
77876SOL    HW135525  11.980   6.669   3.732
77876SOL    HW235526  11.872   6.572   3.690
77877SOL     OW35527   5.867   6.179  11.261
77877SOL    HW135528   5.857   6.206  11.352
77877SOL    HW235529   5.912   6.253  11.218
77878SOL     OW35530  13.331  10.128   9.525
77878SOL    HW135531  13.267  10.128   9.454
77878SOL    HW235532  13.382  10.209   9.511
77879SOL     OW35533   9.327  10.336  11.883
77879SOL    HW135534   9.311  10.399  11.954
77879SOL    HW235535   9.283  10.374  11.807
77880SOL     OW35536  10.526  14.332   9.711
77880SOL    HW135537  10.436  14.299   9.714
77880SOL    HW235538  10.539  14.359   9.620
77881SOL     OW35539  13.421   4.619   6.817
77881SOL    HW135540  13.464   4.550   6.767
77881SOL    HW235541  13.491   4.681   6.839
77882SOL     OW35542   4.693  12.870   9.279
77882SOL    HW135543   4.684  12.794   9.222
77882SOL    HW235544   4.650  12.941   9.231
77883SOL     OW35545   2.314  12.419   0.014
77883SOL    HW135546   2.389  12.441   0.069
77883SOL    HW235547   2.345  12.432  14.794
77884SOL     OW35548  13.421   8.050   7.956
77884SOL    HW135549  13.339   8.002   7.963
77884SOL    HW235550  13.433   8.064   7.862
77885SOL     OW35551   8.493  12.079  10.853
77885SOL    HW135552   8.546  12.134  10.910
77885SOL    HW235553   8.546  12.069  10.774
77886SOL     OW35554   6.792   7.835   4.959
77886SOL    HW135555   6.725   7.813   4.895
77886SOL    HW235556   6.874   7.836   4.910
77887SOL     OW35557  14.408  14.397  12.134
77887SOL    HW135558  14.328  14.398  12.187
77887SOL    HW235559  14.460  14.324  12.168
77888SOL     OW35560   2.067   2.620   0.548
77888SOL    HW135561   2.041   2.533   0.517
77888SOL    HW235562   2.113   2.659   0.474
77889SOL     OW35563   9.812  14.254   7.813
77889SOL    HW135564   9.896  14.252   7.767
77889SOL    HW235565   9.817  14.180   7.873
77890SOL     OW35566  11.745   0.717   2.057
77890SOL    HW135567  11.785   0.786   2.005
77890SOL    HW235568  11.810   0.647   2.058
77891SOL     OW35569   7.995   0.428   0.675
77891SOL    HW135570   7.966   0.450   0.587
77891SOL    HW235571   7.916   0.395   0.719
77892SOL     OW35572   8.158   4.435   3.486
77892SOL    HW135573   8.121   4.348   3.505
77892SOL    HW235574   8.126   4.491   3.556
77893SOL     OW35575   3.499  10.112  14.783
77893SOL    HW135576   3.418  10.162  14.775
77893SOL    HW235577   3.545  10.152  14.857
77894SOL     OW35578   1.383   4.895   1.292
77894SOL    HW135579   1.295   4.894   1.330
77894SOL    HW235580   1.404   4.987   1.281
77895SOL     OW35581   8.938   3.141   8.678
77895SOL    HW135582   8.939   3.121   8.585
77895SOL    HW235583   8.881   3.074   8.716
77896SOL     OW35584   6.447  11.916   3.225
77896SOL    HW135585   6.375  11.887   3.281
77896SOL    HW235586   6.489  11.835   3.197
77897SOL     OW35587   7.216   0.799  13.978
77897SOL    HW135588   7.165   0.758  13.908
77897SOL    HW235589   7.278   0.857  13.933
77898SOL     OW35590   9.126   5.302   1.563
77898SOL    HW135591   9.189   5.366   1.595
77898SOL    HW235592   9.177   5.223   1.546
77899SOL     OW35593   3.980   4.325   3.756
77899SOL    HW135594   3.904   4.331   3.814
77899SOL    HW235595   4.055   4.332   3.815
77900SOL     OW35596   1.205  12.664   7.587
77900SOL    HW135597   1.193  12.588   7.644
77900SOL    HW235598   1.285  12.645   7.538
77901SOL     OW35599   6.134  10.132   3.496
77901SOL    HW135600   6.145  10.050   3.448
77901SOL    HW235601   6.172  10.199   3.439
77902SOL     OW35602   0.817  14.405   8.062
77902SOL    HW135603   0.795  14.440   7.976
77902SOL    HW235604   0.789  14.313   8.058
77903SOL     OW35605  11.143   8.949   1.095
77903SOL    HW135606  11.128   9.033   1.051
77903SOL    HW235607  11.105   8.884   1.037
77904SOL     OW35608   8.126   8.367   1.960
77904SOL    HW135609   8.216   8.353   1.932
77904SOL    HW235610   8.102   8.288   2.007
77905SOL     OW35611   6.140  14.473   5.656
77905SOL    HW135612   6.137  14.380   5.679
77905SOL    HW235613   6.233  14.490   5.640
77906SOL     OW35614   5.208   9.286   6.599
77906SOL    HW135615   5.234   9.217   6.538
77906SOL    HW235616   5.256   9.363   6.569
77907SOL     OW35617   4.615   4.667   3.714
77907SOL    HW135618   4.587   4.689   3.803
77907SOL    HW235619   4.645   4.749   3.677
77908SOL     OW35620  12.600  12.144  13.373
77908SOL    HW135621  12.577  12.232  13.345
77908SOL    HW235622  12.688  12.130  13.337
77909SOL     OW35623   3.489  12.554  10.324
77909SOL    HW135624   3.495  12.649  10.314
77909SOL    HW235625   3.403  12.539  10.362
77910SOL     OW35626  11.472   3.971  10.063
77910SOL    HW135627  11.472   4.063  10.089
77910SOL    HW235628  11.550   3.961  10.009
77911SOL     OW35629  10.440   3.539  11.627
77911SOL    HW135630  10.446   3.497  11.713
77911SOL    HW235631  10.355   3.583  11.627
77912SOL     OW35632   7.080  13.921  13.307
77912SOL    HW135633   7.105  14.011  13.284
77912SOL    HW235634   7.092  13.872  13.226
77913SOL     OW35635   6.050  14.075   0.587
77913SOL    HW135636   6.068  14.025   0.667
77913SOL    HW235637   5.957  14.060   0.570
77914SOL     OW35638   9.037   7.658  11.009
77914SOL    HW135639   9.128   7.656  11.038
77914SOL    HW235640   8.987   7.637  11.088
77915SOL     OW35641  11.097  11.930   2.591
77915SOL    HW135642  11.034  11.935   2.518
77915SOL    HW235643  11.117  12.022   2.611
77916SOL     OW35644   6.706  10.908   5.687
77916SOL    HW135645   6.751  10.836   5.644
77916SOL    HW235646   6.691  10.972   5.617
77917SOL     OW35647   2.273   0.533  10.726
77917SOL    HW135648   2.226   0.614  10.742
77917SOL    HW235649   2.350   0.559  10.675
77918SOL     OW35650   1.531   3.341   4.546
77918SOL    HW135651   1.605   3.312   4.493
77918SOL    HW235652   1.471   3.266   4.548
77919SOL     OW35653   0.823   4.572   5.533
77919SOL    HW135654   0.908   4.538   5.505
77919SOL    HW235655   0.839   4.664   5.553
77920SOL     OW35656   7.336   2.591  13.363
77920SOL    HW135657   7.302   2.608  13.451
77920SOL    HW235658   7.431   2.595  13.373
77921SOL     OW35659   0.160  13.418  10.006
77921SOL    HW135660   0.252  13.430   9.984
77921SOL    HW235661   0.129  13.350   9.946
77922SOL     OW35662   9.065   6.259   9.401
77922SOL    HW135663   9.026   6.179   9.367
77922SOL    HW235664   9.146   6.231   9.443
77923SOL     OW35665  12.061   6.172   7.594
77923SOL    HW135666  11.990   6.130   7.642
77923SOL    HW235667  12.023   6.194   7.509
77924SOL     OW35668  10.708   2.000   1.196
77924SOL    HW135669  10.640   1.941   1.228
77924SOL    HW235670  10.694   2.081   1.245
77925SOL     OW35671   7.029   3.560   2.313
77925SOL    HW135672   6.949   3.613   2.322
77925SOL    HW235673   7.073   3.595   2.236
77926SOL     OW35674   1.947   8.807   7.767
77926SOL    HW135675   2.010   8.736   7.765
77926SOL    HW235676   1.964   8.852   7.850
77927SOL     OW35677   9.829   2.008   3.370
77927SOL    HW135678   9.832   2.062   3.449
77927SOL    HW235679   9.899   1.943   3.384
77928SOL     OW35680  10.802   5.836   5.882
77928SOL    HW135681  10.895   5.838   5.860
77928SOL    HW235682  10.760   5.805   5.801
77929SOL     OW35683  12.558  12.474  12.347
77929SOL    HW135684  12.472  12.517  12.341
77929SOL    HW235685  12.546  12.390  12.304
77930SOL     OW35686   4.615   1.730   5.164
77930SOL    HW135687   4.540   1.746   5.220
77930SOL    HW235688   4.650   1.646   5.194
77931SOL     OW35689   4.995   5.801   8.992
77931SOL    HW135690   4.934   5.824   8.922
77931SOL    HW235691   4.939   5.775   9.065
77932SOL     OW35692  14.291  14.773  13.208
77932SOL    HW135693  14.247  14.820  13.137
77932SOL    HW235694  14.350  14.712  13.163
77933SOL     OW35695   0.388   8.666   2.624
77933SOL    HW135696   0.385   8.760   2.607
77933SOL    HW235697   0.413   8.627   2.541
77934SOL     OW35698   3.100   0.645  10.009
77934SOL    HW135699   3.171   0.707   9.988
77934SOL    HW235700   3.083   0.600   9.927
77935SOL     OW35701   9.288   1.962   4.183
77935SOL    HW135702   9.234   2.013   4.122
77935SOL    HW235703   9.288   1.873   4.146
77936SOL     OW35704   6.770  13.321  11.049
77936SOL    HW135705   6.819  13.280  11.120
77936SOL    HW235706   6.725  13.249  11.005
77937SOL     OW35707   8.459  14.257   9.064
77937SOL    HW135708   8.414  14.298   9.137
77937SOL    HW235709   8.391  14.209   9.018
77938SOL     OW35710   7.557   9.637   8.279
77938SOL    HW135711   7.476   9.621   8.230
77938SOL    HW235712   7.541   9.719   8.325
77939SOL     OW35713   4.580   2.988   2.417
77939SOL    HW135714   4.535   3.019   2.496
77939SOL    HW235715   4.557   3.051   2.349
77940SOL     OW35716   7.985   7.420   4.750
77940SOL    HW135717   8.044   7.484   4.711
77940SOL    HW235718   8.030   7.336   4.737
77941SOL     OW35719   5.809   4.280   7.766
77941SOL    HW135720   5.836   4.365   7.731
77941SOL    HW235721   5.874   4.261   7.833
77942SOL     OW35722  10.720   6.221  12.771
77942SOL    HW135723  10.783   6.226  12.699
77942SOL    HW235724  10.758   6.276  12.840
77943SOL     OW35725   0.906   4.092   6.424
77943SOL    HW135726   0.863   4.019   6.379
77943SOL    HW235727   0.932   4.152   6.354
77944SOL     OW35728   0.705  11.521   3.586
77944SOL    HW135729   0.714  11.495   3.494
77944SOL    HW235730   0.772  11.589   3.598
77945SOL     OW35731   1.512   2.781   2.923
77945SOL    HW135732   1.553   2.845   2.866
77945SOL    HW235733   1.500   2.704   2.869
77946SOL     OW35734  14.058   5.966   0.656
77946SOL    HW135735  14.066   5.879   0.616
77946SOL    HW235736  14.012   6.019   0.591
77947SOL     OW35737   7.314   9.271  11.168
77947SOL    HW135738   7.403   9.285  11.200
77947SOL    HW235739   7.268   9.232  11.242
77948SOL     OW35740   9.139  13.774   8.071
77948SOL    HW135741   9.198  13.841   8.105
77948SOL    HW235742   9.186  13.691   8.084
77949SOL     OW35743   8.924  12.440  10.166
77949SOL    HW135744   8.874  12.486  10.233
77949SOL    HW235745   8.981  12.381  10.215
77950SOL     OW35746  12.702   3.277  12.523
77950SOL    HW135747  12.780   3.293  12.575
77950SOL    HW235748  12.652   3.212  12.572
77951SOL     OW35749  12.119  10.953  13.590
77951SOL    HW135750  12.123  10.942  13.685
77951SOL    HW235751  12.167  10.878  13.555
77952SOL     OW35752  13.057   5.334   1.023
77952SOL    HW135753  13.012   5.250   1.026
77952SOL    HW235754  13.029   5.372   0.940
77953SOL     OW35755   5.741   3.890  11.280
77953SOL    HW135756   5.794   3.899  11.359
77953SOL    HW235757   5.650   3.894  11.312
77954SOL     OW35758   1.674   9.028  12.711
77954SOL    HW135759   1.631   9.078  12.642
77954SOL    HW235760   1.672   8.938  12.681
77955SOL     OW35761   7.367  13.464   1.781
77955SOL    HW135762   7.364  13.448   1.876
77955SOL    HW235763   7.459  13.479   1.762
77956SOL     OW35764   2.976   5.695   9.775
77956SOL    HW135765   2.904   5.750   9.744
77956SOL    HW235766   2.990   5.631   9.705
77957SOL     OW35767   9.186   3.552   6.923
77957SOL    HW135768   9.271   3.517   6.948
77957SOL    HW235769   9.161   3.502   6.845
77958SOL     OW35770  14.262   6.639   2.198
77958SOL    HW135771  14.329   6.706   2.212
77958SOL    HW235772  14.296   6.562   2.243
77959SOL     OW35773   5.178   7.188  14.231
77959SOL    HW135774   5.128   7.186  14.150
77959SOL    HW235775   5.262   7.227  14.207
77960SOL     OW35776  13.872   2.954   8.100
77960SOL    HW135777  13.810   3.019   8.066
77960SOL    HW235778  13.956   3.001   8.104
77961SOL     OW35779   8.792   3.070  11.540
77961SOL    HW135780   8.806   3.033  11.453
77961SOL    HW235781   8.866   3.037  11.592
77962SOL     OW35782  10.091   7.494   9.857
77962SOL    HW135783  10.047   7.462   9.935
77962SOL    HW235784  10.025   7.489   9.788
77963SOL     OW35785  12.211   3.764   9.368
77963SOL    HW135786  12.240   3.761   9.459
77963SOL    HW235787  12.165   3.681   9.354
77964SOL     OW35788   0.017  14.598  11.270
77964SOL    HW135789   0.010  14.560  11.182
77964SOL    HW235790  14.801  14.584  11.309
77965SOL     OW35791  13.871   0.040   9.405
77965SOL    HW135792  13.935   0.042   9.476
77965SOL    HW235793  13.797  14.861   9.441
77966SOL     OW35794   7.426   5.042  12.566
77966SOL    HW135795   7.347   5.003  12.603
77966SOL    HW235796   7.424   5.018  12.473
77967SOL     OW35797   0.717  14.288  11.396
77967SOL    HW135798   0.672  14.290  11.312
77967SOL    HW235799   0.647  14.291  11.461
77968SOL     OW35800   9.528  10.497   3.179
77968SOL    HW135801   9.450  10.471   3.129
77968SOL    HW235802   9.597  10.439   3.147
77969SOL     OW35803   1.904   1.335   4.334
77969SOL    HW135804   1.957   1.414   4.331
77969SOL    HW235805   1.901   1.304   4.244
77970SOL     OW35806   4.419  11.116  14.674
77970SOL    HW135807   4.367  11.039  14.698
77970SOL    HW235808   4.479  11.128  14.748
77971SOL     OW35809  14.072   8.869  13.871
77971SOL    HW135810  14.123   8.948  13.888
77971SOL    HW235811  13.981   8.893  13.890
77972SOL     OW35812  10.949   7.415  12.826
77972SOL    HW135813  10.998   7.424  12.908
77972SOL    HW235814  11.013   7.380  12.764
77973SOL     OW35815  10.393  12.951  14.233
77973SOL    HW135816  10.442  12.978  14.155
77973SOL    HW235817  10.422  12.862  14.250
77974SOL     OW35818   6.721   3.206   2.356
77974SOL    HW135819   6.654   3.275   2.353
77974SOL    HW235820   6.749   3.204   2.447
77975SOL     OW35821   9.334   9.087   2.589
77975SOL    HW135822   9.339   9.182   2.578
77975SOL    HW235823   9.305   9.074   2.679
77976SOL     OW35824   9.237   1.701   4.949
77976SOL    HW135825   9.162   1.675   4.896
77976SOL    HW235826   9.283   1.766   4.895
77977SOL     OW35827  11.139  13.468   7.694
77977SOL    HW135828  11.192  13.414   7.752
77977SOL    HW235829  11.160  13.438   7.606
77978SOL     OW35830   3.896   3.201   1.550
77978SOL    HW135831   3.824   3.180   1.610
77978SOL    HW235832   3.975   3.174   1.595
77979SOL     OW35833   4.436   5.423  11.546
77979SOL    HW135834   4.465   5.348  11.493
77979SOL    HW235835   4.516   5.453  11.590
77980SOL     OW35836  13.792   3.119  14.424
77980SOL    HW135837  13.842   3.148  14.500
77980SOL    HW235838  13.742   3.196  14.396
77981SOL     OW35839   8.096  11.981   3.940
77981SOL    HW135840   8.032  11.917   3.908
77981SOL    HW235841   8.138  11.938   4.014
77982SOL     OW35842   9.248   9.532   1.916
77982SOL    HW135843   9.272   9.440   1.915
77982SOL    HW235844   9.328   9.578   1.893
77983SOL     OW35845   7.596   7.351   5.547
77983SOL    HW135846   7.568   7.435   5.583
77983SOL    HW235847   7.637   7.305   5.620
77984SOL     OW35848   9.616   8.512   4.620
77984SOL    HW135849   9.668   8.567   4.562
77984SOL    HW235850   9.566   8.456   4.561
77985SOL     OW35851   1.874   8.863   4.718
77985SOL    HW135852   1.962   8.828   4.733
77985SOL    HW235853   1.876   8.950   4.758
77986SOL     OW35854  10.779  11.575  13.599
77986SOL    HW135855  10.736  11.512  13.658
77986SOL    HW235856  10.790  11.527  13.517
77987SOL     OW35857  12.547   5.030  10.136
77987SOL    HW135858  12.621   5.066  10.184
77987SOL    HW235859  12.480   5.016  10.203
77988SOL     OW35860  13.531  14.805  13.270
77988SOL    HW135861  13.601  14.770  13.325
77988SOL    HW235862  13.479  14.728  13.245
77989SOL     OW35863  14.266   3.426   1.201
77989SOL    HW135864  14.308   3.340   1.189
77989SOL    HW235865  14.300   3.479   1.129
77990SOL     OW35866   7.351   3.860   6.655
77990SOL    HW135867   7.395   3.917   6.593
77990SOL    HW235868   7.379   3.891   6.741
77991SOL     OW35869   6.161  13.062  13.675
77991SOL    HW135870   6.234  13.124  13.678
77991SOL    HW235871   6.130  13.057  13.766
77992SOL     OW35872   0.443  13.977   8.396
77992SOL    HW135873   0.529  14.002   8.430
77992SOL    HW235874   0.384  14.047   8.425
77993SOL     OW35875   3.297   7.629   5.358
77993SOL    HW135876   3.367   7.658   5.416
77993SOL    HW235877   3.304   7.533   5.357
77994SOL     OW35878   9.141  10.504  12.520
77994SOL    HW135879   9.126  10.599  12.520
77994SOL    HW235880   9.149  10.481  12.428
77995SOL     OW35881  13.862   6.069   2.730
77995SOL    HW135882  13.801   6.053   2.803
77995SOL    HW235883  13.814   6.126   2.670
77996SOL     OW35884  13.276   6.922   5.550
77996SOL    HW135885  13.335   6.849   5.568
77996SOL    HW235886  13.295   6.947   5.460
77997SOL     OW35887  11.366   6.034   8.864
77997SOL    HW135888  11.283   5.987   8.863
77997SOL    HW235889  11.343   6.124   8.838
77998SOL     OW35890   0.771  13.618  10.480
77998SOL    HW135891   0.744  13.654  10.395
77998SOL    HW235892   0.712  13.544  10.494
77999SOL     OW35893  13.642   9.717   8.422
77999SOL    HW135894  13.571   9.773   8.453
77999SOL    HW235895  13.636   9.722   8.326
78000SOL     OW35896   9.395  14.608   7.469
78000SOL    HW135897   9.487  14.583   7.480
78000SOL    HW235898   9.357  14.539   7.416
78001SOL     OW35899   5.438   4.752   7.849
78001SOL    HW135900   5.471   4.830   7.803
78001SOL    HW235901   5.517   4.707   7.879
78002SOL     OW35902  11.730   6.999   5.658
78002SOL    HW135903  11.730   7.004   5.753
78002SOL    HW235904  11.775   7.079   5.630
78003SOL     OW35905   4.064  12.017  10.933
78003SOL    HW135906   3.981  12.053  10.965
78003SOL    HW235907   4.057  11.923  10.948
78004SOL     OW35908  11.913  13.993  14.518
78004SOL    HW135909  12.006  14.013  14.527
78004SOL    HW235910  11.910  13.900  14.497
78005SOL     OW35911  13.885   9.374  11.590
78005SOL    HW135912  13.836   9.329  11.521
78005SOL    HW235913  13.879   9.315  11.665
78006SOL     OW35914  11.113   6.459   9.006
78006SOL    HW135915  11.122   6.394   9.076
78006SOL    HW235916  11.032   6.505   9.026
78007SOL     OW35917  11.318  14.859  10.363
78007SOL    HW135918  11.299  14.770  10.393
78007SOL    HW235919  11.286   0.046  10.434
78008SOL     OW35920  12.866   5.717   9.538
78008SOL    HW135921  12.872   5.762   9.623
78008SOL    HW235922  12.957   5.710   9.509
78009SOL     OW35923   6.805  11.764   3.885
78009SOL    HW135924   6.787  11.676   3.918
78009SOL    HW235925   6.889  11.756   3.841
78010SOL     OW35926   9.470   2.805   6.295
78010SOL    HW135927   9.430   2.737   6.349
78010SOL    HW235928   9.465   2.770   6.206
78011SOL     OW35929  11.460   3.512   4.612
78011SOL    HW135930  11.533   3.553   4.566
78011SOL    HW235931  11.494   3.427   4.641
78012SOL     OW35932   9.601   8.792   9.205
78012SOL    HW135933   9.550   8.792   9.124
78012SOL    HW235934   9.567   8.867   9.254
78013SOL     OW35935   6.302  10.662  10.630
78013SOL    HW135936   6.359  10.721  10.580
78013SOL    HW235937   6.268  10.601  10.564
78014SOL     OW35938  12.589   3.143   8.431
78014SOL    HW135939  12.638   3.215   8.470
78014SOL    HW235940  12.498   3.171   8.433
78015SOL     OW35941   7.976   3.805  11.375
78015SOL    HW135942   8.007   3.892  11.397
78015SOL    HW235943   7.884   3.818  11.351
78016SOL     OW35944  14.214  12.209   4.644
78016SOL    HW135945  14.123  12.201   4.616
78016SOL    HW235946  14.209  12.227   4.738
78017SOL     OW35947   4.064   0.748   9.867
78017SOL    HW135948   4.056   0.654   9.882
78017SOL    HW235949   4.024   0.761   9.780
78018SOL     OW35950   1.897  12.983   4.769
78018SOL    HW135951   1.823  13.012   4.823
78018SOL    HW235952   1.926  12.902   4.811
78019SOL     OW35953   9.712   0.426   4.219
78019SOL    HW135954   9.763   0.346   4.233
78019SOL    HW235955   9.662   0.408   4.139
78020SOL     OW35956   4.975   9.629   7.185
78020SOL    HW135957   4.891   9.651   7.145
78020SOL    HW235958   4.964   9.540   7.218
78021SOL     OW35959   9.236   5.510  14.761
78021SOL    HW135960   9.149   5.493  14.799
78021SOL    HW235961   9.237   5.459  14.679
78022SOL     OW35962   3.964   9.072   3.718
78022SOL    HW135963   4.045   9.042   3.759
78022SOL    HW235964   3.902   9.001   3.734
78023SOL     OW35965  14.236   9.905  12.016
78023SOL    HW135966  14.190   9.891  12.099
78023SOL    HW235967  14.307   9.841  12.018
78024SOL     OW35968   8.497   7.706  11.319
78024SOL    HW135969   8.451   7.623  11.307
78024SOL    HW235970   8.508   7.713  11.414
78025SOL     OW35971   9.025   5.977  10.695
78025SOL    HW135972   9.114   5.960  10.724
78025SOL    HW235973   8.979   6.008  10.774
78026SOL     OW35974   9.792   9.407   9.207
78026SOL    HW135975   9.808   9.355   9.128
78026SOL    HW235976   9.876   9.448   9.226
78027SOL     OW35977  13.083   2.667  13.573
78027SOL    HW135978  13.052   2.683  13.662
78027SOL    HW235979  13.105   2.754  13.540
78028SOL     OW35980   9.787   6.566   7.330
78028SOL    HW135981   9.713   6.590   7.274
78028SOL    HW235982   9.789   6.471   7.329
78029SOL     OW35983  10.431   6.643  14.057
78029SOL    HW135984  10.498   6.593  14.104
78029SOL    HW235985  10.461   6.734  14.063
78030SOL     OW35986   2.285   8.310   8.623
78030SOL    HW135987   2.323   8.239   8.675
78030SOL    HW235988   2.255   8.267   8.543
78031SOL     OW35989  13.019  10.990  12.129
78031SOL    HW135990  13.053  11.075  12.101
78031SOL    HW235991  13.015  10.995  12.224
78032SOL     OW35992  10.391   0.720   5.752
78032SOL    HW135993  10.409   0.627   5.764
78032SOL    HW235994  10.337   0.744   5.828
78033SOL     OW35995   8.290   4.350   0.660
78033SOL    HW135996   8.275   4.348   0.566
78033SOL    HW235997   8.283   4.443   0.683
78034SOL     OW35998   0.523   5.541   7.103
78034SOL    HW135999   0.569   5.588   7.033
78034SOL    HW236000   0.443   5.507   7.062
78035SOL     OW36001   5.510  13.299   4.324
78035SOL    HW136002   5.570  13.359   4.368
78035SOL    HW236003   5.461  13.354   4.263
78036SOL     OW36004   3.249  12.477  10.050
78036SOL    HW136005   3.170  12.429  10.026
78036SOL    HW236006   3.240  12.492  10.144
78037SOL     OW36007   1.677   4.315   2.345
78037SOL    HW136008   1.614   4.255   2.384
78037SOL    HW236009   1.632   4.399   2.342
78038SOL     OW36010   2.306   9.866   6.398
78038SOL    HW136011   2.263   9.851   6.482
78038SOL    HW236012   2.398   9.880   6.420
78039SOL     OW36013   3.051  10.897   7.484
78039SOL    HW136014   3.075  10.908   7.576
78039SOL    HW236015   2.959  10.868   7.487
78040SOL     OW36016   5.777  11.724  12.446
78040SOL    HW136017   5.695  11.700  12.490
78040SOL    HW236018   5.837  11.745  12.518
78041SOL     OW36019  12.289   7.430   5.468
78041SOL    HW136020  12.208   7.471   5.438
78041SOL    HW236021  12.342   7.501   5.503
78042SOL     OW36022   4.126  11.747   8.026
78042SOL    HW136023   4.109  11.668   7.975
78042SOL    HW236024   4.091  11.818   7.973
78043SOL     OW36025   1.593   0.830   9.001
78043SOL    HW136026   1.650   0.906   9.001
78043SOL    HW236027   1.589   0.803   9.093
78044SOL     OW36028   8.919   3.748   6.101
78044SOL    HW136029   8.932   3.828   6.153
78044SOL    HW236030   8.831   3.760   6.063
78045SOL     OW36031   9.887  10.669  11.052
78045SOL    HW136032   9.909  10.674  10.959
78045SOL    HW236033   9.966  10.637  11.094
78046SOL     OW36034   6.079   9.845   9.580
78046SOL    HW136035   6.098   9.810   9.494
78046SOL    HW236036   6.160   9.832   9.630
78047SOL     OW36037  14.838   2.903   5.964
78047SOL    HW136038  14.808   2.884   6.054
78047SOL    HW236039  14.769   2.958   5.927
78048SOL     OW36040   1.610   8.204   8.290
78048SOL    HW136041   1.629   8.269   8.357
78048SOL    HW236042   1.608   8.254   8.208
78049SOL     OW36043  14.687   1.528   3.497
78049SOL    HW136044  14.779   1.555   3.505
78049SOL    HW236045  14.637   1.606   3.519
78050SOL     OW36046  11.140   9.116   9.668
78050SOL    HW136047  11.121   9.142   9.758
78050SOL    HW236048  11.170   9.196   9.625
78051SOL     OW36049   5.401  12.932   2.385
78051SOL    HW136050   5.379  12.912   2.476
78051SOL    HW236051   5.397  12.848   2.339
78052SOL     OW36052  13.241  11.226  10.742
78052SOL    HW136053  13.165  11.179  10.776
78052SOL    HW236054  13.240  11.309  10.788
78053SOL     OW36055   1.923   8.533  10.985
78053SOL    HW136056   1.878   8.574  10.911
78053SOL    HW236057   1.923   8.439  10.964
78054SOL     OW36058   9.752   9.665   9.453
78054SOL    HW136059   9.738   9.571   9.459
78054SOL    HW236060   9.842   9.674   9.422
78055SOL     OW36061   8.112  13.314   5.341
78055SOL    HW136062   8.205  13.323   5.359
78055SOL    HW236063   8.097  13.219   5.338
78056SOL     OW36064  11.895  10.338   3.489
78056SOL    HW136065  11.890  10.354   3.583
78056SOL    HW236066  11.851  10.254   3.476
78057SOL     OW36067   1.972   6.227   1.695
78057SOL    HW136068   1.889   6.272   1.709
78057SOL    HW236069   2.036   6.297   1.682
78058SOL     OW36070   0.251  13.167   3.074
78058SOL    HW136071   0.327  13.225   3.073
78058SOL    HW236072   0.216  13.173   2.985
78059SOL     OW36073   9.396   5.694  14.576
78059SOL    HW136074   9.341   5.661  14.648
78059SOL    HW236075   9.416   5.785  14.601
78060SOL     OW36076  11.387  12.352  10.809
78060SOL    HW136077  11.311  12.410  10.799
78060SOL    HW236078  11.423  12.374  10.895
78061SOL     OW36079   8.481   2.129   5.981
78061SOL    HW136080   8.545   2.157   6.046
78061SOL    HW236081   8.411   2.088   6.033
78062SOL     OW36082   6.902   0.372  13.081
78062SOL    HW136083   6.845   0.346  13.153
78062SOL    HW236084   6.869   0.457  13.053
78063SOL     OW36085   6.580   2.339  11.110
78063SOL    HW136086   6.635   2.263  11.093
78063SOL    HW236087   6.495   2.303  11.133
78064SOL     OW36088   7.546   9.214   9.494
78064SOL    HW136089   7.511   9.264   9.420
78064SOL    HW236090   7.637   9.196   9.470
78065SOL     OW36091  10.799   3.027  10.371
78065SOL    HW136092  10.726   3.026  10.310
78065SOL    HW236093  10.837   2.939  10.365
78066SOL     OW36094   5.107   3.381   6.527
78066SOL    HW136095   5.045   3.453   6.534
78066SOL    HW236096   5.087   3.341   6.442
78067SOL     OW36097   6.645   0.744   7.141
78067SOL    HW136098   6.664   0.768   7.232
78067SOL    HW236099   6.710   0.792   7.090
78068SOL     OW36100   0.358   2.279   1.817
78068SOL    HW136101   0.372   2.314   1.729
78068SOL    HW236102   0.439   2.298   1.863
78069SOL     OW36103   9.873  14.553  12.804
78069SOL    HW136104   9.931  14.576  12.877
78069SOL    HW236105   9.785  14.555  12.841
78070SOL     OW36106   7.701   6.636  13.486
78070SOL    HW136107   7.742   6.712  13.526
78070SOL    HW236108   7.609   6.640  13.514
78071SOL     OW36109   7.596  14.334  10.131
78071SOL    HW136110   7.683  14.363  10.105
78071SOL    HW236111   7.572  14.392  10.203
78072SOL     OW36112  10.234   6.833   2.119
78072SOL    HW136113  10.254   6.745   2.087
78072SOL    HW236114  10.195   6.819   2.205
78073SOL     OW36115  11.041  12.084   0.165
78073SOL    HW136116  11.092  12.129   0.097
78073SOL    HW236117  10.990  12.019   0.118
78074SOL     OW36118  12.494   0.910   4.725
78074SOL    HW136119  12.411   0.941   4.690
78074SOL    HW236120  12.540   0.989   4.753
78075SOL     OW36121   8.698   4.916  10.633
78075SOL    HW136122   8.760   4.976  10.592
78075SOL    HW236123   8.615   4.933  10.588
78076SOL     OW36124   0.629   9.620   2.331
78076SOL    HW136125   0.588   9.678   2.268
78076SOL    HW236126   0.723   9.633   2.319
78077SOL     OW36127   7.572  10.293  11.275
78077SOL    HW136128   7.492  10.309  11.226
78077SOL    HW236129   7.624  10.235  11.219
78078SOL     OW36130   6.427   1.088   3.314
78078SOL    HW136131   6.436   1.182   3.298
78078SOL    HW236132   6.350   1.063   3.263
78079SOL     OW36133   9.791  12.828   3.202
78079SOL    HW136134   9.809  12.918   3.228
78079SOL    HW236135   9.741  12.836   3.121
78080SOL     OW36136   6.353   3.350  12.504
78080SOL    HW136137   6.371   3.277  12.445
78080SOL    HW236138   6.290   3.404  12.458
78081SOL     OW36139   4.855   1.006   1.277
78081SOL    HW136140   4.762   0.984   1.270
78081SOL    HW236141   4.883   0.965   1.359
78082SOL     OW36142  13.584  12.658   3.685
78082SOL    HW136143  13.550  12.588   3.629
78082SOL    HW236144  13.519  12.666   3.755
78083SOL     OW36145   2.774   6.604   6.278
78083SOL    HW136146   2.856   6.642   6.309
78083SOL    HW236147   2.761   6.527   6.334
78084SOL     OW36148  12.196  14.420   0.321
78084SOL    HW136149  12.167  14.330   0.339
78084SOL    HW236150  12.226  14.417   0.230
78085SOL     OW36151   9.022   6.543   8.347
78085SOL    HW136152   9.066   6.536   8.262
78085SOL    HW236153   9.068   6.613   8.392
78086SOL     OW36154   5.632  11.278   5.713
78086SOL    HW136155   5.606  11.274   5.621
78086SOL    HW236156   5.723  11.248   5.713
78087SOL     OW36157   1.399   7.560  14.735
78087SOL    HW136158   1.322   7.615  14.719
78087SOL    HW236159   1.467   7.599  14.680
78088SOL     OW36160   3.678   1.192   7.110
78088SOL    HW136161   3.737   1.137   7.059
78088SOL    HW236162   3.727   1.214   7.189
78089SOL     OW36163   6.288   1.667   3.595
78089SOL    HW136164   6.265   1.575   3.581
78089SOL    HW236165   6.344   1.666   3.672
78090SOL     OW36166   6.616   2.964  12.657
78090SOL    HW136167   6.566   2.921  12.727
78090SOL    HW236168   6.582   3.053  12.654
78091SOL     OW36169   2.711   9.082   8.879
78091SOL    HW136170   2.777   9.085   8.810
78091SOL    HW236171   2.667   8.998   8.867
78092SOL     OW36172  14.736   4.676  12.713
78092SOL    HW136173  14.714   4.593  12.754
78092SOL    HW236174  14.831   4.681  12.717
78093SOL     OW36175   6.261   7.597  14.202
78093SOL    HW136176   6.323   7.581  14.131
78093SOL    HW236177   6.315   7.610  14.280
78094SOL     OW36178  13.957   8.461   3.339
78094SOL    HW136179  14.053   8.465   3.334
78094SOL    HW236180  13.937   8.485   3.430
78095SOL     OW36181  14.049   2.757   7.283
78095SOL    HW136182  14.039   2.702   7.361
78095SOL    HW236183  13.986   2.721   7.220
78096SOL     OW36184   2.765   9.844  14.744
78096SOL    HW136185   2.818   9.786  14.690
78096SOL    HW236186   2.775   9.930  14.704
78097SOL     OW36187   6.908  11.064   9.654
78097SOL    HW136188   6.869  11.151   9.654
78097SOL    HW236189   6.840  11.007   9.618
78098SOL     OW36190   0.306  11.417   6.574
78098SOL    HW136191   0.362  11.345   6.546
78098SOL    HW236192   0.295  11.404   6.668
78099SOL     OW36193  10.628   9.677   2.659
78099SOL    HW136194  10.636   9.742   2.590
78099SOL    HW236195  10.580   9.605   2.620
78100SOL     OW36196   2.444   8.431   5.553
78100SOL    HW136197   2.391   8.405   5.628
78100SOL    HW236198   2.457   8.525   5.563
78101SOL     OW36199   2.029   5.173   6.011
78101SOL    HW136200   1.998   5.095   6.056
78101SOL    HW236201   2.090   5.214   6.073
78102SOL     OW36202   1.773   6.946   4.674
78102SOL    HW136203   1.861   6.929   4.708
78102SOL    HW236204   1.768   6.894   4.594
78103SOL     OW36205   4.204   4.966   5.603
78103SOL    HW136206   4.172   5.050   5.636
78103SOL    HW236207   4.134   4.904   5.624
78104SOL     OW36208   9.821   2.546  10.690
78104SOL    HW136209   9.822   2.640  10.707
78104SOL    HW236210   9.728   2.522  10.696
78105SOL     OW36211  12.770  10.644   5.545
78105SOL    HW136212  12.767  10.627   5.451
78105SOL    HW236213  12.791  10.737   5.552
78106SOL     OW36214   8.127   5.747   2.657
78106SOL    HW136215   8.196   5.730   2.720
78106SOL    HW236216   8.089   5.830   2.685
78107SOL     OW36217  12.979   3.503   3.674
78107SOL    HW136218  13.072   3.505   3.653
78107SOL    HW236219  12.939   3.566   3.613
78108SOL     OW36220   3.832  13.857   1.106
78108SOL    HW136221   3.745  13.896   1.095
78108SOL    HW236222   3.830  13.779   1.049
78109SOL     OW36223   5.617  10.894   0.937
78109SOL    HW136224   5.616  10.942   0.854
78109SOL    HW236225   5.567  10.949   0.997
78110SOL     OW36226  12.892   7.655   5.322
78110SOL    HW136227  12.944   7.575   5.323
78110SOL    HW236228  12.806   7.628   5.355
78111SOL     OW36229   8.923  13.731   4.684
78111SOL    HW136230   8.863  13.694   4.619
78111SOL    HW236231   8.998  13.672   4.684
78112SOL     OW36232   2.467   1.975   8.352
78112SOL    HW136233   2.470   1.914   8.426
78112SOL    HW236234   2.469   1.919   8.275
78113SOL     OW36235   5.581   3.582  10.143
78113SOL    HW136236   5.500   3.569  10.093
78113SOL    HW236237   5.568   3.665  10.189
78114SOL     OW36238  10.136   1.298  13.168
78114SOL    HW136239  10.103   1.263  13.251
78114SOL    HW236240  10.094   1.243  13.101
78115SOL     OW36241  10.542   8.423  12.940
78115SOL    HW136242  10.524   8.481  13.014
78115SOL    HW236243  10.459   8.420  12.892
78116SOL     OW36244   0.465   4.849   4.251
78116SOL    HW136245   0.442   4.917   4.187
78116SOL    HW236246   0.514   4.784   4.200
78117SOL     OW36247   8.909   3.295   7.519
78117SOL    HW136248   8.872   3.237   7.585
78117SOL    HW236249   8.978   3.343   7.565
78118SOL     OW36250   6.165   1.341   6.064
78118SOL    HW136251   6.134   1.315   5.977
78118SOL    HW236252   6.171   1.259   6.113
78119SOL     OW36253  11.522  10.422  10.286
78119SOL    HW136254  11.427  10.416  10.294
78119SOL    HW236255  11.541  10.515  10.298
78120SOL     OW36256   9.120   4.318  13.444
78120SOL    HW136257   9.132   4.391  13.503
78120SOL    HW236258   9.165   4.245  13.486
78121SOL     OW36259   8.524   7.699   8.524
78121SOL    HW136260   8.520   7.615   8.570
78121SOL    HW236261   8.618   7.718   8.519
78122SOL     OW36262  13.455   1.988  11.588
78122SOL    HW136263  13.515   2.052  11.549
78122SOL    HW236264  13.499   1.958  11.667
78123SOL     OW36265  11.353  14.868   9.238
78123SOL    HW136266  11.408   0.066   9.278
78123SOL    HW236267  11.408  14.830   9.170
78124SOL     OW36268  13.573   9.689   3.586
78124SOL    HW136269  13.650   9.645   3.622
78124SOL    HW236270  13.499   9.647   3.629
78125SOL     OW36271  14.158   5.499  14.358
78125SOL    HW136272  14.131   5.420  14.405
78125SOL    HW236273  14.226   5.537  14.413
78126SOL     OW36274   9.618   4.086   2.145
78126SOL    HW136275   9.580   4.172   2.132
78126SOL    HW236276   9.711   4.096   2.122
78127SOL     OW36277   8.738   3.783   7.192
78127SOL    HW136278   8.727   3.872   7.226
78127SOL    HW236279   8.672   3.731   7.237
78128SOL     OW36280   6.785   7.159   7.343
78128SOL    HW136281   6.791   7.066   7.362
78128SOL    HW236282   6.846   7.201   7.403
78129SOL     OW36283   6.168  12.227   0.804
78129SOL    HW136284   6.098  12.219   0.739
78129SOL    HW236285   6.150  12.309   0.848
78130SOL     OW36286  10.403   9.081   3.278
78130SOL    HW136287  10.310   9.056   3.278
78130SOL    HW236288  10.437   9.046   3.195
78131SOL     OW36289   9.256  12.351   2.836
78131SOL    HW136290   9.335  12.404   2.827
78131SOL    HW236291   9.184  12.415   2.835
78132SOL     OW36292   3.658  14.645  13.887
78132SOL    HW136293   3.573  14.610  13.861
78132SOL    HW236294   3.653  14.739  13.866
78133SOL     OW36295   4.748   5.968   8.329
78133SOL    HW136296   4.839   5.960   8.302
78133SOL    HW236297   4.752   5.996   8.420
78134SOL     OW36298  12.791   0.007   2.609
78134SOL    HW136299  12.804  14.802   2.551
78134SOL    HW236300  12.698   0.004   2.631
78135SOL     OW36301  10.533  10.365  14.445
78135SOL    HW136302  10.559  10.295  14.385
78135SOL    HW236303  10.461  10.328  14.496
78136SOL     OW36304   5.632   4.444   8.102
78136SOL    HW136305   5.636   4.352   8.078
78136SOL    HW236306   5.688   4.451   8.179
78137SOL     OW36307   0.131  13.265   6.681
78137SOL    HW136308   0.156  13.174   6.663
78137SOL    HW236309   0.035  13.263   6.680
78138SOL     OW36310   4.610   1.508  11.120
78138SOL    HW136311   4.608   1.570  11.048
78138SOL    HW236312   4.549   1.543  11.184
78139SOL     OW36313   9.411  11.170   9.886
78139SOL    HW136314   9.475  11.240   9.879
78139SOL    HW236315   9.444  11.101   9.828
78140SOL     OW36316   4.770   2.213   8.827
78140SOL    HW136317   4.813   2.211   8.912
78140SOL    HW236318   4.805   2.292   8.785
78141SOL     OW36319   5.868   9.394   7.163
78141SOL    HW136320   5.953   9.354   7.151
78141SOL    HW236321   5.871   9.474   7.110
78142SOL     OW36322   0.203   1.229   4.269
78142SOL    HW136323   0.249   1.250   4.350
78142SOL    HW236324   0.217   1.305   4.212
78143SOL     OW36325  13.608  12.840  14.326
78143SOL    HW136326  13.541  12.789  14.280
78143SOL    HW236327  13.571  12.857  14.412
78144SOL     OW36328   1.744   2.125   4.007
78144SOL    HW136329   1.742   2.054   3.943
78144SOL    HW236330   1.678   2.187   3.976
78145SOL     OW36331   1.203   8.407  10.027
78145SOL    HW136332   1.139   8.476  10.045
78145SOL    HW236333   1.280   8.433  10.077
78146SOL     OW36334   2.586   6.514   0.667
78146SOL    HW136335   2.561   6.435   0.620
78146SOL    HW236336   2.658   6.551   0.616
78147SOL     OW36337  11.606   6.721  14.004
78147SOL    HW136338  11.514   6.701  14.020
78147SOL    HW236339  11.608   6.816  13.989
78148SOL     OW36340   8.373  13.901   5.386
78148SOL    HW136341   8.292  13.854   5.405
78148SOL    HW236342   8.432  13.878   5.458
78149SOL     OW36343  13.446   5.153   1.559
78149SOL    HW136344  13.430   5.198   1.641
78149SOL    HW236345  13.378   5.086   1.555
78150SOL     OW36346  14.033  11.222   4.556
78150SOL    HW136347  13.960  11.280   4.578
78150SOL    HW236348  14.026  11.210   4.461
78151SOL     OW36349   8.842   4.360  13.462
78151SOL    HW136350   8.809   4.448  13.441
78151SOL    HW236351   8.930   4.358  13.424
78152SOL     OW36352   1.331  13.263  10.772
78152SOL    HW136353   1.338  13.345  10.724
78152SOL    HW236354   1.240  13.236  10.762
78153SOL     OW36355   6.211   0.541   8.379
78153SOL    HW136356   6.159   0.606   8.426
78153SOL    HW236357   6.297   0.546   8.420
78154SOL     OW36358   0.290   9.258   6.244
78154SOL    HW136359   0.251   9.312   6.313
78154SOL    HW236360   0.383   9.281   6.244
78155SOL     OW36361   6.180   0.853   2.852
78155SOL    HW136362   6.248   0.811   2.800
78155SOL    HW236363   6.225   0.922   2.901
78156SOL     OW36364  13.113  12.164   0.100
78156SOL    HW136365  13.125  12.152   0.006
78156SOL    HW236366  13.194  12.206   0.129
78157SOL     OW36367   9.326   8.702  13.446
78157SOL    HW136368   9.409   8.740  13.478
78157SOL    HW236369   9.284   8.668  13.525
78158SOL     OW36370   1.154   7.262  10.408
78158SOL    HW136371   1.079   7.205  10.428
78158SOL    HW236372   1.148   7.332  10.473
78159SOL     OW36373   4.014   7.381  12.101
78159SOL    HW136374   4.011   7.321  12.027
78159SOL    HW236375   4.078   7.342  12.161
78160SOL     OW36376   7.573   6.354   9.825
78160SOL    HW136377   7.551   6.279   9.879
78160SOL    HW236378   7.625   6.318   9.753
78161SOL     OW36379  13.872   4.709   8.762
78161SOL    HW136380  13.802   4.711   8.827
78161SOL    HW236381  13.871   4.796   8.723
78162SOL     OW36382   0.382   4.381   6.389
78162SOL    HW136383   0.305   4.326   6.402
78162SOL    HW236384   0.422   4.348   6.309
78163SOL     OW36385  14.284  10.375   2.745
78163SOL    HW136386  14.313  10.387   2.655
78163SOL    HW236387  14.190  10.360   2.738
78164SOL     OW36388   2.311   1.110   6.559
78164SOL    HW136389   2.392   1.061   6.545
78164SOL    HW236390   2.323   1.153   6.643
78165SOL     OW36391  11.173   6.133  10.200
78165SOL    HW136392  11.233   6.059  10.193
78165SOL    HW236393  11.217   6.193  10.261
78166SOL     OW36394   3.427   6.757  11.399
78166SOL    HW136395   3.374   6.811  11.342
78166SOL    HW236396   3.383   6.761  11.484
78167SOL     OW36397   5.878  12.243   2.981
78167SOL    HW136398   5.892  12.168   2.922
78167SOL    HW236399   5.875  12.319   2.922
78168SOL     OW36400  14.319   1.745   7.496
78168SOL    HW136401  14.243   1.759   7.553
78168SOL    HW236402  14.376   1.820   7.513
78169SOL     OW36403   3.331   4.772   7.533
78169SOL    HW136404   3.302   4.834   7.465
78169SOL    HW236405   3.312   4.686   7.496
78170SOL     OW36406  12.550   1.892   8.875
78170SOL    HW136407  12.545   1.977   8.829
78170SOL    HW236408  12.617   1.905   8.942
78171SOL     OW36409   8.030   3.409  12.436
78171SOL    HW136410   7.977   3.467  12.382
78171SOL    HW236411   8.033   3.327  12.387
78172SOL     OW36412  13.174  13.879  14.473
78172SOL    HW136413  13.138  13.813  14.532
78172SOL    HW236414  13.138  13.857  14.387
78173SOL     OW36415   8.468   9.723   3.423
78173SOL    HW136416   8.459   9.776   3.344
78173SOL    HW236417   8.379   9.698   3.446
78174SOL     OW36418   1.509   3.629  10.383
78174SOL    HW136419   1.560   3.639  10.463
78174SOL    HW236420   1.427   3.676  10.402
78175SOL     OW36421   9.501   5.371   2.779
78175SOL    HW136422   9.453   5.339   2.855
78175SOL    HW236423   9.582   5.405   2.815
78176SOL     OW36424  10.888   1.040   7.910
78176SOL    HW136425  10.838   1.085   7.842
78176SOL    HW236426  10.961   1.000   7.863
78177SOL     OW36427   9.635  11.777   1.573
78177SOL    HW136428   9.584  11.697   1.590
78177SOL    HW236429   9.570  11.841   1.544
78178SOL     OW36430  12.566   5.327   0.198
78178SOL    HW136431  12.528   5.242   0.220
78178SOL    HW236432  12.524   5.388   0.258
78179SOL     OW36433   6.136   5.962  13.843
78179SOL    HW136434   6.143   5.982  13.749
78179SOL    HW236435   6.199   6.021  13.885
78180SOL     OW36436   4.433   0.163   5.796
78180SOL    HW136437   4.375   0.196   5.728
78180SOL    HW236438   4.381   0.169   5.877
78181SOL     OW36439   4.269   9.781  14.203
78181SOL    HW136440   4.179   9.753  14.191
78181SOL    HW236441   4.278   9.858  14.146
78182SOL     OW36442  11.621  12.440  10.709
78182SOL    HW136443  11.552  12.386  10.747
78182SOL    HW236444  11.666  12.381  10.648
78183SOL     OW36445   7.220   4.200   3.013
78183SOL    HW136446   7.313   4.197   2.988
78183SOL    HW236447   7.185   4.277   2.969
78184SOL     OW36448   2.398   1.988   1.219
78184SOL    HW136449   2.362   2.074   1.194
78184SOL    HW236450   2.336   1.925   1.183
78185SOL     OW36451  14.559  11.055   8.480
78185SOL    HW136452  14.467  11.062   8.456
78185SOL    HW236453  14.569  11.118   8.552
78186SOL     OW36454   3.916  13.850   4.542
78186SOL    HW136455   3.936  13.780   4.480
78186SOL    HW236456   3.837  13.819   4.587
78187SOL     OW36457   0.773   5.958   0.338
78187SOL    HW136458   0.816   6.004   0.265
78187SOL    HW236459   0.844   5.907   0.378
78188SOL     OW36460   4.884  12.664   4.453
78188SOL    HW136461   4.831  12.587   4.472
78188SOL    HW236462   4.910  12.654   4.362
78189SOL     OW36463   9.730  10.096   7.639
78189SOL    HW136464   9.800  10.160   7.656
78189SOL    HW236465   9.731  10.084   7.545
78190SOL     OW36466   7.497  14.131   9.824
78190SOL    HW136467   7.536  14.219   9.824
78190SOL    HW236468   7.565  14.075   9.786
78191SOL     OW36469   5.752   5.055   0.173
78191SOL    HW136470   5.787   5.065   0.085
78191SOL    HW236471   5.823   5.017   0.223
78192SOL     OW36472  10.433   9.793   1.986
78192SOL    HW136473  10.351   9.822   2.027
78192SOL    HW236474  10.440   9.846   1.907
78193SOL     OW36475   6.672   0.769   5.679
78193SOL    HW136476   6.721   0.695   5.645
78193SOL    HW236477   6.591   0.770   5.628
78194SOL     OW36478   6.571  14.396   8.215
78194SOL    HW136479   6.499  14.414   8.155
78194SOL    HW236480   6.608  14.314   8.184
78195SOL     OW36481   1.335  11.063   1.871
78195SOL    HW136482   1.342  10.991   1.934
78195SOL    HW236483   1.265  11.118   1.906
78196SOL     OW36484   3.181   0.648   1.136
78196SOL    HW136485   3.219   0.571   1.178
78196SOL    HW236486   3.242   0.719   1.156
78197SOL     OW36487   0.809   0.143   6.552
78197SOL    HW136488   0.841   0.111   6.636
78197SOL    HW236489   0.759   0.222   6.574
78198SOL     OW36490   6.441  11.828   4.201
78198SOL    HW136491   6.474  11.868   4.121
78198SOL    HW236492   6.519  11.806   4.251
78199SOL     OW36493  12.062   4.908   3.680
78199SOL    HW136494  12.034   4.873   3.764
78199SOL    HW236495  12.078   5.001   3.696
78200SOL     OW36496   8.503   2.572   1.525
78200SOL    HW136497   8.484   2.559   1.618
78200SOL    HW236498   8.452   2.648   1.500
78201SOL     OW36499   5.038  10.267   1.522
78201SOL    HW136500   5.102  10.212   1.567
78201SOL    HW236501   5.091  10.334   1.478
78202SOL     OW36502   5.990   6.285   5.358
78202SOL    HW136503   5.962   6.330   5.437
78202SOL    HW236504   6.070   6.239   5.382
78203SOL     OW36505  12.620  11.331   6.084
78203SOL    HW136506  12.558  11.303   6.017
78203SOL    HW236507  12.689  11.377   6.036
78204SOL     OW36508   9.644  10.566  13.693
78204SOL    HW136509   9.661  10.622  13.768
78204SOL    HW236510   9.665  10.621  13.617
78205SOL     OW36511  11.077  12.435  10.160
78205SOL    HW136512  11.005  12.498  10.159
78205SOL    HW236513  11.033  12.350  10.154
78206SOL     OW36514   4.387   1.245  10.981
78206SOL    HW136515   4.481   1.256  10.991
78206SOL    HW236516   4.361   1.312  10.918
78207SOL     OW36517   7.057   4.728   6.208
78207SOL    HW136518   7.045   4.803   6.150
78207SOL    HW236519   7.141   4.690   6.182
78208SOL     OW36520   4.845   2.647   5.452
78208SOL    HW136521   4.827   2.600   5.370
78208SOL    HW236522   4.762   2.690   5.473
78209SOL     OW36523  10.583   9.656  11.207
78209SOL    HW136524  10.571   9.750  11.201
78209SOL    HW236525  10.557   9.633  11.296
78210SOL     OW36526   1.191  13.167   2.273
78210SOL    HW136527   1.270  13.213   2.244
78210SOL    HW236528   1.164  13.116   2.197
78211SOL     OW36529  10.690  13.614  12.904
78211SOL    HW136530  10.763  13.560  12.934
78211SOL    HW236531  10.711  13.702  12.935
78212SOL     OW36532   8.835   1.504   9.470
78212SOL    HW136533   8.894   1.567   9.428
78212SOL    HW236534   8.887   1.467   9.542
78213SOL     OW36535   7.802  11.053   8.000
78213SOL    HW136536   7.740  11.084   7.934
78213SOL    HW236537   7.778  11.101   8.079
78214SOL     OW36538   7.512  10.052  13.357
78214SOL    HW136539   7.515  10.138  13.400
78214SOL    HW236540   7.603  10.023  13.356
78215SOL     OW36541   8.867   0.117   0.931
78215SOL    HW136542   8.856   0.184   0.998
78215SOL    HW236543   8.795   0.132   0.870
78216SOL     OW36544   1.606  10.002  12.619
78216SOL    HW136545   1.630  10.095  12.619
78216SOL    HW236546   1.673   9.960  12.566
78217SOL     OW36547   1.208   9.303   4.331
78217SOL    HW136548   1.162   9.377   4.291
78217SOL    HW236549   1.251   9.340   4.408
78218SOL     OW36550   9.626  12.909   3.953
78218SOL    HW136551   9.573  12.949   3.884
78218SOL    HW236552   9.601  12.957   4.033
78219SOL     OW36553  13.398   3.362  12.245
78219SOL    HW136554  13.388   3.295  12.177
78219SOL    HW236555  13.429   3.439  12.198
78220SOL     OW36556   0.512  14.663   5.904
78220SOL    HW136557   0.435  14.654   5.961
78220SOL    HW236558   0.586  14.639   5.960
78221SOL     OW36559  12.282   5.985   2.561
78221SOL    HW136560  12.300   6.072   2.525
78221SOL    HW236561  12.187   5.975   2.549
78222SOL     OW36562   5.149  12.883  12.551
78222SOL    HW136563   5.138  12.970  12.589
78222SOL    HW236564   5.175  12.900  12.460
78223SOL     OW36565  14.151   8.264   0.805
78223SOL    HW136566  14.076   8.226   0.760
78223SOL    HW236567  14.114   8.334   0.860
78224SOL     OW36568   7.248   0.893   1.699
78224SOL    HW136569   7.303   0.885   1.621
78224SOL    HW236570   7.258   0.810   1.744
78225SOL     OW36571   6.630   7.301  13.405
78225SOL    HW136572   6.702   7.318  13.465
78225SOL    HW236573   6.659   7.337  13.321
78226SOL     OW36574   5.593   2.877   5.601
78226SOL    HW136575   5.581   2.820   5.677
78226SOL    HW236576   5.656   2.831   5.545
78227SOL     OW36577  12.576   9.001   7.182
78227SOL    HW136578  12.653   8.946   7.165
78227SOL    HW236579  12.536   9.013   7.095
78228SOL     OW36580   3.881   0.250   6.030
78228SOL    HW136581   3.866   0.311   5.958
78228SOL    HW236582   3.805   0.261   6.088
78229SOL     OW36583   9.372   9.218   4.505
78229SOL    HW136584   9.335   9.154   4.445
78229SOL    HW236585   9.373   9.173   4.590
78230SOL     OW36586   5.006   8.858  11.057
78230SOL    HW136587   5.085   8.851  11.004
78230SOL    HW236588   4.962   8.936  11.024
78231SOL     OW36589  12.323  10.334   9.170
78231SOL    HW136590  12.402  10.364   9.214
78231SOL    HW236591  12.268  10.413   9.164
78232SOL     OW36592   0.586  13.829   9.131
78232SOL    HW136593   0.667  13.855   9.087
78232SOL    HW236594   0.614  13.766   9.197
78233SOL     OW36595   9.366  11.100   4.063
78233SOL    HW136596   9.395  11.100   4.154
78233SOL    HW236597   9.436  11.144   4.016
78234SOL     OW36598   7.697   1.333   5.282
78234SOL    HW136599   7.688   1.343   5.187
78234SOL    HW236600   7.787   1.301   5.293
78235SOL     OW36601  12.792   2.820  11.641
78235SOL    HW136602  12.731   2.771  11.696
78235SOL    HW236603  12.744   2.899  11.616
78236SOL     OW36604  14.056   0.621   4.729
78236SOL    HW136605  14.087   0.674   4.655
78236SOL    HW236606  13.961   0.626   4.724
78237SOL     OW36607   5.963   6.310   6.085
78237SOL    HW136608   5.958   6.385   6.026
78237SOL    HW236609   6.051   6.275   6.073
78238SOL     OW36610  14.534   9.496  14.804
78238SOL    HW136611  14.465   9.562  14.805
78238SOL    HW236612  14.589   9.518   0.010
78239SOL     OW36613   5.402   0.172   5.333
78239SOL    HW136614   5.495   0.165   5.352
78239SOL    HW236615   5.366   0.087   5.359
78240SOL     OW36616  13.444   3.474   9.126
78240SOL    HW136617  13.405   3.431   9.202
78240SOL    HW236618  13.372   3.481   9.063
78241SOL     OW36619   9.706  11.057   4.619
78241SOL    HW136620   9.639  11.042   4.685
78241SOL    HW236621   9.662  11.041   4.535
78242SOL     OW36622  14.147   3.620   9.944
78242SOL    HW136623  14.179   3.652   9.859
78242SOL    HW236624  14.081   3.684   9.971
78243SOL     OW36625   1.617   4.641   9.837
78243SOL    HW136626   1.626   4.610   9.928
78243SOL    HW236627   1.583   4.565   9.789
78244SOL     OW36628   7.153  14.751   4.653
78244SOL    HW136629   7.180  14.818   4.590
78244SOL    HW236630   7.176  14.788   4.739
78245SOL     OW36631  11.908   8.833  11.773
78245SOL    HW136632  11.930   8.740  11.787
78245SOL    HW236633  11.817   8.831  11.745
78246SOL     OW36634  12.298   9.038  10.945
78246SOL    HW136635  12.230   9.085  10.898
78246SOL    HW236636  12.254   8.962  10.983
78247SOL     OW36637  10.159   5.035   4.483
78247SOL    HW136638  10.150   5.130   4.476
78247SOL    HW236639  10.219   5.011   4.412
78248SOL     OW36640  13.432   8.555  12.270
78248SOL    HW136641  13.416   8.546  12.364
78248SOL    HW236642  13.460   8.646  12.259
78249SOL     OW36643   2.910  13.092   0.105
78249SOL    HW136644   2.913  13.056   0.194
78249SOL    HW236645   2.991  13.143   0.097
78250SOL     OW36646   2.947   1.494   0.998
78250SOL    HW136647   2.941   1.401   1.019
78250SOL    HW236648   2.961   1.497   0.904
78251SOL     OW36649   1.099   3.779  12.036
78251SOL    HW136650   1.142   3.861  12.059
78251SOL    HW236651   1.045   3.758  12.112
78252SOL     OW36652   7.734   9.072   2.082
78252SOL    HW136653   7.696   9.000   2.132
78252SOL    HW236654   7.707   9.151   2.128
78253SOL     OW36655   2.087  11.297   1.529
78253SOL    HW136656   2.063  11.260   1.444
78253SOL    HW236657   2.177  11.327   1.518
78254SOL     OW36658  11.084  14.696   4.289
78254SOL    HW136659  11.002  14.715   4.243
78254SOL    HW236660  11.153  14.729   4.231
78255SOL     OW36661   6.864   9.885   4.899
78255SOL    HW136662   6.884   9.851   4.987
78255SOL    HW236663   6.792   9.830   4.869
78256SOL     OW36664   6.443   5.929  13.512
78256SOL    HW136665   6.469   6.019  13.493
78256SOL    HW236666   6.347   5.930  13.507
78257SOL     OW36667  13.832   6.319  13.567
78257SOL    HW136668  13.787   6.349  13.646
78257SOL    HW236669  13.777   6.351  13.495
78258SOL     OW36670  12.309  10.142  12.561
78258SOL    HW136671  12.316  10.234  12.588
78258SOL    HW236672  12.396  10.119  12.529
78259SOL     OW36673  12.125   7.146   8.059
78259SOL    HW136674  12.041   7.121   8.097
78259SOL    HW236675  12.105   7.220   8.003
78260SOL     OW36676   5.436  10.529   0.833
78260SOL    HW136677   5.422  10.515   0.740
78260SOL    HW236678   5.379  10.602   0.856
78261SOL     OW36679   7.667   7.385   8.453
78261SOL    HW136680   7.750   7.345   8.480
78261SOL    HW236681   7.677   7.478   8.476
78262SOL     OW36682   7.226   5.961  12.091
78262SOL    HW136683   7.241   6.042  12.043
78262SOL    HW236684   7.135   5.937  12.070
78263SOL     OW36685   4.835   8.012   9.788
78263SOL    HW136686   4.900   7.944   9.767
78263SOL    HW236687   4.799   7.985   9.873
78264SOL     OW36688  12.565   5.933   1.330
78264SOL    HW136689  12.563   6.028   1.340
78264SOL    HW236690  12.474   5.909   1.311
78265SOL     OW36691  13.994   8.121   3.472
78265SOL    HW136692  14.038   8.056   3.417
78265SOL    HW236693  13.901   8.111   3.452
78266SOL     OW36694   3.669   1.080   9.557
78266SOL    HW136695   3.642   0.989   9.550
78266SOL    HW236696   3.587   1.130   9.556
78267SOL     OW36697   1.158  10.722  14.634
78267SOL    HW136698   1.166  10.803  14.583
78267SOL    HW236699   1.247  10.699  14.658
78268SOL     OW36700   7.115  13.171  12.640
78268SOL    HW136701   7.057  13.116  12.587
78268SOL    HW236702   7.151  13.111  12.706
78269SOL     OW36703   4.303   0.516   4.001
78269SOL    HW136704   4.382   0.565   4.023
78269SOL    HW236705   4.311   0.497   3.908
78270SOL     OW36706  13.468  14.511   1.066
78270SOL    HW136707  13.561  14.524   1.082
78270SOL    HW236708  13.426  14.589   1.102
78271SOL     OW36709   0.845   0.479   6.938
78271SOL    HW136710   0.825   0.425   6.862
78271SOL    HW236711   0.769   0.537   6.947
78272SOL     OW36712  14.733   5.813   6.843
78272SOL    HW136713  14.757   5.833   6.934
78272SOL    HW236714  14.664   5.747   6.852
78273SOL     OW36715   7.850  12.520  12.748
78273SOL    HW136716   7.900  12.445  12.717
78273SOL    HW236717   7.895  12.596  12.711
78274SOL     OW36718   5.044  11.566   5.783
78274SOL    HW136719   4.972  11.540   5.840
78274SOL    HW236720   5.121  11.569   5.841
78275SOL     OW36721   5.224   6.546  13.894
78275SOL    HW136722   5.181   6.592  13.822
78275SOL    HW236723   5.212   6.603  13.970
78276SOL     OW36724   9.233  12.370  12.812
78276SOL    HW136725   9.203  12.286  12.777
78276SOL    HW236726   9.215  12.365  12.906
78277SOL     OW36727   3.371   7.215  11.056
78277SOL    HW136728   3.448   7.262  11.025
78277SOL    HW236729   3.317   7.204  10.978
78278SOL     OW36730  10.349   3.268   0.790
78278SOL    HW136731  10.324   3.275   0.698
78278SOL    HW236732  10.270   3.292   0.838
78279SOL     OW36733   8.522   7.274   3.289
78279SOL    HW136734   8.469   7.267   3.368
78279SOL    HW236735   8.472   7.227   3.222
78280SOL     OW36736   1.496   8.614   7.020
78280SOL    HW136737   1.514   8.708   7.020
78280SOL    HW236738   1.424   8.604   7.083
78281SOL     OW36739   9.087   0.586  10.122
78281SOL    HW136740   8.994   0.570  10.103
78281SOL    HW236741   9.114   0.647  10.054
78282SOL     OW36742   4.226   1.580  11.435
78282SOL    HW136743   4.267   1.554  11.517
78282SOL    HW236744   4.156   1.639  11.461
78283SOL     OW36745   2.836   0.421   8.922
78283SOL    HW136746   2.856   0.330   8.945
78283SOL    HW236747   2.921   0.462   8.910
78284SOL     OW36748   9.386  12.254   3.716
78284SOL    HW136749   9.373  12.214   3.802
78284SOL    HW236750   9.386  12.348   3.733
78285SOL     OW36751   6.217   4.872   0.378
78285SOL    HW136752   6.242   4.956   0.417
78285SOL    HW236753   6.199   4.816   0.453
78286SOL     OW36754   0.530  12.674  10.023
78286SOL    HW136755   0.559  12.734  10.091
78286SOL    HW236756   0.604  12.615  10.010
78287SOL     OW36757  14.163  12.760   4.006
78287SOL    HW136758  14.106  12.697   4.052
78287SOL    HW236759  14.232  12.780   4.069
78288SOL     OW36760   4.226  12.257   0.816
78288SOL    HW136761   4.215  12.283   0.724
78288SOL    HW236762   4.159  12.307   0.863
78289SOL     OW36763   8.318   3.515   0.438
78289SOL    HW136764   8.391   3.532   0.378
78289SOL    HW236765   8.330   3.578   0.509
78290SOL     OW36766   2.924  11.289  12.538
78290SOL    HW136767   2.861  11.217  12.541
78290SOL    HW236768   3.008  11.247  12.558
78291SOL     OW36769  10.640   7.421   0.647
78291SOL    HW136770  10.691   7.373   0.712
78291SOL    HW236771  10.549   7.409   0.674
78292SOL     OW36772   8.132   6.474   7.756
78292SOL    HW136773   8.214   6.426   7.741
78292SOL    HW236774   8.141   6.552   7.701
78293SOL     OW36775   3.487   2.083   3.182
78293SOL    HW136776   3.450   2.070   3.095
78293SOL    HW236777   3.411   2.082   3.240
78294SOL     OW36778   7.826   0.200  14.610
78294SOL    HW136779   7.788   0.253  14.540
78294SOL    HW236780   7.775   0.119  14.610
78295SOL     OW36781   6.657  12.150  10.911
78295SOL    HW136782   6.723  12.220  10.910
78295SOL    HW236783   6.695  12.081  10.857
78296SOL     OW36784   8.622  13.574  11.073
78296SOL    HW136785   8.687  13.506  11.087
78296SOL    HW236786   8.540  13.526  11.059
78297SOL     OW36787   6.093   6.034  13.297
78297SOL    HW136788   6.162   6.093  13.266
78297SOL    HW236789   6.015   6.060  13.248
78298SOL     OW36790   6.498   8.489   1.263
78298SOL    HW136791   6.552   8.486   1.184
78298SOL    HW236792   6.561   8.499   1.335
78299SOL     OW36793   3.323  11.773   5.233
78299SOL    HW136794   3.250  11.776   5.296
78299SOL    HW236795   3.345  11.865   5.218
78300SOL     OW36796   6.680   8.127   4.609
78300SOL    HW136797   6.736   8.050   4.615
78300SOL    HW236798   6.685   8.154   4.518
78301SOL     OW36799   5.452   4.076  12.226
78301SOL    HW136800   5.382   4.137  12.249
78301SOL    HW236801   5.517   4.086  12.296
78302SOL     OW36802  10.690   9.477   3.605
78302SOL    HW136803  10.606   9.434   3.589
78302SOL    HW236804  10.723   9.436   3.685
78303SOL     OW36805   8.298   0.770  11.241
78303SOL    HW136806   8.304   0.675  11.242
78303SOL    HW236807   8.371   0.799  11.295
78304SOL     OW36808   6.368  12.340   3.098
78304SOL    HW136809   6.399  12.250   3.100
78304SOL    HW236810   6.275  12.334   3.119
78305SOL     OW36811   3.676  13.549   8.454
78305SOL    HW136812   3.685  13.464   8.412
78305SOL    HW236813   3.718  13.610   8.393
78306SOL     OW36814  14.288  13.093   5.561
78306SOL    HW136815  14.310  13.072   5.651
78306SOL    HW236816  14.299  13.011   5.513
78307SOL     OW36817   6.933  12.675   8.049
78307SOL    HW136818   6.881  12.730   8.108
78307SOL    HW236819   6.979  12.738   7.993
78308SOL     OW36820  13.263   9.495   3.014
78308SOL    HW136821  13.328   9.430   3.039
78308SOL    HW236822  13.203   9.500   3.089
78309SOL     OW36823   5.651   9.436   1.400
78309SOL    HW136824   5.572   9.432   1.453
78309SOL    HW236825   5.631   9.382   1.323
78310SOL     OW36826   1.392   8.576  10.142
78310SOL    HW136827   1.371   8.534  10.226
78310SOL    HW236828   1.486   8.593  10.147
78311SOL     OW36829  11.863  12.081   0.485
78311SOL    HW136830  11.794  12.020   0.459
78311SOL    HW236831  11.940  12.053   0.434
78312SOL     OW36832   9.388  10.284  13.397
78312SOL    HW136833   9.452  10.226  13.355
78312SOL    HW236834   9.385  10.254  13.488
78313SOL     OW36835  12.804   3.660   2.875
78313SOL    HW136836  12.733   3.668   2.938
78313SOL    HW236837  12.882   3.684   2.923
78314SOL     OW36838  12.556   8.475  14.016
78314SOL    HW136839  12.630   8.416  14.034
78314SOL    HW236840  12.490   8.418  13.976
78315SOL     OW36841  11.450   5.499   5.644
78315SOL    HW136842  11.538   5.489   5.608
78315SOL    HW236843  11.394   5.448   5.586
78316SOL     OW36844   5.523  13.577  10.677
78316SOL    HW136845   5.574  13.500  10.657
78316SOL    HW236846   5.482  13.558  10.761
78317SOL     OW36847  12.875   8.266  14.347
78317SOL    HW136848  12.796   8.272  14.400
78317SOL    HW236849  12.946   8.291  14.405
78318SOL     OW36850   3.772   4.080   9.763
78318SOL    HW136851   3.697   4.132   9.791
78318SOL    HW236852   3.837   4.091   9.833
78319SOL     OW36853   0.222   2.507   4.970
78319SOL    HW136854   0.169   2.571   4.923
78319SOL    HW236855   0.160   2.457   5.022
78320SOL     OW36856   5.442   6.303  14.276
78320SOL    HW136857   5.396   6.252  14.343
78320SOL    HW236858   5.413   6.393  14.290
78321SOL     OW36859   9.271  11.065  13.633
78321SOL    HW136860   9.279  11.161  13.635
78321SOL    HW236861   9.182  11.048  13.661
78322SOL     OW36862   4.933   4.732  14.738
78322SOL    HW136863   5.029   4.732  14.735
78322SOL    HW236864   4.908   4.823  14.726
78323SOL     OW36865   0.552   4.135   0.558
78323SOL    HW136866   0.526   4.206   0.616
78323SOL    HW236867   0.557   4.175   0.471
78324SOL     OW36868   6.109  10.545   3.896
78324SOL    HW136869   6.145  10.460   3.873
78324SOL    HW236870   6.043  10.563   3.829
78325SOL     OW36871   3.547   0.689   8.023
78325SOL    HW136872   3.600   0.754   7.977
78325SOL    HW236873   3.585   0.684   8.110
78326SOL     OW36874   0.938  13.955   4.034
78326SOL    HW136875   1.017  13.913   4.000
78326SOL    HW236876   0.914  14.020   3.967
78327SOL     OW36877   2.658  12.142   4.335
78327SOL    HW136878   2.657  12.170   4.243
78327SOL    HW236879   2.653  12.046   4.330
78328SOL     OW36880   9.355  12.740  12.163
78328SOL    HW136881   9.372  12.683  12.088
78328SOL    HW236882   9.420  12.810  12.156
78329SOL     OW36883  10.268  14.382  14.613
78329SOL    HW136884  10.179  14.363  14.644
78329SOL    HW236885  10.315  14.410  14.691
78330SOL     OW36886   1.049   9.806  11.531
78330SOL    HW136887   1.109   9.878  11.548
78330SOL    HW236888   1.034   9.808  11.437
78331SOL     OW36889   8.502   7.174   5.099
78331SOL    HW136890   8.590   7.207   5.078
78331SOL    HW236891   8.500   7.086   5.062
78332SOL     OW36892   4.629   6.525   6.412
78332SOL    HW136893   4.577   6.470   6.354
78332SOL    HW236894   4.592   6.613   6.402
78333SOL     OW36895   5.705   6.675   0.045
78333SOL    HW136896   5.619   6.691   0.085
78333SOL    HW236897   5.767   6.695   0.115
78334SOL     OW36898  13.692   9.555   4.900
78334SOL    HW136899  13.747   9.633   4.911
78334SOL    HW236900  13.729   9.511   4.823
78335SOL     OW36901   2.389   9.630  13.404
78335SOL    HW136902   2.304   9.586  13.408
78335SOL    HW236903   2.435   9.590  13.331
78336SOL     OW36904   8.359   4.351   5.615
78336SOL    HW136905   8.288   4.298   5.577
78336SOL    HW236906   8.439   4.307   5.588
78337SOL     OW36907  10.869   5.238  12.207
78337SOL    HW136908  10.778   5.263  12.191
78337SOL    HW236909  10.918   5.272  12.132
78338SOL     OW36910  10.255   0.840  12.200
78338SOL    HW136911  10.309   0.896  12.145
78338SOL    HW236912  10.303   0.758  12.207
78339SOL     OW36913   0.844   2.322   8.222
78339SOL    HW136914   0.929   2.289   8.254
78339SOL    HW236915   0.861   2.413   8.199
78340SOL     OW36916   0.633   2.063   7.039
78340SOL    HW136917   0.704   2.094   6.982
78340SOL    HW236918   0.604   1.982   6.998
78341SOL     OW36919  10.709   7.771  14.745
78341SOL    HW136920  10.619   7.754  14.717
78341SOL    HW236921  10.755   7.793  14.664
78342SOL     OW36922   6.780   6.125   1.668
78342SOL    HW136923   6.840   6.195   1.642
78342SOL    HW236924   6.760   6.142   1.760
78343SOL     OW36925   5.160  10.100  10.908
78343SOL    HW136926   5.209  10.024  10.877
78343SOL    HW236927   5.223  10.172  10.904
78344SOL     OW36928  12.450  10.088   6.896
78344SOL    HW136929  12.500  10.025   6.949
78344SOL    HW236930  12.379  10.037   6.858
78345SOL     OW36931   3.382  10.525   0.343
78345SOL    HW136932   3.310  10.489   0.291
78345SOL    HW236933   3.408  10.605   0.297
78346SOL     OW36934  14.307   8.034   2.953
78346SOL    HW136935  14.346   7.985   2.881
78346SOL    HW236936  14.213   8.036   2.933
78347SOL     OW36937   3.433   5.197  14.741
78347SOL    HW136938   3.411   5.164  14.828
78347SOL    HW236939   3.528   5.207  14.742
78348SOL     OW36940   6.100   2.820   5.914
78348SOL    HW136941   6.086   2.856   5.826
78348SOL    HW236942   6.183   2.858   5.943
78349SOL     OW36943   2.933   0.956   6.867
78349SOL    HW136944   2.955   0.863   6.868
78349SOL    HW236945   2.970   0.988   6.784
78350SOL     OW36946  14.734   8.809   8.299
78350SOL    HW136947  14.670   8.745   8.330
78350SOL    HW236948  14.805   8.804   8.363
78351SOL     OW36949   4.814   8.500   3.970
78351SOL    HW136950   4.846   8.525   4.057
78351SOL    HW236951   4.801   8.406   3.975
78352SOL     OW36952   1.902   3.757  11.996
78352SOL    HW136953   1.821   3.767  12.046
78352SOL    HW236954   1.958   3.703  12.053
78353SOL     OW36955   3.397  11.680   9.348
78353SOL    HW136956   3.350  11.736   9.287
78353SOL    HW236957   3.476  11.729   9.369
78354SOL     OW36958  10.201   7.415   0.195
78354SOL    HW136959  10.121   7.373   0.164
78354SOL    HW236960  10.269   7.350   0.181
78355SOL     OW36961   6.805   9.317  14.131
78355SOL    HW136962   6.720   9.350  14.159
78355SOL    HW236963   6.784   9.250  14.066
78356SOL     OW36964   6.076   2.590  13.302
78356SOL    HW136965   6.170   2.607  13.291
78356SOL    HW236966   6.039   2.675  13.326
78357SOL     OW36967   3.844   7.363  12.305
78357SOL    HW136968   3.904   7.358  12.231
78357SOL    HW236969   3.796   7.280  12.302
78358SOL     OW36970  12.361   3.726  11.638
78358SOL    HW136971  12.273   3.690  11.624
78358SOL    HW236972  12.374   3.784  11.563
78359SOL     OW36973   2.889   1.786  14.716
78359SOL    HW136974   2.874   1.735  14.636
78359SOL    HW236975   2.914   1.720  14.781
78360SOL     OW36976   8.889   5.527   6.438
78360SOL    HW136977   8.820   5.591   6.456
78360SOL    HW236978   8.851   5.443   6.460
78361SOL     OW36979  13.295   3.600   2.222
78361SOL    HW136980  13.298   3.520   2.169
78361SOL    HW236981  13.277   3.670   2.159
78362SOL     OW36982   7.689  14.641   8.918
78362SOL    HW136983   7.766  14.664   8.867
78362SOL    HW236984   7.625  14.612   8.853
78363SOL     OW36985  13.903   9.081   8.258
78363SOL    HW136986  13.870   9.145   8.194
78363SOL    HW236987  13.837   9.012   8.258
78364SOL     OW36988   2.775   8.974  12.972
78364SOL    HW136989   2.825   9.055  12.962
78364SOL    HW236990   2.780   8.955  13.065
78365SOL     OW36991   4.849   8.019   6.433
78365SOL    HW136992   4.889   8.105   6.438
78365SOL    HW236993   4.871   7.977   6.517
78366SOL     OW36994   3.226   5.176   3.477
78366SOL    HW136995   3.284   5.251   3.483
78366SOL    HW236996   3.284   5.100   3.480
78367SOL     OW36997   2.950   8.118   7.969
78367SOL    HW136998   2.928   8.184   8.035
78367SOL    HW236999   2.879   8.122   7.906
78368SOL     OW37000  13.901   1.185   8.019
78368SOL    HW137001  13.923   1.099   8.055
78368SOL    HW237002  13.816   1.173   7.976
78369SOL     OW37003   1.139   8.275   3.633
78369SOL    HW137004   1.135   8.313   3.546
78369SOL    HW237005   1.233   8.258   3.648
78370SOL     OW37006   8.202  11.317   3.947
78370SOL    HW137007   8.291  11.283   3.953
78370SOL    HW237008   8.200  11.366   3.865
78371SOL     OW37009   3.957  12.684  12.534
78371SOL    HW137010   3.861  12.683  12.531
78371SOL    HW237011   3.982  12.737  12.458
78372SOL     OW37012   8.701   0.588  11.199
78372SOL    HW137013   8.678   0.502  11.232
78372SOL    HW237014   8.730   0.573  11.109
78373SOL     OW37015   1.002  13.106  12.633
78373SOL    HW137016   1.035  13.179  12.581
78373SOL    HW237017   1.038  13.028  12.591
78374SOL     OW37018   4.531  12.009   0.598
78374SOL    HW137019   4.548  11.955   0.675
78374SOL    HW237020   4.608  11.996   0.542
78375SOL     OW37021   2.112   8.926   6.140
78375SOL    HW137022   2.078   8.843   6.173
78375SOL    HW237023   2.180   8.902   6.078
78376SOL     OW37024  11.717   7.229   2.500
78376SOL    HW137025  11.683   7.142   2.477
78376SOL    HW237026  11.811   7.223   2.483
78377SOL     OW37027   0.457  12.375  11.423
78377SOL    HW137028   0.552  12.378  11.414
78377SOL    HW237029   0.426  12.356  11.334
78378SOL     OW37030  12.367   5.720   5.355
78378SOL    HW137031  12.343   5.696   5.265
78378SOL    HW237032  12.296   5.778   5.383
78379SOL     OW37033   4.215   2.488   9.274
78379SOL    HW137034   4.253   2.528   9.353
78379SOL    HW237035   4.242   2.397   9.278
78380SOL     OW37036  10.458  10.039   6.140
78380SOL    HW137037  10.452  10.107   6.207
78380SOL    HW237038  10.552  10.021   6.133
78381SOL     OW37039  12.163   9.801  14.658
78381SOL    HW137040  12.190   9.814  14.567
78381SOL    HW237041  12.238   9.829  14.710
78382SOL     OW37042  11.310   7.667   1.613
78382SOL    HW137043  11.353   7.651   1.697
78382SOL    HW237044  11.380   7.690   1.553
78383SOL     OW37045   2.091   6.903  14.222
78383SOL    HW137046   2.147   6.945  14.157
78383SOL    HW237047   2.063   6.822  14.180
78384SOL     OW37048   4.992  13.169  13.752
78384SOL    HW137049   4.994  13.223  13.831
78384SOL    HW237050   5.016  13.228  13.681
78385SOL     OW37051   5.545   1.450   4.497
78385SOL    HW137052   5.538   1.383   4.429
78385SOL    HW237053   5.457   1.455   4.535
78386SOL     OW37054   8.707   1.658   2.446
78386SOL    HW137055   8.694   1.752   2.434
78386SOL    HW237056   8.749   1.650   2.531
78387SOL     OW37057   6.740   9.926   2.038
78387SOL    HW137058   6.746   9.983   2.115
78387SOL    HW237059   6.680   9.857   2.064
78388SOL     OW37060   7.005   2.057   0.828
78388SOL    HW137061   6.967   2.118   0.764
78388SOL    HW237062   6.943   2.057   0.901
78389SOL     OW37063  13.931  10.294   6.330
78389SOL    HW137064  14.006  10.256   6.376
78389SOL    HW237065  13.855  10.268   6.383
78390SOL     OW37066   7.085   1.151   2.186
78390SOL    HW137067   7.108   1.140   2.094
78390SOL    HW237068   7.149   1.098   2.233
78391SOL     OW37069  14.218   5.209   6.579
78391SOL    HW137070  14.225   5.148   6.506
78391SOL    HW237071  14.308   5.224   6.607
78392SOL     OW37072  10.520  10.456  12.350
78392SOL    HW137073  10.518  10.528  12.412
78392SOL    HW237074  10.441  10.405  12.370
78393SOL     OW37075   7.671   8.259   3.277
78393SOL    HW137076   7.662   8.284   3.369
78393SOL    HW237077   7.610   8.316   3.231
78394SOL     OW37078  10.062  11.342   9.905
78394SOL    HW137079  10.046  11.385   9.989
78394SOL    HW237080   9.980  11.354   9.857
78395SOL     OW37081   8.527   3.782  14.458
78395SOL    HW137082   8.451   3.744  14.502
78395SOL    HW237083   8.577   3.706  14.427
78396SOL     OW37084   2.194  12.906   2.362
78396SOL    HW137085   2.157  12.864   2.440
78396SOL    HW237086   2.157  12.994   2.361
78397SOL     OW37087  14.826   5.339  13.342
78397SOL    HW137088  14.869   5.362  13.260
78397SOL    HW237089  14.781   5.256  13.324
78398SOL     OW37090   5.125  10.883   8.795
78398SOL    HW137091   5.184  10.846   8.730
78398SOL    HW237092   5.037  10.866   8.760
78399SOL     OW37093  12.459   5.548   8.507
78399SOL    HW137094  12.464   5.453   8.498
78399SOL    HW237095  12.542   5.580   8.473
78400SOL     OW37096  10.773   7.421   8.921
78400SOL    HW137097  10.749   7.450   9.009
78400SOL    HW237098  10.823   7.341   8.935
78401SOL     OW37099  13.203  12.772  13.007
78401SOL    HW137100  13.284  12.720  13.012
78401SOL    HW237101  13.207  12.814  12.921
78402SOL     OW37102  14.128   8.957   2.366
78402SOL    HW137103  14.204   8.900   2.378
78402SOL    HW237104  14.139   8.994   2.279
78403SOL     OW37105   4.376   2.152  13.524
78403SOL    HW137106   4.309   2.086  13.506
78403SOL    HW237107   4.450   2.102  13.559
78404SOL     OW37108   9.227   0.959   9.530
78404SOL    HW137109   9.207   0.928   9.441
78404SOL    HW237110   9.249   0.879   9.579
78405SOL     OW37111   3.397   9.338   5.972
78405SOL    HW137112   3.464   9.388   6.019
78405SOL    HW237113   3.407   9.363   5.880
78406SOL     OW37114   2.296  10.918   6.447
78406SOL    HW137115   2.300  10.997   6.393
78406SOL    HW237116   2.378  10.919   6.496
78407SOL     OW37117   3.564   2.985  11.420
78407SOL    HW137118   3.599   2.941  11.343
78407SOL    HW237119   3.469   2.975  11.412
78408SOL     OW37120   0.661   1.706  12.016
78408SOL    HW137121   0.612   1.633  12.056
78408SOL    HW237122   0.675   1.678  11.925
78409SOL     OW37123  14.416   6.866   2.157
78409SOL    HW137124  14.470   6.896   2.084
78409SOL    HW237125  14.384   6.947   2.198
78410SOL     OW37126   6.696   6.449   3.871
78410SOL    HW137127   6.745   6.506   3.930
78410SOL    HW237128   6.671   6.374   3.925
78411SOL     OW37129  10.276   8.168  14.636
78411SOL    HW137130  10.342   8.158  14.704
78411SOL    HW237131  10.325   8.196  14.559
78412SOL     OW37132   6.188   1.778   9.826
78412SOL    HW137133   6.235   1.751   9.905
78412SOL    HW237134   6.128   1.846   9.856
78413SOL     OW37135   2.438  14.105   5.629
78413SOL    HW137136   2.505  14.170   5.607
78413SOL    HW237137   2.486  14.037   5.677
78414SOL     OW37138   1.139  11.518   6.598
78414SOL    HW137139   1.128  11.596   6.544
78414SOL    HW237140   1.068  11.460   6.572
78415SOL     OW37141   5.593   4.864   7.073
78415SOL    HW137142   5.526   4.855   7.005
78415SOL    HW237143   5.558   4.931   7.132
78416SOL     OW37144  12.482   9.390  11.668
78416SOL    HW137145  12.409   9.449  11.685
78416SOL    HW237146  12.518   9.419  11.584
78417SOL     OW37147  11.891   2.189   9.072
78417SOL    HW137148  11.888   2.132   8.995
78417SOL    HW237149  11.876   2.277   9.038
78418SOL     OW37150   6.405   3.100   0.044
78418SOL    HW137151   6.394   3.192   0.066
78418SOL    HW237152   6.493   3.078   0.074
78419SOL     OW37153  10.279   2.248   6.129
78419SOL    HW137154  10.296   2.159   6.157
78419SOL    HW237155  10.195   2.271   6.168
78420SOL     OW37156   7.657   9.855  11.331
78420SOL    HW137157   7.663   9.922  11.399
78420SOL    HW237158   7.563   9.841  11.319
78421SOL     OW37159  11.144   1.910  11.805
78421SOL    HW137160  11.210   1.843  11.790
78421SOL    HW237161  11.092   1.911  11.724
78422SOL     OW37162   8.329   5.990   9.514
78422SOL    HW137163   8.414   5.945   9.513
78422SOL    HW237164   8.334   6.050   9.588
78423SOL     OW37165   4.445   2.717   1.463
78423SOL    HW137166   4.418   2.674   1.382
78423SOL    HW237167   4.382   2.788   1.475
78424SOL     OW37168   0.097   9.105   7.594
78424SOL    HW137169   0.131   9.122   7.682
78424SOL    HW237170   0.123   9.181   7.543
78425SOL     OW37171  13.109  10.371  11.060
78425SOL    HW137172  13.092  10.431  10.987
78425SOL    HW237173  13.071  10.416  11.136
78426SOL     OW37174   7.570  12.299  13.027
78426SOL    HW137175   7.555  12.293  12.933
78426SOL    HW237176   7.664  12.312  13.036
78427SOL     OW37177   2.882   2.934   1.524
78427SOL    HW137178   2.924   2.896   1.447
78427SOL    HW237179   2.808   2.984   1.490
78428SOL     OW37180  10.436   0.450   8.749
78428SOL    HW137181  10.463   0.540   8.729
78428SOL    HW237182  10.340   0.454   8.748
78429SOL     OW37183  14.159   6.799   6.930
78429SOL    HW137184  14.139   6.773   7.020
78429SOL    HW237185  14.085   6.855   6.905
78430SOL     OW37186   0.082  11.821  12.882
78430SOL    HW137187   0.062  11.743  12.934
78430SOL    HW237188   0.177  11.818  12.869
78431SOL     OW37189   2.873  11.989   6.728
78431SOL    HW137190   2.948  11.973   6.672
78431SOL    HW237191   2.823  11.907   6.726
78432SOL     OW37192   3.552   5.724   5.834
78432SOL    HW137193   3.491   5.683   5.896
78432SOL    HW237194   3.637   5.715   5.876
78433SOL     OW37195  14.746   5.856   4.292
78433SOL    HW137196  14.732   5.804   4.213
78433SOL    HW237197  14.815   5.810   4.339
78434SOL     OW37198   2.389   9.447   4.180
78434SOL    HW137199   2.458   9.412   4.124
78434SOL    HW237200   2.309   9.406   4.148
78435SOL     OW37201   0.521   9.901   1.713
78435SOL    HW137202   0.513   9.892   1.618
78435SOL    HW237203   0.615   9.902   1.729
78436SOL     OW37204   6.133   6.899   2.201
78436SOL    HW137205   6.086   6.907   2.284
78436SOL    HW237206   6.224   6.884   2.226
78437SOL     OW37207  10.832   4.121   0.422
78437SOL    HW137208  10.790   4.035   0.414
78437SOL    HW237209  10.818   4.147   0.513
78438SOL     OW37210   8.909   7.508  12.836
78438SOL    HW137211   8.966   7.456  12.893
78438SOL    HW237212   8.854   7.557  12.897
78439SOL     OW37213   3.383   1.461   1.410
78439SOL    HW137214   3.467   1.506   1.415
78439SOL    HW237215   3.358   1.446   1.501
78440SOL     OW37216  12.701  12.351  12.674
78440SOL    HW137217  12.700  12.328  12.767
78440SOL    HW237218  12.773  12.415  12.666
78441SOL     OW37219   7.233   7.767   4.980
78441SOL    HW137220   7.178   7.815   5.043
78441SOL    HW237221   7.231   7.677   5.012
78442SOL     OW37222   2.969  12.951   1.987
78442SOL    HW137223   2.879  12.964   2.015
78442SOL    HW237224   3.006  12.892   2.053
78443SOL     OW37225   3.203   1.012   7.039
78443SOL    HW137226   3.186   0.918   7.050
78443SOL    HW237227   3.284   1.027   7.089
78444SOL     OW37228  10.158  10.518  10.598
78444SOL    HW137229  10.075  10.472  10.610
78444SOL    HW237230  10.168  10.525  10.503
78445SOL     OW37231   9.399   0.956  10.627
78445SOL    HW137232   9.463   0.970  10.696
78445SOL    HW237233   9.364   0.868  10.644
78446SOL     OW37234   7.997   0.868  10.408
78446SOL    HW137235   8.079   0.829  10.438
78446SOL    HW237236   8.007   0.962  10.427
78447SOL     OW37237  14.167   2.869   0.096
78447SOL    HW137238  14.255   2.895   0.121
78447SOL    HW237239  14.158   2.779   0.127
78448SOL     OW37240   8.810   8.377   6.041
78448SOL    HW137241   8.899   8.352   6.067
78448SOL    HW237242   8.820   8.467   6.008
78449SOL     OW37243  12.380   4.670   5.982
78449SOL    HW137244  12.320   4.730   5.938
78449SOL    HW237245  12.356   4.676   6.075
78450SOL     OW37246   1.914   0.125   4.343
78450SOL    HW137247   1.923   0.100   4.435
78450SOL    HW237248   1.987   0.186   4.328
78451SOL     OW37249  13.531   9.482   6.738
78451SOL    HW137250  13.608   9.426   6.732
78451SOL    HW237251  13.494   9.463   6.824
78452SOL     OW37252   0.866   3.426  12.754
78452SOL    HW137253   0.919   3.493  12.798
78452SOL    HW237254   0.784   3.423  12.803
78453SOL     OW37255   5.295   5.549  12.685
78453SOL    HW137256   5.314   5.568  12.777
78453SOL    HW237257   5.241   5.622  12.656
78454SOL     OW37258  12.704  14.673  10.811
78454SOL    HW137259  12.613  14.661  10.841
78454SOL    HW237260  12.711  14.616  10.735
78455SOL     OW37261   1.753   7.901   3.316
78455SOL    HW137262   1.734   7.831   3.378
78455SOL    HW237263   1.819   7.863   3.257
78456SOL     OW37264   7.524  11.104  11.921
78456SOL    HW137265   7.437  11.130  11.950
78456SOL    HW237266   7.541  11.021  11.966
78457SOL     OW37267   2.002   1.650   2.150
78457SOL    HW137268   2.094   1.678   2.143
78457SOL    HW237269   1.998   1.600   2.231
78458SOL     OW37270  12.541   9.634   0.479
78458SOL    HW137271  12.463   9.588   0.449
78458SOL    HW237272  12.594   9.646   0.400
78459SOL     OW37273  11.104  10.489   2.511
78459SOL    HW137274  11.096  10.394   2.499
78459SOL    HW237275  11.017  10.523   2.491
78460SOL     OW37276  13.342  10.363  13.066
78460SOL    HW137277  13.345  10.453  13.035
78460SOL    HW237278  13.263  10.359  13.120
78461SOL     OW37279   4.014   4.173  13.584
78461SOL    HW137280   3.992   4.141  13.496
78461SOL    HW237281   4.029   4.267  13.572
78462SOL     OW37282   6.319   4.327  14.464
78462SOL    HW137283   6.337   4.284  14.380
78462SOL    HW237284   6.389   4.392  14.473
78463SOL     OW37285  11.109   3.840  10.133
78463SOL    HW137286  11.036   3.900  10.116
78463SOL    HW237287  11.151   3.829  10.048
78464SOL     OW37288   5.352  12.223   0.090
78464SOL    HW137289   5.259  12.216   0.110
78464SOL    HW237290   5.388  12.137   0.111
78465SOL     OW37291   9.656  13.156  13.646
78465SOL    HW137292   9.586  13.090  13.643
78465SOL    HW237293   9.730  13.110  13.686
78466SOL     OW37294   5.447  10.393   8.669
78466SOL    HW137295   5.395  10.414   8.591
78466SOL    HW237296   5.529  10.442   8.656
78467SOL     OW37297   2.037  14.671  10.288
78467SOL    HW137298   2.121  14.666  10.243
78467SOL    HW237299   2.047  14.616  10.365
78468SOL     OW37300   1.341  11.860   6.679
78468SOL    HW137301   1.336  11.952   6.654
78468SOL    HW237302   1.400  11.820   6.614
78469SOL     OW37303   1.817   0.433   8.650
78469SOL    HW137304   1.857   0.388   8.724
78469SOL    HW237305   1.726   0.447   8.676
78470SOL     OW37306   7.234   0.772   3.231
78470SOL    HW137307   7.285   0.699   3.196
78470SOL    HW237308   7.299   0.829   3.272
78471SOL     OW37309   1.426   2.352   2.830
78471SOL    HW137310   1.394   2.435   2.794
78471SOL    HW237311   1.416   2.290   2.758
78472SOL     OW37312   1.744   0.837   2.338
78472SOL    HW137313   1.737   0.933   2.338
78472SOL    HW237314   1.670   0.808   2.284
78473SOL     OW37315   7.789   0.487  11.220
78473SOL    HW137316   7.764   0.432  11.294
78473SOL    HW237317   7.885   0.489  11.223
78474SOL     OW37318   4.876   6.713   3.315
78474SOL    HW137319   4.799   6.710   3.259
78474SOL    HW237320   4.896   6.806   3.325
78475SOL     OW37321   4.713  14.357  11.107
78475SOL    HW137322   4.797  14.321  11.133
78475SOL    HW237323   4.714  14.353  11.011
78476SOL     OW37324  14.448  10.463   9.836
78476SOL    HW137325  14.425  10.448   9.928
78476SOL    HW237326  14.499  10.543   9.836
78477SOL     OW37327   7.546  10.804   4.340
78477SOL    HW137328   7.520  10.736   4.277
78477SOL    HW237329   7.464  10.848   4.363
78478SOL     OW37330  11.730   1.326   0.369
78478SOL    HW137331  11.765   1.270   0.439
78478SOL    HW237332  11.649   1.281   0.342
78479SOL     OW37333  13.502   9.022  10.503
78479SOL    HW137334  13.556   9.034  10.582
78479SOL    HW237335  13.438   8.955  10.528
78480SOL     OW37336  14.837   4.494   3.521
78480SOL    HW137337  14.771   4.532   3.579
78480SOL    HW237338  14.848   4.405   3.553
78481SOL     OW37339  10.694  11.142   0.231
78481SOL    HW137340  10.669  11.131   0.140
78481SOL    HW237341  10.619  11.186   0.271
78482SOL     OW37342   8.102  14.706   6.289
78482SOL    HW137343   8.100  14.692   6.383
78482SOL    HW237344   8.016  14.742   6.267
78483SOL     OW37345  14.285   5.347   0.937
78483SOL    HW137346  14.289   5.280   1.006
78483SOL    HW237347  14.362   5.402   0.952
78484SOL     OW37348   3.287   5.349  14.313
78484SOL    HW137349   3.289   5.255  14.295
78484SOL    HW237350   3.195   5.374  14.305
78485SOL     OW37351  13.445   7.945   8.478
78485SOL    HW137352  13.488   7.895   8.409
78485SOL    HW237353  13.476   7.905   8.559
78486SOL     OW37354   3.098   9.822   1.760
78486SOL    HW137355   3.032   9.853   1.698
78486SOL    HW237356   3.174   9.799   1.705
78487SOL     OW37357   3.643  12.643   2.542
78487SOL    HW137358   3.563  12.685   2.509
78487SOL    HW237359   3.640  12.656   2.636
78488SOL     OW37360   3.389  11.701  14.076
78488SOL    HW137361   3.293  11.698  14.069
78488SOL    HW237362   3.418  11.729  13.990
78489SOL     OW37363   9.035   6.978   1.876
78489SOL    HW137364   9.131   6.969   1.883
78489SOL    HW237365   9.006   6.988   1.967
78490SOL     OW37366   8.182   2.212   3.459
78490SOL    HW137367   8.206   2.259   3.379
78490SOL    HW237368   8.146   2.129   3.428
78491SOL     OW37369   3.353   5.890   4.622
78491SOL    HW137370   3.412   5.821   4.650
78491SOL    HW237371   3.266   5.851   4.631
78492SOL     OW37372  10.956   7.078  13.616
78492SOL    HW137373  10.977   7.052  13.705
78492SOL    HW237374  10.870   7.120  13.622
78493SOL     OW37375   2.094   4.912  13.961
78493SOL    HW137376   2.082   4.874  14.048
78493SOL    HW237377   2.023   4.977  13.954
78494SOL     OW37378   4.037   5.935  10.052
78494SOL    HW137379   4.023   6.003  10.119
78494SOL    HW237380   4.127   5.950  10.022
78495SOL     OW37381  10.671   4.492  12.742
78495SOL    HW137382  10.635   4.409  12.709
78495SOL    HW237383  10.607   4.558  12.715
78496SOL     OW37384  12.602  14.005  10.975
78496SOL    HW137385  12.574  13.942  10.909
78496SOL    HW237386  12.599  14.090  10.930
78497SOL     OW37387   5.615   1.682   1.998
78497SOL    HW137388   5.657   1.695   2.083
78497SOL    HW237389   5.568   1.599   2.007
78498SOL     OW37390  13.361   4.421   0.199
78498SOL    HW137391  13.376   4.360   0.271
78498SOL    HW237392  13.386   4.373   0.121
78499SOL     OW37393  13.574   6.764   7.854
78499SOL    HW137394  13.487   6.740   7.824
78499SOL    HW237395  13.624   6.682   7.850
78500SOL     OW37396  14.762   9.490   6.410
78500SOL    HW137397  14.714   9.571   6.392
78500SOL    HW237398  14.765   9.445   6.326
78501SOL     OW37399   4.031   4.581   2.726
78501SOL    HW137400   4.101   4.602   2.664
78501SOL    HW237401   4.028   4.486   2.728
78502SOL     OW37402  12.317   6.549  10.469
78502SOL    HW137403  12.242   6.586  10.422
78502SOL    HW237404  12.360   6.493  10.405
78503SOL     OW37405  14.023   5.127   2.850
78503SOL    HW137406  13.979   5.193   2.903
78503SOL    HW237407  13.954   5.066   2.826
78504SOL     OW37408   2.471   5.796  10.182
78504SOL    HW137409   2.486   5.782  10.088
78504SOL    HW237410   2.546   5.848  10.211
78505SOL     OW37411   7.141  13.347  13.377
78505SOL    HW137412   7.077  13.309  13.318
78505SOL    HW237413   7.099  13.426  13.411
78506SOL     OW37414   7.211   2.691  10.165
78506SOL    HW137415   7.161   2.611  10.183
78506SOL    HW237416   7.236   2.723  10.251
78507SOL     OW37417   1.170   9.514  10.343
78507SOL    HW137418   1.120   9.591  10.372
78507SOL    HW237419   1.128   9.440  10.387
78508SOL     OW37420   4.901  14.291   4.671
78508SOL    HW137421   4.936  14.315   4.585
78508SOL    HW237422   4.857  14.370   4.702
78509SOL     OW37423   2.720   9.201   9.514
78509SOL    HW137424   2.643   9.245   9.551
78509SOL    HW237425   2.748   9.259   9.443
78510SOL     OW37426   0.101   4.917   3.563
78510SOL    HW137427   0.062   4.977   3.627
78510SOL    HW237428   0.037   4.913   3.492
78511SOL     OW37429   3.544   5.396   1.182
78511SOL    HW137430   3.524   5.304   1.198
78511SOL    HW237431   3.465   5.443   1.206
78512SOL     OW37432   3.044  10.836   9.410
78512SOL    HW137433   3.016  10.752   9.374
78512SOL    HW237434   3.109  10.868   9.347
78513SOL     OW37435  13.755   8.083  10.152
78513SOL    HW137436  13.739   8.040  10.236
78513SOL    HW237437  13.697   8.158  10.152
78514SOL     OW37438   3.051  13.539   9.508
78514SOL    HW137439   3.023  13.524   9.598
78514SOL    HW237440   2.969  13.548   9.458
78515SOL     OW37441   4.498   6.848   2.885
78515SOL    HW137442   4.454   6.775   2.841
78515SOL    HW237443   4.591   6.835   2.867
78516SOL     OW37444   4.437  11.500   0.313
78516SOL    HW137445   4.515  11.527   0.361
78516SOL    HW237446   4.372  11.481   0.381
78517SOL     OW37447  13.309   8.568   5.041
78517SOL    HW137448  13.282   8.659   5.050
78517SOL    HW237449  13.273   8.524   5.118
78518SOL     OW37450   6.291   4.160  10.747
78518SOL    HW137451   6.217   4.106  10.718
78518SOL    HW237452   6.273   4.246  10.709
78519SOL     OW37453  13.587   0.101  11.758
78519SOL    HW137454  13.568   0.194  11.745
78519SOL    HW237455  13.559   0.060  11.676
78520SOL     OW37456   5.187  14.432   7.222
78520SOL    HW137457   5.281  14.414   7.212
78520SOL    HW237458   5.147  14.345   7.231
78521SOL     OW37459   6.367   0.667  14.807
78521SOL    HW137460   6.324   0.706  14.731
78521SOL    HW237461   6.405   0.741  14.855
78522SOL     OW37462   9.463   9.803   1.020
78522SOL    HW137463   9.377   9.844   1.018
78522SOL    HW237464   9.479   9.777   0.929
78523SOL     OW37465  12.401   0.590   4.137
78523SOL    HW137466  12.425   0.644   4.212
78523SOL    HW237467  12.413   0.500   4.167
78524SOL     OW37468  13.168   9.599   9.624
78524SOL    HW137469  13.088   9.613   9.573
78524SOL    HW237470  13.183   9.683   9.668
78525SOL     OW37471   4.457   1.610   8.697
78525SOL    HW137472   4.478   1.517   8.703
78525SOL    HW237473   4.482   1.646   8.782
78526SOL     OW37474   4.355   8.690   9.354
78526SOL    HW137475   4.438   8.728   9.382
78526SOL    HW237476   4.366   8.675   9.260
78527SOL     OW37477   3.178   7.109   4.308
78527SOL    HW137478   3.194   7.089   4.400
78527SOL    HW237479   3.195   7.028   4.261
78528SOL     OW37480   1.210  11.440   7.481
78528SOL    HW137481   1.139  11.420   7.419
78528SOL    HW237482   1.232  11.356   7.520
78529SOL     OW37483   7.679  11.301   0.978
78529SOL    HW137484   7.696  11.284   0.885
78529SOL    HW237485   7.766  11.305   1.018
78530SOL     OW37486  13.991   7.022   8.550
78530SOL    HW137487  13.947   7.004   8.633
78530SOL    HW237488  13.974   6.944   8.497
78531SOL     OW37489  14.699   1.968   4.486
78531SOL    HW137490  14.685   2.048   4.536
78531SOL    HW237491  14.685   1.897   4.549
78532SOL     OW37492   5.854   1.202   2.624
78532SOL    HW137493   5.898   1.153   2.694
78532SOL    HW237494   5.784   1.144   2.596
78533SOL     OW37495   2.474  14.470   3.747
78533SOL    HW137496   2.558  14.434   3.721
78533SOL    HW237497   2.409  14.412   3.707
78534SOL     OW37498  13.254  10.859   0.217
78534SOL    HW137499  13.195  10.842   0.290
78534SOL    HW237500  13.256  10.777   0.168
78535SOL     OW37501  10.817   8.623   5.302
78535SOL    HW137502  10.761   8.651   5.230
78535SOL    HW237503  10.819   8.698   5.361
78536SOL     OW37504   4.170  11.666   4.496
78536SOL    HW137505   4.198  11.578   4.519
78536SOL    HW237506   4.075  11.666   4.512
78537SOL     OW37507  13.355  10.265   3.768
78537SOL    HW137508  13.269  10.267   3.727
78537SOL    HW237509  13.365  10.176   3.801
78538SOL     OW37510   0.624   4.110   2.165
78538SOL    HW137511   0.574   4.064   2.098
78538SOL    HW237512   0.712   4.072   2.158
78539SOL     OW37513  10.971  14.039   9.553
78539SOL    HW137514  11.061  14.015   9.573
78539SOL    HW237515  10.924  13.956   9.552
78540SOL     OW37516  10.423   1.473   5.245
78540SOL    HW137517  10.331   1.499   5.245
78540SOL    HW237518  10.466   1.536   5.186
78541SOL     OW37519  11.732  12.631   0.454
78541SOL    HW137520  11.817  12.607   0.416
78541SOL    HW237521  11.709  12.714   0.413
78542SOL     OW37522  11.292  14.665   5.709
78542SOL    HW137523  11.255  14.637   5.625
78542SOL    HW237524  11.241  14.742   5.734
78543SOL     OW37525   4.967  10.232  11.961
78543SOL    HW137526   4.898  10.166  11.952
78543SOL    HW237527   4.956  10.266  12.050
78544SOL     OW37528   5.269   1.492   5.749
78544SOL    HW137529   5.287   1.585   5.732
78544SOL    HW237530   5.263   1.485   5.844
78545SOL     OW37531   6.474  14.761   1.657
78545SOL    HW137532   6.494  14.798   1.743
78545SOL    HW237533   6.412  14.822   1.618
78546SOL     OW37534   6.426   8.287   8.479
78546SOL    HW137535   6.424   8.378   8.449
78546SOL    HW237536   6.495   8.285   8.545
78547SOL     OW37537  11.800   7.989   4.508
78547SOL    HW137538  11.797   7.927   4.581
78547SOL    HW237539  11.864   7.951   4.448
78548SOL     OW37540  13.742   7.704   1.642
78548SOL    HW137541  13.725   7.796   1.662
78548SOL    HW237542  13.689   7.655   1.705
78549SOL     OW37543   8.013   4.977   7.549
78549SOL    HW137544   8.058   5.024   7.479
78549SOL    HW237545   7.979   5.046   7.606
78550SOL     OW37546   2.591  11.881   1.267
78550SOL    HW137547   2.648  11.808   1.243
78550SOL    HW237548   2.530  11.890   1.194
78551SOL     OW37549   2.408   1.516   6.494
78551SOL    HW137550   2.422   1.423   6.478
78551SOL    HW237551   2.442   1.531   6.582
78552SOL     OW37552   7.152   1.912   1.267
78552SOL    HW137553   7.142   1.925   1.361
78552SOL    HW237554   7.188   1.994   1.235
78553SOL     OW37555   5.397   3.994  11.118
78553SOL    HW137556   5.418   4.072  11.169
78553SOL    HW237557   5.406   4.021  11.026
78554SOL     OW37558   3.729   6.477  12.495
78554SOL    HW137559   3.678   6.542  12.544
78554SOL    HW237560   3.793   6.444  12.558
78555SOL     OW37561   8.549  12.064   4.823
78555SOL    HW137562   8.617  12.002   4.794
78555SOL    HW237563   8.517  12.027   4.905
78556SOL     OW37564  11.195   6.877   4.026
78556SOL    HW137565  11.242   6.796   4.044
78556SOL    HW237566  11.113   6.848   3.986
78557SOL     OW37567   8.370  11.873  10.938
78557SOL    HW137568   8.423  11.837  11.009
78557SOL    HW237569   8.416  11.953  10.913
78558SOL     OW37570  12.282  11.463  11.902
78558SOL    HW137571  12.331  11.544  11.890
78558SOL    HW237572  12.348  11.398  11.927
78559SOL     OW37573   4.438   3.453   0.834
78559SOL    HW137574   4.513   3.397   0.856
78559SOL    HW237575   4.408   3.420   0.750
78560SOL     OW37576   3.675  12.471   1.487
78560SOL    HW137577   3.595  12.486   1.436
78560SOL    HW237578   3.704  12.559   1.512
78561SOL     OW37579   7.981  13.108   1.579
78561SOL    HW137580   7.943  13.171   1.517
78561SOL    HW237581   7.945  13.024   1.552
78562SOL     OW37582   1.030   3.602   7.285
78562SOL    HW137583   1.063   3.682   7.243
78562SOL    HW237584   1.083   3.593   7.364
78563SOL     OW37585   2.739   4.956  13.529
78563SOL    HW137586   2.686   4.916  13.598
78563SOL    HW237587   2.755   4.885  13.467
78564SOL     OW37588   5.515   0.757  11.809
78564SOL    HW137589   5.508   0.664  11.833
78564SOL    HW237590   5.513   0.757  11.713
78565SOL     OW37591   0.210   3.517   9.558
78565SOL    HW137592   0.217   3.594   9.614
78565SOL    HW237593   0.301   3.497   9.534
78566SOL     OW37594   1.678   8.386   1.360
78566SOL    HW137595   1.647   8.304   1.321
78566SOL    HW237596   1.773   8.377   1.363
78567SOL     OW37597  14.731   4.403  13.072
78567SOL    HW137598  14.646   4.385  13.033
78567SOL    HW237599  14.782   4.323  13.058
78568SOL     OW37600  12.321   6.174   0.927
78568SOL    HW137601  12.361   6.096   0.888
78568SOL    HW237602  12.338   6.243   0.863
78569SOL     OW37603   1.423   5.572   0.095
78569SOL    HW137604   1.513   5.544   0.077
78569SOL    HW237605   1.420   5.584   0.190
78570SOL     OW37606   3.180   8.990   6.049
78570SOL    HW137607   3.271   8.990   6.020
78570SOL    HW237608   3.176   8.925   6.119
78571SOL     OW37609   0.625   8.767  10.090
78571SOL    HW137610   0.609   8.736  10.001
78571SOL    HW237611   0.551   8.825  10.107
78572SOL     OW37612   8.524   7.358   2.241
78572SOL    HW137613   8.452   7.297   2.225
78572SOL    HW237614   8.558   7.332   2.327
78573SOL     OW37615   2.382   0.409   4.119
78573SOL    HW137616   2.393   0.316   4.136
78573SOL    HW237617   2.443   0.452   4.179
78574SOL     OW37618   3.736  13.414   1.882
78574SOL    HW137619   3.795  13.421   1.957
78574SOL    HW237620   3.663  13.473   1.903
78575SOL     OW37621   8.205   8.369   6.489
78575SOL    HW137622   8.203   8.276   6.514
78575SOL    HW237623   8.148   8.374   6.412
78576SOL     OW37624   4.588   9.823   3.297
78576SOL    HW137625   4.637   9.775   3.364
78576SOL    HW237626   4.544   9.893   3.346
78577SOL     OW37627   9.562   2.321   0.527
78577SOL    HW137628   9.648   2.314   0.485
78577SOL    HW237629   9.514   2.244   0.496
78578SOL     OW37630   0.648  10.965  12.734
78578SOL    HW137631   0.584  11.006  12.791
78578SOL    HW237632   0.597  10.932  12.660
78579SOL     OW37633   5.360   6.540  12.566
78579SOL    HW137634   5.407   6.475  12.618
78579SOL    HW237635   5.385   6.522  12.476
78580SOL     OW37636   4.629   2.808  12.844
78580SOL    HW137637   4.643   2.862  12.766
78580SOL    HW237638   4.542   2.770  12.832
78581SOL     OW37639   5.908  11.861  13.511
78581SOL    HW137640   6.001  11.877  13.527
78581SOL    HW237641   5.888  11.782  13.561
78582SOL     OW37642   7.650   2.892   8.174
78582SOL    HW137643   7.739   2.887   8.139
78582SOL    HW237644   7.661   2.893   8.269
78583SOL     OW37645  10.931   0.645   5.394
78583SOL    HW137646  10.850   0.676   5.353
78583SOL    HW237647  10.929   0.683   5.482
78584SOL     OW37648   4.956  10.404   1.211
78584SOL    HW137649   4.893  10.383   1.279
78584SOL    HW237650   5.020  10.461   1.254
78585SOL     OW37651   3.177   7.981  12.006
78585SOL    HW137652   3.154   8.004  12.096
78585SOL    HW237653   3.094   7.953  11.966
78586SOL     OW37654   1.825  10.081   5.143
78586SOL    HW137655   1.781  10.032   5.213
78586SOL    HW237656   1.857  10.160   5.186
78587SOL     OW37657  10.115   8.509   5.882
78587SOL    HW137658  10.065   8.524   5.962
78587SOL    HW237659  10.166   8.430   5.899
78588SOL     OW37660  13.918  10.079  13.427
78588SOL    HW137661  13.904  10.033  13.344
78588SOL    HW237662  14.008  10.056  13.452
78589SOL     OW37663   0.968   9.089   8.196
78589SOL    HW137664   1.056   9.059   8.216
78589SOL    HW237665   0.980   9.178   8.162
78590SOL     OW37666   7.796  13.483   7.505
78590SOL    HW137667   7.801  13.552   7.571
78590SOL    HW237668   7.724  13.508   7.448
78591SOL     OW37669   5.545   3.381   2.909
78591SOL    HW137670   5.522   3.443   2.978
78591SOL    HW237671   5.640   3.386   2.902
78592SOL     OW37672  14.149   2.553   5.779
78592SOL    HW137673  14.235   2.571   5.817
78592SOL    HW237674  14.089   2.612   5.825
78593SOL     OW37675  13.852   4.271   9.517
78593SOL    HW137676  13.798   4.203   9.556
78593SOL    HW237677  13.913   4.297   9.586
78594SOL     OW37678  11.739   6.864  12.181
78594SOL    HW137679  11.736   6.820  12.096
78594SOL    HW237680  11.722   6.956  12.161
78595SOL     OW37681   4.628   1.770   2.259
78595SOL    HW137682   4.550   1.817   2.231
78595SOL    HW237683   4.634   1.787   2.353
78596SOL     OW37684  10.883   2.579   4.854
78596SOL    HW137685  10.970   2.619   4.845
78596SOL    HW237686  10.854   2.564   4.764
78597SOL     OW37687   5.197  10.246   4.784
78597SOL    HW137688   5.205  10.307   4.710
78597SOL    HW237689   5.232  10.164   4.750
78598SOL     OW37690   5.284   6.944  13.317
78598SOL    HW137691   5.203   6.955  13.267
78598SOL    HW237692   5.256   6.914  13.403
78599SOL     OW37693   1.416   4.033   2.637
78599SOL    HW137694   1.382   3.951   2.601
78599SOL    HW237695   1.404   4.024   2.732
78600SOL     OW37696   7.950   2.367   7.169
78600SOL    HW137697   7.977   2.378   7.078
78600SOL    HW237698   8.017   2.311   7.207
78601SOL     OW37699   1.709  14.429   9.139
78601SOL    HW137700   1.727  14.515   9.101
78601SOL    HW237701   1.794  14.385   9.143
78602SOL     OW37702  11.827   0.898   0.950
78602SOL    HW137703  11.811   0.863   1.038
78602SOL    HW237704  11.742   0.931   0.922
78603SOL     OW37705   2.621   6.884   5.767
78603SOL    HW137706   2.645   6.800   5.727
78603SOL    HW237707   2.526   6.880   5.775
78604SOL     OW37708  12.291   1.511   9.565
78604SOL    HW137709  12.331   1.437   9.520
78604SOL    HW237710  12.330   1.589   9.525
78605SOL     OW37711   6.920   8.339  11.495
78605SOL    HW137712   6.872   8.420  11.506
78605SOL    HW237713   6.941   8.310  11.584
78606SOL     OW37714   5.492   1.293   3.574
78606SOL    HW137715   5.493   1.211   3.624
78606SOL    HW237716   5.581   1.302   3.540
78607SOL     OW37717   2.550  10.069   6.985
78607SOL    HW137718   2.643  10.048   6.986
78607SOL    HW237719   2.519  10.050   7.073
78608SOL     OW37720   0.655   3.229   9.342
78608SOL    HW137721   0.625   3.142   9.314
78608SOL    HW237722   0.646   3.283   9.264
78609SOL     OW37723   1.924   9.569   6.718
78609SOL    HW137724   2.014   9.542   6.736
78609SOL    HW237725   1.899   9.622   6.794
78610SOL     OW37726   3.313   0.108   9.743
78610SOL    HW137727   3.303   0.166   9.668
78610SOL    HW237728   3.379   0.044   9.715
78611SOL     OW37729  10.618   4.372   0.868
78611SOL    HW137730  10.555   4.436   0.901
78611SOL    HW237731  10.567   4.314   0.812
78612SOL     OW37732   9.069   1.864   2.436
78612SOL    HW137733   9.038   1.955   2.431
78612SOL    HW237734   9.025   1.828   2.512
78613SOL     OW37735   2.434   5.935  13.607
78613SOL    HW137736   2.410   5.976  13.524
78613SOL    HW237737   2.379   5.978  13.673
78614SOL     OW37738   7.838  12.038   1.882
78614SOL    HW137739   7.812  12.129   1.868
78614SOL    HW237740   7.758  11.988   1.866
78615SOL     OW37741   7.261  14.507   4.143
78615SOL    HW137742   7.216  14.484   4.224
78615SOL    HW237743   7.192  14.540   4.086
78616SOL     OW37744  14.867   5.871   1.389
78616SOL    HW137745  14.839   5.910   1.471
78616SOL    HW237746  14.821   5.787   1.385
78617SOL     OW37747   0.339  10.253   7.874
78617SOL    HW137748   0.433  10.250   7.893
78617SOL    HW237749   0.298  10.244   7.960
78618SOL     OW37750   4.947  14.560  10.770
78618SOL    HW137751   4.903  14.479  10.796
78618SOL    HW237752   4.899  14.591  10.693
78619SOL     OW37753   3.148   5.878   1.897
78619SOL    HW137754   3.172   5.931   1.821
78619SOL    HW237755   3.075   5.925   1.937
78620SOL     OW37756   7.742   4.251   9.269
78620SOL    HW137757   7.797   4.236   9.192
78620SOL    HW237758   7.759   4.343   9.292
78621SOL     OW37759   8.322  11.676   8.974
78621SOL    HW137760   8.375  11.707   8.901
78621SOL    HW237761   8.287  11.592   8.945
78622SOL     OW37762   1.358   3.352   2.696
78622SOL    HW137763   1.300   3.340   2.772
78622SOL    HW237764   1.438   3.389   2.733
78623SOL     OW37765  12.486   7.694  12.577
78623SOL    HW137766  12.421   7.757  12.545
78623SOL    HW237767  12.549   7.686  12.506
78624SOL     OW37768   6.569   8.080   2.802
78624SOL    HW137769   6.511   8.133   2.857
78624SOL    HW237770   6.522   8.071   2.719
78625SOL     OW37771  12.182   5.789   8.850
78625SOL    HW137772  12.217   5.720   8.907
78625SOL    HW237773  12.196   5.755   8.761
78626SOL     OW37774   5.376   8.557   0.916
78626SOL    HW137775   5.426   8.619   0.863
78626SOL    HW237776   5.365   8.600   1.001
78627SOL     OW37777  13.754  13.656   6.842
78627SOL    HW137778  13.771  13.695   6.756
78627SOL    HW237779  13.710  13.573   6.821
78628SOL     OW37780  10.303   3.683  14.362
78628SOL    HW137781  10.391   3.721  14.362
78628SOL    HW237782  10.288   3.658  14.453
78629SOL     OW37783   7.015   4.357  14.557
78629SOL    HW137784   7.082   4.334  14.492
78629SOL    HW237785   7.035   4.448  14.581
78630SOL     OW37786   9.168   3.873   6.632
78630SOL    HW137787   9.255   3.856   6.667
78630SOL    HW237788   9.174   3.961   6.595
78631SOL     OW37789  10.096   4.315   5.132
78631SOL    HW137790  10.111   4.380   5.201
78631SOL    HW237791  10.140   4.351   5.055
78632SOL     OW37792   2.073   4.975   3.333
78632SOL    HW137793   2.091   4.891   3.291
78632SOL    HW237794   2.044   4.952   3.421
78633SOL     OW37795   0.925  11.860  11.869
78633SOL    HW137796   0.874  11.847  11.788
78633SOL    HW237797   0.868  11.912  11.925
78634SOL     OW37798  14.025  14.670  13.640
78634SOL    HW137799  14.036  14.581  13.674
78634SOL    HW237800  13.983  14.718  13.712
78635SOL     OW37801   6.789  13.221   8.479
78635SOL    HW137802   6.730  13.187   8.412
78635SOL    HW237803   6.838  13.144   8.509
78636SOL     OW37804  10.534  10.239   7.174
78636SOL    HW137805  10.573  10.154   7.190
78636SOL    HW237806  10.443  10.231   7.205
78637SOL     OW37807   4.868   8.977  14.594
78637SOL    HW137808   4.799   8.974  14.528
78637SOL    HW237809   4.949   8.972  14.544
78638SOL     OW37810   9.310  13.960   2.526
78638SOL    HW137811   9.288  13.915   2.444
78638SOL    HW237812   9.390  14.009   2.506
78639SOL     OW37813   7.490   9.787   6.536
78639SOL    HW137814   7.500   9.741   6.453
78639SOL    HW237815   7.396   9.794   6.549
78640SOL     OW37816  13.303  10.839  12.334
78640SOL    HW137817  13.230  10.897  12.354
78640SOL    HW237818  13.344  10.877  12.256
78641SOL     OW37819   2.664  14.659   0.298
78641SOL    HW137820   2.676  14.564   0.301
78641SOL    HW237821   2.723  14.692   0.366
78642SOL     OW37822  11.013   4.385   0.888
78642SOL    HW137823  11.000   4.458   0.948
78642SOL    HW237824  11.106   4.387   0.866
78643SOL     OW37825  14.712  14.320  10.000
78643SOL    HW137826  14.800  14.351   9.980
78643SOL    HW237827  14.724  14.230  10.032
78644SOL     OW37828   9.929   9.316  10.620
78644SOL    HW137829  10.013   9.275  10.640
78644SOL    HW237830   9.863   9.254  10.654
78645SOL     OW37831  14.557  14.489   2.098
78645SOL    HW137832  14.535  14.428   2.027
78645SOL    HW237833  14.605  14.559   2.054
78646SOL     OW37834   6.380   3.107  12.328
78646SOL    HW137835   6.460   3.154  12.303
78646SOL    HW237836   6.404   3.015  12.320
78647SOL     OW37837   3.475  10.262   5.297
78647SOL    HW137838   3.506  10.243   5.385
78647SOL    HW237839   3.542  10.226   5.239
78648SOL     OW37840   8.386   8.540   2.870
78648SOL    HW137841   8.354   8.594   2.942
78648SOL    HW237842   8.467   8.583   2.842
78649SOL     OW37843  12.111   6.597   8.974
78649SOL    HW137844  12.021   6.594   9.009
78649SOL    HW237845  12.164   6.628   9.048
78650SOL     OW37846   6.900   0.935   5.192
78650SOL    HW137847   6.836   0.864   5.186
78650SOL    HW237848   6.923   0.953   5.101
78651SOL     OW37849  12.821   2.815  12.624
78651SOL    HW137850  12.780   2.787  12.542
78651SOL    HW237851  12.768   2.772  12.692
78652SOL     OW37852  14.195  14.414   4.771
78652SOL    HW137853  14.268  14.475   4.762
78652SOL    HW237854  14.151  14.440   4.852
78653SOL     OW37855   4.469  10.557   9.181
78653SOL    HW137856   4.487  10.463   9.187
78653SOL    HW237857   4.522  10.587   9.108
78654SOL     OW37858   1.472   3.117  12.557
78654SOL    HW137859   1.380   3.106  12.531
78654SOL    HW237860   1.511   3.165  12.484
78655SOL     OW37861   4.799  13.023   8.926
78655SOL    HW137862   4.838  13.106   8.957
78655SOL    HW237863   4.711  13.047   8.898
78656SOL     OW37864  10.605  12.522   6.168
78656SOL    HW137865  10.609  12.585   6.096
78656SOL    HW237866  10.591  12.437   6.125
78657SOL     OW37867   2.571   0.556  14.011
78657SOL    HW137868   2.645   0.550  13.950
78657SOL    HW237869   2.545   0.648  14.009
78658SOL     OW37870   9.494   7.795   6.579
78658SOL    HW137871   9.470   7.843   6.500
78658SOL    HW237872   9.449   7.840   6.649
78659SOL     OW37873  12.579   0.434  13.021
78659SOL    HW137874  12.572   0.357  12.965
78659SOL    HW237875  12.565   0.401  13.110
78660SOL     OW37876   5.964   2.166   7.625
78660SOL    HW137877   5.932   2.080   7.599
78660SOL    HW237878   5.885   2.219   7.637
78661SOL     OW37879   4.065   9.981   0.597
78661SOL    HW137880   3.970   9.980   0.592
78661SOL    HW237881   4.094   9.967   0.507
78662SOL     OW37882  11.171   3.682   7.012
78662SOL    HW137883  11.247   3.704   7.065
78662SOL    HW237884  11.130   3.608   7.057
78663SOL     OW37885   5.579  11.265   7.318
78663SOL    HW137886   5.608  11.354   7.297
78663SOL    HW237887   5.484  11.269   7.309
78664SOL     OW37888   0.613   1.864   8.650
78664SOL    HW137889   0.661   1.790   8.689
78664SOL    HW237890   0.622   1.852   8.556
78665SOL     OW37891  13.086  12.606   6.629
78665SOL    HW137892  13.025  12.678   6.647
78665SOL    HW237893  13.169  12.650   6.607
78666SOL     OW37894  14.148   4.564  10.037
78666SOL    HW137895  14.106   4.509   9.971
78666SOL    HW237896  14.077   4.587  10.097
78667SOL     OW37897   2.042   4.207   4.170
78667SOL    HW137898   2.092   4.129   4.147
78667SOL    HW237899   2.095   4.280   4.136
78668SOL     OW37900   5.802  11.554   8.781
78668SOL    HW137901   5.807  11.519   8.870
78668SOL    HW237902   5.883  11.604   8.770
78669SOL     OW37903  14.400  10.672   8.076
78669SOL    HW137904  14.463  10.719   8.022
78669SOL    HW237905  14.398  10.720   8.159
78670SOL     OW37906   1.689   5.729   8.084
78670SOL    HW137907   1.742   5.697   8.157
78670SOL    HW237908   1.601   5.739   8.120
78671SOL     OW37909   4.733   1.001   0.516
78671SOL    HW137910   4.727   1.056   0.594
78671SOL    HW237911   4.771   1.057   0.449
78672SOL     OW37912   6.661   2.593  11.267
78672SOL    HW137913   6.686   2.514  11.219
78672SOL    HW237914   6.613   2.645  11.202
78673SOL     OW37915   5.510   2.351  10.579
78673SOL    HW137916   5.465   2.289  10.521
78673SOL    HW237917   5.451   2.427  10.583
78674SOL     OW37918   2.471   8.616   6.773
78674SOL    HW137919   2.550   8.644   6.726
78674SOL    HW237920   2.444   8.536   6.729
78675SOL     OW37921  12.402  14.371   1.127
78675SOL    HW137922  12.309  14.370   1.102
78675SOL    HW237923  12.447  14.335   1.051
78676SOL     OW37924  10.850  13.344  13.662
78676SOL    HW137925  10.780  13.375  13.605
78676SOL    HW237926  10.920  13.317  13.602
78677SOL     OW37927   8.059   6.212   3.755
78677SOL    HW137928   7.969   6.245   3.747
78677SOL    HW237929   8.110   6.288   3.782
78678SOL     OW37930   7.004  12.060   3.451
78678SOL    HW137931   7.013  12.097   3.539
78678SOL    HW237932   6.922  12.011   3.454
78679SOL     OW37933   8.615   0.348   2.087
78679SOL    HW137934   8.569   0.319   2.008
78679SOL    HW237935   8.697   0.385   2.054
78680SOL     OW37936   2.145   8.332  12.587
78680SOL    HW137937   2.105   8.362  12.668
78680SOL    HW237938   2.231   8.375  12.584
78681SOL     OW37939   3.729   2.538   1.599
78681SOL    HW137940   3.642   2.577   1.603
78681SOL    HW237941   3.772   2.583   1.527
78682SOL     OW37942   2.086   6.852   9.295
78682SOL    HW137943   2.080   6.759   9.319
78682SOL    HW237944   2.059   6.899   9.374
78683SOL     OW37945   7.892  12.395   7.034
78683SOL    HW137946   7.819  12.337   7.014
78683SOL    HW237947   7.859  12.452   7.104
78684SOL     OW37948   6.183   3.337   0.478
78684SOL    HW137949   6.126   3.408   0.507
78684SOL    HW237950   6.272   3.372   0.488
78685SOL     OW37951  13.137   9.807   3.024
78685SOL    HW137952  13.090   9.880   3.065
78685SOL    HW237953  13.161   9.750   3.097
78686SOL     OW37954   0.378   6.396  10.038
78686SOL    HW137955   0.328   6.476  10.021
78686SOL    HW237956   0.378   6.388  10.134
78687SOL     OW37957  13.432   4.717   2.772
78687SOL    HW137958  13.386   4.721   2.856
78687SOL    HW237959  13.407   4.798   2.727
78688SOL     OW37960   1.270   4.545  12.806
78688SOL    HW137961   1.303   4.615  12.750
78688SOL    HW237962   1.346   4.516  12.856
78689SOL     OW37963   0.026   6.043  13.628
78689SOL    HW137964  14.802   6.062  13.627
78689SOL    HW237965   0.032   5.955  13.664
78690SOL     OW37966   7.228   4.135   3.962
78690SOL    HW137967   7.322   4.145   3.946
78690SOL    HW237968   7.193   4.098   3.881
78691SOL     OW37969   6.689   3.031   3.554
78691SOL    HW137970   6.610   3.006   3.602
78691SOL    HW237971   6.759   2.979   3.594
78692SOL     OW37972  11.723  13.499   9.306
78692SOL    HW137973  11.639  13.542   9.321
78692SOL    HW237974  11.752  13.531   9.221
78693SOL     OW37975   7.957   1.917  12.378
78693SOL    HW137976   7.987   1.929  12.288
78693SOL    HW237977   7.966   1.823  12.394
78694SOL     OW37978  13.785   3.402   1.444
78694SOL    HW137979  13.797   3.333   1.378
78694SOL    HW237980  13.781   3.354   1.527
78695SOL     OW37981  10.074  10.751   1.809
78695SOL    HW137982  10.162  10.785   1.825
78695SOL    HW237983  10.060  10.761   1.715
78696SOL     OW37984   1.230  13.913  13.173
78696SOL    HW137985   1.221  13.904  13.268
78696SOL    HW237986   1.268  13.830  13.145
78697SOL     OW37987   2.708  12.885   1.175
78697SOL    HW137988   2.612  12.884   1.175
78697SOL    HW237989   2.732  12.794   1.196
78698SOL     OW37990  12.541   5.205   4.777
78698SOL    HW137991  12.506   5.136   4.833
78698SOL    HW237992  12.464   5.249   4.741
78699SOL     OW37993   3.389   6.233   3.872
78699SOL    HW137994   3.451   6.306   3.883
78699SOL    HW237995   3.379   6.225   3.777
78700SOL     OW37996   1.116   6.652   9.198
78700SOL    HW137997   1.162   6.730   9.164
78700SOL    HW237998   1.023   6.675   9.191
78701SOL     OW37999   8.860  11.561  13.207
78701SOL    HW138000   8.818  11.620  13.270
78701SOL    HW238001   8.790  11.501  13.180
78702SOL     OW38002  13.122   1.721   1.658
78702SOL    HW138003  13.208   1.691   1.627
78702SOL    HW238004  13.128   1.816   1.658
78703SOL     OW38005   8.631  12.915  10.643
78703SOL    HW138006   8.547  12.949  10.673
78703SOL    HW238007   8.666  12.983  10.586
78704SOL     OW38008  12.630   4.440  10.962
78704SOL    HW138009  12.717   4.478  10.973
78704SOL    HW238010  12.594   4.435  11.050
78705SOL     OW38011  12.149  14.838   1.818
78705SOL    HW138012  12.104  14.855   1.900
78705SOL    HW238013  12.229   0.022   1.823
78706SOL     OW38014   5.079  13.849   0.038
78706SOL    HW138015   5.062  13.928  14.857
78706SOL    HW238016   5.170  13.827   0.018
78707SOL     OW38017  14.746   5.304   9.541
78707SOL    HW138018  14.697   5.385   9.555
78707SOL    HW238019  14.827   5.317   9.590
78708SOL     OW38020   4.244  13.039   3.349
78708SOL    HW138021   4.303  12.998   3.412
78708SOL    HW238022   4.185  12.969   3.322
78709SOL     OW38023  14.867  12.326   8.606
78709SOL    HW138024  14.836  12.250   8.657
78709SOL    HW238025  14.819  12.400   8.643
78710SOL     OW38026   3.272   9.953   9.276
78710SOL    HW138027   3.262   9.891   9.348
78710SOL    HW238028   3.356   9.996   9.292
78711SOL     OW38029  12.768  11.149   0.484
78711SOL    HW138030  12.707  11.216   0.514
78711SOL    HW238031  12.808  11.186   0.405
78712SOL     OW38032   3.057   5.142   7.276
78712SOL    HW138033   2.965   5.139   7.251
78712SOL    HW238034   3.103   5.164   7.195
78713SOL     OW38035  11.378   7.875   1.354
78713SOL    HW138036  11.300   7.895   1.303
78713SOL    HW238037  11.417   7.960   1.373
78714SOL     OW38038   4.552   5.582   4.610
78714SOL    HW138039   4.566   5.667   4.569
78714SOL    HW238040   4.506   5.601   4.691
78715SOL     OW38041  11.716   4.452   6.995
78715SOL    HW138042  11.636   4.418   7.035
78715SOL    HW238043  11.691   4.538   6.961
78716SOL     OW38044   7.493   1.938   6.246
78716SOL    HW138045   7.513   1.870   6.310
78716SOL    HW238046   7.568   1.938   6.187
78717SOL     OW38047  13.960   2.573   7.061
78717SOL    HW138048  14.044   2.535   7.035
78717SOL    HW238049  13.938   2.633   6.989
78718SOL     OW38050   4.424  13.424  12.406
78718SOL    HW138051   4.358  13.439  12.474
78718SOL    HW238052   4.507  13.427  12.453
78719SOL     OW38053  11.773   3.855   8.594
78719SOL    HW138054  11.740   3.898   8.515
78719SOL    HW238055  11.701   3.861   8.656
78720SOL     OW38056   1.340  13.094   0.008
78720SOL    HW138057   1.307  13.010   0.038
78720SOL    HW238058   1.352  13.084  14.783
78721SOL     OW38059  11.295  14.188   9.884
78721SOL    HW138060  11.339  14.166   9.966
78721SOL    HW238061  11.361  14.175   9.816
78722SOL     OW38062  10.518  12.666   4.133
78722SOL    HW138063  10.551  12.594   4.079
78722SOL    HW238064  10.563  12.744   4.099
78723SOL     OW38065  12.179   4.558  10.086
78723SOL    HW138066  12.094   4.514  10.089
78723SOL    HW238067  12.222   4.522  10.009
78724SOL     OW38068  14.666  10.349   6.896
78724SOL    HW138069  14.647  10.423   6.839
78724SOL    HW238070  14.639  10.272   6.845
78725SOL     OW38071   4.909   4.239   6.257
78725SOL    HW138072   4.954   4.158   6.281
78725SOL    HW238073   4.888   4.229   6.164
78726SOL     OW38074   8.634   6.965  11.408
78726SOL    HW138075   8.547   6.926  11.409
78726SOL    HW238076   8.674   6.938  11.491
78727SOL     OW38077   7.227   1.459   4.077
78727SOL    HW138078   7.228   1.364   4.063
78727SOL    HW238079   7.305   1.491   4.033
78728SOL     OW38080   4.906   6.502   0.527
78728SOL    HW138081   4.813   6.512   0.505
78728SOL    HW238082   4.907   6.485   0.621
78729SOL     OW38083   2.513  10.726   2.723
78729SOL    HW138084   2.557  10.681   2.795
78729SOL    HW238085   2.583  10.773   2.678
78730SOL     OW38086   3.220  10.714   5.976
78730SOL    HW138087   3.218  10.793   5.922
78730SOL    HW238088   3.209  10.643   5.913
78731SOL     OW38089   2.221  11.238   1.208
78731SOL    HW138090   2.175  11.164   1.169
78731SOL    HW238091   2.151  11.290   1.249
78732SOL     OW38092   6.119   0.102   1.020
78732SOL    HW138093   6.052   0.167   1.039
78732SOL    HW238094   6.073   0.033   0.972
78733SOL     OW38095   0.051   6.432  12.854
78733SOL    HW138096   0.077   6.370  12.786
78733SOL    HW238097   0.133   6.459  12.895
78734SOL     OW38098   9.099  12.635  10.310
78734SOL    HW138099   9.119  12.704  10.246
78734SOL    HW238100   9.004  12.628  10.308
78735SOL     OW38101  14.133   2.579   2.608
78735SOL    HW138102  14.061   2.636   2.580
78735SOL    HW238103  14.210   2.636   2.604
78736SOL     OW38104  11.262  13.371  12.719
78736SOL    HW138105  11.356  13.390  12.710
78736SOL    HW238106  11.259  13.295  12.777
78737SOL     OW38107   8.250   0.867   3.769
78737SOL    HW138108   8.316   0.933   3.746
78737SOL    HW238109   8.173   0.918   3.793
78738SOL     OW38110  13.607   8.296   2.041
78738SOL    HW138111  13.530   8.305   2.097
78738SOL    HW238112  13.580   8.238   1.971
78739SOL     OW38113   7.847   6.804   1.138
78739SOL    HW138114   7.838   6.723   1.188
78739SOL    HW238115   7.938   6.803   1.107
78740SOL     OW38116   4.114  12.031   6.509
78740SOL    HW138117   4.106  12.095   6.580
78740SOL    HW238118   4.074  11.951   6.544
78741SOL     OW38119  12.169  10.917   3.204
78741SOL    HW138120  12.082  10.878   3.199
78741SOL    HW238121  12.184  10.931   3.297
78742SOL     OW38122   9.068  12.951  12.868
78742SOL    HW138123   9.103  12.874  12.912
78742SOL    HW238124   9.094  13.025  12.924
78743SOL     OW38125   3.589   3.077   7.774
78743SOL    HW138126   3.650   3.143   7.742
78743SOL    HW238127   3.530   3.125   7.833
78744SOL     OW38128   8.238  12.157   1.277
78744SOL    HW138129   8.195  12.133   1.195
78744SOL    HW238130   8.189  12.234   1.307
78745SOL     OW38131  12.981   6.015   2.362
78745SOL    HW138132  13.074   6.027   2.384
78745SOL    HW238133  12.933   6.059   2.432
78746SOL     OW38134   3.175   3.682   0.555
78746SOL    HW138135   3.208   3.771   0.545
78746SOL    HW238136   3.206   3.636   0.477
78747SOL     OW38137   9.948   9.198   1.029
78747SOL    HW138138   9.866   9.202   1.080
78747SOL    HW238139   9.933   9.127   0.966
78748SOL     OW38140   7.204   1.314   8.409
78748SOL    HW138141   7.181   1.402   8.439
78748SOL    HW238142   7.146   1.256   8.460
78749SOL     OW38143   1.253   4.033   3.314
78749SOL    HW138144   1.207   3.958   3.276
78749SOL    HW238145   1.185   4.078   3.365
78750SOL     OW38146   9.901  12.836  11.107
78750SOL    HW138147   9.823  12.888  11.088
78750SOL    HW238148   9.972  12.885  11.066
78751SOL     OW38149   2.135   9.980  10.075
78751SOL    HW138150   2.085  10.061  10.075
78751SOL    HW238151   2.156   9.964   9.983
78752SOL     OW38152  14.460   2.402   3.082
78752SOL    HW138153  14.465   2.468   3.012
78752SOL    HW238154  14.461   2.452   3.163
78753SOL     OW38155   4.906   5.704   2.627
78753SOL    HW138156   4.925   5.777   2.568
78753SOL    HW238157   4.917   5.626   2.572
78754SOL     OW38158   5.447   2.537   6.260
78754SOL    HW138159   5.399   2.473   6.313
78754SOL    HW238160   5.519   2.487   6.221
78755SOL     OW38161   1.844   0.001   9.152
78755SOL    HW138162   1.805  14.797   9.105
78755SOL    HW238163   1.777   0.028   9.215
78756SOL     OW38164   1.634   2.733   1.509
78756SOL    HW138165   1.704   2.754   1.572
78756SOL    HW238166   1.642   2.800   1.441
78757SOL     OW38167   4.692   0.887   9.523
78757SOL    HW138168   4.655   0.839   9.598
78757SOL    HW238169   4.765   0.833   9.493
78758SOL     OW38170  13.612   5.333  13.654
78758SOL    HW138171  13.673   5.388  13.605
78758SOL    HW238172  13.608   5.373  13.741
78759SOL     OW38173  10.090   0.666   2.423
78759SOL    HW138174  10.171   0.644   2.376
78759SOL    HW238175  10.076   0.759   2.404
78760SOL     OW38176  11.280   7.476   9.865
78760SOL    HW138177  11.200   7.460   9.915
78760SOL    HW238178  11.345   7.418   9.904
78761SOL     OW38179   2.386   6.882  13.228
78761SOL    HW138180   2.380   6.821  13.301
78761SOL    HW238181   2.404   6.827  13.152
78762SOL     OW38182   9.530  12.491   0.360
78762SOL    HW138183   9.555  12.414   0.309
78762SOL    HW238184   9.448  12.466   0.403
78763SOL     OW38185   6.293   5.640   6.301
78763SOL    HW138186   6.276   5.556   6.343
78763SOL    HW238187   6.316   5.617   6.211
78764SOL     OW38188   9.858  14.103   1.986
78764SOL    HW138189   9.821  14.065   2.065
78764SOL    HW238190   9.797  14.172   1.961
78765SOL     OW38191  10.879   6.676   5.502
78765SOL    HW138192  10.800   6.628   5.526
78765SOL    HW238193  10.867   6.762   5.543
78766SOL     OW38194   5.801  10.279   8.738
78766SOL    HW138195   5.870  10.282   8.804
78766SOL    HW238196   5.764  10.367   8.737
78767SOL     OW38197  13.261  11.819  14.639
78767SOL    HW138198  13.309  11.778  14.567
78767SOL    HW238199  13.169  11.797  14.622
78768SOL     OW38200   7.264   9.784   3.078
78768SOL    HW138201   7.261   9.788   3.174
78768SOL    HW238202   7.238   9.872   3.050
78769SOL     OW38203   3.862   3.476   3.223
78769SOL    HW138204   3.847   3.434   3.139
78769SOL    HW238205   3.877   3.568   3.202
78770SOL     OW38206  14.385   7.172  10.221
78770SOL    HW138207  14.380   7.234  10.148
78770SOL    HW238208  14.425   7.222  10.293
78771SOL     OW38209   2.284   8.403   5.827
78771SOL    HW138210   2.216   8.344   5.793
78771SOL    HW238211   2.284   8.387   5.922
78772SOL     OW38212   3.453   9.507   2.728
78772SOL    HW138213   3.514   9.470   2.665
78772SOL    HW238214   3.455   9.601   2.710
78773SOL     OW38215   0.193   8.745   0.011
78773SOL    HW138216   0.186   8.814  14.814
78773SOL    HW238217   0.266   8.691  14.852
78774SOL     OW38218  10.348  11.150   0.581
78774SOL    HW138219  10.320  11.228   0.629
78774SOL    HW238220  10.418  11.113   0.635
78775SOL     OW38221   0.162   8.044   4.176
78775SOL    HW138222   0.102   8.107   4.137
78775SOL    HW238223   0.241   8.095   4.196
78776SOL     OW38224  10.450   7.342   1.445
78776SOL    HW138225  10.411   7.367   1.528
78776SOL    HW238226  10.510   7.270   1.467
78777SOL     OW38227   4.280   0.880  11.380
78777SOL    HW138228   4.189   0.864  11.407
78777SOL    HW238229   4.274   0.900  11.286
78778SOL     OW38230  12.416   0.490   3.107
78778SOL    HW138231  12.505   0.525   3.115
78778SOL    HW238232  12.361   0.555   3.149
78779SOL     OW38233  12.103  14.295   1.172
78779SOL    HW138234  12.009  14.306   1.163
78779SOL    HW238235  12.118  14.201   1.159
78780SOL     OW38236   7.405   1.185   0.993
78780SOL    HW138237   7.493   1.181   0.957
78780SOL    HW238238   7.417   1.187   1.088
78781SOL     OW38239  13.242  13.709   5.557
78781SOL    HW138240  13.203  13.641   5.502
78781SOL    HW238241  13.305  13.753   5.501
78782SOL     OW38242   6.802   2.229  10.710
78782SOL    HW138243   6.735   2.262  10.770
78782SOL    HW238244   6.865   2.184  10.766
78783SOL     OW38245  11.182  10.562  12.756
78783SOL    HW138246  11.241  10.616  12.810
78783SOL    HW238247  11.234  10.539  12.679
78784SOL     OW38248   5.698  14.278   1.686
78784SOL    HW138249   5.626  14.216   1.680
78784SOL    HW238250   5.711  14.308   1.596
78785SOL     OW38251  13.366  10.509   6.186
78785SOL    HW138252  13.302  10.438   6.197
78785SOL    HW238253  13.340  10.574   6.251
78786SOL     OW38254  10.365   7.619   0.910
78786SOL    HW138255  10.435   7.586   0.966
78786SOL    HW238256  10.399   7.608   0.821
78787SOL     OW38257   9.703   8.626  10.604
78787SOL    HW138258   9.762   8.551  10.598
78787SOL    HW238259   9.622   8.591  10.641
78788SOL     OW38260   9.560   7.659   0.925
78788SOL    HW138261   9.655   7.672   0.917
78788SOL    HW238262   9.528   7.663   0.835
78789SOL     OW38263  10.602   9.890   4.224
78789SOL    HW138264  10.619   9.977   4.187
78789SOL    HW238265  10.686   9.844   4.216
78790SOL     OW38266   0.879   1.195   5.748
78790SOL    HW138267   0.954   1.212   5.806
78790SOL    HW238268   0.836   1.119   5.787
78791SOL     OW38269  10.444   3.692  14.810
78791SOL    HW138270  10.468   3.737  14.729
78791SOL    HW238271  10.352   3.716  14.824
78792SOL     OW38272   7.749  11.377   6.446
78792SOL    HW138273   7.838  11.350   6.425
78792SOL    HW238274   7.723  11.434   6.373
78793SOL     OW38275   1.559  10.563  10.411
78793SOL    HW138276   1.522  10.594  10.494
78793SOL    HW238277   1.566  10.642  10.357
78794SOL     OW38278   5.078   9.402   5.850
78794SOL    HW138279   5.146   9.418   5.784
78794SOL    HW238280   5.121   9.421   5.933
78795SOL     OW38281   5.301  12.350   6.712
78795SOL    HW138282   5.219  12.370   6.667
78795SOL    HW238283   5.281  12.362   6.805
78796SOL     OW38284   5.087  10.114  13.270
78796SOL    HW138285   5.067  10.208  13.273
78796SOL    HW238286   5.040  10.077  13.345
78797SOL     OW38287  13.196  13.894   4.004
78797SOL    HW138288  13.174  13.801   3.996
78797SOL    HW238289  13.214  13.905   4.098
78798SOL     OW38290  10.685   5.072   6.113
78798SOL    HW138291  10.710   5.116   6.031
78798SOL    HW238292  10.621   5.132   6.152
78799SOL     OW38293   3.407   9.287   4.395
78799SOL    HW138294   3.396   9.371   4.349
78799SOL    HW238295   3.495   9.259   4.372
78800SOL     OW38296  14.008  14.408   3.190
78800SOL    HW138297  13.994  14.445   3.277
78800SOL    HW238298  14.093  14.441   3.164
78801SOL     OW38299   5.521  11.191  11.122
78801SOL    HW138300   5.427  11.212  11.126
78801SOL    HW238301   5.533  11.154  11.034
78802SOL     OW38302   0.538   7.901   4.066
78802SOL    HW138303   0.573   7.939   3.985
78802SOL    HW238304   0.457   7.857   4.038
78803SOL     OW38305   4.183  14.817   3.308
78803SOL    HW138306   4.222  14.739   3.268
78803SOL    HW238307   4.212  14.814   3.399
78804SOL     OW38308   9.298  11.333  13.766
78804SOL    HW138309   9.273  11.290  13.848
78804SOL    HW238310   9.233  11.402  13.754
78805SOL     OW38311   0.343  13.331   7.255
78805SOL    HW138312   0.295  13.408   7.225
78805SOL    HW238313   0.434  13.361   7.262
78806SOL     OW38314  14.297   6.120   7.737
78806SOL    HW138315  14.253   6.038   7.760
78806SOL    HW238316  14.390   6.101   7.749
78807SOL     OW38317   5.853   7.473  14.585
78807SOL    HW138318   5.927   7.515  14.627
78807SOL    HW238319   5.814   7.419  14.654
78808SOL     OW38320   0.401   7.661   1.626
78808SOL    HW138321   0.408   7.699   1.714
78808SOL    HW238322   0.454   7.719   1.571
78809SOL     OW38323  10.206   5.740  11.767
78809SOL    HW138324  10.215   5.666  11.827
78809SOL    HW238325  10.137   5.714  11.706
78810SOL     OW38326   3.616   2.935   2.618
78810SOL    HW138327   3.557   3.005   2.645
78810SOL    HW238328   3.657   2.905   2.699
78811SOL     OW38329  10.870  12.182  14.179
78811SOL    HW138330  10.941  12.233  14.140
78811SOL    HW238331  10.915  12.115  14.231
78812SOL     OW38332  11.920   8.728   6.761
78812SOL    HW138333  11.940   8.691   6.675
78812SOL    HW238334  11.905   8.821   6.744
78813SOL     OW38335   7.350   3.044   2.330
78813SOL    HW138336   7.275   3.009   2.378
78813SOL    HW238337   7.426   3.011   2.377
78814SOL     OW38338   8.539   7.795   9.470
78814SOL    HW138339   8.483   7.750   9.533
78814SOL    HW238340   8.479   7.846   9.416
78815SOL     OW38341   9.646   3.110   0.797
78815SOL    HW138342   9.623   3.187   0.848
78815SOL    HW238343   9.635   3.136   0.706
78816SOL     OW38344  14.795  13.232   3.280
78816SOL    HW138345  14.700  13.227   3.274
78816SOL    HW238346  14.821  13.281   3.202
78817SOL     OW38347   6.076   6.215   6.671
78817SOL    HW138348   6.066   6.274   6.746
78817SOL    HW238349   6.161   6.174   6.684
78818SOL     OW38350   1.396   8.132  10.536
78818SOL    HW138351   1.488   8.129  10.511
78818SOL    HW238352   1.389   8.210  10.591
78819SOL     OW38353   5.317   1.619   2.506
78819SOL    HW138354   5.236   1.604   2.458
78819SOL    HW238355   5.367   1.538   2.494
78820SOL     OW38356   1.380   7.174   2.494
78820SOL    HW138357   1.387   7.151   2.587
78820SOL    HW238358   1.286   7.176   2.478
78821SOL     OW38359   1.545   4.453   8.375
78821SOL    HW138360   1.488   4.518   8.334
78821SOL    HW238361   1.496   4.371   8.369
78822SOL     OW38362  10.955  11.203  14.530
78822SOL    HW138363  10.977  11.110  14.537
78822SOL    HW238364  10.917  11.212  14.443
78823SOL     OW38365   8.730   0.609   9.590
78823SOL    HW138366   8.743   0.514   9.590
78823SOL    HW238367   8.818   0.645   9.580
78824SOL     OW38368   2.854   3.634  14.742
78824SOL    HW138369   2.919   3.698  14.770
78824SOL    HW238370   2.892   3.549  14.765
78825SOL     OW38371  13.275  11.082   0.601
78825SOL    HW138372  13.181  11.085   0.615
78825SOL    HW238373  13.307  11.019   0.666
78826SOL     OW38374  13.128  13.373  14.515
78826SOL    HW138375  13.152  13.383  14.423
78826SOL    HW238376  13.051  13.316  14.514
78827SOL     OW38377   1.492  13.199   5.466
78827SOL    HW138378   1.526  13.278   5.423
78827SOL    HW238379   1.562  13.134   5.454
78828SOL     OW38380   6.578   2.508   8.048
78828SOL    HW138381   6.605   2.599   8.065
78828SOL    HW238382   6.520   2.486   8.121
78829SOL     OW38383  11.986  10.174  10.392
78829SOL    HW138384  12.000  10.260  10.432
78829SOL    HW238385  11.928  10.192  10.318
78830SOL     OW38386   7.768   3.433   8.175
78830SOL    HW138387   7.737   3.443   8.265
78830SOL    HW238388   7.746   3.515   8.133
78831SOL     OW38389   8.211   2.352   4.180
78831SOL    HW138390   8.220   2.346   4.275
78831SOL    HW238391   8.179   2.441   4.164
78832SOL     OW38392  12.912   8.540   1.460
78832SOL    HW138393  12.932   8.462   1.408
78832SOL    HW238394  12.872   8.600   1.398
78833SOL     OW38395   4.192   2.793   7.544
78833SOL    HW138396   4.102   2.771   7.566
78833SOL    HW238397   4.239   2.792   7.627
78834SOL     OW38398   8.410  13.806   1.265
78834SOL    HW138399   8.454  13.749   1.202
78834SOL    HW238400   8.474  13.873   1.287
78835SOL     OW38401   4.607   7.917  11.289
78835SOL    HW138402   4.627   7.885  11.377
78835SOL    HW238403   4.554   7.996  11.304
78836SOL     OW38404   3.874  11.476  13.314
78836SOL    HW138405   3.946  11.527  13.278
78836SOL    HW238406   3.900  11.456  13.404
78837SOL     OW38407   6.460   3.753   4.207
78837SOL    HW138408   6.383   3.705   4.238
78837SOL    HW238409   6.447   3.762   4.113
78838SOL     OW38410  11.209  12.284   2.218
78838SOL    HW138411  11.276  12.322   2.274
78838SOL    HW238412  11.162  12.223   2.275
78839SOL     OW38413  12.062  13.532   6.590
78839SOL    HW138414  12.035  13.519   6.499
78839SOL    HW238415  11.984  13.569   6.632
78840SOL     OW38416  11.267   5.546  13.296
78840SOL    HW138417  11.282   5.455  13.269
78840SOL    HW238418  11.205   5.539  13.369
78841SOL     OW38419   8.683  13.487  10.019
78841SOL    HW138420   8.686  13.416   9.955
78841SOL    HW238421   8.747  13.551   9.987
78842SOL     OW38422   6.000   1.700  11.259
78842SOL    HW138423   5.908   1.712  11.284
78842SOL    HW238424   6.005   1.734  11.170
78843SOL     OW38425   3.916  12.363  10.947
78843SOL    HW138426   3.977  12.433  10.926
78843SOL    HW238427   3.887  12.330  10.861
78844SOL     OW38428  11.009   4.112   0.157
78844SOL    HW138429  10.998   4.017   0.170
78844SOL    HW238430  10.999   4.149   0.245
78845SOL     OW38431   3.722   6.791  11.592
78845SOL    HW138432   3.816   6.803  11.609
78845SOL    HW238433   3.681   6.867  11.633
78846SOL     OW38434  10.051   9.392   7.506
78846SOL    HW138435   9.997   9.467   7.530
78846SOL    HW238436  10.016   9.320   7.558
78847SOL     OW38437   0.725   9.610   1.673
78847SOL    HW138438   0.673   9.563   1.737
78847SOL    HW238439   0.665   9.628   1.601
78848SOL     OW38440   9.794   2.369   0.353
78848SOL    HW138441   9.842   2.444   0.317
78848SOL    HW238442   9.744   2.334   0.279
78849SOL     OW38443   2.550   2.997  12.444
78849SOL    HW138444   2.519   3.011  12.534
78849SOL    HW238445   2.505   2.918  12.416
78850SOL     OW38446   2.478   6.246   5.915
78850SOL    HW138447   2.541   6.310   5.949
78850SOL    HW238448   2.396   6.267   5.959
78851SOL     OW38449   8.105   5.070   3.925
78851SOL    HW138450   8.175   5.046   3.987
78851SOL    HW238451   8.071   5.152   3.959
78852SOL     OW38452  14.286   6.505   4.719
78852SOL    HW138453  14.191   6.500   4.713
78852SOL    HW238454  14.306   6.598   4.714
78853SOL     OW38455  14.804   7.785   1.254
78853SOL    HW138456  14.778   7.852   1.316
78853SOL    HW238457   0.020   7.755   1.286
78854SOL     OW38458   2.960   8.490   1.524
78854SOL    HW138459   2.926   8.447   1.602
78854SOL    HW238460   2.919   8.577   1.525
78855SOL     OW38461   8.727   3.431  10.691
78855SOL    HW138462   8.685   3.418  10.776
78855SOL    HW238463   8.821   3.432  10.711
78856SOL     OW38464   9.008  11.421   4.813
78856SOL    HW138465   9.093  11.439   4.772
78856SOL    HW238466   8.997  11.327   4.806
78857SOL     OW38467  11.222   2.598   1.328
78857SOL    HW138468  11.303   2.610   1.278
78857SOL    HW238469  11.171   2.534   1.278
78858SOL     OW38470   4.359   2.158  11.791
78858SOL    HW138471   4.271   2.121  11.798
78858SOL    HW238472   4.384   2.145  11.699
78859SOL     OW38473   2.198   7.682   9.156
78859SOL    HW138474   2.104   7.676   9.141
78859SOL    HW238475   2.237   7.626   9.089
78860SOL     OW38476  14.077   3.637  11.706
78860SOL    HW138477  14.107   3.626  11.796
78860SOL    HW238478  13.993   3.683  11.714
78861SOL     OW38479  11.407   3.056   7.520
78861SOL    HW138480  11.422   2.966   7.550
78861SOL    HW238481  11.462   3.110   7.577
78862SOL     OW38482  13.539   5.237   0.791
78862SOL    HW138483  13.568   5.292   0.718
78862SOL    HW238484  13.503   5.299   0.854
78863SOL     OW38485   4.301   1.785   9.171
78863SOL    HW138486   4.328   1.818   9.257
78863SOL    HW238487   4.210   1.814   9.162
78864SOL     OW38488   0.608   6.789   7.466
78864SOL    HW138489   0.635   6.724   7.401
78864SOL    HW238490   0.686   6.800   7.521
78865SOL     OW38491   3.947   7.949   8.263
78865SOL    HW138492   4.035   7.923   8.236
78865SOL    HW238493   3.951   8.044   8.273
78866SOL     OW38494   4.502   6.099   2.740
78866SOL    HW138495   4.446   6.045   2.684
78866SOL    HW238496   4.558   6.147   2.678
78867SOL     OW38497   9.459  13.805  13.243
78867SOL    HW138498   9.416  13.729  13.281
78867SOL    HW238499   9.535  13.769  13.197
78868SOL     OW38500   2.593   6.877   7.218
78868SOL    HW138501   2.532   6.932   7.268
78868SOL    HW238502   2.679   6.894   7.258
78869SOL     OW38503  12.654  12.730   3.904
78869SOL    HW138504  12.611  12.664   3.959
78869SOL    HW238505  12.680  12.681   3.825
78870SOL     OW38506   6.747   0.577   4.757
78870SOL    HW138507   6.751   0.651   4.696
78870SOL    HW238508   6.835   0.574   4.796
78871SOL     OW38509   4.845   2.990   0.454
78871SOL    HW138510   4.793   3.000   0.534
78871SOL    HW238511   4.840   2.897   0.433
78872SOL     OW38512  10.156   3.646   8.143
78872SOL    HW138513  10.078   3.620   8.095
78872SOL    HW238514  10.137   3.734   8.174
78873SOL     OW38515  12.161   5.802  10.966
78873SOL    HW138516  12.072   5.800  11.001
78873SOL    HW238517  12.185   5.894  10.964
78874SOL     OW38518   4.016   2.544   6.542
78874SOL    HW138519   4.037   2.631   6.577
78874SOL    HW238520   4.023   2.485   6.617
78875SOL     OW38521   5.201  12.919   6.382
78875SOL    HW138522   5.139  12.989   6.359
78875SOL    HW238523   5.180  12.848   6.321
78876SOL     OW38524   5.374   0.496   7.247
78876SOL    HW138525   5.384   0.406   7.278
78876SOL    HW238526   5.304   0.532   7.300
78877SOL     OW38527   5.538   4.617   4.762
78877SOL    HW138528   5.518   4.685   4.699
78877SOL    HW238529   5.576   4.546   4.710
78878SOL     OW38530   4.576   5.447   8.600
78878SOL    HW138531   4.515   5.474   8.668
78878SOL    HW238532   4.639   5.519   8.594
78879SOL     OW38533   9.460  14.557   7.818
78879SOL    HW138534   9.545  14.524   7.847
78879SOL    HW238535   9.468  14.565   7.723
78880SOL     OW38536  14.555   9.830   4.474
78880SOL    HW138537  14.482   9.859   4.530
78880SOL    HW238538  14.518   9.831   4.385
78881SOL     OW38539  11.574  14.211   4.860
78881SOL    HW138540  11.537  14.147   4.799
78881SOL    HW238541  11.634  14.263   4.807
78882SOL     OW38542  12.738  13.316   3.238
78882SOL    HW138543  12.700  13.261   3.307
78882SOL    HW238544  12.808  13.365   3.281
78883SOL     OW38545  10.677   8.392   4.007
78883SOL    HW138546  10.712   8.416   3.922
78883SOL    HW238547  10.669   8.296   4.004
78884SOL     OW38548   1.246  12.764   9.888
78884SOL    HW138549   1.276  12.763   9.979
78884SOL    HW238550   1.283  12.845   9.852
78885SOL     OW38551   3.217   1.003   7.908
78885SOL    HW138552   3.165   0.956   7.973
78885SOL    HW238553   3.168   1.084   7.892
78886SOL     OW38554   8.426   7.592   8.143
78886SOL    HW138555   8.418   7.629   8.231
78886SOL    HW238556   8.403   7.664   8.084
78887SOL     OW38557   3.491   1.997   0.777
78887SOL    HW138558   3.445   2.079   0.761
78887SOL    HW238559   3.574   2.005   0.731
78888SOL     OW38560  11.338  11.515   0.388
78888SOL    HW138561  11.415  11.569   0.404
78888SOL    HW238562  11.268  11.578   0.370
78889SOL     OW38563   8.668   6.476  13.916
78889SOL    HW138564   8.602   6.424  13.961
78889SOL    HW238565   8.621   6.554  13.887
78890SOL     OW38566   8.532   2.549   0.409
78890SOL    HW138567   8.486   2.519   0.488
78890SOL    HW238568   8.570   2.633   0.435
78891SOL     OW38569   0.056   8.288   3.390
78891SOL    HW138570  14.845   8.301   3.441
78891SOL    HW238571   0.127   8.297   3.453
78892SOL     OW38572   0.065   3.992  14.561
78892SOL    HW138573   0.112   4.061  14.514
78892SOL    HW238574  14.843   4.006  14.539
78893SOL     OW38575   4.443  13.524   6.981
78893SOL    HW138576   4.375  13.562   7.037
78893SOL    HW238577   4.520  13.518   7.038
78894SOL     OW38578  14.480   4.695  14.509
78894SOL    HW138579  14.426   4.630  14.465
78894SOL    HW238580  14.419   4.747  14.561
78895SOL     OW38581   7.553   1.870   8.449
78895SOL    HW138582   7.630   1.924   8.433
78895SOL    HW238583   7.578   1.782   8.419
78896SOL     OW38584   9.768  14.078   9.226
78896SOL    HW138585   9.724  14.156   9.260
78896SOL    HW238586   9.846  14.069   9.281
78897SOL     OW38587   0.102   5.893   9.688
78897SOL    HW138588   0.041   5.959   9.723
78897SOL    HW238589   0.185   5.940   9.680
78898SOL     OW38590   0.747  14.095   9.124
78898SOL    HW138591   0.811  14.033   9.090
78898SOL    HW238592   0.783  14.123   9.209
78899SOL     OW38593   2.534   5.308   9.327
78899SOL    HW138594   2.563   5.231   9.375
78899SOL    HW238595   2.613   5.361   9.316
78900SOL     OW38596   0.899  13.979  14.406
78900SOL    HW138597   0.879  13.892  14.371
78900SOL    HW238598   0.862  13.978  14.494
78901SOL     OW38599   2.635   9.651   9.158
78901SOL    HW138600   2.596   9.708   9.224
78901SOL    HW238601   2.564   9.592   9.132
78902SOL     OW38602   2.314   3.855   5.565
78902SOL    HW138603   2.287   3.822   5.479
78902SOL    HW238604   2.395   3.807   5.585
78903SOL     OW38605   5.933   0.199  12.651
78903SOL    HW138606   5.949   0.125  12.593
78903SOL    HW238607   6.020   0.236  12.667
78904SOL     OW38608  14.657   3.380   8.194
78904SOL    HW138609  14.566   3.353   8.207
78904SOL    HW238610  14.708   3.301   8.212
78905SOL     OW38611   3.285   3.470  11.846
78905SOL    HW138612   3.363   3.514  11.880
78905SOL    HW238613   3.212   3.521  11.878
78906SOL     OW38614   6.937   4.593   8.882
78906SOL    HW138615   6.918   4.684   8.904
78906SOL    HW238616   7.004   4.566   8.945
78907SOL     OW38617   5.465   8.137  12.902
78907SOL    HW138618   5.439   8.048  12.878
78907SOL    HW238619   5.385   8.179  12.931
78908SOL     OW38620   3.763   6.089   1.633
78908SOL    HW138621   3.769   6.185   1.635
78908SOL    HW238622   3.853   6.060   1.619
78909SOL     OW38623   8.801  11.544  10.784
78909SOL    HW138624   8.841  11.616  10.833
78909SOL    HW238625   8.734  11.509  10.842
78910SOL     OW38626   3.182  14.188  13.742
78910SOL    HW138627   3.226  14.135  13.809
78910SOL    HW238628   3.152  14.124  13.677
78911SOL     OW38629  11.489  14.575  11.611
78911SOL    HW138630  11.508  14.669  11.616
78911SOL    HW238631  11.527  14.539  11.691
78912SOL     OW38632  13.414   3.592   2.829
78912SOL    HW138633  13.438   3.503   2.856
78912SOL    HW238634  13.318   3.590   2.824
78913SOL     OW38635  13.835  10.026   6.864
78913SOL    HW138636  13.832   9.999   6.772
78913SOL    HW238637  13.886  10.107   6.864
78914SOL     OW38638  13.746  11.692  13.453
78914SOL    HW138639  13.682  11.737  13.508
78914SOL    HW238640  13.773  11.757  13.389
78915SOL     OW38641  10.396  10.228   6.354
78915SOL    HW138642  10.311  10.211   6.394
78915SOL    HW238643  10.392  10.320   6.327
78916SOL     OW38644  10.985  14.750   3.873
78916SOL    HW138645  10.930  14.759   3.795
78916SOL    HW238646  11.072  14.778   3.844
78917SOL     OW38647  11.395   9.498  12.260
78917SOL    HW138648  11.477   9.456  12.287
78917SOL    HW238649  11.408   9.519  12.168
78918SOL     OW38650   1.855   3.664   9.555
78918SOL    HW138651   1.933   3.624   9.591
78918SOL    HW238652   1.832   3.733   9.617
78919SOL     OW38653   6.136  11.944  13.242
78919SOL    HW138654   6.122  12.003  13.168
78919SOL    HW238655   6.218  11.973  13.281
78920SOL     OW38656   4.832   7.383   1.119
78920SOL    HW138657   4.746   7.412   1.150
78920SOL    HW238658   4.893   7.450   1.150
78921SOL     OW38659   2.592   4.856  13.775
78921SOL    HW138660   2.589   4.861  13.871
78921SOL    HW238661   2.638   4.774  13.757
78922SOL     OW38662   5.669   7.878   6.490
78922SOL    HW138663   5.661   7.921   6.575
78922SOL    HW238664   5.589   7.825   6.483
78923SOL     OW38665   2.477  12.215   0.432
78923SOL    HW138666   2.457  12.301   0.394
78923SOL    HW238667   2.477  12.156   0.357
78924SOL     OW38668   7.188  11.179   5.069
78924SOL    HW138669   7.106  11.165   5.022
78924SOL    HW238670   7.243  11.227   5.007
78925SOL     OW38671  11.416   1.458   1.994
78925SOL    HW138672  11.487   1.492   1.940
78925SOL    HW238673  11.339   1.459   1.937
78926SOL     OW38674   4.734   6.228   3.040
78926SOL    HW138675   4.762   6.148   3.085
78926SOL    HW238676   4.684   6.277   3.106
78927SOL     OW38677   8.155   7.582   8.725
78927SOL    HW138678   8.120   7.516   8.785
78927SOL    HW238679   8.100   7.575   8.647
78928SOL     OW38680   2.920   2.859  10.712
78928SOL    HW138681   3.004   2.880  10.670
78928SOL    HW238682   2.862   2.836  10.640
78929SOL     OW38683   5.769  13.136   7.995
78929SOL    HW138684   5.855  13.094   7.986
78929SOL    HW238685   5.738  13.146   7.905
78930SOL     OW38686   8.158  12.907   7.152
78930SOL    HW138687   8.151  12.824   7.106
78930SOL    HW238688   8.119  12.971   7.094
78931SOL     OW38689  11.798  13.589   4.752
78931SOL    HW138690  11.791  13.652   4.681
78931SOL    HW238691  11.789  13.641   4.832
78932SOL     OW38692  12.796  14.236  12.772
78932SOL    HW138693  12.891  14.240  12.780
78932SOL    HW238694  12.766  14.205  12.857
78933SOL     OW38695  12.192   7.769   8.060
78933SOL    HW138696  12.219   7.823   8.134
78933SOL    HW238697  12.274   7.743   8.018
78934SOL     OW38698  11.361  10.388  11.773
78934SOL    HW138699  11.338  10.481  11.783
78934SOL    HW238700  11.277  10.343  11.771
78935SOL     OW38701   2.975   5.257  10.795
78935SOL    HW138702   2.920   5.304  10.858
78935SOL    HW238703   2.984   5.318  10.721
78936SOL     OW38704  10.082  12.069   3.085
78936SOL    HW138705  10.127  12.039   3.007
78936SOL    HW238706  10.109  12.160   3.095
78937SOL     OW38707   2.710  11.874   4.412
78937SOL    HW138708   2.721  11.831   4.497
78937SOL    HW238709   2.799  11.883   4.378
78938SOL     OW38710   4.305  11.974   5.310
78938SOL    HW138711   4.336  11.923   5.385
78938SOL    HW238712   4.267  11.910   5.251
78939SOL     OW38713   0.630   4.009   0.794
78939SOL    HW138714   0.599   4.017   0.704
78939SOL    HW238715   0.612   3.917   0.817
78940SOL     OW38716  13.053  12.482   1.772
78940SOL    HW138717  12.997  12.489   1.695
78940SOL    HW238718  12.995  12.448   1.840
78941SOL     OW38719  11.868  11.238  11.780
78941SOL    HW138720  11.857  11.186  11.700
78941SOL    HW238721  11.939  11.299  11.759
78942SOL     OW38722  13.585   7.508   5.135
78942SOL    HW138723  13.548   7.486   5.221
78942SOL    HW238724  13.599   7.603   5.139
78943SOL     OW38725  10.792   7.389  14.344
78943SOL    HW138726  10.704   7.425  14.337
78943SOL    HW238727  10.780   7.301  14.379
78944SOL     OW38728   3.958   5.546   4.934
78944SOL    HW138729   4.039   5.597   4.930
78944SOL    HW238730   3.987   5.456   4.951
78945SOL     OW38731   4.774  10.580  10.749
78945SOL    HW138732   4.813  10.615  10.829
78945SOL    HW238733   4.835  10.603  10.680
78946SOL     OW38734   2.986   6.327  12.024
78946SOL    HW138735   3.049   6.389  12.061
78946SOL    HW238736   3.023   6.241  12.041
78947SOL     OW38737  13.832  11.144  10.962
78947SOL    HW138738  13.823  11.069  11.020
78947SOL    HW238739  13.907  11.192  10.997
78948SOL     OW38740   0.482   9.358   5.652
78948SOL    HW138741   0.523   9.403   5.726
78948SOL    HW238742   0.554   9.340   5.592
78949SOL     OW38743   3.775  11.826  10.029
78949SOL    HW138744   3.684  11.815  10.001
78949SOL    HW238745   3.827  11.793   9.955
78950SOL     OW38746   3.543   8.813  11.368
78950SOL    HW138747   3.500   8.815  11.283
78950SOL    HW238748   3.573   8.723  11.378
78951SOL     OW38749   5.074   1.761  11.338
78951SOL    HW138750   5.064   1.846  11.295
78951SOL    HW238751   4.985   1.733  11.356
78952SOL     OW38752   4.451   4.075  14.112
78952SOL    HW138753   4.357   4.096  14.113
78952SOL    HW238754   4.465   4.021  14.189
78953SOL     OW38755   2.840   3.975   2.468
78953SOL    HW138756   2.817   4.013   2.384
78953SOL    HW238757   2.822   3.881   2.458
78954SOL     OW38758  11.186   8.100  12.348
78954SOL    HW138759  11.245   8.157  12.298
78954SOL    HW238760  11.238   8.021  12.364
78955SOL     OW38761  12.230   1.734  11.808
78955SOL    HW138762  12.167   1.781  11.753
78955SOL    HW238763  12.178   1.700  11.881
78956SOL     OW38764  13.939   4.016  11.520
78956SOL    HW138765  13.991   4.044  11.445
78956SOL    HW238766  13.955   3.922  11.526
78957SOL     OW38767   8.453   3.725  10.698
78957SOL    HW138768   8.426   3.646  10.652
78957SOL    HW238769   8.412   3.719  10.784
78958SOL     OW38770   8.074  12.840  11.980
78958SOL    HW138771   8.048  12.781  11.910
78958SOL    HW238772   8.169  12.832  11.985
78959SOL     OW38773   2.852   7.707   0.501
78959SOL    HW138774   2.907   7.745   0.570
78959SOL    HW238775   2.786   7.658   0.549
78960SOL     OW38776   2.772   7.090   4.436
78960SOL    HW138777   2.761   7.090   4.341
78960SOL    HW238778   2.834   7.160   4.454
78961SOL     OW38779   7.832   1.793  14.395
78961SOL    HW138780   7.820   1.710  14.349
78961SOL    HW238781   7.917   1.785  14.437
78962SOL     OW38782   4.197  10.721   5.451
78962SOL    HW138783   4.223  10.642   5.404
78962SOL    HW238784   4.221  10.793   5.392
78963SOL     OW38785   2.105   0.785  12.080
78963SOL    HW138786   2.047   0.813  12.151
78963SOL    HW238787   2.166   0.859  12.068
78964SOL     OW38788   0.420   5.552   8.695
78964SOL    HW138789   0.374   5.543   8.612
78964SOL    HW238790   0.468   5.470   8.705
78965SOL     OW38791   0.878  10.971   8.066
78965SOL    HW138792   0.863  11.046   8.123
78965SOL    HW238793   0.928  10.909   8.119
78966SOL     OW38794   4.887  10.698  14.319
78966SOL    HW138795   4.850  10.609  14.317
78966SOL    HW238796   4.834  10.747  14.256
78967SOL     OW38797   3.060   9.389   1.027
78967SOL    HW138798   2.980   9.365   1.074
78967SOL    HW238799   3.071   9.321   0.961
78968SOL     OW38800   3.411   7.737   8.194
78968SOL    HW138801   3.419   7.646   8.167
78968SOL    HW238802   3.500   7.772   8.187
78969SOL     OW38803   8.897  14.143   0.221
78969SOL    HW138804   8.836  14.210   0.251
78969SOL    HW238805   8.940  14.181   0.145
78970SOL     OW38806  10.150  11.354   7.029
78970SOL    HW138807  10.233  11.307   7.021
78970SOL    HW238808  10.146  11.408   6.950
78971SOL     OW38809   3.240  13.587  12.029
78971SOL    HW138810   3.261  13.623  12.115
78971SOL    HW238811   3.212  13.497  12.048
78972SOL     OW38812   7.227   9.864   6.563
78972SOL    HW138813   7.220   9.926   6.490
78972SOL    HW238814   7.230   9.920   6.641
78973SOL     OW38815   4.797   4.860   8.689
78973SOL    HW138816   4.762   4.920   8.624
78973SOL    HW238817   4.889   4.848   8.665
78974SOL     OW38818   9.744  12.887   5.294
78974SOL    HW138819   9.830  12.897   5.255
78974SOL    HW238820   9.684  12.883   5.219
78975SOL     OW38821   8.991   7.262   7.552
78975SOL    HW138822   9.071   7.286   7.505
78975SOL    HW238823   8.997   7.167   7.562
78976SOL     OW38824   8.785   4.706  11.041
78976SOL    HW138825   8.877   4.681  11.043
78976SOL    HW238826   8.785   4.800  11.057
78977SOL     OW38827   8.660  10.109   7.360
78977SOL    HW138828   8.726  10.177   7.342
78977SOL    HW238829   8.598  10.151   7.418
78978SOL     OW38830   7.056   8.562  12.851
78978SOL    HW138831   7.018   8.502  12.787
78978SOL    HW238832   6.999   8.554  12.928
78979SOL     OW38833   6.937  13.707   1.533
78979SOL    HW138834   6.911  13.676   1.619
78979SOL    HW238835   6.895  13.646   1.472
78980SOL     OW38836   6.650   0.379  13.530
78980SOL    HW138837   6.635   0.298  13.579
78980SOL    HW238838   6.563   0.406  13.501
78981SOL     OW38839  14.835  12.031  13.826
78981SOL    HW138840  14.855  12.068  13.912
78981SOL    HW238841  14.765  12.086  13.792
78982SOL     OW38842   2.739  14.484   4.693
78982SOL    HW138843   2.658  14.434   4.694
78982SOL    HW238844   2.729  14.548   4.764
78983SOL     OW38845   2.547   8.114   5.988
78983SOL    HW138846   2.504   8.125   5.903
78983SOL    HW238847   2.505   8.037   6.026
78984SOL     OW38848   4.957   5.699   4.203
78984SOL    HW138849   5.013   5.627   4.174
78984SOL    HW238850   5.013   5.776   4.199
78985SOL     OW38851   4.038   8.732  11.078
78985SOL    HW138852   4.008   8.642  11.087
78985SOL    HW238853   4.028   8.769  11.166
78986SOL     OW38854   1.392   2.833   5.449
78986SOL    HW138855   1.440   2.752   5.435
78986SOL    HW238856   1.422   2.892   5.379
78987SOL     OW38857  13.540  13.576  10.064
78987SOL    HW138858  13.573  13.529  10.141
78987SOL    HW238859  13.453  13.607  10.091
78988SOL     OW38860   2.794   2.627   9.159
78988SOL    HW138861   2.723   2.594   9.214
78988SOL    HW238862   2.873   2.608   9.209
78989SOL     OW38863  13.863  12.623  11.981
78989SOL    HW138864  13.779  12.578  11.994
78989SOL    HW238865  13.904  12.624  12.068
78990SOL     OW38866   9.776  14.070   8.042
78990SOL    HW138867   9.838  14.044   8.110
78990SOL    HW238868   9.711  14.123   8.087
78991SOL     OW38869   2.673  13.896   7.163
78991SOL    HW138870   2.618  13.896   7.084
78991SOL    HW238871   2.626  13.951   7.225
78992SOL     OW38872   1.557  14.127   6.306
78992SOL    HW138873   1.633  14.160   6.354
78992SOL    HW238874   1.567  14.163   6.218
78993SOL     OW38875  10.540   4.006  13.218
78993SOL    HW138876  10.447   3.983  13.211
78993SOL    HW238877  10.583   3.952  13.152
78994SOL     OW38878  10.701  11.116   6.813
78994SOL    HW138879  10.698  11.028   6.776
78994SOL    HW238880  10.768  11.111   6.881
78995SOL     OW38881   5.905   4.028   7.606
78995SOL    HW138882   5.829   4.076   7.641
78995SOL    HW238883   5.978   4.089   7.615
78996SOL     OW38884  11.634   9.613  11.247
78996SOL    HW138885  11.559   9.622  11.189
78996SOL    HW238886  11.655   9.519  11.246
78997SOL     OW38887  14.465  11.015   1.578
78997SOL    HW138888  14.560  11.025   1.575
78997SOL    HW238889  14.433  11.074   1.510
78998SOL     OW38890   1.409   7.609  10.988
78998SOL    HW138891   1.491   7.592  11.034
78998SOL    HW238892   1.356   7.531  11.005
78999SOL     OW38893   4.744  14.357   4.024
78999SOL    HW138894   4.707  14.268   4.031
78999SOL    HW238895   4.671  14.414   4.049
79000SOL     OW38896  10.496   2.968  11.943
79000SOL    HW138897  10.450   3.034  11.891
79000SOL    HW238898  10.566   2.937  11.886
79001SOL     OW38899   7.668   1.998  13.605
79001SOL    HW138900   7.604   1.988  13.676
79001SOL    HW238901   7.617   2.034  13.532
79002SOL     OW38902  11.083   3.165   9.424
79002SOL    HW138903  11.099   3.215   9.504
79002SOL    HW238904  10.999   3.197   9.393
79003SOL     OW38905   1.365  13.677   6.204
79003SOL    HW138906   1.290  13.707   6.255
79003SOL    HW238907   1.358  13.726   6.122
79004SOL     OW38908  10.707   4.962  14.229
79004SOL    HW138909  10.717   5.041  14.174
79004SOL    HW238910  10.671   4.995  14.311
79005SOL     OW38911   2.909   6.582  11.766
79005SOL    HW138912   3.005   6.587  11.758
79005SOL    HW238913   2.880   6.548  11.681
79006SOL     OW38914   2.961   2.744   5.335
79006SOL    HW138915   3.005   2.724   5.252
79006SOL    HW238916   3.033   2.758   5.397
79007SOL     OW38917   2.160  13.117  13.579
79007SOL    HW138918   2.123  13.187  13.527
79007SOL    HW238919   2.086  13.079  13.626
79008SOL     OW38920  11.992   9.733   2.436
79008SOL    HW138921  12.087   9.726   2.445
79008SOL    HW238922  11.961   9.642   2.439
79009SOL     OW38923  10.251   0.709  11.311
79009SOL    HW138924  10.309   0.736  11.382
79009SOL    HW238925  10.166   0.747  11.334
79010SOL     OW38926  12.840  10.978  13.819
79010SOL    HW138927  12.777  11.050  13.811
79010SOL    HW238928  12.823  10.941  13.906
79011SOL     OW38929  11.099   9.544  12.655
79011SOL    HW138930  11.139   9.535  12.568
79011SOL    HW238931  11.076   9.637  12.662
79012SOL     OW38932   7.095   8.316   4.417
79012SOL    HW138933   7.064   8.244   4.472
79012SOL    HW238934   7.135   8.377   4.479
79013SOL     OW38935   2.687   3.733   9.352
79013SOL    HW138936   2.667   3.751   9.444
79013SOL    HW238937   2.621   3.668   9.326
79014SOL     OW38938  12.037   5.067   8.303
79014SOL    HW138939  12.002   5.057   8.215
79014SOL    HW238940  12.037   5.161   8.319
79015SOL     OW38941   9.651   3.024   5.414
79015SOL    HW138942   9.699   3.105   5.428
79015SOL    HW238943   9.576   3.049   5.361
79016SOL     OW38944   9.552   9.463   0.765
79016SOL    HW138945   9.467   9.420   0.763
79016SOL    HW238946   9.614   9.394   0.787
79017SOL     OW38947   0.237   5.976  10.853
79017SOL    HW138948   0.203   6.042  10.913
79017SOL    HW238949   0.254   6.025  10.772
79018SOL     OW38950  12.040   2.772   8.117
79018SOL    HW138951  12.109   2.826   8.156
79018SOL    HW238952  11.959   2.801   8.160
79019SOL     OW38953   7.665   4.537   0.201
79019SOL    HW138954   7.619   4.578   0.274
79019SOL    HW238955   7.757   4.552   0.219
79020SOL     OW38956   8.712   8.911   1.110
79020SOL    HW138957   8.663   8.899   1.192
79020SOL    HW238958   8.799   8.875   1.128
79021SOL     OW38959  12.915   4.704  12.218
79021SOL    HW138960  12.870   4.631  12.175
79021SOL    HW238961  12.855   4.731  12.288
79022SOL     OW38962   1.728   4.026   2.346
79022SOL    HW138963   1.821   4.012   2.329
79022SOL    HW238964   1.693   4.055   2.261
79023SOL     OW38965   6.021   6.755   6.175
79023SOL    HW138966   5.949   6.700   6.143
79023SOL    HW238967   6.100   6.706   6.153
79024SOL     OW38968  12.014   4.365  11.450
79024SOL    HW138969  12.036   4.453  11.420
79024SOL    HW238970  12.046   4.307  11.381
79025SOL     OW38971  10.818   8.473   8.664
79025SOL    HW138972  10.795   8.381   8.676
79025SOL    HW238973  10.913   8.476   8.675
79026SOL     OW38974  13.837  12.074   1.552
79026SOL    HW138975  13.817  12.010   1.620
79026SOL    HW238976  13.763  12.069   1.492
79027SOL     OW38977   0.489   4.312   4.104
79027SOL    HW138978   0.540   4.355   4.035
79027SOL    HW238979   0.519   4.221   4.103
79028SOL     OW38980   1.049   2.695   4.160
79028SOL    HW138981   1.138   2.661   4.154
79028SOL    HW238982   1.027   2.689   4.253
79029SOL     OW38983   8.907   4.572   5.033
79029SOL    HW138984   8.933   4.661   5.058
79029SOL    HW238985   8.989   4.525   5.021
79030SOL     OW38986   9.509  10.359   8.443
79030SOL    HW138987   9.557  10.395   8.518
79030SOL    HW238988   9.486  10.436   8.390
79031SOL     OW38989   5.137   7.194  12.471
79031SOL    HW138990   5.200   7.219  12.404
79031SOL    HW238991   5.191   7.179  12.550
79032SOL     OW38992  13.312   0.175   7.393
79032SOL    HW138993  13.382   0.122   7.432
79032SOL    HW238994  13.306   0.144   7.303
79033SOL     OW38995  12.183   1.246   7.162
79033SOL    HW138996  12.188   1.269   7.255
79033SOL    HW238997  12.254   1.294   7.122
79034SOL     OW38998   8.574   8.325  11.577
79034SOL    HW138999   8.484   8.355  11.563
79034SOL    HW239000   8.591   8.340  11.670
79035SOL     OW39001  10.492  10.820   3.765
79035SOL    HW139002  10.560  10.836   3.830
79035SOL    HW239003  10.464  10.729   3.780
79036SOL     OW39004  10.051   2.205  13.703
79036SOL    HW139005  10.042   2.123  13.653
79036SOL    HW239006   9.978   2.205  13.764
79037SOL     OW39007  14.313   1.580   3.717
79037SOL    HW139008  14.232   1.549   3.757
79037SOL    HW239009  14.358   1.500   3.690
79038SOL     OW39010   5.429   4.691   0.606
79038SOL    HW139011   5.470   4.771   0.638
79038SOL    HW239012   5.464   4.680   0.517
79039SOL     OW39013   8.649  14.416   2.094
79039SOL    HW139014   8.700  14.389   2.170
79039SOL    HW239015   8.711  14.410   2.021
79040SOL     OW39016  10.348   6.904   0.300
79040SOL    HW139017  10.277   6.841   0.312
79040SOL    HW239018  10.406   6.863   0.235
79041SOL     OW39019   6.346   9.614   8.665
79041SOL    HW139020   6.383   9.606   8.577
79041SOL    HW239021   6.253   9.593   8.654
79042SOL     OW39022   6.344   1.277   8.272
79042SOL    HW139023   6.258   1.319   8.274
79042SOL    HW239024   6.325   1.186   8.250
79043SOL     OW39025  12.463   4.631   9.903
79043SOL    HW139026  12.539   4.687   9.888
79043SOL    HW239027  12.409   4.642   9.825
79044SOL     OW39028   4.243   8.803   4.488
79044SOL    HW139029   4.172   8.820   4.426
79044SOL    HW239030   4.251   8.884   4.538
79045SOL     OW39031   1.297  14.722   8.231
79045SOL    HW139032   1.280  14.643   8.282
79045SOL    HW239033   1.286  14.794   8.293
79046SOL     OW39034  11.030   6.904   0.979
79046SOL    HW139035  11.121   6.874   0.984
79046SOL    HW239036  11.009   6.931   1.069
79047SOL     OW39037  12.510  14.205   4.022
79047SOL    HW139038  12.479  14.193   3.933
79047SOL    HW239039  12.457  14.276   4.057
79048SOL     OW39040   3.897   6.314   3.792
79048SOL    HW139041   3.871   6.274   3.875
79048SOL    HW239042   3.836   6.277   3.728
79049SOL     OW39043   9.680  11.511   4.594
79049SOL    HW139044   9.665  11.523   4.501
79049SOL    HW239045   9.693  11.599   4.628
79050SOL     OW39046   0.833  11.474   6.962
79050SOL    HW139047   0.779  11.414   6.912
79050SOL    HW239048   0.817  11.560   6.923
79051SOL     OW39049   5.564  13.774   7.192
79051SOL    HW139050   5.549  13.688   7.231
79051SOL    HW239051   5.609  13.824   7.260
79052SOL     OW39052   6.788   2.275  11.726
79052SOL    HW139053   6.808   2.241  11.813
79052SOL    HW239054   6.815   2.205  11.666
79053SOL     OW39055   3.031   6.987   1.995
79053SOL    HW139056   3.009   7.039   1.917
79053SOL    HW239057   3.077   6.910   1.960
79054SOL     OW39058   2.820  10.495   3.718
79054SOL    HW139059   2.792  10.577   3.759
79054SOL    HW239060   2.808  10.510   3.624
79055SOL     OW39061   1.482   1.748   7.408
79055SOL    HW139062   1.574   1.739   7.434
79055SOL    HW239063   1.435   1.756   7.491
79056SOL     OW39064   6.787  14.679   9.697
79056SOL    HW139065   6.878  14.707   9.690
79056SOL    HW239066   6.771  14.627   9.618
79057SOL     OW39067  10.893   0.149   9.839
79057SOL    HW139068  10.934   0.216   9.893
79057SOL    HW239069  10.799   0.166   9.847
79058SOL     OW39070  12.520  10.759  10.587
79058SOL    HW139071  12.539  10.829  10.525
79058SOL    HW239072  12.466  10.800  10.654
79059SOL     OW39073   6.153   7.947  10.430
79059SOL    HW139074   6.114   7.944  10.342
79059SOL    HW239075   6.180   8.038  10.442
79060SOL     OW39076   1.662  10.802   5.992
79060SOL    HW139077   1.669  10.707   5.979
79060SOL    HW239078   1.676  10.815   6.086
79061SOL     OW39079   4.511   4.473  12.327
79061SOL    HW139080   4.562   4.475  12.246
79061SOL    HW239081   4.420   4.483  12.299
79062SOL     OW39082  14.294   2.287  11.365
79062SOL    HW139083  14.239   2.264  11.440
79062SOL    HW239084  14.257   2.369  11.333
79063SOL     OW39085   5.656   8.429   1.905
79063SOL    HW139086   5.640   8.397   1.816
79063SOL    HW239087   5.648   8.351   1.960
79064SOL     OW39088  13.977  14.196  12.037
79064SOL    HW139089  13.952  14.174  12.127
79064SOL    HW239090  14.072  14.207  12.040
79065SOL     OW39091   1.620   5.075   4.387
79065SOL    HW139092   1.659   5.138   4.447
79065SOL    HW239093   1.526   5.083   4.401
79066SOL     OW39094   8.876  14.189   9.068
79066SOL    HW139095   8.940  14.235   9.122
79066SOL    HW239096   8.855  14.110   9.117
79067SOL     OW39097   5.118   7.489   7.297
79067SOL    HW139098   5.069   7.557   7.252
79067SOL    HW239099   5.127   7.419   7.233
79068SOL     OW39100   8.425  11.544   8.644
79068SOL    HW139101   8.492  11.572   8.583
79068SOL    HW239102   8.423  11.613   8.710
79069SOL     OW39103   1.796  13.298   6.956
79069SOL    HW139104   1.832  13.269   6.872
79069SOL    HW239105   1.738  13.370   6.934
79070SOL     OW39106  12.610   8.933  14.323
79070SOL    HW139107  12.602   8.872  14.249
79070SOL    HW239108  12.628   9.018  14.282
79071SOL     OW39109   9.257  11.332   3.286
79071SOL    HW139110   9.303  11.364   3.208
79071SOL    HW239111   9.189  11.398   3.303
79072SOL     OW39112   9.209  12.207  11.748
79072SOL    HW139113   9.217  12.126  11.798
79072SOL    HW239114   9.118  12.235  11.762
79073SOL     OW39115   3.217   5.081  11.277
79073SOL    HW139116   3.312   5.089  11.271
79073SOL    HW239117   3.186   5.095  11.188
79074SOL     OW39118   9.077  14.357   4.770
79074SOL    HW139119   9.047  14.303   4.843
79074SOL    HW239120   9.074  14.447   4.803
79075SOL     OW39121   0.945   2.993  12.147
79075SOL    HW139122   0.881   3.055  12.112
79075SOL    HW239123   0.907   2.963  12.229
79076SOL     OW39124   8.840  10.432  11.488
79076SOL    HW139125   8.847  10.484  11.568
79076SOL    HW239126   8.893  10.355  11.503
79077SOL     OW39127   8.869   5.246   2.926
79077SOL    HW139128   8.785   5.201   2.923
79077SOL    HW239129   8.875   5.280   3.015
79078SOL     OW39130  14.462  12.723   5.585
79078SOL    HW139131  14.402  12.722   5.510
79078SOL    HW239132  14.501  12.810   5.583
79079SOL     OW39133   9.956   3.299   1.931
79079SOL    HW139134   9.934   3.216   1.889
79079SOL    HW239135   9.872   3.336   1.957
79080SOL     OW39136  10.716  10.039   7.309
79080SOL    HW139137  10.777  10.092   7.256
79080SOL    HW239138  10.742  10.056   7.399
79081SOL     OW39139   3.512  11.086   1.883
79081SOL    HW139140   3.523  11.149   1.954
79081SOL    HW239141   3.555  11.007   1.915
79082SOL     OW39142   5.011  14.656   2.127
79082SOL    HW139143   5.024  14.643   2.221
79082SOL    HW239144   4.947  14.726   2.121
79083SOL     OW39145   4.863  11.559   6.945
79083SOL    HW139146   4.821  11.644   6.933
79083SOL    HW239147   4.810  11.515   7.012
79084SOL     OW39148   5.411   5.955   2.699
79084SOL    HW139149   5.487   5.983   2.749
79084SOL    HW239150   5.344   5.935   2.765
79085SOL     OW39151  12.334   3.957  12.299
79085SOL    HW139152  12.253   4.007  12.305
79085SOL    HW239153  12.382   3.997  12.226
79086SOL     OW39154  13.057   1.604   9.399
79086SOL    HW139155  13.069   1.510   9.384
79086SOL    HW239156  12.966   1.620   9.372
79087SOL     OW39157   5.762  13.035   8.381
79087SOL    HW139158   5.674  13.050   8.346
79087SOL    HW239159   5.775  13.105   8.444
79088SOL     OW39160   0.811   6.527   6.613
79088SOL    HW139161   0.717   6.531   6.630
79088SOL    HW239162   0.851   6.555   6.695
79089SOL     OW39163   8.818   0.057   9.007
79089SOL    HW139164   8.742   0.077   9.062
79089SOL    HW239165   8.843   0.141   8.970
79090SOL     OW39166   1.450  14.817   2.814
79090SOL    HW139167   1.409  14.855   2.737
79090SOL    HW239168   1.523  14.765   2.779
79091SOL     OW39169   3.889  13.033   0.391
79091SOL    HW139170   3.890  12.998   0.480
79091SOL    HW239171   3.886  13.128   0.402
79092SOL     OW39172  13.987   9.585  10.385
79092SOL    HW139173  13.980   9.494  10.414
79092SOL    HW239174  14.018   9.579  10.295
79093SOL     OW39175   5.378   6.951   8.329
79093SOL    HW139176   5.372   6.869   8.280
79093SOL    HW239177   5.416   7.014   8.268
79094SOL     OW39178   6.243   6.112   8.754
79094SOL    HW139179   6.293   6.122   8.673
79094SOL    HW239180   6.309   6.106   8.822
79095SOL     OW39181  10.453  13.421   8.332
79095SOL    HW139182  10.422  13.438   8.243
79095SOL    HW239183  10.490  13.505   8.361
79096SOL     OW39184  10.967   4.888   6.993
79096SOL    HW139185  10.892   4.830   7.005
79096SOL    HW239186  11.012   4.887   7.077
79097SOL     OW39187   3.900   0.527  11.587
79097SOL    HW139188   3.835   0.517  11.518
79097SOL    HW239189   3.869   0.470  11.658
79098SOL     OW39190   8.819   3.366  10.228
79098SOL    HW139191   8.830   3.364  10.133
79098SOL    HW239192   8.819   3.459  10.251
79099SOL     OW39193   7.731  14.839  11.464
79099SOL    HW139194   7.658  14.779  11.483
79099SOL    HW239195   7.717  14.866  11.374
79100SOL     OW39196  11.995   3.767   6.026
79100SOL    HW139197  12.016   3.846   6.077
79100SOL    HW239198  11.899   3.767   6.022
79101SOL     OW39199   7.275  11.289  14.830
79101SOL    HW139200   7.336  11.343  14.779
79101SOL    HW239201   7.196  11.343  14.838
79102SOL     OW39202   3.053  13.954   5.605
79102SOL    HW139203   3.105  13.959   5.685
79102SOL    HW239204   3.116  13.931   5.537
79103SOL     OW39205   5.656  13.090  14.740
79103SOL    HW139206   5.660  13.107  14.646
79103SOL    HW239207   5.721  13.148  14.779
79104SOL     OW39208   5.078  12.406   6.551
79104SOL    HW139209   5.107  12.467   6.483
79104SOL    HW239210   5.061  12.324   6.504
79105SOL     OW39211   8.873   2.279   3.264
79105SOL    HW139212   8.903   2.364   3.295
79105SOL    HW239213   8.839   2.296   3.176
79106SOL     OW39214  11.957  14.128   0.887
79106SOL    HW139215  11.923  14.137   0.975
79106SOL    HW239216  12.010  14.207   0.873
79107SOL     OW39217   6.809   5.747   9.626
79107SOL    HW139218   6.795   5.661   9.585
79107SOL    HW239219   6.722   5.777   9.650
79108SOL     OW39220   4.972   5.025   6.756
79108SOL    HW139221   4.911   4.954   6.775
79108SOL    HW239222   4.948   5.095   6.817
79109SOL     OW39223   4.902   1.639  12.374
79109SOL    HW139224   4.852   1.604  12.447
79109SOL    HW239225   4.839   1.694  12.327
79110SOL     OW39226   1.966   9.060   6.658
79110SOL    HW139227   1.872   9.063   6.670
79110SOL    HW239228   1.984   8.972   6.625
79111SOL     OW39229  10.556   7.578   3.375
79111SOL    HW139230  10.608   7.537   3.305
79111SOL    HW239231  10.481   7.520   3.386
79112SOL     OW39232   5.665   4.126   7.323
79112SOL    HW139233   5.628   4.184   7.257
79112SOL    HW239234   5.664   4.177   7.404
79113SOL     OW39235  11.144  14.691   7.244
79113SOL    HW139236  11.111  14.601   7.243
79113SOL    HW239237  11.190  14.701   7.161
79114SOL     OW39238   8.753  14.064  13.600
79114SOL    HW139239   8.779  14.020  13.519
79114SOL    HW239240   8.743  13.993  13.663
79115SOL     OW39241   6.764   9.048  11.605
79115SOL    HW139242   6.685   8.997  11.619
79115SOL    HW239243   6.825   8.987  11.563
79116SOL     OW39244   5.402  12.189   3.116
79116SOL    HW139245   5.488  12.164   3.149
79116SOL    HW239246   5.385  12.274   3.157
79117SOL     OW39247   0.333  11.606   1.991
79117SOL    HW139248   0.313  11.513   1.984
79117SOL    HW239249   0.256  11.649   1.952
79118SOL     OW39250  10.325   8.874  11.091
79118SOL    HW139251  10.237   8.836  11.089
79118SOL    HW239252  10.339   8.909  11.003
79119SOL     OW39253   1.324  14.365   6.833
79119SOL    HW139254   1.330  14.459   6.846
79119SOL    HW239255   1.332  14.353   6.738
79120SOL     OW39256   1.864   3.050   8.515
79120SOL    HW139257   1.888   2.966   8.555
79120SOL    HW239258   1.948   3.091   8.496
79121SOL     OW39259   1.327   9.052  12.118
79121SOL    HW139260   1.410   9.081  12.156
79121SOL    HW239261   1.279   9.014  12.192
79122SOL     OW39262  10.226   0.989  13.358
79122SOL    HW139263  10.290   1.010  13.290
79122SOL    HW239264  10.194   0.902  13.334
79123SOL     OW39265   8.297  12.340   3.699
79123SOL    HW139266   8.243  12.368   3.772
79123SOL    HW239267   8.298  12.244   3.704
79124SOL     OW39268   2.841  12.612   2.390
79124SOL    HW139269   2.908  12.600   2.323
79124SOL    HW239270   2.889  12.616   2.472
79125SOL     OW39271  13.976   0.658   7.937
79125SOL    HW139272  13.960   0.649   7.843
79125SOL    HW239273  14.070   0.674   7.943
79126SOL     OW39274   3.146   6.717  13.852
79126SOL    HW139275   3.077   6.735  13.916
79126SOL    HW239276   3.167   6.625  13.865
79127SOL     OW39277   9.331  14.845  14.178
79127SOL    HW139278   9.333  14.769  14.235
79127SOL    HW239279   9.422   0.005  14.173
79128SOL     OW39280  11.409  13.799  13.976
79128SOL    HW139281  11.493  13.832  13.944
79128SOL    HW239282  11.430  13.713  14.013
79129SOL     OW39283  13.718   4.856   0.129
79129SOL    HW139284  13.682   4.935   0.087
79129SOL    HW239285  13.641   4.802   0.148
79130SOL     OW39286  12.039   6.774  14.492
79130SOL    HW139287  11.974   6.705  14.492
79130SOL    HW239288  11.998   6.846  14.443
79131SOL     OW39289  11.284   2.815   0.998
79131SOL    HW139290  11.278   2.882   1.066
79131SOL    HW239291  11.298   2.734   1.046
79132SOL     OW39292   5.870   4.746   1.872
79132SOL    HW139293   5.940   4.723   1.933
79132SOL    HW239294   5.800   4.684   1.891
79133SOL     OW39295  10.775   8.295   4.763
79133SOL    HW139296  10.746   8.333   4.680
79133SOL    HW239297  10.842   8.355   4.794
79134SOL     OW39298  14.456  11.464   5.016
79134SOL    HW139299  14.425  11.530   5.078
79134SOL    HW239300  14.548  11.485   5.002
79135SOL     OW39301   7.902  11.651   9.591
79135SOL    HW139302   7.976  11.684   9.642
79135SOL    HW239303   7.939  11.633   9.505
79136SOL     OW39304   1.744   4.688   5.471
79136SOL    HW139305   1.823   4.741   5.465
79136SOL    HW239306   1.775   4.598   5.463
79137SOL     OW39307  13.173  14.577  13.301
79137SOL    HW139308  13.249  14.580  13.243
79137SOL    HW239309  13.110  14.637  13.261
79138SOL     OW39310  10.374   2.435   3.924
79138SOL    HW139311  10.413   2.513   3.962
79138SOL    HW239312  10.279   2.450   3.931
79139SOL     OW39313   6.845  13.643   5.216
79139SOL    HW139314   6.861  13.638   5.121
79139SOL    HW239315   6.752  13.667   5.223
79140SOL     OW39316   9.246  12.167  13.523
79140SOL    HW139317   9.323  12.132  13.568
79140SOL    HW239318   9.272  12.255  13.496
79141SOL     OW39319  10.599   6.262  11.104
79141SOL    HW139320  10.674   6.290  11.156
79141SOL    HW239321  10.636   6.212  11.032
79142SOL     OW39322   4.980   8.577   7.447
79142SOL    HW139323   5.033   8.622   7.514
79142SOL    HW239324   5.031   8.500   7.424
79143SOL     OW39325   1.890   4.097   5.565
79143SOL    HW139326   1.942   4.021   5.540
79143SOL    HW239327   1.888   4.151   5.486
79144SOL     OW39328   0.504  12.451   4.666
79144SOL    HW139329   0.426  12.490   4.707
79144SOL    HW239330   0.477  12.435   4.576
79145SOL     OW39331  14.700  11.268   2.550
79145SOL    HW139332  14.768  11.244   2.614
79145SOL    HW239333  14.619  11.234   2.588
79146SOL     OW39334   1.654   3.804   6.592
79146SOL    HW139335   1.623   3.886   6.631
79146SOL    HW239336   1.748   3.816   6.582
79147SOL     OW39337  10.245  11.534   3.397
79147SOL    HW139338  10.179  11.560   3.332
79147SOL    HW239339  10.326  11.573   3.366
79148SOL     OW39340  10.322   6.640   9.354
79148SOL    HW139341  10.236   6.630   9.397
79148SOL    HW239342  10.300   6.662   9.264
79149SOL     OW39343   8.965   6.472   2.588
79149SOL    HW139344   8.883   6.494   2.542
79149SOL    HW239345   8.945   6.484   2.680
79150SOL     OW39346  13.315  11.863   7.445
79150SOL    HW139347  13.335  11.919   7.370
79150SOL    HW239348  13.223  11.881   7.464
79151SOL     OW39349   3.193  14.436   8.463
79151SOL    HW139350   3.189  14.367   8.530
79151SOL    HW239351   3.131  14.409   8.397
79152SOL     OW39352   1.898   2.965  10.430
79152SOL    HW139353   1.953   3.000  10.500
79152SOL    HW239354   1.846   3.040  10.400
79153SOL     OW39355   8.309   7.649   5.300
79153SOL    HW139356   8.216   7.645   5.278
79153SOL    HW239357   8.330   7.742   5.299
79154SOL     OW39358  14.829   8.518   0.583
79154SOL    HW139359  14.825   8.598   0.636
79154SOL    HW239360  14.843   8.448   0.647
79155SOL     OW39361   9.386   7.605   8.747
79155SOL    HW139362   9.441   7.536   8.710
79155SOL    HW239363   9.407   7.683   8.695
79156SOL     OW39364   4.034   2.107   9.005
79156SOL    HW139365   4.125   2.130   8.988
79156SOL    HW239366   4.016   2.144   9.092
79157SOL     OW39367   2.729   6.366  10.087
79157SOL    HW139368   2.691   6.279  10.075
79157SOL    HW239369   2.654   6.423  10.107
79158SOL     OW39370  10.481   4.614   6.793
79158SOL    HW139371  10.532   4.545   6.750
79158SOL    HW239372  10.390   4.586   6.782
79159SOL     OW39373   5.949  10.104   0.065
79159SOL    HW139374   6.017  10.100  14.867
79159SOL    HW239375   5.936  10.012   0.092
79160SOL     OW39376   3.502   5.370  10.488
79160SOL    HW139377   3.528   5.424  10.414
79160SOL    HW239378   3.542   5.285  10.471
79161SOL     OW39379   3.225   7.806   7.873
79161SOL    HW139380   3.174   7.857   7.810
79161SOL    HW239381   3.160   7.758   7.923
79162SOL     OW39382   0.139  12.206   6.643
79162SOL    HW139383   0.228  12.236   6.664
79162SOL    HW239384   0.084  12.283   6.656
79163SOL     OW39385  12.977  13.628   8.294
79163SOL    HW139386  12.919  13.572   8.242
79163SOL    HW239387  12.979  13.586   8.380
79164SOL     OW39388   6.672   3.674   7.883
79164SOL    HW139389   6.751   3.725   7.897
79164SOL    HW239390   6.642   3.699   7.795
79165SOL     OW39391   1.280   1.580   4.076
79165SOL    HW139392   1.307   1.494   4.109
79165SOL    HW239393   1.229   1.619   4.146
79166SOL     OW39394   1.288   3.755  10.717
79166SOL    HW139395   1.209   3.708  10.691
79166SOL    HW239396   1.302   3.820  10.649
79167SOL     OW39397   6.130   3.182  14.223
79167SOL    HW139398   6.054   3.127  14.206
79167SOL    HW239399   6.094   3.271  14.229
79168SOL     OW39400   0.818  14.168   1.256
79168SOL    HW139401   0.865  14.130   1.330
79168SOL    HW239402   0.809  14.261   1.280
79169SOL     OW39403   4.960   9.375  14.712
79169SOL    HW139404   4.941   9.330  14.794
79169SOL    HW239405   5.055   9.382  14.709
79170SOL     OW39406  11.879  12.702  12.938
79170SOL    HW139407  11.833  12.763  12.881
79170SOL    HW239408  11.815  12.678  13.005
79171SOL     OW39409   3.781   6.151  12.456
79171SOL    HW139410   3.745   6.097  12.526
79171SOL    HW239411   3.795   6.236  12.496
79172SOL     OW39412  10.571   4.193  10.529
79172SOL    HW139413  10.521   4.115  10.555
79172SOL    HW239414  10.519   4.267  10.562
79173SOL     OW39415  12.097   6.189  11.698
79173SOL    HW139416  12.058   6.127  11.758
79173SOL    HW239417  12.027   6.250  11.676
79174SOL     OW39418  13.729  13.831   9.762
79174SOL    HW139419  13.781  13.887   9.820
79174SOL    HW239420  13.787  13.815   9.687
79175SOL     OW39421   5.331  13.459   9.640
79175SOL    HW139422   5.246  13.497   9.659
79175SOL    HW239423   5.313  13.367   9.618
79176SOL     OW39424   8.707  14.025   5.023
79176SOL    HW139425   8.622  14.036   5.066
79176SOL    HW239426   8.758  14.101   5.052
79177SOL     OW39427  14.726   8.183  14.790
79177SOL    HW139428  14.779   8.258  14.763
79177SOL    HW239429  14.637   8.217  14.798
79178SOL     OW39430  10.141  14.397   4.973
79178SOL    HW139431  10.080  14.329   5.001
79178SOL    HW239432  10.115  14.475   5.021
79179SOL     OW39433  11.757   6.119  13.955
79179SOL    HW139434  11.715   6.059  14.016
79179SOL    HW239435  11.826   6.068  13.913
79180SOL     OW39436  13.941   5.443   8.119
79180SOL    HW139437  13.886   5.412   8.048
79180SOL    HW239438  14.010   5.494   8.077
79181SOL     OW39439  10.155   9.927   5.879
79181SOL    HW139440  10.177   9.928   5.972
79181SOL    HW239441  10.223   9.872   5.839
79182SOL     OW39442   0.393  11.689   2.597
79182SOL    HW139443   0.361  11.742   2.523
79182SOL    HW239444   0.341  11.609   2.593
79183SOL     OW39445   9.759   9.157   5.189
79183SOL    HW139446   9.685   9.171   5.248
79183SOL    HW239447   9.724   9.176   5.102
79184SOL     OW39448  14.817  11.270  13.070
79184SOL    HW139449  14.817  11.330  13.145
79184SOL    HW239450   0.023  11.298  13.017
79185SOL     OW39451  12.470  11.673   8.510
79185SOL    HW139452  12.484  11.597   8.566
79185SOL    HW239453  12.380  11.700   8.527
79186SOL     OW39454   2.806   6.661   1.575
79186SOL    HW139455   2.846   6.729   1.629
79186SOL    HW239456   2.724   6.640   1.619
79187SOL     OW39457   4.303  10.033   0.949
79187SOL    HW139458   4.370   9.977   0.988
79187SOL    HW239459   4.339  10.059   0.864
79188SOL     OW39460  13.096   6.153   0.021
79188SOL    HW139461  13.170   6.206   0.052
79188SOL    HW239462  13.026   6.217   0.006
79189SOL     OW39463   1.536   3.169  11.505
79189SOL    HW139464   1.572   3.198  11.421
79189SOL    HW239465   1.476   3.098  11.481
79190SOL     OW39466  14.240  13.598   4.408
79190SOL    HW139467  14.169  13.584   4.471
79190SOL    HW239468  14.294  13.666   4.448
79191SOL     OW39469  10.416   4.599   9.495
79191SOL    HW139470  10.468   4.610   9.416
79191SOL    HW239471  10.336   4.555   9.466
79192SOL     OW39472   7.013   2.457  11.583
79192SOL    HW139473   6.944   2.391  11.592
79192SOL    HW239474   7.062   2.452  11.665
79193SOL     OW39475   7.926  10.968   2.278
79193SOL    HW139476   7.954  10.938   2.191
79193SOL    HW239477   7.893  11.056   2.264
79194SOL     OW39478   3.821  13.488   3.830
79194SOL    HW139479   3.827  13.470   3.924
79194SOL    HW239480   3.901  13.452   3.794
79195SOL     OW39481   4.563   9.577   9.909
79195SOL    HW139482   4.607   9.621   9.981
79195SOL    HW239483   4.600   9.617   9.830
79196SOL     OW39484   5.269   9.646   8.949
79196SOL    HW139485   5.237   9.685   9.031
79196SOL    HW239486   5.211   9.681   8.882
79197SOL     OW39487   5.340   0.086   1.315
79197SOL    HW139488   5.335   0.172   1.357
79197SOL    HW239489   5.252   0.071   1.280
79198SOL     OW39490   8.083   9.168   9.658
79198SOL    HW139491   8.157   9.228   9.652
79198SOL    HW239492   8.121   9.085   9.687
79199SOL     OW39493   8.088   2.652  13.213
79199SOL    HW139494   8.045   2.709  13.149
79199SOL    HW239495   8.174   2.692  13.226
79200SOL     OW39496   9.797   9.907  10.828
79200SOL    HW139497   9.789   9.938  10.918
79200SOL    HW239498   9.791   9.986  10.774
79201SOL     OW39499  13.144  10.177   0.332
79201SOL    HW139500  13.097  10.255   0.361
79201SOL    HW239501  13.089  10.140   0.263
79202SOL     OW39502  14.237  14.847   0.136
79202SOL    HW139503  14.150   0.013   0.156
79202SOL    HW239504  14.297   0.050   0.157
79203SOL     OW39505  10.305  12.328  12.955
79203SOL    HW139506  10.245  12.296  12.887
79203SOL    HW239507  10.371  12.260  12.963
79204SOL     OW39508  10.536   5.200  13.609
79204SOL    HW139509  10.487   5.163  13.536
79204SOL    HW239510  10.533   5.133  13.677
79205SOL     OW39511  11.898   9.349  12.125
79205SOL    HW139512  11.841   9.329  12.051
79205SOL    HW239513  11.901   9.267  12.175
79206SOL     OW39514   6.206   7.850  13.763
79206SOL    HW139515   6.223   7.782  13.828
79206SOL    HW239516   6.242   7.815  13.681
79207SOL     OW39517  10.794  13.851   9.954
79207SOL    HW139518  10.723  13.915   9.967
79207SOL    HW239519  10.873  13.904   9.950
79208SOL     OW39520  12.987   2.031  11.745
79208SOL    HW139521  12.901   1.998  11.769
79208SOL    HW239522  13.049   1.976  11.793
79209SOL     OW39523   2.903   7.047  10.505
79209SOL    HW139524   2.819   7.082  10.536
79209SOL    HW239525   2.924   7.098  10.427
79210SOL     OW39526   1.676   6.218  10.256
79210SOL    HW139527   1.587   6.230  10.224
79210SOL    HW239528   1.666   6.163  10.334
79211SOL     OW39529   2.334  13.081  11.413
79211SOL    HW139530   2.415  13.035  11.391
79211SOL    HW239531   2.341  13.100  11.507
79212SOL     OW39532   5.877  12.827   7.268
79212SOL    HW139533   5.886  12.880   7.346
79212SOL    HW239534   5.942  12.861   7.207
79213SOL     OW39535  10.338   6.939   4.454
79213SOL    HW139536  10.392   6.891   4.516
79213SOL    HW239537  10.391   6.943   4.374
79214SOL     OW39538  12.512   5.505   5.485
79214SOL    HW139539  12.606   5.522   5.477
79214SOL    HW239540  12.471   5.568   5.426
79215SOL     OW39541   1.540  13.855  14.008
79215SOL    HW139542   1.591  13.897  14.077
79215SOL    HW239543   1.605  13.810  13.954
79216SOL     OW39544  11.940   8.537  11.745
79216SOL    HW139545  11.852   8.529  11.707
79216SOL    HW239546  11.963   8.448  11.771
79217SOL     OW39547  13.525  14.316   1.499
79217SOL    HW139548  13.555  14.308   1.408
79217SOL    HW239549  13.430  14.316   1.493
79218SOL     OW39550   1.392   2.199  11.818
79218SOL    HW139551   1.298   2.214  11.828
79218SOL    HW239552   1.430   2.287  11.812
79219SOL     OW39553  14.185   7.671   2.637
79219SOL    HW139554  14.164   7.585   2.601
79219SOL    HW239555  14.241   7.712   2.571
79220SOL     OW39556   4.114   3.002   1.010
79220SOL    HW139557   4.055   3.075   0.990
79220SOL    HW239558   4.113   2.949   0.930
79221SOL     OW39559  11.869  14.216  11.233
79221SOL    HW139560  11.820  14.287  11.273
79221SOL    HW239561  11.868  14.146  11.298
79222SOL     OW39562   8.932   9.479  10.958
79222SOL    HW139563   8.857   9.533  10.982
79222SOL    HW239564   8.941   9.490  10.863
79223SOL     OW39565   8.797   8.827   2.103
79223SOL    HW139566   8.839   8.766   2.163
79223SOL    HW239567   8.704   8.803   2.106
79224SOL     OW39568  12.136  14.561   0.995
79224SOL    HW139569  12.209  14.618   1.020
79224SOL    HW239570  12.076  14.564   1.069
79225SOL     OW39571   1.448   5.868   6.109
79225SOL    HW139572   1.448   5.865   6.205
79225SOL    HW239573   1.379   5.930   6.087
79226SOL     OW39574   7.224  12.502   5.098
79226SOL    HW139575   7.224  12.571   5.164
79226SOL    HW239576   7.205  12.422   5.147
79227SOL     OW39577  11.390  10.398   7.636
79227SOL    HW139578  11.312  10.379   7.585
79227SOL    HW239579  11.375  10.486   7.672
79228SOL     OW39580   5.345   9.056   0.922
79228SOL    HW139581   5.413   8.991   0.910
79228SOL    HW239582   5.378   9.135   0.880
79229SOL     OW39583  13.243   2.565  14.686
79229SOL    HW139584  13.317   2.505  14.682
79229SOL    HW239585  13.169   2.510  14.710
79230SOL     OW39586  10.185   7.925   1.173
79230SOL    HW139587  10.276   7.924   1.204
79230SOL    HW239588  10.146   8.001   1.215
79231SOL     OW39589   8.697   2.618  12.795
79231SOL    HW139590   8.772   2.665  12.759
79231SOL    HW239591   8.627   2.683  12.800
79232SOL     OW39592  12.398   0.729  14.070
79232SOL    HW139593  12.414   0.673  14.147
79232SOL    HW239594  12.455   0.693  14.002
79233SOL     OW39595   6.241   9.277   2.206
79233SOL    HW139596   6.269   9.217   2.137
79233SOL    HW239597   6.201   9.350   2.159
79234SOL     OW39598  11.333   0.624   8.039
79234SOL    HW139599  11.300   0.634   8.128
79234SOL    HW239600  11.350   0.714   8.009
79235SOL     OW39601   5.518   9.563  12.745
79235SOL    HW139602   5.487   9.499  12.809
79235SOL    HW239603   5.465   9.547  12.667
79236SOL     OW39604   8.410  11.303   7.963
79236SOL    HW139605   8.367  11.337   8.042
79236SOL    HW239606   8.421  11.380   7.907
79237SOL     OW39607   6.593   8.865   4.452
79237SOL    HW139608   6.616   8.781   4.491
79237SOL    HW239609   6.614   8.930   4.519
79238SOL     OW39610   3.909   5.448   0.723
79238SOL    HW139611   3.872   5.508   0.788
79238SOL    HW239612   3.989   5.492   0.694
79239SOL     OW39613   1.636   9.103   2.639
79239SOL    HW139614   1.568   9.060   2.692
79239SOL    HW239615   1.664   9.035   2.577
79240SOL     OW39616   2.866  10.198   6.020
79240SOL    HW139617   2.912  10.177   5.938
79240SOL    HW239618   2.775  10.173   6.004
79241SOL     OW39619   7.519  11.537   1.085
79241SOL    HW139620   7.598  11.590   1.072
79241SOL    HW239621   7.540  11.453   1.045
79242SOL     OW39622   5.378  10.186   5.809
79242SOL    HW139623   5.361  10.161   5.718
79242SOL    HW239624   5.308  10.247   5.831
79243SOL     OW39625   3.276   1.866   8.783
79243SOL    HW139626   3.349   1.879   8.844
79243SOL    HW239627   3.254   1.954   8.753
79244SOL     OW39628   9.263  11.878  13.753
79244SOL    HW139629   9.338  11.934  13.731
79244SOL    HW239630   9.187  11.930  13.729
79245SOL     OW39631   1.643   7.445  11.764
79245SOL    HW139632   1.680   7.518  11.713
79245SOL    HW239633   1.676   7.366  11.720
79246SOL     OW39634   9.753   4.588   7.018
79246SOL    HW139635   9.786   4.510   7.062
79246SOL    HW239636   9.716   4.642   7.088
79247SOL     OW39637  10.597   4.348   7.628
79247SOL    HW139638  10.576   4.271   7.574
79247SOL    HW239639  10.514   4.395   7.636
79248SOL     OW39640   4.794   6.449  13.450
79248SOL    HW139641   4.839   6.365  13.440
79248SOL    HW239642   4.838   6.491  13.524
79249SOL     OW39643  13.819   1.856  11.126
79249SOL    HW139644  13.894   1.916  11.129
79249SOL    HW239645  13.822   1.818  11.038
79250SOL     OW39646   3.603   1.726  13.823
79250SOL    HW139647   3.580   1.818  13.814
79250SOL    HW239648   3.696   1.727  13.844
79251SOL     OW39649  13.884   6.175   2.311
79251SOL    HW139650  13.974   6.152   2.291
79251SOL    HW239651  13.837   6.164   2.228
79252SOL     OW39652   0.687  13.320   4.819
79252SOL    HW139653   0.748  13.249   4.836
79252SOL    HW239654   0.690  13.375   4.897
79253SOL     OW39655  11.266   7.858  10.445
79253SOL    HW139656  11.210   7.932  10.472
79253SOL    HW239657  11.208   7.802  10.395
79254SOL     OW39658   8.386  13.383   9.070
79254SOL    HW139659   8.455  13.447   9.053
79254SOL    HW239660   8.404  13.352   9.159
79255SOL     OW39661   8.921   3.252  11.016
79255SOL    HW139662   8.829   3.280  11.014
79255SOL    HW239663   8.933   3.203  10.935
79256SOL     OW39664   2.414   8.536   6.325
79256SOL    HW139665   2.470   8.505   6.254
79256SOL    HW239666   2.393   8.627   6.302
79257SOL     OW39667  10.751   1.111   0.108
79257SOL    HW139668  10.791   1.062   0.036
79257SOL    HW239669  10.810   1.096   0.182
79258SOL     OW39670   2.565   8.246  14.349
79258SOL    HW139671   2.656   8.258  14.376
79258SOL    HW239672   2.546   8.154  14.368
79259SOL     OW39673   5.872   1.305   7.465
79259SOL    HW139674   5.852   1.227   7.413
79259SOL    HW239675   5.790   1.327   7.508
79260SOL     OW39676   8.326  14.073   6.480
79260SOL    HW139677   8.346  13.980   6.486
79260SOL    HW239678   8.282  14.093   6.563
79261SOL     OW39679   5.761   3.784   4.084
79261SOL    HW139680   5.742   3.691   4.095
79261SOL    HW239681   5.800   3.790   3.997
79262SOL     OW39682   1.556   3.166  11.794
79262SOL    HW139683   1.546   3.187  11.702
79262SOL    HW239684   1.477   3.116  11.817
79263SOL     OW39685  14.273   6.167   6.374
79263SOL    HW139686  14.296   6.075   6.380
79263SOL    HW239687  14.226   6.175   6.291
79264SOL     OW39688  14.127   5.946   8.491
79264SOL    HW139689  14.140   5.877   8.426
79264SOL    HW239690  14.185   6.016   8.463
79265SOL     OW39691   5.808  14.781   0.801
79265SOL    HW139692   5.815  14.708   0.862
79265SOL    HW239693   5.884  14.771   0.743
79266SOL     OW39694   2.031   4.787   0.369
79266SOL    HW139695   2.118   4.748   0.375
79266SOL    HW239696   1.973   4.722   0.410
79267SOL     OW39697   2.935   2.662   2.989
79267SOL    HW139698   2.908   2.633   3.077
79267SOL    HW239699   3.028   2.642   2.985
79268SOL     OW39700  13.032   3.286   6.603
79268SOL    HW139701  13.082   3.213   6.567
79268SOL    HW239702  13.030   3.350   6.532
79269SOL     OW39703   8.281   1.098   5.400
79269SOL    HW139704   8.259   1.183   5.361
79269SOL    HW239705   8.344   1.119   5.470
79270SOL     OW39706   6.433   6.187   8.967
79270SOL    HW139707   6.451   6.246   9.040
79270SOL    HW239708   6.494   6.115   8.978
79271SOL     OW39709   4.547  10.222  10.803
79271SOL    HW139710   4.594  10.245  10.883
79271SOL    HW239711   4.525  10.306  10.763
79272SOL     OW39712  14.047   8.838  13.202
79272SOL    HW139713  14.036   8.901  13.274
79272SOL    HW239714  14.140   8.842  13.181
79273SOL     OW39715  13.026  13.066   4.461
79273SOL    HW139716  13.024  13.160   4.442
79273SOL    HW239717  12.943  13.049   4.506
79274SOL     OW39718  14.639   7.169   4.031
79274SOL    HW139719  14.652   7.190   4.124
79274SOL    HW239720  14.689   7.236   3.984
79275SOL     OW39721   7.115  10.037   1.363
79275SOL    HW139722   7.142  10.118   1.406
79275SOL    HW239723   7.103   9.974   1.435
79276SOL     OW39724   5.445  14.548   4.639
79276SOL    HW139725   5.402  14.518   4.559
79276SOL    HW239726   5.398  14.505   4.709
79277SOL     OW39727   7.331   2.158  13.467
79277SOL    HW139728   7.345   2.236  13.520
79277SOL    HW239729   7.386   2.172  13.390
79278SOL     OW39730   1.631   5.011   6.969
79278SOL    HW139731   1.652   4.962   6.889
79278SOL    HW239732   1.548   4.975   6.999
79279SOL     OW39733   7.019  14.131   4.857
79279SOL    HW139734   6.941  14.075   4.860
79279SOL    HW239735   7.070  14.097   4.784
79280SOL     OW39736  11.466   5.746  11.390
79280SOL    HW139737  11.537   5.716  11.333
79280SOL    HW239738  11.503   5.740  11.478
79281SOL     OW39739  11.996  11.870  13.883
79281SOL    HW139740  12.060  11.940  13.866
79281SOL    HW239741  12.050  11.794  13.908
79282SOL     OW39742  13.371  11.030   0.027
79282SOL    HW139743  13.313  11.107   0.027
79282SOL    HW239744  13.324  10.966   0.081
79283SOL     OW39745   9.837   4.984   5.838
79283SOL    HW139746   9.824   5.056   5.776
79283SOL    HW239747   9.751   4.971   5.878
79284SOL     OW39748  13.327   6.652   0.783
79284SOL    HW139749  13.240   6.657   0.821
79284SOL    HW239750  13.353   6.560   0.793
79285SOL     OW39751   4.445  10.350   3.920
79285SOL    HW139752   4.367  10.391   3.883
79285SOL    HW239753   4.489  10.420   3.968
79286SOL     OW39754   1.544   5.094   2.194
79286SOL    HW139755   1.457   5.084   2.156
79286SOL    HW239756   1.536   5.169   2.254
79287SOL     OW39757   9.803   2.281   8.589
79287SOL    HW139758   9.780   2.289   8.681
79287SOL    HW239759   9.885   2.330   8.580
79288SOL     OW39760   3.180   7.617   6.929
79288SOL    HW139761   3.195   7.618   7.024
79288SOL    HW239762   3.089   7.644   6.919
79289SOL     OW39763   4.718   5.734  11.358
79289SOL    HW139764   4.674   5.817  11.373
79289SOL    HW239765   4.658   5.684  11.302
79290SOL     OW39766  14.707   8.710   1.343
79290SOL    HW139767  14.788   8.659   1.336
79290SOL    HW239768  14.725   8.790   1.295
79291SOL     OW39769   4.653   6.099  11.240
79291SOL    HW139770   4.607   6.167  11.190
79291SOL    HW239771   4.746   6.117  11.223
79292SOL     OW39772   0.702   1.857   0.037
79292SOL    HW139773   0.759   1.921  14.865
79292SOL    HW239774   0.723   1.863   0.130
79293SOL     OW39775  13.298  12.211   4.441
79293SOL    HW139776  13.267  12.156   4.512
79293SOL    HW239777  13.280  12.162   4.361
79294SOL     OW39778  13.461  12.895  10.950
79294SOL    HW139779  13.484  12.855  11.034
79294SOL    HW239780  13.394  12.959  10.972
79295SOL     OW39781   5.006   7.970   3.363
79295SOL    HW139782   4.947   8.027   3.413
79295SOL    HW239783   5.093   7.991   3.396
79296SOL     OW39784   5.410  10.775   2.706
79296SOL    HW139785   5.370  10.759   2.621
79296SOL    HW239786   5.397  10.869   2.721
79297SOL     OW39787  10.792  14.143   6.583
79297SOL    HW139788  10.887  14.144   6.574
79297SOL    HW239789  10.771  14.226   6.627
79298SOL     OW39790   5.500  11.763  12.585
79298SOL    HW139791   5.442  11.777  12.510
79298SOL    HW239792   5.465  11.684  12.627
79299SOL     OW39793  12.210  11.789   6.706
79299SOL    HW139794  12.279  11.851   6.685
79299SOL    HW239795  12.138  11.812   6.647
79300SOL     OW39796   1.157  12.558   1.324
79300SOL    HW139797   1.202  12.519   1.399
79300SOL    HW239798   1.064  12.544   1.343
79301SOL     OW39799   9.602   8.651  13.523
79301SOL    HW139800   9.645   8.732  13.495
79301SOL    HW239801   9.644   8.583  13.470
79302SOL     OW39802   0.460   5.689   3.803
79302SOL    HW139803   0.411   5.748   3.861
79302SOL    HW239804   0.461   5.734   3.719
79303SOL     OW39805  12.932   8.339  11.266
79303SOL    HW139806  12.924   8.369  11.356
79303SOL    HW239807  12.849   8.294  11.248
79304SOL     OW39808  10.466   6.946  14.728
79304SOL    HW139809  10.458   6.992  14.812
79304SOL    HW239810  10.385   6.897  14.719
79305SOL     OW39811   2.290  12.387  10.698
79305SOL    HW139812   2.382  12.413  10.709
79305SOL    HW239813   2.253  12.454  10.642
79306SOL     OW39814   0.028   8.486   5.812
79306SOL    HW139815  14.869   8.575   5.833
79306SOL    HW239816   0.123   8.493   5.804
79307SOL     OW39817   8.152   3.697   6.403
79307SOL    HW139818   8.108   3.640   6.466
79307SOL    HW239819   8.176   3.774   6.454
79308SOL     OW39820   7.527   8.539   7.356
79308SOL    HW139821   7.563   8.450   7.352
79308SOL    HW239822   7.601   8.596   7.335
79309SOL     OW39823  11.202   6.097  13.923
79309SOL    HW139824  11.228   6.189  13.914
79309SOL    HW239825  11.154   6.078  13.843
79310SOL     OW39826   9.680   9.372   8.455
79310SOL    HW139827   9.646   9.376   8.545
79310SOL    HW239828   9.728   9.289   8.452
79311SOL     OW39829  12.379   3.313   1.288
79311SOL    HW139830  12.436   3.361   1.228
79311SOL    HW239831  12.306   3.372   1.306
79312SOL     OW39832   4.150   2.198   6.259
79312SOL    HW139833   4.146   2.293   6.272
79312SOL    HW239834   4.177   2.187   6.168
79313SOL     OW39835   0.107   3.220  11.421
79313SOL    HW139836   0.048   3.193  11.351
79313SOL    HW239837   0.051   3.267  11.483
79314SOL     OW39838  10.843   8.746   9.232
79314SOL    HW139839  10.757   8.719   9.200
79314SOL    HW239840  10.838   8.733   9.327
79315SOL     OW39841   3.648  12.463   3.824
79315SOL    HW139842   3.639  12.542   3.878
79315SOL    HW239843   3.730  12.422   3.855
79316SOL     OW39844   2.661  14.692   4.884
79316SOL    HW139845   2.565  14.690   4.883
79316SOL    HW239846   2.684  14.736   4.965
79317SOL     OW39847   2.330   4.558   2.625
79317SOL    HW139848   2.307   4.633   2.571
79317SOL    HW239849   2.272   4.564   2.700
79318SOL     OW39850  13.885  10.580  10.700
79318SOL    HW139851  13.902  10.608  10.790
79318SOL    HW239852  13.939  10.636  10.646
79319SOL     OW39853  10.399   9.578   5.950
79319SOL    HW139854  10.333   9.509   5.937
79319SOL    HW239855  10.380   9.613   6.037
79320SOL     OW39856   1.816   6.973   6.131
79320SOL    HW139857   1.891   6.925   6.096
79320SOL    HW239858   1.837   7.065   6.115
79321SOL     OW39859   6.198  11.967   1.177
79321SOL    HW139860   6.115  11.987   1.133
79321SOL    HW239861   6.182  11.883   1.221
79322SOL     OW39862   0.646  14.328   5.308
79322SOL    HW139863   0.740  14.333   5.291
79322SOL    HW239864   0.620  14.241   5.277
79323SOL     OW39865   2.936   6.174   6.774
79323SOL    HW139866   2.907   6.224   6.851
79323SOL    HW239867   3.030   6.194   6.767
79324SOL     OW39868   3.983   0.026   4.836
79324SOL    HW139869   3.894   0.052   4.813
79324SOL    HW239870   3.992   0.051   4.928
79325SOL     OW39871   7.622   8.412   8.216
79325SOL    HW139872   7.571   8.388   8.293
79325SOL    HW239873   7.624   8.333   8.162
79326SOL     OW39874   4.657  13.805  14.644
79326SOL    HW139875   4.633  13.764  14.561
79326SOL    HW239876   4.642  13.736  14.709
79327SOL     OW39877   2.100   5.943  12.708
79327SOL    HW139878   2.074   5.878  12.642
79327SOL    HW239879   2.172   5.902  12.755
79328SOL     OW39880   1.854  10.684  14.453
79328SOL    HW139881   1.924  10.649  14.507
79328SOL    HW239882   1.897  10.712  14.373
79329SOL     OW39883   8.207  13.892   4.985
79329SOL    HW139884   8.245  13.924   4.904
79329SOL    HW239885   8.173  13.971   5.028
79330SOL     OW39886  14.787   1.352   4.505
79330SOL    HW139887  14.860   1.414   4.510
79330SOL    HW239888  14.824   1.273   4.468
79331SOL     OW39889   1.705  13.266   6.024
79331SOL    HW139890   1.731  13.285   5.934
79331SOL    HW239891   1.658  13.344   6.052
79332SOL     OW39892  11.606   5.167  11.043
79332SOL    HW139893  11.521   5.157  10.999
79332SOL    HW239894  11.671   5.151  10.974
79333SOL     OW39895   1.387   0.204   4.589
79333SOL    HW139896   1.394   0.178   4.680
79333SOL    HW239897   1.339   0.132   4.547
79334SOL     OW39898  12.208  12.409   5.387
79334SOL    HW139899  12.288  12.363   5.413
79334SOL    HW239900  12.223  12.434   5.296
79335SOL     OW39901   5.104   0.327   7.095
79335SOL    HW139902   5.107   0.415   7.058
79335SOL    HW239903   5.038   0.281   7.044
79336SOL     OW39904   4.074  14.700  11.094
79336SOL    HW139905   4.010  14.687  11.024
79336SOL    HW239906   4.021  14.723  11.171
79337SOL     OW39907   8.425   0.136   0.677
79337SOL    HW139908   8.392   0.110   0.763
79337SOL    HW239909   8.379   0.218   0.658
79338SOL     OW39910  12.055   3.836  12.994
79338SOL    HW139911  12.019   3.785  12.923
79338SOL    HW239912  11.980   3.880  13.034
79339SOL     OW39913   8.586   8.535   8.970
79339SOL    HW139914   8.496   8.550   8.998
79339SOL    HW239915   8.611   8.454   9.014
79340SOL     OW39916  10.496  11.844  12.916
79340SOL    HW139917  10.453  11.801  12.841
79340SOL    HW239918  10.495  11.778  12.985
79341SOL     OW39919   1.003  11.358   7.154
79341SOL    HW139920   0.955  11.374   7.072
79341SOL    HW239921   0.970  11.424   7.214
79342SOL     OW39922  14.691  14.817   8.043
79342SOL    HW139923  14.663  14.738   7.997
79342SOL    HW239924  14.765  14.788   8.097
79343SOL     OW39925   1.495   1.520   0.108
79343SOL    HW139926   1.480   1.503   0.015
79343SOL    HW239927   1.555   1.450   0.135
79344SOL     OW39928  11.115   3.493   2.115
79344SOL    HW139929  11.075   3.520   2.197
79344SOL    HW239930  11.120   3.397   2.122
79345SOL     OW39931   4.146   0.476   4.792
79345SOL    HW139932   4.163   0.524   4.710
79345SOL    HW239933   4.232   0.442   4.818
79346SOL     OW39934   1.425   6.905  12.110
79346SOL    HW139935   1.399   6.848  12.039
79346SOL    HW239936   1.504   6.950  12.078
79347SOL     OW39937  14.202  11.762   0.103
79347SOL    HW139938  14.188  11.815   0.182
79347SOL    HW239939  14.235  11.679   0.136
79348SOL     OW39940   7.298  11.821   8.380
79348SOL    HW139941   7.274  11.764   8.453
79348SOL    HW239942   7.338  11.897   8.421
79349SOL     OW39943   5.471   0.271   6.162
79349SOL    HW139944   5.469   0.328   6.238
79349SOL    HW239945   5.558   0.284   6.124
79350SOL     OW39946   9.590   0.281  10.140
79350SOL    HW139947   9.630   0.275  10.054
79350SOL    HW239948   9.501   0.246  10.129
79351SOL     OW39949   4.811  10.892  13.281
79351SOL    HW139950   4.850  10.815  13.323
79351SOL    HW239951   4.880  10.958  13.284
79352SOL     OW39952   0.074   8.123  12.323
79352SOL    HW139953   0.102   8.099  12.411
79352SOL    HW239954   0.110   8.210  12.309
79353SOL     OW39955  10.543  11.842   9.207
79353SOL    HW139956  10.575  11.786   9.278
79353SOL    HW239957  10.622  11.866   9.158
79354SOL     OW39958   6.841  11.012   3.510
79354SOL    HW139959   6.924  10.974   3.482
79354SOL    HW239960   6.855  11.106   3.508
79355SOL     OW39961   1.073   7.402  11.907
79355SOL    HW139962   1.085   7.444  11.993
79355SOL    HW239963   1.088   7.309  11.923
79356SOL     OW39964  14.581   6.387  13.928
79356SOL    HW139965  14.561   6.480  13.936
79356SOL    HW239966  14.516   6.344  13.984
79357SOL     OW39967   0.167   6.961   9.103
79357SOL    HW139968   0.205   6.925   9.182
79357SOL    HW239969   0.237   6.956   9.038
79358SOL     OW39970   3.984  13.170   1.854
79358SOL    HW139971   4.010  13.260   1.832
79358SOL    HW239972   3.893  13.164   1.824
79359SOL     OW39973   8.316  11.838   6.211
79359SOL    HW139974   8.283  11.785   6.138
79359SOL    HW239975   8.401  11.870   6.181
79360SOL     OW39976  10.794   6.774  10.555
79360SOL    HW139977  10.829   6.703  10.607
79360SOL    HW239978  10.836   6.765  10.469
79361SOL     OW39979  13.293  13.981   3.369
79361SOL    HW139980  13.269  13.914   3.433
79361SOL    HW239981  13.211  14.028   3.352
79362SOL     OW39982   5.105   6.711   6.966
79362SOL    HW139983   5.193   6.734   6.996
79362SOL    HW239984   5.060   6.682   7.045
79363SOL     OW39985  11.303   3.384   4.265
79363SOL    HW139986  11.359   3.446   4.220
79363SOL    HW239987  11.221   3.432   4.280
79364SOL     OW39988  10.076   2.515  11.443
79364SOL    HW139989  10.065   2.476  11.356
79364SOL    HW239990  10.097   2.607  11.425
79365SOL     OW39991   9.135  12.751   6.933
79365SOL    HW139992   9.123  12.661   6.963
79365SOL    HW239993   9.199  12.788   6.993
79366SOL     OW39994   0.222   6.783   0.546
79366SOL    HW139995   0.301   6.799   0.494
79366SOL    HW239996   0.255   6.756   0.632
79367SOL     OW39997   4.528  14.762  14.150
79367SOL    HW139998   4.497  14.725  14.068
79367SOL    HW239999   4.460  14.825  14.175
79368SOL     OW40000   4.935  12.969   9.946
79368SOL    HW140001   4.951  12.902  10.012
79368SOL    HW240002   4.946  13.052   9.992
79369SOL     OW40003  10.933   9.353  10.352
79369SOL    HW140004  11.001   9.286  10.365
79369SOL    HW240005  10.963   9.428  10.402
79370SOL     OW40006   2.120  11.567  10.712
79370SOL    HW140007   2.117  11.484  10.663
79370SOL    HW240008   2.031  11.601  10.708
79371SOL     OW40009  12.460   6.109   7.262
79371SOL    HW140010  12.449   6.203   7.249
79371SOL    HW240011  12.440   6.071   7.176
79372SOL     OW40012   3.557   6.428   8.985
79372SOL    HW140013   3.615   6.496   9.017
79372SOL    HW240014   3.580   6.350   9.036
79373SOL     OW40015  14.099  12.816   6.717
79373SOL    HW140016  14.156  12.755   6.765
79373SOL    HW240017  14.060  12.870   6.786
79374SOL     OW40018   8.330   0.748  14.834
79374SOL    HW140019   8.364   0.793  14.757
79374SOL    HW240020   8.292   0.667  14.800
79375SOL     OW40021   8.465   1.506   2.072
79375SOL    HW140022   8.546   1.463   2.098
79375SOL    HW240023   8.488   1.598   2.063
79376SOL     OW40024   7.223   4.971   0.071
79376SOL    HW140025   7.210   4.876   0.078
79376SOL    HW240026   7.225   5.002   0.161
79377SOL     OW40027   0.634  13.549   5.346
79377SOL    HW140028   0.649  13.595   5.428
79377SOL    HW240029   0.547  13.578   5.318
79378SOL     OW40030   3.210   4.566   0.883
79378SOL    HW140031   3.194   4.637   0.946
79378SOL    HW240032   3.178   4.600   0.800
79379SOL     OW40033   3.684   9.419  14.832
79379SOL    HW140034   3.774   9.413  14.865
79379SOL    HW240035   3.629   9.418   0.041
79380SOL     OW40036   8.925   3.013   5.963
79380SOL    HW140037   8.853   2.973   5.915
79380SOL    HW240038   8.888   3.093   6.001
79381SOL     OW40039   2.257  14.535  14.849
79381SOL    HW140040   2.208  14.476   0.037
79381SOL    HW240041   2.238  14.622   0.013
79382SOL     OW40042  12.498   4.281   1.808
79382SOL    HW140043  12.588   4.266   1.838
79382SOL    HW240044  12.448   4.209   1.845
79383SOL     OW40045   8.527   7.793   0.681
79383SOL    HW140046   8.439   7.830   0.678
79383SOL    HW240047   8.567   7.820   0.599
79384SOL     OW40048   6.937  13.232   5.463
79384SOL    HW140049   6.950  13.294   5.391
79384SOL    HW240050   6.847  13.248   5.492
79385SOL     OW40051   6.376   9.974  12.506
79385SOL    HW140052   6.322   9.900  12.534
79385SOL    HW240053   6.315  10.048  12.502
79386SOL     OW40054   1.656  10.763  14.040
79386SOL    HW140055   1.574  10.810  14.022
79386SOL    HW240056   1.699  10.756  13.955
79387SOL     OW40057  10.154  12.867   6.141
79387SOL    HW140058  10.242  12.853   6.177
79387SOL    HW240059  10.163  12.844   6.048
79388SOL     OW40060   0.333   0.427   2.032
79388SOL    HW140061   0.255   0.415   2.085
79388SOL    HW240062   0.381   0.498   2.074
79389SOL     OW40063  13.187  13.929  13.601
79389SOL    HW140064  13.224  13.905  13.516
79389SOL    HW240065  13.094  13.943  13.584
79390SOL     OW40066   3.943  14.397  11.176
79390SOL    HW140067   3.972  14.325  11.232
79390SOL    HW240068   3.933  14.471  11.235
79391SOL     OW40069   6.547   3.109   6.233
79391SOL    HW140070   6.593   3.056   6.297
79391SOL    HW240071   6.476   3.053   6.201
79392SOL     OW40072   4.503   8.458  12.323
79392SOL    HW140073   4.527   8.521  12.391
79392SOL    HW240074   4.550   8.488  12.245
79393SOL     OW40075  14.276  12.668  14.748
79393SOL    HW140076  14.343  12.720  14.704
79393SOL    HW240077  14.238  12.614  14.679
79394SOL     OW40078   9.460  12.170   0.011
79394SOL    HW140079   9.463  12.080   0.044
79394SOL    HW240080   9.552  12.196   0.006
79395SOL     OW40081   4.057   9.852   2.216
79395SOL    HW140082   3.967   9.869   2.243
79395SOL    HW240083   4.049   9.812   2.129
79396SOL     OW40084   7.005   2.450   1.502
79396SOL    HW140085   7.065   2.491   1.440
79396SOL    HW240086   7.026   2.357   1.498
79397SOL     OW40087   5.500  12.178   9.773
79397SOL    HW140088   5.408  12.194   9.752
79397SOL    HW240089   5.499  12.099   9.827
79398SOL     OW40090   0.631  13.893  11.445
79398SOL    HW140091   0.651  13.960  11.511
79398SOL    HW240092   0.641  13.939  11.361
79399SOL     OW40093   9.360   7.851  10.525
79399SOL    HW140094   9.316   7.793  10.463
79399SOL    HW240095   9.407   7.914  10.470
79400SOL     OW40096   5.171   6.005  11.176
79400SOL    HW140097   5.086   5.987  11.216
79400SOL    HW240098   5.161   5.979  11.084
79401SOL     OW40099  13.183  11.449   2.437
79401SOL    HW140100  13.121  11.419   2.370
79401SOL    HW240101  13.209  11.536   2.407
79402SOL     OW40102   9.146  11.547  10.842
79402SOL    HW140103   9.062  11.587  10.867
79402SOL    HW240104   9.161  11.480  10.909
79403SOL     OW40105   4.979   1.842   7.283
79403SOL    HW140106   4.951   1.753   7.259
79403SOL    HW240107   4.913   1.873   7.344
79404SOL     OW40108  10.851  13.810   5.913
79404SOL    HW140109  10.790  13.860   5.860
79404SOL    HW240110  10.934  13.817   5.868
79405SOL     OW40111  11.415   0.539   4.740
79405SOL    HW140112  11.416   0.634   4.736
79405SOL    HW240113  11.336   0.513   4.691
79406SOL     OW40114   6.783   1.243   7.198
79406SOL    HW140115   6.753   1.333   7.188
79406SOL    HW240116   6.861   1.250   7.253
79407SOL     OW40117  12.898  11.556  11.148
79407SOL    HW140118  12.829  11.610  11.186
79407SOL    HW240119  12.859  11.468  11.144
79408SOL     OW40120   4.590  13.093   4.959
79408SOL    HW140121   4.503  13.120   4.988
79408SOL    HW240122   4.649  13.122   5.028
79409SOL     OW40123   7.942  12.396   3.452
79409SOL    HW140124   7.997  12.346   3.512
79409SOL    HW240125   7.975  12.373   3.365
79410SOL     OW40126  14.329   3.254   1.870
79410SOL    HW140127  14.238   3.247   1.842
79410SOL    HW240128  14.344   3.177   1.924
79411SOL     OW40129   1.062   0.672  13.254
79411SOL    HW140130   1.073   0.723  13.334
79411SOL    HW240131   1.060   0.737  13.184
79412SOL     OW40132   3.379   7.728  10.444
79412SOL    HW140133   3.420   7.814  10.433
79412SOL    HW240134   3.421   7.691  10.521
79413SOL     OW40135   1.801   9.207   9.647
79413SOL    HW140136   1.846   9.272   9.592
79413SOL    HW240137   1.724   9.254   9.680
79414SOL     OW40138  14.064  13.332   0.721
79414SOL    HW140139  14.124  13.407   0.722
79414SOL    HW240140  14.027  13.332   0.633
79415SOL     OW40141   6.632   5.082   1.344
79415SOL    HW140142   6.666   5.151   1.286
79415SOL    HW240143   6.544   5.065   1.311
79416SOL     OW40144   2.324   9.646   3.875
79416SOL    HW140145   2.367   9.636   3.959
79416SOL    HW240146   2.305   9.740   3.868
79417SOL     OW40147   7.743  10.213   0.434
79417SOL    HW140148   7.683  10.283   0.461
79417SOL    HW240149   7.727  10.202   0.341
79418SOL     OW40150  13.582  14.199   5.421
79418SOL    HW140151  13.492  14.169   5.423
79418SOL    HW240152  13.576  14.291   5.397
79419SOL     OW40153  14.330   2.528   3.361
79419SOL    HW140154  14.403   2.588   3.348
79419SOL    HW240155  14.258   2.583   3.391
79420SOL     OW40156  11.339  12.465  14.584
79420SOL    HW140157  11.320  12.400  14.516
79420SOL    HW240158  11.375  12.540  14.536
79421SOL     OW40159   3.561  14.307   7.534
79421SOL    HW140160   3.646  14.280   7.499
79421SOL    HW240161   3.578  14.392   7.575
79422SOL     OW40162  10.938  11.183  12.084
79422SOL    HW140163  10.920  11.276  12.069
79422SOL    HW240164  10.997  11.182  12.160
79423SOL     OW40165   3.599  11.001  14.530
79423SOL    HW140166   3.506  10.985  14.550
79423SOL    HW240167   3.638  11.023  14.615
79424SOL     OW40168   1.548  14.274   6.071
79424SOL    HW140169   1.561  14.368   6.059
79424SOL    HW240170   1.490  14.248   5.999
79425SOL     OW40171  11.540   7.729  12.225
79425SOL    HW140172  11.623   7.733  12.178
79425SOL    HW240173  11.549   7.654  12.284
79426SOL     OW40174   6.251  12.911   7.235
79426SOL    HW140175   6.178  12.906   7.173
79426SOL    HW240176   6.309  12.839   7.210
79427SOL     OW40177   6.364  13.804   0.537
79427SOL    HW140178   6.272  13.822   0.519
79427SOL    HW240179   6.382  13.852   0.618
79428SOL     OW40180   9.728  12.913   6.422
79428SOL    HW140181   9.760  12.983   6.478
79428SOL    HW240182   9.774  12.926   6.339
79429SOL     OW40183  10.996   4.349   3.453
79429SOL    HW140184  10.959   4.386   3.373
79429SOL    HW240185  10.927   4.294   3.489
79430SOL     OW40186  14.349   3.296   9.240
79430SOL    HW140187  14.303   3.238   9.179
79430SOL    HW240188  14.279   3.347   9.281
79431SOL     OW40189   9.217  10.059   3.517
79431SOL    HW140190   9.217   9.970   3.551
79431SOL    HW240191   9.275  10.056   3.442
79432SOL     OW40192   2.311   7.576   2.271
79432SOL    HW140193   2.276   7.623   2.195
79432SOL    HW240194   2.334   7.645   2.333
79433SOL     OW40195  13.724   4.384   9.251
79433SOL    HW140196  13.670   4.331   9.309
79433SOL    HW240197  13.810   4.386   9.293
79434SOL     OW40198   9.981  12.925   4.264
79434SOL    HW140199  10.052  12.940   4.201
79434SOL    HW240200   9.999  12.986   4.335
79435SOL     OW40201  13.418   5.169  13.727
79435SOL    HW140202  13.504   5.190  13.690
79435SOL    HW240203  13.386   5.253  13.760
79436SOL     OW40204   4.512   0.254   1.828
79436SOL    HW140205   4.454   0.191   1.784
79436SOL    HW240206   4.592   0.204   1.846
79437SOL     OW40207   2.344   7.045   9.399
79437SOL    HW140208   2.387   7.106   9.460
79437SOL    HW240209   2.252   7.070   9.401
79438SOL     OW40210   9.115  13.003   4.568
79438SOL    HW140211   9.164  13.043   4.497
79438SOL    HW240212   9.160  12.920   4.585
79439SOL     OW40213   9.228   1.353  12.806
79439SOL    HW140214   9.180   1.364  12.888
79439SOL    HW240215   9.313   1.396  12.822
79440SOL     OW40216   3.966   5.089   8.621
79440SOL    HW140217   4.054   5.102   8.585
79440SOL    HW240218   3.910   5.076   8.545
79441SOL     OW40219   9.933  10.291   6.272
79441SOL    HW140220   9.996  10.228   6.240
79441SOL    HW240221   9.889  10.324   6.194
79442SOL     OW40222  10.976  13.689  10.589
79442SOL    HW140223  10.885  13.676  10.618
79442SOL    HW240224  11.007  13.601  10.566
79443SOL     OW40225  11.121   3.361  14.164
79443SOL    HW140226  11.052   3.398  14.219
79443SOL    HW240227  11.179   3.316  14.225
79444SOL     OW40228  12.951  12.359   0.723
79444SOL    HW140229  12.887  12.301   0.681
79444SOL    HW240230  13.009  12.300   0.771
79445SOL     OW40231   9.084   0.212   5.699
79445SOL    HW140232   9.145   0.159   5.646
79445SOL    HW240233   8.998   0.175   5.680
79446SOL     OW40234   7.930  12.231  14.342
79446SOL    HW140235   7.928  12.136  14.325
79446SOL    HW240236   7.839  12.253  14.365
79447SOL     OW40237   7.194   3.895   5.796
79447SOL    HW140238   7.178   3.897   5.701
79447SOL    HW240239   7.158   3.978   5.827
79448SOL     OW40240  13.319  14.392   9.953
79448SOL    HW140241  13.289  14.479   9.927
79448SOL    HW240242  13.398  14.408  10.004
79449SOL     OW40243  10.306   2.815   8.332
79449SOL    HW140244  10.363   2.765   8.275
79449SOL    HW240245  10.235   2.845   8.275
79450SOL     OW40246  11.157  11.271   5.846
79450SOL    HW140247  11.216  11.267   5.922
79450SOL    HW240248  11.197  11.213   5.782
79451SOL     OW40249   9.288   3.614   5.264
79451SOL    HW140250   9.278   3.669   5.186
79451SOL    HW240251   9.353   3.660   5.317
79452SOL     OW40252  13.209  11.489  11.856
79452SOL    HW140253  13.217  11.395  11.837
79452SOL    HW240254  13.243  11.498  11.945
79453SOL     OW40255   9.752   4.452   5.317
79453SOL    HW140256   9.773   4.374   5.267
79453SOL    HW240257   9.720   4.515   5.252
79454SOL     OW40258   3.109  13.929   4.382
79454SOL    HW140259   3.060  14.003   4.345
79454SOL    HW240260   3.043  13.880   4.433
79455SOL     OW40261   8.600   6.944  13.341
79455SOL    HW140262   8.633   6.997  13.269
79455SOL    HW240263   8.565   6.865  13.299
79456SOL     OW40264   0.230  13.894   6.796
79456SOL    HW140265   0.274  13.882   6.712
79456SOL    HW240266   0.255  13.983   6.823
79457SOL     OW40267   5.575   7.583  10.458
79457SOL    HW140268   5.505   7.603  10.520
79457SOL    HW240269   5.532   7.532  10.389
79458SOL     OW40270  13.521  13.602  12.618
79458SOL    HW140271  13.523  13.660  12.541
79458SOL    HW240272  13.501  13.661  12.691
79459SOL     OW40273   9.243   9.725   0.701
79459SOL    HW140274   9.163   9.700   0.655
79459SOL    HW240275   9.259   9.816   0.674
79460SOL     OW40276   5.634  11.558   7.308
79460SOL    HW140277   5.683  11.609   7.244
79460SOL    HW240278   5.638  11.610   7.389
79461SOL     OW40279  14.092   8.835   2.794
79461SOL    HW140280  14.179   8.864   2.823
79461SOL    HW240281  14.056   8.790   2.870
79462SOL     OW40282   3.694   3.122  12.559
79462SOL    HW140283   3.716   3.093  12.648
79462SOL    HW240284   3.687   3.041  12.508
79463SOL     OW40285   9.021  11.155   9.340
79463SOL    HW140286   8.961  11.207   9.286
79463SOL    HW240287   8.999  11.064   9.319
79464SOL     OW40288   9.088   9.353   8.919
79464SOL    HW140289   9.137   9.381   8.842
79464SOL    HW240290   9.149   9.364   8.992
79465SOL     OW40291  12.886   8.409   0.046
79465SOL    HW140292  12.965   8.437  14.868
79465SOL    HW240293  12.872   8.477   0.111
79466SOL     OW40294  11.738  10.161   8.680
79466SOL    HW140295  11.738  10.148   8.775
79466SOL    HW240296  11.821  10.123   8.651
79467SOL     OW40297   2.222   8.086   0.473
79467SOL    HW140298   2.178   8.018   0.524
79467SOL    HW240299   2.179   8.083   0.387
79468SOL     OW40300  13.022   5.999  13.674
79468SOL    HW140301  12.996   6.091  13.663
79468SOL    HW240302  12.983   5.973  13.758
79469SOL     OW40303  13.816   6.079   8.441
79469SOL    HW140304  13.819   6.024   8.520
79469SOL    HW240305  13.723   6.098   8.429
79470SOL     OW40306   7.219  13.814   2.013
79470SOL    HW140307   7.300  13.798   2.062
79470SOL    HW240308   7.247  13.860   1.934
79471SOL     OW40309   0.785   6.787   9.898
79471SOL    HW140310   0.710   6.814   9.846
79471SOL    HW240311   0.858   6.786   9.836
79472SOL     OW40312  14.855  12.595   2.556
79472SOL    HW140313  14.769  12.556   2.542
79472SOL    HW240314   0.043  12.520   2.571
79473SOL     OW40315   5.692  10.227  10.939
79473SOL    HW140316   5.678  10.315  10.906
79473SOL    HW240317   5.775  10.232  10.987
79474SOL     OW40318   5.058  10.781  12.971
79474SOL    HW140319   5.037  10.687  12.972
79474SOL    HW240320   5.122  10.791  12.900
79475SOL     OW40321  11.846  10.824   0.499
79475SOL    HW140322  11.849  10.910   0.457
79475SOL    HW240323  11.753  10.802   0.501
79476SOL     OW40324   6.114   1.601  11.806
79476SOL    HW140325   6.043   1.558  11.758
79476SOL    HW240326   6.137   1.540  11.876
79477SOL     OW40327  12.884   7.868   7.133
79477SOL    HW140328  12.924   7.782   7.143
79477SOL    HW240329  12.947   7.919   7.082
79478SOL     OW40330   1.613   4.452  11.656
79478SOL    HW140331   1.604   4.383  11.591
79478SOL    HW240332   1.568   4.419  11.733
79479SOL     OW40333  14.641   7.738   5.072
79479SOL    HW140334  14.630   7.804   5.004
79479SOL    HW240335  14.652   7.788   5.153
79480SOL     OW40336  12.079   9.887   8.983
79480SOL    HW140337  12.007   9.828   8.960
79480SOL    HW240338  12.101   9.931   8.900
79481SOL     OW40339   4.071   8.170   0.249
79481SOL    HW140340   4.074   8.164   0.154
79481SOL    HW240341   3.987   8.131   0.273
79482SOL     OW40342  14.126   8.504  14.571
79482SOL    HW140343  14.156   8.595  14.572
79482SOL    HW240344  14.033   8.509  14.546
79483SOL     OW40345   2.486   8.730   5.594
79483SOL    HW140346   2.450   8.804   5.545
79483SOL    HW240347   2.479   8.756   5.686
79484SOL     OW40348  14.232  13.825   7.244
79484SOL    HW140349  14.216  13.761   7.313
79484SOL    HW240350  14.146  13.840   7.204
79485SOL     OW40351   7.289   8.044   9.621
79485SOL    HW140352   7.296   7.953   9.592
79485SOL    HW240353   7.222   8.082   9.565
79486SOL     OW40354  10.249  10.975   6.843
79486SOL    HW140355  10.313  10.966   6.914
79486SOL    HW240356  10.212  10.887   6.833
79487SOL     OW40357  11.359   6.589  13.969
79487SOL    HW140358  11.402   6.507  13.946
79487SOL    HW240359  11.322   6.621  13.886
79488SOL     OW40360   1.730   7.416   4.075
79488SOL    HW140361   1.813   7.436   4.119
79488SOL    HW240362   1.696   7.339   4.122
79489SOL     OW40363   0.790  11.000   9.519
79489SOL    HW140364   0.869  10.947   9.526
79489SOL    HW240365   0.757  10.983   9.431
79490SOL     OW40366   8.348   3.372  13.135
79490SOL    HW140367   8.375   3.328  13.216
79490SOL    HW240368   8.333   3.463  13.161
79491SOL     OW40369  13.211   8.141   2.378
79491SOL    HW140370  13.299   8.108   2.362
79491SOL    HW240371  13.191   8.194   2.301
79492SOL     OW40372   3.972  12.829   3.033
79492SOL    HW140373   3.988  12.914   3.074
79492SOL    HW240374   4.022  12.832   2.951
79493SOL     OW40375   7.256   1.950  13.878
79493SOL    HW140376   7.263   2.041  13.846
79493SOL    HW240377   7.162   1.935  13.884
79494SOL     OW40378   7.836   2.149   2.783
79494SOL    HW140379   7.918   2.125   2.741
79494SOL    HW240380   7.774   2.083   2.754
79495SOL     OW40381  11.361  13.823   8.318
79495SOL    HW140382  11.351  13.864   8.232
79495SOL    HW240383  11.433  13.761   8.306
79496SOL     OW40384  10.081   7.181  14.748
79496SOL    HW140385  10.015   7.202  14.814
79496SOL    HW240386  10.090   7.261  14.697
79497SOL     OW40387  12.564  13.133   2.729
79497SOL    HW140388  12.557  13.173   2.816
79497SOL    HW240389  12.658  13.114   2.719
79498SOL     OW40390  13.378   6.413   0.387
79498SOL    HW140391  13.453   6.372   0.345
79498SOL    HW240392  13.318   6.340   0.405
79499SOL     OW40393  11.191  13.590   8.186
79499SOL    HW140394  11.193  13.650   8.261
79499SOL    HW240395  11.223  13.643   8.113
79500SOL     OW40396   2.608  10.855   4.384
79500SOL    HW140397   2.604  10.885   4.293
79500SOL    HW240398   2.529  10.891   4.425
79501SOL     OW40399  13.740   0.036   1.374
79501SOL    HW140400  13.709   0.043   1.464
79501SOL    HW240401  13.821   0.086   1.373
79502SOL     OW40402   6.455   9.921   2.390
79502SOL    HW140403   6.548   9.920   2.371
79502SOL    HW240404   6.432  10.013   2.398
79503SOL     OW40405   1.194  10.512   8.759
79503SOL    HW140406   1.283  10.477   8.767
79503SOL    HW240407   1.205  10.607   8.765
79504SOL     OW40408  12.536   9.064   8.329
79504SOL    HW140409  12.628   9.079   8.307
79504SOL    HW240410  12.538   9.012   8.409
79505SOL     OW40411  13.339   8.202  13.467
79505SOL    HW140412  13.273   8.206  13.535
79505SOL    HW240413  13.407   8.263  13.495
79506SOL     OW40414   2.794  11.290  13.664
79506SOL    HW140415   2.724  11.328  13.611
79506SOL    HW240416   2.783  11.195  13.654
79507SOL     OW40417   7.394   3.450  10.789
79507SOL    HW140418   7.468   3.461  10.729
79507SOL    HW240419   7.423   3.382  10.850
79508SOL     OW40420   1.111   9.468  13.197
79508SOL    HW140421   1.204   9.492  13.204
79508SOL    HW240422   1.112   9.377  13.168
79509SOL     OW40423   2.979   0.099   6.296
79509SOL    HW140424   3.045   0.154   6.336
79509SOL    HW240425   3.028   0.034   6.246
79510SOL     OW40426   5.203   8.881   7.893
79510SOL    HW140427   5.135   8.947   7.902
79510SOL    HW240428   5.216   8.848   7.981
79511SOL     OW40429  11.796   8.839   6.049
79511SOL    HW140430  11.804   8.934   6.038
79511SOL    HW240431  11.886   8.806   6.039
79512SOL     OW40432   7.105  12.232   7.557
79512SOL    HW140433   7.025  12.184   7.579
79512SOL    HW240434   7.157  12.230   7.638
79513SOL     OW40435   2.917   4.991   7.862
79513SOL    HW140436   2.907   4.949   7.777
79513SOL    HW240437   3.011   5.007   7.870
79514SOL     OW40438  14.473  14.118   9.137
79514SOL    HW140439  14.519  14.070   9.206
79514SOL    HW240440  14.390  14.142   9.177
79515SOL     OW40441  12.940   3.085  12.648
79515SOL    HW140442  12.950   3.046  12.561
79515SOL    HW240443  12.906   3.015  12.703
79516SOL     OW40444   5.166  13.556   6.798
79516SOL    HW140445   5.097  13.601   6.748
79516SOL    HW240446   5.194  13.620   6.863
79517SOL     OW40447   0.204   5.049   0.505
79517SOL    HW140448   0.158   5.068   0.422
79517SOL    HW240449   0.251   4.967   0.489
79518SOL     OW40450   7.900   4.468  13.914
79518SOL    HW140451   7.941   4.531  13.972
79518SOL    HW240452   7.841   4.418  13.970
79519SOL     OW40453   3.199   0.972   4.219
79519SOL    HW140454   3.129   0.919   4.257
79519SOL    HW240455   3.154   1.030   4.157
79520SOL     OW40456  10.346   6.383   7.728
79520SOL    HW140457  10.278   6.329   7.768
79520SOL    HW240458  10.336   6.469   7.769
79521SOL     OW40459   4.719   8.884   3.352
79521SOL    HW140460   4.739   8.906   3.443
79521SOL    HW240461   4.739   8.964   3.303
79522SOL     OW40462   9.048   0.624   5.842
79522SOL    HW140463   9.079   0.653   5.928
79522SOL    HW240464   9.033   0.530   5.851
79523SOL     OW40465  11.920  12.170  14.184
79523SOL    HW140466  11.874  12.092  14.151
79523SOL    HW240467  11.876  12.189  14.268
79524SOL     OW40468  13.270   9.553   0.456
79524SOL    HW140469  13.204   9.561   0.387
79524SOL    HW240470  13.296   9.460   0.454
79525SOL     OW40471  13.750   6.130  14.818
79525SOL    HW140472  13.670   6.130  14.766
79525SOL    HW240473  13.731   6.071   0.021
79526SOL     OW40474   4.463  10.583   6.047
79526SOL    HW140475   4.392  10.558   5.988
79526SOL    HW240476   4.437  10.548   6.132
79527SOL     OW40477   2.113  12.340   4.329
79527SOL    HW140478   2.072  12.426   4.324
79527SOL    HW240479   2.066  12.287   4.265
79528SOL     OW40480   3.496  12.779   4.985
79528SOL    HW140481   3.434  12.788   4.913
79528SOL    HW240482   3.531  12.690   4.977
79529SOL     OW40483   3.432   0.668   7.624
79529SOL    HW140484   3.360   0.712   7.669
79529SOL    HW240485   3.511   0.708   7.660
79530SOL     OW40486  13.726   7.867  14.789
79530SOL    HW140487  13.672   7.942  14.763
79530SOL    HW240488  13.694   7.795  14.736
79531SOL     OW40489   8.906   8.693  14.268
79531SOL    HW140490   8.920   8.629  14.198
79531SOL    HW240491   8.974   8.759  14.254
79532SOL     OW40492  13.750   8.331   3.573
79532SOL    HW140493  13.760   8.241   3.543
79532SOL    HW240494  13.840   8.361   3.589
79533SOL     OW40495  13.097   9.717   5.259
79533SOL    HW140496  13.010   9.727   5.296
79533SOL    HW240497  13.091   9.756   5.172
79534SOL     OW40498  10.046   6.338   9.187
79534SOL    HW140499  10.120   6.372   9.136
79534SOL    HW240500   9.969   6.382   9.150
79535SOL     OW40501   1.787   0.924  13.999
79535SOL    HW140502   1.845   0.939  14.073
79535SOL    HW240503   1.699   0.922  14.037
79536SOL     OW40504   7.814  13.162   6.064
79536SOL    HW140505   7.839  13.091   6.124
79536SOL    HW240506   7.736  13.130   6.020
79537SOL     OW40507   9.000  12.545  11.523
79537SOL    HW140508   8.941  12.496  11.466
79537SOL    HW240509   8.965  12.531  11.611
79538SOL     OW40510   5.058  14.073   1.585
79538SOL    HW140511   5.003  14.151   1.577
79538SOL    HW240512   5.028  14.016   1.514
79539SOL     OW40513  13.755   5.393   7.925
79539SOL    HW140514  13.667   5.370   7.957
79539SOL    HW240515  13.781   5.318   7.871
79540SOL     OW40516   4.295   5.210   0.530
79540SOL    HW140517   4.245   5.153   0.471
79540SOL    HW240518   4.240   5.218   0.608
79541SOL     OW40519   2.654   6.363   2.519
79541SOL    HW140520   2.607   6.339   2.599
79541SOL    HW240521   2.726   6.418   2.549
79542SOL     OW40522  11.606  10.499   9.335
79542SOL    HW140523  11.560  10.560   9.392
79542SOL    HW240524  11.590  10.531   9.247
79543SOL     OW40525   1.192  13.093   8.681
79543SOL    HW140526   1.284  13.117   8.682
79543SOL    HW240527   1.190  13.002   8.711
79544SOL     OW40528   1.592  11.031  13.332
79544SOL    HW140529   1.625  11.120  13.321
79544SOL    HW240530   1.644  10.994  13.403
79545SOL     OW40531   7.796   6.655   6.382
79545SOL    HW140532   7.737   6.728   6.368
79545SOL    HW240533   7.882   6.688   6.357
79546SOL     OW40534  10.460  12.922   8.517
79546SOL    HW140535  10.377  12.942   8.473
79546SOL    HW240536  10.434  12.877   8.598
79547SOL     OW40537   1.494   6.663   8.411
79547SOL    HW140538   1.519   6.657   8.503
79547SOL    HW240539   1.556   6.726   8.374
79548SOL     OW40540   4.347   8.923   9.014
79548SOL    HW140541   4.368   8.836   9.048
79548SOL    HW240542   4.285   8.906   8.942
79549SOL     OW40543   5.800   8.376   3.012
79549SOL    HW140544   5.846   8.338   2.938
79549SOL    HW240545   5.789   8.304   3.074
79550SOL     OW40546   8.110   7.607   7.960
79550SOL    HW140547   8.160   7.530   7.987
79550SOL    HW240548   8.044   7.618   8.028
79551SOL     OW40549  14.079   3.181  10.058
79551SOL    HW140550  14.172   3.187  10.039
79551SOL    HW240551  14.075   3.183  10.154
79552SOL     OW40552   6.742   3.416   8.306
79552SOL    HW140553   6.804   3.369   8.363
79552SOL    HW240554   6.697   3.476   8.365
79553SOL     OW40555   1.970   1.718  13.605
79553SOL    HW140556   2.055   1.746  13.572
79553SOL    HW240557   1.907   1.754  13.542
79554SOL     OW40558   5.515   8.282   6.197
79554SOL    HW140559   5.486   8.371   6.219
79554SOL    HW240560   5.600   8.294   6.155
79555SOL     OW40561   2.644   2.364   6.129
79555SOL    HW140562   2.723   2.312   6.124
79555SOL    HW240563   2.588   2.332   6.058
79556SOL     OW40564  10.192  14.342  10.023
79556SOL    HW140565  10.266  14.356  10.083
79556SOL    HW240566  10.144  14.425  10.025
79557SOL     OW40567   8.944   1.257   5.590
79557SOL    HW140568   8.969   1.178   5.638
79557SOL    HW240569   8.897   1.225   5.513
79558SOL     OW40570  13.773   0.629   8.122
79558SOL    HW140571  13.745   0.571   8.051
79558SOL    HW240572  13.855   0.667   8.091
79559SOL     OW40573   3.574   5.768   3.228
79559SOL    HW140574   3.620   5.836   3.180
79559SOL    HW240575   3.486   5.767   3.190
79560SOL     OW40576  11.038  12.646   2.368
79560SOL    HW140577  10.943  12.643   2.359
79560SOL    HW240578  11.068  12.691   2.288
79561SOL     OW40579   8.024   2.393  10.128
79561SOL    HW140580   7.967   2.324  10.163
79561SOL    HW240581   7.981   2.421  10.047
79562SOL     OW40582  12.295   1.790   7.656
79562SOL    HW140583  12.310   1.705   7.699
79562SOL    HW240584  12.345   1.783   7.574
79563SOL     OW40585   1.968   0.036   1.147
79563SOL    HW140586   1.955  14.867   1.234
79563SOL    HW240587   2.056   0.010   1.122
79564SOL     OW40588   2.588   0.441   8.818
79564SOL    HW140589   2.571   0.529   8.783
79564SOL    HW240590   2.683   0.438   8.829
79565SOL     OW40591   8.783  10.272  14.424
79565SOL    HW140592   8.872  10.247  14.447
79565SOL    HW240593   8.744  10.191  14.388
79566SOL     OW40594  12.040  11.539   1.104
79566SOL    HW140595  12.129  11.573   1.088
79566SOL    HW240596  12.014  11.579   1.186
79567SOL     OW40597   1.689   6.451   6.181
79567SOL    HW140598   1.634   6.379   6.148
79567SOL    HW240599   1.778   6.420   6.168
79568SOL     OW40600   7.554   0.346   0.442
79568SOL    HW140601   7.596   0.412   0.496
79568SOL    HW240602   7.581   0.262   0.480
79569SOL     OW40603  12.158  14.231   5.017
79569SOL    HW140604  12.202  14.256   4.936
79569SOL    HW240605  12.074  14.278   5.013
79570SOL     OW40606  11.211   3.375   5.091
79570SOL    HW140607  11.280   3.407   5.149
79570SOL    HW240608  11.207   3.439   5.021
79571SOL     OW40609   0.790   1.620   4.048
79571SOL    HW140610   0.828   1.699   4.087
79571SOL    HW240611   0.708   1.651   4.008
79572SOL     OW40612   2.945  12.174   7.894
79572SOL    HW140613   2.893  12.130   7.962
79572SOL    HW240614   3.025  12.202   7.939
79573SOL     OW40615   8.711   3.046   3.604
79573SOL    HW140616   8.805   3.028   3.615
79573SOL    HW240617   8.706   3.142   3.596
79574SOL     OW40618   2.555   4.935  11.082
79574SOL    HW140619   2.615   4.936  11.008
79574SOL    HW240620   2.550   5.026  11.111
79575SOL     OW40621  11.859   0.470  13.418
79575SOL    HW140622  11.847   0.435  13.330
79575SOL    HW240623  11.861   0.565  13.406
79576SOL     OW40624   9.273  10.249  13.154
79576SOL    HW140625   9.199  10.304  13.127
79576SOL    HW240626   9.296  10.281  13.241
79577SOL     OW40627  11.073  10.566   0.697
79577SOL    HW140628  11.077  10.493   0.635
79577SOL    HW240629  10.986  10.602   0.686
79578SOL     OW40630  11.738   0.951   0.089
79578SOL    HW140631  11.701   0.942   0.001
79578SOL    HW240632  11.805   1.019   0.080
79579SOL     OW40633  13.723  10.519  13.460
79579SOL    HW140634  13.662  10.486  13.393
79579SOL    HW240635  13.807  10.480  13.436
79580SOL     OW40636  10.795  11.091   5.190
79580SOL    HW140637  10.840  11.018   5.148
79580SOL    HW240638  10.702  11.075   5.172
79581SOL     OW40639   5.537   8.709  14.424
79581SOL    HW140640   5.453   8.682  14.463
79581SOL    HW240641   5.600   8.701  14.495
79582SOL     OW40642   3.606   6.350   0.826
79582SOL    HW140643   3.523   6.317   0.792
79582SOL    HW240644   3.667   6.276   0.818
79583SOL     OW40645   6.294   2.254   1.934
79583SOL    HW140646   6.261   2.164   1.945
79583SOL    HW240647   6.247   2.304   2.000
79584SOL     OW40648   3.692   3.631   5.478
79584SOL    HW140649   3.641   3.695   5.529
79584SOL    HW240650   3.751   3.685   5.425
79585SOL     OW40651   1.046   0.396   9.210
79585SOL    HW140652   1.125   0.387   9.264
79585SOL    HW240653   1.077   0.391   9.120
79586SOL     OW40654   3.237   7.364   4.127
79586SOL    HW140655   3.306   7.308   4.162
79586SOL    HW240656   3.189   7.395   4.204
79587SOL     OW40657   5.345   5.984   1.302
79587SOL    HW140658   5.344   5.953   1.392
79587SOL    HW240659   5.418   6.047   1.299
79588SOL     OW40660   8.824   4.014   6.224
79588SOL    HW140661   8.811   3.984   6.314
79588SOL    HW240662   8.753   4.076   6.210
79589SOL     OW40663   7.332   2.748   9.707
79589SOL    HW140664   7.300   2.658   9.718
79589SOL    HW240665   7.371   2.770   9.792
79590SOL     OW40666  13.635   7.205  10.898
79590SOL    HW140667  13.591   7.121  10.890
79590SOL    HW240668  13.667   7.224  10.809
79591SOL     OW40669   4.793  14.566   8.007
79591SOL    HW140670   4.699  14.551   8.009
79591SOL    HW240671   4.830  14.479   7.990
79592SOL     OW40672  10.110   2.566   1.105
79592SOL    HW140673  10.070   2.621   1.037
79592SOL    HW240674  10.200   2.555   1.077
79593SOL     OW40675   9.691  13.011  11.056
79593SOL    HW140676   9.733  12.992  10.972
79593SOL    HW240677   9.645  13.093  11.042
79594SOL     OW40678  10.371   8.935   0.638
79594SOL    HW140679  10.309   8.933   0.711
79594SOL    HW240680  10.421   8.853   0.647
79595SOL     OW40681   2.340   6.649   3.282
79595SOL    HW140682   2.415   6.663   3.340
79595SOL    HW240683   2.286   6.727   3.294
79596SOL     OW40684   1.185   9.060   3.104
79596SOL    HW140685   1.278   9.038   3.112
79596SOL    HW240686   1.145   8.979   3.073
79597SOL     OW40687   7.859   9.755  12.137
79597SOL    HW140688   7.767   9.746  12.163
79597SOL    HW240689   7.905   9.777  12.218
79598SOL     OW40690  11.446   0.326  14.401
79598SOL    HW140691  11.490   0.261  14.455
79598SOL    HW240692  11.516   0.369  14.352
79599SOL     OW40693  11.623   1.633   0.553
79599SOL    HW140694  11.706   1.639   0.505
79599SOL    HW240695  11.620   1.543   0.585
79600SOL     OW40696   3.224  10.187   1.306
79600SOL    HW140697   3.234  10.170   1.212
79600SOL    HW240698   3.220  10.282   1.313
79601SOL     OW40699   0.690   1.980   2.185
79601SOL    HW140700   0.738   2.025   2.115
79601SOL    HW240701   0.706   1.887   2.170
79602SOL     OW40702  13.628  13.406  14.791
79602SOL    HW140703  13.562  13.338  14.802
79602SOL    HW240704  13.593  13.481  14.838
79603SOL     OW40705   3.950  12.652   7.690
79603SOL    HW140706   3.967  12.717   7.622
79603SOL    HW240707   3.967  12.568   7.647
79604SOL     OW40708  13.563   3.248   5.079
79604SOL    HW140709  13.516   3.300   5.014
79604SOL    HW240710  13.648   3.231   5.040
79605SOL     OW40711  13.056   7.081  12.698
79605SOL    HW140712  13.116   7.074  12.772
79605SOL    HW240713  12.994   7.008  12.709
79606SOL     OW40714   1.064   9.615   6.927
79606SOL    HW140715   1.141   9.609   6.984
79606SOL    HW240716   1.099   9.645   6.843
79607SOL     OW40717   9.980  11.387  14.516
79607SOL    HW140718   9.924  11.437  14.456
79607SOL    HW240719   9.967  11.429  14.601
79608SOL     OW40720   9.984   7.849  13.352
79608SOL    HW140721   9.895   7.833  13.384
79608SOL    HW240722  10.030   7.767  13.367
79609SOL     OW40723  10.470   0.903   9.980
79609SOL    HW140724  10.394   0.855  10.012
79609SOL    HW240725  10.434   0.979   9.935
79610SOL     OW40726  14.864   0.646   7.959
79610SOL    HW140727   0.012   0.699   7.881
79610SOL    HW240728  14.816   0.570   7.927
79611SOL     OW40729  10.668   3.904   7.354
79611SOL    HW140730  10.655   3.810   7.354
79611SOL    HW240731  10.713   3.922   7.272
79612SOL     OW40732   5.491   7.437  11.862
79612SOL    HW140733   5.536   7.487  11.794
79612SOL    HW240734   5.465   7.502  11.927
79613SOL     OW40735   1.647   2.620   5.102
79613SOL    HW140736   1.627   2.590   5.013
79613SOL    HW240737   1.742   2.608   5.110
79614SOL     OW40738   7.178  11.250   3.267
79614SOL    HW140739   7.157  11.341   3.250
79614SOL    HW240740   7.155  11.237   3.360
79615SOL     OW40741   5.222   8.083  11.508
79615SOL    HW140742   5.151   8.041  11.458
79615SOL    HW240743   5.208   8.176  11.493
79616SOL     OW40744  12.994  13.124  11.978
79616SOL    HW140745  12.964  13.173  11.902
79616SOL    HW240746  12.923  13.134  12.042
79617SOL     OW40747  13.445   4.126  11.302
79617SOL    HW140748  13.440   4.191  11.373
79617SOL    HW240749  13.487   4.173  11.230
79618SOL     OW40750  13.989   6.175  13.353
79618SOL    HW140751  14.048   6.143  13.421
79618SOL    HW240752  13.928   6.232  13.399
79619SOL     OW40753   6.834   3.498   3.311
79619SOL    HW140754   6.799   3.582   3.340
79619SOL    HW240755   6.838   3.505   3.216
79620SOL     OW40756   4.266  14.293  10.765
79620SOL    HW140757   4.258  14.211  10.715
79620SOL    HW240758   4.206  14.282  10.839
79621SOL     OW40759   8.468   1.284  14.030
79621SOL    HW140760   8.559   1.291  14.060
79621SOL    HW240761   8.473   1.231  13.950
79622SOL     OW40762   6.299   9.790   1.388
79622SOL    HW140763   6.318   9.832   1.472
79622SOL    HW240764   6.385   9.770   1.351
79623SOL     OW40765  10.270   1.789  11.141
79623SOL    HW140766  10.195   1.843  11.165
79623SOL    HW240767  10.302   1.753  11.224
79624SOL     OW40768   7.658   0.536   0.602
79624SOL    HW140769   7.726   0.601   0.588
79624SOL    HW240770   7.649   0.532   0.697
79625SOL     OW40771   7.490   5.195   8.226
79625SOL    HW140772   7.557   5.262   8.236
79625SOL    HW240773   7.527   5.117   8.265
79626SOL     OW40774   5.948  11.345   2.658
79626SOL    HW140775   5.994  11.296   2.727
79626SOL    HW240776   6.001  11.331   2.580
79627SOL     OW40777   8.880  14.567   1.279
79627SOL    HW140778   8.938  14.546   1.352
79627SOL    HW240779   8.896  14.497   1.215
79628SOL     OW40780   3.412   6.927   2.840
79628SOL    HW140781   3.379   6.939   2.929
79628SOL    HW240782   3.373   6.844   2.811
79629SOL     OW40783   1.126   4.228   0.298
79629SOL    HW140784   1.146   4.320   0.286
79629SOL    HW240785   1.180   4.182   0.234
79630SOL     OW40786  12.034  13.881  11.505
79630SOL    HW140787  12.118  13.920  11.482
79630SOL    HW240788  12.037  13.794  11.465
79631SOL     OW40789   8.755  13.754  10.914
79631SOL    HW140790   8.741  13.673  10.963
79631SOL    HW240791   8.673  13.803  10.926
79632SOL     OW40792  12.262   9.819   5.459
79632SOL    HW140793  12.200   9.858   5.397
79632SOL    HW240794  12.211   9.809   5.539
79633SOL     OW40795  13.501   8.002   0.402
79633SOL    HW140796  13.585   8.007   0.448
79633SOL    HW240797  13.501   7.915   0.362
79634SOL     OW40798   6.083   7.052   4.227
79634SOL    HW140799   5.989   7.071   4.221
79634SOL    HW240800   6.120   7.091   4.147
79635SOL     OW40801   5.994  14.302   7.830
79635SOL    HW140802   6.043  14.358   7.891
79635SOL    HW240803   6.036  14.316   7.745
79636SOL     OW40804  13.667   9.739   9.268
79636SOL    HW140805  13.673   9.813   9.206
79636SOL    HW240806  13.645   9.780   9.351
79637SOL     OW40807   7.858   3.050  10.164
79637SOL    HW140808   7.875   2.973  10.110
79637SOL    HW240809   7.812   3.111  10.106
79638SOL     OW40810  13.070  14.721   2.622
79638SOL    HW140811  13.148  14.733   2.677
79638SOL    HW240812  13.008  14.787   2.654
79639SOL     OW40813   5.230   8.344   8.814
79639SOL    HW140814   5.208   8.435   8.835
79639SOL    HW240815   5.153   8.294   8.840
79640SOL     OW40816  10.999   3.992   1.315
79640SOL    HW140817  11.052   3.998   1.395
79640SOL    HW240818  11.047   4.044   1.251
79641SOL     OW40819  14.763  10.199   9.989
79641SOL    HW140820  14.752  10.254  10.067
79641SOL    HW240821  14.680  10.150   9.983
79642SOL     OW40822   0.503   3.678   1.117
79642SOL    HW140823   0.581   3.626   1.137
79642SOL    HW240824   0.449   3.621   1.062
79643SOL     OW40825   3.729   1.970   3.469
79643SOL    HW140826   3.683   1.927   3.541
79643SOL    HW240827   3.724   2.064   3.490
79644SOL     OW40828   3.482   9.899   2.920
79644SOL    HW140829   3.545   9.970   2.905
79644SOL    HW240830   3.534   9.831   2.963
79645SOL     OW40831   1.503   9.122   2.172
79645SOL    HW140832   1.529   9.174   2.247
79645SOL    HW240833   1.573   9.134   2.108
79646SOL     OW40834   0.587   0.840   5.355
79646SOL    HW140835   0.588   0.902   5.282
79646SOL    HW240836   0.638   0.883   5.423
79647SOL     OW40837  12.548   7.080  11.429
79647SOL    HW140838  12.632   7.124  11.437
79647SOL    HW240839  12.506   7.121  11.353
79648SOL     OW40840   3.891   9.821   9.715
79648SOL    HW140841   3.900   9.727   9.700
79648SOL    HW240842   3.800   9.832   9.742
79649SOL     OW40843   8.570   7.458   0.950
79649SOL    HW140844   8.643   7.505   0.910
79649SOL    HW240845   8.492   7.490   0.904
79650SOL     OW40846   1.899  11.045   0.110
79650SOL    HW140847   1.934  10.992   0.038
79650SOL    HW240848   1.967  11.041   0.178
79651SOL     OW40849  10.198   4.196  11.971
79651SOL    HW140850  10.242   4.263  12.023
79651SOL    HW240851  10.256   4.121  11.974
79652SOL     OW40852   1.735   9.800   7.749
79652SOL    HW140853   1.761   9.868   7.687
79652SOL    HW240854   1.640   9.794   7.739
79653SOL     OW40855   3.035   4.027   0.316
79653SOL    HW140856   2.973   4.005   0.385
79653SOL    HW240857   3.088   3.948   0.306
79654SOL     OW40858   3.493   8.220  13.356
79654SOL    HW140859   3.411   8.269  13.345
79654SOL    HW240860   3.493   8.158  13.283
79655SOL     OW40861   6.636  10.118  10.103
79655SOL    HW140862   6.673  10.069  10.030
79655SOL    HW240863   6.544  10.128  10.082
79656SOL     OW40864   8.006   0.501   8.027
79656SOL    HW140865   8.051   0.536   8.104
79656SOL    HW240866   7.965   0.421   8.057
79657SOL     OW40867   5.948   3.023   9.475
79657SOL    HW140868   5.918   2.994   9.389
79657SOL    HW240869   5.996   2.949   9.510
79658SOL     OW40870   5.487   5.533  13.347
79658SOL    HW140871   5.462   5.551  13.437
79658SOL    HW240872   5.441   5.600  13.296
79659SOL     OW40873   3.376   6.274   0.706
79659SOL    HW140874   3.295   6.312   0.741
79659SOL    HW240875   3.348   6.193   0.663
79660SOL     OW40876   3.781   5.415   7.308
79660SOL    HW140877   3.713   5.408   7.241
79660SOL    HW240878   3.848   5.353   7.280
79661SOL     OW40879   1.331   7.662   9.898
79661SOL    HW140880   1.417   7.652   9.855
79661SOL    HW240881   1.301   7.572   9.912
79662SOL     OW40882   8.347  14.476   9.246
79662SOL    HW140883   8.262  14.433   9.238
79662SOL    HW240884   8.343  14.520   9.331
79663SOL     OW40885  10.780  11.984   8.754
79663SOL    HW140886  10.724  11.969   8.831
79663SOL    HW240887  10.869  11.973   8.787
79664SOL     OW40888   0.892  11.458   9.440
79664SOL    HW140889   0.804  11.424   9.425
79664SOL    HW240890   0.879  11.550   9.462
79665SOL     OW40891  14.483   1.660  11.457
79665SOL    HW140892  14.435   1.679  11.376
79665SOL    HW240893  14.433   1.704  11.526
79666SOL     OW40894   5.433   6.068   9.917
79666SOL    HW140895   5.400   6.085  10.005
79666SOL    HW240896   5.357   6.033   9.869
79667SOL     OW40897   2.698  12.672  14.703
79667SOL    HW140898   2.711  12.686  14.610
79667SOL    HW240899   2.603  12.678  14.715
79668SOL     OW40900   9.291   8.287  11.276
79668SOL    HW140901   9.334   8.327  11.351
79668SOL    HW240902   9.201   8.272  11.304
79669SOL     OW40903  13.904  10.605  11.813
79669SOL    HW140904  13.878  10.640  11.898
79669SOL    HW240905  13.974  10.663  11.784
79670SOL     OW40906   9.501   7.467   4.688
79670SOL    HW140907   9.441   7.410   4.640
79670SOL    HW240908   9.556   7.407   4.739
79671SOL     OW40909   8.444   9.970   8.818
79671SOL    HW140910   8.413  10.042   8.872
79671SOL    HW240911   8.498   9.917   8.878
79672SOL     OW40912  13.636  13.374   3.840
79672SOL    HW140913  13.576  13.376   3.915
79672SOL    HW240914  13.699  13.304   3.861
79673SOL     OW40915   1.221  14.381   8.073
79673SOL    HW140916   1.195  14.295   8.106
79673SOL    HW240917   1.173  14.443   8.128
79674SOL     OW40918   9.429   4.630   3.685
79674SOL    HW140919   9.430   4.701   3.621
79674SOL    HW240920   9.407   4.672   3.768
79675SOL     OW40921   8.201  13.696   5.400
79675SOL    HW140922   8.241  13.609   5.392
79675SOL    HW240923   8.107  13.677   5.406
79676SOL     OW40924  12.002   8.583  12.047
79676SOL    HW140925  12.067   8.646  12.016
79676SOL    HW240926  12.035   8.498  12.016
79677SOL     OW40927  13.229   9.795   2.763
79677SOL    HW140928  13.212   9.769   2.853
79677SOL    HW240929  13.320   9.769   2.747
79678SOL     OW40930   0.948  12.198   7.624
79678SOL    HW140931   0.960  12.241   7.539
79678SOL    HW240932   0.991  12.255   7.687
79679SOL     OW40933   5.174   3.883   9.675
79679SOL    HW140934   5.194   3.813   9.738
79679SOL    HW240935   5.119   3.840   9.609
79680SOL     OW40936   5.569   5.906  10.200
79680SOL    HW140937   5.474   5.913  10.206
79680SOL    HW240938   5.599   5.996  10.187
79681SOL     OW40939   1.769   7.860   8.456
79681SOL    HW140940   1.676   7.845   8.471
79681SOL    HW240941   1.791   7.935   8.511
79682SOL     OW40942   8.194  11.863   6.605
79682SOL    HW140943   8.138  11.929   6.563
79682SOL    HW240944   8.166  11.863   6.696
79683SOL     OW40945   7.580   7.536   9.195
79683SOL    HW140946   7.498   7.516   9.150
79683SOL    HW240947   7.553   7.553   9.286
79684SOL     OW40948   0.223   8.310   0.633
79684SOL    HW140949   0.145   8.256   0.625
79684SOL    HW240950   0.270   8.274   0.709
79685SOL     OW40951   0.447  13.915   9.435
79685SOL    HW140952   0.526  13.970   9.433
79685SOL    HW240953   0.421  13.916   9.527
79686SOL     OW40954   6.250   5.878   6.442
79686SOL    HW140955   6.155   5.887   6.438
79686SOL    HW240956   6.267   5.792   6.404
79687SOL     OW40957   1.918   7.126   1.415
79687SOL    HW140958   1.840   7.171   1.448
79687SOL    HW240959   1.991   7.176   1.451
79688SOL     OW40960   3.773   4.552   1.486
79688SOL    HW140961   3.849   4.513   1.442
79688SOL    HW240962   3.797   4.556   1.578
79689SOL     OW40963   1.860  10.607  11.473
79689SOL    HW140964   1.770  10.595  11.443
79689SOL    HW240965   1.906  10.529  11.444
79690SOL     OW40966   2.084  11.462   6.430
79690SOL    HW140967   2.063  11.544   6.474
79690SOL    HW240968   2.136  11.413   6.494
79691SOL     OW40969   7.988  14.676  10.816
79691SOL    HW140970   7.946  14.619  10.880
79691SOL    HW240971   7.937  14.664  10.736
79692SOL     OW40972  10.467   8.179  13.226
79692SOL    HW140973  10.487   8.197  13.318
79692SOL    HW240974  10.457   8.084  13.222
79693SOL     OW40975  14.430   5.154   1.691
79693SOL    HW140976  14.464   5.242   1.670
79693SOL    HW240977  14.486   5.123   1.761
79694SOL     OW40978   6.555   2.414  10.842
79694SOL    HW140979   6.547   2.401  10.936
79694SOL    HW240980   6.634   2.467  10.831
79695SOL     OW40981   9.253  10.231  12.226
79695SOL    HW140982   9.270  10.326  12.228
79695SOL    HW240983   9.296  10.197  12.304
79696SOL     OW40984   7.745  14.035   8.463
79696SOL    HW140985   7.679  13.967   8.476
79696SOL    HW240986   7.827  13.987   8.451
79697SOL     OW40987   3.677  11.181   9.969
79697SOL    HW140988   3.677  11.169   9.874
79697SOL    HW240989   3.585  11.174   9.995
79698SOL     OW40990   9.310   0.827   0.441
79698SOL    HW140991   9.295   0.889   0.512
79698SOL    HW240992   9.390   0.781   0.465
79699SOL     OW40993  10.258   4.711   4.995
79699SOL    HW140994  10.183   4.770   4.987
79699SOL    HW240995  10.246   4.669   5.080
79700SOL     OW40996   8.718   0.179   6.623
79700SOL    HW140997   8.694   0.271   6.625
79700SOL    HW240998   8.713   0.155   6.530
79701SOL     OW40999  12.454   6.123   3.301
79701SOL    HW141000  12.506   6.062   3.248
79701SOL    HW241001  12.439   6.198   3.243
79702SOL     OW41002  13.612   0.515   3.525
79702SOL    HW141003  13.567   0.432   3.512
79702SOL    HW241004  13.640   0.542   3.438
79703SOL     OW41005   8.374  11.225   8.360
79703SOL    HW141006   8.347  11.225   8.452
79703SOL    HW241007   8.468  11.209   8.364
79704SOL     OW41008   4.083  12.742   8.961
79704SOL    HW141009   4.124  12.764   8.878
79704SOL    HW241010   4.151  12.757   9.027
79705SOL     OW41011   7.480  11.482   5.785
79705SOL    HW141012   7.457  11.494   5.693
79705SOL    HW241013   7.492  11.571   5.819
79706SOL     OW41014  13.346   5.305   7.570
79706SOL    HW141015  13.302   5.371   7.624
79706SOL    HW241016  13.407   5.261   7.629
79707SOL     OW41017  14.285   6.670  11.699
79707SOL    HW141018  14.332   6.747  11.665
79707SOL    HW241019  14.266   6.692  11.790
79708SOL     OW41020   9.195   9.625  11.334
79708SOL    HW141021   9.104   9.610  11.306
79708SOL    HW241022   9.194   9.715  11.369
79709SOL     OW41023   7.324   4.485   8.417
79709SOL    HW141024   7.408   4.499   8.374
79709SOL    HW241025   7.286   4.410   8.371
79710SOL     OW41026   3.199   4.503   2.203
79710SOL    HW141027   3.147   4.538   2.275
79710SOL    HW241028   3.176   4.410   2.200
79711SOL     OW41029   1.400  10.496   1.112
79711SOL    HW141030   1.430  10.574   1.066
79711SOL    HW241031   1.413  10.516   1.205
79712SOL     OW41032   4.898  11.642  12.442
79712SOL    HW141033   4.978  11.691  12.460
79712SOL    HW241034   4.867  11.613  12.528
79713SOL     OW41035   3.130  13.244   7.112
79713SOL    HW141036   3.089  13.304   7.049
79713SOL    HW241037   3.220  13.277   7.121
79714SOL     OW41038  11.930   9.062   4.898
79714SOL    HW141039  12.014   9.107   4.904
79714SOL    HW241040  11.897   9.086   4.811
79715SOL     OW41041  13.819   9.078  14.576
79715SOL    HW141042  13.751   9.112  14.518
79715SOL    HW241043  13.856   9.156  14.617
79716SOL     OW41044  14.326   9.685   7.183
79716SOL    HW141045  14.330   9.590   7.181
79716SOL    HW241046  14.234   9.705   7.198
79717SOL     OW41047   3.075  11.683  10.244
79717SOL    HW141048   3.129  11.619  10.290
79717SOL    HW241049   2.986  11.666  10.275
79718SOL     OW41050   8.678   0.213   1.114
79718SOL    HW141051   8.590   0.200   1.080
79718SOL    HW241052   8.703   0.128   1.151
79719SOL     OW41053   7.565   2.159   0.516
79719SOL    HW141054   7.537   2.070   0.539
79719SOL    HW241055   7.613   2.148   0.434
79720SOL     OW41056   3.653   3.562  10.946
79720SOL    HW141057   3.744   3.579  10.921
79720SOL    HW241058   3.657   3.483  11.000
79721SOL     OW41059   5.372   5.141   0.778
79721SOL    HW141060   5.399   5.215   0.724
79721SOL    HW241061   5.454   5.104   0.811
79722SOL     OW41062  12.851   6.019  10.736
79722SOL    HW141063  12.827   6.109  10.717
79722SOL    HW241064  12.778   5.967  10.701
79723SOL     OW41065   9.425   6.482  13.190
79723SOL    HW141066   9.331   6.481  13.171
79723SOL    HW241067   9.462   6.416  13.131
79724SOL     OW41068  12.108   0.303  10.312
79724SOL    HW141069  12.079   0.392  10.333
79724SOL    HW241070  12.028   0.256  10.290
79725SOL     OW41071   4.179   1.448   5.865
79725SOL    HW141072   4.140   1.527   5.902
79725SOL    HW241073   4.273   1.460   5.878
79726SOL     OW41074   4.003   2.577   1.277
79726SOL    HW141075   3.975   2.492   1.244
79726SOL    HW241076   3.921   2.624   1.295
79727SOL     OW41077   0.869  14.519   0.238
79727SOL    HW141078   0.910  14.571   0.308
79727SOL    HW241079   0.822  14.584   0.186
79728SOL     OW41080   2.683   9.739  10.724
79728SOL    HW141081   2.727   9.703  10.801
79728SOL    HW241082   2.650   9.824  10.752
79729SOL     OW41083  10.580  11.573   1.010
79729SOL    HW141084  10.617  11.658   1.033
79729SOL    HW241085  10.593  11.519   1.089
79730SOL     OW41086   3.126   2.796  13.189
79730SOL    HW141087   3.206   2.754  13.222
79730SOL    HW241088   3.153   2.835  13.105
79731SOL     OW41089   8.109  10.647   8.581
79731SOL    HW141090   8.049  10.592   8.531
79731SOL    HW241091   8.056  10.683   8.652
79732SOL     OW41092   2.141   3.125   8.756
79732SOL    HW141093   2.223   3.131   8.804
79732SOL    HW241094   2.157   3.173   8.675
79733SOL     OW41095   0.560   1.858   1.909
79733SOL    HW141096   0.640   1.877   1.861
79733SOL    HW241097   0.497   1.923   1.879
79734SOL     OW41098   0.472   4.977  10.022
79734SOL    HW141099   0.455   4.976   9.928
79734SOL    HW241100   0.567   4.974  10.030
79735SOL     OW41101  13.371   0.511   4.078
79735SOL    HW141102  13.296   0.570   4.086
79735SOL    HW241103  13.402   0.525   3.988
79736SOL     OW41104   6.818  10.203   2.738
79736SOL    HW141105   6.735  10.181   2.779
79736SOL    HW241106   6.873  10.126   2.752
79737SOL     OW41107  12.246   9.228  12.211
79737SOL    HW141108  12.165   9.274  12.192
79737SOL    HW241109  12.306   9.296  12.241
79738SOL     OW41110  12.652  13.978  13.967
79738SOL    HW141111  12.671  13.918  13.896
79738SOL    HW241112  12.564  13.954  13.997
79739SOL     OW41113  11.383   9.291  13.875
79739SOL    HW141114  11.467   9.257  13.904
79739SOL    HW241115  11.380   9.270  13.781
79740SOL     OW41116   7.781   7.037  13.154
79740SOL    HW141117   7.739   7.063  13.072
79740SOL    HW241118   7.860   6.991  13.127
79741SOL     OW41119  10.633   5.961   7.092
79741SOL    HW141120  10.636   5.922   7.179
79741SOL    HW241121  10.706   6.023   7.090
79742SOL     OW41122   1.822   6.577   5.419
79742SOL    HW141123   1.867   6.499   5.451
79742SOL    HW241124   1.772   6.548   5.343
79743SOL     OW41125   6.120   7.186   4.693
79743SOL    HW141126   6.160   7.269   4.669
79743SOL    HW241127   6.154   7.123   4.629
79744SOL     OW41128  12.978  12.632   0.731
79744SOL    HW141129  12.997  12.663   0.820
79744SOL    HW241130  12.990  12.537   0.735
79745SOL     OW41131  10.830   3.660   0.399
79745SOL    HW141132  10.762   3.618   0.346
79745SOL    HW241133  10.885   3.588   0.429
79746SOL     OW41134  13.833  14.855   8.531
79746SOL    HW141135  13.789   0.024   8.607
79746SOL    HW241136  13.885  14.784   8.567
79747SOL     OW41137  11.304  10.129   1.774
79747SOL    HW141138  11.265  10.092   1.852
79747SOL    HW241139  11.270  10.076   1.702
79748SOL     OW41140   9.238   8.163  11.609
79748SOL    HW141141   9.305   8.139  11.545
79748SOL    HW241142   9.284   8.167  11.693
79749SOL     OW41143   5.129   6.695   5.383
79749SOL    HW141144   5.093   6.607   5.394
79749SOL    HW241145   5.066   6.752   5.428
79750SOL     OW41146   1.100   5.685   7.192
79750SOL    HW141147   1.170   5.741   7.226
79750SOL    HW241148   1.094   5.614   7.256
79751SOL     OW41149  14.265   1.809  11.374
79751SOL    HW141150  14.294   1.869  11.306
79751SOL    HW241151  14.205   1.749  11.331
79752SOL     OW41152   4.053  11.717   3.554
79752SOL    HW141153   4.018  11.699   3.641
79752SOL    HW241154   3.993  11.672   3.494
79753SOL     OW41155  10.766  12.197   4.265
79753SOL    HW141156  10.743  12.286   4.291
79753SOL    HW241157  10.827  12.209   4.192
79754SOL     OW41158   7.934   8.455   7.085
79754SOL    HW141159   7.914   8.431   6.995
79754SOL    HW241160   8.019   8.499   7.080
79755SOL     OW41161   1.541   8.187   0.113
79755SOL    HW141162   1.533   8.222   0.202
79755SOL    HW241163   1.498   8.102   0.116
79756SOL     OW41164  13.110   4.428   3.241
79756SOL    HW141165  13.038   4.433   3.178
79756SOL    HW241166  13.087   4.491   3.309
79757SOL     OW41167  12.100   0.193   0.886
79757SOL    HW141168  12.102   0.286   0.866
79757SOL    HW241169  12.046   0.154   0.817
79758SOL     OW41170   8.120  11.351   1.298
79758SOL    HW141171   8.175  11.303   1.361
79758SOL    HW241172   8.039  11.302   1.294
79759SOL     OW41173   5.227   5.868   2.288
79759SOL    HW141174   5.215   5.854   2.382
79759SOL    HW241175   5.304   5.816   2.266
79760SOL     OW41176   9.689   3.824   9.441
79760SOL    HW141177   9.666   3.830   9.348
79760SOL    HW241178   9.625   3.763   9.477
79761SOL     OW41179   9.248   4.466   8.699
79761SOL    HW141180   9.287   4.448   8.614
79761SOL    HW241181   9.264   4.386   8.750
79762SOL     OW41182  13.609   8.927   1.146
79762SOL    HW141183  13.648   8.849   1.105
79762SOL    HW241184  13.639   9.000   1.091
79763SOL     OW41185   1.098  12.235   8.359
79763SOL    HW141186   1.030  12.167   8.361
79763SOL    HW241187   1.127  12.237   8.267
79764SOL     OW41188   5.687   2.801  11.391
79764SOL    HW141189   5.636   2.863  11.338
79764SOL    HW241190   5.663   2.822  11.481
79765SOL     OW41191   0.255  13.035  12.069
79765SOL    HW141192   0.350  13.031  12.081
79765SOL    HW241193   0.224  13.088  12.144
79766SOL     OW41194   6.697  12.854   3.340
79766SOL    HW141195   6.792  12.841   3.338
79766SOL    HW241196   6.672  12.859   3.248
79767SOL     OW41197   8.616   4.183   6.136
79767SOL    HW141198   8.580   4.143   6.057
79767SOL    HW241199   8.554   4.253   6.157
79768SOL     OW41200   7.726   9.862   8.633
79768SOL    HW141201   7.767   9.937   8.590
79768SOL    HW241202   7.634   9.887   8.642
79769SOL     OW41203  11.383  12.841  14.515
79769SOL    HW141204  11.468  12.853  14.559
79769SOL    HW241205  11.345  12.928  14.513
79770SOL     OW41206  13.264  12.801   0.631
79770SOL    HW141207  13.352  12.827   0.658
79770SOL    HW241208  13.219  12.780   0.713
79771SOL     OW41209   8.499   8.901  12.881
79771SOL    HW141210   8.436   8.895  12.953
79771SOL    HW241211   8.513   8.995  12.870
79772SOL     OW41212   8.553   5.305  12.573
79772SOL    HW141213   8.637   5.267  12.547
79772SOL    HW241214   8.487   5.247  12.535
79773SOL     OW41215   9.252  12.256   0.218
79773SOL    HW141216   9.242  12.338   0.168
79773SOL    HW241217   9.333  12.217   0.184
79774SOL     OW41218   8.061  10.866   2.061
79774SOL    HW141219   8.133  10.813   2.096
79774SOL    HW241220   8.066  10.854   1.966
79775SOL     OW41221   6.124  11.081  10.343
79775SOL    HW141222   6.081  11.148  10.289
79775SOL    HW241223   6.053  11.021  10.367
79776SOL     OW41224   3.100  14.056   6.111
79776SOL    HW141225   3.186  14.018   6.127
79776SOL    HW241226   3.076  14.098   6.193
79777SOL     OW41227  13.875  11.171   3.280
79777SOL    HW141228  13.930  11.151   3.356
79777SOL    HW241229  13.908  11.115   3.210
79778SOL     OW41230   4.871   5.710   5.566
79778SOL    HW141231   4.887   5.800   5.537
79778SOL    HW241232   4.932   5.698   5.639
79779SOL     OW41233   0.433   6.792   5.468
79779SOL    HW141234   0.521   6.755   5.456
79779SOL    HW241235   0.447   6.870   5.522
79780SOL     OW41236   4.121   5.713  12.504
79780SOL    HW141237   4.164   5.792  12.471
79780SOL    HW241238   4.033   5.741  12.526
79781SOL     OW41239  12.819   5.796  11.277
79781SOL    HW141240  12.727   5.799  11.304
79781SOL    HW241241  12.865   5.851  11.341
79782SOL     OW41242  11.378   8.943  10.097
79782SOL    HW141243  11.455   8.889  10.113
79782SOL    HW241244  11.307   8.881  10.084
79783SOL     OW41245  10.091  14.805  12.922
79783SOL    HW141246  10.013  14.859  12.935
79783SOL    HW241247  10.103  14.761  13.006
79784SOL     OW41248   3.425   2.463   0.573
79784SOL    HW141249   3.405   2.550   0.538
79784SOL    HW241250   3.413   2.404   0.499
79785SOL     OW41251   5.717   5.513   8.455
79785SOL    HW141252   5.695   5.533   8.546
79785SOL    HW241253   5.789   5.450   8.461
79786SOL     OW41254  13.395   4.002  10.262
79786SOL    HW141255  13.320   3.999  10.202
79786SOL    HW241256  13.458   3.941  10.224
79787SOL     OW41257   6.441   0.659   4.478
79787SOL    HW141258   6.454   0.634   4.387
79787SOL    HW241259   6.476   0.748   4.484
79788SOL     OW41260  14.019   2.230   8.841
79788SOL    HW141261  13.982   2.172   8.907
79788SOL    HW241262  14.083   2.175   8.795
79789SOL     OW41263   5.171  12.748   0.326
79789SOL    HW141264   5.255  12.767   0.285
79789SOL    HW241265   5.169  12.653   0.335
79790SOL     OW41266   9.725   7.100  11.613
79790SOL    HW141267   9.703   7.082  11.522
79790SOL    HW241268   9.663   7.168  11.640
79791SOL     OW41269  11.328   5.757  14.769
79791SOL    HW141270  11.298   5.833  14.819
79791SOL    HW241271  11.359   5.696  14.836
79792SOL     OW41272   5.959   0.624  11.810
79792SOL    HW141273   5.997   0.604  11.724
79792SOL    HW241274   5.907   0.546  11.832
79793SOL     OW41275   7.666   4.706  13.444
79793SOL    HW141276   7.663   4.740  13.533
79793SOL    HW241277   7.702   4.617  13.455
79794SOL     OW41278   7.824  10.271   8.016
79794SOL    HW141279   7.774  10.235   8.090
79794SOL    HW241280   7.912  10.285   8.051
79795SOL     OW41281   0.252   2.055   6.376
79795SOL    HW141282   0.324   1.992   6.384
79795SOL    HW241283   0.293   2.141   6.384
79796SOL     OW41284  11.147   6.115  11.612
79796SOL    HW141285  11.105   6.195  11.643
79796SOL    HW241286  11.076   6.064  11.573
79797SOL     OW41287   5.351   7.318  12.716
79797SOL    HW141288   5.335   7.225  12.732
79797SOL    HW241289   5.404   7.346  12.791
79798SOL     OW41290   6.506   0.949  12.266
79798SOL    HW141291   6.551   0.985  12.189
79798SOL    HW241292   6.519   1.015  12.334
79799SOL     OW41293  14.675  13.262   8.786
79799SOL    HW141294  14.702  13.334   8.844
79799SOL    HW241295  14.660  13.304   8.701
79800SOL     OW41296   9.613   4.039   5.683
79800SOL    HW141297   9.548   4.039   5.613
79800SOL    HW241298   9.657   3.954   5.674
79801SOL     OW41299   0.828  14.159  10.424
79801SOL    HW141300   0.889  14.210  10.372
79801SOL    HW241301   0.865  14.158  10.512
79802SOL     OW41302   5.760   9.717  11.625
79802SOL    HW141303   5.740   9.810  11.622
79802SOL    HW241304   5.855   9.713  11.640
79803SOL     OW41305  12.049   7.613  12.574
79803SOL    HW141306  11.991   7.682  12.606
79803SOL    HW241307  12.034   7.539  12.633
79804SOL     OW41308   9.759   7.497   8.917
79804SOL    HW141309   9.854   7.487   8.922
79804SOL    HW241310   9.727   7.415   8.879
79805SOL     OW41311   1.578  11.706  13.223
79805SOL    HW141312   1.519  11.761  13.274
79805SOL    HW241313   1.630  11.767  13.171
79806SOL     OW41314   7.991   7.727   5.883
79806SOL    HW141315   8.058   7.664   5.856
79806SOL    HW241316   8.022   7.760   5.967
79807SOL     OW41317  13.179   2.146   7.043
79807SOL    HW141318  13.268   2.138   7.007
79807SOL    HW241319  13.125   2.095   6.983
79808SOL     OW41320  11.033  13.142   4.350
79808SOL    HW141321  11.013  13.141   4.257
79808SOL    HW241322  10.960  13.095   4.391
79809SOL     OW41323   1.624  14.780   1.436
79809SOL    HW141324   1.715  14.755   1.419
79809SOL    HW241325   1.630  14.853   1.497
79810SOL     OW41326  11.890  11.816   5.423
79810SOL    HW141327  11.852  11.730   5.439
79810SOL    HW241328  11.839  11.853   5.351
79811SOL     OW41329   7.840   2.517   6.866
79811SOL    HW141330   7.790   2.450   6.820
79811SOL    HW241331   7.924   2.519   6.820
79812SOL     OW41332   9.402   9.259   3.075
79812SOL    HW141333   9.315   9.268   3.112
79812SOL    HW241334   9.462   9.273   3.148
79813SOL     OW41335   2.517   4.120  10.010
79813SOL    HW141336   2.536   4.116   9.916
79813SOL    HW241337   2.435   4.168  10.015
79814SOL     OW41338   2.355   0.831   5.156
79814SOL    HW141339   2.424   0.887   5.120
79814SOL    HW241340   2.394   0.744   5.160
79815SOL     OW41341   7.188   0.822   5.263
79815SOL    HW141342   7.105   0.861   5.237
79815SOL    HW241343   7.168   0.730   5.281
79816SOL     OW41344   5.777   9.465   8.491
79816SOL    HW141345   5.778   9.555   8.524
79816SOL    HW241346   5.760   9.412   8.569
79817SOL     OW41347  11.457   2.996   6.288
79817SOL    HW141348  11.502   2.965   6.366
79817SOL    HW241349  11.498   2.947   6.216
79818SOL     OW41350   9.765  12.217   5.539
79818SOL    HW141351   9.854  12.181   5.541
79818SOL    HW241352   9.726  12.180   5.460
79819SOL     OW41353   6.970  14.145   6.704
79819SOL    HW141354   6.973  14.196   6.785
79819SOL    HW241355   7.061  14.136   6.678
79820SOL     OW41356   6.692   9.309   4.763
79820SOL    HW141357   6.648   9.392   4.746
79820SOL    HW241358   6.688   9.299   4.858
79821SOL     OW41359  13.583   2.152  12.400
79821SOL    HW141360  13.617   2.110  12.320
79821SOL    HW241361  13.583   2.082  12.465
79822SOL     OW41362   5.054   6.151  12.121
79822SOL    HW141363   5.000   6.159  12.200
79822SOL    HW241364   5.074   6.242  12.097
79823SOL     OW41365   4.890   4.209  12.986
79823SOL    HW141366   4.880   4.279  12.922
79823SOL    HW241367   4.821   4.146  12.964
79824SOL     OW41368   3.283   8.353  13.237
79824SOL    HW141369   3.214   8.365  13.303
79824SOL    HW241370   3.268   8.424  13.174
79825SOL     OW41371   3.477  10.411   7.333
79825SOL    HW141372   3.453  10.320   7.320
79825SOL    HW241373   3.483  10.447   7.244
79826SOL     OW41374   1.704   8.931   9.399
79826SOL    HW141375   1.783   8.917   9.452
79826SOL    HW241376   1.681   8.843   9.369
79827SOL     OW41377   9.241   4.115   3.549
79827SOL    HW141378   9.163   4.163   3.521
79827SOL    HW241379   9.212   4.063   3.624
79828SOL     OW41380   7.660   5.810   1.584
79828SOL    HW141381   7.698   5.897   1.596
79828SOL    HW241382   7.566   5.826   1.574
79829SOL     OW41383   2.645   0.351   9.772
79829SOL    HW141384   2.699   0.328   9.848
79829SOL    HW241385   2.555   0.341   9.803
79830SOL     OW41386   0.296  11.119   4.512
79830SOL    HW141387   0.302  11.214   4.504
79830SOL    HW241388   0.380  11.087   4.478
79831SOL     OW41389   9.411   1.114   4.985
79831SOL    HW141390   9.434   1.062   4.908
79831SOL    HW241391   9.359   1.054   5.039
79832SOL     OW41392   5.075   2.133  10.301
79832SOL    HW141393   5.039   2.117  10.214
79832SOL    HW241394   5.117   2.050  10.325
79833SOL     OW41395   6.407   6.474   4.077
79833SOL    HW141396   6.351   6.522   4.016
79833SOL    HW241397   6.382   6.506   4.163
79834SOL     OW41398   2.443   8.258   1.662
79834SOL    HW141399   2.522   8.203   1.666
79834SOL    HW241400   2.460   8.329   1.724
79835SOL     OW41401   1.955  14.447   9.764
79835SOL    HW141402   1.884  14.410   9.712
79835SOL    HW241403   1.936  14.420   9.854
79836SOL     OW41404  10.888   3.206   6.685
79836SOL    HW141405  10.844   3.147   6.746
79836SOL    HW241406  10.823   3.273   6.664
79837SOL     OW41407  13.325   4.071   9.212
79837SOL    HW141408  13.334   4.063   9.117
79837SOL    HW241409  13.297   4.161   9.226
79838SOL     OW41410   0.532   7.239  13.604
79838SOL    HW141411   0.436   7.246  13.608
79838SOL    HW241412   0.557   7.289  13.527
79839SOL     OW41413   2.578   7.278   6.106
79839SOL    HW141414   2.595   7.234   6.023
79839SOL    HW241415   2.591   7.209   6.172
79840SOL     OW41416  11.769   3.613  11.395
79840SOL    HW141417  11.782   3.697  11.351
79840SOL    HW241418  11.694   3.574  11.350
79841SOL     OW41419   6.480   0.265   5.188
79841SOL    HW141420   6.385   0.253   5.179
79841SOL    HW241421   6.512   0.275   5.098
79842SOL     OW41422   9.124  10.678   5.165
79842SOL    HW141423   9.111  10.591   5.128
79842SOL    HW241424   9.049  10.729   5.136
79843SOL     OW41425   7.709   1.653   8.338
79843SOL    HW141426   7.711   1.558   8.339
79843SOL    HW241427   7.790   1.678   8.293
79844SOL     OW41428   0.595  11.053   9.743
79844SOL    HW141429   0.597  11.149   9.735
79844SOL    HW241430   0.622  11.021   9.657
79845SOL     OW41431   0.059   2.231  14.711
79845SOL    HW141432   0.137   2.198  14.665
79845SOL    HW241433  14.869   2.257  14.640
79846SOL     OW41434   0.982  14.789   4.732
79846SOL    HW141435   0.974   0.015   4.732
79846SOL    HW241436   0.949  14.762   4.646
79847SOL     OW41437   1.277   3.175   8.526
79847SOL    HW141438   1.341   3.105   8.536
79847SOL    HW241439   1.282   3.225   8.607
79848SOL     OW41440   5.417   0.234  13.636
79848SOL    HW141441   5.368   0.280  13.705
79848SOL    HW241442   5.376   0.263  13.555
79849SOL     OW41443   8.399   8.464   4.980
79849SOL    HW141444   8.480   8.435   4.938
79849SOL    HW241445   8.350   8.384   4.997
79850SOL     OW41446  10.541   2.222   2.018
79850SOL    HW141447  10.450   2.233   1.991
79850SOL    HW241448  10.591   2.218   1.936
79851SOL     OW41449   3.316  13.001   1.413
79851SOL    HW141450   3.376  12.963   1.349
79851SOL    HW241451   3.229  12.985   1.376
79852SOL     OW41452  11.669   2.145  14.606
79852SOL    HW141453  11.648   2.072  14.664
79852SOL    HW241454  11.596   2.148  14.544
79853SOL     OW41455   9.165   7.227   7.294
79853SOL    HW141456   9.162   7.140   7.253
79853SOL    HW241457   9.253   7.260   7.274
79854SOL     OW41458   1.008   6.099  12.802
79854SOL    HW141459   1.076   6.051  12.755
79854SOL    HW241460   0.944   6.033  12.827
79855SOL     OW41461  11.780   1.153  11.884
79855SOL    HW141462  11.746   1.223  11.939
79855SOL    HW241463  11.858   1.122  11.929
79856SOL     OW41464  14.037   9.126   7.204
79856SOL    HW141465  13.975   9.147   7.274
79856SOL    HW241466  14.038   9.204   7.149
79857SOL     OW41467  10.315   4.423   8.079
79857SOL    HW141468  10.253   4.461   8.142
79857SOL    HW241469  10.402   4.445   8.114
79858SOL     OW41470  14.212   3.829   7.082
79858SOL    HW141471  14.171   3.876   7.009
79858SOL    HW241472  14.145   3.829   7.150
79859SOL     OW41473   9.550   4.584   1.881
79859SOL    HW141474   9.456   4.575   1.898
79859SOL    HW241475   9.590   4.590   1.968
79860SOL     OW41476   0.657   7.920  13.461
79860SOL    HW141477   0.632   7.990  13.522
79860SOL    HW241478   0.597   7.848  13.481
79861SOL     OW41479   2.700  11.248   0.204
79861SOL    HW141480   2.777  11.250   0.260
79861SOL    HW241481   2.639  11.311   0.243
79862SOL     OW41482   0.046  10.635   2.026
79862SOL    HW141483   0.072  10.724   2.049
79862SOL    HW241484   0.013  10.643   1.936
79863SOL     OW41485  10.411   4.489   1.947
79863SOL    HW141486  10.451   4.520   2.029
79863SOL    HW241487  10.365   4.409   1.973
79864SOL     OW41488   5.096  14.201  12.788
79864SOL    HW141489   5.191  14.188  12.792
79864SOL    HW241490   5.078  14.262  12.859
79865SOL     OW41491   8.450   8.628   0.999
79865SOL    HW141492   8.542   8.652   0.988
79865SOL    HW241493   8.439   8.547   0.948
79866SOL     OW41494  11.255  10.240   8.598
79866SOL    HW141495  11.346  10.268   8.612
79866SOL    HW241496  11.261  10.171   8.532
79867SOL     OW41497   8.203   0.243   3.428
79867SOL    HW141498   8.155   0.219   3.348
79867SOL    HW241499   8.231   0.333   3.412
79868SOL     OW41500   3.085   0.823  12.059
79868SOL    HW141501   3.159   0.878  12.035
79868SOL    HW241502   3.052   0.861  12.140
79869SOL     OW41503   0.029   5.905   5.626
79869SOL    HW141504  14.826   5.966   5.628
79869SOL    HW241505  14.859   5.820   5.648
79870SOL     OW41506  10.690   4.723   4.188
79870SOL    HW141507  10.640   4.799   4.218
79870SOL    HW241508  10.712   4.675   4.269
79871SOL     OW41509   3.846  13.901   8.200
79871SOL    HW141510   3.812  13.882   8.112
79871SOL    HW241511   3.853  13.815   8.242
79872SOL     OW41512  14.048   0.819  13.211
79872SOL    HW141513  14.068   0.742  13.263
79872SOL    HW241514  13.992   0.873  13.268
79873SOL     OW41515   0.017  12.799  13.397
79873SOL    HW141516   0.024  12.758  13.483
79873SOL    HW241517  14.826  12.743  13.348
79874SOL     OW41518   6.244  14.333  14.377
79874SOL    HW141519   6.271  14.287  14.298
79874SOL    HW241520   6.160  14.372  14.354
79875SOL     OW41521   7.215   0.890   8.772
79875SOL    HW141522   7.122   0.870   8.764
79875SOL    HW241523   7.256   0.849   8.696
79876SOL     OW41524   6.682   8.886   1.973
79876SOL    HW141525   6.718   8.973   1.958
79876SOL    HW241526   6.706   8.865   2.063
79877SOL     OW41527   6.518   0.315   5.754
79877SOL    HW141528   6.517   0.353   5.842
79877SOL    HW241529   6.428   0.287   5.739
79878SOL     OW41530   6.008  14.085   9.770
79878SOL    HW141531   6.025  14.044   9.685
79878SOL    HW241532   6.009  14.013   9.832
79879SOL     OW41533   3.430   1.626   9.917
79879SOL    HW141534   3.398   1.685   9.986
79879SOL    HW241535   3.461   1.685   9.848
79880SOL     OW41536   3.028  10.467   9.788
79880SOL    HW141537   3.076  10.542   9.752
79880SOL    HW241538   2.973  10.504   9.856
79881SOL     OW41539   6.526   5.968  13.038
79881SOL    HW141540   6.564   5.932  13.118
79881SOL    HW241541   6.485   6.050  13.066
79882SOL     OW41542   8.093   0.137   5.494
79882SOL    HW141543   8.055   0.225   5.505
79882SOL    HW241544   8.019   0.082   5.471
79883SOL     OW41545  10.605   0.788   6.943
79883SOL    HW141546  10.553   0.713   6.915
79883SOL    HW241547  10.684   0.785   6.888
79884SOL     OW41548   0.567   9.162   3.333
79884SOL    HW141549   0.656   9.192   3.355
79884SOL    HW241550   0.570   9.067   3.348
79885SOL     OW41551   6.352   2.036   7.589
79885SOL    HW141552   6.271   1.997   7.623
79885SOL    HW241553   6.351   2.126   7.622
79886SOL     OW41554   4.568  11.902   1.093
79886SOL    HW141555   4.478  11.922   1.071
79886SOL    HW241556   4.594  11.970   1.155
79887SOL     OW41557  12.432   7.736   5.771
79887SOL    HW141558  12.514   7.783   5.788
79887SOL    HW241559  12.459   7.645   5.762
79888SOL     OW41560  14.018  14.613   3.922
79888SOL    HW141561  13.943  14.626   3.864
79888SOL    HW241562  14.045  14.701   3.948
79889SOL     OW41563   7.464   1.325   9.648
79889SOL    HW141564   7.537   1.282   9.602
79889SOL    HW241565   7.400   1.343   9.580
79890SOL     OW41566  14.719   8.759  11.014
79890SOL    HW141567  14.762   8.838  10.983
79890SOL    HW241568  14.788   8.711  11.061
79891SOL     OW41569   3.104   9.046  12.892
79891SOL    HW141570   3.119   9.011  12.980
79891SOL    HW241571   3.044   9.119  12.905
79892SOL     OW41572  10.293   2.237   3.765
79892SOL    HW141573  10.238   2.283   3.702
79892SOL    HW241574  10.341   2.307   3.810
79893SOL     OW41575   2.913  13.968   9.381
79893SOL    HW141576   2.949  14.020   9.454
79893SOL    HW241577   2.980  13.973   9.313
79894SOL     OW41578   1.486   9.198  14.188
79894SOL    HW141579   1.528   9.145  14.120
79894SOL    HW241580   1.555   9.214  14.252
79895SOL     OW41581  11.065   7.743  13.380
79895SOL    HW141582  10.975   7.772  13.370
79895SOL    HW241583  11.101   7.744  13.291
79896SOL     OW41584   5.561   7.700   8.663
79896SOL    HW141585   5.479   7.750   8.670
79896SOL    HW241586   5.586   7.708   8.571
79897SOL     OW41587  10.925  14.169  14.453
79897SOL    HW141588  10.901  14.123  14.533
79897SOL    HW241589  10.842  14.181  14.407
79898SOL     OW41590   8.015   8.451   4.478
79898SOL    HW141591   7.930   8.419   4.451
79898SOL    HW241592   8.053   8.488   4.399
79899SOL     OW41593  14.605   3.084   6.768
79899SOL    HW141594  14.546   3.122   6.703
79899SOL    HW241595  14.591   3.136   6.847
79900SOL     OW41596  10.604   9.858   2.457
79900SOL    HW141597  10.560   9.900   2.383
79900SOL    HW241598  10.697   9.863   2.436
79901SOL     OW41599   3.899  11.117  12.677
79901SOL    HW141600   3.905  11.022  12.674
79901SOL    HW241601   3.989  11.147  12.661
79902SOL     OW41602   0.007  14.065  12.126
79902SOL    HW141603  14.864  14.144  12.074
79902SOL    HW241604   0.100  14.044  12.115
79903SOL     OW41605  10.952   5.851  13.911
79903SOL    HW141606  11.008   5.873  13.837
79903SOL    HW241607  10.882   5.798  13.873
79904SOL     OW41608   1.156   0.934   8.284
79904SOL    HW141609   1.110   0.972   8.359
79904SOL    HW241610   1.193   1.009   8.238
79905SOL     OW41611  13.119  13.573   6.778
79905SOL    HW141612  13.081  13.486   6.783
79905SOL    HW241613  13.201  13.567   6.828
79906SOL     OW41614  12.993  13.706   1.469
79906SOL    HW141615  13.054  13.749   1.529
79906SOL    HW241616  13.045  13.687   1.391
79907SOL     OW41617   5.275   5.937  13.397
79907SOL    HW141618   5.321   5.994  13.335
79907SOL    HW241619   5.207   5.894  13.345
79908SOL     OW41620   5.822   9.402   0.728
79908SOL    HW141621   5.812   9.334   0.661
79908SOL    HW241622   5.874   9.470   0.685
79909SOL     OW41623  14.269   8.548   8.471
79909SOL    HW141624  14.266   8.566   8.377
79909SOL    HW241625  14.276   8.634   8.512
79910SOL     OW41626  13.142  12.470   0.428
79910SOL    HW141627  13.119  12.524   0.504
79910SOL    HW241628  13.237  12.457   0.435
79911SOL     OW41629   9.983   6.579  14.522
79911SOL    HW141630  10.012   6.669  14.536
79911SOL    HW241631  10.016   6.556  14.435
79912SOL     OW41632   1.200  14.102   9.244
79912SOL    HW141633   1.287  14.061   9.241
79912SOL    HW241634   1.184  14.116   9.338
79913SOL     OW41635   5.681   6.376  13.739
79913SOL    HW141636   5.724   6.295  13.766
79913SOL    HW241637   5.722   6.444  13.793
79914SOL     OW41638   9.111   7.494   9.679
79914SOL    HW141639   9.028   7.525   9.643
79914SOL    HW241640   9.086   7.427   9.743
79915SOL     OW41641   3.407   7.579   3.133
79915SOL    HW141642   3.460   7.499   3.134
79915SOL    HW241643   3.374   7.586   3.223
79916SOL     OW41644   4.123   7.109   7.224
79916SOL    HW141645   4.139   7.091   7.131
79916SOL    HW241646   4.046   7.167   7.223
79917SOL     OW41647  13.910  11.711  13.001
79917SOL    HW141648  13.837  11.733  13.058
79917SOL    HW241649  13.929  11.619  13.022
79918SOL     OW41650   6.992   1.669   6.376
79918SOL    HW141651   7.085   1.659   6.359
79918SOL    HW241652   6.985   1.669   6.472
79919SOL     OW41653  12.377  14.786  14.627
79919SOL    HW141654  12.355  14.851  14.560
79919SOL    HW241655  12.357  14.830  14.710
79920SOL     OW41656   5.003  11.064   4.017
79920SOL    HW141657   4.969  11.125   4.082
79920SOL    HW241658   5.092  11.095   3.999
79921SOL     OW41659  12.414   5.968   9.897
79921SOL    HW141660  12.411   5.990   9.803
79921SOL    HW241661  12.372   6.042   9.940
79922SOL     OW41662   8.574  13.849   5.554
79922SOL    HW141663   8.618  13.780   5.604
79922SOL    HW241664   8.639  13.877   5.490
79923SOL     OW41665   0.313   8.429   8.747
79923SOL    HW141666   0.359   8.454   8.667
79923SOL    HW241667   0.362   8.354   8.781
79924SOL     OW41668   7.621   7.917  12.141
79924SOL    HW141669   7.630   7.923  12.046
79924SOL    HW241670   7.614   8.008  12.170
79925SOL     OW41671   6.616   6.630   0.925
79925SOL    HW141672   6.594   6.537   0.911
79925SOL    HW241673   6.574   6.676   0.853
79926SOL     OW41674  11.757   6.322   0.205
79926SOL    HW141675  11.818   6.389   0.174
79926SOL    HW241676  11.773   6.246   0.149
79927SOL     OW41677  13.835   4.483  14.416
79927SOL    HW141678  13.742   4.459  14.419
79927SOL    HW241679  13.838   4.570  14.457
79928SOL     OW41680  11.444   0.313  10.609
79928SOL    HW141681  11.476   0.381  10.551
79928SOL    HW241682  11.473   0.339  10.696
79929SOL     OW41683   7.962   3.281  14.206
79929SOL    HW141684   7.941   3.279  14.113
79929SOL    HW241685   7.877   3.283  14.250
79930SOL     OW41686   7.967  13.120  11.370
79930SOL    HW141687   7.878  13.088  11.384
79930SOL    HW241688   8.011  13.046  11.327
79931SOL     OW41689  11.639   0.435   8.831
79931SOL    HW141690  11.601   0.392   8.907
79931SOL    HW241691  11.723   0.470   8.863
79932SOL     OW41692  10.494  13.146   2.468
79932SOL    HW141693  10.415  13.201   2.469
79932SOL    HW241694  10.503  13.114   2.558
79933SOL     OW41695   3.479   2.938   2.341
79933SOL    HW141696   3.510   2.923   2.430
79933SOL    HW241697   3.388   2.907   2.342
79934SOL     OW41698   4.187  11.168   9.545
79934SOL    HW141699   4.279  11.162   9.518
79934SOL    HW241700   4.190  11.214   9.629
79935SOL     OW41701   4.122   1.649  13.269
79935SOL    HW141702   4.111   1.565  13.224
79935SOL    HW241703   4.216   1.666  13.265
79936SOL     OW41704   4.746   8.220   3.607
79936SOL    HW141705   4.734   8.153   3.539
79936SOL    HW241706   4.801   8.286   3.566
79937SOL     OW41707   9.479   0.402   9.648
79937SOL    HW141708   9.529   0.344   9.591
79937SOL    HW241709   9.388   0.378   9.633
79938SOL     OW41710  14.253   9.526   6.065
79938SOL    HW141711  14.248   9.564   6.152
79938SOL    HW241712  14.181   9.566   6.017
79939SOL     OW41713   8.837   7.839   9.465
79939SOL    HW141714   8.867   7.905   9.528
79939SOL    HW241715   8.742   7.848   9.464
79940SOL     OW41716   2.215   2.146   4.012
79940SOL    HW141717   2.181   2.067   4.052
79940SOL    HW241718   2.248   2.199   4.085
79941SOL     OW41719   9.665  13.442   1.052
79941SOL    HW141720   9.739  13.462   0.996
79941SOL    HW241721   9.599  13.507   1.029
79942SOL     OW41722   6.923   0.958  11.169
79942SOL    HW141723   6.920   0.898  11.244
79942SOL    HW241724   6.904   1.044  11.206
79943SOL     OW41725   1.026  11.500  13.435
79943SOL    HW141726   1.110  11.474  13.473
79943SOL    HW241727   1.010  11.587  13.469
79944SOL     OW41728  12.221   4.781   0.234
79944SOL    HW141729  12.210   4.802   0.141
79944SOL    HW241730  12.138   4.739   0.258
79945SOL     OW41731  14.032  14.497   0.474
79945SOL    HW141732  14.082  14.551   0.536
79945SOL    HW241733  14.041  14.543   0.390
79946SOL     OW41734   2.208  13.124   3.200
79946SOL    HW141735   2.249  13.186   3.260
79946SOL    HW241736   2.225  13.159   3.113
79947SOL     OW41737  13.862   0.560  13.007
79947SOL    HW141738  13.933   0.610  13.047
79947SOL    HW241739  13.865   0.475  13.051
79948SOL     OW41740   3.574   5.332   8.072
79948SOL    HW141741   3.653   5.309   8.121
79948SOL    HW241742   3.574   5.428   8.070
79949SOL     OW41743   5.374  10.885   3.079
79949SOL    HW141744   5.298  10.898   3.023
79949SOL    HW241745   5.366  10.794   3.110
79950SOL     OW41746   4.857  13.118  14.027
79950SOL    HW141747   4.835  13.088  13.939
79950SOL    HW241748   4.785  13.087  14.081
79951SOL     OW41749   0.271  10.835   8.876
79951SOL    HW141750   0.286  10.791   8.960
79951SOL    HW241751   0.335  10.906   8.875
79952SOL     OW41752  13.430  12.054  13.323
79952SOL    HW141753  13.390  12.024  13.404
79952SOL    HW241754  13.471  12.137  13.345
79953SOL     OW41755   5.277   1.284   2.798
79953SOL    HW141756   5.271   1.233   2.718
79953SOL    HW241757   5.369   1.282   2.822
79954SOL     OW41758  13.993   7.662   0.638
79954SOL    HW141759  13.992   7.567   0.627
79954SOL    HW241760  14.075   7.681   0.684
79955SOL     OW41761  12.250   1.542   0.666
79955SOL    HW141762  12.222   1.506   0.581
79955SOL    HW241763  12.168   1.552   0.715
79956SOL     OW41764   6.036  12.339   5.200
79956SOL    HW141765   5.965  12.316   5.140
79956SOL    HW241766   6.115  12.308   5.155
79957SOL     OW41767  11.439   5.073   0.054
79957SOL    HW141768  11.403   5.158   0.079
79957SOL    HW241769  11.446   5.025   0.137
79958SOL     OW41770  11.216  13.684  11.611
79958SOL    HW141771  11.122  13.670  11.625
79958SOL    HW241772  11.231  13.774  11.641
79959SOL     OW41773   9.818   7.630   8.261
79959SOL    HW141774   9.741   7.574   8.257
79959SOL    HW241775   9.799   7.694   8.330
79960SOL     OW41776   9.108  10.971   2.911
79960SOL    HW141777   9.137  10.910   2.842
79960SOL    HW241778   9.045  10.920   2.962
79961SOL     OW41779  10.065   9.386   3.618
79961SOL    HW141780   9.988   9.332   3.635
79961SOL    HW241781  10.093   9.416   3.705
79962SOL     OW41782  14.797   5.646   4.588
79962SOL    HW141783  14.784   5.557   4.557
79962SOL    HW241784  14.711   5.687   4.581
79963SOL     OW41785   9.841   6.150   7.480
79963SOL    HW141786   9.803   6.189   7.559
79963SOL    HW241787   9.791   6.069   7.467
79964SOL     OW41788   4.512  11.576  14.528
79964SOL    HW141789   4.508  11.529  14.445
79964SOL    HW241790   4.586  11.636  14.518
79965SOL     OW41791   1.666  14.378  13.716
79965SOL    HW141792   1.663  14.286  13.743
79965SOL    HW241793   1.721  14.421  13.782
79966SOL     OW41794   5.163   1.574   2.101
79966SOL    HW141795   5.194   1.626   2.175
79966SOL    HW241796   5.075   1.608   2.082
79967SOL     OW41797  14.286  14.244  10.169
79967SOL    HW141798  14.278  14.161  10.123
79967SOL    HW241799  14.202  14.288  10.154
79968SOL     OW41800   4.565  10.959   0.941
79968SOL    HW141801   4.477  10.925   0.957
79968SOL    HW241802   4.611  10.886   0.899
79969SOL     OW41803  10.953   8.077  11.147
79969SOL    HW141804  10.896   8.074  11.071
79969SOL    HW241805  10.893   8.077  11.222
79970SOL     OW41806  13.824   0.694   7.695
79970SOL    HW141807  13.843   0.609   7.656
79970SOL    HW241808  13.828   0.756   7.622
79971SOL     OW41809  11.998   6.046   1.562
79971SOL    HW141810  12.048   6.125   1.539
79971SOL    HW241811  11.929   6.078   1.620
79972SOL     OW41812   6.588   9.965   5.993
79972SOL    HW141813   6.495   9.981   5.977
79972SOL    HW241814   6.588   9.901   6.064
79973SOL     OW41815   3.888   7.556  12.497
79973SOL    HW141816   3.981   7.577  12.503
79973SOL    HW241817   3.885   7.475  12.445
79974SOL     OW41818   6.881   2.483   7.805
79974SOL    HW141819   6.881   2.571   7.767
79974SOL    HW241820   6.808   2.484   7.867
79975SOL     OW41821   4.150  12.095   2.129
79975SOL    HW141822   4.133  12.189   2.132
79975SOL    HW241823   4.098  12.060   2.201
79976SOL     OW41824   1.826   1.660   9.859
79976SOL    HW141825   1.846   1.692   9.771
79976SOL    HW241826   1.898   1.692   9.913
79977SOL     OW41827  12.853   2.104   8.804
79977SOL    HW141828  12.861   2.018   8.846
79977SOL    HW241829  12.881   2.090   8.714
79978SOL     OW41830   9.820   3.247  13.873
79978SOL    HW141831   9.775   3.176  13.826
79978SOL    HW241832   9.854   3.303  13.804
79979SOL     OW41833  14.589   8.302  14.069
79979SOL    HW141834  14.525   8.234  14.049
79979SOL    HW241835  14.556   8.380  14.024
79980SOL     OW41836   1.090   6.081  13.395
79980SOL    HW141837   1.036   6.092  13.317
79980SOL    HW241838   1.147   6.158  13.397
79981SOL     OW41839   3.454   5.154   1.275
79981SOL    HW141840   3.444   5.228   1.335
79981SOL    HW241841   3.485   5.082   1.330
79982SOL     OW41842   3.513   0.435   5.880
79982SOL    HW141843   3.511   0.531   5.877
79982SOL    HW241844   3.603   0.413   5.856
79983SOL     OW41845  13.595   1.832   0.962
79983SOL    HW141846  13.658   1.846   0.891
79983SOL    HW241847  13.532   1.769   0.927
79984SOL     OW41848   4.784   3.436   2.689
79984SOL    HW141849   4.732   3.513   2.666
79984SOL    HW241850   4.873   3.458   2.662
79985SOL     OW41851  10.238   0.907   9.052
79985SOL    HW141852  10.147   0.935   9.051
79985SOL    HW241853  10.253   0.868   8.966
79986SOL     OW41854  14.399   9.649   7.557
79986SOL    HW141855  14.427   9.701   7.633
79986SOL    HW241856  14.471   9.659   7.494
79987SOL     OW41857   7.252  11.157  11.961
79987SOL    HW141858   7.230  11.067  11.983
79987SOL    HW241859   7.180  11.209  11.998
79988SOL     OW41860  13.556   8.450   6.683
79988SOL    HW141861  13.507   8.378   6.722
79988SOL    HW241862  13.599   8.493   6.757
79989SOL     OW41863  14.592   9.274   9.726
79989SOL    HW141864  14.545   9.194   9.703
79989SOL    HW241865  14.595   9.325   9.646
79990SOL     OW41866   0.837  12.603  13.914
79990SOL    HW141867   0.877  12.529  13.960
79990SOL    HW241868   0.901  12.673  13.920
79991SOL     OW41869  11.640   3.909   7.566
79991SOL    HW141870  11.601   3.995   7.574
79991SOL    HW241871  11.597   3.856   7.633
79992SOL     OW41872  14.764   5.014   0.069
79992SOL    HW141873  14.769   5.096   0.118
79992SOL    HW241874  14.671   4.993   0.065
79993SOL     OW41875   1.555   3.559   5.724
79993SOL    HW141876   1.594   3.473   5.736
79993SOL    HW241877   1.462   3.546   5.743
79994SOL     OW41878   4.631  11.135   0.297
79994SOL    HW141879   4.556  11.123   0.355
79994SOL    HW241880   4.594  11.133   0.209
79995SOL     OW41881   0.082  13.541  13.807
79995SOL    HW141882   0.151  13.487  13.846
79995SOL    HW241883   0.015  13.479  13.779
79996SOL     OW41884   2.844  12.438  12.628
79996SOL    HW141885   2.815  12.349  12.647
79996SOL    HW241886   2.827  12.449  12.535
79997SOL     OW41887  10.191  10.415   7.468
79997SOL    HW141888  10.279  10.444   7.489
79997SOL    HW241889  10.142  10.496   7.451
79998SOL     OW41890   4.038  13.362   2.888
79998SOL    HW141891   4.015  13.450   2.858
79998SOL    HW241892   3.958  13.311   2.874
79999SOL     OW41893   1.846   5.101   7.425
79999SOL    HW141894   1.862   5.072   7.515
79999SOL    HW241895   1.781   5.040   7.391
80000SOL     OW41896   2.158  10.405   5.967
80000SOL    HW141897   2.120  10.355   6.039
80000SOL    HW241898   2.223  10.461   6.008
80001SOL     OW41899   1.466   1.830  10.095
80001SOL    HW141900   1.513   1.747  10.084
80001SOL    HW241901   1.382   1.805  10.133
80002SOL     OW41902   7.036   6.750  14.673
80002SOL    HW141903   7.132   6.745  14.666
80002SOL    HW241904   7.007   6.660  14.658
80003SOL     OW41905  11.971  10.635   5.879
80003SOL    HW141906  11.972  10.608   5.971
80003SOL    HW241907  12.046  10.693   5.870
80004SOL     OW41908   4.490   2.340   8.829
80004SOL    HW141909   4.495   2.408   8.762
80004SOL    HW241910   4.533   2.264   8.789
80005SOL     OW41911   7.864  12.588  13.866
80005SOL    HW141912   7.881  12.499  13.835
80005SOL    HW241913   7.781  12.581  13.915
80006SOL     OW41914   5.649   0.279  13.135
80006SOL    HW141915   5.723   0.242  13.184
80006SOL    HW241916   5.680   0.284  13.045
80007SOL     OW41917   6.548  10.905   3.167
80007SOL    HW141918   6.493  10.935   3.095
80007SOL    HW241919   6.487  10.875   3.234
80008SOL     OW41920   1.432   9.172   9.099
80008SOL    HW141921   1.503   9.177   9.163
80008SOL    HW241922   1.365   9.232   9.132
80009SOL     OW41923  10.785   9.628   7.593
80009SOL    HW141924  10.768   9.599   7.682
80009SOL    HW241925  10.855   9.693   7.601
80010SOL     OW41926   6.966   0.045  11.769
80010SOL    HW141927   6.885  14.863  11.761
80010SOL    HW241928   7.006   0.040  11.683
80011SOL     OW41929   8.287  14.205   0.764
80011SOL    HW141930   8.263  14.251   0.684
80011SOL    HW241931   8.213  14.146   0.781
80012SOL     OW41932   8.146   7.368   6.722
80012SOL    HW141933   8.131   7.463   6.719
80012SOL    HW241934   8.062   7.331   6.749
80013SOL     OW41935  11.539   7.789  10.498
80013SOL    HW141936  11.591   7.785  10.418
80013SOL    HW241937  11.450   7.765  10.470
80014SOL     OW41938  10.728   3.683   7.775
80014SOL    HW141939  10.776   3.698   7.856
80014SOL    HW241940  10.738   3.765   7.726
80015SOL     OW41941   4.432  13.989   6.745
80015SOL    HW141942   4.463  14.057   6.804
80015SOL    HW241943   4.470  13.908   6.778
80016SOL     OW41944  12.408   2.025  12.412
80016SOL    HW141945  12.452   2.110  12.422
80016SOL    HW241946  12.418   2.003  12.320
80017SOL     OW41947   8.228  13.816  10.297
80017SOL    HW141948   8.314  13.776  10.308
80017SOL    HW241949   8.243  13.910  10.311
80018SOL     OW41950  14.221   0.943   9.349
80018SOL    HW141951  14.168   0.983   9.281
80018SOL    HW241952  14.228   1.010   9.417
80019SOL     OW41953  10.343   6.197  13.286
80019SOL    HW141954  10.297   6.143  13.351
80019SOL    HW241955  10.276   6.222  13.223
80020SOL     OW41956   1.986   5.541   4.009
80020SOL    HW141957   1.898   5.561   4.043
80020SOL    HW241958   1.971   5.513   3.919
80021SOL     OW41959   3.178   5.868  10.315
80021SOL    HW141960   3.161   5.944  10.371
80021SOL    HW241961   3.159   5.792  10.371
80022SOL     OW41962   7.936  13.662   3.616
80022SOL    HW141963   7.898  13.737   3.571
80022SOL    HW241964   7.900  13.586   3.570
80023SOL     OW41965   3.914   0.876   4.097
80023SOL    HW141966   3.945   0.959   4.134
80023SOL    HW241967   3.873   0.831   4.171
80024SOL     OW41968   9.968  10.867   3.948
80024SOL    HW141969   9.923  10.786   3.972
80024SOL    HW241970  10.061  10.849   3.965
80025SOL     OW41971   1.164   8.554   9.698
80025SOL    HW141972   1.211   8.612   9.759
80025SOL    HW241973   1.227   8.485   9.678
80026SOL     OW41974   6.444   7.440  11.864
80026SOL    HW141975   6.497   7.361  11.863
80026SOL    HW241976   6.412   7.447  11.954
80027SOL     OW41977   9.971   0.190  14.162
80027SOL    HW141978   9.920   0.140  14.225
80027SOL    HW241979  10.050   0.138  14.147
80028SOL     OW41980   2.028   3.763   3.727
80028SOL    HW141981   2.107   3.718   3.756
80028SOL    HW241982   2.057   3.816   3.653
80029SOL     OW41983   7.096   0.061   1.098
80029SOL    HW141984   7.043   0.096   1.170
80029SOL    HW241985   7.036   0.006   1.048
80030SOL     OW41986  10.672   8.700   4.811
80030SOL    HW141987  10.755   8.715   4.766
80030SOL    HW241988  10.606   8.736   4.753
80031SOL     OW41989   9.352   3.870  10.512
80031SOL    HW141990   9.257   3.858  10.518
80031SOL    HW241991   9.382   3.872  10.603
80032SOL     OW41992   0.895  11.080  11.367
80032SOL    HW141993   0.885  11.161  11.416
80032SOL    HW241994   0.843  11.093  11.288
80033SOL     OW41995   5.664  11.088  14.302
80033SOL    HW141996   5.752  11.070  14.336
80033SOL    HW241997   5.676  11.096  14.208
80034SOL     OW41998  11.268   1.284   4.327
80034SOL    HW141999  11.216   1.311   4.403
80034SOL    HW242000  11.278   1.364   4.275
80035SOL     OW42001   0.093   4.115   0.368
80035SOL    HW142002   0.073   4.144   0.456
80035SOL    HW242003   0.179   4.074   0.375
80036SOL     OW42004   0.296   2.696   4.498
80036SOL    HW142005   0.311   2.645   4.577
80036SOL    HW242006   0.288   2.632   4.428
80037SOL     OW42007   0.323   8.564   4.995
80037SOL    HW142008   0.246   8.621   5.001
80037SOL    HW242009   0.394   8.615   5.034
80038SOL     OW42010  11.372   2.146   6.346
80038SOL    HW142011  11.453   2.138   6.295
80038SOL    HW242012  11.345   2.237   6.333
80039SOL     OW42013   4.843  10.280   5.306
80039SOL    HW142014   4.856  10.197   5.352
80039SOL    HW242015   4.922  10.330   5.325
80040SOL     OW42016   9.565   7.934  13.927
80040SOL    HW142017   9.469   7.936  13.929
80040SOL    HW242018   9.587   7.841  13.933
80041SOL     OW42019  14.868  10.373   4.439
80041SOL    HW142020   0.093  10.372   4.453
80041SOL    HW242021  14.850  10.460   4.404
80042SOL     OW42022   3.058  11.843   9.282
80042SOL    HW142023   3.149  11.826   9.255
80042SOL    HW242024   3.066  11.907   9.353
80043SOL     OW42025   9.244  13.264  11.020
80043SOL    HW142026   9.333  13.293  11.039
80043SOL    HW242027   9.214  13.223  11.101
80044SOL     OW42028   0.655  11.124  14.715
80044SOL    HW142029   0.582  11.184  14.707
80044SOL    HW242030   0.674  11.096  14.625
80045SOL     OW42031   0.104  11.848   8.867
80045SOL    HW142032   0.092  11.795   8.787
80045SOL    HW242033   0.131  11.785   8.933
80046SOL     OW42034  13.682   4.631  11.553
80046SOL    HW142035  13.621   4.695  11.589
80046SOL    HW242036  13.757   4.682  11.524
80047SOL     OW42037  14.115  13.028   0.366
80047SOL    HW142038  14.054  13.096   0.395
80047SOL    HW242039  14.162  13.003   0.445
80048SOL     OW42040   9.842  14.606   2.466
80048SOL    HW142041   9.927  14.594   2.422
80048SOL    HW242042   9.853  14.561   2.550
80049SOL     OW42043   6.732  10.849  12.017
80049SOL    HW142044   6.805  10.821  12.073
80049SOL    HW242045   6.774  10.874  11.934
80050SOL     OW42046   3.936  12.086   2.751
80050SOL    HW142047   4.004  12.142   2.712
80050SOL    HW242048   3.960  11.998   2.724
80051SOL     OW42049   0.330  11.063   5.660
80051SOL    HW142050   0.317  11.039   5.569
80051SOL    HW242051   0.341  11.158   5.659
80052SOL     OW42052  14.639   9.783   0.489
80052SOL    HW142053  14.705   9.761   0.555
80052SOL    HW242054  14.657   9.875   0.467
80053SOL     OW42055   2.525   0.165  11.199
80053SOL    HW142056   2.503   0.077  11.229
80053SOL    HW242057   2.509   0.221  11.275
80054SOL     OW42058   9.797   5.089  11.922
80054SOL    HW142059   9.879   5.043  11.942
80054SOL    HW242060   9.808   5.175  11.961
80055SOL     OW42061  14.503   9.399   6.627
80055SOL    HW142062  14.596   9.419   6.644
80055SOL    HW242063  14.457   9.479   6.654
80056SOL     OW42064   1.583   1.466   8.162
80056SOL    HW142065   1.576   1.464   8.257
80056SOL    HW242066   1.665   1.421   8.143
80057SOL     OW42067   9.580  11.151   7.760
80057SOL    HW142068   9.672  11.126   7.747
80057SOL    HW242069   9.537  11.070   7.789
80058SOL     OW42070   4.397   4.930   8.483
80058SOL    HW142071   4.344   4.910   8.406
80058SOL    HW242072   4.350   5.000   8.527
80059SOL     OW42073   5.915   8.094   9.387
80059SOL    HW142074   5.909   8.035   9.463
80059SOL    HW242075   5.979   8.053   9.329
80060SOL     OW42076   4.903   4.876  12.929
80060SOL    HW142077   4.824   4.852  12.881
80060SOL    HW242078   4.975   4.860  12.868
80061SOL     OW42079   5.406  12.426   8.850
80061SOL    HW142080   5.374  12.503   8.804
80061SOL    HW242081   5.422  12.361   8.781
80062SOL     OW42082   6.221   7.973   3.984
80062SOL    HW142083   6.180   7.922   4.054
80062SOL    HW242084   6.311   7.987   4.015
80063SOL     OW42085  12.911   5.698   8.044
80063SOL    HW142086  12.952   5.677   7.961
80063SOL    HW242087  12.826   5.737   8.021
80064SOL     OW42088   4.347   5.955   3.392
80064SOL    HW142089   4.322   5.971   3.483
80064SOL    HW242090   4.302   6.024   3.342
80065SOL     OW42091   3.992   9.144   8.111
80065SOL    HW142092   3.901   9.118   8.123
80065SOL    HW242093   4.016   9.106   8.026
80066SOL     OW42094  12.741   1.760   6.920
80066SOL    HW142095  12.757   1.669   6.947
80066SOL    HW242096  12.653   1.779   6.953
80067SOL     OW42097  10.832   2.950  11.876
80067SOL    HW142098  10.872   2.996  11.802
80067SOL    HW242099  10.883   2.870  11.885
80068SOL     OW42100   0.614   4.480   8.211
80068SOL    HW142101   0.682   4.541   8.239
80068SOL    HW242102   0.622   4.477   8.116
80069SOL     OW42103   8.391   6.144  11.850
80069SOL    HW142104   8.450   6.068  11.860
80069SOL    HW242105   8.450   6.218  11.833
80070SOL     OW42106   1.780  14.764  10.432
80070SOL    HW142107   1.873  14.777  10.415
80070SOL    HW242108   1.755  14.839  10.486
80071SOL     OW42109   2.075   1.281   6.503
80071SOL    HW142110   2.040   1.272   6.591
80071SOL    HW242111   2.144   1.214   6.498
80072SOL     OW42112   4.068   7.489   3.077
80072SOL    HW142113   4.132   7.503   3.147
80072SOL    HW242114   4.017   7.570   3.076
80073SOL     OW42115   6.854   4.895   8.649
80073SOL    HW142116   6.786   4.949   8.608
80073SOL    HW242117   6.926   4.894   8.585
80074SOL     OW42118   9.215  13.519   1.534
80074SOL    HW142119   9.254  13.567   1.461
80074SOL    HW242120   9.177  13.441   1.494
80075SOL     OW42121   6.012  14.030   7.891
80075SOL    HW142122   5.934  14.012   7.944
80075SOL    HW242123   5.991  14.109   7.842
80076SOL     OW42124   4.363  12.680  12.180
80076SOL    HW142125   4.411  12.646  12.105
80076SOL    HW242126   4.429  12.687  12.250
80077SOL     OW42127   5.260   4.653   6.776
80077SOL    HW142128   5.255   4.725   6.839
80077SOL    HW242129   5.300   4.581   6.825
80078SOL     OW42130   3.932   9.204   1.979
80078SOL    HW142131   3.922   9.109   1.992
80078SOL    HW242132   4.019   9.224   2.013
80079SOL     OW42133  13.518   5.824   3.461
80079SOL    HW142134  13.504   5.801   3.553
80079SOL    HW242135  13.611   5.845   3.455
80080SOL     OW42136   7.097   8.898  10.880
80080SOL    HW142137   7.151   8.825  10.911
80080SOL    HW242138   7.009   8.862  10.874
80081SOL     OW42139  12.785   5.849   0.855
80081SOL    HW142140  12.790   5.932   0.903
80081SOL    HW242141  12.873   5.838   0.818
80082SOL     OW42142   1.096   7.635   7.344
80082SOL    HW142143   1.067   7.575   7.413
80082SOL    HW242144   1.032   7.622   7.274
80083SOL     OW42145  10.066  12.743   2.174
80083SOL    HW142146  10.115  12.808   2.224
80083SOL    HW242147   9.984  12.787   2.151
80084SOL     OW42148   7.139   1.335   1.656
80084SOL    HW142149   7.092   1.383   1.587
80084SOL    HW242150   7.210   1.394   1.682
80085SOL     OW42151  11.743  11.789  10.438
80085SOL    HW142152  11.660  11.798  10.483
80085SOL    HW242153  11.762  11.695  10.441
80086SOL     OW42154   6.483   2.326   4.145
80086SOL    HW142155   6.408   2.382   4.164
80086SOL    HW242156   6.516   2.300   4.231
80087SOL     OW42157  13.857   1.883  10.844
80087SOL    HW142158  13.872   1.977  10.839
80087SOL    HW242159  13.943   1.844  10.835
80088SOL     OW42160  14.786   5.440  14.412
80088SOL    HW142161  14.767   5.346  14.417
80088SOL    HW242162  14.790   5.458  14.318
80089SOL     OW42163   1.500   8.656   2.454
80089SOL    HW142164   1.554   8.704   2.518
80089SOL    HW242165   1.477   8.722   2.389
80090SOL     OW42166  10.780   9.138   1.084
80090SOL    HW142167  10.804   9.124   1.175
80090SOL    HW242168  10.858   9.175   1.044
80091SOL     OW42169   2.125  12.442  10.186
80091SOL    HW142170   2.140  12.484  10.271
80091SOL    HW242171   2.066  12.500  10.140
80092SOL     OW42172   7.302   1.118   1.472
80092SOL    HW142173   7.240   1.059   1.429
80092SOL    HW242174   7.255   1.151   1.548
80093SOL     OW42175  14.113  12.918   2.287
80093SOL    HW142176  14.166  12.966   2.350
80093SOL    HW242177  14.097  12.833   2.329
80094SOL     OW42178   3.089   0.665   8.979
80094SOL    HW142179   3.014   0.724   8.971
80094SOL    HW242180   3.156   0.719   9.023
80095SOL     OW42181   3.939  11.931   6.081
80095SOL    HW142182   3.904  11.915   5.993
80095SOL    HW242183   3.893  11.867   6.136
80096SOL     OW42184  14.255  13.282  12.120
80096SOL    HW142185  14.189  13.232  12.074
80096SOL    HW242186  14.211  13.362  12.146
80097SOL     OW42187   1.094   2.332   8.323
80097SOL    HW142188   1.084   2.302   8.413
80097SOL    HW242189   1.143   2.263   8.280
80098SOL     OW42190   7.336  13.054   0.604
80098SOL    HW142191   7.431  13.054   0.619
80098SOL    HW242192   7.304  13.131   0.650
80099SOL     OW42193  13.320   9.197   0.987
80099SOL    HW142194  13.310   9.281   1.031
80099SOL    HW242195  13.355   9.139   1.054
80100SOL     OW42196   9.319  11.785   1.511
80100SOL    HW142197   9.257  11.729   1.465
80100SOL    HW242198   9.318  11.868   1.462
80101SOL     OW42199   7.506  12.879  10.257
80101SOL    HW142200   7.468  12.954  10.211
80101SOL    HW242201   7.498  12.807  10.195
80102SOL     OW42202   0.671   9.164   3.066
80102SOL    HW142203   0.766   9.172   3.061
80102SOL    HW242204   0.644   9.226   3.134
80103SOL     OW42205   9.994   2.007  14.031
80103SOL    HW142206  10.061   1.967  13.975
80103SOL    HW242207  10.036   2.013  14.117
80104SOL     OW42208   8.972   0.403   5.320
80104SOL    HW142209   8.996   0.449   5.401
80104SOL    HW242210   8.893   0.354   5.343
80105SOL     OW42211  14.036   4.375   4.077
80105SOL    HW142212  13.993   4.335   4.152
80105SOL    HW242213  14.083   4.450   4.113
80106SOL     OW42214   5.767   5.515   0.765
80106SOL    HW142215   5.801   5.595   0.804
80106SOL    HW242216   5.708   5.545   0.696
80107SOL     OW42217   1.535   6.881   4.817
80107SOL    HW142218   1.619   6.912   4.783
80107SOL    HW242219   1.558   6.837   4.899
80108SOL     OW42220  13.621   4.947   1.155
80108SOL    HW142221  13.583   4.860   1.165
80108SOL    HW242222  13.564   5.005   1.206
80109SOL     OW42223  11.456   9.363   5.493
80109SOL    HW142224  11.511   9.442   5.492
80109SOL    HW242225  11.493   9.310   5.563
80110SOL     OW42226   8.952  13.562   5.078
80110SOL    HW142227   8.918  13.521   4.998
80110SOL    HW242228   8.923  13.653   5.073
80111SOL     OW42229   7.320  12.852  13.143
80111SOL    HW142230   7.400  12.826  13.097
80111SOL    HW242231   7.303  12.941  13.114
80112SOL     OW42232  13.415  10.630  12.458
80112SOL    HW142233  13.383  10.714  12.424
80112SOL    HW242234  13.370  10.622  12.543
80113SOL     OW42235  12.338  14.200  10.673
80113SOL    HW142236  12.282  14.178  10.748
80113SOL    HW242237  12.296  14.277  10.634
80114SOL     OW42238   8.943  13.678   9.871
80114SOL    HW142239   8.861  13.694   9.825
80114SOL    HW242240   8.986  13.764   9.875
80115SOL     OW42241   0.027  14.642  11.991
80115SOL    HW142242   0.022  14.736  12.009
80115SOL    HW242243   0.078  14.607  12.064
80116SOL     OW42244   4.359  10.372   4.704
80116SOL    HW142245   4.275  10.416   4.687
80116SOL    HW242246   4.350  10.286   4.665
80117SOL     OW42247   1.151   4.054   9.928
80117SOL    HW142248   1.195   3.998   9.991
80117SOL    HW242249   1.130   4.134   9.977
80118SOL     OW42250   9.183   7.908   8.971
80118SOL    HW142251   9.102   7.858   8.984
80118SOL    HW242252   9.247   7.842   8.944
80119SOL     OW42253  10.125   4.088   7.354
80119SOL    HW142254  10.125   3.997   7.384
80119SOL    HW242255  10.142   4.140   7.433
80120SOL     OW42256   8.755  11.671   3.086
80120SOL    HW142257   8.810  11.741   3.123
80120SOL    HW242258   8.786  11.662   2.995
80121SOL     OW42259  13.290   7.930   2.929
80121SOL    HW142260  13.237   7.962   3.002
80121SOL    HW242261  13.287   8.000   2.864
80122SOL     OW42262   9.718   0.837   4.193
80122SOL    HW142263   9.797   0.878   4.157
80122SOL    HW242264   9.655   0.909   4.202
80123SOL     OW42265  10.815   8.100  13.479
80123SOL    HW142266  10.855   8.104  13.566
80123SOL    HW242267  10.845   8.180  13.436
80124SOL     OW42268   6.657  13.199   4.469
80124SOL    HW142269   6.630  13.189   4.378
80124SOL    HW242270   6.681  13.111   4.497
80125SOL     OW42271   6.735   0.429   4.177
80125SOL    HW142272   6.703   0.339   4.190
80125SOL    HW242273   6.675   0.467   4.112
80126SOL     OW42274   3.490  11.308   3.693
80126SOL    HW142275   3.551  11.348   3.631
80126SOL    HW242276   3.539  11.301   3.775
80127SOL     OW42277   0.473  10.980  11.865
80127SOL    HW142278   0.536  11.016  11.803
80127SOL    HW242279   0.413  10.929  11.811
80128SOL     OW42280   7.674   5.270   9.653
80128SOL    HW142281   7.644   5.357   9.628
80128SOL    HW242282   7.641   5.257   9.742
80129SOL     OW42283  12.339  11.748  11.844
80129SOL    HW142284  12.424  11.792  11.839
80129SOL    HW242285  12.285  11.791  11.778
80130SOL     OW42286  14.809   2.338  13.254
80130SOL    HW142287  14.762   2.373  13.330
80130SOL    HW242288  14.856   2.262  13.288
80131SOL     OW42289   6.112   8.135   2.758
80131SOL    HW142290   6.017   8.139   2.753
80131SOL    HW242291   6.130   8.112   2.849
80132SOL     OW42292  12.971   4.257   2.242
80132SOL    HW142293  12.924   4.336   2.269
80132SOL    HW242294  13.061   4.271   2.273
80133SOL     OW42295   3.987  12.313   5.236
80133SOL    HW142296   3.961  12.393   5.192
80133SOL    HW242297   3.905  12.278   5.271
80134SOL     OW42298   3.828   7.114   7.510
80134SOL    HW142299   3.883   7.134   7.585
80134SOL    HW242300   3.741   7.102   7.546
80135SOL     OW42301   4.690   4.294   9.279
80135SOL    HW142302   4.730   4.380   9.294
80135SOL    HW242303   4.631   4.281   9.353
80136SOL     OW42304   3.808   4.555   6.866
80136SOL    HW142305   3.865   4.492   6.822
80136SOL    HW242306   3.750   4.501   6.920
80137SOL     OW42307   9.743   9.684   8.401
80137SOL    HW142308   9.706   9.673   8.314
80137SOL    HW242309   9.718   9.605   8.449
80138SOL     OW42310   8.034  14.764   5.028
80138SOL    HW142311   7.967  14.806   5.081
80138SOL    HW242312   8.098  14.834   5.013
80139SOL     OW42313   9.903   3.585   8.045
80139SOL    HW142314   9.900   3.671   8.004
80139SOL    HW242315   9.821   3.579   8.095
80140SOL     OW42316  14.095  12.863   8.922
80140SOL    HW142317  14.105  12.928   8.852
80140SOL    HW242318  14.004  12.872   8.950
80141SOL     OW42319   6.144  12.171  14.718
80141SOL    HW142320   6.202  12.108  14.675
80141SOL    HW242321   6.057  12.148  14.687
80142SOL     OW42322   9.746   9.367   0.292
80142SOL    HW142323   9.715   9.406   0.210
80142SOL    HW242324   9.838   9.346   0.274
80143SOL     OW42325   1.432  14.445   1.906
80143SOL    HW142326   1.393  14.462   1.991
80143SOL    HW242327   1.368  14.388   1.862
80144SOL     OW42328  12.920   1.381  10.878
80144SOL    HW142329  12.988   1.355  10.816
80144SOL    HW242330  12.888   1.465  10.844
80145SOL     OW42331   8.043   0.800   5.662
80145SOL    HW142332   8.092   0.796   5.744
80145SOL    HW242333   8.029   0.894   5.646
80146SOL     OW42334   5.680   0.878   2.703
80146SOL    HW142335   5.772   0.856   2.696
80146SOL    HW242336   5.643   0.813   2.763
80147SOL     OW42337   3.421   1.111   7.233
80147SOL    HW142338   3.384   1.194   7.262
80147SOL    HW242339   3.494   1.135   7.177
80148SOL     OW42340   5.355  14.866   8.007
80148SOL    HW142341   5.394  14.778   8.015
80148SOL    HW242342   5.340   0.007   7.914
80149SOL     OW42343   0.703  14.678   5.241
80149SOL    HW142344   0.648  14.738   5.190
80149SOL    HW242345   0.739  14.618   5.175
80150SOL     OW42346  10.579   2.812   3.010
80150SOL    HW142347  10.659   2.835   2.963
80150SOL    HW242348  10.514   2.874   2.978
80151SOL     OW42349   5.504   5.905   8.192
80151SOL    HW142350   5.425   5.949   8.162
80151SOL    HW242351   5.474   5.844   8.259
80152SOL     OW42352  10.378  11.840   8.048
80152SOL    HW142353  10.375  11.819   7.955
80152SOL    HW242354  10.288  11.862   8.072
80153SOL     OW42355  10.420   7.197   8.062
80153SOL    HW142356  10.377   7.247   8.131
80153SOL    HW242357  10.497   7.160   8.103
80154SOL     OW42358   1.901  10.174  11.547
80154SOL    HW142359   1.874  10.233  11.477
80154SOL    HW242360   1.929  10.233  11.618
80155SOL     OW42361  10.884  12.862   2.182
80155SOL    HW142362  10.827  12.911   2.121
80155SOL    HW242363  10.839  12.778   2.193
80156SOL     OW42364   9.165   7.777   8.382
80156SOL    HW142365   9.233   7.795   8.317
80156SOL    HW242366   9.090   7.747   8.331
80157SOL     OW42367   5.179   7.217   0.642
80157SOL    HW142368   5.176   7.263   0.726
80157SOL    HW242369   5.100   7.162   0.642
80158SOL     OW42370   7.494   8.796   1.351
80158SOL    HW142371   7.433   8.782   1.423
80158SOL    HW242372   7.504   8.891   1.345
80159SOL     OW42373   3.473  12.298  12.048
80159SOL    HW142374   3.420  12.377  12.061
80159SOL    HW242375   3.430  12.231  12.100
80160SOL     OW42376   1.414  11.649   6.314
80160SOL    HW142377   1.337  11.636   6.259
80160SOL    HW242378   1.403  11.586   6.385
80161SOL     OW42379  13.789  11.174   9.914
80161SOL    HW142380  13.884  11.175   9.912
80161SOL    HW242381  13.764  11.111   9.847
80162SOL     OW42382   8.439  11.066   0.177
80162SOL    HW142383   8.364  11.121   0.156
80162SOL    HW242384   8.426  10.986   0.126
80163SOL     OW42385   1.020   4.842  12.350
80163SOL    HW142386   0.958   4.800  12.290
80163SOL    HW242387   1.101   4.793  12.338
80164SOL     OW42388  14.458   1.175  10.422
80164SOL    HW142389  14.407   1.244  10.380
80164SOL    HW242390  14.394   1.105  10.438
80165SOL     OW42391   0.808   9.520   9.969
80165SOL    HW142392   0.812   9.596   9.911
80165SOL    HW242393   0.889   9.473   9.953
80166SOL     OW42394   2.939  12.298   7.048
80166SOL    HW142395   2.892  12.363   7.101
80166SOL    HW242396   2.946  12.338   6.962
80167SOL     OW42397   7.240   5.440   7.770
80167SOL    HW142398   7.260   5.497   7.696
80167SOL    HW242399   7.307   5.372   7.768
80168SOL     OW42400   5.864  10.954   6.730
80168SOL    HW142401   5.868  10.880   6.790
80168SOL    HW242402   5.884  10.917   6.644
80169SOL     OW42403   4.455   3.505   2.331
80169SOL    HW142404   4.533   3.465   2.293
80169SOL    HW242405   4.396   3.431   2.349
80170SOL     OW42406   7.567   3.980  13.632
80170SOL    HW142407   7.516   3.901  13.650
80170SOL    HW242408   7.658   3.951  13.633
80171SOL     OW42409   6.369   0.410  11.007
80171SOL    HW142410   6.391   0.324  11.044
80171SOL    HW242411   6.350   0.392  10.914
80172SOL     OW42412   3.309  11.068  11.523
80172SOL    HW142413   3.375  11.131  11.493
80172SOL    HW242414   3.283  11.100  11.609
80173SOL     OW42415   7.667   3.836   3.319
80173SOL    HW142416   7.627   3.871   3.240
80173SOL    HW242417   7.616   3.757   3.339
80174SOL     OW42418   8.650  11.596   3.322
80174SOL    HW142419   8.652  11.657   3.396
80174SOL    HW242420   8.696  11.642   3.252
80175SOL     OW42421  12.193  12.008   5.641
80175SOL    HW142422  12.166  12.015   5.732
80175SOL    HW242423  12.172  12.094   5.604
80176SOL     OW42424  11.486   4.858   4.075
80176SOL    HW142425  11.395   4.867   4.048
80176SOL    HW242426  11.524   4.798   4.011
80177SOL     OW42427   2.428  13.235   1.801
80177SOL    HW142428   2.469  13.287   1.732
80177SOL    HW242429   2.497  13.222   1.866
80178SOL     OW42430  12.273  11.849  12.604
80178SOL    HW142431  12.274  11.819  12.513
80178SOL    HW242432  12.229  11.934  12.601
80179SOL     OW42433   2.827   5.851   9.600
80179SOL    HW142434   2.830   5.794   9.523
80179SOL    HW242435   2.914   5.890   9.605
80180SOL     OW42436   2.128  14.355   0.136
80180SOL    HW142437   2.153  14.349   0.228
80180SOL    HW242438   2.032  14.351   0.137
80181SOL     OW42439  11.784   7.314   1.112
80181SOL    HW142440  11.820   7.399   1.137
80181SOL    HW242441  11.853   7.251   1.134
80182SOL     OW42442   9.397   9.419   8.338
80182SOL    HW142443   9.474   9.370   8.367
80182SOL    HW242444   9.433   9.495   8.291
80183SOL     OW42445   1.525  13.181   3.496
80183SOL    HW142446   1.576  13.244   3.546
80183SOL    HW242447   1.500  13.113   3.559
80184SOL     OW42448   9.537  14.447   3.214
80184SOL    HW142449   9.475  14.404   3.155
80184SOL    HW242450   9.499  14.436   3.301
80185SOL     OW42451  13.992  10.908   7.632
80185SOL    HW142452  14.045  10.929   7.709
80185SOL    HW242453  13.907  10.882   7.669
80186SOL     OW42454   3.265   9.556  13.916
80186SOL    HW142455   3.351   9.547  13.955
80186SOL    HW242456   3.204   9.543  13.989
80187SOL     OW42457  12.878   6.021   8.315
80187SOL    HW142458  12.968   6.048   8.299
80187SOL    HW242459  12.846   6.082   8.381
80188SOL     OW42460  13.065   7.562  14.820
80188SOL    HW142461  13.043   7.480  14.863
80188SOL    HW242462  13.158   7.552  14.796
80189SOL     OW42463   4.781   2.293   7.221
80189SOL    HW142464   4.698   2.331   7.191
80189SOL    HW242465   4.761   2.201   7.236
80190SOL     OW42466   7.876   8.907   2.918
80190SOL    HW142467   7.789   8.946   2.910
80190SOL    HW242468   7.936   8.978   2.897
80191SOL     OW42469  10.261   1.751   8.106
80191SOL    HW142470  10.338   1.694   8.102
80191SOL    HW242471  10.285   1.827   8.054
80192SOL     OW42472  13.796  12.139  12.838
80192SOL    HW142473  13.846  12.063  12.807
80192SOL    HW242474  13.738  12.103  12.905
80193SOL     OW42475   7.510   3.238  12.661
80193SOL    HW142476   7.476   3.268  12.745
80193SOL    HW242477   7.506   3.142  12.665
80194SOL     OW42478   3.275   4.401   9.402
80194SOL    HW142479   3.245   4.394   9.311
80194SOL    HW242480   3.357   4.450   9.396
80195SOL     OW42481  11.422   5.488   7.490
80195SOL    HW142482  11.362   5.490   7.415
80195SOL    HW242483  11.374   5.533   7.560
80196SOL     OW42484   3.418  13.971   7.146
80196SOL    HW142485   3.397  14.064   7.136
80196SOL    HW242486   3.448  13.963   7.237
80197SOL     OW42487  11.340   9.672   1.376
80197SOL    HW142488  11.341   9.732   1.450
80197SOL    HW242489  11.423   9.690   1.330
80198SOL     OW42490   5.861  14.615   2.895
80198SOL    HW142491   5.863  14.699   2.849
80198SOL    HW242492   5.939  14.568   2.865
80199SOL     OW42493   3.197  11.024   0.728
80199SOL    HW142494   3.282  11.060   0.756
80199SOL    HW242495   3.169  11.081   0.656
80200SOL     OW42496   2.959   4.335   4.478
80200SOL    HW142497   2.893   4.390   4.436
80200SOL    HW242498   3.030   4.394   4.499
80201SOL     OW42499   4.168   9.386   6.293
80201SOL    HW142500   4.103   9.316   6.301
80201SOL    HW242501   4.164   9.433   6.377
80202SOL     OW42502  12.711  12.895   6.135
80202SOL    HW142503  12.786  12.838   6.118
80202SOL    HW242504  12.706  12.952   6.058
80203SOL     OW42505  10.106   2.675   7.983
80203SOL    HW142506  10.107   2.731   8.060
80203SOL    HW242507  10.127   2.734   7.910
80204SOL     OW42508   4.039   8.538   9.010
80204SOL    HW142509   4.002   8.486   9.082
80204SOL    HW242510   3.985   8.617   9.008
80205SOL     OW42511   6.650   5.748   7.820
80205SOL    HW142512   6.593   5.797   7.760
80205SOL    HW242513   6.659   5.805   7.896
80206SOL     OW42514  11.975  12.684   1.588
80206SOL    HW142515  11.970  12.673   1.682
80206SOL    HW242516  11.943  12.773   1.572
80207SOL     OW42517   5.407   4.741   4.186
80207SOL    HW142518   5.389   4.828   4.223
80207SOL    HW242519   5.366   4.680   4.248
80208SOL     OW42520   2.006  13.475  12.770
80208SOL    HW142521   2.058  13.549  12.804
80208SOL    HW242522   1.928  13.517  12.733
80209SOL     OW42523   2.999  10.936   8.360
80209SOL    HW142524   2.968  10.898   8.279
80209SOL    HW242525   3.034  11.021   8.335
80210SOL     OW42526   8.809   2.939   6.810
80210SOL    HW142527   8.713   2.937   6.813
80210SOL    HW242528   8.836   2.920   6.899
80211SOL     OW42529   8.533  12.753   4.302
80211SOL    HW142530   8.600  12.684   4.295
80211SOL    HW242531   8.480  12.726   4.378
80212SOL     OW42532   8.857   7.684   8.001
80212SOL    HW142533   8.827   7.681   7.910
80212SOL    HW242534   8.913   7.762   8.005
80213SOL     OW42535  12.567   5.761  11.377
80213SOL    HW142536  12.490   5.817  11.371
80213SOL    HW242537  12.559   5.701  11.302
80214SOL     OW42538   1.431   0.885   1.432
80214SOL    HW142539   1.416   0.793   1.453
80214SOL    HW242540   1.395   0.895   1.344
80215SOL     OW42541  11.738   9.002   1.762
80215SOL    HW142542  11.758   9.090   1.729
80215SOL    HW242543  11.753   8.944   1.687
80216SOL     OW42544   8.843  10.246   8.332
80216SOL    HW142545   8.773  10.185   8.309
80216SOL    HW242546   8.900  10.247   8.255
80217SOL     OW42547   6.345   6.579   0.240
80217SOL    HW142548   6.440   6.563   0.246
80217SOL    HW242549   6.319   6.601   0.330
80218SOL     OW42550   7.116   4.669   1.663
80218SOL    HW142551   7.142   4.656   1.572
80218SOL    HW242552   7.192   4.642   1.715
80219SOL     OW42553  13.197   7.391   1.479
80219SOL    HW142554  13.200   7.478   1.440
80219SOL    HW242555  13.185   7.407   1.573
80220SOL     OW42556   3.790  14.256   9.911
80220SOL    HW142557   3.819  14.346   9.925
80220SOL    HW242558   3.825  14.207   9.985
80221SOL     OW42559   3.839   5.544   2.846
80221SOL    HW142560   3.833   5.579   2.934
80221SOL    HW242561   3.752   5.558   2.808
80222SOL     OW42562  12.635   2.653   8.426
80222SOL    HW142563  12.600   2.729   8.472
80222SOL    HW242564  12.648   2.684   8.336
80223SOL     OW42565   6.986  14.266  13.400
80223SOL    HW142566   7.053  14.242  13.336
80223SOL    HW242567   6.991  14.361  13.406
80224SOL     OW42568   4.451   1.794   6.905
80224SOL    HW142569   4.369   1.755   6.936
80224SOL    HW242570   4.435   1.888   6.905
80225SOL     OW42571  14.013  13.330  11.049
80225SOL    HW142572  13.962  13.267  11.099
80225SOL    HW242573  14.066  13.375  11.116
80226SOL     OW42574  10.248   6.819   1.162
80226SOL    HW142575  10.171   6.772   1.131
80226SOL    HW242576  10.267   6.780   1.247
80227SOL     OW42577  11.816   3.339  11.373
80227SOL    HW142578  11.885   3.299  11.427
80227SOL    HW242579  11.793   3.419  11.419
80228SOL     OW42580   3.764  12.744   1.503
80228SOL    HW142581   3.694  12.780   1.558
80228SOL    HW242582   3.773  12.806   1.431
80229SOL     OW42583   3.563   7.064   6.254
80229SOL    HW142584   3.509   7.060   6.333
80229SOL    HW242585   3.610   6.981   6.253
80230SOL     OW42586   3.138  11.467   9.021
80230SOL    HW142587   3.086  11.448   8.944
80230SOL    HW242588   3.175  11.383   9.047
80231SOL     OW42589   4.795  12.968  14.589
80231SOL    HW142590   4.714  12.917  14.600
80231SOL    HW242591   4.795  13.029  14.662
80232SOL     OW42592   5.601  10.667  13.456
80232SOL    HW142593   5.636  10.746  13.497
80232SOL    HW242594   5.665  10.599  13.476
80233SOL     OW42595  10.891  10.098   7.508
80233SOL    HW142596  10.938  10.019   7.482
80233SOL    HW242597  10.915  10.111   7.600
80234SOL     OW42598   0.895   2.006  13.896
80234SOL    HW142599   0.920   2.045  13.979
80234SOL    HW242600   0.910   2.074  13.831
80235SOL     OW42601   2.521  11.025  11.916
80235SOL    HW142602   2.578  10.979  11.855
80235SOL    HW242603   2.461  11.074  11.860
80236SOL     OW42604   2.124   7.329  13.878
80236SOL    HW142605   2.123   7.339  13.783
80236SOL    HW242606   2.073   7.403  13.911
80237SOL     OW42607   3.103  14.693   9.309
80237SOL    HW142608   3.046  14.634   9.259
80237SOL    HW242609   3.124  14.763   9.247
80238SOL     OW42610   5.326   2.678   4.876
80238SOL    HW142611   5.405   2.659   4.826
80238SOL    HW242612   5.358   2.706   4.962
80239SOL     OW42613  12.039   0.795   8.542
80239SOL    HW142614  11.980   0.869   8.545
80239SOL    HW242615  12.041   0.768   8.451
80240SOL     OW42616   1.883   9.164  14.559
80240SOL    HW142617   1.978   9.177  14.561
80240SOL    HW242618   1.847   9.246  14.590
80241SOL     OW42619  13.884   3.943   4.075
80241SOL    HW142620  13.917   3.866   4.029
80241SOL    HW242621  13.789   3.936   4.068
80242SOL     OW42622  12.405   7.346   8.453
80242SOL    HW142623  12.438   7.384   8.534
80242SOL    HW242624  12.349   7.274   8.481
80243SOL     OW42625  13.188   2.093   4.242
80243SOL    HW142626  13.208   2.060   4.330
80243SOL    HW242627  13.112   2.042   4.214
80244SOL     OW42628   8.528   8.412   4.037
80244SOL    HW142629   8.590   8.384   4.104
80244SOL    HW242630   8.509   8.333   3.987
80245SOL     OW42631   0.366   4.002  13.178
80245SOL    HW142632   0.367   4.027  13.085
80245SOL    HW242633   0.326   4.077  13.222
80246SOL     OW42634   7.247   0.795   0.911
80246SOL    HW142635   7.249   0.719   0.970
80246SOL    HW242636   7.176   0.850   0.946
80247SOL     OW42637  11.276   5.838   4.725
80247SOL    HW142638  11.225   5.879   4.655
80247SOL    HW242639  11.349   5.796   4.680
80248SOL     OW42640   8.365   3.997  12.712
80248SOL    HW142641   8.323   3.917  12.680
80248SOL    HW242642   8.336   4.065  12.652
80249SOL     OW42643   7.599   5.007  10.269
80249SOL    HW142644   7.631   5.090  10.301
80249SOL    HW242645   7.504   5.010  10.282
80250SOL     OW42646  13.124   1.443   1.648
80250SOL    HW142647  13.059   1.432   1.578
80250SOL    HW242648  13.117   1.536   1.672
80251SOL     OW42649   9.550  12.937   6.765
80251SOL    HW142650   9.482  12.948   6.699
80251SOL    HW242651   9.593  12.854   6.742
80252SOL     OW42652   6.120   0.170  10.172
80252SOL    HW142653   6.027   0.148  10.160
80252SOL    HW242654   6.127   0.261  10.145
80253SOL     OW42655  14.084   7.927  14.220
80253SOL    HW142656  14.065   7.896  14.132
80253SOL    HW242657  14.138   7.859  14.259
80254SOL     OW42658   4.306   3.410  12.827
80254SOL    HW142659   4.365   3.455  12.767
80254SOL    HW242660   4.363   3.347  12.873
80255SOL     OW42661   0.690   6.540   9.244
80255SOL    HW142662   0.710   6.527   9.337
80255SOL    HW242663   0.619   6.603   9.243
80256SOL     OW42664  12.673   8.741   3.760
80256SOL    HW142665  12.677   8.828   3.721
80256SOL    HW242666  12.743   8.740   3.825
80257SOL     OW42667   6.279   6.038   9.559
80257SOL    HW142668   6.282   6.079   9.473
80257SOL    HW242669   6.329   5.957   9.549
80258SOL     OW42670   8.386  12.468  11.868
80258SOL    HW142671   8.355  12.499  11.953
80258SOL    HW242672   8.481  12.469  11.876
80259SOL     OW42673  11.644   4.000   9.520
80259SOL    HW142674  11.722   4.040   9.558
80259SOL    HW242675  11.585   4.073   9.504
80260SOL     OW42676  14.086   5.119  14.671
80260SOL    HW142677  14.171   5.162  14.660
80260SOL    HW242678  14.041   5.172  14.737
80261SOL     OW42679   6.512  14.657   1.320
80261SOL    HW142680   6.462  14.730   1.356
80261SOL    HW242681   6.548  14.612   1.397
80262SOL     OW42682   0.035  11.607  13.038
80262SOL    HW142683  14.837  11.605  13.106
80262SOL    HW242684   0.108  11.558  13.074
80263SOL     OW42685  12.677  10.018   7.892
80263SOL    HW142686  12.752   9.986   7.842
80263SOL    HW242687  12.705  10.011   7.984
80264SOL     OW42688   2.889   7.823  11.336
80264SOL    HW142689   2.974   7.805  11.376
80264SOL    HW242690   2.829   7.762  11.380
80265SOL     OW42691   2.649  12.518  13.247
80265SOL    HW142692   2.607  12.462  13.182
80265SOL    HW242693   2.733  12.477  13.264
80266SOL     OW42694  14.038   1.108   5.778
80266SOL    HW142695  13.953   1.075   5.808
80266SOL    HW242696  14.070   1.040   5.718
80267SOL     OW42697  13.585   1.651   9.913
80267SOL    HW142698  13.678   1.631   9.917
80267SOL    HW242699  13.560   1.669  10.003
80268SOL     OW42700   2.079  11.007  13.720
80268SOL    HW142701   2.058  11.091  13.679
80268SOL    HW242702   2.061  11.022  13.813
80269SOL     OW42703   4.221  14.023  13.365
80269SOL    HW142704   4.191  13.992  13.279
80269SOL    HW242705   4.184  13.960  13.427
80270SOL     OW42706  13.541  10.163  13.401
80270SOL    HW142707  13.538  10.068  13.396
80270SOL    HW242708  13.535  10.192  13.310
80271SOL     OW42709  12.657  10.021  10.207
80271SOL    HW142710  12.716   9.964  10.156
80271SOL    HW242711  12.601   9.960  10.255
80272SOL     OW42712  11.880   4.615   5.037
80272SOL    HW142713  11.838   4.659   4.963
80272SOL    HW242714  11.959   4.666   5.054
80273SOL     OW42715   1.180  10.244  12.996
80273SOL    HW142716   1.257  10.268  13.048
80273SOL    HW242717   1.137  10.328  12.978
80274SOL     OW42718  13.573   6.883   2.393
80274SOL    HW142719  13.613   6.915   2.474
80274SOL    HW242720  13.496   6.835   2.423
80275SOL     OW42721   5.988  13.830  14.646
80275SOL    HW142722   5.996  13.756  14.706
80275SOL    HW242723   5.957  13.903  14.701
80276SOL     OW42724  11.350  12.400   9.320
80276SOL    HW142725  11.419  12.460   9.348
80276SOL    HW242726  11.279  12.414   9.382
80277SOL     OW42727   9.022   1.953   9.310
80277SOL    HW142728   9.097   1.906   9.272
80277SOL    HW242729   8.966   1.972   9.235
80278SOL     OW42730   5.782  13.975  11.581
80278SOL    HW142731   5.784  14.023  11.663
80278SOL    HW242732   5.848  13.905  11.592
80279SOL     OW42733   6.987   2.696   9.807
80279SOL    HW142734   7.067   2.666   9.851
80279SOL    HW242735   6.963   2.624   9.749
80280SOL     OW42736   8.671   1.356   0.494
80280SOL    HW142737   8.712   1.300   0.560
80280SOL    HW242738   8.629   1.294   0.434
80281SOL     OW42739   1.069   7.437  10.933
80281SOL    HW142740   1.013   7.366  10.904
80281SOL    HW242741   1.144   7.393  10.973
80282SOL     OW42742  13.026   5.146   6.520
80282SOL    HW142743  13.116   5.159   6.492
80282SOL    HW242744  13.023   5.179   6.609
80283SOL     OW42745  12.524   2.319  11.916
80283SOL    HW142746  12.483   2.392  11.964
80283SOL    HW242747  12.567   2.361  11.842
80284SOL     OW42748   5.253   0.984   3.632
80284SOL    HW142749   5.161   0.988   3.659
80284SOL    HW242750   5.254   1.022   3.544
80285SOL     OW42751   8.978   5.823   8.376
80285SOL    HW142752   8.884   5.808   8.364
80285SOL    HW242753   8.983   5.891   8.443
80286SOL     OW42754   1.520   8.515   6.049
80286SOL    HW142755   1.489   8.497   6.138
80286SOL    HW242756   1.599   8.568   6.061
80287SOL     OW42757   2.816   0.585  14.444
80287SOL    HW142758   2.865   0.666  14.430
80287SOL    HW242759   2.884   0.518  14.450
80288SOL     OW42760   9.681   7.218   1.434
80288SOL    HW142761   9.623   7.291   1.413
80288SOL    HW242762   9.768   7.258   1.439
80289SOL     OW42763   8.816  11.213  10.842
80289SOL    HW142764   8.854  11.142  10.789
80289SOL    HW242765   8.735  11.236  10.796
80290SOL     OW42766  14.757  10.681   7.277
80290SOL    HW142767  14.747  10.620   7.204
80290SOL    HW242768  14.847  10.713   7.270
80291SOL     OW42769  11.070  13.854   5.767
80291SOL    HW142770  11.100  13.833   5.679
80291SOL    HW242771  11.042  13.945   5.761
80292SOL     OW42772  12.979   5.970  11.509
80292SOL    HW142773  12.981   6.043  11.572
80292SOL    HW242774  13.053   5.987  11.451
80293SOL     OW42775  10.236   9.877   6.130
80293SOL    HW142776  10.201   9.792   6.155
80293SOL    HW242777  10.327   9.876   6.158
80294SOL     OW42778   2.332   1.270   2.784
80294SOL    HW142779   2.270   1.198   2.790
80294SOL    HW242780   2.365   1.281   2.873
80295SOL     OW42781  12.947   1.504   5.751
80295SOL    HW142782  12.856   1.509   5.724
80295SOL    HW242783  12.982   1.591   5.736
80296SOL     OW42784  12.481   1.152  12.629
80296SOL    HW142785  12.551   1.103  12.672
80296SOL    HW242786  12.400   1.109  12.658
80297SOL     OW42787  13.627   1.761   9.396
80297SOL    HW142788  13.669   1.680   9.368
80297SOL    HW242789  13.595   1.743   9.485
80298SOL     OW42790  10.711   2.248   5.053
80298SOL    HW142791  10.775   2.183   5.023
80298SOL    HW242792  10.745   2.278   5.137
80299SOL     OW42793   0.369   8.567   2.330
80299SOL    HW142794   0.379   8.550   2.237
80299SOL    HW242795   0.355   8.481   2.369
80300SOL     OW42796  12.491  13.122   0.495
80300SOL    HW142797  12.396  13.132   0.490
80300SOL    HW242798  12.517  13.084   0.411
80301SOL     OW42799   5.220   1.787   5.142
80301SOL    HW142800   5.287   1.856   5.132
80301SOL    HW242801   5.140   1.835   5.162
80302SOL     OW42802   6.061   9.807   7.453
80302SOL    HW142803   6.006   9.820   7.376
80302SOL    HW242804   6.143   9.771   7.418
80303SOL     OW42805   5.368  11.358  13.536
80303SOL    HW142806   5.340  11.268  13.517
80303SOL    HW242807   5.400  11.355  13.626
80304SOL     OW42808  13.227  14.350   6.975
80304SOL    HW142809  13.171  14.321   7.047
80304SOL    HW242810  13.242  14.443   6.991
80305SOL     OW42811   6.186  14.542   6.880
80305SOL    HW142812   6.115  14.550   6.943
80305SOL    HW242813   6.266  14.555   6.931
80306SOL     OW42814   8.613  14.724   4.237
80306SOL    HW142815   8.586  14.745   4.147
80306SOL    HW242816   8.568  14.788   4.291
80307SOL     OW42817   8.945   7.665   2.031
80307SOL    HW142818   8.968   7.588   2.083
80307SOL    HW242819   9.012   7.729   2.053
80308SOL     OW42820   4.957   5.130  12.522
80308SOL    HW142821   4.949   5.037  12.498
80308SOL    HW242822   4.888   5.143  12.587
80309SOL     OW42823   5.581  13.827  13.843
80309SOL    HW142824   5.540  13.753  13.798
80309SOL    HW242825   5.610  13.790  13.927
80310SOL     OW42826   7.473   6.139   7.755
80310SOL    HW142827   7.456   6.231   7.734
80310SOL    HW242828   7.562   6.138   7.791
80311SOL     OW42829   9.407  12.746   9.785
80311SOL    HW142830   9.427  12.819   9.843
80311SOL    HW242831   9.333  12.777   9.732
80312SOL     OW42832  10.294   2.391   8.537
80312SOL    HW142833  10.310   2.298   8.551
80312SOL    HW242834  10.311   2.431   8.623
80313SOL     OW42835   3.070  11.940  10.821
80313SOL    HW142836   3.045  12.020  10.774
80313SOL    HW242837   2.992  11.916  10.871
80314SOL     OW42838   6.973   0.827   6.833
80314SOL    HW142839   6.929   0.889   6.891
80314SOL    HW242840   6.907   0.802   6.768
80315SOL     OW42841  14.460   4.245   9.091
80315SOL    HW142842  14.544   4.223   9.050
80315SOL    HW242843  14.412   4.290   9.022
80316SOL     OW42844   8.431   6.705   5.158
80316SOL    HW142845   8.446   6.777   5.097
80316SOL    HW242846   8.499   6.715   5.225
80317SOL     OW42847   5.885   4.217  11.668
80317SOL    HW142848   5.949   4.201  11.599
80317SOL    HW242849   5.929   4.278  11.727
80318SOL     OW42850   8.067   0.998  10.976
80318SOL    HW142851   8.055   1.053  11.053
80318SOL    HW242852   8.036   1.052  10.903
80319SOL     OW42853   1.028  14.643   4.983
80319SOL    HW142854   1.013  14.737   4.995
80319SOL    HW242855   1.026  14.631   4.888
80320SOL     OW42856   8.272  10.118   2.854
80320SOL    HW142857   8.359  10.154   2.875
80320SOL    HW242858   8.215  10.194   2.850
80321SOL     OW42859   5.160   3.817  10.346
80321SOL    HW142860   5.220   3.765  10.292
80321SOL    HW242861   5.088   3.756  10.366
80322SOL     OW42862   7.011   6.627  12.022
80322SOL    HW142863   7.015   6.590  11.934
80322SOL    HW242864   7.011   6.552  12.081
80323SOL     OW42865   3.581   4.676  10.637
80323SOL    HW142866   3.492   4.710  10.638
80323SOL    HW242867   3.626   4.724  10.706
80324SOL     OW42868  10.171   8.573  13.886
80324SOL    HW142869  10.205   8.608  13.804
80324SOL    HW242870  10.149   8.651  13.937
80325SOL     OW42871   2.546  11.734   5.858
80325SOL    HW142872   2.580  11.811   5.812
80325SOL    HW242873   2.452  11.750   5.864
80326SOL     OW42874   1.698  12.847  12.050
80326SOL    HW142875   1.606  12.824  12.039
80326SOL    HW242876   1.717  12.827  12.141
80327SOL     OW42877  13.491   4.306  14.055
80327SOL    HW142878  13.449   4.376  14.005
80327SOL    HW242879  13.419   4.257  14.094
80328SOL     OW42880   4.452   7.293   9.694
80328SOL    HW142881   4.362   7.264   9.683
80328SOL    HW242882   4.453   7.383   9.660
80329SOL     OW42883  14.113   9.340   3.127
80329SOL    HW142884  14.057   9.351   3.204
80329SOL    HW242885  14.136   9.247   3.128
80330SOL     OW42886  10.365   6.600  11.578
80330SOL    HW142887  10.348   6.670  11.515
80330SOL    HW242888  10.442   6.555  11.542
80331SOL     OW42889   4.456   0.480   6.884
80331SOL    HW142890   4.511   0.468   6.962
80331SOL    HW242891   4.499   0.548   6.834
80332SOL     OW42892   4.336  11.219   0.863
80332SOL    HW142893   4.281  11.257   0.795
80332SOL    HW242894   4.289  11.234   0.944
80333SOL     OW42895   8.088   4.622   4.214
80333SOL    HW142896   8.159   4.621   4.278
80333SOL    HW242897   8.028   4.553   4.243
80334SOL     OW42898  13.320   5.235  10.677
80334SOL    HW142899  13.300   5.147  10.645
80334SOL    HW242900  13.290   5.294  10.607
80335SOL     OW42901  13.569  11.111  14.736
80335SOL    HW142902  13.501  11.090  14.800
80335SOL    HW242903  13.539  11.191  14.695
80336SOL     OW42904   6.289   5.568   2.351
80336SOL    HW142905   6.298   5.498   2.415
80336SOL    HW242906   6.377   5.582   2.318
80337SOL     OW42907   6.375  13.035   3.073
80337SOL    HW142908   6.414  13.122   3.077
80337SOL    HW242909   6.425  12.990   3.004
80338SOL     OW42910  10.438   2.311   8.094
80338SOL    HW142911  10.500   2.357   8.037
80338SOL    HW242912  10.421   2.373   8.165
80339SOL     OW42913   6.412  14.597   5.578
80339SOL    HW142914   6.435  14.689   5.570
80339SOL    HW242915   6.488  14.556   5.620
80340SOL     OW42916   9.470   1.527   9.635
80340SOL    HW142917   9.559   1.492   9.622
80340SOL    HW242918   9.422   1.455   9.677
80341SOL     OW42919  14.323   6.425  10.386
80341SOL    HW142920  14.353   6.392  10.470
80341SOL    HW242921  14.375   6.376  10.321
80342SOL     OW42922   9.528   1.840   7.660
80342SOL    HW142923   9.621   1.857   7.646
80342SOL    HW242924   9.525   1.767   7.721
80343SOL     OW42925   7.427   4.941  11.980
80343SOL    HW142926   7.510   4.940  11.932
80343SOL    HW242927   7.396   5.031  11.973
80344SOL     OW42928   2.058   8.818  10.872
80344SOL    HW142929   2.011   8.899  10.853
80344SOL    HW242930   2.033   8.796  10.962
80345SOL     OW42931   3.357   6.139   6.150
80345SOL    HW142932   3.437   6.188   6.134
80345SOL    HW242933   3.378   6.048   6.126
80346SOL     OW42934   5.673   1.293   5.941
80346SOL    HW142935   5.733   1.360   5.975
80346SOL    HW242936   5.592   1.306   5.991
80347SOL     OW42937   8.532  10.518  11.498
80347SOL    HW142938   8.626  10.498  11.492
80347SOL    HW242939   8.489  10.433  11.495
80348SOL     OW42940  13.876  13.434  14.624
80348SOL    HW142941  13.942  13.445  14.692
80348SOL    HW242942  13.796  13.411  14.672
80349SOL     OW42943   5.087   7.410  14.735
80349SOL    HW142944   5.165   7.365  14.704
80349SOL    HW242945   5.119   7.496  14.765
80350SOL     OW42946   0.206   3.023   1.961
80350SOL    HW142947   0.133   2.974   1.999
80350SOL    HW242948   0.180   3.115   1.969
80351SOL     OW42949   8.219  12.257   4.834
80351SOL    HW142950   8.273  12.329   4.868
80351SOL    HW242951   8.268  12.178   4.856
80352SOL     OW42952   9.513   4.958   3.871
80352SOL    HW142953   9.446   5.022   3.896
80352SOL    HW242954   9.482   4.875   3.909
80353SOL     OW42955   5.405  12.122  11.998
80353SOL    HW142956   5.400  12.201  12.051
80353SOL    HW242957   5.444  12.056  12.056
80354SOL     OW42958  13.419   6.598   5.693
80354SOL    HW142959  13.471   6.645   5.628
80354SOL    HW242960  13.412   6.509   5.658
80355SOL     OW42961   4.009   9.669   7.715
80355SOL    HW142962   3.975   9.744   7.763
80355SOL    HW242963   3.984   9.593   7.768
80356SOL     OW42964   5.651   4.902  14.213
80356SOL    HW142965   5.727   4.957  14.192
80356SOL    HW242966   5.577   4.946  14.170
80357SOL     OW42967   8.510   7.233   5.546
80357SOL    HW142968   8.580   7.289   5.510
80357SOL    HW242969   8.556   7.171   5.602
80358SOL     OW42970   8.236   3.209   6.845
80358SOL    HW142971   8.299   3.228   6.776
80358SOL    HW242972   8.282   3.146   6.902
80359SOL     OW42973   8.638   3.382   9.158
80359SOL    HW142974   8.725   3.419   9.168
80359SOL    HW242975   8.603   3.424   9.080
80360SOL     OW42976   7.265  14.049   6.776
80360SOL    HW142977   7.325  13.992   6.729
80360SOL    HW242978   7.306  14.136   6.772
80361SOL     OW42979   5.732   5.264   9.761
80361SOL    HW142980   5.660   5.210   9.729
80361SOL    HW242981   5.691   5.326   9.821
80362SOL     OW42982   7.939   5.923   1.524
80362SOL    HW142983   7.985   6.001   1.553
80362SOL    HW242984   8.007   5.866   1.489
80363SOL     OW42985   8.471   6.319   8.335
80363SOL    HW142986   8.446   6.398   8.382
80363SOL    HW242987   8.392   6.265   8.335
80364SOL     OW42988   4.502   8.305   9.416
80364SOL    HW142989   4.476   8.215   9.438
80364SOL    HW242990   4.438   8.332   9.350
80365SOL     OW42991   9.060   8.580   8.822
80365SOL    HW142992   9.094   8.562   8.735
80365SOL    HW242993   8.993   8.513   8.836
80366SOL     OW42994  10.498  12.953   8.241
80366SOL    HW142995  10.539  12.891   8.301
80366SOL    HW242996  10.520  12.921   8.154
80367SOL     OW42997  10.056   4.949   5.000
80367SOL    HW142998  10.037   4.923   4.910
80367SOL    HW242999   9.998   5.024   5.016
80368SOL     OW43000   0.653   4.764   9.536
80368SOL    HW143001   0.725   4.761   9.599
80368SOL    HW243002   0.674   4.696   9.472
80369SOL     OW43003  11.596   9.290   1.186
80369SOL    HW143004  11.542   9.334   1.252
80369SOL    HW243005  11.657   9.358   1.156
80370SOL     OW43006   2.625   1.831  12.621
80370SOL    HW143007   2.698   1.812  12.561
80370SOL    HW243008   2.649   1.915  12.660
80371SOL     OW43009   8.429   6.204   7.028
80371SOL    HW143010   8.400   6.229   6.941
80371SOL    HW243011   8.521   6.231   7.031
80372SOL     OW43012  13.939  12.246  10.735
80372SOL    HW143013  14.017  12.274  10.687
80372SOL    HW243014  13.865  12.271  10.679
80373SOL     OW43015  10.995   3.361   8.844
80373SOL    HW143016  10.939   3.424   8.799
80373SOL    HW243017  11.038   3.412   8.913
80374SOL     OW43018   2.150   3.602  12.808
80374SOL    HW143019   2.211   3.663  12.766
80374SOL    HW243020   2.074   3.602  12.750
80375SOL     OW43021  10.083  13.681   4.220
80375SOL    HW143022  10.012  13.743   4.233
80375SOL    HW243023  10.162  13.729   4.248
80376SOL     OW43024   4.527   3.106  14.779
80376SOL    HW143025   4.592   3.176  14.776
80376SOL    HW243026   4.492   3.109  14.868
80377SOL     OW43027   2.691   5.624   4.044
80377SOL    HW143028   2.631   5.561   4.083
80377SOL    HW243029   2.767   5.624   4.103
80378SOL     OW43030   9.076   3.317  13.728
80378SOL    HW143031   9.014   3.358  13.667
80378SOL    HW243032   9.160   3.321  13.683
80379SOL     OW43033  13.626   8.480   5.261
80379SOL    HW143034  13.564   8.407   5.254
80379SOL    HW243035  13.635   8.513   5.172
80380SOL     OW43036   8.977  10.168   4.264
80380SOL    HW143037   9.010  10.255   4.242
80380SOL    HW243038   8.910  10.184   4.331
80381SOL     OW43039   1.676   9.268   6.099
80381SOL    HW143040   1.686   9.304   6.187
80381SOL    HW243041   1.738   9.195   6.096
80382SOL     OW43042   1.567  10.668  12.695
80382SOL    HW143043   1.632  10.704  12.754
80382SOL    HW243044   1.600  10.687  12.607
80383SOL     OW43045  11.458   6.987   3.955
80383SOL    HW143046  11.472   7.009   3.863
80383SOL    HW243047  11.364   6.999   3.968
80384SOL     OW43048  10.455   1.145   2.945
80384SOL    HW143049  10.375   1.161   2.995
80384SOL    HW243050  10.522   1.132   3.011
80385SOL     OW43051   2.725   5.732   6.930
80385SOL    HW143052   2.664   5.762   6.864
80385SOL    HW243053   2.738   5.808   6.987
80386SOL     OW43054  13.187  10.696   6.289
80386SOL    HW143055  13.146  10.613   6.313
80386SOL    HW243056  13.199  10.742   6.372
80387SOL     OW43057  11.022   2.499   0.822
80387SOL    HW143058  10.988   2.411   0.806
80387SOL    HW243059  11.076   2.518   0.746
80388SOL     OW43060   5.425   8.044   6.333
80388SOL    HW143061   5.471   7.985   6.272
80388SOL    HW243062   5.488   8.112   6.353
80389SOL     OW43063   2.163   6.565   3.546
80389SOL    HW143064   2.163   6.532   3.636
80389SOL    HW243065   2.209   6.497   3.496
80390SOL     OW43066   4.120   6.424  11.298
80390SOL    HW143067   4.043   6.368  11.294
80390SOL    HW243068   4.193   6.363  11.310
80391SOL     OW43069   4.116   5.218   3.006
80391SOL    HW143070   4.096   5.291   2.948
80391SOL    HW243071   4.078   5.244   3.090
80392SOL     OW43072   0.199  12.386   8.901
80392SOL    HW143073   0.226  12.317   8.839
80392SOL    HW243074   0.211  12.467   8.852
80393SOL     OW43075   0.101   3.660   5.684
80393SOL    HW143076   0.040   3.617   5.744
80393SOL    HW243077   0.183   3.613   5.696
80394SOL     OW43078   5.571  11.067   7.097
80394SOL    HW143079   5.660  11.031   7.100
80394SOL    HW243080   5.573  11.140   7.159
80395SOL     OW43081   6.186   2.742   4.294
80395SOL    HW143082   6.272   2.782   4.309
80395SOL    HW243083   6.130   2.776   4.363
80396SOL     OW43084  11.839  11.530   5.439
80396SOL    HW143085  11.757  11.537   5.488
80396SOL    HW243086  11.846  11.437   5.418
80397SOL     OW43087   2.942   1.231   1.045
80397SOL    HW143088   2.928   1.198   0.956
80397SOL    HW243089   3.004   1.169   1.084
80398SOL     OW43090   5.886   1.018   0.814
80398SOL    HW143091   5.872   1.099   0.863
80398SOL    HW243092   5.893   0.950   0.882
80399SOL     OW43093   9.223  12.204   9.711
80399SOL    HW143094   9.145  12.228   9.661
80399SOL    HW243095   9.284  12.276   9.697
80400SOL     OW43096   0.395   9.766  12.256
80400SOL    HW143097   0.422   9.726  12.338
80400SOL    HW243098   0.329   9.831  12.280
80401SOL     OW43099   7.108  14.231   5.229
80401SOL    HW143100   7.192  14.209   5.189
80401SOL    HW243101   7.129  14.251   5.320
80402SOL     OW43102  10.744  11.979   6.451
80402SOL    HW143103  10.821  11.935   6.487
80402SOL    HW243104  10.713  11.921   6.382
80403SOL     OW43105   2.794   0.753  13.219
80403SOL    HW143106   2.852   0.825  13.245
80403SOL    HW243107   2.854   0.684  13.189
80404SOL     OW43108   8.958  12.379   5.758
80404SOL    HW143109   8.902  12.456   5.746
80404SOL    HW243110   9.039  12.400   5.713
80405SOL     OW43111  14.616   1.569   0.173
80405SOL    HW143112  14.565   1.618   0.238
80405SOL    HW243113  14.683   1.630   0.144
80406SOL     OW43114   5.612  12.772   4.172
80406SOL    HW143115   5.599  12.864   4.195
80406SOL    HW243116   5.578  12.765   4.083
80407SOL     OW43117  13.592   3.925   7.747
80407SOL    HW143118  13.612   4.004   7.797
80407SOL    HW243119  13.677   3.887   7.727
80408SOL     OW43120  10.403  12.902   5.967
80408SOL    HW143121  10.422  12.979   6.021
80408SOL    HW243122  10.338  12.932   5.904
80409SOL     OW43123  14.377   2.250   3.920
80409SOL    HW143124  14.360   2.327   3.974
80409SOL    HW243125  14.299   2.241   3.865
80410SOL     OW43126   1.896   4.058  11.720
80410SOL    HW143127   1.934   4.061  11.632
80410SOL    HW243128   1.811   4.017  11.708
80411SOL     OW43129   1.081   4.805   9.317
80411SOL    HW143130   1.092   4.723   9.268
80411SOL    HW243131   1.126   4.871   9.265
80412SOL     OW43132  14.552   9.624   7.016
80412SOL    HW143133  14.478   9.653   7.069
80412SOL    HW243134  14.530   9.534   6.991
80413SOL     OW43135   6.492   2.845   1.816
80413SOL    HW143136   6.444   2.770   1.779
80413SOL    HW243137   6.431   2.918   1.810
80414SOL     OW43138   3.187   3.782   6.837
80414SOL    HW143139   3.193   3.877   6.842
80414SOL    HW243140   3.277   3.752   6.836
80415SOL     OW43141  10.477   6.179   7.482
80415SOL    HW143142  10.429   6.145   7.558
80415SOL    HW243143  10.441   6.267   7.470
80416SOL     OW43144   0.551  13.651   4.996
80416SOL    HW143145   0.518  13.642   4.907
80416SOL    HW243146   0.571  13.561   5.024
80417SOL     OW43147   8.147  13.583  11.016
80417SOL    HW143148   8.092  13.594  11.094
80417SOL    HW243149   8.228  13.543  11.049
80418SOL     OW43150   3.425   1.934   2.428
80418SOL    HW143151   3.520   1.948   2.422
80418SOL    HW243152   3.393   2.011   2.476
80419SOL     OW43153  11.197   0.814   6.829
80419SOL    HW143154  11.149   0.791   6.750
80419SOL    HW243155  11.254   0.739   6.846
80420SOL     OW43156   0.694  13.085   5.186
80420SOL    HW143157   0.648  13.005   5.210
80420SOL    HW243158   0.626  13.144   5.155
80421SOL     OW43159  14.185  14.509   1.117
80421SOL    HW143160  14.219  14.468   1.038
80421SOL    HW243161  14.258  14.506   1.179
80422SOL     OW43162   1.600   2.557  11.790
80422SOL    HW143163   1.608   2.560  11.694
80422SOL    HW243164   1.658   2.486  11.817
80423SOL     OW43165   9.592  10.057   2.974
80423SOL    HW143166   9.521  10.067   2.910
80423SOL    HW243167   9.582   9.968   3.007
80424SOL     OW43168   8.297  14.799  12.254
80424SOL    HW143169   8.332  14.738  12.189
80424SOL    HW243170   8.205  14.775  12.262
80425SOL     OW43171  13.878   0.257   0.942
80425SOL    HW143172  13.805   0.199   0.961
80425SOL    HW243173  13.840   0.325   0.886
80426SOL     OW43174   9.902   7.526   6.809
80426SOL    HW143175   9.821   7.573   6.827
80426SOL    HW243176   9.956   7.539   6.887
80427SOL     OW43177  12.220  11.721   5.637
80427SOL    HW143178  12.206  11.808   5.599
80427SOL    HW243179  12.135  11.678   5.628
80428SOL     OW43180  14.673  11.367  14.409
80428SOL    HW143181  14.590  11.322  14.420
80428SOL    HW243182  14.739  11.300  14.423
80429SOL     OW43183   2.890   4.337   1.184
80429SOL    HW143184   2.835   4.405   1.145
80429SOL    HW243185   2.856   4.255   1.149
80430SOL     OW43186   9.460  11.817  11.306
80430SOL    HW143187   9.497  11.905  11.304
80430SOL    HW243188   9.422  11.809  11.394
80431SOL     OW43189   1.277   9.808   3.050
80431SOL    HW143190   1.312   9.742   3.111
80431SOL    HW243191   1.306   9.779   2.964
80432SOL     OW43192  11.527  11.221  11.831
80432SOL    HW143193  11.532  11.131  11.863
80432SOL    HW243194  11.524  11.213  11.736
80433SOL     OW43195   9.892  14.696   4.025
80433SOL    HW143196   9.887  14.641   3.947
80433SOL    HW243197   9.865  14.638   4.097
80434SOL     OW43198   2.095   5.362   2.114
80434SOL    HW143199   2.153   5.301   2.069
80434SOL    HW243200   2.007   5.333   2.090
80435SOL     OW43201  14.597   8.690   6.899
80435SOL    HW143202  14.522   8.654   6.945
80435SOL    HW243203  14.578   8.784   6.892
80436SOL     OW43204  10.860  11.514  11.214
80436SOL    HW143205  10.830  11.602  11.191
80436SOL    HW243206  10.783  11.459  11.203
80437SOL     OW43207   6.056   9.553  11.084
80437SOL    HW143208   6.129   9.574  11.025
80437SOL    HW243209   6.014   9.477  11.044
80438SOL     OW43210  14.053  13.954  10.352
80438SOL    HW143211  14.123  13.975  10.290
80438SOL    HW243212  13.995  14.030  10.349
80439SOL     OW43213   2.182   3.413  11.460
80439SOL    HW143214   2.214   3.442  11.545
80439SOL    HW243215   2.098   3.371  11.478
80440SOL     OW43216  11.446   0.919   8.818
80440SOL    HW143217  11.454   0.913   8.722
80440SOL    HW243218  11.377   0.856   8.840
80441SOL     OW43219  14.761  14.108  12.390
80441SOL    HW143220  14.799  14.036  12.442
80441SOL    HW243221  14.780  14.084  12.299
80442SOL     OW43222  14.743  14.138   1.775
80442SOL    HW143223  14.648  14.153   1.768
80442SOL    HW243224  14.763  14.078   1.703
80443SOL     OW43225   1.562   1.592  13.112
80443SOL    HW143226   1.634   1.651  13.133
80443SOL    HW243227   1.584   1.558  13.026
80444SOL     OW43228   2.604   6.023   0.943
80444SOL    HW143229   2.615   6.116   0.924
80444SOL    HW243230   2.516   6.018   0.982
80445SOL     OW43231   4.133   4.535   0.078
80445SOL    HW143232   4.187   4.574   0.147
80445SOL    HW243233   4.075   4.475   0.123
80446SOL     OW43234   3.240   3.627  14.500
80446SOL    HW143235   3.244   3.663  14.588
80446SOL    HW243236   3.329   3.595  14.483
80447SOL     OW43237  10.501   1.761   7.084
80447SOL    HW143238  10.426   1.783   7.139
80447SOL    HW243239  10.463   1.742   6.998
80448SOL     OW43240   5.334   9.007   5.740
80448SOL    HW143241   5.395   8.932   5.742
80448SOL    HW243242   5.288   8.998   5.657
80449SOL     OW43243   7.999  10.705  10.148
80449SOL    HW143244   7.948  10.650  10.207
80449SOL    HW243245   8.083  10.718  10.193
80450SOL     OW43246  10.024  10.935   8.009
80450SOL    HW143247   9.971  10.961   7.934
80450SOL    HW243248   9.995  10.846   8.030
80451SOL     OW43249   5.288   6.860   3.917
80451SOL    HW143250   5.201   6.832   3.888
80451SOL    HW243251   5.346   6.789   3.890
80452SOL     OW43252   8.668   6.052   8.946
80452SOL    HW143253   8.588   6.089   8.908
80452SOL    HW243254   8.640   6.014   9.029
80453SOL     OW43255   2.880   5.440   5.145
80453SOL    HW143256   2.940   5.370   5.170
80453SOL    HW243257   2.823   5.400   5.078
80454SOL     OW43258   8.279  10.967   9.268
80454SOL    HW143259   8.264  11.034   9.200
80454SOL    HW243260   8.265  11.014   9.350
80455SOL     OW43261   7.675   8.388   0.993
80455SOL    HW143262   7.659   8.390   0.898
80455SOL    HW243263   7.770   8.383   1.001
80456SOL     OW43264   8.448  12.113  13.271
80456SOL    HW143265   8.527  12.102  13.219
80456SOL    HW243266   8.418  12.201  13.250
80457SOL     OW43267   3.386   0.237   7.919
80457SOL    HW143268   3.429   0.187   7.849
80457SOL    HW243269   3.439   0.218   7.997
80458SOL     OW43270   8.833   7.175   0.625
80458SOL    HW143271   8.890   7.163   0.549
80458SOL    HW243272   8.889   7.157   0.700
80459SOL     OW43273   9.778   0.244   9.829
80459SOL    HW143274   9.804   0.245   9.737
80459SOL    HW243275   9.751   0.334   9.847
80460SOL     OW43276   8.831  12.745   2.687
80460SOL    HW143277   8.896  12.689   2.644
80460SOL    HW243278   8.853  12.833   2.656
80461SOL     OW43279   8.659   9.014   9.512
80461SOL    HW143280   8.672   9.071   9.588
80461SOL    HW243281   8.566   9.024   9.490
80462SOL     OW43282  11.293   6.835   1.052
80462SOL    HW143283  11.346   6.831   1.132
80462SOL    HW243284  11.326   6.764   0.997
80463SOL     OW43285   8.245  12.415  11.656
80463SOL    HW143286   8.287  12.345  11.607
80463SOL    HW243287   8.299  12.426  11.734
80464SOL     OW43288   4.183  14.032  11.822
80464SOL    HW143289   4.100  14.004  11.860
80464SOL    HW243290   4.249  14.010  11.888
80465SOL     OW43291   6.144   2.700   2.542
80465SOL    HW143292   6.116   2.705   2.451
80465SOL    HW243293   6.179   2.787   2.562
80466SOL     OW43294  14.522   0.086  13.024
80466SOL    HW143295  14.488   0.010  12.976
80466SOL    HW243296  14.601   0.112  12.976
80467SOL     OW43297   6.602   2.240   9.756
80467SOL    HW143298   6.572   2.190   9.832
80467SOL    HW243299   6.685   2.198   9.732
80468SOL     OW43300   0.360   9.553   1.725
80468SOL    HW143301   0.408   9.479   1.763
80468SOL    HW243302   0.410   9.576   1.647
80469SOL     OW43303  10.831   7.843   4.533
80469SOL    HW143304  10.798   7.766   4.487
80469SOL    HW243305  10.807   7.828   4.625
80470SOL     OW43306  12.031   8.430   7.184
80470SOL    HW143307  11.992   8.513   7.160
80470SOL    HW243308  12.023   8.425   7.280
80471SOL     OW43309   8.127  10.372   8.776
80471SOL    HW143310   8.131  10.417   8.691
80471SOL    HW243311   8.139  10.280   8.754
80472SOL     OW43312  11.263  10.085   5.731
80472SOL    HW143313  11.216  10.151   5.680
80472SOL    HW243314  11.245  10.107   5.822
80473SOL     OW43315   1.531   0.311   6.884
80473SOL    HW143316   1.537   0.256   6.805
80473SOL    HW243317   1.559   0.398   6.855
80474SOL     OW43318   8.735   9.597   5.608
80474SOL    HW143319   8.714   9.510   5.574
80474SOL    HW243320   8.650   9.639   5.621
80475SOL     OW43321   6.936  10.369   1.023
80475SOL    HW143322   7.008  10.319   1.063
80475SOL    HW243323   6.966  10.389   0.935
80476SOL     OW43324  12.541   1.100  14.809
80476SOL    HW143325  12.600   1.103   0.015
80476SOL    HW243326  12.542   1.008  14.782
80477SOL     OW43327   4.362   4.836   5.144
80477SOL    HW143328   4.275   4.797   5.132
80477SOL    HW243329   4.417   4.791   5.080
80478SOL     OW43330  10.383   4.217   4.744
80478SOL    HW143331  10.445   4.151   4.714
80478SOL    HW243332  10.341   4.249   4.664
80479SOL     OW43333   3.104  11.968   1.866
80479SOL    HW143334   3.171  11.963   1.797
80479SOL    HW243335   3.095  12.062   1.883
80480SOL     OW43336  13.340   6.656   9.598
80480SOL    HW143337  13.289   6.687   9.673
80480SOL    HW243338  13.355   6.563   9.616
80481SOL     OW43339  12.850   6.580  13.522
80481SOL    HW143340  12.772   6.579  13.578
80481SOL    HW243341  12.818   6.612  13.438
80482SOL     OW43342  13.822  11.713   1.937
80482SOL    HW143343  13.803  11.751   1.851
80482SOL    HW243344  13.741  11.671   1.963
80483SOL     OW43345   5.386   4.543   6.114
80483SOL    HW143346   5.420   4.631   6.127
80483SOL    HW243347   5.322   4.551   6.044
80484SOL     OW43348  10.367   1.686   6.108
80484SOL    HW143349  10.407   1.687   6.195
80484SOL    HW243350  10.440   1.669   6.048
80485SOL     OW43351  11.095  11.601   0.235
80485SOL    HW143352  11.043  11.680   0.223
80485SOL    HW243353  11.032  11.533   0.256
80486SOL     OW43354  11.765   6.935   7.151
80486SOL    HW143355  11.762   6.844   7.121
80486SOL    HW243356  11.786   6.985   7.072
80487SOL     OW43357  14.072   6.706  11.016
80487SOL    HW143358  13.994   6.716  10.962
80487SOL    HW243359  14.043   6.654  11.091
80488SOL     OW43360   7.858   6.915   9.066
80488SOL    HW143361   7.833   6.999   9.028
80488SOL    HW243362   7.902   6.938   9.148
80489SOL     OW43363   9.772  11.390   3.981
80489SOL    HW143364   9.835  11.318   3.987
80489SOL    HW243365   9.765  11.423   4.071
80490SOL     OW43366   1.859   1.405  10.993
80490SOL    HW143367   1.830   1.324  10.952
80490SOL    HW243368   1.925   1.440  10.933
80491SOL     OW43369  14.067   8.709   5.589
80491SOL    HW143370  14.146   8.673   5.630
80491SOL    HW243371  14.016   8.632   5.563
80492SOL     OW43372   3.530   5.913   5.354
80492SOL    HW143373   3.505   5.911   5.446
80492SOL    HW243374   3.464   5.861   5.310
80493SOL     OW43375   1.549   0.362   0.458
80493SOL    HW143376   1.633   0.398   0.483
80493SOL    HW243377   1.547   0.369   0.362
80494SOL     OW43378  14.582   8.173  12.424
80494SOL    HW143379  14.568   8.128  12.340
80494SOL    HW243380  14.553   8.109  12.490
80495SOL     OW43381   2.340   4.311   6.370
80495SOL    HW143382   2.245   4.325   6.364
80495SOL    HW243383   2.354   4.223   6.336
80496SOL     OW43384   3.414   4.651   2.189
80496SOL    HW143385   3.429   4.685   2.277
80496SOL    HW243386   3.335   4.598   2.197
80497SOL     OW43387   2.305   3.946  12.063
80497SOL    HW143388   2.362   3.871  12.083
80497SOL    HW243389   2.246   3.913  11.995
80498SOL     OW43390   2.594   7.434   6.532
80498SOL    HW143391   2.508   7.473   6.514
80498SOL    HW243392   2.638   7.434   6.447
80499SOL     OW43393   9.677  11.620   5.998
80499SOL    HW143394   9.732  11.622   6.076
80499SOL    HW243395   9.701  11.539   5.954
80500SOL     OW43396  10.117   6.101   3.794
80500SOL    HW143397  10.061   6.158   3.741
80500SOL    HW243398  10.119   6.144   3.880
80501SOL     OW43399  13.557   7.091   4.328
80501SOL    HW143400  13.634   7.038   4.308
80501SOL    HW243401  13.540   7.141   4.248
80502SOL     OW43402   7.965  12.344   8.882
80502SOL    HW143403   8.058  12.354   8.866
80502SOL    HW243404   7.959  12.290   8.961
80503SOL     OW43405   9.372   5.171  13.683
80503SOL    HW143406   9.280   5.182  13.707
80503SOL    HW243407   9.388   5.238  13.615
80504SOL     OW43408   7.488   1.038   2.775
80504SOL    HW143409   7.465   1.095   2.849
80504SOL    HW243410   7.580   1.015   2.791
80505SOL     OW43411   4.868  11.208   2.505
80505SOL    HW143412   4.798  11.273   2.496
80505SOL    HW243413   4.918  11.238   2.581
80506SOL     OW43414   0.427   9.752   7.756
80506SOL    HW143415   0.349   9.757   7.811
80506SOL    HW243416   0.479   9.828   7.782
80507SOL     OW43417   9.429   6.086  14.361
80507SOL    HW143418   9.490   6.154  14.390
80507SOL    HW243419   9.395   6.118  14.278
80508SOL     OW43420   8.904   0.084  13.102
80508SOL    HW143421   8.897   0.011  13.041
80508SOL    HW243422   8.868   0.050  13.184
80509SOL     OW43423   6.302  10.428   2.411
80509SOL    HW143424   6.352  10.423   2.492
80509SOL    HW243425   6.249  10.349   2.410
80510SOL     OW43426   6.560   6.853  11.244
80510SOL    HW143427   6.567   6.888  11.333
80510SOL    HW243428   6.469   6.824  11.236
80511SOL     OW43429   4.915   3.652  10.389
80511SOL    HW143430   4.916   3.711  10.465
80511SOL    HW243431   4.854   3.693  10.328
80512SOL     OW43432  13.563   5.685  12.033
80512SOL    HW143433  13.628   5.637  12.084
80512SOL    HW243434  13.499   5.618  12.007
80513SOL     OW43435  10.655   0.946   5.717
80513SOL    HW143436  10.590   0.955   5.787
80513SOL    HW243437  10.674   0.852   5.713
80514SOL     OW43438  11.631   0.951  14.703
80514SOL    HW143439  11.598   1.024  14.650
80514SOL    HW243440  11.585   0.874  14.669
80515SOL     OW43441   3.795   6.464   6.250
80515SOL    HW143442   3.816   6.409   6.326
80515SOL    HW243443   3.713   6.507   6.274
80516SOL     OW43444   6.108   2.219  10.532
80516SOL    HW143445   6.102   2.263  10.447
80516SOL    HW243446   6.111   2.290  10.596
80517SOL     OW43447  12.461  14.238  11.399
80517SOL    HW143448  12.461  14.154  11.353
80517SOL    HW243449  12.542  14.281  11.371
80518SOL     OW43450  11.030  12.183  14.474
80518SOL    HW143451  11.039  12.088  14.467
80518SOL    HW243452  11.118  12.217  14.454
80519SOL     OW43453   0.069   3.701   8.252
80519SOL    HW143454   0.064   3.681   8.346
80519SOL    HW243455   0.139   3.646   8.219
80520SOL     OW43456   4.993  10.240   2.111
80520SOL    HW143457   5.014  10.178   2.041
80520SOL    HW243458   4.927  10.195   2.164
80521SOL     OW43459  14.785   7.460   9.803
80521SOL    HW143460  14.805   7.512   9.726
80521SOL    HW243461  14.769   7.524   9.872
80522SOL     OW43462   5.154   8.940  14.515
80522SOL    HW143463   5.155   8.900  14.428
80522SOL    HW243464   5.244   8.970  14.529
80523SOL     OW43465   0.948   9.710   3.746
80523SOL    HW143466   1.042   9.712   3.765
80523SOL    HW243467   0.924   9.618   3.755
80524SOL     OW43468  14.490  10.768   9.500
80524SOL    HW143469  14.572  10.788   9.455
80524SOL    HW243470  14.516  10.753   9.591
80525SOL     OW43471   4.637   0.175   0.373
80525SOL    HW143472   4.590   0.093   0.353
80525SOL    HW243473   4.729   0.151   0.371
80526SOL     OW43474   5.880   9.439  14.842
80526SOL    HW143475   5.958   9.451  14.787
80526SOL    HW243476   5.915   9.429   0.061
80527SOL     OW43477  12.390   4.640   0.443
80527SOL    HW143478  12.464   4.701   0.441
80527SOL    HW243479  12.329   4.674   0.377
80528SOL     OW43480   8.780   7.748  10.173
80528SOL    HW143481   8.778   7.653  10.176
80528SOL    HW243482   8.864   7.772  10.212
80529SOL     OW43483  11.951   1.048  10.113
80529SOL    HW143484  11.977   0.969  10.065
80529SOL    HW243485  11.911   1.104  10.047
80530SOL     OW43486  11.563   4.016  10.421
80530SOL    HW143487  11.558   4.028  10.516
80530SOL    HW243488  11.478   3.979  10.397
80531SOL     OW43489   7.307   4.814   9.533
80531SOL    HW143490   7.392   4.856   9.545
80531SOL    HW243491   7.318   4.725   9.568
80532SOL     OW43492  14.236   1.523  13.644
80532SOL    HW143493  14.290   1.513  13.723
80532SOL    HW243494  14.150   1.490  13.670
80533SOL     OW43495   4.881   2.877   6.382
80533SOL    HW143496   4.849   2.853   6.296
80533SOL    HW243497   4.815   2.842   6.443
80534SOL     OW43498   0.382   5.423   4.271
80534SOL    HW143499   0.402   5.486   4.340
80534SOL    HW243500   0.438   5.448   4.198
80535SOL     OW43501   5.842   5.534   7.238
80535SOL    HW143502   5.749   5.509   7.239
80535SOL    HW243503   5.866   5.533   7.146
80536SOL     OW43504   1.166   0.615   2.308
80536SOL    HW143505   1.220   0.694   2.302
80536SOL    HW243506   1.155   0.600   2.402
80537SOL     OW43507   4.231   4.378  10.828
80537SOL    HW143508   4.281   4.307  10.868
80537SOL    HW243509   4.293   4.423  10.771
80538SOL     OW43510   3.103   6.365  10.331
80538SOL    HW143511   3.078   6.332  10.245
80538SOL    HW243512   3.115   6.459  10.318
80539SOL     OW43513   4.404   5.663   4.827
80539SOL    HW143514   4.333   5.686   4.887
80539SOL    HW243515   4.397   5.569   4.816
80540SOL     OW43516   8.144  12.890   1.066
80540SOL    HW143517   8.117  12.888   0.975
80540SOL    HW243518   8.182  12.803   1.082
80541SOL     OW43519   1.612   2.271   6.752
80541SOL    HW143520   1.601   2.188   6.706
80541SOL    HW243521   1.526   2.312   6.750
80542SOL     OW43522  12.322   2.072   5.706
80542SOL    HW143523  12.303   2.060   5.799
80542SOL    HW243524  12.237   2.063   5.663
80543SOL     OW43525   2.354   4.358  10.028
80543SOL    HW143526   2.423   4.402   9.979
80543SOL    HW243527   2.366   4.387  10.118
80544SOL     OW43528   0.876   9.547   4.550
80544SOL    HW143529   0.813   9.475   4.552
80544SOL    HW243530   0.962   9.505   4.559
80545SOL     OW43531   5.576   2.818   4.667
80545SOL    HW143532   5.569   2.770   4.585
80545SOL    HW243533   5.616   2.901   4.643
80546SOL     OW43534   9.144   5.056   5.346
80546SOL    HW143535   9.085   4.982   5.358
80546SOL    HW243536   9.184   5.043   5.260
80547SOL     OW43537   5.413   7.461   2.417
80547SOL    HW143538   5.437   7.386   2.472
80547SOL    HW243539   5.493   7.481   2.367
80548SOL     OW43540  11.296  13.434   5.182
80548SOL    HW143541  11.260  13.483   5.109
80548SOL    HW243542  11.238  13.453   5.256
80549SOL     OW43543  11.681   5.555   9.191
80549SOL    HW143544  11.725   5.500   9.256
80549SOL    HW243545  11.708   5.644   9.213
80550SOL     OW43546   2.073  12.838  11.731
80550SOL    HW143547   1.984  12.803  11.719
80550SOL    HW243548   2.084  12.899  11.658
80551SOL     OW43549   1.772  14.687   5.023
80551SOL    HW143550   1.836  14.715   4.957
80551SOL    HW243551   1.719  14.621   4.978
80552SOL     OW43552   0.057   4.681  12.026
80552SOL    HW143553  14.835   4.686  11.997
80552SOL    HW243554   0.094   4.608  11.977
80553SOL     OW43555   8.211  14.277  14.582
80553SOL    HW143556   8.156  14.304  14.655
80553SOL    HW243557   8.268  14.352  14.566
80554SOL     OW43558   5.511  14.191  11.058
80554SOL    HW143559   5.525  14.280  11.089
80554SOL    HW243560   5.418  14.175  11.073
80555SOL     OW43561  13.379   0.807   6.945
80555SOL    HW143562  13.372   0.888   6.896
80555SOL    HW243563  13.345   0.828   7.032
80556SOL     OW43564  11.407   8.684  12.398
80556SOL    HW143565  11.326   8.669  12.349
80556SOL    HW243566  11.383   8.669  12.489
80557SOL     OW43567  11.227   8.940   1.368
80557SOL    HW143568  11.254   9.030   1.387
80557SOL    HW243569  11.183   8.946   1.283
80558SOL     OW43570   8.364   9.887   1.460
80558SOL    HW143571   8.424   9.812   1.455
80558SOL    HW243572   8.404   9.953   1.404
80559SOL     OW43573   2.987   2.389   2.877
80559SOL    HW143574   3.058   2.435   2.921
80559SOL    HW243575   3.000   2.408   2.784
80560SOL     OW43576   8.486   4.495  14.419
80560SOL    HW143577   8.393   4.490  14.398
80560SOL    HW243578   8.522   4.411  14.389
80561SOL     OW43579   7.006   5.207   2.945
80561SOL    HW143580   7.008   5.171   3.033
80561SOL    HW243581   6.985   5.300   2.958
80562SOL     OW43582   8.462   5.616  12.029
80562SOL    HW143583   8.372   5.589  12.015
80562SOL    HW243584   8.497   5.631  11.941
80563SOL     OW43585   0.809  13.699  11.122
80563SOL    HW143586   0.834  13.739  11.205
80563SOL    HW243587   0.872  13.732  11.059
80564SOL     OW43588  12.138   5.821   5.486
80564SOL    HW143589  12.085   5.803   5.564
80564SOL    HW243590  12.155   5.915   5.490
80565SOL     OW43591   1.341   8.856   1.171
80565SOL    HW143592   1.382   8.841   1.086
80565SOL    HW243593   1.250   8.874   1.151
80566SOL     OW43594   0.821  14.864   8.545
80566SOL    HW143595   0.800  14.772   8.530
80566SOL    HW243596   0.913  14.864   8.571
80567SOL     OW43597   2.374   4.968   7.280
80567SOL    HW143598   2.410   4.887   7.316
80567SOL    HW243599   2.279   4.959   7.290
80568SOL     OW43600   4.565   7.615   5.202
80568SOL    HW143601   4.589   7.603   5.110
80568SOL    HW243602   4.623   7.556   5.250
80569SOL     OW43603   6.461   3.971   4.950
80569SOL    HW143604   6.425   3.915   5.019
80569SOL    HW243605   6.393   3.972   4.883
80570SOL     OW43606  12.474   2.130  13.256
80570SOL    HW143607  12.523   2.185  13.318
80570SOL    HW243608  12.402   2.094  13.307
80571SOL     OW43609   6.346   1.715   0.999
80571SOL    HW143610   6.436   1.685   0.991
80571SOL    HW243611   6.316   1.682   1.083
80572SOL     OW43612   9.786   5.771   0.301
80572SOL    HW143613   9.803   5.677   0.304
80572SOL    HW243614   9.785   5.799   0.392
80573SOL     OW43615  13.280  10.173   9.859
80573SOL    HW143616  13.343  10.102   9.869
80573SOL    HW243617  13.271  10.184   9.764
80574SOL     OW43618  13.991   4.635   2.285
80574SOL    HW143619  13.977   4.583   2.364
80574SOL    HW243620  14.083   4.662   2.289
80575SOL     OW43621  13.228   8.627   3.163
80575SOL    HW143622  13.278   8.682   3.103
80575SOL    HW243623  13.218   8.544   3.116
80576SOL     OW43624   2.735  10.150  13.780
80576SOL    HW143625   2.739  10.064  13.740
80576SOL    HW243626   2.646  10.180  13.766
80577SOL     OW43627   0.708   2.077  14.190
80577SOL    HW143628   0.763   2.155  14.195
80577SOL    HW243629   0.742   2.019  14.258
80578SOL     OW43630  12.547   8.683  11.485
80578SOL    HW143631  12.619   8.669  11.423
80578SOL    HW243632  12.549   8.777  11.505
80579SOL     OW43633   0.711   7.492   7.366
80579SOL    HW143634   0.704   7.574   7.414
80579SOL    HW243635   0.772   7.439   7.418
80580SOL     OW43636  12.440   2.155  11.729
80580SOL    HW143637  12.421   2.064  11.755
80580SOL    HW243638  12.467   2.198  11.810
80581SOL     OW43639   7.822  11.735   1.361
80581SOL    HW143640   7.818  11.640   1.368
80581SOL    HW243641   7.811  11.767   1.451
80582SOL     OW43642   7.991  13.093   9.747
80582SOL    HW143643   8.013  13.166   9.688
80582SOL    HW243644   7.924  13.044   9.700
80583SOL     OW43645   2.874   7.029  13.105
80583SOL    HW143646   2.956   6.980  13.112
80583SOL    HW243647   2.842   7.035  13.195
80584SOL     OW43648   1.417  13.551   7.876
80584SOL    HW143649   1.494  13.555   7.933
80584SOL    HW243650   1.416  13.460   7.844
80585SOL     OW43651  10.890  14.371  13.788
80585SOL    HW143652  10.867  14.417  13.708
80585SOL    HW243653  10.986  14.366  13.787
80586SOL     OW43654   5.143  10.763   5.899
80586SOL    HW143655   5.103  10.831   5.846
80586SOL    HW243656   5.094  10.684   5.879
80587SOL     OW43657  12.016  12.764   6.769
80587SOL    HW143658  11.947  12.788   6.707
80587SOL    HW243659  12.023  12.839   6.827
80588SOL     OW43660   9.146   6.975   5.385
80588SOL    HW143661   9.054   7.000   5.376
80588SOL    HW243662   9.185   7.045   5.437
80589SOL     OW43663   6.549   7.801   2.853
80589SOL    HW143664   6.599   7.761   2.924
80589SOL    HW243665   6.556   7.895   2.869
80590SOL     OW43666   2.232  12.053  11.771
80590SOL    HW143667   2.169  11.990  11.806
80590SOL    HW243668   2.196  12.139  11.796
80591SOL     OW43669   8.397   8.842  10.616
80591SOL    HW143670   8.450   8.871  10.689
80591SOL    HW243671   8.453   8.853  10.539
80592SOL     OW43672   5.071   3.675   4.204
80592SOL    HW143673   5.015   3.688   4.280
80592SOL    HW243674   5.094   3.764   4.176
80593SOL     OW43675   0.688   4.500  12.033
80593SOL    HW143676   0.634   4.478  11.957
80593SOL    HW243677   0.778   4.480  12.006
80594SOL     OW43678   9.661   4.585   5.571
80594SOL    HW143679   9.664   4.674   5.536
80594SOL    HW243680   9.715   4.534   5.511
80595SOL     OW43681  12.287   9.407   6.138
80595SOL    HW143682  12.293   9.311   6.137
80595SOL    HW243683  12.332   9.435   6.059
80596SOL     OW43684   8.460   9.707  11.768
80596SOL    HW143685   8.514   9.631  11.745
80596SOL    HW243686   8.424   9.686  11.854
80597SOL     OW43687   2.457   5.276  13.644
80597SOL    HW143688   2.407   5.224  13.707
80597SOL    HW243689   2.414   5.260  13.560
80598SOL     OW43690  12.332   1.145   9.626
80598SOL    HW143691  12.352   1.204   9.699
80598SOL    HW243692  12.238   1.131   9.633
80599SOL     OW43693   8.151   3.145   6.406
80599SOL    HW143694   8.172   3.211   6.472
80599SOL    HW243695   8.216   3.158   6.337
80600SOL     OW43696  11.595   0.490   4.932
80600SOL    HW143697  11.670   0.524   4.883
80600SOL    HW243698  11.524   0.485   4.867
80601SOL     OW43699   6.823   2.579   1.329
80601SOL    HW143700   6.791   2.591   1.418
80601SOL    HW243701   6.747   2.596   1.273
80602SOL     OW43702   1.658   0.059   5.214
80602SOL    HW143703   1.636  14.840   5.184
80602SOL    HW243704   1.714   0.094   5.145
80603SOL     OW43705   4.655  13.016  14.196
80603SOL    HW143706   4.575  12.986  14.239
80603SOL    HW243707   4.722  12.954  14.225
80604SOL     OW43708   5.338  13.571  10.900
80604SOL    HW143709   5.290  13.654  10.895
80604SOL    HW243710   5.294  13.522  10.969
80605SOL     OW43711   3.249   2.611   7.280
80605SOL    HW143712   3.225   2.684   7.337
80605SOL    HW243713   3.247   2.648   7.192
80606SOL     OW43714  11.082  13.344   3.922
80606SOL    HW143715  11.074  13.330   3.828
80606SOL    HW243716  11.120  13.431   3.931
80607SOL     OW43717   7.246   9.328   5.487
80607SOL    HW143718   7.177   9.379   5.445
80607SOL    HW243719   7.242   9.242   5.444
80608SOL     OW43720   0.945   4.578   3.855
80608SOL    HW143721   1.024   4.547   3.810
80608SOL    HW243722   0.881   4.508   3.841
80609SOL     OW43723   9.755   1.236   9.918
80609SOL    HW143724   9.678   1.181   9.931
80609SOL    HW243725   9.732   1.320   9.959
80610SOL     OW43726  13.343  13.109  12.958
80610SOL    HW143727  13.303  13.032  12.918
80610SOL    HW243728  13.301  13.183  12.915
80611SOL     OW43729   1.559   1.588  11.901
80611SOL    HW143730   1.490   1.592  11.835
80611SOL    HW243731   1.515   1.554  11.979
80612SOL     OW43732  11.497   6.952   9.647
80612SOL    HW143733  11.426   6.994   9.695
80612SOL    HW243734  11.549   7.025   9.613
80613SOL     OW43735  10.781  10.130   2.295
80613SOL    HW143736  10.874  10.152   2.296
80613SOL    HW243737  10.737  10.208   2.328
80614SOL     OW43738   9.797  14.298  10.556
80614SOL    HW143739   9.829  14.295  10.647
80614SOL    HW243740   9.732  14.368  10.556
80615SOL     OW43741   0.955   4.259   7.279
80615SOL    HW143742   1.040   4.242   7.239
80615SOL    HW243743   0.911   4.175   7.277
80616SOL     OW43744   7.006   6.521   7.113
80616SOL    HW143745   6.976   6.430   7.107
80616SOL    HW243746   6.939   6.571   7.067
80617SOL     OW43747  10.931  11.961   2.382
80617SOL    HW143748  10.917  11.985   2.290
80617SOL    HW243749  10.875  12.021   2.431
80618SOL     OW43750   4.790  10.064   5.489
80618SOL    HW143751   4.756  10.009   5.559
80618SOL    HW243752   4.840  10.004   5.433
80619SOL     OW43753   8.910   2.000  10.345
80619SOL    HW143754   8.831   1.946  10.344
80619SOL    HW243755   8.963   1.967  10.272
80620SOL     OW43756   8.885   5.905  13.747
80620SOL    HW143757   8.972   5.889  13.784
80620SOL    HW243758   8.901   5.966  13.674
80621SOL     OW43759  13.290   9.017   5.988
80621SOL    HW143760  13.377   9.020   5.949
80621SOL    HW243761  13.290   8.939   6.043
80622SOL     OW43762  14.573  12.073   1.453
80622SOL    HW143763  14.524  11.991   1.440
80622SOL    HW243764  14.647  12.066   1.393
80623SOL     OW43765   1.656   9.221  11.307
80623SOL    HW143766   1.568   9.253  11.284
80623SOL    HW243767   1.689   9.286  11.369
80624SOL     OW43768   3.754   6.593   9.387
80624SOL    HW143769   3.776   6.529   9.454
80624SOL    HW243770   3.700   6.658   9.432
80625SOL     OW43771   0.889   2.905  14.853
80625SOL    HW143772   0.807   2.918   0.031
80625SOL    HW243773   0.925   2.993  14.843
80626SOL     OW43774  13.300  11.497   8.244
80626SOL    HW143775  13.326  11.573   8.296
80626SOL    HW243776  13.251  11.534   8.171
80627SOL     OW43777  11.646   6.110   0.611
80627SOL    HW143778  11.703   6.140   0.682
80627SOL    HW243779  11.560   6.098   0.653
80628SOL     OW43780   2.884  12.654  14.430
80628SOL    HW143781   2.929  12.570  14.430
80628SOL    HW243782   2.803  12.638  14.381
80629SOL     OW43783  10.484  12.899   2.357
80629SOL    HW143784  10.475  12.995   2.360
80629SOL    HW243785  10.490  12.879   2.263
80630SOL     OW43786  12.244  12.105  11.425
80630SOL    HW143787  12.234  12.015  11.396
80630SOL    HW243788  12.198  12.157  11.359
80631SOL     OW43789   1.802   6.694   7.994
80631SOL    HW143790   1.787   6.608   8.034
80631SOL    HW243791   1.846   6.674   7.911
80632SOL     OW43792  10.464   5.493   5.203
80632SOL    HW143793  10.497   5.482   5.292
80632SOL    HW243794  10.456   5.588   5.193
80633SOL     OW43795   9.820   3.358  14.774
80633SOL    HW143796   9.817   3.417  14.699
80633SOL    HW243797   9.896   3.387  14.825
80634SOL     OW43798   3.164   1.861  11.635
80634SOL    HW143799   3.175   1.865  11.730
80634SOL    HW243800   3.171   1.951  11.605
80635SOL     OW43801   4.097  10.534  12.843
80635SOL    HW143802   4.074  10.497  12.758
80635SOL    HW243803   4.192  10.523  12.850
80636SOL     OW43804  11.453   4.267   7.872
80636SOL    HW143805  11.459   4.334   7.940
80636SOL    HW243806  11.463   4.315   7.790
80637SOL     OW43807   4.447   4.335   4.974
80637SOL    HW143808   4.533   4.301   4.997
80637SOL    HW243809   4.429   4.402   5.041
80638SOL     OW43810   9.406   8.715   7.466
80638SOL    HW143811   9.417   8.634   7.516
80638SOL    HW243812   9.492   8.732   7.428
80639SOL     OW43813   2.561  13.709  13.853
80639SOL    HW143814   2.535  13.785  13.801
80639SOL    HW243815   2.630  13.742  13.911
80640SOL     OW43816   0.785  12.539   1.293
80640SOL    HW143817   0.794  12.483   1.370
80640SOL    HW243818   0.779  12.478   1.219
80641SOL     OW43819   3.201  10.880   0.279
80641SOL    HW143820   3.221  10.974   0.280
80641SOL    HW243821   3.173  10.861   0.369
80642SOL     OW43822   7.187   5.908   0.106
80642SOL    HW143823   7.262   5.887   0.052
80642SOL    HW243824   7.112   5.905   0.047
80643SOL     OW43825  12.429   5.114   2.649
80643SOL    HW143826  12.424   5.194   2.598
80643SOL    HW243827  12.356   5.119   2.710
80644SOL     OW43828   5.431   6.457   1.950
80644SOL    HW143829   5.366   6.390   1.930
80644SOL    HW243830   5.406   6.489   2.036
80645SOL     OW43831   4.728   5.965  10.616
80645SOL    HW143832   4.651   5.965  10.674
80645SOL    HW243833   4.719   6.045  10.564
80646SOL     OW43834   8.169   8.740   2.688
80646SOL    HW143835   8.204   8.785   2.764
80646SOL    HW243836   8.078   8.722   2.709
80647SOL     OW43837  13.936   7.017   9.131
80647SOL    HW143838  14.018   7.030   9.177
80647SOL    HW243839  13.914   7.103   9.096
80648SOL     OW43840   2.547   2.682  10.065
80648SOL    HW143841   2.540   2.667  10.160
80648SOL    HW243842   2.463   2.721  10.041
80649SOL     OW43843   2.351   8.523   8.769
80649SOL    HW143844   2.259   8.549   8.777
80649SOL    HW243845   2.351   8.450   8.708
80650SOL     OW43846   0.771   4.191   7.048
80650SOL    HW143847   0.733   4.278   7.039
80650SOL    HW243848   0.733   4.140   6.976
80651SOL     OW43849   8.221   3.408   6.029
80651SOL    HW143850   8.206   3.326   5.982
80651SOL    HW243851   8.181   3.395   6.115
80652SOL     OW43852  11.621  12.474   3.663
80652SOL    HW143853  11.565  12.528   3.606
80652SOL    HW243854  11.597  12.499   3.752
80653SOL     OW43855   9.105   4.025   2.389
80653SOL    HW143856   9.188   4.064   2.360
80653SOL    HW243857   9.112   3.933   2.365
80654SOL     OW43858   8.983  11.541   9.254
80654SOL    HW143859   8.956  11.544   9.162
80654SOL    HW243860   8.913  11.493   9.298
80655SOL     OW43861   0.702   9.878  10.263
80655SOL    HW143862   0.631   9.890  10.200
80655SOL    HW243863   0.777   9.853  10.209
80656SOL     OW43864   3.632  13.120   8.197
80656SOL    HW143865   3.548  13.126   8.242
80656SOL    HW243866   3.686  13.188   8.238
80657SOL     OW43867  12.029   4.247   7.296
80657SOL    HW143868  12.011   4.298   7.375
80657SOL    HW243869  11.944   4.211   7.270
80658SOL     OW43870   9.929  11.213  10.570
80658SOL    HW143871   9.955  11.138  10.624
80658SOL    HW243872   9.879  11.268  10.629
80659SOL     OW43873  12.652  10.886   0.417
80659SOL    HW143874  12.684  10.960   0.468
80659SOL    HW243875  12.710  10.814   0.442
80660SOL     OW43876   1.041   8.283   8.660
80660SOL    HW143877   1.033   8.347   8.589
80660SOL    HW243878   1.050   8.199   8.615
80661SOL     OW43879   6.751  13.262   8.021
80661SOL    HW143880   6.761  13.289   7.930
80661SOL    HW243881   6.663  13.225   8.026
80662SOL     OW43882  10.951   9.941   7.032
80662SOL    HW143883  10.994   9.992   7.101
80662SOL    HW243884  10.939   9.854   7.071
80663SOL     OW43885   3.734  10.117   1.619
80663SOL    HW143886   3.802  10.184   1.629
80663SOL    HW243887   3.783  10.037   1.598
80664SOL     OW43888  11.033   5.990   4.036
80664SOL    HW143889  10.957   5.964   4.088
80664SOL    HW243890  11.092   5.915   4.040
80665SOL     OW43891   8.247   1.831   5.300
80665SOL    HW143892   8.319   1.792   5.350
80665SOL    HW243893   8.275   1.825   5.208
80666SOL     OW43894  14.057   1.442  10.357
80666SOL    HW143895  14.059   1.425  10.451
80666SOL    HW243896  13.964   1.447  10.335
80667SOL     OW43897   2.121  14.746   1.529
80667SOL    HW143898   2.073  14.701   1.598
80667SOL    HW243899   2.178  14.807   1.576
80668SOL     OW43900   4.521   4.695   2.980
80668SOL    HW143901   4.482   4.655   3.058
80668SOL    HW243902   4.558   4.622   2.931
80669SOL     OW43903   2.452  10.547   9.276
80669SOL    HW143904   2.382  10.506   9.326
80669SOL    HW243905   2.507  10.475   9.246
80670SOL     OW43906   9.835   3.472  12.699
80670SOL    HW143907   9.819   3.567  12.699
80670SOL    HW243908   9.922   3.462  12.737
80671SOL     OW43909  12.348   2.489   6.001
80671SOL    HW143910  12.307   2.405   6.023
80671SOL    HW243911  12.277   2.552   6.010
80672SOL     OW43912  14.257  10.256  13.648
80672SOL    HW143913  14.306  10.193  13.596
80672SOL    HW243914  14.315  10.333  13.653
80673SOL     OW43915   0.790   5.229  12.119
80673SOL    HW143916   0.770   5.320  12.099
80673SOL    HW243917   0.708   5.182  12.106
80674SOL     OW43918   4.509   8.078   5.367
80674SOL    HW143919   4.506   8.128   5.285
80674SOL    HW243920   4.506   7.987   5.339
80675SOL     OW43921   6.540   3.997   9.082
80675SOL    HW143922   6.466   4.054   9.063
80675SOL    HW243923   6.581   4.035   9.159
80676SOL     OW43924  12.564   9.596   0.960
80676SOL    HW143925  12.655   9.623   0.945
80676SOL    HW243926  12.571   9.519   1.016
80677SOL     OW43927  13.321  10.427   9.290
80677SOL    HW143928  13.349  10.412   9.380
80677SOL    HW243929  13.325  10.522   9.280
80678SOL     OW43930  11.340   2.898   0.276
80678SOL    HW143931  11.353   2.803   0.270
80678SOL    HW243932  11.420   2.935   0.239
80679SOL     OW43933  13.919   5.528   9.615
80679SOL    HW143934  13.863   5.465   9.659
80679SOL    HW243935  13.902   5.611   9.659
80680SOL     OW43936  13.295   3.659   5.140
80680SOL    HW143937  13.252   3.605   5.207
80680SOL    HW243938  13.388   3.654   5.161
80681SOL     OW43939   5.301  13.250  13.781
80681SOL    HW143940   5.221  13.239  13.833
80681SOL    HW243941   5.370  13.209  13.833
80682SOL     OW43942  10.711   8.986   8.596
80682SOL    HW143943  10.757   8.980   8.680
80682SOL    HW243944  10.760   9.051   8.546
80683SOL     OW43945   8.260   4.432   5.909
80683SOL    HW143946   8.186   4.440   5.969
80683SOL    HW243947   8.254   4.508   5.852
80684SOL     OW43948   0.931   1.450   4.256
80684SOL    HW143949   0.865   1.487   4.198
80684SOL    HW243950   0.960   1.370   4.213
80685SOL     OW43951   3.253   3.205  10.171
80685SOL    HW143952   3.333   3.226  10.218
80685SOL    HW243953   3.216   3.290  10.147
80686SOL     OW43954   1.374  11.790   4.142
80686SOL    HW143955   1.303  11.825   4.088
80686SOL    HW243956   1.344  11.703   4.169
80687SOL     OW43957  12.252  14.662   9.455
80687SOL    HW143958  12.270  14.746   9.497
80687SOL    HW243959  12.234  14.684   9.364
80688SOL     OW43960   3.284   8.861   5.146
80688SOL    HW143961   3.231   8.859   5.225
80688SOL    HW243962   3.370   8.831   5.173
80689SOL     OW43963   7.988   5.669   1.727
80689SOL    HW143964   7.976   5.592   1.672
80689SOL    HW243965   7.976   5.744   1.668
80690SOL     OW43966   2.861   9.348   1.265
80690SOL    HW143967   2.791   9.375   1.206
80690SOL    HW243968   2.839   9.388   1.349
80691SOL     OW43969   2.348   5.531   0.182
80691SOL    HW143970   2.256   5.546   0.160
80691SOL    HW243971   2.378   5.470   0.115
80692SOL     OW43972   5.136   3.128   8.374
80692SOL    HW143973   5.173   3.201   8.424
80692SOL    HW243974   5.212   3.077   8.346
80693SOL     OW43975   8.557  11.780   6.563
80693SOL    HW143976   8.587  11.861   6.523
80693SOL    HW243977   8.480  11.755   6.513
80694SOL     OW43978   4.247   4.895   1.347
80694SOL    HW143979   4.296   4.935   1.418
80694SOL    HW243980   4.305   4.827   1.313
80695SOL     OW43981   4.138   0.194   9.188
80695SOL    HW143982   4.093   0.144   9.255
80695SOL    HW243983   4.230   0.195   9.215
80696SOL     OW43984   0.357   9.973  14.626
80696SOL    HW143985   0.360   9.880  14.650
80696SOL    HW243986   0.448   9.997  14.608
80697SOL     OW43987   4.814  11.087   6.498
80697SOL    HW143988   4.778  11.123   6.580
80697SOL    HW243989   4.804  11.158   6.435
80698SOL     OW43990  12.637   0.529   7.768
80698SOL    HW143991  12.658   0.614   7.806
80698SOL    HW243992  12.721   0.496   7.735
80699SOL     OW43993  14.549   9.663   9.981
80699SOL    HW143994  14.496   9.665  10.061
80699SOL    HW243995  14.626   9.716  10.003
80700SOL     OW43996   7.764   5.179  11.721
80700SOL    HW143997   7.784   5.152  11.632
80700SOL    HW243998   7.762   5.275  11.717
80701SOL     OW43999   7.038   2.151  11.662
80701SOL    HW144000   7.119   2.124  11.619
80701SOL    HW244001   6.969   2.120  11.604
80702SOL     OW44002   3.211   4.528   5.710
80702SOL    HW144003   3.161   4.590   5.657
80702SOL    HW244004   3.238   4.579   5.787
80703SOL     OW44005   1.023   3.110   3.095
80703SOL    HW144006   1.005   3.185   3.153
80703SOL    HW244007   0.961   3.043   3.124
80704SOL     OW44008   9.810  14.812   6.523
80704SOL    HW144009   9.804  14.815   6.427
80704SOL    HW244010   9.850  14.727   6.541
80705SOL     OW44011   6.592  13.175   1.831
80705SOL    HW144012   6.628  13.094   1.796
80705SOL    HW244013   6.607  13.240   1.762
80706SOL     OW44014  11.556  13.513  13.605
80706SOL    HW144015  11.567  13.602  13.638
80706SOL    HW244016  11.477  13.516  13.552
80707SOL     OW44017  13.542   8.240  10.083
80707SOL    HW144018  13.453   8.247  10.118
80707SOL    HW244019  13.541   8.295  10.004
80708SOL     OW44020   9.192   9.843   7.668
80708SOL    HW144021   9.209   9.773   7.731
80708SOL    HW244022   9.186   9.798   7.584
80709SOL     OW44023  11.948   5.063  14.279
80709SOL    HW144024  11.994   5.093  14.201
80709SOL    HW244025  11.886   5.134  14.298
80710SOL     OW44026   9.472  12.453   1.327
80710SOL    HW144027   9.387  12.412   1.313
80710SOL    HW244028   9.533  12.380   1.336
80711SOL     OW44029   2.977   6.224  12.757
80711SOL    HW144030   3.042   6.282  12.797
80711SOL    HW244031   2.984   6.241  12.663
80712SOL     OW44032   2.126  10.468  13.565
80712SOL    HW144033   2.210  10.450  13.522
80712SOL    HW244034   2.098  10.552  13.529
80713SOL     OW44035   4.287   8.030  11.661
80713SOL    HW144036   4.229   8.028  11.737
80713SOL    HW244037   4.286   8.122  11.633
80714SOL     OW44038   4.227   7.537  13.352
80714SOL    HW144039   4.178   7.589  13.416
80714SOL    HW244040   4.311   7.518  13.395
80715SOL     OW44041   4.732   5.409   4.796
80715SOL    HW144042   4.682   5.327   4.800
80715SOL    HW244043   4.673   5.471   4.754
80716SOL     OW44044  12.455   2.051   9.517
80716SOL    HW144045  12.413   2.110   9.579
80716SOL    HW244046  12.549   2.067   9.528
80717SOL     OW44047   9.355   1.717  14.659
80717SOL    HW144048   9.282   1.739  14.717
80717SOL    HW244049   9.313   1.695  14.576
80718SOL     OW44050   5.781  10.568   0.079
80718SOL    HW144051   5.847  10.525   0.134
80718SOL    HW244052   5.831  10.606   0.006
80719SOL     OW44053  10.892   4.776  12.316
80719SOL    HW144054  10.920   4.744  12.230
80719SOL    HW244055  10.830   4.711  12.347
80720SOL     OW44056   9.830  13.505   7.058
80720SOL    HW144057   9.750  13.457   7.082
80720SOL    HW244058   9.899  13.464   7.110
80721SOL     OW44059   5.915   1.505   0.328
80721SOL    HW144060   5.842   1.467   0.377
80721SOL    HW244061   5.879   1.521   0.241
80722SOL     OW44062  14.744   8.888  12.927
80722SOL    HW144063  14.686   8.813  12.936
80722SOL    HW244064  14.685   8.964  12.926
80723SOL     OW44065   3.903  11.756   7.408
80723SOL    HW144066   3.964  11.819   7.372
80723SOL    HW244067   3.878  11.701   7.333
80724SOL     OW44068   5.990   2.779  13.922
80724SOL    HW144069   6.072   2.733  13.940
80724SOL    HW244070   5.938   2.767  14.001
80725SOL     OW44071   7.035   9.080   2.169
80725SOL    HW144072   7.098   9.026   2.121
80725SOL    HW244073   7.043   9.050   2.260
80726SOL     OW44074  11.990  10.484   3.242
80726SOL    HW144075  11.920  10.482   3.178
80726SOL    HW244076  11.967  10.415   3.305
80727SOL     OW44077   2.054   5.276   0.351
80727SOL    HW144078   1.997   5.322   0.413
80727SOL    HW244079   2.059   5.187   0.384
80728SOL     OW44080   7.804  11.062  11.889
80728SOL    HW144081   7.710  11.077  11.899
80728SOL    HW244082   7.812  10.967  11.880
80729SOL     OW44083   4.158   2.465   8.191
80729SOL    HW144084   4.213   2.407   8.138
80729SOL    HW244085   4.090   2.407   8.227
80730SOL     OW44086   3.479  11.521   9.123
80730SOL    HW144087   3.483  11.444   9.180
80730SOL    HW244088   3.435  11.588   9.175
80731SOL     OW44089   1.982  10.751  13.012
80731SOL    HW144090   2.003  10.679  13.072
80731SOL    HW244091   2.016  10.722  12.927
80732SOL     OW44092   5.028   2.371  12.469
80732SOL    HW144093   4.982   2.415  12.397
80732SOL    HW244094   5.098   2.432  12.493
80733SOL     OW44095   9.844   3.773   3.901
80733SOL    HW144096   9.848   3.684   3.935
80733SOL    HW244097   9.771   3.771   3.839
80734SOL     OW44098   0.477   3.657  14.617
80734SOL    HW144099   0.444   3.685  14.702
80734SOL    HW244100   0.458   3.563  14.613
80735SOL     OW44101   8.688  11.969   3.283
80735SOL    HW144102   8.671  11.936   3.371
80735SOL    HW244103   8.679  12.064   3.290
80736SOL     OW44104   2.342   5.226   3.243
80736SOL    HW144105   2.380   5.143   3.273
80736SOL    HW244106   2.356   5.286   3.317
80737SOL     OW44107   1.489   4.343   4.520
80737SOL    HW144108   1.559   4.286   4.551
80737SOL    HW244109   1.409   4.296   4.542
80738SOL     OW44110   6.624   1.216   2.131
80738SOL    HW144111   6.674   1.147   2.176
80738SOL    HW244112   6.646   1.296   2.177
80739SOL     OW44113  10.282  11.651   3.690
80739SOL    HW144114  10.275  11.707   3.613
80739SOL    HW244115  10.236  11.571   3.666
80740SOL     OW44116  10.389   1.817   5.206
80740SOL    HW144117  10.438   1.746   5.165
80740SOL    HW244118  10.375   1.880   5.136
80741SOL     OW44119   3.757   7.350  14.149
80741SOL    HW144120   3.745   7.259  14.123
80741SOL    HW244121   3.668   7.382  14.165
80742SOL     OW44122   7.702   8.833   7.463
80742SOL    HW144123   7.739   8.773   7.398
80742SOL    HW244124   7.726   8.920   7.432
80743SOL     OW44125  13.375   1.815   5.582
80743SOL    HW144126  13.294   1.842   5.539
80743SOL    HW244127  13.391   1.727   5.548
80744SOL     OW44128   7.415   3.023   5.163
80744SOL    HW144129   7.376   3.077   5.095
80744SOL    HW244130   7.425   2.937   5.123
80745SOL     OW44131   8.131   7.116   4.952
80745SOL    HW144132   8.042   7.092   4.976
80745SOL    HW244133   8.133   7.108   4.857
80746SOL     OW44134   8.877   6.112  14.599
80746SOL    HW144135   8.939   6.087  14.531
80746SOL    HW244136   8.922   6.179  14.650
80747SOL     OW44137  10.828  10.826  11.400
80747SOL    HW144138  10.792  10.831  11.311
80747SOL    HW244139  10.751  10.828  11.457
80748SOL     OW44140   2.581  11.342   5.962
80748SOL    HW144141   2.509  11.279   5.955
80748SOL    HW244142   2.562  11.392   6.041
80749SOL     OW44143   3.305  14.180   9.872
80749SOL    HW144144   3.386  14.174   9.922
80749SOL    HW244145   3.240  14.138   9.928
80750SOL     OW44146  10.606   6.846  13.919
80750SOL    HW144147  10.675   6.793  13.879
80750SOL    HW244148  10.620   6.837  14.013
80751SOL     OW44149  13.258  12.441   8.602
80751SOL    HW144150  13.193  12.380   8.568
80751SOL    HW244151  13.282  12.406   8.688
80752SOL     OW44152   2.834   9.925   7.712
80752SOL    HW144153   2.869   9.848   7.757
80752SOL    HW244154   2.911   9.969   7.676
80753SOL     OW44155  13.997   2.433  10.184
80753SOL    HW144156  13.993   2.511  10.239
80753SOL    HW244157  14.051   2.458  10.110
80754SOL     OW44158   5.595  14.682  13.007
80754SOL    HW144159   5.517  14.713  13.053
80754SOL    HW244160   5.625  14.759  12.957
80755SOL     OW44161   6.341   1.386  10.238
80755SOL    HW144162   6.286   1.425  10.171
80755SOL    HW244163   6.315   1.430  10.319
80756SOL     OW44164   4.179   4.110  14.063
80756SOL    HW144165   4.135   4.028  14.041
80756SOL    HW244166   4.115   4.178  14.045
80757SOL     OW44167   8.937   1.354   2.680
80757SOL    HW144168   8.849   1.318   2.690
80757SOL    HW244169   8.991   1.278   2.658
80758SOL     OW44170  10.571  10.993  10.195
80758SOL    HW144171  10.476  10.980  10.202
80758SOL    HW244172  10.595  10.948  10.114
80759SOL     OW44173   5.394  13.737  14.428
80759SOL    HW144174   5.466  13.744  14.365
80759SOL    HW244175   5.425  13.675  14.494
80760SOL     OW44176  10.637   5.330   8.093
80760SOL    HW144177  10.708   5.324   8.157
80760SOL    HW244178  10.557   5.324   8.145
80761SOL     OW44179   8.054  14.643   6.554
80761SOL    HW144180   8.062  14.548   6.541
80761SOL    HW244181   8.023  14.652   6.644
80762SOL     OW44182  12.045   6.882   6.511
80762SOL    HW144183  12.033   6.812   6.447
80762SOL    HW244184  12.074   6.958   6.459
80763SOL     OW44185   8.481  12.113   2.177
80763SOL    HW144186   8.536  12.123   2.099
80763SOL    HW244187   8.538  12.071   2.241
80764SOL     OW44188  12.882   5.702   7.174
80764SOL    HW144189  12.854   5.715   7.084
80764SOL    HW244190  12.805   5.725   7.227
80765SOL     OW44191   9.316   7.394  13.165
80765SOL    HW144192   9.273   7.398  13.079
80765SOL    HW244193   9.379   7.466  13.163
80766SOL     OW44194   8.822   7.892  14.632
80766SOL    HW144195   8.788   7.815  14.677
80766SOL    HW244196   8.915   7.894  14.653
80767SOL     OW44197   7.281  14.443  10.186
80767SOL    HW144198   7.186  14.456  10.188
80767SOL    HW244199   7.293  14.351  10.210
80768SOL     OW44200  11.680  14.061  13.363
80768SOL    HW144201  11.687  13.979  13.412
80768SOL    HW244202  11.592  14.059  13.326
80769SOL     OW44203  13.524   3.963   6.493
80769SOL    HW144204  13.445   3.909   6.481
80769SOL    HW244205  13.583   3.907   6.544
80770SOL     OW44206   4.803   1.285   5.026
80770SOL    HW144207   4.801   1.269   4.931
80770SOL    HW244208   4.755   1.367   5.037
80771SOL     OW44209  12.673   6.301   4.608
80771SOL    HW144210  12.659   6.227   4.549
80771SOL    HW244211  12.585   6.324   4.638
80772SOL     OW44212  11.138   8.546   0.888
80772SOL    HW144213  11.218   8.525   0.937
80772SOL    HW244214  11.152   8.504   0.803
80773SOL     OW44215  10.968   1.527   2.978
80773SOL    HW144216  10.990   1.493   2.891
80773SOL    HW244217  11.053   1.539   3.021
80774SOL     OW44218   3.514   8.475   0.046
80774SOL    HW144219   3.580   8.461   0.114
80774SOL    HW244220   3.492   8.386   0.017
80775SOL     OW44221   5.620  12.049  11.622
80775SOL    HW144222   5.537  12.046  11.670
80775SOL    HW244223   5.604  11.998  11.543
80776SOL     OW44224  11.749   7.161   1.493
80776SOL    HW144225  11.674   7.173   1.551
80776SOL    HW244226  11.794   7.245   1.493
80777SOL     OW44227   6.030   7.748   0.145
80777SOL    HW144228   6.029   7.821   0.207
80777SOL    HW244229   6.054   7.672   0.197
80778SOL     OW44230   6.727   1.068   5.757
80778SOL    HW144231   6.793   1.093   5.692
80778SOL    HW244232   6.705   0.977   5.736
80779SOL     OW44233   8.432  13.063   6.501
80779SOL    HW144234   8.505  13.009   6.532
80779SOL    HW244235   8.447  13.071   6.407
80780SOL     OW44236  10.627   5.784   2.652
80780SOL    HW144237  10.549   5.730   2.669
80780SOL    HW244238  10.689   5.724   2.612
80781SOL     OW44239   0.251  14.351  14.193
80781SOL    HW144240   0.259  14.341  14.098
80781SOL    HW244241   0.275  14.265  14.228
80782SOL     OW44242   9.022   9.116  11.365
80782SOL    HW144243   8.958   9.046  11.380
80782SOL    HW244244   9.068   9.090  11.285
80783SOL     OW44245  13.053   0.763   6.954
80783SOL    HW144246  13.102   0.732   7.031
80783SOL    HW244247  12.972   0.711   6.955
80784SOL     OW44248   2.034   3.921  12.877
80784SOL    HW144249   2.008   3.922  12.785
80784SOL    HW244250   2.123   3.887  12.876
80785SOL     OW44251   7.098   7.569   2.628
80785SOL    HW144252   7.101   7.552   2.722
80785SOL    HW244253   7.024   7.629   2.617
80786SOL     OW44254   7.712   5.060   6.088
80786SOL    HW144255   7.763   5.141   6.095
80786SOL    HW244256   7.621   5.089   6.089
80787SOL     OW44257   9.563  10.125   5.410
80787SOL    HW144258   9.472  10.109   5.383
80787SOL    HW244259   9.569  10.220   5.418
80788SOL     OW44260  12.310   9.905   9.262
80788SOL    HW144261  12.376   9.916   9.331
80788SOL    HW244262  12.304   9.810   9.251
80789SOL     OW44263   5.241  14.323   1.793
80789SOL    HW144264   5.310  14.381   1.828
80789SOL    HW244265   5.247  14.334   1.698
80790SOL     OW44266   8.237  10.161   2.172
80790SOL    HW144267   8.329  10.181   2.187
80790SOL    HW244268   8.190  10.240   2.199
80791SOL     OW44269  11.651   6.854   7.514
80791SOL    HW144270  11.600   6.854   7.595
80791SOL    HW244271  11.680   6.763   7.503
80792SOL     OW44272   9.283   1.840   2.700
80792SOL    HW144273   9.275   1.850   2.795
80792SOL    HW244274   9.374   1.862   2.681
80793SOL     OW44275  14.452  12.479   1.339
80793SOL    HW144276  14.359  12.457   1.337
80793SOL    HW244277  14.491  12.425   1.271
80794SOL     OW44278   3.761  14.760   3.255
80794SOL    HW144279   3.836  14.704   3.271
80794SOL    HW244280   3.698  14.735   3.322
80795SOL     OW44281   5.177  10.791   5.165
80795SOL    HW144282   5.224  10.746   5.235
80795SOL    HW244283   5.088  10.801   5.198
80796SOL     OW44284   4.011  14.802  12.507
80796SOL    HW144285   4.058   0.008  12.472
80796SOL    HW244286   3.921  14.832  12.516
80797SOL     OW44287   6.996  11.975  12.962
80797SOL    HW144288   6.913  11.993  12.918
80797SOL    HW244289   7.046  11.925  12.898
80798SOL     OW44290   5.764   7.124  10.471
80798SOL    HW144291   5.859   7.134  10.474
80798SOL    HW244292   5.732   7.175  10.545
80799SOL     OW44293   2.758   2.035   7.813
80799SOL    HW144294   2.741   2.124   7.844
80799SOL    HW244295   2.710   1.978   7.873
80800SOL     OW44296   7.971  14.582  13.720
80800SOL    HW144297   7.906  14.652  13.724
80800SOL    HW244298   8.042  14.618  13.667
80801SOL     OW44299   0.238   6.752   1.503
80801SOL    HW144300   0.261   6.742   1.411
80801SOL    HW244301   0.304   6.702   1.550
80802SOL     OW44302   5.467   9.768   3.572
80802SOL    HW144303   5.494   9.796   3.485
80802SOL    HW244304   5.493   9.676   3.577
80803SOL     OW44305   2.826  13.793  13.194
80803SOL    HW144306   2.829  13.849  13.117
80803SOL    HW244307   2.874  13.841  13.261
80804SOL     OW44308  11.265   6.757   2.401
80804SOL    HW144309  11.341   6.725   2.450
80804SOL    HW244310  11.298   6.773   2.313
80805SOL     OW44311  14.694   1.785   2.726
80805SOL    HW144312  14.730   1.761   2.641
80805SOL    HW244313  14.745   1.733   2.788
80806SOL     OW44314   8.239   2.155   1.996
80806SOL    HW144315   8.197   2.161   2.082
80806SOL    HW244316   8.176   2.195   1.936
80807SOL     OW44317   9.031  13.536   1.259
80807SOL    HW144318   8.985  13.490   1.189
80807SOL    HW244319   9.124  13.526   1.236
80808SOL     OW44320  13.115  11.337   2.188
80808SOL    HW144321  13.178  11.375   2.127
80808SOL    HW244322  13.127  11.243   2.179
80809SOL     OW44323  12.726   5.179  10.253
80809SOL    HW144324  12.792   5.147  10.314
80809SOL    HW244325  12.736   5.274  10.254
80810SOL     OW44326   5.681   1.318  14.358
80810SOL    HW144327   5.763   1.269  14.367
80810SOL    HW244328   5.667   1.358  14.444
80811SOL     OW44329   1.460  14.570   9.885
80811SOL    HW144330   1.481  14.479   9.863
80811SOL    HW244331   1.430  14.566   9.976
80812SOL     OW44332   1.810   2.001   8.628
80812SOL    HW144333   1.862   1.927   8.659
80812SOL    HW244334   1.749   1.963   8.566
80813SOL     OW44335   2.448   8.130   6.641
80813SOL    HW144336   2.367   8.081   6.649
80813SOL    HW244337   2.427   8.218   6.674
80814SOL     OW44338   3.876   4.136   6.029
80814SOL    HW144339   3.831   4.125   5.945
80814SOL    HW244340   3.812   4.107   6.094
80815SOL     OW44341   4.942  11.003  14.026
80815SOL    HW144342   4.848  11.008  14.007
80815SOL    HW244343   4.963  10.910  14.015
80816SOL     OW44344  13.968  13.150   9.484
80816SOL    HW144345  13.887  13.128   9.530
80816SOL    HW244346  13.944  13.153   9.392
80817SOL     OW44347  14.722  12.042   5.062
80817SOL    HW144348  14.800  12.028   5.116
80817SOL    HW244349  14.664  11.970   5.086
80818SOL     OW44350   6.396  11.384   3.546
80818SOL    HW144351   6.478  11.341   3.570
80818SOL    HW244352   6.329  11.331   3.590
80819SOL     OW44353  11.909   3.907   4.161
80819SOL    HW144354  11.999   3.880   4.143
80819SOL    HW244355  11.880   3.849   4.232
80820SOL     OW44356   0.365   1.671   4.451
80820SOL    HW144357   0.446   1.719   4.434
80820SOL    HW244358   0.369   1.650   4.544
80821SOL     OW44359   0.032   6.077  11.814
80821SOL    HW144360   0.127   6.077  11.830
80821SOL    HW244361   0.007   5.985  11.819
80822SOL     OW44362   5.998   7.995   3.482
80822SOL    HW144363   6.018   7.960   3.568
80822SOL    HW244364   6.018   7.924   3.421
80823SOL     OW44365  10.651  10.023  14.096
80823SOL    HW144366  10.605   9.949  14.055
80823SOL    HW244367  10.610  10.031  14.182
80824SOL     OW44368   5.476  13.100  12.751
80824SOL    HW144369   5.547  13.072  12.809
80824SOL    HW244370   5.481  13.195  12.751
80825SOL     OW44371  11.237  10.103  12.778
80825SOL    HW144372  11.270  10.023  12.737
80825SOL    HW244373  11.264  10.097  12.869
80826SOL     OW44374   2.938   5.357   4.128
80826SOL    HW144375   3.005   5.304   4.170
80826SOL    HW244376   2.961   5.447   4.152
80827SOL     OW44377   6.858   6.747   0.941
80827SOL    HW144378   6.814   6.780   0.862
80827SOL    HW244379   6.838   6.654   0.942
80828SOL     OW44380  12.717   9.618   3.289
80828SOL    HW144381  12.737   9.662   3.371
80828SOL    HW244382  12.713   9.525   3.312
80829SOL     OW44383  13.579   0.712   7.799
80829SOL    HW144384  13.671   0.695   7.781
80829SOL    HW244385  13.559   0.662   7.878
80830SOL     OW44386  11.809  13.464   0.161
80830SOL    HW144387  11.854  13.500   0.238
80830SOL    HW244388  11.719  13.449   0.191
80831SOL     OW44389   9.295   2.778   0.730
80831SOL    HW144390   9.364   2.842   0.712
80831SOL    HW244391   9.328   2.696   0.694
80832SOL     OW44392  13.066   5.750   6.124
80832SOL    HW144393  13.045   5.772   6.033
80832SOL    HW244394  13.068   5.834   6.169
80833SOL     OW44395  10.074   5.078   3.372
80833SOL    HW144396  10.001   5.065   3.433
80833SOL    HW244397  10.046   5.032   3.293
80834SOL     OW44398  12.814   1.575   0.435
80834SOL    HW144399  12.791   1.562   0.527
80834SOL    HW244400  12.909   1.561   0.432
80835SOL     OW44401   2.870   0.755  11.920
80835SOL    HW144402   2.954   0.779  11.960
80835SOL    HW244403   2.893   0.684  11.859
80836SOL     OW44404  14.619  10.718  14.604
80836SOL    HW144405  14.593  10.809  14.591
80836SOL    HW244406  14.662  10.694  14.522
80837SOL     OW44407   2.363  12.676   2.497
80837SOL    HW144408   2.453  12.647   2.512
80837SOL    HW244409   2.310  12.598   2.515
80838SOL     OW44410   2.790  11.184   6.556
80838SOL    HW144411   2.761  11.169   6.466
80838SOL    HW244412   2.881  11.154   6.557
80839SOL     OW44413   9.355   5.699  12.496
80839SOL    HW144414   9.431   5.737  12.542
80839SOL    HW244415   9.279   5.731  12.545
80840SOL     OW44416   1.409   6.012   2.011
80840SOL    HW144417   1.460   5.988   2.089
80840SOL    HW244418   1.362   6.091   2.036
80841SOL     OW44419   9.677   6.740   4.244
80841SOL    HW144420   9.660   6.803   4.174
80841SOL    HW244421   9.736   6.786   4.304
80842SOL     OW44422  12.799   9.080   0.642
80842SOL    HW144423  12.865   9.111   0.704
80842SOL    HW244424  12.722   9.135   0.659
80843SOL     OW44425  11.523   4.743   3.585
80843SOL    HW144426  11.611   4.706   3.588
80843SOL    HW244427  11.534   4.827   3.542
80844SOL     OW44428   8.105   6.483   4.557
80844SOL    HW144429   8.029   6.492   4.615
80844SOL    HW244430   8.102   6.393   4.525
80845SOL     OW44431   5.424   7.482   5.029
80845SOL    HW144432   5.513   7.472   4.994
80845SOL    HW244433   5.393   7.392   5.041
80846SOL     OW44434   4.781   0.105   8.240
80846SOL    HW144435   4.821   0.184   8.276
80846SOL    HW244436   4.844   0.036   8.258
80847SOL     OW44437   1.003   9.665  14.671
80847SOL    HW144438   1.070   9.607  14.636
80847SOL    HW244439   1.047   9.715  14.740
80848SOL     OW44440  10.539   9.225   9.881
80848SOL    HW144441  10.568   9.248   9.793
80848SOL    HW244442  10.460   9.172   9.867
80849SOL     OW44443  10.849   6.557  10.117
80849SOL    HW144444  10.842   6.647  10.087
80849SOL    HW244445  10.914   6.516  10.059
80850SOL     OW44446   7.944  10.760   9.018
80850SOL    HW144447   7.920  10.703   9.091
80850SOL    HW244448   8.018  10.717   8.976
80851SOL     OW44449   8.524   9.353  10.546
80851SOL    HW144450   8.588   9.332  10.477
80851SOL    HW244451   8.578   9.379  10.620
80852SOL     OW44452  12.945  10.569   1.053
80852SOL    HW144453  12.859  10.580   1.093
80852SOL    HW244454  12.976  10.659   1.040
80853SOL     OW44455  13.364   8.093   4.210
80853SOL    HW144456  13.410   8.074   4.292
80853SOL    HW244457  13.429   8.075   4.142
80854SOL     OW44458  11.666   0.013   4.884
80854SOL    HW144459  11.620   0.071   4.824
80854SOL    HW244460  11.630   0.034   4.971
80855SOL     OW44461  13.301   5.801   1.858
80855SOL    HW144462  13.356   5.860   1.806
80855SOL    HW244463  13.362   5.760   1.919
80856SOL     OW44464  11.779  10.909   7.523
80856SOL    HW144465  11.827  10.839   7.478
80856SOL    HW244466  11.735  10.957   7.453
80857SOL     OW44467  11.839   3.301   2.725
80857SOL    HW144468  11.794   3.219   2.745
80857SOL    HW244469  11.768   3.365   2.713
80858SOL     OW44470  12.643  11.613   0.703
80858SOL    HW144471  12.605  11.666   0.773
80858SOL    HW244472  12.722  11.661   0.677
80859SOL     OW44473  10.620   8.497   8.113
80859SOL    HW144474  10.550   8.534   8.059
80859SOL    HW244475  10.594   8.516   8.203
80860SOL     OW44476   9.415  10.868   1.673
80860SOL    HW144477   9.442  10.779   1.694
80860SOL    HW244478   9.495  10.920   1.682
80861SOL     OW44479   6.095   0.950  10.239
80861SOL    HW144480   6.186   0.978  10.236
80861SOL    HW244481   6.057   0.997  10.313
80862SOL     OW44482   7.537   9.787   9.052
80862SOL    HW144483   7.532   9.882   9.043
80862SOL    HW244484   7.462   9.764   9.107
80863SOL     OW44485   3.754   2.027   7.241
80863SOL    HW144486   3.724   1.963   7.176
80863SOL    HW244487   3.689   2.023   7.311
80864SOL     OW44488   2.910   1.327   3.290
80864SOL    HW144489   2.923   1.366   3.376
80864SOL    HW244490   2.978   1.366   3.235
80865SOL     OW44491   7.216   8.576   9.619
80865SOL    HW144492   7.139   8.547   9.570
80865SOL    HW244493   7.289   8.559   9.559
80866SOL     OW44494   3.869  10.400  10.145
80866SOL    HW144495   3.830  10.479  10.109
80866SOL    HW244496   3.873  10.415  10.239
80867SOL     OW44497  10.267  13.679  13.710
80867SOL    HW144498  10.209  13.603  13.700
80867SOL    HW244499  10.353  13.647  13.684
80868SOL     OW44500   5.021  11.338  13.530
80868SOL    HW144501   5.005  11.289  13.449
80868SOL    HW244502   5.042  11.271  13.595
80869SOL     OW44503   3.026  11.977  11.478
80869SOL    HW144504   3.011  12.064  11.443
80869SOL    HW244505   2.957  11.965  11.544
80870SOL     OW44506   6.904  13.059   6.257
80870SOL    HW144507   6.984  13.039   6.208
80870SOL    HW244508   6.919  13.147   6.292
80871SOL     OW44509   6.156  10.160  12.519
80871SOL    HW144510   6.153  10.227  12.587
80871SOL    HW244511   6.066  10.153  12.488
80872SOL     OW44512  12.290   1.126   6.196
80872SOL    HW144513  12.259   1.036   6.187
80872SOL    HW244514  12.317   1.133   6.288
80873SOL     OW44515   6.195  13.460  11.963
80873SOL    HW144516   6.177  13.465  12.057
80873SOL    HW244517   6.287  13.485  11.955
80874SOL     OW44518   7.926   5.948  10.429
80874SOL    HW144519   7.880   5.864  10.426
80874SOL    HW244520   7.996   5.939  10.364
80875SOL     OW44521  10.601  10.114   5.607
80875SOL    HW144522  10.610  10.170   5.684
80875SOL    HW244523  10.508  10.092   5.604
80876SOL     OW44524   6.345   0.907  10.839
80876SOL    HW144525   6.336   0.819  10.875
80876SOL    HW244526   6.426   0.905  10.788
80877SOL     OW44527  10.039  12.317  11.052
80877SOL    HW144528   9.977  12.246  11.064
80877SOL    HW244529  10.000  12.374  10.986
80878SOL     OW44530  11.487   2.653  11.872
80878SOL    HW144531  11.480   2.679  11.780
80878SOL    HW244532  11.536   2.571  11.870
80879SOL     OW44533   5.445   1.701   1.796
80879SOL    HW144534   5.388   1.767   1.837
80879SOL    HW244535   5.524   1.701   1.850
80880SOL     OW44536  12.571   9.329  12.097
80880SOL    HW144537  12.493   9.323  12.151
80880SOL    HW244538  12.622   9.400  12.136
80881SOL     OW44539  12.487   7.241   9.013
80881SOL    HW144540  12.400   7.275   8.990
80881SOL    HW244541  12.513   7.189   8.937
80882SOL     OW44542   1.304  11.988  10.523
80882SOL    HW144543   1.295  11.940  10.441
80882SOL    HW244544   1.347  11.927  10.583
80883SOL     OW44545   3.245   5.274   7.421
80883SOL    HW144546   3.275   5.214   7.489
80883SOL    HW244547   3.199   5.217   7.358
80884SOL     OW44548   7.196   7.920  11.141
80884SOL    HW144549   7.112   7.877  11.129
80884SOL    HW244550   7.202   7.981  11.067
80885SOL     OW44551   9.515   1.499  13.791
80885SOL    HW144552   9.470   1.430  13.742
80885SOL    HW244553   9.573   1.453  13.851
80886SOL     OW44554   6.127   5.973   0.932
80886SOL    HW144555   6.068   6.048   0.928
80886SOL    HW244556   6.088   5.908   0.874
80887SOL     OW44557  11.081   6.452   0.267
80887SOL    HW144558  11.068   6.527   0.208
80887SOL    HW244559  11.004   6.452   0.324
80888SOL     OW44560  14.388   0.367  11.972
80888SOL    HW144561  14.458   0.366  11.908
80888SOL    HW244562  14.409   0.297  12.033
80889SOL     OW44563   6.631   3.206   0.161
80889SOL    HW144564   6.599   3.296   0.157
80889SOL    HW244565   6.694   3.200   0.089
80890SOL     OW44566   4.480   8.396   2.193
80890SOL    HW144567   4.481   8.416   2.287
80890SOL    HW244568   4.403   8.341   2.181
80891SOL     OW44569  11.760   0.052   4.572
80891SOL    HW144570  11.727   0.135   4.606
80891SOL    HW244571  11.799   0.074   4.488
80892SOL     OW44572   8.557   2.299   7.363
80892SOL    HW144573   8.548   2.212   7.400
80892SOL    HW244574   8.647   2.325   7.385
80893SOL     OW44575   5.454   1.268  14.604
80893SOL    HW144576   5.494   1.221  14.531
80893SOL    HW244577   5.519   1.332  14.630
80894SOL     OW44578   9.852   7.012  11.847
80894SOL    HW144579   9.800   7.051  11.776
80894SOL    HW244580   9.852   7.079  11.916
80895SOL     OW44581   6.861  10.649  14.146
80895SOL    HW144582   6.841  10.582  14.081
80895SOL    HW244583   6.852  10.732  14.099
80896SOL     OW44584   4.959   2.106   1.617
80896SOL    HW144585   4.954   2.067   1.704
80896SOL    HW244586   4.884   2.070   1.571
80897SOL     OW44587   2.871  11.646   8.433
80897SOL    HW144588   2.847  11.736   8.413
80897SOL    HW244589   2.831  11.627   8.517
80898SOL     OW44590  13.638   4.934  12.026
80898SOL    HW144591  13.610   4.926  11.934
80898SOL    HW244592  13.629   5.027  12.046
80899SOL     OW44593   1.013  11.125   7.591
80899SOL    HW144594   1.010  11.186   7.664
80899SOL    HW244595   0.922  11.112   7.566
80900SOL     OW44596  14.649   3.376   0.672
80900SOL    HW144597  14.609   3.430   0.604
80900SOL    HW244598  14.625   3.286   0.649
80901SOL     OW44599   5.169   8.109  12.138
80901SOL    HW144600   5.167   8.157  12.222
80901SOL    HW244601   5.114   8.161  12.080
80902SOL     OW44602   4.540   7.180   8.355
80902SOL    HW144603   4.510   7.236   8.427
80902SOL    HW244604   4.632   7.164   8.375
80903SOL     OW44605  12.696   6.931   1.251
80903SOL    HW144606  12.709   6.841   1.221
80903SOL    HW244607  12.674   6.980   1.171
80904SOL     OW44608   8.753  12.495  14.747
80904SOL    HW144609   8.673  12.536  14.779
80904SOL    HW244610   8.739  12.401  14.761
80905SOL     OW44611   6.763   9.877  14.482
80905SOL    HW144612   6.737   9.901  14.394
80905SOL    HW244613   6.852   9.842  14.472
80906SOL     OW44614  12.484  13.213   7.509
80906SOL    HW144615  12.468  13.305   7.487
80906SOL    HW244616  12.575  13.211   7.540
80907SOL     OW44617   6.781   0.562  13.672
80907SOL    HW144618   6.719   0.507  13.624
80907SOL    HW244619   6.749   0.561  13.762
80908SOL     OW44620   9.763   1.805   9.142
80908SOL    HW144621   9.723   1.783   9.058
80908SOL    HW244622   9.857   1.809   9.123
80909SOL     OW44623   4.286   4.698   0.298
80909SOL    HW144624   4.287   4.769   0.233
80909SOL    HW244625   4.374   4.660   0.295
80910SOL     OW44626   6.983  12.053   5.608
80910SOL    HW144627   6.952  11.999   5.536
80910SOL    HW244628   6.946  12.139   5.591
80911SOL     OW44629  13.909   3.640   6.399
80911SOL    HW144630  13.976   3.632   6.331
80911SOL    HW244631  13.841   3.693   6.359
80912SOL     OW44632   8.479  13.581   6.699
80912SOL    HW144633   8.460  13.523   6.626
80912SOL    HW244634   8.529  13.527   6.760
80913SOL     OW44635   2.318  12.738   2.896
80913SOL    HW144636   2.400  12.750   2.943
80913SOL    HW244637   2.314  12.644   2.878
80914SOL     OW44638   8.441   1.293   2.745
80914SOL    HW144639   8.358   1.259   2.779
80914SOL    HW244640   8.469   1.358   2.809
80915SOL     OW44641  14.036  10.158   5.288
80915SOL    HW144642  13.950  10.198   5.275
80915SOL    HW244643  14.035  10.128   5.379
80916SOL     OW44644   0.127   1.921   1.923
80916SOL    HW144645   0.044   1.905   1.878
80916SOL    HW244646   0.114   1.884   2.011
80917SOL     OW44647   3.467   3.944   4.911
80917SOL    HW144648   3.448   3.986   4.994
80917SOL    HW244649   3.561   3.926   4.914
80918SOL     OW44650  13.840  13.185   5.408
80918SOL    HW144651  13.911  13.249   5.418
80918SOL    HW244652  13.760  13.236   5.424
80919SOL     OW44653   4.080  14.671   6.142
80919SOL    HW144654   4.046  14.752   6.180
80919SOL    HW244655   4.006  14.634   6.093
80920SOL     OW44656   3.730   7.163   3.583
80920SOL    HW144657   3.660   7.111   3.623
80920SOL    HW244658   3.796   7.098   3.556
80921SOL     OW44659  10.013   5.109  14.282
80921SOL    HW144660   9.985   5.162  14.356
80921SOL    HW244661  10.108   5.099  14.293
80922SOL     OW44662   5.808   3.670   7.440
80922SOL    HW144663   5.753   3.747   7.425
80922SOL    HW244664   5.895   3.705   7.457
80923SOL     OW44665  11.845   0.490   5.431
80923SOL    HW144666  11.818   0.399   5.442
80923SOL    HW244667  11.806   0.516   5.347
80924SOL     OW44668   5.757   9.599   3.034
80924SOL    HW144669   5.720   9.511   3.043
80924SOL    HW244670   5.727   9.629   2.948
80925SOL     OW44671   8.546  10.675   6.341
80925SOL    HW144672   8.543  10.595   6.290
80925SOL    HW244673   8.635  10.676   6.378
80926SOL     OW44674   9.364   8.051   2.359
80926SOL    HW144675   9.339   7.972   2.311
80926SOL    HW244676   9.331   8.036   2.448
80927SOL     OW44677   5.994  14.771  11.162
80927SOL    HW144678   6.023  14.825  11.089
80927SOL    HW244679   6.059  14.700  11.165
80928SOL     OW44680  13.836  14.851   3.515
80928SOL    HW144681  13.820   0.074   3.501
80928SOL    HW244682  13.874  14.820   3.432
80929SOL     OW44683   7.915   2.530   2.412
80929SOL    HW144684   7.988   2.468   2.408
80929SOL    HW244685   7.841   2.478   2.443
80930SOL     OW44686  10.718  12.773   8.426
80930SOL    HW144687  10.747  12.864   8.418
80930SOL    HW244688  10.658  12.774   8.501
80931SOL     OW44689  13.205   1.652   3.427
80931SOL    HW144690  13.272   1.718   3.409
80931SOL    HW244691  13.250   1.568   3.415
80932SOL     OW44692  13.169   2.261   9.575
80932SOL    HW144693  13.231   2.188   9.577
80932SOL    HW244694  13.211   2.327   9.520
80933SOL     OW44695   9.197   4.088   8.112
80933SOL    HW144696   9.267   4.121   8.168
80933SOL    HW244697   9.117   4.114   8.156
80934SOL     OW44698   1.906   3.351   4.626
80934SOL    HW144699   1.854   3.282   4.667
80934SOL    HW244700   1.885   3.345   4.533
80935SOL     OW44701  13.035  11.294   7.915
80935SOL    HW144702  13.042  11.379   7.871
80935SOL    HW244703  12.962  11.250   7.873
80936SOL     OW44704  12.110   5.840   7.915
80936SOL    HW144705  12.167   5.770   7.884
80936SOL    HW244706  12.139   5.858   8.004
80937SOL     OW44707   1.391  13.698  10.708
80937SOL    HW144708   1.443  13.707  10.628
80937SOL    HW244709   1.456  13.684  10.777
80938SOL     OW44710   1.984   7.949   7.604
80938SOL    HW144711   2.057   8.000   7.570
80938SOL    HW244712   1.909   8.008   7.599
80939SOL     OW44713   7.847  10.908  14.464
80939SOL    HW144714   7.847  10.991  14.415
80939SOL    HW244715   7.824  10.842  14.399
80940SOL     OW44716   7.693   4.443   8.051
80940SOL    HW144717   7.720   4.475   7.965
80940SOL    HW244718   7.751   4.369   8.069
80941SOL     OW44719   2.856   7.470   5.541
80941SOL    HW144720   2.881   7.497   5.452
80941SOL    HW244721   2.774   7.422   5.529
80942SOL     OW44722   7.670   2.712  14.228
80942SOL    HW144723   7.717   2.659  14.164
80942SOL    HW244724   7.698   2.677  14.313
80943SOL     OW44725   5.826   6.108   6.482
80943SOL    HW144726   5.769   6.042   6.524
80943SOL    HW244727   5.913   6.070   6.486
80944SOL     OW44728   4.153   3.402   3.018
80944SOL    HW144729   4.176   3.424   3.108
80944SOL    HW244730   4.135   3.308   3.019
80945SOL     OW44731   1.971   0.953  11.143
80945SOL    HW144732   1.889   0.981  11.103
80945SOL    HW244733   1.996   1.026  11.201
80946SOL     OW44734   8.103   1.709   1.127
80946SOL    HW144735   8.044   1.761   1.182
80946SOL    HW244736   8.062   1.709   1.041
80947SOL     OW44737   3.608  11.752   4.700
80947SOL    HW144738   3.526  11.752   4.650
80947SOL    HW244739   3.580  11.745   4.792
80948SOL     OW44740  11.583  12.201   0.363
80948SOL    HW144741  11.548  12.217   0.451
80948SOL    HW244742  11.662  12.256   0.359
80949SOL     OW44743  12.627   6.679   6.670
80949SOL    HW144744  12.543   6.686   6.716
80949SOL    HW244745  12.676   6.756   6.699
80950SOL     OW44746   8.369  10.420   0.264
80950SOL    HW144747   8.364  10.331   0.229
80950SOL    HW244748   8.443  10.417   0.325
80951SOL     OW44749   8.169   5.703   9.470
80951SOL    HW144750   8.220   5.739   9.397
80951SOL    HW244751   8.171   5.609   9.456
80952SOL     OW44752   5.882  11.884   8.829
80952SOL    HW144753   5.906  11.863   8.919
80952SOL    HW244754   5.855  11.975   8.831
80953SOL     OW44755  11.531  14.825  12.987
80953SOL    HW144756  11.478  14.828  13.067
80953SOL    HW244757  11.580  14.743  12.993
80954SOL     OW44758  10.804   9.771   6.590
80954SOL    HW144759  10.780   9.863   6.603
80954SOL    HW244760  10.729   9.733   6.545
80955SOL     OW44761  11.004  10.512   9.658
80955SOL    HW144762  10.994  10.551   9.571
80955SOL    HW244763  10.963  10.425   9.650
80956SOL     OW44764   9.247  12.494   3.686
80956SOL    HW144765   9.337  12.527   3.688
80956SOL    HW244766   9.193  12.568   3.714
80957SOL     OW44767  12.493  13.315  11.838
80957SOL    HW144768  12.427  13.264  11.884
80957SOL    HW244769  12.450  13.344  11.757
80958SOL     OW44770   2.820   8.497   6.157
80958SOL    HW144771   2.725   8.503   6.161
80958SOL    HW244772   2.849   8.504   6.248
80959SOL     OW44773  14.667  10.671   7.545
80959SOL    HW144774  14.681  10.661   7.450
80959SOL    HW244775  14.685  10.584   7.581
80960SOL     OW44776  11.080   0.424   9.444
80960SOL    HW144777  11.004   0.405   9.389
80960SOL    HW244778  11.100   0.340   9.486
80961SOL     OW44779   2.012   9.068  13.377
80961SOL    HW144780   2.036   9.108  13.293
80961SOL    HW244781   2.073   9.107  13.440
80962SOL     OW44782   1.717  10.198   7.761
80962SOL    HW144783   1.745  10.263   7.697
80962SOL    HW244784   1.730  10.114   7.717
80963SOL     OW44785   5.745   9.528  12.322
80963SOL    HW144786   5.806   9.507  12.252
80963SOL    HW244787   5.658   9.519  12.282
80964SOL     OW44788  11.894   8.553   5.877
80964SOL    HW144789  11.822   8.584   5.822
80964SOL    HW244790  11.963   8.532   5.814
80965SOL     OW44791   1.658   0.182   8.643
80965SOL    HW144792   1.712   0.106   8.623
80965SOL    HW244793   1.610   0.199   8.562
80966SOL     OW44794   3.142   3.310   0.697
80966SOL    HW144795   3.233   3.305   0.667
80966SOL    HW244796   3.125   3.225   0.737
80967SOL     OW44797   8.629   2.309   0.724
80967SOL    HW144798   8.649   2.215   0.724
80967SOL    HW244799   8.553   2.317   0.781
80968SOL     OW44800  14.442   6.148  12.831
80968SOL    HW144801  14.404   6.078  12.778
80968SOL    HW244802  14.367   6.188  12.875
80969SOL     OW44803  10.517  11.875   8.309
80969SOL    HW144804  10.474  11.862   8.224
80969SOL    HW244805  10.610  11.879   8.289
80970SOL     OW44806   6.020   1.615   3.701
80970SOL    HW144807   6.106   1.656   3.710
80970SOL    HW244808   6.027   1.559   3.624
80971SOL     OW44809   5.306   1.032  12.727
80971SOL    HW144810   5.270   0.945  12.711
80971SOL    HW244811   5.349   1.056  12.645
80972SOL     OW44812   8.617   1.678   5.836
80972SOL    HW144813   8.543   1.738   5.836
80972SOL    HW244814   8.579   1.591   5.821
80973SOL     OW44815   8.492   2.174   9.488
80973SOL    HW144816   8.494   2.087   9.527
80973SOL    HW244817   8.548   2.167   9.411
80974SOL     OW44818  11.904   0.026  13.974
80974SOL    HW144819  11.930   0.103  13.923
80974SOL    HW244820  11.985  14.867  14.017
80975SOL     OW44821   8.857   3.286   1.423
80975SOL    HW144822   8.840   3.380   1.429
80975SOL    HW244823   8.830   3.263   1.334
80976SOL     OW44824   3.243   8.124  14.038
80976SOL    HW144825   3.331   8.122  14.000
80976SOL    HW244826   3.206   8.206  14.005
80977SOL     OW44827   4.812   5.541  11.118
80977SOL    HW144828   4.760   5.462  11.133
80977SOL    HW244829   4.838   5.570  11.206
80978SOL     OW44830   2.016  10.476   7.126
80978SOL    HW144831   2.006  10.564   7.162
80978SOL    HW244832   1.973  10.481   7.040
80979SOL     OW44833   8.143   5.450   4.888
80979SOL    HW144834   8.223   5.472   4.936
80979SOL    HW244835   8.170   5.448   4.796
80980SOL     OW44836  11.820   0.769   2.978
80980SOL    HW144837  11.825   0.727   2.892
80980SOL    HW244838  11.868   0.851   2.968
80981SOL     OW44839  13.900   8.511   9.986
80981SOL    HW144840  13.941   8.427   9.968
80981SOL    HW244841  13.896   8.555   9.902
80982SOL     OW44842   3.061   1.848   0.231
80982SOL    HW144843   2.995   1.917   0.224
80982SOL    HW244844   3.144   1.893   0.216
80983SOL     OW44845   7.878   8.827   9.103
80983SOL    HW144846   7.821   8.776   9.047
80983SOL    HW244847   7.826   8.902   9.129
80984SOL     OW44848   3.948   7.381  11.486
80984SOL    HW144849   3.891   7.347  11.555
80984SOL    HW244850   3.905   7.462  11.458
80985SOL     OW44851   6.204   4.398  10.648
80985SOL    HW144852   6.120   4.444  10.649
80985SOL    HW244853   6.255   4.445  10.582
80986SOL     OW44854   3.518   7.403   6.613
80986SOL    HW144855   3.583   7.447   6.559
80986SOL    HW244856   3.565   7.376   6.691
80987SOL     OW44857  11.546   2.859  12.100
80987SOL    HW144858  11.538   2.789  12.035
80987SOL    HW244859  11.632   2.898  12.083
80988SOL     OW44860   6.601   9.734  12.767
80988SOL    HW144861   6.532   9.729  12.701
80988SOL    HW244862   6.621   9.827  12.773
80989SOL     OW44863  13.713  14.762   3.151
80989SOL    HW144864  13.720  14.784   3.058
80989SOL    HW244865  13.803  14.768   3.184
80990SOL     OW44866   3.121   2.506  11.600
80990SOL    HW144867   3.193   2.447  11.579
80990SOL    HW244868   3.050   2.479  11.542
80991SOL     OW44869   8.052   8.096   0.795
80991SOL    HW144870   8.143   8.103   0.825
80991SOL    HW244871   8.013   8.180   0.816
80992SOL     OW44872   4.033   3.313   7.150
80992SOL    HW144873   4.109   3.255   7.147
80992SOL    HW244874   4.051   3.380   7.083
80993SOL     OW44875  13.661  13.973  10.397
80993SOL    HW144876  13.689  13.895  10.350
80993SOL    HW244877  13.740  14.027  10.404
80994SOL     OW44878  12.136   9.479  12.126
80994SOL    HW144879  12.174   9.419  12.062
80994SOL    HW244880  12.045   9.452  12.133
80995SOL     OW44881  13.083   9.342   0.658
80995SOL    HW144882  13.078   9.266   0.716
80995SOL    HW244883  12.992   9.370   0.647
80996SOL     OW44884   5.471   9.805  10.673
80996SOL    HW144885   5.530   9.836  10.605
80996SOL    HW244886   5.524   9.745  10.726
80997SOL     OW44887   4.747   2.901  13.353
80997SOL    HW144888   4.775   2.863  13.270
80997SOL    HW244889   4.693   2.976  13.328
80998SOL     OW44890  13.666   2.989   1.768
80998SOL    HW144891  13.650   3.077   1.733
80998SOL    HW244892  13.649   2.930   1.695
80999SOL     OW44893  12.840   7.832   2.218
80999SOL    HW144894  12.859   7.892   2.291
80999SOL    HW244895  12.752   7.799   2.237
81000SOL     OW44896   7.934   7.001   3.986
81000SOL    HW144897   7.987   6.975   3.911
81000SOL    HW244898   7.954   6.937   4.054
81001SOL     OW44899  10.474   5.779   1.469
81001SOL    HW144900  10.470   5.849   1.534
81001SOL    HW244901  10.382   5.758   1.452
81002SOL     OW44902   0.099   0.121   2.666
81002SOL    HW144903   0.028   0.088   2.611
81002SOL    HW244904   0.086   0.216   2.666
81003SOL     OW44905  11.792   6.427   2.189
81003SOL    HW144906  11.785   6.475   2.106
81003SOL    HW244907  11.729   6.355   2.180
81004SOL     OW44908   4.042  14.614   8.006
81004SOL    HW144909   4.117  14.671   8.023
81004SOL    HW244910   4.048  14.595   7.913
81005SOL     OW44911   7.676  11.893  13.206
81005SOL    HW144912   7.663  11.975  13.254
81005SOL    HW244913   7.657  11.916  13.115
81006SOL     OW44914  14.104   0.385   6.790
81006SOL    HW144915  14.167   0.436   6.738
81006SOL    HW244916  14.127   0.294   6.771
81007SOL     OW44917   0.462   7.197   6.099
81007SOL    HW144918   0.501   7.138   6.164
81007SOL    HW244919   0.536   7.242   6.060
81008SOL     OW44920   7.405   3.060   1.215
81008SOL    HW144921   7.461   2.989   1.246
81008SOL    HW244922   7.438   3.079   1.127
81009SOL     OW44923   9.186  12.703  12.936
81009SOL    HW144924   9.203  12.669  13.024
81009SOL    HW244925   9.223  12.637  12.878
81010SOL     OW44926  12.054   4.114  14.758
81010SOL    HW144927  12.143   4.150  14.758
81010SOL    HW244928  12.045   4.073  14.844
81011SOL     OW44929  13.636   3.944   2.847
81011SOL    HW144930  13.640   3.996   2.767
81011SOL    HW244931  13.639   4.008   2.918
81012SOL     OW44932   5.490   3.954  11.648
81012SOL    HW144933   5.458   3.885  11.707
81012SOL    HW244934   5.477   3.918  11.560
81013SOL     OW44935   1.510  13.668   5.861
81013SOL    HW144936   1.512  13.696   5.770
81013SOL    HW244937   1.462  13.738   5.907
81014SOL     OW44938   6.740  13.460   1.254
81014SOL    HW144939   6.766  13.458   1.346
81014SOL    HW244940   6.820  13.437   1.206
81015SOL     OW44941   3.473   8.785   0.570
81015SOL    HW144942   3.434   8.823   0.648
81015SOL    HW244943   3.567   8.806   0.578
81016SOL     OW44944  14.336   4.929   9.602
81016SOL    HW144945  14.317   5.019   9.577
81016SOL    HW244946  14.430   4.928   9.622
81017SOL     OW44947  12.075   6.666   8.285
81017SOL    HW144948  12.036   6.637   8.368
81017SOL    HW244949  12.010   6.644   8.219
81018SOL     OW44950   0.899   2.616   1.373
81018SOL    HW144951   0.938   2.690   1.420
81018SOL    HW244952   0.971   2.581   1.321
81019SOL     OW44953  13.302  11.530   2.744
81019SOL    HW144954  13.304  11.497   2.654
81019SOL    HW244955  13.292  11.451   2.798
81020SOL     OW44956   8.032   4.220   3.668
81020SOL    HW144957   7.964   4.218   3.735
81020SOL    HW244958   8.106   4.173   3.707
81021SOL     OW44959   3.357   3.748   7.585
81021SOL    HW144960   3.380   3.841   7.580
81021SOL    HW244961   3.283   3.739   7.525
81022SOL     OW44962   2.461   1.970  14.039
81022SOL    HW144963   2.522   2.012  13.978
81022SOL    HW244964   2.386   1.945  13.984
81023SOL     OW44965   0.521   2.201   0.736
81023SOL    HW144966   0.516   2.120   0.685
81023SOL    HW244967   0.598   2.189   0.792
81024SOL     OW44968   3.404   6.386   1.717
81024SOL    HW144969   3.366   6.474   1.720
81024SOL    HW244970   3.498   6.401   1.728
81025SOL     OW44971   2.551   4.336   6.643
81025SOL    HW144972   2.525   4.244   6.652
81025SOL    HW244973   2.568   4.366   6.732
81026SOL     OW44974   5.749   8.657  10.231
81026SOL    HW144975   5.804   8.602  10.286
81026SOL    HW244976   5.810   8.711  10.180
81027SOL     OW44977   4.490   3.616  14.534
81027SOL    HW144978   4.533   3.656  14.609
81027SOL    HW244979   4.545   3.540  14.513
81028SOL     OW44980  10.083  12.370   9.680
81028SOL    HW144981  10.167  12.388   9.721
81028SOL    HW244982  10.019  12.376   9.752
81029SOL     OW44983  10.026   8.915  14.368
81029SOL    HW144984  10.118   8.935  14.353
81029SOL    HW244985  10.019   8.904  14.462
81030SOL     OW44986   7.460   9.813   1.455
81030SOL    HW144987   7.517   9.759   1.400
81030SOL    HW244988   7.514   9.888   1.478
81031SOL     OW44989   0.452  13.482   8.221
81031SOL    HW144990   0.475  13.401   8.266
81031SOL    HW244991   0.459  13.550   8.288
81032SOL     OW44992   3.584   0.285   2.110
81032SOL    HW144993   3.650   0.352   2.129
81032SOL    HW244994   3.626   0.229   2.044
81033SOL     OW44995  12.849  13.700  13.566
81033SOL    HW144996  12.849  13.715  13.471
81033SOL    HW244997  12.859  13.605  13.575
81034SOL     OW44998   2.513  11.537   9.133
81034SOL    HW144999   2.481  11.461   9.084
81034SOL    HW245000   2.602  11.512   9.160
81035SOL     OW45001   5.740  11.812   0.590
81035SOL    HW145002   5.731  11.862   0.672
81035SOL    HW245003   5.830  11.829   0.562
81036SOL     OW45004  11.306  13.857   6.651
81036SOL    HW145005  11.314  13.800   6.727
81036SOL    HW245006  11.295  13.796   6.577
81037SOL     OW45007   6.896   9.929  10.251
81037SOL    HW145008   6.841   9.892  10.182
81037SOL    HW245009   6.974   9.873  10.253
81038SOL     OW45010   1.580  10.017   0.560
81038SOL    HW145011   1.612  10.081   0.496
81038SOL    HW245012   1.660   9.987   0.605
81039SOL     OW45013   6.013   1.277   3.723
81039SOL    HW145014   6.077   1.345   3.744
81039SOL    HW245015   5.974   1.307   3.640
81040SOL     OW45016  12.965   0.287   8.148
81040SOL    HW145017  13.002   0.240   8.073
81040SOL    HW245018  12.995   0.377   8.137
81041SOL     OW45019   5.205  10.203   2.326
81041SOL    HW145020   5.143  10.221   2.255
81041SOL    HW245021   5.284  10.252   2.302
81042SOL     OW45022   2.323   1.702   4.242
81042SOL    HW145023   2.416   1.715   4.262
81042SOL    HW245024   2.320   1.617   4.198
81043SOL     OW45025   9.135   5.549   2.835
81043SOL    HW145026   9.143   5.467   2.786
81043SOL    HW245027   9.181   5.533   2.917
81044SOL     OW45028  12.029   2.552   1.561
81044SOL    HW145029  11.935   2.534   1.554
81044SOL    HW245030  12.034   2.648   1.570
81045SOL     OW45031   9.382   8.952  12.664
81045SOL    HW145032   9.436   9.006  12.605
81045SOL    HW245033   9.292   8.975  12.641
81046SOL     OW45034  14.748   6.419   4.532
81046SOL    HW145035  14.662   6.396   4.496
81046SOL    HW245036  14.730   6.441   4.624
81047SOL     OW45037  12.115   9.265  11.065
81047SOL    HW145038  12.101   9.227  10.979
81047SOL    HW245039  12.145   9.354  11.048
81048SOL     OW45040   2.598   7.619   8.483
81048SOL    HW145041   2.560   7.706   8.492
81048SOL    HW245042   2.576   7.574   8.564
81049SOL     OW45043   3.255   4.957  11.832
81049SOL    HW145044   3.230   4.992  11.917
81049SOL    HW245045   3.302   5.028  11.789
81050SOL     OW45046   7.063   0.609   6.987
81050SOL    HW145047   7.036   0.624   7.078
81050SOL    HW245048   7.042   0.691   6.942
81051SOL     OW45049  14.306   1.898   0.629
81051SOL    HW145050  14.304   1.994   0.627
81051SOL    HW245051  14.244   1.872   0.560
81052SOL     OW45052   8.274  11.295  11.147
81052SOL    HW145053   8.201  11.356  11.138
81052SOL    HW245054   8.337  11.342  11.202
81053SOL     OW45055   3.653  10.714   2.945
81053SOL    HW145056   3.631  10.706   2.852
81053SOL    HW245057   3.748  10.711   2.949
81054SOL     OW45058   8.061   6.627  13.637
81054SOL    HW145059   8.135   6.668  13.593
81054SOL    HW245060   8.100   6.576  13.707
81055SOL     OW45061   0.412   7.826   5.077
81055SOL    HW145062   0.417   7.846   5.171
81055SOL    HW245063   0.389   7.733   5.074
81056SOL     OW45064   5.921  11.598   1.635
81056SOL    HW145065   5.940  11.505   1.640
81056SOL    HW245066   5.994  11.635   1.586
81057SOL     OW45067  12.860   2.081   8.136
81057SOL    HW145068  12.770   2.055   8.118
81057SOL    HW245069  12.906   2.000   8.155
81058SOL     OW45070   5.422  12.678   1.279
81058SOL    HW145071   5.424  12.745   1.348
81058SOL    HW245072   5.336  12.689   1.238
81059SOL     OW45073  11.661   3.522   2.720
81059SOL    HW145074  11.662   3.535   2.815
81059SOL    HW245075  11.725   3.585   2.687
81060SOL     OW45076  13.982  10.384   8.947
81060SOL    HW145077  14.056  10.325   8.939
81060SOL    HW245078  13.932  10.372   8.867
81061SOL     OW45079   5.911   4.418   2.804
81061SOL    HW145080   5.989   4.473   2.800
81061SOL    HW245081   5.905   4.392   2.896
81062SOL     OW45082   2.240   0.900   7.696
81062SOL    HW145083   2.196   0.939   7.621
81062SOL    HW245084   2.286   0.972   7.737
81063SOL     OW45085  11.397   5.893  14.314
81063SOL    HW145086  11.473   5.836  14.322
81063SOL    HW245087  11.373   5.913  14.405
81064SOL     OW45088   4.502   3.703  11.054
81064SOL    HW145089   4.465   3.734  10.971
81064SOL    HW245090   4.431   3.653  11.095
81065SOL     OW45091   1.596  13.526   6.091
81065SOL    HW145092   1.612  13.564   6.004
81065SOL    HW245093   1.516  13.569   6.122
81066SOL     OW45094  12.653   8.386  11.840
81066SOL    HW145095  12.736   8.435  11.834
81066SOL    HW245096  12.588   8.446  11.804
81067SOL     OW45097   5.722   7.473   4.547
81067SOL    HW145098   5.697   7.554   4.501
81067SOL    HW245099   5.798   7.498   4.599
81068SOL     OW45100   0.941   8.113   2.835
81068SOL    HW145101   0.965   8.105   2.743
81068SOL    HW245102   0.860   8.062   2.842
81069SOL     OW45103  12.264   1.026   8.172
81069SOL    HW145104  12.285   1.104   8.223
81069SOL    HW245105  12.235   0.961   8.237
81070SOL     OW45106   4.686   4.993   8.475
81070SOL    HW145107   4.740   4.950   8.408
81070SOL    HW245108   4.597   4.964   8.456
81071SOL     OW45109   2.757   8.076   2.642
81071SOL    HW145110   2.800   8.067   2.727
81071SOL    HW245111   2.679   8.128   2.660
81072SOL     OW45112   4.195   8.508  12.671
81072SOL    HW145113   4.163   8.583  12.622
81072SOL    HW245114   4.187   8.434  12.611
81073SOL     OW45115   8.469  14.080   7.934
81073SOL    HW145116   8.535  14.116   7.876
81073SOL    HW245117   8.390  14.075   7.881
81074SOL     OW45118  13.927   4.151   5.103
81074SOL    HW145119  13.977   4.208   5.044
81074SOL    HW245120  13.968   4.065   5.093
81075SOL     OW45121   1.983  11.033   1.295
81075SOL    HW145122   1.907  11.070   1.339
81075SOL    HW245123   2.010  10.959   1.350
81076SOL     OW45124   0.896   6.246  13.523
81076SOL    HW145125   0.808   6.209  13.515
81076SOL    HW245126   0.954   6.170  13.513
81077SOL     OW45127   7.675   4.614  10.853
81077SOL    HW145128   7.736   4.673  10.898
81077SOL    HW245129   7.692   4.629  10.760
81078SOL     OW45130  10.336   5.338   9.063
81078SOL    HW145131  10.385   5.262   9.029
81078SOL    HW245132  10.250   5.332   9.021
81079SOL     OW45133   1.469   8.016   2.265
81079SOL    HW145134   1.420   7.935   2.253
81079SOL    HW245135   1.452   8.066   2.185
81080SOL     OW45136  13.824   4.537  13.470
81080SOL    HW145137  13.749   4.578  13.513
81080SOL    HW245138  13.862   4.480  13.537
81081SOL     OW45139  10.685   8.162   0.663
81081SOL    HW145140  10.608   8.219   0.655
81081SOL    HW245141  10.692   8.120   0.578
81082SOL     OW45142   2.974   5.830   4.405
81082SOL    HW145143   3.064   5.856   4.424
81082SOL    HW245144   2.932   5.910   4.374
81083SOL     OW45145  10.784  11.780   4.202
81083SOL    HW145146  10.847  11.819   4.142
81083SOL    HW245147  10.781  11.688   4.177
81084SOL     OW45148  14.167  13.795  14.130
81084SOL    HW145149  14.239  13.840  14.174
81084SOL    HW245150  14.146  13.722  14.188
81085SOL     OW45151   2.678   1.605   1.103
81085SOL    HW145152   2.734   1.535   1.070
81085SOL    HW245153   2.677   1.670   1.032
81086SOL     OW45154  12.483   6.107   5.666
81086SOL    HW145155  12.450   6.197   5.669
81086SOL    HW245156  12.424   6.062   5.604
81087SOL     OW45157   7.154   8.136  12.515
81087SOL    HW145158   7.066   8.111  12.485
81087SOL    HW245159   7.204   8.150  12.435
81088SOL     OW45160  12.174  14.468   3.605
81088SOL    HW145161  12.146  14.519   3.682
81088SOL    HW245162  12.136  14.382   3.618
81089SOL     OW45163   1.851   4.925   9.143
81089SOL    HW145164   1.843   4.851   9.083
81089SOL    HW245165   1.909   4.894   9.212
81090SOL     OW45166  13.029   0.410   3.848
81090SOL    HW145167  12.953   0.464   3.826
81090SOL    HW245168  13.089   0.421   3.775
81091SOL     OW45169   2.124   3.907   3.078
81091SOL    HW145170   2.159   3.849   3.146
81091SOL    HW245171   2.170   3.881   2.998
81092SOL     OW45172  12.553   3.734  11.820
81092SOL    HW145173  12.493   3.720  11.747
81092SOL    HW245174  12.497   3.764  11.892
81093SOL     OW45175   5.901  13.732   6.224
81093SOL    HW145176   5.963  13.794   6.185
81093SOL    HW245177   5.876  13.675   6.151
81094SOL     OW45178   1.539   7.485   6.129
81094SOL    HW145179   1.625   7.510   6.163
81094SOL    HW245180   1.477   7.535   6.180
81095SOL     OW45181   0.421   0.917   2.365
81095SOL    HW145182   0.469   0.993   2.396
81095SOL    HW245183   0.333   0.950   2.348
81096SOL     OW45184   4.565   8.372  14.577
81096SOL    HW145185   4.635   8.306  14.579
81096SOL    HW245186   4.577   8.418  14.494
81097SOL     OW45187   4.470   7.791   2.491
81097SOL    HW145188   4.537   7.788   2.560
81097SOL    HW245189   4.430   7.704   2.493
81098SOL     OW45190  11.977  13.358  14.846
81098SOL    HW145191  12.019  13.286   0.022
81098SOL    HW245192  11.889  13.363   0.015
81099SOL     OW45193   4.984  11.062   9.645
81099SOL    HW145194   4.900  11.016   9.637
81099SOL    HW245195   4.983  11.124   9.572
81100SOL     OW45196   5.521  12.886  12.957
81100SOL    HW145197   5.441  12.893  12.905
81100SOL    HW245198   5.501  12.821  13.024
81101SOL     OW45199   5.596   1.736  13.720
81101SOL    HW145200   5.590   1.745  13.815
81101SOL    HW245201   5.653   1.808  13.692
81102SOL     OW45202   8.096  12.381  13.774
81102SOL    HW145203   8.062  12.340  13.694
81102SOL    HW245204   8.141  12.459  13.745
81103SOL     OW45205  14.278   6.438   5.905
81103SOL    HW145206  14.354   6.493   5.882
81103SOL    HW245207  14.211   6.501   5.930
81104SOL     OW45208   8.085   1.771  13.104
81104SOL    HW145209   8.168   1.724  13.099
81104SOL    HW245210   8.091   1.839  13.036
81105SOL     OW45211  14.854   6.123   1.962
81105SOL    HW145212   0.032   6.123   1.880
81105SOL    HW245213   0.052   6.128   2.030
81106SOL     OW45214   4.083   1.350   6.760
81106SOL    HW145215   4.063   1.270   6.713
81106SOL    HW245216   4.000   1.398   6.764
81107SOL     OW45217  11.200  11.162   7.864
81107SOL    HW145218  11.236  11.197   7.946
81107SOL    HW245219  11.139  11.230   7.834
81108SOL     OW45220  14.467   6.558   9.998
81108SOL    HW145221  14.430   6.579   9.913
81108SOL    HW245222  14.541   6.619  10.007
81109SOL     OW45223   2.033   9.408   4.608
81109SOL    HW145224   1.953   9.419   4.659
81109SOL    HW245225   2.085   9.345   4.659
81110SOL     OW45226  10.399   9.207   9.535
81110SOL    HW145227  10.408   9.117   9.567
81110SOL    HW245228  10.489   9.236   9.519
81111SOL     OW45229  12.158   0.694  12.761
81111SOL    HW145230  12.210   0.752  12.705
81111SOL    HW245231  12.122   0.752  12.828
81112SOL     OW45232   0.224  13.222   0.625
81112SOL    HW145233   0.260  13.234   0.713
81112SOL    HW245234   0.166  13.146   0.633
81113SOL     OW45235   0.977   0.210   8.402
81113SOL    HW145236   1.017   0.295   8.383
81113SOL    HW245237   1.028   0.148   8.350
81114SOL     OW45238   5.237   2.939  14.716
81114SOL    HW145239   5.194   2.990  14.785
81114SOL    HW245240   5.330   2.959  14.725
81115SOL     OW45241  13.837   3.893  12.393
81115SOL    HW145242  13.782   3.884  12.471
81115SOL    HW245243  13.925   3.875  12.425
81116SOL     OW45244  12.014  10.733  10.373
81116SOL    HW145245  11.961  10.680  10.313
81116SOL    HW245246  12.037  10.811  10.322
81117SOL     OW45247  13.540   9.468   5.424
81117SOL    HW145248  13.563   9.378   5.400
81117SOL    HW245249  13.445   9.472   5.414
81118SOL     OW45250   1.387   0.179  11.138
81118SOL    HW145251   1.464   0.123  11.146
81118SOL    HW245252   1.385   0.229  11.220
81119SOL     OW45253   1.817   9.995   7.580
81119SOL    HW145254   1.754  10.003   7.509
81119SOL    HW245255   1.900  10.023   7.543
81120SOL     OW45256   4.497   5.095   1.203
81120SOL    HW145257   4.485   5.036   1.278
81120SOL    HW245258   4.518   5.036   1.130
81121SOL     OW45259   3.585  14.246   0.574
81121SOL    HW145260   3.577  14.176   0.509
81121SOL    HW245261   3.623  14.203   0.651
81122SOL     OW45262   7.282   7.660  13.469
81122SOL    HW145263   7.248   7.725  13.532
81122SOL    HW245264   7.357   7.621  13.514
81123SOL     OW45265  13.312   2.540  12.444
81123SOL    HW145266  13.247   2.611  12.443
81123SOL    HW245267  13.388   2.578  12.487
81124SOL     OW45268   9.108   6.445  14.111
81124SOL    HW145269   9.050   6.510  14.151
81124SOL    HW245270   9.057   6.364  14.112
81125SOL     OW45271  11.389  13.401  10.984
81125SOL    HW145272  11.390  13.311  11.016
81125SOL    HW245273  11.323  13.402  10.915
81126SOL     OW45274   0.336   1.204  11.546
81126SOL    HW145275   0.358   1.183  11.455
81126SOL    HW245276   0.251   1.161  11.560
81127SOL     OW45277  10.337   5.585   3.080
81127SOL    HW145278  10.379   5.588   3.166
81127SOL    HW245279  10.246   5.562   3.098
81128SOL     OW45280  10.915  12.649  12.346
81128SOL    HW145281  10.832  12.686  12.376
81128SOL    HW245282  10.965  12.633  12.426
81129SOL     OW45283  12.863   3.701   3.485
81129SOL    HW145284  12.942   3.728   3.438
81129SOL    HW245285  12.829   3.782   3.523
81130SOL     OW45286   2.597   3.168   7.937
81130SOL    HW145287   2.513   3.188   7.896
81130SOL    HW245288   2.598   3.073   7.945
81131SOL     OW45289   1.124   8.853   9.172
81131SOL    HW145290   1.108   8.933   9.223
81131SOL    HW245291   1.144   8.884   9.084
81132SOL     OW45292  14.298   5.311   0.086
81132SOL    HW145293  14.251   5.383   0.045
81132SOL    HW245294  14.388   5.343   0.093
81133SOL     OW45295   7.766   3.933   9.457
81133SOL    HW145296   7.787   4.016   9.500
81133SOL    HW245297   7.821   3.932   9.379
81134SOL     OW45298   9.980   7.369  12.242
81134SOL    HW145299  10.059   7.405  12.283
81134SOL    HW245300   9.908   7.402  12.295
81135SOL     OW45301   5.417   9.204   5.978
81135SOL    HW145302   5.436   9.110   5.971
81135SOL    HW245303   5.321   9.209   5.983
81136SOL     OW45304   0.429   3.102   1.787
81136SOL    HW145305   0.390   3.154   1.857
81136SOL    HW245306   0.431   3.013   1.821
81137SOL     OW45307  12.918   9.337  12.148
81137SOL    HW145308  12.862   9.397  12.195
81137SOL    HW245309  12.881   9.334  12.059
81138SOL     OW45310   6.243  12.287  10.057
81138SOL    HW145311   6.266  12.375  10.028
81138SOL    HW245312   6.278  12.281  10.146
81139SOL     OW45313   4.771   0.111  14.109
81139SOL    HW145314   4.707   0.040  14.116
81139SOL    HW245315   4.765   0.157  14.192
81140SOL     OW45316   2.207  10.778  11.614
81140SOL    HW145317   2.272  10.733  11.667
81140SOL    HW245318   2.255  10.810  11.538
81141SOL     OW45319   8.607   2.622   6.743
81141SOL    HW145320   8.559   2.644   6.822
81141SOL    HW245321   8.579   2.533   6.721
81142SOL     OW45322   7.144   6.853   6.076
81142SOL    HW145323   7.157   6.769   6.120
81142SOL    HW245324   7.227   6.899   6.086
81143SOL     OW45325   7.698   0.204  14.209
81143SOL    HW145326   7.759   0.203  14.283
81143SOL    HW245327   7.704   0.115  14.173
81144SOL     OW45328  11.742   9.905   5.972
81144SOL    HW145329  11.767   9.922   6.063
81144SOL    HW245330  11.778   9.819   5.952
81145SOL     OW45331   8.192   2.741   5.236
81145SOL    HW145332   8.109   2.718   5.275
81145SOL    HW245333   8.229   2.657   5.206
81146SOL     OW45334  11.098  11.599   2.429
81146SOL    HW145335  11.190  11.590   2.404
81146SOL    HW245336  11.061  11.658   2.364
81147SOL     OW45337  13.813  12.670  13.732
81147SOL    HW145338  13.744  12.731  13.757
81147SOL    HW245339  13.881  12.682  13.799
81148SOL     OW45340   9.194  12.632   5.352
81148SOL    HW145341   9.246  12.590   5.284
81148SOL    HW245342   9.256  12.689   5.398
81149SOL     OW45343   1.838   2.401   7.068
81149SOL    HW145344   1.863   2.342   6.997
81149SOL    HW245345   1.742   2.401   7.066
81150SOL     OW45346   6.341   1.493  10.574
81150SOL    HW145347   6.283   1.563  10.604
81150SOL    HW245348   6.365   1.446  10.654
81151SOL     OW45349   5.470   7.802  13.813
81151SOL    HW145350   5.543   7.828  13.870
81151SOL    HW245351   5.396   7.790  13.872
81152SOL     OW45352   2.028  11.879   6.174
81152SOL    HW145353   1.946  11.929   6.172
81152SOL    HW245354   2.011  11.807   6.234
81153SOL     OW45355   7.285   0.788  14.418
81153SOL    HW145356   7.237   0.869  14.397
81153SOL    HW245357   7.346   0.814  14.487
81154SOL     OW45358  13.244   5.239  12.610
81154SOL    HW145359  13.228   5.199  12.696
81154SOL    HW245360  13.320   5.192  12.576
81155SOL     OW45361   1.461  14.009   9.233
81155SOL    HW145362   1.517  13.995   9.310
81155SOL    HW245363   1.516  14.058   9.172
81156SOL     OW45364   3.615   7.380  10.940
81156SOL    HW145365   3.692   7.347  10.894
81156SOL    HW245366   3.649   7.435  11.010
81157SOL     OW45367   0.378   2.769   5.081
81157SOL    HW145368   0.283   2.771   5.092
81157SOL    HW245369   0.413   2.812   5.159
81158SOL     OW45370   3.461   4.358   5.689
81158SOL    HW145371   3.412   4.434   5.659
81158SOL    HW245372   3.550   4.390   5.702
81159SOL     OW45373   3.760   0.814   5.436
81159SOL    HW145374   3.742   0.897   5.480
81159SOL    HW245375   3.855   0.811   5.428
81160SOL     OW45376   2.357   9.321   0.057
81160SOL    HW145377   2.278   9.268   0.050
81160SOL    HW245378   2.345   9.373   0.136
81161SOL     OW45379   4.538  14.165   2.469
81161SOL    HW145380   4.590  14.108   2.526
81161SOL    HW245381   4.600  14.231   2.439
81162SOL     OW45382  14.283   1.628  13.152
81162SOL    HW145383  14.281   1.642  13.247
81162SOL    HW245384  14.220   1.692  13.117
81163SOL     OW45385  10.033  14.077   3.605
81163SOL    HW145386  10.003  14.155   3.558
81163SOL    HW245387  10.116  14.103   3.644
81164SOL     OW45388   8.461   1.822  11.832
81164SOL    HW145389   8.540   1.875  11.838
81164SOL    HW245390   8.442   1.817  11.738
81165SOL     OW45391  12.114   1.791  10.948
81165SOL    HW145392  12.209   1.803  10.944
81165SOL    HW245393  12.102   1.706  10.991
81166SOL     OW45394  10.949  10.587   8.725
81166SOL    HW145395  10.887  10.653   8.755
81166SOL    HW245396  10.938  10.514   8.786
81167SOL     OW45397   6.128   4.774   6.468
81167SOL    HW145398   6.090   4.845   6.520
81167SOL    HW245399   6.056   4.744   6.413
81168SOL     OW45400  12.898   2.497   8.259
81168SOL    HW145401  12.863   2.489   8.348
81168SOL    HW245402  12.946   2.580   8.260
81169SOL     OW45403   3.898   1.280   9.048
81169SOL    HW145404   3.817   1.316   9.084
81169SOL    HW245405   3.876   1.189   9.028
81170SOL     OW45406   2.709   9.836   4.463
81170SOL    HW145407   2.635   9.872   4.414
81170SOL    HW245408   2.675   9.755   4.501
81171SOL     OW45409  11.893   2.421   3.920
81171SOL    HW145410  11.838   2.491   3.884
81171SOL    HW245411  11.833   2.369   3.974
81172SOL     OW45412  12.611  10.142   1.990
81172SOL    HW145413  12.520  10.171   1.980
81172SOL    HW245414  12.605  10.047   1.994
81173SOL     OW45415   6.670  14.423   9.190
81173SOL    HW145416   6.599  14.424   9.255
81173SOL    HW245417   6.740  14.374   9.233
81174SOL     OW45418   7.403  14.831  10.535
81174SOL    HW145419   7.393   0.011  10.454
81174SOL    HW245420   7.361  14.747  10.518
81175SOL     OW45421  13.514   1.916   7.196
81175SOL    HW145422  13.558   1.889   7.276
81175SOL    HW245423  13.558   1.997   7.170
81176SOL     OW45424   2.091  12.531   1.183
81176SOL    HW145425   2.179  12.537   1.147
81176SOL    HW245426   2.079  12.612   1.232
81177SOL     OW45427   3.373   2.673   9.904
81177SOL    HW145428   3.345   2.696   9.992
81177SOL    HW245429   3.436   2.602   9.916
81178SOL     OW45430   7.062  14.332  11.843
81178SOL    HW145431   7.014  14.396  11.791
81178SOL    HW245432   7.116  14.285  11.779
81179SOL     OW45433   5.106  12.428  11.455
81179SOL    HW145434   5.165  12.376  11.509
81179SOL    HW245435   5.083  12.371  11.382
81180SOL     OW45436   3.675   6.462   4.645
81180SOL    HW145437   3.766   6.493   4.639
81180SOL    HW245438   3.680   6.386   4.703
81181SOL     OW45439   2.924   3.536  11.151
81181SOL    HW145440   2.830   3.554  11.152
81181SOL    HW245441   2.965   3.619  11.174
81182SOL     OW45442   1.469   1.566   4.363
81182SOL    HW145443   1.421   1.519   4.431
81182SOL    HW245444   1.495   1.648   4.405
81183SOL     OW45445   6.055   3.676  14.606
81183SOL    HW145446   6.056   3.613  14.534
81183SOL    HW245447   6.070   3.624  14.684
81184SOL     OW45448   2.795   2.011   2.592
81184SOL    HW145449   2.757   2.097   2.609
81184SOL    HW245450   2.802   2.007   2.497
81185SOL     OW45451   3.940   0.698  11.027
81185SOL    HW145452   3.874   0.656  10.971
81185SOL    HW245453   3.987   0.757  10.968
81186SOL     OW45454   3.823  11.890  11.216
81186SOL    HW145455   3.771  11.840  11.154
81186SOL    HW245456   3.862  11.961  11.165
81187SOL     OW45457   7.293  11.737   6.634
81187SOL    HW145458   7.369  11.709   6.686
81187SOL    HW245459   7.219  11.696   6.677
81188SOL     OW45460  12.621   5.379   2.666
81188SOL    HW145461  12.540   5.359   2.618
81188SOL    HW245462  12.686   5.393   2.597
81189SOL     OW45463   6.923  14.536   8.602
81189SOL    HW145464   7.007  14.578   8.583
81189SOL    HW245465   6.940  14.443   8.590
81190SOL     OW45466   6.623  11.252   8.364
81190SOL    HW145467   6.618  11.323   8.300
81190SOL    HW245468   6.539  11.256   8.409
81191SOL     OW45469   5.327   8.777   9.514
81191SOL    HW145470   5.250   8.775   9.457
81191SOL    HW245471   5.339   8.686   9.542
81192SOL     OW45472  12.237   6.229   9.558
81192SOL    HW145473  12.238   6.181   9.641
81192SOL    HW245474  12.153   6.207   9.518
81193SOL     OW45475  11.166   5.601   4.629
81193SOL    HW145476  11.261   5.608   4.618
81193SOL    HW245477  11.147   5.510   4.607
81194SOL     OW45478   4.814   9.319   9.213
81194SOL    HW145479   4.889   9.327   9.272
81194SOL    HW245480   4.838   9.249   9.153
81195SOL     OW45481  12.581   6.855   0.562
81195SOL    HW145482  12.670   6.877   0.535
81195SOL    HW245483  12.528   6.928   0.530
81196SOL     OW45484   2.031   2.032   3.643
81196SOL    HW145485   1.955   2.038   3.585
81196SOL    HW245486   2.037   2.119   3.684
81197SOL     OW45487   4.794   6.010   4.871
81197SOL    HW145488   4.838   5.991   4.954
81197SOL    HW245489   4.701   5.994   4.888
81198SOL     OW45490   7.251   3.460  11.645
81198SOL    HW145491   7.314   3.455  11.573
81198SOL    HW245492   7.190   3.388  11.628
81199SOL     OW45493   6.784   5.138   9.985
81199SOL    HW145494   6.700   5.180  10.004
81199SOL    HW245495   6.797   5.077  10.057
81200SOL     OW45496   4.676   4.967   7.913
81200SOL    HW145497   4.645   4.952   7.824
81200SOL    HW245498   4.598   4.955   7.968
81201SOL     OW45499   2.589   3.099   3.692
81201SOL    HW145500   2.655   3.037   3.723
81201SOL    HW245501   2.524   3.044   3.648
81202SOL     OW45502   9.244   4.275   6.100
81202SOL    HW145503   9.295   4.346   6.139
81202SOL    HW245504   9.295   4.196   6.119
81203SOL     OW45505  13.342   4.905   8.285
81203SOL    HW145506  13.268   4.852   8.316
81203SOL    HW245507  13.377   4.945   8.364
81204SOL     OW45508   2.270  14.325   0.380
81204SOL    HW145509   2.325  14.361   0.449
81204SOL    HW245510   2.181  14.331   0.414
81205SOL     OW45511   7.578  10.072   7.289
81205SOL    HW145512   7.566  10.111   7.203
81205SOL    HW245513   7.502  10.015   7.300
81206SOL     OW45514  10.180   9.183   7.200
81206SOL    HW145515  10.200   9.180   7.294
81206SOL    HW245516  10.105   9.125   7.190
81207SOL     OW45517   2.039   8.188   4.030
81207SOL    HW145518   1.999   8.112   3.987
81207SOL    HW245519   1.988   8.200   4.110
81208SOL     OW45520   7.501  11.528  12.772
81208SOL    HW145521   7.477  11.469  12.843
81208SOL    HW245522   7.577  11.487  12.731
81209SOL     OW45523  12.128   6.611   5.081
81209SOL    HW145524  12.149   6.681   5.019
81209SOL    HW245525  12.130   6.654   5.167
81210SOL     OW45526   4.538  12.921   9.684
81210SOL    HW145527   4.631  12.903   9.697
81210SOL    HW245528   4.499  12.907   9.770
81211SOL     OW45529   0.304  12.632  10.966
81211SOL    HW145530   0.247  12.589  10.903
81211SOL    HW245531   0.308  12.572  11.041
81212SOL     OW45532  10.229   2.536   1.950
81212SOL    HW145533  10.195   2.577   2.029
81212SOL    HW245534  10.313   2.581   1.935
81213SOL     OW45535  11.317  11.547  13.129
81213SOL    HW145536  11.335  11.456  13.152
81213SOL    HW245537  11.339  11.553  13.036
81214SOL     OW45538   4.258  13.347   8.448
81214SOL    HW145539   4.293  13.259   8.463
81214SOL    HW245540   4.202  13.363   8.524
81215SOL     OW45541  11.058  12.718   6.373
81215SOL    HW145542  11.090  12.661   6.443
81215SOL    HW245543  11.020  12.659   6.309
81216SOL     OW45544   3.181   5.286   0.638
81216SOL    HW145545   3.248   5.219   0.648
81216SOL    HW245546   3.098   5.240   0.657
81217SOL     OW45547   7.314   2.300   7.002
81217SOL    HW145548   7.377   2.308   7.073
81217SOL    HW245549   7.249   2.238   7.034
81218SOL     OW45550   9.266   6.106   1.705
81218SOL    HW145551   9.288   6.033   1.764
81218SOL    HW245552   9.176   6.088   1.678
81219SOL     OW45553  11.472   2.356   1.218
81219SOL    HW145554  11.528   2.313   1.283
81219SOL    HW245555  11.502   2.321   1.134
81220SOL     OW45556   3.430   3.857   9.613
81220SOL    HW145557   3.452   3.925   9.549
81220SOL    HW245558   3.338   3.871   9.633
81221SOL     OW45559   3.046  11.805  12.950
81221SOL    HW145560   3.073  11.894  12.972
81221SOL    HW245561   2.992  11.814  12.871
81222SOL     OW45562  10.237  11.186  14.300
81222SOL    HW145563  10.269  11.130  14.230
81222SOL    HW245564  10.287  11.268  14.289
81223SOL     OW45565  12.489   9.868   1.984
81223SOL    HW145566  12.426   9.889   2.053
81223SOL    HW245567  12.439   9.877   1.902
81224SOL     OW45568   3.427   7.252  13.396
81224SOL    HW145569   3.471   7.267  13.312
81224SOL    HW245570   3.494   7.213  13.452
81225SOL     OW45571   2.146  10.975  12.171
81225SOL    HW145572   2.071  10.961  12.229
81225SOL    HW245573   2.203  10.900  12.188
81226SOL     OW45574  12.483   7.922   0.027
81226SOL    HW145575  12.430   8.000   0.041
81226SOL    HW245576  12.551   7.926   0.094
81227SOL     OW45577   7.930  14.626  13.143
81227SOL    HW145578   7.915  14.673  13.225
81227SOL    HW245579   7.844  14.623  13.101
81228SOL     OW45580  12.062   7.277   9.054
81228SOL    HW145581  12.131   7.343   9.044
81228SOL    HW245582  12.025   7.295   9.141
81229SOL     OW45583   7.045  13.259   7.449
81229SOL    HW145584   7.029  13.235   7.358
81229SOL    HW245585   6.959  13.260   7.490
81230SOL     OW45586   5.521  12.171   2.737
81230SOL    HW145587   5.428  12.195   2.744
81230SOL    HW245588   5.538  12.170   2.643
81231SOL     OW45589  11.652   4.254  11.617
81231SOL    HW145590  11.589   4.317  11.582
81231SOL    HW245591  11.666   4.282  11.708
81232SOL     OW45592  14.568   4.101   7.668
81232SOL    HW145593  14.610   4.180   7.702
81232SOL    HW245594  14.476   4.126   7.658
81233SOL     OW45595   9.348  13.733   3.882
81233SOL    HW145596   9.285  13.801   3.906
81233SOL    HW245597   9.336  13.722   3.788
81234SOL     OW45598   7.357   4.175   2.360
81234SOL    HW145599   7.336   4.264   2.389
81234SOL    HW245600   7.388   4.130   2.439
81235SOL     OW45601   0.442   8.058  12.757
81235SOL    HW145602   0.460   8.106  12.676
81235SOL    HW245603   0.512   8.086  12.816
81236SOL     OW45604   6.429  13.656   7.441
81236SOL    HW145605   6.339  13.646   7.409
81236SOL    HW245606   6.484  13.638   7.365
81237SOL     OW45607   3.349   8.551   6.932
81237SOL    HW145608   3.411   8.622   6.916
81237SOL    HW245609   3.382   8.478   6.880
81238SOL     OW45610   9.637   1.445  11.818
81238SOL    HW145611   9.596   1.510  11.874
81238SOL    HW245612   9.655   1.491  11.736
81239SOL     OW45613   4.558  14.131  11.182
81239SOL    HW145614   4.525  14.196  11.121
81239SOL    HW245615   4.608  14.181  11.246
81240SOL     OW45616   3.445   7.826   2.220
81240SOL    HW145617   3.404   7.895   2.272
81240SOL    HW245618   3.381   7.755   2.220
81241SOL     OW45619   7.851   7.398   6.688
81241SOL    HW145620   7.811   7.472   6.641
81241SOL    HW245621   7.778   7.354   6.731
81242SOL     OW45622   3.964   0.024   3.967
81242SOL    HW145623   3.898   0.084   4.002
81242SOL    HW245624   4.045   0.076   3.967
81243SOL     OW45625   9.180   6.995   1.207
81243SOL    HW145626   9.180   6.950   1.291
81243SOL    HW245627   9.107   6.956   1.159
81244SOL     OW45628   1.829   5.981  12.820
81244SOL    HW145629   1.915   5.937  12.818
81244SOL    HW245630   1.844   6.065  12.776
81245SOL     OW45631   8.869   9.162  10.024
81245SOL    HW145632   8.831   9.082   9.989
81245SOL    HW245633   8.794   9.219  10.041
81246SOL     OW45634  10.861  10.583  10.456
81246SOL    HW145635  10.936  10.580  10.397
81246SOL    HW245636  10.837  10.675  10.460
81247SOL     OW45637   9.296   5.188   4.281
81247SOL    HW145638   9.288   5.283   4.278
81247SOL    HW245639   9.390   5.172   4.295
81248SOL     OW45640  14.461  14.113   9.900
81248SOL    HW145641  14.399  14.064   9.846
81248SOL    HW245642  14.476  14.058   9.976
81249SOL     OW45643  14.797   5.292   0.190
81249SOL    HW145644  14.726   5.289   0.255
81249SOL    HW245645  14.841   5.374   0.207
81250SOL     OW45646  10.821   7.928   4.959
81250SOL    HW145647  10.728   7.948   4.948
81250SOL    HW245648  10.822   7.848   5.011
81251SOL     OW45649   2.667   1.180  14.231
81251SOL    HW145650   2.596   1.158  14.170
81251SOL    HW245651   2.624   1.185  14.316
81252SOL     OW45652   3.610   4.237   4.567
81252SOL    HW145653   3.645   4.317   4.526
81252SOL    HW245654   3.672   4.169   4.543
81253SOL     OW45655   8.456  10.124   4.908
81253SOL    HW145656   8.384  10.118   4.970
81253SOL    HW245657   8.427  10.189   4.843
81254SOL     OW45658   3.043   1.642   5.119
81254SOL    HW145659   3.016   1.558   5.081
81254SOL    HW245660   2.974   1.703   5.091
81255SOL     OW45661   5.372   7.591   7.747
81255SOL    HW145662   5.416   7.508   7.764
81255SOL    HW245663   5.348   7.623   7.834
81256SOL     OW45664   1.212   7.448  13.113
81256SOL    HW145665   1.252   7.423  13.029
81256SOL    HW245666   1.203   7.365  13.160
81257SOL     OW45667  14.665   8.318   4.284
81257SOL    HW145668  14.595   8.339   4.222
81257SOL    HW245669  14.698   8.404   4.311
81258SOL     OW45670   9.070   0.496   9.422
81258SOL    HW145671   9.040   0.507   9.512
81258SOL    HW245672   9.123   0.416   9.424
81259SOL     OW45673   3.031   2.082  10.600
81259SOL    HW145674   3.049   2.118  10.513
81259SOL    HW245675   2.957   2.133  10.632
81260SOL     OW45676   7.059   5.520  12.917
81260SOL    HW145677   7.078   5.426  12.907
81260SOL    HW245678   7.048   5.532  13.011
81261SOL     OW45679  12.943   5.756  11.656
81261SOL    HW145680  13.033   5.724  11.663
81261SOL    HW245681  12.950   5.836  11.603
81262SOL     OW45682  10.945   9.666   0.633
81262SOL    HW145683  10.850   9.653   0.628
81262SOL    HW245684  10.981   9.578   0.643
81263SOL     OW45685  11.474   8.660   6.890
81263SOL    HW145686  11.384   8.658   6.856
81263SOL    HW245687  11.520   8.592   6.841
81264SOL     OW45688   4.292  13.272   1.858
81264SOL    HW145689   4.250  13.215   1.923
81264SOL    HW245690   4.305  13.355   1.904
81265SOL     OW45691   9.417  14.030  10.053
81265SOL    HW145692   9.438  14.102   9.994
81265SOL    HW245693   9.414  14.070  10.140
81266SOL     OW45694   5.877   3.595   2.327
81266SOL    HW145695   5.834   3.520   2.287
81266SOL    HW245696   5.851   3.670   2.272
81267SOL     OW45697   7.535   9.483   0.569
81267SOL    HW145698   7.527   9.579   0.567
81267SOL    HW245699   7.448   9.451   0.543
81268SOL     OW45700   4.424  10.514  14.044
81268SOL    HW145701   4.488  10.497  14.112
81268SOL    HW245702   4.364  10.439  14.047
81269SOL     OW45703   8.459   0.327   1.532
81269SOL    HW145704   8.550   0.334   1.562
81269SOL    HW245705   8.456   0.381   1.452
81270SOL     OW45706  13.647   2.300   1.628
81270SOL    HW145707  13.663   2.388   1.663
81270SOL    HW245708  13.721   2.285   1.570
81271SOL     OW45709   8.673   6.026   4.172
81271SOL    HW145710   8.654   6.118   4.187
81271SOL    HW245711   8.707   5.994   4.256
81272SOL     OW45712   9.559   8.648   5.819
81272SOL    HW145713   9.582   8.708   5.891
81272SOL    HW245714   9.527   8.706   5.749
81273SOL     OW45715   4.716   8.184   0.705
81273SOL    HW145716   4.687   8.152   0.790
81273SOL    HW245717   4.675   8.124   0.642
81274SOL     OW45718  12.635   8.797  13.515
81274SOL    HW145719  12.656   8.779  13.607
81274SOL    HW245720  12.708   8.850  13.484
81275SOL     OW45721  14.251  11.287   4.923
81275SOL    HW145722  14.307  11.359   4.952
81275SOL    HW245723  14.301  11.208   4.942
81276SOL     OW45724   3.489   3.424   5.388
81276SOL    HW145725   3.571   3.472   5.392
81276SOL    HW245726   3.494   3.374   5.306
81277SOL     OW45727   5.385  10.650   0.051
81277SOL    HW145728   5.440  10.688  14.852
81277SOL    HW245729   5.345  10.726   0.093
81278SOL     OW45730   7.070   4.769   0.326
81278SOL    HW145731   6.997   4.804   0.275
81278SOL    HW245732   7.114   4.708   0.267
81279SOL     OW45733  10.765   5.921  14.225
81279SOL    HW145734  10.709   5.909  14.148
81279SOL    HW245735  10.847   5.956  14.190
81280SOL     OW45736   0.127   1.703  14.352
81280SOL    HW145737   0.163   1.648  14.282
81280SOL    HW245738   0.147   1.792  14.325
81281SOL     OW45739   6.240   2.694   9.245
81281SOL    HW145740   6.185   2.620   9.272
81281SOL    HW245741   6.278   2.727   9.327
81282SOL     OW45742   3.735   4.962  10.035
81282SOL    HW145743   3.776   4.909  10.103
81282SOL    HW245744   3.660   4.909  10.006
81283SOL     OW45745  14.311   6.621  13.932
81283SOL    HW145746  14.222   6.612  13.898
81283SOL    HW245747  14.302   6.612  14.027
81284SOL     OW45748  13.795   6.442  10.938
81284SOL    HW145749  13.760   6.467  11.024
81284SOL    HW245750  13.771   6.514  10.880
81285SOL     OW45751   7.256   5.605   1.396
81285SOL    HW145752   7.220   5.580   1.481
81285SOL    HW245753   7.261   5.523   1.347
81286SOL     OW45754  12.013   7.706   0.902
81286SOL    HW145755  11.950   7.755   0.849
81286SOL    HW245756  12.077   7.673   0.839
81287SOL     OW45757   1.416  13.764   2.516
81287SOL    HW145758   1.347  13.830   2.513
81287SOL    HW245759   1.369  13.680   2.517
81288SOL     OW45760   0.817   4.949   6.091
81288SOL    HW145761   0.731   4.990   6.092
81288SOL    HW245762   0.814   4.889   6.017
81289SOL     OW45763   0.586  14.742  12.285
81289SOL    HW145764   0.490  14.736  12.276
81289SOL    HW245765   0.614  14.652  12.301
81290SOL     OW45766   0.056  11.171  11.091
81290SOL    HW145767   0.148  11.166  11.115
81290SOL    HW245768   0.055  11.206  11.002
81291SOL     OW45769   8.414  12.381  13.263
81291SOL    HW145770   8.376  12.442  13.200
81291SOL    HW245771   8.395  12.419  13.349
81292SOL     OW45772  11.734  11.943   0.700
81292SOL    HW145773  11.772  12.026   0.671
81292SOL    HW245774  11.809  11.890   0.725
81293SOL     OW45775  11.719   9.328  10.913
81293SOL    HW145776  11.712   9.233  10.908
81293SOL    HW245777  11.793   9.350  10.857
81294SOL     OW45778   0.913  12.323   3.489
81294SOL    HW145779   0.862  12.247   3.517
81294SOL    HW245780   0.948  12.360   3.570
81295SOL     OW45781   6.020  11.174  12.843
81295SOL    HW145782   6.107  11.175  12.804
81295SOL    HW245783   6.035  11.155  12.936
81296SOL     OW45784   3.021   9.537   5.643
81296SOL    HW145785   2.983   9.579   5.566
81296SOL    HW245786   3.111   9.516   5.616
81297SOL     OW45787   4.806   8.589  10.550
81297SOL    HW145788   4.871   8.656  10.571
81297SOL    HW245789   4.858   8.512  10.527
81298SOL     OW45790   0.562   7.218   1.721
81298SOL    HW145791   0.647   7.204   1.764
81298SOL    HW245792   0.563   7.158   1.646
81299SOL     OW45793  12.303  14.815   4.052
81299SOL    HW145794  12.286   0.038   4.034
81299SOL    HW245795  12.352  14.816   4.135
81300SOL     OW45796   1.142   4.557   9.888
81300SOL    HW145797   1.062   4.606   9.906
81300SOL    HW245798   1.183   4.546   9.974
81301SOL     OW45799   6.159  13.032  12.725
81301SOL    HW145800   6.092  13.099  12.723
81301SOL    HW245801   6.137  12.973  12.653
81302SOL     OW45802   3.745  10.430  11.132
81302SOL    HW145803   3.716  10.372  11.062
81302SOL    HW245804   3.700  10.513  11.116
81303SOL     OW45805   5.668   4.147   8.963
81303SOL    HW145806   5.703   4.060   8.980
81303SOL    HW245807   5.713   4.203   9.026
81304SOL     OW45808  11.983  12.401   0.547
81304SOL    HW145809  11.948  12.343   0.480
81304SOL    HW245810  11.945  12.368   0.629
81305SOL     OW45811   9.478   7.972   1.955
81305SOL    HW145812   9.573   7.969   1.960
81305SOL    HW245813   9.451   7.880   1.953
81306SOL     OW45814   3.017   0.778   4.303
81306SOL    HW145815   2.975   0.853   4.347
81306SOL    HW245816   3.019   0.709   4.370
81307SOL     OW45817   3.749   6.105   6.601
81307SOL    HW145818   3.687   6.151   6.658
81307SOL    HW245819   3.780   6.031   6.654
81308SOL     OW45820   4.377   9.300   6.948
81308SOL    HW145821   4.457   9.340   6.983
81308SOL    HW245822   4.399   9.208   6.936
81309SOL     OW45823   3.074  11.195   2.332
81309SOL    HW145824   3.140  11.145   2.285
81309SOL    HW245825   3.092  11.286   2.309
81310SOL     OW45826   9.409   9.192   8.058
81310SOL    HW145827   9.358   9.116   8.029
81310SOL    HW245828   9.425   9.176   8.151
81311SOL     OW45829   1.086   8.272  12.232
81311SOL    HW145830   1.074   8.194  12.179
81311SOL    HW245831   1.166   8.313  12.197
81312SOL     OW45832   9.157   7.087  14.072
81312SOL    HW145833   9.202   7.106  13.990
81312SOL    HW245834   9.136   7.173  14.109
81313SOL     OW45835  11.054   3.755   6.117
81313SOL    HW145836  11.106   3.754   6.037
81313SOL    HW245837  11.093   3.824   6.170
81314SOL     OW45838   1.277   7.179  13.592
81314SOL    HW145839   1.332   7.201  13.668
81314SOL    HW245840   1.189   7.167  13.628
81315SOL     OW45841   7.766   5.883  11.604
81315SOL    HW145842   7.714   5.833  11.542
81315SOL    HW245843   7.798   5.818  11.667
81316SOL     OW45844   5.719  14.676   0.005
81316SOL    HW145845   5.696  14.754   0.056
81316SOL    HW245846   5.635  14.631  14.860
81317SOL     OW45847  10.010  12.502   4.576
81317SOL    HW145848   9.930  12.457   4.550
81317SOL    HW245849  10.020  12.571   4.511
81318SOL     OW45850   8.434   9.725   8.498
81318SOL    HW145851   8.421   9.687   8.410
81318SOL    HW245852   8.497   9.667   8.539
81319SOL     OW45853  13.512   9.918   6.610
81319SOL    HW145854  13.556   9.974   6.675
81319SOL    HW245855  13.419   9.927   6.629
81320SOL     OW45856   1.808  12.515   7.459
81320SOL    HW145857   1.903  12.509   7.468
81320SOL    HW245858   1.778  12.535   7.548
81321SOL     OW45859  12.513  13.525   4.258
81321SOL    HW145860  12.524  13.585   4.185
81321SOL    HW245861  12.436  13.472   4.234
81322SOL     OW45862   9.146   9.022   4.009
81322SOL    HW145863   9.219   9.033   4.071
81322SOL    HW245864   9.114   8.933   4.025
81323SOL     OW45865  14.618   3.063   1.909
81323SOL    HW145866  14.682   3.011   1.957
81323SOL    HW245867  14.665   3.142   1.884
81324SOL     OW45868   2.125  12.181   3.216
81324SOL    HW145869   2.176  12.144   3.144
81324SOL    HW245870   2.182  12.249   3.253
81325SOL     OW45871  14.381   4.450   7.435
81325SOL    HW145872  14.375   4.472   7.342
81325SOL    HW245873  14.414   4.360   7.436
81326SOL     OW45874   4.490  12.001   1.605
81326SOL    HW145875   4.463  12.080   1.558
81326SOL    HW245876   4.545  11.954   1.543
81327SOL     OW45877  13.373   9.893   9.034
81327SOL    HW145878  13.436   9.957   9.067
81327SOL    HW245879  13.288   9.925   9.065
81328SOL     OW45880  11.764   4.961  10.928
81328SOL    HW145881  11.844   4.998  10.890
81328SOL    HW245882  11.777   4.970  11.023
81329SOL     OW45883   4.797  11.811   4.265
81329SOL    HW145884   4.849  11.732   4.281
81329SOL    HW245885   4.862  11.880   4.255
81330SOL     OW45886  13.495   7.836   2.575
81330SOL    HW145887  13.456   7.819   2.489
81330SOL    HW245888  13.532   7.752   2.602
81331SOL     OW45889   1.084   7.520  13.487
81331SOL    HW145890   1.078   7.465  13.409
81331SOL    HW245891   1.025   7.594  13.468
81332SOL     OW45892   5.932   0.730  14.279
81332SOL    HW145893   5.888   0.811  14.306
81332SOL    HW245894   5.880   0.660  14.318
81333SOL     OW45895   3.008   3.258  14.661
81333SOL    HW145896   3.046   3.340  14.694
81333SOL    HW245897   2.920   3.256  14.700
81334SOL     OW45898  11.475   9.896   5.158
81334SOL    HW145899  11.563   9.933   5.146
81334SOL    HW245900  11.470   9.826   5.093
81335SOL     OW45901   8.366  13.735   2.146
81335SOL    HW145902   8.320  13.801   2.197
81335SOL    HW245903   8.458  13.761   2.149
81336SOL     OW45904   4.841   9.037   6.019
81336SOL    HW145905   4.869   8.945   6.019
81336SOL    HW245906   4.849   9.064   5.927
81337SOL     OW45907  11.869   3.513   3.689
81337SOL    HW145908  11.779   3.515   3.655
81337SOL    HW245909  11.924   3.507   3.610
81338SOL     OW45910   6.151   3.809  10.462
81338SOL    HW145911   6.197   3.858  10.394
81338SOL    HW245912   6.218   3.751  10.499
81339SOL     OW45913  14.139  10.049   9.766
81339SOL    HW145914  14.074   9.995   9.721
81339SOL    HW245915  14.220  10.034   9.718
81340SOL     OW45916   1.506   3.806   6.085
81340SOL    HW145917   1.561   3.740   6.128
81340SOL    HW245918   1.441   3.754   6.037
81341SOL     OW45919   9.204  14.072  12.131
81341SOL    HW145920   9.294  14.098  12.115
81341SOL    HW245921   9.176  14.126  12.205
81342SOL     OW45922   2.333   6.641   7.177
81342SOL    HW145923   2.419   6.602   7.192
81342SOL    HW245924   2.340   6.684   7.092
81343SOL     OW45925   2.555   3.700   3.020
81343SOL    HW145926   2.628   3.687   3.080
81343SOL    HW245927   2.587   3.667   2.936
81344SOL     OW45928   4.957   7.179   5.729
81344SOL    HW145929   4.933   7.087   5.733
81344SOL    HW245930   4.918   7.217   5.808
81345SOL     OW45931  12.354  11.762   5.298
81345SOL    HW145932  12.266  11.751   5.260
81345SOL    HW245933  12.388  11.673   5.306
81346SOL     OW45934   0.898  14.397   3.463
81346SOL    HW145935   0.897  14.454   3.540
81346SOL    HW245936   0.922  14.456   3.391
81347SOL     OW45937   4.963  14.222   8.784
81347SOL    HW145938   4.890  14.252   8.730
81347SOL    HW245939   5.033  14.284   8.766
81348SOL     OW45940   3.922   7.809  14.298
81348SOL    HW145941   3.924   7.897  14.259
81348SOL    HW245942   4.013   7.791  14.320
81349SOL     OW45943   1.331  14.738  12.625
81349SOL    HW145944   1.305  14.820  12.667
81349SOL    HW245945   1.291  14.670  12.680
81350SOL     OW45946  14.086  14.072  11.185
81350SOL    HW145947  14.093  14.159  11.224
81350SOL    HW245948  14.045  14.019  11.253
81351SOL     OW45949   5.589  12.545   3.531
81351SOL    HW145950   5.503  12.534   3.492
81351SOL    HW245951   5.649  12.553   3.457
81352SOL     OW45952   1.486  14.287   9.576
81352SOL    HW145953   1.494  14.352   9.507
81352SOL    HW245954   1.394  14.293   9.604
81353SOL     OW45955   1.286   4.964   7.436
81353SOL    HW145956   1.335   5.016   7.372
81353SOL    HW245957   1.210   5.018   7.458
81354SOL     OW45958  10.045  12.655  10.913
81354SOL    HW145959   9.961  12.649  10.958
81354SOL    HW245960  10.073  12.746  10.925
81355SOL     OW45961  13.094   3.195  12.399
81355SOL    HW145962  13.106   3.227  12.310
81355SOL    HW245963  13.050   3.111  12.390
81356SOL     OW45964   6.491  14.146  12.133
81356SOL    HW145965   6.396  14.147  12.119
81356SOL    HW245966   6.529  14.142  12.045
81357SOL     OW45967  14.333  14.293   3.620
81357SOL    HW145968  14.237  14.288   3.612
81357SOL    HW245969  14.364  14.207   3.591
81358SOL     OW45970  13.165  11.860  10.948
81358SOL    HW145971  13.196  11.820  10.867
81358SOL    HW245972  13.162  11.954  10.929
81359SOL     OW45973   2.508   4.336   4.173
81359SOL    HW145974   2.541   4.334   4.263
81359SOL    HW245975   2.583   4.366   4.121
81360SOL     OW45976   6.650  12.560   2.168
81360SOL    HW145977   6.663  12.612   2.089
81360SOL    HW245978   6.716  12.593   2.229
81361SOL     OW45979   2.892  11.447   0.272
81361SOL    HW145980   2.965  11.393   0.301
81361SOL    HW245981   2.907  11.461   0.179
81362SOL     OW45982   9.835   2.491   5.913
81362SOL    HW145983   9.822   2.499   5.819
81362SOL    HW245984   9.894   2.563   5.936
81363SOL     OW45985   1.677   6.883   7.821
81363SOL    HW145986   1.711   6.828   7.892
81363SOL    HW245987   1.653   6.821   7.752
81364SOL     OW45988   8.711   2.762   2.688
81364SOL    HW145989   8.734   2.672   2.662
81364SOL    HW245990   8.702   2.809   2.606
81365SOL     OW45991   5.615   0.222  10.553
81365SOL    HW145992   5.528   0.242  10.587
81365SOL    HW245993   5.671   0.216  10.630
81366SOL     OW45994   4.653  13.210   8.767
81366SOL    HW145995   4.681  13.190   8.678
81366SOL    HW245996   4.706  13.286   8.791
81367SOL     OW45997  14.630  12.119   3.447
81367SOL    HW145998  14.604  12.146   3.535
81367SOL    HW245999  14.555  12.068   3.415
81368SOL     OW46000  13.044   3.605   5.736
81368SOL    HW146001  13.045   3.674   5.803
81368SOL    HW246002  13.038   3.524   5.786
81369SOL     OW46003  11.427  14.859   1.420
81369SOL    HW146004  11.366   0.061   1.404
81369SOL    HW246005  11.449  14.867   1.513
81370SOL     OW46006   8.695   8.838   8.008
81370SOL    HW146007   8.698   8.752   7.966
81370SOL    HW246008   8.668   8.820   8.098
81371SOL     OW46009   3.796   8.315   3.183
81371SOL    HW146010   3.778   8.285   3.094
81371SOL    HW246011   3.743   8.394   3.194
81372SOL     OW46012   4.406  13.483  14.019
81372SOL    HW146013   4.447  13.465  13.934
81372SOL    HW246014   4.475  13.465  14.083
81373SOL     OW46015  11.822  11.124  11.200
81373SOL    HW146016  11.771  11.205  11.201
81373SOL    HW246017  11.912  11.152  11.215
81374SOL     OW46018   7.459  12.192  12.212
81374SOL    HW146019   7.497  12.111  12.244
81374SOL    HW246020   7.371  12.167  12.183
81375SOL     OW46021   6.108   5.818   3.900
81375SOL    HW146022   6.134   5.849   3.813
81375SOL    HW246023   6.102   5.898   3.952
81376SOL     OW46024   6.362  13.403  14.827
81376SOL    HW146025   6.446  13.448  14.826
81376SOL    HW246026   6.361  13.354   0.039
81377SOL     OW46027   1.401  11.038   2.520
81377SOL    HW146028   1.461  11.003   2.586
81377SOL    HW246029   1.454  11.044   2.441
81378SOL     OW46030  13.912   9.883  12.812
81378SOL    HW146031  13.885   9.813  12.872
81378SOL    HW246032  13.982   9.928  12.858
81379SOL     OW46033   1.569  11.912   1.258
81379SOL    HW146034   1.563  11.904   1.163
81379SOL    HW246035   1.560  11.822   1.290
81380SOL     OW46036   3.012  14.386  13.232
81380SOL    HW146037   3.077  14.328  13.273
81380SOL    HW246038   3.010  14.463  13.289
81381SOL     OW46039   5.093   4.282   1.388
81381SOL    HW146040   5.067   4.349   1.451
81381SOL    HW246041   5.016   4.268   1.334
81382SOL     OW46042   6.636  13.453  10.464
81382SOL    HW146043   6.550  13.411  10.465
81382SOL    HW246044   6.690  13.396  10.410
81383SOL     OW46045   1.608   1.983   3.013
81383SOL    HW146046   1.570   1.969   2.926
81383SOL    HW246047   1.533   1.979   3.073
81384SOL     OW46048  10.429  12.068   2.550
81384SOL    HW146049  10.467  12.013   2.481
81384SOL    HW246050  10.491  12.062   2.622
81385SOL     OW46051  11.536   2.423   7.112
81385SOL    HW146052  11.575   2.510   7.115
81385SOL    HW246053  11.445   2.438   7.088
81386SOL     OW46054   8.256   1.240   7.268
81386SOL    HW146055   8.213   1.305   7.213
81386SOL    HW246056   8.278   1.286   7.349
81387SOL     OW46057  13.183  11.835   0.943
81387SOL    HW146058  13.136  11.789   1.013
81387SOL    HW246059  13.192  11.925   0.976
81388SOL     OW46060   9.900  13.358   3.267
81388SOL    HW146061   9.966  13.368   3.336
81388SOL    HW246062   9.818  13.387   3.308
81389SOL     OW46063   5.396   9.265   8.388
81389SOL    HW146064   5.304   9.245   8.402
81389SOL    HW246065   5.435   9.182   8.362
81390SOL     OW46066   6.679   0.094  12.199
81390SOL    HW146067   6.657   0.108  12.107
81390SOL    HW246068   6.607   0.136  12.247
81391SOL     OW46069   2.016   8.523  14.691
81391SOL    HW146070   1.981   8.451  14.743
81391SOL    HW246071   2.067   8.480  14.623
81392SOL     OW46072  14.611  12.046   4.315
81392SOL    HW146073  14.662  12.124   4.295
81392SOL    HW246074  14.578  12.060   4.404
81393SOL     OW46075  13.202  12.403   3.360
81393SOL    HW146076  13.116  12.422   3.323
81393SOL    HW246077  13.261  12.462   3.313
81394SOL     OW46078   2.481  11.687  12.117
81394SOL    HW146079   2.541  11.613  12.116
81394SOL    HW246080   2.478  11.717  12.026
81395SOL     OW46081  13.858  12.888  12.751
81395SOL    HW146082  13.790  12.844  12.803
81395SOL    HW246083  13.936  12.835  12.765
81396SOL     OW46084   9.431  11.667  10.917
81396SOL    HW146085   9.512  11.618  10.907
81396SOL    HW246086   9.393  11.670  10.829
81397SOL     OW46087  11.757   5.284  14.250
81397SOL    HW146088  11.713   5.245  14.174
81397SOL    HW246089  11.716   5.241  14.325
81398SOL     OW46090  14.860  14.854   9.472
81398SOL    HW146091   0.028  14.770   9.443
81398SOL    HW246092   0.022  14.865   9.561
81399SOL     OW46093   4.201   1.013   4.019
81399SOL    HW146094   4.263   0.966   4.075
81399SOL    HW246095   4.181   1.093   4.066
81400SOL     OW46096  12.121   9.839  11.819
81400SOL    HW146097  12.129   9.930  11.847
81400SOL    HW246098  12.031   9.815  11.840
81401SOL     OW46099  12.939   0.498  10.995
81401SOL    HW146100  12.930   0.417  10.946
81401SOL    HW246101  12.991   0.555  10.938
81402SOL     OW46102   7.105   6.378   5.003
81402SOL    HW146103   7.117   6.344   5.092
81402SOL    HW246104   7.042   6.318   4.963
81403SOL     OW46105   3.818   2.694   3.581
81403SOL    HW146106   3.763   2.692   3.660
81403SOL    HW246107   3.853   2.783   3.579
81404SOL     OW46108   7.750   1.899   0.950
81404SOL    HW146109   7.760   1.816   0.997
81404SOL    HW246110   7.790   1.883   0.864
81405SOL     OW46111  11.953  11.827   7.342
81405SOL    HW146112  11.921  11.737   7.351
81405SOL    HW246113  11.971  11.855   7.432
81406SOL     OW46114   1.845   4.255   5.330
81406SOL    HW146115   1.923   4.301   5.299
81406SOL    HW246116   1.792   4.243   5.251
81407SOL     OW46117   1.053  10.449  10.012
81407SOL    HW146118   1.100  10.450  10.095
81407SOL    HW246119   1.029  10.540   9.996
81408SOL     OW46120   6.805  13.708  14.319
81408SOL    HW146121   6.752  13.638  14.280
81408SOL    HW246122   6.741  13.771  14.352
81409SOL     OW46123   3.551   6.423   2.297
81409SOL    HW146124   3.577   6.386   2.381
81409SOL    HW246125   3.523   6.513   2.318
81410SOL     OW46126   8.251  10.020   9.904
81410SOL    HW146127   8.157  10.034   9.917
81410SOL    HW246128   8.283  10.103   9.869
81411SOL     OW46129   4.227   1.869   9.683
81411SOL    HW146130   4.187   1.784   9.699
81411SOL    HW246131   4.284   1.884   9.758
81412SOL     OW46132   2.813   5.454  10.333
81412SOL    HW146133   2.806   5.540  10.292
81412SOL    HW246134   2.858   5.399  10.268
81413SOL     OW46135   9.063  14.299   9.257
81413SOL    HW146136   8.980  14.320   9.298
81413SOL    HW246137   9.118  14.266   9.328
81414SOL     OW46138   8.060  13.075   3.277
81414SOL    HW146139   8.067  13.154   3.330
81414SOL    HW246140   8.019  13.103   3.196
81415SOL     OW46141   7.861  14.207   4.085
81415SOL    HW146142   7.922  14.263   4.132
81415SOL    HW246143   7.815  14.266   4.025
81416SOL     OW46144   5.221  14.757   2.734
81416SOL    HW146145   5.307  14.722   2.758
81416SOL    HW246146   5.168  14.680   2.712
81417SOL     OW46147   8.649   3.564   1.212
81417SOL    HW146148   8.556   3.587   1.214
81417SOL    HW246149   8.674   3.559   1.304
81418SOL     OW46150   9.140   4.547  13.604
81418SOL    HW146151   9.152   4.495  13.683
81418SOL    HW246152   9.060   4.597  13.619
81419SOL     OW46153   2.534  10.997   0.139
81419SOL    HW146154   2.618  11.017   0.098
81419SOL    HW246155   2.513  11.075   0.189
81420SOL     OW46156  10.595  14.702  11.292
81420SOL    HW146157  10.516  14.656  11.264
81420SOL    HW246158  10.609  14.770  11.226
81421SOL     OW46159   5.568   6.664   3.546
81421SOL    HW146160   5.637   6.665   3.612
81421SOL    HW246161   5.497   6.714   3.583
81422SOL     OW46162   3.657   5.211   3.844
81422SOL    HW146163   3.574   5.237   3.884
81422SOL    HW246164   3.721   5.273   3.880
81423SOL     OW46165   7.678   4.640   2.907
81423SOL    HW146166   7.707   4.554   2.877
81423SOL    HW246167   7.755   4.696   2.896
81424SOL     OW46168   1.155   3.215   8.917
81424SOL    HW146169   1.244   3.245   8.898
81424SOL    HW246170   1.159   3.120   8.910
81425SOL     OW46171   1.140   9.115  14.036
81425SOL    HW146172   1.150   9.180  13.966
81425SOL    HW246173   1.050   9.126  14.066
81426SOL     OW46174   2.218   5.627  14.085
81426SOL    HW146175   2.298   5.665  14.122
81426SOL    HW246176   2.169   5.597  14.161
81427SOL     OW46177   8.484   6.961  12.734
81427SOL    HW146178   8.498   6.886  12.676
81427SOL    HW246179   8.564   6.965  12.787
81428SOL     OW46180   3.382   4.854   6.581
81428SOL    HW146181   3.438   4.800   6.637
81428SOL    HW246182   3.421   4.941   6.583
81429SOL     OW46183  12.127   8.038   7.234
81429SOL    HW146184  12.147   8.030   7.328
81429SOL    HW246185  12.096   7.951   7.209
81430SOL     OW46186   4.385   6.432   8.210
81430SOL    HW146187   4.314   6.377   8.241
81430SOL    HW246188   4.349   6.521   8.208
81431SOL     OW46189   9.298  11.480  13.006
81431SOL    HW146190   9.298  11.574  12.992
81431SOL    HW246191   9.325  11.468  13.097
81432SOL     OW46192  13.072   6.746  10.457
81432SOL    HW146193  13.034   6.800  10.526
81432SOL    HW246194  13.040   6.785  10.376
81433SOL     OW46195   8.287   8.319   1.212
81433SOL    HW146196   8.260   8.268   1.288
81433SOL    HW246197   8.378   8.344   1.231
81434SOL     OW46198   5.249  11.406   9.217
81434SOL    HW146199   5.251  11.317   9.251
81434SOL    HW246200   5.252  11.395   9.122
81435SOL     OW46201   7.622   1.101  10.779
81435SOL    HW146202   7.611   1.196  10.775
81435SOL    HW246203   7.557   1.072  10.842
81436SOL     OW46204   6.151   6.949   5.412
81436SOL    HW146205   6.211   7.022   5.398
81436SOL    HW246206   6.115   6.965   5.499
81437SOL     OW46207   3.750   9.406  13.250
81437SOL    HW146208   3.704   9.383  13.330
81437SOL    HW246209   3.683   9.406  13.182
81438SOL     OW46210  13.640  12.027  13.052
81438SOL    HW146211  13.663  11.935  13.068
81438SOL    HW246212  13.603  12.058  13.135
81439SOL     OW46213   4.185   5.473   9.831
81439SOL    HW146214   4.268   5.460   9.784
81439SOL    HW246215   4.120   5.486   9.762
81440SOL     OW46216  13.641  13.796   8.952
81440SOL    HW146217  13.570  13.800   8.888
81440SOL    HW246218  13.684  13.881   8.946
81441SOL     OW46219   0.534  11.980   3.728
81441SOL    HW146220   0.491  11.898   3.750
81441SOL    HW246221   0.464  12.045   3.726
81442SOL     OW46222   8.352  11.394   6.532
81442SOL    HW146223   8.342  11.479   6.488
81442SOL    HW246224   8.291  11.398   6.605
81443SOL     OW46225   7.941   7.156   9.692
81443SOL    HW146226   7.981   7.239   9.666
81443SOL    HW246227   7.852   7.179   9.719
81444SOL     OW46228   6.771   7.322  14.000
81444SOL    HW146229   6.766   7.323  14.096
81444SOL    HW246230   6.683   7.296  13.972
81445SOL     OW46231  11.270   6.795  13.322
81445SOL    HW146232  11.327   6.819  13.249
81445SOL    HW246233  11.247   6.879  13.362
81446SOL     OW46234  12.566   0.103  11.015
81446SOL    HW146235  12.524   0.175  10.968
81446SOL    HW246236  12.496   0.065  11.069
81447SOL     OW46237  13.344   8.517   6.012
81447SOL    HW146238  13.275   8.454   6.033
81447SOL    HW246239  13.326   8.543   5.922
81448SOL     OW46240   1.598  11.528   2.161
81448SOL    HW146241   1.604  11.534   2.257
81448SOL    HW246242   1.569  11.438   2.145
81449SOL     OW46243   4.143   6.008   6.818
81449SOL    HW146244   4.125   5.934   6.875
81449SOL    HW246245   4.191   5.970   6.744
81450SOL     OW46246   4.069   0.587  13.693
81450SOL    HW146247   4.065   0.494  13.718
81450SOL    HW246248   4.112   0.630  13.767
81451SOL     OW46249  14.117   8.912   4.035
81451SOL    HW146250  14.052   8.893   4.102
81451SOL    HW246251  14.132   9.006   4.042
81452SOL     OW46252   1.005   3.339   4.841
81452SOL    HW146253   0.911   3.358   4.840
81452SOL    HW246254   1.027   3.333   4.934
81453SOL     OW46255  13.497   4.907   8.804
81453SOL    HW146256  13.537   4.983   8.847
81453SOL    HW246257  13.556   4.834   8.826
81454SOL     OW46258   8.090   5.725  12.889
81454SOL    HW146259   8.144   5.651  12.864
81454SOL    HW246260   8.044   5.696  12.968
81455SOL     OW46261  14.086   7.061   7.784
81455SOL    HW146262  14.144   6.993   7.820
81455SOL    HW246263  14.112   7.069   7.693
81456SOL     OW46264   1.841   4.947   6.095
81456SOL    HW146265   1.799   5.011   6.038
81456SOL    HW246266   1.803   4.963   6.181
81457SOL     OW46267  12.751   9.216   5.777
81457SOL    HW146268  12.698   9.189   5.702
81457SOL    HW246269  12.841   9.219   5.743
81458SOL     OW46270  12.862  13.272  11.760
81458SOL    HW146271  12.807  13.329  11.814
81458SOL    HW246272  12.804  13.243  11.690
81459SOL     OW46273   1.436   3.634  14.648
81459SOL    HW146274   1.521   3.656  14.610
81459SOL    HW246275   1.408   3.556  14.600
81460SOL     OW46276   7.076   8.053  10.038
81460SOL    HW146277   7.138   7.990  10.075
81460SOL    HW246278   7.049   8.107  10.112
81461SOL     OW46279   2.532   0.681   2.866
81461SOL    HW146280   2.479   0.755   2.893
81461SOL    HW246281   2.537   0.689   2.770
81462SOL     OW46282  10.855  14.339   9.765
81462SOL    HW146283  10.762  14.316   9.772
81462SOL    HW246284  10.877  14.375   9.851
81463SOL     OW46285   4.724  11.839  14.097
81463SOL    HW146286   4.657  11.815  14.033
81463SOL    HW246287   4.772  11.911  14.055
81464SOL     OW46288   3.376   3.415   0.562
81464SOL    HW146289   3.302   3.465   0.529
81464SOL    HW246290   3.423   3.386   0.483
81465SOL     OW46291  13.622   2.709   3.808
81465SOL    HW146292  13.555   2.644   3.826
81465SOL    HW246293  13.687   2.663   3.754
81466SOL     OW46294  11.530   1.792   1.671
81466SOL    HW146295  11.471   1.866   1.653
81466SOL    HW246296  11.595   1.827   1.732
81467SOL     OW46297   0.632  13.425   5.082
81467SOL    HW146298   0.594  13.341   5.108
81467SOL    HW246299   0.650  13.469   5.165
81468SOL     OW46300   8.006   9.616   1.851
81468SOL    HW146301   8.087   9.658   1.880
81468SOL    HW246302   8.025   9.522   1.853
81469SOL     OW46303   4.248  14.533   6.283
81469SOL    HW146304   4.183  14.567   6.221
81469SOL    HW246305   4.300  14.471   6.233
81470SOL     OW46306   7.786   5.698   9.021
81470SOL    HW146307   7.859   5.638   9.040
81470SOL    HW246308   7.770   5.742   9.104
81471SOL     OW46309   7.645   7.681   9.569
81471SOL    HW146310   7.696   7.686   9.649
81471SOL    HW246311   7.599   7.597   9.575
81472SOL     OW46312   5.351   1.243   3.818
81472SOL    HW146313   5.417   1.180   3.791
81472SOL    HW246314   5.284   1.238   3.749
81473SOL     OW46315  13.948   4.635   2.606
81473SOL    HW146316  13.901   4.701   2.555
81473SOL    HW246317  13.903   4.634   2.691
81474SOL     OW46318  14.852   5.982   8.842
81474SOL    HW146319  14.803   5.948   8.917
81474SOL    HW246320   0.054   6.033   8.881
81475SOL     OW46321  14.512  11.560   8.757
81475SOL    HW146322  14.440  11.622   8.750
81475SOL    HW246323  14.540  11.567   8.848
81476SOL     OW46324  12.420   9.043  14.475
81476SOL    HW146325  12.488   8.990  14.432
81476SOL    HW246326  12.377   9.089  14.403
81477SOL     OW46327   6.793   9.984   0.132
81477SOL    HW146328   6.714   9.976   0.185
81477SOL    HW246329   6.783   9.917   0.064
81478SOL     OW46330   3.622   9.078   1.733
81478SOL    HW146331   3.576   8.995   1.745
81478SOL    HW246332   3.572   9.124   1.665
81479SOL     OW46333  12.069   6.071  11.224
81479SOL    HW146334  12.041   5.986  11.258
81479SOL    HW246335  12.152   6.053  11.181
81480SOL     OW46336   1.176   8.953   2.756
81480SOL    HW146337   1.127   9.020   2.708
81480SOL    HW246338   1.115   8.923   2.823
81481SOL     OW46339   5.095   5.225  11.149
81481SOL    HW146340   5.176   5.175  11.159
81481SOL    HW246341   5.093   5.283  11.225
81482SOL     OW46342   3.713  10.629   0.221
81482SOL    HW146343   3.689  10.611   0.312
81482SOL    HW246344   3.723  10.725   0.218
81483SOL     OW46345  11.844   7.762  13.716
81483SOL    HW146346  11.835   7.845  13.670
81483SOL    HW246347  11.765   7.713  13.694
81484SOL     OW46348   8.441   2.198   2.754
81484SOL    HW146349   8.475   2.234   2.672
81484SOL    HW246350   8.352   2.170   2.732
81485SOL     OW46351  13.983   0.022   0.186
81485SOL    HW146352  13.951   0.097   0.136
81485SOL    HW246353  13.962   0.042   0.277
81486SOL     OW46354   8.243   8.534  11.820
81486SOL    HW146355   8.280   8.534  11.909
81486SOL    HW246356   8.156   8.494  11.830
81487SOL     OW46357   9.959   0.530   4.754
81487SOL    HW146358   9.979   0.621   4.729
81487SOL    HW246359   9.886   0.538   4.815
81488SOL     OW46360   1.974   9.983   4.738
81488SOL    HW146361   2.013   9.924   4.802
81488SOL    HW246362   1.894  10.015   4.779
81489SOL     OW46363   6.220  10.220   4.787
81489SOL    HW146364   6.287  10.272   4.832
81489SOL    HW246365   6.223  10.250   4.697
81490SOL     OW46366   2.863  11.030  14.429
81490SOL    HW146367   2.916  11.074  14.496
81490SOL    HW246368   2.802  11.097  14.399
81491SOL     OW46369  12.870   5.289   5.830
81491SOL    HW146370  12.901   5.375   5.857
81491SOL    HW246371  12.900   5.230   5.899
81492SOL     OW46372   4.808  11.188   7.002
81492SOL    HW146373   4.788  11.210   7.093
81492SOL    HW246374   4.899  11.216   6.990
81493SOL     OW46375  12.355  10.725   2.552
81493SOL    HW146376  12.431  10.683   2.594
81493SOL    HW246377  12.393  10.785   2.488
81494SOL     OW46378   3.252   5.709   3.392
81494SOL    HW146379   3.245   5.618   3.362
81494SOL    HW246380   3.332   5.710   3.445
81495SOL     OW46381   6.279   8.880   8.979
81495SOL    HW146382   6.203   8.931   9.007
81495SOL    HW246383   6.259   8.856   8.888
81496SOL     OW46384   4.183  11.916   0.473
81496SOL    HW146385   4.090  11.930   0.486
81496SOL    HW246386   4.212  11.873   0.553
81497SOL     OW46387   1.883  10.948  12.313
81497SOL    HW146388   1.886  11.031  12.362
81497SOL    HW246389   1.790  10.926  12.309
81498SOL     OW46390   9.113  13.101   1.756
81498SOL    HW146391   9.067  13.183   1.772
81498SOL    HW246392   9.194  13.128   1.711
81499SOL     OW46393  14.080   8.167   2.819
81499SOL    HW146394  14.036   8.252   2.817
81499SOL    HW246395  14.033   8.115   2.753
81500SOL     OW46396   6.911   3.004   8.327
81500SOL    HW146397   6.939   2.918   8.359
81500SOL    HW246398   6.948   3.010   8.239
81501SOL     OW46399   2.722   3.023   6.649
81501SOL    HW146400   2.741   2.990   6.561
81501SOL    HW246401   2.744   3.116   6.644
81502SOL     OW46402   3.808   3.575  12.152
81502SOL    HW146403   3.863   3.497  12.156
81502SOL    HW246404   3.752   3.569  12.230
81503SOL     OW46405   8.966   9.017  14.222
81503SOL    HW146406   9.048   8.969  14.211
81503SOL    HW246407   8.982   9.102  14.180
81504SOL     OW46408   7.300  11.178  10.591
81504SOL    HW146409   7.391  11.150  10.592
81504SOL    HW246410   7.303  11.270  10.566
81505SOL     OW46411   5.446   7.207   8.422
81505SOL    HW146412   5.406   7.212   8.509
81505SOL    HW246413   5.487   7.120   8.420
81506SOL     OW46414   5.190   1.639   7.109
81506SOL    HW146415   5.213   1.659   7.018
81506SOL    HW246416   5.181   1.543   7.111
81507SOL     OW46417  13.417   3.018  11.609
81507SOL    HW146418  13.373   3.010  11.693
81507SOL    HW246419  13.440   2.929  11.585
81508SOL     OW46420   0.806   8.093  13.302
81508SOL    HW146421   0.728   8.138  13.269
81508SOL    HW246422   0.773   8.037  13.372
81509SOL     OW46423   8.500   3.039   5.394
81509SOL    HW146424   8.594   3.048   5.408
81509SOL    HW246425   8.487   2.946   5.378
81510SOL     OW46426   9.395   1.268   8.307
81510SOL    HW146427   9.419   1.226   8.225
81510SOL    HW246428   9.457   1.341   8.317
81511SOL     OW46429  12.740   4.736  12.910
81511SOL    HW146430  12.784   4.699  12.986
81511SOL    HW246431  12.810   4.746  12.845
81512SOL     OW46432  10.023   1.354   7.172
81512SOL    HW146433  10.088   1.283   7.170
81512SOL    HW246434   9.991   1.359   7.082
81513SOL     OW46435   2.387   7.829   8.103
81513SOL    HW146436   2.377   7.734   8.113
81513SOL    HW246437   2.451   7.839   8.033
81514SOL     OW46438   1.068   3.194   8.147
81514SOL    HW146439   1.106   3.121   8.196
81514SOL    HW246440   1.111   3.190   8.061
81515SOL     OW46441   9.515   8.246   6.426
81515SOL    HW146442   9.462   8.167   6.434
81515SOL    HW246443   9.599   8.224   6.465
81516SOL     OW46444   9.021   3.386  12.777
81516SOL    HW146445   8.929   3.361  12.762
81516SOL    HW246446   9.041   3.351  12.864
81517SOL     OW46447  10.013   1.142   0.295
81517SOL    HW146448  10.060   1.117   0.216
81517SOL    HW246449  10.040   1.079   0.362
81518SOL     OW46450   3.427  14.115   1.725
81518SOL    HW146451   3.426  14.020   1.733
81518SOL    HW246452   3.431  14.147   1.815
81519SOL     OW46453  11.235  11.864   8.730
81519SOL    HW146454  11.310  11.806   8.724
81519SOL    HW246455  11.271  11.951   8.714
81520SOL     OW46456   4.661  12.509   0.005
81520SOL    HW146457   4.590  12.509  14.810
81520SOL    HW246458   4.720  12.579  14.845
81521SOL     OW46459  10.652  13.765   7.769
81521SOL    HW146460  10.632  13.818   7.846
81521SOL    HW246461  10.717  13.817   7.721
81522SOL     OW46462  12.503   0.731   7.155
81522SOL    HW146463  12.414   0.717   7.186
81522SOL    HW246464  12.557   0.683   7.218
81523SOL     OW46465  11.812   4.197   3.183
81523SOL    HW146466  11.828   4.234   3.097
81523SOL    HW246467  11.848   4.261   3.244
81524SOL     OW46468   6.366   6.405   5.662
81524SOL    HW146469   6.397   6.391   5.751
81524SOL    HW246470   6.438   6.452   5.619
81525SOL     OW46471  14.428   0.174   6.884
81525SOL    HW146472  14.374   0.107   6.926
81525SOL    HW246473  14.517   0.142   6.893
81526SOL     OW46474  13.665  14.766   8.314
81526SOL    HW146475  13.599  14.831   8.336
81526SOL    HW246476  13.725  14.767   8.389
81527SOL     OW46477  13.832  12.400   2.966
81527SOL    HW146478  13.856  12.307   2.963
81527SOL    HW246479  13.764  12.410   2.900
81528SOL     OW46480   3.756  12.182   8.618
81528SOL    HW146481   3.760  12.106   8.675
81528SOL    HW246482   3.724  12.147   8.534
81529SOL     OW46483  13.372   5.624   6.760
81529SOL    HW146484  13.458   5.618   6.718
81529SOL    HW246485  13.378   5.566   6.836
81530SOL     OW46486   6.730  10.281   0.828
81530SOL    HW146487   6.809  10.284   0.775
81530SOL    HW246488   6.696  10.371   0.824
81531SOL     OW46489   7.335  13.573   5.524
81531SOL    HW146490   7.342  13.478   5.515
81531SOL    HW246491   7.242  13.591   5.511
81532SOL     OW46492   0.846   7.120  11.974
81532SOL    HW146493   0.872   7.159  11.890
81532SOL    HW246494   0.900   7.041  11.981
81533SOL     OW46495  14.553   7.098   8.709
81533SOL    HW146496  14.466   7.092   8.748
81533SOL    HW246497  14.589   7.010   8.715
81534SOL     OW46498  10.343   3.753  10.213
81534SOL    HW146499  10.407   3.816  10.182
81534SOL    HW246500  10.270   3.760  10.152
81535SOL     OW46501   0.938   8.862   4.851
81535SOL    HW146502   1.011   8.838   4.794
81535SOL    HW246503   0.917   8.952   4.825
81536SOL     OW46504   6.536   8.882  11.345
81536SOL    HW146505   6.531   8.927  11.261
81536SOL    HW246506   6.496   8.797  11.329
81537SOL     OW46507   8.354   7.047  13.534
81537SOL    HW146508   8.343   6.952  13.547
81537SOL    HW246509   8.401   7.054  13.451
81538SOL     OW46510  11.622   6.017  11.417
81538SOL    HW146511  11.579   6.014  11.332
81538SOL    HW246512  11.613   5.928  11.452
81539SOL     OW46513  14.140  11.793  13.491
81539SOL    HW146514  14.139  11.726  13.423
81539SOL    HW246515  14.154  11.875  13.443
81540SOL     OW46516   9.760   8.919   3.412
81540SOL    HW146517   9.687   8.918   3.350
81540SOL    HW246518   9.758   8.833   3.453
81541SOL     OW46519  13.269   5.959   5.310
81541SOL    HW146520  13.263   5.925   5.399
81541SOL    HW246521  13.194   5.921   5.265
81542SOL     OW46522   5.166   2.712   0.803
81542SOL    HW146523   5.096   2.685   0.743
81542SOL    HW246524   5.224   2.636   0.806
81543SOL     OW46525  11.144  13.071   9.345
81543SOL    HW146526  11.199  13.101   9.417
81543SOL    HW246527  11.172  13.122   9.269
81544SOL     OW46528  11.139   2.167  13.073
81544SOL    HW146529  11.146   2.139  12.982
81544SOL    HW246530  11.200   2.240  13.080
81545SOL     OW46531   9.537   9.874   7.070
81545SOL    HW146532   9.464   9.909   7.121
81545SOL    HW246533   9.601   9.846   7.136
81546SOL     OW46534  14.199   7.539   3.822
81546SOL    HW146535  14.231   7.601   3.888
81546SOL    HW246536  14.105   7.556   3.817
81547SOL     OW46537   1.678  13.298   7.751
81547SOL    HW146538   1.746  13.336   7.696
81547SOL    HW246539   1.598  13.307   7.701
81548SOL     OW46540   3.931   0.886   2.507
81548SOL    HW146541   3.884   0.896   2.589
81548SOL    HW246542   4.006   0.830   2.528
81549SOL     OW46543   1.612   7.666   9.849
81549SOL    HW146544   1.658   7.714   9.780
81549SOL    HW246545   1.661   7.585   9.858
81550SOL     OW46546  11.022   4.290   4.437
81550SOL    HW146547  11.112   4.274   4.408
81550SOL    HW246548  10.993   4.206   4.472
81551SOL     OW46549   1.072   9.845   6.292
81551SOL    HW146550   0.983   9.815   6.310
81551SOL    HW246551   1.090   9.816   6.202
81552SOL     OW46552  13.985   2.792  12.795
81552SOL    HW146553  14.048   2.852  12.833
81552SOL    HW246554  13.954   2.739  12.869
81553SOL     OW46555   1.756  14.710   9.419
81553SOL    HW146556   1.746  14.803   9.437
81553SOL    HW246557   1.666  14.677   9.410
81554SOL     OW46558   3.777  12.612   6.339
81554SOL    HW146559   3.834  12.683   6.309
81554SOL    HW246560   3.834  12.535   6.343
81555SOL     OW46561   8.695   6.100   3.791
81555SOL    HW146562   8.693   6.090   3.696
81555SOL    HW246563   8.782   6.133   3.810
81556SOL     OW46564   4.243  12.416   4.747
81556SOL    HW146565   4.314  12.479   4.736
81556SOL    HW246566   4.258  12.377   4.833
81557SOL     OW46567   4.695   2.715   8.655
81557SOL    HW146568   4.701   2.810   8.657
81557SOL    HW246569   4.726   2.691   8.567
81558SOL     OW46570   0.471   8.288   9.461
81558SOL    HW146571   0.471   8.383   9.448
81558SOL    HW246572   0.549   8.272   9.514
81559SOL     OW46573   0.562   4.938   0.054
81559SOL    HW146574   0.514   4.923  14.842
81559SOL    HW246575   0.630   5.001   0.030
81560SOL     OW46576  10.082  10.340  12.667
81560SOL    HW146577   9.989  10.360  12.655
81560SOL    HW246578  10.094  10.340  12.762
81561SOL     OW46579  13.851  13.314   5.763
81561SOL    HW146580  13.891  13.325   5.676
81561SOL    HW246581  13.815  13.225   5.762
81562SOL     OW46582  13.843   8.266   7.966
81562SOL    HW146583  13.850   8.184   8.015
81562SOL    HW246584  13.753   8.266   7.932
81563SOL     OW46585   6.904   7.874   0.537
81563SOL    HW146586   6.918   7.969   0.538
81563SOL    HW246587   6.969   7.842   0.473
81564SOL     OW46588   6.730   4.304   9.157
81564SOL    HW146589   6.675   4.237   9.198
81564SOL    HW246590   6.787   4.255   9.098
81565SOL     OW46591  12.386  14.318  12.193
81565SOL    HW146592  12.333  14.301  12.115
81565SOL    HW246593  12.368  14.409  12.216
81566SOL     OW46594  12.909  14.108  14.606
81566SOL    HW146595  12.841  14.157  14.652
81566SOL    HW246596  12.985  14.111  14.664
81567SOL     OW46597   4.644   9.130  10.870
81567SOL    HW146598   4.688   9.143  10.786
81567SOL    HW246599   4.674   9.203  10.924
81568SOL     OW46600   6.636  10.324   3.456
81568SOL    HW146601   6.650  10.413   3.488
81568SOL    HW246602   6.589  10.280   3.528
81569SOL     OW46603   9.357   5.425   6.891
81569SOL    HW146604   9.275   5.448   6.846
81569SOL    HW246605   9.359   5.329   6.888
81570SOL     OW46606   7.769   0.927   8.260
81570SOL    HW146607   7.826   0.911   8.185
81570SOL    HW246608   7.823   0.908   8.337
81571SOL     OW46609  11.243  11.743  14.165
81571SOL    HW146610  11.293  11.663  14.155
81571SOL    HW246611  11.275  11.781  14.247
81572SOL     OW46612   3.713   0.549  12.583
81572SOL    HW146613   3.625   0.514  12.593
81572SOL    HW246614   3.770   0.472  12.582
81573SOL     OW46615  12.904  12.812   3.675
81573SOL    HW146616  12.881  12.723   3.700
81573SOL    HW246617  12.821  12.857   3.665
81574SOL     OW46618  12.531  12.427   5.065
81574SOL    HW146619  12.622  12.438   5.035
81574SOL    HW246620  12.530  12.467   5.152
81575SOL     OW46621   8.409   8.381   6.728
81575SOL    HW146622   8.498   8.373   6.761
81575SOL    HW246623   8.418   8.423   6.642
81576SOL     OW46624  14.306   9.235   6.676
81576SOL    HW146625  14.374   9.294   6.644
81576SOL    HW246626  14.239   9.293   6.713
81577SOL     OW46627  10.435   7.239  14.369
81577SOL    HW146628  10.451   7.322  14.325
81577SOL    HW246629  10.518   7.217  14.411
81578SOL     OW46630   0.823   6.847  12.670
81578SOL    HW146631   0.747   6.822  12.619
81578SOL    HW246632   0.865   6.916  12.618
81579SOL     OW46633   5.779  14.730   7.110
81579SOL    HW146634   5.822  14.789   7.172
81579SOL    HW246635   5.836  14.731   7.032
81580SOL     OW46636  10.222  10.872   0.563
81580SOL    HW146637  10.145  10.889   0.617
81580SOL    HW246638  10.292  10.855   0.626
81581SOL     OW46639  13.707   1.372   6.761
81581SOL    HW146640  13.775   1.306   6.775
81581SOL    HW246641  13.754   1.455   6.759
81582SOL     OW46642  14.565   4.707   9.375
81582SOL    HW146643  14.590   4.708   9.468
81582SOL    HW246644  14.551   4.614   9.356
81583SOL     OW46645   6.174   4.050  12.233
81583SOL    HW146646   6.085   4.071  12.259
81583SOL    HW246647   6.226   4.127  12.257
81584SOL     OW46648  11.158  12.776   5.503
81584SOL    HW146649  11.107  12.847   5.544
81584SOL    HW246650  11.162  12.708   5.571
81585SOL     OW46651   3.769  11.664   2.999
81585SOL    HW146652   3.727  11.716   3.068
81585SOL    HW246653   3.734  11.576   3.011
81586SOL     OW46654   8.133   7.995   4.406
81586SOL    HW146655   8.039   7.987   4.422
81586SOL    HW246656   8.157   7.916   4.357
81587SOL     OW46657   7.665   0.836   3.359
81587SOL    HW146658   7.586   0.875   3.397
81587SOL    HW246659   7.704   0.787   3.432
81588SOL     OW46660   2.952   6.643   4.299
81588SOL    HW146661   3.026   6.678   4.349
81588SOL    HW246662   2.880   6.704   4.317
81589SOL     OW46663  14.499   1.503   1.264
81589SOL    HW146664  14.521   1.518   1.172
81589SOL    HW246665  14.409   1.472   1.262
81590SOL     OW46666   4.944   9.405   1.041
81590SOL    HW146667   4.852   9.378   1.033
81590SOL    HW246668   4.963   9.396   1.134
81591SOL     OW46669   9.157  11.449   3.603
81591SOL    HW146670   9.126  11.476   3.516
81591SOL    HW246671   9.100  11.377   3.628
81592SOL     OW46672   3.940  11.981   0.993
81592SOL    HW146673   3.950  11.947   1.082
81592SOL    HW246674   3.980  12.068   0.996
81593SOL     OW46675   3.526   7.999   9.296
81593SOL    HW146676   3.507   7.940   9.223
81593SOL    HW246677   3.467   8.073   9.282
81594SOL     OW46678  13.847   9.948   5.415
81594SOL    HW146679  13.836   9.982   5.504
81594SOL    HW246680  13.933   9.906   5.417
81595SOL     OW46681   6.132   3.506   8.008
81595SOL    HW146682   6.210   3.542   7.965
81595SOL    HW246683   6.097   3.580   8.058
81596SOL     OW46684   7.143   7.471   1.214
81596SOL    HW146685   7.100   7.477   1.129
81596SOL    HW246686   7.226   7.516   1.202
81597SOL     OW46687  10.091  14.001   4.430
81597SOL    HW146688  10.150  14.055   4.483
81597SOL    HW246689  10.006  14.042   4.438
81598SOL     OW46690   0.064  12.264  13.635
81598SOL    HW146691  14.849  12.303  13.653
81598SOL    HW246692   0.071  12.191  13.697
81599SOL     OW46693   9.454  12.078   4.898
81599SOL    HW146694   9.477  11.986   4.890
81599SOL    HW246695   9.374  12.079   4.950
81600SOL     OW46696   1.738   4.562   1.079
81600SOL    HW146697   1.810   4.624   1.089
81600SOL    HW246698   1.686   4.572   1.159
81601SOL     OW46699   7.283   4.075  13.675
81601SOL    HW146700   7.373   4.106  13.686
81601SOL    HW246701   7.229   4.150  13.699
81602SOL     OW46702   4.036   6.481  14.716
81602SOL    HW146703   4.003   6.401  14.677
81602SOL    HW246704   4.028   6.467  14.811
81603SOL     OW46705   4.607   1.274   1.260
81603SOL    HW146706   4.658   1.328   1.321
81603SOL    HW246707   4.641   1.299   1.173
81604SOL     OW46708   5.432  11.964   8.645
81604SOL    HW146709   5.341  11.934   8.646
81604SOL    HW246710   5.457  11.968   8.737
81605SOL     OW46711   4.431  14.595  13.934
81605SOL    HW146712   4.432  14.502  13.958
81605SOL    HW246713   4.340  14.622  13.947
81606SOL     OW46714   8.916  14.006   0.759
81606SOL    HW146715   8.918  14.014   0.854
81606SOL    HW246716   8.824  13.988   0.738
81607SOL     OW46717  12.980  14.163   1.009
81607SOL    HW146718  12.898  14.123   1.039
81607SOL    HW246719  12.969  14.256   1.029
81608SOL     OW46720  11.786   0.739  13.391
81608SOL    HW146721  11.692   0.727  13.407
81608SOL    HW246722  11.793   0.829  13.357
81609SOL     OW46723   1.468   2.112   5.757
81609SOL    HW146724   1.556   2.146   5.772
81609SOL    HW246725   1.448   2.136   5.667
81610SOL     OW46726   3.488   3.678  11.279
81610SOL    HW146727   3.454   3.747  11.335
81610SOL    HW246728   3.553   3.721  11.223
81611SOL     OW46729   7.309  11.708   4.233
81611SOL    HW146730   7.281  11.693   4.143
81611SOL    HW246731   7.398  11.742   4.224
81612SOL     OW46732   6.333   0.222   9.844
81612SOL    HW146733   6.357   0.306   9.805
81612SOL    HW246734   6.380   0.220   9.928
81613SOL     OW46735   6.871   0.895  11.886
81613SOL    HW146736   6.872   0.818  11.942
81613SOL    HW246737   6.801   0.878  11.823
81614SOL     OW46738  13.675   1.992  12.799
81614SOL    HW146739  13.723   2.017  12.720
81614SOL    HW246740  13.662   2.074  12.846
81615SOL     OW46741   7.603   3.077   3.751
81615SOL    HW146742   7.679   3.040   3.706
81615SOL    HW246743   7.573   3.147   3.693
81616SOL     OW46744   9.717   3.733   8.886
81616SOL    HW146745   9.710   3.774   8.973
81616SOL    HW246746   9.628   3.708   8.864
81617SOL     OW46747   6.187   8.688   6.130
81617SOL    HW146748   6.195   8.602   6.089
81617SOL    HW246749   6.273   8.728   6.119
81618SOL     OW46750  11.632   2.104   7.359
81618SOL    HW146751  11.617   2.019   7.318
81618SOL    HW246752  11.722   2.126   7.336
81619SOL     OW46753   8.365  13.841   8.969
81619SOL    HW146754   8.284  13.815   8.924
81619SOL    HW246755   8.412  13.894   8.905
81620SOL     OW46756   7.138   6.450   1.533
81620SOL    HW146757   7.204   6.391   1.498
81620SOL    HW246758   7.187   6.525   1.565
81621SOL     OW46759   6.978   4.873  10.685
81621SOL    HW146760   7.070   4.847  10.683
81621SOL    HW246761   6.933   4.810  10.629
81622SOL     OW46762   3.430   7.288   3.818
81622SOL    HW146763   3.415   7.310   3.726
81622SOL    HW246764   3.445   7.194   3.818
81623SOL     OW46765  14.797  10.369   8.620
81623SOL    HW146766  14.843  10.447   8.589
81623SOL    HW246767  14.719  10.364   8.564
81624SOL     OW46768   1.938  12.234  14.449
81624SOL    HW146769   1.952  12.146  14.412
81624SOL    HW246770   2.020  12.280  14.431
81625SOL     OW46771  11.181   7.894   0.326
81625SOL    HW146772  11.134   7.815   0.300
81625SOL    HW246773  11.193   7.942   0.245
81626SOL     OW46774   0.559   1.584   5.411
81626SOL    HW146775   0.584   1.513   5.470
81626SOL    HW246776   0.548   1.542   5.326
81627SOL     OW46777   4.754   0.677   5.302
81627SOL    HW146778   4.677   0.726   5.329
81627SOL    HW246779   4.735   0.586   5.327
81628SOL     OW46780  10.118   7.283   2.313
81628SOL    HW146781  10.043   7.292   2.254
81628SOL    HW246782  10.130   7.188   2.322
81629SOL     OW46783  13.073   9.056  10.871
81629SOL    HW146784  13.081   9.034  10.778
81629SOL    HW246785  12.982   9.085  10.881
81630SOL     OW46786  11.348  12.114  12.955
81630SOL    HW146787  11.304  12.174  12.894
81630SOL    HW246788  11.439  12.110  12.924
81631SOL     OW46789  12.480  11.302  10.117
81631SOL    HW146790  12.559  11.303  10.062
81631SOL    HW246791  12.433  11.223  10.090
81632SOL     OW46792   5.089  11.656   7.063
81632SOL    HW146793   5.159  11.599   7.094
81632SOL    HW246794   5.018  11.596   7.039
81633SOL     OW46795   4.669   4.155   2.048
81633SOL    HW146796   4.763   4.138   2.047
81633SOL    HW246797   4.662   4.247   2.075
81634SOL     OW46798   4.307   7.001   9.581
81634SOL    HW146799   4.326   6.911   9.607
81634SOL    HW246800   4.361   7.016   9.503
81635SOL     OW46801  12.086   9.960  12.908
81635SOL    HW146802  12.043  10.008  12.978
81635SOL    HW246803  12.046   9.994  12.827
81636SOL     OW46804   3.948  13.511   4.541
81636SOL    HW146805   3.987  13.530   4.455
81636SOL    HW246806   4.017  13.532   4.604
81637SOL     OW46807  13.707   5.799   7.022
81637SOL    HW146808  13.712   5.858   7.097
81637SOL    HW246809  13.701   5.857   6.946
81638SOL     OW46810   9.975  10.220  12.004
81638SOL    HW146811   9.880  10.227  12.013
81638SOL    HW246812   9.999  10.143  12.057
81639SOL     OW46813  11.748   1.695   3.619
81639SOL    HW146814  11.706   1.780   3.604
81639SOL    HW246815  11.794   1.705   3.702
81640SOL     OW46816   0.874   3.432  13.923
81640SOL    HW146817   0.962   3.408  13.897
81640SOL    HW246818   0.843   3.356  13.973
81641SOL     OW46819   7.567  12.388  12.030
81641SOL    HW146820   7.507  12.331  12.077
81641SOL    HW246821   7.642  12.398  12.088
81642SOL     OW46822   7.075  11.282   1.298
81642SOL    HW146823   7.056  11.375   1.283
81642SOL    HW246824   7.001  11.250   1.349
81643SOL     OW46825  10.656   3.138   1.398
81643SOL    HW146826  10.626   3.064   1.450
81643SOL    HW246827  10.578   3.169   1.352
81644SOL     OW46828  13.749   5.934   9.362
81644SOL    HW146829  13.673   5.992   9.360
81644SOL    HW246830  13.808   5.968   9.295
81645SOL     OW46831   7.699  12.017  14.789
81645SOL    HW146832   7.651  11.951  14.841
81645SOL    HW246833   7.717  12.087  14.851
81646SOL     OW46834  11.330   4.799   8.092
81646SOL    HW146835  11.276   4.797   8.013
81646SOL    HW246836  11.413   4.760   8.064
81647SOL     OW46837  13.438   5.019   7.587
81647SOL    HW146838  13.391   4.952   7.538
81647SOL    HW246839  13.528   5.014   7.554
81648SOL     OW46840   5.899   9.836   0.045
81648SOL    HW146841   5.854   9.767   0.094
81648SOL    HW246842   5.877   9.819  14.823
81649SOL     OW46843   6.046   2.514   9.727
81649SOL    HW146844   6.061   2.540   9.636
81649SOL    HW246845   6.038   2.597   9.774
81650SOL     OW46846   1.117   7.295   2.731
81650SOL    HW146847   1.089   7.248   2.810
81650SOL    HW246848   1.208   7.318   2.748
81651SOL     OW46849  14.809   5.565   2.445
81651SOL    HW146850  14.764   5.492   2.489
81651SOL    HW246851   0.028   5.532   2.430
81652SOL     OW46852  14.375   5.046   0.027
81652SOL    HW146853  14.403   5.044  14.805
81652SOL    HW246854  14.346   5.136   0.041
81653SOL     OW46855  12.839   8.576  11.822
81653SOL    HW146856  12.883   8.604  11.902
81653SOL    HW246857  12.822   8.657  11.774
81654SOL     OW46858   5.975   8.738   8.212
81654SOL    HW146859   6.059   8.704   8.242
81654SOL    HW246860   5.921   8.660   8.199
81655SOL     OW46861   5.690  13.767  13.511
81655SOL    HW146862   5.607  13.814  13.521
81655SOL    HW246863   5.740  13.789  13.590
81656SOL     OW46864  12.262  10.221  12.859
81656SOL    HW146865  12.233  10.166  12.787
81656SOL    HW246866  12.193  10.287  12.869
81657SOL     OW46867   5.246   4.854   2.607
81657SOL    HW146868   5.307   4.790   2.570
81657SOL    HW246869   5.260   4.849   2.702
81658SOL     OW46870   7.220  11.893   7.093
81658SOL    HW146871   7.190  11.981   7.070
81658SOL    HW246872   7.156  11.834   7.054
81659SOL     OW46873  11.111   2.250  10.760
81659SOL    HW146874  11.079   2.194  10.689
81659SOL    HW246875  11.126   2.191  10.833
81660SOL     OW46876  12.582   2.585   7.608
81660SOL    HW146877  12.559   2.619   7.694
81660SOL    HW246878  12.529   2.506   7.598
81661SOL     OW46879   6.136  11.698   1.453
81661SOL    HW146880   6.139  11.693   1.358
81661SOL    HW246881   6.202  11.764   1.476
81662SOL     OW46882  11.078  12.145   5.625
81662SOL    HW146883  11.125  12.186   5.553
81662SOL    HW246884  11.014  12.088   5.583
81663SOL     OW46885   0.276  12.482   5.321
81663SOL    HW146886   0.372  12.486   5.325
81663SOL    HW246887   0.247  12.545   5.387
81664SOL     OW46888  14.505   4.579  11.006
81664SOL    HW146889  14.594   4.611  11.023
81664SOL    HW246890  14.462   4.650  10.958
81665SOL     OW46891   0.945   1.173  13.570
81665SOL    HW146892   1.012   1.160  13.637
81665SOL    HW246893   0.994   1.189  13.490
81666SOL     OW46894   9.087   4.280   5.317
81666SOL    HW146895   9.180   4.268   5.297
81666SOL    HW246896   9.081   4.265   5.411
81667SOL     OW46897   0.346   7.030   7.214
81667SOL    HW146898   0.339   7.058   7.305
81667SOL    HW246899   0.273   7.076   7.170
81668SOL     OW46900   0.251   7.046   6.155
81668SOL    HW146901   0.319   7.099   6.114
81668SOL    HW246902   0.215   6.993   6.084
81669SOL     OW46903   4.493   6.407   7.939
81669SOL    HW146904   4.462   6.390   8.027
81669SOL    HW246905   4.589   6.404   7.946
81670SOL     OW46906  12.281  14.650   6.719
81670SOL    HW146907  12.266  14.562   6.686
81670SOL    HW246908  12.373  14.668   6.698
81671SOL     OW46909   6.610   3.230   8.157
81671SOL    HW146910   6.648   3.303   8.205
81671SOL    HW246911   6.627   3.154   8.212
81672SOL     OW46912   6.424   2.320  14.551
81672SOL    HW146913   6.426   2.370  14.632
81672SOL    HW246914   6.444   2.385  14.483
81673SOL     OW46915   1.671  14.122  13.802
81673SOL    HW146916   1.629  14.036  13.794
81673SOL    HW246917   1.703  14.124  13.892
81674SOL     OW46918  14.733   1.051   7.261
81674SOL    HW146919  14.723   1.146   7.272
81674SOL    HW246920  14.688   1.013   7.336
81675SOL     OW46921   3.317   4.045   7.169
81675SOL    HW146922   3.253   4.022   7.102
81675SOL    HW246923   3.375   3.969   7.174
81676SOL     OW46924   7.891   1.057   6.577
81676SOL    HW146925   7.953   1.005   6.527
81676SOL    HW246926   7.923   1.147   6.570
81677SOL     OW46927  11.883   2.279   8.517
81677SOL    HW146928  11.801   2.233   8.535
81677SOL    HW246929  11.934   2.217   8.465
81678SOL     OW46930   9.552   6.198  14.817
81678SOL    HW146931   9.609   6.189  14.740
81678SOL    HW246932   9.519   6.287  14.811
81679SOL     OW46933  12.303  11.143  12.902
81679SOL    HW146934  12.291  11.135  12.807
81679SOL    HW246935  12.340  11.230  12.914
81680SOL     OW46936   4.418  13.740   7.568
81680SOL    HW146937   4.395  13.702   7.652
81680SOL    HW246938   4.431  13.666   7.510
81681SOL     OW46939   2.405   5.057   1.503
81681SOL    HW146940   2.476   5.085   1.445
81681SOL    HW246941   2.359   5.138   1.526
81682SOL     OW46942   2.828   1.772   6.327
81682SOL    HW146943   2.867   1.693   6.364
81682SOL    HW246944   2.826   1.834   6.400
81683SOL     OW46945   2.492  11.403  11.236
81683SOL    HW146946   2.551  11.463  11.191
81683SOL    HW246947   2.532  11.390  11.322
81684SOL     OW46948   9.427   6.415   3.633
81684SOL    HW146949   9.377   6.497   3.634
81684SOL    HW246950   9.367   6.351   3.594
81685SOL     OW46951   9.944   7.276  12.888
81685SOL    HW146952   9.901   7.193  12.867
81685SOL    HW246953   9.998   7.295  12.812
81686SOL     OW46954   0.966   6.306   5.987
81686SOL    HW146955   1.031   6.327   6.055
81686SOL    HW246956   0.939   6.216   6.008
81687SOL     OW46957   8.163  12.826   4.628
81687SOL    HW146958   8.094  12.805   4.565
81687SOL    HW246959   8.118  12.828   4.712
81688SOL     OW46960   5.684   1.003  12.137
81688SOL    HW146961   5.749   0.941  12.102
81688SOL    HW246962   5.620   1.011  12.067
81689SOL     OW46963   3.833   6.889  12.614
81689SOL    HW146964   3.751   6.844  12.592
81689SOL    HW246965   3.884   6.886  12.533
81690SOL     OW46966   5.283   9.213   7.851
81690SOL    HW146967   5.297   9.164   7.769
81690SOL    HW246968   5.337   9.291   7.841
81691SOL     OW46969   6.943   7.710  10.183
81691SOL    HW146970   7.035   7.732  10.169
81691SOL    HW246971   6.942   7.662  10.266
81692SOL     OW46972  14.355   8.311   7.820
81692SOL    HW146973  14.346   8.251   7.894
81692SOL    HW246974  14.296   8.275   7.753
81693SOL     OW46975   4.190   2.265   2.360
81693SOL    HW146976   4.218   2.177   2.338
81693SOL    HW246977   4.192   2.268   2.455
81694SOL     OW46978   7.375   5.751  12.004
81694SOL    HW146979   7.305   5.808  12.036
81694SOL    HW246980   7.336   5.701  11.932
81695SOL     OW46981   1.007  13.922   5.988
81695SOL    HW146982   1.020  13.872   5.907
81695SOL    HW246983   0.949  13.994   5.961
81696SOL     OW46984   1.775   9.535   7.666
81696SOL    HW146985   1.757   9.620   7.707
81696SOL    HW246986   1.865   9.515   7.690
81697SOL     OW46987   7.850   8.728   4.144
81697SOL    HW146988   7.794   8.764   4.214
81697SOL    HW246989   7.911   8.671   4.190
81698SOL     OW46990   8.629   1.553   3.883
81698SOL    HW146991   8.550   1.606   3.890
81698SOL    HW246992   8.603   1.467   3.918
81699SOL     OW46993   6.255   0.817   1.648
81699SOL    HW146994   6.290   0.887   1.704
81699SOL    HW246995   6.228   0.748   1.709
81700SOL     OW46996   7.420   2.319  13.261
81700SOL    HW146997   7.406   2.400  13.309
81700SOL    HW246998   7.425   2.346  13.169
81701SOL     OW46999  10.764   8.386   5.993
81701SOL    HW147000  10.771   8.299   6.033
81701SOL    HW247001  10.810   8.377   5.909
81702SOL     OW47002   1.549   0.747   8.174
81702SOL    HW147003   1.498   0.807   8.120
81702SOL    HW247004   1.507   0.662   8.163
81703SOL     OW47005   4.568   7.093  12.563
81703SOL    HW147006   4.652   7.069  12.526
81703SOL    HW247007   4.572   7.062  12.654
81704SOL     OW47008   7.683   1.806   3.374
81704SOL    HW147009   7.715   1.803   3.464
81704SOL    HW247010   7.757   1.776   3.321
81705SOL     OW47011   8.740   5.719   8.276
81705SOL    HW147012   8.680   5.715   8.350
81705SOL    HW247013   8.759   5.628   8.255
81706SOL     OW47014   4.351   2.598  12.571
81706SOL    HW147015   4.286   2.656  12.530
81706SOL    HW247016   4.351   2.520  12.516
81707SOL     OW47017  11.801  12.416  10.263
81707SOL    HW147018  11.856  12.343  10.234
81707SOL    HW247019  11.861  12.473  10.311
81708SOL     OW47020   0.482   3.343   1.414
81708SOL    HW147021   0.429   3.321   1.491
81708SOL    HW247022   0.428   3.317   1.340
81709SOL     OW47023   6.791  13.941   8.343
81709SOL    HW147024   6.703  13.907   8.355
81709SOL    HW247025   6.824  13.897   8.265
81710SOL     OW47026   3.716   4.630   6.369
81710SOL    HW147027   3.712   4.547   6.322
81710SOL    HW247028   3.636   4.676   6.344
81711SOL     OW47029  10.328  14.375   8.054
81711SOL    HW147030  10.355  14.455   8.009
81711SOL    HW247031  10.401  14.314   8.040
81712SOL     OW47032   5.089   8.436   6.601
81712SOL    HW147033   5.180   8.418   6.578
81712SOL    HW247034   5.088   8.436   6.697
81713SOL     OW47035   4.924   0.486  12.042
81713SOL    HW147036   4.863   0.522  11.977
81713SOL    HW247037   4.956   0.562  12.090
81714SOL     OW47038   8.187   0.453   7.473
81714SOL    HW147039   8.164   0.397   7.548
81714SOL    HW247040   8.283   0.456   7.474
81715SOL     OW47041   9.783   4.443   9.600
81715SOL    HW147042   9.774   4.430   9.505
81715SOL    HW247043   9.876   4.462   9.613
81716SOL     OW47044   4.562   2.821   9.634
81716SOL    HW147045   4.624   2.814   9.561
81716SOL    HW247046   4.580   2.745   9.688
81717SOL     OW47047   7.638   7.275   2.530
81717SOL    HW147048   7.693   7.234   2.464
81717SOL    HW247049   7.699   7.308   2.596
81718SOL     OW47050  12.142   9.363   3.174
81718SOL    HW147051  12.206   9.311   3.126
81718SOL    HW247052  12.057   9.340   3.135
81719SOL     OW47053   4.377  11.399   2.976
81719SOL    HW147054   4.402  11.481   3.019
81719SOL    HW247055   4.321  11.426   2.904
81720SOL     OW47056   2.742   5.134   5.200
81720SOL    HW147057   2.678   5.074   5.162
81720SOL    HW247058   2.697   5.218   5.205
81721SOL     OW47059  13.700  13.943  10.674
81721SOL    HW147060  13.630  13.885  10.704
81721SOL    HW247061  13.673  13.971  10.587
81722SOL     OW47062  10.865   8.294   9.436
81722SOL    HW147063  10.854   8.351   9.512
81722SOL    HW247064  10.890   8.209   9.473
81723SOL     OW47065   5.801   1.502   6.042
81723SOL    HW147066   5.747   1.568   5.997
81723SOL    HW247067   5.887   1.511   6.003
81724SOL     OW47068   7.616  11.620  10.261
81724SOL    HW147069   7.635  11.707  10.226
81724SOL    HW247070   7.596  11.567  10.184
81725SOL     OW47071   7.628   5.506   7.773
81725SOL    HW147072   7.689   5.451   7.822
81725SOL    HW247073   7.619   5.585   7.825
81726SOL     OW47074   9.131   9.615  14.224
81726SOL    HW147075   9.181   9.536  14.202
81726SOL    HW247076   9.040   9.586  14.225
81727SOL     OW47077  12.825   0.040   4.936
81727SOL    HW147078  12.812   0.113   4.997
81727SOL    HW247079  12.893  14.856   4.977
81728SOL     OW47080  11.697  10.888   5.900
81728SOL    HW147081  11.681  10.838   5.819
81728SOL    HW247082  11.620  10.944   5.909
81729SOL     OW47083   0.713   1.033   3.663
81729SOL    HW147084   0.791   1.085   3.679
81729SOL    HW247085   0.704   0.978   3.741
81730SOL     OW47086   7.302   6.035   6.522
81730SOL    HW147087   7.219   6.081   6.511
81730SOL    HW247088   7.349   6.050   6.440
81731SOL     OW47089   7.270   3.348   0.836
81731SOL    HW147090   7.190   3.384   0.797
81731SOL    HW247091   7.272   3.385   0.924
81732SOL     OW47092  12.713   7.591  10.542
81732SOL    HW147093  12.803   7.570  10.516
81732SOL    HW247094  12.708   7.566  10.634
81733SOL     OW47095   7.246   5.277   9.692
81733SOL    HW147096   7.187   5.208   9.722
81733SOL    HW247097   7.307   5.290   9.764
81734SOL     OW47098   4.398   8.968   7.705
81734SOL    HW147099   4.380   8.981   7.799
81734SOL    HW247100   4.311   8.955   7.666
81735SOL     OW47101   9.064   6.355   7.696
81735SOL    HW147102   9.002   6.284   7.714
81735SOL    HW247103   9.040   6.387   7.609
81736SOL     OW47104   0.152   1.783   9.023
81736SOL    HW147105   0.210   1.848   8.985
81736SOL    HW247106   0.125   1.729   8.948
81737SOL     OW47107   0.244  12.544   3.955
81737SOL    HW147108   0.242  12.640   3.949
81737SOL    HW247109   0.159  12.521   3.993
81738SOL     OW47110   1.628   1.531   4.733
81738SOL    HW147111   1.682   1.452   4.725
81738SOL    HW247112   1.677   1.587   4.793
81739SOL     OW47113   9.174   6.277  11.708
81739SOL    HW147114   9.147   6.349  11.651
81739SOL    HW247115   9.267   6.295  11.725
81740SOL     OW47116  14.518  13.255   8.472
81740SOL    HW147117  14.423  13.242   8.478
81740SOL    HW247118  14.555  13.176   8.511
81741SOL     OW47119   6.863   7.131  10.082
81741SOL    HW147120   6.934   7.183  10.120
81741SOL    HW247121   6.896   7.105   9.996
81742SOL     OW47122  10.104   5.855   3.408
81742SOL    HW147123  10.031   5.916   3.414
81742SOL    HW247124  10.116   5.823   3.498
81743SOL     OW47125   2.650  13.977   4.224
81743SOL    HW147126   2.636  13.917   4.150
81743SOL    HW247127   2.715  13.932   4.279
81744SOL     OW47128   7.338   6.118   2.775
81744SOL    HW147129   7.372   6.032   2.801
81744SOL    HW247130   7.311   6.159   2.857
81745SOL     OW47131   7.323   7.542   1.980
81745SOL    HW147132   7.409   7.555   1.940
81745SOL    HW247133   7.296   7.629   2.007
81746SOL     OW47134   3.949   8.909  11.755
81746SOL    HW147135   3.937   8.861  11.673
81746SOL    HW247136   3.888   8.982  11.749
81747SOL     OW47137   9.237   2.278   0.257
81747SOL    HW147138   9.152   2.320   0.270
81747SOL    HW247139   9.253   2.283   0.163
81748SOL     OW47140  13.867   6.736  12.579
81748SOL    HW147141  13.926   6.792  12.630
81748SOL    HW247142  13.889   6.647  12.607
81749SOL     OW47143   6.253  10.996   5.013
81749SOL    HW147144   6.331  11.034   4.972
81749SOL    HW247145   6.252  10.905   4.984
81750SOL     OW47146   3.993  10.514  11.391
81750SOL    HW147147   3.970  10.537  11.301
81750SOL    HW247148   4.043  10.589  11.423
81751SOL     OW47149  10.701  13.149  14.059
81751SOL    HW147150  10.649  13.082  14.015
81751SOL    HW247151  10.703  13.121  14.150
81752SOL     OW47152  10.845  12.559   4.547
81752SOL    HW147153  10.912  12.619   4.515
81752SOL    HW247154  10.807  12.604   4.623
81753SOL     OW47155  12.476  13.920   7.650
81753SOL    HW147156  12.472  13.853   7.718
81753SOL    HW247157  12.388  13.923   7.613
81754SOL     OW47158  14.129   6.514   3.871
81754SOL    HW147159  14.159   6.493   3.782
81754SOL    HW247160  14.059   6.451   3.888
81755SOL     OW47161   2.612  14.355   8.258
81755SOL    HW147162   2.635  14.371   8.167
81755SOL    HW247163   2.600  14.443   8.295
81756SOL     OW47164  10.936  11.537  12.997
81756SOL    HW147165  10.949  11.565  12.907
81756SOL    HW247166  10.883  11.457  12.990
81757SOL     OW47167   8.576   7.204   4.192
81757SOL    HW147168   8.533   7.258   4.125
81757SOL    HW247169   8.641   7.262   4.232
81758SOL     OW47170  13.678  12.987   0.061
81758SOL    HW147171  13.704  13.078   0.073
81758SOL    HW247172  13.646  12.960   0.147
81759SOL     OW47173  10.020   6.705   0.855
81759SOL    HW147174  10.085   6.652   0.901
81759SOL    HW247175   9.979   6.757   0.923
81760SOL     OW47176  13.024   6.498  14.865
81760SOL    HW147177  13.069   6.533   0.072
81760SOL    HW247178  13.021   6.572  14.804
81761SOL     OW47179   2.853  11.597   8.711
81761SOL    HW147180   2.936  11.554   8.733
81761SOL    HW247181   2.786  11.536   8.741
81762SOL     OW47182  11.366  10.538  11.300
81762SOL    HW147183  11.313  10.617  11.292
81762SOL    HW247184  11.446  10.558  11.252
81763SOL     OW47185   7.478   5.493   0.722
81763SOL    HW147186   7.560   5.466   0.682
81763SOL    HW247187   7.503   5.549   0.795
81764SOL     OW47188  12.636  10.487   9.160
81764SOL    HW147189  12.700  10.507   9.092
81764SOL    HW247190  12.640  10.391   9.170
81765SOL     OW47191   6.108  13.549   3.639
81765SOL    HW147192   6.016  13.555   3.664
81765SOL    HW247193   6.107  13.501   3.556
81766SOL     OW47194  12.116   5.324   1.788
81766SOL    HW147195  12.194   5.377   1.801
81766SOL    HW247196  12.123   5.292   1.698
81767SOL     OW47197   5.380   0.999   7.432
81767SOL    HW147198   5.437   0.940   7.481
81767SOL    HW247199   5.422   1.084   7.437
81768SOL     OW47200  14.676   6.590   1.020
81768SOL    HW147201  14.739   6.617   1.087
81768SOL    HW247202  14.613   6.535   1.067
81769SOL     OW47203  10.290   1.126   8.504
81769SOL    HW147204  10.348   1.200   8.523
81769SOL    HW247205  10.202   1.158   8.526
81770SOL     OW47206   3.739  13.409   2.601
81770SOL    HW147207   3.657  13.363   2.582
81770SOL    HW247208   3.795  13.390   2.525
81771SOL     OW47209  12.170   5.004   1.567
81771SOL    HW147210  12.085   5.044   1.548
81771SOL    HW247211  12.222   5.020   1.489
81772SOL     OW47212   4.955  13.282   5.616
81772SOL    HW147213   4.915  13.236   5.542
81772SOL    HW247214   5.011  13.348   5.575
81773SOL     OW47215   1.189   3.439  14.754
81773SOL    HW147216   1.132   3.428  14.678
81773SOL    HW247217   1.134   3.486  14.818
81774SOL     OW47218  11.545   5.844  12.558
81774SOL    HW147219  11.613   5.839  12.626
81774SOL    HW247220  11.580   5.906  12.494
81775SOL     OW47221  11.689   1.875   2.260
81775SOL    HW147222  11.723   1.792   2.294
81775SOL    HW247223  11.765   1.918   2.220
81776SOL     OW47224   9.209  11.313   4.507
81776SOL    HW147225   9.222  11.218   4.513
81776SOL    HW247226   9.268  11.340   4.436
81777SOL     OW47227  10.790  14.850   2.886
81777SOL    HW147228  10.809  14.767   2.930
81777SOL    HW247229  10.709  14.833   2.836
81778SOL     OW47230  12.135   3.429  12.796
81778SOL    HW147231  12.214   3.423  12.850
81778SOL    HW247232  12.149   3.363  12.728
81779SOL     OW47233   4.795   8.580  14.146
81779SOL    HW147234   4.859   8.509  14.152
81779SOL    HW247235   4.836   8.654  14.189
81780SOL     OW47236   4.239   7.565   5.828
81780SOL    HW147237   4.147   7.546   5.814
81780SOL    HW247238   4.239   7.636   5.892
81781SOL     OW47239  13.638   6.469   2.910
81781SOL    HW147240  13.675   6.433   2.829
81781SOL    HW247241  13.681   6.418   2.980
81782SOL     OW47242   3.105   2.314  13.990
81782SOL    HW147243   3.075   2.236  13.944
81782SOL    HW247244   3.056   2.315  14.072
81783SOL     OW47245  11.785   4.639   3.591
81783SOL    HW147246  11.880   4.645   3.604
81783SOL    HW247247  11.766   4.706   3.525
81784SOL     OW47248  14.651  12.717   8.342
81784SOL    HW147249  14.589  12.689   8.275
81784SOL    HW247250  14.676  12.636   8.387
81785SOL     OW47251   1.937   2.858   0.884
81785SOL    HW147252   1.882   2.919   0.835
81785SOL    HW247253   1.933   2.776   0.834
81786SOL     OW47254   8.921   4.189   9.038
81786SOL    HW147255   9.016   4.195   9.037
81786SOL    HW247256   8.893   4.234   8.958
81787SOL     OW47257  10.763   1.738  12.769
81787SOL    HW147258  10.670   1.720  12.751
81787SOL    HW247259  10.767   1.751  12.863
81788SOL     OW47260   8.217   8.545   8.548
81788SOL    HW147261   8.250   8.464   8.510
81788SOL    HW247262   8.290   8.581   8.597
81789SOL     OW47263  10.205  13.029   4.941
81789SOL    HW147264  10.271  13.038   4.871
81789SOL    HW247265  10.247  12.972   5.005
81790SOL     OW47266  14.141   8.357  11.021
81790SOL    HW147267  14.160   8.448  10.995
81790SOL    HW247268  14.224   8.311  11.010
81791SOL     OW47269   8.692   9.490   3.293
81791SOL    HW147270   8.672   9.422   3.228
81791SOL    HW247271   8.615   9.546   3.294
81792SOL     OW47272   5.209   2.660   8.146
81792SOL    HW147273   5.197   2.575   8.102
81792SOL    HW247274   5.162   2.722   8.091
81793SOL     OW47275   0.696   2.486   9.035
81793SOL    HW147276   0.706   2.504   8.941
81793SOL    HW247277   0.613   2.439   9.041
81794SOL     OW47278  12.029  13.264   8.162
81794SOL    HW147279  12.083  13.333   8.200
81794SOL    HW247280  11.963  13.246   8.229
81795SOL     OW47281   9.152   8.702   3.801
81795SOL    HW147282   9.121   8.679   3.888
81795SOL    HW247283   9.078   8.747   3.760
81796SOL     OW47284   0.215   6.452   2.514
81796SOL    HW147285   0.282   6.430   2.578
81796SOL    HW247286   0.257   6.515   2.455
81797SOL     OW47287  10.196  12.503   2.578
81797SOL    HW147288  10.271  12.469   2.626
81797SOL    HW247289  10.231  12.579   2.531
81798SOL     OW47290  14.551   2.101   6.336
81798SOL    HW147291  14.532   2.096   6.242
81798SOL    HW247292  14.610   2.176   6.344
81799SOL     OW47293  11.717   8.925   3.999
81799SOL    HW147294  11.725   8.965   3.912
81799SOL    HW247295  11.672   8.990   4.052
81800SOL     OW47296   5.138   2.242  14.843
81800SOL    HW147297   5.121   2.157   0.014
81800SOL    HW247298   5.233   2.251  14.843
81801SOL     OW47299   3.282   8.824   0.365
81801SOL    HW147300   3.357   8.791   0.415
81801SOL    HW247301   3.320   8.858   0.285
81802SOL     OW47302   8.750  14.268  14.291
81802SOL    HW147303   8.677  14.238  14.237
81802SOL    HW247304   8.812  14.195  14.290
81803SOL     OW47305   6.756   3.760   0.218
81803SOL    HW147306   6.679   3.816   0.212
81803SOL    HW247307   6.825   3.809   0.174
81804SOL     OW47308   4.591   6.177   9.576
81804SOL    HW147309   4.580   6.156   9.669
81804SOL    HW247310   4.503   6.196   9.545
81805SOL     OW47311   2.408  11.033  13.615
81805SOL    HW147312   2.477  10.985  13.661
81805SOL    HW247313   2.346  11.058  13.683
81806SOL     OW47314   1.595   6.585  10.682
81806SOL    HW147315   1.639   6.500  10.675
81806SOL    HW247316   1.664   6.649  10.666
81807SOL     OW47317   2.373   8.924   1.483
81807SOL    HW147318   2.358   9.012   1.449
81807SOL    HW247319   2.377   8.935   1.578
81808SOL     OW47320  11.991   6.806  11.044
81808SOL    HW147321  12.079   6.775  11.065
81808SOL    HW247322  11.953   6.738  10.988
81809SOL     OW47323  11.977  10.160   6.015
81809SOL    HW147324  12.015  10.082   6.055
81809SOL    HW247325  11.903  10.127   5.964
81810SOL     OW47326   5.151   0.367   2.841
81810SOL    HW147327   5.102   0.317   2.775
81810SOL    HW247328   5.103   0.449   2.849
81811SOL     OW47329  11.280   0.142  14.073
81811SOL    HW147330  11.195   0.152  14.116
81811SOL    HW247331  11.259   0.104  13.988
81812SOL     OW47332   8.857   5.961  11.494
81812SOL    HW147333   8.894   5.940  11.408
81812SOL    HW247334   8.922   6.019  11.535
81813SOL     OW47335  11.876   1.618   2.951
81813SOL    HW147336  11.942   1.572   2.898
81813SOL    HW247337  11.797   1.616   2.897
81814SOL     OW47338   1.366  14.286   5.506
81814SOL    HW147339   1.296  14.340   5.469
81814SOL    HW247340   1.440  14.300   5.447
81815SOL     OW47341   0.472  12.965   0.751
81815SOL    HW147342   0.559  13.004   0.757
81815SOL    HW247343   0.479  12.883   0.800
81816SOL     OW47344  14.084   7.701   0.118
81816SOL    HW147345  14.029   7.767   0.074
81816SOL    HW247346  14.051   7.699   0.207
81817SOL     OW47347   9.852   8.142   3.145
81817SOL    HW147348   9.878   8.063   3.097
81817SOL    HW247349   9.884   8.127   3.234
81818SOL     OW47350   5.817  12.407   9.995
81818SOL    HW147351   5.883  12.337   9.991
81818SOL    HW247352   5.735  12.361  10.017
81819SOL     OW47353   3.020  14.225  12.616
81819SOL    HW147354   2.947  14.165  12.598
81819SOL    HW247355   3.068  14.228  12.533
81820SOL     OW47356   6.622  12.728   3.605
81820SOL    HW147357   6.642  12.764   3.519
81820SOL    HW247358   6.583  12.800   3.654
81821SOL     OW47359   2.220   9.471  14.076
81821SOL    HW147360   2.235   9.401  14.012
81821SOL    HW247361   2.138   9.448  14.118
81822SOL     OW47362  14.853   2.874  13.446
81822SOL    HW147363   0.074   2.844  13.455
81822SOL    HW247364  14.815   2.814  13.383
81823SOL     OW47365  13.511  14.381   2.579
81823SOL    HW147366  13.584  14.333   2.620
81823SOL    HW247367  13.470  14.428   2.651
81824SOL     OW47368   7.030  11.936  13.231
81824SOL    HW147369   7.033  11.927  13.136
81824SOL    HW247370   7.116  11.905  13.261
81825SOL     OW47371  10.938  11.845   9.799
81825SOL    HW147372  10.996  11.798   9.739
81825SOL    HW247373  10.992  11.916   9.834
81826SOL     OW47374   2.126   7.066   5.218
81826SOL    HW147375   2.122   6.976   5.250
81826SOL    HW247376   2.085   7.063   5.131
81827SOL     OW47377   2.526   8.667  13.736
81827SOL    HW147378   2.520   8.728  13.810
81827SOL    HW247379   2.514   8.581  13.775
81828SOL     OW47380   3.318  11.305  13.706
81828SOL    HW147381   3.385  11.370  13.729
81828SOL    HW247382   3.353  11.222  13.739
81829SOL     OW47383  11.081  13.494   5.778
81829SOL    HW147384  11.006  13.490   5.838
81829SOL    HW247385  11.146  13.548   5.824
81830SOL     OW47386   8.438   7.109   2.130
81830SOL    HW147387   8.347   7.093   2.106
81830SOL    HW247388   8.451   7.057   2.209
81831SOL     OW47389   2.180  12.847   0.260
81831SOL    HW147390   2.197  12.834   0.353
81831SOL    HW247391   2.266  12.870   0.224
81832SOL     OW47392   7.136   4.295  12.147
81832SOL    HW147393   7.135   4.364  12.213
81832SOL    HW247394   7.044   4.283  12.124
81833SOL     OW47395   2.561   2.615   3.072
81833SOL    HW147396   2.622   2.548   3.042
81833SOL    HW247397   2.497   2.567   3.125
81834SOL     OW47398   9.784   8.787   1.812
81834SOL    HW147399   9.740   8.852   1.868
81834SOL    HW247400   9.845   8.743   1.871
81835SOL     OW47401  10.537   3.420   9.919
81835SOL    HW147402  10.563   3.427  10.011
81835SOL    HW247403  10.484   3.499   9.904
81836SOL     OW47404  13.833   3.024  13.892
81836SOL    HW147405  13.886   3.022  13.972
81836SOL    HW247406  13.812   2.933  13.875
81837SOL     OW47407  10.444   8.548   0.006
81837SOL    HW147408  10.352   8.537  14.850
81837SOL    HW247409  10.446   8.520   0.098
81838SOL     OW47410  14.080   3.191   1.435
81838SOL    HW147411  14.123   3.274   1.454
81838SOL    HW247412  14.021   3.209   1.363
81839SOL     OW47413  11.616   7.204  13.397
81839SOL    HW147414  11.533   7.208  13.350
81839SOL    HW247415  11.673   7.152  13.341
81840SOL     OW47416   8.471  11.110  12.583
81840SOL    HW147417   8.456  11.192  12.536
81840SOL    HW247418   8.521  11.135  12.660
81841SOL     OW47419  12.237   6.514   1.656
81841SOL    HW147420  12.167   6.551   1.602
81841SOL    HW247421  12.272   6.588   1.705
81842SOL     OW47422  13.458   9.366   6.966
81842SOL    HW147423  13.491   9.344   7.053
81842SOL    HW247424  13.502   9.305   6.907
81843SOL     OW47425   3.820   9.052   7.207
81843SOL    HW147426   3.756   9.112   7.246
81843SOL    HW247427   3.901   9.102   7.203
81844SOL     OW47428   6.711   1.550   0.451
81844SOL    HW147429   6.625   1.593   0.455
81844SOL    HW247430   6.774   1.622   0.451
81845SOL     OW47431  11.898  11.513   4.089
81845SOL    HW147432  11.848  11.457   4.148
81845SOL    HW247433  11.904  11.597   4.135
81846SOL     OW47434   2.688  12.727  11.051
81846SOL    HW147435   2.644  12.675  10.985
81846SOL    HW247436   2.650  12.698  11.134
81847SOL     OW47437   5.194   2.703  12.211
81847SOL    HW147438   5.246   2.778  12.241
81847SOL    HW247439   5.243   2.667  12.138
81848SOL     OW47440   3.422  14.354   3.741
81848SOL    HW147441   3.374  14.291   3.687
81848SOL    HW247442   3.511  14.353   3.705
81849SOL     OW47443   6.583   6.789   2.790
81849SOL    HW147444   6.584   6.880   2.822
81849SOL    HW247445   6.659   6.748   2.832
81850SOL     OW47446  11.226  12.236   8.200
81850SOL    HW147447  11.285  12.303   8.165
81850SOL    HW247448  11.256  12.155   8.159
81851SOL     OW47449   1.534  10.851  11.757
81851SOL    HW147450   1.452  10.847  11.806
81851SOL    HW247451   1.602  10.834  11.822
81852SOL     OW47452   6.260   5.417   3.248
81852SOL    HW147453   6.304   5.333   3.262
81852SOL    HW247454   6.169   5.393   3.232
81853SOL     OW47455   4.122  12.121  12.421
81853SOL    HW147456   4.175  12.169  12.485
81853SOL    HW247457   4.077  12.054  12.472
81854SOL     OW47458   5.641   6.636  13.398
81854SOL    HW147459   5.664   6.655  13.307
81854SOL    HW247460   5.640   6.540  13.402
81855SOL     OW47461  12.119   2.055   3.112
81855SOL    HW147462  12.086   1.983   3.165
81855SOL    HW247463  12.162   2.013   3.038
81856SOL     OW47464   9.288   1.764   3.998
81856SOL    HW147465   9.352   1.694   4.012
81856SOL    HW247466   9.271   1.762   3.903
81857SOL     OW47467  11.959   5.542  13.553
81857SOL    HW147468  11.879   5.498  13.524
81857SOL    HW247469  12.027   5.474  13.547
81858SOL     OW47470   8.503  14.005   7.656
81858SOL    HW147471   8.590  14.026   7.623
81858SOL    HW247472   8.452  14.084   7.641
81859SOL     OW47473  11.939   5.094   7.432
81859SOL    HW147474  11.978   5.153   7.496
81859SOL    HW247475  11.885   5.150   7.377
81860SOL     OW47476  12.678   2.613   6.032
81860SOL    HW147477  12.742   2.548   6.002
81860SOL    HW247478  12.626   2.633   5.954
81861SOL     OW47479  13.556   9.160   2.627
81861SOL    HW147480  13.560   9.123   2.715
81861SOL    HW247481  13.493   9.105   2.581
81862SOL     OW47482   9.591   2.465   7.753
81862SOL    HW147483   9.653   2.537   7.742
81862SOL    HW247484   9.513   2.506   7.791
81863SOL     OW47485   3.547   7.712  12.096
81863SOL    HW147486   3.629   7.697  12.048
81863SOL    HW247487   3.534   7.806  12.092
81864SOL     OW47488   3.563   2.711   4.689
81864SOL    HW147489   3.503   2.786   4.690
81864SOL    HW247490   3.598   2.710   4.599
81865SOL     OW47491   1.586   5.976  11.280
81865SOL    HW147492   1.581   6.054  11.335
81865SOL    HW247493   1.606   5.905  11.341
81866SOL     OW47494  11.502  12.979  13.392
81866SOL    HW147495  11.574  13.034  13.363
81866SOL    HW247496  11.469  13.022  13.470
81867SOL     OW47497  12.384   4.096   3.624
81867SOL    HW147498  12.391   4.187   3.597
81867SOL    HW247499  12.367   4.100   3.718
81868SOL     OW47500  11.090   7.556   0.852
81868SOL    HW147501  11.161   7.553   0.916
81868SOL    HW247502  11.071   7.649   0.843
81869SOL     OW47503  12.030  11.002   5.722
81869SOL    HW147504  11.982  10.991   5.804
81869SOL    HW247505  11.963  10.992   5.654
81870SOL     OW47506  10.867   1.192   8.687
81870SOL    HW147507  10.920   1.272   8.683
81870SOL    HW247508  10.836   1.179   8.597
81871SOL     OW47509   8.223   3.410   3.617
81871SOL    HW147510   8.178   3.484   3.576
81871SOL    HW247511   8.171   3.388   3.694
81872SOL     OW47512   5.314  12.062   6.289
81872SOL    HW147513   5.295  12.025   6.203
81872SOL    HW247514   5.247  12.129   6.302
81873SOL     OW47515   4.034  14.311   5.061
81873SOL    HW147516   3.973  14.375   5.025
81873SOL    HW247517   4.115  14.360   5.073
81874SOL     OW47518   4.679  14.001   1.485
81874SOL    HW147519   4.678  14.066   1.414
81874SOL    HW247520   4.671  14.054   1.565
81875SOL     OW47521   0.715   3.502   2.740
81875SOL    HW147522   0.750   3.584   2.704
81875SOL    HW247523   0.658   3.469   2.671
81876SOL     OW47524   1.539   0.091   6.703
81876SOL    HW147525   1.613   0.090   6.643
81876SOL    HW247526   1.484   0.018   6.676
81877SOL     OW47527   8.024   0.336  11.474
81877SOL    HW147528   8.030   0.417  11.424
81877SOL    HW247529   8.107   0.291  11.457
81878SOL     OW47530   4.603   4.313   0.472
81878SOL    HW147531   4.610   4.283   0.563
81878SOL    HW247532   4.686   4.359   0.457
81879SOL     OW47533   7.708  12.996   4.064
81879SOL    HW147534   7.800  12.975   4.044
81879SOL    HW247535   7.667  13.006   3.978
81880SOL     OW47536   9.573   2.561   6.860
81880SOL    HW147537   9.542   2.630   6.919
81880SOL    HW247538   9.620   2.608   6.791
81881SOL     OW47539  10.886   1.387  12.170
81881SOL    HW147540  10.932   1.401  12.087
81881SOL    HW247541  10.803   1.435  12.160
81882SOL     OW47542  10.228  11.384   4.994
81882SOL    HW147543  10.258  11.398   5.084
81882SOL    HW247544  10.220  11.289   4.986
81883SOL     OW47545   4.219   3.406   2.167
81883SOL    HW147546   4.150   3.472   2.159
81883SOL    HW247547   4.244   3.409   2.260
81884SOL     OW47548  12.233   8.495  12.438
81884SOL    HW147549  12.225   8.472  12.530
81884SOL    HW247550  12.145   8.518  12.411
81885SOL     OW47551   3.959   7.551   0.540
81885SOL    HW147552   3.904   7.529   0.615
81885SOL    HW247553   3.910   7.518   0.464
81886SOL     OW47554   5.297   7.062  14.843
81886SOL    HW147555   5.228   7.123  14.869
81886SOL    HW247556   5.336   7.032   0.055
81887SOL     OW47557   3.938   3.157  11.225
81887SOL    HW147558   3.970   3.199  11.304
81887SOL    HW247559   3.939   3.063  11.245
81888SOL     OW47560   8.097  12.126   9.275
81888SOL    HW147561   8.115  12.034   9.254
81888SOL    HW247562   8.169  12.152   9.331
81889SOL     OW47563   5.027   0.594   1.437
81889SOL    HW147564   5.104   0.617   1.385
81889SOL    HW247565   4.992   0.516   1.394
81890SOL     OW47566   2.571   3.875   9.055
81890SOL    HW147567   2.636   3.846   8.991
81890SOL    HW247568   2.622   3.894   9.134
81891SOL     OW47569   9.727   2.707   4.678
81891SOL    HW147570   9.746   2.771   4.747
81891SOL    HW247571   9.685   2.758   4.609
81892SOL     OW47572   9.734  14.779   1.117
81892SOL    HW147573   9.646  14.804   1.143
81892SOL    HW247574   9.745  14.690   1.151
81893SOL     OW47575  14.652   0.899  13.368
81893SOL    HW147576  14.664   0.905  13.273
81893SOL    HW247577  14.732   0.935  13.406
81894SOL     OW47578  13.420   5.819  13.019
81894SOL    HW147579  13.327   5.842  13.016
81894SOL    HW247580  13.425   5.749  13.084
81895SOL     OW47581   9.317  14.218   4.987
81895SOL    HW147582   9.323  14.306   5.024
81895SOL    HW247583   9.393  14.210   4.930
81896SOL     OW47584  12.647  10.049   9.894
81896SOL    HW147585  12.716  10.077   9.955
81896SOL    HW247586  12.694  10.019   9.817
81897SOL     OW47587   5.143   6.689  14.124
81897SOL    HW147588   5.133   6.737  14.207
81897SOL    HW247589   5.053   6.675  14.094
81898SOL     OW47590   1.552   3.206   6.633
81898SOL    HW147591   1.466   3.190   6.673
81898SOL    HW247592   1.600   3.258   6.698
81899SOL     OW47593   7.636   1.164   4.439
81899SOL    HW147594   7.701   1.137   4.374
81899SOL    HW247595   7.572   1.093   4.440
81900SOL     OW47596   1.559   6.261   9.174
81900SOL    HW147597   1.647   6.298   9.166
81900SOL    HW247598   1.532   6.243   9.083
81901SOL     OW47599   7.252   0.175   3.221
81901SOL    HW147600   7.330   0.228   3.203
81901SOL    HW247601   7.282   0.085   3.211
81902SOL     OW47602   1.596   6.263  14.813
81902SOL    HW147603   1.653   6.226  14.746
81902SOL    HW247604   1.588   6.355  14.790
81903SOL     OW47605  14.500   2.637  14.525
81903SOL    HW147606  14.513   2.564  14.464
81903SOL    HW247607  14.586   2.678  14.533
81904SOL     OW47608  14.410  13.897   3.826
81904SOL    HW147609  14.394  13.803   3.830
81904SOL    HW247610  14.331  13.936   3.864
81905SOL     OW47611  10.854   4.490  13.255
81905SOL    HW147612  10.931   4.478  13.311
81905SOL    HW247613  10.799   4.551  13.304
81906SOL     OW47614   9.315  14.046  12.410
81906SOL    HW147615   9.369  14.003  12.475
81906SOL    HW247616   9.264  14.111  12.459
81907SOL     OW47617  12.861   6.502  13.032
81907SOL    HW147618  12.837   6.464  12.948
81907SOL    HW247619  12.811   6.452  13.096
81908SOL     OW47620  11.787  13.897   1.120
81908SOL    HW147621  11.708  13.843   1.130
81908SOL    HW247622  11.779  13.964   1.187
81909SOL     OW47623   8.785  13.323  12.947
81909SOL    HW147624   8.820  13.257  12.888
81909SOL    HW247625   8.776  13.277  13.031
81910SOL     OW47626   5.164   4.049  13.613
81910SOL    HW147627   5.120   3.964  13.620
81910SOL    HW247628   5.122   4.091  13.538
81911SOL     OW47629   5.704  14.589   1.662
81911SOL    HW147630   5.745  14.673   1.640
81911SOL    HW247631   5.703  14.588   1.758
81912SOL     OW47632  13.287  13.858  10.018
81912SOL    HW147633  13.288  13.951   9.995
81912SOL    HW247634  13.196  13.831  10.008
81913SOL     OW47635   5.135   2.356   3.695
81913SOL    HW147636   5.164   2.363   3.786
81913SOL    HW247637   5.083   2.277   3.691
81914SOL     OW47638   8.698   3.200  11.984
81914SOL    HW147639   8.710   3.224  11.893
81914SOL    HW247640   8.745   3.266  12.034
81915SOL     OW47641   4.508   3.643  12.748
81915SOL    HW147642   4.591   3.601  12.770
81915SOL    HW247643   4.478   3.681  12.830
81916SOL     OW47644  12.668   7.070   9.448
81916SOL    HW147645  12.761   7.063   9.430
81916SOL    HW247646  12.629   6.993   9.406
81917SOL     OW47647   5.814   0.655  10.427
81917SOL    HW147648   5.804   0.562  10.409
81917SOL    HW247649   5.725   0.691  10.421
81918SOL     OW47650   5.019   0.993  13.552
81918SOL    HW147651   5.058   0.907  13.562
81918SOL    HW247652   4.933   0.977  13.513
81919SOL     OW47653  14.640   2.524   0.605
81919SOL    HW147654  14.642   2.539   0.700
81919SOL    HW247655  14.715   2.466   0.589
81920SOL     OW47656   0.100   4.213   3.614
81920SOL    HW147657   0.128   4.124   3.635
81920SOL    HW247658   0.133   4.266   3.687
81921SOL     OW47659   6.786   7.448  11.544
81921SOL    HW147660   6.850   7.430  11.613
81921SOL    HW247661   6.727   7.373  11.547
81922SOL     OW47662   7.968   0.416   4.398
81922SOL    HW147663   8.055   0.380   4.379
81922SOL    HW247664   7.947   0.469   4.321
81923SOL     OW47665   4.259   3.586  11.107
81923SOL    HW147666   4.213   3.668  11.090
81923SOL    HW247667   4.194   3.531  11.151
81924SOL     OW47668  13.318  12.074  13.041
81924SOL    HW147669  13.321  12.016  13.116
81924SOL    HW247670  13.348  12.159  13.074
81925SOL     OW47671   0.430   8.215   8.923
81925SOL    HW147672   0.428   8.254   9.010
81925SOL    HW247673   0.422   8.121   8.938
81926SOL     OW47674   4.261   4.476   8.324
81926SOL    HW147675   4.355   4.494   8.326
81926SOL    HW247676   4.240   4.475   8.230
81927SOL     OW47677  13.636   4.671  12.601
81927SOL    HW147678  13.651   4.764  12.583
81927SOL    HW247679  13.560   4.648  12.548
81928SOL     OW47680   7.385   1.181   0.085
81928SOL    HW147681   7.379   1.093   0.121
81928SOL    HW247682   7.313   1.229   0.128
81929SOL     OW47683   0.349  10.974   7.614
81929SOL    HW147684   0.405  10.944   7.543
81929SOL    HW247685   0.345  10.900   7.674
81930SOL     OW47686   7.548  14.044  10.088
81930SOL    HW147687   7.574  14.071  10.000
81930SOL    HW247688   7.568  14.119  10.144
81931SOL     OW47689   6.929  10.369   3.446
81931SOL    HW147690   6.926  10.453   3.493
81931SOL    HW247691   6.839  10.354   3.418
81932SOL     OW47692   6.436   2.710   0.057
81932SOL    HW147693   6.439   2.777  14.858
81932SOL    HW247694   6.492   2.746   0.127
81933SOL     OW47695   6.866  11.372   6.236
81933SOL    HW147696   6.853  11.302   6.173
81933SOL    HW247697   6.922  11.435   6.191
81934SOL     OW47698   4.213  12.928  13.620
81934SOL    HW147699   4.164  12.930  13.538
81934SOL    HW247700   4.289  12.874  13.602
81935SOL     OW47701   2.366  12.891   7.814
81935SOL    HW147702   2.307  12.966   7.808
81935SOL    HW247703   2.422  12.898   7.737
81936SOL     OW47704  13.904  14.618   6.884
81936SOL    HW147705  13.865  14.593   6.801
81936SOL    HW247706  13.955  14.541   6.911
81937SOL     OW47707   7.870  11.122  10.513
81937SOL    HW147708   7.803  11.063  10.477
81937SOL    HW247709   7.951  11.096  10.468
81938SOL     OW47710   3.672   8.386   1.893
81938SOL    HW147711   3.742   8.451   1.897
81938SOL    HW247712   3.595   8.431   1.928
81939SOL     OW47713   4.845  12.329  11.813
81939SOL    HW147714   4.778  12.328  11.882
81939SOL    HW247715   4.922  12.291  11.854
81940SOL     OW47716   4.965   5.929  13.288
81940SOL    HW147717   4.914   6.006  13.312
81940SOL    HW247718   4.977   5.882  13.371
81941SOL     OW47719   2.100  11.393   5.202
81941SOL    HW147720   2.016  11.406   5.159
81941SOL    HW247721   2.092  11.308   5.245
81942SOL     OW47722   4.698   2.950  13.085
81942SOL    HW147723   4.700   2.918  12.994
81942SOL    HW247724   4.612   2.990  13.094
81943SOL     OW47725   1.722   1.834   0.649
81943SOL    HW147726   1.647   1.811   0.594
81943SOL    HW247727   1.796   1.789   0.609
81944SOL     OW47728   3.623   6.529   8.221
81944SOL    HW147729   3.550   6.531   8.282
81944SOL    HW247730   3.657   6.618   8.221
81945SOL     OW47731  11.644   1.036  13.963
81945SOL    HW147732  11.624   1.022  13.871
81945SOL    HW247733  11.565   1.008  14.009
81946SOL     OW47734   0.106   5.792   3.908
81946SOL    HW147735   0.183   5.796   3.965
81946SOL    HW247736   0.096   5.700   3.887
81947SOL     OW47737  12.615  12.007   9.698
81947SOL    HW147738  12.684  11.989   9.634
81947SOL    HW247739  12.575  12.089   9.669
81948SOL     OW47740   2.273   0.835   9.773
81948SOL    HW147741   2.332   0.781   9.825
81948SOL    HW247742   2.253   0.910   9.829
81949SOL     OW47743  10.564   5.746  10.958
81949SOL    HW147744  10.524   5.807  10.895
81949SOL    HW247745  10.528   5.773  11.043
81950SOL     OW47746   6.569   7.248  12.363
81950SOL    HW147747   6.563   7.251  12.459
81950SOL    HW247748   6.480   7.234  12.334
81951SOL     OW47749  13.679   7.763   9.704
81951SOL    HW147750  13.696   7.796   9.616
81951SOL    HW247751  13.672   7.841   9.759
81952SOL     OW47752   0.577  12.719   7.999
81952SOL    HW147753   0.521  12.642   8.001
81952SOL    HW247754   0.530  12.784   8.050
81953SOL     OW47755   3.778  12.892  12.963
81953SOL    HW147756   3.791  12.803  12.929
81953SOL    HW247757   3.692  12.889  13.005
81954SOL     OW47758   5.897  14.406   0.098
81954SOL    HW147759   5.823  14.445   0.143
81954SOL    HW247760   5.962  14.476   0.093
81955SOL     OW47761  12.388   8.319  10.256
81955SOL    HW147762  12.441   8.269  10.319
81955SOL    HW247763  12.441   8.323  10.177
81956SOL     OW47764   9.637   0.311   0.855
81956SOL    HW147765   9.642   0.232   0.909
81956SOL    HW247766   9.543   0.328   0.847
81957SOL     OW47767  13.267   5.576   4.011
81957SOL    HW147768  13.214   5.628   4.072
81957SOL    HW247769  13.248   5.614   3.925
81958SOL     OW47770   3.874   4.081   1.160
81958SOL    HW147771   3.808   4.148   1.142
81958SOL    HW247772   3.875   4.075   1.256
81959SOL     OW47773  12.633   8.664   9.413
81959SOL    HW147774  12.707   8.642   9.357
81959SOL    HW247775  12.672   8.687   9.497
81960SOL     OW47776   8.893   5.451  13.550
81960SOL    HW147777   8.838   5.488  13.618
81960SOL    HW247778   8.842   5.380  13.512
81961SOL     OW47779   2.511   5.663   8.243
81961SOL    HW147780   2.527   5.570   8.231
81961SOL    HW247781   2.592   5.705   8.216
81962SOL     OW47782   4.661   9.293   2.952
81962SOL    HW147783   4.585   9.290   2.894
81962SOL    HW247784   4.642   9.228   3.020
81963SOL     OW47785  13.056  12.655   2.182
81963SOL    HW147786  13.148  12.629   2.173
81963SOL    HW247787  13.019  12.592   2.243
81964SOL     OW47788  10.241   7.866   4.335
81964SOL    HW147789  10.221   7.826   4.420
81964SOL    HW247790  10.215   7.800   4.271
81965SOL     OW47791   2.982  11.813  10.029
81965SOL    HW147792   3.034  11.768  10.096
81965SOL    HW247793   3.003  11.905  10.041
81966SOL     OW47794  14.572   0.546   9.045
81966SOL    HW147795  14.523   0.509   8.972
81966SOL    HW247796  14.543   0.637   9.050
81967SOL     OW47797   1.092   0.284  12.366
81967SOL    HW147798   1.019   0.262  12.423
81967SOL    HW247799   1.052   0.304  12.281
81968SOL     OW47800   1.916  14.626   5.470
81968SOL    HW147801   1.897  14.719   5.482
81968SOL    HW247802   2.001  14.613   5.512
81969SOL     OW47803   2.928  11.298   9.580
81969SOL    HW147804   2.887  11.216   9.551
81969SOL    HW247805   2.891  11.314   9.667
81970SOL     OW47806   1.619   6.228  11.470
81970SOL    HW147807   1.714   6.235  11.461
81970SOL    HW247808   1.588   6.319  11.465
81971SOL     OW47809   1.115   7.514   6.153
81971SOL    HW147810   1.125   7.423   6.180
81971SOL    HW247811   1.098   7.561   6.235
81972SOL     OW47812   9.356  10.652  12.053
81972SOL    HW147813   9.415  10.696  12.115
81972SOL    HW247814   9.273  10.700  12.061
81973SOL     OW47815   9.113   7.759   4.874
81973SOL    HW147816   9.187   7.723   4.825
81973SOL    HW247817   9.041   7.762   4.811
81974SOL     OW47818  10.241   6.477   0.449
81974SOL    HW147819  10.325   6.511   0.420
81974SOL    HW247820  10.237   6.500   0.542
81975SOL     OW47821  14.337   4.703  10.796
81975SOL    HW147822  14.281   4.655  10.736
81975SOL    HW247823  14.423   4.704  10.754
81976SOL     OW47824  13.711  12.588   6.225
81976SOL    HW147825  13.702  12.565   6.317
81976SOL    HW247826  13.669  12.674   6.218
81977SOL     OW47827  10.601   6.985   6.373
81977SOL    HW147828  10.663   6.980   6.445
81977SOL    HW247829  10.515   6.973   6.415
81978SOL     OW47830  12.723  10.232   1.581
81978SOL    HW147831  12.742  10.256   1.672
81978SOL    HW247832  12.645  10.177   1.587
81979SOL     OW47833   3.074   4.002  14.835
81979SOL    HW147834   3.068   4.097  14.827
81979SOL    HW247835   2.984   3.971  14.823
81980SOL     OW47836  13.417   1.541   5.409
81980SOL    HW147837  13.430   1.456   5.368
81980SOL    HW247838  13.342   1.579   5.363
81981SOL     OW47839   1.941  11.971   9.460
81981SOL    HW147840   1.846  11.974   9.447
81981SOL    HW247841   1.955  12.006   9.548
81982SOL     OW47842   9.336  12.931   9.369
81982SOL    HW147843   9.346  12.837   9.387
81982SOL    HW247844   9.401  12.949   9.301
81983SOL     OW47845  10.634   7.080   4.784
81983SOL    HW147846  10.688   7.100   4.707
81983SOL    HW247847  10.686   7.017   4.833
81984SOL     OW47848  13.219   2.976   3.098
81984SOL    HW147849  13.139   2.986   3.047
81984SOL    HW247850  13.289   3.006   3.040
81985SOL     OW47851  10.989   2.949   6.638
81985SOL    HW147852  10.973   2.890   6.712
81985SOL    HW247853  10.980   3.037   6.675
81986SOL     OW47854   6.789   3.054   1.949
81986SOL    HW147855   6.734   3.081   1.875
81986SOL    HW247856   6.877   3.045   1.912
81987SOL     OW47857  11.728   5.991   1.392
81987SOL    HW147858  11.782   6.067   1.414
81987SOL    HW247859  11.713   5.947   1.476
81988SOL     OW47860   5.987   9.147   6.546
81988SOL    HW147861   6.017   9.190   6.626
81988SOL    HW247862   5.896   9.124   6.564
81989SOL     OW47863  13.468  13.814   8.721
81989SOL    HW147864  13.373  13.821   8.725
81989SOL    HW247865  13.495  13.886   8.663
81990SOL     OW47866   6.085   7.673  14.487
81990SOL    HW147867   6.110   7.581  14.492
81990SOL    HW247868   6.068   7.698  14.578
81991SOL     OW47869   1.951   2.700  11.128
81991SOL    HW147870   1.916   2.767  11.070
81991SOL    HW247871   2.016   2.654  11.074
81992SOL     OW47872  13.602   0.762  13.750
81992SOL    HW147873  13.537   0.827  13.724
81992SOL    HW247874  13.604   0.700  13.677
81993SOL     OW47875   7.625  14.508  14.520
81993SOL    HW147876   7.553  14.531  14.579
81993SOL    HW247877   7.704  14.532  14.568
81994SOL     OW47878   2.323   8.594   3.409
81994SOL    HW147879   2.395   8.656   3.409
81994SOL    HW247880   2.356   8.518   3.456
81995SOL     OW47881   2.299  12.598   4.788
81995SOL    HW147882   2.322  12.597   4.881
81995SOL    HW247883   2.354  12.531   4.749
81996SOL     OW47884   8.578   9.825   9.882
81996SOL    HW147885   8.673   9.821   9.869
81996SOL    HW247886   8.559   9.918   9.889
81997SOL     OW47887  14.802   2.103   4.261
81997SOL    HW147888  14.770   2.061   4.341
81997SOL    HW247889  14.725   2.107   4.204
81998SOL     OW47890   7.926   6.893   6.594
81998SOL    HW147891   7.886   6.868   6.511
81998SOL    HW247892   7.911   6.988   6.600
81999SOL     OW47893   4.170   1.766   3.587
81999SOL    HW147894   4.229   1.841   3.589
81999SOL    HW247895   4.166   1.741   3.495
82000SOL     OW47896   8.021  13.052   4.245
82000SOL    HW147897   8.041  13.044   4.152
82000SOL    HW247898   7.925  13.050   4.249
82001SOL     OW47899   7.252   8.161  10.263
82001SOL    HW147900   7.308   8.204  10.199
82001SOL    HW247901   7.172   8.215  10.266
82002SOL     OW47902  10.091   3.699  12.475
82002SOL    HW147903  10.101   3.727  12.566
82002SOL    HW247904  10.175   3.721  12.434
82003SOL     OW47905   4.736  11.214   5.404
82003SOL    HW147906   4.788  11.185   5.480
82003SOL    HW247907   4.678  11.140   5.386
82004SOL     OW47908  10.786  14.512  12.764
82004SOL    HW147909  10.697  14.515  12.728
82004SOL    HW247910  10.843  14.508  12.687
82005SOL     OW47911   3.185   4.880   1.683
82005SOL    HW147912   3.165   4.796   1.640
82005SOL    HW247913   3.272   4.866   1.721
82006SOL     OW47914   4.052   1.227   6.516
82006SOL    HW147915   3.985   1.162   6.497
82006SOL    HW247916   4.032   1.300   6.458
82007SOL     OW47917   3.512  14.154   6.881
82007SOL    HW147918   3.553  14.241   6.879
82007SOL    HW247919   3.489  14.140   6.972
82008SOL     OW47920   5.917   4.922   1.677
82008SOL    HW147921   5.992   4.960   1.723
82008SOL    HW247922   5.894   4.844   1.728
82009SOL     OW47923   3.885   6.676   3.855
82009SOL    HW147924   3.864   6.755   3.905
82009SOL    HW247925   3.944   6.627   3.912
82010SOL     OW47926   3.404   9.243   0.817
82010SOL    HW147927   3.455   9.306   0.869
82010SOL    HW247928   3.333   9.295   0.779
82011SOL     OW47929   6.949   2.549   1.867
82011SOL    HW147930   6.901   2.632   1.863
82011SOL    HW247931   6.890   2.485   1.827
82012SOL     OW47932  10.018   9.174   2.069
82012SOL    HW147933   9.950   9.177   2.001
82012SOL    HW247934  10.077   9.246   2.046
82013SOL     OW47935   1.125  12.925   6.729
82013SOL    HW147936   1.171  12.847   6.699
82013SOL    HW247937   1.192  12.977   6.774
82014SOL     OW47938   6.684  10.918   4.293
82014SOL    HW147939   6.668  10.876   4.208
82014SOL    HW247940   6.674  11.012   4.275
82015SOL     OW47941   6.089   8.358  14.182
82015SOL    HW147942   6.083   8.453  14.173
82015SOL    HW247943   6.183   8.339  14.178
82016SOL     OW47944   6.005   5.493   1.592
82016SOL    HW147945   5.979   5.425   1.655
82016SOL    HW247946   5.924   5.541   1.574
82017SOL     OW47947   0.405   0.639   9.265
82017SOL    HW147948   0.399   0.726   9.304
82017SOL    HW247949   0.322   0.628   9.219
82018SOL     OW47950   1.811   1.118   7.173
82018SOL    HW147951   1.824   1.090   7.082
82018SOL    HW247952   1.895   1.156   7.198
82019SOL     OW47953   9.605  10.444  12.845
82019SOL    HW147954   9.530  10.503  12.851
82019SOL    HW247955   9.569  10.363  12.810
82020SOL     OW47956  14.769   1.742  11.632
82020SOL    HW147957  14.749   1.796  11.708
82020SOL    HW247958  14.685   1.705  11.605
82021SOL     OW47959  10.097   5.900   0.596
82021SOL    HW147960  10.179   5.902   0.645
82021SOL    HW247961  10.029   5.903   0.663
82022SOL     OW47962   8.603   0.129  10.970
82022SOL    HW147963   8.634   0.193  10.907
82022SOL    HW247964   8.507   0.130  10.960
82023SOL     OW47965   3.558   1.707   5.380
82023SOL    HW147966   3.481   1.668   5.421
82023SOL    HW247967   3.622   1.712   5.450
82024SOL     OW47968   1.076  11.201   1.497
82024SOL    HW147969   1.025  11.277   1.468
82024SOL    HW247970   1.016  11.127   1.487
82025SOL     OW47971   6.224   4.771   5.475
82025SOL    HW147972   6.202   4.857   5.440
82025SOL    HW247973   6.156   4.752   5.539
82026SOL     OW47974  12.599   4.133   0.641
82026SOL    HW147975  12.543   4.204   0.610
82026SOL    HW247976  12.647   4.105   0.563
82027SOL     OW47977   4.329   9.578  14.553
82027SOL    HW147978   4.373   9.513  14.607
82027SOL    HW247979   4.377   9.576  14.470
82028SOL     OW47980   8.409  14.732   7.405
82028SOL    HW147981   8.432  14.641   7.387
82028SOL    HW247982   8.341  14.753   7.341
82029SOL     OW47983   3.852   6.650   9.130
82029SOL    HW147984   3.813   6.726   9.088
82029SOL    HW247985   3.811   6.646   9.217
82030SOL     OW47986   1.167   3.079  12.498
82030SOL    HW147987   1.089   3.037  12.535
82030SOL    HW247988   1.150   3.173  12.507
82031SOL     OW47989   0.517   0.180   0.431
82031SOL    HW147990   0.495   0.088   0.449
82031SOL    HW247991   0.432   0.224   0.426
82032SOL     OW47992  10.533   3.770   9.613
82032SOL    HW147993  10.506   3.701   9.552
82032SOL    HW247994  10.626   3.780   9.597
82033SOL     OW47995   6.798   2.314   6.407
82033SOL    HW147996   6.750   2.277   6.333
82033SOL    HW247997   6.867   2.250   6.425
82034SOL     OW47998   7.457   1.720  12.531
82034SOL    HW147999   7.470   1.637  12.576
82034SOL    HW248000   7.382   1.759  12.575
82035SOL     OW48001   9.134  10.118   2.954
82035SOL    HW148002   9.178  10.158   2.880
82035SOL    HW248003   9.196  10.055   2.989
82036SOL     OW48004  10.920   3.974  12.668
82036SOL    HW148005  10.991   3.954  12.729
82036SOL    HW248006  10.942   4.060  12.633
82037SOL     OW48007   2.629  11.915  12.534
82037SOL    HW148008   2.613  11.886  12.624
82037SOL    HW248009   2.543  11.915  12.493
82038SOL     OW48010   4.531   6.459   5.618
82038SOL    HW148011   4.538   6.379   5.669
82038SOL    HW248012   4.441   6.489   5.633
82039SOL     OW48013   4.204  11.225   2.445
82039SOL    HW148014   4.160  11.305   2.474
82039SOL    HW248015   4.139  11.180   2.391
82040SOL     OW48016   1.395   1.460  14.467
82040SOL    HW148017   1.468   1.441  14.409
82040SOL    HW248018   1.322   1.482  14.408
82041SOL     OW48019   2.965   7.197   8.756
82041SOL    HW148020   2.974   7.261   8.685
82041SOL    HW248021   3.039   7.138   8.744
82042SOL     OW48022  12.153   9.933  12.461
82042SOL    HW148023  12.205   9.981  12.526
82042SOL    HW248024  12.078   9.900  12.510
82043SOL     OW48025  14.331   7.494  12.833
82043SOL    HW148026  14.347   7.436  12.908
82043SOL    HW248027  14.351   7.582  12.866
82044SOL     OW48028   4.302  10.063  14.355
82044SOL    HW148029   4.278  10.041  14.265
82044SOL    HW248030   4.398  10.059  14.355
82045SOL     OW48031   8.229   3.997   6.478
82045SOL    HW148032   8.226   4.085   6.516
82045SOL    HW248033   8.180   3.942   6.539
82046SOL     OW48034   4.536   4.769   7.419
82046SOL    HW148035   4.452   4.767   7.374
82046SOL    HW248036   4.600   4.786   7.350
82047SOL     OW48037   0.155   1.747  12.814
82047SOL    HW148038   0.201   1.792  12.743
82047SOL    HW248039   0.154   1.810  12.886
82048SOL     OW48040   9.518  12.056   9.360
82048SOL    HW148041   9.452  11.989   9.379
82048SOL    HW248042   9.548  12.085   9.447
82049SOL     OW48043   0.329  14.272   7.945
82049SOL    HW148044   0.309  14.208   8.013
82049SOL    HW248045   0.246  14.318   7.931
82050SOL     OW48046   2.209   4.086   5.897
82050SOL    HW148047   2.246   4.043   5.974
82050SOL    HW248048   2.134   4.032   5.874
82051SOL     OW48049   4.865   2.379   0.054
82051SOL    HW148050   4.840   2.308  14.865
82051SOL    HW248051   4.960   2.386   0.045
82052SOL     OW48052   1.034   6.113   1.075
82052SOL    HW148053   1.099   6.150   1.135
82052SOL    HW248054   0.969   6.073   1.132
82053SOL     OW48055   1.704   6.021   6.197
82053SOL    HW148056   1.686   5.927   6.199
82053SOL    HW248057   1.795   6.029   6.227
82054SOL     OW48058   8.843  10.292   7.353
82054SOL    HW148059   8.925  10.259   7.318
82054SOL    HW248060   8.831  10.378   7.313
82055SOL     OW48061  12.035   9.896   8.341
82055SOL    HW148062  12.032   9.936   8.254
82055SOL    HW248063  11.949   9.856   8.353
82056SOL     OW48064   8.058   4.959   0.094
82056SOL    HW148065   8.072   4.983   0.003
82056SOL    HW248066   8.014   5.035   0.133
82057SOL     OW48067  10.069   0.303   0.389
82057SOL    HW148068   9.978   0.275   0.399
82057SOL    HW248069  10.090   0.346   0.471
82058SOL     OW48070   5.274  14.152   8.559
82058SOL    HW148071   5.218  14.225   8.535
82058SOL    HW248072   5.314  14.178   8.643
82059SOL     OW48073  12.776   3.012   1.663
82059SOL    HW148074  12.871   3.022   1.661
82059SOL    HW248075  12.761   2.929   1.709
82060SOL     OW48076   2.617   0.008  11.520
82060SOL    HW148077   2.596  14.853  11.610
82060SOL    HW248078   2.532   0.009  11.476
82061SOL     OW48079   4.137   9.597   0.870
82061SOL    HW148080   4.203   9.652   0.827
82061SOL    HW248081   4.165   9.507   0.853
82062SOL     OW48082   9.460  12.646  11.057
82062SOL    HW148083   9.442  12.559  11.022
82062SOL    HW248084   9.462  12.634  11.152
82063SOL     OW48085   5.433   7.468  12.258
82063SOL    HW148086   5.397   7.506  12.178
82063SOL    HW248087   5.484   7.539  12.297
82064SOL     OW48088   5.322   8.256   8.146
82064SOL    HW148089   5.317   8.165   8.175
82064SOL    HW248090   5.261   8.303   8.202
82065SOL     OW48091   4.768  11.395  14.861
82065SOL    HW148092   4.697  11.453   0.020
82065SOL    HW248093   4.844  11.452  14.854
82066SOL     OW48094  13.396   7.194  10.226
82066SOL    HW148095  13.385   7.274  10.175
82066SOL    HW248096  13.489   7.172  10.218
82067SOL     OW48097  11.867   9.360  11.766
82067SOL    HW148098  11.954   9.360  11.807
82067SOL    HW248099  11.814   9.303  11.822
82068SOL     OW48100   8.175   0.647   2.966
82068SOL    HW148101   8.217   0.697   2.896
82068SOL    HW248102   8.096   0.612   2.926
82069SOL     OW48103  10.468   2.890  13.195
82069SOL    HW148104  10.403   2.940  13.245
82069SOL    HW248105  10.552   2.913  13.235
82070SOL     OW48106  10.864   8.864  10.928
82070SOL    HW148107  10.870   8.769  10.931
82070SOL    HW248108  10.885   8.892  11.017
82071SOL     OW48109   9.734  12.332  12.553
82071SOL    HW148110   9.662  12.305  12.611
82071SOL    HW248111   9.810  12.339  12.610
82072SOL     OW48112   1.740  13.330   5.552
82072SOL    HW148113   1.728  13.245   5.509
82072SOL    HW248114   1.658  13.344   5.600
82073SOL     OW48115   4.474   7.907   8.070
82073SOL    HW148116   4.458   7.920   8.164
82073SOL    HW248117   4.552   7.957   8.051
82074SOL     OW48118   2.362  10.798  13.473
82074SOL    HW148119   2.389  10.889  13.490
82074SOL    HW248120   2.296  10.805  13.405
82075SOL     OW48121   0.859   3.226  12.338
82075SOL    HW148122   0.874   3.132  12.344
82075SOL    HW248123   0.823   3.250  12.423
82076SOL     OW48124   7.441   1.197  12.043
82076SOL    HW148125   7.413   1.133  11.977
82076SOL    HW248126   7.502   1.148  12.099
82077SOL     OW48127   5.866   9.350  10.320
82077SOL    HW148128   5.782   9.393  10.335
82077SOL    HW248129   5.899   9.330  10.408
82078SOL     OW48130   9.202  11.245   5.971
82078SOL    HW148131   9.182  11.153   5.987
82078SOL    HW248132   9.121  11.281   5.933
82079SOL     OW48133   6.611   7.604   6.043
82079SOL    HW148134   6.636   7.695   6.059
82079SOL    HW248135   6.694   7.558   6.033
82080SOL     OW48136   0.972   8.072   2.533
82080SOL    HW148137   1.058   8.031   2.540
82080SOL    HW248138   0.989   8.162   2.507
82081SOL     OW48139   8.602  11.700  12.687
82081SOL    HW148140   8.531  11.642  12.715
82081SOL    HW248141   8.640  11.733  12.769
82082SOL     OW48142   8.690   8.824  10.117
82082SOL    HW148143   8.609   8.782  10.145
82082SOL    HW248144   8.662   8.886  10.049
82083SOL     OW48145   1.692   2.298   0.966
82083SOL    HW148146   1.775   2.259   0.992
82083SOL    HW248147   1.716   2.382   0.926
82084SOL     OW48148  13.670   0.268   7.523
82084SOL    HW148149  13.637   0.211   7.593
82084SOL    HW248150  13.592   0.290   7.472
82085SOL     OW48151   2.620  11.204  14.398
82085SOL    HW148152   2.575  11.281  14.362
82085SOL    HW248153   2.559  11.170  14.463
82086SOL     OW48154   7.519   6.504  12.552
82086SOL    HW148155   7.499   6.596  12.568
82086SOL    HW248156   7.572   6.504  12.472
82087SOL     OW48157   4.530   0.975   8.531
82087SOL    HW148158   4.572   1.061   8.536
82087SOL    HW248159   4.521   0.957   8.438
82088SOL     OW48160  12.252   5.711   6.075
82088SOL    HW148161  12.273   5.691   5.984
82088SOL    HW248162  12.200   5.635   6.104
82089SOL     OW48163  10.157   9.214   1.219
82089SOL    HW148164  10.152   9.210   1.124
82089SOL    HW248165  10.087   9.157   1.250
82090SOL     OW48166  12.369   7.177  14.809
82090SOL    HW148167  12.382   7.132  14.726
82090SOL    HW248168  12.276   7.197  14.811
82091SOL     OW48169   3.041   0.634  13.768
82091SOL    HW148170   3.032   0.708  13.708
82091SOL    HW248171   2.991   0.661  13.846
82092SOL     OW48172   9.156   6.911   0.052
82092SOL    HW148173   9.094   6.981   0.073
82092SOL    HW248174   9.222   6.917   0.121
82093SOL     OW48175  14.742   2.737   9.770
82093SOL    HW148176  14.700   2.745   9.685
82093SOL    HW248177  14.832   2.711   9.751
82094SOL     OW48178   1.139  11.179  12.132
82094SOL    HW148179   1.233  11.196  12.146
82094SOL    HW248180   1.110  11.140  12.214
82095SOL     OW48181   8.171  12.237  14.170
82095SOL    HW148182   8.077  12.223  14.159
82095SOL    HW248183   8.178  12.321  14.215
82096SOL     OW48184   6.387   5.756   8.674
82096SOL    HW148185   6.440   5.832   8.695
82096SOL    HW248186   6.300   5.776   8.709
82097SOL     OW48187   7.373   2.880   8.056
82097SOL    HW148188   7.312   2.952   8.064
82097SOL    HW248189   7.459   2.921   8.050
82098SOL     OW48190  12.586  10.087   5.008
82098SOL    HW148191  12.543  10.016   5.054
82098SOL    HW248192  12.627  10.046   4.932
82099SOL     OW48193  10.379   8.741   3.212
82099SOL    HW148194  10.443   8.669   3.206
82099SOL    HW248195  10.295   8.698   3.222
82100SOL     OW48196  11.389   8.128   3.180
82100SOL    HW148197  11.472   8.085   3.203
82100SOL    HW248198  11.373   8.103   3.089
82101SOL     OW48199  12.419   9.307   9.829
82101SOL    HW148200  12.493   9.291   9.770
82101SOL    HW248201  12.351   9.344   9.772
82102SOL     OW48202  13.236  11.209   5.357
82102SOL    HW148203  13.205  11.127   5.319
82102SOL    HW248204  13.329  11.213   5.334
82103SOL     OW48205  10.456  10.697   9.219
82103SOL    HW148206  10.509  10.619   9.200
82103SOL    HW248207  10.483  10.723   9.307
82104SOL     OW48208   3.665   5.084  13.168
82104SOL    HW148209   3.592   5.046  13.121
82104SOL    HW248210   3.739   5.079  13.107
82105SOL     OW48211  10.264   2.874  10.970
82105SOL    HW148212  10.317   2.908  10.897
82105SOL    HW248213  10.313   2.901  11.049
82106SOL     OW48214  10.180   4.643   4.660
82106SOL    HW148215  10.134   4.584   4.600
82106SOL    HW248216  10.270   4.643   4.630
82107SOL     OW48217   9.608   5.123   3.680
82107SOL    HW148218   9.590   5.058   3.748
82107SOL    HW248219   9.596   5.207   3.724
82108SOL     OW48220   5.482   9.039   6.757
82108SOL    HW148221   5.449   8.957   6.795
82108SOL    HW248222   5.447   9.107   6.813
82109SOL     OW48223   7.574   4.091   8.798
82109SOL    HW148224   7.537   4.005   8.819
82109SOL    HW248225   7.657   4.071   8.754
82110SOL     OW48226   0.139   9.217   3.372
82110SOL    HW148227   0.169   9.229   3.282
82110SOL    HW248228   0.059   9.270   3.377
82111SOL     OW48229  14.259   7.703   5.735
82111SOL    HW148230  14.214   7.776   5.693
82111SOL    HW248231  14.238   7.713   5.828
82112SOL     OW48232  10.254   2.947   6.649
82112SOL    HW148233  10.317   3.019   6.654
82112SOL    HW248234  10.305   2.869   6.672
82113SOL     OW48235  14.042   9.042   7.530
82113SOL    HW148236  14.132   9.025   7.559
82113SOL    HW248237  14.041   9.134   7.506
82114SOL     OW48238  14.338   3.562  11.580
82114SOL    HW148239  14.387   3.558  11.662
82114SOL    HW248240  14.263   3.618  11.599
82115SOL     OW48241   3.553   3.881   5.547
82115SOL    HW148242   3.620   3.922   5.601
82115SOL    HW248243   3.514   3.953   5.497
82116SOL     OW48244   7.762  10.662  14.717
82116SOL    HW148245   7.851  10.633  14.739
82116SOL    HW248246   7.736  10.716  14.791
82117SOL     OW48247   5.518   0.188  12.373
82117SOL    HW148248   5.436   0.143  12.394
82117SOL    HW248249   5.505   0.277  12.406
82118SOL     OW48250  11.648  10.578  13.123
82118SOL    HW148251  11.573  10.556  13.069
82118SOL    HW248252  11.672  10.666  13.095
82119SOL     OW48253   3.494  11.446  13.806
82119SOL    HW148254   3.508  11.539  13.788
82119SOL    HW248255   3.497  11.438  13.901
82120SOL     OW48256  10.754   7.336   6.035
82120SOL    HW148257  10.722   7.421   6.065
82120SOL    HW248258  10.781   7.351   5.944
82121SOL     OW48259  11.555   5.378  11.409
82121SOL    HW148260  11.542   5.334  11.492
82121SOL    HW248261  11.623   5.443  11.426
82122SOL     OW48262   9.389  10.340  10.923
82122SOL    HW148263   9.438  10.264  10.954
82122SOL    HW248264   9.456  10.400  10.890
82123SOL     OW48265   7.001  13.409   5.257
82123SOL    HW148266   6.945  13.480   5.224
82123SOL    HW248267   7.089  13.444   5.251
82124SOL     OW48268  10.350   6.603  13.115
82124SOL    HW148269  10.354   6.535  13.048
82124SOL    HW248270  10.411   6.670  13.086
82125SOL     OW48271   8.124   1.081  12.189
82125SOL    HW148272   8.187   1.096  12.118
82125SOL    HW248273   8.163   1.010  12.241
82126SOL     OW48274   7.969  14.244   9.574
82126SOL    HW148275   8.024  14.308   9.529
82126SOL    HW248276   8.007  14.159   9.551
82127SOL     OW48277  10.640  14.684  11.780
82127SOL    HW148278  10.646  14.682  11.685
82127SOL    HW248279  10.620  14.775  11.801
82128SOL     OW48280   8.949  13.023   2.623
82128SOL    HW148281   8.961  13.028   2.528
82128SOL    HW248282   9.015  13.083   2.658
82129SOL     OW48283   7.183   0.816  13.345
82129SOL    HW148284   7.157   0.727  13.322
82129SOL    HW248285   7.190   0.816  13.440
82130SOL     OW48286   8.905  11.591   5.037
82130SOL    HW148287   8.910  11.525   4.968
82130SOL    HW248288   8.909  11.541   5.119
82131SOL     OW48289   5.744   3.708  12.689
82131SOL    HW148290   5.672   3.715  12.627
82131SOL    HW248291   5.760   3.798  12.717
82132SOL     OW48292   0.331   4.780   0.214
82132SOL    HW148293   0.236   4.790   0.221
82132SOL    HW248294   0.365   4.807   0.299
82133SOL     OW48295  10.058   8.779   6.384
82133SOL    HW148296  10.100   8.853   6.341
82133SOL    HW248297   9.969   8.808   6.401
82134SOL     OW48298   7.480  11.481  11.481
82134SOL    HW148299   7.485  11.426  11.560
82134SOL    HW248300   7.452  11.421  11.412
82135SOL     OW48301   0.412  13.471  14.047
82135SOL    HW148302   0.329  13.438  14.013
82135SOL    HW248303   0.404  13.460  14.142
82136SOL     OW48304   7.049   0.340  11.352
82136SOL    HW148305   6.969   0.324  11.401
82136SOL    HW248306   7.032   0.303  11.265
82137SOL     OW48307  13.822  13.600   6.184
82137SOL    HW148308  13.752  13.664   6.199
82137SOL    HW248309  13.814  13.576   6.092
82138SOL     OW48310   7.713  14.777  12.740
82138SOL    HW148311   7.688  14.700  12.689
82138SOL    HW248312   7.803  14.760  12.769
82139SOL     OW48313   7.814   6.203   2.263
82139SOL    HW148314   7.884   6.139   2.254
82139SOL    HW248315   7.814   6.226   2.355
82140SOL     OW48316   6.141   2.116   5.832
82140SOL    HW148317   6.199   2.168   5.889
82140SOL    HW248318   6.071   2.087   5.891
82141SOL     OW48319   0.384  13.266  14.513
82141SOL    HW148320   0.382  13.310  14.599
82141SOL    HW248321   0.379  13.173  14.534
82142SOL     OW48322   2.974   3.662  14.134
82142SOL    HW148323   2.898   3.710  14.101
82142SOL    HW248324   3.044   3.727  14.136
82143SOL     OW48325  14.683   0.918  11.975
82143SOL    HW148326  14.699   0.826  11.998
82143SOL    HW248327  14.769   0.951  11.949
82144SOL     OW48328   1.958  13.720   4.560
82144SOL    HW148329   1.936  13.726   4.467
82144SOL    HW248330   2.024  13.789   4.573
82145SOL     OW48331   7.216   9.731   6.853
82145SOL    HW148332   7.170   9.772   6.780
82145SOL    HW248333   7.166   9.757   6.931
82146SOL     OW48334  11.128   5.436   2.065
82146SOL    HW148335  11.074   5.512   2.085
82146SOL    HW248336  11.211   5.453   2.109
82147SOL     OW48337  12.949   3.787   5.389
82147SOL    HW148338  12.930   3.807   5.297
82147SOL    HW248339  12.907   3.702   5.403
82148SOL     OW48340   1.145   6.662   6.668
82148SOL    HW148341   1.086   6.597   6.705
82148SOL    HW248342   1.089   6.715   6.611
82149SOL     OW48343   2.593  11.954  10.156
82149SOL    HW148344   2.678  11.996  10.142
82149SOL    HW248345   2.614  11.870  10.197
82150SOL     OW48346   7.304   2.648   6.890
82150SOL    HW148347   7.358   2.715   6.931
82150SOL    HW248348   7.364   2.598   6.835
82151SOL     OW48349   9.332   2.380  11.484
82151SOL    HW148350   9.273   2.445  11.446
82151SOL    HW248351   9.395   2.362  11.414
82152SOL     OW48352   4.781   9.636   7.797
82152SOL    HW148353   4.841   9.606   7.865
82152SOL    HW248354   4.750   9.555   7.756
82153SOL     OW48355   6.241  10.916  14.706
82153SOL    HW148356   6.180  10.869  14.648
82153SOL    HW248357   6.212  10.892  14.794
82154SOL     OW48358  10.507   7.858  13.836
82154SOL    HW148359  10.438   7.792  13.831
82154SOL    HW248360  10.587   7.809  13.852
82155SOL     OW48361   2.693   8.542   2.694
82155SOL    HW148362   2.636   8.619   2.696
82155SOL    HW248363   2.781   8.578   2.682
82156SOL     OW48364   8.148   3.055   3.921
82156SOL    HW148365   8.076   3.048   3.983
82156SOL    HW248366   8.145   3.146   3.891
82157SOL     OW48367   5.935  13.261  13.203
82157SOL    HW148368   5.916  13.192  13.266
82157SOL    HW248369   5.986  13.218  13.135
82158SOL     OW48370   3.160  13.950   9.617
82158SOL    HW148371   3.191  13.860   9.621
82158SOL    HW248372   3.239  14.003   9.615
82159SOL     OW48373   0.928   6.443   9.567
82159SOL    HW148374   0.987   6.415   9.498
82159SOL    HW248375   0.897   6.361   9.607
82160SOL     OW48376   5.706  14.200   0.289
82160SOL    HW148377   5.742  14.288   0.282
82160SOL    HW248378   5.773  14.144   0.249
82161SOL     OW48379  11.546  10.643  11.695
82161SOL    HW148380  11.557  10.560  11.649
82161SOL    HW248381  11.569  10.625  11.786
82162SOL     OW48382  10.769   8.380   9.747
82162SOL    HW148383  10.685   8.355   9.709
82162SOL    HW248384  10.746   8.435   9.822
82163SOL     OW48385  12.104   8.737   7.190
82163SOL    HW148386  12.118   8.804   7.257
82163SOL    HW248387  12.171   8.671   7.208
82164SOL     OW48388  12.561  12.981   0.250
82164SOL    HW148389  12.647  13.013   0.222
82164SOL    HW248390  12.567  12.886   0.242
82165SOL     OW48391   9.045   3.047  13.741
82165SOL    HW148392   9.054   3.141  13.733
82165SOL    HW248393   9.088   3.011  13.663
82166SOL     OW48394  10.396  13.667  13.249
82166SOL    HW148395  10.386  13.652  13.155
82166SOL    HW248396  10.437  13.754  13.255
82167SOL     OW48397   5.727   9.868   5.734
82167SOL    HW148398   5.664   9.806   5.697
82167SOL    HW248399   5.808   9.818   5.743
82168SOL     OW48400   8.371   4.738  10.054
82168SOL    HW148401   8.425   4.761   9.979
82168SOL    HW248402   8.433   4.728  10.126
82169SOL     OW48403  11.227   5.503   1.267
82169SOL    HW148404  11.255   5.504   1.358
82169SOL    HW248405  11.278   5.433   1.227
82170SOL     OW48406  11.282   4.948  11.158
82170SOL    HW148407  11.187   4.956  11.152
82170SOL    HW248408  11.304   4.980  11.246
82171SOL     OW48409  11.323   1.702  12.584
82171SOL    HW148410  11.238   1.681  12.622
82171SOL    HW248411  11.312   1.792  12.551
82172SOL     OW48412   7.351  11.605   8.182
82172SOL    HW148413   7.442  11.585   8.203
82172SOL    HW248414   7.319  11.652   8.260
82173SOL     OW48415   2.927  10.801   5.126
82173SOL    HW148416   2.999  10.743   5.151
82173SOL    HW248417   2.912  10.782   5.033
82174SOL     OW48418   0.782  10.396   5.836
82174SOL    HW148419   0.833  10.371   5.759
82174SOL    HW248420   0.799  10.490   5.846
82175SOL     OW48421   9.737  10.025   8.261
82175SOL    HW148422   9.691   9.970   8.198
82175SOL    HW248423   9.732  10.114   8.224
82176SOL     OW48424   1.698  11.726   0.633
82176SOL    HW148425   1.779  11.778   0.625
82176SOL    HW248426   1.635  11.787   0.670
82177SOL     OW48427   9.682  14.802   5.589
82177SOL    HW148428   9.701  14.806   5.495
82177SOL    HW248429   9.587  14.794   5.593
82178SOL     OW48430  13.180   6.114   1.782
82178SOL    HW148431  13.151   6.120   1.691
82178SOL    HW248432  13.159   6.025   1.808
82179SOL     OW48433  13.774   1.529  12.189
82179SOL    HW148434  13.840   1.575  12.137
82179SOL    HW248435  13.806   1.532  12.279
82180SOL     OW48436   4.301   4.806   7.270
82180SOL    HW148437   4.209   4.784   7.261
82180SOL    HW248438   4.329   4.833   7.182
82181SOL     OW48439  13.606   9.576   0.238
82181SOL    HW148440  13.645   9.608   0.319
82181SOL    HW248441  13.573   9.654   0.194
82182SOL     OW48442   2.679   7.638   9.812
82182SOL    HW148443   2.712   7.548   9.808
82182SOL    HW248444   2.710   7.671   9.897
82183SOL     OW48445  13.874  11.578  14.460
82183SOL    HW148446  13.949  11.638  14.462
82183SOL    HW248447  13.867  11.545  14.550
82184SOL     OW48448   3.077  12.093  10.073
82184SOL    HW148449   3.160  12.102  10.120
82184SOL    HW248450   3.064  12.178  10.032
82185SOL     OW48451   0.566  13.364  11.337
82185SOL    HW148452   0.660  13.361  11.319
82185SOL    HW248453   0.558  13.417  11.416
82186SOL     OW48454   0.479  12.448   8.365
82186SOL    HW148455   0.471  12.543   8.377
82186SOL    HW248456   0.420  12.411   8.431
82187SOL     OW48457   7.070  13.332  12.233
82187SOL    HW148458   6.995  13.344  12.291
82187SOL    HW248459   7.105  13.421  12.220
82188SOL     OW48460   0.278   9.022   6.382
82188SOL    HW148461   0.294   9.106   6.338
82188SOL    HW248462   0.354   9.009   6.438
82189SOL     OW48463  10.774  13.304   8.901
82189SOL    HW148464  10.738  13.368   8.839
82189SOL    HW248465  10.813  13.356   8.970
82190SOL     OW48466   9.093  14.599   0.655
82190SOL    HW148467   9.178  14.629   0.622
82190SOL    HW248468   9.045  14.679   0.674
82191SOL     OW48469   4.851   4.767   0.588
82191SOL    HW148470   4.833   4.774   0.495
82191SOL    HW248471   4.914   4.837   0.606
82192SOL     OW48472   0.804   1.627   8.050
82192SOL    HW148473   0.714   1.649   8.026
82192SOL    HW248474   0.852   1.632   7.967
82193SOL     OW48475   2.233  11.500   4.044
82193SOL    HW148476   2.214  11.469   4.133
82193SOL    HW248477   2.317  11.459   4.022
82194SOL     OW48478   6.511   7.496   2.812
82194SOL    HW148479   6.512   7.592   2.809
82194SOL    HW248480   6.545   7.469   2.727
82195SOL     OW48481  11.434   9.513   5.204
82195SOL    HW148482  11.507   9.453   5.212
82195SOL    HW248483  11.363   9.471   5.252
82196SOL     OW48484   1.812  13.658   7.361
82196SOL    HW148485   1.894  13.707   7.351
82196SOL    HW248486   1.748  13.707   7.308
82197SOL     OW48487   5.586  12.607  14.325
82197SOL    HW148488   5.669  12.624  14.280
82197SOL    HW248489   5.612  12.578  14.413
82198SOL     OW48490   7.860   9.347   8.113
82198SOL    HW148491   7.904   9.375   8.032
82198SOL    HW248492   7.847   9.428   8.162
82199SOL     OW48493  10.621   8.652  12.395
82199SOL    HW148494  10.628   8.724  12.457
82199SOL    HW248495  10.567   8.587  12.440
82200SOL     OW48496   4.466   1.090   2.791
82200SOL    HW148497   4.529   1.133   2.847
82200SOL    HW248498   4.439   1.012   2.840
82201SOL     OW48499   2.760  12.271  10.509
82201SOL    HW148500   2.676  12.313  10.494
82201SOL    HW248501   2.741  12.203  10.574
82202SOL     OW48502   8.293   8.194   5.043
82202SOL    HW148503   8.371   8.138   5.033
82202SOL    HW248504   8.259   8.171   5.130
82203SOL     OW48505  10.378   2.405   2.463
82203SOL    HW148506  10.439   2.343   2.422
82203SOL    HW248507  10.352   2.463   2.392
82204SOL     OW48508   7.603   3.286   5.796
82204SOL    HW148509   7.552   3.335   5.860
82204SOL    HW248510   7.675   3.249   5.847
82205SOL     OW48511   8.905   6.991  14.109
82205SOL    HW148512   8.986   7.022  14.068
82205SOL    HW248513   8.902   7.036  14.193
82206SOL     OW48514   8.265  11.096   2.094
82206SOL    HW148515   8.245  11.082   2.002
82206SOL    HW248516   8.180  11.102   2.137
82207SOL     OW48517   1.339   3.383   7.290
82207SOL    HW148518   1.428   3.348   7.293
82207SOL    HW248519   1.287   3.319   7.339
82208SOL     OW48520   0.327   2.577  14.176
82208SOL    HW148521   0.333   2.672  14.173
82208SOL    HW248522   0.270   2.554  14.103
82209SOL     OW48523   4.691   2.496   9.214
82209SOL    HW148524   4.648   2.416   9.184
82209SOL    HW248525   4.763   2.464   9.270
82210SOL     OW48526   4.681  11.005  11.156
82210SOL    HW148527   4.653  10.920  11.191
82210SOL    HW248528   4.756  10.985  11.101
82211SOL     OW48529   5.773   2.482  11.377
82211SOL    HW148530   5.779   2.550  11.311
82211SOL    HW248531   5.832   2.510  11.447
82212SOL     OW48532   2.896  14.623  13.679
82212SOL    HW148533   2.853  14.694  13.632
82212SOL    HW248534   2.833  14.598  13.747
82213SOL     OW48535  11.138   8.436  10.187
82213SOL    HW148536  11.147   8.340  10.191
82213SOL    HW248537  11.061   8.450  10.131
82214SOL     OW48538  12.159  10.765  10.045
82214SOL    HW148539  12.175  10.759   9.951
82214SOL    HW248540  12.193  10.682  10.080
82215SOL     OW48541   0.856  10.707   8.744
82215SOL    HW148542   0.835  10.647   8.673
82215SOL    HW248543   0.947  10.685   8.768
82216SOL     OW48544  14.252   1.291   9.714
82216SOL    HW148545  14.275   1.373   9.758
82216SOL    HW248546  14.266   1.308   9.621
82217SOL     OW48547   7.104   5.509   4.869
82217SOL    HW148548   7.137   5.427   4.906
82217SOL    HW248549   7.141   5.512   4.781
82218SOL     OW48550  10.385   8.903   6.512
82218SOL    HW148551  10.474   8.925   6.485
82218SOL    HW248552  10.368   8.961   6.587
82219SOL     OW48553   6.472   0.555   7.807
82219SOL    HW148554   6.445   0.469   7.776
82219SOL    HW248555   6.469   0.548   7.903
82220SOL     OW48556  14.773   7.068  12.958
82220SOL    HW148557  14.741   7.100  12.874
82220SOL    HW248558  14.868   7.069  12.949
82221SOL     OW48559   0.376   0.940   9.010
82221SOL    HW148560   0.470   0.929   9.024
82221SOL    HW248561   0.343   0.977   9.093
82222SOL     OW48562  11.110   2.153  13.565
82222SOL    HW148563  11.122   2.216  13.495
82222SOL    HW248564  11.096   2.069  13.520
82223SOL     OW48565   9.144   7.379  13.548
82223SOL    HW148566   9.237   7.376  13.571
82223SOL    HW248567   9.143   7.410  13.458
82224SOL     OW48568   3.390   4.700   1.665
82224SOL    HW148569   3.449   4.700   1.590
82224SOL    HW248570   3.322   4.637   1.642
82225SOL     OW48571  13.451   4.815   9.667
82225SOL    HW148572  13.367   4.856   9.689
82225SOL    HW248573  13.452   4.812   9.571
82226SOL     OW48574   5.507   1.408  10.290
82226SOL    HW148575   5.521   1.366  10.205
82226SOL    HW248576   5.413   1.400  10.306
82227SOL     OW48577   5.083   2.175   8.429
82227SOL    HW148578   5.154   2.171   8.494
82227SOL    HW248579   5.097   2.257   8.382
82228SOL     OW48580   7.304   6.568  11.042
82228SOL    HW148581   7.334   6.491  11.091
82228SOL    HW248582   7.216   6.545  11.012
82229SOL     OW48583  14.022   3.355  14.084
82229SOL    HW148584  14.009   3.375  14.177
82229SOL    HW248585  13.937   3.374  14.044
82230SOL     OW48586   8.092   2.204   2.231
82230SOL    HW148587   8.128   2.272   2.287
82230SOL    HW248588   8.031   2.156   2.287
82231SOL     OW48589   9.509  10.742   5.468
82231SOL    HW148590   9.416  10.745   5.488
82231SOL    HW248591   9.543  10.671   5.523
82232SOL     OW48592  13.179   4.462   0.715
82232SOL    HW148593  13.239   4.438   0.644
82232SOL    HW248594  13.098   4.486   0.671
82233SOL     OW48595  12.657   3.550  11.664
82233SOL    HW148596  12.619   3.627  11.705
82233SOL    HW248597  12.582   3.496  11.640
82234SOL     OW48598   4.156   5.586   0.767
82234SOL    HW148599   4.221   5.610   0.833
82234SOL    HW248600   4.207   5.577   0.686
82235SOL     OW48601   0.986  12.030   2.386
82235SOL    HW148602   1.034  12.085   2.448
82235SOL    HW248603   1.053  12.000   2.325
82236SOL     OW48604  10.066   1.299   7.465
82236SOL    HW148605  10.003   1.365   7.493
82236SOL    HW248606  10.103   1.333   7.384
82237SOL     OW48607   7.068   7.884   5.156
82237SOL    HW148608   7.029   7.821   5.216
82237SOL    HW248609   7.092   7.959   5.212
82238SOL     OW48610  12.802   9.050   1.893
82238SOL    HW148611  12.752   8.992   1.951
82238SOL    HW248612  12.893   9.039   1.921
82239SOL     OW48613  12.786   7.177   1.757
82239SOL    HW148614  12.729   7.141   1.826
82239SOL    HW248615  12.762   7.128   1.678
82240SOL     OW48616   6.035   6.600   2.358
82240SOL    HW148617   6.012   6.546   2.433
82240SOL    HW248618   6.056   6.686   2.395
82241SOL     OW48619   2.471  14.537   5.922
82241SOL    HW148620   2.509  14.620   5.894
82241SOL    HW248621   2.435  14.554   6.009
82242SOL     OW48622   9.006   5.722  10.597
82242SOL    HW148623   9.019   5.722  10.502
82242SOL    HW248624   9.015   5.813  10.623
82243SOL     OW48625   2.591   5.692   0.076
82243SOL    HW148626   2.658   5.625   0.093
82243SOL    HW248627   2.508   5.646   0.083
82244SOL     OW48628  10.642  10.984   9.932
82244SOL    HW148629  10.657  10.990   9.838
82244SOL    HW248630  10.598  11.066   9.955
82245SOL     OW48631  11.205   2.045  12.065
82245SOL    HW148632  11.169   1.990  11.996
82245SOL    HW248633  11.136   2.109  12.084
82246SOL     OW48634   1.217   5.380  10.356
82246SOL    HW148635   1.170   5.382  10.439
82246SOL    HW248636   1.273   5.302  10.362
82247SOL     OW48637   8.649   6.019   5.605
82247SOL    HW148638   8.738   5.984   5.613
82247SOL    HW248639   8.604   5.989   5.684
82248SOL     OW48640  13.813  14.186  12.280
82248SOL    HW148641  13.844  14.209  12.368
82248SOL    HW248642  13.731  14.235  12.270
82249SOL     OW48643   8.008   5.032   2.325
82249SOL    HW148644   7.995   5.104   2.387
82249SOL    HW248645   8.055   4.966   2.376
82250SOL     OW48646  11.830   4.508   6.615
82250SOL    HW148647  11.889   4.577   6.585
82250SOL    HW248648  11.869   4.478   6.697
82251SOL     OW48649   5.286  11.759   9.871
82251SOL    HW148650   5.251  11.795   9.790
82251SOL    HW248651   5.284  11.664   9.858
82252SOL     OW48652  14.766  14.501   5.691
82252SOL    HW148653  14.704  14.494   5.764
82252SOL    HW248654  14.852  14.506   5.733
82253SOL     OW48655   1.276   0.583   1.284
82253SOL    HW148656   1.332   0.605   1.358
82253SOL    HW248657   1.239   0.667   1.256
82254SOL     OW48658   1.998  12.199   7.441
82254SOL    HW148659   2.065  12.213   7.507
82254SOL    HW248660   1.916  12.188   7.490
82255SOL     OW48661   3.331  12.468  13.408
82255SOL    HW148662   3.283  12.542  13.445
82255SOL    HW248663   3.361  12.499  13.322
82256SOL     OW48664  14.604   6.320   4.996
82256SOL    HW148665  14.620   6.393   4.936
82256SOL    HW248666  14.660   6.337   5.071
82257SOL     OW48667   2.202   0.346  11.103
82257SOL    HW148668   2.167   0.416  11.048
82257SOL    HW248669   2.266   0.302  11.047
82258SOL     OW48670   1.776   7.787   0.967
82258SOL    HW148671   1.711   7.721   0.940
82258SOL    HW248672   1.852   7.770   0.911
82259SOL     OW48673   5.362   0.581   0.614
82259SOL    HW148674   5.359   0.501   0.666
82259SOL    HW248675   5.409   0.644   0.668
82260SOL     OW48676   5.653   8.185   4.792
82260SOL    HW148677   5.673   8.099   4.755
82260SOL    HW248678   5.727   8.240   4.767
82261SOL     OW48679  13.522   4.352   6.992
82261SOL    HW148680  13.516   4.258   6.975
82261SOL    HW248681  13.534   4.391   6.906
82262SOL     OW48682   6.068   2.320   2.828
82262SOL    HW148683   6.113   2.269   2.895
82262SOL    HW248684   5.978   2.330   2.861
82263SOL     OW48685  13.725   6.160  14.121
82263SOL    HW148686  13.784   6.229  14.089
82263SOL    HW248687  13.771   6.120  14.194
82264SOL     OW48688   4.723  14.285   9.322
82264SOL    HW148689   4.811  14.296   9.359
82264SOL    HW248690   4.705  14.369   9.280
82265SOL     OW48691  14.290   8.936   7.591
82265SOL    HW148692  14.384   8.922   7.585
82265SOL    HW248693  14.251   8.852   7.570
82266SOL     OW48694   6.743   8.609   7.320
82266SOL    HW148695   6.657   8.599   7.280
82266SOL    HW248696   6.803   8.621   7.246
82267SOL     OW48697   4.679   7.465   1.384
82267SOL    HW148698   4.625   7.440   1.459
82267SOL    HW248699   4.634   7.427   1.309
82268SOL     OW48700   2.357   6.751   9.467
82268SOL    HW148701   2.295   6.694   9.423
82268SOL    HW248702   2.344   6.837   9.426
82269SOL     OW48703  12.231   8.634   9.739
82269SOL    HW148704  12.228   8.631   9.643
82269SOL    HW248705  12.316   8.673   9.759
82270SOL     OW48706   0.727   7.306   4.828
82270SOL    HW148707   0.657   7.313   4.893
82270SOL    HW248708   0.681   7.290   4.745
82271SOL     OW48709   8.834   4.621   6.625
82271SOL    HW148710   8.896   4.553   6.653
82271SOL    HW248711   8.768   4.623   6.695
82272SOL     OW48712   9.046  10.581   8.482
82272SOL    HW148713   9.101  10.640   8.535
82272SOL    HW248714   9.107  10.534   8.426
82273SOL     OW48715  13.328  12.351  11.922
82273SOL    HW148716  13.344  12.392  12.007
82273SOL    HW248717  13.354  12.260  11.934
82274SOL     OW48718   5.163   9.133   5.917
82274SOL    HW148719   5.101   9.189   5.870
82274SOL    HW248720   5.216   9.093   5.848
82275SOL     OW48721   6.453  14.178   2.615
82275SOL    HW148722   6.480  14.136   2.534
82275SOL    HW248723   6.500  14.261   2.616
82276SOL     OW48724  12.181   6.705   1.894
82276SOL    HW148725  12.100   6.752   1.872
82276SOL    HW248726  12.156   6.613   1.894
82277SOL     OW48727   1.176   1.328  11.895
82277SOL    HW148728   1.094   1.283  11.878
82277SOL    HW248729   1.239   1.257  11.910
82278SOL     OW48730  10.422  14.255  12.996
82278SOL    HW148731  10.504  14.256  12.946
82278SOL    HW248732  10.356  14.228  12.933
82279SOL     OW48733   1.096   6.171   0.701
82279SOL    HW148734   1.036   6.097   0.696
82279SOL    HW248735   1.122   6.187   0.610
82280SOL     OW48736   5.104   3.736  13.089
82280SOL    HW148737   5.039   3.787  13.138
82280SOL    HW248738   5.084   3.754  12.997
82281SOL     OW48739   3.460   1.268   9.041
82281SOL    HW148740   3.398   1.202   9.013
82281SOL    HW248741   3.478   1.320   8.962
82282SOL     OW48742  10.865   8.670   2.979
82282SOL    HW148743  10.840   8.762   2.975
82282SOL    HW248744  10.876   8.644   2.887
82283SOL     OW48745   5.699  11.184   5.383
82283SOL    HW148746   5.747  11.102   5.376
82283SOL    HW248747   5.762  11.251   5.356
82284SOL     OW48748  13.798  11.637  12.098
82284SOL    HW148749  13.847  11.606  12.174
82284SOL    HW248750  13.729  11.693  12.136
82285SOL     OW48751  14.321   4.350  12.965
82285SOL    HW148752  14.264   4.286  12.923
82285SOL    HW248753  14.402   4.301  12.983
82286SOL     OW48754  10.724   7.215   6.678
82286SOL    HW148755  10.753   7.288   6.624
82286SOL    HW248756  10.726   7.139   6.619
82287SOL     OW48757   6.127  11.823   2.657
82287SOL    HW148758   6.099  11.836   2.747
82287SOL    HW248759   6.061  11.765   2.618
82288SOL     OW48760  10.244   0.266  12.950
82288SOL    HW148761  10.211   0.233  12.866
82288SOL    HW248762  10.335   0.237  12.953
82289SOL     OW48763   1.768   0.975   6.916
82289SOL    HW148764   1.757   0.913   6.844
82289SOL    HW248765   1.733   1.057   6.883
82290SOL     OW48766   2.129  13.420   2.330
82290SOL    HW148767   2.171  13.335   2.327
82290SOL    HW248768   2.036  13.402   2.315
82291SOL     OW48769  11.853   0.068  14.464
82291SOL    HW148770  11.793  14.863  14.457
82291SOL    HW248771  11.864   0.099  14.374
82292SOL     OW48772   5.369   7.605   0.716
82292SOL    HW148773   5.378   7.696   0.689
82292SOL    HW248774   5.277   7.584   0.699
82293SOL     OW48775   2.623   4.049   2.064
82293SOL    HW148776   2.566   4.008   2.129
82293SOL    HW248777   2.607   4.143   2.074
82294SOL     OW48778   1.634  13.728   5.577
82294SOL    HW148779   1.670  13.803   5.530
82294SOL    HW248780   1.597  13.672   5.508
82295SOL     OW48781  13.168   2.376   7.227
82295SOL    HW148782  13.153   2.303   7.167
82295SOL    HW248783  13.146   2.340   7.313
82296SOL     OW48784  10.784  13.770   6.991
82296SOL    HW148785  10.806  13.851   7.036
82296SOL    HW248786  10.868  13.723   6.986
82297SOL     OW48787  11.103   9.605   2.345
82297SOL    HW148788  11.047   9.619   2.421
82297SOL    HW248789  11.055   9.542   2.291
82298SOL     OW48790  14.010   1.518  13.274
82298SOL    HW148791  13.945   1.543  13.209
82298SOL    HW248792  14.020   1.595  13.330
82299SOL     OW48793   4.950  11.760   7.247
82299SOL    HW148794   5.020  11.806   7.292
82299SOL    HW248795   4.995  11.703   7.185
82300SOL     OW48796   8.113  11.589   1.131
82300SOL    HW148797   8.103  11.540   1.049
82300SOL    HW248798   8.126  11.522   1.198
82301SOL     OW48799  14.597  10.117   8.495
82301SOL    HW148800  14.528  10.052   8.489
82301SOL    HW248801  14.567  10.189   8.440
82302SOL     OW48802   6.778  10.817  13.899
82302SOL    HW148803   6.762  10.859  13.815
82302SOL    HW248804   6.872  10.826  13.913
82303SOL     OW48805   4.679  11.597   0.380
82303SOL    HW148806   4.732  11.518   0.371
82303SOL    HW248807   4.723  11.648   0.447
82304SOL     OW48808   0.693   2.821   8.971
82304SOL    HW148809   0.727   2.815   9.060
82304SOL    HW248810   0.605   2.783   8.975
82305SOL     OW48811  13.428   9.288   6.027
82305SOL    HW148812  13.418   9.204   6.072
82305SOL    HW248813  13.399   9.353   6.090
82306SOL     OW48814  11.845   8.743  12.434
82306SOL    HW148815  11.891   8.826  12.450
82306SOL    HW248816  11.753   8.768  12.429
82307SOL     OW48817   4.513   6.656   1.375
82307SOL    HW148818   4.468   6.730   1.332
82307SOL    HW248819   4.507   6.675   1.468
82308SOL     OW48820   8.544  12.671   2.309
82308SOL    HW148821   8.470  12.611   2.310
82308SOL    HW248822   8.552  12.700   2.400
82309SOL     OW48823   4.450   1.671   2.987
82309SOL    HW148824   4.412   1.711   3.066
82309SOL    HW248825   4.393   1.596   2.969
82310SOL     OW48826   4.949   5.406   8.566
82310SOL    HW148827   5.041   5.388   8.583
82310SOL    HW248828   4.916   5.442   8.648
82311SOL     OW48829  12.496   1.897   2.581
82311SOL    HW148830  12.427   1.962   2.595
82311SOL    HW248831  12.558   1.912   2.653
82312SOL     OW48832   9.893  13.839   3.495
82312SOL    HW148833   9.930  13.927   3.494
82312SOL    HW248834   9.935  13.795   3.421
82313SOL     OW48835   4.131  14.856  13.930
82313SOL    HW148836   4.128  14.760  13.925
82313SOL    HW248837   4.152   0.014  13.841
82314SOL     OW48838  14.474  10.718   0.099
82314SOL    HW148839  14.443  10.755   0.017
82314SOL    HW248840  14.569  10.711   0.087
82315SOL     OW48841   7.985   7.283   5.958
82315SOL    HW148842   7.991   7.339   6.036
82315SOL    HW248843   8.018   7.338   5.887
82316SOL     OW48844   6.405   9.331   0.851
82316SOL    HW148845   6.409   9.241   0.884
82316SOL    HW248846   6.328   9.332   0.794
82317SOL     OW48847  11.283  11.871   4.406
82317SOL    HW148848  11.309  11.931   4.475
82317SOL    HW248849  11.226  11.808   4.449
82318SOL     OW48850   0.605   5.444   0.680
82318SOL    HW148851   0.666   5.373   0.657
82318SOL    HW248852   0.588   5.489   0.598
82319SOL     OW48853  14.283  12.652   4.985
82319SOL    HW148854  14.238  12.593   5.046
82319SOL    HW248855  14.310  12.727   5.038
82320SOL     OW48856   1.346   9.630   6.302
82320SOL    HW148857   1.257   9.594   6.294
82320SOL    HW248858   1.345   9.679   6.384
82321SOL     OW48859   6.829   3.794   9.441
82321SOL    HW148860   6.891   3.849   9.489
82321SOL    HW248861   6.820   3.716   9.495
82322SOL     OW48862  13.622  12.349   8.977
82322SOL    HW148863  13.695  12.338   9.038
82322SOL    HW248864  13.634  12.436   8.939
82323SOL     OW48865   1.465   5.351  12.173
82323SOL    HW148866   1.548   5.321  12.135
82323SOL    HW248867   1.419   5.270  12.194
82324SOL     OW48868  12.359   0.021   3.716
82324SOL    HW148869  12.362  14.800   3.747
82324SOL    HW248870  12.272   0.031   3.679
82325SOL     OW48871  13.931   5.086   3.979
82325SOL    HW148872  13.938   5.111   3.887
82325SOL    HW248873  14.013   5.040   3.998
82326SOL     OW48874   1.489   0.047   6.005
82326SOL    HW148875   1.431   0.033   6.079
82326SOL    HW248876   1.573   0.009   6.032
82327SOL     OW48877   3.879  13.959   5.468
82327SOL    HW148878   3.906  14.030   5.410
82327SOL    HW248879   3.787  13.944   5.447
82328SOL     OW48880  11.755   9.294   2.271
82328SOL    HW148881  11.831   9.244   2.243
82328SOL    HW248882  11.690   9.228   2.295
82329SOL     OW48883  13.322   5.883   9.250
82329SOL    HW148884  13.240   5.929   9.268
82329SOL    HW248885  13.296   5.793   9.231
82330SOL     OW48886   1.746   8.248   7.321
82330SOL    HW148887   1.794   8.175   7.282
82330SOL    HW248888   1.785   8.326   7.280
82331SOL     OW48889   4.105   8.604   6.704
82331SOL    HW148890   4.129   8.552   6.781
82331SOL    HW248891   4.046   8.546   6.654
82332SOL     OW48892   6.230   8.887   0.500
82332SOL    HW148893   6.210   8.870   0.592
82332SOL    HW248894   6.144   8.892   0.458
82333SOL     OW48895   9.980  10.795   3.567
82333SOL    HW148896   9.901  10.762   3.611
82333SOL    HW248897   9.961  10.887   3.550
82334SOL     OW48898   4.843   0.748   6.630
82334SOL    HW148899   4.924   0.696   6.636
82334SOL    HW248900   4.841   0.778   6.539
82335SOL     OW48901   9.014   0.574   9.678
82335SOL    HW148902   9.097   0.615   9.654
82335SOL    HW248903   8.973   0.636   9.738
82336SOL     OW48904   5.528   8.993   8.604
82336SOL    HW148905   5.550   8.987   8.697
82336SOL    HW248906   5.584   9.064   8.571
82337SOL     OW48907   2.626   8.383  10.927
82337SOL    HW148908   2.554   8.359  10.984
82337SOL    HW248909   2.594   8.365  10.838
82338SOL     OW48910   2.646   2.496   2.425
82338SOL    HW148911   2.659   2.493   2.520
82338SOL    HW248912   2.681   2.413   2.393
82339SOL     OW48913  14.421   0.016  14.399
82339SOL    HW148914  14.436   0.105  14.369
82339SOL    HW248915  14.410  14.835  14.318
82340SOL     OW48916  12.171  10.762   1.743
82340SOL    HW148917  12.178  10.684   1.799
82340SOL    HW248918  12.080  10.761   1.712
82341SOL     OW48919   1.647  11.623   2.991
82341SOL    HW148920   1.720  11.562   2.985
82341SOL    HW248921   1.656  11.662   3.078
82342SOL     OW48922  13.474   5.897   1.678
82342SOL    HW148923  13.555   5.853   1.652
82342SOL    HW248924  13.448   5.947   1.601
82343SOL     OW48925   2.303  13.694   7.397
82343SOL    HW148926   2.355  13.622   7.360
82343SOL    HW248927   2.295  13.757   7.325
82344SOL     OW48928   1.950   1.297   3.585
82344SOL    HW148929   1.972   1.211   3.549
82344SOL    HW248930   1.929   1.280   3.677
82345SOL     OW48931   4.482   6.291   7.056
82345SOL    HW148932   4.458   6.379   7.085
82345SOL    HW248933   4.576   6.296   7.039
82346SOL     OW48934   5.565  11.670  13.595
82346SOL    HW148935   5.580  11.756  13.556
82346SOL    HW248936   5.533  11.616  13.522
82347SOL     OW48937  14.264   2.574  11.854
82347SOL    HW148938  14.304   2.657  11.882
82347SOL    HW248939  14.172   2.596  11.840
82348SOL     OW48940   7.191   8.650   4.924
82348SOL    HW148941   7.232   8.706   4.857
82348SOL    HW248942   7.187   8.563   4.884
82349SOL     OW48943  14.182   7.772  10.789
82349SOL    HW148944  14.237   7.698  10.814
82349SOL    HW248945  14.239   7.849  10.800
82350SOL     OW48946   4.325   0.085   3.510
82350SOL    HW148947   4.322   0.079   3.606
82350SOL    HW248948   4.418   0.098   3.490
82351SOL     OW48949   0.243   5.127   4.762
82351SOL    HW148950   0.154   5.156   4.744
82351SOL    HW248951   0.240   5.031   4.753
82352SOL     OW48952   8.187   3.059  10.213
82352SOL    HW148953   8.211   3.150  10.193
82352SOL    HW248954   8.215   3.010  10.136
82353SOL     OW48955   3.771   4.577  11.770
82353SOL    HW148956   3.686   4.601  11.808
82353SOL    HW248957   3.772   4.620  11.685
82354SOL     OW48958   3.995   7.872   7.014
82354SOL    HW148959   3.986   7.964   6.990
82354SOL    HW248960   4.084   7.849   6.989
82355SOL     OW48961   0.077   4.793  14.799
82355SOL    HW148962   0.034   4.822   0.011
82355SOL    HW248963   0.077   4.870  14.743
82356SOL     OW48964  11.642   2.086  10.716
82356SOL    HW148965  11.616   2.150  10.650
82356SOL    HW248966  11.737   2.096  10.723
82357SOL     OW48967  11.125  10.091   9.012
82357SOL    HW148968  11.101  10.105   9.104
82357SOL    HW248969  11.174  10.169   8.988
82358SOL     OW48970   4.908  11.421   9.165
82358SOL    HW148971   4.969  11.474   9.216
82358SOL    HW248972   4.830  11.476   9.156
82359SOL     OW48973  14.480   4.753  14.212
82359SOL    HW148974  14.528   4.719  14.288
82359SOL    HW248975  14.389   4.733  14.230
82360SOL     OW48976   7.366  10.871   9.511
82360SOL    HW148977   7.386  10.805   9.578
82360SOL    HW248978   7.396  10.953   9.549
82361SOL     OW48979   1.588   6.979  13.430
82361SOL    HW148980   1.657   7.001  13.492
82361SOL    HW248981   1.545   7.063  13.411
82362SOL     OW48982   2.616  13.264  10.739
82362SOL    HW148983   2.612  13.169  10.741
82362SOL    HW248984   2.664  13.285  10.659
82363SOL     OW48985   9.283  13.140   2.041
82363SOL    HW148986   9.372  13.174   2.051
82363SOL    HW248987   9.261  13.156   1.949
82364SOL     OW48988   5.478  13.777   2.491
82364SOL    HW148989   5.393  13.813   2.465
82364SOL    HW248990   5.460  13.685   2.513
82365SOL     OW48991   2.373   4.210  14.337
82365SOL    HW148992   2.284   4.240  14.318
82365SOL    HW248993   2.430   4.274  14.295
82366SOL     OW48994   6.093   9.834   7.171
82366SOL    HW148995   6.053   9.876   7.095
82366SOL    HW248996   6.186   9.832   7.151
82367SOL     OW48997   1.999  11.458   3.555
82367SOL    HW148998   2.025  11.422   3.639
82367SOL    HW248999   2.050  11.409   3.491
82368SOL     OW49000  14.591   5.403   1.223
82368SOL    HW149001  14.553   5.419   1.309
82368SOL    HW249002  14.617   5.311   1.225
82369SOL     OW49003  10.868  13.939   2.018
82369SOL    HW149004  10.839  14.010   2.075
82369SOL    HW249005  10.890  13.983   1.936
82370SOL     OW49006  10.387   5.530   0.111
82370SOL    HW149007  10.429   5.466   0.168
82370SOL    HW249008  10.446   5.605   0.111
82371SOL     OW49009   4.838   4.285   7.085
82371SOL    HW149010   4.880   4.217   7.138
82371SOL    HW249011   4.906   4.314   7.024
82372SOL     OW49012  13.638   9.881   3.387
82372SOL    HW149013  13.586   9.804   3.410
82372SOL    HW249014  13.648   9.929   3.470
82373SOL     OW49015   4.138   8.169  12.161
82373SOL    HW149016   4.082   8.241  12.187
82373SOL    HW249017   4.224   8.190  12.198
82374SOL     OW49018  11.509   4.583  13.269
82374SOL    HW149019  11.571   4.640  13.313
82374SOL    HW249020  11.432   4.582  13.326
82375SOL     OW49021   3.031   8.777   4.476
82375SOL    HW149022   3.112   8.815   4.508
82375SOL    HW249023   2.975   8.852   4.455
82376SOL     OW49024   5.096   9.618  12.944
82376SOL    HW149025   5.108   9.708  12.976
82376SOL    HW249026   5.181   9.577  12.954
82377SOL     OW49027   5.493   9.474  13.240
82377SOL    HW149028   5.543   9.538  13.290
82377SOL    HW249029   5.431   9.437  13.304
82378SOL     OW49030  13.296   9.549   6.590
82378SOL    HW149031  13.377   9.547   6.642
82378SOL    HW249032  13.303   9.628   6.537
82379SOL     OW49033   1.106   8.870  10.849
82379SOL    HW149034   1.140   8.785  10.822
82379SOL    HW249035   1.179   8.912  10.896
82380SOL     OW49036  14.776  10.335  13.208
82380SOL    HW149037  14.838  10.302  13.143
82380SOL    HW249038  14.698  10.359  13.158
82381SOL     OW49039  14.655   1.006   2.245
82381SOL    HW149040  14.727   1.009   2.183
82381SOL    HW249041  14.667   1.082   2.301
82382SOL     OW49042   5.790  11.441   9.329
82382SOL    HW149043   5.702  11.478   9.321
82382SOL    HW249044   5.791  11.368   9.267
82383SOL     OW49045   3.801   5.758  12.241
82383SOL    HW149046   3.732   5.699  12.272
82383SOL    HW249047   3.875   5.700  12.221
82384SOL     OW49048   1.795   5.848   4.222
82384SOL    HW149049   1.859   5.892   4.278
82384SOL    HW249050   1.794   5.900   4.142
82385SOL     OW49051   9.215   5.896   7.751
82385SOL    HW149052   9.236   5.809   7.785
82385SOL    HW249053   9.157   5.879   7.677
82386SOL     OW49054   3.688   7.322   9.929
82386SOL    HW149055   3.696   7.325  10.024
82386SOL    HW249056   3.734   7.400   9.898
82387SOL     OW49057   3.217  10.687  12.823
82387SOL    HW149058   3.164  10.715  12.748
82387SOL    HW249059   3.298  10.737  12.814
82388SOL     OW49060   3.327  11.661   6.613
82388SOL    HW149061   3.311  11.580   6.662
82388SOL    HW249062   3.297  11.731   6.672
82389SOL     OW49063   7.799   8.516   5.755
82389SOL    HW149064   7.754   8.505   5.671
82389SOL    HW249065   7.791   8.431   5.797
82390SOL     OW49066   7.863   1.347  13.200
82390SOL    HW149067   7.939   1.389  13.160
82390SOL    HW249068   7.804   1.329  13.126
82391SOL     OW49069   2.509  14.637   5.170
82391SOL    HW149070   2.502  14.563   5.231
82391SOL    HW249071   2.542  14.709   5.224
82392SOL     OW49072  11.502  10.407  11.504
82392SOL    HW149073  11.442  10.333  11.507
82392SOL    HW249074  11.451  10.478  11.465
82393SOL     OW49075   9.589   2.626  12.533
82393SOL    HW149076   9.586   2.557  12.466
82393SOL    HW249077   9.682   2.638  12.551
82394SOL     OW49078   0.850  14.133   5.871
82394SOL    HW149079   0.781  14.078   5.834
82394SOL    HW249080   0.868  14.199   5.804
82395SOL     OW49081  14.394   9.210   7.514
82395SOL    HW149082  14.361   9.121   7.529
82395SOL    HW249083  14.361   9.260   7.589
82396SOL     OW49084   7.251  10.229  13.377
82396SOL    HW149085   7.290  10.153  13.335
82396SOL    HW249086   7.248  10.296  13.308
82397SOL     OW49087   9.427   2.340   6.890
82397SOL    HW149088   9.398   2.312   6.803
82397SOL    HW249089   9.463   2.428   6.877
82398SOL     OW49090   9.522  14.641   7.105
82398SOL    HW149091   9.495  14.732   7.109
82398SOL    HW249092   9.504  14.606   7.192
82399SOL     OW49093   8.809  14.651  13.488
82399SOL    HW149094   8.882  14.638  13.548
82399SOL    HW249095   8.786  14.563  13.459
82400SOL     OW49096   3.338   3.639  14.758
82400SOL    HW149097   3.427   3.612  14.785
82400SOL    HW249098   3.312   3.703  14.824
82401SOL     OW49099  14.224   5.562   4.641
82401SOL    HW149100  14.251   5.635   4.696
82401SOL    HW249101  14.187   5.603   4.563
82402SOL     OW49102  12.641   5.608   7.814
82402SOL    HW149103  12.616   5.657   7.893
82402SOL    HW249104  12.733   5.587   7.827
82403SOL     OW49105   9.982  13.742   0.933
82403SOL    HW149106  10.039  13.665   0.937
82403SOL    HW249107  10.034  13.812   0.972
82404SOL     OW49108   6.724   4.237  13.108
82404SOL    HW149109   6.645   4.272  13.068
82404SOL    HW249110   6.794   4.259  13.046
82405SOL     OW49111  12.138   5.885   9.266
82405SOL    HW149112  12.062   5.925   9.224
82405SOL    HW249113  12.207   5.891   9.200
82406SOL     OW49114  13.356  12.357   3.843
82406SOL    HW149115  13.290  12.350   3.774
82406SOL    HW249116  13.438  12.329   3.801
82407SOL     OW49117   8.726   6.029  12.575
82407SOL    HW149118   8.689   6.007  12.661
82407SOL    HW249119   8.664   6.092  12.538
82408SOL     OW49120  10.217  12.681  10.055
82408SOL    HW149121  10.147  12.648  10.112
82408SOL    HW249122  10.227  12.612   9.989
82409SOL     OW49123  11.227   3.791   5.553
82409SOL    HW149124  11.315   3.780   5.517
82409SOL    HW249125  11.177   3.717   5.518
82410SOL     OW49126  14.742   1.550   7.400
82410SOL    HW149127  14.678   1.621   7.397
82410SOL    HW249128  14.825   1.591   7.377
82411SOL     OW49129   2.580   9.913  14.391
82411SOL    HW149130   2.623   9.941  14.472
82411SOL    HW249131   2.625   9.962  14.322
82412SOL     OW49132   9.131  10.428  13.547
82412SOL    HW149133   9.110  10.337  13.525
82412SOL    HW249134   9.206  10.450  13.493
82413SOL     OW49135  13.603   5.913  14.050
82413SOL    HW149136  13.553   5.871  14.120
82413SOL    HW249137  13.615   6.003  14.079
82414SOL     OW49138  12.207   2.976   8.158
82414SOL    HW149139  12.148   3.026   8.102
82414SOL    HW249140  12.293   3.018   8.146
82415SOL     OW49141   6.943   3.618   4.662
82415SOL    HW149142   6.981   3.636   4.575
82415SOL    HW249143   6.872   3.556   4.645
82416SOL     OW49144  12.221   6.524   0.216
82416SOL    HW149145  12.142   6.533   0.270
82416SOL    HW249146  12.230   6.429   0.203
82417SOL     OW49147   4.769   4.527   3.088
82417SOL    HW149148   4.755   4.540   2.994
82417SOL    HW249149   4.693   4.477   3.117
82418SOL     OW49150  12.759  13.266   9.728
82418SOL    HW149151  12.785  13.301   9.643
82418SOL    HW249152  12.683  13.210   9.709
82419SOL     OW49153   7.902   6.268  11.175
82419SOL    HW149154   7.846   6.278  11.098
82419SOL    HW249155   7.936   6.179  11.169
82420SOL     OW49156  11.210   7.904   4.751
82420SOL    HW149157  11.246   7.989   4.726
82420SOL    HW249158  11.120   7.922   4.778
82421SOL     OW49159   8.266   5.121   2.719
82421SOL    HW149160   8.193   5.089   2.666
82421SOL    HW249161   8.298   5.198   2.671
82422SOL     OW49162  11.352   0.974   6.075
82422SOL    HW149163  11.421   1.038   6.091
82422SOL    HW249164  11.346   0.924   6.156
82423SOL     OW49165  10.236   5.049   8.747
82423SOL    HW149166  10.290   5.116   8.789
82423SOL    HW249167  10.237   4.976   8.809
82424SOL     OW49168  13.413   8.877   7.671
82424SOL    HW149169  13.386   8.958   7.714
82424SOL    HW249170  13.429   8.903   7.580
82425SOL     OW49171   0.296  14.025   8.745
82425SOL    HW149172   0.231  14.080   8.789
82425SOL    HW249173   0.378  14.073   8.753
82426SOL     OW49174  13.597   1.860  12.522
82426SOL    HW149175  13.537   1.840  12.594
82426SOL    HW249176  13.684   1.847  12.560
82427SOL     OW49177   8.420  13.207   8.735
82427SOL    HW149178   8.377  13.138   8.786
82427SOL    HW249179   8.415  13.285   8.790
82428SOL     OW49180   4.792  13.338   9.687
82428SOL    HW149181   4.805  13.432   9.685
82428SOL    HW249182   4.834  13.305   9.607
82429SOL     OW49183   4.631   3.597   4.335
82429SOL    HW149184   4.606   3.557   4.418
82429SOL    HW249185   4.576   3.553   4.270
82430SOL     OW49186  12.762   2.914  13.800
82430SOL    HW149187  12.787   2.904  13.709
82430SOL    HW249188  12.668   2.930  13.798
82431SOL     OW49189   2.672   8.665  11.918
82431SOL    HW149190   2.661   8.738  11.979
82431SOL    HW249191   2.712   8.704  11.840
82432SOL     OW49192   0.598  12.549   9.446
82432SOL    HW149193   0.550  12.584   9.371
82432SOL    HW249194   0.689  12.578   9.432
82433SOL     OW49195  12.918   3.897   8.614
82433SOL    HW149196  12.869   3.907   8.695
82433SOL    HW249197  13.003   3.935   8.633
82434SOL     OW49198   8.814  11.694   9.510
82434SOL    HW149199   8.907  11.674   9.511
82434SOL    HW249200   8.775  11.627   9.567
82435SOL     OW49201  12.379  10.895   1.617
82435SOL    HW149202  12.391  10.900   1.523
82435SOL    HW249203  12.312  10.827   1.629
82436SOL     OW49204   3.279   2.520  13.752
82436SOL    HW149205   3.200   2.535  13.803
82436SOL    HW249206   3.258   2.447  13.695
82437SOL     OW49207   0.522   9.777   5.684
82437SOL    HW149208   0.530   9.872   5.688
82437SOL    HW249209   0.458   9.761   5.616
82438SOL     OW49210   5.259   5.849   9.102
82438SOL    HW149211   5.174   5.829   9.064
82438SOL    HW249212   5.251   5.940   9.132
82439SOL     OW49213   7.292   8.050   4.856
82439SOL    HW149214   7.358   8.115   4.880
82439SOL    HW249215   7.303   7.979   4.920
82440SOL     OW49216   3.887   9.568   1.191
82440SOL    HW149217   3.792   9.557   1.181
82440SOL    HW249218   3.913   9.620   1.115
82441SOL     OW49219  11.011  12.451  12.957
82441SOL    HW149220  11.019  12.444  13.053
82441SOL    HW249221  10.923  12.418  12.939
82442SOL     OW49222   3.074  11.084  11.806
82442SOL    HW149223   3.115  11.143  11.743
82442SOL    HW249224   3.147  11.053  11.861
82443SOL     OW49225  12.477  11.687   6.803
82443SOL    HW149226  12.383  11.699   6.786
82443SOL    HW249227  12.507  11.772   6.834
82444SOL     OW49228   5.623   5.379  12.959
82444SOL    HW149229   5.621   5.347  13.049
82444SOL    HW249230   5.542   5.347  12.920
82445SOL     OW49231   2.824   5.862   2.199
82445SOL    HW149232   2.794   5.926   2.264
82445SOL    HW249233   2.875   5.799   2.249
82446SOL     OW49234   9.067   5.898   2.269
82446SOL    HW149235   8.987   5.850   2.287
82446SOL    HW249236   9.114   5.843   2.206
82447SOL     OW49237   6.271   1.824  13.500
82447SOL    HW149238   6.289   1.870  13.418
82447SOL    HW249239   6.333   1.751  13.501
82448SOL     OW49240   8.365  14.544   8.454
82448SOL    HW149241   8.421  14.487   8.507
82448SOL    HW249242   8.421  14.618   8.432
82449SOL     OW49243   3.539   1.845   0.256
82449SOL    HW149244   3.582   1.766   0.225
82449SOL    HW249245   3.604   1.914   0.244
82450SOL     OW49246   3.059   6.068   3.520
82450SOL    HW149247   3.113   6.147   3.529
82450SOL    HW249248   3.106   6.001   3.569
82451SOL     OW49249   7.426   8.055  13.251
82451SOL    HW149250   7.347   8.001  13.255
82451SOL    HW249251   7.496   7.992  13.234
82452SOL     OW49252   7.572   5.677  14.181
82452SOL    HW149253   7.588   5.652  14.272
82452SOL    HW249254   7.636   5.746  14.164
82453SOL     OW49255   4.029   3.439  12.450
82453SOL    HW149256   3.997   3.529  12.441
82453SOL    HW249257   3.988   3.392  12.377
82454SOL     OW49258   3.855   9.355   5.090
82454SOL    HW149259   3.891   9.403   5.015
82454SOL    HW249260   3.763   9.343   5.069
82455SOL     OW49261   5.084  12.765  11.993
82455SOL    HW149262   5.061  12.832  11.930
82455SOL    HW249263   5.081  12.809  12.078
82456SOL     OW49264   9.092   2.687   2.825
82456SOL    HW149265   9.162   2.683   2.890
82456SOL    HW249266   9.081   2.780   2.806
82457SOL     OW49267   8.550   4.221   0.689
82457SOL    HW149268   8.468   4.248   0.731
82457SOL    HW249269   8.545   4.126   0.685
82458SOL     OW49270   2.119   4.760  11.639
82458SOL    HW149271   2.056   4.756  11.710
82458SOL    HW249272   2.138   4.669  11.618
82459SOL     OW49273  14.446   9.960   9.858
82459SOL    HW149274  14.418   9.979   9.768
82459SOL    HW249275  14.537   9.931   9.848
82460SOL     OW49276  12.245  10.145   7.765
82460SOL    HW149277  12.215  10.206   7.833
82460SOL    HW249278  12.197  10.171   7.686
82461SOL     OW49279   8.761   0.845   3.193
82461SOL    HW149280   8.769   0.858   3.098
82461SOL    HW249281   8.847   0.868   3.228
82462SOL     OW49282  14.044   2.403   6.732
82462SOL    HW149283  14.003   2.353   6.662
82462SOL    HW249284  14.000   2.489   6.729
82463SOL     OW49285   3.981   4.663   4.580
82463SOL    HW149286   3.960   4.739   4.526
82463SOL    HW249287   3.911   4.658   4.645
82464SOL     OW49288  10.428  11.482  13.535
82464SOL    HW149289  10.436  11.402  13.483
82464SOL    HW249290  10.486  11.467  13.610
82465SOL     OW49291   3.605   3.565  14.772
82465SOL    HW149292   3.645   3.482  14.798
82465SOL    HW249293   3.659   3.631  14.815
82466SOL     OW49294   6.384   9.218   6.667
82466SOL    HW149295   6.302   9.256   6.636
82466SOL    HW249296   6.423   9.178   6.589
82467SOL     OW49297   0.461   6.634   1.363
82467SOL    HW149298   0.487   6.610   1.274
82467SOL    HW249299   0.492   6.724   1.373
82468SOL     OW49300  11.306   5.111   1.874
82468SOL    HW149301  11.330   5.131   1.965
82468SOL    HW249302  11.240   5.042   1.882
82469SOL     OW49303   4.985  10.083  11.564
82469SOL    HW149304   4.913  10.145  11.573
82469SOL    HW249305   5.061  10.129  11.601
82470SOL     OW49306   8.722  12.742  12.591
82470SOL    HW149307   8.719  12.838  12.589
82470SOL    HW249308   8.815  12.721  12.580
82471SOL     OW49309   6.987   8.813   4.475
82471SOL    HW149310   6.908   8.760   4.482
82471SOL    HW249311   7.058   8.752   4.492
82472SOL     OW49312   0.755   7.929   0.537
82472SOL    HW149313   0.741   7.894   0.449
82472SOL    HW249314   0.726   8.020   0.532
82473SOL     OW49315   4.847  12.922  12.758
82473SOL    HW149316   4.916  12.987  12.762
82473SOL    HW249317   4.816  12.912  12.848
82474SOL     OW49318  11.559   0.491  10.435
82474SOL    HW149319  11.507   0.509  10.357
82474SOL    HW249320  11.635   0.548  10.427
82475SOL     OW49321   3.729  14.852  14.445
82475SOL    HW149322   3.823  14.867  14.437
82475SOL    HW249323   3.722  14.768  14.492
82476SOL     OW49324  10.072  10.314   7.035
82476SOL    HW149325  10.144  10.375   7.049
82476SOL    HW249326  10.006  10.365   6.988
82477SOL     OW49327   8.378   1.486  14.695
82477SOL    HW149328   8.284   1.473  14.708
82477SOL    HW249329   8.397   1.568  14.742
82478SOL     OW49330   4.272   0.999   0.127
82478SOL    HW149331   4.228   0.981   0.045
82478SOL    HW249332   4.361   1.024   0.102
82479SOL     OW49333  12.881   1.864   8.916
82479SOL    HW149334  12.973   1.865   8.941
82479SOL    HW249335  12.852   1.775   8.934
82480SOL     OW49336   6.907   5.660   3.986
82480SOL    HW149337   6.943   5.571   3.983
82480SOL    HW249338   6.819   5.651   3.949
82481SOL     OW49339   7.459  10.056   7.653
82481SOL    HW149340   7.403  10.111   7.708
82481SOL    HW249341   7.428   9.967   7.667
82482SOL     OW49342   0.424  13.589   3.433
82482SOL    HW149343   0.376  13.515   3.468
82482SOL    HW249344   0.506  13.552   3.400
82483SOL     OW49345   6.404  12.236   0.666
82483SOL    HW149346   6.321  12.237   0.714
82483SOL    HW249347   6.381  12.204   0.579
82484SOL     OW49348   9.287   9.631   5.666
82484SOL    HW149349   9.240   9.573   5.727
82484SOL    HW249350   9.245   9.615   5.581
82485SOL     OW49351   4.665   6.889   4.832
82485SOL    HW149352   4.745   6.844   4.807
82485SOL    HW249353   4.686   6.931   4.916
82486SOL     OW49354  11.764  12.924  12.824
82486SOL    HW149355  11.682  12.952  12.865
82486SOL    HW249356  11.748  12.934  12.730
82487SOL     OW49357   4.215   0.631  10.190
82487SOL    HW149358   4.171   0.547  10.206
82487SOL    HW249359   4.270   0.615  10.113
82488SOL     OW49360   8.875  13.904   8.649
82488SOL    HW149361   8.955  13.880   8.695
82488SOL    HW249362   8.903  13.969   8.584
82489SOL     OW49363   9.688   1.080   5.354
82489SOL    HW149364   9.685   1.088   5.259
82489SOL    HW249365   9.639   1.155   5.386
82490SOL     OW49366   1.979  10.168   6.713
82490SOL    HW149367   2.065  10.193   6.748
82490SOL    HW249368   1.943  10.109   6.780
82491SOL     OW49369  14.391   0.794   1.053
82491SOL    HW149370  14.451   0.770   1.124
82491SOL    HW249371  14.435   0.763   0.974
82492SOL     OW49372   2.983   8.022  14.093
82492SOL    HW149373   3.079   8.031  14.087
82492SOL    HW249374   2.950   8.107  14.065
82493SOL     OW49375   8.269   1.737   7.900
82493SOL    HW149376   8.258   1.789   7.820
82493SOL    HW249377   8.259   1.646   7.871
82494SOL     OW49378   6.962   7.109   9.840
82494SOL    HW149379   6.988   7.190   9.886
82494SOL    HW249380   7.031   7.097   9.775
82495SOL     OW49381   9.967   2.237   8.261
82495SOL    HW149382  10.038   2.239   8.197
82495SOL    HW249383   9.989   2.307   8.323
82496SOL     OW49384   0.128   5.805  14.781
82496SOL    HW149385   0.102   5.716  14.756
82496SOL    HW249386   0.106   5.859  14.706
82497SOL     OW49387   4.902   3.426   4.228
82497SOL    HW149388   4.882   3.516   4.202
82497SOL    HW249389   4.953   3.435   4.308
82498SOL     OW49390  11.303   5.396   5.437
82498SOL    HW149391  11.221   5.445   5.442
82498SOL    HW249392  11.283   5.311   5.476
82499SOL     OW49393  12.409  10.631   9.437
82499SOL    HW149394  12.401  10.691   9.363
82499SOL    HW249395  12.319  10.606   9.457
82500SOL     OW49396  14.663   7.459   3.176
82500SOL    HW149397  14.590   7.516   3.153
82500SOL    HW249398  14.737   7.519   3.190
82501SOL     OW49399   7.288   1.573   3.129
82501SOL    HW149400   7.227   1.512   3.171
82501SOL    HW249401   7.336   1.613   3.201
82502SOL     OW49402   2.097   6.867  12.088
82502SOL    HW149403   2.190   6.882  12.071
82502SOL    HW249404   2.072   6.798  12.027
82503SOL     OW49405  10.997  12.819   0.540
82503SOL    HW149406  10.999  12.745   0.601
82503SOL    HW249407  10.991  12.896   0.596
82504SOL     OW49408  12.006   8.198   9.268
82504SOL    HW149409  11.990   8.122   9.211
82504SOL    HW249410  12.065   8.164   9.336
82505SOL     OW49411   9.287   6.302  10.760
82505SOL    HW149412   9.247   6.231  10.809
82505SOL    HW249413   9.380   6.278  10.756
82506SOL     OW49414   4.433   8.820  12.508
82506SOL    HW149415   4.508   8.877  12.492
82506SOL    HW249416   4.472   8.743  12.550
82507SOL     OW49417  13.039  12.942  10.852
82507SOL    HW149418  12.979  12.910  10.784
82507SOL    HW249419  13.123  12.952  10.807
82508SOL     OW49420   6.370  14.435  11.865
82508SOL    HW149421   6.448  14.478  11.829
82508SOL    HW249422   6.309  14.431  11.792
82509SOL     OW49423  12.038   5.843   1.208
82509SOL    HW149424  12.068   5.934   1.215
82509SOL    HW249425  11.943   5.850   1.199
82510SOL     OW49426   5.402   8.447   9.334
82510SOL    HW149427   5.420   8.366   9.382
82510SOL    HW249428   5.465   8.510   9.369
82511SOL     OW49429   5.671   8.316  12.989
82511SOL    HW149430   5.621   8.248  12.944
82511SOL    HW249431   5.762   8.290  12.979
82512SOL     OW49432   4.013  11.840  12.264
82512SOL    HW149433   3.992  11.816  12.174
82512SOL    HW249434   3.981  11.929  12.274
82513SOL     OW49435  10.896  12.558   7.890
82513SOL    HW149436  10.840  12.632   7.868
82513SOL    HW249437  10.864  12.528   7.975
82514SOL     OW49438   5.186   5.811   5.662
82514SOL    HW149439   5.151   5.750   5.727
82514SOL    HW249440   5.267   5.770   5.633
82515SOL     OW49441  13.644  14.637  11.703
82515SOL    HW149442  13.735  14.617  11.726
82515SOL    HW249443  13.641  14.624  11.608
82516SOL     OW49444   5.049   4.531   0.658
82516SOL    HW149445   5.066   4.617   0.621
82516SOL    HW249446   5.064   4.541   0.752
82517SOL     OW49447   8.655   3.424   7.760
82517SOL    HW149448   8.734   3.375   7.781
82517SOL    HW249449   8.672   3.512   7.793
82518SOL     OW49450  11.709   7.768  11.998
82518SOL    HW149451  11.785   7.771  11.940
82518SOL    HW249452  11.664   7.852  11.982
82519SOL     OW49453   3.930  10.813   8.824
82519SOL    HW149454   3.965  10.833   8.738
82519SOL    HW249455   3.932  10.718   8.830
82520SOL     OW49456   5.800   0.035   3.030
82520SOL    HW149457   5.784  14.811   3.044
82520SOL    HW249458   5.864   0.038   2.959
82521SOL     OW49459  12.199   8.430  11.575
82521SOL    HW149460  12.147   8.368  11.523
82521SOL    HW249461  12.136   8.467  11.637
82522SOL     OW49462  10.766   0.985  10.418
82522SOL    HW149463  10.775   1.080  10.412
82522SOL    HW249464  10.688   0.965  10.365
82523SOL     OW49465  10.446   0.561   6.651
82523SOL    HW149466  10.456   0.553   6.746
82523SOL    HW249467  10.518   0.617   6.624
82524SOL     OW49468   8.579   9.836   5.326
82524SOL    HW149469   8.626   9.759   5.294
82524SOL    HW249470   8.500   9.800   5.366
82525SOL     OW49471   6.762   5.874   8.621
82525SOL    HW149472   6.757   5.817   8.698
82525SOL    HW249473   6.835   5.840   8.570
82526SOL     OW49474   8.545   6.345  10.034
82526SOL    HW149475   8.475   6.287  10.004
82526SOL    HW249476   8.563   6.401   9.959
82527SOL     OW49477  14.035  11.321   7.479
82527SOL    HW149478  14.004  11.330   7.388
82527SOL    HW249479  14.038  11.411   7.511
82528SOL     OW49480  10.699   4.200   2.291
82528SOL    HW149481  10.710   4.195   2.196
82528SOL    HW249482  10.760   4.134   2.326
82529SOL     OW49483   4.024   5.940   3.816
82529SOL    HW149484   4.106   5.957   3.771
82529SOL    HW249485   3.957   5.978   3.759
82530SOL     OW49486   2.054   0.495   3.344
82530SOL    HW149487   2.090   0.406   3.345
82530SOL    HW249488   2.051   0.518   3.251
82531SOL     OW49489   2.864   3.404   4.234
82531SOL    HW149490   2.928   3.385   4.165
82531SOL    HW249491   2.825   3.318   4.254
82532SOL     OW49492   0.137   2.221  12.664
82532SOL    HW149493   0.197   2.153  12.696
82532SOL    HW249494   0.195   2.292  12.635
82533SOL     OW49495  10.953   2.813  12.329
82533SOL    HW149496  10.963   2.812  12.424
82533SOL    HW249497  11.042   2.824  12.295
82534SOL     OW49498   1.091   5.578   9.094
82534SOL    HW149499   1.006   5.540   9.071
82534SOL    HW249500   1.083   5.671   9.071
82535SOL     OW49501   3.412   5.812  14.782
82535SOL    HW149502   3.435   5.752  14.853
82535SOL    HW249503   3.317   5.818  14.786
82536SOL     OW49504   4.528   0.601  12.905
82536SOL    HW149505   4.605   0.640  12.947
82536SOL    HW249506   4.565   0.552  12.831
82537SOL     OW49507   7.083  13.298   3.412
82537SOL    HW149508   7.070  13.376   3.465
82537SOL    HW249509   7.103  13.331   3.325
82538SOL     OW49510   9.017   4.849   4.744
82538SOL    HW149511   9.033   4.884   4.832
82538SOL    HW249512   8.929   4.881   4.722
82539SOL     OW49513  14.506   6.094  12.473
82539SOL    HW149514  14.538   6.044  12.547
82539SOL    HW249515  14.431   6.044  12.440
82540SOL     OW49516   4.955   8.818  12.577
82540SOL    HW149517   5.025   8.797  12.639
82540SOL    HW249518   4.912   8.894  12.615
82541SOL     OW49519  10.300   0.964   7.326
82541SOL    HW149520  10.238   0.894   7.305
82541SOL    HW249521  10.289   0.978   7.421
82542SOL     OW49522  14.249  10.103   7.977
82542SOL    HW149523  14.298  10.079   8.055
82542SOL    HW249524  14.253  10.025   7.921
82543SOL     OW49525  13.759   0.207   1.850
82543SOL    HW149526  13.716   0.279   1.804
82543SOL    HW249527  13.838   0.246   1.888
82544SOL     OW49528  10.429   7.653   2.821
82544SOL    HW149529  10.474   7.568   2.813
82544SOL    HW249530  10.385   7.649   2.906
82545SOL     OW49531   7.160   1.298   0.229
82545SOL    HW149532   7.118   1.364   0.283
82545SOL    HW249533   7.119   1.215   0.256
82546SOL     OW49534  12.262  13.078   1.746
82546SOL    HW149535  12.335  13.042   1.695
82546SOL    HW249536  12.219  13.002   1.784
82547SOL     OW49537   9.482  11.270  12.261
82547SOL    HW149538   9.532  11.337  12.214
82547SOL    HW249539   9.541  11.240  12.330
82548SOL     OW49540   8.331   9.733   5.458
82548SOL    HW149541   8.350   9.750   5.550
82548SOL    HW249542   8.344   9.638   5.448
82549SOL     OW49543   0.042   9.551   0.319
82549SOL    HW149544   0.008   9.621   0.374
82549SOL    HW249545   0.113   9.512   0.371
82550SOL     OW49546  10.250  13.026  10.381
82550SOL    HW149547  10.230  13.094  10.316
82550SOL    HW249548  10.242  12.944  10.333
82551SOL     OW49549   6.370   3.887   0.627
82551SOL    HW149550   6.432   3.854   0.692
82551SOL    HW249551   6.412   3.965   0.591
82552SOL     OW49552   0.930   7.874   7.836
82552SOL    HW149553   0.897   7.854   7.748
82552SOL    HW249554   0.855   7.859   7.894
82553SOL     OW49555  13.551  12.302   0.791
82553SOL    HW149556  13.480  12.239   0.777
82553SOL    HW249557  13.507  12.381   0.822
82554SOL     OW49558   5.932   9.370  13.223
82554SOL    HW149559   6.019   9.379  13.186
82554SOL    HW249560   5.917   9.452  13.271
82555SOL     OW49561   5.356   3.563  13.825
82555SOL    HW149562   5.305   3.590  13.749
82555SOL    HW249563   5.447   3.573  13.798
82556SOL     OW49564  12.243   0.509  12.205
82556SOL    HW149565  12.227   0.504  12.111
82556SOL    HW249566  12.321   0.456  12.219
82557SOL     OW49567   0.281   9.780   6.973
82557SOL    HW149568   0.360   9.818   6.935
82557SOL    HW249569   0.310   9.696   7.008
82558SOL     OW49570   2.682  10.773  14.696
82558SOL    HW149571   2.758  10.715  14.698
82558SOL    HW249572   2.607  10.714  14.706
82559SOL     OW49573   7.555   2.576  12.620
82559SOL    HW149574   7.592   2.492  12.647
82559SOL    HW249575   7.587   2.638  12.686
82560SOL     OW49576  14.472   5.714   2.577
82560SOL    HW149577  14.399   5.665   2.614
82560SOL    HW249578  14.505   5.768   2.650
82561SOL     OW49579   5.587   7.057  13.452
82561SOL    HW149580   5.640   6.991  13.496
82561SOL    HW249581   5.497   7.027  13.463
82562SOL     OW49582   6.551   0.532   2.897
82562SOL    HW149583   6.579   0.533   2.989
82562SOL    HW249584   6.459   0.560   2.900
82563SOL     OW49585  14.579   5.528   9.600
82563SOL    HW149586  14.521   5.599   9.571
82563SOL    HW249587  14.623   5.563   9.678
82564SOL     OW49588   4.217   7.150  10.210
82564SOL    HW149589   4.247   7.156  10.120
82564SOL    HW249590   4.122   7.139  10.203
82565SOL     OW49591   0.506   5.559   4.068
82565SOL    HW149592   0.507   5.567   3.972
82565SOL    HW249593   0.561   5.632   4.098
82566SOL     OW49594   1.963   5.216   3.249
82566SOL    HW149595   1.976   5.152   3.319
82566SOL    HW249596   2.007   5.178   3.173
82567SOL     OW49597  11.419  11.417   4.395
82567SOL    HW149598  11.337  11.438   4.440
82567SOL    HW249599  11.391  11.384   4.310
82568SOL     OW49600   7.642   9.345   3.462
82568SOL    HW149601   7.659   9.376   3.373
82568SOL    HW249602   7.548   9.354   3.473
82569SOL     OW49603   0.548   8.194   0.645
82569SOL    HW149604   0.612   8.230   0.585
82569SOL    HW249605   0.522   8.110   0.606
82570SOL     OW49606   1.200  10.664  12.107
82570SOL    HW149607   1.142  10.697  12.176
82570SOL    HW249608   1.142  10.649  12.033
82571SOL     OW49609  10.313  10.964   9.931
82571SOL    HW149610  10.321  10.963  10.026
82571SOL    HW249611  10.343  11.051   9.906
82572SOL     OW49612  13.644  13.486  14.451
82572SOL    HW149613  13.732  13.474  14.487
82572SOL    HW249614  13.608  13.558  14.502
82573SOL     OW49615   4.932   1.868  14.508
82573SOL    HW149616   4.919   1.936  14.575
82573SOL    HW249617   4.964   1.792  14.557
82574SOL     OW49618   6.398   7.211   1.751
82574SOL    HW149619   6.424   7.138   1.807
82574SOL    HW249620   6.365   7.277   1.812
82575SOL     OW49621  13.368  13.093   6.144
82575SOL    HW149622  13.326  13.019   6.100
82575SOL    HW249623  13.451  13.105   6.098
82576SOL     OW49624   0.786  10.892  12.418
82576SOL    HW149625   0.785  10.834  12.342
82576SOL    HW249626   0.719  10.958  12.398
82577SOL     OW49627  13.555  14.541  10.304
82577SOL    HW149628  13.590  14.574  10.387
82577SOL    HW249629  13.460  14.537  10.318
82578SOL     OW49630  11.016   1.505   6.632
82578SOL    HW149631  10.983   1.580   6.582
82578SOL    HW249632  11.081   1.464   6.574
82579SOL     OW49633  10.305  12.625   2.855
82579SOL    HW149634  10.233  12.609   2.794
82579SOL    HW249635  10.263  12.633   2.941
82580SOL     OW49636  13.215   0.982   2.280
82580SOL    HW149637  13.176   0.912   2.228
82580SOL    HW249638  13.178   1.063   2.244
82581SOL     OW49639  12.639  12.002   6.349
82581SOL    HW149640  12.600  11.941   6.286
82581SOL    HW249641  12.575  12.073   6.356
82582SOL     OW49642   5.494   9.065  14.752
82582SOL    HW149643   5.564   9.021  14.800
82582SOL    HW249644   5.440   9.105  14.820
82583SOL     OW49645   2.582   3.435   6.769
82583SOL    HW149646   2.493   3.401   6.773
82583SOL    HW249647   2.573   3.529   6.784
82584SOL     OW49648  13.546   4.375   8.394
82584SOL    HW149649  13.601   4.453   8.399
82584SOL    HW249650  13.539   4.344   8.485
82585SOL     OW49651   5.502  13.172   0.294
82585SOL    HW149652   5.462  13.210   0.372
82585SOL    HW249653   5.578  13.124   0.327
82586SOL     OW49654   4.216   3.040  10.155
82586SOL    HW149655   4.201   2.947  10.176
82586SOL    HW249656   4.197   3.086  10.236
82587SOL     OW49657   0.953   1.568  11.974
82587SOL    HW149658   0.867   1.530  11.956
82587SOL    HW249659   1.013   1.494  11.969
82588SOL     OW49660   9.993   4.782   0.485
82588SOL    HW149661  10.041   4.799   0.404
82588SOL    HW249662  10.039   4.709   0.526
82589SOL     OW49663  11.822   7.876   7.954
82589SOL    HW149664  11.741   7.899   8.001
82589SOL    HW249665  11.793   7.862   7.864
82590SOL     OW49666   5.235  11.256   0.465
82590SOL    HW149667   5.242  11.230   0.557
82590SOL    HW249668   5.276  11.343   0.462
82591SOL     OW49669   1.636   5.739  11.876
82591SOL    HW149670   1.577   5.688  11.821
82591SOL    HW249671   1.602   5.829  11.870
82592SOL     OW49672  10.523   1.869   4.680
82592SOL    HW149673  10.482   1.784   4.663
82592SOL    HW249674  10.455   1.919   4.726
82593SOL     OW49675   3.532  11.414   1.643
82593SOL    HW149676   3.576  11.329   1.645
82593SOL    HW249677   3.602  11.477   1.659
82594SOL     OW49678   7.514  13.829   2.779
82594SOL    HW149679   7.444  13.860   2.837
82594SOL    HW249680   7.474  13.824   2.693
82595SOL     OW49681   7.317  13.126   3.719
82595SOL    HW149682   7.340  13.072   3.795
82595SOL    HW249683   7.386  13.108   3.655
82596SOL     OW49684   3.172   1.043   8.526
82596SOL    HW149685   3.110   1.019   8.457
82596SOL    HW249686   3.140   0.997   8.604
82597SOL     OW49687   3.876   8.326  13.059
82597SOL    HW149688   3.870   8.235  13.087
82597SOL    HW249689   3.966   8.336  13.028
82598SOL     OW49690   4.460   1.903   5.675
82598SOL    HW149691   4.518   1.978   5.667
82598SOL    HW249692   4.382   1.927   5.625
82599SOL     OW49693  13.117   8.401  13.448
82599SOL    HW149694  13.168   8.392  13.368
82599SOL    HW249695  13.165   8.466  13.500
82600SOL     OW49696   7.860   1.397   7.216
82600SOL    HW149697   7.905   1.402   7.300
82600SOL    HW249698   7.839   1.488   7.194
82601SOL     OW49699  10.622   6.567   6.222
82601SOL    HW149700  10.568   6.585   6.300
82601SOL    HW249701  10.633   6.472   6.222
82602SOL     OW49702   3.616   9.309   4.934
82602SOL    HW149703   3.567   9.391   4.933
82602SOL    HW249704   3.592   9.265   4.852
82603SOL     OW49705  14.269   0.061   5.152
82603SOL    HW149706  14.300   0.015   5.231
82603SOL    HW249707  14.184   0.022   5.134
82604SOL     OW49708   2.687   6.807   2.383
82604SOL    HW149709   2.773   6.831   2.349
82604SOL    HW249710   2.628   6.876   2.351
82605SOL     OW49711  11.213   2.731  10.325
82605SOL    HW149712  11.199   2.707  10.417
82605SOL    HW249713  11.271   2.663  10.291
82606SOL     OW49714  12.013  12.044   0.808
82606SOL    HW149715  11.946  12.095   0.853
82606SOL    HW249716  12.089  12.103   0.803
82607SOL     OW49717   3.651   4.229   6.715
82607SOL    HW149718   3.659   4.200   6.624
82607SOL    HW249719   3.722   4.292   6.727
82608SOL     OW49720   5.845   3.143   6.957
82608SOL    HW149721   5.904   3.210   6.923
82608SOL    HW249722   5.764   3.191   6.977
82609SOL     OW49723   8.697   4.354   4.815
82609SOL    HW149724   8.612   4.399   4.811
82609SOL    HW249725   8.750   4.396   4.747
82610SOL     OW49726  11.945   1.529   9.739
82610SOL    HW149727  11.912   1.618   9.731
82610SOL    HW249728  11.903   1.495   9.818
82611SOL     OW49729  12.809   9.082   6.866
82611SOL    HW149730  12.765   9.166   6.874
82611SOL    HW249731  12.785   9.050   6.778
82612SOL     OW49732   5.077   4.913   9.836
82612SOL    HW149733   5.108   4.909   9.746
82612SOL    HW249734   5.110   4.997   9.869
82613SOL     OW49735   5.693   9.980   4.954
82613SOL    HW149736   5.686  10.031   5.034
82613SOL    HW249737   5.706   9.890   4.984
82614SOL     OW49738   3.335   8.537   7.524
82614SOL    HW149739   3.397   8.512   7.592
82614SOL    HW249740   3.356   8.629   7.505
82615SOL     OW49741   1.674   8.478  12.201
82615SOL    HW149742   1.586   8.457  12.231
82615SOL    HW249743   1.725   8.487  12.282
82616SOL     OW49744   4.549   4.855  11.589
82616SOL    HW149745   4.480   4.837  11.525
82616SOL    HW249746   4.512   4.921  11.647
82617SOL     OW49747  14.772   9.812  10.108
82617SOL    HW149748  14.816   9.742  10.155
82617SOL    HW249749  14.800   9.892  10.152
82618SOL     OW49750  13.546   8.124  13.880
82618SOL    HW149751  13.556   8.083  13.795
82618SOL    HW249752  13.452   8.130  13.894
82619SOL     OW49753   2.373   0.411   2.389
82619SOL    HW149754   2.424   0.396   2.468
82619SOL    HW249755   2.436   0.439   2.324
82620SOL     OW49756   5.413   4.279   9.961
82620SOL    HW149757   5.410   4.236  10.046
82620SOL    HW249758   5.341   4.240   9.911
82621SOL     OW49759  10.871   3.216  13.298
82621SOL    HW149760  10.797   3.155  13.302
82621SOL    HW249761  10.937   3.170  13.246
82622SOL     OW49762   7.236   3.497   5.362
82622SOL    HW149763   7.318   3.447   5.360
82622SOL    HW249764   7.193   3.470   5.444
82623SOL     OW49765   8.406   2.074   8.822
82623SOL    HW149766   8.379   2.057   8.912
82623SOL    HW249767   8.502   2.075   8.825
82624SOL     OW49768   0.981  10.077  10.148
82624SOL    HW149769   1.075  10.092  10.160
82624SOL    HW249770   0.940  10.157  10.182
82625SOL     OW49771  13.874  11.485  11.221
82625SOL    HW149772  13.914  11.570  11.201
82625SOL    HW249773  13.907  11.427  11.152
82626SOL     OW49774   5.973   4.400   2.531
82626SOL    HW149775   5.913   4.474   2.523
82626SOL    HW249776   5.957   4.366   2.619
82627SOL     OW49777   0.718  11.192   5.829
82627SOL    HW149778   0.673  11.198   5.745
82627SOL    HW249779   0.743  11.100   5.837
82628SOL     OW49780   0.715   9.514   2.581
82628SOL    HW149781   0.720   9.418   2.582
82628SOL    HW249782   0.647   9.533   2.516
82629SOL     OW49783   1.141  14.573   0.145
82629SOL    HW149784   1.054  14.575   0.184
82629SOL    HW249785   1.131  14.617   0.060
82630SOL     OW49786   9.612   1.790   8.903
82630SOL    HW149787   9.586   1.871   8.860
82630SOL    HW249788   9.538   1.731   8.890
82631SOL     OW49789  12.228  11.246   3.280
82631SOL    HW149790  12.185  11.320   3.323
82631SOL    HW249791  12.217  11.173   3.341
82632SOL     OW49792   0.483   1.508   8.343
82632SOL    HW149793   0.438   1.427   8.366
82632SOL    HW249794   0.573   1.480   8.322
82633SOL     OW49795  14.722   5.510   6.301
82633SOL    HW149796  14.716   5.422   6.262
82633SOL    HW249797  14.814   5.520   6.325
82634SOL     OW49798   3.893   8.859   5.348
82634SOL    HW149799   3.821   8.815   5.391
82634SOL    HW249800   3.862   8.877   5.259
82635SOL     OW49801   1.435   0.464  10.366
82635SOL    HW149802   1.427   0.486  10.459
82635SOL    HW249803   1.509   0.404  10.362
82636SOL     OW49804   4.555   1.338   1.669
82636SOL    HW149805   4.646   1.357   1.694
82636SOL    HW249806   4.511   1.318   1.752
82637SOL     OW49807   8.617  14.211  13.238
82637SOL    HW149808   8.658  14.259  13.166
82637SOL    HW249809   8.547  14.161  13.196
82638SOL     OW49810  13.597  13.049   7.947
82638SOL    HW149811  13.626  13.001   7.870
82638SOL    HW249812  13.657  13.123   7.953
82639SOL     OW49813   7.686  14.150  13.535
82639SOL    HW149814   7.631  14.081  13.572
82639SOL    HW249815   7.636  14.230  13.548
82640SOL     OW49816  11.517   0.568   1.711
82640SOL    HW149817  11.502   0.652   1.667
82640SOL    HW249818  11.514   0.589   1.804
82641SOL     OW49819   4.700   3.869   1.929
82641SOL    HW149820   4.701   3.823   2.013
82641SOL    HW249821   4.645   3.946   1.944
82642SOL     OW49822   4.469   0.278   9.300
82642SOL    HW149823   4.466   0.359   9.248
82642SOL    HW249824   4.456   0.209   9.235
82643SOL     OW49825   0.842  13.496   6.763
82643SOL    HW149826   0.823  13.569   6.822
82643SOL    HW249827   0.833  13.418   6.818
82644SOL     OW49828   4.070   7.390   0.839
82644SOL    HW149829   4.007   7.363   0.772
82644SOL    HW249830   4.091   7.310   0.887
82645SOL     OW49831   9.803  13.435   9.478
82645SOL    HW149832   9.844  13.477   9.403
82645SOL    HW249833   9.712  13.463   9.475
82646SOL     OW49834   0.042   0.172   2.001
82646SOL    HW149835  14.868   0.208   1.923
82646SOL    HW249836   0.095   0.244   2.034
82647SOL     OW49837   6.272   7.811   5.969
82647SOL    HW149838   6.194   7.811   5.914
82647SOL    HW249839   6.339   7.765   5.918
82648SOL     OW49840  14.425   8.265   4.427
82648SOL    HW149841  14.413   8.188   4.372
82648SOL    HW249842  14.520   8.282   4.425
82649SOL     OW49843  10.191  11.932   3.805
82649SOL    HW149844  10.148  11.852   3.835
82649SOL    HW249845  10.272  11.902   3.763
82650SOL     OW49846   2.826   2.913   9.172
82650SOL    HW149847   2.753   2.968   9.145
82650SOL    HW249848   2.788   2.826   9.183
82651SOL     OW49849   3.122   1.391   7.358
82651SOL    HW149850   3.167   1.377   7.275
82651SOL    HW249851   3.116   1.486   7.366
82652SOL     OW49852  13.856  12.112   2.910
82652SOL    HW149853  13.771  12.069   2.897
82652SOL    HW249854  13.908  12.049   2.959
82653SOL     OW49855   4.954   2.332   0.482
82653SOL    HW149856   4.992   2.290   0.559
82653SOL    HW249857   4.963   2.426   0.499
82654SOL     OW49858   4.787  12.303  13.712
82654SOL    HW149859   4.874  12.266  13.697
82654SOL    HW249860   4.796  12.354  13.792
82655SOL     OW49861   0.817   5.610  13.084
82655SOL    HW149862   0.749   5.623  13.018
82655SOL    HW249863   0.899   5.620  13.036
82656SOL     OW49864   6.857  13.625   0.627
82656SOL    HW149865   6.942  13.647   0.664
82656SOL    HW249866   6.799  13.614   0.703
82657SOL     OW49867  14.303   7.444  11.170
82657SOL    HW149868  14.367   7.506  11.205
82657SOL    HW249869  14.313   7.366  11.225
82658SOL     OW49870  11.138   3.244   0.718
82658SOL    HW149871  11.045   3.269   0.713
82658SOL    HW249872  11.142   3.182   0.790
82659SOL     OW49873   0.135  10.991  11.696
82659SOL    HW149874   0.195  10.926  11.659
82659SOL    HW249875   0.104  10.952  11.778
82660SOL     OW49876   1.946  12.671   3.578
82660SOL    HW149877   1.995  12.603   3.625
82660SOL    HW249878   1.968  12.752   3.624
82661SOL     OW49879   2.793  11.800   1.755
82661SOL    HW149880   2.752  11.873   1.801
82661SOL    HW249881   2.729  11.729   1.761
82662SOL     OW49882  14.731   5.108   5.333
82662SOL    HW149883  14.669   5.052   5.286
82662SOL    HW249884  14.737   5.187   5.278
82663SOL     OW49885   8.666  11.161   6.102
82663SOL    HW149886   8.650  11.083   6.156
82663SOL    HW249887   8.717  11.128   6.028
82664SOL     OW49888  10.740   5.186   5.839
82664SOL    HW149889  10.720   5.278   5.857
82664SOL    HW249890  10.703   5.171   5.752
82665SOL     OW49891   0.587   1.830   0.823
82665SOL    HW149892   0.523   1.759   0.833
82665SOL    HW249893   0.613   1.851   0.913
82666SOL     OW49894   0.346   3.643   1.688
82666SOL    HW149895   0.380   3.597   1.765
82666SOL    HW249896   0.269   3.591   1.663
82667SOL     OW49897   5.583   4.088   5.103
82667SOL    HW149898   5.659   4.117   5.154
82667SOL    HW249899   5.594   4.128   5.017
82668SOL     OW49900   9.018  13.752  11.022
82668SOL    HW149901   8.939  13.753  10.967
82668SOL    HW249902   9.044  13.660  11.026
82669SOL     OW49903   3.889  12.933  12.173
82669SOL    HW149904   3.931  12.941  12.088
82669SOL    HW249905   3.916  12.847  12.205
82670SOL     OW49906   4.388   3.109   7.894
82670SOL    HW149907   4.327   3.076   7.960
82670SOL    HW249908   4.333   3.163   7.837
82671SOL     OW49909  10.049  12.081   1.638
82671SOL    HW149910  10.030  12.123   1.721
82671SOL    HW249911   9.996  12.001   1.638
82672SOL     OW49912   7.293  13.200   1.271
82672SOL    HW149913   7.224  13.193   1.204
82672SOL    HW249914   7.366  13.149   1.235
82673SOL     OW49915   1.725  14.831   2.621
82673SOL    HW149916   1.704  14.806   2.531
82673SOL    HW249917   1.686   0.049   2.631
82674SOL     OW49918   7.697  12.122  11.065
82674SOL    HW149919   7.779  12.163  11.092
82674SOL    HW249920   7.632  12.191  11.071
82675SOL     OW49921   6.147   6.530   0.671
82675SOL    HW149922   6.149   6.564   0.760
82675SOL    HW249923   6.077   6.464   0.672
82676SOL     OW49924   0.972   2.685  10.657
82676SOL    HW149925   0.889   2.700  10.611
82676SOL    HW249926   0.967   2.741  10.735
82677SOL     OW49927   2.349  11.959  12.487
82677SOL    HW149928   2.285  11.972  12.416
82677SOL    HW249929   2.310  12.005  12.561
82678SOL     OW49930   8.941  13.469   3.599
82678SOL    HW149931   8.991  13.551   3.608
82678SOL    HW249932   9.006  13.400   3.611
82679SOL     OW49933   9.240  13.152   6.910
82679SOL    HW149934   9.199  13.205   6.978
82679SOL    HW249935   9.179  13.155   6.836
82680SOL     OW49936  12.110   2.553   6.244
82680SOL    HW149937  12.027   2.577   6.285
82680SOL    HW249938  12.176   2.603   6.293
82681SOL     OW49939   5.523   9.598   0.114
82681SOL    HW149940   5.449   9.551   0.154
82681SOL    HW249941   5.489   9.687   0.099
82682SOL     OW49942   9.393   1.650   8.887
82682SOL    HW149943   9.340   1.591   8.941
82682SOL    HW249944   9.332   1.684   8.822
82683SOL     OW49945   7.594   7.659   3.833
82683SOL    HW149946   7.540   7.580   3.844
82683SOL    HW249947   7.588   7.704   3.918
82684SOL     OW49948  12.580   0.088   0.595
82684SOL    HW149949  12.634   0.048   0.663
82684SOL    HW249950  12.497   0.107   0.639
82685SOL     OW49951  13.647  14.748   4.003
82685SOL    HW149952  13.698  14.731   4.083
82685SOL    HW249953  13.572  14.689   4.009
82686SOL     OW49954  12.901  11.025   8.419
82686SOL    HW149955  12.984  11.040   8.373
82686SOL    HW249956  12.913  10.942   8.464
82687SOL     OW49957  12.346   3.739   7.581
82687SOL    HW149958  12.354   3.734   7.486
82687SOL    HW249959  12.275   3.800   7.596
82688SOL     OW49960   5.262   9.854  13.514
82688SOL    HW149961   5.354   9.829  13.509
82688SOL    HW249962   5.223   9.819  13.434
82689SOL     OW49963   2.077  10.800   5.381
82689SOL    HW149964   2.121  10.821   5.299
82689SOL    HW249965   1.992  10.843   5.375
82690SOL     OW49966   3.439  12.119   2.614
82690SOL    HW149967   3.523  12.075   2.621
82690SOL    HW249968   3.431  12.169   2.695
82691SOL     OW49969  11.175   1.333  12.462
82691SOL    HW149970  11.184   1.238  12.452
82691SOL    HW249971  11.090   1.344  12.504
82692SOL     OW49972   0.340   6.275  14.727
82692SOL    HW149973   0.359   6.368  14.716
82692SOL    HW249974   0.285   6.252  14.652
82693SOL     OW49975  11.441   9.681   4.704
82693SOL    HW149976  11.496   9.619   4.657
82693SOL    HW249977  11.355   9.674   4.662
82694SOL     OW49978  14.591   3.786  10.741
82694SOL    HW149979  14.503   3.771  10.775
82694SOL    HW249980  14.646   3.723  10.787
82695SOL     OW49981   2.976   8.761  12.383
82695SOL    HW149982   3.071   8.753  12.392
82695SOL    HW249983   2.953   8.836  12.438
82696SOL     OW49984   6.047   9.961   0.933
82696SOL    HW149985   6.090   9.957   1.019
82696SOL    HW249986   6.039   9.870   0.907
82697SOL     OW49987   9.987   0.226   8.901
82697SOL    HW149988  10.066   0.254   8.947
82697SOL    HW249989  10.016   0.152   8.847
82698SOL     OW49990  10.324  12.544   3.357
82698SOL    HW149991  10.338  12.575   3.446
82698SOL    HW249992  10.397  12.579   3.307
82699SOL     OW49993  14.422   4.692   7.122
82699SOL    HW149994  14.502   4.648   7.090
82699SOL    HW249995  14.360   4.683   7.050
82700SOL     OW49996   5.468   3.262   1.865
82700SOL    HW149997   5.414   3.242   1.942
82700SOL    HW249998   5.444   3.352   1.842
82701SOL     OW49999   1.152   2.845   1.171
82701SOL    HW150000   1.203   2.781   1.222
82701SOL    HW250001   1.153   2.924   1.224
82702SOL     OW50002   0.079   2.615  11.011
82702SOL    HW150003   0.008   2.554  10.992
82702SOL    HW250004   0.035   2.698  11.028
82703SOL     OW50005   6.586   4.004   0.234
82703SOL    HW150006   6.491   4.012   0.236
82703SOL    HW250007   6.610   4.028   0.144
82704SOL     OW50008   4.615  14.336  13.132
82704SOL    HW150009   4.556  14.410  13.123
82704SOL    HW250010   4.563  14.269  13.177
82705SOL     OW50011  12.085  12.810   5.857
82705SOL    HW150012  12.148  12.845   5.919
82705SOL    HW250013  12.095  12.865   5.779
82706SOL     OW50014   6.953   2.348   0.065
82706SOL    HW150015   6.926   2.426   0.113
82706SOL    HW250016   6.943   2.276   0.128
82707SOL     OW50017  12.085   8.966   0.210
82707SOL    HW150018  12.165   9.007   0.176
82707SOL    HW250019  12.028   9.039   0.232
82708SOL     OW50020  11.897   4.456   0.364
82708SOL    HW150021  11.846   4.378   0.384
82708SOL    HW250022  11.912   4.452   0.270
82709SOL     OW50023   4.673   8.569  11.293
82709SOL    HW150024   4.599   8.623  11.264
82709SOL    HW250025   4.745   8.594  11.235
82710SOL     OW50026   3.546   3.574   0.779
82710SOL    HW150027   3.631   3.531   0.779
82710SOL    HW250028   3.493   3.524   0.717
82711SOL     OW50029  13.819  11.423  13.072
82711SOL    HW150030  13.799  11.337  13.036
82711SOL    HW250031  13.787  11.418  13.163
82712SOL     OW50032   1.391   4.823   6.249
82712SOL    HW150033   1.385   4.894   6.185
82712SOL    HW250034   1.435   4.862   6.324
82713SOL     OW50035  12.276   0.795   7.740
82713SOL    HW150036  12.358   0.774   7.695
82713SOL    HW250037  12.222   0.716   7.730
82714SOL     OW50038   9.115   7.350   1.812
82714SOL    HW150039   9.052   7.283   1.784
82714SOL    HW250040   9.081   7.380   1.896
82715SOL     OW50041   3.773   7.565  14.793
82715SOL    HW150042   3.770   7.638  14.855
82715SOL    HW250043   3.786   7.606  14.708
82716SOL     OW50044   0.327  10.416   9.548
82716SOL    HW150045   0.357  10.455   9.466
82716SOL    HW250046   0.241  10.453   9.563
82717SOL     OW50047  13.076   1.378   3.720
82717SOL    HW150048  13.163   1.418   3.717
82717SOL    HW250049  13.018   1.450   3.746
82718SOL     OW50050   3.433   3.664  10.068
82718SOL    HW150051   3.351   3.712  10.058
82718SOL    HW250052   3.481   3.712  10.135
82719SOL     OW50053   1.866  12.308  10.300
82719SOL    HW150054   1.949  12.347  10.273
82719SOL    HW250055   1.869  12.220  10.265
82720SOL     OW50056   5.356   8.361   3.650
82720SOL    HW150057   5.342   8.438   3.594
82720SOL    HW250058   5.361   8.398   3.739
82721SOL     OW50059   4.912  13.846   2.332
82721SOL    HW150060   4.839  13.800   2.373
82721SOL    HW250061   4.984  13.784   2.336
82722SOL     OW50062  13.464   3.611  12.068
82722SOL    HW150063  13.478   3.687  12.011
82722SOL    HW250064  13.471   3.536  12.010
82723SOL     OW50065   1.056   7.718   4.362
82723SOL    HW150066   1.127   7.744   4.420
82723SOL    HW250067   0.993   7.790   4.366
82724SOL     OW50068   6.737   6.556   0.187
82724SOL    HW150069   6.689   6.638   0.201
82724SOL    HW250070   6.786   6.572   0.105
82725SOL     OW50071   2.422   9.196   6.249
82725SOL    HW150072   2.403   9.289   6.233
82725SOL    HW250073   2.362   9.170   6.318
82726SOL     OW50074  14.473   7.291  10.795
82726SOL    HW150075  14.558   7.267  10.831
82726SOL    HW250076  14.494   7.339  10.715
82727SOL     OW50077   0.994  13.064   3.184
82727SOL    HW150078   1.027  13.150   3.156
82727SOL    HW250079   0.899  13.075   3.185
82728SOL     OW50080   9.730   5.735   0.855
82728SOL    HW150081   9.727   5.649   0.813
82728SOL    HW250082   9.653   5.781   0.822
82729SOL     OW50083   6.211   9.513   1.453
82729SOL    HW150084   6.157   9.539   1.528
82729SOL    HW250085   6.160   9.538   1.376
82730SOL     OW50086   3.502   6.057  10.585
82730SOL    HW150087   3.557   6.089  10.656
82730SOL    HW250088   3.516   5.962  10.585
82731SOL     OW50089   5.286   0.058  12.425
82731SOL    HW150090   5.319  14.849  12.381
82731SOL    HW250091   5.232   0.026  12.496
82732SOL     OW50092  10.113  12.978   7.292
82732SOL    HW150093  10.161  12.939   7.220
82732SOL    HW250094  10.105  12.908   7.357
82733SOL     OW50095  12.723  13.153   9.209
82733SOL    HW150096  12.705  13.233   9.160
82733SOL    HW250097  12.761  13.093   9.145
82734SOL     OW50098  10.434  12.401   2.672
82734SOL    HW150099  10.407  12.311   2.690
82734SOL    HW250100  10.528  12.402   2.692
82735SOL     OW50101   2.647   9.913   2.562
82735SOL    HW150102   2.710   9.842   2.576
82735SOL    HW250103   2.608   9.894   2.477
82736SOL     OW50104   6.161   3.985  11.837
82736SOL    HW150105   6.201   3.972  11.750
82736SOL    HW250106   6.067   3.984  11.820
82737SOL     OW50107  11.366  12.316   2.492
82737SOL    HW150108  11.441  12.289   2.440
82737SOL    HW250109  11.351  12.408   2.467
82738SOL     OW50110   0.802  11.528   2.855
82738SOL    HW150111   0.837  11.603   2.806
82738SOL    HW250112   0.725  11.501   2.806
82739SOL     OW50113   5.938  14.802   7.734
82739SOL    HW150114   5.882  14.783   7.658
82739SOL    HW250115   5.915  14.734   7.798
82740SOL     OW50116   1.915   4.564   4.921
82740SOL    HW150117   1.865   4.503   4.974
82740SOL    HW250118   1.967   4.509   4.863
82741SOL     OW50119  12.260  10.269  11.414
82741SOL    HW150120  12.344  10.232  11.441
82741SOL    HW250121  12.203  10.194  11.402
82742SOL     OW50122   3.716  11.959  11.916
82742SOL    HW150123   3.797  11.998  11.884
82742SOL    HW250124   3.717  11.977  12.011
82743SOL     OW50125  11.816  12.839   7.682
82743SOL    HW150126  11.772  12.784   7.747
82743SOL    HW250127  11.909  12.826   7.699
82744SOL     OW50128   4.511   4.516   7.886
82744SOL    HW150129   4.575   4.498   7.955
82744SOL    HW250130   4.498   4.610   7.888
82745SOL     OW50131   9.929   0.434   3.101
82745SOL    HW150132   9.858   0.437   3.037
82745SOL    HW250133  10.001   0.391   3.055
82746SOL     OW50134   1.191   6.906   2.230
82746SOL    HW150135   1.281   6.887   2.206
82746SOL    HW250136   1.187   6.888   2.324
82747SOL     OW50137   4.948   6.731   9.291
82747SOL    HW150138   4.949   6.731   9.195
82747SOL    HW250139   4.947   6.824   9.314
82748SOL     OW50140  12.856  11.879   2.058
82748SOL    HW150141  12.764  11.907   2.059
82748SOL    HW250142  12.895  11.922   2.133
82749SOL     OW50143  13.861   2.881  11.064
82749SOL    HW150144  13.786   2.912  11.013
82749SOL    HW250145  13.862   2.787  11.049
82750SOL     OW50146  12.493   9.537   4.292
82750SOL    HW150147  12.406   9.498   4.280
82750SOL    HW250148  12.549   9.489   4.232
82751SOL     OW50149   7.159   5.796   6.262
82751SOL    HW150150   7.238   5.743   6.270
82751SOL    HW250151   7.184   5.882   6.295
82752SOL     OW50152   5.843   0.579   2.718
82752SOL    HW150153   5.901   0.504   2.724
82752SOL    HW250154   5.856   0.614   2.630
82753SOL     OW50155   4.515   1.745   8.246
82753SOL    HW150156   4.591   1.802   8.253
82753SOL    HW250157   4.505   1.706   8.333
82754SOL     OW50158   8.221  10.464   0.934
82754SOL    HW150159   8.126  10.472   0.940
82754SOL    HW250160   8.237  10.437   0.844
82755SOL     OW50161   6.432   4.067   6.723
82755SOL    HW150162   6.345   4.090   6.692
82755SOL    HW250163   6.488   4.074   6.646
82756SOL     OW50164   0.846   7.184  12.990
82756SOL    HW150165   0.797   7.122  12.935
82756SOL    HW250166   0.922   7.134  13.019
82757SOL     OW50167   9.671   9.159  13.015
82757SOL    HW150168   9.605   9.150  12.947
82757SOL    HW250169   9.736   9.218  12.977
82758SOL     OW50170   5.398  11.857   3.350
82758SOL    HW150171   5.327  11.880   3.290
82758SOL    HW250172   5.432  11.775   3.315
82759SOL     OW50173  13.514   2.432  11.200
82759SOL    HW150174  13.601   2.399  11.224
82759SOL    HW250175  13.505   2.513  11.251
82760SOL     OW50176   1.687   4.088   3.896
82760SOL    HW150177   1.657   4.115   3.809
82760SOL    HW250178   1.624   4.128   3.956
82761SOL     OW50179   5.931   9.992   3.650
82761SOL    HW150180   5.993   9.962   3.717
82761SOL    HW250181   5.985  10.040   3.588
82762SOL     OW50182   6.154   6.661   9.840
82762SOL    HW150183   6.189   6.600   9.775
82762SOL    HW250184   6.121   6.605   9.910
82763SOL     OW50185   9.280   1.960   0.821
82763SOL    HW150186   9.199   1.961   0.770
82763SOL    HW250187   9.311   2.050   0.818
82764SOL     OW50188   3.508  13.419   2.444
82764SOL    HW150189   3.485  13.426   2.352
82764SOL    HW250190   3.538  13.506   2.469
82765SOL     OW50191  14.718  11.863   7.003
82765SOL    HW150192  14.754  11.804   7.070
82765SOL    HW250193  14.672  11.930   7.052
82766SOL     OW50194   2.883   3.273   8.817
82766SOL    HW150195   2.950   3.234   8.761
82766SOL    HW250196   2.801   3.238   8.784
82767SOL     OW50197   0.374   5.188   0.044
82767SOL    HW150198   0.311   5.216  14.847
82767SOL    HW250199   0.386   5.095   0.029
82768SOL     OW50200   9.666   6.308  11.888
82768SOL    HW150201   9.716   6.321  11.807
82768SOL    HW250202   9.682   6.387  11.939
82769SOL     OW50203   7.581   4.217   3.165
82769SOL    HW150204   7.640   4.235   3.238
82769SOL    HW250205   7.585   4.122   3.153
82770SOL     OW50206   7.938   6.638   4.440
82770SOL    HW150207   8.017   6.585   4.455
82770SOL    HW250208   7.965   6.702   4.374
82771SOL     OW50209  11.990   9.984   5.682
82771SOL    HW150210  12.045  10.046   5.634
82771SOL    HW250211  11.907  10.030   5.692
82772SOL     OW50212   8.364   8.449   7.417
82772SOL    HW150213   8.409   8.531   7.394
82772SOL    HW250214   8.434   8.392   7.450
82773SOL     OW50215   1.221  13.296   9.550
82773SOL    HW150216   1.163  13.371   9.543
82773SOL    HW250217   1.219  13.271   9.642
82774SOL     OW50218   0.369   9.550  14.447
82774SOL    HW150219   0.288   9.583  14.407
82774SOL    HW250220   0.410   9.627  14.486
82775SOL     OW50221   2.684  11.087  13.098
82775SOL    HW150222   2.675  11.067  13.005
82775SOL    HW250223   2.712  11.178  13.101
82776SOL     OW50224   0.347   2.665   9.976
82776SOL    HW150225   0.298   2.747   9.972
82776SOL    HW250226   0.285   2.602  10.014
82777SOL     OW50227  13.228  12.485   9.919
82777SOL    HW150228  13.292  12.451   9.857
82777SOL    HW250229  13.149  12.434   9.904
82778SOL     OW50230   9.364   6.257  11.483
82778SOL    HW150231   9.429   6.246  11.413
82778SOL    HW250232   9.281   6.265  11.436
82779SOL     OW50233   6.074  11.190  14.293
82779SOL    HW150234   5.992  11.222  14.331
82779SOL    HW250235   6.047  11.122  14.231
82780SOL     OW50236   7.659  14.296   1.546
82780SOL    HW150237   7.683  14.226   1.485
82780SOL    HW250238   7.622  14.365   1.491
82781SOL     OW50239   1.626  13.668   2.099
82781SOL    HW150240   1.562  13.628   2.040
82781SOL    HW250241   1.711  13.647   2.059
82782SOL     OW50242   4.622   2.780  10.107
82782SOL    HW150243   4.624   2.784  10.203
82782SOL    HW250244   4.701   2.828  10.079
82783SOL     OW50245   1.049   6.852   1.341
82783SOL    HW150246   1.130   6.821   1.301
82783SOL    HW250247   0.983   6.789   1.311
82784SOL     OW50248   8.933   0.474   0.548
82784SOL    HW150249   8.852   0.522   0.567
82784SOL    HW250250   8.987   0.536   0.499
82785SOL     OW50251   0.530   4.501   3.509
82785SOL    HW150252   0.502   4.465   3.593
82785SOL    HW250253   0.459   4.481   3.449
82786SOL     OW50254  10.382  11.723   2.331
82786SOL    HW150255  10.360  11.641   2.374
82786SOL    HW250256  10.444  11.766   2.390
82787SOL     OW50257   0.611   1.120   7.217
82787SOL    HW150258   0.701   1.129   7.186
82787SOL    HW250259   0.559   1.176   7.158
82788SOL     OW50260   0.867   1.688   0.527
82788SOL    HW150261   0.953   1.685   0.569
82788SOL    HW250262   0.829   1.771   0.556
82789SOL     OW50263   0.552   9.457   2.097
82789SOL    HW150264   0.609   9.419   2.165
82789SOL    HW250265   0.545   9.549   2.121
82790SOL     OW50266   2.747  12.681   0.666
82790SOL    HW150267   2.810  12.626   0.713
82790SOL    HW250268   2.774  12.771   0.686
82791SOL     OW50269  14.567   5.603   1.708
82791SOL    HW150270  14.647   5.652   1.686
82791SOL    HW250271  14.496   5.658   1.675
82792SOL     OW50272   4.770   8.921   2.938
82792SOL    HW150273   4.717   8.997   2.961
82792SOL    HW250274   4.860   8.947   2.959
82793SOL     OW50275  10.343   4.351  13.668
82793SOL    HW150276  10.349   4.319  13.758
82793SOL    HW250277  10.332   4.271  13.615
82794SOL     OW50278  12.686   6.399  10.954
82794SOL    HW150279  12.631   6.373  11.028
82794SOL    HW250280  12.677   6.494  10.950
82795SOL     OW50281   9.812   9.286   4.708
82795SOL    HW150282   9.748   9.222   4.739
82795SOL    HW250283   9.759   9.357   4.672
82796SOL     OW50284  12.638  11.294  12.792
82796SOL    HW150285  12.557  11.320  12.835
82796SOL    HW250286  12.706  11.310  12.858
82797SOL     OW50287   1.124   2.387   0.719
82797SOL    HW150288   1.105   2.480   0.731
82797SOL    HW250289   1.186   2.366   0.789
82798SOL     OW50290  10.761   3.838   6.219
82798SOL    HW150291  10.725   3.925   6.204
82798SOL    HW250292  10.856   3.851   6.219
82799SOL     OW50293   9.093  11.247   4.133
82799SOL    HW150294   9.034  11.219   4.203
82799SOL    HW250295   9.180  11.218   4.162
82800SOL     OW50296   8.152  13.499   5.668
82800SOL    HW150297   8.199  13.417   5.653
82800SOL    HW250298   8.213  13.567   5.639
82801SOL     OW50299   8.840   8.299  10.270
82801SOL    HW150300   8.835   8.370  10.333
82801SOL    HW250301   8.777   8.322  10.202
82802SOL     OW50302   8.218  10.048   3.787
82802SOL    HW150303   8.262   9.987   3.727
82802SOL    HW250304   8.249  10.022   3.874
82803SOL     OW50305   0.875  11.108   3.565
82803SOL    HW150306   0.904  11.081   3.478
82803SOL    HW250307   0.910  11.197   3.575
82804SOL     OW50308   1.445   5.781  10.021
82804SOL    HW150309   1.473   5.861  10.065
82804SOL    HW250310   1.526   5.731  10.009
82805SOL     OW50311   1.014  11.835   4.148
82805SOL    HW150312   1.001  11.920   4.107
82805SOL    HW250313   1.032  11.775   4.075
82806SOL     OW50314   2.520  14.141  10.862
82806SOL    HW150315   2.563  14.148  10.948
82806SOL    HW250316   2.429  14.166  10.879
82807SOL     OW50317  10.348  14.573   3.462
82807SOL    HW150318  10.360  14.665   3.439
82807SOL    HW250319  10.281  14.574   3.531
82808SOL     OW50320  11.242  14.002  11.650
82808SOL    HW150321  11.253  13.979  11.743
82808SOL    HW250322  11.159  14.048  11.646
82809SOL     OW50323  12.445   6.550  14.021
82809SOL    HW150324  12.408   6.502  13.947
82809SOL    HW250325  12.522   6.594  13.984
82810SOL     OW50326  13.476   3.856   6.060
82810SOL    HW150327  13.396   3.807   6.044
82810SOL    HW250328  13.446   3.936   6.103
82811SOL     OW50329  11.112   3.360   2.550
82811SOL    HW150330  11.121   3.325   2.462
82811SOL    HW250331  11.197   3.398   2.570
82812SOL     OW50332  14.863   9.071   4.534
82812SOL    HW150333  14.852   9.146   4.475
82812SOL    HW250334  14.795   9.083   4.600
82813SOL     OW50335   8.101   4.790  11.608
82813SOL    HW150336   8.185   4.753  11.580
82813SOL    HW250337   8.113   4.885  11.603
82814SOL     OW50338  14.740   2.074  11.187
82814SOL    HW150339  14.755   2.047  11.277
82814SOL    HW250340  14.672   2.142  11.193
82815SOL     OW50341   8.040  10.381   2.603
82815SOL    HW150342   8.125  10.367   2.644
82815SOL    HW250343   8.034  10.476   2.593
82816SOL     OW50344  13.000  10.990   1.492
82816SOL    HW150345  12.925  11.034   1.531
82816SOL    HW250346  12.986  10.897   1.510
82817SOL     OW50347  11.592   5.842   6.365
82817SOL    HW150348  11.677   5.861   6.403
82817SOL    HW250349  11.537   5.916   6.390
82818SOL     OW50350   2.077   3.758   7.491
82818SOL    HW150351   2.130   3.738   7.568
82818SOL    HW250352   2.115   3.839   7.456
82819SOL     OW50353   9.615   3.165   2.829
82819SOL    HW150354   9.545   3.159   2.765
82819SOL    HW250355   9.695   3.161   2.778
82820SOL     OW50356   4.060   2.784   0.335
82820SOL    HW150357   3.983   2.758   0.284
82820SOL    HW250358   4.041   2.873   0.363
82821SOL     OW50359  10.817   3.162  10.598
82821SOL    HW150360  10.897   3.139  10.646
82821SOL    HW250361  10.829   3.122  10.512
82822SOL     OW50362   7.402   6.395   3.247
82822SOL    HW150363   7.383   6.474   3.297
82822SOL    HW250364   7.497   6.383   3.256
82823SOL     OW50365  11.391   9.784   3.992
82823SOL    HW150366  11.401   9.815   4.082
82823SOL    HW250367  11.349   9.857   3.946
82824SOL     OW50368   6.206  14.024   2.935
82824SOL    HW150369   6.217  13.929   2.928
82824SOL    HW250370   6.153  14.036   3.013
82825SOL     OW50371   1.624   2.625   0.572
82825SOL    HW150372   1.564   2.698   0.587
82825SOL    HW250373   1.567   2.551   0.550
82826SOL     OW50374   4.177   5.213   4.745
82826SOL    HW150375   4.098   5.240   4.697
82826SOL    HW250376   4.145   5.152   4.811
82827SOL     OW50377  11.879   7.558   6.327
82827SOL    HW150378  11.931   7.533   6.403
82827SOL    HW250379  11.855   7.476   6.285
82828SOL     OW50380  14.235   2.073  13.175
82828SOL    HW150381  14.192   1.999  13.132
82828SOL    HW250382  14.203   2.149  13.126
82829SOL     OW50383   6.272   5.256   9.285
82829SOL    HW150384   6.211   5.254   9.358
82829SOL    HW250385   6.237   5.194   9.222
82830SOL     OW50386   8.193   3.489   4.914
82830SOL    HW150387   8.141   3.518   4.989
82830SOL    HW250388   8.200   3.566   4.858
82831SOL     OW50389   7.006  11.571   2.332
82831SOL    HW150390   7.073  11.531   2.277
82831SOL    HW250391   6.977  11.647   2.281
82832SOL     OW50392  10.322  10.680   8.988
82832SOL    HW150393  10.380  10.707   9.059
82832SOL    HW250394  10.289  10.595   9.016
82833SOL     OW50395   5.186   0.340   3.341
82833SOL    HW150396   5.225   0.270   3.393
82833SOL    HW250397   5.165   0.409   3.404
82834SOL     OW50398  13.635   7.886  10.342
82834SOL    HW150399  13.682   7.826  10.399
82834SOL    HW250400  13.553   7.841  10.321
82835SOL     OW50401   2.839   4.756   1.315
82835SOL    HW150402   2.858   4.668   1.350
82835SOL    HW250403   2.862   4.815   1.387
82836SOL     OW50404   3.536  12.383   8.602
82836SOL    HW150405   3.553  12.323   8.529
82836SOL    HW250406   3.561  12.469   8.567
82837SOL     OW50407   7.782   2.182   1.872
82837SOL    HW150408   7.760   2.186   1.779
82837SOL    HW250409   7.846   2.112   1.878
82838SOL     OW50410   3.414  14.207  12.984
82838SOL    HW150411   3.466  14.127  12.973
82838SOL    HW250412   3.346  14.182  13.048
82839SOL     OW50413  11.089   1.567   5.386
82839SOL    HW150414  11.024   1.574   5.455
82839SOL    HW250415  11.158   1.629   5.411
82840SOL     OW50416  12.936  10.856   6.768
82840SOL    HW150417  12.931  10.766   6.736
82840SOL    HW250418  12.885  10.907   6.705
82841SOL     OW50419   9.392   9.526  14.396
82841SOL    HW150420   9.363   9.538  14.306
82841SOL    HW250421   9.409   9.615  14.428
82842SOL     OW50422   9.027   5.430   1.219
82842SOL    HW150423   9.007   5.480   1.298
82842SOL    HW250424   9.021   5.338   1.248
82843SOL     OW50425   8.141  12.335   7.149
82843SOL    HW150426   8.066  12.360   7.094
82843SOL    HW250427   8.209  12.310   7.087
82844SOL     OW50428   6.166   2.190  10.909
82844SOL    HW150429   6.120   2.228  10.834
82844SOL    HW250430   6.110   2.211  10.985
82845SOL     OW50431   5.865   5.091  10.097
82845SOL    HW150432   5.845   5.167  10.152
82845SOL    HW250433   5.785   5.038  10.099
82846SOL     OW50434   6.801   9.455   1.454
82846SOL    HW150435   6.876   9.432   1.510
82846SOL    HW250436   6.798   9.385   1.389
82847SOL     OW50437   8.250   7.928  13.488
82847SOL    HW150438   8.191   7.956  13.418
82847SOL    HW250439   8.309   8.002  13.501
82848SOL     OW50440   7.280   6.193   0.811
82848SOL    HW150441   7.243   6.281   0.806
82848SOL    HW250442   7.371   6.206   0.838
82849SOL     OW50443   1.604   2.927  14.195
82849SOL    HW150444   1.581   2.981  14.120
82849SOL    HW250445   1.520   2.903  14.234
82850SOL     OW50446  10.936  12.845   3.139
82850SOL    HW150447  10.893  12.931   3.147
82850SOL    HW250448  11.028  12.862   3.160
82851SOL     OW50449  13.131   9.413  10.147
82851SOL    HW150450  13.186   9.458  10.211
82851SOL    HW250451  13.155   9.320  10.155
82852SOL     OW50452   7.191   7.215   4.063
82852SOL    HW150453   7.150   7.258   4.138
82852SOL    HW250454   7.166   7.269   3.988
82853SOL     OW50455   5.339   3.585  12.126
82853SOL    HW150456   5.269   3.569  12.063
82853SOL    HW250457   5.315   3.667  12.169
82854SOL     OW50458   9.611  12.050  11.301
82854SOL    HW150459   9.584  12.126  11.352
82854SOL    HW250460   9.640  12.085  11.217
82855SOL     OW50461   6.973  13.405   1.967
82855SOL    HW150462   6.980  13.353   2.047
82855SOL    HW250463   7.002  13.493   1.993
82856SOL     OW50464   3.371  11.244   3.242
82856SOL    HW150465   3.458  11.205   3.253
82856SOL    HW250466   3.369  11.270   3.150
82857SOL     OW50467   1.043  10.601   9.689
82857SOL    HW150468   1.063  10.636   9.776
82857SOL    HW250469   1.125  10.606   9.641
82858SOL     OW50470   8.488  11.190   3.943
82858SOL    HW150471   8.432  11.123   3.905
82858SOL    HW250472   8.572  11.179   3.899
82859SOL     OW50473   7.658   8.214  14.039
82859SOL    HW150474   7.571   8.176  14.031
82859SOL    HW250475   7.649   8.279  14.109
82860SOL     OW50476   5.706  14.412   8.047
82860SOL    HW150477   5.721  14.343   7.982
82860SOL    HW250478   5.625  14.386   8.090
82861SOL     OW50479  14.736  10.014   1.656
82861SOL    HW150480  14.718  10.031   1.748
82861SOL    HW250481  14.831  10.001   1.652
82862SOL     OW50482   1.937  12.654   2.305
82862SOL    HW150483   2.031  12.658   2.291
82862SOL    HW250484   1.921  12.713   2.379
82863SOL     OW50485   8.078  13.262  12.035
82863SOL    HW150486   8.027  13.342  12.020
82863SOL    HW250487   8.036  13.221  12.110
82864SOL     OW50488   0.396  11.131   7.889
82864SOL    HW150489   0.438  11.181   7.958
82864SOL    HW250490   0.464  11.121   7.822
82865SOL     OW50491   3.412  11.286  11.902
82865SOL    HW150492   3.400  11.378  11.927
82865SOL    HW250493   3.500  11.282  11.866
82866SOL     OW50494   8.346   5.095   1.465
82866SOL    HW150495   8.424   5.090   1.410
82866SOL    HW250496   8.306   5.009   1.459
82867SOL     OW50497   5.720  11.854  14.191
82867SOL    HW150498   5.659  11.914  14.235
82867SOL    HW250499   5.805  11.873  14.230
82868SOL     OW50500   3.430   0.490  14.036
82868SOL    HW150501   3.376   0.441  13.974
82868SOL    HW250502   3.394   0.468  14.122
82869SOL     OW50503  14.283   3.700   0.323
82869SOL    HW150504  14.341   3.704   0.247
82869SOL    HW250505  14.240   3.786   0.325
82870SOL     OW50506   3.343   1.453  13.134
82870SOL    HW150507   3.337   1.536  13.086
82870SOL    HW250508   3.379   1.478  13.219
82871SOL     OW50509   4.956   2.518   4.694
82871SOL    HW150510   5.001   2.546   4.774
82871SOL    HW250511   5.004   2.440   4.666
82872SOL     OW50512   3.319  10.922   7.954
82872SOL    HW150513   3.332  10.835   7.992
82872SOL    HW250514   3.337  10.983   8.025
82873SOL     OW50515   9.254   0.819   8.662
82873SOL    HW150516   9.286   0.909   8.669
82873SOL    HW250517   9.204   0.805   8.742
82874SOL     OW50518  13.903  10.220   9.627
82874SOL    HW150519  13.897  10.168   9.546
82874SOL    HW250520  13.991  10.257   9.624
82875SOL     OW50521   5.596   0.077   1.733
82875SOL    HW150522   5.594   0.171   1.750
82875SOL    HW250523   5.665   0.064   1.668
82876SOL     OW50524   7.220   4.599   2.768
82876SOL    HW150525   7.165   4.650   2.708
82876SOL    HW250526   7.305   4.644   2.765
82877SOL     OW50527   7.055   3.775   6.629
82877SOL    HW150528   7.143   3.750   6.657
82877SOL    HW250529   7.027   3.705   6.570
82878SOL     OW50530  11.685   8.150   5.513
82878SOL    HW150531  11.626   8.099   5.568
82878SOL    HW250532  11.658   8.129   5.423
82879SOL     OW50533   4.409  12.558   7.127
82879SOL    HW150534   4.361  12.476   7.118
82879SOL    HW250535   4.477  12.554   7.059
82880SOL     OW50536  10.846   2.689   6.321
82880SOL    HW150537  10.836   2.722   6.232
82880SOL    HW250538  10.895   2.758   6.366
82881SOL     OW50539  14.571   6.209   6.531
82881SOL    HW150540  14.537   6.286   6.486
82881SOL    HW250541  14.569   6.140   6.465
82882SOL     OW50542  12.703   9.743   7.501
82882SOL    HW150543  12.760   9.736   7.424
82882SOL    HW250544  12.695   9.837   7.516
82883SOL     OW50545   6.828   9.146   6.717
82883SOL    HW150546   6.891   9.206   6.677
82883SOL    HW250547   6.875   9.109   6.792
82884SOL     OW50548   5.417   6.341   4.318
82884SOL    HW150549   5.429   6.369   4.408
82884SOL    HW250550   5.441   6.248   4.319
82885SOL     OW50551  10.977   0.053  11.101
82885SOL    HW150552  10.937   0.093  11.179
82885SOL    HW250553  11.043  14.863  11.136
82886SOL     OW50554   4.452   4.473   2.633
82886SOL    HW150555   4.394   4.528   2.580
82886SOL    HW250556   4.395   4.433   2.698
82887SOL     OW50557   8.585   7.161  11.180
82887SOL    HW150558   8.665   7.126  11.140
82887SOL    HW250559   8.587   7.127  11.270
82888SOL     OW50560  14.468   1.786   1.772
82888SOL    HW150561  14.450   1.862   1.716
82888SOL    HW250562  14.402   1.722   1.745
82889SOL     OW50563   4.335   8.227  10.558
82889SOL    HW150564   4.378   8.173  10.624
82889SOL    HW250565   4.310   8.165  10.489
82890SOL     OW50566   1.946   4.684  13.829
82890SOL    HW150567   1.969   4.696  13.737
82890SOL    HW250568   2.011   4.735  13.877
82891SOL     OW50569   4.047  11.561   5.416
82891SOL    HW150570   3.988  11.620   5.371
82891SOL    HW250571   3.994  11.524   5.488
82892SOL     OW50572   4.114  11.945   5.651
82892SOL    HW150573   4.072  11.958   5.566
82892SOL    HW250574   4.079  12.015   5.706
82893SOL     OW50575   7.624   2.604  10.450
82893SOL    HW150576   7.655   2.628  10.538
82893SOL    HW250577   7.538   2.566  10.465
82894SOL     OW50578  12.965   0.328   2.225
82894SOL    HW150579  12.869   0.328   2.220
82894SOL    HW250580  12.984   0.365   2.312
82895SOL     OW50581   5.768   6.309   6.300
82895SOL    HW150582   5.791   6.235   6.356
82895SOL    HW250583   5.832   6.306   6.229
82896SOL     OW50584   9.587  12.751  10.539
82896SOL    HW150585   9.509  12.794  10.502
82896SOL    HW250586   9.572  12.657  10.523
82897SOL     OW50587   6.745  10.852   4.028
82897SOL    HW150588   6.798  10.893   3.959
82897SOL    HW250589   6.662  10.831   3.985
82898SOL     OW50590   2.379   8.961   6.587
82898SOL    HW150591   2.322   9.031   6.553
82898SOL    HW250592   2.468   8.994   6.571
82899SOL     OW50593   2.881   8.132   8.912
82899SOL    HW150594   2.892   8.211   8.965
82899SOL    HW250595   2.948   8.139   8.844
82900SOL     OW50596   7.479  14.436   4.326
82900SOL    HW150597   7.425  14.463   4.252
82900SOL    HW250598   7.416  14.421   4.397
82901SOL     OW50599  12.012   2.240   7.763
82901SOL    HW150600  11.940   2.240   7.827
82901SOL    HW250601  12.081   2.292   7.804
82902SOL     OW50602   7.247   0.398   6.115
82902SOL    HW150603   7.268   0.392   6.022
82902SOL    HW250604   7.258   0.490   6.137
82903SOL     OW50605  12.249   3.651   8.591
82903SOL    HW150606  12.227   3.684   8.678
82903SOL    HW250607  12.296   3.569   8.608
82904SOL     OW50608   4.611  13.020  11.381
82904SOL    HW150609   4.549  12.951  11.406
82904SOL    HW250610   4.687  13.003  11.436
82905SOL     OW50611   4.600   3.711   6.791
82905SOL    HW150612   4.560   3.741   6.872
82905SOL    HW250613   4.584   3.616   6.790
82906SOL     OW50614   3.378   3.080  12.321
82906SOL    HW150615   3.393   3.022  12.395
82906SOL    HW250616   3.435   3.155  12.337
82907SOL     OW50617   5.130  12.380   1.750
82907SOL    HW150618   5.037  12.401   1.742
82907SOL    HW250619   5.154  12.407   1.838
82908SOL     OW50620  13.364  12.331   2.008
82908SOL    HW150621  13.453  12.308   1.981
82908SOL    HW250622  13.325  12.248   2.035
82909SOL     OW50623   9.009  11.892   7.121
82909SOL    HW150624   8.925  11.900   7.076
82909SOL    HW250625   9.022  11.798   7.130
82910SOL     OW50626  13.096   0.560   0.411
82910SOL    HW150627  13.155   0.486   0.428
82910SOL    HW250628  13.084   0.601   0.497
82911SOL     OW50629   9.991  10.211   9.816
82911SOL    HW150630   9.938  10.131   9.817
82911SOL    HW250631  10.082  10.178   9.812
82912SOL     OW50632   6.879   1.644  12.668
82912SOL    HW150633   6.869   1.600  12.752
82912SOL    HW250634   6.853   1.734  12.685
82913SOL     OW50635   8.742   9.022   7.579
82913SOL    HW150636   8.687   9.023   7.658
82913SOL    HW250637   8.724   9.105   7.536
82914SOL     OW50638   5.080  13.802   4.941
82914SOL    HW150639   5.175  13.804   4.937
82914SOL    HW250640   5.059  13.721   4.989
82915SOL     OW50641   4.688   4.494  12.125
82915SOL    HW150642   4.776   4.476  12.093
82915SOL    HW250643   4.631   4.441  12.069
82916SOL     OW50644   2.139   7.250  12.868
82916SOL    HW150645   2.094   7.275  12.948
82916SOL    HW250646   2.122   7.156  12.859
82917SOL     OW50647  10.063   1.843   8.606
82917SOL    HW150648  10.021   1.891   8.534
82917SOL    HW250649  10.156   1.868   8.600
82918SOL     OW50650   0.851   7.149   0.725
82918SOL    HW150651   0.836   7.231   0.676
82918SOL    HW250652   0.945   7.134   0.717
82919SOL     OW50653   0.239   4.729   0.916
82919SOL    HW150654   0.186   4.781   0.856
82919SOL    HW250655   0.310   4.695   0.861
82920SOL     OW50656   7.368   4.099   0.726
82920SOL    HW150657   7.406   4.104   0.639
82920SOL    HW250658   7.367   4.005   0.746
82921SOL     OW50659  13.229   7.808   5.904
82921SOL    HW150660  13.189   7.883   5.948
82921SOL    HW250661  13.158   7.744   5.897
82922SOL     OW50662   8.467  11.168  10.382
82922SOL    HW150663   8.555  11.137  10.359
82922SOL    HW250664   8.455  11.140  10.473
82923SOL     OW50665   2.241   6.566   6.773
82923SOL    HW150666   2.290   6.601   6.699
82923SOL    HW250667   2.151   6.560   6.742
82924SOL     OW50668   1.826   4.580   4.508
82924SOL    HW150669   1.782   4.664   4.493
82924SOL    HW250670   1.822   4.535   4.423
82925SOL     OW50671   7.639   6.601   0.425
82925SOL    HW150672   7.548   6.581   0.401
82925SOL    HW250673   7.676   6.639   0.345
82926SOL     OW50674   8.161   7.521   9.921
82926SOL    HW150675   8.147   7.487  10.009
82926SOL    HW250676   8.254   7.544   9.918
82927SOL     OW50677  14.409   2.345   4.953
82927SOL    HW150678  14.484   2.306   4.996
82927SOL    HW250679  14.436   2.354   4.861
82928SOL     OW50680   0.930   2.174   4.730
82928SOL    HW150681   0.908   2.088   4.766
82928SOL    HW250682   0.856   2.197   4.674
82929SOL     OW50683   9.854   3.372   0.384
82929SOL    HW150684   9.864   3.285   0.345
82929SOL    HW250685   9.794   3.359   0.457
82930SOL     OW50686   4.912   8.461   8.266
82930SOL    HW150687   4.928   8.555   8.259
82930SOL    HW250688   4.988   8.427   8.313
82931SOL     OW50689   2.896   2.564  14.031
82931SOL    HW150690   2.886   2.645  13.981
82931SOL    HW250691   2.982   2.532  14.007
82932SOL     OW50692   4.267   1.361   6.268
82932SOL    HW150693   4.337   1.419   6.298
82932SOL    HW250694   4.196   1.420   6.242
82933SOL     OW50695   6.374  11.361   2.286
82933SOL    HW150696   6.364  11.307   2.365
82933SOL    HW250697   6.468  11.373   2.276
82934SOL     OW50698   0.560   2.573   7.905
82934SOL    HW150699   0.515   2.645   7.862
82934SOL    HW250700   0.639   2.559   7.852
82935SOL     OW50701  12.720   2.813   6.799
82935SOL    HW150702  12.814   2.825   6.783
82935SOL    HW250703  12.716   2.775   6.887
82936SOL     OW50704  14.832   2.170   2.064
82936SOL    HW150705  14.831   2.138   2.154
82936SOL    HW250706   0.055   2.171   2.039
82937SOL     OW50707  14.331   0.039   9.863
82937SOL    HW150708  14.351   0.127   9.831
82937SOL    HW250709  14.417  14.869   9.878
82938SOL     OW50710   9.087   9.632   2.617
82938SOL    HW150711   9.176   9.610   2.591
82938SOL    HW250712   9.095   9.674   2.702
82939SOL     OW50713   0.296   7.453   4.404
82939SOL    HW150714   0.309   7.444   4.310
82939SOL    HW250715   0.286   7.363   4.436
82940SOL     OW50716   7.232  10.879   8.581
82940SOL    HW150717   7.142  10.846   8.576
82940SOL    HW250718   7.284  10.812   8.536
82941SOL     OW50719   8.283   1.088  13.153
82941SOL    HW150720   8.217   1.109  13.219
82941SOL    HW250721   8.314   1.001  13.176
82942SOL     OW50722  11.432  14.830   0.304
82942SOL    HW150723  11.383  14.853   0.383
82942SOL    HW250724  11.392   0.014   0.236
82943SOL     OW50725  10.176  12.685  13.954
82943SOL    HW150726  10.204  12.663  14.043
82943SOL    HW250727  10.223  12.766  13.934
82944SOL     OW50728   8.598  10.373  12.130
82944SOL    HW150729   8.504  10.391  12.134
82944SOL    HW250730   8.626  10.410  12.047
82945SOL     OW50731   8.992  13.873   4.160
82945SOL    HW150732   8.958  13.885   4.072
82945SOL    HW250733   9.086  13.887   4.151
82946SOL     OW50734  10.926   3.595   7.959
82946SOL    HW150735  10.856   3.567   8.018
82946SOL    HW250736  11.007   3.569   8.005
82947SOL     OW50737   7.136   7.126   6.435
82947SOL    HW150738   7.092   7.062   6.492
82947SOL    HW250739   7.069   7.193   6.420
82948SOL     OW50740   6.823  10.874   1.281
82948SOL    HW150741   6.903  10.837   1.243
82948SOL    HW250742   6.760  10.872   1.209
82949SOL     OW50743   9.752   5.890  12.468
82949SOL    HW150744   9.690   5.853  12.532
82949SOL    HW250745   9.815   5.820  12.453
82950SOL     OW50746  12.284   3.941   1.561
82950SOL    HW150747  12.267   3.999   1.487
82950SOL    HW250748  12.271   3.853   1.526
82951SOL     OW50749   2.612   0.960   2.206
82951SOL    HW150750   2.636   1.050   2.229
82951SOL    HW250751   2.647   0.907   2.277
82952SOL     OW50752   1.016   1.563   6.711
82952SOL    HW150753   1.036   1.608   6.629
82952SOL    HW250754   1.090   1.585   6.769
82953SOL     OW50755  14.857   8.416   1.798
82953SOL    HW150756   0.018   8.507   1.793
82953SOL    HW250757  14.810   8.411   1.881
82954SOL     OW50758   7.207   8.236   3.990
82954SOL    HW150759   7.170   8.283   4.064
82954SOL    HW250760   7.140   8.171   3.967
82955SOL     OW50761  12.401  11.386   8.297
82955SOL    HW150762  12.374  11.373   8.388
82955SOL    HW250763  12.490  11.352   8.293
82956SOL     OW50764   9.525   8.758   8.517
82956SOL    HW150765   9.496   8.697   8.449
82956SOL    HW250766   9.571   8.703   8.581
82957SOL     OW50767   0.950  11.178   8.866
82957SOL    HW150768   0.889  11.119   8.911
82957SOL    HW250769   0.896  11.224   8.801
82958SOL     OW50770   5.620  12.852   7.929
82958SOL    HW150771   5.637  12.906   8.007
82958SOL    HW250772   5.557  12.904   7.878
82959SOL     OW50773   7.444  12.703   9.506
82959SOL    HW150774   7.462  12.615   9.474
82959SOL    HW250775   7.422  12.691   9.598
82960SOL     OW50776   1.238   2.513   6.047
82960SOL    HW150777   1.324   2.500   6.008
82960SOL    HW250778   1.178   2.514   5.972
82961SOL     OW50779  13.100   6.232   2.787
82961SOL    HW150780  13.095   6.138   2.804
82961SOL    HW250781  13.182   6.244   2.739
82962SOL     OW50782  11.284   1.974   3.260
82962SOL    HW150783  11.312   1.892   3.302
82962SOL    HW250784  11.361   2.003   3.211
82963SOL     OW50785  10.522   7.476  13.261
82963SOL    HW150786  10.445   7.503  13.212
82963SOL    HW250787  10.513   7.381  13.270
82964SOL     OW50788  11.178   4.983  12.874
82964SOL    HW150789  11.253   4.983  12.814
82964SOL    HW250790  11.101   4.985  12.817
82965SOL     OW50791   7.999  13.894  10.449
82965SOL    HW150792   8.043  13.881  10.533
82965SOL    HW250793   8.058  13.854  10.385
82966SOL     OW50794  14.347   9.450   8.925
82966SOL    HW150795  14.429   9.411   8.957
82966SOL    HW250796  14.360   9.459   8.831
82967SOL     OW50797   5.287   4.326   5.176
82967SOL    HW150798   5.292   4.231   5.187
82967SOL    HW250799   5.291   4.361   5.266
82968SOL     OW50800   4.749   6.241   0.538
82968SOL    HW150801   4.788   6.153   0.536
82968SOL    HW250802   4.814   6.297   0.497
82969SOL     OW50803   0.222   4.680   8.974
82969SOL    HW150804   0.232   4.651   9.064
82969SOL    HW250805   0.221   4.776   8.980
82970SOL     OW50806  11.265   3.997   5.345
82970SOL    HW150807  11.194   4.061   5.338
82970SOL    HW250808  11.245   3.947   5.424
82971SOL     OW50809   1.063  10.515   3.022
82971SOL    HW150810   1.084  10.452   3.091
82971SOL    HW250811   1.000  10.469   2.966
82972SOL     OW50812   3.022   1.868   2.205
82972SOL    HW150813   3.058   1.833   2.286
82972SOL    HW250814   3.055   1.810   2.137
82973SOL     OW50815   8.815   5.282   5.621
82973SOL    HW150816   8.845   5.274   5.530
82973SOL    HW250817   8.800   5.191   5.649
82974SOL     OW50818  11.416  12.112   2.827
82974SOL    HW150819  11.487  12.092   2.766
82974SOL    HW250820  11.460  12.154   2.901
82975SOL     OW50821   7.073   6.383  13.918
82975SOL    HW150822   7.091   6.289  13.909
82975SOL    HW250823   7.110   6.406  14.004
82976SOL     OW50824   7.201   1.765   2.446
82976SOL    HW150825   7.291   1.797   2.433
82976SOL    HW250826   7.213   1.681   2.490
82977SOL     OW50827  13.833   4.424   0.420
82977SOL    HW150828  13.855   4.338   0.456
82977SOL    HW250829  13.910   4.451   0.370
82978SOL     OW50830   9.303  14.077   6.945
82978SOL    HW150831   9.330  14.147   6.886
82978SOL    HW250832   9.208  14.077   6.942
82979SOL     OW50833   2.235  11.543  11.544
82979SOL    HW150834   2.174  11.519  11.614
82979SOL    HW250835   2.318  11.504  11.569
82980SOL     OW50836   9.299   1.613   4.488
82980SOL    HW150837   9.376   1.662   4.460
82980SOL    HW250838   9.332   1.526   4.510
82981SOL     OW50839  14.610  14.716  11.576
82981SOL    HW150840  14.638  14.649  11.513
82981SOL    HW250841  14.599  14.669  11.658
82982SOL     OW50842  11.183   0.110   1.972
82982SOL    HW150843  11.248   0.164   1.927
82982SOL    HW250844  11.122   0.084   1.903
82983SOL     OW50845   9.600   4.047   7.972
82983SOL    HW150846   9.622   4.072   8.062
82983SOL    HW250847   9.524   4.100   7.950
82984SOL     OW50848   1.453  11.460   5.279
82984SOL    HW150849   1.461  11.372   5.318
82984SOL    HW250850   1.379  11.454   5.219
82985SOL     OW50851   9.761   5.692   6.547
82985SOL    HW150852   9.795   5.657   6.465
82985SOL    HW250853   9.765   5.787   6.537
82986SOL     OW50854   8.088   9.717   2.976
82986SOL    HW150855   8.126   9.785   2.921
82986SOL    HW250856   8.162   9.683   3.027
82987SOL     OW50857   8.229   7.859  11.216
82987SOL    HW150858   8.318   7.827  11.202
82987SOL    HW250859   8.192   7.869  11.128
82988SOL     OW50860   4.538   2.167   4.304
82988SOL    HW150861   4.555   2.261   4.299
82988SOL    HW250862   4.594   2.136   4.375
82989SOL     OW50863   5.057   5.071  14.709
82989SOL    HW150864   5.139   5.029  14.734
82989SOL    HW250865   5.082   5.136  14.644
82990SOL     OW50866  10.343   4.654   1.166
82990SOL    HW150867  10.419   4.713   1.173
82990SOL    HW250868  10.370   4.575   1.212
82991SOL     OW50869   9.055   4.118   7.774
82991SOL    HW150870   9.045   4.145   7.683
82991SOL    HW250871   9.022   4.192   7.825
82992SOL     OW50872  13.099  10.030   7.095
82992SOL    HW150873  13.007  10.053   7.110
82992SOL    HW250874  13.124   9.980   7.173
82993SOL     OW50875  12.351   0.823   5.031
82993SOL    HW150876  12.309   0.739   5.047
82993SOL    HW250877  12.392   0.813   4.945
82994SOL     OW50878   9.445   5.973  14.609
82994SOL    HW150879   9.524   6.015  14.642
82994SOL    HW250880   9.449   5.987  14.514
82995SOL     OW50881   2.587   8.596   9.109
82995SOL    HW150882   2.651   8.667   9.119
82995SOL    HW250883   2.539   8.595   9.192
82996SOL     OW50884   5.618   9.541  11.218
82996SOL    HW150885   5.605   9.605  11.288
82996SOL    HW250886   5.530   9.521  11.187
82997SOL     OW50887   5.699   6.850  12.662
82997SOL    HW150888   5.723   6.774  12.610
82997SOL    HW250889   5.780   6.901  12.668
82998SOL     OW50890  14.377   4.071  14.403
82998SOL    HW150891  14.324   4.111  14.472
82998SOL    HW250892  14.432   4.008  14.448
82999SOL     OW50893  12.050  14.409   4.414
82999SOL    HW150894  12.096  14.493   4.409
82999SOL    HW250895  12.093  14.355   4.347
83000SOL     OW50896   0.271  14.058   5.218
83000SOL    HW150897   0.185  14.054   5.260
83000SOL    HW250898   0.285  13.970   5.185
83001SOL     OW50899   0.178  13.403   8.238
83001SOL    HW150900   0.169  13.369   8.149
83001SOL    HW250901   0.273  13.411   8.252
83002SOL     OW50902   1.676  13.398  14.769
83002SOL    HW150903   1.763  13.403  14.809
83002SOL    HW250904   1.619  13.445  14.829
83003SOL     OW50905  11.675   1.211   3.561
83003SOL    HW150906  11.603   1.157   3.528
83003SOL    HW250907  11.687   1.183   3.652
83004SOL     OW50908   1.062   8.503  12.530
83004SOL    HW150909   1.107   8.495  12.446
83004SOL    HW250910   0.989   8.563  12.514
83005SOL     OW50911   5.028   5.390  14.305
83005SOL    HW150912   5.096   5.374  14.240
83005SOL    HW250913   4.947   5.397  14.254
83006SOL     OW50914  12.694   9.258   7.241
83006SOL    HW150915  12.615   9.289   7.196
83006SOL    HW250916  12.696   9.164   7.226
83007SOL     OW50917   8.309  14.864   0.897
83007SOL    HW150918   8.358  14.787   0.926
83007SOL    HW250919   8.220  14.849   0.929
83008SOL     OW50920   1.711   0.998   1.226
83008SOL    HW150921   1.627   0.956   1.208
83008SOL    HW250922   1.688   1.088   1.248
83009SOL     OW50923   2.943  12.291   3.322
83009SOL    HW150924   2.937  12.379   3.359
83009SOL    HW250925   2.904  12.299   3.235
83010SOL     OW50926  13.146  10.126  10.918
83010SOL    HW150927  13.146  10.210  10.963
83010SOL    HW250928  13.140  10.061  10.988
83011SOL     OW50929   6.131   8.820   8.725
83011SOL    HW150930   6.164   8.878   8.656
83011SOL    HW250931   6.039   8.808   8.705
83012SOL     OW50932   5.595   7.161   2.129
83012SOL    HW150933   5.658   7.089   2.118
83012SOL    HW250934   5.544   7.137   2.206
83013SOL     OW50935   2.864   4.628  12.329
83013SOL    HW150936   2.832   4.556  12.275
83013SOL    HW250937   2.939   4.663  12.280
83014SOL     OW50938   7.261   2.527   5.990
83014SOL    HW150939   7.259   2.503   5.897
83014SOL    HW250940   7.175   2.566   6.006
83015SOL     OW50941   1.836   8.379  10.671
83015SOL    HW150942   1.889   8.315  10.717
83015SOL    HW250943   1.898   8.428  10.617
83016SOL     OW50944  13.787  14.623   4.799
83016SOL    HW150945  13.762  14.640   4.890
83016SOL    HW250946  13.883  14.620   4.802
83017SOL     OW50947  14.176   0.031   2.832
83017SOL    HW150948  14.134   0.079   2.761
83017SOL    HW250949  14.266   0.016   2.801
83018SOL     OW50950  14.068   8.629  14.841
83018SOL    HW150951  14.143   8.658   0.022
83018SOL    HW250952  14.079   8.670  14.756
83019SOL     OW50953   9.793  12.796   5.807
83019SOL    HW150954   9.815  12.811   5.716
83019SOL    HW250955   9.744  12.714   5.807
83020SOL     OW50956   0.131   3.159   6.182
83020SOL    HW150957   0.106   3.070   6.204
83020SOL    HW250958   0.154   3.155   6.089
83021SOL     OW50959  14.195   9.172   4.048
83021SOL    HW150960  14.263   9.218   4.096
83021SOL    HW250961  14.165   9.234   3.982
83022SOL     OW50962   6.245   7.234   8.766
83022SOL    HW150963   6.196   7.314   8.746
83022SOL    HW250964   6.213   7.170   8.702
83023SOL     OW50965  14.529   0.452  13.374
83023SOL    HW150966  14.480   0.417  13.300
83023SOL    HW250967  14.547   0.376  13.430
83024SOL     OW50968   0.195  11.321   6.880
83024SOL    HW150969   0.107  11.299   6.851
83024SOL    HW250970   0.252  11.259   6.834
83025SOL     OW50971   5.419   5.047   7.530
83025SOL    HW150972   5.351   5.020   7.592
83025SOL    HW250973   5.378   5.116   7.478
83026SOL     OW50974   1.793   5.610  12.042
83026SOL    HW150975   1.736   5.598  12.118
83026SOL    HW250976   1.735   5.643  11.974
83027SOL     OW50977  10.237   0.391   6.565
83027SOL    HW150978  10.301   0.460   6.583
83027SOL    HW250979  10.282   0.331   6.507
83028SOL     OW50980  11.818  12.001   2.519
83028SOL    HW150981  11.829  12.045   2.435
83028SOL    HW250982  11.727  11.973   2.519
83029SOL     OW50983  12.004   6.687   3.291
83029SOL    HW150984  11.976   6.726   3.373
83029SOL    HW250985  12.047   6.758   3.243
83030SOL     OW50986   1.384   7.595   8.780
83030SOL    HW150987   1.392   7.683   8.817
83030SOL    HW250988   1.356   7.540   8.853
83031SOL     OW50989   0.420   4.818   9.393
83031SOL    HW150990   0.498   4.794   9.442
83031SOL    HW250991   0.441   4.796   9.302
83032SOL     OW50992  14.784   7.788   8.023
83032SOL    HW150993  14.715   7.750   7.969
83032SOL    HW250994  14.781   7.737   8.104
83033SOL     OW50995   0.726   1.547  11.796
83033SOL    HW150996   0.682   1.464  11.778
83033SOL    HW250997   0.778   1.564  11.717
83034SOL     OW50998   6.807   7.335   0.174
83034SOL    HW150999   6.762   7.255   0.145
83034SOL    HW251000   6.750   7.371   0.242
83035SOL     OW51001  14.057   6.400  10.662
83035SOL    HW151002  13.973   6.361  10.636
83035SOL    HW251003  14.081   6.355  10.742
83036SOL     OW51004   3.127   1.518   7.706
83036SOL    HW151005   3.049   1.522   7.650
83036SOL    HW251006   3.093   1.534   7.794
83037SOL     OW51007   6.129  13.695  12.724
83037SOL    HW151008   6.220  13.690  12.755
83037SOL    HW251009   6.077  13.663  12.798
83038SOL     OW51010  14.572   6.681   8.431
83038SOL    HW151011  14.634   6.665   8.501
83038SOL    HW251012  14.556   6.776   8.434
83039SOL     OW51013  12.518  10.436   8.564
83039SOL    HW151014  12.434  10.474   8.541
83039SOL    HW251015  12.543  10.385   8.487
83040SOL     OW51016   4.160   9.267  10.844
83040SOL    HW151017   4.134   9.207  10.914
83040SOL    HW251018   4.241   9.229  10.809
83041SOL     OW51019   8.154   9.935   2.530
83041SOL    HW151020   8.226   9.991   2.501
83041SOL    HW251021   8.076   9.990   2.522
83042SOL     OW51022   7.979   3.721   8.065
83042SOL    HW151023   7.886   3.733   8.081
83042SOL    HW251024   7.985   3.643   8.010
83043SOL     OW51025   9.109  11.192   2.726
83043SOL    HW151026   9.160  11.139   2.665
83043SOL    HW251027   9.098  11.136   2.803
83044SOL     OW51028  14.864   8.032   0.177
83044SOL    HW151029  14.817   8.065   0.101
83044SOL    HW251030  14.851   8.099   0.244
83045SOL     OW51031   6.868   2.088  14.103
83045SOL    HW151032   6.894   2.029  14.173
83045SOL    HW251033   6.777   2.064  14.083
83046SOL     OW51034   8.723  10.857   3.271
83046SOL    HW151035   8.778  10.934   3.283
83046SOL    HW251036   8.728  10.810   3.354
83047SOL     OW51037  11.343  14.659  10.977
83047SOL    HW151038  11.297  14.637  11.057
83047SOL    HW251039  11.279  14.706  10.924
83048SOL     OW51040  11.516  11.844  12.675
83048SOL    HW151041  11.605  11.819  12.652
83048SOL    HW251042  11.527  11.914  12.739
83049SOL     OW51043   9.452   6.544   4.203
83049SOL    HW151044   9.525   6.568   4.260
83049SOL    HW251045   9.441   6.450   4.216
83050SOL     OW51046   4.820  10.084   6.885
83050SOL    HW151047   4.832  10.150   6.817
83050SOL    HW251048   4.835  10.131   6.967
83051SOL     OW51049   6.522   0.206   3.993
83051SOL    HW151050   6.521   0.238   4.083
83051SOL    HW251051   6.430   0.185   3.974
83052SOL     OW51052  13.389  13.398  13.728
83052SOL    HW151053  13.335  13.330  13.688
83052SOL    HW251054  13.338  13.430  13.802
83053SOL     OW51055   3.014   5.839   5.636
83053SOL    HW151056   3.024   5.792   5.719
83053SOL    HW251057   2.926   5.877   5.641
83054SOL     OW51058  14.272   9.369   0.941
83054SOL    HW151059  14.284   9.455   0.981
83054SOL    HW251060  14.227   9.387   0.858
83055SOL     OW51061   3.851   1.763  12.468
83055SOL    HW151062   3.824   1.820  12.539
83055SOL    HW251063   3.844   1.817  12.389
83056SOL     OW51064  12.332   1.262  13.504
83056SOL    HW151065  12.421   1.297  13.501
83056SOL    HW251066  12.288   1.317  13.569
83057SOL     OW51067   0.979   3.951  10.788
83057SOL    HW151068   0.985   3.914  10.700
83057SOL    HW251069   0.999   3.878  10.847
83058SOL     OW51070  11.086  13.391  11.685
83058SOL    HW151071  11.028  13.467  11.690
83058SOL    HW251072  11.148  13.413  11.616
83059SOL     OW51073   1.337   4.951   9.731
83059SOL    HW151074   1.313   4.860   9.713
83059SOL    HW251075   1.419   4.964   9.684
83060SOL     OW51076  10.501  10.667  10.389
83060SOL    HW151077  10.522  10.574  10.392
83060SOL    HW251078  10.503  10.689  10.296
83061SOL     OW51079   1.986  14.761   6.183
83061SOL    HW151080   1.967  14.713   6.264
83061SOL    HW251081   2.067  14.722   6.151
83062SOL     OW51082  12.677   6.688   0.982
83062SOL    HW151083  12.735   6.758   0.951
83062SOL    HW251084  12.624   6.666   0.905
83063SOL     OW51085   3.434   6.085   3.611
83063SOL    HW151086   3.381   6.147   3.560
83063SOL    HW251087   3.476   6.030   3.544
83064SOL     OW51088  10.782   8.108   9.093
83064SOL    HW151089  10.863   8.117   9.042
83064SOL    HW251090  10.755   8.017   9.078
83065SOL     OW51091   6.720  14.252   5.172
83065SOL    HW151092   6.792  14.197   5.204
83065SOL    HW251093   6.758  14.339   5.165
83066SOL     OW51094   5.631  13.950   8.525
83066SOL    HW151095   5.662  14.016   8.463
83066SOL    HW251096   5.544  13.979   8.551
83067SOL     OW51097   7.124   4.376  11.728
83067SOL    HW151098   7.166   4.291  11.739
83067SOL    HW251099   7.031   4.359  11.741
83068SOL     OW51100   2.618  13.988   9.246
83068SOL    HW151101   2.652  13.899   9.236
83068SOL    HW251102   2.546  13.980   9.309
83069SOL     OW51103   3.433   9.255   7.639
83069SOL    HW151104   3.505   9.313   7.615
83069SOL    HW251105   3.389   9.299   7.712
83070SOL     OW51106  14.712   6.253   7.072
83070SOL    HW151107  14.742   6.248   7.163
83070SOL    HW251108  14.617   6.252   7.078
83071SOL     OW51109   4.422   8.445   2.442
83071SOL    HW151110   4.398   8.492   2.522
83071SOL    HW251111   4.399   8.354   2.461
83072SOL     OW51112   6.844  14.240  14.225
83072SOL    HW151113   6.872  14.330  14.239
83072SOL    HW251114   6.750  14.247  14.206
83073SOL     OW51115  12.592   9.113   2.254
83073SOL    HW151116  12.653   9.187   2.258
83073SOL    HW251117  12.568   9.107   2.161
83074SOL     OW51118   2.521   9.216  13.445
83074SOL    HW151119   2.476   9.261  13.516
83074SOL    HW251120   2.597   9.176  13.486
83075SOL     OW51121   0.569  14.312   4.581
83075SOL    HW151122   0.538  14.380   4.641
83075SOL    HW251123   0.582  14.357   4.498
83076SOL     OW51124  13.173   3.247  12.872
83076SOL    HW151125  13.176   3.185  12.799
83076SOL    HW251126  13.264   3.256  12.900
83077SOL     OW51127   5.970   1.003   5.103
83077SOL    HW151128   5.906   0.932   5.110
83077SOL    HW251129   6.034   0.972   5.039
83078SOL     OW51130   1.412   0.354   7.768
83078SOL    HW151131   1.439   0.437   7.806
83078SOL    HW251132   1.329   0.374   7.723
83079SOL     OW51133  10.070   2.085   1.364
83079SOL    HW151134  10.131   2.150   1.398
83079SOL    HW251135  10.047   2.117   1.277
83080SOL     OW51136   6.420  10.755   9.713
83080SOL    HW151137   6.332  10.732   9.684
83080SOL    HW251138   6.476  10.686   9.677
83081SOL     OW51139   5.368   5.134  13.831
83081SOL    HW151140   5.363   5.161  13.739
83081SOL    HW251141   5.427   5.197  13.871
83082SOL     OW51142  11.917  11.721   2.906
83082SOL    HW151143  11.896  11.646   2.962
83082SOL    HW251144  11.907  11.687   2.817
83083SOL     OW51145   1.629   1.850   6.523
83083SOL    HW151146   1.599   1.837   6.433
83083SOL    HW251147   1.685   1.928   6.519
83084SOL     OW51148   6.789   4.744   4.320
83084SOL    HW151149   6.754   4.680   4.382
83084SOL    HW251150   6.863   4.700   4.279
83085SOL     OW51151   6.819  11.907   8.767
83085SOL    HW151152   6.878  11.976   8.736
83085SOL    HW251153   6.875  11.848   8.817
83086SOL     OW51154   7.869   0.875  10.834
83086SOL    HW151155   7.779   0.895  10.859
83086SOL    HW251156   7.922   0.917  10.901
83087SOL     OW51157   6.964   5.600   6.216
83087SOL    HW151158   6.998   5.685   6.244
83087SOL    HW251159   7.039   5.541   6.223
83088SOL     OW51160  13.418   9.188  11.426
83088SOL    HW151161  13.363   9.226  11.358
83088SOL    HW251162  13.400   9.095  11.424
83089SOL     OW51163  11.840   2.664  11.844
83089SOL    HW151164  11.809   2.629  11.928
83089SOL    HW251165  11.777   2.734  11.824
83090SOL     OW51166  11.075  14.253   3.198
83090SOL    HW151167  11.161  14.234   3.236
83090SOL    HW251168  11.019  14.182   3.230
83091SOL     OW51169   5.476  14.547   8.683
83091SOL    HW151170   5.557  14.592   8.658
83091SOL    HW251171   5.408  14.591   8.632
83092SOL     OW51172  13.982  12.908  13.090
83092SOL    HW151173  14.035  12.902  13.010
83092SOL    HW251174  13.944  12.821  13.100
83093SOL     OW51175   2.870  11.877   0.251
83093SOL    HW151176   2.954  11.839   0.228
83093SOL    HW251177   2.876  11.894   0.345
83094SOL     OW51178   6.771  10.940   4.683
83094SOL    HW151179   6.739  10.854   4.708
83094SOL    HW251180   6.692  10.992   4.669
83095SOL     OW51181   4.553  12.680  13.040
83095SOL    HW151182   4.471  12.707  12.998
83095SOL    HW251183   4.540  12.588  13.060
83096SOL     OW51184   0.247  12.544   0.912
83096SOL    HW151185   0.244  12.453   0.942
83096SOL    HW251186   0.332  12.576   0.942
83097SOL     OW51187   1.581  10.584   2.554
83097SOL    HW151188   1.501  10.573   2.502
83097SOL    HW251189   1.639  10.515   2.524
83098SOL     OW51190   9.336   9.650  11.596
83098SOL    HW151191   9.386   9.569  11.588
83098SOL    HW251192   9.368   9.705  11.524
83099SOL     OW51193   9.889   7.068   4.027
83099SOL    HW151194   9.938   7.018   4.093
83099SOL    HW251195   9.921   7.035   3.943
83100SOL     OW51196   1.236  11.417  14.278
83100SOL    HW151197   1.274  11.329  14.273
83100SOL    HW251198   1.148  11.407  14.243
83101SOL     OW51199   8.864  12.205  14.690
83101SOL    HW151200   8.882  12.123  14.736
83101SOL    HW251201   8.820  12.179  14.609
83102SOL     OW51202   5.104  13.595  10.655
83102SOL    HW151203   5.139  13.664  10.712
83102SOL    HW251204   5.023  13.568  10.697
83103SOL     OW51205   1.302  10.741   7.371
83103SOL    HW151206   1.386  10.782   7.393
83103SOL    HW251207   1.236  10.799   7.410
83104SOL     OW51208   1.428   2.293   3.122
83104SOL    HW151209   1.433   2.348   3.044
83104SOL    HW251210   1.516   2.296   3.159
83105SOL     OW51211  12.132   2.277   4.529
83105SOL    HW151212  12.139   2.334   4.452
83105SOL    HW251213  12.038   2.268   4.544
83106SOL     OW51214  13.220  11.508   6.898
83106SOL    HW151215  13.154  11.509   6.829
83106SOL    HW251216  13.169  11.505   6.979
83107SOL     OW51217   6.485  11.032  10.872
83107SOL    HW151218   6.463  10.939  10.880
83107SOL    HW251219   6.560  11.033  10.812
83108SOL     OW51220   6.203  14.186  12.093
83108SOL    HW151221   6.143  14.186  12.167
83108SOL    HW251222   6.220  14.279  12.077
83109SOL     OW51223   6.568  11.903   2.925
83109SOL    HW151224   6.598  11.940   2.842
83109SOL    HW251225   6.492  11.849   2.902
83110SOL     OW51226   7.190  13.280   2.564
83110SOL    HW151227   7.263  13.342   2.575
83110SOL    HW251228   7.195  13.224   2.642
83111SOL     OW51229   8.359  12.355   6.475
83111SOL    HW151230   8.405  12.288   6.525
83111SOL    HW251231   8.344  12.315   6.389
83112SOL     OW51232   4.437   9.306   0.664
83112SOL    HW151233   4.364   9.320   0.724
83112SOL    HW251234   4.437   9.211   0.648
83113SOL     OW51235   4.850   9.733  10.797
83113SOL    HW151236   4.813   9.679  10.728
83113SOL    HW251237   4.887   9.809  10.752
83114SOL     OW51238   9.694   3.550  13.277
83114SOL    HW151239   9.738   3.578  13.197
83114SOL    HW251240   9.614   3.603  13.281
83115SOL     OW51241   8.163   7.740   0.074
83115SOL    HW151242   8.170   7.825   0.119
83115SOL    HW251243   8.109   7.759  14.867
83116SOL     OW51244   7.960   7.166  10.573
83116SOL    HW151245   7.902   7.091  10.587
83116SOL    HW251246   7.931   7.230  10.637
83117SOL     OW51247  10.605   8.846  11.061
83117SOL    HW151248  10.514   8.864  11.036
83117SOL    HW251249  10.635   8.926  11.104
83118SOL     OW51250   9.726   1.186   8.019
83118SOL    HW151251   9.797   1.243   8.049
83118SOL    HW251252   9.768   1.126   7.957
83119SOL     OW51253   1.103   2.610  10.948
83119SOL    HW151254   1.132   2.611  11.039
83119SOL    HW251255   1.182   2.596  10.897
83120SOL     OW51256  12.736   0.494   1.219
83120SOL    HW151257  12.751   0.588   1.212
83120SOL    HW251258  12.643   0.485   1.238
83121SOL     OW51259  10.318   9.328  11.293
83121SOL    HW151260  10.393   9.373  11.253
83121SOL    HW251261  10.358   9.254  11.340
83122SOL     OW51262  13.502   4.567   8.848
83122SOL    HW151263  13.509   4.472   8.852
83122SOL    HW251264  13.569   4.599   8.908
83123SOL     OW51265  11.121   2.855   2.691
83123SOL    HW151266  11.098   2.889   2.778
83123SOL    HW251267  11.037   2.833   2.651
83124SOL     OW51268  10.099  12.426   3.245
83124SOL    HW151269  10.151  12.397   3.170
83124SOL    HW251270  10.158  12.486   3.292
83125SOL     OW51271  10.994  10.358   6.163
83125SOL    HW151272  10.952  10.440   6.187
83125SOL    HW251273  10.989  10.355   6.067
83126SOL     OW51274   1.249  10.101  10.168
83126SOL    HW151275   1.279  10.010  10.157
83126SOL    HW251276   1.293  10.131  10.247
83127SOL     OW51277  11.092   7.725  12.750
83127SOL    HW151278  11.083   7.817  12.776
83127SOL    HW251279  11.003   7.695  12.736
83128SOL     OW51280   2.391   2.476  14.144
83128SOL    HW151281   2.471   2.507  14.101
83128SOL    HW251282   2.387   2.383  14.124
83129SOL     OW51283   2.299  11.932   7.622
83129SOL    HW151284   2.230  11.874   7.590
83129SOL    HW251285   2.380  11.892   7.593
83130SOL     OW51286   2.461  11.522   3.624
83130SOL    HW151287   2.473  11.462   3.550
83130SOL    HW251288   2.517  11.488   3.693
83131SOL     OW51289   5.281   4.516   1.469
83131SOL    HW151290   5.202   4.490   1.517
83131SOL    HW251291   5.257   4.509   1.377
83132SOL     OW51292  13.249   9.856   6.605
83132SOL    HW151293  13.217   9.894   6.687
83132SOL    HW251294  13.174   9.862   6.546
83133SOL     OW51295  13.295  12.589  12.703
83133SOL    HW151296  13.385  12.618  12.718
83133SOL    HW251297  13.243  12.669  12.711
83134SOL     OW51298  14.384  11.385   9.975
83134SOL    HW151299  14.346  11.426  10.052
83134SOL    HW251300  14.332  11.417   9.902
83135SOL     OW51301   6.704  12.281  14.212
83135SOL    HW151302   6.678  12.190  14.227
83135SOL    HW251303   6.737  12.282  14.123
83136SOL     OW51304  14.427   6.469   1.103
83136SOL    HW151305  14.353   6.503   1.052
83136SOL    HW251306  14.392   6.457   1.191
83137SOL     OW51307  14.417   5.543  12.701
83137SOL    HW151308  14.387   5.453  12.715
83137SOL    HW251309  14.441   5.573  12.789
83138SOL     OW51310  12.439  10.313  10.397
83138SOL    HW151311  12.519  10.350  10.435
83138SOL    HW251312  12.460  10.299  10.305
83139SOL     OW51313   0.953   0.580   7.555
83139SOL    HW151314   0.883   0.577   7.620
83139SOL    HW251315   0.924   0.645   7.491
83140SOL     OW51316   0.421   9.185   2.515
83140SOL    HW151317   0.406   9.248   2.586
83140SOL    HW251318   0.376   9.223   2.440
83141SOL     OW51319   0.862   6.834  14.086
83141SOL    HW151320   0.933   6.771  14.092
83141SOL    HW251321   0.828   6.825  13.996
83142SOL     OW51322   2.688   1.461   8.207
83142SOL    HW151323   2.679   1.487   8.298
83142SOL    HW251324   2.716   1.540   8.161
83143SOL     OW51325   5.552  10.711  10.531
83143SOL    HW151326   5.647  10.709  10.524
83143SOL    HW251327   5.523  10.624  10.504
83144SOL     OW51328  10.207   5.432   3.881
83144SOL    HW151329  10.240   5.377   3.810
83144SOL    HW251330  10.157   5.372   3.937
83145SOL     OW51331   9.844   3.837   8.666
83145SOL    HW151332   9.807   3.916   8.628
83145SOL    HW251333   9.787   3.818   8.741
83146SOL     OW51334   0.895   7.750  13.589
83146SOL    HW151335   0.846   7.671  13.610
83146SOL    HW251336   0.832   7.806  13.542
83147SOL     OW51337   9.417   3.755   5.465
83147SOL    HW151338   9.377   3.774   5.550
83147SOL    HW251339   9.482   3.825   5.454
83148SOL     OW51340  13.300  12.666  11.290
83148SOL    HW151341  13.290  12.651  11.196
83148SOL    HW251342  13.215  12.641  11.328
83149SOL     OW51343   9.167   4.287   2.030
83149SOL    HW151344   9.249   4.305   1.984
83149SOL    HW251345   9.115   4.367   2.020
83150SOL     OW51346   4.084   2.977   8.722
83150SOL    HW151347   4.067   2.963   8.629
83150SOL    HW251348   4.144   3.052   8.724
83151SOL     OW51349   3.826   4.322  10.527
83151SOL    HW151350   3.820   4.397  10.587
83151SOL    HW251351   3.772   4.346  10.453
83152SOL     OW51352  10.793  10.080  13.240
83152SOL    HW151353  10.743  10.103  13.162
83152SOL    HW251354  10.851  10.009  13.211
83153SOL     OW51355   6.116  10.977   1.316
83153SOL    HW151356   6.111  10.898   1.370
83153SOL    HW251357   6.101  10.945   1.227
83154SOL     OW51358   5.226   8.652  10.590
83154SOL    HW151359   5.204   8.733  10.544
83154SOL    HW251360   5.318   8.663  10.614
83155SOL     OW51361  12.403  14.739  10.270
83155SOL    HW151362  12.344  14.772  10.337
83155SOL    HW251363  12.408  14.645  10.287
83156SOL     OW51364  10.469  13.018   8.950
83156SOL    HW151365  10.559  13.025   8.982
83156SOL    HW251366  10.465  12.932   8.908
83157SOL     OW51367   0.519   8.045  13.211
83157SOL    HW151368   0.491   8.134  13.234
83157SOL    HW251369   0.445   7.990  13.234
83158SOL     OW51370   8.870   3.268   4.713
83158SOL    HW151371   8.932   3.217   4.662
83158SOL    HW251372   8.785   3.251   4.673
83159SOL     OW51373   8.122   4.959   3.128
83159SOL    HW151374   8.202   5.007   3.107
83159SOL    HW251375   8.093   4.996   3.212
83160SOL     OW51376   8.212  12.846   2.128
83160SOL    HW151377   8.159  12.805   2.196
83160SOL    HW251378   8.277  12.779   2.106
83161SOL     OW51379   9.814   6.912  10.551
83161SOL    HW151380   9.808   6.923  10.646
83161SOL    HW251381   9.774   6.827  10.534
83162SOL     OW51382   3.183   3.294   5.155
83162SOL    HW151383   3.108   3.350   5.176
83162SOL    HW251384   3.184   3.228   5.224
83163SOL     OW51385   7.226   1.053  12.479
83163SOL    HW151386   7.264   0.974  12.439
83163SOL    HW251387   7.224   1.117  12.408
83164SOL     OW51388  10.335  14.250   9.065
83164SOL    HW151389  10.332  14.339   9.098
83164SOL    HW251390  10.383  14.255   8.983
83165SOL     OW51391   3.627  13.833  13.164
83165SOL    HW151392   3.582  13.757  13.126
83165SOL    HW251393   3.670  13.798  13.242
83166SOL     OW51394   0.093   4.950  13.152
83166SOL    HW151395   0.055   4.949  13.239
83166SOL    HW251396   0.133   4.864  13.141
83167SOL     OW51397   3.996   8.662  12.828
83167SOL    HW151398   4.033   8.574  12.832
83167SOL    HW251399   4.068   8.718  12.801
83168SOL     OW51400   7.583  12.631   6.200
83168SOL    HW151401   7.580  12.564   6.268
83168SOL    HW251402   7.674  12.633   6.171
83169SOL     OW51403  14.131   5.780   8.904
83169SOL    HW151404  14.226   5.789   8.901
83169SOL    HW251405  14.101   5.859   8.950
83170SOL     OW51406   0.154   8.543  13.192
83170SOL    HW151407   0.128   8.629  13.223
83170SOL    HW251408   0.183   8.557  13.102
83171SOL     OW51409   2.548   5.972   0.081
83171SOL    HW151410   2.589   5.986   0.167
83171SOL    HW251411   2.583   5.887   0.052
83172SOL     OW51412   0.292   8.283   0.086
83172SOL    HW151413   0.299   8.229   0.164
83172SOL    HW251414   0.263   8.222   0.018
83173SOL     OW51415   0.107  13.321   5.038
83173SOL    HW151416   0.177  13.302   4.975
83173SOL    HW251417   0.119  13.257   5.108
83174SOL     OW51418   2.640  11.198  14.712
83174SOL    HW151419   2.689  11.142  14.773
83174SOL    HW251420   2.703  11.265  14.686
83175SOL     OW51421  10.207  13.012  14.801
83175SOL    HW151422  10.142  12.949  14.832
83175SOL    HW251423  10.158  13.093  14.789
83176SOL     OW51424  10.512  11.592   6.328
83176SOL    HW151425  10.428  11.626   6.359
83176SOL    HW251426  10.491  11.547   6.245
83177SOL     OW51427  10.746  13.973   7.323
83177SOL    HW151428  10.786  13.887   7.334
83177SOL    HW251429  10.667  13.970   7.378
83178SOL     OW51430  10.587  12.457   5.470
83178SOL    HW151431  10.556  12.546   5.482
83178SOL    HW251432  10.677  12.458   5.502
83179SOL     OW51433  12.052   7.978   3.098
83179SOL    HW151434  12.034   8.027   3.018
83179SOL    HW251435  11.987   8.010   3.161
83180SOL     OW51436   0.532   2.327  12.472
83180SOL    HW151437   0.557   2.303  12.561
83180SOL    HW251438   0.560   2.252  12.419
83181SOL     OW51439   4.601   0.336   4.083
83181SOL    HW151440   4.695   0.319   4.095
83181SOL    HW251441   4.588   0.422   4.122
83182SOL     OW51442  10.656   2.711   1.727
83182SOL    HW151443  10.663   2.644   1.659
83182SOL    HW251444  10.734   2.700   1.781
83183SOL     OW51445   0.323  14.657  12.315
83183SOL    HW151446   0.291  14.747  12.327
83183SOL    HW251447   0.245  14.607  12.290
83184SOL     OW51448  14.670   3.020   8.886
83184SOL    HW151449  14.697   3.070   8.809
83184SOL    HW251450  14.742   3.031   8.948
83185SOL     OW51451   9.587   4.234   7.134
83185SOL    HW151452   9.538   4.275   7.062
83185SOL    HW251453   9.522   4.181   7.180
83186SOL     OW51454   2.800   1.257   0.720
83186SOL    HW151455   2.878   1.258   0.664
83186SOL    HW251456   2.727   1.265   0.660
83187SOL     OW51457   7.201  12.318   1.122
83187SOL    HW151458   7.188  12.251   1.189
83187SOL    HW251459   7.158  12.283   1.044
83188SOL     OW51460   2.460  10.378  10.050
83188SOL    HW151461   2.378  10.426  10.040
83188SOL    HW251462   2.523  10.427   9.997
83189SOL     OW51463   9.379  11.913   5.350
83189SOL    HW151464   9.365  11.971   5.425
83189SOL    HW251465   9.302  11.856   5.349
83190SOL     OW51466   8.174   8.478   6.889
83190SOL    HW151467   8.262   8.455   6.857
83190SOL    HW251468   8.115   8.441   6.823
83191SOL     OW51469  10.729  10.879  11.148
83191SOL    HW151470  10.776  10.896  11.066
83191SOL    HW251471  10.714  10.784  11.147
83192SOL     OW51472   5.891   7.885   2.836
83192SOL    HW151473   5.829   7.871   2.909
83192SOL    HW251474   5.852   7.956   2.785
83193SOL     OW51475   8.865  10.906   4.436
83193SOL    HW151476   8.841  10.933   4.525
83193SOL    HW251477   8.866  10.811   4.439
83194SOL     OW51478   5.212   3.087  10.588
83194SOL    HW151479   5.219   3.141  10.509
83194SOL    HW251480   5.269   3.129  10.651
83195SOL     OW51481   4.014   8.549   0.379
83195SOL    HW151482   4.011   8.506   0.465
83195SOL    HW251483   3.958   8.626   0.389
83196SOL     OW51484   2.003   3.838   5.612
83196SOL    HW151485   1.969   3.759   5.571
83196SOL    HW251486   2.094   3.843   5.582
83197SOL     OW51487   2.395  10.910   6.075
83197SOL    HW151488   2.326  10.854   6.038
83197SOL    HW251489   2.477  10.866   6.052
83198SOL     OW51490  10.727  13.555   4.250
83198SOL    HW151491  10.816  13.564   4.216
83198SOL    HW251492  10.719  13.462   4.272
83199SOL     OW51493  11.679  14.401   5.843
83199SOL    HW151494  11.599  14.377   5.890
83199SOL    HW251495  11.668  14.361   5.757
83200SOL     OW51496   4.898   1.362   7.062
83200SOL    HW151497   4.980   1.344   7.108
83200SOL    HW251498   4.925   1.389   6.975
83201SOL     OW51499  13.298   4.427   0.486
83201SOL    HW151500  13.383   4.448   0.448
83201SOL    HW251501  13.308   4.338   0.520
83202SOL     OW51502   7.181  11.180   3.801
83202SOL    HW151503   7.119  11.246   3.770
83202SOL    HW251504   7.229  11.222   3.872
83203SOL     OW51505   5.724  13.798   2.627
83203SOL    HW151506   5.638  13.770   2.596
83203SOL    HW251507   5.786  13.744   2.578
83204SOL     OW51508   2.584   4.629   7.181
83204SOL    HW151509   2.653   4.565   7.199
83204SOL    HW251510   2.563   4.666   7.267
83205SOL     OW51511   0.025  13.271   7.413
83205SOL    HW151512   0.099  13.227   7.371
83205SOL    HW251513  14.859  13.206   7.474
83206SOL     OW51514  11.335   4.463  12.603
83206SOL    HW151515  11.262   4.511  12.564
83206SOL    HW251516  11.413   4.514  12.579
83207SOL     OW51517   1.408   1.580  12.691
83207SOL    HW151518   1.498   1.610  12.681
83207SOL    HW251519   1.416   1.486  12.707
83208SOL     OW51520   0.232   8.295  13.775
83208SOL    HW151521   0.148   8.319  13.734
83208SOL    HW251522   0.288   8.270  13.702
83209SOL     OW51523   5.604   9.038  12.726
83209SOL    HW151524   5.687   9.069  12.691
83209SOL    HW251525   5.572   8.977  12.660
83210SOL     OW51526  11.868   9.407   4.630
83210SOL    HW151527  11.805   9.474   4.605
83210SOL    HW251528  11.926   9.451   4.692
83211SOL     OW51529   7.917   0.094   3.847
83211SOL    HW151530   7.853   0.093   3.776
83211SOL    HW251531   7.965   0.176   3.835
83212SOL     OW51532   2.601   8.123   5.294
83212SOL    HW151533   2.592   8.142   5.388
83212SOL    HW251534   2.566   8.201   5.251
83213SOL     OW51535   1.447   4.958  12.520
83213SOL    HW151536   1.506   4.941  12.447
83213SOL    HW251537   1.497   4.932  12.598
83214SOL     OW51538  14.093   3.261   3.789
83214SOL    HW151539  14.044   3.251   3.707
83214SOL    HW251540  14.027   3.291   3.852
83215SOL     OW51541   3.595  13.390   3.652
83215SOL    HW151542   3.637  13.415   3.735
83215SOL    HW251543   3.668  13.382   3.590
83216SOL     OW51544   7.409   4.670  10.940
83216SOL    HW151545   7.454   4.629  11.014
83216SOL    HW251546   7.410   4.604  10.871
83217SOL     OW51547   4.933  10.794   5.270
83217SOL    HW151548   4.856  10.796   5.214
83217SOL    HW251549   4.912  10.731   5.339
83218SOL     OW51550   9.500  10.475   6.037
83218SOL    HW151551   9.575  10.533   6.024
83218SOL    HW251552   9.538  10.391   6.062
83219SOL     OW51553   3.206   0.644   1.845
83219SOL    HW151554   3.143   0.673   1.911
83219SOL    HW251555   3.239   0.724   1.806
83220SOL     OW51556   2.092  13.580   7.534
83220SOL    HW151557   2.168  13.628   7.500
83220SOL    HW251558   2.049  13.545   7.457
83221SOL     OW51559   7.779   0.349  13.762
83221SOL    HW151560   7.771   0.373  13.854
83221SOL    HW251561   7.762   0.255  13.761
83222SOL     OW51562  11.516  14.323  12.331
83222SOL    HW151563  11.533  14.384  12.403
83222SOL    HW251564  11.599  14.278  12.317
83223SOL     OW51565   7.337   9.838  13.501
83223SOL    HW151566   7.250   9.872  13.521
83223SOL    HW251567   7.376   9.906  13.445
83224SOL     OW51568  13.336  12.519  10.155
83224SOL    HW151569  13.281  12.461  10.208
83224SOL    HW251570  13.298  12.516  10.068
83225SOL     OW51571   2.164  11.204   4.758
83225SOL    HW151572   2.225  11.237   4.824
83225SOL    HW251573   2.155  11.276   4.696
83226SOL     OW51574  11.631   2.744   1.033
83226SOL    HW151575  11.581   2.823   1.011
83226SOL    HW251576  11.684   2.769   1.109
83227SOL     OW51577   1.427   0.709   0.040
83227SOL    HW151578   1.398   0.707  14.818
83227SOL    HW251579   1.488   0.782   0.044
83228SOL     OW51580   5.025  13.546   4.139
83228SOL    HW151581   5.118  13.559   4.157
83228SOL    HW251582   4.981  13.609   4.197
83229SOL     OW51583  10.882   2.977  11.175
83229SOL    HW151584  10.881   2.882  11.189
83229SOL    HW251585  10.974   2.997  11.161
83230SOL     OW51586   2.731   5.030   4.445
83230SOL    HW151587   2.694   5.113   4.474
83230SOL    HW251588   2.719   4.970   4.519
83231SOL     OW51589   6.977   4.880   6.779
83231SOL    HW151590   7.017   4.839   6.855
83231SOL    HW251591   7.044   4.941   6.747
83232SOL     OW51592   3.712  13.870   2.076
83232SOL    HW151593   3.748  13.798   2.129
83232SOL    HW251594   3.676  13.931   2.141
83233SOL     OW51595  14.424   0.095   4.275
83233SOL    HW151596  14.372   0.026   4.315
83233SOL    HW251597  14.387   0.176   4.311
83234SOL     OW51598  11.014   8.130   8.627
83234SOL    HW151599  10.931   8.160   8.591
83234SOL    HW251600  10.990   8.066   8.694
83235SOL     OW51601   4.023   5.602   0.476
83235SOL    HW151602   3.964   5.537   0.439
83235SOL    HW251603   4.105   5.555   0.490
83236SOL     OW51604   0.903  14.090  10.718
83236SOL    HW151605   0.991  14.057  10.733
83236SOL    HW251606   0.848  14.011  10.714
83237SOL     OW51607   6.679  12.100   5.726
83237SOL    HW151608   6.756  12.112   5.669
83237SOL    HW251609   6.692  12.163   5.797
83238SOL     OW51610   1.593   1.668   3.542
83238SOL    HW151611   1.508   1.709   3.532
83238SOL    HW251612   1.646   1.705   3.471
83239SOL     OW51613  14.761   4.266   0.580
83239SOL    HW151614  14.731   4.177   0.598
83239SOL    HW251615  14.690   4.306   0.530
83240SOL     OW51616  10.909   6.019  12.244
83240SOL    HW151617  10.947   6.000  12.158
83240SOL    HW251618  10.827   5.972  12.246
83241SOL     OW51619  13.447  11.126   7.019
83241SOL    HW151620  13.524  11.076   6.990
83241SOL    HW251621  13.414  11.166   6.938
83242SOL     OW51622  11.024   9.667  13.311
83242SOL    HW151623  10.961   9.622  13.367
83242SOL    HW251624  11.053   9.742  13.363
83243SOL     OW51625   7.079   9.757   5.885
83243SOL    HW151626   7.086   9.848   5.912
83243SOL    HW251627   6.991   9.750   5.848
83244SOL     OW51628   5.767  14.138  13.215
83244SOL    HW151629   5.681  14.112  13.245
83244SOL    HW251630   5.751  14.212  13.157
83245SOL     OW51631   9.215   3.875   7.942
83245SOL    HW151632   9.223   3.800   8.001
83245SOL    HW251633   9.210   3.951   8.000
83246SOL     OW51634  11.417   1.834   9.244
83246SOL    HW151635  11.367   1.782   9.307
83246SOL    HW251636  11.490   1.870   9.295
83247SOL     OW51637   4.443  11.173   7.820
83247SOL    HW151638   4.456  11.138   7.732
83247SOL    HW251639   4.508  11.242   7.829
83248SOL     OW51640   3.220  12.417   7.081
83248SOL    HW151641   3.141  12.385   7.123
83248SOL    HW251642   3.269  12.339   7.058
83249SOL     OW51643   2.153   5.329  11.711
83249SOL    HW151644   2.154   5.411  11.760
83249SOL    HW251645   2.065   5.323  11.674
83250SOL     OW51646  11.836   9.393   6.387
83250SOL    HW151647  11.816   9.473   6.435
83250SOL    HW251648  11.922   9.408   6.348
83251SOL     OW51649   2.521   8.370   1.371
83251SOL    HW151650   2.511   8.366   1.276
83251SOL    HW251651   2.510   8.280   1.401
83252SOL     OW51652   6.309  11.794   9.603
83252SOL    HW151653   6.224  11.828   9.574
83252SOL    HW251654   6.291  11.756   9.689
83253SOL     OW51655   0.734   5.820   3.895
83253SOL    HW151656   0.735   5.737   3.849
83253SOL    HW251657   0.682   5.804   3.974
83254SOL     OW51658   9.894  14.463   8.098
83254SOL    HW151659   9.851  14.389   8.141
83254SOL    HW251660   9.986  14.456   8.125
83255SOL     OW51661  14.031  14.086   7.231
83255SOL    HW151662  14.058  14.119   7.145
83255SOL    HW251663  13.941  14.055   7.218
83256SOL     OW51664   4.130   3.654  13.541
83256SOL    HW151665   4.193   3.666  13.470
83256SOL    HW251666   4.182   3.652  13.620
83257SOL     OW51667   6.013   0.470  13.568
83257SOL    HW151668   6.062   0.418  13.505
83257SOL    HW251669   6.000   0.554  13.524
83258SOL     OW51670   0.496   0.063  12.928
83258SOL    HW151671   0.559   0.003  12.887
83258SOL    HW251672   0.513   0.148  12.887
83259SOL     OW51673   9.864  12.026  11.509
83259SOL    HW151674   9.894  11.953  11.564
83259SOL    HW251675   9.812  11.984  11.440
83260SOL     OW51676  13.409   8.265   6.846
83260SOL    HW151677  13.377   8.234   6.931
83260SOL    HW251678  13.330   8.277   6.794
83261SOL     OW51679  10.582   1.742  12.440
83261SOL    HW151680  10.645   1.805  12.406
83261SOL    HW251681  10.635   1.682  12.494
83262SOL     OW51682   1.093   4.907   8.531
83262SOL    HW151683   1.148   4.985   8.526
83262SOL    HW251684   1.116   4.866   8.614
83263SOL     OW51685   3.413  13.867   4.186
83263SOL    HW151686   3.327  13.851   4.148
83263SOL    HW251687   3.435  13.956   4.159
83264SOL     OW51688  13.123   4.669   8.114
83264SOL    HW151689  13.075   4.738   8.159
83264SOL    HW251690  13.067   4.592   8.121
83265SOL     OW51691   0.155  10.736   6.115
83265SOL    HW151692   0.081  10.707   6.168
83265SOL    HW251693   0.209  10.787   6.176
83266SOL     OW51694   1.344   5.221   1.997
83266SOL    HW151695   1.341   5.131   1.963
83266SOL    HW251696   1.261   5.231   2.044
83267SOL     OW51697   7.761   8.642   7.256
83267SOL    HW151698   7.809   8.567   7.220
83267SOL    HW251699   7.793   8.717   7.207
83268SOL     OW51700   8.281  14.425   3.771
83268SOL    HW151701   8.278  14.376   3.689
83268SOL    HW251702   8.313  14.362   3.836
83269SOL     OW51703  13.177  11.845  10.653
83269SOL    HW151704  13.178  11.763  10.603
83269SOL    HW251705  13.104  11.895  10.615
83270SOL     OW51706   5.298  12.805   3.318
83270SOL    HW151707   5.286  12.738   3.252
83270SOL    HW251708   5.384  12.842   3.301
83271SOL     OW51709   2.675   3.906   3.287
83271SOL    HW151710   2.581   3.892   3.294
83271SOL    HW251711   2.706   3.835   3.232
83272SOL     OW51712  11.559   6.332   7.270
83272SOL    HW151713  11.597   6.414   7.241
83272SOL    HW251714  11.534   6.347   7.362
83273SOL     OW51715   3.392   5.282  11.502
83273SOL    HW151716   3.433   5.226  11.568
83273SOL    HW251717   3.356   5.356  11.551
83274SOL     OW51718   4.655   8.099   4.248
83274SOL    HW151719   4.724   8.154   4.286
83274SOL    HW251720   4.580   8.157   4.239
83275SOL     OW51721  13.103   3.445   5.530
83275SOL    HW151722  13.049   3.501   5.586
83275SOL    HW251723  13.167   3.406   5.589
83276SOL     OW51724   9.904   4.513   3.800
83276SOL    HW151725   9.809   4.518   3.796
83276SOL    HW251726   9.934   4.602   3.786
83277SOL     OW51727  11.475   9.542   0.984
83277SOL    HW151728  11.436   9.624   0.952
83277SOL    HW251729  11.449   9.476   0.920
83278SOL     OW51730  12.088   7.806  14.002
83278SOL    HW151731  12.052   7.766  13.923
83278SOL    HW251732  12.179   7.776  14.004
83279SOL     OW51733  10.832   6.857   4.436
83279SOL    HW151734  10.846   6.825   4.525
83279SOL    HW251735  10.778   6.789   4.395
83280SOL     OW51736   5.124   4.699   9.980
83280SOL    HW151737   5.191   4.642   9.942
83280SOL    HW251738   5.113   4.769   9.915
83281SOL     OW51739  11.743  13.736   8.771
83281SOL    HW151740  11.799  13.814   8.762
83281SOL    HW251741  11.740  13.719   8.865
83282SOL     OW51742  14.092   5.028  12.816
83282SOL    HW151743  14.142   5.109  12.827
83282SOL    HW251744  14.156   4.964  12.787
83283SOL     OW51745   9.512  12.148   7.576
83283SOL    HW151746   9.439  12.090   7.600
83283SOL    HW251747   9.488  12.181   7.489
83284SOL     OW51748   8.249   8.542  10.358
83284SOL    HW151749   8.306   8.562  10.431
83284SOL    HW251750   8.171   8.503  10.398
83285SOL     OW51751  12.619  11.565  14.392
83285SOL    HW151752  12.588  11.488  14.440
83285SOL    HW251753  12.556  11.633  14.413
83286SOL     OW51754   6.173  11.735   8.258
83286SOL    HW151755   6.191  11.657   8.205
83286SOL    HW251756   6.229  11.802   8.222
83287SOL     OW51757   5.655  11.035   0.669
83287SOL    HW151758   5.713  10.966   0.635
83287SOL    HW251759   5.567  11.001   0.654
83288SOL     OW51760   2.403  11.471  14.787
83288SOL    HW151761   2.342  11.519  14.844
83288SOL    HW251762   2.490  11.499  14.816
83289SOL     OW51763   0.958   1.012   8.828
83289SOL    HW151764   0.872   1.029   8.790
83289SOL    HW251765   0.970   0.918   8.820
83290SOL     OW51766   6.560  14.117   0.386
83290SOL    HW151767   6.488  14.128   0.448
83290SOL    HW251768   6.568  14.203   0.345
83291SOL     OW51769  11.238   5.026   4.759
83291SOL    HW151770  11.161   5.037   4.704
83291SOL    HW251771  11.204   5.020   4.848
83292SOL     OW51772  13.151   5.356   7.818
83292SOL    HW151773  13.167   5.275   7.770
83292SOL    HW251774  13.200   5.423   7.769
83293SOL     OW51775   9.229   6.772   1.426
83293SOL    HW151776   9.236   6.722   1.507
83293SOL    HW251777   9.198   6.708   1.361
83294SOL     OW51778   9.997  10.274   8.723
83294SOL    HW151779   9.908  10.263   8.757
83294SOL    HW251780  10.014  10.193   8.675
83295SOL     OW51781   8.578   4.051   5.004
83295SOL    HW151782   8.670   4.048   5.033
83295SOL    HW251783   8.583   4.069   4.911
83296SOL     OW51784  12.546   7.000   9.969
83296SOL    HW151785  12.549   6.910  10.000
83296SOL    HW251786  12.630   7.037   9.995
83297SOL     OW51787  13.332  11.701   4.922
83297SOL    HW151788  13.394  11.642   4.964
83297SOL    HW251789  13.371  11.720   4.836
83298SOL     OW51790   6.345  14.081   6.105
83298SOL    HW151791   6.354  14.110   6.196
83298SOL    HW251792   6.434  14.083   6.070
83299SOL     OW51793  12.962  10.103  12.868
83299SOL    HW151794  12.938  10.049  12.942
83299SOL    HW251795  13.051  10.134  12.887
83300SOL     OW51796   7.506  11.427   7.652
83300SOL    HW151797   7.456  11.502   7.619
83300SOL    HW251798   7.497  11.360   7.583
83301SOL     OW51799   5.993   3.117  13.777
83301SOL    HW151800   6.057   3.161  13.834
83301SOL    HW251801   6.035   3.034  13.754
83302SOL     OW51802  10.718   1.153  14.582
83302SOL    HW151803  10.805   1.170  14.546
83302SOL    HW251804  10.724   1.066  14.621
83303SOL     OW51805  14.401   9.665   8.673
83303SOL    HW151806  14.401   9.576   8.638
83303SOL    HW251807  14.472   9.665   8.738
83304SOL     OW51808   2.396  13.915   3.769
83304SOL    HW151809   2.383  13.847   3.836
83304SOL    HW251810   2.324  13.901   3.707
83305SOL     OW51811  13.809   2.577  12.701
83305SOL    HW151812  13.786   2.662  12.738
83305SOL    HW251813  13.810   2.592  12.606
83306SOL     OW51814   1.220  11.265  13.285
83306SOL    HW151815   1.264  11.270  13.369
83306SOL    HW251816   1.132  11.299  13.301
83307SOL     OW51817   3.471   5.176   7.854
83307SOL    HW151818   3.535   5.225   7.905
83307SOL    HW251819   3.477   5.086   7.887
83308SOL     OW51820   4.473   0.271  14.080
83308SOL    HW151821   4.452   0.280  13.987
83308SOL    HW251822   4.553   0.323  14.092
83309SOL     OW51823  11.653   3.131  10.394
83309SOL    HW151824  11.657   3.040  10.423
83309SOL    HW251825  11.601   3.128  10.313
83310SOL     OW51826   1.196   8.613  10.773
83310SOL    HW151827   1.185   8.566  10.856
83310SOL    HW251828   1.290   8.634  10.770
83311SOL     OW51829   8.598   7.245   6.811
83311SOL    HW151830   8.537   7.315   6.835
83311SOL    HW251831   8.553   7.164   6.837
83312SOL     OW51832   7.505   0.232  12.092
83312SOL    HW151833   7.419   0.218  12.131
83312SOL    HW251834   7.525   0.325  12.108
83313SOL     OW51835   8.870   1.759  12.367
83313SOL    HW151836   8.950   1.791  12.407
83313SOL    HW251837   8.811   1.834  12.368
83314SOL     OW51838   6.416  10.597   8.487
83314SOL    HW151839   6.467  10.667   8.446
83314SOL    HW251840   6.364  10.642   8.554
83315SOL     OW51841   8.400  10.261  13.007
83315SOL    HW151842   8.466  10.293  12.945
83315SOL    HW251843   8.331  10.326  13.004
83316SOL     OW51844  12.836  10.284   4.826
83316SOL    HW151845  12.883  10.231   4.890
83316SOL    HW251846  12.880  10.369   4.829
83317SOL     OW51847   3.564   5.241   1.760
83317SOL    HW151848   3.659   5.224   1.760
83317SOL    HW251849   3.526   5.165   1.803
83318SOL     OW51850  10.793   3.828   9.029
83318SOL    HW151851  10.742   3.763   8.980
83318SOL    HW251852  10.835   3.881   8.961
83319SOL     OW51853   1.785  10.789   7.400
83319SOL    HW151854   1.783  10.723   7.331
83319SOL    HW251855   1.874  10.824   7.397
83320SOL     OW51856  13.954   3.752   0.204
83320SOL    HW151857  13.942   3.845   0.225
83320SOL    HW251858  14.025   3.751   0.140
83321SOL     OW51859   8.700  11.790   1.309
83321SOL    HW151860   8.636  11.725   1.335
83321SOL    HW251861   8.681  11.866   1.364
83322SOL     OW51862   2.191   4.242  10.472
83322SOL    HW151863   2.169   4.237  10.379
83322SOL    HW251864   2.108   4.225  10.518
83323SOL     OW51865   8.988   3.536   5.057
83323SOL    HW151866   8.985   3.441   5.059
83323SOL    HW251867   8.938   3.560   4.979
83324SOL     OW51868  11.842   4.604  14.497
83324SOL    HW151869  11.890   4.553  14.432
83324SOL    HW251870  11.810   4.680  14.448
83325SOL     OW51871   0.515  14.242   3.623
83325SOL    HW151872   0.491  14.236   3.531
83325SOL    HW251873   0.586  14.178   3.633
83326SOL     OW51874   1.963  14.300   9.179
83326SOL    HW151875   2.045  14.322   9.223
83326SOL    HW251876   1.989  14.273   9.091
83327SOL     OW51877   9.961   1.287   1.642
83327SOL    HW151878   9.879   1.333   1.625
83327SOL    HW251879   9.981   1.306   1.734
83328SOL     OW51880  11.032   0.078  14.824
83328SOL    HW151881  11.052   0.136  14.751
83328SOL    HW251882  11.063  14.862  14.796
83329SOL     OW51883   9.082  10.590  14.703
83329SOL    HW151884   9.138  10.526  14.746
83329SOL    HW251885   9.138  10.667  14.693
83330SOL     OW51886   9.049   8.433   6.800
83330SOL    HW151887   9.060   8.430   6.705
83330SOL    HW251888   9.085   8.517   6.826
83331SOL     OW51889   9.439   1.851  13.507
83331SOL    HW151890   9.437   1.795  13.429
83331SOL    HW251891   9.428   1.940  13.474
83332SOL     OW51892   4.152   3.763   7.034
83332SOL    HW151893   4.149   3.709   7.113
83332SOL    HW251894   4.115   3.706   6.966
83333SOL     OW51895   7.374   6.934   0.197
83333SOL    HW151896   7.390   7.024   0.169
83333SOL    HW251897   7.326   6.943   0.279
83334SOL     OW51898  12.104   7.706   3.154
83334SOL    HW151899  12.149   7.720   3.237
83334SOL    HW251900  12.074   7.793   3.129
83335SOL     OW51901   2.420   5.674  13.805
83335SOL    HW151902   2.326   5.672  13.785
83335SOL    HW251903   2.459   5.718  13.729
83336SOL     OW51904   0.850   7.853  10.445
83336SOL    HW151905   0.756   7.857  10.465
83336SOL    HW251906   0.887   7.931  10.486
83337SOL     OW51907  14.181   2.959   3.466
83337SOL    HW151908  14.116   3.017   3.427
83337SOL    HW251909  14.264   3.005   3.456
83338SOL     OW51910  10.710   5.158   6.480
83338SOL    HW151911  10.748   5.209   6.408
83338SOL    HW251912  10.617   5.151   6.457
83339SOL     OW51913  10.929  14.549   1.285
83339SOL    HW151914  10.978  14.622   1.249
83339SOL    HW251915  10.934  14.482   1.217
83340SOL     OW51916   1.202  14.499   3.811
83340SOL    HW151917   1.253  14.498   3.892
83340SOL    HW251918   1.242  14.568   3.758
83341SOL     OW51919  12.838   9.760   3.846
83341SOL    HW151920  12.903   9.830   3.843
83341SOL    HW251921  12.812   9.756   3.938
83342SOL     OW51922   5.812  10.884   5.023
83342SOL    HW151923   5.851  10.897   4.937
83342SOL    HW251924   5.741  10.822   5.007
83343SOL     OW51925   3.567  11.720   1.781
83343SOL    HW151926   3.645  11.669   1.762
83343SOL    HW251927   3.521  11.670   1.848
83344SOL     OW51928   2.236   1.819   9.466
83344SOL    HW151929   2.188   1.792   9.544
83344SOL    HW251930   2.235   1.741   9.409
83345SOL     OW51931   3.225   5.775   3.014
83345SOL    HW151932   3.188   5.696   2.975
83345SOL    HW251933   3.149   5.820   3.052
83346SOL     OW51934   4.778   3.229   1.309
83346SOL    HW151935   4.730   3.157   1.268
83346SOL    HW251936   4.827   3.188   1.381
83347SOL     OW51937  14.008  13.495   4.508
83347SOL    HW151938  13.916  13.518   4.492
83347SOL    HW251939  14.012  13.400   4.491
83348SOL     OW51940  10.794  14.784   1.846
83348SOL    HW151941  10.716  14.786   1.900
83348SOL    HW251942  10.865  14.766   1.907
83349SOL     OW51943   7.158   4.174   2.664
83349SOL    HW151944   7.099   4.248   2.678
83349SOL    HW251945   7.127   4.134   2.582
83350SOL     OW51946  14.328  13.344   6.666
83350SOL    HW151947  14.403  13.313   6.715
83350SOL    HW251948  14.354  13.335   6.574
83351SOL     OW51949   3.528  14.069  14.176
83351SOL    HW151950   3.600  14.013  14.146
83351SOL    HW251951   3.570  14.147  14.211
83352SOL     OW51952   8.097   6.153  10.903
83352SOL    HW151953   8.076   6.148  10.810
83352SOL    HW251954   8.175   6.209  10.907
83353SOL     OW51955   6.353  14.429   9.784
83353SOL    HW151956   6.305  14.352   9.812
83353SOL    HW251957   6.413  14.397   9.717
83354SOL     OW51958  13.674  14.190   1.092
83354SOL    HW151959  13.587  14.196   1.053
83354SOL    HW251960  13.711  14.277   1.081
83355SOL     OW51961  12.948   6.455  11.799
83355SOL    HW151962  13.013   6.502  11.852
83355SOL    HW251963  12.886   6.523  11.772
83356SOL     OW51964  12.464  14.104   7.310
83356SOL    HW151965  12.418  14.023   7.333
83356SOL    HW251966  12.442  14.165   7.380
83357SOL     OW51967  12.397  12.759   8.254
83357SOL    HW151968  12.453  12.763   8.331
83357SOL    HW251969  12.397  12.666   8.229
83358SOL     OW51970   6.375   3.237  12.908
83358SOL    HW151971   6.389   3.210  12.999
83358SOL    HW251972   6.347   3.329  12.915
83359SOL     OW51973   2.183   5.165   8.647
83359SOL    HW151974   2.129   5.154   8.725
83359SOL    HW251975   2.132   5.123   8.577
83360SOL     OW51976  11.161   5.773   7.431
83360SOL    HW151977  11.207   5.842   7.383
83360SOL    HW251978  11.069   5.799   7.426
83361SOL     OW51979  13.919   1.965   0.088
83361SOL    HW151980  13.850   1.999   0.145
83361SOL    HW251981  13.921   2.026   0.014
83362SOL     OW51982  13.061   5.936   7.160
83362SOL    HW151983  12.982   5.923   7.213
83362SOL    HW251984  13.034   5.915   7.071
83363SOL     OW51985   5.878  10.004   1.600
83363SOL    HW151986   5.947   9.959   1.551
83363SOL    HW251987   5.892   9.978   1.691
83364SOL     OW51988  14.787   0.734  14.610
83364SOL    HW151989  14.759   0.677  14.538
83364SOL    HW251990  14.722   0.804  14.612
83365SOL     OW51991  13.704   2.497   0.628
83365SOL    HW151992  13.625   2.551   0.618
83365SOL    HW251993  13.760   2.548   0.688
83366SOL     OW51994   1.564  11.792   6.476
83366SOL    HW151995   1.518  11.744   6.407
83366SOL    HW251996   1.654  11.798   6.444
83367SOL     OW51997  13.429   1.070   8.727
83367SOL    HW151998  13.441   1.053   8.634
83367SOL    HW251999  13.408   0.984   8.764
83368SOL     OW52000   4.242  14.299   9.095
83368SOL    HW152001   4.307  14.291   9.164
83368SOL    HW252002   4.202  14.385   9.109
83369SOL     OW52003   4.939  10.814   8.573
83369SOL    HW152004   4.846  10.836   8.567
83369SOL    HW252005   4.984  10.891   8.535
83370SOL     OW52006  11.386   4.531   3.456
83370SOL    HW152007  11.437   4.586   3.516
83370SOL    HW252008  11.346   4.592   3.395
83371SOL     OW52009   6.090  13.168   3.112
83371SOL    HW152010   6.176  13.142   3.079
83371SOL    HW252011   6.062  13.238   3.052
83372SOL     OW52012   9.503   0.531   5.057
83372SOL    HW152013   9.551   0.450   5.039
83372SOL    HW252014   9.435   0.534   4.989
83373SOL     OW52015   8.263   3.148  10.563
83373SOL    HW152016   8.196   3.097  10.608
83373SOL    HW252017   8.225   3.235  10.555
83374SOL     OW52018   1.966  11.952   7.912
83374SOL    HW152019   1.921  11.868   7.921
83374SOL    HW252020   1.963  11.990   8.000
83375SOL     OW52021  11.217   3.163   6.477
83375SOL    HW152022  11.144   3.177   6.417
83375SOL    HW252023  11.204   3.226   6.547
83376SOL     OW52024  11.800   9.303   8.031
83376SOL    HW152025  11.895   9.316   8.035
83376SOL    HW252026  11.785   9.219   8.073
83377SOL     OW52027   4.482  10.958   4.981
83377SOL    HW152028   4.512  10.914   4.901
83377SOL    HW252029   4.388  10.943   4.984
83378SOL     OW52030  13.278   6.046   7.009
83378SOL    HW152031  13.199   6.003   7.041
83378SOL    HW252032  13.329   6.065   7.088
83379SOL     OW52033   6.280   9.088   9.230
83379SOL    HW152034   6.201   9.068   9.180
83379SOL    HW252035   6.248   9.133   9.308
83380SOL     OW52036  10.526   9.442   7.173
83380SOL    HW152037  10.596   9.420   7.235
83380SOL    HW252038  10.479   9.514   7.215
83381SOL     OW52039   0.555   7.168  12.604
83381SOL    HW152040   0.595   7.222  12.672
83381SOL    HW252041   0.606   7.187  12.525
83382SOL     OW52042   5.365   8.243   6.796
83382SOL    HW152043   5.271   8.260   6.803
83382SOL    HW252044   5.398   8.316   6.743
83383SOL     OW52045   8.007   5.652   7.598
83383SOL    HW152046   7.950   5.729   7.594
83383SOL    HW252047   8.035   5.648   7.689
83384SOL     OW52048   6.397  14.162   0.693
83384SOL    HW152049   6.449  14.084   0.717
83384SOL    HW252050   6.445  14.235   0.732
83385SOL     OW52051   9.613   4.081   9.903
83385SOL    HW152052   9.551   4.151   9.881
83385SOL    HW252053   9.676   4.081   9.831
83386SOL     OW52054   9.736   7.428   5.643
83386SOL    HW152055   9.787   7.353   5.612
83386SOL    HW252056   9.801   7.485   5.684
83387SOL     OW52057   5.039  10.179   8.931
83387SOL    HW152058   4.963  10.121   8.935
83387SOL    HW252059   5.113  10.122   8.911
83388SOL     OW52060  13.042   0.697   9.158
83388SOL    HW152061  12.962   0.742   9.187
83388SOL    HW252062  13.035   0.696   9.063
83389SOL     OW52063  13.506   5.655   7.163
83389SOL    HW152064  13.456   5.737   7.172
83389SOL    HW252065  13.565   5.672   7.090
83390SOL     OW52066   5.315   6.392  10.702
83390SOL    HW152067   5.315   6.408  10.797
83390SOL    HW252068   5.342   6.301  10.693
83391SOL     OW52069  13.458   4.481  12.863
83391SOL    HW152070  13.369   4.515  12.867
83391SOL    HW252071  13.514   4.559  12.861
83392SOL     OW52072   3.336   7.558  10.046
83392SOL    HW152073   3.306   7.649  10.041
83392SOL    HW252074   3.402   7.551   9.977
83393SOL     OW52075  11.803   2.383   2.767
83393SOL    HW152076  11.855   2.304   2.782
83393SOL    HW252077  11.715   2.351   2.749
83394SOL     OW52078  14.690   7.884  13.418
83394SOL    HW152079  14.751   7.844  13.355
83394SOL    HW252080  14.662   7.812  13.474
83395SOL     OW52081   5.710   7.179   0.225
83395SOL    HW152082   5.747   7.096   0.195
83395SOL    HW252083   5.656   7.209   0.152
83396SOL     OW52084   3.704  11.231   1.570
83396SOL    HW152085   3.762  11.271   1.506
83396SOL    HW252086   3.761  11.208   1.643
83397SOL     OW52087  11.162   6.592  10.290
83397SOL    HW152088  11.216   6.562  10.363
83397SOL    HW252089  11.181   6.530  10.220
83398SOL     OW52090   1.994   4.294   8.308
83398SOL    HW152091   1.932   4.362   8.282
83398SOL    HW252092   1.978   4.281   8.401
83399SOL     OW52093   9.329  14.501   1.341
83399SOL    HW152094   9.323  14.590   1.309
83399SOL    HW252095   9.391  14.506   1.414
83400SOL     OW52096  14.557   7.916   4.633
83400SOL    HW152097  14.543   7.920   4.538
83400SOL    HW252098  14.642   7.959   4.646
83401SOL     OW52099   4.321   6.075   5.213
83401SOL    HW152100   4.306   5.998   5.268
83401SOL    HW252101   4.378   6.131   5.265
83402SOL     OW52102  13.181  10.704   5.975
83402SOL    HW152103  13.185  10.689   6.069
83402SOL    HW252104  13.265  10.744   5.953
83403SOL     OW52105  12.345   1.842   5.259
83403SOL    HW152106  12.281   1.898   5.215
83403SOL    HW252107  12.298   1.808   5.336
83404SOL     OW52108   8.054   5.105   9.186
83404SOL    HW152109   8.024   5.029   9.236
83404SOL    HW252110   8.000   5.177   9.217
83405SOL     OW52111  14.499  12.067   2.862
83405SOL    HW152112  14.462  12.117   2.934
83405SOL    HW252113  14.447  12.092   2.786
83406SOL     OW52114   2.913   8.125  14.698
83406SOL    HW152115   2.892   8.150  14.608
83406SOL    HW252116   2.839   8.070  14.725
83407SOL     OW52117   5.203   3.600   0.506
83407SOL    HW152118   5.133   3.654   0.470
83407SOL    HW252119   5.209   3.525   0.446
83408SOL     OW52120  10.983   7.681  10.561
83408SOL    HW152121  11.026   7.599  10.536
83408SOL    HW252122  10.999   7.688  10.655
83409SOL     OW52123   5.732  14.082  11.241
83409SOL    HW152124   5.672  14.100  11.169
83409SOL    HW252125   5.748  14.168  11.281
83410SOL     OW52126   0.083   0.880   3.939
83410SOL    HW152127   0.123   0.922   4.015
83410SOL    HW252128   0.155   0.829   3.900
83411SOL     OW52129   1.748  11.595  11.298
83411SOL    HW152130   1.765  11.679  11.341
83411SOL    HW252131   1.831  11.572  11.257
83412SOL     OW52132   5.953  11.735  13.244
83412SOL    HW152133   5.907  11.741  13.328
83412SOL    HW252134   6.021  11.803  13.250
83413SOL     OW52135   2.644   7.369   4.284
83413SOL    HW152136   2.704   7.297   4.262
83413SOL    HW252137   2.702   7.441   4.311
83414SOL     OW52138   2.241   3.467   2.989
83414SOL    HW152139   2.284   3.403   3.045
83414SOL    HW252140   2.247   3.430   2.901
83415SOL     OW52141   2.888   1.523   5.420
83415SOL    HW152142   2.841   1.557   5.343
83415SOL    HW252143   2.822   1.524   5.490
83416SOL     OW52144   9.992  13.929   6.495
83416SOL    HW152145   9.946  13.857   6.538
83416SOL    HW252146  10.077  13.932   6.538
83417SOL     OW52147   6.594  13.967  13.195
83417SOL    HW152148   6.636  14.036  13.248
83417SOL    HW252149   6.506  14.000  13.180
83418SOL     OW52150   0.126  14.382   6.947
83418SOL    HW152151   0.098  14.451   6.888
83418SOL    HW252152   0.214  14.408   6.974
83419SOL     OW52153   3.149   5.953   9.663
83419SOL    HW152154   3.183   6.034   9.700
83419SOL    HW252155   3.190   5.946   9.577
83420SOL     OW52156   0.970   5.536   1.805
83420SOL    HW152157   1.013   5.615   1.836
83420SOL    HW252158   1.027   5.504   1.734
83421SOL     OW52159  13.774   3.479   6.908
83421SOL    HW152160  13.789   3.485   6.814
83421SOL    HW252161  13.819   3.399   6.935
83422SOL     OW52162  12.677  12.179   8.414
83422SOL    HW152163  12.614  12.250   8.420
83422SOL    HW252164  12.623  12.100   8.402
83423SOL     OW52165   7.979  11.088  12.393
83423SOL    HW152166   7.958  11.078  12.300
83423SOL    HW252167   8.048  11.155  12.395
83424SOL     OW52168   3.585   2.573  10.650
83424SOL    HW152169   3.580   2.583  10.745
83424SOL    HW252170   3.679   2.578  10.630
83425SOL     OW52171   4.503   7.757   8.527
83425SOL    HW152172   4.550   7.825   8.479
83425SOL    HW252173   4.521   7.677   8.478
83426SOL     OW52174   9.437  13.356   5.023
83426SOL    HW152175   9.488  13.435   5.042
83426SOL    HW252176   9.346  13.386   5.021
83427SOL     OW52177   0.526  12.749   7.283
83427SOL    HW152178   0.447  12.776   7.329
83427SOL    HW252179   0.598  12.785   7.335
83428SOL     OW52180   8.695  12.037   2.358
83428SOL    HW152181   8.667  12.054   2.448
83428SOL    HW252182   8.784  12.071   2.352
83429SOL     OW52183   8.522   4.437  10.683
83429SOL    HW152184   8.429   4.458  10.683
83429SOL    HW252185   8.564   4.515  10.719
83430SOL     OW52186  11.586  13.024   6.712
83430SOL    HW152187  11.501  12.981   6.719
83430SOL    HW252188  11.606  13.024   6.619
83431SOL     OW52189  14.198  13.159  11.812
83431SOL    HW152190  14.166  13.098  11.746
83431SOL    HW252191  14.264  13.110  11.861
83432SOL     OW52192  10.700   9.107   7.531
83432SOL    HW152193  10.774   9.130   7.475
83432SOL    HW252194  10.630   9.085   7.470
83433SOL     OW52195   3.845   6.019  12.806
83433SOL    HW152196   3.836   5.960  12.881
83433SOL    HW252197   3.778   5.991  12.744
83434SOL     OW52198   1.682   2.955   9.689
83434SOL    HW152199   1.627   2.929   9.616
83434SOL    HW252200   1.621   2.994   9.752
83435SOL     OW52201  12.175   5.522   5.471
83435SOL    HW152202  12.097   5.576   5.481
83435SOL    HW252203  12.242   5.582   5.438
83436SOL     OW52204   1.752   0.530  13.834
83436SOL    HW152205   1.714   0.467  13.774
83436SOL    HW252206   1.788   0.477  13.905
83437SOL     OW52207   4.444  14.550  13.033
83437SOL    HW152208   4.484  14.622  12.984
83437SOL    HW252209   4.373  14.590  13.083
83438SOL     OW52210  10.588  11.348   3.005
83438SOL    HW152211  10.610  11.273   2.950
83438SOL    HW252212  10.509  11.385   2.965
83439SOL     OW52213   5.688  12.186   1.055
83439SOL    HW152214   5.665  12.272   1.019
83439SOL    HW252215   5.635  12.178   1.134
83440SOL     OW52216   5.681   9.637   9.829
83440SOL    HW152217   5.662   9.681   9.912
83440SOL    HW252218   5.633   9.688   9.764
83441SOL     OW52219   5.391   2.334  10.068
83441SOL    HW152220   5.429   2.247  10.073
83441SOL    HW252221   5.335   2.341  10.145
83442SOL     OW52222   4.855   3.820   5.097
83442SOL    HW152223   4.769   3.860   5.112
83442SOL    HW252224   4.911   3.856   5.165
83443SOL     OW52225   4.842   1.096  13.912
83443SOL    HW152226   4.849   1.007  13.877
83443SOL    HW252227   4.748   1.111  13.922
83444SOL     OW52228   6.419   4.815   7.209
83444SOL    HW152229   6.444   4.883   7.272
83444SOL    HW252230   6.340   4.776   7.245
83445SOL     OW52231   2.422   4.765  10.037
83445SOL    HW152232   2.489   4.806  10.092
83445SOL    HW252233   2.388   4.837   9.984
83446SOL     OW52234  12.253   7.020  12.408
83446SOL    HW152235  12.219   6.974  12.331
83446SOL    HW252236  12.242   7.113  12.387
83447SOL     OW52237   3.745  10.235   6.047
83447SOL    HW152238   3.698  10.211   6.127
83447SOL    HW252239   3.762  10.328   6.056
83448SOL     OW52240   8.403   1.066   5.876
83448SOL    HW152241   8.486   1.033   5.840
83448SOL    HW252242   8.412   1.055   5.970
83449SOL     OW52243   8.048   2.819   5.999
83449SOL    HW152244   8.024   2.727   5.989
83449SOL    HW252245   8.099   2.822   6.080
83450SOL     OW52246   3.096  13.855  11.173
83450SOL    HW152247   3.115  13.762  11.190
83450SOL    HW252248   3.162  13.882  11.109
83451SOL     OW52249   4.256   9.078  12.022
83451SOL    HW152250   4.342   9.105  11.992
83451SOL    HW252251   4.215   9.159  12.053
83452SOL     OW52252   4.715   0.514   3.865
83452SOL    HW152253   4.653   0.530   3.936
83452SOL    HW252254   4.660   0.503   3.787
83453SOL     OW52255   2.304   2.114  13.398
83453SOL    HW152256   2.310   2.187  13.459
83453SOL    HW252257   2.394   2.097  13.372
83454SOL     OW52258  14.275   3.314   0.573
83454SOL    HW152259  14.304   3.309   0.664
83454SOL    HW252260  14.180   3.323   0.578
83455SOL     OW52261   9.072  10.431   5.047
83455SOL    HW152262   9.003  10.380   5.090
83455SOL    HW252263   9.148  10.373   5.045
83456SOL     OW52264   9.492  12.209   6.725
83456SOL    HW152265   9.535  12.182   6.806
83456SOL    HW252266   9.399  12.188   6.739
83457SOL     OW52267   3.774   0.675   5.690
83457SOL    HW152268   3.704   0.662   5.754
83457SOL    HW252269   3.728   0.678   5.606
83458SOL     OW52270  12.596   9.630   1.930
83458SOL    HW152271  12.526   9.569   1.906
83458SOL    HW252272  12.550   9.707   1.965
83459SOL     OW52273   8.510  14.473   0.128
83459SOL    HW152274   8.418  14.498   0.122
83459SOL    HW252275   8.533  14.446   0.039
83460SOL     OW52276   4.859   1.148   8.781
83460SOL    HW152277   4.886   1.056   8.783
83460SOL    HW252278   4.780   1.151   8.834
83461SOL     OW52279   3.061   5.649   1.443
83461SOL    HW152280   3.059   5.678   1.352
83461SOL    HW252281   2.970   5.652   1.471
83462SOL     OW52282  14.468   7.406   7.012
83462SOL    HW152283  14.493   7.420   7.103
83462SOL    HW252284  14.549   7.380   6.969
83463SOL     OW52285  14.300   6.807   6.015
83463SOL    HW152286  14.392   6.789   5.996
83463SOL    HW252287  14.282   6.889   5.969
83464SOL     OW52288   6.279   4.352   1.954
83464SOL    HW152289   6.352   4.412   1.967
83464SOL    HW252290   6.250   4.367   1.864
83465SOL     OW52291  14.842   5.783  11.405
83465SOL    HW152292  14.825   5.838  11.328
83465SOL    HW252293   0.010   5.843  11.469
83466SOL     OW52294  13.307   1.861   9.341
83466SOL    HW152295  13.380   1.880   9.283
83466SOL    HW252296  13.230   1.864   9.284
83467SOL     OW52297   6.209  12.066   2.023
83467SOL    HW152298   6.261  12.015   2.086
83467SOL    HW252299   6.243  12.041   1.938
83468SOL     OW52300   8.763   5.515  13.787
83468SOL    HW152301   8.684   5.568  13.780
83468SOL    HW252302   8.736   5.437  13.835
83469SOL     OW52303   5.937  10.497   3.638
83469SOL    HW152304   5.942  10.406   3.669
83469SOL    HW252305   5.879  10.493   3.562
83470SOL     OW52306   0.930  12.931   5.510
83470SOL    HW152307   0.994  12.999   5.533
83470SOL    HW252308   0.850  12.956   5.557
83471SOL     OW52309  10.654   4.201   8.172
83471SOL    HW152310  10.606   4.284   8.182
83471SOL    HW252311  10.645   4.179   8.080
83472SOL     OW52312   3.209  10.097   0.106
83472SOL    HW152313   3.229  10.166   0.042
83472SOL    HW252314   3.173  10.026   0.053
83473SOL     OW52315   5.344  12.159   0.621
83473SOL    HW152316   5.371  12.247   0.595
83473SOL    HW252317   5.396  12.101   0.564
83474SOL     OW52318  13.831  10.459   7.949
83474SOL    HW152319  13.759  10.455   7.887
83474SOL    HW252320  13.794  10.498   8.028
83475SOL     OW52321   6.605  13.285   1.577
83475SOL    HW152322   6.624  13.377   1.556
83475SOL    HW252323   6.560  13.252   1.499
83476SOL     OW52324  12.093   2.367  11.417
83476SOL    HW152325  12.155   2.401  11.352
83476SOL    HW252326  12.072   2.443  11.472
83477SOL     OW52327  14.297   4.134  12.192
83477SOL    HW152328  14.373   4.182  12.159
83477SOL    HW252329  14.285   4.062  12.130
83478SOL     OW52330   5.261  13.995   6.461
83478SOL    HW152331   5.327  13.979   6.394
83478SOL    HW252332   5.184  14.024   6.412
83479SOL     OW52333   6.736   2.106   4.295
83479SOL    HW152334   6.764   2.026   4.251
83479SOL    HW252335   6.761   2.177   4.236
83480SOL     OW52336   2.488  12.854   5.831
83480SOL    HW152337   2.399  12.877   5.854
83480SOL    HW252338   2.541  12.927   5.863
83481SOL     OW52339   8.567   7.298  11.516
83481SOL    HW152340   8.487   7.248  11.499
83481SOL    HW252341   8.573   7.301  11.612
83482SOL     OW52342   7.019  11.357   0.696
83482SOL    HW152343   7.003  11.394   0.609
83482SOL    HW252344   7.076  11.281   0.680
83483SOL     OW52345   5.325  14.013   0.296
83483SOL    HW152346   5.265  13.960   0.349
83483SOL    HW252347   5.401  13.957   0.283
83484SOL     OW52348  10.459  14.705   6.554
83484SOL    HW152349  10.466  14.610   6.564
83484SOL    HW252350  10.381  14.729   6.603
83485SOL     OW52351   9.161  12.864   7.986
83485SOL    HW152352   9.129  12.831   8.070
83485SOL    HW252353   9.103  12.823   7.921
83486SOL     OW52354  13.339  11.897   2.827
83486SOL    HW152355  13.397  11.820   2.824
83486SOL    HW252356  13.273  11.878   2.761
83487SOL     OW52357   4.552   8.726  14.475
83487SOL    HW152358   4.555   8.814  14.437
83487SOL    HW252359   4.614   8.675  14.424
83488SOL     OW52360   8.623  11.075   7.606
83488SOL    HW152361   8.647  10.998   7.659
83488SOL    HW252362   8.532  11.058   7.580
83489SOL     OW52363  14.394   4.590  12.552
83489SOL    HW152364  14.420   4.628  12.468
83489SOL    HW252365  14.375   4.498  12.532
83490SOL     OW52366   5.900  11.995   8.377
83490SOL    HW152367   5.813  12.034   8.392
83490SOL    HW252368   5.927  12.029   8.292
83491SOL     OW52369  14.285   5.407   0.333
83491SOL    HW152370  14.250   5.336   0.387
83491SOL    HW252371  14.268   5.379   0.243
83492SOL     OW52372   8.636   1.657   8.347
83492SOL    HW152373   8.725   1.676   8.376
83492SOL    HW252374   8.620   1.719   8.275
83493SOL     OW52375   4.042  10.614   2.023
83493SOL    HW152376   4.123  10.617   1.972
83493SOL    HW252377   4.071  10.615   2.114
83494SOL     OW52378   6.738   2.458   4.504
83494SOL    HW152379   6.805   2.397   4.534
83494SOL    HW252380   6.724   2.517   4.578
83495SOL     OW52381  13.275   0.862   4.252
83495SOL    HW152382  13.223   0.942   4.262
83495SOL    HW252383  13.234   0.815   4.180
83496SOL     OW52384   9.920   3.191   4.899
83496SOL    HW152385   9.850   3.202   4.963
83496SOL    HW252386   9.875   3.172   4.817
83497SOL     OW52387  14.304  13.773   9.652
83497SOL    HW152388  14.271  13.689   9.621
83497SOL    HW252389  14.399  13.762   9.654
83498SOL     OW52390   8.789   4.002  13.149
83498SOL    HW152391   8.813   3.981  13.058
83498SOL    HW252392   8.842   3.941  13.202
83499SOL     OW52393   6.297  11.479   9.245
83499SOL    HW152394   6.352  11.555   9.265
83499SOL    HW252395   6.293  11.431   9.328
83500SOL     OW52396   1.817   2.194   4.270
83500SOL    HW152397   1.751   2.130   4.296
83500SOL    HW252398   1.809   2.199   4.174
83501SOL     OW52399  13.947   6.299   5.954
83501SOL    HW152400  13.950   6.340   6.041
83501SOL    HW252401  13.973   6.368   5.894
83502SOL     OW52402   9.177  13.264   5.889
83502SOL    HW152403   9.192  13.359   5.883
83502SOL    HW252404   9.089  13.256   5.926
83503SOL     OW52405   2.609   5.913   7.957
83503SOL    HW152406   2.654   5.862   7.889
83503SOL    HW252407   2.660   5.896   8.036
83504SOL     OW52408   2.767   4.844  11.764
83504SOL    HW152409   2.718   4.891  11.696
83504SOL    HW252410   2.830   4.908  11.797
83505SOL     OW52411  11.734   7.888   3.554
83505SOL    HW152412  11.665   7.836   3.514
83505SOL    HW252413  11.793   7.825   3.593
83506SOL     OW52414   3.087  12.937   5.693
83506SOL    HW152415   2.998  12.917   5.662
83506SOL    HW252416   3.120  13.001   5.630
83507SOL     OW52417   3.990   8.750  14.059
83507SOL    HW152418   4.003   8.691  13.984
83507SOL    HW252419   3.940   8.823  14.023
83508SOL     OW52420   7.870   8.172  11.742
83508SOL    HW152421   7.851   8.119  11.820
83508SOL    HW252422   7.784   8.202  11.712
83509SOL     OW52423   4.400   0.855   6.547
83509SOL    HW152424   4.417   0.877   6.455
83509SOL    HW252425   4.475   0.802   6.573
83510SOL     OW52426   6.156   7.494   1.531
83510SOL    HW152427   6.242   7.490   1.490
83510SOL    HW252428   6.165   7.559   1.601
83511SOL     OW52429   5.894   8.127   5.949
83511SOL    HW152430   5.977   8.175   5.940
83511SOL    HW252431   5.921   8.036   5.960
83512SOL     OW52432   7.877   5.470  10.171
83512SOL    HW152433   7.904   5.381  10.194
83512SOL    HW252434   7.784   5.473  10.193
83513SOL     OW52435   2.013  13.876   0.028
83513SOL    HW152436   1.998  13.938   0.099
83513SOL    HW252437   1.934  13.823   0.026
83514SOL     OW52438   8.981  13.255   1.077
83514SOL    HW152439   9.032  13.175   1.074
83514SOL    HW252440   8.960  13.274   0.986
83515SOL     OW52441   5.450   1.265   9.207
83515SOL    HW152442   5.522   1.269   9.143
83515SOL    HW252443   5.376   1.229   9.157
83516SOL     OW52444   0.778   9.150  11.633
83516SOL    HW152445   0.682   9.151  11.633
83516SOL    HW252446   0.802   9.103  11.713
83517SOL     OW52447   3.693  13.010   3.988
83517SOL    HW152448   3.679  13.085   4.046
83517SOL    HW252449   3.782  13.020   3.956
83518SOL     OW52450   7.231   0.283  12.154
83518SOL    HW152451   7.147   0.313  12.190
83518SOL    HW252452   7.214   0.270  12.060
83519SOL     OW52453  10.701   5.510  10.942
83519SOL    HW152454  10.682   5.444  11.008
83519SOL    HW252455  10.657   5.589  10.974
83520SOL     OW52456   3.453   0.729  11.714
83520SOL    HW152457   3.517   0.695  11.652
83520SOL    HW252458   3.413   0.650  11.751
83521SOL     OW52459  13.306   6.671   1.144
83521SOL    HW152460  13.244   6.598   1.139
83521SOL    HW252461  13.338   6.670   1.234
83522SOL     OW52462   0.211  13.033   0.386
83522SOL    HW152463   0.152  13.010   0.314
83522SOL    HW252464   0.170  12.993   0.463
83523SOL     OW52465  12.592   4.314  12.771
83523SOL    HW152466  12.575   4.404  12.744
83523SOL    HW252467  12.615   4.321  12.863
83524SOL     OW52468   0.001   7.849  11.611
83524SOL    HW152469  14.826   7.799  11.681
83524SOL    HW252470   0.091   7.857  11.641
83525SOL     OW52471  10.418   0.613   5.074
83525SOL    HW152472  10.359   0.663   5.131
83525SOL    HW252473  10.359   0.570   5.012
83526SOL     OW52474   4.448   9.477   1.826
83526SOL    HW152475   4.490   9.394   1.805
83526SOL    HW252476   4.389   9.493   1.752
83527SOL     OW52477  11.334   9.460   0.573
83527SOL    HW152478  11.305   9.450   0.482
83527SOL    HW252479  11.327   9.553   0.591
83528SOL     OW52480   8.848  14.510   5.293
83528SOL    HW152481   8.910  14.572   5.254
83528SOL    HW252482   8.888  14.424   5.278
83529SOL     OW52483   0.568   4.208   7.898
83529SOL    HW152484   0.661   4.196   7.878
83529SOL    HW252485   0.558   4.302   7.911
83530SOL     OW52486   4.414  10.412   7.917
83530SOL    HW152487   4.416  10.375   7.828
83530SOL    HW252488   4.321  10.411   7.940
83531SOL     OW52489   6.644   8.065   3.460
83531SOL    HW152490   6.608   8.136   3.407
83531SOL    HW252491   6.575   7.999   3.463
83532SOL     OW52492  11.102  12.668   5.263
83532SOL    HW152493  11.138  12.718   5.336
83532SOL    HW252494  11.038  12.609   5.303
83533SOL     OW52495  14.691  11.343  12.269
83533SOL    HW152496  14.768  11.288  12.251
83533SOL    HW252497  14.631  11.285  12.316
83534SOL     OW52498   7.113  10.629  11.381
83534SOL    HW152499   7.100  10.712  11.334
83534SOL    HW252500   7.208  10.621  11.390
83535SOL     OW52501   8.568  12.685   9.242
83535SOL    HW152502   8.494  12.626   9.228
83535SOL    HW252503   8.584  12.681   9.336
83536SOL     OW52504   4.188  10.647   8.844
83536SOL    HW152505   4.278  10.674   8.828
83536SOL    HW252506   4.135  10.714   8.800
83537SOL     OW52507   4.455   4.416   7.574
83537SOL    HW152508   4.535   4.457   7.542
83537SOL    HW252509   4.453   4.437   7.668
83538SOL     OW52510   0.873   5.167   4.217
83538SOL    HW152511   0.924   5.151   4.137
83538SOL    HW252512   0.892   5.092   4.273
83539SOL     OW52513  13.443   0.435  11.832
83539SOL    HW152514  13.427   0.412  11.741
83539SOL    HW252515  13.407   0.523  11.841
83540SOL     OW52516   2.278  10.497   6.551
83540SOL    HW152517   2.330  10.531   6.624
83540SOL    HW252518   2.336  10.503   6.475
83541SOL     OW52519   9.978   2.150   9.689
83541SOL    HW152520   9.911   2.092   9.653
83541SOL    HW252521   9.938   2.188   9.767
83542SOL     OW52522  10.162   5.370  10.964
83542SOL    HW152523  10.075   5.370  11.004
83542SOL    HW252524  10.148   5.405  10.876
83543SOL     OW52525   4.776   3.974   0.465
83543SOL    HW152526   4.825   4.045   0.422
83543SOL    HW252527   4.737   4.015   0.542
83544SOL     OW52528  14.536   0.596  13.822
83544SOL    HW152529  14.609   0.538  13.801
83544SOL    HW252530  14.461   0.558  13.776
83545SOL     OW52531   9.901  12.162  12.800
83545SOL    HW152532   9.811  12.141  12.824
83545SOL    HW252533   9.913  12.252  12.829
83546SOL     OW52534  10.061   8.620  11.987
83546SOL    HW152535  10.014   8.603  11.905
83546SOL    HW252536  10.049   8.714  12.003
83547SOL     OW52537   9.730  10.031   7.389
83547SOL    HW152538   9.766  10.086   7.319
83547SOL    HW252539   9.776   9.948   7.381
83548SOL     OW52540   8.428  14.722  14.707
83548SOL    HW152541   8.398  14.718  14.798
83548SOL    HW252542   8.444  14.815  14.691
83549SOL     OW52543  12.704  10.832  10.837
83549SOL    HW152544  12.773  10.808  10.900
83549SOL    HW252545  12.664  10.749  10.812
83550SOL     OW52546  13.859  11.470   6.484
83550SOL    HW152547  13.902  11.422   6.555
83550SOL    HW252548  13.915  11.546   6.470
83551SOL     OW52549  12.212  13.522  12.814
83551SOL    HW152550  12.269  13.449  12.789
83551SOL    HW252551  12.257  13.599  12.779
83552SOL     OW52552   8.958   5.688  10.321
83552SOL    HW152553   9.023   5.707  10.253
83552SOL    HW252554   8.950   5.592  10.320
83553SOL     OW52555  14.151   1.456   6.977
83553SOL    HW152556  14.207   1.534   6.972
83553SOL    HW252557  14.064   1.488   6.950
83554SOL     OW52558   4.322  12.230  10.197
83554SOL    HW152559   4.399  12.270  10.156
83554SOL    HW252560   4.253  12.236  10.131
83555SOL     OW52561   2.105  10.771  13.593
83555SOL    HW152562   2.185  10.797  13.547
83555SOL    HW252563   2.078  10.849  13.641
83556SOL     OW52564  11.142  11.101   5.202
83556SOL    HW152565  11.146  11.081   5.295
83556SOL    HW252566  11.127  11.017   5.159
83557SOL     OW52567   5.519   0.291   0.289
83557SOL    HW152568   5.448   0.355   0.291
83557SOL    HW252569   5.477   0.207   0.306
83558SOL     OW52570  11.699   8.184   2.242
83558SOL    HW152571  11.686   8.116   2.176
83558SOL    HW252572  11.615   8.188   2.288
83559SOL     OW52573   7.529   9.543  13.936
83559SOL    HW152574   7.601   9.482  13.933
83559SOL    HW252575   7.548   9.607  13.866
83560SOL     OW52576   9.712   7.151   4.490
83560SOL    HW152577   9.631   7.187   4.525
83560SOL    HW252578   9.777   7.164   4.559
83561SOL     OW52579   8.950   0.620  10.922
83561SOL    HW152580   9.032   0.659  10.893
83561SOL    HW252581   8.895   0.694  10.947
83562SOL     OW52582   3.717   6.846  12.183
83562SOL    HW152583   3.637   6.801  12.212
83562SOL    HW252584   3.776   6.841  12.259
83563SOL     OW52585  11.329   9.884   4.267
83563SOL    HW152586  11.303   9.806   4.315
83563SOL    HW252587  11.249   9.935   4.256
83564SOL     OW52588   5.958  12.611   1.116
83564SOL    HW152589   5.972  12.706   1.124
83564SOL    HW252590   5.962  12.579   1.206
83565SOL     OW52591   3.715  14.597   0.180
83565SOL    HW152592   3.722  14.639   0.094
83565SOL    HW252593   3.763  14.655   0.239
83566SOL     OW52594   7.120  14.597   0.855
83566SOL    HW152595   7.062  14.558   0.789
83566SOL    HW252596   7.169  14.523   0.890
83567SOL     OW52597   6.145   4.273  14.011
83567SOL    HW152598   6.207   4.323  14.064
83567SOL    HW252599   6.199   4.234  13.943
83568SOL     OW52600  12.246  11.529   2.005
83568SOL    HW152601  12.158  11.537   1.969
83568SOL    HW252602  12.246  11.444   2.049
83569SOL     OW52603  12.278   5.810  14.803
83569SOL    HW152604  12.219   5.740  14.776
83569SOL    HW252605  12.352   5.803  14.743
83570SOL     OW52606   4.955   6.548   3.546
83570SOL    HW152607   4.918   6.595   3.471
83570SOL    HW252608   4.944   6.456   3.525
83571SOL     OW52609   0.794   1.187  14.564
83571SOL    HW152610   0.878   1.208  14.523
83571SOL    HW252611   0.733   1.177  14.491
83572SOL     OW52612   0.766   1.226  14.008
83572SOL    HW152613   0.713   1.172  13.949
83572SOL    HW252614   0.759   1.315  13.972
83573SOL     OW52615   2.157   5.821   0.611
83573SOL    HW152616   2.171   5.770   0.691
83573SOL    HW252617   2.070   5.794   0.581
83574SOL     OW52618   4.027  11.175   3.111
83574SOL    HW152619   4.117  11.163   3.083
83574SOL    HW252620   3.980  11.102   3.071
83575SOL     OW52621   5.732   0.555   5.780
83575SOL    HW152622   5.827   0.561   5.789
83575SOL    HW252623   5.718   0.482   5.719
83576SOL     OW52624   6.445   2.297   0.056
83576SOL    HW152625   6.420   2.377   0.008
83576SOL    HW252626   6.398   2.304   0.139
83577SOL     OW52627   9.403   3.163  11.735
83577SOL    HW152628   9.384   3.235  11.795
83577SOL    HW252629   9.457   3.202  11.667
83578SOL     OW52630   2.703  12.300   2.681
83578SOL    HW152631   2.726  12.257   2.763
83578SOL    HW252632   2.687  12.228   2.620
83579SOL     OW52633   2.738   4.343  10.400
83579SOL    HW152634   2.741   4.297  10.316
83579SOL    HW252635   2.804   4.299  10.454
83580SOL     OW52636   8.720   0.206   6.070
83580SOL    HW152637   8.766   0.164   5.997
83580SOL    HW252638   8.633   0.168   6.068
83581SOL     OW52639   2.193   6.912  10.932
83581SOL    HW152640   2.171   6.976  10.864
83581SOL    HW252641   2.143   6.834  10.908
83582SOL     OW52642   3.706   8.531  10.200
83582SOL    HW152643   3.658   8.594  10.148
83582SOL    HW252644   3.671   8.541  10.289
83583SOL     OW52645   2.101   2.038   9.728
83583SOL    HW152646   2.105   2.095   9.805
83583SOL    HW252647   2.075   2.097   9.657
83584SOL     OW52648   2.733  10.514  13.704
83584SOL    HW152649   2.681  10.550  13.775
83584SOL    HW252650   2.670  10.489  13.637
83585SOL     OW52651  11.204   9.661   8.671
83585SOL    HW152652  11.219   9.728   8.738
83585SOL    HW252653  11.275   9.674   8.608
83586SOL     OW52654  10.316  12.855   1.881
83586SOL    HW152655  10.310  12.892   1.792
83586SOL    HW252656  10.248  12.902   1.930
83587SOL     OW52657   1.131  12.531   2.677
83587SOL    HW152658   1.110  12.522   2.770
83587SOL    HW252659   1.127  12.625   2.660
83588SOL     OW52660  14.377   9.236  11.047
83588SOL    HW152661  14.453   9.275  11.003
83588SOL    HW252662  14.383   9.143  11.027
83589SOL     OW52663  10.786   7.798   3.391
83589SOL    HW152664  10.704   7.842   3.366
83589SOL    HW252665  10.853   7.866   3.382
83590SOL     OW52666  12.971  14.280  13.058
83590SOL    HW152667  13.051  14.328  13.034
83590SOL    HW252668  12.935  14.328  13.132
83591SOL     OW52669   6.753  14.803   5.585
83591SOL    HW152670   6.760  14.737   5.516
83591SOL    HW252671   6.772   0.017   5.541
83592SOL     OW52672  14.599   3.959   7.351
83592SOL    HW152673  14.693   3.979   7.350
83592SOL    HW252674  14.593   3.877   7.400
83593SOL     OW52675  13.560  10.114   6.807
83593SOL    HW152676  13.644  10.093   6.848
83593SOL    HW252677  13.494  10.083   6.869
83594SOL     OW52678   4.094   7.172  13.734
83594SOL    HW152679   4.014   7.212  13.766
83594SOL    HW252680   4.069   7.082  13.711
83595SOL     OW52681   2.428   4.387  12.597
83595SOL    HW152682   2.402   4.472  12.632
83595SOL    HW252683   2.514   4.370  12.636
83596SOL     OW52684  10.785   9.956   8.931
83596SOL    HW152685  10.769   9.900   8.855
83596SOL    HW252686  10.833  10.031   8.896
83597SOL     OW52687  11.387   8.873   2.776
83597SOL    HW152688  11.400   8.834   2.689
83597SOL    HW252689  11.299   8.844   2.801
83598SOL     OW52690   5.649  14.863  14.637
83598SOL    HW152691   5.575  14.817  14.596
83598SOL    HW252692   5.660  14.820  14.722
83599SOL     OW52693   4.009   3.430   3.447
83599SOL    HW152694   3.995   3.509   3.500
83599SOL    HW252695   3.942   3.435   3.379
83600SOL     OW52696   2.651   6.222  13.508
83600SOL    HW152697   2.648   6.157  13.578
83600SOL    HW252698   2.742   6.220  13.478
83601SOL     OW52699   8.337   8.374   8.348
83601SOL    HW152700   8.316   8.416   8.264
83601SOL    HW252701   8.282   8.296   8.350
83602SOL     OW52702   2.050  10.988   4.954
83602SOL    HW152703   2.069  11.050   4.884
83602SOL    HW252704   2.083  10.904   4.922
83603SOL     OW52705   4.058   9.273   4.019
83603SOL    HW152706   4.000   9.323   3.962
83603SOL    HW252707   4.017   9.278   4.106
83604SOL     OW52708   6.246   1.062   1.806
83604SOL    HW152709   6.197   1.111   1.872
83604SOL    HW252710   6.328   1.038   1.848
83605SOL     OW52711  14.430   2.041   7.793
83605SOL    HW152712  14.484   2.114   7.824
83605SOL    HW252713  14.474   1.962   7.825
83606SOL     OW52714   1.077   6.908   1.608
83606SOL    HW152715   1.080   6.896   1.513
83606SOL    HW252716   1.082   6.820   1.643
83607SOL     OW52717  14.063   8.424   6.541
83607SOL    HW152718  14.074   8.409   6.635
83607SOL    HW252719  14.152   8.423   6.505
83608SOL     OW52720   3.380   8.377  14.542
83608SOL    HW152721   3.302   8.341  14.583
83608SOL    HW252722   3.440   8.392  14.615
83609SOL     OW52723  11.589   6.973   5.034
83609SOL    HW152724  11.557   6.924   4.959
83609SOL    HW252725  11.682   6.987   5.017
83610SOL     OW52726   3.631  14.554   6.813
83610SOL    HW152727   3.552  14.575   6.863
83610SOL    HW252728   3.703  14.573   6.873
83611SOL     OW52729   4.239  13.167  11.567
83611SOL    HW152730   4.205  13.196  11.651
83611SOL    HW252731   4.328  13.139  11.585
83612SOL     OW52732   2.311   1.625   6.756
83612SOL    HW152733   2.322   1.706   6.807
83612SOL    HW252734   2.245   1.647   6.691
83613SOL     OW52735   1.626   6.227   3.958
83613SOL    HW152736   1.663   6.142   3.932
83613SOL    HW252737   1.558   6.244   3.893
83614SOL     OW52738   1.289   1.420  11.438
83614SOL    HW152739   1.303   1.489  11.374
83614SOL    HW252740   1.286   1.465  11.523
83615SOL     OW52741   9.518  12.587  10.289
83615SOL    HW152742   9.578  12.627  10.226
83615SOL    HW252743   9.433  12.589  10.246
83616SOL     OW52744   2.688   3.947   2.715
83616SOL    HW152745   2.751   3.881   2.741
83616SOL    HW252746   2.716   3.974   2.627
83617SOL     OW52747   5.069  14.315   2.281
83617SOL    HW152748   5.149  14.339   2.233
83617SOL    HW252749   5.043  14.231   2.244
83618SOL     OW52750  13.172  13.263  12.162
83618SOL    HW152751  13.133  13.226  12.083
83618SOL    HW252752  13.180  13.188  12.222
83619SOL     OW52753   0.874   0.331  10.370
83619SOL    HW152754   0.888   0.423  10.346
83619SOL    HW252755   0.883   0.329  10.465
83620SOL     OW52756   2.513  13.262   4.235
83620SOL    HW152757   2.576  13.197   4.264
83620SOL    HW252758   2.456  13.214   4.175
83621SOL     OW52759   9.206   5.355   0.450
83621SOL    HW152760   9.159   5.438   0.436
83621SOL    HW252761   9.196   5.337   0.544
83622SOL     OW52762  10.434   5.886   2.067
83622SOL    HW152763  10.476   5.893   2.153
83622SOL    HW252764  10.343   5.864   2.087
83623SOL     OW52765   6.876   2.906   7.777
83623SOL    HW152766   6.871   2.999   7.800
83623SOL    HW252767   6.967   2.891   7.754
83624SOL     OW52768   0.230  12.136   7.901
83624SOL    HW152769   0.240  12.141   7.996
83624SOL    HW252770   0.260  12.222   7.870
83625SOL     OW52771  13.802  14.058   9.894
83625SOL    HW152772  13.719  14.105   9.903
83625SOL    HW252773  13.850  14.079   9.974
83626SOL     OW52774   9.869   1.518   4.246
83626SOL    HW152775   9.890   1.470   4.165
83626SOL    HW252776   9.815   1.591   4.216
83627SOL     OW52777   9.195   3.083   5.864
83627SOL    HW152778   9.253   3.008   5.875
83627SOL    HW252779   9.110   3.053   5.897
83628SOL     OW52780   1.755   1.388   2.636
83628SOL    HW152781   1.713   1.385   2.722
83628SOL    HW252782   1.843   1.422   2.653
83629SOL     OW52783   4.730   1.785   7.785
83629SOL    HW152784   4.638   1.784   7.757
83629SOL    HW252785   4.730   1.737   7.868
83630SOL     OW52786  12.468   1.565   8.200
83630SOL    HW152787  12.561   1.553   8.181
83630SOL    HW252788  12.465   1.580   8.294
83631SOL     OW52789   8.743  12.854   2.356
83631SOL    HW152790   8.663  12.839   2.305
83631SOL    HW252791   8.807  12.795   2.317
83632SOL     OW52792  14.119   9.044   0.672
83632SOL    HW152793  14.177   9.117   0.651
83632SOL    HW252794  14.133   8.980   0.602
83633SOL     OW52795  14.644   8.409   8.491
83633SOL    HW152796  14.737   8.391   8.507
83633SOL    HW252797  14.607   8.416   8.579
83634SOL     OW52798  13.583   8.641  13.150
83634SOL    HW152799  13.635   8.590  13.212
83634SOL    HW252800  13.502   8.661  13.197
83635SOL     OW52801  10.802   4.908   7.756
83635SOL    HW152802  10.878   4.861   7.721
83635SOL    HW252803  10.733   4.896   7.690
83636SOL     OW52804   1.782   3.738  12.269
83636SOL    HW152805   1.872   3.706  12.261
83636SOL    HW252806   1.790   3.821  12.314
83637SOL     OW52807   4.076   6.926  11.875
83637SOL    HW152808   4.006   6.924  11.940
83637SOL    HW252809   4.031   6.924  11.791
83638SOL     OW52810   1.439  12.386   9.260
83638SOL    HW152811   1.438  12.298   9.222
83638SOL    HW252812   1.351  12.420   9.245
83639SOL     OW52813  13.014  10.697   8.310
83639SOL    HW152814  12.963  10.751   8.250
83639SOL    HW252815  13.100  10.690   8.268
83640SOL     OW52816  12.869   6.876   2.775
83640SOL    HW152817  12.901   6.792   2.741
83640SOL    HW252818  12.924   6.894   2.851
83641SOL     OW52819   8.898  12.423   1.296
83641SOL    HW152820   8.808  12.421   1.328
83641SOL    HW252821   8.930  12.334   1.308
83642SOL     OW52822   7.060   7.803   0.314
83642SOL    HW152823   7.048   7.892   0.279
83642SOL    HW252824   7.141   7.772   0.273
83643SOL     OW52825   6.225   6.557   2.618
83643SOL    HW152826   6.289   6.520   2.679
83643SOL    HW252827   6.251   6.523   2.533
83644SOL     OW52828  12.765   4.996  13.837
83644SOL    HW152829  12.672   5.013  13.854
83644SOL    HW252830  12.811   5.067  13.881
83645SOL     OW52831   2.095   6.402   4.578
83645SOL    HW152832   2.059   6.409   4.666
83645SOL    HW252833   2.101   6.492   4.547
83646SOL     OW52834   4.374   2.586  10.185
83646SOL    HW152835   4.427   2.544  10.253
83646SOL    HW252836   4.436   2.641  10.137
83647SOL     OW52837   4.188   7.160   2.064
83647SOL    HW152838   4.186   7.073   2.104
83647SOL    HW252839   4.227   7.146   1.978
83648SOL     OW52840   9.693   2.203   2.617
83648SOL    HW152841   9.707   2.234   2.527
83648SOL    HW252842   9.682   2.284   2.668
83649SOL     OW52843   5.000   3.282  14.665
83649SOL    HW152844   5.050   3.272  14.746
83649SOL    HW252845   5.004   3.196  14.624
83650SOL     OW52846   1.418  14.625  14.407
83650SOL    HW152847   1.333  14.669  14.406
83650SOL    HW252848   1.411  14.558  14.339
83651SOL     OW52849  10.175  10.205   4.511
83651SOL    HW152850  10.231  10.283   4.507
83651SOL    HW252851  10.202  10.151   4.438
83652SOL     OW52852  14.028   2.800  13.123
83652SOL    HW152853  13.972   2.832  13.193
83652SOL    HW252854  14.069   2.878  13.086
83653SOL     OW52855   9.771   1.157  14.794
83653SOL    HW152856   9.682   1.174  14.764
83653SOL    HW252857   9.773   1.191   0.014
83654SOL     OW52858   2.156  11.083   2.505
83654SOL    HW152859   2.204  11.090   2.588
83654SOL    HW252860   2.122  10.994   2.505
83655SOL     OW52861   2.171   0.439  10.064
83655SOL    HW152862   2.076   0.451  10.054
83655SOL    HW252863   2.202   0.519  10.105
83656SOL     OW52864   4.777  14.018   8.508
83656SOL    HW152865   4.731  13.968   8.576
83656SOL    HW252866   4.831  13.954   8.463
83657SOL     OW52867  11.368   8.540   9.711
83657SOL    HW152868  11.420   8.493   9.776
83657SOL    HW252869  11.392   8.632   9.723
83658SOL     OW52870   5.245   8.079   4.998
83658SOL    HW152871   5.340   8.074   4.994
83658SOL    HW252872   5.225   8.085   5.091
83659SOL     OW52873   8.223   4.924   9.379
83659SOL    HW152874   8.305   4.919   9.428
83659SOL    HW252875   8.249   4.913   9.288
83660SOL     OW52876  13.572   4.517  11.337
83660SOL    HW152877  13.479   4.518  11.362
83660SOL    HW252878  13.615   4.569  11.404
83661SOL     OW52879   6.596  12.529  13.971
83661SOL    HW152880   6.664  12.595  13.952
83661SOL    HW252881   6.570  12.546  14.061
83662SOL     OW52882  12.011   5.174   3.387
83662SOL    HW152883  12.036   5.247   3.444
83662SOL    HW252884  12.014   5.098   3.445
83663SOL     OW52885   5.080  11.893  10.082
83663SOL    HW152886   5.051  11.879   9.991
83663SOL    HW252887   5.047  11.816  10.129
83664SOL     OW52888  14.316  12.697  11.677
83664SOL    HW152889  14.270  12.685  11.760
83664SOL    HW252890  14.256  12.664  11.611
83665SOL     OW52891   1.723   2.339  11.866
83665SOL    HW152892   1.813   2.354  11.838
83665SOL    HW252893   1.704   2.249  11.840
83666SOL     OW52894   3.583   6.042   3.921
83666SOL    HW152895   3.638   6.107   3.878
83666SOL    HW252896   3.494   6.073   3.906
83667SOL     OW52897   6.905   1.592   0.006
83667SOL    HW152898   6.829   1.609  14.820
83667SOL    HW252899   6.894   1.501   0.034
83668SOL     OW52900  10.464  13.972   5.102
83668SOL    HW152901  10.437  13.956   5.012
83668SOL    HW252902  10.515  14.053   5.098
83669SOL     OW52903   0.674  14.014  11.191
83669SOL    HW152904   0.663  14.103  11.155
83669SOL    HW252905   0.589  13.973  11.179
83670SOL     OW52906   6.999   7.162   2.188
83670SOL    HW152907   6.995   7.144   2.094
83670SOL    HW252908   7.043   7.246   2.194
83671SOL     OW52909  10.924   4.799   8.956
83671SOL    HW152910  10.950   4.883   8.996
83671SOL    HW252911  10.869   4.824   8.882
83672SOL     OW52912   8.058  12.946  14.482
83672SOL    HW152913   8.119  12.944  14.408
83672SOL    HW252914   8.082  13.026  14.529
83673SOL     OW52915  13.684  11.411   3.539
83673SOL    HW152916  13.669  11.481   3.475
83673SOL    HW252917  13.624  11.341   3.514
83674SOL     OW52918   9.654   8.595  11.593
83674SOL    HW152919   9.618   8.514  11.630
83674SOL    HW252920   9.578   8.650  11.575
83675SOL     OW52921   0.325   0.162  12.568
83675SOL    HW152922   0.285   0.199  12.647
83675SOL    HW252923   0.419   0.177  12.580
83676SOL     OW52924   5.258   3.980  11.960
83676SOL    HW152925   5.289   4.022  12.041
83676SOL    HW252926   5.171   4.017  11.946
83677SOL     OW52927   3.509   2.925  13.309
83677SOL    HW152928   3.461   2.963  13.382
83677SOL    HW252929   3.466   2.842  13.291
83678SOL     OW52930   6.536  10.606   0.653
83678SOL    HW152931   6.586  10.585   0.732
83678SOL    HW252932   6.597  10.654   0.597
83679SOL     OW52933   8.107   3.773  13.338
83679SOL    HW152934   8.097   3.866  13.315
83679SOL    HW252935   8.132   3.773  13.430
83680SOL     OW52936  13.197   4.223   7.298
83680SOL    HW152937  13.147   4.149   7.333
83680SOL    HW252938  13.130   4.288   7.277
83681SOL     OW52939   9.402   1.435  11.517
83681SOL    HW152940   9.318   1.399  11.491
83681SOL    HW252941   9.385   1.477  11.602
83682SOL     OW52942  10.366  10.635  11.762
83682SOL    HW152943  10.365  10.581  11.682
83682SOL    HW252944  10.458  10.636  11.788
83683SOL     OW52945  11.684  14.287   2.273
83683SOL    HW152946  11.703  14.376   2.243
83683SOL    HW252947  11.735  14.278   2.354
83684SOL     OW52948  11.324   3.409  10.295
83684SOL    HW152949  11.286   3.365  10.371
83684SOL    HW252950  11.266   3.484  10.279
83685SOL     OW52951   0.359   9.117   5.429
83685SOL    HW152952   0.361   9.078   5.517
83685SOL    HW252953   0.343   9.043   5.371
83686SOL     OW52954   3.673   3.378  13.443
83686SOL    HW152955   3.629   3.443  13.496
83686SOL    HW252956   3.747   3.425  13.403
83687SOL     OW52957  12.708  12.598   1.353
83687SOL    HW152958  12.642  12.615   1.287
83687SOL    HW252959  12.777  12.550   1.306
83688SOL     OW52960  13.303  10.208  10.477
83688SOL    HW152961  13.327  10.250  10.560
83688SOL    HW252962  13.239  10.268  10.438
83689SOL     OW52963   8.849   5.740   1.649
83689SOL    HW152964   8.783   5.690   1.697
83689SOL    HW252965   8.804   5.821   1.623
83690SOL     OW52966   6.715  11.597   4.702
83690SOL    HW152967   6.759  11.596   4.787
83690SOL    HW252968   6.720  11.688   4.674
83691SOL     OW52969   3.482   6.865   4.477
83691SOL    HW152970   3.563   6.841   4.521
83691SOL    HW252971   3.434   6.916   4.542
83692SOL     OW52972   7.386  13.334  14.180
83692SOL    HW152973   7.448  13.264  14.198
83692SOL    HW252974   7.337  13.345  14.261
83693SOL     OW52975  13.334   1.591   1.956
83693SOL    HW152976  13.366   1.526   2.019
83693SOL    HW252977  13.276   1.541   1.898
83694SOL     OW52978   0.835   8.362   6.462
83694SOL    HW152979   0.789   8.279   6.474
83694SOL    HW252980   0.917   8.351   6.510
83695SOL     OW52981  13.328  11.161  14.420
83695SOL    HW152982  13.239  11.141  14.391
83695SOL    HW252983  13.322  11.163  14.515
83696SOL     OW52984  12.687   8.275   7.258
83696SOL    HW152985  12.758   8.317   7.209
83696SOL    HW252986  12.724   8.193   7.290
83697SOL     OW52987  11.652   5.367   1.494
83697SOL    HW152988  11.648   5.419   1.575
83697SOL    HW252989  11.708   5.292   1.517
83698SOL     OW52990  10.913   1.766   6.584
83698SOL    HW152991  10.925   1.793   6.675
83698SOL    HW252992  10.838   1.817   6.553
83699SOL     OW52993   1.496   4.488  11.353
83699SOL    HW152994   1.521   4.502  11.444
83699SOL    HW252995   1.440   4.562  11.331
83700SOL     OW52996  12.347   1.127   4.942
83700SOL    HW152997  12.379   1.196   5.000
83700SOL    HW252998  12.369   1.045   4.987
83701SOL     OW52999   5.728  10.514   0.852
83701SOL    HW153000   5.640  10.516   0.816
83701SOL    HW253001   5.716  10.509   0.947
83702SOL     OW53002   0.648   4.297   0.388
83702SOL    HW153003   0.716   4.316   0.323
83702SOL    HW253004   0.608   4.382   0.407
83703SOL     OW53005   4.155   8.747  12.497
83703SOL    HW153006   4.094   8.816  12.473
83703SOL    HW253007   4.241   8.790  12.498
83704SOL     OW53008  14.401  11.356   2.581
83704SOL    HW153009  14.466  11.397   2.524
83704SOL    HW253010  14.446  11.345   2.665
83705SOL     OW53011  11.234  11.702   5.801
83705SOL    HW153012  11.267  11.734   5.717
83705SOL    HW253013  11.232  11.780   5.857
83706SOL     OW53014  13.321  10.674   0.984
83706SOL    HW153015  13.367  10.591   0.969
83706SOL    HW253016  13.324  10.719   0.899
83707SOL     OW53017   6.346  10.154   9.793
83707SOL    HW153018   6.329  10.112   9.877
83707SOL    HW253019   6.352  10.247   9.813
83708SOL     OW53020  12.940  11.651   7.588
83708SOL    HW153021  12.855  11.671   7.549
83708SOL    HW253022  12.969  11.572   7.544
83709SOL     OW53023  13.674  12.086   4.988
83709SOL    HW153024  13.624  12.164   4.964
83709SOL    HW253025  13.649  12.021   4.922
83710SOL     OW53026   1.111   1.642   5.872
83710SOL    HW153027   1.115   1.737   5.880
83710SOL    HW253028   1.125   1.609   5.961
83711SOL     OW53029   8.121   8.664  12.471
83711SOL    HW153030   8.114   8.653  12.566
83711SOL    HW253031   8.074   8.589  12.435
83712SOL     OW53032   1.664   5.675   1.284
83712SOL    HW153033   1.736   5.688   1.222
83712SOL    HW253034   1.692   5.723   1.362
83713SOL     OW53035   0.889  12.155   8.951
83713SOL    HW153036   0.828  12.226   8.968
83713SOL    HW253037   0.848  12.104   8.881
83714SOL     OW53038   1.943  12.329  13.137
83714SOL    HW153039   2.019  12.378  13.105
83714SOL    HW253040   1.898  12.391  13.195
83715SOL     OW53041  14.629   5.703  13.547
83715SOL    HW153042  14.615   5.626  13.491
83715SOL    HW253043  14.724   5.709  13.556
83716SOL     OW53044   5.005   6.108   6.641
83716SOL    HW153045   5.053   6.155   6.573
83716SOL    HW253046   5.014   6.016   6.619
83717SOL     OW53047  11.435  11.312  13.650
83717SOL    HW153048  11.483  11.354  13.722
83717SOL    HW253049  11.359  11.368  13.635
83718SOL     OW53050   0.218  10.461   9.974
83718SOL    HW153051   0.298  10.513   9.968
83718SOL    HW253052   0.217  10.430  10.064
83719SOL     OW53053   9.902   4.006   1.024
83719SOL    HW153054   9.973   3.997   0.961
83719SOL    HW253055   9.909   3.929   1.080
83720SOL     OW53056   7.403   6.934  14.406
83720SOL    HW153057   7.489   6.921  14.367
83720SOL    HW253058   7.400   7.027  14.427
83721SOL     OW53059   8.546   1.710   1.359
83721SOL    HW153060   8.609   1.755   1.415
83721SOL    HW253061   8.468   1.701   1.414
83722SOL     OW53062  10.389   3.037   4.760
83722SOL    HW153063  10.383   3.098   4.687
83722SOL    HW253064  10.329   3.072   4.826
83723SOL     OW53065   1.018  12.271  11.832
83723SOL    HW153066   0.974  12.202  11.883
83723SOL    HW253067   1.011  12.349  11.887
83724SOL     OW53068  11.891   0.198  10.012
83724SOL    HW153069  11.954   0.264   9.982
83724SOL    HW253070  11.858   0.159   9.931
83725SOL     OW53071   5.537  13.964  10.336
83725SOL    HW153072   5.520  13.899  10.404
83725SOL    HW253073   5.561  13.912  10.259
83726SOL     OW53074   8.255   7.525  12.069
83726SOL    HW153075   8.322   7.591  12.088
83726SOL    HW253076   8.256   7.517  11.973
83727SOL     OW53077   6.609  14.636   8.462
83727SOL    HW153078   6.673  14.687   8.413
83727SOL    HW253079   6.586  14.692   8.537
83728SOL     OW53080   8.012   5.137   6.565
83728SOL    HW153081   7.957   5.105   6.494
83728SOL    HW253082   8.048   5.219   6.533
83729SOL     OW53083   4.981   6.878   7.360
83729SOL    HW153084   5.044   6.884   7.289
83729SOL    HW253085   4.969   6.968   7.390
83730SOL     OW53086  13.490   8.253   5.161
83730SOL    HW153087  13.517   8.283   5.074
83730SOL    HW253088  13.482   8.158   5.152
83731SOL     OW53089  14.156   4.543  11.940
83731SOL    HW153090  14.250   4.528  11.934
83731SOL    HW253091  14.120   4.502  11.861
83732SOL     OW53092  13.753   6.778   4.483
83732SOL    HW153093  13.685   6.764   4.548
83732SOL    HW253094  13.767   6.692   4.443
83733SOL     OW53095   6.951   8.773   9.133
83733SOL    HW153096   7.015   8.808   9.071
83733SOL    HW253097   6.922   8.849   9.184
83734SOL     OW53098  14.723  12.478   4.893
83734SOL    HW153099  14.807  12.431   4.892
83734SOL    HW253100  14.714  12.513   4.805
83735SOL     OW53101   2.501   4.465   3.818
83735SOL    HW153102   2.569   4.453   3.885
83735SOL    HW253103   2.501   4.559   3.800
83736SOL     OW53104   5.447  14.245   0.626
83736SOL    HW153105   5.411  14.225   0.540
83736SOL    HW253106   5.541  14.258   0.611
83737SOL     OW53107  11.939   5.822   9.995
83737SOL    HW153108  11.919   5.870  10.075
83737SOL    HW253109  11.881   5.861   9.929
83738SOL     OW53110   1.513   5.984  11.894
83738SOL    HW153111   1.446   5.927  11.933
83738SOL    HW253112   1.474   6.016  11.813
83739SOL     OW53113  11.121   2.246   1.883
83739SOL    HW153114  11.055   2.178   1.876
83739SOL    HW253115  11.094   2.298   1.959
83740SOL     OW53116  14.547   6.820  12.056
83740SOL    HW153117  14.610   6.774  12.112
83740SOL    HW253118  14.586   6.818  11.969
83741SOL     OW53119   5.925  12.726  10.998
83741SOL    HW153120   5.844  12.677  10.983
83741SOL    HW253121   5.974  12.672  11.060
83742SOL     OW53122  12.922   0.208   7.109
83742SOL    HW153123  12.962   0.248   7.186
83742SOL    HW253124  12.970   0.244   7.035
83743SOL     OW53125   3.830   6.774   6.695
83743SOL    HW153126   3.835   6.711   6.766
83743SOL    HW253127   3.853   6.724   6.617
83744SOL     OW53128   1.384   8.866  12.815
83744SOL    HW153129   1.314   8.908  12.764
83744SOL    HW253130   1.448   8.935  12.829
83745SOL     OW53131   6.393   6.802   3.229
83745SOL    HW153132   6.418   6.770   3.142
83745SOL    HW253133   6.391   6.897   3.221
83746SOL     OW53134   2.119  10.056   5.700
83746SOL    HW153135   2.044  10.052   5.760
83746SOL    HW253136   2.188  10.007   5.745
83747SOL     OW53137   1.934  12.864   6.224
83747SOL    HW153138   1.974  12.948   6.250
83747SOL    HW253139   1.841  12.883   6.218
83748SOL     OW53140   1.699  12.830   0.869
83748SOL    HW153141   1.698  12.838   0.773
83748SOL    HW253142   1.777  12.778   0.888
83749SOL     OW53143   1.102   7.980   8.052
83749SOL    HW153144   1.081   7.917   7.983
83749SOL    HW253145   1.198   7.984   8.053
83750SOL     OW53146  13.464   1.325   6.874
83750SOL    HW153147  13.550   1.346   6.837
83750SOL    HW253148  13.409   1.400   6.850
83751SOL     OW53149   5.332   7.519  13.988
83751SOL    HW153150   5.263   7.543  14.049
83751SOL    HW253151   5.287   7.508  13.904
83752SOL     OW53152   1.558   7.447  14.178
83752SOL    HW153153   1.524   7.395  14.105
83752SOL    HW253154   1.641   7.404  14.201
83753SOL     OW53155   8.657   7.577  12.048
83753SOL    HW153156   8.678   7.514  12.117
83753SOL    HW253157   8.742   7.615  12.024
83754SOL     OW53158   6.235   6.159  14.049
83754SOL    HW153159   6.294   6.221  14.004
83754SOL    HW253160   6.159   6.211  14.073
83755SOL     OW53161   5.643   2.770   8.603
83755SOL    HW153162   5.643   2.855   8.649
83755SOL    HW253163   5.688   2.711   8.663
83756SOL     OW53164   1.095   9.494   6.235
83756SOL    HW153165   1.066   9.503   6.144
83756SOL    HW253166   1.020   9.454   6.280
83757SOL     OW53167  14.591  10.595   9.155
83757SOL    HW153168  14.633  10.579   9.070
83757SOL    HW253169  14.538  10.673   9.141
83758SOL     OW53170   4.846  12.767   0.154
83758SOL    HW153171   4.884  12.773   0.241
83758SOL    HW253172   4.759  12.806   0.164
83759SOL     OW53173   5.145  12.467  12.108
83759SOL    HW153174   5.167  12.547  12.156
83759SOL    HW253175   5.051  12.454  12.124
83760SOL     OW53176   3.538  11.400   4.513
83760SOL    HW153177   3.460  11.371   4.560
83760SOL    HW253178   3.565  11.323   4.463
83761SOL     OW53179  13.535  14.631   8.728
83761SOL    HW153180  13.551  14.706   8.670
83761SOL    HW253181  13.494  14.669   8.806
83762SOL     OW53182  10.456   3.429   4.259
83762SOL    HW153183  10.430   3.504   4.313
83762SOL    HW253184  10.468   3.467   4.171
83763SOL     OW53185   4.091   3.149  13.469
83763SOL    HW153186   4.167   3.123  13.521
83763SOL    HW253187   4.086   3.244  13.479
83764SOL     OW53188  13.471   7.729   5.832
83764SOL    HW153189  13.389   7.777   5.841
83764SOL    HW253190  13.500   7.713   5.921
83765SOL     OW53191   0.987   2.507   2.029
83765SOL    HW153192   0.988   2.415   2.055
83765SOL    HW253193   1.038   2.551   2.096
83766SOL     OW53194  12.629  10.963   9.364
83766SOL    HW153195  12.704  11.024   9.362
83766SOL    HW253196  12.668  10.877   9.346
83767SOL     OW53197   7.095  10.214   9.161
83767SOL    HW153198   7.056  10.244   9.079
83767SOL    HW253199   7.132  10.294   9.200
83768SOL     OW53200  10.186  12.045   5.073
83768SOL    HW153201  10.246  12.030   5.000
83768SOL    HW253202  10.147  12.131   5.055
83769SOL     OW53203   4.974   0.766   2.143
83769SOL    HW153204   4.992   0.840   2.085
83769SOL    HW253205   4.940   0.698   2.085
83770SOL     OW53206   3.273   6.667   0.835
83770SOL    HW153207   3.245   6.576   0.844
83770SOL    HW253208   3.211   6.706   0.773
83771SOL     OW53209  14.538   2.396  10.985
83771SOL    HW153210  14.616   2.408  10.931
83771SOL    HW253211  14.506   2.308  10.963
83772SOL     OW53212   0.129   1.953  10.695
83772SOL    HW153213   0.090   1.878  10.649
83772SOL    HW253214   0.067   1.973  10.765
83773SOL     OW53215  10.043   4.927  10.303
83773SOL    HW153216  10.004   4.980  10.373
83773SOL    HW253217   9.970   4.906  10.245
83774SOL     OW53218   6.380   9.114   7.101
83774SOL    HW153219   6.433   9.049   7.148
83774SOL    HW253220   6.438   9.189   7.090
83775SOL     OW53221   3.638   5.603   8.130
83775SOL    HW153222   3.707   5.583   8.066
83775SOL    HW253223   3.664   5.556   8.209
83776SOL     OW53224   4.862   1.626  13.216
83776SOL    HW153225   4.862   1.686  13.290
83776SOL    HW253226   4.876   1.682  13.139
83777SOL     OW53227   5.626   9.738   7.199
83777SOL    HW153228   5.686   9.709   7.268
83777SOL    HW253229   5.545   9.691   7.217
83778SOL     OW53230  11.206   3.251   8.620
83778SOL    HW153231  11.157   3.285   8.695
83778SOL    HW253232  11.297   3.274   8.639
83779SOL     OW53233   9.499  13.692  12.560
83779SOL    HW153234   9.511  13.787  12.556
83779SOL    HW253235   9.508  13.671  12.653
83780SOL     OW53236  10.822   3.975   6.493
83780SOL    HW153237  10.864   4.059   6.474
83780SOL    HW253238  10.893   3.911   6.487
83781SOL     OW53239   7.310   7.742  12.949
83781SOL    HW153240   7.313   7.783  13.036
83781SOL    HW253241   7.217   7.738  12.928
83782SOL     OW53242  10.126   4.787   1.969
83782SOL    HW153243  10.140   4.849   2.040
83782SOL    HW253244  10.034   4.798   1.945
83783SOL     OW53245  13.042   9.407   5.971
83783SOL    HW153246  13.126   9.439   5.939
83783SOL    HW253247  13.022   9.464   6.046
83784SOL     OW53248  11.258   4.116   1.631
83784SOL    HW153249  11.297   4.203   1.644
83784SOL    HW253250  11.323   4.055   1.667
83785SOL     OW53251  10.043  11.126   6.148
83785SOL    HW153252  10.036  11.178   6.228
83785SOL    HW253253  10.071  11.188   6.081
83786SOL     OW53254  14.316   0.776   7.237
83786SOL    HW153255  14.240   0.736   7.281
83786SOL    HW253256  14.280   0.852   7.191
83787SOL     OW53257  12.703   4.698  11.661
83787SOL    HW153258  12.795   4.724  11.662
83787SOL    HW253259  12.655   4.780  11.678
83788SOL     OW53260   8.162   7.579   4.633
83788SOL    HW153261   8.204   7.600   4.716
83788SOL    HW253262   8.234   7.570   4.571
83789SOL     OW53263   9.993  14.207   2.727
83789SOL    HW153264  10.039  14.148   2.786
83789SOL    HW253265  10.008  14.171   2.640
83790SOL     OW53266  13.574  14.116  11.129
83790SOL    HW153267  13.632  14.084  11.060
83790SOL    HW253268  13.497  14.149  11.082
83791SOL     OW53269   9.729   7.927  10.628
83791SOL    HW153270   9.708   8.008  10.582
83791SOL    HW253271   9.759   7.867  10.559
83792SOL     OW53272  11.105   6.323   7.781
83792SOL    HW153273  11.027   6.343   7.834
83792SOL    HW253274  11.171   6.297   7.845
83793SOL     OW53275   9.129   2.579   0.258
83793SOL    HW153276   9.088   2.623   0.332
83793SOL    HW253277   9.132   2.644   0.188
83794SOL     OW53278   3.863   1.398  11.449
83794SOL    HW153279   3.828   1.348  11.522
83794SOL    HW253280   3.788   1.448  11.416
83795SOL     OW53281  10.243   9.323   9.353
83795SOL    HW153282  10.298   9.283   9.421
83795SOL    HW253283  10.167   9.357   9.401
83796SOL     OW53284   6.819  13.562  12.731
83796SOL    HW153285   6.741  13.568  12.787
83796SOL    HW253286   6.846  13.471  12.738
83797SOL     OW53287  10.571   8.022   3.495
83797SOL    HW153288  10.560   8.104   3.448
83797SOL    HW253289  10.610   8.048   3.579
83798SOL     OW53290   6.419  14.188   1.431
83798SOL    HW153291   6.459  14.137   1.361
83798SOL    HW253292   6.341  14.139   1.456
83799SOL     OW53293  11.733  13.193   3.177
83799SOL    HW153294  11.739  13.285   3.152
83799SOL    HW253295  11.779  13.145   3.108
83800SOL     OW53296  13.721   5.224   8.741
83800SOL    HW153297  13.666   5.225   8.819
83800SOL    HW253298  13.807   5.253   8.771
83801SOL     OW53299  13.976  11.932   8.645
83801SOL    HW153300  13.981  11.927   8.741
83801SOL    HW253301  13.967  12.026   8.627
83802SOL     OW53302   9.071   9.628  10.132
83802SOL    HW153303   9.052   9.612  10.225
83802SOL    HW253304   9.164   9.651  10.131
83803SOL     OW53305   4.798   4.028   9.125
83803SOL    HW153306   4.706   4.008   9.107
83803SOL    HW253307   4.807   4.121   9.104
83804SOL     OW53308  12.669  14.009   2.431
83804SOL    HW153309  12.676  14.025   2.525
83804SOL    HW253310  12.598  13.945   2.423
83805SOL     OW53311   4.151   9.203  13.519
83805SOL    HW153312   4.061   9.188  13.490
83805SOL    HW253313   4.202   9.136  13.473
83806SOL     OW53314   5.055  12.345   9.916
83806SOL    HW153315   5.053  12.281   9.987
83806SOL    HW253316   4.965  12.346   9.883
83807SOL     OW53317   8.958   1.428   5.881
83807SOL    HW153318   8.940   1.406   5.789
83807SOL    HW253319   9.030   1.370   5.906
83808SOL     OW53320  14.322   7.085   3.250
83808SOL    HW153321  14.338   7.013   3.189
83808SOL    HW253322  14.292   7.042   3.330
83809SOL     OW53323   2.075   2.198   0.799
83809SOL    HW153324   2.039   2.148   0.872
83809SOL    HW253325   2.072   2.289   0.829
83810SOL     OW53326   4.907   4.306   7.476
83810SOL    HW153327   4.873   4.337   7.560
83810SOL    HW253328   5.000   4.292   7.491
83811SOL     OW53329  14.364   2.416   2.536
83811SOL    HW153330  14.272   2.440   2.535
83811SOL    HW253331  14.373   2.357   2.610
83812SOL     OW53332  10.180  13.580   6.028
83812SOL    HW153333  10.248  13.539   6.081
83812SOL    HW253334  10.134  13.506   5.988
83813SOL     OW53335   6.599   2.448  11.789
83813SOL    HW153336   6.660   2.375  11.778
83813SOL    HW253337   6.644   2.508  11.847
83814SOL     OW53338  12.109  10.851   8.241
83814SOL    HW153339  12.165  10.834   8.316
83814SOL    HW253340  12.020  10.832   8.271
83815SOL     OW53341   1.949   2.739   8.427
83815SOL    HW153342   1.920   2.776   8.344
83815SOL    HW253343   2.044   2.756   8.429
83816SOL     OW53344  13.539  11.551  11.907
83816SOL    HW153345  13.610  11.515  11.960
83816SOL    HW253346  13.459  11.520  11.951
83817SOL     OW53347  12.130   6.175   7.132
83817SOL    HW153348  12.039   6.183   7.104
83817SOL    HW253349  12.132   6.220   7.217
83818SOL     OW53350   3.050   7.437   5.068
83818SOL    HW153351   3.106   7.486   5.007
83818SOL    HW253352   2.962   7.445   5.031
83819SOL     OW53353   1.811   0.798   9.282
83819SOL    HW153354   1.886   0.848   9.314
83819SOL    HW253355   1.792   0.736   9.352
83820SOL     OW53356   7.055   6.325   2.255
83820SOL    HW153357   7.087   6.332   2.345
83820SOL    HW253358   7.130   6.348   2.201
83821SOL     OW53359   0.463  13.881  14.551
83821SOL    HW153360   0.410  13.847  14.623
83821SOL    HW253361   0.493  13.967  14.582
83822SOL     OW53362   7.271  11.689   3.289
83822SOL    HW153363   7.212  11.621   3.257
83822SOL    HW253364   7.324  11.645   3.356
83823SOL     OW53365  12.833   2.734   3.404
83823SOL    HW153366  12.895   2.662   3.393
83823SOL    HW253367  12.851   2.768   3.491
83824SOL     OW53368   0.436  10.810   4.967
83824SOL    HW153369   0.463  10.724   4.935
83824SOL    HW253370   0.379  10.792   5.042
83825SOL     OW53371   6.219  10.143   1.866
83825SOL    HW153372   6.250  10.053   1.876
83825SOL    HW253373   6.177  10.144   1.779
83826SOL     OW53374   7.850   4.879   4.508
83826SOL    HW153375   7.777   4.914   4.456
83826SOL    HW253376   7.928   4.917   4.467
83827SOL     OW53377  12.111   3.334  14.657
83827SOL    HW153378  12.016   3.324  14.653
83827SOL    HW253379  12.133   3.394  14.585
83828SOL     OW53380   7.029  11.764   1.917
83828SOL    HW153381   7.005  11.787   2.007
83828SOL    HW253382   6.978  11.824   1.863
83829SOL     OW53383   1.032   5.080  11.359
83829SOL    HW153384   0.950   5.060  11.405
83829SOL    HW253385   1.006   5.142  11.291
83830SOL     OW53386   4.410   9.681   1.203
83830SOL    HW153387   4.315   9.679   1.210
83830SOL    HW253388   4.438   9.592   1.225
83831SOL     OW53389   8.587  10.618   1.529
83831SOL    HW153390   8.550  10.616   1.617
83831SOL    HW253391   8.570  10.707   1.498
83832SOL     OW53392  11.122   6.573   5.437
83832SOL    HW153393  11.139   6.639   5.504
83832SOL    HW253394  11.028   6.576   5.424
83833SOL     OW53395   6.099  12.978  11.930
83833SOL    HW153396   6.103  13.058  11.877
83833SOL    HW253397   6.007  12.971  11.956
83834SOL     OW53398   4.318  12.422  12.010
83834SOL    HW153399   4.262  12.492  11.976
83834SOL    HW253400   4.272  12.390  12.087
83835SOL     OW53401  13.627  10.203   9.817
83835SOL    HW153402  13.677  10.209   9.898
83835SOL    HW253403  13.564  10.133   9.832
83836SOL     OW53404   4.288   7.849   7.482
83836SOL    HW153405   4.198   7.830   7.508
83836SOL    HW253406   4.285   7.850   7.386
83837SOL     OW53407   8.237  11.014   4.961
83837SOL    HW153408   8.285  10.962   4.896
83837SOL    HW253409   8.257  10.972   5.045
83838SOL     OW53410   9.871   4.980   1.102
83838SOL    HW153411   9.957   4.963   1.063
83838SOL    HW253412   9.883   5.058   1.156
83839SOL     OW53413   5.626   8.305   9.572
83839SOL    HW153414   5.547   8.256   9.547
83839SOL    HW253415   5.674   8.316   9.490
83840SOL     OW53416  13.768  10.813   4.490
83840SOL    HW153417  13.863  10.808   4.504
83840SOL    HW253418  13.738  10.874   4.557
83841SOL     OW53419  11.007  14.589   2.309
83841SOL    HW153420  11.074  14.648   2.276
83841SOL    HW253421  11.004  14.606   2.404
83842SOL     OW53422   8.977  13.328  10.489
83842SOL    HW153423   8.942  13.395  10.548
83842SOL    HW253424   8.971  13.367  10.402
83843SOL     OW53425   1.820  13.045   8.730
83843SOL    HW153426   1.828  12.998   8.647
83843SOL    HW253427   1.779  12.982   8.789
83844SOL     OW53428  11.995   4.149   9.373
83844SOL    HW153429  12.013   4.083   9.440
83844SOL    HW253430  11.899   4.152   9.367
83845SOL     OW53431   8.090  12.050   0.065
83845SOL    HW153432   8.103  11.996  14.858
83845SOL    HW253433   8.168  12.106   0.069
83846SOL     OW53434   6.558   2.808   9.360
83846SOL    HW153435   6.569   2.824   9.267
83846SOL    HW253436   6.646   2.816   9.397
83847SOL     OW53437   8.171   9.339   3.478
83847SOL    HW153438   8.126   9.255   3.484
83847SOL    HW253439   8.101   9.403   3.466
83848SOL     OW53440   2.380   0.263   3.812
83848SOL    HW153441   2.413   0.209   3.740
83848SOL    HW253442   2.338   0.337   3.769
83849SOL     OW53443  14.696   3.465  10.811
83849SOL    HW153444  14.687   3.454  10.906
83849SOL    HW253445  14.605   3.466  10.778
83850SOL     OW53446   5.647   2.194   4.979
83850SOL    HW153447   5.733   2.198   4.937
83850SOL    HW253448   5.585   2.187   4.906
83851SOL     OW53449   2.510   5.567  12.946
83851SOL    HW153450   2.468   5.538  13.027
83851SOL    HW253451   2.459   5.643  12.918
83852SOL     OW53452   2.780   0.818  11.004
83852SOL    HW153453   2.689   0.832  10.977
83852SOL    HW253454   2.824   0.901  10.987
83853SOL     OW53455   8.923  13.191   5.946
83853SOL    HW153456   8.878  13.112   5.974
83853SOL    HW253457   8.855  13.245   5.906
83854SOL     OW53458   4.411  13.250   0.124
83854SOL    HW153459   4.319  13.265   0.104
83854SOL    HW253460   4.459  13.286   0.050
83855SOL     OW53461  13.739   2.920  11.843
83855SOL    HW153462  13.686   2.878  11.775
83855SOL    HW253463  13.829   2.901  11.817
83856SOL     OW53464  11.881   3.655  11.660
83856SOL    HW153465  11.975   3.656  11.673
83856SOL    HW253466  11.869   3.630  11.568
83857SOL     OW53467  10.510   0.267   0.392
83857SOL    HW153468  10.457   0.314   0.456
83857SOL    HW253469  10.509   0.322   0.314
83858SOL     OW53470   2.320   5.483   5.436
83858SOL    HW153471   2.250   5.422   5.416
83858SOL    HW253472   2.278   5.551   5.489
83859SOL     OW53473   1.865  14.568   3.140
83859SOL    HW153474   1.825  14.567   3.227
83859SOL    HW253475   1.884  14.660   3.123
83860SOL     OW53476   1.555   3.792  13.834
83860SOL    HW153477   1.604   3.711  13.820
83860SOL    HW253478   1.474   3.764  13.877
83861SOL     OW53479   5.102   8.603  11.382
83861SOL    HW153480   5.188   8.583  11.346
83861SOL    HW253481   5.065   8.518  11.405
83862SOL     OW53482   8.886  11.627  11.989
83862SOL    HW153483   8.878  11.550  11.933
83862SOL    HW253484   8.798  11.665  11.990
83863SOL     OW53485  14.193   9.470  12.535
83863SOL    HW153486  14.244   9.444  12.458
83863SOL    HW253487  14.103   9.444  12.514
83864SOL     OW53488  11.293   4.636   2.488
83864SOL    HW153489  11.252   4.711   2.446
83864SOL    HW253490  11.251   4.560   2.446
83865SOL     OW53491   0.369   7.982   0.547
83865SOL    HW153492   0.417   7.937   0.477
83865SOL    HW253493   0.330   7.912   0.599
83866SOL     OW53494   3.400   1.983   5.718
83866SOL    HW153495   3.343   1.935   5.658
83866SOL    HW253496   3.397   2.073   5.687
83867SOL     OW53497   1.221   9.771   9.606
83867SOL    HW153498   1.195   9.863   9.602
83867SOL    HW253499   1.317   9.773   9.606
83868SOL     OW53500   6.847  12.617   0.416
83868SOL    HW153501   6.767  12.668   0.426
83868SOL    HW253502   6.889  12.621   0.503
83869SOL     OW53503   8.255   4.000   5.251
83869SOL    HW153504   8.182   3.995   5.313
83869SOL    HW253505   8.286   3.910   5.243
83870SOL     OW53506  14.685  12.415  13.674
83870SOL    HW153507  14.718  12.505  13.675
83870SOL    HW253508  14.643  12.406  13.589
83871SOL     OW53509   7.874   5.273  12.814
83871SOL    HW153510   7.811   5.290  12.745
83871SOL    HW253511   7.954   5.317  12.786
83872SOL     OW53512   5.774  13.320   2.675
83872SOL    HW153513   5.846  13.304   2.614
83872SOL    HW253514   5.697  13.287   2.629
83873SOL     OW53515  10.445   6.573   1.391
83873SOL    HW153516  10.436   6.541   1.301
83873SOL    HW253517  10.452   6.493   1.444
83874SOL     OW53518   2.974   0.132  10.124
83874SOL    HW153519   2.959   0.151  10.216
83874SOL    HW253520   2.941   0.043  10.113
83875SOL     OW53521   7.174  14.667   8.613
83875SOL    HW153522   7.175  14.762   8.602
83875SOL    HW253523   7.216  14.634   8.533
83876SOL     OW53524   6.692   1.723   3.617
83876SOL    HW153525   6.756   1.756   3.680
83876SOL    HW253526   6.617   1.781   3.626
83877SOL     OW53527  14.270  11.794   9.063
83877SOL    HW153528  14.261  11.861   8.995
83877SOL    HW253529  14.261  11.842   9.145
83878SOL     OW53530  11.504  10.772   3.003
83878SOL    HW153531  11.450  10.763   2.924
83878SOL    HW253532  11.468  10.707   3.064
83879SOL     OW53533  10.074   4.781   7.051
83879SOL    HW153534  10.016   4.781   7.127
83879SOL    HW253535  10.100   4.690   7.039
83880SOL     OW53536  11.072   8.599  12.938
83880SOL    HW153537  11.108   8.599  12.849
83880SOL    HW253538  11.112   8.676  12.980
83881SOL     OW53539   6.587   6.511  11.686
83881SOL    HW153540   6.516   6.496  11.624
83881SOL    HW253541   6.572   6.599  11.719
83882SOL     OW53542  13.757   2.334   6.125
83882SOL    HW153543  13.758   2.408   6.066
83882SOL    HW253544  13.669   2.334   6.162
83883SOL     OW53545   1.140   2.873   8.861
83883SOL    HW153546   1.174   2.805   8.803
83883SOL    HW253547   1.133   2.830   8.946
83884SOL     OW53548   3.879   6.088   2.265
83884SOL    HW153549   3.959   6.038   2.251
83884SOL    HW253550   3.825   6.070   2.188
83885SOL     OW53551  10.363  14.722   0.081
83885SOL    HW153552  10.276  14.682   0.077
83885SOL    HW253553  10.360  14.777   0.159
83886SOL     OW53554   3.332  13.980   4.533
83886SOL    HW153555   3.248  13.975   4.486
83886SOL    HW253556   3.321  14.053   4.594
83887SOL     OW53557  13.761   9.817   4.227
83887SOL    HW153558  13.756   9.836   4.133
83887SOL    HW253559  13.805   9.894   4.264
83888SOL     OW53560   6.629   4.633   7.284
83888SOL    HW153561   6.578   4.707   7.253
83888SOL    HW253562   6.693   4.616   7.215
83889SOL     OW53563   0.813   4.305   5.005
83889SOL    HW153564   0.738   4.246   4.994
83889SOL    HW253565   0.825   4.344   4.918
83890SOL     OW53566   3.902   6.536   0.215
83890SOL    HW153567   3.813   6.500   0.219
83890SOL    HW253568   3.891   6.631   0.221
83891SOL     OW53569   6.511  12.133   6.013
83891SOL    HW153570   6.564  12.177   6.080
83891SOL    HW253571   6.482  12.204   5.955
83892SOL     OW53572  13.479   1.775  12.978
83892SOL    HW153573  13.470   1.741  12.889
83892SOL    HW253574  13.438   1.862  12.975
83893SOL     OW53575   4.153   7.981   6.393
83893SOL    HW153576   4.069   7.971   6.348
83893SOL    HW253577   4.208   8.028   6.332
83894SOL     OW53578  10.651  13.172   6.614
83894SOL    HW153579  10.560  13.150   6.633
83894SOL    HW253580  10.651  13.197   6.521
83895SOL     OW53581   6.053   5.872   6.669
83895SOL    HW153582   6.025   5.803   6.609
83895SOL    HW253583   6.041   5.953   6.620
83896SOL     OW53584   8.344   2.718   3.684
83896SOL    HW153585   8.413   2.745   3.623
83896SOL    HW253586   8.389   2.660   3.746
83897SOL     OW53587   1.500   3.325   0.866
83897SOL    HW153588   1.547   3.245   0.890
83897SOL    HW253589   1.529   3.390   0.930
83898SOL     OW53590   8.850   7.161  12.110
83898SOL    HW153591   8.785   7.193  12.048
83898SOL    HW253592   8.923   7.222  12.101
83899SOL     OW53593   8.666  13.446  13.677
83899SOL    HW153594   8.658  13.425  13.770
83899SOL    HW253595   8.586  13.494  13.656
83900SOL     OW53596  13.506  11.613   3.379
83900SOL    HW153597  13.439  11.671   3.415
83900SOL    HW253598  13.472  11.589   3.292
83901SOL     OW53599   9.386  11.853   3.969
83901SOL    HW153600   9.316  11.792   3.946
83901SOL    HW253601   9.465  11.814   3.929
83902SOL     OW53602   7.448  12.601  14.164
83902SOL    HW153603   7.475  12.604  14.072
83902SOL    HW253604   7.417  12.511  14.177
83903SOL     OW53605   1.178  12.829   1.550
83903SOL    HW153606   1.139  12.752   1.592
83903SOL    HW253607   1.184  12.804   1.457
83904SOL     OW53608   6.446  13.996   7.231
83904SOL    HW153609   6.519  13.942   7.263
83904SOL    HW253610   6.414  13.948   7.154
83905SOL     OW53611   2.676  14.500  10.259
83905SOL    HW153612   2.767  14.527  10.267
83905SOL    HW253613   2.627  14.581  10.243
83906SOL     OW53614   9.425  10.500  12.552
83906SOL    HW153615   9.487  10.456  12.494
83906SOL    HW253616   9.342  10.496  12.505
83907SOL     OW53617  10.693  13.512   7.113
83907SOL    HW153618  10.724  13.505   7.022
83907SOL    HW253619  10.676  13.422   7.139
83908SOL     OW53620   8.357   1.796  12.230
83908SOL    HW153621   8.296   1.763  12.296
83908SOL    HW253622   8.432   1.736  12.234
83909SOL     OW53623  12.652  11.401   4.325
83909SOL    HW153624  12.745  11.381   4.336
83909SOL    HW253625  12.632  11.459   4.398
83910SOL     OW53626   7.855   6.688   7.315
83910SOL    HW153627   7.945   6.655   7.321
83910SOL    HW253628   7.863   6.783   7.326
83911SOL     OW53629   1.112   3.044   2.458
83911SOL    HW153630   1.187   3.102   2.473
83911SOL    HW253631   1.038   3.104   2.450
83912SOL     OW53632   8.254  11.273  14.850
83912SOL    HW153633   8.321  11.340  14.869
83912SOL    HW253634   8.227  11.242   0.066
83913SOL     OW53635  11.673   8.814  14.709
83913SOL    HW153636  11.672   8.719  14.719
83913SOL    HW253637  11.735   8.831  14.639
83914SOL     OW53638   9.073   7.246   1.337
83914SOL    HW153639   9.060   7.234   1.243
83914SOL    HW253640   9.122   7.169   1.364
83915SOL     OW53641   4.694   6.662   8.596
83915SOL    HW153642   4.617   6.716   8.615
83915SOL    HW253643   4.659   6.590   8.543
83916SOL     OW53644   4.807  13.509  12.038
83916SOL    HW153645   4.797  13.577  11.972
83916SOL    HW253646   4.896  13.522  12.072
83917SOL     OW53647   5.451   3.194   7.727
83917SOL    HW153648   5.453   3.140   7.805
83917SOL    HW253649   5.393   3.148   7.667
83918SOL     OW53650   7.431  14.310   3.608
83918SOL    HW153651   7.387  14.310   3.692
83918SOL    HW253652   7.375  14.258   3.551
83919SOL     OW53653  11.333  13.564   1.296
83919SOL    HW153654  11.413  13.558   1.244
83919SOL    HW253655  11.263  13.539   1.236
83920SOL     OW53656   0.410  10.734   5.592
83920SOL    HW153657   0.490  10.786   5.581
83920SOL    HW253658   0.339  10.799   5.586
83921SOL     OW53659   3.022   2.593  10.012
83921SOL    HW153660   3.061   2.606  10.099
83921SOL    HW253661   3.016   2.498  10.002
83922SOL     OW53662  14.804   2.404  10.121
83922SOL    HW153663  14.765   2.354  10.192
83922SOL    HW253664  14.731   2.426  10.064
83923SOL     OW53665  10.026   2.825   4.313
83923SOL    HW153666  10.041   2.919   4.306
83923SOL    HW253667  10.054   2.802   4.402
83924SOL     OW53668   1.884   1.062   5.602
83924SOL    HW153669   1.941   1.051   5.526
83924SOL    HW253670   1.854   1.153   5.595
83925SOL     OW53671   0.963  14.550   3.248
83925SOL    HW153672   0.984  14.642   3.231
83925SOL    HW253673   1.048  14.507   3.254
83926SOL     OW53674   9.801   0.630   4.361
83926SOL    HW153675   9.769   0.547   4.327
83926SOL    HW253676   9.786   0.693   4.290
83927SOL     OW53677   4.649  13.248   1.858
83927SOL    HW153678   4.592  13.176   1.886
83927SOL    HW253679   4.657  13.303   1.936
83928SOL     OW53680   3.059   0.586   3.008
83928SOL    HW153681   2.968   0.556   3.012
83928SOL    HW253682   3.109   0.508   2.985
83929SOL     OW53683   3.208  13.435   0.351
83929SOL    HW153684   3.260  13.358   0.372
83929SOL    HW253685   3.271  13.505   0.338
83930SOL     OW53686  14.058  12.016   3.575
83930SOL    HW153687  13.980  11.972   3.540
83930SOL    HW253688  14.089  12.070   3.503
83931SOL     OW53689   3.836   1.497   2.338
83931SOL    HW153690   3.889   1.577   2.342
83931SOL    HW253691   3.900   1.426   2.345
83932SOL     OW53692  12.395   0.830  12.352
83932SOL    HW153693  12.445   0.821  12.271
83932SOL    HW253694  12.461   0.828  12.421
83933SOL     OW53695   9.409   5.377   2.131
83933SOL    HW153696   9.393   5.432   2.207
83933SOL    HW253697   9.487   5.415   2.090
83934SOL     OW53698   0.485   9.871   8.372
83934SOL    HW153699   0.521   9.943   8.425
83934SOL    HW253700   0.546   9.862   8.300
83935SOL     OW53701  13.655  13.070   6.261
83935SOL    HW153702  13.604  13.148   6.239
83935SOL    HW253703  13.644  13.012   6.186
83936SOL     OW53704  11.872   6.633   9.114
83936SOL    HW153705  11.875   6.697   9.185
83936SOL    HW253706  11.786   6.592   9.123
83937SOL     OW53707  13.665  10.679   7.543
83937SOL    HW153708  13.615  10.660   7.463
83937SOL    HW253709  13.676  10.774   7.542
83938SOL     OW53710  13.920  12.969   1.868
83938SOL    HW153711  13.924  13.061   1.843
83938SOL    HW253712  14.011  12.939   1.865
83939SOL     OW53713   4.576   6.418   1.241
83939SOL    HW153714   4.558   6.488   1.304
83939SOL    HW253715   4.507   6.425   1.176
83940SOL     OW53716   5.161   7.236   1.779
83940SOL    HW153717   5.183   7.163   1.837
83940SOL    HW253718   5.108   7.197   1.710
83941SOL     OW53719  14.512  13.376   4.550
83941SOL    HW153720  14.567  13.455   4.549
83941SOL    HW253721  14.574  13.304   4.541
83942SOL     OW53722  13.093   0.047   9.707
83942SOL    HW153723  13.023  14.864   9.746
83942SOL    HW253724  13.093   0.128   9.758
83943SOL     OW53725   6.577   9.090   2.665
83943SOL    HW153726   6.510   9.104   2.732
83943SOL    HW253727   6.635   9.166   2.674
83944SOL     OW53728   7.176   1.192   6.222
83944SOL    HW153729   7.224   1.109   6.223
83944SOL    HW253730   7.237   1.255   6.261
83945SOL     OW53731  11.937   6.167   2.873
83945SOL    HW153732  11.896   6.220   2.942
83945SOL    HW253733  11.895   6.081   2.881
83946SOL     OW53734  11.790   4.685   1.623
83946SOL    HW153735  11.802   4.767   1.669
83946SOL    HW253736  11.741   4.630   1.683
83947SOL     OW53737   7.925   3.154   1.259
83947SOL    HW153738   7.855   3.156   1.193
83947SOL    HW253739   7.914   3.236   1.308
83948SOL     OW53740  12.019  14.105  11.685
83948SOL    HW153741  12.059  14.103  11.772
83948SOL    HW253742  12.047  14.024  11.644
83949SOL     OW53743   4.066   8.015   0.984
83949SOL    HW153744   3.975   7.986   0.991
83949SOL    HW253745   4.114   7.938   0.953
83950SOL     OW53746  14.759  10.616  11.980
83950SOL    HW153747  14.797  10.532  12.003
83950SOL    HW253748  14.686  10.627  12.042
83951SOL     OW53749   6.835   1.275   6.495
83951SOL    HW153750   6.844   1.187   6.460
83951SOL    HW253751   6.823   1.331   6.418
83952SOL     OW53752  12.866  14.761  14.237
83952SOL    HW153753  12.927  14.703  14.282
83952SOL    HW253754  12.792  14.769  14.297
83953SOL     OW53755  11.371   7.817  11.877
83953SOL    HW153756  11.311   7.875  11.831
83953SOL    HW253757  11.442   7.801  11.815
83954SOL     OW53758  11.786  13.511  11.580
83954SOL    HW153759  11.840  13.432  11.588
83954SOL    HW253760  11.755  13.510  11.490
83955SOL     OW53761  13.553   5.999   2.515
83955SOL    HW153762  13.600   6.080   2.535
83955SOL    HW253763  13.556   5.993   2.419
83956SOL     OW53764   4.699   5.267   6.704
83956SOL    HW153765   4.671   5.358   6.696
83956SOL    HW253766   4.782   5.263   6.656
83957SOL     OW53767   7.681  11.072   9.977
83957SOL    HW153768   7.740  11.053  10.050
83957SOL    HW253769   7.644  10.987   9.953
83958SOL     OW53770   3.123  12.895   6.607
83958SOL    HW153771   3.157  12.953   6.675
83958SOL    HW253772   3.158  12.933   6.525
83959SOL     OW53773   7.779   8.234   5.794
83959SOL    HW153774   7.810   8.191   5.714
83959SOL    HW253775   7.838   8.202   5.863
83960SOL     OW53776  14.293  11.853   6.341
83960SOL    HW153777  14.379  11.818   6.362
83960SOL    HW253778  14.271  11.815   6.256
83961SOL     OW53779  12.907  12.445   1.220
83961SOL    HW153780  12.907  12.351   1.201
83961SOL    HW253781  12.964  12.454   1.297
83962SOL     OW53782   4.960  11.523  14.690
83962SOL    HW153783   4.915  11.490  14.612
83962SOL    HW253784   4.930  11.613  14.699
83963SOL     OW53785   7.699   4.763  13.991
83963SOL    HW153786   7.794   4.769  13.985
83963SOL    HW253787   7.683   4.706  14.066
83964SOL     OW53788   0.663  14.849   3.981
83964SOL    HW153789   0.648   0.015   4.069
83964SOL    HW253790   0.615  14.766   3.980
83965SOL     OW53791   0.184   4.256   5.380
83965SOL    HW153792   0.188   4.288   5.290
83965SOL    HW253793   0.201   4.334   5.434
83966SOL     OW53794  11.419  12.632   7.720
83966SOL    HW153795  11.415  12.721   7.684
83966SOL    HW253796  11.427  12.645   7.815
83967SOL     OW53797   7.740   1.084  12.853
83967SOL    HW153798   7.755   0.990  12.842
83967SOL    HW253799   7.827   1.123  12.851
83968SOL     OW53800  10.444   0.486   5.854
83968SOL    HW153801  10.453   0.491   5.949
83968SOL    HW253802  10.476   0.398   5.831
83969SOL     OW53803   7.729   3.140  13.918
83969SOL    HW153804   7.765   3.228  13.907
83969SOL    HW253805   7.637   3.155  13.940
83970SOL     OW53806  13.915   4.914   3.018
83970SOL    HW153807  13.875   4.837   3.057
83970SOL    HW253808  13.992   4.932   3.072
83971SOL     OW53809   1.704   8.103  12.118
83971SOL    HW153810   1.747   8.042  12.057
83971SOL    HW253811   1.644   8.048  12.168
83972SOL     OW53812   2.417   2.559   5.910
83972SOL    HW153813   2.510   2.583   5.917
83972SOL    HW253814   2.371   2.638   5.940
83973SOL     OW53815   1.150  11.938   7.291
83973SOL    HW153816   1.216  11.999   7.322
83973SOL    HW253817   1.087  11.992   7.242
83974SOL     OW53818  12.016   1.767  11.996
83974SOL    HW153819  11.981   1.853  11.970
83974SOL    HW253820  11.943   1.707  11.980
83975SOL     OW53821  14.012   8.245  12.080
83975SOL    HW153822  14.010   8.181  12.152
83975SOL    HW253823  13.948   8.211  12.017
83976SOL     OW53824   8.494  10.138   6.293
83976SOL    HW153825   8.441  10.094   6.227
83976SOL    HW253826   8.537  10.067   6.341
83977SOL     OW53827  11.189  12.359   5.006
83977SOL    HW153828  11.210  12.266   5.004
83977SOL    HW253829  11.160  12.379   4.917
83978SOL     OW53830   0.636   5.366   6.064
83978SOL    HW153831   0.636   5.369   5.968
83978SOL    HW253832   0.544   5.349   6.087
83979SOL     OW53833   0.150   1.903  12.168
83979SOL    HW153834   0.094   1.850  12.224
83979SOL    HW253835   0.207   1.841  12.125
83980SOL     OW53836   1.167  14.535  13.717
83980SOL    HW153837   1.200  14.479  13.788
83980SOL    HW253838   1.075  14.549  13.737
83981SOL     OW53839   5.446   0.703  12.936
83981SOL    HW153840   5.394   0.633  12.975
83981SOL    HW253841   5.494   0.660  12.865
83982SOL     OW53842   3.354   7.386   5.724
83982SOL    HW153843   3.408   7.384   5.645
83982SOL    HW253844   3.264   7.391   5.691
83983SOL     OW53845   0.126   9.966   7.594
83983SOL    HW153846   0.051   9.956   7.536
83983SOL    HW253847   0.103   9.914   7.672
83984SOL     OW53848   0.043   8.387   6.053
83984SOL    HW153849   0.108   8.318   6.040
83984SOL    HW253850   0.026   8.421   5.965
83985SOL     OW53851   7.542  11.741   4.478
83985SOL    HW153852   7.577  11.767   4.563
83985SOL    HW253853   7.505  11.654   4.493
83986SOL     OW53854  12.340   7.651   2.134
83986SOL    HW153855  12.426   7.690   2.144
83986SOL    HW253856  12.287   7.690   2.204
83987SOL     OW53857   6.609   2.169   2.369
83987SOL    HW153858   6.523   2.147   2.333
83987SOL    HW253859   6.656   2.085   2.371
83988SOL     OW53860  10.064  10.508  11.459
83988SOL    HW153861  10.041  10.419  11.484
83988SOL    HW253862  10.055  10.509  11.364
83989SOL     OW53863   6.946   4.255   6.665
83989SOL    HW153864   7.005   4.241   6.591
83989SOL    HW253865   7.003   4.284   6.736
83990SOL     OW53866   5.777   9.597  14.372
83990SOL    HW153867   5.796   9.629  14.283
83990SOL    HW253868   5.683   9.611  14.383
83991SOL     OW53869  12.138  11.156   9.697
83991SOL    HW153870  12.081  11.210   9.643
83991SOL    HW253871  12.226  11.177   9.666
83992SOL     OW53872   5.351   5.962   1.564
83992SOL    HW153873   5.280   6.021   1.590
83992SOL    HW253874   5.414   5.967   1.636
83993SOL     OW53875   6.440   9.880  14.292
83993SOL    HW153876   6.528   9.909  14.267
83993SOL    HW253877   6.399   9.958  14.328
83994SOL     OW53878   9.495   4.288   8.906
83994SOL    HW153879   9.468   4.380   8.896
83994SOL    HW253880   9.582   4.284   8.868
83995SOL     OW53881   4.895  14.514   1.893
83995SOL    HW153882   4.827  14.449   1.913
83995SOL    HW253883   4.932  14.536   1.978
83996SOL     OW53884   8.014   5.810   9.190
83996SOL    HW153885   7.919   5.813   9.182
83996SOL    HW253886   8.030   5.823   9.284
83997SOL     OW53887   3.140  12.154   6.735
83997SOL    HW153888   3.165  12.246   6.748
83997SOL    HW253889   3.051  12.149   6.770
83998SOL     OW53890  11.697  12.403  12.949
83998SOL    HW153891  11.668  12.466  13.014
83998SOL    HW253892  11.728  12.328  13.000
83999SOL     OW53893   0.654   9.244  12.253
83999SOL    HW153894   0.701   9.230  12.336
83999SOL    HW253895   0.607   9.163  12.238
84000SOL     OW53896   8.696   5.005  11.074
84000SOL    HW153897   8.722   5.082  11.126
84000SOL    HW253898   8.607   4.986  11.103
84001SOL     OW53899  10.865   5.224   9.262
84001SOL    HW153900  10.936   5.267   9.214
84001SOL    HW253901  10.842   5.149   9.207
84002SOL     OW53902   5.747  13.398  11.527
84002SOL    HW153903   5.753  13.457  11.602
84002SOL    HW253904   5.770  13.452  11.452
84003SOL     OW53905   3.622   1.063  13.957
84003SOL    HW153906   3.696   1.120  13.938
84003SOL    HW253907   3.655   0.975  13.940
84004SOL     OW53908  14.118  10.715   4.350
84004SOL    HW153909  14.201  10.692   4.392
84004SOL    HW253910  14.096  10.801   4.386
84005SOL     OW53911  10.149   6.915   9.229
84005SOL    HW153912  10.068   6.871   9.256
84005SOL    HW253913  10.122   6.972   9.157
84006SOL     OW53914   2.405   6.020  12.819
84006SOL    HW153915   2.435   5.969  12.744
84006SOL    HW253916   2.415   6.111  12.792
84007SOL     OW53917   3.245   8.405   2.787
84007SOL    HW153918   3.309   8.339   2.763
84007SOL    HW253919   3.197   8.423   2.706
84008SOL     OW53920   3.354   1.207   3.977
84008SOL    HW153921   3.361   1.238   3.887
84008SOL    HW253922   3.414   1.133   3.982
84009SOL     OW53923   1.494   6.013   4.696
84009SOL    HW153924   1.441   5.942   4.734
84009SOL    HW253925   1.433   6.059   4.639
84010SOL     OW53926  11.735   3.865  14.812
84010SOL    HW153927  11.681   3.940  14.836
84010SOL    HW253928  11.818   3.880  14.857
84011SOL     OW53929  12.555   9.255   5.567
84011SOL    HW153930  12.602   9.329   5.527
84011SOL    HW253931  12.463   9.275   5.552
84012SOL     OW53932   5.228  12.863  14.848
84012SOL    HW153933   5.180  12.939  14.814
84012SOL    HW253934   5.320  12.890  14.846
84013SOL     OW53935   2.243   0.032   7.868
84013SOL    HW153936   2.268   0.108   7.815
84013SOL    HW253937   2.200   0.070   7.945
84014SOL     OW53938  10.248  14.048  12.333
84014SOL    HW153939  10.246  13.959  12.297
84014SOL    HW253940  10.309  14.096  12.277
84015SOL     OW53941   9.429   9.349   4.048
84015SOL    HW153942   9.341   9.374   4.076
84015SOL    HW253943   9.415   9.291   3.973
84016SOL     OW53944  13.214   7.005  11.325
84016SOL    HW153945  13.258   7.089  11.339
84016SOL    HW253946  13.195   6.973  11.413
84017SOL     OW53947  14.188  13.888   1.343
84017SOL    HW153948  14.173  13.816   1.281
84017SOL    HW253949  14.133  13.866   1.418
84018SOL     OW53950  10.263  13.740  11.263
84018SOL    HW153951  10.219  13.821  11.291
84018SOL    HW253952  10.337  13.770  11.210
84019SOL     OW53953  10.150  14.368   2.937
84019SOL    HW153954  10.150  14.327   3.024
84019SOL    HW253955  10.073  14.424   2.936
84020SOL     OW53956   8.252   7.688  13.581
84020SOL    HW153957   8.258   7.782  13.562
84020SOL    HW253958   8.161   7.666  13.564
84021SOL     OW53959   0.045  12.926   2.018
84021SOL    HW153960   0.075  12.928   1.927
84021SOL    HW253961   0.124  12.948   2.068
84022SOL     OW53962   6.153   9.775  14.830
84022SOL    HW153963   6.206   9.795   0.038
84022SOL    HW253964   6.073   9.824  14.843
84023SOL     OW53965  10.388   7.608   0.205
84023SOL    HW153966  10.310   7.552   0.209
84023SOL    HW253967  10.361   7.689   0.248
84024SOL     OW53968   4.644   1.624  12.792
84024SOL    HW153969   4.611   1.680  12.862
84024SOL    HW253970   4.740   1.632  12.798
84025SOL     OW53971  14.639  13.617   0.806
84025SOL    HW153972  14.614  13.555   0.874
84025SOL    HW253973  14.712  13.575   0.761
84026SOL     OW53974  13.007  14.391  11.100
84026SOL    HW153975  13.061  14.349  11.166
84026SOL    HW253976  12.917  14.378  11.130
84027SOL     OW53977   4.668   0.833   0.820
84027SOL    HW153978   4.646   0.894   0.749
84027SOL    HW253979   4.677   0.888   0.897
84028SOL     OW53980   0.805   0.498   9.144
84028SOL    HW153981   0.733   0.515   9.204
84028SOL    HW253982   0.877   0.469   9.200
84029SOL     OW53983  12.844   9.532  10.594
84029SOL    HW153984  12.925   9.571  10.628
84029SOL    HW253985  12.869   9.442  10.572
84030SOL     OW53986  13.625   0.990  13.931
84030SOL    HW153987  13.686   0.982  14.004
84030SOL    HW253988  13.646   0.917  13.873
84031SOL     OW53989   8.428  12.667   7.479
84031SOL    HW153990   8.354  12.632   7.429
84031SOL    HW253991   8.426  12.619   7.562
84032SOL     OW53992   1.388  10.911  12.031
84032SOL    HW153993   1.436  10.952  12.103
84032SOL    HW253994   1.335  10.982  11.995
84033SOL     OW53995  11.345  11.233   9.800
84033SOL    HW153996  11.317  11.165   9.861
84033SOL    HW253997  11.421  11.274   9.842
84034SOL     OW53998   7.556   2.456   0.487
84034SOL    HW153999   7.635   2.509   0.497
84034SOL    HW254000   7.582   2.368   0.512
84035SOL     OW54001  10.565   4.603   9.254
84035SOL    HW154002  10.638   4.664   9.242
84035SOL    HW254003  10.502   4.627   9.186
84036SOL     OW54004   9.546   1.927   9.281
84036SOL    HW154005   9.625   1.906   9.231
84036SOL    HW254006   9.552   1.874   9.360
84037SOL     OW54007  13.663   7.947   1.748
84037SOL    HW154008  13.686   8.030   1.790
84037SOL    HW254009  13.669   7.882   1.818
84038SOL     OW54010   3.652   8.846  14.109
84038SOL    HW154011   3.667   8.927  14.158
84038SOL    HW254012   3.653   8.777  14.175
84039SOL     OW54013  11.090   8.954   4.431
84039SOL    HW154014  11.147   8.959   4.507
84039SOL    HW254015  11.046   8.869   4.438
84040SOL     OW54016   1.666   8.756  12.667
84040SOL    HW154017   1.718   8.676  12.657
84040SOL    HW254018   1.575   8.726  12.661
84041SOL     OW54019   0.192   5.287   6.853
84041SOL    HW154020   0.118   5.335   6.816
84041SOL    HW254021   0.184   5.199   6.816
84042SOL     OW54022  12.415  10.478  10.769
84042SOL    HW154023  12.487  10.446  10.824
84042SOL    HW254024  12.369  10.541  10.824
84043SOL     OW54025  12.946   1.405   1.408
84043SOL    HW154026  12.940   1.369   1.320
84043SOL    HW254027  12.971   1.330   1.463
84044SOL     OW54028   1.473  12.363   1.242
84044SOL    HW154029   1.525  12.443   1.243
84044SOL    HW254030   1.422  12.367   1.324
84045SOL     OW54031   8.285   7.864   5.998
84045SOL    HW154032   8.324   7.803   6.062
84045SOL    HW254033   8.327   7.841   5.915
84046SOL     OW54034   0.675  13.928   8.066
84046SOL    HW154035   0.652  14.021   8.069
84046SOL    HW254036   0.594  13.883   8.088
84047SOL     OW54037   0.475   9.481  10.402
84047SOL    HW154038   0.526   9.561  10.409
84047SOL    HW254039   0.434   9.486  10.316
84048SOL     OW54040   9.999   7.590  10.759
84048SOL    HW154041  10.081   7.599  10.807
84048SOL    HW254042   9.943   7.659  10.794
84049SOL     OW54043  14.090   2.682   8.568
84049SOL    HW154044  14.144   2.680   8.489
84049SOL    HW254045  14.095   2.772   8.598
84050SOL     OW54046   8.694  14.554   5.524
84050SOL    HW154047   8.611  14.507   5.531
84050SOL    HW254048   8.743  14.507   5.456
84051SOL     OW54049  11.195   2.583   2.202
84051SOL    HW154050  11.149   2.591   2.285
84051SOL    HW254051  11.194   2.671   2.165
84052SOL     OW54052   1.516  11.476   3.332
84052SOL    HW154053   1.547  11.546   3.388
84052SOL    HW254054   1.447  11.433   3.382
84053SOL     OW54055  13.813   7.922   8.736
84053SOL    HW154056  13.788   7.965   8.654
84053SOL    HW254057  13.784   7.982   8.804
84054SOL     OW54058  10.842   9.111   9.654
84054SOL    HW154059  10.771   9.067   9.700
84054SOL    HW254060  10.893   9.040   9.615
84055SOL     OW54061   9.777   7.612  12.588
84055SOL    HW154062   9.743   7.530  12.553
84055SOL    HW254063   9.770   7.674  12.515
84056SOL     OW54064   7.485   0.235   7.671
84056SOL    HW154065   7.495   0.161   7.731
84056SOL    HW254066   7.409   0.213   7.617
84057SOL     OW54067   7.901   4.022   7.938
84057SOL    HW154068   7.830   4.030   7.875
84057SOL    HW254069   7.948   3.943   7.912
84058SOL     OW54070   1.821   7.988  10.956
84058SOL    HW154071   1.823   7.909  10.903
84058SOL    HW254072   1.848   7.960  11.043
84059SOL     OW54073  10.309   3.388   8.922
84059SOL    HW154074  10.328   3.470   8.876
84059SOL    HW254075  10.344   3.401   9.010
84060SOL     OW54076   8.178  13.634   2.954
84060SOL    HW154077   8.135  13.635   2.869
84060SOL    HW254078   8.257  13.685   2.942
84061SOL     OW54079   1.063  13.343  13.935
84061SOL    HW154080   1.141  13.292  13.909
84061SOL    HW254081   1.065  13.342  14.031
84062SOL     OW54082   3.497   1.020  10.689
84062SOL    HW154083   3.584   0.991  10.718
84062SOL    HW254084   3.504   1.115  10.682
84063SOL     OW54085  11.452   3.274   6.861
84063SOL    HW154086  11.358   3.261   6.875
84063SOL    HW254087  11.488   3.186   6.861
84064SOL     OW54088   0.238   5.009   2.954
84064SOL    HW154089   0.237   4.926   3.001
84064SOL    HW254090   0.330   5.028   2.939
84065SOL     OW54091   4.274  10.979   8.842
84065SOL    HW154092   4.226  10.963   8.923
84065SOL    HW254093   4.336  10.907   8.835
84066SOL     OW54094   0.851   9.358   0.749
84066SOL    HW154095   0.845   9.446   0.788
84066SOL    HW254096   0.879   9.302   0.821
84067SOL     OW54097  14.371   5.977   4.614
84067SOL    HW154098  14.434   6.011   4.550
84067SOL    HW254099  14.312   6.051   4.630
84068SOL     OW54100   8.837   3.983   5.044
84068SOL    HW154101   8.869   3.936   5.121
84068SOL    HW254102   8.880   3.941   4.970
84069SOL     OW54103  14.695  10.055   0.463
84069SOL    HW154104  14.765  10.118   0.474
84069SOL    HW254105  14.615  10.105   0.476
84070SOL     OW54106   7.157   0.708   7.749
84070SOL    HW154107   7.177   0.801   7.737
84070SOL    HW254108   7.234   0.662   7.716
84071SOL     OW54109   7.491   8.242   2.229
84071SOL    HW154110   7.562   8.305   2.214
84071SOL    HW254111   7.536   8.161   2.253
84072SOL     OW54112  12.370  14.349  14.607
84072SOL    HW154113  12.287  14.353  14.560
84072SOL    HW254114  12.423  14.288  14.556
84073SOL     OW54115   2.164   0.147   5.932
84073SOL    HW154116   2.221   0.201   5.878
84073SOL    HW254117   2.196   0.158   6.021
84074SOL     OW54118   1.441  12.809  12.056
84074SOL    HW154119   1.371  12.871  12.038
84074SOL    HW254120   1.402  12.723  12.037
84075SOL     OW54121   0.181  10.229   7.657
84075SOL    HW154122   0.247  10.217   7.726
84075SOL    HW254123   0.163  10.140   7.626
84076SOL     OW54124  12.696   9.694   9.089
84076SOL    HW154125  12.733   9.693   9.002
84076SOL    HW254126  12.613   9.647   9.081
84077SOL     OW54127  13.417  14.823   3.061
84077SOL    HW154128  13.469  14.754   3.021
84077SOL    HW254129  13.403  14.793   3.151
84078SOL     OW54130   6.697   7.293   6.591
84078SOL    HW154131   6.621   7.241   6.614
84078SOL    HW254132   6.741   7.310   6.675
84079SOL     OW54133  11.653   8.177   0.009
84079SOL    HW154134  11.619   8.130   0.085
84079SOL    HW254135  11.710   8.114  14.834
84080SOL     OW54136   2.561   0.313   6.993
84080SOL    HW154137   2.574   0.273   6.908
84080SOL    HW254138   2.530   0.402   6.973
84081SOL     OW54139  11.726  13.478   2.613
84081SOL    HW154140  11.728  13.394   2.660
84081SOL    HW254141  11.817  13.494   2.590
84082SOL     OW54142   9.367   0.551   6.470
84082SOL    HW154143   9.391   0.458   6.475
84082SOL    HW254144   9.440   0.596   6.513
84083SOL     OW54145   4.873  10.066  10.159
84083SOL    HW154146   4.942  10.070  10.225
84083SOL    HW254147   4.913  10.105  10.081
84084SOL     OW54148  11.881  11.261   9.896
84084SOL    HW154149  11.875  11.283   9.803
84084SOL    HW254150  11.956  11.202   9.901
84085SOL     OW54151  12.707   3.223  10.503
84085SOL    HW154152  12.613   3.234  10.522
84085SOL    HW254153  12.747   3.302  10.538
84086SOL     OW54154  12.747   7.960   1.459
84086SOL    HW154155  12.685   7.987   1.527
84086SOL    HW254156  12.810   7.904   1.505
84087SOL     OW54157   3.949   8.198   8.525
84087SOL    HW154158   3.921   8.224   8.438
84087SOL    HW254159   4.045   8.204   8.522
84088SOL     OW54160   7.143   8.004  11.415
84088SOL    HW154161   7.166   7.969  11.329
84088SOL    HW254162   7.120   8.095  11.399
84089SOL     OW54163   5.815   8.449  14.070
84089SOL    HW154164   5.802   8.537  14.105
84089SOL    HW254165   5.910   8.437  14.069
84090SOL     OW54166   0.488  14.646   4.922
84090SOL    HW154167   0.456  14.600   4.844
84090SOL    HW254168   0.476  14.583   4.994
84091SOL     OW54169  11.630   5.050  12.506
84091SOL    HW154170  11.627   5.006  12.421
84091SOL    HW254171  11.542   5.084  12.520
84092SOL     OW54172  10.005  11.848   7.480
84092SOL    HW154173   9.924  11.890   7.453
84092SOL    HW254174  10.011  11.865   7.575
84093SOL     OW54175   3.260  10.321   9.254
84093SOL    HW154176   3.294  10.404   9.220
84093SOL    HW254177   3.339  10.271   9.277
84094SOL     OW54178  13.394  11.646   7.616
84094SOL    HW154179  13.344  11.694   7.550
84094SOL    HW254180  13.485  11.659   7.592
84095SOL     OW54181  14.255   5.946  10.075
84095SOL    HW154182  14.224   5.983  10.158
84095SOL    HW254183  14.194   5.874  10.057
84096SOL     OW54184   6.648   8.132   4.883
84096SOL    HW154185   6.662   8.115   4.790
84096SOL    HW254186   6.660   8.227   4.892
84097SOL     OW54187   5.156   4.170   4.216
84097SOL    HW154188   5.094   4.133   4.278
84097SOL    HW254189   5.118   4.253   4.189
84098SOL     OW54190   4.697   1.711  12.544
84098SOL    HW154191   4.606   1.734  12.523
84098SOL    HW254192   4.696   1.696  12.639
84099SOL     OW54193   6.532   6.698   2.532
84099SOL    HW154194   6.496   6.617   2.569
84099SOL    HW254195   6.538   6.757   2.607
84100SOL     OW54196  10.235  13.933   7.136
84100SOL    HW154197  10.301  13.869   7.162
84100SOL    HW254198  10.182  13.887   7.072
84101SOL     OW54199   4.011  10.038   8.571
84101SOL    HW154200   4.033  10.047   8.664
84101SOL    HW254201   3.969   9.953   8.564
84102SOL     OW54202   3.414   5.198  11.833
84102SOL    HW154203   3.506   5.218  11.815
84102SOL    HW254204   3.377   5.282  11.860
84103SOL     OW54205  12.481  12.315   9.212
84103SOL    HW154206  12.468  12.393   9.266
84103SOL    HW254207  12.575  12.300   9.213
84104SOL     OW54208   5.880   1.849   0.120
84104SOL    HW154209   5.819   1.779   0.141
84104SOL    HW254210   5.838   1.898   0.049
84105SOL     OW54211   6.115   5.082  10.025
84105SOL    HW154212   6.021   5.085  10.042
84105SOL    HW254213   6.146   5.170  10.043
84106SOL     OW54214  10.197   6.041   9.070
84106SOL    HW154215  10.119   6.090   9.094
84106SOL    HW254216  10.240   6.022   9.154
84107SOL     OW54217   6.546   7.502   9.039
84107SOL    HW154218   6.486   7.437   9.079
84107SOL    HW254219   6.536   7.488   8.945
84108SOL     OW54220   1.838  10.462   0.564
84108SOL    HW154221   1.821  10.556   0.566
84108SOL    HW254222   1.763  10.423   0.608
84109SOL     OW54223  10.530   0.272   1.957
84109SOL    HW154224  10.491   0.269   2.045
84109SOL    HW254225  10.596   0.340   1.962
84110SOL     OW54226   4.029   4.444  13.566
84110SOL    HW154227   4.010   4.497  13.488
84110SOL    HW254228   4.109   4.482  13.602
84111SOL     OW54229   1.949   8.405  11.616
84111SOL    HW154230   1.924   8.397  11.524
84111SOL    HW254231   2.015   8.337  11.629
84112SOL     OW54232   0.628   0.701  12.691
84112SOL    HW154233   0.623   0.703  12.787
84112SOL    HW254234   0.712   0.741  12.671
84113SOL     OW54235   2.312   1.565   1.523
84113SOL    HW154236   2.280   1.624   1.591
84113SOL    HW254237   2.269   1.596   1.443
84114SOL     OW54238   0.028   0.045  12.089
84114SOL    HW154239   0.036   0.112  12.021
84114SOL    HW254240  14.809   0.057  12.124
84115SOL     OW54241   7.569   6.918   7.864
84115SOL    HW154242   7.627   6.856   7.909
84115SOL    HW254243   7.628   6.986   7.832
84116SOL     OW54244  13.945   1.054   7.697
84116SOL    HW154245  13.943   1.072   7.603
84116SOL    HW254246  14.036   1.072   7.723
84117SOL     OW54247   3.394   0.779  13.925
84117SOL    HW154248   3.387   0.683  13.932
84117SOL    HW254249   3.317   0.804  13.874
84118SOL     OW54250  11.415   7.031  11.598
84118SOL    HW154251  11.449   7.108  11.551
84118SOL    HW254252  11.418   6.961  11.533
84119SOL     OW54253   8.890   1.180  11.197
84119SOL    HW154254   8.945   1.250  11.232
84119SOL    HW254255   8.809   1.224  11.171
84120SOL     OW54256   9.008   1.399   0.775
84120SOL    HW154257   9.066   1.371   0.846
84120SOL    HW254258   8.920   1.375   0.806
84121SOL     OW54259  13.815   1.596  10.234
84121SOL    HW154260  13.796   1.671  10.289
84121SOL    HW254261  13.736   1.541  10.239
84122SOL     OW54262   3.067   1.272  12.402
84122SOL    HW154263   3.080   1.366  12.394
84122SOL    HW254264   3.015   1.261  12.482
84123SOL     OW54265   8.008   9.514   6.043
84123SOL    HW154266   8.035   9.425   6.021
84123SOL    HW254267   7.935   9.502   6.103
84124SOL     OW54268   6.464  13.662   1.323
84124SOL    HW154269   6.491  13.629   1.238
84124SOL    HW254270   6.465  13.757   1.313
84125SOL     OW54271   7.418   0.374  10.010
84125SOL    HW154272   7.479   0.375   9.936
84125SOL    HW254273   7.433   0.290  10.053
84126SOL     OW54274   3.801   3.270   5.342
84126SOL    HW154275   3.847   3.327   5.403
84126SOL    HW254276   3.801   3.317   5.259
84127SOL     OW54277   2.533  11.483   5.116
84127SOL    HW154278   2.564  11.392   5.115
84127SOL    HW254279   2.455  11.481   5.171
84128SOL     OW54280   4.700  12.295   9.103
84128SOL    HW154281   4.642  12.347   9.047
84128SOL    HW254282   4.721  12.218   9.051
84129SOL     OW54283  10.906   3.285   4.735
84129SOL    HW154284  10.918   3.231   4.814
84129SOL    HW254285  10.883   3.371   4.768
84130SOL     OW54286   3.052  10.509   8.647
84130SOL    HW154287   3.058  10.459   8.565
84130SOL    HW254288   3.050  10.600   8.620
84131SOL     OW54289  14.149   9.916   6.759
84131SOL    HW154290  14.236   9.929   6.796
84131SOL    HW254291  14.105   9.858   6.822
84132SOL     OW54292  11.596   8.724   5.108
84132SOL    HW154293  11.662   8.682   5.164
84132SOL    HW254294  11.513   8.685   5.136
84133SOL     OW54295  10.553   9.684   9.262
84133SOL    HW154296  10.597   9.769   9.260
84133SOL    HW254297  10.612   9.628   9.313
84134SOL     OW54298   7.657  12.270   6.403
84134SOL    HW154299   7.593  12.242   6.337
84134SOL    HW254300   7.657  12.199   6.468
84135SOL     OW54301   5.580  12.587   7.784
84135SOL    HW154302   5.607  12.670   7.823
84135SOL    HW254303   5.570  12.607   7.690
84136SOL     OW54304  13.571  10.541  14.722
84136SOL    HW154305  13.651  10.593  14.734
84136SOL    HW254306  13.501  10.606  14.720
84137SOL     OW54307   6.366   0.048  10.767
84137SOL    HW154308   6.398  14.836  10.804
84137SOL    HW254309   6.427   0.115  10.798
84138SOL     OW54310   6.705   9.927  14.205
84138SOL    HW154311   6.732   9.844  14.165
84138SOL    HW254312   6.695   9.987  14.131
84139SOL     OW54313   2.822   8.200  12.115
84139SOL    HW154314   2.763   8.238  12.050
84139SOL    HW254315   2.906   8.245  12.101
84140SOL     OW54316   9.583  10.154   0.220
84140SOL    HW154317   9.604  10.100   0.144
84140SOL    HW254318   9.668  10.170   0.262
84141SOL     OW54319   3.438   5.913   6.084
84141SOL    HW154320   3.515   5.913   6.028
84141SOL    HW254321   3.413   5.821   6.091
84142SOL     OW54322  10.114   7.050  12.210
84142SOL    HW154323  10.157   7.134  12.228
84142SOL    HW254324  10.120   7.040  12.115
84143SOL     OW54325   1.440  14.302  11.160
84143SOL    HW154326   1.400  14.351  11.232
84143SOL    HW254327   1.510  14.250  11.202
84144SOL     OW54328   8.818   5.881   8.035
84144SOL    HW154329   8.747   5.853   8.092
84144SOL    HW254330   8.894   5.830   8.064
84145SOL     OW54331   6.852   7.886   9.580
84145SOL    HW154332   6.858   7.916   9.670
84145SOL    HW254333   6.796   7.950   9.537
84146SOL     OW54334  13.824  14.659   1.258
84146SOL    HW154335  13.875  14.607   1.320
84146SOL    HW254336  13.795  14.735   1.308
84147SOL     OW54337   4.881   7.364  14.553
84147SOL    HW154338   4.919   7.299  14.493
84147SOL    HW254339   4.944   7.369  14.625
84148SOL     OW54340   4.344   7.148   1.848
84148SOL    HW154341   4.368   7.168   1.757
84148SOL    HW254342   4.421   7.107   1.885
84149SOL     OW54343   2.837   0.972   4.095
84149SOL    HW154344   2.829   0.976   4.191
84149SOL    HW254345   2.899   1.043   4.074
84150SOL     OW54346   7.512   8.775  13.361
84150SOL    HW154347   7.532   8.748  13.450
84150SOL    HW254348   7.596   8.771  13.315
84151SOL     OW54349  10.592   8.122  13.759
84151SOL    HW154350  10.547   8.038  13.758
84151SOL    HW254351  10.683   8.100  13.779
84152SOL     OW54352   5.215  14.637   8.164
84152SOL    HW154353   5.307  14.643   8.139
84152SOL    HW254354   5.167  14.636   8.081
84153SOL     OW54355  11.322   7.703   2.747
84153SOL    HW154356  11.395   7.720   2.688
84153SOL    HW254357  11.363   7.686   2.832
84154SOL     OW54358   7.972   5.863  10.786
84154SOL    HW154359   8.013   5.778  10.772
84154SOL    HW254360   8.006   5.918  10.715
84155SOL     OW54361  10.312  12.588  14.187
84155SOL    HW154362  10.310  12.541  14.270
84155SOL    HW254363  10.354  12.527  14.126
84156SOL     OW54364   4.732   6.391   1.750
84156SOL    HW154365   4.672   6.422   1.683
84156SOL    HW254366   4.684   6.401   1.832
84157SOL     OW54367   0.294  13.249   5.937
84157SOL    HW154368   0.282  13.270   6.029
84157SOL    HW254369   0.388  13.261   5.921
84158SOL     OW54370   2.687  11.028  12.844
84158SOL    HW154371   2.642  11.097  12.794
84158SOL    HW254372   2.635  10.949  12.827
84159SOL     OW54373   5.875  14.369  11.881
84159SOL    HW154374   5.911  14.359  11.970
84159SOL    HW254375   5.871  14.279  11.848
84160SOL     OW54376  11.278   8.870   2.512
84160SOL    HW154377  11.328   8.821   2.447
84160SOL    HW254378  11.187   8.851   2.491
84161SOL     OW54379  14.154   1.892  13.919
84161SOL    HW154380  14.187   1.977  13.890
84161SOL    HW254381  14.092   1.914  13.989
84162SOL     OW54382  10.911   1.686   1.053
84162SOL    HW154383  11.005   1.691   1.071
84162SOL    HW254384  10.878   1.623   1.117
84163SOL     OW54385  11.999   4.850  10.391
84163SOL    HW154386  11.918   4.897  10.408
84163SOL    HW254387  11.994   4.772  10.446
84164SOL     OW54388   2.223  10.385  12.554
84164SOL    HW154389   2.245  10.473  12.586
84164SOL    HW254390   2.161  10.352  12.619
84165SOL     OW54391   2.317   0.401   7.885
84165SOL    HW154392   2.350   0.491   7.887
84165SOL    HW254393   2.226   0.409   7.858
84166SOL     OW54394   7.272   1.540   7.698
84166SOL    HW154395   7.313   1.557   7.783
84166SOL    HW254396   7.260   1.627   7.660
84167SOL     OW54397   5.468  12.291   7.509
84167SOL    HW154398   5.472  12.297   7.414
84167SOL    HW254399   5.550  12.332   7.539
84168SOL     OW54400   2.021  14.353   7.074
84168SOL    HW154401   1.971  14.364   6.993
84168SOL    HW254402   2.022  14.441   7.113
84169SOL     OW54403  10.859  12.238   0.324
84169SOL    HW154404  10.927  12.186   0.281
84169SOL    HW254405  10.796  12.258   0.255
84170SOL     OW54406   2.654  10.053   9.182
84170SOL    HW154407   2.613   9.981   9.230
84170SOL    HW254408   2.736  10.070   9.230
84171SOL     OW54409  12.765   4.042   8.031
84171SOL    HW154410  12.739   3.958   8.070
84171SOL    HW254411  12.691   4.064   7.973
84172SOL     OW54412   5.405   6.482   2.618
84172SOL    HW154413   5.351   6.410   2.650
84172SOL    HW254414   5.342   6.547   2.587
84173SOL     OW54415   5.174  10.296   6.626
84173SOL    HW154416   5.217  10.356   6.565
84173SOL    HW254417   5.151  10.350   6.701
84174SOL     OW54418  13.570  11.387   2.994
84174SOL    HW154419  13.663  11.367   3.008
84174SOL    HW254420  13.525  11.303   3.007
84175SOL     OW54421   2.116   5.581  11.783
84175SOL    HW154422   2.024   5.607  11.779
84175SOL    HW254423   2.164   5.657  11.749
84176SOL     OW54424  13.114  14.305   7.586
84176SOL    HW154425  13.109  14.393   7.624
84176SOL    HW254426  13.204  14.297   7.555
84177SOL     OW54427  14.032   9.790  14.440
84177SOL    HW154428  14.052   9.881  14.420
84177SOL    HW254429  13.979   9.761  14.366
84178SOL     OW54430   0.210  10.175  12.565
84178SOL    HW154431   0.245  10.239  12.627
84178SOL    HW254432   0.249  10.200  12.481
84179SOL     OW54433  12.385   1.603   4.398
84179SOL    HW154434  12.333   1.664   4.451
84179SOL    HW254435  12.443   1.659   4.346
84180SOL     OW54436  10.907   7.322   1.600
84180SOL    HW154437  10.967   7.330   1.674
84180SOL    HW254438  10.963   7.325   1.523
84181SOL     OW54439  10.850  14.170   3.636
84181SOL    HW154440  10.935  14.205   3.660
84181SOL    HW254441  10.857  14.076   3.656
84182SOL     OW54442   5.585  12.239  10.939
84182SOL    HW154443   5.549  12.322  10.909
84182SOL    HW254444   5.644  12.212  10.869
84183SOL     OW54445  13.644   5.760  14.320
84183SOL    HW154446  13.619   5.845  14.357
84183SOL    HW254447  13.611   5.696  14.383
84184SOL     OW54448   9.584   9.402   3.285
84184SOL    HW154449   9.569   9.317   3.326
84184SOL    HW254450   9.505   9.453   3.304
84185SOL     OW54451   4.637   4.842   4.723
84185SOL    HW154452   4.627   4.747   4.734
84185SOL    HW254453   4.547   4.875   4.719
84186SOL     OW54454   1.045   2.692   5.396
84186SOL    HW154455   1.113   2.634   5.428
84186SOL    HW254456   0.986   2.703   5.471
84187SOL     OW54457   1.881  14.292   0.184
84187SOL    HW154458   1.805  14.281   0.241
84187SOL    HW254459   1.850  14.259   0.099
84188SOL     OW54460  10.604   9.863   7.510
84188SOL    HW154461  10.634   9.772   7.506
84188SOL    HW254462  10.645   9.905   7.435
84189SOL     OW54463   8.090   8.992   3.416
84189SOL    HW154464   8.097   8.968   3.508
84189SOL    HW254465   8.001   9.027   3.407
84190SOL     OW54466  10.969  11.031   9.498
84190SOL    HW154467  10.922  11.114   9.505
84190SOL    HW254468  11.022  11.026   9.577
84191SOL     OW54469   2.908   3.653   2.507
84191SOL    HW154470   2.994   3.688   2.530
84191SOL    HW254471   2.889   3.589   2.575
84192SOL     OW54472   5.210  10.835   4.526
84192SOL    HW154473   5.199  10.848   4.432
84192SOL    HW254474   5.130  10.869   4.565
84193SOL     OW54475   5.427   8.519   6.350
84193SOL    HW154476   5.496   8.562   6.298
84193SOL    HW254477   5.346   8.546   6.308
84194SOL     OW54478   6.157   6.555   4.288
84194SOL    HW154479   6.155   6.555   4.384
84194SOL    HW254480   6.119   6.640   4.264
84195SOL     OW54481  10.508   0.678   1.016
84195SOL    HW154482  10.530   0.609   0.953
84195SOL    HW254483  10.426   0.715   0.983
84196SOL     OW54484  14.764   1.727  13.660
84196SOL    HW154485  14.777   1.812  13.702
84196SOL    HW254486  14.813   1.666  13.715
84197SOL     OW54487   6.838  11.376   1.740
84197SOL    HW154488   6.771  11.444   1.735
84197SOL    HW254489   6.826  11.336   1.826
84198SOL     OW54490   9.995  12.297   3.453
84198SOL    HW154491   9.952  12.378   3.481
84198SOL    HW254492  10.041  12.321   3.373
84199SOL     OW54493   6.443   4.000   8.725
84199SOL    HW154494   6.530   3.995   8.763
84199SOL    HW254495   6.402   4.075   8.770
84200SOL     OW54496   3.463   4.572  13.653
84200SOL    HW154497   3.534   4.628  13.624
84200SOL    HW254498   3.389   4.595  13.597
84201SOL     OW54499   5.937  11.892  12.298
84201SOL    HW154500   5.884  11.953  12.246
84201SOL    HW254501   5.880  11.816  12.311
84202SOL     OW54502   8.757  12.467   2.554
84202SOL    HW154503   8.844  12.496   2.527
84202SOL    HW254504   8.717  12.545   2.592
84203SOL     OW54505   9.655  11.567   0.881
84203SOL    HW154506   9.745  11.601   0.883
84203SOL    HW254507   9.658  11.492   0.822
84204SOL     OW54508   5.807  13.144  10.960
84204SOL    HW154509   5.736  13.123  11.021
84204SOL    HW254510   5.838  13.059  10.929
84205SOL     OW54511   7.673   8.944   6.528
84205SOL    HW154512   7.625   8.918   6.607
84205SOL    HW254513   7.719   8.864   6.501
84206SOL     OW54514   8.859   9.904   4.261
84206SOL    HW154515   8.766   9.927   4.266
84206SOL    HW254516   8.904   9.988   4.254
84207SOL     OW54517   9.638   2.723   5.753
84207SOL    HW154518   9.672   2.755   5.837
84207SOL    HW254519   9.583   2.795   5.721
84208SOL     OW54520  11.323  13.636   0.180
84208SOL    HW154521  11.371  13.707   0.222
84208SOL    HW254522  11.383  13.561   0.184
84209SOL     OW54523  12.751  12.230   5.530
84209SOL    HW154524  12.828  12.177   5.551
84209SOL    HW254525  12.681  12.165   5.517
84210SOL     OW54526   4.672   3.971   9.519
84210SOL    HW154527   4.609   3.908   9.484
84210SOL    HW254528   4.726   3.919   9.579
84211SOL     OW54529   5.232   4.952   6.702
84211SOL    HW154530   5.283   4.982   6.627
84211SOL    HW254531   5.144   4.985   6.685
84212SOL     OW54532   7.836   3.721   2.836
84212SOL    HW154533   7.888   3.658   2.885
84212SOL    HW254534   7.798   3.778   2.902
84213SOL     OW54535  12.699   9.185  13.403
84213SOL    HW154536  12.756   9.122  13.447
84213SOL    HW254537  12.759   9.251  13.368
84214SOL     OW54538   1.220  12.875   5.663
84214SOL    HW154539   1.149  12.839   5.716
84214SOL    HW254540   1.263  12.939   5.720
84215SOL     OW54541   5.452  12.477  12.844
84215SOL    HW154542   5.476  12.394  12.802
84215SOL    HW254543   5.510  12.483  12.919
84216SOL     OW54544   5.364   8.977   8.877
84216SOL    HW154545   5.423   8.911   8.913
84216SOL    HW254546   5.311   8.930   8.813
84217SOL     OW54547  14.599   7.899  11.183
84217SOL    HW154548  14.596   7.857  11.270
84217SOL    HW254549  14.654   7.840  11.131
84218SOL     OW54550   0.920   6.646  12.064
84218SOL    HW154551   0.939   6.553  12.072
84218SOL    HW254552   0.825   6.652  12.072
84219SOL     OW54553  11.351   7.194   2.357
84219SOL    HW154554  11.352   7.280   2.397
84219SOL    HW254555  11.354   7.133   2.431
84220SOL     OW54556   0.726   2.344   1.552
84220SOL    HW154557   0.796   2.331   1.616
84220SOL    HW254558   0.771   2.360   1.469
84221SOL     OW54559   0.905   2.995   5.927
84221SOL    HW154560   0.905   3.088   5.950
84221SOL    HW254561   0.818   2.979   5.892
84222SOL     OW54562   6.568  14.845  13.344
84222SOL    HW154563   6.545   0.013  13.429
84222SOL    HW254564   6.645   0.025  13.316
84223SOL     OW54565   1.308   5.980   6.780
84223SOL    HW154566   1.235   5.941   6.829
84223SOL    HW254567   1.333   5.912   6.717
84224SOL     OW54568   9.342   9.686   6.145
84224SOL    HW154569   9.427   9.644   6.161
84224SOL    HW254570   9.314   9.716   6.232
84225SOL     OW54571   0.604   3.841   9.314
84225SOL    HW154572   0.649   3.856   9.397
84225SOL    HW254573   0.674   3.845   9.248
84226SOL     OW54574   8.909   5.078   3.209
84226SOL    HW154575   8.814   5.086   3.217
84226SOL    HW254576   8.939   5.167   3.192
84227SOL     OW54577  12.561   7.069  11.866
84227SOL    HW154578  12.539   7.071  11.959
84227SOL    HW254579  12.588   7.159  11.847
84228SOL     OW54580   4.830   4.174   1.159
84228SOL    HW154581   4.801   4.247   1.215
84228SOL    HW254582   4.816   4.205   1.070
84229SOL     OW54583  14.303  10.735   0.939
84229SOL    HW154584  14.238  10.716   1.008
84229SOL    HW254585  14.353  10.808   0.974
84230SOL     OW54586  12.207  10.158   0.831
84230SOL    HW154587  12.114  10.180   0.837
84230SOL    HW254588  12.219  10.086   0.893
84231SOL     OW54589  11.939   1.438  12.715
84231SOL    HW154590  12.021   1.396  12.741
84231SOL    HW254591  11.883   1.365  12.687
84232SOL     OW54592   9.055   9.591   3.201
84232SOL    HW154593   8.988   9.573   3.267
84232SOL    HW254594   9.084   9.680   3.221
84233SOL     OW54595   6.568   5.386   3.184
84233SOL    HW154596   6.523   5.448   3.242
84233SOL    HW254597   6.659   5.414   3.186
84234SOL     OW54598   2.315  11.697   8.541
84234SOL    HW154599   2.407  11.676   8.551
84234SOL    HW254600   2.306  11.722   8.449
84235SOL     OW54601   9.652   2.387   1.155
84235SOL    HW154602   9.643   2.482   1.164
84235SOL    HW254603   9.743   2.369   1.181
84236SOL     OW54604   9.133  13.256  10.224
84236SOL    HW154605   9.079  13.324  10.184
84236SOL    HW254606   9.153  13.196  10.153
84237SOL     OW54607   5.095   9.675   2.729
84237SOL    HW154608   5.153   9.606   2.763
84237SOL    HW254609   5.024   9.679   2.793
84238SOL     OW54610   9.194   8.763   7.999
84238SOL    HW154611   9.186   8.752   8.094
84238SOL    HW254612   9.202   8.857   7.986
84239SOL     OW54613   0.248   0.085   3.584
84239SOL    HW154614   0.246   0.044   3.497
84239SOL    HW254615   0.217   0.016   3.643
84240SOL     OW54616  14.335  13.020   5.821
84240SOL    HW154617  14.262  12.959   5.808
84240SOL    HW254618  14.401  12.968   5.866
84241SOL     OW54619  10.863   6.256   5.998
84241SOL    HW154620  10.932   6.218   5.944
84241SOL    HW254621  10.894   6.344   6.018
84242SOL     OW54622   3.292   4.945   3.216
84242SOL    HW154623   3.261   4.880   3.280
84242SOL    HW254624   3.385   4.955   3.236
84243SOL     OW54625  12.231   4.300   4.897
84243SOL    HW154626  12.197   4.373   4.949
84243SOL    HW254627  12.319   4.285   4.933
84244SOL     OW54628   9.615  12.084  12.836
84244SOL    HW154629   9.565  12.154  12.794
84244SOL    HW254630   9.611  12.104  12.929
84245SOL     OW54631   4.819  10.470   9.820
84245SOL    HW154632   4.780  10.556   9.806
84245SOL    HW254633   4.888  10.464   9.754
84246SOL     OW54634   4.162   6.310   6.699
84246SOL    HW154635   4.253   6.319   6.671
84246SOL    HW254636   4.157   6.224   6.740
84247SOL     OW54637   1.861   3.888   7.144
84247SOL    HW154638   1.931   3.860   7.084
84247SOL    HW254639   1.860   3.983   7.137
84248SOL     OW54640   0.673  10.204   1.450
84248SOL    HW154641   0.608  10.233   1.386
84248SOL    HW254642   0.740  10.159   1.399
84249SOL     OW54643   3.423  12.583   9.408
84249SOL    HW154644   3.383  12.589   9.322
84249SOL    HW254645   3.513  12.614   9.395
84250SOL     OW54646  10.843   9.446   6.350
84250SOL    HW154647  10.849   9.472   6.442
84250SOL    HW254648  10.795   9.518   6.308
84251SOL     OW54649   0.612   6.948   5.266
84251SOL    HW154650   0.646   6.875   5.317
84251SOL    HW254651   0.575   6.907   5.187
84252SOL     OW54652   1.105  11.184   1.929
84252SOL    HW154653   1.097  11.277   1.950
84252SOL    HW254654   1.062  11.139   2.001
84253SOL     OW54655  10.628   0.512   1.641
84253SOL    HW154656  10.611   0.578   1.573
84253SOL    HW254657  10.718   0.484   1.625
84254SOL     OW54658  11.872  13.006  13.088
84254SOL    HW154659  11.855  13.007  12.994
84254SOL    HW254660  11.922  12.926  13.103
84255SOL     OW54661   6.258   9.471   4.490
84255SOL    HW154662   6.191   9.524   4.446
84255SOL    HW254663   6.221   9.383   4.490
84256SOL     OW54664   7.201   9.276  10.502
84256SOL    HW154665   7.227   9.230  10.422
84256SOL    HW254666   7.147   9.212  10.549
84257SOL     OW54667   8.468   4.333   3.824
84257SOL    HW154668   8.395   4.295   3.873
84257SOL    HW254669   8.446   4.426   3.817
84258SOL     OW54670  10.618   6.057  12.222
84258SOL    HW154671  10.561   6.032  12.149
84258SOL    HW254672  10.675   6.124  12.186
84259SOL     OW54673   4.517   7.951   6.911
84259SOL    HW154674   4.611   7.942   6.931
84259SOL    HW254675   4.483   8.001   6.986
84260SOL     OW54676  11.355  10.982   1.848
84260SOL    HW154677  11.394  10.932   1.776
84260SOL    HW254678  11.418  11.052   1.865
84261SOL     OW54679  12.020   1.350   4.204
84261SOL    HW154680  11.991   1.322   4.117
84261SOL    HW254681  12.113   1.371   4.193
84262SOL     OW54682  13.118   4.292   2.782
84262SOL    HW154683  13.179   4.223   2.809
84262SOL    HW254684  13.133   4.363   2.843
84263SOL     OW54685  14.032   7.947  10.987
84263SOL    HW154686  14.098   7.894  10.943
84263SOL    HW254687  14.000   7.892  11.059
84264SOL     OW54688   2.397   2.498   3.963
84264SOL    HW154689   2.410   2.589   3.991
84264SOL    HW254690   2.442   2.446   4.030
84265SOL     OW54691   9.576   0.561   2.776
84265SOL    HW154692   9.585   0.627   2.707
84265SOL    HW254693   9.519   0.495   2.737
84266SOL     OW54694   8.763  13.374   3.419
84266SOL    HW154695   8.822  13.333   3.356
84266SOL    HW254696   8.818  13.392   3.495
84267SOL     OW54697   5.569   4.011   3.925
84267SOL    HW154698   5.555   4.064   3.846
84267SOL    HW254699   5.504   3.941   3.919
84268SOL     OW54700  12.946   9.102  14.732
84268SOL    HW154701  13.012   9.036  14.710
84268SOL    HW254702  12.997   9.176  14.766
84269SOL     OW54703   7.121   1.827  11.699
84269SOL    HW154704   7.051   1.846  11.762
84269SOL    HW254705   7.168   1.910  11.690
84270SOL     OW54706  14.521  10.759   9.797
84270SOL    HW154707  14.576  10.793   9.867
84270SOL    HW254708  14.449  10.822   9.790
84271SOL     OW54709   1.954   5.195  11.310
84271SOL    HW154710   1.964   5.166  11.220
84271SOL    HW254711   2.001   5.131  11.362
84272SOL     OW54712  14.148   9.334   4.896
84272SOL    HW154713  14.178   9.321   4.986
84272SOL    HW254714  14.149   9.429   4.883
84273SOL     OW54715   4.944   3.368  14.214
84273SOL    HW154716   5.030   3.334  14.188
84273SOL    HW254717   4.897   3.383  14.131
84274SOL     OW54718  14.697   6.356   8.654
84274SOL    HW154719  14.697   6.264   8.630
84274SOL    HW254720  14.644   6.361   8.733
84275SOL     OW54721   3.778   5.744   5.979
84275SOL    HW154722   3.768   5.725   6.073
84275SOL    HW254723   3.789   5.839   5.975
84276SOL     OW54724   7.086   5.584   2.323
84276SOL    HW154725   7.022   5.653   2.308
84276SOL    HW254726   7.169   5.630   2.337
84277SOL     OW54727   2.835  14.756   6.953
84277SOL    HW154728   2.837  14.838   6.903
84277SOL    HW254729   2.805  14.782   7.041
84278SOL     OW54730   1.037   9.554   0.196
84278SOL    HW154731   1.093   9.566   0.272
84278SOL    HW254732   1.084   9.493   0.140
84279SOL     OW54733   6.513   4.872  10.455
84279SOL    HW154734   6.498   4.797  10.396
84279SOL    HW254735   6.487   4.948  10.404
84280SOL     OW54736  11.052   6.072   8.927
84280SOL    HW154737  11.054   5.986   8.968
84280SOL    HW254738  10.965   6.079   8.889
84281SOL     OW54739   3.585   0.887   9.906
84281SOL    HW154740   3.518   0.880   9.974
84281SOL    HW254741   3.575   0.976   9.871
84282SOL     OW54742  11.729   6.589   8.811
84282SOL    HW154743  11.693   6.534   8.741
84282SOL    HW254744  11.823   6.592   8.792
84283SOL     OW54745   2.165   7.011  10.016
84283SOL    HW154746   2.088   7.063  10.039
84283SOL    HW254747   2.133   6.949   9.951
84284SOL     OW54748  14.452   2.523  13.651
84284SOL    HW154749  14.476   2.551  13.739
84284SOL    HW254750  14.531   2.536  13.599
84285SOL     OW54751   7.085   5.563   7.969
84285SOL    HW154752   7.129   5.493   7.921
84285SOL    HW254753   7.009   5.584   7.916
84286SOL     OW54754   7.327   0.200  14.594
84286SOL    HW154755   7.383   0.132  14.556
84286SOL    HW254756   7.253   0.152  14.631
84287SOL     OW54757   0.451   7.480   0.638
84287SOL    HW154758   0.463   7.566   0.678
84287SOL    HW254759   0.486   7.418   0.703
84288SOL     OW54760  13.297  13.052   9.365
84288SOL    HW154761  13.304  13.108   9.443
84288SOL    HW254762  13.339  13.103   9.296
84289SOL     OW54763  11.735  13.438   3.070
84289SOL    HW154764  11.669  13.396   3.015
84289SOL    HW254765  11.690  13.511   3.112
84290SOL     OW54766   6.668   8.339   2.668
84290SOL    HW154767   6.668   8.345   2.764
84290SOL    HW254768   6.597   8.398   2.641
84291SOL     OW54769  13.100  11.657   4.694
84291SOL    HW154770  13.034  11.662   4.764
84291SOL    HW254771  13.114  11.748   4.668
84292SOL     OW54772   0.402   1.637  10.743
84292SOL    HW154773   0.490   1.613  10.714
84292SOL    HW254774   0.404   1.733  10.748
84293SOL     OW54775  14.171   4.033   9.870
84293SOL    HW154776  14.115   4.032   9.792
84293SOL    HW254777  14.111   4.053   9.942
84294SOL     OW54778   8.490   8.978   3.784
84294SOL    HW154779   8.484   9.009   3.874
84294SOL    HW254780   8.471   9.055   3.731
84295SOL     OW54781   2.311   8.274   4.639
84295SOL    HW154782   2.354   8.343   4.688
84295SOL    HW254783   2.249   8.235   4.701
84296SOL     OW54784  12.994  12.747   0.299
84296SOL    HW154785  13.003  12.654   0.320
84296SOL    HW254786  12.946  12.784   0.374
84297SOL     OW54787   4.614   3.453   9.276
84297SOL    HW154788   4.559   3.493   9.343
84297SOL    HW254789   4.558   3.389   9.232
84298SOL     OW54790   4.123   6.497   8.633
84298SOL    HW154791   4.080   6.472   8.551
84298SOL    HW254792   4.052   6.494   8.698
84299SOL     OW54793   8.453   1.819   9.210
84299SOL    HW154794   8.536   1.788   9.247
84299SOL    HW254795   8.387   1.788   9.272
84300SOL     OW54796  12.096   9.570   7.675
84300SOL    HW154797  12.124   9.537   7.589
84300SOL    HW254798  12.178   9.596   7.718
84301SOL     OW54799  13.720   0.114   6.507
84301SOL    HW154800  13.741   0.057   6.433
84301SOL    HW254801  13.803   0.159   6.526
84302SOL     OW54802   6.653   6.129   4.707
84302SOL    HW154803   6.625   6.144   4.617
84302SOL    HW254804   6.573   6.103   4.753
84303SOL     OW54805   4.423   8.807   2.104
84303SOL    HW154806   4.344   8.857   2.084
84303SOL    HW254807   4.397   8.751   2.178
84304SOL     OW54808   2.167   2.251   9.957
84304SOL    HW154809   2.183   2.193  10.032
84304SOL    HW254810   2.093   2.306   9.985
84305SOL     OW54811   8.474   8.057   1.417
84305SOL    HW154812   8.473   7.975   1.468
84305SOL    HW254813   8.421   8.038   1.340
84306SOL     OW54814  10.903   2.613   9.568
84306SOL    HW154815  10.836   2.647   9.509
84306SOL    HW254816  10.986   2.632   9.525
84307SOL     OW54817  11.737  12.241   1.094
84307SOL    HW154818  11.649  12.277   1.087
84307SOL    HW254819  11.793  12.316   1.116
84308SOL     OW54820   4.719  12.937   7.908
84308SOL    HW154821   4.679  12.975   7.830
84308SOL    HW254822   4.680  12.850   7.915
84309SOL     OW54823  10.201   1.736   7.631
84309SOL    HW154824  10.262   1.685   7.578
84309SOL    HW254825  10.243   1.821   7.641
84310SOL     OW54826  13.108  13.280   2.250
84310SOL    HW154827  13.062  13.286   2.167
84310SOL    HW254828  13.196  13.250   2.227
84311SOL     OW54829   1.271  12.953   2.423
84311SOL    HW154830   1.347  12.995   2.463
84311SOL    HW254831   1.240  13.016   2.358
84312SOL     OW54832  10.162   4.232   6.757
84312SOL    HW154833  10.105   4.202   6.686
84312SOL    HW254834  10.145   4.172   6.829
84313SOL     OW54835   0.129  14.174   4.541
84313SOL    HW154836   0.037  14.191   4.521
84313SOL    HW254837   0.177  14.223   4.475
84314SOL     OW54838  13.369   7.459   8.976
84314SOL    HW154839  13.311   7.397   9.020
84314SOL    HW254840  13.353   7.444   8.882
84315SOL     OW54841   2.243   1.499   0.254
84315SOL    HW154842   2.286   1.492   0.169
84315SOL    HW254843   2.160   1.543   0.236
84316SOL     OW54844   2.940   0.603   2.392
84316SOL    HW154845   3.027   0.603   2.351
84316SOL    HW254846   2.917   0.511   2.398
84317SOL     OW54847  11.557  11.907   8.051
84317SOL    HW154848  11.592  11.827   8.012
84317SOL    HW254849  11.595  11.911   8.138
84318SOL     OW54850   1.610   1.629  11.505
84318SOL    HW154851   1.666   1.568  11.553
84318SOL    HW254852   1.598   1.588  11.419
84319SOL     OW54853  13.832   7.950  13.125
84319SOL    HW154854  13.746   7.991  13.133
84319SOL    HW254855  13.820   7.881  13.059
84320SOL     OW54856  14.218   9.204   8.810
84320SOL    HW154857  14.250   9.286   8.846
84320SOL    HW254858  14.126   9.222   8.789
84321SOL     OW54859  14.210   5.339   3.789
84321SOL    HW154860  14.252   5.419   3.820
84321SOL    HW254861  14.134   5.328   3.846
84322SOL     OW54862   1.134  12.221  11.002
84322SOL    HW154863   1.091  12.273  11.071
84322SOL    HW254864   1.227  12.225  11.025
84323SOL     OW54865  14.093   2.135   6.638
84323SOL    HW154866  14.185   2.159   6.651
84323SOL    HW254867  14.082   2.056   6.692
84324SOL     OW54868   8.253  13.226   8.087
84324SOL    HW154869   8.284  13.247   7.999
84324SOL    HW254870   8.212  13.307   8.118
84325SOL     OW54871   7.574   5.715  12.396
84325SOL    HW154872   7.588   5.807  12.417
84325SOL    HW254873   7.599   5.668  12.476
84326SOL     OW54874   7.616   7.314   6.795
84326SOL    HW154875   7.537   7.363   6.818
84326SOL    HW254876   7.584   7.232   6.759
84327SOL     OW54877   8.690  12.682  13.557
84327SOL    HW154878   8.718  12.744  13.623
84327SOL    HW254879   8.734  12.711  13.476
84328SOL     OW54880  14.076   1.033  14.284
84328SOL    HW154881  14.040   0.973  14.349
84328SOL    HW254882  14.102   0.977  14.211
84329SOL     OW54883   5.921  14.020   7.200
84329SOL    HW154884   5.941  13.927   7.201
84329SOL    HW254885   5.978  14.058   7.267
84330SOL     OW54886   1.395  14.842   0.960
84330SOL    HW154887   1.430  14.816   1.045
84330SOL    HW254888   1.358   0.060   0.974
84331SOL     OW54889  11.095  14.676  11.752
84331SOL    HW154890  11.172  14.705  11.704
84331SOL    HW254891  11.128  14.612  11.814
84332SOL     OW54892  14.411   9.357  14.548
84332SOL    HW154893  14.408   9.269  14.586
84332SOL    HW254894  14.434   9.415  14.621
84333SOL     OW54895   2.899   2.072   0.213
84333SOL    HW154896   2.821   2.045   0.164
84333SOL    HW254897   2.885   2.165   0.232
84334SOL     OW54898   7.765   7.181   2.308
84334SOL    HW154899   7.801   7.261   2.271
84334SOL    HW254900   7.687   7.162   2.255
84335SOL     OW54901   1.257   6.952   6.672
84335SOL    HW154902   1.334   6.903   6.645
84335SOL    HW254903   1.188   6.923   6.612
84336SOL     OW54904  12.371   6.564   9.478
84336SOL    HW154905  12.299   6.513   9.441
84336SOL    HW254906  12.341   6.589   9.565
84337SOL     OW54907   2.180   0.914  13.070
84337SOL    HW154908   2.095   0.940  13.105
84337SOL    HW254909   2.160   0.847  13.004
84338SOL     OW54910   3.055  13.971   8.601
84338SOL    HW154911   2.968  13.996   8.632
84338SOL    HW254912   3.039  13.910   8.529
84339SOL     OW54913   1.349   3.199   5.210
84339SOL    HW154914   1.395   3.116   5.213
84339SOL    HW254915   1.379   3.240   5.128
84340SOL     OW54916  11.301   5.247   4.522
84340SOL    HW154917  11.287   5.193   4.600
84340SOL    HW254918  11.379   5.208   4.480
84341SOL     OW54919  11.997   7.197  10.653
84341SOL    HW154920  11.927   7.192  10.589
84341SOL    HW254921  11.956   7.236  10.731
84342SOL     OW54922  12.040  11.823   1.362
84342SOL    HW154923  12.059  11.738   1.402
84342SOL    HW254924  11.945  11.832   1.369
84343SOL     OW54925   9.602   4.600   2.160
84343SOL    HW154926   9.648   4.583   2.243
84343SOL    HW254927   9.615   4.693   2.144
84344SOL     OW54928   7.931  12.686   4.078
84344SOL    HW154929   7.956  12.599   4.108
84344SOL    HW254930   7.841  12.676   4.047
84345SOL     OW54931  13.676  10.478  11.709
84345SOL    HW154932  13.767  10.507  11.723
84345SOL    HW254933  13.629  10.513  11.785
84346SOL     OW54934   7.710   9.343  14.011
84346SOL    HW154935   7.717   9.248  14.021
84346SOL    HW254936   7.788   9.378  14.055
84347SOL     OW54937   2.360  13.292  14.405
84347SOL    HW154938   2.412  13.335  14.473
84347SOL    HW254939   2.400  13.321  14.323
84348SOL     OW54940  13.860   7.713  12.501
84348SOL    HW154941  13.812   7.744  12.578
84348SOL    HW254942  13.799   7.725  12.428
84349SOL     OW54943  11.436   1.081   4.306
84349SOL    HW154944  11.380   1.158   4.312
84349SOL    HW254945  11.490   1.096   4.228
84350SOL     OW54946   8.063   2.943  12.662
84350SOL    HW154947   8.016   2.910  12.738
84350SOL    HW254948   8.129   2.876  12.645
84351SOL     OW54949   8.510  11.597   3.889
84351SOL    HW154950   8.554  11.520   3.852
84351SOL    HW254951   8.526  11.591   3.983
84352SOL     OW54952  11.827   5.117  13.217
84352SOL    HW154953  11.894   5.136  13.152
84352SOL    HW254954  11.874   5.112  13.300
84353SOL     OW54955   7.529   9.389   5.248
84353SOL    HW154956   7.531   9.384   5.344
84353SOL    HW254957   7.436   9.383   5.225
84354SOL     OW54958   1.004  10.795  13.458
84354SOL    HW154959   1.013  10.801  13.553
84354SOL    HW254960   0.941  10.864  13.436
84355SOL     OW54961  14.320   7.657   8.866
84355SOL    HW154962  14.409   7.690   8.877
84355SOL    HW254963  14.281   7.715   8.800
84356SOL     OW54964  10.667   6.768   0.413
84356SOL    HW154965  10.644   6.861   0.407
84356SOL    HW254966  10.689   6.755   0.505
84357SOL     OW54967   6.704  13.662  13.588
84357SOL    HW154968   6.729  13.721  13.517
84357SOL    HW254969   6.661  13.589  13.544
84358SOL     OW54970   1.694   0.822   1.517
84358SOL    HW154971   1.614   0.841   1.469
84358SOL    HW254972   1.708   0.898   1.573
84359SOL     OW54973  13.746   6.524  14.255
84359SOL    HW154974  13.728   6.479  14.337
84359SOL    HW254975  13.769   6.613  14.280
84360SOL     OW54976   5.647   6.683   4.273
84360SOL    HW154977   5.696   6.611   4.312
84360SOL    HW254978   5.700   6.760   4.288
84361SOL     OW54979  13.479  14.189  11.752
84361SOL    HW154980  13.450  14.249  11.683
84361SOL    HW254981  13.535  14.126  11.708
84362SOL     OW54982   7.000   8.508   9.214
84362SOL    HW154983   7.000   8.597   9.178
84362SOL    HW254984   6.911   8.477   9.198
84363SOL     OW54985   8.072   4.721  13.384
84363SOL    HW154986   8.146   4.738  13.325
84363SOL    HW254987   8.067   4.799  13.439
84364SOL     OW54988   9.148   3.793   3.546
84364SOL    HW154989   9.148   3.704   3.582
84364SOL    HW254990   9.172   3.849   3.620
84365SOL     OW54991   6.250  11.427   6.130
84365SOL    HW154992   6.323  11.409   6.072
84365SOL    HW254993   6.264  11.518   6.158
84366SOL     OW54994  12.754  14.349   9.777
84366SOL    HW154995  12.813  14.299   9.833
84366SOL    HW254996  12.712  14.284   9.721
84367SOL     OW54997  14.645   8.572  13.410
84367SOL    HW154998  14.643   8.525  13.327
84367SOL    HW254999  14.698   8.649  13.393
84368SOL     OW55000  13.886  13.722   1.888
84368SOL    HW155001  13.965  13.767   1.857
84368SOL    HW255002  13.821  13.791   1.898
84369SOL     OW55003   3.709  14.788  13.206
84369SOL    HW155004   3.664  14.712  13.242
84369SOL    HW255005   3.783  14.752  13.157
84370SOL     OW55006   4.127   6.801  10.225
84370SOL    HW155007   4.137   6.710  10.255
84370SOL    HW255008   4.052   6.798  10.165
84371SOL     OW55009  11.223  12.090  12.019
84371SOL    HW155010  11.256  12.023  11.958
84371SOL    HW255011  11.235  12.173  11.973
84372SOL     OW55012   4.024   8.618  14.475
84372SOL    HW155013   4.067   8.677  14.414
84372SOL    HW255014   4.003   8.672  14.551
84373SOL     OW55015   9.316   5.565   3.049
84373SOL    HW155016   9.287   5.565   3.140
84373SOL    HW255017   9.411   5.573   3.054
84374SOL     OW55018  12.268  12.415   9.069
84374SOL    HW155019  12.322  12.458   9.002
84374SOL    HW255020  12.328  12.355   9.113
84375SOL     OW55021   6.767  13.305   9.841
84375SOL    HW155022   6.710  13.279   9.769
84375SOL    HW255023   6.744  13.246   9.912
84376SOL     OW55024   7.632   7.928   5.870
84376SOL    HW155025   7.542   7.929   5.905
84376SOL    HW255026   7.649   7.835   5.853
84377SOL     OW55027   8.645   2.734  10.718
84377SOL    HW155028   8.613   2.644  10.720
84377SOL    HW255029   8.739   2.726  10.707
84378SOL     OW55030   7.387   4.354  12.031
84378SOL    HW155031   7.300   4.368  12.068
84378SOL    HW255032   7.371   4.328  11.940
84379SOL     OW55033  12.878   3.553   8.548
84379SOL    HW155034  12.876   3.638   8.504
84379SOL    HW255035  12.794   3.513   8.525
84380SOL     OW55036   3.869  14.196   1.015
84380SOL    HW155037   3.853  14.290   1.009
84380SOL    HW255038   3.940  14.189   1.080
84381SOL     OW55039  14.007   0.277   8.534
84381SOL    HW155040  13.914   0.258   8.522
84381SOL    HW255041  14.043   0.197   8.574
84382SOL     OW55042   4.407  12.291   0.210
84382SOL    HW155043   4.377  12.223   0.271
84382SOL    HW255044   4.487  12.325   0.250
84383SOL     OW55045  10.517  10.637   4.753
84383SOL    HW155046  10.612  10.623   4.752
84383SOL    HW255047  10.480  10.548   4.754
84384SOL     OW55048   4.149   7.269   9.283
84384SOL    HW155049   4.066   7.317   9.277
84384SOL    HW255050   4.127   7.181   9.252
84385SOL     OW55051  13.676   6.667  12.843
84385SOL    HW155052  13.659   6.664  12.749
84385SOL    HW255053  13.742   6.735  12.853
84386SOL     OW55054   3.019  13.744   8.847
84386SOL    HW155055   2.996  13.829   8.808
84386SOL    HW255056   3.014  13.759   8.942
84387SOL     OW55057  12.475  10.453   4.700
84387SOL    HW155058  12.514  10.386   4.645
84387SOL    HW255059  12.478  10.417   4.789
84388SOL     OW55060  14.688   9.815  14.599
84388SOL    HW155061  14.684   9.788  14.690
84388SOL    HW255062  14.679   9.910  14.601
84389SOL     OW55063   0.598  12.008   7.770
84389SOL    HW155064   0.652  12.062   7.828
84389SOL    HW255065   0.551  12.071   7.715
84390SOL     OW55066   5.939   4.175   2.069
84390SOL    HW155067   6.016   4.218   2.106
84390SOL    HW255068   5.935   4.090   2.113
84391SOL     OW55069   5.632  11.092   1.902
84391SOL    HW155070   5.655  11.057   1.816
84391SOL    HW255071   5.716  11.110   1.944
84392SOL     OW55072  11.601   5.392   2.460
84392SOL    HW155073  11.626   5.300   2.474
84392SOL    HW255074  11.646   5.417   2.380
84393SOL     OW55075   4.827  11.292  11.475
84393SOL    HW155076   4.781  11.370  11.444
84393SOL    HW255077   4.916  11.301  11.440
84394SOL     OW55078   3.907   2.106   6.907
84394SOL    HW155079   3.910   2.135   6.998
84394SOL    HW255080   3.818   2.126   6.878
84395SOL     OW55081  13.810  13.034  10.366
84395SOL    HW155082  13.776  13.061  10.280
84395SOL    HW255083  13.760  12.955  10.387
84396SOL     OW55084   4.875   8.795  14.296
84396SOL    HW155085   4.966   8.816  14.278
84396SOL    HW255086   4.826   8.872  14.268
84397SOL     OW55087  12.261  11.723   2.442
84397SOL    HW155088  12.270  11.787   2.372
84397SOL    HW255089  12.172  11.689   2.432
84398SOL     OW55090   4.494   5.819   5.872
84398SOL    HW155091   4.491   5.862   5.786
84398SOL    HW255092   4.539   5.882   5.928
84399SOL     OW55093   0.339   6.114  11.765
84399SOL    HW155094   0.420   6.123  11.715
84399SOL    HW255095   0.354   6.037  11.821
84400SOL     OW55096   0.525   1.177  10.654
84400SOL    HW155097   0.553   1.260  10.616
84400SOL    HW255098   0.477   1.133  10.584
84401SOL     OW55099   8.915   7.497   6.166
84401SOL    HW155100   9.005   7.464   6.167
84401SOL    HW255101   8.865   7.428   6.123
84402SOL     OW55102   0.680   2.197   6.592
84402SOL    HW155103   0.758   2.242   6.562
84402SOL    HW255104   0.607   2.250   6.559
84403SOL     OW55105   2.408   8.387   0.772
84403SOL    HW155106   2.482   8.326   0.769
84403SOL    HW255107   2.441   8.466   0.728
84404SOL     OW55108   8.680   3.508   2.027
84404SOL    HW155109   8.733   3.465   1.960
84404SOL    HW255110   8.589   3.493   1.999
84405SOL     OW55111  11.465   9.863   1.933
84405SOL    HW155112  11.379   9.820   1.927
84405SOL    HW255113  11.484   9.888   1.842
84406SOL     OW55114  12.841  14.195  11.715
84406SOL    HW155115  12.800  14.281  11.714
84406SOL    HW255116  12.905  14.198  11.643
84407SOL     OW55117   1.131  13.875   5.695
84407SOL    HW155118   1.158  13.966   5.686
84407SOL    HW255119   1.042  13.872   5.659
84408SOL     OW55120  10.127   8.494  11.527
84408SOL    HW155121  10.036   8.504  11.498
84408SOL    HW255122  10.141   8.565  11.589
84409SOL     OW55123  14.584  11.713  11.246
84409SOL    HW155124  14.510  11.659  11.216
84409SOL    HW255125  14.590  11.783  11.182
84410SOL     OW55126   7.048   1.199   7.783
84410SOL    HW155127   6.974   1.245   7.820
84410SOL    HW255128   7.010   1.146   7.712
84411SOL     OW55129  12.077   4.510   9.035
84411SOL    HW155130  12.109   4.466   9.114
84411SOL    HW255131  12.033   4.441   8.985
84412SOL     OW55132   8.122   9.641   8.556
84412SOL    HW155133   8.166   9.558   8.535
84412SOL    HW255134   8.182   9.685   8.616
84413SOL     OW55135  12.612   8.865   9.671
84413SOL    HW155136  12.663   8.784   9.673
84413SOL    HW255137  12.526   8.840   9.706
84414SOL     OW55138  11.873  12.346   0.814
84414SOL    HW155139  11.787  12.388   0.823
84414SOL    HW255140  11.929  12.392   0.876
84415SOL     OW55141   9.401  12.471   9.240
84415SOL    HW155142   9.455  12.394   9.254
84415SOL    HW255143   9.444  12.518   9.168
84416SOL     OW55144  14.151   6.250  12.255
84416SOL    HW155145  14.172   6.165  12.219
84416SOL    HW255146  14.056   6.259  12.244
84417SOL     OW55147   9.104  14.421  10.188
84417SOL    HW155148   9.026  14.473  10.207
84417SOL    HW255149   9.159  14.430  10.265
84418SOL     OW55150   4.984   6.488   2.712
84418SOL    HW155151   5.052   6.422   2.728
84418SOL    HW255152   4.941   6.500   2.797
84419SOL     OW55153   4.800   5.984   3.174
84419SOL    HW155154   4.819   5.891   3.185
84419SOL    HW255155   4.740   6.005   3.246
84420SOL     OW55156   1.274   6.746  12.648
84420SOL    HW155157   1.275   6.706  12.735
84420SOL    HW255158   1.202   6.703  12.603
84421SOL     OW55159   5.949   7.749   6.422
84421SOL    HW155160   5.877   7.811   6.436
84421SOL    HW255161   5.997   7.785   6.348
84422SOL     OW55162  10.921  14.806  13.120
84422SOL    HW155163  10.966   0.014  13.086
84422SOL    HW255164  10.991  14.745  13.144
84423SOL     OW55165   1.793  11.036   1.832
84423SOL    HW155166   1.878  11.064   1.797
84423SOL    HW255167   1.733  11.107   1.809
84424SOL     OW55168  11.818  11.858   4.908
84424SOL    HW155169  11.800  11.766   4.927
84424SOL    HW255170  11.799  11.903   4.991
84425SOL     OW55171   9.309   4.708   4.359
84425SOL    HW155172   9.236   4.668   4.312
84425SOL    HW255173   9.314   4.797   4.323
84426SOL     OW55174   8.068  13.370   4.143
84426SOL    HW155175   8.144  13.419   4.116
84426SOL    HW255176   8.050  13.310   4.070
84427SOL     OW55177   7.759   2.595  14.466
84427SOL    HW155178   7.832   2.537  14.442
84427SOL    HW255179   7.801   2.680  14.479
84428SOL     OW55180   3.233  14.065   5.815
84428SOL    HW155181   3.197  14.110   5.891
84428SOL    HW255182   3.303  14.123   5.783
84429SOL     OW55183  13.933   4.551  11.296
84429SOL    HW155184  13.948   4.618  11.363
84429SOL    HW255185  13.893   4.599  11.223
84430SOL     OW55186  14.789   5.749  12.219
84430SOL    HW155187  14.753   5.672  12.264
84430SOL    HW255188   0.012   5.750  12.244
84431SOL     OW55189  12.058   4.427  11.745
84431SOL    HW155190  12.020   4.394  11.664
84431SOL    HW255191  12.003   4.391  11.814
84432SOL     OW55192   1.578   0.869   0.386
84432SOL    HW155193   1.524   0.797   0.353
84432SOL    HW255194   1.536   0.895   0.468
84433SOL     OW55195  11.863   7.632  14.396
84433SOL    HW155196  11.939   7.574  14.389
84433SOL    HW255197  11.820   7.605  14.477
84434SOL     OW55198   0.067   7.601   2.399
84434SOL    HW155199  14.869   7.535   2.388
84434SOL    HW255200   0.037   7.676   2.348
84435SOL     OW55201  10.336   2.106   6.781
84435SOL    HW155202  10.317   2.143   6.695
84435SOL    HW255203  10.255   2.119   6.831
84436SOL     OW55204  12.757  12.990   3.237
84436SOL    HW155205  12.701  13.057   3.276
84436SOL    HW255206  12.707  12.909   3.244
84437SOL     OW55207   6.363   3.661   1.865
84437SOL    HW155208   6.424   3.634   1.796
84437SOL    HW255209   6.400   3.624   1.945
84438SOL     OW55210  14.197  13.769   5.846
84438SOL    HW155211  14.187  13.700   5.912
84438SOL    HW255212  14.107  13.796   5.825
84439SOL     OW55213  12.067   6.910   3.132
84439SOL    HW155214  11.981   6.897   3.092
84439SOL    HW255215  12.084   7.004   3.123
84440SOL     OW55216   1.922  12.336   5.517
84440SOL    HW155217   1.921  12.389   5.596
84440SOL    HW255218   1.892  12.395   5.448
84441SOL     OW55219   3.945  11.430   3.720
84441SOL    HW155220   4.003  11.362   3.686
84441SOL    HW255221   3.892  11.386   3.786
84442SOL     OW55222   6.585   8.948   0.743
84442SOL    HW155223   6.545   8.959   0.657
84442SOL    HW255224   6.547   9.018   0.797
84443SOL     OW55225   4.394   0.449  11.606
84443SOL    HW155226   4.336   0.496  11.545
84443SOL    HW255227   4.374   0.356  11.591
84444SOL     OW55228   3.944   1.145   2.956
84444SOL    HW155229   3.886   1.129   2.882
84444SOL    HW255230   4.012   1.077   2.948
84445SOL     OW55231  14.168   0.446  14.413
84445SOL    HW155232  14.245   0.439  14.469
84445SOL    HW255233  14.109   0.504  14.460
84446SOL     OW55234  14.178   2.814   9.818
84446SOL    HW155235  14.155   2.907   9.814
84446SOL    HW255236  14.137   2.776   9.739
84447SOL     OW55237   8.258   4.444   1.048
84447SOL    HW155238   8.180   4.406   1.007
84447SOL    HW255239   8.252   4.417   1.140
84448SOL     OW55240   7.195   0.414   7.655
84448SOL    HW155241   7.271   0.427   7.712
84448SOL    HW255242   7.140   0.351   7.702
84449SOL     OW55243   6.626   3.961   2.866
84449SOL    HW155244   6.556   3.951   2.801
84449SOL    HW255245   6.621   4.054   2.892
84450SOL     OW55246  12.844   7.191   0.925
84450SOL    HW155247  12.914   7.251   0.952
84450SOL    HW255248  12.769   7.248   0.906
84451SOL     OW55249   1.373  10.490   4.239
84451SOL    HW155250   1.433  10.497   4.165
84451SOL    HW255251   1.309  10.560   4.225
84452SOL     OW55252   3.938  13.479   7.566
84452SOL    HW155253   3.971  13.444   7.483
84452SOL    HW255254   3.944  13.405   7.627
84453SOL     OW55255  14.267   5.657   3.447
84453SOL    HW155256  14.212   5.710   3.506
84453SOL    HW255257  14.348   5.707   3.438
84454SOL     OW55258   3.257  12.024   0.553
84454SOL    HW155259   3.316  12.056   0.484
84454SOL    HW255260   3.297  11.942   0.581
84455SOL     OW55261   7.568   2.562   3.148
84455SOL    HW155262   7.488   2.553   3.200
84455SOL    HW255263   7.609   2.475   3.153
84456SOL     OW55264   6.480   9.495   4.015
84456SOL    HW155265   6.450   9.584   4.035
84456SOL    HW255266   6.527   9.468   4.094
84457SOL     OW55267   7.444  12.697  12.847
84457SOL    HW155268   7.472  12.789  12.846
84457SOL    HW255269   7.500  12.654  12.782
84458SOL     OW55270  14.112  12.147   9.714
84458SOL    HW155271  14.056  12.162   9.638
84458SOL    HW255272  14.088  12.059   9.744
84459SOL     OW55273   3.846  12.697  10.081
84459SOL    HW155274   3.799  12.747  10.148
84459SOL    HW255275   3.905  12.641  10.130
84460SOL     OW55276   0.087  14.609  12.781
84460SOL    HW155277   0.162  14.661  12.752
84460SOL    HW255278   0.069  14.550  12.707
84461SOL     OW55279  13.313   9.641   7.152
84461SOL    HW155280  13.274   9.682   7.075
84461SOL    HW255281  13.340   9.715   7.207
84462SOL     OW55282   2.678  13.782  14.410
84462SOL    HW155283   2.680  13.701  14.359
84462SOL    HW255284   2.606  13.770  14.472
84463SOL     OW55285   5.229   9.452  11.517
84463SOL    HW155286   5.212   9.407  11.434
84463SOL    HW255287   5.318   9.426  11.541
84464SOL     OW55288  12.559   4.467   3.276
84464SOL    HW155289  12.542   4.560   3.285
84464SOL    HW255290  12.538   4.446   3.185
84465SOL     OW55291   0.100   1.437   9.972
84465SOL    HW155292   0.044   1.442   9.894
84465SOL    HW255293   0.081   1.351  10.010
84466SOL     OW55294   8.692   1.456   6.649
84466SOL    HW155295   8.764   1.402   6.617
84466SOL    HW255296   8.669   1.510   6.574
84467SOL     OW55297   9.879  12.640   9.111
84467SOL    HW155298   9.951  12.673   9.164
84467SOL    HW255299   9.857  12.555   9.150
84468SOL     OW55300  10.405  12.479   7.874
84468SOL    HW155301  10.481  12.456   7.927
84468SOL    HW255302  10.442  12.500   7.788
84469SOL     OW55303   9.361  13.043  13.339
84469SOL    HW155304   9.413  12.998  13.406
84469SOL    HW255305   9.279  13.064  13.384
84470SOL     OW55306   4.016  11.186   7.320
84470SOL    HW155307   4.026  11.280   7.335
84470SOL    HW255308   3.944  11.160   7.378
84471SOL     OW55309  13.632  11.669   5.707
84471SOL    HW155310  13.719  11.632   5.692
84471SOL    HW255311  13.584  11.600   5.753
84472SOL     OW55312  10.087   6.958   2.556
84472SOL    HW155313  10.122   6.926   2.639
84472SOL    HW255314  10.029   7.029   2.580
84473SOL     OW55315   4.011  14.223   0.779
84473SOL    HW155316   4.029  14.134   0.749
84473SOL    HW255317   3.939  14.213   0.842
84474SOL     OW55318   9.822   1.063   5.890
84474SOL    HW155319   9.731   1.040   5.872
84474SOL    HW255320   9.821   1.096   5.980
84475SOL     OW55321  11.423  13.595   8.892
84475SOL    HW155322  11.466  13.511   8.907
84475SOL    HW255323  11.370  13.609   8.970
84476SOL     OW55324   2.297  14.492  13.483
84476SOL    HW155325   2.288  14.565  13.422
84476SOL    HW255326   2.262  14.525  13.565
84477SOL     OW55327   9.122   0.590   6.592
84477SOL    HW155328   9.196   0.614   6.536
84477SOL    HW255329   9.086   0.673   6.622
84478SOL     OW55330   1.506   1.813  12.123
84478SOL    HW155331   1.549   1.752  12.064
84478SOL    HW255332   1.507   1.897  12.077
84479SOL     OW55333   4.135   8.061   5.301
84479SOL    HW155334   4.211   8.005   5.318
84479SOL    HW255335   4.076   8.005   5.250
84480SOL     OW55336   9.150   2.874   1.860
84480SOL    HW155337   9.167   2.908   1.948
84480SOL    HW255338   9.081   2.930   1.825
84481SOL     OW55339   6.429   2.918   4.264
84481SOL    HW155340   6.509   2.965   4.240
84481SOL    HW255341   6.459   2.853   4.328
84482SOL     OW55342   9.902   8.557  13.769
84482SOL    HW155343   9.871   8.635  13.815
84482SOL    HW255344   9.982   8.533  13.815
84483SOL     OW55345  14.667   2.973  13.920
84483SOL    HW155346  14.597   2.950  13.981
84483SOL    HW255347  14.657   2.913  13.847
84484SOL     OW55348   6.350  11.058   7.599
84484SOL    HW155349   6.387  11.123   7.538
84484SOL    HW255350   6.425  11.006   7.627
84485SOL     OW55351   5.457   8.239   5.230
84485SOL    HW155352   5.547   8.209   5.244
84485SOL    HW255353   5.464   8.304   5.160
84486SOL     OW55354  10.259   5.533  14.187
84486SOL    HW155355  10.259   5.625  14.214
84486SOL    HW255356  10.277   5.537  14.093
84487SOL     OW55357  12.080   9.942  10.853
84487SOL    HW155358  12.091  10.014  10.915
84487SOL    HW255359  12.030   9.980  10.781
84488SOL     OW55360   9.621   5.659   2.103
84488SOL    HW155361   9.537   5.654   2.058
84488SOL    HW255362   9.643   5.752   2.104
84489SOL     OW55363  11.659   6.284   1.099
84489SOL    HW155364  11.659   6.378   1.115
84489SOL    HW255365  11.686   6.275   1.007
84490SOL     OW55366   9.077   8.748   3.400
84490SOL    HW155367   9.020   8.770   3.326
84490SOL    HW255368   9.141   8.687   3.363
84491SOL     OW55369  13.757  11.963  13.365
84491SOL    HW155370  13.741  11.997  13.454
84491SOL    HW255371  13.767  12.041  13.311
84492SOL     OW55372  10.626  14.242   4.512
84492SOL    HW155373  10.697  14.307   4.510
84492SOL    HW255374  10.667  14.164   4.549
84493SOL     OW55375  13.739  10.509  13.803
84493SOL    HW155376  13.780  10.556  13.731
84493SOL    HW255377  13.769  10.418  13.792
84494SOL     OW55378  13.634  12.976   3.818
84494SOL    HW155379  13.589  13.008   3.740
84494SOL    HW255380  13.657  12.885   3.798
84495SOL     OW55381   7.234  13.830   3.482
84495SOL    HW155382   7.309  13.848   3.539
84495SOL    HW255383   7.169  13.897   3.506
84496SOL     OW55384   5.970  10.266   4.518
84496SOL    HW155385   5.931  10.309   4.594
84496SOL    HW255386   5.990  10.337   4.458
84497SOL     OW55387  10.523   3.065  10.549
84497SOL    HW155388  10.603   3.119  10.546
84497SOL    HW255389  10.487   3.073  10.461
84498SOL     OW55390   6.976   2.653  12.958
84498SOL    HW155391   7.010   2.743  12.963
84498SOL    HW255392   6.957   2.641  12.865
84499SOL     OW55393   6.187   2.231  12.306
84499SOL    HW155394   6.258   2.281  12.347
84499SOL    HW255395   6.229   2.186  12.233
84500SOL     OW55396  10.424  12.912   0.064
84500SOL    HW155397  10.364  12.959   0.006
84500SOL    HW255398  10.471  12.852   0.007
84501SOL     OW55399   5.525  12.234  13.584
84501SOL    HW155400   5.441  12.191  13.598
84501SOL    HW255401   5.539  12.287  13.663
84502SOL     OW55402   0.479  14.598   6.728
84502SOL    HW155403   0.531  14.528   6.768
84502SOL    HW255404   0.415  14.621   6.795
84503SOL     OW55405  10.792   2.199   9.931
84503SOL    HW155406  10.863   2.178   9.871
84503SOL    HW255407  10.729   2.248   9.877
84504SOL     OW55408  10.465   3.576   6.417
84504SOL    HW155409  10.553   3.608   6.395
84504SOL    HW255410  10.412   3.600   6.341
84505SOL     OW55411   1.373   6.335  11.243
84505SOL    HW155412   1.358   6.287  11.162
84505SOL    HW255413   1.314   6.411  11.237
84506SOL     OW55414   4.028   7.810   0.158
84506SOL    HW155415   4.106   7.757   0.142
84506SOL    HW255416   4.028   7.875   0.088
84507SOL     OW55417   9.764   8.872   3.992
84507SOL    HW155418   9.848   8.826   4.000
84507SOL    HW255419   9.698   8.802   3.997
84508SOL     OW55420  12.240  10.766   6.532
84508SOL    HW155421  12.166  10.713   6.502
84508SOL    HW255422  12.282  10.795   6.451
84509SOL     OW55423   1.616  14.414   8.619
84509SOL    HW155424   1.654  14.327   8.611
84509SOL    HW255425   1.553  14.405   8.690
84510SOL     OW55426   9.859   8.781  12.672
84510SOL    HW155427   9.846   8.720  12.745
84510SOL    HW255428   9.783   8.767  12.616
84511SOL     OW55429  12.239  10.939   7.143
84511SOL    HW155430  12.314  10.939   7.083
84511SOL    HW255431  12.219  11.032   7.156
84512SOL     OW55432  12.676  11.907   3.935
84512SOL    HW155433  12.602  11.962   3.911
84512SOL    HW255434  12.654  11.873   4.021
84513SOL     OW55435   3.381  13.235   9.163
84513SOL    HW155436   3.447  13.202   9.225
84513SOL    HW255437   3.313  13.167   9.163
84514SOL     OW55438  13.042   0.833   7.783
84514SOL    HW155439  13.116   0.831   7.844
84514SOL    HW255440  12.981   0.895   7.821
84515SOL     OW55441  12.102  10.176   2.174
84515SOL    HW155442  12.101  10.155   2.267
84515SOL    HW255443  12.068  10.097   2.131
84516SOL     OW55444  11.015   2.269  14.315
84516SOL    HW155445  10.997   2.183  14.353
84516SOL    HW255446  11.074   2.251  14.241
84517SOL     OW55447   1.454   0.172  10.870
84517SOL    HW155448   1.480   0.264  10.872
84517SOL    HW255449   1.374   0.169  10.923
84518SOL     OW55450   8.990   0.084   2.799
84518SOL    HW155451   9.008   0.178   2.792
84518SOL    HW255452   8.907   0.079   2.846
84519SOL     OW55453   3.152   7.045  10.610
84519SOL    HW155454   3.188   7.084  10.530
84519SOL    HW255455   3.057   7.053  10.601
84520SOL     OW55456   9.992  11.747   2.644
84520SOL    HW155457  10.027  11.733   2.732
84520SOL    HW255458  10.052  11.810   2.605
84521SOL     OW55459   3.970  13.781  14.161
84521SOL    HW155460   3.993  13.788  14.253
84521SOL    HW255461   4.043  13.734  14.121
84522SOL     OW55462   1.721   8.874   4.220
84522SOL    HW155463   1.815   8.876   4.201
84522SOL    HW255464   1.691   8.964   4.204
84523SOL     OW55465   1.406   8.513   0.958
84523SOL    HW155466   1.439   8.600   0.935
84523SOL    HW255467   1.483   8.463   0.985
84524SOL     OW55468   5.418   5.649   5.585
84524SOL    HW155469   5.333   5.639   5.541
84524SOL    HW255470   5.444   5.559   5.607
84525SOL     OW55471   2.017   7.769  11.099
84525SOL    HW155472   1.954   7.814  11.156
84525SOL    HW255473   1.979   7.682  11.085
84526SOL     OW55474  11.563  13.186   2.426
84526SOL    HW155475  11.644  13.196   2.375
84526SOL    HW255476  11.497  13.163   2.361
84527SOL     OW55477   3.742   9.413  11.828
84527SOL    HW155478   3.810   9.384  11.767
84527SOL    HW255479   3.737   9.508  11.816
84528SOL     OW55480  14.024   0.893   8.815
84528SOL    HW155481  13.982   0.808   8.831
84528SOL    HW255482  14.073   0.911   8.896
84529SOL     OW55483   7.052  11.344  10.980
84529SOL    HW155484   7.143  11.312  10.983
84529SOL    HW255485   7.060  11.436  10.955
84530SOL     OW55486   9.423  11.903   4.624
84530SOL    HW155487   9.506  11.875   4.585
84530SOL    HW255488   9.407  11.841   4.695
84531SOL     OW55489   7.406   5.674   1.891
84531SOL    HW155490   7.464   5.750   1.897
84531SOL    HW255491   7.350   5.681   1.968
84532SOL     OW55492   3.135   2.084   8.086
84532SOL    HW155493   3.199   2.014   8.073
84532SOL    HW255494   3.153   2.146   8.016
84533SOL     OW55495   2.280   8.129   9.610
84533SOL    HW155496   2.294   8.094   9.522
84533SOL    HW255497   2.363   8.170   9.633
84534SOL     OW55498   5.770   3.872   8.022
84534SOL    HW155499   5.817   3.799   7.981
84534SOL    HW255500   5.699   3.829   8.071
84535SOL     OW55501  10.941   1.370   3.396
84535SOL    HW155502  11.035   1.365   3.412
84535SOL    HW255503  10.925   1.305   3.327
84536SOL     OW55504   3.853   8.674   3.210
84536SOL    HW155505   3.786   8.657   3.277
84536SOL    HW255506   3.840   8.603   3.146
84537SOL     OW55507   4.908   2.806   9.176
84537SOL    HW155508   4.953   2.886   9.151
84537SOL    HW255509   4.833   2.801   9.117
84538SOL     OW55510  14.282  14.819   4.601
84538SOL    HW155511  14.319  14.753   4.659
84538SOL    HW255512  14.214  14.862   4.654
84539SOL     OW55513   2.088   1.172   4.564
84539SOL    HW155514   2.141   1.204   4.491
84539SOL    HW255515   2.001   1.161   4.527
84540SOL     OW55516   6.966   0.811   4.280
84540SOL    HW155517   6.916   0.791   4.201
84540SOL    HW255518   6.917   0.770   4.351
84541SOL     OW55519   5.430   6.633   6.882
84541SOL    HW155520   5.405   6.546   6.913
84541SOL    HW255521   5.500   6.617   6.819
84542SOL     OW55522   1.341   8.296  11.245
84542SOL    HW155523   1.292   8.223  11.207
84542SOL    HW255524   1.402   8.255  11.306
84543SOL     OW55525  13.646   5.646   0.303
84543SOL    HW155526  13.722   5.606   0.345
84543SOL    HW255527  13.676   5.668   0.215
84544SOL     OW55528   5.578   8.900   0.392
84544SOL    HW155529   5.517   8.840   0.349
84544SOL    HW255530   5.661   8.885   0.347
84545SOL     OW55531  12.653  12.504   9.647
84545SOL    HW155532  12.705  12.424   9.636
84545SOL    HW255533  12.717  12.575   9.640
84546SOL     OW55534   6.600  10.075  11.984
84546SOL    HW155535   6.539  10.010  11.949
84546SOL    HW255536   6.546  10.153  12.000
84547SOL     OW55537   7.489  12.700   8.809
84547SOL    HW155538   7.564  12.757   8.797
84547SOL    HW255539   7.449  12.693   8.723
84548SOL     OW55540   3.389  10.549   5.781
84548SOL    HW155541   3.296  10.537   5.765
84548SOL    HW255542   3.415  10.471   5.829
84549SOL     OW55543   3.832   5.529   3.763
84549SOL    HW155544   3.907   5.497   3.813
84549SOL    HW255545   3.760   5.532   3.826
84550SOL     OW55546  13.811  10.865  11.590
84550SOL    HW155547  13.816  10.830  11.679
84550SOL    HW255548  13.846  10.954  11.598
84551SOL     OW55549  14.445  13.413   4.256
84551SOL    HW155550  14.514  13.440   4.317
84551SOL    HW255551  14.376  13.478   4.268
84552SOL     OW55552   4.387  14.278   2.641
84552SOL    HW155553   4.428  14.223   2.574
84552SOL    HW255554   4.450  14.347   2.658
84553SOL     OW55555   0.216   8.935   3.322
84553SOL    HW155556   0.265   8.928   3.240
84553SOL    HW255557   0.191   9.027   3.327
84554SOL     OW55558   1.207   6.063   7.988
84554SOL    HW155559   1.251   6.017   8.059
84554SOL    HW255560   1.214   6.156   8.011
84555SOL     OW55561  10.932   8.179  14.165
84555SOL    HW155562  10.973   8.148  14.246
84555SOL    HW255563  10.918   8.100  14.113
84556SOL     OW55564  12.583   2.999   4.609
84556SOL    HW155565  12.515   2.931   4.617
84556SOL    HW255566  12.590   3.036   4.697
84557SOL     OW55567   8.254  13.097   4.757
84557SOL    HW155568   8.234  13.165   4.821
84557SOL    HW255569   8.210  13.019   4.790
84558SOL     OW55570   0.297   0.368  11.436
84558SOL    HW155571   0.286   0.376  11.342
84558SOL    HW255572   0.305   0.458  11.468
84559SOL     OW55573   7.127   2.055   6.769
84559SOL    HW155574   7.106   2.017   6.854
84559SOL    HW255575   7.046   2.096   6.740
84560SOL     OW55576  13.241   8.966  13.864
84560SOL    HW155577  13.283   9.052  13.866
84560SOL    HW255578  13.261   8.927  13.949
84561SOL     OW55579   4.809  14.512  12.261
84561SOL    HW155580   4.898  14.547  12.266
84561SOL    HW255581   4.817  14.423  12.296
84562SOL     OW55582  12.697  10.037   8.488
84562SOL    HW155583  12.612  10.035   8.443
84562SOL    HW255584  12.741   9.957   8.460
84563SOL     OW55585   8.771  13.655   7.160
84563SOL    HW155586   8.839  13.674   7.225
84563SOL    HW255587   8.777  13.561   7.145
84564SOL     OW55588   8.385  11.672   8.342
84564SOL    HW155589   8.465  11.622   8.351
84564SOL    HW255590   8.315  11.610   8.363
84565SOL     OW55591   5.899   0.504  12.530
84565SOL    HW155592   5.834   0.566  12.498
84565SOL    HW255593   5.863   0.418  12.509
84566SOL     OW55594   9.657   7.182   4.032
84566SOL    HW155595   9.737   7.130   4.031
84566SOL    HW255596   9.609   7.150   4.108
84567SOL     OW55597   0.228  10.088  14.833
84567SOL    HW155598   0.288  10.055  14.765
84567SOL    HW255599   0.262  10.050   0.045
84568SOL     OW55600  14.348   4.095   4.011
84568SOL    HW155601  14.401   4.059   3.940
84568SOL    HW255602  14.258   4.095   3.976
84569SOL     OW55603   4.014   6.596  11.455
84569SOL    HW155604   4.046   6.519  11.409
84569SOL    HW255605   3.955   6.639  11.393
84570SOL     OW55606  13.171   8.131   9.607
84570SOL    HW155607  13.200   8.211   9.651
84570SOL    HW255608  13.156   8.158   9.516
84571SOL     OW55609  13.548  13.104  11.456
84571SOL    HW155610  13.633  13.064  11.440
84571SOL    HW255611  13.491  13.031  11.479
84572SOL     OW55612   3.916   5.166  12.104
84572SOL    HW155613   3.971   5.223  12.051
84572SOL    HW255614   3.826   5.188  12.079
84573SOL     OW55615   1.537   6.560   3.091
84573SOL    HW155616   1.567   6.648   3.066
84573SOL    HW255617   1.486   6.573   3.171
84574SOL     OW55618   4.810  11.003   6.174
84574SOL    HW155619   4.762  10.936   6.126
84574SOL    HW255620   4.746  11.040   6.235
84575SOL     OW55621   9.288   9.602   9.714
84575SOL    HW155622   9.239   9.532   9.757
84575SOL    HW255623   9.291   9.576   9.622
84576SOL     OW55624  11.443  13.805   0.829
84576SOL    HW155625  11.371  13.851   0.786
84576SOL    HW255626  11.507  13.874   0.849
84577SOL     OW55627   0.574   0.780  11.119
84577SOL    HW155628   0.641   0.770  11.052
84577SOL    HW255629   0.556   0.690  11.148
84578SOL     OW55630   1.918  10.552   3.629
84578SOL    HW155631   1.998  10.594   3.660
84578SOL    HW255632   1.901  10.483   3.693
84579SOL     OW55633  13.636  14.275   2.981
84579SOL    HW155634  13.637  14.260   2.886
84579SOL    HW255635  13.690  14.353   2.993
84580SOL     OW55636   3.530   5.108  12.662
84580SOL    HW155637   3.568   5.086  12.576
84580SOL    HW255638   3.517   5.203  12.658
84581SOL     OW55639   8.396   5.386   1.208
84581SOL    HW155640   8.398   5.338   1.125
84581SOL    HW255641   8.308   5.369   1.243
84582SOL     OW55642   0.027  13.195  10.423
84582SOL    HW155643   0.097  13.193  10.357
84582SOL    HW255644  14.816  13.205  10.372
84583SOL     OW55645   3.976   3.056   2.752
84583SOL    HW155646   4.019   2.988   2.700
84583SOL    HW255647   3.896   3.015   2.784
84584SOL     OW55648   8.799   9.893  14.589
84584SOL    HW155649   8.856   9.817  14.578
84584SOL    HW255650   8.777   9.920  14.500
84585SOL     OW55651   9.751  14.558   6.927
84585SOL    HW155652   9.700  14.586   7.003
84585SOL    HW255653   9.698  14.490   6.886
84586SOL     OW55654   0.910  11.235  14.834
84586SOL    HW155655   0.837  11.257   0.022
84586SOL    HW255656   0.871  11.183  14.764
84587SOL     OW55657   4.788   8.321   2.368
84587SOL    HW155658   4.800   8.362   2.454
84587SOL    HW255659   4.812   8.389   2.306
84588SOL     OW55660   6.801  13.553   3.979
84588SOL    HW155661   6.731  13.503   4.020
84588SOL    HW255662   6.834  13.610   4.050
84589SOL     OW55663  13.809  10.389   4.209
84589SOL    HW155664  13.890  10.439   4.199
84589SOL    HW255665  13.799  10.342   4.126
84590SOL     OW55666   0.580   6.404  11.650
84590SOL    HW155667   0.485   6.403  11.643
84590SOL    HW255668   0.610   6.405  11.559
84591SOL     OW55669  12.033  10.659   2.978
84591SOL    HW155670  12.114  10.607   2.974
84591SOL    HW255671  11.967  10.603   2.937
84592SOL     OW55672  10.634  13.176   5.791
84592SOL    HW155673  10.555  13.187   5.843
84592SOL    HW255674  10.702  13.153   5.854
84593SOL     OW55675  12.417  13.735  10.201
84593SOL    HW155676  12.355  13.759  10.269
84593SOL    HW255677  12.501  13.769  10.232
84594SOL     OW55678  10.056   9.086  11.049
84594SOL    HW155679  10.133   9.143  11.046
84594SOL    HW255680  10.009   9.104  10.968
84595SOL     OW55681   4.989   5.673   7.807
84595SOL    HW155682   4.907   5.713   7.777
84595SOL    HW255683   4.961   5.590   7.846
84596SOL     OW55684   4.316   8.703  10.513
84596SOL    HW155685   4.323   8.748  10.597
84596SOL    HW255686   4.273   8.620  10.533
84597SOL     OW55687   7.291   8.112  11.947
84597SOL    HW155688   7.318   8.046  11.882
84597SOL    HW255689   7.309   8.070  12.031
84598SOL     OW55690   5.592  14.125   7.674
84598SOL    HW155691   5.506  14.106   7.711
84598SOL    HW255692   5.575  14.172   7.593
84599SOL     OW55693  13.293   7.580  11.107
84599SOL    HW155694  13.300   7.486  11.086
84599SOL    HW255695  13.228   7.613  11.044
84600SOL     OW55696   3.023  13.203   0.822
84600SOL    HW155697   3.084  13.268   0.787
84600SOL    HW255698   3.062  13.176   0.905
84601SOL     OW55699  13.715  13.361   1.137
84601SOL    HW155700  13.639  13.385   1.191
84601SOL    HW255701  13.785  13.419   1.168
84602SOL     OW55702   5.598   9.940   4.709
84602SOL    HW155703   5.620   9.956   4.801
84602SOL    HW255704   5.660   9.993   4.660
84603SOL     OW55705   9.827   5.351   4.215
84603SOL    HW155706   9.789   5.396   4.139
84603SOL    HW255707   9.782   5.388   4.290
84604SOL     OW55708  10.670  10.993  12.063
84604SOL    HW155709  10.617  10.939  12.005
84604SOL    HW255710  10.660  10.952  12.149
84605SOL     OW55711   9.394   6.714   0.387
84605SOL    HW155712   9.335   6.783   0.416
84605SOL    HW255713   9.410   6.661   0.465
84606SOL     OW55714   9.323  10.294   6.827
84606SOL    HW155715   9.295  10.262   6.913
84606SOL    HW255716   9.409  10.334   6.843
84607SOL     OW55717  11.099   4.204   2.516
84607SOL    HW155718  11.064   4.162   2.438
84607SOL    HW255719  11.153   4.136   2.558
84608SOL     OW55720   3.348   2.658  12.219
84608SOL    HW155721   3.442   2.664  12.233
84608SOL    HW255722   3.331   2.564  12.212
84609SOL     OW55723   0.948   5.499   9.726
84609SOL    HW155724   0.857   5.477   9.704
84609SOL    HW255725   0.978   5.552   9.652
84610SOL     OW55726  12.214   6.442   3.235
84610SOL    HW155727  12.212   6.535   3.213
84610SOL    HW255728  12.151   6.402   3.175
84611SOL     OW55729  11.217   1.361  13.464
84611SOL    HW155730  11.293   1.319  13.503
84611SOL    HW255731  11.233   1.355  13.369
84612SOL     OW55732   2.723   1.825   0.601
84612SOL    HW155733   2.775   1.868   0.668
84612SOL    HW255734   2.633   1.828   0.635
84613SOL     OW55735  13.894  10.600   6.452
84613SOL    HW155736  13.949  10.603   6.374
84613SOL    HW255737  13.886  10.692   6.480
84614SOL     OW55738  13.960   4.593   4.335
84614SOL    HW155739  14.031   4.567   4.277
84614SOL    HW255740  14.000   4.595   4.422
84615SOL     OW55741  11.307  14.286   9.552
84615SOL    HW155742  11.346  14.295   9.465
84615SOL    HW255743  11.227  14.338   9.547
84616SOL     OW55744  10.417  13.486   0.148
84616SOL    HW155745  10.376  13.491   0.234
84616SOL    HW255746  10.373  13.553   0.096
84617SOL     OW55747  14.637   4.581   3.693
84617SOL    HW155748  14.712   4.632   3.723
84617SOL    HW255749  14.595   4.550   3.774
84618SOL     OW55750   2.534  13.478   3.546
84618SOL    HW155751   2.487  13.543   3.495
84618SOL    HW255752   2.626  13.487   3.519
84619SOL     OW55753   0.470   0.984  10.070
84619SOL    HW155754   0.505   1.048  10.131
84619SOL    HW255755   0.375   0.994  10.076
84620SOL     OW55756  10.709   6.999   1.594
84620SOL    HW155757  10.756   7.011   1.512
84620SOL    HW255758  10.715   7.084   1.638
84621SOL     OW55759  10.951  10.307   3.635
84621SOL    HW155760  10.942  10.369   3.563
84621SOL    HW255761  11.007  10.352   3.699
84622SOL     OW55762   0.012  11.886   4.402
84622SOL    HW155763  14.817  11.895   4.331
84622SOL    HW255764   0.073  11.820   4.370
84623SOL     OW55765   3.213   3.044   9.413
84623SOL    HW155766   3.304   3.062   9.437
84623SOL    HW255767   3.204   2.950   9.424
84624SOL     OW55768  13.680   7.669   0.636
84624SOL    HW155769  13.698   7.698   0.547
84624SOL    HW255770  13.605   7.610   0.628
84625SOL     OW55771   8.227  13.579  13.732
84625SOL    HW155772   8.257  13.659  13.775
84625SOL    HW255773   8.132  13.584  13.735
84626SOL     OW55774   3.638  10.798   1.242
84626SOL    HW155775   3.732  10.811   1.227
84626SOL    HW255776   3.631  10.787   1.337
84627SOL     OW55777   3.411   2.229  10.953
84627SOL    HW155778   3.444   2.283  11.024
84627SOL    HW255779   3.357   2.289  10.900
84628SOL     OW55780   1.660   5.847   2.038
84628SOL    HW155781   1.627   5.834   1.949
84628SOL    HW255782   1.634   5.767   2.085
84629SOL     OW55783  10.244   0.913  11.749
84629SOL    HW155784  10.196   0.994  11.731
84629SOL    HW255785  10.177   0.845  11.749
84630SOL     OW55786   2.637   8.767  10.201
84630SOL    HW155787   2.708   8.709  10.171
84630SOL    HW255788   2.680   8.851  10.217
84631SOL     OW55789  14.653  10.413   9.609
84631SOL    HW155790  14.658  10.466   9.689
84631SOL    HW255791  14.588  10.345   9.629
84632SOL     OW55792  11.203   6.523  11.864
84632SOL    HW155793  11.194   6.617  11.849
84632SOL    HW255794  11.292   6.512  11.896
84633SOL     OW55795   6.038  10.621  10.111
84633SOL    HW155796   6.030  10.696  10.052
84633SOL    HW255797   6.101  10.650  10.178
84634SOL     OW55798  14.222  11.075  10.571
84634SOL    HW155799  14.169  11.103  10.496
84634SOL    HW255800  14.312  11.076  10.538
84635SOL     OW55801   9.656  12.605   8.351
84635SOL    HW155802   9.724  12.575   8.411
84635SOL    HW255803   9.696  12.680   8.306
84636SOL     OW55804   3.326   1.395   1.671
84636SOL    HW155805   3.256   1.400   1.736
84636SOL    HW255806   3.393   1.339   1.712
84637SOL     OW55807   2.211   0.468  12.484
84637SOL    HW155808   2.264   0.547  12.497
84637SOL    HW255809   2.122   0.502  12.473
84638SOL     OW55810  12.594   2.139   8.757
84638SOL    HW155811  12.615   2.226   8.721
84638SOL    HW255812  12.680   2.102   8.779
84639SOL     OW55813   5.071   6.707  12.089
84639SOL    HW155814   5.014   6.733  12.018
84639SOL    HW255815   5.015   6.657  12.148
84640SOL     OW55816  10.909   0.944  14.785
84640SOL    HW155817  10.884   0.909  14.699
84640SOL    HW255818  11.005   0.943  14.784
84641SOL     OW55819   6.454   3.317  10.269
84641SOL    HW155820   6.417   3.380  10.207
84641SOL    HW255821   6.413   3.234  10.246
84642SOL     OW55822  11.325   1.371  11.763
84642SOL    HW155823  11.372   1.319  11.698
84642SOL    HW255824  11.238   1.383  11.725
84643SOL     OW55825   2.166   0.869   1.886
84643SOL    HW155826   2.079   0.873   1.925
84643SOL    HW255827   2.180   0.777   1.867
84644SOL     OW55828   4.745   2.608  13.051
84644SOL    HW155829   4.654   2.638  13.049
84644SOL    HW255830   4.788   2.659  12.982
84645SOL     OW55831  10.804   1.337  13.376
84645SOL    HW155832  10.791   1.322  13.283
84645SOL    HW255833  10.821   1.431  13.383
84646SOL     OW55834  13.027   0.372   4.958
84646SOL    HW155835  13.036   0.428   5.035
84646SOL    HW255836  13.050   0.428   4.884
84647SOL     OW55837   4.061   2.501   1.545
84647SOL    HW155838   4.097   2.414   1.532
84647SOL    HW255839   4.045   2.534   1.457
84648SOL     OW55840   5.018  12.024  12.644
84648SOL    HW155841   5.067  11.949  12.676
84648SOL    HW255842   5.017  12.013  12.549
84649SOL     OW55843   0.145   9.890   1.966
84649SOL    HW155844   0.121   9.938   1.887
84649SOL    HW255845   0.218   9.835   1.938
84650SOL     OW55846  12.170   1.330   7.436
84650SOL    HW155847  12.089   1.306   7.481
84650SOL    HW255848  12.155   1.420   7.407
84651SOL     OW55849   1.992   0.541   6.446
84651SOL    HW155850   1.910   0.539   6.398
84651SOL    HW255851   2.035   0.621   6.415
84652SOL     OW55852   7.848   9.814  14.340
84652SOL    HW155853   7.910   9.744  14.321
84652SOL    HW255854   7.773   9.795  14.284
84653SOL     OW55855  13.512   3.413   3.443
84653SOL    HW155856  13.456   3.486   3.416
84653SOL    HW255857  13.516   3.356   3.367
84654SOL     OW55858   1.937  10.091   6.457
84654SOL    HW155859   1.999  10.019   6.449
84654SOL    HW255860   1.941  10.117   6.549
84655SOL     OW55861   7.238   4.985  14.441
84655SOL    HW155862   7.319   4.938  14.463
84655SOL    HW255863   7.192   4.992  14.525
84656SOL     OW55864   6.633   6.364   4.210
84656SOL    HW155865   6.648   6.309   4.133
84656SOL    HW255866   6.555   6.415   4.189
84657SOL     OW55867   0.275   1.777   0.336
84657SOL    HW155868   0.239   1.713   0.397
84657SOL    HW255869   0.355   1.738   0.303
84658SOL     OW55870   8.696  11.620  14.639
84658SOL    HW155871   8.713  11.530  14.666
84658SOL    HW255872   8.783  11.661  14.636
84659SOL     OW55873  14.385   5.763   9.922
84659SOL    HW155874  14.449   5.726   9.983
84659SOL    HW255875  14.367   5.850   9.956
84660SOL     OW55876   9.355  10.851   2.172
84660SOL    HW155877   9.326  10.815   2.256
84660SOL    HW255878   9.436  10.805   2.153
84661SOL     OW55879   7.044   6.528  12.807
84661SOL    HW155880   7.129   6.573  12.806
84661SOL    HW255881   7.067   6.435  12.811
84662SOL     OW55882  11.565   5.176   0.381
84662SOL    HW155883  11.642   5.146   0.430
84662SOL    HW255884  11.594   5.258   0.340
84663SOL     OW55885   6.263   7.547   7.057
84663SOL    HW155886   6.271   7.531   6.963
84663SOL    HW255887   6.262   7.459   7.096
84664SOL     OW55888   9.167   1.342   4.272
84664SOL    HW155889   9.229   1.378   4.208
84664SOL    HW255890   9.081   1.370   4.240
84665SOL     OW55891  14.507   7.517   7.896
84665SOL    HW155892  14.453   7.596   7.894
84665SOL    HW255893  14.547   7.517   7.983
84666SOL     OW55894  11.343  14.602   1.372
84666SOL    HW155895  11.399  14.679   1.379
84666SOL    HW255896  11.373  14.544   1.442
84667SOL     OW55897   4.800   9.817   7.586
84667SOL    HW155898   4.868   9.804   7.520
84667SOL    HW255899   4.830   9.767   7.662
84668SOL     OW55900  13.783  12.958  11.410
84668SOL    HW155901  13.761  12.865  11.422
84668SOL    HW255902  13.849  12.958  11.341
84669SOL     OW55903   0.464   3.160   6.799
84669SOL    HW155904   0.483   3.251   6.824
84669SOL    HW255905   0.416   3.167   6.716
84670SOL     OW55906   6.720   3.360   5.722
84670SOL    HW155907   6.810   3.380   5.697
84670SOL    HW255908   6.678   3.333   5.640
84671SOL     OW55909   2.472  11.166   8.608
84671SOL    HW155910   2.558  11.128   8.590
84671SOL    HW255911   2.433  11.180   8.521
84672SOL     OW55912  10.810  13.822   0.252
84672SOL    HW155913  10.781  13.743   0.206
84672SOL    HW255914  10.732  13.877   0.256
84673SOL     OW55915  14.545   7.786  10.469
84673SOL    HW155916  14.536   7.846  10.543
84673SOL    HW255917  14.573   7.842  10.397
84674SOL     OW55918  14.240   0.862   3.300
84674SOL    HW155919  14.245   0.902   3.213
84674SOL    HW255920  14.258   0.935   3.360
84675SOL     OW55921   6.354  10.430   3.584
84675SOL    HW155922   6.440  10.474   3.585
84675SOL    HW255923   6.297  10.490   3.535
84676SOL     OW55924   7.554  13.432  10.978
84676SOL    HW155925   7.550  13.524  11.001
84676SOL    HW255926   7.570  13.431  10.884
84677SOL     OW55927   5.727   2.482   8.286
84677SOL    HW155928   5.813   2.507   8.252
84677SOL    HW255929   5.708   2.400   8.240
84678SOL     OW55930  10.706   2.898  12.264
84678SOL    HW155931  10.799   2.882  12.277
84678SOL    HW255932  10.664   2.862  12.343
84679SOL     OW55933   9.545   6.571   5.920
84679SOL    HW155934   9.485   6.555   5.992
84679SOL    HW255935   9.573   6.483   5.892
84680SOL     OW55936   9.602   1.448   8.302
84680SOL    HW155937   9.684   1.417   8.340
84680SOL    HW255938   9.580   1.527   8.351
84681SOL     OW55939   7.629   2.210  14.779
84681SOL    HW155940   7.599   2.263  14.852
84681SOL    HW255941   7.550   2.171  14.743
84682SOL     OW55942  13.187   5.058   2.405
84682SOL    HW155943  13.277   5.025   2.411
84682SOL    HW255944  13.174   5.078   2.313
84683SOL     OW55945   2.355   6.836   8.456
84683SOL    HW155946   2.266   6.869   8.465
84683SOL    HW255947   2.344   6.750   8.415
84684SOL     OW55948   8.292   9.656   1.984
84684SOL    HW155949   8.329   9.584   2.034
84684SOL    HW255950   8.291   9.730   2.045
84685SOL     OW55951   1.808   8.902   1.029
84685SOL    HW155952   1.890   8.940   1.062
84685SOL    HW255953   1.830   8.871   0.941
84686SOL     OW55954  10.264   8.168   3.484
84686SOL    HW155955  10.235   8.076   3.483
84686SOL    HW255956  10.184   8.219   3.473
84687SOL     OW55957   1.001   2.073   7.878
84687SOL    HW155958   0.935   2.140   7.893
84687SOL    HW255959   0.961   2.013   7.814
84688SOL     OW55960   8.062   9.116   2.585
84688SOL    HW155961   8.079   9.037   2.637
84688SOL    HW255962   8.061   9.085   2.495
84689SOL     OW55963  11.066   1.205   4.178
84689SOL    HW155964  11.092   1.205   4.086
84689SOL    HW255965  11.148   1.197   4.226
84690SOL     OW55966   9.798   4.293   2.486
84690SOL    HW155967   9.824   4.243   2.563
84690SOL    HW255968   9.852   4.258   2.415
84691SOL     OW55969   9.633  14.324  12.568
84691SOL    HW155970   9.641  14.329  12.473
84691SOL    HW255971   9.719  14.352  12.601
84692SOL     OW55972   7.755  12.795  11.142
84692SOL    HW155973   7.796  12.881  11.131
84692SOL    HW255974   7.756  12.757  11.055
84693SOL     OW55975  12.448   5.293   1.083
84693SOL    HW155976  12.525   5.286   1.138
84693SOL    HW255977  12.377   5.315   1.143
84694SOL     OW55978   1.994   8.250   2.455
84694SOL    HW155979   2.017   8.158   2.447
84694SOL    HW255980   1.967   8.260   2.547
84695SOL     OW55981   4.415  12.781  14.148
84695SOL    HW155982   4.354  12.853  14.166
84695SOL    HW255983   4.488  12.796  14.208
84696SOL     OW55984   0.823   1.047  10.047
84696SOL    HW155985   0.881   1.121  10.025
84696SOL    HW255986   0.736   1.078  10.022
84697SOL     OW55987   6.305   1.476   2.746
84697SOL    HW155988   6.232   1.430   2.704
84697SOL    HW255989   6.264   1.537   2.806
84698SOL     OW55990   6.072   1.371   8.282
84698SOL    HW155991   6.070   1.440   8.216
84698SOL    HW255992   5.983   1.337   8.284
84699SOL     OW55993   7.633   6.568   3.097
84699SOL    HW155994   7.607   6.514   3.023
84699SOL    HW255995   7.553   6.613   3.124
84700SOL     OW55996   7.773  12.738  12.463
84700SOL    HW155997   7.858  12.749  12.504
84700SOL    HW255998   7.789  12.687  12.384
84701SOL     OW55999  11.084   4.422  13.945
84701SOL    HW156000  11.012   4.375  13.902
84701SOL    HW256001  11.072   4.405  14.038
84702SOL     OW56002   7.109   5.599  10.561
84702SOL    HW156003   7.182   5.549  10.526
84702SOL    HW256004   7.049   5.609  10.487
84703SOL     OW56005   8.073  10.250   8.328
84703SOL    HW156006   8.102  10.292   8.247
84703SOL    HW256007   8.145  10.191   8.350
84704SOL     OW56008  14.807   1.140   9.077
84704SOL    HW156009  14.805   1.102   9.165
84704SOL    HW256010  14.767   1.074   9.020
84705SOL     OW56011   9.079   7.458  13.290
84705SOL    HW156012   9.168   7.450  13.256
84705SOL    HW256013   9.026   7.407  13.228
84706SOL     OW56014  13.476   1.893  13.413
84706SOL    HW156015  13.454   1.923  13.501
84706SOL    HW256016  13.568   1.917  13.402
84707SOL     OW56017   8.721   7.342   0.239
84707SOL    HW156018   8.757   7.398   0.170
84707SOL    HW256019   8.763   7.257   0.225
84708SOL     OW56020   2.856   6.429  14.055
84708SOL    HW156021   2.880   6.339  14.035
84708SOL    HW256022   2.765   6.423  14.085
84709SOL     OW56023   2.456   3.367   9.773
84709SOL    HW156024   2.550   3.366   9.754
84709SOL    HW256025   2.421   3.438   9.718
84710SOL     OW56026   5.442  12.388   4.064
84710SOL    HW156027   5.526  12.424   4.094
84710SOL    HW256028   5.467  12.316   4.006
84711SOL     OW56029  12.247   5.942   2.830
84711SOL    HW156030  12.168   5.895   2.805
84711SOL    HW256031  12.278   5.983   2.749
84712SOL     OW56032  12.941   4.063  13.308
84712SOL    HW156033  12.911   4.093  13.222
84712SOL    HW256034  12.862   4.068  13.364
84713SOL     OW56035   5.813   8.302   9.951
84713SOL    HW156036   5.902   8.301   9.986
84713SOL    HW256037   5.758   8.275  10.024
84714SOL     OW56038   5.750   7.853   8.357
84714SOL    HW156039   5.830   7.825   8.312
84714SOL    HW256040   5.680   7.833   8.295
84715SOL     OW56041   8.440  13.983  14.137
84715SOL    HW156042   8.360  13.935  14.159
84715SOL    HW256043   8.495  13.977  14.215
84716SOL     OW56044   0.969   4.169  13.483
84716SOL    HW156045   0.991   4.082  13.516
84716SOL    HW256046   0.961   4.223  13.562
84717SOL     OW56047  14.770  11.450   5.096
84717SOL    HW156048  14.772  11.504   5.175
84717SOL    HW256049  14.827  11.376   5.115
84718SOL     OW56050  12.453  10.786   3.431
84718SOL    HW156051  12.467  10.821   3.519
84718SOL    HW256052  12.359  10.798   3.415
84719SOL     OW56053   5.600   3.109  10.861
84719SOL    HW156054   5.620   3.188  10.811
84719SOL    HW256055   5.682   3.060  10.862
84720SOL     OW56056   5.093   6.289  14.154
84720SOL    HW156057   5.075   6.256  14.242
84720SOL    HW256058   5.133   6.375  14.168
84721SOL     OW56059   3.751   0.942   8.509
84721SOL    HW156060   3.684   1.005   8.535
84721SOL    HW256061   3.825   0.961   8.566
84722SOL     OW56062   6.126   3.375   8.997
84722SOL    HW156063   6.105   3.363   9.090
84722SOL    HW256064   6.213   3.336   8.987
84723SOL     OW56065  14.071   1.084  10.599
84723SOL    HW156066  14.085   1.093  10.693
84723SOL    HW256067  14.147   1.035  10.567
84724SOL     OW56068   8.087  14.575   0.697
84724SOL    HW156069   8.059  14.595   0.786
84724SOL    HW256070   8.143  14.498   0.706
84725SOL     OW56071  12.153   5.568  10.829
84725SOL    HW156072  12.072   5.577  10.779
84725SOL    HW256073  12.168   5.655  10.865
84726SOL     OW56074   2.507  13.744  12.645
84726SOL    HW156075   2.520  13.755  12.551
84726SOL    HW256076   2.572  13.802  12.685
84727SOL     OW56077  12.386   6.535   4.906
84727SOL    HW156078  12.414   6.566   4.820
84727SOL    HW256079  12.438   6.587   4.968
84728SOL     OW56080   6.649  13.715   3.006
84728SOL    HW156081   6.721  13.672   3.053
84728SOL    HW256082   6.643  13.802   3.045
84729SOL     OW56083   6.314  13.408   8.321
84729SOL    HW156084   6.361  13.393   8.404
84729SOL    HW256085   6.289  13.500   8.324
84730SOL     OW56086   1.296   1.485   5.738
84730SOL    HW156087   1.368   1.543   5.764
84730SOL    HW256088   1.220   1.519   5.785
84731SOL     OW56089   7.326   3.955  14.318
84731SOL    HW156090   7.290   3.895  14.252
84731SOL    HW256091   7.321   3.905  14.399
84732SOL     OW56092   0.866   3.011   0.480
84732SOL    HW156093   0.931   3.070   0.518
84732SOL    HW256094   0.782   3.057   0.492
84733SOL     OW56095   2.381   9.075   5.466
84733SOL    HW156096   2.311   9.016   5.441
84733SOL    HW256097   2.354   9.109   5.552
84734SOL     OW56098   9.530   9.390   9.911
84734SOL    HW156099   9.531   9.408  10.005
84734SOL    HW256100   9.439   9.404   9.885
84735SOL     OW56101   8.395  10.391   4.644
84735SOL    HW156102   8.303  10.368   4.656
84735SOL    HW256103   8.430  10.321   4.588
84736SOL     OW56104  10.297   3.522   2.183
84736SOL    HW156105  10.358   3.551   2.250
84736SOL    HW256106  10.341   3.448   2.141
84737SOL     OW56107   7.036  10.375  10.285
84737SOL    HW156108   6.981  10.448  10.258
84737SOL    HW256109   6.992  10.297  10.251
84738SOL     OW56110   9.415   2.848   4.290
84738SOL    HW156111   9.385   2.938   4.298
84738SOL    HW256112   9.440   2.839   4.198
84739SOL     OW56113  12.764  12.372  14.483
84739SOL    HW156114  12.753  12.428  14.407
84739SOL    HW256115  12.768  12.433  14.557
84740SOL     OW56116  11.274   2.237   1.019
84740SOL    HW156117  11.308   2.262   0.934
84740SOL    HW256118  11.241   2.319   1.057
84741SOL     OW56119  11.343   5.219  11.539
84741SOL    HW156120  11.309   5.134  11.510
84741SOL    HW256121  11.265   5.267  11.567
84742SOL     OW56122   8.138   1.031  10.005
84742SOL    HW156123   8.151   1.120   9.972
84742SOL    HW256124   8.045   1.028  10.029
84743SOL     OW56125   1.809   3.603   5.204
84743SOL    HW156126   1.741   3.654   5.160
84743SOL    HW256127   1.780   3.599   5.295
84744SOL     OW56128   7.495   8.915   8.446
84744SOL    HW156129   7.486   8.893   8.539
84744SOL    HW256130   7.574   8.868   8.418
84745SOL     OW56131   6.946   9.351   3.610
84745SOL    HW156132   6.893   9.312   3.679
84745SOL    HW256133   7.033   9.362   3.650
84746SOL     OW56134  13.598  13.377   2.136
84746SOL    HW156135  13.594  13.300   2.194
84746SOL    HW256136  13.537  13.439   2.175
84747SOL     OW56137  10.001   8.583   6.136
84747SOL    HW156138  10.004   8.632   6.218
84747SOL    HW256139   9.986   8.492   6.163
84748SOL     OW56140   1.810  13.206   7.489
84748SOL    HW156141   1.787  13.215   7.397
84748SOL    HW256142   1.847  13.291   7.513
84749SOL     OW56143   1.346   5.827   8.365
84749SOL    HW156144   1.326   5.918   8.343
84749SOL    HW256145   1.263   5.790   8.396
84750SOL     OW56146   7.945   6.603   8.628
84750SOL    HW156147   7.989   6.554   8.559
84750SOL    HW256148   7.947   6.545   8.704
84751SOL     OW56149   2.744  11.005  11.761
84751SOL    HW156150   2.817  10.988  11.701
84751SOL    HW256151   2.782  10.998  11.848
84752SOL     OW56152   2.552   2.864   7.896
84752SOL    HW156153   2.573   2.772   7.911
84752SOL    HW256154   2.592   2.884   7.812
84753SOL     OW56155  14.587  13.621  13.320
84753SOL    HW156156  14.557  13.650  13.407
84753SOL    HW256157  14.642  13.545  13.338
84754SOL     OW56158   8.018   6.207   2.703
84754SOL    HW156159   7.974   6.242   2.626
84754SOL    HW256160   8.091   6.268   2.719
84755SOL     OW56161   2.170   8.160  10.469
84755SOL    HW156162   2.202   8.199  10.550
84755SOL    HW256163   2.097   8.104  10.497
84756SOL     OW56164   8.921   8.215  11.964
84756SOL    HW156165   8.954   8.195  11.876
84756SOL    HW256166   8.994   8.192  12.022
84757SOL     OW56167  10.178  13.333   3.872
84757SOL    HW156168  10.099  13.363   3.917
84757SOL    HW256169  10.244  13.399   3.892
84758SOL     OW56170   1.065  13.004   0.668
84758SOL    HW156171   1.007  12.985   0.742
84758SOL    HW256172   1.108  12.920   0.650
84759SOL     OW56173  11.758  13.154   1.808
84759SOL    HW156174  11.846  13.121   1.792
84759SOL    HW256175  11.768  13.249   1.813
84760SOL     OW56176  13.725  12.698  11.452
84760SOL    HW156177  13.767  12.614  11.433
84760SOL    HW256178  13.679  12.683  11.534
84761SOL     OW56179  12.207  10.628   2.049
84761SOL    HW156180  12.292  10.586   2.040
84761SOL    HW256181  12.145  10.556   2.057
84762SOL     OW56182   7.278   6.120  11.487
84762SOL    HW156183   7.303   6.029  11.500
84762SOL    HW256184   7.183   6.119  11.481
84763SOL     OW56185  12.546  11.762   5.911
84763SOL    HW156186  12.572  11.669   5.915
84763SOL    HW256187  12.536  11.780   5.818
84764SOL     OW56188   4.322  10.978  14.224
84764SOL    HW156189   4.282  10.891  14.212
84764SOL    HW256190   4.270  11.036  14.168
84765SOL     OW56191   8.642   9.738   6.724
84765SOL    HW156192   8.632   9.831   6.746
84765SOL    HW256193   8.718   9.710   6.775
84766SOL     OW56194   8.215   4.511   1.842
84766SOL    HW156195   8.271   4.583   1.812
84766SOL    HW256196   8.269   4.462   1.903
84767SOL     OW56197   4.933   9.612   9.371
84767SOL    HW156198   4.952   9.639   9.461
84767SOL    HW256199   4.972   9.525   9.363
84768SOL     OW56200  12.391   3.695   6.270
84768SOL    HW156201  12.354   3.717   6.184
84768SOL    HW256202  12.401   3.599   6.267
84769SOL     OW56203   8.810   1.739   3.755
84769SOL    HW156204   8.764   1.666   3.797
84769SOL    HW256205   8.863   1.778   3.825
84770SOL     OW56206  11.438   3.653   1.556
84770SOL    HW156207  11.501   3.725   1.545
84770SOL    HW256208  11.484   3.589   1.611
84771SOL     OW56209  13.586   7.280   0.531
84771SOL    HW156210  13.574   7.306   0.440
84771SOL    HW256211  13.556   7.355   0.582
84772SOL     OW56212  10.403   8.932  10.829
84772SOL    HW156213  10.495   8.918  10.807
84772SOL    HW256214  10.384   9.020  10.797
84773SOL     OW56215   7.883   4.039   2.774
84773SOL    HW156216   7.813   3.977   2.754
84773SOL    HW256217   7.865   4.068   2.864
84774SOL     OW56218   9.957  14.048  11.851
84774SOL    HW156219   9.925  14.135  11.824
84774SOL    HW256220   9.893  13.987  11.813
84775SOL     OW56221  12.892   1.018  12.488
84775SOL    HW156222  12.855   1.028  12.400
84775SOL    HW256223  12.884   0.924  12.507
84776SOL     OW56224   2.383   4.470  10.278
84776SOL    HW156225   2.358   4.486  10.369
84776SOL    HW256226   2.477   4.487  10.276
84777SOL     OW56227  14.683   1.733   6.096
84777SOL    HW156228  14.644   1.756   6.180
84777SOL    HW256229  14.654   1.643   6.080
84778SOL     OW56230   0.218  10.004   7.189
84778SOL    HW156231   0.243  10.018   7.281
84778SOL    HW256232   0.295   9.964   7.149
84779SOL     OW56233   0.967   7.226   0.446
84779SOL    HW156234   0.997   7.301   0.395
84779SOL    HW256235   0.931   7.166   0.380
84780SOL     OW56236   0.638   6.223   9.428
84780SOL    HW156237   0.676   6.136   9.440
84780SOL    HW256238   0.662   6.248   9.339
84781SOL     OW56239   9.932  14.178   1.371
84781SOL    HW156240  10.007  14.118   1.370
84781SOL    HW256241   9.969  14.263   1.397
84782SOL     OW56242   7.595  12.398   8.726
84782SOL    HW156243   7.542  12.345   8.666
84782SOL    HW256244   7.638  12.463   8.669
84783SOL     OW56245  14.250  10.866   3.160
84783SOL    HW156246  14.317  10.798   3.153
84783SOL    HW256247  14.213  10.873   3.072
84784SOL     OW56248   4.470  12.436  13.113
84784SOL    HW156249   4.435  12.390  13.037
84784SOL    HW256250   4.545  12.383  13.141
84785SOL     OW56251   9.673   8.603   9.374
84785SOL    HW156252   9.633   8.656   9.305
84785SOL    HW256253   9.760   8.640   9.386
84786SOL     OW56254   3.245   4.551  14.654
84786SOL    HW156255   3.226   4.468  14.610
84786SOL    HW256256   3.332   4.539  14.692
84787SOL     OW56257   2.328   2.994   5.427
84787SOL    HW156258   2.323   2.901   5.451
84787SOL    HW256259   2.421   3.009   5.409
84788SOL     OW56260   5.467   0.964   6.228
84788SOL    HW156261   5.535   0.929   6.285
84788SOL    HW256262   5.393   0.980   6.285
84789SOL     OW56263   9.545   1.239  14.623
84789SOL    HW156264   9.460   1.236  14.580
84789SOL    HW256265   9.564   1.332  14.634
84790SOL     OW56266   7.576   3.537   7.562
84790SOL    HW156267   7.600   3.445   7.554
84790SOL    HW256268   7.640   3.583   7.507
84791SOL     OW56269   6.464   3.509   2.062
84791SOL    HW156270   6.530   3.446   2.034
84791SOL    HW256271   6.382   3.458   2.064
84792SOL     OW56272   6.105  13.010  13.950
84792SOL    HW156273   6.109  13.081  14.014
84792SOL    HW256274   6.186  12.961  13.962
84793SOL     OW56275  14.481   9.650   0.775
84793SOL    HW156276  14.421   9.619   0.706
84793SOL    HW256277  14.466   9.744   0.779
84794SOL     OW56278   2.487   1.164   5.574
84794SOL    HW156279   2.400   1.180   5.610
84794SOL    HW256280   2.472   1.102   5.502
84795SOL     OW56281   9.397  14.346   3.889
84795SOL    HW156282   9.348  14.315   3.965
84795SOL    HW256283   9.487  14.319   3.906
84796SOL     OW56284   2.415   1.277   2.135
84796SOL    HW156285   2.474   1.340   2.092
84796SOL    HW256286   2.389   1.217   2.065
84797SOL     OW56287   2.063  12.115   5.767
84797SOL    HW156288   2.022  12.173   5.831
84797SOL    HW256289   1.995  12.052   5.745
84798SOL     OW56290   6.309  11.889  10.892
84798SOL    HW156291   6.232  11.845  10.928
84798SOL    HW256292   6.282  11.916  10.804
84799SOL     OW56293   4.119   6.639   9.058
84799SOL    HW156294   4.116   6.546   9.082
84799SOL    HW256295   4.032   6.672   9.080
84800SOL     OW56296   4.621   2.081   1.795
84800SOL    HW156297   4.684   2.152   1.787
84800SOL    HW256298   4.647   2.035   1.875
84801SOL     OW56299   7.809   9.979   3.453
84801SOL    HW156300   7.873   9.964   3.384
84801SOL    HW256301   7.731  10.010   3.408
84802SOL     OW56302  11.714   1.004  10.492
84802SOL    HW156303  11.625   0.993  10.525
84802SOL    HW256304  11.723   1.098  10.476
84803SOL     OW56305  12.722   7.545  10.184
84803SOL    HW156306  12.658   7.482  10.215
84803SOL    HW256307  12.676   7.629  10.188
84804SOL     OW56308  12.135   7.045   5.324
84804SOL    HW156309  12.133   7.041   5.420
84804SOL    HW256310  12.079   7.120   5.302
84805SOL     OW56311  14.519  11.955   3.729
84805SOL    HW156312  14.544  12.005   3.806
84805SOL    HW256313  14.426  11.937   3.740
84806SOL     OW56314   2.356  10.318   2.936
84806SOL    HW156315   2.284  10.256   2.922
84806SOL    HW256316   2.337  10.390   2.875
84807SOL     OW56317  13.546  13.078   0.420
84807SOL    HW156318  13.518  13.163   0.454
84807SOL    HW256319  13.464  13.030   0.407
84808SOL     OW56320  14.380   3.600   8.427
84808SOL    HW156321  14.407   3.517   8.466
84808SOL    HW256322  14.353   3.654   8.502
84809SOL     OW56323   3.934   6.203   1.902
84809SOL    HW156324   3.908   6.258   1.976
84809SOL    HW256325   3.924   6.113   1.935
84810SOL     OW56326   0.334   6.116   0.933
84810SOL    HW156327   0.360   6.059   1.006
84810SOL    HW256328   0.412   6.120   0.877
84811SOL     OW56329  13.924   2.621   3.639
84811SOL    HW156330  13.976   2.560   3.587
84811SOL    HW256331  13.903   2.692   3.579
84812SOL     OW56332   8.632  14.865   9.990
84812SOL    HW156333   8.632   0.092   9.988
84812SOL    HW256334   8.724  14.841   9.990
84813SOL     OW56335  11.424  12.933   4.621
84813SOL    HW156336  11.400  12.970   4.535
84813SOL    HW256337  11.443  12.841   4.602
84814SOL     OW56338   2.539   7.733   1.914
84814SOL    HW156339   2.454   7.724   1.958
84814SOL    HW256340   2.603   7.731   1.985
84815SOL     OW56341  10.232  12.746   0.722
84815SOL    HW156342  10.175  12.819   0.698
84815SOL    HW256343  10.173  12.671   0.729
84816SOL     OW56344  12.163   3.563   4.548
84816SOL    HW156345  12.094   3.613   4.591
84816SOL    HW256346  12.220   3.534   4.619
84817SOL     OW56347  14.481  14.664  12.985
84817SOL    HW156348  14.565  14.710  12.994
84817SOL    HW256349  14.505  14.574  12.964
84818SOL     OW56350  14.466   3.200  14.860
84818SOL    HW156351  14.499   3.275   0.040
84818SOL    HW256352  14.389   3.234  14.815
84819SOL     OW56353  13.314   1.418  12.250
84819SOL    HW156354  13.226   1.395  12.218
84819SOL    HW256355  13.308   1.410  12.345
84820SOL     OW56356  10.434   6.933   0.743
84820SOL    HW156357  10.392   6.942   0.829
84820SOL    HW256358  10.366   6.897   0.686
84821SOL     OW56359   4.208   9.408   2.552
84821SOL    HW156360   4.137   9.469   2.532
84821SOL    HW256361   4.215   9.411   2.647
84822SOL     OW56362   9.605   6.703  14.502
84822SOL    HW156363   9.679   6.757  14.530
84822SOL    HW256364   9.633   6.613  14.518
84823SOL     OW56365  12.441  14.764  12.586
84823SOL    HW156366  12.351  14.746  12.558
84823SOL    HW256367  12.432  14.807  12.670
84824SOL     OW56368   0.227  14.780   2.539
84824SOL    HW156369   0.227  14.694   2.582
84824SOL    HW256370   0.201  14.841   2.607
84825SOL     OW56371   7.291  10.446  13.027
84825SOL    HW156372   7.265  10.527  13.071
84825SOL    HW256373   7.225  10.434  12.958
84826SOL     OW56374   0.907   7.140   9.836
84826SOL    HW156375   0.909   7.151   9.741
84826SOL    HW256376   0.817   7.162   9.860
84827SOL     OW56377   1.819   3.167   6.104
84827SOL    HW156378   1.904   3.159   6.060
84827SOL    HW256379   1.814   3.090   6.160
84828SOL     OW56380   6.852   4.302   7.437
84828SOL    HW156381   6.871   4.274   7.527
84828SOL    HW256382   6.873   4.396   7.436
84829SOL     OW56383   3.519   6.647   8.644
84829SOL    HW156384   3.445   6.612   8.594
84829SOL    HW256385   3.573   6.570   8.663
84830SOL     OW56386  13.827   6.814  11.226
84830SOL    HW156387  13.781   6.737  11.260
84830SOL    HW256388  13.762   6.857  11.171
84831SOL     OW56389  13.756   8.307   1.040
84831SOL    HW156390  13.795   8.253   0.972
84831SOL    HW256391  13.712   8.245   1.099
84832SOL     OW56392   1.737  12.210  12.227
84832SOL    HW156393   1.782  12.278  12.279
84832SOL    HW256394   1.795  12.197  12.151
84833SOL     OW56395   2.068   3.279   5.764
84833SOL    HW156396   2.034   3.203   5.716
84833SOL    HW256397   1.993   3.338   5.771
84834SOL     OW56398  13.542   4.283  11.506
84834SOL    HW156399  13.568   4.306  11.595
84834SOL    HW256400  13.583   4.350  11.451
84835SOL     OW56401   5.730  12.095   1.500
84835SOL    HW156402   5.694  12.007   1.496
84835SOL    HW256403   5.699  12.130   1.583
84836SOL     OW56404   5.617   2.193  14.621
84836SOL    HW156405   5.672   2.117  14.639
84836SOL    HW256406   5.548   2.188  14.688
84837SOL     OW56407  13.012  11.265  13.820
84837SOL    HW156408  12.961  11.282  13.741
84837SOL    HW256409  12.956  11.292  13.892
84838SOL     OW56410   2.939   1.425  14.352
84838SOL    HW156411   3.009   1.431  14.286
84838SOL    HW256412   2.859   1.445  14.303
84839SOL     OW56413  14.170   0.691   1.395
84839SOL    HW156414  14.181   0.774   1.349
84839SOL    HW256415  14.179   0.624   1.327
84840SOL     OW56416  14.461  12.464  14.786
84840SOL    HW156417  14.555  12.482  14.793
84840SOL    HW256418  14.420  12.548  14.804
84841SOL     OW56419   9.336  12.214  10.467
84841SOL    HW156420   9.320  12.201  10.374
84841SOL    HW256421   9.294  12.297  10.488
84842SOL     OW56422   2.398  11.120  10.119
84842SOL    HW156423   2.345  11.064  10.176
84842SOL    HW256424   2.334  11.172  10.070
84843SOL     OW56425   2.202   4.316   0.648
84843SOL    HW156426   2.145   4.252   0.690
84843SOL    HW256427   2.280   4.267   0.624
84844SOL     OW56428   8.266   5.769  13.161
84844SOL    HW156429   8.178   5.748  13.130
84844SOL    HW256430   8.251   5.823  13.239
84845SOL     OW56431   4.191   2.238   6.564
84845SOL    HW156432   4.193   2.233   6.469
84845SOL    HW256433   4.225   2.154   6.593
84846SOL     OW56434  13.753  14.693  13.410
84846SOL    HW156435  13.829  14.686  13.351
84846SOL    HW256436  13.773  14.632  13.481
84847SOL     OW56437  11.474   2.978   5.209
84847SOL    HW156438  11.551   3.035   5.219
84847SOL    HW256439  11.415   3.027   5.152
84848SOL     OW56440   0.358  13.323  13.666
84848SOL    HW156441   0.383  13.397  13.611
84848SOL    HW256442   0.424  13.320  13.735
84849SOL     OW56443   8.632   9.759  11.255
84849SOL    HW156444   8.607   9.830  11.314
84849SOL    HW256445   8.551   9.711  11.239
84850SOL     OW56446   3.085  14.853   2.095
84850SOL    HW156447   3.006   0.028   2.062
84850SOL    HW256448   3.157   0.024   2.047
84851SOL     OW56449  13.269   1.323   7.373
84851SOL    HW156450  13.326   1.398   7.385
84851SOL    HW256451  13.259   1.315   7.278
84852SOL     OW56452   1.714   2.949   8.288
84852SOL    HW156453   1.786   2.910   8.239
84852SOL    HW256454   1.756   3.005   8.353
84853SOL     OW56455   7.673   6.452   6.858
84853SOL    HW156456   7.667   6.358   6.876
84853SOL    HW256457   7.687   6.492   6.944
84854SOL     OW56458  11.038  10.066   1.573
84854SOL    HW156459  11.061  10.140   1.629
84854SOL    HW256460  10.943  10.074   1.561
84855SOL     OW56461   7.837   8.442   0.704
84855SOL    HW156462   7.758   8.393   0.680
84855SOL    HW256463   7.862   8.488   0.624
84856SOL     OW56464   1.588   7.224  10.308
84856SOL    HW156465   1.683   7.215  10.301
84856SOL    HW256466   1.574   7.257  10.396
84857SOL     OW56467   1.328   6.632   1.623
84857SOL    HW156468   1.348   6.725   1.631
84857SOL    HW256469   1.411   6.587   1.640
84858SOL     OW56470   4.683  10.940   5.575
84858SOL    HW156471   4.618  10.966   5.510
84858SOL    HW256472   4.652  10.856   5.609
84859SOL     OW56473   7.169   3.127   5.503
84859SOL    HW156474   7.204   3.215   5.513
84859SOL    HW256475   7.096   3.123   5.565
84860SOL     OW56476   4.068   5.297   5.012
84860SOL    HW156477   4.152   5.321   5.051
84860SOL    HW256478   4.056   5.205   5.036
84861SOL     OW56479  11.544   9.575  13.770
84861SOL    HW156480  11.625   9.529  13.792
84861SOL    HW256481  11.495   9.577  13.853
84862SOL     OW56482  13.498   7.814  11.136
84862SOL    HW156483  13.476   7.905  11.114
84862SOL    HW256484  13.413   7.774  11.156
84863SOL     OW56485   8.395   4.325   1.966
84863SOL    HW156486   8.361   4.248   2.012
84863SOL    HW256487   8.462   4.360   2.025
84864SOL     OW56488   7.929   1.259   6.922
84864SOL    HW156489   7.983   1.183   6.943
84864SOL    HW256490   7.869   1.267   6.997
84865SOL     OW56491   8.773   7.015   4.849
84865SOL    HW156492   8.833   7.064   4.793
84865SOL    HW256493   8.750   7.076   4.919
84866SOL     OW56494   1.592   0.749   5.196
84866SOL    HW156495   1.549   0.701   5.125
84866SOL    HW256496   1.606   0.683   5.264
84867SOL     OW56497   2.951   2.307   4.591
84867SOL    HW156498   2.904   2.239   4.542
84867SOL    HW256499   2.882   2.353   4.639
84868SOL     OW56500   9.532   6.356   9.272
84868SOL    HW156501   9.610   6.322   9.230
84868SOL    HW256502   9.484   6.278   9.301
84869SOL     OW56503   9.952   1.817   2.627
84869SOL    HW156504   9.878   1.870   2.596
84869SOL    HW256505   9.985   1.775   2.548
84870SOL     OW56506   0.782  11.971  14.236
84870SOL    HW156507   0.719  11.960  14.306
84870SOL    HW256508   0.764  12.059  14.201
84871SOL     OW56509  10.551  10.338   0.276
84871SOL    HW156510  10.483  10.285   0.234
84871SOL    HW256511  10.617  10.350   0.208
84872SOL     OW56512   4.031  14.661  12.087
84872SOL    HW156513   4.088  14.721  12.038
84872SOL    HW256514   3.997  14.601  12.020
84873SOL     OW56515   0.951   7.366   8.347
84873SOL    HW156516   1.023   7.309   8.319
84873SOL    HW256517   0.995   7.439   8.391
84874SOL     OW56518  13.910   5.990  12.359
84874SOL    HW156519  13.991   5.939  12.354
84874SOL    HW256520  13.889   5.993  12.452
84875SOL     OW56521   0.762  11.611  12.920
84875SOL    HW156522   0.779  11.633  13.012
84875SOL    HW256523   0.759  11.696  12.876
84876SOL     OW56524  14.235   9.437   7.643
84876SOL    HW156525  14.268   9.526   7.629
84876SOL    HW256526  14.283   9.405   7.719
84877SOL     OW56527  11.309  12.881   1.324
84877SOL    HW156528  11.220  12.908   1.347
84877SOL    HW256529  11.330  12.931   1.245
84878SOL     OW56530   0.102   4.636   8.473
84878SOL    HW156531   0.119   4.583   8.551
84878SOL    HW256532   0.185   4.638   8.426
84879SOL     OW56533   7.762  13.346   8.842
84879SOL    HW156534   7.687  13.403   8.860
84879SOL    HW256535   7.782  13.361   8.749
84880SOL     OW56536  11.355   5.135   2.672
84880SOL    HW156537  11.445   5.167   2.673
84880SOL    HW256538  11.301   5.213   2.684
84881SOL     OW56539  14.379   8.681  12.093
84881SOL    HW156540  14.405   8.655  12.004
84881SOL    HW256541  14.312   8.747  12.079
84882SOL     OW56542   9.818   0.797   1.829
84882SOL    HW156543   9.813   0.834   1.916
84882SOL    HW256544   9.893   0.841   1.787
84883SOL     OW56545  10.010   5.569   0.754
84883SOL    HW156546   9.991   5.652   0.710
84883SOL    HW256547   9.924   5.531   0.773
84884SOL     OW56548  12.573  11.208   8.994
84884SOL    HW156549  12.614  11.254   8.920
84884SOL    HW256550  12.563  11.275   9.061
84885SOL     OW56551   4.215   9.135   2.657
84885SOL    HW156552   4.157   9.210   2.673
84885SOL    HW256553   4.295   9.158   2.704
84886SOL     OW56554  12.931  14.744   6.112
84886SOL    HW156555  12.906  14.781   6.196
84886SOL    HW256556  12.894  14.656   6.113
84887SOL     OW56557  10.834   5.173   1.752
84887SOL    HW156558  10.900   5.198   1.817
84887SOL    HW256559  10.834   5.078   1.753
84888SOL     OW56560   4.083   6.849   7.356
84888SOL    HW156561   4.157   6.805   7.313
84888SOL    HW256562   4.074   6.931   7.308
84889SOL     OW56563  12.719   4.843   5.813
84889SOL    HW156564  12.711   4.750   5.835
84889SOL    HW256565  12.813   4.857   5.804
84890SOL     OW56566  12.385   3.736   2.853
84890SOL    HW156567  12.396   3.671   2.923
84890SOL    HW256568  12.312   3.702   2.801
84891SOL     OW56569   0.930  14.796  14.628
84891SOL    HW156570   0.918  14.831  14.540
84891SOL    HW256571   0.873  14.850  14.683
84892SOL     OW56572   0.220   3.282   6.634
84892SOL    HW156573   0.235   3.318   6.547
84892SOL    HW256574   0.153   3.338   6.673
84893SOL     OW56575   8.634   6.805   0.687
84893SOL    HW156576   8.603   6.887   0.649
84893SOL    HW256577   8.647   6.824   0.779
84894SOL     OW56578  13.072  13.732   3.707
84894SOL    HW156579  13.023  13.794   3.761
84894SOL    HW256580  13.013  13.657   3.697
84895SOL     OW56581   2.868  14.465  14.795
84895SOL    HW156582   2.882  14.420  14.712
84895SOL    HW256583   2.826  14.400  14.851
84896SOL     OW56584   0.408   4.108  11.431
84896SOL    HW156585   0.316   4.106  11.406
84896SOL    HW256586   0.414   4.049  11.506
84897SOL     OW56587  13.005  11.632  12.423
84897SOL    HW156588  13.000  11.578  12.503
84897SOL    HW256589  13.006  11.722  12.455
84898SOL     OW56590   4.765   0.780   3.710
84898SOL    HW156591   4.716   0.717   3.763
84898SOL    HW256592   4.703   0.809   3.644
84899SOL     OW56593  10.694  11.187   1.937
84899SOL    HW156594  10.608  11.213   1.971
84899SOL    HW256595  10.755  11.205   2.009
84900SOL     OW56596  12.048   8.252  12.348
84900SOL    HW156597  12.089   8.241  12.434
84900SOL    HW256598  12.001   8.335  12.355
84901SOL     OW56599   5.911  12.884   6.584
84901SOL    HW156600   5.921  12.937   6.663
84901SOL    HW256601   5.866  12.941   6.522
84902SOL     OW56602   3.975  10.821  11.261
84902SOL    HW156603   4.059  10.793  11.298
84902SOL    HW256604   3.964  10.767  11.183
84903SOL     OW56605   8.983   1.538   1.957
84903SOL    HW156606   9.016   1.587   2.032
84903SOL    HW256607   8.973   1.449   1.989
84904SOL     OW56608   0.756   6.378   5.820
84904SOL    HW156609   0.817   6.328   5.875
84904SOL    HW256610   0.712   6.437   5.881
84905SOL     OW56611   4.799   6.361   6.559
84905SOL    HW156612   4.843   6.423   6.616
84905SOL    HW256613   4.721   6.407   6.528
84906SOL     OW56614  10.032  10.265   4.129
84906SOL    HW156615  10.055  10.286   4.038
84906SOL    HW256616  10.081  10.185   4.147
84907SOL     OW56617   3.164   4.460   4.628
84907SOL    HW156618   3.160   4.525   4.699
84907SOL    HW256619   3.170   4.376   4.673
84908SOL     OW56620  13.245   4.652   0.909
84908SOL    HW156621  13.187   4.625   0.979
84908SOL    HW256622  13.244   4.579   0.847
84909SOL     OW56623   3.355   6.312  13.579
84909SOL    HW156624   3.395   6.250  13.640
84909SOL    HW256625   3.401   6.395  13.595
84910SOL     OW56626  12.740   7.769  11.188
84910SOL    HW156627  12.723   7.839  11.251
84910SOL    HW256628  12.728   7.811  11.103
84911SOL     OW56629   8.633   2.530   0.919
84911SOL    HW156630   8.599   2.610   0.881
84911SOL    HW256631   8.651   2.474   0.843
84912SOL     OW56632  11.430   1.470   5.391
84912SOL    HW156633  11.377   1.540   5.429
84912SOL    HW256634  11.519   1.505   5.391
84913SOL     OW56635   6.006   8.038   7.796
84913SOL    HW156636   6.086   7.985   7.792
84913SOL    HW256637   5.935   7.975   7.788
84914SOL     OW56638  11.347   1.650   6.524
84914SOL    HW156639  11.399   1.624   6.448
84914SOL    HW256640  11.309   1.568   6.557
84915SOL     OW56641  14.027   7.155   8.042
84915SOL    HW156642  14.004   7.107   7.962
84915SOL    HW256643  13.945   7.197   8.070
84916SOL     OW56644   6.747   8.489   9.507
84916SOL    HW156645   6.713   8.564   9.458
84916SOL    HW256646   6.676   8.425   9.504
84917SOL     OW56647  10.874   2.141  12.827
84917SOL    HW156648  10.857   2.230  12.798
84917SOL    HW256649  10.910   2.097  12.751
84918SOL     OW56650  13.619   3.741  13.265
84918SOL    HW156651  13.687   3.774  13.323
84918SOL    HW256652  13.539   3.785  13.294
84919SOL     OW56653   9.608   5.536   1.471
84919SOL    HW156654   9.588   5.568   1.383
84919SOL    HW256655   9.704   5.532   1.474
84920SOL     OW56656   3.779  14.487  10.513
84920SOL    HW156657   3.763  14.437  10.594
84920SOL    HW256658   3.834  14.561  10.541
84921SOL     OW56659   0.813  10.897  12.073
84921SOL    HW156660   0.787  10.813  12.034
84921SOL    HW256661   0.891  10.923  12.023
84922SOL     OW56662  12.450  14.005  11.720
84922SOL    HW156663  12.454  14.064  11.795
84922SOL    HW256664  12.539  14.004  11.685
84923SOL     OW56665   6.176   2.464   7.737
84923SOL    HW156666   6.255   2.439   7.785
84923SOL    HW256667   6.168   2.399   7.668
84924SOL     OW56668  12.482  12.299   0.427
84924SOL    HW156669  12.455  12.208   0.430
84924SOL    HW256670  12.411  12.347   0.469
84925SOL     OW56671   7.816   9.008   1.419
84925SOL    HW156672   7.842   9.095   1.387
84925SOL    HW256673   7.896   8.956   1.414
84926SOL     OW56674   0.721  14.678  12.995
84926SOL    HW156675   0.689  14.592  12.970
84926SOL    HW256676   0.668  14.703  13.071
84927SOL     OW56677  14.037   2.845   2.428
84927SOL    HW156678  14.001   2.922   2.472
84927SOL    HW256679  13.963   2.785   2.422
84928SOL     OW56680   4.824   3.210   7.135
84928SOL    HW156681   4.793   3.210   7.225
84928SOL    HW256682   4.780   3.284   7.094
84929SOL     OW56683   6.491   2.800  12.850
84929SOL    HW156684   6.489   2.825  12.942
84929SOL    HW256685   6.534   2.714  12.850
84930SOL     OW56686   0.851  13.355   7.176
84930SOL    HW156687   0.863  13.280   7.235
84930SOL    HW256688   0.880  13.324   7.091
84931SOL     OW56689   6.791   0.806   1.761
84931SOL    HW156690   6.829   0.803   1.673
84931SOL    HW256691   6.811   0.895   1.792
84932SOL     OW56692   7.171   5.427   6.215
84932SOL    HW156693   7.264   5.433   6.237
84932SOL    HW256694   7.166   5.358   6.149
84933SOL     OW56695  10.587  14.772   3.105
84933SOL    HW156696  10.634  14.855   3.115
84933SOL    HW256697  10.643  14.707   3.147
84934SOL     OW56698  11.081   8.603  14.797
84934SOL    HW156699  11.169   8.630  14.823
84934SOL    HW256700  11.035   8.686  14.780
84935SOL     OW56701   0.239  11.760   2.353
84935SOL    HW156702   0.147  11.734   2.345
84935SOL    HW256703   0.246  11.838   2.298
84936SOL     OW56704   1.172   7.270  11.490
84936SOL    HW156705   1.238   7.247  11.556
84936SOL    HW256706   1.157   7.364  11.504
84937SOL     OW56707   9.350   7.004  10.588
84937SOL    HW156708   9.405   6.937  10.545
84937SOL    HW256709   9.262   6.967  10.585
84938SOL     OW56710   4.121  14.530   1.213
84938SOL    HW156711   4.168  14.456   1.252
84938SOL    HW256712   4.036  14.495   1.189
84939SOL     OW56713   4.592   7.342  12.816
84939SOL    HW156714   4.554   7.332  12.903
84939SOL    HW256715   4.519   7.327  12.756
84940SOL     OW56716   4.402   0.400  10.725
84940SOL    HW156717   4.393   0.464  10.655
84940SOL    HW256718   4.488   0.417  10.764
84941SOL     OW56719   5.612  10.782   9.688
84941SOL    HW156720   5.537  10.771   9.746
84941SOL    HW256721   5.612  10.704   9.633
84942SOL     OW56722  11.284  10.291   0.087
84942SOL    HW156723  11.253  10.349   0.017
84942SOL    HW256724  11.250  10.205   0.063
84943SOL     OW56725   9.083  11.439   0.437
84943SOL    HW156726   9.176  11.416   0.433
84943SOL    HW256727   9.038  11.356   0.453
84944SOL     OW56728   0.833  13.422  11.110
84944SOL    HW156729   0.829  13.518  11.112
84944SOL    HW256730   0.752  13.396  11.066
84945SOL     OW56731   8.906  11.484   6.368
84945SOL    HW156732   8.884  11.565   6.323
84945SOL    HW256733   8.944  11.512   6.451
84946SOL     OW56734  11.249  10.875   6.761
84946SOL    HW156735  11.335  10.903   6.793
84946SOL    HW256736  11.268  10.801   6.704
84947SOL     OW56737   8.637   4.741  14.738
84947SOL    HW156738   8.548   4.708  14.721
84947SOL    HW256739   8.623   4.822  14.787
84948SOL     OW56740   5.894  12.402   6.201
84948SOL    HW156741   5.892  12.316   6.159
84948SOL    HW256742   5.870  12.464   6.132
84949SOL     OW56743   0.956   1.058   0.441
84949SOL    HW156744   0.928   0.978   0.396
84949SOL    HW256745   0.875   1.098   0.471
84950SOL     OW56746   1.280  12.604   7.195
84950SOL    HW156747   1.309  12.677   7.249
84950SOL    HW256748   1.231  12.646   7.124
84951SOL     OW56749   0.571   6.729  12.581
84951SOL    HW156750   0.512   6.799  12.555
84951SOL    HW256751   0.572   6.670  12.506
84952SOL     OW56752  12.151   4.062   6.124
84952SOL    HW156753  12.071   4.042   6.172
84952SOL    HW256754  12.185   4.141   6.167
84953SOL     OW56755  12.176   4.561   7.557
84953SOL    HW156756  12.129   4.644   7.548
84953SOL    HW256757  12.178   4.544   7.651
84954SOL     OW56758   9.296   1.553  13.103
84954SOL    HW156759   9.358   1.500  13.054
84954SOL    HW256760   9.351   1.602  13.165
84955SOL     OW56761   9.490  10.854   8.226
84955SOL    HW156762   9.522  10.765   8.242
84955SOL    HW256763   9.396  10.848   8.241
84956SOL     OW56764   5.651  11.889  13.438
84956SOL    HW156765   5.742  11.912  13.456
84956SOL    HW256766   5.654  11.839  13.357
84957SOL     OW56767   8.716   1.025   9.178
84957SOL    HW156768   8.707   1.000   9.270
84957SOL    HW256769   8.726   0.943   9.131
84958SOL     OW56770   9.924  14.798  11.891
84958SOL    HW156771   9.936   0.000  11.953
84958SOL    HW256772  10.011  14.784  11.854
84959SOL     OW56773   4.403  13.497   7.453
84959SOL    HW156774   4.473  13.436   7.476
84959SOL    HW256775   4.328  13.468   7.506
84960SOL     OW56776   4.089  11.136   4.847
84960SOL    HW156777   4.100  11.225   4.879
84960SOL    HW256778   4.002  11.111   4.876
84961SOL     OW56779   2.043   8.622  11.949
84961SOL    HW156780   2.115   8.667  11.904
84961SOL    HW256781   2.060   8.529  11.935
84962SOL     OW56782  12.976  10.379   7.503
84962SOL    HW156783  12.912  10.406   7.569
84962SOL    HW256784  13.060  10.380   7.549
84963SOL     OW56785  10.637   2.823   0.985
84963SOL    HW156786  10.649   2.728   0.989
84963SOL    HW256787  10.549   2.837   1.022
84964SOL     OW56788  12.224   7.260   6.303
84964SOL    HW156789  12.231   7.202   6.228
84964SOL    HW256790  12.134   7.249   6.335
84965SOL     OW56791  14.706  11.458   3.291
84965SOL    HW156792  14.645  11.444   3.363
84965SOL    HW256793  14.658  11.516   3.231
84966SOL     OW56794  14.247   6.591  14.603
84966SOL    HW156795  14.265   6.654  14.673
84966SOL    HW256796  14.303   6.619  14.531
84967SOL     OW56797   0.039  14.192   1.200
84967SOL    HW156798   0.014  14.265   1.256
84967SOL    HW256799   0.134  14.185   1.209
84968SOL     OW56800   4.103  10.616   4.995
84968SOL    HW156801   4.025  10.590   4.946
84968SOL    HW256802   4.096  10.711   5.002
84969SOL     OW56803   0.591   4.049   7.234
84969SOL    HW156804   0.654   4.051   7.162
84969SOL    HW256805   0.577   4.141   7.257
84970SOL     OW56806   5.496   5.148   2.564
84970SOL    HW156807   5.421   5.153   2.505
84970SOL    HW256808   5.539   5.066   2.541
84971SOL     OW56809  14.094  12.466   5.616
84971SOL    HW156810  14.036  12.408   5.567
84971SOL    HW256811  14.182  12.434   5.597
84972SOL     OW56812   8.312  12.763   1.720
84972SOL    HW156813   8.256  12.833   1.753
84972SOL    HW256814   8.292  12.688   1.776
84973SOL     OW56815   4.714   1.014   5.990
84973SOL    HW156816   4.628   1.054   5.980
84973SOL    HW256817   4.718   0.948   5.920
84974SOL     OW56818   2.104   6.419   2.687
84974SOL    HW156819   2.186   6.431   2.639
84974SOL    HW256820   2.126   6.359   2.758
84975SOL     OW56821  10.800   5.581   6.003
84975SOL    HW156822  10.833   5.534   5.927
84975SOL    HW256823  10.754   5.656   5.966
84976SOL     OW56824   5.446   6.343  10.024
84976SOL    HW156825   5.438   6.428   9.981
84976SOL    HW256826   5.456   6.280   9.953
84977SOL     OW56827   1.714   9.966  11.465
84977SOL    HW156828   1.776  10.028  11.503
84977SOL    HW256829   1.692  10.002  11.379
84978SOL     OW56830  14.145   3.109   5.549
84978SOL    HW156831  14.141   3.057   5.468
84978SOL    HW256832  14.167   3.045   5.617
84979SOL     OW56833  11.678   2.206   3.695
84979SOL    HW156834  11.666   2.299   3.717
84979SOL    HW256835  11.773   2.196   3.691
84980SOL     OW56836   7.756  10.529   1.398
84980SOL    HW156837   7.779  10.462   1.462
84980SOL    HW256838   7.701  10.484   1.334
84981SOL     OW56839   5.065   8.959   0.914
84981SOL    HW156840   5.105   8.874   0.932
84981SOL    HW256841   5.139   9.020   0.909
84982SOL     OW56842   0.766   6.704   5.777
84982SOL    HW156843   0.826   6.778   5.784
84982SOL    HW256844   0.820   6.632   5.745
84983SOL     OW56845   7.928  13.674   2.408
84983SOL    HW156846   7.988  13.622   2.460
84983SOL    HW256847   7.846  13.674   2.458
84984SOL     OW56848   9.657   6.484  11.185
84984SOL    HW156849   9.633   6.392  11.201
84984SOL    HW256850   9.741   6.479  11.140
84985SOL     OW56851   1.190  12.336   0.718
84985SOL    HW156852   1.253  12.402   0.690
84985SOL    HW256853   1.208  12.260   0.662
84986SOL     OW56854   5.601   5.557   8.973
84986SOL    HW156855   5.610   5.645   9.009
84986SOL    HW256856   5.581   5.502   9.048
84987SOL     OW56857  13.159   1.082   2.891
84987SOL    HW156858  13.158   1.100   2.797
84987SOL    HW256859  13.233   1.023   2.903
84988SOL     OW56860  10.178   7.971   8.042
84988SOL    HW156861  10.191   7.900   8.105
84988SOL    HW256862  10.109   8.024   8.080
84989SOL     OW56863  13.169   7.323   7.214
84989SOL    HW156864  13.131   7.237   7.231
84989SOL    HW256865  13.215   7.345   7.295
84990SOL     OW56866  12.058   3.244  11.009
84990SOL    HW156867  12.106   3.166  11.037
84990SOL    HW256868  11.972   3.234  11.048
84991SOL     OW56869   6.231   6.713   3.445
84991SOL    HW156870   6.299   6.754   3.391
84991SOL    HW256871   6.150   6.756   3.417
84992SOL     OW56872  11.439  13.798  11.867
84992SOL    HW156873  11.373  13.734  11.891
84992SOL    HW256874  11.408  13.880  11.905
84993SOL     OW56875   4.788  11.458   3.763
84993SOL    HW156876   4.809  11.532   3.821
84993SOL    HW256877   4.863  11.400   3.770
84994SOL     OW56878   2.367   7.356   2.415
84994SOL    HW156879   2.457   7.332   2.392
84994SOL    HW256880   2.355   7.444   2.379
84995SOL     OW56881  14.833  12.747   0.636
84995SOL    HW156882  14.756  12.759   0.581
84995SOL    HW256883   0.014  12.828   0.624
84996SOL     OW56884   6.314   4.744   1.297
84996SOL    HW156885   6.264   4.722   1.219
84996SOL    HW256886   6.249   4.750   1.367
84997SOL     OW56887   2.946   4.977  11.915
84997SOL    HW156888   2.926   4.976  12.008
84997SOL    HW256889   2.959   5.070  11.895
84998SOL     OW56890   2.259   0.882  10.104
84998SOL    HW156891   2.177   0.908  10.063
84998SOL    HW256892   2.242   0.795  10.140
84999SOL     OW56893   9.136   2.819   4.526
84999SOL    HW156894   9.167   2.900   4.486
84999SOL    HW256895   9.140   2.836   4.620
85000SOL     OW56896   4.551   4.470  10.374
85000SOL    HW156897   4.586   4.540  10.318
85000SOL    HW256898   4.559   4.391  10.322
85001SOL     OW56899   1.227  12.818   5.344
85001SOL    HW156900   1.143  12.776   5.360
85001SOL    HW256901   1.230  12.890   5.407
85002SOL     OW56902   4.908  10.050  14.695
85002SOL    HW156903   4.950  10.091  14.770
85002SOL    HW256904   4.833  10.106  14.675
85003SOL     OW56905   7.570   2.874   0.581
85003SOL    HW156906   7.479   2.888   0.606
85003SOL    HW256907   7.619   2.886   0.662
85004SOL     OW56908   7.030   1.556   5.994
85004SOL    HW156909   7.033   1.522   6.084
85004SOL    HW256910   7.122   1.561   5.968
85005SOL     OW56911   7.436  12.532  13.050
85005SOL    HW156912   7.433  12.593  12.976
85005SOL    HW256913   7.490  12.460  13.019
85006SOL     OW56914  11.481   6.102   2.538
85006SOL    HW156915  11.526   6.031   2.585
85006SOL    HW256916  11.431   6.147   2.606
85007SOL     OW56917   1.597   2.617   4.630
85007SOL    HW156918   1.580   2.661   4.546
85007SOL    HW256919   1.657   2.546   4.608
85008SOL     OW56920  12.889  12.326   0.121
85008SOL    HW156921  12.952  12.257   0.137
85008SOL    HW256922  12.814  12.304   0.177
85009SOL     OW56923   3.451   9.973  12.462
85009SOL    HW156924   3.436   9.976  12.368
85009SOL    HW256925   3.520   9.907  12.474
85010SOL     OW56926  14.495  10.224  10.817
85010SOL    HW156927  14.448  10.142  10.831
85010SOL    HW256928  14.434  10.292  10.848
85011SOL     OW56929   7.485   4.889   1.606
85011SOL    HW156930   7.503   4.973   1.646
85011SOL    HW256931   7.420   4.907   1.538
85012SOL     OW56932  10.317  13.858   6.815
85012SOL    HW156933  10.402  13.876   6.856
85012SOL    HW256934  10.281  13.785   6.866
85013SOL     OW56935   0.237  12.379  12.338
85013SOL    HW156936   0.240  12.378  12.243
85013SOL    HW256937   0.144  12.369  12.360
85014SOL     OW56938   2.092  13.222  14.057
85014SOL    HW156939   2.042  13.184  14.129
85014SOL    HW256940   2.106  13.149  13.996
85015SOL     OW56941   1.148   6.397   4.566
85015SOL    HW156942   1.153   6.380   4.472
85015SOL    HW256943   1.131   6.491   4.573
85016SOL     OW56944  11.996   4.134  13.922
85016SOL    HW156945  12.079   4.107  13.960
85016SOL    HW256946  11.931   4.117  13.991
85017SOL     OW56947  14.167   3.536  14.621
85017SOL    HW156948  14.084   3.554  14.666
85017SOL    HW256949  14.191   3.448  14.649
85018SOL     OW56950  13.371   9.725   6.350
85018SOL    HW156951  13.335   9.785   6.415
85018SOL    HW256952  13.424   9.781   6.293
85019SOL     OW56953   7.190  10.043   1.775
85019SOL    HW156954   7.173  10.126   1.819
85019SOL    HW256955   7.111   9.990   1.791
85020SOL     OW56956   4.914  10.213  12.772
85020SOL    HW156957   4.917  10.138  12.832
85020SOL    HW256958   4.820  10.232  12.763
85021SOL     OW56959   0.513  10.680   8.853
85021SOL    HW156960   0.504  10.736   8.776
85021SOL    HW256961   0.596  10.635   8.840
85022SOL     OW56962   6.605  14.256   6.696
85022SOL    HW156963   6.643  14.340   6.721
85022SOL    HW256964   6.528  14.247   6.751
85023SOL     OW56965   0.948   2.567   3.661
85023SOL    HW156966   0.869   2.526   3.695
85023SOL    HW256967   0.985   2.502   3.601
85024SOL     OW56968   5.294   6.184  12.698
85024SOL    HW156969   5.221   6.130  12.730
85024SOL    HW256970   5.266   6.214  12.612
85025SOL     OW56971   2.884  11.917   8.347
85025SOL    HW156972   2.882  11.994   8.290
85025SOL    HW256973   2.897  11.952   8.435
85026SOL     OW56974  10.054   1.128  10.523
85026SOL    HW156975  10.101   1.212  10.531
85026SOL    HW256976  10.072   1.083  10.605
85027SOL     OW56977   8.385  12.641   5.997
85027SOL    HW156978   8.403  12.569   5.936
85027SOL    HW256979   8.469  12.660   6.038
85028SOL     OW56980  12.350  14.300   5.286
85028SOL    HW156981  12.276  14.287   5.226
85028SOL    HW256982  12.417  14.239   5.255
85029SOL     OW56983   6.135   4.942   1.170
85029SOL    HW156984   6.082   4.867   1.143
85029SOL    HW256985   6.075   5.016   1.167
85030SOL     OW56986   1.967  11.669   2.939
85030SOL    HW156987   1.980  11.575   2.951
85030SOL    HW256988   1.951  11.702   3.027
85031SOL     OW56989   6.623   8.765   8.033
85031SOL    HW156990   6.659   8.846   7.995
85031SOL    HW256991   6.549   8.744   7.976
85032SOL     OW56992   9.609   0.135   5.799
85032SOL    HW156993   9.635   0.076   5.728
85032SOL    HW256994   9.578   0.213   5.754
85033SOL     OW56995   5.963   1.803   5.777
85033SOL    HW156996   5.962   1.708   5.765
85033SOL    HW256997   6.053   1.824   5.800
85034SOL     OW56998  10.273  10.039   4.326
85034SOL    HW156999  10.345   9.981   4.350
85034SOL    HW257000  10.282  10.050   4.231
85035SOL     OW57001   3.811   2.887   9.142
85035SOL    HW157002   3.716   2.885   9.148
85035SOL    HW257003   3.837   2.795   9.147
85036SOL     OW57004   1.563   4.372  14.184
85036SOL    HW157005   1.547   4.403  14.095
85036SOL    HW257006   1.618   4.294  14.173
85037SOL     OW57007   3.655  10.764   7.875
85037SOL    HW157008   3.643  10.823   7.949
85037SOL    HW257009   3.737  10.791   7.835
85038SOL     OW57010   2.353   2.384   8.913
85038SOL    HW157011   2.419   2.391   8.982
85038SOL    HW257012   2.377   2.452   8.850
85039SOL     OW57013  11.069   2.902   3.880
85039SOL    HW157014  11.003   2.871   3.942
85039SOL    HW257015  11.051   2.852   3.800
85040SOL     OW57016   3.154   2.745   3.465
85040SOL    HW157017   3.236   2.793   3.455
85040SOL    HW257018   3.168   2.665   3.415
85041SOL     OW57019   2.560   1.754   3.657
85041SOL    HW157020   2.585   1.669   3.694
85041SOL    HW257021   2.514   1.732   3.577
85042SOL     OW57022   6.475   2.809  11.426
85042SOL    HW157023   6.500   2.843  11.340
85042SOL    HW257024   6.550   2.756  11.454
85043SOL     OW57025  13.741   8.179   0.219
85043SOL    HW157026  13.705   8.232   0.290
85043SOL    HW257027  13.738   8.235   0.142
85044SOL     OW57028   6.431   5.053   9.794
85044SOL    HW157029   6.512   5.100   9.777
85044SOL    HW257030   6.427   4.986   9.726
85045SOL     OW57031  12.143   9.747  10.422
85045SOL    HW157032  12.088   9.728  10.346
85045SOL    HW257033  12.084   9.786  10.486
85046SOL     OW57034   9.827  11.461  11.375
85046SOL    HW157035   9.739  11.490  11.400
85046SOL    HW257036   9.885  11.498  11.441
85047SOL     OW57037   3.872  12.896   2.386
85047SOL    HW157038   3.819  12.960   2.338
85047SOL    HW257039   3.843  12.811   2.351
85048SOL     OW57040   2.527   0.012  13.614
85048SOL    HW157041   2.513   0.063  13.535
85048SOL    HW257042   2.464   0.048  13.677
85049SOL     OW57043  10.374  12.359   5.331
85049SOL    HW157044  10.412  12.274   5.309
85049SOL    HW257045  10.442  12.404   5.380
85050SOL     OW57046   6.870  12.897  12.688
85050SOL    HW157047   6.890  12.804  12.694
85050SOL    HW257048   6.884  12.931  12.776
85051SOL     OW57049   2.971  12.095   5.968
85051SOL    HW157050   3.045  12.155   5.974
85051SOL    HW257051   2.930  12.098   6.055
85052SOL     OW57052   6.510   1.618  13.944
85052SOL    HW157053   6.588   1.563  13.937
85052SOL    HW257054   6.494   1.648  13.855
85053SOL     OW57055   4.174   4.645   9.834
85053SOL    HW157056   4.153   4.609   9.748
85053SOL    HW257057   4.264   4.618   9.850
85054SOL     OW57058  14.617   0.101   0.766
85054SOL    HW157059  14.570   0.031   0.721
85054SOL    HW257060  14.549   0.161   0.796
85055SOL     OW57061   8.970  14.369   0.540
85055SOL    HW157062   8.982  14.456   0.578
85055SOL    HW257063   9.055  14.346   0.504
85056SOL     OW57064  12.811  13.922   9.572
85056SOL    HW157065  12.876  13.954   9.509
85056SOL    HW257066  12.780  13.840   9.534
85057SOL     OW57067   7.640  13.130  12.243
85057SOL    HW157068   7.626  13.045  12.286
85057SOL    HW257069   7.658  13.190  12.316
85058SOL     OW57070  12.659   6.552  12.077
85058SOL    HW157071  12.660   6.487  12.007
85058SOL    HW257072  12.602   6.622  12.044
85059SOL     OW57073  11.386   5.725   5.482
85059SOL    HW157074  11.451   5.738   5.414
85059SOL    HW257075  11.426   5.664   5.543
85060SOL     OW57076  11.006   8.750   3.585
85060SOL    HW157077  10.983   8.752   3.678
85060SOL    HW257078  10.921   8.755   3.539
85061SOL     OW57079   2.044   5.073   2.235
85061SOL    HW157080   2.123   5.089   2.287
85061SOL    HW257081   1.980   5.135   2.270
85062SOL     OW57082   1.624  11.863  12.674
85062SOL    HW157083   1.556  11.802  12.701
85062SOL    HW257084   1.581  11.923  12.614
85063SOL     OW57085  14.310   2.897   6.450
85063SOL    HW157086  14.353   2.818   6.416
85063SOL    HW257087  14.348   2.968   6.399
85064SOL     OW57088   9.364  14.559   6.399
85064SOL    HW157089   9.274  14.529   6.405
85064SOL    HW257090   9.411  14.510   6.466
85065SOL     OW57091   7.879   0.670   6.612
85065SOL    HW157092   7.929   0.729   6.556
85065SOL    HW257093   7.795   0.659   6.567
85066SOL     OW57094  10.842   3.948  11.511
85066SOL    HW157095  10.884   3.883  11.568
85066SOL    HW257096  10.754   3.959  11.547
85067SOL     OW57097  14.483   3.252  13.700
85067SOL    HW157098  14.547   3.181  13.703
85067SOL    HW257099  14.448   3.249  13.611
85068SOL     OW57100   5.197   4.685   1.823
85068SOL    HW157101   5.148   4.628   1.764
85068SOL    HW257102   5.188   4.773   1.786
85069SOL     OW57103  10.051  11.966  10.660
85069SOL    HW157104  10.118  12.034  10.650
85069SOL    HW257105   9.992  11.980  10.586
85070SOL     OW57106   1.907  12.312   9.514
85070SOL    HW157107   1.862  12.375   9.570
85070SOL    HW257108   1.934  12.242   9.574
85071SOL     OW57109   7.192  13.837  13.574
85071SOL    HW157110   7.216  13.871  13.487
85071SOL    HW257111   7.139  13.907  13.612
85072SOL     OW57112   8.141   9.200   0.024
85072SOL    HW157113   8.211   9.135   0.031
85072SOL    HW257114   8.186   9.282   0.006
85073SOL     OW57115   3.214   6.584   6.606
85073SOL    HW157116   3.282   6.607   6.670
85073SOL    HW257117   3.132   6.591   6.656
85074SOL     OW57118   3.299   1.881   5.937
85074SOL    HW157119   3.320   1.930   5.858
85074SOL    HW257120   3.352   1.920   6.006
85075SOL     OW57121   9.509   8.802   5.613
85075SOL    HW157122   9.563   8.762   5.545
85075SOL    HW257123   9.486   8.888   5.578
85076SOL     OW57124   8.858   3.007  10.544
85076SOL    HW157125   8.855   3.046  10.457
85076SOL    HW257126   8.767   3.005  10.572
85077SOL     OW57127   8.684   8.191   3.890
85077SOL    HW157128   8.718   8.276   3.863
85077SOL    HW257129   8.594   8.190   3.857
85078SOL     OW57130   8.247   6.093   8.329
85078SOL    HW157131   8.253   6.003   8.298
85078SOL    HW257132   8.248   6.086   8.425
85079SOL     OW57133   0.091  11.695   1.110
85079SOL    HW157134  14.868  11.721   1.116
85079SOL    HW257135   0.139  11.772   1.140
85080SOL     OW57136  14.142   8.846   5.274
85080SOL    HW157137  14.080   8.773   5.282
85080SOL    HW257138  14.195   8.841   5.353
85081SOL     OW57139   8.943  11.167   0.003
85081SOL    HW157140   8.975  11.112  14.801
85081SOL    HW257141   8.896  11.107   0.060
85082SOL     OW57142   7.732   3.054   5.398
85082SOL    HW157143   7.735   3.148   5.419
85082SOL    HW257144   7.640   3.030   5.409
85083SOL     OW57145   3.248  10.558   4.018
85083SOL    HW157146   3.236  10.651   4.041
85083SOL    HW257147   3.312  10.526   4.082
85084SOL     OW57148   9.668   2.722   3.712
85084SOL    HW157149   9.618   2.757   3.786
85084SOL    HW257150   9.747   2.775   3.709
85085SOL     OW57151   8.616   4.947   1.042
85085SOL    HW157152   8.699   4.958   0.995
85085SOL    HW257153   8.625   5.002   1.120
85086SOL     OW57154  14.076   9.151   9.626
85086SOL    HW157155  14.141   9.112   9.567
85086SOL    HW257156  14.079   9.244   9.606
85087SOL     OW57157  14.075   5.552  11.218
85087SOL    HW157158  14.002   5.491  11.211
85087SOL    HW257159  14.038   5.629  11.261
85088SOL     OW57160  13.208   8.423   2.787
85088SOL    HW157161  13.278   8.469   2.834
85088SOL    HW257162  13.241   8.413   2.697
85089SOL     OW57163  10.914   9.212   2.113
85089SOL    HW157164  10.960   9.170   2.041
85089SOL    HW257165  10.822   9.209   2.087
85090SOL     OW57166   1.093   6.381   0.125
85090SOL    HW157167   1.150   6.457   0.137
85090SOL    HW257168   1.082   6.375   0.030
85091SOL     OW57169  12.561   9.934   9.536
85091SOL    HW157170  12.624   9.902   9.600
85091SOL    HW257171  12.480   9.945   9.587
85092SOL     OW57172   6.840   0.237   6.228
85092SOL    HW157173   6.851   0.159   6.172
85092SOL    HW257174   6.929   0.258   6.257
85093SOL     OW57175   6.118   7.587   3.084
85093SOL    HW157176   6.197   7.533   3.079
85093SOL    HW257177   6.143   7.669   3.041
85094SOL     OW57178   1.990   8.708   7.166
85094SOL    HW157179   1.925   8.759   7.117
85094SOL    HW257180   2.073   8.752   7.148
85095SOL     OW57181   9.720   9.595   2.992
85095SOL    HW157182   9.815   9.589   2.999
85095SOL    HW257183   9.701   9.579   2.900
85096SOL     OW57184  13.303  12.379  10.640
85096SOL    HW157185  13.361  12.342  10.573
85096SOL    HW257186  13.222  12.327  10.632
85097SOL     OW57187   3.846   2.520   9.003
85097SOL    HW157188   3.829   2.437   9.047
85097SOL    HW257189   3.900   2.569   9.064
85098SOL     OW57190   5.105   3.325   9.172
85098SOL    HW157191   5.167   3.379   9.125
85098SOL    HW257192   5.045   3.388   9.213
85099SOL     OW57193   7.387   7.121   3.417
85099SOL    HW157194   7.296   7.098   3.401
85099SOL    HW257195   7.428   7.039   3.443
85100SOL     OW57196  12.618   7.501   0.734
85100SOL    HW157197  12.540   7.524   0.785
85100SOL    HW257198  12.584   7.472   0.649
85101SOL     OW57199   7.753   4.097   7.704
85101SOL    HW157200   7.785   4.175   7.660
85101SOL    HW257201   7.685   4.129   7.763
85102SOL     OW57202   6.596   2.235   3.614
85102SOL    HW157203   6.690   2.252   3.616
85102SOL    HW257204   6.564   2.266   3.698
85103SOL     OW57205   5.517   3.167  14.516
85103SOL    HW157206   5.609   3.195  14.517
85103SOL    HW257207   5.483   3.194  14.601
85104SOL     OW57208   1.324  14.706   7.559
85104SOL    HW157209   1.356  14.780   7.610
85104SOL    HW257210   1.373  14.710   7.476
85105SOL     OW57211   9.626   7.277   2.710
85105SOL    HW157212   9.611   7.226   2.631
85105SOL    HW257213   9.692   7.341   2.685
85106SOL     OW57214  13.840   7.215  12.730
85106SOL    HW157215  13.785   7.155  12.679
85106SOL    HW257216  13.787   7.294  12.738
85107SOL     OW57217  13.624   2.752   3.229
85107SOL    HW157218  13.599   2.718   3.315
85107SOL    HW257219  13.580   2.837   3.224
85108SOL     OW57220   2.569   7.988  14.416
85108SOL    HW157221   2.588   7.933  14.340
85108SOL    HW257222   2.538   7.926  14.482
85109SOL     OW57223  10.864  14.113  10.783
85109SOL    HW157224  10.936  14.070  10.737
85109SOL    HW257225  10.896  14.200  10.804
85110SOL     OW57226  10.979   9.287   0.995
85110SOL    HW157227  11.032   9.301   1.074
85110SOL    HW257228  10.938   9.372   0.978
85111SOL     OW57229   2.964  14.092   2.177
85111SOL    HW157230   2.950  14.089   2.272
85111SOL    HW257231   2.918  14.014   2.144
85112SOL     OW57232   8.464   5.604   8.957
85112SOL    HW157233   8.446   5.569   9.044
85112SOL    HW257234   8.444   5.532   8.897
85113SOL     OW57235   5.158   3.475   4.064
85113SOL    HW157236   5.114   3.526   4.132
85113SOL    HW257237   5.137   3.522   3.983
85114SOL     OW57238   4.915   3.505   6.228
85114SOL    HW157239   5.005   3.507   6.260
85114SOL    HW257240   4.862   3.483   6.305
85115SOL     OW57241   1.397  12.587  14.362
85115SOL    HW157242   1.468  12.550  14.415
85115SOL    HW257243   1.328  12.607  14.426
85116SOL     OW57244  13.014   3.295   4.886
85116SOL    HW157245  13.095   3.320   4.931
85116SOL    HW257246  13.033   3.207   4.851
85117SOL     OW57247   2.680   1.423   1.755
85117SOL    HW157248   2.687   1.444   1.663
85117SOL    HW257249   2.720   1.336   1.763
85118SOL     OW57250  12.441   4.450  10.133
85118SOL    HW157251  12.347   4.469  10.138
85118SOL    HW257252  12.474   4.510  10.066
85119SOL     OW57253   4.835   3.674  12.949
85119SOL    HW157254   4.778   3.705  13.019
85119SOL    HW257255   4.780   3.613  12.899
85120SOL     OW57256  14.860  14.264  11.651
85120SOL    HW157257  14.799  14.264  11.577
85120SOL    HW257258  14.826  14.332  11.710
85121SOL     OW57259  12.459   8.843  13.309
85121SOL    HW157260  12.532   8.835  13.371
85121SOL    HW257261  12.383   8.812  13.358
85122SOL     OW57262   1.837   2.146   2.631
85122SOL    HW157263   1.865   2.237   2.631
85122SOL    HW257264   1.852   2.115   2.720
85123SOL     OW57265   6.026   7.172  13.490
85123SOL    HW157266   5.965   7.139  13.424
85123SOL    HW257267   6.103   7.199  13.439
85124SOL     OW57268  10.082   3.343   2.177
85124SOL    HW157269  10.056   3.333   2.086
85124SOL    HW257270  10.134   3.424   2.179
85125SOL     OW57271   8.979   5.536   8.880
85125SOL    HW157272   8.991   5.539   8.785
85125SOL    HW257273   8.900   5.587   8.896
85126SOL     OW57274   8.396   6.509   4.867
85126SOL    HW157275   8.316   6.458   4.879
85126SOL    HW257276   8.365   6.594   4.835
85127SOL     OW57277   2.335   9.649  14.768
85127SOL    HW157278   2.338   9.670  14.675
85127SOL    HW257279   2.427   9.653  14.797
85128SOL     OW57280   4.861  11.388   5.583
85128SOL    HW157281   4.814  11.305   5.587
85128SOL    HW257282   4.860  11.419   5.674
85129SOL     OW57283   1.611  12.197   6.931
85129SOL    HW157284   1.663  12.173   7.008
85129SOL    HW257285   1.580  12.114   6.895
85130SOL     OW57286   7.813   3.647   1.712
85130SOL    HW157287   7.825   3.700   1.790
85130SOL    HW257288   7.765   3.570   1.742
85131SOL     OW57289   8.648   3.523   3.413
85131SOL    HW157290   8.614   3.597   3.464
85131SOL    HW257291   8.590   3.450   3.434
85132SOL     OW57292   2.691  12.180   1.188
85132SOL    HW157293   2.693  12.205   1.096
85132SOL    HW257294   2.629  12.107   1.191
85133SOL     OW57295   7.174   3.127  14.541
85133SOL    HW157296   7.086   3.118  14.577
85133SOL    HW257297   7.218   3.045  14.565
85134SOL     OW57298   8.169   6.639   3.702
85134SOL    HW157299   8.258   6.608   3.718
85134SOL    HW257300   8.171   6.674   3.613
85135SOL     OW57301   8.012  10.060   7.865
85135SOL    HW157302   7.973   9.975   7.845
85135SOL    HW257303   7.973  10.086   7.948
85136SOL     OW57304  13.968   0.752  12.738
85136SOL    HW157305  13.990   0.845  12.740
85136SOL    HW257306  13.887   0.747  12.688
85137SOL     OW57307  14.854   1.427   9.684
85137SOL    HW157308   0.041   1.423   9.607
85137SOL    HW257309  14.765   1.427   9.649
85138SOL     OW57310   0.518   3.996   1.964
85138SOL    HW157311   0.452   4.017   1.898
85138SOL    HW257312   0.551   3.910   1.938
85139SOL     OW57313  14.359  13.433  11.659
85139SOL    HW157314  14.279  13.442  11.710
85139SOL    HW257315  14.390  13.344  11.678
85140SOL     OW57316  12.030   5.599   4.659
85140SOL    HW157317  12.055   5.506   4.657
85140SOL    HW257318  11.935   5.598   4.654
85141SOL     OW57319   3.288   6.383   7.498
85141SOL    HW157320   3.282   6.289   7.516
85141SOL    HW257321   3.262   6.392   7.406
85142SOL     OW57322   4.865   5.471   2.256
85142SOL    HW157323   4.947   5.469   2.206
85142SOL    HW257324   4.813   5.399   2.221
85143SOL     OW57325   4.931   1.480   0.999
85143SOL    HW157326   4.920   1.399   1.050
85143SOL    HW257327   5.024   1.499   1.004
85144SOL     OW57328  14.296  14.009   1.134
85144SOL    HW157329  14.216  14.009   1.083
85144SOL    HW257330  14.270  13.975   1.220
85145SOL     OW57331   2.568   9.922  10.412
85145SOL    HW157332   2.618   9.943  10.491
85145SOL    HW257333   2.543   9.830  10.424
85146SOL     OW57334   6.409   4.081   3.102
85146SOL    HW157335   6.447   4.168   3.115
85146SOL    HW257336   6.450   4.048   3.021
85147SOL     OW57337   8.101   4.116  10.756
85147SOL    HW157338   8.026   4.159  10.715
85147SOL    HW257339   8.177   4.161  10.719
85148SOL     OW57340  14.142   2.050  12.678
85148SOL    HW157341  14.166   2.081  12.591
85148SOL    HW257342  14.047   2.043  12.676
85149SOL     OW57343   8.844  10.181   5.657
85149SOL    HW157344   8.935  10.199   5.681
85149SOL    HW257345   8.842  10.192   5.562
85150SOL     OW57346   1.120  13.020  10.005
85150SOL    HW157347   1.202  12.989  10.044
85150SOL    HW257348   1.062  13.033  10.080
85151SOL     OW57349  12.462   3.198   6.071
85151SOL    HW157350  12.408   3.124   6.046
85151SOL    HW257351  12.550   3.163   6.077
85152SOL     OW57352   5.873   7.124  13.272
85152SOL    HW157353   5.879   7.173  13.190
85152SOL    HW257354   5.811   7.053  13.254
85153SOL     OW57355   0.371  11.553  13.781
85153SOL    HW157356   0.416  11.624  13.827
85153SOL    HW257357   0.310  11.597  13.723
85154SOL     OW57358   2.878   8.347   3.771
85154SOL    HW157359   2.843   8.261   3.795
85154SOL    HW257360   2.956   8.357   3.825
85155SOL     OW57361   5.637  13.750   8.208
85155SOL    HW157362   5.547  13.768   8.236
85155SOL    HW257363   5.634  13.755   8.112
85156SOL     OW57364   5.141   2.603   3.440
85156SOL    HW157365   5.193   2.524   3.456
85156SOL    HW257366   5.052   2.579   3.466
85157SOL     OW57367   0.892   8.420   7.164
85157SOL    HW157368   0.824   8.487   7.156
85157SOL    HW257369   0.970   8.461   7.126
85158SOL     OW57370  10.642   2.060   0.733
85158SOL    HW157371  10.620   2.147   0.700
85158SOL    HW257372  10.578   2.045   0.803
85159SOL     OW57373   3.658  12.935   6.334
85159SOL    HW157374   3.589  12.902   6.276
85159SOL    HW257375   3.732  12.952   6.275
85160SOL     OW57376   8.200   0.852   5.873
85160SOL    HW157377   8.137   0.910   5.916
85160SOL    HW257378   8.285   0.889   5.892
85161SOL     OW57379  14.778   3.066   1.299
85161SOL    HW157380  14.826   2.984   1.304
85161SOL    HW257381  14.782   3.091   1.206
85162SOL     OW57382   1.039   3.610   3.016
85162SOL    HW157383   1.016   3.639   2.928
85162SOL    HW257384   0.956   3.605   3.062
85163SOL     OW57385   3.161  12.156   1.461
85163SOL    HW157386   3.081  12.104   1.475
85163SOL    HW257387   3.211  12.146   1.542
85164SOL     OW57388  12.900   4.029  13.046
85164SOL    HW157389  12.805   4.039  13.037
85164SOL    HW257390  12.935   4.051  12.959
85165SOL     OW57391   8.441   7.312  14.249
85165SOL    HW157392   8.399   7.382  14.200
85165SOL    HW257393   8.478   7.356  14.326
85166SOL     OW57394   7.548   1.907  12.337
85166SOL    HW157395   7.504   1.840  12.389
85166SOL    HW257396   7.479   1.972  12.320
85167SOL     OW57397   3.721   3.732   7.809
85167SOL    HW157398   3.788   3.779   7.859
85167SOL    HW257399   3.753   3.642   7.805
85168SOL     OW57400   8.684   1.677   9.302
85168SOL    HW157401   8.717   1.750   9.354
85168SOL    HW257402   8.714   1.599   9.349
85169SOL     OW57403  12.589  12.254  14.124
85169SOL    HW157404  12.636  12.325  14.081
85169SOL    HW257405  12.500  12.288  14.135
85170SOL     OW57406  11.804   7.224   7.945
85170SOL    HW157407  11.871   7.254   7.884
85170SOL    HW257408  11.850   7.164   8.004
85171SOL     OW57409  14.764   9.979   4.035
85171SOL    HW157410  14.716   9.959   4.116
85171SOL    HW257411  14.854   9.995   4.064
85172SOL     OW57412   1.969   7.809  13.657
85172SOL    HW157413   2.054   7.808  13.612
85172SOL    HW257414   1.910   7.850  13.594
85173SOL     OW57415   1.244   8.307  10.307
85173SOL    HW157416   1.313   8.366  10.339
85173SOL    HW257417   1.173   8.317  10.370
85174SOL     OW57418   9.834   8.765   2.281
85174SOL    HW157419   9.814   8.714   2.359
85174SOL    HW257420   9.838   8.856   2.311
85175SOL     OW57421   2.204   7.020  10.396
85175SOL    HW157422   2.265   7.039  10.467
85175SOL    HW257423   2.259   6.985  10.326
85176SOL     OW57424   8.680   7.480   9.971
85176SOL    HW157425   8.682   7.384   9.968
85176SOL    HW257426   8.772   7.506   9.978
85177SOL     OW57427  12.492  11.513   9.011
85177SOL    HW157428  12.453  11.591   8.972
85177SOL    HW257429  12.534  11.468   8.938
85178SOL     OW57430  13.699  11.085   9.016
85178SOL    HW157431  13.722  11.159   8.960
85178SOL    HW257432  13.781  11.037   9.026
85179SOL     OW57433   8.184   1.371   8.443
85179SOL    HW157434   8.160   1.305   8.378
85179SOL    HW257435   8.145   1.452   8.409
85180SOL     OW57436   8.342   2.700   5.596
85180SOL    HW157437   8.426   2.681   5.640
85180SOL    HW257438   8.368   2.739   5.513
85181SOL     OW57439  12.425  11.503   5.355
85181SOL    HW157440  12.370  11.479   5.429
85181SOL    HW257441  12.506  11.535   5.394
85182SOL     OW57442   4.142  13.726   0.219
85182SOL    HW157443   4.047  13.733   0.226
85182SOL    HW257444   4.168  13.802   0.168
85183SOL     OW57445   0.838   5.771   7.176
85183SOL    HW157446   0.929   5.758   7.202
85183SOL    HW257447   0.828   5.719   7.096
85184SOL     OW57448  13.224   8.125   8.466
85184SOL    HW157449  13.296   8.065   8.485
85184SOL    HW257450  13.145   8.075   8.489
85185SOL     OW57451  12.499  10.970   3.653
85185SOL    HW157452  12.583  10.929   3.670
85185SOL    HW257453  12.450  10.960   3.735
85186SOL     OW57454  11.331  13.522   1.975
85186SOL    HW157455  11.421  13.549   1.991
85186SOL    HW257456  11.327  13.431   2.004
85187SOL     OW57457  11.063  14.409   9.598
85187SOL    HW157458  11.032  14.457   9.521
85187SOL    HW257459  10.983  14.390   9.647
85188SOL     OW57460   4.893   7.937   6.692
85188SOL    HW157461   4.857   7.942   6.780
85188SOL    HW257462   4.985   7.912   6.704
85189SOL     OW57463   3.945  11.487  13.596
85189SOL    HW157464   3.961  11.527  13.682
85189SOL    HW257465   3.861  11.443  13.605
85190SOL     OW57466   4.641  14.148   1.707
85190SOL    HW157467   4.616  14.233   1.668
85190SOL    HW257468   4.569  14.127   1.766
85191SOL     OW57469  12.629  10.734   8.874
85191SOL    HW157470  12.568  10.782   8.930
85191SOL    HW257471  12.696  10.702   8.934
85192SOL     OW57472   0.066  12.301   3.507
85192SOL    HW157473  14.855  12.352   3.498
85192SOL    HW257474   0.056  12.230   3.443
85193SOL     OW57475   3.364   9.670  14.245
85193SOL    HW157476   3.418   9.668  14.324
85193SOL    HW257477   3.327   9.582  14.239
85194SOL     OW57478   4.637   4.209   8.349
85194SOL    HW157479   4.568   4.163   8.399
85194SOL    HW257480   4.640   4.163   8.265
85195SOL     OW57481  13.282  12.834  13.767
85195SOL    HW157482  13.303  12.843  13.860
85195SOL    HW257483  13.343  12.768  13.735
85196SOL     OW57484  11.856   5.804   8.842
85196SOL    HW157485  11.837   5.773   8.753
85196SOL    HW257486  11.951   5.817   8.843
85197SOL     OW57487   2.010   1.175   7.728
85197SOL    HW157488   2.099   1.187   7.763
85197SOL    HW257489   2.013   1.218   7.642
85198SOL     OW57490   4.517  11.568   5.999
85198SOL    HW157491   4.524  11.507   5.926
85198SOL    HW257492   4.432  11.609   5.988
85199SOL     OW57493  12.400   2.403  14.241
85199SOL    HW157494  12.369   2.329  14.293
85199SOL    HW257495  12.494   2.388  14.231
85200SOL     OW57496   7.666   5.582   9.694
85200SOL    HW157497   7.750   5.575   9.739
85200SOL    HW257498   7.608   5.623   9.759
85201SOL     OW57499   8.665  12.973  10.020
85201SOL    HW157500   8.579  12.961  10.061
85201SOL    HW257501   8.666  12.910   9.948
85202SOL     OW57502  13.146   5.449   3.650
85202SOL    HW157503  13.102   5.445   3.735
85202SOL    HW257504  13.077   5.471   3.588
85203SOL     OW57505   1.509  11.170  10.852
85203SOL    HW157506   1.423  11.131  10.865
85203SOL    HW257507   1.546  11.177  10.940
85204SOL     OW57508   0.154   9.275   3.667
85204SOL    HW157509   0.158   9.260   3.572
85204SOL    HW257510   0.110   9.360   3.675
85205SOL     OW57511  11.821  11.268   5.581
85205SOL    HW157512  11.850  11.180   5.562
85205SOL    HW257513  11.843  11.282   5.673
85206SOL     OW57514  11.988   0.323   2.169
85206SOL    HW157515  12.079   0.292   2.165
85206SOL    HW257516  11.991   0.411   2.133
85207SOL     OW57517  12.009   5.521  13.860
85207SOL    HW157518  11.937   5.583  13.871
85207SOL    HW257519  12.042   5.536  13.772
85208SOL     OW57520   8.625  14.655  10.305
85208SOL    HW157521   8.674  14.642  10.386
85208SOL    HW257522   8.599  14.567  10.277
85209SOL     OW57523   9.796  10.522  13.038
85209SOL    HW157524   9.784  10.464  13.113
85209SOL    HW257525   9.730  10.494  12.974
85210SOL     OW57526   8.972   7.304   1.073
85210SOL    HW157527   8.954   7.259   0.990
85210SOL    HW257528   9.061   7.337   1.063
85211SOL     OW57529  11.382   6.786  12.117
85211SOL    HW157530  11.287   6.772  12.113
85211SOL    HW257531  11.401   6.843  12.043
85212SOL     OW57532  11.787   3.625  13.156
85212SOL    HW157533  11.826   3.581  13.081
85212SOL    HW257534  11.859   3.636  13.218
85213SOL     OW57535   5.474   2.060   5.714
85213SOL    HW157536   5.504   2.057   5.805
85213SOL    HW257537   5.555   2.070   5.663
85214SOL     OW57538   7.860  10.684   1.693
85214SOL    HW157539   7.815  10.711   1.773
85214SOL    HW257540   7.848  10.589   1.689
85215SOL     OW57541   4.584   3.444   6.802
85215SOL    HW157542   4.647   3.435   6.731
85215SOL    HW257543   4.591   3.363   6.852
85216SOL     OW57544   2.079  14.332   2.639
85216SOL    HW157545   2.043  14.259   2.590
85216SOL    HW257546   2.117  14.389   2.573
85217SOL     OW57547   0.523   4.233  13.387
85217SOL    HW157548   0.435   4.235  13.348
85217SOL    HW257549   0.516   4.289  13.464
85218SOL     OW57550   1.332   3.954   8.220
85218SOL    HW157551   1.400   3.981   8.159
85218SOL    HW257552   1.318   3.861   8.201
85219SOL     OW57553   1.627   0.541   9.799
85219SOL    HW157554   1.585   0.619   9.837
85219SOL    HW257555   1.578   0.467   9.834
85220SOL     OW57556  13.775   7.983   0.413
85220SOL    HW157557  13.761   8.060   0.357
85220SOL    HW257558  13.820   7.920   0.356
85221SOL     OW57559  14.061  11.070   1.431
85221SOL    HW157560  14.001  10.999   1.409
85221SOL    HW257561  14.079  11.059   1.525
85222SOL     OW57562   9.551   1.908   2.687
85222SOL    HW157563   9.618   1.920   2.753
85222SOL    HW257564   9.599   1.899   2.605
85223SOL     OW57565   2.290  10.941  10.605
85223SOL    HW157566   2.357  10.889  10.650
85223SOL    HW257567   2.337  10.988  10.537
85224SOL     OW57568  12.194   5.468   9.325
85224SOL    HW157569  12.143   5.449   9.246
85224SOL    HW257570  12.240   5.386   9.343
85225SOL     OW57571   5.865   3.664  10.113
85225SOL    HW157572   5.843   3.599  10.180
85225SOL    HW257573   5.783   3.680  10.067
85226SOL     OW57574   7.713   3.123   1.109
85226SOL    HW157575   7.686   3.044   1.155
85226SOL    HW257576   7.635   3.152   1.061
85227SOL     OW57577  13.625  14.524   3.292
85227SOL    HW157578  13.673  14.603   3.264
85227SOL    HW257579  13.645  14.516   3.386
85228SOL     OW57580   6.606   5.019   8.739
85228SOL    HW157581   6.624   5.000   8.831
85228SOL    HW257582   6.615   5.114   8.732
85229SOL     OW57583   9.763   9.314  11.258
85229SOL    HW157584   9.746   9.229  11.298
85229SOL    HW257585   9.858   9.318  11.249
85230SOL     OW57586   5.909   4.842  14.057
85230SOL    HW157587   5.923   4.799  14.141
85230SOL    HW257588   5.883   4.771  13.998
85231SOL     OW57589   0.632   7.403   2.735
85231SOL    HW157590   0.572   7.453   2.790
85231SOL    HW257591   0.632   7.449   2.651
85232SOL     OW57592  14.161   8.848  12.068
85232SOL    HW157593  14.129   8.846  11.978
85232SOL    HW257594  14.083   8.835  12.122
85233SOL     OW57595  13.058  10.153  13.622
85233SOL    HW157596  13.132  10.092  13.616
85233SOL    HW257597  13.037  10.174  13.531
85234SOL     OW57598  10.455   2.014   0.929
85234SOL    HW157599  10.398   1.943   0.902
85234SOL    HW257600  10.462   2.004   1.024
85235SOL     OW57601   4.508   6.104   0.478
85235SOL    HW157602   4.594   6.144   0.490
85235SOL    HW257603   4.511   6.069   0.389
85236SOL     OW57604   3.966   1.009   0.938
85236SOL    HW157605   3.963   0.947   1.011
85236SOL    HW257606   3.920   1.087   0.971
85237SOL     OW57607   2.565   3.195   8.357
85237SOL    HW157608   2.600   3.265   8.412
85237SOL    HW257609   2.637   3.133   8.348
85238SOL     OW57610  12.903   6.779   9.491
85238SOL    HW157611  12.808   6.772   9.491
85238SOL    HW257612  12.933   6.707   9.546
85239SOL     OW57613   9.527   5.281   4.746
85239SOL    HW157614   9.585   5.219   4.702
85239SOL    HW257615   9.476   5.320   4.676
85240SOL     OW57616   9.895  14.757  14.147
85240SOL    HW157617   9.986  14.787  14.155
85240SOL    HW257618   9.871  14.779  14.057
85241SOL     OW57619   2.161   6.414   9.906
85241SOL    HW157620   2.082   6.444   9.951
85241SOL    HW257621   2.232   6.464   9.945
85242SOL     OW57622  14.207   0.670  10.086
85242SOL    HW157623  14.288   0.682  10.036
85242SOL    HW257624  14.213   0.581  10.120
85243SOL     OW57625   2.542   2.561   9.350
85243SOL    HW157626   2.470   2.504   9.377
85243SOL    HW257627   2.500   2.645   9.330
85244SOL     OW57628  11.159   4.230   9.820
85244SOL    HW157629  11.195   4.160   9.874
85244SOL    HW257630  11.207   4.224   9.737
85245SOL     OW57631   6.009  13.917  12.590
85245SOL    HW157632   6.039  13.838  12.636
85245SOL    HW257633   6.087  13.972  12.582
85246SOL     OW57634   9.169  10.001  11.772
85246SOL    HW157635   9.151   9.907  11.777
85246SOL    HW257636   9.177  10.029  11.863
85247SOL     OW57637  12.872  13.507  13.162
85247SOL    HW157638  12.962  13.508  13.130
85247SOL    HW257639  12.822  13.464  13.093
85248SOL     OW57640   4.587   8.360  10.585
85248SOL    HW157641   4.656   8.311  10.542
85248SOL    HW257642   4.506   8.328  10.546
85249SOL     OW57643   1.249  14.082  10.246
85249SOL    HW157644   1.320  14.018  10.254
85249SOL    HW257645   1.272  14.134  10.169
85250SOL     OW57646  11.456  13.233   7.664
85250SOL    HW157647  11.514  13.308   7.651
85250SOL    HW257648  11.500  13.180   7.731
85251SOL     OW57649   9.858   9.843   0.218
85251SOL    HW157650   9.931   9.793   0.254
85251SOL    HW257651   9.814   9.880   0.295
85252SOL     OW57652   7.060  13.527   3.523
85252SOL    HW157653   7.043  13.620   3.512
85252SOL    HW257654   7.034  13.508   3.613
85253SOL     OW57655  10.419   9.088   5.021
85253SOL    HW157656  10.333   9.125   5.000
85253SOL    HW257657  10.406   8.993   5.018
85254SOL     OW57658  12.009   1.140   9.787
85254SOL    HW157659  11.963   1.195   9.852
85254SOL    HW257660  12.051   1.072   9.839
85255SOL     OW57661  14.721   7.789  11.862
85255SOL    HW157662  14.782   7.783  11.935
85255SOL    HW257663  14.714   7.699  11.829
85256SOL     OW57664   8.635   4.681   3.559
85256SOL    HW157665   8.660   4.625   3.485
85256SOL    HW257666   8.671   4.767   3.537
85257SOL     OW57667  11.879  10.534   3.789
85257SOL    HW157668  11.948  10.588   3.750
85257SOL    HW257669  11.922  10.450   3.807
85258SOL     OW57670   3.475  14.564  14.340
85258SOL    HW157671   3.417  14.636  14.315
85258SOL    HW257672   3.420  14.507  14.394
85259SOL     OW57673  12.458   6.609   1.461
85259SOL    HW157674  12.388   6.584   1.522
85259SOL    HW257675  12.527   6.544   1.476
85260SOL     OW57676  13.716  13.782  13.882
85260SOL    HW157677  13.808  13.757  13.868
85260SOL    HW257678  13.690  13.732  13.960
85261SOL     OW57679   1.491   5.371   9.544
85261SOL    HW157680   1.454   5.423   9.473
85261SOL    HW257681   1.439   5.291   9.545
85262SOL     OW57682  11.133   3.797   3.323
85262SOL    HW157683  11.048   3.837   3.304
85262SOL    HW257684  11.156   3.829   3.410
85263SOL     OW57685   1.411  11.477   0.739
85263SOL    HW157686   1.363  11.433   0.669
85263SOL    HW257687   1.403  11.570   0.717
85264SOL     OW57688  10.788   0.716   1.925
85264SOL    HW157689  10.844   0.678   1.857
85264SOL    HW257690  10.767   0.804   1.892
85265SOL     OW57691   4.759   9.746   4.076
85265SOL    HW157692   4.725   9.818   4.129
85265SOL    HW257693   4.852   9.767   4.064
85266SOL     OW57694   8.233  11.421   5.895
85266SOL    HW157695   8.190  11.403   5.812
85266SOL    HW257696   8.326  11.428   5.873
85267SOL     OW57697   8.626   5.270   9.097
85267SOL    HW157698   8.578   5.326   9.036
85267SOL    HW257699   8.564   5.253   9.169
85268SOL     OW57700  14.231  12.192   7.554
85268SOL    HW157701  14.264  12.280   7.533
85268SOL    HW257702  14.136  12.201   7.553
85269SOL     OW57703   0.303   0.123   2.858
85269SOL    HW157704   0.342   0.192   2.804
85269SOL    HW257705   0.224   0.097   2.810
85270SOL     OW57706  12.758   2.636  10.224
85270SOL    HW157707  12.799   2.575  10.285
85270SOL    HW257708  12.830   2.681  10.181
85271SOL     OW57709  11.487  13.503  12.934
85271SOL    HW157710  11.409  13.513  12.988
85271SOL    HW257711  11.516  13.593  12.916
85272SOL     OW57712   1.052  14.145   0.515
85272SOL    HW157713   1.095  14.229   0.528
85272SOL    HW257714   1.036  14.112   0.604
85273SOL     OW57715   0.178   8.971   8.794
85273SOL    HW157716   0.166   8.880   8.766
85273SOL    HW257717   0.176   9.022   8.713
85274SOL     OW57718   3.010  13.560   0.163
85274SOL    HW157719   3.058  13.538   0.243
85274SOL    HW257720   2.931  13.507   0.168
85275SOL     OW57721   3.203   2.497  13.028
85275SOL    HW157722   3.133   2.562  13.023
85275SOL    HW257723   3.259   2.527  13.100
85276SOL     OW57724  12.257  14.289   1.472
85276SOL    HW157725  12.216  14.290   1.386
85276SOL    HW257726  12.256  14.381   1.500
85277SOL     OW57727   4.993   4.905   4.596
85277SOL    HW157728   4.952   4.953   4.668
85277SOL    HW257729   5.086   4.904   4.618
85278SOL     OW57730  13.830  11.761   4.063
85278SOL    HW157731  13.813  11.737   3.972
85278SOL    HW257732  13.888  11.691   4.095
85279SOL     OW57733  12.330   4.699   6.522
85279SOL    HW157734  12.345   4.612   6.558
85279SOL    HW257735  12.385   4.757   6.575
85280SOL     OW57736  10.328   1.534   2.209
85280SOL    HW157737  10.268   1.463   2.230
85280SOL    HW257738  10.408   1.489   2.180
85281SOL     OW57739   7.792   0.370  11.931
85281SOL    HW157740   7.787   0.275  11.933
85281SOL    HW257741   7.757   0.397  12.016
85282SOL     OW57742  12.593   8.165   1.301
85282SOL    HW157743  12.660   8.120   1.252
85282SOL    HW257744  12.510   8.133   1.264
85283SOL     OW57745   7.860   8.645   6.183
85283SOL    HW157746   7.863   8.692   6.267
85283SOL    HW257747   7.771   8.610   6.179
85284SOL     OW57748   6.317   0.151   9.173
85284SOL    HW157749   6.301   0.111   9.087
85284SOL    HW257750   6.321   0.245   9.156
85285SOL     OW57751   3.162  10.254  14.024
85285SOL    HW157752   3.180  10.338  13.983
85285SOL    HW257753   3.104  10.209  13.963
85286SOL     OW57754   4.512   4.182   6.435
85286SOL    HW157755   4.518   4.255   6.374
85286SOL    HW257756   4.569   4.114   6.398
85287SOL     OW57757   7.211   5.639   9.677
85287SOL    HW157758   7.209   5.592   9.594
85287SOL    HW257759   7.174   5.577   9.740
85288SOL     OW57760  13.453   2.199   3.860
85288SOL    HW157761  13.522   2.137   3.883
85288SOL    HW257762  13.428   2.239   3.944
85289SOL     OW57763  12.100   2.248  10.822
85289SOL    HW157764  12.096   2.335  10.861
85289SOL    HW257765  12.086   2.189  10.896
85290SOL     OW57766   6.773  11.245   3.082
85290SOL    HW157767   6.697  11.230   3.138
85290SOL    HW257768   6.848  11.221   3.136
85291SOL     OW57769  12.101   4.944   6.463
85291SOL    HW157770  12.042   5.016   6.442
85291SOL    HW257771  12.180   4.963   6.413
85292SOL     OW57772  12.416   2.570   2.236
85292SOL    HW157773  12.323   2.552   2.223
85292SOL    HW257774  12.436   2.640   2.173
85293SOL     OW57775  13.035   7.221  12.223
85293SOL    HW157776  13.005   7.137  12.258
85293SOL    HW257777  12.989   7.286  12.276
85294SOL     OW57778   9.197   8.110   3.931
85294SOL    HW157779   9.136   8.142   3.997
85294SOL    HW257780   9.169   8.020   3.913
85295SOL     OW57781  11.978   5.848   5.046
85295SOL    HW157782  12.032   5.924   5.070
85295SOL    HW257783  12.029   5.802   4.981
85296SOL     OW57784  11.424  14.045  11.470
85296SOL    HW157785  11.345  14.039  11.523
85296SOL    HW257786  11.480  13.975  11.503
85297SOL     OW57787   6.213  12.644  11.343
85297SOL    HW157788   6.184  12.553  11.352
85297SOL    HW257789   6.287  12.640  11.283
85298SOL     OW57790  10.046  10.860   9.883
85298SOL    HW157791  10.062  10.873   9.789
85298SOL    HW257792  10.114  10.911   9.926
85299SOL     OW57793  13.899   4.187   3.437
85299SOL    HW157794  13.988   4.150   3.433
85299SOL    HW257795  13.869   4.167   3.526
85300SOL     OW57796   9.618   9.433   6.679
85300SOL    HW157797   9.698   9.381   6.665
85300SOL    HW257798   9.631   9.511   6.625
85301SOL     OW57799   1.567  13.627   0.364
85301SOL    HW157800   1.656  13.599   0.344
85301SOL    HW257801   1.539  13.675   0.286
85302SOL     OW57802  12.538  14.439   3.281
85302SOL    HW157803  12.511  14.512   3.226
85302SOL    HW257804  12.521  14.469   3.371
85303SOL     OW57805   3.426   7.354   1.503
85303SOL    HW157806   3.362   7.321   1.566
85303SOL    HW257807   3.395   7.320   1.419
85304SOL     OW57808  13.578   3.504  11.011
85304SOL    HW157809  13.666   3.492  11.045
85304SOL    HW257810  13.551   3.417  10.982
85305SOL     OW57811  11.173  11.758   5.374
85305SOL    HW157812  11.187  11.733   5.283
85305SOL    HW257813  11.088  11.719   5.397
85306SOL     OW57814  13.695  11.532   7.623
85306SOL    HW157815  13.720  11.451   7.579
85306SOL    HW257816  13.742  11.529   7.706
85307SOL     OW57817   4.491   8.441   8.196
85307SOL    HW157818   4.460   8.436   8.105
85307SOL    HW257819   4.570   8.494   8.192
85308SOL     OW57820   2.891  10.350  12.935
85308SOL    HW157821   2.952  10.416  12.903
85308SOL    HW257822   2.807  10.375  12.897
85309SOL     OW57823   3.149  11.448   2.234
85309SOL    HW157824   3.193  11.532   2.227
85309SOL    HW257825   3.057  11.470   2.248
85310SOL     OW57826   3.762   1.189  14.202
85310SOL    HW157827   3.857   1.194  14.196
85310SOL    HW257828   3.732   1.279  14.194
85311SOL     OW57829   6.859   0.208   2.759
85311SOL    HW157830   6.817   0.207   2.845
85311SOL    HW257831   6.943   0.164   2.774
85312SOL     OW57832  10.732   9.669  11.779
85312SOL    HW157833  10.807   9.701  11.729
85312SOL    HW257834  10.748   9.698  11.869
85313SOL     OW57835   0.526   1.806   7.039
85313SOL    HW157836   0.509   1.719   7.003
85313SOL    HW257837   0.603   1.794   7.095
85314SOL     OW57838  11.489  13.037  14.720
85314SOL    HW157839  11.409  13.085  14.743
85314SOL    HW257840  11.560  13.088  14.759
85315SOL     OW57841   2.156   6.985  12.876
85315SOL    HW157842   2.170   6.919  12.943
85315SOL    HW257843   2.220   6.965  12.808
85316SOL     OW57844  10.441   5.803  12.267
85316SOL    HW157845  10.445   5.839  12.178
85316SOL    HW257846  10.347   5.793  12.285
85317SOL     OW57847   7.408   5.422   2.892
85317SOL    HW157848   7.420   5.371   2.812
85317SOL    HW257849   7.447   5.507   2.872
85318SOL     OW57850  13.446   4.986   8.532
85318SOL    HW157851  13.383   4.962   8.600
85318SOL    HW257852  13.496   4.907   8.515
85319SOL     OW57853  10.881   6.006   9.784
85319SOL    HW157854  10.786   5.993   9.782
85319SOL    HW257855  10.897   6.078   9.724
85320SOL     OW57856   4.378  14.561   0.136
85320SOL    HW157857   4.335  14.603   0.211
85320SOL    HW257858   4.331  14.595   0.060
85321SOL     OW57859  10.340   6.738   2.449
85321SOL    HW157860  10.248   6.739   2.421
85321SOL    HW257861  10.354   6.648   2.479
85322SOL     OW57862   1.879  13.444   7.633
85322SOL    HW157863   1.804  13.484   7.588
85322SOL    HW257864   1.950  13.507   7.624
85323SOL     OW57865  10.986   2.775   8.295
85323SOL    HW157866  10.960   2.866   8.279
85323SOL    HW257867  10.940   2.724   8.229
85324SOL     OW57868   7.184   7.227  14.375
85324SOL    HW157869   7.167   7.319  14.358
85324SOL    HW257870   7.120   7.180  14.322
85325SOL     OW57871   8.650  11.167   2.295
85325SOL    HW157872   8.570  11.178   2.346
85325SOL    HW257873   8.621  11.169   2.204
85326SOL     OW57874   8.533   0.807   5.827
85326SOL    HW157875   8.568   0.719   5.817
85326SOL    HW257876   8.598   0.854   5.878
85327SOL     OW57877  14.794  13.297   6.267
85327SOL    HW157878  14.862  13.346   6.314
85327SOL    HW257879  14.712  13.336   6.298
85328SOL     OW57880   6.542   4.546   4.528
85328SOL    HW157881   6.525   4.539   4.622
85328SOL    HW257882   6.628   4.506   4.515
85329SOL     OW57883  12.777   7.441  14.056
85329SOL    HW157884  12.754   7.352  14.029
85329SOL    HW257885  12.699   7.473  14.101
85330SOL     OW57886  12.250  10.069  14.280
85330SOL    HW157887  12.210  10.133  14.339
85330SOL    HW257888  12.184  10.054  14.212
85331SOL     OW57889  10.118   5.339   4.345
85331SOL    HW157890  10.172   5.407   4.305
85331SOL    HW257891  10.046   5.325   4.283
85332SOL     OW57892  13.595   1.908  12.243
85332SOL    HW157893  13.592   1.911  12.338
85332SOL    HW257894  13.564   1.820  12.220
85333SOL     OW57895  14.002  11.934   2.358
85333SOL    HW157896  13.952  12.005   2.318
85333SOL    HW257897  14.014  11.870   2.288
85334SOL     OW57898   2.250  13.440   5.219
85334SOL    HW157899   2.167  13.475   5.252
85334SOL    HW257900   2.239  13.438   5.124
85335SOL     OW57901   7.524  11.669   1.603
85335SOL    HW157902   7.502  11.582   1.634
85335SOL    HW257903   7.617  11.680   1.624
85336SOL     OW57904   8.788   5.012   4.796
85336SOL    HW157905   8.729   5.000   4.871
85336SOL    HW257906   8.821   5.101   4.805
85337SOL     OW57907   9.716   5.920   7.410
85337SOL    HW157908   9.643   5.918   7.473
85337SOL    HW257909   9.709   5.836   7.364
85338SOL     OW57910   0.441   4.352  11.554
85338SOL    HW157911   0.407   4.409  11.485
85338SOL    HW257912   0.420   4.263  11.525
85339SOL     OW57913  14.103  11.820   1.571
85339SOL    HW157914  14.172  11.755   1.561
85339SOL    HW257915  14.138  11.882   1.636
85340SOL     OW57916   4.717  10.348   4.168
85340SOL    HW157917   4.668  10.269   4.192
85340SOL    HW257918   4.729  10.341   4.074
85341SOL     OW57919  12.698   4.387   2.315
85341SOL    HW157920  12.625   4.340   2.354
85341SOL    HW257921  12.661   4.424   2.234
85342SOL     OW57922  12.861  14.453   8.341
85342SOL    HW157923  12.956  14.448   8.349
85342SOL    HW257924  12.830  14.365   8.364
85343SOL     OW57925   3.354  10.151   7.248
85343SOL    HW157926   3.389  10.113   7.167
85343SOL    HW257927   3.308  10.079   7.291
85344SOL     OW57928   1.217   3.937   6.444
85344SOL    HW157929   1.210   4.005   6.377
85344SOL    HW257930   1.307   3.907   6.439
85345SOL     OW57931   6.217   0.220  13.752
85345SOL    HW157932   6.257   0.181  13.674
85345SOL    HW257933   6.123   0.212  13.737
85346SOL     OW57934  12.045  10.718  11.551
85346SOL    HW157935  12.088  10.763  11.478
85346SOL    HW257936  11.955  10.704  11.521
85347SOL     OW57937   5.918   4.539  11.406
85347SOL    HW157938   5.856   4.478  11.445
85347SOL    HW257939   5.986   4.551  11.473
85348SOL     OW57940   7.128   1.830   8.236
85348SOL    HW157941   7.218   1.829   8.203
85348SOL    HW257942   7.081   1.888   8.176
85349SOL     OW57943   6.111   0.407   8.631
85349SOL    HW157944   6.114   0.459   8.550
85349SOL    HW257945   6.185   0.438   8.683
85350SOL     OW57946   2.881  14.770   3.404
85350SOL    HW157947   2.880  14.746   3.497
85350SOL    HW257948   2.974  14.782   3.384
85351SOL     OW57949  13.212   1.919   7.661
85351SOL    HW157950  13.218   1.964   7.745
85351SOL    HW257951  13.121   1.932   7.633
85352SOL     OW57952   3.715   7.904   7.037
85352SOL    HW157953   3.700   7.996   7.016
85352SOL    HW257954   3.795   7.881   6.990
85353SOL     OW57955   2.796  11.194   5.310
85353SOL    HW157956   2.758  11.235   5.387
85353SOL    HW257957   2.747  11.112   5.300
85354SOL     OW57958   7.090  10.781   5.817
85354SOL    HW157959   7.070  10.736   5.735
85354SOL    HW257960   7.146  10.854   5.791
85355SOL     OW57961   5.588  13.043   4.215
85355SOL    HW157962   5.628  13.091   4.143
85355SOL    HW257963   5.557  13.112   4.275
85356SOL     OW57964   9.328   8.761   0.597
85356SOL    HW157965   9.380   8.720   0.666
85356SOL    HW257966   9.311   8.850   0.629
85357SOL     OW57967   6.458   1.033   0.705
85357SOL    HW157968   6.548   1.001   0.711
85357SOL    HW257969   6.420   1.014   0.791
85358SOL     OW57970   3.156   9.558   9.042
85358SOL    HW157971   3.169   9.653   9.040
85358SOL    HW257972   3.065   9.546   9.068
85359SOL     OW57973   7.280   2.893  10.966
85359SOL    HW157974   7.248   2.959  11.028
85359SOL    HW257975   7.258   2.809  11.007
85360SOL     OW57976   2.929  10.840   8.097
85360SOL    HW157977   2.961  10.750   8.103
85360SOL    HW257978   2.935  10.861   8.003
85361SOL     OW57979   5.832   9.180   0.520
85361SOL    HW157980   5.769   9.122   0.564
85361SOL    HW257981   5.833   9.149   0.429
85362SOL     OW57982  12.459  13.707   3.220
85362SOL    HW157983  12.418  13.673   3.140
85362SOL    HW257984  12.552  13.714   3.198
85363SOL     OW57985   3.037  14.078   2.687
85363SOL    HW157986   3.107  14.060   2.750
85363SOL    HW257987   2.960  14.095   2.740
85364SOL     OW57988   1.061   1.186  10.020
85364SOL    HW157989   1.143   1.173  10.069
85364SOL    HW257990   1.080   1.258   9.960
85365SOL     OW57991  10.644   7.014   8.489
85365SOL    HW157992  10.737   7.023   8.506
85365SOL    HW257993  10.613   7.103   8.473
85366SOL     OW57994   0.775   0.329   2.024
85366SOL    HW157995   0.810   0.275   1.953
85366SOL    HW257996   0.852   0.377   2.057
85367SOL     OW57997   2.258  13.279   2.014
85367SOL    HW157998   2.300  13.259   1.930
85367SOL    HW257999   2.258  13.375   2.018
85368SOL     OW58000   7.787  12.360   1.070
85368SOL    HW158001   7.798  12.328   1.160
85368SOL    HW258002   7.711  12.311   1.037
85369SOL     OW58003   4.094  10.245   7.956
85369SOL    HW158004   4.008  10.203   7.951
85369SOL    HW258005   4.083  10.328   7.910
85370SOL     OW58006   3.800   1.906   0.447
85370SOL    HW158007   3.728   1.851   0.419
85370SOL    HW258008   3.873   1.846   0.462
85371SOL     OW58009  13.733   9.499  12.095
85371SOL    HW158010  13.779   9.423  12.130
85371SOL    HW258011  13.786   9.574  12.121
85372SOL     OW58012   1.068  10.607   7.241
85372SOL    HW158013   1.145  10.659   7.261
85372SOL    HW258014   1.047  10.629   7.150
85373SOL     OW58015   2.028   0.868   8.038
85373SOL    HW158016   2.001   0.892   8.126
85373SOL    HW258017   2.075   0.946   8.006
85374SOL     OW58018   4.596  10.414   7.070
85374SOL    HW158019   4.676  10.422   7.122
85374SOL    HW258020   4.526  10.406   7.135
85375SOL     OW58021  13.371  13.807   6.229
85375SOL    HW158022  13.349  13.900   6.242
85375SOL    HW258023  13.347  13.766   6.312
85376SOL     OW58024  10.120  14.042  14.837
85376SOL    HW158025  10.062  14.056   0.043
85376SOL    HW258026  10.086  13.964  14.795
85377SOL     OW58027   4.251  10.468   0.908
85377SOL    HW158028   4.188  10.401   0.882
85377SOL    HW258029   4.256  10.460   1.004
85378SOL     OW58030  12.387  13.901   8.936
85378SOL    HW158031  12.430  13.817   8.951
85378SOL    HW258032  12.317  13.882   8.874
85379SOL     OW58033  11.194  11.367  12.717
85379SOL    HW158034  11.146  11.286  12.733
85379SOL    HW258035  11.167  11.393  12.628
85380SOL     OW58036   4.288  14.525   2.451
85380SOL    HW158037   4.350  14.469   2.405
85380SOL    HW258038   4.209  14.524   2.396
85381SOL     OW58039   1.660   5.550   6.838
85381SOL    HW158040   1.706   5.532   6.921
85381SOL    HW258041   1.670   5.644   6.825
85382SOL     OW58042   1.891   8.784   8.820
85382SOL    HW158043   1.955   8.769   8.890
85382SOL    HW258044   1.915   8.869   8.784
85383SOL     OW58045  12.690   7.675  10.831
85383SOL    HW158046  12.600   7.703  10.817
85383SOL    HW258047  12.717   7.720  10.911
85384SOL     OW58048   5.670   8.577  13.066
85384SOL    HW158049   5.713   8.637  13.006
85384SOL    HW258050   5.652   8.499  13.014
85385SOL     OW58051   6.650  11.583   5.468
85385SOL    HW158052   6.606  11.619   5.546
85385SOL    HW258053   6.739  11.617   5.473
85386SOL     OW58054   9.658   9.299   1.656
85386SOL    HW158055   9.652   9.325   1.748
85386SOL    HW258056   9.717   9.362   1.616
85387SOL     OW58057   7.948   7.802   4.753
85387SOL    HW158058   8.031   7.844   4.730
85387SOL    HW258059   7.941   7.813   4.848
85388SOL     OW58060   4.017   5.737   9.310
85388SOL    HW158061   3.937   5.716   9.357
85388SOL    HW258062   4.081   5.673   9.341
85389SOL     OW58063  11.871  10.317  14.488
85389SOL    HW158064  11.948  10.342  14.539
85389SOL    HW258065  11.881  10.363  14.405
85390SOL     OW58066  12.279   4.448   4.553
85390SOL    HW158067  12.290   4.468   4.646
85390SOL    HW258068  12.327   4.517   4.508
85391SOL     OW58069   7.295   9.417  11.513
85391SOL    HW158070   7.240   9.340  11.500
85391SOL    HW258071   7.321   9.413  11.605
85392SOL     OW58072  13.778   2.915   7.780
85392SOL    HW158073  13.858   2.941   7.735
85392SOL    HW258074  13.719   2.990   7.771
85393SOL     OW58075   6.038  10.319  12.030
85393SOL    HW158076   6.095  10.386  11.994
85393SOL    HW258077   6.015  10.264  11.955
85394SOL     OW58078   9.490  13.039   4.154
85394SOL    HW158079   9.424  12.978   4.117
85394SOL    HW258080   9.444  13.122   4.160
85395SOL     OW58081  10.638   6.153   2.504
85395SOL    HW158082  10.731   6.172   2.502
85395SOL    HW258083  10.629   6.086   2.572
85396SOL     OW58084   8.484   4.751   3.299
85396SOL    HW158085   8.495   4.692   3.373
85396SOL    HW258086   8.407   4.716   3.253
85397SOL     OW58087   1.639   3.199   9.909
85397SOL    HW158088   1.710   3.261   9.889
85397SOL    HW258089   1.680   3.135   9.967
85398SOL     OW58090   4.259   6.678  11.146
85398SOL    HW158091   4.329   6.698  11.208
85398SOL    HW258092   4.197   6.624  11.195
85399SOL     OW58093  10.444   3.341   3.478
85399SOL    HW158094  10.433   3.275   3.409
85399SOL    HW258095  10.528   3.383   3.458
85400SOL     OW58096   4.950   0.231   1.125
85400SOL    HW158097   4.888   0.232   1.053
85400SOL    HW258098   5.029   0.191   1.088
85401SOL     OW58099   1.662   9.382  13.052
85401SOL    HW158100   1.627   9.471  13.060
85401SOL    HW258101   1.741   9.393  12.999
85402SOL     OW58102  13.160   9.857   7.663
85402SOL    HW158103  13.160   9.781   7.605
85402SOL    HW258104  13.248   9.859   7.701
85403SOL     OW58105   0.084   8.906   0.202
85403SOL    HW158106   0.150   8.975   0.197
85403SOL    HW258107   0.120   8.835   0.149
85404SOL     OW58108  12.709   5.726   2.202
85404SOL    HW158109  12.780   5.713   2.139
85404SOL    HW258110  12.694   5.820   2.202
85405SOL     OW58111   4.875   5.990   7.587
85405SOL    HW158112   4.790   6.033   7.588
85405SOL    HW258113   4.859   5.905   7.546
85406SOL     OW58114  11.393  11.596  12.038
85406SOL    HW158115  11.430  11.653  12.105
85406SOL    HW258116  11.470  11.560  11.992
85407SOL     OW58117  12.300  13.035  13.452
85407SOL    HW158118  12.252  12.976  13.395
85407SOL    HW258119  12.392  13.011  13.441
85408SOL     OW58120   6.644  12.318   7.387
85408SOL    HW158121   6.616  12.233   7.420
85408SOL    HW258122   6.703  12.298   7.315
85409SOL     OW58123   0.830   2.904   0.810
85409SOL    HW158124   0.908   2.953   0.785
85409SOL    HW258125   0.854   2.858   0.890
85410SOL     OW58126   1.167   0.237   2.180
85410SOL    HW158127   1.141   0.275   2.263
85410SOL    HW258128   1.200   0.311   2.128
85411SOL     OW58129   6.224   8.826   3.259
85411SOL    HW158130   6.236   8.744   3.210
85411SOL    HW258131   6.233   8.895   3.194
85412SOL     OW58132  13.011   3.958   9.511
85412SOL    HW158133  13.034   3.991   9.597
85412SOL    HW258134  13.049   4.020   9.450
85413SOL     OW58135   0.617   7.474   3.912
85413SOL    HW158136   0.540   7.531   3.916
85413SOL    HW258137   0.689   7.534   3.893
85414SOL     OW58138   6.195   6.404   8.218
85414SOL    HW158139   6.107   6.432   8.191
85414SOL    HW258140   6.183   6.313   8.246
85415SOL     OW58141  14.146   1.319   4.096
85415SOL    HW158142  14.137   1.243   4.038
85415SOL    HW258143  14.220   1.298   4.152
85416SOL     OW58144   3.719   0.535   0.954
85416SOL    HW158145   3.732   0.589   1.032
85416SOL    HW258146   3.800   0.483   0.947
85417SOL     OW58147   3.282   3.421  12.680
85417SOL    HW158148   3.288   3.362  12.755
85417SOL    HW258149   3.191   3.451  12.679
85418SOL     OW58150  13.848   8.176  13.344
85418SOL    HW158151  13.771   8.121  13.328
85418SOL    HW258152  13.816   8.266  13.331
85419SOL     OW58153   3.804   4.057   9.334
85419SOL    HW158154   3.746   4.027   9.264
85419SOL    HW258155   3.858   3.980   9.354
85420SOL     OW58156   1.748   1.205   9.408
85420SOL    HW158157   1.814   1.201   9.339
85420SOL    HW258158   1.702   1.122   9.403
85421SOL     OW58159  12.340   6.380   0.770
85421SOL    HW158160  12.296   6.447   0.822
85421SOL    HW258161  12.357   6.422   0.685
85422SOL     OW58162  11.175   2.220   5.406
85422SOL    HW158163  11.142   2.262   5.485
85422SOL    HW258164  11.101   2.221   5.345
85423SOL     OW58165   1.915   7.091  11.527
85423SOL    HW158166   1.942   7.058  11.613
85423SOL    HW258167   1.987   7.066  11.468
85424SOL     OW58168   9.091   1.320   8.600
85424SOL    HW158169   9.152   1.392   8.587
85424SOL    HW258170   9.107   1.291   8.690
85425SOL     OW58171   7.646   0.158  12.685
85425SOL    HW158172   7.556   0.133  12.666
85425SOL    HW258173   7.685   0.080  12.723
85426SOL     OW58174   7.012   1.640  10.874
85426SOL    HW158175   6.919   1.663  10.876
85426SOL    HW258176   7.025   1.599  10.789
85427SOL     OW58177  12.740   0.047   3.814
85427SOL    HW158178  12.780  14.832   3.791
85427SOL    HW258179  12.733   0.094   3.731
85428SOL     OW58180  11.880   1.156   6.841
85428SOL    HW158181  11.860   1.160   6.934
85428SOL    HW258182  11.816   1.213   6.799
85429SOL     OW58183   7.881   4.407   0.472
85429SOL    HW158184   7.887   4.501   0.459
85429SOL    HW258185   7.815   4.396   0.540
85430SOL     OW58186  11.931  10.970  14.036
85430SOL    HW158187  11.912  10.895  14.092
85430SOL    HW258188  11.846  10.995  13.999
85431SOL     OW58189   5.206   1.481   8.736
85431SOL    HW158190   5.293   1.504   8.767
85431SOL    HW258191   5.167   1.431   8.808
85432SOL     OW58192   4.865  12.133   3.794
85432SOL    HW158193   4.915  12.187   3.733
85432SOL    HW258194   4.804  12.194   3.835
85433SOL     OW58195   5.711  12.020   7.350
85433SOL    HW158196   5.684  12.001   7.440
85433SOL    HW258197   5.793  12.069   7.359
85434SOL     OW58198   0.223   1.030  12.156
85434SOL    HW158199   0.252   0.953  12.205
85434SOL    HW258200   0.299   1.056  12.104
85435SOL     OW58201   4.197   8.287  11.600
85435SOL    HW158202   4.136   8.328  11.539
85435SOL    HW258203   4.173   8.324  11.685
85436SOL     OW58204  12.096   7.031   0.571
85436SOL    HW158205  12.026   6.992   0.623
85436SOL    HW258206  12.090   6.987   0.486
85437SOL     OW58207   0.977  12.133   1.988
85437SOL    HW158208   1.013  12.073   2.053
85437SOL    HW258209   0.943  12.207   2.040
85438SOL     OW58210  10.779  14.450   3.919
85438SOL    HW158211  10.846  14.420   3.981
85438SOL    HW258212  10.829  14.484   3.844
85439SOL     OW58213   6.892   0.402  14.282
85439SOL    HW158214   6.875   0.489  14.319
85439SOL    HW258215   6.976   0.377  14.319
85440SOL     OW58216   3.205   9.218   6.531
85440SOL    HW158217   3.123   9.269   6.522
85440SOL    HW258218   3.180   9.129   6.507
85441SOL     OW58219   2.382   1.019  12.673
85441SOL    HW158220   2.324   1.082  12.630
85441SOL    HW258221   2.378   0.941  12.618
85442SOL     OW58222   0.219   1.886  11.342
85442SOL    HW158223   0.274   1.950  11.387
85442SOL    HW258224   0.180   1.935  11.270
85443SOL     OW58225   0.497   5.922  10.027
85443SOL    HW158226   0.432   5.993  10.028
85443SOL    HW258227   0.470   5.865  10.098
85444SOL     OW58228   4.851   0.495   3.408
85444SOL    HW158229   4.895   0.578   3.426
85444SOL    HW258230   4.848   0.489   3.313
85445SOL     OW58231   4.841   7.710  13.995
85445SOL    HW158232   4.878   7.698  14.083
85445SOL    HW258233   4.818   7.622  13.966
85446SOL     OW58234   0.982   0.308   8.090
85446SOL    HW158235   0.958   0.361   8.014
85446SOL    HW258236   0.906   0.313   8.148
85447SOL     OW58237   2.246   5.097  11.853
85447SOL    HW158238   2.231   5.174  11.799
85447SOL    HW258239   2.158   5.072  11.884
85448SOL     OW58240   2.987   9.746   8.815
85448SOL    HW158241   2.999   9.659   8.777
85448SOL    HW258242   2.894   9.748   8.841
85449SOL     OW58243  13.369   8.952   5.393
85449SOL    HW158244  13.332   9.004   5.322
85449SOL    HW258245  13.293   8.909   5.434
85450SOL     OW58246   7.046  14.206  11.423
85450SOL    HW158247   7.075  14.115  11.424
85450SOL    HW258248   7.078  14.241  11.340
85451SOL     OW58249  11.630  14.671  10.463
85451SOL    HW158250  11.589  14.748  10.503
85451SOL    HW258251  11.610  14.680  10.369
85452SOL     OW58252  10.348  10.818  12.539
85452SOL    HW158253  10.268  10.801  12.488
85452SOL    HW258254  10.365  10.911  12.526
85453SOL     OW58255  13.302  11.878   4.495
85453SOL    HW158256  13.217  11.867   4.539
85453SOL    HW258257  13.279  11.893   4.403
85454SOL     OW58258   1.924   3.251   2.801
85454SOL    HW158259   1.949   3.247   2.893
85454SOL    HW258260   1.909   3.160   2.776
85455SOL     OW58261  12.602  13.599  11.695
85455SOL    HW158262  12.592  13.590  11.789
85455SOL    HW258263  12.548  13.528  11.658
85456SOL     OW58264   8.949   9.077   8.882
85456SOL    HW158265   8.938   9.007   8.817
85456SOL    HW258266   9.041   9.104   8.872
85457SOL     OW58267   1.601   7.386  11.436
85457SOL    HW158268   1.618   7.315  11.499
85457SOL    HW258269   1.537   7.349  11.375
85458SOL     OW58270   5.404   1.069  14.027
85458SOL    HW158271   5.478   1.120  14.061
85458SOL    HW258272   5.355   1.132  13.973
85459SOL     OW58273   4.416   8.421  11.920
85459SOL    HW158274   4.426   8.326  11.920
85459SOL    HW258275   4.337   8.437  11.971
85460SOL     OW58276  12.255  12.029   9.525
85460SOL    HW158277  12.272  11.995   9.437
85460SOL    HW258278  12.311  12.107   9.531
85461SOL     OW58279   1.925   2.711   4.610
85461SOL    HW158280   1.887   2.771   4.546
85461SOL    HW258281   1.874   2.727   4.690
85462SOL     OW58282  10.453   3.889   5.593
85462SOL    HW158283  10.434   3.932   5.509
85462SOL    HW258284  10.548   3.873   5.591
85463SOL     OW58285   7.259   0.078   4.829
85463SOL    HW158286   7.328   0.110   4.772
85463SOL    HW258287   7.265   0.132   4.908
85464SOL     OW58288  13.416  12.806   7.775
85464SOL    HW158289  13.412  12.888   7.727
85464SOL    HW258290  13.465  12.827   7.855
85465SOL     OW58291   0.888   4.884  11.637
85465SOL    HW158292   0.884   4.841  11.723
85465SOL    HW258293   0.982   4.895  11.620
85466SOL     OW58294   2.778   2.735  13.233
85466SOL    HW158295   2.811   2.724  13.322
85466SOL    HW258296   2.809   2.821  13.206
85467SOL     OW58297   9.321   3.824   5.700
85467SOL    HW158298   9.279   3.826   5.786
85467SOL    HW258299   9.316   3.915   5.669
85468SOL     OW58300  10.069  14.819   2.002
85468SOL    HW158301  10.085  14.762   1.927
85468SOL    HW258302  10.013  14.767   2.060
85469SOL     OW58303   9.390   0.687   4.304
85469SOL    HW158304   9.388   0.594   4.279
85469SOL    HW258305   9.373   0.734   4.223
85470SOL     OW58306   8.491  14.560   9.035
85470SOL    HW158307   8.453  14.519   9.113
85470SOL    HW258308   8.550  14.494   8.999
85471SOL     OW58309   2.968   1.680   6.065
85471SOL    HW158310   3.061   1.656   6.069
85471SOL    HW258311   2.938   1.677   6.156
85472SOL     OW58312   4.671  14.638   0.534
85472SOL    HW158313   4.737  14.622   0.602
85472SOL    HW258314   4.721  14.657   0.456
85473SOL     OW58315  10.919   6.538   3.179
85473SOL    HW158316  10.920   6.633   3.170
85473SOL    HW258317  10.830   6.517   3.205
85474SOL     OW58318   4.262   6.590  14.605
85474SOL    HW158319   4.336   6.550  14.650
85474SOL    HW258320   4.186   6.540  14.634
85475SOL     OW58321   6.525   1.582  11.955
85475SOL    HW158322   6.574   1.549  12.030
85475SOL    HW258323   6.522   1.508  11.894
85476SOL     OW58324  10.823   1.984   5.389
85476SOL    HW158325  10.854   2.063   5.344
85476SOL    HW258326  10.732   2.002   5.409
85477SOL     OW58327  14.800   4.875   5.733
85477SOL    HW158328  14.716   4.903   5.769
85477SOL    HW258329  14.778   4.830   5.651
85478SOL     OW58330   5.719   3.071   4.682
85478SOL    HW158331   5.807   3.053   4.649
85478SOL    HW258332   5.733   3.116   4.765
85479SOL     OW58333   8.749   6.632   9.110
85479SOL    HW158334   8.781   6.629   9.020
85479SOL    HW258335   8.796   6.563   9.155
85480SOL     OW58336   5.128  14.222   3.278
85480SOL    HW158337   5.214  14.214   3.237
85480SOL    HW258338   5.093  14.133   3.278
85481SOL     OW58339  13.482   7.490  12.534
85481SOL    HW158340  13.505   7.514  12.444
85481SOL    HW258341  13.421   7.558  12.563
85482SOL     OW58342   5.169   8.560  12.037
85482SOL    HW158343   5.189   8.602  11.954
85482SOL    HW258344   5.191   8.625  12.104
85483SOL     OW58345   9.420   2.291   9.046
85483SOL    HW158346   9.341   2.238   9.037
85483SOL    HW258347   9.470   2.247   9.115
85484SOL     OW58348   3.242   4.769   9.084
85484SOL    HW158349   3.319   4.822   9.060
85484SOL    HW258350   3.167   4.823   9.058
85485SOL     OW58351   8.078   9.781   0.745
85485SOL    HW158352   8.005   9.806   0.688
85485SOL    HW258353   8.150   9.762   0.684
85486SOL     OW58354   1.459  11.847  11.396
85486SOL    HW158355   1.505  11.772  11.434
85486SOL    HW258356   1.406  11.810  11.325
85487SOL     OW58357   1.396   2.238   5.188
85487SOL    HW158358   1.338   2.167   5.159
85487SOL    HW258359   1.347   2.318   5.169
85488SOL     OW58360   8.893   0.869   5.307
85488SOL    HW158361   8.921   0.779   5.289
85488SOL    HW258362   8.967   0.908   5.353
85489SOL     OW58363  10.462  13.800   6.246
85489SOL    HW158364  10.442  13.711   6.276
85489SOL    HW258365  10.397  13.855   6.290
85490SOL     OW58366   6.022   7.589   6.133
85490SOL    HW158367   6.057   7.670   6.169
85490SOL    HW258368   6.004   7.534   6.210
85491SOL     OW58369   7.974   5.876   9.482
85491SOL    HW158370   8.043   5.813   9.505
85491SOL    HW258371   7.985   5.947   9.545
85492SOL     OW58372   5.172   6.704  10.134
85492SOL    HW158373   5.147   6.611  10.135
85492SOL    HW258374   5.096   6.750  10.168
85493SOL     OW58375   5.100   6.464   9.242
85493SOL    HW158376   5.121   6.510   9.161
85493SOL    HW258377   5.184   6.455   9.287
85494SOL     OW58378   5.595  12.098  14.751
85494SOL    HW158379   5.545  12.051  14.818
85494SOL    HW258380   5.636  12.170  14.799
85495SOL     OW58381   9.277   1.106   7.016
85495SOL    HW158382   9.286   1.165   6.942
85495SOL    HW258383   9.362   1.062   7.023
85496SOL     OW58384  10.353   6.687  10.393
85496SOL    HW158385  10.405   6.691  10.473
85496SOL    HW258386  10.324   6.596  10.387
85497SOL     OW58387  13.468   5.795  10.057
85497SOL    HW158388  13.416   5.721  10.026
85497SOL    HW258389  13.406   5.867  10.064
85498SOL     OW58390   0.508   2.174   8.018
85498SOL    HW158391   0.486   2.245   7.958
85498SOL    HW258392   0.491   2.210   8.105
85499SOL     OW58393   7.846   1.354   6.663
85499SOL    HW158394   7.758   1.318   6.677
85499SOL    HW258395   7.897   1.323   6.738
85500SOL     OW58396   6.000   8.030  13.358
85500SOL    HW158397   5.916   7.988  13.341
85500SOL    HW258398   6.017   8.083  13.280
85501SOL     OW58399  12.358  10.928  10.381
85501SOL    HW158400  12.454  10.938  10.377
85501SOL    HW258401  12.343  10.835  10.366
85502SOL     OW58402   0.647   6.521   0.858
85502SOL    HW158403   0.593   6.520   0.779
85502SOL    HW258404   0.737   6.515   0.826
85503SOL     OW58405   0.844   8.401  10.836
85503SOL    HW158406   0.767   8.416  10.781
85503SOL    HW258407   0.913   8.453  10.795
85504SOL     OW58408   6.440  14.864   2.544
85504SOL    HW158409   6.521  14.858   2.595
85504SOL    HW258410   6.383  14.797   2.582
85505SOL     OW58411  11.807  13.433   3.786
85505SOL    HW158412  11.819  13.526   3.806
85505SOL    HW258413  11.858  13.387   3.853
85506SOL     OW58414   0.444   9.802   9.719
85506SOL    HW158415   0.468   9.736   9.783
85506SOL    HW258416   0.447   9.885   9.767
85507SOL     OW58417   6.584   3.689   2.242
85507SOL    HW158418   6.498   3.714   2.274
85507SOL    HW258419   6.568   3.611   2.188
85508SOL     OW58420  10.173   4.127   1.920
85508SOL    HW158421  10.119   4.070   1.974
85508SOL    HW258422  10.167   4.090   1.832
85509SOL     OW58423  13.912   1.732  14.013
85509SOL    HW158424  13.877   1.798  13.952
85509SOL    HW258425  13.847   1.662  14.012
85510SOL     OW58426  14.284   1.657   2.178
85510SOL    HW158427  14.307   1.741   2.138
85510SOL    HW258428  14.327   1.591   2.123
85511SOL     OW58429   0.120   1.676   5.829
85511SOL    HW158430   0.180   1.646   5.898
85511SOL    HW258431   0.047   1.613   5.832
85512SOL     OW58432   4.370   5.402   7.935
85512SOL    HW158433   4.380   5.435   8.024
85512SOL    HW258434   4.284   5.434   7.907
85513SOL     OW58435   0.219  10.232  12.005
85513SOL    HW158436   0.183  10.148  11.978
85513SOL    HW258437   0.281  10.210  12.075
85514SOL     OW58438  11.306   3.801   9.438
85514SOL    HW158439  11.283   3.721   9.391
85514SOL    HW258440  11.262   3.871   9.389
85515SOL     OW58441   6.870   4.000  11.482
85515SOL    HW158442   6.798   3.982  11.422
85515SOL    HW258443   6.907   4.083  11.452
85516SOL     OW58444  14.052   3.057  11.051
85516SOL    HW158445  14.100   3.065  11.134
85516SOL    HW258446  13.990   2.986  11.066
85517SOL     OW58447   4.360  12.836   7.830
85517SOL    HW158448   4.391  12.747   7.846
85517SOL    HW258449   4.279  12.843   7.881
85518SOL     OW58450   9.523   7.631   5.704
85518SOL    HW158451   9.531   7.538   5.681
85518SOL    HW258452   9.599   7.648   5.760
85519SOL     OW58453   9.400   1.603   1.640
85519SOL    HW158454   9.473   1.593   1.702
85519SOL    HW258455   9.442   1.629   1.558
85520SOL     OW58456  12.776  13.009   5.143
85520SOL    HW158457  12.742  13.087   5.188
85520SOL    HW258458  12.792  13.038   5.053
85521SOL     OW58459   7.674  11.192   4.201
85521SOL    HW158460   7.597  11.246   4.217
85521SOL    HW258461   7.640  11.114   4.157
85522SOL     OW58462   8.303   3.171   6.185
85522SOL    HW158463   8.251   3.122   6.121
85522SOL    HW258464   8.368   3.218   6.133
85523SOL     OW58465   7.216   5.541   5.283
85523SOL    HW158466   7.292   5.560   5.338
85523SOL    HW258467   7.162   5.482   5.337
85524SOL     OW58468   1.456   0.590  12.411
85524SOL    HW158469   1.435   0.660  12.472
85524SOL    HW258470   1.385   0.593  12.346
85525SOL     OW58471   9.473   0.647  14.050
85525SOL    HW158472   9.565   0.648  14.077
85525SOL    HW258473   9.425   0.662  14.131
85526SOL     OW58474  13.801   8.700  14.707
85526SOL    HW158475  13.816   8.628  14.647
85526SOL    HW258476  13.871   8.692  14.772
85527SOL     OW58477  13.406   9.875   9.474
85527SOL    HW158478  13.384   9.962   9.506
85527SOL    HW258479  13.322   9.837   9.448
85528SOL     OW58480  13.074   2.935  14.589
85528SOL    HW158481  13.027   2.853  14.571
85528SOL    HW258482  13.015   3.004  14.559
85529SOL     OW58483   5.749  10.326   5.436
85529SOL    HW158484   5.745  10.308   5.530
85529SOL    HW258485   5.809  10.401   5.428
85530SOL     OW58486   1.782   6.874  10.106
85530SOL    HW158487   1.780   6.795  10.051
85530SOL    HW258488   1.690   6.894  10.122
85531SOL     OW58489   0.092   6.824   7.606
85531SOL    HW158490   0.064   6.861   7.690
85531SOL    HW258491   0.185   6.846   7.600
85532SOL     OW58492  12.520   7.611   6.955
85532SOL    HW158493  12.500   7.526   6.915
85532SOL    HW258494  12.572   7.589   7.032
85533SOL     OW58495   1.634   6.301   2.437
85533SOL    HW158496   1.649   6.370   2.502
85533SOL    HW258497   1.565   6.247   2.476
85534SOL     OW58498   2.427   8.795   4.245
85534SOL    HW158499   2.441   8.703   4.265
85534SOL    HW258500   2.334   8.802   4.225
85535SOL     OW58501   2.755   6.280   4.098
85535SOL    HW158502   2.735   6.207   4.039
85535SOL    HW258503   2.697   6.267   4.173
85536SOL     OW58504   1.936   1.149   0.154
85536SOL    HW158505   1.864   1.113   0.102
85536SOL    HW258506   1.946   1.089   0.227
85537SOL     OW58507  11.051  11.689   8.466
85537SOL    HW158508  10.975  11.747   8.467
85537SOL    HW258509  11.078  11.682   8.557
85538SOL     OW58510  10.246   8.194  12.944
85538SOL    HW158511  10.302   8.122  12.974
85538SOL    HW258512  10.165   8.184  12.994
85539SOL     OW58513   3.662  11.793   3.228
85539SOL    HW158514   3.570  11.768   3.218
85539SOL    HW258515   3.666  11.883   3.194
85540SOL     OW58516  10.674   2.639  10.120
85540SOL    HW158517  10.639   2.552  10.103
85540SOL    HW258518  10.599   2.688  10.155
85541SOL     OW58519   7.709   9.649   2.405
85541SOL    HW158520   7.712   9.662   2.310
85541SOL    HW258521   7.701   9.737   2.441
85542SOL     OW58522   9.297   7.895  13.940
85542SOL    HW158523   9.242   7.965  13.905
85542SOL    HW258524   9.235   7.824  13.961
85543SOL     OW58525   2.760  13.544   2.046
85543SOL    HW158526   2.832  13.540   1.983
85543SOL    HW258527   2.804  13.555   2.131
85544SOL     OW58528   2.667   7.523   7.518
85544SOL    HW158529   2.733   7.457   7.496
85544SOL    HW258530   2.716   7.605   7.523
85545SOL     OW58531   3.379   5.643   6.095
85545SOL    HW158532   3.413   5.569   6.145
85545SOL    HW258533   3.305   5.607   6.046
85546SOL     OW58534   7.262   8.088   4.501
85546SOL    HW158535   7.298   8.033   4.570
85546SOL    HW258536   7.173   8.108   4.531
85547SOL     OW58537   2.687   2.625  11.516
85547SOL    HW158538   2.703   2.712  11.551
85547SOL    HW258539   2.730   2.565  11.577
85548SOL     OW58540  13.055   8.661   1.059
85548SOL    HW158541  13.046   8.648   0.965
85548SOL    HW258542  13.148   8.679   1.072
85549SOL     OW58543  11.888  14.226  13.272
85549SOL    HW158544  11.819  14.171  13.311
85549SOL    HW258545  11.893  14.197  13.181
85550SOL     OW58546   1.703   1.048   6.611
85550SOL    HW158547   1.693   0.960   6.647
85550SOL    HW258548   1.661   1.044   6.526
85551SOL     OW58549   3.701  10.219   7.292
85551SOL    HW158550   3.766  10.201   7.361
85551SOL    HW258551   3.677  10.310   7.305
85552SOL     OW58552   1.372   2.255  14.012
85552SOL    HW158553   1.430   2.240  13.937
85552SOL    HW258554   1.427   2.242  14.089
85553SOL     OW58555  11.301   2.663   5.256
85553SOL    HW158556  11.336   2.602   5.321
85553SOL    HW258557  11.244   2.609   5.201
85554SOL     OW58558  12.881   1.008   1.160
85554SOL    HW158559  12.977   1.007   1.157
85554SOL    HW258560  12.855   1.052   1.079
85555SOL     OW58561   1.951  10.927   9.860
85555SOL    HW158562   1.942  10.986   9.935
85555SOL    HW258563   1.874  10.945   9.806
85556SOL     OW58564   2.509   4.803   8.630
85556SOL    HW158565   2.580   4.866   8.642
85556SOL    HW258566   2.483   4.813   8.538
85557SOL     OW58567  13.793  13.558   9.979
85557SOL    HW158568  13.790  13.553   9.884
85557SOL    HW258569  13.702  13.573  10.006
85558SOL     OW58570   0.388   4.806   0.486
85558SOL    HW158571   0.441   4.876   0.448
85558SOL    HW258572   0.428   4.790   0.571
85559SOL     OW58573   4.150  10.481  14.151
85559SOL    HW158574   4.190  10.416  14.094
85559SOL    HW258575   4.220  10.545  14.166
85560SOL     OW58576   7.018  10.584   7.410
85560SOL    HW158577   7.079  10.649   7.444
85560SOL    HW258578   6.943  10.636   7.380
85561SOL     OW58579   6.656   2.463   8.809
85561SOL    HW158580   6.584   2.413   8.847
85561SOL    HW258581   6.704   2.399   8.756
85562SOL     OW58582   9.258   9.645  14.619
85562SOL    HW158583   9.258   9.573  14.557
85562SOL    HW258584   9.344   9.641  14.661
85563SOL     OW58585   5.329   4.720  13.742
85563SOL    HW158586   5.317   4.809  13.708
85563SOL    HW258587   5.299   4.663  13.671
85564SOL     OW58588   9.106   2.504   0.730
85564SOL    HW158589   9.062   2.424   0.698
85564SOL    HW258590   9.184   2.512   0.676
85565SOL     OW58591   9.909   7.919   6.256
85565SOL    HW158592   9.931   8.012   6.258
85565SOL    HW258593   9.850   7.906   6.330
85566SOL     OW58594   1.482   1.784   0.513
85566SOL    HW158595   1.462   1.747   0.427
85566SOL    HW258596   1.449   1.719   0.575
85567SOL     OW58597   2.649  14.278   5.608
85567SOL    HW158598   2.674  14.263   5.699
85567SOL    HW258599   2.732  14.293   5.562
85568SOL     OW58600  10.485   8.145  11.799
85568SOL    HW158601  10.471   8.066  11.747
85568SOL    HW258602  10.573   8.174  11.775
85569SOL     OW58603   5.359   2.042   3.598
85569SOL    HW158604   5.421   2.086   3.656
85569SOL    HW258605   5.373   2.083   3.513
85570SOL     OW58606   0.208   5.722  12.307
85570SOL    HW158607   0.170   5.774  12.378
85570SOL    HW258608   0.174   5.633  12.321
85571SOL     OW58609   0.809  14.824  13.830
85571SOL    HW158610   0.873  14.827  13.901
85571SOL    HW258611   0.741  14.763  13.862
85572SOL     OW58612   2.024   9.948   6.190
85572SOL    HW158613   2.100   9.899   6.223
85572SOL    HW258614   2.028   9.938   6.095
85573SOL     OW58615   5.048  11.649   6.392
85573SOL    HW158616   5.062  11.556   6.376
85573SOL    HW258617   5.096  11.667   6.473
85574SOL     OW58618   7.156  14.333  11.214
85574SOL    HW158619   7.182  14.411  11.263
85574SOL    HW258620   7.234  14.308  11.164
85575SOL     OW58621   1.588   9.886  14.620
85575SOL    HW158622   1.592   9.806  14.566
85575SOL    HW258623   1.496   9.897  14.641
85576SOL     OW58624   5.650  11.206  12.041
85576SOL    HW158625   5.681  11.250  12.120
85576SOL    HW258626   5.709  11.236  11.972
85577SOL     OW58627   4.147  10.305  11.329
85577SOL    HW158628   4.090  10.382  11.330
85577SOL    HW258629   4.169  10.292  11.236
85578SOL     OW58630   4.385   8.048   9.442
85578SOL    HW158631   4.299   8.067   9.481
85578SOL    HW258632   4.416   7.971   9.490
85579SOL     OW58633  14.085   6.642   5.980
85579SOL    HW158634  14.139   6.714   6.013
85579SOL    HW258635  14.071   6.585   6.056
85580SOL     OW58636  11.534   5.032   1.190
85580SOL    HW158637  11.576   5.077   1.116
85580SOL    HW258638  11.485   4.961   1.150
85581SOL     OW58639  10.302   1.994   4.843
85581SOL    HW158640  10.273   1.908   4.872
85581SOL    HW258641  10.354   2.028   4.916
85582SOL     OW58642  12.547  13.384   8.349
85582SOL    HW158643  12.608  13.352   8.282
85582SOL    HW258644  12.462  13.385   8.306
85583SOL     OW58645  11.735   2.209   5.493
85583SOL    HW158646  11.686   2.291   5.486
85583SOL    HW258647  11.748   2.181   5.403
85584SOL     OW58648  13.267   5.979   5.757
85584SOL    HW158649  13.198   6.033   5.720
85584SOL    HW258650  13.301   5.929   5.683
85585SOL     OW58651   0.032   6.259   8.947
85585SOL    HW158652   0.015   6.345   8.986
85585SOL    HW258653  14.841   6.200   8.992
85586SOL     OW58654   4.403   9.813  14.727
85586SOL    HW158655   4.368   9.745  14.669
85586SOL    HW258656   4.326   9.864  14.753
85587SOL     OW58657   2.964   4.683   6.639
85587SOL    HW158658   2.937   4.750   6.575
85587SOL    HW258659   3.056   4.666   6.617
85588SOL     OW58660  11.152  10.411   1.428
85588SOL    HW158661  11.167  10.487   1.373
85588SOL    HW258662  11.210  10.344   1.393
85589SOL     OW58663  14.098   0.256  13.483
85589SOL    HW158664  14.067   0.344  13.503
85589SOL    HW258665  14.095   0.210  13.566
85590SOL     OW58666  14.501  11.761   8.378
85590SOL    HW158667  14.438  11.791   8.443
85590SOL    HW258668  14.476  11.806   8.298
85591SOL     OW58669  13.691   4.694  11.178
85591SOL    HW158670  13.617   4.755  11.171
85591SOL    HW258671  13.653   4.613  11.212
85592SOL     OW58672  11.201  11.104  10.025
85592SOL    HW158673  11.252  11.133  10.101
85592SOL    HW258674  11.114  11.140  10.040
85593SOL     OW58675   8.675   1.978   4.532
85593SOL    HW158676   8.682   1.996   4.626
85593SOL    HW258677   8.582   1.980   4.514
85594SOL     OW58678  13.171  10.342   5.255
85594SOL    HW158679  13.251  10.340   5.202
85594SOL    HW258680  13.121  10.416   5.220
85595SOL     OW58681   1.259  10.868   5.797
85595SOL    HW158682   1.349  10.888   5.822
85595SOL    HW258683   1.221  10.952   5.772
85596SOL     OW58684   0.385   0.069   1.753
85596SOL    HW158685   0.399  14.845   1.734
85596SOL    HW258686   0.290   0.081   1.742
85597SOL     OW58687   8.710  10.177   8.925
85597SOL    HW158688   8.745  10.088   8.926
85597SOL    HW258689   8.717  10.207   9.016
85598SOL     OW58690   2.487  12.707  11.523
85598SOL    HW158691   2.417  12.674  11.579
85598SOL    HW258692   2.567  12.665  11.557
85599SOL     OW58693  14.739  13.650   6.018
85599SOL    HW158694  14.731  13.730   6.070
85599SOL    HW258695  14.651  13.613   6.016
85600SOL     OW58696   5.466  14.299   2.477
85600SOL    HW158697   5.520  14.232   2.520
85600SOL    HW258698   5.423  14.345   2.548
85601SOL     OW58699   4.407   8.667   9.862
85601SOL    HW158700   4.325   8.699   9.898
85601SOL    HW258701   4.436   8.600   9.924
85602SOL     OW58702   5.325  11.058  11.940
85602SOL    HW158703   5.346  11.107  12.020
85602SOL    HW258704   5.246  11.100  11.907
85603SOL     OW58705   8.389   9.632   4.083
85603SOL    HW158706   8.357   9.649   4.172
85603SOL    HW258707   8.479   9.602   4.096
85604SOL     OW58708  13.854  14.618   9.889
85604SOL    HW158709  13.888  14.534   9.859
85604SOL    HW258710  13.867  14.616   9.984
85605SOL     OW58711  14.402   9.718  11.677
85605SOL    HW158712  14.334   9.763  11.627
85605SOL    HW258713  14.474   9.708  11.615
85606SOL     OW58714  14.833  10.052  11.550
85606SOL    HW158715  14.744  10.086  11.550
85606SOL    HW258716  14.837   9.993  11.625
85607SOL     OW58717   8.744   8.498   2.622
85607SOL    HW158718   8.784   8.561   2.562
85607SOL    HW258719   8.788   8.415   2.603
85608SOL     OW58720   2.571  14.558  10.975
85608SOL    HW158721   2.591  14.531  11.064
85608SOL    HW258722   2.656  14.562  10.931
85609SOL     OW58723   1.816   0.623  14.090
85609SOL    HW158724   1.787   0.629  13.999
85609SOL    HW258725   1.735   0.624  14.141
85610SOL     OW58726   2.047   2.504  12.827
85610SOL    HW158727   1.999   2.547  12.898
85610SOL    HW258728   2.125   2.557  12.816
85611SOL     OW58729  14.573   2.196   4.132
85611SOL    HW158730  14.602   2.281   4.099
85611SOL    HW258731  14.479   2.205   4.144
85612SOL     OW58732   7.174   3.877   7.579
85612SOL    HW158733   7.229   3.817   7.528
85612SOL    HW258734   7.117   3.918   7.514
85613SOL     OW58735   0.359  10.911   6.922
85613SOL    HW158736   0.288  10.914   6.986
85613SOL    HW258737   0.387  10.820   6.922
85614SOL     OW58738  14.760   0.634  13.378
85614SOL    HW158739  14.721   0.721  13.380
85614SOL    HW258740  14.686   0.575  13.360
85615SOL     OW58741   0.634   2.230   0.176
85615SOL    HW158742   0.577   2.155   0.161
85615SOL    HW258743   0.655   2.226   0.269
85616SOL     OW58744   4.051   4.703   8.166
85616SOL    HW158745   4.144   4.723   8.162
85616SOL    HW258746   4.020   4.716   8.076
85617SOL     OW58747   3.660   8.129   4.608
85617SOL    HW158748   3.613   8.176   4.676
85617SOL    HW258749   3.623   8.041   4.609
85618SOL     OW58750   2.583  14.765   5.859
85618SOL    HW158751   2.676  14.780   5.878
85618SOL    HW258752   2.539  14.844   5.891
85619SOL     OW58753   6.822   0.722   9.120
85619SOL    HW158754   6.858   0.811   9.120
85619SOL    HW258755   6.899   0.665   9.127
85620SOL     OW58756   4.177   5.186  13.747
85620SOL    HW158757   4.187   5.152  13.659
85620SOL    HW258758   4.264   5.218  13.770
85621SOL     OW58759  10.827   2.155   0.999
85621SOL    HW158760  10.796   2.240   1.032
85621SOL    HW258761  10.778   2.090   1.049
85622SOL     OW58762   5.480  10.025  10.156
85622SOL    HW158763   5.399  10.036  10.107
85622SOL    HW258764   5.452  10.022  10.248
85623SOL     OW58765   9.631  12.152  14.350
85623SOL    HW158766   9.618  12.200  14.432
85623SOL    HW258767   9.581  12.201  14.285
85624SOL     OW58768   7.495   1.379  14.251
85624SOL    HW158769   7.533   1.291  14.240
85624SOL    HW258770   7.503   1.397  14.345
85625SOL     OW58771   3.938   4.780   5.987
85625SOL    HW158772   3.872   4.759   5.921
85625SOL    HW258773   4.012   4.814   5.937
85626SOL     OW58774   1.400  10.409   5.115
85626SOL    HW158775   1.381  10.321   5.146
85626SOL    HW258776   1.443  10.453   5.189
85627SOL     OW58777   1.108  11.601   5.290
85627SOL    HW158778   1.121  11.515   5.250
85627SOL    HW258779   1.014  11.605   5.310
85628SOL     OW58780   3.246  14.775   6.712
85628SOL    HW158781   3.245  14.855   6.765
85628SOL    HW258782   3.165  14.778   6.661
85629SOL     OW58783  12.136  12.328  10.598
85629SOL    HW158784  12.088  12.354  10.677
85629SOL    HW258785  12.101  12.242  10.576
85630SOL     OW58786   9.988   7.491   4.516
85630SOL    HW158787   9.949   7.420   4.568
85630SOL    HW258788  10.022   7.447   4.438
85631SOL     OW58789   0.350   2.498  11.798
85631SOL    HW158790   0.324   2.406  11.805
85631SOL    HW258791   0.305   2.529  11.720
85632SOL     OW58792  12.686  13.159   0.894
85632SOL    HW158793  12.695  13.154   0.989
85632SOL    HW258794  12.595  13.185   0.880
85633SOL     OW58795  11.422   1.446   8.201
85633SOL    HW158796  11.516   1.435   8.191
85633SOL    HW258797  11.390   1.466   8.112
85634SOL     OW58798   9.804  12.365  11.938
85634SOL    HW158799   9.860  12.409  12.003
85634SOL    HW258800   9.850  12.284  11.918
85635SOL     OW58801  10.587   9.756   4.717
85635SOL    HW158802  10.548   9.669   4.731
85635SOL    HW258803  10.547   9.810   4.785
85636SOL     OW58804   7.106   6.129   8.715
85636SOL    HW158805   7.017   6.152   8.689
85636SOL    HW258806   7.098   6.094   8.804
85637SOL     OW58807  13.520   2.464   4.159
85637SOL    HW158808  13.603   2.474   4.113
85637SOL    HW258809  13.477   2.549   4.147
85638SOL     OW58810   1.588   4.201  11.513
85638SOL    HW158811   1.591   4.109  11.538
85638SOL    HW258812   1.599   4.201  11.418
85639SOL     OW58813   2.135  13.127   6.814
85639SOL    HW158814   2.222  13.158   6.789
85639SOL    HW258815   2.149  13.039   6.849
85640SOL     OW58816   3.639   3.035   5.861
85640SOL    HW158817   3.695   2.997   5.929
85640SOL    HW258818   3.618   2.961   5.803
85641SOL     OW58819   1.237   8.539  11.234
85641SOL    HW158820   1.280   8.454  11.233
85641SOL    HW258821   1.212   8.552  11.326
85642SOL     OW58822   0.296   6.202   4.294
85642SOL    HW158823   0.223   6.241   4.341
85642SOL    HW258824   0.367   6.265   4.302
85643SOL     OW58825   7.976  11.755   3.865
85643SOL    HW158826   8.064  11.718   3.866
85643SOL    HW258827   7.922  11.685   3.828
85644SOL     OW58828   2.142   6.676   4.557
85644SOL    HW158829   2.231   6.708   4.572
85644SOL    HW258830   2.110   6.729   4.483
85645SOL     OW58831   7.984   3.512   2.960
85645SOL    HW158832   7.966   3.449   3.030
85645SOL    HW258833   8.050   3.470   2.906
85646SOL     OW58834   1.450   3.816   8.655
85646SOL    HW158835   1.510   3.861   8.715
85646SOL    HW258836   1.506   3.752   8.610
85647SOL     OW58837   7.621  10.070  12.428
85647SOL    HW158838   7.632   9.985  12.470
85647SOL    HW258839   7.626  10.052  12.334
85648SOL     OW58840   6.857   2.436   5.228
85648SOL    HW158841   6.889   2.424   5.138
85648SOL    HW258842   6.857   2.348   5.265
85649SOL     OW58843   3.326   8.441  10.031
85649SOL    HW158844   3.270   8.517  10.044
85649SOL    HW258845   3.356   8.417  10.118
85650SOL     OW58846   6.563  13.493   3.231
85650SOL    HW158847   6.645  13.488   3.280
85650SOL    HW258848   6.536  13.585   3.238
85651SOL     OW58849   7.507  12.295  12.770
85651SOL    HW158850   7.576  12.267  12.710
85651SOL    HW258851   7.455  12.357  12.719
85652SOL     OW58852   0.533   1.173   2.694
85652SOL    HW158853   0.604   1.190   2.756
85652SOL    HW258854   0.458   1.218   2.732
85653SOL     OW58855  11.459  11.374   0.853
85653SOL    HW158856  11.491  11.294   0.812
85653SOL    HW258857  11.527  11.439   0.837
85654SOL     OW58858  12.680   3.145  13.310
85654SOL    HW158859  12.755   3.190  13.272
85654SOL    HW258860  12.653   3.202  13.383
85655SOL     OW58861  13.778   2.880   4.616
85655SOL    HW158862  13.826   2.919   4.689
85655SOL    HW258863  13.742   2.799   4.651
85656SOL     OW58864  11.283   4.888   9.319
85656SOL    HW158865  11.353   4.850   9.372
85656SOL    HW258866  11.328   4.933   9.247
85657SOL     OW58867   7.228   5.530   3.696
85657SOL    HW158868   7.188   5.443   3.698
85657SOL    HW258869   7.254   5.547   3.786
85658SOL     OW58870   0.248   5.935   1.502
85658SOL    HW158871   0.163   5.898   1.479
85658SOL    HW258872   0.306   5.859   1.512
85659SOL     OW58873   5.691  10.572  11.954
85659SOL    HW158874   5.754  10.576  12.026
85659SOL    HW258875   5.613  10.532  11.993
85660SOL     OW58876   2.246   8.087   3.613
85660SOL    HW158877   2.236   8.054   3.524
85660SOL    HW258878   2.225   8.013   3.669
85661SOL     OW58879   0.108   7.193  12.080
85661SOL    HW158880   0.017   7.209  12.104
85661SOL    HW258881   0.155   7.270  12.111
85662SOL     OW58882   7.732   7.788  14.840
85662SOL    HW158883   7.673   7.848   0.015
85662SOL    HW258884   7.681   7.755  14.765
85663SOL     OW58885  10.735   4.164   4.689
85663SOL    HW158886  10.759   4.140   4.600
85663SOL    HW258887  10.690   4.087   4.724
85664SOL     OW58888  13.026   6.938  10.237
85664SOL    HW158889  13.039   7.003  10.168
85664SOL    HW258890  12.963   6.979  10.297
85665SOL     OW58891   7.367   3.318   7.968
85665SOL    HW158892   7.348   3.251   8.034
85665SOL    HW258893   7.324   3.397   8.001
85666SOL     OW58894   9.642  14.647   0.619
85666SOL    HW158895   9.593  14.705   0.560
85666SOL    HW258896   9.732  14.652   0.588
85667SOL     OW58897   1.581   5.779   8.865
85667SOL    HW158898   1.673   5.805   8.878
85667SOL    HW258899   1.542   5.853   8.817
85668SOL     OW58900   4.865   0.325   3.709
85668SOL    HW158901   4.782   0.314   3.663
85668SOL    HW258902   4.841   0.336   3.801
85669SOL     OW58903   6.656   0.578   2.470
85669SOL    HW158904   6.691   0.524   2.541
85669SOL    HW258905   6.562   0.585   2.490
85670SOL     OW58906   3.829  14.093   7.621
85670SOL    HW158907   3.819  14.029   7.551
85670SOL    HW258908   3.856  14.174   7.577
85671SOL     OW58909   0.786   6.655   1.256
85671SOL    HW158910   0.710   6.641   1.200
85671SOL    HW258911   0.842   6.578   1.240
85672SOL     OW58912   2.468   5.569   8.898
85672SOL    HW158913   2.390   5.569   8.954
85672SOL    HW258914   2.434   5.570   8.809
85673SOL     OW58915   4.796   3.277   3.955
85673SOL    HW158916   4.844   3.318   4.026
85673SOL    HW258917   4.805   3.337   3.881
85674SOL     OW58918   5.690   9.118   0.971
85674SOL    HW158919   5.712   9.211   0.967
85674SOL    HW258920   5.659   9.097   0.883
85675SOL     OW58921   9.148   3.281  11.431
85675SOL    HW158922   9.091   3.250  11.501
85675SOL    HW258923   9.089   3.331  11.374
85676SOL     OW58924  13.328  13.991   2.026
85676SOL    HW158925  13.349  14.083   2.041
85676SOL    HW258926  13.233  13.986   2.035
85677SOL     OW58927   2.560  10.196   6.039
85677SOL    HW158928   2.479  10.147   6.030
85677SOL    HW258929   2.566  10.248   5.959
85678SOL     OW58930   5.073   0.075   0.080
85678SOL    HW158931   5.101  14.855   0.060
85678SOL    HW258932   5.111   0.129   0.011
85679SOL     OW58933   1.545  11.106   2.292
85679SOL    HW158934   1.594  11.027   2.271
85679SOL    HW258935   1.610  11.165   2.330
85680SOL     OW58936  12.592   5.117   3.244
85680SOL    HW158937  12.605   5.109   3.149
85680SOL    HW258938  12.498   5.131   3.254
85681SOL     OW58939   7.695  14.316   9.805
85681SOL    HW158940   7.634  14.372   9.853
85681SOL    HW258941   7.771  14.372   9.789
85682SOL     OW58942   9.464   8.135   9.995
85682SOL    HW158943   9.532   8.074  10.022
85682SOL    HW258944   9.417   8.157  10.075
85683SOL     OW58945  12.635   3.204  13.606
85683SOL    HW158946  12.576   3.134  13.633
85683SOL    HW258947  12.599   3.283  13.647
85684SOL     OW58948   0.620   8.260   2.683
85684SOL    HW158949   0.649   8.224   2.767
85684SOL    HW258950   0.528   8.283   2.698
85685SOL     OW58951   5.279   1.233   1.199
85685SOL    HW158952   5.238   1.289   1.266
85685SOL    HW258953   5.355   1.284   1.169
85686SOL     OW58954   3.337   7.206  13.780
85686SOL    HW158955   3.284   7.273  13.736
85686SOL    HW258956   3.274   7.158  13.834
85687SOL     OW58957  10.238  12.710  14.467
85687SOL    HW158958  10.224  12.655  14.544
85687SOL    HW258959  10.324  12.750  14.481
85688SOL     OW58960  12.179  10.867  14.293
85688SOL    HW158961  12.273  10.857  14.301
85688SOL    HW258962  12.163  10.961  14.301
85689SOL     OW58963  14.050   6.385   2.448
85689SOL    HW158964  13.981   6.345   2.395
85689SOL    HW258965  14.104   6.311   2.477
85690SOL     OW58966   3.591  14.733   3.463
85690SOL    HW158967   3.529  14.660   3.466
85690SOL    HW258968   3.537  14.811   3.474
85691SOL     OW58969  13.130   2.408  10.437
85691SOL    HW158970  13.174   2.367  10.363
85691SOL    HW258971  13.118   2.337  10.500
85692SOL     OW58972   9.054  10.268   8.796
85692SOL    HW158973   9.146  10.275   8.770
85692SOL    HW258974   9.006  10.304   8.722
85693SOL     OW58975  13.961  13.017   4.455
85693SOL    HW158976  13.899  12.992   4.524
85693SOL    HW258977  13.928  12.973   4.377
85694SOL     OW58978   3.954   1.749   4.323
85694SOL    HW158979   4.017   1.810   4.285
85694SOL    HW258980   3.883   1.745   4.259
85695SOL     OW58981   3.674   3.728   8.415
85695SOL    HW158982   3.585   3.733   8.448
85695SOL    HW258983   3.666   3.726   8.320
85696SOL     OW58984  10.657   3.830   4.200
85696SOL    HW158985  10.639   3.924   4.204
85696SOL    HW258986  10.587   3.794   4.145
85697SOL     OW58987  11.204   9.070  13.432
85697SOL    HW158988  11.189   9.130  13.359
85697SOL    HW258989  11.171   8.985  13.401
85698SOL     OW58990   1.114  11.079   5.734
85698SOL    HW158991   1.083  11.084   5.825
85698SOL    HW258992   1.038  11.102   5.681
85699SOL     OW58993   1.561   8.813   5.371
85699SOL    HW158994   1.473   8.777   5.379
85699SOL    HW258995   1.596   8.810   5.460
85700SOL     OW58996  10.640   1.510   6.501
85700SOL    HW158997  10.547   1.527   6.512
85700SOL    HW258998  10.661   1.546   6.415
85701SOL     OW58999   7.066   0.320  12.564
85701SOL    HW159000   7.052   0.257  12.493
85701SOL    HW259001   7.005   0.291  12.632
85702SOL     OW59002   4.410  11.572  11.072
85702SOL    HW159003   4.461  11.493  11.090
85702SOL    HW259004   4.388  11.566  10.979
85703SOL     OW59005   6.862   4.860  12.390
85703SOL    HW159006   6.893   4.769  12.390
85703SOL    HW259007   6.825   4.873  12.477
85704SOL     OW59008  13.183   4.656  13.361
85704SOL    HW159009  13.192   4.599  13.284
85704SOL    HW259010  13.264   4.707  13.363
85705SOL     OW59011   0.553  10.227   1.020
85705SOL    HW159012   0.642  10.262   1.015
85705SOL    HW259013   0.513  10.252   0.937
85706SOL     OW59014  11.295  10.839   9.990
85706SOL    HW159015  11.255  10.925  10.006
85706SOL    HW259016  11.387  10.852  10.010
85707SOL     OW59017   3.841   1.567  11.073
85707SOL    HW159018   3.785   1.557  11.150
85707SOL    HW259019   3.858   1.478  11.043
85708SOL     OW59020   6.155   8.537   8.302
85708SOL    HW159021   6.098   8.470   8.340
85708SOL    HW259022   6.228   8.543   8.363
85709SOL     OW59023   1.382   0.686   7.775
85709SOL    HW159024   1.466   0.728   7.754
85709SOL    HW259025   1.371   0.620   7.707
85710SOL     OW59026   9.526   2.183   4.312
85710SOL    HW159027   9.445   2.227   4.287
85710SOL    HW259028   9.535   2.200   4.406
85711SOL     OW59029  11.470  13.847  14.828
85711SOL    HW159030  11.457  13.771  14.772
85711SOL    HW259031  11.544  13.824   0.015
85712SOL     OW59032   8.274   0.332   4.647
85712SOL    HW159033   8.248   0.402   4.587
85712SOL    HW259034   8.339   0.372   4.704
85713SOL     OW59035  10.257  10.571  14.393
85713SOL    HW159036  10.318  10.539  14.459
85713SOL    HW259037  10.300  10.552  14.309
85714SOL     OW59038   7.184   9.764   5.156
85714SOL    HW159039   7.201   9.672   5.177
85714SOL    HW259040   7.250   9.785   5.089
85715SOL     OW59041  11.829   9.750  12.653
85715SOL    HW159042  11.746   9.702  12.656
85715SOL    HW259043  11.803   9.839  12.629
85716SOL     OW59044   2.880   4.066   3.485
85716SOL    HW159045   2.874   4.047   3.391
85716SOL    HW259046   2.790   4.072   3.515
85717SOL     OW59047   4.850   2.260   6.234
85717SOL    HW159048   4.942   2.289   6.233
85717SOL    HW259049   4.842   2.204   6.156
85718SOL     OW59050   2.238  14.044   0.758
85718SOL    HW159051   2.224  13.949   0.759
85718SOL    HW259052   2.277  14.061   0.673
85719SOL     OW59053   1.167   0.614   6.763
85719SOL    HW159054   1.128   0.527   6.759
85719SOL    HW259055   1.143   0.655   6.679
85720SOL     OW59056  10.074  14.853  10.546
85720SOL    HW159057  10.095  14.817  10.460
85720SOL    HW259058  10.104   0.075  10.542
85721SOL     OW59059   3.597   9.024  13.529
85721SOL    HW159060   3.582   8.932  13.505
85721SOL    HW259061   3.554   9.074  13.460
85722SOL     OW59062   5.534  11.714  11.159
85722SOL    HW159063   5.602  11.666  11.112
85722SOL    HW259064   5.533  11.800  11.118
85723SOL     OW59065   9.610  13.532   6.102
85723SOL    HW159066   9.535  13.591   6.095
85723SOL    HW259067   9.577  13.448   6.070
85724SOL     OW59068   0.578   0.648   7.473
85724SOL    HW159069   0.519   0.573   7.468
85724SOL    HW259070   0.521   0.725   7.466
85725SOL     OW59071   8.533   5.673  11.775
85725SOL    HW159072   8.621   5.684  11.739
85725SOL    HW259073   8.493   5.605  11.722
85726SOL     OW59074  11.521  13.209   2.696
85726SOL    HW159075  11.442  13.247   2.658
85726SOL    HW259076  11.557  13.153   2.627
85727SOL     OW59077   1.565  11.241   7.213
85727SOL    HW159078   1.636  11.279   7.161
85727SOL    HW259079   1.609  11.183   7.275
85728SOL     OW59080   5.757   9.034  14.280
85728SOL    HW159081   5.739   9.024  14.187
85728SOL    HW259082   5.851   9.019  14.288
85729SOL     OW59083  10.663   0.101   4.243
85729SOL    HW159084  10.613   0.137   4.169
85729SOL    HW259085  10.694   0.177   4.291
85730SOL     OW59086   7.647  10.973   2.350
85730SOL    HW159087   7.641  10.884   2.317
85730SOL    HW259088   7.736  10.979   2.385
85731SOL     OW59089   3.560   4.675   1.412
85731SOL    HW159090   3.635   4.623   1.439
85731SOL    HW259091   3.595   4.741   1.353
85732SOL     OW59092   5.975   3.405   8.533
85732SOL    HW159093   6.001   3.478   8.588
85732SOL    HW259094   6.013   3.328   8.576
85733SOL     OW59095  14.581   5.365   3.368
85733SOL    HW159096  14.581   5.450   3.412
85733SOL    HW259097  14.669   5.330   3.384
85734SOL     OW59098   6.004   2.006   3.314
85734SOL    HW159099   6.036   1.926   3.355
85734SOL    HW259100   6.080   2.065   3.314
85735SOL     OW59101  12.064   6.017  14.680
85735SOL    HW159102  12.113   6.028  14.762
85735SOL    HW259103  11.974   6.000  14.707
85736SOL     OW59104   4.654   1.045  10.039
85736SOL    HW159105   4.689   0.965  10.078
85736SOL    HW259106   4.611   1.090  10.112
85737SOL     OW59107   3.207  12.261   5.533
85737SOL    HW159108   3.169  12.313   5.604
85737SOL    HW259109   3.162  12.291   5.455
85738SOL     OW59110  13.264   8.379   5.752
85738SOL    HW159111  13.299   8.455   5.705
85738SOL    HW259112  13.341   8.333   5.785
85739SOL     OW59113   4.068  12.391  10.632
85739SOL    HW159114   3.975  12.370  10.645
85739SOL    HW259115   4.090  12.351  10.547
85740SOL     OW59116   5.186   9.908  14.293
85740SOL    HW159117   5.133   9.838  14.330
85740SOL    HW259118   5.224   9.870  14.213
85741SOL     OW59119   5.424  10.048   2.479
85741SOL    HW159120   5.434   9.959   2.444
85741SOL    HW259121   5.423  10.104   2.401
85742SOL     OW59122  14.615   6.134  13.577
85742SOL    HW159123  14.566   6.212  13.604
85742SOL    HW259124  14.575   6.108  13.494
85743SOL     OW59125   6.591   6.925  10.007
85743SOL    HW159126   6.532   6.851  10.025
85743SOL    HW259127   6.635   6.942  10.090
85744SOL     OW59128  12.979  14.113   4.773
85744SOL    HW159129  12.896  14.093   4.730
85744SOL    HW259130  12.965  14.088   4.864
85745SOL     OW59131  10.604   7.815   7.516
85745SOL    HW159132  10.578   7.904   7.540
85745SOL    HW259133  10.578   7.761   7.591
85746SOL     OW59134  14.811   7.696   4.041
85746SOL    HW159135  14.808   7.601   4.051
85746SOL    HW259136  14.820   7.729   4.131
85747SOL     OW59137   9.505   2.829  11.820
85747SOL    HW159138   9.516   2.876  11.903
85747SOL    HW259139   9.427   2.868  11.780
85748SOL     OW59140  10.234   4.258   2.300
85748SOL    HW159141  10.189   4.335   2.267
85748SOL    HW259142  10.289   4.290   2.371
85749SOL     OW59143  11.688   3.989  14.031
85749SOL    HW159144  11.760   3.992  14.093
85749SOL    HW259145  11.687   4.076  13.991
85750SOL     OW59146  14.824   3.197   8.303
85750SOL    HW159147   0.033   3.189   8.248
85750SOL    HW259148  14.843   3.270   8.362
85751SOL     OW59149  13.555   8.624   4.704
85751SOL    HW159150  13.592   8.712   4.705
85751SOL    HW259151  13.469   8.634   4.746
85752SOL     OW59152  11.256  10.115  10.951
85752SOL    HW159153  11.283  10.028  10.922
85752SOL    HW259154  11.281  10.173  10.878
85753SOL     OW59155   3.776  10.637  12.141
85753SOL    HW159156   3.817  10.702  12.084
85753SOL    HW259157   3.784  10.554  12.093
85754SOL     OW59158  13.148   7.424   8.389
85754SOL    HW159159  13.162   7.516   8.366
85754SOL    HW259160  13.114   7.384   8.309
85755SOL     OW59161  11.104   1.224   4.849
85755SOL    HW159162  11.047   1.284   4.800
85755SOL    HW259163  11.043   1.166   4.895
85756SOL     OW59164   8.251   0.781  10.470
85756SOL    HW159165   8.229   0.801  10.561
85756SOL    HW259166   8.312   0.850  10.444
85757SOL     OW59167   3.073   7.059  12.519
85757SOL    HW159168   3.127   7.137  12.515
85757SOL    HW259169   3.043   7.055  12.609
85758SOL     OW59170  10.090   4.489   4.428
85758SOL    HW159171  10.001   4.471   4.398
85758SOL    HW259172  10.130   4.537   4.355
85759SOL     OW59173   4.248   8.706   3.591
85759SOL    HW159174   4.237   8.726   3.498
85759SOL    HW259175   4.343   8.697   3.602
85760SOL     OW59176  14.230   4.425   3.240
85760SOL    HW159177  14.244   4.512   3.276
85760SOL    HW259178  14.316   4.396   3.212
85761SOL     OW59179   9.888  13.455   5.661
85761SOL    HW159180   9.827  13.527   5.675
85761SOL    HW259181   9.924  13.470   5.574
85762SOL     OW59182   2.103  14.814   8.172
85762SOL    HW159183   2.154   0.013   8.129
85762SOL    HW259184   2.049  14.860   8.236
85763SOL     OW59185   8.524   9.141   5.353
85763SOL    HW159186   8.456   9.180   5.299
85763SOL    HW259187   8.478   9.084   5.414
85764SOL     OW59188   7.333   8.724   5.894
85764SOL    HW159189   7.386   8.660   5.847
85764SOL    HW259190   7.372   8.809   5.870
85765SOL     OW59191   1.202   4.207  14.381
85765SOL    HW159192   1.212   4.277  14.317
85765SOL    HW259193   1.172   4.131  14.330
85766SOL     OW59194   9.308   8.737  10.859
85766SOL    HW159195   9.339   8.708  10.945
85766SOL    HW259196   9.216   8.712  10.857
85767SOL     OW59197   4.476  13.468  13.053
85767SOL    HW159198   4.387  13.496  13.077
85767SOL    HW259199   4.513  13.542  13.006
85768SOL     OW59200   1.590   6.472  13.645
85768SOL    HW159201   1.577   6.439  13.557
85768SOL    HW259202   1.578   6.567  13.637
85769SOL     OW59203  11.590  10.944  14.050
85769SOL    HW159204  11.621  10.983  14.133
85769SOL    HW259205  11.509  10.899  14.074
85770SOL     OW59206  10.837   4.107   2.654
85770SOL    HW159207  10.768   4.133   2.715
85770SOL    HW259208  10.907   4.170   2.669
85771SOL     OW59209   1.511   8.048   5.889
85771SOL    HW159210   1.505   7.982   5.958
85771SOL    HW259211   1.421   8.060   5.859
85772SOL     OW59212  12.002   3.337  11.830
85772SOL    HW159213  12.032   3.298  11.913
85772SOL    HW259214  11.933   3.398  11.856
85773SOL     OW59215   6.383   3.067   9.640
85773SOL    HW159216   6.306   3.115   9.670
85773SOL    HW259217   6.419   3.029   9.720
85774SOL     OW59218   5.606  13.170   6.428
85774SOL    HW159219   5.555  13.241   6.466
85774SOL    HW259220   5.615  13.107   6.499
85775SOL     OW59221   6.747   3.370  11.120
85775SOL    HW159222   6.756   3.325  11.203
85775SOL    HW259223   6.771   3.305  11.054
85776SOL     OW59224  10.086  12.881   9.748
85776SOL    HW159225  10.110  12.910   9.835
85776SOL    HW259226   9.995  12.908   9.737
85777SOL     OW59227   0.689   5.937   1.781
85777SOL    HW159228   0.703   5.892   1.698
85777SOL    HW259229   0.603   5.979   1.771
85778SOL     OW59230   9.104   3.558   6.288
85778SOL    HW159231   9.036   3.600   6.235
85778SOL    HW259232   9.183   3.562   6.234
85779SOL     OW59233   3.503  11.579   8.862
85779SOL    HW159234   3.498  11.555   8.954
85779SOL    HW259235   3.517  11.673   8.862
85780SOL     OW59236   3.841  10.207   9.952
85780SOL    HW159237   3.863  10.283  10.007
85780SOL    HW259238   3.915  10.198   9.892
85781SOL     OW59239   4.236   0.344   1.684
85781SOL    HW159240   4.301   0.384   1.626
85781SOL    HW259241   4.151   0.370   1.647
85782SOL     OW59242   6.839  12.497   8.723
85782SOL    HW159243   6.825  12.564   8.657
85782SOL    HW259244   6.928  12.512   8.755
85783SOL     OW59245  13.282  12.180   2.501
85783SOL    HW159246  13.202  12.161   2.550
85783SOL    HW259247  13.254  12.242   2.434
85784SOL     OW59248   3.029   4.416  13.104
85784SOL    HW159249   3.040   4.510  13.088
85784SOL    HW259250   2.998   4.410  13.194
85785SOL     OW59251   9.204   8.569   6.415
85785SOL    HW159252   9.142   8.638   6.438
85785SOL    HW259253   9.267   8.611   6.356
85786SOL     OW59254   8.428   6.807   8.830
85786SOL    HW159255   8.426   6.903   8.826
85786SOL    HW259256   8.374   6.779   8.756
85787SOL     OW59257  13.444   6.270  14.139
85787SOL    HW159258  13.526   6.223  14.125
85787SOL    HW259259  13.400   6.220  14.208
85788SOL     OW59260   8.533   8.060   6.935
85788SOL    HW159261   8.602   7.995   6.929
85788SOL    HW259262   8.503   8.072   6.845
85789SOL     OW59263   9.512   3.148   7.548
85789SOL    HW159264   9.533   3.070   7.600
85789SOL    HW259265   9.423   3.171   7.574
85790SOL     OW59266  12.183  11.656   2.722
85790SOL    HW159267  12.221  11.673   2.636
85790SOL    HW259268  12.103  11.607   2.704
85791SOL     OW59269   2.683  14.428  11.244
85791SOL    HW159270   2.678  14.432  11.339
85791SOL    HW259271   2.748  14.495  11.221
85792SOL     OW59272  12.439  10.114   2.301
85792SOL    HW159273  12.373  10.085   2.238
85792SOL    HW259274  12.459  10.036   2.352
85793SOL     OW59275  10.726   9.457   7.383
85793SOL    HW159276  10.754   9.517   7.452
85793SOL    HW259277  10.775   9.376   7.400
85794SOL     OW59278   2.575   9.509   1.377
85794SOL    HW159279   2.605   9.597   1.354
85794SOL    HW259280   2.575   9.461   1.294
85795SOL     OW59281  14.213  14.823  12.158
85795SOL    HW159282  14.120  14.820  12.181
85795SOL    HW259283  14.231  14.739  12.116
85796SOL     OW59284   1.614   0.280   1.817
85796SOL    HW159285   1.535   0.280   1.763
85796SOL    HW259286   1.594   0.222   1.890
85797SOL     OW59287   0.000   0.987  13.544
85797SOL    HW159288   0.049   0.964  13.623
85797SOL    HW259289  14.842   1.077  13.558
85798SOL     OW59290   1.315  11.149   2.172
85798SOL    HW159291   1.278  11.061   2.182
85798SOL    HW259292   1.400  11.145   2.216
85799SOL     OW59293  11.829   0.305   7.973
85799SOL    HW159294  11.782   0.380   7.938
85799SOL    HW259295  11.875   0.339   8.050
85800SOL     OW59296   0.066   7.634   1.866
85800SOL    HW159297   0.070   7.540   1.847
85800SOL    HW259298  14.843   7.656   1.860
85801SOL     OW59299   4.409  14.682   7.812
85801SOL    HW159300   4.374  14.754   7.760
85801SOL    HW259301   4.472  14.640   7.754
85802SOL     OW59302   3.398   0.577   9.792
85802SOL    HW159303   3.477   0.611   9.834
85802SOL    HW259304   3.336   0.650   9.796
85803SOL     OW59305   3.348  10.750   8.562
85803SOL    HW159306   3.324  10.806   8.636
85803SOL    HW259307   3.265  10.731   8.518
85804SOL     OW59308   4.981  14.563  13.579
85804SOL    HW159309   4.891  14.544  13.550
85804SOL    HW259310   5.009  14.483  13.623
85805SOL     OW59311   3.605  10.034   3.793
85805SOL    HW159312   3.655   9.965   3.748
85805SOL    HW259313   3.669  10.103   3.809
85806SOL     OW59314  11.202   0.139   6.016
85806SOL    HW159315  11.279   0.195   6.011
85806SOL    HW259316  11.184   0.130   6.109
85807SOL     OW59317  13.731   9.679   6.902
85807SOL    HW159318  13.733   9.592   6.861
85807SOL    HW259319  13.780   9.734   6.842
85808SOL     OW59320  11.307   8.601  13.918
85808SOL    HW159321  11.254   8.578  13.841
85808SOL    HW259322  11.264   8.558  13.991
85809SOL     OW59323   0.349   6.444   5.807
85809SOL    HW159324   0.299   6.420   5.728
85809SOL    HW259325   0.391   6.527   5.784
85810SOL     OW59326   9.710   8.326   1.003
85810SOL    HW159327   9.721   8.243   1.050
85810SOL    HW259328   9.669   8.303   0.920
85811SOL     OW59329  14.549  10.400   8.431
85811SOL    HW159330  14.499  10.449   8.496
85811SOL    HW259331  14.486  10.382   8.361
85812SOL     OW59332  10.550   3.307   2.904
85812SOL    HW159333  10.533   3.401   2.910
85812SOL    HW259334  10.644   3.301   2.886
85813SOL     OW59335   2.575   2.708   4.857
85813SOL    HW159336   2.645   2.662   4.810
85813SOL    HW259337   2.513   2.640   4.881
85814SOL     OW59338   8.723   3.208   2.811
85814SOL    HW159339   8.736   3.172   2.723
85814SOL    HW259340   8.714   3.302   2.798
85815SOL     OW59341  12.283   9.722   6.171
85815SOL    HW159342  12.332   9.805   6.172
85815SOL    HW259343  12.315   9.675   6.248
85816SOL     OW59344  12.284   4.620   9.620
85816SOL    HW159345  12.207   4.576   9.585
85816SOL    HW259346  12.253   4.707   9.645
85817SOL     OW59347  13.059   5.736   1.034
85817SOL    HW159348  13.110   5.699   0.962
85817SOL    HW259349  12.981   5.682   1.038
85818SOL     OW59350   4.299   3.705   5.479
85818SOL    HW159351   4.254   3.651   5.413
85818SOL    HW259352   4.391   3.681   5.471
85819SOL     OW59353  11.834  11.159   4.243
85819SOL    HW159354  11.872  11.155   4.331
85819SOL    HW259355  11.747  11.119   4.252
85820SOL     OW59356   7.725  13.414  10.030
85820SOL    HW159357   7.655  13.370  10.080
85820SOL    HW259358   7.797  13.351  10.030
85821SOL     OW59359  10.333  12.326  10.056
85821SOL    HW159360  10.298  12.359   9.974
85821SOL    HW259361  10.257  12.291  10.103
85822SOL     OW59362  11.287   2.770  12.033
85822SOL    HW159363  11.346   2.764  11.957
85822SOL    HW259364  11.343   2.752  12.108
85823SOL     OW59365   3.408  11.791  12.199
85823SOL    HW159366   3.344  11.790  12.270
85823SOL    HW259367   3.464  11.866  12.219
85824SOL     OW59368   5.761   0.700   4.173
85824SOL    HW159369   5.743   0.781   4.125
85824SOL    HW259370   5.773   0.729   4.264
85825SOL     OW59371   7.211  14.462   4.817
85825SOL    HW159372   7.274  14.534   4.821
85825SOL    HW259373   7.183  14.450   4.908
85826SOL     OW59374   9.167  10.769   2.394
85826SOL    HW159375   9.100  10.836   2.382
85826SOL    HW259376   9.122  10.687   2.374
85827SOL     OW59377   2.897   3.520  12.093
85827SOL    HW159378   2.913   3.428  12.072
85827SOL    HW259379   2.818   3.543  12.043
85828SOL     OW59380   7.255   8.199   5.392
85828SOL    HW159381   7.297   8.206   5.306
85828SOL    HW259382   7.257   8.106   5.413
85829SOL     OW59383  12.475   7.291   4.836
85829SOL    HW159384  12.554   7.304   4.889
85829SOL    HW259385  12.507   7.246   4.757
85830SOL     OW59386   5.832  12.923   4.680
85830SOL    HW159387   5.846  12.990   4.613
85830SOL    HW259388   5.905  12.863   4.670
85831SOL     OW59389   1.408   9.777   1.922
85831SOL    HW159390   1.499   9.755   1.901
85831SOL    HW259391   1.381   9.710   1.984
85832SOL     OW59392   1.653   6.046   4.451
85832SOL    HW159393   1.614   6.092   4.526
85832SOL    HW259394   1.746   6.068   4.456
85833SOL     OW59395   1.993   8.596  14.124
85833SOL    HW159396   1.959   8.533  14.187
85833SOL    HW259397   1.916   8.633  14.082
85834SOL     OW59398   7.245   8.810   5.617
85834SOL    HW159399   7.251   8.884   5.677
85834SOL    HW259400   7.336   8.789   5.595
85835SOL     OW59401  10.328   4.009   0.604
85835SOL    HW159402  10.277   3.976   0.531
85835SOL    HW259403  10.380   3.934   0.634
85836SOL     OW59404   5.466   7.778   2.088
85836SOL    HW159405   5.459   7.819   2.002
85836SOL    HW259406   5.534   7.712   2.077
85837SOL     OW59407  14.159  10.467  11.975
85837SOL    HW159408  14.127  10.435  12.059
85837SOL    HW259409  14.112  10.414  11.910
85838SOL     OW59410  13.762  13.164  12.022
85838SOL    HW159411  13.709  13.194  12.096
85838SOL    HW259412  13.802  13.082  12.053
85839SOL     OW59413   1.536   3.966  12.666
85839SOL    HW159414   1.606   4.025  12.694
85839SOL    HW259415   1.463   3.988  12.724
85840SOL     OW59416   2.024   5.209   4.307
85840SOL    HW159417   2.053   5.267   4.236
85840SOL    HW259418   1.945   5.167   4.273
85841SOL     OW59419  10.172  10.012  12.881
85841SOL    HW159420  10.241  10.044  12.940
85841SOL    HW259421  10.152   9.924  12.913
85842SOL     OW59422   5.833  14.624   9.586
85842SOL    HW159423   5.887  14.703   9.581
85842SOL    HW259424   5.756  14.651   9.635
85843SOL     OW59425   5.473   0.005   2.803
85843SOL    HW159426   5.521  14.806   2.850
85843SOL    HW259427   5.534   0.036   2.737
85844SOL     OW59428   5.277   9.186   5.481
85844SOL    HW159429   5.283   9.118   5.415
85844SOL    HW259430   5.306   9.266   5.437
85845SOL     OW59431   4.616  13.634   9.029
85845SOL    HW159432   4.552  13.706   9.038
85845SOL    HW259433   4.698  13.671   9.061
85846SOL     OW59434   8.370   0.424   8.178
85846SOL    HW159435   8.460   0.401   8.201
85846SOL    HW259436   8.347   0.362   8.109
85847SOL     OW59437   2.867  14.654  14.602
85847SOL    HW159438   2.803  14.721  14.625
85847SOL    HW259439   2.861  14.589  14.672
85848SOL     OW59440   2.884   6.897   9.906
85848SOL    HW159441   2.944   6.968   9.884
85848SOL    HW259442   2.822   6.894   9.833
85849SOL     OW59443   7.423  13.080   6.849
85849SOL    HW159444   7.355  13.141   6.819
85849SOL    HW259445   7.453  13.118   6.932
85850SOL     OW59446  14.642   6.521   0.492
85850SOL    HW159447  14.709   6.562   0.437
85850SOL    HW259448  14.559   6.555   0.458
85851SOL     OW59449  12.611   4.138   7.774
85851SOL    HW159450  12.690   4.086   7.755
85851SOL    HW259451  12.552   4.118   7.701
85852SOL     OW59452   0.042   8.778   8.499
85852SOL    HW159453   0.104   8.828   8.446
85852SOL    HW259454   0.093   8.750   8.576
85853SOL     OW59455   5.856   7.634  11.152
85853SOL    HW159456   5.898   7.548  11.159
85853SOL    HW259457   5.875   7.663  11.063
85854SOL     OW59458  10.922   6.718  14.106
85854SOL    HW159459  10.874   6.718  14.189
85854SOL    HW259460  10.923   6.627  14.078
85855SOL     OW59461   7.901   7.811  13.769
85855SOL    HW159462   7.925   7.895  13.729
85855SOL    HW259463   7.939   7.814  13.857
85856SOL     OW59464   4.116   7.542   2.816
85856SOL    HW159465   4.204   7.510   2.796
85856SOL    HW259466   4.099   7.512   2.905
85857SOL     OW59467  10.526   4.475   7.053
85857SOL    HW159468  10.608   4.476   7.003
85857SOL    HW259469  10.466   4.529   7.001
85858SOL     OW59470  10.586   7.028   7.851
85858SOL    HW159471  10.564   6.947   7.897
85858SOL    HW259472  10.679   7.041   7.868
85859SOL     OW59473  14.753  14.828   2.546
85859SOL    HW159474  14.668  14.791   2.521
85859SOL    HW259475  14.804  14.828   2.466
85860SOL     OW59476   2.945   7.907   5.000
85860SOL    HW159477   2.911   7.973   5.061
85860SOL    HW259478   2.867   7.866   4.963
85861SOL     OW59479   4.720   3.845  12.528
85861SOL    HW159480   4.747   3.758  12.497
85861SOL    HW259481   4.753   3.849  12.618
85862SOL     OW59482   1.202  12.578   5.095
85862SOL    HW159483   1.215  12.589   5.001
85862SOL    HW259484   1.209  12.667   5.131
85863SOL     OW59485  13.425   1.308   3.873
85863SOL    HW159486  13.459   1.365   3.943
85863SOL    HW259487  13.484   1.233   3.873
85864SOL     OW59488  12.963   3.626  14.094
85864SOL    HW159489  12.997   3.676  14.168
85864SOL    HW259490  12.955   3.536  14.127
85865SOL     OW59491  11.103   7.969   7.985
85865SOL    HW159492  11.114   7.963   7.890
85865SOL    HW259493  11.070   8.057   7.999
85866SOL     OW59494   8.350   9.950   6.164
85866SOL    HW159495   8.263   9.920   6.188
85866SOL    HW259496   8.345   9.968   6.071
85867SOL     OW59497  10.448   0.968   5.963
85867SOL    HW159498  10.353   0.974   5.955
85867SOL    HW259499  10.463   0.955   6.057
85868SOL     OW59500  14.149  10.949   4.528
85868SOL    HW159501  14.235  10.984   4.553
85868SOL    HW259502  14.090  11.024   4.538
85869SOL     OW59503   6.088  13.259   7.052
85869SOL    HW159504   6.130  13.192   6.997
85869SOL    HW259505   5.996  13.233   7.056
85870SOL     OW59506  11.929   3.217   3.172
85870SOL    HW159507  12.003   3.234   3.114
85870SOL    HW259508  11.968   3.183   3.252
85871SOL     OW59509   9.197  14.194   9.476
85871SOL    HW159510   9.225  14.168   9.564
85871SOL    HW259511   9.252  14.142   9.418
85872SOL     OW59512  13.246   2.780   2.244
85872SOL    HW159513  13.223   2.687   2.249
85872SOL    HW259514  13.163   2.824   2.228
85873SOL     OW59515   8.864   7.895  12.893
85873SOL    HW159516   8.797   7.944  12.844
85873SOL    HW259517   8.904   7.960  12.950
85874SOL     OW59518  11.243  12.437  10.408
85874SOL    HW159519  11.321  12.410  10.359
85874SOL    HW259520  11.177  12.453  10.341
85875SOL     OW59521  14.071   8.054  10.535
85875SOL    HW159522  14.109   8.099  10.610
85875SOL    HW259523  14.141   7.999  10.501
85876SOL     OW59524  14.346   3.560   0.985
85876SOL    HW159525  14.416   3.519   0.935
85876SOL    HW259526  14.375   3.650   0.997
85877SOL     OW59527   9.565   0.892  13.666
85877SOL    HW159528   9.560   0.797  13.653
85877SOL    HW259529   9.477   0.917  13.693
85878SOL     OW59530  11.742  13.428  10.522
85878SOL    HW159531  11.742  13.389  10.610
85878SOL    HW259532  11.687  13.506  10.531
85879SOL     OW59533   8.023  14.568   3.406
85879SOL    HW159534   8.033  14.491   3.462
85879SOL    HW259535   7.938  14.555   3.363
85880SOL     OW59536   4.508  12.562   1.907
85880SOL    HW159537   4.558  12.606   1.976
85880SOL    HW259538   4.566  12.562   1.831
85881SOL     OW59539  12.498  12.816  12.639
85881SOL    HW159540  12.561  12.784  12.704
85881SOL    HW259541  12.461  12.736  12.601
85882SOL     OW59542   2.740   1.594  10.125
85882SOL    HW159543   2.831   1.564  10.124
85882SOL    HW259544   2.717   1.600  10.218
85883SOL     OW59545  10.441   7.434   2.251
85883SOL    HW159546  10.426   7.419   2.344
85883SOL    HW259547  10.419   7.527   2.237
85884SOL     OW59548   3.222   9.966   3.377
85884SOL    HW159549   3.158  10.037   3.390
85884SOL    HW259550   3.258   9.951   3.464
85885SOL     OW59551   7.666  12.957   3.156
85885SOL    HW159552   7.638  12.933   3.067
85885SOL    HW259553   7.607  13.028   3.181
85886SOL     OW59554   1.357   3.524   8.970
85886SOL    HW159555   1.413   3.573   9.029
85886SOL    HW259556   1.322   3.452   9.023
85887SOL     OW59557  14.436  14.045   4.761
85887SOL    HW159558  14.428  14.084   4.848
85887SOL    HW259559  14.527  14.018   4.756
85888SOL     OW59560  13.720  13.552   2.517
85888SOL    HW159561  13.696  13.490   2.585
85888SOL    HW259562  13.650  13.546   2.452
85889SOL     OW59563  14.311   3.870  11.765
85889SOL    HW159564  14.358   3.913  11.837
85889SOL    HW259565  14.311   3.935  11.694
85890SOL     OW59566   5.859  10.518  13.082
85890SOL    HW159567   5.913  10.439  13.089
85890SOL    HW259568   5.821  10.514  12.994
85891SOL     OW59569  11.243  10.813  10.941
85891SOL    HW159570  11.337  10.829  10.930
85891SOL    HW259571  11.225  10.736  10.887
85892SOL     OW59572   9.291   0.635   9.573
85892SOL    HW159573   9.281   0.558   9.517
85892SOL    HW259574   9.371   0.677   9.543
85893SOL     OW59575   1.750  13.424  10.362
85893SOL    HW159576   1.674  13.393  10.411
85893SOL    HW259577   1.761  13.359  10.293
85894SOL     OW59578   0.150  10.023   4.087
85894SOL    HW159579   0.158  10.117   4.107
85894SOL    HW259580   0.211  10.008   4.015
85895SOL     OW59581   6.188   7.299   0.827
85895SOL    HW159582   6.156   7.385   0.854
85895SOL    HW259583   6.118   7.239   0.850
85896SOL     OW59584  11.885   2.913   0.676
85896SOL    HW159585  11.954   2.908   0.610
85896SOL    HW259586  11.804   2.914   0.625
85897SOL     OW59587   5.048   3.640  14.263
85897SOL    HW159588   5.017   3.554  14.293
85897SOL    HW259589   5.093   3.621  14.180
85898SOL     OW59590   9.907   0.426  13.653
85898SOL    HW159591   9.814   0.405  13.658
85898SOL    HW259592   9.916   0.478  13.573
85899SOL     OW59593   1.599  13.174  12.023
85899SOL    HW159594   1.506  13.151  12.030
85899SOL    HW259595   1.644  13.113  12.081
85900SOL     OW59596   2.655  11.192  12.584
85900SOL    HW159597   2.626  11.235  12.504
85900SOL    HW259598   2.602  11.232  12.653
85901SOL     OW59599  13.197  13.861   8.834
85901SOL    HW159600  13.139  13.797   8.875
85901SOL    HW259601  13.162  13.946   8.861
85902SOL     OW59602   4.361   4.056  12.833
85902SOL    HW159603   4.417   4.119  12.786
85902SOL    HW259604   4.272   4.082  12.809
85903SOL     OW59605  10.519   4.146   4.993
85903SOL    HW159606  10.527   4.199   5.073
85903SOL    HW259607  10.428   4.156   4.966
85904SOL     OW59608   4.347  10.135  13.446
85904SOL    HW159609   4.432  10.178  13.440
85904SOL    HW259610   4.297  10.171  13.372
85905SOL     OW59611   2.807  11.348  10.009
85905SOL    HW159612   2.789  11.323   9.919
85905SOL    HW259613   2.726  11.388  10.040
85906SOL     OW59614  14.041   9.855  10.380
85906SOL    HW159615  14.057   9.764  10.407
85906SOL    HW259616  14.129   9.894  10.376
85907SOL     OW59617   2.542  12.794   2.320
85907SOL    HW159618   2.507  12.709   2.292
85907SOL    HW259619   2.489  12.817   2.397
85908SOL     OW59620   2.237  11.908   1.398
85908SOL    HW159621   2.310  11.968   1.414
85908SOL    HW259622   2.192  11.901   1.483
85909SOL     OW59623  11.919  14.265   9.799
85909SOL    HW159624  11.942  14.351   9.834
85909SOL    HW259625  11.998  14.238   9.750
85910SOL     OW59626   1.168   5.104   8.028
85910SOL    HW159627   1.171   5.177   8.090
85910SOL    HW259628   1.255   5.065   8.032
85911SOL     OW59629   6.234   6.740  13.348
85911SOL    HW159630   6.209   6.747  13.440
85911SOL    HW259631   6.192   6.815  13.306
85912SOL     OW59632  11.254   8.672   1.854
85912SOL    HW159633  11.233   8.755   1.897
85912SOL    HW259634  11.272   8.696   1.763
85913SOL     OW59635   4.602   7.329  12.241
85913SOL    HW159636   4.633   7.355  12.154
85913SOL    HW259637   4.683   7.320  12.292
85914SOL     OW59638   4.367   9.731   8.371
85914SOL    HW159639   4.399   9.713   8.283
85914SOL    HW259640   4.339   9.646   8.405
85915SOL     OW59641  14.617   7.484   1.429
85915SOL    HW159642  14.582   7.494   1.341
85915SOL    HW259643  14.679   7.411   1.423
85916SOL     OW59644  12.604  10.199  13.060
85916SOL    HW159645  12.596  10.106  13.081
85916SOL    HW259646  12.645  10.237  13.138
85917SOL     OW59647   9.010   5.707   5.884
85917SOL    HW159648   9.055   5.634   5.925
85917SOL    HW259649   8.929   5.670   5.850
85918SOL     OW59650  14.001  13.256   6.059
85918SOL    HW159651  14.033  13.332   6.011
85918SOL    HW259652  13.977  13.290   6.146
85919SOL     OW59653   8.832   4.005   2.972
85919SOL    HW159654   8.780   4.010   3.052
85919SOL    HW259655   8.858   4.095   2.954
85920SOL     OW59656   9.478   5.970   2.535
85920SOL    HW159657   9.420   6.028   2.484
85920SOL    HW259658   9.445   5.977   2.624
85921SOL     OW59659   1.157  11.758  13.983
85921SOL    HW159660   1.181  11.752  14.076
85921SOL    HW259661   1.225  11.814  13.945
85922SOL     OW59662  10.202   2.099   0.786
85922SOL    HW159663  10.281   2.096   0.733
85922SOL    HW259664  10.152   2.173   0.752
85923SOL     OW59665   8.982   7.122   0.413
85923SOL    HW159666   9.002   7.211   0.383
85923SOL    HW259667   9.001   7.066   0.338
85924SOL     OW59668   5.720   1.005   8.742
85924SOL    HW159669   5.701   0.976   8.653
85924SOL    HW259670   5.808   1.043   8.736
85925SOL     OW59671  13.102   1.085  14.823
85925SOL    HW159672  13.172   1.102  14.759
85925SOL    HW259673  13.027   1.058  14.770
85926SOL     OW59674   8.841  14.516   2.911
85926SOL    HW159675   8.801  14.578   2.972
85926SOL    HW259676   8.894  14.571   2.853
85927SOL     OW59677  14.849  12.863   5.629
85927SOL    HW159678  14.859  12.811   5.549
85927SOL    HW259679   0.058  12.844   5.680
85928SOL     OW59680   6.391   6.695   6.645
85928SOL    HW159681   6.428   6.704   6.557
85928SOL    HW259682   6.310   6.646   6.632
85929SOL     OW59683   6.767   5.848  14.651
85929SOL    HW159684   6.721   5.932  14.645
85929SOL    HW259685   6.843   5.867  14.706
85930SOL     OW59686   7.305   6.431   5.821
85930SOL    HW159687   7.391   6.456   5.856
85930SOL    HW259688   7.276   6.360   5.878
85931SOL     OW59689  14.106   4.999  13.968
85931SOL    HW159690  14.186   5.029  13.925
85931SOL    HW259691  14.091   4.912  13.932
85932SOL     OW59692   9.415  14.032   2.788
85932SOL    HW159693   9.381  14.010   2.701
85932SOL    HW259694   9.348  14.002   2.849
85933SOL     OW59695   8.495  11.748   5.811
85933SOL    HW159696   8.441  11.763   5.734
85933SOL    HW259697   8.552  11.825   5.817
85934SOL     OW59698  12.320   0.133  10.866
85934SOL    HW159699  12.327   0.196  10.794
85934SOL    HW259700  12.247   0.076  10.841
85935SOL     OW59701  10.887  12.925  13.163
85935SOL    HW159702  10.975  12.912  13.199
85935SOL    HW259703  10.839  12.846  13.188
85936SOL     OW59704   4.737   9.406  13.832
85936SOL    HW159705   4.823   9.367  13.843
85936SOL    HW259706   4.685   9.339  13.788
85937SOL     OW59707   3.595   9.721   7.080
85937SOL    HW159708   3.673   9.733   7.025
85937SOL    HW259709   3.612   9.775   7.157
85938SOL     OW59710   1.258  14.687  12.155
85938SOL    HW159711   1.222  14.626  12.219
85938SOL    HW259712   1.241  14.774  12.192
85939SOL     OW59713  10.638   9.366   0.363
85939SOL    HW159714  10.664   9.294   0.306
85939SOL    HW259715  10.699   9.362   0.437
85940SOL     OW59716  11.888   3.033   8.449
85940SOL    HW159717  11.877   3.093   8.523
85940SOL    HW259718  11.883   3.089   8.372
85941SOL     OW59719   3.920   6.802   8.802
85941SOL    HW159720   3.906   6.708   8.787
85941SOL    HW259721   3.867   6.845   8.735
85942SOL     OW59722   4.330   9.077  12.690
85942SOL    HW159723   4.297   9.150  12.639
85942SOL    HW259724   4.312   9.000  12.636
85943SOL     OW59725  10.149   6.474   3.946
85943SOL    HW159726  10.090   6.549   3.952
85943SOL    HW259727  10.092   6.398   3.959
85944SOL     OW59728   5.323  11.704   9.247
85944SOL    HW159729   5.293  11.615   9.265
85944SOL    HW259730   5.331  11.745   9.334
85945SOL     OW59731   8.355   0.645  10.018
85945SOL    HW159732   8.441   0.605  10.006
85945SOL    HW259733   8.318   0.600  10.094
85946SOL     OW59734   0.981   5.196  14.143
85946SOL    HW159735   0.925   5.241  14.080
85946SOL    HW259736   0.973   5.247  14.223
85947SOL     OW59737   7.916  10.215  13.555
85947SOL    HW159738   7.940  10.303  13.526
85947SOL    HW259739   7.909  10.164  13.474
85948SOL     OW59740   7.895   7.192  11.476
85948SOL    HW159741   7.937   7.224  11.556
85948SOL    HW259742   7.917   7.099  11.473
85949SOL     OW59743  10.786  13.939   1.211
85949SOL    HW159744  10.852  13.891   1.262
85949SOL    HW259745  10.825  14.025   1.196
85950SOL     OW59746   7.312  14.152   3.333
85950SOL    HW159747   7.256  14.147   3.410
85950SOL    HW259748   7.380  14.086   3.348
85951SOL     OW59749  13.059   9.440   6.380
85951SOL    HW159750  13.043   9.438   6.475
85951SOL    HW259751  13.019   9.360   6.347
85952SOL     OW59752   7.663  10.717   3.869
85952SOL    HW159753   7.719  10.656   3.916
85952SOL    HW259754   7.576  10.677   3.872
85953SOL     OW59755   9.757   0.592   4.958
85953SOL    HW159756   9.670   0.626   4.975
85953SOL    HW259757   9.744   0.498   4.946
85954SOL     OW59758   0.179   9.032   2.404
85954SOL    HW159759   0.190   9.126   2.391
85954SOL    HW259760   0.135   9.024   2.488
85955SOL     OW59761   2.078   2.989   8.985
85955SOL    HW159762   2.096   3.049   8.913
85955SOL    HW259763   1.988   2.961   8.971
85956SOL     OW59764   0.250   9.043  12.965
85956SOL    HW159765   0.227   9.076  12.879
85956SOL    HW259766   0.330   8.992  12.951
85957SOL     OW59767  10.520  11.312   6.854
85957SOL    HW159768  10.472  11.325   6.772
85957SOL    HW259769  10.591  11.252   6.831
85958SOL     OW59770   5.977   7.476  11.712
85958SOL    HW159771   5.935   7.437  11.636
85958SOL    HW259772   6.071   7.465  11.696
85959SOL     OW59773   2.489   1.917   3.247
85959SOL    HW159774   2.498   1.949   3.158
85959SOL    HW259775   2.411   1.961   3.281
85960SOL     OW59776   2.784   0.242   6.186
85960SOL    HW159777   2.809   0.250   6.095
85960SOL    HW259778   2.857   0.196   6.228
85961SOL     OW59779   6.182   2.488   3.310
85961SOL    HW159780   6.187   2.397   3.339
85961SOL    HW259781   6.092   2.500   3.283
85962SOL     OW59782   4.270  13.760  11.329
85962SOL    HW159783   4.224  13.696  11.383
85962SOL    HW259784   4.279  13.837  11.385
85963SOL     OW59785   1.961  13.824  13.722
85963SOL    HW159786   1.911  13.854  13.646
85963SOL    HW259787   2.036  13.778  13.685
85964SOL     OW59788   8.240   0.014  14.070
85964SOL    HW159789   8.167  14.824  14.085
85964SOL    HW259790   8.304  14.833  14.020
85965SOL     OW59791   6.992   7.423  10.249
85965SOL    HW159792   6.973   7.362  10.320
85965SOL    HW259793   6.908   7.433  10.203
85966SOL     OW59794   4.228   1.794   1.106
85966SOL    HW159795   4.229   1.814   1.012
85966SOL    HW259796   4.315   1.817   1.137
85967SOL     OW59797   7.467   1.513   9.196
85967SOL    HW159798   7.453   1.423   9.167
85967SOL    HW259799   7.382   1.541   9.231
85968SOL     OW59800   2.546  14.697  13.095
85968SOL    HW159801   2.462  14.727  13.061
85968SOL    HW259802   2.562  14.752  13.171
85969SOL     OW59803   3.136  10.387  14.539
85969SOL    HW159804   3.058  10.402  14.486
85969SOL    HW259805   3.208  10.417  14.484
85970SOL     OW59806  13.513  13.757  13.591
85970SOL    HW159807  13.551  13.747  13.503
85970SOL    HW259808  13.492  13.667  13.617
85971SOL     OW59809   6.314   2.673  10.200
85971SOL    HW159810   6.219   2.687  10.193
85971SOL    HW259811   6.347   2.693  10.113
85972SOL     OW59812  13.295   9.677  13.020
85972SOL    HW159813  13.258   9.716  13.100
85972SOL    HW259814  13.222   9.680  12.957
85973SOL     OW59815   8.946   4.421   6.780
85973SOL    HW159816   8.978   4.332   6.775
85973SOL    HW259817   8.974   4.452   6.866
85974SOL     OW59818   0.335   9.264   9.507
85974SOL    HW159819   0.253   9.310   9.488
85974SOL    HW259820   0.329   9.244   9.601
85975SOL     OW59821  14.277  14.138   3.342
85975SOL    HW159822  14.336  14.097   3.405
85975SOL    HW259823  14.226  14.200   3.394
85976SOL     OW59824  13.918   9.964   6.024
85976SOL    HW159825  13.863  10.026   6.073
85976SOL    HW259826  13.855   9.913   5.973
85977SOL     OW59827   9.444   7.804   4.022
85977SOL    HW159828   9.508   7.761   4.079
85977SOL    HW259829   9.404   7.871   4.077
85978SOL     OW59830   2.745   1.422   1.492
85978SOL    HW159831   2.762   1.516   1.492
85978SOL    HW259832   2.759   1.395   1.401
85979SOL     OW59833  13.784   5.200   2.602
85979SOL    HW159834  13.787   5.111   2.637
85979SOL    HW259835  13.696   5.209   2.567
85980SOL     OW59836   7.245   3.827   6.042
85980SOL    HW159837   7.239   3.862   5.954
85980SOL    HW259838   7.245   3.904   6.099
85981SOL     OW59839  13.953  11.294  13.406
85981SOL    HW159840  14.042  11.301  13.371
85981SOL    HW259841  13.943  11.201  13.426
85982SOL     OW59842  10.647   6.554  13.287
85982SOL    HW159843  10.592   6.485  13.249
85982SOL    HW259844  10.731   6.544  13.244
85983SOL     OW59845   1.048   6.081   4.673
85983SOL    HW159846   1.005   6.094   4.588
85983SOL    HW259847   1.066   6.170   4.705
85984SOL     OW59848   0.618   0.129  12.566
85984SOL    HW159849   0.646   0.068  12.635
85984SOL    HW259850   0.611   0.213  12.610
85985SOL     OW59851  11.712   3.309  12.128
85985SOL    HW159852  11.735   3.381  12.069
85985SOL    HW259853  11.619   3.294  12.112
85986SOL     OW59854   4.729   9.778   8.065
85986SOL    HW159855   4.646   9.737   8.091
85986SOL    HW259856   4.731   9.768   7.970
85987SOL     OW59857   6.892  12.473   4.861
85987SOL    HW159858   6.872  12.424   4.941
85987SOL    HW259859   6.988  12.477   4.859
85988SOL     OW59860   9.628   6.643   0.197
85988SOL    HW159861   9.697   6.608   0.254
85988SOL    HW259862   9.559   6.669   0.257
85989SOL     OW59863  13.950   4.977  11.053
85989SOL    HW159864  13.886   4.994  10.985
85989SOL    HW259865  14.025   4.940  11.007
85990SOL     OW59866  13.485   0.093   5.203
85990SOL    HW159867  13.401   0.117   5.242
85990SOL    HW259868  13.484   0.134   5.116
85991SOL     OW59869   4.831   5.905   2.414
85991SOL    HW159870   4.895   5.970   2.443
85991SOL    HW259871   4.755   5.957   2.386
85992SOL     OW59872  13.804  13.814  14.693
85992SOL    HW159873  13.799  13.906  14.720
85992SOL    HW259874  13.793  13.765  14.774
85993SOL     OW59875   8.198   7.928   1.387
85993SOL    HW159876   8.157   7.971   1.462
85993SOL    HW259877   8.192   7.834   1.406
85994SOL     OW59878   3.284   2.337   5.906
85994SOL    HW159879   3.200   2.380   5.889
85994SOL    HW259880   3.304   2.292   5.824
85995SOL     OW59881   0.063   1.348   3.989
85995SOL    HW159882   0.065   1.410   4.062
85995SOL    HW259883  14.847   1.363   3.948
85996SOL     OW59884   5.381   0.975   4.749
85996SOL    HW159885   5.331   1.025   4.684
85996SOL    HW259886   5.318   0.958   4.819
85997SOL     OW59887  13.846   8.632  13.312
85997SOL    HW159888  13.849   8.726  13.328
85997SOL    HW259889  13.937   8.606  13.301
85998SOL     OW59890  12.277  10.961  14.562
85998SOL    HW159891  12.266  10.902  14.637
85998SOL    HW259892  12.270  11.048  14.600
85999SOL     OW59893  11.831  10.650   9.461
85999SOL    HW159894  11.810  10.622   9.372
85999SOL    HW259895  11.748  10.645   9.508
86000SOL     OW59896  12.344   7.539   0.810
86000SOL    HW159897  12.273   7.515   0.869
86000SOL    HW259898  12.303   7.544   0.724
86001SOL     OW59899   0.252  13.651   6.899
86001SOL    HW159900   0.259  13.618   6.809
86001SOL    HW259901   0.278  13.743   6.893
86002SOL     OW59902   4.960   5.633  11.442
86002SOL    HW159903   5.019   5.682  11.500
86002SOL    HW259904   4.886   5.692  11.429
86003SOL     OW59905   2.090   2.204  14.315
86003SOL    HW159906   2.065   2.143  14.385
86003SOL    HW259907   2.043   2.173  14.238
86004SOL     OW59908  14.199  11.598   5.428
86004SOL    HW159909  14.176  11.575   5.338
86004SOL    HW259910  14.119  11.579   5.478
86005SOL     OW59911   7.747   0.092  10.326
86005SOL    HW159912   7.830   0.140  10.327
86005SOL    HW259913   7.685   0.149  10.372
86006SOL     OW59914  14.537   0.692   7.654
86006SOL    HW159915  14.550   0.681   7.559
86006SOL    HW259916  14.525   0.602   7.686
86007SOL     OW59917  10.666  14.330   8.801
86007SOL    HW159918  10.640  14.297   8.715
86007SOL    HW259919  10.660  14.255   8.859
86008SOL     OW59920   7.438   9.460   7.063
86008SOL    HW159921   7.457   9.551   7.042
86008SOL    HW259922   7.343   9.458   7.077
86009SOL     OW59923   0.223   5.094   2.615
86009SOL    HW159924   0.286   5.022   2.614
86009SOL    HW259925   0.275   5.171   2.638
86010SOL     OW59926  12.833   3.169   9.842
86010SOL    HW159927  12.874   3.124   9.769
86010SOL    HW259928  12.739   3.165   9.823
86011SOL     OW59929  10.702   1.841   2.361
86011SOL    HW159930  10.608   1.825   2.361
86011SOL    HW259931  10.741   1.764   2.319
86012SOL     OW59932   1.078  11.267   4.001
86012SOL    HW159933   1.136  11.199   3.967
86012SOL    HW259934   1.087  11.339   3.939
86013SOL     OW59935  12.555  12.069  11.258
86013SOL    HW159936  12.512  12.153  11.268
86013SOL    HW259937  12.593  12.072  11.170
86014SOL     OW59938  11.221   8.061   3.445
86014SOL    HW159939  11.289   8.104   3.496
86014SOL    HW259940  11.242   8.083   3.354
86015SOL     OW59941  10.024   4.683  13.478
86015SOL    HW159942  10.113   4.648  13.477
86015SOL    HW259943  10.025   4.754  13.414
86016SOL     OW59944   5.282   5.640   9.323
86016SOL    HW159945   5.359   5.583   9.325
86016SOL    HW259946   5.294   5.693   9.244
86017SOL     OW59947  12.159  14.360   9.201
86017SOL    HW159948  12.070  14.387   9.226
86017SOL    HW259949  12.171  14.395   9.113
86018SOL     OW59950   2.552   4.384   6.107
86018SOL    HW159951   2.556   4.417   6.197
86018SOL    HW259952   2.482   4.434   6.066
86019SOL     OW59953   2.982  12.886   5.359
86019SOL    HW159954   2.980  12.953   5.291
86019SOL    HW259955   2.901  12.899   5.407
86020SOL     OW59956   7.289   3.496  11.351
86020SOL    HW159957   7.314   3.589  11.349
86020SOL    HW259958   7.227   3.488  11.278
86021SOL     OW59959  12.866   3.737  10.368
86021SOL    HW159960  12.867   3.801  10.297
86021SOL    HW259961  12.958   3.711  10.378
86022SOL     OW59962   9.124  11.014  12.764
86022SOL    HW159963   9.141  11.099  12.806
86022SOL    HW259964   9.133  11.031  12.670
86023SOL     OW59965   9.390   8.416   3.509
86023SOL    HW159966   9.326   8.446   3.573
86023SOL    HW259967   9.398   8.322   3.525
86024SOL     OW59968  14.724   2.410  14.601
86024SOL    HW159969  14.713   2.450  14.688
86024SOL    HW259970  14.648   2.353  14.591
86025SOL     OW59971  10.290   2.181   4.340
86025SOL    HW159972  10.379   2.161   4.311
86025SOL    HW259973  10.288   2.153   4.432
86026SOL     OW59974   3.257   9.883   5.288
86026SOL    HW159975   3.178   9.905   5.337
86026SOL    HW259976   3.232   9.892   5.196
86027SOL     OW59977  10.210   1.337   0.969
86027SOL    HW159978  10.126   1.309   0.931
86027SOL    HW259979  10.190   1.350   1.062
86028SOL     OW59980  10.543   0.865   7.360
86028SOL    HW159981  10.609   0.872   7.292
86028SOL    HW259982  10.463   0.899   7.320
86029SOL     OW59983   9.699   0.893  14.592
86029SOL    HW159984   9.792   0.908  14.607
86029SOL    HW259985   9.685   0.916  14.500
86030SOL     OW59986   9.060  12.140  14.338
86030SOL    HW159987   9.072  12.214  14.396
86030SOL    HW259988   9.050  12.065  14.396
86031SOL     OW59989   5.312   3.243   2.485
86031SOL    HW159990   5.393   3.191   2.478
86031SOL    HW259991   5.332   3.307   2.554
86032SOL     OW59992  10.393  10.750   3.190
86032SOL    HW159993  10.365  10.767   3.279
86032SOL    HW259994  10.313  10.725   3.144
86033SOL     OW59995   3.012   0.162   0.035
86033SOL    HW159996   2.945   0.134   0.097
86033SOL    HW259997   2.987   0.252   0.012
86034SOL     OW59998   8.532   3.614   8.720
86034SOL    HW159999   8.581   3.539   8.686
86034SOL    HW260000   8.494   3.654   8.642
86035SOL     OW60001   8.212   2.591   4.009
86035SOL    HW160002   8.273   2.557   3.943
86035SOL    HW260003   8.241   2.681   4.025
86036SOL     OW60004   5.224  14.602  13.005
86036SOL    HW160005   5.255  14.655  12.931
86036SOL    HW260006   5.205  14.666  13.073
86037SOL     OW60007   2.213  12.184  10.152
86037SOL    HW160008   2.178  12.157  10.067
86037SOL    HW260009   2.188  12.276  10.160
86038SOL     OW60010   4.076   2.966   4.266
86038SOL    HW160011   4.075   3.030   4.336
86038SOL    HW260012   4.031   2.889   4.302
86039SOL     OW60013   6.388   7.476   0.608
86039SOL    HW160014   6.322   7.448   0.672
86039SOL    HW260015   6.401   7.569   0.625
86040SOL     OW60016  13.386   1.627   1.599
86040SOL    HW160017  13.419   1.613   1.510
86040SOL    HW260018  13.458   1.601   1.656
86041SOL     OW60019   7.886   5.842   6.793
86041SOL    HW160020   7.810   5.868   6.846
86041SOL    HW260021   7.961   5.868   6.846
86042SOL     OW60022  14.503   6.561  11.895
86042SOL    HW160023  14.409   6.572  11.910
86042SOL    HW260024  14.542   6.565  11.983
86043SOL     OW60025  10.872  10.213   8.344
86043SOL    HW160026  10.857  10.300   8.382
86043SOL    HW260027  10.876  10.154   8.418
86044SOL     OW60028   1.355   2.503   8.437
86044SOL    HW160029   1.385   2.556   8.511
86044SOL    HW260030   1.375   2.556   8.360
86045SOL     OW60031   0.277  11.856   9.991
86045SOL    HW160032   0.233  11.773  10.011
86045SOL    HW260033   0.357  11.854  10.044
86046SOL     OW60034  11.168   7.395   7.292
86046SOL    HW160035  11.109   7.328   7.325
86046SOL    HW260036  11.154   7.396   7.197
86047SOL     OW60037   7.636  12.335   4.032
86047SOL    HW160038   7.720  12.380   4.036
86047SOL    HW260039   7.637  12.288   3.949
86048SOL     OW60040  10.931   9.864   9.121
86048SOL    HW160041  10.993   9.928   9.156
86048SOL    HW260042  10.879   9.913   9.058
86049SOL     OW60043   2.255   1.401  13.565
86049SOL    HW160044   2.344   1.428  13.588
86049SOL    HW260045   2.204   1.421  13.644
86050SOL     OW60046   2.573  14.839  10.938
86050SOL    HW160047   2.542  14.751  10.962
86050SOL    HW260048   2.657  14.848  10.982
86051SOL     OW60049  13.599   1.503   6.034
86051SOL    HW160050  13.674   1.539   6.082
86051SOL    HW260051  13.633   1.486   5.946
86052SOL     OW60052   9.538  11.806   7.563
86052SOL    HW160053   9.492  11.739   7.614
86052SOL    HW260054   9.549  11.767   7.477
86053SOL     OW60055   3.448   9.849  12.780
86053SOL    HW160056   3.539   9.875  12.790
86053SOL    HW260057   3.420   9.824  12.868
86054SOL     OW60058   6.957   6.072  10.189
86054SOL    HW160059   7.014   6.028  10.252
86054SOL    HW260060   7.002   6.155  10.170
86055SOL     OW60061   1.018   6.448   2.825
86055SOL    HW160062   0.925   6.462   2.845
86055SOL    HW260063   1.017   6.382   2.755
86056SOL     OW60064   7.663   1.012  13.921
86056SOL    HW160065   7.658   0.916  13.925
86056SOL    HW260066   7.572   1.040  13.906
86057SOL     OW60067   0.664  11.768   7.079
86057SOL    HW160068   0.581  11.772   7.031
86057SOL    HW260069   0.729  11.803   7.018
86058SOL     OW60070   9.204  12.060   5.861
86058SOL    HW160071   9.283  12.034   5.813
86058SOL    HW260072   9.211  12.156   5.866
86059SOL     OW60073   3.844   7.693   4.881
86059SOL    HW160074   3.932   7.700   4.842
86059SOL    HW260075   3.825   7.782   4.911
86060SOL     OW60076  12.664   6.510   8.565
86060SOL    HW160077  12.735   6.493   8.627
86060SOL    HW260078  12.644   6.603   8.577
86061SOL     OW60079  11.362  10.659   6.959
86061SOL    HW160080  11.423  10.685   6.890
86061SOL    HW260081  11.309  10.590   6.921
86062SOL     OW60082   7.336  14.752   4.312
86062SOL    HW160083   7.273  14.709   4.255
86062SOL    HW260084   7.373  14.682   4.365
86063SOL     OW60085   4.572  14.617   2.978
86063SOL    HW160086   4.623  14.575   2.908
86063SOL    HW260087   4.621  14.697   2.998
86064SOL     OW60088   7.805   3.079   7.911
86064SOL    HW160089   7.742   3.128   7.964
86064SOL    HW260090   7.859   3.146   7.869
86065SOL     OW60091   2.287   3.878   4.221
86065SOL    HW160092   2.326   3.830   4.293
86065SOL    HW260093   2.345   3.861   4.146
86066SOL     OW60094   2.037   5.826   1.947
86066SOL    HW160095   2.027   5.839   2.041
86066SOL    HW260096   2.112   5.881   1.923
86067SOL     OW60097  12.925   2.486   6.835
86067SOL    HW160098  12.923   2.419   6.904
86067SOL    HW260099  12.928   2.569   6.883
86068SOL     OW60100   2.545   8.170   8.771
86068SOL    HW160101   2.563   8.209   8.856
86068SOL    HW260102   2.450   8.164   8.767
86069SOL     OW60103   4.059   5.322  14.319
86069SOL    HW160104   4.110   5.367  14.252
86069SOL    HW260105   4.105   5.240  14.334
86070SOL     OW60106  13.193   9.210   8.464
86070SOL    HW160107  13.145   9.147   8.411
86070SOL    HW260108  13.141   9.220   8.544
86071SOL     OW60109   4.581   6.076   3.318
86071SOL    HW160110   4.571   6.170   3.334
86071SOL    HW260111   4.496   6.039   3.339
86072SOL     OW60112   2.059   3.122   5.983
86072SOL    HW160113   2.044   3.198   5.926
86072SOL    HW260114   2.128   3.073   5.939
86073SOL     OW60115   4.822   3.127   5.172
86073SOL    HW160116   4.842   3.036   5.193
86073SOL    HW260117   4.869   3.178   5.239
86074SOL     OW60118  14.092   1.379  10.612
86074SOL    HW160119  14.059   1.385  10.702
86074SOL    HW260120  14.073   1.289  10.586
86075SOL     OW60121   0.526   2.253   2.551
86075SOL    HW160122   0.610   2.207   2.557
86075SOL    HW260123   0.517   2.273   2.457
86076SOL     OW60124  10.640  13.405  11.881
86076SOL    HW160125  10.688  13.323  11.894
86076SOL    HW260126  10.699  13.473  11.915
86077SOL     OW60127   7.508   7.928   1.029
86077SOL    HW160128   7.555   7.866   1.086
86077SOL    HW260129   7.460   7.872   0.968
86078SOL     OW60130  11.509  11.788  10.551
86078SOL    HW160131  11.495  11.720  10.617
86078SOL    HW260132  11.452  11.762  10.479
86079SOL     OW60133   9.562   8.802   3.176
86079SOL    HW160134   9.595   8.721   3.137
86079SOL    HW260135   9.533   8.778   3.263
86080SOL     OW60136   3.005   2.251   2.571
86080SOL    HW160137   3.043   2.253   2.483
86080SOL    HW260138   2.993   2.158   2.590
86081SOL     OW60139   1.118  14.339   9.104
86081SOL    HW160140   1.148  14.257   9.064
86081SOL    HW260141   1.122  14.322   9.198
86082SOL     OW60142   9.062  10.824  12.936
86082SOL    HW160143   9.061  10.893  12.869
86082SOL    HW260144   9.151  10.789  12.933
86083SOL     OW60145   9.268   2.050   9.021
86083SOL    HW160146   9.293   1.983   9.085
86083SOL    HW260147   9.172   2.049   9.022
86084SOL     OW60148   7.179   3.854  11.094
86084SOL    HW160149   7.116   3.896  11.036
86084SOL    HW260150   7.187   3.765  11.061
86085SOL     OW60151   8.897  12.884   9.492
86085SOL    HW160152   8.958  12.883   9.418
86085SOL    HW260153   8.837  12.811   9.475
86086SOL     OW60154  13.171   5.046   4.903
86086SOL    HW160155  13.138   4.961   4.933
86086SOL    HW260156  13.140   5.052   4.813
86087SOL     OW60157   9.419   6.449  14.329
86087SOL    HW160158   9.500   6.408  14.359
86087SOL    HW260159   9.397   6.403  14.249
86088SOL     OW60160   3.352  13.712   4.526
86088SOL    HW160161   3.328  13.804   4.538
86088SOL    HW260162   3.383  13.707   4.436
86089SOL     OW60163  12.982  10.981  11.770
86089SOL    HW160164  12.902  10.929  11.770
86089SOL    HW260165  13.052  10.918  11.751
86090SOL     OW60166   5.186   7.366  10.266
86090SOL    HW160167   5.228   7.281  10.252
86090SOL    HW260168   5.132   7.380  10.189
86091SOL     OW60169  11.940  14.310   6.991
86091SOL    HW160170  12.006  14.377   7.007
86091SOL    HW260171  11.922  14.316   6.897
86092SOL     OW60172   6.060  10.171   0.785
86092SOL    HW160173   6.153  10.192   0.789
86092SOL    HW260174   6.050  10.095   0.843
86093SOL     OW60175   9.026   5.047  12.829
86093SOL    HW160176   8.966   5.002  12.888
86093SOL    HW260177   9.061   5.120  12.880
86094SOL     OW60178   3.553   3.306   5.621
86094SOL    HW160179   3.541   3.358   5.542
86094SOL    HW260180   3.575   3.218   5.589
86095SOL     OW60181   0.652   6.950   3.135
86095SOL    HW160182   0.743   6.979   3.137
86095SOL    HW260183   0.636   6.927   3.043
86096SOL     OW60184   8.963   0.110   4.144
86096SOL    HW160185   8.971   0.015   4.130
86096SOL    HW260186   9.038   0.132   4.199
86097SOL     OW60187   8.438  11.239   7.285
86097SOL    HW160188   8.383  11.207   7.356
86097SOL    HW260189   8.405  11.327   7.266
86098SOL     OW60190  11.557  11.745   2.345
86098SOL    HW160191  11.517  11.669   2.386
86098SOL    HW260192  11.651  11.730   2.353
86099SOL     OW60193   3.902   8.687   4.064
86099SOL    HW160194   3.894   8.765   4.120
86099SOL    HW260195   3.973   8.707   4.004
86100SOL     OW60196  13.554  12.739  13.623
86100SOL    HW160197  13.616  12.772  13.558
86100SOL    HW260198  13.559  12.802  13.695
86101SOL     OW60199   2.478   7.101   1.632
86101SOL    HW160200   2.550   7.128   1.689
86101SOL    HW260201   2.482   7.163   1.558
86102SOL     OW60202   2.489   6.018   6.303
86102SOL    HW160203   2.505   5.925   6.323
86102SOL    HW260204   2.573   6.050   6.270
86103SOL     OW60205  14.159  12.494   8.621
86103SOL    HW160206  14.157  12.418   8.563
86103SOL    HW260207  14.206  12.561   8.572
86104SOL     OW60208   4.609  12.638   7.479
86104SOL    HW160209   4.554  12.716   7.464
86104SOL    HW260210   4.565  12.591   7.550
86105SOL     OW60211  12.279   8.903   1.869
86105SOL    HW160212  12.293   8.926   1.777
86105SOL    HW260213  12.260   8.810   1.868
86106SOL     OW60214   0.471   3.983   9.960
86106SOL    HW160215   0.522   3.988  10.041
86106SOL    HW260216   0.441   4.073   9.946
86107SOL     OW60217   0.040   8.707   4.713
86107SOL    HW160218  14.834   8.649   4.699
86107SOL    HW260219   0.083   8.671   4.790
86108SOL     OW60220  11.001  12.053   4.443
86108SOL    HW160221  11.012  11.958   4.448
86108SOL    HW260222  10.940  12.067   4.371
86109SOL     OW60223  11.511  10.576   4.153
86109SOL    HW160224  11.556  10.639   4.209
86109SOL    HW260225  11.551  10.588   4.067
86110SOL     OW60226   6.456  10.956   3.912
86110SOL    HW160227   6.528  10.961   3.849
86110SOL    HW260228   6.379  10.935   3.860
86111SOL     OW60229   7.447   2.584  10.778
86111SOL    HW160230   7.429   2.543  10.694
86111SOL    HW260231   7.410   2.672  10.770
86112SOL     OW60232   7.106  10.615  13.419
86112SOL    HW160233   7.062  10.665  13.488
86112SOL    HW260234   7.096  10.523  13.445
86113SOL     OW60235   1.417  10.841   8.398
86113SOL    HW160236   1.485  10.901   8.365
86113SOL    HW260237   1.344  10.898   8.421
86114SOL     OW60238   1.107   0.120  11.538
86114SOL    HW160239   1.073   0.172  11.610
86114SOL    HW260240   1.192   0.089  11.568
86115SOL     OW60241   4.743  10.357   8.429
86115SOL    HW160242   4.671  10.413   8.455
86115SOL    HW260243   4.706  10.296   8.365
86116SOL     OW60244  12.152   6.356   3.487
86116SOL    HW160245  12.169   6.398   3.403
86116SOL    HW260246  12.062   6.380   3.509
86117SOL     OW60247   5.037   5.032   1.966
86117SOL    HW160248   5.126   5.009   1.993
86117SOL    HW260249   5.049   5.079   1.883
86118SOL     OW60250   6.603  10.504   9.695
86118SOL    HW160251   6.579  10.463   9.612
86118SOL    HW260252   6.699  10.507   9.694
86119SOL     OW60253   7.752   7.617   8.900
86119SOL    HW160254   7.788   7.532   8.928
86119SOL    HW260255   7.828   7.668   8.875
86120SOL     OW60256  13.690   1.468  10.854
86120SOL    HW160257  13.629   1.410  10.900
86120SOL    HW260258  13.649   1.554  10.857
86121SOL     OW60259   3.957   2.887   9.497
86121SOL    HW160260   3.920   2.957   9.550
86121SOL    HW260261   3.974   2.927   9.412
86122SOL     OW60262   6.032   8.897   2.951
86122SOL    HW160263   6.050   8.806   2.924
86122SOL    HW260264   5.939   8.898   2.972
86123SOL     OW60265  13.566   1.196   7.329
86123SOL    HW160266  13.476   1.174   7.352
86123SOL    HW260267  13.559   1.246   7.248
86124SOL     OW60268   4.604   1.193  10.300
86124SOL    HW160269   4.532   1.253  10.323
86124SOL    HW260270   4.678   1.251  10.282
86125SOL     OW60271   1.032  13.660  13.172
86125SOL    HW160272   1.096  13.683  13.239
86125SOL    HW260273   0.979  13.591  13.212
86126SOL     OW60274   4.399   7.568   1.014
86126SOL    HW160275   4.306   7.586   0.999
86126SOL    HW260276   4.442   7.603   0.936
86127SOL     OW60277   0.094   1.593  11.731
86127SOL    HW160278   0.075   1.517  11.675
86127SOL    HW260279   0.028   1.658  11.706
86128SOL     OW60280   5.198   0.045  14.548
86128SOL    HW160281   5.144   0.055  14.470
86128SOL    HW260282   5.283   0.081  14.523
86129SOL     OW60283  10.582   4.821   8.181
86129SOL    HW160284  10.569   4.812   8.087
86129SOL    HW260285  10.528   4.897   8.206
86130SOL     OW60286   2.879  11.526   2.328
86130SOL    HW160287   2.862  11.610   2.369
86130SOL    HW260288   2.816  11.521   2.256
86131SOL     OW60289  11.326   7.062   3.224
86131SOL    HW160290  11.261   7.065   3.153
86131SOL    HW260291  11.366   6.975   3.216
86132SOL     OW60292   6.504   4.006   2.331
86132SOL    HW160293   6.479   4.088   2.374
86132SOL    HW260294   6.432   3.987   2.271
86133SOL     OW60295   1.730  12.325   1.472
86133SOL    HW160296   1.745  12.331   1.566
86133SOL    HW260297   1.709  12.233   1.456
86134SOL     OW60298  10.258   0.380   8.053
86134SOL    HW160299  10.293   0.421   8.132
86134SOL    HW260300  10.329   0.388   7.989
86135SOL     OW60301   4.049  11.164   5.542
86135SOL    HW160302   3.961  11.149   5.508
86135SOL    HW260303   4.036  11.221   5.618
86136SOL     OW60304   1.315   9.244   2.699
86136SOL    HW160305   1.406   9.272   2.713
86136SOL    HW260306   1.268   9.275   2.777
86137SOL     OW60307  13.315   9.854   4.323
86137SOL    HW160308  13.386   9.879   4.383
86137SOL    HW260309  13.239   9.901   4.356
86138SOL     OW60310   3.820  13.210   2.829
86138SOL    HW160311   3.787  13.269   2.762
86138SOL    HW260312   3.776  13.127   2.813
86139SOL     OW60313  13.796   6.385  10.570
86139SOL    HW160314  13.715   6.339  10.545
86139SOL    HW260315  13.772   6.432  10.650
86140SOL     OW60316  12.606   4.162   9.543
86140SOL    HW160317  12.626   4.078   9.501
86140SOL    HW260318  12.645   4.155   9.631
86141SOL     OW60319   3.125  10.262   8.023
86141SOL    HW160320   3.034  10.282   8.002
86141SOL    HW260321   3.177  10.320   7.967
86142SOL     OW60322   9.130  13.261   1.492
86142SOL    HW160323   9.201  13.213   1.448
86142SOL    HW260324   9.050  13.227   1.452
86143SOL     OW60325   0.189  12.098  11.537
86143SOL    HW160326   0.172  12.171  11.477
86143SOL    HW260327   0.136  12.118  11.614
86144SOL     OW60328  13.092  14.535   9.202
86144SOL    HW160329  13.045  14.460   9.239
86144SOL    HW260330  13.026  14.603   9.192
86145SOL     OW60331  14.000   0.795  13.626
86145SOL    HW160332  13.967   0.882  13.645
86145SOL    HW260333  14.022   0.798  13.533
86146SOL     OW60334   6.344   1.129   3.751
86146SOL    HW160335   6.332   1.197   3.818
86146SOL    HW260336   6.266   1.075   3.757
86147SOL     OW60337   0.606   4.822   6.901
86147SOL    HW160338   0.630   4.906   6.863
86147SOL    HW260339   0.689   4.777   6.914
86148SOL     OW60340  12.761   1.341   8.162
86148SOL    HW160341  12.758   1.379   8.249
86148SOL    HW260342  12.701   1.267   8.166
86149SOL     OW60343  10.463   7.594   4.028
86149SOL    HW160344  10.394   7.620   3.967
86149SOL    HW260345  10.538   7.573   3.972
86150SOL     OW60346   3.898  10.109  13.544
86150SOL    HW160347   3.815  10.155  13.563
86150SOL    HW260348   3.871  10.029  13.499
86151SOL     OW60349   3.541   1.591   1.754
86151SOL    HW160350   3.525   1.678   1.717
86151SOL    HW260351   3.466   1.540   1.727
86152SOL     OW60352  11.395   1.298   6.311
86152SOL    HW160353  11.455   1.270   6.380
86152SOL    HW260354  11.410   1.392   6.304
86153SOL     OW60355   1.236  14.775   3.965
86153SOL    HW160356   1.295  14.771   4.040
86153SOL    HW260357   1.293  14.761   3.889
86154SOL     OW60358   6.652   4.354   2.561
86154SOL    HW160359   6.723   4.337   2.499
86154SOL    HW260360   6.693   4.406   2.631
86155SOL     OW60361   6.773   7.898   3.150
86155SOL    HW160362   6.826   7.852   3.214
86155SOL    HW260363   6.784   7.990   3.171
86156SOL     OW60364   1.520   7.279   6.798
86156SOL    HW160365   1.598   7.246   6.843
86156SOL    HW260366   1.447   7.253   6.855
86157SOL     OW60367  14.395   8.795   2.061
86157SOL    HW160368  14.481   8.819   2.027
86157SOL    HW260369  14.341   8.779   1.983
86158SOL     OW60370  11.498  10.181   9.255
86158SOL    HW160371  11.443  10.251   9.289
86158SOL    HW260372  11.572  10.176   9.315
86159SOL     OW60373   3.009  14.244  11.142
86159SOL    HW160374   2.953  14.170  11.115
86159SOL    HW260375   3.098  14.209  11.139
86160SOL     OW60376   9.086   8.804   6.405
86160SOL    HW160377   9.016   8.805   6.470
86160SOL    HW260378   9.041   8.818   6.322
86161SOL     OW60379  13.896   4.779   8.472
86161SOL    HW160380  13.892   4.820   8.559
86161SOL    HW260381  13.988   4.785   8.447
86162SOL     OW60382   1.985   7.192  14.317
86162SOL    HW160383   2.061   7.163  14.268
86162SOL    HW260384   1.958   7.116  14.368
86163SOL     OW60385   0.483  13.204   9.609
86163SOL    HW160386   0.538  13.207   9.687
86163SOL    HW260387   0.543  13.225   9.537
86164SOL     OW60388   2.387   2.838   3.638
86164SOL    HW160389   2.322   2.781   3.679
86164SOL    HW260390   2.465   2.783   3.630
86165SOL     OW60391   1.397  10.668  11.501
86165SOL    HW160392   1.436  10.730  11.561
86165SOL    HW260393   1.466  10.648  11.438
86166SOL     OW60394  11.947   5.180   5.716
86166SOL    HW160395  11.915   5.252   5.771
86166SOL    HW260396  11.951   5.217   5.628
86167SOL     OW60397  13.417   3.793   2.621
86167SOL    HW160398  13.400   3.731   2.692
86167SOL    HW260399  13.332   3.830   2.600
86168SOL     OW60400   9.632   0.395   5.383
86168SOL    HW160401   9.558   0.434   5.338
86168SOL    HW260402   9.705   0.455   5.366
86169SOL     OW60403   9.251   6.145  13.281
86169SOL    HW160404   9.316   6.172  13.215
86169SOL    HW260405   9.171   6.129  13.230
86170SOL     OW60406  12.649  10.962  10.439
86170SOL    HW160407  12.741  10.944  10.419
86170SOL    HW260408  12.637  11.054  10.416
86171SOL     OW60409   2.919  13.669   9.135
86171SOL    HW160410   2.908  13.656   9.229
86171SOL    HW260411   2.937  13.763   9.125
86172SOL     OW60412   7.882   3.626  14.240
86172SOL    HW160413   7.827   3.612  14.163
86172SOL    HW260414   7.852   3.709  14.276
86173SOL     OW60415   0.050  12.935   1.735
86173SOL    HW160416  14.852  12.868   1.744
86173SOL    HW260417   0.131  12.885   1.722
86174SOL     OW60418  11.884   0.667   8.109
86174SOL    HW160419  11.882   0.669   8.013
86174SOL    HW260420  11.918   0.580   8.131
86175SOL     OW60421   6.754   1.697   5.040
86175SOL    HW160422   6.735   1.615   4.996
86175SOL    HW260423   6.801   1.749   4.975
86176SOL     OW60424  12.685   8.508  11.099
86176SOL    HW160425  12.630   8.489  11.174
86176SOL    HW260426  12.690   8.604  11.096
86177SOL     OW60427  14.332  14.166   4.270
86177SOL    HW160428  14.424  14.139   4.266
86177SOL    HW260429  14.294  14.111   4.339
86178SOL     OW60430   4.602   4.701  12.422
86178SOL    HW160431   4.554   4.628  12.384
86178SOL    HW260432   4.644   4.744  12.347
86179SOL     OW60433   4.354   0.102   1.626
86179SOL    HW160434   4.288   0.154   1.671
86179SOL    HW260435   4.349   0.016   1.668
86180SOL     OW60436  14.522   8.591   3.568
86180SOL    HW160437  14.494   8.513   3.615
86180SOL    HW260438  14.510   8.663   3.631
86181SOL     OW60439   0.796   4.943   3.482
86181SOL    HW160440   0.890   4.956   3.499
86181SOL    HW260441   0.781   4.850   3.501
86182SOL     OW60442   0.428   0.593   0.220
86182SOL    HW160443   0.502   0.554   0.266
86182SOL    HW260444   0.464   0.621   0.136
86183SOL     OW60445   3.609   4.091   1.777
86183SOL    HW160446   3.668   4.123   1.845
86183SOL    HW260447   3.665   4.037   1.720
86184SOL     OW60448   3.278   1.329   7.102
86184SOL    HW160449   3.363   1.353   7.065
86184SOL    HW260450   3.242   1.265   7.041
86185SOL     OW60451   5.622   8.369  13.854
86185SOL    HW160452   5.683   8.381  13.927
86185SOL    HW260453   5.666   8.308  13.795
86186SOL     OW60454  13.803   6.768   1.255
86186SOL    HW160455  13.890   6.732   1.269
86186SOL    HW260456  13.779   6.737   1.167
86187SOL     OW60457   5.977  13.412  12.875
86187SOL    HW160458   5.905  13.376  12.927
86187SOL    HW260459   6.033  13.457  12.939
86188SOL     OW60460   7.969   8.143   5.606
86188SOL    HW160461   7.961   8.056   5.566
86188SOL    HW260462   8.060   8.168   5.592
86189SOL     OW60463   8.767   2.973   7.955
86189SOL    HW160464   8.691   2.974   8.013
86189SOL    HW260465   8.765   2.886   7.914
86190SOL     OW60466  13.212   9.148   6.577
86190SOL    HW160467  13.280   9.204   6.540
86190SOL    HW260468  13.156   9.126   6.502
86191SOL     OW60469   9.354   6.807  14.517
86191SOL    HW160470   9.435   6.766  14.486
86191SOL    HW260471   9.365   6.812  14.612
86192SOL     OW60472   1.498   0.362  11.772
86192SOL    HW160473   1.491   0.274  11.808
86192SOL    HW260474   1.500   0.419  11.849
86193SOL     OW60475  12.486   4.343   3.513
86193SOL    HW160476  12.475   4.380   3.425
86193SOL    HW260477  12.555   4.278   3.503
86194SOL     OW60478  14.371   0.787   5.878
86194SOL    HW160479  14.293   0.788   5.934
86194SOL    HW260480  14.337   0.778   5.789
86195SOL     OW60481   3.643  12.355  14.044
86195SOL    HW160482   3.719  12.404  14.012
86195SOL    HW260483   3.681  12.285  14.098
86196SOL     OW60484   4.808  13.700   9.416
86196SOL    HW160485   4.716  13.711   9.392
86196SOL    HW260486   4.839  13.630   9.358
86197SOL     OW60487   1.638  10.625   7.198
86197SOL    HW160488   1.667  10.698   7.143
86197SOL    HW260489   1.630  10.551   7.137
86198SOL     OW60490   7.832   8.722  10.696
86198SOL    HW160491   7.783   8.802  10.680
86198SOL    HW260492   7.765   8.656  10.716
86199SOL     OW60493  12.334   1.922   8.012
86199SOL    HW160494  12.292   1.835   8.013
86199SOL    HW260495  12.318   1.955   7.924
86200SOL     OW60496   1.464   2.464  12.856
86200SOL    HW160497   1.492   2.551  12.827
86200SOL    HW260498   1.487   2.406  12.783
86201SOL     OW60499   3.576   4.332   1.583
86201SOL    HW160500   3.489   4.335   1.623
86201SOL    HW260501   3.633   4.376   1.646
86202SOL     OW60502   7.969   8.358   9.193
86202SOL    HW160503   7.892   8.312   9.162
86202SOL    HW260504   7.985   8.323   9.281
86203SOL     OW60505  10.292  10.076   7.553
86203SOL    HW160506  10.250  10.070   7.639
86203SOL    HW260507  10.383  10.051   7.569
86204SOL     OW60508   6.427  14.718  11.921
86204SOL    HW160509   6.333  14.706  11.928
86204SOL    HW260510   6.437  14.799  11.871
86205SOL     OW60511   9.077  10.425   0.973
86205SOL    HW160512   9.137  10.436   0.899
86205SOL    HW260513   9.134  10.411   1.049
86206SOL     OW60514   2.735   0.057   9.645
86206SOL    HW160515   2.651   0.102   9.637
86206SOL    HW260516   2.798   0.126   9.664
86207SOL     OW60517   5.014  11.225  13.134
86207SOL    HW160518   5.020  11.274  13.216
86207SOL    HW260519   5.043  11.137  13.156
86208SOL     OW60520   5.091  10.356   9.738
86208SOL    HW160521   5.159  10.316   9.793
86208SOL    HW260522   5.133  10.367   9.653
86209SOL     OW60523  14.416   2.667  10.889
86209SOL    HW160524  14.474   2.648  10.816
86209SOL    HW260525  14.362   2.588  10.898
86210SOL     OW60526   3.139   0.742  13.392
86210SOL    HW160527   3.193   0.770  13.318
86210SOL    HW260528   3.135   0.647  13.383
86211SOL     OW60529   2.513  14.051   5.912
86211SOL    HW160530   2.546  14.140   5.909
86211SOL    HW260531   2.536  14.020   6.000
86212SOL     OW60532   2.460  10.000   7.717
86212SOL    HW160533   2.461   9.905   7.706
86212SOL    HW260534   2.424  10.014   7.805
86213SOL     OW60535   0.267   6.362  13.442
86213SOL    HW160536   0.253   6.325  13.529
86213SOL    HW260537   0.178   6.378  13.408
86214SOL     OW60538   6.318  12.616   4.304
86214SOL    HW160539   6.349  12.571   4.383
86214SOL    HW260540   6.314  12.708   4.329
86215SOL     OW60541  12.867   7.326   9.653
86215SOL    HW160542  12.946   7.288   9.692
86215SOL    HW260543  12.795   7.272   9.685
86216SOL     OW60544   6.015   9.136  14.506
86216SOL    HW160545   5.992   9.174  14.421
86216SOL    HW260546   6.007   9.041  14.492
86217SOL     OW60547   9.693  13.743   7.189
86217SOL    HW160548   9.708  13.837   7.176
86217SOL    HW260549   9.775  13.702   7.162
86218SOL     OW60550   1.223   4.250   2.796
86218SOL    HW160551   1.165   4.213   2.862
86218SOL    HW260552   1.311   4.228   2.826
86219SOL     OW60553   9.969   7.558   2.408
86219SOL    HW160554  10.039   7.623   2.420
86219SOL    HW260555  10.014   7.474   2.411
86220SOL     OW60556   3.181   0.798   7.700
86220SOL    HW160557   3.152   0.721   7.749
86220SOL    HW260558   3.187   0.868   7.766
86221SOL     OW60559   5.991   2.328   1.642
86221SOL    HW160560   5.922   2.390   1.663
86221SOL    HW260561   5.948   2.243   1.641
86222SOL     OW60562   8.509   2.817  13.368
86222SOL    HW160563   8.576   2.755  13.396
86222SOL    HW260564   8.452   2.766  13.310
86223SOL     OW60565   6.490  11.438  14.695
86223SOL    HW160566   6.574  11.412  14.659
86223SOL    HW260567   6.475  11.378  14.768
86224SOL     OW60568   7.017  12.654   2.964
86224SOL    HW160569   7.101  12.622   2.998
86224SOL    HW260570   6.951  12.605   3.012
86225SOL     OW60571   7.414   9.204   3.065
86225SOL    HW160572   7.481   9.268   3.091
86225SOL    HW260573   7.342   9.219   3.125
86226SOL     OW60574   2.296  11.808   5.411
86226SOL    HW160575   2.387  11.807   5.440
86226SOL    HW260576   2.287  11.729   5.358
86227SOL     OW60577   8.038   9.370  10.652
86227SOL    HW160578   8.015   9.459  10.681
86227SOL    HW260579   8.120   9.382  10.603
86228SOL     OW60580   2.424  13.602  13.176
86228SOL    HW160581   2.359  13.540  13.208
86228SOL    HW260582   2.373  13.679  13.149
86229SOL     OW60583  12.617   1.486  11.247
86229SOL    HW160584  12.611   1.422  11.318
86229SOL    HW260585  12.596   1.435  11.168
86230SOL     OW60586   2.522  14.710   9.313
86230SOL    HW160587   2.431  14.688   9.295
86230SOL    HW260588   2.565  14.626   9.329
86231SOL     OW60589  14.576   4.424   5.432
86231SOL    HW160590  14.537   4.491   5.377
86231SOL    HW260591  14.552   4.341   5.389
86232SOL     OW60592   2.763   4.787   7.034
86232SOL    HW160593   2.697   4.724   7.063
86232SOL    HW260594   2.714   4.869   7.027
86233SOL     OW60595   4.298   6.658  10.554
86233SOL    HW160596   4.329   6.624  10.637
86233SOL    HW260597   4.212   6.695  10.574
86234SOL     OW60598   5.036  12.505   2.593
86234SOL    HW160599   5.027  12.519   2.499
86234SOL    HW260600   5.070  12.415   2.600
86235SOL     OW60601  11.142  11.810   9.585
86235SOL    HW160602  11.165  11.821   9.493
86235SOL    HW260603  11.084  11.734   9.587
86236SOL     OW60604  12.639   9.574  13.429
86236SOL    HW160605  12.603   9.529  13.353
86236SOL    HW260606  12.588   9.655  13.435
86237SOL     OW60607   1.291   3.521   3.053
86237SOL    HW160608   1.286   3.510   3.148
86237SOL    HW260609   1.218   3.579   3.032
86238SOL     OW60610   8.047  11.276   4.986
86238SOL    HW160611   8.044  11.245   4.895
86238SOL    HW260612   8.140  11.288   5.003
86239SOL     OW60613  13.928   5.545  14.266
86239SOL    HW160614  14.009   5.506  14.297
86239SOL    HW260615  13.947   5.639  14.259
86240SOL     OW60616   0.314   3.087   7.387
86240SOL    HW160617   0.287   3.168   7.431
86240SOL    HW260618   0.325   3.112   7.296
86241SOL     OW60619  13.254   0.290  13.554
86241SOL    HW160620  13.199   0.237  13.496
86241SOL    HW260621  13.343   0.277  13.520
86242SOL     OW60622   5.149  13.581  14.702
86242SOL    HW160623   5.071  13.635  14.687
86242SOL    HW260624   5.174  13.600  14.793
86243SOL     OW60625  13.852   6.732   0.557
86243SOL    HW160626  13.758   6.715   0.561
86243SOL    HW260627  13.859   6.825   0.532
86244SOL     OW60628   1.977  11.245   2.359
86244SOL    HW160629   2.029  11.201   2.426
86244SOL    HW260630   2.042  11.291   2.305
86245SOL     OW60631   8.865   3.080   3.023
86245SOL    HW160632   8.860   3.144   2.952
86245SOL    HW260633   8.850   3.132   3.103
86246SOL     OW60634  11.126   3.475   0.973
86246SOL    HW160635  11.124   3.534   0.897
86246SOL    HW260636  11.211   3.491   1.013
86247SOL     OW60637  11.229  11.540   0.858
86247SOL    HW160638  11.152  11.502   0.900
86247SOL    HW260639  11.300  11.477   0.875
86248SOL     OW60640  13.864   9.160   5.615
86248SOL    HW160641  13.914   9.084   5.586
86248SOL    HW260642  13.785   9.159   5.562
86249SOL     OW60643  11.904  14.445  13.970
86249SOL    HW160644  11.951  14.391  14.034
86249SOL    HW260645  11.970  14.464  13.903
86250SOL     OW60646   4.332  11.143   5.626
86250SOL    HW160647   4.289  11.199   5.560
86250SOL    HW260648   4.362  11.067   5.577
86251SOL     OW60649   0.170  13.744   5.565
86251SOL    HW160650   0.094  13.798   5.546
86251SOL    HW260651   0.149  13.700   5.647
86252SOL     OW60652   2.860  11.512  14.372
86252SOL    HW160653   2.864  11.608  14.373
86252SOL    HW260654   2.845  11.490  14.280
86253SOL     OW60655  13.630   8.476  13.692
86253SOL    HW160656  13.562   8.467  13.758
86253SOL    HW260657  13.683   8.396  13.699
86254SOL     OW60658  14.494   1.751   9.751
86254SOL    HW160659  14.554   1.749   9.825
86254SOL    HW260660  14.436   1.825   9.769
86255SOL     OW60661   0.802   1.518   9.563
86255SOL    HW160662   0.792   1.441   9.507
86255SOL    HW260663   0.712   1.540   9.588
86256SOL     OW60664   6.586   3.773   9.726
86256SOL    HW160665   6.536   3.827   9.665
86256SOL    HW260666   6.645   3.722   9.670
86257SOL     OW60667  10.019  11.709   3.871
86257SOL    HW160668  10.087  11.657   3.914
86257SOL    HW260669   9.950  11.719   3.937
86258SOL     OW60670   1.879   8.876  12.194
86258SOL    HW160671   1.881   8.817  12.119
86258SOL    HW260672   1.812   8.839  12.251
86259SOL     OW60673   8.003  10.083  13.287
86259SOL    HW160674   8.077  10.045  13.239
86259SOL    HW260675   8.001  10.175  13.260
86260SOL     OW60676  11.761   2.999   9.435
86260SOL    HW160677  11.713   2.934   9.487
86260SOL    HW260678  11.694   3.059   9.404
86261SOL     OW60679   4.141   4.130  12.694
86261SOL    HW160680   4.058   4.086  12.678
86261SOL    HW260681   4.123   4.223  12.679
86262SOL     OW60682  10.989  10.179   4.492
86262SOL    HW160683  11.076  10.154   4.524
86262SOL    HW260684  10.960  10.104   4.440
86263SOL     OW60685  14.125   5.576  13.549
86263SOL    HW160686  14.086   5.575  13.636
86263SOL    HW260687  14.197   5.639  13.556
86264SOL     OW60688   7.639  12.617   1.584
86264SOL    HW160689   7.630  12.606   1.679
86264SOL    HW260690   7.716  12.673   1.575
86265SOL     OW60691  11.740   8.802   0.414
86265SOL    HW160692  11.693   8.719   0.416
86265SOL    HW260693  11.714   8.843   0.332
86266SOL     OW60694   8.493  14.174   6.303
86266SOL    HW160695   8.432  14.126   6.358
86266SOL    HW260696   8.451  14.258   6.288
86267SOL     OW60697   7.958   5.157  12.256
86267SOL    HW160698   7.884   5.141  12.198
86267SOL    HW260699   7.958   5.085  12.318
86268SOL     OW60700   0.844   6.021   8.753
86268SOL    HW160701   0.898   5.959   8.705
86268SOL    HW260702   0.906   6.071   8.806
86269SOL     OW60703   3.698  12.147   1.707
86269SOL    HW160704   3.785  12.118   1.679
86269SOL    HW260705   3.679  12.096   1.785
86270SOL     OW60706   6.324   0.836   0.508
86270SOL    HW160707   6.393   0.794   0.559
86270SOL    HW260708   6.282   0.897   0.569
86271SOL     OW60709   2.882  14.305   3.370
86271SOL    HW160710   2.962  14.346   3.404
86271SOL    HW260711   2.896  14.211   3.382
86272SOL     OW60712   8.135   0.756   7.550
86272SOL    HW160713   8.053   0.775   7.505
86272SOL    HW260714   8.165   0.673   7.511
86273SOL     OW60715  14.077   5.790   6.977
86273SOL    HW160716  14.169   5.772   6.992
86273SOL    HW260717  14.060   5.758   6.888
86274SOL     OW60718   1.179   1.634   3.792
86274SOL    HW160719   1.193   1.594   3.878
86274SOL    HW260720   1.192   1.728   3.807
86275SOL     OW60721   6.679   7.186   6.320
86275SOL    HW160722   6.630   7.259   6.283
86275SOL    HW260723   6.706   7.216   6.406
86276SOL     OW60724  11.722   6.168   4.443
86276SOL    HW160725  11.681   6.210   4.367
86276SOL    HW260726  11.815   6.161   4.419
86277SOL     OW60727  12.810   2.585  14.059
86277SOL    HW160728  12.851   2.671  14.061
86277SOL    HW260729  12.847   2.539  14.135
86278SOL     OW60730  12.109   5.278  13.524
86278SOL    HW160731  12.029   5.241  13.562
86278SOL    HW260732  12.176   5.211  13.539
86279SOL     OW60733   6.643   4.521   0.990
86279SOL    HW160734   6.610   4.504   1.078
86279SOL    HW260735   6.678   4.437   0.961
86280SOL     OW60736   6.985   6.431   8.911
86280SOL    HW160737   6.901   6.457   8.950
86280SOL    HW260738   6.981   6.464   8.822
86281SOL     OW60739   4.940   9.845   2.893
86281SOL    HW160740   4.902   9.910   2.953
86281SOL    HW260741   4.884   9.848   2.816
86282SOL     OW60742  14.213   8.459   3.578
86282SOL    HW160743  14.247   8.372   3.594
86282SOL    HW260744  14.227   8.474   3.484
86283SOL     OW60745   4.308  12.116  12.904
86283SOL    HW160746   4.373  12.135  12.836
86283SOL    HW260747   4.358  12.076  12.974
86284SOL     OW60748  13.468   0.771  10.420
86284SOL    HW160749  13.533   0.710  10.454
86284SOL    HW260750  13.507   0.805  10.339
86285SOL     OW60751   7.704  11.455   5.945
86285SOL    HW160752   7.681  11.468   5.853
86285SOL    HW260753   7.629  11.410   5.983
86286SOL     OW60754   1.316   4.410   7.321
86286SOL    HW160755   1.401   4.373   7.298
86286SOL    HW260756   1.311   4.403   7.417
86287SOL     OW60757   6.675   7.147   0.036
86287SOL    HW160758   6.711   7.060   0.018
86287SOL    HW260759   6.658   7.185  14.820
86288SOL     OW60760  12.263   2.752   1.236
86288SOL    HW160761  12.283   2.839   1.202
86288SOL    HW260762  12.303   2.692   1.174
86289SOL     OW60763  14.544   9.281   4.966
86289SOL    HW160764  14.476   9.276   4.899
86289SOL    HW260765  14.502   9.248   5.045
86290SOL     OW60766  12.044   5.220   6.127
86290SOL    HW160767  12.071   5.169   6.051
86290SOL    HW260768  11.951   5.202   6.137
86291SOL     OW60769  14.760   8.075  11.490
86291SOL    HW160770  14.798   8.000  11.535
86291SOL    HW260771  14.775   8.057  11.397
86292SOL     OW60772  14.294   2.802   7.134
86292SOL    HW160773  14.215   2.788   7.185
86292SOL    HW260774  14.303   2.897   7.129
86293SOL     OW60775   8.999   6.841   8.928
86293SOL    HW160776   9.001   6.922   8.877
86293SOL    HW260777   9.014   6.870   9.018
86294SOL     OW60778   5.474   0.237  14.060
86294SOL    HW160779   5.408   0.278  14.004
86294SOL    HW260780   5.427   0.167  14.106
86295SOL     OW60781  10.328   9.255   1.643
86295SOL    HW160782  10.398   9.212   1.693
86295SOL    HW260783  10.340   9.224   1.554
86296SOL     OW60784   9.755  11.293   4.788
86296SOL    HW160785   9.729  11.373   4.742
86296SOL    HW260786   9.761  11.227   4.718
86297SOL     OW60787   0.186  11.017  12.735
86297SOL    HW160788   0.259  10.965  12.702
86297SOL    HW260789   0.179  11.090  12.673
86298SOL     OW60790  10.578   5.543  13.861
86298SOL    HW160791  10.661   5.521  13.818
86298SOL    HW260792  10.516   5.477  13.829
86299SOL     OW60793   2.121  10.653   6.221
86299SOL    HW160794   2.120  10.691   6.133
86299SOL    HW260795   2.211  10.664   6.251
86300SOL     OW60796   7.399   4.337  12.350
86300SOL    HW160797   7.414   4.426  12.382
86300SOL    HW260798   7.394   4.346  12.255
86301SOL     OW60799   0.753   6.700  13.014
86301SOL    HW160800   0.847   6.700  13.033
86301SOL    HW260801   0.720   6.622  13.058
86302SOL     OW60802  12.251  12.345   5.080
86302SOL    HW160803  12.202  12.367   5.000
86302SOL    HW260804  12.343  12.364   5.057
86303SOL     OW60805   7.406   0.936  11.900
86303SOL    HW160806   7.326   0.886  11.919
86303SOL    HW260807   7.464   0.872  11.859
86304SOL     OW60808  11.806   8.570   5.288
86304SOL    HW160809  11.762   8.503   5.341
86304SOL    HW260810  11.893   8.579   5.327
86305SOL     OW60811  11.303  11.093   5.675
86305SOL    HW160812  11.385  11.120   5.632
86305SOL    HW260813  11.254  11.048   5.606
86306SOL     OW60814  10.330  12.627  13.520
86306SOL    HW160815  10.291  12.539  13.522
86306SOL    HW260816  10.255  12.686  13.515
86307SOL     OW60817  11.777   3.815   5.051
86307SOL    HW160818  11.737   3.772   4.975
86307SOL    HW260819  11.715   3.883   5.076
86308SOL     OW60820  12.986   4.751   3.875
86308SOL    HW160821  13.002   4.800   3.795
86308SOL    HW260822  12.953   4.817   3.937
86309SOL     OW60823  11.106  13.040   7.868
86309SOL    HW160824  11.028  13.048   7.813
86309SOL    HW260825  11.073  13.005   7.951
86310SOL     OW60826   0.208   5.716   3.065
86310SOL    HW160827   0.220   5.698   2.972
86310SOL    HW260828   0.295   5.743   3.096
86311SOL     OW60829  11.313  10.099   7.509
86311SOL    HW160830  11.365  10.040   7.564
86311SOL    HW260831  11.377  10.154   7.465
86312SOL     OW60832   0.076   5.160  13.660
86312SOL    HW160833   0.120   5.102  13.597
86312SOL    HW260834   0.000   5.193  13.613
86313SOL     OW60835   1.292  13.404  13.754
86313SOL    HW160836   1.271  13.482  13.703
86313SOL    HW260837   1.339  13.347  13.692
86314SOL     OW60838   1.212   3.487   7.608
86314SOL    HW160839   1.137   3.508   7.665
86314SOL    HW260840   1.195   3.399   7.577
86315SOL     OW60841   5.233   4.795   7.223
86315SOL    HW160842   5.171   4.723   7.208
86315SOL    HW260843   5.214   4.824   7.312
86316SOL     OW60844   1.701   2.324   3.229
86316SOL    HW160845   1.764   2.252   3.239
86316SOL    HW260846   1.746   2.388   3.175
86317SOL     OW60847   3.715   2.462  14.359
86317SOL    HW160848   3.663   2.488  14.282
86317SOL    HW260849   3.792   2.418  14.323
86318SOL     OW60850   2.985   1.496  10.131
86318SOL    HW160851   3.029   1.467  10.211
86318SOL    HW260852   3.046   1.473  10.060
86319SOL     OW60853  12.440   4.968   9.146
86319SOL    HW160854  12.456   4.955   9.053
86319SOL    HW260855  12.527   4.975   9.185
86320SOL     OW60856  12.276  14.268  13.659
86320SOL    HW160857  12.363  14.271  13.698
86320SOL    HW260858  12.286  14.211  13.583
86321SOL     OW60859   1.762   9.545   9.170
86321SOL    HW160860   1.722   9.566   9.254
86321SOL    HW260861   1.782   9.630   9.130
86322SOL     OW60862   9.413   8.749   2.613
86322SOL    HW160863   9.441   8.668   2.654
86322SOL    HW260864   9.327   8.767   2.650
86323SOL     OW60865   0.702   0.421   6.356
86323SOL    HW160866   0.630   0.474   6.320
86323SOL    HW260867   0.766   0.485   6.386
86324SOL     OW60868   7.438  11.089   9.683
86324SOL    HW160869   7.504  11.157   9.673
86324SOL    HW260870   7.376  11.124   9.746
86325SOL     OW60871  14.273   7.783   2.372
86325SOL    HW160872  14.294   7.835   2.295
86325SOL    HW260873  14.181   7.760   2.361
86326SOL     OW60874   6.947  13.320   8.790
86326SOL    HW160875   6.851  13.316   8.785
86326SOL    HW260876   6.977  13.245   8.740
86327SOL     OW60877   7.793   7.128   6.487
86327SOL    HW160878   7.865   7.179   6.449
86327SOL    HW260879   7.722   7.191   6.497
86328SOL     OW60880  14.393   7.955   9.453
86328SOL    HW160881  14.383   7.950   9.548
86328SOL    HW260882  14.430   7.870   9.428
86329SOL     OW60883   1.335  14.092   2.352
86329SOL    HW160884   1.282  14.132   2.284
86329SOL    HW260885   1.381  14.020   2.308
86330SOL     OW60886   1.941   0.536  12.486
86330SOL    HW160887   1.868   0.549  12.546
86330SOL    HW260888   1.920   0.454  12.440
86331SOL     OW60889   5.265   0.835   4.972
86331SOL    HW160890   5.219   0.896   5.030
86331SOL    HW260891   5.333   0.796   5.026
86332SOL     OW60892   9.369   2.715   0.339
86332SOL    HW160893   9.447   2.763   0.367
86332SOL    HW260894   9.296   2.769   0.368
86333SOL     OW60895   8.574   3.758   0.520
86333SOL    HW160896   8.637   3.820   0.557
86333SOL    HW260897   8.560   3.694   0.590
86334SOL     OW60898  12.509   5.631   1.279
86334SOL    HW160899  12.548   5.622   1.192
86334SOL    HW260900  12.514   5.724   1.298
86335SOL     OW60901  13.345  10.938   2.961
86335SOL    HW160902  13.301  10.881   2.898
86335SOL    HW260903  13.413  10.983   2.911
86336SOL     OW60904  13.855  14.024  11.804
86336SOL    HW160905  13.877  14.079  11.879
86336SOL    HW260906  13.928  14.036  11.743
86337SOL     OW60907  14.830   0.594   0.824
86337SOL    HW160908   0.040   0.631   0.864
86337SOL    HW260909  14.855   0.505   0.801
86338SOL     OW60910   9.292  11.750   0.379
86338SOL    HW160911   9.315  11.667   0.420
86338SOL    HW260912   9.198  11.743   0.363
86339SOL     OW60913  11.355  11.286  10.893
86339SOL    HW160914  11.322  11.247  10.974
86339SOL    HW260915  11.281  11.284  10.833
86340SOL     OW60916   4.522   4.929   0.993
86340SOL    HW160917   4.500   4.836   1.001
86340SOL    HW260918   4.507   4.949   0.900
86341SOL     OW60919   0.581   8.128   9.267
86341SOL    HW160920   0.532   8.185   9.326
86341SOL    HW260921   0.669   8.125   9.304
86342SOL     OW60922   0.321  13.805   2.003
86342SOL    HW160923   0.284  13.887   1.969
86342SOL    HW260924   0.413  13.824   2.016
86343SOL     OW60925   7.521   2.263  11.458
86343SOL    HW160926   7.491   2.287  11.370
86343SOL    HW260927   7.454   2.299  11.516
86344SOL     OW60928   0.758  11.482  11.876
86344SOL    HW160929   0.690  11.539  11.912
86344SOL    HW260930   0.739  11.396  11.914
86345SOL     OW60931   5.241   3.769   7.563
86345SOL    HW160932   5.198   3.727   7.638
86345SOL    HW260933   5.280   3.697   7.514
86346SOL     OW60934   5.138   6.510  12.277
86346SOL    HW160935   5.149   6.601  12.304
86346SOL    HW260936   5.221   6.468  12.299
86347SOL     OW60937  10.157  13.363  13.689
86347SOL    HW160938  10.135  13.327  13.603
86347SOL    HW260939  10.073  13.372  13.734
86348SOL     OW60940   9.975  11.307   0.017
86348SOL    HW160941   9.898  11.354   0.049
86348SOL    HW260942   9.940  11.245  14.823
86349SOL     OW60943   4.835  13.488   4.404
86349SOL    HW160944   4.843  13.583   4.392
86349SOL    HW260945   4.741  13.473   4.417
86350SOL     OW60946   2.018  13.712   6.202
86350SOL    HW160947   1.945  13.651   6.209
86350SOL    HW260948   2.010  13.768   6.280
86351SOL     OW60949   7.459  14.091  10.519
86351SOL    HW160950   7.473  14.085  10.613
86351SOL    HW260951   7.538  14.133  10.485
86352SOL     OW60952   1.022   8.931  13.393
86352SOL    HW160953   0.985   9.019  13.393
86352SOL    HW260954   1.024   8.906  13.486
86353SOL     OW60955   9.472   5.395  11.994
86353SOL    HW160956   9.460   5.312  11.949
86353SOL    HW260957   9.514   5.452  11.930
86354SOL     OW60958   7.660  13.574   2.579
86354SOL    HW160959   7.687  13.666   2.585
86354SOL    HW260960   7.657  13.556   2.485
86355SOL     OW60961   4.755   9.897  12.728
86355SOL    HW160962   4.840   9.908  12.686
86355SOL    HW260963   4.769   9.929  12.817
86356SOL     OW60964  11.859   8.380  12.752
86356SOL    HW160965  11.779   8.416  12.790
86356SOL    HW260966  11.829   8.303  12.702
86357SOL     OW60967   9.390  14.461  11.015
86357SOL    HW160968   9.412  14.401  11.086
86357SOL    HW260969   9.300  14.438  10.991
86358SOL     OW60970   4.538   8.462   1.504
86358SOL    HW160971   4.616   8.454   1.558
86358SOL    HW260972   4.473   8.407   1.547
86359SOL     OW60973  14.258  13.784  12.498
86359SOL    HW160974  14.227  13.830  12.420
86359SOL    HW260975  14.228  13.694  12.486
86360SOL     OW60976   7.115   1.985  14.489
86360SOL    HW160977   7.049   1.964  14.556
86360SOL    HW260978   7.069   1.973  14.406
86361SOL     OW60979  13.212   0.757   7.543
86361SOL    HW160980  13.271   0.816   7.496
86361SOL    HW260981  13.206   0.794   7.631
86362SOL     OW60982   6.769  14.079  10.848
86362SOL    HW160983   6.697  14.078  10.785
86362SOL    HW260984   6.756  13.999  10.899
86363SOL     OW60985  14.712   3.713  14.505
86363SOL    HW160986  14.767   3.668  14.441
86363SOL    HW260987  14.669   3.643  14.554
86364SOL     OW60988   8.049   9.723   9.084
86364SOL    HW160989   8.106   9.763   9.018
86364SOL    HW260990   8.096   9.736   9.167
86365SOL     OW60991   9.878   7.280   1.774
86365SOL    HW160992   9.926   7.199   1.791
86365SOL    HW260993   9.946   7.343   1.749
86366SOL     OW60994   5.250  12.729  14.157
86366SOL    HW160995   5.156  12.738  14.139
86366SOL    HW260996   5.289  12.715  14.070
86367SOL     OW60997  11.123  10.562   5.786
86367SOL    HW160998  11.058  10.613   5.737
86367SOL    HW260999  11.204  10.613   5.778
86368SOL     OW61000  13.632   4.283  11.168
86368SOL    HW161001  13.702   4.325  11.117
86368SOL    HW261002  13.605   4.351  11.230
86369SOL     OW61003  12.745  11.023  14.321
86369SOL    HW161004  12.713  10.965  14.390
86369SOL    HW261005  12.789  11.094  14.368
86370SOL     OW61006   2.647   0.290  13.758
86370SOL    HW161007   2.572   0.319  13.706
86370SOL    HW261008   2.724   0.324  13.710
86371SOL     OW61009   6.277   9.683   6.077
86371SOL    HW161010   6.235   9.651   6.157
86371SOL    HW261011   6.206   9.718   6.024
86372SOL     OW61012   5.400   3.788   4.493
86372SOL    HW161013   5.399   3.707   4.442
86372SOL    HW261014   5.419   3.857   4.429
86373SOL     OW61015  11.885  13.687  12.785
86373SOL    HW161016  11.968  13.725  12.756
86373SOL    HW261017  11.910  13.616  12.843
86374SOL     OW61018   7.604   9.709  12.208
86374SOL    HW161019   7.546   9.706  12.284
86374SOL    HW261020   7.548   9.692  12.133
86375SOL     OW61021   3.503  10.721  13.172
86375SOL    HW161022   3.564  10.662  13.215
86375SOL    HW261023   3.543  10.808  13.182
86376SOL     OW61024  10.242   1.933   1.574
86376SOL    HW161025  10.171   1.965   1.519
86376SOL    HW261026  10.198   1.887   1.646
86377SOL     OW61027  13.162  13.537   3.146
86377SOL    HW161028  13.144  13.604   3.213
86377SOL    HW261029  13.257  13.528   3.147
86378SOL     OW61030  10.056   4.525   1.014
86378SOL    HW161031  10.000   4.514   1.090
86378SOL    HW261032  10.094   4.438   1.000
86379SOL     OW61033   9.571  12.505  11.576
86379SOL    HW161034   9.559  12.582  11.520
86379SOL    HW261035   9.635  12.533  11.642
86380SOL     OW61036   7.235  12.272  12.538
86380SOL    HW161037   7.261  12.352  12.583
86380SOL    HW261038   7.239  12.294  12.445
86381SOL     OW61039  13.149  11.708   6.244
86381SOL    HW161040  13.167  11.619   6.274
86381SOL    HW261041  13.212  11.722   6.173
86382SOL     OW61042   8.503   4.661   4.269
86382SOL    HW161043   8.563   4.736   4.262
86382SOL    HW261044   8.529   4.617   4.351
86383SOL     OW61045   4.066   3.000   6.134
86383SOL    HW161046   4.072   2.933   6.202
86383SOL    HW261047   4.150   2.995   6.088
86384SOL     OW61048   9.027  12.182   0.866
86384SOL    HW161049   8.996  12.220   0.784
86384SOL    HW261050   9.029  12.256   0.927
86385SOL     OW61051  13.486  11.155  12.391
86385SOL    HW161052  13.540  11.075  12.391
86385SOL    HW261053  13.544  11.222  12.356
86386SOL     OW61054   2.922   0.318  12.001
86386SOL    HW161055   2.997   0.304  11.943
86386SOL    HW261056   2.847   0.318  11.942
86387SOL     OW61057  12.216  10.606   8.110
86387SOL    HW161058  12.164  10.678   8.147
86387SOL    HW261059  12.301  10.613   8.153
86388SOL     OW61060   4.052   1.136   5.456
86388SOL    HW161061   4.130   1.084   5.474
86388SOL    HW261062   4.071   1.223   5.490
86389SOL     OW61063   0.491   7.530   9.200
86389SOL    HW161064   0.426   7.552   9.133
86389SOL    HW261065   0.460   7.576   9.279
86390SOL     OW61066  10.866   2.468   0.278
86390SOL    HW161067  10.876   2.543   0.335
86390SOL    HW261068  10.791   2.490   0.222
86391SOL     OW61069   2.851   9.472   4.680
86391SOL    HW161070   2.893   9.434   4.603
86391SOL    HW261071   2.901   9.438   4.754
86392SOL     OW61072   5.790  13.697   9.663
86392SOL    HW161073   5.786  13.638   9.737
86392SOL    HW261074   5.723  13.666   9.603
86393SOL     OW61075   2.594   4.638   9.256
86393SOL    HW161076   2.604   4.716   9.201
86393SOL    HW261077   2.502   4.614   9.246
86394SOL     OW61078   3.587   0.758   3.576
86394SOL    HW161079   3.579   0.665   3.596
86394SOL    HW261080   3.681   0.776   3.582
86395SOL     OW61081   7.923   9.899   7.467
86395SOL    HW161082   7.965   9.814   7.473
86395SOL    HW261083   7.921   9.932   7.557
86396SOL     OW61084   5.776   1.687   9.592
86396SOL    HW161085   5.707   1.672   9.527
86396SOL    HW261086   5.856   1.699   9.540
86397SOL     OW61087   5.058   9.182   5.626
86397SOL    HW161088   5.145   9.198   5.590
86397SOL    HW261089   5.039   9.090   5.605
86398SOL     OW61090   7.745  12.360   7.896
86398SOL    HW161091   7.789  12.405   7.824
86398SOL    HW261092   7.689  12.296   7.854
86399SOL     OW61093   7.749  13.155   3.458
86399SOL    HW161094   7.780  13.218   3.393
86399SOL    HW261095   7.824  13.098   3.474
86400SOL     OW61096   0.467   2.240  10.088
86400SOL    HW161097   0.374   2.255  10.109
86400SOL    HW261098   0.505   2.328  10.085
86401SOL     OW61099   0.668  11.198   2.567
86401SOL    HW161100   0.606  11.144   2.517
86401SOL    HW261101   0.614  11.267   2.606
86402SOL     OW61102   8.321  10.244  11.614
86402SOL    HW161103   8.411  10.221  11.593
86402SOL    HW261104   8.268  10.177  11.572
86403SOL     OW61105   9.094  12.409   3.229
86403SOL    HW161106   9.019  12.458   3.261
86403SOL    HW261107   9.124  12.359   3.305
86404SOL     OW61108   9.963   3.401  13.681
86404SOL    HW161109  10.044   3.413  13.633
86404SOL    HW261110   9.941   3.488  13.714
86405SOL     OW61111   9.344  11.540  10.660
86405SOL    HW161112   9.265  11.516  10.709
86405SOL    HW261113   9.381  11.456  10.633
86406SOL     OW61114   5.817   7.363   9.015
86406SOL    HW161115   5.775   7.426   8.955
86406SOL    HW261116   5.826   7.411   9.097
86407SOL     OW61117   5.094   7.655   5.630
86407SOL    HW161118   5.139   7.660   5.546
86407SOL    HW261119   5.132   7.579   5.674
86408SOL     OW61120  13.815   3.273  11.038
86408SOL    HW161121  13.812   3.326  11.117
86408SOL    HW261122  13.868   3.196  11.063
86409SOL     OW61123   3.466   1.932   8.980
86409SOL    HW161124   3.515   2.012   8.999
86409SOL    HW261125   3.419   1.913   9.062
86410SOL     OW61126  11.079   0.962   1.231
86410SOL    HW161127  11.002   0.945   1.284
86410SOL    HW261128  11.055   1.037   1.176
86411SOL     OW61129   0.325   9.555   0.866
86411SOL    HW161130   0.324   9.547   0.771
86411SOL    HW261131   0.252   9.501   0.896
86412SOL     OW61132   9.067  13.758   1.436
86412SOL    HW161133   9.077  13.664   1.427
86412SOL    HW261134   9.034  13.788   1.352
86413SOL     OW61135   8.576   3.050  14.031
86413SOL    HW161136   8.519   3.036  13.955
86413SOL    HW261137   8.520   3.036  14.107
86414SOL     OW61138  14.363   6.362   3.382
86414SOL    HW161139  14.385   6.453   3.365
86414SOL    HW261140  14.391   6.315   3.304
86415SOL     OW61141   8.102   6.904  12.326
86415SOL    HW161142   8.131   6.969  12.390
86415SOL    HW261143   8.015   6.934  12.299
86416SOL     OW61144   5.110   4.092  12.578
86416SOL    HW161145   5.086   4.070  12.488
86416SOL    HW261146   5.107   4.188  12.580
86417SOL     OW61147  11.589   4.108   5.992
86417SOL    HW161148  11.595   4.034   5.932
86417SOL    HW261149  11.546   4.072   6.070
86418SOL     OW61150   3.238  13.032   2.498
86418SOL    HW161151   3.329  13.016   2.471
86418SOL    HW261152   3.244  13.107   2.557
86419SOL     OW61153   1.333  12.532   0.574
86419SOL    HW161154   1.375  12.497   0.495
86419SOL    HW261155   1.288  12.612   0.544
86420SOL     OW61156   6.758   5.400   4.568
86420SOL    HW161157   6.812   5.465   4.613
86420SOL    HW261158   6.805   5.383   4.486
86421SOL     OW61159  14.661  14.265   3.105
86421SOL    HW161160  14.730  14.327   3.082
86421SOL    HW261161  14.588  14.321   3.133
86422SOL     OW61162   7.996   2.990  14.505
86422SOL    HW161163   7.997   2.941  14.423
86422SOL    HW261164   8.046   3.070  14.486
86423SOL     OW61165   7.893   0.549   6.849
86423SOL    HW161166   7.958   0.480   6.835
86423SOL    HW261167   7.897   0.602   6.769
86424SOL     OW61168   1.721   4.896  11.489
86424SOL    HW161169   1.692   4.888  11.580
86424SOL    HW261170   1.762   4.812  11.469
86425SOL     OW61171  12.342   2.712  11.380
86425SOL    HW161172  12.295   2.700  11.463
86425SOL    HW261173  12.300   2.788  11.340
86426SOL     OW61174   5.878   6.288   3.043
86426SOL    HW161175   5.790   6.312   3.013
86426SOL    HW261176   5.917   6.371   3.070
86427SOL     OW61177   5.278  12.746   5.759
86427SOL    HW161178   5.267  12.841   5.750
86427SOL    HW261179   5.197  12.710   5.722
86428SOL     OW61180  11.777  13.006  11.593
86428SOL    HW161181  11.746  12.976  11.508
86428SOL    HW261182  11.697  13.017  11.645
86429SOL     OW61183   2.759   3.132   0.535
86429SOL    HW161184   2.831   3.176   0.490
86429SOL    HW261185   2.746   3.051   0.486
86430SOL     OW61186   5.670  13.335  10.794
86430SOL    HW161187   5.663  13.274  10.867
86430SOL    HW261188   5.706  13.281  10.722
86431SOL     OW61189   8.214   0.592  10.235
86431SOL    HW161190   8.229   0.530  10.307
86431SOL    HW261191   8.227   0.678  10.274
86432SOL     OW61192   1.569   1.284   3.931
86432SOL    HW161193   1.552   1.324   4.017
86432SOL    HW261194   1.568   1.358   3.870
86433SOL     OW61195   2.410   7.143   5.438
86433SOL    HW161196   2.374   7.071   5.491
86433SOL    HW261197   2.481   7.103   5.388
86434SOL     OW61198   6.384  13.599  10.556
86434SOL    HW161199   6.471  13.638  10.553
86434SOL    HW261200   6.335  13.642  10.486
86435SOL     OW61201  14.593   0.251   3.574
86435SOL    HW161202  14.582   0.167   3.619
86435SOL    HW261203  14.656   0.299   3.629
86436SOL     OW61204   0.171  14.550   8.506
86436SOL    HW161205   0.226  14.498   8.564
86436SOL    HW261206   0.125  14.611   8.564
86437SOL     OW61207   4.931   5.886   5.995
86437SOL    HW161208   4.989   5.825   6.041
86437SOL    HW261209   4.990   5.954   5.961
86438SOL     OW61210   6.121   4.975  13.986
86438SOL    HW161211   6.037   4.928  13.987
86438SOL    HW261212   6.137   4.992  13.893
86439SOL     OW61213   3.789   7.358   2.819
86439SOL    HW161214   3.812   7.448   2.841
86439SOL    HW261215   3.792   7.355   2.723
86440SOL     OW61216   9.204   4.176  12.767
86440SOL    HW161217   9.133   4.175  12.703
86440SOL    HW261218   9.172   4.122  12.840
86441SOL     OW61219  10.732   5.271   1.025
86441SOL    HW161220  10.765   5.263   1.115
86441SOL    HW261221  10.650   5.320   1.034
86442SOL     OW61222   0.048   9.882  14.163
86442SOL    HW161223  14.823   9.892  14.150
86442SOL    HW261224   0.088   9.941  14.100
86443SOL     OW61225  11.156   4.049   4.359
86443SOL    HW161226  11.213   4.103   4.414
86443SOL    HW261227  11.170   3.960   4.391
86444SOL     OW61228   9.942   5.382  11.486
86444SOL    HW161229  10.000   5.312  11.515
86444SOL    HW261230   9.915   5.356  11.398
86445SOL     OW61231   3.305  10.704  10.444
86445SOL    HW161232   3.347  10.739  10.365
86445SOL    HW261233   3.222  10.751  10.450
86446SOL     OW61234  10.908   1.893   3.763
86446SOL    HW161235  10.977   1.957   3.777
86446SOL    HW261236  10.893   1.894   3.669
86447SOL     OW61237  13.287   3.193  13.832
86447SOL    HW161238  13.280   3.246  13.912
86447SOL    HW261239  13.322   3.109  13.861
86448SOL     OW61240  13.052  13.675   3.368
86448SOL    HW161241  13.132  13.696   3.417
86448SOL    HW261242  12.985  13.732   3.405
86449SOL     OW61243   2.028   9.224   8.452
86449SOL    HW161244   2.103   9.170   8.476
86449SOL    HW261245   1.960   9.199   8.515
86450SOL     OW61246  14.553   2.198   3.261
86450SOL    HW161247  14.529   2.258   3.190
86450SOL    HW261248  14.639   2.228   3.290
86451SOL     OW61249   2.265   2.491   0.233
86451SOL    HW161250   2.306   2.408   0.206
86451SOL    HW261251   2.320   2.523   0.304
86452SOL     OW61252  11.950  13.865   0.905
86452SOL    HW161253  11.907  13.867   0.990
86452SOL    HW261254  11.968  13.957   0.885
86453SOL     OW61255   8.201   7.972   0.243
86453SOL    HW161256   8.211   8.026   0.321
86453SOL    HW261257   8.242   8.023   0.173
86454SOL     OW61258   3.829  11.948  12.470
86454SOL    HW161259   3.763  11.887  12.504
86454SOL    HW261260   3.910  11.896  12.467
86455SOL     OW61261   5.115  11.808  12.789
86455SOL    HW161262   5.140  11.715  12.789
86455SOL    HW261263   5.071  11.821  12.873
86456SOL     OW61264   5.162  11.603   4.504
86456SOL    HW161265   5.111  11.618   4.425
86456SOL    HW261266   5.164  11.507   4.513
86457SOL     OW61267   1.596   3.070   6.918
86457SOL    HW161268   1.579   3.053   7.011
86457SOL    HW261269   1.532   3.138   6.894
86458SOL     OW61270   5.354  13.667   4.296
86458SOL    HW161271   5.319  13.755   4.280
86458SOL    HW261272   5.294  13.628   4.360
86459SOL     OW61273  10.521  12.792  14.495
86459SOL    HW161274  10.576  12.773  14.419
86459SOL    HW261275  10.579  12.838  14.556
86460SOL     OW61276  11.528   7.059   1.633
86460SOL    HW161277  11.564   6.971   1.648
86460SOL    HW261278  11.522   7.098   1.720
86461SOL     OW61279   5.512   3.798   6.358
86461SOL    HW161280   5.541   3.717   6.401
86461SOL    HW261281   5.530   3.867   6.422
86462SOL     OW61282  10.075   4.977   2.170
86462SOL    HW161283   9.987   4.953   2.200
86462SOL    HW261284  10.130   4.968   2.247
86463SOL     OW61285  13.029  12.549  13.253
86463SOL    HW161286  13.032  12.517  13.163
86463SOL    HW261287  13.045  12.643  13.246
86464SOL     OW61288   8.134  11.814   0.536
86464SOL    HW161289   8.055  11.824   0.483
86464SOL    HW261290   8.122  11.874   0.610
86465SOL     OW61291  14.580  14.292   9.583
86465SOL    HW161292  14.628  14.344   9.647
86465SOL    HW261293  14.617  14.319   9.499
86466SOL     OW61294  13.189   8.014   0.162
86466SOL    HW161295  13.211   7.941   0.104
86466SOL    HW261296  13.138   8.073   0.106
86467SOL     OW61297  13.043  10.061  11.544
86467SOL    HW161298  13.022   9.969  11.558
86467SOL    HW261299  12.965  10.109  11.573
86468SOL     OW61300  13.679   1.262   0.259
86468SOL    HW161301  13.689   1.204   0.334
86468SOL    HW261302  13.759   1.250   0.208
86469SOL     OW61303   9.338  14.350   1.085
86469SOL    HW161304   9.350  14.393   1.170
86469SOL    HW261305   9.263  14.395   1.046
86470SOL     OW61306  12.963   1.962   0.388
86470SOL    HW161307  12.954   1.893   0.454
86470SOL    HW261308  12.877   2.003   0.385
86471SOL     OW61309   5.366   1.754   5.794
86471SOL    HW161310   5.308   1.767   5.868
86471SOL    HW261311   5.379   1.841   5.757
86472SOL     OW61312  14.847   1.636   2.917
86472SOL    HW161313  14.836   1.620   3.011
86472SOL    HW261314   0.032   1.715   2.913
86473SOL     OW61315   9.932   5.294   2.127
86473SOL    HW161316   9.997   5.240   2.081
86473SOL    HW261317   9.955   5.285   2.219
86474SOL     OW61318  10.410   9.310   5.484
86474SOL    HW161319  10.350   9.379   5.512
86474SOL    HW261320  10.363   9.229   5.502
86475SOL     OW61321  11.204   7.609   7.871
86475SOL    HW161322  11.250   7.645   7.946
86475SOL    HW261323  11.153   7.683   7.837
86476SOL     OW61324   8.600   3.882  13.566
86476SOL    HW161325   8.632   3.969  13.540
86476SOL    HW261326   8.542   3.899  13.640
86477SOL     OW61327  14.824   9.961   8.395
86477SOL    HW161328  14.750  10.020   8.396
86477SOL    HW261329  14.824   9.920   8.482
86478SOL     OW61330   0.248  12.212   7.580
86478SOL    HW161331   0.332  12.177   7.610
86478SOL    HW261332   0.211  12.143   7.525
86479SOL     OW61333   8.122   3.027  12.947
86479SOL    HW161334   8.193   3.091  12.959
86479SOL    HW261335   8.049   3.079  12.913
86480SOL     OW61336  11.183   5.776   0.527
86480SOL    HW161337  11.217   5.770   0.616
86480SOL    HW261338  11.246   5.831   0.480
86481SOL     OW61339  10.139   1.808   7.006
86481SOL    HW161340  10.133   1.903   7.015
86481SOL    HW261341  10.119   1.790   6.914
86482SOL     OW61342   4.052   8.906   9.294
86482SOL    HW161343   4.124   8.949   9.340
86482SOL    HW261344   4.050   8.817   9.330
86483SOL     OW61345   7.666  13.121  10.657
86483SOL    HW161346   7.672  13.133  10.752
86483SOL    HW261347   7.746  13.160  10.623
86484SOL     OW61348   8.272   1.441   7.484
86484SOL    HW161349   8.259   1.535   7.497
86484SOL    HW261350   8.356   1.423   7.526
86485SOL     OW61351  10.306  10.433   5.301
86485SOL    HW161352  10.339  10.450   5.212
86485SOL    HW261353  10.320  10.339   5.313
86486SOL     OW61354   5.308   4.260  13.350
86486SOL    HW161355   5.344   4.325  13.290
86486SOL    HW261356   5.371   4.187  13.347
86487SOL     OW61357   8.462   6.222   0.819
86487SOL    HW161358   8.417   6.220   0.735
86487SOL    HW261359   8.488   6.313   0.831
86488SOL     OW61360   1.426   9.731  12.261
86488SOL    HW161361   1.360   9.678  12.217
86488SOL    HW261362   1.495   9.743  12.196
86489SOL     OW61363   6.816   6.779  14.236
86489SOL    HW161364   6.812   6.844  14.306
86489SOL    HW261365   6.896   6.799  14.188
86490SOL     OW61366  11.119   5.682  13.125
86490SOL    HW161367  11.171   5.762  13.113
86490SOL    HW261368  11.184   5.614  13.144
86491SOL     OW61369   7.542   1.987   1.311
86491SOL    HW161370   7.468   2.047   1.304
86491SOL    HW261371   7.617   2.039   1.283
86492SOL     OW61372   5.985   5.181   1.880
86492SOL    HW161373   6.045   5.140   1.818
86492SOL    HW261374   5.912   5.212   1.827
86493SOL     OW61375  12.878   2.317   8.947
86493SOL    HW161376  12.882   2.228   8.912
86493SOL    HW261377  12.813   2.313   9.017
86494SOL     OW61378   7.615  10.367   2.347
86494SOL    HW161379   7.586  10.338   2.261
86494SOL    HW261380   7.544  10.422   2.379
86495SOL     OW61381   2.822  13.702   9.395
86495SOL    HW161382   2.768  13.690   9.473
86495SOL    HW261383   2.862  13.788   9.407
86496SOL     OW61384   6.551   9.506  13.745
86496SOL    HW161385   6.502   9.466  13.816
86496SOL    HW261386   6.560   9.598  13.770
86497SOL     OW61387  14.253   9.530   1.615
86497SOL    HW161388  14.338   9.491   1.593
86497SOL    HW261389  14.189   9.468   1.581
86498SOL     OW61390   8.905   4.628  14.741
86498SOL    HW161391   8.816   4.656  14.719
86498SOL    HW261392   8.961   4.677  14.681
86499SOL     OW61393  14.035  12.682   2.392
86499SOL    HW161394  13.975  12.711   2.460
86499SOL    HW261395  14.034  12.586   2.397
86500SOL     OW61396   8.811   2.647   9.922
86500SOL    HW161397   8.791   2.694   9.840
86500SOL    HW261398   8.893   2.686   9.952
86501SOL     OW61399   6.813   7.653   4.430
86501SOL    HW161400   6.766   7.575   4.460
86501SOL    HW261401   6.793   7.659   4.337
86502SOL     OW61402   1.031   5.584   3.355
86502SOL    HW161403   1.014   5.571   3.261
86502SOL    HW261404   1.121   5.554   3.368
86503SOL     OW61405   4.372  12.725   4.777
86503SOL    HW161406   4.467  12.719   4.773
86503SOL    HW261407   4.354  12.778   4.855
86504SOL     OW61408   1.559  13.565   3.970
86504SOL    HW161409   1.580  13.503   4.040
86504SOL    HW261410   1.605  13.645   3.994
86505SOL     OW61411   8.605  11.669  12.381
86505SOL    HW161412   8.577  11.695  12.468
86505SOL    HW261413   8.689  11.626  12.394
86506SOL     OW61414   2.666  13.562  12.996
86506SOL    HW161415   2.594  13.579  13.057
86506SOL    HW261416   2.666  13.467  12.984
86507SOL     OW61417   4.242   7.741   3.187
86507SOL    HW161418   4.331   7.721   3.157
86507SOL    HW261419   4.251   7.759   3.280
86508SOL     OW61420   8.493  13.335   9.345
86508SOL    HW161421   8.435  13.324   9.421
86508SOL    HW261422   8.580  13.312   9.378
86509SOL     OW61423  11.844   6.617   6.516
86509SOL    HW161424  11.874   6.587   6.430
86509SOL    HW261425  11.782   6.687   6.496
86510SOL     OW61426  10.781   7.869   8.372
86510SOL    HW161427  10.746   7.789   8.410
86510SOL    HW261428  10.848   7.839   8.310
86511SOL     OW61429  14.439   3.787   5.055
86511SOL    HW161430  14.447   3.739   4.973
86511SOL    HW261431  14.489   3.868   5.040
86512SOL     OW61432   6.902   8.783   1.480
86512SOL    HW161433   6.893   8.709   1.540
86512SOL    HW261434   6.988   8.770   1.439
86513SOL     OW61435   5.800  13.611   4.710
86513SOL    HW161436   5.710  13.580   4.709
86513SOL    HW261437   5.811  13.658   4.628
86514SOL     OW61438   1.965   8.855  10.112
86514SOL    HW161439   2.043   8.840  10.059
86514SOL    HW261440   1.892   8.832  10.054
86515SOL     OW61441   7.908  10.163   7.330
86515SOL    HW161442   7.821  10.146   7.294
86515SOL    HW261443   7.933  10.081   7.373
86516SOL     OW61444   8.350  12.906   4.166
86516SOL    HW161445   8.414  12.838   4.187
86516SOL    HW261446   8.345  12.906   4.070
86517SOL     OW61447   3.496  14.497   8.822
86517SOL    HW161448   3.548  14.578   8.826
86517SOL    HW261449   3.499  14.472   8.730
86518SOL     OW61450  14.504   7.940   4.359
86518SOL    HW161451  14.465   7.997   4.294
86518SOL    HW261452  14.472   7.852   4.336
86519SOL     OW61453   2.180  13.494   2.811
86519SOL    HW161454   2.206  13.571   2.861
86519SOL    HW261455   2.242  13.426   2.837
86520SOL     OW61456  12.362   3.198  11.815
86520SOL    HW161457  12.347   3.106  11.794
86520SOL    HW261458  12.357   3.243  11.731
86521SOL     OW61459   6.452   7.037   9.419
86521SOL    HW161460   6.479   7.129   9.424
86521SOL    HW261461   6.367   7.040   9.375
86522SOL     OW61462  12.142   9.292   9.302
86522SOL    HW161463  12.051   9.315   9.280
86522SOL    HW261464  12.160   9.215   9.248
86523SOL     OW61465  14.076   7.309   6.426
86523SOL    HW161466  14.150   7.270   6.381
86523SOL    HW261467  13.999   7.279   6.378
86524SOL     OW61468   6.644   8.882  10.171
86524SOL    HW161469   6.615   8.879  10.262
86524SOL    HW261470   6.681   8.969  10.160
86525SOL     OW61471  10.590   8.096  10.314
86525SOL    HW161472  10.682   8.094  10.288
86525SOL    HW261473  10.565   8.003  10.318
86526SOL     OW61474  14.362   1.456  13.891
86526SOL    HW161475  14.444   1.488  13.929
86526SOL    HW261476  14.296   1.516  13.926
86527SOL     OW61477   2.673   7.034   7.827
86527SOL    HW161478   2.727   7.040   7.748
86527SOL    HW261479   2.649   7.125   7.846
86528SOL     OW61480  13.312  13.323   2.588
86528SOL    HW161481  13.290  13.416   2.583
86528SOL    HW261482  13.407  13.321   2.587
86529SOL     OW61483   3.400   4.569   9.181
86529SOL    HW161484   3.457   4.572   9.103
86529SOL    HW261485   3.326   4.625   9.158
86530SOL     OW61486   6.803   4.962   2.832
86530SOL    HW161487   6.776   5.054   2.827
86530SOL    HW261488   6.889   4.960   2.789
86531SOL     OW61489  14.777   6.292  11.692
86531SOL    HW161490  14.682   6.289  11.681
86531SOL    HW261491  14.801   6.205  11.721
86532SOL     OW61492   3.118   1.390   3.093
86532SOL    HW161493   3.045   1.419   3.037
86532SOL    HW261494   3.197   1.411   3.042
86533SOL     OW61495  12.382  13.135   3.790
86533SOL    HW161496  12.441  13.113   3.862
86533SOL    HW261497  12.417  13.216   3.754
86534SOL     OW61498  10.781   3.568  12.615
86534SOL    HW161499  10.749   3.561  12.705
86534SOL    HW261500  10.752   3.655  12.587
86535SOL     OW61501  10.927   5.574   5.200
86535SOL    HW161502  10.908   5.633   5.128
86535SOL    HW261503  10.853   5.513   5.201
86536SOL     OW61504   4.714   6.082  12.231
86536SOL    HW161505   4.662   6.003  12.242
86536SOL    HW261506   4.795   6.065  12.279
86537SOL     OW61507   7.346   7.139   1.652
86537SOL    HW161508   7.366   7.230   1.673
86537SOL    HW261509   7.358   7.133   1.557
86538SOL     OW61510  13.534  11.781   4.309
86538SOL    HW161511  13.596  11.853   4.304
86538SOL    HW261512  13.519  11.769   4.403
86539SOL     OW61513   3.625   2.339   4.864
86539SOL    HW161514   3.554   2.306   4.808
86539SOL    HW261515   3.661   2.261   4.906
86540SOL     OW61516   2.202  14.156   1.709
86540SOL    HW161517   2.275  14.095   1.714
86540SOL    HW261518   2.226  14.219   1.642
86541SOL     OW61519  10.608   7.643  13.652
86541SOL    HW161520  10.561   7.573  13.607
86541SOL    HW261521  10.542   7.710  13.669
86542SOL     OW61522   7.156  11.961  11.571
86542SOL    HW161523   7.118  12.028  11.629
86542SOL    HW261524   7.236  11.934  11.615
86543SOL     OW61525   7.765   8.603   2.140
86543SOL    HW161526   7.780   8.594   2.046
86543SOL    HW261527   7.744   8.514   2.170
86544SOL     OW61528  12.931  12.339  11.516
86544SOL    HW161529  12.929  12.337  11.612
86544SOL    HW261530  13.008  12.288  11.492
86545SOL     OW61531   7.891   5.079   9.898
86545SOL    HW161532   7.805   5.060   9.935
86545SOL    HW261533   7.952   5.068   9.971
86546SOL     OW61534   0.105  14.753  13.218
86546SOL    HW161535   0.016  14.788  13.221
86546SOL    HW261536   0.149  14.804  13.149
86547SOL     OW61537   0.765  11.690   6.324
86547SOL    HW161538   0.805  11.765   6.279
86547SOL    HW261539   0.821  11.616   6.300
86548SOL     OW61540   3.635   0.565   1.945
86548SOL    HW161541   3.683   0.537   2.023
86548SOL    HW261542   3.552   0.519   1.950
86549SOL     OW61543  12.773   5.283   3.399
86549SOL    HW161544  12.717   5.244   3.331
86549SOL    HW261545  12.857   5.296   3.356
86550SOL     OW61546   8.213   8.516   6.129
86550SOL    HW161547   8.158   8.463   6.187
86550SOL    HW261548   8.257   8.453   6.073
86551SOL     OW61549  11.139  14.723  14.126
86551SOL    HW161550  11.120  14.739  14.034
86551SOL    HW261551  11.142  14.628  14.135
86552SOL     OW61552   0.221   3.071   5.930
86552SOL    HW161553   0.285   3.016   5.884
86552SOL    HW261554   0.139   3.022   5.925
86553SOL     OW61555   5.108   1.003   5.121
86553SOL    HW161556   5.167   1.064   5.165
86553SOL    HW261557   5.021   1.041   5.130
86554SOL     OW61558   2.915   6.804   3.330
86554SOL    HW161559   3.008   6.826   3.317
86554SOL    HW261560   2.871   6.889   3.337
86555SOL     OW61561  12.996   2.085   0.774
86555SOL    HW161562  12.900   2.081   0.778
86555SOL    HW261563  13.025   2.020   0.838
86556SOL     OW61564   0.943   9.220  14.823
86556SOL    HW161565   0.947   9.220   0.049
86556SOL    HW261566   0.976   9.133  14.798
86557SOL     OW61567  10.408   0.992   0.107
86557SOL    HW161568  10.448   0.982   0.194
86557SOL    HW261569  10.378   0.904   0.084
86558SOL     OW61570  14.559   6.775  10.779
86558SOL    HW161571  14.595   6.725  10.706
86558SOL    HW261572  14.468   6.746  10.784
86559SOL     OW61573   2.146   1.488  13.854
86559SOL    HW161574   2.117   1.440  13.932
86559SOL    HW261575   2.236   1.513  13.873
86560SOL     OW61576   1.720   6.844  13.786
86560SOL    HW161577   1.640   6.804  13.752
86560SOL    HW261578   1.789   6.780  13.767
86561SOL     OW61579  11.282   3.513   8.768
86561SOL    HW161580  11.356   3.452   8.760
86561SOL    HW261581  11.310   3.577   8.833
86562SOL     OW61582   8.008   6.981   1.286
86562SOL    HW161583   7.927   6.953   1.242
86562SOL    HW261584   7.997   6.952   1.377
86563SOL     OW61585   2.309   6.555   0.162
86563SOL    HW161586   2.231   6.501   0.174
86563SOL    HW261587   2.349   6.521   0.082
86564SOL     OW61588   6.499  11.068  13.706
86564SOL    HW161589   6.458  11.102  13.785
86564SOL    HW261590   6.473  11.130  13.637
86565SOL     OW61591   4.303  13.081   0.678
86565SOL    HW161592   4.389  13.041   0.686
86565SOL    HW261593   4.260  13.032   0.608
86566SOL     OW61594   8.848  11.211   6.403
86566SOL    HW161595   8.864  11.304   6.387
86566SOL    HW261596   8.755  11.207   6.428
86567SOL     OW61597   6.725   4.915  10.136
86567SOL    HW161598   6.738   4.920  10.231
86567SOL    HW261599   6.641   4.869  10.126
86568SOL     OW61600   8.565  10.751   4.388
86568SOL    HW161601   8.593  10.663   4.414
86568SOL    HW261602   8.646  10.795   4.363
86569SOL     OW61603  13.820   5.992  13.201
86569SOL    HW161604  13.778   5.933  13.264
86569SOL    HW261605  13.868   6.055  13.254
86570SOL     OW61606   1.881   9.732   1.677
86570SOL    HW161607   1.953   9.679   1.710
86570SOL    HW261608   1.834   9.674   1.616
86571SOL     OW61609   6.827  11.327   9.711
86571SOL    HW161610   6.739  11.362   9.719
86571SOL    HW261611   6.881  11.385   9.765
86572SOL     OW61612  12.543   6.674  10.093
86572SOL    HW161613  12.634   6.702  10.098
86572SOL    HW261614  12.546   6.593  10.042
86573SOL     OW61615   8.599  14.222   1.068
86573SOL    HW161616   8.583  14.250   1.158
86573SOL    HW261617   8.687  14.183   1.071
86574SOL     OW61618  10.512   5.320  12.668
86574SOL    HW161619  10.521   5.228  12.646
86574SOL    HW261620  10.542   5.367  12.590
86575SOL     OW61621   3.838   6.260   4.062
86575SOL    HW161622   3.772   6.212   4.112
86575SOL    HW261623   3.864   6.332   4.121
86576SOL     OW61624   8.630   6.633  11.040
86576SOL    HW161625   8.664   6.704  11.094
86576SOL    HW261626   8.646   6.554  11.092
86577SOL     OW61627  11.743   8.655   2.406
86577SOL    HW161628  11.693   8.584   2.445
86577SOL    HW261629  11.835   8.631   2.419
86578SOL     OW61630   6.587   8.163  10.506
86578SOL    HW161631   6.669   8.208  10.526
86578SOL    HW261632   6.529   8.232  10.474
86579SOL     OW61633   9.422   0.636   0.856
86579SOL    HW161634   9.421   0.597   0.769
86579SOL    HW261635   9.336   0.677   0.865
86580SOL     OW61636   1.915   0.663   8.399
86580SOL    HW161637   1.822   0.651   8.421
86580SOL    HW261638   1.943   0.577   8.366
86581SOL     OW61639   8.082   8.325  14.004
86581SOL    HW161640   8.059   8.352  14.093
86581SOL    HW261641   8.117   8.405  13.963
86582SOL     OW61642  10.864  12.644   3.331
86582SOL    HW161643  10.768  12.642   3.336
86582SOL    HW261644  10.883  12.695   3.252
86583SOL     OW61645   8.657  12.110   2.928
86583SOL    HW161646   8.615  12.033   2.968
86583SOL    HW261647   8.637  12.181   2.989
86584SOL     OW61648  12.138   7.390   8.693
86584SOL    HW161649  12.108   7.441   8.618
86584SOL    HW261650  12.079   7.315   8.696
86585SOL     OW61651   0.766   4.862  11.087
86585SOL    HW161652   0.679   4.901  11.097
86585SOL    HW261653   0.754   4.769  11.106
86586SOL     OW61654  14.754   1.319  11.922
86586SOL    HW161655  14.744   1.254  11.853
86586SOL    HW261656  14.837   1.295  11.965
86587SOL     OW61657   7.049   6.708   5.526
86587SOL    HW161658   6.983   6.767   5.563
86587SOL    HW261659   7.016   6.621   5.546
86588SOL     OW61660   0.949  14.433  10.055
86588SOL    HW161661   0.881  14.472  10.111
86588SOL    HW261662   1.031  14.466  10.092
86589SOL     OW61663   8.949   9.390   9.862
86589SOL    HW161664   8.943   9.456   9.932
86589SOL    HW261665   8.917   9.310   9.904
86590SOL     OW61666  11.721   5.571  11.395
86590SOL    HW161667  11.807   5.532  11.410
86590SOL    HW261668  11.726   5.606  11.306
86591SOL     OW61669   7.851   7.893  11.769
86591SOL    HW161670   7.784   7.933  11.826
86591SOL    HW261671   7.806   7.881  11.685
86592SOL     OW61672   2.141   5.211   9.213
86592SOL    HW161673   2.160   5.181   9.302
86592SOL    HW261674   2.046   5.219   9.211
86593SOL     OW61675  10.882   6.784   1.477
86593SOL    HW161676  10.943   6.713   1.498
86593SOL    HW261677  10.797   6.751   1.506
86594SOL     OW61678   9.176   9.695   8.386
86594SOL    HW161679   9.179   9.706   8.291
86594SOL    HW261680   9.261   9.726   8.417
86595SOL     OW61681  13.251  13.046  11.680
86595SOL    HW161682  13.219  13.136  11.694
86595SOL    HW261683  13.174  12.998  11.650
86596SOL     OW61684  11.601   5.686  11.965
86596SOL    HW161685  11.536   5.652  12.027
86596SOL    HW261686  11.613   5.616  11.901
86597SOL     OW61687  10.875  13.021  13.507
86597SOL    HW161688  10.968  13.031  13.526
86597SOL    HW261689  10.832  13.033  13.592
86598SOL     OW61690   9.116  10.187   9.551
86598SOL    HW161691   9.153  10.151   9.471
86598SOL    HW261692   9.192  10.214   9.603
86599SOL     OW61693  13.997  12.629   3.011
86599SOL    HW161694  13.926  12.565   3.002
86599SOL    HW261695  14.052  12.594   3.081
86600SOL     OW61696   7.004  14.040  14.318
86600SOL    HW161697   6.952  14.107  14.274
86600SOL    HW261698   6.939  13.979  14.354
86601SOL     OW61699   9.119  12.028  10.195
86601SOL    HW161700   9.204  12.071  10.184
86601SOL    HW261701   9.074  12.044  10.111
86602SOL     OW61702   6.058   6.823  12.189
86602SOL    HW161703   5.995   6.810  12.118
86602SOL    HW261704   6.045   6.747  12.246
86603SOL     OW61705   5.236   9.190   5.011
86603SOL    HW161706   5.329   9.173   4.992
86603SOL    HW261707   5.200   9.219   4.927
86604SOL     OW61708   7.144   3.054  12.450
86604SOL    HW161709   7.063   3.026  12.492
86604SOL    HW261710   7.205   2.982  12.466
86605SOL     OW61711   8.561   9.660   2.609
86605SOL    HW161712   8.530   9.637   2.522
86605SOL    HW261713   8.656   9.673   2.598
86606SOL     OW61714   7.235  12.853   6.412
86606SOL    HW161715   7.226  12.795   6.337
86606SOL    HW261716   7.308  12.911   6.388
86607SOL     OW61717   6.353  14.652   8.128
86607SOL    HW161718   6.423  14.619   8.072
86607SOL    HW261719   6.277  14.598   8.105
86608SOL     OW61720   9.404   6.557  12.020
86608SOL    HW161721   9.392   6.466  12.050
86608SOL    HW261722   9.493   6.579  12.049
86609SOL     OW61723  14.099   3.133   2.183
86609SOL    HW161724  14.145   3.136   2.267
86609SOL    HW261725  14.027   3.072   2.197
86610SOL     OW61726   8.589  10.486   5.917
86610SOL    HW161727   8.562  10.575   5.892
86610SOL    HW261728   8.506  10.438   5.926
86611SOL     OW61729  14.452   6.463  12.231
86611SOL    HW161730  14.463   6.374  12.199
86611SOL    HW261731  14.371   6.460  12.282
86612SOL     OW61732  11.359  10.578   2.677
86612SOL    HW161733  11.357  10.585   2.582
86612SOL    HW261734  11.281  10.527   2.700
86613SOL     OW61735   5.968   5.387  14.619
86613SOL    HW161736   5.954   5.377  14.713
86613SOL    HW261737   5.881   5.403  14.583
86614SOL     OW61738   6.544   7.163   9.164
86614SOL    HW161739   6.457   7.202   9.160
86614SOL    HW261740   6.578   7.189   9.250
86615SOL     OW61741   7.310   6.602   4.316
86615SOL    HW161742   7.353   6.518   4.333
86615SOL    HW261743   7.294   6.603   4.222
86616SOL     OW61744   0.913  12.003  10.346
86616SOL    HW161745   0.970  11.937  10.387
86616SOL    HW261746   0.962  12.084  10.352
86617SOL     OW61747   7.074   8.757  14.035
86617SOL    HW161748   7.069   8.853  14.029
86617SOL    HW261749   7.105   8.741  14.124
86618SOL     OW61750   5.895   0.112  12.976
86618SOL    HW161751   5.980   0.131  12.935
86618SOL    HW261752   5.906   0.025  13.013
86619SOL     OW61753  10.738   1.352   4.318
86619SOL    HW161754  10.703   1.435   4.350
86619SOL    HW261755  10.672   1.319   4.257
86620SOL     OW61756  10.199  10.700   1.269
86620SOL    HW161757  10.209  10.738   1.181
86620SOL    HW261758  10.105  10.681   1.276
86621SOL     OW61759   6.599   6.622   3.358
86621SOL    HW161760   6.517   6.659   3.326
86621SOL    HW261761   6.631   6.685   3.423
86622SOL     OW61762   2.345   2.200   7.709
86622SOL    HW161763   2.289   2.142   7.760
86622SOL    HW261764   2.415   2.225   7.769
86623SOL     OW61765   1.446   5.258   2.996
86623SOL    HW161766   1.513   5.240   3.061
86623SOL    HW261767   1.372   5.202   3.021
86624SOL     OW61768   4.076   8.090   4.787
86624SOL    HW161769   4.131   8.013   4.802
86624SOL    HW261770   3.986   8.058   4.800
86625SOL     OW61771  11.726   2.035   4.841
86625SOL    HW161772  11.744   1.969   4.774
86625SOL    HW261773  11.653   2.085   4.806
86626SOL     OW61774   8.810   6.889   5.270
86626SOL    HW161775   8.823   6.963   5.329
86626SOL    HW261776   8.730   6.847   5.302
86627SOL     OW61777   2.461  13.076   3.750
86627SOL    HW161778   2.507  13.020   3.813
86627SOL    HW261779   2.422  13.014   3.688
86628SOL     OW61780   4.367   4.788   8.867
86628SOL    HW161781   4.371   4.707   8.817
86628SOL    HW261782   4.283   4.827   8.842
86629SOL     OW61783   5.482  12.983   6.010
86629SOL    HW161784   5.429  13.058   5.983
86629SOL    HW261785   5.557  12.984   5.950
86630SOL     OW61786   7.520   8.161  13.534
86630SOL    HW161787   7.453   8.227  13.550
86630SOL    HW261788   7.493   8.117  13.454
86631SOL     OW61789   2.816   8.812   9.154
86631SOL    HW161790   2.824   8.770   9.069
86631SOL    HW261791   2.905   8.810   9.191
86632SOL     OW61792  14.442   8.406  14.336
86632SOL    HW161793  14.506   8.381  14.269
86632SOL    HW261794  14.389   8.327  14.349
86633SOL     OW61795   2.970  14.579   6.353
86633SOL    HW161796   3.027  14.657   6.355
86633SOL    HW261797   2.998  14.528   6.429
86634SOL     OW61798   6.510   9.458   9.323
86634SOL    HW161799   6.422   9.489   9.345
86634SOL    HW261800   6.496   9.379   9.272
86635SOL     OW61801   1.019   6.810  12.863
86635SOL    HW161802   0.964   6.788  12.788
86635SOL    HW261803   1.075   6.734  12.875
86636SOL     OW61804   7.923  12.507  12.998
86636SOL    HW161805   7.973  12.429  12.975
86636SOL    HW261806   7.872  12.526  12.919
86637SOL     OW61807  12.506   4.190   4.920
86637SOL    HW161808  12.553   4.244   4.856
86637SOL    HW261809  12.515   4.101   4.887
86638SOL     OW61810   8.713  13.119  10.444
86638SOL    HW161811   8.746  13.209  10.442
86638SOL    HW261812   8.633  13.121  10.392
86639SOL     OW61813   6.609   5.878   5.367
86639SOL    HW161814   6.610   5.798   5.313
86639SOL    HW261815   6.582   5.848   5.454
86640SOL     OW61816  11.173   5.832  10.594
86640SOL    HW161817  11.131   5.905  10.548
86640SOL    HW261818  11.103   5.795  10.648
86641SOL     OW61819   9.073   9.529  11.965
86641SOL    HW161820   9.023   9.497  12.040
86641SOL    HW261821   9.164   9.528  11.995
86642SOL     OW61822   9.420  14.274  12.996
86642SOL    HW161823   9.403  14.183  13.021
86642SOL    HW261824   9.378  14.283  12.910
86643SOL     OW61825  11.405  10.239   2.637
86643SOL    HW161826  11.349  10.305   2.594
86643SOL    HW261827  11.482  10.233   2.580
86644SOL     OW61828  12.110   6.685   7.304
86644SOL    HW161829  12.059   6.720   7.231
86644SOL    HW261830  12.058   6.704   7.381
86645SOL     OW61831  14.359  14.672  14.831
86645SOL    HW161832  14.364  14.731  14.755
86645SOL    HW261833  14.329  14.728   0.033
86646SOL     OW61834   2.772  12.072   9.906
86646SOL    HW161835   2.728  12.156   9.899
86646SOL    HW261836   2.830  12.081   9.982
86647SOL     OW61837  12.605  14.288   8.674
86647SOL    HW161838  12.577  14.246   8.755
86647SOL    HW261839  12.524  14.321   8.635
86648SOL     OW61840  10.019   2.696   6.005
86648SOL    HW161841  10.010   2.770   6.065
86648SOL    HW261842  10.111   2.696   5.981
86649SOL     OW61843   5.517   3.425   0.418
86649SOL    HW161844   5.518   3.505   0.470
86649SOL    HW261845   5.476   3.451   0.336
86650SOL     OW61846   9.209   1.105   3.266
86650SOL    HW161847   9.263   1.027   3.278
86650SOL    HW261848   9.265   1.165   3.217
86651SOL     OW61849  11.206   0.980  13.233
86651SOL    HW161850  11.262   1.019  13.300
86651SOL    HW261851  11.248   1.003  13.150
86652SOL     OW61852   7.045   7.678  11.827
86652SOL    HW161853   7.055   7.762  11.784
86652SOL    HW261854   7.109   7.680  11.899
86653SOL     OW61855  11.123  10.860   7.415
86653SOL    HW161856  11.132  10.797   7.343
86653SOL    HW261857  11.163  10.817   7.490
86654SOL     OW61858  10.148  14.562   8.176
86654SOL    HW161859  10.167  14.591   8.265
86654SOL    HW261860  10.207  14.487   8.163
86655SOL     OW61861   1.925   2.571  11.517
86655SOL    HW161862   1.944   2.503  11.581
86655SOL    HW261863   2.011   2.603  11.489
86656SOL     OW61864   5.315   4.581  12.028
86656SOL    HW161865   5.354   4.604  12.113
86656SOL    HW261866   5.377   4.520  11.989
86657SOL     OW61867   1.703  12.230   6.065
86657SOL    HW161868   1.749  12.171   6.125
86657SOL    HW261869   1.774  12.279   6.022
86658SOL     OW61870   1.430   4.427   0.085
86658SOL    HW161871   1.408   4.438  14.862
86658SOL    HW261872   1.378   4.493   0.130
86659SOL     OW61873   4.394   1.547  10.053
86659SOL    HW161874   4.431   1.584   9.973
86659SOL    HW261875   4.381   1.455  10.033
86660SOL     OW61876   8.139   5.817   7.291
86660SOL    HW161877   8.091   5.885   7.338
86660SOL    HW261878   8.223   5.857   7.270
86661SOL     OW61879   9.412  11.129   1.437
86661SOL    HW161880   9.412  11.035   1.420
86661SOL    HW261881   9.388  11.136   1.530
86662SOL     OW61882  10.160  11.050  11.320
86662SOL    HW161883  10.155  11.146  11.327
86662SOL    HW261884  10.160  11.019  11.410
86663SOL     OW61885   1.433  13.338   0.778
86663SOL    HW161886   1.436  13.433   0.788
86663SOL    HW261887   1.463  13.322   0.688
86664SOL     OW61888  10.563  14.787   5.038
86664SOL    HW161889  10.538  14.765   5.127
86664SOL    HW261890  10.632  14.852   5.047
86665SOL     OW61891   3.394  11.102   5.994
86665SOL    HW161892   3.343  11.051   5.932
86665SOL    HW261893   3.339  11.106   6.073
86666SOL     OW61894  11.013   7.734   0.187
86666SOL    HW161895  10.994   7.660   0.130
86666SOL    HW261896  10.942   7.796   0.170
86667SOL     OW61897   5.922   6.160  13.629
86667SOL    HW161898   5.918   6.173  13.724
86667SOL    HW261899   5.859   6.091  13.611
86668SOL     OW61900  14.144   4.054   5.372
86668SOL    HW161901  14.133   4.134   5.321
86668SOL    HW261902  14.238   4.036   5.367
86669SOL     OW61903   3.953   3.590   1.029
86669SOL    HW161904   3.926   3.681   1.045
86669SOL    HW261905   4.028   3.577   1.086
86670SOL     OW61906   4.940   6.888  13.938
86670SOL    HW161907   4.950   6.875  14.032
86670SOL    HW261908   4.852   6.923  13.927
86671SOL     OW61909   9.414  11.909   1.754
86671SOL    HW161910   9.342  11.867   1.707
86671SOL    HW261911   9.444  11.979   1.696
86672SOL     OW61912  14.171   4.002   8.963
86672SOL    HW161913  14.246   3.945   8.981
86672SOL    HW261914  14.164   4.003   8.868
86673SOL     OW61915   3.231   9.278   1.597
86673SOL    HW161916   3.190   9.347   1.547
86673SOL    HW261917   3.168   9.205   1.595
86674SOL     OW61918  13.180   4.440  10.136
86674SOL    HW161919  13.150   4.397  10.216
86674SOL    HW261920  13.273   4.420  10.131
86675SOL     OW61921   8.866  13.247   3.195
86675SOL    HW161922   8.844  13.156   3.179
86675SOL    HW261923   8.789  13.296   3.165
86676SOL     OW61924   2.192   4.022   1.950
86676SOL    HW161925   2.234   4.026   2.036
86676SOL    HW261926   2.213   3.935   1.917
86677SOL     OW61927  11.489   3.756   3.953
86677SOL    HW161928  11.454   3.835   3.911
86677SOL    HW261929  11.581   3.777   3.969
86678SOL     OW61930   4.264   4.856  11.583
86678SOL    HW161931   4.282   4.766  11.557
86678SOL    HW261932   4.244   4.850  11.677
86679SOL     OW61933   7.598   3.223   2.997
86679SOL    HW161934   7.625   3.131   3.004
86679SOL    HW261935   7.615   3.247   2.906
86680SOL     OW61936   5.510   2.165   2.345
86680SOL    HW161937   5.456   2.187   2.270
86680SOL    HW261938   5.575   2.235   2.350
86681SOL     OW61939  11.530   1.197   7.415
86681SOL    HW161940  11.593   1.262   7.382
86681SOL    HW261941  11.563   1.174   7.501
86682SOL     OW61942   6.991   4.237  11.400
86682SOL    HW161943   6.930   4.289  11.453
86682SOL    HW261944   7.015   4.295  11.327
86683SOL     OW61945  12.038  14.298  14.174
86683SOL    HW161946  12.035  14.207  14.147
86683SOL    HW261947  12.077  14.296  14.262
86684SOL     OW61948   9.254   6.196   7.802
86684SOL    HW161949   9.193   6.266   7.781
86684SOL    HW261950   9.198   6.124   7.831
86685SOL     OW61951   2.988  13.895   9.851
86685SOL    HW161952   3.067  13.863   9.895
86685SOL    HW261953   3.018  13.922   9.765
86686SOL     OW61954   0.502   4.091   6.944
86686SOL    HW161955   0.460   4.094   7.030
86686SOL    HW261956   0.534   4.001   6.936
86687SOL     OW61957   3.831   1.135   1.552
86687SOL    HW161958   3.740   1.150   1.525
86687SOL    HW261959   3.878   1.120   1.470
86688SOL     OW61960  12.418   2.344   7.633
86688SOL    HW161961  12.377   2.353   7.718
86688SOL    HW261962  12.350   2.370   7.570
86689SOL     OW61963  12.877   6.648   5.763
86689SOL    HW161964  12.846   6.664   5.852
86689SOL    HW261965  12.882   6.553   5.755
86690SOL     OW61966  13.635   6.351   8.395
86690SOL    HW161967  13.550   6.374   8.358
86690SOL    HW261968  13.695   6.352   8.320
86691SOL     OW61969   6.447   5.141   5.508
86691SOL    HW161970   6.390   5.173   5.438
86691SOL    HW261971   6.478   5.220   5.552
86692SOL     OW61972   8.331  11.097   2.811
86692SOL    HW161973   8.404  11.105   2.749
86692SOL    HW261974   8.355  11.155   2.883
86693SOL     OW61975   9.774   0.059  13.652
86693SOL    HW161976   9.804   0.094  13.568
86693SOL    HW261977   9.773   0.136  13.710
86694SOL     OW61978   0.858   0.240  10.997
86694SOL    HW161979   0.812   0.254  11.080
86694SOL    HW261980   0.878   0.327  10.965
86695SOL     OW61981   6.135  14.813   6.193
86695SOL    HW161982   6.216  14.849   6.228
86695SOL    HW261983   6.076  14.809   6.268
86696SOL     OW61984   5.309   8.358   4.848
86696SOL    HW161985   5.231   8.310   4.877
86696SOL    HW261986   5.335   8.313   4.767
86697SOL     OW61987   9.363  12.655   9.430
86697SOL    HW161988   9.279  12.620   9.459
86697SOL    HW261989   9.393  12.594   9.363
86698SOL     OW61990  11.994   3.513   7.477
86698SOL    HW161991  12.086   3.507   7.451
86698SOL    HW261992  11.945   3.472   7.405
86699SOL     OW61993   1.435   5.923  14.460
86699SOL    HW161994   1.384   5.865  14.403
86699SOL    HW261995   1.443   6.004  14.409
86700SOL     OW61996   4.888  10.663  13.434
86700SOL    HW161997   4.877  10.707  13.519
86700SOL    HW261998   4.982  10.669  13.416
86701SOL     OW61999   2.463  12.263  13.594
86701SOL    HW162000   2.528  12.334  13.596
86701SOL    HW262001   2.500  12.199  13.533
86702SOL     OW62002   5.599   2.883   4.967
86702SOL    HW162003   5.623   2.803   5.014
86702SOL    HW262004   5.604   2.859   4.875
86703SOL     OW62005   1.630   1.548   8.438
86703SOL    HW162006   1.666   1.604   8.370
86703SOL    HW262007   1.568   1.604   8.485
86704SOL     OW62008   3.540  11.301  10.300
86704SOL    HW162009   3.596  11.357  10.245
86704SOL    HW262010   3.600  11.240  10.341
86705SOL     OW62011  10.066   1.768   3.851
86705SOL    HW162012  10.092   1.697   3.791
86705SOL    HW262013  10.128   1.839   3.831
86706SOL     OW62014   6.448   0.026   5.585
86706SOL    HW162015   6.526   0.065   5.547
86706SOL    HW262016   6.376   0.082   5.557
86707SOL     OW62017   3.758   1.870   4.041
86707SOL    HW162018   3.731   1.873   3.949
86707SOL    HW262019   3.797   1.783   4.051
86708SOL     OW62020   9.499  12.484  10.660
86708SOL    HW162021   9.591  12.484  10.687
86708SOL    HW262022   9.467  12.397  10.682
86709SOL     OW62023  14.670   1.818   5.291
86709SOL    HW162024  14.764   1.802   5.292
86709SOL    HW262025  14.661   1.909   5.321
86710SOL     OW62026  14.758   8.092  12.783
86710SOL    HW162027  14.689   8.156  12.801
86710SOL    HW262028  14.716   8.007  12.793
86711SOL     OW62029  13.498  14.132  10.818
86711SOL    HW162030  13.577  14.077  10.813
86711SOL    HW262031  13.502  14.186  10.740
86712SOL     OW62032   6.724   1.418   5.323
86712SOL    HW162033   6.711   1.386   5.412
86712SOL    HW262034   6.758   1.343   5.274
86713SOL     OW62035   4.407  11.559   3.811
86713SOL    HW162036   4.391  11.522   3.724
86713SOL    HW262037   4.460  11.494   3.856
86714SOL     OW62038  13.705   3.770   5.400
86714SOL    HW162039  13.751   3.843   5.359
86714SOL    HW262040  13.661   3.810   5.475
86715SOL     OW62041  13.201   0.750  12.537
86715SOL    HW162042  13.272   0.797  12.493
86715SOL    HW262043  13.207   0.776  12.629
86716SOL     OW62044   1.546   9.196  12.560
86716SOL    HW162045   1.558   9.270  12.500
86716SOL    HW262046   1.512   9.235  12.640
86717SOL     OW62047  13.232   3.135   7.010
86717SOL    HW162048  13.272   3.048   7.003
86717SOL    HW262049  13.142   3.122   6.979
86718SOL     OW62050  14.679  13.799   6.241
86718SOL    HW162051  14.590  13.819   6.271
86718SOL    HW262052  14.710  13.881   6.203
86719SOL     OW62053   2.770   3.143   7.036
86719SOL    HW162054   2.853   3.144   7.084
86719SOL    HW262055   2.718   3.076   7.080
86720SOL     OW62056   2.102   9.949  10.330
86720SOL    HW162057   2.032  10.014  10.319
86720SOL    HW262058   2.138   9.937  10.243
86721SOL     OW62059  12.343   2.533   8.208
86721SOL    HW162060  12.338   2.611   8.262
86721SOL    HW262061  12.253   2.520   8.176
86722SOL     OW62062  14.642   3.365  12.493
86722SOL    HW162063  14.601   3.446  12.464
86722SOL    HW262064  14.674   3.384  12.581
86723SOL     OW62065   0.490  12.954  14.181
86723SOL    HW162066   0.503  12.927  14.090
86723SOL    HW262067   0.510  13.047  14.181
86724SOL     OW62068   7.469  11.364   4.328
86724SOL    HW162069   7.398  11.320   4.282
86724SOL    HW262070   7.427  11.403   4.405
86725SOL     OW62071  12.458  12.967   4.947
86725SOL    HW162072  12.520  13.036   4.968
86725SOL    HW262073  12.512  12.893   4.920
86726SOL     OW62074  10.183   7.812   5.889
86726SOL    HW162075  10.267   7.779   5.857
86726SOL    HW262076  10.136   7.734   5.919
86727SOL     OW62077   0.835   4.230  10.611
86727SOL    HW162078   0.769   4.248  10.544
86727SOL    HW262079   0.898   4.301  10.602
86728SOL     OW62080  13.912   3.716   8.944
86728SOL    HW162081  13.850   3.648   8.918
86728SOL    HW262082  13.858   3.793   8.959
86729SOL     OW62083   6.359   6.990  14.740
86729SOL    HW162084   6.449   7.021  14.746
86729SOL    HW262085   6.335   6.968  14.830
86730SOL     OW62086   8.897   8.438   9.307
86730SOL    HW162087   8.967   8.389   9.264
86730SOL    HW262088   8.934   8.463   9.391
86731SOL     OW62089   5.217   5.261   1.874
86731SOL    HW162090   5.294   5.277   1.927
86731SOL    HW262091   5.247   5.270   1.783
86732SOL     OW62092   0.518   7.509   2.495
86732SOL    HW162093   0.536   7.504   2.401
86732SOL    HW262094   0.460   7.585   2.505
86733SOL     OW62095  10.005  10.740   5.963
86733SOL    HW162096   9.929  10.779   6.005
86733SOL    HW262097   9.975  10.655   5.932
86734SOL     OW62098  12.883   1.321   7.712
86734SOL    HW162099  12.826   1.326   7.636
86734SOL    HW262100  12.971   1.313   7.676
86735SOL     OW62101   1.396   3.548   3.928
86735SOL    HW162102   1.408   3.561   4.023
86735SOL    HW262103   1.359   3.460   3.921
86736SOL     OW62104  14.687   4.656   0.682
86736SOL    HW162105  14.645   4.593   0.740
86736SOL    HW262106  14.614   4.707   0.646
86737SOL     OW62107  13.937   7.668  10.727
86737SOL    HW162108  14.021   7.709  10.748
86737SOL    HW262109  13.953   7.574  10.738
86738SOL     OW62110   6.111   2.883   3.127
86738SOL    HW162111   6.163   2.818   3.080
86738SOL    HW262112   6.035   2.835   3.158
86739SOL     OW62113  11.754   9.638   6.467
86739SOL    HW162114  11.785   9.724   6.436
86739SOL    HW262115  11.664   9.655   6.494
86740SOL     OW62116  13.122  14.725   1.921
86740SOL    HW162117  13.057  14.753   1.985
86740SOL    HW262118  13.112  14.787   1.848
86741SOL     OW62119   9.624  10.826  13.807
86741SOL    HW162120   9.572  10.867  13.876
86741SOL    HW262121   9.581  10.854  13.726
86742SOL     OW62122  13.207  11.590   9.699
86742SOL    HW162123  13.182  11.568   9.788
86742SOL    HW262124  13.147  11.661   9.674
86743SOL     OW62125  11.344   2.659   6.036
86743SOL    HW162126  11.413   2.726   6.036
86743SOL    HW262127  11.274   2.697   6.089
86744SOL     OW62128   3.360   4.753   3.991
86744SOL    HW162129   3.446   4.710   3.989
86744SOL    HW262130   3.308   4.701   4.053
86745SOL     OW62131   8.675  12.801   1.061
86745SOL    HW162132   8.767  12.774   1.069
86745SOL    HW262133   8.635  12.776   1.144
86746SOL     OW62134   4.400  13.394   2.701
86746SOL    HW162135   4.355  13.471   2.736
86746SOL    HW262136   4.340  13.358   2.636
86747SOL     OW62137   0.793  14.292   2.187
86747SOL    HW162138   0.819  14.371   2.140
86747SOL    HW262139   0.835  14.220   2.140
86748SOL     OW62140   7.212   8.245   2.179
86748SOL    HW162141   7.295   8.242   2.226
86748SOL    HW262142   7.228   8.195   2.099
86749SOL     OW62143  12.625   5.171  12.666
86749SOL    HW162144  12.718   5.145  12.665
86749SOL    HW262145  12.610   5.201  12.756
86750SOL     OW62146   6.358   0.960  13.406
86750SOL    HW162147   6.437   0.951  13.353
86750SOL    HW262148   6.390   0.985  13.492
86751SOL     OW62149   5.934   0.835  10.543
86751SOL    HW162150   5.994   0.788  10.600
86751SOL    HW262151   5.892   0.767  10.490
86752SOL     OW62152  10.565  10.153   1.724
86752SOL    HW162153  10.512  10.224   1.689
86752SOL    HW262154  10.618  10.193   1.793
86753SOL     OW62155  10.794  11.871   2.998
86753SOL    HW162156  10.766  11.780   3.004
86753SOL    HW262157  10.883  11.867   2.963
86754SOL     OW62158   9.704  11.938   6.393
86754SOL    HW162159   9.787  11.968   6.357
86754SOL    HW262160   9.673  12.012   6.445
86755SOL     OW62161   2.512   0.151   5.876
86755SOL    HW162162   2.491   0.187   5.962
86755SOL    HW262163   2.572   0.214   5.837
86756SOL     OW62164   4.010   5.125  10.590
86756SOL    HW162165   4.077   5.194  10.588
86756SOL    HW262166   3.930   5.170  10.617
86757SOL     OW62167   5.669   3.976   0.384
86757SOL    HW162168   5.596   4.022   0.342
86757SOL    HW262169   5.672   4.013   0.472
86758SOL     OW62170   2.502  11.013  10.436
86758SOL    HW162171   2.597  11.023  10.439
86758SOL    HW262172   2.489  10.920  10.416
86759SOL     OW62173  10.556   8.151  13.490
86759SOL    HW162174  10.639   8.122  13.452
86759SOL    HW262175  10.576   8.165  13.583
86760SOL     OW62176   8.872   6.481  10.120
86760SOL    HW162177   8.797   6.516  10.168
86760SOL    HW262178   8.855   6.505  10.028
86761SOL     OW62179   6.831  14.059   8.702
86761SOL    HW162180   6.758  14.104   8.743
86761SOL    HW262181   6.811  13.966   8.711
86762SOL     OW62182   3.233   5.730   1.630
86762SOL    HW162183   3.175   5.704   1.558
86762SOL    HW262184   3.189   5.805   1.670
86763SOL     OW62185   5.933   1.752   6.220
86763SOL    HW162186   5.960   1.706   6.299
86763SOL    HW262187   5.838   1.757   6.226
86764SOL     OW62188  12.113  14.618   7.664
86764SOL    HW162189  12.031  14.649   7.703
86764SOL    HW262190  12.176  14.687   7.684
86765SOL     OW62191   2.955   2.117   2.877
86765SOL    HW162192   2.955   2.212   2.872
86765SOL    HW262193   2.898   2.096   2.950
86766SOL     OW62194   7.875   9.531   0.089
86766SOL    HW162195   7.847   9.620   0.112
86766SOL    HW262196   7.896   9.536  14.866
86767SOL     OW62197   1.327  11.092   1.496
86767SOL    HW162198   1.258  11.159   1.503
86767SOL    HW262199   1.281  11.013   1.470
86768SOL     OW62200  10.324   3.736   2.872
86768SOL    HW162201  10.399   3.767   2.821
86768SOL    HW262202  10.292   3.659   2.825
86769SOL     OW62203  11.037   4.400  14.636
86769SOL    HW162204  11.021   4.403  14.542
86769SOL    HW262205  11.076   4.314  14.652
86770SOL     OW62206   0.752   4.441   4.755
86770SOL    HW162207   0.792   4.506   4.697
86770SOL    HW262208   0.659   4.462   4.755
86771SOL     OW62209  11.880  12.374   4.731
86771SOL    HW162210  11.853  12.285   4.754
86771SOL    HW262211  11.855  12.384   4.639
86772SOL     OW62212   3.928   6.591   1.070
86772SOL    HW162213   3.889   6.559   0.988
86772SOL    HW262214   3.975   6.670   1.044
86773SOL     OW62215   1.447   7.314  12.523
86773SOL    HW162216   1.453   7.402  12.485
86773SOL    HW262217   1.397   7.263  12.459
86774SOL     OW62218   3.909  14.168  10.142
86774SOL    HW162219   3.999  14.135  10.151
86774SOL    HW262220   3.899  14.229  10.215
86775SOL     OW62221  13.586   7.612   8.495
86775SOL    HW162222  13.560   7.596   8.585
86775SOL    HW262223  13.665   7.558   8.483
86776SOL     OW62224  10.167  12.721  11.974
86776SOL    HW162225  10.197  12.701  12.062
86776SOL    HW262226  10.117  12.644  11.947
86777SOL     OW62227  11.491  14.281  10.141
86777SOL    HW162228  11.478  14.375  10.159
86777SOL    HW262229  11.501  14.242  10.228
86778SOL     OW62230   5.267   5.700  11.269
86778SOL    HW162231   5.243   5.651  11.190
86778SOL    HW262232   5.190   5.752  11.289
86779SOL     OW62233   2.411   3.723   9.875
86779SOL    HW162234   2.376   3.783   9.809
86779SOL    HW262235   2.481   3.773   9.917
86780SOL     OW62236   8.105   8.035   8.004
86780SOL    HW162237   8.187   8.004   8.042
86780SOL    HW262238   8.088   7.975   7.931
86781SOL     OW62239   3.566   7.261   2.445
86781SOL    HW162240   3.660   7.265   2.464
86781SOL    HW262241   3.544   7.349   2.416
86782SOL     OW62242   0.568   6.937   4.190
86782SOL    HW162243   0.504   7.006   4.169
86782SOL    HW262244   0.606   6.914   4.105
86783SOL     OW62245   4.387   0.263   2.576
86783SOL    HW162246   4.437   0.182   2.572
86783SOL    HW262247   4.309   0.246   2.523
86784SOL     OW62248   6.727   8.980   7.881
86784SOL    HW162249   6.794   9.049   7.879
86784SOL    HW262250   6.690   8.980   7.793
86785SOL     OW62251   5.491   7.635   2.727
86785SOL    HW162252   5.414   7.680   2.762
86785SOL    HW262253   5.473   7.542   2.740
86786SOL     OW62254   5.519  10.629   8.912
86786SOL    HW162255   5.584  10.699   8.913
86786SOL    HW262256   5.536  10.582   8.830
86787SOL     OW62257   4.861   1.797   6.905
86787SOL    HW162258   4.839   1.703   6.901
86787SOL    HW262259   4.820   1.827   6.986
86788SOL     OW62260   4.091   5.544   8.720
86788SOL    HW162261   4.151   5.589   8.660
86788SOL    HW262262   4.102   5.589   8.803
86789SOL     OW62263   4.456   0.782   6.974
86789SOL    HW162264   4.365   0.799   6.953
86789SOL    HW262265   4.506   0.830   6.908
86790SOL     OW62266   3.325   2.212   8.988
86790SOL    HW162267   3.342   2.275   9.058
86790SOL    HW262268   3.289   2.135   9.033
86791SOL     OW62269  10.769  14.747   6.309
86791SOL    HW162270  10.820  14.827   6.303
86791SOL    HW262271  10.832  14.681   6.340
86792SOL     OW62272   0.696  13.957   4.861
86792SOL    HW162273   0.626  13.952   4.796
86792SOL    HW262274   0.720  13.865   4.877
86793SOL     OW62275   6.150   9.980  12.916
86793SOL    HW162276   6.080  10.045  12.931
86793SOL    HW262277   6.229  10.032  12.906
86794SOL     OW62278   4.164   3.424   1.749
86794SOL    HW162279   4.078   3.463   1.734
86794SOL    HW262280   4.210   3.433   1.665
86795SOL     OW62281   4.290   0.245  14.861
86795SOL    HW162282   4.256   0.333   0.005
86795SOL    HW262283   4.347   0.229   0.066
86796SOL     OW62284  12.598  14.263   7.116
86796SOL    HW162285  12.560  14.350   7.130
86796SOL    HW262286  12.574  14.213   7.194
86797SOL     OW62287   3.496  13.528   9.870
86797SOL    HW162288   3.449  13.556   9.949
86797SOL    HW262289   3.577  13.579   9.871
86798SOL     OW62290  11.733   7.970   0.401
86798SOL    HW162291  11.711   7.890   0.448
86798SOL    HW262292  11.828   7.965   0.390
86799SOL     OW62293   2.562  10.019   2.098
86799SOL    HW162294   2.568  10.050   2.008
86799SOL    HW262295   2.480   9.970   2.102
86800SOL     OW62296  11.865   2.447   0.073
86800SOL    HW162297  11.847   2.366   0.025
86800SOL    HW262298  11.950   2.433   0.115
86801SOL     OW62299   1.912   0.594  11.041
86801SOL    HW162300   1.820   0.611  11.019
86801SOL    HW262301   1.950   0.558  10.960
86802SOL     OW62302  14.409   0.308  12.510
86802SOL    HW162303  14.357   0.386  12.491
86802SOL    HW262304  14.344   0.241  12.533
86803SOL     OW62305  13.731   6.751   2.908
86803SOL    HW162306  13.647   6.705   2.913
86803SOL    HW262307  13.792   6.685   2.874
86804SOL     OW62308   2.791  14.710  11.926
86804SOL    HW162309   2.882  14.735  11.909
86804SOL    HW262310   2.752  14.788  11.965
86805SOL     OW62311   7.504  10.817   2.957
86805SOL    HW162312   7.552  10.748   3.004
86805SOL    HW262313   7.449  10.858   3.023
86806SOL     OW62314   4.619   9.246  12.311
86806SOL    HW162315   4.572   9.327  12.292
86806SOL    HW262316   4.684   9.270  12.377
86807SOL     OW62317   7.410   0.738   2.076
86807SOL    HW162318   7.449   0.658   2.043
86807SOL    HW262319   7.409   0.798   2.001
86808SOL     OW62320   6.980   1.320   3.485
86808SOL    HW162321   6.936   1.243   3.449
86808SOL    HW262322   7.041   1.284   3.550
86809SOL     OW62323  12.307   3.035   0.525
86809SOL    HW162324  12.393   2.997   0.508
86809SOL    HW262325  12.308   3.118   0.479
86810SOL     OW62326   2.261   1.257   8.661
86810SOL    HW162327   2.182   1.211   8.634
86810SOL    HW262328   2.230   1.323   8.723
86811SOL     OW62329  12.059  13.462  14.061
86811SOL    HW162330  11.992  13.531  14.058
86811SOL    HW262331  12.134  13.500  14.016
86812SOL     OW62332   2.789  12.608   3.693
86812SOL    HW162333   2.727  12.541   3.720
86812SOL    HW262334   2.747  12.691   3.716
86813SOL     OW62335   2.740   8.679  10.853
86813SOL    HW162336   2.670   8.620  10.882
86813SOL    HW262337   2.694   8.752  10.812
86814SOL     OW62338   6.996  12.365   6.546
86814SOL    HW162339   6.980  12.459   6.541
86814SOL    HW262340   7.090  12.355   6.528
86815SOL     OW62341   4.269  12.482   1.571
86815SOL    HW162342   4.287  12.492   1.664
86815SOL    HW262343   4.178  12.510   1.561
86816SOL     OW62344   9.348   0.443   3.223
86816SOL    HW162345   9.344   0.351   3.196
86816SOL    HW262346   9.375   0.490   3.144
86817SOL     OW62347   8.284   9.978   7.309
86817SOL    HW162348   8.286  10.068   7.276
86817SOL    HW262349   8.289   9.924   7.230
86818SOL     OW62350   3.331   5.409   3.622
86818SOL    HW162351   3.344   5.417   3.716
86818SOL    HW262352   3.391   5.474   3.584
86819SOL     OW62353   4.130   8.203  13.256
86819SOL    HW162354   4.204   8.171  13.307
86819SOL    HW262355   4.125   8.296  13.277
86820SOL     OW62356   5.013  10.091   9.260
86820SOL    HW162357   4.985  10.002   9.278
86820SOL    HW262358   5.103  10.082   9.229
86821SOL     OW62359   7.909  11.863   0.145
86821SOL    HW162360   7.966  11.786   0.144
86821SOL    HW262361   7.958  11.930   0.098
86822SOL     OW62362   2.292   7.102   5.010
86822SOL    HW162363   2.257   7.091   5.098
86822SOL    HW262364   2.296   7.013   4.974
86823SOL     OW62365  13.474   5.762   6.423
86823SOL    HW162366  13.396   5.711   6.400
86823SOL    HW262367  13.448   5.853   6.410
86824SOL     OW62368   6.554   5.700   5.002
86824SOL    HW162369   6.577   5.615   5.041
86824SOL    HW262370   6.462   5.691   4.978
86825SOL     OW62371  13.195   7.339   8.034
86825SOL    HW162372  13.243   7.419   8.013
86825SOL    HW262373  13.258   7.286   8.083
86826SOL     OW62374   4.715   8.745  12.944
86826SOL    HW162375   4.710   8.833  12.981
86826SOL    HW262376   4.800   8.712  12.972
86827SOL     OW62377   1.707   6.286  11.150
86827SOL    HW162378   1.665   6.309  11.233
86827SOL    HW262379   1.635   6.260  11.093
86828SOL     OW62380   7.040   1.991   7.999
86828SOL    HW162381   7.114   1.988   7.938
86828SOL    HW262382   7.012   2.083   7.998
86829SOL     OW62383   9.619   3.384   9.396
86829SOL    HW162384   9.702   3.343   9.370
86829SOL    HW262385   9.613   3.369   9.490
86830SOL     OW62386  10.691   9.263   3.252
86830SOL    HW162387  10.702   9.219   3.167
86830SOL    HW262388  10.598   9.254   3.271
86831SOL     OW62389  11.643  13.808  12.421
86831SOL    HW162390  11.639  13.734  12.360
86831SOL    HW262391  11.645  13.766  12.508
86832SOL     OW62392   2.977  13.556  13.440
86832SOL    HW162393   3.013  13.643  13.458
86832SOL    HW262394   2.970  13.552  13.344
86833SOL     OW62395   1.701  12.400   8.573
86833SOL    HW162396   1.657  12.405   8.658
86833SOL    HW262397   1.785  12.358   8.592
86834SOL     OW62398   8.425  12.856   7.049
86834SOL    HW162399   8.384  12.912   7.115
86834SOL    HW262400   8.444  12.915   6.976
86835SOL     OW62401  13.562   9.578  12.992
86835SOL    HW162402  13.536   9.487  13.005
86835SOL    HW262403  13.482   9.628  13.007
86836SOL     OW62404  13.148  11.800  13.000
86836SOL    HW162405  13.140  11.786  12.906
86836SOL    HW262406  13.241  11.815  13.015
86837SOL     OW62407  11.511   6.436   0.653
86837SOL    HW162408  11.421   6.404   0.642
86837SOL    HW262409  11.515   6.516   0.601
86838SOL     OW62410  13.730   1.575   1.571
86838SOL    HW162411  13.724   1.670   1.572
86838SOL    HW262412  13.710   1.551   1.481
86839SOL     OW62413   6.349   8.281  13.137
86839SOL    HW162414   6.254   8.280  13.125
86839SOL    HW262415   6.367   8.364  13.180
86840SOL     OW62416   6.536   8.189   7.075
86840SOL    HW162417   6.617   8.240   7.076
86840SOL    HW262418   6.486   8.220   7.150
86841SOL     OW62419   9.934   2.602   8.920
86841SOL    HW162420  10.006   2.625   8.861
86841SOL    HW262421   9.859   2.592   8.862
86842SOL     OW62422   0.583   2.680   1.489
86842SOL    HW162423   0.614   2.721   1.570
86842SOL    HW262424   0.505   2.730   1.465
86843SOL     OW62425  11.908   5.576   6.370
86843SOL    HW162426  11.919   5.663   6.409
86843SOL    HW262427  11.848   5.531   6.430
86844SOL     OW62428   7.573   3.173  12.104
86844SOL    HW162429   7.650   3.152  12.051
86844SOL    HW262430   7.531   3.244  12.056
86845SOL     OW62431   9.014   3.632  10.582
86845SOL    HW162432   9.108   3.624  10.565
86845SOL    HW262433   8.999   3.726  10.592
86846SOL     OW62434   2.247   1.741   6.406
86846SOL    HW162435   2.290   1.662   6.440
86846SOL    HW262436   2.202   1.711   6.327
86847SOL     OW62437   1.985   6.791   5.456
86847SOL    HW162438   1.906   6.844   5.469
86847SOL    HW262439   1.952   6.709   5.419
86848SOL     OW62440   4.773   5.488   8.091
86848SOL    HW162441   4.842   5.461   8.030
86848SOL    HW262442   4.790   5.438   8.170
86849SOL     OW62443   3.290   1.052   5.246
86849SOL    HW162444   3.290   1.057   5.342
86849SOL    HW262445   3.317   1.139   5.217
86850SOL     OW62446   4.973   8.730   8.260
86850SOL    HW162447   5.003   8.813   8.298
86850SOL    HW262448   4.902   8.755   8.201
86851SOL     OW62449  14.838   8.948   2.209
86851SOL    HW162450  14.790   8.889   2.268
86851SOL    HW262451  14.866   9.020   2.266
86852SOL     OW62452   3.894   3.926   3.210
86852SOL    HW162453   3.968   3.869   3.229
86852SOL    HW262454   3.853   3.888   3.132
86853SOL     OW62455   1.825   0.672   9.506
86853SOL    HW162456   1.809   0.586   9.546
86853SOL    HW262457   1.906   0.702   9.546
86854SOL     OW62458  13.334  10.924   4.294
86854SOL    HW162459  13.312  10.985   4.365
86854SOL    HW262460  13.427  10.939   4.277
86855SOL     OW62461  10.575  10.799  12.272
86855SOL    HW162462  10.524  10.805  12.352
86855SOL    HW262463  10.649  10.742  12.294
86856SOL     OW62464  11.788   3.866   6.461
86856SOL    HW162465  11.784   3.802   6.532
86856SOL    HW262466  11.717   3.841   6.402
86857SOL     OW62467   4.979   6.197  13.488
86857SOL    HW162468   4.943   6.182  13.575
86857SOL    HW262469   5.069   6.225  13.505
86858SOL     OW62470  12.352   5.224  12.577
86858SOL    HW162471  12.445   5.203  12.585
86858SOL    HW262472  12.313   5.145  12.541
86859SOL     OW62473   0.474   6.015   0.321
86859SOL    HW162474   0.567   6.010   0.299
86859SOL    HW262475   0.440   6.083   0.262
86860SOL     OW62476  11.109   0.763   2.682
86860SOL    HW162477  11.166   0.708   2.735
86860SOL    HW262478  11.157   0.777   2.601
86861SOL     OW62479   4.597  11.808   6.849
86861SOL    HW162480   4.677  11.825   6.898
86861SOL    HW262481   4.542  11.757   6.908
86862SOL     OW62482   5.017   6.622   6.349
86862SOL    HW162483   4.942   6.667   6.386
86862SOL    HW262484   4.982   6.575   6.273
86863SOL     OW62485   0.994  11.580   7.885
86863SOL    HW162486   1.036  11.654   7.930
86863SOL    HW262487   0.911  11.616   7.854
86864SOL     OW62488   5.553   1.243   2.800
86864SOL    HW162489   5.645   1.270   2.797
86864SOL    HW262490   5.556   1.150   2.821
86865SOL     OW62491   9.168   3.886   7.670
86865SOL    HW162492   9.175   3.887   7.765
86865SOL    HW262493   9.121   3.966   7.648
86866SOL     OW62494   0.988   0.657   3.922
86866SOL    HW162495   0.922   0.726   3.917
86866SOL    HW262496   0.947   0.589   3.975
86867SOL     OW62497   2.486   1.846   0.725
86867SOL    HW162498   2.430   1.923   0.725
86867SOL    HW262499   2.443   1.784   0.784
86868SOL     OW62500   1.063  11.628  12.974
86868SOL    HW162501   1.136  11.636  13.035
86868SOL    HW262502   1.085  11.553  12.919
86869SOL     OW62503   2.135   3.580   0.739
86869SOL    HW162504   2.088   3.577   0.655
86869SOL    HW262505   2.227   3.577   0.715
86870SOL     OW62506  10.871   2.558   8.942
86870SOL    HW162507  10.921   2.498   8.887
86870SOL    HW262508  10.924   2.567   9.021
86871SOL     OW62509  10.793   2.415   6.086
86871SOL    HW162510  10.869   2.426   6.029
86871SOL    HW262511  10.733   2.485   6.058
86872SOL     OW62512   7.103   4.024   0.938
86872SOL    HW162513   7.143   4.017   0.851
86872SOL    HW262514   7.009   4.021   0.922
86873SOL     OW62515  10.378  11.595   8.342
86873SOL    HW162516  10.358  11.581   8.434
86873SOL    HW262517  10.418  11.682   8.338
86874SOL     OW62518   1.820   2.391   0.264
86874SOL    HW162519   1.794   2.478   0.235
86874SOL    HW262520   1.902   2.405   0.313
86875SOL     OW62521  14.753   5.617  11.192
86875SOL    HW162522  14.786   5.697  11.233
86875SOL    HW262523  14.693   5.648  11.124
86876SOL     OW62524  11.495   0.145  12.693
86876SOL    HW162525  11.546   0.172  12.770
86876SOL    HW262526  11.561   0.112  12.632
86877SOL     OW62527  13.250   5.322   1.974
86877SOL    HW162528  13.259   5.302   1.881
86877SOL    HW262529  13.166   5.367   1.980
86878SOL     OW62530  14.377   4.108   7.383
86878SOL    HW162531  14.350   4.063   7.462
86878SOL    HW262532  14.457   4.064   7.356
86879SOL     OW62533   6.649  11.885   2.189
86879SOL    HW162534   6.686  11.884   2.277
86879SOL    HW262535   6.672  11.800   2.152
86880SOL     OW62536   8.553   1.779  11.326
86880SOL    HW162537   8.617   1.818  11.267
86880SOL    HW262538   8.593   1.696  11.353
86881SOL     OW62539  13.263   1.844  10.590
86881SOL    HW162540  13.337   1.788  10.615
86881SOL    HW262541  13.250   1.901  10.666
86882SOL     OW62542  12.160   1.648  12.448
86882SOL    HW162543  12.226   1.694  12.500
86882SOL    HW262544  12.156   1.698  12.366
86883SOL     OW62545   0.941   9.877   2.817
86883SOL    HW162546   0.893   9.931   2.754
86883SOL    HW262547   0.986   9.940   2.873
86884SOL     OW62548  12.627   1.775   0.373
86884SOL    HW162549  12.568   1.742   0.441
86884SOL    HW262550  12.706   1.721   0.381
86885SOL     OW62551  11.711  13.483   5.247
86885SOL    HW162552  11.652  13.545   5.206
86885SOL    HW262553  11.656  13.434   5.309
86886SOL     OW62554   6.043   1.896   8.981
86886SOL    HW162555   6.125   1.881   9.027
86886SOL    HW262556   5.987   1.822   9.005
86887SOL     OW62557   5.146  14.224   8.271
86887SOL    HW162558   5.080  14.270   8.322
86887SOL    HW262559   5.180  14.290   8.210
86888SOL     OW62560   4.375  11.381   2.198
86888SOL    HW162561   4.332  11.348   2.277
86888SOL    HW262562   4.459  11.336   2.195
86889SOL     OW62563   1.826   4.314  13.846
86889SOL    HW162564   1.790   4.278  13.927
86889SOL    HW262565   1.873   4.241  13.806
86890SOL     OW62566   8.743   7.500  14.176
86890SOL    HW162567   8.718   7.591  14.189
86890SOL    HW262568   8.696   7.452  14.244
86891SOL     OW62569   7.822   0.358   8.174
86891SOL    HW162570   7.838   0.421   8.245
86891SOL    HW262571   7.780   0.284   8.217
86892SOL     OW62572   2.278  13.959  14.074
86892SOL    HW162573   2.363  13.929  14.106
86892SOL    HW262574   2.271  13.923  13.986
86893SOL     OW62575   6.203  13.983   1.105
86893SOL    HW162576   6.143  14.057   1.113
86893SOL    HW262577   6.178  13.925   1.176
86894SOL     OW62578  13.073   3.730   4.642
86894SOL    HW162579  12.981   3.709   4.633
86894SOL    HW262580  13.090   3.726   4.736
86895SOL     OW62581  14.789   5.966   1.628
86895SOL    HW162582  14.843   6.040   1.653
86895SOL    HW262583  14.715   6.005   1.580
86896SOL     OW62584   7.722   5.624   6.628
86896SOL    HW162585   7.745   5.693   6.567
86896SOL    HW262586   7.787   5.630   6.697
86897SOL     OW62587   1.052   1.793  13.732
86897SOL    HW162588   1.048   1.858  13.663
86897SOL    HW262589   0.970   1.804  13.780
86898SOL     OW62590   0.691   8.122  11.103
86898SOL    HW162591   0.740   8.075  11.171
86898SOL    HW262592   0.667   8.054  11.040
86899SOL     OW62593  14.355   1.358   9.468
86899SOL    HW162594  14.323   1.433   9.417
86899SOL    HW262595  14.424   1.395   9.523
86900SOL     OW62596   6.089   1.019   3.783
86900SOL    HW162597   6.043   0.958   3.725
86900SOL    HW262598   6.051   1.105   3.762
86901SOL     OW62599   4.642  14.535  14.859
86901SOL    HW162600   4.690  14.468   0.039
86901SOL    HW262601   4.555  14.536   0.030
86902SOL     OW62602   2.469   0.461  11.878
86902SOL    HW162603   2.420   0.534  11.917
86902SOL    HW262604   2.560   0.490  11.881
86903SOL     OW62605   6.548   0.379   2.014
86903SOL    HW162606   6.536   0.465   1.973
86903SOL    HW262607   6.627   0.388   2.066
86904SOL     OW62608   7.024   8.108   4.862
86904SOL    HW162609   7.117   8.088   4.875
86904SOL    HW262610   6.978   8.029   4.892
86905SOL     OW62611   4.977  11.163  10.724
86905SOL    HW162612   4.941  11.098  10.663
86905SOL    HW262613   5.070  11.143  10.728
86906SOL     OW62614  12.059   9.248  11.944
86906SOL    HW162615  12.149   9.219  11.929
86906SOL    HW262616  12.006   9.169  11.936
86907SOL     OW62617  10.516  12.148  12.960
86907SOL    HW162618  10.534  12.056  12.943
86907SOL    HW262619  10.562  12.168  13.041
86908SOL     OW62620   4.004   3.258  11.454
86908SOL    HW162621   3.912   3.276  11.474
86908SOL    HW262622   4.022   3.174  11.495
86909SOL     OW62623   6.104   9.743   5.263
86909SOL    HW162624   6.052   9.823   5.248
86909SOL    HW262625   6.119   9.708   5.175
86910SOL     OW62626   3.887   1.210  11.250
86910SOL    HW162627   3.904   1.290  11.300
86910SOL    HW262628   3.908   1.139  11.310
86911SOL     OW62629  13.238  12.701  11.600
86911SOL    HW162630  13.167  12.659  11.649
86911SOL    HW262631  13.317  12.680  11.651
86912SOL     OW62632   4.040  13.325  13.184
86912SOL    HW162633   4.106  13.271  13.139
86912SOL    HW262634   3.956  13.289  13.156
86913SOL     OW62635   4.552   1.326   6.380
86913SOL    HW162636   4.591   1.371   6.305
86913SOL    HW262637   4.568   1.384   6.455
86914SOL     OW62638   7.086   6.904   9.598
86914SOL    HW162639   7.109   6.873   9.686
86914SOL    HW262640   7.111   6.996   9.597
86915SOL     OW62641   1.753   4.098  11.119
86915SOL    HW162642   1.791   4.054  11.195
86915SOL    HW262643   1.676   4.143  11.153
86916SOL     OW62644   1.115   4.295  13.923
86916SOL    HW162645   1.076   4.377  13.955
86916SOL    HW262646   1.082   4.228  13.982
86917SOL     OW62647   5.666   0.087   2.629
86917SOL    HW162648   5.714   0.146   2.571
86917SOL    HW262649   5.665   0.003   2.582
86918SOL     OW62650  11.267   8.783   6.686
86918SOL    HW162651  11.230   8.742   6.608
86918SOL    HW262652  11.246   8.876   6.678
86919SOL     OW62653   5.719   0.232  12.840
86919SOL    HW162654   5.774   0.255  12.766
86919SOL    HW262655   5.776   0.180  12.898
86920SOL     OW62656   7.980  14.715  11.286
86920SOL    HW162657   7.996  14.810  11.292
86920SOL    HW262658   7.885  14.706  11.298
86921SOL     OW62659   6.433   8.336   4.346
86921SOL    HW162660   6.351   8.320   4.298
86921SOL    HW262661   6.425   8.283   4.425
86922SOL     OW62662  10.355  12.914  12.043
86922SOL    HW162663  10.363  12.911  12.138
86922SOL    HW262664  10.261  12.910  12.026
86923SOL     OW62665   4.371   1.034  11.950
86923SOL    HW162666   4.324   0.952  11.935
86923SOL    HW262667   4.305   1.095  11.981
86924SOL     OW62668  10.628   4.524   0.389
86924SOL    HW162669  10.663   4.543   0.476
86924SOL    HW262670  10.536   4.502   0.404
86925SOL     OW62671   7.340   8.629  13.781
86925SOL    HW162672   7.245   8.626  13.786
86925SOL    HW262673   7.370   8.564  13.844
86926SOL     OW62674  13.107   2.242   5.462
86926SOL    HW162675  13.165   2.192   5.519
86926SOL    HW262676  13.148   2.239   5.376
86927SOL     OW62677   5.280   1.871   4.562
86927SOL    HW162678   5.291   1.822   4.480
86927SOL    HW262679   5.186   1.868   4.579
86928SOL     OW62680   0.645   0.310   5.338
86928SOL    HW162681   0.609   0.228   5.372
86928SOL    HW262682   0.650   0.368   5.414
86929SOL     OW62683   7.848   6.782  13.668
86929SOL    HW162684   7.872   6.875  13.664
86929SOL    HW262685   7.931   6.735  13.672
86930SOL     OW62686   7.151  12.066  13.669
86930SOL    HW162687   7.224  12.007  13.652
86930SOL    HW262688   7.114  12.084  13.583
86931SOL     OW62689  11.486  10.178  13.460
86931SOL    HW162690  11.534  10.261  13.466
86931SOL    HW262691  11.554  10.111  13.463
86932SOL     OW62692   9.001   2.911   0.187
86932SOL    HW162693   8.941   2.839   0.172
86932SOL    HW262694   8.945   2.988   0.194
86933SOL     OW62695  13.225   1.139   3.921
86933SOL    HW162696  13.225   1.114   4.013
86933SOL    HW262697  13.303   1.194   3.911
86934SOL     OW62698  10.382   0.116  10.972
86934SOL    HW162699  10.337   0.200  10.963
86934SOL    HW262700  10.331   0.069  11.038
86935SOL     OW62701  10.536   0.789  12.430
86935SOL    HW162702  10.480   0.711  12.430
86935SOL    HW262703  10.624   0.755  12.415
86936SOL     OW62704   6.940  12.592  14.733
86936SOL    HW162705   6.890  12.589  14.815
86936SOL    HW262706   6.941  12.502  14.702
86937SOL     OW62707   4.594   6.325   3.674
86937SOL    HW162708   4.572   6.411   3.638
86937SOL    HW262709   4.515   6.273   3.660
86938SOL     OW62710   0.559   3.419   6.896
86938SOL    HW162711   0.476   3.425   6.943
86938SOL    HW262712   0.626   3.426   6.964
86939SOL     OW62713   0.903   8.102  13.618
86939SOL    HW162714   0.829   8.044  13.636
86939SOL    HW262715   0.866   8.190  13.621
86940SOL     OW62716  10.232   3.875   9.737
86940SOL    HW162717  10.168   3.809   9.764
86940SOL    HW262718  10.197   3.958   9.770
86941SOL     OW62719   0.729  12.349  14.431
86941SOL    HW162720   0.640  12.380  14.413
86941SOL    HW262721   0.718  12.276  14.491
86942SOL     OW62722  12.990  11.470   0.296
86942SOL    HW162723  13.060  11.425   0.249
86942SOL    HW262724  12.998  11.561   0.270
86943SOL     OW62725   9.472   5.090   2.169
86943SOL    HW162726   9.481   5.184   2.155
86943SOL    HW262727   9.395   5.065   2.118
86944SOL     OW62728  11.105   5.690   0.217
86944SOL    HW162729  11.048   5.667   0.144
86944SOL    HW262730  11.068   5.771   0.252
86945SOL     OW62731   9.124  13.502  12.610
86945SOL    HW162732   9.158  13.462  12.530
86945SOL    HW262733   9.049  13.446  12.634
86946SOL     OW62734   7.556  13.316   8.104
86946SOL    HW162735   7.514  13.231   8.094
86946SOL    HW262736   7.521  13.369   8.032
86947SOL     OW62737  13.835  11.909   5.405
86947SOL    HW162738  13.763  11.846   5.396
86947SOL    HW262739  13.839  11.927   5.499
86948SOL     OW62740   2.660   6.669   2.882
86948SOL    HW162741   2.569   6.664   2.911
86948SOL    HW262742   2.657   6.719   2.801
86949SOL     OW62743   5.984   5.889   6.403
86949SOL    HW162744   5.932   5.810   6.405
86949SOL    HW262745   5.979   5.919   6.312
86950SOL     OW62746   0.439  10.899  11.095
86950SOL    HW162747   0.472  10.811  11.112
86950SOL    HW262748   0.347  10.886  11.072
86951SOL     OW62749  13.205   2.997   7.417
86951SOL    HW162750  13.258   3.050   7.358
86951SOL    HW262751  13.145   3.059   7.458
86952SOL     OW62752  14.726   2.856  12.875
86952SOL    HW162753  14.801   2.868  12.816
86952SOL    HW262754  14.745   2.775  12.921
86953SOL     OW62755  11.272   3.898   9.043
86953SOL    HW162756  11.200   3.850   9.002
86953SOL    HW262757  11.341   3.833   9.052
86954SOL     OW62758   3.711   2.012   8.160
86954SOL    HW162759   3.731   1.922   8.187
86954SOL    HW262760   3.657   2.047   8.231
86955SOL     OW62761   4.259  10.476   5.750
86955SOL    HW162762   4.262  10.384   5.724
86955SOL    HW262763   4.348  10.508   5.735
86956SOL     OW62764   4.205   8.795   8.776
86956SOL    HW162765   4.114   8.769   8.766
86956SOL    HW262766   4.244   8.779   8.690
86957SOL     OW62767   5.437   3.928  12.860
86957SOL    HW162768   5.465   3.838  12.879
86957SOL    HW262769   5.398   3.923  12.773
86958SOL     OW62770   2.998   2.529   0.721
86958SOL    HW162771   2.999   2.459   0.655
86958SOL    HW262772   3.023   2.607   0.672
86959SOL     OW62773  12.621  14.796   8.752
86959SOL    HW162774  12.682  14.798   8.678
86959SOL    HW262775  12.534  14.798   8.711
86960SOL     OW62776  12.365   9.645   7.731
86960SOL    HW162777  12.330   9.724   7.772
86960SOL    HW262778  12.380   9.670   7.640
86961SOL     OW62779   5.898   9.605   2.659
86961SOL    HW162780   5.950   9.674   2.617
86961SOL    HW262781   5.888   9.538   2.592
86962SOL     OW62782   8.884   2.252  10.481
86962SOL    HW162783   8.845   2.324  10.432
86962SOL    HW262784   8.879   2.178  10.420
86963SOL     OW62785   7.151   8.491   4.628
86963SOL    HW162786   7.094   8.448   4.692
86963SOL    HW262787   7.239   8.459   4.649
86964SOL     OW62788  11.744  14.432   1.294
86964SOL    HW162789  11.787  14.516   1.306
86964SOL    HW262790  11.692  14.443   1.214
86965SOL     OW62791  10.189   1.597   3.117
86965SOL    HW162792  10.222   1.561   3.034
86965SOL    HW262793  10.268   1.617   3.167
86966SOL     OW62794  14.443  12.366   6.916
86966SOL    HW162795  14.398  12.381   6.833
86966SOL    HW262796  14.535  12.353   6.892
86967SOL     OW62797  12.053  11.548   4.570
86967SOL    HW162798  11.990  11.620   4.563
86967SOL    HW262799  12.089  11.556   4.659
86968SOL     OW62800   5.031   0.144   9.281
86968SOL    HW162801   5.068   0.091   9.211
86968SOL    HW262802   4.940   0.160   9.253
86969SOL     OW62803   6.471  13.259   0.206
86969SOL    HW162804   6.522  13.335   0.180
86969SOL    HW262805   6.523  13.183   0.178
86970SOL     OW62806   0.213  10.193   1.132
86970SOL    HW162807   0.193  10.272   1.081
86970SOL    HW262808   0.195  10.121   1.072
86971SOL     OW62809  10.709   3.011   3.297
86971SOL    HW162810  10.679   3.079   3.358
86971SOL    HW262811  10.762   3.058   3.233
86972SOL     OW62812   2.993  13.470  11.129
86972SOL    HW162813   2.902  13.466  11.100
86972SOL    HW262814   2.991  13.435  11.218
86973SOL     OW62815  14.518   7.448   2.672
86973SOL    HW162816  14.565   7.526   2.644
86973SOL    HW262817  14.557   7.425   2.756
86974SOL     OW62818  10.459   7.611   8.355
86974SOL    HW162819  10.381   7.614   8.300
86974SOL    HW262820  10.519   7.553   8.308
86975SOL     OW62821   9.343   1.745   2.445
86975SOL    HW162822   9.335   1.822   2.388
86975SOL    HW262823   9.286   1.765   2.520
86976SOL     OW62824   1.641   0.320   7.615
86976SOL    HW162825   1.676   0.408   7.600
86976SOL    HW262826   1.564   0.334   7.670
86977SOL     OW62827   2.399   5.899  11.238
86977SOL    HW162828   2.397   5.829  11.172
86977SOL    HW262829   2.374   5.978  11.190
86978SOL     OW62830   9.755  11.293   1.230
86978SOL    HW162831   9.819  11.286   1.159
86978SOL    HW262832   9.746  11.204   1.264
86979SOL     OW62833   8.577   2.981  10.580
86979SOL    HW162834   8.578   2.897  10.626
86979SOL    HW262835   8.512   2.970  10.510
86980SOL     OW62836   0.992   0.260  13.178
86980SOL    HW162837   1.084   0.282  13.189
86980SOL    HW262838   0.977   0.187  13.238
86981SOL     OW62839   3.804   7.604   1.977
86981SOL    HW162840   3.823   7.641   1.891
86981SOL    HW262841   3.712   7.625   1.992
86982SOL     OW62842   2.358  14.174   1.194
86982SOL    HW162843   2.316  14.088   1.191
86982SOL    HW262844   2.337  14.214   1.109
86983SOL     OW62845   3.497  10.852   5.347
86983SOL    HW162846   3.468  10.919   5.408
86983SOL    HW262847   3.494  10.771   5.397
86984SOL     OW62848   8.401   3.822   1.448
86984SOL    HW162849   8.451   3.742   1.465
86984SOL    HW262850   8.331   3.820   1.514
86985SOL     OW62851   4.190  10.905   5.013
86985SOL    HW162852   4.158  10.956   5.087
86985SOL    HW262853   4.168  10.958   4.936
86986SOL     OW62854  12.729  10.500  11.258
86986SOL    HW162855  12.715  10.594  11.257
86986SOL    HW262856  12.670  10.466  11.190
86987SOL     OW62857   6.407   9.450   5.202
86987SOL    HW162858   6.430   9.496   5.283
86987SOL    HW262859   6.340   9.387   5.229
86988SOL     OW62860   0.975   9.862   2.404
86988SOL    HW162861   1.029   9.840   2.328
86988SOL    HW262862   0.955   9.955   2.393
86989SOL     OW62863   5.562   7.577   4.070
86989SOL    HW162864   5.636   7.637   4.073
86989SOL    HW262865   5.486   7.631   4.093
86990SOL     OW62866  14.114  14.090  11.742
86990SOL    HW162867  14.120  14.122  11.652
86990SOL    HW262868  14.151  14.160  11.795
86991SOL     OW62869   5.714  13.132   1.921
86991SOL    HW162870   5.752  13.200   1.976
86991SOL    HW262871   5.641  13.175   1.876
86992SOL     OW62872   9.145   5.340  14.594
86992SOL    HW162873   9.109   5.310  14.510
86992SOL    HW262874   9.067   5.357  14.648
86993SOL     OW62875  12.580   5.093  10.773
86993SOL    HW162876  12.607   5.028  10.838
86993SOL    HW262877  12.518   5.047  10.717
86994SOL     OW62878   9.120   3.050   9.120
86994SOL    HW162879   9.149   2.993   9.192
86994SOL    HW262880   9.201   3.072   9.074
86995SOL     OW62881   3.658  13.750   5.698
86995SOL    HW162882   3.640  13.796   5.779
86995SOL    HW262883   3.649  13.817   5.630
86996SOL     OW62884   1.382  11.528  11.019
86996SOL    HW162885   1.345  11.463  10.959
86996SOL    HW262886   1.460  11.486  11.055
86997SOL     OW62887   6.033   8.640   0.908
86997SOL    HW162888   6.026   8.643   1.004
86997SOL    HW262889   6.027   8.547   0.886
86998SOL     OW62890   0.561  11.131  11.240
86998SOL    HW162891   0.522  11.073  11.174
86998SOL    HW262892   0.560  11.080  11.321
86999SOL     OW62893   2.639   6.466   7.542
86999SOL    HW162894   2.708   6.455   7.477
86999SOL    HW262895   2.557   6.463   7.492
87000SOL     OW62896  12.949  10.153   6.222
87000SOL    HW162897  13.005  10.170   6.297
87000SOL    HW262898  12.921  10.240   6.192
87001SOL     OW62899  14.167   5.136   7.800
87001SOL    HW162900  14.150   5.219   7.754
87001SOL    HW262901  14.180   5.162   7.891
87002SOL     OW62902  12.512   3.338   0.685
87002SOL    HW162903  12.548   3.367   0.601
87002SOL    HW262904  12.417   3.337   0.671
87003SOL     OW62905   2.864   2.703   8.134
87003SOL    HW162906   2.841   2.780   8.083
87003SOL    HW262907   2.959   2.694   8.122
87004SOL     OW62908  13.815   8.839  11.033
87004SOL    HW162909  13.811   8.888  10.950
87004SOL    HW262910  13.844   8.903  11.097
87005SOL     OW62911  13.781  14.770   2.860
87005SOL    HW162912  13.783  14.798   2.769
87005SOL    HW262913  13.868  14.792   2.894
87006SOL     OW62914   2.381   6.799   4.640
87006SOL    HW162915   2.395   6.890   4.612
87006SOL    HW262916   2.465   6.757   4.627
87007SOL     OW62917  14.847  11.988   9.447
87007SOL    HW162918   0.021  12.035   9.519
87007SOL    HW262919  14.754  11.994   9.467
87008SOL     OW62920   2.213   0.741   2.731
87008SOL    HW162921   2.202   0.676   2.800
87008SOL    HW262922   2.305   0.731   2.704
87009SOL     OW62923   4.792  12.025   8.935
87009SOL    HW162924   4.859  12.093   8.947
87009SOL    HW262925   4.840  11.943   8.949
87010SOL     OW62926   3.281   9.320  11.415
87010SOL    HW162927   3.314   9.383  11.479
87010SOL    HW262928   3.207   9.365  11.373
87011SOL     OW62929   0.635   1.018   1.400
87011SOL    HW162930   0.625   1.066   1.318
87011SOL    HW262931   0.638   0.926   1.374
87012SOL     OW62932   4.475   3.867  14.801
87012SOL    HW162933   4.502   3.944  14.851
87012SOL    HW262934   4.458   3.900  14.713
87013SOL     OW62935   1.044   2.172   5.977
87013SOL    HW162936   1.054   2.107   6.047
87013SOL    HW262937   1.126   2.222   5.978
87014SOL     OW62938  14.215   6.572   0.970
87014SOL    HW162939  14.219   6.668   0.968
87014SOL    HW262940  14.214   6.546   0.877
87015SOL     OW62941  13.374  12.103  12.052
87015SOL    HW162942  13.435  12.102  12.126
87015SOL    HW262943  13.395  12.024  12.002
87016SOL     OW62944   9.890  10.115  11.634
87016SOL    HW162945   9.828  10.059  11.588
87016SOL    HW262946   9.889  10.084  11.724
87017SOL     OW62947   3.087   6.905  12.763
87017SOL    HW162948   3.047   6.981  12.805
87017SOL    HW262949   3.023   6.835  12.773
87018SOL     OW62950   8.391  10.518  10.210
87018SOL    HW162951   8.430  10.522  10.298
87018SOL    HW262952   8.397  10.425  10.186
87019SOL     OW62953  13.885  12.918   1.497
87019SOL    HW162954  13.895  12.964   1.414
87019SOL    HW262955  13.867  12.987   1.561
87020SOL     OW62956   5.634   0.681   3.624
87020SOL    HW162957   5.545   0.672   3.591
87020SOL    HW262958   5.690   0.667   3.548
87021SOL     OW62959   6.614   3.506   0.675
87021SOL    HW162960   6.684   3.471   0.620
87021SOL    HW262961   6.593   3.435   0.736
87022SOL     OW62962   7.638   7.137  10.117
87022SOL    HW162963   7.705   7.138  10.186
87022SOL    HW262964   7.631   7.229  10.090
87023SOL     OW62965   8.186   5.148  14.546
87023SOL    HW162966   8.186   5.197  14.628
87023SOL    HW262967   8.113   5.185  14.496
87024SOL     OW62968   1.590  14.765   3.080
87024SOL    HW162969   1.536  14.819   3.022
87024SOL    HW262970   1.560  14.675   3.063
87025SOL     OW62971   2.055   7.724   6.664
87025SOL    HW162972   2.018   7.746   6.750
87025SOL    HW262973   2.064   7.629   6.665
87026SOL     OW62974   3.094   8.272  10.744
87026SOL    HW162975   3.091   8.357  10.788
87026SOL    HW262976   3.004   8.238  10.750
87027SOL     OW62977   5.190  10.730   2.219
87027SOL    HW162978   5.121  10.746   2.284
87027SOL    HW262979   5.272  10.740   2.268
87028SOL     OW62980   8.468  11.425   1.760
87028SOL    HW162981   8.530  11.369   1.806
87028SOL    HW262982   8.408  11.456   1.829
87029SOL     OW62983   6.698   7.672   0.471
87029SOL    HW162984   6.638   7.672   0.544
87029SOL    HW262985   6.770   7.729   0.499
87030SOL     OW62986   3.124   5.717   7.453
87030SOL    HW162987   3.192   5.716   7.520
87030SOL    HW262988   3.086   5.629   7.456
87031SOL     OW62989   2.438   7.025  12.711
87031SOL    HW162990   2.465   7.050  12.800
87031SOL    HW262991   2.504   6.962  12.683
87032SOL     OW62992  14.669   2.615   8.724
87032SOL    HW162993  14.682   2.618   8.629
87032SOL    HW262994  14.748   2.572   8.758
87033SOL     OW62995   0.294   1.917   7.087
87033SOL    HW162996   0.283   1.991   7.027
87033SOL    HW262997   0.360   1.862   7.044
87034SOL     OW62998   9.305  12.031   4.391
87034SOL    HW162999   9.361  11.989   4.457
87034SOL    HW263000   9.224  11.980   4.393
87035SOL     OW63001  13.886   3.252  13.733
87035SOL    HW163002  13.811   3.210  13.691
87035SOL    HW263003  13.906   3.196  13.808
87036SOL     OW63004   5.661   1.289  11.237
87036SOL    HW163005   5.617   1.340  11.170
87036SOL    HW263006   5.604   1.296  11.314
87037SOL     OW63007   3.489   6.953   5.465
87037SOL    HW163008   3.415   6.925   5.411
87037SOL    HW263009   3.549   6.879   5.463
87038SOL     OW63010   8.331   7.650  12.726
87038SOL    HW163011   8.329   7.640  12.631
87038SOL    HW263012   8.255   7.704  12.747
87039SOL     OW63013  12.608   3.484   8.518
87039SOL    HW163014  12.581   3.565   8.562
87039SOL    HW263015  12.545   3.474   8.446
87040SOL     OW63016   7.389   0.288  12.881
87040SOL    HW163017   7.474   0.265  12.917
87040SOL    HW263018   7.334   0.306  12.958
87041SOL     OW63019   9.433  10.040   9.410
87041SOL    HW163020   9.423  10.018   9.503
87041SOL    HW263021   9.445   9.955   9.367
87042SOL     OW63022   8.849  13.426   2.898
87042SOL    HW163023   8.758  13.448   2.918
87042SOL    HW263024   8.852  13.331   2.905
87043SOL     OW63025   1.055   5.669   5.127
87043SOL    HW163026   1.078   5.655   5.035
87043SOL    HW263027   1.081   5.759   5.144
87044SOL     OW63028   1.838  11.419   2.992
87044SOL    HW163029   1.855  11.397   3.084
87044SOL    HW263030   1.847  11.335   2.946
87045SOL     OW63031  13.087   0.713   2.568
87045SOL    HW163032  13.115   0.804   2.559
87045SOL    HW263033  13.134   0.681   2.645
87046SOL     OW63034   2.400   0.783   4.306
87046SOL    HW163035   2.322   0.796   4.360
87046SOL    HW263036   2.378   0.825   4.223
87047SOL     OW63037   4.178   5.977  13.437
87047SOL    HW163038   4.223   6.023  13.508
87047SOL    HW263039   4.235   5.902  13.417
87048SOL     OW63040   9.867   1.997   1.508
87048SOL    HW163041   9.870   2.079   1.558
87048SOL    HW263042   9.940   2.003   1.447
87049SOL     OW63043  12.318   9.331   2.820
87049SOL    HW163044  12.376   9.262   2.790
87049SOL    HW263045  12.236   9.287   2.841
87050SOL     OW63046   6.706   1.693   8.475
87050SOL    HW163047   6.677   1.779   8.447
87050SOL    HW263048   6.798   1.688   8.447
87051SOL     OW63049   7.486   3.788   5.927
87051SOL    HW163050   7.406   3.777   5.980
87051SOL    HW263051   7.541   3.846   5.979
87052SOL     OW63052   2.250   5.295  11.111
87052SOL    HW163053   2.300   5.248  11.044
87052SOL    HW263054   2.159   5.283  11.084
87053SOL     OW63055   6.315  14.708   2.949
87053SOL    HW163056   6.365  14.635   2.912
87053SOL    HW263057   6.363  14.786   2.922
87054SOL     OW63058  14.203   2.791  11.100
87054SOL    HW163059  14.203   2.863  11.037
87054SOL    HW263060  14.226   2.832  11.183
87055SOL     OW63061   7.327   9.700   3.641
87055SOL    HW163062   7.289   9.785   3.662
87055SOL    HW263063   7.297   9.642   3.710
87056SOL     OW63064   3.038   8.422  12.213
87056SOL    HW163065   2.963   8.474  12.187
87056SOL    HW263066   3.049   8.439  12.307
87057SOL     OW63067  13.741   6.596   3.170
87057SOL    HW163068  13.789   6.673   3.139
87057SOL    HW263069  13.670   6.633   3.223
87058SOL     OW63070   3.146   3.808   9.991
87058SOL    HW163071   3.073   3.756  10.024
87058SOL    HW263072   3.112   3.897   9.984
87059SOL     OW63073   7.870  12.109   3.590
87059SOL    HW163074   7.902  12.163   3.663
87059SOL    HW263075   7.941  12.111   3.526
87060SOL     OW63076   8.801   1.884  11.490
87060SOL    HW163077   8.717   1.919  11.459
87060SOL    HW263078   8.848   1.860  11.410
87061SOL     OW63079   7.526  13.871  14.684
87061SOL    HW163080   7.611  13.903  14.714
87061SOL    HW263081   7.512  13.916  14.601
87062SOL     OW63082   7.212  14.415  13.724
87062SOL    HW163083   7.168  14.410  13.809
87062SOL    HW263084   7.259  14.332  13.717
87063SOL     OW63085   3.580  12.623   0.860
87063SOL    HW163086   3.565  12.571   0.939
87063SOL    HW263087   3.637  12.695   0.889
87064SOL     OW63088   9.864   3.172   6.372
87064SOL    HW163089   9.929   3.228   6.416
87064SOL    HW263090   9.817   3.129   6.444
87065SOL     OW63091  13.749   6.724   6.575
87065SOL    HW163092  13.721   6.794   6.633
87065SOL    HW263093  13.672   6.705   6.521
87066SOL     OW63094   3.594   7.475  11.870
87066SOL    HW163095   3.526   7.497  11.806
87066SOL    HW263096   3.649   7.554  11.875
87067SOL     OW63097   1.055   2.800   6.372
87067SOL    HW163098   0.968   2.800   6.411
87067SOL    HW263099   1.042   2.833   6.283
87068SOL     OW63100   1.703  12.399  11.789
87068SOL    HW163101   1.702  12.317  11.739
87068SOL    HW263102   1.651  12.380  11.867
87069SOL     OW63103   3.564  10.468   3.091
87069SOL    HW163104   3.553  10.394   3.030
87069SOL    HW263105   3.557  10.546   3.036
87070SOL     OW63106  13.374  13.278   4.922
87070SOL    HW163107  13.449  13.324   4.960
87070SOL    HW263108  13.335  13.342   4.862
87071SOL     OW63109  13.322  12.676  13.467
87071SOL    HW163110  13.403  12.644  13.506
87071SOL    HW263111  13.344  12.763  13.433
87072SOL     OW63112   8.286   9.637   0.945
87072SOL    HW163113   8.282   9.592   0.860
87072SOL    HW263114   8.195   9.657   0.966
87073SOL     OW63115   9.438   5.195   0.686
87073SOL    HW163116   9.432   5.132   0.614
87073SOL    HW263117   9.471   5.275   0.646
87074SOL     OW63118  12.327  14.178   0.873
87074SOL    HW163119  12.235  14.200   0.862
87074SOL    HW263120  12.327  14.089   0.907
87075SOL     OW63121   7.603   0.464  14.836
87075SOL    HW163122   7.562   0.378  14.826
87075SOL    HW263123   7.667   0.452   0.036
87076SOL     OW63124   3.142   1.878  11.904
87076SOL    HW163125   3.226   1.884  11.949
87076SOL    HW263126   3.081   1.846  11.971
87077SOL     OW63127  11.575   4.246   8.744
87077SOL    HW163128  11.534   4.329   8.768
87077SOL    HW263129  11.560   4.190   8.820
87078SOL     OW63130   6.431  14.407  10.759
87078SOL    HW163131   6.375  14.480  10.784
87078SOL    HW263132   6.391  14.371  10.680
87079SOL     OW63133   7.368  12.671  11.600
87079SOL    HW163134   7.298  12.731  11.624
87079SOL    HW263135   7.337  12.629  11.520
87080SOL     OW63136   8.652  13.083   7.258
87080SOL    HW163137   8.673  13.112   7.346
87080SOL    HW263138   8.573  13.030   7.268
87081SOL     OW63139  12.364   9.834   1.707
87081SOL    HW163140  12.286   9.779   1.701
87081SOL    HW263141  12.428   9.791   1.650
87082SOL     OW63142   5.289   7.527   6.393
87082SOL    HW163143   5.346   7.451   6.384
87082SOL    HW263144   5.205   7.499   6.356
87083SOL     OW63145   4.485  14.517   8.360
87083SOL    HW163146   4.411  14.557   8.407
87083SOL    HW263147   4.491  14.566   8.278
87084SOL     OW63148  13.248   9.166   0.098
87084SOL    HW163149  13.285   9.143   0.013
87084SOL    HW263150  13.319   9.212   0.143
87085SOL     OW63151   2.042   1.539  11.922
87085SOL    HW163152   2.034   1.459  11.869
87085SOL    HW263153   1.982   1.601  11.880
87086SOL     OW63154   8.297  10.718   6.494
87086SOL    HW163155   8.372  10.684   6.445
87086SOL    HW263156   8.236  10.644   6.497
87087SOL     OW63157   7.792   9.699   9.443
87087SOL    HW163158   7.768   9.642   9.370
87087SOL    HW263159   7.721   9.764   9.447
87088SOL     OW63160  13.018   4.700   7.522
87088SOL    HW163161  12.995   4.726   7.611
87088SOL    HW263162  13.025   4.605   7.525
87089SOL     OW63163  11.598   4.125   0.613
87089SOL    HW163164  11.537   4.196   0.594
87089SOL    HW263165  11.548   4.063   0.666
87090SOL     OW63166   9.400   3.048  12.021
87090SOL    HW163167   9.450   3.125  12.047
87090SOL    HW263168   9.332   3.082  11.963
87091SOL     OW63169   8.481   3.117   2.947
87091SOL    HW163170   8.562   3.158   2.918
87091SOL    HW263171   8.483   3.029   2.910
87092SOL     OW63172  12.000   2.275   0.320
87092SOL    HW163173  11.987   2.368   0.336
87092SOL    HW263174  12.095   2.262   0.329
87093SOL     OW63175   2.000  12.090   1.762
87093SOL    HW163176   2.083  12.122   1.728
87093SOL    HW263177   1.987  12.006   1.718
87094SOL     OW63178  11.173   4.724   0.940
87094SOL    HW163179  11.133   4.783   0.876
87094SOL    HW263180  11.111   4.722   1.013
87095SOL     OW63181   6.649   5.677  11.201
87095SOL    HW163182   6.710   5.651  11.270
87095SOL    HW263183   6.693   5.650  11.120
87096SOL     OW63184   0.993  11.385  12.413
87096SOL    HW163185   0.936  11.309  12.404
87096SOL    HW263186   0.981  11.413  12.504
87097SOL     OW63187   8.546   9.046   6.609
87097SOL    HW163188   8.487   9.046   6.684
87097SOL    HW263189   8.523   8.967   6.560
87098SOL     OW63190   6.897   0.441  10.804
87098SOL    HW163191   6.919   0.513  10.864
87098SOL    HW263192   6.959   0.451  10.732
87099SOL     OW63193  12.287   7.735   0.178
87099SOL    HW163194  12.284   7.639   0.176
87099SOL    HW263195  12.365   7.757   0.126
87100SOL     OW63196   9.918   5.961   0.131
87100SOL    HW163197   9.873   5.901   0.190
87100SOL    HW263198   9.897   6.048   0.164
87101SOL     OW63199   9.125   1.866   6.798
87101SOL    HW163200   9.188   1.934   6.821
87101SOL    HW263201   9.043   1.895   6.840
87102SOL     OW63202   4.040  10.328   0.544
87102SOL    HW163203   4.001  10.384   0.478
87102SOL    HW263204   4.079  10.255   0.495
87103SOL     OW63205   8.009   1.419   0.079
87103SOL    HW163206   8.041   1.487   0.019
87103SOL    HW263207   8.088   1.389   0.125
87104SOL     OW63208   3.544   4.438   2.359
87104SOL    HW163209   3.455   4.413   2.336
87104SOL    HW263210   3.553   4.410   2.450
87105SOL     OW63211  13.501   9.055  12.871
87105SOL    HW163212  13.564   9.109  12.823
87105SOL    HW263213  13.416   9.098  12.857
87106SOL     OW63214   8.337  13.837   9.680
87106SOL    HW163215   8.417  13.844   9.733
87106SOL    HW263216   8.355  13.890   9.602
87107SOL     OW63217   1.428   8.408   4.539
87107SOL    HW163218   1.429   8.412   4.443
87107SOL    HW263219   1.469   8.490   4.567
87108SOL     OW63220   0.136   1.112  10.447
87108SOL    HW163221   0.172   1.066  10.523
87108SOL    HW263222   0.072   1.051  10.411
87109SOL     OW63223   7.701   8.929   6.069
87109SOL    HW163224   7.680   8.877   5.991
87109SOL    HW263225   7.719   8.864   6.137
87110SOL     OW63226   7.764   4.489   7.446
87110SOL    HW163227   7.819   4.462   7.520
87110SOL    HW263228   7.688   4.531   7.486
87111SOL     OW63229   4.627   3.962  12.299
87111SOL    HW163230   4.702   4.016  12.275
87111SOL    HW263231   4.654   3.919  12.380
87112SOL     OW63232  12.130  10.895   2.925
87112SOL    HW163233  12.104  10.807   2.949
87112SOL    HW263234  12.119  10.946   3.006
87113SOL     OW63235   3.138   4.112   7.905
87113SOL    HW163236   3.153   4.100   7.999
87113SOL    HW263237   3.094   4.197   7.899
87114SOL     OW63238   6.315   7.341   9.874
87114SOL    HW163239   6.287   7.264   9.924
87114SOL    HW263240   6.408   7.352   9.897
87115SOL     OW63241  13.749   9.582  14.507
87115SOL    HW163242  13.810   9.508  14.497
87115SOL    HW263243  13.741   9.594  14.602
87116SOL     OW63244   1.025   0.415   0.617
87116SOL    HW163245   1.024   0.325   0.584
87116SOL    HW263246   1.083   0.411   0.694
87117SOL     OW63247   4.196   2.290  10.999
87117SOL    HW163248   4.222   2.256  11.084
87117SOL    HW263249   4.133   2.359  11.019
87118SOL     OW63250  12.073  10.019   2.430
87118SOL    HW163251  12.160  10.024   2.470
87118SOL    HW263252  12.038   9.936   2.460
87119SOL     OW63253   2.810   5.015   7.396
87119SOL    HW163254   2.767   5.068   7.330
87119SOL    HW263255   2.846   4.940   7.348
87120SOL     OW63256   3.664   0.426   1.291
87120SOL    HW163257   3.630   0.440   1.202
87120SOL    HW263258   3.594   0.378   1.335
87121SOL     OW63259  14.860  12.969  11.914
87121SOL    HW163260   0.053  13.040  11.925
87121SOL    HW263261  14.842  12.938  12.002
87122SOL     OW63262   1.586  13.381  11.836
87122SOL    HW163263   1.513  13.436  11.864
87122SOL    HW263264   1.589  13.311  11.901
87123SOL     OW63265  10.238   4.030   8.033
87123SOL    HW163266  10.264   3.991   8.117
87123SOL    HW263267  10.311   4.087   8.010
87124SOL     OW63268  12.105  12.208   8.325
87124SOL    HW163269  12.079  12.195   8.234
87124SOL    HW263270  12.158  12.131   8.346
87125SOL     OW63271   7.046   7.330  14.065
87125SOL    HW163272   7.052   7.247  14.112
87125SOL    HW263273   6.956   7.332  14.031
87126SOL     OW63274  12.998   3.328   7.734
87126SOL    HW163275  13.072   3.383   7.757
87126SOL    HW263276  12.967   3.293   7.818
87127SOL     OW63277   4.807   0.061   5.614
87127SOL    HW163278   4.806  14.844   5.656
87127SOL    HW263279   4.774   0.120   5.681
87128SOL     OW63280  10.896   0.416   3.024
87128SOL    HW163281  10.850   0.407   2.940
87128SOL    HW263282  10.981   0.452   3.001
87129SOL     OW63283  12.826  11.796   3.339
87129SOL    HW163284  12.773  11.718   3.325
87129SOL    HW263285  12.823  11.842   3.255
87130SOL     OW63286  14.707   3.996   8.591
87130SOL    HW163287  14.722   4.026   8.502
87130SOL    HW263288  14.613   4.003   8.604
87131SOL     OW63289   2.831   5.928   3.145
87131SOL    HW163290   2.736   5.912   3.146
87131SOL    HW263291   2.861   5.893   3.229
87132SOL     OW63292  14.319   1.552   9.782
87132SOL    HW163293  14.391   1.614   9.771
87132SOL    HW263294  14.241   1.606   9.791
87133SOL     OW63295   9.447   7.459   8.076
87133SOL    HW163296   9.538   7.430   8.081
87133SOL    HW263297   9.450   7.543   8.031
87134SOL     OW63298  14.403  11.828   2.934
87134SOL    HW163299  14.453  11.909   2.922
87134SOL    HW263300  14.468  11.764   2.963
87135SOL     OW63301   4.934  13.479   5.237
87135SOL    HW163302   4.904  13.450   5.323
87135SOL    HW263303   4.886  13.424   5.175
87136SOL     OW63304   1.906   1.572  13.260
87136SOL    HW163305   1.854   1.513  13.314
87136SOL    HW263306   1.996   1.544  13.275
87137SOL     OW63307  11.154   3.950   9.622
87137SOL    HW163308  11.196   3.892   9.559
87137SOL    HW263309  11.193   3.928   9.706
87138SOL     OW63310   2.207  12.989   3.481
87138SOL    HW163311   2.269  13.061   3.475
87138SOL    HW263312   2.235  12.927   3.414
87139SOL     OW63313  11.078   8.314   3.199
87139SOL    HW163314  11.063   8.252   3.129
87139SOL    HW263315  11.072   8.400   3.157
87140SOL     OW63316   2.748   1.003   5.580
87140SOL    HW163317   2.817   0.980   5.517
87140SOL    HW263318   2.670   1.017   5.526
87141SOL     OW63319   7.281  11.032   2.153
87141SOL    HW163320   7.240  10.996   2.231
87141SOL    HW263321   7.367  11.063   2.183
87142SOL     OW63322   2.388  12.378   7.703
87142SOL    HW163323   2.319  12.321   7.670
87142SOL    HW263324   2.440  12.401   7.626
87143SOL     OW63325   4.851   9.738   3.265
87143SOL    HW163326   4.811   9.667   3.214
87143SOL    HW263327   4.793   9.813   3.251
87144SOL     OW63328  11.735   0.676   8.618
87144SOL    HW163329  11.734   0.770   8.597
87144SOL    HW263330  11.828   0.656   8.633
87145SOL     OW63331  13.647  11.560  13.782
87145SOL    HW163332  13.562  11.539  13.742
87145SOL    HW263333  13.663  11.488  13.843
87146SOL     OW63334   6.841  10.623   3.709
87146SOL    HW163335   6.909  10.691   3.710
87146SOL    HW263336   6.876  10.554   3.766
87147SOL     OW63337   4.218   5.022  12.730
87147SOL    HW163338   4.128   5.002  12.755
87147SOL    HW263339   4.270   4.953  12.769
87148SOL     OW63340   6.100  11.332   0.571
87148SOL    HW163341   6.191  11.341   0.597
87148SOL    HW263342   6.086  11.401   0.505
87149SOL     OW63343   0.304  14.120   7.727
87149SOL    HW163344   0.339  14.154   7.810
87149SOL    HW263345   0.308  14.195   7.667
87150SOL     OW63346   7.238  10.450  12.389
87150SOL    HW163347   7.214  10.459  12.481
87150SOL    HW263348   7.310  10.387  12.389
87151SOL     OW63349   5.511   3.363   0.881
87151SOL    HW163350   5.526   3.450   0.918
87151SOL    HW263351   5.418   3.364   0.855
87152SOL     OW63352  13.686   8.968  12.215
87152SOL    HW163353  13.637   9.036  12.261
87152SOL    HW263354  13.636   8.951  12.135
87153SOL     OW63355   3.246   5.177   2.653
87153SOL    HW163356   3.309   5.139   2.592
87153SOL    HW263357   3.298   5.200   2.730
87154SOL     OW63358   9.172   7.278   0.676
87154SOL    HW163359   9.249   7.316   0.720
87154SOL    HW263360   9.099   7.335   0.702
87155SOL     OW63361  11.603   6.568   1.121
87155SOL    HW163362  11.680   6.598   1.170
87155SOL    HW263363  11.614   6.606   1.034
87156SOL     OW63364  14.755   2.105   7.945
87156SOL    HW163365  14.813   2.179   7.928
87156SOL    HW263366  14.784   2.071   8.029
87157SOL     OW63367  12.620   6.394   6.658
87157SOL    HW163368  12.588   6.482   6.675
87157SOL    HW263369  12.543   6.338   6.662
87158SOL     OW63370   4.230  10.024  11.375
87158SOL    HW163371   4.145   9.982  11.389
87158SOL    HW263372   4.216  10.115  11.400
87159SOL     OW63373  10.048   6.695   7.357
87159SOL    HW163374   9.978   6.633   7.341
87159SOL    HW263375  10.080   6.719   7.270
87160SOL     OW63376   8.314   7.908   2.496
87160SOL    HW163377   8.321   7.968   2.571
87160SOL    HW263378   8.307   7.821   2.536
87161SOL     OW63379  14.740   2.337   6.347
87161SOL    HW163380  14.745   2.399   6.420
87161SOL    HW263381  14.798   2.373   6.280
87162SOL     OW63382   3.217   7.301   7.000
87162SOL    HW163383   3.217   7.287   6.905
87162SOL    HW263384   3.171   7.384   7.012
87163SOL     OW63385  10.256   0.480  10.477
87163SOL    HW163386  10.216   0.553  10.430
87163SOL    HW263387  10.307   0.521  10.547
87164SOL     OW63388   1.783   8.590   0.285
87164SOL    HW163389   1.811   8.653   0.350
87164SOL    HW263390   1.822   8.507   0.312
87165SOL     OW63391   3.543   9.643  10.538
87165SOL    HW163392   3.526   9.709  10.606
87165SOL    HW263393   3.479   9.574  10.556
87166SOL     OW63394  10.769   0.285   1.149
87166SOL    HW163395  10.831   0.228   1.103
87166SOL    HW263396  10.796   0.374   1.125
87167SOL     OW63397  12.019   0.315   0.609
87167SOL    HW163398  11.996   0.223   0.623
87167SOL    HW263399  11.946   0.350   0.558
87168SOL     OW63400  10.984   0.210   4.897
87168SOL    HW163401  11.017   0.245   4.979
87168SOL    HW263402  10.890   0.226   4.900
87169SOL     OW63403  14.565   6.213  11.436
87169SOL    HW163404  14.609   6.163  11.505
87169SOL    HW263405  14.532   6.291  11.480
87170SOL     OW63406   5.607  11.674  10.122
87170SOL    HW163407   5.548  11.624  10.065
87170SOL    HW263408   5.627  11.614  10.194
87171SOL     OW63409  10.113   9.268   5.119
87171SOL    HW163410  10.145   9.346   5.164
87171SOL    HW263411  10.105   9.202   5.187
87172SOL     OW63412   5.411   5.653   0.899
87172SOL    HW163413   5.461   5.707   0.838
87172SOL    HW263414   5.329   5.635   0.852
87173SOL     OW63415   6.166   4.998   8.854
87173SOL    HW163416   6.170   4.922   8.912
87173SOL    HW263417   6.210   4.970   8.774
87174SOL     OW63418   7.389   0.614  13.275
87174SOL    HW163419   7.469   0.563  13.263
87174SOL    HW263420   7.322   0.549  13.300
87175SOL     OW63421   8.802   2.199   3.930
87175SOL    HW163422   8.754   2.280   3.915
87175SOL    HW263423   8.760   2.159   4.006
87176SOL     OW63424   7.074   4.624   0.557
87176SOL    HW163425   6.990   4.664   0.581
87176SOL    HW263426   7.129   4.698   0.529
87177SOL     OW63427   1.831  12.663   6.360
87177SOL    HW163428   1.876  12.740   6.326
87177SOL    HW263429   1.771  12.697   6.425
87178SOL     OW63430   4.151  12.138   4.336
87178SOL    HW163431   4.177  12.073   4.401
87178SOL    HW263432   4.234  12.169   4.299
87179SOL     OW63433   6.608   9.462   2.648
87179SOL    HW163434   6.608   9.558   2.645
87179SOL    HW263435   6.697   9.437   2.622
87180SOL     OW63436   0.500   4.901  10.748
87180SOL    HW163437   0.533   4.823  10.703
87180SOL    HW263438   0.405   4.895  10.737
87181SOL     OW63439  10.285   0.017  10.007
87181SOL    HW163440  10.341   0.067  10.066
87181SOL    HW263441  10.282   0.069   9.927
87182SOL     OW63442   0.915   7.502  12.844
87182SOL    HW163443   0.865   7.550  12.777
87182SOL    HW263444   0.927   7.565  12.914
87183SOL     OW63445   5.166   0.861  12.973
87183SOL    HW163446   5.241   0.801  12.972
87183SOL    HW263447   5.135   0.859  13.064
87184SOL     OW63448  11.876   6.940  13.922
87184SOL    HW163449  11.794   6.978  13.954
87184SOL    HW263450  11.898   6.873  13.987
87185SOL     OW63451   0.294   7.903  13.283
87185SOL    HW163452   0.202   7.884  13.297
87185SOL    HW263453   0.339   7.863  13.357
87186SOL     OW63454   4.352  11.940   8.172
87186SOL    HW163455   4.412  11.913   8.102
87186SOL    HW263456   4.281  11.876   8.168
87187SOL     OW63457  12.339  12.586  11.358
87187SOL    HW163458  12.282  12.514  11.332
87187SOL    HW263459  12.407  12.588  11.291
87188SOL     OW63460  12.292   0.236  12.677
87188SOL    HW163461  12.386   0.229  12.656
87188SOL    HW263462  12.289   0.286  12.758
87189SOL     OW63463   4.397  10.120  10.551
87189SOL    HW163464   4.352  10.086  10.474
87189SOL    HW263465   4.341  10.189  10.584
87190SOL     OW63466  14.387   7.889   1.693
87190SOL    HW163467  14.333   7.965   1.672
87190SOL    HW263468  14.358   7.821   1.633
87191SOL     OW63469   0.812   6.687   2.000
87191SOL    HW163470   0.777   6.598   2.004
87191SOL    HW263471   0.815   6.707   1.906
87192SOL     OW63472   7.319  12.275   9.280
87192SOL    HW163473   7.304  12.320   9.196
87192SOL    HW263474   7.263  12.198   9.276
87193SOL     OW63475   0.697  13.148   9.845
87193SOL    HW163476   0.656  13.174   9.928
87193SOL    HW263477   0.655  13.064   9.823
87194SOL     OW63478   6.366  13.220  13.895
87194SOL    HW163479   6.315  13.300  13.912
87194SOL    HW263480   6.381  13.222  13.800
87195SOL     OW63481   8.795  13.205  10.152
87195SOL    HW163482   8.847  13.225  10.074
87195SOL    HW263483   8.725  13.148  10.120
87196SOL     OW63484   9.040   1.598   9.308
87196SOL    HW163485   9.099   1.523   9.315
87196SOL    HW263486   9.024   1.608   9.215
87197SOL     OW63487   9.011   1.705   4.813
87197SOL    HW163488   9.028   1.752   4.732
87197SOL    HW263489   8.925   1.735   4.842
87198SOL     OW63490  11.825   7.134   6.964
87198SOL    HW163491  11.908   7.145   6.917
87198SOL    HW263492  11.812   7.217   7.009
87199SOL     OW63493   4.108   0.990  11.728
87199SOL    HW163494   4.024   0.945  11.715
87199SOL    HW263495   4.143   0.952  11.808
87200SOL     OW63496   5.722  13.027   0.351
87200SOL    HW163497   5.788  13.003   0.286
87200SOL    HW263498   5.771  13.074   0.419
87201SOL     OW63499  10.768  13.075   6.880
87201SOL    HW163500  10.822  13.040   6.809
87201SOL    HW263501  10.719  13.147   6.839
87202SOL     OW63502   1.270  12.201  12.931
87202SOL    HW163503   1.293  12.173  12.842
87202SOL    HW263504   1.307  12.134  12.988
87203SOL     OW63505   2.967  13.683   5.253
87203SOL    HW163506   2.930  13.600   5.283
87203SOL    HW263507   2.924  13.700   5.169
87204SOL     OW63508  14.361  11.964   7.659
87204SOL    HW163509  14.440  11.994   7.704
87204SOL    HW263510  14.320  12.045   7.627
87205SOL     OW63511   8.598   0.023   6.832
87205SOL    HW163512   8.646   0.048   6.912
87205SOL    HW263513   8.649   0.061   6.761
87206SOL     OW63514  10.487   4.928   2.934
87206SOL    HW163515  10.421   4.963   2.994
87206SOL    HW263516  10.453   4.843   2.908
87207SOL     OW63517   8.199   4.752  11.307
87207SOL    HW163518   8.282   4.730  11.263
87207SOL    HW263519   8.224   4.816  11.373
87208SOL     OW63520   3.633  12.763   9.124
87208SOL    HW163521   3.609  12.822   9.052
87208SOL    HW263522   3.573  12.786   9.195
87209SOL     OW63523   4.837   7.341   7.868
87209SOL    HW163524   4.885   7.273   7.821
87209SOL    HW263525   4.806   7.298   7.948
87210SOL     OW63526   7.793   8.290   4.139
87210SOL    HW163527   7.868   8.332   4.096
87210SOL    HW263528   7.796   8.200   4.109
87211SOL     OW63529   1.853  12.971  10.821
87211SOL    HW163530   1.880  13.012  10.903
87211SOL    HW263531   1.789  13.032  10.784
87212SOL     OW63532   2.748  13.317   7.487
87212SOL    HW163533   2.721  13.228   7.510
87212SOL    HW263534   2.680  13.347   7.427
87213SOL     OW63535   1.535   4.777   3.244
87213SOL    HW163536   1.621   4.776   3.202
87213SOL    HW263537   1.542   4.846   3.310
87214SOL     OW63538   4.682   1.395   9.606
87214SOL    HW163539   4.714   1.433   9.688
87214SOL    HW263540   4.714   1.305   9.608
87215SOL     OW63541   7.284  13.775   3.210
87215SOL    HW163542   7.324  13.843   3.156
87215SOL    HW263543   7.289  13.809   3.299
87216SOL     OW63544   1.821   8.537  12.656
87216SOL    HW163545   1.802   8.461  12.601
87216SOL    HW263546   1.913   8.527  12.681
87217SOL     OW63547   2.196   8.511   4.914
87217SOL    HW163548   2.281   8.534   4.876
87217SOL    HW263549   2.215   8.436   4.971
87218SOL     OW63550  14.290   1.078   3.441
87218SOL    HW163551  14.221   1.130   3.400
87218SOL    HW263552  14.313   1.127   3.520
87219SOL     OW63553   3.194  11.291  11.653
87219SOL    HW163554   3.261  11.322  11.715
87219SOL    HW263555   3.190  11.359  11.586
87220SOL     OW63556   4.915  14.093   0.528
87220SOL    HW163557   4.960  14.170   0.495
87220SOL    HW263558   4.912  14.033   0.453
87221SOL     OW63559   4.270   5.736  10.538
87221SOL    HW163560   4.217   5.689  10.602
87221SOL    HW263561   4.330   5.670  10.503
87222SOL     OW63562  13.350  14.640   2.048
87222SOL    HW163563  13.273  14.660   1.995
87222SOL    HW263564  13.332  14.553   2.085
87223SOL     OW63565   8.647   3.390   6.589
87223SOL    HW163566   8.722   3.386   6.530
87223SOL    HW263567   8.572   3.407   6.531
87224SOL     OW63568   0.293   1.178   1.627
87224SOL    HW163569   0.366   1.118   1.640
87224SOL    HW263570   0.288   1.189   1.532
87225SOL     OW63571   4.215   0.164   8.502
87225SOL    HW163572   4.180   0.237   8.451
87225SOL    HW263573   4.140   0.104   8.511
87226SOL     OW63574  12.030   3.740   2.155
87226SOL    HW163575  12.074   3.770   2.234
87226SOL    HW263576  12.048   3.647   2.150
87227SOL     OW63577   0.229   3.122   8.477
87227SOL    HW163578   0.143   3.131   8.518
87227SOL    HW263579   0.291   3.152   8.543
87228SOL     OW63580  14.735  14.585   1.162
87228SOL    HW163581  14.713  14.657   1.222
87228SOL    HW263582  14.788  14.625   1.094
87229SOL     OW63583   4.519   3.314  10.797
87229SOL    HW163584   4.578   3.352  10.731
87229SOL    HW263585   4.541   3.221  10.798
87230SOL     OW63586  14.230   6.294   0.757
87230SOL    HW163587  14.220   6.285   0.852
87230SOL    HW263588  14.141   6.298   0.723
87231SOL     OW63589   4.107   5.902   5.706
87231SOL    HW163590   4.103   5.883   5.612
87231SOL    HW263591   4.017   5.924   5.730
87232SOL     OW63592   7.980   5.077   0.840
87232SOL    HW163593   8.024   5.077   0.925
87232SOL    HW263594   7.977   5.169   0.814
87233SOL     OW63595  12.407   0.674   0.637
87233SOL    HW163596  12.457   0.655   0.558
87233SOL    HW263597  12.331   0.616   0.631
87234SOL     OW63598   2.477   8.033   4.278
87234SOL    HW163599   2.465   8.053   4.371
87234SOL    HW263600   2.541   7.962   4.277
87235SOL     OW63601   5.802   6.903   4.334
87235SOL    HW163602   5.835   6.955   4.407
87235SOL    HW263603   5.771   6.967   4.270
87236SOL     OW63604   8.850   0.290  10.616
87236SOL    HW163605   8.903   0.364  10.588
87236SOL    HW263606   8.861   0.285  10.711
87237SOL     OW63607   2.623   0.463   9.121
87237SOL    HW163608   2.710   0.465   9.081
87237SOL    HW263609   2.571   0.407   9.063
87238SOL     OW63610   8.016   0.771  10.137
87238SOL    HW163611   8.032   0.788  10.230
87238SOL    HW263612   7.996   0.857  10.100
87239SOL     OW63613   5.304   3.892   5.960
87239SOL    HW163614   5.299   3.864   6.052
87239SOL    HW263615   5.336   3.815   5.913
87240SOL     OW63616   2.336   2.706   6.588
87240SOL    HW163617   2.251   2.674   6.619
87240SOL    HW263618   2.315   2.764   6.515
87241SOL     OW63619   7.349   5.552  12.790
87241SOL    HW163620   7.271   5.577  12.839
87241SOL    HW263621   7.338   5.458  12.774
87242SOL     OW63622   3.451   5.749   1.919
87242SOL    HW163623   3.361   5.754   1.886
87242SOL    HW263624   3.494   5.828   1.883
87243SOL     OW63625   0.694   6.724  14.707
87243SOL    HW163626   0.617   6.684  14.748
87243SOL    HW263627   0.660   6.802  14.663
87244SOL     OW63628   9.811   4.350   3.525
87244SOL    HW163629   9.785   4.392   3.607
87244SOL    HW263630   9.792   4.416   3.458
87245SOL     OW63631  10.662   3.063  14.399
87245SOL    HW163632  10.620   3.138  14.358
87245SOL    HW263633  10.657   2.993  14.334
87246SOL     OW63634  10.596   6.977   7.506
87246SOL    HW163635  10.531   7.014   7.566
87246SOL    HW263636  10.544   6.942   7.433
87247SOL     OW63637  14.832   4.561   2.484
87247SOL    HW163638  14.784   4.550   2.567
87247SOL    HW263639   0.044   4.604   2.509
87248SOL     OW63640  10.290   7.148   9.469
87248SOL    HW163641  10.288   7.216   9.536
87248SOL    HW263642  10.272   7.067   9.516
87249SOL     OW63643  12.254  10.786   4.139
87249SOL    HW163644  12.169  10.768   4.179
87249SOL    HW263645  12.257  10.882   4.133
87250SOL     OW63646  14.560  11.270   0.526
87250SOL    HW163647  14.618  11.333   0.568
87250SOL    HW263648  14.472  11.297   0.551
87251SOL     OW63649   2.463   5.401   8.243
87251SOL    HW163650   2.550   5.364   8.237
87251SOL    HW263651   2.444   5.403   8.337
87252SOL     OW63652   3.112   3.411   3.781
87252SOL    HW163653   3.170   3.359   3.724
87252SOL    HW263654   3.121   3.501   3.750
87253SOL     OW63655   8.723   4.876   6.558
87253SOL    HW163656   8.646   4.875   6.614
87253SOL    HW263657   8.771   4.797   6.582
87254SOL     OW63658   4.499   6.876   8.663
87254SOL    HW163659   4.445   6.863   8.741
87254SOL    HW263660   4.527   6.967   8.668
87255SOL     OW63661  12.497   5.558  10.893
87255SOL    HW163662  12.589   5.581  10.903
87255SOL    HW263663  12.455   5.591  10.973
87256SOL     OW63664   0.530   9.320   9.307
87256SOL    HW163665   0.461   9.276   9.356
87256SOL    HW263666   0.592   9.350   9.375
87257SOL     OW63667   9.486  10.625   4.879
87257SOL    HW163668   9.568  10.610   4.926
87257SOL    HW263669   9.485  10.558   4.810
87258SOL     OW63670  11.853  10.703  14.465
87258SOL    HW163671  11.876  10.702  14.373
87258SOL    HW263672  11.759  10.720  14.467
87259SOL     OW63673  12.400  11.023   0.481
87259SOL    HW163674  12.473  10.985   0.431
87259SOL    HW263675  12.322  10.998   0.432
87260SOL     OW63676  12.502   9.907   8.275
87260SOL    HW163677  12.459   9.930   8.193
87260SOL    HW263678  12.594   9.893   8.250
87261SOL     OW63679   6.648  13.006  11.180
87261SOL    HW163680   6.619  12.915  11.189
87261SOL    HW263681   6.569  13.054  11.155
87262SOL     OW63682   4.956  11.036   7.688
87262SOL    HW163683   4.967  10.941   7.690
87262SOL    HW263684   5.012  11.068   7.759
87263SOL     OW63685   4.987  14.348   4.407
87263SOL    HW163686   5.044  14.384   4.339
87263SOL    HW263687   4.898  14.370   4.377
87264SOL     OW63688   0.720  13.060   2.475
87264SOL    HW163689   0.716  12.990   2.410
87264SOL    HW263690   0.787  13.120   2.443
87265SOL     OW63691   1.686   0.726   5.637
87265SOL    HW163692   1.666   0.812   5.601
87265SOL    HW263693   1.600   0.683   5.646
87266SOL     OW63694   1.544   6.356  14.227
87266SOL    HW163695   1.560   6.410  14.150
87266SOL    HW263696   1.500   6.414  14.288
87267SOL     OW63697   2.068   6.271   5.338
87267SOL    HW163698   2.046   6.180   5.357
87267SOL    HW263699   2.014   6.322   5.397
87268SOL     OW63700  13.453   7.767   8.267
87268SOL    HW163701  13.456   7.696   8.331
87268SOL    HW263702  13.360   7.775   8.244
87269SOL     OW63703  12.808   4.723   1.390
87269SOL    HW163704  12.735   4.662   1.377
87269SOL    HW263705  12.843   4.737   1.302
87270SOL     OW63706  13.535  11.531   4.198
87270SOL    HW163707  13.531  11.477   4.277
87270SOL    HW263708  13.571  11.614   4.228
87271SOL     OW63709  12.759  14.438   3.099
87271SOL    HW163710  12.711  14.488   3.033
87271SOL    HW263711  12.694  14.421   3.168
87272SOL     OW63712  10.364   7.368   0.732
87272SOL    HW163713  10.330   7.394   0.647
87272SOL    HW263714  10.291   7.321   0.774
87273SOL     OW63715  11.029  13.776  13.822
87273SOL    HW163716  11.087  13.750  13.750
87273SOL    HW263717  11.025  13.699  13.879
87274SOL     OW63718   6.080   1.601   9.252
87274SOL    HW163719   6.156   1.584   9.196
87274SOL    HW263720   6.117   1.631   9.335
87275SOL     OW63721   8.533   4.631   8.596
87275SOL    HW163722   8.553   4.570   8.667
87275SOL    HW263723   8.606   4.621   8.534
87276SOL     OW63724   5.159   5.368  13.483
87276SOL    HW163725   5.169   5.461  13.465
87276SOL    HW263726   5.161   5.326  13.397
87277SOL     OW63727   5.934   3.236   2.912
87277SOL    HW163728   5.985   3.159   2.887
87277SOL    HW263729   5.878   3.253   2.836
87278SOL     OW63730   3.027  12.394  14.368
87278SOL    HW163731   3.080  12.314  14.367
87278SOL    HW263732   2.944  12.367  14.409
87279SOL     OW63733   0.675   3.344  12.160
87279SOL    HW163734   0.742   3.289  12.201
87279SOL    HW263735   0.611   3.359  12.229
87280SOL     OW63736  11.802   1.668  11.553
87280SOL    HW163737  11.869   1.704  11.612
87280SOL    HW263738  11.732   1.734  11.555
87281SOL     OW63739  10.287  13.866   7.696
87281SOL    HW163740  10.194  13.883   7.711
87281SOL    HW263741  10.330  13.906   7.772
87282SOL     OW63742  11.931   8.269   4.540
87282SOL    HW163743  11.924   8.179   4.571
87282SOL    HW263744  11.909   8.264   4.447
87283SOL     OW63745   0.360   0.975   6.148
87283SOL    HW163746   0.350   0.951   6.240
87283SOL    HW263747   0.275   0.955   6.108
87284SOL     OW63748   1.974   6.039   5.436
87284SOL    HW163749   1.957   5.946   5.421
87284SOL    HW263750   1.890   6.074   5.465
87285SOL     OW63751  11.782   0.782   5.293
87285SOL    HW163752  11.796   0.707   5.235
87285SOL    HW263753  11.738   0.847   5.238
87286SOL     OW63754  14.699   3.673   2.618
87286SOL    HW163755  14.715   3.732   2.692
87286SOL    HW263756  14.606   3.651   2.626
87287SOL     OW63757  13.085   1.238   0.921
87287SOL    HW163758  13.151   1.169   0.917
87287SOL    HW263759  13.005   1.197   0.887
87288SOL     OW63760   3.410  14.519   7.444
87288SOL    HW163761   3.366  14.556   7.520
87288SOL    HW263762   3.439  14.432   7.473
87289SOL     OW63763   1.691  14.731  12.678
87289SOL    HW163764   1.742  14.801  12.719
87289SOL    HW263765   1.612  14.724  12.731
87290SOL     OW63766   9.349   4.218  14.806
87290SOL    HW163767   9.302   4.163  14.868
87290SOL    HW263768   9.395   4.156  14.749
87291SOL     OW63769   0.722  12.266   4.653
87291SOL    HW163770   0.652  12.330   4.671
87291SOL    HW263771   0.736  12.272   4.558
87292SOL     OW63772   8.386  14.478   0.478
87292SOL    HW163773   8.336  14.459   0.399
87292SOL    HW263774   8.373  14.572   0.493
87293SOL     OW63775  13.049   2.483   5.162
87293SOL    HW163776  12.958   2.461   5.145
87293SOL    HW263777  13.099   2.427   5.103
87294SOL     OW63778   4.685   8.718  12.345
87294SOL    HW163779   4.693   8.702  12.439
87294SOL    HW263780   4.666   8.812  12.338
87295SOL     OW63781   3.487  12.595   1.324
87295SOL    HW163782   3.477  12.544   1.244
87295SOL    HW263783   3.405  12.580   1.373
87296SOL     OW63784   3.785   6.974   5.801
87296SOL    HW163785   3.780   6.935   5.714
87296SOL    HW263786   3.739   7.058   5.793
87297SOL     OW63787   5.484   6.650   9.544
87297SOL    HW163788   5.404   6.701   9.537
87297SOL    HW263789   5.538   6.680   9.471
87298SOL     OW63790   4.235   3.859   8.259
87298SOL    HW163791   4.307   3.893   8.312
87298SOL    HW263792   4.156   3.888   8.304
87299SOL     OW63793   3.707   8.867   0.901
87299SOL    HW163794   3.747   8.820   0.974
87299SOL    HW263795   3.702   8.801   0.831
87300SOL     OW63796   4.630   5.154   8.693
87300SOL    HW163797   4.660   5.085   8.634
87300SOL    HW263798   4.608   5.227   8.636
87301SOL     OW63799  14.309  14.694   9.602
87301SOL    HW163800  14.289  14.670   9.511
87301SOL    HW263801  14.314  14.610   9.648
87302SOL     OW63802  14.354   8.611   9.566
87302SOL    HW163803  14.445   8.642   9.574
87302SOL    HW263804  14.339   8.608   9.471
87303SOL     OW63805  11.228   1.413   0.627
87303SOL    HW163806  11.150   1.403   0.572
87303SOL    HW263807  11.235   1.508   0.641
87304SOL     OW63808   8.110   6.050  13.134
87304SOL    HW163809   8.067   6.117  13.186
87304SOL    HW263810   8.040   5.990  13.109
87305SOL     OW63811  13.750  12.298   5.603
87305SOL    HW163812  13.826  12.286   5.547
87305SOL    HW263813  13.784  12.295   5.693
87306SOL     OW63814   6.583   6.788  11.751
87306SOL    HW163815   6.501   6.833  11.773
87306SOL    HW263816   6.640   6.805  11.826
87307SOL     OW63817   8.811   8.373   2.061
87307SOL    HW163818   8.786   8.315   1.989
87307SOL    HW263819   8.905   8.389   2.047
87308SOL     OW63820   4.347  14.056   8.704
87308SOL    HW163821   4.272  14.070   8.646
87308SOL    HW263822   4.364  14.142   8.742
87309SOL     OW63823  13.422   4.801  13.353
87309SOL    HW163824  13.506   4.784  13.396
87309SOL    HW263825  13.395   4.886  13.386
87310SOL     OW63826  14.014   1.090  10.877
87310SOL    HW163827  14.014   1.185  10.872
87310SOL    HW263828  14.080   1.070  10.944
87311SOL     OW63829   1.635  13.760   6.695
87311SOL    HW163830   1.640  13.665   6.706
87311SOL    HW263831   1.580  13.774   6.618
87312SOL     OW63832  10.814   3.212   3.904
87312SOL    HW163833  10.896   3.174   3.872
87312SOL    HW263834  10.783   3.267   3.832
87313SOL     OW63835   0.294   0.982   3.092
87313SOL    HW163836   0.221   0.973   3.030
87313SOL    HW263837   0.367   0.940   3.047
87314SOL     OW63838  14.181  12.620   1.189
87314SOL    HW163839  14.157  12.528   1.200
87314SOL    HW263840  14.269  12.627   1.225
87315SOL     OW63841   8.993   9.644   3.657
87315SOL    HW163842   8.980   9.561   3.610
87315SOL    HW263843   8.912   9.693   3.642
87316SOL     OW63844   2.276   7.885   5.113
87316SOL    HW163845   2.210   7.826   5.151
87316SOL    HW263846   2.353   7.830   5.099
87317SOL     OW63847   3.654   5.390   7.057
87317SOL    HW163848   3.600   5.439   6.995
87317SOL    HW263849   3.743   5.402   7.026
87318SOL     OW63850  12.107  14.854   5.081
87318SOL    HW163851  12.066   0.027   5.157
87318SOL    HW263852  12.190  14.820   5.114
87319SOL     OW63853  14.730  10.679   3.787
87319SOL    HW163854  14.751  10.770   3.809
87319SOL    HW263855  14.755  10.670   3.695
87320SOL     OW63856   3.382  13.752   5.377
87320SOL    HW163857   3.307  13.799   5.341
87320SOL    HW263858   3.357  13.660   5.373
87321SOL     OW63859  11.712   7.271   6.603
87321SOL    HW163860  11.709   7.327   6.681
87321SOL    HW263861  11.627   7.226   6.603
87322SOL     OW63862  10.138   7.192   6.907
87322SOL    HW163863  10.053   7.186   6.951
87322SOL    HW263864  10.117   7.185   6.814
87323SOL     OW63865   3.197   3.159  10.988
87323SOL    HW163866   3.163   3.248  11.001
87323SOL    HW263867   3.132   3.117  10.932
87324SOL     OW63868   2.279  13.807   8.043
87324SOL    HW163869   2.226  13.733   8.014
87324SOL    HW263870   2.221  13.883   8.031
87325SOL     OW63871   5.673  13.454   4.441
87325SOL    HW163872   5.769  13.448   4.438
87325SOL    HW263873   5.654  13.494   4.526
87326SOL     OW63874  11.131  11.772  11.733
87326SOL    HW163875  11.050  11.807  11.698
87326SOL    HW263876  11.150  11.695  11.679
87327SOL     OW63877   0.131   1.948   9.984
87327SOL    HW163878   0.175   1.973   9.903
87327SOL    HW263879   0.108   1.856   9.971
87328SOL     OW63880   0.498   8.227   3.116
87328SOL    HW163881   0.515   8.294   3.182
87328SOL    HW263882   0.580   8.178   3.110
87329SOL     OW63883  13.208   3.023  10.253
87329SOL    HW163884  13.129   3.047  10.204
87329SOL    HW263885  13.177   2.959  10.318
87330SOL     OW63886   3.107   6.106  10.437
87330SOL    HW163887   3.110   6.198  10.410
87330SOL    HW263888   3.154   6.103  10.520
87331SOL     OW63889  13.619   5.531   3.158
87331SOL    HW163890  13.542   5.560   3.207
87331SOL    HW263891  13.640   5.605   3.101
87332SOL     OW63892   7.055   3.089   2.226
87332SOL    HW163893   7.064   3.038   2.306
87332SOL    HW263894   7.139   3.134   2.216
87333SOL     OW63895   7.016  10.002   7.725
87333SOL    HW163896   7.076   9.980   7.655
87333SOL    HW263897   7.009  10.098   7.723
87334SOL     OW63898   8.447   3.824   5.009
87334SOL    HW163899   8.496   3.904   5.029
87334SOL    HW263900   8.418   3.835   4.918
87335SOL     OW63901  12.497   7.218   7.139
87335SOL    HW163902  12.489   7.217   7.234
87335SOL    HW263903  12.457   7.136   7.111
87336SOL     OW63904   4.845  14.651  10.543
87336SOL    HW163905   4.839  14.679  10.451
87336SOL    HW263906   4.788  14.712  10.590
87337SOL     OW63907  11.072  13.220   1.299
87337SOL    HW163908  11.120  13.173   1.367
87337SOL    HW263909  10.986  13.238   1.338
87338SOL     OW63910   0.167  14.058  11.723
87338SOL    HW163911   0.092  14.114  11.742
87338SOL    HW263912   0.149  13.977  11.770
87339SOL     OW63913   0.944   6.704   9.696
87339SOL    HW163914   0.967   6.615   9.670
87339SOL    HW263915   1.015   6.758   9.661
87340SOL     OW63916   4.558  10.295   2.703
87340SOL    HW163917   4.582  10.284   2.611
87340SOL    HW263918   4.462  10.297   2.702
87341SOL     OW63919  14.050   2.095   5.782
87341SOL    HW163920  14.122   2.068   5.837
87341SOL    HW263921  13.990   2.142   5.840
87342SOL     OW63922   5.254   2.735  11.199
87342SOL    HW163923   5.161   2.732  11.217
87342SOL    HW263924   5.280   2.644  11.187
87343SOL     OW63925   5.737   6.055   1.426
87343SOL    HW163926   5.664   6.115   1.414
87343SOL    HW263927   5.707   5.972   1.388
87344SOL     OW63928   2.825  12.905   5.632
87344SOL    HW163929   2.791  12.995   5.638
87344SOL    HW263930   2.757  12.857   5.585
87345SOL     OW63931   1.496   9.283   8.276
87345SOL    HW163932   1.433   9.241   8.218
87345SOL    HW263933   1.444   9.314   8.350
87346SOL     OW63934   7.209   2.140   1.978
87346SOL    HW163935   7.212   2.170   2.069
87346SOL    HW263936   7.188   2.218   1.927
87347SOL     OW63937   9.412   5.580   2.552
87347SOL    HW163938   9.403   5.520   2.626
87347SOL    HW263939   9.506   5.599   2.548
87348SOL     OW63940  14.828   6.913   9.451
87348SOL    HW163941  14.753   6.860   9.479
87348SOL    HW263942   0.031   6.852   9.445
87349SOL     OW63943   2.326   8.253  12.843
87349SOL    HW163944   2.309   8.345  12.821
87349SOL    HW263945   2.421   8.244  12.838
87350SOL     OW63946   3.528  10.023   1.752
87350SOL    HW163947   3.589  10.075   1.700
87350SOL    HW263948   3.486  10.086   1.810
87351SOL     OW63949   0.872   8.030   5.472
87351SOL    HW163950   0.858   7.949   5.521
87351SOL    HW263951   0.835   8.098   5.527
87352SOL     OW63952   8.806  10.719   2.602
87352SOL    HW163953   8.746  10.726   2.676
87352SOL    HW263954   8.886  10.683   2.640
87353SOL     OW63955   5.136  10.559   6.799
87353SOL    HW163956   5.081  10.621   6.848
87353SOL    HW263957   5.203  10.613   6.759
87354SOL     OW63958   3.439  13.570  13.132
87354SOL    HW163959   3.446  13.490  13.183
87354SOL    HW263960   3.358  13.559  13.082
87355SOL     OW63961   3.624  11.036   7.525
87355SOL    HW163962   3.556  11.049   7.459
87355SOL    HW263963   3.576  11.014   7.605
87356SOL     OW63964   4.574   6.884   1.525
87356SOL    HW163965   4.572   6.897   1.430
87356SOL    HW263966   4.655   6.835   1.541
87357SOL     OW63967   5.261  12.264   2.664
87357SOL    HW163968   5.276  12.308   2.580
87357SOL    HW263969   5.197  12.196   2.644
87358SOL     OW63970  11.301  12.645   3.907
87358SOL    HW163971  11.277  12.641   3.815
87358SOL    HW263972  11.334  12.734   3.920
87359SOL     OW63973  10.826  14.034   7.068
87359SOL    HW163974  10.770  14.021   7.144
87359SOL    HW263975  10.905  14.074   7.104
87360SOL     OW63976   3.815   8.775  12.010
87360SOL    HW163977   3.855   8.857  12.042
87360SOL    HW263978   3.822   8.781  11.915
87361SOL     OW63979   0.987  10.401  12.319
87361SOL    HW163980   1.053  10.464  12.289
87361SOL    HW263981   0.938  10.449  12.386
87362SOL     OW63982  11.715   3.668  12.231
87362SOL    HW163983  11.782   3.736  12.235
87362SOL    HW263984  11.762   3.587  12.249
87363SOL     OW63985   7.263   7.870  10.129
87363SOL    HW163986   7.318   7.938  10.168
87363SOL    HW263987   7.255   7.804  10.197
87364SOL     OW63988   1.061  13.081   7.660
87364SOL    HW163989   1.045  13.175   7.662
87364SOL    HW263990   0.975  13.041   7.671
87365SOL     OW63991   7.384   8.914   7.407
87365SOL    HW163992   7.430   8.881   7.330
87365SOL    HW263993   7.414   9.004   7.416
87366SOL     OW63994   2.330   6.969   2.867
87366SOL    HW163995   2.409   6.981   2.919
87366SOL    HW263996   2.326   7.045   2.810
87367SOL     OW63997   9.240  11.987  11.210
87367SOL    HW163998   9.238  12.061  11.271
87367SOL    HW263999   9.276  11.915  11.261
87368SOL     OW64000  13.911   5.307  14.798
87368SOL    HW164001  13.881   5.363  14.869
87368SOL    HW264002  13.885   5.353  14.718
87369SOL     OW64003   4.110   5.985   1.141
87369SOL    HW164004   4.174   6.055   1.127
87369SOL    HW264005   4.128   5.922   1.071
87370SOL     OW64006  14.220   9.626   9.588
87370SOL    HW164007  14.309   9.597   9.566
87370SOL    HW264008  14.178   9.641   9.504
87371SOL     OW64009  14.858  14.403   1.344
87371SOL    HW164010  14.818  14.442   1.422
87371SOL    HW264011  14.821  14.452   1.271
87372SOL     OW64012  14.557   3.682   6.376
87372SOL    HW164013  14.465   3.669   6.355
87372SOL    HW264014  14.568   3.777   6.379
87373SOL     OW64015   0.395  10.083  14.065
87373SOL    HW164016   0.477  10.038  14.044
87373SOL    HW264017   0.410  10.121  14.152
87374SOL     OW64018   2.804   5.115  12.771
87374SOL    HW164019   2.724   5.167  12.777
87374SOL    HW264020   2.815   5.079  12.860
87375SOL     OW64021  13.937  10.121   2.144
87375SOL    HW164022  13.946  10.099   2.237
87375SOL    HW264023  13.990  10.200   2.133
87376SOL     OW64024  11.069   6.336  13.294
87376SOL    HW164025  11.003   6.404  13.284
87376SOL    HW264026  11.042   6.267  13.234
87377SOL     OW64027   2.097   7.000   3.035
87377SOL    HW164028   2.150   6.949   2.973
87377SOL    HW264029   2.145   7.082   3.046
87378SOL     OW64030   0.404   2.611   8.390
87378SOL    HW164031   0.338   2.599   8.322
87378SOL    HW264032   0.386   2.698   8.427
87379SOL     OW64033   3.180   3.336   9.346
87379SOL    HW164034   3.163   3.319   9.439
87379SOL    HW264035   3.187   3.249   9.307
87380SOL     OW64036  11.344   9.711   1.674
87380SOL    HW164037  11.320   9.801   1.652
87380SOL    HW264038  11.261   9.668   1.694
87381SOL     OW64039   6.739  14.748   7.106
87381SOL    HW164040   6.735  14.840   7.081
87381SOL    HW264041   6.680  14.704   7.045
87382SOL     OW64042  13.224   9.448   0.021
87382SOL    HW164043  13.290   9.430   0.087
87382SOL    HW264044  13.262   9.414  14.809
87383SOL     OW64045   6.601  13.644   6.632
87383SOL    HW164046   6.546  13.712   6.594
87383SOL    HW264047   6.560  13.624   6.716
87384SOL     OW64048  14.096   4.368  14.419
87384SOL    HW164049  14.007   4.404  14.426
87384SOL    HW264050  14.084   4.283  14.378
87385SOL     OW64051  11.561   3.150   9.879
87385SOL    HW164052  11.582   3.191   9.795
87385SOL    HW264053  11.502   3.078   9.856
87386SOL     OW64054   1.232   0.786   3.055
87386SOL    HW164055   1.321   0.819   3.041
87386SOL    HW264056   1.232   0.699   3.016
87387SOL     OW64057  14.110  10.992   6.361
87387SOL    HW164058  14.039  10.952   6.410
87387SOL    HW264059  14.173  11.020   6.427
87388SOL     OW64060   2.376   1.060   3.023
87388SOL    HW164061   2.444   1.104   3.075
87388SOL    HW264062   2.379   0.969   3.052
87389SOL     OW64063   8.193   2.724  12.592
87389SOL    HW164064   8.267   2.697  12.538
87389SOL    HW264065   8.117   2.710  12.536
87390SOL     OW64066  10.771  14.274   8.079
87390SOL    HW164067  10.785  14.269   8.173
87390SOL    HW264068  10.856  14.255   8.040
87391SOL     OW64069  12.054   4.117   8.010
87391SOL    HW164070  12.094   4.031   8.016
87391SOL    HW264071  11.971   4.108   8.056
87392SOL     OW64072  14.102   5.761   3.632
87392SOL    HW164073  14.049   5.723   3.702
87392SOL    HW264074  14.138   5.841   3.671
87393SOL     OW64075   0.655   9.035   9.420
87393SOL    HW164076   0.662   8.947   9.456
87393SOL    HW264077   0.567   9.038   9.381
87394SOL     OW64078  12.944   9.695   9.832
87394SOL    HW164079  12.911   9.628   9.772
87394SOL    HW264080  13.029   9.663   9.861
87395SOL     OW64081   6.230   3.122  12.713
87395SOL    HW164082   6.247   3.029  12.727
87395SOL    HW264083   6.272   3.165  12.788
87396SOL     OW64084   1.895  10.345   5.209
87396SOL    HW164085   1.918  10.377   5.296
87396SOL    HW264086   1.963  10.380   5.152
87397SOL     OW64087  11.041  14.052   0.927
87397SOL    HW164088  11.077  14.134   0.961
87397SOL    HW264089  11.113  14.013   0.877
87398SOL     OW64090   4.981   7.557   2.027
87398SOL    HW164091   5.014   7.598   1.947
87398SOL    HW264092   4.896   7.522   2.002
87399SOL     OW64093   6.757   8.635  10.047
87399SOL    HW164094   6.794   8.587  10.122
87399SOL    HW264095   6.706   8.705  10.086
87400SOL     OW64096  10.182   0.768   5.922
87400SOL    HW164097  10.176   0.820   6.002
87400SOL    HW264098  10.137   0.821   5.856
87401SOL     OW64099   7.087   6.104   4.678
87401SOL    HW164100   7.099   6.010   4.665
87401SOL    HW264101   7.167   6.143   4.642
87402SOL     OW64102   7.245   9.254   8.595
87402SOL    HW164103   7.282   9.186   8.650
87402SOL    HW264104   7.298   9.332   8.614
87403SOL     OW64105   9.385   1.656  12.723
87403SOL    HW164106   9.456   1.593  12.706
87403SOL    HW264107   9.309   1.618  12.679
87404SOL     OW64108  14.749   3.218   3.656
87404SOL    HW164109  14.827   3.270   3.676
87404SOL    HW264110  14.688   3.238   3.727
87405SOL     OW64111   8.964   3.412   9.076
87405SOL    HW164112   9.037   3.411   9.014
87405SOL    HW264113   8.995   3.465   9.149
87406SOL     OW64114   9.296   6.712  11.776
87406SOL    HW164115   9.319   6.676  11.862
87406SOL    HW264116   9.379   6.716  11.729
87407SOL     OW64117   0.416  13.917   3.840
87407SOL    HW164118   0.359  13.994   3.842
87407SOL    HW264119   0.391  13.866   3.917
87408SOL     OW64120  14.536  14.157   5.650
87408SOL    HW164121  14.612  14.100   5.657
87408SOL    HW264122  14.518  14.161   5.556
87409SOL     OW64123  10.265   3.680   1.012
87409SOL    HW164124  10.224   3.755   1.056
87409SOL    HW264125  10.355   3.708   0.997
87410SOL     OW64126  10.324   5.965  13.470
87410SOL    HW164127  10.229   5.963  13.484
87410SOL    HW264128  10.357   6.022  13.539
87411SOL     OW64129   4.119   2.418   6.760
87411SOL    HW164130   4.185   2.428   6.829
87411SOL    HW264131   4.159   2.356   6.698
87412SOL     OW64132   3.094   7.372   9.950
87412SOL    HW164133   3.115   7.448  10.004
87412SOL    HW264134   3.156   7.376   9.878
87413SOL     OW64135   5.705  10.561   9.526
87413SOL    HW164136   5.622  10.524   9.496
87413SOL    HW264137   5.740  10.606   9.450
87414SOL     OW64138  10.580   9.096   4.039
87414SOL    HW164139  10.676   9.090   4.035
87414SOL    HW264140  10.557   9.039   4.113
87415SOL     OW64141  14.663   7.862   6.070
87415SOL    HW164142  14.724   7.789   6.060
87415SOL    HW264143  14.610   7.839   6.147
87416SOL     OW64144   1.875  11.734   2.573
87416SOL    HW164145   1.933  11.736   2.496
87416SOL    HW264146   1.862  11.640   2.590
87417SOL     OW64147   3.272  12.832   9.461
87417SOL    HW164148   3.184  12.802   9.438
87417SOL    HW264149   3.324  12.751   9.469
87418SOL     OW64150   8.057   5.532   6.027
87418SOL    HW164151   8.122   5.602   6.032
87418SOL    HW264152   7.983   5.563   6.078
87419SOL     OW64153  14.250   8.307   1.775
87419SOL    HW164154  14.213   8.395   1.781
87419SOL    HW264155  14.251   8.288   1.681
87420SOL     OW64156   4.954   4.263   0.590
87420SOL    HW164157   4.932   4.296   0.504
87420SOL    HW264158   4.980   4.340   0.640
87421SOL     OW64159   4.320   9.962  11.990
87421SOL    HW164160   4.406   9.988  11.956
87421SOL    HW264161   4.295  10.033  12.049
87422SOL     OW64162   1.990   3.277   2.284
87422SOL    HW164163   1.948   3.343   2.339
87422SOL    HW264164   1.955   3.193   2.315
87423SOL     OW64165   2.706  10.358  14.563
87423SOL    HW164166   2.635  10.295  14.570
87423SOL    HW264167   2.730  10.357  14.470
87424SOL     OW64168  13.973  14.502   5.196
87424SOL    HW164169  13.909  14.571   5.178
87424SOL    HW264170  13.922  14.421   5.196
87425SOL     OW64171   5.169  10.252   3.414
87425SOL    HW164172   5.094  10.232   3.470
87425SOL    HW264173   5.132  10.254   3.325
87426SOL     OW64174  11.006   3.706   3.768
87426SOL    HW164175  11.091   3.744   3.745
87426SOL    HW264176  11.027   3.619   3.802
87427SOL     OW64177   3.173   8.889   3.041
87427SOL    HW164178   3.259   8.925   3.018
87427SOL    HW264179   3.168   8.897   3.136
87428SOL     OW64180  10.388   1.096  14.063
87428SOL    HW164181  10.468   1.115  14.113
87428SOL    HW264182  10.319   1.100  14.129
87429SOL     OW64183   3.695  14.279   4.920
87429SOL    HW164184   3.675  14.372   4.914
87429SOL    HW264185   3.609  14.237   4.930
87430SOL     OW64186   7.572  14.504  11.834
87430SOL    HW164187   7.639  14.476  11.771
87430SOL    HW264188   7.583  14.445  11.908
87431SOL     OW64189   4.113  10.625  12.171
87431SOL    HW164190   4.100  10.702  12.226
87431SOL    HW264191   4.034  10.621  12.117
87432SOL     OW64192  13.880   9.481   8.898
87432SOL    HW164193  13.786   9.483   8.915
87432SOL    HW264194  13.894   9.545   8.827
87433SOL     OW64195   8.327   0.362  13.328
87433SOL    HW164196   8.340   0.281  13.279
87433SOL    HW264197   8.413   0.405  13.328
87434SOL     OW64198   3.204   1.573   4.390
87434SOL    HW164199   3.256   1.588   4.469
87434SOL    HW264200   3.259   1.515   4.336
87435SOL     OW64201   5.013   7.703   8.698
87435SOL    HW164202   4.972   7.656   8.625
87435SOL    HW264203   5.107   7.695   8.681
87436SOL     OW64204   4.312  10.824   0.971
87436SOL    HW164205   4.236  10.874   1.001
87436SOL    HW264206   4.311  10.833   0.876
87437SOL     OW64207   3.014  14.785   8.824
87437SOL    HW164208   3.100  14.807   8.859
87437SOL    HW264209   3.030  14.756   8.735
87438SOL     OW64210   5.506   3.317   8.221
87438SOL    HW164211   5.506   3.223   8.201
87438SOL    HW264212   5.575   3.353   8.166
87439SOL     OW64213   4.938  14.831   4.894
87439SOL    HW164214   4.956   0.032   4.956
87439SOL    HW264215   4.905   0.007   4.816
87440SOL     OW64216   7.359   3.318   3.885
87440SOL    HW164217   7.336   3.324   3.792
87440SOL    HW264218   7.283   3.275   3.926
87441SOL     OW64219   2.636   5.903   5.082
87441SOL    HW164220   2.709   5.928   5.026
87441SOL    HW264221   2.674   5.844   5.147
87442SOL     OW64222  12.258   5.493  12.057
87442SOL    HW164223  12.275   5.406  12.094
87442SOL    HW264224  12.272   5.554  12.129
87443SOL     OW64225  14.776  14.838   1.777
87443SOL    HW164226  14.691   0.002   1.748
87443SOL    HW264227  14.839   0.033   1.743
87444SOL     OW64228   2.643  13.103   9.093
87444SOL    HW164229   2.622  13.194   9.072
87444SOL    HW264230   2.616  13.053   9.017
87445SOL     OW64231  10.140   3.882   6.656
87445SOL    HW164232  10.187   3.860   6.736
87445SOL    HW264233  10.048   3.881   6.681
87446SOL     OW64234   2.836   3.032   6.370
87446SOL    HW164235   2.925   3.026   6.333
87446SOL    HW264236   2.817   3.126   6.368
87447SOL     OW64237   0.265   8.788   6.620
87447SOL    HW164238   0.273   8.775   6.714
87447SOL    HW264239   0.183   8.836   6.609
87448SOL     OW64240  10.771   9.461  12.750
87448SOL    HW164241  10.691   9.414  12.772
87448SOL    HW264242  10.765   9.475  12.656
87449SOL     OW64243   0.438   2.314   6.520
87449SOL    HW164244   0.431   2.384   6.454
87449SOL    HW264245   0.348   2.301   6.549
87450SOL     OW64246  12.667   9.534   6.083
87450SOL    HW164247  12.593   9.499   6.034
87450SOL    HW264248  12.728   9.460   6.092
87451SOL     OW64249   5.968   7.507   9.297
87451SOL    HW164250   5.996   7.416   9.308
87451SOL    HW264251   6.050   7.557   9.295
87452SOL     OW64252   6.936   3.208   0.198
87452SOL    HW164253   6.901   3.160   0.272
87452SOL    HW264254   6.912   3.157   0.121
87453SOL     OW64255  14.401   6.337  14.130
87453SOL    HW164256  14.364   6.366  14.214
87453SOL    HW264257  14.325   6.315  14.077
87454SOL     OW64258   1.233   5.670  10.141
87454SOL    HW164259   1.163   5.644  10.081
87454SOL    HW264260   1.311   5.675  10.085
87455SOL     OW64261  11.352   8.776   5.448
87455SOL    HW164262  11.444   8.802   5.455
87455SOL    HW264263  11.322   8.769   5.538
87456SOL     OW64264   6.009   1.885   9.299
87456SOL    HW164265   6.031   1.971   9.263
87456SOL    HW264266   6.067   1.876   9.375
87457SOL     OW64267   4.246   2.316   1.192
87457SOL    HW164268   4.308   2.244   1.195
87457SOL    HW264269   4.177   2.290   1.253
87458SOL     OW64270   2.725  11.397  12.943
87458SOL    HW164271   2.682  11.437  13.018
87458SOL    HW264272   2.810  11.440  12.937
87459SOL     OW64273   6.835   9.319   0.935
87459SOL    HW164274   6.845   9.261   0.860
87459SOL    HW264275   6.750   9.360   0.923
87460SOL     OW64276  12.655   2.684   5.134
87460SOL    HW164277  12.722   2.735   5.179
87460SOL    HW264278  12.584   2.676   5.197
87461SOL     OW64279  14.278   7.594   0.615
87461SOL    HW164280  14.350   7.657   0.602
87461SOL    HW264281  14.321   7.509   0.612
87462SOL     OW64282   2.767  11.666   0.712
87462SOL    HW164283   2.758  11.617   0.629
87462SOL    HW264284   2.721  11.748   0.696
87463SOL     OW64285   4.193  13.321   9.083
87463SOL    HW164286   4.212  13.241   9.036
87463SOL    HW264287   4.156  13.292   9.167
87464SOL     OW64288  13.371   5.302   3.304
87464SOL    HW164289  13.458   5.283   3.340
87464SOL    HW264290  13.364   5.397   3.309
87465SOL     OW64291  12.695   0.836  13.643
87465SOL    HW164292  12.653   0.906  13.592
87465SOL    HW264293  12.758   0.881  13.699
87466SOL     OW64294   4.560  12.295  14.041
87466SOL    HW164295   4.503  12.344  13.982
87466SOL    HW264296   4.524  12.311  14.128
87467SOL     OW64297  14.477   5.555   7.259
87467SOL    HW164298  14.507   5.485   7.201
87467SOL    HW264299  14.382   5.558   7.245
87468SOL     OW64300   1.953  14.157   2.384
87468SOL    HW164301   1.924  14.241   2.348
87468SOL    HW264302   1.902  14.092   2.336
87469SOL     OW64303  11.301   9.134   6.299
87469SOL    HW164304  11.230   9.153   6.359
87469SOL    HW264305  11.370   9.196   6.323
87470SOL     OW64306   9.704   8.951  13.647
87470SOL    HW164307   9.622   8.919  13.611
87470SOL    HW264308   9.771   8.922  13.584
87471SOL     OW64309   4.915   5.134   3.892
87471SOL    HW164310   4.953   5.049   3.915
87471SOL    HW264311   4.903   5.178   3.977
87472SOL     OW64312   6.267   2.338   9.161
87472SOL    HW164313   6.175   2.312   9.160
87472SOL    HW264314   6.314   2.259   9.191
87473SOL     OW64315   5.446   9.203  12.315
87473SOL    HW164316   5.399   9.217  12.233
87473SOL    HW264317   5.533   9.174  12.288
87474SOL     OW64318   0.030   9.616  12.699
87474SOL    HW164319   0.078   9.650  12.775
87474SOL    HW264320  14.824   9.571  12.737
87475SOL     OW64321   0.753   7.344   6.951
87475SOL    HW164322   0.691   7.280   6.985
87475SOL    HW264323   0.706   7.427   6.955
87476SOL     OW64324  10.200   6.566  12.573
87476SOL    HW164325  10.259   6.506  12.618
87476SOL    HW264326  10.215   6.549  12.480
87477SOL     OW64327  12.177   5.260   5.512
87477SOL    HW164328  12.264   5.225   5.492
87477SOL    HW264329  12.184   5.354   5.493
87478SOL     OW64330   2.280  11.740  10.344
87478SOL    HW164331   2.320  11.696  10.418
87478SOL    HW264332   2.232  11.814  10.382
87479SOL     OW64333   6.937   2.991  10.803
87479SOL    HW164334   6.928   3.058  10.736
87479SOL    HW264335   6.993   3.031  10.869
87480SOL     OW64336   6.391   1.490  14.425
87480SOL    HW164337   6.401   1.443  14.342
87480SOL    HW264338   6.416   1.580  14.404
87481SOL     OW64339  12.833  12.524  14.698
87481SOL    HW164340  12.825  12.550  14.790
87481SOL    HW264341  12.925  12.500  14.687
87482SOL     OW64342   8.179  13.698   0.670
87482SOL    HW164343   8.156  13.700   0.577
87482SOL    HW264344   8.274  13.688   0.671
87483SOL     OW64345   0.418   2.553   1.701
87483SOL    HW164346   0.500   2.535   1.747
87483SOL    HW264347   0.423   2.501   1.621
87484SOL     OW64348   1.830   0.812   3.563
87484SOL    HW164349   1.744   0.847   3.541
87484SOL    HW264350   1.842   0.739   3.502
87485SOL     OW64351   3.094   5.517   2.629
87485SOL    HW164352   3.048   5.439   2.599
87485SOL    HW264353   3.078   5.582   2.560
87486SOL     OW64354   8.798   4.322   5.750
87486SOL    HW164355   8.866   4.337   5.684
87486SOL    HW264356   8.830   4.248   5.801
87487SOL     OW64357   5.688  14.566   1.938
87487SOL    HW164358   5.657  14.640   1.992
87487SOL    HW264359   5.687  14.491   1.997
87488SOL     OW64360  14.199  14.654   2.013
87488SOL    HW164361  14.181  14.561   1.998
87488SOL    HW264362  14.190  14.694   1.927
87489SOL     OW64363   9.848   4.786  13.853
87489SOL    HW164364   9.875   4.849  13.786
87489SOL    HW264365   9.923   4.726  13.860
87490SOL     OW64366   3.467   3.392   7.370
87490SOL    HW164367   3.527   3.466   7.361
87490SOL    HW264368   3.403   3.404   7.300
87491SOL     OW64369   5.701   1.121  10.194
87491SOL    HW164370   5.686   1.152  10.283
87491SOL    HW264371   5.718   1.028  10.203
87492SOL     OW64372  14.203  12.103   8.340
87492SOL    HW164373  14.286  12.152   8.339
87492SOL    HW264374  14.226  12.015   8.314
87493SOL     OW64375  13.994  12.174  13.468
87493SOL    HW164376  13.952  12.105  13.520
87493SOL    HW264377  14.007  12.246  13.530
87494SOL     OW64378   2.059  10.892  14.788
87494SOL    HW164379   2.119  10.854  14.852
87494SOL    HW264380   2.095  10.979  14.771
87495SOL     OW64381   0.491   3.897   2.347
87495SOL    HW164382   0.485   3.985   2.384
87495SOL    HW264383   0.548   3.907   2.271
87496SOL     OW64384   9.313  14.775   5.753
87496SOL    HW164385   9.246  14.789   5.820
87496SOL    HW264386   9.291  14.839   5.685
87497SOL     OW64387  11.283   6.635  13.692
87497SOL    HW164388  11.359   6.656  13.637
87497SOL    HW264389  11.225   6.585  13.634
87498SOL     OW64390   0.169  12.924   6.527
87498SOL    HW164391   0.135  12.864   6.593
87498SOL    HW264392   0.254  12.952   6.561
87499SOL     OW64393   6.801   7.576  12.777
87499SOL    HW164394   6.791   7.482  12.767
87499SOL    HW264395   6.811   7.609  12.688
87500SOL     OW64396   1.709   5.928   7.193
87500SOL    HW164397   1.750   5.879   7.265
87500SOL    HW264398   1.726   6.019   7.214
87501SOL     OW64399   1.729   6.635   8.593
87501SOL    HW164400   1.732   6.600   8.682
87501SOL    HW264401   1.755   6.726   8.603
87502SOL     OW64402   9.807   8.656  14.523
87502SOL    HW164403   9.879   8.714  14.545
87502SOL    HW264404   9.823   8.577  14.576
87503SOL     OW64405   7.906  13.606   8.199
87503SOL    HW164406   7.854  13.686   8.193
87503SOL    HW264407   7.843  13.535   8.182
87504SOL     OW64408   6.109   8.603   7.576
87504SOL    HW164409   6.104   8.551   7.656
87504SOL    HW264410   6.044   8.672   7.588
87505SOL     OW64411   4.680  10.455  10.048
87505SOL    HW164412   4.590  10.462  10.017
87505SOL    HW264413   4.733  10.455   9.968
87506SOL     OW64414   5.134   7.555  14.158
87506SOL    HW164415   5.133   7.528  14.250
87506SOL    HW264416   5.048   7.529  14.125
87507SOL     OW64417   9.974   4.119   6.590
87507SOL    HW164418   9.938   4.031   6.597
87507SOL    HW264419   9.923   4.160   6.519
87508SOL     OW64420  11.174   8.051  10.979
87508SOL    HW164421  11.098   8.062  11.036
87508SOL    HW264422  11.238   8.005  11.032
87509SOL     OW64423  12.594  11.227   5.331
87509SOL    HW164424  12.571  11.287   5.260
87509SOL    HW264425  12.680  11.192   5.307
87510SOL     OW64426   1.097  10.936  11.109
87510SOL    HW164427   1.124  10.968  11.195
87510SOL    HW264428   1.056  10.851  11.127
87511SOL     OW64429  10.103   3.425   0.039
87511SOL    HW164430  10.118   3.511  14.867
87511SOL    HW264431  10.151   3.364  14.853
87512SOL     OW64432  11.536   7.460   2.878
87512SOL    HW164433  11.584   7.437   2.798
87512SOL    HW264434  11.475   7.388   2.892
87513SOL     OW64435   5.035   0.159   2.592
87513SOL    HW164436   5.064   0.239   2.549
87513SOL    HW264437   5.116   0.111   2.610
87514SOL     OW64438   9.660  14.222  13.155
87514SOL    HW164439   9.747  14.225  13.115
87514SOL    HW264440   9.599  14.220  13.081
87515SOL     OW64441   1.954   3.288  14.703
87515SOL    HW164442   2.002   3.218  14.658
87515SOL    HW264443   1.989   3.288  14.792
87516SOL     OW64444  13.602  14.154   8.843
87516SOL    HW164445  13.695  14.172   8.856
87516SOL    HW264446  13.593  14.143   8.748
87517SOL     OW64447  13.405   3.599   5.819
87517SOL    HW164448  13.362   3.623   5.902
87517SOL    HW264449  13.362   3.518   5.793
87518SOL     OW64450   2.695   1.281   4.611
87518SOL    HW164451   2.787   1.256   4.601
87518SOL    HW264452   2.676   1.267   4.703
87519SOL     OW64453  10.581   8.054  10.633
87519SOL    HW164454  10.662   8.057  10.582
87519SOL    HW264455  10.535   7.976  10.602
87520SOL     OW64456  11.467   0.010   4.478
87520SOL    HW164457  11.544   0.047   4.521
87520SOL    HW264458  11.460  14.791   4.513
87521SOL     OW64459   6.238   8.137  11.569
87521SOL    HW164460   6.196   8.221  11.589
87521SOL    HW264461   6.166   8.074  11.573
87522SOL     OW64462   8.456  12.691   6.683
87522SOL    HW164463   8.422  12.779   6.666
87522SOL    HW264464   8.382  12.633   6.668
87523SOL     OW64465  13.390   9.054   6.250
87523SOL    HW164466  13.466   9.008   6.217
87523SOL    HW264467  13.325   9.046   6.180
87524SOL     OW64468  11.176  11.341   4.753
87524SOL    HW164469  11.086  11.313   4.768
87524SOL    HW264470  11.228  11.289   4.814
87525SOL     OW64471   5.794   9.671  12.738
87525SOL    HW164472   5.721   9.611  12.721
87525SOL    HW264473   5.872   9.624  12.706
87526SOL     OW64474  12.695  13.895   2.693
87526SOL    HW164475  12.727  13.982   2.716
87526SOL    HW264476  12.765  13.858   2.639
87527SOL     OW64477  10.839   3.806   2.992
87527SOL    HW164478  10.830   3.711   2.992
87527SOL    HW264479  10.871   3.827   2.904
87528SOL     OW64480   3.145  14.812   7.852
87528SOL    HW164481   3.208  14.754   7.894
87528SOL    HW264482   3.188  14.844   7.773
87529SOL     OW64483   7.312  14.477   7.082
87529SOL    HW164484   7.240  14.508   7.027
87529SOL    HW264485   7.273  14.466   7.169
87530SOL     OW64486  14.170   6.312   1.992
87530SOL    HW164487  14.146   6.220   2.004
87530SOL    HW264488  14.265   6.313   1.998
87531SOL     OW64489   9.924   1.031   8.320
87531SOL    HW164490   9.952   1.117   8.288
87531SOL    HW264491   9.987   0.969   8.285
87532SOL     OW64492  11.112  10.034   2.878
87532SOL    HW164493  11.154  10.048   2.793
87532SOL    HW264494  11.177   9.986   2.929
87533SOL     OW64495  14.590  10.976  12.691
87533SOL    HW164496  14.644  10.956  12.767
87533SOL    HW264497  14.501  10.982  12.725
87534SOL     OW64498   8.256  12.595  13.760
87534SOL    HW164499   8.337  12.628  13.798
87534SOL    HW264500   8.230  12.662  13.697
87535SOL     OW64501   1.718   5.272  12.061
87535SOL    HW164502   1.814   5.276  12.064
87535SOL    HW264503   1.698   5.245  11.972
87536SOL     OW64504  10.912   0.734  13.063
87536SOL    HW164505  10.939   0.652  13.022
87536SOL    HW264506  10.817   0.736  13.050
87537SOL     OW64507  11.631  13.913   2.205
87537SOL    HW164508  11.699  13.938   2.142
87537SOL    HW264509  11.678  13.873   2.277
87538SOL     OW64510  13.020   3.786   6.585
87538SOL    HW164511  13.017   3.750   6.674
87538SOL    HW264512  13.034   3.880   6.597
87539SOL     OW64513  14.619   8.608   9.216
87539SOL    HW164514  14.535   8.574   9.246
87539SOL    HW264515  14.600   8.698   9.189
87540SOL     OW64516   6.055   6.199   9.585
87540SOL    HW164517   6.119   6.270   9.588
87540SOL    HW264518   6.107   6.121   9.566
87541SOL     OW64519   6.418  11.325   9.013
87541SOL    HW164520   6.418  11.382   9.090
87541SOL    HW264521   6.404  11.384   8.939
87542SOL     OW64522   6.185   4.049   1.399
87542SOL    HW164523   6.258   4.088   1.447
87542SOL    HW264524   6.111   4.054   1.460
87543SOL     OW64525  12.455   8.220   5.498
87543SOL    HW164526  12.526   8.198   5.437
87543SOL    HW264527  12.495   8.212   5.585
87544SOL     OW64528   3.585   8.906   1.360
87544SOL    HW164529   3.536   8.860   1.429
87544SOL    HW264530   3.608   8.837   1.298
87545SOL     OW64531   0.397   8.532   0.701
87545SOL    HW164532   0.461   8.507   0.634
87545SOL    HW264533   0.322   8.474   0.685
87546SOL     OW64534   1.658   9.298  11.736
87546SOL    HW164535   1.705   9.236  11.792
87546SOL    HW264536   1.668   9.383  11.780
87547SOL     OW64537   4.549   5.350   5.947
87547SOL    HW164538   4.539   5.338   5.852
87547SOL    HW264539   4.578   5.441   5.957
87548SOL     OW64540   0.366  11.656   0.507
87548SOL    HW164541   0.412  11.666   0.591
87548SOL    HW264542   0.343  11.745   0.482
87549SOL     OW64543  11.739  14.666  14.399
87549SOL    HW164544  11.645  14.653  14.412
87549SOL    HW264545  11.750  14.665  14.304
87550SOL     OW64546   9.282   7.706   0.115
87550SOL    HW164547   9.284   7.619   0.075
87550SOL    HW264548   9.196   7.741   0.091
87551SOL     OW64549   7.231   8.681  10.997
87551SOL    HW164550   7.317   8.639  11.004
87551SOL    HW264551   7.180   8.622  10.941
87552SOL     OW64552   1.991  10.549   8.040
87552SOL    HW164553   2.001  10.576   8.131
87552SOL    HW264554   2.078  10.562   8.002
87553SOL     OW64555   6.157   3.163   9.738
87553SOL    HW164556   6.141   3.220   9.813
87553SOL    HW264557   6.080   3.105   9.735
87554SOL     OW64558  13.448   2.475  10.279
87554SOL    HW164559  13.484   2.390  10.256
87554SOL    HW264560  13.437   2.520  10.195
87555SOL     OW64561  10.222  11.998   0.716
87555SOL    HW164562  10.244  11.905   0.704
87555SOL    HW264563  10.296  12.033   0.766
87556SOL     OW64564   4.905  14.569   0.670
87556SOL    HW164565   4.996  14.587   0.648
87556SOL    HW264566   4.904  14.477   0.697
87557SOL     OW64567   5.312   4.135   1.422
87557SOL    HW164568   5.317   4.088   1.338
87557SOL    HW264569   5.237   4.194   1.412
87558SOL     OW64570   0.996   8.155   5.257
87558SOL    HW164571   0.947   8.091   5.308
87558SOL    HW264572   0.969   8.240   5.293
87559SOL     OW64573   9.541  11.218   3.905
87559SOL    HW164574   9.618  11.161   3.911
87559SOL    HW264575   9.574  11.306   3.922
87560SOL     OW64576   7.287   1.173   5.354
87560SOL    HW164577   7.279   1.174   5.259
87560SOL    HW264578   7.307   1.082   5.376
87561SOL     OW64579   6.265  12.833   1.178
87561SOL    HW164580   6.297  12.881   1.255
87561SOL    HW264581   6.177  12.868   1.163
87562SOL     OW64582   2.435   3.458  12.068
87562SOL    HW164583   2.475   3.373  12.083
87562SOL    HW264584   2.342   3.445  12.086
87563SOL     OW64585  13.931   1.990  12.957
87563SOL    HW164586  13.847   1.944  12.946
87563SOL    HW264587  13.906   2.081  12.970
87564SOL     OW64588  13.996   3.206   4.982
87564SOL    HW164589  13.983   3.137   4.918
87564SOL    HW264590  14.012   3.285   4.929
87565SOL     OW64591  10.163   2.499  13.510
87565SOL    HW164592  10.255   2.472  13.507
87565SOL    HW264593  10.123   2.458  13.434
87566SOL     OW64594  12.123   0.760   1.922
87566SOL    HW164595  12.181   0.767   1.846
87566SOL    HW264596  12.095   0.850   1.940
87567SOL     OW64597   3.143   7.000  13.832
87567SOL    HW164598   3.076   7.013  13.899
87567SOL    HW264599   3.157   6.905  13.830
87568SOL     OW64600   8.208   3.689  11.187
87568SOL    HW164601   8.215   3.773  11.234
87568SOL    HW264602   8.114   3.668  11.191
87569SOL     OW64603   2.621  14.303   5.878
87569SOL    HW164604   2.565  14.380   5.871
87569SOL    HW264605   2.688  14.328   5.941
87570SOL     OW64606  11.729   4.205  11.184
87570SOL    HW164607  11.635   4.203  11.200
87570SOL    HW264608  11.763   4.271  11.244
87571SOL     OW64609   5.020   2.754   2.543
87571SOL    HW164610   4.988   2.829   2.493
87571SOL    HW264611   4.958   2.746   2.615
87572SOL     OW64612   3.453  13.064  12.834
87572SOL    HW164613   3.377  13.071  12.777
87572SOL    HW264614   3.495  12.982  12.809
87573SOL     OW64615   3.222   4.635   3.210
87573SOL    HW164616   3.315   4.617   3.194
87573SOL    HW264617   3.221   4.680   3.295
87574SOL     OW64618   3.666   6.608  13.093
87574SOL    HW164619   3.712   6.614  13.009
87574SOL    HW264620   3.584   6.655  13.079
87575SOL     OW64621   5.490  12.782  10.574
87575SOL    HW164622   5.489  12.804  10.668
87575SOL    HW264623   5.558  12.838  10.537
87576SOL     OW64624  13.217  11.767   1.453
87576SOL    HW164625  13.187  11.850   1.416
87576SOL    HW264626  13.142  11.734   1.502
87577SOL     OW64627   3.717   1.612   0.328
87577SOL    HW164628   3.658   1.538   0.314
87577SOL    HW264629   3.798   1.587   0.284
87578SOL     OW64630  10.078   2.595   3.898
87578SOL    HW164631  10.027   2.541   3.959
87578SOL    HW264632  10.030   2.589   3.816
87579SOL     OW64633  10.785   3.129   8.662
87579SOL    HW164634  10.707   3.103   8.710
87579SOL    HW264635  10.790   3.224   8.673
87580SOL     OW64636  10.230   2.964   5.491
87580SOL    HW164637  10.232   2.869   5.477
87580SOL    HW264638  10.140   2.983   5.515
87581SOL     OW64639  11.660   5.447   4.405
87581SOL    HW164640  11.732   5.508   4.415
87581SOL    HW264641  11.636   5.452   4.313
87582SOL     OW64642  10.370   3.529  14.604
87582SOL    HW164643  10.327   3.593  14.660
87582SOL    HW264644  10.311   3.454  14.603
87583SOL     OW64645   4.738  10.045   3.635
87583SOL    HW164646   4.678   9.976   3.663
87583SOL    HW264647   4.817   9.998   3.606
87584SOL     OW64648   6.075   7.548   0.318
87584SOL    HW164649   6.143   7.482   0.313
87584SOL    HW264650   6.065   7.567   0.411
87585SOL     OW64651  13.835   9.813  11.117
87585SOL    HW164652  13.757   9.854  11.155
87585SOL    HW264653  13.868   9.756  11.187
87586SOL     OW64654  12.355   3.873  13.762
87586SOL    HW164655  12.327   3.934  13.694
87586SOL    HW264656  12.301   3.795  13.747
87587SOL     OW64657   2.988  12.148   2.738
87587SOL    HW164658   3.009  12.056   2.752
87587SOL    HW264659   2.981  12.157   2.642
87588SOL     OW64660  14.449   3.337   8.440
87588SOL    HW164661  14.405   3.294   8.367
87588SOL    HW264662  14.517   3.276   8.466
87589SOL     OW64663  14.723   9.320   4.612
87589SOL    HW164664  14.758   9.409   4.622
87589SOL    HW264665  14.737   9.279   4.697
87590SOL     OW64666  13.141   4.143  10.601
87590SOL    HW164667  13.206   4.122  10.668
87590SOL    HW264668  13.102   4.059  10.578
87591SOL     OW64669   6.462   9.508  12.194
87591SOL    HW164670   6.373   9.504  12.159
87591SOL    HW264671   6.501   9.425  12.168
87592SOL     OW64672   2.619  10.394   3.022
87592SOL    HW164673   2.524  10.396   3.023
87592SOL    HW264674   2.642  10.338   2.948
87593SOL     OW64675  14.535   1.618   1.974
87593SOL    HW164676  14.495   1.697   1.937
87593SOL    HW264677  14.586   1.580   1.903
87594SOL     OW64678   9.519  10.775   9.311
87594SOL    HW164679   9.603  10.757   9.352
87594SOL    HW264680   9.511  10.871   9.314
87595SOL     OW64681  14.431   3.694  10.377
87595SOL    HW164682  14.433   3.608  10.335
87595SOL    HW264683  14.402   3.677  10.466
87596SOL     OW64684   3.863  11.717   9.287
87596SOL    HW164685   3.775  11.740   9.316
87596SOL    HW264686   3.854  11.630   9.250
87597SOL     OW64687   1.336   7.106  10.872
87597SOL    HW164688   1.299   7.084  10.787
87597SOL    HW264689   1.383   7.027  10.899
87598SOL     OW64690  13.950   0.283  10.344
87598SOL    HW164691  13.915   0.372  10.338
87598SOL    HW264692  14.045   0.295  10.347
87599SOL     OW64693  14.714   8.284   1.596
87599SOL    HW164694  14.761   8.201   1.601
87599SOL    HW264695  14.750   8.336   1.668
87600SOL     OW64696   1.865  13.281   7.942
87600SOL    HW164697   1.809  13.293   7.866
87600SOL    HW264698   1.805  13.257   8.013
87601SOL     OW64699  13.862   0.131   9.963
87601SOL    HW164700  13.843   0.052   9.912
87601SOL    HW264701  13.779   0.179   9.965
87602SOL     OW64702   0.411   5.236   8.839
87602SOL    HW164703   0.378   5.171   8.776
87602SOL    HW264704   0.384   5.202   8.924
87603SOL     OW64705   7.919  11.349   8.266
87603SOL    HW164706   7.894  11.328   8.356
87603SOL    HW264707   7.962  11.434   8.272
87604SOL     OW64708  13.948  11.890   2.633
87604SOL    HW164709  13.891  11.966   2.644
87604SOL    HW264710  13.951  11.876   2.539
87605SOL     OW64711  13.809   2.194   8.173
87605SOL    HW164712  13.783   2.197   8.081
87605SOL    HW264713  13.873   2.123   8.178
87606SOL     OW64714   7.645   2.324   4.969
87606SOL    HW164715   7.645   2.309   4.875
87606SOL    HW264716   7.729   2.289   4.999
87607SOL     OW64717   7.668   0.918  11.042
87607SOL    HW164718   7.577   0.947  11.036
87607SOL    HW264719   7.663   0.823  11.038
87608SOL     OW64720   3.400   5.945   1.402
87608SOL    HW164721   3.357   5.997   1.333
87608SOL    HW264722   3.411   6.006   1.475
87609SOL     OW64723   6.109   3.344  10.384
87609SOL    HW164724   6.016   3.358  10.401
87609SOL    HW264725   6.150   3.352  10.470
87610SOL     OW64726   9.711   3.361   2.015
87610SOL    HW164727   9.620   3.375   1.985
87610SOL    HW264728   9.702   3.308   2.094
87611SOL     OW64729  11.762   7.826   9.125
87611SOL    HW164730  11.819   7.784   9.060
87611SOL    HW264731  11.814   7.828   9.205
87612SOL     OW64732  11.826   3.282   7.566
87612SOL    HW164733  11.801   3.342   7.495
87612SOL    HW264734  11.851   3.338   7.638
87613SOL     OW64735  13.732  10.173   4.581
87613SOL    HW164736  13.718  10.210   4.668
87613SOL    HW264737  13.728  10.248   4.522
87614SOL     OW64738   3.044   6.470   7.697
87614SOL    HW164739   3.052   6.432   7.610
87614SOL    HW264740   3.112   6.426   7.749
87615SOL     OW64741   8.970   4.041   0.751
87615SOL    HW164742   9.061   4.019   0.730
87615SOL    HW264743   8.971   4.134   0.772
87616SOL     OW64744  12.740  14.263  14.790
87616SOL    HW164745  12.724  14.289   0.011
87616SOL    HW264746  12.663  14.211  14.766
87617SOL     OW64747   4.026  10.448  14.397
87617SOL    HW164748   4.061  10.452  14.308
87617SOL    HW264749   4.018  10.354  14.415
87618SOL     OW64750   7.266  10.224   0.758
87618SOL    HW164751   7.265  10.185   0.671
87618SOL    HW264752   7.313  10.160   0.812
87619SOL     OW64753   3.642  10.160   6.282
87619SOL    HW164754   3.578  10.182   6.350
87619SOL    HW264755   3.727  10.177   6.323
87620SOL     OW64756   4.396   4.340  13.889
87620SOL    HW164757   4.438   4.282  13.825
87620SOL    HW264758   4.458   4.345  13.961
87621SOL     OW64759  12.648   7.069   2.456
87621SOL    HW164760  12.646   7.018   2.537
87621SOL    HW264761  12.715   7.027   2.403
87622SOL     OW64762   4.014   1.870   7.582
87622SOL    HW164763   3.963   1.931   7.529
87622SOL    HW264764   3.956   1.845   7.653
87623SOL     OW64765  12.865   9.064  12.330
87623SOL    HW164766  12.789   9.071  12.271
87623SOL    HW264767  12.894   9.154  12.343
87624SOL     OW64768   8.029   0.732   0.201
87624SOL    HW164769   7.961   0.779   0.249
87624SOL    HW264770   8.089   0.801   0.172
87625SOL     OW64771  13.713   0.031   8.042
87625SOL    HW164772  13.656   0.011   7.969
87625SOL    HW264773  13.679  14.849   8.115
87626SOL     OW64774  13.805   5.254   9.722
87626SOL    HW164775  13.883   5.269   9.776
87626SOL    HW264776  13.761   5.180   9.764
87627SOL     OW64777   2.207   2.346  14.533
87627SOL    HW164778   2.174   2.299  14.610
87627SOL    HW264779   2.162   2.306  14.459
87628SOL     OW64780   6.968   3.173   0.523
87628SOL    HW164781   6.986   3.082   0.547
87628SOL    HW264782   6.873   3.181   0.526
87629SOL     OW64783   4.074   8.685   9.453
87629SOL    HW164784   4.166   8.666   9.432
87629SOL    HW264785   4.077   8.730   9.537
87630SOL     OW64786   8.354  13.141  14.772
87630SOL    HW164787   8.434  13.193  14.775
87630SOL    HW264788   8.351  13.106  14.682
87631SOL     OW64789  13.646   1.639   0.217
87631SOL    HW164790  13.623   1.682   0.299
87631SOL    HW264791  13.617   1.700   0.149
87632SOL     OW64792  10.419   7.777   3.489
87632SOL    HW164793  10.483   7.721   3.446
87632SOL    HW264794  10.457   7.864   3.486
87633SOL     OW64795   2.492   2.298   1.592
87633SOL    HW164796   2.584   2.322   1.584
87633SOL    HW264797   2.445   2.372   1.553
87634SOL     OW64798  13.083  12.504   7.463
87634SOL    HW164799  13.114  12.570   7.525
87634SOL    HW264800  13.143  12.510   7.388
87635SOL     OW64801   8.953   8.715   7.245
87635SOL    HW164802   8.877   8.729   7.302
87635SOL    HW264803   9.020   8.681   7.303
87636SOL     OW64804   8.127  14.713   3.630
87636SOL    HW164805   8.125  14.670   3.716
87636SOL    HW264806   8.065  14.665   3.577
87637SOL     OW64807  12.271   6.926  13.000
87637SOL    HW164808  12.304   7.007  12.961
87637SOL    HW264809  12.307   6.856  12.947
87638SOL     OW64810   2.696   1.228   0.040
87638SOL    HW164811   2.649   1.145   0.048
87638SOL    HW264812   2.687   1.253  14.818
87639SOL     OW64813   5.512   4.341   5.909
87639SOL    HW164814   5.430   4.294   5.925
87639SOL    HW264815   5.580   4.277   5.930
87640SOL     OW64816  11.593  11.370   2.438
87640SOL    HW164817  11.548  11.285   2.440
87640SOL    HW264818  11.615  11.387   2.529
87641SOL     OW64819  10.715   6.095  11.724
87641SOL    HW164820  10.702   6.015  11.776
87641SOL    HW264821  10.698   6.166  11.786
87642SOL     OW64822   0.486  13.437   0.749
87642SOL    HW164823   0.578  13.460   0.737
87642SOL    HW264824   0.488  13.351   0.791
87643SOL     OW64825  11.447  10.253   5.421
87643SOL    HW164826  11.485  10.165   5.420
87643SOL    HW264827  11.375  10.248   5.484
87644SOL     OW64828  13.072   9.787   4.999
87644SOL    HW164829  13.082   9.795   4.904
87644SOL    HW264830  13.028   9.868   5.026
87645SOL     OW64831   7.689   9.668   9.829
87645SOL    HW164832   7.612   9.633   9.783
87645SOL    HW264833   7.735   9.719   9.763
87646SOL     OW64834  13.097   5.394   5.040
87646SOL    HW164835  13.137   5.317   5.080
87646SOL    HW264836  13.022   5.359   4.992
87647SOL     OW64837   3.088   3.618   6.636
87647SOL    HW164838   3.089   3.661   6.722
87647SOL    HW264839   3.179   3.622   6.606
87648SOL     OW64840  10.986   9.650   7.118
87648SOL    HW164841  10.913   9.637   7.058
87648SOL    HW264842  11.056   9.595   7.083
87649SOL     OW64843  13.616   9.498   8.904
87649SOL    HW164844  13.549   9.522   8.968
87649SOL    HW264845  13.581   9.527   8.820
87650SOL     OW64846   9.562   4.107  10.578
87650SOL    HW164847   9.520   4.106  10.492
87650SOL    HW264848   9.492   4.081  10.638
87651SOL     OW64849  12.045   1.092  11.495
87651SOL    HW164850  11.985   1.044  11.438
87651SOL    HW264851  12.095   1.148  11.435
87652SOL     OW64852  14.424   2.386   6.315
87652SOL    HW164853  14.516   2.410   6.308
87652SOL    HW264854  14.423   2.309   6.372
87653SOL     OW64855   1.970   2.961   5.056
87653SOL    HW164856   2.054   2.996   5.026
87653SOL    HW264857   1.969   2.977   5.150
87654SOL     OW64858  12.025  12.300   8.727
87654SOL    HW164859  11.962  12.314   8.656
87654SOL    HW264860  12.085  12.233   8.693
87655SOL     OW64861   1.081   1.703   0.681
87655SOL    HW164862   1.151   1.678   0.622
87655SOL    HW264863   1.087   1.641   0.754
87656SOL     OW64864   9.458   3.823   8.072
87656SOL    HW164865   9.452   3.782   7.986
87656SOL    HW264866   9.531   3.884   8.064
87657SOL     OW64867   8.360  10.640  11.314
87657SOL    HW164868   8.302  10.565  11.329
87657SOL    HW264869   8.434  10.624  11.373
87658SOL     OW64870   7.569  10.550  10.301
87658SOL    HW164871   7.483  10.590  10.296
87658SOL    HW264872   7.552  10.456  10.296
87659SOL     OW64873   9.056   2.010   9.657
87659SOL    HW164874   9.062   2.073   9.584
87659SOL    HW264875   9.040   1.926   9.614
87660SOL     OW64876   0.077  13.529   1.317
87660SOL    HW164877  14.865  13.479   1.323
87660SOL    HW264878   0.088  13.568   1.404
87661SOL     OW64879   7.012  13.660  12.410
87661SOL    HW164880   7.021  13.574  12.450
87661SOL    HW264881   7.099  13.680  12.376
87662SOL     OW64882  13.442   1.654  14.051
87662SOL    HW164883  13.444   1.593  13.977
87662SOL    HW264884  13.488   1.607  14.121
87663SOL     OW64885  11.285  14.780   8.514
87663SOL    HW164886  11.250  14.866   8.493
87663SOL    HW264887  11.223  14.719   8.473
87664SOL     OW64888  12.645  14.000   9.073
87664SOL    HW164889  12.635  14.025   9.165
87664SOL    HW264890  12.618  13.908   9.070
87665SOL     OW64891   8.207   2.910  14.169
87665SOL    HW164892   8.113   2.923  14.178
87665SOL    HW264893   8.221   2.898  14.075
87666SOL     OW64894  12.638   7.500   8.316
87666SOL    HW164895  12.660   7.559   8.387
87666SOL    HW264896  12.583   7.433   8.358
87667SOL     OW64897   9.671  13.921  14.687
87667SOL    HW164898   9.724  13.868  14.748
87667SOL    HW264899   9.734  13.950  14.621
87668SOL     OW64900  12.085   7.010   9.037
87668SOL    HW164901  11.993   7.020   9.014
87668SOL    HW264902  12.116   7.100   9.050
87669SOL     OW64903  10.717   4.981  13.242
87669SOL    HW164904  10.771   4.955  13.167
87669SOL    HW264905  10.724   5.076  13.245
87670SOL     OW64906  12.868   7.687   4.719
87670SOL    HW164907  12.952   7.642   4.725
87670SOL    HW264908  12.889   7.780   4.723
87671SOL     OW64909  11.400   7.525   5.925
87671SOL    HW164910  11.408   7.445   5.977
87671SOL    HW264911  11.472   7.580   5.954
87672SOL     OW64912  12.720   2.142   3.775
87672SOL    HW164913  12.705   2.049   3.791
87672SOL    HW264914  12.763   2.146   3.690
87673SOL     OW64915  11.521   9.689   6.566
87673SOL    HW164916  11.563   9.751   6.625
87673SOL    HW264917  11.456   9.644   6.620
87674SOL     OW64918   7.472   9.176   7.353
87674SOL    HW164919   7.530   9.123   7.298
87674SOL    HW264920   7.505   9.265   7.344
87675SOL     OW64921  10.311   9.996   6.625
87675SOL    HW164922  10.393  10.039   6.649
87675SOL    HW264923  10.266   9.983   6.708
87676SOL     OW64924  11.547   9.622   1.223
87676SOL    HW164925  11.509   9.599   1.138
87676SOL    HW264926  11.638   9.592   1.217
87677SOL     OW64927   8.118   9.230  14.190
87677SOL    HW164928   8.152   9.314  14.219
87677SOL    HW264929   8.182   9.198  14.126
87678SOL     OW64930   0.574   6.174   6.030
87678SOL    HW164931   0.501   6.160   5.970
87678SOL    HW264932   0.650   6.139   5.984
87679SOL     OW64933   7.922  13.198   3.826
87679SOL    HW164934   7.951  13.157   3.907
87679SOL    HW264935   7.970  13.152   3.757
87680SOL     OW64936   9.567   1.641   4.836
87680SOL    HW164937   9.490   1.697   4.837
87680SOL    HW264938   9.573   1.609   4.747
87681SOL     OW64939   8.939   3.290   2.210
87681SOL    HW164940   8.893   3.246   2.139
87681SOL    HW264941   9.011   3.337   2.167
87682SOL     OW64942   9.269   1.938   8.412
87682SOL    HW164943   9.335   1.992   8.370
87682SOL    HW264944   9.232   1.885   8.342
87683SOL     OW64945   5.845  11.510   5.934
87683SOL    HW164946   5.804  11.470   6.011
87683SOL    HW264947   5.859  11.601   5.959
87684SOL     OW64948   7.305   6.472   9.479
87684SOL    HW164949   7.281   6.409   9.547
87684SOL    HW264950   7.237   6.539   9.482
87685SOL     OW64951   3.986   9.137  14.670
87685SOL    HW164952   3.971   9.088  14.589
87685SOL    HW264953   4.033   9.075  14.726
87686SOL     OW64954   8.144   7.219   3.330
87686SOL    HW164955   8.178   7.131   3.341
87686SOL    HW264956   8.159   7.262   3.414
87687SOL     OW64957  13.078   0.772   1.333
87687SOL    HW164958  13.160   0.773   1.284
87687SOL    HW264959  13.014   0.735   1.271
87688SOL     OW64960   6.515   0.516   6.002
87688SOL    HW164961   6.590   0.479   6.049
87688SOL    HW264962   6.537   0.609   5.991
87689SOL     OW64963   9.866   6.629   9.906
87689SOL    HW164964   9.893   6.543   9.873
87689SOL    HW264965   9.948   6.675   9.924
87690SOL     OW64966   4.925   2.215  14.384
87690SOL    HW164967   5.000   2.273  14.396
87690SOL    HW264968   4.866   2.237  14.456
87691SOL     OW64969   7.142   3.259  10.671
87691SOL    HW164970   7.159   3.193  10.605
87691SOL    HW264971   7.215   3.321  10.663
87692SOL     OW64972   3.405   7.502   3.958
87692SOL    HW164973   3.374   7.468   4.041
87692SOL    HW264974   3.417   7.425   3.902
87693SOL     OW64975   9.705   8.227   0.270
87693SOL    HW164976   9.670   8.139   0.271
87693SOL    HW264977   9.658   8.272   0.200
87694SOL     OW64978   0.074   0.555  10.131
87694SOL    HW164979   0.151   0.552  10.188
87694SOL    HW264980   0.053   0.648  10.125
87695SOL     OW64981   1.789   3.965  14.796
87695SOL    HW164982   1.867   4.021  14.789
87695SOL    HW264983   1.815   3.883  14.754
87696SOL     OW64984   7.075   4.067   7.400
87696SOL    HW164985   7.082   4.149   7.449
87696SOL    HW264986   7.034   4.091   7.317
87697SOL     OW64987   4.014   6.031  13.208
87697SOL    HW164988   3.934   6.072  13.242
87697SOL    HW264989   4.068   6.016  13.286
87698SOL     OW64990   2.059   6.152   2.245
87698SOL    HW164991   1.969   6.126   2.225
87698SOL    HW264992   2.071   6.125   2.337
87699SOL     OW64993   9.400  14.811   1.753
87699SOL    HW164994   9.448  14.791   1.672
87699SOL    HW264995   9.320  14.856   1.723
87700SOL     OW64996   4.068   0.959   3.582
87700SOL    HW164997   3.989   0.907   3.592
87700SOL    HW264998   4.068   1.017   3.658
87701SOL     OW64999   4.451   5.838  13.994
87701SOL    HW165000   4.423   5.782  14.066
87701SOL    HW265001   4.400   5.918  14.005
87702SOL     OW65002  10.353   3.136   8.275
87702SOL    HW165003  10.259   3.122   8.292
87702SOL    HW265004  10.393   3.135   8.362
87703SOL     OW65005   6.363  11.988  14.156
87703SOL    HW165006   6.288  11.929  14.166
87703SOL    HW265007   6.324  12.072  14.129
87704SOL     OW65008   9.128   4.237   6.552
87704SOL    HW165009   9.142   4.221   6.645
87704SOL    HW265010   9.045   4.284   6.548
87705SOL     OW65011  12.959  11.672   7.899
87705SOL    HW165012  12.970  11.760   7.863
87705SOL    HW265013  12.890  11.633   7.845
87706SOL     OW65014  10.155   5.967  14.804
87706SOL    HW165015  10.187   5.883  14.770
87706SOL    HW265016  10.078   5.944  14.856
87707SOL     OW65017   0.005  13.134   5.502
87707SOL    HW165018  14.807  13.201   5.510
87707SOL    HW265019  14.849  13.066   5.565
87708SOL     OW65020   4.227  11.920   7.580
87708SOL    HW165021   4.196  11.939   7.669
87708SOL    HW265022   4.322  11.914   7.588
87709SOL     OW65023   2.732  10.417   8.429
87709SOL    HW165024   2.699  10.370   8.353
87709SOL    HW265025   2.823  10.438   8.407
87710SOL     OW65026  11.048   2.968  13.405
87710SOL    HW165027  10.982   3.021  13.451
87710SOL    HW265028  11.103   2.933  13.475
87711SOL     OW65029  12.064   1.744  10.514
87711SOL    HW165030  12.015   1.759  10.594
87711SOL    HW265031  11.997   1.731  10.446
87712SOL     OW65032  10.281   5.672   3.748
87712SOL    HW165033  10.253   5.585   3.779
87712SOL    HW265034  10.199   5.719   3.732
87713SOL     OW65035  11.042   2.205   0.864
87713SOL    HW165036  10.952   2.193   0.896
87713SOL    HW265037  11.097   2.162   0.929
87714SOL     OW65038   1.358   1.430   4.598
87714SOL    HW165039   1.431   1.368   4.596
87714SOL    HW265040   1.387   1.498   4.658
87715SOL     OW65041   6.722  12.920   5.749
87715SOL    HW165042   6.658  12.872   5.801
87715SOL    HW265043   6.792  12.856   5.733
87716SOL     OW65044   7.022   2.820   1.341
87716SOL    HW165045   6.972   2.738   1.338
87716SOL    HW265046   7.102   2.801   1.293
87717SOL     OW65047   1.648  10.538  14.512
87717SOL    HW165048   1.711  10.603  14.481
87717SOL    HW265049   1.702  10.468  14.547
87718SOL     OW65050   0.795   3.285  11.615
87718SOL    HW165051   0.740   3.245  11.682
87718SOL    HW265052   0.733   3.326  11.555
87719SOL     OW65053  13.060  13.837   0.003
87719SOL    HW165054  12.977  13.811   0.044
87719SOL    HW265055  13.080  13.765  14.812
87720SOL     OW65056   7.846   8.250   6.142
87720SOL    HW165057   7.750   8.243   6.143
87720SOL    HW265058   7.875   8.182   6.203
87721SOL     OW65059   0.066   1.024   1.667
87721SOL    HW165060  14.867   1.037   1.733
87721SOL    HW265061   0.091   1.112   1.641
87722SOL     OW65062   9.903  13.060   3.261
87722SOL    HW165063   9.943  13.077   3.346
87722SOL    HW265064   9.898  13.146   3.219
87723SOL     OW65065   7.454   6.528   7.140
87723SOL    HW165066   7.442   6.448   7.190
87723SOL    HW265067   7.544   6.525   7.110
87724SOL     OW65068   5.173   5.962  14.348
87724SOL    HW165069   5.184   5.976  14.253
87724SOL    HW265070   5.086   5.923  14.356
87725SOL     OW65071  13.613   7.298  11.800
87725SOL    HW165072  13.680   7.244  11.758
87725SOL    HW265073  13.639   7.301  11.892
87726SOL     OW65074  12.203   9.126   9.066
87726SOL    HW165075  12.210   9.035   9.037
87726SOL    HW265076  12.290   9.163   9.051
87727SOL     OW65077   5.387  12.455   4.816
87727SOL    HW165078   5.344  12.539   4.801
87727SOL    HW265079   5.326  12.390   4.782
87728SOL     OW65080   5.198   9.846   8.509
87728SOL    HW165081   5.212   9.771   8.451
87728SOL    HW265082   5.130   9.897   8.466
87729SOL     OW65083   9.602   8.069  13.189
87729SOL    HW165084   9.693   8.056  13.215
87729SOL    HW265085   9.598   8.041  13.098
87730SOL     OW65086  13.840  13.699   0.694
87730SOL    HW165087  13.893  13.768   0.656
87730SOL    HW265088  13.755  13.707   0.650
87731SOL     OW65089   6.280   6.184   4.401
87731SOL    HW165090   6.295   6.225   4.486
87731SOL    HW265091   6.348   6.220   4.345
87732SOL     OW65092   9.042  10.771  12.598
87732SOL    HW165093   9.035  10.810  12.511
87732SOL    HW265094   8.953  10.774  12.633
87733SOL     OW65095  11.499  14.204   6.020
87733SOL    HW165096  11.465  14.115   6.031
87733SOL    HW265097  11.426  14.261   6.041
87734SOL     OW65098   6.094   2.829   7.431
87734SOL    HW165099   6.087   2.769   7.505
87734SOL    HW265100   6.188   2.842   7.419
87735SOL     OW65101   4.826   0.124  13.489
87735SOL    HW165102   4.846   0.037  13.456
87735SOL    HW265103   4.906   0.153  13.531
87736SOL     OW65104   2.319   4.644   9.551
87736SOL    HW165105   2.271   4.567   9.521
87736SOL    HW265106   2.411   4.617   9.550
87737SOL     OW65107   9.504   2.191  12.410
87737SOL    HW165108   9.425   2.137  12.415
87737SOL    HW265109   9.526   2.209  12.501
87738SOL     OW65110   2.102  12.257   0.145
87738SOL    HW165111   2.031  12.314   0.175
87738SOL    HW265112   2.162  12.316   0.099
87739SOL     OW65113  13.849  10.097   1.354
87739SOL    HW165114  13.932  10.145   1.357
87739SOL    HW265115  13.784  10.163   1.329
87740SOL     OW65116   8.566   3.396  12.937
87740SOL    HW165117   8.488   3.394  12.993
87740SOL    HW265118   8.585   3.304  12.919
87741SOL     OW65119   4.644  13.534   2.511
87741SOL    HW165120   4.727  13.494   2.487
87741SOL    HW265121   4.646  13.621   2.469
87742SOL     OW65122  14.138   4.102   4.539
87742SOL    HW165123  14.142   4.166   4.468
87742SOL    HW265124  14.080   4.143   4.604
87743SOL     OW65125   3.474  11.869   0.605
87743SOL    HW165126   3.527  11.830   0.674
87743SOL    HW265127   3.498  11.962   0.605
87744SOL     OW65128   5.725   6.897   9.861
87744SOL    HW165129   5.820   6.881   9.863
87744SOL    HW265130   5.714   6.966   9.795
87745SOL     OW65131   9.145  10.415  13.849
87745SOL    HW165132   9.121  10.426  13.757
87745SOL    HW265133   9.222  10.471  13.861
87746SOL     OW65134  10.165   5.772   1.819
87746SOL    HW165135  10.117   5.796   1.898
87746SOL    HW265136  10.165   5.676   1.820
87747SOL     OW65137   4.768   0.735  12.965
87747SOL    HW165138   4.814   0.753  12.883
87747SOL    HW265139   4.757   0.821  13.006
87748SOL     OW65140   5.263  10.654  11.663
87748SOL    HW165141   5.274  10.618  11.751
87748SOL    HW265142   5.330  10.722  11.656
87749SOL     OW65143   5.963   8.396  10.314
87749SOL    HW165144   5.996   8.477  10.276
87749SOL    HW265145   5.957   8.335  10.240
87750SOL     OW65146   5.022   9.565   0.186
87750SOL    HW165147   4.939   9.536   0.150
87750SOL    HW265148   5.001   9.644   0.237
87751SOL     OW65149   3.081   7.850   6.096
87751SOL    HW165150   3.093   7.756   6.097
87751SOL    HW265151   2.990   7.863   6.068
87752SOL     OW65152  13.514   9.141   9.999
87752SOL    HW165153  13.423   9.113   9.994
87752SOL    HW265154  13.519   9.194  10.078
87753SOL     OW65155   3.220   4.762   3.457
87753SOL    HW165156   3.280   4.774   3.531
87753SOL    HW265157   3.146   4.820   3.477
87754SOL     OW65158   8.746   5.755   6.155
87754SOL    HW165159   8.675   5.819   6.153
87754SOL    HW265160   8.743   5.719   6.244
87755SOL     OW65161  14.400  11.940   9.834
87755SOL    HW165162  14.415  12.025   9.875
87755SOL    HW265163  14.307  11.940   9.814
87756SOL     OW65164   5.510  13.720  10.454
87756SOL    HW165165   5.509  13.682  10.542
87756SOL    HW265166   5.542  13.649  10.398
87757SOL     OW65167   7.416   9.465   8.674
87757SOL    HW165168   7.426   9.560   8.684
87757SOL    HW265169   7.501   9.429   8.702
87758SOL     OW65170   0.929   3.648   4.820
87758SOL    HW165171   0.979   3.698   4.756
87758SOL    HW265172   0.931   3.702   4.899
87759SOL     OW65173   3.983   8.634  10.762
87759SOL    HW165174   4.016   8.713  10.805
87759SOL    HW265175   3.980   8.657  10.669
87760SOL     OW65176   3.221  11.511   0.538
87760SOL    HW165177   3.149  11.536   0.594
87760SOL    HW265178   3.256  11.593   0.504
87761SOL     OW65179   2.780   9.915   4.725
87761SOL    HW165180   2.706   9.859   4.749
87761SOL    HW265181   2.779   9.917   4.629
87762SOL     OW65182   4.640   6.066   5.989
87762SOL    HW165183   4.652   6.130   6.060
87762SOL    HW265184   4.727   6.028   5.977
87763SOL     OW65185  10.825  13.909   7.658
87763SOL    HW165186  10.853  13.994   7.693
87763SOL    HW265187  10.907  13.861   7.645
87764SOL     OW65188  10.728   7.768  11.340
87764SOL    HW165189  10.786   7.791  11.412
87764SOL    HW265190  10.778   7.791  11.261
87765SOL     OW65191  13.586   2.997   8.464
87765SOL    HW165192  13.509   2.973   8.413
87765SOL    HW265193  13.659   2.953   8.421
87766SOL     OW65194   3.250   5.728   0.876
87766SOL    HW165195   3.314   5.745   0.808
87766SOL    HW265196   3.220   5.815   0.903
87767SOL     OW65197   0.337   7.560  13.363
87767SOL    HW165198   0.306   7.566  13.272
87767SOL    HW265199   0.260   7.580  13.416
87768SOL     OW65200   6.800   1.719   3.076
87768SOL    HW165201   6.774   1.732   2.985
87768SOL    HW265202   6.785   1.805   3.118
87769SOL     OW65203   9.875   3.590   1.487
87769SOL    HW165204   9.851   3.663   1.431
87769SOL    HW265205   9.796   3.573   1.539
87770SOL     OW65206   0.587   6.381  11.935
87770SOL    HW165207   0.576   6.382  11.840
87770SOL    HW265208   0.499   6.366  11.969
87771SOL     OW65209   0.111  13.798   7.561
87771SOL    HW165210   0.020  13.771   7.543
87771SOL    HW265211   0.149  13.812   7.474
87772SOL     OW65212   3.509   4.964   3.402
87772SOL    HW165213   3.534   4.956   3.494
87772SOL    HW265214   3.535   4.881   3.362
87773SOL     OW65215   8.688   3.830   5.985
87773SOL    HW165216   8.693   3.925   5.995
87773SOL    HW265217   8.599   3.808   6.011
87774SOL     OW65218  10.013  13.530   5.416
87774SOL    HW165219  10.060  13.595   5.469
87774SOL    HW265220   9.964  13.582   5.353
87775SOL     OW65221   7.803   6.787   5.407
87775SOL    HW165222   7.720   6.740   5.394
87775SOL    HW265223   7.821   6.828   5.323
87776SOL     OW65224   8.648   4.072   2.440
87776SOL    HW165225   8.559   4.097   2.412
87776SOL    HW265226   8.641   4.061   2.534
87777SOL     OW65227  12.837   2.695   7.692
87777SOL    HW165228  12.763   2.683   7.632
87777SOL    HW265229  12.901   2.630   7.664
87778SOL     OW65230  12.514   6.112  11.330
87778SOL    HW165231  12.429   6.111  11.373
87778SOL    HW265232  12.577   6.119  11.402
87779SOL     OW65233   9.659   8.227   1.519
87779SOL    HW165234   9.694   8.165   1.454
87779SOL    HW265235   9.634   8.304   1.467
87780SOL     OW65236  12.808  10.344   8.902
87780SOL    HW165237  12.721  10.321   8.870
87780SOL    HW265238  12.867  10.325   8.830
87781SOL     OW65239  12.234   9.582   9.218
87781SOL    HW165240  12.229   9.565   9.124
87781SOL    HW265241  12.226   9.495   9.258
87782SOL     OW65242   0.606   0.312   9.943
87782SOL    HW165243   0.605   0.331  10.037
87782SOL    HW265244   0.514   0.310   9.918
87783SOL     OW65245   1.302   7.802   2.211
87783SOL    HW165246   1.332   7.744   2.281
87783SOL    HW265247   1.245   7.747   2.157
87784SOL     OW65248   0.125   7.551  11.242
87784SOL    HW165249   0.217   7.529  11.258
87784SOL    HW265250   0.079   7.521  11.320
87785SOL     OW65251   5.933   1.175  13.428
87785SOL    HW165252   5.921   1.194  13.521
87785SOL    HW265253   5.865   1.112  13.407
87786SOL     OW65254   8.928   4.303   0.767
87786SOL    HW165255   8.917   4.246   0.692
87786SOL    HW265256   8.901   4.389   0.736
87787SOL     OW65257   0.538   1.984   6.713
87787SOL    HW165258   0.607   1.918   6.725
87787SOL    HW265259   0.580   2.053   6.662
87788SOL     OW65260  14.448  11.869  12.024
87788SOL    HW165261  14.411  11.925  11.955
87788SOL    HW265262  14.467  11.786  11.980
87789SOL     OW65263   6.635   5.048   7.170
87789SOL    HW165264   6.579   5.010   7.238
87789SOL    HW265265   6.659   5.134   7.204
87790SOL     OW65266  10.679  12.573   6.428
87790SOL    HW165267  10.689  12.529   6.343
87790SOL    HW265268  10.716  12.511   6.491
87791SOL     OW65269   6.327  13.553  13.705
87791SOL    HW165270   6.322  13.503  13.786
87791SOL    HW265271   6.402  13.516  13.658
87792SOL     OW65272  13.723   6.377   7.318
87792SOL    HW165273  13.804   6.353   7.273
87792SOL    HW265274  13.663   6.404   7.248
87793SOL     OW65275  10.626  10.960   1.144
87793SOL    HW165276  10.592  10.940   1.231
87793SOL    HW265277  10.593  10.890   1.088
87794SOL     OW65278   8.425   5.260   4.384
87794SOL    HW165279   8.435   5.354   4.399
87794SOL    HW265280   8.467   5.244   4.299
87795SOL     OW65281  13.819   6.722   2.362
87795SOL    HW165282  13.882   6.784   2.326
87795SOL    HW265283  13.736   6.743   2.319
87796SOL     OW65284   2.500  10.471  13.073
87796SOL    HW165285   2.579  10.418  13.086
87796SOL    HW265286   2.514  10.549  13.126
87797SOL     OW65287   1.409   8.255   2.096
87797SOL    HW165288   1.315   8.271   2.091
87797SOL    HW265289   1.433   8.280   2.186
87798SOL     OW65290  11.405   3.149   2.479
87798SOL    HW165291  11.405   3.244   2.470
87798SOL    HW265292  11.425   3.134   2.572
87799SOL     OW65293  13.317  10.079  13.514
87799SOL    HW165294  13.376  10.154  13.518
87799SOL    HW265295  13.370  10.005  13.545
87800SOL     OW65296  12.346  14.380   0.065
87800SOL    HW165297  12.350  14.475   0.061
87800SOL    HW265298  12.308  14.354  14.851
87801SOL     OW65299   6.509   2.105   5.146
87801SOL    HW165300   6.433   2.147   5.106
87801SOL    HW265301   6.476   2.073   5.230
87802SOL     OW65302  11.472   0.742  10.001
87802SOL    HW165303  11.419   0.688  10.059
87802SOL    HW265304  11.547   0.769  10.055
87803SOL     OW65305  14.586   8.379   7.135
87803SOL    HW165306  14.633   8.441   7.191
87803SOL    HW265307  14.494   8.404   7.145
87804SOL     OW65308  13.850   2.075   5.579
87804SOL    HW165309  13.773   2.034   5.617
87804SOL    HW265310  13.912   2.082   5.652
87805SOL     OW65311  12.146   0.587  13.466
87805SOL    HW165312  12.182   0.500  13.478
87805SOL    HW265313  12.149   0.627  13.553
87806SOL     OW65314   6.760   7.986  12.923
87806SOL    HW165315   6.833   7.986  12.861
87806SOL    HW265316   6.740   7.894  12.936
87807SOL     OW65317   7.569  12.236   8.424
87807SOL    HW165318   7.658  12.200   8.423
87807SOL    HW265319   7.557  12.270   8.335
87808SOL     OW65320  14.417  10.715   4.402
87808SOL    HW165321  14.408  10.723   4.497
87808SOL    HW265322  14.397  10.803   4.369
87809SOL     OW65323   7.002   6.776   1.595
87809SOL    HW165324   7.039   6.832   1.527
87809SOL    HW265325   6.962   6.703   1.547
87810SOL     OW65326   6.069   5.426  13.117
87810SOL    HW165327   6.005   5.364  13.153
87810SOL    HW265328   6.019   5.506  13.103
87811SOL     OW65329  10.076   1.832  10.564
87811SOL    HW165330  10.062   1.770  10.635
87811SOL    HW265331   9.991   1.875  10.553
87812SOL     OW65332   9.088   0.596  13.655
87812SOL    HW165333   9.104   0.517  13.604
87812SOL    HW265334   9.089   0.567  13.746
87813SOL     OW65335  14.564  10.705  13.150
87813SOL    HW165336  14.552  10.717  13.244
87813SOL    HW265337  14.520  10.780  13.110
87814SOL     OW65338   8.144   0.290   5.036
87814SOL    HW165339   8.227   0.330   5.011
87814SOL    HW265340   8.094   0.361   5.076
87815SOL     OW65341   3.903  14.524   4.974
87815SOL    HW165342   3.960  14.583   4.926
87815SOL    HW265343   3.816  14.540   4.937
87816SOL     OW65344  12.411   8.705   0.463
87816SOL    HW165345  12.357   8.685   0.386
87816SOL    HW265346  12.472   8.772   0.432
87817SOL     OW65347   4.702   5.768  10.236
87817SOL    HW165348   4.753   5.694  10.269
87817SOL    HW265349   4.632   5.727  10.184
87818SOL     OW65350   7.795  11.002   8.580
87818SOL    HW165351   7.770  10.910   8.573
87818SOL    HW265352   7.751  11.032   8.660
87819SOL     OW65353  12.449   3.284   2.851
87819SOL    HW165354  12.474   3.238   2.771
87819SOL    HW265355  12.446   3.215   2.918
87820SOL     OW65356   7.750  10.720  14.023
87820SOL    HW165357   7.693  10.657  13.980
87820SOL    HW265358   7.815  10.743  13.956
87821SOL     OW65359   5.828   5.314   8.985
87821SOL    HW165360   5.735   5.296   8.973
87821SOL    HW265361   5.832   5.406   9.010
87822SOL     OW65362   4.666   4.513   2.836
87822SOL    HW165363   4.600   4.514   2.766
87822SOL    HW265364   4.732   4.451   2.805
87823SOL     OW65365  14.367   4.256   4.780
87823SOL    HW165366  14.371   4.342   4.822
87823SOL    HW265367  14.425   4.201   4.834
87824SOL     OW65368  14.102  13.841   8.949
87824SOL    HW165369  14.029  13.900   8.964
87824SOL    HW265370  14.127  13.811   9.037
87825SOL     OW65371  11.222   2.904  12.321
87825SOL    HW165372  11.259   2.840  12.261
87825SOL    HW265373  11.239   2.989  12.279
87826SOL     OW65374   0.007   9.300   7.061
87826SOL    HW165375   0.037   9.377   7.012
87826SOL    HW265376   0.075   9.284   7.126
87827SOL     OW65377  14.293  11.031   1.282
87827SOL    HW165378  14.221  11.048   1.343
87827SOL    HW265379  14.358  11.098   1.303
87828SOL     OW65380   6.702   2.821   3.347
87828SOL    HW165381   6.728   2.751   3.407
87828SOL    HW265382   6.670   2.891   3.404
87829SOL     OW65383  11.673  10.381   1.665
87829SOL    HW165384  11.591  10.334   1.651
87829SOL    HW265385  11.727  10.321   1.716
87830SOL     OW65386  11.835  11.462  10.087
87830SOL    HW165387  11.864  11.392  10.028
87830SOL    HW265388  11.778  11.418  10.149
87831SOL     OW65389   5.847   3.109   6.394
87831SOL    HW165390   5.760   3.098   6.356
87831SOL    HW265391   5.832   3.115   6.488
87832SOL     OW65392  11.509   1.022   3.458
87832SOL    HW165393  11.450   1.009   3.533
87832SOL    HW265394  11.458   0.997   3.382
87833SOL     OW65395   0.907   2.548  12.599
87833SOL    HW165396   0.840   2.489  12.565
87833SOL    HW265397   0.901   2.538  12.694
87834SOL     OW65398   3.581   5.982   4.981
87834SOL    HW165399   3.547   5.896   5.005
87834SOL    HW265400   3.669   5.966   4.948
87835SOL     OW65401  11.401   1.772   0.511
87835SOL    HW165402  11.477   1.716   0.529
87835SOL    HW265403  11.425   1.820   0.432
87836SOL     OW65404   4.814   2.010   9.152
87836SOL    HW165405   4.836   2.094   9.192
87836SOL    HW265406   4.804   1.951   9.227
87837SOL     OW65407  10.645   0.575  10.427
87837SOL    HW165408  10.636   0.601  10.336
87837SOL    HW265409  10.675   0.654  10.472
87838SOL     OW65410   4.047  10.636   9.346
87838SOL    HW165411   4.017  10.719   9.385
87838SOL    HW265412   4.054  10.654   9.253
87839SOL     OW65413   8.642   0.477   6.676
87839SOL    HW165414   8.724   0.498   6.720
87839SOL    HW265415   8.574   0.505   6.737
87840SOL     OW65416   1.880   1.160  14.196
87840SOL    HW165417   1.869   1.088  14.258
87840SOL    HW265418   1.803   1.215  14.209
87841SOL     OW65419   1.218  11.012   4.144
87841SOL    HW165420   1.180  11.067   4.212
87841SOL    HW265421   1.240  11.073   4.073
87842SOL     OW65422   7.867  13.829   1.322
87842SOL    HW165423   7.847  13.785   1.240
87842SOL    HW265424   7.913  13.908   1.297
87843SOL     OW65425  12.639  11.969   7.364
87843SOL    HW165426  12.648  11.986   7.458
87843SOL    HW265427  12.557  12.012   7.339
87844SOL     OW65428   6.945   3.338  11.830
87844SOL    HW165429   6.969   3.296  11.748
87844SOL    HW265430   7.008   3.410  11.839
87845SOL     OW65431   2.533   2.799   3.331
87845SOL    HW165432   2.582   2.781   3.251
87845SOL    HW265433   2.559   2.888   3.355
87846SOL     OW65434   6.878   0.010   2.008
87846SOL    HW165435   6.792  14.844   1.986
87846SOL    HW265436   6.880   0.012   2.103
87847SOL     OW65437   6.977  10.693   8.044
87847SOL    HW165438   7.062  10.732   8.028
87847SOL    HW265439   6.994  10.599   8.046
87848SOL     OW65440   8.944   4.158   8.183
87848SOL    HW165441   8.911   4.244   8.160
87848SOL    HW265442   8.901   4.098   8.122
87849SOL     OW65443   1.144   8.530   1.585
87849SOL    HW165444   1.063   8.565   1.624
87849SOL    HW265445   1.120   8.508   1.495
87850SOL     OW65446   8.076   5.285   0.662
87850SOL    HW165447   8.140   5.318   0.725
87850SOL    HW265448   8.031   5.363   0.631
87851SOL     OW65449   4.830   2.085   4.295
87851SOL    HW165450   4.897   2.058   4.233
87851SOL    HW265451   4.866   2.164   4.337
87852SOL     OW65452   9.407   2.095   0.422
87852SOL    HW165453   9.404   2.116   0.329
87852SOL    HW265454   9.392   2.000   0.426
87853SOL     OW65455  11.468   8.507  11.502
87853SOL    HW165456  11.393   8.461  11.464
87853SOL    HW265457  11.478   8.585  11.446
87854SOL     OW65458   2.472   5.621   7.430
87854SOL    HW165459   2.424   5.588   7.506
87854SOL    HW265460   2.438   5.570   7.356
87855SOL     OW65461   1.620   6.028   1.528
87855SOL    HW165462   1.699   6.017   1.580
87855SOL    HW265463   1.553   5.979   1.575
87856SOL     OW65464  13.345   5.218  10.323
87856SOL    HW165465  13.381   5.167  10.395
87856SOL    HW265466  13.373   5.172  10.244
87857SOL     OW65467   3.379   7.543   1.203
87857SOL    HW165468   3.308   7.501   1.154
87857SOL    HW265469   3.453   7.483   1.195
87858SOL     OW65470   0.781  12.473   0.603
87858SOL    HW165471   0.842  12.460   0.531
87858SOL    HW265472   0.804  12.405   0.666
87859SOL     OW65473   8.065   2.148   7.246
87859SOL    HW165474   8.071   2.103   7.330
87859SOL    HW265475   7.973   2.140   7.221
87860SOL     OW65476   9.401  11.645   5.680
87860SOL    HW165477   9.405  11.558   5.720
87860SOL    HW265478   9.310  11.656   5.655
87861SOL     OW65479   8.915  11.190  13.267
87861SOL    HW165480   8.992  11.246  13.280
87861SOL    HW265481   8.950  11.111  13.227
87862SOL     OW65482   9.995   0.447  10.088
87862SOL    HW165483   9.966   0.356  10.075
87862SOL    HW265484   9.947   0.476  10.166
87863SOL     OW65485   6.453  11.981   2.523
87863SOL    HW165486   6.468  11.904   2.468
87863SOL    HW265487   6.369  11.964   2.566
87864SOL     OW65488   6.449  11.062   9.370
87864SOL    HW165489   6.497  11.143   9.355
87864SOL    HW265490   6.394  11.080   9.447
87865SOL     OW65491   4.581   3.760   9.152
87865SOL    HW165492   4.658   3.725   9.106
87865SOL    HW265493   4.509   3.704   9.123
87866SOL     OW65494   5.424  13.509  11.213
87866SOL    HW165495   5.346  13.565  11.216
87866SOL    HW265496   5.409  13.444  11.281
87867SOL     OW65497   4.734  14.064   6.832
87867SOL    HW165498   4.663  14.034   6.888
87867SOL    HW265499   4.695  14.133   6.778
87868SOL     OW65500  11.630   9.082   3.533
87868SOL    HW165501  11.637   9.080   3.628
87868SOL    HW265502  11.594   8.997   3.510
87869SOL     OW65503  12.945   1.250   0.097
87869SOL    HW165504  12.994   1.177   0.057
87869SOL    HW265505  12.974   1.327   0.049
87870SOL     OW65506   7.024   1.713   4.673
87870SOL    HW165507   6.980   1.760   4.744
87870SOL    HW265508   6.957   1.656   4.636
87871SOL     OW65509  13.095   0.050   1.367
87871SOL    HW165510  13.011   0.007   1.351
87871SOL    HW265511  13.135   0.057   1.280
87872SOL     OW65512   1.007   5.878  11.283
87872SOL    HW165513   1.053   5.954  11.318
87872SOL    HW265514   0.931   5.914  11.238
87873SOL     OW65515  10.381  11.731   6.932
87873SOL    HW165516  10.309  11.671   6.951
87873SOL    HW265517  10.410  11.706   6.844
87874SOL     OW65518   6.980   2.834   5.476
87874SOL    HW165519   6.980   2.921   5.514
87874SOL    HW265520   6.935   2.779   5.541
87875SOL     OW65521  12.673   9.498   6.478
87875SOL    HW165522  12.732   9.424   6.490
87875SOL    HW265523  12.586   9.458   6.470
87876SOL     OW65524  10.682   0.361   4.641
87876SOL    HW165525  10.668   0.270   4.613
87876SOL    HW265526  10.622   0.412   4.587
87877SOL     OW65527   0.162  10.510   7.373
87877SOL    HW165528   0.120  10.554   7.299
87877SOL    HW265529   0.168  10.419   7.347
87878SOL     OW65530   6.219   2.891   5.377
87878SOL    HW165531   6.270   2.864   5.301
87878SOL    HW265532   6.235   2.823   5.442
87879SOL     OW65533   7.602   7.530   2.280
87879SOL    HW165534   7.536   7.465   2.254
87879SOL    HW265535   7.579   7.554   2.370
87880SOL     OW65536   3.826  11.241   2.581
87880SOL    HW165537   3.743  11.284   2.604
87880SOL    HW265538   3.826  11.239   2.485
87881SOL     OW65539  14.172   4.826   9.092
87881SOL    HW165540  14.088   4.867   9.115
87881SOL    HW265541  14.224   4.831   9.173
87882SOL     OW65542  11.351   3.951   0.292
87882SOL    HW165543  11.429   3.929   0.342
87882SOL    HW265544  11.353   3.891   0.217
87883SOL     OW65545   0.414   8.793   6.890
87883SOL    HW165546   0.495   8.760   6.928
87883SOL    HW265547   0.427   8.888   6.886
87884SOL     OW65548  10.201  11.533   9.205
87884SOL    HW165549  10.192  11.443   9.235
87884SOL    HW265550  10.179  11.530   9.112
87885SOL     OW65551   9.254   7.251   0.097
87885SOL    HW165552   9.257   7.192   0.172
87885SOL    HW265553   9.248   7.194   0.021
87886SOL     OW65554   3.467   7.980   5.530
87886SOL    HW165555   3.445   8.071   5.551
87886SOL    HW265556   3.561   7.974   5.546
87887SOL     OW65557   6.788   9.041  13.988
87887SOL    HW165558   6.720   8.974  13.993
87887SOL    HW265559   6.820   9.037  13.898
87888SOL     OW65560   5.474   0.856   6.708
87888SOL    HW165561   5.430   0.773   6.690
87888SOL    HW265562   5.567   0.836   6.706
87889SOL     OW65563   9.160   9.459   6.292
87889SOL    HW165564   9.090   9.465   6.357
87889SOL    HW265565   9.229   9.516   6.325
87890SOL     OW65566  12.786   9.948  13.357
87890SOL    HW165567  12.692   9.952  13.338
87890SOL    HW265568  12.791   9.927  13.450
87891SOL     OW65569   0.426   1.274   3.101
87891SOL    HW165570   0.394   1.185   3.117
87891SOL    HW265571   0.352   1.331   3.121
87892SOL     OW65572  13.975  11.708  12.355
87892SOL    HW165573  13.919  11.774  12.395
87892SOL    HW265574  14.057  11.754  12.338
87893SOL     OW65575   0.410  14.032   9.052
87893SOL    HW165576   0.459  14.099   9.004
87893SOL    HW265577   0.474  13.964   9.072
87894SOL     OW65578  14.634   2.085   5.639
87894SOL    HW165579  14.649   2.022   5.709
87894SOL    HW265580  14.546   2.065   5.607
87895SOL     OW65581  12.292  13.810   5.578
87895SOL    HW165582  12.340  13.728   5.584
87895SOL    HW265583  12.234  13.809   5.655
87896SOL     OW65584  14.392  14.588  10.927
87896SOL    HW165585  14.425  14.667  10.969
87896SOL    HW265586  14.329  14.552  10.989
87897SOL     OW65587   4.882   5.996   0.461
87897SOL    HW165588   4.887   5.923   0.400
87897SOL    HW265589   4.967   6.040   0.452
87898SOL     OW65590   8.939   6.940   5.611
87898SOL    HW165591   9.010   6.983   5.564
87898SOL    HW265592   8.949   6.970   5.702
87899SOL     OW65593   9.192   2.371  13.648
87899SOL    HW165594   9.247   2.365  13.570
87899SOL    HW265595   9.109   2.333  13.621
87900SOL     OW65596  11.613  14.329   6.578
87900SOL    HW165597  11.643  14.406   6.531
87900SOL    HW265598  11.631  14.349   6.670
87901SOL     OW65599   3.398  13.662   2.682
87901SOL    HW165600   3.305  13.654   2.659
87901SOL    HW265601   3.409  13.609   2.760
87902SOL     OW65602  13.154   0.215   4.371
87902SOL    HW165603  13.086   0.261   4.322
87902SOL    HW265604  13.231   0.271   4.365
87903SOL     OW65605   7.052   9.353  13.937
87903SOL    HW165606   6.972   9.366  13.988
87903SOL    HW265607   7.120   9.399  13.986
87904SOL     OW65608   1.966   9.770   7.430
87904SOL    HW165609   1.896   9.705   7.437
87904SOL    HW265610   1.929   9.841   7.378
87905SOL     OW65611   2.968  14.567   7.534
87905SOL    HW165612   3.034  14.498   7.536
87905SOL    HW265613   2.886  14.522   7.555
87906SOL     OW65614   7.489  12.907   2.443
87906SOL    HW165615   7.400  12.879   2.424
87906SOL    HW265616   7.543  12.831   2.421
87907SOL     OW65617   8.177   8.455   4.706
87907SOL    HW165618   8.136   8.455   4.620
87907SOL    HW265619   8.229   8.375   4.708
87908SOL     OW65620   9.446   9.300  11.751
87908SOL    HW165621   9.538   9.324  11.764
87908SOL    HW265622   9.445   9.247  11.672
87909SOL     OW65623   2.351  13.956   5.061
87909SOL    HW165624   2.257  13.938   5.065
87909SOL    HW265625   2.390  13.877   5.023
87910SOL     OW65626  13.697   2.805   9.314
87910SOL    HW165627  13.714   2.774   9.225
87910SOL    HW265628  13.721   2.897   9.313
87911SOL     OW65629  13.615   0.162   5.984
87911SOL    HW165630  13.563   0.108   5.924
87911SOL    HW265631  13.646   0.235   5.930
87912SOL     OW65632   6.412   2.372  12.416
87912SOL    HW165633   6.409   2.303  12.483
87912SOL    HW265634   6.381   2.450  12.461
87913SOL     OW65635   6.386  11.631  10.684
87913SOL    HW165636   6.403  11.550  10.732
87913SOL    HW265637   6.290  11.635  10.677
87914SOL     OW65638   0.068  11.678  13.831
87914SOL    HW165639  14.846  11.701  13.844
87914SOL    HW265640   0.109  11.696  13.916
87915SOL     OW65641   0.529   8.468  14.247
87915SOL    HW165642   0.518   8.497  14.156
87915SOL    HW265643   0.468   8.523  14.297
87916SOL     OW65644  12.298   4.398   2.670
87916SOL    HW165645  12.302   4.434   2.582
87916SOL    HW265646  12.387   4.368   2.688
87917SOL     OW65647   4.631   1.232  11.576
87917SOL    HW165648   4.605   1.193  11.492
87917SOL    HW265649   4.619   1.162  11.640
87918SOL     OW65650   9.593  14.835   8.388
87918SOL    HW165651   9.507  14.799   8.363
87918SOL    HW265652   9.642  14.840   8.306
87919SOL     OW65653   9.079   8.805   9.791
87919SOL    HW165654   9.175   8.803   9.792
87919SOL    HW265655   9.053   8.718   9.820
87920SOL     OW65656  13.290  14.636   5.341
87920SOL    HW165657  13.278  14.699   5.411
87920SOL    HW265658  13.288  14.688   5.261
87921SOL     OW65659   9.590   4.776  14.403
87921SOL    HW165660   9.683   4.775  14.428
87921SOL    HW265661   9.546   4.821  14.475
87922SOL     OW65662   5.397  10.970   5.237
87922SOL    HW165663   5.443  11.032   5.180
87922SOL    HW265664   5.332  10.929   5.180
87923SOL     OW65665   4.432  11.202   6.862
87923SOL    HW165666   4.519  11.213   6.825
87923SOL    HW265667   4.447  11.183   6.955
87924SOL     OW65668  11.517  12.141  11.060
87924SOL    HW165669  11.535  12.064  11.114
87924SOL    HW265670  11.422  12.140  11.049
87925SOL     OW65671   1.219  13.401   1.987
87925SOL    HW165672   1.233  13.462   2.059
87925SOL    HW265673   1.126  13.408   1.967
87926SOL     OW65674  11.427   3.138  11.498
87926SOL    HW165675  11.504   3.102  11.454
87926SOL    HW265676  11.409   3.220  11.452
87927SOL     OW65677   0.298   7.272  11.830
87927SOL    HW165678   0.328   7.183  11.846
87927SOL    HW265679   0.264   7.302  11.914
87928SOL     OW65680   0.408   2.951   2.153
87928SOL    HW165681   0.342   2.972   2.088
87928SOL    HW265682   0.360   2.907   2.223
87929SOL     OW65683  10.640   7.162  10.830
87929SOL    HW165684  10.726   7.160  10.873
87929SOL    HW265685  10.618   7.255  10.826
87930SOL     OW65686   3.431   5.570   1.529
87930SOL    HW165687   3.519   5.603   1.548
87930SOL    HW265688   3.372   5.637   1.561
87931SOL     OW65689   0.777  14.592  14.116
87931SOL    HW165690   0.767  14.676  14.161
87931SOL    HW265691   0.705  14.539  14.148
87932SOL     OW65692   9.175  10.783   8.635
87932SOL    HW165693   9.104  10.807   8.695
87932SOL    HW265694   9.229  10.722   8.685
87933SOL     OW65695  13.029   4.493  11.340
87933SOL    HW165696  12.975   4.526  11.412
87933SOL    HW265697  12.999   4.403  11.328
87934SOL     OW65698   3.757   1.226  10.735
87934SOL    HW165699   3.847   1.245  10.761
87934SOL    HW265700   3.752   1.130  10.733
87935SOL     OW65701  14.513   5.923  10.865
87935SOL    HW165702  14.454   5.858  10.903
87935SOL    HW265703  14.457   5.977  10.809
87936SOL     OW65704   9.474  10.636   0.005
87936SOL    HW165705   9.420  10.633  14.795
87936SOL    HW265706   9.540  10.568  14.861
87937SOL     OW65707  13.321   5.941  11.714
87937SOL    HW165708  13.277   5.862  11.682
87937SOL    HW265709  13.357   5.916  11.799
87938SOL     OW65710  11.507  12.652  10.312
87938SOL    HW165711  11.513  12.568  10.267
87938SOL    HW265712  11.488  12.630  10.403
87939SOL     OW65713   4.455   4.677   3.254
87939SOL    HW165714   4.386   4.740   3.236
87939SOL    HW265715   4.437   4.646   3.342
87940SOL     OW65716   9.476  13.382   7.228
87940SOL    HW165717   9.485  13.469   7.188
87940SOL    HW265718   9.524  13.323   7.169
87941SOL     OW65719   2.971  14.497   0.478
87941SOL    HW165720   3.044  14.534   0.427
87941SOL    HW265721   3.010  14.423   0.524
87942SOL     OW65722   5.751   2.314   4.191
87942SOL    HW165723   5.835   2.309   4.145
87942SOL    HW265724   5.739   2.227   4.229
87943SOL     OW65725  10.979   9.342   0.318
87943SOL    HW165726  11.030   9.269   0.353
87943SOL    HW265727  11.016   9.419   0.362
87944SOL     OW65728  12.109  13.993   2.564
87944SOL    HW165729  12.088  13.990   2.658
87944SOL    HW265730  12.166  13.918   2.550
87945SOL     OW65731   3.983  11.790   6.885
87945SOL    HW165732   4.071  11.772   6.852
87945SOL    HW265733   3.993  11.868   6.939
87946SOL     OW65734   1.501  13.747   6.929
87946SOL    HW165735   1.556  13.770   6.854
87946SOL    HW265736   1.423  13.802   6.919
87947SOL     OW65737   8.526  11.409   5.853
87947SOL    HW165738   8.539  11.333   5.796
87947SOL    HW265739   8.533  11.373   5.942
87948SOL     OW65740   0.707   5.120   9.111
87948SOL    HW165741   0.757   5.112   9.030
87948SOL    HW265742   0.765   5.085   9.178
87949SOL     OW65743   0.818   1.533   0.955
87949SOL    HW165744   0.863   1.498   1.031
87949SOL    HW265745   0.774   1.611   0.987
87950SOL     OW65746  10.945  14.812   6.692
87950SOL    HW165747  10.971  14.743   6.753
87950SOL    HW265748  10.850  14.820   6.704
87951SOL     OW65749  14.471  14.624  13.750
87951SOL    HW165750  14.445  14.532  13.745
87951SOL    HW265751  14.404  14.664  13.804
87952SOL     OW65752   4.834   7.260   8.733
87952SOL    HW165753   4.874   7.212   8.806
87952SOL    HW265754   4.906   7.304   8.690
87953SOL     OW65755  11.730   2.608  13.207
87953SOL    HW165756  11.686   2.597  13.123
87953SOL    HW265757  11.787   2.684  13.195
87954SOL     OW65758   9.741   0.559   0.459
87954SOL    HW165759   9.765   0.568   0.552
87954SOL    HW265760   9.791   0.626   0.414
87955SOL     OW65761   3.746   3.388  14.462
87955SOL    HW165762   3.802   3.380  14.385
87955SOL    HW265763   3.804   3.421  14.531
87956SOL     OW65764  13.546  10.425   3.691
87956SOL    HW165765  13.616  10.416   3.754
87956SOL    HW265766  13.475  10.370   3.725
87957SOL     OW65767   1.259   6.081   8.282
87957SOL    HW165768   1.280   6.158   8.230
87957SOL    HW265769   1.285   6.104   8.371
87958SOL     OW65770   6.838   6.183   8.652
87958SOL    HW165771   6.785   6.260   8.631
87958SOL    HW265772   6.789   6.110   8.614
87959SOL     OW65773   2.213   9.530  11.146
87959SOL    HW165774   2.233   9.468  11.216
87959SOL    HW265775   2.119   9.543  11.151
87960SOL     OW65776   2.619   4.107  12.735
87960SOL    HW165777   2.640   4.200  12.735
87960SOL    HW265778   2.577   4.091  12.650
87961SOL     OW65779   7.443   0.957   4.436
87961SOL    HW165780   7.356   0.974   4.400
87961SOL    HW265781   7.472   0.876   4.394
87962SOL     OW65782   5.466  12.222   4.307
87962SOL    HW165783   5.482  12.128   4.320
87962SOL    HW265784   5.500  12.263   4.387
87963SOL     OW65785   5.527   4.255   2.531
87963SOL    HW165786   5.538   4.301   2.447
87963SOL    HW265787   5.609   4.270   2.577
87964SOL     OW65788  11.740   9.375   6.822
87964SOL    HW165789  11.679   9.325   6.876
87964SOL    HW265790  11.827   9.342   6.847
87965SOL     OW65791   5.064  13.366   8.932
87965SOL    HW165792   5.125  13.435   8.957
87965SOL    HW265793   5.067  13.303   9.004
87966SOL     OW65794  10.238  14.841   7.998
87966SOL    HW165795  10.296  14.765   7.999
87966SOL    HW265796  10.242   0.004   7.908
87967SOL     OW65797   4.450   8.966  10.050
87967SOL    HW165798   4.418   8.901  10.112
87967SOL    HW265799   4.536   8.934  10.024
87968SOL     OW65800   2.024   7.101   7.671
87968SOL    HW165801   1.985   7.173   7.621
87968SOL    HW265802   2.009   7.024   7.617
87969SOL     OW65803  11.518   4.632  14.482
87969SOL    HW165804  11.496   4.617  14.574
87969SOL    HW265805  11.609   4.603  14.474
87970SOL     OW65806  11.986   7.322  13.680
87970SOL    HW165807  11.903   7.310  13.727
87970SOL    HW265808  11.960   7.345  13.591
87971SOL     OW65809   7.270   1.405   6.391
87971SOL    HW165810   7.199   1.397   6.455
87971SOL    HW265811   7.300   1.495   6.400
87972SOL     OW65812   0.560  12.813   4.020
87972SOL    HW165813   0.477  12.860   4.025
87972SOL    HW265814   0.540  12.725   4.052
87973SOL     OW65815   3.339   8.656  10.338
87973SOL    HW165816   3.245   8.651  10.357
87973SOL    HW265817   3.363   8.567  10.311
87974SOL     OW65818   4.284   2.416   0.925
87974SOL    HW165819   4.248   2.338   0.884
87974SOL    HW265820   4.303   2.389   1.015
87975SOL     OW65821  10.642   2.879   5.384
87975SOL    HW165822  10.621   2.930   5.462
87975SOL    HW265823  10.702   2.935   5.335
87976SOL     OW65824   6.030  11.567   0.365
87976SOL    HW165825   6.041  11.596   0.455
87976SOL    HW265826   5.954  11.615   0.333
87977SOL     OW65827   9.884   0.154   9.498
87977SOL    HW165828   9.947   0.082   9.495
87977SOL    HW265829   9.926   0.220   9.553
87978SOL     OW65830   0.264   3.071   8.917
87978SOL    HW165831   0.316   3.065   8.997
87978SOL    HW265832   0.288   2.994   8.867
87979SOL     OW65833   0.051   1.776   7.093
87979SOL    HW165834   0.015   1.797   7.007
87979SOL    HW265835   0.144   1.794   7.085
87980SOL     OW65836   0.436  14.668   1.638
87980SOL    HW165837   0.398  14.651   1.725
87980SOL    HW265838   0.361  14.678   1.580
87981SOL     OW65839   3.476   0.519   3.835
87981SOL    HW165840   3.519   0.473   3.908
87981SOL    HW265841   3.523   0.488   3.757
87982SOL     OW65842   8.234   6.051  11.630
87982SOL    HW165843   8.300   6.028  11.564
87982SOL    HW265844   8.284   6.060  11.711
87983SOL     OW65845   4.353   4.055   8.012
87983SOL    HW165846   4.390   4.116   7.948
87983SOL    HW265847   4.262   4.084   8.022
87984SOL     OW65848   9.676  12.523  12.374
87984SOL    HW165849   9.723  12.457  12.425
87984SOL    HW265850   9.676  12.601  12.429
87985SOL     OW65851  11.111  13.349   8.631
87985SOL    HW165852  11.114  13.371   8.538
87985SOL    HW265853  11.121  13.253   8.633
87986SOL     OW65854   1.389  12.375   7.637
87986SOL    HW165855   1.471  12.378   7.686
87986SOL    HW265856   1.412  12.332   7.554
87987SOL     OW65857   9.272   6.088   2.387
87987SOL    HW165858   9.209   6.017   2.373
87987SOL    HW265859   9.230   6.144   2.452
87988SOL     OW65860   6.677  10.642  12.468
87988SOL    HW165861   6.661  10.548  12.478
87988SOL    HW265862   6.736  10.649  12.393
87989SOL     OW65863  11.081   8.579  12.007
87989SOL    HW165864  11.027   8.507  12.040
87989SOL    HW265865  11.040   8.603  11.924
87990SOL     OW65866   7.451   1.316   9.916
87990SOL    HW165867   7.450   1.222   9.932
87990SOL    HW265868   7.468   1.325   9.823
87991SOL     OW65869  12.982   6.312   3.829
87991SOL    HW165870  13.023   6.398   3.834
87991SOL    HW265871  12.914   6.313   3.897
87992SOL     OW65872   1.656   3.932   2.965
87992SOL    HW165873   1.661   4.001   2.899
87992SOL    HW265874   1.709   3.860   2.928
87993SOL     OW65875  10.072   6.682  12.120
87993SOL    HW165876   9.987   6.722  12.139
87993SOL    HW265877  10.059   6.589  12.140
87994SOL     OW65878  12.875  11.553   9.122
87994SOL    HW165879  12.920  11.631   9.088
87994SOL    HW265880  12.895  11.485   9.058
87995SOL     OW65881   0.815   7.334   9.092
87995SOL    HW165882   0.818   7.429   9.099
87995SOL    HW265883   0.782   7.305   9.178
87996SOL     OW65884   9.223   3.264   5.133
87996SOL    HW165885   9.176   3.182   5.152
87996SOL    HW265886   9.268   3.285   5.214
87997SOL     OW65887   8.965  12.832   5.437
87997SOL    HW165888   9.050  12.791   5.446
87997SOL    HW265889   8.963  12.864   5.347
87998SOL     OW65890   7.954  14.303  14.176
87998SOL    HW165891   7.921  14.381  14.220
87998SOL    HW265892   7.986  14.247  14.247
87999SOL     OW65893   9.391  10.216   0.843
87999SOL    HW165894   9.427  10.156   0.908
87999SOL    HW265895   9.317  10.168   0.805
88000SOL     OW65896   1.858   6.092   0.868
88000SOL    HW165897   1.885   6.183   0.881
88000SOL    HW265898   1.763   6.094   0.867
88001SOL     OW65899  11.671  13.346  10.798
88001SOL    HW165900  11.668  13.289  10.876
88001SOL    HW265901  11.586  13.332  10.756
88002SOL     OW65902   7.356   5.153  11.808
88002SOL    HW165903   7.417   5.226  11.802
88002SOL    HW265904   7.379   5.096  11.734
88003SOL     OW65905   0.652   4.713   0.202
88003SOL    HW165906   0.744   4.738   0.199
88003SOL    HW265907   0.608   4.781   0.150
88004SOL     OW65908   7.111   3.359   6.416
88004SOL    HW165909   7.203   3.333   6.407
88004SOL    HW265910   7.086   3.326   6.502
88005SOL     OW65911   1.645  12.368   5.761
88005SOL    HW165912   1.621  12.388   5.671
88005SOL    HW265913   1.670  12.453   5.799
88006SOL     OW65914   2.469   2.382   7.975
88006SOL    HW165915   2.509   2.295   7.984
88006SOL    HW265916   2.386   2.374   8.023
88007SOL     OW65917   3.415   8.332   6.764
88007SOL    HW165918   3.392   8.242   6.787
88007SOL    HW265919   3.382   8.344   6.675
88008SOL     OW65920  12.285  10.374   5.450
88008SOL    HW165921  12.314  10.372   5.359
88008SOL    HW265922  12.324  10.454   5.486
88009SOL     OW65923  12.836  12.106  13.239
88009SOL    HW165924  12.826  12.089  13.145
88009SOL    HW265925  12.930  12.105  13.253
88010SOL     OW65926   9.048  10.399   9.834
88010SOL    HW165927   9.016  10.345   9.907
88010SOL    HW265928   9.118  10.347   9.795
88011SOL     OW65929   7.440  13.047   9.617
88011SOL    HW165930   7.459  12.971   9.562
88011SOL    HW265931   7.420  13.117   9.556
88012SOL     OW65932   4.182  11.150  11.130
88012SOL    HW165933   4.262  11.157  11.182
88012SOL    HW265934   4.197  11.075  11.073
88013SOL     OW65935  14.716   9.331   5.698
88013SOL    HW165936  14.638   9.325   5.643
88013SOL    HW265937  14.787   9.350   5.637
88014SOL     OW65938  13.471   7.343   1.684
88014SOL    HW165939  13.510   7.279   1.743
88014SOL    HW265940  13.402   7.384   1.735
88015SOL     OW65941   7.415  11.275   3.540
88015SOL    HW165942   7.417  11.301   3.632
88015SOL    HW265943   7.505  11.288   3.509
88016SOL     OW65944   6.018   5.911  14.094
88016SOL    HW165945   6.058   5.928  14.009
88016SOL    HW265946   6.092   5.907  14.155
88017SOL     OW65947  13.189  12.362   8.063
88017SOL    HW165948  13.174  12.269   8.080
88017SOL    HW265949  13.223  12.396   8.145
88018SOL     OW65950   9.023   1.799   2.167
88018SOL    HW165951   9.111   1.778   2.137
88018SOL    HW265952   9.035   1.830   2.256
88019SOL     OW65953  14.612   2.865   4.079
88019SOL    HW165954  14.550   2.933   4.105
88019SOL    HW265955  14.569   2.783   4.102
88020SOL     OW65956  12.121   3.900   6.493
88020SOL    HW165957  12.082   3.925   6.577
88020SOL    HW265958  12.074   3.951   6.428
88021SOL     OW65959   9.683   9.114   7.012
88021SOL    HW165960   9.604   9.105   7.065
88021SOL    HW265961   9.744   9.050   7.048
88022SOL     OW65962   3.008   5.945   8.617
88022SOL    HW165963   2.931   5.898   8.586
88022SOL    HW265964   3.012   6.023   8.562
88023SOL     OW65965  14.008  10.085   4.611
88023SOL    HW165966  14.015  10.127   4.525
88023SOL    HW265967  13.920  10.106   4.641
88024SOL     OW65968  13.508   9.594  11.756
88024SOL    HW165969  13.561   9.582  11.677
88024SOL    HW265970  13.507   9.689  11.770
88025SOL     OW65971   5.200   4.057   3.707
88025SOL    HW165972   5.141   4.129   3.686
88025SOL    HW265973   5.154   4.007   3.774
88026SOL     OW65974   4.234  11.942   6.137
88026SOL    HW165975   4.150  11.968   6.175
88026SOL    HW265976   4.211  11.904   6.052
88027SOL     OW65977   2.339  12.240   0.677
88027SOL    HW165978   2.326  12.231   0.583
88027SOL    HW265979   2.434  12.243   0.688
88028SOL     OW65980   6.673   3.154  11.351
88028SOL    HW165981   6.685   3.060  11.343
88028SOL    HW265982   6.593   3.172  11.301
88029SOL     OW65983   5.719  14.430   4.416
88029SOL    HW165984   5.650  14.472   4.364
88029SOL    HW265985   5.717  14.476   4.500
88030SOL     OW65986  10.749   1.964   6.433
88030SOL    HW165987  10.835   2.006   6.426
88030SOL    HW265988  10.693   2.030   6.473
88031SOL     OW65989   8.750   7.841  10.550
88031SOL    HW165990   8.831   7.791  10.546
88031SOL    HW265991   8.772   7.927  10.515
88032SOL     OW65992  12.943   8.855   7.310
88032SOL    HW165993  12.983   8.940   7.330
88032SOL    HW265994  12.930   8.814   7.395
88033SOL     OW65995   8.182  12.194   4.346
88033SOL    HW165996   8.270  12.227   4.334
88033SOL    HW265997   8.184  12.147   4.429
88034SOL     OW65998   8.379   5.421  12.199
88034SOL    HW165999   8.433   5.446  12.125
88034SOL    HW266000   8.381   5.325  12.199
88035SOL     OW66001   1.201  12.488   9.206
88035SOL    HW166002   1.158  12.572   9.220
88035SOL    HW266003   1.135  12.423   9.229
88036SOL     OW66004  14.514   7.085   0.284
88036SOL    HW166005  14.429   7.126   0.295
88036SOL    HW266006  14.553   7.085   0.371
88037SOL     OW66007   9.155  13.887  14.062
88037SOL    HW166008   9.237  13.907  14.106
88037SOL    HW266009   9.175  13.813  14.004
88038SOL     OW66010  14.415  14.331  13.649
88038SOL    HW166011  14.473  14.281  13.707
88038SOL    HW266012  14.464  14.338  13.567
88039SOL     OW66013   9.938   0.906   2.516
88039SOL    HW166014   9.899   0.878   2.599
88039SOL    HW266015  10.030   0.920   2.537
88040SOL     OW66016   3.190  13.023  12.393
88040SOL    HW166017   3.162  13.112  12.371
88040SOL    HW266018   3.229  12.990  12.312
88041SOL     OW66019   5.088   5.247   3.720
88041SOL    HW166020   5.032   5.239   3.643
88041SOL    HW266021   5.037   5.207   3.791
88042SOL     OW66022   5.663  14.849  10.745
88042SOL    HW166023   5.713  14.769  10.728
88042SOL    HW266024   5.703   0.016  10.824
88043SOL     OW66025   5.927   4.718   8.033
88043SOL    HW166026   5.843   4.699   7.991
88043SOL    HW266027   5.971   4.633   8.038
88044SOL     OW66028  12.380   3.944   9.846
88044SOL    HW166029  12.398   3.856   9.814
88044SOL    HW266030  12.466   3.981   9.865
88045SOL     OW66031  12.997   0.039   9.430
88045SOL    HW166032  13.024   0.021   9.520
88045SOL    HW266033  13.075   0.075   9.388
88046SOL     OW66034   1.093  14.629   6.590
88046SOL    HW166035   1.081  14.558   6.527
88046SOL    HW266036   1.032  14.609   6.661
88047SOL     OW66037   0.067   2.435   1.710
88047SOL    HW166038   0.157   2.405   1.704
88047SOL    HW266039   0.016   2.356   1.728
88048SOL     OW66040   2.853   1.856   8.902
88048SOL    HW166041   2.814   1.800   8.969
88048SOL    HW266042   2.912   1.914   8.951
88049SOL     OW66043  11.851   9.200  12.357
88049SOL    HW166044  11.900   9.261  12.411
88049SOL    HW266045  11.889   9.114  12.377
88050SOL     OW66046  11.812   8.081   6.861
88050SOL    HW166047  11.837   7.989   6.851
88050SOL    HW266048  11.828   8.101   6.954
88051SOL     OW66049   1.126   5.776   3.987
88051SOL    HW166050   1.177   5.833   4.046
88051SOL    HW266051   1.093   5.835   3.920
88052SOL     OW66052   8.548  10.552   7.625
88052SOL    HW166053   8.531  10.618   7.693
88052SOL    HW266054   8.469  10.552   7.571
88053SOL     OW66055  14.742   3.915   2.943
88053SOL    HW166056  14.682   3.852   2.982
88053SOL    HW266057  14.707   3.932   2.856
88054SOL     OW66058  11.581   4.592   6.500
88054SOL    HW166059  11.582   4.504   6.464
88054SOL    HW266060  11.634   4.586   6.580
88055SOL     OW66061   7.102   5.745  12.595
88055SOL    HW166062   7.168   5.796  12.642
88055SOL    HW266063   7.125   5.755  12.503
88056SOL     OW66064   3.394   1.192  12.626
88056SOL    HW166065   3.465   1.143  12.668
88056SOL    HW266066   3.396   1.278  12.669
88057SOL     OW66067   3.763   4.766   9.059
88057SOL    HW166068   3.817   4.784   9.136
88057SOL    HW266069   3.795   4.826   8.992
88058SOL     OW66070   0.451   5.108  11.671
88058SOL    HW166071   0.419   5.111  11.761
88058SOL    HW266072   0.466   5.200  11.648
88059SOL     OW66073   6.548   4.067   7.747
88059SOL    HW166074   6.534   4.077   7.652
88059SOL    HW266075   6.486   3.999   7.773
88060SOL     OW66076   2.210  12.965   6.412
88060SOL    HW166077   2.258  12.903   6.467
88060SOL    HW266078   2.262  12.971   6.331
88061SOL     OW66079   0.009  11.495   4.796
88061SOL    HW166080   0.007  11.437   4.872
88061SOL    HW266081  14.797  11.544   4.801
88062SOL     OW66082   7.880   2.035   1.562
88062SOL    HW166083   7.804   2.093   1.557
88062SOL    HW266084   7.947   2.078   1.509
88063SOL     OW66085   9.280   0.302   7.650
88063SOL    HW166086   9.229   0.250   7.587
88063SOL    HW266087   9.265   0.260   7.734
88064SOL     OW66088  13.961  13.734   7.540
88064SOL    HW166089  13.888  13.774   7.493
88064SOL    HW266090  13.946  13.640   7.531
88065SOL     OW66091   9.474  12.840   4.923
88065SOL    HW166092   9.503  12.931   4.923
88065SOL    HW266093   9.378  12.845   4.926
88066SOL     OW66094   1.818   2.410  13.801
88066SOL    HW166095   1.746   2.359  13.764
88066SOL    HW266096   1.786   2.500  13.803
88067SOL     OW66097   3.853  12.677  11.228
88067SOL    HW166098   3.785  12.619  11.193
88067SOL    HW266099   3.929  12.621  11.239
88068SOL     OW66100   8.639   3.941   9.696
88068SOL    HW166101   8.568   3.906   9.751
88068SOL    HW266102   8.594   3.978   9.620
88069SOL     OW66103  10.796   0.237  11.851
88069SOL    HW166104  10.794   0.304  11.919
88069SOL    HW266105  10.885   0.201  11.856
88070SOL     OW66106  11.628   1.096   7.131
88070SOL    HW166107  11.659   1.042   7.057
88070SOL    HW266108  11.570   1.038   7.180
88071SOL     OW66109   7.791   2.275  13.365
88071SOL    HW166110   7.880   2.245  13.351
88071SOL    HW266111   7.779   2.347  13.303
88072SOL     OW66112  13.235   7.066   6.622
88072SOL    HW166113  13.199   7.003   6.684
88072SOL    HW266114  13.160   7.118   6.593
88073SOL     OW66115   5.210   4.904   7.662
88073SOL    HW166116   5.126   4.949   7.670
88073SOL    HW266117   5.190   4.813   7.682
88074SOL     OW66118   6.885  12.519  10.038
88074SOL    HW166119   6.902  12.517  10.132
88074SOL    HW266120   6.902  12.609  10.012
88075SOL     OW66121  12.231   7.451   9.314
88075SOL    HW166122  12.262   7.360   9.317
88075SOL    HW266123  12.142   7.446   9.349
88076SOL     OW66124   9.243   2.957   5.598
88076SOL    HW166125   9.282   3.005   5.671
88076SOL    HW266126   9.169   3.011   5.571
88077SOL     OW66127   9.820   5.557  11.245
88077SOL    HW166128   9.910   5.531  11.224
88077SOL    HW266129   9.826   5.652  11.259
88078SOL     OW66130   8.296  10.596  14.625
88078SOL    HW166131   8.363  10.661  14.605
88078SOL    HW266132   8.343  10.526  14.671
88079SOL     OW66133   9.415  13.700   4.780
88079SOL    HW166134   9.349  13.669   4.843
88079SOL    HW266135   9.488  13.640   4.791
88080SOL     OW66136   5.207   3.599  11.695
88080SOL    HW166137   5.225   3.580  11.603
88080SOL    HW266138   5.258   3.678  11.714
88081SOL     OW66139   8.556   7.029   0.543
88081SOL    HW166140   8.598   7.091   0.602
88081SOL    HW266141   8.479   7.076   0.510
88082SOL     OW66142   8.907  14.141   5.410
88082SOL    HW166143   8.960  14.217   5.384
88082SOL    HW266144   8.825  14.153   5.362
88083SOL     OW66145   0.345   2.339  10.421
88083SOL    HW166146   0.329   2.251  10.456
88083SOL    HW266147   0.322   2.332  10.329
88084SOL     OW66148   3.241   5.712   9.113
88084SOL    HW166149   3.195   5.784   9.069
88084SOL    HW266150   3.185   5.689   9.187
88085SOL     OW66151   5.002   4.768  13.850
88085SOL    HW166152   4.981   4.847  13.801
88085SOL    HW266153   5.086   4.786  13.891
88086SOL     OW66154   0.310   8.696   0.337
88086SOL    HW166155   0.271   8.609   0.346
88086SOL    HW266156   0.404   8.680   0.329
88087SOL     OW66157   5.387   7.753   8.393
88087SOL    HW166158   5.416   7.730   8.305
88087SOL    HW266159   5.292   7.756   8.387
88088SOL     OW66160   7.083   9.218   4.957
88088SOL    HW166161   7.093   9.281   4.886
88088SOL    HW266162   7.007   9.166   4.932
88089SOL     OW66163   2.963   2.938  14.399
88089SOL    HW166164   2.874   2.911  14.420
88089SOL    HW266165   2.958   3.033  14.389
88090SOL     OW66166   7.234   2.462   0.362
88090SOL    HW166167   7.287   2.384   0.350
88090SOL    HW266168   7.250   2.514   0.283
88091SOL     OW66169  11.034   2.739  11.903
88091SOL    HW166170  11.111   2.773  11.948
88091SOL    HW266171  11.069   2.686  11.831
88092SOL     OW66172   5.098   3.594  10.664
88092SOL    HW166173   5.073   3.631  10.749
88092SOL    HW266174   5.132   3.669  10.615
88093SOL     OW66175   1.728  12.768   1.252
88093SOL    HW166176   1.694  12.681   1.272
88093SOL    HW266177   1.651  12.823   1.243
88094SOL     OW66178   1.124   8.357   4.494
88094SOL    HW166179   1.219   8.343   4.490
88094SOL    HW266180   1.099   8.327   4.582
88095SOL     OW66181   3.789   1.930   0.119
88095SOL    HW166182   3.781   1.878   0.039
88095SOL    HW266183   3.881   1.924   0.143
88096SOL     OW66184   4.379   3.054  11.581
88096SOL    HW166185   4.412   3.009  11.503
88096SOL    HW266186   4.385   3.147  11.559
88097SOL     OW66187   6.426   0.068  13.827
88097SOL    HW166188   6.341   0.106  13.847
88097SOL    HW266189   6.460   0.037  13.911
88098SOL     OW66190   5.275   5.838   3.463
88098SOL    HW166191   5.326   5.786   3.526
88098SOL    HW266192   5.223   5.896   3.518
88099SOL     OW66193   4.176   1.267   7.758
88099SOL    HW166194   4.135   1.353   7.749
88099SOL    HW266195   4.110   1.205   7.727
88100SOL     OW66196   4.852   4.004  13.738
88100SOL    HW166197   4.861   4.035  13.828
88100SOL    HW266198   4.782   4.058  13.701
88101SOL     OW66199  11.504   6.142  10.835
88101SOL    HW166200  11.557   6.140  10.915
88101SOL    HW266201  11.444   6.068  10.844
88102SOL     OW66202   3.041  10.019  12.602
88102SOL    HW166203   3.039  10.030  12.698
88102SOL    HW266204   3.091   9.939  12.588
88103SOL     OW66205   0.677   4.022  12.170
88103SOL    HW166206   0.724   4.076  12.106
88103SOL    HW266207   0.674   4.076  12.249
88104SOL     OW66208   4.246   5.936  12.381
88104SOL    HW166209   4.334   5.952  12.415
88104SOL    HW266210   4.196   6.014  12.405
88105SOL     OW66211  10.187  12.494   9.171
88105SOL    HW166212  10.185  12.434   9.245
88105SOL    HW266213  10.140  12.572   9.202
88106SOL     OW66214  11.521  12.208   2.295
88106SOL    HW166215  11.585  12.189   2.227
88106SOL    HW266216  11.519  12.129   2.349
88107SOL     OW66217   5.946  12.169   8.175
88107SOL    HW166218   6.027  12.156   8.225
88107SOL    HW266219   5.928  12.263   8.183
88108SOL     OW66220  14.661   7.561   8.486
88108SOL    HW166221  14.659   7.466   8.502
88108SOL    HW266222  14.611   7.599   8.558
88109SOL     OW66223  12.608   3.378   0.931
88109SOL    HW166224  12.691   3.332   0.926
88109SOL    HW266225  12.564   3.357   0.848
88110SOL     OW66226   7.991  14.520   0.372
88110SOL    HW166227   7.975  14.614   0.379
88110SOL    HW266228   8.010  14.492   0.462
88111SOL     OW66229  12.725   3.797   2.422
88111SOL    HW166230  12.751   3.866   2.361
88111SOL    HW266231  12.660   3.839   2.478
88112SOL     OW66232  10.379   3.173  10.330
88112SOL    HW166233  10.310   3.147  10.391
88112SOL    HW266234  10.370   3.268  10.323
88113SOL     OW66235   2.068  13.109  10.583
88113SOL    HW166236   2.067  13.158  10.665
88113SOL    HW266237   1.976  13.092  10.564
88114SOL     OW66238   1.258  12.349  12.291
88114SOL    HW166239   1.213  12.368  12.209
88114SOL    HW266240   1.340  12.397  12.286
88115SOL     OW66241   5.346  13.578   8.698
88115SOL    HW166242   5.276  13.523   8.663
88115SOL    HW266243   5.377  13.629   8.623
88116SOL     OW66244   4.153   6.845   0.979
88116SOL    HW166245   4.153   6.755   0.945
88116SOL    HW266246   4.146   6.835   1.074
88117SOL     OW66247   1.104   4.762   5.898
88117SOL    HW166248   1.140   4.845   5.867
88117SOL    HW266249   1.022   4.751   5.849
88118SOL     OW66250   2.027   8.501   3.052
88118SOL    HW166251   1.983   8.418   3.032
88118SOL    HW266252   1.956   8.563   3.069
88119SOL     OW66253   3.637   5.434  13.074
88119SOL    HW166254   3.692   5.393  13.008
88119SOL    HW266255   3.578   5.491  13.025
88120SOL     OW66256  10.104   9.687   5.598
88120SOL    HW166257  10.035   9.637   5.554
88120SOL    HW266258  10.069   9.708   5.684
88121SOL     OW66259   8.265   2.018  10.532
88121SOL    HW166260   8.280   2.048  10.621
88121SOL    HW266261   8.284   2.095  10.477
88122SOL     OW66262   7.958   3.904   0.974
88122SOL    HW166263   7.956   3.953   1.056
88122SOL    HW266264   8.041   3.930   0.933
88123SOL     OW66265  13.888   7.095  11.987
88123SOL    HW166266  13.898   7.154  11.913
88123SOL    HW266267  13.909   7.008  11.952
88124SOL     OW66268  12.884   8.712  13.846
88124SOL    HW166269  12.904   8.621  13.868
88124SOL    HW266270  12.797   8.709  13.807
88125SOL     OW66271   1.532  10.495   1.856
88125SOL    HW166272   1.493  10.529   1.936
88125SOL    HW266273   1.582  10.419   1.884
88126SOL     OW66274  13.370   1.779   6.962
88126SOL    HW166275  13.399   1.832   7.037
88126SOL    HW266276  13.449   1.766   6.910
88127SOL     OW66277   3.955   0.067  14.119
88127SOL    HW166278   3.927  14.865  14.176
88127SOL    HW266279   4.019   0.027  14.060
88128SOL     OW66280  11.624   6.108  13.672
88128SOL    HW166281  11.594   6.191  13.633
88128SOL    HW266282  11.614   6.122  13.766
88129SOL     OW66283   2.460   1.076   3.398
88129SOL    HW166284   2.543   1.104   3.436
88129SOL    HW266285   2.481   0.999   3.346
88130SOL     OW66286   7.999   1.684  10.164
88130SOL    HW166287   7.934   1.736  10.117
88130SOL    HW266288   7.993   1.597  10.124
88131SOL     OW66289  11.989   9.376   4.338
88131SOL    HW166290  11.911   9.425   4.361
88131SOL    HW266291  12.014   9.330   4.418
88132SOL     OW66292  14.651   6.948  10.123
88132SOL    HW166293  14.591   7.012  10.163
88132SOL    HW266294  14.736   6.968  10.162
88133SOL     OW66295  13.992   6.429   0.621
88133SOL    HW166296  14.001   6.516   0.583
88133SOL    HW266297  13.913   6.433   0.675
88134SOL     OW66298   8.909  10.169  12.957
88134SOL    HW166299   8.915  10.262  12.979
88134SOL    HW266300   8.966  10.126  13.021
88135SOL     OW66301   2.258   3.604   6.034
88135SOL    HW166302   2.303   3.586   6.116
88135SOL    HW266303   2.307   3.555   5.968
88136SOL     OW66304   8.694   9.375  10.089
88136SOL    HW166305   8.689   9.426  10.008
88136SOL    HW266306   8.726   9.437  10.155
88137SOL     OW66307   3.680  10.221   9.017
88137SOL    HW166308   3.730  10.300   8.998
88137SOL    HW266309   3.591  10.241   8.988
88138SOL     OW66310   6.286   8.948   3.013
88138SOL    HW166311   6.316   9.021   2.959
88138SOL    HW266312   6.192   8.943   2.996
88139SOL     OW66313  10.079   7.147  11.391
88139SOL    HW166314  10.058   7.087  11.463
88139SOL    HW266315  10.079   7.092  11.313
88140SOL     OW66316  14.403   4.505   4.904
88140SOL    HW166317  14.348   4.538   4.975
88140SOL    HW266318  14.485   4.554   4.913
88141SOL     OW66319  12.953   6.668   6.383
88141SOL    HW166320  13.036   6.621   6.397
88141SOL    HW266321  12.885   6.605   6.409
88142SOL     OW66322   3.879   0.010  11.655
88142SOL    HW166323   3.881  14.803  11.712
88142SOL    HW266324   3.970   0.032  11.640
88143SOL     OW66325   7.962  11.145   7.273
88143SOL    HW166326   7.877  11.171   7.237
88143SOL    HW266327   7.962  11.179   7.362
88144SOL     OW66328   4.461  14.344  13.987
88144SOL    HW166329   4.380  14.318  14.031
88144SOL    HW266330   4.530  14.293  14.031
88145SOL     OW66331  10.808  12.371   8.567
88145SOL    HW166332  10.882  12.330   8.611
88145SOL    HW266333  10.803  12.459   8.604
88146SOL     OW66334  14.125  13.335   3.947
88146SOL    HW166335  14.089  13.337   4.036
88146SOL    HW266336  14.072  13.398   3.898
88147SOL     OW66337   6.128   9.165   4.019
88147SOL    HW166338   6.149   9.205   3.934
88147SOL    HW266339   6.044   9.203   4.043
88148SOL     OW66340  14.484   9.086   2.542
88148SOL    HW166341  14.497   9.167   2.493
88148SOL    HW266342  14.464   9.020   2.476
88149SOL     OW66343   5.828   8.640   5.114
88149SOL    HW166344   5.894   8.710   5.122
88149SOL    HW266345   5.864   8.568   5.167
88150SOL     OW66346   0.014   0.023  11.296
88150SOL    HW166347  14.861  14.800  11.288
88150SOL    HW266348   0.101   0.023  11.336
88151SOL     OW66349   1.566   3.297  14.625
88151SOL    HW166350   1.485   3.247  14.638
88151SOL    HW266351   1.583   3.290  14.531
88152SOL     OW66352   1.755   7.224  10.574
88152SOL    HW166353   1.682   7.185  10.623
88152SOL    HW266354   1.830   7.168  10.595
88153SOL     OW66355  10.097  11.547  13.210
88153SOL    HW166356  10.025  11.597  13.172
88153SOL    HW266357  10.084  11.554  13.305
88154SOL     OW66358   7.430  13.668   6.186
88154SOL    HW166359   7.513  13.658   6.232
88154SOL    HW266360   7.364  13.636   6.249
88155SOL     OW66361  13.152   5.828  13.361
88155SOL    HW166362  13.147   5.793  13.272
88155SOL    HW266363  13.086   5.897  13.364
88156SOL     OW66364   9.100   4.656   6.437
88156SOL    HW166365   9.027   4.694   6.388
88156SOL    HW266366   9.082   4.678   6.528
88157SOL     OW66367   3.321   3.496   5.739
88157SOL    HW166368   3.383   3.569   5.732
88157SOL    HW266369   3.370   3.419   5.711
88158SOL     OW66370  11.342  12.650   1.185
88158SOL    HW166371  11.277  12.716   1.209
88158SOL    HW266372  11.358  12.601   1.265
88159SOL     OW66373   7.089   4.765   4.793
88159SOL    HW166374   7.079   4.692   4.854
88159SOL    HW266375   6.999   4.793   4.774
88160SOL     OW66376  12.579   7.126   1.049
88160SOL    HW166377  12.609   7.215   1.063
88160SOL    HW266378  12.629   7.094   0.974
88161SOL     OW66379  11.845  13.185  11.887
88161SOL    HW166380  11.779  13.141  11.833
88161SOL    HW266381  11.802  13.266  11.915
88162SOL     OW66382   4.514   1.354   8.701
88162SOL    HW166383   4.566   1.340   8.780
88162SOL    HW266384   4.551   1.293   8.637
88163SOL     OW66385  13.091  11.354   9.610
88163SOL    HW166386  13.144  11.434   9.610
88163SOL    HW266387  13.125  11.302   9.537
88164SOL     OW66388  13.464   1.731  10.144
88164SOL    HW166389  13.411   1.761  10.219
88164SOL    HW266390  13.432   1.784  10.070
88165SOL     OW66391  10.321   1.387   4.094
88165SOL    HW166392  10.333   1.478   4.122
88165SOL    HW266393  10.247   1.389   4.035
88166SOL     OW66394   4.317  10.565   9.454
88166SOL    HW166395   4.388  10.607   9.404
88166SOL    HW266396   4.237  10.598   9.414
88167SOL     OW66397  12.330  11.623  12.746
88167SOL    HW166398  12.316  11.694  12.683
88167SOL    HW266399  12.243  11.606  12.782
88168SOL     OW66400   8.922  12.689  14.568
88168SOL    HW166401   8.915  12.684  14.663
88168SOL    HW266402   8.831  12.694  14.538
88169SOL     OW66403   0.316   6.515   4.820
88169SOL    HW166404   0.295   6.588   4.762
88169SOL    HW266405   0.411   6.509   4.819
88170SOL     OW66406   3.677   7.452   1.549
88170SOL    HW166407   3.730   7.405   1.614
88170SOL    HW266408   3.593   7.407   1.548
88171SOL     OW66409   3.642   7.672  12.823
88171SOL    HW166410   3.616   7.721  12.745
88171SOL    HW266411   3.738   7.681  12.825
88172SOL     OW66412   3.424   4.618   5.182
88172SOL    HW166413   3.339   4.573   5.182
88172SOL    HW266414   3.476   4.571   5.118
88173SOL     OW66415  12.230   0.872   6.151
88173SOL    HW166416  12.276   0.834   6.076
88173SOL    HW266417  12.137   0.855   6.133
88174SOL     OW66418  11.331   1.376  10.150
88174SOL    HW166419  11.303   1.287  10.130
88174SOL    HW266420  11.251   1.428  10.152
88175SOL     OW66421  12.597   2.205   9.198
88175SOL    HW166422  12.621   2.271   9.133
88175SOL    HW266423  12.680   2.179   9.238
88176SOL     OW66424   0.317   8.437   9.680
88176SOL    HW166425   0.226   8.465   9.689
88176SOL    HW266426   0.312   8.361   9.621
88177SOL     OW66427   5.648   8.743  12.433
88177SOL    HW166428   5.685   8.719  12.348
88177SOL    HW266429   5.695   8.823  12.458
88178SOL     OW66430   0.262   5.252  11.965
88178SOL    HW166431   0.285   5.334  11.921
88178SOL    HW266432   0.199   5.279  12.033
88179SOL     OW66433   6.313   6.623  11.026
88179SOL    HW166434   6.252   6.692  11.054
88179SOL    HW266435   6.327   6.570  11.104
88180SOL     OW66436  10.687   3.953  12.340
88180SOL    HW166437  10.763   3.998  12.301
88180SOL    HW266438  10.616   3.969  12.278
88181SOL     OW66439   3.588   4.454   0.219
88181SOL    HW166440   3.606   4.364   0.244
88181SOL    HW266441   3.528   4.487   0.286
88182SOL     OW66442  11.637   7.619   8.412
88182SOL    HW166443  11.706   7.682   8.391
88182SOL    HW266444  11.636   7.613   8.507
88183SOL     OW66445   8.021   8.818  11.159
88183SOL    HW166446   8.104   8.860  11.182
88183SOL    HW266447   8.018   8.740  11.214
88184SOL     OW66448   7.707   7.876  10.848
88184SOL    HW166449   7.747   7.816  10.785
88184SOL    HW266450   7.616   7.845  10.855
88185SOL     OW66451   4.874   6.867   5.958
88185SOL    HW166452   4.810   6.818   6.010
88185SOL    HW266453   4.955   6.859   6.007
88186SOL     OW66454   4.314  11.604   5.480
88186SOL    HW166455   4.227  11.603   5.440
88186SOL    HW266456   4.374  11.595   5.406
88187SOL     OW66457   2.443   7.726   2.905
88187SOL    HW166458   2.423   7.818   2.920
88187SOL    HW266459   2.366   7.692   2.859
88188SOL     OW66460  11.354   4.293   6.403
88188SOL    HW166461  11.378   4.378   6.368
88188SOL    HW266462  11.426   4.270   6.462
88189SOL     OW66463  10.819   9.759  14.686
88189SOL    HW166464  10.740   9.706  14.675
88189SOL    HW266465  10.875   9.707  14.744
88190SOL     OW66466   6.627   0.688  14.168
88190SOL    HW166467   6.599   0.780  14.171
88190SOL    HW266468   6.602   0.653  14.253
88191SOL     OW66469   4.505   7.516   5.722
88191SOL    HW166470   4.566   7.590   5.723
88191SOL    HW266471   4.421   7.554   5.747
88192SOL     OW66472  13.898   9.454   4.362
88192SOL    HW166473  13.894   9.494   4.449
88192SOL    HW266474  13.982   9.407   4.362
88193SOL     OW66475   8.197  14.402   0.934
88193SOL    HW166476   8.242  14.326   0.899
88193SOL    HW266477   8.127  14.366   0.988
88194SOL     OW66478   1.489  11.877   2.913
88194SOL    HW166479   1.463  11.819   2.841
88194SOL    HW266480   1.464  11.829   2.992
88195SOL     OW66481  13.423   3.044   4.652
88195SOL    HW166482  13.399   3.115   4.711
88195SOL    HW266483  13.513   3.064   4.625
88196SOL     OW66484   2.784   2.130   3.069
88196SOL    HW166485   2.792   2.150   3.162
88196SOL    HW266486   2.698   2.089   3.060
88197SOL     OW66487   2.426  11.787   6.378
88197SOL    HW166488   2.520  11.801   6.379
88197SOL    HW266489   2.408  11.755   6.290
88198SOL     OW66490   9.507  14.792   2.485
88198SOL    HW166491   9.420  14.784   2.524
88198SOL    HW266492   9.565  14.750   2.548
88199SOL     OW66493  14.371   8.054   7.454
88199SOL    HW166494  14.407   7.985   7.509
88199SOL    HW266495  14.281   8.028   7.437
88200SOL     OW66496  11.997  14.635   9.236
88200SOL    HW166497  11.917  14.643   9.185
88200SOL    HW266498  11.983  14.559   9.292
88201SOL     OW66499   3.801   4.229  11.455
88201SOL    HW166500   3.783   4.289  11.382
88201SOL    HW266501   3.771   4.144  11.424
88202SOL     OW66502  12.973   0.118  13.632
88202SOL    HW166503  12.906   0.105  13.700
88202SOL    HW266504  12.987   0.212  13.629
88203SOL     OW66505   4.278  10.137   2.886
88203SOL    HW166506   4.272  10.088   2.804
88203SOL    HW266507   4.320  10.219   2.862
88204SOL     OW66508  11.085   8.747  10.723
88204SOL    HW166509  11.104   8.733  10.816
88204SOL    HW266510  11.080   8.659  10.686
88205SOL     OW66511  12.642   9.140   4.593
88205SOL    HW166512  12.548   9.127   4.605
88205SOL    HW266513  12.649   9.226   4.552
88206SOL     OW66514   1.070   5.527   0.452
88206SOL    HW166515   1.120   5.552   0.530
88206SOL    HW266516   1.115   5.449   0.419
88207SOL     OW66517  12.547   9.714   4.068
88207SOL    HW166518  12.518   9.654   4.137
88207SOL    HW266519  12.642   9.719   4.079
88208SOL     OW66520   0.867  12.991  14.750
88208SOL    HW166521   0.903  13.022  14.834
88208SOL    HW266522   0.772  12.997  14.760
88209SOL     OW66523  10.104  14.676   0.119
88209SOL    HW166524  10.055  14.595   0.135
88209SOL    HW266525  10.038  14.738   0.090
88210SOL     OW66526   1.653   8.307   7.714
88210SOL    HW166527   1.656   8.402   7.723
88210SOL    HW266528   1.575   8.280   7.762
88211SOL     OW66529   1.847   5.768   5.462
88211SOL    HW166530   1.754   5.754   5.475
88211SOL    HW266531   1.874   5.696   5.404
88212SOL     OW66532  13.190  11.874  13.243
88212SOL    HW166533  13.157  11.844  13.158
88212SOL    HW266534  13.168  11.803  13.304
88213SOL     OW66535  11.692  12.081   4.334
88213SOL    HW166536  11.657  11.992   4.336
88213SOL    HW266537  11.735  12.089   4.249
88214SOL     OW66538  14.797  11.889   2.149
88214SOL    HW166539   0.021  11.878   2.134
88214SOL    HW266540  14.780  11.846   2.233
88215SOL     OW66541   9.430   6.296  12.100
88215SOL    HW166542   9.523   6.292  12.078
88215SOL    HW266543   9.394   6.213  12.068
88216SOL     OW66544  13.765  14.532   3.514
88216SOL    HW166545  13.746  14.599   3.579
88216SOL    HW266546  13.855  14.550   3.486
88217SOL     OW66547   6.816   8.873  14.620
88217SOL    HW166548   6.867   8.811  14.567
88217SOL    HW266549   6.800   8.947  14.561
88218SOL     OW66550   3.449   2.942   4.621
88218SOL    HW166551   3.367   2.916   4.577
88218SOL    HW266552   3.477   3.021   4.575
88219SOL     OW66553   3.164   5.124   7.929
88219SOL    HW166554   3.200   5.053   7.982
88219SOL    HW266555   3.233   5.191   7.928
88220SOL     OW66556   7.507   9.420  10.442
88220SOL    HW166557   7.498   9.515  10.437
88220SOL    HW266558   7.556   9.405  10.523
88221SOL     OW66559  13.187   6.047  10.798
88221SOL    HW166560  13.169   5.964  10.754
88221SOL    HW266561  13.139   6.042  10.881
88222SOL     OW66562  12.830   3.040   8.345
88222SOL    HW166563  12.881   3.049   8.425
88222SOL    HW266564  12.742   3.069   8.370
88223SOL     OW66565   2.297   2.968   5.078
88223SOL    HW166566   2.307   3.062   5.097
88223SOL    HW266567   2.385   2.938   5.057
88224SOL     OW66568   0.519  12.779  10.572
88224SOL    HW166569   0.532  12.780  10.667
88224SOL    HW266570   0.543  12.690  10.546
88225SOL     OW66571  10.641  13.508  10.675
88225SOL    HW166572  10.655  13.458  10.595
88225SOL    HW266573  10.565  13.563  10.656
88226SOL     OW66574   2.716  13.542  12.284
88226SOL    HW166575   2.709  13.607  12.214
88226SOL    HW266576   2.806  13.510  12.279
88227SOL     OW66577   1.551   7.336  10.853
88227SOL    HW166578   1.508   7.251  10.848
88227SOL    HW266579   1.630   7.321  10.905
88228SOL     OW66580   8.124  10.958   7.375
88228SOL    HW166581   8.212  10.983   7.405
88228SOL    HW266582   8.094  11.034   7.325
88229SOL     OW66583   8.623   7.793   0.947
88229SOL    HW166584   8.551   7.802   1.009
88229SOL    HW266585   8.579   7.791   0.861
88230SOL     OW66586   8.638  11.343  11.180
88230SOL    HW166587   8.560  11.377  11.225
88230SOL    HW266588   8.650  11.256  11.217
88231SOL     OW66589  11.328   9.845   6.419
88231SOL    HW166590  11.242   9.866   6.455
88231SOL    HW266591  11.378   9.810   6.492
88232SOL     OW66592   6.197  11.751   5.986
88232SOL    HW166593   6.117  11.798   5.961
88232SOL    HW266594   6.174  11.705   6.066
88233SOL     OW66595   8.042  14.259  13.630
88233SOL    HW166596   8.122  14.292  13.591
88233SOL    HW266597   7.987  14.336  13.642
88234SOL     OW66598  10.056  12.192   1.927
88234SOL    HW166599  10.136  12.197   1.979
88234SOL    HW266600  10.000  12.261   1.962
88235SOL     OW66601   1.574   0.354  12.493
88235SOL    HW166602   1.525   0.435  12.499
88235SOL    HW266603   1.625   0.361  12.412
88236SOL     OW66604   1.662   8.934   8.070
88236SOL    HW166605   1.645   8.990   7.993
88236SOL    HW266606   1.611   8.975   8.140
88237SOL     OW66607   0.761   2.091   1.923
88237SOL    HW166608   0.854   2.107   1.940
88237SOL    HW266609   0.752   2.094   1.828
88238SOL     OW66610   3.751   7.996   1.042
88238SOL    HW166611   3.677   7.987   1.102
88238SOL    HW266612   3.781   7.907   1.026
88239SOL     OW66613   5.478   2.135  13.402
88239SOL    HW166614   5.428   2.208  13.438
88239SOL    HW266615   5.506   2.085  13.479
88240SOL     OW66616   2.825   4.979   9.305
88240SOL    HW166617   2.862   4.940   9.384
88240SOL    HW266618   2.749   5.028   9.336
88241SOL     OW66619   0.233  13.460   0.507
88241SOL    HW166620   0.248  13.387   0.567
88241SOL    HW266621   0.200  13.419   0.427
88242SOL     OW66622   7.819   8.222   3.009
88242SOL    HW166623   7.758   8.229   2.936
88242SOL    HW266624   7.767   8.246   3.086
88243SOL     OW66625   4.769  14.263   1.020
88243SOL    HW166626   4.781  14.334   1.083
88243SOL    HW266627   4.802  14.298   0.937
88244SOL     OW66628   8.741   0.877   2.674
88244SOL    HW166629   8.658   0.840   2.645
88244SOL    HW266630   8.803   0.854   2.604
88245SOL     OW66631  10.698   5.534   8.366
88245SOL    HW166632  10.705   5.544   8.461
88245SOL    HW266633  10.729   5.445   8.349
88246SOL     OW66634  11.255  12.989   5.304
88246SOL    HW166635  11.226  12.930   5.374
88246SOL    HW266636  11.305  12.932   5.245
88247SOL     OW66637   7.437   0.306   4.768
88247SOL    HW166638   7.514   0.347   4.808
88247SOL    HW266639   7.468   0.272   4.685
88248SOL     OW66640   4.230  11.559   8.450
88248SOL    HW166641   4.214  11.621   8.521
88248SOL    HW266642   4.233  11.614   8.371
88249SOL     OW66643   4.871   0.331   9.681
88249SOL    HW166644   4.903   0.251   9.723
88249SOL    HW266645   4.777   0.329   9.696
88250SOL     OW66646   8.010   7.817  14.738
88250SOL    HW166647   7.916   7.812  14.757
88250SOL    HW266648   8.017   7.886  14.673
88251SOL     OW66649  12.094   3.878   7.688
88251SOL    HW166650  12.005   3.846   7.675
88251SOL    HW266651  12.085   3.974   7.691
88252SOL     OW66652   8.653   1.302   4.151
88252SOL    HW166653   8.590   1.309   4.079
88252SOL    HW266654   8.638   1.214   4.187
88253SOL     OW66655   3.275   3.541  12.253
88253SOL    HW166656   3.315   3.495  12.179
88253SOL    HW266657   3.273   3.633  12.224
88254SOL     OW66658   2.999  11.851   3.903
88254SOL    HW166659   2.924  11.837   3.961
88254SOL    HW266660   2.964  11.906   3.833
88255SOL     OW66661   0.318   6.178   3.430
88255SOL    HW166662   0.338   6.263   3.468
88255SOL    HW266663   0.328   6.116   3.501
88256SOL     OW66664   0.919  11.466   6.264
88256SOL    HW166665   0.883  11.396   6.209
88256SOL    HW266666   1.012  11.467   6.242
88257SOL     OW66667  13.245   2.047   1.093
88257SOL    HW166668  13.327   2.065   1.047
88257SOL    HW266669  13.230   1.954   1.079
88258SOL     OW66670   9.893  13.238   5.368
88258SOL    HW166671   9.901  13.190   5.285
88258SOL    HW266672   9.839  13.315   5.346
88259SOL     OW66673   9.993  11.786  13.419
88259SOL    HW166674  10.007  11.855  13.484
88259SOL    HW266675  10.077  11.740  13.414
88260SOL     OW66676   3.260   8.691  12.388
88260SOL    HW166677   3.259   8.597  12.369
88260SOL    HW266678   3.313   8.699  12.467
88261SOL     OW66679   8.204   6.289   4.893
88261SOL    HW166680   8.122   6.297   4.941
88261SOL    HW266681   8.244   6.209   4.927
88262SOL     OW66682  12.680  12.142  10.654
88262SOL    HW166683  12.592  12.180  10.645
88262SOL    HW266684  12.675  12.060  10.605
88263SOL     OW66685  11.792   5.230   4.218
88263SOL    HW166686  11.725   5.173   4.179
88263SOL    HW266687  11.825   5.180   4.293
88264SOL     OW66688   7.875   8.123   8.166
88264SOL    HW166689   7.959   8.093   8.130
88264SOL    HW266690   7.898   8.198   8.221
88265SOL     OW66691   4.422  14.729   1.768
88265SOL    HW166692   4.391  14.645   1.733
88265SOL    HW266693   4.512  14.712   1.794
88266SOL     OW66694  10.167   0.640   8.488
88266SOL    HW166695  10.174   0.583   8.565
88266SOL    HW266696  10.076   0.669   8.487
88267SOL     OW66697   5.181   5.887   4.736
88267SOL    HW166698   5.200   5.957   4.674
88267SOL    HW266699   5.266   5.843   4.748
88268SOL     OW66700   9.116  12.503   7.120
88268SOL    HW166701   9.066  12.424   7.100
88268SOL    HW266702   9.081  12.534   7.204
88269SOL     OW66703  10.990   6.864  14.493
88269SOL    HW166704  10.964   6.905  14.576
88269SOL    HW266705  10.924   6.797  14.478
88270SOL     OW66706  13.982  11.262   4.948
88270SOL    HW166707  14.076  11.276   4.949
88270SOL    HW266708  13.945  11.342   4.985
88271SOL     OW66709   8.510   6.501   0.845
88271SOL    HW166710   8.599   6.525   0.821
88271SOL    HW266711   8.511   6.498   0.941
88272SOL     OW66712   0.611  10.293   6.263
88272SOL    HW166713   0.566  10.370   6.297
88272SOL    HW266714   0.592  10.292   6.170
88273SOL     OW66715   4.598  12.427   0.884
88273SOL    HW166716   4.524  12.482   0.909
88273SOL    HW266717   4.578  12.341   0.921
88274SOL     OW66718   8.970   8.159  11.665
88274SOL    HW166719   9.064   8.162  11.644
88274SOL    HW266720   8.936   8.243  11.633
88275SOL     OW66721  13.446   0.780   2.032
88275SOL    HW166722  13.537   0.755   2.013
88275SOL    HW266723  13.454   0.859   2.085
88276SOL     OW66724   4.567  14.411   8.612
88276SOL    HW166725   4.508  14.355   8.662
88276SOL    HW266726   4.510  14.461   8.553
88277SOL     OW66727   6.336  14.485   7.094
88277SOL    HW166728   6.337  14.548   7.166
88277SOL    HW266729   6.351  14.400   7.137
88278SOL     OW66730   6.292  10.840  13.391
88278SOL    HW166731   6.227  10.816  13.457
88278SOL    HW266732   6.362  10.775  13.402
88279SOL     OW66733   6.372  10.341   2.908
88279SOL    HW166734   6.444  10.358   2.969
88279SOL    HW266735   6.298  10.317   2.964
88280SOL     OW66736   1.104   1.277   0.288
88280SOL    HW166737   1.140   1.352   0.336
88280SOL    HW266738   1.074   1.217   0.356
88281SOL     OW66739   8.893   4.814   4.360
88281SOL    HW166740   8.858   4.826   4.271
88281SOL    HW266741   8.973   4.867   4.361
88282SOL     OW66742  12.530   2.355   2.369
88282SOL    HW166743  12.507   2.433   2.318
88282SOL    HW266744  12.451   2.301   2.367
88283SOL     OW66745  12.783   4.543  14.758
88283SOL    HW166746  12.731   4.546  14.838
88283SOL    HW266747  12.805   4.635  14.741
88284SOL     OW66748  13.149  12.312  12.481
88284SOL    HW166749  13.116  12.235  12.528
88284SOL    HW266750  13.133  12.293  12.389
88285SOL     OW66751   6.326   9.925   1.634
88285SOL    HW166752   6.355  10.015   1.618
88285SOL    HW266753   6.377   9.896   1.709
88286SOL     OW66754   4.811  13.212   8.008
88286SOL    HW166755   4.798  13.174   8.095
88286SOL    HW266756   4.743  13.171   7.954
88287SOL     OW66757   9.313  13.540   2.423
88287SOL    HW166758   9.390  13.589   2.394
88287SOL    HW266759   9.264  13.602   2.476
88288SOL     OW66760  13.797   2.653  13.002
88288SOL    HW166761  13.793   2.566  13.042
88288SOL    HW266762  13.866   2.698  13.049
88289SOL     OW66763   3.790   8.907   6.020
88289SOL    HW166764   3.745   8.970   5.963
88289SOL    HW266765   3.776   8.941   6.109
88290SOL     OW66766   1.177   6.726   3.107
88290SOL    HW166767   1.168   6.816   3.137
88290SOL    HW266768   1.249   6.728   3.044
88291SOL     OW66769   5.060  13.102  11.530
88291SOL    HW166770   5.123  13.061  11.471
88291SOL    HW266771   5.022  13.174  11.479
88292SOL     OW66772   4.618   6.294   4.277
88292SOL    HW166773   4.702   6.263   4.310
88292SOL    HW266774   4.608   6.382   4.314
88293SOL     OW66775  11.313   0.248   1.375
88293SOL    HW166776  11.266   0.298   1.309
88293SOL    HW266777  11.376   0.310   1.411
88294SOL     OW66778   3.338   0.332  10.283
88294SOL    HW166779   3.425   0.371  10.293
88294SOL    HW266780   3.325   0.327  10.188
88295SOL     OW66781  13.859   5.141   7.680
88295SOL    HW166782  13.880   5.087   7.603
88295SOL    HW266783  13.801   5.209   7.646
88296SOL     OW66784   5.945  10.846   6.507
88296SOL    HW166785   5.991  10.767   6.535
88296SOL    HW266786   6.011  10.898   6.461
88297SOL     OW66787  13.706   2.963  13.025
88297SOL    HW166788  13.613   2.954  13.006
88297SOL    HW266789  13.734   3.040  12.975
88298SOL     OW66790   9.427   9.981   1.549
88298SOL    HW166791   9.361  10.050   1.543
88298SOL    HW266792   9.499  10.013   1.495
88299SOL     OW66793   9.850   3.471  10.038
88299SOL    HW166794   9.771   3.521  10.020
88299SOL    HW266795   9.819   3.383  10.060
88300SOL     OW66796   7.314   4.709   7.291
88300SOL    HW166797   7.373   4.745   7.224
88300SOL    HW266798   7.277   4.786   7.334
88301SOL     OW66799  13.692   4.506   7.851
88301SOL    HW166800  13.638   4.457   7.789
88301SOL    HW266801  13.677   4.462   7.935
88302SOL     OW66802   1.648   8.853   0.168
88302SOL    HW166803   1.694   8.786   0.217
88302SOL    HW266804   1.700   8.867   0.089
88303SOL     OW66805   2.823   9.795   0.733
88303SOL    HW166806   2.831   9.886   0.762
88303SOL    HW266807   2.886   9.747   0.787
88304SOL     OW66808   2.216   6.824   0.026
88304SOL    HW166809   2.283   6.857  14.835
88304SOL    HW266810   2.253   6.741   0.058
88305SOL     OW66811   0.534   2.532   5.053
88305SOL    HW166812   0.450   2.488   5.039
88305SOL    HW266813   0.510   2.621   5.080
88306SOL     OW66814   2.369   2.190   6.811
88306SOL    HW166815   2.375   2.164   6.719
88306SOL    HW266816   2.277   2.214   6.823
88307SOL     OW66817   4.808  13.572   5.830
88307SOL    HW166818   4.890  13.602   5.791
88307SOL    HW266819   4.835  13.524   5.908
88308SOL     OW66820  12.810   2.430  13.300
88308SOL    HW166821  12.879   2.364  13.305
88308SOL    HW266822  12.819   2.467  13.212
88309SOL     OW66823   3.003  12.493   9.041
88309SOL    HW166824   2.912  12.502   9.067
88309SOL    HW266825   3.031  12.583   9.023
88310SOL     OW66826   6.436  10.020   0.510
88310SOL    HW166827   6.497  10.021   0.584
88310SOL    HW266828   6.440  10.108   0.473
88311SOL     OW66829  14.302   5.786   8.311
88311SOL    HW166830  14.272   5.745   8.230
88311SOL    HW266831  14.322   5.876   8.287
88312SOL     OW66832   5.073  12.358   5.342
88312SOL    HW166833   5.053  12.279   5.292
88312SOL    HW266834   5.151  12.336   5.393
88313SOL     OW66835   8.844  13.382   4.862
88313SOL    HW166836   8.751  13.386   4.838
88313SOL    HW266837   8.874  13.297   4.828
88314SOL     OW66838  10.519   1.007  13.773
88314SOL    HW166839  10.480   0.924  13.800
88314SOL    HW266840  10.459   1.042  13.708
88315SOL     OW66841   4.368   1.322   0.885
88315SOL    HW166842   4.336   1.233   0.900
88315SOL    HW266843   4.412   1.318   0.800
88316SOL     OW66844  10.376  13.338   8.952
88316SOL    HW166845  10.410  13.275   8.889
88316SOL    HW266846  10.343  13.410   8.899
88317SOL     OW66847   5.074  12.661  12.950
88317SOL    HW166848   5.060  12.645  13.043
88317SOL    HW266849   5.106  12.751  12.945
88318SOL     OW66850   0.430   5.385  14.245
88318SOL    HW166851   0.515   5.420  14.217
88318SOL    HW266852   0.384   5.365  14.163
88319SOL     OW66853   6.026   9.797   9.047
88319SOL    HW166854   5.931   9.799   9.061
88319SOL    HW266855   6.040   9.723   8.988
88320SOL     OW66856   8.433  13.512   3.084
88320SOL    HW166857   8.354  13.499   3.032
88320SOL    HW266858   8.437  13.607   3.097
88321SOL     OW66859  14.372   8.981   2.945
88321SOL    HW166860  14.349   9.057   2.893
88321SOL    HW266861  14.442   8.938   2.895
88322SOL     OW66862   4.714  10.907  12.275
88322SOL    HW166863   4.759  10.981  12.316
88322SOL    HW266864   4.759  10.895  12.192
88323SOL     OW66865   1.857   7.597   4.445
88323SOL    HW166866   1.838   7.534   4.515
88323SOL    HW266867   1.772   7.616   4.407
88324SOL     OW66868   7.215   7.977   8.567
88324SOL    HW166869   7.295   8.018   8.536
88324SOL    HW266870   7.245   7.906   8.625
88325SOL     OW66871   1.480   0.722  11.166
88325SOL    HW166872   1.444   0.634  11.160
88325SOL    HW266873   1.441   0.758  11.246
88326SOL     OW66874  13.392   8.592  12.942
88326SOL    HW166875  13.475   8.596  12.989
88326SOL    HW266876  13.355   8.680  12.952
88327SOL     OW66877   9.189   4.968   5.697
88327SOL    HW166878   9.173   4.916   5.618
88327SOL    HW266879   9.282   4.990   5.692
88328SOL     OW66880   2.339   5.593  12.671
88328SOL    HW166881   2.316   5.529  12.739
88328SOL    HW266882   2.286   5.568  12.595
88329SOL     OW66883   6.525  14.063   1.863
88329SOL    HW166884   6.610  14.021   1.877
88329SOL    HW266885   6.531  14.147   1.909
88330SOL     OW66886   7.588  12.880   2.836
88330SOL    HW166887   7.586  12.947   2.768
88330SOL    HW266888   7.498  12.846   2.840
88331SOL     OW66889   6.078   3.381   9.946
88331SOL    HW166890   6.104   3.459   9.996
88331SOL    HW266891   6.055   3.317  10.014
88332SOL     OW66892  12.860  10.971  12.979
88332SOL    HW166893  12.937  10.997  13.030
88332SOL    HW266894  12.885  10.887  12.939
88333SOL     OW66895   7.102  13.443   4.837
88333SOL    HW166896   7.121  13.411   4.748
88333SOL    HW266897   7.086  13.537   4.825
88334SOL     OW66898   0.893  10.485   2.152
88334SOL    HW166899   0.816  10.461   2.204
88334SOL    HW266900   0.858  10.499   2.063
88335SOL     OW66901   4.225   3.871  12.297
88335SOL    HW166902   4.171   3.950  12.295
88335SOL    HW266903   4.184   3.816  12.363
88336SOL     OW66904   9.221  10.525  12.272
88336SOL    HW166905   9.184  10.613  12.272
88336SOL    HW266906   9.278  10.521  12.196
88337SOL     OW66907   3.962   5.190  14.546
88337SOL    HW166908   3.870   5.187  14.571
88337SOL    HW266909   3.975   5.279  14.512
88338SOL     OW66910   4.097   6.259   0.425
88338SOL    HW166911   4.027   6.195   0.439
88338SOL    HW266912   4.067   6.311   0.350
88339SOL     OW66913   8.074  13.991   4.465
88339SOL    HW166914   8.083  13.896   4.467
88339SOL    HW266915   8.147  14.020   4.409
88340SOL     OW66916   9.976   8.535  10.566
88340SOL    HW166917  10.009   8.622  10.590
88340SOL    HW266918   9.964   8.539  10.471
88341SOL     OW66919   4.406   1.647  12.507
88341SOL    HW166920   4.367   1.559  12.505
88341SOL    HW266921   4.342   1.703  12.464
88342SOL     OW66922  14.750  12.437  12.933
88342SOL    HW166923  14.790  12.498  12.994
88342SOL    HW266924  14.821  12.412  12.874
88343SOL     OW66925   1.014  14.703   9.009
88343SOL    HW166926   1.014  14.771   9.076
88343SOL    HW266927   0.929  14.710   8.967
88344SOL     OW66928  10.689   1.508  10.938
88344SOL    HW166929  10.607   1.548  10.908
88344SOL    HW266930  10.726   1.468  10.859
88345SOL     OW66931   7.658   0.509   0.867
88345SOL    HW166932   7.677   0.563   0.944
88345SOL    HW266933   7.718   0.435   0.874
88346SOL     OW66934   2.778   7.845   9.201
88346SOL    HW166935   2.735   7.917   9.154
88346SOL    HW266936   2.838   7.807   9.137
88347SOL     OW66937   1.047  12.626   1.648
88347SOL    HW166938   1.062  12.536   1.675
88347SOL    HW266939   0.962  12.624   1.604
88348SOL     OW66940   0.034   8.979   4.947
88348SOL    HW166941  14.827   9.017   4.904
88348SOL    HW266942   0.106   8.996   4.887
88349SOL     OW66943  14.787   4.127  12.571
88349SOL    HW166944  14.729   4.183  12.623
88349SOL    HW266945  14.837   4.077  12.635
88350SOL     OW66946   3.543  12.237   1.156
88350SOL    HW166947   3.553  12.234   1.252
88350SOL    HW266948   3.461  12.191   1.139
88351SOL     OW66949   3.702   5.439   4.471
88351SOL    HW166950   3.610   5.444   4.496
88351SOL    HW266951   3.725   5.529   4.446
88352SOL     OW66952   8.036  13.841   7.519
88352SOL    HW166953   8.028  13.801   7.433
88352SOL    HW266954   8.129  13.858   7.530
88353SOL     OW66955   4.637   4.884   8.893
88353SOL    HW166956   4.552   4.845   8.873
88353SOL    HW266957   4.693   4.856   8.821
88354SOL     OW66958  13.845   0.968  12.914
88354SOL    HW166959  13.750   0.956  12.912
88354SOL    HW266960  13.880   0.882  12.936
88355SOL     OW66961  12.079   0.378  14.649
88355SOL    HW166962  12.160   0.424  14.625
88355SOL    HW266963  12.098   0.340  14.734
88356SOL     OW66964   2.440   9.248  14.587
88356SOL    HW166965   2.501   9.289  14.648
88356SOL    HW266966   2.435   9.308  14.513
88357SOL     OW66967   0.172  10.523  11.053
88357SOL    HW166968   0.245  10.496  11.108
88357SOL    HW266969   0.160  10.450  10.992
88358SOL     OW66970  14.359  13.773   8.868
88358SOL    HW166971  14.360  13.679   8.884
88358SOL    HW266972  14.278  13.803   8.909
88359SOL     OW66973   4.319   0.216  12.016
88359SOL    HW166974   4.405   0.258  12.018
88359SOL    HW266975   4.262   0.277  12.062
88360SOL     OW66976   1.188   0.933  13.689
88360SOL    HW166977   1.282   0.930  13.703
88360SOL    HW266978   1.155   0.993  13.756
88361SOL     OW66979  10.380   9.901  13.219
88361SOL    HW166980  10.460   9.869  13.261
88361SOL    HW266981  10.410   9.942  13.138
88362SOL     OW66982   6.830   5.141  12.270
88362SOL    HW166983   6.882   5.107  12.197
88362SOL    HW266984   6.810   5.064  12.324
88363SOL     OW66985  10.281   8.677  12.446
88363SOL    HW166986  10.189   8.656  12.435
88363SOL    HW266987  10.326   8.593  12.443
88364SOL     OW66988   8.715  13.252   9.815
88364SOL    HW166989   8.681  13.299   9.739
88364SOL    HW266990   8.735  13.165   9.782
88365SOL     OW66991  14.711   2.659  13.772
88365SOL    HW166992  14.779   2.720  13.746
88365SOL    HW266993  14.755   2.575  13.778
88366SOL     OW66994   1.588   9.351   7.708
88366SOL    HW166995   1.661   9.412   7.706
88366SOL    HW266996   1.601   9.301   7.789
88367SOL     OW66997  11.698   1.727   5.571
88367SOL    HW166998  11.640   1.767   5.635
88367SOL    HW266999  11.682   1.633   5.578
88368SOL     OW67000   2.281   5.445   7.585
88368SOL    HW167001   2.202   5.494   7.606
88368SOL    HW267002   2.256   5.353   7.592
88369SOL     OW67003   4.045   1.078   3.285
88369SOL    HW167004   4.104   1.012   3.324
88369SOL    HW267005   3.966   1.074   3.339
88370SOL     OW67006   9.882   8.984   9.845
88370SOL    HW167007   9.932   8.946   9.772
88370SOL    HW267008   9.805   9.022   9.803
88371SOL     OW67009   2.457   3.429   3.367
88371SOL    HW167010   2.382   3.489   3.364
88371SOL    HW267011   2.459   3.388   3.281
88372SOL     OW67012  13.468  13.545   2.342
88372SOL    HW167013  13.509  13.631   2.330
88372SOL    HW267014  13.397  13.561   2.403
88373SOL     OW67015  10.990   6.062  14.401
88373SOL    HW167016  10.991   6.011  14.320
88373SOL    HW267017  11.081   6.089  14.413
88374SOL     OW67018  14.096   0.772   4.958
88374SOL    HW167019  14.073   0.709   4.889
88374SOL    HW267020  14.127   0.849   4.910
88375SOL     OW67021   3.161  11.858   4.715
88375SOL    HW167022   3.080  11.908   4.718
88375SOL    HW267023   3.153  11.795   4.787
88376SOL     OW67024   1.682   8.281  13.212
88376SOL    HW167025   1.643   8.254  13.295
88376SOL    HW267026   1.606   8.307  13.158
88377SOL     OW67027   2.548  11.975  13.109
88377SOL    HW167028   2.496  11.917  13.164
88377SOL    HW267029   2.627  11.992  13.160
88378SOL     OW67030   2.781   8.315   5.561
88378SOL    HW167031   2.835   8.281   5.632
88378SOL    HW267032   2.705   8.257   5.558
88379SOL     OW67033   8.435   5.897   3.800
88379SOL    HW167034   8.505   5.856   3.851
88379SOL    HW267035   8.371   5.828   3.787
88380SOL     OW67036  10.861  12.297   4.630
88380SOL    HW167037  10.887  12.236   4.561
88380SOL    HW267038  10.858  12.383   4.587
88381SOL     OW67039   7.414   8.376   1.380
88381SOL    HW167040   7.338   8.395   1.436
88381SOL    HW267041   7.407   8.283   1.362
88382SOL     OW67042   4.055  13.200  12.111
88382SOL    HW167043   4.035  13.136  12.179
88382SOL    HW267044   3.982  13.262  12.113
88383SOL     OW67045  12.684  14.319  14.294
88383SOL    HW167046  12.749  14.288  14.357
88383SOL    HW267047  12.734  14.368  14.230
88384SOL     OW67048  13.492  12.526   7.823
88384SOL    HW167049  13.458  12.608   7.787
88384SOL    HW267050  13.417  12.466   7.823
88385SOL     OW67051   7.970   6.943  11.576
88385SOL    HW167052   7.937   6.902  11.496
88385SOL    HW267053   7.939   6.885  11.646
88386SOL     OW67054  10.783   4.544   2.890
88386SOL    HW167055  10.856   4.487   2.911
88386SOL    HW267056  10.706   4.498   2.923
88387SOL     OW67057   0.501   2.775   3.331
88387SOL    HW167058   0.579   2.819   3.364
88387SOL    HW267059   0.534   2.713   3.266
88388SOL     OW67060   1.718  11.554   5.264
88388SOL    HW167061   1.751  11.629   5.313
88388SOL    HW267062   1.624  11.566   5.262
88389SOL     OW67063   7.961   9.347  12.658
88389SOL    HW167064   8.055   9.353  12.672
88389SOL    HW267065   7.949   9.265  12.610
88390SOL     OW67066   9.240   2.033   6.036
88390SOL    HW167067   9.271   1.943   6.048
88390SOL    HW267068   9.145   2.024   6.026
88391SOL     OW67069  11.023  11.813   5.077
88391SOL    HW167070  10.949  11.752   5.064
88391SOL    HW267071  10.993  11.873   5.145
88392SOL     OW67072   6.685   6.414   8.614
88392SOL    HW167073   6.677   6.443   8.523
88392SOL    HW267074   6.595   6.392   8.640
88393SOL     OW67075   4.751   6.370   7.030
88393SOL    HW167076   4.788   6.356   7.117
88393SOL    HW267077   4.813   6.327   6.971
88394SOL     OW67078  14.810   3.932   8.220
88394SOL    HW167079  14.841   3.841   8.224
88394SOL    HW267080   0.018   3.982   8.196
88395SOL     OW67081   8.158   4.266  13.543
88395SOL    HW167082   8.197   4.345  13.504
88395SOL    HW267083   8.083   4.298  13.593
88396SOL     OW67084   2.074   6.696  11.853
88396SOL    HW167085   2.028   6.665  11.774
88396SOL    HW267086   2.152   6.641  11.859
88397SOL     OW67087   0.965   8.126   0.852
88397SOL    HW167088   0.902   8.198   0.859
88397SOL    HW267089   1.036   8.152   0.911
88398SOL     OW67090   3.286  12.692   7.751
88398SOL    HW167091   3.292  12.654   7.664
88398SOL    HW267092   3.377  12.711   7.775
88399SOL     OW67093  13.236  11.438   5.988
88399SOL    HW167094  13.266  11.370   6.048
88399SOL    HW267095  13.237  11.518   6.040
88400SOL     OW67096  14.803   9.835  11.705
88400SOL    HW167097  14.834   9.822  11.795
88400SOL    HW267098  14.803   9.748  11.666
88401SOL     OW67099   8.456   3.019   6.392
88401SOL    HW167100   8.531   2.980   6.347
88401SOL    HW267101   8.428   3.091   6.336
88402SOL     OW67102  11.388   3.075  12.195
88402SOL    HW167103  11.408   3.156  12.149
88402SOL    HW267104  11.447   3.010  12.157
88403SOL     OW67105  13.911   7.218   2.002
88403SOL    HW167106  13.925   7.304   1.963
88403SOL    HW267107  13.850   7.174   1.943
88404SOL     OW67108   8.933   8.166  11.033
88404SOL    HW167109   8.984   8.100  11.080
88404SOL    HW267110   8.899   8.120  10.957
88405SOL     OW67111   6.145  10.979   6.377
88405SOL    HW167112   6.193  11.042   6.430
88405SOL    HW267113   6.206  10.906   6.364
88406SOL     OW67114  13.516   3.575   6.379
88406SOL    HW167115  13.478   3.490   6.362
88406SOL    HW267116  13.548   3.570   6.469
88407SOL     OW67117  11.417   6.520  11.132
88407SOL    HW167118  11.387   6.432  11.111
88407SOL    HW267119  11.495   6.533  11.078
88408SOL     OW67120  14.589   9.236   1.396
88408SOL    HW167121  14.507   9.208   1.437
88408SOL    HW267122  14.610   9.167   1.333
88409SOL     OW67123   5.411  11.334  14.066
88409SOL    HW167124   5.492  11.349  14.116
88409SOL    HW267125   5.385  11.245  14.089
88410SOL     OW67126   3.453   9.232   2.914
88410SOL    HW167127   3.519   9.200   2.976
88410SOL    HW267128   3.502   9.246   2.833
88411SOL     OW67129   3.000   9.448   2.965
88411SOL    HW167130   3.083   9.489   2.940
88411SOL    HW267131   3.011   9.425   3.057
88412SOL     OW67132   0.244   0.051   5.077
88412SOL    HW167133   0.212  14.841   5.035
88412SOL    HW267134   0.281   0.102   5.005
88413SOL     OW67135  13.588   5.677   5.555
88413SOL    HW167136  13.595   5.589   5.518
88413SOL    HW267137  13.566   5.732   5.479
88414SOL     OW67138   3.221   1.001  10.661
88414SOL    HW167139   3.317   0.998  10.670
88414SOL    HW267140   3.196   0.909  10.651
88415SOL     OW67141   3.890  14.059   1.986
88415SOL    HW167142   3.881  14.073   1.892
88415SOL    HW267143   3.823  13.994   2.007
88416SOL     OW67144  12.799  12.034   1.775
88416SOL    HW167145  12.758  11.948   1.779
88416SOL    HW267146  12.850  12.040   1.856
88417SOL     OW67147  14.234  13.773   3.443
88417SOL    HW167148  14.161  13.744   3.497
88417SOL    HW267149  14.193  13.802   3.361
88418SOL     OW67150   0.016   0.227   0.418
88418SOL    HW167151  14.811   0.274   0.383
88418SOL    HW267152  14.852   0.139   0.438
88419SOL     OW67153   6.190   6.289  11.262
88419SOL    HW167154   6.210   6.197  11.245
88419SOL    HW267155   6.147   6.319  11.182
88420SOL     OW67156   2.963   1.091  10.955
88420SOL    HW167157   2.984   1.088  10.862
88420SOL    HW267158   3.048   1.102  10.998
88421SOL     OW67159   7.889  11.384   3.309
88421SOL    HW167160   7.983  11.375   3.290
88421SOL    HW267161   7.876  11.479   3.319
88422SOL     OW67162   5.449   1.508   8.869
88422SOL    HW167163   5.453   1.415   8.845
88422SOL    HW267164   5.501   1.515   8.949
88423SOL     OW67165   2.574   1.748   1.955
88423SOL    HW167166   2.614   1.784   1.876
88423SOL    HW267167   2.603   1.807   2.025
88424SOL     OW67168   1.490   4.673   4.356
88424SOL    HW167169   1.482   4.650   4.449
88424SOL    HW267170   1.404   4.708   4.332
88425SOL     OW67171   3.844   3.849   0.999
88425SOL    HW167172   3.899   3.875   0.925
88425SOL    HW267173   3.839   3.927   1.054
88426SOL     OW67174   3.101   8.542  10.938
88426SOL    HW167175   3.078   8.621  10.986
88426SOL    HW267176   3.021   8.489  10.939
88427SOL     OW67177   1.320   7.836   3.046
88427SOL    HW167178   1.282   7.752   3.019
88427SOL    HW267179   1.248   7.898   3.043
88428SOL     OW67180   6.837   2.623   5.650
88428SOL    HW167181   6.776   2.659   5.585
88428SOL    HW267182   6.812   2.531   5.659
88429SOL     OW67183   9.929   3.496   3.665
88429SOL    HW167184   9.836   3.494   3.690
88429SOL    HW267185   9.932   3.559   3.593
88430SOL     OW67186   6.385   6.449  11.518
88430SOL    HW167187   6.391   6.457  11.423
88430SOL    HW267188   6.347   6.363  11.532
88431SOL     OW67189   0.685   7.465   4.513
88431SOL    HW167190   0.687   7.475   4.418
88431SOL    HW267191   0.719   7.549   4.546
88432SOL     OW67192   9.127  11.889   9.567
88432SOL    HW167193   9.198  11.921   9.623
88432SOL    HW267194   9.104  11.804   9.605
88433SOL     OW67195  11.846   2.910   2.298
88433SOL    HW167196  11.940   2.910   2.314
88433SOL    HW267197  11.838   2.885   2.206
88434SOL     OW67198   4.555  10.867  13.246
88434SOL    HW167199   4.649  10.880  13.257
88434SOL    HW267200   4.544  10.854  13.152
88435SOL     OW67201   0.358   2.831  13.123
88435SOL    HW167202   0.356   2.743  13.161
88435SOL    HW267203   0.352   2.889  13.199
88436SOL     OW67204  13.491   7.919   1.542
88436SOL    HW167205  13.478   7.836   1.496
88436SOL    HW267206  13.579   7.912   1.580
88437SOL     OW67207   2.858   1.814   4.967
88437SOL    HW167208   2.833   1.750   4.900
88437SOL    HW267209   2.852   1.899   4.922
88438SOL     OW67210  12.318   6.119  11.534
88438SOL    HW167211  12.236   6.128  11.582
88438SOL    HW267212  12.350   6.209  11.523
88439SOL     OW67213   5.004   1.332   2.575
88439SOL    HW167214   5.043   1.282   2.647
88439SOL    HW267215   4.967   1.265   2.516
88440SOL     OW67216   8.083   8.540  10.789
88440SOL    HW167217   8.045   8.454  10.808
88440SOL    HW267218   8.015   8.585  10.738
88441SOL     OW67219   4.346   6.308   4.844
88441SOL    HW167220   4.328   6.226   4.890
88441SOL    HW267221   4.418   6.348   4.893
88442SOL     OW67222   8.249  12.796  13.544
88442SOL    HW167223   8.247  12.889  13.521
88442SOL    HW267224   8.187  12.755  13.484
88443SOL     OW67225  14.211   5.957   4.323
88443SOL    HW167226  14.267   5.910   4.261
88443SOL    HW267227  14.250   6.045   4.327
88444SOL     OW67228  11.742  10.098   8.941
88444SOL    HW167229  11.814  10.124   8.997
88444SOL    HW267230  11.744  10.002   8.942
88445SOL     OW67231   7.874   8.515   3.250
88445SOL    HW167232   7.904   8.601   3.221
88445SOL    HW267233   7.889   8.457   3.176
88446SOL     OW67234  14.788   4.172   2.613
88446SOL    HW167235  14.853   4.228   2.572
88446SOL    HW267236  14.707   4.223   2.610
88447SOL     OW67237   5.682   5.377   6.295
88447SOL    HW167238   5.604   5.324   6.315
88447SOL    HW267239   5.654   5.436   6.225
88448SOL     OW67240   2.479   9.570  11.283
88448SOL    HW167241   2.384   9.582  11.278
88448SOL    HW267242   2.514   9.631  11.218
88449SOL     OW67243   6.010  12.193  13.459
88449SOL    HW167244   6.059  12.140  13.522
88449SOL    HW267245   5.920  12.159  13.465
88450SOL     OW67246   6.661  13.458   5.419
88450SOL    HW167247   6.662  13.494   5.331
88450SOL    HW267248   6.578  13.488   5.456
88451SOL     OW67249  10.647   3.394   8.519
88451SOL    HW167250  10.604   3.452   8.457
88451SOL    HW267251  10.600   3.311   8.513
88452SOL     OW67252  11.316   1.569   4.798
88452SOL    HW167253  11.348   1.641   4.852
88452SOL    HW267254  11.375   1.496   4.817
88453SOL     OW67255   7.311   6.834   9.073
88453SOL    HW167256   7.244   6.766   9.074
88453SOL    HW267257   7.281   6.897   9.008
88454SOL     OW67258   1.580   2.230   9.196
88454SOL    HW167259   1.624   2.297   9.145
88454SOL    HW267260   1.575   2.265   9.285
88455SOL     OW67261   6.291   2.770  12.261
88455SOL    HW167262   6.242   2.841  12.302
88455SOL    HW267263   6.246   2.754  12.178
88456SOL     OW67264   1.368   3.285  11.177
88456SOL    HW167265   1.360   3.243  11.091
88456SOL    HW267266   1.333   3.373  11.164
88457SOL     OW67267  12.309   3.752   5.652
88457SOL    HW167268  12.283   3.699   5.576
88457SOL    HW267269  12.261   3.834   5.642
88458SOL     OW67270   1.424   4.368   6.355
88458SOL    HW167271   1.441   4.431   6.286
88458SOL    HW267272   1.398   4.421   6.431
88459SOL     OW67273   7.918  12.610  10.019
88459SOL    HW167274   7.968  12.690  10.000
88459SOL    HW267275   7.985  12.545  10.040
88460SOL     OW67276  14.813  13.240  11.470
88460SOL    HW167277  14.839  13.332  11.472
88460SOL    HW267278   0.003  13.197  11.532
88461SOL     OW67279   4.919   2.934   1.972
88461SOL    HW167280   4.841   2.899   2.013
88461SOL    HW267281   4.887   2.994   1.905
88462SOL     OW67282   9.719   0.968   3.281
88462SOL    HW167283   9.675   0.919   3.212
88462SOL    HW267284   9.805   0.989   3.245
88463SOL     OW67285   9.866   8.408  14.682
88463SOL    HW167286   9.900   8.341  14.623
88463SOL    HW267287   9.829   8.360  14.756
88464SOL     OW67288   0.051   0.964  11.618
88464SOL    HW167289   0.069   0.958  11.712
88464SOL    HW267290   0.010   0.881  11.596
88465SOL     OW67291   1.363   8.281   6.514
88465SOL    HW167292   1.391   8.341   6.583
88465SOL    HW267293   1.319   8.337   6.450
88466SOL     OW67294   1.868   3.113   4.184
88466SOL    HW167295   1.939   3.090   4.244
88466SOL    HW267296   1.898   3.194   4.142
88467SOL     OW67297   6.904  14.722   4.740
88467SOL    HW167298   6.993  14.710   4.707
88467SOL    HW267299   6.894  14.817   4.746
88468SOL     OW67300  10.119   1.594   6.201
88468SOL    HW167301  10.193   1.642   6.163
88468SOL    HW267302  10.101   1.524   6.139
88469SOL     OW67303   8.410   4.220   2.380
88469SOL    HW167304   8.319   4.205   2.354
88469SOL    HW267305   8.405   4.246   2.473
88470SOL     OW67306   8.615   9.953   2.766
88470SOL    HW167307   8.639   9.898   2.841
88470SOL    HW267308   8.585  10.035   2.805
88471SOL     OW67309  12.490  13.424   0.196
88471SOL    HW167310  12.507  13.519   0.198
88471SOL    HW267311  12.395  13.417   0.189
88472SOL     OW67312   0.137  14.717   7.311
88472SOL    HW167313   0.102  14.795   7.268
88472SOL    HW267314   0.105  14.644   7.258
88473SOL     OW67315  11.338   7.520   4.152
88473SOL    HW167316  11.425   7.480   4.152
88473SOL    HW267317  11.342   7.586   4.221
88474SOL     OW67318   0.495   4.423  14.331
88474SOL    HW167319   0.470   4.463  14.415
88474SOL    HW267320   0.457   4.479  14.265
88475SOL     OW67321   0.992   8.298   9.451
88475SOL    HW167322   1.003   8.382   9.407
88475SOL    HW267323   0.974   8.320   9.542
88476SOL     OW67324  13.809   7.049   5.633
88476SOL    HW167325  13.871   7.118   5.657
88476SOL    HW267326  13.795   7.060   5.539
88477SOL     OW67327   9.647   6.272  12.877
88477SOL    HW167328   9.613   6.321  12.803
88477SOL    HW267329   9.705   6.206  12.838
88478SOL     OW67330   9.685   9.208  13.758
88478SOL    HW167331   9.700   9.119  13.726
88478SOL    HW267332   9.757   9.225  13.819
88479SOL     OW67333   1.007   9.357   8.012
88479SOL    HW167334   0.970   9.431   8.060
88479SOL    HW267335   0.964   9.361   7.926
88480SOL     OW67336   9.841   8.343  10.960
88480SOL    HW167337   9.756   8.305  10.984
88480SOL    HW267338   9.855   8.316  10.870
88481SOL     OW67339  11.674  12.922   5.609
88481SOL    HW167340  11.713  12.893   5.527
88481SOL    HW267341  11.593  12.872   5.616
88482SOL     OW67342   7.595  14.370  14.035
88482SOL    HW167343   7.650  14.298  14.068
88482SOL    HW267344   7.657  14.434  14.000
88483SOL     OW67345   7.652   9.571  11.235
88483SOL    HW167346   7.670   9.649  11.287
88483SOL    HW267347   7.735   9.522  11.236
88484SOL     OW67348   0.457   9.137   1.315
88484SOL    HW167349   0.457   9.203   1.246
88484SOL    HW267350   0.550   9.126   1.337
88485SOL     OW67351  11.719   0.674  11.463
88485SOL    HW167352  11.802   0.677  11.415
88485SOL    HW267353  11.688   0.584  11.452
88486SOL     OW67354  10.982  12.834  11.643
88486SOL    HW167355  10.943  12.751  11.671
88486SOL    HW267356  11.070  12.834  11.682
88487SOL     OW67357  11.871   9.885  13.665
88487SOL    HW167358  11.904   9.795  13.658
88487SOL    HW267359  11.794   9.878  13.722
88488SOL     OW67360   1.702  11.141  11.075
88488SOL    HW167361   1.776  11.156  11.134
88488SOL    HW267362   1.739  11.089  11.003
88489SOL     OW67363   7.724   8.747  12.297
88489SOL    HW167364   7.641   8.743  12.250
88489SOL    HW267365   7.705   8.709  12.383
88490SOL     OW67366   3.248  10.804   0.542
88490SOL    HW167367   3.342  10.815   0.525
88490SOL    HW267368   3.235  10.844   0.628
88491SOL     OW67369  10.444   5.697   4.748
88491SOL    HW167370  10.508   5.764   4.726
88491SOL    HW267371  10.497   5.623   4.779
88492SOL     OW67372  13.955   6.926  14.430
88492SOL    HW167373  13.971   6.989  14.360
88492SOL    HW267374  13.888   6.867  14.395
88493SOL     OW67375   2.171   3.734   1.512
88493SOL    HW167376   2.204   3.813   1.555
88493SOL    HW267377   2.153   3.761   1.422
88494SOL     OW67378  10.265  10.192   3.056
88494SOL    HW167379  10.343  10.185   3.001
88494SOL    HW267380  10.267  10.114   3.111
88495SOL     OW67381   2.344  10.429   2.225
88495SOL    HW167382   2.320  10.394   2.140
88495SOL    HW267383   2.285  10.503   2.239
88496SOL     OW67384   8.825   7.318   6.650
88496SOL    HW167385   8.808   7.260   6.576
88496SOL    HW267386   8.768   7.285   6.720
88497SOL     OW67387  10.877   2.600   8.549
88497SOL    HW167388  10.934   2.659   8.500
88497SOL    HW267389  10.811   2.657   8.588
88498SOL     OW67390   8.957   1.306   1.628
88498SOL    HW167391   8.932   1.233   1.571
88498SOL    HW267392   8.932   1.384   1.579
88499SOL     OW67393  10.150   7.143   7.447
88499SOL    HW167394  10.101   7.175   7.522
88499SOL    HW267395  10.215   7.211   7.430
88500SOL     OW67396  13.555   7.414  13.178
88500SOL    HW167397  13.643   7.447  13.161
88500SOL    HW267398  13.546   7.338  13.119
88501SOL     OW67399   8.926   8.344   4.854
88501SOL    HW167400   8.984   8.412   4.890
88501SOL    HW267401   8.931   8.273   4.918
88502SOL     OW67402  11.212   9.029   5.609
88502SOL    HW167403  11.155   9.016   5.685
88502SOL    HW267404  11.205   9.122   5.589
88503SOL     OW67405  14.564   2.385  11.608
88503SOL    HW167406  14.555   2.292  11.591
88503SOL    HW267407  14.496   2.405  11.672
88504SOL     OW67408   0.819  14.457   8.798
88504SOL    HW167409   0.885  14.391   8.816
88504SOL    HW267410   0.766  14.460   8.878
88505SOL     OW67411   3.279   7.165   2.744
88505SOL    HW167412   3.345   7.097   2.733
88505SOL    HW267413   3.312   7.221   2.814
88506SOL     OW67414   4.758   2.424  11.283
88506SOL    HW167415   4.752   2.510  11.241
88506SOL    HW267416   4.815   2.439  11.359
88507SOL     OW67417  10.657  10.441  13.772
88507SOL    HW167418  10.665  10.466  13.864
88507SOL    HW267419  10.574  10.480  13.743
88508SOL     OW67420  13.657   6.499   7.849
88508SOL    HW167421  13.735   6.449   7.874
88508SOL    HW267422  13.645   6.481   7.756
88509SOL     OW67423   0.870   3.681   5.107
88509SOL    HW167424   0.956   3.643   5.125
88509SOL    HW267425   0.860   3.751   5.172
88510SOL     OW67426   7.862   4.731  12.441
88510SOL    HW167427   7.950   4.766  12.454
88510SOL    HW267428   7.822   4.790  12.378
88511SOL     OW67429   0.098  11.218   1.042
88511SOL    HW167430   0.145  11.295   1.073
88511SOL    HW267431   0.151  11.144   1.073
88512SOL     OW67432   4.566   8.656  13.471
88512SOL    HW167433   4.559   8.577  13.525
88512SOL    HW267434   4.657   8.657  13.441
88513SOL     OW67435   7.680  14.276   4.597
88513SOL    HW167436   7.605  14.261   4.540
88513SOL    HW267437   7.757  14.259   4.542
88514SOL     OW67438   6.754   4.019  13.269
88514SOL    HW167439   6.842   4.004  13.235
88514SOL    HW267440   6.716   4.084  13.210
88515SOL     OW67441   3.532   6.641   4.781
88515SOL    HW167442   3.581   6.575   4.731
88515SOL    HW267443   3.599   6.697   4.820
88516SOL     OW67444   0.153   8.919  14.671
88516SOL    HW167445   0.066   8.913  14.710
88516SOL    HW267446   0.137   8.926  14.577
88517SOL     OW67447   6.095   0.956  13.411
88517SOL    HW167448   6.190   0.943  13.412
88517SOL    HW267449   6.084   1.048  13.439
88518SOL     OW67450  14.217   8.622   4.523
88518SOL    HW167451  14.126   8.642   4.545
88518SOL    HW267452  14.262   8.620   4.607
88519SOL     OW67453  10.833   2.829   0.776
88519SOL    HW167454  10.777   2.764   0.733
88519SOL    HW267455  10.796   2.837   0.864
88520SOL     OW67456   2.304   5.144   5.168
88520SOL    HW167457   2.258   5.061   5.158
88520SOL    HW267458   2.362   5.130   5.243
88521SOL     OW67459  10.160   9.972   5.542
88521SOL    HW167460  10.210   9.902   5.585
88521SOL    HW267461  10.069   9.952   5.563
88522SOL     OW67462  14.202  14.162  12.556
88522SOL    HW167463  14.152  14.200  12.628
88522SOL    HW267464  14.292  14.191  12.572
88523SOL     OW67465   9.428   3.630  10.783
88523SOL    HW167466   9.422   3.725  10.775
88523SOL    HW267467   9.495   3.616  10.851
88524SOL     OW67468  11.505   5.621  13.456
88524SOL    HW167469  11.512   5.717  13.448
88524SOL    HW267470  11.418   5.601  13.421
88525SOL     OW67471   1.598   3.616   3.695
88525SOL    HW167472   1.662   3.683   3.718
88525SOL    HW267473   1.525   3.665   3.658
88526SOL     OW67474  11.068  14.623  13.841
88526SOL    HW167475  11.089  14.537  13.877
88526SOL    HW267476  11.126  14.633  13.765
88527SOL     OW67477   3.540  13.250   9.863
88527SOL    HW167478   3.519  13.330   9.911
88527SOL    HW267479   3.605  13.206   9.918
88528SOL     OW67480  10.407   7.627  11.678
88528SOL    HW167481  10.418   7.563  11.608
88528SOL    HW267482  10.478   7.609  11.739
88529SOL     OW67483   5.888  10.082   2.418
88529SOL    HW167484   5.832  10.128   2.482
88529SOL    HW267485   5.862   9.990   2.426
88530SOL     OW67486   8.798   5.477  13.240
88530SOL    HW167487   8.758   5.392  13.223
88530SOL    HW267488   8.748   5.513  13.313
88531SOL     OW67489   9.127   5.833  12.770
88531SOL    HW167490   9.091   5.903  12.717
88531SOL    HW267491   9.056   5.769  12.777
88532SOL     OW67492  14.843   3.058  14.302
88532SOL    HW167493  14.809   3.100  14.381
88532SOL    HW267494  14.821   3.119  14.231
88533SOL     OW67495   4.859  10.119   6.498
88533SOL    HW167496   4.933  10.063   6.519
88533SOL    HW267497   4.851  10.178   6.573
88534SOL     OW67498  13.686   5.615  11.771
88534SOL    HW167499  13.689   5.521  11.750
88534SOL    HW267500  13.663   5.618  11.864
88535SOL     OW67501  10.720   5.082  11.065
88535SOL    HW167502  10.691   4.995  11.094
88535SOL    HW267503  10.719   5.077  10.969
88536SOL     OW67504   0.594   9.800  11.031
88536SOL    HW167505   0.514   9.765  10.991
88536SOL    HW267506   0.659   9.731  11.020
88537SOL     OW67507  13.462   3.207   7.904
88537SOL    HW167508  13.552   3.201   7.875
88537SOL    HW267509  13.413   3.236   7.827
88538SOL     OW67510   2.638   1.547  14.748
88538SOL    HW167511   2.681   1.603  14.813
88538SOL    HW267512   2.701   1.539  14.677
88539SOL     OW67513  11.385   7.240   8.770
88539SOL    HW167514  11.416   7.240   8.861
88539SOL    HW267515  11.403   7.328   8.739
88540SOL     OW67516   9.883  11.217   1.556
88540SOL    HW167517   9.863  11.134   1.600
88540SOL    HW267518   9.797  11.253   1.534
88541SOL     OW67519   3.736   5.783   5.160
88541SOL    HW167520   3.676   5.826   5.221
88541SOL    HW267521   3.797   5.851   5.134
88542SOL     OW67522   7.059  11.419   8.412
88542SOL    HW167523   7.013  11.412   8.496
88542SOL    HW267524   7.000  11.468   8.355
88543SOL     OW67525  14.386   4.723  10.406
88543SOL    HW167526  14.472   4.759  10.388
88543SOL    HW267527  14.344   4.717  10.320
88544SOL     OW67528   3.621   9.572   9.743
88544SOL    HW167529   3.634   9.666   9.736
88544SOL    HW267530   3.680   9.535   9.676
88545SOL     OW67531   1.037   5.415   5.257
88545SOL    HW167532   0.976   5.391   5.188
88545SOL    HW267533   1.106   5.464   5.212
88546SOL     OW67534  10.907  10.612   7.549
88546SOL    HW167535  10.985  10.605   7.603
88546SOL    HW267536  10.898  10.526   7.508
88547SOL     OW67537  14.506   7.978   0.968
88547SOL    HW167538  14.459   7.958   0.887
88547SOL    HW267539  14.578   8.035   0.940
88548SOL     OW67540  14.616  13.956  10.492
88548SOL    HW167541  14.618  13.882  10.552
88548SOL    HW267542  14.706  13.967  10.464
88549SOL     OW67543   4.377   2.123   1.585
88549SOL    HW167544   4.448   2.136   1.648
88549SOL    HW267545   4.308   2.078   1.635
88550SOL     OW67546   1.661   8.181   6.928
88550SOL    HW167547   1.624   8.230   7.002
88550SOL    HW267548   1.597   8.112   6.912
88551SOL     OW67549   3.004   2.009   1.111
88551SOL    HW167550   2.986   1.916   1.127
88551SOL    HW267551   2.934   2.037   1.052
88552SOL     OW67552  11.781  10.028   7.429
88552SOL    HW167553  11.793  10.060   7.339
88552SOL    HW267554  11.688  10.007   7.434
88553SOL     OW67555  14.665   4.690  11.889
88553SOL    HW167556  14.653   4.782  11.865
88553SOL    HW267557  14.694   4.647  11.808
88554SOL     OW67558  13.182   3.514   7.872
88554SOL    HW167559  13.251   3.578   7.893
88554SOL    HW267560  13.130   3.555   7.803
88555SOL     OW67561   9.043   3.490  10.052
88555SOL    HW167562   8.968   3.442  10.018
88555SOL    HW267563   9.077   3.435  10.123
88556SOL     OW67564   8.647   4.060   8.277
88556SOL    HW167565   8.652   4.114   8.356
88556SOL    HW267566   8.636   4.124   8.206
88557SOL     OW67567   8.906   9.313   7.349
88557SOL    HW167568   8.969   9.377   7.316
88557SOL    HW267569   8.848   9.296   7.274
88558SOL     OW67570  11.195  13.319   8.899
88558SOL    HW167571  11.153  13.386   8.953
88558SOL    HW267572  11.146  13.320   8.817
88559SOL     OW67573  12.524   7.241   8.092
88559SOL    HW167574  12.468   7.199   8.157
88559SOL    HW267575  12.482   7.325   8.075
88560SOL     OW67576  12.625  10.908  14.722
88560SOL    HW167577  12.626  11.000  14.697
88560SOL    HW267578  12.573  10.905  14.802
88561SOL     OW67579  14.719   2.582   8.467
88561SOL    HW167580  14.707   2.490   8.444
88561SOL    HW267581  14.744   2.624   8.385
88562SOL     OW67582   5.765   1.765   9.250
88562SOL    HW167583   5.778   1.671   9.263
88562SOL    HW267584   5.849   1.805   9.276
88563SOL     OW67585   3.023  14.192   6.611
88563SOL    HW167586   3.095  14.199   6.674
88563SOL    HW267587   3.024  14.276   6.565
88564SOL     OW67588   1.431   4.252   0.288
88564SOL    HW167589   1.424   4.311   0.213
88564SOL    HW267590   1.506   4.197   0.267
88565SOL     OW67591   4.096  13.336   2.245
88565SOL    HW167592   4.170  13.396   2.253
88565SOL    HW267593   4.134  13.254   2.212
88566SOL     OW67594   0.184   0.697   6.627
88566SOL    HW167595   0.226   0.725   6.708
88566SOL    HW267596   0.213   0.606   6.615
88567SOL     OW67597  13.439   5.125   0.176
88567SOL    HW167598  13.371   5.060   0.157
88567SOL    HW267599  13.477   5.097   0.259
88568SOL     OW67600   5.550  11.366  13.110
88568SOL    HW167601   5.588  11.395  13.027
88568SOL    HW267602   5.469  11.417  13.119
88569SOL     OW67603   1.448   5.098  14.012
88569SOL    HW167604   1.496   5.169  14.054
88569SOL    HW267605   1.371   5.085  14.068
88570SOL     OW67606  12.172   5.050   7.287
88570SOL    HW167607  12.162   4.966   7.243
88570SOL    HW267608  12.095   5.057   7.344
88571SOL     OW67609   3.969  12.029   7.029
88571SOL    HW167610   3.991  12.115   7.062
88571SOL    HW267611   3.875  12.020   7.046
88572SOL     OW67612  13.877   1.231   3.768
88572SOL    HW167613  13.884   1.278   3.851
88572SOL    HW267614  13.786   1.201   3.765
88573SOL     OW67615  11.568   1.108   1.795
88573SOL    HW167616  11.480   1.076   1.775
88573SOL    HW267617  11.589   1.167   1.724
88574SOL     OW67618   7.497  12.711   0.656
88574SOL    HW167619   7.404  12.687   0.650
88574SOL    HW267620   7.501  12.774   0.727
88575SOL     OW67621  12.493   9.134  10.024
88575SOL    HW167622  12.468   9.214   9.977
88575SOL    HW267623  12.479   9.155  10.116
88576SOL     OW67624   1.196   8.638  14.357
88576SOL    HW167625   1.132   8.578  14.397
88576SOL    HW267626   1.195   8.715  14.414
88577SOL     OW67627   2.610  12.574   4.111
88577SOL    HW167628   2.700  12.554   4.136
88577SOL    HW267629   2.614  12.589   4.016
88578SOL     OW67630   9.003   6.960   7.610
88578SOL    HW167631   8.979   6.951   7.518
88578SOL    HW267632   9.096   6.937   7.614
88579SOL     OW67633   3.080   4.896  12.687
88579SOL    HW167634   3.071   4.991  12.687
88579SOL    HW267635   3.000   4.864  12.643
88580SOL     OW67636  13.210   5.020   2.710
88580SOL    HW167637  13.233   5.051   2.622
88580SOL    HW267638  13.267   5.070   2.768
88581SOL     OW67639   0.559   2.430   5.365
88581SOL    HW167640   0.535   2.498   5.302
88581SOL    HW267641   0.476   2.384   5.381
88582SOL     OW67642   3.219   4.423  13.400
88582SOL    HW167643   3.151   4.477  13.440
88582SOL    HW267644   3.261   4.481  13.336
88583SOL     OW67645  14.323   0.479   7.281
88583SOL    HW167646  14.251   0.527   7.241
88583SOL    HW267647  14.325   0.507   7.372
88584SOL     OW67648  13.920   6.780   4.706
88584SOL    HW167649  13.849   6.764   4.645
88584SOL    HW267650  13.993   6.726   4.673
88585SOL     OW67651  13.227  11.183  12.372
88585SOL    HW167652  13.220  11.175  12.277
88585SOL    HW267653  13.319  11.167  12.391
88586SOL     OW67654  14.270   0.684  12.747
88586SOL    HW167655  14.199   0.693  12.811
88586SOL    HW267656  14.225   0.673  12.663
88587SOL     OW67657  13.640   9.862   7.545
88587SOL    HW167658  13.722   9.829   7.581
88587SOL    HW267659  13.572   9.812   7.589
88588SOL     OW67660   0.388   9.352   8.601
88588SOL    HW167661   0.421   9.436   8.568
88588SOL    HW267662   0.372   9.368   8.694
88589SOL     OW67663   2.359  13.742   2.621
88589SOL    HW167664   2.403  13.681   2.562
88589SOL    HW267665   2.396  13.724   2.707
88590SOL     OW67666   4.215   2.220   7.046
88590SOL    HW167667   4.205   2.134   7.007
88590SOL    HW267668   4.209   2.204   7.141
88591SOL     OW67669   5.365  14.699   0.720
88591SOL    HW167670   5.285  14.750   0.727
88591SOL    HW267671   5.339  14.609   0.743
88592SOL     OW67672   4.005   6.171   0.879
88592SOL    HW167673   4.004   6.091   0.826
88592SOL    HW267674   3.924   6.168   0.929
88593SOL     OW67675   3.054   6.930   6.671
88593SOL    HW167676   3.080   6.858   6.728
88593SOL    HW267677   2.958   6.931   6.677
88594SOL     OW67678   7.946   2.502   8.302
88594SOL    HW167679   7.866   2.519   8.352
88594SOL    HW267680   8.013   2.553   8.347
88595SOL     OW67681   6.107  13.851   5.248
88595SOL    HW167682   6.083  13.926   5.194
88595SOL    HW267683   6.148  13.789   5.187
88596SOL     OW67684   0.434   9.684   1.086
88596SOL    HW167685   0.353   9.672   1.136
88596SOL    HW267686   0.404   9.703   0.997
88597SOL     OW67687  10.009  11.006  11.558
88597SOL    HW167688   9.968  10.933  11.512
88597SOL    HW267689  10.038  10.969  11.641
88598SOL     OW67690   3.039  14.754  14.802
88598SOL    HW167691   3.040  14.842  14.840
88598SOL    HW267692   2.951  14.743  14.767
88599SOL     OW67693  10.937   0.357  13.677
88599SOL    HW167694  10.978   0.297  13.739
88599SOL    HW267695  11.007   0.416  13.649
88600SOL     OW67696   5.982   8.766   1.986
88600SOL    HW167697   5.993   8.806   1.900
88600SOL    HW267698   6.069   8.730   2.007
88601SOL     OW67699  13.448  14.792  12.166
88601SOL    HW167700  13.428  14.705  12.199
88601SOL    HW267701  13.481  14.776  12.077
88602SOL     OW67702  13.574  11.822   9.302
88602SOL    HW167703  13.636  11.895   9.291
88602SOL    HW267704  13.490  11.858   9.275
88603SOL     OW67705  12.694   3.550  13.472
88603SOL    HW167706  12.737   3.507  13.546
88603SOL    HW267707  12.685   3.641  13.498
88604SOL     OW67708  12.551   1.990   5.576
88604SOL    HW167709  12.636   1.976   5.616
88604SOL    HW267710  12.490   1.992   5.650
88605SOL     OW67711  12.105  14.589  11.489
88605SOL    HW167712  12.026  14.605  11.540
88605SOL    HW267713  12.124  14.496  11.502
88606SOL     OW67714  12.422  13.184   0.775
88606SOL    HW167715  12.426  13.179   0.679
88606SOL    HW267716  12.340  13.230   0.793
88607SOL     OW67717  11.663  10.482   7.623
88607SOL    HW167718  11.605  10.495   7.697
88607SOL    HW267719  11.612  10.431   7.560
88608SOL     OW67720   5.330   0.311   1.081
88608SOL    HW167721   5.348   0.334   1.172
88608SOL    HW267722   5.275   0.383   1.049
88609SOL     OW67723   6.595  10.647   9.001
88609SOL    HW167724   6.559  10.562   9.024
88609SOL    HW267725   6.649  10.631   8.924
88610SOL     OW67726   7.607   9.212   0.723
88610SOL    HW167727   7.678   9.148   0.718
88610SOL    HW267728   7.642   9.290   0.679
88611SOL     OW67729   6.549   9.777  13.805
88611SOL    HW167730   6.608   9.843  13.771
88611SOL    HW267731   6.538   9.799  13.897
88612SOL     OW67732  10.596   3.009   7.842
88612SOL    HW167733  10.549   2.999   7.924
88612SOL    HW267734  10.544   3.073   7.792
88613SOL     OW67735   8.375   5.066   3.023
88613SOL    HW167736   8.368   5.059   2.928
88613SOL    HW267737   8.377   5.160   3.040
88614SOL     OW67738   7.249   9.286   7.848
88614SOL    HW167739   7.318   9.270   7.912
88614SOL    HW267740   7.291   9.271   7.763
88615SOL     OW67741  11.192   3.238   6.945
88615SOL    HW167742  11.157   3.155   6.977
88615SOL    HW267743  11.181   3.298   7.018
88616SOL     OW67744   2.725   3.926  10.501
88616SOL    HW167745   2.667   3.998  10.475
88616SOL    HW267746   2.713   3.860  10.433
88617SOL     OW67747   5.798   7.098   1.165
88617SOL    HW167748   5.864   7.050   1.116
88617SOL    HW267749   5.718   7.045   1.156
88618SOL     OW67750   3.825   8.441   4.650
88618SOL    HW167751   3.739   8.447   4.692
88618SOL    HW267752   3.855   8.532   4.644
88619SOL     OW67753  10.472  12.507  12.570
88619SOL    HW167754  10.389  12.553  12.567
88619SOL    HW267755  10.450  12.420  12.603
88620SOL     OW67756   3.600  10.610   1.733
88620SOL    HW167757   3.678  10.660   1.756
88620SOL    HW267758   3.625  10.560   1.655
88621SOL     OW67759   4.625   4.801   5.923
88621SOL    HW167760   4.641   4.806   5.829
88621SOL    HW267761   4.652   4.712   5.947
88622SOL     OW67762  10.194  13.604   1.236
88622SOL    HW167763  10.182  13.671   1.168
88622SOL    HW267764  10.160  13.523   1.196
88623SOL     OW67765   1.557   2.050   9.509
88623SOL    HW167766   1.581   1.966   9.547
88623SOL    HW267767   1.632   2.073   9.454
88624SOL     OW67768   8.351   6.668   1.075
88624SOL    HW167769   8.360   6.695   0.983
88624SOL    HW267770   8.377   6.745   1.125
88625SOL     OW67771  13.543  10.961  11.577
88625SOL    HW167772  13.626  10.915  11.567
88625SOL    HW267773  13.527  11.001  11.491
88626SOL     OW67774   8.574   0.530   9.896
88626SOL    HW167775   8.559   0.507   9.805
88626SOL    HW267776   8.659   0.575   9.896
88627SOL     OW67777  10.786  10.884   9.341
88627SOL    HW167778  10.845  10.953   9.370
88627SOL    HW267779  10.820  10.804   9.382
88628SOL     OW67780   1.450  13.995   0.318
88628SOL    HW167781   1.470  13.988   0.411
88628SOL    HW267782   1.406  14.080   0.310
88629SOL     OW67783  14.542   3.662   0.759
88629SOL    HW167784  14.462   3.708   0.733
88629SOL    HW267785  14.584   3.640   0.676
88630SOL     OW67786   3.536  14.490  10.123
88630SOL    HW167787   3.612  14.538  10.089
88630SOL    HW267788   3.513  14.536  10.204
88631SOL     OW67789  13.894   1.540   7.032
88631SOL    HW167790  13.845   1.596   6.972
88631SOL    HW267791  13.834   1.525   7.106
88632SOL     OW67792  10.580   5.874   8.667
88632SOL    HW167793  10.567   5.789   8.708
88632SOL    HW267794  10.494   5.916   8.669
88633SOL     OW67795   8.066   4.078   3.140
88633SOL    HW167796   8.052   4.089   3.234
88633SOL    HW267797   8.092   4.164   3.109
88634SOL     OW67798  10.477   7.876   9.258
88634SOL    HW167799  10.539   7.866   9.330
88634SOL    HW267800  10.451   7.969   9.261
88635SOL     OW67801   1.653   3.932   1.571
88635SOL    HW167802   1.678   4.013   1.617
88635SOL    HW267803   1.591   3.890   1.631
88636SOL     OW67804  11.050   8.370  13.610
88636SOL    HW167805  11.045   8.361  13.515
88636SOL    HW267806  11.041   8.281  13.643
88637SOL     OW67807   8.853  11.292  10.471
88637SOL    HW167808   8.775  11.346  10.462
88637SOL    HW267809   8.909  11.341  10.532
88638SOL     OW67810  12.116  14.308   2.246
88638SOL    HW167811  12.089  14.216   2.253
88638SOL    HW267812  12.211  14.306   2.253
88639SOL     OW67813   6.704   8.835  13.175
88639SOL    HW167814   6.712   8.755  13.226
88639SOL    HW267815   6.782   8.837  13.120
88640SOL     OW67816   4.423   2.132   1.328
88640SOL    HW167817   4.391   2.112   1.416
88640SOL    HW267818   4.479   2.209   1.340
88641SOL     OW67819   6.833  11.960  14.649
88641SOL    HW167820   6.863  11.970  14.739
88641SOL    HW267821   6.893  12.014  14.597
88642SOL     OW67822   4.123   3.949  11.860
88642SOL    HW167823   4.135   3.859  11.829
88642SOL    HW267824   4.185   3.957  11.933
88643SOL     OW67825  13.373   2.944   7.651
88643SOL    HW167826  13.335   2.917   7.567
88643SOL    HW267827  13.435   2.874   7.672
88644SOL     OW67828  12.368   9.428   5.077
88644SOL    HW167829  12.346   9.511   5.035
88644SOL    HW267830  12.284   9.383   5.085
88645SOL     OW67831   3.010   9.768   3.830
88645SOL    HW167832   2.950   9.819   3.885
88645SOL    HW267833   3.068   9.833   3.790
88646SOL     OW67834   0.066   3.281  10.196
88646SOL    HW167835  14.853   3.283  10.147
88646SOL    HW267836   0.084   3.187  10.207
88647SOL     OW67837  13.567   1.269  13.995
88647SOL    HW167838  13.561   1.207  14.067
88647SOL    HW267839  13.605   1.218  13.922
88648SOL     OW67840  12.243   1.127   4.184
88648SOL    HW167841  12.292   1.121   4.102
88648SOL    HW267842  12.286   1.197   4.233
88649SOL     OW67843   7.776  10.977   1.097
88649SOL    HW167844   7.723  10.908   1.137
88649SOL    HW267845   7.742  10.986   1.008
88650SOL     OW67846  12.487   2.094   7.478
88650SOL    HW167847  12.419   2.041   7.437
88650SOL    HW267848  12.441   2.171   7.512
88651SOL     OW67849  14.350   5.743   6.939
88651SOL    HW167850  14.408   5.805   6.895
88651SOL    HW267851  14.380   5.657   6.908
88652SOL     OW67852   2.508   3.711   6.755
88652SOL    HW167853   2.444   3.748   6.695
88652SOL    HW267854   2.513   3.775   6.827
88653SOL     OW67855   6.798  14.738  12.282
88653SOL    HW167856   6.770  14.819  12.239
88653SOL    HW267857   6.878  14.713  12.236
88654SOL     OW67858   4.056   1.570  12.214
88654SOL    HW167859   4.069   1.631  12.287
88654SOL    HW267860   3.986   1.512  12.244
88655SOL     OW67861   0.658   6.559   1.579
88655SOL    HW167862   0.611   6.496   1.632
88655SOL    HW267863   0.624   6.547   1.490
88656SOL     OW67864  10.243   9.592  10.102
88656SOL    HW167865  10.297   9.555  10.031
88656SOL    HW267866  10.214   9.516  10.152
88657SOL     OW67867   1.996  13.655   4.871
88657SOL    HW167868   1.915  13.643   4.921
88657SOL    HW267869   1.967  13.669   4.781
88658SOL     OW67870   8.042   4.202  12.342
88658SOL    HW167871   8.115   4.219  12.283
88658SOL    HW267872   7.981   4.275  12.326
88659SOL     OW67873   6.579   7.932   7.544
88659SOL    HW167874   6.657   7.942   7.490
88659SOL    HW267875   6.585   8.002   7.609
88660SOL     OW67876   7.766   0.797  12.853
88660SOL    HW167877   7.850   0.750  12.853
88660SOL    HW267878   7.711   0.748  12.914
88661SOL     OW67879  14.642   3.929   8.968
88661SOL    HW167880  14.652   4.024   8.972
88661SOL    HW267881  14.731   3.895   8.966
88662SOL     OW67882   8.920   8.383   7.805
88662SOL    HW167883   8.857   8.436   7.757
88662SOL    HW267884   8.971   8.338   7.737
88663SOL     OW67885  13.639  10.631   8.437
88663SOL    HW167886  13.600  10.560   8.489
88663SOL    HW267887  13.669  10.587   8.357
88664SOL     OW67888  13.174   2.281  10.891
88664SOL    HW167889  13.201   2.373  10.885
88664SOL    HW267890  13.227   2.246  10.963
88665SOL     OW67891   0.541   9.120   8.609
88665SOL    HW167892   0.473   9.186   8.626
88665SOL    HW267893   0.606   9.166   8.556
88666SOL     OW67894   6.868   6.311   8.040
88666SOL    HW167895   6.927   6.367   7.991
88666SOL    HW267896   6.843   6.364   8.117
88667SOL     OW67897  12.220  10.256   1.351
88667SOL    HW167898  12.217  10.164   1.377
88667SOL    HW267899  12.275  10.299   1.417
88668SOL     OW67900  10.662  14.857  13.223
88668SOL    HW167901  10.747   0.004  13.181
88668SOL    HW267902  10.683  14.803  13.299
88669SOL     OW67903  12.347   3.033   7.688
88669SOL    HW167904  12.322   2.971   7.619
88669SOL    HW267905  12.372   2.977   7.762
88670SOL     OW67906   5.864   5.214   7.634
88670SOL    HW167907   5.820   5.298   7.621
88670SOL    HW267908   5.915   5.225   7.714
88671SOL     OW67909  13.117   7.211   9.488
88671SOL    HW167910  13.068   7.292   9.473
88671SOL    HW267911  13.209   7.237   9.482
88672SOL     OW67912  13.261   8.927   7.241
88672SOL    HW167913  13.224   9.008   7.207
88672SOL    HW267914  13.265   8.869   7.165
88673SOL     OW67915  14.483   1.331  14.181
88673SOL    HW167916  14.393   1.316  14.151
88673SOL    HW267917  14.526   1.246  14.169
88674SOL     OW67918   1.838   2.176   1.707
88674SOL    HW167919   1.912   2.192   1.649
88674SOL    HW267920   1.765   2.157   1.649
88675SOL     OW67921  12.469   0.226   9.387
88675SOL    HW167922  12.464   0.219   9.483
88675SOL    HW267923  12.461   0.136   9.356
88676SOL     OW67924  13.338  10.511   5.807
88676SOL    HW167925  13.326  10.542   5.718
88676SOL    HW267926  13.260  10.541   5.854
88677SOL     OW67927   4.062   1.284   5.715
88677SOL    HW167928   4.105   1.203   5.744
88677SOL    HW267929   4.109   1.354   5.760
88678SOL     OW67930   6.664  14.362   8.484
88678SOL    HW167931   6.644  14.434   8.423
88678SOL    HW267932   6.581  14.346   8.530
88679SOL     OW67933   0.025   5.295   5.081
88679SOL    HW167934  14.842   5.374   5.095
88679SOL    HW267935   0.005   5.269   4.991
88680SOL     OW67936  11.602   6.051  12.218
88680SOL    HW167937  11.675   6.018  12.270
88680SOL    HW267938  11.601   6.145  12.234
88681SOL     OW67939   9.384   8.235   2.728
88681SOL    HW167940   9.354   8.146   2.709
88681SOL    HW267941   9.378   8.280   2.644
88682SOL     OW67942  14.102  13.252  12.540
88682SOL    HW167943  14.069  13.266  12.628
88682SOL    HW267944  14.166  13.182  12.549
88683SOL     OW67945   4.358   6.487   4.641
88683SOL    HW167946   4.360   6.403   4.687
88683SOL    HW267947   4.285   6.534   4.682
88684SOL     OW67948   4.959   0.679   4.044
88684SOL    HW167949   4.899   0.608   4.024
88684SOL    HW267950   5.029   0.671   3.980
88685SOL     OW67951   6.234   5.082  11.987
88685SOL    HW167952   6.180   5.130  12.049
88685SOL    HW267953   6.240   5.139  11.911
88686SOL     OW67954  14.274   3.044   8.421
88686SOL    HW167955  14.196   3.062   8.472
88686SOL    HW267956  14.342   3.025   8.486
88687SOL     OW67957  10.407   7.225   6.700
88687SOL    HW167958  10.382   7.162   6.632
88687SOL    HW267959  10.502   7.230   6.693
88688SOL     OW67960   4.838  11.644   8.744
88688SOL    HW167961   4.756  11.632   8.792
88688SOL    HW267962   4.825  11.595   8.662
88689SOL     OW67963   5.655  13.044   1.031
88689SOL    HW167964   5.675  12.956   1.000
88689SOL    HW267965   5.633  13.093   0.951
88690SOL     OW67966   3.098   3.394   9.031
88690SOL    HW167967   3.080   3.300   9.029
88690SOL    HW267968   3.095   3.417   9.124
88691SOL     OW67969   8.026   0.172  13.038
88691SOL    HW167970   7.968   0.176  13.115
88691SOL    HW267971   7.982   0.111  12.978
88692SOL     OW67972   6.814   4.446   8.067
88692SOL    HW167973   6.742   4.505   8.089
88692SOL    HW267974   6.893   4.495   8.087
88693SOL     OW67975   7.326   5.905  11.122
88693SOL    HW167976   7.255   5.889  11.060
88693SOL    HW267977   7.393   5.840  11.100
88694SOL     OW67978   9.038   3.921  12.585
88694SOL    HW167979   8.952   3.903  12.547
88694SOL    HW267980   9.058   3.844  12.638
88695SOL     OW67981   1.324   4.234   9.748
88695SOL    HW167982   1.274   4.243   9.829
88695SOL    HW267983   1.296   4.150   9.712
88696SOL     OW67984   4.381  13.608   2.178
88696SOL    HW167985   4.435  13.563   2.242
88696SOL    HW267986   4.296  13.620   2.222
88697SOL     OW67987   3.466  10.598   4.649
88697SOL    HW167988   3.520  10.543   4.592
88697SOL    HW267989   3.376  10.578   4.623
88698SOL     OW67990   2.354  14.025   8.293
88698SOL    HW167991   2.423  14.049   8.231
88698SOL    HW267992   2.273  14.050   8.250
88699SOL     OW67993   7.767  11.525  12.355
88699SOL    HW167994   7.759  11.596  12.418
88699SOL    HW267995   7.836  11.469  12.391
88700SOL     OW67996   4.520   3.041   9.445
88700SOL    HW167997   4.489   2.980   9.512
88700SOL    HW267998   4.442   3.062   9.394
88701SOL     OW67999  10.219   8.267  13.539
88701SOL    HW168000  10.212   8.171  13.546
88701SOL    HW268001  10.179   8.287  13.454
88702SOL     OW68002   6.750   0.664  11.162
88702SOL    HW168003   6.789   0.751  11.173
88702SOL    HW268004   6.703   0.670  11.079
88703SOL     OW68005   6.243  13.929   6.982
88703SOL    HW168006   6.188  13.850   6.984
88703SOL    HW268007   6.187  13.996   6.945
88704SOL     OW68008  13.617   8.080   8.211
88704SOL    HW168009  13.614   7.987   8.233
88704SOL    HW268010  13.578   8.085   8.124
88705SOL     OW68011   7.262   6.339   8.250
88705SOL    HW168012   7.317   6.299   8.182
88705SOL    HW268013   7.249   6.429   8.220
88706SOL     OW68014   2.621  12.453  12.189
88706SOL    HW168015   2.703  12.413  12.218
88706SOL    HW268016   2.642  12.546  12.182
88707SOL     OW68017   1.896  14.210   2.114
88707SOL    HW168018   1.991  14.216   2.126
88707SOL    HW268019   1.872  14.125   2.151
88708SOL     OW68020   5.379   7.593  10.820
88708SOL    HW168021   5.333   7.639  10.890
88708SOL    HW268022   5.380   7.654  10.747
88709SOL     OW68023  12.992   5.760  12.589
88709SOL    HW168024  13.087   5.754  12.581
88709SOL    HW268025  12.961   5.764  12.499
88710SOL     OW68026   1.304   9.101  11.844
88710SOL    HW168027   1.212   9.117  11.824
88710SOL    HW268028   1.306   9.088  11.939
88711SOL     OW68029   8.465   1.933   9.626
88711SOL    HW168030   8.474   1.889   9.710
88711SOL    HW268031   8.398   1.883   9.580
88712SOL     OW68032  11.681   9.789  12.309
88712SOL    HW168033  11.708   9.698  12.322
88712SOL    HW268034  11.642   9.790  12.221
88713SOL     OW68035  12.317   2.272   2.075
88713SOL    HW168036  12.309   2.218   2.153
88713SOL    HW268037  12.287   2.216   2.004
88714SOL     OW68038   2.968   6.168  11.753
88714SOL    HW168039   2.976   6.252  11.800
88714SOL    HW268040   3.051   6.123  11.770
88715SOL     OW68041   2.163   4.286   3.125
88715SOL    HW168042   2.128   4.334   3.051
88715SOL    HW268043   2.106   4.209   3.133
88716SOL     OW68044   1.633   1.866   1.409
88716SOL    HW168045   1.696   1.812   1.362
88716SOL    HW268046   1.566   1.889   1.344
88717SOL     OW68047   4.268   1.118   7.514
88717SOL    HW168048   4.254   1.071   7.432
88717SOL    HW268049   4.230   1.063   7.582
88718SOL     OW68050   3.021   8.594  13.267
88718SOL    HW168051   3.010   8.577  13.174
88718SOL    HW268052   3.110   8.628  13.275
88719SOL     OW68053   7.226  14.198  13.529
88719SOL    HW168054   7.175  14.120  13.552
88719SOL    HW268055   7.160  14.264  13.508
88720SOL     OW68056   0.602   9.430   1.834
88720SOL    HW168057   0.603   9.425   1.930
88720SOL    HW268058   0.655   9.357   1.805
88721SOL     OW68059   1.928   1.502   7.620
88721SOL    HW168060   1.911   1.591   7.589
88721SOL    HW268061   1.881   1.496   7.704
88722SOL     OW68062  10.679  11.092  11.680
88722SOL    HW168063  10.711  11.121  11.595
88722SOL    HW268064  10.717  11.155  11.742
88723SOL     OW68065  14.594  12.929   7.366
88723SOL    HW168066  14.534  12.997   7.337
88723SOL    HW268067  14.576  12.855   7.309
88724SOL     OW68068  13.030   3.040   9.148
88724SOL    HW168069  13.038   3.132   9.126
88724SOL    HW268070  12.938   3.029   9.172
88725SOL     OW68071  11.151   2.931   5.934
88725SOL    HW168072  11.196   2.988   5.998
88725SOL    HW268073  11.105   2.867   5.988
88726SOL     OW68074   5.762   8.998   5.558
88726SOL    HW168075   5.731   9.064   5.620
88726SOL    HW268076   5.797   8.929   5.614
88727SOL     OW68077   8.969   8.106   2.245
88727SOL    HW168078   8.974   8.202   2.243
88727SOL    HW268079   9.029   8.080   2.314
88728SOL     OW68080   4.585  14.250   7.475
88728SOL    HW168081   4.538  14.168   7.459
88728SOL    HW268082   4.664  14.243   7.422
88729SOL     OW68083  13.512   4.640   5.848
88729SOL    HW168084  13.501   4.664   5.940
88729SOL    HW268085  13.601   4.606   5.843
88730SOL     OW68086   3.344   7.469  10.832
88730SOL    HW168087   3.418   7.461  10.892
88730SOL    HW268088   3.279   7.520  10.880
88731SOL     OW68089   7.591   7.778   1.254
88731SOL    HW168090   7.682   7.792   1.279
88731SOL    HW268091   7.544   7.773   1.338
88732SOL     OW68092   3.353  14.424  12.814
88732SOL    HW168093   3.347  14.343  12.865
88732SOL    HW268094   3.337  14.494  12.878
88733SOL     OW68095   0.752   8.047   2.171
88733SOL    HW168096   0.689   8.112   2.201
88733SOL    HW268097   0.771   7.995   2.249
88734SOL     OW68098   0.812   4.607   9.057
88734SOL    HW168099   0.893   4.606   9.007
88734SOL    HW268100   0.840   4.596   9.148
88735SOL     OW68101   0.061   0.958  11.330
88735SOL    HW168102   0.063   0.970  11.425
88735SOL    HW268103  14.839   0.936  11.310
88736SOL     OW68104   1.749  13.707   2.340
88736SOL    HW168105   1.703  13.716   2.257
88736SOL    HW268106   1.784  13.618   2.340
88737SOL     OW68107   4.083  14.791   9.767
88737SOL    HW168108   4.014  14.730   9.741
88737SOL    HW268109   4.150  14.736   9.807
88738SOL     OW68110  14.211  14.385  11.634
88738SOL    HW168111  14.256  14.332  11.568
88738SOL    HW268112  14.134  14.334  11.657
88739SOL     OW68113   9.158   1.490  12.214
88739SOL    HW168114   9.067   1.474  12.239
88739SOL    HW268115   9.201   1.405  12.224
88740SOL     OW68116   6.588   3.920   6.124
88740SOL    HW168117   6.607   3.902   6.216
88740SOL    HW268118   6.667   3.963   6.092
88741SOL     OW68119  12.744   5.353   4.027
88741SOL    HW168120  12.787   5.422   3.976
88741SOL    HW268121  12.652   5.379   4.031
88742SOL     OW68122   1.125  11.696   6.174
88742SOL    HW168123   1.126  11.600   6.173
88742SOL    HW268124   1.054  11.720   6.115
88743SOL     OW68125  11.044   7.894  12.230
88743SOL    HW168126  11.083   7.934  12.307
88743SOL    HW268127  11.116   7.845  12.190
88744SOL     OW68128   5.823  12.643  10.602
88744SOL    HW168129   5.796  12.733  10.587
88744SOL    HW268130   5.879  12.622  10.527
88745SOL     OW68131  10.433   7.869   9.769
88745SOL    HW168132  10.380   7.878   9.690
88745SOL    HW268133  10.425   7.776   9.793
88746SOL     OW68134  14.623   5.383   8.399
88746SOL    HW168135  14.565   5.325   8.449
88746SOL    HW268136  14.685   5.324   8.356
88747SOL     OW68137   0.811  12.206  10.117
88747SOL    HW168138   0.759  12.266  10.171
88747SOL    HW268139   0.781  12.119  10.141
88748SOL     OW68140   9.969   2.280   6.220
88748SOL    HW168141   9.874   2.273   6.205
88748SOL    HW268142   9.982   2.372   6.244
88749SOL     OW68143   7.353  14.090  12.540
88749SOL    HW168144   7.431  14.098  12.485
88749SOL    HW268145   7.388  14.084  12.629
88750SOL     OW68146  13.278   4.848  12.457
88750SOL    HW168147  13.275   4.840  12.552
88750SOL    HW268148  13.264   4.759  12.424
88751SOL     OW68149  13.154   3.827  14.550
88751SOL    HW168150  13.238   3.835  14.595
88751SOL    HW268151  13.094   3.882  14.600
88752SOL     OW68152  14.221   7.412   7.144
88752SOL    HW168153  14.298   7.393   7.090
88752SOL    HW268154  14.225   7.506   7.160
88753SOL     OW68155   8.043   7.376  13.291
88753SOL    HW168156   8.068   7.317  13.362
88753SOL    HW268157   7.994   7.446  13.334
88754SOL     OW68158  11.356   8.871   0.651
88754SOL    HW168159  11.366   8.909   0.739
88754SOL    HW268160  11.386   8.940   0.592
88755SOL     OW68161  14.032   9.569   9.800
88755SOL    HW168162  14.090   9.583   9.725
88755SOL    HW268163  13.994   9.483   9.785
88756SOL     OW68164   1.500  12.650   8.481
88756SOL    HW168165   1.476  12.728   8.530
88756SOL    HW268166   1.588  12.669   8.447
88757SOL     OW68167   3.023   7.277   8.196
88757SOL    HW168168   3.083   7.205   8.178
88757SOL    HW268169   2.936   7.240   8.182
88758SOL     OW68170  14.025  13.970   0.072
88758SOL    HW168171  14.107  14.016   0.091
88758SOL    HW268172  14.043  13.878   0.093
88759SOL     OW68173   9.734   9.600   7.839
88759SOL    HW168174   9.685   9.526   7.876
88759SOL    HW268175   9.797   9.623   7.906
88760SOL     OW68176   5.319   3.576  13.117
88760SOL    HW168177   5.248   3.640  13.123
88760SOL    HW268178   5.360   3.595  13.032
88761SOL     OW68179   1.803   8.800   1.638
88761SOL    HW168180   1.775   8.757   1.558
88761SOL    HW268181   1.725   8.801   1.693
88762SOL     OW68182  12.113   5.906   0.583
88762SOL    HW168183  12.087   5.898   0.491
88762SOL    HW268184  12.041   5.865   0.632
88763SOL     OW68185  10.558   9.481   2.238
88763SOL    HW168186  10.626   9.548   2.245
88763SOL    HW268187  10.515   9.481   2.324
88764SOL     OW68188  13.109   5.563   5.633
88764SOL    HW168189  13.029   5.543   5.583
88764SOL    HW268190  13.079   5.577   5.722
88765SOL     OW68191   3.905   0.702   6.019
88765SOL    HW168192   3.842   0.634   6.044
88765SOL    HW268193   3.852   0.774   5.988
88766SOL     OW68194   6.736  11.905  11.794
88766SOL    HW168195   6.645  11.874  11.801
88766SOL    HW268196   6.787  11.826  11.778
88767SOL     OW68197   9.334   7.705   1.261
88767SOL    HW168198   9.409   7.731   1.315
88767SOL    HW268199   9.289   7.638   1.313
88768SOL     OW68200   0.179   4.184   6.433
88768SOL    HW168201   0.206   4.165   6.522
88768SOL    HW268202   0.170   4.098   6.392
88769SOL     OW68203  11.329   1.565  14.690
88769SOL    HW168204  11.280   1.593  14.768
88769SOL    HW268205  11.396   1.506  14.723
88770SOL     OW68206   0.258  14.670   2.836
88770SOL    HW168207   0.268  14.667   2.931
88770SOL    HW268208   0.164  14.661   2.821
88771SOL     OW68209  13.227   8.537   2.420
88771SOL    HW168210  13.293   8.508   2.484
88771SOL    HW268211  13.143   8.521   2.463
88772SOL     OW68212  11.482  10.316   5.876
88772SOL    HW168213  11.486  10.225   5.845
88772SOL    HW268214  11.426  10.312   5.954
88773SOL     OW68215  12.514   1.596   1.333
88773SOL    HW168216  12.481   1.552   1.255
88773SOL    HW268217  12.531   1.686   1.305
88774SOL     OW68218   6.795   8.775  11.987
88774SOL    HW168219   6.733   8.764  11.914
88774SOL    HW268220   6.861   8.707  11.973
88775SOL     OW68221   9.276  13.028   3.623
88775SOL    HW168222   9.279  12.941   3.663
88775SOL    HW268223   9.221  13.017   3.545
88776SOL     OW68224  13.940   8.700   8.431
88776SOL    HW168225  13.930   8.662   8.343
88776SOL    HW268226  14.022   8.749   8.427
88777SOL     OW68227  14.479   7.056   1.870
88777SOL    HW168228  14.495   7.144   1.839
88777SOL    HW268229  14.406   7.024   1.817
88778SOL     OW68230   2.758  13.664  14.703
88778SOL    HW168231   2.774  13.670  14.609
88778SOL    HW268232   2.738  13.571  14.718
88779SOL     OW68233  14.525   2.729   2.970
88779SOL    HW168234  14.539   2.662   2.903
88779SOL    HW268235  14.548   2.812   2.927
88780SOL     OW68236   9.925  10.665   1.328
88780SOL    HW168237   9.928  10.573   1.352
88780SOL    HW268238   9.834  10.681   1.303
88781SOL     OW68239   5.565  12.606  12.244
88781SOL    HW168240   5.544  12.619  12.151
88781SOL    HW268241   5.646  12.655  12.258
88782SOL     OW68242  10.228   2.208   5.668
88782SOL    HW168243  10.149   2.224   5.720
88782SOL    HW268244  10.208   2.245   5.582
88783SOL     OW68245   3.170   6.438   8.817
88783SOL    HW168246   3.152   6.369   8.754
88783SOL    HW268247   3.134   6.518   8.778
88784SOL     OW68248   0.127   5.634   3.318
88784SOL    HW168249   0.080   5.555   3.291
88784SOL    HW268250   0.145   5.681   3.236
88785SOL     OW68251   9.811   5.325  12.051
88785SOL    HW168252   9.856   5.382  11.989
88785SOL    HW268253   9.781   5.384  12.120
88786SOL     OW68254   1.669  14.471  12.966
88786SOL    HW168255   1.686  14.388  13.010
88786SOL    HW268256   1.675  14.451  12.873
88787SOL     OW68257  10.835  14.514  12.113
88787SOL    HW168258  10.816  14.483  12.201
88787SOL    HW268259  10.776  14.464  12.056
88788SOL     OW68260   6.108   3.426   0.221
88788SOL    HW168261   6.017   3.402   0.202
88788SOL    HW268262   6.124   3.389   0.308
88789SOL     OW68263   4.568   0.500   0.119
88789SOL    HW168264   4.621   0.507   0.198
88789SOL    HW268265   4.510   0.576   0.122
88790SOL     OW68266  12.179   3.557   9.060
88790SOL    HW168267  12.193   3.629   8.999
88790SOL    HW268268  12.233   3.486   9.026
88791SOL     OW68269   0.797  13.431  13.529
88791SOL    HW168270   0.723  13.492  13.528
88791SOL    HW268271   0.813  13.412  13.437
88792SOL     OW68272  14.267   1.263  13.454
88792SOL    HW168273  14.293   1.175  13.482
88792SOL    HW268274  14.203   1.248  13.383
88793SOL     OW68275   8.761   0.045  12.646
88793SOL    HW168276   8.823  14.843  12.643
88793SOL    HW268277   8.814   0.122  12.667
88794SOL     OW68278   4.354   4.278   3.246
88794SOL    HW168279   4.315   4.225   3.177
88794SOL    HW268280   4.393   4.214   3.306
88795SOL     OW68281  10.866   1.869  13.445
88795SOL    HW168282  10.800   1.927  13.482
88795SOL    HW268283  10.914   1.923  13.382
88796SOL     OW68284  12.095   5.188   4.138
88796SOL    HW168285  12.003   5.191   4.163
88796SOL    HW268286  12.136   5.259   4.188
88797SOL     OW68287   5.338  13.626   1.468
88797SOL    HW168288   5.306  13.568   1.399
88797SOL    HW268289   5.430  13.642   1.445
88798SOL     OW68290   6.365   3.327  11.417
88798SOL    HW168291   6.411   3.410  11.425
88798SOL    HW268292   6.358   3.294  11.507
88799SOL     OW68293  13.379   5.845   0.177
88799SOL    HW168294  13.315   5.790   0.132
88799SOL    HW268295  13.353   5.841   0.269
88800SOL     OW68296   6.799   7.541  10.996
88800SOL    HW168297   6.840   7.619  10.959
88800SOL    HW268298   6.735   7.575  11.058
88801SOL     OW68299   3.182   8.338   7.404
88801SOL    HW168300   3.232   8.408   7.447
88801SOL    HW268301   3.204   8.347   7.311
88802SOL     OW68302   0.092  11.470  12.306
88802SOL    HW168303   0.125  11.527  12.375
88802SOL    HW268304   0.019  11.423  12.347
88803SOL     OW68305   8.829   7.085  11.083
88803SOL    HW168306   8.842   7.180  11.087
88803SOL    HW268307   8.900   7.054  11.027
88804SOL     OW68308   6.811   6.740  13.642
88804SOL    HW168309   6.824   6.789  13.723
88804SOL    HW268310   6.717   6.725  13.638
88805SOL     OW68311   4.273   7.711  14.463
88805SOL    HW168312   4.361   7.741  14.440
88805SOL    HW268313   4.287   7.656  14.540
88806SOL     OW68314  14.855  13.948  14.110
88806SOL    HW168315  14.843  14.041  14.093
88806SOL    HW268316   0.036  13.916  14.035
88807SOL     OW68317   3.443   6.197  14.541
88807SOL    HW168318   3.405   6.259  14.479
88807SOL    HW268319   3.533   6.228  14.555
88808SOL     OW68320   4.054   0.392   3.397
88808SOL    HW168321   4.005   0.440   3.330
88808SOL    HW268322   4.089   0.316   3.351
88809SOL     OW68323   5.597   8.791   8.432
88809SOL    HW168324   5.584   8.824   8.344
88809SOL    HW268325   5.563   8.860   8.489
88810SOL     OW68326   6.328   4.002   0.902
88810SOL    HW168327   6.328   3.982   0.996
88810SOL    HW268328   6.400   3.949   0.867
88811SOL     OW68329   5.101   7.588   0.737
88811SOL    HW168330   5.062   7.507   0.770
88811SOL    HW268331   5.027   7.646   0.722
88812SOL     OW68332   7.101   4.383   9.554
88812SOL    HW168333   7.123   4.362   9.645
88812SOL    HW268334   7.142   4.468   9.539
88813SOL     OW68335   4.807  11.125   4.688
88813SOL    HW168336   4.763  11.151   4.607
88813SOL    HW268337   4.801  11.202   4.744
88814SOL     OW68338   3.642  13.775   5.105
88814SOL    HW168339   3.699  13.731   5.168
88814SOL    HW268340   3.699  13.835   5.058
88815SOL     OW68341   5.007   9.087   1.720
88815SOL    HW168342   5.025   9.026   1.791
88815SOL    HW268343   5.038   9.042   1.641
88816SOL     OW68344  12.978  13.745   1.917
88816SOL    HW168345  12.927  13.823   1.897
88816SOL    HW268346  12.937  13.674   1.867
88817SOL     OW68347   6.267   4.978   2.313
88817SOL    HW168348   6.211   5.048   2.347
88817SOL    HW268349   6.337   4.970   2.377
88818SOL     OW68350  11.422   5.704  12.910
88818SOL    HW168351  11.517   5.711  12.895
88818SOL    HW268352  11.401   5.781  12.963
88819SOL     OW68353   8.815  14.674   6.740
88819SOL    HW168354   8.762  14.746   6.774
88819SOL    HW268355   8.816  14.689   6.645
88820SOL     OW68356  10.061   8.897   3.773
88820SOL    HW168357  10.048   8.803   3.778
88820SOL    HW268358  10.153   8.910   3.796
88821SOL     OW68359   6.659   8.814   1.145
88821SOL    HW168360   6.567   8.796   1.164
88821SOL    HW268361   6.685   8.879   1.210
88822SOL     OW68362   4.874   6.107   0.799
88822SOL    HW168363   4.796   6.113   0.855
88822SOL    HW268364   4.877   6.015   0.773
88823SOL     OW68365  14.025  12.641   9.629
88823SOL    HW168366  14.061  12.717   9.675
88823SOL    HW268367  14.004  12.579   9.698
88824SOL     OW68368   6.582   2.071  13.022
88824SOL    HW168369   6.657   2.012  13.015
88824SOL    HW268370   6.536   2.063  12.939
88825SOL     OW68371  10.769   4.009  10.712
88825SOL    HW168372  10.772   3.917  10.741
88825SOL    HW268373  10.807   4.008  10.624
88826SOL     OW68374   0.151   0.476   2.701
88826SOL    HW168375   0.085   0.492   2.768
88826SOL    HW268376   0.219   0.541   2.717
88827SOL     OW68377  10.136   8.986   8.492
88827SOL    HW168378  10.208   9.037   8.529
88827SOL    HW268379  10.149   8.898   8.526
88828SOL     OW68380   6.646   3.819  11.095
88828SOL    HW168381   6.682   3.895  11.141
88828SOL    HW268382   6.650   3.748  11.159
88829SOL     OW68383   4.912   2.987   1.360
88829SOL    HW168384   4.895   2.979   1.266
88829SOL    HW268385   4.974   3.060   1.367
88830SOL     OW68386   2.349   9.013  14.645
88830SOL    HW168387   2.426   8.958  14.653
88830SOL    HW268388   2.384   9.102  14.633
88831SOL     OW68389  10.052   6.853   4.160
88831SOL    HW168390  10.088   6.861   4.249
88831SOL    HW268391  10.124   6.880   4.103
88832SOL     OW68392   4.093   9.821   9.520
88832SOL    HW168393   4.152   9.756   9.559
88832SOL    HW268394   4.038   9.850   9.592
88833SOL     OW68395   7.565   4.048  12.144
88833SOL    HW168396   7.554   4.021  12.053
88833SOL    HW268397   7.530   4.137  12.147
88834SOL     OW68398   7.079  10.549   2.533
88834SOL    HW168399   7.115  10.614   2.593
88834SOL    HW268400   7.038  10.484   2.589
88835SOL     OW68401   7.268   0.706  11.036
88835SOL    HW168402   7.353   0.664  11.024
88835SOL    HW268403   7.233   0.668  11.117
88836SOL     OW68404   7.423   7.729  13.217
88836SOL    HW168405   7.398   7.692  13.302
88836SOL    HW268406   7.502   7.781  13.236
88837SOL     OW68407  10.237   5.939   6.455
88837SOL    HW168408  10.258   5.874   6.521
88837SOL    HW268409  10.168   5.898   6.402
88838SOL     OW68410   5.068   8.344   3.191
88838SOL    HW168411   5.111   8.329   3.106
88838SOL    HW268412   5.132   8.314   3.255
88839SOL     OW68413   4.238  11.545   0.961
88839SOL    HW168414   4.162  11.597   0.935
88839SOL    HW268415   4.225  11.530   1.055
88840SOL     OW68416   8.302   4.243  11.552
88840SOL    HW168417   8.282   4.244  11.458
88840SOL    HW268418   8.397   4.234  11.556
88841SOL     OW68419  12.340  13.216  12.311
88841SOL    HW168420  12.379  13.165  12.382
88841SOL    HW268421  12.319  13.300  12.351
88842SOL     OW68422  12.744  13.272   8.555
88842SOL    HW168423  12.659  13.294   8.593
88842SOL    HW268424  12.727  13.266   8.461
88843SOL     OW68425   1.326   6.569   3.298
88843SOL    HW168426   1.332   6.589   3.391
88843SOL    HW268427   1.278   6.643   3.260
88844SOL     OW68428   3.289   9.870   8.073
88844SOL    HW168429   3.196   9.866   8.053
88844SOL    HW268430   3.295   9.916   8.156
88845SOL     OW68431   6.383   1.947  12.756
88845SOL    HW168432   6.471   1.920  12.731
88845SOL    HW268433   6.333   1.866  12.758
88846SOL     OW68434   6.968   3.515  13.341
88846SOL    HW168435   7.029   3.585  13.320
88846SOL    HW268436   6.882   3.552  13.320
88847SOL     OW68437   7.117   9.179   1.227
88847SOL    HW168438   7.146   9.100   1.182
88847SOL    HW268439   7.192   9.238   1.224
88848SOL     OW68440   7.335  11.238  13.592
88848SOL    HW168441   7.250  11.248  13.634
88848SOL    HW268442   7.316  11.214  13.502
88849SOL     OW68443   9.395  12.359   8.137
88849SOL    HW168444   9.339  12.314   8.200
88849SOL    HW268445   9.439  12.427   8.188
88850SOL     OW68446   6.289   4.255   4.275
88850SOL    HW168447   6.324   4.168   4.298
88850SOL    HW268448   6.225   4.238   4.206
88851SOL     OW68449  12.103   2.431   1.055
88851SOL    HW168450  12.076   2.518   1.084
88851SOL    HW268451  12.034   2.403   0.995
88852SOL     OW68452  11.958   6.665  12.114
88852SOL    HW168453  11.904   6.707  12.048
88852SOL    HW268454  12.034   6.632  12.066
88853SOL     OW68455   3.080  12.572   0.213
88853SOL    HW168456   2.993  12.604   0.190
88853SOL    HW268457   3.108  12.628   0.285
88854SOL     OW68458   0.758   1.601   2.491
88854SOL    HW168459   0.773   1.586   2.397
88854SOL    HW268460   0.683   1.660   2.494
88855SOL     OW68461   1.991  13.468   5.888
88855SOL    HW168462   2.000  13.451   5.982
88855SOL    HW268463   1.961  13.559   5.883
88856SOL     OW68464   4.849   7.880   0.433
88856SOL    HW168465   4.824   7.973   0.433
88856SOL    HW268466   4.901   7.870   0.353
88857SOL     OW68467   7.508   8.835  11.559
88857SOL    HW168468   7.474   8.888  11.631
88857SOL    HW268469   7.571   8.776  11.600
88858SOL     OW68470  11.442   2.903  14.542
88858SOL    HW168471  11.475   2.814  14.557
88858SOL    HW268472  11.424   2.905  14.448
88859SOL     OW68473   9.936   7.417  11.055
88859SOL    HW168474  10.001   7.484  11.076
88859SOL    HW268475   9.860   7.440  11.108
88860SOL     OW68476   2.291  11.206   5.804
88860SOL    HW168477   2.251  11.189   5.889
88860SOL    HW268478   2.235  11.159   5.741
88861SOL     OW68479   9.987   8.514   0.131
88861SOL    HW168480   9.901   8.544   0.100
88861SOL    HW268481   9.968   8.442   0.190
88862SOL     OW68482  11.140   3.712   2.351
88862SOL    HW168483  11.077   3.717   2.423
88862SOL    HW268484  11.226   3.714   2.394
88863SOL     OW68485   6.420  11.268  11.689
88863SOL    HW168486   6.351  11.329  11.662
88863SOL    HW268487   6.397  11.246  11.780
88864SOL     OW68488  12.923  12.564  12.711
88864SOL    HW168489  12.962  12.650  12.698
88864SOL    HW268490  12.961  12.532  12.793
88865SOL     OW68491  13.656  12.832  10.743
88865SOL    HW168492  13.620  12.861  10.826
88865SOL    HW268493  13.583  12.792  10.696
88866SOL     OW68494   5.940   7.859   0.598
88866SOL    HW168495   5.851   7.861   0.633
88866SOL    HW268496   5.969   7.769   0.612
88867SOL     OW68497  11.089   0.353   8.795
88867SOL    HW168498  11.172   0.359   8.748
88867SOL    HW268499  11.110   0.380   8.884
88868SOL     OW68500   1.799   7.887   2.719
88868SOL    HW168501   1.879   7.881   2.667
88868SOL    HW268502   1.729   7.862   2.658
88869SOL     OW68503   9.438   0.027  10.180
88869SOL    HW168504   9.425   0.009  10.273
88869SOL    HW268505   9.533   0.030  10.168
88870SOL     OW68506  11.339   0.277  13.571
88870SOL    HW168507  11.301   0.342  13.511
88870SOL    HW268508  11.427   0.261  13.536
88871SOL     OW68509   9.681  13.689   3.595
88871SOL    HW168510   9.762  13.721   3.556
88871SOL    HW268511   9.629  13.767   3.612
88872SOL     OW68512   6.418  12.464   0.276
88872SOL    HW168513   6.481  12.517   0.227
88872SOL    HW268514   6.457  12.456   0.364
88873SOL     OW68515   6.124  13.651   7.025
88873SOL    HW168516   6.050  13.605   6.984
88873SOL    HW268517   6.201  13.603   6.994
88874SOL     OW68518   8.251   6.788  12.628
88874SOL    HW168519   8.326   6.780  12.569
88874SOL    HW268520   8.239   6.883  12.638
88875SOL     OW68521  12.086  10.353   1.769
88875SOL    HW168522  12.063  10.351   1.862
88875SOL    HW268523  12.131  10.271   1.753
88876SOL     OW68524   2.685   6.766  10.618
88876SOL    HW168525   2.685   6.819  10.538
88876SOL    HW268526   2.696   6.829  10.689
88877SOL     OW68527   6.197   5.636   3.110
88877SOL    HW168528   6.118   5.650   3.163
88877SOL    HW268529   6.231   5.551   3.141
88878SOL     OW68530   2.248   4.753   2.470
88878SOL    HW168531   2.192   4.731   2.396
88878SOL    HW268532   2.308   4.819   2.436
88879SOL     OW68533   3.859  11.150   6.855
88879SOL    HW168534   3.940  11.146   6.805
88879SOL    HW268535   3.853  11.065   6.899
88880SOL     OW68536  13.684  13.126  13.565
88880SOL    HW168537  13.627  13.191  13.526
88880SOL    HW268538  13.667  13.131  13.659
88881SOL     OW68539   8.118  14.035   9.242
88881SOL    HW168540   8.159  14.045   9.156
88881SOL    HW268541   8.060  14.110   9.251
88882SOL     OW68542   1.710  13.074   9.448
88882SOL    HW168543   1.737  13.065   9.540
88882SOL    HW268544   1.617  13.095   9.453
88883SOL     OW68545   6.094   9.151   1.542
88883SOL    HW168546   6.098   9.132   1.636
88883SOL    HW268547   6.035   9.226   1.535
88884SOL     OW68548   3.959   4.399  12.508
88884SOL    HW168549   3.920   4.387  12.594
88884SOL    HW268550   3.889   4.375  12.447
88885SOL     OW68551   8.850   1.589  11.318
88885SOL    HW168552   8.921   1.648  11.342
88885SOL    HW268553   8.825   1.547  11.401
88886SOL     OW68554   7.585  14.741   3.747
88886SOL    HW168555   7.540  14.693   3.678
88886SOL    HW268556   7.532  14.819   3.762
88887SOL     OW68557   2.971   8.597  11.633
88887SOL    HW168558   2.968   8.690  11.613
88887SOL    HW268559   2.959   8.592  11.728
88888SOL     OW68560   5.417   6.152  13.853
88888SOL    HW168561   5.404   6.137  13.759
88888SOL    HW268562   5.336   6.194  13.881
88889SOL     OW68563   9.326  10.158  11.609
88889SOL    HW168564   9.287  10.111  11.683
88889SOL    HW268565   9.314  10.098  11.534
88890SOL     OW68566   8.476   2.235   3.008
88890SOL    HW168567   8.466   2.218   2.914
88890SOL    HW268568   8.389   2.266   3.036
88891SOL     OW68569  14.717   8.603   3.830
88891SOL    HW168570  14.766   8.657   3.891
88891SOL    HW268571  14.758   8.618   3.745
88892SOL     OW68572   4.081   7.652   2.553
88892SOL    HW168573   4.105   7.607   2.634
88892SOL    HW268574   4.018   7.594   2.510
88893SOL     OW68575  13.313  10.363  12.060
88893SOL    HW168576  13.219  10.365  12.079
88893SOL    HW268577  13.332  10.271  12.042
88894SOL     OW68578   2.747  13.788   4.043
88894SOL    HW168579   2.814  13.748   4.098
88894SOL    HW268580   2.729  13.723   3.975
88895SOL     OW68581  12.455   4.387  14.587
88895SOL    HW168582  12.541   4.347  14.586
88895SOL    HW268583  12.453   4.437  14.669
88896SOL     OW68584  11.026   1.799   9.326
88896SOL    HW168585  10.952   1.823   9.270
88896SOL    HW268586  11.065   1.723   9.282
88897SOL     OW68587  14.298   5.808   0.315
88897SOL    HW168588  14.360   5.736   0.322
88897SOL    HW268589  14.350   5.886   0.330
88898SOL     OW68590   0.685   4.477   7.534
88898SOL    HW168591   0.635   4.554   7.505
88898SOL    HW268592   0.619   4.419   7.572
88899SOL     OW68593  10.616   7.085   2.502
88899SOL    HW168594  10.536   7.064   2.550
88899SOL    HW268595  10.586   7.132   2.424
88900SOL     OW68596   9.145   6.945   7.225
88900SOL    HW168597   9.142   6.920   7.133
88900SOL    HW268598   9.222   6.899   7.260
88901SOL     OW68599  10.325  13.416   5.629
88901SOL    HW168600  10.339  13.497   5.678
88901SOL    HW268601  10.255  13.371   5.676
88902SOL     OW68602  14.643  12.778   8.773
88902SOL    HW168603  14.690  12.856   8.800
88902SOL    HW268604  14.612  12.739   8.855
88903SOL     OW68605   3.897   6.976   0.810
88903SOL    HW168606   3.881   6.895   0.762
88903SOL    HW268607   3.992   6.981   0.818
88904SOL     OW68608  14.434   3.208  12.910
88904SOL    HW168609  14.416   3.262  12.986
88904SOL    HW268610  14.511   3.157  12.934
88905SOL     OW68611   8.054  13.501   8.889
88905SOL    HW168612   8.015  13.588   8.879
88905SOL    HW268613   7.981  13.440   8.877
88906SOL     OW68614   2.109   0.512   3.606
88906SOL    HW168615   2.098   0.523   3.511
88906SOL    HW268616   2.144   0.596   3.635
88907SOL     OW68617   5.984  12.533   8.986
88907SOL    HW168618   6.063  12.577   9.019
88907SOL    HW268619   5.979  12.452   9.037
88908SOL     OW68620  12.619  11.695   8.276
88908SOL    HW168621  12.554  11.639   8.318
88908SOL    HW268622  12.684  11.711   8.345
88909SOL     OW68623  12.744  14.762  11.069
88909SOL    HW168624  12.692  14.829  11.025
88909SOL    HW268625  12.745  14.688  11.008
88910SOL     OW68626   1.615  13.534  11.362
88910SOL    HW168627   1.550  13.561  11.297
88910SOL    HW268628   1.581  13.568  11.445
88911SOL     OW68629  14.588   8.635  12.943
88911SOL    HW168630  14.522   8.630  12.874
88911SOL    HW268631  14.577   8.555  12.993
88912SOL     OW68632  11.736  13.917   3.008
88912SOL    HW168633  11.811  13.955   3.054
88912SOL    HW268634  11.755  13.823   3.006
88913SOL     OW68635  12.374   4.967   0.357
88913SOL    HW168636  12.307   4.911   0.317
88913SOL    HW268637  12.329   5.050   0.372
88914SOL     OW68638  11.177   0.142   3.971
88914SOL    HW168639  11.122   0.139   4.049
88914SOL    HW268640  11.230   0.221   3.982
88915SOL     OW68641   2.328   6.305  13.800
88915SOL    HW168642   2.342   6.364  13.874
88915SOL    HW268643   2.360   6.220  13.831
88916SOL     OW68644   2.475  11.885   4.076
88916SOL    HW168645   2.408  11.839   4.027
88916SOL    HW268646   2.484  11.836   4.157
88917SOL     OW68647   0.287  11.436  13.061
88917SOL    HW168648   0.260  11.364  13.004
88917SOL    HW268649   0.234  11.427  13.140
88918SOL     OW68650   4.401  11.609   4.230
88918SOL    HW168651   4.396  11.695   4.272
88918SOL    HW268652   4.493  11.602   4.202
88919SOL     OW68653  13.173   2.684  10.375
88919SOL    HW168654  13.148   2.592  10.366
88919SOL    HW268655  13.258   2.681  10.418
88920SOL     OW68656   2.932   9.320  12.144
88920SOL    HW168657   2.855   9.264  12.147
88920SOL    HW268658   2.964   9.323  12.234
88921SOL     OW68659   2.149   3.250   7.216
88921SOL    HW168660   2.117   3.194   7.287
88921SOL    HW268661   2.127   3.202   7.136
88922SOL     OW68662  11.259  11.616   5.166
88922SOL    HW168663  11.324  11.554   5.199
88922SOL    HW268664  11.199  11.562   5.114
88923SOL     OW68665   6.450  11.332   1.411
88923SOL    HW168666   6.422  11.248   1.375
88923SOL    HW268667   6.483  11.380   1.335
88924SOL     OW68668   7.670  11.172   7.554
88924SOL    HW168669   7.674  11.163   7.649
88924SOL    HW268670   7.757  11.204   7.529
88925SOL     OW68671   3.084   9.359   7.833
88925SOL    HW168672   3.111   9.280   7.786
88925SOL    HW268673   3.162   9.414   7.835
88926SOL     OW68674  14.780   0.423   7.497
88926SOL    HW168675  14.865   0.380   7.490
88926SOL    HW268676  14.792   0.508   7.455
88927SOL     OW68677   3.059   5.810  11.762
88927SOL    HW168678   3.079   5.890  11.713
88927SOL    HW268679   3.004   5.759  11.703
88928SOL     OW68680   4.950   8.145   8.025
88928SOL    HW168681   4.912   8.162   8.111
88928SOL    HW268682   4.986   8.229   7.997
88929SOL     OW68683  11.861   0.825   9.316
88929SOL    HW168684  11.923   0.890   9.282
88929SOL    HW268685  11.864   0.837   9.411
88930SOL     OW68686   2.881  11.251   7.007
88930SOL    HW168687   2.965  11.206   7.019
88930SOL    HW268688   2.889  11.296   6.924
88931SOL     OW68689  11.162  14.371   7.559
88931SOL    HW168690  11.220  14.432   7.514
88931SOL    HW268691  11.119  14.423   7.627
88932SOL     OW68692  10.080   6.264   5.318
88932SOL    HW168693  10.059   6.187   5.372
88932SOL    HW268694  10.105   6.228   5.233
88933SOL     OW68695   4.859   6.782   2.624
88933SOL    HW168696   4.906   6.854   2.582
88933SOL    HW268697   4.922   6.710   2.626
88934SOL     OW68698   6.992  13.633  13.237
88934SOL    HW168699   6.904  13.642  13.276
88934SOL    HW268700   7.051  13.644  13.311
88935SOL     OW68701   9.477   2.659  14.326
88935SOL    HW168702   9.436   2.573  14.336
88935SOL    HW268703   9.520   2.655  14.240
88936SOL     OW68704   6.734  10.192   3.805
88936SOL    HW168705   6.641  10.196   3.783
88936SOL    HW268706   6.738  10.133   3.880
88937SOL     OW68707   8.832  10.029   5.344
88937SOL    HW168708   8.800  10.118   5.358
88937SOL    HW268709   8.763   9.986   5.293
88938SOL     OW68710   3.744   0.083  11.976
88938SOL    HW168711   3.673   0.133  11.935
88938SOL    HW268712   3.701   0.033  12.045
88939SOL     OW68713   0.759   7.121  13.390
88939SOL    HW168714   0.708   7.139  13.310
88939SOL    HW268715   0.786   7.208  13.421
88940SOL     OW68716  11.968  10.511  11.273
88940SOL    HW168717  11.883  10.481  11.241
88940SOL    HW268718  11.967  10.605  11.256
88941SOL     OW68719   3.710   2.257  13.406
88941SOL    HW168720   3.783   2.263  13.344
88941SOL    HW268721   3.749   2.278  13.491
88942SOL     OW68722   0.952   3.927   8.913
88942SOL    HW168723   0.957   3.908   8.820
88942SOL    HW268724   1.019   3.994   8.928
88943SOL     OW68725   5.872  13.801   7.697
88943SOL    HW168726   5.906  13.805   7.786
88943SOL    HW268727   5.902  13.716   7.663
88944SOL     OW68728   4.548  11.834  13.820
88944SOL    HW168729   4.629  11.812  13.773
88944SOL    HW268730   4.559  11.927  13.841
88945SOL     OW68731   9.007   6.199   2.223
88945SOL    HW168732   9.024   6.139   2.151
88945SOL    HW268733   8.987   6.143   2.297
88946SOL     OW68734  10.979  13.491   2.852
88946SOL    HW168735  11.007  13.503   2.762
88946SOL    HW268736  10.933  13.572   2.874
88947SOL     OW68737  13.427  12.719   5.831
88947SOL    HW168738  13.439  12.627   5.854
88947SOL    HW268739  13.509  12.744   5.789
88948SOL     OW68740   3.140   0.826   3.878
88948SOL    HW168741   3.228   0.859   3.864
88948SOL    HW268742   3.083   0.899   3.853
88949SOL     OW68743   1.890  11.437   0.675
88949SOL    HW168744   1.896  11.526   0.708
88949SOL    HW268745   1.816  11.438   0.615
88950SOL     OW68746   9.772  10.139  14.108
88950SOL    HW168747   9.735  10.072  14.050
88950SOL    HW268748   9.866  10.122  14.108
88951SOL     OW68749   4.563  12.094   7.889
88951SOL    HW168750   4.544  12.105   7.796
88951SOL    HW268751   4.586  12.002   7.899
88952SOL     OW68752   8.475   8.561   0.644
88952SOL    HW168753   8.543   8.496   0.660
88952SOL    HW268754   8.405   8.539   0.705
88953SOL     OW68755   5.149   1.045  14.519
88953SOL    HW168756   5.207   1.065  14.592
88953SOL    HW268757   5.191   1.087  14.443
88954SOL     OW68758   7.479  14.258   2.927
88954SOL    HW168759   7.390  14.272   2.893
88954SOL    HW268760   7.473  14.284   3.019
88955SOL     OW68761   8.318   4.222  12.982
88955SOL    HW168762   8.318   4.243  13.076
88955SOL    HW268763   8.404   4.249  12.951
88956SOL     OW68764   8.351  13.058   4.490
88956SOL    HW168765   8.326  13.057   4.583
88956SOL    HW268766   8.361  12.966   4.467
88957SOL     OW68767   9.331   5.671   6.614
88957SOL    HW168768   9.263   5.618   6.572
88957SOL    HW268769   9.307   5.761   6.592
88958SOL     OW68770   7.484   4.185   8.000
88958SOL    HW168771   7.528   4.240   7.935
88958SOL    HW268772   7.405   4.234   8.024
88959SOL     OW68773   1.580  12.261  13.323
88959SOL    HW168774   1.580  12.343  13.374
88959SOL    HW268775   1.617  12.196  13.383
88960SOL     OW68776  14.646  10.676  13.728
88960SOL    HW168777  14.693  10.734  13.669
88960SOL    HW268778  14.710  10.651  13.795
88961SOL     OW68779  11.749  11.331  10.618
88961SOL    HW168780  11.654  11.342  10.613
88961SOL    HW268781  11.781  11.367  10.535
88962SOL     OW68782   5.772  11.444   2.871
88962SOL    HW168783   5.848  11.429   2.814
88962SOL    HW268784   5.756  11.360   2.913
88963SOL     OW68785   9.052   0.309   5.957
88963SOL    HW168786   9.073   0.282   5.867
88963SOL    HW268787   8.973   0.260   5.980
88964SOL     OW68788  11.938  10.477   1.569
88964SOL    HW168789  11.851  10.458   1.605
88964SOL    HW268790  11.998  10.462   1.642
88965SOL     OW68791  10.284  13.592   3.969
88965SOL    HW168792  10.195  13.572   3.998
88965SOL    HW268793  10.317  13.655   4.033
88966SOL     OW68794  14.449   3.288  13.397
88966SOL    HW168795  14.452   3.193  13.398
88966SOL    HW268796  14.540   3.315  13.389
88967SOL     OW68797   9.699   9.951   5.231
88967SOL    HW168798   9.677   9.877   5.288
88967SOL    HW268799   9.647  10.023   5.265
88968SOL     OW68800   6.054   5.153   6.207
88968SOL    HW168801   5.964   5.124   6.218
88968SOL    HW268802   6.104   5.071   6.195
88969SOL     OW68803   3.990   8.466   7.257
88969SOL    HW168804   4.080   8.452   7.229
88969SOL    HW268805   3.985   8.428   7.345
88970SOL     OW68806   7.669   6.842  12.805
88970SOL    HW168807   7.699   6.928  12.834
88970SOL    HW268808   7.734   6.780  12.838
88971SOL     OW68809  10.535  13.109  11.123
88971SOL    HW168810  10.492  13.194  11.133
88971SOL    HW268811  10.494  13.053  11.189
88972SOL     OW68812   0.783  14.093  13.534
88972SOL    HW168813   0.729  14.166  13.504
88972SOL    HW268814   0.861  14.096  13.478
88973SOL     OW68815   5.073   0.160   7.701
88973SOL    HW168816   5.052   0.240   7.749
88973SOL    HW268817   5.002   0.152   7.637
88974SOL     OW68818   1.385   7.531   1.353
88974SOL    HW168819   1.440   7.468   1.400
88974SOL    HW268820   1.315   7.552   1.415
88975SOL     OW68821   8.642   5.777   0.789
88975SOL    HW168822   8.601   5.717   0.852
88975SOL    HW268823   8.663   5.855   0.841
88976SOL     OW68824   2.733   9.993  14.022
88976SOL    HW168825   2.667   9.924  14.012
88976SOL    HW268826   2.760  10.014  13.933
88977SOL     OW68827   3.088  10.529  13.030
88977SOL    HW168828   3.000  10.563  13.044
88977SOL    HW268829   3.130  10.594  12.973
88978SOL     OW68830   3.427   5.217   7.146
88978SOL    HW168831   3.456   5.185   7.232
88978SOL    HW268832   3.503   5.265   7.112
88979SOL     OW68833   3.633  13.500   1.347
88979SOL    HW168834   3.673  13.557   1.413
88979SOL    HW268835   3.548  13.477   1.385
88980SOL     OW68836   9.140   1.206   8.356
88980SOL    HW168837   9.132   1.220   8.450
88980SOL    HW268838   9.230   1.232   8.336
88981SOL     OW68839  12.329   9.371   1.517
88981SOL    HW168840  12.322   9.276   1.523
88981SOL    HW268841  12.414   9.392   1.556
88982SOL     OW68842  12.305   7.643   3.675
88982SOL    HW168843  12.362   7.571   3.647
88982SOL    HW268844  12.356   7.722   3.657
88983SOL     OW68845   9.733  10.041  14.378
88983SOL    HW168846   9.708  10.066  14.289
88983SOL    HW268847   9.821  10.075  14.389
88984SOL     OW68848  12.270   7.733   1.098
88984SOL    HW168849  12.325   7.655   1.105
88984SOL    HW268850  12.317   7.790   1.037
88985SOL     OW68851   4.793  12.694   6.566
88985SOL    HW168852   4.776  12.663   6.477
88985SOL    HW268853   4.805  12.788   6.557
88986SOL     OW68854   6.465   5.046  10.249
88986SOL    HW168855   6.527   5.109  10.212
88986SOL    HW268856   6.412   5.018  10.174
88987SOL     OW68857   8.570  10.268   2.870
88987SOL    HW168858   8.535  10.350   2.906
88987SOL    HW268859   8.635  10.295   2.806
88988SOL     OW68860   4.980  10.539   5.844
88988SOL    HW168861   4.896  10.529   5.889
88988SOL    HW268862   4.960  10.591   5.767
88989SOL     OW68863   7.273  14.397   5.713
88989SOL    HW168864   7.364  14.396   5.741
88989SOL    HW268865   7.239  14.311   5.738
88990SOL     OW68866  14.475   0.845   0.575
88990SOL    HW168867  14.401   0.905   0.560
88990SOL    HW268868  14.442   0.783   0.640
88991SOL     OW68869   1.787   6.848  11.029
88991SOL    HW168870   1.716   6.904  11.060
88991SOL    HW268871   1.832   6.901  10.964
88992SOL     OW68872   3.439   2.666   1.566
88992SOL    HW168873   3.436   2.572   1.584
88992SOL    HW268874   3.414   2.674   1.474
88993SOL     OW68875   7.078   3.771   8.254
88993SOL    HW168876   7.129   3.852   8.244
88993SOL    HW268877   7.134   3.714   8.308
88994SOL     OW68878   0.393   7.100   4.004
88994SOL    HW168879   0.445   7.177   3.981
88994SOL    HW268880   0.367   7.063   3.920
88995SOL     OW68881   1.960   3.337   8.214
88995SOL    HW168882   2.046   3.321   8.176
88995SOL    HW268883   1.961   3.291   8.297
88996SOL     OW68884  11.778  12.696  10.328
88996SOL    HW168885  11.781  12.709  10.423
88996SOL    HW268886  11.691  12.658  10.312
88997SOL     OW68887   3.102  12.790   1.695
88997SOL    HW168888   3.134  12.729   1.762
88997SOL    HW268889   3.048  12.736   1.637
88998SOL     OW68890   6.795  10.492   2.710
88998SOL    HW168891   6.861  10.535   2.764
88998SOL    HW268892   6.807  10.398   2.729
88999SOL     OW68893  12.472   4.849   1.817
88999SOL    HW168894  12.379   4.839   1.801
88999SOL    HW268895  12.481   4.845   1.913
89000SOL     OW68896   8.487  10.996   5.392
89000SOL    HW168897   8.533  11.063   5.340
89000SOL    HW268898   8.521  10.913   5.358
89001SOL     OW68899  12.360  10.341   2.436
89001SOL    HW168900  12.444  10.366   2.475
89001SOL    HW268901  12.381  10.268   2.379
89002SOL     OW68902  10.514   6.602  14.639
89002SOL    HW168903  10.563   6.520  14.630
89002SOL    HW268904  10.439   6.579  14.694
89003SOL     OW68905   8.790   3.983   4.535
89003SOL    HW168906   8.843   4.063   4.538
89003SOL    HW268907   8.837   3.924   4.476
89004SOL     OW68908   6.602   0.028   2.304
89004SOL    HW168909   6.609   0.117   2.337
89004SOL    HW268910   6.527  14.860   2.350
89005SOL     OW68911  12.743  14.130  13.006
89005SOL    HW168912  12.818  14.148  13.063
89005SOL    HW268913  12.701  14.053  13.046
89006SOL     OW68914  10.394   9.581   1.355
89006SOL    HW168915  10.375   9.616   1.268
89006SOL    HW268916  10.334   9.508   1.366
89007SOL     OW68917   6.285  10.622  12.723
89007SOL    HW168918   6.194  10.633  12.697
89007SOL    HW268919   6.322  10.710  12.724
89008SOL     OW68920   0.095  10.371   3.225
89008SOL    HW168921   0.072  10.428   3.152
89008SOL    HW268922   0.188  10.387   3.240
89009SOL     OW68923   5.097  14.097   4.397
89009SOL    HW168924   5.031  14.166   4.404
89009SOL    HW268925   5.076  14.037   4.469
89010SOL     OW68926  13.931   6.129   4.502
89010SOL    HW168927  13.984   6.207   4.488
89010SOL    HW268928  13.963   6.093   4.585
89011SOL     OW68929   2.344   2.999   8.320
89011SOL    HW168930   2.419   3.036   8.365
89011SOL    HW268931   2.303   3.073   8.275
89012SOL     OW68932   5.109   8.261   6.853
89012SOL    HW168933   5.087   8.174   6.887
89012SOL    HW268934   5.071   8.322   6.916
89013SOL     OW68935  12.480   5.810  13.977
89013SOL    HW168936  12.558   5.788  14.029
89013SOL    HW268937  12.491   5.902  13.955
89014SOL     OW68938   2.704  10.217  12.083
89014SOL    HW168939   2.727  10.304  12.116
89014SOL    HW268940   2.701  10.162  12.161
89015SOL     OW68941   1.970  11.810   5.834
89015SOL    HW168942   1.922  11.750   5.778
89015SOL    HW268943   1.903  11.854   5.886
89016SOL     OW68944   6.998   2.731   7.346
89016SOL    HW168945   6.963   2.678   7.418
89016SOL    HW268946   7.007   2.819   7.383
89017SOL     OW68947   2.198   2.293   6.255
89017SOL    HW168948   2.258   2.241   6.201
89017SOL    HW268949   2.254   2.360   6.295
89018SOL     OW68950  14.209   1.498   9.224
89018SOL    HW168951  14.171   1.533   9.144
89018SOL    HW268952  14.290   1.547   9.236
89019SOL     OW68953  14.273   4.066  10.846
89019SOL    HW168954  14.367   4.052  10.832
89019SOL    HW268955  14.247   4.126  10.776
89020SOL     OW68956   8.742   8.846   3.251
89020SOL    HW168957   8.829   8.845   3.211
89020SOL    HW268958   8.704   8.762   3.226
89021SOL     OW68959   7.378   4.631  12.437
89021SOL    HW168960   7.402   4.673  12.520
89021SOL    HW268961   7.429   4.677  12.371
89022SOL     OW68962   7.124   5.622   0.370
89022SOL    HW168963   7.088   5.710   0.375
89022SOL    HW268964   7.211   5.628   0.410
89023SOL     OW68965  12.278   2.624   7.731
89023SOL    HW168966  12.353   2.648   7.786
89023SOL    HW268967  12.233   2.555   7.780
89024SOL     OW68968  10.897   9.493  14.788
89024SOL    HW168969  10.819   9.448  14.757
89024SOL    HW268970  10.970   9.439  14.757
89025SOL     OW68971  13.895   1.831   1.860
89025SOL    HW168972  13.943   1.763   1.906
89025SOL    HW268973  13.842   1.874   1.927
89026SOL     OW68974   3.607   9.002  13.193
89026SOL    HW168975   3.586   9.024  13.102
89026SOL    HW268976   3.571   8.914  13.206
89027SOL     OW68977  14.338  14.382   8.014
89027SOL    HW168978  14.249  14.413   8.001
89027SOL    HW268979  14.371  14.366   7.925
89028SOL     OW68980   4.934  12.911   9.409
89028SOL    HW168981   5.006  12.879   9.355
89028SOL    HW268982   4.855  12.877   9.366
89029SOL     OW68983   6.397   2.919   4.884
89029SOL    HW168984   6.464   2.892   4.947
89029SOL    HW268985   6.442   2.980   4.825
89030SOL     OW68986  10.576   5.081   7.986
89030SOL    HW168987  10.610   5.165   8.016
89030SOL    HW268988  10.519   5.051   8.058
89031SOL     OW68989  13.544  12.018  14.282
89031SOL    HW168990  13.482  12.074  14.236
89031SOL    HW268991  13.521  11.929  14.255
89032SOL     OW68992   4.486   6.185  10.982
89032SOL    HW168993   4.491   6.270  11.027
89032SOL    HW268994   4.484   6.207  10.889
89033SOL     OW68995  10.257   1.982   6.198
89033SOL    HW168996  10.305   1.935   6.267
89033SOL    HW268997  10.299   1.954   6.117
89034SOL     OW68998   7.915   3.559   4.748
89034SOL    HW168999   7.924   3.478   4.797
89034SOL    HW269000   7.981   3.617   4.785
89035SOL     OW69001  13.297   7.116   7.487
89035SOL    HW169002  13.209   7.108   7.448
89035SOL    HW269003  13.283   7.169   7.565
89036SOL     OW69004   9.041   2.721   7.992
89036SOL    HW169005   8.976   2.722   7.921
89036SOL    HW269006   9.035   2.633   8.029
89037SOL     OW69007  13.202   6.837   4.859
89037SOL    HW169008  13.232   6.748   4.878
89037SOL    HW269009  13.282   6.889   4.855
89038SOL     OW69010   5.106  12.588   5.152
89038SOL    HW169011   5.065  12.620   5.233
89038SOL    HW269012   5.112  12.494   5.165
89039SOL     OW69013   7.652  14.217   6.140
89039SOL    HW169014   7.655  14.262   6.056
89039SOL    HW269015   7.589  14.266   6.192
89040SOL     OW69016   5.658  13.295   1.450
89040SOL    HW169017   5.676  13.315   1.542
89040SOL    HW269018   5.571  13.254   1.451
89041SOL     OW69019   3.956   4.442   8.328
89041SOL    HW169020   4.016   4.509   8.295
89041SOL    HW269021   3.908   4.413   8.251
89042SOL     OW69022   0.699   2.833   2.716
89042SOL    HW169023   0.743   2.914   2.691
89042SOL    HW269024   0.649   2.807   2.638
89043SOL     OW69025   9.811   3.685  13.067
89043SOL    HW169026   9.762   3.760  13.034
89043SOL    HW269027   9.872   3.722  13.131
89044SOL     OW69028   6.718   0.656  12.185
89044SOL    HW169029   6.700   0.743  12.221
89044SOL    HW269030   6.659   0.598  12.233
89045SOL     OW69031   7.650   6.949  11.740
89045SOL    HW169032   7.722   6.886  11.744
89045SOL    HW269033   7.584   6.906  11.686
89046SOL     OW69034   5.486   1.551   2.900
89046SOL    HW169035   5.493   1.631   2.952
89046SOL    HW269036   5.449   1.487   2.961
89047SOL     OW69037   2.266   2.742   0.717
89047SOL    HW169038   2.213   2.818   0.697
89047SOL    HW269039   2.213   2.667   0.688
89048SOL     OW69040  12.303   5.848  11.421
89048SOL    HW169041  12.303   5.934  11.465
89048SOL    HW269042  12.255   5.791  11.481
89049SOL     OW69043   4.202   2.484   2.897
89049SOL    HW169044   4.266   2.523   2.956
89049SOL    HW269045   4.165   2.558   2.848
89050SOL     OW69046   0.787   9.823   9.193
89050SOL    HW169047   0.837   9.789   9.267
89050SOL    HW269048   0.719   9.878   9.233
89051SOL     OW69049  14.041  11.124   8.869
89051SOL    HW169050  14.132  11.154   8.874
89051SOL    HW269051  14.003  11.152   8.952
89052SOL     OW69052   5.753  14.135   0.766
89052SOL    HW169053   5.727  14.217   0.808
89052SOL    HW269054   5.793  14.084   0.836
89053SOL     OW69055   7.804  12.335   1.807
89053SOL    HW169056   7.731  12.394   1.826
89053SOL    HW269057   7.868  12.389   1.761
89054SOL     OW69058   9.762   1.260   1.118
89054SOL    HW169059   9.753   1.173   1.157
89054SOL    HW269060   9.727   1.320   1.184
89055SOL     OW69061  10.646   5.028   1.922
89055SOL    HW169062  10.673   5.096   1.984
89055SOL    HW269063  10.643   5.074   1.837
89056SOL     OW69064   0.072  12.131   1.930
89056SOL    HW169065   0.070  12.197   1.861
89056SOL    HW269066   0.009  12.064   1.902
89057SOL     OW69067  12.046   8.991   6.874
89057SOL    HW169068  12.067   9.007   6.966
89057SOL    HW269069  11.953   8.968   6.874
89058SOL     OW69070   5.212  13.321   0.021
89058SOL    HW169071   5.198  13.317   0.116
89058SOL    HW269072   5.159  13.397  14.862
89059SOL     OW69073  14.302   0.626  11.120
89059SOL    HW169074  14.282   0.681  11.196
89059SOL    HW269075  14.228   0.565  11.115
89060SOL     OW69076   1.864  13.581   5.611
89060SOL    HW169077   1.825  13.511   5.560
89060SOL    HW269078   1.790  13.639   5.632
89061SOL     OW69079   2.499   9.943  12.533
89061SOL    HW169080   2.541   9.985  12.608
89061SOL    HW269081   2.495   9.850  12.556
89062SOL     OW69082  12.941   9.820   0.356
89062SOL    HW169083  12.859   9.861   0.383
89062SOL    HW269084  12.922   9.781   0.271
89063SOL     OW69085   1.367  13.934   7.566
89063SOL    HW169086   1.288  13.887   7.592
89063SOL    HW269087   1.422  13.936   7.644
89064SOL     OW69088  13.631   5.399   5.472
89064SOL    HW169089  13.677   5.326   5.514
89064SOL    HW269090  13.580   5.359   5.401
89065SOL     OW69091   5.561   6.783   1.989
89065SOL    HW169092   5.623   6.721   1.952
89065SOL    HW269093   5.616   6.854   2.023
89066SOL     OW69094   9.835   7.001  12.899
89066SOL    HW169095   9.899   6.947  12.947
89066SOL    HW269096   9.825   6.956  12.815
89067SOL     OW69097   0.147   1.671   7.321
89067SOL    HW169098   0.104   1.707   7.243
89067SOL    HW269099   0.221   1.622   7.286
89068SOL     OW69100   9.642  13.434  12.221
89068SOL    HW169101   9.726  13.435  12.177
89068SOL    HW269102   9.663  13.430  12.314
89069SOL     OW69103   3.803   7.671  14.538
89069SOL    HW169104   3.816   7.764  14.554
89069SOL    HW269105   3.837   7.657  14.449
89070SOL     OW69106   6.650   3.591   8.495
89070SOL    HW169107   6.592   3.643   8.440
89070SOL    HW269108   6.692   3.654   8.554
89071SOL     OW69109  13.352   7.077   9.305
89071SOL    HW169110  13.433   7.070   9.254
89071SOL    HW269111  13.286   7.035   9.250
89072SOL     OW69112  10.816   6.591   1.900
89072SOL    HW169113  10.814   6.680   1.864
89072SOL    HW269114  10.744   6.546   1.855
89073SOL     OW69115   0.491   7.534   7.779
89073SOL    HW169116   0.553   7.478   7.733
89073SOL    HW269117   0.493   7.503   7.870
89074SOL     OW69118   5.430   2.306  12.730
89074SOL    HW169119   5.429   2.314  12.826
89074SOL    HW269120   5.433   2.397  12.699
89075SOL     OW69121   7.968  13.253   9.980
89075SOL    HW169122   8.024  13.321   9.942
89075SOL    HW269123   7.968  13.183   9.914
89076SOL     OW69124   8.285   2.402  11.292
89076SOL    HW169125   8.213   2.429  11.236
89076SOL    HW269126   8.289   2.469  11.360
89077SOL     OW69127   4.095   3.444   7.512
89077SOL    HW169128   4.068   3.536   7.516
89077SOL    HW269129   4.190   3.447   7.505
89078SOL     OW69130  13.009   2.280   0.236
89078SOL    HW169131  13.024   2.267   0.330
89078SOL    HW269132  13.096   2.272   0.197
89079SOL     OW69133   0.578   7.161   7.133
89079SOL    HW169134   0.503   7.102   7.131
89079SOL    HW269135   0.562   7.219   7.207
89080SOL     OW69136  10.819   5.585   7.491
89080SOL    HW169137  10.846   5.559   7.403
89080SOL    HW269138  10.724   5.572   7.491
89081SOL     OW69139   7.024   1.977   0.545
89081SOL    HW169140   7.075   2.058   0.545
89081SOL    HW269141   7.055   1.930   0.623
89082SOL     OW69142  10.584  13.060   7.677
89082SOL    HW169143  10.544  13.137   7.638
89082SOL    HW269144  10.511  13.001   7.697
89083SOL     OW69145  13.936  12.903   9.724
89083SOL    HW169146  13.876  12.945   9.662
89083SOL    HW269147  13.907  12.935   9.810
89084SOL     OW69148   9.624   6.383   0.454
89084SOL    HW169149   9.711   6.415   0.430
89084SOL    HW269150   9.626   6.382   0.550
89085SOL     OW69151  12.107   0.540   1.255
89085SOL    HW169152  12.166   0.608   1.223
89085SOL    HW269153  12.145   0.512   1.338
89086SOL     OW69154  13.391  12.424  12.190
89086SOL    HW169155  13.372  12.457  12.278
89086SOL    HW269156  13.406  12.330  12.203
89087SOL     OW69157   1.907   8.182  12.284
89087SOL    HW169158   1.835   8.157  12.226
89087SOL    HW269159   1.928   8.272  12.259
89088SOL     OW69160  13.735  13.405   3.276
89088SOL    HW169161  13.701  13.323   3.240
89088SOL    HW269162  13.674  13.428   3.346
89089SOL     OW69163   1.224   8.566   7.757
89089SOL    HW169164   1.218   8.511   7.678
89089SOL    HW269165   1.287   8.634   7.733
89090SOL     OW69166   3.930   2.442   2.950
89090SOL    HW169167   3.902   2.352   2.937
89090SOL    HW269168   4.023   2.436   2.972
89091SOL     OW69169  11.159  14.170   1.357
89091SOL    HW169170  11.072  14.208   1.349
89091SOL    HW269171  11.178  14.171   1.451
89092SOL     OW69172   5.761   3.926   3.694
89092SOL    HW169173   5.775   3.914   3.788
89092SOL    HW269174   5.752   4.021   3.683
89093SOL     OW69175  11.344   5.502   2.523
89093SOL    HW169176  11.338   5.585   2.476
89093SOL    HW269177  11.435   5.475   2.514
89094SOL     OW69178   9.861   6.501   9.508
89094SOL    HW169179   9.870   6.408   9.529
89094SOL    HW269180   9.938   6.542   9.548
89095SOL     OW69181   4.931  13.229  11.339
89095SOL    HW169182   4.870  13.181  11.284
89095SOL    HW269183   4.963  13.300  11.283
89096SOL     OW69184  13.056   1.728   4.284
89096SOL    HW169185  12.999   1.805   4.281
89096SOL    HW269186  12.996   1.654   4.283
89097SOL     OW69187   2.749   6.127  11.594
89097SOL    HW169188   2.785   6.076  11.521
89097SOL    HW269189   2.812   6.115  11.665
89098SOL     OW69190  11.910   0.493   9.447
89098SOL    HW169191  11.961   0.412   9.449
89098SOL    HW269192  11.872   0.500   9.534
89099SOL     OW69193   1.165  12.157  12.464
89099SOL    HW169194   1.186  12.205  12.384
89099SOL    HW269195   1.165  12.065  12.437
89100SOL     OW69196  10.694  13.938   6.256
89100SOL    HW169197  10.708  14.009   6.193
89100SOL    HW269198  10.604  13.910   6.241
89101SOL     OW69199   2.749   0.120   6.460
89101SOL    HW169200   2.837   0.109   6.422
89101SOL    HW269201   2.691   0.123   6.384
89102SOL     OW69202  11.942  10.275  10.068
89102SOL    HW169203  12.027  10.235  10.086
89102SOL    HW269204  11.961  10.345  10.005
89103SOL     OW69205   0.469  11.170   3.681
89103SOL    HW169206   0.382  11.132   3.692
89103SOL    HW269207   0.453  11.259   3.648
89104SOL     OW69208   4.848   7.306  12.332
89104SOL    HW169209   4.840   7.229  12.388
89104SOL    HW269210   4.920   7.285  12.273
89105SOL     OW69211   9.041  11.180   0.494
89105SOL    HW169212   9.081  11.152   0.412
89105SOL    HW269213   8.969  11.119   0.508
89106SOL     OW69214   5.728  10.294   9.658
89106SOL    HW169215   5.669  10.251   9.596
89106SOL    HW269216   5.746  10.379   9.619
89107SOL     OW69217  13.878  11.473   0.982
89107SOL    HW169218  13.852  11.385   1.009
89107SOL    HW269219  13.797  11.515   0.954
89108SOL     OW69220   0.737   2.798   7.380
89108SOL    HW169221   0.764   2.770   7.292
89108SOL    HW269222   0.806   2.765   7.438
89109SOL     OW69223  13.194   2.613   0.915
89109SOL    HW169224  13.159   2.592   0.829
89109SOL    HW269225  13.133   2.574   0.977
89110SOL     OW69226   8.832  11.291   2.045
89110SOL    HW169227   8.898  11.360   2.046
89110SOL    HW269228   8.857  11.233   2.116
89111SOL     OW69229  12.034   7.973   0.982
89111SOL    HW169230  11.972   7.982   1.054
89111SOL    HW269231  12.057   7.880   0.981
89112SOL     OW69232  14.118   4.449  11.653
89112SOL    HW169233  14.118   4.517  11.586
89112SOL    HW269234  14.064   4.379  11.616
89113SOL     OW69235   3.052   7.209   2.199
89113SOL    HW169236   3.077   7.287   2.150
89113SOL    HW269237   3.075   7.136   2.142
89114SOL     OW69238  13.736  11.943   9.589
89114SOL    HW169239  13.732  11.847   9.594
89114SOL    HW269240  13.676  11.966   9.518
89115SOL     OW69241   4.429  10.216  13.788
89115SOL    HW169242   4.411  10.123  13.777
89115SOL    HW269243   4.418  10.254  13.701
89116SOL     OW69244   4.060   2.662   0.602
89116SOL    HW169245   4.062   2.695   0.513
89116SOL    HW269246   4.072   2.568   0.593
89117SOL     OW69247  11.415   7.643   1.873
89117SOL    HW169248  11.425   7.558   1.915
89117SOL    HW269249  11.498   7.687   1.888
89118SOL     OW69250  10.521  11.067   7.670
89118SOL    HW169251  10.443  11.112   7.703
89118SOL    HW269252  10.553  11.123   7.599
89119SOL     OW69253   7.012   5.771   1.990
89119SOL    HW169254   7.014   5.676   2.005
89119SOL    HW269255   6.936   5.785   1.934
89120SOL     OW69256  12.075  11.803   6.229
89120SOL    HW169257  12.127  11.733   6.189
89120SOL    HW269258  12.108  11.883   6.188
89121SOL     OW69259  10.179   7.190   0.816
89121SOL    HW169260  10.228   7.116   0.852
89121SOL    HW269261  10.110   7.150   0.764
89122SOL     OW69262   9.250   4.049  14.226
89122SOL    HW169263   9.314   4.034  14.157
89122SOL    HW269264   9.244   3.965  14.272
89123SOL     OW69265   9.207   3.773   9.080
89123SOL    HW169266   9.150   3.792   9.005
89123SOL    HW269267   9.295   3.788   9.047
89124SOL     OW69268   4.884   5.671  12.400
89124SOL    HW169269   4.979   5.686  12.404
89124SOL    HW269270   4.875   5.583  12.365
89125SOL     OW69271   1.151   3.858   5.014
89125SOL    HW169272   1.060   3.887   5.012
89125SOL    HW269273   1.202   3.939   5.020
89126SOL     OW69274   9.315  13.018  14.532
89126SOL    HW169275   9.375  13.077  14.577
89126SOL    HW269276   9.235  13.022  14.583
89127SOL     OW69277   2.329   0.085   0.413
89127SOL    HW169278   2.339  14.862   0.391
89127SOL    HW269279   2.251   0.088   0.468
89128SOL     OW69280   0.893   1.514  10.503
89128SOL    HW169281   0.918   1.471  10.421
89128SOL    HW269282   0.976   1.537  10.545
89129SOL     OW69283   4.341   5.865   7.339
89129SOL    HW169284   4.317   5.885   7.430
89129SOL    HW269285   4.288   5.925   7.286
89130SOL     OW69286  10.594   9.726  14.013
89130SOL    HW169287  10.581   9.728  13.918
89130SOL    HW269288  10.672   9.672  14.024
89131SOL     OW69289   7.448  11.260  12.171
89131SOL    HW169290   7.400  11.246  12.090
89131SOL    HW269291   7.458  11.173  12.209
89132SOL     OW69292  10.710   5.770   9.241
89132SOL    HW169293  10.658   5.804   9.168
89132SOL    HW269294  10.684   5.824   9.316
89133SOL     OW69295  10.895  12.897   4.418
89133SOL    HW169296  10.862  12.848   4.343
89133SOL    HW269297  10.961  12.841   4.457
89134SOL     OW69298   8.012   2.936   8.472
89134SOL    HW169299   8.039   2.936   8.564
89134SOL    HW269300   8.060   3.009   8.433
89135SOL     OW69301   8.465   8.669   5.165
89135SOL    HW169302   8.437   8.605   5.100
89135SOL    HW269303   8.384   8.701   5.205
89136SOL     OW69304   1.983   5.412   3.762
89136SOL    HW169305   2.038   5.410   3.684
89136SOL    HW269306   2.000   5.327   3.805
89137SOL     OW69307  13.552   3.848   4.119
89137SOL    HW169308  13.517   3.869   4.205
89137SOL    HW269309  13.539   3.928   4.067
89138SOL     OW69310   6.772  12.541   6.700
89138SOL    HW169311   6.747  12.491   6.623
89138SOL    HW269312   6.771  12.477   6.771
89139SOL     OW69313   6.393  11.644   6.235
89139SOL    HW169314   6.397  11.740   6.226
89139SOL    HW269315   6.482  11.618   6.257
89140SOL     OW69316  12.668   3.986   9.801
89140SOL    HW169317  12.736   3.919   9.792
89140SOL    HW269318  12.716   4.069   9.799
89141SOL     OW69319  13.474  11.906  12.858
89141SOL    HW169320  13.555  11.857  12.843
89141SOL    HW269321  13.495  11.965  12.931
89142SOL     OW69322   4.194   0.149  10.276
89142SOL    HW169323   4.131   0.104  10.331
89142SOL    HW269324   4.156   0.235  10.260
89143SOL     OW69325   3.102   6.656  10.299
89143SOL    HW169326   3.039   6.697  10.358
89143SOL    HW269327   3.097   6.709  10.219
89144SOL     OW69328   1.135   6.049  13.764
89144SOL    HW169329   1.176   5.981  13.711
89144SOL    HW269330   1.190   6.055  13.842
89145SOL     OW69331   0.448   7.567   2.860
89145SOL    HW169332   0.401   7.570   2.944
89145SOL    HW269333   0.419   7.646   2.814
89146SOL     OW69334  13.678   7.643   2.283
89146SOL    HW169335  13.748   7.605   2.229
89146SOL    HW269336  13.673   7.584   2.359
89147SOL     OW69337   7.460   9.633  12.001
89147SOL    HW169338   7.495   9.576  11.933
89147SOL    HW269339   7.370   9.604  12.014
89148SOL     OW69340  10.158  14.040   8.956
89148SOL    HW169341  10.216  14.112   8.982
89148SOL    HW269342  10.210  13.961   8.967
89149SOL     OW69343  14.306   5.079  12.522
89149SOL    HW169344  14.279   5.156  12.472
89149SOL    HW269345  14.348   5.114  12.600
89150SOL     OW69346  14.445   5.660   5.794
89150SOL    HW169347  14.477   5.751   5.795
89150SOL    HW269348  14.523   5.607   5.780
89151SOL     OW69349   9.529   5.862  12.627
89151SOL    HW169350   9.529   5.859  12.723
89151SOL    HW269351   9.479   5.941  12.606
89152SOL     OW69352  13.132   8.065   6.617
89152SOL    HW169353  13.191   8.007   6.569
89152SOL    HW269354  13.084   8.007   6.676
89153SOL     OW69355   8.372  11.982   5.053
89153SOL    HW169356   8.340  12.041   5.122
89153SOL    HW269357   8.407  11.907   5.101
89154SOL     OW69358   3.022  13.316  14.804
89154SOL    HW169359   2.929  13.334  14.790
89154SOL    HW269360   3.067  13.393  14.768
89155SOL     OW69361   8.771   5.014   5.659
89155SOL    HW169362   8.797   5.008   5.751
89155SOL    HW269363   8.811   4.938   5.618
89156SOL     OW69364  11.719   1.782   7.681
89156SOL    HW169365  11.797   1.837   7.674
89156SOL    HW269366  11.648   1.843   7.702
89157SOL     OW69367   2.583   9.749   4.833
89157SOL    HW169368   2.555   9.719   4.746
89157SOL    HW269369   2.502   9.755   4.884
89158SOL     OW69370   5.557   2.051  12.704
89158SOL    HW169371   5.491   2.115  12.730
89158SOL    HW269372   5.580   2.074  12.614
89159SOL     OW69373   0.973  11.547  10.605
89159SOL    HW169374   1.018  11.617  10.652
89159SOL    HW269375   1.041  11.484  10.584
89160SOL     OW69376  12.492   2.350   6.402
89160SOL    HW169377  12.529   2.321   6.485
89160SOL    HW269378  12.429   2.282   6.378
89161SOL     OW69379  11.986   7.712  11.631
89161SOL    HW169380  11.933   7.703  11.552
89161SOL    HW269381  12.076   7.724  11.599
89162SOL     OW69382   1.574   0.886  13.568
89162SOL    HW169383   1.663   0.869  13.599
89162SOL    HW269384   1.524   0.908  13.646
89163SOL     OW69385   1.122   5.534   9.934
89163SOL    HW169386   1.065   5.528   9.857
89163SOL    HW269387   1.211   5.530   9.899
89164SOL     OW69388   5.915   2.066   5.445
89164SOL    HW169389   5.992   2.021   5.411
89164SOL    HW269390   5.879   2.114   5.370
89165SOL     OW69391   9.758   1.787  11.976
89165SOL    HW169392   9.738   1.878  11.995
89165SOL    HW269393   9.682   1.754  11.928
89166SOL     OW69394   4.692   9.783  14.089
89166SOL    HW169395   4.644   9.863  14.066
89166SOL    HW269396   4.711   9.793  14.183
89167SOL     OW69397  11.684   5.958   4.158
89167SOL    HW169398  11.608   5.909   4.191
89167SOL    HW269399  11.664   6.049   4.181
89168SOL     OW69400   0.768   3.007  10.812
89168SOL    HW169401   0.694   3.001  10.873
89168SOL    HW269402   0.824   2.933  10.836
89169SOL     OW69403   3.876  13.598  14.722
89169SOL    HW169404   3.963  13.577  14.755
89169SOL    HW269405   3.891  13.665  14.655
89170SOL     OW69406   0.441  13.562   0.362
89170SOL    HW169407   0.438  13.657   0.364
89170SOL    HW269408   0.379  13.534   0.429
89171SOL     OW69409   6.077   2.786   0.040
89171SOL    HW169410   6.048   2.856   0.099
89171SOL    HW269411   6.068   2.706   0.092
89172SOL     OW69412   9.132   1.190   6.191
89172SOL    HW169413   9.060   1.128   6.202
89172SOL    HW269414   9.160   1.210   6.280
89173SOL     OW69415   3.770   7.700   1.282
89173SOL    HW169416   3.718   7.738   1.353
89173SOL    HW269417   3.733   7.613   1.269
89174SOL     OW69418  11.121   7.447   3.659
89174SOL    HW169419  11.081   7.518   3.609
89174SOL    HW269420  11.135   7.483   3.747
89175SOL     OW69421   5.709   8.251   5.269
89175SOL    HW169422   5.745   8.339   5.275
89175SOL    HW269423   5.780   8.197   5.235
89176SOL     OW69424  11.927  12.057   1.597
89176SOL    HW169425  11.996  11.991   1.593
89176SOL    HW269426  11.869  12.035   1.524
89177SOL     OW69427   5.305   5.189   0.077
89177SOL    HW169428   5.323   5.283   0.071
89177SOL    HW269429   5.391   5.148   0.067
89178SOL     OW69430   7.708   3.586   1.055
89178SOL    HW169431   7.684   3.673   1.023
89178SOL    HW269432   7.795   3.597   1.092
89179SOL     OW69433   9.967   7.476   2.773
89179SOL    HW169434  10.007   7.389   2.779
89179SOL    HW269435   9.903   7.470   2.702
89180SOL     OW69436   1.091  12.942   7.211
89180SOL    HW169437   1.119  12.898   7.131
89180SOL    HW269438   1.052  12.872   7.263
89181SOL     OW69439   4.323   0.039   6.819
89181SOL    HW169440   4.377   0.102   6.769
89181SOL    HW269441   4.355   0.046   6.908
89182SOL     OW69442  10.690   9.210  10.322
89182SOL    HW169443  10.770   9.261  10.322
89182SOL    HW269444  10.667   9.200  10.414
89183SOL     OW69445   1.181  12.584  10.175
89183SOL    HW169446   1.162  12.527  10.100
89183SOL    HW269447   1.216  12.524  10.241
89184SOL     OW69448   2.943   3.730   4.786
89184SOL    HW169449   2.884   3.762   4.718
89184SOL    HW269450   3.017   3.791   4.784
89185SOL     OW69451   0.296  13.163   4.156
89185SOL    HW169452   0.255  13.246   4.130
89185SOL    HW269453   0.368  13.189   4.213
89186SOL     OW69454  12.471   6.214  12.433
89186SOL    HW169455  12.435   6.127  12.414
89186SOL    HW269456  12.398   6.263  12.469
89187SOL     OW69457   7.761   1.840  11.453
89187SOL    HW169458   7.759   1.934  11.436
89187SOL    HW269459   7.832   1.807  11.399
89188SOL     OW69460   2.437   2.783   9.233
89188SOL    HW169461   2.454   2.830   9.152
89188SOL    HW269462   2.436   2.851   9.301
89189SOL     OW69463   6.819  12.249   9.955
89189SOL    HW169464   6.816  12.288   9.868
89189SOL    HW269465   6.832  12.324  10.014
89190SOL     OW69466  14.053   6.256   3.144
89190SOL    HW169467  14.043   6.235   3.237
89190SOL    HW269468  14.146   6.276   3.134
89191SOL     OW69469   3.965   0.069   5.127
89191SOL    HW169470   3.887   0.022   5.156
89191SOL    HW269471   4.028   0.058   5.198
89192SOL     OW69472   0.342   1.021  11.857
89192SOL    HW169473   0.383   0.944  11.819
89192SOL    HW269474   0.410   1.060  11.912
89193SOL     OW69475   1.905   9.083   1.750
89193SOL    HW169476   1.814   9.101   1.774
89193SOL    HW269477   1.900   9.014   1.684
89194SOL     OW69478  13.781  12.446   3.929
89194SOL    HW169479  13.809  12.416   3.843
89194SOL    HW269480  13.796  12.541   3.927
89195SOL     OW69481   0.120   8.366  12.101
89195SOL    HW169482   0.033   8.348  12.066
89195SOL    HW269483   0.106   8.380  12.195
89196SOL     OW69484   0.503  10.934  12.124
89196SOL    HW169485   0.468  10.946  12.036
89196SOL    HW269486   0.598  10.934  12.113
89197SOL     OW69487   8.436  13.670   2.767
89197SOL    HW169488   8.502  13.737   2.750
89197SOL    HW269489   8.481  13.603   2.818
89198SOL     OW69490   6.681   4.574  14.755
89198SOL    HW169491   6.733   4.516  14.810
89198SOL    HW269492   6.710   4.553  14.666
89199SOL     OW69493  12.915   3.988  14.274
89199SOL    HW169494  12.860   3.910  14.267
89199SOL    HW269495  12.959   3.995  14.189
89200SOL     OW69496   5.622   6.827   6.052
89200SOL    HW169497   5.697   6.772   6.077
89200SOL    HW269498   5.618   6.820   5.957
89201SOL     OW69499   5.560   1.626   9.428
89201SOL    HW169500   5.539   1.677   9.350
89201SOL    HW269501   5.487   1.563   9.436
89202SOL     OW69502   5.175   2.373   5.728
89202SOL    HW169503   5.137   2.405   5.647
89202SOL    HW269504   5.245   2.435   5.748
89203SOL     OW69505   0.955  10.161   2.669
89203SOL    HW169506   0.883  10.103   2.648
89203SOL    HW269507   0.950  10.231   2.604
89204SOL     OW69508  13.904   0.322   9.610
89204SOL    HW169509  13.930   0.406   9.649
89204SOL    HW269510  13.959   0.257   9.655
89205SOL     OW69511   1.373  13.534   4.453
89205SOL    HW169512   1.327  13.484   4.385
89205SOL    HW269513   1.428  13.595   4.404
89206SOL     OW69514   4.980   6.072   9.614
89206SOL    HW169515   4.946   6.070   9.704
89206SOL    HW269516   4.966   6.163   9.586
89207SOL     OW69517   4.143  11.154   6.831
89207SOL    HW169518   4.153  11.192   6.918
89207SOL    HW269519   4.225  11.173   6.787
89208SOL     OW69520  14.270   3.877  10.255
89208SOL    HW169521  14.327   3.904  10.182
89208SOL    HW269522  14.319   3.810  10.301
89209SOL     OW69523   1.110   2.287  12.589
89209SOL    HW169524   1.031   2.270  12.538
89209SOL    HW269525   1.079   2.327  12.670
89210SOL     OW69526  10.110   6.731   0.323
89210SOL    HW169527  10.102   6.683   0.241
89210SOL    HW269528  10.124   6.664   0.389
89211SOL     OW69529   2.991   4.976   0.673
89211SOL    HW169530   3.022   5.035   0.604
89211SOL    HW269531   2.940   5.032   0.731
89212SOL     OW69532   4.019   6.436   4.936
89212SOL    HW169533   4.097   6.394   4.973
89212SOL    HW269534   3.946   6.380   4.966
89213SOL     OW69535   4.954   7.871   0.698
89213SOL    HW169536   4.910   7.796   0.738
89213SOL    HW269537   4.914   7.879   0.612
89214SOL     OW69538   2.291   5.602   1.116
89214SOL    HW169539   2.241   5.521   1.100
89214SOL    HW269540   2.285   5.651   1.034
89215SOL     OW69541  13.793  12.782   2.008
89215SOL    HW169542  13.760  12.815   2.091
89215SOL    HW269543  13.837  12.857   1.968
89216SOL     OW69544  12.888   2.012   1.051
89216SOL    HW169545  12.848   2.098   1.036
89216SOL    HW269546  12.949   2.026   1.124
89217SOL     OW69547   5.581   6.903   4.540
89217SOL    HW169548   5.645   6.835   4.520
89217SOL    HW269549   5.629   6.985   4.528
89218SOL     OW69550   3.101  13.754   1.701
89218SOL    HW169551   3.170  13.722   1.643
89218SOL    HW269552   3.109  13.850   1.696
89219SOL     OW69553   2.950   3.386   8.478
89219SOL    HW169554   3.002   3.341   8.544
89219SOL    HW269555   2.981   3.353   8.394
89220SOL     OW69556   9.489   0.739   5.816
89220SOL    HW169557   9.580   0.756   5.839
89220SOL    HW269558   9.477   0.645   5.831
89221SOL     OW69559   2.432   1.716   7.106
89221SOL    HW169560   2.480   1.747   7.029
89221SOL    HW269561   2.488   1.648   7.143
89222SOL     OW69562  14.208   4.847   8.406
89222SOL    HW169563  14.212   4.860   8.312
89222SOL    HW269564  14.254   4.764   8.421
89223SOL     OW69565  12.325   5.227   4.524
89223SOL    HW169566  12.378   5.160   4.481
89223SOL    HW269567  12.286   5.183   4.599
89224SOL     OW69568  12.223  13.448   9.013
89224SOL    HW169569  12.202  13.356   8.995
89224SOL    HW269570  12.199  13.461   9.104
89225SOL     OW69571   4.201   9.846   6.098
89225SOL    HW169572   4.282   9.849   6.149
89225SOL    HW269573   4.139   9.800   6.154
89226SOL     OW69574   9.764  14.460   5.976
89226SOL    HW169575   9.740  14.383   6.026
89226SOL    HW269576   9.818  14.427   5.904
89227SOL     OW69577  12.931   0.938   2.953
89227SOL    HW169578  13.001   0.995   2.923
89227SOL    HW269579  12.852   0.975   2.914
89228SOL     OW69580   7.655   9.693   7.144
89228SOL    HW169581   7.579   9.699   7.201
89228SOL    HW269582   7.622   9.715   7.057
89229SOL     OW69583  12.297  13.692   9.817
89229SOL    HW169584  12.269  13.740   9.894
89229SOL    HW269585  12.353  13.752   9.769
89230SOL     OW69586  11.622  14.060  12.207
89230SOL    HW169587  11.531  14.032  12.199
89230SOL    HW269588  11.668  13.985  12.244
89231SOL     OW69589   9.736  13.845   4.725
89231SOL    HW169590   9.643  13.858   4.741
89231SOL    HW269591   9.777  13.858   4.811
89232SOL     OW69592   9.532  11.492   7.509
89232SOL    HW169593   9.537  11.480   7.603
89232SOL    HW269594   9.592  11.427   7.473
89233SOL     OW69595  12.129  10.576   9.514
89233SOL    HW169596  12.035  10.594   9.516
89233SOL    HW269597  12.137  10.490   9.474
89234SOL     OW69598  12.071   2.552  11.780
89234SOL    HW169599  11.983   2.591  11.783
89234SOL    HW269600  12.067   2.478  11.841
89235SOL     OW69601  10.422  13.732  11.852
89235SOL    HW169602  10.346  13.775  11.893
89235SOL    HW269603  10.386  13.687  11.776
89236SOL     OW69604   2.498  10.713  12.419
89236SOL    HW169605   2.558  10.785  12.397
89236SOL    HW269606   2.415  10.756  12.438
89237SOL     OW69607   6.244   6.362  12.265
89237SOL    HW169608   6.282   6.275  12.279
89237SOL    HW269609   6.304   6.404  12.203
89238SOL     OW69610   5.835   8.139   6.601
89238SOL    HW169611   5.762   8.197   6.579
89238SOL    HW269612   5.828   8.128   6.696
89239SOL     OW69613  13.716  13.143  11.142
89239SOL    HW169614  13.772  13.193  11.201
89239SOL    HW269615  13.760  13.059  11.132
89240SOL     OW69616   5.595   1.620   5.568
89240SOL    HW169617   5.640   1.704   5.577
89240SOL    HW269618   5.512   1.641   5.525
89241SOL     OW69619  11.433   7.994   0.999
89241SOL    HW169620  11.511   7.939   1.005
89241SOL    HW269621  11.413   7.996   0.905
89242SOL     OW69622   6.095  10.876   3.512
89242SOL    HW169623   6.132  10.930   3.582
89242SOL    HW269624   6.095  10.934   3.435
89243SOL     OW69625   7.221  14.146   4.284
89243SOL    HW169626   7.177  14.069   4.318
89243SOL    HW269627   7.227  14.206   4.359
89244SOL     OW69628  13.558  14.175  10.052
89244SOL    HW169629  13.550  14.269  10.035
89244SOL    HW269630  13.517  14.133   9.977
89245SOL     OW69631  14.525   8.658  12.592
89245SOL    HW169632  14.505   8.700  12.508
89245SOL    HW269633  14.568   8.576  12.568
89246SOL     OW69634  14.789   6.863  14.497
89246SOL    HW169635  14.821   6.922  14.565
89246SOL    HW269636  14.806   6.775  14.532
89247SOL     OW69637   4.292  11.993  11.856
89247SOL    HW169638   4.377  12.031  11.877
89247SOL    HW269639   4.239  12.006  11.934
89248SOL     OW69640   7.278   0.649   7.410
89248SOL    HW169641   7.363   0.605   7.422
89248SOL    HW269642   7.216   0.594   7.458
89249SOL     OW69643   5.153   0.274   7.358
89249SOL    HW169644   5.148   0.359   7.403
89249SOL    HW269645   5.133   0.295   7.266
89250SOL     OW69646   5.507  14.803   3.522
89250SOL    HW169647   5.491  14.807   3.428
89250SOL    HW269648   5.567  14.729   3.533
89251SOL     OW69649   2.681   3.014   1.319
89251SOL    HW169650   2.669   2.922   1.294
89251SOL    HW269651   2.605   3.059   1.282
89252SOL     OW69652   7.222   8.968   3.047
89252SOL    HW169653   7.307   8.997   3.015
89252SOL    HW269654   7.160   8.995   2.979
89253SOL     OW69655   1.314  11.264  14.678
89253SOL    HW169656   1.397  11.234  14.717
89253SOL    HW269657   1.282  11.188  14.630
89254SOL     OW69658  13.038  12.335   6.912
89254SOL    HW169659  13.044  12.407   6.974
89254SOL    HW269660  12.954  12.347   6.867
89255SOL     OW69661   3.214   5.342  12.582
89255SOL    HW169662   3.188   5.275  12.645
89255SOL    HW269663   3.134   5.392  12.565
89256SOL     OW69664   7.171   5.694   9.325
89256SOL    HW169665   7.136   5.615   9.366
89256SOL    HW269666   7.191   5.667   9.235
89257SOL     OW69667   7.443  12.626   2.118
89257SOL    HW169668   7.389  12.620   2.197
89257SOL    HW269669   7.381  12.639   2.047
89258SOL     OW69670   6.068   5.172   3.647
89258SOL    HW169671   5.979   5.207   3.646
89258SOL    HW269672   6.097   5.178   3.556
89259SOL     OW69673   6.056   8.246  10.099
89259SOL    HW169674   6.040   8.152  10.088
89259SOL    HW269675   6.147   8.258  10.073
89260SOL     OW69676   1.611   3.357  12.331
89260SOL    HW169677   1.532   3.315  12.298
89260SOL    HW269678   1.680   3.291  12.318
89261SOL     OW69679  14.177   6.391   3.584
89261SOL    HW169680  14.269   6.369   3.569
89261SOL    HW269681  14.172   6.485   3.569
89262SOL     OW69682   2.429  11.055  12.228
89262SOL    HW169683   2.497  11.018  12.171
89262SOL    HW269684   2.347  11.033  12.184
89263SOL     OW69685   2.647   8.385   0.150
89263SOL    HW169686   2.692   8.469   0.163
89263SOL    HW269687   2.574   8.388   0.211
89264SOL     OW69688   6.962   0.489   9.971
89264SOL    HW169689   6.930   0.575  10.000
89264SOL    HW269690   6.947   0.489   9.876
89265SOL     OW69691   3.755   6.122   0.964
89265SOL    HW169692   3.751   6.027   0.964
89265SOL    HW269693   3.720   6.148   1.049
89266SOL     OW69694  13.249  12.589   0.118
89266SOL    HW169695  13.229  12.578   0.211
89266SOL    HW269696  13.288  12.506   0.092
89267SOL     OW69697  10.816   0.647  13.478
89267SOL    HW169698  10.748   0.588  13.510
89267SOL    HW269699  10.876   0.591  13.430
89268SOL     OW69700   1.197  13.153   6.395
89268SOL    HW169701   1.251  13.155   6.474
89268SOL    HW269702   1.248  13.101   6.333
89269SOL     OW69703   0.093   0.400   2.178
89269SOL    HW169704   0.131   0.331   2.233
89269SOL    HW269705   0.052   0.460   2.240
89270SOL     OW69706  11.723   1.795   6.753
89270SOL    HW169707  11.712   1.807   6.847
89270SOL    HW269708  11.634   1.798   6.718
89271SOL     OW69709   1.241   5.544   1.362
89271SOL    HW169710   1.308   5.603   1.328
89271SOL    HW269711   1.159   5.591   1.349
89272SOL     OW69712   2.526   7.979   7.664
89272SOL    HW169713   2.481   8.052   7.621
89272SOL    HW269714   2.466   7.951   7.733
89273SOL     OW69715   1.566   0.381   7.152
89273SOL    HW169716   1.562   0.334   7.069
89273SOL    HW269717   1.475   0.404   7.171
89274SOL     OW69718   9.281   9.548   0.930
89274SOL    HW169719   9.293   9.595   0.848
89274SOL    HW269720   9.223   9.604   0.981
89275SOL     OW69721  10.692  11.338  14.021
89275SOL    HW169722  10.720  11.248  14.038
89275SOL    HW269723  10.597  11.333  14.012
89276SOL     OW69724  11.870   4.882   0.485
89276SOL    HW169725  11.893   4.802   0.532
89276SOL    HW269726  11.840   4.852   0.400
89277SOL     OW69727   1.577   3.036   6.423
89277SOL    HW169728   1.527   2.973   6.475
89277SOL    HW269729   1.590   3.111   6.481
89278SOL     OW69730   7.520   2.940   2.582
89278SOL    HW169731   7.457   2.887   2.630
89278SOL    HW269732   7.592   2.880   2.563
89279SOL     OW69733   9.023   9.321   6.109
89279SOL    HW169734   9.070   9.387   6.159
89279SOL    HW269735   9.087   9.288   6.046
89280SOL     OW69736  10.448   0.938   9.400
89280SOL    HW169737  10.460   0.845   9.421
89280SOL    HW269738  10.535   0.977   9.413
89281SOL     OW69739  10.535  13.267   3.657
89281SOL    HW169740  10.504  13.342   3.607
89281SOL    HW269741  10.463  13.204   3.655
89282SOL     OW69742   3.654   9.012   4.710
89282SOL    HW169743   3.691   9.042   4.793
89282SOL    HW269744   3.602   9.086   4.678
89283SOL     OW69745   2.797   8.660  10.009
89283SOL    HW169746   2.882   8.685  10.047
89283SOL    HW269747   2.819   8.612   9.930
89284SOL     OW69748   6.176   5.677   1.833
89284SOL    HW169749   6.125   5.597   1.836
89284SOL    HW269750   6.112   5.745   1.811
89285SOL     OW69751   3.917   5.858   4.602
89285SOL    HW169752   3.845   5.833   4.660
89285SOL    HW269753   3.991   5.804   4.629
89286SOL     OW69754  14.355   3.526  11.296
89286SOL    HW169755  14.341   3.545  11.389
89286SOL    HW269756  14.271   3.544  11.255
89287SOL     OW69757   9.809   4.263  10.193
89287SOL    HW169758   9.719   4.294  10.191
89287SOL    HW269759   9.846   4.301  10.272
89288SOL     OW69760   6.783   3.362   5.328
89288SOL    HW169761   6.826   3.327   5.250
89288SOL    HW269762   6.854   3.403   5.378
89289SOL     OW69763  14.530  11.512   3.760
89289SOL    HW169764  14.552  11.420   3.742
89289SOL    HW269765  14.610  11.560   3.740
89290SOL     OW69766   7.672   9.766   7.523
89290SOL    HW169767   7.704   9.846   7.481
89290SOL    HW269768   7.710   9.768   7.611
89291SOL     OW69769   6.274   1.522   7.993
89291SOL    HW169770   6.361   1.487   8.015
89291SOL    HW269771   6.285   1.560   7.906
89292SOL     OW69772   4.562   6.756   0.987
89292SOL    HW169773   4.549   6.698   1.062
89292SOL    HW269774   4.604   6.701   0.921
89293SOL     OW69775   7.052  14.353   6.930
89293SOL    HW169776   6.970  14.381   6.971
89293SOL    HW269777   7.083  14.430   6.883
89294SOL     OW69778  13.784  13.207   7.492
89294SOL    HW169779  13.819  13.192   7.404
89294SOL    HW269780  13.808  13.128   7.541
89295SOL     OW69781  13.088   0.349  12.584
89295SOL    HW169782  13.021   0.379  12.523
89295SOL    HW269783  13.163   0.326  12.528
89296SOL     OW69784  12.748  13.215   0.464
89296SOL    HW169785  12.654  13.224   0.478
89296SOL    HW269786  12.762  13.245   0.374
89297SOL     OW69787  11.846   4.400  12.954
89297SOL    HW169788  11.827   4.476  12.898
89297SOL    HW269789  11.763   4.353  12.960
89298SOL     OW69790   7.267   2.621   5.125
89298SOL    HW169791   7.191   2.656   5.172
89298SOL    HW269792   7.260   2.526   5.136
89299SOL     OW69793   3.668  10.775   4.778
89299SOL    HW169794   3.611  10.703   4.755
89299SOL    HW269795   3.614  10.834   4.830
89300SOL     OW69796  13.006  14.197   6.382
89300SOL    HW169797  13.043  14.203   6.294
89300SOL    HW269798  12.955  14.116   6.380
89301SOL     OW69799   5.442   9.957  11.409
89301SOL    HW169800   5.418  10.000  11.326
89301SOL    HW269801   5.361   9.957  11.460
89302SOL     OW69802   6.293  11.568   3.821
89302SOL    HW169803   6.301  11.473   3.826
89302SOL    HW269804   6.355  11.602   3.884
89303SOL     OW69805   8.015  12.859   5.793
89303SOL    HW169806   8.035  12.774   5.833
89303SOL    HW269807   8.084  12.917   5.826
89304SOL     OW69808  13.729  12.917  11.699
89304SOL    HW169809  13.756  12.930  11.609
89304SOL    HW269810  13.732  12.822  11.713
89305SOL     OW69811   0.064   9.626   6.895
89305SOL    HW169812   0.139   9.683   6.907
89305SOL    HW269813   0.101   9.538   6.887
89306SOL     OW69814  14.249   6.225  11.595
89306SOL    HW169815  14.213   6.176  11.669
89306SOL    HW269816  14.252   6.162  11.524
89307SOL     OW69817  11.790   3.106  14.407
89307SOL    HW169818  11.832   3.168  14.467
89307SOL    HW269819  11.858   3.084  14.343
89308SOL     OW69820   3.057   2.607   6.088
89308SOL    HW169821   2.982   2.665   6.071
89308SOL    HW269822   3.130   2.667   6.104
89309SOL     OW69823   8.532   4.777   0.858
89309SOL    HW169824   8.570   4.833   0.926
89309SOL    HW269825   8.519   4.836   0.784
89310SOL     OW69826   4.591   7.821   7.800
89310SOL    HW169827   4.649   7.750   7.828
89310SOL    HW269828   4.557   7.858   7.882
89311SOL     OW69829   5.543  10.352   7.270
89311SOL    HW169830   5.536  10.288   7.199
89311SOL    HW269831   5.543  10.437   7.225
89312SOL     OW69832   0.616  10.996   3.522
89312SOL    HW169833   0.707  11.012   3.547
89312SOL    HW269834   0.568  11.068   3.562
89313SOL     OW69835  11.243   3.172  13.996
89313SOL    HW169836  11.185   3.101  13.971
89313SOL    HW269837  11.188   3.231  14.048
89314SOL     OW69838   5.803   3.865   3.437
89314SOL    HW169839   5.794   3.907   3.522
89314SOL    HW269840   5.895   3.876   3.414
89315SOL     OW69841  12.017   9.875   9.254
89315SOL    HW169842  12.100   9.856   9.297
89315SOL    HW269843  12.041   9.889   9.162
89316SOL     OW69844   8.089  13.115   3.605
89316SOL    HW169845   8.073  13.189   3.547
89316SOL    HW269846   8.182  13.095   3.593
89317SOL     OW69847   4.923  13.461   7.965
89317SOL    HW169848   4.856  13.528   7.983
89317SOL    HW269849   4.886  13.380   8.000
89318SOL     OW69850  10.064   1.403   0.343
89318SOL    HW169851  10.068   1.312   0.315
89318SOL    HW269852  10.128   1.448   0.287
89319SOL     OW69853   3.294   0.159   0.176
89319SOL    HW169854   3.308   0.253   0.189
89319SOL    HW269855   3.199   0.148   0.175
89320SOL     OW69856   6.205   1.105   6.196
89320SOL    HW169857   6.172   1.036   6.255
89320SOL    HW269858   6.280   1.141   6.242
89321SOL     OW69859  13.130   6.238   8.777
89321SOL    HW169860  13.181   6.172   8.731
89321SOL    HW269861  13.189   6.271   8.845
89322SOL     OW69862   4.654  11.313   2.202
89322SOL    HW169863   4.746  11.318   2.226
89322SOL    HW269864   4.632  11.220   2.210
89323SOL     OW69865  12.388   0.695   6.862
89323SOL    HW169866  12.383   0.649   6.778
89323SOL    HW269867  12.300   0.685   6.900
89324SOL     OW69868   2.689   9.088   2.453
89324SOL    HW169869   2.766   9.043   2.489
89324SOL    HW269870   2.716   9.179   2.447
89325SOL     OW69871   1.761   0.350  11.164
89325SOL    HW169872   1.856   0.359  11.171
89325SOL    HW269873   1.727   0.431  11.202
89326SOL     OW69874  10.051   1.772   3.305
89326SOL    HW169875  10.136   1.748   3.268
89326SOL    HW269876   9.991   1.767   3.230
89327SOL     OW69877   7.827   2.934  14.057
89327SOL    HW169878   7.771   2.882  14.115
89327SOL    HW269879   7.769   3.001  14.021
89328SOL     OW69880   3.854  13.445  11.871
89328SOL    HW169881   3.824  13.535  11.857
89328SOL    HW269882   3.924  13.433  11.806
89329SOL     OW69883   5.384   8.126   7.895
89329SOL    HW169884   5.460   8.182   7.881
89329SOL    HW269885   5.335   8.169   7.965
89330SOL     OW69886   7.214  14.736   8.069
89330SOL    HW169887   7.172  14.738   8.155
89330SOL    HW269888   7.235  14.827   8.050
89331SOL     OW69889  14.128   3.439   4.517
89331SOL    HW169890  14.147   3.349   4.491
89331SOL    HW269891  14.049   3.433   4.570
89332SOL     OW69892   6.527   8.798  10.399
89332SOL    HW169893   6.487   8.835  10.478
89332SOL    HW269894   6.459   8.805  10.332
89333SOL     OW69895   4.589   2.538   7.148
89333SOL    HW169896   4.583   2.627   7.181
89333SOL    HW269897   4.561   2.483   7.222
89334SOL     OW69898   9.562  14.582   4.101
89334SOL    HW169899   9.605  14.655   4.056
89334SOL    HW269900   9.633  14.538   4.147
89335SOL     OW69901   8.379   0.820   8.973
89335SOL    HW169902   8.443   0.762   8.931
89335SOL    HW269903   8.424   0.904   8.980
89336SOL     OW69904   7.284   5.342   6.817
89336SOL    HW169905   7.194   5.376   6.824
89336SOL    HW269906   7.316   5.342   6.907
89337SOL     OW69907  11.284  11.180  11.119
89337SOL    HW169908  11.195  11.155  11.144
89337SOL    HW269909  11.335  11.100  11.127
89338SOL     OW69910   1.529  12.076  13.963
89338SOL    HW169911   1.526  12.119  13.878
89338SOL    HW269912   1.614  12.032  13.966
89339SOL     OW69913   0.389   4.574   6.116
89339SOL    HW169914   0.441   4.527   6.181
89339SOL    HW269915   0.440   4.568   6.035
89340SOL     OW69916   3.735   2.846   1.561
89340SOL    HW169917   3.706   2.820   1.648
89340SOL    HW269918   3.678   2.920   1.537
89341SOL     OW69919  10.560   2.142   7.772
89341SOL    HW169920  10.602   2.203   7.711
89341SOL    HW269921  10.598   2.057   7.750
89342SOL     OW69922  14.247   7.130   8.753
89342SOL    HW169923  14.156   7.128   8.781
89342SOL    HW269924  14.243   7.131   8.658
89343SOL     OW69925   5.063   6.005   7.200
89343SOL    HW169926   5.068   6.088   7.249
89343SOL    HW269927   4.970   5.983   7.201
89344SOL     OW69928   1.899   5.910  14.317
89344SOL    HW169929   1.839   5.902  14.392
89344SOL    HW269930   1.856   5.971  14.258
89345SOL     OW69931   6.358  10.581   1.266
89345SOL    HW169932   6.334  10.500   1.311
89345SOL    HW269933   6.452  10.573   1.250
89346SOL     OW69934  12.060   8.369   7.755
89346SOL    HW169935  11.989   8.318   7.792
89346SOL    HW269936  12.134   8.308   7.750
89347SOL     OW69937   6.547   4.883   0.494
89347SOL    HW169938   6.547   4.902   0.588
89347SOL    HW269939   6.551   4.969   0.452
89348SOL     OW69940   6.905   8.556   5.442
89348SOL    HW169941   6.872   8.475   5.404
89348SOL    HW269942   6.827   8.602   5.472
89349SOL     OW69943   6.379   2.567   5.874
89349SOL    HW169944   6.285   2.565   5.890
89349SOL    HW269945   6.397   2.485   5.828
89350SOL     OW69946   3.817   5.349   4.030
89350SOL    HW169947   3.803   5.301   4.112
89350SOL    HW269948   3.763   5.428   4.039
89351SOL     OW69949  12.263   2.895  13.951
89351SOL    HW169950  12.230   2.974  13.908
89351SOL    HW269951  12.227   2.823  13.900
89352SOL     OW69952   1.338   2.277  11.283
89352SOL    HW169953   1.257   2.315  11.251
89352SOL    HW269954   1.328   2.183  11.269
89353SOL     OW69955   8.030  11.806  11.131
89353SOL    HW169956   7.977  11.843  11.060
89353SOL    HW269957   8.044  11.880  11.191
89354SOL     OW69958   7.300   1.076   7.139
89354SOL    HW169959   7.341   1.089   7.054
89354SOL    HW269960   7.345   1.000   7.176
89355SOL     OW69961  13.267   0.139  14.452
89355SOL    HW169962  13.236   0.225  14.426
89355SOL    HW269963  13.239   0.081  14.381
89356SOL     OW69964  11.284   3.595  13.332
89356SOL    HW169965  11.356   3.550  13.377
89356SOL    HW269966  11.309   3.595  13.240
89357SOL     OW69967  10.622  14.822   0.044
89357SOL    HW169968  10.529  14.811   0.063
89357SOL    HW269969  10.651   0.021   0.104
89358SOL     OW69970  12.847   6.926  11.914
89358SOL    HW169971  12.769   6.910  11.862
89358SOL    HW269972  12.912   6.959  11.852
89359SOL     OW69973  11.442   9.604  11.025
89359SOL    HW169974  11.445   9.549  10.947
89359SOL    HW269975  11.390   9.555  11.088
89360SOL     OW69976   1.687   2.313   2.887
89360SOL    HW169977   1.630   2.389   2.877
89360SOL    HW269978   1.628   2.239   2.895
89361SOL     OW69979  12.728  13.668   3.441
89361SOL    HW169980  12.636  13.695   3.432
89361SOL    HW269981  12.771  13.704   3.363
89362SOL     OW69982   3.992   4.447   6.430
89362SOL    HW169983   3.933   4.423   6.359
89362SOL    HW269984   4.080   4.432   6.395
89363SOL     OW69985   0.469   8.616  14.010
89363SOL    HW169986   0.462   8.699  13.962
89363SOL    HW269987   0.399   8.562  13.973
89364SOL     OW69988  13.436  14.494  11.103
89364SOL    HW169989  13.407  14.566  11.047
89364SOL    HW269990  13.388  14.418  11.071
89365SOL     OW69991   5.831  13.572   8.204
89365SOL    HW169992   5.754  13.628   8.203
89365SOL    HW269993   5.852  13.557   8.112
89366SOL     OW69994   7.203  14.682   6.394
89366SOL    HW169995   7.122  14.727   6.374
89366SOL    HW269996   7.266  14.751   6.413
89367SOL     OW69997  10.128  14.491   4.048
89367SOL    HW169998  10.036  14.482   4.071
89367SOL    HW269999  10.158  14.568   4.097
89368SOL     OW70000   8.707  11.220  12.010
89368SOL    HW170001   8.788  11.173  12.031
89368SOL    HW270002   8.642  11.184  12.070
89369SOL     OW70003   6.145   0.005   8.448
89369SOL    HW170004   6.222   0.042   8.404
89369SOL    HW270005   6.080  14.864   8.379
89370SOL     OW70006   7.930   2.822   1.350
89370SOL    HW170007   7.986   2.765   1.403
89370SOL    HW270008   7.983   2.842   1.273
89371SOL     OW70009   5.048   5.411   7.179
89371SOL    HW170010   5.052   5.412   7.275
89371SOL    HW270011   4.984   5.478   7.157
89372SOL     OW70012  10.592   4.380   5.676
89372SOL    HW170013  10.588   4.301   5.730
89372SOL    HW270014  10.594   4.348   5.586
89373SOL     OW70015   4.850   8.270   3.342
89373SOL    HW170016   4.919   8.285   3.277
89373SOL    HW270017   4.806   8.354   3.350
89374SOL     OW70018   9.767  12.296  10.017
89374SOL    HW170019   9.718  12.245   9.954
89374SOL    HW270020   9.741  12.260  10.102
89375SOL     OW70021   8.282   1.766   9.492
89375SOL    HW170022   8.241   1.684   9.519
89375SOL    HW270023   8.210   1.817   9.454
89376SOL     OW70024  10.306  12.262   2.046
89376SOL    HW170025  10.342  12.344   2.013
89376SOL    HW270026  10.346  12.251   2.133
89377SOL     OW70027   2.658   1.685   5.778
89377SOL    HW170028   2.731   1.729   5.736
89377SOL    HW270029   2.680   1.686   5.871
89378SOL     OW70030   5.861   8.504   9.419
89378SOL    HW170031   5.924   8.458   9.365
89378SOL    HW270032   5.908   8.581   9.451
89379SOL     OW70033   5.618  13.781   9.263
89379SOL    HW170034   5.524  13.798   9.261
89379SOL    HW270035   5.653  13.845   9.325
89380SOL     OW70036  11.000   5.015  11.754
89380SOL    HW170037  10.967   4.989  11.840
89380SOL    HW270038  11.059   5.088  11.773
89381SOL     OW70039   9.463   5.014   5.568
89381SOL    HW170040   9.442   4.959   5.493
89381SOL    HW270041   9.496   5.096   5.531
89382SOL     OW70042  10.720   9.438   4.088
89382SOL    HW170043  10.792   9.502   4.094
89382SOL    HW270044  10.758   9.364   4.042
89383SOL     OW70045   5.685   4.637   7.915
89383SOL    HW170046   5.680   4.583   7.993
89383SOL    HW270047   5.690   4.574   7.843
89384SOL     OW70048  14.731  13.180   4.608
89384SOL    HW170049  14.668  13.133   4.663
89384SOL    HW270050  14.775  13.240   4.668
89385SOL     OW70051   3.465  11.674   2.042
89385SOL    HW170052   3.380  11.658   2.000
89385SOL    HW270053   3.480  11.768   2.030
89386SOL     OW70054   0.367  11.818  12.842
89386SOL    HW170055   0.411  11.846  12.922
89386SOL    HW270056   0.398  11.728  12.828
89387SOL     OW70057  12.511   7.926   8.815
89387SOL    HW170058  12.529   7.995   8.879
89387SOL    HW270059  12.499   7.972   8.732
89388SOL     OW70060   5.286   0.025   7.747
89388SOL    HW170061   5.198   0.063   7.739
89388SOL    HW270062   5.294  14.837   7.671
89389SOL     OW70063  11.711   8.926  12.055
89389SOL    HW170064  11.639   8.892  12.002
89389SOL    HW270065  11.682   8.915  12.145
89390SOL     OW70066   1.542   2.657  10.990
89390SOL    HW170067   1.499   2.577  11.018
89390SOL    HW270068   1.510   2.724  11.050
89391SOL     OW70069  12.888   2.812  11.919
89391SOL    HW170070  12.899   2.851  11.832
89391SOL    HW270071  12.900   2.718  11.905
89392SOL     OW70072   0.747  10.932   8.827
89392SOL    HW170073   0.810  10.864   8.804
89392SOL    HW270074   0.702  10.953   8.746
89393SOL     OW70075   8.317   3.463  11.841
89393SOL    HW170076   8.308   3.556  11.861
89393SOL    HW270077   8.287   3.455  11.750
89394SOL     OW70078   6.334   7.475   1.880
89394SOL    HW170079   6.390   7.472   1.957
89394SOL    HW270080   6.248   7.448   1.912
89395SOL     OW70081   0.852   5.326   4.706
89395SOL    HW170082   0.888   5.411   4.732
89395SOL    HW270083   0.917   5.263   4.734
89396SOL     OW70084   7.925  11.801   4.159
89396SOL    HW170085   7.928  11.815   4.064
89396SOL    HW270086   7.941  11.708   4.170
89397SOL     OW70087   6.934  10.556   7.039
89397SOL    HW170088   6.965  10.520   7.123
89397SOL    HW270089   6.850  10.514   7.024
89398SOL     OW70090   6.155   0.741   7.464
89398SOL    HW170091   6.178   0.716   7.554
89398SOL    HW270092   6.190   0.671   7.410
89399SOL     OW70093   5.734   3.916  11.014
89399SOL    HW170094   5.738   3.886  11.105
89399SOL    HW270095   5.825   3.916  10.985
89400SOL     OW70096   6.189  11.302   3.708
89400SOL    HW170097   6.169  11.297   3.802
89400SOL    HW270098   6.122  11.360   3.673
89401SOL     OW70099   1.777   7.083  13.608
89401SOL    HW170100   1.758   7.159  13.662
89401SOL    HW270101   1.795   7.012  13.670
89402SOL     OW70102   4.058   2.670  13.122
89402SOL    HW170103   4.028   2.676  13.031
89402SOL    HW270104   4.039   2.580  13.147
89403SOL     OW70105   2.602   4.868  14.041
89403SOL    HW170106   2.688   4.862  14.083
89403SOL    HW270107   2.555   4.935  14.091
89404SOL     OW70108   3.860   7.559   9.885
89404SOL    HW170109   3.930   7.586   9.825
89404SOL    HW270110   3.906   7.509   9.954
89405SOL     OW70111   0.374   9.026  13.807
89405SOL    HW170112   0.462   8.998  13.834
89405SOL    HW270113   0.329   8.945  13.784
89406SOL     OW70114   0.138   6.265   8.691
89406SOL    HW170115   0.076   6.238   8.759
89406SOL    HW270116   0.085   6.317   8.631
89407SOL     OW70117   3.476  12.966   9.044
89407SOL    HW170118   3.435  12.987   8.960
89407SOL    HW270119   3.402  12.957   9.105
89408SOL     OW70120   7.874  13.551  12.772
89408SOL    HW170121   7.963  13.522  12.757
89408SOL    HW270122   7.820  13.472  12.758
89409SOL     OW70123   0.755  13.792   4.098
89409SOL    HW170124   0.780  13.710   4.055
89409SOL    HW270125   0.832  13.849   4.088
89410SOL     OW70126   1.063   7.993  10.838
89410SOL    HW170127   0.986   7.936  10.834
89410SOL    HW270128   1.110   7.974  10.757
89411SOL     OW70129  12.358   4.882  10.016
89411SOL    HW170130  12.427   4.939  10.048
89411SOL    HW270131  12.397   4.794  10.014
89412SOL     OW70132   1.253  10.340  12.137
89412SOL    HW170133   1.221  10.312  12.223
89412SOL    HW270134   1.258  10.435  12.142
89413SOL     OW70135   1.674   9.923   3.800
89413SOL    HW170136   1.602   9.870   3.835
89413SOL    HW270137   1.694   9.986   3.869
89414SOL     OW70138   5.393   5.926  10.918
89414SOL    HW170139   5.488   5.922  10.919
89414SOL    HW270140   5.372   6.013  10.954
89415SOL     OW70141   3.289   5.403   3.236
89415SOL    HW170142   3.196   5.384   3.252
89415SOL    HW270143   3.289   5.455   3.156
89416SOL     OW70144   2.260   5.839   6.864
89416SOL    HW170145   2.178   5.873   6.899
89416SOL    HW270146   2.274   5.889   6.783
89417SOL     OW70147  11.729   5.592   9.769
89417SOL    HW170148  11.772   5.542   9.700
89417SOL    HW270149  11.696   5.526   9.830
89418SOL     OW70150   0.022  12.061   8.214
89418SOL    HW170151   0.007  12.045   8.308
89418SOL    HW270152   0.088  11.995   8.189
89419SOL     OW70153   9.378   7.665  14.494
89419SOL    HW170154   9.360   7.608  14.419
89419SOL    HW270155   9.342   7.750  14.468
89420SOL     OW70156   6.514   1.378   4.008
89420SOL    HW170157   6.577   1.355   3.939
89420SOL    HW270158   6.446   1.427   3.963
89421SOL     OW70159   8.264   8.717  13.225
89421SOL    HW170160   8.275   8.667  13.144
89421SOL    HW270161   8.311   8.666  13.291
89422SOL     OW70162  10.488   1.390  11.312
89422SOL    HW170163  10.434   1.468  11.305
89422SOL    HW270164  10.497   1.375  11.406
89423SOL     OW70165  10.532   1.496   0.321
89423SOL    HW170166  10.503   1.413   0.283
89423SOL    HW270167  10.533   1.481   0.415
89424SOL     OW70168  13.753   9.178   5.872
89424SOL    HW170169  13.819   9.140   5.814
89424SOL    HW270170  13.731   9.262   5.832
89425SOL     OW70171  10.359   6.548  14.370
89425SOL    HW170172  10.432   6.511  14.321
89425SOL    HW270173  10.392   6.556  14.460
89426SOL     OW70174   8.022  13.843   1.593
89426SOL    HW170175   7.971  13.794   1.528
89426SOL    HW270176   8.063  13.776   1.648
89427SOL     OW70177   4.912   9.291   3.366
89427SOL    HW170178   4.911   9.284   3.271
89427SOL    HW270179   4.909   9.385   3.384
89428SOL     OW70180   1.193   5.338   0.294
89428SOL    HW170181   1.151   5.258   0.261
89428SOL    HW270182   1.188   5.399   0.220
89429SOL     OW70183   4.405   5.441   9.394
89429SOL    HW170184   4.394   5.346   9.397
89429SOL    HW270185   4.428   5.460   9.303
89430SOL     OW70186  11.824   5.057   4.426
89430SOL    HW170187  11.891   5.006   4.470
89430SOL    HW270188  11.764   4.992   4.390
89431SOL     OW70189   8.625   6.536  14.283
89431SOL    HW170190   8.647   6.597  14.212
89431SOL    HW270191   8.706   6.488  14.299
89432SOL     OW70192  12.341   4.786   3.651
89432SOL    HW170193  12.393   4.862   3.627
89432SOL    HW270194  12.250   4.814   3.637
89433SOL     OW70195  11.360   9.363   0.197
89433SOL    HW170196  11.417   9.329   0.267
89433SOL    HW270197  11.418   9.416   0.143
89434SOL     OW70198   3.498   6.487   6.002
89434SOL    HW170199   3.414   6.507   6.043
89434SOL    HW270200   3.556   6.467   6.076
89435SOL     OW70201   8.562   7.151   8.351
89435SOL    HW170202   8.510   7.160   8.431
89435SOL    HW270203   8.572   7.056   8.340
89436SOL     OW70204   5.194   5.726  11.656
89436SOL    HW170205   5.246   5.686  11.587
89436SOL    HW270206   5.248   5.717  11.735
89437SOL     OW70207  13.356   8.979  11.079
89437SOL    HW170208  13.269   8.950  11.107
89437SOL    HW270209  13.417   8.925  11.130
89438SOL     OW70210   6.275  14.666  14.131
89438SOL    HW170211   6.201  14.684  14.073
89438SOL    HW270212   6.307  14.580  14.104
89439SOL     OW70213   9.013  12.249   7.009
89439SOL    HW170214   9.058  12.186   7.065
89439SOL    HW270215   8.942  12.284   7.063
89440SOL     OW70216   6.628   1.426   2.340
89440SOL    HW170217   6.663   1.419   2.429
89440SOL    HW270218   6.534   1.443   2.353
89441SOL     OW70219  13.170  11.469   7.220
89441SOL    HW170220  13.081  11.502   7.210
89441SOL    HW270221  13.225  11.547   7.225
89442SOL     OW70222   5.521   8.323   7.554
89442SOL    HW170223   5.545   8.267   7.629
89442SOL    HW270224   5.528   8.266   7.478
89443SOL     OW70225   3.940   5.813  11.609
89443SOL    HW170226   3.895   5.781  11.531
89443SOL    HW270227   3.876   5.868  11.653
89444SOL     OW70228   0.732   5.740   3.528
89444SOL    HW170229   0.637   5.737   3.543
89444SOL    HW270230   0.741   5.752   3.434
89445SOL     OW70231   9.941   8.905  11.704
89445SOL    HW170232   9.865   8.943  11.660
89445SOL    HW270233   9.983   8.979  11.748
89446SOL     OW70234   5.111  11.051  10.985
89446SOL    HW170235   5.020  11.066  10.962
89446SOL    HW270236   5.113  10.960  11.017
89447SOL     OW70237  11.016   6.575   4.093
89447SOL    HW170238  11.022   6.613   4.005
89447SOL    HW270239  10.980   6.488   4.079
89448SOL     OW70240   1.956   0.719   0.258
89448SOL    HW170241   1.920   0.671   0.333
89448SOL    HW270242   1.929   0.810   0.273
89449SOL     OW70243   6.016  13.671  14.853
89449SOL    HW170244   6.060  13.589  14.831
89449SOL    HW270245   6.017  13.674   0.079
89450SOL     OW70246   3.748   3.188   3.636
89450SOL    HW170247   3.801   3.262   3.666
89450SOL    HW270248   3.724   3.210   3.546
89451SOL     OW70249   7.539  10.057   0.001
89451SOL    HW170250   7.566  10.146   0.023
89451SOL    HW270251   7.447  10.065  14.846
89452SOL     OW70252   2.775   9.465   7.454
89452SOL    HW170253   2.736   9.499   7.535
89452SOL    HW270254   2.819   9.385   7.481
89453SOL     OW70255   6.665   8.177  10.132
89453SOL    HW170256   6.693   8.206  10.045
89453SOL    HW270257   6.711   8.094  10.146
89454SOL     OW70258   8.686   2.035   8.000
89454SOL    HW170259   8.730   1.950   8.002
89454SOL    HW270260   8.757   2.098   7.989
89455SOL     OW70261   1.438   6.163   2.601
89455SOL    HW170262   1.348   6.135   2.585
89455SOL    HW270263   1.487   6.082   2.616
89456SOL     OW70264   8.959   4.259   9.297
89456SOL    HW170265   8.923   4.245   9.210
89456SOL    HW270266   8.883   4.274   9.352
89457SOL     OW70267   4.398   6.708   0.673
89457SOL    HW170268   4.320   6.727   0.621
89457SOL    HW270269   4.364   6.663   0.751
89458SOL     OW70270  12.147  12.689   9.485
89458SOL    HW170271  12.061  12.682   9.527
89458SOL    HW270272  12.144  12.625   9.414
89459SOL     OW70273   1.054  12.832   2.299
89459SOL    HW170274   1.129  12.843   2.356
89459SOL    HW270275   1.003  12.762   2.339
89460SOL     OW70276  13.446   2.573   0.579
89460SOL    HW170277  13.474   2.641   0.517
89460SOL    HW270278  13.423   2.498   0.524
89461SOL     OW70279  14.565   8.095  11.747
89461SOL    HW170280  14.527   8.162  11.690
89461SOL    HW270281  14.651   8.078  11.710
89462SOL     OW70282   4.223  11.518  12.209
89462SOL    HW170283   4.287  11.446  12.206
89462SOL    HW270284   4.174  11.510  12.127
89463SOL     OW70285   3.008   2.506   9.511
89463SOL    HW170286   3.022   2.440   9.579
89463SOL    HW270287   2.914   2.520   9.510
89464SOL     OW70288  11.730   1.614   4.207
89464SOL    HW170289  11.774   1.530   4.193
89464SOL    HW270290  11.656   1.594   4.264
89465SOL     OW70291   2.610   4.210   8.327
89465SOL    HW170292   2.520   4.224   8.298
89465SOL    HW270293   2.601   4.177   8.417
89466SOL     OW70294  13.896  10.665   5.239
89466SOL    HW170295  13.869  10.687   5.149
89466SOL    HW270296  13.990  10.684   5.241
89467SOL     OW70297  13.055   8.475   9.310
89467SOL    HW170298  13.039   8.452   9.218
89467SOL    HW270299  13.076   8.391   9.351
89468SOL     OW70300   5.073   3.571   2.632
89468SOL    HW170301   5.119   3.488   2.640
89468SOL    HW270302   5.091   3.617   2.714
89469SOL     OW70303   5.490   4.052   9.448
89469SOL    HW170304   5.529   3.967   9.430
89469SOL    HW270305   5.476   4.091   9.362
89470SOL     OW70306   4.047  14.376  12.178
89470SOL    HW170307   4.049  14.436  12.252
89470SOL    HW270308   4.126  14.322  12.190
89471SOL     OW70309   4.385   0.125   8.811
89471SOL    HW170310   4.363   0.215   8.786
89471SOL    HW270311   4.446   0.096   8.743
89472SOL     OW70312   7.479   5.374   5.053
89472SOL    HW170313   7.500   5.450   5.108
89472SOL    HW270314   7.557   5.319   5.058
89473SOL     OW70315   1.050  13.460   5.217
89473SOL    HW170316   0.987  13.389   5.232
89473SOL    HW270317   0.998  13.540   5.225
89474SOL     OW70318   5.195   4.832   9.598
89474SOL    HW170319   5.134   4.854   9.528
89474SOL    HW270320   5.281   4.848   9.561
89475SOL     OW70321   9.121   2.735  10.917
89475SOL    HW170322   9.127   2.778  10.831
89475SOL    HW270323   9.178   2.787  10.973
89476SOL     OW70324   9.261   7.024   0.582
89476SOL    HW170325   9.222   7.105   0.613
89476SOL    HW270326   9.254   6.964   0.657
89477SOL     OW70327   5.712   0.025   1.316
89477SOL    HW170328   5.668  14.810   1.330
89477SOL    HW270329   5.654   0.073   1.257
89478SOL     OW70330  13.514  13.057   8.375
89478SOL    HW170331  13.574  13.122   8.410
89478SOL    HW270332  13.569  12.997   8.325
89479SOL     OW70333   5.104   9.947   6.357
89479SOL    HW170334   5.088   9.970   6.449
89479SOL    HW270335   5.199   9.955   6.347
89480SOL     OW70336   6.890   5.358   7.633
89480SOL    HW170337   6.952   5.403   7.577
89480SOL    HW270338   6.930   5.359   7.720
89481SOL     OW70339  11.421   4.459   9.965
89481SOL    HW170340  11.436   4.553   9.978
89481SOL    HW270341  11.373   4.453   9.883
89482SOL     OW70342  12.719   1.965   7.439
89482SOL    HW170343  12.688   1.886   7.395
89482SOL    HW270344  12.639   2.011   7.463
89483SOL     OW70345   8.940  12.555   7.330
89483SOL    HW170346   8.880  12.488   7.362
89483SOL    HW270347   8.912  12.636   7.373
89484SOL     OW70348   1.168  14.275  11.702
89484SOL    HW170349   1.215  14.358  11.695
89484SOL    HW270350   1.163  14.259  11.796
89485SOL     OW70351   1.093  10.716   2.225
89485SOL    HW170352   1.120  10.689   2.312
89485SOL    HW270353   1.036  10.645   2.195
89486SOL     OW70354  13.975   9.247  13.866
89486SOL    HW170355  14.012   9.198  13.793
89486SOL    HW270356  13.883   9.259  13.843
89487SOL     OW70357  10.235   9.188   0.914
89487SOL    HW170358  10.185   9.207   0.834
89487SOL    HW270359  10.241   9.093   0.916
89488SOL     OW70360  10.570   6.446   4.880
89488SOL    HW170361  10.528   6.489   4.806
89488SOL    HW270362  10.518   6.472   4.956
89489SOL     OW70363   2.859   6.347   8.364
89489SOL    HW170364   2.843   6.441   8.354
89489SOL    HW270365   2.941   6.331   8.318
89490SOL     OW70366   3.241  13.932   7.884
89490SOL    HW170367   3.270  13.930   7.793
89490SOL    HW270368   3.216  14.023   7.899
89491SOL     OW70369   1.735   3.838   3.224
89491SOL    HW170370   1.647   3.816   3.255
89491SOL    HW270371   1.721   3.901   3.153
89492SOL     OW70372   6.387  14.044  10.983
89492SOL    HW170373   6.381  13.960  10.939
89492SOL    HW270374   6.397  14.022  11.076
89493SOL     OW70375  12.073   1.260  14.225
89493SOL    HW170376  12.102   1.175  14.193
89493SOL    HW270377  11.981   1.266  14.197
89494SOL     OW70378   6.971   7.308  11.723
89494SOL    HW170379   6.938   7.313  11.813
89494SOL    HW270380   6.934   7.226  11.689
89495SOL     OW70381  11.352   6.341  10.705
89495SOL    HW170382  11.408   6.273  10.743
89495SOL    HW270383  11.266   6.300  10.697
89496SOL     OW70384   1.684   8.678   1.408
89496SOL    HW170385   1.714   8.684   1.317
89496SOL    HW270386   1.667   8.584   1.421
89497SOL     OW70387   6.405   7.466  14.690
89497SOL    HW170388   6.322   7.445  14.733
89497SOL    HW270389   6.442   7.536  14.743
89498SOL     OW70390   6.278   4.483  13.238
89498SOL    HW170391   6.271   4.568  13.194
89498SOL    HW270392   6.199   4.436  13.211
89499SOL     OW70393   9.936   8.829   9.613
89499SOL    HW170394   9.979   8.746   9.594
89499SOL    HW270395   9.842   8.811   9.603
89500SOL     OW70396  11.336  11.804   5.578
89500SOL    HW170397  11.399  11.864   5.538
89500SOL    HW270398  11.282  11.774   5.504
89501SOL     OW70399   5.700  12.924  10.474
89501SOL    HW170400   5.776  12.957  10.522
89501SOL    HW270401   5.712  12.957  10.385
89502SOL     OW70402   4.846   2.910   9.997
89502SOL    HW170403   4.889   2.868   9.923
89502SOL    HW270404   4.898   2.884  10.073
89503SOL     OW70405  10.970   8.651   7.791
89503SOL    HW170406  10.979   8.590   7.864
89503SOL    HW270407  10.969   8.738   7.831
89504SOL     OW70408  12.572   9.785   2.447
89504SOL    HW170409  12.650   9.841   2.457
89504SOL    HW270410  12.588   9.712   2.507
89505SOL     OW70411   6.649   0.801   2.144
89505SOL    HW170412   6.705   0.878   2.150
89505SOL    HW270413   6.709   0.727   2.151
89506SOL     OW70414   1.531   3.576   2.120
89506SOL    HW170415   1.615   3.609   2.088
89506SOL    HW270416   1.523   3.614   2.207
89507SOL     OW70417   2.351   6.925   8.802
89507SOL    HW170418   2.430   6.978   8.806
89507SOL    HW270419   2.293   6.964   8.868
89508SOL     OW70420   0.931  11.111   8.494
89508SOL    HW170421   0.929  11.177   8.425
89508SOL    HW270422   0.853  11.058   8.479
89509SOL     OW70423  10.105   9.010   7.691
89509SOL    HW170424  10.184   8.971   7.728
89509SOL    HW270425  10.046   8.936   7.677
89510SOL     OW70426  13.588   3.288   9.478
89510SOL    HW170427  13.658   3.305   9.416
89510SOL    HW270428  13.614   3.208   9.523
89511SOL     OW70429  10.565   3.784   8.646
89511SOL    HW170430  10.657   3.773   8.621
89511SOL    HW270431  10.551   3.879   8.642
89512SOL     OW70432   9.781  14.634   1.509
89512SOL    HW170433   9.873  14.630   1.485
89512SOL    HW270434   9.738  14.573   1.450
89513SOL     OW70435   3.135   4.054  10.830
89513SOL    HW170436   3.057   4.001  10.814
89513SOL    HW270437   3.207   3.991  10.829
89514SOL     OW70438   6.790   0.466   9.503
89514SOL    HW170439   6.737   0.387   9.516
89514SOL    HW270440   6.739   0.518   9.441
89515SOL     OW70441   0.657   0.709   7.999
89515SOL    HW170442   0.704   0.792   8.009
89515SOL    HW270443   0.664   0.667   8.084
89516SOL     OW70444  12.655   4.271   8.558
89516SOL    HW170445  12.691   4.254   8.645
89516SOL    HW270446  12.643   4.365   8.554
89517SOL     OW70447   3.045  11.798  11.953
89517SOL    HW170448   3.036  11.753  12.037
89517SOL    HW270449   3.042  11.728  11.888
89518SOL     OW70450   4.071   8.265   1.920
89518SOL    HW170451   3.989   8.254   1.873
89518SOL    HW270452   4.134   8.295   1.854
89519SOL     OW70453  10.249   8.303   7.759
89519SOL    HW170454  10.180   8.304   7.825
89519SOL    HW270455  10.326   8.337   7.803
89520SOL     OW70456  10.493   3.402   1.634
89520SOL    HW170457  10.431   3.476   1.634
89520SOL    HW270458  10.559   3.427   1.570
89521SOL     OW70459   5.184   1.387   0.124
89521SOL    HW170460   5.233   1.306   0.130
89521SOL    HW270461   5.174   1.416   0.215
89522SOL     OW70462   8.591   8.780   9.718
89522SOL    HW170463   8.576   8.826   9.635
89522SOL    HW270464   8.503   8.761   9.751
89523SOL     OW70465   2.952   7.191   4.911
89523SOL    HW170466   2.980   7.131   4.842
89523SOL    HW270467   3.028   7.200   4.968
89524SOL     OW70468   4.452   4.032   5.581
89524SOL    HW170469   4.513   4.104   5.595
89524SOL    HW270470   4.504   3.963   5.542
89525SOL     OW70471   1.051  10.840   8.234
89525SOL    HW170472   1.081  10.750   8.226
89525SOL    HW270473   1.121  10.884   8.283
89526SOL     OW70474   5.832   3.727   2.001
89526SOL    HW170475   5.767   3.711   1.933
89526SOL    HW270476   5.913   3.688   1.967
89527SOL     OW70477   6.656   9.687   6.500
89527SOL    HW170478   6.679   9.600   6.467
89527SOL    HW270479   6.561   9.688   6.502
89528SOL     OW70480   5.644  11.755  10.623
89528SOL    HW170481   5.663  11.722  10.535
89528SOL    HW270482   5.725  11.798  10.650
89529SOL     OW70483   9.952  13.475  14.638
89529SOL    HW170484   9.975  13.550  14.583
89529SOL    HW270485   9.982  13.499  14.726
89530SOL     OW70486  10.607   9.607   6.528
89530SOL    HW170487  10.525   9.564   6.503
89530SOL    HW270488  10.632   9.565   6.610
89531SOL     OW70489   0.832  13.421  12.215
89531SOL    HW170490   0.845  13.460  12.128
89531SOL    HW270491   0.836  13.496  12.275
89532SOL     OW70492   2.046  14.254   6.688
89532SOL    HW170493   2.127  14.297   6.662
89532SOL    HW270494   2.068  14.161   6.691
89533SOL     OW70495   9.297  10.472   0.791
89533SOL    HW170496   9.322  10.456   0.700
89533SOL    HW270497   9.348  10.408   0.841
89534SOL     OW70498   0.778   3.167   0.227
89534SOL    HW170499   0.810   3.226   0.159
89534SOL    HW270500   0.850   3.106   0.242
89535SOL     OW70501  13.079   2.214  10.639
89535SOL    HW170502  13.073   2.285  10.703
89535SOL    HW270503  13.129   2.146  10.684
89536SOL     OW70504   3.479   2.100   4.977
89536SOL    HW170505   3.564   2.134   5.003
89536SOL    HW270506   3.483   2.095   4.881
89537SOL     OW70507   3.464   6.263  12.555
89537SOL    HW170508   3.377   6.223  12.550
89537SOL    HW270509   3.471   6.314  12.474
89538SOL     OW70510   4.070   4.166  10.410
89538SOL    HW170511   3.998   4.214  10.451
89538SOL    HW270512   4.147   4.222  10.421
89539SOL     OW70513   8.148   6.522  13.216
89539SOL    HW170514   8.180   6.431  13.220
89539SOL    HW270515   8.060   6.518  13.252
89540SOL     OW70516  12.240  11.031  11.575
89540SOL    HW170517  12.242  10.967  11.504
89540SOL    HW270518  12.298  10.995  11.641
89541SOL     OW70519   6.758   7.069   9.001
89541SOL    HW170520   6.665   7.087   9.013
89541SOL    HW270521   6.788   7.038   9.087
89542SOL     OW70522   4.777   6.470  14.750
89542SOL    HW170523   4.823   6.553  14.733
89542SOL    HW270524   4.790   6.419  14.670
89543SOL     OW70525  13.776   6.795  13.365
89543SOL    HW170526  13.780   6.840  13.449
89543SOL    HW270527  13.687   6.760  13.359
89544SOL     OW70528   9.312   3.112   1.260
89544SOL    HW170529   9.243   3.081   1.318
89544SOL    HW270530   9.327   3.203   1.286
89545SOL     OW70531  12.348   9.062   4.253
89545SOL    HW170532  12.278   9.002   4.278
89545SOL    HW270533  12.315   9.107   4.176
89546SOL     OW70534   3.830  12.432   1.734
89546SOL    HW170535   3.828  12.338   1.721
89546SOL    HW270536   3.757  12.465   1.683
89547SOL     OW70537  14.183   9.879   2.843
89547SOL    HW170538  14.195   9.823   2.766
89547SOL    HW270539  14.153   9.818   2.911
89548SOL     OW70540   9.224  13.948   9.892
89548SOL    HW170541   9.220  14.027   9.839
89548SOL    HW270542   9.297  13.964   9.953
89549SOL     OW70543  13.690   4.946  13.196
89549SOL    HW170544  13.642   5.014  13.150
89549SOL    HW270545  13.692   4.977  13.287
89550SOL     OW70546   7.117  14.017   8.208
89550SOL    HW170547   7.184  14.079   8.237
89550SOL    HW270548   7.085  13.977   8.288
89551SOL     OW70549   9.903   5.193   5.033
89551SOL    HW170550   9.814   5.189   5.068
89551SOL    HW270551   9.892   5.223   4.943
89552SOL     OW70552  13.338   5.702   8.929
89552SOL    HW170553  13.266   5.678   8.869
89552SOL    HW270554  13.328   5.643   9.003
89553SOL     OW70555  13.171   9.183   6.845
89553SOL    HW170556  13.164   9.209   6.753
89553SOL    HW270557  13.210   9.258   6.888
89554SOL     OW70558   7.062   9.216   7.679
89554SOL    HW170559   7.071   9.122   7.668
89554SOL    HW270560   7.135   9.240   7.737
89555SOL     OW70561   9.440   9.151  13.883
89555SOL    HW170562   9.506   9.191  13.826
89555SOL    HW270563   9.362   9.206  13.871
89556SOL     OW70564   6.905   4.735  11.693
89556SOL    HW170565   6.982   4.694  11.653
89556SOL    HW270566   6.897   4.692  11.778
89557SOL     OW70567   2.569   3.798   9.606
89557SOL    HW170568   2.508   3.725   9.593
89557SOL    HW270569   2.607   3.782   9.693
89558SOL     OW70570   5.698   2.625  10.969
89558SOL    HW170571   5.678   2.714  10.998
89558SOL    HW270572   5.787   2.608  11.001
89559SOL     OW70573  10.014  10.604   3.374
89559SOL    HW170574  10.015  10.688   3.419
89559SOL    HW270575  10.062  10.545   3.432
89560SOL     OW70576  13.332  13.611   1.081
89560SOL    HW170577  13.346  13.674   1.010
89560SOL    HW270578  13.343  13.526   1.039
89561SOL     OW70579   1.323   7.776   0.960
89561SOL    HW170580   1.408   7.734   0.977
89561SOL    HW270581   1.310   7.833   1.036
89562SOL     OW70582   8.565   8.741   9.222
89562SOL    HW170583   8.531   8.767   9.137
89562SOL    HW270584   8.525   8.803   9.284
89563SOL     OW70585   2.470  10.744  10.410
89563SOL    HW170586   2.501  10.653  10.408
89563SOL    HW270587   2.456  10.767  10.318
89564SOL     OW70588   6.469  12.942   3.695
89564SOL    HW170589   6.432  13.026   3.671
89564SOL    HW270590   6.400  12.878   3.679
89565SOL     OW70591  14.279   9.377  13.450
89565SOL    HW170592  14.319   9.392  13.536
89565SOL    HW270593  14.353   9.366  13.391
89566SOL     OW70594  13.002   3.841   8.052
89566SOL    HW170595  13.001   3.784   8.129
89566SOL    HW270596  13.036   3.925   8.084
89567SOL     OW70597   3.513   2.360  11.168
89567SOL    HW170598   3.580   2.428  11.161
89567SOL    HW270599   3.440   2.402  11.213
89568SOL     OW70600  13.536   0.241   4.491
89568SOL    HW170601  13.496   0.165   4.535
89568SOL    HW270602  13.476   0.262   4.420
89569SOL     OW70603   3.486   2.186  14.722
89569SOL    HW170604   3.465   2.215  14.811
89569SOL    HW270605   3.512   2.094  14.732
89570SOL     OW70606   1.754   4.634   6.713
89570SOL    HW170607   1.819   4.592   6.657
89570SOL    HW270608   1.779   4.610   6.802
89571SOL     OW70609   2.516   7.990  13.929
89571SOL    HW170610   2.583   7.946  13.878
89571SOL    HW270611   2.435   7.942  13.910
89572SOL     OW70612   3.467   6.671   7.855
89572SOL    HW170613   3.558   6.670   7.882
89572SOL    HW270614   3.469   6.645   7.763
89573SOL     OW70615   7.884   3.267   4.335
89573SOL    HW170616   7.847   3.341   4.287
89573SOL    HW270617   7.922   3.305   4.414
89574SOL     OW70618   9.444   7.143   5.289
89574SOL    HW170619   9.460   7.071   5.350
89574SOL    HW270620   9.479   7.221   5.332
89575SOL     OW70621   2.903   0.841   9.830
89575SOL    HW170622   2.914   0.871   9.920
89575SOL    HW270623   2.811   0.817   9.823
89576SOL     OW70624  11.981  10.754   6.411
89576SOL    HW170625  11.955  10.782   6.498
89576SOL    HW270626  11.910  10.696   6.382
89577SOL     OW70627   9.859  11.765   1.187
89577SOL    HW170628   9.912  11.815   1.249
89577SOL    HW270629   9.817  11.697   1.241
89578SOL     OW70630  11.324   3.694   7.612
89578SOL    HW170631  11.314   3.600   7.598
89578SOL    HW270632  11.283   3.710   7.698
89579SOL     OW70633   3.239   4.194   2.537
89579SOL    HW170634   3.214   4.227   2.624
89579SOL    HW270635   3.254   4.273   2.485
89580SOL     OW70636   4.581  13.584  10.156
89580SOL    HW170637   4.657  13.629  10.193
89580SOL    HW270638   4.528  13.654  10.117
89581SOL     OW70639   7.515  14.649   5.469
89581SOL    HW170640   7.498  14.555   5.457
89581SOL    HW270641   7.579  14.652   5.540
89582SOL     OW70642  13.888   3.268   4.138
89582SOL    HW170643  13.849   3.284   4.223
89582SOL    HW270644  13.883   3.352   4.092
89583SOL     OW70645   2.445  13.526  11.874
89583SOL    HW170646   2.494  13.452  11.839
89583SOL    HW270647   2.480  13.538  11.962
89584SOL     OW70648   5.268   7.911   1.308
89584SOL    HW170649   5.214   7.974   1.261
89584SOL    HW270650   5.314   7.964   1.374
89585SOL     OW70651   4.673  13.556   8.027
89585SOL    HW170652   4.648  13.621   8.092
89585SOL    HW270653   4.632  13.475   8.057
89586SOL     OW70654   5.047   4.459  13.160
89586SOL    HW170655   5.085   4.371  13.166
89586SOL    HW270656   4.991   4.466  13.237
89587SOL     OW70657  10.298   4.589  13.816
89587SOL    HW170658  10.314   4.515  13.757
89587SOL    HW270659  10.222   4.634  13.779
89588SOL     OW70660  11.009  12.959  11.003
89588SOL    HW170661  10.938  12.995  11.054
89588SOL    HW270662  11.007  13.007  10.920
89589SOL     OW70663   0.460  10.893   7.389
89589SOL    HW170664   0.548  10.883   7.425
89589SOL    HW270665   0.471  10.886   7.295
89590SOL     OW70666   5.967   8.659   6.614
89590SOL    HW170667   6.033   8.728   6.617
89590SOL    HW270668   5.908   8.685   6.543
89591SOL     OW70669  14.852  12.443  10.972
89591SOL    HW170670   0.023  12.358  10.957
89591SOL    HW270671   0.010  12.497  10.898
89592SOL     OW70672  11.466  14.792   0.765
89592SOL    HW170673  11.470  14.706   0.723
89592SOL    HW270674  11.397  14.838   0.718
89593SOL     OW70675   2.212   6.224   7.431
89593SOL    HW170676   2.151   6.275   7.485
89593SOL    HW270677   2.265   6.176   7.494
89594SOL     OW70678  12.232  14.265   8.799
89594SOL    HW170679  12.150  14.216   8.810
89594SOL    HW270680  12.233  14.326   8.872
89595SOL     OW70681  10.875   4.635   7.914
89595SOL    HW170682  10.863   4.560   7.972
89595SOL    HW270683  10.906   4.705   7.971
89596SOL     OW70684  14.453  10.958  13.068
89596SOL    HW170685  14.423  10.967  12.978
89596SOL    HW270686  14.543  10.992  13.066
89597SOL     OW70687  10.229   8.109   6.401
89597SOL    HW170688  10.200   8.160   6.326
89597SOL    HW270689  10.171   8.137   6.473
89598SOL     OW70690  10.665   0.560   4.997
89598SOL    HW170691  10.591   0.600   5.041
89598SOL    HW270692  10.720   0.634   4.970
89599SOL     OW70693   7.058  10.010  11.822
89599SOL    HW170694   7.074   9.919  11.798
89599SOL    HW270695   6.982  10.006  11.881
89600SOL     OW70696   2.460   8.602   1.000
89600SOL    HW170697   2.440   8.605   0.906
89600SOL    HW270698   2.530   8.667   1.011
89601SOL     OW70699  12.909   6.175   6.963
89601SOL    HW170700  12.931   6.084   6.985
89601SOL    HW270701  12.973   6.200   6.896
89602SOL     OW70702   4.482   1.212  14.487
89602SOL    HW170703   4.456   1.304  14.485
89602SOL    HW270704   4.577   1.213  14.479
89603SOL     OW70705   2.481   4.071   8.878
89603SOL    HW170706   2.546   4.009   8.911
89603SOL    HW270707   2.480   4.141   8.943
89604SOL     OW70708  12.910   6.966  12.381
89604SOL    HW170709  12.916   6.906  12.456
89604SOL    HW270710  12.816   6.968  12.361
89605SOL     OW70711   9.009   9.235   4.691
89605SOL    HW170712   8.988   9.216   4.782
89605SOL    HW270713   9.026   9.149   4.652
89606SOL     OW70714   9.666   8.777   9.970
89606SOL    HW170715   9.715   8.830  10.033
89606SOL    HW270716   9.700   8.805   9.885
89607SOL     OW70717   8.681   7.130   2.004
89607SOL    HW170718   8.710   7.048   2.043
89607SOL    HW270719   8.594   7.146   2.040
89608SOL     OW70720   3.212   7.542   9.323
89608SOL    HW170721   3.214   7.518   9.231
89608SOL    HW270722   3.123   7.523   9.351
89609SOL     OW70723   1.111   1.204   1.959
89609SOL    HW170724   1.082   1.287   1.922
89609SOL    HW270725   1.102   1.141   1.887
89610SOL     OW70726  10.084   2.273   2.355
89610SOL    HW170727  10.072   2.223   2.436
89610SOL    HW270728  10.014   2.339   2.358
89611SOL     OW70729   7.053  12.566  11.627
89611SOL    HW170730   6.984  12.582  11.692
89611SOL    HW270731   7.065  12.651  11.585
89612SOL     OW70732   5.279   8.519  12.416
89612SOL    HW170733   5.235   8.449  12.368
89612SOL    HW270734   5.363   8.481  12.442
89613SOL     OW70735  12.333   7.960  12.572
89613SOL    HW170736  12.383   8.031  12.614
89613SOL    HW270737  12.284   7.920  12.644
89614SOL     OW70738  11.854  10.714  13.485
89614SOL    HW170739  11.918  10.645  13.465
89614SOL    HW270740  11.837  10.704  13.579
89615SOL     OW70741   5.528   6.034   3.449
89615SOL    HW170742   5.436   6.061   3.451
89615SOL    HW270743   5.537   5.983   3.369
89616SOL     OW70744   5.773   0.273  12.369
89616SOL    HW170745   5.683   0.241  12.377
89616SOL    HW270746   5.771   0.332  12.294
89617SOL     OW70747   4.452   7.081  10.666
89617SOL    HW170748   4.522   7.144  10.647
89617SOL    HW270749   4.498   6.996  10.672
89618SOL     OW70750   0.769   3.551   0.281
89618SOL    HW170751   0.775   3.645   0.295
89618SOL    HW270752   0.677   3.530   0.294
89619SOL     OW70753  12.778  10.995   7.938
89619SOL    HW170754  12.873  11.006   7.936
89619SOL    HW270755  12.763  10.932   8.008
89620SOL     OW70756   6.169   8.476   4.347
89620SOL    HW170757   6.082   8.450   4.317
89620SOL    HW270758   6.204   8.530   4.276
89621SOL     OW70759   5.088   1.987   4.211
89621SOL    HW170760   5.130   1.961   4.293
89621SOL    HW270761   5.099   1.912   4.153
89622SOL     OW70762   0.124   1.292   3.322
89622SOL    HW170763   0.091   1.365   3.375
89622SOL    HW270764   0.181   1.244   3.382
89623SOL     OW70765   4.185   6.622   8.000
89623SOL    HW170766   4.234   6.664   8.071
89623SOL    HW270767   4.125   6.689   7.969
89624SOL     OW70768   7.065   4.965   4.274
89624SOL    HW170769   7.002   5.010   4.330
89624SOL    HW270770   7.052   4.872   4.292
89625SOL     OW70771  14.315   1.480   6.235
89625SOL    HW170772  14.360   1.562   6.214
89625SOL    HW270773  14.269   1.457   6.155
89626SOL     OW70774   5.339   9.481   6.357
89626SOL    HW170775   5.297   9.551   6.306
89626SOL    HW270776   5.290   9.402   6.334
89627SOL     OW70777   2.843   1.888  13.557
89627SOL    HW170778   2.915   1.883  13.494
89627SOL    HW270779   2.846   1.979  13.588
89628SOL     OW70780   9.194   8.631  13.672
89628SOL    HW170781   9.098   8.631  13.666
89628SOL    HW270782   9.213   8.682  13.751
89629SOL     OW70783   0.464   1.512   0.579
89629SOL    HW170784   0.516   1.572   0.524
89629SOL    HW270785   0.492   1.425   0.552
89630SOL     OW70786  11.445   4.162  13.750
89630SOL    HW170787  11.400   4.130  13.829
89630SOL    HW270788  11.378   4.163  13.683
89631SOL     OW70789   7.654   5.807   9.542
89631SOL    HW170790   7.716   5.847   9.603
89631SOL    HW270791   7.641   5.718   9.576
89632SOL     OW70792   8.324   1.827   3.763
89632SOL    HW170793   8.347   1.919   3.752
89632SOL    HW270794   8.362   1.784   3.687
89633SOL     OW70795  14.124   1.348   5.395
89633SOL    HW170796  14.127   1.363   5.301
89633SOL    HW270797  14.214   1.364   5.425
89634SOL     OW70798   0.217   9.406   2.823
89634SOL    HW170799   0.237   9.333   2.881
89634SOL    HW270800   0.293   9.414   2.766
89635SOL     OW70801   1.871  13.066  11.375
89635SOL    HW170802   1.851  13.139  11.433
89635SOL    HW270803   1.804  13.071  11.307
89636SOL     OW70804   8.688   1.541   1.169
89636SOL    HW170805   8.675   1.593   1.090
89636SOL    HW270806   8.647   1.592   1.238
89637SOL     OW70807  12.918   1.290  11.134
89637SOL    HW170808  12.920   1.377  11.174
89637SOL    HW270809  12.929   1.307  11.040
89638SOL     OW70810   2.791   9.700  11.380
89638SOL    HW170811   2.864   9.732  11.328
89638SOL    HW270812   2.729   9.773  11.381
89639SOL     OW70813   1.475   1.367  14.732
89639SOL    HW170814   1.425   1.286  14.746
89639SOL    HW270815   1.446   1.398  14.646
89640SOL     OW70816   6.162   7.645   6.606
89640SOL    HW170817   6.081   7.677   6.564
89640SOL    HW270818   6.209   7.601   6.535
89641SOL     OW70819   5.399   4.005   2.441
89641SOL    HW170820   5.438   4.088   2.470
89641SOL    HW270821   5.469   3.963   2.389
89642SOL     OW70822  14.859   6.438   4.256
89642SOL    HW170823  14.789   6.415   4.195
89642SOL    HW270824  14.814   6.454   4.339
89643SOL     OW70825  10.544   6.331  13.166
89643SOL    HW170826  10.493   6.279  13.228
89643SOL    HW270827  10.506   6.309  13.080
89644SOL     OW70828   9.994   0.065   2.296
89644SOL    HW170829  10.049   0.000   2.252
89644SOL    HW270830   9.907   0.051   2.259
89645SOL     OW70831   6.932  12.851   3.752
89645SOL    HW170832   6.959  12.836   3.662
89645SOL    HW270833   6.858  12.912   3.745
89646SOL     OW70834   5.334   6.902   0.655
89646SOL    HW170835   5.264   6.894   0.720
89646SOL    HW270836   5.292   6.945   0.581
89647SOL     OW70837   5.391   1.463   8.112
89647SOL    HW170838   5.449   1.450   8.037
89647SOL    HW270839   5.447   1.497   8.181
89648SOL     OW70840   6.599  10.037   1.674
89648SOL    HW170841   6.572   9.963   1.729
89648SOL    HW270842   6.694  10.029   1.669
89649SOL     OW70843  11.054   3.646   1.418
89649SOL    HW170844  10.991   3.616   1.353
89649SOL    HW270845  11.116   3.699   1.368
89650SOL     OW70846   2.238  12.631   2.266
89650SOL    HW170847   2.271  12.705   2.317
89650SOL    HW270848   2.304  12.563   2.277
89651SOL     OW70849   2.272   5.832   5.423
89651SOL    HW170850   2.212   5.905   5.440
89651SOL    HW270851   2.274   5.823   5.328
89652SOL     OW70852   1.294   2.714  11.507
89652SOL    HW170853   1.244   2.743  11.583
89652SOL    HW270854   1.324   2.626  11.530
89653SOL     OW70855   4.679   0.248   5.799
89653SOL    HW170856   4.590   0.222   5.776
89653SOL    HW270857   4.708   0.182   5.862
89654SOL     OW70858   8.411   8.233   3.870
89654SOL    HW170859   8.351   8.250   3.797
89654SOL    HW270860   8.379   8.152   3.909
89655SOL     OW70861   4.176  11.857   2.004
89655SOL    HW170862   4.235  11.858   1.928
89655SOL    HW270863   4.192  11.940   2.048
89656SOL     OW70864   2.186  14.727  10.788
89656SOL    HW170865   2.157  14.798  10.846
89656SOL    HW270866   2.207  14.655  10.847
89657SOL     OW70867   0.818  10.884   7.183
89657SOL    HW170868   0.792  10.969   7.220
89657SOL    HW270869   0.909  10.896   7.156
89658SOL     OW70870   1.443   0.776   9.233
89658SOL    HW170871   1.497   0.845   9.272
89658SOL    HW270872   1.357   0.816   9.223
89659SOL     OW70873   3.313   4.106   0.144
89659SOL    HW170874   3.221   4.081   0.133
89659SOL    HW270875   3.362   4.031   0.108
89660SOL     OW70876   1.494   1.509   1.701
89660SOL    HW170877   1.582   1.498   1.666
89660SOL    HW270878   1.436   1.489   1.627
89661SOL     OW70879   6.533   3.546   1.698
89661SOL    HW170880   6.538   3.451   1.684
89661SOL    HW270881   6.620   3.571   1.727
89662SOL     OW70882  10.256  12.368   7.020
89662SOL    HW170883  10.202  12.328   6.952
89662SOL    HW270884  10.282  12.296   7.077
89663SOL     OW70885   7.942  11.405   7.760
89663SOL    HW170886   7.953  11.392   7.854
89663SOL    HW270887   8.028  11.437   7.730
89664SOL     OW70888   8.740   4.837   2.387
89664SOL    HW170889   8.649   4.839   2.417
89664SOL    HW270890   8.791   4.825   2.467
89665SOL     OW70891  12.381   7.069   5.709
89665SOL    HW170892  12.364   7.102   5.620
89665SOL    HW270893  12.299   7.083   5.756
89666SOL     OW70894   2.526  14.791  12.319
89666SOL    HW170895   2.551  14.799  12.411
89666SOL    HW270896   2.527   0.011  12.286
89667SOL     OW70897   7.824   4.992  12.881
89667SOL    HW170898   7.732   4.975  12.904
89667SOL    HW270899   7.819   5.057  12.810
89668SOL     OW70900   1.525   9.381  10.028
89668SOL    HW170901   1.554   9.379   9.937
89668SOL    HW270902   1.508   9.290  10.050
89669SOL     OW70903   4.081  12.754  12.293
89669SOL    HW170904   4.142  12.817  12.333
89669SOL    HW270905   4.136  12.679  12.269
89670SOL     OW70906   8.404   9.691   6.586
89670SOL    HW170907   8.495   9.713   6.607
89670SOL    HW270908   8.386   9.612   6.638
89671SOL     OW70909   0.718  14.067   8.560
89671SOL    HW170910   0.706  14.147   8.508
89671SOL    HW270911   0.764  14.008   8.500
89672SOL     OW70912   4.944  11.950   4.547
89672SOL    HW170913   4.966  11.960   4.455
89672SOL    HW270914   5.028  11.952   4.593
89673SOL     OW70915  10.532   3.062   0.006
89673SOL    HW170916  10.579   3.131  14.828
89673SOL    HW270917  10.529   2.989  14.813
89674SOL     OW70918  11.807   9.518   5.613
89674SOL    HW170919  11.851   9.599   5.639
89674SOL    HW270920  11.730   9.546   5.564
89675SOL     OW70921   6.022   7.378  11.106
89675SOL    HW170922   6.080   7.331  11.166
89675SOL    HW270923   6.077   7.406  11.034
89676SOL     OW70924   2.538   6.374   8.446
89676SOL    HW170925   2.617   6.348   8.399
89676SOL    HW270926   2.565   6.380   8.537
89677SOL     OW70927   9.917   6.530  13.985
89677SOL    HW170928   9.956   6.545  14.071
89677SOL    HW270929   9.930   6.436  13.969
89678SOL     OW70930   0.369  12.001  10.299
89678SOL    HW170931   0.399  12.084  10.262
89678SOL    HW270932   0.386  11.937  10.231
89679SOL     OW70933  14.255   9.694   2.112
89679SOL    HW170934  14.169   9.654   2.102
89679SOL    HW270935  14.300   9.677   2.030
89680SOL     OW70936  13.600  10.053   5.049
89680SOL    HW170937  13.578  10.096   5.132
89680SOL    HW270938  13.548   9.973   5.050
89681SOL     OW70939  11.007   3.402   8.485
89681SOL    HW170940  11.073   3.472   8.480
89681SOL    HW270941  11.054   3.329   8.525
89682SOL     OW70942   4.858   2.247   9.390
89682SOL    HW170943   4.951   2.269   9.385
89682SOL    HW270944   4.854   2.172   9.449
89683SOL     OW70945   5.804  11.844  10.035
89683SOL    HW170946   5.747  11.815  10.106
89683SOL    HW270947   5.744  11.875   9.967
89684SOL     OW70948  10.713  10.981   9.074
89684SOL    HW170949  10.693  10.946   9.161
89684SOL    HW270950  10.770  11.056   9.091
89685SOL     OW70951   8.397   2.686  10.195
89685SOL    HW170952   8.449   2.687  10.275
89685SOL    HW270953   8.346   2.605  10.200
89686SOL     OW70954   8.816   1.265  13.360
89686SOL    HW170955   8.855   1.353  13.360
89686SOL    HW270956   8.727   1.279  13.326
89687SOL     OW70957   7.454  14.399  10.634
89687SOL    HW170958   7.396  14.346  10.689
89687SOL    HW270959   7.540  14.357  10.642
89688SOL     OW70960  11.955   1.841  10.228
89688SOL    HW170961  12.032   1.894  10.245
89688SOL    HW270962  11.891   1.868  10.294
89689SOL     OW70963   1.592  10.317  14.143
89689SOL    HW170964   1.558  10.405  14.132
89689SOL    HW270965   1.629  10.295  14.057
89690SOL     OW70966   1.881   8.704   3.218
89690SOL    HW170967   1.801   8.665   3.251
89690SOL    HW270968   1.886   8.790   3.260
89691SOL     OW70969   8.357   3.355   4.048
89691SOL    HW170970   8.343   3.433   3.994
89691SOL    HW270971   8.277   3.347   4.100
89692SOL     OW70972   5.862  13.353  12.380
89692SOL    HW170973   5.852  13.258  12.374
89692SOL    HW270974   5.818  13.378  12.461
89693SOL     OW70975   2.877   6.914   1.703
89693SOL    HW170976   2.823   6.969   1.759
89693SOL    HW270977   2.847   6.933   1.614
89694SOL     OW70978   4.962   5.435   7.902
89694SOL    HW170979   5.054   5.418   7.882
89694SOL    HW270980   4.923   5.347   7.909
89695SOL     OW70981  13.251   8.167   7.714
89695SOL    HW170982  13.234   8.073   7.722
89695SOL    HW270983  13.165   8.204   7.690
89696SOL     OW70984   4.234   4.648   2.538
89696SOL    HW170985   4.239   4.625   2.446
89696SOL    HW270986   4.286   4.728   2.546
89697SOL     OW70987  12.687  11.369   9.951
89697SOL    HW170988  12.762  11.355  10.009
89697SOL    HW270989  12.711  11.325   9.870
89698SOL     OW70990   8.580   3.538   9.891
89698SOL    HW170991   8.648   3.603   9.877
89698SOL    HW270992   8.562   3.541   9.985
89699SOL     OW70993  14.707  11.633   1.695
89699SOL    HW170994  14.619  11.666   1.712
89699SOL    HW270995  14.719  11.643   1.600
89700SOL     OW70996   9.709  11.232  11.258
89700SOL    HW170997   9.746  11.146  11.241
89700SOL    HW270998   9.782  11.285  11.289
89701SOL     OW70999   8.041   6.641  12.262
89701SOL    HW171000   7.995   6.618  12.343
89701SOL    HW271001   8.076   6.729  12.279
89702SOL     OW71002  12.737   8.541   6.499
89702SOL    HW171003  12.657   8.510   6.458
89702SOL    HW271004  12.755   8.625   6.456
89703SOL     OW71005   2.495   9.174  10.758
89703SOL    HW171006   2.432   9.105  10.736
89703SOL    HW271007   2.567   9.128  10.802
89704SOL     OW71008   8.771   9.363   3.751
89704SOL    HW171009   8.790   9.388   3.842
89704SOL    HW271010   8.740   9.444   3.710
89705SOL     OW71011  14.190   3.408   2.560
89705SOL    HW171012  14.126   3.478   2.574
89705SOL    HW271013  14.274   3.452   2.555
89706SOL     OW71014  10.130  13.278   8.058
89706SOL    HW171015  10.216  13.318   8.046
89706SOL    HW271016  10.148  13.193   8.098
89707SOL     OW71017   0.062   2.276  13.000
89707SOL    HW171018   0.003   2.284  12.925
89707SOL    HW271019   0.016   2.317  13.072
89708SOL     OW71020   0.518   0.914  10.763
89708SOL    HW171021   0.554   0.990  10.717
89708SOL    HW271022   0.594   0.871  10.801
89709SOL     OW71023  14.429   7.249  14.809
89709SOL    HW171024  14.517   7.226  14.840
89709SOL    HW271025  14.409   7.332  14.852
89710SOL     OW71026  11.757   7.320   5.037
89710SOL    HW171027  11.791   7.231   5.027
89710SOL    HW271028  11.665   7.314   5.011
89711SOL     OW71029  13.754   1.602   7.400
89711SOL    HW171030  13.806   1.617   7.479
89711SOL    HW271031  13.721   1.689   7.377
89712SOL     OW71032   9.000   6.192  14.068
89712SOL    HW171033   8.932   6.222  14.009
89712SOL    HW271034   9.034   6.112  14.028
89713SOL     OW71035   5.786   5.759   7.827
89713SOL    HW171036   5.708   5.732   7.876
89713SOL    HW271037   5.848   5.687   7.840
89714SOL     OW71038  10.001   8.142   2.864
89714SOL    HW171039   9.995   8.062   2.918
89714SOL    HW271040  10.044   8.206   2.921
89715SOL     OW71041  11.066   2.385   1.664
89715SOL    HW171042  11.075   2.334   1.744
89715SOL    HW271043  11.145   2.438   1.660
89716SOL     OW71044   2.910   2.105  12.842
89716SOL    HW171045   2.966   2.036  12.877
89716SOL    HW271046   2.916   2.176  12.906
89717SOL     OW71047  13.662  12.704  12.321
89717SOL    HW171048  13.724  12.714  12.393
89717SOL    HW271049  13.616  12.622  12.339
89718SOL     OW71050  10.635  11.393   5.418
89718SOL    HW171051  10.697  11.355   5.356
89718SOL    HW271052  10.675  11.476   5.443
89719SOL     OW71053   8.632   2.237  14.736
89719SOL    HW171054   8.614   2.165  14.675
89719SOL    HW271055   8.702   2.204  14.792
89720SOL     OW71056  10.627  10.070   0.117
89720SOL    HW171057  10.616   9.985   0.158
89720SOL    HW271058  10.722  10.083   0.113
89721SOL     OW71059   4.224   4.470   4.386
89721SOL    HW171060   4.174   4.543   4.422
89721SOL    HW271061   4.159   4.416   4.341
89722SOL     OW71062   7.187   4.667   0.103
89722SOL    HW171063   7.277   4.642   0.122
89722SOL    HW271064   7.164   4.618   0.024
89723SOL     OW71065   4.879   9.001  10.322
89723SOL    HW171066   4.805   8.960  10.277
89723SOL    HW271067   4.950   8.998  10.257
89724SOL     OW71068   5.410   5.977  12.928
89724SOL    HW171069   5.420   5.894  12.881
89724SOL    HW271070   5.322   6.006  12.906
89725SOL     OW71071   6.658   9.225   7.123
89725SOL    HW171072   6.709   9.253   7.046
89725SOL    HW271073   6.700   9.145   7.152
89726SOL     OW71074  11.154   3.605  10.228
89726SOL    HW171075  11.137   3.691  10.190
89726SOL    HW271076  11.083   3.591  10.290
89727SOL     OW71077  10.475   2.520  14.085
89727SOL    HW171078  10.412   2.541  14.016
89727SOL    HW271079  10.559   2.550  14.050
89728SOL     OW71080   1.676  13.450   3.041
89728SOL    HW171081   1.758  13.420   3.001
89728SOL    HW271082   1.645  13.520   2.983
89729SOL     OW71083   8.588  10.503   9.449
89729SOL    HW171084   8.614  10.513   9.357
89729SOL    HW271085   8.615  10.414   9.472
89730SOL     OW71086   8.146  12.715   6.365
89730SOL    HW171087   8.073  12.698   6.424
89730SOL    HW271088   8.153  12.636   6.311
89731SOL     OW71089  10.273   8.612  13.634
89731SOL    HW171090  10.262   8.637  13.542
89731SOL    HW271091  10.362   8.639  13.655
89732SOL     OW71092   1.649   4.877   2.291
89732SOL    HW171093   1.574   4.818   2.297
89732SOL    HW271094   1.614   4.955   2.247
89733SOL     OW71095   2.445   2.441   0.801
89733SOL    HW171096   2.472   2.352   0.824
89733SOL    HW271097   2.525   2.493   0.810
89734SOL     OW71098   8.939  10.716  10.397
89734SOL    HW171099   8.955  10.773  10.322
89734SOL    HW271100   8.987  10.636  10.377
89735SOL     OW71101   2.692  12.619   1.231
89735SOL    HW171102   2.596  12.624   1.236
89735SOL    HW271103   2.715  12.548   1.291
89736SOL     OW71104   4.687  10.229   3.832
89736SOL    HW171105   4.700  10.152   3.776
89736SOL    HW271106   4.592  10.241   3.834
89737SOL     OW71107   5.741   8.271   1.187
89737SOL    HW171108   5.736   8.178   1.164
89737SOL    HW271109   5.834   8.286   1.206
89738SOL     OW71110  12.969   0.325   1.248
89738SOL    HW171111  13.018   0.343   1.167
89738SOL    HW271112  12.891   0.379   1.241
89739SOL     OW71113  12.508   4.654  12.187
89739SOL    HW171114  12.421   4.687  12.210
89739SOL    HW271115  12.492   4.588  12.119
89740SOL     OW71116   5.003   3.715  12.639
89740SOL    HW171117   4.986   3.732  12.546
89740SOL    HW271118   4.935   3.764  12.685
89741SOL     OW71119   0.636  13.855   0.885
89741SOL    HW171120   0.579  13.817   0.951
89741SOL    HW271121   0.717  13.875   0.932
89742SOL     OW71122   3.229  13.697   6.376
89742SOL    HW171123   3.275  13.664   6.454
89742SOL    HW271124   3.159  13.634   6.361
89743SOL     OW71125   0.842  12.571  11.433
89743SOL    HW171126   0.820  12.638  11.368
89743SOL    HW271127   0.814  12.489  11.394
89744SOL     OW71128   3.059   0.948   8.312
89744SOL    HW171129   3.088   1.029   8.269
89744SOL    HW271130   3.075   0.880   8.247
89745SOL     OW71131   9.362   2.251   0.774
89745SOL    HW171132   9.304   2.253   0.698
89745SOL    HW271133   9.444   2.214   0.740
89746SOL     OW71134   5.096   6.885   3.640
89746SOL    HW171135   5.067   6.816   3.700
89746SOL    HW271136   5.083   6.966   3.689
89747SOL     OW71137  13.487  12.254   7.293
89747SOL    HW171138  13.474  12.284   7.383
89747SOL    HW271139  13.554  12.314   7.258
89748SOL     OW71140   4.453  11.426   6.566
89748SOL    HW171141   4.364  11.455   6.583
89748SOL    HW271142   4.502  11.507   6.550
89749SOL     OW71143   2.485   5.972   9.920
89749SOL    HW171144   2.471   5.889   9.874
89749SOL    HW271145   2.434   5.965  10.000
89750SOL     OW71146  14.536   6.028   0.858
89750SOL    HW171147  14.455   6.033   0.807
89750SOL    HW271148  14.602   6.068   0.801
89751SOL     OW71149  11.295  10.295   6.080
89751SOL    HW171150  11.240  10.373   6.086
89751SOL    HW271151  11.246  10.235   6.024
89752SOL     OW71152   0.347   7.608   6.514
89752SOL    HW171153   0.393   7.581   6.593
89752SOL    HW271154   0.395   7.564   6.443
89753SOL     OW71155   7.957   8.349   0.907
89753SOL    HW171156   7.918   8.389   0.830
89753SOL    HW271157   8.028   8.407   0.932
89754SOL     OW71158   4.479   9.127  13.243
89754SOL    HW171159   4.432   9.197  13.288
89754SOL    HW271160   4.498   9.163  13.156
89755SOL     OW71161   6.847   1.526  13.300
89755SOL    HW171162   6.854   1.603  13.244
89755SOL    HW271163   6.841   1.561  13.389
89756SOL     OW71164   6.155  11.378  10.469
89756SOL    HW171165   6.131  11.343  10.384
89756SOL    HW271166   6.250  11.367  10.473
89757SOL     OW71167   4.044   2.453  14.700
89757SOL    HW171168   4.119   2.395  14.713
89757SOL    HW271169   4.014   2.473  14.789
89758SOL     OW71170  12.580   8.448   4.174
89758SOL    HW171171  12.647   8.453   4.106
89758SOL    HW271172  12.614   8.502   4.245
89759SOL     OW71173   0.071   0.247   3.412
89759SOL    HW171174   0.152   0.212   3.375
89759SOL    HW271175   0.078   0.226   3.506
89760SOL     OW71176   3.634   9.448   7.156
89760SOL    HW171177   3.644   9.422   7.065
89760SOL    HW271178   3.606   9.539   7.153
89761SOL     OW71179  14.557  13.705  13.581
89761SOL    HW171180  14.477  13.735  13.624
89761SOL    HW271181  14.627  13.753  13.626
89762SOL     OW71182   8.994   9.475  10.397
89762SOL    HW171183   9.008   9.484  10.491
89762SOL    HW271184   8.949   9.391  10.387
89763SOL     OW71185   0.369  10.315  14.663
89763SOL    HW171186   0.288  10.315  14.613
89763SOL    HW271187   0.434  10.277  14.604
89764SOL     OW71188   3.615   8.587   4.459
89764SOL    HW171189   3.613   8.683   4.462
89764SOL    HW271190   3.688   8.567   4.400
89765SOL     OW71191   5.570   5.308   4.990
89765SOL    HW171192   5.487   5.335   4.950
89765SOL    HW271193   5.548   5.231   5.042
89766SOL     OW71194  11.555   9.782   0.396
89766SOL    HW171195  11.489   9.788   0.466
89766SOL    HW271196  11.592   9.695   0.405
89767SOL     OW71197  10.310   7.673   8.865
89767SOL    HW171198  10.391   7.682   8.914
89767SOL    HW271199  10.338   7.647   8.777
89768SOL     OW71200  13.443   2.807   0.725
89768SOL    HW171201  13.431   2.805   0.820
89768SOL    HW271202  13.446   2.715   0.699
89769SOL     OW71203   3.357  12.617   7.516
89769SOL    HW171204   3.363  12.553   7.445
89769SOL    HW271205   3.431  12.676   7.503
89770SOL     OW71206   5.197   1.936   7.507
89770SOL    HW171207   5.245   1.997   7.563
89770SOL    HW271208   5.142   1.886   7.567
89771SOL     OW71209   9.684   7.534  13.317
89771SOL    HW171210   9.742   7.512  13.244
89771SOL    HW271211   9.720   7.487  13.392
89772SOL     OW71212  11.758   0.441   4.322
89772SOL    HW171213  11.810   0.519   4.340
89772SOL    HW271214  11.758   0.433   4.227
89773SOL     OW71215   2.842   8.934   2.250
89773SOL    HW171216   2.754   8.971   2.250
89773SOL    HW271217   2.842   8.870   2.321
89774SOL     OW71218   4.599   1.019  12.778
89774SOL    HW171219   4.638   0.946  12.730
89774SOL    HW271220   4.504   1.007  12.767
89775SOL     OW71221   6.105   3.610   1.948
89775SOL    HW171222   6.092   3.526   1.905
89775SOL    HW271223   6.179   3.650   1.903
89776SOL     OW71224   7.999   1.077  13.635
89776SOL    HW171225   7.992   1.098  13.728
89776SOL    HW271226   8.074   1.016  13.630
89777SOL     OW71227  14.221  13.913   2.469
89777SOL    HW171228  14.223  13.846   2.400
89777SOL    HW271229  14.267  13.988   2.431
89778SOL     OW71230   2.109   1.816   5.596
89778SOL    HW171231   2.127   1.910   5.605
89778SOL    HW271232   2.098   1.785   5.686
89779SOL     OW71233   3.081   5.889   8.013
89779SOL    HW171234   3.045   5.978   8.013
89779SOL    HW271235   3.164   5.897   7.966
89780SOL     OW71236  11.369   6.976  13.623
89780SOL    HW171237  11.417   6.897  13.599
89780SOL    HW271238  11.297   6.980  13.560
89781SOL     OW71239  11.682  12.516   2.982
89781SOL    HW171240  11.599  12.470   2.990
89781SOL    HW271241  11.748  12.448   2.988
89782SOL     OW71242   9.485   2.483   8.606
89782SOL    HW171243   9.516   2.407   8.656
89782SOL    HW271244   9.425   2.446   8.541
89783SOL     OW71245   5.693   4.740  12.100
89783SOL    HW171246   5.777   4.786  12.096
89783SOL    HW271247   5.676   4.730  12.194
89784SOL     OW71248   4.851  10.990   1.483
89784SOL    HW171249   4.765  10.968   1.446
89784SOL    HW271250   4.873  10.915   1.539
89785SOL     OW71251   0.781   5.402  13.554
89785SOL    HW171252   0.767   5.308  13.555
89785SOL    HW271253   0.849   5.415  13.488
89786SOL     OW71254   0.198   7.735   1.013
89786SOL    HW171255   0.195   7.640   1.003
89786SOL    HW271256   0.164   7.751   1.101
89787SOL     OW71257   7.891   4.962   1.827
89787SOL    HW171258   7.966   4.926   1.875
89787SOL    HW271259   7.931   5.014   1.757
89788SOL     OW71260   4.910   9.179  13.913
89788SOL    HW171261   4.839   9.115  13.927
89788SOL    HW271262   4.959   9.179  13.995
89789SOL     OW71263   8.360   1.054   3.996
89789SOL    HW171264   8.368   0.959   3.994
89789SOL    HW271265   8.272   1.070   4.030
89790SOL     OW71266   6.179   9.326   8.431
89790SOL    HW171267   6.234   9.368   8.365
89790SOL    HW271268   6.241   9.286   8.492
89791SOL     OW71269   9.449   9.680  14.869
89791SOL    HW171270   9.446   9.741   0.072
89791SOL    HW271271   9.397   9.605   0.029
89792SOL     OW71272   3.649   9.223   2.247
89792SOL    HW171273   3.735   9.266   2.246
89792SOL    HW271274   3.629   9.208   2.154
89793SOL     OW71275   5.683   6.704  11.852
89793SOL    HW171276   5.628   6.755  11.793
89793SOL    HW271277   5.766   6.693  11.805
89794SOL     OW71278   9.760   8.398   8.838
89794SOL    HW171279   9.738   8.389   8.930
89794SOL    HW271280   9.731   8.316   8.798
89795SOL     OW71281   6.748   7.212   8.097
89795SOL    HW171282   6.804   7.173   8.030
89795SOL    HW271283   6.808   7.242   8.165
89796SOL     OW71284  12.233   5.698   8.582
89796SOL    HW171285  12.301   5.648   8.538
89796SOL    HW271286  12.152   5.650   8.566
89797SOL     OW71287   3.426  13.099   6.620
89797SOL    HW171288   3.393  13.064   6.537
89797SOL    HW271289   3.357  13.080   6.683
89798SOL     OW71290  13.021  13.247   7.207
89798SOL    HW171291  12.942  13.224   7.256
89798SOL    HW271292  13.017  13.342   7.199
89799SOL     OW71293   1.736   6.138   3.165
89799SOL    HW171294   1.733   6.131   3.069
89799SOL    HW271295   1.719   6.230   3.183
89800SOL     OW71296   1.184   6.085   7.248
89800SOL    HW171297   1.090   6.072   7.234
89800SOL    HW271298   1.189   6.152   7.316
89801SOL     OW71299   4.899  11.475   8.424
89801SOL    HW171300   4.905  11.396   8.370
89801SOL    HW271301   4.953  11.456   8.501
89802SOL     OW71302   8.715   1.741  14.123
89802SOL    HW171303   8.636   1.745  14.176
89802SOL    HW271304   8.767   1.816  14.152
89803SOL     OW71305  14.139  12.079   6.335
89803SOL    HW171306  14.216  12.025   6.348
89803SOL    HW271307  14.163  12.141   6.267
89804SOL     OW71308  11.424   4.680   3.207
89804SOL    HW171309  11.446   4.774   3.206
89804SOL    HW271310  11.336   4.676   3.169
89805SOL     OW71311  12.472  10.701   0.283
89805SOL    HW171312  12.523  10.753   0.346
89805SOL    HW271313  12.444  10.624   0.332
89806SOL     OW71314  13.544   5.785   5.193
89806SOL    HW171315  13.602   5.845   5.240
89806SOL    HW271316  13.515   5.834   5.117
89807SOL     OW71317   5.162  14.449   1.229
89807SOL    HW171318   5.229  14.490   1.175
89807SOL    HW271319   5.169  14.355   1.208
89808SOL     OW71320   8.549   7.910   6.298
89808SOL    HW171321   8.629   7.859   6.311
89808SOL    HW271322   8.478   7.852   6.325
89809SOL     OW71323   4.780  11.253   3.055
89809SOL    HW171324   4.744  11.340   3.071
89809SOL    HW271325   4.705  11.200   3.027
89810SOL     OW71326   2.001   5.740   7.131
89810SOL    HW171327   2.035   5.715   7.217
89810SOL    HW271328   1.972   5.657   7.093
89811SOL     OW71329   7.249   9.065  12.194
89811SOL    HW171330   7.174   9.092  12.246
89811SOL    HW271331   7.278   8.983  12.235
89812SOL     OW71332   6.049   3.743  12.861
89812SOL    HW171333   5.960   3.777  12.871
89812SOL    HW271334   6.037   3.652  12.834
89813SOL     OW71335   7.877   6.758  11.771
89813SOL    HW171336   7.857   6.678  11.721
89813SOL    HW271337   7.919   6.725  11.851
89814SOL     OW71338   1.876   4.762  11.049
89814SOL    HW171339   1.791   4.794  11.020
89814SOL    HW271340   1.857   4.677  11.090
89815SOL     OW71341   9.590   4.067   8.243
89815SOL    HW171342   9.651   4.139   8.258
89815SOL    HW271343   9.505   4.102   8.269
89816SOL     OW71344   1.056  12.548   0.813
89816SOL    HW171345   1.106  12.609   0.866
89816SOL    HW271346   1.115  12.474   0.799
89817SOL     OW71347   5.522   9.128   4.989
89817SOL    HW171348   5.569   9.131   4.906
89817SOL    HW271349   5.503   9.035   5.004
89818SOL     OW71350   8.939  12.300   0.646
89818SOL    HW171351   9.008  12.260   0.592
89818SOL    HW271352   8.858  12.262   0.612
89819SOL     OW71353   2.340   8.297   3.456
89819SOL    HW171354   2.257   8.342   3.472
89819SOL    HW271355   2.330   8.213   3.500
89820SOL     OW71356   5.494   4.551   8.962
89820SOL    HW171357   5.481   4.473   8.908
89820SOL    HW271358   5.589   4.561   8.966
89821SOL     OW71359   3.374   8.398   3.678
89821SOL    HW171360   3.462   8.365   3.695
89821SOL    HW271361   3.348   8.442   3.759
89822SOL     OW71362   9.424   0.279   3.464
89822SOL    HW171363   9.479   0.249   3.537
89822SOL    HW271364   9.411   0.372   3.482
89823SOL     OW71365   9.081  11.153   3.126
89823SOL    HW171366   9.098  11.094   3.053
89823SOL    HW271367   9.168  11.183   3.154
89824SOL     OW71368  12.394   4.852   7.453
89824SOL    HW171369  12.377   4.920   7.519
89824SOL    HW271370  12.324   4.864   7.389
89825SOL     OW71371  10.029   8.002   5.980
89825SOL    HW171372   9.971   7.940   6.026
89825SOL    HW271373  10.101   7.948   5.948
89826SOL     OW71374   1.327   7.946  11.284
89826SOL    HW171375   1.294   7.908  11.203
89826SOL    HW271376   1.337   7.872  11.343
89827SOL     OW71377   4.314   6.551   5.378
89827SOL    HW171378   4.286   6.546   5.470
89827SOL    HW271379   4.249   6.608   5.337
89828SOL     OW71380   5.245  13.620  13.393
89828SOL    HW171381   5.193  13.678  13.337
89828SOL    HW271382   5.288  13.561  13.332
89829SOL     OW71383   8.783   2.173   5.785
89829SOL    HW171384   8.734   2.142   5.709
89829SOL    HW271385   8.720   2.227   5.833
89830SOL     OW71386   2.090   9.023  12.248
89830SOL    HW171387   2.106   9.093  12.185
89830SOL    HW271388   2.016   8.975  12.212
89831SOL     OW71389  11.318   0.519  14.611
89831SOL    HW171390  11.288   0.440  14.567
89831SOL    HW271391  11.409   0.500  14.635
89832SOL     OW71392   3.775   0.691  11.241
89832SOL    HW171393   3.858   0.709  11.196
89832SOL    HW271394   3.709   0.694  11.172
89833SOL     OW71395   2.998   7.430  10.411
89833SOL    HW171396   3.056   7.499  10.381
89833SOL    HW271397   3.027   7.352  10.364
89834SOL     OW71398   1.557  10.808  10.248
89834SOL    HW171399   1.533  10.833  10.336
89834SOL    HW271400   1.647  10.839  10.237
89835SOL     OW71401  12.621   8.686  13.771
89835SOL    HW171402  12.575   8.683  13.856
89835SOL    HW271403  12.581   8.616  13.720
89836SOL     OW71404   4.086   3.066  11.606
89836SOL    HW171405   4.180   3.074  11.591
89836SOL    HW271406   4.075   2.982  11.650
89837SOL     OW71407   5.156   7.147   7.831
89837SOL    HW171408   5.188   7.062   7.800
89837SOL    HW271409   5.072   7.159   7.786
89838SOL     OW71410   9.432   2.808   8.008
89838SOL    HW171411   9.355   2.757   7.984
89838SOL    HW271412   9.473   2.758   8.080
89839SOL     OW71413  13.190   3.960   6.317
89839SOL    HW171414  13.100   3.932   6.329
89839SOL    HW271415  13.241   3.905   6.377
89840SOL     OW71416   8.038   6.245  13.471
89840SOL    HW171417   8.055   6.321  13.415
89840SOL    HW271418   8.121   6.199  13.475
89841SOL     OW71419   5.478   1.075   6.546
89841SOL    HW171420   5.471   1.150   6.605
89841SOL    HW271421   5.497   1.001   6.604
89842SOL     OW71422   5.575  11.057  10.899
89842SOL    HW171423   5.489  11.067  10.860
89842SOL    HW271424   5.578  10.966  10.930
89843SOL     OW71425  13.394   6.952   8.667
89843SOL    HW171426  13.421   6.865   8.639
89843SOL    HW271427  13.325   6.978   8.606
89844SOL     OW71428   7.327   6.625  12.867
89844SOL    HW171429   7.397   6.603  12.928
89844SOL    HW271430   7.373   6.653  12.787
89845SOL     OW71431  11.906  11.582   7.484
89845SOL    HW171432  11.870  11.517   7.424
89845SOL    HW271433  11.837  11.594   7.550
89846SOL     OW71434   6.666   7.095  13.632
89846SOL    HW171435   6.603   7.147  13.583
89846SOL    HW271436   6.672   7.013  13.583
89847SOL     OW71437  10.777  12.618   2.240
89847SOL    HW171438  10.787  12.553   2.170
89847SOL    HW271439  10.688  12.605   2.272
89848SOL     OW71440   6.043   5.195  12.191
89848SOL    HW171441   6.036   5.157  12.278
89848SOL    HW271442   5.959   5.239  12.177
89849SOL     OW71443  13.064  14.555   4.740
89849SOL    HW171444  13.064  14.645   4.705
89849SOL    HW271445  12.974  14.526   4.728
89850SOL     OW71446   9.718   1.603  14.845
89850SOL    HW171447   9.806   1.581  14.814
89850SOL    HW271448   9.731   1.677   0.034
89851SOL     OW71449   7.929   9.164   5.421
89851SOL    HW171450   7.846   9.213   5.425
89851SOL    HW271451   7.907   9.078   5.456
89852SOL     OW71452   3.499   9.948   4.972
89852SOL    HW171453   3.553   9.957   4.894
89852SOL    HW271454   3.450  10.030   4.977
89853SOL     OW71455  13.048  14.794  12.916
89853SOL    HW171456  13.069  14.843  12.837
89853SOL    HW271457  13.045  14.702  12.888
89854SOL     OW71458   7.114   7.439   0.459
89854SOL    HW171459   7.107   7.493   0.380
89854SOL    HW271460   7.025   7.433   0.492
89855SOL     OW71461   8.959  12.540   4.930
89855SOL    HW171462   8.866  12.563   4.925
89855SOL    HW271463   8.967  12.492   5.012
89856SOL     OW71464   6.542   8.880  14.001
89856SOL    HW171465   6.542   8.802  14.056
89856SOL    HW271466   6.501   8.947  14.056
89857SOL     OW71467  13.190   9.637   5.668
89857SOL    HW171468  13.223   9.714   5.623
89857SOL    HW271469  13.255   9.618   5.735
89858SOL     OW71470   0.843  13.931   2.223
89858SOL    HW171471   0.843  13.858   2.162
89858SOL    HW271472   0.932  13.933   2.258
89859SOL     OW71473  12.099  10.592  14.251
89859SOL    HW171474  12.168  10.548  14.300
89859SOL    HW271475  12.104  10.684  14.278
89860SOL     OW71476   8.020   7.658   9.212
89860SOL    HW171477   7.928   7.672   9.190
89860SOL    HW271478   8.068   7.701   9.141
89861SOL     OW71479  10.446   7.892  13.517
89861SOL    HW171480  10.436   7.845  13.434
89861SOL    HW271481  10.473   7.980  13.491
89862SOL     OW71482   2.051   2.385   0.404
89862SOL    HW171483   2.127   2.363   0.350
89862SOL    HW271484   2.044   2.312   0.466
89863SOL     OW71485  14.439   5.554   6.411
89863SOL    HW171486  14.526   5.581   6.382
89863SOL    HW271487  14.427   5.467   6.373
89864SOL     OW71488   1.874  13.502   0.069
89864SOL    HW171489   1.833  13.580   0.030
89864SOL    HW271490   1.853  13.509   0.162
89865SOL     OW71491  14.131   6.998   5.433
89865SOL    HW171492  14.128   6.992   5.529
89865SOL    HW271493  14.116   7.090   5.414
89866SOL     OW71494   7.354   7.800   4.017
89866SOL    HW171495   7.401   7.849   3.950
89866SOL    HW271496   7.414   7.797   4.091
89867SOL     OW71497  10.384   2.736   1.824
89867SOL    HW171498  10.321   2.782   1.770
89867SOL    HW271499  10.453   2.709   1.764
89868SOL     OW71500   8.655  11.092   0.377
89868SOL    HW171501   8.747  11.078   0.359
89868SOL    HW271502   8.613  11.090   0.291
89869SOL     OW71503   7.978  11.319   8.017
89869SOL    HW171504   8.066  11.310   8.054
89869SOL    HW271505   7.923  11.345   8.091
89870SOL     OW71506   4.163   1.969  13.522
89870SOL    HW171507   4.161   1.977  13.426
89870SOL    HW271508   4.100   1.899  13.541
89871SOL     OW71509   7.540   4.937   9.568
89871SOL    HW171510   7.533   5.009   9.506
89871SOL    HW271511   7.556   4.979   9.652
89872SOL     OW71512   6.256   2.277  10.161
89872SOL    HW171513   6.234   2.285  10.068
89872SOL    HW271514   6.205   2.347  10.203
89873SOL     OW71515  12.595   3.100   7.530
89873SOL    HW171516  12.572   3.047   7.454
89873SOL    HW271517  12.523   3.085   7.592
89874SOL     OW71518  10.043   0.897   1.732
89874SOL    HW171519  10.025   0.869   1.642
89874SOL    HW271520  10.136   0.877   1.745
89875SOL     OW71521  14.057  12.287   0.041
89875SOL    HW171522  14.071  12.330  14.826
89875SOL    HW271523  14.117  12.212   0.040
89876SOL     OW71524   8.537   8.468  11.866
89876SOL    HW171525   8.484   8.389  11.855
89876SOL    HW271526   8.494   8.517  11.936
89877SOL     OW71527   6.655   8.386   3.061
89877SOL    HW171528   6.723   8.447   3.032
89877SOL    HW271529   6.693   8.343   3.138
89878SOL     OW71530   0.055  10.634  12.301
89878SOL    HW171531   0.046  10.551  12.253
89878SOL    HW271532  14.855  10.631  12.367
89879SOL     OW71533   4.325  11.037   3.613
89879SOL    HW171534   4.394  11.087   3.570
89879SOL    HW271535   4.244  11.064   3.569
89880SOL     OW71536   0.235  12.691   6.964
89880SOL    HW171537   0.308  12.742   7.000
89880SOL    HW271538   0.163  12.753   6.955
89881SOL     OW71539  10.416   0.640  10.659
89881SOL    HW171540  10.489   0.676  10.609
89881SOL    HW271541  10.410   0.696  10.736
89882SOL     OW71542   7.483   9.667  12.438
89882SOL    HW171543   7.422   9.724  12.484
89882SOL    HW271544   7.451   9.578  12.454
89883SOL     OW71545   0.938   0.916  12.567
89883SOL    HW171546   0.921   0.993  12.622
89883SOL    HW271547   0.916   0.946  12.478
89884SOL     OW71548   5.214   8.035   8.296
89884SOL    HW171549   5.199   7.975   8.223
89884SOL    HW271550   5.298   8.008   8.332
89885SOL     OW71551  13.971  12.404  14.132
89885SOL    HW171552  13.960  12.313  14.160
89885SOL    HW271553  13.917  12.411  14.053
89886SOL     OW71554   5.076   3.412   0.036
89886SOL    HW171555   5.088   3.507   0.035
89886SOL    HW271556   5.013   3.396   0.107
89887SOL     OW71557   9.175  13.680  13.843
89887SOL    HW171558   9.242  13.628  13.798
89887SOL    HW271559   9.103  13.618  13.857
89888SOL     OW71560   2.915   9.014   3.034
89888SOL    HW171561   2.936   9.080   2.968
89888SOL    HW271562   2.990   8.955   3.034
89889SOL     OW71563  14.411   1.109  14.760
89889SOL    HW171564  14.412   1.204  14.746
89889SOL    HW271565  14.466   1.095  14.837
89890SOL     OW71566   8.190   4.851  14.580
89890SOL    HW171567   8.192   4.947  14.579
89890SOL    HW271568   8.102   4.829  14.610
89891SOL     OW71569  14.342   7.346   1.618
89891SOL    HW171570  14.257   7.303   1.631
89891SOL    HW271571  14.326   7.412   1.552
89892SOL     OW71572   1.911   5.754   1.139
89892SOL    HW171573   1.848   5.818   1.105
89892SOL    HW271574   1.926   5.694   1.065
89893SOL     OW71575   8.679   1.503  12.891
89893SOL    HW171576   8.710   1.413  12.896
89893SOL    HW271577   8.585   1.496  12.878
89894SOL     OW71578   2.372   4.248  11.094
89894SOL    HW171579   2.310   4.306  11.138
89894SOL    HW271580   2.358   4.264  11.001
89895SOL     OW71581  13.215   7.215  14.348
89895SOL    HW171582  13.200   7.136  14.297
89895SOL    HW271583  13.185   7.287  14.292
89896SOL     OW71584   2.744   2.433   5.178
89896SOL    HW171585   2.657   2.415   5.142
89896SOL    HW271586   2.760   2.524   5.156
89897SOL     OW71587  10.501   8.612   4.410
89897SOL    HW171588  10.472   8.660   4.333
89897SOL    HW271589  10.566   8.550   4.377
89898SOL     OW71590   3.176  13.775  13.512
89898SOL    HW171591   3.140  13.779  13.600
89898SOL    HW271592   3.248  13.712  13.518
89899SOL     OW71593   7.300  11.695   7.609
89899SOL    HW171594   7.209  11.690   7.636
89899SOL    HW271595   7.297  11.717   7.516
89900SOL     OW71596   6.180  12.929   6.035
89900SOL    HW171597   6.087  12.942   6.055
89900SOL    HW271598   6.200  12.996   5.970
89901SOL     OW71599   9.463   2.970   8.291
89901SOL    HW171600   9.408   2.920   8.231
89901SOL    HW271601   9.552   2.944   8.270
89902SOL     OW71602   9.309   3.314   3.888
89902SOL    HW171603   9.401   3.334   3.905
89902SOL    HW271604   9.263   3.395   3.908
89903SOL     OW71605   0.242   1.818   8.166
89903SOL    HW171606   0.240   1.769   8.248
89903SOL    HW271607   0.204   1.758   8.102
89904SOL     OW71608   5.470  11.922   0.777
89904SOL    HW171609   5.468  11.949   0.685
89904SOL    HW271610   5.379  11.923   0.805
89905SOL     OW71611   0.412   2.846  14.145
89905SOL    HW171612   0.486   2.826  14.202
89905SOL    HW271613   0.400   2.941  14.154
89906SOL     OW71614   8.750  12.087  13.654
89906SOL    HW171615   8.691  12.118  13.585
89906SOL    HW271616   8.696  12.087  13.733
89907SOL     OW71617   2.201   5.481  13.581
89907SOL    HW171618   2.207   5.390  13.553
89907SOL    HW271619   2.220   5.478  13.675
89908SOL     OW71620  13.589   3.871  13.032
89908SOL    HW171621  13.602   3.833  13.119
89908SOL    HW271622  13.591   3.797  12.972
89909SOL     OW71623  13.953   9.120   5.115
89909SOL    HW171624  13.882   9.184   5.112
89909SOL    HW271625  13.950   9.084   5.204
89910SOL     OW71626   1.124  12.911   5.010
89910SOL    HW171627   1.032  12.885   5.018
89910SOL    HW271628   1.129  12.995   5.054
89911SOL     OW71629   0.514   0.559  11.234
89911SOL    HW171630   0.501   0.592  11.323
89911SOL    HW271631   0.435   0.509  11.215
89912SOL     OW71632   3.108  11.204  12.864
89912SOL    HW171633   3.049  11.148  12.813
89912SOL    HW271634   3.104  11.289  12.821
89913SOL     OW71635   9.046   9.648   9.076
89913SOL    HW171636   8.975   9.586   9.064
89913SOL    HW271637   9.070   9.676   8.987
89914SOL     OW71638   8.727   9.026   7.191
89914SOL    HW171639   8.705   8.994   7.279
89914SOL    HW271640   8.750   8.947   7.142
89915SOL     OW71641  10.796   3.045   4.330
89915SOL    HW171642  10.731   3.042   4.401
89915SOL    HW271643  10.744   3.061   4.251
89916SOL     OW71644  10.172  13.226  11.349
89916SOL    HW171645  10.125  13.179  11.280
89916SOL    HW271646  10.195  13.310  11.310
89917SOL     OW71647   4.544   9.854   3.028
89917SOL    HW171648   4.553   9.818   3.117
89917SOL    HW271649   4.632   9.886   3.007
89918SOL     OW71650   4.940   9.750   8.228
89918SOL    HW171651   4.915   9.815   8.294
89918SOL    HW271652   4.860   9.736   8.177
89919SOL     OW71653   4.915   3.855  13.243
89919SOL    HW171654   4.830   3.810  13.247
89919SOL    HW271655   4.897   3.942  13.278
89920SOL     OW71656   1.810   8.172  14.203
89920SOL    HW171657   1.791   8.266  14.194
89920SOL    HW271658   1.840   8.163  14.294
89921SOL     OW71659   4.242   5.735   5.904
89921SOL    HW171660   4.337   5.743   5.904
89921SOL    HW271661   4.214   5.783   5.826
89922SOL     OW71662   0.988   6.497   6.850
89922SOL    HW171663   1.056   6.430   6.855
89922SOL    HW271664   0.926   6.474   6.919
89923SOL     OW71665   4.296   4.276  10.486
89923SOL    HW171666   4.307   4.198  10.540
89923SOL    HW271667   4.379   4.323  10.494
89924SOL     OW71668  14.613   0.507   9.882
89924SOL    HW171669  14.548   0.472   9.820
89924SOL    HW271670  14.576   0.488   9.968
89925SOL     OW71671   8.359   4.044   4.532
89925SOL    HW171672   8.426   3.982   4.503
89925SOL    HW271673   8.408   4.120   4.562
89926SOL     OW71674   6.476   2.429   1.544
89926SOL    HW171675   6.430   2.483   1.480
89926SOL    HW271676   6.408   2.404   1.607
89927SOL     OW71677  12.458   4.232   4.505
89927SOL    HW171678  12.378   4.285   4.516
89927SOL    HW271679  12.449   4.162   4.569
89928SOL     OW71680   3.040   6.025   5.927
89928SOL    HW171681   3.029   5.934   5.954
89928SOL    HW271682   3.102   6.062   5.990
89929SOL     OW71683  13.694   4.304   5.858
89929SOL    HW171684  13.717   4.397   5.866
89929SOL    HW271685  13.607   4.298   5.898
89930SOL     OW71686  11.535  12.755   9.403
89930SOL    HW171687  11.547  12.755   9.308
89930SOL    HW271688  11.460  12.812   9.418
89931SOL     OW71689  12.195   8.130  13.810
89931SOL    HW171690  12.120   8.122  13.869
89931SOL    HW271691  12.167   8.087  13.729
89932SOL     OW71692   8.795  11.107  10.010
89932SOL    HW171693   8.824  11.148   9.929
89932SOL    HW271694   8.873  11.109  10.067
89933SOL     OW71695  11.974  11.556   1.910
89933SOL    HW171696  11.955  11.530   1.819
89933SOL    HW271697  11.894  11.600   1.939
89934SOL     OW71698  12.515   5.897   2.431
89934SOL    HW171699  12.434   5.922   2.475
89934SOL    HW271700  12.515   5.801   2.433
89935SOL     OW71701   6.090   8.798  14.616
89935SOL    HW171702   6.167   8.850  14.638
89935SOL    HW271703   6.121   8.708  14.614
89936SOL     OW71704   3.059   4.188   1.757
89936SOL    HW171705   3.081   4.114   1.813
89936SOL    HW271706   2.992   4.237   1.807
89937SOL     OW71707  10.297   0.025   5.878
89937SOL    HW171708  10.221  14.837   5.871
89937SOL    HW271709  10.360  14.845   5.931
89938SOL     OW71710   6.336  11.138   2.466
89938SOL    HW171711   6.415  11.142   2.520
89938SOL    HW271712   6.358  11.078   2.395
89939SOL     OW71713  11.274   4.357   0.828
89939SOL    HW171714  11.328   4.343   0.906
89939SOL    HW271715  11.303   4.442   0.793
89940SOL     OW71716  10.206  10.280  12.412
89940SOL    HW171717  10.196  10.347  12.344
89940SOL    HW271718  10.162  10.317  12.488
89941SOL     OW71719  12.860  14.323  13.316
89941SOL    HW171720  12.863  14.395  13.378
89941SOL    HW271721  12.778  14.335  13.268
89942SOL     OW71722   9.581   1.336   5.457
89942SOL    HW171723   9.658   1.369   5.504
89942SOL    HW271724   9.507   1.380   5.498
89943SOL     OW71725   8.065   9.919  14.098
89943SOL    HW171726   7.994   9.978  14.125
89943SOL    HW271727   8.056   9.843  14.155
89944SOL     OW71728  11.905   4.325   8.356
89944SOL    HW171729  11.964   4.252   8.371
89944SOL    HW271730  11.862   4.339   8.440
89945SOL     OW71731  10.629   7.408   8.230
89945SOL    HW171732  10.605   7.440   8.143
89945SOL    HW271733  10.702   7.349   8.214
89946SOL     OW71734  11.549   9.647   7.966
89946SOL    HW171735  11.562   9.583   8.036
89946SOL    HW271736  11.582   9.730   8.003
89947SOL     OW71737   1.125   2.549   3.161
89947SOL    HW171738   1.099   2.458   3.180
89947SOL    HW271739   1.104   2.561   3.069
89948SOL     OW71740   4.598   0.300  10.490
89948SOL    HW171741   4.517   0.249  10.478
89948SOL    HW271742   4.570   0.391  10.484
89949SOL     OW71743   1.245  11.650   0.515
89949SOL    HW171744   1.180  11.702   0.467
89949SOL    HW271745   1.307  11.623   0.448
89950SOL     OW71746  14.562   6.120   6.074
89950SOL    HW171747  14.613   6.135   6.154
89950SOL    HW271748  14.625   6.132   6.003
89951SOL     OW71749   5.593   2.701   8.356
89951SOL    HW171750   5.612   2.720   8.448
89951SOL    HW271751   5.653   2.631   8.333
89952SOL     OW71752   9.154   8.460   4.039
89952SOL    HW171753   9.177   8.484   4.128
89952SOL    HW271754   9.100   8.382   4.048
89953SOL     OW71755   6.854  11.939  10.410
89953SOL    HW171756   6.909  11.936  10.332
89953SOL    HW271757   6.842  12.032  10.428
89954SOL     OW71758   4.751  12.107   2.574
89954SOL    HW171759   4.755  12.023   2.618
89954SOL    HW271760   4.719  12.168   2.640
89955SOL     OW71761   0.485   6.649   3.714
89955SOL    HW171762   0.460   6.665   3.805
89955SOL    HW271763   0.571   6.607   3.720
89956SOL     OW71764  10.967  14.558  10.987
89956SOL    HW171765  10.949  14.640  10.942
89956SOL    HW271766  10.933  14.572  11.076
89957SOL     OW71767  10.434   9.696  10.573
89957SOL    HW171768  10.432   9.790  10.590
89957SOL    HW271769  10.506   9.686  10.510
89958SOL     OW71770   0.145   1.096   8.275
89958SOL    HW171771   0.163   1.057   8.189
89958SOL    HW271772   0.176   1.030   8.338
89959SOL     OW71773  13.106   1.635  10.910
89959SOL    HW171774  13.017   1.667  10.897
89959SOL    HW271775  13.118   1.571  10.840
89960SOL     OW71776   3.607   5.220  12.093
89960SOL    HW171777   3.639   5.305  12.064
89960SOL    HW271778   3.512   5.223  12.078
89961SOL     OW71779   4.571   5.948   4.010
89961SOL    HW171780   4.512   6.020   3.989
89961SOL    HW271781   4.515   5.884   4.054
89962SOL     OW71782  10.664   0.579   4.225
89962SOL    HW171783  10.683   0.647   4.289
89962SOL    HW271784  10.591   0.530   4.263
89963SOL     OW71785   2.364   6.765   2.623
89963SOL    HW171786   2.428   6.777   2.693
89963SOL    HW271787   2.334   6.853   2.602
89964SOL     OW71788  11.761   1.581   8.876
89964SOL    HW171789  11.715   1.598   8.794
89964SOL    HW271790  11.716   1.634   8.942
89965SOL     OW71791   7.347  12.883   8.627
89965SOL    HW171792   7.430  12.901   8.583
89965SOL    HW271793   7.295  12.837   8.561
89966SOL     OW71794  10.484   5.051   7.104
89966SOL    HW171795  10.431   5.120   7.063
89966SOL    HW271796  10.474   4.976   7.045
89967SOL     OW71797   2.728   3.510   3.363
89967SOL    HW171798   2.640   3.503   3.326
89967SOL    HW271799   2.719   3.481   3.454
89968SOL     OW71800   4.664   6.912  14.572
89968SOL    HW171801   4.755   6.886  14.583
89968SOL    HW271802   4.636   6.941  14.659
89969SOL     OW71803   6.938   6.120   5.405
89969SOL    HW171804   6.999   6.047   5.407
89969SOL    HW271805   6.893   6.111   5.321
89970SOL     OW71806   8.699  11.778  13.915
89970SOL    HW171807   8.655  11.831  13.982
89970SOL    HW271808   8.788  11.767  13.948
89971SOL     OW71809   9.567  12.304   2.010
89971SOL    HW171810   9.473  12.287   2.016
89971SOL    HW271811   9.606  12.219   1.986
89972SOL     OW71812   4.950   5.324   5.613
89972SOL    HW171813   5.041   5.339   5.638
89972SOL    HW271814   4.901   5.391   5.659
89973SOL     OW71815   8.879   2.930   4.246
89973SOL    HW171816   8.859   3.011   4.199
89973SOL    HW271817   8.946   2.888   4.192
89974SOL     OW71818  13.930  12.122   5.992
89974SOL    HW171819  13.909  12.150   6.081
89974SOL    HW271820  13.946  12.203   5.944
89975SOL     OW71821   7.929  11.376   0.404
89975SOL    HW171822   7.882  11.326   0.337
89975SOL    HW271823   7.890  11.463   0.401
89976SOL     OW71824   2.809  10.291   2.848
89976SOL    HW171825   2.845  10.219   2.901
89976SOL    HW271826   2.783  10.249   2.766
89977SOL     OW71827   3.318  14.454   1.328
89977SOL    HW171828   3.296  14.380   1.272
89977SOL    HW271829   3.315  14.530   1.270
89978SOL     OW71830   7.359   0.485   7.030
89978SOL    HW171831   7.410   0.557   6.993
89978SOL    HW271832   7.268   0.512   7.018
89979SOL     OW71833   0.102   0.028   4.728
89979SOL    HW171834   0.151   0.108   4.746
89979SOL    HW271835   0.107  14.848   4.810
89980SOL     OW71836  11.047  13.402   7.042
89980SOL    HW171837  11.024  13.384   6.951
89980SOL    HW271838  11.057  13.315   7.081
89981SOL     OW71839  10.061   8.512   2.510
89981SOL    HW171840  10.057   8.472   2.597
89981SOL    HW271841   9.975   8.554   2.500
89982SOL     OW71842   5.318  12.207   0.906
89982SOL    HW171843   5.299  12.127   0.955
89982SOL    HW271844   5.299  12.184   0.815
89983SOL     OW71845   3.532   9.570   4.963
89983SOL    HW171846   3.570   9.638   4.907
89983SOL    HW271847   3.438   9.573   4.942
89984SOL     OW71848   0.476   2.549  12.906
89984SOL    HW171849   0.405   2.584  12.852
89984SOL    HW271850   0.434   2.483  12.961
89985SOL     OW71851   5.091   1.682   1.402
89985SOL    HW171852   5.040   1.620   1.453
89985SOL    HW271853   5.114   1.752   1.464
89986SOL     OW71854   4.307   9.700   2.992
89986SOL    HW171855   4.379   9.763   2.997
89986SOL    HW271856   4.344   9.619   3.028
89987SOL     OW71857   4.500  13.409  14.701
89987SOL    HW171858   4.590  13.428  14.730
89987SOL    HW271859   4.502  13.317  14.675
89988SOL     OW71860  13.335   2.631   9.219
89988SOL    HW171861  13.260   2.691   9.223
89988SOL    HW271862  13.398   2.675   9.162
89989SOL     OW71863   5.491   0.997   2.286
89989SOL    HW171864   5.509   1.007   2.192
89989SOL    HW271865   5.411   0.945   2.289
89990SOL     OW71866   2.341  14.228  13.985
89990SOL    HW171867   2.312  14.138  14.002
89990SOL    HW271868   2.262  14.281  13.991
89991SOL     OW71869   2.457  10.588  10.866
89991SOL    HW171870   2.474  10.567  10.774
89991SOL    HW271871   2.430  10.505  10.905
89992SOL     OW71872   5.194   0.181   3.745
89992SOL    HW171873   5.274   0.130   3.747
89992SOL    HW271874   5.172   0.188   3.652
89993SOL     OW71875   5.780   7.403   3.901
89993SOL    HW171876   5.811   7.492   3.918
89993SOL    HW271877   5.727   7.382   3.978
89994SOL     OW71878   6.852   0.202   9.999
89994SOL    HW171879   6.813   0.273  10.049
89994SOL    HW271880   6.944   0.200  10.027
89995SOL     OW71881   9.272   2.633   3.021
89995SOL    HW171882   9.295   2.547   3.059
89995SOL    HW271883   9.356   2.675   3.004
89996SOL     OW71884   4.118   9.244   3.340
89996SOL    HW171885   4.102   9.151   3.358
89996SOL    HW271886   4.139   9.282   3.425
89997SOL     OW71887  13.309  14.696  10.064
89997SOL    HW171888  13.368  14.723   9.994
89997SOL    HW271889  13.242  14.765  10.067
89998SOL     OW71890  11.801  12.516  12.255
89998SOL    HW171891  11.868  12.479  12.312
89998SOL    HW271892  11.849  12.566  12.189
89999SOL     OW71893   0.486   1.965  11.287
89999SOL    HW171894   0.472   1.999  11.199
89999SOL    HW271895   0.500   1.871  11.274
90000SOL     OW71896   1.103   5.005   0.984
90000SOL    HW171897   1.034   4.954   0.941
90000SOL    HW271898   1.087   4.993   1.078
90001SOL     OW71899  10.890   6.348   5.724
90001SOL    HW171900  10.848   6.402   5.656
90001SOL    HW271901  10.823   6.338   5.791
90002SOL     OW71902   4.691  14.692  12.508
90002SOL    HW171903   4.646  14.744  12.441
90002SOL    HW271904   4.748  14.634  12.458
90003SOL     OW71905   2.071   2.745  10.864
90003SOL    HW171906   2.084   2.743  10.769
90003SOL    HW271907   2.160   2.755  10.899
90004SOL     OW71908   9.696   7.225   8.878
90004SOL    HW171909   9.787   7.199   8.864
90004SOL    HW271910   9.645   7.149   8.850
90005SOL     OW71911  13.717   2.583   5.315
90005SOL    HW171912  13.665   2.638   5.373
90005SOL    HW271913  13.800   2.629   5.306
90006SOL     OW71914  13.837   5.490  14.624
90006SOL    HW171915  13.806   5.472  14.535
90006SOL    HW271916  13.850   5.585  14.626
90007SOL     OW71917   6.065   2.701  12.877
90007SOL    HW171918   5.976   2.736  12.870
90007SOL    HW271919   6.083   2.698  12.971
90008SOL     OW71920   0.498   3.065   9.046
90008SOL    HW171921   0.564   2.998   9.025
90008SOL    HW271922   0.527   3.143   8.999
90009SOL     OW71923   3.353  13.335   7.936
90009SOL    HW171924   3.393  13.276   7.872
90009SOL    HW271925   3.394  13.312   8.019
90010SOL     OW71926   7.411   7.950  11.744
90010SOL    HW171927   7.430   7.856  11.743
90010SOL    HW271928   7.402   7.974  11.652
90011SOL     OW71929  10.636  11.009  13.254
90011SOL    HW171930  10.681  10.929  13.226
90011SOL    HW271931  10.644  11.069  13.180
90012SOL     OW71932   2.331   1.854  11.356
90012SOL    HW171933   2.257   1.802  11.386
90012SOL    HW271934   2.395   1.790  11.326
90013SOL     OW71935   2.634   6.334   2.274
90013SOL    HW171936   2.637   6.344   2.369
90013SOL    HW271937   2.599   6.417   2.242
90014SOL     OW71938   5.122   7.085   8.444
90014SOL    HW171939   5.072   7.096   8.363
90014SOL    HW271940   5.210   7.061   8.414
90015SOL     OW71941   7.999   3.454  13.688
90015SOL    HW171942   7.928   3.410  13.640
90015SOL    HW271943   8.065   3.472  13.621
90016SOL     OW71944   0.963  11.424  11.690
90016SOL    HW171945   0.875  11.453  11.715
90016SOL    HW271946   0.956  11.407  11.596
90017SOL     OW71947   4.918  13.017   2.161
90017SOL    HW171948   4.877  12.981   2.239
90017SOL    HW271949   5.003  13.050   2.191
90018SOL     OW71950   8.481   2.888  11.653
90018SOL    HW171951   8.534   2.808  11.650
90018SOL    HW271952   8.532   2.948  11.708
90019SOL     OW71953   1.894   4.580   2.718
90019SOL    HW171954   1.910   4.617   2.632
90019SOL    HW271955   1.801   4.555   2.717
90020SOL     OW71956   1.204   9.502   9.383
90020SOL    HW171957   1.151   9.457   9.449
90020SOL    HW271958   1.227   9.433   9.320
90021SOL     OW71959   6.476  12.307   2.625
90021SOL    HW171960   6.481  12.366   2.701
90021SOL    HW271961   6.435  12.227   2.659
90022SOL     OW71962   3.568   6.562   6.355
90022SOL    HW171963   3.606   6.514   6.429
90022SOL    HW271964   3.475   6.535   6.356
90023SOL     OW71965   3.533  11.209   0.727
90023SOL    HW171966   3.500  11.139   0.783
90023SOL    HW271967   3.476  11.284   0.747
90024SOL     OW71968  13.014   3.886  11.045
90024SOL    HW171969  13.089   3.941  11.068
90024SOL    HW271970  12.953   3.898  11.118
90025SOL     OW71971   9.377   0.123   2.344
90025SOL    HW171972   9.449   0.068   2.375
90025SOL    HW271973   9.357   0.088   2.257
90026SOL     OW71974   7.233   7.139   5.373
90026SOL    HW171975   7.324   7.112   5.387
90026SOL    HW271976   7.212   7.190   5.451
90027SOL     OW71977   1.773   6.897   7.281
90027SOL    HW171978   1.708   6.957   7.245
90027SOL    HW271979   1.850   6.908   7.225
90028SOL     OW71980   3.886   7.270   3.182
90028SOL    HW171981   3.908   7.311   3.099
90028SOL    HW271982   3.882   7.176   3.162
90029SOL     OW71983   7.768   5.940   9.763
90029SOL    HW171984   7.735   5.886   9.835
90029SOL    HW271985   7.810   6.015   9.805
90030SOL     OW71986  10.199  14.724   0.439
90030SOL    HW171987  10.222  14.761   0.353
90030SOL    HW271988  10.193  14.800   0.497
90031SOL     OW71989   5.857   1.251   5.161
90031SOL    HW171990   5.782   1.229   5.217
90031SOL    HW271991   5.902   1.167   5.148
90032SOL     OW71992   9.052   6.683   2.282
90032SOL    HW171993   8.994   6.649   2.351
90032SOL    HW271994   9.098   6.756   2.324
90033SOL     OW71995  14.319  14.800  13.899
90033SOL    HW171996  14.365  14.847  13.969
90033SOL    HW271997  14.338  14.851  13.820
90034SOL     OW71998   6.147  11.343  11.051
90034SOL    HW171999   6.098  11.293  11.117
90034SOL    HW272000   6.147  11.432  11.085
90035SOL     OW72001   5.128   8.924  10.491
90035SOL    HW172002   5.060   8.938  10.425
90035SOL    HW272003   5.204   8.894  10.441
90036SOL     OW72004  10.323  10.981  12.869
90036SOL    HW172005  10.287  11.070  12.863
90036SOL    HW272006  10.381  10.973  12.793
90037SOL     OW72007   7.693   0.048   6.330
90037SOL    HW172008   7.712   0.136   6.362
90037SOL    HW272009   7.773   0.019   6.287
90038SOL     OW72010  10.101   5.162   1.917
90038SOL    HW172011  10.059   5.079   1.939
90038SOL    HW272012  10.093   5.168   1.821
90039SOL     OW72013   6.446  13.300   7.455
90039SOL    HW172014   6.440  13.255   7.371
90039SOL    HW272015   6.513  13.367   7.442
90040SOL     OW72016   2.097  14.050  13.848
90040SOL    HW172017   2.080  13.957  13.835
90040SOL    HW272018   2.092  14.087  13.760
90041SOL     OW72019   5.944   7.744  13.066
90041SOL    HW172020   5.993   7.714  13.142
90041SOL    HW272021   6.010   7.770  13.002
90042SOL     OW72022   0.606   7.176  14.124
90042SOL    HW172023   0.668   7.136  14.064
90042SOL    HW272024   0.552   7.232  14.068
90043SOL     OW72025   8.613   4.300   8.444
90043SOL    HW172026   8.612   4.339   8.357
90043SOL    HW272027   8.645   4.370   8.501
90044SOL     OW72028   8.800  11.452  14.230
90044SOL    HW172029   8.885  11.450  14.274
90044SOL    HW272030   8.760  11.368  14.251
90045SOL     OW72031   2.346  13.075   7.280
90045SOL    HW172032   2.304  13.144   7.229
90045SOL    HW272033   2.419  13.046   7.224
90046SOL     OW72034   6.491  10.590   5.383
90046SOL    HW172035   6.432  10.665   5.393
90046SOL    HW272036   6.576  10.628   5.360
90047SOL     OW72037   2.737   8.963  10.379
90047SOL    HW172038   2.749   9.037  10.320
90047SOL    HW272039   2.642   8.959  10.394
90048SOL     OW72040  12.120   2.042  13.836
90048SOL    HW172041  12.027   2.033  13.814
90048SOL    HW272042  12.166   2.016  13.756
90049SOL     OW72043   9.803   1.638  12.668
90049SOL    HW172044   9.827   1.662  12.757
90049SOL    HW272045   9.857   1.694  12.612
90050SOL     OW72046  14.107   7.186   7.045
90050SOL    HW172047  14.146   7.264   7.084
90050SOL    HW272048  14.181   7.135   7.012
90051SOL     OW72049   2.951  11.104   1.191
90051SOL    HW172050   2.966  11.155   1.112
90051SOL    HW272051   2.907  11.025   1.160
90052SOL     OW72052  11.505  11.717  13.806
90052SOL    HW172053  11.440  11.753  13.745
90052SOL    HW272054  11.586  11.765  13.784
90053SOL     OW72055  10.557   8.352  10.393
90053SOL    HW172056  10.479   8.356  10.448
90053SOL    HW272057  10.563   8.261  10.366
90054SOL     OW72058   3.583   4.256  14.673
90054SOL    HW172059   3.623   4.211  14.599
90054SOL    HW272060   3.588   4.193  14.745
90055SOL     OW72061   6.436   3.143  13.162
90055SOL    HW172062   6.384   3.079  13.210
90055SOL    HW272063   6.525   3.107  13.163
90056SOL     OW72064   4.773   8.165   1.474
90056SOL    HW172065   4.772   8.176   1.379
90056SOL    HW272066   4.748   8.074   1.488
90057SOL     OW72067  14.539  11.806   5.568
90057SOL    HW172068  14.567  11.803   5.659
90057SOL    HW272069  14.609  11.852   5.523
90058SOL     OW72070   3.013   6.089   8.386
90058SOL    HW172071   3.107   6.088   8.406
90058SOL    HW272072   3.009   6.093   8.291
90059SOL     OW72073   4.592   2.666   2.889
90059SOL    HW172074   4.575   2.573   2.879
90059SOL    HW272075   4.684   2.670   2.917
90060SOL     OW72076   8.658   6.116   8.431
90060SOL    HW172077   8.607   6.195   8.411
90060SOL    HW272078   8.636   6.056   8.360
90061SOL     OW72079  11.441  12.994  12.960
90061SOL    HW172080  11.476  12.963  13.044
90061SOL    HW272081  11.392  12.920  12.926
90062SOL     OW72082   4.222   5.392   2.537
90062SOL    HW172083   4.274   5.317   2.565
90062SOL    HW272084   4.178   5.422   2.616
90063SOL     OW72085   1.571   8.351   8.066
90063SOL    HW172086   1.643   8.390   8.016
90063SOL    HW272087   1.498   8.347   8.003
90064SOL     OW72088  12.114   2.481  10.976
90064SOL    HW172089  12.160   2.474  11.060
90064SOL    HW272090  12.056   2.556  10.986
90065SOL     OW72091  10.889  11.420   0.321
90065SOL    HW172092  10.938  11.383   0.395
90065SOL    HW272093  10.835  11.348   0.289
90066SOL     OW72094   2.173   8.385   9.763
90066SOL    HW172095   2.229   8.377   9.686
90066SOL    HW272096   2.215   8.331   9.830
90067SOL     OW72097   4.669  11.894   1.414
90067SOL    HW172098   4.685  11.971   1.360
90067SOL    HW272099   4.750  11.882   1.464
90068SOL     OW72100   1.743   8.166  11.388
90068SOL    HW172101   1.757   8.257  11.362
90068SOL    HW272102   1.813   8.147  11.450
90069SOL     OW72103   4.799  12.035   5.164
90069SOL    HW172104   4.706  12.030   5.183
90069SOL    HW272105   4.810  11.987   5.082
90070SOL     OW72106   2.941   4.372   2.588
90070SOL    HW172107   2.850   4.357   2.563
90070SOL    HW272108   2.972   4.286   2.618
90071SOL     OW72109   7.388   0.396  10.327
90071SOL    HW172110   7.349   0.428  10.408
90071SOL    HW272111   7.342   0.444  10.258
90072SOL     OW72112  11.343  11.341   9.303
90072SOL    HW172113  11.255  11.375   9.285
90072SOL    HW272114  11.402  11.411   9.274
90073SOL     OW72115  13.191   1.602   8.303
90073SOL    HW172116  13.130   1.531   8.283
90073SOL    HW272117  13.265   1.588   8.243
90074SOL     OW72118  12.108   3.488  10.881
90074SOL    HW172119  12.127   3.444  10.964
90074SOL    HW272120  12.166   3.565  10.882
90075SOL     OW72121   3.162   2.855  14.169
90075SOL    HW172122   3.101   2.843  14.242
90075SOL    HW272123   3.221   2.780  14.175
90076SOL     OW72124  14.469   1.049   4.641
90076SOL    HW172125  14.520   0.996   4.579
90076SOL    HW272126  14.444   1.126   4.592
90077SOL     OW72127   7.060   0.190   0.685
90077SOL    HW172128   7.060   0.263   0.623
90077SOL    HW272129   6.969   0.184   0.715
90078SOL     OW72130  13.910  14.647   0.051
90078SOL    HW172131  13.903  14.741   0.032
90078SOL    HW272132  13.819  14.617   0.054
90079SOL     OW72133   6.371   3.363   6.931
90079SOL    HW172134   6.310   3.301   6.893
90079SOL    HW272135   6.395   3.422   6.859
90080SOL     OW72136  14.001   1.033  14.838
90080SOL    HW172137  14.078   0.984  14.810
90080SOL    HW272138  13.978   1.088  14.763
90081SOL     OW72139   2.783   4.395  12.210
90081SOL    HW172140   2.848   4.326  12.197
90081SOL    HW272141   2.750   4.414  12.122
90082SOL     OW72142  11.710  10.068   4.467
90082SOL    HW172143  11.647  10.096   4.401
90082SOL    HW272144  11.794  10.104   4.438
90083SOL     OW72145   2.606   0.574   2.161
90083SOL    HW172146   2.586   0.609   2.075
90083SOL    HW272147   2.643   0.648   2.209
90084SOL     OW72148  14.309  13.037   2.477
90084SOL    HW172149  14.335  12.955   2.518
90084SOL    HW272150  14.378  13.056   2.414
90085SOL     OW72151   0.026  12.245  11.950
90085SOL    HW172152   0.017  12.246  11.855
90085SOL    HW272153  14.825  12.303  11.981
90086SOL     OW72154   6.651  12.995   6.795
90086SOL    HW172155   6.703  12.930   6.747
90086SOL    HW272156   6.626  12.950   6.876
90087SOL     OW72157   2.682  13.633  11.308
90087SOL    HW172158   2.705  13.638  11.215
90087SOL    HW272159   2.757  13.671  11.354
90088SOL     OW72160   9.124   6.975  14.508
90088SOL    HW172161   9.208   6.943  14.474
90088SOL    HW272162   9.059   6.939  14.448
90089SOL     OW72163  13.895   7.111  10.971
90089SOL    HW172164  13.805   7.138  10.986
90089SOL    HW272165  13.919   7.150  10.887
90090SOL     OW72166   6.070   0.035  12.461
90090SOL    HW172167   6.150  14.854  12.477
90090SOL    HW272168   6.100   0.115  12.418
90091SOL     OW72169   8.223  10.361   6.145
90091SOL    HW172170   8.206  10.450   6.112
90091SOL    HW272171   8.278  10.321   6.078
90092SOL     OW72172  12.402  10.263   5.192
90092SOL    HW172173  12.337  10.243   5.125
90092SOL    HW272174  12.399  10.189   5.252
90093SOL     OW72175   3.599   8.446   5.471
90093SOL    HW172176   3.622   8.417   5.559
90093SOL    HW272177   3.668   8.410   5.416
90094SOL     OW72178  14.075   7.829   2.837
90094SOL    HW172179  14.032   7.881   2.769
90094SOL    HW272180  14.103   7.750   2.791
90095SOL     OW72181   1.237   0.030  14.496
90095SOL    HW172182   1.193  14.819  14.470
90095SOL    HW272183   1.173   0.099  14.479
90096SOL     OW72184  13.118  11.100  14.672
90096SOL    HW172185  13.056  11.097  14.744
90096SOL    HW272186  13.171  11.178  14.688
90097SOL     OW72187  14.279  14.748   1.730
90097SOL    HW172188  14.353  14.798   1.764
90097SOL    HW272189  14.203  14.802   1.748
90098SOL     OW72190  13.440  13.000   8.904
90098SOL    HW172191  13.476  13.074   8.954
90098SOL    HW272192  13.392  12.948   8.968
90099SOL     OW72193   6.224   0.273   5.736
90099SOL    HW172194   6.203   0.212   5.665
90099SOL    HW272195   6.220   0.220   5.816
90100SOL     OW72196   1.230   0.325   9.653
90100SOL    HW172197   1.160   0.308   9.716
90100SOL    HW272198   1.271   0.240   9.638
90101SOL     OW72199   9.791  11.192  12.469
90101SOL    HW172200   9.843  11.139  12.529
90101SOL    HW272201   9.749  11.257  12.526
90102SOL     OW72202   5.549   0.474  11.205
90102SOL    HW172203   5.615   0.433  11.262
90102SOL    HW272204   5.591   0.554  11.173
90103SOL     OW72205   8.145   8.146  11.156
90103SOL    HW172206   8.200   8.068  11.170
90103SOL    HW272207   8.177   8.183  11.074
90104SOL     OW72208   4.394  13.804   1.246
90104SOL    HW172209   4.462  13.833   1.186
90104SOL    HW272210   4.361  13.885   1.286
90105SOL     OW72211  11.770   5.694   2.632
90105SOL    HW172212  11.725   5.638   2.695
90105SOL    HW272213  11.863   5.685   2.654
90106SOL     OW72214  13.933   7.514   8.607
90106SOL    HW172215  13.981   7.582   8.655
90106SOL    HW272216  13.846   7.513   8.647
90107SOL     OW72217   8.398   8.022  14.685
90107SOL    HW172218   8.413   7.944  14.632
90107SOL    HW272219   8.334   8.073  14.636
90108SOL     OW72220  12.533   1.178   5.553
90108SOL    HW172221  12.608   1.173   5.612
90108SOL    HW272222  12.540   1.264   5.511
90109SOL     OW72223   4.512   9.767  12.214
90109SOL    HW172224   4.525   9.758  12.119
90109SOL    HW272225   4.589   9.815  12.245
90110SOL     OW72226  14.838   3.721  11.612
90110SOL    HW172227  14.747   3.737  11.586
90110SOL    HW272228  14.848   3.769  11.694
90111SOL     OW72229  14.822   1.048   3.366
90111SOL    HW172230  14.826   1.121   3.304
90111SOL    HW272231   0.029   0.995   3.346
90112SOL     OW72232  13.955   3.421  12.569
90112SOL    HW172233  13.882   3.390  12.515
90112SOL    HW272234  13.921   3.419  12.658
90113SOL     OW72235  12.531   7.392   6.052
90113SOL    HW172236  12.451   7.397   6.104
90113SOL    HW272237  12.551   7.298   6.048
90114SOL     OW72238   0.809  13.244   5.560
90114SOL    HW172239   0.898  13.226   5.590
90114SOL    HW272240   0.820  13.285   5.474
90115SOL     OW72241  14.832   9.719   6.161
90115SOL    HW172242   0.057   9.701   6.170
90115SOL    HW272243  14.809   9.763   6.243
90116SOL     OW72244   3.872  10.066  13.128
90116SOL    HW172245   3.858  10.151  13.170
90116SOL    HW272246   3.841  10.002  13.192
90117SOL     OW72247   9.191  13.067  10.038
90117SOL    HW172248   9.104  13.049  10.074
90117SOL    HW272249   9.176  13.073   9.943
90118SOL     OW72250   6.399   4.900   0.859
90118SOL    HW172251   6.309   4.867   0.850
90118SOL    HW272252   6.392   4.993   0.837
90119SOL     OW72253   6.412   9.061   2.368
90119SOL    HW172254   6.437   9.090   2.456
90119SOL    HW272255   6.414   9.141   2.316
90120SOL     OW72256   8.434   9.264  14.328
90120SOL    HW172257   8.490   9.193  14.296
90120SOL    HW272258   8.416   9.240  14.419
90121SOL     OW72259   2.147   8.238  14.860
90121SOL    HW172260   2.055   8.255  14.840
90121SOL    HW272261   2.145   8.187   0.072
90122SOL     OW72262   9.041   7.893  10.625
90122SOL    HW172263   9.047   7.859  10.536
90122SOL    HW272264   9.084   7.978  10.621
90123SOL     OW72265   8.020   7.233   1.125
90123SOL    HW172266   8.001   7.166   1.191
90123SOL    HW272267   7.937   7.246   1.080
90124SOL     OW72268   1.260   7.670  14.364
90124SOL    HW172269   1.223   7.691  14.450
90124SOL    HW272270   1.251   7.575  14.358
90125SOL     OW72271  13.528  14.265   3.982
90125SOL    HW172272  13.602  14.269   3.920
90125SOL    HW272273  13.502  14.173   3.981
90126SOL     OW72274   5.046  13.830   9.464
90126SOL    HW172275   4.970  13.772   9.470
90126SOL    HW272276   5.038  13.873   9.379
90127SOL     OW72277   2.305   5.092  13.847
90127SOL    HW172278   2.319   5.013  13.795
90127SOL    HW272279   2.218   5.081  13.885
90128SOL     OW72280   2.069   1.317   8.977
90128SOL    HW172281   2.013   1.339   8.902
90128SOL    HW272282   2.087   1.224   8.967
90129SOL     OW72283   5.650   7.522   9.774
90129SOL    HW172284   5.719   7.501   9.837
90129SOL    HW272285   5.697   7.536   9.691
90130SOL     OW72286   2.406   6.030  11.835
90130SOL    HW172287   2.343   6.095  11.866
90130SOL    HW272288   2.360   5.986  11.763
90131SOL     OW72289  12.993  13.898   8.168
90131SOL    HW172290  12.961  13.961   8.233
90131SOL    HW272291  12.975  13.813   8.207
90132SOL     OW72292   3.839   4.275   9.502
90132SOL    HW172293   3.746   4.280   9.524
90132SOL    HW272294   3.845   4.202   9.440
90133SOL     OW72295   3.737   8.819   6.305
90133SOL    HW172296   3.777   8.744   6.261
90133SOL    HW272297   3.734   8.793   6.397
90134SOL     OW72298  14.658   1.716   1.326
90134SOL    HW172299  14.597   1.650   1.294
90134SOL    HW272300  14.712   1.670   1.391
90135SOL     OW72301  11.579  10.631  10.663
90135SOL    HW172302  11.560  10.661  10.574
90135SOL    HW272303  11.665  10.590  10.658
90136SOL     OW72304  10.790  12.317  12.845
90136SOL    HW172305  10.777  12.262  12.768
90136SOL    HW272306  10.716  12.296  12.902
90137SOL     OW72307   6.859  10.537   1.447
90137SOL    HW172308   6.871  10.445   1.421
90137SOL    HW272309   6.947  10.574   1.444
90138SOL     OW72310   0.242   5.312   9.400
90138SOL    HW172311   0.287   5.229   9.381
90138SOL    HW272312   0.253   5.324   9.494
90139SOL     OW72313  11.510   8.354   7.769
90139SOL    HW172314  11.503   8.448   7.751
90139SOL    HW272315  11.449   8.339   7.841
90140SOL     OW72316  10.078   3.619  13.476
90140SOL    HW172317  10.022   3.626  13.399
90140SOL    HW272318  10.085   3.709  13.509
90141SOL     OW72319  13.930   7.177   9.748
90141SOL    HW172320  13.904   7.115   9.680
90141SOL    HW272321  13.929   7.126   9.829
90142SOL     OW72322   5.971   6.538   5.905
90142SOL    HW172323   6.041   6.600   5.884
90142SOL    HW272324   5.932   6.516   5.820
90143SOL     OW72325   4.727   8.983  11.942
90143SOL    HW172326   4.806   9.036  11.949
90143SOL    HW272327   4.756   8.894  11.961
90144SOL     OW72328  14.663   7.244   8.269
90144SOL    HW172329  14.727   7.190   8.316
90144SOL    HW272330  14.603   7.274   8.337
90145SOL     OW72331  10.222   8.874  14.604
90145SOL    HW172332  10.184   8.791  14.574
90145SOL    HW272333  10.219   8.868  14.700
90146SOL     OW72334  14.376   8.332   9.874
90146SOL    HW172335  14.435   8.391   9.922
90146SOL    HW272336  14.401   8.245   9.905
90147SOL     OW72337   6.228   7.311  12.993
90147SOL    HW172338   6.242   7.392  12.945
90147SOL    HW272339   6.136   7.289  12.978
90148SOL     OW72340   2.008  13.129   2.030
90148SOL    HW172341   2.005  13.064   1.960
90148SOL    HW272342   2.101  13.147   2.042
90149SOL     OW72343   3.492  12.863   1.270
90149SOL    HW172344   3.583  12.888   1.259
90149SOL    HW272345   3.494  12.768   1.275
90150SOL     OW72346   4.514   3.782   9.426
90150SOL    HW172347   4.530   3.700   9.472
90150SOL    HW272348   4.520   3.759   9.333
90151SOL     OW72349   4.383   7.840  12.080
90151SOL    HW172350   4.433   7.921  12.091
90151SOL    HW272351   4.412   7.784  12.152
90152SOL     OW72352  14.740  11.976   8.479
90152SOL    HW172353  14.674  11.949   8.543
90152SOL    HW272354  14.820  11.931   8.508
90153SOL     OW72355   0.456   2.511   2.601
90153SOL    HW172356   0.513   2.571   2.554
90153SOL    HW272357   0.475   2.425   2.564
90154SOL     OW72358   6.938   2.128   9.117
90154SOL    HW172359   6.886   2.185   9.173
90154SOL    HW272360   6.874   2.085   9.061
90155SOL     OW72361  11.979   1.674  13.252
90155SOL    HW172362  12.074   1.683  13.246
90155SOL    HW272363  11.949   1.757  13.289
90156SOL     OW72364   2.353   2.273   4.242
90156SOL    HW172365   2.389   2.219   4.313
90156SOL    HW272366   2.331   2.356   4.284
90157SOL     OW72367   6.005   5.239  12.804
90157SOL    HW172368   6.016   5.162  12.748
90157SOL    HW272369   6.094   5.263  12.829
90158SOL     OW72370  14.490  14.633   6.791
90158SOL    HW172371  14.558  14.625   6.858
90158SOL    HW272372  14.429  14.562   6.810
90159SOL     OW72373   7.817   0.366   5.248
90159SOL    HW172374   7.897   0.399   5.208
90159SOL    HW272375   7.748   0.386   5.184
90160SOL     OW72376   0.615   3.748   2.583
90160SOL    HW172377   0.583   3.782   2.667
90160SOL    HW272378   0.590   3.814   2.519
90161SOL     OW72379   6.381   9.503   6.447
90161SOL    HW172380   6.338   9.417   6.445
90161SOL    HW272381   6.331   9.553   6.511
90162SOL     OW72382  12.358   2.995   8.736
90162SOL    HW172383  12.328   2.918   8.785
90162SOL    HW272384  12.314   3.069   8.778
90163SOL     OW72385   8.666   9.456   9.646
90163SOL    HW172386   8.664   9.511   9.567
90163SOL    HW272387   8.733   9.391   9.629
90164SOL     OW72388   7.476   6.974  13.243
90164SOL    HW172389   7.569   6.989  13.226
90164SOL    HW272390   7.439   6.952  13.158
90165SOL     OW72391  11.795   9.011  14.084
90165SOL    HW172392  11.771   8.923  14.112
90165SOL    HW272393  11.781   9.065  14.162
90166SOL     OW72394   6.618   7.586   1.992
90166SOL    HW172395   6.600   7.502   2.033
90166SOL    HW272396   6.672   7.633   2.056
90167SOL     OW72397   6.714   4.575  14.045
90167SOL    HW172398   6.643   4.637  14.033
90167SOL    HW272399   6.714   4.521  13.965
90168SOL     OW72400   6.856  11.145  10.414
90168SOL    HW172401   6.849  11.240  10.406
90168SOL    HW272402   6.928  11.131  10.475
90169SOL     OW72403   8.520  12.578   4.007
90169SOL    HW172404   8.534  12.483   4.003
90169SOL    HW272405   8.439  12.588   4.056
90170SOL     OW72406   1.977   6.558   0.513
90170SOL    HW172407   2.041   6.499   0.552
90170SOL    HW272408   1.937   6.603   0.588
90171SOL     OW72409   8.827   3.862  12.915
90171SOL    HW172410   8.841   3.772  12.947
90171SOL    HW272411   8.752   3.855  12.856
90172SOL     OW72412  14.089   0.404   5.343
90172SOL    HW172413  14.006   0.417   5.388
90172SOL    HW272414  14.080   0.455   5.262
90173SOL     OW72415   2.493  11.710   8.881
90173SOL    HW172416   2.421  11.677   8.827
90173SOL    HW272417   2.490  11.656   8.960
90174SOL     OW72418   5.897   1.508   2.236
90174SOL    HW172419   5.843   1.586   2.225
90174SOL    HW272420   5.858   1.461   2.309
90175SOL     OW72421   0.664   2.317   9.618
90175SOL    HW172422   0.587   2.311   9.675
90175SOL    HW272423   0.723   2.377   9.664
90176SOL     OW72424  11.665   8.094   8.688
90176SOL    HW172425  11.620   8.040   8.753
90176SOL    HW272426  11.594   8.127   8.632
90177SOL     OW72427   2.343  14.187   6.391
90177SOL    HW172428   2.371  14.173   6.301
90177SOL    HW272429   2.379  14.113   6.440
90178SOL     OW72430   2.572   0.143   4.121
90178SOL    HW172431   2.587   0.050   4.103
90178SOL    HW272432   2.658   0.184   4.109
90179SOL     OW72433  10.924   7.285   1.078
90179SOL    HW172434  10.987   7.339   1.125
90179SOL    HW272435  10.843   7.293   1.127
90180SOL     OW72436  10.313   4.164   9.502
90180SOL    HW172437  10.344   4.173   9.412
90180SOL    HW272438  10.233   4.215   9.505
90181SOL     OW72439   0.838   3.648   2.096
90181SOL    HW172440   0.917   3.689   2.132
90181SOL    HW272441   0.817   3.702   2.020
90182SOL     OW72442  11.467  11.504  10.179
90182SOL    HW172443  11.380  11.472  10.153
90182SOL    HW272444  11.473  11.591  10.140
90183SOL     OW72445   0.010   8.567   0.328
90183SOL    HW172446   0.074   8.512   0.282
90183SOL    HW272447   0.001   8.526   0.413
90184SOL     OW72448  12.980   6.752   6.125
90184SOL    HW172449  12.898   6.709   6.102
90184SOL    HW272450  12.983   6.748   6.221
90185SOL     OW72451  14.771  14.298  10.399
90185SOL    HW172452  14.715  14.298  10.321
90185SOL    HW272453  14.856  14.328  10.368
90186SOL     OW72454   7.544   8.761   7.702
90186SOL    HW172455   7.470   8.704   7.681
90186SOL    HW272456   7.567   8.803   7.619
90187SOL     OW72457   4.610   5.948  11.934
90187SOL    HW172458   4.605   5.893  12.013
90187SOL    HW272459   4.691   5.919  11.891
90188SOL     OW72460   0.272   7.090  11.248
90188SOL    HW172461   0.298   7.148  11.176
90188SOL    HW272462   0.341   7.025  11.253
90189SOL     OW72463   7.329  12.334  11.284
90189SOL    HW172464   7.279  12.340  11.366
90189SOL    HW272465   7.353  12.241  11.278
90190SOL     OW72466  11.265   1.925   2.593
90190SOL    HW172467  11.248   1.833   2.611
90190SOL    HW272468  11.179   1.962   2.573
90191SOL     OW72469  12.645  13.781  12.984
90191SOL    HW172470  12.661  13.829  13.066
90191SOL    HW272471  12.555  13.751  12.991
90192SOL     OW72472   5.786   3.834   0.138
90192SOL    HW172473   5.747   3.848   0.224
90192SOL    HW272474   5.873   3.799   0.157
90193SOL     OW72475  14.297  11.491  12.890
90193SOL    HW172476  14.240  11.532  12.825
90193SOL    HW272477  14.237  11.453  12.954
90194SOL     OW72478   7.027   4.556  14.770
90194SOL    HW172479   6.968   4.492  14.811
90194SOL    HW272480   6.976   4.637  14.766
90195SOL     OW72481   4.428   9.636   6.374
90195SOL    HW172482   4.407   9.580   6.448
90195SOL    HW272483   4.393   9.722   6.397
90196SOL     OW72484   3.016   4.543   5.032
90196SOL    HW172485   3.031   4.610   5.098
90196SOL    HW272486   2.928   4.509   5.051
90197SOL     OW72487   1.001  13.750  10.909
90197SOL    HW172488   0.939  13.719  10.843
90197SOL    HW272489   1.084  13.708  10.885
90198SOL     OW72490   0.024  13.295  11.737
90198SOL    HW172491  14.827  13.363  11.748
90198SOL    HW272492   0.106  13.337  11.764
90199SOL     OW72493   0.277   3.539   4.096
90199SOL    HW172494   0.220   3.593   4.041
90199SOL    HW272495   0.309   3.471   4.037
90200SOL     OW72496   1.150  12.419   9.970
90200SOL    HW172497   1.089  12.469   9.916
90200SOL    HW272498   1.190  12.356   9.910
90201SOL     OW72499  13.531   9.021   5.841
90201SOL    HW172500  13.594   9.084   5.876
90201SOL    HW272501  13.554   9.014   5.748
90202SOL     OW72502   6.269   7.312  12.359
90202SOL    HW172503   6.221   7.234  12.330
90202SOL    HW272504   6.236   7.328  12.447
90203SOL     OW72505  14.259   3.488   7.520
90203SOL    HW172506  14.330   3.521   7.465
90203SOL    HW272507  14.212   3.566   7.548
90204SOL     OW72508  13.503  13.252  10.035
90204SOL    HW172509  13.478  13.332  10.080
90204SOL    HW272510  13.419  13.214  10.006
90205SOL     OW72511   9.478   2.638   6.106
90205SOL    HW172512   9.543   2.620   6.174
90205SOL    HW272513   9.427   2.557   6.101
90206SOL     OW72514   8.766  12.806  13.786
90206SOL    HW172515   8.717  12.888  13.783
90206SOL    HW272516   8.798  12.800  13.876
90207SOL     OW72517   0.757   7.689   2.161
90207SOL    HW172518   0.834   7.735   2.126
90207SOL    HW272519   0.690   7.700   2.093
90208SOL     OW72520  12.939   5.594  10.735
90208SOL    HW172521  12.857   5.619  10.693
90208SOL    HW272522  12.913   5.550  10.815
90209SOL     OW72523   8.448   3.161   4.998
90209SOL    HW172524   8.403   3.230   4.950
90209SOL    HW272525   8.390   3.138   5.070
90210SOL     OW72526  11.127   7.876   6.663
90210SOL    HW172527  11.214   7.837   6.649
90210SOL    HW272528  11.136   7.966   6.633
90211SOL     OW72529   7.909  11.043   8.941
90211SOL    HW172530   7.923  10.953   8.969
90211SOL    HW272531   7.814  11.049   8.926
90212SOL     OW72532   6.889  12.858   5.349
90212SOL    HW172533   6.913  12.887   5.437
90212SOL    HW272534   6.882  12.939   5.299
90213SOL     OW72535   0.846   1.027  14.782
90213SOL    HW172536   0.851   1.102  14.841
90213SOL    HW272537   0.819   1.065  14.698
90214SOL     OW72538   8.666   2.305  10.087
90214SOL    HW172539   8.581   2.334  10.054
90214SOL    HW272540   8.644   2.238  10.152
90215SOL     OW72541   5.373  10.141  10.648
90215SOL    HW172542   5.422  10.206  10.598
90215SOL    HW272543   5.403  10.152  10.738
90216SOL     OW72544  11.502   4.832   6.161
90216SOL    HW172545  11.568   4.762   6.157
90216SOL    HW272546  11.541   4.904   6.111
90217SOL     OW72547   8.189  13.009   5.281
90217SOL    HW172548   8.182  13.051   5.195
90217SOL    HW272549   8.142  12.927   5.272
90218SOL     OW72550   6.183   8.508   0.656
90218SOL    HW172551   6.189   8.444   0.727
90218SOL    HW272552   6.195   8.592   0.699
90219SOL     OW72553   1.091   3.124   3.858
90219SOL    HW172554   1.050   3.087   3.937
90219SOL    HW272555   1.018   3.134   3.796
90220SOL     OW72556  11.582   5.259   5.830
90220SOL    HW172557  11.513   5.316   5.862
90220SOL    HW272558  11.659   5.315   5.825
90221SOL     OW72559   5.433   5.271  14.462
90221SOL    HW172560   5.456   5.184  14.494
90221SOL    HW272561   5.415   5.258  14.369
90222SOL     OW72562  12.410   9.423  13.833
90222SOL    HW172563  12.435   9.483  13.763
90222SOL    HW272564  12.318   9.403  13.816
90223SOL     OW72565   4.518   8.416  11.654
90223SOL    HW172566   4.550   8.507  11.658
90223SOL    HW272567   4.471   8.404  11.736
90224SOL     OW72568  12.871   4.073   5.240
90224SOL    HW172569  12.786   4.028   5.235
90224SOL    HW272570  12.867   4.138   5.170
90225SOL     OW72571   0.411   1.747   3.224
90225SOL    HW172572   0.394   1.653   3.216
90225SOL    HW272573   0.345   1.788   3.168
90226SOL     OW72574  11.447  11.042  10.821
90226SOL    HW172575  11.519  11.010  10.875
90226SOL    HW272576  11.422  11.125  10.861
90227SOL     OW72577   9.511   0.041   8.014
90227SOL    HW172578   9.528   0.094   7.935
90227SOL    HW272579   9.597   0.014   8.044
90228SOL     OW72580   2.533   6.170   1.876
90228SOL    HW172581   2.447   6.136   1.850
90228SOL    HW272582   2.545   6.138   1.965
90229SOL     OW72583   9.001  12.411   1.035
90229SOL    HW172584   8.978  12.433   1.125
90229SOL    HW272585   9.089  12.445   1.024
90230SOL     OW72586   1.909   7.404   3.850
90230SOL    HW172587   1.922   7.457   3.928
90230SOL    HW272588   1.821   7.427   3.819
90231SOL     OW72589  12.803   0.245   5.100
90231SOL    HW172590  12.772   0.290   5.178
90231SOL    HW272591  12.835   0.316   5.043
90232SOL     OW72592   8.397   6.558  12.347
90232SOL    HW172593   8.331   6.571  12.279
90232SOL    HW272594   8.407   6.644  12.388
90233SOL     OW72595  10.587   5.893   9.021
90233SOL    HW172596  10.650   5.828   8.989
90233SOL    HW272597  10.502   5.858   8.994
90234SOL     OW72598   1.115   0.315   6.123
90234SOL    HW172599   1.075   0.271   6.198
90234SOL    HW272600   1.204   0.335   6.151
90235SOL     OW72601  12.221   0.224   6.229
90235SOL    HW172602  12.251   0.175   6.305
90235SOL    HW272603  12.244   0.169   6.154
90236SOL     OW72604   4.060   4.627   0.757
90236SOL    HW172605   4.131   4.574   0.792
90236SOL    HW272606   4.082   4.636   0.664
90237SOL     OW72607   5.835   1.494   9.281
90237SOL    HW172608   5.926   1.525   9.282
90237SOL    HW272609   5.841   1.401   9.261
90238SOL     OW72610  14.735  11.059   1.834
90238SOL    HW172611  14.719  11.019   1.748
90238SOL    HW272612  14.830  11.066   1.840
90239SOL     OW72613   3.322   2.645   7.013
90239SOL    HW172614   3.248   2.632   6.954
90239SOL    HW272615   3.364   2.725   6.981
90240SOL     OW72616   9.333  11.999  12.408
90240SOL    HW172617   9.387  11.987  12.330
90240SOL    HW272618   9.357  11.927  12.466
90241SOL     OW72619  13.376   6.925   3.643
90241SOL    HW172620  13.444   6.882   3.695
90241SOL    HW272621  13.327   6.852   3.604
90242SOL     OW72622   7.158   9.522   5.984
90242SOL    HW172623   7.123   9.609   5.969
90242SOL    HW272624   7.185   9.491   5.897
90243SOL     OW72625   9.310   8.537   4.844
90243SOL    HW172626   9.291   8.523   4.751
90243SOL    HW272627   9.384   8.479   4.862
90244SOL     OW72628   8.430   5.043  14.451
90244SOL    HW172629   8.344   5.067  14.486
90244SOL    HW272630   8.431   4.947  14.453
90245SOL     OW72631  14.074  11.668   6.999
90245SOL    HW172632  14.149  11.652   7.056
90245SOL    HW272633  14.069  11.764   6.994
90246SOL     OW72634   5.830   4.517  14.211
90246SOL    HW172635   5.795   4.528  14.122
90246SOL    HW272636   5.772   4.453  14.252
90247SOL     OW72637  11.900  10.759   0.764
90247SOL    HW172638  11.880  10.768   0.671
90247SOL    HW272639  11.963  10.829   0.782
90248SOL     OW72640  10.550   6.564  12.046
90248SOL    HW172641  10.535   6.584  11.954
90248SOL    HW272642  10.464   6.539  12.080
90249SOL     OW72643  10.357   1.313  11.741
90249SOL    HW172644  10.303   1.315  11.662
90249SOL    HW272645  10.303   1.355  11.808
90250SOL     OW72646   0.811   6.977   6.076
90250SOL    HW172647   0.766   7.053   6.039
90250SOL    HW272648   0.741   6.914   6.094
90251SOL     OW72649   9.076   8.433   8.016
90251SOL    HW172650   9.050   8.524   8.033
90251SOL    HW272651   9.019   8.405   7.944
90252SOL     OW72652  10.674   1.520   4.635
90252SOL    HW172653  10.630   1.544   4.553
90252SOL    HW272654  10.672   1.425   4.636
90253SOL     OW72655   9.687  14.286   7.023
90253SOL    HW172656   9.740  14.276   7.102
90253SOL    HW272657   9.597  14.287   7.054
90254SOL     OW72658   3.278   2.495   8.130
90254SOL    HW172659   3.239   2.493   8.217
90254SOL    HW272660   3.268   2.405   8.098
90255SOL     OW72661   7.169   9.196  11.621
90255SOL    HW172662   7.105   9.160  11.684
90255SOL    HW272663   7.250   9.202  11.671
90256SOL     OW72664   4.022   0.102  14.720
90256SOL    HW172665   4.103   0.120  14.768
90256SOL    HW272666   4.050   0.052  14.644
90257SOL     OW72667   6.436   8.235  14.029
90257SOL    HW172668   6.475   8.303  13.973
90257SOL    HW272669   6.379   8.185  13.970
90258SOL     OW72670  10.782   3.862  13.712
90258SOL    HW172671  10.713   3.904  13.763
90258SOL    HW272672  10.788   3.914  13.632
90259SOL     OW72673  11.784  14.031   0.505
90259SOL    HW172674  11.742  14.044   0.419
90259SOL    HW272675  11.735  14.088   0.564
90260SOL     OW72676   3.886   9.001  13.272
90260SOL    HW172677   3.798   8.979  13.241
90260SOL    HW272678   3.930   8.917  13.281
90261SOL     OW72679  12.729   9.540  12.188
90261SOL    HW172680  12.710   9.593  12.110
90261SOL    HW272681  12.785   9.595  12.242
90262SOL     OW72682   8.602   0.335   4.065
90262SOL    HW172683   8.671   0.296   4.011
90262SOL    HW272684   8.593   0.424   4.032
90263SOL     OW72685   2.685   0.235   8.637
90263SOL    HW172686   2.734   0.276   8.565
90263SOL    HW272687   2.682   0.303   8.705
90264SOL     OW72688   5.774   8.021   1.049
90264SOL    HW172689   5.716   8.049   0.979
90264SOL    HW272690   5.741   7.935   1.075
90265SOL     OW72691  13.338   7.410   3.715
90265SOL    HW172692  13.348   7.319   3.685
90265SOL    HW272693  13.272   7.448   3.657
90266SOL     OW72694   8.947   9.546   0.836
90266SOL    HW172695   8.958   9.640   0.845
90266SOL    HW272696   8.966   9.510   0.922
90267SOL     OW72697   6.638  13.971   3.476
90267SOL    HW172698   6.576  14.043   3.479
90267SOL    HW272699   6.628  13.927   3.561
90268SOL     OW72700   1.059   4.318   1.641
90268SOL    HW172701   1.119   4.265   1.692
90268SOL    HW272702   1.096   4.406   1.645
90269SOL     OW72703  13.098  14.138   2.373
90269SOL    HW172704  13.158  14.171   2.440
90269SOL    HW272705  13.142  14.061   2.338
90270SOL     OW72706  11.522  11.873   4.266
90270SOL    HW172707  11.437  11.856   4.307
90270SOL    HW272708  11.524  11.815   4.190
90271SOL     OW72709   4.984   5.109   8.324
90271SOL    HW172710   5.000   5.016   8.339
90271SOL    HW272711   5.033   5.129   8.244
90272SOL     OW72712   0.009  14.385   3.885
90272SOL    HW172713  14.784  14.390   3.901
90272SOL    HW272714   0.022  14.434   3.804
90273SOL     OW72715  10.202  13.359   5.325
90273SOL    HW172716  10.131  13.392   5.379
90273SOL    HW272717  10.282  13.385   5.372
90274SOL     OW72718  14.436   3.391  10.741
90274SOL    HW172719  14.427   3.341  10.660
90274SOL    HW272720  14.373   3.463  10.731
90275SOL     OW72721  13.762   3.445   2.906
90275SOL    HW172722  13.855   3.466   2.893
90275SOL    HW272723  13.716   3.526   2.887
90276SOL     OW72724   2.858   7.679   6.630
90276SOL    HW172725   2.877   7.603   6.574
90276SOL    HW272726   2.772   7.659   6.668
90277SOL     OW72727  14.192  14.740  10.171
90277SOL    HW172728  14.287  14.752  10.175
90277SOL    HW272729  14.159  14.823  10.138
90278SOL     OW72730  11.043  10.865  14.552
90278SOL    HW172731  11.035  10.857  14.647
90278SOL    HW272732  11.127  10.824  14.531
90279SOL     OW72733   5.571   3.785   8.778
90279SOL    HW172734   5.592   3.716   8.715
90279SOL    HW272735   5.517   3.742   8.844
90280SOL     OW72736  13.875   9.197   6.596
90280SOL    HW172737  13.861   9.111   6.635
90280SOL    HW272738  13.843   9.189   6.507
90281SOL     OW72739   8.645   2.101  10.569
90281SOL    HW172740   8.694   2.175  10.535
90281SOL    HW272741   8.643   2.038  10.496
90282SOL     OW72742  11.715   2.872  14.730
90282SOL    HW172743  11.767   2.925  14.670
90282SOL    HW272744  11.760   2.788  14.734
90283SOL     OW72745  11.770   1.548  12.166
90283SOL    HW172746  11.804   1.527  12.079
90283SOL    HW272747  11.675   1.545  12.156
90284SOL     OW72748   8.449   4.050   7.676
90284SOL    HW172749   8.386   4.037   7.606
90284SOL    HW272750   8.404   4.022   7.755
90285SOL     OW72751  14.049  11.028  12.054
90285SOL    HW172752  14.049  11.045  11.960
90285SOL    HW272753  14.141  11.025  12.079
90286SOL     OW72754   3.625   9.556   3.868
90286SOL    HW172755   3.620   9.552   3.963
90286SOL    HW272756   3.603   9.468   3.838
90287SOL     OW72757  10.996   2.710  13.888
90287SOL    HW172758  11.068   2.651  13.865
90287SOL    HW272759  11.032   2.797  13.878
90288SOL     OW72760  10.410  13.577   2.741
90288SOL    HW172761  10.473  13.624   2.686
90288SOL    HW272762  10.461  13.547   2.816
90289SOL     OW72763   5.397   9.993   2.085
90289SOL    HW172764   5.388  10.070   2.141
90289SOL    HW272765   5.339   9.928   2.125
90290SOL     OW72766  12.697   6.587  10.483
90290SOL    HW172767  12.615   6.548  10.513
90290SOL    HW272768  12.721   6.537  10.405
90291SOL     OW72769   0.233   1.980  13.794
90291SOL    HW172770   0.147   1.970  13.836
90291SOL    HW272771   0.259   2.069  13.814
90292SOL     OW72772  12.828   0.979   4.744
90292SOL    HW172773  12.764   1.047   4.766
90292SOL    HW272774  12.883   0.971   4.822
90293SOL     OW72775   1.114   4.660   6.732
90293SOL    HW172776   1.126   4.653   6.637
90293SOL    HW272777   1.197   4.695   6.764
90294SOL     OW72778  14.719   2.987  12.140
90294SOL    HW172779  14.662   2.924  12.185
90294SOL    HW272780  14.806   2.969  12.174
90295SOL     OW72781   1.414   0.149   3.376
90295SOL    HW172782   1.322   0.124   3.368
90295SOL    HW272783   1.440   0.115   3.462
90296SOL     OW72784   9.965   1.006   9.047
90296SOL    HW172785   9.968   0.927   8.993
90296SOL    HW272786   9.881   1.000   9.092
90297SOL     OW72787  11.329   1.681  11.776
90297SOL    HW172788  11.369   1.594  11.779
90297SOL    HW272789  11.342   1.717  11.864
90298SOL     OW72790   0.118   2.706  11.873
90298SOL    HW172791   0.105   2.726  11.780
90298SOL    HW272792   0.116   2.611  11.878
90299SOL     OW72793  10.056   7.135  12.602
90299SOL    HW172794  10.030   7.047  12.629
90299SOL    HW272795   9.984   7.165  12.546
90300SOL     OW72796   6.982  10.178  13.113
90300SOL    HW172797   7.074  10.152  13.123
90300SOL    HW272798   6.974  10.258  13.166
90301SOL     OW72799  13.058   2.532  12.799
90301SOL    HW172800  12.986   2.477  12.768
90301SOL    HW272801  13.082   2.494  12.884
90302SOL     OW72802  14.747   2.098   9.954
90302SOL    HW172803  14.815   2.049  10.000
90302SOL    HW272804  14.682   2.032   9.929
90303SOL     OW72805  11.306   2.791   8.011
90303SOL    HW172806  11.385   2.801   7.959
90303SOL    HW272807  11.298   2.874   8.058
90304SOL     OW72808  13.568  12.186   9.992
90304SOL    HW172809  13.578  12.269  10.039
90304SOL    HW272810  13.475  12.181   9.973
90305SOL     OW72811   9.193  12.772  10.086
90305SOL    HW172812   9.253  12.698  10.077
90305SOL    HW272813   9.236  12.844  10.041
90306SOL     OW72814   0.564   1.259  11.733
90306SOL    HW172815   0.485   1.226  11.691
90306SOL    HW272816   0.615   1.296  11.661
90307SOL     OW72817  14.579  13.087  12.419
90307SOL    HW172818  14.490  13.118  12.402
90307SOL    HW272819  14.632  13.129  12.351
90308SOL     OW72820   2.621   7.800   4.309
90308SOL    HW172821   2.652   7.710   4.300
90308SOL    HW272822   2.699   7.854   4.292
90309SOL     OW72823   2.839  11.422  14.113
90309SOL    HW172824   2.932  11.420  14.092
90309SOL    HW272825   2.795  11.388  14.035
90310SOL     OW72826   6.452  10.259   8.807
90310SOL    HW172827   6.425  10.187   8.750
90310SOL    HW272828   6.459  10.218   8.894
90311SOL     OW72829   1.801   1.713   3.347
90311SOL    HW172830   1.762   1.658   3.279
90311SOL    HW272831   1.861   1.655   3.393
90312SOL     OW72832   7.477   0.959   5.129
90312SOL    HW172833   7.431   1.036   5.096
90312SOL    HW272834   7.473   0.967   5.224
90313SOL     OW72835   8.474   3.203   6.704
90313SOL    HW172836   8.542   3.264   6.677
90313SOL    HW272837   8.520   3.137   6.755
90314SOL     OW72838   5.087   2.804  13.048
90314SOL    HW172839   5.164   2.749  13.035
90314SOL    HW272840   5.023   2.770  12.986
90315SOL     OW72841   2.877  11.673   9.047
90315SOL    HW172842   2.954  11.696   9.099
90315SOL    HW272843   2.846  11.757   9.013
90316SOL     OW72844   2.505  10.999   0.803
90316SOL    HW172845   2.600  11.009   0.808
90316SOL    HW272846   2.480  10.972   0.891
90317SOL     OW72847  13.871   4.954   2.003
90317SOL    HW172848  13.883   5.049   2.009
90317SOL    HW272849  13.922   4.928   1.927
90318SOL     OW72850   5.351   6.592  13.535
90318SOL    HW172851   5.427   6.646  13.559
90318SOL    HW272852   5.278   6.654  13.530
90319SOL     OW72853   5.661   6.014   2.812
90319SOL    HW172854   5.737   5.955   2.822
90319SOL    HW272855   5.661   6.066   2.892
90320SOL     OW72856  12.677   8.808   0.946
90320SOL    HW172857  12.612   8.874   0.923
90320SOL    HW272858  12.698   8.766   0.862
90321SOL     OW72859   6.150   9.978   0.431
90321SOL    HW172860   6.211  10.005   0.499
90321SOL    HW272861   6.144  10.053   0.373
90322SOL     OW72862  11.783   3.958   2.871
90322SOL    HW172863  11.828   3.906   2.938
90322SOL    HW272864  11.699   3.915   2.859
90323SOL     OW72865   8.698   8.812   1.395
90323SOL    HW172866   8.606   8.796   1.375
90323SOL    HW272867   8.725   8.737   1.447
90324SOL     OW72868   3.931  10.553   6.976
90324SOL    HW172869   4.020  10.528   6.999
90324SOL    HW272870   3.910  10.499   6.900
90325SOL     OW72871   7.535   1.104  14.562
90325SOL    HW172872   7.460   1.163  14.575
90325SOL    HW272873   7.603   1.139  14.620
90326SOL     OW72874   6.262   0.923   4.173
90326SOL    HW172875   6.217   0.871   4.239
90326SOL    HW272876   6.274   1.009   4.213
90327SOL     OW72877  13.942  10.616   1.563
90327SOL    HW172878  13.853  10.596   1.593
90327SOL    HW272879  13.963  10.699   1.606
90328SOL     OW72880   0.274   0.835   6.847
90328SOL    HW172881   0.369   0.843   6.838
90328SOL    HW272882   0.259   0.808   6.937
90329SOL     OW72883   9.920   3.064  10.355
90329SOL    HW172884   9.855   3.133  10.367
90329SOL    HW272885   9.882   2.987  10.398
90330SOL     OW72886   6.546  14.805   9.720
90330SOL    HW172887   6.623  14.756   9.750
90330SOL    HW272888   6.507  14.749   9.653
90331SOL     OW72889   3.182   4.213   4.304
90331SOL    HW172890   3.130   4.153   4.356
90331SOL    HW272891   3.117   4.263   4.254
90332SOL     OW72892  13.360   4.647  10.124
90332SOL    HW172893  13.282   4.595  10.142
90332SOL    HW272894  13.358   4.717  10.189
90333SOL     OW72895   3.575   6.222  13.868
90333SOL    HW172896   3.604   6.182  13.950
90333SOL    HW272897   3.480   6.214  13.869
90334SOL     OW72898  13.518   3.566   9.477
90334SOL    HW172899  13.551   3.478   9.497
90334SOL    HW272900  13.502   3.605   9.563
90335SOL     OW72901   2.948   7.851   8.099
90335SOL    HW172902   2.926   7.925   8.043
90335SOL    HW272903   3.033   7.873   8.136
90336SOL     OW72904   0.639  10.396   2.658
90336SOL    HW172905   0.622  10.323   2.717
90336SOL    HW272906   0.582  10.466   2.689
90337SOL     OW72907   9.872  14.260   3.905
90337SOL    HW172908   9.832  14.174   3.890
90337SOL    HW272909   9.956  14.241   3.946
90338SOL     OW72910   5.401  13.976   0.967
90338SOL    HW172911   5.465  14.045   0.949
90338SOL    HW272912   5.346  14.011   1.036
90339SOL     OW72913   8.524   2.015  12.743
90339SOL    HW172914   8.593   2.004  12.677
90339SOL    HW272915   8.489   2.103  12.726
90340SOL     OW72916  14.174   9.643   6.298
90340SOL    HW172917  14.126   9.562   6.316
90340SOL    HW272918  14.110   9.700   6.255
90341SOL     OW72919   9.836  11.589   0.455
90341SOL    HW172920   9.850  11.499   0.485
90341SOL    HW272921   9.750  11.613   0.491
90342SOL     OW72922   0.742  13.850   9.974
90342SOL    HW172923   0.683  13.792   9.925
90342SOL    HW272924   0.822  13.851   9.922
90343SOL     OW72925  10.357   1.685  10.222
90343SOL    HW172926  10.359   1.755  10.157
90343SOL    HW272927  10.427   1.706  10.283
90344SOL     OW72928   1.317   4.564   5.106
90344SOL    HW172929   1.386   4.565   5.171
90344SOL    HW272930   1.245   4.612   5.147
90345SOL     OW72931   0.020  14.431   5.417
90345SOL    HW172932   0.050  14.500   5.476
90345SOL    HW272933   0.010  14.354   5.474
90346SOL     OW72934   2.923   7.643   4.078
90346SOL    HW172935   2.947   7.681   4.162
90346SOL    HW272936   2.972   7.561   4.073
90347SOL     OW72937   7.267  12.436   7.052
90347SOL    HW172938   7.335  12.502   7.036
90347SOL    HW272939   7.271  12.379   6.975
90348SOL     OW72940  10.395   1.367   0.772
90348SOL    HW172941  10.329   1.345   0.705
90348SOL    HW272942  10.347   1.364   0.854
90349SOL     OW72943   0.311   2.751  14.630
90349SOL    HW172944   0.284   2.794  14.549
90349SOL    HW272945   0.322   2.659  14.605
90350SOL     OW72946   8.602   7.607  10.504
90350SOL    HW172947   8.640   7.694  10.510
90350SOL    HW272948   8.671   7.553  10.465
90351SOL     OW72949   7.812  14.541  12.241
90351SOL    HW172950   7.768  14.604  12.184
90351SOL    HW272951   7.801  14.575  12.329
90352SOL     OW72952  14.517   1.290   6.360
90352SOL    HW172953  14.482   1.359   6.303
90352SOL    HW272954  14.574   1.337   6.421
90353SOL     OW72955   5.841   4.574   5.660
90353SOL    HW172956   5.765   4.523   5.631
90353SOL    HW272957   5.894   4.511   5.709
90354SOL     OW72958   5.329   1.772   8.943
90354SOL    HW172959   5.390   1.705   8.913
90354SOL    HW272960   5.284   1.801   8.864
90355SOL     OW72961   1.900   3.471   2.437
90355SOL    HW172962   1.824   3.440   2.485
90355SOL    HW272963   1.884   3.565   2.425
90356SOL     OW72964   5.560   5.603  13.997
90356SOL    HW172965   5.589   5.627  13.909
90356SOL    HW272966   5.543   5.686  14.041
90357SOL     OW72967   3.580   2.936  12.161
90357SOL    HW172968   3.551   2.934  12.070
90357SOL    HW272969   3.512   2.986  12.207
90358SOL     OW72970   3.016   0.204  11.018
90358SOL    HW172971   3.066   0.123  11.017
90358SOL    HW272972   2.960   0.197  11.095
90359SOL     OW72973  10.340  13.566   0.403
90359SOL    HW172974  10.384  13.650   0.419
90359SOL    HW272975  10.351  13.517   0.485
90360SOL     OW72976   9.298   2.580   4.446
90360SOL    HW172977   9.295   2.675   4.460
90360SOL    HW272978   9.391   2.559   4.448
90361SOL     OW72979  11.632   2.860  10.208
90361SOL    HW172980  11.603   2.793  10.146
90361SOL    HW272981  11.665   2.931  10.153
90362SOL     OW72982   5.238  12.612  11.269
90362SOL    HW172983   5.263  12.555  11.197
90362SOL    HW272984   5.203  12.553  11.336
90363SOL     OW72985   5.622   0.514   4.425
90363SOL    HW172986   5.698   0.526   4.368
90363SOL    HW272987   5.651   0.539   4.512
90364SOL     OW72988   6.339   0.992   7.614
90364SOL    HW172989   6.280   0.946   7.674
90364SOL    HW272990   6.416   0.936   7.609
90365SOL     OW72991   1.499   2.725  12.772
90365SOL    HW172992   1.498   2.820  12.763
90365SOL    HW272993   1.580   2.706  12.819
90366SOL     OW72994  12.593   5.096  11.151
90366SOL    HW172995  12.685   5.116  11.132
90366SOL    HW272996  12.544   5.170  11.115
90367SOL     OW72997   6.001  13.751   4.802
90367SOL    HW172998   5.938  13.679   4.788
90367SOL    HW272999   5.951  13.817   4.849
90368SOL     OW73000   6.402   8.370   5.297
90368SOL    HW173001   6.358   8.451   5.272
90368SOL    HW273002   6.362   8.303   5.241
90369SOL     OW73003   2.166   0.564   9.297
90369SOL    HW173004   2.133   0.552   9.385
90369SOL    HW273005   2.226   0.491   9.283
90370SOL     OW73006   3.737   8.240  11.822
90370SOL    HW173007   3.754   8.188  11.901
90370SOL    HW273008   3.699   8.178  11.760
90371SOL     OW73009  13.586  11.216   5.600
90371SOL    HW173010  13.557  11.284   5.660
90371SOL    HW273011  13.678  11.237   5.583
90372SOL     OW73012   0.252   3.498   4.969
90372SOL    HW173013   0.289   3.586   4.970
90372SOL    HW273014   0.206   3.493   4.885
90373SOL     OW73015  11.126  12.311  14.102
90373SOL    HW173016  11.092  12.392  14.063
90373SOL    HW273017  11.181  12.272  14.034
90374SOL     OW73018   8.156   9.550   7.215
90374SOL    HW173019   8.216   9.511   7.151
90374SOL    HW273020   8.071   9.549   7.172
90375SOL     OW73021   2.274  14.751  13.223
90375SOL    HW173022   2.201  14.752  13.285
90375SOL    HW273023   2.251  14.683  13.160
90376SOL     OW73024   1.682   9.499  14.430
90376SOL    HW173025   1.666   9.550  14.351
90376SOL    HW273026   1.698   9.410  14.399
90377SOL     OW73027  11.633   4.005   3.204
90377SOL    HW173028  11.711   4.060   3.201
90377SOL    HW273029  11.580   4.034   3.130
90378SOL     OW73030   8.032   0.528   5.487
90378SOL    HW173031   8.033   0.609   5.539
90378SOL    HW273032   8.123   0.499   5.487
90379SOL     OW73033  14.709   1.310   7.793
90379SOL    HW173034  14.777   1.358   7.839
90379SOL    HW273035  14.671   1.374   7.732
90380SOL     OW73036   4.958  12.229  10.176
90380SOL    HW173037   4.923  12.141  10.172
90380SOL    HW273038   5.037  12.221  10.230
90381SOL     OW73039   6.254   0.990   8.706
90381SOL    HW173040   6.268   0.933   8.782
90381SOL    HW273041   6.253   1.078   8.742
90382SOL     OW73042  10.837   4.257   0.698
90382SOL    HW173043  10.759   4.253   0.754
90382SOL    HW273044  10.906   4.287   0.757
90383SOL     OW73045  11.120  14.744   1.236
90383SOL    HW173046  11.165  14.795   1.168
90383SOL    HW273047  11.188  14.727   1.302
90384SOL     OW73048   7.031   6.533   5.869
90384SOL    HW173049   7.058   6.608   5.923
90384SOL    HW273050   7.109   6.511   5.818
90385SOL     OW73051  12.633   2.225   1.264
90385SOL    HW173052  12.685   2.240   1.185
90385SOL    HW273053  12.665   2.290   1.327
90386SOL     OW73054   9.274  10.969   9.110
90386SOL    HW173055   9.348  11.029   9.104
90386SOL    HW273056   9.307  10.895   9.161
90387SOL     OW73057   7.545  13.767   6.987
90387SOL    HW173058   7.510  13.856   6.991
90387SOL    HW273059   7.617  13.772   6.925
90388SOL     OW73060  13.401  10.732   8.003
90388SOL    HW173061  13.455  10.810   7.993
90388SOL    HW273062  13.361  10.718   7.917
90389SOL     OW73063   6.569  11.908   9.960
90389SOL    HW173064   6.505  11.976   9.941
90389SOL    HW273065   6.628  11.948  10.024
90390SOL     OW73066   5.415   3.590   5.623
90390SOL    HW173067   5.408   3.591   5.527
90390SOL    HW273068   5.471   3.515   5.642
90391SOL     OW73069   6.904   5.478  13.742
90391SOL    HW173070   6.939   5.438  13.662
90391SOL    HW273071   6.810   5.461  13.739
90392SOL     OW73072   9.119  11.874  14.449
90392SOL    HW173073   9.210  11.883  14.477
90392SOL    HW273074   9.116  11.793  14.400
90393SOL     OW73075  12.056  10.921   2.642
90393SOL    HW173076  12.086  10.894   2.728
90393SOL    HW273077  12.135  10.918   2.587
90394SOL     OW73078  12.648  11.932  12.231
90394SOL    HW173079  12.636  12.023  12.202
90394SOL    HW273080  12.689  11.889  12.157
90395SOL     OW73081   9.350   1.316   3.750
90395SOL    HW173082   9.285   1.248   3.768
90395SOL    HW273083   9.363   1.313   3.656
90396SOL     OW73084   6.877   0.316   8.958
90396SOL    HW173085   6.911   0.384   8.901
90396SOL    HW273086   6.825   0.259   8.901
90397SOL     OW73087   8.097   2.811   3.657
90397SOL    HW173088   8.061   2.834   3.743
90397SOL    HW273089   8.182   2.771   3.677
90398SOL     OW73090  10.528   1.130  11.816
90398SOL    HW173091  10.444   1.166  11.790
90398SOL    HW273092  10.566   1.195  11.875
90399SOL     OW73093   1.638   6.284   5.831
90399SOL    HW173094   1.620   6.240   5.914
90399SOL    HW273095   1.710   6.344   5.851
90400SOL     OW73096  11.322   9.840   7.919
90400SOL    HW173097  11.281   9.916   7.959
90400SOL    HW273098  11.336   9.779   7.992
90401SOL     OW73099  14.347   2.271   1.892
90401SOL    HW173100  14.423   2.325   1.872
90401SOL    HW273101  14.350   2.259   1.987
90402SOL     OW73102  12.290   0.087  11.375
90402SOL    HW173103  12.304  14.865  11.350
90402SOL    HW273104  12.378   0.122  11.389
90403SOL     OW73105  12.316   5.468   4.671
90403SOL    HW173106  12.329   5.382   4.631
90403SOL    HW273107  12.376   5.525   4.623
90404SOL     OW73108   6.694   6.998   6.786
90404SOL    HW173109   6.601   6.991   6.807
90404SOL    HW273110   6.719   7.086   6.814
90405SOL     OW73111   7.167   4.925   7.731
90405SOL    HW173112   7.079   4.894   7.752
90405SOL    HW273113   7.168   5.016   7.760
90406SOL     OW73114   7.705  13.965   5.666
90406SOL    HW173115   7.713  13.990   5.574
90406SOL    HW273116   7.630  13.906   5.669
90407SOL     OW73117   5.443   9.882   5.457
90407SOL    HW173118   5.481   9.794   5.470
90407SOL    HW273119   5.367   9.867   5.401
90408SOL     OW73120  10.078   1.402   3.374
90408SOL    HW173121  10.160   1.444   3.402
90408SOL    HW273122  10.016   1.474   3.366
90409SOL     OW73123   5.863   6.383   6.597
90409SOL    HW173124   5.796   6.354   6.536
90409SOL    HW273125   5.935   6.321   6.585
90410SOL     OW73126   4.925  14.045  14.279
90410SOL    HW173127   4.838  14.017  14.307
90410SOL    HW273128   4.979  13.967  14.286
90411SOL     OW73129   8.305   9.439   6.673
90411SOL    HW173130   8.345   9.354   6.655
90411SOL    HW273131   8.214   9.429   6.647
90412SOL     OW73132  13.675  11.091   2.046
90412SOL    HW173133  13.762  11.119   2.017
90412SOL    HW273134  13.675  10.996   2.032
90413SOL     OW73135   6.164   3.663   7.378
90413SOL    HW173136   6.166   3.630   7.288
90413SOL    HW273137   6.256   3.670   7.403
90414SOL     OW73138   2.643  14.109   2.484
90414SOL    HW173139   2.589  14.062   2.421
90414SOL    HW273140   2.612  14.079   2.570
90415SOL     OW73141   5.008   0.405  13.356
90415SOL    HW173142   4.956   0.432  13.280
90415SOL    HW273143   4.949   0.415  13.430
90416SOL     OW73144  10.087   5.958   1.102
90416SOL    HW173145  10.032   5.914   1.037
90416SOL    HW273146  10.176   5.933   1.079
90417SOL     OW73147  14.713   7.945   3.970
90417SOL    HW173148  14.747   7.857   3.989
90417SOL    HW273149  14.761   8.002   4.031
90418SOL     OW73150   8.376  10.837  10.848
90418SOL    HW173151   8.365  10.776  10.921
90418SOL    HW273152   8.303  10.817  10.789
90419SOL     OW73153   1.591   2.440  10.182
90419SOL    HW173154   1.516   2.438  10.122
90419SOL    HW273155   1.580   2.363  10.238
90420SOL     OW73156  10.081   2.124   2.576
90420SOL    HW173157  10.024   2.100   2.649
90420SOL    HW273158  10.143   2.187   2.613
90421SOL     OW73159  14.240   4.577  14.676
90421SOL    HW173160  14.300   4.516  14.632
90421SOL    HW273161  14.264   4.663  14.641
90422SOL     OW73162  13.772   0.979  11.147
90422SOL    HW173163  13.684   0.948  11.165
90422SOL    HW273164  13.767   1.074  11.160
90423SOL     OW73165  11.437   2.903   3.647
90423SOL    HW173166  11.384   2.981   3.630
90423SOL    HW273167  11.514   2.915   3.591
90424SOL     OW73168   8.829  14.087   1.061
90424SOL    HW173169   8.901  14.099   1.121
90424SOL    HW273170   8.781  14.011   1.095
90425SOL     OW73171   7.962   5.291   4.021
90425SOL    HW173172   7.980   5.384   4.011
90425SOL    HW273173   7.895   5.286   4.089
90426SOL     OW73174   3.802  10.113   7.684
90426SOL    HW173175   3.768  10.046   7.626
90426SOL    HW273176   3.804  10.073   7.771
90427SOL     OW73177  12.478  14.195   3.206
90427SOL    HW173178  12.515  14.147   3.281
90427SOL    HW273179  12.478  14.287   3.234
90428SOL     OW73180   4.746  10.122  12.097
90428SOL    HW173181   4.666  10.174  12.083
90428SOL    HW273182   4.810  10.186  12.129
90429SOL     OW73183  12.378   8.116   9.164
90429SOL    HW173184  12.432   8.128   9.086
90429SOL    HW273185  12.288   8.128   9.133
90430SOL     OW73186   3.103   1.265   5.844
90430SOL    HW173187   3.133   1.182   5.880
90430SOL    HW273188   3.061   1.243   5.761
90431SOL     OW73189   6.995   2.269   1.732
90431SOL    HW173190   6.978   2.255   1.825
90431SOL    HW273191   7.036   2.355   1.727
90432SOL     OW73192   7.345  12.997   3.004
90432SOL    HW173193   7.280  12.997   3.074
90432SOL    HW273194   7.347  13.088   2.974
90433SOL     OW73195   9.014   3.785   5.567
90433SOL    HW173196   9.000   3.759   5.658
90433SOL    HW273197   9.107   3.805   5.561
90434SOL     OW73198   0.057   9.396  12.531
90434SOL    HW173199   0.099   9.417  12.447
90434SOL    HW273200   0.052   9.479  12.577
90435SOL     OW73201   6.737  14.101  11.638
90435SOL    HW173202   6.776  14.128  11.555
90435SOL    HW273203   6.797  14.035  11.673
90436SOL     OW73204   5.833   4.786   3.715
90436SOL    HW173205   5.776   4.716   3.748
90436SOL    HW273206   5.781   4.866   3.728
90437SOL     OW73207   5.139   1.314   3.644
90437SOL    HW173208   5.045   1.328   3.653
90437SOL    HW273209   5.159   1.336   3.553
90438SOL     OW73210   2.106   5.549   8.444
90438SOL    HW173211   2.025   5.600   8.448
90438SOL    HW273212   2.168   5.598   8.498
90439SOL     OW73213  13.355   8.848  12.679
90439SOL    HW173214  13.414   8.872  12.751
90439SOL    HW273215  13.412   8.799  12.619
90440SOL     OW73216   8.676  12.543  13.235
90440SOL    HW173217   8.625  12.603  13.180
90440SOL    HW273218   8.610  12.488  13.278
90441SOL     OW73219  14.160   2.755  12.587
90441SOL    HW173220  14.105   2.753  12.665
90441SOL    HW273221  14.190   2.845  12.580
90442SOL     OW73222  12.080  12.266   1.525
90442SOL    HW173223  12.141  12.233   1.458
90442SOL    HW273224  12.034  12.188   1.556
90443SOL     OW73225  12.177  13.474  12.377
90443SOL    HW173226  12.265  13.505  12.399
90443SOL    HW273227  12.123  13.503  12.451
90444SOL     OW73228  11.397  13.652  11.136
90444SOL    HW173229  11.393  13.580  11.074
90444SOL    HW273230  11.456  13.716  11.095
90445SOL     OW73231   4.355  12.371   6.484
90445SOL    HW173232   4.390  12.458   6.467
90445SOL    HW273233   4.420  12.311   6.447
90446SOL     OW73234   4.133  12.340  14.135
90446SOL    HW173235   4.219  12.378  14.156
90446SOL    HW273236   4.075  12.416  14.129
90447SOL     OW73237  10.685   1.049   1.604
90447SOL    HW173238  10.667   1.100   1.683
90447SOL    HW273239  10.599   1.034   1.565
90448SOL     OW73240   4.350  11.386   3.631
90448SOL    HW173241   4.307  11.312   3.673
90448SOL    HW273242   4.413  11.346   3.571
90449SOL     OW73243   7.115   7.598   8.998
90449SOL    HW173244   7.071   7.676   9.032
90449SOL    HW273245   7.045   7.533   8.989
90450SOL     OW73246   5.159   1.066   4.580
90450SOL    HW173247   5.180   1.085   4.489
90450SOL    HW273248   5.150   1.152   4.621
90451SOL     OW73249   0.348  13.006  14.610
90451SOL    HW173250   0.270  12.952  14.603
90451SOL    HW273251   0.356  13.028  14.703
90452SOL     OW73252   6.295   0.386  14.412
90452SOL    HW173253   6.236   0.422  14.478
90452SOL    HW273254   6.277   0.436  14.333
90453SOL     OW73255   8.207  11.623   4.450
90453SOL    HW173256   8.254  11.632   4.533
90453SOL    HW273257   8.126  11.578   4.474
90454SOL     OW73258   9.319   9.095   9.029
90454SOL    HW173259   9.303   9.002   9.048
90454SOL    HW273260   9.238   9.139   9.055
90455SOL     OW73261   4.124   7.671  13.566
90455SOL    HW173262   4.131   7.671  13.662
90455SOL    HW273263   4.071   7.748  13.546
90456SOL     OW73264   8.644   3.845  10.065
90456SOL    HW173265   8.561   3.842  10.018
90456SOL    HW273266   8.707   3.808  10.002
90457SOL     OW73267   8.504  10.181  12.609
90457SOL    HW173268   8.477  10.097  12.572
90457SOL    HW273269   8.539  10.230  12.534
90458SOL     OW73270   8.193  11.503   8.485
90458SOL    HW173271   8.257  11.513   8.556
90458SOL    HW273272   8.182  11.408   8.477
90459SOL     OW73273   2.265   6.922   2.145
90459SOL    HW173274   2.256   6.852   2.209
90459SOL    HW273275   2.301   6.879   2.067
90460SOL     OW73276   9.736   5.510   5.924
90460SOL    HW173277   9.797   5.456   5.872
90460SOL    HW273278   9.787   5.535   6.001
90461SOL     OW73279  14.223   8.662   9.834
90461SOL    HW173280  14.257   8.646   9.746
90461SOL    HW273281  14.130   8.682   9.821
90462SOL     OW73282  11.719   9.897  13.164
90462SOL    HW173283  11.684   9.848  13.090
90462SOL    HW273284  11.813   9.880  13.161
90463SOL     OW73285  14.751   0.612   3.546
90463SOL    HW173286  14.718   0.530   3.582
90463SOL    HW273287  14.707   0.680   3.596
90464SOL     OW73288   6.195  12.115   0.164
90464SOL    HW173289   6.167  12.079   0.079
90464SOL    HW273290   6.283  12.081   0.177
90465SOL     OW73291  10.373   8.996   4.239
90465SOL    HW173292  10.283   8.975   4.215
90465SOL    HW273293  10.365   9.071   4.299
90466SOL     OW73294   0.508  10.083  11.937
90466SOL    HW173295   0.442  10.126  11.884
90466SOL    HW273296   0.526  10.001  11.892
90467SOL     OW73297   3.174  10.568  14.185
90467SOL    HW173298   3.109  10.637  14.171
90467SOL    HW273299   3.178  10.522  14.101
90468SOL     OW73300   5.316  12.490   3.476
90468SOL    HW173301   5.247  12.543   3.516
90468SOL    HW273302   5.288  12.400   3.488
90469SOL     OW73303   7.547  12.349   4.537
90469SOL    HW173304   7.634  12.311   4.546
90469SOL    HW273305   7.537  12.404   4.614
90470SOL     OW73306   7.953   5.214  10.263
90470SOL    HW173307   8.024   5.210  10.199
90470SOL    HW273308   7.989   5.177  10.343
90471SOL     OW73309   3.130   5.225   2.309
90471SOL    HW173310   3.067   5.272   2.364
90471SOL    HW273311   3.204   5.285   2.301
90472SOL     OW73312   9.015  10.189   4.802
90472SOL    HW173313   8.925  10.162   4.785
90472SOL    HW273314   9.033  10.256   4.736
90473SOL     OW73315  14.594   7.030   2.873
90473SOL    HW173316  14.639   7.096   2.820
90473SOL    HW273317  14.566   6.964   2.811
90474SOL     OW73318  13.360   4.354   1.995
90474SOL    HW173319  13.305   4.331   2.070
90474SOL    HW273320  13.404   4.435   2.021
90475SOL     OW73321  11.008  13.968   3.240
90475SOL    HW173322  11.054  13.887   3.264
90475SOL    HW273323  10.966  13.947   3.156
90476SOL     OW73324   9.109  14.012   3.765
90476SOL    HW173325   9.165  14.057   3.702
90476SOL    HW273326   9.066  14.082   3.814
90477SOL     OW73327   7.623  10.927   4.088
90477SOL    HW173328   7.602  10.893   4.175
90477SOL    HW273329   7.604  10.854   4.028
90478SOL     OW73330  13.127   0.652  13.132
90478SOL    HW173331  13.051   0.621  13.084
90478SOL    HW273332  13.179   0.574  13.147
90479SOL     OW73333   9.797   1.075   7.740
90479SOL    HW173334   9.836   1.162   7.733
90479SOL    HW273335   9.851   1.020   7.683
90480SOL     OW73336  11.044   7.179   7.458
90480SOL    HW173337  10.972   7.208   7.514
90480SOL    HW273338  11.040   7.083   7.461
90481SOL     OW73339  11.877   5.662  14.642
90481SOL    HW173340  11.865   5.577  14.599
90481SOL    HW273341  11.861   5.727  14.573
90482SOL     OW73342  13.753   1.517   8.415
90482SOL    HW173343  13.711   1.558   8.490
90482SOL    HW273344  13.804   1.444   8.452
90483SOL     OW73345  13.233  12.283   9.221
90483SOL    HW173346  13.285  12.357   9.252
90483SOL    HW273347  13.294  12.233   9.167
90484SOL     OW73348   7.068  12.985  11.904
90484SOL    HW173349   7.089  12.976  11.997
90484SOL    HW273350   7.060  13.079  11.890
90485SOL     OW73351   0.277   7.550   3.127
90485SOL    HW173352   0.255   7.466   3.085
90485SOL    HW273353   0.294   7.527   3.218
90486SOL     OW73354   3.643   4.017  13.188
90486SOL    HW173355   3.639   4.099  13.139
90486SOL    HW273356   3.555   4.006  13.223
90487SOL     OW73357   9.699   5.085  13.682
90487SOL    HW173358   9.734   5.054  13.599
90487SOL    HW273359   9.635   5.018  13.707
90488SOL     OW73360   8.904  14.394   3.453
90488SOL    HW173361   8.859  14.455   3.394
90488SOL    HW273362   8.900  14.437   3.539
90489SOL     OW73363   0.102  11.081   8.331
90489SOL    HW173364   0.121  11.165   8.372
90489SOL    HW273365   0.115  11.096   8.238
90490SOL     OW73366   0.943  12.417   4.105
90490SOL    HW173367   0.867  12.476   4.097
90490SOL    HW273368   0.975  12.432   4.194
90491SOL     OW73369  14.314   4.867   5.439
90491SOL    HW173370  14.223   4.881   5.413
90491SOL    HW273371  14.320   4.907   5.526
90492SOL     OW73372   6.532   7.378   3.309
90492SOL    HW173373   6.539   7.342   3.221
90492SOL    HW273374   6.480   7.314   3.357
90493SOL     OW73375   6.310   6.644   8.975
90493SOL    HW173376   6.342   6.691   8.897
90493SOL    HW273377   6.354   6.688   9.048
90494SOL     OW73378  11.906   6.671   2.721
90494SOL    HW173379  11.820   6.713   2.716
90494SOL    HW273380  11.889   6.584   2.757
90495SOL     OW73381   6.245   3.732   8.423
90495SOL    HW173382   6.332   3.763   8.398
90495SOL    HW273383   6.195   3.812   8.437
90496SOL     OW73384   9.997   7.471  11.803
90496SOL    HW173385  10.018   7.560  11.775
90496SOL    HW273386  10.033   7.415  11.734
90497SOL     OW73387  12.498  13.441  12.199
90497SOL    HW173388  12.552  13.501  12.147
90497SOL    HW273389  12.418  13.430  12.146
90498SOL     OW73390   2.231  12.247  12.146
90498SOL    HW173391   2.327  12.242  12.149
90498SOL    HW273392   2.211  12.266  12.054
90499SOL     OW73393   0.859   4.394  12.630
90499SOL    HW173394   0.907   4.476  12.635
90499SOL    HW273395   0.816   4.386  12.716
90500SOL     OW73396  11.108   6.883  11.854
90500SOL    HW173397  11.052   6.920  11.785
90500SOL    HW273398  11.048   6.829  11.906
90501SOL     OW73399   6.824   9.796   2.711
90501SOL    HW173400   6.745   9.798   2.657
90501SOL    HW273401   6.836   9.703   2.732
90502SOL     OW73402  14.705  14.672   3.083
90502SOL    HW173403  14.704  14.758   3.123
90502SOL    HW273404  14.792  14.637   3.101
90503SOL     OW73405   0.680   0.182   0.872
90503SOL    HW173406   0.638   0.104   0.835
90503SOL    HW273407   0.669   0.250   0.806
90504SOL     OW73408  12.303   6.581   6.499
90504SOL    HW173409  12.377   6.541   6.454
90504SOL    HW273410  12.335   6.596   6.588
90505SOL     OW73411  10.854   4.594   5.468
90505SOL    HW173412  10.940   4.589   5.426
90505SOL    HW273413  10.828   4.686   5.459
90506SOL     OW73414   3.671   7.908   7.472
90506SOL    HW173415   3.577   7.890   7.480
90506SOL    HW273416   3.705   7.834   7.422
90507SOL     OW73417  10.918   7.987   8.866
90507SOL    HW173418  10.888   7.897   8.879
90507SOL    HW273419  11.014   7.981   8.869
90508SOL     OW73420   9.075   1.547   2.296
90508SOL    HW173421   9.048   1.634   2.267
90508SOL    HW273422   9.118   1.561   2.380
90509SOL     OW73423   3.155   9.898   2.558
90509SOL    HW173424   3.104   9.974   2.587
90509SOL    HW273425   3.121   9.826   2.611
90510SOL     OW73426  10.181   7.661   4.611
90510SOL    HW173427  10.226   7.595   4.664
90510SOL    HW273428  10.120   7.611   4.556
90511SOL     OW73429   6.798  14.734  12.827
90511SOL    HW173430   6.774  14.699  12.742
90511SOL    HW273431   6.719  14.780  12.857
90512SOL     OW73432  11.794   4.199   5.788
90512SOL    HW173433  11.742   4.139   5.843
90512SOL    HW273434  11.816   4.147   5.710
90513SOL     OW73435  10.702   2.317  12.272
90513SOL    HW173436  10.752   2.387  12.232
90513SOL    HW273437  10.611   2.344  12.262
90514SOL     OW73438  14.083   8.724   5.945
90514SOL    HW173439  14.084   8.655   5.879
90514SOL    HW273440  14.122   8.799   5.903
90515SOL     OW73441   4.091  13.918   2.120
90515SOL    HW173442   4.069  13.944   2.209
90515SOL    HW273443   4.032  13.969   2.065
90516SOL     OW73444  11.744  10.754  10.007
90516SOL    HW173445  11.755  10.739   9.913
90516SOL    HW273446  11.752  10.849  10.017
90517SOL     OW73447   2.529  12.783   4.691
90517SOL    HW173448   2.506  12.733   4.769
90517SOL    HW273449   2.445  12.812   4.655
90518SOL     OW73450   4.846   1.602   9.400
90518SOL    HW173451   4.932   1.563   9.412
90518SOL    HW273452   4.789   1.552   9.459
90519SOL     OW73453   8.128   1.971   6.969
90519SOL    HW173454   8.138   2.000   7.060
90519SOL    HW273455   8.048   1.920   6.968
90520SOL     OW73456   2.831  12.457   3.137
90520SOL    HW173457   2.743  12.490   3.117
90520SOL    HW273458   2.847  12.390   3.070
90521SOL     OW73459  10.862   6.610  10.768
90521SOL    HW173460  10.788   6.553  10.788
90521SOL    HW273461  10.939   6.552  10.774
90522SOL     OW73462   1.910  14.828  12.965
90522SOL    HW173463   1.850  14.790  13.029
90522SOL    HW273464   1.857   0.021  12.917
90523SOL     OW73465  14.860   1.567  11.257
90523SOL    HW173466  14.791   1.542  11.318
90523SOL    HW273467   0.023   1.484  11.222
90524SOL     OW73468   9.466   3.124   3.418
90524SOL    HW173469   9.404   3.121   3.345
90524SOL    HW273470   9.548   3.153   3.379
90525SOL     OW73471  13.396  12.081  10.927
90525SOL    HW173472  13.393  12.133  11.007
90525SOL    HW273473  13.415  11.992  10.957
90526SOL     OW73474  11.457  11.619   2.941
90526SOL    HW173475  11.469  11.617   3.036
90526SOL    HW273476  11.419  11.705   2.924
90527SOL     OW73477  12.577  11.790   6.187
90527SOL    HW173478  12.549  11.769   6.098
90527SOL    HW273479  12.588  11.705   6.230
90528SOL     OW73480  11.680  11.592   1.218
90528SOL    HW173481  11.732  11.635   1.150
90528SOL    HW273482  11.624  11.531   1.170
90529SOL     OW73483   6.910   5.378   5.181
90529SOL    HW173484   6.875   5.353   5.266
90529SOL    HW273485   6.885   5.469   5.170
90530SOL     OW73486   3.530   6.137   6.797
90530SOL    HW173487   3.520   6.130   6.891
90530SOL    HW273488   3.529   6.047   6.765
90531SOL     OW73489   9.957   9.028   8.859
90531SOL    HW173490   9.923   8.964   8.797
90531SOL    HW273491   9.897   9.023   8.933
90532SOL     OW73492   7.018   3.895   8.640
90532SOL    HW173493   7.001   3.829   8.572
90532SOL    HW273494   6.969   3.972   8.611
90533SOL     OW73495   4.989  14.812  13.731
90533SOL    HW173496   4.958  14.788  13.819
90533SOL    HW273497   4.997  14.729  13.685
90534SOL     OW73498  11.323  14.051  13.951
90534SOL    HW173499  11.333  13.960  13.980
90534SOL    HW273500  11.274  14.044  13.869
90535SOL     OW73501   7.339   7.488  12.884
90535SOL    HW173502   7.427   7.488  12.846
90535SOL    HW273503   7.329   7.576  12.921
90536SOL     OW73504   6.807   2.478   0.317
90536SOL    HW173505   6.739   2.472   0.384
90536SOL    HW273506   6.760   2.498   0.236
90537SOL     OW73507   2.073   8.104   4.438
90537SOL    HW173508   2.151   8.157   4.422
90537SOL    HW273509   2.101   8.014   4.421
90538SOL     OW73510   7.849  11.535  12.922
90538SOL    HW173511   7.758  11.511  12.940
90538SOL    HW273512   7.901  11.468  12.965
90539SOL     OW73513  10.715   2.941   0.334
90539SOL    HW173514  10.623   2.953   0.310
90539SOL    HW273515  10.739   3.022   0.379
90540SOL     OW73516   3.166  13.350   5.782
90540SOL    HW173517   3.151  13.370   5.874
90540SOL    HW273518   3.228  13.418   5.754
90541SOL     OW73519   8.442   5.337   3.471
90541SOL    HW173520   8.349   5.317   3.485
90541SOL    HW273521   8.447   5.432   3.471
90542SOL     OW73522   4.058   7.474  10.451
90542SOL    HW173523   4.039   7.568  10.447
90542SOL    HW273524   4.105   7.462  10.533
90543SOL     OW73525  11.883   8.903   8.684
90543SOL    HW173526  11.849   8.863   8.764
90543SOL    HW273527  11.805   8.920   8.631
90544SOL     OW73528  10.318  10.164  13.336
90544SOL    HW173529  10.367  10.083  13.323
90544SOL    HW273530  10.368  10.211  13.403
90545SOL     OW73531   9.529   3.216   9.138
90545SOL    HW173532   9.582   3.136   9.143
90545SOL    HW273533   9.525   3.248   9.228
90546SOL     OW73534   5.051   7.012   8.188
90546SOL    HW173535   5.082   6.935   8.142
90546SOL    HW273536   4.978   6.980   8.242
90547SOL     OW73537   3.109   2.160   6.313
90547SOL    HW173538   3.068   2.099   6.252
90547SOL    HW273539   3.170   2.211   6.259
90548SOL     OW73540   2.005  13.258   9.366
90548SOL    HW173541   1.978  13.321   9.300
90548SOL    HW273542   1.948  13.182   9.353
90549SOL     OW73543   3.438   6.224   4.281
90549SOL    HW173544   3.530   6.200   4.278
90549SOL    HW273545   3.392   6.140   4.290
90550SOL     OW73546  13.371   8.870  14.123
90550SOL    HW173547  13.428   8.798  14.150
90550SOL    HW273548  13.288   8.853  14.168
90551SOL     OW73549   3.551   2.846   0.784
90551SOL    HW173550   3.597   2.798   0.853
90551SOL    HW273551   3.459   2.823   0.796
90552SOL     OW73552   5.601  12.586  14.813
90552SOL    HW173553   5.642  12.569  14.728
90552SOL    HW273554   5.527  12.525  14.816
90553SOL     OW73555   9.578  14.723   8.685
90553SOL    HW173556   9.554  14.771   8.765
90553SOL    HW273557   9.532  14.769   8.615
90554SOL     OW73558   9.471   2.176  11.172
90554SOL    HW173559   9.519   2.103  11.212
90554SOL    HW273560   9.487   2.250  11.230
90555SOL     OW73561  14.267   7.717   7.910
90555SOL    HW173562  14.224   7.665   7.843
90555SOL    HW273563  14.201   7.728   7.978
90556SOL     OW73564   6.668  13.333  12.301
90556SOL    HW173565   6.608  13.306  12.370
90556SOL    HW273566   6.660  13.429  12.298
90557SOL     OW73567   2.043   6.768   1.283
90557SOL    HW173568   2.096   6.743   1.359
90557SOL    HW273569   1.965   6.713   1.289
90558SOL     OW73570   2.541   7.508  13.053
90558SOL    HW173571   2.481   7.463  12.994
90558SOL    HW273572   2.574   7.582  13.002
90559SOL     OW73573  12.489   2.242   5.122
90559SOL    HW173574  12.578   2.275   5.134
90559SOL    HW273575  12.470   2.256   5.030
90560SOL     OW73576  12.308   6.342  10.965
90560SOL    HW173577  12.363   6.419  10.970
90560SOL    HW273578  12.345   6.290  10.894
90561SOL     OW73579   2.294   9.070   4.332
90561SOL    HW173580   2.387   9.055   4.352
90561SOL    HW273581   2.248   9.008   4.388
90562SOL     OW73582   8.660   9.551   1.189
90562SOL    HW173583   8.688   9.461   1.206
90562SOL    HW273584   8.596   9.542   1.118
90563SOL     OW73585   4.241   2.996   6.774
90563SOL    HW173586   4.276   2.996   6.685
90563SOL    HW273587   4.317   2.979   6.830
90564SOL     OW73588  11.432   4.899   8.874
90564SOL    HW173589  11.518   4.878   8.912
90564SOL    HW273590  11.446   4.893   8.780
90565SOL     OW73591   7.765   8.775   5.867
90565SOL    HW173592   7.777   8.683   5.844
90565SOL    HW273593   7.847   8.800   5.910
90566SOL     OW73594  10.745   4.591   4.448
90566SOL    HW173595  10.833   4.557   4.459
90566SOL    HW273596  10.693   4.543   4.513
90567SOL     OW73597  10.314   8.677   6.363
90567SOL    HW173598  10.349   8.745   6.420
90567SOL    HW273599  10.222   8.670   6.389
90568SOL     OW73600   1.981   1.518   3.435
90568SOL    HW173601   1.973   1.427   3.463
90568SOL    HW273602   2.053   1.553   3.488
90569SOL     OW73603   8.378  11.350   0.725
90569SOL    HW173604   8.360  11.434   0.684
90569SOL    HW273605   8.314  11.343   0.796
90570SOL     OW73606   3.246   8.874  12.742
90570SOL    HW173607   3.159   8.850  12.712
90570SOL    HW273608   3.234   8.958  12.787
90571SOL     OW73609   6.033  11.831   9.108
90571SOL    HW173610   6.092  11.756   9.102
90571SOL    HW273611   6.060  11.877   9.187
90572SOL     OW73612  12.380  14.859   4.586
90572SOL    HW173613  12.462   0.018   4.627
90572SOL    HW273614  12.363  14.773   4.625
90573SOL     OW73615  14.742   9.033  12.646
90573SOL    HW173616  14.715   8.973  12.716
90573SOL    HW273617  14.751   8.977  12.569
90574SOL     OW73618   5.771   7.151  12.500
90574SOL    HW173619   5.771   7.166  12.406
90574SOL    HW273620   5.748   7.236  12.538
90575SOL     OW73621  11.022  11.242   4.286
90575SOL    HW173622  11.007  11.157   4.328
90575SOL    HW273623  10.955  11.247   4.218
90576SOL     OW73624   0.078  11.699  12.622
90576SOL    HW173625   0.158  11.704  12.571
90576SOL    HW273626   0.088  11.765  12.690
90577SOL     OW73627   6.432   4.570  13.769
90577SOL    HW173628   6.513   4.605  13.732
90577SOL    HW273629   6.399   4.640  13.824
90578SOL     OW73630   2.296   4.404  13.980
90578SOL    HW173631   2.273   4.497  13.978
90578SOL    HW273632   2.259   4.367  13.900
90579SOL     OW73633  11.187  12.639   9.442
90579SOL    HW173634  11.220  12.714   9.391
90579SOL    HW273635  11.220  12.654   9.530
90580SOL     OW73636  12.681  10.306   2.228
90580SOL    HW173637  12.687  10.258   2.145
90580SOL    HW273638  12.603  10.271   2.270
90581SOL     OW73639   9.343   9.989   8.129
90581SOL    HW173640   9.435   9.970   8.109
90581SOL    HW273641   9.299   9.904   8.124
90582SOL     OW73642   3.905   2.283  14.058
90582SOL    HW173643   3.853   2.250  14.131
90582SOL    HW273644   3.959   2.353  14.096
90583SOL     OW73645   9.484   4.543   6.658
90583SOL    HW173646   9.466   4.601   6.584
90583SOL    HW273647   9.473   4.455   6.623
90584SOL     OW73648   8.927   3.818   3.397
90584SOL    HW173649   9.021   3.835   3.406
90584SOL    HW273650   8.920   3.760   3.321
90585SOL     OW73651   0.455  11.401   0.023
90585SOL    HW173652   0.369  11.423  14.858
90585SOL    HW273653   0.450  11.423   0.116
90586SOL     OW73654   7.978  12.424  13.508
90586SOL    HW173655   8.001  12.517  13.504
90586SOL    HW273656   7.963  12.400  13.417
90587SOL     OW73657   9.751  14.351  14.764
90587SOL    HW173658   9.685  14.410  14.729
90587SOL    HW273659   9.702  14.274  14.794
90588SOL     OW73660   8.701   2.616   1.348
90588SOL    HW173661   8.760   2.631   1.422
90588SOL    HW273662   8.618   2.590   1.388
90589SOL     OW73663   7.739   0.927   9.076
90589SOL    HW173664   7.826   0.928   9.034
90589SOL    HW273665   7.731   0.839   9.112
90590SOL     OW73666   4.005   1.776  11.172
90590SOL    HW173667   3.947   1.706  11.142
90590SOL    HW273668   3.949   1.854  11.177
90591SOL     OW73669   1.867  11.184   4.462
90591SOL    HW173670   1.868  11.228   4.546
90591SOL    HW273671   1.833  11.096   4.481
90592SOL     OW73672  11.510   8.432   9.933
90592SOL    HW173673  11.593   8.445   9.978
90592SOL    HW273674  11.457   8.379   9.994
90593SOL     OW73675   3.852   1.661   1.003
90593SOL    HW173676   3.847   1.745   1.049
90593SOL    HW273677   3.778   1.611   1.037
90594SOL     OW73678   4.231   6.802   6.984
90594SOL    HW173679   4.302   6.852   6.944
90594SOL    HW273680   4.238   6.715   6.947
90595SOL     OW73681   8.336   6.128  10.046
90595SOL    HW173682   8.307   6.042  10.015
90595SOL    HW273683   8.260   6.185  10.032
90596SOL     OW73684  10.002   1.526   8.692
90596SOL    HW173685   9.942   1.597   8.713
90596SOL    HW273686  10.068   1.566   8.635
90597SOL     OW73687   3.696   9.043  11.430
90597SOL    HW173688   3.646   8.964  11.409
90597SOL    HW273689   3.754   9.055  11.355
90598SOL     OW73690   8.968   9.482   6.479
90598SOL    HW173691   9.024   9.483   6.557
90598SOL    HW273692   8.880   9.495   6.513
90599SOL     OW73693   4.569   3.537   1.702
90599SOL    HW173694   4.535   3.530   1.791
90599SOL    HW273695   4.583   3.446   1.675
90600SOL     OW73696   8.367   9.090   4.462
90600SOL    HW173697   8.400   9.133   4.383
90600SOL    HW273698   8.441   9.093   4.523
90601SOL     OW73699  10.421   3.171   9.894
90601SOL    HW173700  10.501   3.119   9.900
90601SOL    HW273701  10.447   3.259   9.922
90602SOL     OW73702   7.445   5.003  13.746
90602SOL    HW173703   7.357   4.987  13.778
90602SOL    HW273704   7.441   5.090  13.706
90603SOL     OW73705  13.129   7.356   9.086
90603SOL    HW173706  13.087   7.275   9.115
90603SOL    HW273707  13.138   7.345   8.991
90604SOL     OW73708   5.417  10.790   5.890
90604SOL    HW173709   5.322  10.799   5.898
90604SOL    HW273710   5.452  10.858   5.948
90605SOL     OW73711   8.596   0.343   4.331
90605SOL    HW173712   8.589   0.351   4.236
90605SOL    HW273713   8.670   0.284   4.345
90606SOL     OW73714   2.695   5.897  13.326
90606SOL    HW173715   2.612   5.862  13.292
90606SOL    HW273716   2.746   5.820  13.349
90607SOL     OW73717  10.787   6.817   8.762
90607SOL    HW173718  10.876   6.834   8.791
90607SOL    HW273719  10.734   6.822   8.842
90608SOL     OW73720   1.383   1.181   4.919
90608SOL    HW173721   1.442   1.252   4.943
90608SOL    HW273722   1.436   1.123   4.864
90609SOL     OW73723  14.412   3.239   8.201
90609SOL    HW173724  14.401   3.147   8.177
90609SOL    HW273725  14.332   3.282   8.170
90610SOL     OW73726   2.205   9.371   5.117
90610SOL    HW173727   2.182   9.356   5.208
90610SOL    HW273728   2.269   9.303   5.097
90611SOL     OW73729   4.085   1.839   8.712
90611SOL    HW173730   4.017   1.906   8.716
90611SOL    HW273731   4.091   1.806   8.802
90612SOL     OW73732  10.605  11.101  13.509
90612SOL    HW173733  10.608  11.100  13.413
90612SOL    HW273734  10.519  11.066  13.530
90613SOL     OW73735   3.671   3.413  11.787
90613SOL    HW173736   3.688   3.319  11.790
90613SOL    HW273737   3.667   3.440  11.879
90614SOL     OW73738   7.433  10.407   8.079
90614SOL    HW173739   7.439  10.358   7.997
90614SOL    HW273740   7.480  10.489   8.061
90615SOL     OW73741   9.236   6.397   0.922
90615SOL    HW173742   9.267   6.487   0.929
90615SOL    HW273743   9.299   6.346   0.972
90616SOL     OW73744   1.376   4.639  14.490
90616SOL    HW173745   1.423   4.717  14.519
90616SOL    HW273746   1.425   4.566  14.529
90617SOL     OW73747   5.965  13.404   1.500
90617SOL    HW173748   5.929  13.422   1.413
90617SOL    HW273749   6.026  13.476   1.516
90618SOL     OW73750   7.866  13.820   8.668
90618SOL    HW173751   7.860  13.752   8.735
90618SOL    HW273752   7.809  13.891   8.699
90619SOL     OW73753   4.318   3.497   0.101
90619SOL    HW173754   4.324   3.593   0.103
90619SOL    HW273755   4.367   3.468   0.177
90620SOL     OW73756   3.299   1.524   8.222
90620SOL    HW173757   3.236   1.476   8.274
90620SOL    HW273758   3.338   1.587   8.282
90621SOL     OW73759   1.359   8.343  10.713
90621SOL    HW173760   1.285   8.306  10.761
90621SOL    HW273761   1.429   8.349  10.778
90622SOL     OW73762   8.608   4.258  10.998
90622SOL    HW173763   8.636   4.250  11.089
90622SOL    HW273764   8.594   4.168  10.969
90623SOL     OW73765  14.480  10.170  13.094
90623SOL    HW173766  14.438  10.217  13.022
90623SOL    HW273767  14.523  10.096  13.052
90624SOL     OW73768  13.361  11.524   0.633
90624SOL    HW173769  13.285  11.533   0.690
90624SOL    HW273770  13.393  11.613   0.621
90625SOL     OW73771   1.083   2.731   4.445
90625SOL    HW173772   1.035   2.655   4.478
90625SOL    HW273773   1.093   2.788   4.522
90626SOL     OW73774   5.854  11.800  14.607
90626SOL    HW173775   5.850  11.895  14.619
90626SOL    HW273776   5.809  11.764  14.684
90627SOL     OW73777  10.926   2.791   6.859
90627SOL    HW173778  10.873   2.719   6.824
90627SOL    HW273779  10.924   2.778   6.954
90628SOL     OW73780   7.621   4.955  10.567
90628SOL    HW173781   7.699   4.987  10.522
90628SOL    HW273782   7.624   4.997  10.653
90629SOL     OW73783  12.545  14.251   4.895
90629SOL    HW173784  12.550  14.337   4.938
90629SOL    HW273785  12.453  14.240   4.875
90630SOL     OW73786   6.831   3.753  14.347
90630SOL    HW173787   6.884   3.673  14.346
90630SOL    HW273788   6.757   3.733  14.289
90631SOL     OW73789   1.332   1.107   0.468
90631SOL    HW173790   1.357   1.015   0.457
90631SOL    HW273791   1.263   1.105   0.534
90632SOL     OW73792   4.771   0.914  10.469
90632SOL    HW173793   4.831   0.876  10.405
90632SOL    HW273794   4.804   1.002  10.485
90633SOL     OW73795   3.821   9.560   5.676
90633SOL    HW173796   3.750   9.533   5.618
90633SOL    HW273797   3.786   9.548   5.764
90634SOL     OW73798   8.378   4.747   1.111
90634SOL    HW173799   8.448   4.781   1.056
90634SOL    HW273800   8.406   4.659   1.135
90635SOL     OW73801  12.748  14.165  11.347
90635SOL    HW173802  12.710  14.105  11.410
90635SOL    HW273803  12.843  14.156  11.358
90636SOL     OW73804   2.437   3.147   4.299
90636SOL    HW173805   2.387   3.210   4.247
90636SOL    HW273806   2.387   3.066   4.294
90637SOL     OW73807   5.244   2.455   0.862
90637SOL    HW173808   5.206   2.373   0.894
90637SOL    HW273809   5.260   2.507   0.941
90638SOL     OW73810  14.631   7.737  14.295
90638SOL    HW173811  14.586   7.816  14.323
90638SOL    HW273812  14.567   7.667  14.308
90639SOL     OW73813   2.307   0.456   0.405
90639SOL    HW173814   2.308   0.445   0.310
90639SOL    HW273815   2.346   0.542   0.420
90640SOL     OW73816   6.888   7.296   4.276
90640SOL    HW173817   6.829   7.311   4.202
90640SOL    HW273818   6.838   7.325   4.353
90641SOL     OW73819   9.403   4.682   6.945
90641SOL    HW173820   9.311   4.662   6.929
90641SOL    HW273821   9.408   4.778   6.942
90642SOL     OW73822  10.170  12.304   5.012
90642SOL    HW173823  10.265  12.293   5.023
90642SOL    HW273824  10.161  12.360   4.935
90643SOL     OW73825   9.410  13.305   2.475
90643SOL    HW173826   9.412  13.309   2.570
90643SOL    HW273827   9.367  13.386   2.448
90644SOL     OW73828  11.876  13.630   7.649
90644SOL    HW173829  11.955  13.620   7.595
90644SOL    HW273830  11.807  13.590   7.597
90645SOL     OW73831   1.311   0.013   7.988
90645SOL    HW173832   1.293   0.068   8.064
90645SOL    HW273833   1.319  14.794   8.024
90646SOL     OW73834  13.350   9.633  13.685
90646SOL    HW173835  13.259   9.660  13.693
90646SOL    HW273836  13.397   9.682  13.752
90647SOL     OW73837   0.821   8.454  13.246
90647SOL    HW173838   0.789   8.412  13.166
90647SOL    HW273839   0.819   8.548  13.226
90648SOL     OW73840   0.652   2.415   5.761
90648SOL    HW173841   0.704   2.393   5.684
90648SOL    HW273842   0.572   2.364   5.752
90649SOL     OW73843   8.253   1.733   5.742
90649SOL    HW173844   8.333   1.769   5.780
90649SOL    HW273845   8.225   1.797   5.677
90650SOL     OW73846   5.421   9.757   2.874
90650SOL    HW173847   5.511   9.729   2.856
90650SOL    HW273848   5.401   9.719   2.959
90651SOL     OW73849   5.930  13.058   8.668
90651SOL    HW173850   5.954  13.079   8.759
90651SOL    HW273851   5.981  13.119   8.615
90652SOL     OW73852   8.990   2.059   3.332
90652SOL    HW173853   8.947   2.144   3.327
90652SOL    HW273854   8.991   2.038   3.425
90653SOL     OW73855  10.904  10.518   2.754
90653SOL    HW173856  10.988  10.472   2.760
90653SOL    HW273857  10.882  10.514   2.661
90654SOL     OW73858   2.984   8.041   4.491
90654SOL    HW173859   2.924   8.034   4.566
90654SOL    HW273860   3.059   7.987   4.516
90655SOL     OW73861  13.808  10.737  14.716
90655SOL    HW173862  13.889  10.724  14.764
90655SOL    HW273863  13.836  10.757  14.627
90656SOL     OW73864   0.134  12.918  14.746
90656SOL    HW173865   0.200  12.971  14.792
90656SOL    HW273866   0.051  12.961  14.766
90657SOL     OW73867   1.033   8.280  12.676
90657SOL    HW173868   1.049   8.363  12.630
90657SOL    HW273869   1.074   8.213  12.621
90658SOL     OW73870   9.751   8.839   5.203
90658SOL    HW173871   9.807   8.880   5.269
90658SOL    HW273872   9.802   8.763   5.173
90659SOL     OW73873   0.485  13.723   1.397
90659SOL    HW173874   0.564  13.731   1.343
90659SOL    HW273875   0.493  13.638   1.439
90660SOL     OW73876  11.094  12.867   0.793
90660SOL    HW173877  11.128  12.805   0.857
90660SOL    HW273878  11.161  12.935   0.787
90661SOL     OW73879   0.328   5.123   7.669
90661SOL    HW173880   0.303   5.050   7.612
90661SOL    HW273881   0.324   5.088   7.757
90662SOL     OW73882   6.695   2.908   6.360
90662SOL    HW173883   6.668   2.857   6.437
90662SOL    HW273884   6.769   2.960   6.391
90663SOL     OW73885   5.412   0.025  13.059
90663SOL    HW173886   5.397   0.114  13.027
90663SOL    HW273887   5.328  14.869  13.098
90664SOL     OW73888   7.830  10.885   9.295
90664SOL    HW173889   7.878  10.920   9.220
90664SOL    HW273890   7.898  10.844   9.349
90665SOL     OW73891  11.666   0.751   6.738
90665SOL    HW173892  11.685   0.745   6.832
90665SOL    HW273893  11.644   0.661   6.713
90666SOL     OW73894  13.686  11.812   1.331
90666SOL    HW173895  13.609  11.832   1.384
90666SOL    HW273896  13.689  11.882   1.265
90667SOL     OW73897   6.774   9.146  11.030
90667SOL    HW173898   6.697   9.139  11.086
90667SOL    HW273899   6.845   9.168  11.090
90668SOL     OW73900   0.097   2.780   4.945
90668SOL    HW173901   0.102   2.841   5.018
90668SOL    HW273902   0.011   2.739   4.954
90669SOL     OW73903  10.178  14.140  13.911
90669SOL    HW173904  10.216  14.052  13.916
90669SOL    HW273905  10.169  14.158  13.818
90670SOL     OW73906   0.634  12.826   6.748
90670SOL    HW173907   0.582  12.860   6.820
90670SOL    HW273908   0.571  12.812   6.677
90671SOL     OW73909   7.556   8.266  11.976
90671SOL    HW173910   7.587   8.233  12.060
90671SOL    HW273911   7.465   8.237  11.971
90672SOL     OW73912   2.733   4.561   3.001
90672SOL    HW173913   2.823   4.590   2.982
90672SOL    HW273914   2.740   4.515   3.085
90673SOL     OW73915  11.998   7.266   2.467
90673SOL    HW173916  11.977   7.334   2.531
90673SOL    HW273917  12.045   7.200   2.517
90674SOL     OW73918   1.040   8.318   7.382
90674SOL    HW173919   0.981   8.346   7.312
90674SOL    HW273920   0.981   8.291   7.453
90675SOL     OW73921  12.686   7.604  13.840
90675SOL    HW173922  12.753   7.593  13.773
90675SOL    HW273923  12.734   7.626  13.919
90676SOL     OW73924   1.981   1.536   2.706
90676SOL    HW173925   2.066   1.518   2.746
90676SOL    HW273926   1.978   1.631   2.697
90677SOL     OW73927   8.874   0.799  13.459
90677SOL    HW173928   8.924   0.880  13.444
90677SOL    HW273929   8.874   0.755  13.374
90678SOL     OW73930  10.683  14.016  12.292
90678SOL    HW173931  10.715  14.065  12.367
90678SOL    HW273932  10.596  14.053  12.275
90679SOL     OW73933   8.779   0.554  12.988
90679SOL    HW173934   8.692   0.564  13.026
90679SOL    HW273935   8.819   0.483  13.038
90680SOL     OW73936   9.395  11.339  12.687
90680SOL    HW173937   9.455  11.326  12.761
90680SOL    HW273938   9.412  11.265  12.629
90681SOL     OW73939   6.617   6.820  14.626
90681SOL    HW173940   6.652   6.744  14.579
90681SOL    HW273941   6.523   6.818  14.608
90682SOL     OW73942   5.973  10.518  11.470
90682SOL    HW173943   5.969  10.473  11.554
90682SOL    HW273944   6.060  10.498  11.435
90683SOL     OW73945   5.580   3.801   9.430
90683SOL    HW173946   5.538   3.758   9.504
90683SOL    HW273947   5.673   3.790   9.445
90684SOL     OW73948   0.623   6.909   6.618
90684SOL    HW173949   0.702   6.859   6.598
90684SOL    HW273950   0.555   6.843   6.632
90685SOL     OW73951   1.405  14.300   0.765
90685SOL    HW173952   1.421  14.258   0.850
90685SOL    HW273953   1.490  14.337   0.740
90686SOL     OW73954  14.536   5.255  12.349
90686SOL    HW173955  14.553   5.168  12.385
90686SOL    HW273956  14.621   5.300  12.355
90687SOL     OW73957   4.817   5.321   8.304
90687SOL    HW173958   4.848   5.349   8.390
90687SOL    HW273959   4.856   5.234   8.291
90688SOL     OW73960   6.134  14.549   7.895
90688SOL    HW173961   6.060  14.604   7.919
90688SOL    HW273962   6.187  14.604   7.837
90689SOL     OW73963   6.735   9.517   9.510
90689SOL    HW173964   6.665   9.463   9.473
90689SOL    HW273965   6.749   9.481   9.598
90690SOL     OW73966   5.648   1.648  10.487
90690SOL    HW173967   5.610   1.615  10.569
90690SOL    HW273968   5.588   1.618  10.419
90691SOL     OW73969   4.298   2.226   9.244
90691SOL    HW173970   4.319   2.195   9.156
90691SOL    HW273971   4.327   2.156   9.302
90692SOL     OW73972   0.174  12.928   0.658
90692SOL    HW173973   0.240  12.963   0.719
90692SOL    HW273974   0.217  12.853   0.617
90693SOL     OW73975   2.906   1.997   6.174
90693SOL    HW173976   2.865   1.918   6.209
90693SOL    HW273977   2.945   1.970   6.091
90694SOL     OW73978   1.169  14.862   6.750
90694SOL    HW173979   1.188  14.803   6.677
90694SOL    HW273980   1.074  14.863   6.756
90695SOL     OW73981  14.437  13.064   2.117
90695SOL    HW173982  14.378  12.990   2.100
90695SOL    HW273983  14.525  13.026   2.110
90696SOL     OW73984   5.503   4.002   9.723
90696SOL    HW173985   5.498   4.011   9.628
90696SOL    HW273986   5.583   4.049   9.748
90697SOL     OW73987   3.603  10.698  11.134
90697SOL    HW173988   3.571  10.716  11.223
90697SOL    HW273989   3.676  10.759  11.122
90698SOL     OW73990   8.537   8.094   0.957
90698SOL    HW173991   8.611   8.149   0.983
90698SOL    HW273992   8.554   8.009   0.999
90699SOL     OW73993  13.888   9.076   3.185
90699SOL    HW173994  13.976   9.074   3.147
90699SOL    HW273995  13.872   9.168   3.204
90700SOL     OW73996   7.697   8.992   5.692
90700SOL    HW173997   7.701   8.908   5.737
90700SOL    HW273998   7.704   8.970   5.599
90701SOL     OW73999   4.584   5.015   5.183
90701SOL    HW174000   4.528   4.946   5.218
90701SOL    HW274001   4.614   4.981   5.098
90702SOL     OW74002   2.600  11.387   1.644
90702SOL    HW174003   2.643  11.304   1.666
90702SOL    HW274004   2.529  11.362   1.585
90703SOL     OW74005   9.880   1.136   7.151
90703SOL    HW174006   9.858   1.162   7.061
90703SOL    HW274007   9.929   1.210   7.186
90704SOL     OW74008   3.502  12.171  14.433
90704SOL    HW174009   3.530  12.243  14.491
90704SOL    HW274010   3.543  12.190  14.349
90705SOL     OW74011  14.366  13.930   3.137
90705SOL    HW174012  14.364  13.999   3.203
90705SOL    HW274013  14.459  13.918   3.117
90706SOL     OW74014   8.745  14.737   9.729
90706SOL    HW174015   8.806  14.702   9.794
90706SOL    HW274016   8.774  14.827   9.715
90707SOL     OW74017  12.669  11.672   1.244
90707SOL    HW174018  12.710  11.621   1.174
90707SOL    HW274019  12.724  11.657   1.320
90708SOL     OW74020  14.289   0.588  12.128
90708SOL    HW174021  14.290   0.524  12.057
90708SOL    HW274022  14.374   0.577  12.172
90709SOL     OW74023  14.619   9.224   3.761
90709SOL    HW174024  14.660   9.140   3.741
90709SOL    HW274025  14.528   9.213   3.736
90710SOL     OW74026   3.412   0.363   6.933
90710SOL    HW174027   3.352   0.348   6.860
90710SOL    HW274028   3.423   0.277   6.974
90711SOL     OW74029  13.622   1.743  10.894
90711SOL    HW174030  13.709   1.776  10.872
90711SOL    HW274031  13.587   1.807  10.955
90712SOL     OW74032   2.829   8.630   3.794
90712SOL    HW174033   2.846   8.554   3.738
90712SOL    HW274034   2.733   8.635   3.798
90713SOL     OW74035   7.872   7.656   0.845
90713SOL    HW174036   7.820   7.729   0.812
90713SOL    HW274037   7.939   7.642   0.778
90714SOL     OW74038   5.717   7.569  10.799
90714SOL    HW174039   5.662   7.497  10.830
90714SOL    HW274040   5.681   7.647  10.843
90715SOL     OW74041   2.804  12.765   6.340
90715SOL    HW174042   2.833  12.694   6.282
90715SOL    HW274043   2.794  12.841   6.282
90716SOL     OW74044   8.926  12.886   9.843
90716SOL    HW174045   8.919  12.878   9.939
90716SOL    HW274046   8.875  12.812   9.810
90717SOL     OW74047  10.025   4.458  13.112
90717SOL    HW174048   9.950   4.480  13.056
90717SOL    HW274049   9.990   4.458  13.201
90718SOL     OW74050   6.714   8.097   4.156
90718SOL    HW174051   6.703   8.037   4.229
90718SOL    HW274052   6.742   8.179   4.197
90719SOL     OW74053   1.927  12.475  13.423
90719SOL    HW174054   1.945  12.537  13.494
90719SOL    HW274055   1.990  12.405  13.436
90720SOL     OW74056  11.745  12.742   4.832
90720SOL    HW174057  11.743  12.830   4.869
90720SOL    HW274058  11.691  12.747   4.754
90721SOL     OW74059   3.710   5.049   0.680
90721SOL    HW174060   3.783   5.102   0.712
90721SOL    HW274061   3.734   4.959   0.702
90722SOL     OW74062   1.483   3.318  13.969
90722SOL    HW174063   1.565   3.285  14.006
90722SOL    HW274064   1.505   3.407  13.939
90723SOL     OW74065  12.374  12.780   9.793
90723SOL    HW174066  12.287  12.809   9.765
90723SOL    HW274067  12.374  12.791   9.888
90724SOL     OW74068   7.217   0.975  14.745
90724SOL    HW174069   7.212   0.947  14.836
90724SOL    HW274070   7.297   0.934  14.712
90725SOL     OW74071   4.530  13.027   2.769
90725SOL    HW174072   4.573  12.965   2.827
90725SOL    HW274073   4.437  13.004   2.774
90726SOL     OW74074   5.109  12.027   5.463
90726SOL    HW174075   5.101  12.068   5.377
90726SOL    HW274076   5.100  11.933   5.445
90727SOL     OW74077   4.391  10.912   4.140
90727SOL    HW174078   4.432  10.965   4.209
90727SOL    HW274079   4.431  10.943   4.059
90728SOL     OW74080  10.833  13.981  11.397
90728SOL    HW174081  10.864  14.049  11.336
90728SOL    HW274082  10.854  13.899  11.353
90729SOL     OW74083   0.281   6.492   3.007
90729SOL    HW174084   0.318   6.414   2.966
90729SOL    HW274085   0.282   6.473   3.100
90730SOL     OW74086   9.258   4.980   1.999
90730SOL    HW174087   9.289   5.000   1.911
90730SOL    HW274088   9.173   5.025   2.006
90731SOL     OW74089   5.121  13.449   8.625
90731SOL    HW174090   5.095  13.441   8.716
90731SOL    HW274091   5.040  13.472   8.579
90732SOL     OW74092   6.654   8.622   8.507
90732SOL    HW174093   6.706   8.658   8.434
90732SOL    HW274094   6.661   8.689   8.575
90733SOL     OW74095   5.224  10.719   9.249
90733SOL    HW174096   5.223  10.624   9.254
90733SOL    HW274097   5.202  10.739   9.158
90734SOL     OW74098   3.235   0.532  13.207
90734SOL    HW174099   3.202   0.470  13.272
90734SOL    HW274100   3.322   0.555  13.238
90735SOL     OW74101   3.641   3.934   7.420
90735SOL    HW174102   3.612   3.846   7.443
90735SOL    HW274103   3.717   3.949   7.476
90736SOL     OW74104  11.706   7.400  14.468
90736SOL    HW174105  11.691   7.334  14.536
90736SOL    HW274106  11.638   7.466  14.484
90737SOL     OW74107   0.653  14.414   4.326
90737SOL    HW174108   0.716  14.424   4.254
90737SOL    HW274109   0.580  14.471   4.302
90738SOL     OW74110   0.235  11.288  14.200
90738SOL    HW174111   0.198  11.313  14.115
90738SOL    HW274112   0.222  11.193  14.204
90739SOL     OW74113   9.394   3.252   5.669
90739SOL    HW174114   9.343   3.268   5.590
90739SOL    HW274115   9.472   3.307   5.658
90740SOL     OW74116  12.942  14.285   2.146
90740SOL    HW174117  13.024  14.319   2.110
90740SOL    HW274118  12.970  14.224   2.215
90741SOL     OW74119   4.240   6.555   6.840
90741SOL    HW174120   4.203   6.598   6.764
90741SOL    HW274121   4.332   6.542   6.818
90742SOL     OW74122   5.054  10.028   7.597
90742SOL    HW174123   5.040   9.951   7.542
90742SOL    HW274124   5.139  10.013   7.637
90743SOL     OW74125   8.536   9.799  13.130
90743SOL    HW174126   8.586   9.744  13.070
90743SOL    HW274127   8.580   9.884  13.127
90744SOL     OW74128   2.008   5.489   4.683
90744SOL    HW174129   1.914   5.503   4.676
90744SOL    HW274130   2.044   5.575   4.704
90745SOL     OW74131  12.208  13.624   5.793
90745SOL    HW174132  12.282  13.638   5.733
90745SOL    HW274133  12.248  13.599   5.876
90746SOL     OW74134  10.593   0.596  10.157
90746SOL    HW174135  10.552   0.671  10.201
90746SOL    HW274136  10.539   0.581  10.080
90747SOL     OW74137  14.783   7.576   2.690
90747SOL    HW174138  14.838   7.570   2.611
90747SOL    HW274139  14.836   7.535   2.759
90748SOL     OW74140   6.576  13.540   9.241
90748SOL    HW174141   6.528  13.530   9.323
90748SOL    HW274142   6.577  13.453   9.202
90749SOL     OW74143  10.392   8.268  10.670
90749SOL    HW174144  10.463   8.206  10.656
90749SOL    HW274145  10.319   8.214  10.701
90750SOL     OW74146   4.048   0.835   1.143
90750SOL    HW174147   4.130   0.785   1.155
90750SOL    HW274148   4.020   0.855   1.232
90751SOL     OW74149  12.477   7.720   9.708
90751SOL    HW174150  12.546   7.661   9.677
90751SOL    HW274151  12.496   7.803   9.664
90752SOL     OW74152   9.528  12.689   0.869
90752SOL    HW174153   9.614  12.651   0.852
90752SOL    HW274154   9.498  12.648   0.950
90753SOL     OW74155  10.574   8.924   5.862
90753SOL    HW174156  10.662   8.960   5.864
90753SOL    HW274157  10.587   8.829   5.856
90754SOL     OW74158   1.776   3.547   7.083
90754SOL    HW174159   1.787   3.568   7.176
90754SOL    HW274160   1.848   3.594   7.040
90755SOL     OW74161  10.884  12.337   0.573
90755SOL    HW174162  10.838  12.295   0.647
90755SOL    HW274163  10.859  12.285   0.497
90756SOL     OW74164   8.653   9.800  10.420
90756SOL    HW174165   8.644   9.762  10.508
90756SOL    HW274166   8.735   9.849  10.423
90757SOL     OW74167  13.739   5.761   6.469
90757SOL    HW174168  13.779   5.829   6.415
90757SOL    HW274169  13.651   5.750   6.432
90758SOL     OW74170   1.232  12.471  13.250
90758SOL    HW174171   1.137  12.478  13.255
90758SOL    HW274172   1.254  12.391  13.298
90759SOL     OW74173   4.279   9.785  13.684
90759SOL    HW174174   4.199   9.732  13.681
90759SOL    HW274175   4.249   9.875  13.671
90760SOL     OW74176   9.735  12.317  14.836
90760SOL    HW174177   9.725  12.403   0.006
90760SOL    HW274178   9.829  12.299  14.839
90761SOL     OW74179   7.586   5.315   0.289
90761SOL    HW174180   7.505   5.348   0.327
90761SOL    HW274181   7.560   5.284   0.202
90762SOL     OW74182  13.672   6.068  11.501
90762SOL    HW174183  13.669   5.992  11.559
90762SOL    HW274184  13.747   6.118  11.532
90763SOL     OW74185   0.630   0.565   5.479
90763SOL    HW174186   0.592   0.607   5.556
90763SOL    HW274187   0.622   0.630   5.410
90764SOL     OW74188   6.176  12.817  12.892
90764SOL    HW174189   6.150  12.893  12.840
90764SOL    HW274190   6.103  12.757  12.885
90765SOL     OW74191   6.632   8.669  11.729
90765SOL    HW174192   6.612   8.762  11.733
90765SOL    HW274193   6.546   8.626  11.731
90766SOL     OW74194  13.676   9.442   7.844
90766SOL    HW174195  13.628   9.415   7.922
90766SOL    HW274196  13.742   9.503   7.876
90767SOL     OW74197   0.359   8.294   3.517
90767SOL    HW174198   0.385   8.203   3.530
90767SOL    HW274199   0.423   8.329   3.456
90768SOL     OW74200  12.671  13.096  14.780
90768SOL    HW174201  12.701  13.018  14.827
90768SOL    HW274202  12.590  13.069  14.737
90769SOL     OW74203   0.904  10.472   3.502
90769SOL    HW174204   0.832  10.416   3.475
90769SOL    HW274205   0.941  10.506   3.420
90770SOL     OW74206   2.655   7.023   5.363
90770SOL    HW174207   2.708   7.041   5.440
90770SOL    HW274208   2.703   7.062   5.290
90771SOL     OW74209   4.172  10.869  13.980
90771SOL    HW174210   4.087  10.842  14.014
90771SOL    HW274211   4.156  10.954  13.939
90772SOL     OW74212   2.674   0.318   4.402
90772SOL    HW174213   2.617   0.394   4.390
90772SOL    HW274214   2.748   0.335   4.343
90773SOL     OW74215   9.945  13.057   5.166
90773SOL    HW174216   9.899  13.102   5.095
90773SOL    HW274217   9.953  12.967   5.135
90774SOL     OW74218   3.197   5.102  12.096
90774SOL    HW174219   3.248   5.181  12.115
90774SOL    HW274220   3.259   5.030  12.111
90775SOL     OW74221  11.760   4.800   3.375
90775SOL    HW174222  11.753   4.755   3.291
90775SOL    HW274223  11.852   4.828   3.380
90776SOL     OW74224  14.171   7.281   9.769
90776SOL    HW174225  14.189   7.317   9.682
90776SOL    HW274226  14.088   7.234   9.758
90777SOL     OW74227   0.131  12.450  14.192
90777SOL    HW174228   0.126  12.363  14.233
90777SOL    HW274229   0.141  12.510  14.266
90778SOL     OW74230   0.026   6.247  12.074
90778SOL    HW174231   0.022   6.251  11.978
90778SOL    HW274232  14.858   6.161  12.096
90779SOL     OW74233   7.777   3.474   6.082
90779SOL    HW174234   7.693   3.507   6.113
90779SOL    HW274235   7.838   3.546   6.098
90780SOL     OW74236   5.351  10.518  12.936
90780SOL    HW174237   5.304  10.598  12.914
90780SOL    HW274238   5.318  10.453  12.874
90781SOL     OW74239   9.389   2.091   3.723
90781SOL    HW174240   9.451   2.164   3.725
90781SOL    HW274241   9.312   2.126   3.678
90782SOL     OW74242  14.463   2.679   8.450
90782SOL    HW174243  14.475   2.772   8.470
90782SOL    HW274244  14.551   2.647   8.429
90783SOL     OW74245   6.490   5.180  14.838
90783SOL    HW174246   6.411   5.192   0.021
90783SOL    HW274247   6.459   5.181  14.748
90784SOL     OW74248  13.533   3.861   8.362
90784SOL    HW174249  13.526   3.766   8.365
90784SOL    HW274250  13.620   3.880   8.398
90785SOL     OW74251  13.964   3.071   3.301
90785SOL    HW174252  13.904   3.048   3.230
90785SOL    HW274253  14.020   3.139   3.264
90786SOL     OW74254   3.861  12.399   9.260
90786SOL    HW174255   3.839  12.474   9.205
90786SOL    HW274256   3.944  12.423   9.301
90787SOL     OW74257   6.307  10.756   8.682
90787SOL    HW174258   6.263  10.743   8.766
90787SOL    HW274259   6.236  10.778   8.622
90788SOL     OW74260  12.457   0.613   7.455
90788SOL    HW174261  12.382   0.604   7.396
90788SOL    HW274262  12.500   0.528   7.451
90789SOL     OW74263   5.637   6.704   5.000
90789SOL    HW174264   5.596   6.786   4.973
90789SOL    HW274265   5.597   6.684   5.085
90790SOL     OW74266   7.689   2.509   1.520
90790SOL    HW174267   7.715   2.448   1.589
90790SOL    HW274268   7.647   2.581   1.567
90791SOL     OW74269   6.842  10.659   0.560
90791SOL    HW174270   6.886  10.643   0.476
90791SOL    HW274271   6.911  10.650   0.625
90792SOL     OW74272   4.852   4.803  14.333
90792SOL    HW174273   4.867   4.886  14.379
90792SOL    HW274274   4.759   4.785  14.343
90793SOL     OW74275   9.892   7.832  10.397
90793SOL    HW174276   9.968   7.890  10.395
90793SOL    HW274277   9.890   7.791  10.311
90794SOL     OW74278  14.391   5.835   1.845
90794SOL    HW174279  14.413   5.752   1.888
90794SOL    HW274280  14.438   5.902   1.894
90795SOL     OW74281   0.351   9.636  13.900
90795SOL    HW174282   0.372   9.614  13.809
90795SOL    HW274283   0.413   9.705  13.922
90796SOL     OW74284  10.910  10.022  13.524
90796SOL    HW174285  10.818  10.033  13.502
90796SOL    HW274286  10.913  10.035  13.619
90797SOL     OW74287  11.812   0.833   9.651
90797SOL    HW174288  11.782   0.823   9.741
90797SOL    HW274289  11.893   0.783   9.646
90798SOL     OW74290   4.333   3.448   6.494
90798SOL    HW174291   4.319   3.456   6.588
90798SOL    HW274292   4.418   3.487   6.478
90799SOL     OW74293   2.115   6.759   6.114
90799SOL    HW174294   2.127   6.853   6.098
90799SOL    HW274295   2.099   6.754   6.209
90800SOL     OW74296   6.693   2.039   1.566
90800SOL    HW174297   6.650   2.068   1.485
90800SOL    HW274298   6.644   2.082   1.636
90801SOL     OW74299  11.869  11.508   1.630
90801SOL    HW174300  11.803  11.443   1.655
90801SOL    HW274301  11.818  11.586   1.608
90802SOL     OW74302   7.925   7.994   1.046
90802SOL    HW174303   7.867   8.066   1.072
90802SOL    HW274304   7.972   8.028   0.971
90803SOL     OW74305   4.225   2.282  14.822
90803SOL    HW174306   4.269   2.217  14.768
90803SOL    HW274307   4.295   2.337  14.856
90804SOL     OW74308   2.450  12.832   6.954
90804SOL    HW174309   2.482  12.761   6.898
90804SOL    HW274310   2.523  12.850   7.014
90805SOL     OW74311   7.702   1.435   2.086
90805SOL    HW174312   7.708   1.428   2.181
90805SOL    HW274313   7.793   1.438   2.057
90806SOL     OW74314  11.042   6.053  12.482
90806SOL    HW174315  10.970   6.042  12.420
90806SOL    HW274316  11.008   6.015  12.564
90807SOL     OW74317   6.025   1.716   2.499
90807SOL    HW174318   6.054   1.626   2.480
90807SOL    HW274319   5.935   1.706   2.530
90808SOL     OW74320   4.500   7.457   7.939
90808SOL    HW174321   4.492   7.380   7.995
90808SOL    HW274322   4.584   7.497   7.965
90809SOL     OW74323   8.152   7.084   2.873
90809SOL    HW174324   8.214   7.097   2.945
90809SOL    HW274325   8.071   7.055   2.916
90810SOL     OW74326  11.602  10.197  14.700
90810SOL    HW174327  11.538  10.144  14.653
90810SOL    HW274328  11.600  10.282  14.656
90811SOL     OW74329  13.205   2.563   6.697
90811SOL    HW174330  13.130   2.539   6.643
90811SOL    HW274331  13.271   2.496   6.679
90812SOL     OW74332  13.265  11.048   7.799
90812SOL    HW174333  13.274  11.111   7.728
90812SOL    HW274334  13.325  10.977   7.775
90813SOL     OW74335   6.994   3.074   3.851
90813SOL    HW174336   6.992   3.169   3.846
90813SOL    HW274337   6.907   3.050   3.885
90814SOL     OW74338   6.398  11.106  13.984
90814SOL    HW174339   6.462  11.043  14.018
90814SOL    HW274340   6.439  11.191  13.999
90815SOL     OW74341   8.207   7.288  13.776
90815SOL    HW174342   8.295   7.326  13.770
90815SOL    HW274343   8.160   7.345  13.836
90816SOL     OW74344  10.480  11.118   8.995
90816SOL    HW174345  10.418  11.052   8.962
90816SOL    HW274346  10.565  11.087   8.964
90817SOL     OW74347   8.182   1.979   0.413
90817SOL    HW174348   8.269   1.946   0.392
90817SOL    HW274349   8.197   2.070   0.441
90818SOL     OW74350   4.153   9.812   5.443
90818SOL    HW174351   4.144   9.717   5.453
90818SOL    HW274352   4.136   9.847   5.531
90819SOL     OW74353   2.840  14.019  12.502
90819SOL    HW174354   2.756  14.053  12.471
90819SOL    HW274355   2.870  13.962  12.431
90820SOL     OW74356   4.580  12.056   2.931
90820SOL    HW174357   4.619  11.968   2.936
90820SOL    HW274358   4.496  12.042   2.886
90821SOL     OW74359   8.659   2.583  13.417
90821SOL    HW174360   8.580   2.541  13.383
90821SOL    HW274361   8.720   2.510  13.433
90822SOL     OW74362   6.284  10.137   8.601
90822SOL    HW174363   6.199  10.183   8.599
90822SOL    HW274364   6.261  10.045   8.607
90823SOL     OW74365  11.866  11.187   0.403
90823SOL    HW174366  11.822  11.198   0.487
90823SOL    HW274367  11.820  11.115   0.360
90824SOL     OW74368   9.489  12.293  12.705
90824SOL    HW174369   9.418  12.318  12.765
90824SOL    HW274370   9.447  12.280  12.621
90825SOL     OW74371  14.274   7.848  10.510
90825SOL    HW174372  14.353   7.799  10.531
90825SOL    HW274373  14.210   7.780  10.485
90826SOL     OW74374   8.998  14.263  12.320
90826SOL    HW174375   8.974  14.346  12.277
90826SOL    HW274376   8.959  14.195  12.264
90827SOL     OW74377  11.131   3.710   1.928
90827SOL    HW174378  11.151   3.634   1.982
90827SOL    HW274379  11.132   3.677   1.838
90828SOL     OW74380   3.293   4.790   1.970
90828SOL    HW174381   3.342   4.731   2.027
90828SOL    HW274382   3.231   4.733   1.924
90829SOL     OW74383   9.271   1.572  11.284
90829SOL    HW174384   9.323   1.634  11.233
90829SOL    HW274385   9.325   1.552  11.361
90830SOL     OW74386   7.922   1.708   7.630
90830SOL    HW174387   7.829   1.689   7.627
90830SOL    HW274388   7.928   1.790   7.680
90831SOL     OW74389   7.978   6.861   1.543
90831SOL    HW174390   7.927   6.935   1.577
90831SOL    HW274391   7.917   6.787   1.547
90832SOL     OW74392  12.229  10.053   1.077
90832SOL    HW174393  12.162  10.102   1.124
90832SOL    HW274394  12.312  10.082   1.115
90833SOL     OW74395  10.718   0.998   1.955
90833SOL    HW174396  10.691   1.073   1.902
90833SOL    HW274397  10.761   1.036   2.031
90834SOL     OW74398   5.321   3.813  12.263
90834SOL    HW174399   5.278   3.833  12.346
90834SOL    HW274400   5.389   3.880  12.254
90835SOL     OW74401  10.353   7.092  13.942
90835SOL    HW174402  10.337   7.170  13.888
90835SOL    HW274403  10.436   7.057  13.910
90836SOL     OW74404   3.596   1.266   2.892
90836SOL    HW174405   3.611   1.277   2.986
90836SOL    HW274406   3.501   1.269   2.883
90837SOL     OW74407   4.671   3.572  11.858
90837SOL    HW174408   4.728   3.569  11.782
90837SOL    HW274409   4.583   3.561  11.823
90838SOL     OW74410   7.534   6.545  14.316
90838SOL    HW174411   7.591   6.622  14.311
90838SOL    HW274412   7.545   6.501  14.232
90839SOL     OW74413   3.569   8.285   8.921
90839SOL    HW174414   3.618   8.266   8.841
90839SOL    HW274415   3.560   8.201   8.965
90840SOL     OW74416   4.903   6.030   5.135
90840SOL    HW174417   4.950   5.949   5.154
90840SOL    HW274418   4.942   6.096   5.191
90841SOL     OW74419   3.999   3.693  14.846
90841SOL    HW174420   4.037   3.671  14.761
90841SOL    HW274421   4.061   3.755   0.016
90842SOL     OW74422  10.325   5.827   8.952
90842SOL    HW174423  10.274   5.894   8.999
90842SOL    HW274424  10.314   5.849   8.860
90843SOL     OW74425   0.974   2.745  14.042
90843SOL    HW174426   1.041   2.690  14.003
90843SOL    HW274427   1.009   2.768  14.128
90844SOL     OW74428  10.208   3.446   0.610
90844SOL    HW174429  10.166   3.464   0.694
90844SOL    HW274430  10.160   3.500   0.547
90845SOL     OW74431  12.629  10.774   8.462
90845SOL    HW174432  12.606  10.707   8.397
90845SOL    HW274433  12.670  10.726   8.533
90846SOL     OW74434   4.923  13.024   7.015
90846SOL    HW174435   4.899  12.989   7.101
90846SOL    HW274436   4.975  12.955   6.975
90847SOL     OW74437  12.704   3.348  13.009
90847SOL    HW174438  12.694   3.421  13.070
90847SOL    HW274439  12.794   3.355  12.976
90848SOL     OW74440   3.618   6.447  11.543
90848SOL    HW174441   3.704   6.443  11.583
90848SOL    HW274442   3.569   6.509  11.596
90849SOL     OW74443   7.878  13.991   2.213
90849SOL    HW174444   7.961  13.957   2.246
90849SOL    HW274445   7.853  13.930   2.143
90850SOL     OW74446   1.769   1.440   6.049
90850SOL    HW174447   1.754   1.345   6.056
90850SOL    HW274448   1.837   1.458   6.115
90851SOL     OW74449  13.670   8.458   5.517
90851SOL    HW174450  13.596   8.404   5.544
90851SOL    HW274451  13.653   8.477   5.425
90852SOL     OW74452   5.308   7.864  12.164
90852SOL    HW174453   5.248   7.932  12.135
90852SOL    HW274454   5.385   7.911  12.194
90853SOL     OW74455   9.914   7.785   8.570
90853SOL    HW174456   9.875   7.868   8.544
90853SOL    HW274457   9.883   7.769   8.659
90854SOL     OW74458   9.202   4.371   7.068
90854SOL    HW174459   9.201   4.351   7.161
90854SOL    HW274460   9.134   4.438   7.057
90855SOL     OW74461   9.315   7.354  11.817
90855SOL    HW174462   9.290   7.381  11.728
90855SOL    HW274463   9.364   7.428  11.852
90856SOL     OW74464  14.160  12.683   3.287
90856SOL    HW174465  14.221  12.665   3.359
90856SOL    HW274466  14.074  12.689   3.329
90857SOL     OW74467  11.304   1.739   5.462
90857SOL    HW174468  11.307   1.809   5.398
90857SOL    HW274469  11.325   1.782   5.545
90858SOL     OW74470   8.098   4.814   5.935
90858SOL    HW174471   8.173   4.815   5.994
90858SOL    HW274472   8.024   4.786   5.989
90859SOL     OW74473  10.834  12.384   2.039
90859SOL    HW174474  10.923  12.386   2.074
90859SOL    HW274475  10.799  12.299   2.067
90860SOL     OW74476   8.665   7.860  13.723
90860SOL    HW174477   8.593   7.798  13.718
90860SOL    HW274478   8.735   7.821  13.670
90861SOL     OW74479   4.436   8.482   7.544
90861SOL    HW174480   4.466   8.483   7.634
90861SOL    HW274481   4.385   8.402   7.536
90862SOL     OW74482   4.063   3.490   4.760
90862SOL    HW174483   4.022   3.423   4.815
90862SOL    HW274484   4.124   3.535   4.819
90863SOL     OW74485   1.422   0.055   7.715
90863SOL    HW174486   1.485   0.126   7.703
90863SOL    HW274487   1.396   0.062   7.807
90864SOL     OW74488  10.774   4.521   5.887
90864SOL    HW174489  10.715   4.483   5.823
90864SOL    HW274490  10.855   4.471   5.878
90865SOL     OW74491   7.825  13.687   4.944
90865SOL    HW174492   7.901  13.714   4.997
90865SOL    HW274493   7.819  13.593   4.957
90866SOL     OW74494   6.605   0.726  10.941
90866SOL    HW174495   6.627   0.798  10.883
90866SOL    HW274496   6.539   0.675  10.893
90867SOL     OW74497   8.375   6.762   9.431
90867SOL    HW174498   8.339   6.709   9.502
90867SOL    HW274499   8.358   6.852   9.458
90868SOL     OW74500   2.810   8.735   8.897
90868SOL    HW174501   2.753   8.682   8.841
90868SOL    HW274502   2.892   8.686   8.901
90869SOL     OW74503   0.426  12.624  12.202
90869SOL    HW174504   0.387  12.677  12.133
90869SOL    HW274505   0.455  12.544  12.159
90870SOL     OW74506   5.313   8.535   7.291
90870SOL    HW174507   5.305   8.628   7.269
90870SOL    HW274508   5.305   8.532   7.386
90871SOL     OW74509   8.910  14.828   7.519
90871SOL    HW174510   8.947  14.775   7.448
90871SOL    HW274511   8.820  14.845   7.491
90872SOL     OW74512  13.735   6.728  14.026
90872SOL    HW174513  13.644   6.751  14.008
90872SOL    HW274514  13.731   6.669  14.101
90873SOL     OW74515   6.954   6.511  10.646
90873SOL    HW174516   6.936   6.531  10.737
90873SOL    HW274517   6.931   6.419  10.635
90874SOL     OW74518   5.559   1.934   7.035
90874SOL    HW174519   5.518   1.992   7.099
90874SOL    HW274520   5.488   1.877   7.007
90875SOL     OW74521   6.596   5.954   0.935
90875SOL    HW174522   6.521   6.011   0.954
90875SOL    HW274523   6.594   5.941   0.840
90876SOL     OW74524  12.998  12.405   2.300
90876SOL    HW174525  12.974  12.327   2.351
90876SOL    HW274526  13.093  12.409   2.305
90877SOL     OW74527  12.255   9.156   2.479
90877SOL    HW174528  12.256   9.111   2.395
90877SOL    HW274529  12.343   9.143   2.514
90878SOL     OW74530   8.555  12.713  11.942
90878SOL    HW174531   8.467  12.748  11.926
90878SOL    HW274532   8.593  12.703  11.855
90879SOL     OW74533  13.576   3.500   7.349
90879SOL    HW174534  13.538   3.513   7.262
90879SOL    HW274535  13.577   3.405   7.361
90880SOL     OW74536   5.674   7.204   4.449
90880SOL    HW174537   5.658   7.290   4.489
90880SOL    HW274538   5.605   7.195   4.383
90881SOL     OW74539  11.713   2.069   5.708
90881SOL    HW174540  11.695   2.120   5.629
90881SOL    HW274541  11.718   1.978   5.678
90882SOL     OW74542   5.556   4.516  10.309
90882SOL    HW174543   5.577   4.609  10.317
90882SOL    HW274544   5.566   4.482  10.398
90883SOL     OW74545  12.753   4.770   6.344
90883SOL    HW174546  12.826   4.717   6.375
90883SOL    HW274547  12.780   4.860   6.360
90884SOL     OW74548   8.118   9.168  11.325
90884SOL    HW174549   8.105   9.114  11.403
90884SOL    HW274550   8.186   9.230  11.350
90885SOL     OW74551   2.916   9.812  13.043
90885SOL    HW174552   2.957   9.878  12.987
90885SOL    HW274553   2.839   9.784  12.995
90886SOL     OW74554   8.104   4.747  12.547
90886SOL    HW174555   8.038   4.696  12.593
90886SOL    HW274556   8.106   4.831  12.592
90887SOL     OW74557  11.454   9.424   1.903
90887SOL    HW174558  11.498   9.341   1.919
90887SOL    HW274559  11.434   9.458   1.990
90888SOL     OW74560   2.372  14.411   3.347
90888SOL    HW174561   2.324  14.478   3.298
90888SOL    HW274562   2.458  14.410   3.307
90889SOL     OW74563  10.407   6.948  13.074
90889SOL    HW174564  10.368   6.912  12.995
90889SOL    HW274565  10.479   6.888  13.094
90890SOL     OW74566  14.277   8.574   4.799
90890SOL    HW174567  14.266   8.651   4.854
90890SOL    HW274568  14.337   8.518   4.848
90891SOL     OW74569   3.640  11.069   4.613
90891SOL    HW174570   3.706  11.000   4.609
90891SOL    HW274571   3.671  11.130   4.680
90892SOL     OW74572   2.446  13.368   2.390
90892SOL    HW174573   2.387  13.376   2.465
90892SOL    HW274574   2.406  13.301   2.335
90893SOL     OW74575  10.183  11.302  13.064
90893SOL    HW174576  10.151  11.361  13.133
90893SOL    HW274577  10.127  11.321  12.989
90894SOL     OW74578   3.122  12.803  12.663
90894SOL    HW174579   3.182  12.763  12.601
90894SOL    HW274580   3.169  12.879  12.697
90895SOL     OW74581  10.554   7.943   8.160
90895SOL    HW174582  10.562   8.029   8.118
90895SOL    HW274583  10.638   7.930   8.203
90896SOL     OW74584   6.023   7.232  10.499
90896SOL    HW174585   5.983   7.312  10.532
90896SOL    HW274586   6.093   7.264  10.441
90897SOL     OW74587  10.580   6.005  10.655
90897SOL    HW174588  10.648   5.977  10.593
90897SOL    HW274589  10.500   5.964  10.623
90898SOL     OW74590   5.103   7.758  13.144
90898SOL    HW174591   5.114   7.729  13.053
90898SOL    HW274592   5.087   7.678  13.193
90899SOL     OW74593  13.079   9.464  13.160
90899SOL    HW174594  13.173   9.446  13.161
90899SOL    HW274595  13.070   9.548  13.206
90900SOL     OW74596   0.136  13.983  13.042
90900SOL    HW174597   0.140  13.890  13.022
90900SOL    HW274598   0.124  14.025  12.957
90901SOL     OW74599  12.528   9.416  13.221
90901SOL    HW174600  12.558   9.369  13.143
90901SOL    HW274601  12.488   9.348  13.276
90902SOL     OW74602   5.131   4.178   7.610
90902SOL    HW174603   5.127   4.249   7.674
90902SOL    HW274604   5.222   4.178   7.580
90903SOL     OW74605  13.621  11.829   0.128
90903SOL    HW174606  13.679  11.829   0.204
90903SOL    HW274607  13.668  11.878   0.061
90904SOL     OW74608   5.336   4.862   6.930
90904SOL    HW174609   5.294   4.884   7.013
90904SOL    HW274610   5.298   4.923   6.866
90905SOL     OW74611   6.480  10.192   3.244
90905SOL    HW174612   6.554  10.245   3.274
90905SOL    HW274613   6.406  10.253   3.243
90906SOL     OW74614  14.823  11.421   0.038
90906SOL    HW174615  14.736  11.460   0.038
90906SOL    HW274616   0.010  11.491   0.072
90907SOL     OW74617  10.221   1.827   9.481
90907SOL    HW174618  10.220   1.903   9.539
90907SOL    HW274619  10.287   1.849   9.415
90908SOL     OW74620   4.829  10.048   9.054
90908SOL    HW174621   4.882  10.088   9.123
90908SOL    HW274622   4.808   9.961   9.088
90909SOL     OW74623   9.717   4.099  14.260
90909SOL    HW174624   9.677   4.153  14.329
90909SOL    HW274625   9.771   4.160  14.210
90910SOL     OW74626   6.873   1.203   4.802
90910SOL    HW174627   6.815   1.216   4.728
90910SOL    HW274628   6.842   1.122   4.843
90911SOL     OW74629   4.544  13.191   3.650
90911SOL    HW174630   4.537  13.098   3.669
90911SOL    HW274631   4.589  13.228   3.726
90912SOL     OW74632   2.341   5.661  13.414
90912SOL    HW174633   2.279   5.602  13.457
90912SOL    HW274634   2.310   5.749  13.437
90913SOL     OW74635   4.516  11.785  11.247
90913SOL    HW174636   4.531  11.772  11.153
90913SOL    HW274637   4.423  11.769  11.259
90914SOL     OW74638   3.379   0.330  13.083
90914SOL    HW174639   3.284   0.339  13.091
90914SOL    HW274640   3.408   0.305  13.171
90915SOL     OW74641   6.876  14.295   6.509
90915SOL    HW174642   6.890  14.238   6.584
90915SOL    HW274643   6.832  14.372   6.545
90916SOL     OW74644  12.398  11.460   5.090
90916SOL    HW174645  12.424  11.486   5.179
90916SOL    HW274646  12.432  11.372   5.080
90917SOL     OW74647   0.706   6.329   4.441
90917SOL    HW174648   0.682   6.319   4.349
90917SOL    HW274649   0.788   6.282   4.450
90918SOL     OW74650  13.385   0.945  12.027
90918SOL    HW174651  13.451   0.957  11.959
90918SOL    HW274652  13.308   0.993  11.995
90919SOL     OW74653   9.284   8.588   9.279
90919SOL    HW174654   9.225   8.586   9.205
90919SOL    HW274655   9.296   8.496   9.303
90920SOL     OW74656   0.396   8.267   0.916
90920SOL    HW174657   0.425   8.179   0.939
90920SOL    HW274658   0.443   8.288   0.835
90921SOL     OW74659   2.327   3.752  11.713
90921SOL    HW174660   2.259   3.816  11.734
90921SOL    HW274661   2.409   3.797  11.734
90922SOL     OW74662   6.678   6.924  12.456
90922SOL    HW174663   6.737   6.883  12.393
90922SOL    HW274664   6.683   6.868  12.534
90923SOL     OW74665   5.790   1.441  11.475
90923SOL    HW174666   5.722   1.405  11.532
90923SOL    HW274667   5.781   1.391  11.394
90924SOL     OW74668   2.145   0.774  10.770
90924SOL    HW174669   2.051   0.770  10.754
90924SOL    HW274670   2.154   0.811  10.857
90925SOL     OW74671   1.807  12.723  11.766
90925SOL    HW174672   1.745  12.757  11.700
90925SOL    HW274673   1.763  12.739  11.850
90926SOL     OW74674   3.724   1.608   8.980
90926SOL    HW174675   3.748   1.616   9.072
90926SOL    HW274676   3.796   1.557   8.941
90927SOL     OW74677   9.201  11.642  13.880
90927SOL    HW174678   9.231  11.729  13.854
90927SOL    HW274679   9.113  11.657  13.915
90928SOL     OW74680  11.854   8.004  14.756
90928SOL    HW174681  11.886   7.925  14.800
90928SOL    HW274682  11.871   7.989  14.663
90929SOL     OW74683   4.197   1.177   4.666
90929SOL    HW174684   4.107   1.177   4.634
90929SOL    HW274685   4.189   1.196   4.760
90930SOL     OW74686  12.444   1.673   3.242
90930SOL    HW174687  12.361   1.707   3.209
90930SOL    HW274688  12.418   1.603   3.302
90931SOL     OW74689  12.698   1.961  12.660
90931SOL    HW174690  12.785   1.967  12.620
90931SOL    HW274691  12.709   1.899  12.732
90932SOL     OW74692   6.727  10.400   2.165
90932SOL    HW174693   6.684  10.384   2.081
90932SOL    HW274694   6.810  10.354   2.159
90933SOL     OW74695   9.436  14.329   4.256
90933SOL    HW174696   9.366  14.394   4.259
90933SOL    HW274697   9.422  14.281   4.175
90934SOL     OW74698  10.684   0.776   0.009
90934SOL    HW174699  10.769   0.813  14.854
90934SOL    HW274700  10.695   0.681  14.869
90935SOL     OW74701  14.077  10.786  12.653
90935SOL    HW174702  14.044  10.717  12.711
90935SOL    HW274703  14.170  10.766  12.642
90936SOL     OW74704   9.156  11.266  13.965
90936SOL    HW174705   9.066  11.299  13.964
90936SOL    HW274706   9.167  11.230  14.053
90937SOL     OW74707   8.146   0.531  11.016
90937SOL    HW174708   8.095   0.554  10.938
90937SOL    HW274709   8.236   0.527  10.985
90938SOL     OW74710   3.446   5.563   4.450
90938SOL    HW174711   3.388   5.583   4.524
90938SOL    HW274712   3.432   5.636   4.390
90939SOL     OW74713   2.136  11.376   2.215
90939SOL    HW174714   2.076  11.407   2.147
90939SOL    HW274715   2.201  11.323   2.168
90940SOL     OW74716  13.234   5.796   0.437
90940SOL    HW174717  13.319   5.819   0.476
90940SOL    HW274718  13.171   5.850   0.484
90941SOL     OW74719   7.188  13.951  10.943
90941SOL    HW174720   7.109  13.901  10.926
90941SOL    HW274721   7.247  13.928  10.871
90942SOL     OW74722   0.742   0.815  10.850
90942SOL    HW174723   0.817   0.838  10.904
90942SOL    HW274724   0.775   0.817  10.760
90943SOL     OW74725   4.808   2.003   0.769
90943SOL    HW174726   4.801   2.075   0.833
90943SOL    HW274727   4.794   1.924   0.821
90944SOL     OW74728   5.939   5.024  11.166
90944SOL    HW174729   5.910   5.107  11.205
90944SOL    HW274730   5.891   4.957  11.215
90945SOL     OW74731  14.440   8.599   2.785
90945SOL    HW174732  14.421   8.505   2.779
90945SOL    HW274733  14.365   8.642   2.743
90946SOL     OW74734  12.339  14.641   6.235
90946SOL    HW174735  12.257  14.596   6.256
90946SOL    HW274736  12.347  14.633   6.140
90947SOL     OW74737   1.470   9.772   7.751
90947SOL    HW174738   1.421   9.849   7.779
90947SOL    HW274739   1.428   9.746   7.669
90948SOL     OW74740   3.476  12.691   2.035
90948SOL    HW174741   3.495  12.598   2.046
90948SOL    HW274742   3.550  12.725   1.985
90949SOL     OW74743  12.193   3.697   5.143
90949SOL    HW174744  12.163   3.784   5.169
90949SOL    HW274745  12.276   3.712   5.098
90950SOL     OW74746   7.782  14.770  13.338
90950SOL    HW174747   7.690  14.774  13.313
90950SOL    HW274748   7.780  14.745  13.431
90951SOL     OW74749   9.774  12.341   1.680
90951SOL    HW174750   9.709  12.397   1.723
90951SOL    HW274751   9.755  12.253   1.712
90952SOL     OW74752   4.402   6.304   6.035
90952SOL    HW174753   4.425   6.353   6.114
90952SOL    HW274754   4.473   6.323   5.973
90953SOL     OW74755   2.810  14.186   3.951
90953SOL    HW174756   2.737  14.129   3.925
90953SOL    HW274757   2.781  14.274   3.926
90954SOL     OW74758   8.357   9.468   5.386
90954SOL    HW174759   8.320   9.495   5.302
90954SOL    HW274760   8.297   9.400   5.418
90955SOL     OW74761   8.717   0.624   4.665
90955SOL    HW174762   8.689   0.684   4.734
90955SOL    HW274763   8.811   0.640   4.656
90956SOL     OW74764   6.898   9.020  13.718
90956SOL    HW174765   6.824   8.969  13.686
90956SOL    HW274766   6.975   8.979  13.678
90957SOL     OW74767  12.297   7.663  11.657
90957SOL    HW174768  12.321   7.744  11.702
90957SOL    HW274769  12.376   7.609  11.663
90958SOL     OW74770   3.616   5.586  12.713
90958SOL    HW174771   3.558   5.563  12.786
90958SOL    HW274772   3.584   5.535  12.639
90959SOL     OW74773  13.852   4.841   9.961
90959SOL    HW174774  13.790   4.892   9.908
90959SOL    HW274775  13.923   4.903   9.979
90960SOL     OW74776  13.350   9.489   2.769
90960SOL    HW174777  13.445   9.493   2.778
90960SOL    HW274778  13.317   9.518   2.854
90961SOL     OW74779  12.578   0.531   5.796
90961SOL    HW174780  12.624   0.489   5.869
90961SOL    HW274781  12.615   0.489   5.718
90962SOL     OW74782   7.455   9.003   4.266
90962SOL    HW174783   7.423   9.092   4.253
90962SOL    HW274784   7.417   8.952   4.195
90963SOL     OW74785  14.836   2.512   2.223
90963SOL    HW174786  14.862   2.435   2.171
90963SOL    HW274787  14.857   2.488   2.313
90964SOL     OW74788   5.453  11.201   5.496
90964SOL    HW174789   5.542  11.182   5.466
90964SOL    HW274790   5.404  11.220   5.417
90965SOL     OW74791  11.518   9.126   8.792
90965SOL    HW174792  11.591   9.126   8.855
90965SOL    HW274793  11.556   9.159   8.711
90966SOL     OW74794   8.525  14.021  10.069
90966SOL    HW174795   8.549  14.110  10.045
90966SOL    HW274796   8.499  13.980   9.987
90967SOL     OW74797   7.254   3.112  11.954
90967SOL    HW174798   7.284   3.118  12.044
90967SOL    HW274799   7.310   3.173  11.906
90968SOL     OW74800   1.692  14.182  11.297
90968SOL    HW174801   1.750  14.239  11.348
90968SOL    HW274802   1.632  14.144  11.361
90969SOL     OW74803   5.713   8.268   7.900
90969SOL    HW174804   5.805   8.282   7.876
90969SOL    HW274805   5.716   8.234   7.989
90970SOL     OW74806   0.433   1.708  13.719
90970SOL    HW174807   0.510   1.765  13.721
90970SOL    HW274808   0.359   1.765  13.738
90971SOL     OW74809   9.521   3.625  10.417
90971SOL    HW174810   9.573   3.584  10.348
90971SOL    HW274811   9.560   3.593  10.498
90972SOL     OW74812  14.626  13.824   7.928
90972SOL    HW174813  14.553  13.879   7.901
90972SOL    HW274814  14.601  13.792   8.015
90973SOL     OW74815  10.835   0.255  13.397
90973SOL    HW174816  10.869   0.276  13.484
90973SOL    HW274817  10.818   0.161  13.399
90974SOL     OW74818   4.328   8.525   6.169
90974SOL    HW174819   4.237   8.553   6.177
90974SOL    HW274820   4.379   8.606   6.173
90975SOL     OW74821   4.603   3.681  14.149
90975SOL    HW174822   4.530   3.731  14.184
90975SOL    HW274823   4.671   3.687  14.216
90976SOL     OW74824  11.310  13.613   6.801
90976SOL    HW174825  11.375  13.543   6.804
90976SOL    HW274826  11.308  13.648   6.889
90977SOL     OW74827  12.010   2.828   7.830
90977SOL    HW174828  12.051   2.807   7.914
90977SOL    HW274829  11.960   2.749   7.808
90978SOL     OW74830  10.336   1.688   1.907
90978SOL    HW174831  10.362   1.676   1.816
90978SOL    HW274832  10.304   1.602   1.935
90979SOL     OW74833  14.571   6.904  11.692
90979SOL    HW174834  14.621   6.945  11.621
90979SOL    HW274835  14.483   6.942  11.684
90980SOL     OW74836   4.137   9.912  14.742
90980SOL    HW174837   4.114   9.874  14.657
90980SOL    HW274838   4.104  10.001  14.739
90981SOL     OW74839  14.144   9.526  11.645
90981SOL    HW174840  14.172   9.534  11.736
90981SOL    HW274841  14.049   9.516  11.650
90982SOL     OW74842   7.365   7.711  14.613
90982SOL    HW174843   7.407   7.625  14.601
90982SOL    HW274844   7.272   7.695  14.597
90983SOL     OW74845   1.454   8.665   4.650
90983SOL    HW174846   1.410   8.750   4.646
90983SOL    HW274847   1.529   8.679   4.706
90984SOL     OW74848  12.031   4.245  10.330
90984SOL    HW174849  12.116   4.253  10.374
90984SOL    HW274850  11.972   4.301  10.380
90985SOL     OW74851   0.096   8.491   0.976
90985SOL    HW174852   0.091   8.583   0.952
90985SOL    HW274853   0.012   8.454   0.948
90986SOL     OW74854  14.714   8.190   0.867
90986SOL    HW174855  14.777   8.151   0.928
90986SOL    HW274856  14.763   8.200   0.785
90987SOL     OW74857   9.364   3.286  14.568
90987SOL    HW174858   9.385   3.223  14.498
90987SOL    HW274859   9.379   3.237  14.649
90988SOL     OW74860   5.973   3.757  11.627
90988SOL    HW174861   5.985   3.811  11.549
90988SOL    HW274862   5.950   3.819  11.696
90989SOL     OW74863   8.588   8.096   7.601
90989SOL    HW174864   8.592   8.159   7.673
90989SOL    HW274865   8.523   8.031   7.630
90990SOL     OW74866  12.636   6.971   2.702
90990SOL    HW174867  12.566   6.946   2.762
90990SOL    HW274868  12.709   6.915   2.725
90991SOL     OW74869   2.625   9.971   7.937
90991SOL    HW174870   2.537   9.986   7.972
90991SOL    HW274871   2.613   9.972   7.842
90992SOL     OW74872  14.522  11.981   4.701
90992SOL    HW174873  14.442  11.984   4.753
90992SOL    HW274874  14.505  12.040   4.628
90993SOL     OW74875   4.542   0.207   8.136
90993SOL    HW174876   4.634   0.218   8.157
90993SOL    HW274877   4.496   0.233   8.216
90994SOL     OW74878  10.716   2.537   6.497
90994SOL    HW174879  10.760   2.598   6.436
90994SOL    HW274880  10.695   2.461   6.443
90995SOL     OW74881   9.183   6.769   4.902
90995SOL    HW174882   9.173   6.811   4.988
90995SOL    HW274883   9.265   6.720   4.908
90996SOL     OW74884   3.778   2.897   2.387
90996SOL    HW174885   3.730   2.923   2.466
90996SOL    HW274886   3.774   2.973   2.330
90997SOL     OW74887   6.555  13.151  14.612
90997SOL    HW174888   6.608  13.117  14.540
90997SOL    HW274889   6.618  13.187  14.674
90998SOL     OW74890   7.766   1.794  13.917
90998SOL    HW174891   7.696   1.839  13.870
90998SOL    HW274892   7.809   1.862  13.968
90999SOL     OW74893   3.257   5.057  14.214
90999SOL    HW174894   3.183   5.059  14.154
90999SOL    HW274895   3.221   5.023  14.296
91000SOL     OW74896  14.790  12.427   3.794
91000SOL    HW174897  14.847  12.489   3.748
91000SOL    HW274898  14.732  12.393   3.726
91001SOL     OW74899   3.137  10.473   6.819
91001SOL    HW174900   3.155  10.404   6.882
91001SOL    HW274901   3.045  10.461   6.796
91002SOL     OW74902  10.586   8.228   5.052
91002SOL    HW174903  10.577   8.133   5.064
91002SOL    HW274904  10.558   8.243   4.962
91003SOL     OW74905   3.445   7.798   6.538
91003SOL    HW174906   3.388   7.732   6.500
91003SOL    HW274907   3.482   7.845   6.463
91004SOL     OW74908   3.911   6.678  11.858
91004SOL    HW174909   3.960   6.626  11.921
91004SOL    HW274910   3.838   6.715  11.908
91005SOL     OW74911   0.147   8.501   6.526
91005SOL    HW174912   0.115   8.528   6.612
91005SOL    HW274913   0.104   8.418   6.509
91006SOL     OW74914  10.724  11.895  11.703
91006SOL    HW174915  10.783  11.951  11.754
91006SOL    HW274916  10.642  11.943  11.700
91007SOL     OW74917   3.350   3.281   3.666
91007SOL    HW174918   3.402   3.358   3.648
91007SOL    HW274919   3.412   3.219   3.705
91008SOL     OW74920   0.797   1.535  12.281
91008SOL    HW174921   0.846   1.614  12.259
91008SOL    HW274922   0.828   1.510  12.368
91009SOL     OW74923   5.008  11.447   1.269
91009SOL    HW174924   4.984  11.422   1.359
91009SOL    HW274925   4.957  11.388   1.214
91010SOL     OW74926  12.730  14.092   5.972
91010SOL    HW174927  12.743  14.003   5.940
91010SOL    HW274928  12.743  14.148   5.894
91011SOL     OW74929   8.951  12.654   6.753
91011SOL    HW174930   9.014  12.698   6.810
91011SOL    HW274931   8.866  12.674   6.792
91012SOL     OW74932   5.839   3.053  10.541
91012SOL    HW174933   5.895   3.009  10.605
91012SOL    HW274934   5.890   3.051  10.459
91013SOL     OW74935   9.574   5.737   0.046
91013SOL    HW174936   9.624   5.681  14.856
91013SOL    HW274937   9.639   5.768   0.110
91014SOL     OW74938   5.897  11.215   0.708
91014SOL    HW174939   5.821  11.188   0.656
91014SOL    HW274940   5.961  11.244   0.643
91015SOL     OW74941   1.058   8.947   0.844
91015SOL    HW174942   1.065   9.034   0.884
91015SOL    HW274943   0.966   8.922   0.856
91016SOL     OW74944   2.911   8.567   5.099
91016SOL    HW174945   2.954   8.528   5.175
91016SOL    HW274946   2.947   8.519   5.024
91017SOL     OW74947   3.289   5.014   8.485
91017SOL    HW174948   3.195   4.999   8.495
91017SOL    HW274949   3.319   5.040   8.572
91018SOL     OW74950  12.164   9.659   8.525
91018SOL    HW174951  12.070   9.676   8.520
91018SOL    HW274952  12.204   9.732   8.478
91019SOL     OW74953   7.999  12.621   3.219
91019SOL    HW174954   7.923  12.669   3.250
91019SOL    HW274955   8.044  12.682   3.161
91020SOL     OW74956   6.547   6.694   8.084
91020SOL    HW174957   6.493   6.665   8.157
91020SOL    HW274958   6.529   6.631   8.014
91021SOL     OW74959  14.644   7.967  13.906
91021SOL    HW174960  14.603   8.007  13.829
91021SOL    HW274961  14.602   8.010  13.980
91022SOL     OW74962   6.478   8.650   7.828
91022SOL    HW174963   6.493   8.668   7.735
91022SOL    HW274964   6.391   8.685   7.845
91023SOL     OW74965   2.617   4.218   0.106
91023SOL    HW174966   2.610   4.256   0.018
91023SOL    HW274967   2.608   4.124   0.092
91024SOL     OW74968   9.820  10.750  13.319
91024SOL    HW174969   9.831  10.795  13.402
91024SOL    HW274970   9.756  10.804  13.271
91025SOL     OW74971   4.813   5.131  14.032
91025SOL    HW174972   4.861   5.148  13.950
91025SOL    HW274973   4.843   5.044  14.059
91026SOL     OW74974   5.354   5.247   8.781
91026SOL    HW174975   5.351   5.191   8.703
91026SOL    HW274976   5.318   5.331   8.752
91027SOL     OW74977  11.717   7.616   9.913
91027SOL    HW174978  11.743   7.565   9.836
91027SOL    HW274979  11.691   7.701   9.877
91028SOL     OW74980   6.215   6.010  11.127
91028SOL    HW174981   6.291   6.009  11.068
91028SOL    HW274982   6.199   5.918  11.146
91029SOL     OW74983   3.721  12.970   7.154
91029SOL    HW174984   3.761  12.977   7.067
91029SOL    HW274985   3.758  13.043   7.204
91030SOL     OW74986  10.860   1.039   4.259
91030SOL    HW174987  10.920   1.106   4.225
91030SOL    HW274988  10.780   1.087   4.280
91031SOL     OW74989   3.618  10.389   6.789
91031SOL    HW174990   3.681  10.457   6.765
91031SOL    HW274991   3.651  10.310   6.747
91032SOL     OW74992   3.604   0.510  10.220
91032SOL    HW174993   3.596   0.448  10.147
91032SOL    HW274994   3.677   0.566  10.197
91033SOL     OW74995   5.598  11.626  12.103
91033SOL    HW174996   5.647  11.672  12.035
91033SOL    HW274997   5.659  11.561  12.137
91034SOL     OW74998   1.307  14.802  14.806
91034SOL    HW174999   1.353  14.820  14.724
91034SOL    HW275000   1.226  14.758  14.780
91035SOL     OW75001  10.332   8.706   5.528
91035SOL    HW175002  10.274   8.726   5.602
91035SOL    HW275003  10.375   8.624   5.553
91036SOL     OW75004   3.038  10.775   3.840
91036SOL    HW175005   3.114  10.804   3.891
91036SOL    HW275006   3.015  10.851   3.787
91037SOL     OW75007   7.889   4.374   7.705
91037SOL    HW175008   7.910   4.431   7.779
91037SOL    HW275009   7.962   4.312   7.702
91038SOL     OW75010   4.375   5.405   4.847
91038SOL    HW175011   4.321   5.330   4.823
91038SOL    HW275012   4.368   5.411   4.942
91039SOL     OW75013  10.154   2.540   1.370
91039SOL    HW175014  10.136   2.553   1.277
91039SOL    HW275015  10.087   2.592   1.415
91040SOL     OW75016  14.161  13.416   2.215
91040SOL    HW175017  14.105  13.415   2.292
91040SOL    HW275018  14.188  13.507   2.205
91041SOL     OW75019  13.770   4.936   6.132
91041SOL    HW175020  13.713   5.012   6.132
91041SOL    HW275021  13.771   4.906   6.222
91042SOL     OW75022   3.206   9.823   2.905
91042SOL    HW175023   3.244   9.736   2.917
91042SOL    HW275024   3.282   9.882   2.904
91043SOL     OW75025  11.743  10.847   2.091
91043SOL    HW175026  11.836  10.827   2.097
91043SOL    HW275027  11.737  10.917   2.027
91044SOL     OW75028   2.046  14.764   8.998
91044SOL    HW175029   1.979  14.805   9.052
91044SOL    HW275030   2.066  14.829   8.932
91045SOL     OW75031   1.109  12.008  12.032
91045SOL    HW175032   1.075  11.959  11.957
91045SOL    HW275033   1.034  12.059  12.063
91046SOL     OW75034   5.112   0.976   1.718
91046SOL    HW175035   5.020   0.993   1.698
91046SOL    HW275036   5.113   0.957   1.812
91047SOL     OW75037  11.576   0.472   9.226
91047SOL    HW175038  11.580   0.401   9.162
91047SOL    HW275039  11.485   0.472   9.255
91048SOL     OW75040   6.078  13.758   9.336
91048SOL    HW175041   6.114  13.687   9.284
91048SOL    HW275042   6.021  13.806   9.276
91049SOL     OW75043  13.821  11.292  14.456
91049SOL    HW175044  13.830  11.384  14.429
91049SOL    HW275045  13.738  11.264  14.418
91050SOL     OW75046   9.296   8.396  13.554
91050SOL    HW175047   9.249   8.456  13.612
91050SOL    HW275048   9.383   8.435  13.545
91051SOL     OW75049   4.372  14.667   9.680
91051SOL    HW175050   4.290  14.667   9.631
91051SOL    HW275051   4.351  14.621   9.761
91052SOL     OW75052  12.153   4.558  10.574
91052SOL    HW175053  12.186   4.607  10.499
91052SOL    HW275054  12.186   4.607  10.650
91053SOL     OW75055   1.640   5.654   9.446
91053SOL    HW175056   1.548   5.663   9.422
91053SOL    HW275057   1.657   5.560   9.443
91054SOL     OW75058   8.114   7.299  13.031
91054SOL    HW175059   8.063   7.322  13.109
91054SOL    HW275060   8.200   7.337  13.047
91055SOL     OW75061   2.358  12.117   4.186
91055SOL    HW175062   2.376  12.041   4.132
91055SOL    HW275063   2.292  12.087   4.249
91056SOL     OW75064  11.175   1.153   0.307
91056SOL    HW175065  11.144   1.239   0.278
91056SOL    HW275066  11.096   1.099   0.310
91057SOL     OW75067  13.566   2.491   3.142
91057SOL    HW175068  13.614   2.546   3.203
91057SOL    HW275069  13.501   2.549   3.103
91058SOL     OW75070  13.627  12.653  11.693
91058SOL    HW175071  13.566  12.691  11.757
91058SOL    HW275072  13.600  12.562  11.686
91059SOL     OW75073   0.253   2.399   2.764
91059SOL    HW175074   0.258   2.304   2.751
91059SOL    HW275075   0.328   2.433   2.716
91060SOL     OW75076   0.575  13.367   3.327
91060SOL    HW175077   0.498  13.360   3.270
91060SOL    HW275078   0.636  13.302   3.292
91061SOL     OW75079  14.340   0.491   6.661
91061SOL    HW175080  14.361   0.404   6.626
91061SOL    HW275081  14.398   0.501   6.736
91062SOL     OW75082  14.437   3.718   9.485
91062SOL    HW175083  14.437   3.763   9.569
91062SOL    HW275084  14.371   3.650   9.493
91063SOL     OW75085   8.413   1.132  14.849
91063SOL    HW175086   8.379   1.173  14.770
91063SOL    HW275087   8.345   1.146   0.046
91064SOL     OW75088   3.336   1.713   7.705
91064SOL    HW175089   3.256   1.675   7.669
91064SOL    HW275090   3.351   1.665   7.786
91065SOL     OW75091   4.440  10.738  12.730
91065SOL    HW175092   4.491  10.811  12.695
91065SOL    HW275093   4.380  10.715  12.659
91066SOL     OW75094   5.268   7.067  12.671
91066SOL    HW175095   5.264   7.013  12.592
91066SOL    HW275096   5.321   7.015  12.732
91067SOL     OW75097   3.983  13.321   6.401
91067SOL    HW175098   4.017  13.262   6.469
91067SOL    HW275099   3.942  13.392   6.450
91068SOL     OW75100   0.411  14.245   4.940
91068SOL    HW175101   0.497  14.203   4.947
91068SOL    HW275102   0.348  14.175   4.960
91069SOL     OW75103   8.870  14.332  12.818
91069SOL    HW175104   8.841  14.261  12.761
91069SOL    HW275105   8.951  14.301  12.857
91070SOL     OW75106   9.855   2.515  11.908
91070SOL    HW175107   9.809   2.592  11.873
91070SOL    HW275108   9.912   2.487  11.837
91071SOL     OW75109   9.466  14.108   5.689
91071SOL    HW175110   9.519  14.186   5.705
91071SOL    HW275111   9.383  14.126   5.732
91072SOL     OW75112  14.280   7.127  10.630
91072SOL    HW175113  14.228   7.084  10.698
91072SOL    HW275114  14.333   7.191  10.676
91073SOL     OW75115   5.661  12.962   6.593
91073SOL    HW175116   5.575  12.926   6.568
91073SOL    HW275117   5.717  12.885   6.600
91074SOL     OW75118  10.780   6.749  14.668
91074SOL    HW175119  10.706   6.703  14.628
91074SOL    HW275120  10.751   6.840  14.672
91075SOL     OW75121   6.285   9.301   9.012
91075SOL    HW175122   6.273   9.222   9.065
91075SOL    HW275123   6.296   9.268   8.923
91076SOL     OW75124   3.217   8.971   1.028
91076SOL    HW175125   3.197   9.052   1.075
91076SOL    HW275126   3.200   8.902   1.092
91077SOL     OW75127  13.805   9.530   8.326
91077SOL    HW175128  13.757   9.603   8.364
91077SOL    HW275129  13.740   9.481   8.277
91078SOL     OW75130   3.670   0.844  12.567
91078SOL    HW175131   3.705   0.755  12.567
91078SOL    HW275132   3.642   0.859  12.477
91079SOL     OW75133   9.946   9.608  10.438
91079SOL    HW175134   9.961   9.656  10.519
91079SOL    HW275135  10.015   9.637  10.379
91080SOL     OW75136   4.691   4.266   6.729
91080SOL    HW175137   4.651   4.261   6.816
91080SOL    HW275138   4.728   4.355   6.725
91081SOL     OW75139   8.816  13.920   6.170
91081SOL    HW175140   8.724  13.928   6.146
91081SOL    HW275141   8.847  14.011   6.177
91082SOL     OW75142  11.802  12.647  10.600
91082SOL    HW175143  11.765  12.569  10.641
91082SOL    HW275144  11.844  12.695  10.671
91083SOL     OW75145   8.847   5.434   2.311
91083SOL    HW175146   8.940   5.455   2.319
91083SOL    HW275147   8.808   5.473   2.390
91084SOL     OW75148   0.566   1.087   1.641
91084SOL    HW175149   0.594   1.054   1.555
91084SOL    HW275150   0.568   1.182   1.631
91085SOL     OW75151  12.453   5.981   3.054
91085SOL    HW175152  12.447   5.886   3.058
91085SOL    HW275153  12.382   6.008   2.995
91086SOL     OW75154   0.182   9.557   5.268
91086SOL    HW175155   0.192   9.497   5.342
91086SOL    HW275156   0.183   9.500   5.191
91087SOL     OW75157  10.401  14.735  10.321
91087SOL    HW175158  10.422  14.817  10.364
91087SOL    HW275159  10.461  14.671  10.360
91088SOL     OW75160   3.887  12.553   5.122
91088SOL    HW175161   3.865  12.494   5.050
91088SOL    HW275162   3.906  12.636   5.080
91089SOL     OW75163   1.833   1.572  10.214
91089SOL    HW175164   1.856   1.494  10.165
91089SOL    HW275165   1.829   1.642  10.148
91090SOL     OW75166   1.237   3.273   2.935
91090SOL    HW175167   1.285   3.340   2.984
91090SOL    HW275168   1.209   3.210   3.002
91091SOL     OW75169   2.230   5.928   8.308
91091SOL    HW175170   2.276   6.010   8.287
91091SOL    HW275171   2.157   5.927   8.247
91092SOL     OW75172   0.293  14.645  11.091
91092SOL    HW175173   0.209  14.602  11.075
91092SOL    HW275174   0.277  14.738  11.072
91093SOL     OW75175   9.120   7.125   8.112
91093SOL    HW175176   9.050   7.152   8.052
91093SOL    HW275177   9.148   7.206   8.154
91094SOL     OW75178   1.351   0.213   5.400
91094SOL    HW175179   1.307   0.176   5.477
91094SOL    HW275180   1.432   0.251   5.435
91095SOL     OW75181   7.151  10.402   3.250
91095SOL    HW175182   7.080  10.356   3.295
91095SOL    HW275183   7.227  10.391   3.307
91096SOL     OW75184   0.243   0.737   2.743
91096SOL    HW175185   0.313   0.794   2.776
91096SOL    HW275186   0.212   0.690   2.820
91097SOL     OW75187   5.488  10.966  12.586
91097SOL    HW175188   5.530  10.928  12.509
91097SOL    HW275189   5.519  10.913  12.659
91098SOL     OW75190   6.281   1.252  14.126
91098SOL    HW175191   6.208   1.198  14.096
91098SOL    HW275192   6.257   1.341  14.100
91099SOL     OW75193  13.277   7.308   6.355
91099SOL    HW175194  13.208   7.275   6.298
91099SOL    HW275195  13.317   7.230   6.393
91100SOL     OW75196   6.516   9.775   1.778
91100SOL    HW175197   6.518   9.697   1.723
91100SOL    HW275198   6.559   9.749   1.859
91101SOL     OW75199   6.258   7.448  11.676
91101SOL    HW175200   6.302   7.378  11.627
91101SOL    HW275201   6.317   7.466  11.749
91102SOL     OW75202   3.065   4.639   0.362
91102SOL    HW175203   3.091   4.610   0.275
91102SOL    HW275204   3.135   4.699   0.389
91103SOL     OW75205  12.568  13.609   6.448
91103SOL    HW175206  12.485  13.653   6.467
91103SOL    HW275207  12.620  13.674   6.401
91104SOL     OW75208   1.163   7.885   3.484
91104SOL    HW175209   1.235   7.863   3.425
91104SOL    HW275210   1.181   7.835   3.564
91105SOL     OW75211   1.399   0.583   8.959
91105SOL    HW175212   1.427   0.555   9.046
91105SOL    HW275213   1.424   0.676   8.954
91106SOL     OW75214   7.025  13.279   6.963
91106SOL    HW175215   7.015  13.364   7.007
91106SOL    HW275216   6.953  13.277   6.900
91107SOL     OW75217  11.686  14.634   1.721
91107SOL    HW175218  11.670  14.636   1.815
91107SOL    HW275219  11.689  14.726   1.695
91108SOL     OW75220  13.020   4.312   3.765
91108SOL    HW175221  12.948   4.375   3.756
91108SOL    HW275222  13.094   4.364   3.797
91109SOL     OW75223  12.851   7.274  13.722
91109SOL    HW175224  12.795   7.351  13.738
91109SOL    HW275225  12.871   7.278  13.629
91110SOL     OW75226   6.381  11.452  10.174
91110SOL    HW175227   6.393  11.397  10.252
91110SOL    HW275228   6.388  11.541  10.207
91111SOL     OW75229   1.326   2.170   6.312
91111SOL    HW175230   1.386   2.198   6.243
91111SOL    HW275231   1.381   2.160   6.390
91112SOL     OW75232   2.969   4.061   7.370
91112SOL    HW175233   2.889   4.087   7.324
91112SOL    HW275234   2.995   4.139   7.418
91113SOL     OW75235  10.606  14.450   6.676
91113SOL    HW175236  10.571  14.403   6.601
91113SOL    HW275237  10.700  14.435   6.671
91114SOL     OW75238  13.022   7.695   4.076
91114SOL    HW175239  12.938   7.686   4.120
91114SOL    HW275240  13.071   7.758   4.129
91115SOL     OW75241  12.113   8.613   7.835
91115SOL    HW175242  12.047   8.620   7.905
91115SOL    HW275243  12.092   8.530   7.791
91116SOL     OW75244   9.382   0.745   5.553
91116SOL    HW175245   9.466   0.759   5.510
91116SOL    HW275246   9.403   0.746   5.647
91117SOL     OW75247  13.720   2.233  12.971
91117SOL    HW175248  13.657   2.185  13.025
91117SOL    HW275249  13.773   2.282  13.034
91118SOL     OW75250   6.390   3.736   1.490
91118SOL    HW175251   6.437   3.665   1.533
91118SOL    HW275252   6.444   3.758   1.413
91119SOL     OW75253   9.855  12.729  12.487
91119SOL    HW175254   9.937  12.770  12.514
91119SOL    HW275255   9.796  12.741  12.562
91120SOL     OW75256   6.781  12.664   8.413
91120SOL    HW175257   6.794  12.569   8.403
91120SOL    HW275258   6.708  12.671   8.475
91121SOL     OW75259   4.249  12.581  11.447
91121SOL    HW175260   4.315  12.515  11.425
91121SOL    HW275261   4.197  12.590  11.368
91122SOL     OW75262   6.216   8.233  12.341
91122SOL    HW175263   6.273   8.253  12.268
91122SOL    HW275264   6.144   8.296  12.333
91123SOL     OW75265  12.723   7.512   2.194
91123SOL    HW175266  12.659   7.550   2.254
91123SOL    HW275267  12.735   7.422   2.226
91124SOL     OW75268   4.409  13.850  10.441
91124SOL    HW175269   4.495  13.840  10.401
91124SOL    HW275270   4.348  13.839  10.369
91125SOL     OW75271   9.738  11.742   4.696
91125SOL    HW175272   9.814  11.747   4.755
91125SOL    HW275273   9.740  11.825   4.648
91126SOL     OW75274   4.271  10.542   5.229
91126SOL    HW175275   4.215  10.543   5.152
91126SOL    HW275276   4.315  10.457   5.226
91127SOL     OW75277   7.221  11.557   4.437
91127SOL    HW175278   7.256  11.613   4.368
91127SOL    HW275279   7.130  11.586   4.448
91128SOL     OW75280   2.803   0.878  14.754
91128SOL    HW175281   2.743   0.926  14.811
91128SOL    HW275282   2.818   0.795  14.799
91129SOL     OW75283   7.910   7.865   8.320
91129SOL    HW175284   7.873   7.952   8.301
91129SOL    HW275285   7.971   7.879   8.392
91130SOL     OW75286   6.018   9.380   6.061
91130SOL    HW175287   5.943   9.425   6.023
91130SOL    HW275288   6.055   9.330   5.988
91131SOL     OW75289   2.927   8.164  10.357
91131SOL    HW175290   2.955   8.220  10.284
91131SOL    HW275291   2.916   8.224  10.431
91132SOL     OW75292   5.594   7.560  13.996
91132SOL    HW175293   5.499   7.553  13.984
91132SOL    HW275294   5.629   7.483  13.952
91133SOL     OW75295   3.035   2.007  10.059
91133SOL    HW175296   3.067   1.934  10.112
91133SOL    HW275297   2.952   2.031  10.100
91134SOL     OW75298   1.730  10.984   5.042
91134SOL    HW175299   1.687  10.914   4.993
91134SOL    HW275300   1.780  10.939   5.109
91135SOL     OW75301   9.394  10.640   2.590
91135SOL    HW175302   9.409  10.617   2.499
91135SOL    HW275303   9.462  10.592   2.638
91136SOL     OW75304   9.424   3.809  13.555
91136SOL    HW175305   9.461   3.812  13.643
91136SOL    HW275306   9.425   3.900  13.526
91137SOL     OW75307   0.729   3.945   7.958
91137SOL    HW175308   0.749   3.875   7.896
91137SOL    HW275309   0.756   4.025   7.913
91138SOL     OW75310  13.983   2.770   4.402
91138SOL    HW175311  13.972   2.829   4.328
91138SOL    HW275312  13.908   2.789   4.459
91139SOL     OW75313   7.225   7.129  13.844
91139SOL    HW175314   7.310   7.126  13.799
91139SOL    HW275315   7.246   7.110  13.935
91140SOL     OW75316   8.959  14.350   2.693
91140SOL    HW175317   8.938  14.396   2.774
91140SOL    HW275318   9.031  14.401   2.655
91141SOL     OW75319   1.770  13.098   9.725
91141SOL    HW175320   1.843  13.038   9.708
91141SOL    HW275321   1.799  13.181   9.689
91142SOL     OW75322  11.803   2.551   1.322
91142SOL    HW175323  11.876   2.577   1.266
91142SOL    HW275324  11.784   2.461   1.296
91143SOL     OW75325   3.585  11.573   0.332
91143SOL    HW175326   3.664  11.626   0.339
91143SOL    HW275327   3.616  11.488   0.300
91144SOL     OW75328  13.151  11.601   0.778
91144SOL    HW175329  13.172  11.666   0.845
91144SOL    HW275330  13.091  11.540   0.821
91145SOL     OW75331   1.455  10.235   7.648
91145SOL    HW175332   1.484  10.313   7.695
91145SOL    HW275333   1.393  10.192   7.707
91146SOL     OW75334  13.372   8.922   9.238
91146SOL    HW175335  13.382   9.017   9.237
91146SOL    HW275336  13.361   8.901   9.331
91147SOL     OW75337   2.838   5.444   8.179
91147SOL    HW175338   2.836   5.387   8.102
91147SOL    HW275339   2.889   5.520   8.151
91148SOL     OW75340  11.733   8.211   0.578
91148SOL    HW175341  11.798   8.202   0.648
91148SOL    HW275342  11.739   8.129   0.529
91149SOL     OW75343   8.890   8.882  11.407
91149SOL    HW175344   8.973   8.844  11.380
91149SOL    HW275345   8.836   8.807  11.431
91150SOL     OW75346   3.507   8.141  11.000
91150SOL    HW175347   3.592   8.133  10.957
91150SOL    HW275348   3.465   8.215  10.955
91151SOL     OW75349   7.516   0.724   2.843
91151SOL    HW175350   7.553   0.661   2.782
91151SOL    HW275351   7.447   0.769   2.793
91152SOL     OW75352   7.267   3.218   4.741
91152SOL    HW175353   7.220   3.253   4.666
91152SOL    HW275354   7.311   3.140   4.707
91153SOL     OW75355  12.377  11.011   1.360
91153SOL    HW175356  12.281  11.013   1.356
91153SOL    HW275357  12.404  11.030   1.270
91154SOL     OW75358   3.976   4.741  14.841
91154SOL    HW175359   4.050   4.680  14.841
91154SOL    HW275360   3.900   4.686  14.861
91155SOL     OW75361   9.890   2.389  13.253
91155SOL    HW175362   9.929   2.470  13.220
91155SOL    HW275363   9.814   2.374  13.196
91156SOL     OW75364  10.745   5.737   0.812
91156SOL    HW175365  10.668   5.760   0.760
91156SOL    HW275366  10.763   5.645   0.790
91157SOL     OW75367   8.906  12.205   2.353
91157SOL    HW175368   8.976  12.248   2.402
91157SOL    HW275369   8.952  12.155   2.285
91158SOL     OW75370  10.096   4.252  10.925
91158SOL    HW175371  10.172   4.288  10.971
91158SOL    HW275372  10.074   4.173  10.973
91159SOL     OW75373   6.018   8.985   8.054
91159SOL    HW175374   6.000   8.962   7.963
91159SOL    HW275375   6.008   8.903   8.101
91160SOL     OW75376  12.228   3.009   1.835
91160SOL    HW175377  12.320   3.019   1.858
91160SOL    HW275378  12.190   2.962   1.909
91161SOL     OW75379   3.350   2.094   1.426
91161SOL    HW175380   3.277   2.125   1.371
91161SOL    HW275381   3.308   2.047   1.498
91162SOL     OW75382   0.729   5.549   6.354
91162SOL    HW175383   0.774   5.468   6.329
91162SOL    HW275384   0.700   5.586   6.271
91163SOL     OW75385  11.612  11.518  14.246
91163SOL    HW175386  11.583  11.605  14.222
91163SOL    HW275387  11.630  11.523  14.340
91164SOL     OW75388   7.509   2.958  10.122
91164SOL    HW175389   7.565   3.005  10.061
91164SOL    HW275390   7.565   2.890  10.159
91165SOL     OW75391   9.430  14.288   2.940
91165SOL    HW175392   9.355  14.252   2.988
91165SOL    HW275393   9.435  14.236   2.860
91166SOL     OW75394  14.678   7.722   5.679
91166SOL    HW175395  14.608   7.663   5.707
91166SOL    HW275396  14.633   7.802   5.652
91167SOL     OW75397  14.217   4.139  14.627
91167SOL    HW175398  14.220   4.098  14.714
91167SOL    HW275399  14.130   4.179  14.622
91168SOL     OW75400  12.330   6.746   9.866
91168SOL    HW175401  12.344   6.796   9.946
91168SOL    HW275402  12.385   6.669   9.876
91169SOL     OW75403   6.179   0.659   4.543
91169SOL    HW175404   6.263   0.620   4.518
91169SOL    HW275405   6.147   0.603   4.614
91170SOL     OW75406   8.373   8.094  10.257
91170SOL    HW175407   8.448   8.038  10.274
91170SOL    HW275408   8.325   8.097  10.340
91171SOL     OW75409   7.605   5.762  11.344
91171SOL    HW175410   7.536   5.706  11.379
91171SOL    HW275411   7.575   5.786  11.257
91172SOL     OW75412   4.210   5.757   3.247
91172SOL    HW175413   4.206   5.817   3.321
91172SOL    HW275414   4.285   5.700   3.266
91173SOL     OW75415   3.348   5.388   1.926
91173SOL    HW175416   3.403   5.328   1.874
91173SOL    HW275417   3.271   5.402   1.872
91174SOL     OW75418   9.363   2.587   9.112
91174SOL    HW175419   9.383   2.503   9.071
91174SOL    HW275420   9.267   2.590   9.115
91175SOL     OW75421  13.619   8.747   7.368
91175SOL    HW175422  13.706   8.766   7.403
91175SOL    HW275423  13.634   8.681   7.300
91176SOL     OW75424  14.324   7.766   9.729
91176SOL    HW175425  14.351   7.689   9.679
91176SOL    HW275426  14.255   7.734   9.787
91177SOL     OW75427   6.412  14.298   8.636
91177SOL    HW175428   6.368  14.337   8.712
91177SOL    HW275429   6.440  14.212   8.667
91178SOL     OW75430   2.644   4.309   2.167
91178SOL    HW175431   2.608   4.374   2.108
91178SOL    HW275432   2.624   4.342   2.255
91179SOL     OW75433   2.942   6.725  12.990
91179SOL    HW175434   2.994   6.778  13.050
91179SOL    HW275435   2.857   6.717  13.032
91180SOL     OW75436  13.719   2.919   7.287
91180SOL    HW175437  13.799   2.942   7.334
91180SOL    HW275438  13.720   2.823   7.283
91181SOL     OW75439   8.838   7.906  11.780
91181SOL    HW175440   8.876   7.986  11.745
91181SOL    HW275441   8.744   7.922  11.780
91182SOL     OW75442  12.054   5.263   2.996
91182SOL    HW175443  11.988   5.325   2.965
91182SOL    HW275444  12.118   5.317   3.042
91183SOL     OW75445  10.156   5.075   1.107
91183SOL    HW175446  10.241   5.089   1.151
91183SOL    HW275447  10.144   4.980   1.110
91184SOL     OW75448  14.749  14.520   0.693
91184SOL    HW175449  14.838  14.485   0.682
91184SOL    HW275450  14.709  14.461   0.757
91185SOL     OW75451  10.791   7.098  12.591
91185SOL    HW175452  10.805   7.004  12.593
91185SOL    HW275453  10.784   7.120  12.498
91186SOL     OW75454   7.524  13.376   3.503
91186SOL    HW175455   7.488  13.288   3.495
91186SOL    HW275456   7.588  13.369   3.574
91187SOL     OW75457  11.436   3.387   5.508
91187SOL    HW175458  11.364   3.332   5.537
91187SOL    HW275459  11.512   3.357   5.559
91188SOL     OW75460   1.868  14.795   7.379
91188SOL    HW175461   1.832  14.759   7.460
91188SOL    HW275462   1.916   0.004   7.407
91189SOL     OW75463  10.229   8.806   0.016
91189SOL    HW175464  10.210   8.716  14.860
91189SOL    HW275465  10.299   8.799   0.080
91190SOL     OW75466   7.864  12.685   3.544
91190SOL    HW175467   7.863  12.726   3.458
91190SOL    HW275468   7.902  12.599   3.529
91191SOL     OW75469   3.020   0.303   0.496
91191SOL    HW175470   3.046   0.225   0.447
91191SOL    HW275471   2.928   0.289   0.516
91192SOL     OW75472   9.429   2.531  10.186
91192SOL    HW175473   9.341   2.508  10.155
91192SOL    HW275474   9.462   2.592  10.121
91193SOL     OW75475   2.300   1.135  11.462
91193SOL    HW175476   2.205   1.131  11.474
91193SOL    HW275477   2.333   1.182  11.538
91194SOL     OW75478  13.212  11.432   4.826
91194SOL    HW175479  13.277  11.472   4.884
91194SOL    HW275480  13.167  11.505   4.785
91195SOL     OW75481  13.533   2.021   4.491
91195SOL    HW175482  13.481   2.101   4.501
91195SOL    HW275483  13.551   2.016   4.397
91196SOL     OW75484   9.225   4.538   6.229
91196SOL    HW175485   9.263   4.614   6.185
91196SOL    HW275486   9.196   4.571   6.314
91197SOL     OW75487  10.474   4.330   1.199
91197SOL    HW175488  10.564   4.348   1.174
91197SOL    HW275489  10.458   4.240   1.167
91198SOL     OW75490  10.961  14.032   0.418
91198SOL    HW175491  10.887  14.074   0.373
91198SOL    HW275492  10.920  13.980   0.487
91199SOL     OW75493   0.718   8.876  10.625
91199SOL    HW175494   0.776   8.831  10.687
91199SOL    HW275495   0.667   8.806  10.585
91200SOL     OW75496  10.944   7.953   6.327
91200SOL    HW175497  10.915   7.863   6.313
91200SOL    HW275498  10.899   8.004   6.260
91201SOL     OW75499   1.301   4.997   2.177
91201SOL    HW175500   1.328   4.943   2.252
91201SOL    HW275501   1.233   4.944   2.133
91202SOL     OW75502   4.735  10.750  10.139
91202SOL    HW175503   4.733  10.670  10.087
91202SOL    HW275504   4.647  10.757  10.176
91203SOL     OW75505  12.981  13.856  12.874
91203SOL    HW175506  12.902  13.858  12.928
91203SOL    HW275507  13.036  13.926  12.910
91204SOL     OW75508   2.006   0.732   3.770
91204SOL    HW175509   1.948   0.758   3.698
91204SOL    HW275510   1.949   0.690   3.834
91205SOL     OW75511   2.344   4.136   7.195
91205SOL    HW175512   2.355   4.223   7.232
91205SOL    HW275513   2.362   4.076   7.267
91206SOL     OW75514   3.076   0.734   8.134
91206SOL    HW175515   3.142   0.665   8.136
91206SOL    HW275516   2.993   0.688   8.121
91207SOL     OW75517   0.552   7.279   3.113
91207SOL    HW175518   0.521   7.188   3.119
91207SOL    HW275519   0.474   7.331   3.095
91208SOL     OW75520   4.116   7.260  12.750
91208SOL    HW175521   4.028   7.247  12.715
91208SOL    HW275522   4.174   7.227  12.681
91209SOL     OW75523  13.842   5.756   9.791
91209SOL    HW175524  13.813   5.746   9.882
91209SOL    HW275525  13.761   5.759   9.740
91210SOL     OW75526  14.508  13.855  12.593
91210SOL    HW175527  14.516  13.950  12.594
91210SOL    HW275528  14.419  13.838  12.562
91211SOL     OW75529   5.016   0.025   6.619
91211SOL    HW175530   5.051  14.855   6.539
91211SOL    HW275531   4.926   0.047   6.597
91212SOL     OW75532   9.737   8.392   0.474
91212SOL    HW175533   9.716   8.319   0.415
91212SOL    HW275534   9.703   8.470   0.428
91213SOL     OW75535  14.244   3.223  14.620
91213SOL    HW175536  14.286   3.220  14.534
91213SOL    HW275537  14.221   3.132  14.639
91214SOL     OW75538   2.476  14.204   8.523
91214SOL    HW175539   2.454  14.136   8.587
91214SOL    HW275540   2.458  14.164   8.438
91215SOL     OW75541  13.987  13.588  11.467
91215SOL    HW175542  14.056  13.604  11.531
91215SOL    HW275543  13.909  13.569  11.520
91216SOL     OW75544  13.055   3.870   1.579
91216SOL    HW175545  13.040   3.792   1.632
91216SOL    HW275546  12.971   3.916   1.579
91217SOL     OW75547  10.192   8.518   4.383
91217SOL    HW175548  10.286   8.532   4.394
91217SOL    HW275549  10.152   8.569   4.454
91218SOL     OW75550   6.721  10.828  10.173
91218SOL    HW175551   6.770  10.897  10.129
91218SOL    HW275552   6.664  10.792  10.106
91219SOL     OW75553   6.137   8.148   8.764
91219SOL    HW175554   6.074   8.151   8.836
91219SOL    HW275555   6.220   8.177   8.803
91220SOL     OW75556   8.090   9.631   1.546
91220SOL    HW175557   8.181   9.604   1.552
91220SOL    HW275558   8.064   9.649   1.636
91221SOL     OW75559   2.738   2.701  12.339
91221SOL    HW175560   2.803   2.651  12.290
91221SOL    HW275561   2.658   2.692  12.288
91222SOL     OW75562   5.069  13.875   8.915
91222SOL    HW175563   5.142  13.880   8.854
91222SOL    HW275564   5.005  13.818   8.872
91223SOL     OW75565   0.947   9.584  12.806
91223SOL    HW175566   0.876   9.573  12.868
91223SOL    HW275567   1.004   9.508  12.821
91224SOL     OW75568  12.085   7.869  14.284
91224SOL    HW175569  12.041   7.784  14.280
91224SOL    HW275570  12.112   7.886  14.194
91225SOL     OW75571   0.302   8.197   4.385
91225SOL    HW175572   0.322   8.108   4.413
91225SOL    HW275573   0.208   8.206   4.399
91226SOL     OW75574  10.378   3.104  13.011
91226SOL    HW175575  10.455   3.061  13.047
91226SOL    HW275576  10.329   3.034  12.967
91227SOL     OW75577  11.946   3.567   5.086
91227SOL    HW175578  11.872   3.621   5.058
91227SOL    HW275579  12.009   3.630   5.122
91228SOL     OW75580   9.176   8.023   4.282
91228SOL    HW175581   9.116   8.086   4.322
91228SOL    HW275582   9.119   7.963   4.234
91229SOL     OW75583   1.050  14.696   7.827
91229SOL    HW175584   1.038  14.736   7.913
91229SOL    HW275585   1.035  14.767   7.765
91230SOL     OW75586   3.856  12.001  13.530
91230SOL    HW175587   3.808  12.061  13.586
91230SOL    HW275588   3.946  12.003  13.563
91231SOL     OW75589   6.256  10.752   7.110
91231SOL    HW175590   6.298  10.728   7.193
91231SOL    HW275591   6.209  10.672   7.084
91232SOL     OW75592   1.074   4.862  14.328
91232SOL    HW175593   1.146   4.924  14.321
91232SOL    HW275594   1.016   4.900  14.394
91233SOL     OW75595   8.301   0.866   5.270
91233SOL    HW175596   8.294   0.950   5.316
91233SOL    HW275597   8.381   0.826   5.304
91234SOL     OW75598  11.978   9.597   2.992
91234SOL    HW175599  12.032   9.556   2.924
91234SOL    HW275600  11.913   9.649   2.943
91235SOL     OW75601   4.278   6.240   7.348
91235SOL    HW175602   4.289   6.284   7.264
91235SOL    HW275603   4.231   6.159   7.326
91236SOL     OW75604  12.925  14.128   8.308
91236SOL    HW175605  12.834  14.135   8.280
91236SOL    HW275606  12.924  14.158   8.400
91237SOL     OW75607  14.442  13.987   0.309
91237SOL    HW175608  14.517  14.037   0.341
91237SOL    HW275609  14.386  14.052   0.266
91238SOL     OW75610   2.118  13.822   0.305
91238SOL    HW175611   2.076  13.902   0.272
91238SOL    HW275612   2.157  13.782   0.227
91239SOL     OW75613  11.333  11.226   6.952
91239SOL    HW175614  11.401  11.158   6.954
91239SOL    HW275615  11.274  11.204   7.024
91240SOL     OW75616   7.194   6.925  10.110
91240SOL    HW175617   7.259   6.865  10.148
91240SOL    HW275618   7.117   6.916  10.166
91241SOL     OW75619   2.598   2.189   0.204
91241SOL    HW175620   2.624   2.131   0.134
91241SOL    HW275621   2.674   2.246   0.218
91242SOL     OW75622   9.404  13.543   4.349
91242SOL    HW175623   9.416  13.537   4.254
91242SOL    HW275624   9.320  13.500   4.365
91243SOL     OW75625   9.529   3.289   8.704
91243SOL    HW175626   9.484   3.328   8.779
91243SOL    HW275627   9.588   3.357   8.673
91244SOL     OW75628   8.462  11.800   8.775
91244SOL    HW175629   8.488  11.884   8.813
91244SOL    HW275630   8.417  11.825   8.694
91245SOL     OW75631  13.228  10.640   5.293
91245SOL    HW175632  13.302  10.643   5.354
91245SOL    HW275633  13.268  10.650   5.206
91246SOL     OW75634  10.697   0.165   7.440
91246SOL    HW175635  10.746   0.228   7.492
91246SOL    HW275636  10.620   0.214   7.410
91247SOL     OW75637   8.840   2.437   4.766
91247SOL    HW175638   8.924   2.476   4.791
91247SOL    HW275639   8.813   2.486   4.689
91248SOL     OW75640   3.268  11.975   2.985
91248SOL    HW175641   3.282  12.061   2.945
91248SOL    HW275642   3.185  11.945   2.950
91249SOL     OW75643  13.327  12.435   8.347
91249SOL    HW175644  13.328  12.462   8.439
91249SOL    HW275645  13.346  12.514   8.298
91250SOL     OW75646   6.500  12.520   4.114
91250SOL    HW175647   6.432  12.552   4.174
91250SOL    HW275648   6.455  12.514   4.029
91251SOL     OW75649  14.718  10.610   5.760
91251SOL    HW175650  14.629  10.579   5.743
91251SOL    HW275651  14.751  10.637   5.675
91252SOL     OW75652   2.180   8.756   0.380
91252SOL    HW175653   2.246   8.731   0.315
91252SOL    HW275654   2.105   8.699   0.362
91253SOL     OW75655  11.755   6.542  12.302
91253SOL    HW175656  11.814   6.595  12.248
91253SOL    HW275657  11.756   6.584  12.388
91254SOL     OW75658   3.690   8.847   9.663
91254SOL    HW175659   3.667   8.924   9.715
91254SOL    HW275660   3.746   8.881   9.593
91255SOL     OW75661   5.078   0.564  14.545
91255SOL    HW175662   5.079   0.629  14.475
91255SOL    HW275663   5.170   0.543  14.560
91256SOL     OW75664   6.333   1.490   2.063
91256SOL    HW175665   6.240   1.506   2.046
91256SOL    HW275666   6.365   1.573   2.100
91257SOL     OW75667   0.057  10.081   6.603
91257SOL    HW175668   0.096  10.050   6.684
91257SOL    HW275669   0.108  10.040   6.534
91258SOL     OW75670   8.889  10.653   1.267
91258SOL    HW175671   8.811  10.641   1.211
91258SOL    HW275672   8.949  10.704   1.213
91259SOL     OW75673   5.155   1.300   8.997
91259SOL    HW175674   5.148   1.259   9.083
91259SOL    HW275675   5.086   1.367   8.997
91260SOL     OW75676   4.297  10.517   6.574
91260SOL    HW175677   4.382  10.527   6.618
91260SOL    HW275678   4.251  10.598   6.593
91261SOL     OW75679  11.835   5.397   5.851
91261SOL    HW175680  11.902   5.399   5.919
91261SOL    HW275681  11.811   5.489   5.837
91262SOL     OW75682   6.481   0.605  10.732
91262SOL    HW175683   6.436   0.525  10.763
91262SOL    HW275684   6.440   0.624  10.648
91263SOL     OW75685   8.447   7.821   4.439
91263SOL    HW175686   8.457   7.766   4.517
91263SOL    HW275687   8.511   7.785   4.377
91264SOL     OW75688   4.157   0.171  10.597
91264SOL    HW175689   4.123   0.129  10.676
91264SOL    HW275690   4.121   0.260  10.601
91265SOL     OW75691   5.643   8.169  13.295
91265SOL    HW175692   5.715   8.178  13.232
91265SOL    HW275693   5.598   8.253  13.293
91266SOL     OW75694  12.383   6.731  12.818
91266SOL    HW175695  12.374   6.772  12.732
91266SOL    HW275696  12.444   6.659  12.805
91267SOL     OW75697   9.613   2.055  10.384
91267SOL    HW175698   9.536   2.100  10.418
91267SOL    HW275699   9.587   2.026  10.297
91268SOL     OW75700  10.354   8.468  11.383
91268SOL    HW175701  10.374   8.520  11.305
91268SOL    HW275702  10.294   8.523  11.433
91269SOL     OW75703  10.560   5.708   4.096
91269SOL    HW175704  10.632   5.690   4.035
91269SOL    HW275705  10.510   5.778   4.055
91270SOL     OW75706  10.161  14.409   1.864
91270SOL    HW175707  10.224  14.473   1.897
91270SOL    HW275708  10.214  14.331   1.845
91271SOL     OW75709  13.982   4.658   5.257
91271SOL    HW175710  13.927   4.639   5.181
91271SOL    HW275711  13.927   4.713   5.313
91272SOL     OW75712   3.695  13.397   7.753
91272SOL    HW175713   3.636  13.321   7.760
91272SOL    HW275714   3.742  13.398   7.837
91273SOL     OW75715   5.515   8.063  14.589
91273SOL    HW175716   5.577   7.995  14.617
91273SOL    HW275717   5.467   8.085  14.669
91274SOL     OW75718   3.457   7.967  11.225
91274SOL    HW175719   3.377   8.016  11.246
91274SOL    HW275720   3.503   8.021  11.161
91275SOL     OW75721  12.705   2.131   1.998
91275SOL    HW175722  12.647   2.067   2.039
91275SOL    HW275723  12.772   2.077   1.954
91276SOL     OW75724   7.609  11.664  14.807
91276SOL    HW175725   7.552  11.689   0.010
91276SOL    HW275726   7.694  11.648  14.848
91277SOL     OW75727   1.122   0.816   1.848
91277SOL    HW175728   1.041   0.785   1.888
91277SOL    HW275729   1.094   0.887   1.789
91278SOL     OW75730  10.664   7.229  13.565
91278SOL    HW175731  10.635   7.159  13.624
91278SOL    HW275732  10.694   7.183  13.486
91279SOL     OW75733   8.941   1.003   6.910
91279SOL    HW175734   8.968   1.059   6.838
91279SOL    HW275735   8.905   1.063   6.975
91280SOL     OW75736   2.296   0.603   8.959
91280SOL    HW175737   2.236   0.665   9.001
91280SOL    HW275738   2.340   0.653   8.891
91281SOL     OW75739  10.099   9.800  11.056
91281SOL    HW175740  10.149   9.813  10.975
91281SOL    HW275741  10.163   9.811  11.126
91282SOL     OW75742  10.166  14.133   1.625
91282SOL    HW175743  10.226  14.112   1.697
91282SOL    HW275744  10.202  14.213   1.586
91283SOL     OW75745   7.793  12.956   8.318
91283SOL    HW175746   7.859  12.990   8.257
91283SOL    HW275747   7.818  12.864   8.330
91284SOL     OW75748  13.327  11.195   8.580
91284SOL    HW175749  13.277  11.131   8.631
91284SOL    HW275750  13.418  11.183   8.609
91285SOL     OW75751   6.968   3.863   5.045
91285SOL    HW175752   6.880   3.899   5.056
91285SOL    HW275753   6.982   3.865   4.950
91286SOL     OW75754  14.358   6.240   1.720
91286SOL    HW175755  14.270   6.244   1.756
91286SOL    HW275756  14.415   6.223   1.795
91287SOL     OW75757  13.576  11.779   3.601
91287SOL    HW175758  13.611  11.705   3.552
91287SOL    HW275759  13.481  11.771   3.591
91288SOL     OW75760   6.073   5.428  13.432
91288SOL    HW175761   5.996   5.372  13.436
91288SOL    HW275762   6.144   5.370  13.404
91289SOL     OW75763  11.911  13.918   0.227
91289SOL    HW175764  11.825  13.897   0.190
91289SOL    HW275765  11.899  13.912   0.322
91290SOL     OW75766   0.943  10.811   6.717
91290SOL    HW175767   0.973  10.720   6.725
91290SOL    HW275768   0.875  10.819   6.784
91291SOL     OW75769   0.543  10.686   5.948
91291SOL    HW175770   0.492  10.746   5.893
91291SOL    HW275771   0.579  10.622   5.887
91292SOL     OW75772   5.912   3.341   3.180
91292SOL    HW175773   5.931   3.435   3.185
91292SOL    HW275774   5.933   3.318   3.089
91293SOL     OW75775   2.846  11.030   9.511
91293SOL    HW175776   2.786  10.976   9.562
91293SOL    HW275777   2.900  10.968   9.462
91294SOL     OW75778  10.635   1.885  11.244
91294SOL    HW175779  10.650   1.979  11.246
91294SOL    HW275780  10.618   1.865  11.151
91295SOL     OW75781   6.225   3.356   7.570
91295SOL    HW175782   6.279   3.416   7.518
91295SOL    HW275783   6.286   3.314   7.630
91296SOL     OW75784  10.248  10.888   6.108
91296SOL    HW175785  10.158  10.880   6.074
91296SOL    HW275786  10.236  10.907   6.201
91297SOL     OW75787   5.660   2.412   5.693
91297SOL    HW175788   5.715   2.488   5.674
91297SOL    HW275789   5.695   2.343   5.638
91298SOL     OW75790  12.217   4.017   4.925
91298SOL    HW175791  12.203   4.109   4.900
91298SOL    HW275792  12.292   3.990   4.873
91299SOL     OW75793  12.264   2.705   6.885
91299SOL    HW175794  12.197   2.773   6.883
91299SOL    HW275795  12.319   2.723   6.809
91300SOL     OW75796  11.023  14.788  11.378
91300SOL    HW175797  11.070  14.781  11.461
91300SOL    HW275798  10.994   0.010  11.373
91301SOL     OW75799   1.880   1.740   1.535
91301SOL    HW175800   1.893   1.782   1.620
91301SOL    HW275801   1.876   1.647   1.554
91302SOL     OW75802  13.681  14.019   9.193
91302SOL    HW175803  13.625  13.946   9.169
91302SOL    HW275804  13.624  14.096   9.187
91303SOL     OW75805   0.791  12.627  12.072
91303SOL    HW175806   0.705  12.588  12.055
91303SOL    HW275807   0.772  12.713  12.109
91304SOL     OW75808   7.228   9.758   1.254
91304SOL    HW175809   7.220   9.772   1.349
91304SOL    HW275810   7.187   9.673   1.239
91305SOL     OW75811   8.127   5.594   8.411
91305SOL    HW175812   8.052   5.536   8.420
91305SOL    HW275813   8.168   5.594   8.498
91306SOL     OW75814  13.420  11.079   3.225
91306SOL    HW175815  13.390  11.079   3.135
91306SOL    HW275816  13.430  10.986   3.248
91307SOL     OW75817  12.472  14.642  13.904
91307SOL    HW175818  12.551  14.692  13.923
91307SOL    HW275819  12.494  14.551  13.927
91308SOL     OW75820  12.214  13.051  10.778
91308SOL    HW175821  12.295  13.103  10.783
91308SOL    HW275822  12.244  12.962  10.761
91309SOL     OW75823   4.191   2.593  11.243
91309SOL    HW175824   4.126   2.622  11.308
91309SOL    HW275825   4.178   2.498  11.238
91310SOL     OW75826   6.576  13.742  10.390
91310SOL    HW175827   6.628  13.755  10.311
91310SOL    HW275828   6.587  13.649  10.411
91311SOL     OW75829  10.251   1.901   2.968
91311SOL    HW175830  10.165   1.860   2.973
91311SOL    HW275831  10.308   1.835   2.929
91312SOL     OW75832  11.937  14.059   4.155
91312SOL    HW175833  11.979  14.053   4.070
91312SOL    HW275834  11.890  14.143   4.153
91313SOL     OW75835   9.510  12.959   1.928
91313SOL    HW175836   9.553  13.040   1.956
91313SOL    HW275837   9.579  12.893   1.931
91314SOL     OW75838   0.704   7.319  13.168
91314SOL    HW175839   0.677   7.397  13.120
91314SOL    HW275840   0.747   7.264  13.102
91315SOL     OW75841  10.665  11.619  12.791
91315SOL    HW175842  10.621  11.666  12.720
91315SOL    HW275843  10.758  11.630  12.773
91316SOL     OW75844   4.141  12.346  13.823
91316SOL    HW175845   4.096  12.427  13.849
91316SOL    HW275846   4.134  12.289  13.900
91317SOL     OW75847  14.692   2.703   4.399
91317SOL    HW175848  14.653   2.783   4.435
91317SOL    HW275849  14.639   2.683   4.323
91318SOL     OW75850   5.814  10.780   0.301
91318SOL    HW175851   5.830  10.843   0.371
91318SOL    HW275852   5.795  10.698   0.347
91319SOL     OW75853   1.346  11.049   9.715
91319SOL    HW175854   1.372  10.993   9.642
91319SOL    HW275855   1.327  11.134   9.674
91320SOL     OW75856   4.312   4.755   6.998
91320SOL    HW175857   4.235   4.706   7.026
91320SOL    HW275858   4.340   4.712   6.917
91321SOL     OW75859   9.241   9.478   7.755
91321SOL    HW175860   9.307   9.544   7.734
91321SOL    HW275861   9.245   9.415   7.683
91322SOL     OW75862  14.220   7.423  13.125
91322SOL    HW175863  14.315   7.429  13.130
91322SOL    HW275864  14.192   7.408  13.215
91323SOL     OW75865   2.925   8.058   9.367
91323SOL    HW175866   2.938   7.980   9.311
91323SOL    HW275867   2.974   8.038   9.447
91324SOL     OW75868  14.709   8.433  12.016
91324SOL    HW175869  14.733   8.375  11.943
91324SOL    HW275870  14.626   8.399  12.048
91325SOL     OW75871   0.089   3.870   2.483
91325SOL    HW175872   0.065   3.936   2.418
91325SOL    HW275873   0.027   3.882   2.555
91326SOL     OW75874  13.192  10.689   8.548
91326SOL    HW175875  13.272  10.715   8.501
91326SOL    HW275876  13.122  10.703   8.485
91327SOL     OW75877   0.719   9.253   7.563
91327SOL    HW175878   0.674   9.251   7.648
91327SOL    HW275879   0.678   9.183   7.512
91328SOL     OW75880   5.701  14.095   5.361
91328SOL    HW175881   5.752  14.172   5.340
91328SOL    HW275882   5.758  14.021   5.341
91329SOL     OW75883   1.526  12.544   0.886
91329SOL    HW175884   1.597  12.495   0.926
91329SOL    HW275885   1.549  12.549   0.793
91330SOL     OW75886  14.752   2.729  10.507
91330SOL    HW175887  14.712   2.799  10.558
91330SOL    HW275888  14.682   2.697  10.451
91331SOL     OW75889   1.800   1.622  13.813
91331SOL    HW175890   1.871   1.667  13.767
91331SOL    HW275891   1.778   1.547  13.757
91332SOL     OW75892  13.528   3.253  11.662
91332SOL    HW175893  13.612   3.282  11.625
91332SOL    HW275894  13.508   3.173  11.614
91333SOL     OW75895   0.159   5.024   2.033
91333SOL    HW175896   0.071   5.035   1.998
91333SOL    HW275897   0.213   5.003   1.956
91334SOL     OW75898   5.533   1.409  11.025
91334SOL    HW175899   5.441   1.405  11.053
91334SOL    HW275900   5.538   1.351  10.950
91335SOL     OW75901  10.990   6.257   8.247
91335SOL    HW175902  10.985   6.229   8.339
91335SOL    HW275903  11.015   6.350   8.252
91336SOL     OW75904   8.074   1.652   3.355
91336SOL    HW175905   8.012   1.675   3.285
91336SOL    HW275906   8.090   1.735   3.400
91337SOL     OW75907   1.536   2.677   1.990
91337SOL    HW175908   1.631   2.676   2.003
91337SOL    HW275909   1.502   2.622   2.061
91338SOL     OW75910  11.845   4.365   5.113
91338SOL    HW175911  11.920   4.312   5.139
91338SOL    HW275912  11.881   4.451   5.092
91339SOL     OW75913   2.628  14.408   3.255
91339SOL    HW175914   2.707  14.390   3.306
91339SOL    HW275915   2.650  14.378   3.166
91340SOL     OW75916   2.596   6.573   7.195
91340SOL    HW175917   2.617   6.666   7.189
91340SOL    HW275918   2.674   6.532   7.230
91341SOL     OW75919  10.177  11.714  14.401
91341SOL    HW175920  10.102  11.749  14.449
91341SOL    HW275921  10.224  11.661  14.465
91342SOL     OW75922   4.063   5.164  10.929
91342SOL    HW175923   4.043   5.113  10.851
91342SOL    HW275924   4.149   5.132  10.958
91343SOL     OW75925   3.812  13.442   1.133
91343SOL    HW175926   3.749  13.457   1.203
91343SOL    HW275927   3.897  13.438   1.176
91344SOL     OW75928  11.437   2.764   7.603
91344SOL    HW175929  11.436   2.679   7.561
91344SOL    HW275930  11.345   2.782   7.624
91345SOL     OW75931   1.585   5.967   2.706
91345SOL    HW175932   1.562   5.943   2.796
91345SOL    HW275933   1.647   5.899   2.679
91346SOL     OW75934   9.857   1.259  11.563
91346SOL    HW175935   9.762   1.256  11.573
91346SOL    HW275936   9.883   1.341  11.604
91347SOL     OW75937  13.923  12.643   3.434
91347SOL    HW175938  13.866  12.567   3.421
91347SOL    HW275939  13.884  12.690   3.508
91348SOL     OW75940   8.793  10.544   4.802
91348SOL    HW175941   8.847  10.472   4.834
91348SOL    HW275942   8.821  10.620   4.851
91349SOL     OW75943  12.361   2.987   6.342
91349SOL    HW175944  12.431   3.046   6.371
91349SOL    HW275945  12.374   2.978   6.248
91350SOL     OW75946   3.061   7.966   7.720
91350SOL    HW175947   3.117   8.037   7.689
91350SOL    HW275948   2.980   8.010   7.747
91351SOL     OW75949   4.269   0.830   9.255
91351SOL    HW175950   4.192   0.875   9.220
91351SOL    HW275951   4.234   0.750   9.293
91352SOL     OW75952   4.355  14.423   6.010
91352SOL    HW175953   4.411  14.492   6.044
91352SOL    HW275954   4.415  14.358   5.973
91353SOL     OW75955  10.551   0.641   5.530
91353SOL    HW175956  10.491   0.682   5.591
91353SOL    HW275957  10.529   0.678   5.445
91354SOL     OW75958   9.131   8.502  13.084
91354SOL    HW175959   9.060   8.461  13.036
91354SOL    HW275960   9.087   8.558  13.149
91355SOL     OW75961   7.823   6.764  14.071
91355SOL    HW175962   7.846   6.849  14.033
91355SOL    HW275963   7.864   6.700  14.012
91356SOL     OW75964  13.390   8.889   4.986
91356SOL    HW175965  13.314   8.908   5.041
91356SOL    HW275966  13.392   8.960   4.922
91357SOL     OW75967   5.069   9.280  14.436
91357SOL    HW175968   5.118   9.337  14.376
91357SOL    HW275969   5.105   9.299  14.522
91358SOL     OW75970  10.863  11.319  12.442
91358SOL    HW175971  10.937  11.295  12.387
91358SOL    HW275972  10.900  11.375  12.511
91359SOL     OW75973   1.354  10.073   9.691
91359SOL    HW175974   1.384  10.066   9.782
91359SOL    HW275975   1.272  10.124   9.697
91360SOL     OW75976  14.288   2.150  12.097
91360SOL    HW175977  14.333   2.233  12.076
91360SOL    HW275978  14.359   2.087  12.110
91361SOL     OW75979   7.411   8.101  12.912
91361SOL    HW175980   7.355   8.049  12.854
91361SOL    HW275981   7.369   8.094  12.997
91362SOL     OW75982   0.412  11.204   8.420
91362SOL    HW175983   0.371  11.289   8.404
91362SOL    HW275984   0.444  11.177   8.334
91363SOL     OW75985   1.890   1.636  14.552
91363SOL    HW175986   1.800   1.623  14.521
91363SOL    HW275987   1.920   1.549  14.576
91364SOL     OW75988   5.711   8.657  14.655
91364SOL    HW175989   5.758   8.729  14.697
91364SOL    HW275990   5.768   8.631  14.582
91365SOL     OW75991   7.603  13.593   5.469
91365SOL    HW175992   7.507  13.586   5.467
91365SOL    HW275993   7.627  13.557   5.554
91366SOL     OW75994  14.573   6.381   9.762
91366SOL    HW175995  14.498   6.342   9.717
91366SOL    HW275996  14.649   6.355   9.709
91367SOL     OW75997   3.610   9.656   2.969
91367SOL    HW175998   3.598   9.599   2.893
91367SOL    HW275999   3.582   9.604   3.044
91368SOL     OW76000  11.332  13.023   6.402
91368SOL    HW176001  11.269  12.989   6.339
91368SOL    HW276002  11.279  13.059   6.473
91369SOL     OW76003  11.418   4.581   0.910
91369SOL    HW176004  11.338   4.629   0.929
91369SOL    HW276005  11.482   4.649   0.888
91370SOL     OW76006   7.358   6.504  12.216
91370SOL    HW176007   7.374   6.548  12.133
91370SOL    HW276008   7.339   6.574  12.278
91371SOL     OW76009   8.035   5.613  10.858
91371SOL    HW176010   8.066   5.643  10.943
91371SOL    HW276011   8.107   5.560  10.823
91372SOL     OW76012   0.773  12.832   9.541
91372SOL    HW176013   0.766  12.795   9.453
91372SOL    HW276014   0.828  12.910   9.531
91373SOL     OW76015  12.724  13.136   1.554
91373SOL    HW176016  12.683  13.152   1.469
91373SOL    HW276017  12.818  13.138   1.535
91374SOL     OW76018  14.532   1.369  12.126
91374SOL    HW176019  14.526   1.275  12.112
91374SOL    HW276020  14.616   1.382  12.169
91375SOL     OW76021   6.603   8.155  11.797
91375SOL    HW176022   6.559   8.118  11.720
91375SOL    HW276023   6.613   8.081  11.856
91376SOL     OW76024   8.039   1.754   3.723
91376SOL    HW176025   8.123   1.799   3.723
91376SOL    HW276026   8.014   1.749   3.815
91377SOL     OW76027  12.001   0.842  11.715
91377SOL    HW176028  11.910   0.868  11.701
91377SOL    HW276029  12.030   0.808  11.631
91378SOL     OW76030   0.144  11.939   0.425
91378SOL    HW176031   0.174  12.004   0.487
91378SOL    HW276032   0.057  11.915   0.456
91379SOL     OW76033  12.073   2.274   5.083
91379SOL    HW176034  12.158   2.298   5.121
91379SOL    HW276035  12.074   2.316   4.996
91380SOL     OW76036   7.735   2.079   7.501
91380SOL    HW176037   7.741   2.015   7.430
91380SOL    HW276038   7.740   2.164   7.457
91381SOL     OW76039   6.039   6.834   9.084
91381SOL    HW176040   6.100   6.767   9.054
91381SOL    HW276041   5.952   6.798   9.065
91382SOL     OW76042   3.356  13.515   3.627
91382SOL    HW176043   3.324  13.459   3.556
91382SOL    HW276044   3.444  13.483   3.644
91383SOL     OW76045   5.407   9.996  10.418
91383SOL    HW176046   5.488   9.947  10.431
91383SOL    HW276047   5.387  10.034  10.503
91384SOL     OW76048   6.463   0.848   2.533
91384SOL    HW176049   6.435   0.756   2.534
91384SOL    HW276050   6.557   0.844   2.518
91385SOL     OW76051   7.847  13.136   8.526
91385SOL    HW176052   7.912  13.180   8.472
91385SOL    HW276053   7.792  13.088   8.464
91386SOL     OW76054   1.549   8.326   4.789
91386SOL    HW176055   1.600   8.245   4.784
91386SOL    HW276056   1.516   8.339   4.701
91387SOL     OW76057   8.239   4.297   4.025
91387SOL    HW176058   8.155   4.315   4.067
91387SOL    HW276059   8.220   4.225   3.964
91388SOL     OW76060  12.783   6.945  11.054
91388SOL    HW176061  12.821   7.023  11.097
91388SOL    HW276062  12.859   6.896  11.023
91389SOL     OW76063  11.660   5.114   2.545
91389SOL    HW176064  11.647   5.020   2.537
91389SOL    HW276065  11.706   5.125   2.628
91390SOL     OW76066  14.406   3.990   2.635
91390SOL    HW176067  14.357   3.922   2.589
91390SOL    HW276068  14.348   4.066   2.636
91391SOL     OW76069  12.487   7.988   9.957
91391SOL    HW176070  12.411   7.959   9.907
91391SOL    HW276071  12.518   8.067   9.911
91392SOL     OW76072   5.140  13.830   4.255
91392SOL    HW176073   5.142  13.807   4.162
91392SOL    HW276074   5.132  13.925   4.257
91393SOL     OW76075   3.843   9.039   4.947
91393SOL    HW176076   3.780   9.000   5.008
91393SOL    HW276077   3.906   8.969   4.930
91394SOL     OW76078   3.287   4.332   3.476
91394SOL    HW176079   3.371   4.353   3.434
91394SOL    HW276080   3.271   4.240   3.454
91395SOL     OW76081   6.748  12.960  10.797
91395SOL    HW176082   6.722  12.899  10.728
91395SOL    HW276083   6.798  13.027  10.752
91396SOL     OW76084   3.444   3.482  12.462
91396SOL    HW176085   3.387   3.454  12.534
91396SOL    HW276086   3.384   3.511  12.393
91397SOL     OW76087   3.980  10.213   7.433
91397SOL    HW176088   3.951  10.124   7.453
91397SOL    HW276089   4.034  10.238   7.507
91398SOL     OW76090   8.900   2.026   6.948
91398SOL    HW176091   8.955   2.093   6.907
91398SOL    HW276092   8.866   2.068   7.027
91399SOL     OW76093   9.610   6.216  11.259
91399SOL    HW176094   9.673   6.188  11.325
91399SOL    HW276095   9.552   6.140  11.249
91400SOL     OW76096   5.612   2.271   8.132
91400SOL    HW176097   5.655   2.308   8.055
91400SOL    HW276098   5.569   2.192   8.099
91401SOL     OW76099   9.081   8.606   9.083
91401SOL    HW176100   8.995   8.645   9.099
91401SOL    HW276101   9.090   8.604   8.988
91402SOL     OW76102   7.896  11.790   9.893
91402SOL    HW176103   7.944  11.871   9.876
91402SOL    HW276104   7.957  11.720   9.870
91403SOL     OW76105   5.742   5.009   8.361
91403SOL    HW176106   5.792   5.009   8.279
91403SOL    HW276107   5.682   5.083   8.352
91404SOL     OW76108  10.946   5.937   0.675
91404SOL    HW176109  10.977   5.917   0.587
91404SOL    HW276110  10.890   5.862   0.698
91405SOL     OW76111   5.231   1.219   5.231
91405SOL    HW176112   5.230   1.315   5.233
91405SOL    HW276113   5.323   1.196   5.218
91406SOL     OW76114   9.242  12.577   0.999
91406SOL    HW176115   9.262  12.569   1.092
91406SOL    HW276116   9.287  12.503   0.958
91407SOL     OW76117   1.908   2.888   1.420
91407SOL    HW176118   1.826   2.874   1.373
91407SOL    HW276119   1.906   2.981   1.444
91408SOL     OW76120   4.368   4.613   1.592
91408SOL    HW176121   4.288   4.647   1.552
91408SOL    HW276122   4.429   4.687   1.590
91409SOL     OW76123  12.703   1.079  12.277
91409SOL    HW176124  12.750   1.054  12.198
91409SOL    HW276125  12.611   1.086  12.250
91410SOL     OW76126   4.991  14.689   8.556
91410SOL    HW176127   4.986  14.745   8.479
91410SOL    HW276128   4.900  14.669   8.578
91411SOL     OW76129  13.603   4.143  12.610
91411SOL    HW176130  13.536   4.145  12.679
91411SOL    HW276131  13.640   4.055  12.615
91412SOL     OW76132   6.281  12.121   2.761
91412SOL    HW176133   6.311  12.093   2.848
91412SOL    HW276134   6.234  12.203   2.777
91413SOL     OW76135   1.502  13.028  12.659
91413SOL    HW176136   1.424  13.069  12.697
91413SOL    HW276137   1.538  12.974  12.730
91414SOL     OW76138   6.393   4.469   8.527
91414SOL    HW176139   6.486   4.445   8.515
91414SOL    HW276140   6.363   4.493   8.439
91415SOL     OW76141  13.830   8.265   1.748
91415SOL    HW176142  13.846   8.255   1.654
91415SOL    HW276143  13.892   8.204   1.789
91416SOL     OW76144   3.125  13.045   4.539
91416SOL    HW176145   3.196  13.070   4.597
91416SOL    HW276146   3.144  12.954   4.515
91417SOL     OW76147  12.189   0.857  13.398
91417SOL    HW176148  12.144   0.780  13.432
91417SOL    HW276149  12.187   0.920  13.470
91418SOL     OW76150   7.625   6.292   7.101
91418SOL    HW176151   7.686   6.306   7.173
91418SOL    HW276152   7.633   6.198   7.081
91419SOL     OW76153   4.164   8.478   2.105
91419SOL    HW176154   4.184   8.496   2.013
91419SOL    HW276155   4.172   8.383   2.113
91420SOL     OW76156   6.388   8.526  11.725
91420SOL    HW176157   6.452   8.475  11.676
91420SOL    HW276158   6.308   8.473  11.723
91421SOL     OW76159  13.291  13.913   2.297
91421SOL    HW176160  13.385  13.925   2.286
91421SOL    HW276161  13.261  13.882   2.212
91422SOL     OW76162   2.368   2.446  11.780
91422SOL    HW176163   2.315   2.380  11.736
91422SOL    HW276164   2.343   2.529  11.738
91423SOL     OW76165   1.677   8.431   8.462
91423SOL    HW176166   1.699   8.524   8.472
91423SOL    HW276167   1.737   8.386   8.522
91424SOL     OW76168   0.518   5.888   4.498
91424SOL    HW176169   0.449   5.887   4.432
91424SOL    HW276170   0.521   5.979   4.528
91425SOL     OW76171   3.479  13.851  11.599
91425SOL    HW176172   3.558  13.903  11.586
91425SOL    HW276173   3.449  13.831  11.510
91426SOL     OW76174  13.208   5.076   7.713
91426SOL    HW176175  13.288   5.049   7.668
91426SOL    HW276176  13.203   5.019   7.790
91427SOL     OW76177   9.737  14.535   6.603
91427SOL    HW176178   9.687  14.462   6.640
91427SOL    HW276179   9.698  14.613   6.643
91428SOL     OW76180   3.118   5.178  13.015
91428SOL    HW176181   3.094   5.179  13.107
91428SOL    HW276182   3.209   5.148  13.014
91429SOL     OW76183  12.934   3.487   9.830
91429SOL    HW176184  12.988   3.407   9.828
91429SOL    HW276185  12.991   3.553   9.870
91430SOL     OW76186   0.051   7.984  10.912
91430SOL    HW176187   0.087   8.058  10.961
91430SOL    HW276188   0.030   7.919  10.980
91431SOL     OW76189   7.932   3.458   7.552
91431SOL    HW176190   7.906   3.424   7.466
91431SOL    HW276191   8.016   3.503   7.536
91432SOL     OW76192  14.800   5.834   3.050
91432SOL    HW176193   0.016   5.795   3.030
91432SOL    HW276194  14.745   5.760   3.076
91433SOL     OW76195   4.640   8.455   4.433
91433SOL    HW176196   4.553   8.421   4.456
91433SOL    HW276197   4.630   8.550   4.434
91434SOL     OW76198   0.627   1.622   6.437
91434SOL    HW176199   0.713   1.637   6.398
91434SOL    HW276200   0.616   1.527   6.437
91435SOL     OW76201   3.718   3.092  13.440
91435SOL    HW176202   3.627   3.072  13.462
91435SOL    HW276203   3.720   3.187  13.432
91436SOL     OW76204  12.645   7.421   2.702
91436SOL    HW176205  12.591   7.433   2.624
91436SOL    HW276206  12.582   7.400   2.771
91437SOL     OW76207   0.722   9.312  13.785
91437SOL    HW176208   0.728   9.407  13.772
91437SOL    HW276209   0.778   9.295  13.860
91438SOL     OW76210   7.282  10.854   1.477
91438SOL    HW176211   7.262  10.940   1.440
91438SOL    HW276212   7.365  10.868   1.523
91439SOL     OW76213   1.524   0.426  10.989
91439SOL    HW176214   1.578   0.366  11.041
91439SOL    HW276215   1.444   0.436  11.040
91440SOL     OW76216   1.098  10.359   7.936
91440SOL    HW176217   1.038  10.429   7.961
91440SOL    HW276218   1.174  10.371   7.993
91441SOL     OW76219   4.246  13.878   8.895
91441SOL    HW176220   4.263  13.952   8.837
91441SOL    HW276221   4.153  13.858   8.882
91442SOL     OW76222   1.429   1.099  10.865
91442SOL    HW176223   1.403   1.010  10.884
91442SOL    HW276224   1.488   1.091  10.790
91443SOL     OW76225   3.378   2.291  14.266
91443SOL    HW176226   3.325   2.217  14.295
91443SOL    HW276227   3.454   2.290  14.325
91444SOL     OW76228  12.865  10.706   6.087
91444SOL    HW176229  12.818  10.728   6.167
91444SOL    HW276230  12.869  10.788   6.038
91445SOL     OW76231  10.682   5.913  11.924
91445SOL    HW176232  10.760   5.893  11.975
91445SOL    HW276233  10.628   5.834  11.930
91446SOL     OW76234   9.152  14.033  12.777
91446SOL    HW176235   9.117  13.988  12.854
91446SOL    HW276236   9.119  13.982  12.703
91447SOL     OW76237   5.561   8.681  11.518
91447SOL    HW176238   5.571   8.750  11.452
91447SOL    HW276239   5.560   8.728  11.601
91448SOL     OW76240   6.947  14.127  11.051
91448SOL    HW176241   6.960  14.222  11.051
91448SOL    HW276242   6.891  14.110  10.976
91449SOL     OW76243  11.838   1.991  13.905
91449SOL    HW176244  11.776   1.923  13.878
91449SOL    HW276245  11.899   1.947  13.964
91450SOL     OW76246   4.738   1.592   2.972
91450SOL    HW176247   4.673   1.531   3.009
91450SOL    HW276248   4.687   1.649   2.915
91451SOL     OW76249   6.339   7.604   6.219
91451SOL    HW176250   6.368   7.515   6.241
91451SOL    HW276251   6.309   7.597   6.129
91452SOL     OW76252   6.010   5.420   0.612
91452SOL    HW176253   6.023   5.332   0.577
91452SOL    HW276254   5.924   5.417   0.654
91453SOL     OW76255   7.616   2.077  10.472
91453SOL    HW176256   7.674   2.149  10.498
91453SOL    HW276257   7.629   2.068  10.378
91454SOL     OW76258   8.718   1.152   2.684
91454SOL    HW176259   8.629   1.148   2.718
91454SOL    HW276260   8.753   1.064   2.699
91455SOL     OW76261   7.471   8.509   3.874
91455SOL    HW176262   7.423   8.508   3.956
91455SOL    HW276263   7.555   8.551   3.895
91456SOL     OW76264   1.306   6.388   2.517
91456SOL    HW176265   1.357   6.320   2.561
91456SOL    HW276266   1.309   6.463   2.577
91457SOL     OW76267   4.500   2.964   3.260
91457SOL    HW176268   4.566   2.932   3.199
91457SOL    HW276269   4.540   3.041   3.300
91458SOL     OW76270   9.732   2.817   4.219
91458SOL    HW176271   9.737   2.885   4.285
91458SOL    HW276272   9.824   2.800   4.195
91459SOL     OW76273   5.807   3.502   4.049
91459SOL    HW176274   5.777   3.412   4.035
91459SOL    HW276275   5.837   3.503   4.140
91460SOL     OW76276  14.756   5.146  11.067
91460SOL    HW176277  14.702   5.191  11.132
91460SOL    HW276278  14.839   5.129  11.111
91461SOL     OW76279  14.195  12.384  14.002
91461SOL    HW176280  14.112  12.399  14.046
91461SOL    HW276281  14.178  12.312  13.942
91462SOL     OW76282   0.409   4.742   1.794
91462SOL    HW176283   0.381   4.692   1.870
91462SOL    HW276284   0.378   4.691   1.719
91463SOL     OW76285  11.524   8.301   9.511
91463SOL    HW176286  11.544   8.391   9.484
91463SOL    HW276287  11.568   8.247   9.445
91464SOL     OW76288  12.098   0.598   1.596
91464SOL    HW176289  12.057   0.565   1.676
91464SOL    HW276290  12.173   0.648   1.627
91465SOL     OW76291   3.519   2.662   2.632
91465SOL    HW176292   3.608   2.629   2.627
91465SOL    HW276293   3.527   2.757   2.622
91466SOL     OW76294   0.516  14.677   2.841
91466SOL    HW176295   0.529  14.750   2.901
91466SOL    HW276296   0.421  14.675   2.826
91467SOL     OW76297   1.018   9.271   5.656
91467SOL    HW176298   1.098   9.291   5.704
91467SOL    HW276299   1.016   9.335   5.585
91468SOL     OW76300   1.871   7.274  11.266
91468SOL    HW176301   1.850   7.297  11.357
91468SOL    HW276302   1.936   7.204  11.273
91469SOL     OW76303   7.274   3.027   3.552
91469SOL    HW176304   7.190   3.026   3.506
91469SOL    HW276305   7.270   2.952   3.611
91470SOL     OW76306   2.462   0.641   0.224
91470SOL    HW176307   2.543   0.689   0.206
91470SOL    HW276308   2.491   0.565   0.276
91471SOL     OW76309   9.638   5.096   0.838
91471SOL    HW176310   9.550   5.106   0.802
91471SOL    HW276311   9.696   5.130   0.770
91472SOL     OW76312   2.346   9.763   4.967
91472SOL    HW176313   2.280   9.695   4.954
91472SOL    HW276314   2.298   9.836   5.005
91473SOL     OW76315   7.282   4.988   1.436
91473SOL    HW176316   7.212   5.009   1.498
91473SOL    HW276317   7.323   5.072   1.417
91474SOL     OW76318   7.009  13.185   7.775
91474SOL    HW176319   6.930  13.159   7.822
91474SOL    HW276320   6.995  13.277   7.752
91475SOL     OW76321   1.511  12.139   1.094
91475SOL    HW176322   1.509  12.174   1.005
91475SOL    HW276323   1.542  12.212   1.148
91476SOL     OW76324   4.860   7.607   7.468
91476SOL    HW176325   4.945   7.564   7.458
91476SOL    HW276326   4.809   7.576   7.394
91477SOL     OW76327  10.914   0.529   0.084
91477SOL    HW176328  10.936   0.435   0.080
91477SOL    HW276329  10.819   0.531   0.089
91478SOL     OW76330   3.260   3.219   4.404
91478SOL    HW176331   3.230   3.190   4.318
91478SOL    HW276332   3.190   3.193   4.464
91479SOL     OW76333  12.658   6.801   4.847
91479SOL    HW176334  12.701   6.737   4.904
91479SOL    HW276335  12.593   6.844   4.904
91480SOL     OW76336  14.015  11.398   0.355
91480SOL    HW176337  13.924  11.422   0.339
91480SOL    HW276338  14.048  11.466   0.414
91481SOL     OW76339  14.713   3.604   4.991
91481SOL    HW176340  14.681   3.586   5.079
91481SOL    HW276341  14.756   3.523   4.963
91482SOL     OW76342  11.551  11.963  10.135
91482SOL    HW176343  11.640  11.929  10.138
91482SOL    HW276344  11.496  11.885  10.125
91483SOL     OW76345   0.862   4.725   4.319
91483SOL    HW176346   0.840   4.661   4.387
91483SOL    HW276347   0.874   4.672   4.240
91484SOL     OW76348  14.659   7.689   0.090
91484SOL    HW176349  14.580   7.738   0.067
91484SOL    HW276350  14.694   7.735   0.167
91485SOL     OW76351   5.197   7.351   5.636
91485SOL    HW176352   5.271   7.292   5.646
91485SOL    HW276353   5.120   7.294   5.635
91486SOL     OW76354  13.731   0.552   8.389
91486SOL    HW176355  13.637   0.551   8.403
91486SOL    HW276356  13.742   0.577   8.298
91487SOL     OW76357   7.032  13.490  13.836
91487SOL    HW176358   7.055  13.465  13.926
91487SOL    HW276359   7.011  13.583  13.842
91488SOL     OW76360   8.811   4.444   2.231
91488SOL    HW176361   8.875   4.515   2.239
91488SOL    HW276362   8.862   4.364   2.244
91489SOL     OW76363   6.835  14.047   2.342
91489SOL    HW176364   6.877  13.981   2.398
91489SOL    HW276365   6.864  14.025   2.254
91490SOL     OW76366  13.380  13.931  10.430
91490SOL    HW176367  13.475  13.926  10.436
91490SOL    HW276368  13.353  13.843  10.403
91491SOL     OW76369   9.868   0.606  11.199
91491SOL    HW176370   9.813   0.680  11.174
91491SOL    HW276371   9.909   0.633  11.281
91492SOL     OW76372  13.169   2.573   4.213
91492SOL    HW176373  13.247   2.609   4.173
91492SOL    HW276374  13.121   2.531   4.141
91493SOL     OW76375  12.547  10.193   6.126
91493SOL    HW176376  12.572  10.236   6.044
91493SOL    HW276377  12.565  10.259   6.194
91494SOL     OW76378   3.478  11.257  13.245
91494SOL    HW176379   3.424  11.229  13.171
91494SOL    HW276380   3.441  11.210  13.320
91495SOL     OW76381   6.982   4.154   7.689
91495SOL    HW176382   6.958   4.189   7.775
91495SOL    HW276383   6.952   4.063   7.690
91496SOL     OW76384   8.438   1.646  14.196
91496SOL    HW176385   8.398   1.718  14.148
91496SOL    HW276386   8.391   1.568  14.167
91497SOL     OW76387   0.890   7.108   3.434
91497SOL    HW176388   0.954   7.179   3.420
91497SOL    HW276389   0.851   7.127   3.519
91498SOL     OW76390   2.338  12.329   8.536
91498SOL    HW176391   2.314  12.237   8.527
91498SOL    HW276392   2.298  12.372   8.461
91499SOL     OW76393   8.292   3.006   0.435
91499SOL    HW176394   8.333   3.093   0.435
91499SOL    HW276395   8.266   2.992   0.343
91500SOL     OW76396   6.297   3.399  10.644
91500SOL    HW176397   6.262   3.409  10.732
91500SOL    HW276398   6.327   3.487  10.620
91501SOL     OW76399   2.451   1.152   5.186
91501SOL    HW176400   2.377   1.197   5.225
91501SOL    HW276401   2.451   1.180   5.094
91502SOL     OW76402   7.279   4.828   1.243
91502SOL    HW176403   7.284   4.867   1.330
91502SOL    HW276404   7.247   4.899   1.187
91503SOL     OW76405   4.481   8.764   6.188
91503SOL    HW176406   4.499   8.754   6.281
91503SOL    HW276407   4.456   8.856   6.179
91504SOL     OW76408   3.974  12.573  14.177
91504SOL    HW176409   3.949  12.513  14.248
91504SOL    HW276410   3.902  12.636  14.173
91505SOL     OW76411   0.201   6.771   5.125
91505SOL    HW176412   0.285   6.741   5.091
91505SOL    HW276413   0.185   6.717   5.202
91506SOL     OW76414   2.192  14.223   9.786
91506SOL    HW176415   2.099  14.223   9.762
91506SOL    HW276416   2.208  14.309   9.824
91507SOL     OW76417   3.212   1.670   5.314
91507SOL    HW176418   3.168   1.661   5.230
91507SOL    HW276419   3.147   1.642   5.378
91508SOL     OW76420  14.235  10.227   1.150
91508SOL    HW176421  14.210  10.175   1.227
91508SOL    HW276422  14.157  10.227   1.094
91509SOL     OW76423   0.108   4.300   3.895
91509SOL    HW176424   0.028   4.258   3.926
91509SOL    HW276425   0.124   4.370   3.958
91510SOL     OW76426   1.418   7.664   8.075
91510SOL    HW176427   1.361   7.651   8.152
91510SOL    HW276428   1.470   7.584   8.071
91511SOL     OW76429   8.881  12.702   3.730
91511SOL    HW176430   8.845  12.652   3.657
91511SOL    HW276431   8.804  12.734   3.778
91512SOL     OW76432  13.241   6.745   4.014
91512SOL    HW176433  13.242   6.731   4.109
91512SOL    HW276434  13.250   6.840   4.004
91513SOL     OW76435   6.280   3.617   6.415
91513SOL    HW176436   6.293   3.544   6.355
91513SOL    HW276437   6.369   3.645   6.438
91514SOL     OW76438   8.279   6.801   7.460
91514SOL    HW176439   8.341   6.769   7.394
91514SOL    HW276440   8.277   6.896   7.448
91515SOL     OW76441  13.776   8.124   2.185
91515SOL    HW176442  13.719   8.198   2.163
91515SOL    HW276443  13.853   8.135   2.129
91516SOL     OW76444   6.600  13.654   8.574
91516SOL    HW176445   6.515  13.698   8.570
91516SOL    HW276446   6.624  13.640   8.482
91517SOL     OW76447  12.996  13.764   0.392
91517SOL    HW176448  13.047  13.769   0.311
91517SOL    HW276449  13.050  13.713   0.452
91518SOL     OW76450   2.462   1.820   2.702
91518SOL    HW176451   2.366   1.828   2.700
91518SOL    HW276452   2.487   1.816   2.610
91519SOL     OW76453   3.783   6.248   7.938
91519SOL    HW176454   3.836   6.272   7.863
91519SOL    HW276455   3.846   6.222   8.005
91520SOL     OW76456   1.535   9.078   6.320
91520SOL    HW176457   1.476   9.152   6.334
91520SOL    HW276458   1.611   9.097   6.376
91521SOL     OW76459  10.494   5.125   2.194
91521SOL    HW176460  10.538   5.046   2.163
91521SOL    HW276461  10.561   5.193   2.190
91522SOL     OW76462  10.877  13.778   9.568
91522SOL    HW176463  10.793  13.804   9.531
91522SOL    HW276464  10.855  13.716   9.638
91523SOL     OW76465   5.501   3.816   6.847
91523SOL    HW176466   5.553   3.740   6.820
91523SOL    HW276467   5.555   3.859   6.913
91524SOL     OW76468   5.803   4.940   4.756
91524SOL    HW176469   5.805   5.016   4.814
91524SOL    HW276470   5.894   4.909   4.753
91525SOL     OW76471  14.169   8.921   8.984
91525SOL    HW176472  14.217   8.841   8.960
91525SOL    HW276473  14.119   8.943   8.906
91526SOL     OW76474   5.702  10.492   9.091
91526SOL    HW176475   5.650  10.537   9.024
91526SOL    HW276476   5.774  10.552   9.110
91527SOL     OW76477   1.959   2.658   5.367
91527SOL    HW176478   2.031   2.660   5.304
91527SOL    HW276479   1.944   2.565   5.384
91528SOL     OW76480   9.654   2.394  10.348
91528SOL    HW176481   9.580   2.395  10.287
91528SOL    HW276482   9.614   2.407  10.434
91529SOL     OW76483   5.420   0.104   0.059
91529SOL    HW176484   5.388   0.066   0.141
91529SOL    HW276485   5.516   0.103   0.068
91530SOL     OW76486  10.799   0.699  12.340
91530SOL    HW176487  10.839   0.618  12.370
91530SOL    HW276488  10.836   0.715  12.254
91531SOL     OW76489  10.604   4.708   7.929
91531SOL    HW176490  10.550   4.723   7.851
91531SOL    HW276491  10.687   4.676   7.895
91532SOL     OW76492   8.027  10.605   9.724
91532SOL    HW176493   8.061  10.537   9.782
91532SOL    HW276494   8.104  10.651   9.691
91533SOL     OW76495  13.849   4.207   1.381
91533SOL    HW176496  13.789   4.146   1.423
91533SOL    HW276497  13.923   4.153   1.353
91534SOL     OW76498   3.751  13.643  10.792
91534SOL    HW176499   3.736  13.737  10.780
91534SOL    HW276500   3.772  13.611  10.705
91535SOL     OW76501   2.722   3.753   5.295
91535SOL    HW176502   2.773   3.740   5.215
91535SOL    HW276503   2.759   3.690   5.357
91536SOL     OW76504   3.969   4.332  14.602
91536SOL    HW176505   4.059   4.349  14.629
91536SOL    HW276506   3.931   4.282  14.673
91537SOL     OW76507   4.005   4.893  11.357
91537SOL    HW176508   4.073   4.960  11.347
91537SOL    HW276509   4.006   4.845  11.274
91538SOL     OW76510  12.885  14.279   2.460
91538SOL    HW176511  12.908  14.358   2.509
91538SOL    HW276512  12.970  14.237   2.443
91539SOL     OW76513  12.567   3.378   9.201
91539SOL    HW176514  12.498   3.371   9.136
91539SOL    HW276515  12.576   3.472   9.217
91540SOL     OW76516   3.892  10.356   4.074
91540SOL    HW176517   3.805  10.395   4.079
91540SOL    HW276518   3.952  10.431   4.070
91541SOL     OW76519   0.197   2.900   2.332
91541SOL    HW176520   0.104   2.885   2.317
91541SOL    HW276521   0.211   2.875   2.423
91542SOL     OW76522   9.086  11.040   2.359
91542SOL    HW176523   9.123  11.099   2.293
91542SOL    HW276524   8.995  11.030   2.334
91543SOL     OW76525  13.007  13.729   2.971
91543SOL    HW176526  13.083  13.672   2.981
91543SOL    HW276527  13.041  13.807   2.927
91544SOL     OW76528  10.822   7.818   9.068
91544SOL    HW176529  10.868   7.735   9.057
91544SOL    HW276530  10.801   7.821   9.162
91545SOL     OW76531   4.557  11.263   7.568
91545SOL    HW176532   4.650  11.258   7.549
91545SOL    HW276533   4.549  11.334   7.633
91546SOL     OW76534  12.187   4.908   6.719
91546SOL    HW176535  12.154   4.920   6.630
91546SOL    HW276536  12.257   4.973   6.727
91547SOL     OW76537  11.264  10.020   8.415
91547SOL    HW176538  11.187   9.981   8.374
91547SOL    HW276539  11.288  10.092   8.357
91548SOL     OW76540   6.755   8.055   7.375
91548SOL    HW176541   6.709   8.136   7.351
91548SOL    HW276542   6.829   8.051   7.315
91549SOL     OW76543   7.593   9.868   9.438
91549SOL    HW176544   7.584   9.933   9.368
91549SOL    HW276545   7.502   9.850   9.465
91550SOL     OW76546  10.857   9.123   8.415
91550SOL    HW176547  10.892   9.050   8.364
91550SOL    HW276548  10.799   9.168   8.354
91551SOL     OW76549  13.889   0.318  11.806
91551SOL    HW176550  13.975   0.348  11.834
91551SOL    HW276551  13.901   0.224  11.789
91552SOL     OW76552   3.477   1.397   9.303
91552SOL    HW176553   3.570   1.404   9.325
91552SOL    HW276554   3.476   1.347   9.221
91553SOL     OW76555  12.792   3.307   9.377
91553SOL    HW176556  12.726   3.338   9.315
91553SOL    HW276557  12.800   3.214   9.360
91554SOL     OW76558   3.680   7.359   6.830
91554SOL    HW176559   3.730   7.313   6.897
91554SOL    HW276560   3.672   7.448   6.863
91555SOL     OW76561  10.515  12.350   0.018
91555SOL    HW176562  10.556  12.275   0.060
91555SOL    HW276563  10.465  12.313  14.815
91556SOL     OW76564   1.211  12.307  13.995
91556SOL    HW176565   1.248  12.395  13.992
91556SOL    HW276566   1.235  12.274  14.081
91557SOL     OW76567   5.161  10.025   0.332
91557SOL    HW176568   5.082  10.056   0.286
91557SOL    HW276569   5.133   9.944   0.374
91558SOL     OW76570  10.294   1.416   7.324
91558SOL    HW176571  10.279   1.444   7.234
91558SOL    HW276572  10.341   1.333   7.316
91559SOL     OW76573   9.579   6.811   9.251
91559SOL    HW176574   9.625   6.865   9.188
91559SOL    HW276575   9.579   6.862   9.332
91560SOL     OW76576   7.864   0.936   0.348
91560SOL    HW176577   7.819   0.968   0.270
91560SOL    HW276578   7.840   0.999   0.416
91561SOL     OW76579   7.079  11.011   9.865
91561SOL    HW176580   7.123  11.095   9.875
91561SOL    HW276581   7.038  11.016   9.778
91562SOL     OW76582   7.809   7.348  13.041
91562SOL    HW176583   7.741   7.285  13.018
91562SOL    HW276584   7.804   7.356  13.137
91563SOL     OW76585   0.466  10.648   4.699
91563SOL    HW176586   0.374  10.654   4.725
91563SOL    HW276587   0.468  10.682   4.610
91564SOL     OW76588   6.977   3.160   9.786
91564SOL    HW176589   7.036   3.099   9.743
91564SOL    HW276590   6.911   3.104   9.828
91565SOL     OW76591   1.752   2.691  10.619
91565SOL    HW176592   1.796   2.637  10.553
91565SOL    HW276593   1.718   2.765  10.569
91566SOL     OW76594   5.091  12.771   6.957
91566SOL    HW176595   5.183  12.796   6.944
91566SOL    HW276596   5.048  12.794   6.875
91567SOL     OW76597   7.653   8.554  10.829
91567SOL    HW176598   7.667   8.487  10.896
91567SOL    HW276599   7.612   8.627  10.876
91568SOL     OW76600  12.992   1.887  13.523
91568SOL    HW176601  13.071   1.936  13.500
91568SOL    HW276602  13.016   1.839  13.603
91569SOL     OW76603   5.306   3.510   1.151
91569SOL    HW176604   5.308   3.508   1.247
91569SOL    HW276605   5.390   3.548   1.127
91570SOL     OW76606   5.660   6.230   7.785
91570SOL    HW176607   5.755   6.232   7.772
91570SOL    HW276608   5.623   6.227   7.697
91571SOL     OW76609   9.699  14.274   6.400
91571SOL    HW176610   9.757  14.334   6.446
91571SOL    HW276611   9.613  14.290   6.439
91572SOL     OW76612   1.412   9.236   5.475
91572SOL    HW176613   1.503   9.221   5.452
91572SOL    HW276614   1.365   9.160   5.439
91573SOL     OW76615  14.441  12.716   9.377
91573SOL    HW176616  14.455  12.722   9.472
91573SOL    HW276617  14.476  12.630   9.353
91574SOL     OW76618   2.388   0.412   9.828
91574SOL    HW176619   2.341   0.429   9.909
91574SOL    HW276620   2.383   0.494   9.779
91575SOL     OW76621   7.346   8.811   1.618
91575SOL    HW176622   7.354   8.905   1.635
91575SOL    HW276623   7.318   8.774   1.702
91576SOL     OW76624  11.047   5.327   3.169
91576SOL    HW176625  11.054   5.237   3.137
91576SOL    HW276626  10.992   5.320   3.247
91577SOL     OW76627  10.841   7.662  12.503
91577SOL    HW176628  10.858   7.753  12.525
91577SOL    HW276629  10.809   7.622  12.584
91578SOL     OW76630   1.989   9.474  13.168
91578SOL    HW176631   1.975   9.559  13.210
91578SOL    HW276632   1.959   9.487  13.078
91579SOL     OW76633  11.539   4.921   4.892
91579SOL    HW176634  11.584   4.910   4.976
91579SOL    HW276635  11.538   5.016   4.877
91580SOL     OW76636  10.714   0.807  13.668
91580SOL    HW176637  10.696   0.883  13.613
91580SOL    HW276638  10.757   0.745  13.609
91581SOL     OW76639  11.532   2.598   9.621
91581SOL    HW176640  11.533   2.694   9.624
91581SOL    HW276641  11.618   2.574   9.589
91582SOL     OW76642   5.461  11.431   5.888
91582SOL    HW176643   5.509  11.379   5.823
91582SOL    HW276644   5.479  11.388   5.971
91583SOL     OW76645   4.768   2.191   4.615
91583SOL    HW176646   4.795   2.243   4.540
91583SOL    HW276647   4.728   2.254   4.676
91584SOL     OW76648   0.645   2.682   9.712
91584SOL    HW176649   0.709   2.750   9.693
91584SOL    HW276650   0.692   2.621   9.769
91585SOL     OW76651  11.551   1.488   3.631
91585SOL    HW176652  11.629   1.543   3.635
91585SOL    HW276653  11.584   1.398   3.636
91586SOL     OW76654   9.517   5.797  11.508
91586SOL    HW176655   9.502   5.879  11.554
91586SOL    HW276656   9.430   5.766  11.484
91587SOL     OW76657   0.805   3.760   6.838
91587SOL    HW176658   0.835   3.697   6.903
91587SOL    HW276659   0.725   3.722   6.803
91588SOL     OW76660   6.708   6.377   0.421
91588SOL    HW176661   6.731   6.448   0.361
91588SOL    HW276662   6.775   6.310   0.405
91589SOL     OW76663   1.414   0.787  11.415
91589SOL    HW176664   1.464   0.845  11.473
91589SOL    HW276665   1.352   0.742  11.472
91590SOL     OW76666   9.433   4.304   1.577
91590SOL    HW176667   9.440   4.370   1.508
91590SOL    HW276668   9.351   4.259   1.559
91591SOL     OW76669   7.078  13.991  11.230
91591SOL    HW176670   7.023  14.059  11.190
91591SOL    HW276671   7.102  13.934  11.157
91592SOL     OW76672   0.912   9.624  10.196
91592SOL    HW176673   0.895   9.613  10.102
91592SOL    HW276674   0.882   9.542  10.235
91593SOL     OW76675  10.877  13.941  13.397
91593SOL    HW176676  10.819  13.976  13.330
91593SOL    HW276677  10.965  13.954  13.361
91594SOL     OW76678   2.452   3.336  13.779
91594SOL    HW176679   2.428   3.374  13.694
91594SOL    HW276680   2.419   3.246  13.773
91595SOL     OW76681   0.594   2.565   3.193
91595SOL    HW176682   0.507   2.526   3.180
91595SOL    HW276683   0.649   2.523   3.127
91596SOL     OW76684  14.530  13.620  12.805
91596SOL    HW176685  14.539  13.651  12.895
91596SOL    HW276686  14.478  13.688  12.761
91597SOL     OW76687   3.601  13.650  12.450
91597SOL    HW176688   3.665  13.617  12.513
91597SOL    HW276689   3.630  13.739  12.430
91598SOL     OW76690   7.558  11.210   1.568
91598SOL    HW176691   7.542  11.121   1.598
91598SOL    HW276692   7.512  11.215   1.484
91599SOL     OW76693  11.081  11.545  12.358
91599SOL    HW176694  11.123  11.631  12.360
91599SOL    HW276695  11.106  11.507  12.274
91600SOL     OW76696   5.631  13.679   0.825
91600SOL    HW176697   5.544  13.646   0.846
91600SOL    HW276698   5.631  13.687   0.729
91601SOL     OW76699   3.052   3.942   5.452
91601SOL    HW176700   2.989   3.961   5.522
91601SOL    HW276701   3.131   3.915   5.498
91602SOL     OW76702  12.179   5.477  14.562
91602SOL    HW176703  12.195   5.385  14.586
91602SOL    HW276704  12.105   5.473  14.502
91603SOL     OW76705   2.994   7.110   9.482
91603SOL    HW176706   2.935   7.160   9.426
91603SOL    HW276707   3.072   7.097   9.428
91604SOL     OW76708   7.228   0.677   1.869
91604SOL    HW176709   7.159   0.642   1.925
91604SOL    HW276710   7.306   0.627   1.893
91605SOL     OW76711   8.887  11.139   4.283
91605SOL    HW176712   8.861  11.057   4.325
91605SOL    HW276713   8.892  11.202   4.355
91606SOL     OW76714  11.864   9.037  12.733
91606SOL    HW176715  11.807   9.114  12.737
91606SOL    HW276716  11.922   9.047  12.809
91607SOL     OW76717   9.389  12.845   5.921
91607SOL    HW176718   9.479  12.837   5.890
91607SOL    HW276719   9.378  12.937   5.942
91608SOL     OW76720   2.229   4.087   7.970
91608SOL    HW176721   2.257   3.996   7.961
91608SOL    HW276722   2.253   4.128   7.886
91609SOL     OW76723   1.867   2.149   1.269
91609SOL    HW176724   1.873   2.103   1.185
91609SOL    HW276725   1.819   2.230   1.249
91610SOL     OW76726  12.130  13.177   5.150
91610SOL    HW176727  12.107  13.092   5.188
91610SOL    HW276728  12.156  13.230   5.225
91611SOL     OW76729   1.496   5.351  13.192
91611SOL    HW176730   1.434   5.310  13.251
91611SOL    HW276731   1.519   5.434  13.234
91612SOL     OW76732   2.526   4.099   3.984
91612SOL    HW176733   2.526   4.176   4.041
91612SOL    HW276734   2.444   4.104   3.937
91613SOL     OW76735   2.665   6.582  14.869
91613SOL    HW176736   2.750   6.627  14.867
91613SOL    HW276737   2.647   6.570   0.093
91614SOL     OW76738  14.486   1.929   6.548
91614SOL    HW176739  14.462   1.987   6.620
91614SOL    HW276740  14.524   1.987   6.482
91615SOL     OW76741  10.485  12.221   4.167
91615SOL    HW176742  10.405  12.255   4.208
91615SOL    HW276743  10.539  12.193   4.241
91616SOL     OW76744  10.796   3.546   1.730
91616SOL    HW176745  10.752   3.626   1.761
91616SOL    HW276746  10.760   3.533   1.642
91617SOL     OW76747  14.344   1.071   0.799
91617SOL    HW176748  14.300   1.001   0.848
91617SOL    HW276749  14.437   1.055   0.813
91618SOL     OW76750   4.739  14.543  10.051
91618SOL    HW176751   4.799  14.571   9.982
91618SOL    HW276752   4.762  14.451  10.066
91619SOL     OW76753   5.116  12.878  11.179
91619SOL    HW176754   5.045  12.846  11.234
91619SOL    HW276755   5.142  12.803  11.126
91620SOL     OW76756   9.075   6.098  14.388
91620SOL    HW176757   9.091   6.121  14.297
91620SOL    HW276758   9.059   6.003  14.386
91621SOL     OW76759   3.514   0.230   1.642
91621SOL    HW176760   3.536   0.295   1.708
91621SOL    HW276761   3.461   0.277   1.577
91622SOL     OW76762  14.427   6.016   0.407
91622SOL    HW176763  14.378   6.041   0.485
91622SOL    HW276764  14.497   6.081   0.400
91623SOL     OW76765   4.730   6.514   7.458
91623SOL    HW176766   4.650   6.506   7.407
91623SOL    HW276767   4.765   6.600   7.436
91624SOL     OW76768   1.388   6.910   1.613
91624SOL    HW176769   1.312   6.962   1.639
91624SOL    HW276770   1.388   6.914   1.518
91625SOL     OW76771  12.668   2.804  12.102
91625SOL    HW176772  12.695   2.825  12.012
91625SOL    HW276773  12.608   2.875  12.126
91626SOL     OW76774   2.165   5.959  13.986
91626SOL    HW176775   2.238   6.016  13.962
91626SOL    HW276776   2.150   5.905  13.909
91627SOL     OW76777   2.910   9.222  12.953
91627SOL    HW176778   2.851   9.285  12.911
91627SOL    HW276779   2.909   9.247  13.045
91628SOL     OW76780  13.020   8.610   6.194
91628SOL    HW176781  12.936   8.592   6.152
91628SOL    HW276782  13.077   8.539   6.165
91629SOL     OW76783  12.977  12.565   4.576
91629SOL    HW176784  13.028  12.596   4.502
91629SOL    HW276785  12.890  12.601   4.562
91630SOL     OW76786   1.547   3.443  12.931
91630SOL    HW176787   1.534   3.472  12.841
91630SOL    HW276788   1.582   3.354  12.923
91631SOL     OW76789   8.062   9.563   5.587
91631SOL    HW176790   8.070   9.519   5.671
91631SOL    HW276791   8.114   9.510   5.527
91632SOL     OW76792   7.307   3.231   4.297
91632SOL    HW176793   7.269   3.240   4.210
91632SOL    HW276794   7.389   3.183   4.284
91633SOL     OW76795   1.565   8.793  14.460
91633SOL    HW176796   1.528   8.820  14.376
91633SOL    HW276797   1.653   8.762  14.438
91634SOL     OW76798  12.207   1.095   6.471
91634SOL    HW176799  12.181   1.184   6.494
91634SOL    HW276800  12.222   1.052   6.555
91635SOL     OW76801   0.211   5.179   9.040
91635SOL    HW176802   0.257   5.251   9.082
91635SOL    HW276803   0.148   5.150   9.107
91636SOL     OW76804   4.591   4.920   7.652
91636SOL    HW176805   4.588   4.866   7.573
91636SOL    HW276806   4.515   4.977   7.645
91637SOL     OW76807   2.608  14.623   8.591
91637SOL    HW176808   2.669  14.694   8.607
91637SOL    HW276809   2.536  14.639   8.652
91638SOL     OW76810  10.332   9.684   8.332
91638SOL    HW176811  10.270   9.718   8.397
91638SOL    HW276812  10.418   9.697   8.372
91639SOL     OW76813  10.705  12.823  12.636
91639SOL    HW176814  10.781  12.790  12.684
91639SOL    HW276815  10.649  12.863  12.703
91640SOL     OW76816   4.961  13.555   1.104
91640SOL    HW176817   4.927  13.470   1.077
91640SOL    HW276818   4.979  13.601   1.022
91641SOL     OW76819   5.715   1.063   9.387
91641SOL    HW176820   5.649   1.022   9.443
91641SOL    HW276821   5.797   1.057   9.437
91642SOL     OW76822  11.041   1.410   4.503
91642SOL    HW176823  10.976   1.340   4.497
91642SOL    HW276824  11.048   1.429   4.596
91643SOL     OW76825  11.715   1.937  13.078
91643SOL    HW176826  11.634   1.988  13.084
91643SOL    HW276827  11.699   1.874  13.007
91644SOL     OW76828   1.024   1.905   0.907
91644SOL    HW176829   1.041   1.832   0.847
91644SOL    HW276830   0.931   1.926   0.894
91645SOL     OW76831   3.910   9.397  11.581
91645SOL    HW176832   3.963   9.465  11.540
91645SOL    HW276833   3.974   9.330  11.606
91646SOL     OW76834   0.739  11.889  10.966
91646SOL    HW176835   0.736  11.901  11.061
91646SOL    HW276836   0.763  11.797  10.955
91647SOL     OW76837   4.375  11.363   0.096
91647SOL    HW176838   4.386  11.420   0.020
91647SOL    HW276839   4.405  11.415   0.170
91648SOL     OW76840   6.068  11.589  11.842
91648SOL    HW176841   5.996  11.610  11.783
91648SOL    HW276842   6.037  11.513  11.892
91649SOL     OW76843   3.651   2.100   5.264
91649SOL    HW176844   3.716   2.146   5.318
91649SOL    HW276845   3.689   2.014   5.249
91650SOL     OW76846   3.934   5.532   6.583
91650SOL    HW176847   4.006   5.497   6.531
91650SOL    HW276848   3.929   5.474   6.660
91651SOL     OW76849   1.621   2.957  10.271
91651SOL    HW176850   1.647   3.005  10.349
91651SOL    HW276851   1.581   2.877  10.304
91652SOL     OW76852  11.188   3.284   5.543
91652SOL    HW176853  11.149   3.200   5.566
91652SOL    HW276854  11.135   3.316   5.470
91653SOL     OW76855   8.980   8.205   5.098
91653SOL    HW176856   8.972   8.131   5.157
91653SOL    HW276857   9.062   8.189   5.051
91654SOL     OW76858   9.939   4.975   8.365
91654SOL    HW176859   9.915   4.949   8.454
91654SOL    HW276860   9.920   5.069   8.361
91655SOL     OW76861   1.728   6.710   1.399
91655SOL    HW176862   1.770   6.642   1.346
91655SOL    HW276863   1.634   6.698   1.383
91656SOL     OW76864   6.686   6.502  12.942
91656SOL    HW176865   6.753   6.543  12.997
91656SOL    HW276866   6.616   6.567  12.937
91657SOL     OW76867   6.762   9.685   2.352
91657SOL    HW176868   6.831   9.619   2.356
91657SOL    HW276869   6.806   9.766   2.378
91658SOL     OW76870   2.064   7.886   3.292
91658SOL    HW176871   2.124   7.859   3.361
91658SOL    HW276872   2.049   7.979   3.308
91659SOL     OW76873   7.028   4.921   8.467
91659SOL    HW176874   7.123   4.933   8.468
91659SOL    HW276875   7.007   4.911   8.374
91660SOL     OW76876   6.772   9.786   3.062
91660SOL    HW176877   6.689   9.835   3.060
91660SOL    HW276878   6.755   9.709   3.009
91661SOL     OW76879  11.598  11.412  10.933
91661SOL    HW176880  11.622  11.400  11.025
91661SOL    HW276881  11.511  11.372  10.925
91662SOL     OW76882  11.383   1.217   5.497
91662SOL    HW176883  11.413   1.306   5.479
91662SOL    HW276884  11.287   1.225   5.501
91663SOL     OW76885  11.458  14.447  11.364
91663SOL    HW176886  11.536  14.393  11.354
91663SOL    HW276887  11.469  14.490  11.449
91664SOL     OW76888  11.487  12.607   3.181
91664SOL    HW176889  11.396  12.580   3.169
91664SOL    HW276890  11.503  12.668   3.109
91665SOL     OW76891   5.255  12.859   6.075
91665SOL    HW176892   5.221  12.873   5.987
91665SOL    HW276893   5.349  12.879   6.068
91666SOL     OW76894   5.170   4.160   0.983
91666SOL    HW176895   5.230   4.098   0.941
91666SOL    HW276896   5.086   4.146   0.940
91667SOL     OW76897  12.200   2.861   9.260
91667SOL    HW176898  12.259   2.785   9.266
91667SOL    HW276899  12.217   2.910   9.341
91668SOL     OW76900   5.639   6.333  12.511
91668SOL    HW176901   5.630   6.244  12.546
91668SOL    HW276902   5.676   6.320  12.423
91669SOL     OW76903   0.342  13.944   4.468
91669SOL    HW176904   0.314  14.021   4.417
91669SOL    HW276905   0.376  13.883   4.402
91670SOL     OW76906   7.020  10.676   3.305
91670SOL    HW176907   7.105  10.639   3.281
91670SOL    HW276908   7.029  10.770   3.290
91671SOL     OW76909   2.061  14.401  12.066
91671SOL    HW176910   2.108  14.438  11.991
91671SOL    HW276911   2.046  14.475  12.124
91672SOL     OW76912  11.145   6.215   9.135
91672SOL    HW176913  11.216   6.174   9.185
91672SOL    HW276914  11.120   6.148   9.071
91673SOL     OW76915   8.803   1.252   6.051
91673SOL    HW176916   8.849   1.310   5.990
91673SOL    HW276917   8.793   1.304   6.131
91674SOL     OW76918  10.794   2.405   1.129
91674SOL    HW176919  10.741   2.454   1.067
91674SOL    HW276920  10.737   2.395   1.206
91675SOL     OW76921   1.034   8.750   1.757
91675SOL    HW176922   0.988   8.798   1.689
91675SOL    HW276923   0.967   8.732   1.823
91676SOL     OW76924  13.379   7.300  10.484
91676SOL    HW176925  13.365   7.275  10.393
91676SOL    HW276926  13.355   7.222  10.535
91677SOL     OW76927   2.904   9.056   8.053
91677SOL    HW176928   2.939   8.982   8.004
91677SOL    HW276929   2.812   9.060   8.026
91678SOL     OW76930   4.866   7.623   4.263
91678SOL    HW176931   4.831   7.582   4.342
91678SOL    HW276932   4.789   7.647   4.212
91679SOL     OW76933   9.085  10.083  14.831
91679SOL    HW176934   9.136  10.031  14.769
91679SOL    HW276935   9.111  10.050   0.048
91680SOL     OW76936   5.444   0.706   0.840
91680SOL    HW176937   5.536   0.677   0.843
91680SOL    HW276938   5.432   0.755   0.921
91681SOL     OW76939   9.898  12.823   3.708
91681SOL    HW176940   9.900  12.826   3.612
91681SOL    HW276941   9.850  12.902   3.734
91682SOL     OW76942  10.577  10.945   6.348
91682SOL    HW176943  10.507  10.989   6.301
91682SOL    HW276944  10.598  11.004   6.420
91683SOL     OW76945  13.924   7.385   8.180
91683SOL    HW176946  13.894   7.336   8.256
91683SOL    HW276947  13.889   7.473   8.194
91684SOL     OW76948  11.219  14.389  14.645
91684SOL    HW176949  11.166  14.352  14.716
91684SOL    HW276950  11.202  14.483  14.648
91685SOL     OW76951   8.100   5.741   4.189
91685SOL    HW176952   8.112   5.649   4.212
91685SOL    HW276953   8.186   5.781   4.204
91686SOL     OW76954   6.908  13.592  12.160
91686SOL    HW176955   6.885  13.616  12.250
91686SOL    HW276956   7.002  13.605  12.155
91687SOL     OW76957  14.197  14.156   9.231
91687SOL    HW176958  14.124  14.205   9.193
91687SOL    HW276959  14.173  14.143   9.322
91688SOL     OW76960  12.840  13.703   0.825
91688SOL    HW176961  12.784  13.780   0.815
91688SOL    HW276962  12.809  13.642   0.758
91689SOL     OW76963   1.192   2.526  10.613
91689SOL    HW176964   1.267   2.582  10.593
91689SOL    HW276965   1.116   2.585  10.609
91690SOL     OW76966  13.269   5.095   6.913
91690SOL    HW176967  13.231   5.082   6.999
91690SOL    HW276968  13.277   5.190   6.905
91691SOL     OW76969   4.688   8.858   1.368
91691SOL    HW176970   4.595   8.880   1.373
91691SOL    HW276971   4.690   8.765   1.346
91692SOL     OW76972   6.546  10.936   6.388
91692SOL    HW176973   6.475  10.877   6.362
91692SOL    HW276974   6.550  10.929   6.483
91693SOL     OW76975   2.740   8.041   0.418
91693SOL    HW176976   2.780   8.063   0.334
91693SOL    HW276977   2.809   8.057   0.482
91694SOL     OW76978   3.034   1.595   0.419
91694SOL    HW176979   3.075   1.510   0.434
91694SOL    HW276980   3.068   1.623   0.334
91695SOL     OW76981   8.390   9.013   1.882
91695SOL    HW176982   8.347   8.947   1.935
91695SOL    HW276983   8.323   9.042   1.820
91696SOL     OW76984   5.146   3.312   5.607
91696SOL    HW176985   5.217   3.279   5.662
91696SOL    HW276986   5.068   3.305   5.663
91697SOL     OW76987  11.776  14.180  13.679
91697SOL    HW176988  11.862  14.149  13.652
91697SOL    HW276989  11.720  14.166  13.603
91698SOL     OW76990   6.072   7.898   3.732
91698SOL    HW176991   5.985   7.915   3.767
91698SOL    HW276992   6.132   7.928   3.801
91699SOL     OW76993   1.648   0.824  14.818
91699SOL    HW176994   1.648   0.813  14.723
91699SOL    HW276995   1.674   0.738  14.853
91700SOL     OW76996   6.631   9.798   4.772
91700SOL    HW176997   6.639   9.823   4.680
91700SOL    HW276998   6.556   9.848   4.804
91701SOL     OW76999  12.202   7.774  13.458
91701SOL    HW177000  12.141   7.728  13.516
91701SOL    HW277001  12.159   7.774  13.373
91702SOL     OW77002   7.327  12.141  13.208
91702SOL    HW177003   7.242  12.136  13.163
91702SOL    HW277004   7.382  12.193  13.149
91703SOL     OW77005   4.518  12.566   4.327
91703SOL    HW177006   4.569  12.543   4.405
91703SOL    HW277007   4.455  12.632   4.359
91704SOL     OW77008   4.959   9.719   1.438
91704SOL    HW177009   5.016   9.662   1.387
91704SOL    HW277010   4.906   9.766   1.373
91705SOL     OW77011   5.174  11.345   6.073
91705SOL    HW177012   5.180  11.427   6.024
91705SOL    HW277013   5.187  11.277   6.006
91706SOL     OW77014   9.642   3.481   3.269
91706SOL    HW177015   9.572   3.494   3.333
91706SOL    HW277016   9.603   3.511   3.186
91707SOL     OW77017   3.536  12.199   5.518
91707SOL    HW177018   3.498  12.172   5.602
91707SOL    HW277019   3.465  12.244   5.473
91708SOL     OW77020  14.136   3.778   4.253
91708SOL    HW177021  14.165   3.756   4.165
91708SOL    HW277022  14.189   3.854   4.278
91709SOL     OW77023   8.593   2.913   9.903
91709SOL    HW177024   8.627   2.925   9.815
91709SOL    HW277025   8.571   3.001   9.933
91710SOL     OW77026   5.832   5.303   3.697
91710SOL    HW177027   5.742   5.337   3.693
91710SOL    HW277028   5.882   5.372   3.741
91711SOL     OW77029  14.582   2.570  13.329
91711SOL    HW177030  14.491   2.551  13.304
91711SOL    HW277031  14.582   2.663  13.351
91712SOL     OW77032   4.801   4.804   8.287
91712SOL    HW177033   4.894   4.809   8.265
91712SOL    HW277034   4.757   4.795   8.202
91713SOL     OW77035   2.302  10.457  14.456
91713SOL    HW177036   2.285  10.365  14.476
91713SOL    HW277037   2.266  10.470  14.369
91714SOL     OW77038   7.299  13.377   9.149
91714SOL    HW177039   7.219  13.344   9.106
91714SOL    HW277040   7.316  13.313   9.218
91715SOL     OW77041   8.584   8.179  11.135
91715SOL    HW177042   8.601   8.240  11.063
91715SOL    HW277043   8.624   8.097  11.107
91716SOL     OW77044   8.729   3.613  10.455
91716SOL    HW177045   8.822   3.636  10.453
91716SOL    HW277046   8.720   3.553  10.529
91717SOL     OW77047  13.077   7.261  10.337
91717SOL    HW177048  13.141   7.214  10.283
91717SOL    HW277049  13.047   7.333  10.281
91718SOL     OW77050   2.698  11.793   6.417
91718SOL    HW177051   2.732  11.782   6.505
91718SOL    HW277052   2.776  11.796   6.361
91719SOL     OW77053   7.640   1.972   6.807
91719SOL    HW177054   7.587   1.990   6.730
91719SOL    HW277055   7.722   2.017   6.791
91720SOL     OW77056  12.374  13.611   2.982
91720SOL    HW177057  12.343  13.538   2.928
91720SOL    HW277058  12.410  13.673   2.919
91721SOL     OW77059   9.562  14.078   2.502
91721SOL    HW177060   9.608  14.093   2.419
91721SOL    HW277061   9.619  14.116   2.569
91722SOL     OW77062   0.332   9.298  12.604
91722SOL    HW177063   0.316   9.353  12.681
91722SOL    HW277064   0.290   9.346  12.532
91723SOL     OW77065   6.683   7.875   2.359
91723SOL    HW177066   6.594   7.840   2.364
91723SOL    HW277067   6.720   7.835   2.280
91724SOL     OW77068   4.851  11.484  10.040
91724SOL    HW177069   4.889  11.534   9.968
91724SOL    HW277070   4.756  11.494  10.029
91725SOL     OW77071   7.287   1.064   9.453
91725SOL    HW177072   7.304   1.025   9.368
91725SOL    HW277073   7.349   1.020   9.512
91726SOL     OW77074   3.675   1.344   2.492
91726SOL    HW177075   3.756   1.305   2.526
91726SOL    HW277076   3.705   1.414   2.434
91727SOL     OW77077   0.801  13.679  12.910
91727SOL    HW177078   0.795  13.594  12.954
91727SOL    HW277079   0.893  13.685  12.884
91728SOL     OW77080   3.446   4.809   6.951
91728SOL    HW177081   3.438   4.738   7.015
91728SOL    HW277082   3.509   4.869   6.991
91729SOL     OW77083   0.373   5.479   9.640
91729SOL    HW177084   0.415   5.471   9.554
91729SOL    HW277085   0.401   5.564   9.672
91730SOL     OW77086   5.386   8.906   8.243
91730SOL    HW177087   5.309   8.852   8.226
91730SOL    HW277088   5.359   8.994   8.217
91731SOL     OW77089   8.443   3.531  11.550
91731SOL    HW177090   8.453   3.551  11.457
91731SOL    HW277091   8.530   3.503  11.578
91732SOL     OW77092  13.752  11.449  13.336
91732SOL    HW177093  13.760  11.536  13.375
91732SOL    HW277094  13.835  11.406  13.358
91733SOL     OW77095  12.800   8.045   7.330
91733SOL    HW177096  12.846   8.026   7.411
91733SOL    HW277097  12.828   7.975   7.270
91734SOL     OW77098  11.651   1.008   5.129
91734SOL    HW177099  11.589   1.077   5.152
91734SOL    HW277100  11.604   0.926   5.145
91735SOL     OW77101   9.934   1.614  10.706
91735SOL    HW177102   9.858   1.665  10.676
91735SOL    HW277103   9.895   1.541  10.755
91736SOL     OW77104   4.182  14.376   4.296
91736SOL    HW177105   4.133  14.304   4.335
91736SOL    HW277106   4.232  14.414   4.368
91737SOL     OW77107   9.967   3.417   8.338
91737SOL    HW177108   9.909   3.471   8.284
91737SOL    HW277109  10.044   3.470   8.353
91738SOL     OW77110   7.969   4.695   9.036
91738SOL    HW177111   8.023   4.727   9.109
91738SOL    HW277112   8.006   4.739   8.959
91739SOL     OW77113   4.488   3.397   3.430
91739SOL    HW177114   4.516   3.333   3.495
91739SOL    HW277115   4.565   3.452   3.417
91740SOL     OW77116   5.841   5.844  10.316
91740SOL    HW177117   5.795   5.859  10.234
91740SOL    HW277118   5.772   5.828  10.380
91741SOL     OW77119   6.157  14.399   1.959
91741SOL    HW177120   6.179  14.316   1.915
91741SOL    HW277121   6.241  14.445   1.965
91742SOL     OW77122   7.639   3.365   9.746
91742SOL    HW177123   7.544   3.366   9.747
91742SOL    HW277124   7.664   3.387   9.836
91743SOL     OW77125   6.391   3.228   8.554
91743SOL    HW177126   6.353   3.308   8.517
91743SOL    HW277127   6.390   3.165   8.482
91744SOL     OW77128   1.573   7.527   2.878
91744SOL    HW177129   1.514   7.485   2.940
91744SOL    HW277130   1.561   7.478   2.797
91745SOL     OW77131   8.182  14.418   6.025
91745SOL    HW177132   8.238  14.342   6.015
91745SOL    HW277133   8.107  14.386   6.075
91746SOL     OW77134  14.662   8.871   6.094
91746SOL    HW177135  14.660   8.817   6.173
91746SOL    HW277136  14.676   8.960   6.127
91747SOL     OW77137   0.582   5.536  10.237
91747SOL    HW177138   0.569   5.526  10.332
91747SOL    HW277139   0.511   5.487  10.197
91748SOL     OW77140  10.597   0.180   3.495
91748SOL    HW177141  10.586   0.144   3.583
91748SOL    HW277142  10.596   0.275   3.508
91749SOL     OW77143  11.843   5.923   6.003
91749SOL    HW177144  11.819   5.862   6.073
91749SOL    HW277145  11.933   5.948   6.023
91750SOL     OW77146  13.377   0.221   4.924
91750SOL    HW177147  13.294   0.177   4.909
91750SOL    HW277148  13.394   0.271   4.844
91751SOL     OW77149  13.228   1.643   7.160
91751SOL    HW177150  13.170   1.716   7.182
91751SOL    HW277151  13.298   1.683   7.108
91752SOL     OW77152  11.787   6.547   6.794
91752SOL    HW177153  11.795   6.575   6.703
91752SOL    HW277154  11.694   6.529   6.806
91753SOL     OW77155   8.892  13.532   7.584
91753SOL    HW177156   8.827  13.501   7.647
91753SOL    HW277157   8.969  13.477   7.600
91754SOL     OW77158   5.465   9.682  11.408
91754SOL    HW177159   5.475   9.777  11.400
91754SOL    HW277160   5.487   9.664  11.500
91755SOL     OW77161   0.782   8.664   4.958
91755SOL    HW177162   0.857   8.720   4.940
91755SOL    HW277163   0.782   8.599   4.888
91756SOL     OW77164  12.055   9.115   9.861
91756SOL    HW177165  12.036   9.068   9.780
91756SOL    HW277166  12.136   9.076   9.893
91757SOL     OW77167   7.635   2.500   8.830
91757SOL    HW177168   7.573   2.431   8.854
91757SOL    HW277169   7.581   2.568   8.791
91758SOL     OW77170   6.003   4.870   2.787
91758SOL    HW177171   5.916   4.886   2.824
91758SOL    HW277172   6.013   4.775   2.788
91759SOL     OW77173   6.057  13.254   8.492
91759SOL    HW177174   6.091  13.183   8.437
91759SOL    HW277175   6.133  13.310   8.508
91760SOL     OW77176   1.277   9.632  11.253
91760SOL    HW177177   1.248   9.690  11.323
91760SOL    HW277178   1.307   9.553  11.298
91761SOL     OW77179   0.739   9.578   5.688
91761SOL    HW177180   0.674   9.644   5.664
91761SOL    HW277181   0.763   9.599   5.778
91762SOL     OW77182   4.089  10.845  12.314
91762SOL    HW177183   4.030  10.911  12.350
91762SOL    HW277184   4.175  10.887  12.314
91763SOL     OW77185   9.786   9.937   0.461
91763SOL    HW177186   9.798  10.028   0.489
91763SOL    HW277187   9.824   9.885   0.532
91764SOL     OW77188   5.389   4.684   7.497
91764SOL    HW177189   5.477   4.689   7.536
91764SOL    HW277190   5.344   4.762   7.529
91765SOL     OW77191   7.623  13.085   8.801
91765SOL    HW177192   7.661  13.172   8.814
91765SOL    HW277193   7.621  13.046   8.889
91766SOL     OW77194   6.433   3.279   4.672
91766SOL    HW177195   6.398   3.327   4.597
91766SOL    HW277196   6.374   3.302   4.744
91767SOL     OW77197   8.001   7.727   6.175
91767SOL    HW177198   7.933   7.790   6.151
91767SOL    HW277199   8.033   7.758   6.260
91768SOL     OW77200   9.904  12.033  12.429
91768SOL    HW177201   9.823  12.082  12.438
91768SOL    HW277202   9.881  11.957  12.376
91769SOL     OW77203   4.328   3.428  12.426
91769SOL    HW177204   4.363   3.517  12.422
91769SOL    HW277205   4.234   3.441  12.440
91770SOL     OW77206  11.680   2.558   2.962
91770SOL    HW177207  11.721   2.477   2.935
91770SOL    HW277208  11.662   2.546   3.055
91771SOL     OW77209  13.400   0.691   3.787
91771SOL    HW177210  13.457   0.614   3.787
91771SOL    HW277211  13.316   0.659   3.817
91772SOL     OW77212  10.400   6.151  13.709
91772SOL    HW177213  10.440   6.225  13.663
91772SOL    HW277214  10.325   6.188  13.755
91773SOL     OW77215   7.994   2.003  14.775
91773SOL    HW177216   7.917   1.971  14.823
91773SOL    HW277217   8.057   2.026  14.844
91774SOL     OW77218   5.017  13.944   7.110
91774SOL    HW177219   5.054  13.884   7.175
91774SOL    HW277220   5.016  14.029   7.154
91775SOL     OW77221  11.043  13.135   2.142
91775SOL    HW177222  11.003  13.217   2.114
91775SOL    HW277223  10.969  13.083   2.176
91776SOL     OW77224   6.283  10.724   5.755
91776SOL    HW177225   6.218  10.655   5.739
91776SOL    HW277226   6.234  10.794   5.798
91777SOL     OW77227   6.597   9.640   5.131
91777SOL    HW177228   6.539   9.715   5.144
91777SOL    HW277229   6.565   9.574   5.193
91778SOL     OW77230   2.935   4.410   7.040
91778SOL    HW177231   2.956   4.494   6.999
91778SOL    HW277232   2.898   4.433   7.125
91779SOL     OW77233   4.155   8.041   9.638
91779SOL    HW177234   4.165   7.953   9.676
91779SOL    HW277235   4.070   8.037   9.594
91780SOL     OW77236   2.111  10.814   3.849
91780SOL    HW177237   2.071  10.773   3.925
91780SOL    HW277238   2.095  10.908   3.861
91781SOL     OW77239   7.920   7.183   7.207
91781SOL    HW177240   7.910   7.162   7.114
91781SOL    HW277241   7.985   7.253   7.209
91782SOL     OW77242   2.427  12.844   1.134
91782SOL    HW177243   2.431  12.749   1.130
91782SOL    HW277244   2.349  12.863   1.186
91783SOL     OW77245  11.129  12.356  10.657
91783SOL    HW177246  11.043  12.390  10.633
91783SOL    HW277247  11.183  12.371  10.579
91784SOL     OW77248   0.390   3.002  14.815
91784SOL    HW177249   0.339   2.928  14.782
91784SOL    HW277250   0.415   2.976   0.035
91785SOL     OW77251   3.608  11.540  12.747
91785SOL    HW177252   3.546  11.479  12.788
91785SOL    HW277253   3.662  11.485  12.690
91786SOL     OW77254  12.884   0.277   3.566
91786SOL    HW177255  12.804   0.241   3.529
91786SOL    HW277256  12.859   0.362   3.602
91787SOL     OW77257  13.353  14.325   7.825
91787SOL    HW177258  13.273  14.281   7.851
91787SOL    HW277259  13.412  14.314   7.900
91788SOL     OW77260   3.478  14.328   2.579
91788SOL    HW177261   3.434  14.321   2.663
91788SOL    HW277262   3.411  14.307   2.514
91789SOL     OW77263   8.537   3.871   3.913
91789SOL    HW177264   8.581   3.925   3.847
91789SOL    HW277265   8.470   3.928   3.950
91790SOL     OW77266  10.216   6.140   8.813
91790SOL    HW177267  10.215   6.109   8.903
91790SOL    HW277268  10.153   6.212   8.812
91791SOL     OW77269  12.645   4.045  14.383
91791SOL    HW177270  12.721   3.990  14.368
91791SOL    HW277271  12.571   3.993  14.349
91792SOL     OW77272  14.235   1.663   0.358
91792SOL    HW177273  14.158   1.715   0.382
91792SOL    HW277274  14.249   1.605   0.432
91793SOL     OW77275   8.539   8.875  13.528
91793SOL    HW177276   8.482   8.946  13.557
91793SOL    HW277277   8.624   8.916  13.516
91794SOL     OW77278   9.480  13.035   7.004
91794SOL    HW177279   9.526  12.999   6.928
91794SOL    HW277280   9.403  13.078   6.967
91795SOL     OW77281   7.106  10.456   8.035
91795SOL    HW177282   7.201  10.449   8.028
91795SOL    HW277283   7.073  10.428   7.949
91796SOL     OW77284   5.268   9.269   3.045
91796SOL    HW177285   5.273   9.286   3.139
91796SOL    HW277286   5.355   9.235   3.023
91797SOL     OW77287   5.630   9.172   8.203
91797SOL    HW177288   5.720   9.185   8.173
91797SOL    HW277289   5.583   9.247   8.167
91798SOL     OW77290   9.963   0.292  14.656
91798SOL    HW177291   9.914   0.336  14.586
91798SOL    HW277292   9.994   0.364  14.712
91799SOL     OW77293  11.171  13.384   5.424
91799SOL    HW177294  11.143  13.298   5.393
91799SOL    HW277295  11.092  13.424   5.461
91800SOL     OW77296   6.627  12.643   1.667
91800SOL    HW177297   6.690  12.573   1.656
91800SOL    HW277298   6.582  12.650   1.583
91801SOL     OW77299   1.408  13.017   8.383
91801SOL    HW177300   1.388  13.109   8.402
91801SOL    HW277301   1.471  12.992   8.450
91802SOL     OW77302  10.083   3.907   8.750
91802SOL    HW177303  10.004   3.869   8.711
91802SOL    HW277304  10.053   3.988   8.791
91803SOL     OW77305   7.206   7.041  10.921
91803SOL    HW177306   7.180   7.009  11.007
91803SOL    HW277307   7.176   7.132  10.919
91804SOL     OW77308  11.040   2.697  13.281
91804SOL    HW177309  11.034   2.705  13.186
91804SOL    HW277310  11.022   2.785  13.314
91805SOL     OW77311   6.919   3.447  13.897
91805SOL    HW177312   6.944   3.532  13.934
91805SOL    HW277313   7.001   3.399  13.890
91806SOL     OW77314   5.765   0.429  12.152
91806SOL    HW177315   5.772   0.432  12.057
91806SOL    HW277316   5.693   0.487  12.174
91807SOL     OW77317  10.894   3.167   2.081
91807SOL    HW177318  10.852   3.230   2.022
91807SOL    HW277319  10.826   3.102   2.098
91808SOL     OW77320  10.610   9.957  11.720
91808SOL    HW177321  10.698   9.942  11.685
91808SOL    HW277322  10.623   9.970  11.814
91809SOL     OW77323   2.668   7.900   5.126
91809SOL    HW177324   2.627   7.971   5.175
91809SOL    HW277325   2.633   7.908   5.037
91810SOL     OW77326  13.666   8.863   4.749
91810SOL    HW177327  13.759   8.851   4.732
91810SOL    HW277328  13.662   8.924   4.822
91811SOL     OW77329   8.119   4.633   3.705
91811SOL    HW177330   8.210   4.660   3.710
91811SOL    HW277331   8.090   4.627   3.796
91812SOL     OW77332   4.524   2.446   4.263
91812SOL    HW177333   4.603   2.455   4.211
91812SOL    HW277334   4.454   2.477   4.206
91813SOL     OW77335  10.574   1.206   1.817
91813SOL    HW177336  10.482   1.193   1.842
91813SOL    HW277337  10.602   1.283   1.866
91814SOL     OW77338   4.480  11.210   1.416
91814SOL    HW177339   4.452  11.119   1.401
91814SOL    HW277340   4.526  11.207   1.500
91815SOL     OW77341  11.918   1.625   6.003
91815SOL    HW177342  11.896   1.678   6.080
91815SOL    HW277343  11.935   1.690   5.935
91816SOL     OW77344   5.150  12.740   1.666
91816SOL    HW177345   5.176  12.814   1.719
91816SOL    HW277346   5.232  12.699   1.639
91817SOL     OW77347   0.898   1.590   4.486
91817SOL    HW177348   0.941   1.552   4.563
91817SOL    HW277349   0.901   1.521   4.420
91818SOL     OW77350   5.769  12.115  12.199
91818SOL    HW177351   5.745  12.193  12.150
91818SOL    HW277352   5.702  12.107  12.266
91819SOL     OW77353  12.428   7.492   8.050
91819SOL    HW177354  12.372   7.521   8.122
91819SOL    HW277355  12.458   7.572   8.008
91820SOL     OW77356   8.279   0.607   9.114
91820SOL    HW177357   8.299   0.694   9.079
91820SOL    HW277358   8.270   0.552   9.036
91821SOL     OW77359   7.802   2.543   0.764
91821SOL    HW177360   7.754   2.465   0.794
91821SOL    HW277361   7.787   2.545   0.669
91822SOL     OW77362   0.861   8.893   5.236
91822SOL    HW177363   0.933   8.953   5.253
91822SOL    HW277364   0.797   8.912   5.305
91823SOL     OW77365  11.331   6.291   2.991
91823SOL    HW177366  11.355   6.201   2.970
91823SOL    HW277367  11.258   6.283   3.052
91824SOL     OW77368  13.916   5.486   9.097
91824SOL    HW177369  13.860   5.532   9.159
91824SOL    HW277370  14.004   5.493   9.134
91825SOL     OW77371   3.553   6.711   8.913
91825SOL    HW177372   3.549   6.633   8.858
91825SOL    HW277373   3.526   6.782   8.856
91826SOL     OW77374   1.550  14.024   9.508
91826SOL    HW177375   1.524  14.115   9.525
91826SOL    HW277376   1.493  13.972   9.565
91827SOL     OW77377   9.416   0.358   2.071
91827SOL    HW177378   9.476   0.290   2.101
91827SOL    HW277379   9.435   0.367   1.977
91828SOL     OW77380  11.916   2.526   5.364
91828SOL    HW177381  11.953   2.610   5.336
91828SOL    HW277382  11.838   2.515   5.309
91829SOL     OW77383   6.431  13.013  13.379
91829SOL    HW177384   6.365  13.058  13.326
91829SOL    HW277385   6.513  13.053  13.353
91830SOL     OW77386   5.387   9.766   6.997
91830SOL    HW177387   5.469   9.722   6.977
91830SOL    HW277388   5.403   9.814   7.078
91831SOL     OW77389   5.687  13.391   0.278
91831SOL    HW177390   5.615  13.336   0.247
91831SOL    HW277391   5.762  13.363   0.226
91832SOL     OW77392   8.326   8.737   6.235
91832SOL    HW177393   8.379   8.684   6.295
91832SOL    HW277394   8.266   8.675   6.195
91833SOL     OW77395   9.840  11.330   8.878
91833SOL    HW177396   9.795  11.250   8.850
91833SOL    HW277397   9.787  11.401   8.843
91834SOL     OW77398   6.357  11.030  10.226
91834SOL    HW177399   6.432  11.076  10.264
91834SOL    HW277400   6.282  11.060  10.278
91835SOL     OW77401   1.779   4.944   1.555
91835SOL    HW177402   1.873   4.940   1.541
91835SOL    HW277403   1.769   4.972   1.646
91836SOL     OW77404  10.502  12.271  10.258
91836SOL    HW177405  10.444  12.277  10.182
91836SOL    HW277406  10.458  12.321  10.326
91837SOL     OW77407   8.968  10.513   3.410
91837SOL    HW177408   9.028  10.439   3.406
91837SOL    HW277409   8.909  10.493   3.483
91838SOL     OW77410  12.159   2.637   7.496
91838SOL    HW177411  12.211   2.646   7.575
91838SOL    HW277412  12.152   2.543   7.482
91839SOL     OW77413   7.505   6.495   2.487
91839SOL    HW177414   7.434   6.537   2.535
91839SOL    HW277415   7.522   6.414   2.536
91840SOL     OW77416  11.403  10.317   1.601
91840SOL    HW177417  11.374  10.408   1.606
91840SOL    HW277418  11.357  10.273   1.673
91841SOL     OW77419   3.773  11.952   0.780
91841SOL    HW177420   3.801  11.964   0.871
91841SOL    HW277421   3.724  11.869   0.781
91842SOL     OW77422   5.214   0.890   6.821
91842SOL    HW177423   5.222   0.852   6.908
91842SOL    HW277424   5.303   0.886   6.784
91843SOL     OW77425   6.039   4.075   6.805
91843SOL    HW177426   6.063   4.156   6.851
91843SOL    HW277427   6.039   4.008   6.873
91844SOL     OW77428   9.061   7.365   0.259
91844SOL    HW177429   9.122   7.362   0.186
91844SOL    HW277430   9.059   7.457   0.285
91845SOL     OW77431   3.382   9.364   3.846
91845SOL    HW177432   3.392   9.269   3.839
91845SOL    HW277433   3.296   9.382   3.808
91846SOL     OW77434   6.035   2.397  14.318
91846SOL    HW177435   6.012   2.470  14.375
91846SOL    HW277436   6.078   2.438  14.243
91847SOL     OW77437  11.460  10.327   4.511
91847SOL    HW177438  11.422  10.320   4.423
91847SOL    HW277439  11.435  10.245   4.554
91848SOL     OW77440   2.948  12.148   7.628
91848SOL    HW177441   2.876  12.165   7.568
91848SOL    HW277442   2.911  12.164   7.715
91849SOL     OW77443   0.787  13.006   4.056
91849SOL    HW177444   0.715  12.944   4.047
91849SOL    HW277445   0.786  13.029   4.149
91850SOL     OW77446   5.318   6.600   4.856
91850SOL    HW177447   5.288   6.690   4.869
91850SOL    HW277448   5.409   6.609   4.826
91851SOL     OW77449   9.810  11.926  10.509
91851SOL    HW177450   9.716  11.942  10.504
91851SOL    HW277451   9.818  11.834  10.532
91852SOL     OW77452   9.650   1.170   0.494
91852SOL    HW177453   9.654   1.170   0.590
91852SOL    HW277454   9.648   1.077   0.471
91853SOL     OW77455   6.758   5.427  11.653
91853SOL    HW177456   6.793   5.350  11.607
91853SOL    HW277457   6.829   5.491  11.651
91854SOL     OW77458   5.587  13.561   1.151
91854SOL    HW177459   5.564  13.565   1.244
91854SOL    HW277460   5.508  13.590   1.105
91855SOL     OW77461   4.480   6.568  12.998
91855SOL    HW177462   4.404   6.619  12.971
91855SOL    HW277463   4.449   6.517  13.073
91856SOL     OW77464   9.151   5.993  11.358
91856SOL    HW177465   9.108   6.054  11.417
91856SOL    HW277466   9.179   5.921  11.414
91857SOL     OW77467   2.546  12.687   7.592
91857SOL    HW177468   2.635  12.709   7.565
91857SOL    HW277469   2.552  12.596   7.622
91858SOL     OW77470   1.171   3.028   1.761
91858SOL    HW177471   1.233   2.964   1.794
91858SOL    HW277472   1.218   3.111   1.765
91859SOL     OW77473   8.659  11.502  10.531
91859SOL    HW177474   8.719  11.558  10.483
91859SOL    HW277475   8.694  11.500  10.620
91860SOL     OW77476   8.778   1.408  11.523
91860SOL    HW177477   8.806   1.317  11.514
91860SOL    HW277478   8.805   1.434  11.611
91861SOL     OW77479   1.926   5.460   6.684
91861SOL    HW177480   1.988   5.498   6.745
91861SOL    HW277481   1.894   5.381   6.728
91862SOL     OW77482   3.040  13.607   5.712
91862SOL    HW177483   3.083  13.657   5.782
91862SOL    HW277484   3.076  13.644   5.632
91863SOL     OW77485   1.550   9.729  11.443
91863SOL    HW177486   1.546   9.748  11.349
91863SOL    HW277487   1.624   9.781  11.475
91864SOL     OW77488   6.911   3.445   6.937
91864SOL    HW177489   7.004   3.460   6.955
91864SOL    HW277490   6.906   3.354   6.910
91865SOL     OW77491   4.443   7.910   1.169
91865SOL    HW177492   4.367   7.852   1.162
91865SOL    HW277493   4.432   7.973   1.098
91866SOL     OW77494   1.116   2.760   0.115
91866SOL    HW177495   1.026   2.772   0.085
91866SOL    HW277496   1.131   2.833   0.175
91867SOL     OW77497   9.572   2.549   4.429
91867SOL    HW177498   9.643   2.493   4.399
91867SOL    HW277499   9.590   2.634   4.391
91868SOL     OW77500   2.005   2.403   5.493
91868SOL    HW177501   2.006   2.335   5.426
91868SOL    HW277502   2.020   2.356   5.575
91869SOL     OW77503   1.480  14.136  11.479
91869SOL    HW177504   1.392  14.162  11.453
91869SOL    HW277505   1.505  14.198  11.548
91870SOL     OW77506   0.472  11.245  12.777
91870SOL    HW177507   0.447  11.320  12.724
91870SOL    HW277508   0.568  11.248  12.778
91871SOL     OW77509   0.345   4.436   4.950
91871SOL    HW177510   0.352   4.437   4.855
91871SOL    HW277511   0.302   4.518   4.972
91872SOL     OW77512   1.167   6.188  11.074
91872SOL    HW177513   1.158   6.093  11.066
91872SOL    HW277514   1.135   6.221  10.990
91873SOL     OW77515   2.230  11.839   2.857
91873SOL    HW177516   2.264  11.750   2.861
91873SOL    HW277517   2.148  11.831   2.808
91874SOL     OW77518   4.785  14.006   8.006
91874SOL    HW177519   4.740  14.090   8.008
91874SOL    HW277520   4.715  13.941   8.016
91875SOL     OW77521  13.937   3.547  12.225
91875SOL    HW177522  13.905   3.601  12.296
91875SOL    HW277523  13.884   3.467  12.229
91876SOL     OW77524   7.933   8.567   1.441
91876SOL    HW177525   7.863   8.505   1.464
91876SOL    HW277526   8.004   8.548   1.502
91877SOL     OW77527  14.190   8.300  11.860
91877SOL    HW177528  14.153   8.232  11.804
91877SOL    HW277529  14.127   8.308  11.932
91878SOL     OW77530  12.765   8.101  11.752
91878SOL    HW177531  12.706   8.176  11.756
91878SOL    HW277532  12.729   8.038  11.814
91879SOL     OW77533   0.963  10.849  13.713
91879SOL    HW177534   0.886  10.799  13.739
91879SOL    HW277535   0.941  10.940  13.732
91880SOL     OW77536   6.428   4.291   7.861
91880SOL    HW177537   6.357   4.228   7.875
91880SOL    HW277538   6.496   4.241   7.816
91881SOL     OW77539   6.871   7.247   1.062
91881SOL    HW177540   6.827   7.290   1.136
91881SOL    HW277541   6.949   7.301   1.046
91882SOL     OW77542  11.429   8.993   2.082
91882SOL    HW177543  11.405   8.918   2.137
91882SOL    HW277544  11.386   8.977   1.998
91883SOL     OW77545   3.074   0.394   4.877
91883SOL    HW177546   3.048   0.479   4.911
91883SOL    HW277547   3.158   0.375   4.919
91884SOL     OW77548   3.053   3.600  10.404
91884SOL    HW177549   3.037   3.508  10.380
91884SOL    HW277550   3.026   3.605  10.496
91885SOL     OW77551   5.222  14.573   9.554
91885SOL    HW177552   5.215  14.663   9.523
91885SOL    HW277553   5.314  14.549   9.540
91886SOL     OW77554   3.540   8.758   0.254
91886SOL    HW177555   3.509   8.697   0.187
91886SOL    HW277556   3.581   8.829   0.204
91887SOL     OW77557   4.469   1.701   8.950
91887SOL    HW177558   4.522   1.771   8.987
91887SOL    HW277559   4.381   1.717   8.985
91888SOL     OW77560  13.019   7.571   3.327
91888SOL    HW177561  13.044   7.564   3.235
91888SOL    HW277562  13.051   7.657   3.354
91889SOL     OW77563  12.061   8.373  12.935
91889SOL    HW177564  11.995   8.378  12.867
91889SOL    HW277565  12.012   8.359  13.016
91890SOL     OW77566   9.545   6.836  12.871
91890SOL    HW177567   9.527   6.930  12.863
91890SOL    HW277568   9.623   6.822  12.817
91891SOL     OW77569   2.979   1.178  10.169
91891SOL    HW177570   2.986   1.088  10.137
91891SOL    HW277571   3.005   1.172  10.261
91892SOL     OW77572   0.355   1.471   5.671
91892SOL    HW177573   0.296   1.420   5.727
91892SOL    HW277574   0.443   1.438   5.693
91893SOL     OW77575   5.912  11.108   7.642
91893SOL    HW177576   5.953  11.126   7.557
91893SOL    HW277577   5.818  11.108   7.624
91894SOL     OW77578   8.532   6.099  12.796
91894SOL    HW177579   8.453   6.117  12.745
91894SOL    HW277580   8.539   6.174  12.856
91895SOL     OW77581   5.498  13.912   5.498
91895SOL    HW177582   5.592  13.928   5.499
91895SOL    HW277583   5.486  13.844   5.433
91896SOL     OW77584  14.447   4.749   8.022
91896SOL    HW177585  14.465   4.658   8.046
91896SOL    HW277586  14.533   4.788   8.005
91897SOL     OW77587   8.253   1.702  10.844
91897SOL    HW177588   8.344   1.674  10.857
91897SOL    HW277589   8.206   1.668  10.920
91898SOL     OW77590   7.219  12.657  12.407
91898SOL    HW177591   7.244  12.660  12.315
91898SOL    HW277592   7.241  12.744  12.441
91899SOL     OW77593   4.519   5.129  10.013
91899SOL    HW177594   4.564   5.048  10.041
91899SOL    HW277595   4.430   5.101   9.993
91900SOL     OW77596   1.418   9.183   6.997
91900SOL    HW177597   1.374   9.232   6.927
91900SOL    HW277598   1.390   9.226   7.078
91901SOL     OW77599  14.230   9.766  14.217
91901SOL    HW177600  14.144   9.723  14.226
91901SOL    HW277601  14.270   9.757  14.303
91902SOL     OW77602  11.940  11.132   2.283
91902SOL    HW177603  11.942  11.220   2.245
91902SOL    HW277604  11.966  11.074   2.211
91903SOL     OW77605  13.557   7.987  13.654
91903SOL    HW177606  13.649   7.961  13.641
91903SOL    HW277607  13.510   7.943  13.583
91904SOL     OW77608   3.574   8.639   8.250
91904SOL    HW177609   3.499   8.621   8.307
91904SOL    HW277610   3.599   8.729   8.272
91905SOL     OW77611   6.052   5.644  14.515
91905SOL    HW177612   6.044   5.644  14.420
91905SOL    HW277613   6.051   5.551  14.540
91906SOL     OW77614   8.643   1.544  13.520
91906SOL    HW177615   8.705   1.501  13.579
91906SOL    HW277616   8.653   1.497  13.437
91907SOL     OW77617   1.889   1.093  13.842
91907SOL    HW177618   1.838   1.030  13.893
91907SOL    HW277619   1.968   1.046  13.815
91908SOL     OW77620   1.583   3.175   1.993
91908SOL    HW177621   1.560   3.231   1.920
91908SOL    HW277622   1.667   3.209   2.024
91909SOL     OW77623  14.627   7.877   1.788
91909SOL    HW177624  14.538   7.879   1.751
91909SOL    HW277625  14.645   7.783   1.800
91910SOL     OW77626  11.246   1.318   1.326
91910SOL    HW177627  11.254   1.249   1.260
91910SOL    HW277628  11.330   1.363   1.325
91911SOL     OW77629   4.662   6.763  12.939
91911SOL    HW177630   4.732   6.716  12.894
91911SOL    HW277631   4.604   6.695  12.973
91912SOL     OW77632  14.197  11.578  12.074
91912SOL    HW177633  14.160  11.490  12.064
91912SOL    HW277634  14.290  11.567  12.057
91913SOL     OW77635   9.474   6.120   1.529
91913SOL    HW177636   9.401   6.125   1.591
91913SOL    HW277637   9.526   6.046   1.559
91914SOL     OW77638  12.942  10.948  13.455
91914SOL    HW177639  13.029  10.987  13.464
91914SOL    HW277640  12.887  11.020  13.423
91915SOL     OW77641   9.284   9.492  12.661
91915SOL    HW177642   9.204   9.468  12.707
91915SOL    HW277643   9.346   9.514  12.731
91916SOL     OW77644   3.252   4.937   7.326
91916SOL    HW177645   3.181   4.999   7.313
91916SOL    HW277646   3.266   4.898   7.239
91917SOL     OW77647  12.527  13.689   7.284
91917SOL    HW177648  12.590  13.619   7.303
91917SOL    HW277649  12.442  13.652   7.307
91918SOL     OW77650   6.150   6.506   1.461
91918SOL    HW177651   6.232   6.479   1.420
91918SOL    HW277652   6.138   6.445   1.534
91919SOL     OW77653   9.193   5.909   3.285
91919SOL    HW177654   9.114   5.860   3.311
91919SOL    HW277655   9.265   5.849   3.305
91920SOL     OW77656   1.726  13.173   3.717
91920SOL    HW177657   1.700  13.111   3.649
91920SOL    HW277658   1.704  13.259   3.680
91921SOL     OW77659   4.339  14.483   1.686
91921SOL    HW177660   4.407  14.428   1.649
91921SOL    HW277661   4.257  14.449   1.649
91922SOL     OW77662   0.905   6.256   0.263
91922SOL    HW177663   0.882   6.183   0.205
91922SOL    HW277664   0.964   6.310   0.210
91923SOL     OW77665   2.866   5.192   5.712
91923SOL    HW177666   2.850   5.256   5.642
91923SOL    HW277667   2.836   5.109   5.676
91924SOL     OW77668  14.452  14.805  11.130
91924SOL    HW177669  14.401   0.016  11.122
91924SOL    HW277670  14.542  14.831  11.109
91925SOL     OW77671   2.805  14.674   9.568
91925SOL    HW177672   2.762  14.757   9.592
91925SOL    HW277673   2.744  14.632   9.508
91926SOL     OW77674   4.806  11.837   7.823
91926SOL    HW177675   4.862  11.913   7.807
91926SOL    HW277676   4.859  11.777   7.875
91927SOL     OW77677  13.550   1.229  10.089
91927SOL    HW177678  13.578   1.252  10.000
91927SOL    HW277679  13.631   1.230  10.140
91928SOL     OW77680   6.775  11.252  14.231
91928SOL    HW177681   6.847  11.241  14.169
91928SOL    HW277682   6.797  11.333  14.279
91929SOL     OW77683   1.815  14.428  11.134
91929SOL    HW177684   1.762  14.497  11.175
91929SOL    HW277685   1.760  14.394  11.064
91930SOL     OW77686   5.678   8.380   6.554
91930SOL    HW177687   5.612   8.378   6.484
91930SOL    HW277688   5.642   8.442   6.618
91931SOL     OW77689   9.330   0.307  11.513
91931SOL    HW177690   9.328   0.305  11.418
91931SOL    HW277691   9.239   0.322  11.539
91932SOL     OW77692   2.819   8.175   0.180
91932SOL    HW177693   2.755   8.245   0.167
91932SOL    HW277694   2.904   8.219   0.179
91933SOL     OW77695   0.960   2.987   4.061
91933SOL    HW177696   0.934   3.006   4.150
91933SOL    HW277697   0.937   2.895   4.048
91934SOL     OW77698  13.179  13.835   1.638
91934SOL    HW177699  13.138  13.908   1.685
91934SOL    HW277700  13.215  13.780   1.707
91935SOL     OW77701   2.099   8.773   6.841
91935SOL    HW177702   2.007   8.775   6.817
91935SOL    HW277703   2.109   8.844   6.904
91936SOL     OW77704   7.240   2.162  13.100
91936SOL    HW177705   7.330   2.176  13.130
91936SOL    HW277706   7.203   2.100  13.163
91937SOL     OW77707   1.113  13.725   2.709
91937SOL    HW177708   1.122  13.642   2.662
91937SOL    HW277709   1.047  13.774   2.660
91938SOL     OW77710  14.808  11.536  11.281
91938SOL    HW177711  14.853  11.592  11.343
91938SOL    HW277712  14.735  11.590  11.248
91939SOL     OW77713  11.540  11.106   0.818
91939SOL    HW177714  11.494  11.024   0.800
91939SOL    HW277715  11.587  11.090   0.899
91940SOL     OW77716   6.984   2.969   0.805
91940SOL    HW177717   7.059   3.021   0.836
91940SOL    HW277718   6.959   2.917   0.881
91941SOL     OW77719   1.671   3.597   6.182
91941SOL    HW177720   1.662   3.511   6.141
91941SOL    HW277721   1.700   3.578   6.271
91942SOL     OW77722   4.538  14.847   8.504
91942SOL    HW177723   4.463  14.802   8.543
91942SOL    HW277724   4.612  14.787   8.519
91943SOL     OW77725  13.671  10.943   4.713
91943SOL    HW177726  13.649  10.999   4.787
91943SOL    HW277727  13.719  10.870   4.750
91944SOL     OW77728   3.873   5.768   1.473
91944SOL    HW177729   3.790   5.812   1.456
91944SOL    HW277730   3.850   5.694   1.530
91945SOL     OW77731   3.074   3.534   5.781
91945SOL    HW177732   3.156   3.499   5.746
91945SOL    HW277733   3.037   3.462   5.832
91946SOL     OW77734   0.648   1.954   3.849
91946SOL    HW177735   0.661   1.993   3.936
91946SOL    HW277736   0.644   2.028   3.789
91947SOL     OW77737   3.690   3.514  10.333
91947SOL    HW177738   3.740   3.584  10.291
91947SOL    HW277739   3.679   3.544  10.423
91948SOL     OW77740   8.326  10.693   0.171
91948SOL    HW177741   8.339  10.606   0.209
91948SOL    HW277742   8.373  10.752   0.229
91949SOL     OW77743  13.923  13.292  13.381
91949SOL    HW177744  13.899  13.295  13.474
91949SOL    HW277745  13.887  13.372  13.344
91950SOL     OW77746   7.839  11.471   7.505
91950SOL    HW177747   7.839  11.563   7.532
91950SOL    HW277748   7.883  11.425   7.577
91951SOL     OW77749   3.892  10.477   6.705
91951SOL    HW177750   3.951  10.403   6.689
91951SOL    HW277751   3.928  10.549   6.652
91952SOL     OW77752  12.618  13.364   9.051
91952SOL    HW177753  12.532  13.323   9.049
91952SOL    HW277754  12.633  13.391   8.960
91953SOL     OW77755   7.720  10.556  10.656
91953SOL    HW177756   7.781  10.485  10.671
91953SOL    HW277757   7.775  10.631  10.632
91954SOL     OW77758  13.076   7.040   4.230
91954SOL    HW177759  13.038   6.953   4.246
91954SOL    HW277760  13.026   7.099   4.287
91955SOL     OW77761   8.601   3.077  13.517
91955SOL    HW177762   8.681   3.047  13.474
91955SOL    HW277763   8.625   3.090  13.608
91956SOL     OW77764   9.080   5.604   4.353
91956SOL    HW177765   9.124   5.660   4.417
91956SOL    HW277766   9.039   5.665   4.292
91957SOL     OW77767  11.265  12.273  14.323
91957SOL    HW177768  11.344  12.232  14.288
91957SOL    HW277769  11.208  12.286  14.247
91958SOL     OW77770   7.596  13.061   3.822
91958SOL    HW177771   7.655  12.996   3.783
91958SOL    HW277772   7.523  13.009   3.857
91959SOL     OW77773   2.422   9.128   3.144
91959SOL    HW177774   2.437   9.086   3.059
91959SOL    HW277775   2.348   9.080   3.181
91960SOL     OW77776   3.444  12.344  14.758
91960SOL    HW177777   3.452  12.377  14.848
91960SOL    HW277778   3.358  12.302  14.756
91961SOL     OW77779  13.032   6.752  13.144
91961SOL    HW177780  13.060   6.768  13.053
91961SOL    HW277781  13.072   6.668  13.167
91962SOL     OW77782   8.639  11.414   2.752
91962SOL    HW177783   8.608  11.438   2.839
91962SOL    HW277784   8.691  11.335   2.766
91963SOL     OW77785   7.048   8.556   3.633
91963SOL    HW177786   7.053   8.515   3.719
91963SOL    HW277787   7.105   8.633   3.639
91964SOL     OW77788   7.509   5.604   8.816
91964SOL    HW177789   7.503   5.657   8.895
91964SOL    HW277790   7.475   5.659   8.746
91965SOL     OW77791   0.212   6.243  14.501
91965SOL    HW177792   0.122   6.257  14.530
91965SOL    HW277793   0.210   6.158  14.456
91966SOL     OW77794  11.665   1.812  11.875
91966SOL    HW177795  11.689   1.896  11.835
91966SOL    HW277796  11.576   1.825  11.907
91967SOL     OW77797  11.550  14.447   3.525
91967SOL    HW177798  11.635  14.491   3.528
91967SOL    HW277799  11.541  14.419   3.434
91968SOL     OW77800   0.365   4.513  14.583
91968SOL    HW177801   0.310   4.574  14.534
91968SOL    HW277802   0.370   4.551  14.671
91969SOL     OW77803   3.952   3.314   2.727
91969SOL    HW177804   3.923   3.322   2.636
91969SOL    HW277805   3.953   3.220   2.744
91970SOL     OW77806   8.063   3.215   3.061
91970SOL    HW177807   8.141   3.264   3.034
91970SOL    HW277808   8.076   3.199   3.155
91971SOL     OW77809   5.036   5.963   8.223
91971SOL    HW177810   5.050   6.039   8.280
91971SOL    HW277811   5.074   5.989   8.139
91972SOL     OW77812  13.812   0.804   0.981
91972SOL    HW177813  13.831   0.898   0.988
91972SOL    HW277814  13.841   0.768   1.065
91973SOL     OW77815  14.346   1.087  11.328
91973SOL    HW177816  14.411   1.050  11.388
91973SOL    HW277817  14.312   1.163  11.374
91974SOL     OW77818   4.484   7.013   6.497
91974SOL    HW177819   4.571   7.027   6.534
91974SOL    HW277820   4.460   7.097   6.459
91975SOL     OW77821   5.610   7.030   7.280
91975SOL    HW177822   5.653   7.007   7.363
91975SOL    HW277823   5.642   6.966   7.218
91976SOL     OW77824  12.647   9.962  12.383
91976SOL    HW177825  12.614  10.052  12.379
91976SOL    HW277826  12.575   9.908  12.351
91977SOL     OW77827   4.070  11.138  13.385
91977SOL    HW177828   4.079  11.142  13.290
91977SOL    HW277829   3.992  11.189  13.404
91978SOL     OW77830  12.290   1.625   4.724
91978SOL    HW177831  12.255   1.538   4.744
91978SOL    HW277832  12.221   1.669   4.675
91979SOL     OW77833   8.770  10.583  14.484
91979SOL    HW177834   8.686  10.622  14.459
91979SOL    HW277835   8.765  10.493  14.454
91980SOL     OW77836   7.982   7.583  13.629
91980SOL    HW177837   7.945   7.595  13.542
91980SOL    HW277838   7.955   7.661  13.677
91981SOL     OW77839   5.088   7.228   4.607
91981SOL    HW177840   5.169   7.177   4.614
91981SOL    HW277841   5.037   7.182   4.541
91982SOL     OW77842   8.590  11.798   9.118
91982SOL    HW177843   8.511  11.806   9.065
91982SOL    HW277844   8.628  11.886   9.117
91983SOL     OW77845   5.567  12.225  10.118
91983SOL    HW177846   5.541  12.308  10.157
91983SOL    HW277847   5.488  12.172  10.120
91984SOL     OW77848   0.168  10.966   7.092
91984SOL    HW177849   0.091  11.010   7.055
91984SOL    HW277850   0.169  10.995   7.184
91985SOL     OW77851   0.409  13.436   9.903
91985SOL    HW177852   0.482  13.390   9.945
91985SOL    HW277853   0.446  13.468   9.821
91986SOL     OW77854   9.345  12.126  13.048
91986SOL    HW177855   9.398  12.206  13.056
91986SOL    HW277856   9.302  12.118  13.133
91987SOL     OW77857   7.714   6.561   1.255
91987SOL    HW177858   7.785   6.514   1.211
91987SOL    HW277859   7.637   6.544   1.201
91988SOL     OW77860   2.951   5.293   2.555
91988SOL    HW177861   2.877   5.282   2.615
91988SOL    HW277862   3.018   5.234   2.589
91989SOL     OW77863   7.093   5.907  13.498
91989SOL    HW177864   7.035   5.902  13.574
91989SOL    HW277865   7.035   5.926  13.425
91990SOL     OW77866  12.151   6.258   8.136
91990SOL    HW177867  12.073   6.233   8.087
91990SOL    HW277868  12.219   6.198   8.105
91991SOL     OW77869   6.592   2.023   5.986
91991SOL    HW177870   6.597   1.949   6.046
91991SOL    HW277871   6.585   1.982   5.899
91992SOL     OW77872   1.058   2.431   0.443
91992SOL    HW177873   1.093   2.429   0.532
91992SOL    HW277874   1.101   2.506   0.402
91993SOL     OW77875   2.670  12.982   2.181
91993SOL    HW177876   2.708  13.022   2.260
91993SOL    HW277877   2.604  12.922   2.215
91994SOL     OW77878  13.744  14.661   5.486
91994SOL    HW177879  13.832  14.692   5.508
91994SOL    HW277880  13.707  14.633   5.570
91995SOL     OW77881  10.172   0.939   6.143
91995SOL    HW177882  10.225   1.019   6.142
91995SOL    HW277883  10.090   0.966   6.186
91996SOL     OW77884   5.050   8.313   7.434
91996SOL    HW177885   5.019   8.223   7.442
91996SOL    HW277886   5.028   8.354   7.517
91997SOL     OW77887  13.095  14.181   3.338
91997SOL    HW177888  13.056  14.127   3.269
91997SOL    HW277889  13.061  14.145   3.420
91998SOL     OW77890   9.629   5.732   2.607
91998SOL    HW177891   9.591   5.806   2.559
91998SOL    HW277892   9.617   5.755   2.699
91999SOL     OW77893  11.645  12.666   9.688
91999SOL    HW177894  11.591  12.727   9.638
91999SOL    HW277895  11.650  12.705   9.776
92000SOL     OW77896  11.268  12.964   3.002
92000SOL    HW177897  11.345  12.932   2.955
92000SOL    HW277898  11.194  12.926   2.953
92001SOL     OW77899   6.100   7.722   2.734
92001SOL    HW177900   6.168   7.776   2.693
92001SOL    HW277901   6.057   7.781   2.796
92002SOL     OW77902   9.814  11.991   2.584
92002SOL    HW177903   9.753  11.918   2.593
92002SOL    HW277904   9.896  11.958   2.620
92003SOL     OW77905   8.977  12.248  12.154
92003SOL    HW177906   8.947  12.162  12.127
92003SOL    HW277907   9.042  12.231  12.222
92004SOL     OW77908   2.075   4.349   6.344
92004SOL    HW177909   2.007   4.307   6.398
92004SOL    HW277910   2.044   4.337   6.254
92005SOL     OW77911   3.632   2.137  10.794
92005SOL    HW177912   3.565   2.190  10.837
92005SOL    HW277913   3.642   2.176  10.707
92006SOL     OW77914   3.094  11.077   8.955
92006SOL    HW177915   3.055  11.161   8.979
92006SOL    HW277916   3.108  11.083   8.860
92007SOL     OW77917  10.755   2.869   9.609
92007SOL    HW177918  10.723   2.867   9.699
92007SOL    HW277919  10.848   2.848   9.616
92008SOL     OW77920   4.339   9.932  11.134
92008SOL    HW177921   4.315   9.977  11.216
92008SOL    HW277922   4.268   9.870  11.120
92009SOL     OW77923   9.191   1.654   5.770
92009SOL    HW177924   9.154   1.665   5.858
92009SOL    HW277925   9.117   1.668   5.711
92010SOL     OW77926   9.115  14.371  13.704
92010SOL    HW177927   9.190  14.368  13.644
92010SOL    HW277928   9.115  14.286  13.746
92011SOL     OW77929  10.818   0.010   3.349
92011SOL    HW177930  10.808   0.104   3.336
92011SOL    HW277931  10.732  14.850   3.378
92012SOL     OW77932  11.173   9.039   6.883
92012SOL    HW177933  11.196   8.993   6.964
92012SOL    HW277934  11.113   8.979   6.838
92013SOL     OW77935  13.026   1.815   1.333
92013SOL    HW177936  13.029   1.908   1.308
92013SOL    HW277937  13.070   1.812   1.418
92014SOL     OW77938  14.804   1.503  14.459
92014SOL    HW177939  14.849   1.583  14.435
92014SOL    HW277940  14.715   1.514  14.426
92015SOL     OW77941   2.414  12.401   1.346
92015SOL    HW177942   2.478  12.415   1.416
92015SOL    HW277943   2.336  12.367   1.391
92016SOL     OW77944   6.422   7.126  11.658
92016SOL    HW177945   6.427   7.101  11.751
92016SOL    HW277946   6.329   7.139  11.642
92017SOL     OW77947   0.386  10.711  10.174
92017SOL    HW177948   0.381  10.803  10.200
92017SOL    HW277949   0.375  10.713  10.079
92018SOL     OW77950  12.046  14.216   3.532
92018SOL    HW177951  11.999  14.139   3.565
92018SOL    HW277952  12.138  14.190   3.530
92019SOL     OW77953   2.148   1.432   6.880
92019SOL    HW177954   2.199   1.504   6.843
92019SOL    HW277955   2.191   1.412   6.963
92020SOL     OW77956   5.074  10.545   4.040
92020SOL    HW177957   5.050  10.627   3.996
92020SOL    HW277958   5.014  10.480   4.003
92021SOL     OW77959   2.004  14.388   5.202
92021SOL    HW177960   2.080  14.396   5.261
92021SOL    HW277961   2.000  14.472   5.157
92022SOL     OW77962  11.490   0.690   2.002
92022SOL    HW177963  11.577   0.726   1.987
92022SOL    HW277964  11.493   0.655   2.091
92023SOL     OW77965  13.470   0.459  13.733
92023SOL    HW177966  13.538   0.495  13.677
92023SOL    HW277967  13.418   0.535  13.761
92024SOL     OW77968   9.598   2.204  13.931
92024SOL    HW177969   9.547   2.263  13.875
92024SOL    HW277970   9.599   2.121  13.883
92025SOL     OW77971   1.324   6.571   0.197
92025SOL    HW177972   1.387   6.555   0.266
92025SOL    HW277973   1.301   6.663   0.207
92026SOL     OW77974   9.065   6.001   1.378
92026SOL    HW177975   9.095   5.910   1.378
92026SOL    HW277976   9.036   6.016   1.468
92027SOL     OW77977  14.051  11.262  10.348
92027SOL    HW177978  13.981  11.328  10.348
92027SOL    HW277979  14.009  11.184  10.313
92028SOL     OW77980  11.489  13.208   4.520
92028SOL    HW177981  11.486  13.125   4.566
92028SOL    HW277982  11.545  13.264   4.574
92029SOL     OW77983  11.868   0.210   2.834
92029SOL    HW177984  11.861   0.195   2.928
92029SOL    HW277985  11.930   0.283   2.826
92030SOL     OW77986   0.533   8.476   1.606
92030SOL    HW177987   0.438   8.474   1.608
92030SOL    HW277988   0.556   8.447   1.518
92031SOL     OW77989   7.123  13.484  13.010
92031SOL    HW177990   7.032  13.462  13.028
92031SOL    HW277991   7.161  13.502  13.096
92032SOL     OW77992   3.911   4.143   2.953
92032SOL    HW177993   3.843   4.167   3.016
92032SOL    HW277994   3.929   4.051   2.970
92033SOL     OW77995   1.535  11.578  12.052
92033SOL    HW177996   1.448  11.601  12.084
92033SOL    HW277997   1.594  11.638  12.097
92034SOL     OW77998   0.803  12.674   9.307
92034SOL    HW177999   0.876  12.726   9.274
92034SOL    HW278000   0.802  12.596   9.253
92035SOL     OW78001   2.762   3.822  14.049
92035SOL    HW178002   2.746   3.877  13.971
92035SOL    HW278003   2.688   3.762  14.051
92036SOL     OW78004  11.433   6.925   0.116
92036SOL    HW178005  11.417   6.986   0.188
92036SOL    HW278006  11.383   6.847   0.139
92037SOL     OW78007  12.612   7.239   1.340
92037SOL    HW178008  12.643   7.329   1.346
92037SOL    HW278009  12.688   7.186   1.362
92038SOL     OW78010  13.022   0.457  14.703
92038SOL    HW178011  12.943   0.507  14.684
92038SOL    HW278012  12.997   0.398  14.774
92039SOL     OW78013   6.779   2.797  14.757
92039SOL    HW178014   6.806   2.710  14.731
92039SOL    HW278015   6.730   2.831  14.682
92040SOL     OW78016  10.437   1.980   5.666
92040SOL    HW178017  10.473   1.981   5.577
92040SOL    HW278018  10.379   2.056   5.669
92041SOL     OW78019  13.029   8.477   6.563
92041SOL    HW178020  13.061   8.564   6.540
92041SOL    HW278021  12.937   8.478   6.537
92042SOL     OW78022  13.715   6.105   3.010
92042SOL    HW178023  13.728   6.188   3.056
92042SOL    HW278024  13.740   6.038   3.074
92043SOL     OW78025   5.719   9.664  13.303
92043SOL    HW178026   5.733   9.626  13.216
92043SOL    HW278027   5.792   9.633  13.355
92044SOL     OW78028   6.035   8.319   9.288
92044SOL    HW178029   5.991   8.319   9.203
92044SOL    HW278030   6.010   8.236   9.328
92045SOL     OW78031   4.647   4.871  14.654
92045SOL    HW178032   4.555   4.870  14.683
92045SOL    HW278033   4.642   4.864  14.559
92046SOL     OW78034   3.499  11.109   0.122
92046SOL    HW178035   3.425  11.129   0.179
92046SOL    HW278036   3.459  11.101   0.035
92047SOL     OW78037  10.956   9.658   2.582
92047SOL    HW178038  10.935   9.741   2.626
92047SOL    HW278039  11.001   9.606   2.649
92048SOL     OW78040   0.366   7.938   4.393
92048SOL    HW178041   0.319   7.860   4.422
92048SOL    HW278042   0.455   7.907   4.375
92049SOL     OW78043   0.149   1.046  11.083
92049SOL    HW178044   0.244   1.055  11.079
92049SOL    HW278045   0.131   1.015  11.172
92050SOL     OW78046  12.963   3.985  14.703
92050SOL    HW178047  12.892   3.921  14.709
92050SOL    HW278048  12.929   4.063  14.747
92051SOL     OW78049   7.089  14.434   7.378
92051SOL    HW178050   7.052  14.501   7.320
92051SOL    HW278051   7.088  14.474   7.465
92052SOL     OW78052   0.250   0.387   0.906
92052SOL    HW178053   0.222   0.472   0.871
92052SOL    HW278054   0.301   0.409   0.984
92053SOL     OW78055  13.492  10.045  11.048
92053SOL    HW178056  13.537  10.091  10.977
92053SOL    HW278057  13.429  10.108  11.082
92054SOL     OW78058   5.078  11.819  11.418
92054SOL    HW178059   5.081  11.875  11.340
92054SOL    HW278060   5.035  11.739  11.388
92055SOL     OW78061   0.308   8.304   5.137
92055SOL    HW178062   0.357   8.266   5.063
92055SOL    HW278063   0.271   8.385   5.102
92056SOL     OW78064  13.922   1.853   5.116
92056SOL    HW178065  13.889   1.848   5.205
92056SOL    HW278066  13.927   1.947   5.097
92057SOL     OW78067   8.211   7.035   6.921
92057SOL    HW178068   8.299   7.002   6.906
92057SOL    HW278069   8.165   6.962   6.963
92058SOL     OW78070   2.749   2.434   4.740
92058SOL    HW178071   2.693   2.444   4.663
92058SOL    HW278072   2.706   2.366   4.792
92059SOL     OW78073   2.993   5.429   5.711
92059SOL    HW178074   3.038   5.354   5.750
92059SOL    HW278075   2.904   5.424   5.746
92060SOL     OW78076  14.044   6.038  10.921
92060SOL    HW178077  14.096   6.090  10.982
92060SOL    HW278078  14.079   6.059  10.835
92061SOL     OW78079   0.664   5.674   2.611
92061SOL    HW178080   0.604   5.736   2.570
92061SOL    HW278081   0.632   5.588   2.583
92062SOL     OW78082   0.739  13.214   0.512
92062SOL    HW178083   0.660  13.161   0.500
92062SOL    HW278084   0.767  13.235   0.423
92063SOL     OW78085  10.530  14.109  11.617
92063SOL    HW178086  10.602  14.144  11.565
92063SOL    HW278087  10.453  14.159  11.587
92064SOL     OW78088   2.094   5.926   8.665
92064SOL    HW178089   2.101   5.989   8.594
92064SOL    HW278090   2.185   5.903   8.686
92065SOL     OW78091   1.507  11.107   8.213
92065SOL    HW178092   1.542  11.140   8.296
92065SOL    HW278093   1.430  11.161   8.196
92066SOL     OW78094   6.731   8.325   1.751
92066SOL    HW178095   6.807   8.267   1.758
92066SOL    HW278096   6.666   8.274   1.703
92067SOL     OW78097   8.127   3.863   8.940
92067SOL    HW178098   8.053   3.909   8.902
92067SOL    HW278099   8.161   3.924   9.007
92068SOL     OW78100   7.280  11.143   1.444
92068SOL    HW178101   7.229  11.204   1.390
92068SOL    HW278102   7.254  11.164   1.534
92069SOL     OW78103  13.954  11.306   7.955
92069SOL    HW178104  13.957  11.213   7.978
92069SOL    HW278105  14.045  11.335   7.964
92070SOL     OW78106   7.862   9.315  14.245
92070SOL    HW178107   7.830   9.229  14.271
92070SOL    HW278108   7.955   9.303  14.229
92071SOL     OW78109  12.912   9.627   3.057
92071SOL    HW178110  12.868   9.672   3.129
92071SOL    HW278111  12.928   9.696   2.992
92072SOL     OW78112  14.664  12.658   6.897
92072SOL    HW178113  14.573  12.659   6.927
92072SOL    HW278114  14.696  12.571   6.921
92073SOL     OW78115   7.791  10.663   6.916
92073SOL    HW178116   7.873  10.624   6.945
92073SOL    HW278117   7.747  10.690   6.997
92074SOL     OW78118   8.256   5.177  14.154
92074SOL    HW178119   8.296   5.248  14.104
92074SOL    HW278120   8.309   5.100  14.134
92075SOL     OW78121   1.611   0.789   3.062
92075SOL    HW178122   1.684   0.847   3.086
92075SOL    HW278123   1.577   0.827   2.981
92076SOL     OW78124   1.743   0.184   7.960
92076SOL    HW178125   1.686   0.220   8.027
92076SOL    HW278126   1.718   0.092   7.952
92077SOL     OW78127   9.299   1.381   9.901
92077SOL    HW178128   9.207   1.377   9.927
92077SOL    HW278129   9.346   1.342   9.975
92078SOL     OW78130   7.690   8.365  13.487
92078SOL    HW178131   7.648   8.281  13.504
92078SOL    HW278132   7.665   8.387  13.398
92079SOL     OW78133   1.267   6.550   3.766
92079SOL    HW178134   1.351   6.586   3.738
92079SOL    HW278135   1.211   6.557   3.689
92080SOL     OW78136   9.622  12.658   9.453
92080SOL    HW178137   9.663  12.581   9.494
92080SOL    HW278138   9.532  12.656   9.487
92081SOL     OW78139   1.068  10.086  11.027
92081SOL    HW178140   1.080  10.028  10.952
92081SOL    HW278141   1.062  10.174  10.989
92082SOL     OW78142   3.269  10.748   1.350
92082SOL    HW178143   3.354  10.746   1.393
92082SOL    HW278144   3.207  10.720   1.418
92083SOL     OW78145  11.680   9.857   6.707
92083SOL    HW178146  11.750   9.896   6.655
92083SOL    HW278147  11.615   9.926   6.717
92084SOL     OW78148  13.248  12.446   2.404
92084SOL    HW178149  13.335  12.462   2.368
92084SOL    HW278150  13.247  12.496   2.486
92085SOL     OW78151   1.617  13.126  14.703
92085SOL    HW178152   1.702  13.109  14.743
92085SOL    HW278153   1.601  13.219  14.719
92086SOL     OW78154  13.141  13.380   0.909
92086SOL    HW178155  13.090  13.327   0.847
92086SOL    HW278156  13.076  13.428   0.960
92087SOL     OW78157   6.360   8.239  14.623
92087SOL    HW178158   6.365   8.196  14.538
92087SOL    HW278159   6.327   8.172  14.683
92088SOL     OW78160   8.154   4.401   4.853
92088SOL    HW178161   8.204   4.321   4.839
92088SOL    HW278162   8.177   4.429   4.942
92089SOL     OW78163   3.816   1.608   7.319
92089SOL    HW178164   3.774   1.523   7.327
92089SOL    HW278165   3.757   1.668   7.365
92090SOL     OW78166   2.864  13.197  12.231
92090SOL    HW178167   2.884  13.251  12.154
92090SOL    HW278168   2.782  13.232  12.264
92091SOL     OW78169   1.173   7.244   8.247
92091SOL    HW178170   1.242   7.273   8.306
92091SOL    HW278171   1.202   7.157   8.218
92092SOL     OW78172  11.197   5.612  12.309
92092SOL    HW178173  11.179   5.649  12.395
92092SOL    HW278174  11.139   5.536  12.303
92093SOL     OW78175   1.997  12.764   1.307
92093SOL    HW178176   1.908  12.762   1.273
92093SOL    HW278177   2.048  12.811   1.241
92094SOL     OW78178  10.691  13.376   5.649
92094SOL    HW178179  10.748  13.414   5.717
92094SOL    HW278180  10.651  13.300   5.690
92095SOL     OW78181  10.875   1.874   9.117
92095SOL    HW178182  10.869   1.826   9.034
92095SOL    HW278183  10.909   1.960   9.092
92096SOL     OW78184   3.059   5.099   3.686
92096SOL    HW178185   3.104   5.138   3.760
92096SOL    HW278186   3.108   5.128   3.609
92097SOL     OW78187   3.572   4.217   7.835
92097SOL    HW178188   3.541   4.226   7.925
92097SOL    HW278189   3.651   4.163   7.842
92098SOL     OW78190   1.657   1.223   4.362
92098SOL    HW178191   1.642   1.229   4.456
92098SOL    HW278192   1.750   1.200   4.354
92099SOL     OW78193   7.721  13.530  13.128
92099SOL    HW178194   7.740  13.597  13.063
92099SOL    HW278195   7.805  13.486  13.141
92100SOL     OW78196  12.604   3.836   2.047
92100SOL    HW178197  12.672   3.772   2.066
92100SOL    HW278198  12.647   3.921   2.057
92101SOL     OW78199  12.638   6.975  13.170
92101SOL    HW178200  12.552   6.934  13.182
92101SOL    HW278201  12.626   7.065  13.198
92102SOL     OW78202   2.595   8.827   9.540
92102SOL    HW178203   2.678   8.873   9.548
92102SOL    HW278204   2.607   8.746   9.590
92103SOL     OW78205  12.428   4.158   7.954
92103SOL    HW178206  12.501   4.181   7.897
92103SOL    HW278207  12.407   4.238   8.001
92104SOL     OW78208   9.046  12.512   8.752
92104SOL    HW178209   9.055  12.474   8.665
92104SOL    HW278210   9.104  12.459   8.807
92105SOL     OW78211  10.791   2.738  14.753
92105SOL    HW178212  10.839   2.788  14.818
92105SOL    HW278213  10.825   2.767  14.669
92106SOL     OW78214  13.098  12.833  13.260
92106SOL    HW178215  13.152  12.895  13.309
92106SOL    HW278216  13.144  12.822  13.177
92107SOL     OW78217   3.246  12.191  11.388
92107SOL    HW178218   3.181  12.232  11.332
92107SOL    HW278219   3.224  12.221  11.477
92108SOL     OW78220   4.268   1.336   3.515
92108SOL    HW178221   4.198   1.334   3.580
92108SOL    HW278222   4.233   1.389   3.443
92109SOL     OW78223  12.967   7.497   5.058
92109SOL    HW178224  13.010   7.417   5.028
92109SOL    HW278225  13.000   7.509   5.147
92110SOL     OW78226   6.457   0.165   6.788
92110SOL    HW178227   6.463   0.230   6.858
92110SOL    HW278228   6.384   0.109   6.813
92111SOL     OW78229  11.979  13.781   6.978
92111SOL    HW178230  12.057  13.770   6.923
92111SOL    HW278231  11.947  13.869   6.957
92112SOL     OW78232   1.670   9.625   2.459
92112SOL    HW178233   1.660   9.613   2.364
92112SOL    HW278234   1.585   9.602   2.496
92113SOL     OW78235  11.675  12.538  10.060
92113SOL    HW178236  11.714  12.510  10.143
92113SOL    HW278237  11.661  12.457  10.012
92114SOL     OW78238   7.000   6.996  11.125
92114SOL    HW178239   6.925   7.007  11.067
92114SOL    HW278240   7.000   7.074  11.180
92115SOL     OW78241  13.244   6.351  11.290
92115SOL    HW178242  13.203   6.286  11.348
92115SOL    HW278243  13.338   6.340  11.303
92116SOL     OW78244  11.542   4.326  10.912
92116SOL    HW178245  11.570   4.389  10.979
92116SOL    HW278246  11.446   4.330  10.915
92117SOL     OW78247   4.126  13.790   8.528
92117SOL    HW178248   4.099  13.790   8.620
92117SOL    HW278249   4.212  13.748   8.528
92118SOL     OW78250  14.493   7.369   5.556
92118SOL    HW178251  14.535   7.306   5.615
92118SOL    HW278252  14.478   7.446   5.610
92119SOL     OW78253   7.329   7.469   3.140
92119SOL    HW178254   7.291   7.388   3.105
92119SOL    HW278255   7.380   7.440   3.216
92120SOL     OW78256  11.895  12.954   3.776
92120SOL    HW178257  11.964  12.892   3.798
92120SOL    HW278258  11.941  13.036   3.757
92121SOL     OW78259  14.223   0.192   7.178
92121SOL    HW178260  14.269   0.204   7.261
92121SOL    HW278261  14.158   0.124   7.197
92122SOL     OW78262   3.771   2.004   7.557
92122SOL    HW178263   3.685   2.010   7.517
92122SOL    HW278264   3.754   1.986   7.650
92123SOL     OW78265   3.602   6.802   3.544
92123SOL    HW178266   3.574   6.855   3.619
92123SOL    HW278267   3.569   6.714   3.563
92124SOL     OW78268   6.772   7.062   2.602
92124SOL    HW178269   6.779   7.011   2.683
92124SOL    HW278270   6.860   7.060   2.565
92125SOL     OW78271   5.243   3.025  11.452
92125SOL    HW178272   5.332   3.028  11.486
92125SOL    HW278273   5.251   2.983  11.366
92126SOL     OW78274   0.967   8.319   1.832
92126SOL    HW178275   0.901   8.282   1.773
92126SOL    HW278276   0.933   8.406   1.853
92127SOL     OW78277   5.617   2.211   9.024
92127SOL    HW178278   5.573   2.185   8.943
92127SOL    HW278279   5.623   2.129   9.074
92128SOL     OW78280  14.054   0.165   2.628
92128SOL    HW178281  14.083   0.109   2.556
92128SOL    HW278282  14.009   0.238   2.585
92129SOL     OW78283  11.313  10.643   6.642
92129SOL    HW178284  11.372  10.575   6.611
92129SOL    HW278285  11.234  10.597   6.669
92130SOL     OW78286  11.286   8.488   2.423
92130SOL    HW178287  11.349   8.467   2.355
92130SOL    HW278288  11.336   8.484   2.505
92131SOL     OW78289   9.467   3.876   2.209
92131SOL    HW178290   9.523   3.952   2.195
92131SOL    HW278291   9.525   3.809   2.245
92132SOL     OW78292  11.742   2.451  12.555
92132SOL    HW178293  11.774   2.476  12.468
92132SOL    HW278294  11.804   2.385  12.586
92133SOL     OW78295   3.915   1.456   8.829
92133SOL    HW178296   3.907   1.369   8.867
92133SOL    HW278297   3.963   1.443   8.748
92134SOL     OW78298   8.577  12.693   0.836
92134SOL    HW178299   8.627  12.699   0.917
92134SOL    HW278300   8.619  12.755   0.777
92135SOL     OW78301  13.938  12.936   2.715
92135SOL    HW178302  13.952  12.935   2.810
92135SOL    HW278303  13.992  13.009   2.684
92136SOL     OW78304   6.987  14.475  10.137
92136SOL    HW178305   6.933  14.532  10.082
92136SOL    HW278306   6.946  14.389  10.130
92137SOL     OW78307   2.336  14.220  14.735
92137SOL    HW178308   2.418  14.268  14.719
92137SOL    HW278309   2.277  14.284  14.774
92138SOL     OW78310   5.768   0.927  13.827
92138SOL    HW178311   5.831   0.933  13.755
92138SOL    HW278312   5.741   1.018  13.843
92139SOL     OW78313  13.773  13.417  14.233
92139SOL    HW178314  13.773  13.503  14.190
92139SOL    HW278315  13.711  13.427  14.305
92140SOL     OW78316  12.376   2.724   0.180
92140SOL    HW178317  12.288   2.710   0.146
92140SOL    HW278318  12.399   2.812   0.151
92141SOL     OW78319   3.747   8.256   5.311
92141SOL    HW178320   3.790   8.244   5.396
92141SOL    HW278321   3.771   8.178   5.261
92142SOL     OW78322   0.937   4.099  10.178
92142SOL    HW178323   0.966   4.189  10.159
92142SOL    HW278324   0.941   4.092  10.273
92143SOL     OW78325  10.736   6.256   1.561
92143SOL    HW178326  10.721   6.268   1.655
92143SOL    HW278327  10.828   6.276   1.549
92144SOL     OW78328  13.360   9.618   8.186
92144SOL    HW178329  13.390   9.692   8.133
92144SOL    HW278330  13.313   9.562   8.124
92145SOL     OW78331   3.139  11.522   8.566
92145SOL    HW178332   3.223  11.528   8.522
92145SOL    HW278333   3.089  11.598   8.535
92146SOL     OW78334  10.615   1.841   7.359
92146SOL    HW178335  10.660   1.863   7.277
92146SOL    HW278336  10.555   1.914   7.374
92147SOL     OW78337   2.231   3.351   4.421
92147SOL    HW178338   2.246   3.372   4.329
92147SOL    HW278339   2.293   3.281   4.441
92148SOL     OW78340   7.620   6.124   4.640
92148SOL    HW178341   7.682   6.136   4.713
92148SOL    HW278342   7.663   6.164   4.565
92149SOL     OW78343  11.618   4.555   1.809
92149SOL    HW178344  11.620   4.545   1.904
92149SOL    HW278345  11.562   4.631   1.794
92150SOL     OW78346   6.746   9.860   5.383
92150SOL    HW178347   6.689   9.796   5.339
92150SOL    HW278348   6.688   9.932   5.407
92151SOL     OW78349   7.883   9.418  11.278
92151SOL    HW178350   7.952   9.420  11.344
92151SOL    HW278351   7.927   9.387  11.199
92152SOL     OW78352  12.118  12.671  13.059
92152SOL    HW178353  12.172  12.592  13.056
92152SOL    HW278354  12.040  12.648  13.008
92153SOL     OW78355   0.660   3.964  14.379
92153SOL    HW178356   0.679   3.922  14.463
92153SOL    HW278357   0.619   4.047  14.402
92154SOL     OW78358   9.006   8.890  12.348
92154SOL    HW178359   8.913   8.898  12.325
92154SOL    HW278360   9.024   8.796  12.343
92155SOL     OW78361  11.750   0.034   8.095
92155SOL    HW178362  11.658   0.007   8.092
92155SOL    HW278363  11.752   0.117   8.046
92156SOL     OW78364   7.169   5.646  14.699
92156SOL    HW178365   7.177   5.730  14.654
92156SOL    HW278366   7.109   5.663  14.771
92157SOL     OW78367  10.697   0.796   2.835
92157SOL    HW178368  10.671   0.767   2.922
92157SOL    HW278369  10.628   0.858   2.809
92158SOL     OW78370   7.741   4.145  10.686
92158SOL    HW178371   7.721   4.141  10.593
92158SOL    HW278372   7.775   4.234  10.700
92159SOL     OW78373   5.691  12.760   3.073
92159SOL    HW178374   5.613  12.797   3.031
92159SOL    HW278375   5.763  12.816   3.044
92160SOL     OW78376   8.714   5.340   8.671
92160SOL    HW178377   8.809   5.335   8.656
92160SOL    HW278378   8.677   5.271   8.615
92161SOL     OW78379   7.101   8.960   0.852
92161SOL    HW178380   7.014   8.935   0.883
92161SOL    HW278381   7.157   8.951   0.930
92162SOL     OW78382   4.931   2.062  12.452
92162SOL    HW178383   5.005   2.028  12.502
92162SOL    HW278384   4.903   2.139  12.501
92163SOL     OW78385   5.548  10.462  13.924
92163SOL    HW178386   5.495  10.420  13.857
92163SOL    HW278387   5.546  10.555  13.901
92164SOL     OW78388   3.941  11.800   6.568
92164SOL    HW178389   3.846  11.801   6.570
92164SOL    HW278390   3.967  11.793   6.660
92165SOL     OW78391   5.120   5.408   4.449
92165SOL    HW178392   5.071   5.472   4.501
92165SOL    HW278393   5.176   5.461   4.392
92166SOL     OW78394   2.648   4.084   1.567
92166SOL    HW178395   2.609   4.170   1.582
92166SOL    HW278396   2.654   4.045   1.654
92167SOL     OW78397  13.994  11.327  13.779
92167SOL    HW178398  13.955  11.398  13.728
92167SOL    HW278399  14.032  11.370  13.855
92168SOL     OW78400  13.303   8.300   0.044
92168SOL    HW178401  13.222   8.251   0.059
92168SOL    HW278402  13.371   8.232   0.040
92169SOL     OW78403  10.983   7.971   5.576
92169SOL    HW178404  10.992   8.063   5.554
92169SOL    HW278405  10.992   7.968   5.671
92170SOL     OW78406   6.478   6.819   9.142
92170SOL    HW178407   6.460   6.910   9.119
92170SOL    HW278408   6.490   6.820   9.237
92171SOL     OW78409   6.260   6.595   7.499
92171SOL    HW178410   6.339   6.646   7.517
92171SOL    HW278411   6.224   6.575   7.585
92172SOL     OW78412   3.605  14.383  13.051
92172SOL    HW178413   3.677  14.369  12.990
92172SOL    HW278414   3.538  14.320  13.023
92173SOL     OW78415   6.731   4.848   3.832
92173SOL    HW178416   6.665   4.840   3.901
92173SOL    HW278417   6.794   4.911   3.867
92174SOL     OW78418   1.029   5.008  12.559
92174SOL    HW178419   1.014   4.942  12.491
92174SOL    HW278420   1.031   4.957  12.640
92175SOL     OW78421   4.699   3.637   6.042
92175SOL    HW178422   4.741   3.723   6.044
92175SOL    HW278423   4.772   3.575   6.050
92176SOL     OW78424   2.981  13.507   6.382
92176SOL    HW178425   2.929  13.532   6.459
92176SOL    HW278426   2.953  13.418   6.362
92177SOL     OW78427  13.921   7.519   3.792
92177SOL    HW178428  13.895   7.472   3.713
92177SOL    HW278429  13.856   7.494   3.857
92178SOL     OW78430   9.950   3.228   0.686
92178SOL    HW178431   9.883   3.291   0.658
92178SOL    HW278432   9.986   3.193   0.605
92179SOL     OW78433   3.371   2.625   4.447
92179SOL    HW178434   3.334   2.713   4.435
92179SOL    HW278435   3.297   2.566   4.439
92180SOL     OW78436  13.119  10.597   3.443
92180SOL    HW178437  13.129  10.606   3.349
92180SOL    HW278438  13.208  10.602   3.477
92181SOL     OW78439   9.273   3.559  10.565
92181SOL    HW178440   9.325   3.579  10.488
92181SOL    HW278441   9.328   3.587  10.639
92182SOL     OW78442   6.866   1.873   4.825
92182SOL    HW178443   6.884   1.966   4.838
92182SOL    HW278444   6.774   1.870   4.797
92183SOL     OW78445  14.534  13.004   3.231
92183SOL    HW178446  14.597  12.932   3.231
92183SOL    HW278447  14.449  12.962   3.223
92184SOL     OW78448   8.838   7.118   8.542
92184SOL    HW178449   8.750   7.138   8.576
92184SOL    HW278450   8.842   7.023   8.539
92185SOL     OW78451  14.353  14.126   8.659
92185SOL    HW178452  14.399  14.210   8.657
92185SOL    HW278453  14.418  14.061   8.636
92186SOL     OW78454  10.562   1.821  10.355
92186SOL    HW178455  10.590   1.909  10.334
92186SOL    HW278456  10.603   1.802  10.440
92187SOL     OW78457  12.303  11.321  12.583
92187SOL    HW178458  12.302  11.382  12.656
92187SOL    HW278459  12.328  11.374  12.507
92188SOL     OW78460  10.583   5.882   0.645
92188SOL    HW178461  10.640   5.958   0.658
92188SOL    HW278462  10.616   5.841   0.565
92189SOL     OW78463   6.245  11.935   7.588
92189SOL    HW178464   6.339  11.917   7.590
92189SOL    HW278465   6.216  11.924   7.679
92190SOL     OW78466   0.193   3.438   1.187
92190SOL    HW178467   0.203   3.460   1.094
92190SOL    HW278468   0.098   3.428   1.199
92191SOL     OW78469   5.904   7.073   7.910
92191SOL    HW178470   5.898   7.002   7.973
92191SOL    HW278471   5.827   7.128   7.928
92192SOL     OW78472  14.010   5.003  13.126
92192SOL    HW178473  14.058   5.010  13.044
92192SOL    HW278474  13.992   4.910  13.136
92193SOL     OW78475  11.234   5.614   1.538
92193SOL    HW178476  11.253   5.617   1.632
92193SOL    HW278477  11.160   5.553   1.530
92194SOL     OW78478  12.260  10.678   0.738
92194SOL    HW178479  12.210  10.726   0.672
92194SOL    HW278480  12.337  10.732   0.754
92195SOL     OW78481   6.869  14.178   1.396
92195SOL    HW178482   6.906  14.247   1.340
92195SOL    HW278483   6.882  14.210   1.485
92196SOL     OW78484   9.237   8.677   0.982
92196SOL    HW178485   9.275   8.663   1.069
92196SOL    HW278486   9.303   8.643   0.922
92197SOL     OW78487   1.884   6.241  11.430
92197SOL    HW178488   1.968   6.278  11.457
92197SOL    HW278489   1.875   6.265  11.338
92198SOL     OW78490   4.679   4.271   5.091
92198SOL    HW178491   4.671   4.295   5.184
92198SOL    HW278492   4.756   4.216   5.086
92199SOL     OW78493   1.195  14.178  11.437
92199SOL    HW178494   1.106  14.203  11.412
92199SOL    HW278495   1.198  14.193  11.531
92200SOL     OW78496   6.207  13.437   0.286
92200SOL    HW178497   6.218  13.510   0.225
92200SOL    HW278498   6.175  13.365   0.231
92201SOL     OW78499   9.322   2.283   2.467
92201SOL    HW178500   9.392   2.220   2.452
92201SOL    HW278501   9.321   2.337   2.389
92202SOL     OW78502   9.421  10.667   6.495
92202SOL    HW178503   9.406  10.657   6.401
92202SOL    HW278504   9.417  10.578   6.529
92203SOL     OW78505   0.638   8.752   9.141
92203SOL    HW178506   0.602   8.833   9.176
92203SOL    HW278507   0.708   8.781   9.081
92204SOL     OW78508  11.251   9.814   5.658
92204SOL    HW178509  11.247   9.908   5.676
92204SOL    HW278510  11.304   9.807   5.579
92205SOL     OW78511  11.519   6.655   2.633
92205SOL    HW178512  11.443   6.620   2.679
92205SOL    HW278513  11.531   6.596   2.558
92206SOL     OW78514   3.870   8.302  10.566
92206SOL    HW178515   3.944   8.363  10.559
92206SOL    HW278516   3.907   8.224  10.608
92207SOL     OW78517   1.927   8.347   8.558
92207SOL    HW178518   1.981   8.423   8.580
92207SOL    HW278519   1.982   8.294   8.500
92208SOL     OW78520   5.637   4.011   3.270
92208SOL    HW178521   5.664   3.981   3.183
92208SOL    HW278522   5.690   3.960   3.330
92209SOL     OW78523   1.004   2.211   1.060
92209SOL    HW178524   1.015   2.161   1.142
92209SOL    HW278525   1.091   2.211   1.021
92210SOL     OW78526  11.830   6.135   9.771
92210SOL    HW178527  11.794   6.193   9.838
92210SOL    HW278528  11.806   6.047   9.799
92211SOL     OW78529   5.064  11.896  11.667
92211SOL    HW178530   5.159  11.902  11.657
92211SOL    HW278531   5.034  11.862  11.583
92212SOL     OW78532   1.216   2.851   2.669
92212SOL    HW178533   1.165   2.878   2.746
92212SOL    HW278534   1.176   2.899   2.596
92213SOL     OW78535   9.076   1.949  13.524
92213SOL    HW178536   8.988   1.916  13.508
92213SOL    HW278537   9.072   2.041  13.497
92214SOL     OW78538   5.751  10.045   1.333
92214SOL    HW178539   5.781  10.022   1.421
92214SOL    HW278540   5.686  10.114   1.347
92215SOL     OW78541   6.641   4.226  14.348
92215SOL    HW178542   6.598   4.311  14.362
92215SOL    HW278543   6.705   4.243  14.279
92216SOL     OW78544  11.649   5.312   7.787
92216SOL    HW178545  11.568   5.353   7.815
92216SOL    HW278546  11.631   5.278   7.700
92217SOL     OW78547   1.384   3.121   4.780
92217SOL    HW178548   1.428   3.037   4.768
92217SOL    HW278549   1.376   3.158   4.692
92218SOL     OW78550   1.620  14.520  11.375
92218SOL    HW178551   1.530  14.486  11.374
92218SOL    HW278552   1.673  14.449  11.409
92219SOL     OW78553   0.881   7.759   0.694
92219SOL    HW178554   0.841   7.815   0.627
92219SOL    HW278555   0.975   7.774   0.685
92220SOL     OW78556   1.255  13.099   4.064
92220SOL    HW178557   1.206  13.031   4.110
92220SOL    HW278558   1.318  13.130   4.129
92221SOL     OW78559   6.496  14.493  12.621
92221SOL    HW178560   6.404  14.469  12.633
92221SOL    HW278561   6.510  14.487  12.526
92222SOL     OW78562   3.395   5.359   8.755
92222SOL    HW178563   3.380   5.425   8.687
92222SOL    HW278564   3.479   5.319   8.733
92223SOL     OW78565   0.881  11.713   8.589
92223SOL    HW178566   0.921  11.629   8.611
92223SOL    HW278567   0.814  11.692   8.524
92224SOL     OW78568   7.526   3.481  11.069
92224SOL    HW178569   7.468   3.410  11.041
92224SOL    HW278570   7.571   3.447  11.147
92225SOL     OW78571   8.326   4.519  12.093
92225SOL    HW178572   8.310   4.431  12.060
92225SOL    HW278573   8.297   4.577  12.023
92226SOL     OW78574  14.615   1.176   6.801
92226SOL    HW178575  14.525   1.192   6.830
92226SOL    HW278576  14.646   1.106   6.859
92227SOL     OW78577   4.532   6.252   4.014
92227SOL    HW178578   4.558   6.330   3.964
92227SOL    HW278579   4.560   6.272   4.104
92228SOL     OW78580   8.546   2.034   3.570
92228SOL    HW178581   8.580   2.116   3.535
92228SOL    HW278582   8.539   2.050   3.664
92229SOL     OW78583  11.075   0.225   4.220
92229SOL    HW178584  11.157   0.220   4.268
92229SOL    HW278585  11.016   0.273   4.278
92230SOL     OW78586   0.053   8.357   8.557
92230SOL    HW178587   0.137   8.362   8.603
92230SOL    HW278588   0.071   8.392   8.470
92231SOL     OW78589   6.376  12.210   1.503
92231SOL    HW178590   6.366  12.303   1.521
92231SOL    HW278591   6.315  12.166   1.563
92232SOL     OW78592  11.277  10.458   0.859
92232SOL    HW178593  11.199  10.512   0.842
92232SOL    HW278594  11.242  10.378   0.900
92233SOL     OW78595   1.227  11.524   3.161
92233SOL    HW178596   1.133  11.541   3.154
92233SOL    HW278597   1.244  11.455   3.097
92234SOL     OW78598   7.630   8.375   7.069
92234SOL    HW178599   7.720   8.385   7.099
92234SOL    HW278600   7.598   8.297   7.115
92235SOL     OW78601   4.357  11.235   0.517
92235SOL    HW178602   4.303  11.294   0.465
92235SOL    HW278603   4.307  11.154   0.521
92236SOL     OW78604   9.948   5.533  13.284
92236SOL    HW178605   9.901   5.469  13.338
92236SOL    HW278606  10.003   5.480  13.226
92237SOL     OW78607   9.559   3.629  11.733
92237SOL    HW178608   9.648   3.618  11.768
92237SOL    HW278609   9.571   3.688  11.658
92238SOL     OW78610  13.767  10.812   7.815
92238SOL    HW178611  13.679  10.797   7.781
92238SOL    HW278612  13.758  10.798   7.910
92239SOL     OW78613   7.396  14.091   6.304
92239SOL    HW178614   7.338  14.134   6.241
92239SOL    HW278615   7.341  14.077   6.381
92240SOL     OW78616   5.079   5.368   3.134
92240SOL    HW178617   5.051   5.302   3.070
92240SOL    HW278618   5.162   5.334   3.169
92241SOL     OW78619   2.748  10.201   2.177
92241SOL    HW178620   2.680  10.137   2.156
92241SOL    HW278621   2.812  10.152   2.229
92242SOL     OW78622   2.401  11.788  11.866
92242SOL    HW178623   2.313  11.825  11.865
92242SOL    HW278624   2.419  11.768  11.774
92243SOL     OW78625   5.734   0.327   5.615
92243SOL    HW178626   5.767   0.265   5.681
92243SOL    HW278627   5.640   0.312   5.612
92244SOL     OW78628   2.824   2.589   8.561
92244SOL    HW178629   2.753   2.606   8.622
92244SOL    HW278630   2.903   2.614   8.609
92245SOL     OW78631  14.345  10.223   3.839
92245SOL    HW178632  14.356  10.140   3.884
92245SOL    HW278633  14.301  10.200   3.756
92246SOL     OW78634   5.101  12.586   0.797
92246SOL    HW178635   5.133  12.574   0.887
92246SOL    HW278636   5.017  12.538   0.796
92247SOL     OW78637   1.044  12.308  11.259
92247SOL    HW178638   1.056  12.228  11.310
92247SOL    HW278639   0.957  12.339  11.284
92248SOL     OW78640   0.113   1.973   0.191
92248SOL    HW178641   0.153   1.902   0.240
92248SOL    HW278642   0.023   1.944   0.174
92249SOL     OW78643  12.256   6.042   1.257
92249SOL    HW178644  12.315   6.004   1.192
92249SOL    HW278645  12.231   6.127   1.220
92250SOL     OW78646   4.606   7.792  14.756
92250SOL    HW178647   4.577   7.874  14.716
92250SOL    HW278648   4.530   7.735  14.751
92251SOL     OW78649   6.663  10.435  14.237
92251SOL    HW178650   6.707  10.516  14.263
92251SOL    HW278651   6.734  10.371  14.230
92252SOL     OW78652   0.205   5.402  11.025
92252SOL    HW178653   0.279   5.381  11.082
92252SOL    HW278654   0.131   5.415  11.084
92253SOL     OW78655   8.423  12.417   5.309
92253SOL    HW178656   8.427  12.513   5.310
92253SOL    HW278657   8.490  12.391   5.245
92254SOL     OW78658   7.341   9.847  12.605
92254SOL    HW178659   7.355   9.808  12.691
92254SOL    HW278660   7.348   9.941  12.620
92255SOL     OW78661   0.233  12.103   9.057
92255SOL    HW178662   0.212  12.064   8.972
92255SOL    HW278663   0.300  12.168   9.038
92256SOL     OW78664   8.037   8.086   7.673
92256SOL    HW178665   8.065   8.001   7.706
92256SOL    HW278666   8.111   8.117   7.621
92257SOL     OW78667   3.475   8.790  13.670
92257SOL    HW178668   3.484   8.699  13.640
92257SOL    HW278669   3.463   8.782  13.764
92258SOL     OW78670   5.141   4.457   6.608
92258SOL    HW178671   5.153   4.532   6.666
92258SOL    HW278672   5.202   4.472   6.536
92259SOL     OW78673  14.008   6.577   1.312
92259SOL    HW178674  13.981   6.506   1.254
92259SOL    HW278675  14.098   6.554   1.337
92260SOL     OW78676   4.348   5.716   0.953
92260SOL    HW178677   4.420   5.654   0.945
92260SOL    HW278678   4.283   5.671   1.006
92261SOL     OW78679   4.908  12.960   2.867
92261SOL    HW178680   4.854  13.033   2.898
92261SOL    HW278681   4.921  12.906   2.945
92262SOL     OW78682  13.942  12.807   5.091
92262SOL    HW178683  13.896  12.885   5.122
92262SOL    HW278684  14.034  12.824   5.112
92263SOL     OW78685  13.575   0.961   0.230
92263SOL    HW178686  13.570   1.017   0.308
92263SOL    HW278687  13.502   0.900   0.241
92264SOL     OW78688   4.984   5.813   1.120
92264SOL    HW178689   5.061   5.761   1.143
92264SOL    HW278690   4.955   5.777   1.036
92265SOL     OW78691   9.017   7.016   2.177
92265SOL    HW178692   9.006   7.108   2.153
92265SOL    HW278693   9.104   7.012   2.217
92266SOL     OW78694  13.274   7.925   6.403
92266SOL    HW178695  13.273   7.834   6.372
92266SOL    HW278696  13.353   7.963   6.364
92267SOL     OW78697   9.448  14.858  10.462
92267SOL    HW178698   9.530   0.036  10.469
92267SOL    HW278699   9.471  14.767  10.480
92268SOL     OW78700   4.791   7.414   1.860
92268SOL    HW178701   4.834   7.480   1.806
92268SOL    HW278702   4.701   7.445   1.868
92269SOL     OW78703   2.382   4.042   6.285
92269SOL    HW178704   2.387   3.988   6.364
92269SOL    HW278705   2.349   3.983   6.217
92270SOL     OW78706   8.311  11.984  13.023
92270SOL    HW178707   8.371  11.972  12.950
92270SOL    HW278708   8.363  12.032  13.089
92271SOL     OW78709  12.731   8.806  10.424
92271SOL    HW178710  12.704   8.796  10.516
92271SOL    HW278711  12.802   8.742  10.413
92272SOL     OW78712  11.879   7.180  10.302
92272SOL    HW178713  11.845   7.114  10.364
92272SOL    HW278714  11.974   7.168  10.304
92273SOL     OW78715   1.658   5.329   0.732
92273SOL    HW178716   1.659   5.301   0.824
92273SOL    HW278717   1.598   5.269   0.689
92274SOL     OW78718  11.467  13.701   2.217
92274SOL    HW178719  11.519  13.781   2.224
92274SOL    HW278720  11.377  13.729   2.235
92275SOL     OW78721   0.924  13.475   6.064
92275SOL    HW178722   0.887  13.552   6.021
92275SOL    HW278723   1.015  13.473   6.037
92276SOL     OW78724  10.246  13.341   7.700
92276SOL    HW178725  10.283  13.419   7.740
92276SOL    HW278726  10.322  13.287   7.677
92277SOL     OW78727  10.386  12.655   0.925
92277SOL    HW178728  10.474  12.645   0.889
92277SOL    HW278729  10.330  12.668   0.848
92278SOL     OW78730  11.345  12.931   3.910
92278SOL    HW178731  11.282  12.919   3.840
92278SOL    HW278732  11.431  12.927   3.867
92279SOL     OW78733   0.665   1.288   4.821
92279SOL    HW178734   0.608   1.358   4.787
92279SOL    HW278735   0.673   1.226   4.749
92280SOL     OW78736  14.643   9.432   9.218
92280SOL    HW178737  14.607   9.438   9.129
92280SOL    HW278738  14.669   9.340   9.227
92281SOL     OW78739  14.824   3.068   7.398
92281SOL    HW178740   0.010   2.997   7.366
92281SOL    HW278741  14.761   3.082   7.328
92282SOL     OW78742   7.178   0.562   6.431
92282SOL    HW178743   7.235   0.615   6.376
92282SOL    HW278744   7.237   0.521   6.494
92283SOL     OW78745  11.058   4.090   3.763
92283SOL    HW178746  11.102   4.009   3.738
92283SOL    HW278747  11.115   4.159   3.730
92284SOL     OW78748   9.701  12.688  12.977
92284SOL    HW178749   9.761  12.625  12.935
92284SOL    HW278750   9.674  12.746  12.906
92285SOL     OW78751   1.241   1.907   1.622
92285SOL    HW178752   1.229   1.870   1.534
92285SOL    HW278753   1.325   1.873   1.651
92286SOL     OW78754  12.499  13.377   3.640
92286SOL    HW178755  12.581  13.398   3.684
92286SOL    HW278756  12.468  13.461   3.606
92287SOL     OW78757   2.105   5.213   7.003
92287SOL    HW178758   2.163   5.188   6.931
92287SOL    HW278759   2.025   5.163   6.989
92288SOL     OW78760  11.494   5.528   6.732
92288SOL    HW178761  11.559   5.584   6.775
92288SOL    HW278762  11.429   5.590   6.698
92289SOL     OW78763   8.842   0.496   9.180
92289SOL    HW178764   8.894   0.486   9.259
92289SOL    HW278765   8.775   0.561   9.202
92290SOL     OW78766  12.623   7.493   1.895
92290SOL    HW178767  12.626   7.587   1.876
92290SOL    HW278768  12.714   7.470   1.913
92291SOL     OW78769  11.641  13.369   4.695
92291SOL    HW178770  11.687  13.452   4.701
92291SOL    HW278771  11.610  13.352   4.784
92292SOL     OW78772   1.944   8.541  12.952
92292SOL    HW178773   1.932   8.598  12.876
92292SOL    HW278774   1.939   8.452  12.916
92293SOL     OW78775  13.562  12.590  12.056
92293SOL    HW178776  13.547  12.663  12.116
92293SOL    HW278777  13.516  12.516  12.096
92294SOL     OW78778  13.202   0.925   8.371
92294SOL    HW178779  13.200   0.973   8.288
92294SOL    HW278780  13.126   0.957   8.419
92295SOL     OW78781   2.342   8.863  13.146
92295SOL    HW178782   2.366   8.900  13.061
92295SOL    HW278783   2.258   8.821  13.131
92296SOL     OW78784   1.260   0.265  14.177
92296SOL    HW178785   1.271   0.291  14.086
92296SOL    HW278786   1.170   0.233  14.182
92297SOL     OW78787   4.372   4.568  13.171
92297SOL    HW178788   4.422   4.646  13.196
92297SOL    HW278789   4.388   4.506  13.243
92298SOL     OW78790   6.056   0.347   1.641
92298SOL    HW178791   6.055   0.440   1.621
92298SOL    HW278792   6.020   0.305   1.563
92299SOL     OW78793  10.535  10.812   2.791
92299SOL    HW178794  10.473  10.814   2.864
92299SOL    HW278795  10.603  10.876   2.815
92300SOL     OW78796   7.996  12.020  12.714
92300SOL    HW178797   8.071  11.999  12.659
92300SOL    HW278798   7.982  11.940  12.766
92301SOL     OW78799   0.105  14.387  12.581
92301SOL    HW178800   0.044  14.433  12.523
92301SOL    HW278801   0.051  14.326  12.630
92302SOL     OW78802   6.007   0.525   9.486
92302SOL    HW178803   5.964   0.608   9.506
92302SOL    HW278804   6.094   0.549   9.456
92303SOL     OW78805  11.479   6.750  13.536
92303SOL    HW178806  11.565   6.756  13.494
92303SOL    HW278807  11.417   6.746  13.463
92304SOL     OW78808   4.810   6.481  10.375
92304SOL    HW178809   4.782   6.402  10.328
92304SOL    HW278810   4.890   6.508  10.330
92305SOL     OW78811  13.177   1.185  13.405
92305SOL    HW178812  13.203   1.264  13.452
92305SOL    HW278813  13.209   1.113  13.459
92306SOL     OW78814   3.414   0.557   9.526
92306SOL    HW178815   3.436   0.565   9.619
92306SOL    HW278816   3.334   0.505   9.524
92307SOL     OW78817  12.326   3.346   2.294
92307SOL    HW178818  12.409   3.333   2.248
92307SOL    HW278819  12.291   3.427   2.258
92308SOL     OW78820  11.771   4.511   7.888
92308SOL    HW178821  11.743   4.422   7.869
92308SOL    HW278822  11.792   4.549   7.803
92309SOL     OW78823   0.540   7.238   3.809
92309SOL    HW178824   0.610   7.202   3.755
92309SOL    HW278825   0.578   7.315   3.851
92310SOL     OW78826  14.180  13.237  12.929
92310SOL    HW178827  14.215  13.148  12.922
92310SOL    HW278828  14.124  13.234  13.006
92311SOL     OW78829   1.858  12.643   8.916
92311SOL    HW178830   1.858  12.587   8.993
92311SOL    HW278831   1.931  12.612   8.863
92312SOL     OW78832   9.042   6.051  11.648
92312SOL    HW178833   9.093   6.130  11.668
92312SOL    HW278834   9.076   5.985  11.708
92313SOL     OW78835   6.211   0.233   5.148
92313SOL    HW178836   6.157   0.154   5.146
92313SOL    HW278837   6.172   0.287   5.217
92314SOL     OW78838   7.792   2.892   3.663
92314SOL    HW178839   7.885   2.912   3.653
92314SOL    HW278840   7.779   2.812   3.612
92315SOL     OW78841  10.620  11.024   2.281
92315SOL    HW178842  10.666  11.074   2.213
92315SOL    HW278843  10.535  11.002   2.241
92316SOL     OW78844   5.342   0.689  11.245
92316SOL    HW178845   5.259   0.644  11.261
92316SOL    HW278846   5.407   0.618  11.236
92317SOL     OW78847   2.318   2.152   6.081
92317SOL    HW178848   2.300   2.069   6.037
92317SOL    HW278849   2.354   2.209   6.013
92318SOL     OW78850   0.392   8.599  10.496
92318SOL    HW178851   0.340   8.549  10.433
92318SOL    HW278852   0.344   8.592  10.578
92319SOL     OW78853   9.863   1.596   6.318
92319SOL    HW178854   9.951   1.609   6.282
92319SOL    HW278855   9.815   1.553   6.247
92320SOL     OW78856   9.299   1.247   2.432
92320SOL    HW178857   9.365   1.184   2.461
92320SOL    HW278858   9.217   1.215   2.470
92321SOL     OW78859   7.920   6.606   6.807
92321SOL    HW178860   7.869   6.548   6.751
92321SOL    HW278861   7.977   6.654   6.747
92322SOL     OW78862   3.105   0.852   1.457
92322SOL    HW178863   3.017   0.883   1.437
92322SOL    HW278864   3.142   0.827   1.373
92323SOL     OW78865  12.866  11.127  11.247
92323SOL    HW178866  12.792  11.115  11.307
92323SOL    HW278867  12.829  11.176  11.173
92324SOL     OW78868   1.757  10.842  11.945
92324SOL    HW178869   1.841  10.825  11.901
92324SOL    HW278870   1.768  10.802  12.032
92325SOL     OW78871   7.372   7.970   6.315
92325SOL    HW178872   7.357   7.987   6.409
92325SOL    HW278873   7.295   8.008   6.272
92326SOL     OW78874  12.801   0.523   3.648
92326SOL    HW178875  12.763   0.555   3.566
92326SOL    HW278876  12.799   0.599   3.707
92327SOL     OW78877   3.188   7.253   7.853
92327SOL    HW178878   3.107   7.304   7.851
92327SOL    HW278879   3.245   7.300   7.913
92328SOL     OW78880   4.155   6.387  12.887
92328SOL    HW178881   4.120   6.465  12.844
92328SOL    HW278882   4.088   6.321  12.874
92329SOL     OW78883   5.069   2.760  13.359
92329SOL    HW178884   5.058   2.668  13.333
92329SOL    HW278885   5.068   2.808  13.276
92330SOL     OW78886   5.873  11.402   5.282
92330SOL    HW178887   5.955  11.450   5.282
92330SOL    HW278888   5.844  11.403   5.190
92331SOL     OW78889  13.759  13.790   3.914
92331SOL    HW178890  13.761  13.815   4.007
92331SOL    HW278891  13.787  13.698   3.914
92332SOL     OW78892   8.369  11.459  10.555
92332SOL    HW178893   8.461  11.436  10.542
92332SOL    HW278894   8.370  11.526  10.623
92333SOL     OW78895  10.137   8.752   9.338
92333SOL    HW178896  10.220   8.720   9.303
92333SOL    HW278897  10.071   8.722   9.275
92334SOL     OW78898   6.333   0.747   3.585
92334SOL    HW178899   6.429   0.742   3.589
92334SOL    HW278900   6.305   0.753   3.676
92335SOL     OW78901   5.638   1.958   7.367
92335SOL    HW178902   5.622   2.051   7.350
92335SOL    HW278903   5.554   1.916   7.350
92336SOL     OW78904   2.318  12.888   2.091
92336SOL    HW178905   2.371  12.826   2.141
92336SOL    HW278906   2.236  12.895   2.141
92337SOL     OW78907   0.270   0.269   6.286
92337SOL    HW178908   0.251   0.258   6.193
92337SOL    HW278909   0.185   0.292   6.325
92338SOL     OW78910   0.034  10.540   0.645
92338SOL    HW178911  14.853  10.533   0.726
92338SOL    HW278912  14.857  10.485   0.583
92339SOL     OW78913   4.333   9.811  13.387
92339SOL    HW178914   4.390   9.868  13.439
92339SOL    HW278915   4.257   9.865  13.368
92340SOL     OW78916   9.966   9.458  12.143
92340SOL    HW178917   9.987   9.545  12.178
92340SOL    HW278918   9.957   9.472  12.049
92341SOL     OW78919   7.285   9.944   3.956
92341SOL    HW178920   7.326  10.030   3.955
92341SOL    HW278921   7.355   9.884   3.980
92342SOL     OW78922   6.113   2.815   4.041
92342SOL    HW178923   6.153   2.755   4.104
92342SOL    HW278924   6.027   2.776   4.023
92343SOL     OW78925   7.804  11.392   4.692
92343SOL    HW178926   7.710  11.380   4.678
92343SOL    HW278927   7.823  11.478   4.655
92344SOL     OW78928   1.693   7.482   5.855
92344SOL    HW178929   1.674   7.457   5.945
92344SOL    HW278930   1.628   7.548   5.834
92345SOL     OW78931  10.173  10.268   1.057
92345SOL    HW178932  10.264  10.251   1.031
92345SOL    HW278933  10.129  10.185   1.043
92346SOL     OW78934  13.240   1.128   8.160
92346SOL    HW178935  13.216   1.220   8.175
92346SOL    HW278936  13.326   1.119   8.199
92347SOL     OW78937   1.606  10.236   5.838
92347SOL    HW178938   1.683  10.233   5.895
92347SOL    HW278939   1.612  10.156   5.785
92348SOL     OW78940   2.578   3.365   2.149
92348SOL    HW178941   2.600   3.366   2.242
92348SOL    HW278942   2.634   3.296   2.112
92349SOL     OW78943   2.416   5.994   5.857
92349SOL    HW178944   2.324   6.006   5.837
92349SOL    HW278945   2.450   6.083   5.868
92350SOL     OW78946  10.881   9.095   6.265
92350SOL    HW178947  10.795   9.094   6.223
92350SOL    HW278948  10.903   9.003   6.279
92351SOL     OW78949  14.763   1.310   2.625
92351SOL    HW178950  14.678   1.354   2.632
92351SOL    HW278951  14.818   1.354   2.690
92352SOL     OW78952   3.542   4.453   5.370
92352SOL    HW178953   3.480   4.380   5.369
92352SOL    HW278954   3.490   4.529   5.343
92353SOL     OW78955   3.965   0.456   0.062
92353SOL    HW178956   3.901   0.524   0.082
92353SOL    HW278957   3.935   0.418  14.849
92354SOL     OW78958  13.927   5.079   0.869
92354SOL    HW178959  14.018   5.089   0.841
92354SOL    HW278960  13.876   5.117   0.797
92355SOL     OW78961   5.296   1.780   3.285
92355SOL    HW178962   5.344   1.805   3.206
92355SOL    HW278963   5.214   1.829   3.279
92356SOL     OW78964  13.672  10.658   1.437
92356SOL    HW178965  13.580  10.676   1.421
92356SOL    HW278966  13.674  10.614   1.521
92357SOL     OW78967   4.681   8.541  12.152
92357SOL    HW178968   4.695   8.615  12.211
92357SOL    HW278969   4.694   8.576  12.064
92358SOL     OW78970   3.781   1.916  11.531
92358SOL    HW178971   3.769   1.937  11.624
92358SOL    HW278972   3.693   1.891  11.501
92359SOL     OW78973  10.696   7.609   0.903
92359SOL    HW178974  10.769   7.570   0.854
92359SOL    HW278975  10.641   7.649   0.835
92360SOL     OW78976   6.654  13.548   1.535
92360SOL    HW178977   6.605  13.608   1.478
92360SOL    HW278978   6.643  13.585   1.622
92361SOL     OW78979   1.020   9.303   5.286
92361SOL    HW178980   1.109   9.331   5.264
92361SOL    HW278981   0.980   9.379   5.328
92362SOL     OW78982  12.900   3.354   6.257
92362SOL    HW178983  12.988   3.376   6.228
92362SOL    HW278984  12.876   3.426   6.316
92363SOL     OW78985   5.351  13.119  10.401
92363SOL    HW178986   5.398  13.188  10.447
92363SOL    HW278987   5.295  13.080  10.468
92364SOL     OW78988   1.224  11.003   7.455
92364SOL    HW178989   1.241  11.072   7.390
92364SOL    HW278990   1.146  11.034   7.501
92365SOL     OW78991  11.401  11.692   1.410
92365SOL    HW178992  11.445  11.776   1.404
92365SOL    HW278993  11.326  11.700   1.351
92366SOL     OW78994  13.734   5.786   2.973
92366SOL    HW178995  13.725   5.860   3.034
92366SOL    HW278996  13.668   5.804   2.905
92367SOL     OW78997   7.862  10.820   8.175
92367SOL    HW178998   7.931  10.810   8.241
92367SOL    HW278999   7.867  10.912   8.150
92368SOL     OW79000   6.715   2.124  11.044
92368SOL    HW179001   6.719   2.054  11.109
92368SOL    HW279002   6.643   2.099  10.986
92369SOL     OW79003  11.254  10.662  11.862
92369SOL    HW179004  11.167  10.640  11.895
92369SOL    HW279005  11.237  10.706  11.779
92370SOL     OW79006   3.729   6.006   9.250
92370SOL    HW179007   3.660   6.064   9.217
92370SOL    HW279008   3.784   6.062   9.304
92371SOL     OW79009   9.588   0.537  11.471
92371SOL    HW179010   9.588   0.487  11.553
92371SOL    HW279011   9.495   0.554  11.454
92372SOL     OW79012  10.762  10.335   9.345
92372SOL    HW179013  10.767  10.354   9.438
92372SOL    HW279014  10.673  10.303   9.331
92373SOL     OW79015   6.259   1.534   9.532
92373SOL    HW179016   6.235   1.451   9.572
92373SOL    HW279017   6.345   1.555   9.570
92374SOL     OW79018   1.780  11.824   4.146
92374SOL    HW179019   1.834  11.800   4.221
92374SOL    HW279020   1.840  11.868   4.086
92375SOL     OW79021  13.276   1.397   0.000
92375SOL    HW179022  13.334   1.349  14.811
92375SOL    HW279023  13.328   1.411   0.080
92376SOL     OW79024   6.691  13.815  10.920
92376SOL    HW179025   6.664  13.779  10.835
92376SOL    HW279026   6.727  13.740  10.967
92377SOL     OW79027   8.839   8.684   9.165
92377SOL    HW179028   8.744   8.696   9.165
92377SOL    HW279029   8.852   8.596   9.201
92378SOL     OW79030   4.492   5.164   1.791
92378SOL    HW179031   4.421   5.225   1.770
92378SOL    HW279032   4.454   5.077   1.777
92379SOL     OW79033   7.756   6.289   4.460
92379SOL    HW179034   7.849   6.306   4.468
92379SOL    HW279035   7.731   6.330   4.376
92380SOL     OW79036   2.360  11.922  14.581
92380SOL    HW179037   2.275  11.927  14.624
92380SOL    HW279038   2.346  11.867  14.504
92381SOL     OW79039   4.360  10.662   9.735
92381SOL    HW179040   4.314  10.743   9.756
92381SOL    HW279041   4.312  10.626   9.660
92382SOL     OW79042   1.149  14.803  11.899
92382SOL    HW179043   1.164  14.743  11.972
92382SOL    HW279044   1.090  14.755  11.840
92383SOL     OW79045   5.751   8.607   8.519
92383SOL    HW179046   5.749   8.537   8.453
92383SOL    HW279047   5.697   8.677   8.481
92384SOL     OW79048   8.497   0.393   9.644
92384SOL    HW179049   8.498   0.298   9.658
92384SOL    HW279050   8.512   0.403   9.550
92385SOL     OW79051  14.659  11.585   8.486
92385SOL    HW179052  14.600  11.580   8.562
92385SOL    HW279053  14.617  11.647   8.427
92386SOL     OW79054   7.676  12.008   5.412
92386SOL    HW179055   7.714  11.935   5.361
92386SOL    HW279056   7.606  11.967   5.463
92387SOL     OW79057   4.387  13.610  13.692
92387SOL    HW179058   4.414  13.543  13.629
92387SOL    HW279059   4.299  13.585  13.718
92388SOL     OW79060  14.095  11.706   8.571
92388SOL    HW179061  14.053  11.792   8.579
92388SOL    HW279062  14.048  11.663   8.498
92389SOL     OW79063  10.864   9.478   5.045
92389SOL    HW179064  10.800   9.544   5.018
92389SOL    HW279065  10.881   9.497   5.137
92390SOL     OW79066   5.309   1.772   4.314
92390SOL    HW179067   5.379   1.766   4.248
92390SOL    HW279068   5.276   1.683   4.323
92391SOL     OW79069   4.681  11.143  13.726
92391SOL    HW179070   4.767  11.123  13.688
92391SOL    HW279071   4.618  11.120  13.658
92392SOL     OW79072  12.866  13.081   6.340
92392SOL    HW179073  12.925  13.075   6.265
92392SOL    HW279074  12.780  13.098   6.302
92393SOL     OW79075  14.605   1.946  11.783
92393SOL    HW179076  14.657   2.004  11.838
92393SOL    HW279077  14.541   2.003  11.741
92394SOL     OW79078   2.988  11.032   3.459
92394SOL    HW179079   3.080  11.032   3.483
92394SOL    HW279080   2.975  11.115   3.412
92395SOL     OW79081  11.094  14.099   8.674
92395SOL    HW179082  11.052  14.019   8.707
92395SOL    HW279083  11.163  14.068   8.616
92396SOL     OW79084   3.110   8.459   6.413
92396SOL    HW179085   3.121   8.364   6.417
92396SOL    HW279086   3.179   8.494   6.468
92397SOL     OW79087   0.070   5.894   5.192
92397SOL    HW179088   0.116   5.930   5.116
92397SOL    HW279089   0.118   5.927   5.268
92398SOL     OW79090  10.785  14.667   1.591
92398SOL    HW179091  10.821  14.691   1.676
92398SOL    HW279092  10.858  14.626   1.545
92399SOL     OW79093  14.225  13.637  10.799
92399SOL    HW179094  14.300  13.595  10.757
92399SOL    HW279095  14.182  13.686  10.728
92400SOL     OW79096  14.293   4.215   6.081
92400SOL    HW179097  14.324   4.279   6.017
92400SOL    HW279098  14.206   4.246   6.106
92401SOL     OW79099  12.072  12.086  13.584
92401SOL    HW179100  12.100  12.178  13.583
92401SOL    HW279101  11.982  12.088  13.552
92402SOL     OW79102  13.737   5.350   5.050
92402SOL    HW179103  13.813   5.330   4.995
92402SOL    HW279104  13.723   5.270   5.100
92403SOL     OW79105   5.044   2.255   8.057
92403SOL    HW179106   5.097   2.331   8.035
92403SOL    HW279107   5.030   2.262   8.152
92404SOL     OW79108  12.925   7.288  12.585
92404SOL    HW179109  12.888   7.286  12.673
92404SOL    HW279110  12.988   7.215  12.583
92405SOL     OW79111   2.969   2.128   4.894
92405SOL    HW179112   2.949   2.213   4.854
92405SOL    HW279113   2.971   2.145   4.988
92406SOL     OW79114   1.252   3.652  10.313
92406SOL    HW179115   1.199   3.627  10.389
92406SOL    HW279116   1.289   3.570  10.282
92407SOL     OW79117   3.340   9.567   9.679
92407SOL    HW179118   3.333   9.639   9.741
92407SOL    HW279119   3.422   9.523   9.701
92408SOL     OW79120   3.723   6.431  13.762
92408SOL    HW179121   3.790   6.400  13.702
92408SOL    HW279122   3.676   6.352  13.788
92409SOL     OW79123   4.750   3.956   6.945
92409SOL    HW179124   4.691   3.973   7.019
92409SOL    HW279125   4.832   3.997   6.971
92410SOL     OW79126  11.426   7.262   1.287
92410SOL    HW179127  11.410   7.282   1.195
92410SOL    HW279128  11.487   7.330   1.317
92411SOL     OW79129   6.516   5.785  13.930
92411SOL    HW179130   6.562   5.719  13.982
92411SOL    HW279131   6.564   5.866  13.946
92412SOL     OW79132  14.121   0.024   2.387
92412SOL    HW179133  14.211   0.052   2.369
92412SOL    HW279134  14.071   0.053   2.311
92413SOL     OW79135  12.986   3.152  11.241
92413SOL    HW179136  12.994   3.085  11.309
92413SOL    HW279137  13.020   3.111  11.162
92414SOL     OW79138   3.019   0.095   9.245
92414SOL    HW179139   2.952   0.075   9.311
92414SOL    HW279140   3.073   0.162   9.286
92415SOL     OW79141   3.758   6.659  14.465
92415SOL    HW179142   3.791   6.573  14.437
92415SOL    HW279143   3.836   6.707  14.492
92416SOL     OW79144  13.953  14.669  10.999
92416SOL    HW179145  14.025  14.726  11.023
92416SOL    HW279146  13.983  14.624  10.920
92417SOL     OW79147   3.341   3.436   6.061
92417SOL    HW179148   3.340   3.480   5.976
92417SOL    HW279149   3.401   3.362   6.048
92418SOL     OW79150  13.520   7.722  14.369
92418SOL    HW179151  13.443   7.740  14.316
92418SOL    HW279152  13.582   7.791  14.345
92419SOL     OW79153   7.605   2.541   4.446
92419SOL    HW179154   7.614   2.630   4.411
92419SOL    HW279155   7.653   2.486   4.383
92420SOL     OW79156   1.038   4.069   5.371
92420SOL    HW179157   1.026   4.134   5.301
92420SOL    HW279158   0.980   4.099   5.441
92421SOL     OW79159   7.157   3.120  10.146
92421SOL    HW179160   7.139   3.053  10.079
92421SOL    HW279161   7.182   3.197  10.095
92422SOL     OW79162  12.937   9.855   3.261
92422SOL    HW179163  12.988   9.780   3.292
92422SOL    HW279164  12.858   9.854   3.314
92423SOL     OW79165   9.968  11.062  12.653
92423SOL    HW179166  10.024  11.039  12.579
92423SOL    HW279167   9.989  10.998  12.720
92424SOL     OW79168   9.650   6.424   8.122
92424SOL    HW179169   9.696   6.485   8.065
92424SOL    HW279170   9.579   6.389   8.068
92425SOL     OW79171  11.317  11.683   8.094
92425SOL    HW179172  11.288  11.639   8.014
92425SOL    HW279173  11.382  11.623   8.132
92426SOL     OW79174   3.858  12.853  11.633
92426SOL    HW179175   3.771  12.870  11.668
92426SOL    HW279176   3.843  12.790  11.563
92427SOL     OW79177   2.553  14.300   0.708
92427SOL    HW179178   2.499  14.274   0.634
92427SOL    HW279179   2.503  14.274   0.785
92428SOL     OW79180  13.882   4.282   1.685
92428SOL    HW179181  13.843   4.285   1.598
92428SOL    HW279182  13.974   4.306   1.671
92429SOL     OW79183   7.522   3.366   6.770
92429SOL    HW179184   7.546   3.327   6.685
92429SOL    HW279185   7.485   3.451   6.748
92430SOL     OW79186   5.053  13.098   7.892
92430SOL    HW179187   4.961  13.080   7.909
92430SOL    HW279188   5.085  13.137   7.974
92431SOL     OW79189  14.515   8.475   8.750
92431SOL    HW179190  14.532   8.542   8.816
92431SOL    HW279191  14.419   8.470   8.744
92432SOL     OW79192   5.544   3.482  13.501
92432SOL    HW179193   5.481   3.438  13.444
92432SOL    HW279194   5.629   3.466  13.459
92433SOL     OW79195   6.973  14.857   7.448
92433SOL    HW179196   6.995  14.780   7.396
92433SOL    HW279197   6.998   0.061   7.391
92434SOL     OW79198   1.476   1.426  12.112
92434SOL    HW179199   1.541   1.448  12.179
92434SOL    HW279200   1.496   1.336  12.088
92435SOL     OW79201  10.245  11.343   8.662
92435SOL    HW179202  10.197  11.274   8.707
92435SOL    HW279203  10.334  11.308   8.652
92436SOL     OW79204   3.418   1.544   0.500
92436SOL    HW179205   3.399   1.619   0.557
92436SOL    HW279206   3.333   1.504   0.485
92437SOL     OW79207  12.686   1.361  12.034
92437SOL    HW179208  12.623   1.309  12.084
92437SOL    HW279209  12.755   1.300  12.010
92438SOL     OW79210   9.393   8.475   6.843
92438SOL    HW179211   9.331   8.413   6.881
92438SOL    HW279212   9.374   8.473   6.749
92439SOL     OW79213   3.665   9.803  12.454
92439SOL    HW179214   3.719   9.861  12.508
92439SOL    HW279215   3.665   9.719  12.501
92440SOL     OW79216   6.518   0.725   0.652
92440SOL    HW179217   6.543   0.665   0.722
92440SOL    HW279218   6.588   0.790   0.650
92441SOL     OW79219   4.658   2.441  13.950
92441SOL    HW179220   4.611   2.387  14.014
92441SOL    HW279221   4.729   2.384  13.919
92442SOL     OW79222   6.466   6.056   6.951
92442SOL    HW179223   6.544   6.037   7.003
92442SOL    HW279224   6.393   6.034   7.009
92443SOL     OW79225   7.668   3.307   4.571
92443SOL    HW179226   7.611   3.336   4.642
92443SOL    HW279227   7.727   3.381   4.556
92444SOL     OW79228  13.922  11.378   8.303
92444SOL    HW179229  13.950  11.396   8.213
92444SOL    HW279230  14.000  11.341   8.345
92445SOL     OW79231   5.856  10.243   6.089
92445SOL    HW179232   5.887  10.155   6.066
92445SOL    HW279233   5.800  10.269   6.016
92446SOL     OW79234   6.984   6.537   6.366
92446SOL    HW179235   6.934   6.465   6.327
92446SOL    HW279236   7.036   6.494   6.435
92447SOL     OW79237   7.794   8.349  10.219
92447SOL    HW179238   7.802   8.395  10.135
92447SOL    HW279239   7.745   8.409  10.275
92448SOL     OW79240   2.053   0.826   4.961
92448SOL    HW179241   2.079   0.896   4.901
92448SOL    HW279242   2.119   0.829   5.031
92449SOL     OW79243  13.158  10.633   7.373
92449SOL    HW179244  13.125  10.640   7.462
92449SOL    HW279245  13.212  10.712   7.361
92450SOL     OW79246   0.342   5.777   4.040
92450SOL    HW179247   0.398   5.706   4.071
92450SOL    HW279248   0.381   5.856   4.080
92451SOL     OW79249   6.197  13.786  12.003
92451SOL    HW179250   6.148  13.860  11.968
92451SOL    HW279251   6.248  13.753  11.930
92452SOL     OW79252   4.394   3.092   2.604
92452SOL    HW179253   4.421   3.172   2.648
92452SOL    HW279254   4.383   3.028   2.674
92453SOL     OW79255  13.406  13.392  12.248
92453SOL    HW179256  13.355  13.324  12.205
92453SOL    HW279257  13.402  13.467  12.187
92454SOL     OW79258  12.010   7.144   4.214
92454SOL    HW179259  12.029   7.193   4.134
92454SOL    HW279260  12.080   7.078   4.218
92455SOL     OW79261  10.205  10.642  11.025
92455SOL    HW179262  10.210  10.718  11.083
92455SOL    HW279263  10.212  10.678  10.937
92456SOL     OW79264  10.543   9.221  13.405
92456SOL    HW179265  10.472   9.283  13.389
92456SOL    HW279266  10.588   9.214  13.320
92457SOL     OW79267  14.213  13.400  14.656
92457SOL    HW179268  14.182  13.358  14.737
92457SOL    HW279269  14.207  13.494  14.674
92458SOL     OW79270  13.472  14.075   4.484
92458SOL    HW179271  13.459  14.140   4.553
92458SOL    HW279272  13.426  13.997   4.515
92459SOL     OW79273   6.646  10.014  14.718
92459SOL    HW179274   6.576   9.966  14.674
92459SOL    HW279275   6.726   9.968  14.692
92460SOL     OW79276   3.960  14.629   1.573
92460SOL    HW179277   4.018  14.607   1.645
92460SOL    HW279278   3.884  14.671   1.614
92461SOL     OW79279   1.971   0.083  14.533
92461SOL    HW179280   1.913   0.020  14.575
92461SOL    HW279281   1.958   0.069  14.439
92462SOL     OW79282   5.821   8.484   5.673
92462SOL    HW179283   5.765   8.559   5.653
92462SOL    HW279284   5.869   8.509   5.752
92463SOL     OW79285   9.586  14.639   2.727
92463SOL    HW179286   9.671  14.683   2.733
92463SOL    HW279287   9.597  14.557   2.776
92464SOL     OW79288   2.440  11.151   9.192
92464SOL    HW179289   2.389  11.143   9.273
92464SOL    HW279290   2.530  11.163   9.221
92465SOL     OW79291  12.953   2.950  12.380
92465SOL    HW179292  12.974   2.965  12.288
92465SOL    HW279293  12.858   2.945  12.382
92466SOL     OW79294   8.379   9.002   3.220
92466SOL    HW179295   8.296   8.955   3.223
92466SOL    HW279296   8.424   8.978   3.301
92467SOL     OW79297   5.654   3.615   9.146
92467SOL    HW179298   5.695   3.553   9.086
92467SOL    HW279299   5.693   3.596   9.231
92468SOL     OW79300   2.322   8.059   7.242
92468SOL    HW179301   2.316   8.071   7.147
92468SOL    HW279302   2.411   8.026   7.256
92469SOL     OW79303   6.188   8.983   7.758
92469SOL    HW179304   6.094   8.993   7.745
92469SOL    HW279305   6.220   9.072   7.773
92470SOL     OW79306   4.666   8.811  10.702
92470SOL    HW179307   4.634   8.753  10.633
92470SOL    HW279308   4.760   8.816  10.687
92471SOL     OW79309   4.575  14.121   1.995
92471SOL    HW179310   4.656  14.092   1.952
92471SOL    HW279311   4.570  14.068   2.074
92472SOL     OW79312  11.796  13.185  14.086
92472SOL    HW179313  11.824  13.236  14.163
92472SOL    HW279314  11.711  13.149  14.112
92473SOL     OW79315  13.710  13.966  13.659
92473SOL    HW179316  13.756  13.980  13.742
92473SOL    HW279317  13.655  13.890  13.674
92474SOL     OW79318   1.314   6.323  11.506
92474SOL    HW179319   1.224   6.356  11.507
92474SOL    HW279320   1.354   6.364  11.429
92475SOL     OW79321  11.328  14.498   3.138
92475SOL    HW179322  11.377  14.464   3.213
92475SOL    HW279323  11.309  14.421   3.085
92476SOL     OW79324   8.568   3.727  12.505
92476SOL    HW179325   8.549   3.653  12.562
92476SOL    HW279326   8.530   3.703  12.420
92477SOL     OW79327  11.355   3.017   4.623
92477SOL    HW179328  11.261   3.022   4.604
92477SOL    HW279329  11.368   2.927   4.654
92478SOL     OW79330   3.542   5.963   9.510
92478SOL    HW179331   3.462   5.944   9.461
92478SOL    HW279332   3.525   6.048   9.551
92479SOL     OW79333  12.513  10.155  11.439
92479SOL    HW179334  12.550  10.219  11.500
92479SOL    HW279335  12.506  10.075  11.490
92480SOL     OW79336   6.520   1.405   8.084
92480SOL    HW179337   6.595   1.441   8.131
92480SOL    HW279338   6.477   1.348   8.149
92481SOL     OW79339   4.206  11.702   5.722
92481SOL    HW179340   4.164  11.785   5.700
92481SOL    HW279341   4.234  11.665   5.639
92482SOL     OW79342   4.435   5.246   0.887
92482SOL    HW179343   4.396   5.266   0.972
92482SOL    HW279344   4.362   5.208   0.837
92483SOL     OW79345  10.547   9.752  13.715
92483SOL    HW179346  10.618   9.759  13.651
92483SOL    HW279347  10.508   9.667  13.698
92484SOL     OW79348   1.352   1.096  11.791
92484SOL    HW179349   1.348   1.106  11.696
92484SOL    HW279350   1.446   1.093  11.810
92485SOL     OW79351   9.024  12.969   0.970
92485SOL    HW179352   9.053  12.908   0.902
92485SOL    HW279353   8.999  13.048   0.922
92486SOL     OW79354   7.852   5.599   4.351
92486SOL    HW179355   7.932   5.548   4.350
92486SOL    HW279356   7.835   5.615   4.444
92487SOL     OW79357  10.970   7.224   9.783
92487SOL    HW179358  10.897   7.164   9.765
92487SOL    HW279359  11.049   7.173   9.761
92488SOL     OW79360   5.636   4.972  12.574
92488SOL    HW179361   5.688   4.943  12.499
92488SOL    HW279362   5.640   4.898  12.636
92489SOL     OW79363  11.089  10.774   3.110
92489SOL    HW179364  11.014  10.722   3.079
92489SOL    HW279365  11.116  10.730   3.191
92490SOL     OW79366   0.276  14.760   7.533
92490SOL    HW179367   0.214  14.747   7.461
92490SOL    HW279368   0.235  14.828   7.588
92491SOL     OW79369   7.865  11.558  10.807
92491SOL    HW179370   7.932  11.546  10.874
92491SOL    HW279371   7.877  11.485  10.747
92492SOL     OW79372  14.539   3.061  10.077
92492SOL    HW179373  14.510   2.970  10.076
92492SOL    HW279374  14.564   3.080   9.986
92493SOL     OW79375  14.208   4.627   5.935
92493SOL    HW179376  14.269   4.558   5.960
92493SOL    HW279377  14.235   4.653   5.847
92494SOL     OW79378   2.368   2.507   2.476
92494SOL    HW179379   2.461   2.524   2.459
92494SOL    HW279380   2.322   2.577   2.430
92495SOL     OW79381   1.235   6.179   1.444
92495SOL    HW179382   1.289   6.219   1.512
92495SOL    HW279383   1.277   6.205   1.361
92496SOL     OW79384   5.931  12.803  11.688
92496SOL    HW179385   5.962  12.892  11.675
92496SOL    HW279386   6.000  12.747  11.652
92497SOL     OW79387   8.009   6.116   7.101
92497SOL    HW179388   7.967   6.200   7.083
92497SOL    HW279389   8.036   6.122   7.193
92498SOL     OW79390  14.856   0.021   5.751
92498SOL    HW179391  14.861   0.040   5.657
92498SOL    HW279392  14.762   0.009   5.768
92499SOL     OW79393   2.390   6.486  13.988
92499SOL    HW179394   2.329   6.510  14.058
92499SOL    HW279395   2.457   6.434  14.032
92500SOL     OW79396  12.122   8.227  11.038
92500SOL    HW179397  12.112   8.316  11.006
92500SOL    HW279398  12.093   8.171  10.966
92501SOL     OW79399   1.373  14.009  14.396
92501SOL    HW179400   1.360  13.999  14.301
92501SOL    HW279401   1.384  13.919  14.428
92502SOL     OW79402  10.098   6.014   5.422
92502SOL    HW179403  10.155   5.938   5.407
92502SOL    HW279404  10.009   5.978   5.418
92503SOL     OW79405  13.709  13.821   7.054
92503SOL    HW179406  13.632  13.859   7.012
92503SOL    HW279407  13.724  13.739   7.007
92504SOL     OW79408  14.517   2.003   8.310
92504SOL    HW179409  14.530   2.097   8.321
92504SOL    HW279410  14.422   1.991   8.316
92505SOL     OW79411   2.571   8.374   3.929
92505SOL    HW179412   2.570   8.308   3.860
92505SOL    HW279413   2.478   8.390   3.948
92506SOL     OW79414   4.563   4.344  11.653
92506SOL    HW179415   4.557   4.397  11.574
92506SOL    HW279416   4.475   4.344  11.690
92507SOL     OW79417   1.199   0.492   2.984
92507SOL    HW179418   1.231   0.421   3.039
92507SOL    HW279419   1.119   0.522   3.027
92508SOL     OW79420   9.157   9.020   9.971
92508SOL    HW179421   9.087   9.062   9.921
92508SOL    HW279422   9.113   8.952  10.022
92509SOL     OW79423   6.750   5.501   8.445
92509SOL    HW179424   6.675   5.559   8.456
92509SOL    HW279425   6.826   5.559   8.456
92510SOL     OW79426  13.408  10.831   0.722
92510SOL    HW179427  13.435  10.814   0.632
92510SOL    HW279428  13.472  10.895   0.754
92511SOL     OW79429  13.822  14.723   5.998
92511SOL    HW179430  13.824  14.805   6.047
92511SOL    HW279431  13.913  14.708   5.972
92512SOL     OW79432   8.434   0.681  13.996
92512SOL    HW179433   8.468   0.766  13.968
92512SOL    HW279434   8.373   0.655  13.926
92513SOL     OW79435   9.690   8.196   6.608
92513SOL    HW179436   9.723   8.279   6.642
92513SOL    HW279437   9.661   8.147   6.685
92514SOL     OW79438   8.531   4.051  14.478
92514SOL    HW179439   8.532   3.957  14.462
92514SOL    HW279440   8.533   4.090  14.390
92515SOL     OW79441  12.604  10.354   2.559
92515SOL    HW179442  12.670  10.294   2.524
92515SOL    HW279443  12.655  10.426   2.597
92516SOL     OW79444   9.352   3.223   8.453
92516SOL    HW179445   9.420   3.237   8.519
92516SOL    HW279446   9.350   3.128   8.441
92517SOL     OW79447  11.630  14.636   7.887
92517SOL    HW179448  11.723  14.630   7.908
92517SOL    HW279449  11.591  14.685   7.959
92518SOL     OW79450  12.853   9.286   9.816
92518SOL    HW179451  12.868   9.345   9.743
92518SOL    HW279452  12.825   9.204   9.775
92519SOL     OW79453  12.240   1.550  14.744
92519SOL    HW179454  12.290   1.487  14.796
92519SOL    HW279455  12.300   1.624  14.732
92520SOL     OW79456  14.634  11.408  12.007
92520SOL    HW179457  14.640  11.318  11.975
92520SOL    HW279458  14.660  11.402  12.099
92521SOL     OW79459  14.489   8.540   1.672
92521SOL    HW179460  14.402   8.503   1.686
92521SOL    HW279461  14.549   8.468   1.693
92522SOL     OW79462  12.312   4.757  13.845
92522SOL    HW179463  12.229   4.756  13.797
92522SOL    HW279464  12.320   4.668  13.881
92523SOL     OW79465   4.574   6.052   2.376
92523SOL    HW179466   4.500   6.069   2.318
92523SOL    HW279467   4.541   5.989   2.441
92524SOL     OW79468  10.374   0.303   1.091
92524SOL    HW179469  10.427   0.314   1.169
92524SOL    HW279470  10.284   0.304   1.122
92525SOL     OW79471   0.836  12.712  11.668
92525SOL    HW179472   0.878  12.794  11.646
92525SOL    HW279473   0.837  12.662  11.587
92526SOL     OW79474   3.824   3.458   5.114
92526SOL    HW179475   3.912   3.491   5.132
92526SOL    HW279476   3.772   3.536   5.096
92527SOL     OW79477   5.873   2.698  12.381
92527SOL    HW179478   5.916   2.630  12.433
92527SOL    HW279479   5.880   2.777  12.435
92528SOL     OW79480   6.297  13.411   9.286
92528SOL    HW179481   6.354  13.420   9.363
92528SOL    HW279482   6.211  13.438   9.317
92529SOL     OW79483   3.950   0.258   1.869
92529SOL    HW179484   3.936   0.349   1.845
92529SOL    HW279485   4.026   0.260   1.928
92530SOL     OW79486   6.485   0.370   6.950
92530SOL    HW179487   6.580   0.371   6.955
92530SOL    HW279488   6.463   0.446   6.895
92531SOL     OW79489   5.548   0.726  10.345
92531SOL    HW179490   5.458   0.702  10.322
92531SOL    HW279491   5.539   0.802  10.402
92532SOL     OW79492  10.630   4.719  10.057
92532SOL    HW179493  10.626   4.624  10.052
92532SOL    HW279494  10.697   4.744   9.993
92533SOL     OW79495  12.233  14.604   7.347
92533SOL    HW179496  12.225  14.677   7.407
92533SOL    HW279497  12.317  14.564   7.370
92534SOL     OW79498   0.956   6.608   5.564
92534SOL    HW179499   0.984   6.555   5.639
92534SOL    HW279500   1.032   6.661   5.541
92535SOL     OW79501   8.334  13.356   1.764
92535SOL    HW179502   8.407  13.293   1.765
92535SOL    HW279503   8.340  13.401   1.848
92536SOL     OW79504   6.257   4.326   3.374
92536SOL    HW179505   6.186   4.370   3.327
92536SOL    HW279506   6.253   4.363   3.463
92537SOL     OW79507   0.287   7.347  11.529
92537SOL    HW179508   0.240   7.263  11.527
92537SOL    HW279509   0.314   7.356  11.621
92538SOL     OW79510   1.070  14.329   9.414
92538SOL    HW179511   1.136  14.261   9.432
92538SOL    HW279512   1.065  14.378   9.496
92539SOL     OW79513   7.905   9.572  14.020
92539SOL    HW179514   7.843   9.642  13.998
92539SOL    HW279515   7.938   9.542  13.935
92540SOL     OW79516   9.905   5.481   1.426
92540SOL    HW179517   9.991   5.443   1.405
92540SOL    HW279518   9.903   5.484   1.521
92541SOL     OW79519  12.766  10.355   9.695
92541SOL    HW179520  12.829  10.367   9.767
92541SOL    HW279521  12.729  10.269   9.710
92542SOL     OW79522   3.425  12.249  12.416
92542SOL    HW179523   3.467  12.186  12.474
92542SOL    HW279524   3.371  12.197  12.358
92543SOL     OW79525  13.981  13.793   6.378
92543SOL    HW179526  13.904  13.764   6.329
92543SOL    HW279527  13.956  13.877   6.415
92544SOL     OW79528   1.509   5.557  12.758
92544SOL    HW179529   1.561   5.525  12.684
92544SOL    HW279530   1.501   5.651  12.742
92545SOL     OW79531   6.902   1.287  14.065
92545SOL    HW179532   6.993   1.311  14.082
92545SOL    HW279533   6.908   1.208  14.011
92546SOL     OW79534  13.078   1.657   5.131
92546SOL    HW179535  13.054   1.616   5.214
92546SOL    HW279536  13.002   1.643   5.074
92547SOL     OW79537   1.734  13.624   4.956
92547SOL    HW179538   1.730  13.670   5.040
92547SOL    HW279539   1.681  13.678   4.897
92548SOL     OW79540  13.370  11.928   9.712
92548SOL    HW179541  13.448  11.874   9.710
92548SOL    HW279542  13.333  11.914   9.799
92549SOL     OW79543   6.366   8.118   4.537
92549SOL    HW179544   6.440   8.111   4.597
92549SOL    HW279545   6.297   8.066   4.579
92550SOL     OW79546   9.168   0.205   7.028
92550SOL    HW179547   9.252   0.217   6.984
92550SOL    HW279548   9.181   0.130   7.085
92551SOL     OW79549  12.008  12.989   6.920
92551SOL    HW179550  11.945  13.003   6.991
92551SOL    HW279551  12.089  12.965   6.964
92552SOL     OW79552   1.549   0.213  14.834
92552SOL    HW179553   1.586   0.195  14.748
92552SOL    HW279554   1.619   0.188   0.026
92553SOL     OW79555   6.175   5.891  12.611
92553SOL    HW179556   6.214   5.895  12.523
92553SOL    HW279557   6.179   5.798  12.634
92554SOL     OW79558   5.098   3.368   4.809
92554SOL    HW179559   5.062   3.388   4.896
92554SOL    HW279560   5.095   3.450   4.761
92555SOL     OW79561   8.780   1.071  11.801
92555SOL    HW179562   8.739   1.097  11.884
92555SOL    HW279563   8.765   0.976  11.796
92556SOL     OW79564  11.229  12.356  11.929
92556SOL    HW179565  11.151  12.381  11.879
92556SOL    HW279566  11.267  12.439  11.958
92557SOL     OW79567  14.083   3.201  13.574
92557SOL    HW179568  14.145   3.272  13.590
92557SOL    HW279569  14.028   3.200  13.651
92558SOL     OW79570   6.061   7.201  14.692
92558SOL    HW179571   6.022   7.153  14.766
92558SOL    HW279572   6.115   7.268  14.733
92559SOL     OW79573   4.304   6.869  12.689
92559SOL    HW179574   4.246   6.915  12.627
92559SOL    HW279575   4.390   6.907  12.674
92560SOL     OW79576   9.610   3.313   2.474
92560SOL    HW179577   9.662   3.391   2.453
92560SOL    HW279578   9.657   3.271   2.545
92561SOL     OW79579   0.928   1.113   1.410
92561SOL    HW179580   0.833   1.121   1.401
92561SOL    HW279581   0.944   1.019   1.407
92562SOL     OW79582   2.624  14.409  13.458
92562SOL    HW179583   2.575  14.405  13.540
92562SOL    HW279584   2.660  14.321  13.447
92563SOL     OW79585   1.242   4.204  14.706
92563SOL    HW179586   1.161   4.228  14.661
92563SOL    HW279587   1.300   4.279  14.691
92564SOL     OW79588   4.417  13.027  11.681
92564SOL    HW179589   4.359  12.953  11.665
92564SOL    HW279590   4.464  13.003  11.761
92565SOL     OW79591   0.820   0.950   8.013
92565SOL    HW179592   0.763   1.011   7.966
92565SOL    HW279593   0.884   0.922   7.948
92566SOL     OW79594   2.235   0.573   5.297
92566SOL    HW179595   2.301   0.565   5.228
92566SOL    HW279596   2.221   0.482   5.325
92567SOL     OW79597  11.351   7.517  11.840
92567SOL    HW179598  11.333   7.611  11.852
92567SOL    HW279599  11.402   7.493  11.917
92568SOL     OW79600  12.547   5.922  12.591
92568SOL    HW179601  12.481   5.882  12.647
92568SOL    HW279602  12.511   5.914  12.502
92569SOL     OW79603   1.316   8.948  13.424
92569SOL    HW179604   1.221   8.955  13.439
92569SOL    HW279605   1.324   8.933  13.330
92570SOL     OW79606  12.248   4.021  11.979
92570SOL    HW179607  12.172   3.964  11.967
92570SOL    HW279608  12.323   3.962  11.979
92571SOL     OW79609   9.998   8.970   7.022
92571SOL    HW179610  10.007   8.877   7.043
92571SOL    HW279611   9.942   9.005   7.092
92572SOL     OW79612   9.205   3.486   0.573
92572SOL    HW179613   9.279   3.535   0.536
92572SOL    HW279614   9.187   3.418   0.508
92573SOL     OW79615   5.716  10.522  10.929
92573SOL    HW179616   5.775  10.532  11.004
92573SOL    HW279617   5.637  10.569  10.954
92574SOL     OW79618   7.934  10.178   5.842
92574SOL    HW179619   7.941  10.262   5.886
92574SOL    HW279620   7.840  10.162   5.835
92575SOL     OW79621  14.526   8.438   5.408
92575SOL    HW179622  14.599   8.376   5.403
92575SOL    HW279623  14.567   8.520   5.437
92576SOL     OW79624   6.361   0.864   1.396
92576SOL    HW179625   6.305   0.908   1.332
92576SOL    HW279626   6.305   0.852   1.472
92577SOL     OW79627  12.883  11.448   6.463
92577SOL    HW179628  12.851  11.519   6.407
92577SOL    HW279629  12.911  11.380   6.402
92578SOL     OW79630   0.254   0.382   4.488
92578SOL    HW179631   0.277   0.475   4.483
92578SOL    HW279632   0.294   0.352   4.570
92579SOL     OW79633   1.230   4.109   8.702
92579SOL    HW179634   1.236   4.060   8.620
92579SOL    HW279635   1.234   4.043   8.771
92580SOL     OW79636  13.917  12.625   5.855
92580SOL    HW179637  13.952  12.616   5.944
92580SOL    HW279638  13.992  12.654   5.803
92581SOL     OW79639   1.186   4.136  13.231
92581SOL    HW179640   1.156   4.142  13.321
92581SOL    HW279641   1.281   4.151  13.236
92582SOL     OW79642  14.732  14.319  10.882
92582SOL    HW179643  14.790  14.289  10.812
92582SOL    HW279644  14.651  14.344  10.836
92583SOL     OW79645   5.370   3.906  13.705
92583SOL    HW179646   5.310   3.967  13.661
92583SOL    HW279647   5.420   3.865  13.635
92584SOL     OW79648   5.366   8.298   0.998
92584SOL    HW179649   5.357   8.391   0.980
92584SOL    HW279650   5.279   8.262   0.980
92585SOL     OW79651  14.105  12.286  14.655
92585SOL    HW179652  14.107  12.352  14.585
92585SOL    HW279653  14.111  12.203  14.609
92586SOL     OW79654   6.862  12.121  11.960
92586SOL    HW179655   6.827  12.046  11.912
92586SOL    HW279656   6.849  12.196  11.902
92587SOL     OW79657  14.286  11.009  13.285
92587SOL    HW179658  14.353  10.987  13.221
92587SOL    HW279659  14.322  10.978  13.369
92588SOL     OW79660   6.193   4.370   9.377
92588SOL    HW179661   6.134   4.325   9.437
92588SOL    HW279662   6.171   4.335   9.291
92589SOL     OW79663   9.306   8.730  12.076
92589SOL    HW179664   9.269   8.805  12.122
92589SOL    HW279665   9.246   8.658  12.094
92590SOL     OW79666   4.591   0.247  13.437
92590SOL    HW179667   4.676   0.220  13.472
92590SOL    HW279668   4.567   0.176  13.377
92591SOL     OW79669   2.380   8.813   6.269
92591SOL    HW179670   2.450   8.790   6.208
92591SOL    HW279671   2.369   8.908   6.258
92592SOL     OW79672   2.457   7.110   7.299
92592SOL    HW179673   2.525   7.176   7.281
92592SOL    HW279674   2.392   7.122   7.230
92593SOL     OW79675   4.368  11.048   9.275
92593SOL    HW179676   4.369  10.952   9.268
92593SOL    HW279677   4.279  11.073   9.251
92594SOL     OW79678  11.812   5.936   3.329
92594SOL    HW179679  11.828   5.983   3.411
92594SOL    HW279680  11.857   5.988   3.262
92595SOL     OW79681   5.389   6.236   0.563
92595SOL    HW179682   5.344   6.313   0.528
92595SOL    HW279683   5.385   6.246   0.658
92596SOL     OW79684  10.806   0.245  14.533
92596SOL    HW179685  10.731   0.189  14.552
92596SOL    HW279686  10.777   0.300  14.460
92597SOL     OW79687  12.013  11.712  12.297
92597SOL    HW179688  11.984  11.665  12.218
92597SOL    HW279689  11.934  11.754  12.330
92598SOL     OW79690  11.363   2.369   5.802
92598SOL    HW179691  11.328   2.457   5.811
92598SOL    HW279692  11.359   2.332   5.890
92599SOL     OW79693  10.623   4.683   1.147
92599SOL    HW179694  10.677   4.689   1.226
92599SOL    HW279695  10.681   4.709   1.076
92600SOL     OW79696   9.783  12.667   1.659
92600SOL    HW179697   9.699  12.629   1.685
92600SOL    HW279698   9.759  12.744   1.607
92601SOL     OW79699   6.164  12.338  13.653
92601SOL    HW179700   6.256  12.341  13.625
92601SOL    HW279701   6.114  12.333  13.572
92602SOL     OW79702   6.978  14.188   2.078
92602SOL    HW179703   6.973  14.267   2.025
92602SOL    HW279704   7.071  14.170   2.086
92603SOL     OW79705   8.630   0.268   1.770
92603SOL    HW179706   8.577   0.346   1.787
92603SOL    HW279707   8.677   0.288   1.689
92604SOL     OW79708   6.741  14.124  13.392
92604SOL    HW179709   6.820  14.178  13.388
92604SOL    HW279710   6.691  14.160  13.465
92605SOL     OW79711  14.300  12.862   8.404
92605SOL    HW179712  14.357  12.793   8.437
92605SOL    HW279713  14.214  12.843   8.440
92606SOL     OW79714   0.613   7.585   6.993
92606SOL    HW179715   0.597   7.677   6.975
92606SOL    HW279716   0.655   7.584   7.079
92607SOL     OW79717   4.712  11.513   7.161
92607SOL    HW179718   4.631  11.490   7.116
92607SOL    HW279719   4.720  11.447   7.230
92608SOL     OW79720   6.489  14.752  11.554
92608SOL    HW179721   6.399  14.729  11.535
92608SOL    HW279722   6.530  14.670  11.583
92609SOL     OW79723   7.594  11.886  13.856
92609SOL    HW179724   7.507  11.852  13.835
92609SOL    HW279725   7.612  11.952  13.789
92610SOL     OW79726   2.498   4.715  12.076
92610SOL    HW179727   2.487   4.739  11.984
92610SOL    HW279728   2.590   4.691  12.084
92611SOL     OW79729  11.266   5.254   0.645
92611SOL    HW179730  11.253   5.282   0.736
92611SOL    HW279731  11.236   5.328   0.593
92612SOL     OW79732   5.069   6.457   3.128
92612SOL    HW179733   5.024   6.398   3.189
92612SOL    HW279734   5.153   6.414   3.111
92613SOL     OW79735   6.526   4.694  10.658
92613SOL    HW179736   6.559   4.769  10.609
92613SOL    HW279737   6.440   4.721  10.689
92614SOL     OW79738  10.234  11.822   3.141
92614SOL    HW179739  10.193  11.904   3.171
92614SOL    HW279740  10.196  11.755   3.198
92615SOL     OW79741  14.296   6.316  14.565
92615SOL    HW179742  14.352   6.249  14.602
92615SOL    HW279743  14.325   6.397  14.608
92616SOL     OW79744  13.941   9.280   3.594
92616SOL    HW179745  13.902   9.193   3.585
92616SOL    HW279746  14.015   9.268   3.653
92617SOL     OW79747  14.331  10.630   2.239
92617SOL    HW179748  14.306  10.665   2.153
92617SOL    HW279749  14.400  10.567   2.220
92618SOL     OW79750   3.333   7.171   9.057
92618SOL    HW179751   3.258   7.201   9.006
92618SOL    HW279752   3.394   7.137   8.992
92619SOL     OW79753  11.214   2.930  13.657
92619SOL    HW179754  11.290   2.871  13.651
92619SOL    HW279755  11.221   2.969  13.744
92620SOL     OW79756   4.145  11.622   4.918
92620SOL    HW179757   4.055  11.608   4.887
92620SOL    HW279758   4.187  11.672   4.848
92621SOL     OW79759  13.754  10.860   7.197
92621SOL    HW179760  13.808  10.829   7.270
92621SOL    HW279761  13.737  10.782   7.144
92622SOL     OW79762   1.672   4.470   5.082
92622SOL    HW179763   1.612   4.493   5.153
92622SOL    HW279764   1.692   4.378   5.096
92623SOL     OW79765   7.461   8.786   7.141
92623SOL    HW179766   7.470   8.693   7.117
92623SOL    HW279767   7.375   8.811   7.108
92624SOL     OW79768   1.378  11.200   3.463
92624SOL    HW179769   1.285  11.221   3.474
92624SOL    HW279770   1.389  11.118   3.511
92625SOL     OW79771  11.157   2.916  12.778
92625SOL    HW179772  11.157   2.905  12.873
92625SOL    HW279773  11.096   2.988  12.762
92626SOL     OW79774   6.570   5.207   9.150
92626SOL    HW179775   6.539   5.210   9.241
92626SOL    HW279776   6.549   5.119   9.121
92627SOL     OW79777  13.385  10.564   2.604
92627SOL    HW179778  13.402  10.651   2.568
92627SOL    HW279779  13.429  10.504   2.543
92628SOL     OW79780   9.996  13.487   2.853
92628SOL    HW179781   9.915  13.446   2.822
92628SOL    HW279782  10.029  13.425   2.919
92629SOL     OW79783  10.208   6.062   6.844
92629SOL    HW179784  10.274   6.123   6.812
92629SOL    HW279785  10.243   6.031   6.927
92630SOL     OW79786   7.023  11.577   1.231
92630SOL    HW179787   6.939  11.539   1.256
92630SOL    HW279788   7.050  11.626   1.309
92631SOL     OW79789   2.579  12.907  13.941
92631SOL    HW179790   2.508  12.845  13.929
92631SOL    HW279791   2.536  12.993  13.942
92632SOL     OW79792   0.764  10.001   7.401
92632SOL    HW179793   0.703  10.045   7.342
92632SOL    HW279794   0.805  10.072   7.450
92633SOL     OW79795  14.425   7.054   4.799
92633SOL    HW179796  14.444   7.035   4.890
92633SOL    HW279797  14.331   7.072   4.797
92634SOL     OW79798   8.966   7.965   6.967
92634SOL    HW179799   8.989   7.937   7.056
92634SOL    HW279800   9.002   7.897   6.910
92635SOL     OW79801   0.807  11.883   6.645
92635SOL    HW179802   0.881  11.896   6.586
92635SOL    HW279803   0.734  11.926   6.601
92636SOL     OW79804   5.106   4.573   9.134
92636SOL    HW179805   5.125   4.556   9.041
92636SOL    HW279806   5.062   4.658   9.134
92637SOL     OW79807  14.756   0.389  12.886
92637SOL    HW179808  14.698   0.409  12.812
92637SOL    HW279809  14.814   0.465  12.892
92638SOL     OW79810   8.900  14.009   2.952
92638SOL    HW179811   8.859  14.094   2.971
92638SOL    HW279812   8.860  13.950   3.016
92639SOL     OW79813   5.062   2.737   1.824
92639SOL    HW179814   5.131   2.766   1.765
92639SOL    HW279815   5.022   2.818   1.857
92640SOL     OW79816  11.142  12.535   7.003
92640SOL    HW179817  11.180  12.483   7.074
92640SOL    HW279818  11.063  12.573   7.042
92641SOL     OW79819   4.667   2.636   2.285
92641SOL    HW179820   4.588   2.597   2.323
92641SOL    HW279821   4.639   2.723   2.256
92642SOL     OW79822   2.094  10.259   0.195
92642SOL    HW179823   2.110  10.304   0.112
92642SOL    HW279824   2.091  10.166   0.171
92643SOL     OW79825   1.672   9.000   4.947
92643SOL    HW179826   1.612   9.027   5.016
92643SOL    HW279827   1.754   9.044   4.968
92644SOL     OW79828   2.440  11.424   8.327
92644SOL    HW179829   2.526  11.420   8.284
92644SOL    HW279830   2.457  11.470   8.409
92645SOL     OW79831   8.142   2.328  12.823
92645SOL    HW179832   8.080   2.377  12.769
92645SOL    HW279833   8.088   2.273  12.879
92646SOL     OW79834   7.175   7.735   6.318
92646SOL    HW179835   7.235   7.808   6.306
92646SOL    HW279836   7.161   7.731   6.413
92647SOL     OW79837   4.672  11.144  13.298
92647SOL    HW179838   4.653  11.205  13.226
92647SOL    HW279839   4.669  11.058  13.258
92648SOL     OW79840  12.816   9.946   4.221
92648SOL    HW179841  12.826   9.851   4.212
92648SOL    HW279842  12.815   9.978   4.132
92649SOL     OW79843   4.106   8.987  10.683
92649SOL    HW179844   4.091   9.017  10.772
92649SOL    HW279845   4.190   8.940  10.688
92650SOL     OW79846  14.394   5.466  10.479
92650SOL    HW179847  14.363   5.423  10.399
92650SOL    HW279848  14.358   5.413  10.550
92651SOL     OW79849  10.688   3.657   2.045
92651SOL    HW179850  10.733   3.722   1.992
92651SOL    HW279851  10.600   3.652   2.008
92652SOL     OW79852   8.804   1.505  12.088
92652SOL    HW179853   8.807   1.410  12.077
92652SOL    HW279854   8.737   1.520  12.154
92653SOL     OW79855   4.082   2.813   6.303
92653SOL    HW179856   4.047   2.845   6.386
92653SOL    HW279857   4.174   2.795   6.321
92654SOL     OW79858   1.443   7.042  11.429
92654SOL    HW179859   1.514   6.978  11.433
92654SOL    HW279860   1.435   7.076  11.518
92655SOL     OW79861  10.933   4.963   1.335
92655SOL    HW179862  10.872   4.891   1.322
92655SOL    HW279863  10.904   5.005   1.416
92656SOL     OW79864  10.035   0.089   4.600
92656SOL    HW179865   9.942   0.077   4.582
92656SOL    HW279866  10.038   0.138   4.682
92657SOL     OW79867   2.870   3.153   3.068
92657SOL    HW179868   2.852   3.210   2.992
92657SOL    HW279869   2.891   3.214   3.139
92658SOL     OW79870   5.930   5.570   5.578
92658SOL    HW179871   5.933   5.521   5.660
92658SOL    HW279872   5.857   5.631   5.589
92659SOL     OW79873   6.372   5.370   5.071
92659SOL    HW179874   6.431   5.432   5.113
92659SOL    HW279875   6.351   5.410   4.986
92660SOL     OW79876   7.436   9.854  11.123
92660SOL    HW179877   7.418   9.841  11.216
92660SOL    HW279878   7.464   9.767  11.093
92661SOL     OW79879   4.635   1.266  12.127
92661SOL    HW179880   4.632   1.331  12.057
92661SOL    HW279881   4.544   1.245  12.144
92662SOL     OW79882   3.000   8.389  11.455
92662SOL    HW179883   3.022   8.428  11.371
92662SOL    HW279884   2.997   8.463  11.516
92663SOL     OW79885  13.391  14.226   2.203
92663SOL    HW179886  13.391  14.298   2.266
92663SOL    HW279887  13.428  14.152   2.251
92664SOL     OW79888   1.089   1.408   7.016
92664SOL    HW179889   1.008   1.431   7.060
92664SOL    HW279890   1.141   1.361   7.082
92665SOL     OW79891   6.770   5.326   8.659
92665SOL    HW179892   6.778   5.362   8.570
92665SOL    HW279893   6.693   5.370   8.696
92666SOL     OW79894  13.594   5.208   3.469
92666SOL    HW179895  13.648   5.263   3.526
92666SOL    HW279896  13.583   5.127   3.518
92667SOL     OW79897   9.449  14.379  11.793
92667SOL    HW179898   9.406  14.334  11.866
92667SOL    HW279899   9.378  14.428  11.751
92668SOL     OW79900  11.511   1.460  10.342
92668SOL    HW179901  11.467   1.532  10.388
92668SOL    HW279902  11.445   1.425  10.283
92669SOL     OW79903  12.147  10.357   4.008
92669SOL    HW179904  12.185  10.332   3.923
92669SOL    HW279905  12.055  10.375   3.989
92670SOL     OW79906   7.103   7.496  14.361
92670SOL    HW179907   7.081   7.535  14.446
92670SOL    HW279908   7.030   7.520  14.305
92671SOL     OW79909  11.592  10.742   4.340
92671SOL    HW179910  11.596  10.681   4.413
92671SOL    HW279911  11.503  10.779   4.343
92672SOL     OW79912   0.690   2.624  11.019
92672SOL    HW179913   0.597   2.649  11.017
92672SOL    HW279914   0.693   2.542  10.969
92673SOL     OW79915  12.970   8.761   8.865
92673SOL    HW179916  13.054   8.738   8.825
92673SOL    HW279917  12.928   8.818   8.800
92674SOL     OW79918   9.533  11.172   8.276
92674SOL    HW179919   9.482  11.199   8.352
92674SOL    HW279920   9.488  11.094   8.243
92675SOL     OW79921   5.884   7.090  12.757
92675SOL    HW179922   5.958   7.043  12.717
92675SOL    HW279923   5.845   7.139  12.685
92676SOL     OW79924  14.593   1.884   0.597
92676SOL    HW179925  14.618   1.974   0.577
92676SOL    HW279926  14.498   1.884   0.587
92677SOL     OW79927   4.786   8.247   4.019
92677SOL    HW179928   4.775   8.188   3.944
92677SOL    HW279929   4.778   8.189   4.095
92678SOL     OW79930   5.899   4.694  11.764
92678SOL    HW179931   5.935   4.756  11.828
92678SOL    HW279932   5.970   4.632  11.749
92679SOL     OW79933   7.686   4.133  11.733
92679SOL    HW179934   7.733   4.056  11.702
92679SOL    HW279935   7.702   4.135  11.828
92680SOL     OW79936   0.585   7.534  11.027
92680SOL    HW179937   0.595   7.598  10.956
92680SOL    HW279938   0.491   7.526  11.039
92681SOL     OW79939  13.111   3.929  13.595
92681SOL    HW179940  13.101   3.836  13.571
92681SOL    HW279941  13.175   3.963  13.533
92682SOL     OW79942   1.126  13.432  11.344
92682SOL    HW179943   1.167  13.508  11.385
92682SOL    HW279944   1.161  13.431  11.255
92683SOL     OW79945   8.696  11.309   4.599
92683SOL    HW179946   8.792  11.307   4.590
92683SOL    HW279947   8.675  11.227   4.643
92684SOL     OW79948   2.707   9.400   0.501
92684SOL    HW179949   2.798   9.427   0.491
92684SOL    HW279950   2.656   9.481   0.495
92685SOL     OW79951   0.895   5.308   2.590
92685SOL    HW179952   0.906   5.359   2.670
92685SOL    HW279953   0.955   5.350   2.527
92686SOL     OW79954   9.782  11.026   6.070
92686SOL    HW179955   9.864  11.066   6.100
92686SOL    HW279956   9.739  10.998   6.151
92687SOL     OW79957   5.393   3.151   2.797
92687SOL    HW179958   5.465   3.089   2.783
92687SOL    HW279959   5.422   3.205   2.871
92688SOL     OW79960   8.961   7.712  13.326
92688SOL    HW179961   9.026   7.782  13.319
92688SOL    HW279962   9.010   7.632  13.305
92689SOL     OW79963   3.104  12.856   2.986
92689SOL    HW179964   3.145  12.841   3.071
92689SOL    HW279965   3.095  12.768   2.949
92690SOL     OW79966   7.595   7.447  11.525
92690SOL    HW179967   7.510   7.470  11.486
92690SOL    HW279968   7.594   7.351  11.529
92691SOL     OW79969   5.201   2.851   0.373
92691SOL    HW179970   5.158   2.772   0.339
92691SOL    HW279971   5.257   2.880   0.302
92692SOL     OW79972   8.251  12.764   8.091
92692SOL    HW179973   8.166  12.740   8.055
92692SOL    HW279974   8.302  12.793   8.015
92693SOL     OW79975   3.539   7.971   3.837
92693SOL    HW179976   3.466   7.927   3.881
92693SOL    HW279977   3.511   7.979   3.746
92694SOL     OW79978  14.060  11.819  10.528
92694SOL    HW179979  14.117  11.872  10.584
92694SOL    HW279980  14.111  11.741  10.509
92695SOL     OW79981  10.498  11.554  11.002
92695SOL    HW179982  10.484  11.649  11.011
92695SOL    HW279983  10.439  11.515  11.066
92696SOL     OW79984   7.519  11.422   4.659
92696SOL    HW179985   7.470  11.345   4.630
92696SOL    HW279986   7.451  11.486   4.681
92697SOL     OW79987   1.236  14.289   9.719
92697SOL    HW179988   1.220  14.280   9.813
92697SOL    HW279989   1.170  14.353   9.690
92698SOL     OW79990   8.182   2.040  13.626
92698SOL    HW179991   8.146   2.115  13.673
92698SOL    HW279992   8.105   1.994  13.592
92699SOL     OW79993   7.019   4.012   2.463
92699SOL    HW179994   7.014   4.053   2.377
92699SOL    HW279995   7.085   3.943   2.453
92700SOL     OW79996   7.316   0.507   4.073
92700SOL    HW179997   7.318   0.456   4.155
92700SOL    HW279998   7.310   0.598   4.101
92701SOL     OW79999  10.147   7.997  13.519
92701SOL    HW180000  10.229   7.955  13.543
92701SOL    HW280001  10.092   7.926  13.487
92702SOL     OW80002   3.038  12.478   4.541
92702SOL    HW180003   2.958  12.443   4.500
92702SOL    HW280004   3.108  12.424   4.506
92703SOL     OW80005  11.436   2.884   5.457
92703SOL    HW180006  11.346   2.860   5.481
92703SOL    HW280007  11.426   2.933   5.376
92704SOL     OW80008   9.135   0.221  12.775
92704SOL    HW180009   9.128   0.126  12.769
92704SOL    HW280010   9.137   0.240  12.869
92705SOL     OW80011   8.235  12.969  14.289
92705SOL    HW180012   8.291  12.897  14.262
92705SOL    HW280013   8.185  12.992  14.211
92706SOL     OW80014   9.744   4.258   4.229
92706SOL    HW180015   9.813   4.213   4.278
92706SOL    HW280016   9.773   4.349   4.224
92707SOL     OW80017   7.621  13.390   0.806
92707SOL    HW180018   7.608  13.430   0.892
92707SOL    HW280019   7.563  13.313   0.807
92708SOL     OW80020  14.839   6.419   3.054
92708SOL    HW180021  14.851   6.394   2.962
92708SOL    HW280022   0.055   6.401   3.095
92709SOL     OW80023   4.980   5.898   1.600
92709SOL    HW180024   5.037   5.839   1.550
92709SOL    HW280025   4.929   5.944   1.534
92710SOL     OW80026   0.976  10.616   1.441
92710SOL    HW180027   1.041  10.545   1.447
92710SOL    HW280028   0.959  10.625   1.348
92711SOL     OW80029   4.161  14.429   7.551
92711SOL    HW180030   4.127  14.516   7.530
92711SOL    HW280031   4.256  14.438   7.538
92712SOL     OW80032   9.075   3.275   6.160
92712SOL    HW180033   9.136   3.211   6.125
92712SOL    HW280034   9.111   3.298   6.246
92713SOL     OW80035   9.862  12.748   4.923
92713SOL    HW180036   9.786  12.701   4.957
92713SOL    HW280037   9.892  12.801   4.997
92714SOL     OW80038  12.972   2.489   3.458
92714SOL    HW180039  12.982   2.419   3.523
92714SOL    HW280040  13.006   2.567   3.502
92715SOL     OW80041  10.446  13.291  11.750
92715SOL    HW180042  10.369  13.263  11.800
92715SOL    HW280043  10.503  13.331  11.815
92716SOL     OW80044  13.074  12.222  12.922
92716SOL    HW180045  13.162  12.230  12.960
92716SOL    HW280046  13.053  12.129  12.931
92717SOL     OW80047   0.463   2.429  11.366
92717SOL    HW180048   0.473   2.418  11.271
92717SOL    HW280049   0.417   2.350  11.394
92718SOL     OW80050   0.855   3.716  10.378
92718SOL    HW180051   0.765   3.700  10.407
92718SOL    HW280052   0.846   3.746  10.288
92719SOL     OW80053  12.087   8.478   4.663
92719SOL    HW180054  12.028   8.524   4.604
92719SOL    HW280055  12.052   8.389   4.667
92720SOL     OW80056   9.738   8.252   5.678
92720SOL    HW180057   9.661   8.308   5.687
92720SOL    HW280058   9.730   8.213   5.591
92721SOL     OW80059  10.904   3.827   1.613
92721SOL    HW180060  10.833   3.843   1.551
92721SOL    HW280061  10.931   3.737   1.594
92722SOL     OW80062  14.026   7.659  14.674
92722SOL    HW180063  14.010   7.611  14.755
92722SOL    HW280064  14.089   7.727  14.698
92723SOL     OW80065  14.185   0.917   5.572
92723SOL    HW180066  14.097   0.897   5.539
92723SOL    HW280067  14.214   0.836   5.614
92724SOL     OW80068  13.926   5.570   4.672
92724SOL    HW180069  13.948   5.658   4.703
92724SOL    HW280070  13.976   5.511   4.729
92725SOL     OW80071   8.698  11.892   5.669
92725SOL    HW180072   8.762  11.838   5.716
92725SOL    HW280073   8.749  11.961   5.627
92726SOL     OW80074   7.816   2.602  10.865
92726SOL    HW180075   7.842   2.692  10.845
92726SOL    HW280076   7.868   2.548  10.806
92727SOL     OW80077   0.807   9.642   5.274
92727SOL    HW180078   0.756   9.721   5.259
92727SOL    HW280079   0.828   9.609   5.187
92728SOL     OW80080  10.033   6.783  12.936
92728SOL    HW180081  10.010   6.700  12.896
92728SOL    HW280082  10.127   6.792  12.920
92729SOL     OW80083   3.051   3.180   4.128
92729SOL    HW180084   3.012   3.158   4.044
92729SOL    HW280085   2.994   3.140   4.193
92730SOL     OW80086   7.942   8.217   5.209
92730SOL    HW180087   7.916   8.259   5.291
92730SOL    HW280088   7.924   8.282   5.141
92731SOL     OW80089   5.360   0.953   0.224
92731SOL    HW180090   5.427   0.932   0.289
92731SOL    HW280091   5.285   0.898   0.247
92732SOL     OW80092   3.452  10.476   6.574
92732SOL    HW180093   3.432  10.497   6.665
92732SOL    HW280094   3.506  10.549   6.544
92733SOL     OW80095   8.094  10.812  10.754
92733SOL    HW180096   8.119  10.729  10.711
92733SOL    HW280097   8.090  10.875  10.682
92734SOL     OW80098   3.911   2.343  10.808
92734SOL    HW180099   3.917   2.433  10.840
92734SOL    HW280100   4.001   2.309  10.813
92735SOL     OW80101   8.594   4.631   5.990
92735SOL    HW180102   8.591   4.589   5.904
92735SOL    HW280103   8.529   4.701   5.985
92736SOL     OW80104  14.764  10.889   3.235
92736SOL    HW180105  14.676  10.874   3.268
92736SOL    HW280106  14.785  10.979   3.261
92737SOL     OW80107   6.967  10.455   3.887
92737SOL    HW180108   7.012  10.381   3.927
92737SOL    HW280109   6.915  10.493   3.958
92738SOL     OW80110   2.806   2.683   4.264
92738SOL    HW180111   2.778   2.689   4.173
92738SOL    HW280112   2.893   2.723   4.265
92739SOL     OW80113  12.568   0.726   8.932
92739SOL    HW180114  12.506   0.792   8.900
92739SOL    HW280115  12.546   0.647   8.883
92740SOL     OW80116   2.718  13.541  10.788
92740SOL    HW180117   2.736  13.571  10.877
92740SOL    HW280118   2.645  13.479  10.797
92741SOL     OW80119   8.447   9.734   2.849
92741SOL    HW180120   8.366   9.781   2.831
92741SOL    HW280121   8.482   9.713   2.763
92742SOL     OW80122   2.728   1.275  14.618
92742SOL    HW180123   2.794   1.343  14.603
92742SOL    HW280124   2.644   1.320  14.610
92743SOL     OW80125   1.928  11.533  12.589
92743SOL    HW180126   1.912  11.583  12.509
92743SOL    HW280127   2.013  11.491  12.574
92744SOL     OW80128  14.204  12.919   4.658
92744SOL    HW180129  14.127  12.946   4.607
92744SOL    HW280130  14.206  12.824   4.651
92745SOL     OW80131  12.213  13.751   0.534
92745SOL    HW180132  12.267  13.820   0.494
92745SOL    HW280133  12.138  13.797   0.571
92746SOL     OW80134  10.672   6.053   2.765
92746SOL    HW180135  10.642   5.962   2.758
92746SOL    HW280136  10.619   6.089   2.837
92747SOL     OW80137   9.203  10.859  13.302
92747SOL    HW180138   9.257  10.933  13.275
92747SOL    HW280139   9.257  10.813  13.367
92748SOL     OW80140   6.218   8.329  12.763
92748SOL    HW180141   6.298   8.297  12.805
92748SOL    HW280142   6.202   8.266  12.692
92749SOL     OW80143  13.962  10.643  12.891
92749SOL    HW180144  14.047  10.608  12.920
92749SOL    HW280145  13.920  10.672  12.972
92750SOL     OW80146   3.903   9.009  12.167
92750SOL    HW180147   3.913   9.099  12.198
92750SOL    HW280148   3.856   8.964  12.238
92751SOL     OW80149  11.471   7.779  12.717
92751SOL    HW180150  11.503   7.796  12.805
92751SOL    HW280151  11.413   7.703  12.726
92752SOL     OW80152  11.222   6.946  13.009
92752SOL    HW180153  11.293   6.920  13.068
92752SOL    HW280154  11.257   6.929  12.921
92753SOL     OW80155   6.619  10.141   6.308
92753SOL    HW180156   6.656  10.079   6.245
92753SOL    HW280157   6.561  10.197   6.255
92754SOL     OW80158  11.961   5.286   7.005
92754SOL    HW180159  12.019   5.214   6.981
92754SOL    HW280160  11.904   5.249   7.073
92755SOL     OW80161  13.788   2.865  14.493
92755SOL    HW180162  13.697   2.847  14.468
92755SOL    HW280163  13.801   2.957  14.472
92756SOL     OW80164  11.284  13.886   3.402
92756SOL    HW180165  11.344  13.814   3.380
92756SOL    HW280166  11.236  13.854   3.479
92757SOL     OW80167   0.004   9.481   5.486
92757SOL    HW180168   0.074   9.417   5.496
92757SOL    HW280169  14.844   9.471   5.395
92758SOL     OW80170  14.506  12.196   3.177
92758SOL    HW180171  14.553  12.226   3.255
92758SOL    HW280172  14.450  12.126   3.209
92759SOL     OW80173   4.772   9.686   0.278
92759SOL    HW180174   4.750   9.651   0.191
92759SOL    HW280175   4.804   9.774   0.260
92760SOL     OW80176   5.985   0.691  11.020
92760SOL    HW180177   5.989   0.779  11.056
92760SOL    HW280178   5.934   0.700  10.939
92761SOL     OW80179   0.300   6.153   4.757
92761SOL    HW180180   0.391   6.160   4.728
92761SOL    HW280181   0.277   6.241   4.787
92762SOL     OW80182  13.411   2.468  12.985
92762SOL    HW180183  13.413   2.385  13.033
92762SOL    HW280184  13.481   2.460  12.920
92763SOL     OW80185  13.837   7.778   9.994
92763SOL    HW180186  13.898   7.749   9.927
92763SOL    HW280187  13.779   7.840   9.949
92764SOL     OW80188  13.986   3.457  14.352
92764SOL    HW180189  13.901   3.498  14.368
92764SOL    HW280190  14.049   3.529  14.356
92765SOL     OW80191   9.107   7.973   9.530
92765SOL    HW180192   9.033   8.033   9.519
92765SOL    HW280193   9.090   7.929   9.612
92766SOL     OW80194   4.215  12.598   9.596
92766SOL    HW180195   4.293  12.651   9.583
92766SOL    HW280196   4.142  12.659   9.584
92767SOL     OW80197  11.234   7.195  10.952
92767SOL    HW180198  11.266   7.258  11.017
92767SOL    HW280199  11.303   7.129  10.945
92768SOL     OW80200   6.693   9.553   4.892
92768SOL    HW180201   6.672   9.594   4.976
92768SOL    HW280202   6.661   9.615   4.827
92769SOL     OW80203   2.562  13.594   0.876
92769SOL    HW180204   2.583  13.509   0.837
92769SOL    HW280205   2.645  13.627   0.908
92770SOL     OW80206   5.868   2.526   2.397
92770SOL    HW180207   5.961   2.546   2.381
92770SOL    HW280208   5.860   2.523   2.492
92771SOL     OW80209   4.729   7.368   2.720
92771SOL    HW180210   4.662   7.432   2.744
92771SOL    HW280211   4.769   7.405   2.641
92772SOL     OW80212   2.261   3.796   1.886
92772SOL    HW180213   2.334   3.822   1.831
92772SOL    HW280214   2.272   3.702   1.898
92773SOL     OW80215  10.332  10.662   2.164
92773SOL    HW180216  10.290  10.591   2.212
92773SOL    HW280217  10.326  10.737   2.223
92774SOL     OW80218   5.103  11.946   0.590
92774SOL    HW180219   5.154  11.889   0.648
92774SOL    HW280220   5.158  12.025   0.581
92775SOL     OW80221   7.915   4.215  12.051
92775SOL    HW180222   7.824   4.245  12.057
92775SOL    HW280223   7.908   4.120  12.038
92776SOL     OW80224   7.155   4.513  12.653
92776SOL    HW180225   7.144   4.442  12.589
92776SOL    HW280226   7.224   4.482  12.712
92777SOL     OW80227   8.134  13.733   1.198
92777SOL    HW180228   8.206  13.756   1.256
92777SOL    HW280229   8.087  13.663   1.244
92778SOL     OW80230   1.070  10.801   3.392
92778SOL    HW180231   1.021  10.786   3.473
92778SOL    HW280232   1.023  10.871   3.347
92779SOL     OW80233  10.507   7.275  12.579
92779SOL    HW180234  10.429   7.265  12.634
92779SOL    HW280235  10.579   7.285  12.641
92780SOL     OW80236   6.775   2.249  14.697
92780SOL    HW180237   6.710   2.202  14.749
92780SOL    HW280238   6.832   2.290  14.763
92781SOL     OW80239  10.244  12.267   7.410
92781SOL    HW180240  10.265  12.201   7.345
92781SOL    HW280241  10.279  12.233   7.492
92782SOL     OW80242   0.320   8.766   3.017
92782SOL    HW180243   0.341   8.856   3.039
92782SOL    HW280244   0.227   8.768   2.991
92783SOL     OW80245  12.928  14.741   9.799
92783SOL    HW180246  12.898  14.674   9.738
92783SOL    HW280247  12.851  14.762   9.851
92784SOL     OW80248  12.793   6.591   7.106
92784SOL    HW180249  12.869   6.533   7.101
92784SOL    HW280250  12.719   6.536   7.079
92785SOL     OW80251   4.201   8.314   9.450
92785SOL    HW180252   4.275   8.368   9.476
92785SOL    HW280253   4.125   8.354   9.493
92786SOL     OW80254  13.004  10.639   4.075
92786SOL    HW180255  13.053  10.717   4.100
92786SOL    HW280256  12.917  10.652   4.114
92787SOL     OW80257   7.852   4.506   4.980
92787SOL    HW180258   7.829   4.421   5.018
92787SOL    HW280259   7.845   4.567   5.053
92788SOL     OW80260  10.422   5.045   6.504
92788SOL    HW180261  10.459   4.957   6.515
92788SOL    HW280262  10.382   5.044   6.417
92789SOL     OW80263  12.387  10.598   6.899
92789SOL    HW180264  12.341  10.527   6.944
92789SOL    HW280265  12.471  10.604   6.945
92790SOL     OW80266   9.057   1.653   6.005
92790SOL    HW180267   9.001   1.676   6.079
92790SOL    HW280268   9.010   1.582   5.961
92791SOL     OW80269   3.281   7.600  13.173
92791SOL    HW180270   3.202   7.651  13.193
92791SOL    HW280271   3.333   7.656  13.117
92792SOL     OW80272  11.346  11.817   6.381
92792SOL    HW180273  11.347  11.725   6.408
92792SOL    HW280274  11.438  11.839   6.367
92793SOL     OW80275   4.487  13.676  11.616
92793SOL    HW180276   4.492  13.611  11.546
92793SOL    HW280277   4.565  13.659  11.669
92794SOL     OW80278   9.018  13.255   7.218
92794SOL    HW180279   9.075  13.316   7.171
92794SOL    HW280280   9.007  13.182   7.157
92795SOL     OW80281   5.100  12.316   7.815
92795SOL    HW180282   5.042  12.366   7.757
92795SOL    HW280283   5.185  12.359   7.808
92796SOL     OW80284   6.835   4.787  13.265
92796SOL    HW180285   6.905   4.737  13.224
92796SOL    HW280286   6.865   4.877  13.265
92797SOL     OW80287   3.683   3.210  10.796
92797SOL    HW180288   3.673   3.230  10.889
92797SOL    HW280289   3.764   3.255  10.771
92798SOL     OW80290  11.527  11.820  12.094
92798SOL    HW180291  11.500  11.861  12.012
92798SOL    HW280292  11.525  11.891  12.159
92799SOL     OW80293  10.324   3.496   2.771
92799SOL    HW180294  10.278   3.429   2.822
92799SOL    HW280295  10.311   3.471   2.680
92800SOL     OW80296  11.444   8.091   1.897
92800SOL    HW180297  11.426   8.055   1.810
92800SOL    HW280298  11.362   8.077   1.946
92801SOL     OW80299   3.006   5.445  12.278
92801SOL    HW180300   3.093   5.405  12.285
92801SOL    HW280301   2.948   5.384  12.323
92802SOL     OW80302  12.868  10.759   1.567
92802SOL    HW180303  12.854  10.667   1.589
92802SOL    HW280304  12.781  10.797   1.562
92803SOL     OW80305  13.251   8.502   4.614
92803SOL    HW180306  13.263   8.446   4.691
92803SOL    HW280307  13.200   8.577   4.646
92804SOL     OW80308   3.778   9.166  10.419
92804SOL    HW180309   3.841   9.212  10.474
92804SOL    HW280310   3.816   9.079  10.407
92805SOL     OW80311   7.597   9.692  10.953
92805SOL    HW180312   7.558   9.605  10.941
92805SOL    HW280313   7.627   9.717  10.865
92806SOL     OW80314  10.580  14.413   1.253
92806SOL    HW180315  10.593  14.502   1.283
92806SOL    HW280316  10.567  14.421   1.158
92807SOL     OW80317   4.494   8.962   0.979
92807SOL    HW180318   4.539   8.891   0.933
92807SOL    HW280319   4.440   9.004   0.912
92808SOL     OW80320   0.802   9.885  10.779
92808SOL    HW180321   0.774   9.971  10.809
92808SOL    HW280322   0.721   9.834  10.772
92809SOL     OW80323   8.914   0.796   9.458
92809SOL    HW180324   8.986   0.835   9.408
92809SOL    HW280325   8.915   0.843   9.541
92810SOL     OW80326   9.145   6.540  10.172
92810SOL    HW180327   9.150   6.611  10.235
92810SOL    HW280328   9.052   6.528  10.156
92811SOL     OW80329  13.568   9.791   3.966
92811SOL    HW180330  13.609   9.714   4.007
92811SOL    HW280331  13.499   9.817   4.027
92812SOL     OW80332  14.362   0.347   0.493
92812SOL    HW180333  14.289   0.350   0.555
92812SOL    HW280334  14.418   0.421   0.518
92813SOL     OW80335   6.609   2.880  13.373
92813SOL    HW180336   6.643   2.850  13.288
92813SOL    HW280337   6.631   2.808  13.433
92814SOL     OW80338   6.209  13.738   5.003
92814SOL    HW180339   6.134  13.735   4.943
92814SOL    HW280340   6.263  13.809   4.969
92815SOL     OW80341   2.667  13.299   3.925
92815SOL    HW180342   2.697  13.370   3.869
92815SOL    HW280343   2.573  13.293   3.909
92816SOL     OW80344   5.080   8.510   8.590
92816SOL    HW180345   5.066   8.605   8.587
92816SOL    HW280346   5.175   8.501   8.603
92817SOL     OW80347   6.965  12.311   6.816
92817SOL    HW180348   6.984  12.222   6.845
92817SOL    HW280349   6.971  12.306   6.720
92818SOL     OW80350  12.154   8.661   2.622
92818SOL    HW180351  12.219   8.713   2.575
92818SOL    HW280352  12.114   8.723   2.684
92819SOL     OW80353   5.604   0.957   0.916
92819SOL    HW180354   5.635   1.032   0.966
92819SOL    HW280355   5.649   0.882   0.955
92820SOL     OW80356   3.550   2.373  12.933
92820SOL    HW180357   3.558   2.448  12.992
92820SOL    HW280358   3.515   2.409  12.852
92821SOL     OW80359   4.339   8.140   3.442
92821SOL    HW180360   4.250   8.111   3.459
92821SOL    HW280361   4.349   8.134   3.347
92822SOL     OW80362   2.845   5.096   4.923
92822SOL    HW180363   2.828   5.105   5.017
92822SOL    HW280364   2.759   5.077   4.885
92823SOL     OW80365   9.477   2.916   1.892
92823SOL    HW180366   9.444   2.973   1.823
92823SOL    HW280367   9.437   2.831   1.874
92824SOL     OW80368   0.140   0.883   4.476
92824SOL    HW180369   0.220   0.914   4.435
92824SOL    HW280370   0.110   0.812   4.419
92825SOL     OW80371   8.728   3.486  11.184
92825SOL    HW180372   8.637   3.459  11.175
92825SOL    HW280373   8.727   3.581  11.172
92826SOL     OW80374  10.961   3.837  14.261
92826SOL    HW180375  10.874   3.870  14.238
92826SOL    HW280376  11.013   3.852  14.182
92827SOL     OW80377   4.075   0.144   6.168
92827SOL    HW180378   3.996   0.167   6.120
92827SOL    HW280379   4.064   0.184   6.254
92828SOL     OW80380   0.430  13.978  12.258
92828SOL    HW180381   0.511  14.018  12.228
92828SOL    HW280382   0.451  13.947  12.346
92829SOL     OW80383   3.077   8.633  10.330
92829SOL    HW180384   3.037   8.611  10.414
92829SOL    HW280385   3.044   8.567  10.269
92830SOL     OW80386  10.661  11.347  10.971
92830SOL    HW180387  10.647  11.301  11.053
92830SOL    HW280388  10.602  11.422  10.975
92831SOL     OW80389   9.056   8.664  10.894
92831SOL    HW180390   9.006   8.739  10.925
92831SOL    HW280391   9.011   8.588  10.933
92832SOL     OW80392   7.678   2.548   5.117
92832SOL    HW180393   7.771   2.561   5.099
92832SOL    HW280394   7.648   2.488   5.048
92833SOL     OW80395   8.173   9.732   5.990
92833SOL    HW180396   8.108   9.663   6.005
92833SOL    HW280397   8.142   9.778   5.912
92834SOL     OW80398  10.412  10.305  11.846
92834SOL    HW180399  10.329  10.290  11.801
92834SOL    HW280400  10.399  10.265  11.933
92835SOL     OW80401   3.305   9.155   2.474
92835SOL    HW180402   3.230   9.162   2.415
92835SOL    HW280403   3.277   9.199   2.554
92836SOL     OW80404   3.719  11.607  12.322
92836SOL    HW180405   3.682  11.522  12.299
92836SOL    HW280406   3.814  11.594  12.317
92837SOL     OW80407   4.889  14.103  13.691
92837SOL    HW180408   4.849  14.027  13.732
92837SOL    HW280409   4.953  14.134  13.755
92838SOL     OW80410   0.582  13.354   2.254
92838SOL    HW180411   0.538  13.288   2.307
92838SOL    HW280412   0.655  13.307   2.213
92839SOL     OW80413   1.516   0.443   0.780
92839SOL    HW180414   1.543   0.351   0.768
92839SOL    HW280415   1.508   0.477   0.691
92840SOL     OW80416  14.346  13.086  13.497
92840SOL    HW180417  14.324  13.031  13.572
92840SOL    HW280418  14.436  13.114  13.512
92841SOL     OW80419   2.321   6.492   0.761
92841SOL    HW180420   2.299   6.570   0.813
92841SOL    HW280421   2.402   6.516   0.716
92842SOL     OW80422  10.893  11.486   2.530
92842SOL    HW180423  10.898  11.476   2.625
92842SOL    HW280424  10.970  11.538   2.507
92843SOL     OW80425   5.758   8.864   5.787
92843SOL    HW180426   5.842   8.856   5.832
92843SOL    HW280427   5.731   8.955   5.803
92844SOL     OW80428   4.441   9.048   6.922
92844SOL    HW180429   4.491   8.977   6.883
92844SOL    HW280430   4.360   9.007   6.953
92845SOL     OW80431   3.756   0.958  10.744
92845SOL    HW180432   3.802   0.917  10.671
92845SOL    HW280433   3.812   0.943  10.820
92846SOL     OW80434  12.743   3.931   3.561
92846SOL    HW180435  12.777   3.965   3.644
92846SOL    HW280436  12.725   4.010   3.509
92847SOL     OW80437  12.521  12.436  13.228
92847SOL    HW180438  12.506  12.470  13.316
92847SOL    HW280439  12.449  12.375  13.213
92848SOL     OW80440  13.644   8.340   0.437
92848SOL    HW180441  13.554   8.366   0.456
92848SOL    HW280442  13.695   8.378   0.508
92849SOL     OW80443  10.262   2.170   6.534
92849SOL    HW180444  10.206   2.126   6.470
92849SOL    HW280445  10.292   2.249   6.489
92850SOL     OW80446   1.561  12.550   2.550
92850SOL    HW180447   1.508  12.627   2.532
92850SOL    HW280448   1.561  12.542   2.646
92851SOL     OW80449  10.465  14.755   6.035
92851SOL    HW180450  10.467  14.764   6.130
92851SOL    HW280451  10.540  14.699   6.015
92852SOL     OW80452   0.233  11.264  11.644
92852SOL    HW180453   0.216  11.193  11.706
92852SOL    HW280454   0.147  11.287  11.609
92853SOL     OW80455   5.274  10.096   4.456
92853SOL    HW180456   5.185  10.120   4.484
92853SOL    HW280457   5.317  10.067   4.536
92854SOL     OW80458   1.790   9.987  14.449
92854SOL    HW180459   1.746  10.060  14.406
92854SOL    HW280460   1.721   9.941  14.496
92855SOL     OW80461   7.814   6.470   6.590
92855SOL    HW180462   7.819   6.535   6.520
92855SOL    HW280463   7.721   6.468   6.614
92856SOL     OW80464   1.622   9.874  13.750
92856SOL    HW180465   1.617   9.964  13.782
92856SOL    HW280466   1.682   9.879  13.676
92857SOL     OW80467  13.980   6.888   8.138
92857SOL    HW180468  13.898   6.932   8.115
92857SOL    HW280469  14.046   6.930   8.083
92858SOL     OW80470   3.798   6.312  11.839
92858SOL    HW180471   3.834   6.369  11.770
92858SOL    HW280472   3.873   6.262  11.870
92859SOL     OW80473   0.516   8.718  14.595
92859SOL    HW180474   0.536   8.628  14.620
92859SOL    HW280475   0.482   8.712  14.506
92860SOL     OW80476  12.999   6.008   2.019
92860SOL    HW180477  13.080   6.059   2.030
92860SOL    HW280478  12.933   6.074   1.998
92861SOL     OW80479   2.657   5.954  10.260
92861SOL    HW180480   2.642   6.036  10.307
92861SOL    HW280481   2.753   5.949  10.251
92862SOL     OW80482   9.389  13.608   0.057
92862SOL    HW180483   9.412  13.530   0.106
92862SOL    HW280484   9.399  13.680   0.119
92863SOL     OW80485   6.341   5.124   1.288
92863SOL    HW180486   6.261   5.084   1.252
92863SOL    HW280487   6.312   5.209   1.320
92864SOL     OW80488   3.776  10.813  12.352
92864SOL    HW180489   3.690  10.852  12.335
92864SOL    HW280490   3.779  10.737  12.294
92865SOL     OW80491   7.952   6.372   7.513
92865SOL    HW180492   8.034   6.323   7.516
92865SOL    HW280493   7.978   6.463   7.529
92866SOL     OW80494   4.260   4.487   8.865
92866SOL    HW180495   4.209   4.406   8.870
92866SOL    HW280496   4.289   4.502   8.955
92867SOL     OW80497   7.447   1.767   6.877
92867SOL    HW180498   7.503   1.844   6.869
92867SOL    HW280499   7.398   1.765   6.795
92868SOL     OW80500   9.972   6.644  10.254
92868SOL    HW180501  10.042   6.578  10.261
92868SOL    HW280502   9.967   6.664  10.161
92869SOL     OW80503   0.139   9.855   9.159
92869SOL    HW180504   0.122   9.935   9.109
92869SOL    HW280505   0.231   9.862   9.184
92870SOL     OW80506   4.346  12.549   3.013
92870SOL    HW180507   4.432  12.529   3.051
92870SOL    HW280508   4.357  12.533   2.919
92871SOL     OW80509   7.126   1.620  12.901
92871SOL    HW180510   7.185   1.567  12.955
92871SOL    HW280511   7.039   1.581  12.915
92872SOL     OW80512  13.314   7.498   9.751
92872SOL    HW180513  13.401   7.529   9.727
92872SOL    HW280514  13.254   7.542   9.691
92873SOL     OW80515   0.259  13.754   4.161
92873SOL    HW180516   0.320  13.828   4.160
92873SOL    HW280517   0.266  13.716   4.074
92874SOL     OW80518   9.541   3.400   6.304
92874SOL    HW180519   9.495   3.483   6.297
92874SOL    HW280520   9.615   3.418   6.362
92875SOL     OW80521   2.129   6.668  13.407
92875SOL    HW180522   2.142   6.711  13.491
92875SOL    HW280523   2.214   6.629  13.386
92876SOL     OW80524  11.699  12.797   7.451
92876SOL    HW180525  11.732  12.818   7.538
92876SOL    HW280526  11.606  12.820   7.454
92877SOL     OW80527   3.304   0.849  14.777
92877SOL    HW180528   3.315   0.771  14.723
92877SOL    HW280529   3.224   0.890  14.744
92878SOL     OW80530   0.304   7.203   5.796
92878SOL    HW180531   0.384   7.230   5.752
92878SOL    HW280532   0.298   7.259   5.873
92879SOL     OW80533   7.838   7.008   0.696
92879SOL    HW180534   7.904   7.062   0.654
92879SOL    HW280535   7.797   6.959   0.624
92880SOL     OW80536   1.800  11.836  11.417
92880SOL    HW180537   1.761  11.923  11.412
92880SOL    HW280538   1.803  11.816  11.510
92881SOL     OW80539   1.251   6.521   9.956
92881SOL    HW180540   1.212   6.501  10.041
92881SOL    HW280541   1.192   6.482   9.892
92882SOL     OW80542   3.900  11.525   6.877
92882SOL    HW180543   3.927  11.614   6.898
92882SOL    HW280544   3.806  11.523   6.896
92883SOL     OW80545  13.529   8.686  10.508
92883SOL    HW180546  13.565   8.622  10.446
92883SOL    HW280547  13.563   8.657  10.593
92884SOL     OW80548   4.201  14.503   3.389
92884SOL    HW180549   4.214  14.410   3.408
92884SOL    HW280550   4.271  14.525   3.328
92885SOL     OW80551   7.333   5.487   3.938
92885SOL    HW180552   7.412   5.443   3.907
92885SOL    HW280553   7.298   5.427   4.005
92886SOL     OW80554   1.315  12.090   2.481
92886SOL    HW180555   1.361  12.173   2.487
92886SOL    HW280556   1.287  12.071   2.570
92887SOL     OW80557   7.387  10.203   0.335
92887SOL    HW180558   7.379  10.214   0.240
92887SOL    HW280559   7.408  10.291   0.367
92888SOL     OW80560  10.131   0.088   8.439
92888SOL    HW180561  10.048   0.066   8.483
92888SOL    HW280562  10.113   0.172   8.396
92889SOL     OW80563   5.615   4.714   8.599
92889SOL    HW180564   5.567   4.647   8.550
92889SOL    HW280565   5.662   4.764   8.532
92890SOL     OW80566  10.259   7.261  12.701
92890SOL    HW180567  10.200   7.198  12.660
92890SOL    HW280568  10.212   7.345  12.695
92891SOL     OW80569  10.524   5.361   4.317
92891SOL    HW180570  10.563   5.448   4.326
92891SOL    HW280571  10.438   5.377   4.279
92892SOL     OW80572   4.314   7.653  14.738
92892SOL    HW180573   4.333   7.560  14.725
92892SOL    HW280574   4.237   7.654  14.796
92893SOL     OW80575   8.235   5.552  14.616
92893SOL    HW180576   8.158   5.512  14.577
92893SOL    HW280577   8.205   5.637  14.648
92894SOL     OW80578   9.442  13.240  11.319
92894SOL    HW180579   9.390  13.159  11.319
92894SOL    HW280580   9.388  13.303  11.366
92895SOL     OW80581   6.428  13.334   1.349
92895SOL    HW180582   6.483  13.403   1.315
92895SOL    HW280583   6.343  13.376   1.364
92896SOL     OW80584   1.863   9.494   4.004
92896SOL    HW180585   1.804   9.524   4.073
92896SOL    HW280586   1.870   9.569   3.945
92897SOL     OW80587   3.337   6.653   1.759
92897SOL    HW180588   3.264   6.694   1.805
92897SOL    HW280589   3.399   6.725   1.745
92898SOL     OW80590  10.867  10.940   5.485
92898SOL    HW180591  10.880  11.009   5.421
92898SOL    HW280592  10.773  10.922   5.482
92899SOL     OW80593  11.664   0.260   6.180
92899SOL    HW180594  11.731   0.221   6.236
92899SOL    HW280595  11.706   0.335   6.139
92900SOL     OW80596  14.332   9.295  14.287
92900SOL    HW180597  14.404   9.256  14.237
92900SOL    HW280598  14.360   9.290  14.378
92901SOL     OW80599  13.332   4.716   1.989
92901SOL    HW180600  13.340   4.801   2.033
92901SOL    HW280601  13.397   4.660   2.032
92902SOL     OW80602   2.931   2.376   0.488
92902SOL    HW180603   2.981   2.413   0.416
92902SOL    HW280604   2.915   2.285   0.462
92903SOL     OW80605  13.436   2.052  12.047
92903SOL    HW180606  13.349   2.020  12.071
92903SOL    HW280607  13.494   2.020  12.116
92904SOL     OW80608   6.266   1.058  11.051
92904SOL    HW180609   6.337   1.121  11.064
92904SOL    HW280610   6.303   0.992  10.993
92905SOL     OW80611   2.627   7.595   6.823
92905SOL    HW180612   2.596   7.685   6.811
92905SOL    HW280613   2.563   7.542   6.776
92906SOL     OW80614   4.845   1.916  12.799
92906SOL    HW180615   4.918   1.948  12.852
92906SOL    HW280616   4.885   1.858  12.735
92907SOL     OW80617   5.560   3.433  11.336
92907SOL    HW180618   5.590   3.394  11.419
92907SOL    HW280619   5.514   3.362  11.292
92908SOL     OW80620  10.347   5.248  12.961
92908SOL    HW180621  10.264   5.201  12.950
92908SOL    HW280622  10.365   5.286  12.874
92909SOL     OW80623   2.196  11.099   3.878
92909SOL    HW180624   2.119  11.142   3.916
92909SOL    HW280625   2.251  11.079   3.953
92910SOL     OW80626   3.274   8.972   4.700
92910SOL    HW180627   3.272   9.064   4.674
92910SOL    HW280628   3.264   8.973   4.795
92911SOL     OW80629   2.108   4.015   0.400
92911SOL    HW180630   2.056   3.935   0.390
92911SOL    HW280631   2.103   4.058   0.315
92912SOL     OW80632   8.767   6.580  10.454
92912SOL    HW180633   8.758   6.664  10.499
92912SOL    HW280634   8.697   6.579  10.390
92913SOL     OW80635  11.685   6.886   7.930
92913SOL    HW180636  11.754   6.822   7.913
92913SOL    HW280637  11.608   6.850   7.885
92914SOL     OW80638   9.557   2.851   0.735
92914SOL    HW180639   9.579   2.777   0.791
92914SOL    HW280640   9.614   2.922   0.766
92915SOL     OW80641  12.711   2.814   8.219
92915SOL    HW180642  12.743   2.835   8.131
92915SOL    HW280643  12.739   2.888   8.273
92916SOL     OW80644  11.357  14.591   9.583
92916SOL    HW180645  11.434  14.544   9.550
92916SOL    HW280646  11.338  14.550   9.667
92917SOL     OW80647  11.277   8.120  11.585
92917SOL    HW180648  11.238   8.201  11.619
92917SOL    HW280649  11.222   8.050  11.620
92918SOL     OW80650   3.102  12.626   2.844
92918SOL    HW180651   3.162  12.600   2.914
92918SOL    HW280652   3.099  12.549   2.787
92919SOL     OW80653   0.619   8.145  12.932
92919SOL    HW180654   0.573   8.115  13.010
92919SOL    HW280655   0.707   8.166  12.963
92920SOL     OW80656  14.298   8.703   0.113
92920SOL    HW180657  14.330   8.788   0.142
92920SOL    HW280658  14.326   8.642   0.181
92921SOL     OW80659  13.054   1.745   5.665
92921SOL    HW180660  12.985   1.803   5.697
92921SOL    HW280661  13.075   1.778   5.578
92922SOL     OW80662   7.303   2.899   0.325
92922SOL    HW180663   7.261   2.945   0.253
92922SOL    HW280664   7.380   2.951   0.345
92923SOL     OW80665  12.123  10.207   5.574
92923SOL    HW180666  12.124  10.248   5.661
92923SOL    HW280667  12.187  10.257   5.524
92924SOL     OW80668   7.522  14.586  14.232
92924SOL    HW180669   7.524  14.574  14.327
92924SOL    HW280670   7.487  14.504  14.197
92925SOL     OW80671   3.166   9.147   7.588
92925SOL    HW180672   3.167   9.069   7.533
92925SOL    HW280673   3.249   9.191   7.570
92926SOL     OW80674   6.664   8.285   2.051
92926SOL    HW180675   6.579   8.305   2.089
92926SOL    HW280676   6.661   8.326   1.964
92927SOL     OW80677   2.563  11.215   5.128
92927SOL    HW180678   2.644  11.166   5.146
92927SOL    HW280679   2.494  11.163   5.168
92928SOL     OW80680   2.242  10.349   7.037
92928SOL    HW180681   2.241  10.270   7.091
92928SOL    HW280682   2.160  10.394   7.059
92929SOL     OW80683   3.742   2.760  13.377
92929SOL    HW180684   3.835   2.763  13.401
92929SOL    HW280685   3.719   2.851  13.360
92930SOL     OW80686   6.775   5.853   6.982
92930SOL    HW180687   6.721   5.888   7.053
92930SOL    HW280688   6.864   5.880   7.004
92931SOL     OW80689   6.401   7.401  13.578
92931SOL    HW180690   6.374   7.315  13.611
92931SOL    HW280691   6.493   7.409  13.604
92932SOL     OW80692   1.176   5.327   4.136
92932SOL    HW180693   1.123   5.386   4.082
92932SOL    HW280694   1.112   5.271   4.179
92933SOL     OW80695   1.200   8.566  11.489
92933SOL    HW180696   1.283   8.601  11.521
92933SOL    HW280697   1.138   8.581  11.561
92934SOL     OW80698  13.564   0.790   2.701
92934SOL    HW180699  13.586   0.867   2.753
92934SOL    HW280700  13.626   0.723   2.730
92935SOL     OW80701   7.376  13.164   2.379
92935SOL    HW180702   7.415  13.079   2.397
92935SOL    HW280703   7.296  13.166   2.432
92936SOL     OW80704   3.780   7.931   5.935
92936SOL    HW180705   3.742   8.017   5.954
92936SOL    HW280706   3.740   7.873   6.001
92937SOL     OW80707   5.726   2.325  10.866
92937SOL    HW180708   5.750   2.413  10.893
92937SOL    HW280709   5.630   2.322  10.876
92938SOL     OW80710  10.287   3.585   1.729
92938SOL    HW180711  10.247   3.502   1.757
92938SOL    HW280712  10.239   3.608   1.650
92939SOL     OW80713  14.841  11.922   0.203
92939SOL    HW180714   0.029  11.921   0.280
92939SOL    HW280715   0.021  11.970   0.137
92940SOL     OW80716  14.858  11.983   6.606
92940SOL    HW180717  14.862  11.959   6.513
92940SOL    HW280718   0.045  12.060   6.613
92941SOL     OW80719  14.311  12.515   9.578
92941SOL    HW180720  14.243  12.506   9.645
92941SOL    HW280721  14.364  12.589   9.607
92942SOL     OW80722  10.930   8.091   2.450
92942SOL    HW180723  10.863   8.099   2.519
92942SOL    HW280724  10.930   7.997   2.430
92943SOL     OW80725   1.220   1.954   8.918
92943SOL    HW180726   1.161   2.016   8.875
92943SOL    HW280727   1.167   1.874   8.927
92944SOL     OW80728   4.728  13.209   6.211
92944SOL    HW180729   4.677  13.145   6.162
92944SOL    HW280730   4.710  13.189   6.302
92945SOL     OW80731  10.455   6.056  11.164
92945SOL    HW180732  10.465   6.075  11.257
92945SOL    HW280733  10.487   6.135  11.120
92946SOL     OW80734   8.716  14.470   4.441
92946SOL    HW180735   8.737  14.558   4.411
92946SOL    HW280736   8.620  14.467   4.441
92947SOL     OW80737   2.845  10.381  10.156
92947SOL    HW180738   2.924  10.336  10.184
92947SOL    HW280739   2.838  10.457  10.214
92948SOL     OW80740  12.806   9.268  14.011
92948SOL    HW180741  12.789   9.316  13.931
92948SOL    HW280742  12.877   9.316  14.054
92949SOL     OW80743   3.701  11.971   4.398
92949SOL    HW180744   3.732  11.907   4.333
92949SOL    HW280745   3.726  11.932   4.482
92950SOL     OW80746   9.239   0.977   1.583
92950SOL    HW180747   9.334   0.967   1.570
92950SOL    HW280748   9.224   0.952   1.674
92951SOL     OW80749  10.054  11.105  10.039
92951SOL    HW180750  10.072  11.178   9.980
92951SOL    HW280751  10.096  11.130  10.121
92952SOL     OW80752   6.981   5.258   2.322
92952SOL    HW180753   7.059   5.262   2.267
92952SOL    HW280754   7.013   5.272   2.411
92953SOL     OW80755   2.065   2.229  13.608
92953SOL    HW180756   1.999   2.198  13.670
92953SOL    HW280757   2.016   2.248  13.528
92954SOL     OW80758   1.839   0.706   7.941
92954SOL    HW180759   1.918   0.757   7.960
92954SOL    HW280760   1.849   0.626   7.993
92955SOL     OW80761   5.574   5.744   4.267
92955SOL    HW180762   5.481   5.759   4.253
92955SOL    HW280763   5.603   5.698   4.188
92956SOL     OW80764   2.779   6.718   5.008
92956SOL    HW180765   2.764   6.630   5.042
92956SOL    HW280766   2.702   6.768   5.037
92957SOL     OW80767  11.061   3.219   6.239
92957SOL    HW180768  11.039   3.312   6.241
92957SOL    HW280769  10.979   3.175   6.218
92958SOL     OW80770  14.162   2.985  12.900
92958SOL    HW180771  14.185   3.067  12.944
92958SOL    HW280772  14.180   3.001  12.808
92959SOL     OW80773   6.540   6.001   3.632
92959SOL    HW180774   6.522   6.094   3.621
92959SOL    HW280775   6.635   5.994   3.627
92960SOL     OW80776  14.175   5.184   9.175
92960SOL    HW180777  14.250   5.156   9.122
92960SOL    HW280778  14.131   5.103   9.199
92961SOL     OW80779   6.306   5.319   9.720
92961SOL    HW180780   6.347   5.326   9.634
92961SOL    HW280781   6.256   5.237   9.716
92962SOL     OW80782   4.773  12.307   5.072
92962SOL    HW180783   4.781  12.350   5.157
92962SOL    HW280784   4.783  12.214   5.091
92963SOL     OW80785   4.241   3.876   4.992
92963SOL    HW180786   4.235   3.959   5.039
92963SOL    HW280787   4.181   3.886   4.918
92964SOL     OW80788   9.884  10.670  12.328
92964SOL    HW180789   9.837  10.592  12.298
92964SOL    HW280790   9.828  10.743  12.302
92965SOL     OW80791   0.381   8.454   7.667
92965SOL    HW180792   0.307   8.431   7.722
92965SOL    HW280793   0.374   8.396   7.591
92966SOL     OW80794   1.128   7.340   1.824
92966SOL    HW180795   1.056   7.401   1.804
92966SOL    HW280796   1.093   7.254   1.801
92967SOL     OW80797   8.174   4.036   9.802
92967SOL    HW180798   8.151   3.954   9.844
92967SOL    HW280799   8.155   4.022   9.709
92968SOL     OW80800   3.488   4.399   2.065
92968SOL    HW180801   3.494   4.444   2.149
92968SOL    HW280802   3.517   4.464   2.001
92969SOL     OW80803   3.133   3.653   2.335
92969SOL    HW180804   3.139   3.576   2.279
92969SOL    HW280805   3.040   3.676   2.334
92970SOL     OW80806   4.149   7.085   7.846
92970SOL    HW180807   4.101   7.145   7.789
92970SOL    HW280808   4.092   7.075   7.923
92971SOL     OW80809   6.095  11.655   1.174
92971SOL    HW180810   6.130  11.568   1.194
92971SOL    HW280811   6.014  11.638   1.127
92972SOL     OW80812   5.309   0.173   2.606
92972SOL    HW180813   5.331   0.140   2.693
92972SOL    HW280814   5.364   0.251   2.596
92973SOL     OW80815  12.650   8.141   3.952
92973SOL    HW180816  12.633   8.047   3.954
92973SOL    HW280817  12.669   8.163   4.044
92974SOL     OW80818   0.636   0.693   4.379
92974SOL    HW180819   0.716   0.688   4.432
92974SOL    HW280820   0.584   0.618   4.406
92975SOL     OW80821  12.114   8.585   0.540
92975SOL    HW180822  12.102   8.652   0.472
92975SOL    HW280823  12.076   8.624   0.619
92976SOL     OW80824   2.333   4.997   1.815
92976SOL    HW180825   2.424   4.980   1.788
92976SOL    HW280826   2.294   5.044   1.742
92977SOL     OW80827   6.021   7.728   5.188
92977SOL    HW180828   6.103   7.763   5.154
92977SOL    HW280829   5.967   7.805   5.205
92978SOL     OW80830   4.642   6.554   0.499
92978SOL    HW180831   4.566   6.511   0.539
92978SOL    HW280832   4.652   6.635   0.549
92979SOL     OW80833   9.227   0.077   9.833
92979SOL    HW180834   9.322   0.090   9.828
92979SOL    HW280835   9.199   0.134   9.904
92980SOL     OW80836   8.841   8.801  11.678
92980SOL    HW180837   8.767   8.742  11.693
92980SOL    HW280838   8.909   8.745  11.641
92981SOL     OW80839   5.083   8.462  12.613
92981SOL    HW180840   4.996   8.442  12.579
92981SOL    HW280841   5.113   8.535  12.559
92982SOL     OW80842   7.589   0.580   4.586
92982SOL    HW180843   7.678   0.552   4.564
92982SOL    HW280844   7.568   0.533   4.667
92983SOL     OW80845   7.887  11.604   4.485
92983SOL    HW180846   7.875  11.699   4.496
92983SOL    HW280847   7.809  11.575   4.438
92984SOL     OW80848   8.243   0.097   1.281
92984SOL    HW180849   8.211   0.023   1.332
92984SOL    HW280850   8.213   0.174   1.329
92985SOL     OW80851  14.634  13.510   1.686
92985SOL    HW180852  14.658  13.446   1.752
92985SOL    HW280853  14.628  13.593   1.733
92986SOL     OW80854  10.823   9.992  14.494
92986SOL    HW180855  10.821   9.945  14.578
92986SOL    HW280856  10.803   9.924  14.429
92987SOL     OW80857   6.070   8.705  11.879
92987SOL    HW180858   5.990   8.735  11.922
92987SOL    HW280859   6.112   8.785  11.847
92988SOL     OW80860   6.312  14.784   1.913
92988SOL    HW180861   6.262  14.862   1.891
92988SOL    HW280862   6.302  14.775   2.008
92989SOL     OW80863  10.016   4.423  10.744
92989SOL    HW180864   9.928   4.385  10.741
92989SOL    HW280865  10.059   4.377  10.817
92990SOL     OW80866   7.747  11.554   2.917
92990SOL    HW180867   7.657  11.541   2.887
92990SOL    HW280868   7.750  11.645   2.947
92991SOL     OW80869  12.188   4.821   0.877
92991SOL    HW180870  12.122   4.868   0.826
92991SOL    HW280871  12.222   4.886   0.938
92992SOL     OW80872   5.870  11.213   0.329
92992SOL    HW180873   5.823  11.293   0.352
92992SOL    HW280874   5.866  11.210   0.233
92993SOL     OW80875   3.647   9.656   5.219
92993SOL    HW180876   3.620   9.641   5.128
92993SOL    HW280877   3.626   9.748   5.235
92994SOL     OW80878   4.521   3.487   2.997
92994SOL    HW180879   4.477   3.534   3.068
92994SOL    HW280880   4.454   3.428   2.963
92995SOL     OW80881   5.680  11.490  10.311
92995SOL    HW180882   5.694  11.482  10.405
92995SOL    HW280883   5.675  11.400  10.279
92996SOL     OW80884  11.239   4.796   6.177
92996SOL    HW180885  11.205   4.825   6.092
92996SOL    HW280886  11.330   4.826   6.178
92997SOL     OW80887  13.859  12.502  13.505
92997SOL    HW180888  13.843  12.582  13.555
92997SOL    HW280889  13.902  12.443  13.567
92998SOL     OW80890   3.259  12.097   0.029
92998SOL    HW180891   3.184  12.143  14.860
92998SOL    HW280892   3.228  12.067   0.114
92999SOL     OW80893   8.841  12.089   5.440
92999SOL    HW180894   8.813  12.178   5.462
92999SOL    HW280895   8.793  12.068   5.360
93000SOL     OW80896   6.556  11.092   0.845
93000SOL    HW180897   6.645  11.101   0.812
93000SOL    HW280898   6.549  11.159   0.913
93001SOL     OW80899   5.478  13.744  12.254
93001SOL    HW180900   5.571  13.720  12.256
93001SOL    HW280901   5.475  13.829  12.297
93002SOL     OW80902   8.983  10.835   8.101
93002SOL    HW180903   8.959  10.865   8.189
93002SOL    HW280904   8.904  10.846   8.049
93003SOL     OW80905   7.756   9.953  13.282
93003SOL    HW180906   7.831  10.004  13.253
93003SOL    HW280907   7.710   9.930  13.201
93004SOL     OW80908  10.831   9.663  12.908
93004SOL    HW180909  10.809   9.582  12.861
93004SOL    HW280910  10.926   9.660  12.916
93005SOL     OW80911   2.932  12.377   6.737
93005SOL    HW180912   2.902  12.351   6.650
93005SOL    HW280913   2.856  12.420   6.777
93006SOL     OW80914  12.626   4.574   3.672
93006SOL    HW180915  12.555   4.637   3.686
93006SOL    HW280916  12.581   4.493   3.649
93007SOL     OW80917   8.652   8.935   3.489
93007SOL    HW180918   8.693   8.930   3.403
93007SOL    HW280919   8.606   9.019   3.489
93008SOL     OW80920   1.434   6.615   7.495
93008SOL    HW180921   1.365   6.675   7.525
93008SOL    HW280922   1.421   6.608   7.401
93009SOL     OW80923   3.829   2.650   9.537
93009SOL    HW180924   3.889   2.722   9.515
93009SOL    HW280925   3.756   2.693   9.582
93010SOL     OW80926  12.193   0.729   5.913
93010SOL    HW180927  12.203   0.775   5.830
93010SOL    HW280928  12.236   0.644   5.899
93011SOL     OW80929   5.355   0.721   8.687
93011SOL    HW180930   5.369   0.627   8.691
93011SOL    HW280931   5.437   0.760   8.716
93012SOL     OW80932   0.118   7.577   4.579
93012SOL    HW180933   0.182   7.641   4.610
93012SOL    HW280934   0.163   7.529   4.510
93013SOL     OW80935   4.589  14.443  10.518
93013SOL    HW180936   4.651  14.427  10.589
93013SOL    HW280937   4.513  14.482  10.559
93014SOL     OW80938   0.335   9.567   4.799
93014SOL    HW180939   0.295   9.646   4.836
93014SOL    HW280940   0.300   9.563   4.710
93015SOL     OW80941  10.982   2.926   9.767
93015SOL    HW180942  11.014   2.943   9.678
93015SOL    HW280943  10.968   3.013   9.804
93016SOL     OW80944   6.570   4.201  14.832
93016SOL    HW180945   6.508   4.161  14.772
93016SOL    HW280946   6.653   4.202  14.784
93017SOL     OW80947  10.023   4.065   9.769
93017SOL    HW180948  10.027   4.125   9.844
93017SOL    HW280949   9.952   4.100   9.714
93018SOL     OW80950  12.333   8.282  11.221
93018SOL    HW180951  12.260   8.263  11.162
93018SOL    HW280952  12.359   8.197  11.255
93019SOL     OW80953  14.714   9.070   4.773
93019SOL    HW180954  14.665   8.988   4.767
93019SOL    HW280955  14.653   9.131   4.814
93020SOL     OW80956   6.586   0.564  13.899
93020SOL    HW180957   6.620   0.588  13.985
93020SOL    HW280958   6.508   0.510  13.919
93021SOL     OW80959   1.414  13.010   9.801
93021SOL    HW180960   1.452  13.088   9.840
93021SOL    HW280961   1.379  13.040   9.717
93022SOL     OW80962  11.679  10.177   3.661
93022SOL    HW180963  11.638  10.091   3.658
93022SOL    HW280964  11.761  10.163   3.709
93023SOL     OW80965  11.885  13.220   2.830
93023SOL    HW180966  11.836  13.167   2.767
93023SOL    HW280967  11.920  13.157   2.893
93024SOL     OW80968   7.915  13.411   5.054
93024SOL    HW180969   7.860  13.422   5.131
93024SOL    HW280970   7.995  13.371   5.087
93025SOL     OW80971   1.570  12.799   9.951
93025SOL    HW180972   1.515  12.877   9.935
93025SOL    HW280973   1.618  12.788   9.869
93026SOL     OW80974   3.113   7.289   1.614
93026SOL    HW180975   3.040   7.325   1.665
93026SOL    HW280976   3.113   7.339   1.533
93027SOL     OW80977   2.749   5.943   4.326
93027SOL    HW180978   2.757   5.865   4.380
93027SOL    HW280979   2.701   5.913   4.248
93028SOL     OW80980   8.566   9.673   5.897
93028SOL    HW180981   8.526   9.647   5.980
93028SOL    HW280982   8.607   9.594   5.863
93029SOL     OW80983   1.267   8.049   2.484
93029SOL    HW180984   1.347   8.076   2.529
93029SOL    HW280985   1.282   8.072   2.392
93030SOL     OW80986   0.133  14.779   2.047
93030SOL    HW180987   0.128  14.752   2.138
93030SOL    HW280988   0.114   0.004   2.049
93031SOL     OW80989   1.390   6.110  14.664
93031SOL    HW180990   1.430   6.046  14.605
93031SOL    HW280991   1.457   6.127  14.730
93032SOL     OW80992   2.922  13.764   2.532
93032SOL    HW180993   2.853  13.720   2.583
93032SOL    HW280994   2.878  13.838   2.492
93033SOL     OW80995   0.703   2.040   5.553
93033SOL    HW180996   0.662   2.014   5.636
93033SOL    HW280997   0.639   2.015   5.486
93034SOL     OW80998   9.849   4.948   8.623
93034SOL    HW180999   9.754   4.955   8.629
93034SOL    HW281000   9.877   4.922   8.710
93035SOL     OW81001   9.111  13.267   3.661
93035SOL    HW181002   9.202  13.296   3.668
93035SOL    HW281003   9.112  13.205   3.588
93036SOL     OW81004   7.570  13.858   0.970
93036SOL    HW181005   7.630  13.918   1.016
93036SOL    HW281006   7.626  13.812   0.907
93037SOL     OW81007  13.449   1.943   2.238
93037SOL    HW181008  13.443   1.852   2.267
93037SOL    HW281009  13.358   1.972   2.231
93038SOL     OW81010  13.961   2.460   2.283
93038SOL    HW181011  14.055   2.462   2.266
93038SOL    HW281012  13.943   2.367   2.300
93039SOL     OW81013   6.335   4.029  14.086
93039SOL    HW181014   6.294   3.964  14.029
93039SOL    HW281015   6.266   4.056  14.146
93040SOL     OW81016   9.799   1.744   3.885
93040SOL    HW181017   9.890   1.757   3.859
93040SOL    HW281018   9.758   1.702   3.810
93041SOL     OW81019  11.267  13.903   4.490
93041SOL    HW181020  11.182  13.890   4.532
93041SOL    HW281021  11.266  13.844   4.415
93042SOL     OW81022  11.124   0.951  14.043
93042SOL    HW181023  11.101   0.866  14.082
93042SOL    HW281024  11.046   0.977  13.995
93043SOL     OW81025   4.249   3.404  10.869
93043SOL    HW181026   4.238   3.472  10.936
93043SOL    HW281027   4.342   3.405  10.848
93044SOL     OW81028   0.879  14.233  11.634
93044SOL    HW181029   0.844  14.235  11.545
93044SOL    HW281030   0.964  14.277  11.628
93045SOL     OW81031   9.719   9.304   8.105
93045SOL    HW181032   9.753   9.221   8.073
93045SOL    HW281033   9.729   9.298   8.200
93046SOL     OW81034   3.784   9.585   0.326
93046SOL    HW181035   3.823   9.565   0.240
93046SOL    HW281036   3.806   9.678   0.340
93047SOL     OW81037   4.575   5.877   6.529
93047SOL    HW181038   4.653   5.824   6.547
93047SOL    HW281039   4.598   5.965   6.559
93048SOL     OW81040  13.798   1.855  13.732
93048SOL    HW181041  13.712   1.830  13.768
93048SOL    HW281042  13.800   1.950  13.738
93049SOL     OW81043  12.998  14.462   3.308
93049SOL    HW181044  12.934  14.401   3.270
93049SOL    HW281045  13.052  14.407   3.365
93050SOL     OW81046  13.009   1.278   4.005
93050SOL    HW181047  13.087   1.242   3.962
93050SOL    HW281048  13.009   1.371   3.980
93051SOL     OW81049   8.498   9.689  13.385
93051SOL    HW181050   8.576   9.660  13.432
93051SOL    HW281051   8.532   9.731  13.306
93052SOL     OW81052   2.156  10.695  10.512
93052SOL    HW181053   2.185  10.783  10.534
93052SOL    HW281054   2.222  10.661  10.452
93053SOL     OW81055  10.746   5.678   1.090
93053SOL    HW181056  10.743   5.717   1.003
93053SOL    HW281057  10.839   5.659   1.105
93054SOL     OW81058   1.475   9.109   1.206
93054SOL    HW181059   1.452   9.017   1.223
93054SOL    HW281060   1.520   9.137   1.286
93055SOL     OW81061   6.040  11.879   2.915
93055SOL    HW181062   5.976  11.811   2.936
93055SOL    HW281063   6.068  11.913   2.999
93056SOL     OW81064   7.869  11.437  13.497
93056SOL    HW181065   7.907  11.350  13.509
93056SOL    HW281066   7.871  11.477  13.584
93057SOL     OW81067   1.491   6.901  10.934
93057SOL    HW181068   1.472   6.810  10.959
93057SOL    HW281069   1.520   6.942  11.015
93058SOL     OW81070   6.677   5.842  12.573
93058SOL    HW181071   6.648   5.911  12.633
93058SOL    HW281072   6.755   5.879  12.531
93059SOL     OW81073   6.480  11.672   2.077
93059SOL    HW181074   6.405  11.638   2.027
93059SOL    HW281075   6.449  11.675   2.167
93060SOL     OW81076   3.113   7.363   2.622
93060SOL    HW181077   3.152   7.282   2.653
93060SOL    HW281078   3.103   7.417   2.701
93061SOL     OW81079   4.797   5.454   9.184
93061SOL    HW181080   4.756   5.368   9.177
93061SOL    HW281081   4.863   5.443   9.253
93062SOL     OW81082   3.838   2.194   5.409
93062SOL    HW181083   3.818   2.238   5.491
93062SOL    HW281084   3.932   2.210   5.396
93063SOL     OW81085   4.680   8.950   5.535
93063SOL    HW181086   4.745   8.915   5.474
93063SOL    HW281087   4.657   8.876   5.590
93064SOL     OW81088  13.894   3.031   2.564
93064SOL    HW181089  13.851   3.106   2.604
93064SOL    HW281090  13.829   2.961   2.569
93065SOL     OW81091   6.093   4.297   4.896
93065SOL    HW181092   6.115   4.370   4.839
93065SOL    HW281093   6.071   4.337   4.980
93066SOL     OW81094  11.921  12.854  10.822
93066SOL    HW181095  12.001  12.820  10.782
93066SOL    HW281096  11.951  12.926  10.878
93067SOL     OW81097   4.402   7.350   5.987
93067SOL    HW181098   4.493   7.379   5.989
93067SOL    HW281099   4.361   7.405   5.920
93068SOL     OW81100   4.910  11.373   5.230
93068SOL    HW181101   4.945  11.427   5.301
93068SOL    HW281102   4.858  11.305   5.274
93069SOL     OW81103   7.996   3.569  12.021
93069SOL    HW181104   7.937   3.565  12.097
93069SOL    HW281105   8.084   3.570  12.060
93070SOL     OW81106   2.142   5.401   3.538
93070SOL    HW181107   2.102   5.384   3.453
93070SOL    HW281108   2.235   5.415   3.518
93071SOL     OW81109   7.246   4.152   1.108
93071SOL    HW181110   7.210   4.078   1.059
93071SOL    HW281111   7.310   4.191   1.049
93072SOL     OW81112  12.478   9.704  10.740
93072SOL    HW181113  12.495   9.794  10.768
93072SOL    HW281114  12.387   9.688  10.767
93073SOL     OW81115   2.748  11.142  14.183
93073SOL    HW181116   2.751  11.235  14.160
93073SOL    HW281117   2.684  11.136  14.253
93074SOL     OW81118   7.625   9.469   4.927
93074SOL    HW181119   7.632   9.560   4.897
93074SOL    HW281120   7.703   9.456   4.981
93075SOL     OW81121  13.331   4.230  10.832
93075SOL    HW181122  13.352   4.140  10.857
93075SOL    HW281123  13.381   4.284  10.893
93076SOL     OW81124   7.379   3.999  11.918
93076SOL    HW181125   7.428   3.920  11.898
93076SOL    HW281126   7.349   4.031  11.833
93077SOL     OW81127   9.521  12.813   7.847
93077SOL    HW181128   9.470  12.815   7.766
93077SOL    HW281129   9.465  12.857   7.911
93078SOL     OW81130  11.710  11.049  14.546
93078SOL    HW181131  11.703  11.137  14.582
93078SOL    HW281132  11.804  11.032  14.540
93079SOL     OW81133   0.663   4.487   1.822
93079SOL    HW181134   0.598   4.492   1.892
93079SOL    HW281135   0.695   4.577   1.812
93080SOL     OW81136  12.781   0.307   2.599
93080SOL    HW181137  12.789   0.229   2.544
93080SOL    HW281138  12.792   0.274   2.688
93081SOL     OW81139   9.146   2.437  14.520
93081SOL    HW181140   9.238   2.451  14.500
93081SOL    HW281141   9.130   2.489  14.599
93082SOL     OW81142   4.651   6.567   5.832
93082SOL    HW181143   4.586   6.628   5.868
93082SOL    HW281144   4.603   6.518   5.765
93083SOL     OW81145   6.303  13.394   2.009
93083SOL    HW181146   6.302  13.482   2.048
93083SOL    HW281147   6.345  13.339   2.074
93084SOL     OW81148  10.725   8.597  11.503
93084SOL    HW181149  10.719   8.625  11.411
93084SOL    HW281150  10.664   8.655  11.549
93085SOL     OW81151   1.362  11.177   8.585
93085SOL    HW181152   1.318  11.257   8.555
93085SOL    HW281153   1.294  11.129   8.632
93086SOL     OW81154   7.189   5.871   7.281
93086SOL    HW181155   7.245   5.805   7.241
93086SOL    HW281156   7.248   5.943   7.304
93087SOL     OW81157  12.981  13.081   8.166
93087SOL    HW181158  13.047  13.016   8.143
93087SOL    HW281159  12.975  13.077   8.261
93088SOL     OW81160  12.895  12.224  12.028
93088SOL    HW181161  12.838  12.214  12.104
93088SOL    HW281162  12.854  12.172  11.960
93089SOL     OW81163  14.153   8.992   2.089
93089SOL    HW181164  14.209   8.914   2.089
93089SOL    HW281165  14.130   9.005   1.997
93090SOL     OW81166   6.815   8.916   0.931
93090SOL    HW181167   6.774   8.881   1.010
93090SOL    HW281168   6.766   8.878   0.859
93091SOL     OW81169  14.737  12.807   3.239
93091SOL    HW181170  14.819  12.850   3.217
93091SOL    HW281171  14.738  12.725   3.190
93092SOL     OW81172   3.673  11.406  11.065
93092SOL    HW181173   3.669  11.378  10.974
93092SOL    HW281174   3.727  11.340  11.109
93093SOL     OW81175   5.232   9.382  14.674
93093SOL    HW181176   5.234   9.472  14.642
93093SOL    HW281177   5.322   9.352  14.667
93094SOL     OW81178   3.300  14.666   1.152
93094SOL    HW181179   3.289  14.746   1.204
93094SOL    HW281180   3.243  14.680   1.076
93095SOL     OW81181  14.291  13.791  13.435
93095SOL    HW181182  14.330  13.710  13.402
93095SOL    HW281183  14.199  13.770  13.449
93096SOL     OW81184   2.673   3.187   9.131
93096SOL    HW181185   2.626   3.263   9.095
93096SOL    HW281186   2.645   3.183   9.223
93097SOL     OW81187   2.603   8.218   8.493
93097SOL    HW181188   2.657   8.296   8.503
93097SOL    HW281189   2.574   8.197   8.582
93098SOL     OW81190   0.764   1.835   6.737
93098SOL    HW181191   0.799   1.863   6.652
93098SOL    HW281192   0.823   1.876   6.801
93099SOL     OW81193  12.073  14.119  13.804
93099SOL    HW181194  12.045  14.087  13.718
93099SOL    HW281195  12.157  14.161  13.788
93100SOL     OW81196  11.669  13.728  11.156
93100SOL    HW181197  11.658  13.672  11.079
93100SOL    HW281198  11.725  13.800  11.125
93101SOL     OW81199   1.485  11.143   6.578
93101SOL    HW181200   1.442  11.216   6.622
93101SOL    HW281201   1.481  11.072   6.642
93102SOL     OW81202   9.588   3.550   7.556
93102SOL    HW181203   9.515   3.512   7.507
93102SOL    HW281204   9.586   3.505   7.640
93103SOL     OW81205   1.171   2.508   0.996
93103SOL    HW181206   1.155   2.497   1.089
93103SOL    HW281207   1.088   2.541   0.961
93104SOL     OW81208  11.155   2.877  13.053
93104SOL    HW181209  11.115   2.794  13.028
93104SOL    HW281210  11.080   2.935  13.071
93105SOL     OW81211   2.305   0.720  12.667
93105SOL    HW181212   2.237   0.779  12.635
93105SOL    HW281213   2.377   0.729  12.605
93106SOL     OW81214   8.414  11.830   0.119
93106SOL    HW181215   8.466  11.829   0.039
93106SOL    HW281216   8.360  11.908   0.112
93107SOL     OW81217  13.225   5.280   1.682
93107SOL    HW181218  13.251   5.370   1.664
93107SOL    HW281219  13.140   5.270   1.639
93108SOL     OW81220   9.609   8.775  12.291
93108SOL    HW181221   9.594   8.869  12.302
93108SOL    HW281222   9.704   8.767  12.282
93109SOL     OW81223   6.508   9.464   5.777
93109SOL    HW181224   6.583   9.510   5.817
93109SOL    HW281225   6.546   9.384   5.740
93110SOL     OW81226   7.729  13.010  14.479
93110SOL    HW181227   7.747  12.916  14.477
93110SOL    HW281228   7.793  13.049  14.419
93111SOL     OW81229   8.501   1.339   9.199
93111SOL    HW181230   8.527   1.301   9.283
93111SOL    HW281231   8.582   1.375   9.163
93112SOL     OW81232  11.942  12.634  12.035
93112SOL    HW181233  11.967  12.726  12.045
93112SOL    HW281234  11.998  12.601  11.965
93113SOL     OW81235   1.252   9.767  13.605
93113SOL    HW181236   1.202   9.701  13.557
93113SOL    HW281237   1.255   9.843  13.547
93114SOL     OW81238  14.781  10.647   4.383
93114SOL    HW181239  14.737  10.701   4.449
93114SOL    HW281240  14.709  10.611   4.330
93115SOL     OW81241   6.095  14.245   2.574
93115SOL    HW181242   6.150  14.262   2.651
93115SOL    HW281243   6.045  14.326   2.563
93116SOL     OW81244   7.689   9.872   0.827
93116SOL    HW181245   7.690   9.898   0.735
93116SOL    HW281246   7.598   9.884   0.855
93117SOL     OW81247  14.546  11.339   9.050
93117SOL    HW181248  14.611  11.339   8.979
93117SOL    HW281249  14.507  11.426   9.046
93118SOL     OW81250  14.353   1.599   6.675
93118SOL    HW181251  14.366   1.593   6.769
93118SOL    HW281252  14.343   1.509   6.646
93119SOL     OW81253  11.394   7.085  14.491
93119SOL    HW181254  11.447   7.039  14.425
93119SOL    HW281255  11.306   7.088  14.453
93120SOL     OW81256  10.438   7.356  12.023
93120SOL    HW181257  10.363   7.408  11.995
93120SOL    HW281258  10.495   7.418  12.068
93121SOL     OW81259  13.406   7.836  14.150
93121SOL    HW181260  13.328   7.784  14.133
93121SOL    HW281261  13.463   7.819  14.075
93122SOL     OW81262   3.852  11.740   7.717
93122SOL    HW181263   3.914  11.732   7.644
93122SOL    HW281264   3.788  11.804   7.687
93123SOL     OW81265   0.356   6.743   1.867
93123SOL    HW181266   0.441   6.703   1.882
93123SOL    HW281267   0.366   6.834   1.897
93124SOL     OW81268   9.872   2.336   7.029
93124SOL    HW181269   9.882   2.284   7.108
93124SOL    HW281270   9.933   2.409   7.040
93125SOL     OW81271  11.937  10.127   5.347
93125SOL    HW181272  12.013  10.149   5.401
93125SOL    HW281273  11.929  10.032   5.353
93126SOL     OW81274  11.103   1.984   8.031
93126SOL    HW181275  11.172   2.028   8.081
93126SOL    HW281276  11.126   2.000   7.940
93127SOL     OW81277   9.376  11.290   9.150
93127SOL    HW181278   9.287  11.319   9.132
93127SOL    HW281279   9.368  11.230   9.224
93128SOL     OW81280  14.848   9.263   1.782
93128SOL    HW181281  14.811   9.192   1.834
93128SOL    HW281282  14.773   9.311   1.749
93129SOL     OW81283   0.418   5.264  12.498
93129SOL    HW181284   0.493   5.293  12.446
93129SOL    HW281285   0.343   5.279  12.441
93130SOL     OW81286   2.652   6.900  11.031
93130SOL    HW181287   2.717   6.843  11.072
93130SOL    HW281288   2.674   6.988  11.062
93131SOL     OW81289  10.231  13.412  10.835
93131SOL    HW181290  10.178  13.351  10.784
93131SOL    HW281291  10.321  13.381  10.823
93132SOL     OW81292   3.806   3.203   3.947
93132SOL    HW181293   3.866   3.237   3.881
93132SOL    HW281294   3.726   3.255   3.937
93133SOL     OW81295   6.839  12.989  11.672
93133SOL    HW181296   6.823  12.913  11.616
93133SOL    HW281297   6.889  12.954  11.746
93134SOL     OW81298   3.758  12.947   1.325
93134SOL    HW181299   3.756  13.030   1.373
93134SOL    HW281300   3.826  12.959   1.259
93135SOL     OW81301   1.902  13.335   9.640
93135SOL    HW181302   1.889  13.429   9.626
93135SOL    HW281303   1.955  13.307   9.566
93136SOL     OW81304   6.271   1.746   1.324
93136SOL    HW181305   6.227   1.794   1.394
93136SOL    HW281306   6.362   1.773   1.329
93137SOL     OW81307   9.969   9.566   2.268
93137SOL    HW181308   9.985   9.643   2.323
93137SOL    HW281309  10.049   9.514   2.276
93138SOL     OW81310   7.841   3.381  13.915
93138SOL    HW181311   7.786   3.454  13.945
93138SOL    HW281312   7.907   3.423  13.859
93139SOL     OW81313  14.398   3.172   4.494
93139SOL    HW181314  14.396   3.252   4.442
93139SOL    HW281315  14.310   3.164   4.529
93140SOL     OW81316  10.308   1.124   8.813
93140SOL    HW181317  10.326   1.196   8.874
93140SOL    HW281318  10.394   1.083   8.798
93141SOL     OW81319   9.966   8.721   2.025
93141SOL    HW181320   9.957   8.724   2.120
93141SOL    HW281321  10.030   8.788   2.004
93142SOL     OW81322   3.743   1.935  12.695
93142SOL    HW181323   3.654   1.965  12.712
93142SOL    HW281324   3.797   1.984  12.758
93143SOL     OW81325   0.201   1.560   2.093
93143SOL    HW181326   0.125   1.521   2.050
93143SOL    HW281327   0.261   1.486   2.109
93144SOL     OW81328  13.808   2.446   0.370
93144SOL    HW181329  13.794   2.470   0.461
93144SOL    HW281330  13.840   2.355   0.374
93145SOL     OW81331  11.119   9.600  10.090
93145SOL    HW181332  11.058   9.610  10.163
93145SOL    HW281333  11.087   9.524  10.042
93146SOL     OW81334  14.150  13.655   8.542
93146SOL    HW181335  14.116  13.736   8.505
93146SOL    HW281336  14.160  13.673   8.636
93147SOL     OW81337   8.611   8.834   8.944
93147SOL    HW181338   8.630   8.741   8.935
93147SOL    HW281339   8.687   8.879   8.906
93148SOL     OW81340   9.977   8.346   1.447
93148SOL    HW181341   9.926   8.373   1.370
93148SOL    HW281342   9.931   8.269   1.481
93149SOL     OW81343  12.034   6.510   6.961
93149SOL    HW181344  12.054   6.428   6.915
93149SOL    HW281345  11.959   6.546   6.913
93150SOL     OW81346  11.267  11.476   7.441
93150SOL    HW181347  11.172  11.473   7.444
93150SOL    HW281348  11.288  11.565   7.413
93151SOL     OW81349  11.246  12.144   4.015
93151SOL    HW181350  11.337  12.144   3.985
93151SOL    HW281351  11.199  12.091   3.950
93152SOL     OW81352   3.424   4.822  11.237
93152SOL    HW181353   3.412   4.781  11.323
93152SOL    HW281354   3.336   4.827  11.200
93153SOL     OW81355   5.362   4.666  10.903
93153SOL    HW181356   5.366   4.630  10.814
93153SOL    HW281357   5.453   4.688  10.923
93154SOL     OW81358  13.759  13.577   9.442
93154SOL    HW181359  13.826  13.522   9.402
93154SOL    HW281360  13.800  13.663   9.449
93155SOL     OW81361   6.403  11.591  14.051
93155SOL    HW181362   6.436  11.504  14.029
93155SOL    HW281363   6.310  11.577  14.069
93156SOL     OW81364   6.392   7.504   2.169
93156SOL    HW181365   6.436   7.421   2.184
93156SOL    HW281366   6.335   7.516   2.245
93157SOL     OW81367  13.864   3.061  10.281
93157SOL    HW181368  13.941   3.117  10.280
93157SOL    HW281369  13.811   3.095  10.354
93158SOL     OW81370   7.531   2.686  13.060
93158SOL    HW181371   7.591   2.689  13.135
93158SOL    HW281372   7.478   2.765  13.067
93159SOL     OW81373   0.771   8.208   0.477
93159SOL    HW181374   0.761   8.190   0.383
93159SOL    HW281375   0.860   8.241   0.486
93160SOL     OW81376   4.795   2.279  12.289
93160SOL    HW181377   4.790   2.355  12.347
93160SOL    HW281378   4.829   2.209  12.344
93161SOL     OW81379  11.461   8.548   6.090
93161SOL    HW181380  11.427   8.615   6.150
93161SOL    HW281381  11.556   8.548   6.105
93162SOL     OW81382   1.018  14.282   0.238
93162SOL    HW181383   0.998  14.281   0.144
93162SOL    HW281384   0.937  14.311   0.279
93163SOL     OW81385   9.891   2.709   5.358
93163SOL    HW181386   9.909   2.781   5.418
93163SOL    HW281387   9.941   2.731   5.279
93164SOL     OW81388   0.143   3.081   4.495
93164SOL    HW181389   0.059   3.124   4.515
93164SOL    HW281390   0.164   3.033   4.575
93165SOL     OW81391  13.061   3.672  13.553
93165SOL    HW181392  13.139   3.616  13.559
93165SOL    HW281393  12.990   3.617  13.586
93166SOL     OW81394   8.944   7.586   1.710
93166SOL    HW181395   8.930   7.522   1.640
93166SOL    HW281396   9.039   7.583   1.726
93167SOL     OW81397   9.445  11.404  14.326
93167SOL    HW181398   9.495  11.366  14.254
93167SOL    HW281399   9.361  11.429  14.286
93168SOL     OW81400   1.958   9.059   9.077
93168SOL    HW181401   1.907   9.126   9.123
93168SOL    HW281402   2.011   9.018   9.145
93169SOL     OW81403  13.887  13.511   3.749
93169SOL    HW181404  13.889  13.530   3.843
93169SOL    HW281405  13.814  13.451   3.738
93170SOL     OW81406   4.126   8.332   4.675
93170SOL    HW181407   4.119   8.254   4.728
93170SOL    HW281408   4.079   8.311   4.594
93171SOL     OW81409   4.775   0.251   9.235
93171SOL    HW181410   4.770   0.307   9.157
93171SOL    HW281411   4.684   0.234   9.258
93172SOL     OW81412   2.732   7.732   2.113
93172SOL    HW181413   2.722   7.666   2.182
93172SOL    HW281414   2.777   7.805   2.157
93173SOL     OW81415  13.559  11.159  13.313
93173SOL    HW181416  13.516  11.201  13.239
93173SOL    HW281417  13.527  11.206  13.390
93174SOL     OW81418   8.506  11.697   7.093
93174SOL    HW181419   8.423  11.690   7.046
93174SOL    HW281420   8.562  11.749   7.035
93175SOL     OW81421   2.619   3.675   4.859
93175SOL    HW181422   2.524   3.684   4.862
93175SOL    HW281423   2.650   3.711   4.942
93176SOL     OW81424   3.146  10.484  11.438
93176SOL    HW181425   3.134  10.528  11.354
93176SOL    HW281426   3.238  10.498  11.459
93177SOL     OW81427   7.696  13.051   6.753
93177SOL    HW181428   7.611  13.095   6.746
93177SOL    HW281429   7.723  13.036   6.663
93178SOL     OW81430  12.201   5.899   6.348
93178SOL    HW181431  12.229   5.844   6.276
93178SOL    HW281432  12.161   5.975   6.306
93179SOL     OW81433   4.263   2.736   7.797
93179SOL    HW181434   4.321   2.753   7.872
93179SOL    HW281435   4.180   2.709   7.837
93180SOL     OW81436   0.225  11.228  12.533
93180SOL    HW181437   0.159  11.275  12.483
93180SOL    HW281438   0.288  11.295  12.559
93181SOL     OW81439  11.050  14.232   0.672
93181SOL    HW181440  11.119  14.243   0.608
93181SOL    HW281441  11.070  14.148   0.715
93182SOL     OW81442  10.010  10.728   3.070
93182SOL    HW181443   9.937  10.683   3.028
93182SOL    HW281444  10.043  10.665   3.134
93183SOL     OW81445   7.037   8.506   6.541
93183SOL    HW181446   7.026   8.440   6.609
93183SOL    HW281447   7.107   8.563   6.574
93184SOL     OW81448  14.441  14.570  11.783
93184SOL    HW181449  14.355  14.539  11.753
93184SOL    HW281450  14.425  14.657  11.818
93185SOL     OW81451   8.554   1.948   8.212
93185SOL    HW181452   8.522   2.017   8.270
93185SOL    HW281453   8.599   1.995   8.142
93186SOL     OW81454   0.224  11.356   5.051
93186SOL    HW181455   0.184  11.438   5.080
93186SOL    HW281456   0.297  11.383   4.995
93187SOL     OW81457  13.075   3.230   2.656
93187SOL    HW181458  13.112   3.292   2.593
93187SOL    HW281459  13.088   3.144   2.616
93188SOL     OW81460   9.603  13.719   4.412
93188SOL    HW181461   9.557  13.637   4.397
93188SOL    HW281462   9.535  13.781   4.437
93189SOL     OW81463   6.361   2.142   9.645
93189SOL    HW181464   6.402   2.067   9.603
93189SOL    HW281465   6.431   2.181   9.697
93190SOL     OW81466  10.117  12.508   4.823
93190SOL    HW181467  10.052  12.532   4.757
93190SOL    HW281468  10.170  12.587   4.834
93191SOL     OW81469   0.526  11.176  10.890
93191SOL    HW181470   0.577  11.104  10.853
93191SOL    HW281471   0.511  11.150  10.981
93192SOL     OW81472   6.534   0.940   6.500
93192SOL    HW181473   6.439   0.942   6.487
93192SOL    HW281474   6.547   0.884   6.577
93193SOL     OW81475  14.785   3.453   5.488
93193SOL    HW181476  14.826   3.534   5.459
93193SOL    HW281477  14.746   3.474   5.572
93194SOL     OW81478  10.615  11.847   9.912
93194SOL    HW181479  10.612  11.886   9.999
93194SOL    HW281480  10.684  11.780   9.918
93195SOL     OW81481  11.448   8.835   4.165
93195SOL    HW181482  11.473   8.927   4.163
93195SOL    HW281483  11.353   8.836   4.151
93196SOL     OW81484   3.832   5.895   2.642
93196SOL    HW181485   3.910   5.852   2.607
93196SOL    HW281486   3.769   5.823   2.656
93197SOL     OW81487  14.352   3.832  14.244
93197SOL    HW181488  14.349   3.919  14.283
93197SOL    HW281489  14.423   3.837  14.180
93198SOL     OW81490  13.028   9.656  13.331
93198SOL    HW181491  13.120   9.681  13.324
93198SOL    HW281492  12.990   9.722  13.389
93199SOL     OW81493   7.469   2.967  12.662
93199SOL    HW181494   7.505   2.907  12.596
93199SOL    HW281495   7.420   2.911  12.722
93200SOL     OW81496  10.098  12.000   9.788
93200SOL    HW181497  10.024  11.941   9.769
93200SOL    HW281498  10.077  12.037   9.874
93201SOL     OW81499   3.858   5.411   8.607
93201SOL    HW181500   3.828   5.490   8.561
93201SOL    HW281501   3.944   5.434   8.640
93202SOL     OW81502   2.137   0.314  12.197
93202SOL    HW181503   2.113   0.314  12.290
93202SOL    HW281504   2.216   0.368  12.193
93203SOL     OW81505  10.549   0.936   6.217
93203SOL    HW181506  10.569   1.024   6.246
93203SOL    HW281507  10.634   0.893   6.209
93204SOL     OW81508   4.331   2.905   2.079
93204SOL    HW181509   4.269   2.974   2.102
93204SOL    HW281510   4.314   2.886   1.987
93205SOL     OW81511   4.189  10.238   7.600
93205SOL    HW181512   4.208  10.171   7.666
93205SOL    HW281513   4.275  10.261   7.563
93206SOL     OW81514  14.754   2.212   1.350
93206SOL    HW181515  14.746   2.280   1.284
93206SOL    HW281516  14.692   2.238   1.419
93207SOL     OW81517   5.496  14.494   7.823
93207SOL    HW181518   5.549  14.414   7.823
93207SOL    HW281519   5.535  14.548   7.755
93208SOL     OW81520   8.915   7.241  14.772
93208SOL    HW181521   8.854   7.185  14.723
93208SOL    HW281522   8.970   7.279  14.704
93209SOL     OW81523   8.012   2.493  14.376
93209SOL    HW181524   8.077   2.503  14.308
93209SOL    HW281525   8.061   2.499  14.458
93210SOL     OW81526   8.379  14.696   2.185
93210SOL    HW181527   8.347  14.733   2.267
93210SOL    HW281528   8.455  14.749   2.162
93211SOL     OW81529  11.380   6.769   1.785
93211SOL    HW181530  11.334   6.841   1.741
93211SOL    HW281531  11.322   6.694   1.776
93212SOL     OW81532   8.671  10.690   1.150
93212SOL    HW181533   8.601  10.756   1.145
93212SOL    HW281534   8.627  10.612   1.184
93213SOL     OW81535  12.245  13.749   2.524
93213SOL    HW181536  12.235  13.723   2.615
93213SOL    HW281537  12.228  13.669   2.474
93214SOL     OW81538  14.270   5.428  14.093
93214SOL    HW181539  14.292   5.336  14.105
93214SOL    HW281540  14.222   5.452  14.173
93215SOL     OW81541   1.419   3.759   5.239
93215SOL    HW181542   1.352   3.805   5.290
93215SOL    HW281543   1.453   3.693   5.299
93216SOL     OW81544   8.012  12.699  12.637
93216SOL    HW181545   8.049  12.787  12.639
93216SOL    HW281546   8.088  12.641  12.636
93217SOL     OW81547   5.430  12.414   0.477
93217SOL    HW181548   5.392  12.462   0.550
93217SOL    HW281549   5.356  12.397   0.418
93218SOL     OW81550   6.939   9.497  10.034
93218SOL    HW181551   6.955   9.403  10.021
93218SOL    HW281552   6.994   9.540   9.969
93219SOL     OW81553   1.759   7.282  11.027
93219SOL    HW181554   1.828   7.246  10.972
93219SOL    HW281555   1.799   7.292  11.113
93220SOL     OW81556  14.138   0.191   1.019
93220SOL    HW181557  14.111   0.171   1.109
93220SOL    HW281558  14.056   0.200   0.970
93221SOL     OW81559   2.179  13.675  12.045
93221SOL    HW181560   2.206  13.585  12.063
93221SOL    HW281561   2.182  13.719  12.130
93222SOL     OW81562   9.274  12.318   0.906
93222SOL    HW181563   9.317  12.284   0.828
93222SOL    HW281564   9.213  12.248   0.932
93223SOL     OW81565  11.860   6.010   2.189
93223SOL    HW181566  11.861   5.948   2.262
93223SOL    HW281567  11.883   6.094   2.229
93224SOL     OW81568   4.011   1.382   8.595
93224SOL    HW181569   3.937   1.358   8.538
93224SOL    HW281570   4.045   1.463   8.557
93225SOL     OW81571   7.061  10.957   3.337
93225SOL    HW181572   7.056  11.023   3.268
93225SOL    HW281573   7.128  10.989   3.397
93226SOL     OW81574   6.561   9.764   1.315
93226SOL    HW181575   6.533   9.733   1.229
93226SOL    HW281576   6.653   9.787   1.303
93227SOL     OW81577   6.644   6.096  10.973
93227SOL    HW181578   6.729   6.091  10.929
93227SOL    HW281579   6.653   6.038  11.049
93228SOL     OW81580   4.947   5.192   4.408
93228SOL    HW181581   4.861   5.155   4.431
93228SOL    HW281582   4.952   5.273   4.458
93229SOL     OW81583   3.664  13.130   1.116
93229SOL    HW181584   3.618  13.122   1.200
93229SOL    HW281585   3.743  13.180   1.137
93230SOL     OW81586   5.101  12.666  14.674
93230SOL    HW181587   5.164  12.666  14.601
93230SOL    HW281588   5.140  12.725  14.739
93231SOL     OW81589   0.205  10.845   7.934
93231SOL    HW181590   0.231  10.791   8.009
93231SOL    HW281591   0.283  10.847   7.879
93232SOL     OW81592   2.982   8.889  12.669
93232SOL    HW181593   2.993   8.947  12.593
93232SOL    HW281594   2.967   8.949  12.742
93233SOL     OW81595  13.804   7.411  11.268
93233SOL    HW181596  13.831   7.435  11.179
93233SOL    HW281597  13.812   7.492  11.318
93234SOL     OW81598   0.498  10.682   0.493
93234SOL    HW181599   0.411  10.644   0.492
93234SOL    HW281600   0.516  10.704   0.402
93235SOL     OW81601   3.626   7.453  14.466
93235SOL    HW181602   3.687   7.386  14.437
93235SOL    HW281603   3.681   7.525  14.495
93236SOL     OW81604   6.338   3.820  11.984
93236SOL    HW181605   6.319   3.808  12.077
93236SOL    HW281606   6.274   3.884  11.954
93237SOL     OW81607  14.390   9.029   6.538
93237SOL    HW181608  14.368   9.100   6.598
93237SOL    HW281609  14.345   9.051   6.456
93238SOL     OW81610   0.644   8.778   9.542
93238SOL    HW181611   0.555   8.745   9.529
93238SOL    HW281612   0.699   8.700   9.548
93239SOL     OW81613   5.754   9.853   9.047
93239SOL    HW181614   5.690   9.782   9.037
93239SOL    HW281615   5.732   9.915   8.978
93240SOL     OW81616   2.046   9.675  12.415
93240SOL    HW181617   2.084   9.588  12.405
93240SOL    HW281618   2.121   9.733  12.425
93241SOL     OW81619  12.729   8.329   9.587
93241SOL    HW181620  12.674   8.263   9.628
93241SOL    HW281621  12.674   8.367   9.518
93242SOL     OW81622  10.049   6.782  10.468
93242SOL    HW181623   9.982   6.849  10.484
93242SOL    HW281624  10.020   6.738  10.387
93243SOL     OW81625   3.522   7.077   8.679
93243SOL    HW181626   3.440   7.027   8.677
93243SOL    HW281627   3.516   7.135   8.603
93244SOL     OW81628  14.818   4.702  13.617
93244SOL    HW181629  14.792   4.650  13.541
93244SOL    HW281630  14.795   4.647  13.692
93245SOL     OW81631   3.166  10.230  11.188
93245SOL    HW181632   3.139  10.199  11.275
93245SOL    HW281633   3.094  10.286  11.159
93246SOL     OW81634   0.497   7.489   8.046
93246SOL    HW181635   0.567   7.460   8.105
93246SOL    HW281636   0.466   7.570   8.085
93247SOL     OW81637   3.517   0.220   3.044
93247SOL    HW181638   3.473   0.299   3.012
93247SOL    HW281639   3.515   0.160   2.969
93248SOL     OW81640   9.250   6.601   1.641
93248SOL    HW181641   9.263   6.677   1.698
93248SOL    HW281642   9.240   6.527   1.702
93249SOL     OW81643  14.556  13.871  10.802
93249SOL    HW181644  14.555  13.808  10.730
93249SOL    HW281645  14.583  13.820  10.878
93250SOL     OW81646   2.630   4.684   6.040
93250SOL    HW181647   2.674   4.769   6.033
93250SOL    HW281648   2.540   4.705   6.065
93251SOL     OW81649   7.763   1.140   0.815
93251SOL    HW181650   7.708   1.067   0.846
93251SOL    HW281651   7.716   1.219   0.842
93252SOL     OW81652   7.815   7.874   3.826
93252SOL    HW181653   7.801   7.787   3.863
93252SOL    HW281654   7.728   7.910   3.815
93253SOL     OW81655   9.159   3.439   8.876
93253SOL    HW181656   9.124   3.491   8.804
93253SOL    HW281657   9.179   3.354   8.837
93254SOL     OW81658   7.288   8.401  12.022
93254SOL    HW181659   7.232   8.456  12.077
93254SOL    HW281660   7.246   8.403  11.936
93255SOL     OW81661   3.306  12.620  10.528
93255SOL    HW181662   3.343  12.630  10.615
93255SOL    HW281663   3.231  12.680  10.527
93256SOL     OW81664   6.463   3.569   0.936
93256SOL    HW181665   6.461   3.492   0.993
93256SOL    HW281666   6.387   3.558   0.878
93257SOL     OW81667   2.320   3.108   1.775
93257SOL    HW181668   2.301   3.121   1.682
93257SOL    HW281669   2.271   3.028   1.798
93258SOL     OW81670   3.483   1.303   0.316
93258SOL    HW181671   3.573   1.283   0.342
93258SOL    HW281672   3.451   1.360   0.386
93259SOL     OW81673  14.659  11.106  13.489
93259SOL    HW181674  14.731  11.089  13.549
93259SOL    HW281675  14.688  11.071  13.405
93260SOL     OW81676   0.617   3.123  14.651
93260SOL    HW181677   0.548   3.097  14.711
93260SOL    HW281678   0.640   3.044  14.603
93261SOL     OW81679   3.963  13.250   7.735
93261SOL    HW181680   3.956  13.277   7.827
93261SOL    HW281681   3.932  13.160   7.733
93262SOL     OW81682   3.911  14.155  12.600
93262SOL    HW181683   3.848  14.099  12.646
93262SOL    HW281684   3.996  14.118  12.624
93263SOL     OW81685   6.542  11.900  13.086
93263SOL    HW181686   6.635  11.875  13.090
93263SOL    HW281687   6.520  11.924  13.176
93264SOL     OW81688   6.130   3.169  12.229
93264SOL    HW181689   6.219   3.172  12.264
93264SOL    HW281690   6.126   3.241  12.166
93265SOL     OW81691   6.141   0.519   3.481
93265SOL    HW181692   6.050   0.516   3.512
93265SOL    HW281693   6.162   0.612   3.475
93266SOL     OW81694  10.421  13.673   4.200
93266SOL    HW181695  10.379  13.744   4.248
93266SOL    HW281696  10.499  13.651   4.252
93267SOL     OW81697   3.621   4.903  12.835
93267SOL    HW181698   3.585   4.983  12.798
93267SOL    HW281699   3.600   4.835  12.771
93268SOL     OW81700  10.097   0.316   3.848
93268SOL    HW181701  10.144   0.390   3.887
93268SOL    HW281702  10.113   0.243   3.908
93269SOL     OW81703   7.520  10.924   1.602
93269SOL    HW181704   7.521  10.927   1.698
93269SOL    HW281705   7.612  10.909   1.578
93270SOL     OW81706  11.488   8.334  14.153
93270SOL    HW181707  11.554   8.403  14.144
93270SOL    HW281708  11.514   8.286  14.231
93271SOL     OW81709   4.714  13.527   6.852
93271SOL    HW181710   4.702  13.436   6.880
93271SOL    HW281711   4.719  13.576   6.934
93272SOL     OW81712   3.319   7.575   7.717
93272SOL    HW181713   3.253   7.641   7.694
93272SOL    HW281714   3.313   7.567   7.812
93273SOL     OW81715  11.187   3.768   8.273
93273SOL    HW181716  11.219   3.726   8.353
93273SOL    HW281717  11.105   3.811   8.299
93274SOL     OW81718  12.194   0.230   8.707
93274SOL    HW181719  12.151   0.231   8.793
93274SOL    HW281720  12.129   0.189   8.649
93275SOL     OW81721   5.113   1.437  11.899
93275SOL    HW181722   5.180   1.404  11.958
93275SOL    HW281723   5.122   1.532  11.902
93276SOL     OW81724   7.900   1.624  10.953
93276SOL    HW181725   7.921   1.710  10.989
93276SOL    HW281726   7.896   1.567  11.029
93277SOL     OW81727   0.602  10.273   1.701
93277SOL    HW181728   0.636  10.252   1.614
93277SOL    HW281729   0.557  10.356   1.689
93278SOL     OW81730  12.503   0.356  10.075
93278SOL    HW181731  12.504   0.417  10.150
93278SOL    HW281732  12.464   0.407  10.004
93279SOL     OW81733   1.423   4.555   7.959
93279SOL    HW181734   1.483   4.579   7.888
93279SOL    HW281735   1.345   4.609   7.944
93280SOL     OW81736   8.135  10.303   4.674
93280SOL    HW181737   8.079  10.260   4.738
93280SOL    HW281738   8.075  10.353   4.619
93281SOL     OW81739   6.338  12.956  12.368
93281SOL    HW181740   6.345  12.935  12.275
93281SOL    HW281741   6.298  13.043  12.371
93282SOL     OW81742   1.625   2.843   7.181
93282SOL    HW181743   1.712   2.877   7.204
93282SOL    HW281744   1.637   2.801   7.096
93283SOL     OW81745  12.052  14.829  14.780
93283SOL    HW181746  12.123   0.021  14.802
93283SOL    HW281747  12.069  14.803  14.690
93284SOL     OW81748  10.412  13.446   6.104
93284SOL    HW181749  10.474  13.509   6.068
93284SOL    HW281750  10.424  13.452   6.199
93285SOL     OW81751  13.533  12.161   9.401
93285SOL    HW181752  13.512  12.184   9.491
93285SOL    HW281753  13.523  12.243   9.353
93286SOL     OW81754  13.517   6.105   2.817
93286SOL    HW181755  13.454   6.053   2.867
93286SOL    HW281756  13.597   6.102   2.869
93287SOL     OW81757   0.703  13.210  10.742
93287SOL    HW181758   0.610  13.191  10.749
93287SOL    HW281759   0.747  13.136  10.783
93288SOL     OW81760  10.591   6.903  10.352
93288SOL    HW181761  10.634   6.932  10.432
93288SOL    HW281762  10.498   6.901  10.374
93289SOL     OW81763   8.402   8.466   4.545
93289SOL    HW181764   8.447   8.486   4.463
93289SOL    HW281765   8.328   8.527   4.549
93290SOL     OW81766   1.438   1.625  10.726
93290SOL    HW181767   1.503   1.555  10.718
93290SOL    HW281768   1.475   1.687  10.789
93291SOL     OW81769  13.090   4.685   2.320
93291SOL    HW181770  13.033   4.612   2.295
93291SOL    HW281771  13.030   4.753   2.350
93292SOL     OW81772   6.038  11.705   0.630
93292SOL    HW181773   5.985  11.640   0.677
93292SOL    HW281774   6.127  11.670   0.633
93293SOL     OW81775  14.432  10.504  12.432
93293SOL    HW181776  14.383  10.423  12.446
93293SOL    HW281777  14.493  10.483  12.362
93294SOL     OW81778   0.422   1.482   1.155
93294SOL    HW181779   0.362   1.466   1.083
93294SOL    HW281780   0.424   1.577   1.164
93295SOL     OW81781   9.963  10.594   7.240
93295SOL    HW181782   9.957  10.641   7.323
93295SOL    HW281783   9.986  10.661   7.176
93296SOL     OW81784   4.899   0.038   0.328
93296SOL    HW181785   4.959   0.052   0.255
93296SOL    HW281786   4.942   0.080   0.402
93297SOL     OW81787  14.809  12.252  11.673
93297SOL    HW181788  14.736  12.229  11.616
93297SOL    HW281789  14.822  12.346  11.657
93298SOL     OW81790  12.144   0.094  13.142
93298SOL    HW181791  12.115   0.093  13.233
93298SOL    HW281792  12.239   0.089  13.147
93299SOL     OW81793   1.745   2.334  14.365
93299SOL    HW181794   1.783   2.321  14.452
93299SOL    HW281795   1.763   2.425  14.344
93300SOL     OW81796  13.129   7.722  10.714
93300SOL    HW181797  13.210   7.674  10.699
93300SOL    HW281798  13.102   7.697  10.802
93301SOL     OW81799   3.621   1.569   1.085
93301SOL    HW181800   3.568   1.648   1.071
93301SOL    HW281801   3.573   1.500   1.040
93302SOL     OW81802   6.733  12.413   5.316
93302SOL    HW181803   6.776  12.493   5.348
93302SOL    HW281804   6.640  12.437   5.309
93303SOL     OW81805   9.379   8.696   9.527
93303SOL    HW181806   9.379   8.610   9.569
93303SOL    HW281807   9.337   8.682   9.442
93304SOL     OW81808  12.040  12.092   0.257
93304SOL    HW181809  12.094  12.030   0.208
93304SOL    HW281810  11.987  12.136   0.191
93305SOL     OW81811   6.825  14.604   9.046
93305SOL    HW181812   6.837  14.692   9.082
93305SOL    HW281813   6.809  14.549   9.122
93306SOL     OW81814   0.789  11.400   0.780
93306SOL    HW181815   0.819  11.321   0.733
93306SOL    HW281816   0.866  11.456   0.785
93307SOL     OW81817   4.538   2.195   4.999
93307SOL    HW181818   4.451   2.207   4.960
93307SOL    HW281819   4.595   2.253   4.947
93308SOL     OW81820   2.277   4.644  12.287
93308SOL    HW181821   2.274   4.551  12.312
93308SOL    HW281822   2.347   4.649  12.222
93309SOL     OW81823   7.025   4.886   2.676
93309SOL    HW181824   7.091   4.926   2.734
93309SOL    HW281825   7.062   4.894   2.588
93310SOL     OW81826   6.262   2.340   1.691
93310SOL    HW181827   6.168   2.330   1.672
93310SOL    HW281828   6.267   2.340   1.786
93311SOL     OW81829   3.897   6.381   7.732
93311SOL    HW181830   3.875   6.449   7.669
93311SOL    HW281831   3.970   6.418   7.783
93312SOL     OW81832   0.326   1.971   8.944
93312SOL    HW181833   0.374   2.048   8.975
93312SOL    HW281834   0.347   1.966   8.850
93313SOL     OW81835   6.243   1.677  11.433
93313SOL    HW181836   6.153   1.663  11.404
93313SOL    HW281837   6.297   1.662  11.356
93314SOL     OW81838   8.411   4.635   3.711
93314SOL    HW181839   8.493   4.668   3.675
93314SOL    HW281840   8.415   4.655   3.804
93315SOL     OW81841   7.163   5.131  11.378
93315SOL    HW181842   7.172   5.152  11.285
93315SOL    HW281843   7.247   5.156  11.416
93316SOL     OW81844   0.819   3.937   6.109
93316SOL    HW181845   0.745   3.929   6.049
93316SOL    HW281846   0.786   3.904   6.193
93317SOL     OW81847   8.330   1.366  12.579
93317SOL    HW181848   8.245   1.323  12.569
93317SOL    HW281849   8.391   1.308  12.533
93318SOL     OW81850  14.269   7.284   7.902
93318SOL    HW181851  14.222   7.203   7.919
93318SOL    HW281852  14.238   7.345   7.970
93319SOL     OW81853  12.825   0.556  10.046
93319SOL    HW181854  12.842   0.463  10.066
93319SOL    HW281855  12.803   0.557   9.953
93320SOL     OW81856   5.804  10.255   7.001
93320SOL    HW181857   5.877  10.193   6.999
93320SOL    HW281858   5.825  10.318   6.932
93321SOL     OW81859   2.671   1.488   5.573
93321SOL    HW181860   2.607   1.517   5.507
93321SOL    HW281861   2.648   1.538   5.652
93322SOL     OW81862  13.047  12.989   8.800
93322SOL    HW181863  13.078  12.915   8.748
93322SOL    HW281864  13.087  13.066   8.758
93323SOL     OW81865   9.332  14.656  14.796
93323SOL    HW181866   9.273  14.639  14.869
93323SOL    HW281867   9.387  14.728  14.826
93324SOL     OW81868   7.827   7.403   3.765
93324SOL    HW181869   7.763   7.346   3.808
93324SOL    HW281870   7.871   7.447   3.837
93325SOL     OW81871  13.596   6.969  14.162
93325SOL    HW181872  13.642   7.001  14.084
93325SOL    HW281873  13.546   6.893  14.131
93326SOL     OW81874   7.039  12.654   0.912
93326SOL    HW181875   7.051  12.569   0.871
93326SOL    HW281876   6.988  12.635   0.991
93327SOL     OW81877   5.820   5.853   9.223
93327SOL    HW181878   5.738   5.886   9.186
93327SOL    HW281879   5.827   5.897   9.308
93328SOL     OW81880   3.195   2.386  12.214
93328SOL    HW181881   3.172   2.424  12.299
93328SOL    HW281882   3.129   2.320  12.197
93329SOL     OW81883  10.921   6.949  13.895
93329SOL    HW181884  10.905   6.870  13.947
93329SOL    HW281885  11.015   6.965  13.904
93330SOL     OW81886   6.582  13.171  10.928
93330SOL    HW181887   6.606  13.084  10.896
93330SOL    HW281888   6.486  13.174  10.918
93331SOL     OW81889   3.210   9.534  11.693
93331SOL    HW181890   3.195   9.470  11.763
93331SOL    HW281891   3.282   9.496  11.642
93332SOL     OW81892   1.890   2.990   3.508
93332SOL    HW181893   1.854   3.051   3.572
93332SOL    HW281894   1.983   2.983   3.531
93333SOL     OW81895   7.054   7.950   4.266
93333SOL    HW181896   7.045   8.035   4.309
93333SOL    HW281897   7.115   7.901   4.322
93334SOL     OW81898   8.146   0.855  14.444
93334SOL    HW181899   8.220   0.826  14.497
93334SOL    HW281900   8.149   0.799  14.366
93335SOL     OW81901   3.884   0.381  13.567
93335SOL    HW181902   3.911   0.391  13.658
93335SOL    HW281903   3.799   0.337  13.572
93336SOL     OW81904  14.039   6.554   4.280
93336SOL    HW181905  13.983   6.523   4.209
93336SOL    HW281906  14.128   6.543   4.248
93337SOL     OW81907   3.472   3.899  14.093
93337SOL    HW181908   3.522   3.965  14.046
93337SOL    HW281909   3.493   3.915  14.186
93338SOL     OW81910   5.455   0.795  13.293
93338SOL    HW181911   5.498   0.715  13.324
93338SOL    HW281912   5.508   0.824  13.219
93339SOL     OW81913   5.688   1.125  14.153
93339SOL    HW181914   5.696   1.157  14.063
93339SOL    HW281915   5.691   1.204  14.206
93340SOL     OW81916  12.554   8.206  10.462
93340SOL    HW181917  12.604   8.130  10.492
93340SOL    HW281918  12.469   8.197  10.506
93341SOL     OW81919   3.129   3.014   3.053
93341SOL    HW181920   3.038   3.031   3.029
93341SOL    HW281921   3.161   3.099   3.085
93342SOL     OW81922  14.638   8.313  10.914
93342SOL    HW181923  14.609   8.400  10.888
93342SOL    HW281924  14.712   8.294  10.858
93343SOL     OW81925  10.683  14.068   8.973
93343SOL    HW181926  10.743  13.999   8.944
93343SOL    HW281927  10.736  14.126   9.026
93344SOL     OW81928   5.172  14.499   0.242
93344SOL    HW181929   5.183  14.405   0.249
93344SOL    HW281930   5.084  14.511   0.208
93345SOL     OW81931  10.979  14.695   2.550
93345SOL    HW181932  10.996  14.667   2.640
93345SOL    HW281933  10.883  14.696   2.543
93346SOL     OW81934   0.321   3.719   7.406
93346SOL    HW181935   0.304   3.747   7.496
93346SOL    HW281936   0.315   3.624   7.409
93347SOL     OW81937   8.994  13.520  11.451
93347SOL    HW181938   8.961  13.440  11.411
93347SOL    HW281939   9.055  13.556  11.387
93348SOL     OW81940   5.840   2.758   6.777
93348SOL    HW181941   5.906   2.823   6.801
93348SOL    HW281942   5.769   2.809   6.738
93349SOL     OW81943   5.718  13.914   7.373
93349SOL    HW181944   5.763  13.995   7.396
93349SOL    HW281945   5.789  13.851   7.358
93350SOL     OW81946   4.137   8.462  13.355
93350SOL    HW181947   4.207   8.525  13.342
93350SOL    HW281948   4.083   8.500  13.425
93351SOL     OW81949   6.099   0.632  10.344
93351SOL    HW181950   6.057   0.567  10.401
93351SOL    HW281951   6.047   0.711  10.356
93352SOL     OW81952   5.883   5.262   5.229
93352SOL    HW181953   5.857   5.346   5.190
93352SOL    HW281954   5.959   5.282   5.282
93353SOL     OW81955  11.302   4.874   0.501
93353SOL    HW181956  11.258   4.959   0.513
93353SOL    HW281957  11.267   4.819   0.570
93354SOL     OW81958   8.463   5.214   4.851
93354SOL    HW181959   8.432   5.301   4.876
93354SOL    HW281960   8.535   5.196   4.911
93355SOL     OW81961  14.854  10.545  11.722
93355SOL    HW181962  14.801  10.468  11.701
93355SOL    HW281963  14.798  10.598  11.779
93356SOL     OW81964  10.276  11.824   9.085
93356SOL    HW181965  10.220  11.834   9.162
93356SOL    HW281966  10.365  11.825   9.120
93357SOL     OW81967  12.601  12.774   3.589
93357SOL    HW181968  12.523  12.828   3.605
93357SOL    HW281969  12.591  12.700   3.649
93358SOL     OW81970  12.152   2.290   8.400
93358SOL    HW181971  12.135   2.272   8.307
93358SOL    HW281972  12.235   2.247   8.418
93359SOL     OW81973  14.358  10.750  12.573
93359SOL    HW181974  14.375  10.660  12.546
93359SOL    HW281975  14.398  10.804  12.504
93360SOL     OW81976  10.808   4.504   2.225
93360SOL    HW181977  10.714   4.490   2.232
93360SOL    HW281978  10.832   4.470   2.139
93361SOL     OW81979   9.514  11.673  10.323
93361SOL    HW181980   9.518  11.634  10.410
93361SOL    HW281981   9.606  11.688  10.299
93362SOL     OW81982   8.354   9.986   4.000
93362SOL    HW181983   8.336  10.054   4.065
93362SOL    HW281984   8.296   9.914   4.024
93363SOL     OW81985  10.647  11.416   3.976
93363SOL    HW181986  10.594  11.481   3.930
93363SOL    HW281987  10.738  11.439   3.953
93364SOL     OW81988   3.534   5.546   6.887
93364SOL    HW181989   3.456   5.523   6.835
93364SOL    HW281990   3.600   5.568   6.821
93365SOL     OW81991  11.599   5.932   0.151
93365SOL    HW181992  11.614   5.853   0.100
93365SOL    HW281993  11.618   6.004   0.091
93366SOL     OW81994  12.544   0.556   2.343
93366SOL    HW181995  12.607   0.573   2.272
93366SOL    HW281996  12.552   0.462   2.359
93367SOL     OW81997   2.419   6.701  10.389
93367SOL    HW181998   2.483   6.771  10.387
93367SOL    HW281999   2.357   6.722  10.319
93368SOL     OW82000   1.958   6.701  13.809
93368SOL    HW182001   1.963   6.796  13.820
93368SOL    HW282002   1.967   6.688  13.714
93369SOL     OW82003   0.710   9.558  12.057
93369SOL    HW182004   0.713   9.591  12.147
93369SOL    HW282005   0.719   9.636  12.003
93370SOL     OW82006   4.096   1.907  12.054
93370SOL    HW182007   4.166   1.850  12.086
93370SOL    HW282008   4.111   1.991  12.097
93371SOL     OW82009  12.339   1.352   2.555
93371SOL    HW182010  12.322   1.272   2.606
93371SOL    HW282011  12.384   1.320   2.477
93372SOL     OW82012   2.953   6.985   5.309
93372SOL    HW182013   2.924   6.934   5.385
93372SOL    HW282014   2.994   7.063   5.348
93373SOL     OW82015  13.088   2.315   8.174
93373SOL    HW182016  13.025   2.387   8.181
93373SOL    HW282017  13.040   2.247   8.126
93374SOL     OW82018   5.806   3.406  13.380
93374SOL    HW182019   5.849   3.396  13.464
93374SOL    HW282020   5.872   3.446  13.323
93375SOL     OW82021  12.259  10.497   3.160
93375SOL    HW182022  12.303  10.429   3.210
93375SOL    HW282023  12.169  10.496   3.192
93376SOL     OW82024   6.701   5.036   6.407
93376SOL    HW182025   6.784   4.994   6.429
93376SOL    HW282026   6.724   5.124   6.377
93377SOL     OW82027  12.164   1.919   3.595
93377SOL    HW182028  12.257   1.932   3.614
93377SOL    HW282029  12.123   1.917   3.681
93378SOL     OW82030   7.848   8.337   5.437
93378SOL    HW182031   7.900   8.292   5.504
93378SOL    HW282032   7.761   8.346   5.476
93379SOL     OW82033   2.862   6.779  11.164
93379SOL    HW182034   2.829   6.724  11.235
93379SOL    HW282035   2.957   6.769  11.168
93380SOL     OW82036  10.903   9.133  13.947
93380SOL    HW182037  10.987   9.131  13.901
93380SOL    HW282038  10.926   9.124  14.040
93381SOL     OW82039  13.680   0.635  11.592
93381SOL    HW182040  13.623   0.600  11.524
93381SOL    HW282041  13.758   0.664  11.546
93382SOL     OW82042   9.185  13.702   2.607
93382SOL    HW182043   9.109  13.683   2.551
93382SOL    HW282044   9.164  13.785   2.649
93383SOL     OW82045   0.576  12.183   0.586
93383SOL    HW182046   0.519  12.225   0.651
93383SOL    HW282047   0.516  12.158   0.515
93384SOL     OW82048  11.521  11.918   5.399
93384SOL    HW182049  11.564  11.847   5.350
93384SOL    HW282050  11.588  11.984   5.409
93385SOL     OW82051  13.291   0.218   9.462
93385SOL    HW182052  13.224   0.254   9.520
93385SOL    HW282053  13.242   0.167   9.398
93386SOL     OW82054   3.688   7.498   7.785
93386SOL    HW182055   3.772   7.542   7.799
93386SOL    HW282056   3.661   7.526   7.697
93387SOL     OW82057  13.428   5.076  12.425
93387SOL    HW182058  13.369   5.002  12.436
93387SOL    HW282059  13.400   5.118  12.344
93388SOL     OW82060  10.595   9.007  11.858
93388SOL    HW182061  10.619   8.915  11.851
93388SOL    HW282062  10.642   9.038  11.936
93389SOL     OW82063  10.048   0.518   5.400
93389SOL    HW182064   9.954   0.533   5.396
93389SOL    HW282065  10.075   0.560   5.482
93390SOL     OW82066  13.520   7.660   2.041
93390SOL    HW182067  13.448   7.598   2.052
93390SOL    HW282068  13.559   7.667   2.128
93391SOL     OW82069   5.471   9.829   4.043
93391SOL    HW182070   5.557   9.869   4.055
93391SOL    HW282071   5.414   9.901   4.018
93392SOL     OW82072   8.049  13.519   0.098
93392SOL    HW182073   8.142  13.532   0.117
93392SOL    HW282074   8.017  13.466   0.170
93393SOL     OW82075   0.330   4.657  11.500
93393SOL    HW182076   0.425   4.654  11.509
93393SOL    HW282077   0.299   4.699  11.581
93394SOL     OW82078  13.812   7.782   4.247
93394SOL    HW182079  13.784   7.714   4.186
93394SOL    HW282080  13.779   7.752   4.332
93395SOL     OW82081   4.062   5.938  11.326
93395SOL    HW182082   4.001   5.996  11.371
93395SOL    HW282083   4.141   5.939  11.379
93396SOL     OW82084   5.630   5.641  10.089
93396SOL    HW182085   5.606   5.732  10.103
93396SOL    HW282086   5.711   5.646  10.038
93397SOL     OW82087  11.473   4.221  12.631
93397SOL    HW182088  11.420   4.165  12.574
93397SOL    HW282089  11.448   4.310  12.606
93398SOL     OW82090   9.150  11.692   7.585
93398SOL    HW182091   9.150  11.721   7.676
93398SOL    HW282092   9.067  11.645   7.575
93399SOL     OW82093   7.073   9.201   2.648
93399SOL    HW182094   7.132   9.256   2.699
93399SOL    HW282095   7.060   9.123   2.701
93400SOL     OW82096   7.237  12.305   3.048
93400SOL    HW182097   7.297  12.247   3.001
93400SOL    HW282098   7.230  12.266   3.135
93401SOL     OW82099  14.596   3.682   2.939
93401SOL    HW182100  14.656   3.670   3.012
93401SOL    HW282101  14.598   3.599   2.892
93402SOL     OW82102   7.668   3.027   6.622
93402SOL    HW182103   7.574   3.041   6.638
93402SOL    HW282104   7.691   2.958   6.684
93403SOL     OW82105   8.332   4.977   9.151
93403SOL    HW182106   8.278   5.003   9.077
93403SOL    HW282107   8.396   5.048   9.160
93404SOL     OW82108   3.294  11.672  10.985
93404SOL    HW182109   3.378  11.634  10.961
93404SOL    HW282110   3.299  11.762  10.952
93405SOL     OW82111   5.375  11.234  12.444
93405SOL    HW182112   5.384  11.307  12.505
93405SOL    HW282113   5.360  11.157  12.499
93406SOL     OW82114   6.835   1.142   5.363
93406SOL    HW182115   6.748   1.104   5.374
93406SOL    HW282116   6.873   1.094   5.289
93407SOL     OW82117  11.006  10.891  11.861
93407SOL    HW182118  10.944  10.963  11.848
93407SOL    HW282119  10.978  10.851  11.944
93408SOL     OW82120   1.141  13.912   8.234
93408SOL    HW182121   1.075  13.892   8.168
93408SOL    HW282122   1.174  13.827   8.262
93409SOL     OW82123   3.143  14.246  12.385
93409SOL    HW182124   3.110  14.326  12.343
93409SOL    HW282125   3.238  14.261  12.392
93410SOL     OW82126   6.087   0.409   0.282
93410SOL    HW182127   6.001   0.447   0.301
93410SOL    HW282128   6.140   0.483   0.255
93411SOL     OW82129  12.021  14.502   9.886
93411SOL    HW182130  12.040  14.553   9.807
93411SOL    HW282131  12.061  14.552   9.957
93412SOL     OW82132   1.466   5.711   4.625
93412SOL    HW182133   1.518   5.635   4.651
93412SOL    HW282134   1.507   5.741   4.544
93413SOL     OW82135   6.724   2.716   2.625
93413SOL    HW182136   6.739   2.805   2.595
93413SOL    HW282137   6.679   2.725   2.709
93414SOL     OW82138  10.959  13.512  13.861
93414SOL    HW182139  10.939  13.450  13.931
93414SOL    HW282140  10.927  13.471  13.781
93415SOL     OW82141  12.545   0.866   2.388
93415SOL    HW182142  12.460   0.899   2.416
93415SOL    HW282143  12.601   0.875   2.465
93416SOL     OW82144   5.234  10.514  14.633
93416SOL    HW182145   5.272  10.427  14.639
93416SOL    HW282146   5.245  10.539  14.542
93417SOL     OW82147   3.954  13.512   5.894
93417SOL    HW182148   3.973  13.524   5.800
93417SOL    HW282149   4.014  13.444   5.922
93418SOL     OW82150   0.786  10.070   3.431
93418SOL    HW182151   0.879  10.051   3.413
93418SOL    HW282152   0.753   9.989   3.471
93419SOL     OW82153   3.172  13.640  11.541
93419SOL    HW182154   3.238  13.615  11.606
93419SOL    HW282155   3.153  13.559  11.493
93420SOL     OW82156   3.189   2.323   7.915
93420SOL    HW182157   3.199   2.321   7.820
93420SOL    HW282158   3.145   2.406   7.933
93421SOL     OW82159   4.772   0.382   5.547
93421SOL    HW182160   4.763   0.291   5.577
93421SOL    HW282161   4.725   0.384   5.464
93422SOL     OW82162   7.033   2.094   4.852
93422SOL    HW182163   7.018   2.089   4.947
93422SOL    HW282164   7.126   2.076   4.842
93423SOL     OW82165   2.250   3.930  13.590
93423SOL    HW182166   2.342   3.950  13.570
93423SOL    HW282167   2.225   3.864  13.526
93424SOL     OW82168   8.807   0.395  14.575
93424SOL    HW182169   8.758   0.394  14.657
93424SOL    HW282170   8.882   0.452  14.592
93425SOL     OW82171  11.450  11.389   1.193
93425SOL    HW182172  11.374  11.448   1.184
93425SOL    HW282173  11.444  11.331   1.117
93426SOL     OW82174  10.487  14.697  10.060
93426SOL    HW182175  10.480  14.720  10.153
93426SOL    HW282176  10.403  14.725  10.022
93427SOL     OW82177  10.161   0.750  13.133
93427SOL    HW182178  10.209   0.827  13.102
93427SOL    HW282179  10.089   0.740  13.071
93428SOL     OW82180   7.230  11.265   7.138
93428SOL    HW182181   7.294  11.331   7.165
93428SOL    HW282182   7.146  11.300   7.168
93429SOL     OW82183   5.856  14.307   1.883
93429SOL    HW182184   5.913  14.376   1.848
93429SOL    HW282185   5.790  14.294   1.816
93430SOL     OW82186   1.194   8.939   7.015
93430SOL    HW182187   1.250   8.982   7.079
93430SOL    HW282188   1.144   8.875   7.065
93431SOL     OW82189  14.412  14.439   2.308
93431SOL    HW182190  14.473  14.462   2.238
93431SOL    HW282191  14.341  14.503   2.300
93432SOL     OW82192   6.628  14.780   7.535
93432SOL    HW182193   6.694  14.791   7.603
93432SOL    HW282194   6.553  14.739   7.579
93433SOL     OW82195  10.592  13.451  11.353
93433SOL    HW182196  10.550  13.428  11.436
93433SOL    HW282197  10.520  13.477  11.297
93434SOL     OW82198   3.124  10.298   1.676
93434SOL    HW182199   3.097  10.240   1.748
93434SOL    HW282200   3.219  10.284   1.669
93435SOL     OW82201   3.563   1.377   4.707
93435SOL    HW182202   3.544   1.398   4.615
93435SOL    HW282203   3.646   1.421   4.724
93436SOL     OW82204  14.178  10.532  13.560
93436SOL    HW182205  14.238  10.586  13.612
93436SOL    HW282206  14.092  10.550  13.598
93437SOL     OW82207  12.486  14.746   2.996
93437SOL    HW182208  12.437  14.796   3.061
93437SOL    HW282209  12.450  14.773   2.912
93438SOL     OW82210  14.694   5.254   6.854
93438SOL    HW182211  14.741   5.214   6.781
93438SOL    HW282212  14.609   5.209   6.854
93439SOL     OW82213  11.888   5.335   0.550
93439SOL    HW182214  11.908   5.366   0.639
93439SOL    HW282215  11.931   5.398   0.493
93440SOL     OW82216   0.716  14.665   7.884
93440SOL    HW182217   0.765  14.663   7.802
93440SOL    HW282218   0.711  14.757   7.907
93441SOL     OW82219   8.039  14.745  12.251
93441SOL    HW182220   8.003  14.689  12.182
93441SOL    HW282221   7.971  14.748  12.318
93442SOL     OW82222   9.238   2.590   6.294
93442SOL    HW182223   9.169   2.624   6.350
93442SOL    HW282224   9.201   2.591   6.206
93443SOL     OW82225   2.171   6.989   0.645
93443SOL    HW182226   2.248   7.003   0.700
93443SOL    HW282227   2.202   6.934   0.573
93444SOL     OW82228  10.518  11.560   9.642
93444SOL    HW182229  10.444  11.581   9.698
93444SOL    HW282230  10.589  11.541   9.703
93445SOL     OW82231  13.685   3.029  12.365
93445SOL    HW182232  13.636   2.968  12.311
93445SOL    HW282233  13.741   2.974  12.419
93446SOL     OW82234   5.962  10.836   7.149
93446SOL    HW182235   5.921  10.915   7.184
93446SOL    HW282236   6.052  10.864   7.128
93447SOL     OW82237  10.830   2.300   4.342
93447SOL    HW182238  10.821   2.308   4.436
93447SOL    HW282239  10.852   2.207   4.328
93448SOL     OW82240  13.303   4.810   7.492
93448SOL    HW182241  13.233   4.750   7.519
93448SOL    HW282242  13.315   4.790   7.399
93449SOL     OW82243   1.707   0.232  10.350
93449SOL    HW182244   1.791   0.189  10.331
93449SOL    HW282245   1.682   0.200  10.437
93450SOL     OW82246   3.023   2.992   8.558
93450SOL    HW182247   2.996   2.992   8.466
93450SOL    HW282248   2.976   2.918   8.597
93451SOL     OW82249  10.452  13.406  14.320
93451SOL    HW182250  10.472  13.403  14.226
93451SOL    HW282251  10.475  13.319  14.352
93452SOL     OW82252   9.448   4.705   6.429
93452SOL    HW182253   9.525   4.755   6.401
93452SOL    HW282254   9.384   4.717   6.360
93453SOL     OW82255   2.858   3.493   8.067
93453SOL    HW182256   2.830   3.563   8.126
93453SOL    HW282257   2.781   3.436   8.061
93454SOL     OW82258   5.611   8.800  10.448
93454SOL    HW182259   5.665   8.762  10.518
93454SOL    HW282260   5.648   8.765  10.367
93455SOL     OW82261   7.805   1.126   3.950
93455SOL    HW182262   7.808   1.204   4.006
93455SOL    HW282263   7.725   1.136   3.899
93456SOL     OW82264  13.356  13.241   9.633
93456SOL    HW182265  13.306  13.179   9.686
93456SOL    HW282266  13.447  13.213   9.643
93457SOL     OW82267   4.583   2.738  14.482
93457SOL    HW182268   4.522   2.712  14.413
93457SOL    HW282269   4.532   2.797  14.538
93458SOL     OW82270  13.864   4.273   8.625
93458SOL    HW182271  13.799   4.275   8.695
93458SOL    HW282272  13.905   4.359   8.628
93459SOL     OW82273  11.381  11.541   6.373
93459SOL    HW182274  11.398  11.463   6.426
93459SOL    HW282275  11.417  11.521   6.287
93460SOL     OW82276   9.937  14.730   3.460
93460SOL    HW182277   9.987  14.798   3.415
93460SOL    HW282278   9.967  14.735   3.551
93461SOL     OW82279  14.647   3.542   9.447
93461SOL    HW182280  14.576   3.604   9.463
93461SOL    HW282281  14.636   3.515   9.356
93462SOL     OW82282   2.540  11.639   1.722
93462SOL    HW182283   2.499  11.667   1.641
93462SOL    HW282284   2.579  11.554   1.701
93463SOL     OW82285   7.417   2.739   9.950
93463SOL    HW182286   7.448   2.810  10.006
93463SOL    HW282287   7.380   2.675  10.010
93464SOL     OW82288   6.110  12.231   3.149
93464SOL    HW182289   6.073  12.229   3.237
93464SOL    HW282290   6.034  12.246   3.092
93465SOL     OW82291   5.043   6.886  13.530
93465SOL    HW182292   5.063   6.816  13.468
93465SOL    HW282293   4.975   6.937  13.488
93466SOL     OW82294  10.634   3.860   0.594
93466SOL    HW182295  10.729   3.862   0.611
93466SOL    HW282296  10.625   3.898   0.506
93467SOL     OW82297   1.974   4.500   9.304
93467SOL    HW182298   1.948   4.428   9.248
93467SOL    HW282299   1.899   4.514   9.362
93468SOL     OW82300   5.372  10.516  13.343
93468SOL    HW182301   5.347  10.491  13.432
93468SOL    HW282302   5.441  10.581  13.356
93469SOL     OW82303  10.250   7.396  10.267
93469SOL    HW182304  10.305   7.475  10.269
93469SOL    HW282305  10.160   7.430  10.266
93470SOL     OW82306   6.584   9.049  12.750
93470SOL    HW182307   6.576   8.961  12.789
93470SOL    HW282308   6.600   9.106  12.825
93471SOL     OW82309  12.875   3.697   9.485
93471SOL    HW182310  12.880   3.791   9.506
93471SOL    HW282311  12.831   3.694   9.400
93472SOL     OW82312  10.006   7.990   6.627
93472SOL    HW182313   9.930   7.955   6.579
93472SOL    HW282314  10.016   7.932   6.702
93473SOL     OW82315   0.723   0.726   0.785
93473SOL    HW182316   0.734   0.708   0.879
93473SOL    HW282317   0.641   0.775   0.780
93474SOL     OW82318   8.310  13.999   3.789
93474SOL    HW182319   8.400  13.995   3.821
93474SOL    HW282320   8.289  13.908   3.766
93475SOL     OW82321   8.929   0.989   4.156
93475SOL    HW182322   8.909   1.045   4.081
93475SOL    HW282323   8.848   0.940   4.171
93476SOL     OW82324   8.367   4.445   9.263
93476SOL    HW182325   8.436   4.386   9.234
93476SOL    HW282326   8.382   4.526   9.213
93477SOL     OW82327   7.164   7.680  11.396
93477SOL    HW182328   7.087   7.623  11.399
93477SOL    HW282329   7.152   7.741  11.469
93478SOL     OW82330   8.982   9.014   1.106
93478SOL    HW182331   8.960   9.078   1.173
93478SOL    HW282332   8.992   9.065   1.025
93479SOL     OW82333  13.975   1.546   4.138
93479SOL    HW182334  13.898   1.518   4.187
93479SOL    HW282335  14.023   1.466   4.120
93480SOL     OW82336  13.814   1.929  11.478
93480SOL    HW182337  13.851   1.874  11.547
93480SOL    HW282338  13.880   1.996  11.462
93481SOL     OW82339   6.290   3.492   8.520
93481SOL    HW182340   6.326   3.540   8.595
93481SOL    HW282341   6.239   3.558   8.472
93482SOL     OW82342   5.811   6.756   8.876
93482SOL    HW182343   5.727   6.791   8.845
93482SOL    HW282344   5.787   6.682   8.931
93483SOL     OW82345  10.069   3.585   6.242
93483SOL    HW182346  10.103   3.640   6.313
93483SOL    HW282347  10.143   3.572   6.184
93484SOL     OW82348   3.115   3.025   7.292
93484SOL    HW182349   3.101   3.024   7.197
93484SOL    HW282350   3.176   3.096   7.307
93485SOL     OW82351  11.733  13.364   1.164
93485SOL    HW182352  11.687  13.281   1.176
93485SOL    HW282353  11.686  13.426   1.219
93486SOL     OW82354   0.379   6.876   2.331
93486SOL    HW182355   0.400   6.902   2.241
93486SOL    HW282356   0.462   6.844   2.367
93487SOL     OW82357  10.216   1.909  13.932
93487SOL    HW182358  10.296   1.906  13.879
93487SOL    HW282359  10.237   1.856  14.009
93488SOL     OW82360  12.946   3.135   8.581
93488SOL    HW182361  12.951   3.218   8.628
93488SOL    HW282362  13.031   3.094   8.595
93489SOL     OW82363  13.811   2.232   1.264
93489SOL    HW182364  13.815   2.313   1.315
93489SOL    HW282365  13.872   2.172   1.307
93490SOL     OW82366  14.035   8.799  10.251
93490SOL    HW182367  13.957   8.805  10.307
93490SOL    HW282368  14.033   8.710  10.216
93491SOL     OW82369   9.935   6.844   1.577
93491SOL    HW182370   9.899   6.770   1.625
93491SOL    HW282371   9.860   6.883   1.532
93492SOL     OW82372   8.554   8.619  12.828
93492SOL    HW182373   8.562   8.706  12.868
93492SOL    HW282374   8.587   8.631  12.738
93493SOL     OW82375   3.879  14.159  14.214
93493SOL    HW182376   3.863  14.090  14.149
93493SOL    HW282377   3.959  14.132  14.259
93494SOL     OW82378  14.420   0.143   9.555
93494SOL    HW182379  14.419   0.055   9.594
93494SOL    HW282380  14.493   0.141   9.493
93495SOL     OW82381   0.460  14.007   0.017
93495SOL    HW182382   0.412  14.078   0.059
93495SOL    HW282383   0.393  13.950  14.850
93496SOL     OW82384   9.975  11.706   4.846
93496SOL    HW182385  10.009  11.618   4.829
93496SOL    HW282386   9.914  11.695   4.918
93497SOL     OW82387   2.026   2.547   1.023
93497SOL    HW182388   2.052   2.536   0.932
93497SOL    HW282389   2.040   2.640   1.041
93498SOL     OW82390   3.502  10.869   4.185
93498SOL    HW182391   3.533  10.787   4.148
93498SOL    HW282392   3.551  10.937   4.137
93499SOL     OW82393  10.281   2.422   9.770
93499SOL    HW182394  10.375   2.410   9.778
93499SOL    HW282395  10.248   2.417   9.860
93500SOL     OW82396   5.161   1.664   9.129
93500SOL    HW182397   5.141   1.588   9.076
93500SOL    HW282398   5.219   1.717   9.074
93501SOL     OW82399   9.907   3.455   5.077
93501SOL    HW182400   9.969   3.528   5.073
93501SOL    HW282401   9.948   3.386   5.026
93502SOL     OW82402   9.870  13.668   3.837
93502SOL    HW182403   9.957  13.697   3.866
93502SOL    HW282404   9.851  13.723   3.761
93503SOL     OW82405   0.871  10.653   3.178
93503SOL    HW182406   0.841  10.564   3.159
93503SOL    HW282407   0.942  10.668   3.115
93504SOL     OW82408   2.227  14.064   3.991
93504SOL    HW182409   2.251  14.105   4.074
93504SOL    HW282410   2.258  13.974   3.999
93505SOL     OW82411   3.121   8.038  13.468
93505SOL    HW182412   3.198   8.009  13.420
93505SOL    HW282413   3.069   7.959  13.480
93506SOL     OW82414  11.363   1.016  12.678
93506SOL    HW182415  11.359   0.961  12.756
93506SOL    HW282416  11.272   1.021  12.648
93507SOL     OW82417   9.911   6.792   9.340
93507SOL    HW182418   9.872   6.725   9.284
93507SOL    HW282419   9.913   6.754   9.427
93508SOL     OW82420  11.808  11.932   6.824
93508SOL    HW182421  11.877  11.869   6.846
93508SOL    HW282422  11.755  11.938   6.904
93509SOL     OW82423  11.285  14.081  13.110
93509SOL    HW182424  11.319  14.169  13.093
93509SOL    HW282425  11.217  14.068  13.043
93510SOL     OW82426  14.034   3.505  13.057
93510SOL    HW182427  13.996   3.470  13.138
93510SOL    HW282428  14.106   3.561  13.085
93511SOL     OW82429  12.546   5.549   3.375
93511SOL    HW182430  12.578   5.522   3.461
93511SOL    HW282431  12.534   5.644   3.382
93512SOL     OW82432  10.732   9.796   3.252
93512SOL    HW182433  10.671   9.844   3.308
93512SOL    HW282434  10.745   9.853   3.176
93513SOL     OW82435   0.544   1.911   1.466
93513SOL    HW182436   0.462   1.861   1.470
93513SOL    HW282437   0.530   1.974   1.395
93514SOL     OW82438   5.638   4.758   0.135
93514SOL    HW182439   5.729   4.734   0.120
93514SOL    HW282440   5.593   4.737   0.054
93515SOL     OW82441   9.159  14.358   3.775
93515SOL    HW182442   9.109  14.322   3.848
93515SOL    HW282443   9.250  14.358   3.805
93516SOL     OW82444   2.119  11.957   6.909
93516SOL    HW182445   2.068  11.995   6.838
93516SOL    HW282446   2.166  12.032   6.947
93517SOL     OW82447   2.934   1.603   0.034
93517SOL    HW182448   3.016   1.556   0.018
93517SOL    HW282449   2.888   1.550   0.099
93518SOL     OW82450   0.466  14.588  11.537
93518SOL    HW182451   0.375  14.599  11.510
93518SOL    HW282452   0.517  14.624  11.464
93519SOL     OW82453   1.034   3.101   0.662
93519SOL    HW182454   1.128   3.117   0.662
93519SOL    HW282455   1.000   3.153   0.735
93520SOL     OW82456   1.537   8.743  13.883
93520SOL    HW182457   1.478   8.762  13.810
93520SOL    HW282458   1.486   8.685  13.940
93521SOL     OW82459   0.477   4.276   8.768
93521SOL    HW182460   0.512   4.197   8.728
93521SOL    HW282461   0.543   4.303   8.831
93522SOL     OW82462   3.479  10.421   8.952
93522SOL    HW182463   3.466  10.455   9.040
93522SOL    HW282464   3.394  10.433   8.909
93523SOL     OW82465   7.871   3.942   8.906
93523SOL    HW182466   7.796   3.914   8.959
93523SOL    HW282467   7.850   3.912   8.818
93524SOL     OW82468  11.470   6.644  14.278
93524SOL    HW182469  11.485   6.564  14.328
93524SOL    HW282470  11.376   6.659  14.284
93525SOL     OW82471   7.906   8.777   3.153
93525SOL    HW182472   7.882   8.834   3.079
93525SOL    HW282473   7.999   8.761   3.141
93526SOL     OW82474   7.840  11.505  14.753
93526SOL    HW182475   7.810  11.507  14.662
93526SOL    HW282476   7.919  11.451  14.752
93527SOL     OW82477   0.983  10.721  12.852
93527SOL    HW182478   1.003  10.801  12.901
93527SOL    HW282479   0.944  10.752  12.771
93528SOL     OW82480   8.693  10.941   9.175
93528SOL    HW182481   8.626  10.882   9.209
93528SOL    HW282482   8.697  10.921   9.081
93529SOL     OW82483  10.111   9.523  12.468
93529SOL    HW182484  10.066   9.567  12.396
93529SOL    HW282485  10.182   9.474  12.426
93530SOL     OW82486   4.959   3.741   2.310
93530SOL    HW182487   4.933   3.805   2.376
93530SOL    HW282488   4.880   3.727   2.257
93531SOL     OW82489   1.314  10.764   7.100
93531SOL    HW182490   1.389  10.802   7.055
93531SOL    HW282491   1.327  10.788   7.192
93532SOL     OW82492   9.337  14.044  13.087
93532SOL    HW182493   9.257  14.001  13.057
93532SOL    HW282494   9.395  13.972  13.112
93533SOL     OW82495   8.585   6.304  11.167
93533SOL    HW182496   8.495   6.281  11.144
93533SOL    HW282497   8.631   6.220  11.174
93534SOL     OW82498  11.267   6.356   0.741
93534SOL    HW182499  11.213   6.278   0.734
93534SOL    HW282500  11.328   6.337   0.812
93535SOL     OW82501  11.073   8.769   8.465
93535SOL    HW182502  11.127   8.840   8.500
93535SOL    HW282503  10.983   8.796   8.483
93536SOL     OW82504   7.238  14.124   2.419
93536SOL    HW182505   7.249  14.113   2.324
93536SOL    HW282506   7.285  14.051   2.458
93537SOL     OW82507  14.647   0.531   1.703
93537SOL    HW182508  14.617   0.565   1.787
93537SOL    HW282509  14.569   0.529   1.648
93538SOL     OW82510   9.154   2.033  10.880
93538SOL    HW182511   9.131   2.122  10.853
93538SOL    HW282512   9.213   2.044  10.954
93539SOL     OW82513  10.694   8.749   5.090
93539SOL    HW182514  10.757   8.820   5.086
93539SOL    HW282515  10.680   8.724   4.999
93540SOL     OW82516   1.735   3.282   7.055
93540SOL    HW182517   1.744   3.377   7.066
93540SOL    HW282518   1.768   3.266   6.967
93541SOL     OW82519   6.901   7.453   8.924
93541SOL    HW182520   6.931   7.363   8.909
93541SOL    HW282521   6.838   7.469   8.854
93542SOL     OW82522   0.392   6.100   1.669
93542SOL    HW182523   0.411   6.056   1.753
93542SOL    HW282524   0.343   6.036   1.619
93543SOL     OW82525   6.283   7.379   4.572
93543SOL    HW182526   6.367   7.366   4.528
93543SOL    HW282527   6.219   7.378   4.501
93544SOL     OW82528   2.726   3.706   2.301
93544SOL    HW182529   2.683   3.627   2.267
93544SOL    HW282530   2.781   3.674   2.373
93545SOL     OW82531   0.685   1.621  10.690
93545SOL    HW182532   0.702   1.530  10.666
93545SOL    HW282533   0.715   1.672  10.616
93546SOL     OW82534  12.484  11.383  11.538
93546SOL    HW182535  12.524  11.436  11.607
93546SOL    HW282536  12.504  11.293  11.562
93547SOL     OW82537   2.228  10.442  11.641
93547SOL    HW182538   2.289  10.479  11.705
93547SOL    HW282539   2.150  10.421  11.693
93548SOL     OW82540   6.410  12.968   2.255
93548SOL    HW182541   6.423  12.873   2.249
93548SOL    HW282542   6.484  13.005   2.207
93549SOL     OW82543   1.956   3.063   7.662
93549SOL    HW182544   1.944   3.096   7.751
93549SOL    HW282545   1.922   3.133   7.606
93550SOL     OW82546   7.150   0.844  13.611
93550SOL    HW182547   7.165   0.837  13.705
93550SOL    HW282548   7.060   0.875  13.603
93551SOL     OW82549  12.271   5.623   4.162
93551SOL    HW182550  12.215   5.643   4.087
93551SOL    HW282551  12.245   5.687   4.229
93552SOL     OW82552   7.374  13.632   2.294
93552SOL    HW182553   7.462  13.595   2.286
93552SOL    HW282554   7.379  13.716   2.249
93553SOL     OW82555  12.005   3.107   9.474
93553SOL    HW182556  11.936   3.043   9.458
93553SOL    HW282557  11.959   3.191   9.479
93554SOL     OW82558   6.474  12.034   9.024
93554SOL    HW182559   6.464  12.114   8.971
93554SOL    HW282560   6.569  12.022   9.031
93555SOL     OW82561  10.308  10.778  13.484
93555SOL    HW182562  10.282  10.754  13.573
93555SOL    HW282563  10.403  10.768  13.482
93556SOL     OW82564   7.050   5.079  12.081
93556SOL    HW182565   7.081   4.989  12.072
93556SOL    HW282566   7.122   5.125  12.124
93557SOL     OW82567   7.614   5.334  13.621
93557SOL    HW182568   7.634   5.421  13.588
93557SOL    HW282569   7.671   5.275  13.571
93558SOL     OW82570  12.246   1.076  14.056
93558SOL    HW182571  12.336   1.099  14.083
93558SOL    HW282572  12.231   1.129  13.978
93559SOL     OW82573   7.936   5.408   5.787
93559SOL    HW182574   7.976   5.392   5.872
93559SOL    HW282575   7.898   5.495   5.793
93560SOL     OW82576   5.799   0.564   9.073
93560SOL    HW182577   5.786   0.655   9.101
93560SOL    HW282578   5.710   0.527   9.072
93561SOL     OW82579   0.576   3.830   6.120
93561SOL    HW182580   0.523   3.815   6.041
93561SOL    HW282581   0.610   3.743   6.143
93562SOL     OW82582  13.685   4.172   3.015
93562SOL    HW182583  13.773   4.206   2.994
93562SOL    HW282584  13.632   4.251   3.029
93563SOL     OW82585  11.898   7.061   4.983
93563SOL    HW182586  11.928   7.100   4.901
93563SOL    HW282587  11.934   6.972   4.982
93564SOL     OW82588   2.548   2.273   4.072
93564SOL    HW182589   2.619   2.314   4.120
93564SOL    HW282590   2.476   2.266   4.135
93565SOL     OW82591  13.411  10.930  12.094
93565SOL    HW182592  13.486  10.973  12.136
93565SOL    HW282593  13.441  10.913  12.005
93566SOL     OW82594   6.243  13.404   4.312
93566SOL    HW182595   6.217  13.472   4.251
93566SOL    HW282596   6.209  13.433   4.397
93567SOL     OW82597   7.592  12.858   4.672
93567SOL    HW182598   7.648  12.916   4.620
93567SOL    HW282599   7.537  12.917   4.723
93568SOL     OW82600   0.821  11.373  14.518
93568SOL    HW182601   0.785  11.378  14.607
93568SOL    HW282602   0.841  11.463  14.495
93569SOL     OW82603   0.219   6.107   7.628
93569SOL    HW182604   0.184   6.030   7.582
93569SOL    HW282605   0.143   6.163   7.640
93570SOL     OW82606   7.021  14.224   5.561
93570SOL    HW182607   7.058  14.136   5.559
93570SOL    HW282608   6.990  14.234   5.651
93571SOL     OW82609  10.394   8.233   7.427
93571SOL    HW182610  10.447   8.236   7.348
93571SOL    HW282611  10.423   8.154   7.473
93572SOL     OW82612  12.708   8.285  12.565
93572SOL    HW182613  12.777   8.257  12.626
93572SOL    HW282614  12.750   8.351  12.510
93573SOL     OW82615   2.495   5.783   0.769
93573SOL    HW182616   2.502   5.873   0.803
93573SOL    HW282617   2.563   5.778   0.702
93574SOL     OW82618   1.382  11.154   7.008
93574SOL    HW182619   1.414  11.203   6.933
93574SOL    HW282620   1.442  11.175   7.079
93575SOL     OW82621   3.486   4.841   0.670
93575SOL    HW182622   3.521   4.761   0.709
93575SOL    HW282623   3.448   4.889   0.744
93576SOL     OW82624   1.509   8.643  12.918
93576SOL    HW182625   1.587   8.642  12.862
93576SOL    HW282626   1.471   8.730  12.905
93577SOL     OW82627   1.269   8.210  13.194
93577SOL    HW182628   1.178   8.230  13.215
93577SOL    HW282629   1.315   8.293  13.208
93578SOL     OW82630  13.173  11.520   3.990
93578SOL    HW182631  13.260  11.483   4.005
93578SOL    HW282632  13.153  11.497   3.899
93579SOL     OW82633  10.109  11.347   1.515
93579SOL    HW182634  10.037  11.288   1.537
93579SOL    HW282635  10.188  11.299   1.539
93580SOL     OW82636   3.260  11.868  12.422
93580SOL    HW182637   3.201  11.942  12.405
93580SOL    HW282638   3.304  11.891  12.503
93581SOL     OW82639   2.670   7.673   9.380
93581SOL    HW182640   2.632   7.738   9.438
93581SOL    HW282641   2.712   7.723   9.311
93582SOL     OW82642   6.641   1.067  13.110
93582SOL    HW182643   6.688   1.140  13.151
93582SOL    HW282644   6.656   1.079  13.016
93583SOL     OW82645  11.174  14.357  10.934
93583SOL    HW182646  11.171  14.280  10.990
93583SOL    HW282647  11.105  14.415  10.967
93584SOL     OW82648  11.475   1.474   1.297
93584SOL    HW182649  11.516   1.442   1.217
93584SOL    HW282650  11.456   1.566   1.280
93585SOL     OW82651   4.429   4.899   5.499
93585SOL    HW182652   4.356   4.941   5.545
93585SOL    HW282653   4.393   4.818   5.464
93586SOL     OW82654   1.694  13.806   4.084
93586SOL    HW182655   1.636  13.874   4.050
93586SOL    HW282656   1.767  13.804   4.023
93587SOL     OW82657   4.306  10.216  12.716
93587SOL    HW182658   4.323  10.159  12.641
93587SOL    HW282659   4.211  10.209  12.730
93588SOL     OW82660  13.021   2.275   2.344
93588SOL    HW182661  12.935   2.298   2.309
93588SOL    HW282662  13.005   2.255   2.436
93589SOL     OW82663   7.688   1.303   7.048
93589SOL    HW182664   7.629   1.373   7.020
93589SOL    HW282665   7.724   1.333   7.131
93590SOL     OW82666  13.503   7.503   4.104
93590SOL    HW182667  13.494   7.513   4.198
93590SOL    HW282668  13.594   7.474   4.091
93591SOL     OW82669   6.113   5.629   9.830
93591SOL    HW182670   6.207   5.611   9.820
93591SOL    HW282671   6.072   5.587   9.755
93592SOL     OW82672   3.690   4.741  12.436
93592SOL    HW182673   3.695   4.833  12.464
93592SOL    HW282674   3.779   4.721  12.406
93593SOL     OW82675   0.874  12.110  12.872
93593SOL    HW182676   0.890  12.181  12.934
93593SOL    HW282677   0.943  12.046  12.892
93594SOL     OW82678   2.765  12.095   0.099
93594SOL    HW182679   2.805  12.029   0.156
93594SOL    HW282680   2.784  12.066   0.011
93595SOL     OW82681  11.792  13.557   1.516
93595SOL    HW182682  11.751  13.587   1.598
93595SOL    HW282683  11.883  13.582   1.524
93596SOL     OW82684  13.917  12.884   2.969
93596SOL    HW182685  13.983  12.815   2.977
93596SOL    HW282686  13.937  12.944   3.040
93597SOL     OW82687  13.442   7.988   6.783
93597SOL    HW182688  13.470   7.965   6.872
93597SOL    HW282689  13.407   8.077   6.792
93598SOL     OW82690  11.397  13.311   4.110
93598SOL    HW182691  11.438  13.344   4.030
93598SOL    HW282692  11.345  13.236   4.080
93599SOL     OW82693   9.048   5.130   2.110
93599SOL    HW182694   9.037   5.216   2.069
93599SOL    HW282695   8.966   5.115   2.157
93600SOL     OW82696   1.642  13.680   2.897
93600SOL    HW182697   1.682  13.680   2.810
93600SOL    HW282698   1.562  13.732   2.886
93601SOL     OW82699   9.519   3.570   4.097
93601SOL    HW182700   9.580   3.575   4.170
93601SOL    HW282701   9.445   3.625   4.122
93602SOL     OW82702   2.266   1.407  12.574
93602SOL    HW182703   2.226   1.320  12.565
93602SOL    HW282704   2.265   1.425  12.668
93603SOL     OW82705  10.900  10.967   4.714
93603SOL    HW182706  10.828  10.976   4.776
93603SOL    HW282707  10.978  10.993   4.764
93604SOL     OW82708   0.790   6.631   3.738
93604SOL    HW182709   0.843   6.582   3.801
93604SOL    HW282710   0.832   6.615   3.654
93605SOL     OW82711   5.866   6.048   0.780
93605SOL    HW182712   5.897   6.026   0.692
93605SOL    HW282713   5.921   6.121   0.808
93606SOL     OW82714  11.792   4.638   4.249
93606SOL    HW182715  11.867   4.675   4.295
93606SOL    HW282716  11.730   4.616   4.319
93607SOL     OW82717   7.457   1.750   2.940
93607SOL    HW182718   7.516   1.684   2.905
93607SOL    HW282719   7.378   1.701   2.964
93608SOL     OW82720   4.766   9.508   0.067
93608SOL    HW182721   4.716   9.565   0.009
93608SOL    HW282722   4.707   9.435   0.087
93609SOL     OW82723   6.236   6.714   8.500
93609SOL    HW182724   6.143   6.707   8.521
93609SOL    HW282725   6.277   6.642   8.548
93610SOL     OW82726   0.049   3.373  10.689
93610SOL    HW182727   0.109   3.374  10.764
93610SOL    HW282728  14.832   3.392  10.727
93611SOL     OW82729  10.649   3.049   9.912
93611SOL    HW182730  10.679   2.958   9.909
93611SOL    HW282731  10.616   3.060  10.002
93612SOL     OW82732  12.886   7.465  10.769
93612SOL    HW182733  12.969   7.482  10.813
93612SOL    HW282734  12.820   7.498  10.830
93613SOL     OW82735  12.223   4.673  10.334
93613SOL    HW182736  12.162   4.734  10.294
93613SOL    HW282737  12.232   4.603  10.269
93614SOL     OW82738   3.278   4.702   9.805
93614SOL    HW182739   3.271   4.671   9.895
93614SOL    HW282740   3.187   4.717   9.778
93615SOL     OW82741   0.202   4.108  14.782
93615SOL    HW182742   0.209   4.204  14.776
93615SOL    HW282743   0.154   4.083  14.703
93616SOL     OW82744   8.456   3.929  13.806
93616SOL    HW182745   8.398   3.963  13.874
93616SOL    HW282746   8.544   3.943  13.841
93617SOL     OW82747   6.312   9.830   9.723
93617SOL    HW182748   6.385   9.851   9.781
93617SOL    HW282749   6.287   9.741   9.747
93618SOL     OW82750   8.157   4.581   6.220
93618SOL    HW182751   8.071   4.540   6.232
93618SOL    HW282752   8.146   4.671   6.251
93619SOL     OW82753   5.235  10.172   1.703
93619SOL    HW182754   5.216  10.261   1.733
93619SOL    HW282755   5.327  10.175   1.677
93620SOL     OW82756   8.224  12.422   1.828
93620SOL    HW182757   8.258  12.408   1.917
93620SOL    HW282758   8.302  12.432   1.774
93621SOL     OW82759  10.132   8.742   2.678
93621SOL    HW182760  10.134   8.834   2.652
93621SOL    HW282761  10.088   8.698   2.605
93622SOL     OW82762  11.720   0.768   0.338
93622SOL    HW182763  11.637   0.755   0.291
93622SOL    HW282764  11.770   0.827   0.282
93623SOL     OW82765   5.362  12.417  11.091
93623SOL    HW182766   5.395  12.453  11.009
93623SOL    HW282767   5.436  12.423  11.152
93624SOL     OW82768   0.318   6.406  11.749
93624SOL    HW182769   0.312   6.315  11.720
93624SOL    HW282770   0.228   6.431  11.769
93625SOL     OW82771  13.508  10.485   8.641
93625SOL    HW182772  13.447  10.436   8.586
93625SOL    HW282773  13.518  10.433   8.720
93626SOL     OW82774   9.902   0.176  10.300
93626SOL    HW182775   9.938   0.194  10.213
93626SOL    HW282776   9.969   0.207  10.361
93627SOL     OW82777  13.470   6.148   7.588
93627SOL    HW182778  13.467   6.053   7.575
93627SOL    HW282779  13.521   6.159   7.668
93628SOL     OW82780  10.916   3.956  13.286
93628SOL    HW182781  10.829   3.956  13.325
93628SOL    HW282782  10.915   3.882  13.225
93629SOL     OW82783  14.386   5.385   8.182
93629SOL    HW182784  14.373   5.472   8.145
93629SOL    HW282785  14.469   5.355   8.145
93630SOL     OW82786  10.961   9.848  11.006
93630SOL    HW182787  10.887   9.795  10.979
93630SOL    HW282788  10.923   9.934  11.027
93631SOL     OW82789   6.354   7.821   2.658
93631SOL    HW182790   6.431   7.817   2.715
93631SOL    HW282791   6.359   7.907   2.617
93632SOL     OW82792   5.794  14.353   9.062
93632SOL    HW182793   5.814  14.385   8.974
93632SOL    HW282794   5.875  14.367   9.111
93633SOL     OW82795   6.869  11.128   8.284
93633SOL    HW182796   6.903  11.164   8.366
93633SOL    HW282797   6.775  11.145   8.288
93634SOL     OW82798   9.900   5.442  10.767
93634SOL    HW182799   9.948   5.524  10.762
93634SOL    HW282800   9.838   5.445  10.694
93635SOL     OW82801   2.288   1.363   3.053
93635SOL    HW182802   2.359   1.427   3.061
93635SOL    HW282803   2.285   1.320   3.138
93636SOL     OW82804  12.466  14.320   0.462
93636SOL    HW182805  12.456  14.269   0.381
93636SOL    HW282806  12.440  14.259   0.531
93637SOL     OW82807   1.119   2.181   4.495
93637SOL    HW182808   1.204   2.181   4.540
93637SOL    HW282809   1.054   2.182   4.566
93638SOL     OW82810   2.341   7.210   2.735
93638SOL    HW182811   2.372   7.256   2.814
93638SOL    HW282812   2.373   7.265   2.663
93639SOL     OW82813   7.579  13.604  14.289
93639SOL    HW182814   7.629  13.684  14.275
93639SOL    HW282815   7.515  13.603  14.218
93640SOL     OW82816  14.440   7.830  14.045
93640SOL    HW182817  14.371   7.765  14.061
93640SOL    HW282818  14.449   7.833  13.950
93641SOL     OW82819   7.360  11.079  13.874
93641SOL    HW182820   7.381  10.991  13.906
93641SOL    HW282821   7.424  11.094  13.804
93642SOL     OW82822  14.015   6.183   4.028
93642SOL    HW182823  14.104   6.165   3.998
93642SOL    HW282824  13.984   6.100   4.065
93643SOL     OW82825   3.709   0.523   7.477
93643SOL    HW182826   3.635   0.507   7.418
93643SOL    HW282827   3.780   0.550   7.419
93644SOL     OW82828   3.595  11.924   8.015
93644SOL    HW182829   3.603  12.005   8.065
93644SOL    HW282830   3.642  11.858   8.066
93645SOL     OW82831  11.843   9.990   1.070
93645SOL    HW182832  11.909  10.047   1.110
93645SOL    HW282833  11.861   9.904   1.107
93646SOL     OW82834   0.302   8.512   2.080
93646SOL    HW182835   0.302   8.429   2.032
93646SOL    HW282836   0.349   8.573   2.022
93647SOL     OW82837  14.401  10.322   7.185
93647SOL    HW182838  14.375  10.382   7.255
93647SOL    HW282839  14.368  10.363   7.105
93648SOL     OW82840   5.883   6.106   5.760
93648SOL    HW182841   5.816   6.089   5.693
93648SOL    HW282842   5.875   6.200   5.778
93649SOL     OW82843  14.753   0.002   0.130
93649SOL    HW182844  14.733  14.817   0.206
93649SOL    HW282845  14.848   0.011   0.131
93650SOL     OW82846  11.557  12.288   1.495
93650SOL    HW182847  11.480  12.268   1.548
93650SOL    HW282848  11.632  12.267   1.552
93651SOL     OW82849   3.888   9.646   7.462
93651SOL    HW182850   3.919   9.624   7.549
93651SOL    HW282851   3.854   9.564   7.426
93652SOL     OW82852   0.940   1.596   5.651
93652SOL    HW182853   0.960   1.617   5.742
93652SOL    HW282854   1.016   1.625   5.601
93653SOL     OW82855   1.850   5.685   8.951
93653SOL    HW182856   1.944   5.696   8.936
93653SOL    HW282857   1.844   5.605   9.004
93654SOL     OW82858   4.962  11.502  11.999
93654SOL    HW182859   4.952  11.591  11.966
93654SOL    HW282860   4.957  11.446  11.921
93655SOL     OW82861   2.395   4.426   0.072
93655SOL    HW182862   2.490   4.432   0.058
93655SOL    HW282863   2.367   4.357   0.012
93656SOL     OW82864   4.536  14.799   0.329
93656SOL    HW182865   4.444  14.774   0.338
93656SOL    HW282866   4.572  14.737   0.266
93657SOL     OW82867  10.609  12.715   5.950
93657SOL    HW182868  10.542  12.782   5.962
93657SOL    HW282869  10.618  12.707   5.855
93658SOL     OW82870   2.243   7.263  12.156
93658SOL    HW182871   2.238   7.173  12.188
93658SOL    HW282872   2.254   7.316  12.235
93659SOL     OW82873   9.251   5.555   5.953
93659SOL    HW182874   9.255   5.649   5.935
93659SOL    HW282875   9.331   5.520   5.914
93660SOL     OW82876  10.796   2.210   0.030
93660SOL    HW182877  10.733   2.228   0.100
93660SOL    HW282878  10.796   2.114   0.022
93661SOL     OW82879   9.525   8.155  10.820
93661SOL    HW182880   9.573   8.200  10.889
93661SOL    HW282881   9.437   8.144  10.855
93662SOL     OW82882   7.714  13.379   3.708
93662SOL    HW182883   7.721  13.442   3.779
93662SOL    HW282884   7.778  13.311   3.731
93663SOL     OW82885  14.645   3.602   1.659
93663SOL    HW182886  14.670   3.615   1.751
93663SOL    HW282887  14.553   3.573   1.664
93664SOL     OW82888   1.399   6.903   3.546
93664SOL    HW182889   1.440   6.936   3.625
93664SOL    HW282890   1.344   6.976   3.515
93665SOL     OW82891   8.410   4.343   1.663
93665SOL    HW182892   8.368   4.398   1.729
93665SOL    HW282893   8.412   4.255   1.701
93666SOL     OW82894   2.619  14.320   2.995
93666SOL    HW182895   2.533  14.278   2.998
93666SOL    HW282896   2.616  14.376   2.918
93667SOL     OW82897  13.235   4.220  14.181
93667SOL    HW182898  13.158   4.215  14.124
93667SOL    HW282899  13.222   4.299  14.233
93668SOL     OW82900  13.011  12.118   1.942
93668SOL    HW182901  12.973  12.205   1.955
93668SOL    HW282902  13.088  12.117   2.000
93669SOL     OW82903   8.418  11.220   4.904
93669SOL    HW182904   8.371  11.150   4.950
93669SOL    HW282905   8.370  11.300   4.926
93670SOL     OW82906   4.691   3.733  10.235
93670SOL    HW182907   4.698   3.829  10.237
93670SOL    HW282908   4.614   3.716  10.181
93671SOL     OW82909   1.675  10.139   3.957
93671SOL    HW182910   1.709  10.156   4.044
93671SOL    HW282911   1.590  10.183   3.955
93672SOL     OW82912   7.581  12.797   5.914
93672SOL    HW182913   7.503  12.741   5.911
93672SOL    HW282914   7.553  12.875   5.961
93673SOL     OW82915  12.440  13.309  13.183
93673SOL    HW182916  12.492  13.241  13.140
93673SOL    HW282917  12.351  13.276  13.180
93674SOL     OW82918  10.221   0.044   0.922
93674SOL    HW182919  10.270   0.017   0.999
93674SOL    HW282920  10.155   0.104   0.956
93675SOL     OW82921  12.758  13.215   7.338
93675SOL    HW182922  12.743  13.167   7.420
93675SOL    HW282923  12.726  13.157   7.270
93676SOL     OW82924   6.129   7.301   4.355
93676SOL    HW182925   6.051   7.314   4.301
93676SOL    HW282926   6.153   7.209   4.341
93677SOL     OW82927   7.881   0.201  13.294
93677SOL    HW182928   7.797   0.239  13.268
93677SOL    HW282929   7.865   0.107  13.296
93678SOL     OW82930   1.485   6.915   4.503
93678SOL    HW182931   1.573   6.911   4.465
93678SOL    HW282932   1.483   6.843   4.566
93679SOL     OW82933   8.258   8.459   5.419
93679SOL    HW182934   8.219   8.544   5.398
93679SOL    HW282935   8.303   8.473   5.502
93680SOL     OW82936   0.687   3.467   1.140
93680SOL    HW182937   0.741   3.516   1.202
93680SOL    HW282938   0.658   3.390   1.190
93681SOL     OW82939   9.186  10.652   3.537
93681SOL    HW182940   9.280  10.640   3.524
93681SOL    HW282941   9.147  10.623   3.455
93682SOL     OW82942  12.740   0.852   0.794
93682SOL    HW182943  12.689   0.780   0.832
93682SOL    HW282944  12.732   0.839   0.699
93683SOL     OW82945  13.651  12.866   8.609
93683SOL    HW182946  13.559  12.890   8.599
93683SOL    HW282947  13.657  12.826   8.696
93684SOL     OW82948  14.258   2.750   1.282
93684SOL    HW182949  14.187   2.760   1.346
93684SOL    HW282950  14.330   2.802   1.319
93685SOL     OW82951   7.620   1.055   6.095
93685SOL    HW182952   7.673   0.976   6.105
93685SOL    HW282953   7.623   1.075   6.002
93686SOL     OW82954   3.778   9.007  10.046
93686SOL    HW182955   3.808   8.921  10.074
93686SOL    HW282956   3.855   9.048  10.008
93687SOL     OW82957   1.543   0.188   3.615
93687SOL    HW182958   1.615   0.201   3.676
93687SOL    HW282959   1.528   0.274   3.575
93688SOL     OW82960   4.155  12.496   7.269
93688SOL    HW182961   4.150  12.427   7.335
93688SOL    HW282962   4.247  12.523   7.269
93689SOL     OW82963  10.569   1.723   1.509
93689SOL    HW182964  10.615   1.715   1.593
93689SOL    HW282965  10.572   1.635   1.472
93690SOL     OW82966   1.315   4.140   4.626
93690SOL    HW182967   1.351   4.077   4.688
93690SOL    HW282968   1.221   4.143   4.646
93691SOL     OW82969   7.910   1.944   4.644
93691SOL    HW182970   7.891   2.037   4.632
93691SOL    HW282971   7.928   1.936   4.738
93692SOL     OW82972   7.155  11.291   2.536
93692SOL    HW182973   7.175  11.247   2.453
93692SOL    HW282974   7.180  11.227   2.603
93693SOL     OW82975   1.359   2.025  11.064
93693SOL    HW182976   1.326   1.937  11.045
93693SOL    HW282977   1.281   2.081  11.062
93694SOL     OW82978   1.365  13.074  14.596
93694SOL    HW182979   1.439  13.132  14.608
93694SOL    HW282980   1.403  12.988  14.583
93695SOL     OW82981   3.273  14.680  10.889
93695SOL    HW182982   3.191  14.707  10.846
93695SOL    HW282983   3.318  14.628  10.822
93696SOL     OW82984  12.202  13.485  12.103
93696SOL    HW182985  12.129  13.487  12.042
93696SOL    HW282986  12.162  13.497  12.189
93697SOL     OW82987   9.529  10.424   7.650
93697SOL    HW182988   9.514  10.422   7.556
93697SOL    HW282989   9.583  10.502   7.663
93698SOL     OW82990   3.321   6.873  14.771
93698SOL    HW182991   3.355   6.789  14.802
93698SOL    HW282992   3.394   6.912  14.723
93699SOL     OW82993   5.595  14.156   4.725
93699SOL    HW182994   5.621  14.165   4.817
93699SOL    HW282995   5.513  14.206   4.718
93700SOL     OW82996  10.324   9.532   5.649
93700SOL    HW182997  10.231   9.556   5.647
93700SOL    HW282998  10.327   9.456   5.707
93701SOL     OW82999  13.046   9.425   6.642
93701SOL    HW183000  13.132   9.467   6.638
93701SOL    HW283001  13.017   9.438   6.732
93702SOL     OW83002   8.457   3.663   2.852
93702SOL    HW183003   8.453   3.646   2.946
93702SOL    HW283004   8.444   3.758   2.844
93703SOL     OW83005   7.230   2.540   5.726
93703SOL    HW183006   7.187   2.569   5.645
93703SOL    HW283007   7.322   2.530   5.701
93704SOL     OW83008   9.513  11.050   6.461
93704SOL    HW183009   9.443  11.073   6.400
93704SOL    HW283010   9.472  10.991   6.524
93705SOL     OW83011  12.589   6.215  10.542
93705SOL    HW183012  12.625   6.199  10.455
93705SOL    HW283013  12.656   6.266  10.587
93706SOL     OW83014   7.047   5.196  10.252
93706SOL    HW183015   7.084   5.123  10.202
93706SOL    HW283016   7.043   5.164  10.342
93707SOL     OW83017   2.409   7.560  14.226
93707SOL    HW183018   2.318   7.581  14.209
93707SOL    HW283019   2.454   7.645  14.225
93708SOL     OW83020  10.289  13.882   4.285
93708SOL    HW183021  10.368  13.930   4.313
93708SOL    HW283022  10.217  13.928   4.330
93709SOL     OW83023   4.129   3.719  13.124
93709SOL    HW183024   4.045   3.765  13.125
93709SOL    HW283025   4.138   3.687  13.034
93710SOL     OW83026   8.331  13.619   4.910
93710SOL    HW183027   8.362  13.645   4.823
93710SOL    HW283028   8.377  13.678   4.970
93711SOL     OW83029   7.148   1.043   9.927
93711SOL    HW183030   7.104   1.117   9.883
93711SOL    HW283031   7.240   1.066   9.926
93712SOL     OW83032   2.797   0.426   8.257
93712SOL    HW183033   2.818   0.358   8.193
93712SOL    HW283034   2.813   0.385   8.342
93713SOL     OW83035   0.792   7.479  11.573
93713SOL    HW183036   0.749   7.517  11.496
93713SOL    HW283037   0.885   7.480  11.551
93714SOL     OW83038   4.388   8.119   6.079
93714SOL    HW183039   4.406   8.205   6.041
93714SOL    HW283040   4.352   8.138   6.165
93715SOL     OW83041   9.412   1.515   2.299
93715SOL    HW183042   9.359   1.447   2.341
93715SOL    HW283043   9.383   1.596   2.341
93716SOL     OW83044  11.074   1.500  10.775
93716SOL    HW183045  11.136   1.427  10.786
93716SOL    HW283046  11.097   1.561  10.846
93717SOL     OW83047   0.569   3.312  11.464
93717SOL    HW183048   0.581   3.229  11.510
93717SOL    HW283049   0.493   3.351  11.505
93718SOL     OW83050  13.564  13.029   7.229
93718SOL    HW183051  13.641  13.084   7.217
93718SOL    HW283052  13.511  13.076   7.293
93719SOL     OW83053   9.778  11.695  14.089
93719SOL    HW183054   9.693  11.737  14.080
93719SOL    HW283055   9.839  11.767  14.104
93720SOL     OW83056   5.601  10.137   3.683
93720SOL    HW183057   5.531  10.106   3.741
93720SOL    HW283058   5.556  10.166   3.604
93721SOL     OW83059   8.952   4.601  12.006
93721SOL    HW183060   8.902   4.520  11.999
93721SOL    HW283061   8.980   4.604  12.098
93722SOL     OW83062   2.237   0.230  13.935
93722SOL    HW183063   2.233   0.321  13.966
93722SOL    HW283064   2.215   0.178  14.012
93723SOL     OW83065  13.509   1.161  10.758
93723SOL    HW183066  13.588   1.107  10.761
93723SOL    HW283067  13.509   1.209  10.841
93724SOL     OW83068  10.647   6.199   7.690
93724SOL    HW183069  10.623   6.171   7.602
93724SOL    HW283070  10.574   6.170   7.745
93725SOL     OW83071   2.651  10.669   8.498
93725SOL    HW183072   2.684  10.582   8.477
93725SOL    HW283073   2.594  10.655   8.573
93726SOL     OW83074   8.754   1.268   2.381
93726SOL    HW183075   8.786   1.256   2.471
93726SOL    HW283076   8.832   1.293   2.331
93727SOL     OW83077   8.462   4.772   9.792
93727SOL    HW183078   8.545   4.737   9.759
93727SOL    HW283079   8.457   4.860   9.756
93728SOL     OW83080   2.465  10.481  14.839
93728SOL    HW183081   2.464  10.566   0.013
93728SOL    HW283082   2.520  10.494  14.762
93729SOL     OW83083   5.332   5.209  10.921
93729SOL    HW183084   5.289   5.124  10.934
93729SOL    HW283085   5.286   5.268  10.981
93730SOL     OW83086   9.472  10.802  14.418
93730SOL    HW183087   9.507  10.860  14.351
93730SOL    HW283088   9.544  10.788  14.479
93731SOL     OW83089   4.994  14.298  14.779
93731SOL    HW183090   4.935  14.283  14.853
93731SOL    HW283091   4.940  14.286  14.701
93732SOL     OW83092   1.121   0.213   4.252
93732SOL    HW183093   1.215   0.226   4.242
93732SOL    HW283094   1.089   0.295   4.288
93733SOL     OW83095   7.801  10.974   2.726
93733SOL    HW183096   7.805  10.898   2.784
93733SOL    HW283097   7.887  10.975   2.683
93734SOL     OW83098   1.303   9.879  13.873
93734SOL    HW183099   1.337   9.969  13.875
93734SOL    HW283100   1.332   9.845  13.788
93735SOL     OW83101   1.628  11.964   7.721
93735SOL    HW183102   1.679  11.883   7.715
93735SOL    HW283103   1.537  11.937   7.706
93736SOL     OW83104   7.120   2.480   9.261
93736SOL    HW183105   7.177   2.556   9.248
93736SOL    HW283106   7.061   2.507   9.331
93737SOL     OW83107   1.587   7.617   2.289
93737SOL    HW183108   1.645   7.541   2.283
93737SOL    HW283109   1.582   7.650   2.199
93738SOL     OW83110  14.425   6.908   8.404
93738SOL    HW183111  14.363   6.835   8.407
93738SOL    HW283112  14.379   6.980   8.448
93739SOL     OW83113   3.024  13.088   6.382
93739SOL    HW183114   2.963  13.140   6.434
93739SOL    HW283115   3.011  13.118   6.292
93740SOL     OW83116   1.813  13.158   9.003
93740SOL    HW183117   1.788  13.245   9.033
93740SOL    HW283118   1.812  13.164   8.907
93741SOL     OW83119  11.676  10.032   0.315
93741SOL    HW183120  11.756  10.002   0.273
93741SOL    HW283121  11.640   9.954   0.356
93742SOL     OW83122   3.028   3.797  13.207
93742SOL    HW183123   3.110   3.774  13.251
93742SOL    HW283124   2.976   3.840  13.274
93743SOL     OW83125   4.140   8.379  12.935
93743SOL    HW183126   4.182   8.293  12.943
93743SOL    HW283127   4.211   8.442  12.948
93744SOL     OW83128   9.697   9.797   4.366
93744SOL    HW183129   9.673   9.874   4.313
93744SOL    HW283130   9.613   9.754   4.384
93745SOL     OW83131  12.017   7.516   5.391
93745SOL    HW183132  11.940   7.460   5.395
93745SOL    HW283133  12.048   7.508   5.300
93746SOL     OW83134   1.505   5.690   7.671
93746SOL    HW183135   1.455   5.685   7.589
93746SOL    HW283136   1.587   5.644   7.652
93747SOL     OW83137  10.857  13.096   8.732
93747SOL    HW183138  10.845  13.163   8.800
93747SOL    HW283139  10.950  13.099   8.712
93748SOL     OW83140  14.784   3.498  11.096
93748SOL    HW183141  14.755   3.587  11.075
93748SOL    HW283142  14.796   3.499  11.191
93749SOL     OW83143   8.125   3.096  14.728
93749SOL    HW183144   8.079   3.041  14.665
93749SOL    HW283145   8.217   3.068  14.721
93750SOL     OW83146  10.620   8.222  12.153
93750SOL    HW183147  10.537   8.246  12.112
93750SOL    HW283148  10.617   8.263  12.239
93751SOL     OW83149  12.532  12.446   7.376
93751SOL    HW183150  12.616  12.480   7.345
93751SOL    HW283151  12.482  12.523   7.401
93752SOL     OW83152   1.843   4.319   1.803
93752SOL    HW183153   1.868   4.242   1.853
93752SOL    HW283154   1.766   4.291   1.753
93753SOL     OW83155  10.985   0.328   0.793
93753SOL    HW183156  11.065   0.343   0.742
93753SOL    HW283157  10.918   0.310   0.727
93754SOL     OW83158   8.895  12.400  11.099
93754SOL    HW183159   8.855  12.419  11.015
93754SOL    HW283160   8.924  12.485  11.132
93755SOL     OW83161   4.920   3.687   3.808
93755SOL    HW183162   4.880   3.641   3.734
93755SOL    HW283163   4.845   3.717   3.859
93756SOL     OW83164   4.977   3.813  13.588
93756SOL    HW183165   4.912   3.751  13.553
93756SOL    HW283166   4.925   3.877  13.636
93757SOL     OW83167  13.987  13.846  11.332
93757SOL    HW183168  13.937  13.844  11.251
93757SOL    HW283169  13.961  13.766  11.378
93758SOL     OW83170   9.992  10.617  14.471
93758SOL    HW183171  10.088  10.621  14.467
93758SOL    HW283172   9.972  10.525  14.489
93759SOL     OW83173   8.683   6.717   1.200
93759SOL    HW183174   8.726   6.712   1.286
93759SOL    HW283175   8.634   6.634   1.194
93760SOL     OW83176   1.795   3.494   7.641
93760SOL    HW183177   1.830   3.511   7.554
93760SOL    HW283178   1.845   3.419   7.673
93761SOL     OW83179  12.186  13.592   8.781
93761SOL    HW183180  12.185  13.552   8.868
93761SOL    HW283181  12.155  13.522   8.722
93762SOL     OW83182   1.928   2.774  13.319
93762SOL    HW183183   1.972   2.696  13.352
93762SOL    HW283184   1.982   2.847  13.352
93763SOL     OW83185   6.543   9.042  14.854
93763SOL    HW183186   6.570   9.095   0.059
93763SOL    HW283187   6.477   9.095  14.809
93764SOL     OW83188   9.298   4.862   0.890
93764SOL    HW183189   9.250   4.911   0.822
93764SOL    HW283190   9.287   4.915   0.969
93765SOL     OW83191   1.928   9.288   5.539
93765SOL    HW183192   1.922   9.266   5.632
93765SOL    HW283193   1.997   9.354   5.534
93766SOL     OW83194  12.395   1.821  10.915
93766SOL    HW183195  12.439   1.736  10.917
93766SOL    HW283196  12.460   1.882  10.951
93767SOL     OW83197  11.264   9.098   4.129
93767SOL    HW183198  11.194   9.063   4.184
93767SOL    HW283199  11.278   9.187   4.161
93768SOL     OW83200  10.901  12.063   9.292
93768SOL    HW183201  10.980  12.115   9.311
93768SOL    HW283202  10.886  12.013   9.373
93769SOL     OW83203   1.871   7.925   8.873
93769SOL    HW183204   1.803   7.894   8.932
93769SOL    HW283205   1.896   8.011   8.909
93770SOL     OW83206   9.729   1.565   9.317
93770SOL    HW183207   9.661   1.517   9.270
93770SOL    HW283208   9.744   1.644   9.265
93771SOL     OW83209   4.413  11.304  12.185
93771SOL    HW183210   4.414  11.336  12.095
93771SOL    HW283211   4.498  11.262  12.197
93772SOL     OW83212  10.827   4.876   7.383
93772SOL    HW183213  10.761   4.825   7.337
93772SOL    HW283214  10.869   4.814   7.441
93773SOL     OW83215   3.340  12.788   3.222
93773SOL    HW183216   3.269  12.728   3.198
93773SOL    HW283217   3.303  12.841   3.294
93774SOL     OW83218  13.867   7.982  11.962
93774SOL    HW183219  13.817   7.900  11.962
93774SOL    HW283220  13.952   7.957  11.926
93775SOL     OW83221   9.854   2.662  13.802
93775SOL    HW183222   9.901   2.582  13.775
93775SOL    HW283223   9.815   2.640  13.886
93776SOL     OW83224  10.343  13.673   7.500
93776SOL    HW183225  10.419  13.626   7.534
93776SOL    HW283226  10.321  13.736   7.569
93777SOL     OW83227   4.748   9.961   0.234
93777SOL    HW183228   4.715   9.946   0.146
93777SOL    HW283229   4.671   9.985   0.285
93778SOL     OW83230   6.639   1.849  11.585
93778SOL    HW183231   6.586   1.869  11.507
93778SOL    HW283232   6.582   1.871  11.659
93779SOL     OW83233   9.780   1.128  10.475
93779SOL    HW183234   9.874   1.112  10.484
93779SOL    HW283235   9.743   1.098  10.559
93780SOL     OW83236  10.202   1.152  11.141
93780SOL    HW183237  10.138   1.151  11.069
93780SOL    HW283238  10.160   1.103  11.211
93781SOL     OW83239  12.153  12.404  11.245
93781SOL    HW183240  12.128  12.367  11.161
93781SOL    HW283241  12.071  12.411  11.294
93782SOL     OW83242  11.563   8.538  10.817
93782SOL    HW183243  11.559   8.449  10.782
93782SOL    HW283244  11.629   8.534  10.886
93783SOL     OW83245   7.410   9.638   2.526
93783SOL    HW183246   7.363   9.574   2.472
93783SOL    HW283247   7.431   9.591   2.607
93784SOL     OW83248  10.505   2.448   5.478
93784SOL    HW183249  10.522   2.430   5.385
93784SOL    HW283250  10.585   2.419   5.523
93785SOL     OW83251   7.206   9.466   1.576
93785SOL    HW183252   7.143   9.427   1.516
93785SOL    HW283253   7.288   9.469   1.527
93786SOL     OW83254   6.063   3.985   0.484
93786SOL    HW183255   6.143   4.032   0.510
93786SOL    HW283256   5.992   4.039   0.518
93787SOL     OW83257   2.209  13.396  13.897
93787SOL    HW183258   2.256  13.337  13.838
93787SOL    HW283259   2.152  13.338  13.948
93788SOL     OW83260   7.767  10.538   5.251
93788SOL    HW183261   7.714  10.488   5.189
93788SOL    HW283262   7.763  10.628   5.220
93789SOL     OW83263   0.531  10.063   7.130
93789SOL    HW183264   0.521   9.977   7.170
93789SOL    HW283265   0.623  10.066   7.102
93790SOL     OW83266   2.408   9.997   9.033
93790SOL    HW183267   2.405  10.070   8.971
93790SOL    HW283268   2.470  10.025   9.101
93791SOL     OW83269  12.676   9.874  10.904
93791SOL    HW183270  12.758   9.832  10.877
93791SOL    HW283271  12.704   9.955  10.946
93792SOL     OW83272   7.794   3.230  11.915
93792SOL    HW183273   7.879   3.188  11.930
93792SOL    HW283274   7.794   3.251  11.821
93793SOL     OW83275   1.188  13.503   6.003
93793SOL    HW183276   1.254  13.434   6.008
93793SOL    HW283277   1.215  13.557   5.928
93794SOL     OW83278  14.308  12.821  12.477
93794SOL    HW183279  14.266  12.894  12.523
93794SOL    HW283280  14.387  12.803  12.527
93795SOL     OW83281   1.229  11.959  14.593
93795SOL    HW183282   1.211  11.900  14.666
93795SOL    HW283283   1.153  12.017  14.589
93796SOL     OW83284  11.700  12.235   3.774
93796SOL    HW183285  11.692  12.306   3.711
93796SOL    HW283286  11.758  12.172   3.732
93797SOL     OW83287  12.503  12.537   1.677
93797SOL    HW183288  12.415  12.510   1.650
93797SOL    HW283289  12.556  12.458   1.673
93798SOL     OW83290   0.422   7.268   9.139
93798SOL    HW183291   0.430   7.353   9.184
93798SOL    HW283292   0.477   7.277   9.061
93799SOL     OW83293   5.401   9.181   4.678
93799SOL    HW183294   5.355   9.240   4.618
93799SOL    HW283295   5.366   9.094   4.658
93800SOL     OW83296   7.719   8.825   3.396
93800SOL    HW183297   7.674   8.741   3.411
93800SOL    HW283298   7.765   8.812   3.314
93801SOL     OW83299   0.053   1.812   1.518
93801SOL    HW183300   0.057   1.720   1.494
93801SOL    HW283301   0.074   1.859   1.438
93802SOL     OW83302  11.204   1.160   1.936
93802SOL    HW183303  11.149   1.084   1.919
93802SOL    HW283304  11.270   1.129   1.999
93803SOL     OW83305  13.528   3.764   1.973
93803SOL    HW183306  13.565   3.852   1.965
93803SOL    HW283307  13.574   3.725   2.047
93804SOL     OW83308   4.547   2.774   7.288
93804SOL    HW183309   4.610   2.789   7.358
93804SOL    HW283310   4.523   2.862   7.258
93805SOL     OW83311   5.298   8.484   7.582
93805SOL    HW183312   5.389   8.464   7.560
93805SOL    HW283313   5.268   8.407   7.630
93806SOL     OW83314   3.215   4.330  14.495
93806SOL    HW183315   3.188   4.238  14.493
93806SOL    HW283316   3.283   4.336  14.428
93807SOL     OW83317   4.236   3.898   2.591
93807SOL    HW183318   4.319   3.946   2.597
93807SOL    HW283319   4.262   3.807   2.579
93808SOL     OW83320  12.753   0.556   8.052
93808SOL    HW183321  12.784   0.602   8.130
93808SOL    HW283322  12.713   0.624   7.998
93809SOL     OW83323  11.093  14.572  12.230
93809SOL    HW183324  11.020  14.618  12.190
93809SOL    HW283325  11.081  14.480  12.203
93810SOL     OW83326   8.517   0.277   3.062
93810SOL    HW183327   8.588   0.341   3.068
93810SOL    HW283328   8.452   0.318   3.005
93811SOL     OW83329   0.489   1.889  10.479
93811SOL    HW183330   0.479   1.799  10.448
93811SOL    HW283331   0.547   1.930  10.414
93812SOL     OW83332   7.393   2.214  10.550
93812SOL    HW183333   7.463   2.153  10.526
93812SOL    HW283334   7.398   2.220  10.645
93813SOL     OW83335  13.100   9.315  12.348
93813SOL    HW183336  13.166   9.378  12.319
93813SOL    HW283337  13.034   9.316  12.279
93814SOL     OW83338  10.781   0.588   4.709
93814SOL    HW183339  10.866   0.563   4.746
93814SOL    HW283340  10.736   0.505   4.693
93815SOL     OW83341   6.113   6.628   6.597
93815SOL    HW183342   6.096   6.702   6.538
93815SOL    HW283343   6.053   6.642   6.670
93816SOL     OW83344  14.675  13.127   0.310
93816SOL    HW183345  14.688  13.034   0.329
93816SOL    HW283346  14.668  13.168   0.396
93817SOL     OW83347   2.528   1.242   8.222
93817SOL    HW183348   2.466   1.267   8.290
93817SOL    HW283349   2.589   1.317   8.216
93818SOL     OW83350  12.133  11.608  10.808
93818SOL    HW183351  12.066  11.540  10.819
93818SOL    HW283352  12.147  11.642  10.896
93819SOL     OW83353   3.319  13.077   4.709
93819SOL    HW183354   3.363  13.155   4.742
93819SOL    HW283355   3.287  13.032   4.788
93820SOL     OW83356   8.429  13.356   0.247
93820SOL    HW183357   8.483  13.278   0.255
93820SOL    HW283358   8.491  13.428   0.239
93821SOL     OW83359   0.296   6.138   2.482
93821SOL    HW183360   0.285   6.233   2.482
93821SOL    HW283361   0.212   6.103   2.453
93822SOL     OW83362  10.969  12.256  13.375
93822SOL    HW183363  10.883  12.248  13.416
93822SOL    HW283364  10.984  12.172  13.333
93823SOL     OW83365   6.958   8.868  11.514
93823SOL    HW183366   6.936   8.792  11.459
93823SOL    HW283367   7.053   8.864  11.523
93824SOL     OW83368   3.275  12.206   6.442
93824SOL    HW183369   3.347  12.268   6.431
93824SOL    HW283370   3.281  12.179   6.534
93825SOL     OW83371  14.620  12.912   1.963
93825SOL    HW183372  14.610  12.930   1.870
93825SOL    HW283373  14.712  12.933   1.982
93826SOL     OW83374   5.497  11.177   3.463
93826SOL    HW183375   5.444  11.152   3.388
93826SOL    HW283376   5.494  11.101   3.521
93827SOL     OW83377   9.188  11.564   5.463
93827SOL    HW183378   9.283  11.557   5.457
93827SOL    HW283379   9.173  11.618   5.541
93828SOL     OW83380   4.095   1.131  10.598
93828SOL    HW183381   4.062   1.159  10.684
93828SOL    HW283382   4.121   1.212  10.555
93829SOL     OW83383   2.730   4.497  11.383
93829SOL    HW183384   2.807   4.469  11.334
93829SOL    HW283385   2.761   4.570  11.437
93830SOL     OW83386  13.303   2.018   9.574
93830SOL    HW183387  13.314   1.962   9.497
93830SOL    HW283388  13.267   1.961   9.641
93831SOL     OW83389   7.001   1.373  12.197
93831SOL    HW183390   6.995   1.431  12.273
93831SOL    HW283391   6.993   1.431  12.121
93832SOL     OW83392   5.840   8.097   0.094
93832SOL    HW183393   5.914   8.156   0.110
93832SOL    HW283394   5.871   8.011   0.122
93833SOL     OW83395  10.008   4.489   4.892
93833SOL    HW183396  10.102   4.471   4.890
93833SOL    HW283397   9.995   4.540   4.972
93834SOL     OW83398  11.465   8.263   6.059
93834SOL    HW183399  11.443   8.354   6.077
93834SOL    HW283400  11.513   8.266   5.976
93835SOL     OW83401  13.477  13.571   0.305
93835SOL    HW183402  13.455  13.664   0.294
93835SOL    HW283403  13.400  13.524   0.274
93836SOL     OW83404   4.262   4.921   0.153
93836SOL    HW183405   4.187   4.975   0.130
93836SOL    HW283406   4.333   4.984   0.167
93837SOL     OW83407  12.112  10.342   2.906
93837SOL    HW183408  12.081  10.372   2.820
93837SOL    HW283409  12.207  10.352   2.902
93838SOL     OW83410  14.122   5.209   1.158
93838SOL    HW183411  14.057   5.169   1.216
93838SOL    HW283412  14.071   5.236   1.082
93839SOL     OW83413   5.365   2.899   5.467
93839SOL    HW183414   5.400   2.896   5.378
93839SOL    HW283415   5.441   2.882   5.523
93840SOL     OW83416   2.276   0.829   5.689
93840SOL    HW183417   2.231   0.768   5.630
93840SOL    HW283418   2.280   0.911   5.639
93841SOL     OW83419   9.011  12.121   3.179
93841SOL    HW183420   9.069  12.196   3.186
93841SOL    HW283421   9.059  12.049   3.221
93842SOL     OW83422  11.499  12.838  13.160
93842SOL    HW183423  11.418  12.788  13.159
93842SOL    HW283424  11.491  12.896  13.236
93843SOL     OW83425   5.712  13.445   3.091
93843SOL    HW183426   5.774  13.482   3.154
93843SOL    HW283427   5.706  13.511   3.021
93844SOL     OW83428  12.619   2.084  13.578
93844SOL    HW183429  12.591   2.153  13.517
93844SOL    HW283430  12.704   2.113  13.609
93845SOL     OW83431   7.572   5.008   4.337
93845SOL    HW183432   7.522   4.958   4.274
93845SOL    HW283433   7.538   4.982   4.423
93846SOL     OW83434   1.344  13.042  10.561
93846SOL    HW183435   1.258  13.007  10.584
93846SOL    HW283436   1.369  13.094  10.636
93847SOL     OW83437  10.526   7.712  12.766
93847SOL    HW183438  10.487   7.657  12.698
93847SOL    HW283439  10.568   7.783  12.718
93848SOL     OW83440  11.809  13.046   2.633
93848SOL    HW183441  11.793  13.091   2.550
93848SOL    HW283442  11.898  13.011   2.625
93849SOL     OW83443  13.490   8.311  13.095
93849SOL    HW183444  13.441   8.269  13.024
93849SOL    HW283445  13.559   8.360  13.051
93850SOL     OW83446   3.908   6.083   4.445
93850SOL    HW183447   3.970   6.153   4.466
93850SOL    HW283448   3.928   6.013   4.508
93851SOL     OW83449   5.764   1.373   1.284
93851SOL    HW183450   5.787   1.308   1.350
93851SOL    HW283451   5.678   1.405   1.312
93852SOL     OW83452   4.080   0.390   5.420
93852SOL    HW183453   4.091   0.402   5.325
93852SOL    HW283454   3.988   0.411   5.436
93853SOL     OW83455   7.607   0.396  12.527
93853SOL    HW183456   7.635   0.325  12.585
93853SOL    HW283457   7.521   0.369  12.496
93854SOL     OW83458  13.235   3.948   0.450
93854SOL    HW183459  13.297   3.875   0.448
93854SOL    HW283460  13.158   3.916   0.404
93855SOL     OW83461   1.821   9.880  13.530
93855SOL    HW183462   1.837   9.902  13.438
93855SOL    HW283463   1.849   9.790  13.539
93856SOL     OW83464   9.499   1.920   1.601
93856SOL    HW183465   9.477   1.914   1.694
93856SOL    HW283466   9.485   2.012   1.579
93857SOL     OW83467  14.507  11.092   9.733
93857SOL    HW183468  14.573  11.023   9.727
93857SOL    HW283469  14.442  11.059   9.794
93858SOL     OW83470  13.659   7.219   4.550
93858SOL    HW183471  13.598   7.289   4.574
93858SOL    HW283472  13.614   7.170   4.481
93859SOL     OW83473  13.092   9.151   3.571
93859SOL    HW183474  13.161   9.094   3.538
93859SOL    HW283475  13.085   9.130   3.664
93860SOL     OW83476   3.494   5.979   7.121
93860SOL    HW183477   3.468   5.895   7.085
93860SOL    HW283478   3.423   6.003   7.181
93861SOL     OW83479   5.567   2.977   4.324
93861SOL    HW183480   5.551   2.911   4.256
93861SOL    HW283481   5.662   2.986   4.327
93862SOL     OW83482  10.498   8.446   2.492
93862SOL    HW183483  10.416   8.477   2.454
93862SOL    HW283484  10.517   8.508   2.563
93863SOL     OW83485   5.084   8.392  12.262
93863SOL    HW183486   5.089   8.440  12.179
93863SOL    HW283487   5.041   8.453  12.322
93864SOL     OW83488  11.805   5.775  13.613
93864SOL    HW183489  11.841   5.686  13.612
93864SOL    HW283490  11.763   5.783  13.699
93865SOL     OW83491  13.043   5.267  14.554
93865SOL    HW183492  13.072   5.190  14.506
93865SOL    HW283493  13.087   5.260  14.639
93866SOL     OW83494   0.542   3.423   2.527
93866SOL    HW183495   0.475   3.358   2.504
93866SOL    HW283496   0.502   3.507   2.505
93867SOL     OW83497  13.997   2.095   9.136
93867SOL    HW183498  13.905   2.082   9.157
93867SOL    HW283499  14.038   2.010   9.151
93868SOL     OW83500   5.870  11.472   7.543
93868SOL    HW183501   5.850  11.461   7.636
93868SOL    HW283502   5.785  11.475   7.501
93869SOL     OW83503  12.533   0.749  13.145
93869SOL    HW183504  12.570   0.717  13.227
93869SOL    HW283505  12.556   0.842  13.142
93870SOL     OW83506   5.191   0.092   8.304
93870SOL    HW183507   5.198   0.040   8.224
93870SOL    HW283508   5.223   0.034   8.373
93871SOL     OW83509  12.769   7.244  12.841
93871SOL    HW183510  12.743   7.152  12.851
93871SOL    HW283511  12.699   7.293  12.883
93872SOL     OW83512   1.211  12.725  11.875
93872SOL    HW183513   1.119  12.707  11.855
93872SOL    HW283514   1.231  12.805  11.826
93873SOL     OW83515   0.082   7.612  10.588
93873SOL    HW183516   0.169   7.646  10.567
93873SOL    HW283517   0.030   7.689  10.610
93874SOL     OW83518   8.296   5.284  11.029
93874SOL    HW183519   8.349   5.257  10.954
93874SOL    HW283520   8.337   5.240  11.104
93875SOL     OW83521   3.860  11.015   2.739
93875SOL    HW183522   3.912  10.972   2.672
93875SOL    HW283523   3.845  11.104   2.706
93876SOL     OW83524  12.996   5.513   6.984
93876SOL    HW183525  12.982   5.541   6.893
93876SOL    HW283526  13.030   5.590   7.028
93877SOL     OW83527  13.389  11.935   1.300
93877SOL    HW183528  13.403  11.886   1.219
93877SOL    HW283529  13.299  11.968   1.292
93878SOL     OW83530  10.026   0.879   7.252
93878SOL    HW183531   9.991   0.955   7.205
93878SOL    HW283532  10.019   0.807   7.190
93879SOL     OW83533   7.872   1.237   8.168
93879SOL    HW183534   7.810   1.297   8.126
93879SOL    HW283535   7.832   1.215   8.252
93880SOL     OW83536  12.880   3.486   1.267
93880SOL    HW183537  12.861   3.538   1.345
93880SOL    HW283538  12.812   3.419   1.266
93881SOL     OW83539   9.186  11.852   3.634
93881SOL    HW183540   9.198  11.804   3.716
93881SOL    HW283541   9.262  11.910   3.628
93882SOL     OW83542  12.387   0.206   7.731
93882SOL    HW183543  12.316   0.267   7.708
93882SOL    HW283544  12.343   0.123   7.747
93883SOL     OW83545   7.207  13.750   8.097
93883SOL    HW183546   7.178  13.834   8.130
93883SOL    HW283547   7.151  13.686   8.142
93884SOL     OW83548   3.299  13.891  14.199
93884SOL    HW183549   3.381  13.939  14.189
93884SOL    HW283550   3.265  13.917  14.284
93885SOL     OW83551  10.209  11.157   7.284
93885SOL    HW183552  10.271  11.185   7.217
93885SOL    HW283553  10.124  11.187   7.251
93886SOL     OW83554  10.406   1.349  13.308
93886SOL    HW183555  10.318   1.366  13.274
93886SOL    HW283556  10.453   1.431  13.296
93887SOL     OW83557  12.047  14.554   5.637
93887SOL    HW183558  12.013  14.471   5.669
93887SOL    HW283559  11.976  14.617   5.653
93888SOL     OW83560   8.056   2.914   3.047
93888SOL    HW183561   8.017   2.931   3.132
93888SOL    HW283562   8.029   2.988   2.993
93889SOL     OW83563   9.172  12.364   9.297
93889SOL    HW183564   9.248  12.417   9.273
93889SOL    HW283565   9.207  12.275   9.303
93890SOL     OW83566   9.719   7.646   6.284
93890SOL    HW183567   9.648   7.648   6.220
93890SOL    HW283568   9.769   7.726   6.267
93891SOL     OW83569   9.298   2.819   5.932
93891SOL    HW183570   9.211   2.795   5.967
93891SOL    HW283571   9.355   2.820   6.009
93892SOL     OW83572   6.678   8.395   3.941
93892SOL    HW183573   6.723   8.468   3.899
93892SOL    HW283574   6.650   8.339   3.869
93893SOL     OW83575  13.685  12.716   4.446
93893SOL    HW183576  13.774  12.714   4.412
93893SOL    HW283577  13.647  12.796   4.411
93894SOL     OW83578   8.966   9.454   1.083
93894SOL    HW183579   8.909   9.383   1.113
93894SOL    HW283580   8.995   9.497   1.164
93895SOL     OW83581  11.737   0.585   5.664
93895SOL    HW183582  11.731   0.676   5.694
93895SOL    HW283583  11.793   0.589   5.586
93896SOL     OW83584   7.769   2.004   6.045
93896SOL    HW183585   7.697   1.955   6.007
93896SOL    HW283586   7.824   1.938   6.087
93897SOL     OW83587   8.326   1.750  12.700
93897SOL    HW183588   8.377   1.830  12.698
93897SOL    HW283589   8.241   1.776  12.736
93898SOL     OW83590   0.346   4.560   1.296
93898SOL    HW183591   0.391   4.476   1.306
93898SOL    HW283592   0.256   4.537   1.275
93899SOL     OW83593   8.396  11.183   3.105
93899SOL    HW183594   8.483  11.143   3.111
93899SOL    HW283595   8.398  11.254   3.169
93900SOL     OW83596  14.844   5.267   1.296
93900SOL    HW183597  14.845   5.323   1.219
93900SOL    HW283598   0.037   5.308   1.356
93901SOL     OW83599   6.051  12.511  14.538
93901SOL    HW183600   6.023  12.498  14.629
93901SOL    HW283601   6.077  12.423  14.509
93902SOL     OW83602  12.738  10.914   4.554
93902SOL    HW183603  12.752  10.837   4.499
93902SOL    HW283604  12.826  10.946   4.573
93903SOL     OW83605  10.149   8.351   3.017
93903SOL    HW183606  10.223   8.407   3.042
93903SOL    HW283607  10.080   8.374   3.079
93904SOL     OW83608   7.045   9.456   5.333
93904SOL    HW183609   7.048   9.539   5.380
93904SOL    HW283610   6.972   9.466   5.272
93905SOL     OW83611   2.172  12.375   8.855
93905SOL    HW183612   2.186  12.386   8.949
93905SOL    HW283613   2.211  12.290   8.835
93906SOL     OW83614  10.923  10.541  11.445
93906SOL    HW183615  10.876  10.621  11.422
93906SOL    HW283616  10.915  10.536  11.541
93907SOL     OW83617   6.301  10.115  14.337
93907SOL    HW183618   6.290  10.107  14.242
93907SOL    HW283619   6.215  10.144  14.368
93908SOL     OW83620  12.252   3.557   0.227
93908SOL    HW183621  12.193   3.488   0.197
93908SOL    HW283622  12.221   3.577   0.316
93909SOL     OW83623   9.418   1.997   1.905
93909SOL    HW183624   9.408   2.046   1.986
93909SOL    HW283625   9.478   1.925   1.927
93910SOL     OW83626   6.253  11.491  11.634
93910SOL    HW183627   6.293  11.564  11.588
93910SOL    HW283628   6.199  11.531  11.702
93911SOL     OW83629   1.807   4.168  11.979
93911SOL    HW183630   1.813   4.121  11.896
93911SOL    HW283631   1.713   4.175  11.995
93912SOL     OW83632   6.239   4.089   5.254
93912SOL    HW183633   6.158   4.073   5.301
93912SOL    HW283634   6.274   4.170   5.293
93913SOL     OW83635   4.951   1.521   0.615
93913SOL    HW183636   4.883   1.466   0.655
93913SOL    HW283637   5.015   1.534   0.685
93914SOL     OW83638   0.748   9.452   8.897
93914SOL    HW183639   0.730   9.382   8.960
93914SOL    HW283640   0.724   9.532   8.943
93915SOL     OW83641  14.441  13.110   2.834
93915SOL    HW183642  14.386  13.040   2.870
93915SOL    HW283643  14.459  13.167   2.909
93916SOL     OW83644  14.035   0.076  10.665
93916SOL    HW183645  14.081   0.060  10.747
93916SOL    HW283646  14.104   0.070  10.598
93917SOL     OW83647   4.576   1.456   7.674
93917SOL    HW183648   4.554   1.368   7.643
93917SOL    HW283649   4.670   1.464   7.659
93918SOL     OW83650  10.878  11.459   6.976
93918SOL    HW183651  10.856  11.532   6.918
93918SOL    HW283652  10.793  11.430   7.010
93919SOL     OW83653   3.647   3.582   3.542
93919SOL    HW183654   3.566   3.570   3.592
93919SOL    HW283655   3.676   3.493   3.523
93920SOL     OW83656   2.370  12.459  10.973
93920SOL    HW183657   2.310  12.434  11.043
93920SOL    HW283658   2.314  12.499  10.907
93921SOL     OW83659   1.037   0.458  11.474
93921SOL    HW183660   1.020   0.364  11.486
93921SOL    HW283661   1.103   0.479  11.541
93922SOL     OW83662   3.708  10.992  11.928
93922SOL    HW183663   3.739  11.072  11.886
93922SOL    HW283664   3.658  11.022  12.003
93923SOL     OW83665   7.690  14.299  11.256
93923SOL    HW183666   7.663  14.390  11.271
93923SOL    HW283667   7.780  14.296  11.287
93924SOL     OW83668  12.690  12.588   0.889
93924SOL    HW183669  12.652  12.633   0.814
93924SOL    HW283670  12.777  12.560   0.858
93925SOL     OW83671   3.623   7.399   9.629
93925SOL    HW183672   3.573   7.346   9.566
93925SOL    HW283673   3.714   7.374   9.613
93926SOL     OW83674   5.011   5.109   9.216
93926SOL    HW183675   5.075   5.130   9.148
93926SOL    HW283676   4.927   5.112   9.171
93927SOL     OW83677   3.795   9.294   6.637
93927SOL    HW183678   3.782   9.226   6.704
93927SOL    HW283679   3.790   9.376   6.685
93928SOL     OW83680   1.463   4.687   9.159
93928SOL    HW183681   1.508   4.610   9.193
93928SOL    HW283682   1.478   4.755   9.225
93929SOL     OW83683  10.491   5.647   8.224
93929SOL    HW183684  10.431   5.582   8.186
93929SOL    HW283685  10.556   5.594   8.271
93930SOL     OW83686   5.970   1.866   3.939
93930SOL    HW183687   5.976   1.785   3.991
93930SOL    HW283688   6.008   1.933   3.995
93931SOL     OW83689   5.604   5.932  13.333
93931SOL    HW183690   5.529   5.971  13.288
93931SOL    HW283691   5.668   5.915  13.264
93932SOL     OW83692   0.393  10.172   8.216
93932SOL    HW183693   0.326  10.193   8.151
93932SOL    HW283694   0.367  10.221   8.294
93933SOL     OW83695   2.726   8.378   7.729
93933SOL    HW183696   2.817   8.402   7.745
93933SOL    HW283697   2.683   8.388   7.814
93934SOL     OW83698   8.365   5.192  11.288
93934SOL    HW183699   8.451   5.176  11.326
93934SOL    HW283700   8.303   5.179  11.360
93935SOL     OW83701   3.082   5.854  13.839
93935SOL    HW183702   3.014   5.788  13.822
93935SOL    HW283703   3.043   5.912  13.904
93936SOL     OW83704  13.585  12.455  10.093
93936SOL    HW183705  13.497  12.479  10.119
93936SOL    HW283706  13.635  12.454  10.175
93937SOL     OW83707   5.053   4.697  12.158
93937SOL    HW183708   4.964   4.706  12.124
93937SOL    HW283709   5.106   4.677  12.081
93938SOL     OW83710  12.792   1.606  10.265
93938SOL    HW183711  12.782   1.600  10.360
93938SOL    HW283712  12.764   1.520  10.233
93939SOL     OW83713  10.224  10.923   6.381
93939SOL    HW183714  10.280  10.991   6.418
93939SOL    HW283715  10.137  10.941   6.417
93940SOL     OW83716  10.411   2.646   4.125
93940SOL    HW183717  10.415   2.736   4.156
93940SOL    HW283718  10.459   2.596   4.191
93941SOL     OW83719   5.951  12.129   5.528
93941SOL    HW183720   6.032  12.171   5.558
93941SOL    HW283721   5.965  12.112   5.435
93942SOL     OW83722  10.593   1.247   9.295
93942SOL    HW183723  10.502   1.247   9.267
93942SOL    HW283724  10.602   1.327   9.348
93943SOL     OW83725   9.273  10.467   3.760
93943SOL    HW183726   9.192  10.441   3.805
93943SOL    HW283727   9.244  10.494   3.673
93944SOL     OW83728   4.084  12.029  10.613
93944SOL    HW183729   3.992  12.056  10.609
93944SOL    HW283730   4.113  12.057  10.700
93945SOL     OW83731   0.434  13.599   2.573
93945SOL    HW183732   0.352  13.598   2.525
93945SOL    HW283733   0.415  13.552   2.655
93946SOL     OW83734   6.764   1.052  12.818
93946SOL    HW183735   6.838   1.006  12.857
93946SOL    HW283736   6.752   1.011  12.732
93947SOL     OW83737  10.590  10.015   2.671
93947SOL    HW183738  10.635   9.937   2.703
93947SOL    HW283739  10.530   9.982   2.605
93948SOL     OW83740   0.978   9.232  13.372
93948SOL    HW183741   0.903   9.246  13.430
93948SOL    HW283742   0.939   9.212  13.287
93949SOL     OW83743  10.190   1.463   1.209
93949SOL    HW183744  10.275   1.424   1.232
93949SOL    HW283745  10.144   1.470   1.292
93950SOL     OW83746   1.120  12.760   9.631
93950SOL    HW183747   1.150  12.733   9.718
93950SOL    HW283748   1.075  12.843   9.646
93951SOL     OW83749  13.307  11.064   7.440
93951SOL    HW183750  13.315  11.125   7.367
93951SOL    HW283751  13.263  11.114   7.508
93952SOL     OW83752   0.172   0.191   8.207
93952SOL    HW183753   0.217   0.109   8.187
93952SOL    HW283754   0.095   0.191   8.149
93953SOL     OW83755  13.296   6.106   6.314
93953SOL    HW183756  13.358   6.066   6.252
93953SOL    HW283757  13.298   6.199   6.293
93954SOL     OW83758   2.059   1.598  12.220
93954SOL    HW183759   2.022   1.682  12.245
93954SOL    HW283760   2.057   1.599  12.124
93955SOL     OW83761  10.738  13.379   3.362
93955SOL    HW183762  10.775  13.365   3.275
93955SOL    HW283763  10.691  13.463   3.355
93956SOL     OW83764  13.053  13.163  10.173
93956SOL    HW183765  12.961  13.175  10.149
93956SOL    HW283766  13.056  13.187  10.266
93957SOL     OW83767   7.411   6.109   0.441
93957SOL    HW183768   7.465   6.167   0.494
93957SOL    HW283769   7.366   6.167   0.380
93958SOL     OW83770   3.271  12.387   8.399
93958SOL    HW183771   3.300  12.465   8.350
93958SOL    HW283772   3.255  12.321   8.331
93959SOL     OW83773   3.564   7.838   6.296
93959SOL    HW183774   3.526   7.817   6.211
93959SOL    HW283775   3.574   7.933   6.296
93960SOL     OW83776   0.704  14.198   5.015
93960SOL    HW183777   0.724  14.125   4.957
93960SOL    HW283778   0.782  14.205   5.071
93961SOL     OW83779  10.442  10.609  13.850
93961SOL    HW183780  10.351  10.629  13.829
93961SOL    HW283781  10.438  10.565  13.935
93962SOL     OW83782   9.513  12.972   1.057
93962SOL    HW183783   9.477  12.954   0.970
93962SOL    HW283784   9.523  12.885   1.097
93963SOL     OW83785   4.015  10.403  12.594
93963SOL    HW183786   3.949  10.466  12.566
93963SOL    HW283787   3.993  10.323  12.548
93964SOL     OW83788  13.879  10.885   1.353
93964SOL    HW183789  13.825  10.807   1.370
93964SOL    HW283790  13.897  10.881   1.259
93965SOL     OW83791   1.081  14.047  11.036
93965SOL    HW183792   1.175  14.036  11.051
93965SOL    HW283793   1.051  13.962  11.004
93966SOL     OW83794  12.987  11.374   5.331
93966SOL    HW183795  13.077  11.347   5.348
93966SOL    HW283796  12.945  11.298   5.291
93967SOL     OW83797  12.999   8.827   3.424
93967SOL    HW183798  13.078   8.774   3.413
93967SOL    HW283799  12.940   8.771   3.474
93968SOL     OW83800   5.346   9.530  10.877
93968SOL    HW183801   5.295   9.599  10.921
93968SOL    HW283802   5.355   9.462  10.944
93969SOL     OW83803   9.159   9.493   9.460
93969SOL    HW183804   9.075   9.448   9.447
93969SOL    HW283805   9.166   9.553   9.386
93970SOL     OW83806   5.912   2.529   7.609
93970SOL    HW183807   5.968   2.462   7.647
93970SOL    HW283808   5.951   2.612   7.636
93971SOL     OW83809   4.630   9.303   6.069
93971SOL    HW183810   4.696   9.243   6.105
93971SOL    HW283811   4.567   9.315   6.140
93972SOL     OW83812  11.098   4.919   7.274
93972SOL    HW183813  11.114   4.852   7.341
93972SOL    HW283814  11.011   4.953   7.295
93973SOL     OW83815  12.508  12.376   0.026
93973SOL    HW183816  12.506  12.467   0.055
93973SOL    HW283817  12.416  12.349   0.026
93974SOL     OW83818  13.795   5.196   5.764
93974SOL    HW183819  13.877   5.199   5.714
93974SOL    HW283820  13.818   5.233   5.850
93975SOL     OW83821   1.350   7.189   0.693
93975SOL    HW183822   1.375   7.242   0.617
93975SOL    HW283823   1.417   7.121   0.697
93976SOL     OW83824   3.310   0.759   0.513
93976SOL    HW183825   3.358   0.817   0.572
93976SOL    HW283826   3.361   0.678   0.512
93977SOL     OW83827  13.064   0.005   7.592
93977SOL    HW183828  12.986  14.863   7.646
93977SOL    HW283829  13.083   0.098   7.594
93978SOL     OW83830   5.800  12.509   8.501
93978SOL    HW183831   5.708  12.531   8.490
93978SOL    HW283832   5.807  12.482   8.593
93979SOL     OW83833   9.172  11.463  12.076
93979SOL    HW183834   9.136  11.400  12.138
93979SOL    HW283835   9.140  11.548  12.107
93980SOL     OW83836   0.582   2.814   0.842
93980SOL    HW183837   0.671   2.851   0.842
93980SOL    HW283838   0.596   2.721   0.825
93981SOL     OW83839   4.099   9.816   6.546
93981SOL    HW183840   4.174   9.875   6.554
93981SOL    HW283841   4.091   9.800   6.452
93982SOL     OW83842   3.882   0.938   9.960
93982SOL    HW183843   3.935   0.887   9.900
93982SOL    HW283844   3.799   0.891   9.966
93983SOL     OW83845   4.904   1.678  10.056
93983SOL    HW183846   4.859   1.676   9.971
93983SOL    HW283847   4.995   1.698  10.034
93984SOL     OW83848   0.418  12.862   2.919
93984SOL    HW183849   0.505  12.893   2.945
93984SOL    HW283850   0.434  12.772   2.890
93985SOL     OW83851   2.815  10.049  13.416
93985SOL    HW183852   2.869   9.997  13.357
93985SOL    HW283853   2.789   9.989  13.485
93986SOL     OW83854   8.621  12.865  14.444
93986SOL    HW183855   8.533  12.862  14.479
93986SOL    HW283856   8.643  12.774  14.425
93987SOL     OW83857  10.065   9.771   6.545
93987SOL    HW183858  10.072   9.690   6.494
93987SOL    HW283859  10.139   9.768   6.605
93988SOL     OW83860   6.125   3.767   4.075
93988SOL    HW183861   6.065   3.820   4.127
93988SOL    HW283862   6.154   3.698   4.135
93989SOL     OW83863   8.099   5.691   3.155
93989SOL    HW183864   8.141   5.777   3.150
93989SOL    HW283865   8.153   5.641   3.215
93990SOL     OW83866  11.913   0.288   3.676
93990SOL    HW183867  11.919   0.226   3.749
93990SOL    HW283868  11.999   0.329   3.672
93991SOL     OW83869   5.889   9.541  13.468
93991SOL    HW183870   5.974   9.530  13.511
93991SOL    HW283871   5.840   9.463  13.493
93992SOL     OW83872   0.443  10.920   5.846
93992SOL    HW183873   0.416  10.985   5.781
93992SOL    HW283874   0.411  10.955   5.929
93993SOL     OW83875   4.386   9.560   0.557
93993SOL    HW183876   4.378   9.478   0.606
93993SOL    HW283877   4.469   9.552   0.510
93994SOL     OW83878   9.667   8.847   9.560
93994SOL    HW183879   9.647   8.920   9.501
93994SOL    HW283880   9.581   8.815   9.588
93995SOL     OW83881   5.643   7.764   5.817
93995SOL    HW183882   5.691   7.702   5.870
93995SOL    HW283883   5.694   7.771   5.736
93996SOL     OW83884   4.656  10.542   3.450
93996SOL    HW183885   4.746  10.526   3.420
93996SOL    HW283886   4.609  10.461   3.430
93997SOL     OW83887  14.048   6.643   2.541
93997SOL    HW183888  13.973   6.655   2.483
93997SOL    HW283889  14.077   6.553   2.523
93998SOL     OW83890  14.686  13.839   8.569
93998SOL    HW183891  14.763  13.866   8.619
93998SOL    HW283892  14.641  13.921   8.549
93999SOL     OW83893  13.641  11.412   6.669
93999SOL    HW183894  13.680  11.420   6.756
93999SOL    HW283895  13.699  11.462   6.612
94000SOL     OW83896  10.533   2.168   9.632
94000SOL    HW183897  10.445   2.177   9.597
94000SOL    HW283898  10.545   2.245   9.688
94001SOL     OW83899   3.737   2.970   4.357
94001SOL    HW183900   3.703   3.036   4.417
94001SOL    HW283901   3.709   2.887   4.395
94002SOL     OW83902  11.684  13.236  13.818
94002SOL    HW183903  11.689  13.269  13.908
94002SOL    HW283904  11.758  13.278  13.774
94003SOL     OW83905  10.234  14.260  10.396
94003SOL    HW183906  10.317  14.214  10.410
94003SOL    HW283907  10.231  14.276  10.302
94004SOL     OW83908   0.347   7.494  14.296
94004SOL    HW183909   0.344   7.555  14.222
94004SOL    HW283910   0.439   7.467  14.301
94005SOL     OW83911  11.993   7.301   1.696
94005SOL    HW183912  12.029   7.215   1.716
94005SOL    HW283913  11.900   7.294   1.717
94006SOL     OW83914   4.657  13.723   2.988
94006SOL    HW183915   4.563  13.705   2.995
94006SOL    HW283916   4.684  13.740   3.078
94007SOL     OW83917   4.099   5.471   5.305
94007SOL    HW183918   4.013   5.495   5.339
94007SOL    HW283919   4.108   5.378   5.325
94008SOL     OW83920  14.493   5.997   1.175
94008SOL    HW183921  14.494   5.974   1.082
94008SOL    HW283922  14.515   5.915   1.220
94009SOL     OW83923   0.130   9.034   6.120
94009SOL    HW183924   0.106   8.994   6.203
94009SOL    HW283925   0.185   9.109   6.144
94010SOL     OW83926   7.860   3.974   6.204
94010SOL    HW183927   7.874   4.015   6.289
94010SOL    HW283928   7.947   3.963   6.167
94011SOL     OW83929   7.292  10.465   5.447
94011SOL    HW183930   7.310  10.499   5.534
94011SOL    HW283931   7.197  10.452   5.445
94012SOL     OW83932   7.243   0.537  12.360
94012SOL    HW183933   7.216   0.556  12.270
94012SOL    HW283934   7.332   0.570  12.367
94013SOL     OW83935   4.640   2.702   5.271
94013SOL    HW183936   4.584   2.757   5.216
94013SOL    HW283937   4.595   2.618   5.275
94014SOL     OW83938   2.790   9.499  10.449
94014SOL    HW183939   2.761   9.567  10.388
94014SOL    HW283940   2.713   9.481  10.503
94015SOL     OW83941   9.149  11.062  11.159
94015SOL    HW183942   9.171  10.970  11.149
94015SOL    HW283943   9.230  11.108  11.135
94016SOL     OW83944  11.894   7.019   8.148
94016SOL    HW183945  11.798   7.017   8.152
94016SOL    HW283946  11.922   7.012   8.239
94017SOL     OW83947   4.832  10.291   0.983
94017SOL    HW183948   4.878  10.356   1.036
94017SOL    HW283949   4.890  10.215   0.982
94018SOL     OW83950   6.357   4.317  12.119
94018SOL    HW183951   6.436   4.362  12.148
94018SOL    HW283952   6.366   4.228  12.151
94019SOL     OW83953   1.253   3.574   2.548
94019SOL    HW183954   1.304   3.503   2.587
94019SOL    HW283955   1.243   3.638   2.619
94020SOL     OW83956   6.341  14.722   3.317
94020SOL    HW183957   6.336  14.627   3.323
94020SOL    HW283958   6.374  14.750   3.402
94021SOL     OW83959   2.267   2.153  13.859
94021SOL    HW183960   2.212   2.102  13.919
94021SOL    HW283961   2.235   2.243  13.868
94022SOL     OW83962  11.056   3.922   9.313
94022SOL    HW183963  11.053   3.993   9.249
94022SOL    HW283964  10.996   3.951   9.383
94023SOL     OW83965   4.564   3.572   6.451
94023SOL    HW183966   4.612   3.654   6.463
94023SOL    HW283967   4.631   3.507   6.430
94024SOL     OW83968   4.847   6.028   6.295
94024SOL    HW183969   4.823   6.098   6.355
94024SOL    HW283970   4.907   6.069   6.233
94025SOL     OW83971  14.119   0.352   3.693
94025SOL    HW183972  14.045   0.411   3.677
94025SOL    HW283973  14.086   0.288   3.756
94026SOL     OW83974   2.552   1.550   7.335
94026SOL    HW183975   2.520   1.637   7.356
94026SOL    HW283976   2.585   1.515   7.418
94027SOL     OW83977   4.411   3.557   9.763
94027SOL    HW183978   4.331   3.594   9.799
94027SOL    HW283979   4.400   3.462   9.772
94028SOL     OW83980   2.872  13.166  14.434
94028SOL    HW183981   2.934  13.183  14.362
94028SOL    HW283982   2.802  13.115  14.393
94029SOL     OW83983   5.729   4.984   6.655
94029SOL    HW183984   5.686   4.903   6.685
94029SOL    HW283985   5.669   5.054   6.682
94030SOL     OW83986   6.674  11.635  12.609
94030SOL    HW183987   6.585  11.612  12.636
94030SOL    HW283988   6.719  11.656  12.692
94031SOL     OW83989   4.433   4.432  13.450
94031SOL    HW183990   4.401   4.481  13.526
94031SOL    HW283991   4.420   4.340  13.473
94032SOL     OW83992   4.151   2.060  14.542
94032SOL    HW183993   4.200   1.991  14.496
94032SOL    HW283994   4.162   2.138  14.489
94033SOL     OW83995   2.114   0.518   8.203
94033SOL    HW183996   2.145   0.494   8.290
94033SOL    HW283997   2.188   0.562   8.162
94034SOL     OW83998   7.785   1.445  14.521
94034SOL    HW183999   7.832   1.380  14.469
94034SOL    HW284000   7.815   1.529  14.487
94035SOL     OW84001   9.968   1.355   5.357
94035SOL    HW184002   9.945   1.297   5.285
94035SOL    HW284003   9.968   1.298   5.435
94036SOL     OW84004  10.590   0.460  11.336
94036SOL    HW184005  10.682   0.437  11.325
94036SOL    HW284006  10.586   0.553  11.315
94037SOL     OW84007   1.756  11.551  13.590
94037SOL    HW184008   1.712  11.632  13.617
94037SOL    HW284009   1.825  11.581  13.530
94038SOL     OW84010   8.011  14.094   4.735
94038SOL    HW184011   8.026  14.026   4.668
94038SOL    HW284012   8.039  14.175   4.693
94039SOL     OW84013   1.364  11.349  12.068
94039SOL    HW184014   1.328  11.358  11.980
94039SOL    HW284015   1.443  11.403  12.067
94040SOL     OW84016  10.625   8.679   6.613
94040SOL    HW184017  10.718   8.660   6.626
94040SOL    HW284018  10.611   8.763   6.656
94041SOL     OW84019  13.625  14.223  12.898
94041SOL    HW184020  13.714  14.188  12.893
94041SOL    HW284021  13.600  14.238  12.807
94042SOL     OW84022   7.995   3.129   3.584
94042SOL    HW184023   7.995   3.176   3.667
94042SOL    HW284024   7.907   3.142   3.548
94043SOL     OW84025  13.641  11.759  13.070
94043SOL    HW184026  13.576  11.773  13.139
94043SOL    HW284027  13.605  11.689  13.016
94044SOL     OW84028   8.517  13.319   7.122
94044SOL    HW184029   8.482  13.362   7.200
94044SOL    HW284030   8.569  13.246   7.155
94045SOL     OW84031   9.508  11.894  11.838
94045SOL    HW184032   9.536  11.968  11.783
94045SOL    HW284033   9.438  11.930  11.893
94046SOL     OW84034   0.605  14.486  14.339
94046SOL    HW184035   0.548  14.445  14.404
94046SOL    HW284036   0.568  14.460  14.254
94047SOL     OW84037  11.464  14.397   8.440
94047SOL    HW184038  11.462  14.330   8.508
94047SOL    HW284039  11.482  14.479   8.486
94048SOL     OW84040  12.033  10.633   0.302
94048SOL    HW184041  11.977  10.557   0.285
94048SOL    HW284042  12.121  10.596   0.311
94049SOL     OW84043   0.175   1.314   5.811
94049SOL    HW184044   0.097   1.326   5.865
94049SOL    HW284045   0.165   1.226   5.774
94050SOL     OW84046   0.937   4.961   8.994
94050SOL    HW184047   1.014   5.000   8.953
94050SOL    HW284048   0.890   4.920   8.921
94051SOL     OW84049   0.662   6.466   3.981
94051SOL    HW184050   0.617   6.508   4.054
94051SOL    HW284051   0.743   6.516   3.971
94052SOL     OW84052   9.062   2.956   8.436
94052SOL    HW184053   9.000   2.899   8.392
94052SOL    HW284054   9.129   2.976   8.370
94053SOL     OW84055   0.406   8.127   6.813
94053SOL    HW184056   0.354   8.176   6.876
94053SOL    HW284057   0.495   8.130   6.849
94054SOL     OW84058  12.342   4.990   4.690
94054SOL    HW184059  12.393   4.912   4.667
94054SOL    HW284060  12.322   4.978   4.783
94055SOL     OW84061  10.273   1.336  10.832
94055SOL    HW184062  10.278   1.251  10.788
94055SOL    HW284063  10.353   1.382  10.806
94056SOL     OW84064  10.520  11.797   5.589
94056SOL    HW184065  10.442  11.752   5.623
94056SOL    HW284066  10.493  11.888   5.581
94057SOL     OW84067   3.599   7.138  11.467
94057SOL    HW184068   3.683   7.180  11.454
94057SOL    HW284069   3.589   7.080  11.392
94058SOL     OW84070  10.229   9.840   7.414
94058SOL    HW184071  10.267   9.923   7.444
94058SOL    HW284072  10.253   9.777   7.482
94059SOL     OW84073   7.103   4.585  11.562
94059SOL    HW184074   7.113   4.510  11.621
94059SOL    HW284075   7.184   4.587  11.512
94060SOL     OW84076  14.474   3.158  12.454
94060SOL    HW184077  14.545   3.219  12.474
94060SOL    HW284078  14.400   3.189  12.506
94061SOL     OW84079   8.673  13.791   6.701
94061SOL    HW184080   8.704  13.798   6.611
94061SOL    HW284081   8.593  13.739   6.696
94062SOL     OW84082   9.183   6.428   2.120
94062SOL    HW184083   9.120   6.383   2.177
94062SOL    HW284084   9.255   6.366   2.111
94063SOL     OW84085  10.376   9.821   2.892
94063SOL    HW184086  10.456   9.771   2.875
94063SOL    HW284087  10.356   9.803   2.984
94064SOL     OW84088   5.379   9.996   6.323
94064SOL    HW184089   5.366  10.084   6.288
94064SOL    HW284090   5.392   9.941   6.245
94065SOL     OW84091  10.245  14.677   0.794
94065SOL    HW184092  10.152  14.693   0.777
94065SOL    HW284093  10.278  14.760   0.827
94066SOL     OW84094   8.900  11.411   3.297
94066SOL    HW184095   8.966  11.397   3.229
94066SOL    HW284096   8.829  11.458   3.254
94067SOL     OW84097  14.109   3.476   0.267
94067SOL    HW184098  14.185   3.533   0.281
94067SOL    HW284099  14.095   3.477   0.173
94068SOL     OW84100   0.141  13.756   3.505
94068SOL    HW184101   0.222  13.711   3.477
94068SOL    HW284102   0.075  13.687   3.505
94069SOL     OW84103  14.467   8.976  10.984
94069SOL    HW184104  14.403   8.932  11.040
94069SOL    HW284105  14.517   8.904  10.945
94070SOL     OW84106   6.987   9.881   1.928
94070SOL    HW184107   6.982   9.796   1.885
94070SOL    HW284108   6.897   9.911   1.932
94071SOL     OW84109   8.830   2.574   5.901
94071SOL    HW184110   8.892   2.597   5.833
94071SOL    HW284111   8.831   2.478   5.903
94072SOL     OW84112  14.672   6.074   8.637
94072SOL    HW184113  14.738   6.038   8.696
94072SOL    HW284114  14.598   6.096   8.693
94073SOL     OW84115   7.763  10.373   3.741
94073SOL    HW184116   7.734  10.428   3.668
94073SOL    HW284117   7.858  10.364   3.727
94074SOL     OW84118  14.462   4.498   1.515
94074SOL    HW184119  14.520   4.448   1.457
94074SOL    HW284120  14.376   4.492   1.473
94075SOL     OW84121   1.453   1.347   9.234
94075SOL    HW184122   1.525   1.301   9.190
94075SOL    HW284123   1.469   1.439   9.216
94076SOL     OW84124   2.984   6.947   3.739
94076SOL    HW184125   3.018   6.914   3.822
94076SOL    HW284126   2.920   6.881   3.711
94077SOL     OW84127  12.081   5.718   3.982
94077SOL    HW184128  12.125   5.727   3.898
94077SOL    HW284129  12.035   5.801   3.994
94078SOL     OW84130   7.847   5.828   0.415
94078SOL    HW184131   7.796   5.874   0.482
94078SOL    HW284132   7.793   5.835   0.335
94079SOL     OW84133   2.642   0.017   0.589
94079SOL    HW184134   2.695  14.807   0.583
94079SOL    HW284135   2.580   0.010   0.517
94080SOL     OW84136  11.727   3.325   1.156
94080SOL    HW184137  11.739   3.263   1.084
94080SOL    HW284138  11.813   3.366   1.167
94081SOL     OW84139   6.573  11.778   5.005
94081SOL    HW184140   6.542  11.851   4.952
94081SOL    HW284141   6.503  11.762   5.068
94082SOL     OW84142  12.422   4.806   2.776
94082SOL    HW184143  12.333   4.818   2.745
94082SOL    HW284144  12.477   4.833   2.703
94083SOL     OW84145   8.863   5.793  12.506
94083SOL    HW184146   8.837   5.880  12.535
94083SOL    HW284147   8.838   5.790  12.413
94084SOL     OW84148   0.183   2.042   8.397
94084SOL    HW184149   0.176   1.972   8.331
94084SOL    HW284150   0.276   2.061   8.402
94085SOL     OW84151  11.336   7.953  10.717
94085SOL    HW184152  11.288   7.984  10.640
94085SOL    HW284153  11.295   7.999  10.790
94086SOL     OW84154   5.632   0.553   9.576
94086SOL    HW184155   5.540   0.579   9.570
94086SOL    HW284156   5.646   0.496   9.500
94087SOL     OW84157   3.883   6.861   1.725
94087SOL    HW184158   3.834   6.868   1.807
94087SOL    HW284159   3.830   6.803   1.670
94088SOL     OW84160  12.814  10.302   3.822
94088SOL    HW184161  12.866  10.356   3.762
94088SOL    HW284162  12.860  10.308   3.906
94089SOL     OW84163  14.493  12.621  12.098
94089SOL    HW184164  14.407  12.648  12.065
94089SOL    HW284165  14.539  12.704  12.114
94090SOL     OW84166   7.706  10.083   7.766
94090SOL    HW184167   7.687  10.157   7.824
94090SOL    HW284168   7.637  10.087   7.700
94091SOL     OW84169   1.025   0.637  13.654
94091SOL    HW184170   1.025   0.715  13.598
94091SOL    HW284171   1.079   0.574  13.607
94092SOL     OW84172   0.199   2.160   6.055
94092SOL    HW184173   0.267   2.119   6.108
94092SOL    HW284174   0.141   2.089   6.030
94093SOL     OW84175   7.902  12.138   9.079
94093SOL    HW184176   7.953  12.133   9.160
94093SOL    HW284177   7.829  12.197   9.100
94094SOL     OW84178  13.572  14.783  12.507
94094SOL    HW184179  13.490  14.828  12.490
94094SOL    HW284180  13.550  14.718  12.574
94095SOL     OW84181   2.125   1.599   5.139
94095SOL    HW184182   2.066   1.671   5.162
94095SOL    HW284183   2.191   1.600   5.209
94096SOL     OW84184   0.820   6.266   3.594
94096SOL    HW184185   0.805   6.286   3.501
94096SOL    HW284186   0.772   6.185   3.609
94097SOL     OW84187   1.550   9.808   5.141
94097SOL    HW184188   1.625   9.866   5.154
94097SOL    HW284189   1.474   9.864   5.149
94098SOL     OW84190   3.696   3.333   9.686
94098SOL    HW184191   3.763   3.399   9.701
94098SOL    HW284192   3.613   3.380   9.697
94099SOL     OW84193   3.312  11.986   7.540
94099SOL    HW184194   3.300  11.896   7.570
94099SOL    HW284195   3.224  12.013   7.510
94100SOL     OW84196  10.374   2.790   3.770
94100SOL    HW184197  10.314   2.760   3.703
94100SOL    HW284198  10.371   2.721   3.837
94101SOL     OW84199  14.126  14.325   3.928
94101SOL    HW184200  14.116  14.417   3.905
94101SOL    HW284201  14.046  14.283   3.896
94102SOL     OW84202   0.702   6.161  10.596
94102SOL    HW184203   0.652   6.221  10.541
94102SOL    HW284204   0.701   6.202  10.683
94103SOL     OW84205   1.809  12.669   4.108
94103SOL    HW184206   1.757  12.651   4.030
94103SOL    HW284207   1.810  12.764   4.114
94104SOL     OW84208   1.226   2.339   4.181
94104SOL    HW184209   1.307   2.311   4.138
94104SOL    HW284210   1.179   2.257   4.198
94105SOL     OW84211   6.814   6.913   9.543
94105SOL    HW184212   6.907   6.896   9.556
94105SOL    HW284213   6.771   6.832   9.570
94106SOL     OW84214   7.778  13.961  14.734
94106SOL    HW184215   7.836  13.926  14.802
94106SOL    HW284216   7.739  14.038  14.775
94107SOL     OW84217   7.377  10.388  14.326
94107SOL    HW184218   7.441  10.319  14.344
94107SOL    HW284219   7.298  10.341  14.298
94108SOL     OW84220  13.478  10.822   3.275
94108SOL    HW184221  13.455  10.734   3.247
94108SOL    HW284222  13.558  10.843   3.226
94109SOL     OW84223   7.690   4.684   9.900
94109SOL    HW184224   7.685   4.617   9.832
94109SOL    HW284225   7.599   4.699   9.926
94110SOL     OW84226   3.498   3.272   7.951
94110SOL    HW184227   3.499   3.363   7.922
94110SOL    HW284228   3.550   3.272   8.031
94111SOL     OW84229   7.425  12.621   6.669
94111SOL    HW184230   7.347  12.573   6.696
94111SOL    HW284231   7.434  12.690   6.735
94112SOL     OW84232   2.928  13.701   8.310
94112SOL    HW184233   2.932  13.606   8.304
94112SOL    HW284234   2.908  13.719   8.402
94113SOL     OW84235   5.783   7.632   6.025
94113SOL    HW184236   5.870   7.607   6.056
94113SOL    HW284237   5.728   7.556   6.043
94114SOL     OW84238   3.134  13.739   7.306
94114SOL    HW184239   3.082  13.671   7.349
94114SOL    HW284240   3.220  13.733   7.348
94115SOL     OW84241   5.488  10.196  12.890
94115SOL    HW184242   5.458  10.167  12.976
94115SOL    HW284243   5.427  10.155  12.829
94116SOL     OW84244  11.152   6.052   7.624
94116SOL    HW184245  11.103   5.972   7.641
94116SOL    HW284246  11.121   6.114   7.690
94117SOL     OW84247   6.253  11.233  11.334
94117SOL    HW184248   6.246  11.166  11.266
94117SOL    HW284249   6.310  11.300  11.296
94118SOL     OW84250  13.474   6.002  11.054
94118SOL    HW184251  13.444   5.915  11.081
94118SOL    HW284252  13.545   6.023  11.114
94119SOL     OW84253  14.720   9.327   2.735
94119SOL    HW184254  14.630   9.340   2.707
94119SOL    HW284255  14.766   9.406   2.709
94120SOL     OW84256   9.973   6.611  11.842
94120SOL    HW184257   9.978   6.692  11.791
94120SOL    HW284258  10.060   6.603  11.881
94121SOL     OW84259  13.715   3.478   8.264
94121SOL    HW184260  13.719   3.468   8.169
94121SOL    HW284261  13.774   3.551   8.283
94122SOL     OW84262   1.998  11.430   4.648
94122SOL    HW184263   2.044  11.513   4.658
94122SOL    HW284264   1.910  11.454   4.620
94123SOL     OW84265   6.872   5.233  11.478
94123SOL    HW184266   6.843   5.142  11.481
94123SOL    HW284267   6.968   5.227  11.479
94124SOL     OW84268  10.410   2.438  13.667
94124SOL    HW184269  10.398   2.374  13.737
94124SOL    HW284270  10.406   2.523  13.711
94125SOL     OW84271   7.104  11.030   0.007
94125SOL    HW184272   7.117  10.941  14.844
94125SOL    HW284273   7.136  11.086  14.806
94126SOL     OW84274  11.129   0.218  10.951
94126SOL    HW184275  11.095   0.234  10.863
94126SOL    HW284276  11.075   0.145  10.984
94127SOL     OW84277  14.302   8.323  12.451
94127SOL    HW184278  14.364   8.342  12.380
94127SOL    HW284279  14.325   8.235  12.480
94128SOL     OW84280  12.880   1.733  13.809
94128SOL    HW184281  12.819   1.717  13.737
94128SOL    HW284282  12.825   1.732  13.888
94129SOL     OW84283  14.516   7.970  10.681
94129SOL    HW184284  14.589   8.010  10.634
94129SOL    HW284285  14.475   8.043  10.728
94130SOL     OW84286  10.177   4.579   5.257
94130SOL    HW184287  10.105   4.638   5.283
94130SOL    HW284288  10.224   4.563   5.339
94131SOL     OW84289   6.909   8.692  14.424
94131SOL    HW184290   6.837   8.704  14.362
94131SOL    HW284291   6.988   8.712  14.373
94132SOL     OW84292  14.091   0.404   0.731
94132SOL    HW184293  14.085   0.309   0.728
94132SOL    HW284294  14.029   0.435   0.666
94133SOL     OW84295   8.622   0.951  14.778
94133SOL    HW184296   8.675   1.029  14.759
94133SOL    HW284297   8.546   0.986  14.825
94134SOL     OW84298   6.148   5.252   7.582
94134SOL    HW184299   6.072   5.225   7.530
94134SOL    HW284300   6.223   5.223   7.531
94135SOL     OW84301   3.718   8.977  14.698
94135SOL    HW184302   3.757   8.999  14.614
94135SOL    HW284303   3.696   8.884  14.690
94136SOL     OW84304   8.381  11.890  10.453
94136SOL    HW184305   8.458  11.866  10.505
94136SOL    HW284306   8.353  11.808  10.412
94137SOL     OW84307  11.393  12.539  14.135
94137SOL    HW184308  11.341  12.460  14.118
94137SOL    HW284309  11.476  12.524  14.090
94138SOL     OW84310   6.369  10.252   7.646
94138SOL    HW184311   6.401  10.283   7.562
94138SOL    HW284312   6.433  10.284   7.709
94139SOL     OW84313  10.873   5.277  10.443
94139SOL    HW184314  10.801   5.250  10.386
94139SOL    HW284315  10.840   5.263  10.532
94140SOL     OW84316   5.711   8.406  10.794
94140SOL    HW184317   5.725   8.312  10.782
94140SOL    HW284318   5.647   8.430  10.726
94141SOL     OW84319  14.204  14.495   9.982
94141SOL    HW184320  14.218  14.587  10.004
94141SOL    HW284321  14.291  14.457   9.978
94142SOL     OW84322  13.162   1.052  12.295
94142SOL    HW184323  13.176   1.068  12.202
94142SOL    HW284324  13.186   0.961  12.308
94143SOL     OW84325   1.673   8.204   0.708
94143SOL    HW184326   1.690   8.173   0.797
94143SOL    HW284327   1.731   8.279   0.697
94144SOL     OW84328   6.779  12.275   2.119
94144SOL    HW184329   6.786  12.182   2.140
94144SOL    HW284330   6.775  12.319   2.204
94145SOL     OW84331   1.665  11.966   7.400
94145SOL    HW184332   1.639  11.903   7.468
94145SOL    HW284333   1.636  11.925   7.318
94146SOL     OW84334   7.233  10.703   9.308
94146SOL    HW184335   7.203  10.740   9.225
94146SOL    HW284336   7.321  10.737   9.319
94147SOL     OW84337   3.608   1.705  12.857
94147SOL    HW184338   3.617   1.756  12.777
94147SOL    HW284339   3.692   1.716  12.902
94148SOL     OW84340   5.420   3.063   4.558
94148SOL    HW184341   5.445   3.022   4.475
94148SOL    HW284342   5.504   3.080   4.602
94149SOL     OW84343  13.950   6.520   2.106
94149SOL    HW184344  13.946   6.597   2.163
94149SOL    HW284345  14.037   6.484   2.120
94150SOL     OW84346  11.125   4.236   6.707
94150SOL    HW184347  11.065   4.229   6.781
94150SOL    HW284348  11.204   4.275   6.744
94151SOL     OW84349   6.826   6.687   7.706
94151SOL    HW184350   6.891   6.619   7.688
94151SOL    HW284351   6.747   6.640   7.730
94152SOL     OW84352   1.420   1.502   2.361
94152SOL    HW184353   1.509   1.534   2.366
94152SOL    HW284354   1.400   1.473   2.450
94153SOL     OW84355   9.577   7.980   0.330
94153SOL    HW184356   9.623   7.900   0.355
94153SOL    HW284357   9.510   7.952   0.267
94154SOL     OW84358  13.269   2.031  10.782
94154SOL    HW184359  13.277   1.974  10.859
94154SOL    HW284360  13.330   2.103  10.799
94155SOL     OW84361   7.454   8.823  14.419
94155SOL    HW184362   7.465   8.899  14.475
94155SOL    HW284363   7.477   8.855  14.331
94156SOL     OW84364   5.078   5.413  11.359
94156SOL    HW184365   5.019   5.482  11.391
94156SOL    HW284366   5.165   5.442  11.385
94157SOL     OW84367  12.796   2.305   6.431
94157SOL    HW184368  12.733   2.361   6.386
94157SOL    HW284369  12.811   2.233   6.371
94158SOL     OW84370   8.917   9.445   3.449
94158SOL    HW184371   8.831   9.435   3.408
94158SOL    HW284372   8.942   9.356   3.473
94159SOL     OW84373  14.541  11.082  11.416
94159SOL    HW184374  14.520  11.143  11.487
94159SOL    HW284375  14.582  11.137  11.349
94160SOL     OW84376   3.410   8.384   4.465
94160SOL    HW184377   3.465   8.445   4.515
94160SOL    HW284378   3.433   8.401   4.374
94161SOL     OW84379  14.160   3.686   9.164
94161SOL    HW184380  14.094   3.695   9.095
94161SOL    HW284381  14.241   3.718   9.124
94162SOL     OW84382   7.543  12.394  12.389
94162SOL    HW184383   7.606  12.452  12.347
94162SOL    HW284384   7.496  12.352  12.317
94163SOL     OW84385   3.987   8.708  10.456
94163SOL    HW184386   3.904   8.691  10.499
94163SOL    HW284387   3.992   8.804  10.451
94164SOL     OW84388   4.362   9.778   4.369
94164SOL    HW184389   4.305   9.846   4.333
94164SOL    HW284390   4.450   9.802   4.340
94165SOL     OW84391   9.696   6.569  13.787
94165SOL    HW184392   9.737   6.515  13.720
94165SOL    HW284393   9.716   6.525  13.869
94166SOL     OW84394  14.267   7.208   4.617
94166SOL    HW184395  14.356   7.174   4.611
94166SOL    HW284396  14.274   7.301   4.596
94167SOL     OW84397   5.603   6.111  11.550
94167SOL    HW184398   5.689   6.151  11.533
94167SOL    HW284399   5.558   6.115  11.466
94168SOL     OW84400   9.150   2.898  13.523
94168SOL    HW184401   9.239   2.864  13.527
94168SOL    HW284402   9.094   2.820  13.526
94169SOL     OW84403   6.524  11.584   9.318
94169SOL    HW184404   6.590  11.558   9.253
94169SOL    HW284405   6.568  11.651   9.370
94170SOL     OW84406  14.483  11.801   1.760
94170SOL    HW184407  14.532  11.866   1.812
94170SOL    HW284408  14.399  11.843   1.743
94171SOL     OW84409  13.753   9.942   1.574
94171SOL    HW184410  13.664   9.977   1.583
94171SOL    HW284411  13.787   9.983   1.494
94172SOL     OW84412   1.235   9.203   9.643
94172SOL    HW184413   1.176   9.130   9.664
94172SOL    HW284414   1.176   9.274   9.619
94173SOL     OW84415   1.330   7.429   2.974
94173SOL    HW184416   1.272   7.389   3.039
94173SOL    HW284417   1.284   7.508   2.946
94174SOL     OW84418  12.899   3.952   4.094
94174SOL    HW184419  12.993   3.971   4.097
94174SOL    HW284420  12.894   3.861   4.066
94175SOL     OW84421   7.628  10.210  13.844
94175SOL    HW184422   7.550  10.266  13.834
94175SOL    HW284423   7.696  10.256  13.795
94176SOL     OW84424  10.578  10.362   3.958
94176SOL    HW184425  10.592  10.286   4.013
94176SOL    HW284426  10.643  10.355   3.888
94177SOL     OW84427   9.313  13.059  10.753
94177SOL    HW184428   9.282  13.147  10.732
94177SOL    HW284429   9.339  13.064  10.845
94178SOL     OW84430   0.070   8.911   7.412
94178SOL    HW184431   0.045   8.952   7.329
94178SOL    HW284432   0.086   8.984   7.471
94179SOL     OW84433  13.423  12.076  14.528
94179SOL    HW184434  13.434  11.985  14.552
94179SOL    HW284435  13.478  12.087  14.450
94180SOL     OW84436  11.448   5.802   7.218
94180SOL    HW184437  11.439   5.724   7.163
94180SOL    HW284438  11.404   5.871   7.168
94181SOL     OW84439  10.317  13.639   4.584
94181SOL    HW184440  10.251  13.647   4.652
94181SOL    HW284441  10.275  13.585   4.517
94182SOL     OW84442   4.023  11.488  12.849
94182SOL    HW184443   3.946  11.531  12.887
94182SOL    HW284444   3.988  11.411  12.805
94183SOL     OW84445  13.746   9.982   0.337
94183SOL    HW184446  13.737  10.055   0.276
94183SOL    HW284447  13.753   9.905   0.282
94184SOL     OW84448   9.531   5.286   3.862
94184SOL    HW184449   9.475   5.264   3.936
94184SOL    HW284450   9.511   5.377   3.841
94185SOL     OW84451   6.890   0.811  14.169
94185SOL    HW184452   6.824   0.787  14.105
94185SOL    HW284453   6.858   0.776  14.252
94186SOL     OW84454  14.175  10.305   0.299
94186SOL    HW184455  14.213  10.382   0.257
94186SOL    HW284456  14.191  10.318   0.392
94187SOL     OW84457   5.003   3.287  13.788
94187SOL    HW184458   4.990   3.376  13.755
94187SOL    HW284459   4.951   3.283  13.868
94188SOL     OW84460   0.548   3.123  11.646
94188SOL    HW184461   0.453   3.112  11.655
94188SOL    HW284462   0.586   3.050  11.694
94189SOL     OW84463  11.033   0.948  11.725
94189SOL    HW184464  11.094   0.949  11.651
94189SOL    HW284465  10.962   0.891  11.697
94190SOL     OW84466  12.503  10.641   1.987
94190SOL    HW184467  12.499  10.718   2.043
94190SOL    HW284468  12.596  10.617   1.986
94191SOL     OW84469  10.630  14.625  13.376
94191SOL    HW184470  10.656  14.641  13.467
94191SOL    HW284471  10.697  14.566  13.342
94192SOL     OW84472   3.434   7.483  13.802
94192SOL    HW184473   3.352   7.518  13.768
94192SOL    HW284474   3.416   7.391  13.821
94193SOL     OW84475   1.931   1.697   7.300
94193SOL    HW184476   2.016   1.741   7.309
94193SOL    HW284477   1.954   1.604   7.297
94194SOL     OW84478   0.720   2.493   8.748
94194SOL    HW184479   0.697   2.425   8.683
94194SOL    HW284480   0.787   2.545   8.704
94195SOL     OW84481  11.439   5.158   1.465
94195SOL    HW184482  11.439   5.118   1.378
94195SOL    HW284483  11.507   5.224   1.462
94196SOL     OW84484   6.600  12.680   8.634
94196SOL    HW184485   6.627  12.764   8.672
94196SOL    HW284486   6.504  12.680   8.644
94197SOL     OW84487  11.830   8.230   5.843
94197SOL    HW184488  11.900   8.176   5.807
94197SOL    HW284489  11.867   8.267   5.923
94198SOL     OW84490   9.582   3.767  11.509
94198SOL    HW184491   9.646   3.741  11.442
94198SOL    HW284492   9.498   3.736  11.475
94199SOL     OW84493  14.358   6.943   7.357
94199SOL    HW184494  14.430   6.932   7.295
94199SOL    HW284495  14.338   6.855   7.388
94200SOL     OW84496  12.640   6.793   8.636
94200SOL    HW184497  12.631   6.808   8.542
94200SOL    HW284498  12.697   6.865   8.666
94201SOL     OW84499   4.344   4.710   0.850
94201SOL    HW184500   4.337   4.653   0.773
94201SOL    HW284501   4.406   4.666   0.908
94202SOL     OW84502   9.751   6.374   3.611
94202SOL    HW184503   9.732   6.397   3.702
94202SOL    HW284504   9.714   6.447   3.560
94203SOL     OW84505  14.540   7.251   7.417
94203SOL    HW184506  14.570   7.203   7.494
94203SOL    HW284507  14.535   7.185   7.348
94204SOL     OW84508   0.724   7.076   5.746
94204SOL    HW184509   0.780   7.018   5.798
94204SOL    HW284510   0.786   7.126   5.693
94205SOL     OW84511  13.568   1.251  11.028
94205SOL    HW184512  13.545   1.334  11.071
94205SOL    HW284513  13.656   1.231  11.060
94206SOL     OW84514   5.836  13.300  14.151
94206SOL    HW184515   5.906  13.339  14.203
94206SOL    HW284516   5.806  13.371  14.095
94207SOL     OW84517   5.296  14.559   9.137
94207SOL    HW184518   5.370  14.544   9.196
94207SOL    HW284519   5.319  14.512   9.057
94208SOL     OW84520   3.139   2.690   9.790
94208SOL    HW184521   3.228   2.665   9.813
94208SOL    HW284522   3.084   2.648   9.855
94209SOL     OW84523   6.774   3.124  10.627
94209SOL    HW184524   6.797   3.068  10.553
94209SOL    HW284525   6.686   3.157  10.605
94210SOL     OW84526  13.388  14.241   0.998
94210SOL    HW184527  13.321  14.215   1.061
94210SOL    HW284528  13.409  14.332   1.021
94211SOL     OW84529   7.042  14.090   9.418
94211SOL    HW184530   7.060  14.081   9.512
94211SOL    HW284531   7.002  14.006   9.394
94212SOL     OW84532   7.978  14.356   5.795
94212SOL    HW184533   7.892  14.314   5.802
94212SOL    HW284534   8.029  14.319   5.867
94213SOL     OW84535   5.700  11.934   5.317
94213SOL    HW184536   5.694  11.961   5.408
94213SOL    HW284537   5.763  11.995   5.277
94214SOL     OW84538   2.846   9.623   2.810
94214SOL    HW184539   2.906   9.565   2.857
94214SOL    HW284540   2.772   9.635   2.870
94215SOL     OW84541  14.604  12.257  12.741
94215SOL    HW184542  14.666  12.193  12.776
94215SOL    HW284543  14.639  12.342  12.768
94216SOL     OW84544   0.225   8.596   3.232
94216SOL    HW184545   0.269   8.617   3.150
94216SOL    HW284546   0.175   8.517   3.212
94217SOL     OW84547   8.020  12.034   2.604
94217SOL    HW184548   8.063  11.949   2.617
94217SOL    HW284549   8.087  12.089   2.564
94218SOL     OW84550  13.471   0.646   2.940
94218SOL    HW184551  13.546   0.605   2.896
94218SOL    HW284552  13.437   0.577   2.997
94219SOL     OW84553   6.967  11.589  10.264
94219SOL    HW184554   6.944  11.631  10.347
94219SOL    HW284555   7.062  11.583  10.265
94220SOL     OW84556   8.567   3.237   1.284
94220SOL    HW184557   8.494   3.227   1.223
94220SOL    HW284558   8.527   3.241   1.370
94221SOL     OW84559  12.282  12.453   3.877
94221SOL    HW184560  12.213  12.395   3.845
94221SOL    HW284561  12.252  12.479   3.965
94222SOL     OW84562   4.120   9.148  13.871
94222SOL    HW184563   4.197   9.105  13.834
94222SOL    HW284564   4.145   9.167  13.962
94223SOL     OW84565   4.947  11.637   8.214
94223SOL    HW184566   5.035  11.600   8.201
94223SOL    HW284567   4.922  11.607   8.301
94224SOL     OW84568  11.069   7.497   4.240
94224SOL    HW184569  11.162   7.495   4.218
94224SOL    HW284570  11.054   7.416   4.289
94225SOL     OW84571   1.802   3.042  10.086
94225SOL    HW184572   1.806   2.948  10.103
94225SOL    HW284573   1.733   3.075  10.143
94226SOL     OW84574   9.061  11.625   9.663
94226SOL    HW184575   9.055  11.618   9.758
94226SOL    HW284576   9.086  11.537   9.634
94227SOL     OW84577  11.877   3.901  12.238
94227SOL    HW184578  11.947   3.964  12.259
94227SOL    HW284579  11.840   3.933  12.156
94228SOL     OW84580  12.589  14.404  10.966
94228SOL    HW184581  12.555  14.480  10.918
94228SOL    HW284582  12.592  14.334  10.900
94229SOL     OW84583   6.647   4.889   1.682
94229SOL    HW184584   6.557   4.872   1.654
94229SOL    HW284585   6.645   4.979   1.716
94230SOL     OW84586   9.782   0.311  13.007
94230SOL    HW184587   9.815   0.274  13.089
94230SOL    HW284588   9.687   0.316  13.020
94231SOL     OW84589  10.356   1.894   4.098
94231SOL    HW184590  10.393   1.964   4.152
94231SOL    HW284591  10.301   1.939   4.033
94232SOL     OW84592   4.042   2.686  13.409
94232SOL    HW184593   4.133   2.663  13.432
94232SOL    HW284594   4.048   2.722  13.321
94233SOL     OW84595  14.580  10.095   9.068
94233SOL    HW184596  14.524  10.169   9.089
94233SOL    HW284597  14.597  10.103   8.974
94234SOL     OW84598  10.006   9.971  14.670
94234SOL    HW184599  10.005   9.904  14.601
94234SOL    HW284600   9.921  10.015  14.662
94235SOL     OW84601   0.769   8.760  12.214
94235SOL    HW184602   0.800   8.794  12.130
94235SOL    HW284603   0.795   8.667  12.213
94236SOL     OW84604   4.060   7.303  13.306
94236SOL    HW184605   4.136   7.351  13.340
94236SOL    HW284606   4.004   7.370  13.267
94237SOL     OW84607  13.032  13.080  14.395
94237SOL    HW184608  13.021  13.094  14.301
94237SOL    HW284609  13.029  12.985  14.405
94238SOL     OW84610   2.695   6.682   6.898
94238SOL    HW184611   2.660   6.763   6.937
94238SOL    HW284612   2.769   6.659   6.954
94239SOL     OW84613   4.437  11.232   6.129
94239SOL    HW184614   4.408  11.192   6.046
94239SOL    HW284615   4.367  11.293   6.151
94240SOL     OW84616   1.998  10.810  11.825
94240SOL    HW184617   2.059  10.766  11.766
94240SOL    HW284618   2.018  10.903  11.817
94241SOL     OW84619   0.186   3.670  11.278
94241SOL    HW184620   0.234   3.587  11.278
94241SOL    HW284621   0.216   3.715  11.358
94242SOL     OW84622   2.228   0.295  13.424
94242SOL    HW184623   2.176   0.245  13.362
94242SOL    HW284624   2.172   0.303  13.501
94243SOL     OW84625  11.255  10.798   8.538
94243SOL    HW184626  11.247  10.736   8.466
94243SOL    HW284627  11.304  10.750   8.605
94244SOL     OW84628  14.429  10.946   1.056
94244SOL    HW184629  14.443  10.913   1.145
94244SOL    HW284630  14.446  11.040   1.063
94245SOL     OW84631  12.906  11.923   9.286
94245SOL    HW184632  12.989  11.893   9.249
94245SOL    HW284633  12.884  12.002   9.237
94246SOL     OW84634   0.121   2.108   8.721
94246SOL    HW184635   0.209   2.070   8.725
94246SOL    HW284636   0.083   2.074   8.640
94247SOL     OW84637   5.631  10.843   5.579
94247SOL    HW184638   5.717  10.800   5.583
94247SOL    HW284639   5.613  10.867   5.670
94248SOL     OW84640  12.642   0.725   6.512
94248SOL    HW184641  12.563   0.779   6.510
94248SOL    HW284642  12.615   0.641   6.476
94249SOL     OW84643   5.715  10.975   1.658
94249SOL    HW184644   5.774  10.991   1.584
94249SOL    HW284645   5.628  10.970   1.619
94250SOL     OW84646   2.953   0.667   6.814
94250SOL    HW184647   3.001   0.589   6.841
94250SOL    HW284648   2.871   0.663   6.863
94251SOL     OW84649   5.522  10.797  14.180
94251SOL    HW184650   5.606  10.775  14.221
94251SOL    HW284651   5.540  10.789  14.086
94252SOL     OW84652   4.789   5.502  13.508
94252SOL    HW184653   4.877   5.494  13.471
94252SOL    HW284654   4.803   5.525  13.600
94253SOL     OW84655   4.114   5.977   2.220
94253SOL    HW184656   4.163   5.990   2.139
94253SOL    HW284657   4.104   5.882   2.227
94254SOL     OW84658   8.315   0.592  11.564
94254SOL    HW184659   8.347   0.581  11.474
94254SOL    HW284660   8.225   0.624  11.553
94255SOL     OW84661   4.348  12.764   3.318
94255SOL    HW184662   4.299  12.704   3.374
94255SOL    HW284663   4.337  12.728   3.230
94256SOL     OW84664  12.611   2.970  14.681
94256SOL    HW184665  12.646   3.054  14.654
94256SOL    HW284666  12.586   2.983  14.773
94257SOL     OW84667   4.178   4.639   5.763
94257SOL    HW184668   4.204   4.632   5.854
94257SOL    HW284669   4.254   4.610   5.713
94258SOL     OW84670   4.163   6.218   7.019
94258SOL    HW184671   4.210   6.250   6.942
94258SOL    HW284672   4.100   6.155   6.984
94259SOL     OW84673   6.797  11.658  10.458
94259SOL    HW184674   6.708  11.655  10.494
94259SOL    HW284675   6.820  11.751  10.460
94260SOL     OW84676   3.997   7.455   7.243
94260SOL    HW184677   3.995   7.500   7.158
94260SOL    HW284678   4.071   7.494   7.289
94261SOL     OW84679   6.996  12.755   7.347
94261SOL    HW184680   6.907  12.769   7.380
94261SOL    HW284681   6.985  12.695   7.273
94262SOL     OW84682   5.893   7.419   0.068
94262SOL    HW184683   5.881   7.433   0.162
94262SOL    HW284684   5.811   7.378   0.040
94263SOL     OW84685  14.464   2.939  12.316
94263SOL    HW184686  14.505   2.893  12.389
94263SOL    HW284687  14.468   3.032  12.342
94264SOL     OW84688  12.835  11.171   5.212
94264SOL    HW184689  12.886  11.112   5.156
94264SOL    HW284690  12.802  11.238   5.151
94265SOL     OW84691   8.312  12.587   9.191
94265SOL    HW184692   8.281  12.498   9.178
94265SOL    HW284693   8.233  12.640   9.198
94266SOL     OW84694   4.466   9.073   0.206
94266SOL    HW184695   4.486   9.159   0.168
94266SOL    HW284696   4.416   9.028   0.137
94267SOL     OW84697   9.221  13.547  10.585
94267SOL    HW184698   9.286  13.611  10.614
94267SOL    HW284699   9.201  13.571  10.495
94268SOL     OW84700   9.374   7.303   4.245
94268SOL    HW184701   9.430   7.228   4.227
94268SOL    HW284702   9.353   7.338   4.159
94269SOL     OW84703   4.875  13.177  12.987
94269SOL    HW184704   4.823  13.196  13.065
94269SOL    HW284705   4.912  13.090  13.003
94270SOL     OW84706   8.760   2.307   1.652
94270SOL    HW184707   8.813   2.376   1.611
94270SOL    HW284708   8.721   2.260   1.579
94271SOL     OW84709  13.586  13.643   5.386
94271SOL    HW184710  13.538  13.725   5.396
94271SOL    HW284711  13.562  13.612   5.299
94272SOL     OW84712  13.848   4.787  12.365
94272SOL    HW184713  13.857   4.726  12.293
94272SOL    HW284714  13.934   4.828  12.373
94273SOL     OW84715   5.733  10.763   4.049
94273SOL    HW184716   5.668  10.820   4.006
94273SOL    HW284717   5.775  10.717   3.977
94274SOL     OW84718   5.441   8.054   1.481
94274SOL    HW184719   5.521   8.005   1.502
94274SOL    HW284720   5.457   8.089   1.394
94275SOL     OW84721   5.498   5.896   3.165
94275SOL    HW184722   5.402   5.901   3.158
94275SOL    HW284723   5.518   5.806   3.138
94276SOL     OW84724   0.011   5.819   9.413
94276SOL    HW184725   0.048   5.823   9.501
94276SOL    HW284726  14.813   5.752   9.418
94277SOL     OW84727   3.132   5.556   2.897
94277SOL    HW184728   3.117   5.537   2.805
94277SOL    HW284729   3.045   5.552   2.936
94278SOL     OW84730   5.835   2.964  14.481
94278SOL    HW184731   5.757   2.978  14.427
94278SOL    HW284732   5.906   2.953  14.418
94279SOL     OW84733   8.720   1.663   0.912
94279SOL    HW184734   8.733   1.624   0.826
94279SOL    HW284735   8.807   1.693   0.939
94280SOL     OW84736   5.552   5.500   6.085
94280SOL    HW184737   5.463   5.533   6.078
94280SOL    HW284738   5.604   5.558   6.029
94281SOL     OW84739   7.991   5.989   0.185
94281SOL    HW184740   7.998   5.902   0.224
94281SOL    HW284741   7.937   6.038   0.246
94282SOL     OW84742  12.368   7.520   4.564
94282SOL    HW184743  12.311   7.445   4.583
94282SOL    HW284744  12.337   7.589   4.623
94283SOL     OW84745   0.003   3.666  12.221
94283SOL    HW184746  14.859   3.758  12.245
94283SOL    HW284747  14.812   3.651  12.149
94284SOL     OW84748  13.445  13.887   8.394
94284SOL    HW184749  13.415  13.881   8.303
94284SOL    HW284750  13.365  13.896   8.445
94285SOL     OW84751  10.395   5.812  12.849
94285SOL    HW184752  10.359   5.847  12.767
94285SOL    HW284753  10.395   5.886  12.909
94286SOL     OW84754  11.947   5.032  11.200
94286SOL    HW184755  11.977   4.983  11.123
94286SOL    HW284756  11.963   4.973  11.273
94287SOL     OW84757   2.925   8.304   4.461
94287SOL    HW184758   2.973   8.329   4.381
94287SOL    HW284759   2.941   8.210   4.470
94288SOL     OW84760  11.383   3.255  11.731
94288SOL    HW184761  11.300   3.232  11.772
94288SOL    HW284762  11.396   3.188  11.664
94289SOL     OW84763  10.739   0.446   5.547
94289SOL    HW184764  10.649   0.476   5.534
94289SOL    HW284765  10.768   0.421   5.460
94290SOL     OW84766   4.983   7.323   3.802
94290SOL    HW184767   5.000   7.339   3.895
94290SOL    HW284768   4.903   7.373   3.784
94291SOL     OW84769   2.438  12.697  14.627
94291SOL    HW184770   2.459  12.732  14.540
94291SOL    HW284771   2.390  12.616  14.609
94292SOL     OW84772  13.683   2.949   5.727
94292SOL    HW184773  13.611   2.982   5.673
94292SOL    HW284774  13.641   2.905   5.800
94293SOL     OW84775   9.035   6.634  12.567
94293SOL    HW184776   9.012   6.547  12.598
94293SOL    HW284777   9.043   6.687  12.646
94294SOL     OW84778   1.321  10.194   2.997
94294SOL    HW184779   1.280  10.133   2.935
94294SOL    HW284780   1.372  10.253   2.941
94295SOL     OW84781   6.746   1.575  11.156
94295SOL    HW184782   6.702   1.506  11.206
94295SOL    HW284783   6.831   1.585  11.199
94296SOL     OW84784   1.822  11.374   7.079
94296SOL    HW184785   1.896  11.341   7.029
94296SOL    HW284786   1.844  11.466   7.097
94297SOL     OW84787   4.355   0.717   7.432
94297SOL    HW184788   4.397   0.792   7.474
94297SOL    HW284789   4.359   0.647   7.498
94298SOL     OW84790  12.818  14.318   7.356
94298SOL    HW184791  12.817  14.378   7.431
94298SOL    HW284792  12.778  14.238   7.389
94299SOL     OW84793   8.176  11.619  11.748
94299SOL    HW184794   8.177  11.538  11.799
94299SOL    HW284795   8.113  11.602  11.678
94300SOL     OW84796   4.458   7.309   4.624
94300SOL    HW184797   4.495   7.393   4.651
94300SOL    HW284798   4.370   7.309   4.662
94301SOL     OW84799   7.325   4.483   2.374
94301SOL    HW184800   7.285   4.537   2.442
94301SOL    HW284801   7.263   4.486   2.302
94302SOL     OW84802  12.911  10.225   8.676
94302SOL    HW184803  12.869  10.275   8.606
94302SOL    HW284804  12.997  10.202   8.642
94303SOL     OW84805  12.471  12.575   2.779
94303SOL    HW184806  12.549  12.607   2.823
94303SOL    HW284807  12.471  12.620   2.695
94304SOL     OW84808   4.497   1.745   4.827
94304SOL    HW184809   4.434   1.811   4.856
94304SOL    HW284810   4.582   1.788   4.838
94305SOL     OW84811   8.642   4.757  12.921
94305SOL    HW184812   8.694   4.808  12.860
94305SOL    HW284813   8.620   4.677  12.873
94306SOL     OW84814   2.977   3.073   5.196
94306SOL    HW184815   2.941   3.122   5.269
94306SOL    HW284816   2.900   3.037   5.151
94307SOL     OW84817  12.189  10.869   4.782
94307SOL    HW184818  12.144  10.930   4.724
94307SOL    HW284819  12.279  10.866   4.748
94308SOL     OW84820   2.902   5.361   5.980
94308SOL    HW184821   2.886   5.454   5.964
94308SOL    HW284822   2.837   5.317   5.926
94309SOL     OW84823   5.743  10.192  13.665
94309SOL    HW184824   5.819  10.247  13.684
94309SOL    HW284825   5.775  10.128  13.601
94310SOL     OW84826   5.985  10.494   4.362
94310SOL    HW184827   5.920  10.520   4.297
94310SOL    HW284828   6.037  10.573   4.378
94311SOL     OW84829   2.619   4.911  10.185
94311SOL    HW184830   2.641   5.004  10.188
94311SOL    HW284831   2.620   4.883  10.276
94312SOL     OW84832  11.148   7.496  10.501
94312SOL    HW184833  11.237   7.470  10.478
94312SOL    HW284834  11.098   7.415  10.501
94313SOL     OW84835   7.998   8.292   0.104
94313SOL    HW184836   8.049   8.290   0.023
94313SOL    HW284837   7.991   8.385   0.126
94314SOL     OW84838  13.299  12.402   1.737
94314SOL    HW184839  13.205  12.419   1.740
94314SOL    HW284840  13.328  12.408   1.828
94315SOL     OW84841   0.752   3.837  13.216
94315SOL    HW184842   0.717   3.921  13.246
94315SOL    HW284843   0.843   3.856  13.193
94316SOL     OW84844   2.843  14.427   6.146
94316SOL    HW184845   2.881  14.463   6.226
94316SOL    HW284846   2.753  14.405   6.170
94317SOL     OW84847   2.302   7.990   2.621
94317SOL    HW184848   2.342   8.048   2.557
94317SOL    HW284849   2.334   8.022   2.706
94318SOL     OW84850  10.564  13.612   1.613
94318SOL    HW184851  10.539  13.692   1.658
94318SOL    HW284852  10.647  13.633   1.571
94319SOL     OW84853   9.806  11.581  13.419
94319SOL    HW184854   9.854  11.660  13.441
94319SOL    HW284855   9.766  11.553  13.501
94320SOL     OW84856  13.847  12.257  11.791
94320SOL    HW184857  13.826  12.299  11.874
94320SOL    HW284858  13.767  12.210  11.766
94321SOL     OW84859   5.796  13.114   4.900
94321SOL    HW184860   5.703  13.094   4.911
94321SOL    HW284861   5.828  13.048   4.839
94322SOL     OW84862   8.302   0.251  11.232
94322SOL    HW184863   8.299   0.180  11.297
94322SOL    HW284864   8.321   0.207  11.150
94323SOL     OW84865  11.580  10.495   0.396
94323SOL    HW184866  11.574  10.550   0.317
94323SOL    HW284867  11.640  10.543   0.453
94324SOL     OW84868  14.157  12.312  10.529
94324SOL    HW184869  14.195  12.396  10.553
94324SOL    HW284870  14.231  12.254  10.512
94325SOL     OW84871  13.220   4.435   9.476
94325SOL    HW184872  13.153   4.367   9.482
94325SOL    HW284873  13.171   4.517   9.480
94326SOL     OW84874   9.209   2.808   0.989
94326SOL    HW184875   9.215   2.826   0.895
94326SOL    HW284876   9.178   2.718   0.995
94327SOL     OW84877  11.778  11.201   8.478
94327SOL    HW184878  11.795  11.247   8.396
94327SOL    HW284879  11.728  11.123   8.453
94328SOL     OW84880   5.719  11.478   0.992
94328SOL    HW184881   5.761  11.453   1.074
94328SOL    HW284882   5.700  11.571   1.001
94329SOL     OW84883   2.375   6.444   4.558
94329SOL    HW184884   2.302   6.421   4.617
94329SOL    HW284885   2.446   6.468   4.617
94330SOL     OW84886   0.409   6.173   0.092
94330SOL    HW184887   0.377   6.207   0.008
94330SOL    HW284888   0.424   6.080   0.076
94331SOL     OW84889  11.779  12.188   4.064
94331SOL    HW184890  11.768  12.094   4.049
94331SOL    HW284891  11.729  12.230   3.993
94332SOL     OW84892  14.477   5.460  13.123
94332SOL    HW184893  14.538   5.527  13.155
94332SOL    HW284894  14.410   5.455  13.191
94333SOL     OW84895   7.394  12.900   3.899
94333SOL    HW184896   7.359  12.811   3.887
94333SOL    HW284897   7.336  12.940   3.964
94334SOL     OW84898   6.825   4.138   0.259
94334SOL    HW184899   6.732   4.132   0.239
94334SOL    HW284900   6.834   4.100   0.346
94335SOL     OW84901   1.288   3.313   1.845
94335SOL    HW184902   1.264   3.371   1.916
94335SOL    HW284903   1.234   3.340   1.771
94336SOL     OW84904   9.917  14.064   0.184
94336SOL    HW184905   9.965  14.132   0.231
94336SOL    HW284906   9.828  14.069   0.218
94337SOL     OW84907   8.450   5.558  14.328
94337SOL    HW184908   8.443   5.633  14.387
94337SOL    HW284909   8.444   5.482  14.385
94338SOL     OW84910  10.250   5.234   6.607
94338SOL    HW184911  10.223   5.299   6.542
94338SOL    HW284912  10.330   5.197   6.571
94339SOL     OW84913   3.989   3.434   1.443
94339SOL    HW184914   4.029   3.415   1.358
94339SOL    HW284915   3.954   3.350   1.472
94340SOL     OW84916  11.524  14.076   9.362
94340SOL    HW184917  11.588  14.007   9.348
94340SOL    HW284918  11.536  14.101   9.454
94341SOL     OW84919  12.831  10.272  11.654
94341SOL    HW184920  12.884  10.351  11.642
94341SOL    HW284921  12.743  10.298  11.623
94342SOL     OW84922   1.440   0.930  13.783
94342SOL    HW184923   1.461   0.848  13.827
94342SOL    HW284924   1.446   0.997  13.852
94343SOL     OW84925  10.070   3.270   0.990
94343SOL    HW184926  10.001   3.217   0.949
94343SOL    HW284927  10.095   3.220   1.067
94344SOL     OW84928  12.753   1.537   8.358
94344SOL    HW184929  12.734   1.612   8.414
94344SOL    HW284930  12.820   1.488   8.405
94345SOL     OW84931  13.630  12.458   9.570
94345SOL    HW184932  13.616  12.518   9.643
94345SOL    HW284933  13.558  12.395   9.577
94346SOL     OW84934   3.714   5.085   7.588
94346SOL    HW184935   3.675   4.998   7.596
94346SOL    HW284936   3.779   5.076   7.518
94347SOL     OW84937   2.213   7.802   1.651
94347SOL    HW184938   2.121   7.775   1.644
94347SOL    HW284939   2.218   7.846   1.735
94348SOL     OW84940  12.157   2.075   0.161
94348SOL    HW184941  12.172   2.163   0.195
94348SOL    HW284942  12.138   2.088   0.068
94349SOL     OW84943  11.013   1.881   2.770
94349SOL    HW184944  10.930   1.866   2.815
94349SOL    HW284945  10.996   1.957   2.715
94350SOL     OW84946   7.425   3.241  11.362
94350SOL    HW184947   7.363   3.314  11.357
94350SOL    HW284948   7.492   3.271  11.424
94351SOL     OW84949   0.358  10.373   3.261
94351SOL    HW184950   0.388  10.400   3.174
94351SOL    HW284951   0.394  10.440   3.320
94352SOL     OW84952   7.094  10.105  11.323
94352SOL    HW184953   7.029  10.062  11.378
94352SOL    HW284954   7.079  10.070  11.235
94353SOL     OW84955   4.866  10.882  12.066
94353SOL    HW184956   4.954  10.920  12.065
94353SOL    HW284957   4.821  10.925  11.993
94354SOL     OW84958   1.925   1.124   8.004
94354SOL    HW184959   1.935   1.132   7.909
94354SOL    HW284960   1.859   1.056   8.015
94355SOL     OW84961   6.811   9.467  11.592
94355SOL    HW184962   6.746   9.397  11.583
94355SOL    HW284963   6.810   9.512  11.507
94356SOL     OW84964  11.088  10.216  10.188
94356SOL    HW184965  11.153  10.172  10.132
94356SOL    HW284966  11.103  10.309  10.173
94357SOL     OW84967   2.176  11.316   9.746
94357SOL    HW184968   2.271  11.322   9.732
94357SOL    HW284969   2.153  11.400   9.785
94358SOL     OW84970  10.790   0.707   9.603
94358SOL    HW184971  10.726   0.690   9.673
94358SOL    HW284972  10.756   0.784   9.558
94359SOL     OW84973   0.136   0.610   9.143
94359SOL    HW184974   0.087   0.686   9.112
94359SOL    HW284975   0.071   0.540   9.149
94360SOL     OW84976   5.908   2.221  10.128
94360SOL    HW184977   5.869   2.225  10.040
94360SOL    HW284978   5.926   2.312  10.151
94361SOL     OW84979   0.365   8.999  10.620
94361SOL    HW184980   0.388   9.024  10.709
94361SOL    HW284981   0.382   9.078  10.568
94362SOL     OW84982  11.327   9.515   3.923
94362SOL    HW184983  11.349   9.604   3.950
94362SOL    HW284984  11.316   9.521   3.828
94363SOL     OW84985  14.212  13.552   0.836
94363SOL    HW184986  14.303  13.547   0.808
94363SOL    HW284987  14.187  13.643   0.823
94364SOL     OW84988   9.953  14.604   8.543
94364SOL    HW184989   9.948  14.526   8.488
94364SOL    HW284990   9.921  14.575   8.628
94365SOL     OW84991   4.753   4.063  10.546
94365SOL    HW184992   4.687   4.076  10.613
94365SOL    HW284993   4.794   3.979  10.567
94366SOL     OW84994   1.896  13.241   8.368
94366SOL    HW184995   1.934  13.245   8.456
94366SOL    HW284996   1.972  13.245   8.309
94367SOL     OW84997   9.376  10.912   6.704
94367SOL    HW184998   9.389  10.828   6.748
94367SOL    HW284999   9.298  10.899   6.651
94368SOL     OW85000   4.325  13.132   2.999
94368SOL    HW185001   4.324  13.069   2.927
94368SOL    HW285002   4.375  13.207   2.966
94369SOL     OW85003  11.514  13.535   0.528
94369SOL    HW185004  11.442  13.598   0.533
94369SOL    HW285005  11.591  13.583   0.559
94370SOL     OW85006   1.155   0.623   0.178
94370SOL    HW185007   1.219   0.555   0.157
94370SOL    HW285008   1.136   0.665   0.094
94371SOL     OW85009  10.790   3.264   9.336
94371SOL    HW185010  10.732   3.278   9.410
94371SOL    HW285011  10.772   3.174   9.307
94372SOL     OW85012   9.028   0.465  11.411
94372SOL    HW185013   9.087   0.486  11.338
94372SOL    HW285014   8.983   0.548  11.430
94373SOL     OW85015   2.385   7.732   5.769
94373SOL    HW185016   2.326   7.660   5.792
94373SOL    HW285017   2.358   7.805   5.825
94374SOL     OW85018  13.403   0.387   3.045
94374SOL    HW185019  13.492   0.409   3.072
94374SOL    HW285020  13.409   0.372   2.951
94375SOL     OW85021   9.471  10.770   3.610
94375SOL    HW185022   9.545  10.757   3.551
94375SOL    HW285023   9.437  10.856   3.587
94376SOL     OW85024   9.687  10.534  12.170
94376SOL    HW185025   9.671  10.586  12.091
94376SOL    HW285026   9.742  10.462  12.140
94377SOL     OW85027  14.565  13.288   2.293
94377SOL    HW185028  14.570  13.256   2.384
94377SOL    HW285029  14.560  13.208   2.240
94378SOL     OW85030   6.815  11.436  14.711
94378SOL    HW185031   6.871  11.362  14.690
94378SOL    HW285032   6.859  11.511  14.671
94379SOL     OW85033   6.191  11.176   0.267
94379SOL    HW185034   6.106  11.186   0.309
94379SOL    HW285035   6.199  11.253   0.210
94380SOL     OW85036   0.120  10.417   6.559
94380SOL    HW185037   0.064  10.358   6.509
94380SOL    HW285038   0.059  10.470   6.612
94381SOL     OW85039   8.732   1.192  10.274
94381SOL    HW185040   8.694   1.260  10.219
94381SOL    HW285041   8.668   1.120  10.272
94382SOL     OW85042  12.719   8.627   9.680
94382SOL    HW185043  12.656   8.570   9.725
94382SOL    HW285044  12.804   8.588   9.700
94383SOL     OW85045   0.520   1.555   9.323
94383SOL    HW185046   0.607   1.582   9.293
94383SOL    HW285047   0.527   1.552   9.418
94384SOL     OW85048  11.259  12.533   6.183
94384SOL    HW185049  11.164  12.544   6.191
94384SOL    HW285050  11.295  12.605   6.235
94385SOL     OW85051   2.076   4.860   1.759
94385SOL    HW185052   2.146   4.861   1.694
94385SOL    HW285053   2.115   4.819   1.836
94386SOL     OW85054   5.934   4.235   7.045
94386SOL    HW185055   5.952   4.327   7.063
94386SOL    HW285056   5.859   4.236   6.986
94387SOL     OW85057   4.159   7.675   5.527
94387SOL    HW185058   4.170   7.586   5.561
94387SOL    HW285059   4.179   7.732   5.602
94388SOL     OW85060  10.431  14.258   5.174
94388SOL    HW185061  10.433  14.247   5.269
94388SOL    HW285062  10.341  14.237   5.149
94389SOL     OW85063   3.458   4.675   8.591
94389SOL    HW185064   3.522   4.744   8.604
94389SOL    HW285065   3.375   4.714   8.618
94390SOL     OW85066   5.379   3.619   7.953
94390SOL    HW185067   5.285   3.632   7.969
94390SOL    HW285068   5.384   3.567   7.873
94391SOL     OW85069  13.881   0.435   2.049
94391SOL    HW185070  13.975   0.445   2.062
94391SOL    HW285071  13.849   0.404   2.134
94392SOL     OW85072  11.246   4.439  13.180
94392SOL    HW185073  11.294   4.480  13.253
94392SOL    HW285074  11.274   4.348  13.181
94393SOL     OW85075  12.826   0.253   9.677
94393SOL    HW185076  12.793   0.167   9.652
94393SOL    HW285077  12.785   0.314   9.616
94394SOL     OW85078   9.537   9.422  10.998
94394SOL    HW185079   9.614   9.476  10.980
94394SOL    HW285080   9.531   9.419  11.093
94395SOL     OW85081  10.998   3.927  11.978
94395SOL    HW185082  10.984   3.916  12.072
94395SOL    HW285083  11.083   3.888  11.962
94396SOL     OW85084  10.579  13.582  10.977
94396SOL    HW185085  10.549  13.651  11.036
94396SOL    HW285086  10.604  13.628  10.897
94397SOL     OW85087   0.405   2.796   9.044
94397SOL    HW185088   0.373   2.756   8.963
94397SOL    HW285089   0.393   2.890   9.030
94398SOL     OW85090  14.327  12.421   2.065
94398SOL    HW185091  14.342  12.512   2.042
94398SOL    HW285092  14.313  12.377   1.982
94399SOL     OW85093   3.843   5.664  11.882
94399SOL    HW185094   3.821   5.710  11.963
94399SOL    HW285095   3.902   5.723  11.836
94400SOL     OW85096   3.033   2.002   7.709
94400SOL    HW185097   3.014   1.916   7.748
94400SOL    HW285098   2.957   2.055   7.730
94401SOL     OW85099   6.726  14.276  13.064
94401SOL    HW185100   6.746  14.369  13.048
94401SOL    HW285101   6.753  14.261  13.154
94402SOL     OW85102   2.434  13.216   5.512
94402SOL    HW185103   2.442  13.311   5.508
94402SOL    HW285104   2.420  13.189   5.421
94403SOL     OW85105   4.507   2.068  14.612
94403SOL    HW185106   4.547   1.981  14.605
94403SOL    HW285107   4.545   2.104  14.692
94404SOL     OW85108  14.725   2.498  12.586
94404SOL    HW185109  14.756   2.411  12.561
94404SOL    HW285110  14.635   2.483  12.616
94405SOL     OW85111   5.881   2.447   7.322
94405SOL    HW185112   5.914   2.462   7.411
94405SOL    HW285113   5.859   2.535   7.290
94406SOL     OW85114   4.435   6.025   9.086
94406SOL    HW185115   4.455   5.993   8.999
94406SOL    HW285116   4.364   5.967   9.117
94407SOL     OW85117  11.053   7.886   9.899
94407SOL    HW185118  11.110   7.861   9.826
94407SOL    HW285119  11.053   7.982   9.898
94408SOL     OW85120   0.862  11.729   6.865
94408SOL    HW185121   0.853  11.796   6.797
94408SOL    HW285122   0.957  11.720   6.878
94409SOL     OW85123   4.026   2.522   4.237
94409SOL    HW185124   4.005   2.570   4.317
94409SOL    HW285125   4.073   2.444   4.268
94410SOL     OW85126   5.945  12.524  14.796
94410SOL    HW185127   5.893  12.605  14.792
94410SOL    HW285128   5.997  12.534   0.006
94411SOL     OW85129   3.674  10.392   4.722
94411SOL    HW185130   3.660  10.319   4.662
94411SOL    HW285131   3.610  10.378   4.792
94412SOL     OW85132   6.516   3.916   5.536
94412SOL    HW185133   6.520   4.011   5.525
94412SOL    HW285134   6.427   3.892   5.510
94413SOL     OW85135   9.702   4.871   1.409
94413SOL    HW185136   9.793   4.857   1.385
94413SOL    HW285137   9.693   4.827   1.494
94414SOL     OW85138  12.559  11.818   3.461
94414SOL    HW185139  12.517  11.741   3.500
94414SOL    HW285140  12.652  11.796   3.460
94415SOL     OW85141  10.248  12.584  12.320
94415SOL    HW185142  10.293  12.500  12.308
94415SOL    HW285143  10.157  12.560  12.337
94416SOL     OW85144   4.044   7.793   1.411
94416SOL    HW185145   3.953   7.798   1.380
94416SOL    HW285146   4.062   7.699   1.414
94417SOL     OW85147   7.436  10.909   8.981
94417SOL    HW185148   7.508  10.861   9.022
94417SOL    HW285149   7.450  10.897   8.887
94418SOL     OW85150   0.045  10.940   5.342
94418SOL    HW185151  14.865  10.876   5.290
94418SOL    HW285152   0.075  11.004   5.278
94419SOL     OW85153  10.820   4.267  12.466
94419SOL    HW185154  10.907   4.284  12.503
94419SOL    HW285155  10.761   4.267  12.541
94420SOL     OW85156   3.336   2.530   1.031
94420SOL    HW185157   3.291   2.445   1.027
94420SOL    HW285158   3.325   2.559   1.122
94421SOL     OW85159  11.188   1.802  11.139
94421SOL    HW185160  11.164   1.889  11.171
94421SOL    HW285161  11.125   1.743  11.181
94422SOL     OW85162   8.398  10.963   2.313
94422SOL    HW185163   8.401  11.043   2.364
94422SOL    HW285164   8.323  10.974   2.254
94423SOL     OW85165  10.414  14.609   9.675
94423SOL    HW185166  10.334  14.558   9.663
94423SOL    HW285167  10.483  14.543   9.680
94424SOL     OW85168  11.296  10.598   7.854
94424SOL    HW185169  11.326  10.567   7.939
94424SOL    HW285170  11.260  10.684   7.871
94425SOL     OW85171   4.297   2.826   9.187
94425SOL    HW185172   4.225   2.866   9.137
94425SOL    HW285173   4.349   2.780   9.121
94426SOL     OW85174   5.733   9.470   3.812
94426SOL    HW185175   5.791   9.535   3.852
94426SOL    HW285176   5.708   9.412   3.884
94427SOL     OW85177  12.248   3.069   5.320
94427SOL    HW185178  12.315   3.132   5.292
94427SOL    HW285179  12.192   3.060   5.243
94428SOL     OW85180  11.015   5.727   3.753
94428SOL    HW185181  11.071   5.803   3.736
94428SOL    HW285182  11.034   5.703   3.843
94429SOL     OW85183  11.813   9.678   6.908
94429SOL    HW185184  11.861   9.644   6.833
94429SOL    HW285185  11.741   9.728   6.870
94430SOL     OW85186   8.577  13.398   2.772
94430SOL    HW185187   8.553  13.325   2.830
94430SOL    HW285188   8.646  13.362   2.716
94431SOL     OW85189  14.549  10.138   9.427
94431SOL    HW185190  14.505  10.171   9.505
94431SOL    HW285191  14.508  10.053   9.410
94432SOL     OW85192  10.152   9.393  13.201
94432SOL    HW185193  10.088   9.322  13.196
94432SOL    HW285194  10.112   9.464  13.150
94433SOL     OW85195   6.048   3.395   3.744
94433SOL    HW185196   5.964   3.358   3.715
94433SOL    HW285197   6.110   3.367   3.677
94434SOL     OW85198   9.237   5.514  13.838
94434SOL    HW185199   9.283   5.497  13.920
94434SOL    HW285200   9.161   5.565  13.864
94435SOL     OW85201   1.900  11.120  11.432
94435SOL    HW185202   1.985  11.149  11.398
94435SOL    HW285203   1.914  11.029  11.457
94436SOL     OW85204   6.893   1.501  10.381
94436SOL    HW185205   6.799   1.508  10.399
94436SOL    HW285206   6.898   1.445  10.304
94437SOL     OW85207   1.532   1.109   8.792
94437SOL    HW185208   1.588   1.032   8.781
94437SOL    HW285209   1.575   1.176   8.739
94438SOL     OW85210  10.501   1.910   9.735
94438SOL    HW185211  10.523   1.994   9.694
94438SOL    HW285212  10.556   1.907   9.813
94439SOL     OW85213  14.426   6.654   7.963
94439SOL    HW185214  14.394   6.570   7.997
94439SOL    HW285215  14.456   6.701   8.041
94440SOL     OW85216  13.126   7.240  11.962
94440SOL    HW185217  13.205   7.187  11.952
94440SOL    HW285218  13.108   7.238  12.055
94441SOL     OW85219  10.274   5.818   9.518
94441SOL    HW185220  10.211   5.753   9.546
94441SOL    HW285221  10.297   5.866   9.598
94442SOL     OW85222   3.490  12.830   4.336
94442SOL    HW185223   3.407  12.784   4.321
94442SOL    HW285224   3.464  12.912   4.379
94443SOL     OW85225  10.180   7.037   7.209
94443SOL    HW185226  10.143   7.083   7.284
94443SOL    HW285227  10.250   7.093   7.178
94444SOL     OW85228   5.187   8.205  14.386
94444SOL    HW185229   5.158   8.188  14.475
94444SOL    HW285230   5.278   8.232  14.395
94445SOL     OW85231   5.849   3.623  14.097
94445SOL    HW185232   5.767   3.621  14.147
94445SOL    HW285233   5.902   3.690  14.141
94446SOL     OW85234   5.926   6.444   8.161
94446SOL    HW185235   5.911   6.437   8.255
94446SOL    HW285236   5.851   6.401   8.121
94447SOL     OW85237   1.370   4.814   2.435
94447SOL    HW185238   1.397   4.889   2.489
94447SOL    HW285239   1.330   4.753   2.497
94448SOL     OW85240   1.441  13.328  12.828
94448SOL    HW185241   1.519  13.273  12.820
94448SOL    HW285242   1.436  13.375  12.745
94449SOL     OW85243   6.367   6.070  10.915
94449SOL    HW185244   6.453   6.112  10.927
94449SOL    HW285245   6.371   6.030  10.829
94450SOL     OW85246   4.046   6.315  10.939
94450SOL    HW185247   4.089   6.260  10.873
94450SOL    HW285248   4.039   6.258  11.016
94451SOL     OW85249   3.496   3.329  10.252
94451SOL    HW185250   3.561   3.398  10.262
94451SOL    HW285251   3.483   3.295  10.341
94452SOL     OW85252   3.470  13.397   2.144
94452SOL    HW185253   3.492  13.338   2.072
94452SOL    HW285254   3.375  13.404   2.142
94453SOL     OW85255  12.088   9.665   7.282
94453SOL    HW185256  12.152   9.715   7.231
94453SOL    HW285257  12.065   9.722   7.355
94454SOL     OW85258   0.876   3.923  13.712
94454SOL    HW185259   0.895   4.008  13.753
94454SOL    HW285260   0.942   3.864  13.748
94455SOL     OW85261  12.343  12.856   7.681
94455SOL    HW185262  12.387  12.890   7.759
94455SOL    HW285263  12.368  12.917   7.611
94456SOL     OW85264   9.329   6.303  11.102
94456SOL    HW185265   9.278   6.261  11.032
94456SOL    HW285266   9.396   6.239  11.125
94457SOL     OW85267  10.541   5.608  12.479
94457SOL    HW185268  10.464   5.604  12.535
94457SOL    HW285269  10.524   5.680  12.419
94458SOL     OW85270  12.549   8.393   7.892
94458SOL    HW185271  12.617   8.364   7.952
94458SOL    HW285272  12.475   8.415   7.948
94459SOL     OW85273   3.811   6.276  12.902
94459SOL    HW185274   3.718   6.271  12.880
94459SOL    HW285275   3.849   6.197  12.866
94460SOL     OW85276   2.114   7.419  14.468
94460SOL    HW185277   2.064   7.338  14.460
94460SOL    HW285278   2.188   7.408  14.408
94461SOL     OW85279   7.644   3.989   2.459
94461SOL    HW185280   7.590   4.047   2.514
94461SOL    HW285281   7.629   3.902   2.495
94462SOL     OW85282   1.885   5.401  11.611
94462SOL    HW185283   1.930   5.437  11.534
94462SOL    HW285284   1.836   5.474  11.647
94463SOL     OW85285   9.718  11.045   1.351
94463SOL    HW185286   9.746  10.981   1.417
94463SOL    HW285287   9.642  11.005   1.309
94464SOL     OW85288  13.494  11.403  14.267
94464SOL    HW185289  13.531  11.457  14.199
94464SOL    HW285290  13.559  11.334  14.282
94465SOL     OW85291   3.117   6.028  14.703
94465SOL    HW185292   3.185   6.050  14.766
94465SOL    HW285293   3.157   6.042  14.617
94466SOL     OW85294  10.664  12.889   4.055
94466SOL    HW185295  10.676  12.981   4.032
94466SOL    HW285296  10.744  12.865   4.102
94467SOL     OW85297   7.037  14.524  11.062
94467SOL    HW185298   7.077  14.453  11.112
94467SOL    HW285299   7.102  14.545  10.995
94468SOL     OW85300   7.588   5.779  10.154
94468SOL    HW185301   7.679   5.781  10.181
94468SOL    HW285302   7.588   5.807  10.063
94469SOL     OW85303   9.855   3.973   5.117
94469SOL    HW185304   9.893   3.893   5.080
94469SOL    HW285305   9.761   3.965   5.101
94470SOL     OW85306   3.990   9.274  12.073
94470SOL    HW185307   3.975   9.196  12.021
94470SOL    HW285308   3.913   9.328  12.058
94471SOL     OW85309  11.227   1.959  14.676
94471SOL    HW185310  11.157   1.931  14.617
94471SOL    HW285311  11.186   2.024  14.733
94472SOL     OW85312  10.686  11.397   6.421
94472SOL    HW185313  10.625  11.454   6.375
94472SOL    HW285314  10.770  11.413   6.377
94473SOL     OW85315   8.007   5.133  14.289
94473SOL    HW185316   8.097   5.151  14.261
94473SOL    HW285317   7.954   5.155  14.212
94474SOL     OW85318   8.773   0.988   9.856
94474SOL    HW185319   8.838   1.057   9.847
94474SOL    HW285320   8.689   1.033   9.855
94475SOL     OW85321  13.953  12.516   5.157
94475SOL    HW185322  14.033  12.525   5.209
94475SOL    HW285323  13.920  12.605   5.149
94476SOL     OW85324   6.530   2.170  13.545
94476SOL    HW185325   6.450   2.222  13.532
94476SOL    HW285326   6.517   2.092  13.492
94477SOL     OW85327  14.036  11.878   7.813
94477SOL    HW185328  13.946  11.890   7.843
94477SOL    HW285329  14.090  11.910   7.885
94478SOL     OW85330   8.763   8.807   7.399
94478SOL    HW185331   8.772   8.857   7.480
94478SOL    HW285332   8.688   8.750   7.414
94479SOL     OW85333   7.885  14.210   4.412
94479SOL    HW185334   7.956  14.153   4.443
94479SOL    HW285335   7.856  14.170   4.330
94480SOL     OW85336   1.735  12.059  13.480
94480SOL    HW185337   1.773  12.138  13.519
94480SOL    HW285338   1.811  12.002  13.466
94481SOL     OW85339   8.315   5.930   5.400
94481SOL    HW185340   8.321   5.948   5.494
94481SOL    HW285341   8.258   5.854   5.394
94482SOL     OW85342   6.561   8.998   9.628
94482SOL    HW185343   6.648   8.977   9.663
94482SOL    HW285344   6.577   9.023   9.537
94483SOL     OW85345   3.471  14.789   0.077
94483SOL    HW185346   3.393  14.825   0.119
94483SOL    HW285347   3.541  14.849   0.103
94484SOL     OW85348   3.615  10.733   2.659
94484SOL    HW185349   3.560  10.806   2.687
94484SOL    HW285350   3.651  10.761   2.575
94485SOL     OW85351   6.146   4.441  12.246
94485SOL    HW185352   6.146   4.384  12.323
94485SOL    HW285353   6.218   4.408  12.192
94486SOL     OW85354   3.408   9.605   3.447
94486SOL    HW185355   3.464   9.682   3.449
94486SOL    HW285356   3.320   9.639   3.429
94487SOL     OW85357  13.202   0.760  12.809
94487SOL    HW185358  13.181   0.667  12.820
94487SOL    HW285359  13.297   0.765  12.817
94488SOL     OW85360  14.585   3.319   2.039
94488SOL    HW185361  14.495   3.333   2.010
94488SOL    HW285362  14.638   3.339   1.962
94489SOL     OW85363  13.237  12.255   5.554
94489SOL    HW185364  13.315  12.257   5.609
94489SOL    HW285365  13.268  12.225   5.469
94490SOL     OW85366   3.680   5.528  14.647
94490SOL    HW185367   3.586   5.519  14.628
94490SOL    HW285368   3.724   5.480  14.577
94491SOL     OW85369  11.461   4.323   1.838
94491SOL    HW185370  11.507   4.399   1.800
94491SOL    HW285371  11.531   4.268   1.873
94492SOL     OW85372   7.448   3.822   1.936
94492SOL    HW185373   7.481   3.901   1.895
94492SOL    HW285374   7.506   3.808   2.012
94493SOL     OW85375   8.538  13.752   6.976
94493SOL    HW185376   8.580  13.682   7.024
94493SOL    HW285377   8.587  13.758   6.894
94494SOL     OW85378  13.508   0.181   9.647
94494SOL    HW185379  13.435   0.175   9.585
94494SOL    HW285380  13.585   0.193   9.592
94495SOL     OW85381   8.642  14.088   2.088
94495SOL    HW185382   8.723  14.125   2.053
94495SOL    HW285383   8.572  14.138   2.045
94496SOL     OW85384  10.692   0.110  11.551
94496SOL    HW185385  10.771   0.092  11.602
94496SOL    HW285386  10.680   0.205  11.556
94497SOL     OW85387  14.735   4.386   6.891
94497SOL    HW185388  14.693   4.469   6.916
94497SOL    HW285389  14.663   4.325   6.881
94498SOL     OW85390   8.089  12.238   7.389
94498SOL    HW185391   8.106  12.144   7.374
94498SOL    HW285392   8.088  12.276   7.301
94499SOL     OW85393   2.517  12.657   3.229
94499SOL    HW185394   2.552  12.579   3.186
94499SOL    HW285395   2.480  12.625   3.311
94500SOL     OW85396   6.948   6.526  13.083
94500SOL    HW185397   6.992   6.587  13.142
94500SOL    HW285398   6.987   6.543  12.997
94501SOL     OW85399  14.823  10.356   0.434
94501SOL    HW185400  14.779  10.413   0.372
94501SOL    HW285401   0.021  10.311   0.383
94502SOL     OW85402   3.869   5.118   6.276
94502SOL    HW185403   3.818   5.051   6.231
94502SOL    HW285404   3.902   5.074   6.354
94503SOL     OW85405   5.196  10.014  13.715
94503SOL    HW185406   5.217   9.938  13.661
94503SOL    HW285407   5.145  10.071  13.657
94504SOL     OW85408  13.962   9.632   4.138
94504SOL    HW185409  13.882   9.661   4.181
94504SOL    HW285410  13.973   9.541   4.165
94505SOL     OW85411   1.743  13.129   4.223
94505SOL    HW185412   1.795  13.083   4.158
94505SOL    HW285413   1.768  13.090   4.307
94506SOL     OW85414   1.331  10.775  12.679
94506SOL    HW185415   1.307  10.805  12.767
94506SOL    HW285416   1.426  10.776  12.678
94507SOL     OW85417   4.619  13.492   8.525
94507SOL    HW185418   4.588  13.488   8.615
94507SOL    HW285419   4.544  13.527   8.475
94508SOL     OW85420  12.048   2.911   0.464
94508SOL    HW185421  12.083   2.988   0.419
94508SOL    HW285422  12.118   2.846   0.459
94509SOL     OW85423   8.266  10.386   5.306
94509SOL    HW185424   8.174  10.372   5.327
94509SOL    HW285425   8.271  10.479   5.283
94510SOL     OW85426   2.092   7.656   5.155
94510SOL    HW185427   2.001   7.675   5.130
94510SOL    HW285428   2.086   7.579   5.211
94511SOL     OW85429   5.103  13.695  13.655
94511SOL    HW185430   5.033  13.749  13.621
94511SOL    HW285431   5.165  13.687  13.583
94512SOL     OW85432  11.154   4.414   2.684
94512SOL    HW185433  11.206   4.466   2.622
94512SOL    HW285434  11.114   4.346   2.630
94513SOL     OW85435   0.082   5.349  12.920
94513SOL    HW185436   0.038   5.265  12.912
94513SOL    HW285437   0.145   5.350  12.848
94514SOL     OW85438   6.854   3.066   9.109
94514SOL    HW185439   6.804   3.042   9.031
94514SOL    HW285440   6.915   3.133   9.080
94515SOL     OW85441  11.420   8.709   6.368
94515SOL    HW185442  11.431   8.614   6.373
94515SOL    HW285443  11.477   8.744   6.436
94516SOL     OW85444   6.437  12.019   0.010
94516SOL    HW185445   6.527  12.044   0.029
94516SOL    HW285446   6.394  12.101  14.855
94517SOL     OW85447  13.919   9.337  14.584
94517SOL    HW185448  14.000   9.387  14.572
94517SOL    HW285449  13.885   9.366  14.668
94518SOL     OW85450   3.587   4.441   4.741
94518SOL    HW185451   3.622   4.353   4.734
94518SOL    HW285452   3.531   4.452   4.664
94519SOL     OW85453  10.569   2.617  11.264
94519SOL    HW185454  10.660   2.641  11.246
94519SOL    HW285455  10.527   2.699  11.291
94520SOL     OW85456  11.124   4.992   4.405
94520SOL    HW185457  11.050   4.949   4.447
94520SOL    HW285458  11.200   4.968   4.460
94521SOL     OW85459  14.031   6.501   6.202
94521SOL    HW185460  13.953   6.555   6.211
94521SOL    HW285461  14.028   6.441   6.276
94522SOL     OW85462   2.215   3.233  14.274
94522SOL    HW185463   2.269   3.156  14.261
94522SOL    HW285464   2.245   3.296  14.209
94523SOL     OW85465  13.597   2.248   4.312
94523SOL    HW185466  13.571   2.309   4.243
94523SOL    HW285467  13.628   2.170   4.265
94524SOL     OW85468   8.047  14.347   6.591
94524SOL    HW185469   7.995  14.303   6.658
94524SOL    HW285470   7.995  14.338   6.511
94525SOL     OW85471  11.839   3.123  10.158
94525SOL    HW185472  11.773   3.148  10.222
94525SOL    HW285473  11.838   3.194  10.094
94526SOL     OW85474   1.473   8.822   6.421
94526SOL    HW185475   1.532   8.833   6.496
94526SOL    HW285476   1.486   8.902   6.370
94527SOL     OW85477   2.020  12.455   0.734
94527SOL    HW185478   2.108  12.474   0.701
94527SOL    HW285479   2.006  12.362   0.714
94528SOL     OW85480   2.664   0.002   5.258
94528SOL    HW185481   2.613   0.083   5.265
94528SOL    HW285482   2.689  14.850   5.348
94529SOL     OW85483   1.049   8.520  14.699
94529SOL    HW185484   0.979   8.486  14.643
94529SOL    HW285485   1.123   8.461  14.685
94530SOL     OW85486   6.190  10.546   7.601
94530SOL    HW185487   6.192  10.452   7.585
94530SOL    HW285488   6.205  10.555   7.695
94531SOL     OW85489   7.644   2.287   2.924
94531SOL    HW185490   7.683   2.370   2.898
94531SOL    HW285491   7.690   2.222   2.870
94532SOL     OW85492  14.449   1.661   3.940
94532SOL    HW185493  14.373   1.660   3.998
94532SOL    HW285494  14.415   1.636   3.854
94533SOL     OW85495  10.781   4.592  12.992
94533SOL    HW185496  10.787   4.552  13.079
94533SOL    HW285497  10.769   4.519  12.932
94534SOL     OW85498   5.528  12.242   8.231
94534SOL    HW185499   5.603  12.292   8.197
94534SOL    HW285500   5.451  12.293   8.206
94535SOL     OW85501   6.910   2.859  10.162
94535SOL    HW185502   6.968   2.907  10.102
94535SOL    HW285503   6.921   2.767  10.137
94536SOL     OW85504  13.444   8.751   2.381
94536SOL    HW185505  13.365   8.709   2.415
94536SOL    HW285506  13.412   8.809   2.311
94537SOL     OW85507   8.744  10.279   5.396
94537SOL    HW185508   8.765  10.307   5.307
94537SOL    HW285509   8.654  10.309   5.410
94538SOL     OW85510   7.564  14.485   1.372
94538SOL    HW185511   7.625  14.550   1.337
94538SOL    HW285512   7.512  14.458   1.297
94539SOL     OW85513  13.085   6.298  13.900
94539SOL    HW185514  13.118   6.388  13.911
94539SOL    HW285515  13.074   6.266  13.990
94540SOL     OW85516   7.374   6.078   7.297
94540SOL    HW185517   7.402   6.137   7.368
94540SOL    HW285518   7.325   6.134   7.237
94541SOL     OW85519  11.104   6.180   7.388
94541SOL    HW185520  11.055   6.259   7.411
94541SOL    HW285521  11.138   6.148   7.471
94542SOL     OW85522   6.415   0.441   8.128
94542SOL    HW185523   6.484   0.396   8.078
94542SOL    HW285524   6.459   0.517   8.166
94543SOL     OW85525   5.893   6.778   1.628
94543SOL    HW185526   5.917   6.871   1.630
94543SOL    HW285527   5.909   6.748   1.717
94544SOL     OW85528   8.114   1.517   0.408
94544SOL    HW185529   8.076   1.605   0.399
94544SOL    HW285530   8.146   1.495   0.321
94545SOL     OW85531   5.302   3.093   1.588
94545SOL    HW185532   5.348   3.176   1.582
94545SOL    HW285533   5.316   3.064   1.678
94546SOL     OW85534   1.373   6.666  13.834
94546SOL    HW185535   1.278   6.664  13.845
94546SOL    HW285536   1.387   6.648  13.741
94547SOL     OW85537   3.643   6.350  11.294
94547SOL    HW185538   3.647   6.407  11.371
94547SOL    HW285539   3.608   6.407  11.225
94548SOL     OW85540   2.341  14.747  10.291
94548SOL    HW185541   2.333  14.675  10.353
94548SOL    HW285542   2.340  14.826  10.346
94549SOL     OW85543   2.113   9.938   7.605
94549SOL    HW185544   2.059   9.876   7.555
94549SOL    HW285545   2.172   9.882   7.656
94550SOL     OW85546   2.458   4.166  12.254
94550SOL    HW185547   2.370   4.136  12.232
94550SOL    HW285548   2.457   4.260  12.238
94551SOL     OW85549   2.716   4.997   2.461
94551SOL    HW185550   2.791   5.025   2.409
94551SOL    HW285551   2.746   4.920   2.508
94552SOL     OW85552   7.001  12.922   2.372
94552SOL    HW185553   6.978  12.983   2.303
94552SOL    HW285554   6.938  12.939   2.442
94553SOL     OW85555   1.023   0.310   8.961
94553SOL    HW185556   0.949   0.364   8.934
94553SOL    HW285557   1.069   0.290   8.879
94554SOL     OW85558  13.203   9.225   3.244
94554SOL    HW185559  13.144   9.265   3.180
94554SOL    HW285560  13.179   9.133   3.246
94555SOL     OW85561   0.118   8.262   9.282
94555SOL    HW185562   0.120   8.279   9.376
94555SOL    HW285563   0.034   8.299   9.254
94556SOL     OW85564   1.113  12.671   1.938
94556SOL    HW185565   1.145  12.607   2.002
94556SOL    HW285566   1.156  12.647   1.856
94557SOL     OW85567   7.645  11.239   9.246
94557SOL    HW185568   7.577  11.171   9.249
94557SOL    HW285569   7.724  11.194   9.276
94558SOL     OW85570   4.087  14.517  12.422
94558SOL    HW185571   4.171  14.513  12.376
94558SOL    HW285572   4.074  14.609  12.440
94559SOL     OW85573  13.283  11.914  10.019
94559SOL    HW185574  13.246  11.970  10.087
94559SOL    HW285575  13.220  11.843  10.009
94560SOL     OW85576   7.916  11.860  13.811
94560SOL    HW185577   7.970  11.782  13.803
94560SOL    HW285578   7.826  11.828  13.816
94561SOL     OW85579   7.743   4.871  11.621
94561SOL    HW185580   7.823   4.858  11.672
94561SOL    HW285581   7.770   4.923  11.546
94562SOL     OW85582   4.874   8.277  11.776
94562SOL    HW185583   4.793   8.245  11.737
94562SOL    HW285584   4.913   8.334  11.709
94563SOL     OW85585   9.621   2.118   8.475
94563SOL    HW185586   9.652   2.040   8.519
94563SOL    HW285587   9.679   2.188   8.506
94564SOL     OW85588  10.978   1.748   5.996
94564SOL    HW185589  10.970   1.654   6.009
94564SOL    HW285590  10.958   1.761   5.903
94565SOL     OW85591   7.702  13.342   7.797
94565SOL    HW185592   7.650  13.419   7.772
94565SOL    HW285593   7.678  13.275   7.732
94566SOL     OW85594   8.864  11.314  12.724
94566SOL    HW185595   8.843  11.323  12.817
94566SOL    HW285596   8.960  11.316  12.721
94567SOL     OW85597   1.296   6.507   7.032
94567SOL    HW185598   1.315   6.414   7.036
94567SOL    HW285599   1.255   6.520   6.946
94568SOL     OW85600   2.896   6.924  13.687
94568SOL    HW185601   2.964   6.941  13.622
94568SOL    HW285602   2.928   6.966  13.767
94569SOL     OW85603  13.781  10.466   0.211
94569SOL    HW185604  13.813  10.483   0.300
94569SOL    HW285605  13.860  10.466   0.157
94570SOL     OW85606   1.339   5.186  13.521
94570SOL    HW185607   1.389   5.236  13.586
94570SOL    HW285608   1.257   5.235  13.511
94571SOL     OW85609   6.341   7.464   5.119
94571SOL    HW185610   6.405   7.476   5.049
94571SOL    HW285611   6.394   7.460   5.199
94572SOL     OW85612   7.316   8.318  13.634
94572SOL    HW185613   7.320   8.398  13.582
94572SOL    HW285614   7.354   8.343  13.719
94573SOL     OW85615   3.416   1.029   0.212
94573SOL    HW185616   3.422   1.067   0.124
94573SOL    HW285617   3.487   1.071   0.261
94574SOL     OW85618  11.263   7.503   8.542
94574SOL    HW185619  11.176   7.541   8.546
94574SOL    HW285620  11.300   7.518   8.630
94575SOL     OW85621   2.081  13.393   4.567
94575SOL    HW185622   2.111  13.475   4.606
94575SOL    HW285623   2.037  13.347   4.638
94576SOL     OW85624   3.568   4.294  12.876
94576SOL    HW185625   3.566   4.389  12.874
94576SOL    HW285626   3.653   4.273  12.915
94577SOL     OW85627   3.902  12.763   0.019
94577SOL    HW185628   3.840  12.700   0.058
94577SOL    HW285629   3.982  12.712   0.005
94578SOL     OW85630   4.984   5.874  13.547
94578SOL    HW185631   5.024   5.948  13.592
94578SOL    HW285632   4.900   5.862  13.591
94579SOL     OW85633  11.657  10.358  12.250
94579SOL    HW185634  11.719  10.284  12.247
94579SOL    HW285635  11.673  10.405  12.169
94580SOL     OW85636   6.608   0.117   1.848
94580SOL    HW185637   6.645   0.157   1.769
94580SOL    HW285638   6.579   0.191   1.901
94581SOL     OW85639   2.786  12.659   9.748
94581SOL    HW185640   2.881  12.670   9.739
94581SOL    HW285641   2.775  12.613   9.832
94582SOL     OW85642   5.751   1.929   4.717
94582SOL    HW185643   5.744   1.885   4.802
94582SOL    HW285644   5.684   1.888   4.663
94583SOL     OW85645   2.421   1.413   2.572
94583SOL    HW185646   2.376   1.354   2.633
94583SOL    HW285647   2.356   1.481   2.552
94584SOL     OW85648  14.112  14.806   7.842
94584SOL    HW185649  14.044  14.746   7.874
94584SOL    HW285650  14.098   0.017   7.891
94585SOL     OW85651  10.468  13.619   1.224
94585SOL    HW185652  10.469  13.568   1.143
94585SOL    HW285653  10.376  13.624   1.248
94586SOL     OW85654   4.421   9.817  10.895
94586SOL    HW185655   4.430   9.863  10.978
94586SOL    HW285656   4.507   9.824  10.854
94587SOL     OW85657  11.606  12.189  14.631
94587SOL    HW185658  11.542  12.250  14.668
94587SOL    HW285659  11.584  12.104  14.670
94588SOL     OW85660   4.664   0.940   3.517
94588SOL    HW185661   4.581   0.988   3.517
94588SOL    HW285662   4.731   1.008   3.512
94589SOL     OW85663   0.986   9.686   7.593
94589SOL    HW185664   0.942   9.721   7.515
94589SOL    HW285665   1.007   9.764   7.644
94590SOL     OW85666  13.089   0.993  10.988
94590SOL    HW185667  13.035   1.072  10.982
94590SOL    HW285668  13.178   1.026  10.996
94591SOL     OW85669   2.350  14.227  10.101
94591SOL    HW185670   2.411  14.233  10.175
94591SOL    HW285671   2.397  14.176  10.036
94592SOL     OW85672   2.185   0.215   3.994
94592SOL    HW185673   2.134   0.171   3.926
94592SOL    HW285674   2.267   0.240   3.951
94593SOL     OW85675   7.959  10.467  11.523
94593SOL    HW185676   7.911  10.385  11.513
94593SOL    HW285677   7.893  10.536  11.513
94594SOL     OW85678   3.513   3.213   7.031
94594SOL    HW185679   3.596   3.261   7.029
94594SOL    HW285680   3.450   3.272   6.990
94595SOL     OW85681   2.638   0.457   7.433
94595SOL    HW185682   2.571   0.459   7.502
94595SOL    HW285683   2.688   0.377   7.451
94596SOL     OW85684  12.033   1.958   9.481
94596SOL    HW185685  12.009   2.044   9.516
94596SOL    HW285686  12.043   1.972   9.387
94597SOL     OW85687   2.031   8.962  11.664
94597SOL    HW185688   2.014   8.877  11.704
94597SOL    HW285689   1.946   8.992  11.633
94598SOL     OW85690   6.981   4.125  12.403
94598SOL    HW185691   6.928   4.202  12.425
94598SOL    HW285692   7.065   4.161  12.374
94599SOL     OW85693   5.344  10.706  10.882
94599SOL    HW185694   5.308  10.782  10.837
94599SOL    HW285695   5.323  10.632  10.825
94600SOL     OW85696  14.165   0.973   7.047
94600SOL    HW185697  14.099   0.908   7.024
94600SOL    HW285698  14.118   1.036   7.102
94601SOL     OW85699  13.829   0.702   8.800
94601SOL    HW185700  13.772   0.744   8.864
94601SOL    HW285701  13.816   0.608   8.816
94602SOL     OW85702   0.573  10.244   7.483
94602SOL    HW185703   0.526  10.162   7.496
94602SOL    HW285704   0.527  10.307   7.539
94603SOL     OW85705   2.307   3.392  14.740
94603SOL    HW185706   2.383   3.430  14.783
94603SOL    HW285707   2.312   3.425  14.650
94604SOL     OW85708   6.711   7.821  11.493
94604SOL    HW185709   6.619   7.841  11.475
94604SOL    HW285710   6.730   7.863  11.576
94605SOL     OW85711   1.429   9.892   8.042
94605SOL    HW185712   1.459   9.803   8.022
94605SOL    HW285713   1.509   9.943   8.048
94606SOL     OW85714   5.441  13.612   5.031
94606SOL    HW185715   5.351  13.579   5.037
94606SOL    HW285716   5.494  13.533   5.015
94607SOL     OW85717  12.565   4.913   3.438
94607SOL    HW185718  12.593   4.979   3.376
94607SOL    HW285719  12.527   4.963   3.511
94608SOL     OW85720  11.351   3.786  12.837
94608SOL    HW185721  11.320   3.719  12.898
94608SOL    HW285722  11.341   3.747  12.750
94609SOL     OW85723  10.796  11.256  11.860
94609SOL    HW185724  10.838  11.342  11.863
94609SOL    HW285725  10.833  11.208  11.934
94610SOL     OW85726   4.444  14.725  11.955
94610SOL    HW185727   4.393  14.658  11.910
94610SOL    HW285728   4.514  14.677  12.000
94611SOL     OW85729   9.983  10.485  14.829
94611SOL    HW185730   9.981  10.389  14.823
94611SOL    HW285731  10.034  10.502   0.039
94612SOL     OW85732   8.561  14.375  10.327
94612SOL    HW185733   8.631  14.350  10.388
94612SOL    HW285734   8.497  14.420  10.382
94613SOL     OW85735   0.518  14.238   8.702
94613SOL    HW185736   0.587  14.180   8.670
94613SOL    HW285737   0.551  14.270   8.786
94614SOL     OW85738   7.449   8.269   1.747
94614SOL    HW185739   7.482   8.208   1.813
94614SOL    HW285740   7.469   8.227   1.664
94615SOL     OW85741   0.445   5.415  12.941
94615SOL    HW185742   0.428   5.404  13.034
94615SOL    HW285743   0.507   5.487  12.936
94616SOL     OW85744   8.830  13.428   7.330
94616SOL    HW185745   8.893  13.365   7.294
94616SOL    HW285746   8.872  13.464   7.407
94617SOL     OW85747   7.125   6.853  14.147
94617SOL    HW185748   7.169   6.780  14.190
94617SOL    HW285749   7.145   6.842  14.054
94618SOL     OW85750   1.532  14.581  13.910
94618SOL    HW185751   1.486  14.498  13.924
94618SOL    HW285752   1.609  14.576  13.967
94619SOL     OW85753   4.346   5.716   2.689
94619SOL    HW185754   4.326   5.684   2.777
94619SOL    HW285755   4.404   5.650   2.652
94620SOL     OW85756  12.512  13.475   2.054
94620SOL    HW185757  12.471  13.557   2.029
94620SOL    HW285758  12.513  13.423   1.974
94621SOL     OW85759   2.796   0.669  12.382
94621SOL    HW185760   2.783   0.633  12.295
94621SOL    HW285761   2.891   0.665  12.397
94622SOL     OW85762   7.478   9.205   9.066
94622SOL    HW185763   7.556   9.227   9.016
94622SOL    HW285764   7.476   9.269   9.137
94623SOL     OW85765   6.753  12.904   7.854
94623SOL    HW185766   6.684  12.970   7.844
94623SOL    HW285767   6.830  12.943   7.811
94624SOL     OW85768   8.627   2.407   9.270
94624SOL    HW185769   8.592   2.398   9.181
94624SOL    HW285770   8.572   2.473   9.311
94625SOL     OW85771   4.736  10.040   4.921
94625SOL    HW185772   4.719  10.127   4.885
94625SOL    HW285773   4.743  10.053   5.015
94626SOL     OW85774   8.641  10.062   5.099
94626SOL    HW185775   8.683   9.986   5.059
94626SOL    HW285776   8.559  10.072   5.051
94627SOL     OW85777   3.698   0.425   7.954
94627SOL    HW185778   3.661   0.513   7.959
94627SOL    HW285779   3.670   0.393   7.868
94628SOL     OW85780  11.580   6.182   3.131
94628SOL    HW185781  11.503   6.170   3.187
94628SOL    HW285782  11.568   6.119   3.060
94629SOL     OW85783   8.469  11.117   1.009
94629SOL    HW185784   8.428  11.055   0.949
94629SOL    HW285785   8.476  11.198   0.958
94630SOL     OW85786   1.262   6.050  10.302
94630SOL    HW185787   1.294   6.092  10.381
94630SOL    HW285788   1.175   6.018  10.325
94631SOL     OW85789   5.595  12.765   7.565
94631SOL    HW185790   5.680  12.808   7.578
94631SOL    HW285791   5.609  12.710   7.488
94632SOL     OW85792  10.207   3.690   6.462
94632SOL    HW185793  10.188   3.769   6.511
94632SOL    HW285794  10.295   3.664   6.490
94633SOL     OW85795   6.749  14.442   0.370
94633SOL    HW185796   6.679  14.493   0.329
94633SOL    HW285797   6.753  14.475   0.460
94634SOL     OW85798  14.118  11.418   0.863
94634SOL    HW185799  14.083  11.383   0.781
94634SOL    HW285800  14.040  11.446   0.912
94635SOL     OW85801   4.517   3.842   2.977
94635SOL    HW185802   4.594   3.800   2.938
94635SOL    HW285803   4.534   3.936   2.968
94636SOL     OW85804   8.199   7.804   2.984
94636SOL    HW185805   8.255   7.750   3.040
94636SOL    HW285806   8.145   7.854   3.046
94637SOL     OW85807  13.387   9.439  13.308
94637SOL    HW185808  13.409   9.411  13.219
94637SOL    HW285809  13.471   9.441  13.354
94638SOL     OW85810   8.260   5.751  12.381
94638SOL    HW185811   8.245   5.773  12.289
94638SOL    HW285812   8.337   5.803  12.405
94639SOL     OW85813   0.608   1.387   5.701
94639SOL    HW185814   0.701   1.408   5.706
94639SOL    HW285815   0.606   1.293   5.680
94640SOL     OW85816  10.215  11.451   4.030
94640SOL    HW185817  10.128  11.413   4.021
94640SOL    HW285818  10.256  11.435   3.945
94641SOL     OW85819   0.162   3.530  11.757
94641SOL    HW185820   0.174   3.614  11.802
94641SOL    HW285821   0.071   3.506  11.774
94642SOL     OW85822  13.091  10.822  14.690
94642SOL    HW185823  13.167  10.766  14.675
94642SOL    HW285824  13.127  10.911  14.694
94643SOL     OW85825   9.845  13.723  12.837
94643SOL    HW185826   9.880  13.634  12.847
94643SOL    HW285827   9.920  13.775  12.808
94644SOL     OW85828   2.507  13.178   1.173
94644SOL    HW185829   2.518  13.128   1.253
94644SOL    HW285830   2.586  13.161   1.122
94645SOL     OW85831  11.542   8.092   1.414
94645SOL    HW185832  11.484   8.168   1.426
94645SOL    HW285833  11.616   8.126   1.364
94646SOL     OW85834   6.049  12.070  11.604
94646SOL    HW185835   6.021  12.112  11.686
94646SOL    HW285836   6.122  12.124  11.574
94647SOL     OW85837  10.059   1.439   9.004
94647SOL    HW185838  10.006   1.360   8.994
94647SOL    HW285839  10.113   1.421   9.081
94648SOL     OW85840   1.835   5.504  13.813
94648SOL    HW185841   1.907   5.551  13.855
94648SOL    HW285842   1.771   5.572  13.791
94649SOL     OW85843   7.291   1.189   2.578
94649SOL    HW185844   7.358   1.137   2.624
94649SOL    HW285845   7.208   1.155   2.611
94650SOL     OW85846  14.185  13.380   9.284
94650SOL    HW185847  14.278  13.404   9.277
94650SOL    HW285848  14.143  13.458   9.319
94651SOL     OW85849  14.232   2.670   4.459
94651SOL    HW185850  14.144   2.705   4.463
94651SOL    HW285851  14.274   2.700   4.540
94652SOL     OW85852   9.564   3.593  14.236
94652SOL    HW185853   9.618   3.662  14.197
94652SOL    HW285854   9.534   3.542  14.161
94653SOL     OW85855   2.837   5.168   8.234
94653SOL    HW185856   2.826   5.173   8.139
94653SOL    HW285857   2.852   5.258   8.261
94654SOL     OW85858  12.589  10.192  12.174
94654SOL    HW185859  12.558  10.205  12.263
94654SOL    HW285860  12.512  10.204  12.119
94655SOL     OW85861  11.298   5.055  12.237
94655SOL    HW185862  11.282   5.141  12.198
94655SOL    HW285863  11.222   5.039  12.292
94656SOL     OW85864  13.299   8.805  12.290
94656SOL    HW185865  13.241   8.859  12.344
94656SOL    HW285866  13.376   8.790  12.344
94657SOL     OW85867   5.199   6.894   8.953
94657SOL    HW185868   5.233   6.807   8.973
94657SOL    HW285869   5.275   6.951   8.959
94658SOL     OW85870   4.016   5.599   3.334
94658SOL    HW185871   4.068   5.670   3.296
94658SOL    HW285872   4.066   5.572   3.412
94659SOL     OW85873   7.425   8.554   9.452
94659SOL    HW185874   7.410   8.469   9.412
94659SOL    HW285875   7.513   8.579   9.422
94660SOL     OW85876   1.042   6.838  14.516
94660SOL    HW185877   1.134   6.820  14.537
94660SOL    HW285878   1.045   6.895  14.439
94661SOL     OW85879  14.663  12.525   5.527
94661SOL    HW185880  14.637  12.604   5.576
94661SOL    HW285881  14.726  12.482   5.584
94662SOL     OW85882   2.881  11.921  10.513
94662SOL    HW185883   2.819  11.969  10.569
94662SOL    HW285884   2.855  11.829  10.522
94663SOL     OW85885   2.049   1.132  11.510
94663SOL    HW185886   2.017   1.075  11.580
94663SOL    HW285887   1.972   1.145  11.454
94664SOL     OW85888  10.369   7.164   3.507
94664SOL    HW185889  10.427   7.100   3.548
94664SOL    HW285890  10.335   7.119   3.430
94665SOL     OW85891   1.611  10.809   4.493
94665SOL    HW185892   1.657  10.875   4.545
94665SOL    HW285893   1.551  10.859   4.438
94666SOL     OW85894  14.572  14.755   4.506
94666SOL    HW185895  14.508  14.802   4.560
94666SOL    HW285896  14.634  14.719   4.569
94667SOL     OW85897   3.943   6.117   1.300
94667SOL    HW185898   3.999   6.078   1.234
94667SOL    HW285899   3.856   6.120   1.259
94668SOL     OW85900   0.738   7.467   8.216
94668SOL    HW185901   0.758   7.559   8.201
94668SOL    HW285902   0.823   7.427   8.237
94669SOL     OW85903   6.838   0.642   2.282
94669SOL    HW185904   6.914   0.677   2.329
94669SOL    HW285905   6.774   0.624   2.351
94670SOL     OW85906   7.682  14.643   7.853
94670SOL    HW185907   7.698  14.602   7.768
94670SOL    HW285908   7.748  14.712   7.858
94671SOL     OW85909   0.680   3.496  13.728
94671SOL    HW185910   0.694   3.591  13.722
94671SOL    HW285911   0.732   3.470  13.804
94672SOL     OW85912  13.254  10.023  12.254
94672SOL    HW185913  13.224  10.089  12.316
94672SOL    HW285914  13.298   9.958  12.309
94673SOL     OW85915   7.885   3.177  12.296
94673SOL    HW185916   7.809   3.170  12.353
94673SOL    HW285917   7.866   3.118  12.223
94674SOL     OW85918   1.599   9.123   4.245
94674SOL    HW185919   1.558   9.143   4.161
94674SOL    HW285920   1.646   9.204   4.269
94675SOL     OW85921   3.303  10.755   0.901
94675SOL    HW185922   3.239  10.721   0.964
94675SOL    HW285923   3.260  10.744   0.816
94676SOL     OW85924   5.329   7.027   5.889
94676SOL    HW185925   5.281   6.952   5.855
94676SOL    HW285926   5.314   7.024   5.984
94677SOL     OW85927   6.234  11.099  13.369
94677SOL    HW185928   6.273  11.012  13.379
94677SOL    HW285929   6.141  11.085  13.389
94678SOL     OW85930   7.459  10.533  10.579
94678SOL    HW185931   7.497  10.595  10.516
94678SOL    HW285932   7.531  10.511  10.637
94679SOL     OW85933   5.827   6.654   9.682
94679SOL    HW185934   5.751   6.691   9.638
94679SOL    HW285935   5.815   6.679   9.774
94680SOL     OW85936  13.131  10.299  11.819
94680SOL    HW185937  13.090  10.383  11.839
94680SOL    HW285938  13.132  10.253  11.904
94681SOL     OW85939  12.758  14.026   1.123
94681SOL    HW185940  12.727  14.098   1.177
94681SOL    HW285941  12.802  13.967   1.185
94682SOL     OW85942   7.248   3.646   1.260
94682SOL    HW185943   7.167   3.643   1.210
94682SOL    HW285944   7.259   3.738   1.285
94683SOL     OW85945   8.523   4.759  12.413
94683SOL    HW185946   8.558   4.712  12.337
94683SOL    HW285947   8.430   4.768  12.395
94684SOL     OW85948   1.223   8.127   5.071
94684SOL    HW185949   1.194   8.215   5.096
94684SOL    HW285950   1.168   8.068   5.122
94685SOL     OW85951   1.346  12.449  12.971
94685SOL    HW185952   1.312  12.469  13.058
94685SOL    HW285953   1.321  12.358  12.955
94686SOL     OW85954   8.497   5.342   7.258
94686SOL    HW185955   8.578   5.388   7.238
94686SOL    HW285956   8.463   5.385   7.336
94687SOL     OW85957  12.142  14.067  10.045
94687SOL    HW185958  12.157  14.021   9.962
94687SOL    HW285959  12.061  14.028  10.080
94688SOL     OW85960  12.929   1.078   6.289
94688SOL    HW185961  12.971   1.158   6.320
94688SOL    HW285962  12.842   1.080   6.329
94689SOL     OW85963   5.932   7.379   1.631
94689SOL    HW185964   6.005   7.420   1.586
94689SOL    HW285965   5.857   7.395   1.575
94690SOL     OW85966   8.939   0.119   2.265
94690SOL    HW185967   8.888   0.059   2.210
94690SOL    HW285968   8.877   0.187   2.290
94691SOL     OW85969  10.156  13.000   0.533
94691SOL    HW185970  10.075  12.954   0.554
94691SOL    HW285971  10.191  12.953   0.457
94692SOL     OW85972   8.381   5.814  14.380
94692SOL    HW185973   8.385   5.907  14.357
94692SOL    HW285974   8.294   5.802  14.418
94693SOL     OW85975  13.841   1.418   6.314
94693SOL    HW185976  13.906   1.489   6.321
94693SOL    HW285977  13.770   1.445   6.372
94694SOL     OW85978   7.934   4.606   0.251
94694SOL    HW185979   7.982   4.630   0.330
94694SOL    HW285980   8.001   4.600   0.183
94695SOL     OW85981   4.882   6.097  11.510
94695SOL    HW185982   4.915   6.145  11.586
94695SOL    HW285983   4.874   6.006  11.541
94696SOL     OW85984   7.537  10.380  13.252
94696SOL    HW185985   7.472  10.379  13.182
94696SOL    HW285986   7.565  10.472  13.257
94697SOL     OW85987   4.558  11.253   1.698
94697SOL    HW185988   4.549  11.160   1.719
94697SOL    HW285989   4.592  11.293   1.778
94698SOL     OW85990   4.768   1.262  14.425
94698SOL    HW185991   4.822   1.188  14.394
94698SOL    HW285992   4.813   1.340  14.393
94699SOL     OW85993   7.313   1.998  10.359
94699SOL    HW185994   7.296   1.929  10.423
94699SOL    HW285995   7.406   1.988  10.338
94700SOL     OW85996   4.468  13.493   0.293
94700SOL    HW185997   4.444  13.407   0.260
94700SOL    HW285998   4.422  13.500   0.376
94701SOL     OW85999  10.620  12.574   1.954
94701SOL    HW186000  10.536  12.531   1.937
94701SOL    HW286001  10.678  12.503   1.983
94702SOL     OW86002   3.406   0.034  11.348
94702SOL    HW186003   3.416  14.845  11.273
94702SOL    HW286004   3.494   0.039  11.386
94703SOL     OW86005   5.420   3.717   8.380
94703SOL    HW186006   5.388   3.805   8.398
94703SOL    HW286007   5.341   3.668   8.355
94704SOL     OW86008  10.376   3.766  13.454
94704SOL    HW186009  10.416   3.733  13.534
94704SOL    HW286010  10.350   3.688  13.406
94705SOL     OW86011   4.922  13.030   4.155
94705SOL    HW186012   4.983  12.969   4.115
94705SOL    HW286013   4.892  13.085   4.083
94706SOL     OW86014  14.829   4.789   9.830
94706SOL    HW186015   0.041   4.837   9.812
94706SOL    HW286016  14.816   4.734   9.752
94707SOL     OW86017   2.008   7.565   1.532
94707SOL    HW186018   2.018   7.504   1.605
94707SOL    HW286019   1.923   7.543   1.494
94708SOL     OW86020   7.391  11.566   9.732
94708SOL    HW186021   7.485  11.583   9.744
94708SOL    HW286022   7.388  11.479   9.692
94709SOL     OW86023   7.966   3.235   5.234
94709SOL    HW186024   8.019   3.181   5.293
94709SOL    HW286025   7.893   3.265   5.288
94710SOL     OW86026  13.185   8.732   1.616
94710SOL    HW186027  13.093   8.749   1.595
94710SOL    HW286028  13.191   8.637   1.619
94711SOL     OW86029   6.722   9.152  10.098
94711SOL    HW186030   6.747   9.160  10.190
94711SOL    HW286031   6.804   9.136  10.051
94712SOL     OW86032   8.321  13.404   3.365
94712SOL    HW186033   8.358  13.448   3.288
94712SOL    HW286034   8.391  13.346   3.394
94713SOL     OW86035   6.933  13.579  11.772
94713SOL    HW186036   7.028  13.573  11.765
94713SOL    HW286037   6.901  13.531  11.695
94714SOL     OW86038   0.603  13.677  14.091
94714SOL    HW186039   0.590  13.702  14.183
94714SOL    HW286040   0.519  13.638  14.065
94715SOL     OW86041   0.598  10.486   0.048
94715SOL    HW186042   0.599  10.392   0.028
94715SOL    HW286043   0.636  10.492   0.135
94716SOL     OW86044  14.543   0.401   3.939
94716SOL    HW186045  14.505   0.426   4.023
94716SOL    HW286046  14.632   0.373   3.960
94717SOL     OW86047  10.928  14.774  12.079
94717SOL    HW186048  10.892  14.685  12.079
94717SOL    HW286049  10.926  14.800  11.987
94718SOL     OW86050  13.794  12.413   1.038
94718SOL    HW186051  13.866  12.366   0.996
94718SOL    HW286052  13.759  12.352   1.103
94719SOL     OW86053  12.697  11.488   1.048
94719SOL    HW186054  12.637  11.472   0.975
94719SOL    HW286055  12.698  11.406   1.096
94720SOL     OW86056   9.774   2.699  13.511
94720SOL    HW186057   9.808   2.683  13.599
94720SOL    HW286058   9.701   2.638  13.503
94721SOL     OW86059   5.414   3.142  13.139
94721SOL    HW186060   5.506   3.169  13.137
94721SOL    HW286061   5.369   3.214  13.182
94722SOL     OW86062  12.039  12.661   4.326
94722SOL    HW186063  12.116  12.668   4.382
94722SOL    HW286064  11.973  12.618   4.380
94723SOL     OW86065   5.740   9.155   7.183
94723SOL    HW186066   5.811   9.112   7.135
94723SOL    HW286067   5.774   9.242   7.204
94724SOL     OW86068  14.814   7.301  12.668
94724SOL    HW186069  14.747   7.268  12.608
94724SOL    HW286070  14.804   7.396  12.665
94725SOL     OW86071  12.632  11.733  10.875
94725SOL    HW186072  12.568  11.697  10.813
94725SOL    HW286073  12.615  11.687  10.957
94726SOL     OW86074   7.406  13.177   2.086
94726SOL    HW186075   7.485  13.128   2.065
94726SOL    HW286076   7.388  13.154   2.177
94727SOL     OW86077   3.264   4.899   1.226
94727SOL    HW186078   3.273   4.982   1.180
94727SOL    HW286079   3.308   4.914   1.310
94728SOL     OW86080  13.936  13.787  10.625
94728SOL    HW186081  13.932  13.699  10.662
94728SOL    HW286082  13.852  13.827  10.648
94729SOL     OW86083  14.660   8.045   2.800
94729SOL    HW186084  14.736   7.996   2.770
94729SOL    HW286085  14.589   7.980   2.800
94730SOL     OW86086   0.408  14.342   2.462
94730SOL    HW186087   0.348  14.269   2.475
94730SOL    HW286088   0.362  14.418   2.498
94731SOL     OW86089   8.749  10.277   7.626
94731SOL    HW186090   8.740  10.186   7.652
94731SOL    HW286091   8.775  10.273   7.534
94732SOL     OW86092  13.004   1.534  14.240
94732SOL    HW186093  13.081   1.576  14.200
94732SOL    HW286094  13.039   1.456  14.281
94733SOL     OW86095   6.745  13.816  13.023
94733SOL    HW186096   6.683  13.865  13.076
94733SOL    HW286097   6.778  13.879  12.959
94734SOL     OW86098   0.636   0.043   9.490
94734SOL    HW186099   0.685   0.024   9.571
94734SOL    HW286100   0.567   0.103   9.519
94735SOL     OW86101  11.370   1.059  13.025
94735SOL    HW186102  11.459   1.094  13.023
94735SOL    HW286103  11.316   1.129  12.987
94736SOL     OW86104   8.601   3.300  14.535
94736SOL    HW186105   8.511   3.326  14.514
94736SOL    HW286106   8.612   3.323  14.627
94737SOL     OW86107  14.465  12.089  13.980
94737SOL    HW186108  14.411  12.147  14.033
94737SOL    HW286109  14.458  12.125  13.891
94738SOL     OW86110   5.152  12.807   4.070
94738SOL    HW186111   5.220  12.760   4.119
94738SOL    HW286112   5.193  12.827   3.986
94739SOL     OW86113   9.543  14.435  14.454
94739SOL    HW186114   9.524  14.347  14.485
94739SOL    HW286115   9.543  14.489  14.534
94740SOL     OW86116  12.930   5.731   2.027
94740SOL    HW186117  12.972   5.812   2.056
94740SOL    HW286118  12.914   5.744   1.933
94741SOL     OW86119   7.162   9.837   2.520
94741SOL    HW186120   7.241   9.796   2.484
94741SOL    HW286121   7.159   9.806   2.610
94742SOL     OW86122   5.529   5.561   9.453
94742SOL    HW186123   5.622   5.581   9.468
94742SOL    HW286124   5.489   5.567   9.540
94743SOL     OW86125  13.369   1.362   0.965
94743SOL    HW186126  13.356   1.268   0.954
94743SOL    HW286127  13.284   1.395   0.993
94744SOL     OW86128   6.434  13.504   7.883
94744SOL    HW186129   6.368  13.571   7.863
94744SOL    HW286130   6.492  13.504   7.807
94745SOL     OW86131   5.291  11.495  12.590
94745SOL    HW186132   5.262  11.545  12.514
94745SOL    HW286133   5.227  11.514  12.658
94746SOL     OW86134   8.652   9.434   9.193
94746SOL    HW186135   8.698   9.368   9.141
94746SOL    HW286136   8.560   9.426   9.166
94747SOL     OW86137  11.284   0.778   2.470
94747SOL    HW186138  11.356   0.841   2.466
94747SOL    HW286139  11.323   0.698   2.502
94748SOL     OW86140  11.814   4.163   4.599
94748SOL    HW186141  11.846   4.230   4.659
94748SOL    HW286142  11.768   4.212   4.531
94749SOL     OW86143   6.447  10.602   3.288
94749SOL    HW186144   6.426  10.509   3.288
94749SOL    HW286145   6.543  10.606   3.286
94750SOL     OW86146   9.462   8.066   0.983
94750SOL    HW186147   9.455   8.030   1.071
94750SOL    HW286148   9.373   8.059   0.947
94751SOL     OW86149   9.906  13.872   0.593
94751SOL    HW186150   9.851  13.823   0.654
94751SOL    HW286151   9.976  13.811   0.569
94752SOL     OW86152   4.939   9.948   4.326
94752SOL    HW186153   4.969  10.027   4.372
94752SOL    HW286154   4.981   9.876   4.372
94753SOL     OW86155   6.586  10.785   8.394
94753SOL    HW186156   6.635  10.863   8.420
94753SOL    HW286157   6.643  10.742   8.330
94754SOL     OW86158   4.448   1.911   1.167
94754SOL    HW186159   4.513   1.853   1.205
94754SOL    HW286160   4.445   1.987   1.225
94755SOL     OW86161   0.006  11.551   9.857
94755SOL    HW186162  14.864  11.456   9.853
94755SOL    HW286163  14.836  11.583   9.776
94756SOL     OW86164  14.540   0.879   1.772
94756SOL    HW186165  14.579   0.800   1.810
94756SOL    HW286166  14.453   0.851   1.743
94757SOL     OW86167   5.154   9.221   6.922
94757SOL    HW186168   5.244   9.241   6.946
94757SOL    HW286169   5.148   9.243   6.829
94758SOL     OW86170  13.173   9.089   9.636
94758SOL    HW186171  13.121   9.020   9.595
94758SOL    HW286172  13.262   9.055   9.636
94759SOL     OW86173  12.884  12.617  12.208
94759SOL    HW186174  12.968  12.614  12.162
94759SOL    HW286175  12.897  12.563  12.286
94760SOL     OW86176   2.398   6.732  13.840
94760SOL    HW186177   2.489   6.754  13.821
94760SOL    HW286178   2.403   6.650  13.890
94761SOL     OW86179   3.149   6.036   4.505
94761SOL    HW186180   3.234   5.995   4.489
94761SOL    HW286181   3.137   6.095   4.430
94762SOL     OW86182   2.335   5.761   4.210
94762SOL    HW186183   2.299   5.845   4.180
94762SOL    HW286184   2.280   5.737   4.284
94763SOL     OW86185   2.694  12.892  10.183
94763SOL    HW186186   2.645  12.943  10.247
94763SOL    HW286187   2.781  12.932  10.182
94764SOL     OW86188   3.320  14.620   4.714
94764SOL    HW186189   3.277  14.535   4.706
94764SOL    HW286190   3.413  14.598   4.726
94765SOL     OW86191   9.464  11.924   0.129
94765SOL    HW186192   9.472  11.832   0.106
94765SOL    HW286193   9.372  11.936   0.152
94766SOL     OW86194  10.613  10.530   1.512
94766SOL    HW186195  10.526  10.503   1.544
94766SOL    HW286196  10.649  10.451   1.472
94767SOL     OW86197  12.956   1.850   3.576
94767SOL    HW186198  12.897   1.775   3.585
94767SOL    HW286199  12.970   1.881   3.666
94768SOL     OW86200   7.947  12.878   9.282
94768SOL    HW186201   7.925  12.969   9.304
94768SOL    HW286202   7.862  12.834   9.277
94769SOL     OW86203  10.009   7.936   4.043
94769SOL    HW186204  10.015   8.016   4.096
94769SOL    HW286205  10.011   7.968   3.952
94770SOL     OW86206  14.276   0.515   8.288
94770SOL    HW186207  14.217   0.581   8.253
94770SOL    HW286208  14.228   0.433   8.281
94771SOL     OW86209  14.052   0.111  10.155
94771SOL    HW186210  13.982   0.112  10.090
94771SOL    HW286211  14.009   0.132  10.237
94772SOL     OW86212  12.199  10.073   1.776
94772SOL    HW186213  12.144  10.035   1.708
94772SOL    HW286214  12.220   9.999   1.834
94773SOL     OW86215  11.237   4.231  13.592
94773SOL    HW186216  11.222   4.158  13.531
94773SOL    HW286217  11.165   4.224  13.655
94774SOL     OW86218   8.943  14.185  10.443
94774SOL    HW186219   8.895  14.137  10.376
94774SOL    HW286220   9.024  14.135  10.455
94775SOL     OW86221  14.611   7.440  10.194
94775SOL    HW186222  14.607   7.360  10.248
94775SOL    HW286223  14.523   7.478  10.202
94776SOL     OW86224   0.969   9.637   4.798
94776SOL    HW186225   0.997   9.692   4.725
94776SOL    HW286226   0.875   9.655   4.806
94777SOL     OW86227   8.175   6.909  10.417
94777SOL    HW186228   8.245   6.904  10.482
94777SOL    HW286229   8.194   6.989  10.367
94778SOL     OW86230   3.138   9.027   4.956
94778SOL    HW186231   3.213   9.001   5.009
94778SOL    HW286232   3.103   9.104   5.001
94779SOL     OW86233   9.196   2.913   8.195
94779SOL    HW186234   9.192   2.854   8.119
94779SOL    HW286235   9.178   3.000   8.159
94780SOL     OW86236   5.717  14.744  10.147
94780SOL    HW186237   5.697  14.785  10.230
94780SOL    HW286238   5.783  14.801  10.107
94781SOL     OW86239   6.799   6.273   9.087
94781SOL    HW186240   6.810   6.189   9.042
94781SOL    HW286241   6.766   6.332   9.019
94782SOL     OW86242  13.334  12.567  11.033
94782SOL    HW186243  13.249  12.533  11.005
94782SOL    HW286244  13.384  12.577  10.952
94783SOL     OW86245   2.371   7.344   9.618
94783SOL    HW186246   2.370   7.439   9.630
94783SOL    HW286247   2.279   7.319   9.616
94784SOL     OW86248  12.214  14.529  14.339
94784SOL    HW186249  12.150  14.463  14.365
94784SOL    HW286250  12.241  14.503  14.251
94785SOL     OW86251   7.566   0.673  12.973
94785SOL    HW186252   7.580   0.592  13.023
94785SOL    HW286253   7.542   0.738  13.039
94786SOL     OW86254   8.390   0.193   1.069
94786SOL    HW186255   8.317   0.153   1.116
94786SOL    HW286256   8.384   0.157   0.980
94787SOL     OW86257   2.456  11.965   6.877
94787SOL    HW186258   2.413  11.972   6.962
94787SOL    HW286259   2.532  12.023   6.883
94788SOL     OW86260  14.326   8.544  11.233
94788SOL    HW186261  14.263   8.557  11.162
94788SOL    HW286262  14.324   8.450  11.250
94789SOL     OW86263  10.793   9.005  13.151
94789SOL    HW186264  10.835   9.006  13.065
94789SOL    HW286265  10.761   9.094  13.164
94790SOL     OW86266   8.698   3.222   5.092
94790SOL    HW186267   8.661   3.298   5.138
94790SOL    HW286268   8.622   3.182   5.049
94791SOL     OW86269   1.083  14.269   4.095
94791SOL    HW186270   1.130  14.264   4.012
94791SOL    HW286271   1.050  14.358   4.098
94792SOL     OW86272   6.812   1.501   2.564
94792SOL    HW186273   6.757   1.465   2.633
94792SOL    HW286274   6.902   1.488   2.594
94793SOL     OW86275   5.474   3.199   6.739
94793SOL    HW186276   5.404   3.220   6.801
94793SOL    HW286277   5.432   3.209   6.653
94794SOL     OW86278   3.589   1.078   9.171
94794SOL    HW186279   3.551   1.138   9.107
94794SOL    HW286280   3.527   1.077   9.244
94795SOL     OW86281   5.731   2.020   3.885
94795SOL    HW186282   5.709   1.968   3.808
94795SOL    HW286283   5.806   1.975   3.924
94796SOL     OW86284   6.998   2.818   0.117
94796SOL    HW186285   6.938   2.768   0.062
94796SOL    HW286286   7.034   2.754   0.178
94797SOL     OW86287   5.959   8.883  12.331
94797SOL    HW186288   5.938   8.895  12.239
94797SOL    HW286289   6.046   8.845  12.332
94798SOL     OW86290  14.331  13.240   6.029
94798SOL    HW186291  14.263  13.304   6.007
94798SOL    HW286292  14.336  13.183   5.953
94799SOL     OW86293   8.362  10.320   6.441
94799SOL    HW186294   8.415  10.242   6.422
94799SOL    HW286295   8.363  10.370   6.359
94800SOL     OW86296   8.267   8.880   9.226
94800SOL    HW186297   8.229   8.819   9.163
94800SOL    HW286298   8.198   8.895   9.290
94801SOL     OW86299   5.853   3.329   0.453
94801SOL    HW186300   5.773   3.338   0.504
94801SOL    HW286301   5.823   3.328   0.362
94802SOL     OW86302   9.244   5.720   4.752
94802SOL    HW186303   9.234   5.663   4.828
94802SOL    HW286304   9.206   5.803   4.780
94803SOL     OW86305   4.343   0.465   4.284
94803SOL    HW186306   4.333   0.478   4.190
94803SOL    HW286307   4.255   0.441   4.314
94804SOL     OW86308   8.314   8.692   9.811
94804SOL    HW186309   8.291   8.667   9.901
94804SOL    HW286310   8.244   8.655   9.757
94805SOL     OW86311  14.454  10.341   8.929
94805SOL    HW186312  14.501  10.295   8.859
94805SOL    HW286313  14.406  10.410   8.883
94806SOL     OW86314   4.319   1.957   7.259
94806SOL    HW186315   4.321   1.863   7.243
94806SOL    HW286316   4.363   1.968   7.343
94807SOL     OW86317   9.785   6.499  12.252
94807SOL    HW186318   9.779   6.593  12.237
94807SOL    HW286319   9.719   6.481  12.319
94808SOL     OW86320   5.227   5.625   6.990
94808SOL    HW186321   5.177   5.629   7.071
94808SOL    HW286322   5.314   5.658   7.014
94809SOL     OW86323  12.176  11.660  13.837
94809SOL    HW186324  12.259  11.698  13.865
94809SOL    HW286325  12.192  11.629  13.748
94810SOL     OW86326   1.435   9.263  12.785
94810SOL    HW186327   1.461   9.214  12.863
94810SOL    HW286328   1.367   9.323  12.816
94811SOL     OW86329   9.067  10.732   1.889
94811SOL    HW186330   9.109  10.761   1.807
94811SOL    HW286331   9.083  10.804   1.950
94812SOL     OW86332  14.080   1.252   7.150
94812SOL    HW186333  14.113   1.326   7.099
94812SOL    HW286334  14.039   1.292   7.226
94813SOL     OW86335  10.100  12.971   3.853
94813SOL    HW186336  10.033  12.905   3.832
94813SOL    HW286337  10.056  13.032   3.912
94814SOL     OW86338  11.706   4.373   3.547
94814SOL    HW186339  11.791   4.356   3.506
94814SOL    HW286340  11.714   4.462   3.581
94815SOL     OW86341   2.928   2.627   3.698
94815SOL    HW186342   3.007   2.575   3.683
94815SOL    HW286343   2.906   2.661   3.612
94816SOL     OW86344   0.442  14.061   5.533
94816SOL    HW186345   0.456  14.050   5.439
94816SOL    HW286346   0.358  14.107   5.540
94817SOL     OW86347   4.462  12.941  14.458
94817SOL    HW186348   4.493  12.880  14.525
94817SOL    HW286349   4.388  12.986  14.499
94818SOL     OW86350   0.785  12.575   3.103
94818SOL    HW186351   0.800  12.512   3.174
94818SOL    HW286352   0.724  12.531   3.044
94819SOL     OW86353   7.119  14.819  11.562
94819SOL    HW186354   7.206  14.802  11.599
94819SOL    HW286355   7.135  14.834  11.469
94820SOL     OW86356   8.573  13.436  13.236
94820SOL    HW186357   8.618  13.369  13.288
94820SOL    HW286358   8.544  13.501  13.301
94821SOL     OW86359   8.533   9.253   0.422
94821SOL    HW186360   8.546   9.321   0.488
94821SOL    HW286361   8.598   9.273   0.354
94822SOL     OW86362  13.111   3.677   9.223
94822SOL    HW186363  13.106   3.587   9.257
94822SOL    HW286364  13.196   3.709   9.254
94823SOL     OW86365   5.660   9.172   7.754
94823SOL    HW186366   5.741   9.223   7.751
94823SOL    HW286367   5.594   9.232   7.719
94824SOL     OW86368   8.499   3.288  10.222
94824SOL    HW186369   8.503   3.300  10.317
94824SOL    HW286370   8.547   3.206  10.206
94825SOL     OW86371   1.342   7.859  12.323
94825SOL    HW186372   1.334   7.782  12.266
94825SOL    HW286373   1.284   7.924  12.283
94826SOL     OW86374  13.634   6.564   0.614
94826SOL    HW186375  13.658   6.479   0.650
94826SOL    HW286376  13.547   6.581   0.648
94827SOL     OW86377   6.370  11.374  14.425
94827SOL    HW186378   6.362  11.278  14.422
94827SOL    HW286379   6.437  11.390  14.492
94828SOL     OW86380  10.131   3.352   1.713
94828SOL    HW186381  10.067   3.292   1.675
94828SOL    HW286382  10.102   3.364   1.804
94829SOL     OW86383  12.755   6.480   9.952
94829SOL    HW186384  12.847   6.453   9.945
94829SOL    HW286385  12.738   6.527   9.871
94830SOL     OW86386  12.014   6.343  10.929
94830SOL    HW186387  12.109   6.339  10.935
94830SOL    HW286388  11.985   6.373  11.015
94831SOL     OW86389  11.200   0.425   9.046
94831SOL    HW186390  11.277   0.458   9.093
94831SOL    HW286391  11.188   0.336   9.078
94832SOL     OW86392   2.784   0.599  12.123
94832SOL    HW186393   2.738   0.531  12.075
94832SOL    HW286394   2.829   0.650  12.055
94833SOL     OW86395  14.726   8.613   5.473
94833SOL    HW186396  14.760   8.652   5.393
94833SOL    HW286397  14.789   8.546   5.497
94834SOL     OW86398   1.988   3.990   5.303
94834SOL    HW186399   1.975   3.911   5.251
94834SOL    HW286400   1.964   4.062   5.245
94835SOL     OW86401   5.319   7.378   4.177
94835SOL    HW186402   5.347   7.298   4.221
94835SOL    HW286403   5.305   7.441   4.247
94836SOL     OW86404  13.060  14.833   0.851
94836SOL    HW186405  13.126  14.764   0.848
94836SOL    HW286406  12.976  14.787   0.851
94837SOL     OW86407  13.882  10.277   8.721
94837SOL    HW186408  13.974  10.251   8.722
94837SOL    HW286409  13.838  10.207   8.672
94838SOL     OW86410  13.359   8.435  10.760
94838SOL    HW186411  13.335   8.481  10.841
94838SOL    HW286412  13.445   8.468  10.737
94839SOL     OW86413   5.733   1.196   2.236
94839SOL    HW186414   5.699   1.160   2.317
94839SOL    HW286415   5.826   1.173   2.236
94840SOL     OW86416   8.731   3.611   5.538
94840SOL    HW186417   8.800   3.669   5.570
94840SOL    HW286418   8.767   3.523   5.547
94841SOL     OW86419   7.404   9.554  11.139
94841SOL    HW186420   7.399   9.460  11.119
94841SOL    HW286421   7.490   9.564  11.180
94842SOL     OW86422  14.723  13.242   6.585
94842SOL    HW186423  14.640  13.214   6.548
94842SOL    HW286424  14.714  13.337   6.595
94843SOL     OW86425   1.400   9.545   0.293
94843SOL    HW186426   1.482   9.499   0.308
94843SOL    HW286427   1.392   9.549   0.197
94844SOL     OW86428  14.031   4.211   0.742
94844SOL    HW186429  13.972   4.286   0.754
94844SOL    HW286430  14.118   4.246   0.757
94845SOL     OW86431  12.238  14.199   6.586
94845SOL    HW186432  12.224  14.238   6.499
94845SOL    HW286433  12.316  14.243   6.620
94846SOL     OW86434   5.123  14.251   9.400
94846SOL    HW186435   5.159  14.338   9.386
94846SOL    HW286436   5.070  14.234   9.322
94847SOL     OW86437   1.177   4.509   2.816
94847SOL    HW186438   1.198   4.416   2.812
94847SOL    HW286439   1.090   4.512   2.855
94848SOL     OW86440   0.242  10.003   3.840
94848SOL    HW186441   0.226   9.924   3.788
94848SOL    HW286442   0.336  10.018   3.835
94849SOL     OW86443  12.099   9.153  10.809
94849SOL    HW186444  12.164   9.209  10.767
94849SOL    HW286445  12.063   9.101  10.737
94850SOL     OW86446   3.295   6.729   7.381
94850SOL    HW186447   3.227   6.713   7.446
94850SOL    HW286448   3.309   6.824   7.383
94851SOL     OW86449   3.623  14.107   3.665
94851SOL    HW186450   3.674  14.096   3.745
94851SOL    HW286451   3.620  14.202   3.651
94852SOL     OW86452  12.365   5.048  11.444
94852SOL    HW186453  12.423   5.085  11.378
94852SOL    HW286454  12.327   4.971  11.401
94853SOL     OW86455   4.760  12.656   7.742
94853SOL    HW186456   4.673  12.675   7.707
94853SOL    HW286457   4.819  12.708   7.688
94854SOL     OW86458   3.263   3.627   3.396
94854SOL    HW186459   3.312   3.670   3.466
94854SOL    HW286460   3.174   3.661   3.406
94855SOL     OW86461   5.155   3.324   0.416
94855SOL    HW186462   5.076   3.369   0.385
94855SOL    HW286463   5.122   3.244   0.457
94856SOL     OW86464   4.222  12.736   0.843
94856SOL    HW186465   4.271  12.788   0.779
94856SOL    HW286466   4.154  12.796   0.875
94857SOL     OW86467   1.738   9.596   5.898
94857SOL    HW186468   1.736   9.526   5.963
94857SOL    HW286469   1.721   9.552   5.814
94858SOL     OW86470  12.106  11.880   8.779
94858SOL    HW186471  12.020  11.906   8.747
94858SOL    HW286472  12.118  11.928   8.860
94859SOL     OW86473   5.312   4.448   6.405
94859SOL    HW186474   5.383   4.384   6.397
94859SOL    HW286475   5.278   4.458   6.316
94860SOL     OW86476   2.972   4.192   3.716
94860SOL    HW186477   2.956   4.279   3.680
94860SOL    HW286478   2.947   4.132   3.646
94861SOL     OW86479   9.037   4.304   0.178
94861SOL    HW186480   9.082   4.386   0.200
94861SOL    HW286481   8.946   4.330   0.163
94862SOL     OW86482   3.531   0.138   7.526
94862SOL    HW186483   3.616   0.181   7.529
94862SOL    HW286484   3.510   0.133   7.433
94863SOL     OW86485   4.505   7.960   3.575
94863SOL    HW186486   4.443   8.018   3.530
94863SOL    HW286487   4.574   7.945   3.512
94864SOL     OW86488  13.039   9.595   6.177
94864SOL    HW186489  13.071   9.573   6.264
94864SOL    HW286490  13.108   9.649   6.139
94865SOL     OW86491   0.286   3.780   9.699
94865SOL    HW186492   0.374   3.779   9.735
94865SOL    HW286493   0.295   3.817   9.611
94866SOL     OW86494   1.979   9.461   7.811
94866SOL    HW186495   2.067   9.470   7.773
94866SOL    HW286496   1.990   9.487   7.902
94867SOL     OW86497  10.578  10.653   2.557
94867SOL    HW186498  10.593  10.698   2.640
94867SOL    HW286499  10.523  10.578   2.580
94868SOL     OW86500  12.042   0.500   6.751
94868SOL    HW186501  12.078   0.557   6.819
94868SOL    HW286502  12.067   0.541   6.669
94869SOL     OW86503  10.661  14.444  11.916
94869SOL    HW186504  10.661  14.380  11.845
94869SOL    HW286505  10.679  14.528  11.874
94870SOL     OW86506  11.914  13.191   8.598
94870SOL    HW186507  11.871  13.177   8.514
94870SOL    HW286508  11.926  13.103   8.633
94871SOL     OW86509  11.761   8.904   2.017
94871SOL    HW186510  11.845   8.878   1.981
94871SOL    HW286511  11.715   8.947   1.944
94872SOL     OW86512   7.113   2.675  12.284
94872SOL    HW186513   7.149   2.606  12.229
94872SOL    HW286514   7.043   2.714  12.232
94873SOL     OW86515   8.086   7.391   9.675
94873SOL    HW186516   8.109   7.445   9.750
94873SOL    HW286517   8.075   7.453   9.603
94874SOL     OW86518   9.786  10.694   9.425
94874SOL    HW186519   9.806  10.746   9.503
94874SOL    HW286520   9.808  10.604   9.450
94875SOL     OW86521   7.377   3.198  14.796
94875SOL    HW186522   7.329   3.116  14.786
94875SOL    HW286523   7.462   3.181  14.757
94876SOL     OW86524   6.272  14.378   1.290
94876SOL    HW186525   6.329  14.420   1.226
94876SOL    HW286526   6.332  14.331   1.349
94877SOL     OW86527   5.547   5.389  11.068
94877SOL    HW186528   5.627   5.410  11.020
94877SOL    HW286529   5.507   5.318  11.017
94878SOL     OW86530   4.345   5.623  14.765
94878SOL    HW186531   4.416   5.581  14.813
94878SOL    HW286532   4.325   5.702  14.816
94879SOL     OW86533   2.907   7.498   9.388
94879SOL    HW186534   2.943   7.490   9.477
94879SOL    HW286535   2.856   7.578   9.391
94880SOL     OW86536   4.586   4.311   6.976
94880SOL    HW186537   4.671   4.302   7.019
94880SOL    HW286538   4.537   4.372   7.031
94881SOL     OW86539  12.399   0.061   9.055
94881SOL    HW186540  12.393   0.023   9.143
94881SOL    HW286541  12.461   0.133   9.064
94882SOL     OW86542  11.251  13.571   2.416
94882SOL    HW186543  11.331  13.546   2.462
94882SOL    HW286544  11.220  13.490   2.375
94883SOL     OW86545  12.898   5.097  12.654
94883SOL    HW186546  12.866   5.087  12.564
94883SOL    HW286547  12.981   5.144  12.645
94884SOL     OW86548   4.725   6.165   9.057
94884SOL    HW186549   4.684   6.113   9.127
94884SOL    HW286550   4.812   6.186   9.090
94885SOL     OW86551   0.035  10.105   6.101
94885SOL    HW186552  14.848  10.053   6.043
94885SOL    HW286553   0.067  10.176   6.045
94886SOL     OW86554   5.278   6.210   4.950
94886SOL    HW186555   5.315   6.124   4.967
94886SOL    HW286556   5.183   6.197   4.951
94887SOL     OW86557  10.714  13.304   0.760
94887SOL    HW186558  10.716  13.211   0.784
94887SOL    HW286559  10.684  13.349   0.839
94888SOL     OW86560  14.113   8.280  10.350
94888SOL    HW186561  14.087   8.250  10.263
94888SOL    HW286562  14.055   8.233  10.410
94889SOL     OW86563   0.942   6.341  13.788
94889SOL    HW186564   0.927   6.283  13.713
94889SOL    HW286565   0.908   6.426  13.761
94890SOL     OW86566   0.649   9.505   3.593
94890SOL    HW186567   0.594   9.476   3.520
94890SOL    HW286568   0.737   9.512   3.555
94891SOL     OW86569   6.225   2.829  11.165
94891SOL    HW186570   6.151   2.804  11.221
94891SOL    HW286571   6.195   2.909  11.121
94892SOL     OW86572   3.922   8.972  13.905
94892SOL    HW186573   3.876   8.983  13.822
94892SOL    HW286574   3.997   9.032  13.898
94893SOL     OW86575   7.375   8.781   2.384
94893SOL    HW186576   7.436   8.763   2.312
94893SOL    HW286577   7.292   8.799   2.340
94894SOL     OW86578  13.391   0.110  11.236
94894SOL    HW186579  13.299   0.133  11.244
94894SOL    HW286580  13.408   0.112  11.141
94895SOL     OW86581   0.657   1.510   3.664
94895SOL    HW186582   0.637   1.603   3.653
94895SOL    HW286583   0.725   1.492   3.599
94896SOL     OW86584  14.215   4.645  14.030
94896SOL    HW186585  14.135   4.674  13.985
94896SOL    HW286586  14.278   4.632  13.960
94897SOL     OW86587  12.327   7.748  10.039
94897SOL    HW186588  12.421   7.737  10.027
94897SOL    HW286589  12.316   7.757  10.134
94898SOL     OW86590   2.543  13.701   4.302
94898SOL    HW186591   2.533  13.651   4.220
94898SOL    HW286592   2.623  13.665   4.341
94899SOL     OW86593   0.772   6.012  13.660
94899SOL    HW186594   0.702   6.015  13.596
94899SOL    HW286595   0.831   5.944  13.628
94900SOL     OW86596   3.603   7.012  11.231
94900SOL    HW186597   3.638   6.944  11.173
94900SOL    HW286598   3.529   7.048  11.183
94901SOL     OW86599   6.630  12.753   4.628
94901SOL    HW186600   6.717  12.742   4.666
94901SOL    HW286601   6.578  12.795   4.696
94902SOL     OW86602   9.079   2.527  12.252
94902SOL    HW186603   9.049   2.491  12.168
94902SOL    HW286604   8.999   2.545  12.301
94903SOL     OW86605   5.277   7.503  13.712
94903SOL    HW186606   5.340   7.447  13.667
94903SOL    HW286607   5.246   7.564  13.645
94904SOL     OW86608  11.002   5.226  12.957
94904SOL    HW186609  11.011   5.300  12.896
94904SOL    HW286610  11.072   5.165  12.931
94905SOL     OW86611  14.340  11.791  14.461
94905SOL    HW186612  14.342  11.793  14.556
94905SOL    HW286613  14.409  11.852  14.434
94906SOL     OW86614   1.495   8.875   1.382
94906SOL    HW186615   1.561   8.807   1.394
94906SOL    HW286616   1.439   8.842   1.312
94907SOL     OW86617  11.881  10.690   9.132
94907SOL    HW186618  11.816  10.759   9.119
94907SOL    HW286619  11.964  10.736   9.138
94908SOL     OW86620   9.259   1.462   7.115
94908SOL    HW186621   9.307   1.392   7.158
94908SOL    HW286622   9.314   1.488   7.042
94909SOL     OW86623   4.349   2.675   2.550
94909SOL    HW186624   4.419   2.611   2.537
94909SOL    HW286625   4.321   2.699   2.462
94910SOL     OW86626  12.162  14.779  10.823
94910SOL    HW186627  12.160  14.710  10.757
94910SOL    HW286628  12.072  14.784  10.855
94911SOL     OW86629   2.764   0.815   2.406
94911SOL    HW186630   2.792   0.862   2.485
94911SOL    HW286631   2.823   0.740   2.402
94912SOL     OW86632  13.312   0.478  12.145
94912SOL    HW186633  13.308   0.535  12.069
94912SOL    HW286634  13.405   0.466  12.163
94913SOL     OW86635   5.112   6.244   5.239
94913SOL    HW186636   5.198   6.276   5.269
94913SOL    HW286637   5.089   6.301   5.166
94914SOL     OW86638   8.353  13.309   7.855
94914SOL    HW186639   8.399  13.391   7.841
94914SOL    HW286640   8.405  13.244   7.808
94915SOL     OW86641   4.329   1.926   9.932
94915SOL    HW186642   4.300   2.015   9.952
94915SOL    HW286643   4.420   1.923   9.961
94916SOL     OW86644  12.562   9.963   5.907
94916SOL    HW186645  12.558  10.057   5.923
94916SOL    HW286646  12.487   9.927   5.953
94917SOL     OW86647   4.174   6.427   6.405
94917SOL    HW186648   4.102   6.365   6.392
94917SOL    HW286649   4.190   6.426   6.499
94918SOL     OW86650   9.309  10.078  13.591
94918SOL    HW186651   9.220  10.110  13.576
94918SOL    HW286652   9.303  10.030  13.673
94919SOL     OW86653  11.482  11.902   1.648
94919SOL    HW186654  11.577  11.906   1.653
94919SOL    HW286655  11.457  11.836   1.712
94920SOL     OW86656   1.612   0.104  13.027
94920SOL    HW186657   1.593   0.176  12.967
94920SOL    HW286658   1.570   0.027  12.987
94921SOL     OW86659  10.459  13.079   9.982
94921SOL    HW186660  10.435  13.021   9.909
94921SOL    HW286661  10.478  13.019  10.055
94922SOL     OW86662  10.196  11.545   8.166
94922SOL    HW186663  10.265  11.573   8.226
94922SOL    HW286664  10.118  11.592   8.196
94923SOL     OW86665  12.018  11.057   1.955
94923SOL    HW186666  11.924  11.043   1.957
94923SOL    HW286667  12.040  11.065   1.862
94924SOL     OW86668   9.637   3.520   9.113
94924SOL    HW186669   9.659   3.484   9.198
94924SOL    HW286670   9.660   3.451   9.051
94925SOL     OW86671   9.167  13.093  12.407
94925SOL    HW186672   9.175  13.150  12.484
94925SOL    HW286673   9.110  13.142  12.347
94926SOL     OW86674   0.433   4.259   9.168
94926SOL    HW186675   0.418   4.178   9.118
94926SOL    HW286676   0.509   4.299   9.126
94927SOL     OW86677  14.813   4.888   3.319
94927SOL    HW186678  14.818   4.872   3.225
94927SOL    HW286679  14.721   4.874   3.340
94928SOL     OW86680  13.955   3.936   4.677
94928SOL    HW186681  14.046   3.931   4.647
94928SOL    HW286682  13.903   3.939   4.597
94929SOL     OW86683   4.008   7.686   6.150
94929SOL    HW186684   4.032   7.632   6.225
94929SOL    HW286685   3.990   7.622   6.080
94930SOL     OW86686  10.615   2.524  11.924
94930SOL    HW186687  10.531   2.522  11.969
94930SOL    HW286688  10.656   2.605  11.954
94931SOL     OW86689   8.626  12.883   8.610
94931SOL    HW186690   8.712  12.905   8.644
94931SOL    HW286691   8.643  12.832   8.531
94932SOL     OW86692  12.268  14.131   3.071
94932SOL    HW186693  12.225  14.208   3.107
94932SOL    HW286694  12.355  14.131   3.111
94933SOL     OW86695  11.645  14.721   1.238
94933SOL    HW186696  11.588  14.795   1.262
94933SOL    HW286697  11.678  14.688   1.321
94934SOL     OW86698  14.294   7.144  13.944
94934SOL    HW186699  14.230   7.092  13.992
94934SOL    HW286700  14.292   7.109  13.855
94935SOL     OW86701   5.384   2.057  11.919
94935SOL    HW186702   5.293   2.086  11.918
94935SOL    HW286703   5.422   2.099  11.996
94936SOL     OW86704   3.631   5.175   9.553
94936SOL    HW186705   3.615   5.269   9.541
94936SOL    HW286706   3.598   5.156   9.641
94937SOL     OW86707   4.997   7.369   6.645
94937SOL    HW186708   5.041   7.334   6.567
94937SOL    HW286709   4.970   7.292   6.694
94938SOL     OW86710  10.097  13.340   3.081
94938SOL    HW186711  10.024  13.363   3.138
94938SOL    HW286712  10.112  13.247   3.096
94939SOL     OW86713  13.333  10.116   0.562
94939SOL    HW186714  13.376  10.031   0.573
94939SOL    HW286715  13.341  10.135   0.468
94940SOL     OW86716   5.383  14.271  12.707
94940SOL    HW186717   5.428  14.189  12.724
94940SOL    HW286718   5.444  14.339  12.735
94941SOL     OW86719  13.041  12.581  14.357
94941SOL    HW186720  13.100  12.572  14.282
94941SOL    HW286721  12.960  12.538  14.329
94942SOL     OW86722   2.852   0.040   2.739
94942SOL    HW186723   2.853   0.005   2.828
94942SOL    HW286724   2.876  14.836   2.683
94943SOL     OW86725   8.580  10.065   2.290
94943SOL    HW186726   8.673  10.088   2.299
94943SOL    HW286727   8.549  10.055   2.380
94944SOL     OW86728   4.162   3.781  11.446
94944SOL    HW186729   4.156   3.793  11.351
94944SOL    HW286730   4.211   3.857  11.477
94945SOL     OW86731   1.483   2.830   0.723
94945SOL    HW186732   1.536   2.909   0.716
94945SOL    HW286733   1.403   2.858   0.767
94946SOL     OW86734   2.150  10.326   3.398
94946SOL    HW186735   2.090  10.255   3.423
94946SOL    HW286736   2.206  10.339   3.474
94947SOL     OW86737   4.929   8.919   9.109
94947SOL    HW186738   4.970   8.982   9.050
94947SOL    HW286739   4.865   8.971   9.157
94948SOL     OW86740  13.031   4.553  13.981
94948SOL    HW186741  13.006   4.629  13.929
94948SOL    HW286742  12.951   4.526  14.025
94949SOL     OW86743   7.412   7.163  10.722
94949SOL    HW186744   7.465   7.227  10.769
94949SOL    HW286745   7.335   7.149  10.778
94950SOL     OW86746  14.433   3.096   6.328
94950SOL    HW186747  14.518   3.084   6.286
94950SOL    HW286748  14.411   3.188   6.309
94951SOL     OW86749   0.156   6.401  10.850
94951SOL    HW186750   0.242   6.393  10.809
94951SOL    HW286751   0.117   6.479  10.809
94952SOL     OW86752   5.423   5.287   6.270
94952SOL    HW186753   5.347   5.316   6.220
94952SOL    HW286754   5.388   5.222   6.331
94953SOL     OW86755  14.705   2.366   1.114
94953SOL    HW186756  14.615   2.336   1.131
94953SOL    HW286757  14.706   2.457   1.143
94954SOL     OW86758  13.424   6.702   8.552
94954SOL    HW186759  13.358   6.673   8.489
94954SOL    HW286760  13.421   6.636   8.621
94955SOL     OW86761  14.549  10.420   2.252
94955SOL    HW186762  14.558  10.375   2.168
94955SOL    HW286763  14.617  10.487   2.251
94956SOL     OW86764  10.317  11.491   2.487
94956SOL    HW186765  10.261  11.493   2.564
94956SOL    HW286766  10.351  11.401   2.484
94957SOL     OW86767  10.731  12.834  10.164
94957SOL    HW186768  10.735  12.928  10.149
94957SOL    HW286769  10.637  12.814  10.169
94958SOL     OW86770  12.495  14.574   9.366
94958SOL    HW186771  12.503  14.624   9.447
94958SOL    HW286772  12.401  14.570   9.349
94959SOL     OW86773   4.497   1.225   3.989
94959SOL    HW186774   4.437   1.191   4.055
94959SOL    HW286775   4.490   1.164   3.916
94960SOL     OW86776   5.058   6.679  13.360
94960SOL    HW186777   5.055   6.588  13.329
94960SOL    HW286778   4.997   6.726  13.302
94961SOL     OW86779  12.122   5.485   7.076
94961SOL    HW186780  12.075   5.402   7.067
94961SOL    HW286781  12.204   5.461   7.121
94962SOL     OW86782   4.440   9.485   3.385
94962SOL    HW186783   4.517   9.540   3.398
94962SOL    HW286784   4.459   9.405   3.434
94963SOL     OW86785  11.907  11.350   2.087
94963SOL    HW186786  11.878  11.296   2.014
94963SOL    HW286787  11.947  11.427   2.046
94964SOL     OW86788  14.669  10.231   2.541
94964SOL    HW186789  14.740  10.254   2.480
94964SOL    HW286790  14.598  10.290   2.518
94965SOL     OW86791  11.179   5.342   2.689
94965SOL    HW186792  11.225   5.406   2.634
94965SOL    HW286793  11.120   5.296   2.630
94966SOL     OW86794  13.533   4.802   2.417
94966SOL    HW186795  13.526   4.848   2.334
94966SOL    HW286796  13.447   4.814   2.458
94967SOL     OW86797  12.213   3.259   5.907
94967SOL    HW186798  12.281   3.252   5.973
94967SOL    HW286799  12.256   3.297   5.830
94968SOL     OW86800  11.872   1.690   8.122
94968SOL    HW186801  11.784   1.690   8.087
94968SOL    HW286802  11.860   1.704   8.216
94969SOL     OW86803  13.812   7.168   3.815
94969SOL    HW186804  13.797   7.222   3.737
94969SOL    HW286805  13.893   7.120   3.796
94970SOL     OW86806  12.475   9.007   8.048
94970SOL    HW186807  12.469   9.066   8.124
94970SOL    HW286808  12.400   9.031   7.993
94971SOL     OW86809   2.379  10.118   5.496
94971SOL    HW186810   2.431  10.172   5.436
94971SOL    HW286811   2.304  10.173   5.518
94972SOL     OW86812   7.036   5.568  13.195
94972SOL    HW186813   6.964   5.528  13.243
94972SOL    HW286814   7.115   5.539  13.241
94973SOL     OW86815  13.837   1.097   2.500
94973SOL    HW186816  13.881   1.025   2.547
94973SOL    HW286817  13.905   1.163   2.489
94974SOL     OW86818   6.869   0.846  13.238
94974SOL    HW186819   6.961   0.867  13.223
94974SOL    HW286820   6.859   0.757  13.204
94975SOL     OW86821  11.049   6.615   1.221
94975SOL    HW186822  11.105   6.588   1.294
94975SOL    HW286823  11.051   6.541   1.161
94976SOL     OW86824  10.933   8.444   7.454
94976SOL    HW186825  10.997   8.515   7.455
94976SOL    HW286826  10.978   8.372   7.409
94977SOL     OW86827   2.779   1.739  14.423
94977SOL    HW186828   2.699   1.771  14.382
94977SOL    HW286829   2.780   1.645  14.403
94978SOL     OW86830   6.500  14.387  13.882
94978SOL    HW186831   6.419  14.381  13.831
94978SOL    HW286832   6.512  14.480  13.897
94979SOL     OW86833   5.960   0.282  14.517
94979SOL    HW186834   5.974   0.370  14.481
94979SOL    HW286835   5.870   0.259  14.492
94980SOL     OW86836   0.739   6.729  12.366
94980SOL    HW186837   0.788   6.780  12.430
94980SOL    HW286838   0.769   6.639  12.379
94981SOL     OW86839   1.385   7.666   5.567
94981SOL    HW186840   1.474   7.647   5.598
94981SOL    HW286841   1.354   7.735   5.624
94982SOL     OW86842   7.517  11.008   7.001
94982SOL    HW186843   7.469  11.032   6.922
94982SOL    HW286844   7.586  11.075   7.007
94983SOL     OW86845   1.071   1.381  13.999
94983SOL    HW186846   1.053   1.438  14.074
94983SOL    HW286847   1.113   1.438  13.935
94984SOL     OW86848   4.936   1.399   2.989
94984SOL    HW186849   4.866   1.464   2.980
94984SOL    HW286850   4.931   1.347   2.910
94985SOL     OW86851  10.262   7.515  14.263
94985SOL    HW186852  10.224   7.587  14.212
94985SOL    HW286853  10.248   7.540  14.354
94986SOL     OW86854  11.114   1.296   5.454
94986SOL    HW186855  11.069   1.226   5.406
94986SOL    HW286856  11.090   1.376   5.408
94987SOL     OW86857   9.589   8.038   3.044
94987SOL    HW186858   9.591   7.945   3.021
94987SOL    HW286859   9.680   8.059   3.063
94988SOL     OW86860   2.879   6.545   3.381
94988SOL    HW186861   2.883   6.637   3.353
94988SOL    HW286862   2.959   6.506   3.349
94989SOL     OW86863  12.834   2.162  11.318
94989SOL    HW186864  12.893   2.185  11.390
94989SOL    HW286865  12.785   2.087  11.350
94990SOL     OW86866  13.113  14.190   7.843
94990SOL    HW186867  13.150  14.119   7.790
94990SOL    HW286868  13.060  14.241   7.781
94991SOL     OW86869   5.459  12.152   3.907
94991SOL    HW186870   5.495  12.104   3.832
94991SOL    HW286871   5.373  12.181   3.877
94992SOL     OW86872   6.572   4.361  10.008
94992SOL    HW186873   6.485   4.376   9.971
94992SOL    HW286874   6.614   4.300   9.947
94993SOL     OW86875  12.130  14.355   1.982
94993SOL    HW186876  12.169  14.443   1.987
94993SOL    HW286877  12.089  14.343   2.068
94994SOL     OW86878   0.714   3.500   9.689
94994SOL    HW186879   0.738   3.563   9.757
94994SOL    HW286880   0.753   3.534   9.609
94995SOL     OW86881   8.257   9.621  10.729
94995SOL    HW186882   8.221   9.572  10.803
94995SOL    HW286883   8.249   9.562  10.654
94996SOL     OW86884   6.581   1.921  14.124
94996SOL    HW186885   6.569   2.016  14.132
94996SOL    HW286886   6.573   1.904  14.030
94997SOL     OW86887   0.479   4.744  12.907
94997SOL    HW186888   0.461   4.702  12.991
94997SOL    HW286889   0.491   4.837  12.928
94998SOL     OW86890   4.264   6.771   8.848
94998SOL    HW186891   4.196   6.739   8.906
94998SOL    HW286892   4.331   6.702   8.849
94999SOL     OW86893  12.152   4.900   4.175
94999SOL    HW186894  12.102   4.896   4.256
94999SOL    HW286895  12.152   4.993   4.152
95000SOL     OW86896   8.040  10.673   5.001
95000SOL    HW186897   7.988  10.747   5.033
95000SOL    HW286898   7.990  10.640   4.926
95001SOL     OW86899  10.716   7.541   1.508
95001SOL    HW186900  10.661   7.606   1.552
95001SOL    HW286901  10.743   7.481   1.578
95002SOL     OW86902   7.200   6.318  13.097
95002SOL    HW186903   7.258   6.252  13.136
95002SOL    HW286904   7.249   6.400  13.105
95003SOL     OW86905   7.936   8.469   2.961
95003SOL    HW186906   7.883   8.390   2.970
95003SOL    HW286907   8.025   8.437   2.949
95004SOL     OW86908   0.947   2.024   9.375
95004SOL    HW186909   0.948   1.942   9.425
95004SOL    HW286910   1.029   2.023   9.325
95005SOL     OW86911   9.198  10.810  11.121
95005SOL    HW186912   9.154  10.772  11.197
95005SOL    HW286913   9.263  10.744  11.096
95006SOL     OW86914   7.921   7.768   7.433
95006SOL    HW186915   7.900   7.823   7.508
95006SOL    HW286916   7.837   7.740   7.399
95007SOL     OW86917   0.754   5.366   2.295
95007SOL    HW186918   0.749   5.277   2.262
95007SOL    HW286919   0.841   5.372   2.335
95008SOL     OW86920   8.289   3.943  11.259
95008SOL    HW186921   8.223   4.011  11.273
95008SOL    HW286922   8.313   3.951  11.167
95009SOL     OW86923   5.325   8.655   5.278
95009SOL    HW186924   5.271   8.611   5.212
95009SOL    HW286925   5.415   8.645   5.246
95010SOL     OW86926   7.764  12.726  14.347
95010SOL    HW186927   7.724  12.672  14.416
95010SOL    HW286928   7.835  12.672  14.312
95011SOL     OW86929  13.893   7.380  13.766
95011SOL    HW186930  13.978   7.381  13.721
95011SOL    HW286931  13.881   7.289  13.793
95012SOL     OW86932  11.492   2.283  11.272
95012SOL    HW186933  11.551   2.358  11.272
95012SOL    HW286934  11.550   2.207  11.262
95013SOL     OW86935  10.906   3.828   0.605
95013SOL    HW186936  10.887   3.779   0.526
95013SOL    HW286937  10.986   3.877   0.585
95014SOL     OW86938   7.520   1.260   5.478
95014SOL    HW186939   7.436   1.232   5.442
95014SOL    HW286940   7.569   1.296   5.404
95015SOL     OW86941   2.530  14.427   5.348
95015SOL    HW186942   2.512  14.335   5.332
95015SOL    HW286943   2.603  14.427   5.410
95016SOL     OW86944   6.196   7.411  13.377
95016SOL    HW186945   6.274   7.407  13.432
95016SOL    HW286946   6.197   7.328  13.329
95017SOL     OW86947   6.457   4.831   6.733
95017SOL    HW186948   6.435   4.918   6.701
95017SOL    HW286949   6.416   4.771   6.671
95018SOL     OW86950   3.828   4.231   1.558
95018SOL    HW186951   3.738   4.263   1.553
95018SOL    HW286952   3.859   4.259   1.644
95019SOL     OW86953  12.149   7.149  13.984
95019SOL    HW186954  12.202   7.071  14.002
95019SOL    HW286955  12.177   7.177  13.896
95020SOL     OW86956  13.019   7.864   0.460
95020SOL    HW186957  13.108   7.891   0.438
95020SOL    HW286958  13.029   7.805   0.535
95021SOL     OW86959   4.897   1.721   0.026
95021SOL    HW186960   4.869   1.760   0.109
95021SOL    HW286961   4.897   1.627   0.043
95022SOL     OW86962   6.398  14.768   0.845
95022SOL    HW186963   6.421  14.850   0.801
95022SOL    HW286964   6.403  14.789   0.938
95023SOL     OW86965   6.383  10.884  14.349
95023SOL    HW186966   6.474  10.889  14.319
95023SOL    HW286967   6.360  10.974  14.371
95024SOL     OW86968   2.322   5.800   2.708
95024SOL    HW186969   2.239   5.838   2.681
95024SOL    HW286970   2.331   5.720   2.656
95025SOL     OW86971   9.623   9.743  13.622
95025SOL    HW186972   9.713   9.742  13.655
95025SOL    HW286973   9.589   9.829  13.645
95026SOL     OW86974   4.349   1.862   9.434
95026SOL    HW186975   4.436   1.855   9.472
95026SOL    HW286976   4.290   1.864   9.509
95027SOL     OW86977  11.388   7.519   7.674
95027SOL    HW186978  11.465   7.513   7.731
95027SOL    HW286979  11.317   7.547   7.732
95028SOL     OW86980   1.821   6.423   0.905
95028SOL    HW186981   1.841   6.491   0.842
95028SOL    HW286982   1.907   6.390   0.933
95029SOL     OW86983   0.701   3.530   6.255
95029SOL    HW186984   0.671   3.598   6.315
95029SOL    HW286985   0.759   3.475   6.308
95030SOL     OW86986  11.460  13.927   2.923
95030SOL    HW186987  11.548  13.912   2.959
95030SOL    HW286988  11.456  13.870   2.846
95031SOL     OW86989   9.550   4.470   3.429
95031SOL    HW186990   9.513   4.518   3.503
95031SOL    HW286991   9.527   4.379   3.446
95032SOL     OW86992   8.186  13.426   3.764
95032SOL    HW186993   8.209  13.334   3.780
95032SOL    HW286994   8.169  13.431   3.670
95033SOL     OW86995   4.034  12.511   4.612
95033SOL    HW186996   3.968  12.444   4.624
95033SOL    HW286997   4.115  12.472   4.644
95034SOL     OW86998   4.916   1.799   6.599
95034SOL    HW186999   4.886   1.791   6.689
95034SOL    HW287000   4.839   1.778   6.546
95035SOL     OW87001   0.049   4.191   7.915
95035SOL    HW187002   0.105   4.235   7.851
95035SOL    HW287003  14.829   4.215   7.889
95036SOL     OW87004   5.981   4.752   2.511
95036SOL    HW187005   5.909   4.696   2.483
95036SOL    HW287006   5.961   4.837   2.472
95037SOL     OW87007   2.183  10.463   0.629
95037SOL    HW187008   2.277  10.450   0.627
95037SOL    HW287009   2.157  10.475   0.538
95038SOL     OW87010   0.592   7.790  12.469
95038SOL    HW187011   0.620   7.730  12.399
95038SOL    HW287012   0.589   7.876  12.427
95039SOL     OW87013   2.608   4.003   5.324
95039SOL    HW187014   2.643   4.055   5.396
95039SOL    HW287015   2.644   3.916   5.338
95040SOL     OW87016   7.172   4.403  13.935
95040SOL    HW187017   7.128   4.479  13.975
95040SOL    HW287018   7.205   4.436  13.852
95041SOL     OW87019  12.568   7.350  13.864
95041SOL    HW187020  12.501   7.363  13.931
95041SOL    HW287021  12.587   7.438  13.832
95042SOL     OW87022   5.913  12.684   0.672
95042SOL    HW187023   5.908  12.725   0.586
95042SOL    HW287024   5.823  12.685   0.705
95043SOL     OW87025   3.801   8.429   2.384
95043SOL    HW187026   3.869   8.401   2.445
95043SOL    HW287027   3.782   8.351   2.331
95044SOL     OW87028   2.695   7.223   7.188
95044SOL    HW187029   2.754   7.295   7.210
95044SOL    HW287030   2.686   7.228   7.092
95045SOL     OW87031   2.412   5.275  14.040
95045SOL    HW187032   2.407   5.210  13.969
95045SOL    HW287033   2.349   5.243  14.105
95046SOL     OW87034   5.815   8.017   6.288
95046SOL    HW187035   5.810   7.997   6.381
95046SOL    HW287036   5.756   7.954   6.247
95047SOL     OW87037   6.282  11.144   6.563
95047SOL    HW187038   6.323  11.229   6.546
95047SOL    HW287039   6.355  11.088   6.590
95048SOL     OW87040   8.280  11.820   8.140
95048SOL    HW187041   8.305  11.783   8.224
95048SOL    HW287042   8.363  11.840   8.097
95049SOL     OW87043   1.106   1.180  14.186
95049SOL    HW187044   1.070   1.098  14.152
95049SOL    HW287045   1.069   1.248  14.129
95050SOL     OW87046  13.467   5.510  12.719
95050SOL    HW187047  13.556   5.540  12.733
95050SOL    HW287048  13.419   5.588  12.692
95051SOL     OW87049   6.366   0.580   2.513
95051SOL    HW187050   6.343   0.488   2.499
95051SOL    HW287051   6.286   0.628   2.492
95052SOL     OW87052  10.725  12.981   1.827
95052SOL    HW187053  10.784  13.034   1.773
95052SOL    HW287054  10.637  13.009   1.800
95053SOL     OW87055   4.694   4.804   9.186
95053SOL    HW187056   4.766   4.847   9.139
95053SOL    HW287057   4.615   4.830   9.137
95054SOL     OW87058   7.614  12.217  11.545
95054SOL    HW187059   7.587  12.296  11.591
95054SOL    HW287060   7.586  12.145  11.602
95055SOL     OW87061   8.415  10.161   5.631
95055SOL    HW187062   8.505  10.128   5.630
95055SOL    HW287063   8.367  10.097   5.684
95056SOL     OW87064  11.848  12.679   0.022
95056SOL    HW187065  11.770  12.714  14.850
95056SOL    HW287066  11.920  12.729  14.853
95057SOL     OW87067  13.835  14.432   7.219
95057SOL    HW187068  13.798  14.379   7.290
95057SOL    HW287069  13.762  14.447   7.159
95058SOL     OW87070   5.215  13.387   0.361
95058SOL    HW187071   5.185  13.296   0.364
95058SOL    HW287072   5.166  13.426   0.289
95059SOL     OW87073   8.176  13.129   3.971
95059SOL    HW187074   8.211  13.061   3.914
95059SOL    HW287075   8.236  13.131   4.046
95060SOL     OW87076   7.652   9.897   2.539
95060SOL    HW187077   7.737   9.938   2.556
95060SOL    HW287078   7.588   9.964   2.563
95061SOL     OW87079   4.772  10.661  12.897
95061SOL    HW187080   4.809  10.652  12.810
95061SOL    HW287081   4.835  10.617  12.955
95062SOL     OW87082   5.253   4.332   8.254
95062SOL    HW187083   5.183   4.270   8.274
95062SOL    HW287084   5.309   4.285   8.191
95063SOL     OW87085  13.755   2.648   1.247
95063SOL    HW187086  13.661   2.641   1.264
95063SOL    HW287087  13.795   2.582   1.304
95064SOL     OW87088   3.434   0.486  13.650
95064SOL    HW187089   3.383   0.452  13.723
95064SOL    HW287090   3.390   0.569  13.627
95065SOL     OW87091   5.175   0.671   5.541
95065SOL    HW187092   5.245   0.706   5.485
95065SOL    HW287093   5.219   0.647   5.622
95066SOL     OW87094  14.774   3.077   5.727
95066SOL    HW187095  14.736   3.015   5.665
95066SOL    HW287096  14.865   3.086   5.698
95067SOL     OW87097   2.130   9.424  12.617
95067SOL    HW187098   2.142   9.419  12.523
95067SOL    HW287099   2.042   9.389  12.632
95068SOL     OW87100   3.309   6.163  13.831
95068SOL    HW187101   3.239   6.130  13.774
95068SOL    HW287102   3.311   6.103  13.905
95069SOL     OW87103  10.082   1.050  12.605
95069SOL    HW187104  10.089   1.117  12.673
95069SOL    HW287105  10.042   0.975  12.649
95070SOL     OW87106   0.459   9.838   7.238
95070SOL    HW187107   0.483   9.796   7.320
95070SOL    HW287108   0.463   9.767   7.173
95071SOL     OW87109   4.201   8.170   6.887
95071SOL    HW187110   4.203   8.169   6.791
95071SOL    HW287111   4.109   8.155   6.909
95072SOL     OW87112   4.187   7.396  13.628
95072SOL    HW187113   4.113   7.456  13.616
95072SOL    HW287114   4.152   7.325  13.682
95073SOL     OW87115   9.825  13.636   9.314
95073SOL    HW187116   9.914  13.668   9.325
95073SOL    HW287117   9.808  13.643   9.220
95074SOL     OW87118   3.905   1.611   7.083
95074SOL    HW187119   3.929   1.703   7.067
95074SOL    HW287120   3.879   1.609   7.175
95075SOL     OW87121   3.761  13.708   9.250
95075SOL    HW187122   3.713  13.778   9.204
95075SOL    HW287123   3.699  13.677   9.316
95076SOL     OW87124   0.782  12.611   6.841
95076SOL    HW187125   0.796  12.650   6.927
95076SOL    HW287126   0.732  12.677   6.793
95077SOL     OW87127   1.587   1.540  14.257
95077SOL    HW187128   1.611   1.598  14.329
95077SOL    HW287129   1.661   1.545  14.197
95078SOL     OW87130   3.438   2.299  13.455
95078SOL    HW187131   3.508   2.242  13.425
95078SOL    HW287132   3.461   2.320  13.546
95079SOL     OW87133   2.926   3.176   9.055
95079SOL    HW187134   2.837   3.156   9.085
95079SOL    HW287135   2.915   3.209   8.966
95080SOL     OW87136   7.163   9.222  12.635
95080SOL    HW187137   7.155   9.127  12.648
95080SOL    HW287138   7.116   9.260  12.709
95081SOL     OW87139  10.190   9.859   2.103
95081SOL    HW187140  10.126   9.846   2.173
95081SOL    HW287141  10.152   9.928   2.048
95082SOL     OW87142  10.379   3.122   3.306
95082SOL    HW187143  10.448   3.089   3.248
95082SOL    HW287144  10.312   3.054   3.304
95083SOL     OW87145   1.901   2.628  13.063
95083SOL    HW187146   1.923   2.706  13.113
95083SOL    HW287147   1.841   2.660  12.995
95084SOL     OW87148  14.222  13.628   7.477
95084SOL    HW187149  14.164  13.661   7.546
95084SOL    HW287150  14.264  13.551   7.515
95085SOL     OW87151  10.997   2.040   3.056
95085SOL    HW187152  10.981   2.128   3.020
95085SOL    HW287153  10.917   1.992   3.037
95086SOL     OW87154   8.160   4.860   2.796
95086SOL    HW187155   8.202   4.925   2.852
95086SOL    HW287156   8.219   4.785   2.798
95087SOL     OW87157   6.661  12.826  10.579
95087SOL    HW187158   6.642  12.876  10.499
95087SOL    HW287159   6.584  12.771  10.591
95088SOL     OW87160   3.443  10.482  11.554
95088SOL    HW187161   3.497  10.553  11.521
95088SOL    HW287162   3.453  10.411  11.491
95089SOL     OW87163  11.671   6.459   7.791
95089SOL    HW187164  11.721   6.413   7.723
95089SOL    HW287165  11.619   6.390   7.833
95090SOL     OW87166   3.368   6.379  10.026
95090SOL    HW187167   3.301   6.329   9.978
95090SOL    HW287168   3.443   6.321  10.029
95091SOL     OW87169   4.146   3.608  12.882
95091SOL    HW187170   4.113   3.639  12.798
95091SOL    HW287171   4.213   3.544  12.859
95092SOL     OW87172   5.546   1.541   8.402
95092SOL    HW187173   5.493   1.606   8.449
95092SOL    HW287174   5.569   1.583   8.319
95093SOL     OW87175  11.247  11.742   7.326
95093SOL    HW187176  11.158  11.739   7.292
95093SOL    HW287177  11.256  11.831   7.362
95094SOL     OW87178  11.219  13.499  12.113
95094SOL    HW187179  11.157  13.435  12.146
95094SOL    HW287180  11.167  13.556  12.056
95095SOL     OW87181   5.368   8.047   7.440
95095SOL    HW187182   5.308   8.067   7.511
95095SOL    HW287183   5.374   7.952   7.439
95096SOL     OW87184  10.343   3.918   4.689
95096SOL    HW187185  10.393   3.908   4.608
95096SOL    HW287186  10.407   3.903   4.759
95097SOL     OW87187   3.378   3.031   4.036
95097SOL    HW187188   3.423   2.949   4.053
95097SOL    HW287189   3.300   3.028   4.092
95098SOL     OW87190  14.521  10.435  10.454
95098SOL    HW187191  14.587  10.391  10.509
95098SOL    HW287192  14.439  10.390  10.475
95099SOL     OW87193  14.869   1.044   4.663
95099SOL    HW187194   0.001   0.949   4.678
95099SOL    HW287195   0.015   1.054   4.569
95100SOL     OW87196   4.925  12.009   9.672
95100SOL    HW187197   4.842  11.990   9.628
95100SOL    HW287198   4.910  11.984   9.763
95101SOL     OW87199  11.601  13.333   8.494
95101SOL    HW187200  11.523  13.328   8.550
95101SOL    HW287201  11.620  13.427   8.489
95102SOL     OW87202   6.059   0.048   1.713
95102SOL    HW187203   6.083   0.136   1.684
95102SOL    HW287204   5.977   0.060   1.760
95103SOL     OW87205   1.459   1.240   5.273
95103SOL    HW187206   1.427   1.153   5.250
95103SOL    HW287207   1.459   1.289   5.190
95104SOL     OW87208   4.657   3.527   9.892
95104SOL    HW187209   4.572   3.553   9.857
95104SOL    HW287210   4.637   3.458   9.955
95105SOL     OW87211   6.462  11.821   5.985
95105SOL    HW187212   6.523  11.754   5.953
95105SOL    HW287213   6.377  11.778   5.981
95106SOL     OW87214   0.800   1.011   2.586
95106SOL    HW187215   0.826   1.100   2.611
95106SOL    HW287216   0.880   0.973   2.551
95107SOL     OW87217  11.220   0.548   0.972
95107SOL    HW187218  11.280   0.618   0.945
95107SOL    HW287219  11.251   0.471   0.925
95108SOL     OW87220  10.988   9.610   8.536
95108SOL    HW187221  10.975   9.515   8.535
95108SOL    HW287222  11.053   9.624   8.605
95109SOL     OW87223   2.473  11.363   2.708
95109SOL    HW187224   2.415  11.290   2.732
95109SOL    HW287225   2.500  11.342   2.618
95110SOL     OW87226   7.332   6.685   5.541
95110SOL    HW187227   7.351   6.637   5.461
95110SOL    HW287228   7.239   6.708   5.533
95111SOL     OW87229  11.002   6.003  14.117
95111SOL    HW187230  11.068   6.063  14.082
95111SOL    HW287231  10.983   5.943  14.044
95112SOL     OW87232   4.581   0.997   6.796
95112SOL    HW187233   4.560   1.085   6.828
95112SOL    HW287234   4.622   1.012   6.711
95113SOL     OW87235  12.543  10.023  10.632
95113SOL    HW187236  12.600  10.076  10.576
95113SOL    HW287237  12.520   9.948  10.577
95114SOL     OW87238   4.183   2.686   7.028
95114SOL    HW187239   4.129   2.611   7.051
95114SOL    HW287240   4.228   2.709   7.109
95115SOL     OW87241  13.177  12.790  14.820
95115SOL    HW187242  13.191  12.747  14.736
95115SOL    HW287243  13.181  12.718   0.014
95116SOL     OW87244  13.820  12.441  11.458
95116SOL    HW187245  13.849  12.468  11.545
95116SOL    HW287246  13.896  12.396  11.421
95117SOL     OW87247   9.525   4.097   9.525
95117SOL    HW187248   9.457   4.044   9.567
95117SOL    HW287249   9.484   4.183   9.515
95118SOL     OW87250  10.139   3.582   9.679
95118SOL    HW187251  10.130   3.557   9.771
95118SOL    HW287252  10.062   3.545   9.637
95119SOL     OW87253   9.597   8.702  10.359
95119SOL    HW187254   9.623   8.706  10.451
95119SOL    HW287255   9.502   8.713  10.361
95120SOL     OW87256   9.478  11.531   8.448
95120SOL    HW187257   9.490  11.437   8.456
95120SOL    HW287258   9.533  11.557   8.374
95121SOL     OW87259   7.963   6.872   8.599
95121SOL    HW187260   8.002   6.897   8.683
95121SOL    HW287261   7.951   6.777   8.606
95122SOL     OW87262   0.891   1.352   5.534
95122SOL    HW187263   0.913   1.442   5.560
95122SOL    HW287264   0.877   1.306   5.617
95123SOL     OW87265   1.491   1.604   9.700
95123SOL    HW187266   1.555   1.650   9.645
95123SOL    HW287267   1.468   1.526   9.650
95124SOL     OW87268   4.349  10.072   6.092
95124SOL    HW187269   4.431  10.022   6.082
95124SOL    HW287270   4.282  10.012   6.060
95125SOL     OW87271   2.605  13.572   2.425
95125SOL    HW187272   2.592  13.639   2.358
95125SOL    HW287273   2.546  13.501   2.399
95126SOL     OW87274   5.556  13.587   9.547
95126SOL    HW187275   5.513  13.669   9.522
95126SOL    HW287276   5.489  13.538   9.595
95127SOL     OW87277   8.473   7.384   9.630
95127SOL    HW187278   8.407   7.321   9.602
95127SOL    HW287279   8.455   7.462   9.577
95128SOL     OW87280  11.411  14.194   5.690
95128SOL    HW187281  11.419  14.153   5.776
95128SOL    HW287282  11.402  14.120   5.629
95129SOL     OW87283   0.764  13.146  12.277
95129SOL    HW187284   0.693  13.122  12.337
95129SOL    HW287285   0.762  13.242  12.276
95130SOL     OW87286   0.124  10.198  13.031
95130SOL    HW187287   0.121  10.252  12.952
95130SOL    HW287288   0.186  10.243  13.088
95131SOL     OW87289   5.947   1.247   6.313
95131SOL    HW187290   5.994   1.325   6.286
95131SOL    HW287291   5.950   1.189   6.236
95132SOL     OW87292   2.349   4.718   8.121
95132SOL    HW187293   2.325   4.640   8.071
95132SOL    HW287294   2.324   4.791   8.064
95133SOL     OW87295   8.720   6.668   0.463
95133SOL    HW187296   8.672   6.695   0.542
95133SOL    HW287297   8.706   6.574   0.457
95134SOL     OW87298  12.405  13.721  12.722
95134SOL    HW187299  12.367  13.776  12.653
95134SOL    HW287300  12.496  13.709  12.696
95135SOL     OW87301   4.867   3.874  11.845
95135SOL    HW187302   4.887   3.915  11.761
95135SOL    HW287303   4.853   3.782  11.824
95136SOL     OW87304   6.341   6.411   6.496
95136SOL    HW187305   6.408   6.362   6.543
95136SOL    HW287306   6.258   6.384   6.536
95137SOL     OW87307  10.039   8.542   8.841
95137SOL    HW187308  10.104   8.479   8.873
95137SOL    HW287309   9.971   8.488   8.800
95138SOL     OW87310  11.149   4.702   4.244
95138SOL    HW187311  11.217   4.761   4.275
95138SOL    HW287312  11.119   4.657   4.323
95139SOL     OW87313  11.179   0.138   7.035
95139SOL    HW187314  11.158   0.168   7.123
95139SOL    HW287315  11.107   0.171   6.981
95140SOL     OW87316   6.085   6.178   3.842
95140SOL    HW187317   6.123   6.175   3.930
95140SOL    HW287318   6.133   6.112   3.793
95141SOL     OW87319   7.882   0.304   5.728
95141SOL    HW187320   7.922   0.384   5.762
95141SOL    HW287321   7.931   0.233   5.768
95142SOL     OW87322   4.693  13.797  12.155
95142SOL    HW187323   4.748  13.851  12.213
95142SOL    HW287324   4.725  13.707  12.170
95143SOL     OW87325   7.065   9.571   9.779
95143SOL    HW187326   7.041   9.584   9.687
95143SOL    HW287327   7.090   9.478   9.784
95144SOL     OW87328  13.282   7.118   4.432
95144SOL    HW187329  13.377   7.114   4.440
95144SOL    HW287330  13.265   7.105   4.339
95145SOL     OW87331   0.488  12.467   0.468
95145SOL    HW187332   0.578  12.494   0.487
95145SOL    HW287333   0.478  12.384   0.515
95146SOL     OW87334   9.989   4.831   3.187
95146SOL    HW187335  10.031   4.752   3.154
95146SOL    HW287336   9.922   4.800   3.247
95147SOL     OW87337  10.633  13.848   9.437
95147SOL    HW187338  10.601  13.929   9.396
95147SOL    HW287339  10.567  13.783   9.417
95148SOL     OW87340  11.493   6.449   1.367
95148SOL    HW187341  11.531   6.503   1.298
95148SOL    HW287342  11.567   6.420   1.420
95149SOL     OW87343  14.257   8.072   7.037
95149SOL    HW187344  14.317   8.007   7.074
95149SOL    HW287345  14.287   8.085   6.947
95150SOL     OW87346   8.711  12.664   9.486
95150SOL    HW187347   8.634  12.670   9.543
95150SOL    HW287348   8.766  12.597   9.526
95151SOL     OW87349   0.402   8.352  12.061
95151SOL    HW187350   0.416   8.389  11.974
95151SOL    HW287351   0.306   8.349  12.070
95152SOL     OW87352   8.584  12.277  10.227
95152SOL    HW187353   8.666  12.311  10.262
95152SOL    HW287354   8.523  12.351  10.230
95153SOL     OW87355  12.019   1.011   4.773
95153SOL    HW187356  12.009   1.085   4.713
95153SOL    HW287357  11.981   1.041   4.855
95154SOL     OW87358   1.717   9.608   7.391
95154SOL    HW187359   1.659   9.678   7.422
95154SOL    HW287360   1.723   9.548   7.464
95155SOL     OW87361   1.814  14.388  10.284
95155SOL    HW187362   1.806  14.451  10.356
95155SOL    HW287363   1.859  14.436  10.215
95156SOL     OW87364   4.874   6.206   1.884
95156SOL    HW187365   4.820   6.170   1.955
95156SOL    HW287366   4.816   6.265   1.837
95157SOL     OW87367   0.659   1.472   5.123
95157SOL    HW187368   0.598   1.399   5.131
95157SOL    HW287369   0.741   1.431   5.096
95158SOL     OW87370   5.678   9.840   2.029
95158SOL    HW187371   5.621   9.816   1.956
95158SOL    HW287372   5.620   9.839   2.106
95159SOL     OW87373  11.252   0.635  12.062
95159SOL    HW187374  11.307   0.635  11.984
95159SOL    HW287375  11.315   0.630  12.135
95160SOL     OW87376   6.907   9.875   0.537
95160SOL    HW187377   6.894   9.890   0.443
95160SOL    HW287378   6.987   9.923   0.558
95161SOL     OW87379   9.035   9.716   0.552
95161SOL    HW187380   8.988   9.634   0.568
95161SOL    HW287381   9.062   9.711   0.460
95162SOL     OW87382   0.368   7.085   8.263
95162SOL    HW187383   0.370   7.007   8.207
95162SOL    HW287384   0.456   7.122   8.255
95163SOL     OW87385   9.302   0.661   9.891
95163SOL    HW187386   9.346   0.668   9.807
95163SOL    HW287387   9.250   0.741   9.897
95164SOL     OW87388   0.677   8.459   4.802
95164SOL    HW187389   0.693   8.402   4.878
95164SOL    HW287390   0.753   8.444   4.745
95165SOL     OW87391  12.901  12.144   7.837
95165SOL    HW187392  12.810  12.139   7.809
95165SOL    HW287393  12.951  12.111   7.763
95166SOL     OW87394  11.163   5.154   2.306
95166SOL    HW187395  11.204   5.090   2.363
95166SOL    HW287396  11.107   5.103   2.247
95167SOL     OW87397   8.386   0.709  13.711
95167SOL    HW187398   8.476   0.733  13.686
95167SOL    HW287399   8.384   0.614  13.704
95168SOL     OW87400   5.346   1.744   6.354
95168SOL    HW187401   5.323   1.795   6.277
95168SOL    HW287402   5.369   1.809   6.420
95169SOL     OW87403   5.918   3.418  13.632
95169SOL    HW187404   6.004   3.381  13.612
95169SOL    HW287405   5.937   3.491  13.692
95170SOL     OW87406   9.725  14.289   8.243
95170SOL    HW187407   9.708  14.213   8.299
95170SOL    HW287408   9.640  14.332   8.233
95171SOL     OW87409   7.853   6.436   0.768
95171SOL    HW187410   7.867   6.530   0.778
95171SOL    HW287411   7.851   6.422   0.673
95172SOL     OW87412  13.354   0.311  10.633
95172SOL    HW187413  13.334   0.392  10.587
95172SOL    HW287414  13.273   0.289  10.680
95173SOL     OW87415   0.113   7.925   8.991
95173SOL    HW187416   0.196   7.968   9.011
95173SOL    HW287417   0.082   7.968   8.912
95174SOL     OW87418   0.300   1.322   8.398
95174SOL    HW187419   0.275   1.243   8.349
95174SOL    HW287420   0.271   1.305   8.487
95175SOL     OW87421   8.639  14.446   2.728
95175SOL    HW187422   8.704  14.463   2.796
95175SOL    HW287423   8.609  14.532   2.700
95176SOL     OW87424  13.245   2.298  12.547
95176SOL    HW187425  13.270   2.237  12.479
95176SOL    HW287426  13.274   2.383  12.515
95177SOL     OW87427   5.332  12.419   7.743
95177SOL    HW187428   5.378  12.502   7.753
95177SOL    HW287429   5.346  12.395   7.651
95178SOL     OW87430   8.721   0.073   1.480
95178SOL    HW187431   8.639   0.026   1.486
95178SOL    HW287432   8.760   0.045   1.397
95179SOL     OW87433  11.718   5.868   0.393
95179SOL    HW187434  11.668   5.927   0.449
95179SOL    HW287435  11.691   5.890   0.304
95180SOL     OW87436   5.991   5.659  14.221
95180SOL    HW187437   5.906   5.616  14.223
95180SOL    HW287438   5.972   5.748  14.193
95181SOL     OW87439   1.473   9.373  13.257
95181SOL    HW187440   1.517   9.365  13.172
95181SOL    HW287441   1.519   9.444  13.301
95182SOL     OW87442  14.313   5.662   7.565
95182SOL    HW187443  14.357   5.579   7.549
95182SOL    HW287444  14.229   5.654   7.518
95183SOL     OW87445   8.834   2.503  14.795
95183SOL    HW187446   8.747   2.498  14.836
95183SOL    HW287447   8.816   2.524  14.703
95184SOL     OW87448   6.399   4.682   7.489
95184SOL    HW187449   6.446   4.765   7.492
95184SOL    HW287450   6.309   4.706   7.467
95185SOL     OW87451   8.352  14.233   5.021
95185SOL    HW187452   8.282  14.168   5.030
95185SOL    HW287453   8.319  14.310   5.067
95186SOL     OW87454  12.889  11.304  10.990
95186SOL    HW187455  12.955  11.373  10.998
95186SOL    HW287456  12.928  11.240  10.930
95187SOL     OW87457   0.872   2.751   0.579
95187SOL    HW187458   0.846   2.804   0.655
95187SOL    HW287459   0.855   2.808   0.504
95188SOL     OW87460  13.142  14.621   1.142
95188SOL    HW187461  13.201  14.597   1.071
95188SOL    HW287462  13.149  14.716   1.148
95189SOL     OW87463   6.543  12.735   0.213
95189SOL    HW187464   6.460  12.766   0.177
95189SOL    HW287465   6.609  12.770   0.152
95190SOL     OW87466   6.762   1.133  10.791
95190SOL    HW187467   6.850   1.095  10.797
95190SOL    HW287468   6.715   1.094  10.864
95191SOL     OW87469  14.055  14.598   6.473
95191SOL    HW187470  13.964  14.622   6.489
95191SOL    HW287471  14.105  14.652   6.534
95192SOL     OW87472  14.565   2.191  12.514
95192SOL    HW187473  14.528   2.112  12.476
95192SOL    HW287474  14.646   2.206  12.464
95193SOL     OW87475  11.909   1.486  13.622
95193SOL    HW187476  11.953   1.468  13.539
95193SOL    HW287477  11.959   1.435  13.687
95194SOL     OW87478   0.802   0.729   5.792
95194SOL    HW187479   0.844   0.664   5.848
95194SOL    HW287480   0.724   0.685   5.758
95195SOL     OW87481  11.416   3.229   0.271
95195SOL    HW187482  11.373   3.205   0.353
95195SOL    HW287483  11.345   3.238   0.208
95196SOL     OW87484   3.038   9.497  14.173
95196SOL    HW187485   2.958   9.467  14.217
95196SOL    HW287486   3.101   9.427  14.188
95197SOL     OW87487   9.955   9.779  10.188
95197SOL    HW187488   9.980   9.753  10.099
95197SOL    HW287489   9.868   9.742  10.201
95198SOL     OW87490  10.247   2.466  12.918
95198SOL    HW187491  10.286   2.400  12.861
95198SOL    HW287492  10.323   2.507  12.961
95199SOL     OW87493   5.103   0.410   9.219
95199SOL    HW187494   5.108   0.315   9.231
95199SOL    HW287495   5.038   0.439   9.282
95200SOL     OW87496  12.113   1.969   2.424
95200SOL    HW187497  12.059   1.933   2.493
95200SOL    HW287498  12.051   1.992   2.354
95201SOL     OW87499  13.395  10.590   3.497
95201SOL    HW187500  13.424  10.533   3.426
95201SOL    HW287501  13.457  10.575   3.568
95202SOL     OW87502   6.415   1.610   1.636
95202SOL    HW187503   6.468   1.654   1.568
95202SOL    HW287504   6.390   1.681   1.695
95203SOL     OW87505  11.400  13.215   5.345
95203SOL    HW187506  11.349  13.137   5.326
95203SOL    HW287507  11.363  13.283   5.288
95204SOL     OW87508  10.183   6.431  12.324
95204SOL    HW187509  10.101   6.382  12.336
95204SOL    HW287510  10.210   6.412  12.234
95205SOL     OW87511  13.576  14.278   6.139
95205SOL    HW187512  13.521  14.263   6.062
95205SOL    HW287513  13.565  14.371   6.158
95206SOL     OW87514   7.228   7.196   6.925
95206SOL    HW187515   7.310   7.153   6.900
95206SOL    HW287516   7.228   7.192   7.021
95207SOL     OW87517  10.497   8.496   8.641
95207SOL    HW187518  10.542   8.491   8.725
95207SOL    HW287519  10.484   8.590   8.626
95208SOL     OW87520   5.265  14.835   4.934
95208SOL    HW187521   5.347  14.828   4.885
95208SOL    HW287522   5.276   0.043   4.989
95209SOL     OW87523  10.977   4.234   8.231
95209SOL    HW187524  11.070   4.222   8.208
95209SOL    HW287525  10.940   4.146   8.225
95210SOL     OW87526  12.354   9.975   6.216
95210SOL    HW187527  12.380  10.048   6.160
95210SOL    HW287528  12.401   9.990   6.298
95211SOL     OW87529   9.503   4.469  10.143
95211SOL    HW187530   9.468   4.538  10.086
95211SOL    HW287531   9.431   4.407  10.152
95212SOL     OW87532   7.959   4.612  10.111
95212SOL    HW187533   7.963   4.677  10.042
95212SOL    HW287534   7.894   4.645  10.173
95213SOL     OW87535  13.217   2.029   0.510
95213SOL    HW187536  13.129   2.022   0.474
95213SOL    HW287537  13.218   2.111   0.559
95214SOL     OW87538   0.481   1.430  13.716
95214SOL    HW187539   0.511   1.428  13.807
95214SOL    HW287540   0.470   1.523  13.697
95215SOL     OW87541   2.237  14.863   0.962
95215SOL    HW187542   2.237  14.809   1.041
95215SOL    HW287543   2.306   0.058   0.977
95216SOL     OW87544   4.732   0.303   2.629
95216SOL    HW187545   4.742   0.340   2.717
95216SOL    HW287546   4.682   0.222   2.643
95217SOL     OW87547   2.320  10.812   4.291
95217SOL    HW187548   2.344  10.810   4.198
95217SOL    HW287549   2.255  10.743   4.300
95218SOL     OW87550   8.759   1.941   6.134
95218SOL    HW187551   8.823   1.955   6.065
95218SOL    HW287552   8.717   1.858   6.113
95219SOL     OW87553  14.274   7.372   2.619
95219SOL    HW187554  14.351   7.423   2.643
95219SOL    HW287555  14.238   7.343   2.703
95220SOL     OW87556   0.989   8.272  14.177
95220SOL    HW187557   0.944   8.347  14.216
95220SOL    HW287558   1.080   8.301  14.170
95221SOL     OW87559  12.373   4.214  13.839
95221SOL    HW187560  12.327   4.223  13.923
95221SOL    HW287561  12.435   4.142  13.854
95222SOL     OW87562  10.800  11.463   1.378
95222SOL    HW187563  10.769  11.549   1.407
95222SOL    HW287564  10.891  11.459   1.405
95223SOL     OW87565  12.569   0.643   4.760
95223SOL    HW187566  12.563   0.736   4.782
95223SOL    HW287567  12.567   0.598   4.845
95224SOL     OW87568   2.395   5.715  12.009
95224SOL    HW187569   2.465   5.772  12.041
95224SOL    HW287570   2.419   5.696  11.918
95225SOL     OW87571  13.930   2.229   7.547
95225SOL    HW187572  13.876   2.306   7.561
95225SOL    HW287573  13.999   2.236   7.613
95226SOL     OW87574  11.579  13.826   7.033
95226SOL    HW187575  11.580  13.797   6.942
95226SOL    HW287576  11.652  13.779   7.074
95227SOL     OW87577  10.814   4.704  14.161
95227SOL    HW187578  10.772   4.751  14.233
95227SOL    HW287579  10.875   4.644  14.204
95228SOL     OW87580  13.329  14.483   6.525
95228SOL    HW187581  13.301  14.481   6.434
95228SOL    HW287582  13.310  14.572   6.554
95229SOL     OW87583   6.827   6.355  13.723
95229SOL    HW187584   6.827   6.261  13.740
95229SOL    HW287585   6.905   6.388  13.767
95230SOL     OW87586   0.902  12.631  14.787
95230SOL    HW187587   0.908  12.662  14.697
95230SOL    HW287588   0.941  12.543  14.784
95231SOL     OW87589  14.500   3.702  11.000
95231SOL    HW187590  14.425   3.737  10.952
95231SOL    HW287591  14.480   3.609  11.012
95232SOL     OW87592  11.270  10.811  10.410
95232SOL    HW187593  11.182  10.810  10.372
95232SOL    HW287594  11.329  10.804  10.334
95233SOL     OW87595   8.615   1.187   6.298
95233SOL    HW187596   8.672   1.264   6.300
95233SOL    HW287597   8.531   1.218   6.331
95234SOL     OW87598  14.699   6.591  12.199
95234SOL    HW187599  14.615   6.545  12.207
95234SOL    HW287600  14.740   6.581  12.285
95235SOL     OW87601   2.089   2.357  13.906
95235SOL    HW187602   2.053   2.352  13.994
95235SOL    HW287603   2.016   2.388  13.852
95236SOL     OW87604  13.832  12.753   3.684
95236SOL    HW187605  13.749  12.709   3.667
95236SOL    HW287606  13.852  12.734   3.775
95237SOL     OW87607   2.797  13.169   1.750
95237SOL    HW187608   2.888  13.144   1.737
95237SOL    HW287609   2.782  13.160   1.844
95238SOL     OW87610   4.583  13.566   5.245
95238SOL    HW187611   4.572  13.525   5.160
95238SOL    HW287612   4.494  13.571   5.281
95239SOL     OW87613  10.293   2.910   5.151
95239SOL    HW187614  10.234   2.919   5.226
95239SOL    HW287615  10.268   2.981   5.092
95240SOL     OW87616   0.695   8.977  12.367
95240SOL    HW187617   0.786   8.974  12.396
95240SOL    HW287618   0.689   8.910  12.299
95241SOL     OW87619  11.931   9.951   3.437
95241SOL    HW187620  12.021   9.939   3.405
95241SOL    HW287621  11.877   9.904   3.373
95242SOL     OW87622   9.860   8.281  10.693
95242SOL    HW187623   9.914   8.203  10.681
95242SOL    HW287624   9.877   8.334  10.615
95243SOL     OW87625  13.493  14.188   9.109
95243SOL    HW187626  13.507  14.173   9.015
95243SOL    HW287627  13.490  14.283   9.117
95244SOL     OW87628  11.075   6.065  10.493
95244SOL    HW187629  11.026   6.081  10.412
95244SOL    HW287630  11.108   6.151  10.519
95245SOL     OW87631  10.091   2.081  14.703
95245SOL    HW187632  10.156   2.060  14.770
95245SOL    HW287633  10.057   1.996  14.674
95246SOL     OW87634   1.451  12.840   7.021
95246SOL    HW187635   1.401  12.790   7.085
95246SOL    HW287636   1.534  12.858   7.065
95247SOL     OW87637   0.918   5.536   8.435
95247SOL    HW187638   0.954   5.506   8.518
95247SOL    HW287639   0.830   5.569   8.458
95248SOL     OW87640  12.877   6.603  14.493
95248SOL    HW187641  12.866   6.509  14.505
95248SOL    HW287642  12.788   6.637  14.488
95249SOL     OW87643  10.914   5.418   3.893
95249SOL    HW187644  10.841   5.355   3.894
95249SOL    HW287645  10.915   5.454   3.982
95250SOL     OW87646   1.125  14.410  12.415
95250SOL    HW187647   1.044  14.369  12.445
95250SOL    HW287648   1.102  14.503  12.403
95251SOL     OW87649  12.618   5.815   5.450
95251SOL    HW187650  12.529   5.796   5.418
95251SOL    HW287651  12.627   5.910   5.438
95252SOL     OW87652   8.743  14.316   9.622
95252SOL    HW187653   8.812  14.302   9.687
95252SOL    HW287654   8.672  14.359   9.670
95253SOL     OW87655   2.428   7.451   1.454
95253SOL    HW187656   2.400   7.541   1.434
95253SOL    HW287657   2.518   7.446   1.422
95254SOL     OW87658   7.803  13.719   4.559
95254SOL    HW187659   7.780  13.795   4.612
95254SOL    HW287660   7.894  13.735   4.533
95255SOL     OW87661  14.027   7.585   6.775
95255SOL    HW187662  14.111   7.564   6.815
95255SOL    HW287663  14.043   7.576   6.681
95256SOL     OW87664   4.124   0.736   8.944
95256SOL    HW187665   4.214   0.748   8.912
95256SOL    HW287666   4.108   0.814   8.997
95257SOL     OW87667   6.486   5.807  14.330
95257SOL    HW187668   6.451   5.719  14.314
95257SOL    HW287669   6.412   5.865  14.319
95258SOL     OW87670   3.966  14.265   7.422
95258SOL    HW187671   3.894  14.319   7.389
95258SOL    HW287672   4.032  14.328   7.449
95259SOL     OW87673   5.546   8.619  13.543
95259SOL    HW187674   5.591   8.534  13.547
95259SOL    HW287675   5.583   8.669  13.616
95260SOL     OW87676   5.099   0.723   5.896
95260SOL    HW187677   5.091   0.806   5.849
95260SOL    HW287678   5.144   0.746   5.977
95261SOL     OW87679  13.852   5.015  14.038
95261SOL    HW187680  13.939   5.040  14.007
95261SOL    HW287681  13.868   4.976  14.123
95262SOL     OW87682   3.410   7.823   0.055
95262SOL    HW187683   3.419   7.901   0.001
95262SOL    HW287684   3.390   7.753  14.862
95263SOL     OW87685   7.344   5.387   0.342
95263SOL    HW187686   7.335   5.468   0.292
95263SOL    HW287687   7.267   5.385   0.399
95264SOL     OW87688   7.841   1.510   3.863
95264SOL    HW187689   7.876   1.553   3.941
95264SOL    HW287690   7.824   1.420   3.892
95265SOL     OW87691  10.146  14.565   1.641
95265SOL    HW187692  10.131  14.502   1.710
95265SOL    HW287693  10.241  14.565   1.629
95266SOL     OW87694   3.736   8.800   7.917
95266SOL    HW187695   3.667   8.773   7.857
95266SOL    HW287696   3.810   8.821   7.860
95267SOL     OW87697   8.741  11.748  11.508
95267SOL    HW187698   8.822  11.698  11.499
95267SOL    HW287699   8.752  11.822  11.448
95268SOL     OW87700   4.419   5.536   8.795
95268SOL    HW187701   4.393   5.628   8.790
95268SOL    HW287702   4.487   5.534   8.862
95269SOL     OW87703   7.632   9.099  10.368
95269SOL    HW187704   7.708   9.148  10.398
95269SOL    HW287705   7.645   9.089  10.274
95270SOL     OW87706   8.500   8.392  10.273
95270SOL    HW187707   8.488   8.327  10.203
95270SOL    HW287708   8.454   8.355  10.348
95271SOL     OW87709  10.586   1.352  14.064
95271SOL    HW187710  10.572   1.433  14.015
95271SOL    HW287711  10.503   1.304  14.056
95272SOL     OW87712   3.631  13.265   6.546
95272SOL    HW187713   3.546  13.225   6.563
95272SOL    HW287714   3.631  13.345   6.598
95273SOL     OW87715   3.920  13.307  10.254
95273SOL    HW187716   3.888  13.339  10.170
95273SOL    HW287717   3.985  13.241  10.231
95274SOL     OW87718  12.613   9.199  14.197
95274SOL    HW187719  12.689   9.225  14.145
95274SOL    HW287720  12.544   9.182  14.132
95275SOL     OW87721  12.746  13.537   7.082
95275SOL    HW187722  12.751  13.611   7.021
95275SOL    HW287723  12.668  13.489   7.056
95276SOL     OW87724  10.659   5.358  11.152
95276SOL    HW187725  10.693   5.272  11.127
95276SOL    HW287726  10.568   5.341  11.177
95277SOL     OW87727  11.733   1.836   8.393
95277SOL    HW187728  11.668   1.832   8.323
95277SOL    HW287729  11.724   1.924   8.430
95278SOL     OW87730  14.039   8.201   2.151
95278SOL    HW187731  14.010   8.284   2.190
95278SOL    HW287732  14.096   8.162   2.217
95279SOL     OW87733   8.992  12.961  11.333
95279SOL    HW187734   8.950  12.937  11.415
95279SOL    HW287735   8.967  13.052  11.319
95280SOL     OW87736  12.160  12.947   5.562
95280SOL    HW187737  12.234  12.887   5.555
95280SOL    HW287738  12.092  12.909   5.505
95281SOL     OW87739  13.533   6.648  13.223
95281SOL    HW187740  13.471   6.589  13.266
95281SOL    HW287741  13.482   6.728  13.208
95282SOL     OW87742   7.012   6.644  12.412
95282SOL    HW187743   7.003   6.549  12.420
95282SOL    HW287744   7.104   6.656  12.389
95283SOL     OW87745  11.811  11.594   4.935
95283SOL    HW187746  11.849  11.531   4.995
95283SOL    HW287747  11.759  11.541   4.874
95284SOL     OW87748   4.293   1.147  11.619
95284SOL    HW187749   4.368   1.089  11.629
95284SOL    HW287750   4.227   1.111  11.678
95285SOL     OW87751   2.339   6.612   8.294
95285SOL    HW187752   2.409   6.557   8.259
95285SOL    HW287753   2.329   6.682   8.229
95286SOL     OW87754   3.193  14.041   9.204
95286SOL    HW187755   3.250  13.982   9.253
95286SOL    HW287756   3.181  14.116   9.262
95287SOL     OW87757   7.472   8.038  10.506
95287SOL    HW187758   7.499   8.056  10.416
95287SOL    HW287759   7.478   7.942  10.514
95288SOL     OW87760   7.104   4.648   2.532
95288SOL    HW187761   7.021   4.695   2.539
95288SOL    HW287762   7.146   4.685   2.454
95289SOL     OW87763   5.135  11.311  12.897
95289SOL    HW187764   5.216  11.260  12.895
95289SOL    HW287765   5.083  11.272  12.968
95290SOL     OW87766  12.766   4.728   2.269
95290SOL    HW187767  12.721   4.811   2.252
95290SOL    HW287768  12.853   4.754   2.300
95291SOL     OW87769  11.726   7.981  11.664
95291SOL    HW187770  11.669   8.042  11.711
95291SOL    HW287771  11.815   8.013  11.681
95292SOL     OW87772  11.761   8.396   2.076
95292SOL    HW187773  11.722   8.339   2.143
95292SOL    HW287774  11.714   8.374   1.996
95293SOL     OW87775   6.859   0.535   4.446
95293SOL    HW187776   6.805   0.527   4.368
95293SOL    HW287777   6.850   0.627   4.473
95294SOL     OW87778  10.789  13.204   1.048
95294SOL    HW187779  10.869  13.199   0.995
95294SOL    HW287780  10.735  13.132   1.018
95295SOL     OW87781   4.144   4.452   1.952
95295SOL    HW187782   4.116   4.418   1.867
95295SOL    HW287783   4.217   4.395   1.978
95296SOL     OW87784   4.364  13.897   9.534
95296SOL    HW187785   4.420  13.898   9.612
95296SOL    HW287786   4.407  13.836   9.474
95297SOL     OW87787   9.890   7.069   6.948
95297SOL    HW187788   9.930   6.988   6.916
95297SOL    HW287789   9.823   7.090   6.884
95298SOL     OW87790  12.543   8.954   8.971
95298SOL    HW187791  12.538   9.046   8.998
95298SOL    HW287792  12.455   8.932   8.942
95299SOL     OW87793  13.523   3.225   5.650
95299SOL    HW187794  13.594   3.223   5.713
95299SOL    HW287795  13.508   3.318   5.633
95300SOL     OW87796   4.767  14.234   5.325
95300SOL    HW187797   4.750  14.140   5.334
95300SOL    HW287798   4.834  14.253   5.390
95301SOL     OW87799  11.790   5.240   0.837
95301SOL    HW187800  11.770   5.168   0.777
95301SOL    HW287801  11.738   5.220   0.915
95302SOL     OW87802  13.025   2.900   7.783
95302SOL    HW187803  13.061   2.948   7.708
95302SOL    HW287804  12.959   2.842   7.744
95303SOL     OW87805   8.998   9.697  13.160
95303SOL    HW187806   8.996   9.609  13.123
95303SOL    HW287807   9.084   9.705  13.201
95304SOL     OW87808   8.835   0.370   0.321
95304SOL    HW187809   8.893   0.324   0.260
95304SOL    HW287810   8.883   0.373   0.403
95305SOL     OW87811   3.263   6.215   5.232
95305SOL    HW187812   3.174   6.179   5.236
95305SOL    HW287813   3.301   6.177   5.153
95306SOL     OW87814  14.368   0.387   5.676
95306SOL    HW187815  14.455   0.373   5.639
95306SOL    HW287816  14.323   0.303   5.665
95307SOL     OW87817   3.279  10.185   8.808
95307SOL    HW187818   3.331  10.183   8.728
95307SOL    HW287819   3.234  10.101   8.809
95308SOL     OW87820   4.958   1.007   7.009
95308SOL    HW187821   4.944   1.098   6.984
95308SOL    HW287822   4.908   0.957   6.945
95309SOL     OW87823  14.819   3.842   4.848
95309SOL    HW187824  14.848   3.803   4.766
95309SOL    HW287825  14.776   3.771   4.896
95310SOL     OW87826   5.233   0.906  11.137
95310SOL    HW187827   5.290   0.931  11.064
95310SOL    HW287828   5.281   0.838  11.183
95311SOL     OW87829   2.300  11.303   5.001
95311SOL    HW187830   2.251  11.355   5.064
95311SOL    HW287831   2.372  11.265   5.051
95312SOL     OW87832   1.818   2.175  14.126
95312SOL    HW187833   1.859   2.248  14.079
95312SOL    HW287834   1.771   2.217  14.198
95313SOL     OW87835  12.498   2.419   8.436
95313SOL    HW187836  12.436   2.443   8.367
95313SOL    HW287837  12.550   2.498   8.449
95314SOL     OW87838   4.754   2.298   0.879
95314SOL    HW187839   4.694   2.367   0.907
95314SOL    HW287840   4.728   2.221   0.929
95315SOL     OW87841   0.878   9.477   3.882
95315SOL    HW187842   0.969   9.452   3.866
95315SOL    HW287843   0.827   9.404   3.848
95316SOL     OW87844  10.272  10.679   6.498
95316SOL    HW187845  10.252  10.606   6.440
95316SOL    HW287846  10.244  10.756   6.449
95317SOL     OW87847  13.437   7.539   9.369
95317SOL    HW187848  13.378   7.555   9.296
95317SOL    HW287849  13.439   7.622   9.416
95318SOL     OW87850  11.442   1.250   9.025
95318SOL    HW187851  11.507   1.182   9.044
95318SOL    HW287852  11.478   1.329   9.066
95319SOL     OW87853  13.464   1.305  14.723
95319SOL    HW187854  13.523   1.233  14.744
95319SOL    HW287855  13.513   1.358  14.659
95320SOL     OW87856   8.034   8.263   9.448
95320SOL    HW187857   7.954   8.234   9.494
95320SOL    HW287858   8.095   8.283   9.519
95321SOL     OW87859   7.971   7.787   8.848
95321SOL    HW187860   7.984   7.826   8.761
95321SOL    HW287861   8.058   7.787   8.887
95322SOL     OW87862   8.170   7.631   1.405
95322SOL    HW187863   8.225   7.601   1.332
95322SOL    HW287864   8.225   7.620   1.483
95323SOL     OW87865   4.596  11.181  10.884
95323SOL    HW187866   4.663  11.121  10.916
95323SOL    HW287867   4.533  11.124  10.839
95324SOL     OW87868   0.465   3.839   8.774
95324SOL    HW187869   0.429   3.877   8.694
95324SOL    HW287870   0.552   3.808   8.749
95325SOL     OW87871   4.381   0.420   3.117
95325SOL    HW187872   4.405   0.338   3.160
95325SOL    HW287873   4.371   0.483   3.188
95326SOL     OW87874   1.057  10.328  10.956
95326SOL    HW187875   1.017  10.380  10.886
95326SOL    HW287876   1.117  10.389  11.000
95327SOL     OW87877   8.162   6.426   1.271
95327SOL    HW187878   8.098   6.442   1.340
95327SOL    HW287879   8.245   6.455   1.308
95328SOL     OW87880   2.220   3.689  11.406
95328SOL    HW187881   2.278   3.696  11.330
95328SOL    HW287882   2.201   3.595  11.413
95329SOL     OW87883  13.409   1.654   0.796
95329SOL    HW187884  13.386   1.576   0.846
95329SOL    HW287885  13.357   1.725   0.835
95330SOL     OW87886   7.635  13.298   2.394
95330SOL    HW187887   7.541  13.277   2.392
95330SOL    HW287888   7.677  13.226   2.347
95331SOL     OW87889  12.145   5.997  14.107
95331SOL    HW187890  12.181   6.066  14.052
95331SOL    HW287891  12.140   5.920  14.050
95332SOL     OW87892   9.096  14.008   1.560
95332SOL    HW187893   9.136  14.081   1.512
95332SOL    HW287894   9.106  13.933   1.502
95333SOL     OW87895   8.349   0.446  12.231
95333SOL    HW187896   8.357   0.356  12.200
95333SOL    HW287897   8.257   0.456  12.255
95334SOL     OW87898  14.246   3.872  12.080
95334SOL    HW187899  14.166   3.924  12.069
95334SOL    HW287900  14.220   3.782  12.061
95335SOL     OW87901  11.110   9.156  11.645
95335SOL    HW187902  11.106   9.092  11.716
95335SOL    HW287903  11.038   9.217  11.662
95336SOL     OW87904   3.129   9.785  13.804
95336SOL    HW187905   3.147   9.872  13.838
95336SOL    HW287906   3.189   9.727  13.850
95337SOL     OW87907  11.341   1.467   4.538
95337SOL    HW187908  11.295   1.388   4.567
95337SOL    HW287909  11.352   1.519   4.618
95338SOL     OW87910  13.949   7.417   7.869
95338SOL    HW187911  13.976   7.447   7.956
95338SOL    HW287912  13.883   7.350   7.886
95339SOL     OW87913   4.538  12.890   1.496
95339SOL    HW187914   4.475  12.821   1.519
95339SOL    HW287915   4.535  12.951   1.570
95340SOL     OW87916   2.067   2.372   7.798
95340SOL    HW187917   2.097   2.435   7.732
95340SOL    HW287918   2.062   2.289   7.752
95341SOL     OW87919  12.966  10.641   0.765
95341SOL    HW187920  13.037  10.582   0.740
95341SOL    HW287921  12.964  10.637   0.861
95342SOL     OW87922   5.430   1.322  13.952
95342SOL    HW187923   5.434   1.358  14.041
95342SOL    HW287924   5.390   1.392  13.900
95343SOL     OW87925   1.499  12.984   3.685
95343SOL    HW187926   1.457  12.982   3.771
95343SOL    HW287927   1.431  12.953   3.625
95344SOL     OW87928   5.468   7.684   3.587
95344SOL    HW187929   5.487   7.626   3.661
95344SOL    HW287930   5.391   7.646   3.546
95345SOL     OW87931   3.946  10.900   0.222
95345SOL    HW187932   3.975  10.991   0.233
95345SOL    HW287933   3.972  10.877   0.133
95346SOL     OW87934  11.329  10.039  13.006
95346SOL    HW187935  11.421  10.060  13.023
95346SOL    HW287936  11.279  10.099  13.061
95347SOL     OW87937   1.233   2.746   1.915
95347SOL    HW187938   1.328   2.756   1.929
95347SOL    HW287939   1.199   2.712   1.997
95348SOL     OW87940   4.755   1.947   2.061
95348SOL    HW187941   4.761   2.015   2.128
95348SOL    HW287942   4.685   1.889   2.092
95349SOL     OW87943  14.867  13.814   4.444
95349SOL    HW187944  14.865  13.815   4.539
95349SOL    HW287945   0.088  13.836   4.421
95350SOL     OW87946   0.598   6.920  13.163
95350SOL    HW187947   0.632   6.942  13.076
95350SOL    HW287948   0.653   6.847  13.191
95351SOL     OW87949   5.054  11.679   6.705
95351SOL    HW187950   5.044  11.750   6.769
95351SOL    HW287951   4.965  11.664   6.672
95352SOL     OW87952   7.517  14.604   0.905
95352SOL    HW187953   7.451  14.644   0.961
95352SOL    HW287954   7.468  14.544   0.848
95353SOL     OW87955   4.243   0.456  12.204
95353SOL    HW187956   4.289   0.539  12.192
95353SOL    HW287957   4.151   0.481  12.215
95354SOL     OW87958   1.346   3.695  11.409
95354SOL    HW187959   1.391   3.623  11.365
95354SOL    HW287960   1.268   3.654  11.447
95355SOL     OW87961   7.949   2.999   4.075
95355SOL    HW187962   7.888   3.030   4.142
95355SOL    HW287963   7.900   2.931   4.029
95356SOL     OW87964  13.822  11.406   3.102
95356SOL    HW187965  13.903  11.449   3.127
95356SOL    HW287966  13.811  11.335   3.166
95357SOL     OW87967  11.878   3.745   8.837
95357SOL    HW187968  11.850   3.771   8.749
95357SOL    HW287969  11.863   3.822   8.891
95358SOL     OW87970   2.358   4.921  13.636
95358SOL    HW187971   2.335   4.901  13.546
95358SOL    HW287972   2.444   4.879  13.649
95359SOL     OW87973   2.738   5.097  11.338
95359SOL    HW187974   2.829   5.096  11.365
95359SOL    HW287975   2.689   5.076  11.417
95360SOL     OW87976   0.877  10.737   6.051
95360SOL    HW187977   0.818  10.728   6.125
95360SOL    HW287978   0.964  10.717   6.088
95361SOL     OW87979   2.092   3.253   9.666
95361SOL    HW187980   2.165   3.206   9.707
95361SOL    HW287981   2.016   3.232   9.720
95362SOL     OW87982   3.016   5.355   9.124
95362SOL    HW187983   3.040   5.353   9.217
95362SOL    HW287984   3.099   5.342   9.078
95363SOL     OW87985   1.346   8.332   1.315
95363SOL    HW187986   1.435   8.307   1.288
95363SOL    HW287987   1.344   8.427   1.305
95364SOL     OW87988  12.398   7.806  11.283
95364SOL    HW187989  12.408   7.902  11.284
95364SOL    HW287990  12.305   7.791  11.295
95365SOL     OW87991   3.011  10.652  10.631
95365SOL    HW187992   3.069  10.647  10.707
95365SOL    HW287993   3.016  10.566  10.591
95366SOL     OW87994   6.564   9.277   7.951
95366SOL    HW187995   6.523   9.353   7.909
95366SOL    HW287996   6.656   9.302   7.960
95367SOL     OW87997  11.581   0.272   9.041
95367SOL    HW187998  11.559   0.197   8.985
95367SOL    HW287999  11.670   0.254   9.072
95368SOL     OW88000   9.561   7.928   5.413
95368SOL    HW188001   9.518   7.863   5.357
95368SOL    HW288002   9.518   7.919   5.498
95369SOL     OW88003   6.643   2.531   0.589
95369SOL    HW188004   6.669   2.573   0.670
95369SOL    HW288005   6.564   2.481   0.611
95370SOL     OW88006   2.017   0.346   0.591
95370SOL    HW188007   2.046   0.313   0.676
95370SOL    HW288008   2.090   0.399   0.559
95371SOL     OW88009   8.739   8.297   9.039
95371SOL    HW188010   8.734   8.342   9.124
95371SOL    HW288011   8.696   8.212   9.054
95372SOL     OW88012   7.859   8.907   5.475
95372SOL    HW188013   7.855   8.832   5.415
95372SOL    HW288014   7.901   8.873   5.554
95373SOL     OW88015   4.760   8.201  13.310
95373SOL    HW188016   4.807   8.118  13.302
95373SOL    HW288017   4.709   8.192  13.390
95374SOL     OW88018   5.411  11.117   2.092
95374SOL    HW188019   5.476  11.087   2.029
95374SOL    HW288020   5.357  11.040   2.109
95375SOL     OW88021   7.186   6.643   0.247
95375SOL    HW188022   7.174   6.725   0.199
95375SOL    HW288023   7.150   6.660   0.333
95376SOL     OW88024   7.116  10.753   2.706
95376SOL    HW188025   7.036  10.781   2.661
95376SOL    HW288026   7.162  10.835   2.726
95377SOL     OW88027   8.999   1.015   8.221
95377SOL    HW188028   9.028   0.940   8.272
95377SOL    HW288029   9.050   1.089   8.254
95378SOL     OW88030   1.241  11.301  10.924
95378SOL    HW188031   1.189  11.241  10.871
95378SOL    HW288032   1.272  11.248  10.997
95379SOL     OW88033   6.185   6.334   1.683
95379SOL    HW188034   6.280   6.348   1.690
95379SOL    HW288035   6.150   6.371   1.764
95380SOL     OW88036   1.116  12.294   2.279
95380SOL    HW188037   1.136  12.360   2.212
95380SOL    HW288038   1.178  12.223   2.262
95381SOL     OW88039  11.598   3.208   3.733
95381SOL    HW188040  11.596   3.148   3.658
95381SOL    HW288041  11.583   3.294   3.695
95382SOL     OW88042   4.818  13.234   9.108
95382SOL    HW188043   4.746  13.252   9.168
95382SOL    HW288044   4.896  13.236   9.163
95383SOL     OW88045  11.757  13.514  14.532
95383SOL    HW188046  11.830  13.570  14.559
95383SOL    HW288047  11.726  13.475  14.614
95384SOL     OW88048  12.094   5.053   6.965
95384SOL    HW188049  12.133   5.019   6.884
95384SOL    HW288050  12.038   4.982   6.996
95385SOL     OW88051   8.599   1.158  12.734
95385SOL    HW188052   8.671   1.201  12.782
95385SOL    HW288053   8.521   1.180  12.784
95386SOL     OW88054  10.820   1.596  13.314
95386SOL    HW188055  10.892   1.574  13.256
95386SOL    HW288056  10.841   1.684  13.346
95387SOL     OW88057   4.374   3.186  11.082
95387SOL    HW188058   4.362   3.249  11.011
95387SOL    HW288059   4.314   3.217  11.151
95388SOL     OW88060   0.188   4.852   7.530
95388SOL    HW188061   0.162   4.825   7.618
95388SOL    HW288062   0.105   4.870   7.486
95389SOL     OW88063   4.108  11.906  13.875
95389SOL    HW188064   4.075  11.987  13.836
95389SOL    HW288065   4.189  11.931  13.919
95390SOL     OW88066   6.006   8.768  13.287
95390SOL    HW188067   5.962   8.837  13.238
95390SOL    HW288068   5.937   8.707  13.311
95391SOL     OW88069   4.061  13.697   1.960
95391SOL    HW188070   4.135  13.681   1.902
95391SOL    HW288071   4.072  13.789   1.987
95392SOL     OW88072   6.364   4.964  14.354
95392SOL    HW188073   6.293   5.027  14.341
95392SOL    HW288074   6.443   5.010  14.326
95393SOL     OW88075   6.152   4.848  11.661
95393SOL    HW188076   6.093   4.899  11.717
95393SOL    HW288077   6.229   4.904  11.651
95394SOL     OW88078   4.595   4.180   1.794
95394SOL    HW188079   4.579   4.272   1.772
95394SOL    HW288080   4.607   4.181   1.889
95395SOL     OW88081  12.436  14.310   9.823
95395SOL    HW188082  12.433  14.391   9.873
95395SOL    HW288083  12.413  14.336   9.733
95396SOL     OW88084   8.432   0.307   4.950
95396SOL    HW188085   8.484   0.351   4.883
95396SOL    HW288086   8.481   0.227   4.970
95397SOL     OW88087  13.770   3.624   0.043
95397SOL    HW188088  13.827   3.658   0.111
95397SOL    HW288089  13.727   3.702   0.007
95398SOL     OW88090   3.526   4.731   6.194
95398SOL    HW188091   3.441   4.733   6.238
95398SOL    HW288092   3.553   4.822   6.189
95399SOL     OW88093  14.067   2.828  13.856
95399SOL    HW188094  14.072   2.913  13.900
95399SOL    HW288095  14.050   2.766  13.926
95400SOL     OW88096  13.207   1.175  11.994
95400SOL    HW188097  13.184   1.128  11.914
95400SOL    HW288098  13.160   1.258  11.987
95401SOL     OW88099   5.542  14.695  12.133
95401SOL    HW188100   5.542  14.646  12.216
95401SOL    HW288101   5.632  14.691  12.102
95402SOL     OW88102  11.702  14.017   3.848
95402SOL    HW188103  11.787  14.057   3.830
95402SOL    HW288104  11.639  14.089   3.840
95403SOL     OW88105   4.038  11.312  11.433
95403SOL    HW188106   4.093  11.366  11.376
95403SOL    HW288107   3.966  11.370  11.458
95404SOL     OW88108   4.956   7.333   3.169
95404SOL    HW188109   5.012   7.354   3.244
95404SOL    HW288110   5.006   7.364   3.093
95405SOL     OW88111   7.026   4.634  14.327
95405SOL    HW188112   6.952   4.694  14.339
95405SOL    HW288113   7.021   4.607  14.236
95406SOL     OW88114   4.816   1.870   6.299
95406SOL    HW188115   4.749   1.938   6.302
95406SOL    HW288116   4.898   1.916   6.319
95407SOL     OW88117  11.615  12.985   8.833
95407SOL    HW188118  11.668  12.917   8.875
95407SOL    HW288119  11.675  13.057   8.818
95408SOL     OW88120   5.957  12.022   5.209
95408SOL    HW188121   5.956  12.054   5.119
95408SOL    HW288122   6.049  12.030   5.236
95409SOL     OW88123   5.225   3.915   4.178
95409SOL    HW188124   5.198   4.006   4.182
95409SOL    HW288125   5.296   3.908   4.241
95410SOL     OW88126   2.990  10.889   4.357
95410SOL    HW188127   3.066  10.907   4.301
95410SOL    HW288128   2.992  10.958   4.423
95411SOL     OW88129   0.392  12.496   4.391
95411SOL    HW188130   0.459  12.449   4.341
95411SOL    HW288131   0.309  12.469   4.352
95412SOL     OW88132  11.710   7.270   2.174
95412SOL    HW188133  11.795   7.312   2.169
95412SOL    HW288134  11.682   7.284   2.265
95413SOL     OW88135  14.215  14.159   5.257
95413SOL    HW188136  14.143  14.145   5.196
95413SOL    HW288137  14.205  14.090   5.323
95414SOL     OW88138   3.834  11.395   9.962
95414SOL    HW188139   3.783  11.440   9.894
95414SOL    HW288140   3.783  11.317   9.983
95415SOL     OW88141   4.997   4.962  13.653
95415SOL    HW188142   5.029   5.009  13.730
95415SOL    HW288143   4.992   5.029  13.585
95416SOL     OW88144  14.464  13.256   0.775
95416SOL    HW188145  14.511  13.298   0.846
95416SOL    HW288146  14.479  13.314   0.699
95417SOL     OW88147   9.069   8.089  10.263
95417SOL    HW188148   9.142   8.138  10.224
95417SOL    HW288149   9.014   8.156  10.304
95418SOL     OW88150  12.661   1.773   9.859
95418SOL    HW188151  12.661   1.806   9.949
95418SOL    HW288152  12.753   1.749   9.842
95419SOL     OW88153   2.434   5.438  10.072
95419SOL    HW188154   2.380   5.509  10.036
95419SOL    HW288155   2.520   5.477  10.083
95420SOL     OW88156   5.409  12.970   5.205
95420SOL    HW188157   5.457  12.991   5.125
95420SOL    HW288158   5.477  12.946   5.268
95421SOL     OW88159   1.079   0.804  11.377
95421SOL    HW188160   1.039   0.719  11.360
95421SOL    HW288161   1.107   0.800  11.469
95422SOL     OW88162   9.664  10.893   4.314
95422SOL    HW188163   9.751  10.856   4.330
95422SOL    HW288164   9.646  10.872   4.222
95423SOL     OW88165  10.808   5.841   8.855
95423SOL    HW188166  10.850   5.756   8.841
95423SOL    HW288167  10.758   5.856   8.775
95424SOL     OW88168   1.056   2.596  10.300
95424SOL    HW188169   1.110   2.521  10.325
95424SOL    HW288170   0.970   2.558  10.283
95425SOL     OW88171   1.992   6.439   4.833
95425SOL    HW188172   2.038   6.423   4.915
95425SOL    HW288173   1.915   6.491   4.858
95426SOL     OW88174  12.745  13.202  10.428
95426SOL    HW188175  12.801  13.147  10.374
95426SOL    HW288176  12.698  13.258  10.366
95427SOL     OW88177   6.458   3.463   7.170
95427SOL    HW188178   6.551   3.476   7.152
95427SOL    HW288179   6.417   3.459   7.084
95428SOL     OW88180   9.773   2.083   1.156
95428SOL    HW188181   9.831   2.034   1.097
95428SOL    HW288182   9.819   2.165   1.172
95429SOL     OW88183   1.992  14.108  12.260
95429SOL    HW188184   1.931  14.164  12.307
95429SOL    HW288185   2.079  14.140  12.285
95430SOL     OW88186   9.617   5.757   2.891
95430SOL    HW188187   9.670   5.836   2.896
95430SOL    HW288188   9.527   5.789   2.880
95431SOL     OW88189   1.446   0.109  12.458
95431SOL    HW188190   1.502   0.180  12.490
95431SOL    HW288191   1.429   0.055  12.534
95432SOL     OW88192  14.012  14.553   1.446
95432SOL    HW188193  14.103  14.574   1.468
95432SOL    HW288194  14.011  14.458   1.437
95433SOL     OW88195   5.271   5.977   2.936
95433SOL    HW188196   5.240   5.915   3.003
95433SOL    HW288197   5.211   6.051   2.942
95434SOL     OW88198  12.051   0.338  12.988
95434SOL    HW188199  12.083   0.253  13.019
95434SOL    HW288200  12.129   0.382  12.955
95435SOL     OW88201   3.077   0.954   8.924
95435SOL    HW188202   3.072   1.044   8.889
95435SOL    HW288203   3.074   0.898   8.847
95436SOL     OW88204  12.481   4.598  13.521
95436SOL    HW188205  12.558   4.632  13.477
95436SOL    HW288206  12.492   4.623  13.613
95437SOL     OW88207  10.752   2.823  13.019
95437SOL    HW188208  10.696   2.855  12.948
95437SOL    HW288209  10.702   2.753  13.060
95438SOL     OW88210   7.612   2.549  11.689
95438SOL    HW188211   7.600   2.637  11.652
95438SOL    HW288212   7.677   2.508  11.632
95439SOL     OW88213   5.104   7.031   9.311
95439SOL    HW188214   5.151   7.074   9.383
95439SOL    HW288215   5.173   6.996   9.255
95440SOL     OW88216   5.636   8.268  14.185
95440SOL    HW188217   5.700   8.316  14.133
95440SOL    HW288218   5.557   8.267  14.131
95441SOL     OW88219  12.358   3.340  14.188
95441SOL    HW188220  12.292   3.305  14.127
95441SOL    HW288221  12.309   3.398  14.246
95442SOL     OW88222  11.161   1.621   3.442
95442SOL    HW188223  11.088   1.665   3.400
95442SOL    HW288224  11.208   1.577   3.371
95443SOL     OW88225   0.387   0.694   4.802
95443SOL    HW188226   0.438   0.775   4.801
95443SOL    HW288227   0.372   0.677   4.895
95444SOL     OW88228   9.923   6.100   9.238
95444SOL    HW188229   9.975   6.174   9.268
95444SOL    HW288230   9.853   6.138   9.185
95445SOL     OW88231   3.012  14.146   1.450
95445SOL    HW188232   3.059  14.203   1.511
95445SOL    HW288233   3.081  14.104   1.399
95446SOL     OW88234  12.503   1.458   5.503
95446SOL    HW188235  12.443   1.516   5.457
95446SOL    HW288236  12.448   1.415   5.569
95447SOL     OW88237   6.980   0.803   8.688
95447SOL    HW188238   7.008   0.743   8.619
95447SOL    HW288239   6.908   0.853   8.648
95448SOL     OW88240   1.734   5.585   5.051
95448SOL    HW188241   1.792   5.551   5.119
95448SOL    HW288242   1.676   5.512   5.031
95449SOL     OW88243  10.320   5.788   1.080
95449SOL    HW188244  10.411   5.761   1.090
95449SOL    HW288245  10.279   5.719   1.028
95450SOL     OW88246   0.662  10.358  10.677
95450SOL    HW188247   0.578  10.358  10.722
95450SOL    HW288248   0.642  10.324  10.589
95451SOL     OW88249   8.650  11.822   3.497
95451SOL    HW188250   8.627  11.808   3.589
95451SOL    HW288251   8.745  11.830   3.497
95452SOL     OW88252   3.694   7.457   4.038
95452SOL    HW188253   3.610   7.475   3.997
95452SOL    HW288254   3.705   7.362   4.030
95453SOL     OW88255  12.132   6.200   4.806
95453SOL    HW188256  12.201   6.162   4.861
95453SOL    HW288257  12.087   6.261   4.865
95454SOL     OW88258   3.629   6.411   8.716
95454SOL    HW188259   3.577   6.400   8.795
95454SOL    HW288260   3.673   6.327   8.704
95455SOL     OW88261  10.344   5.973   3.299
95455SOL    HW188262  10.281   5.931   3.357
95455SOL    HW288263  10.295   6.045   3.259
95456SOL     OW88264  10.461  14.332   0.341
95456SOL    HW188265  10.425  14.403   0.396
95456SOL    HW288266  10.538  14.370   0.299
95457SOL     OW88267   7.125  10.992   4.196
95457SOL    HW188268   7.039  10.958   4.222
95457SOL    HW288269   7.166  10.919   4.149
95458SOL     OW88270   6.093   3.658  10.856
95458SOL    HW188271   6.170   3.612  10.889
95458SOL    HW288272   6.020   3.619  10.904
95459SOL     OW88273   3.422   2.363   1.580
95459SOL    HW188274   3.353   2.309   1.541
95459SOL    HW288275   3.489   2.300   1.607
95460SOL     OW88276   5.032   9.532   3.412
95460SOL    HW188277   5.015   9.622   3.385
95460SOL    HW288278   5.126   9.529   3.431
95461SOL     OW88279   5.727   3.910   4.317
95461SOL    HW188280   5.766   3.849   4.380
95461SOL    HW288281   5.717   3.860   4.237
95462SOL     OW88282  11.925   6.264   9.556
95462SOL    HW188283  11.874   6.332   9.512
95462SOL    HW288284  11.873   6.241   9.632
95463SOL     OW88285   5.268  11.613  11.135
95463SOL    HW188286   5.267  11.572  11.222
95463SOL    HW288287   5.348  11.666  11.135
95464SOL     OW88288   9.156  11.435   8.161
95464SOL    HW188289   9.112  11.495   8.101
95464SOL    HW288290   9.250  11.449   8.145
95465SOL     OW88291  10.013   9.024   3.510
95465SOL    HW188292   9.935   8.973   3.489
95465SOL    HW288293   9.997   9.057   3.598
95466SOL     OW88294  12.062   8.867  11.433
95466SOL    HW188295  12.059   8.947  11.381
95466SOL    HW288296  12.073   8.898  11.523
95467SOL     OW88297   5.314   0.798   1.704
95467SOL    HW188298   5.338   0.785   1.795
95467SOL    HW288299   5.228   0.841   1.708
95468SOL     OW88300   4.254  10.136   8.992
95468SOL    HW188301   4.265  10.118   8.899
95468SOL    HW288302   4.217  10.056   9.028
95469SOL     OW88303  12.414   1.812   9.793
95469SOL    HW188304  12.507   1.789   9.793
95469SOL    HW288305  12.397   1.842   9.703
95470SOL     OW88306   9.192   6.834   4.224
95470SOL    HW188307   9.152   6.766   4.169
95470SOL    HW288308   9.153   6.915   4.192
95471SOL     OW88309   7.479   3.917   6.942
95471SOL    HW188310   7.398   3.966   6.954
95471SOL    HW288311   7.547   3.971   6.982
95472SOL     OW88312   6.585  13.747   5.281
95472SOL    HW188313   6.492  13.760   5.302
95472SOL    HW288314   6.628  13.826   5.312
95473SOL     OW88315   8.309  10.793  14.140
95473SOL    HW188316   8.276  10.704  14.134
95473SOL    HW288317   8.230  10.848  14.144
95474SOL     OW88318   5.189   5.449  10.941
95474SOL    HW188319   5.128   5.506  10.987
95474SOL    HW288320   5.236   5.509  10.882
95475SOL     OW88321   0.907   7.876   6.775
95475SOL    HW188322   0.879   7.859   6.865
95475SOL    HW288323   0.845   7.827   6.720
95476SOL     OW88324   4.324   0.519   5.219
95476SOL    HW188325   4.281   0.560   5.294
95476SOL    HW288326   4.343   0.592   5.160
95477SOL     OW88327   0.240   0.985   1.314
95477SOL    HW188328   0.312   1.047   1.325
95477SOL    HW288329   0.249   0.925   1.389
95478SOL     OW88330   3.242   1.386  14.350
95478SOL    HW188331   3.277   1.474  14.360
95478SOL    HW288332   3.207   1.384  14.261
95479SOL     OW88333   4.777   1.188   4.136
95479SOL    HW188334   4.705   1.135   4.170
95479SOL    HW288335   4.805   1.142   4.056
95480SOL     OW88336   9.193  13.408   7.036
95480SOL    HW188337   9.276  13.421   7.082
95480SOL    HW288338   9.181  13.487   6.983
95481SOL     OW88339   0.932   4.201  11.222
95481SOL    HW188340   0.864   4.238  11.278
95481SOL    HW288341   1.008   4.258  11.236
95482SOL     OW88342   0.526   3.779   3.243
95482SOL    HW188343   0.592   3.732   3.193
95482SOL    HW288344   0.470   3.711   3.279
95483SOL     OW88345   1.569   1.596   9.960
95483SOL    HW188346   1.659   1.626   9.946
95483SOL    HW288347   1.524   1.614   9.878
95484SOL     OW88348  14.845   0.374   2.972
95484SOL    HW188349   0.037   0.318   3.018
95484SOL    HW288350  14.759   0.351   3.009
95485SOL     OW88351   1.154   4.817   8.793
95485SOL    HW188352   1.183   4.889   8.849
95485SOL    HW288353   1.223   4.751   8.801
95486SOL     OW88354   7.266   1.061  11.361
95486SOL    HW188355   7.184   1.054  11.313
95486SOL    HW288356   7.303   1.145  11.334
95487SOL     OW88357  10.521   1.270   0.163
95487SOL    HW188358  10.453   1.255   0.098
95487SOL    HW288359  10.590   1.207   0.141
95488SOL     OW88360   4.979   7.375   4.190
95488SOL    HW188361   5.042   7.386   4.118
95488SOL    HW288362   4.947   7.464   4.208
95489SOL     OW88363   7.982   9.788  12.375
95489SOL    HW188364   8.069   9.750  12.388
95489SOL    HW288365   7.945   9.793  12.463
95490SOL     OW88366  11.707   7.124  12.135
95490SOL    HW188367  11.615   7.122  12.162
95490SOL    HW288368  11.705   7.156  12.045
95491SOL     OW88369   1.681  11.283   6.837
95491SOL    HW188370   1.682  11.376   6.812
95491SOL    HW288371   1.740  11.278   6.912
95492SOL     OW88372   4.327   9.801   0.433
95492SOL    HW188373   4.288   9.785   0.347
95492SOL    HW288374   4.344   9.713   0.468
95493SOL     OW88375   5.187  11.809  13.645
95493SOL    HW188376   5.153  11.750  13.578
95493SOL    HW288377   5.164  11.766  13.728
95494SOL     OW88378   3.336  11.499   5.176
95494SOL    HW188379   3.249  11.459   5.171
95494SOL    HW288380   3.319  11.590   5.201
95495SOL     OW88381   5.495   2.127  14.153
95495SOL    HW188382   5.548   2.133  14.232
95495SOL    HW288383   5.412   2.169  14.176
95496SOL     OW88384   1.955   5.871   6.188
95496SOL    HW188385   1.979   5.911   6.272
95496SOL    HW288386   2.039   5.847   6.149
95497SOL     OW88387   2.889  12.104   5.225
95497SOL    HW188388   2.850  12.135   5.307
95497SOL    HW288389   2.900  12.183   5.172
95498SOL     OW88390  14.364  11.632  14.120
95498SOL    HW188391  14.451  11.662  14.145
95498SOL    HW288392  14.310  11.712  14.119
95499SOL     OW88393   4.877   7.907   1.269
95499SOL    HW188394   4.864   7.846   1.197
95499SOL    HW288395   4.891   7.852   1.345
95500SOL     OW88396   2.882  14.353   4.930
95500SOL    HW188397   2.915  14.437   4.896
95500SOL    HW288398   2.817  14.378   4.996
95501SOL     OW88399  12.386   7.157   9.813
95501SOL    HW188400  12.322   7.190   9.875
95501SOL    HW288401  12.450   7.110   9.867
95502SOL     OW88402  14.034   3.854  12.656
95502SOL    HW188403  13.950   3.811  12.669
95502SOL    HW288404  14.031   3.931  12.714
95503SOL     OW88405   8.293   8.923  14.476
95503SOL    HW188406   8.221   8.986  14.478
95503SOL    HW288407   8.250   8.839  14.459
95504SOL     OW88408   8.724   8.957   9.879
95504SOL    HW188409   8.708   8.883   9.820
95504SOL    HW288410   8.704   9.034   9.826
95505SOL     OW88411   0.037   1.678   6.694
95505SOL    HW188412   0.129   1.705   6.697
95505SOL    HW288413   0.029   1.628   6.613
95506SOL     OW88414  12.689   6.337  14.072
95506SOL    HW188415  12.750   6.410  14.086
95506SOL    HW288416  12.707   6.308  13.983
95507SOL     OW88417   9.361   0.812  14.563
95507SOL    HW188418   9.395   0.899  14.584
95507SOL    HW288419   9.326   0.779  14.646
95508SOL     OW88420   4.919   5.813  14.350
95508SOL    HW188421   4.862   5.745  14.314
95508SOL    HW288422   4.895   5.818  14.443
95509SOL     OW88423  11.626   9.998   9.579
95509SOL    HW188424  11.672  10.056   9.519
95509SOL    HW288425  11.670  10.011   9.663
95510SOL     OW88426  12.492   7.107  10.439
95510SOL    HW188427  12.444   7.092  10.521
95510SOL    HW288428  12.497   7.020  10.399
95511SOL     OW88429   7.809  10.755  10.514
95511SOL    HW188430   7.851  10.718  10.436
95511SOL    HW288431   7.736  10.806  10.479
95512SOL     OW88432  12.213  13.818  10.371
95512SOL    HW188433  12.200  13.913  10.369
95512SOL    HW288434  12.130  13.782  10.341
95513SOL     OW88435  11.741   3.712   5.387
95513SOL    HW188436  11.699   3.734   5.304
95513SOL    HW288437  11.821   3.764   5.388
95514SOL     OW88438  11.901   6.774  13.658
95514SOL    HW188439  11.923   6.867  13.671
95514SOL    HW288440  11.866   6.746  13.743
95515SOL     OW88441   7.380   2.077   6.047
95515SOL    HW188442   7.393   2.031   6.130
95515SOL    HW288443   7.310   2.140   6.065
95516SOL     OW88444   5.264  14.137   2.775
95516SOL    HW188445   5.358  14.121   2.765
95516SOL    HW288446   5.232  14.149   2.686
95517SOL     OW88447   7.323   6.399   9.951
95517SOL    HW188448   7.306   6.314   9.910
95517SOL    HW288449   7.412   6.422   9.922
95518SOL     OW88450   2.195   3.077  12.864
95518SOL    HW188451   2.115   3.025  12.869
95518SOL    HW288452   2.183   3.146  12.929
95519SOL     OW88453   7.568   3.358  13.045
95519SOL    HW188454   7.657   3.324  13.056
95519SOL    HW288455   7.572   3.409  12.963
95520SOL     OW88456   8.142   0.752   5.078
95520SOL    HW188457   8.056   0.790   5.092
95520SOL    HW288458   8.201   0.807   5.130
95521SOL     OW88459  11.484   4.599  11.935
95521SOL    HW188460  11.411   4.611  11.996
95521SOL    HW288461  11.521   4.687  11.924
95522SOL     OW88462   0.691   6.959   0.524
95522SOL    HW188463   0.746   7.012   0.581
95522SOL    HW288464   0.607   7.004   0.524
95523SOL     OW88465  13.754   0.642  14.721
95523SOL    HW188466  13.703   0.629  14.640
95523SOL    HW288467  13.750   0.558  14.765
95524SOL     OW88468   5.938   7.783   8.833
95524SOL    HW188469   5.883   7.856   8.861
95524SOL    HW288470   5.949   7.795   8.739
95525SOL     OW88471   1.547  12.412   8.829
95525SOL    HW188472   1.492  12.466   8.886
95525SOL    HW288473   1.561  12.331   8.878
95526SOL     OW88474   4.910  10.854   0.445
95526SOL    HW188475   4.980  10.788   0.446
95526SOL    HW288476   4.905  10.885   0.535
95527SOL     OW88477  11.809   3.249  12.477
95527SOL    HW188478  11.818   3.210  12.390
95527SOL    HW288479  11.813   3.343  12.462
95528SOL     OW88480   3.382   7.089  14.212
95528SOL    HW188481   3.331   7.055  14.286
95528SOL    HW288482   3.385   7.183  14.226
95529SOL     OW88483  10.851  11.155   2.174
95529SOL    HW188484  10.883  11.073   2.137
95529SOL    HW288485  10.912  11.175   2.246
95530SOL     OW88486   2.851  11.480   7.932
95530SOL    HW188487   2.882  11.496   8.021
95530SOL    HW288488   2.758  11.464   7.942
95531SOL     OW88489   1.789   3.914  11.341
95531SOL    HW188490   1.859   3.886  11.401
95531SOL    HW288491   1.711   3.868  11.372
95532SOL     OW88492  10.782   5.772  14.736
95532SOL    HW188493  10.810   5.858  14.766
95532SOL    HW288494  10.776   5.780  14.641
95533SOL     OW88495   6.465   6.549   7.822
95533SOL    HW188496   6.388   6.499   7.848
95533SOL    HW288497   6.538   6.489   7.834
95534SOL     OW88498  14.804   1.992   5.469
95534SOL    HW188499  14.842   1.919   5.517
95534SOL    HW288500  14.735   2.025   5.526
95535SOL     OW88501   2.395  11.261   1.475
95535SOL    HW188502   2.371  11.173   1.449
95535SOL    HW288503   2.392  11.312   1.395
95536SOL     OW88504   3.102   5.466   8.809
95536SOL    HW188505   3.118   5.403   8.879
95536SOL    HW288506   3.092   5.412   8.730
95537SOL     OW88507   7.967   7.674   2.367
95537SOL    HW188508   8.054   7.685   2.328
95537SOL    HW288509   7.981   7.685   2.461
95538SOL     OW88510   1.240   8.518  13.074
95538SOL    HW188511   1.182   8.551  13.005
95538SOL    HW288512   1.328   8.542  13.044
95539SOL     OW88513  11.165   9.382   1.151
95539SOL    HW188514  11.171   9.389   1.246
95539SOL    HW288515  11.221   9.308   1.128
95540SOL     OW88516  14.117   0.575   2.985
95540SOL    HW188517  14.084   0.659   2.954
95540SOL    HW288518  14.126   0.587   3.080
95541SOL     OW88519   4.184   7.244   1.622
95541SOL    HW188520   4.137   7.242   1.539
95541SOL    HW288521   4.162   7.330   1.659
95542SOL     OW88522  14.553   5.087   8.752
95542SOL    HW188523  14.463   5.081   8.784
95542SOL    HW288524  14.558   5.173   8.710
95543SOL     OW88525   8.518   1.855   5.590
95543SOL    HW188526   8.487   1.891   5.673
95543SOL    HW288527   8.610   1.835   5.605
95544SOL     OW88528   1.682   9.562   3.628
95544SOL    HW188529   1.742   9.505   3.676
95544SOL    HW288530   1.614   9.584   3.691
95545SOL     OW88531   2.950   9.975  12.282
95545SOL    HW188532   3.020   9.991  12.219
95545SOL    HW288533   2.995   9.970  12.366
95546SOL     OW88534  13.360   5.741  14.050
95546SOL    HW188535  13.283   5.771  14.001
95546SOL    HW288536  13.331   5.739  14.141
95547SOL     OW88537   4.303  11.863  14.765
95547SOL    HW188538   4.209  11.862  14.782
95547SOL    HW288539   4.343  11.886  14.849
95548SOL     OW88540  11.291   3.961   1.414
95548SOL    HW188541  11.336   4.022   1.355
95548SOL    HW288542  11.275   4.012   1.493
95549SOL     OW88543   3.681  14.754   1.334
95549SOL    HW188544   3.682  14.697   1.411
95549SOL    HW288545   3.769  14.748   1.298
95550SOL     OW88546   1.042   2.220   6.545
95550SOL    HW188547   0.983   2.165   6.493
95550SOL    HW288548   1.068   2.290   6.485
95551SOL     OW88549   8.105   2.451   9.045
95551SOL    HW188550   8.149   2.469   9.129
95551SOL    HW288551   8.012   2.449   9.067
95552SOL     OW88552   5.664   8.068   7.578
95552SOL    HW188553   5.719   8.017   7.518
95552SOL    HW288554   5.595   8.007   7.605
95553SOL     OW88555  12.578   3.466   7.401
95553SOL    HW188556  12.556   3.417   7.322
95553SOL    HW288557  12.629   3.405   7.454
95554SOL     OW88558   9.019  12.081   0.230
95554SOL    HW188559   9.011  12.004   0.173
95554SOL    HW288560   9.076  12.141   0.181
95555SOL     OW88561  10.522   6.813   8.630
95555SOL    HW188562  10.565   6.870   8.566
95555SOL    HW288563  10.590   6.795   8.695
95556SOL     OW88564   1.701  11.115   7.408
95556SOL    HW188565   1.756  11.108   7.486
95556SOL    HW288566   1.654  11.032   7.404
95557SOL     OW88567   5.091   9.339  12.291
95557SOL    HW188568   5.046   9.257  12.267
95557SOL    HW288569   5.053   9.363  12.376
95558SOL     OW88570   4.714   9.671   9.694
95558SOL    HW188571   4.759   9.592   9.665
95558SOL    HW288572   4.730   9.734   9.624
95559SOL     OW88573   9.455  11.889  10.032
95559SOL    HW188574   9.364  11.878  10.061
95559SOL    HW288575   9.491  11.801  10.032
95560SOL     OW88576  14.013   5.265   8.781
95560SOL    HW188577  14.038   5.355   8.800
95560SOL    HW288578  14.062   5.242   8.702
95561SOL     OW88579   3.567   4.225   9.850
95561SOL    HW188580   3.562   4.319   9.866
95561SOL    HW288581   3.505   4.210   9.778
95562SOL     OW88582  14.328  11.174   2.219
95562SOL    HW188583  14.408  11.132   2.248
95562SOL    HW288584  14.333  11.262   2.257
95563SOL     OW88585   4.805   0.881  11.929
95563SOL    HW188586   4.897   0.869  11.908
95563SOL    HW288587   4.805   0.905  12.022
95564SOL     OW88588   6.701  10.901   9.548
95564SOL    HW188589   6.712  10.843   9.473
95564SOL    HW288590   6.636  10.966   9.520
95565SOL     OW88591  11.613   7.574   8.063
95565SOL    HW188592  11.652   7.559   8.149
95565SOL    HW288593  11.544   7.638   8.079
95566SOL     OW88594   4.163  12.232   2.684
95566SOL    HW188595   4.255  12.213   2.699
95566SOL    HW288596   4.163  12.317   2.639
95567SOL     OW88597   3.566   2.937  12.797
95567SOL    HW188598   3.660   2.935  12.816
95567SOL    HW288599   3.527   2.881  12.865
95568SOL     OW88600   8.089   6.244   8.157
95568SOL    HW188601   8.124   6.195   8.231
95568SOL    HW288602   8.148   6.224   8.085
95569SOL     OW88603   2.130   0.600   1.821
95569SOL    HW188604   2.199   0.544   1.855
95569SOL    HW288605   2.057   0.587   1.881
95570SOL     OW88606   9.705   3.159   5.054
95570SOL    HW188607   9.627   3.106   5.036
95570SOL    HW288608   9.674   3.249   5.050
95571SOL     OW88609   9.254   8.607   2.983
95571SOL    HW188610   9.289   8.690   2.951
95571SOL    HW288611   9.162   8.609   2.957
95572SOL     OW88612   6.113  11.267  14.649
95572SOL    HW188613   6.151  11.188  14.611
95572SOL    HW288614   6.147  11.339  14.596
95573SOL     OW88615  13.119   8.362   3.069
95573SOL    HW188616  13.136   8.373   2.975
95573SOL    HW288617  13.042   8.305   3.073
95574SOL     OW88618   0.964   8.976   6.818
95574SOL    HW188619   0.990   8.939   6.902
95574SOL    HW288620   0.883   8.930   6.796
95575SOL     OW88621  10.722   3.163   5.861
95575SOL    HW188622  10.674   3.086   5.831
95575SOL    HW288623  10.682   3.236   5.814
95576SOL     OW88624   5.237   3.872  11.516
95576SOL    HW188625   5.150   3.854  11.481
95576SOL    HW288626   5.226   3.955  11.562
95577SOL     OW88627  11.807  14.649   1.026
95577SOL    HW188628  11.757  14.662   1.106
95577SOL    HW288629  11.873  14.719   1.027
95578SOL     OW88630   0.837   5.785   4.299
95578SOL    HW188631   0.839   5.797   4.394
95578SOL    HW288632   0.921   5.819   4.269
95579SOL     OW88633  11.486   0.146  11.428
95579SOL    HW188634  11.578   0.159  11.405
95579SOL    HW288635  11.444   0.118  11.347
95580SOL     OW88636   5.489   1.266   0.659
95580SOL    HW188637   5.480   1.174   0.633
95580SOL    HW288638   5.579   1.273   0.692
95581SOL     OW88639   1.163   5.782  13.906
95581SOL    HW188640   1.190   5.754  13.994
95581SOL    HW288641   1.147   5.876  13.915
95582SOL     OW88642   8.804  14.104  10.211
95582SOL    HW188643   8.772  14.171  10.151
95582SOL    HW288644   8.728  14.082  10.265
95583SOL     OW88645   5.643   8.258   4.156
95583SOL    HW188646   5.642   8.352   4.138
95583SOL    HW288647   5.611   8.218   4.075
95584SOL     OW88648   8.058   1.650  12.383
95584SOL    HW188649   8.152   1.634  12.375
95584SOL    HW288650   8.040   1.637  12.476
95585SOL     OW88651   3.809   4.639   7.563
95585SOL    HW188652   3.775   4.554   7.591
95585SOL    HW288653   3.742   4.702   7.591
95586SOL     OW88654  13.896   1.337   9.834
95586SOL    HW188655  13.893   1.399   9.907
95586SOL    HW288656  13.849   1.260   9.867
95587SOL     OW88657  11.470   1.163   1.148
95587SOL    HW188658  11.535   1.231   1.130
95587SOL    HW288659  11.488   1.135   1.237
95588SOL     OW88660   6.850   8.583   4.469
95588SOL    HW188661   6.763   8.559   4.436
95588SOL    HW288662   6.880   8.506   4.517
95589SOL     OW88663  10.459  14.446  10.675
95589SOL    HW188664  10.492  14.491  10.753
95589SOL    HW288665  10.365  14.465  10.674
95590SOL     OW88666  12.642  10.703   6.698
95590SOL    HW188667  12.642  10.684   6.791
95590SOL    HW288668  12.564  10.758   6.684
95591SOL     OW88669  11.738   2.173  14.140
95591SOL    HW188670  11.787   2.233  14.196
95591SOL    HW288671  11.804   2.110  14.110
95592SOL     OW88672   3.014   7.466   9.648
95592SOL    HW188673   3.025   7.529   9.719
95592SOL    HW288674   3.102   7.432   9.631
95593SOL     OW88675   1.793   7.754   8.197
95593SOL    HW188676   1.769   7.770   8.289
95593SOL    HW288677   1.747   7.822   8.148
95594SOL     OW88678   8.152   1.836   2.229
95594SOL    HW188679   8.081   1.811   2.288
95594SOL    HW288680   8.232   1.814   2.277
95595SOL     OW88681  11.625   7.758   0.538
95595SOL    HW188682  11.537   7.793   0.525
95595SOL    HW288683  11.613   7.663   0.533
95596SOL     OW88684  13.701   7.115   3.222
95596SOL    HW188685  13.763   7.049   3.192
95596SOL    HW288686  13.617   7.086   3.188
95597SOL     OW88687   0.538  13.859   4.647
95597SOL    HW188688   0.505  13.770   4.657
95597SOL    HW288689   0.487  13.897   4.575
95598SOL     OW88690   7.693  10.020   0.599
95598SOL    HW188691   7.628   9.967   0.553
95598SOL    HW288692   7.722  10.084   0.534
95599SOL     OW88693   1.382  13.364   2.204
95599SOL    HW188694   1.415  13.364   2.114
95599SOL    HW288695   1.456  13.395   2.256
95600SOL     OW88696   4.888  13.615   0.026
95600SOL    HW188697   4.919  13.565   0.101
95600SOL    HW288698   4.910  13.706   0.047
95601SOL     OW88699   7.671   8.564   7.854
95601SOL    HW188700   7.764   8.543   7.842
95601SOL    HW288701   7.657   8.645   7.805
95602SOL     OW88702   8.003  12.638   2.276
95602SOL    HW188703   7.990  12.621   2.183
95602SOL    HW288704   7.944  12.577   2.320
95603SOL     OW88705  10.995   1.281  13.588
95603SOL    HW188706  10.919   1.291  13.531
95603SOL    HW288707  11.069   1.309  13.535
95604SOL     OW88708   7.032   3.170   7.788
95604SOL    HW188709   6.989   3.219   7.718
95604SOL    HW288710   7.111   3.135   7.748
95605SOL     OW88711  14.046  12.565  10.636
95605SOL    HW188712  14.013  12.589  10.723
95605SOL    HW288713  13.980  12.597  10.575
95606SOL     OW88714   5.901  11.367   8.397
95606SOL    HW188715   5.889  11.378   8.303
95606SOL    HW288716   5.993  11.387   8.412
95607SOL     OW88717   5.398   1.010   9.319
95607SOL    HW188718   5.347   1.019   9.399
95607SOL    HW288719   5.443   1.094   9.310
95608SOL     OW88720  12.314  10.411   2.160
95608SOL    HW188721  12.306  10.425   2.254
95608SOL    HW288722  12.284  10.321   2.147
95609SOL     OW88723   2.276   0.187   9.733
95609SOL    HW188724   2.305   0.270   9.771
95609SOL    HW288725   2.308   0.190   9.643
95610SOL     OW88726  10.505  11.277   0.384
95610SOL    HW188727  10.432  11.318   0.337
95610SOL    HW288728  10.463  11.236   0.460
95611SOL     OW88729   9.748   9.613  10.175
95611SOL    HW188730   9.672   9.591  10.229
95611SOL    HW288731   9.782   9.529  10.145
95612SOL     OW88732   1.723   4.799   4.380
95612SOL    HW188733   1.636   4.760   4.370
95612SOL    HW288734   1.708   4.893   4.374
95613SOL     OW88735   0.916   9.010   3.704
95613SOL    HW188736   0.857   8.963   3.762
95613SOL    HW288737   0.992   9.030   3.758
95614SOL     OW88738   1.076   6.727   0.351
95614SOL    HW188739   0.995   6.734   0.401
95614SOL    HW288740   1.125   6.658   0.395
95615SOL     OW88741   2.099  10.475   5.050
95615SOL    HW188742   2.097  10.566   5.080
95615SOL    HW288743   2.189  10.446   5.066
95616SOL     OW88744   1.448  10.317   9.983
95616SOL    HW188745   1.359  10.299   9.953
95616SOL    HW288746   1.504  10.298   9.908
95617SOL     OW88747   7.549  10.204   3.021
95617SOL    HW188748   7.554  10.203   2.926
95617SOL    HW288749   7.641  10.209   3.049
95618SOL     OW88750   1.033  12.355  14.805
95618SOL    HW188751   1.124  12.385  14.811
95618SOL    HW288752   1.035  12.266  14.840
95619SOL     OW88753   6.301   4.654   2.150
95619SOL    HW188754   6.274   4.726   2.093
95619SOL    HW288755   6.376   4.615   2.105
95620SOL     OW88756   9.197   4.714   9.825
95620SOL    HW188757   9.287   4.696   9.852
95620SOL    HW288758   9.185   4.807   9.843
95621SOL     OW88759   7.595   2.692   3.539
95621SOL    HW188760   7.643   2.660   3.463
95621SOL    HW288761   7.508   2.653   3.532
95622SOL     OW88762   4.861   2.923  14.757
95622SOL    HW188763   4.923   2.870  14.807
95622SOL    HW288764   4.804   2.961  14.823
95623SOL     OW88765   5.295   3.771   0.716
95623SOL    HW188766   5.254   3.723   0.644
95623SOL    HW288767   5.223   3.797   0.773
95624SOL     OW88768  12.801   1.459   5.303
95624SOL    HW188769  12.734   1.518   5.269
95624SOL    HW288770  12.758   1.373   5.308
95625SOL     OW88771   7.995  12.805  11.515
95625SOL    HW188772   8.086  12.778  11.529
95625SOL    HW288773   7.967  12.839  11.600
95626SOL     OW88774  10.620   9.563  10.838
95626SOL    HW188775  10.588   9.543  10.750
95626SOL    HW288776  10.541   9.568  10.892
95627SOL     OW88777  11.240   1.933  13.731
95627SOL    HW188778  11.230   1.999  13.662
95627SOL    HW288779  11.266   1.853  13.685
95628SOL     OW88780  14.111   6.037   2.579
95628SOL    HW188781  14.042   6.036   2.646
95628SOL    HW288782  14.191   6.056   2.628
95629SOL     OW88783   2.035  10.842   8.616
95629SOL    HW188784   2.097  10.891   8.561
95629SOL    HW288785   2.060  10.750   8.604
95630SOL     OW88786  11.240   5.391   4.190
95630SOL    HW188787  11.270   5.324   4.129
95630SOL    HW288788  11.164   5.351   4.233
95631SOL     OW88789   6.204   5.649  12.004
95631SOL    HW188790   6.114   5.625  11.982
95631SOL    HW288791   6.227   5.591  12.076
95632SOL     OW88792   0.950   6.127   6.979
95632SOL    HW188793   0.920   6.061   6.916
95632SOL    HW288794   0.955   6.080   7.062
95633SOL     OW88795   2.573   1.044   1.121
95633SOL    HW188796   2.481   1.061   1.100
95633SOL    HW288797   2.618   1.050   1.037
95634SOL     OW88798   2.453   4.666   4.353
95634SOL    HW188799   2.389   4.664   4.282
95634SOL    HW288800   2.529   4.710   4.314
95635SOL     OW88801   0.440   9.722   3.137
95635SOL    HW188802   0.426   9.808   3.178
95635SOL    HW288803   0.373   9.716   3.070
95636SOL     OW88804  10.408   6.998  10.939
95636SOL    HW188805  10.485   7.033  10.894
95636SOL    HW288806  10.357   6.957  10.870
95637SOL     OW88807   1.578   0.750   1.797
95637SOL    HW188808   1.560   0.841   1.820
95637SOL    HW288809   1.640   0.757   1.723
95638SOL     OW88810  13.637   0.594   0.934
95638SOL    HW188811  13.605   0.575   1.022
95638SOL    HW288812  13.716   0.646   0.948
95639SOL     OW88813  14.292  13.467   6.250
95639SOL    HW188814  14.246  13.517   6.318
95639SOL    HW288815  14.274  13.376   6.272
95640SOL     OW88816   0.406   4.764   3.758
95640SOL    HW188817   0.458   4.773   3.678
95640SOL    HW288818   0.327   4.717   3.730
95641SOL     OW88819   7.145  11.656   9.722
95641SOL    HW188820   7.222  11.604   9.745
95641SOL    HW288821   7.164  11.689   9.634
95642SOL     OW88822   6.957  13.081   5.203
95642SOL    HW188823   7.020  13.088   5.275
95642SOL    HW288824   6.992  13.138   5.135
95643SOL     OW88825   5.112  13.163   7.502
95643SOL    HW188826   5.017  13.155   7.514
95643SOL    HW288827   5.139  13.227   7.567
95644SOL     OW88828  13.261   2.270   1.329
95644SOL    HW188829  13.324   2.262   1.400
95644SOL    HW288830  13.314   2.265   1.249
95645SOL     OW88831   0.346  14.552   7.707
95645SOL    HW188832   0.335  14.625   7.647
95645SOL    HW288833   0.361  14.476   7.651
95646SOL     OW88834  10.442   0.811  13.951
95646SOL    HW188835  10.401   0.759  14.019
95646SOL    HW288836  10.461   0.895  13.993
95647SOL     OW88837  12.787   6.789  14.804
95647SOL    HW188838  12.700   6.783  14.764
95647SOL    HW288839  12.770   6.798   0.029
95648SOL     OW88840   9.623   7.397  12.076
95648SOL    HW188841   9.567   7.460  12.031
95648SOL    HW288842   9.689   7.373  12.012
95649SOL     OW88843   7.148   9.734   8.357
95649SOL    HW188844   7.061   9.761   8.327
95649SOL    HW288845   7.134   9.647   8.394
95650SOL     OW88846   7.659   4.410  14.444
95650SOL    HW188847   7.589   4.390  14.506
95650SOL    HW288848   7.698   4.325  14.423
95651SOL     OW88849  13.941   4.353  11.466
95651SOL    HW188850  13.948   4.422  11.400
95651SOL    HW288851  13.920   4.274  11.417
95652SOL     OW88852  14.289  14.766  12.427
95652SOL    HW188853  14.273  14.784  12.334
95652SOL    HW288854  14.247  14.682  12.443
95653SOL     OW88855   7.842  11.114   4.388
95653SOL    HW188856   7.773  11.145   4.330
95653SOL    HW288857   7.883  11.193   4.421
95654SOL     OW88858   6.640   6.763   4.370
95654SOL    HW188859   6.684   6.786   4.452
95654SOL    HW288860   6.654   6.669   4.360
95655SOL     OW88861   0.322  10.686   1.159
95655SOL    HW188862   0.404  10.645   1.133
95655SOL    HW288863   0.347  10.769   1.199
95656SOL     OW88864   1.158   1.535   9.178
95656SOL    HW188865   1.144   1.579   9.095
95656SOL    HW288866   1.119   1.448   9.166
95657SOL     OW88867   4.387   9.869   6.803
95657SOL    HW188868   4.446   9.943   6.823
95657SOL    HW288869   4.416   9.838   6.717
95658SOL     OW88870   5.721   8.034   8.561
95658SOL    HW188871   5.811   8.015   8.588
95658SOL    HW288872   5.708   7.979   8.484
95659SOL     OW88873   8.553   7.873  11.832
95659SOL    HW188874   8.464   7.851  11.857
95659SOL    HW288875   8.546   7.905  11.742
95660SOL     OW88876   7.334   6.626   1.600
95660SOL    HW188877   7.404   6.577   1.643
95660SOL    HW288878   7.349   6.717   1.627
95661SOL     OW88879  12.897   1.314   4.279
95661SOL    HW188880  12.851   1.398   4.286
95661SOL    HW288881  12.909   1.301   4.185
95662SOL     OW88882   1.215   6.100   0.428
95662SOL    HW188883   1.214   6.049   0.348
95662SOL    HW288884   1.281   6.167   0.414
95663SOL     OW88885   0.071  13.499  11.467
95663SOL    HW188886   0.107  13.584  11.492
95663SOL    HW288887  14.852  13.519  11.437
95664SOL     OW88888   0.600   2.138   3.154
95664SOL    HW188889   0.515   2.138   3.199
95664SOL    HW288890   0.603   2.054   3.108
95665SOL     OW88891   6.298   3.627   0.154
95665SOL    HW188892   6.387   3.601   0.127
95665SOL    HW288893   6.264   3.551   0.200
95666SOL     OW88894   3.335   9.045  11.316
95666SOL    HW188895   3.304   9.128  11.353
95666SOL    HW288896   3.258   8.989  11.315
95667SOL     OW88897  11.784   3.310   9.156
95667SOL    HW188898  11.835   3.321   9.236
95667SOL    HW288899  11.694   3.325   9.184
95668SOL     OW88900  10.468   3.164   4.253
95668SOL    HW188901  10.526   3.134   4.183
95668SOL    HW288902  10.459   3.258   4.238
95669SOL     OW88903  13.549   6.010   2.247
95669SOL    HW188904  13.514   6.046   2.165
95669SOL    HW288905  13.601   5.934   2.219
95670SOL     OW88906   1.788   9.557  11.242
95670SOL    HW188907   1.755   9.502  11.313
95670SOL    HW288908   1.770   9.506  11.163
95671SOL     OW88909   8.704   7.954  11.050
95671SOL    HW188910   8.776   7.928  10.991
95671SOL    HW288911   8.643   7.880  11.046
95672SOL     OW88912  10.076   4.185   4.135
95672SOL    HW188913  10.021   4.256   4.101
95672SOL    HW288914  10.028   4.154   4.212
95673SOL     OW88915   7.131   5.209   2.569
95673SOL    HW188916   7.134   5.180   2.660
95673SOL    HW288917   7.112   5.129   2.519
95674SOL     OW88918   7.067  10.559   2.270
95674SOL    HW188919   7.043  10.559   2.363
95674SOL    HW288920   7.153  10.601   2.267
95675SOL     OW88921  11.823   2.751  13.523
95675SOL    HW188922  11.813   2.669  13.572
95675SOL    HW288923  11.917   2.768  13.524
95676SOL     OW88924   8.062   2.084   9.984
95676SOL    HW188925   8.156   2.105   9.978
95676SOL    HW288926   8.029   2.095   9.895
95677SOL     OW88927   0.948  12.407   4.751
95677SOL    HW188928   0.892  12.480   4.776
95677SOL    HW288929   0.890  12.347   4.703
95678SOL     OW88930  14.437   0.751   9.926
95678SOL    HW188931  14.507   0.700   9.886
95678SOL    HW288932  14.401   0.803   9.855
95679SOL     OW88933   0.420   4.432  13.851
95679SOL    HW188934   0.456   4.358  13.801
95679SOL    HW288935   0.327   4.431  13.832
95680SOL     OW88936   4.182   7.331  11.677
95680SOL    HW188937   4.257   7.289  11.636
95680SOL    HW288938   4.114   7.332  11.610
95681SOL     OW88939   1.952  14.783  11.534
95681SOL    HW188940   2.011  14.845  11.491
95681SOL    HW288941   1.939  14.819  11.621
95682SOL     OW88942   6.848   0.014  10.987
95682SOL    HW188943   6.808  14.841  11.063
95682SOL    HW288944   6.927   0.056  11.022
95683SOL     OW88945  13.291   6.470  12.254
95683SOL    HW188946  13.262   6.408  12.320
95683SOL    HW288947  13.316   6.548  12.303
95684SOL     OW88948   6.847  12.344  10.898
95684SOL    HW188949   6.929  12.327  10.946
95684SOL    HW288950   6.875  12.375  10.812
95685SOL     OW88951   8.239   7.134  10.248
95685SOL    HW188952   8.215   7.220  10.282
95685SOL    HW288953   8.202   7.133  10.160
95686SOL     OW88954   0.094   6.677   9.630
95686SOL    HW188955   0.166   6.634   9.677
95686SOL    HW288956   0.060   6.741   9.693
95687SOL     OW88957   1.288   7.043   7.370
95687SOL    HW188958   1.256   7.132   7.356
95687SOL    HW288959   1.369   7.054   7.420
95688SOL     OW88960   0.181   0.236  12.854
95688SOL    HW188961   0.197   0.309  12.915
95688SOL    HW288962   0.133   0.276  12.781
95689SOL     OW88963  12.914   2.960   9.668
95689SOL    HW188964  12.889   2.956   9.576
95689SOL    HW288965  12.932   2.869   9.692
95690SOL     OW88966   1.998  11.392   1.302
95690SOL    HW188967   2.048  11.470   1.324
95690SOL    HW288968   1.919  11.425   1.259
95691SOL     OW88969  10.600   7.911  12.575
95691SOL    HW188970  10.689   7.936  12.600
95691SOL    HW288971  10.589   7.946  12.486
95692SOL     OW88972   2.268   5.423   4.048
95692SOL    HW188973   2.192   5.475   4.023
95692SOL    HW288974   2.241   5.332   4.036
95693SOL     OW88975   9.792   0.606   5.340
95693SOL    HW188976   9.735   0.680   5.361
95693SOL    HW288977   9.798   0.607   5.244
95694SOL     OW88978   1.476   1.340   1.006
95694SOL    HW188979   1.431   1.259   0.983
95694SOL    HW288980   1.511   1.372   0.922
95695SOL     OW88981  11.790  10.892  12.030
95695SOL    HW188982  11.828  10.811  12.066
95695SOL    HW288983  11.853  10.960  12.053
95696SOL     OW88984   0.087   5.602   8.914
95696SOL    HW188985   0.167   5.572   8.957
95696SOL    HW288986   0.116   5.674   8.857
95697SOL     OW88987  11.672  14.323  12.961
95697SOL    HW188988  11.632  14.239  12.984
95697SOL    HW288989  11.700  14.313  12.871
95698SOL     OW88990   2.246   6.177   0.127
95698SOL    HW188991   2.226   6.124   0.204
95698SOL    HW288992   2.180   6.246   0.128
95699SOL     OW88993   6.462  12.822  12.874
95699SOL    HW188994   6.368  12.811  12.863
95699SOL    HW288995   6.499  12.802  12.788
95700SOL     OW88996   3.033   8.328   9.445
95700SOL    HW188997   3.113   8.360   9.403
95700SOL    HW288998   3.016   8.244   9.403
95701SOL     OW88999  13.910   4.954  12.084
95701SOL    HW189000  13.821   4.922  12.066
95701SOL    HW289001  13.966   4.898  12.030
95702SOL     OW89002  14.171   2.446   8.671
95702SOL    HW189003  14.116   2.386   8.721
95702SOL    HW289004  14.116   2.522   8.655
95703SOL     OW89005   1.181   2.019   0.239
95703SOL    HW189006   1.173   1.952   0.307
95703SOL    HW289007   1.105   2.075   0.251
95704SOL     OW89008  11.830  13.208   2.393
95704SOL    HW189009  11.873  13.133   2.352
95704SOL    HW289010  11.901  13.257   2.434
95705SOL     OW89011   1.017  13.733  13.686
95705SOL    HW189012   0.938  13.734  13.631
95705SOL    HW289013   0.988  13.692  13.768
95706SOL     OW89014   5.890   1.069   2.866
95706SOL    HW189015   5.915   1.031   2.950
95706SOL    HW289016   5.817   1.014   2.836
95707SOL     OW89017   5.834  14.701   7.454
95707SOL    HW189018   5.753  14.654   7.433
95707SOL    HW289019   5.839  14.771   7.388
95708SOL     OW89020   0.922   9.390  14.161
95708SOL    HW189021   0.885   9.307  14.131
95708SOL    HW289022   0.994   9.407  14.100
95709SOL     OW89023   5.591   1.214   5.681
95709SOL    HW189024   5.546   1.131   5.698
95709SOL    HW289025   5.628   1.239   5.766
95710SOL     OW89026   1.912   9.085  10.779
95710SOL    HW189027   1.828   9.041  10.768
95710SOL    HW289028   1.933   9.121  10.693
95711SOL     OW89029   3.983   2.863   5.764
95711SOL    HW189030   3.943   2.817   5.837
95711SOL    HW289031   3.976   2.956   5.788
95712SOL     OW89032   7.750   4.632  14.718
95712SOL    HW189033   7.743   4.539  14.739
95712SOL    HW289034   7.730   4.637  14.624
95713SOL     OW89035  12.517  14.575  14.554
95713SOL    HW189036  12.463  14.496  14.555
95713SOL    HW289037  12.458  14.645  14.579
95714SOL     OW89038  11.008  11.158  11.122
95714SOL    HW189039  10.972  11.207  11.048
95714SOL    HW289040  10.937  11.156  11.186
95715SOL     OW89041  10.272   6.521   1.882
95715SOL    HW189042  10.179   6.536   1.899
95715SOL    HW289043  10.275   6.476   1.798
95716SOL     OW89044   4.272  10.507  11.078
95716SOL    HW189045   4.228  10.426  11.053
95716SOL    HW289046   4.365  10.483  11.082
95717SOL     OW89047   4.454   5.212   6.152
95717SOL    HW189048   4.361   5.215   6.126
95717SOL    HW289049   4.498   5.267   6.088
95718SOL     OW89050  14.096   8.582   2.406
95718SOL    HW189051  14.049   8.500   2.418
95718SOL    HW289052  14.093   8.598   2.312
95719SOL     OW89053   7.488   8.975   3.438
95719SOL    HW189054   7.562   8.918   3.417
95719SOL    HW289055   7.485   9.039   3.367
95720SOL     OW89056   7.358   0.703   8.584
95720SOL    HW189057   7.415   0.742   8.650
95720SOL    HW289058   7.417   0.672   8.516
95721SOL     OW89059   0.219   1.289   6.896
95721SOL    HW189060   0.193   1.220   6.835
95721SOL    HW289061   0.146   1.351   6.895
95722SOL     OW89062   6.849  13.890  10.474
95722SOL    HW189063   6.903  13.811  10.470
95722SOL    HW289064   6.769  13.867  10.427
95723SOL     OW89065  13.425  13.102  10.723
95723SOL    HW189066  13.515  13.100  10.690
95723SOL    HW289067  13.430  13.154  10.803
95724SOL     OW89068   3.462   2.939   6.213
95724SOL    HW189069   3.516   2.896   6.280
95724SOL    HW289070   3.476   2.887   6.134
95725SOL     OW89071   6.488  12.343   2.121
95725SOL    HW189072   6.535  12.424   2.142
95725SOL    HW289073   6.556  12.283   2.090
95726SOL     OW89074   7.007   1.620   5.546
95726SOL    HW189075   6.949   1.559   5.593
95726SOL    HW289076   7.026   1.575   5.463
95727SOL     OW89077   9.909  12.481  13.956
95727SOL    HW189078   9.997  12.487  13.920
95727SOL    HW289079   9.858  12.546  13.906
95728SOL     OW89080   5.155   5.645   3.280
95728SOL    HW189081   5.187   5.702   3.350
95728SOL    HW289082   5.173   5.557   3.311
95729SOL     OW89083   0.426  10.626  10.425
95729SOL    HW189084   0.422  10.661  10.336
95729SOL    HW289085   0.373  10.686  10.477
95730SOL     OW89086   6.689  14.183   7.256
95730SOL    HW189087   6.774  14.155   7.221
95730SOL    HW289088   6.625  14.136   7.204
95731SOL     OW89089  14.339   3.696  14.748
95731SOL    HW189090  14.420   3.667  14.706
95731SOL    HW289091  14.270   3.649  14.701
95732SOL     OW89092  12.600   3.006   2.228
95732SOL    HW189093  12.549   3.000   2.310
95732SOL    HW289094  12.602   3.099   2.208
95733SOL     OW89095   8.526   0.549   8.421
95733SOL    HW189096   8.545   0.456   8.412
95733SOL    HW289097   8.490   0.575   8.336
95734SOL     OW89098   7.275  14.193  10.339
95734SOL    HW189099   7.337  14.155  10.400
95734SOL    HW289100   7.212  14.240  10.395
95735SOL     OW89101   5.309   2.180   7.612
95735SOL    HW189102   5.374   2.188   7.542
95735SOL    HW289103   5.233   2.228   7.579
95736SOL     OW89104   8.406   9.070  13.721
95736SOL    HW189105   8.413   9.117  13.637
95736SOL    HW289106   8.312   9.062  13.736
95737SOL     OW89107   3.327   2.298   4.768
95737SOL    HW189108   3.323   2.389   4.800
95737SOL    HW289109   3.401   2.298   4.707
95738SOL     OW89110  12.773   0.565   9.793
95738SOL    HW189111  12.838   0.592   9.728
95738SOL    HW289112  12.701   0.529   9.741
95739SOL     OW89113  10.454   2.507   9.426
95739SOL    HW189114  10.367   2.482   9.458
95739SOL    HW289115  10.464   2.597   9.455
95740SOL     OW89116  11.139   1.313   8.890
95740SOL    HW189117  11.086   1.343   8.963
95740SOL    HW289118  11.199   1.249   8.928
95741SOL     OW89119  14.377   1.407   8.478
95741SOL    HW189120  14.421   1.392   8.562
95741SOL    HW289121  14.393   1.328   8.427
95742SOL     OW89122   1.160   3.703  11.800
95742SOL    HW189123   1.147   3.611  11.778
95742SOL    HW289124   1.119   3.713  11.885
95743SOL     OW89125   5.810  14.722  12.077
95743SOL    HW189126   5.894  14.684  12.051
95743SOL    HW289127   5.829  14.767  12.159
95744SOL     OW89128   0.678  10.260  10.222
95744SOL    HW189129   0.668  10.172  10.259
95744SOL    HW289130   0.630  10.317  10.283
95745SOL     OW89131   9.542   1.549  10.637
95745SOL    HW189132   9.598   1.627  10.637
95745SOL    HW289133   9.593   1.483  10.591
95746SOL     OW89134  11.947   8.579   4.450
95746SOL    HW189135  11.864   8.540   4.477
95746SOL    HW289136  11.933   8.605   4.359
95747SOL     OW89137  12.272   8.090   7.546
95747SOL    HW189138  12.301   8.119   7.633
95747SOL    HW289139  12.317   8.148   7.485
95748SOL     OW89140   0.432   7.516   6.747
95748SOL    HW189141   0.346   7.498   6.784
95748SOL    HW289142   0.490   7.523   6.823
95749SOL     OW89143   4.279   7.744   3.736
95749SOL    HW189144   4.279   7.660   3.782
95749SOL    HW289145   4.271   7.809   3.806
95750SOL     OW89146   2.570   1.271   6.421
95750SOL    HW189147   2.559   1.215   6.345
95750SOL    HW289148   2.572   1.211   6.495
95751SOL     OW89149   7.304  12.965   9.860
95751SOL    HW189150   7.297  12.943   9.768
95751SOL    HW289151   7.299  13.060   9.863
95752SOL     OW89152   4.225  12.497  14.463
95752SOL    HW189153   4.196  12.560  14.529
95752SOL    HW289154   4.202  12.537  14.380
95753SOL     OW89155   7.844   4.418   6.559
95753SOL    HW189156   7.887   4.444   6.641
95753SOL    HW289157   7.755   4.454   6.567
95754SOL     OW89158  12.382  11.027  10.093
95754SOL    HW189159  12.366  11.005  10.185
95754SOL    HW289160  12.342  10.954  10.044
95755SOL     OW89161  11.198  12.948   1.929
95755SOL    HW189162  11.233  12.945   1.840
95755SOL    HW289163  11.169  13.039   1.940
95756SOL     OW89164  11.921   7.818   1.905
95756SOL    HW189165  11.863   7.765   1.961
95756SOL    HW289166  11.947   7.891   1.960
95757SOL     OW89167   7.406   9.402   4.118
95757SOL    HW189168   7.355   9.329   4.152
95757SOL    HW289169   7.406   9.467   4.189
95758SOL     OW89170   5.845   2.697   5.730
95758SOL    HW189171   5.837   2.727   5.640
95758SOL    HW289172   5.924   2.740   5.763
95759SOL     OW89173  12.518  13.341   6.470
95759SOL    HW189174  12.546  13.430   6.449
95759SOL    HW289175  12.571  13.286   6.412
95760SOL     OW89176  11.568   5.749   2.261
95760SOL    HW189177  11.537   5.823   2.313
95760SOL    HW289178  11.654   5.728   2.298
95761SOL     OW89179  12.620   9.064  10.648
95761SOL    HW189180  12.703   9.057  10.601
95761SOL    HW289181  12.642   9.048  10.740
95762SOL     OW89182  10.147  14.306   9.601
95762SOL    HW189183  10.180  14.382   9.552
95762SOL    HW289184  10.083  14.344   9.662
95763SOL     OW89185   9.795   7.192  10.502
95763SOL    HW189186   9.823   7.253  10.569
95763SOL    HW289187   9.832   7.108  10.529
95764SOL     OW89188  14.657   2.622   2.534
95764SOL    HW189189  14.748   2.600   2.555
95764SOL    HW289190  14.605   2.564   2.590
95765SOL     OW89191   7.179   9.465  12.250
95765SOL    HW189192   7.177   9.558  12.230
95765SOL    HW289193   7.225   9.425  12.176
95766SOL     OW89194   9.077   2.469   4.569
95766SOL    HW189195   9.064   2.506   4.657
95766SOL    HW289196   9.143   2.526   4.530
95767SOL     OW89197  14.422  11.621   2.355
95767SOL    HW189198  14.450  11.549   2.299
95767SOL    HW289199  14.365  11.581   2.420
95768SOL     OW89200   8.209   2.296  12.208
95768SOL    HW189201   8.151   2.268  12.137
95768SOL    HW289202   8.150   2.323  12.278
95769SOL     OW89203   1.468   1.304  12.729
95769SOL    HW189204   1.423   1.222  12.747
95769SOL    HW289205   1.518   1.288  12.649
95770SOL     OW89206  10.180  13.006   6.840
95770SOL    HW189207  10.238  13.011   6.916
95770SOL    HW289208  10.118  12.936   6.862
95771SOL     OW89209  12.052  10.089  13.783
95771SOL    HW189210  12.057  10.144  13.704
95771SOL    HW289211  11.987  10.022  13.761
95772SOL     OW89212   8.547   9.802   7.812
95772SOL    HW189213   8.459   9.766   7.807
95772SOL    HW289214   8.569   9.825   7.721
95773SOL     OW89215   0.532   9.977   8.091
95773SOL    HW189216   0.484  10.042   8.143
95773SOL    HW289217   0.465   9.938   8.035
95774SOL     OW89218  13.805  13.013   1.217
95774SOL    HW189219  13.845  13.094   1.247
95774SOL    HW289220  13.879  12.960   1.186
95775SOL     OW89221   0.070  12.506   9.507
95775SOL    HW189222   0.086  12.456   9.426
95775SOL    HW289223   0.128  12.582   9.500
95776SOL     OW89224  11.472   5.075  10.233
95776SOL    HW189225  11.381   5.095  10.210
95776SOL    HW289226  11.488   4.989  10.194
95777SOL     OW89227   4.770   5.116   7.089
95777SOL    HW189228   4.802   5.040   7.138
95777SOL    HW289229   4.828   5.121   7.013
95778SOL     OW89230   7.761   2.216  12.275
95778SOL    HW189231   7.761   2.222  12.180
95778SOL    HW289232   7.671   2.235  12.301
95779SOL     OW89233   8.154   2.296  14.203
95779SOL    HW189234   8.225   2.293  14.267
95779SOL    HW289235   8.175   2.226  14.142
95780SOL     OW89236   3.650  11.288   3.941
95780SOL    HW189237   3.672  11.319   4.029
95780SOL    HW289238   3.607  11.204   3.955
95781SOL     OW89239   0.400   9.457  10.805
95781SOL    HW189240   0.493   9.432  10.802
95781SOL    HW289241   0.367   9.436  10.718
95782SOL     OW89242  13.931  11.122   2.953
95782SOL    HW189243  13.923  11.052   3.019
95782SOL    HW289244  13.978  11.081   2.881
95783SOL     OW89245  13.657   3.222   3.839
95783SOL    HW189246  13.747   3.212   3.870
95783SOL    HW289247  13.617   3.284   3.901
95784SOL     OW89248   2.453  12.721   1.418
95784SOL    HW189249   2.366  12.706   1.454
95784SOL    HW289250   2.457  12.815   1.402
95785SOL     OW89251   8.025   2.943   0.072
95785SOL    HW189252   7.988   2.863   0.034
95785SOL    HW289253   8.042   2.999  14.866
95786SOL     OW89254   6.992  12.695   4.476
95786SOL    HW189255   6.939  12.672   4.400
95786SOL    HW289256   7.067  12.742   4.440
95787SOL     OW89257   9.003   0.611  14.583
95787SOL    HW189258   8.928   0.661  14.616
95787SOL    HW289259   9.073   0.675  14.573
95788SOL     OW89260   7.935   9.483   0.718
95788SOL    HW189261   7.889   9.538   0.781
95788SOL    HW289262   7.893   9.502   0.634
95789SOL     OW89263   3.358  11.099   8.180
95789SOL    HW189264   3.289  11.159   8.209
95789SOL    HW289265   3.432  11.119   8.237
95790SOL     OW89266   1.601  14.532  10.556
95790SOL    HW189267   1.641  14.539  10.643
95790SOL    HW289268   1.605  14.620  10.520
95791SOL     OW89269   6.696   7.022   0.469
95791SOL    HW189270   6.648   7.096   0.431
95791SOL    HW289271   6.776   7.060   0.503
95792SOL     OW89272  10.447  11.897  12.563
95792SOL    HW189273  10.353  11.881  12.562
95792SOL    HW289274  10.462  11.961  12.494
95793SOL     OW89275  14.237  13.263   4.485
95793SOL    HW189276  14.259  13.176   4.454
95793SOL    HW289277  14.317  13.314   4.472
95794SOL     OW89278   2.253   6.902   7.509
95794SOL    HW189279   2.301   6.820   7.523
95794SOL    HW289280   2.283   6.960   7.579
95795SOL     OW89281  10.564  13.579   4.663
95795SOL    HW189282  10.544  13.613   4.750
95795SOL    HW289283  10.479  13.567   4.621
95796SOL     OW89284   0.394   9.822   2.706
95796SOL    HW189285   0.430   9.746   2.662
95796SOL    HW289286   0.464   9.851   2.765
95797SOL     OW89287   7.266  11.929  13.384
95797SOL    HW189288   7.295  12.007  13.337
95797SOL    HW289289   7.346  11.889  13.417
95798SOL     OW89290  12.299   3.690  13.067
95798SOL    HW189291  12.226   3.725  13.015
95798SOL    HW289292  12.263   3.615  13.113
95799SOL     OW89293   5.581  14.725  14.029
95799SOL    HW189294   5.485  14.723  14.028
95799SOL    HW289295   5.606  14.638  13.997
95800SOL     OW89296  10.425   4.720   3.709
95800SOL    HW189297  10.464   4.687   3.790
95800SOL    HW289298  10.389   4.642   3.667
95801SOL     OW89299   0.540  14.121  13.710
95801SOL    HW189300   0.475  14.182  13.676
95801SOL    HW289301   0.605  14.176  13.754
95802SOL     OW89302   0.837   5.956   1.205
95802SOL    HW189303   0.756   6.007   1.201
95802SOL    HW289304   0.809   5.865   1.201
95803SOL     OW89305   3.140  10.634   5.212
95803SOL    HW189306   3.235  10.624   5.217
95803SOL    HW289307   3.108  10.547   5.187
95804SOL     OW89308   2.239  11.659   3.660
95804SOL    HW189309   2.170  11.593   3.650
95804SOL    HW289310   2.319  11.613   3.638
95805SOL     OW89311  14.369  11.636   2.049
95805SOL    HW189312  14.384  11.647   1.955
95805SOL    HW289313  14.418  11.707   2.090
95806SOL     OW89314   1.638   4.074   0.216
95806SOL    HW189315   1.685   4.018   0.154
95806SOL    HW289316   1.707   4.114   0.269
95807SOL     OW89317  13.616   8.342  12.259
95807SOL    HW189318  13.548   8.402  12.227
95807SOL    HW289319  13.568   8.269  12.297
95808SOL     OW89320   4.243  10.440   0.219
95808SOL    HW189321   4.301  10.463   0.147
95808SOL    HW289322   4.229  10.522   0.265
95809SOL     OW89323   8.070   4.032  13.839
95809SOL    HW189324   8.097   4.119  13.808
95809SOL    HW289325   8.009   4.051  13.911
95810SOL     OW89326   5.414   4.333  13.114
95810SOL    HW189327   5.321   4.308  13.108
95810SOL    HW289328   5.419   4.418  13.070
95811SOL     OW89329   0.156   5.024   9.786
95811SOL    HW189330   0.134   5.117   9.775
95811SOL    HW289331   0.251   5.020   9.771
95812SOL     OW89332  12.612   2.985   4.991
95812SOL    HW189333  12.628   2.898   4.954
95812SOL    HW289334  12.620   2.973   5.085
95813SOL     OW89335   2.538  12.490   1.557
95813SOL    HW189336   2.533  12.574   1.511
95813SOL    HW289337   2.534  12.513   1.649
95814SOL     OW89338   2.146  11.754   0.775
95814SOL    HW189339   2.171  11.842   0.802
95814SOL    HW289340   2.222  11.721   0.727
95815SOL     OW89341   6.890  11.314   5.212
95815SOL    HW189342   6.851  11.229   5.193
95815SOL    HW289343   6.816  11.374   5.215
95816SOL     OW89344   8.189   1.536  14.359
95816SOL    HW189345   8.269   1.576  14.391
95816SOL    HW289346   8.212   1.500  14.274
95817SOL     OW89347   6.964   0.731   3.214
95817SOL    HW189348   6.935   0.791   3.144
95817SOL    HW289349   7.058   0.746   3.221
95818SOL     OW89350   8.451   4.462   9.514
95818SOL    HW189351   8.477   4.553   9.522
95818SOL    HW289352   8.439   4.448   9.420
95819SOL     OW89353   3.584   1.886   2.705
95819SOL    HW189354   3.510   1.839   2.667
95819SOL    HW289355   3.641   1.817   2.740
95820SOL     OW89356  10.165   7.361  11.585
95820SOL    HW189357  10.152   7.306  11.508
95820SOL    HW289358  10.126   7.445  11.562
95821SOL     OW89359  13.372  12.708   8.536
95821SOL    HW189360  13.343  12.644   8.601
95821SOL    HW289361  13.344  12.793   8.571
95822SOL     OW89362  10.847  10.076   8.084
95822SOL    HW189363  10.912  10.118   8.141
95822SOL    HW289364  10.858   9.983   8.100
95823SOL     OW89365   2.181   9.170   9.352
95823SOL    HW189366   2.205   9.188   9.261
95823SOL    HW289367   2.141   9.083   9.349
95824SOL     OW89368  13.789   6.092   1.344
95824SOL    HW189369  13.855   6.050   1.398
95824SOL    HW289370  13.756   6.022   1.287
95825SOL     OW89371   7.772  14.747   6.595
95825SOL    HW189372   7.782  14.834   6.556
95825SOL    HW289373   7.689  14.714   6.560
95826SOL     OW89374   1.734   2.154   9.727
95826SOL    HW189375   1.700   2.236   9.691
95826SOL    HW289376   1.659   2.113   9.768
95827SOL     OW89377   4.490   5.155   5.468
95827SOL    HW189378   4.553   5.150   5.396
95827SOL    HW289379   4.471   5.064   5.491
95828SOL     OW89380   2.511   5.204  11.186
95828SOL    HW189381   2.436   5.258  11.212
95828SOL    HW289382   2.579   5.226  11.249
95829SOL     OW89383  13.715   0.136  12.581
95829SOL    HW189384  13.797   0.121  12.534
95829SOL    HW289385  13.665   0.055  12.569
95830SOL     OW89386   3.961  14.217  14.854
95830SOL    HW189387   3.918  14.276   0.046
95830SOL    HW289388   3.903  14.141  14.849
95831SOL     OW89389   4.491   6.021  12.446
95831SOL    HW189390   4.541   5.940  12.450
95831SOL    HW289391   4.544   6.085  12.494
95832SOL     OW89392   3.801   6.248  10.126
95832SOL    HW189393   3.856   6.210  10.194
95832SOL    HW289394   3.836   6.337  10.114
95833SOL     OW89395   1.844   5.315  10.357
95833SOL    HW189396   1.843   5.285  10.448
95833SOL    HW289397   1.848   5.234  10.306
95834SOL     OW89398   4.702   7.603   3.480
95834SOL    HW189399   4.773   7.645   3.431
95834SOL    HW289400   4.676   7.667   3.546
95835SOL     OW89401   9.740   4.009   2.485
95835SOL    HW189402   9.797   3.933   2.475
95835SOL    HW289403   9.779   4.076   2.430
95836SOL     OW89404  10.213   3.530   3.431
95836SOL    HW189405  10.288   3.489   3.474
95836SOL    HW289406  10.213   3.620   3.464
95837SOL     OW89407  10.715  10.548   3.372
95837SOL    HW189408  10.696  10.575   3.282
95837SOL    HW289409  10.700  10.454   3.372
95838SOL     OW89410  10.327   0.439   4.688
95838SOL    HW189411  10.386   0.511   4.707
95838SOL    HW289412  10.376   0.360   4.711
95839SOL     OW89413  11.838  13.703   3.910
95839SOL    HW189414  11.748  13.734   3.907
95839SOL    HW289415  11.866  13.720   4.000
95840SOL     OW89416   9.590   5.258  14.219
95840SOL    HW189417   9.670   5.311  14.210
95840SOL    HW289418   9.568   5.233  14.129
95841SOL     OW89419  12.766   6.768   0.214
95841SOL    HW189420  12.676   6.801   0.214
95841SOL    HW289421  12.757   6.673   0.205
95842SOL     OW89422   2.220  10.994   8.508
95842SOL    HW189423   2.244  11.024   8.596
95842SOL    HW289424   2.241  11.067   8.451
95843SOL     OW89425   2.802   8.449   3.266
95843SOL    HW189426   2.810   8.459   3.171
95843SOL    HW289427   2.850   8.523   3.302
95844SOL     OW89428  11.037  13.029   8.956
95844SOL    HW189429  10.989  13.097   9.004
95844SOL    HW289430  11.059  13.070   8.873
95845SOL     OW89431  10.015   1.169   6.713
95845SOL    HW189432   9.940   1.114   6.691
95845SOL    HW289433  10.080   1.150   6.645
95846SOL     OW89434   3.904  11.946   0.530
95846SOL    HW189435   3.912  12.037   0.503
95846SOL    HW289436   3.860  11.950   0.615
95847SOL     OW89437   5.174  12.149  14.280
95847SOL    HW189438   5.230  12.171  14.354
95847SOL    HW289439   5.222  12.082  14.232
95848SOL     OW89440  14.012   0.884  12.170
95848SOL    HW189441  13.961   0.925  12.100
95848SOL    HW289442  14.011   0.791  12.150
95849SOL     OW89443  14.516   2.671  10.372
95849SOL    HW189444  14.520   2.579  10.345
95849SOL    HW289445  14.431   2.678  10.417
95850SOL     OW89446   9.713   0.985   9.168
95850SOL    HW189447   9.643   0.928   9.136
95850SOL    HW289448   9.675   1.029   9.245
95851SOL     OW89449   6.454   5.259  13.415
95851SOL    HW189450   6.384   5.233  13.474
95851SOL    HW289451   6.533   5.221  13.454
95852SOL     OW89452  14.620  12.501   7.797
95852SOL    HW189453  14.589  12.487   7.708
95852SOL    HW289454  14.678  12.426   7.815
95853SOL     OW89455  13.277   4.433  13.912
95853SOL    HW189456  13.251   4.348  13.876
95853SOL    HW289457  13.198   4.466  13.955
95854SOL     OW89458  13.287   3.260   4.760
95854SOL    HW189459  13.255   3.257   4.851
95854SOL    HW289460  13.266   3.349   4.731
95855SOL     OW89461  10.651  12.689  12.968
95855SOL    HW189462  10.620  12.780  12.971
95855SOL    HW289463  10.730  12.692  12.913
95856SOL     OW89464  11.077   3.867   2.151
95856SOL    HW189465  11.070   3.815   2.071
95856SOL    HW289466  11.117   3.807   2.214
95857SOL     OW89467  11.897   2.286   7.990
95857SOL    HW189468  11.855   2.205   8.019
95857SOL    HW289469  11.906   2.338   8.070
95858SOL     OW89470  13.492   9.277   0.599
95858SOL    HW189471  13.549   9.329   0.656
95858SOL    HW289472  13.552   9.232   0.540
95859SOL     OW89473   1.195  12.879   4.231
95859SOL    HW189474   1.282  12.839   4.231
95859SOL    HW289475   1.137  12.810   4.265
95860SOL     OW89476   8.962   4.668   0.775
95860SOL    HW189477   8.946   4.669   0.870
95860SOL    HW289478   9.025   4.738   0.760
95861SOL     OW89479  11.657   5.463   8.934
95861SOL    HW189480  11.679   5.483   9.025
95861SOL    HW289481  11.740   5.467   8.887
95862SOL     OW89482   6.774  10.750  11.496
95862SOL    HW189483   6.792  10.817  11.429
95862SOL    HW289484   6.683  10.766  11.521
95863SOL     OW89485  11.827   1.113   1.579
95863SOL    HW189486  11.802   1.073   1.496
95863SOL    HW289487  11.802   1.206   1.569
95864SOL     OW89488  12.030   8.828   2.822
95864SOL    HW189489  11.995   8.896   2.764
95864SOL    HW289490  12.003   8.856   2.910
95865SOL     OW89491   0.244   6.212  13.676
95865SOL    HW189492   0.232   6.283  13.739
95865SOL    HW289493   0.162   6.163  13.680
95866SOL     OW89494   9.265   7.143  13.844
95866SOL    HW189495   9.342   7.183  13.803
95866SOL    HW289496   9.284   7.049  13.843
95867SOL     OW89497  14.001   8.444   8.872
95867SOL    HW189498  13.973   8.474   8.786
95867SOL    HW289499  14.001   8.349   8.866
95868SOL     OW89500   0.817   4.879   9.234
95868SOL    HW189501   0.884   4.901   9.170
95868SOL    HW289502   0.865   4.844   9.309
95869SOL     OW89503   7.792  14.560   2.993
95869SOL    HW189504   7.888  14.562   2.990
95869SOL    HW289505   7.769  14.471   2.968
95870SOL     OW89506   3.959   5.111  13.884
95870SOL    HW189507   3.958   5.016  13.896
95870SOL    HW289508   4.036   5.128  13.831
95871SOL     OW89509  13.700  10.479   8.205
95871SOL    HW189510  13.694  10.385   8.190
95871SOL    HW289511  13.612  10.512   8.189
95872SOL     OW89512   3.946  11.400  14.275
95872SOL    HW189513   4.028  11.355  14.256
95872SOL    HW289514   3.933  11.389  14.369
95873SOL     OW89515   1.276   4.559   3.694
95873SOL    HW189516   1.276   4.481   3.639
95873SOL    HW289517   1.293   4.526   3.783
95874SOL     OW89518   3.922   2.039   8.771
95874SOL    HW189519   3.946   2.117   8.721
95874SOL    HW289520   3.945   2.060   8.861
95875SOL     OW89521   5.335   9.962   0.787
95875SOL    HW189522   5.398  10.026   0.820
95875SOL    HW289523   5.364   9.944   0.697
95876SOL     OW89524   7.180  10.725  13.745
95876SOL    HW189525   7.148  10.815  13.748
95876SOL    HW289526   7.275  10.734  13.742
95877SOL     OW89527   0.805   5.513   9.365
95877SOL    HW189528   0.821   5.559   9.283
95877SOL    HW289529   0.879   5.536   9.421
95878SOL     OW89530  14.343  14.689   9.333
95878SOL    HW189531  14.322  14.725   9.246
95878SOL    HW289532  14.424  14.640   9.320
95879SOL     OW89533  10.316   2.368  11.537
95879SOL    HW189534  10.236   2.407  11.500
95879SOL    HW289535  10.301   2.369  11.632
95880SOL     OW89536  14.052   1.343   8.185
95880SOL    HW189537  13.997   1.285   8.133
95880SOL    HW289538  14.012   1.430   8.175
95881SOL     OW89539   5.164  10.305   5.047
95881SOL    HW189540   5.069  10.315   5.050
95881SOL    HW289541   5.187  10.318   4.955
95882SOL     OW89542   0.297  13.157  11.819
95882SOL    HW189543   0.304  13.125  11.909
95882SOL    HW289544   0.312  13.251  11.825
95883SOL     OW89545   4.623   7.885   4.451
95883SOL    HW189546   4.531   7.912   4.458
95883SOL    HW289547   4.658   7.936   4.379
95884SOL     OW89548   7.238  12.611   0.634
95884SOL    HW189549   7.163  12.668   0.613
95884SOL    HW289550   7.202  12.546   0.695
95885SOL     OW89551   4.316  11.969   0.793
95885SOL    HW189552   4.364  11.984   0.711
95885SOL    HW289553   4.288  12.057   0.821
95886SOL     OW89554   4.976  11.855   1.108
95886SOL    HW189555   4.932  11.811   1.036
95886SOL    HW289556   4.985  11.788   1.176
95887SOL     OW89557   6.289  13.461  12.240
95887SOL    HW189558   6.252  13.452  12.328
95887SOL    HW289559   6.351  13.534  12.247
95888SOL     OW89560   1.758   0.112   0.185
95888SOL    HW189561   1.735   0.027   0.149
95888SOL    HW289562   1.745   0.102   0.280
95889SOL     OW89563   5.615  13.191   6.783
95889SOL    HW189564   5.537  13.177   6.837
95889SOL    HW289565   5.613  13.120   6.719
95890SOL     OW89566   0.155   3.526  14.575
95890SOL    HW189567   0.150   3.584  14.499
95890SOL    HW289568   0.127   3.580  14.648
95891SOL     OW89569   5.264   2.563   0.506
95891SOL    HW189570   5.183   2.573   0.557
95891SOL    HW289571   5.304   2.483   0.541
95892SOL     OW89572  11.888   4.043  14.208
95892SOL    HW189573  11.967   4.022  14.257
95892SOL    HW289574  11.840   4.106  14.263
95893SOL     OW89575   9.589  11.695  13.096
95893SOL    HW189576   9.536  11.751  13.153
95893SOL    HW289577   9.528  11.666  13.028
95894SOL     OW89578   7.800   1.264   5.565
95894SOL    HW189579   7.850   1.232   5.490
95894SOL    HW289580   7.709   1.243   5.543
95895SOL     OW89581   6.984  10.888   8.832
95895SOL    HW189582   6.927  10.878   8.756
95895SOL    HW289583   6.929  10.866   8.907
95896SOL     OW89584  14.500   9.587  10.877
95896SOL    HW189585  14.565   9.609  10.810
95896SOL    HW289586  14.521   9.497  10.902
95897SOL     OW89587   8.005   5.153   2.053
95897SOL    HW189588   7.995   5.062   2.081
95897SOL    HW289589   8.082   5.153   1.998
95898SOL     OW89590   5.330   4.334  14.539
95898SOL    HW189591   5.272   4.370  14.606
95898SOL    HW289592   5.318   4.390  14.463
95899SOL     OW89593   8.509  14.697   6.620
95899SOL    HW189594   8.512  14.709   6.715
95899SOL    HW289595   8.497  14.785   6.585
95900SOL     OW89596   9.243   5.363  12.606
95900SOL    HW189597   9.288   5.293  12.654
95900SOL    HW289598   9.183   5.402  12.669
95901SOL     OW89599   6.908   3.225   4.122
95901SOL    HW189600   6.893   3.176   4.202
95901SOL    HW289601   6.891   3.316   4.146
95902SOL     OW89602  14.679   4.643   7.001
95902SOL    HW189603  14.755   4.627   7.057
95902SOL    HW289604  14.682   4.737   6.982
95903SOL     OW89605   5.590  12.519   2.045
95903SOL    HW189606   5.680  12.511   2.077
95903SOL    HW289607   5.573  12.434   2.004
95904SOL     OW89608  12.276   6.795   6.327
95904SOL    HW189609  12.365   6.829   6.329
95904SOL    HW289610  12.271   6.734   6.400
95905SOL     OW89611  10.991   5.908  11.997
95905SOL    HW189612  11.067   5.966  12.007
95905SOL    HW289613  11.019   5.843  11.932
95906SOL     OW89614   2.796   4.667   0.836
95906SOL    HW189615   2.849   4.643   0.760
95906SOL    HW289616   2.847   4.734   0.881
95907SOL     OW89617   9.477   9.692  12.467
95907SOL    HW189618   9.465   9.598  12.481
95907SOL    HW289619   9.483   9.729  12.555
95908SOL     OW89620   4.815   7.606   6.244
95908SOL    HW189621   4.823   7.563   6.159
95908SOL    HW289622   4.755   7.679   6.229
95909SOL     OW89623  11.170   8.539  12.530
95909SOL    HW189624  11.077   8.532  12.550
95909SOL    HW289625  11.203   8.603  12.593
95910SOL     OW89626  10.798   5.247   3.284
95910SOL    HW189627  10.822   5.237   3.376
95910SOL    HW289628  10.765   5.337   3.276
95911SOL     OW89629   0.128   9.546   9.727
95911SOL    HW189630   0.214   9.516   9.697
95911SOL    HW289631   0.075   9.545   9.647
95912SOL     OW89632   7.377   6.485  14.810
95912SOL    HW189633   7.380   6.580  14.818
95912SOL    HW289634   7.435   6.465  14.736
95913SOL     OW89635   6.699   9.409   8.929
95913SOL    HW189636   6.620   9.463   8.916
95913SOL    HW289637   6.731   9.435   9.016
95914SOL     OW89638   7.035  10.250   7.600
95914SOL    HW189639   6.946  10.252   7.565
95914SOL    HW289640   7.091  10.235   7.524
95915SOL     OW89641   6.163  11.630   6.504
95915SOL    HW189642   6.125  11.714   6.531
95915SOL    HW289643   6.089  11.569   6.508
95916SOL     OW89644  10.221   7.469   1.939
95916SOL    HW189645  10.185   7.521   2.010
95916SOL    HW289646  10.172   7.387   1.941
95917SOL     OW89647  13.640   4.013   1.428
95917SOL    HW189648  13.679   3.962   1.498
95917SOL    HW289649  13.672   3.973   1.348
95918SOL     OW89650  13.704  14.060   0.765
95918SOL    HW189651  13.693  14.081   0.857
95918SOL    HW289652  13.734  14.142   0.725
95919SOL     OW89653   2.349   9.532   0.266
95919SOL    HW189654   2.332   9.576   0.349
95919SOL    HW289655   2.376   9.601   0.207
95920SOL     OW89656   9.660  13.199  13.067
95920SOL    HW189657   9.731  13.151  13.024
95920SOL    HW289658   9.583  13.143  13.056
95921SOL     OW89659   5.755   5.041  12.912
95921SOL    HW189660   5.828   5.101  12.895
95921SOL    HW289661   5.714   5.030  12.826
95922SOL     OW89662   0.945  10.083   9.160
95922SOL    HW189663   0.878  10.025   9.196
95922SOL    HW289664   0.944  10.159   9.218
95923SOL     OW89665  14.228  12.698  14.416
95923SOL    HW189666  14.282  12.776  14.398
95923SOL    HW289667  14.139  12.732  14.423
95924SOL     OW89668   9.451   9.129  13.517
95924SOL    HW189669   9.501   9.069  13.461
95924SOL    HW289670   9.486   9.216  13.497
95925SOL     OW89671   4.796   3.731   7.890
95925SOL    HW189672   4.777   3.824   7.901
95925SOL    HW289673   4.731   3.687   7.944
95926SOL     OW89674  13.222   5.029   2.089
95926SOL    HW189675  13.232   5.021   1.994
95926SOL    HW289676  13.133   5.062   2.102
95927SOL     OW89677   8.665   0.058  14.058
95927SOL    HW189678   8.758   0.081  14.063
95927SOL    HW289679   8.655   0.017  13.972
95928SOL     OW89680   9.549   8.402   5.781
95928SOL    HW189681   9.454   8.390   5.789
95928SOL    HW289682   9.561   8.497   5.783
95929SOL     OW89683   6.224   9.456  14.312
95929SOL    HW189684   6.140   9.499  14.294
95929SOL    HW289685   6.218   9.428  14.403
95930SOL     OW89686   3.721  14.032   0.037
95930SOL    HW189687   3.641  14.009  14.860
95930SOL    HW289688   3.691  14.072   0.119
95931SOL     OW89689  14.555   3.455   9.217
95931SOL    HW189690  14.488   3.388   9.227
95931SOL    HW289691  14.512   3.526   9.169
95932SOL     OW89692   0.848   5.096   8.230
95932SOL    HW189693   0.804   5.122   8.149
95932SOL    HW289694   0.935   5.068   8.201
95933SOL     OW89695   2.776  13.103  14.716
95933SOL    HW189696   2.825  13.103  14.798
95933SOL    HW289697   2.816  13.173  14.664
95934SOL     OW89698   5.753  11.336  10.946
95934SOL    HW189699   5.810  11.295  10.881
95934SOL    HW289700   5.711  11.263  10.992
95935SOL     OW89701  12.646   1.441   0.258
95935SOL    HW189702  12.677   1.491   0.334
95935SOL    HW289703  12.556   1.473   0.245
95936SOL     OW89704   5.941  13.803  10.257
95936SOL    HW189705   5.931  13.831  10.348
95936SOL    HW289706   5.921  13.881  10.205
95937SOL     OW89707   8.275   1.324   3.345
95937SOL    HW189708   8.314   1.253   3.294
95937SOL    HW289709   8.193   1.344   3.300
95938SOL     OW89710   8.037   4.689   0.494
95938SOL    HW189711   8.109   4.630   0.518
95938SOL    HW289712   8.023   4.743   0.572
95939SOL     OW89713   5.490  14.415  13.659
95939SOL    HW189714   5.429  14.487  13.676
95939SOL    HW289715   5.446  14.338  13.696
95940SOL     OW89716  11.034   6.050  10.898
95940SOL    HW189717  10.971   5.978  10.893
95940SOL    HW289718  11.015   6.093  10.982
95941SOL     OW89719   1.716   6.991   3.083
95941SOL    HW189720   1.757   7.076   3.073
95941SOL    HW289721   1.658   7.000   3.159
95942SOL     OW89722  13.630   9.908  11.254
95942SOL    HW189723  13.575   9.831  11.268
95942SOL    HW289724  13.599   9.945  11.172
95943SOL     OW89725   3.401  14.795   6.467
95943SOL    HW189726   3.381  14.773   6.558
95943SOL    HW289727   3.492  14.768   6.454
95944SOL     OW89728  11.975  10.308  12.828
95944SOL    HW189729  11.891  10.333  12.867
95944SOL    HW289730  12.004  10.386  12.781
95945SOL     OW89731  12.867  10.399   6.920
95945SOL    HW189732  12.898  10.481   6.881
95945SOL    HW289733  12.831  10.349   6.846
95946SOL     OW89734   0.291   2.069  13.543
95946SOL    HW189735   0.385   2.051  13.545
95946SOL    HW289736   0.256   2.024  13.621
95947SOL     OW89737   2.363  14.353   7.085
95947SOL    HW189738   2.296  14.382   7.147
95947SOL    HW289739   2.365  14.423   7.019
95948SOL     OW89740   8.959   1.836  13.162
95948SOL    HW189741   8.979   1.906  13.100
95948SOL    HW289742   8.974   1.756  13.113
95949SOL     OW89743   2.264  12.487  14.605
95949SOL    HW189744   2.323  12.434  14.551
95949SOL    HW289745   2.178  12.478  14.562
95950SOL     OW89746   4.927   9.846  13.673
95950SOL    HW189747   5.010   9.824  13.715
95950SOL    HW289748   4.870   9.772  13.692
95951SOL     OW89749   5.665  12.727  13.958
95951SOL    HW189750   5.674  12.692  14.046
95951SOL    HW289751   5.754  12.756  13.935
95952SOL     OW89752   7.060  11.648   1.497
95952SOL    HW189753   6.988  11.711   1.489
95952SOL    HW289754   7.129  11.696   1.541
95953SOL     OW89755   2.342   3.839   7.934
95953SOL    HW189756   2.311   3.779   8.002
95953SOL    HW289757   2.437   3.830   7.934
95954SOL     OW89758   4.717  14.061   1.199
95954SOL    HW189759   4.736  14.119   1.125
95954SOL    HW289760   4.660  13.993   1.162
95955SOL     OW89761   6.545   4.468  14.408
95955SOL    HW189762   6.532   4.551  14.361
95955SOL    HW289763   6.633   4.476  14.446
95956SOL     OW89764  10.045  11.604   3.227
95956SOL    HW189765   9.986  11.549   3.278
95956SOL    HW289766  10.068  11.551   3.151
95957SOL     OW89767  13.942   1.951   8.199
95957SOL    HW189768  13.943   1.960   8.295
95957SOL    HW289769  14.017   1.896   8.179
95958SOL     OW89770   8.732   2.943   5.244
95958SOL    HW189771   8.819   2.940   5.283
95958SOL    HW289772   8.731   3.023   5.192
95959SOL     OW89773  11.885   0.158   4.316
95959SOL    HW189774  11.847   0.245   4.312
95959SOL    HW289775  11.833   0.106   4.253
95960SOL     OW89776  11.786   5.681  13.866
95960SOL    HW189777  11.744   5.619  13.926
95960SOL    HW289778  11.734   5.761  13.873
95961SOL     OW89779   6.116   5.081   4.917
95961SOL    HW189780   6.091   5.099   4.826
95961SOL    HW289781   6.036   5.098   4.967
95962SOL     OW89782  13.028   7.089   7.352
95962SOL    HW189783  12.946   7.075   7.400
95962SOL    HW289784  13.015   7.043   7.269
95963SOL     OW89785   4.069   8.081  11.416
95963SOL    HW189786   4.111   8.108  11.497
95963SOL    HW289787   4.119   8.125  11.347
95964SOL     OW89788  10.879  10.520   7.044
95964SOL    HW189789  10.901  10.428   7.064
95964SOL    HW289790  10.787  10.517   7.019
95965SOL     OW89791   3.575  12.362  13.443
95965SOL    HW189792   3.619  12.410  13.513
95965SOL    HW289793   3.482  12.382  13.454
95966SOL     OW89794   7.948   2.929   9.299
95966SOL    HW189795   8.003   2.850   9.297
95966SOL    HW289796   7.971   2.972   9.381
95967SOL     OW89797   9.157   6.523  11.037
95967SOL    HW189798   9.216   6.472  11.092
95967SOL    HW289799   9.125   6.593  11.095
95968SOL     OW89800   1.087   3.931   0.595
95968SOL    HW189801   1.137   3.855   0.566
95968SOL    HW289802   1.041   3.961   0.517
95969SOL     OW89803  11.640  13.114   2.067
95969SOL    HW189804  11.697  13.101   1.991
95969SOL    HW289805  11.642  13.029   2.112
95970SOL     OW89806  12.634   1.027  10.025
95970SOL    HW189807  12.577   0.985  10.089
95970SOL    HW289808  12.710   1.056  10.075
95971SOL     OW89809   7.148  12.720   5.309
95971SOL    HW189810   7.058  12.745   5.328
95971SOL    HW289811   7.184  12.691   5.393
95972SOL     OW89812  11.363  13.458   9.266
95972SOL    HW189813  11.417  13.439   9.189
95972SOL    HW289814  11.421  13.508   9.324
95973SOL     OW89815   9.312   9.738  13.950
95973SOL    HW189816   9.405   9.725  13.937
95973SOL    HW289817   9.270   9.676  13.890
95974SOL     OW89818   2.992   7.051   2.850
95974SOL    HW189819   3.074   7.089   2.820
95974SOL    HW289820   3.016   6.994   2.923
95975SOL     OW89821   3.775  14.746   7.194
95975SOL    HW189822   3.711  14.784   7.254
95975SOL    HW289823   3.749  14.777   7.107
95976SOL     OW89824  12.548   6.516  12.717
95976SOL    HW189825  12.539   6.526  12.622
95976SOL    HW289826  12.618   6.452  12.728
95977SOL     OW89827   9.091   8.564  13.977
95977SOL    HW189828   9.054   8.505  14.043
95977SOL    HW289829   9.184   8.540  13.974
95978SOL     OW89830   2.587  13.818   3.518
95978SOL    HW189831   2.636  13.785   3.594
95978SOL    HW289832   2.495  13.810   3.544
95979SOL     OW89833   4.664   3.718   0.457
95979SOL    HW189834   4.691   3.809   0.444
95979SOL    HW289835   4.629   3.715   0.546
95980SOL     OW89836   8.049  13.887   1.982
95980SOL    HW189837   8.086  13.969   1.948
95980SOL    HW289838   8.070  13.889   2.076
95981SOL     OW89839   0.516  10.747  10.667
95981SOL    HW189840   0.426  10.761  10.640
95981SOL    HW289841   0.543  10.667  10.620
95982SOL     OW89842   5.900   1.880   2.855
95982SOL    HW189843   5.975   1.917   2.809
95982SOL    HW289844   5.852   1.833   2.788
95983SOL     OW89845   0.273   4.724  10.372
95983SOL    HW189846   0.297   4.803  10.322
95983SOL    HW289847   0.349   4.666  10.363
95984SOL     OW89848   1.680   4.552   3.516
95984SOL    HW189849   1.695   4.515   3.603
95984SOL    HW289850   1.722   4.637   3.519
95985SOL     OW89851   9.440  11.328   2.786
95985SOL    HW189852   9.417  11.356   2.697
95985SOL    HW289853   9.502  11.256   2.773
95986SOL     OW89854  14.407  11.679  10.544
95986SOL    HW189855  14.413  11.645  10.633
95986SOL    HW289856  14.496  11.672  10.510
95987SOL     OW89857  12.123   4.098  11.307
95987SOL    HW189858  12.197   4.099  11.247
95987SOL    HW289859  12.160   4.069  11.391
95988SOL     OW89860   3.358   8.603   9.364
95988SOL    HW189861   3.325   8.513   9.369
95988SOL    HW289862   3.324   8.645   9.444
95989SOL     OW89863   3.066  10.427   3.486
95989SOL    HW189864   3.101  10.473   3.562
95989SOL    HW289865   2.971  10.441   3.490
95990SOL     OW89866   5.583  10.421   3.990
95990SOL    HW189867   5.516  10.489   3.996
95990SOL    HW289868   5.656  10.464   3.944
95991SOL     OW89869   3.647   7.939   8.825
95991SOL    HW189870   3.733   7.901   8.804
95991SOL    HW289871   3.585   7.882   8.779
95992SOL     OW89872   3.951  10.559   8.760
95992SOL    HW189873   4.045  10.556   8.776
95992SOL    HW289874   3.942  10.536   8.667
95993SOL     OW89875  14.313   1.943   0.926
95993SOL    HW189876  14.370   1.930   0.851
95993SOL    HW289877  14.351   1.888   0.995
95994SOL     OW89878   8.390  12.827   5.781
95994SOL    HW189879   8.332  12.825   5.705
95994SOL    HW289880   8.340  12.786   5.851
95995SOL     OW89881   6.204   6.821  11.204
95995SOL    HW189882   6.197   6.915  11.188
95995SOL    HW289883   6.169   6.809  11.293
95996SOL     OW89884   9.814   9.212   9.543
95996SOL    HW189885   9.827   9.168   9.627
95996SOL    HW289886   9.757   9.287   9.563
95997SOL     OW89887   2.949   3.120   9.782
95997SOL    HW189888   2.879   3.102   9.845
95997SOL    HW289889   3.022   3.064   9.810
95998SOL     OW89890  14.003  14.744   0.850
95998SOL    HW189891  14.094  14.759   0.875
95998SOL    HW289892  13.951  14.787   0.918
95999SOL     OW89893   1.368   5.945   0.652
95999SOL    HW189894   1.315   5.961   0.730
95999SOL    HW289895   1.333   6.006   0.586
96000SOL     OW89896   6.737  14.373   8.770
96000SOL    HW189897   6.703  14.372   8.680
96000SOL    HW289898   6.826  14.407   8.762
96001SOL     OW89899  11.799   0.099   5.775
96001SOL    HW189900  11.843   0.056   5.848
96001SOL    HW289901  11.783   0.188   5.805
96002SOL     OW89902   5.698   8.402  13.565
96002SOL    HW189903   5.710   8.307  13.566
96002SOL    HW289904   5.775   8.436  13.610
96003SOL     OW89905   9.092   2.454   7.062
96003SOL    HW189906   9.020   2.391   7.063
96003SOL    HW289907   9.103   2.477   6.970
96004SOL     OW89908   6.238   0.253   4.319
96004SOL    HW189909   6.167   0.213   4.268
96004SOL    HW289910   6.218   0.230   4.410
96005SOL     OW89911   2.905   3.057   1.177
96005SOL    HW189912   2.830   3.048   1.235
96005SOL    HW289913   2.876   3.020   1.094
96006SOL     OW89914   4.171   0.271   6.434
96006SOL    HW189915   4.125   0.201   6.480
96006SOL    HW289916   4.175   0.343   6.497
96007SOL     OW89917  13.111   0.494   6.725
96007SOL    HW189918  13.050   0.497   6.800
96007SOL    HW289919  13.197   0.507   6.764
96008SOL     OW89920  13.649   0.005   1.696
96008SOL    HW189921  13.685   0.074   1.751
96008SOL    HW289922  13.579  14.835   1.749
96009SOL     OW89923   0.953   3.856   9.779
96009SOL    HW189924   0.930   3.920   9.846
96009SOL    HW289925   0.978   3.778   9.828
96010SOL     OW89926   7.294   8.681  11.790
96010SOL    HW189927   7.299   8.752  11.853
96010SOL    HW289928   7.232   8.711  11.724
96011SOL     OW89929   5.794   4.761  10.468
96011SOL    HW189930   5.873   4.812  10.452
96011SOL    HW289931   5.732   4.823  10.507
96012SOL     OW89932  12.402   8.362   2.559
96012SOL    HW189933  12.366   8.420   2.626
96012SOL    HW289934  12.472   8.314   2.604
96013SOL     OW89935  11.539   0.052  14.454
96013SOL    HW189936  11.463   0.008  14.493
96013SOL    HW289937  11.536   0.026  14.362
96014SOL     OW89938   2.422   6.327  12.486
96014SOL    HW189939   2.396   6.305  12.575
96014SOL    HW289940   2.361   6.397  12.461
96015SOL     OW89941   0.927  10.670   1.181
96015SOL    HW189942   0.871  10.687   1.105
96015SOL    HW289943   0.997  10.614   1.148
96016SOL     OW89944   5.652   6.384   1.141
96016SOL    HW189945   5.667   6.475   1.164
96016SOL    HW289946   5.727   6.337   1.179
96017SOL     OW89947   3.616  11.537   5.628
96017SOL    HW189948   3.596  11.593   5.703
96017SOL    HW289949   3.535  11.537   5.576
96018SOL     OW89950   3.121  13.968  12.332
96018SOL    HW189951   3.105  14.063  12.337
96018SOL    HW289952   3.041  13.929  12.368
96019SOL     OW89953   3.234  13.023   6.805
96019SOL    HW189954   3.150  13.012   6.849
96019SOL    HW289955   3.298  12.984   6.864
96020SOL     OW89956  14.703   5.669   5.262
96020SOL    HW189957  14.790   5.630   5.270
96020SOL    HW289958  14.655   5.637   5.338
96021SOL     OW89959  14.408   5.636   4.334
96021SOL    HW189960  14.353   5.565   4.300
96021SOL    HW289961  14.412   5.699   4.262
96022SOL     OW89962  11.481   6.105  14.554
96022SOL    HW189963  11.484   6.090  14.648
96022SOL    HW289964  11.452   6.196  14.545
96023SOL     OW89965   2.324   5.081  12.498
96023SOL    HW189966   2.328   5.007  12.437
96023SOL    HW289967   2.317   5.158  12.441
96024SOL     OW89968  14.512   2.408   4.719
96024SOL    HW189969  14.569   2.473   4.678
96024SOL    HW289970  14.458   2.374   4.647
96025SOL     OW89971   0.762   3.416   7.531
96025SOL    HW189972   0.782   3.367   7.451
96025SOL    HW289973   0.696   3.363   7.576
96026SOL     OW89974  11.433  10.969   3.175
96026SOL    HW189975  11.466  11.058   3.160
96026SOL    HW289976  11.480  10.916   3.111
96027SOL     OW89977  10.883  12.119   1.046
96027SOL    HW189978  10.899  12.161   0.962
96027SOL    HW289979  10.797  12.152   1.073
96028SOL     OW89980  12.364   9.027   3.912
96028SOL    HW189981  12.403   8.962   3.970
96028SOL    HW289982  12.293   8.981   3.868
96029SOL     OW89983  12.893   9.035   1.038
96029SOL    HW189984  12.892   8.987   1.121
96029SOL    HW289985  12.825   8.994   0.985
96030SOL     OW89986  10.425  12.399   9.023
96030SOL    HW189987  10.356  12.455   9.058
96030SOL    HW289988  10.380  12.317   9.000
96031SOL     OW89989  14.083   1.307   7.557
96031SOL    HW189990  14.101   1.369   7.628
96031SOL    HW289991  14.169   1.277   7.529
96032SOL     OW89992   1.432  13.224  11.426
96032SOL    HW189993   1.407  13.169  11.351
96032SOL    HW289994   1.430  13.313  11.391
96033SOL     OW89995  12.073   4.187   3.927
96033SOL    HW189996  12.036   4.103   3.900
96033SOL    HW289997  12.000   4.249   3.922
96034SOL     OW89998   9.037   6.277  13.118
96034SOL    HW189999   9.067   6.367  13.104
96034SOL    HW290000   8.995   6.278  13.204
96035SOL     OW90001   3.104   0.281   7.806
96035SOL    HW190002   3.170   0.227   7.850
96035SOL    HW290003   3.065   0.223   7.742
96036SOL     OW90004  10.970   3.852   0.243
96036SOL    HW190005  10.979   3.801   0.162
96036SOL    HW290006  10.923   3.795   0.302
96037SOL     OW90007  14.566   8.779  11.487
96037SOL    HW190008  14.590   8.860  11.531
96037SOL    HW290009  14.529   8.807  11.403
96038SOL     OW90010   7.440   0.942   0.773
96038SOL    HW190011   7.360   0.917   0.821
96038SOL    HW290012   7.506   0.954   0.841
96039SOL     OW90013   4.129   8.014   1.545
96039SOL    HW190014   4.138   8.006   1.640
96039SOL    HW290015   4.113   7.925   1.515
96040SOL     OW90016   3.578   2.509   9.361
96040SOL    HW190017   3.673   2.520   9.370
96040SOL    HW290018   3.547   2.494   9.450
96041SOL     OW90019  12.592   9.174   3.818
96041SOL    HW190020  12.582   9.268   3.831
96041SOL    HW290021  12.504   9.138   3.826
96042SOL     OW90022  12.278   6.167   3.678
96042SOL    HW190023  12.210   6.117   3.724
96042SOL    HW290024  12.231   6.214   3.609
96043SOL     OW90025   6.287  14.309   8.399
96043SOL    HW190026   6.304  14.397   8.366
96043SOL    HW290027   6.337  14.304   8.480
96044SOL     OW90028   5.705   0.589   6.430
96044SOL    HW190029   5.740   0.547   6.351
96044SOL    HW290030   5.729   0.530   6.501
96045SOL     OW90031   7.768   7.761   9.173
96045SOL    HW190032   7.704   7.738   9.240
96045SOL    HW290033   7.723   7.746   9.090
96046SOL     OW90034   4.852   8.966   1.995
96046SOL    HW190035   4.886   9.053   2.017
96046SOL    HW290036   4.925   8.922   1.952
96047SOL     OW90037  14.417   2.968  10.488
96047SOL    HW190038  14.374   2.885  10.508
96047SOL    HW290039  14.501   2.963  10.535
96048SOL     OW90040   8.986   1.595   6.348
96048SOL    HW190041   8.971   1.519   6.404
96048SOL    HW290042   8.985   1.669   6.408
96049SOL     OW90043  10.332   5.857   0.728
96049SOL    HW190044  10.340   5.910   0.807
96049SOL    HW290045  10.422   5.840   0.701
96050SOL     OW90046   4.522   2.298  11.954
96050SOL    HW190047   4.490   2.224  11.902
96050SOL    HW290048   4.599   2.265  11.999
96051SOL     OW90049   3.805   4.980   3.407
96051SOL    HW190050   3.790   5.068   3.441
96051SOL    HW290051   3.749   4.974   3.330
96052SOL     OW90052  11.363  12.432   9.011
96052SOL    HW190053  11.456  12.410   9.015
96052SOL    HW290054  11.333  12.423   9.102
96053SOL     OW90055   0.899   5.338  12.801
96053SOL    HW190056   0.806   5.355  12.814
96053SOL    HW290057   0.906   5.310  12.710
96054SOL     OW90058  10.146  12.645  11.467
96054SOL    HW190059  10.067  12.675  11.423
96054SOL    HW290060  10.115  12.580  11.531
96055SOL     OW90061   0.531   4.261   3.281
96055SOL    HW190062   0.477   4.183   3.295
96055SOL    HW290063   0.503   4.322   3.348
96056SOL     OW90064   2.317   8.478   4.091
96056SOL    HW190065   2.317   8.382   4.082
96056SOL    HW290066   2.385   8.495   4.157
96057SOL     OW90067  14.014   9.366   5.849
96057SOL    HW190068  13.987   9.310   5.922
96057SOL    HW290069  14.035   9.306   5.778
96058SOL     OW90070  12.967   2.690   2.947
96058SOL    HW190071  12.951   2.600   2.916
96058SOL    HW290072  13.000   2.679   3.036
96059SOL     OW90073  10.522  11.229  12.111
96059SOL    HW190074  10.566  11.259  12.031
96059SOL    HW290075  10.582  11.163  12.147
96060SOL     OW90076   8.817   3.859   4.780
96060SOL    HW190077   8.743   3.799   4.780
96060SOL    HW290078   8.824   3.890   4.690
96061SOL     OW90079   5.032   4.969   9.434
96061SOL    HW190080   5.004   4.884   9.401
96061SOL    HW290081   5.034   5.026   9.357
96062SOL     OW90082  12.711   3.027  14.207
96062SOL    HW190083  12.781   3.033  14.141
96062SOL    HW290084  12.631   3.045  14.158
96063SOL     OW90085   8.867   8.812   8.755
96063SOL    HW190086   8.929   8.741   8.771
96063SOL    HW290087   8.813   8.781   8.682
96064SOL     OW90088   1.647   8.580   7.742
96064SOL    HW190089   1.723   8.602   7.795
96064SOL    HW290090   1.572   8.604   7.797
96065SOL     OW90091   2.713  13.072   7.866
96065SOL    HW190092   2.638  13.128   7.885
96065SOL    HW290093   2.699  13.043   7.775
96066SOL     OW90094   3.069   9.347   3.202
96066SOL    HW190095   3.080   9.422   3.260
96066SOL    HW290096   3.018   9.284   3.253
96067SOL     OW90097  10.398  12.123  14.055
96067SOL    HW190098  10.490  12.096  14.046
96067SOL    HW290099  10.350  12.041  14.065
96068SOL     OW90100   1.233  13.826   0.547
96068SOL    HW190101   1.321  13.861   0.560
96068SOL    HW290102   1.190  13.892   0.492
96069SOL     OW90103  12.542   3.490  12.489
96069SOL    HW190104  12.607   3.426  12.459
96069SOL    HW290105  12.546   3.485  12.584
96070SOL     OW90106   5.520  14.254  13.382
96070SOL    HW190107   5.515  14.264  13.477
96070SOL    HW290108   5.529  14.343  13.349
96071SOL     OW90109   2.668   2.963   7.663
96071SOL    HW190110   2.633   3.049   7.643
96071SOL    HW290111   2.629   2.905   7.598
96072SOL     OW90112   1.105  11.414   0.361
96072SOL    HW190113   1.105  11.470   0.284
96072SOL    HW290114   1.019  11.429   0.401
96073SOL     OW90115   5.157   5.557   0.387
96073SOL    HW190116   5.208   5.478   0.370
96073SOL    HW290117   5.222   5.626   0.396
96074SOL     OW90118   6.540   3.259   3.484
96074SOL    HW190119   6.569   3.338   3.530
96074SOL    HW290120   6.596   3.189   3.517
96075SOL     OW90121   8.112  12.287  12.967
96075SOL    HW190122   8.073  12.291  12.880
96075SOL    HW290123   8.204  12.267  12.951
96076SOL     OW90124  14.636   1.137   1.714
96076SOL    HW190125  14.621   1.053   1.757
96076SOL    HW290126  14.601   1.126   1.626
96077SOL     OW90127   7.478   2.568   1.312
96077SOL    HW190128   7.546   2.551   1.377
96077SOL    HW290129   7.517   2.543   1.228
96078SOL     OW90130  10.549  11.049  10.585
96078SOL    HW190131  10.515  11.137  10.568
96078SOL    HW290132  10.554  11.044  10.681
96079SOL     OW90133   8.023  12.268   7.883
96079SOL    HW190134   8.069  12.197   7.840
96079SOL    HW290135   7.939  12.274   7.837
96080SOL     OW90136   7.204  10.626   1.920
96080SOL    HW190137   7.228  10.584   1.837
96080SOL    HW290138   7.207  10.555   1.984
96081SOL     OW90139  13.308  11.558  14.408
96081SOL    HW190140  13.264  11.478  14.438
96081SOL    HW290141  13.383  11.526  14.358
96082SOL     OW90142   5.351   2.496   7.517
96082SOL    HW190143   5.264   2.496   7.478
96082SOL    HW290144   5.397   2.567   7.473
96083SOL     OW90145  11.670   9.386   5.169
96083SOL    HW190146  11.687   9.293   5.152
96083SOL    HW290147  11.751   9.430   5.141
96084SOL     OW90148  12.720  11.475   7.101
96084SOL    HW190149  12.673  11.462   7.184
96084SOL    HW290150  12.658  11.518   7.044
96085SOL     OW90151  10.810   2.178  12.033
96085SOL    HW190152  10.749   2.212  12.099
96085SOL    HW290153  10.753   2.148  11.961
96086SOL     OW90154  12.825  14.465   6.121
96086SOL    HW190155  12.865  14.410   6.054
96086SOL    HW290156  12.732  14.466   6.100
96087SOL     OW90157   6.750  10.319  11.384
96087SOL    HW190158   6.814  10.294  11.450
96087SOL    HW290159   6.751  10.415  11.385
96088SOL     OW90160  11.980   1.961   7.952
96088SOL    HW190161  11.993   1.876   7.994
96088SOL    HW290162  11.961   2.021   8.025
96089SOL     OW90163   7.439   6.308  10.227
96089SOL    HW190164   7.358   6.360  10.225
96089SOL    HW290165   7.490   6.347  10.298
96090SOL     OW90166   8.514  11.473   4.768
96090SOL    HW190167   8.483  11.387   4.797
96090SOL    HW290168   8.598  11.455   4.724
96091SOL     OW90169   6.167   5.079   1.708
96091SOL    HW190170   6.251   5.090   1.753
96091SOL    HW290171   6.185   5.014   1.640
96092SOL     OW90172   1.380  13.591  11.198
96092SOL    HW190173   1.369  13.655  11.127
96092SOL    HW290174   1.336  13.630  11.273
96093SOL     OW90175   8.652   4.760  11.924
96093SOL    HW190176   8.676   4.670  11.899
96093SOL    HW290177   8.619   4.751  12.013
96094SOL     OW90178   4.645  12.757   8.216
96094SOL    HW190179   4.591  12.680   8.236
96094SOL    HW290180   4.705  12.764   8.291
96095SOL     OW90181   1.684   7.887   1.218
96095SOL    HW190182   1.755   7.880   1.282
96095SOL    HW290183   1.716   7.838   1.142
96096SOL     OW90184   4.889   8.722   9.536
96096SOL    HW190185   4.877   8.649   9.597
96096SOL    HW290186   4.920   8.682   9.455
96097SOL     OW90187   3.194   9.939   0.879
96097SOL    HW190188   3.253   9.866   0.897
96097SOL    HW290189   3.138   9.945   0.957
96098SOL     OW90190   6.669  13.859  12.143
96098SOL    HW190191   6.589  13.852  12.090
96098SOL    HW290192   6.732  13.901  12.084
96099SOL     OW90193   4.976  10.750   0.085
96099SOL    HW190194   4.893  10.795   0.070
96099SOL    HW290195   4.951  10.667   0.124
96100SOL     OW90196   6.722   4.649  10.862
96100SOL    HW190197   6.762   4.732  10.887
96100SOL    HW290198   6.639   4.673  10.821
96101SOL     OW90199   2.866   7.442   9.105
96101SOL    HW190200   2.795   7.482   9.053
96101SOL    HW290201   2.859   7.484   9.191
96102SOL     OW90202   4.122   3.498   8.802
96102SOL    HW190203   4.067   3.567   8.840
96102SOL    HW290204   4.211   3.528   8.816
96103SOL     OW90205   2.806   6.934   9.257
96103SOL    HW190206   2.803   7.027   9.278
96103SOL    HW290207   2.733   6.895   9.305
96104SOL     OW90208   5.524   1.686   4.151
96104SOL    HW190209   5.509   1.592   4.152
96104SOL    HW290210   5.512   1.712   4.060
96105SOL     OW90211   3.351   6.177   9.269
96105SOL    HW190212   3.301   6.203   9.191
96105SOL    HW290213   3.441   6.204   9.251
96106SOL     OW90214   5.537   0.704   1.965
96106SOL    HW190215   5.583   0.752   1.896
96106SOL    HW290216   5.589   0.624   1.977
96107SOL     OW90217   0.504  12.487  11.962
96107SOL    HW190218   0.412  12.464  11.956
96107SOL    HW290219   0.517  12.555  11.897
96108SOL     OW90220   6.949  10.354   6.718
96108SOL    HW190221   6.926  10.292   6.648
96108SOL    HW290222   6.981  10.431   6.672
96109SOL     OW90223   0.569   4.319   7.276
96109SOL    HW190224   0.514   4.392   7.305
96109SOL    HW290225   0.657   4.342   7.304
96110SOL     OW90226   4.643   2.726  11.755
96110SOL    HW190227   4.669   2.638  11.783
96110SOL    HW290228   4.676   2.784  11.823
96111SOL     OW90229  11.263   6.807   3.191
96111SOL    HW190230  11.306   6.806   3.106
96111SOL    HW290231  11.306   6.737   3.240
96112SOL     OW90232  12.499  12.419   6.066
96112SOL    HW190233  12.582  12.429   6.020
96112SOL    HW290234  12.492  12.498   6.120
96113SOL     OW90235   6.680   8.082   1.072
96113SOL    HW190236   6.602   8.036   1.105
96113SOL    HW290237   6.692   8.155   1.133
96114SOL     OW90238   6.318   8.669   7.130
96114SOL    HW190239   6.260   8.742   7.109
96114SOL    HW290240   6.275   8.592   7.093
96115SOL     OW90241   0.791  12.053  13.162
96115SOL    HW190242   0.876  12.017  13.137
96115SOL    HW290243   0.754  11.989  13.222
96116SOL     OW90244   6.675  12.450   8.952
96116SOL    HW190245   6.744  12.395   8.989
96116SOL    HW290246   6.701  12.463   8.861
96117SOL     OW90247   1.316   8.383  12.109
96117SOL    HW190248   1.347   8.307  12.059
96117SOL    HW290249   1.363   8.378  12.192
96118SOL     OW90250  12.654  10.960   2.187
96118SOL    HW190251  12.742  10.930   2.208
96118SOL    HW290252  12.648  11.047   2.228
96119SOL     OW90253  13.095   9.850  14.205
96119SOL    HW190254  13.121   9.919  14.266
96119SOL    HW290255  13.011   9.880  14.170
96120SOL     OW90256   5.137   5.659  12.094
96120SOL    HW190257   5.054   5.706  12.097
96120SOL    HW290258   5.182   5.693  12.017
96121SOL     OW90259   3.497   4.855   9.946
96121SOL    HW190260   3.441   4.847  10.023
96121SOL    HW290261   3.455   4.801   9.879
96122SOL     OW90262   7.796   1.888   0.061
96122SOL    HW190263   7.704   1.892   0.088
96122SOL    HW290264   7.817   1.794   0.061
96123SOL     OW90265   3.358   8.226   2.608
96123SOL    HW190266   3.325   8.274   2.532
96123SOL    HW290267   3.404   8.151   2.570
96124SOL     OW90268   2.216   5.486  12.460
96124SOL    HW190269   2.148   5.430  12.422
96124SOL    HW290270   2.276   5.503  12.387
96125SOL     OW90271  13.672   1.106   4.091
96125SOL    HW190272  13.622   1.026   4.078
96125SOL    HW290273  13.762   1.077   4.104
96126SOL     OW90274   0.599   7.291   8.918
96126SOL    HW190275   0.628   7.286   8.827
96126SOL    HW290276   0.680   7.284   8.969
96127SOL     OW90277  12.130   3.046   0.042
96127SOL    HW190278  12.082   3.037  14.829
96127SOL    HW290279  12.063   3.037   0.110
96128SOL     OW90280  14.439   1.924   5.007
96128SOL    HW190281  14.384   1.922   4.929
96128SOL    HW290282  14.516   1.976   4.981
96129SOL     OW90283   4.262  11.378  13.902
96129SOL    HW190284   4.351  11.393  13.871
96129SOL    HW290285   4.224  11.318  13.837
96130SOL     OW90286  10.550  12.383   0.396
96130SOL    HW190287  10.463  12.361   0.362
96130SOL    HW290288  10.584  12.449   0.336
96131SOL     OW90289   1.092   2.471  13.204
96131SOL    HW190290   1.120   2.522  13.128
96131SOL    HW290291   1.018   2.520  13.240
96132SOL     OW90292   6.184   5.335   6.655
96132SOL    HW190293   6.184   5.239   6.651
96132SOL    HW290294   6.255   5.356   6.715
96133SOL     OW90295   7.015   0.538  12.776
96133SOL    HW190296   7.093   0.549  12.830
96133SOL    HW290297   6.985   0.449  12.796
96134SOL     OW90298  10.637  11.950   4.350
96134SOL    HW190299  10.688  11.880   4.309
96134SOL    HW290300  10.684  12.031   4.328
96135SOL     OW90301  12.619   0.100   7.217
96135SOL    HW190302  12.708   0.114   7.184
96135SOL    HW290303  12.630   0.043   7.293
96136SOL     OW90304   3.041   5.344   6.217
96136SOL    HW190305   2.993   5.374   6.140
96136SOL    HW290306   2.982   5.281   6.258
96137SOL     OW90307   4.125  13.589  14.854
96137SOL    HW190308   4.198  13.628  14.806
96137SOL    HW290309   4.137  13.618   0.075
96138SOL     OW90310  13.563  13.304   2.650
96138SOL    HW190311  13.567  13.220   2.697
96138SOL    HW290312  13.625  13.294   2.578
96139SOL     OW90313   2.100  13.427   3.138
96139SOL    HW190314   2.018  13.381   3.120
96139SOL    HW290315   2.130  13.391   3.222
96140SOL     OW90316   7.655   3.766   9.638
96140SOL    HW190317   7.673   3.675   9.614
96140SOL    HW290318   7.669   3.815   9.557
96141SOL     OW90319  11.360   2.804   1.693
96141SOL    HW190320  11.403   2.885   1.720
96141SOL    HW290321  11.299   2.831   1.624
96142SOL     OW90322  11.068   0.531   1.234
96142SOL    HW190323  11.100   0.492   1.153
96142SOL    HW290324  10.973   0.523   1.228
96143SOL     OW90325   4.478  14.834  11.691
96143SOL    HW190326   4.520  14.756  11.655
96143SOL    HW290327   4.475  14.818  11.786
96144SOL     OW90328   3.460   4.928   8.719
96144SOL    HW190329   3.465   4.978   8.801
96144SOL    HW290330   3.369   4.897   8.715
96145SOL     OW90331  12.365   8.654   9.501
96145SOL    HW190332  12.329   8.706   9.430
96145SOL    HW290333  12.458   8.677   9.503
96146SOL     OW90334  12.601   5.806   0.656
96146SOL    HW190335  12.593   5.711   0.665
96146SOL    HW290336  12.666   5.831   0.721
96147SOL     OW90337   8.945  13.091  14.417
96147SOL    HW190338   8.896  13.099  14.499
96147SOL    HW290339   8.993  13.174  14.409
96148SOL     OW90340   5.006   5.781   5.186
96148SOL    HW190341   5.067   5.732   5.131
96148SOL    HW290342   4.974   5.718   5.250
96149SOL     OW90343  12.732   9.817  10.515
96149SOL    HW190344  12.711   9.735  10.560
96149SOL    HW290345  12.740   9.793  10.423
96150SOL     OW90346   5.584  11.976   6.219
96150SOL    HW190347   5.585  11.880   6.215
96150SOL    HW290348   5.501  11.997   6.261
96151SOL     OW90349  12.338  10.386   6.017
96151SOL    HW190350  12.319  10.370   6.109
96151SOL    HW290351  12.413  10.446   6.018
96152SOL     OW90352  12.940  11.976   3.831
96152SOL    HW190353  12.852  11.948   3.858
96152SOL    HW290354  12.946  12.067   3.861
96153SOL     OW90355   6.200   5.372   1.223
96153SOL    HW190356   6.227   5.438   1.160
96153SOL    HW290357   6.167   5.422   1.297
96154SOL     OW90358  14.369   3.254   9.930
96154SOL    HW190359  14.393   3.314  10.001
96154SOL    HW290360  14.425   3.280   9.857
96155SOL     OW90361  13.826  12.054  13.696
96155SOL    HW190362  13.793  12.100  13.773
96155SOL    HW290363  13.812  11.961  13.716
96156SOL     OW90364   2.757   1.917  14.113
96156SOL    HW190365   2.743   2.005  14.078
96156SOL    HW290366   2.844   1.920  14.150
96157SOL     OW90367   1.856  13.372   6.518
96157SOL    HW190368   1.846  13.445   6.458
96157SOL    HW290369   1.930  13.322   6.483
96158SOL     OW90370  11.725   2.475   5.191
96158SOL    HW190371  11.750   2.456   5.100
96158SOL    HW290372  11.684   2.561   5.187
96159SOL     OW90373   3.352  11.522  12.105
96159SOL    HW190374   3.394  11.597  12.147
96159SOL    HW290375   3.260  11.548  12.097
96160SOL     OW90376  13.611   8.268   6.134
96160SOL    HW190377  13.667   8.342   6.157
96160SOL    HW290378  13.533   8.280   6.188
96161SOL     OW90379  10.535   9.048  12.890
96161SOL    HW190380  10.501   8.998  12.963
96161SOL    HW290381  10.615   9.002  12.864
96162SOL     OW90382   4.828   4.063  13.403
96162SOL    HW190383   4.912   4.109  13.400
96162SOL    HW290384   4.771   4.120  13.455
96163SOL     OW90385   9.498   9.504  10.259
96163SOL    HW190386   9.490   9.491  10.353
96163SOL    HW290387   9.418   9.467  10.223
96164SOL     OW90388   6.227   6.357   0.092
96164SOL    HW190389   6.169   6.396   0.027
96164SOL    HW290390   6.252   6.430   0.149
96165SOL     OW90391   7.457  13.433  13.065
96165SOL    HW190392   7.543  13.462  13.096
96165SOL    HW290393   7.417  13.511  13.027
96166SOL     OW90394   0.764  11.021  14.437
96166SOL    HW190395   0.738  10.929  14.428
96166SOL    HW290396   0.756  11.057  14.349
96167SOL     OW90397   6.129   9.039   0.974
96167SOL    HW190398   6.098   9.114   0.922
96167SOL    HW290399   6.051   9.011   1.023
96168SOL     OW90400   6.889  10.899  12.424
96168SOL    HW190401   6.897  10.992  12.443
96168SOL    HW290402   6.939  10.856  12.494
96169SOL     OW90403   2.460   8.421  10.071
96169SOL    HW190404   2.446   8.467  10.154
96169SOL    HW290405   2.549   8.385  10.079
96170SOL     OW90406   2.960   8.595   2.643
96170SOL    HW190407   3.024   8.656   2.678
96170SOL    HW290408   3.012   8.519   2.615
96171SOL     OW90409   6.170   8.428   2.435
96171SOL    HW190410   6.143   8.518   2.449
96171SOL    HW290411   6.262   8.434   2.408
96172SOL     OW90412   2.446   3.416   2.535
96172SOL    HW190413   2.362   3.460   2.550
96172SOL    HW290414   2.421   3.328   2.504
96173SOL     OW90415   8.947   0.079   9.599
96173SOL    HW190416   9.004   0.004   9.613
96173SOL    HW290417   8.962   0.135   9.675
96174SOL     OW90418   1.138  14.177   4.827
96174SOL    HW190419   1.100  14.236   4.761
96174SOL    HW290420   1.068  14.116   4.848
96175SOL     OW90421  14.117   2.424  14.250
96175SOL    HW190422  14.179   2.409  14.321
96175SOL    HW290423  14.032   2.403  14.288
96176SOL     OW90424   0.067   4.191  11.561
96176SOL    HW190425  14.865   4.134  11.590
96176SOL    HW290426   0.081   4.167  11.469
96177SOL     OW90427   4.619  11.079  10.602
96177SOL    HW190428   4.588  11.017  10.667
96177SOL    HW290429   4.569  11.059  10.523
96178SOL     OW90430   8.269  12.081   3.046
96178SOL    HW190431   8.265  12.010   2.982
96178SOL    HW290432   8.211  12.148   3.011
96179SOL     OW90433   1.579   9.017  13.943
96179SOL    HW190434   1.550   9.064  13.865
96179SOL    HW290435   1.565   8.924  13.922
96180SOL     OW90436  13.245   5.001   1.536
96180SOL    HW190437  13.192   5.059   1.482
96180SOL    HW290438  13.184   4.933   1.564
96181SOL     OW90439   1.732   7.768   6.462
96181SOL    HW190440   1.723   7.696   6.525
96181SOL    HW290441   1.734   7.724   6.376
96182SOL     OW90442   9.990   4.433  13.930
96182SOL    HW190443  10.021   4.521  13.950
96182SOL    HW290444   9.996   4.425  13.835
96183SOL     OW90445   4.548   0.802   0.527
96183SOL    HW190446   4.478   0.830   0.467
96183SOL    HW290447   4.623   0.855   0.501
96184SOL     OW90448  13.024   5.844   6.902
96184SOL    HW190449  12.952   5.840   6.838
96184SOL    HW290450  13.103   5.836   6.849
96185SOL     OW90451   4.489   5.377  14.256
96185SOL    HW190452   4.428   5.421  14.315
96185SOL    HW290453   4.477   5.422  14.172
96186SOL     OW90454  13.730  11.474   6.234
96186SOL    HW190455  13.771  11.430   6.159
96186SOL    HW290456  13.791  11.460   6.306
96187SOL     OW90457   8.882   7.120   6.492
96187SOL    HW190458   8.866   7.056   6.561
96187SOL    HW290459   8.977   7.127   6.488
96188SOL     OW90460   9.341  11.675   9.789
96188SOL    HW190461   9.300  11.762   9.793
96188SOL    HW290462   9.299  11.632   9.716
96189SOL     OW90463  12.012   4.525   4.609
96189SOL    HW190464  12.021   4.571   4.525
96189SOL    HW290465  12.085   4.462   4.610
96190SOL     OW90466  10.049   7.409  13.095
96190SOL    HW190467  10.029   7.343  13.162
96190SOL    HW290468  10.030   7.366  13.012
96191SOL     OW90469   2.913  14.331  13.735
96191SOL    HW190470   3.003  14.303  13.749
96191SOL    HW290471   2.920  14.418  13.697
96192SOL     OW90472   1.148   9.378  13.953
96192SOL    HW190473   1.173   9.471  13.958
96192SOL    HW290474   1.198   9.345  13.878
96193SOL     OW90475  10.734   7.783   2.000
96193SOL    HW190476  10.765   7.843   2.068
96193SOL    HW290477  10.675   7.836   1.947
96194SOL     OW90478   1.667   3.320   4.035
96194SOL    HW190479   1.760   3.308   4.056
96194SOL    HW290480   1.623   3.252   4.085
96195SOL     OW90481   8.480   9.027   8.084
96195SOL    HW190482   8.436   8.951   8.122
96195SOL    HW290483   8.547   8.989   8.026
96196SOL     OW90484   1.902   0.729   0.689
96196SOL    HW190485   1.995   0.728   0.667
96196SOL    HW290486   1.878   0.821   0.687
96197SOL     OW90487  13.122   4.778   2.792
96197SOL    HW190488  13.043   4.813   2.834
96197SOL    HW290489  13.163   4.854   2.750
96198SOL     OW90490   1.029   5.367   5.533
96198SOL    HW190491   0.999   5.387   5.445
96198SOL    HW290492   0.973   5.419   5.590
96199SOL     OW90493   7.368   3.369   6.367
96199SOL    HW190494   7.437   3.311   6.336
96199SOL    HW290495   7.374   3.446   6.310
96200SOL     OW90496  13.089  11.732   6.559
96200SOL    HW190497  13.088  11.811   6.505
96200SOL    HW290498  13.179  11.700   6.551
96201SOL     OW90499   6.913   8.484   8.807
96201SOL    HW190500   6.825   8.521   8.813
96201SOL    HW290501   6.915   8.441   8.722
96202SOL     OW90502  13.738   3.382  13.986
96202SOL    HW190503  13.672   3.430  14.035
96202SOL    HW290504  13.775   3.446  13.925
96203SOL     OW90505   7.446   6.444   1.189
96203SOL    HW190506   7.470   6.353   1.207
96203SOL    HW290507   7.399   6.441   1.106
96204SOL     OW90508  13.447  12.518   2.725
96204SOL    HW190509  13.362  12.526   2.681
96204SOL    HW290510  13.472  12.608   2.744
96205SOL     OW90511  14.126   3.057   2.730
96205SOL    HW190512  14.033   3.069   2.711
96205SOL    HW290513  14.157   3.001   2.659
96206SOL     OW90514   4.980  12.222  12.373
96206SOL    HW190515   4.893  12.213  12.334
96206SOL    HW290516   4.977  12.305  12.420
96207SOL     OW90517   5.757   9.393   7.496
96207SOL    HW190518   5.829   9.333   7.478
96207SOL    HW290519   5.789   9.450   7.566
96208SOL     OW90520   1.581   8.430  14.765
96208SOL    HW190521   1.506   8.481  14.734
96208SOL    HW290522   1.578   8.439  14.861
96209SOL     OW90523   6.531   7.656   8.332
96209SOL    HW190524   6.552   7.666   8.239
96209SOL    HW290525   6.509   7.563   8.341
96210SOL     OW90526   2.835   3.521   1.132
96210SOL    HW190527   2.789   3.520   1.215
96210SOL    HW290528   2.914   3.574   1.148
96211SOL     OW90529  14.846   2.369   0.483
96211SOL    HW190530   0.053   2.403   0.529
96211SOL    HW290531   0.009   2.348   0.395
96212SOL     OW90532   5.349  12.095   3.473
96212SOL    HW190533   5.372  12.009   3.438
96212SOL    HW290534   5.414  12.110   3.542
96213SOL     OW90535   2.056   4.766   9.261
96213SOL    HW190536   2.094   4.765   9.173
96213SOL    HW290537   2.043   4.674   9.282
96214SOL     OW90538  12.692  13.210  13.067
96214SOL    HW190539  12.708  13.278  13.001
96214SOL    HW290540  12.671  13.132  13.017
96215SOL     OW90541   1.686  12.848   8.841
96215SOL    HW190542   1.652  12.878   8.925
96215SOL    HW290543   1.737  12.770   8.862
96216SOL     OW90544   2.455  14.354  11.974
96216SOL    HW190545   2.507  14.363  11.894
96216SOL    HW290546   2.382  14.414  11.963
96217SOL     OW90547   4.640   5.330  12.245
96217SOL    HW190548   4.709   5.346  12.308
96217SOL    HW290549   4.658   5.244  12.209
96218SOL     OW90550   3.493   7.278   8.487
96218SOL    HW190551   3.419   7.270   8.427
96218SOL    HW290552   3.525   7.367   8.474
96219SOL     OW90553  14.030  14.276   0.955
96219SOL    HW190554  14.003  14.234   1.036
96219SOL    HW290555  14.056  14.204   0.898
96220SOL     OW90556  13.748   0.313   7.959
96220SOL    HW190557  13.841   0.320   7.981
96220SOL    HW290558  13.730   0.219   7.959
96221SOL     OW90559   5.872  10.851   5.859
96221SOL    HW190560   5.843  10.930   5.906
96221SOL    HW290561   5.800  10.789   5.870
96222SOL     OW90562   7.204   7.281   2.999
96222SOL    HW190563   7.237   7.228   2.926
96222SOL    HW290564   7.120   7.242   3.020
96223SOL     OW90565  10.692   7.430  13.011
96223SOL    HW190566  10.606   7.430  13.053
96223SOL    HW290567  10.674   7.409  12.919
96224SOL     OW90568   7.845  14.277  10.684
96224SOL    HW190569   7.807  14.324  10.610
96224SOL    HW290570   7.939  14.298  10.679
96225SOL     OW90571   2.688   8.140   1.762
96225SOL    HW190572   2.762   8.200   1.752
96225SOL    HW290573   2.672   8.137   1.856
96226SOL     OW90574  13.894  12.203   8.766
96226SOL    HW190575  13.925  12.270   8.705
96226SOL    HW290576  13.973  12.159   8.796
96227SOL     OW90577   5.662  11.655   7.585
96227SOL    HW190578   5.732  11.679   7.646
96227SOL    HW290579   5.633  11.739   7.548
96228SOL     OW90580   1.085   4.573   5.424
96228SOL    HW190581   1.133   4.532   5.496
96228SOL    HW290582   1.128   4.657   5.411
96229SOL     OW90583   8.772  12.426   8.117
96229SOL    HW190584   8.827  12.371   8.173
96229SOL    HW290585   8.717  12.475   8.179
96230SOL     OW90586   3.318   3.841   4.024
96230SOL    HW190587   3.237   3.806   4.061
96230SOL    HW290588   3.290   3.910   3.964
96231SOL     OW90589   6.550   2.628   4.178
96231SOL    HW190590   6.577   2.711   4.139
96231SOL    HW290591   6.596   2.561   4.127
96232SOL     OW90592   5.791   2.263   3.568
96232SOL    HW190593   5.883   2.266   3.543
96232SOL    HW290594   5.764   2.355   3.570
96233SOL     OW90595   5.894   0.113   1.913
96233SOL    HW190596   5.927   0.034   1.955
96233SOL    HW290597   5.813   0.134   1.961
96234SOL     OW90598  14.204   8.788  12.674
96234SOL    HW190599  14.276   8.738  12.713
96234SOL    HW290600  14.180   8.740  12.596
96235SOL     OW90601  11.578   9.613   3.221
96235SOL    HW190602  11.670   9.588   3.209
96235SOL    HW290603  11.529   9.547   3.172
96236SOL     OW90604  12.405  13.687   0.174
96236SOL    HW190605  12.341  13.758   0.177
96236SOL    HW290606  12.476  13.716   0.232
96237SOL     OW90607   8.101   5.979   4.863
96237SOL    HW190608   8.101   5.894   4.819
96237SOL    HW290609   8.077   6.041   4.794
96238SOL     OW90610   5.583   5.926   3.685
96238SOL    HW190611   5.509   5.865   3.684
96238SOL    HW290612   5.571   5.981   3.607
96239SOL     OW90613   2.260   6.385   7.747
96239SOL    HW190614   2.251   6.374   7.842
96239SOL    HW290615   2.333   6.329   7.723
96240SOL     OW90616   2.097   4.430  12.998
96240SOL    HW190617   2.080   4.371  12.924
96240SOL    HW290618   2.013   4.436  13.043
96241SOL     OW90619  14.233  10.783   2.043
96241SOL    HW190620  14.300  10.795   1.976
96241SOL    HW290621  14.154  10.822   2.005
96242SOL     OW90622   6.917  14.274   7.754
96242SOL    HW190623   6.931  14.225   7.835
96242SOL    HW290624   6.948  14.216   7.685
96243SOL     OW90625  11.741   5.586   6.870
96243SOL    HW190626  11.801   5.640   6.819
96243SOL    HW290627  11.786   5.575   6.954
96244SOL     OW90628  11.474   3.424   1.110
96244SOL    HW190629  11.522   3.476   1.046
96244SOL    HW290630  11.538   3.360   1.142
96245SOL     OW90631   3.170  10.976   1.898
96245SOL    HW190632   3.186  11.050   1.957
96245SOL    HW290633   3.211  11.003   1.816
96246SOL     OW90634   6.181   1.021   3.173
96246SOL    HW190635   6.164   0.938   3.129
96246SOL    HW290636   6.178   0.999   3.267
96247SOL     OW90637   5.458   2.945   9.210
96247SOL    HW190638   5.475   2.852   9.196
96247SOL    HW290639   5.443   2.953   9.304
96248SOL     OW90640   0.119  10.068  13.422
96248SOL    HW190641   0.069   9.989  13.400
96248SOL    HW290642   0.052  10.133  13.446
96249SOL     OW90643   3.057   9.526   5.159
96249SOL    HW190644   3.033   9.618   5.149
96249SOL    HW290645   3.133   9.527   5.217
96250SOL     OW90646  11.057  11.837   0.705
96250SOL    HW190647  11.140  11.793   0.726
96250SOL    HW290648  11.077  11.891   0.629
96251SOL     OW90649   8.069   9.100  10.380
96251SOL    HW190650   8.163   9.087  10.392
96251SOL    HW290651   8.036   9.013  10.358
96252SOL     OW90652   5.871   2.090   1.932
96252SOL    HW190653   5.946   2.146   1.951
96252SOL    HW290654   5.814   2.099   2.008
96253SOL     OW90655   3.122   6.278   6.361
96253SOL    HW190656   3.146   6.204   6.305
96253SOL    HW290657   3.047   6.247   6.412
96254SOL     OW90658   2.609   0.089   2.684
96254SOL    HW190659   2.594   0.182   2.701
96254SOL    HW290660   2.701   0.075   2.706
96255SOL     OW90661   4.978  11.269   4.994
96255SOL    HW190662   4.982  11.294   5.086
96255SOL    HW290663   4.934  11.184   4.995
96256SOL     OW90664   6.190   7.682   1.716
96256SOL    HW190665   6.151   7.761   1.754
96256SOL    HW290666   6.219   7.630   1.791
96257SOL     OW90667   4.726  10.690   8.212
96257SOL    HW190668   4.697  10.621   8.152
96257SOL    HW290669   4.795  10.649   8.264
96258SOL     OW90670   7.974   9.100  12.553
96258SOL    HW190671   8.050   9.042  12.565
96258SOL    HW290672   7.933   9.071  12.472
96259SOL     OW90673   1.070  10.944   9.857
96259SOL    HW190674   1.160  10.977   9.858
96259SOL    HW290675   1.054  10.922   9.765
96260SOL     OW90676   5.804  12.629  10.170
96260SOL    HW190677   5.709  12.641  10.181
96260SOL    HW290678   5.811  12.561  10.103
96261SOL     OW90679   5.262  13.906   1.468
96261SOL    HW190680   5.192  13.878   1.526
96261SOL    HW290681   5.311  13.825   1.450
96262SOL     OW90682   3.735  11.447   8.984
96262SOL    HW190683   3.658  11.489   8.946
96262SOL    HW290684   3.736  11.359   8.946
96263SOL     OW90685  12.389   6.473   9.864
96263SOL    HW190686  12.304   6.483   9.821
96263SOL    HW290687  12.432   6.403   9.815
96264SOL     OW90688   7.929   2.178  10.977
96264SOL    HW190689   7.988   2.107  11.005
96264SOL    HW290690   7.932   2.175  10.881
96265SOL     OW90691   6.730  11.004   8.602
96265SOL    HW190692   6.697  10.929   8.652
96265SOL    HW290693   6.666  11.073   8.617
96266SOL     OW90694   1.205   8.145  12.489
96266SOL    HW190695   1.195   8.128  12.396
96266SOL    HW290696   1.299   8.163  12.500
96267SOL     OW90697   9.495   7.449   9.114
96267SOL    HW190698   9.578   7.487   9.085
96267SOL    HW290699   9.513   7.418   9.203
96268SOL     OW90700   4.820   4.340   0.080
96268SOL    HW190701   4.818   4.435   0.089
96268SOL    HW290702   4.753   4.320   0.015
96269SOL     OW90703   5.911   6.911  11.219
96269SOL    HW190704   5.936   6.917  11.127
96269SOL    HW290705   5.952   6.986  11.260
96270SOL     OW90706  13.014   3.174   1.609
96270SOL    HW190707  13.081   3.164   1.677
96270SOL    HW290708  13.061   3.157   1.527
96271SOL     OW90709   3.473  10.317  11.336
96271SOL    HW190710   3.484  10.223  11.350
96271SOL    HW290711   3.464  10.326  11.241
96272SOL     OW90712   7.157   4.379   7.905
96272SOL    HW190713   7.121   4.415   7.987
96272SOL    HW290714   7.159   4.285   7.919
96273SOL     OW90715   2.801   4.352  12.484
96273SOL    HW190716   2.855   4.275  12.505
96273SOL    HW290717   2.777   4.340  12.392
96274SOL     OW90718  12.587   8.043  14.657
96274SOL    HW190719  12.671   8.043  14.704
96274SOL    HW290720  12.525   8.007  14.720
96275SOL     OW90721   5.727  10.312  14.573
96275SOL    HW190722   5.700  10.278  14.658
96275SOL    HW290723   5.680  10.259  14.509
96276SOL     OW90724  12.846  12.090   9.062
96276SOL    HW190725  12.863  12.131   8.978
96276SOL    HW290726  12.812  12.003   9.040
96277SOL     OW90727  14.258   2.905  10.849
96277SOL    HW190728  14.320   2.834  10.865
96277SOL    HW290729  14.311   2.984  10.846
96278SOL     OW90730   3.819  12.987  14.364
96278SOL    HW190731   3.912  13.003  14.345
96278SOL    HW290732   3.784  13.072  14.387
96279SOL     OW90733   7.246   4.624   6.539
96279SOL    HW190734   7.286   4.545   6.576
96279SOL    HW290735   7.153   4.613   6.554
96280SOL     OW90736   5.964  12.647   2.556
96280SOL    HW190737   6.010  12.685   2.481
96280SOL    HW290738   6.010  12.566   2.574
96281SOL     OW90739   4.788   3.337   0.263
96281SOL    HW190740   4.794   3.248   0.228
96281SOL    HW290741   4.697   3.363   0.247
96282SOL     OW90742  12.475  13.175   1.351
96282SOL    HW190743  12.382  13.155   1.340
96282SOL    HW290744  12.520  13.116   1.290
96283SOL     OW90745  11.509  11.451  13.892
96283SOL    HW190746  11.541  11.532  13.851
96283SOL    HW290747  11.467  11.481  13.972
96284SOL     OW90748   7.343   9.217   6.672
96284SOL    HW190749   7.346   9.198   6.578
96284SOL    HW290750   7.314   9.308   6.678
96285SOL     OW90751  11.526  12.516   0.226
96285SOL    HW190752  11.534  12.612   0.223
96285SOL    HW290753  11.572  12.492   0.307
96286SOL     OW90754   8.562   5.687   8.478
96286SOL    HW190755   8.606   5.649   8.554
96286SOL    HW290756   8.497   5.747   8.516
96287SOL     OW90757   3.868   8.437   0.653
96287SOL    HW190758   3.924   8.372   0.610
96287SOL    HW290759   3.804   8.385   0.702
96288SOL     OW90760   4.302  10.764  10.805
96288SOL    HW190761   4.263  10.690  10.852
96288SOL    HW290762   4.310  10.734  10.715
96289SOL     OW90763   9.635   0.257  11.931
96289SOL    HW190764   9.544   0.247  11.903
96289SOL    HW290765   9.687   0.236  11.853
96290SOL     OW90766   8.306   7.147   8.198
96290SOL    HW190767   8.397   7.168   8.215
96290SOL    HW290768   8.279   7.092   8.272
96291SOL     OW90769  13.919   7.462   9.591
96291SOL    HW190770  13.845   7.408   9.621
96291SOL    HW290771  13.972   7.404   9.537
96292SOL     OW90772   3.397  10.260   1.630
96292SOL    HW190773   3.451  10.295   1.559
96292SOL    HW290774   3.452  10.270   1.708
96293SOL     OW90775  10.417   7.548   4.320
96293SOL    HW190776  10.454   7.566   4.234
96293SOL    HW290777  10.331   7.509   4.301
96294SOL     OW90778   5.638   9.194   5.361
96294SOL    HW190779   5.661   9.129   5.426
96294SOL    HW290780   5.543   9.185   5.349
96295SOL     OW90781   3.277   4.843   5.646
96295SOL    HW190782   3.303   4.927   5.608
96295SOL    HW290783   3.196   4.861   5.692
96296SOL     OW90784   4.399   1.015  13.094
96296SOL    HW190785   4.348   1.079  13.044
96296SOL    HW290786   4.348   0.935  13.091
96297SOL     OW90787   8.074   9.015   7.258
96297SOL    HW190788   8.150   9.019   7.316
96297SOL    HW290789   8.033   8.930   7.278
96298SOL     OW90790  11.526  11.265   9.063
96298SOL    HW190791  11.523  11.361   9.056
96298SOL    HW290792  11.603  11.247   9.117
96299SOL     OW90793   2.093  10.246   2.913
96299SOL    HW190794   2.039  10.184   2.960
96299SOL    HW290795   2.035  10.320   2.894
96300SOL     OW90796   3.719   1.082   8.201
96300SOL    HW190797   3.650   1.113   8.260
96300SOL    HW290798   3.727   0.989   8.220
96301SOL     OW90799   8.554   1.968   6.816
96301SOL    HW190800   8.609   1.893   6.834
96301SOL    HW290801   8.540   2.009   6.902
96302SOL     OW90802   6.983   6.820   8.689
96302SOL    HW190803   6.993   6.727   8.709
96302SOL    HW290804   7.072   6.855   8.693
96303SOL     OW90805  10.260   7.476  10.896
96303SOL    HW190806  10.252   7.396  10.948
96303SOL    HW290807  10.211   7.458  10.816
96304SOL     OW90808   5.317   3.080  10.209
96304SOL    HW190809   5.396   3.095  10.157
96304SOL    HW290810   5.272   3.009  10.163
96305SOL     OW90811   4.781   5.846   0.676
96305SOL    HW190812   4.689   5.845   0.652
96305SOL    HW290813   4.822   5.907   0.614
96306SOL     OW90814   1.805  14.743  11.003
96306SOL    HW190815   1.878  14.682  11.005
96306SOL    HW290816   1.846  14.829  11.014
96307SOL     OW90817   5.590   1.025  13.557
96307SOL    HW190818   5.596   1.121  13.554
96307SOL    HW290819   5.502   1.008  13.590
96308SOL     OW90820  14.101   9.079   7.878
96308SOL    HW190821  14.018   9.048   7.841
96308SOL    HW290822  14.162   9.006   7.866
96309SOL     OW90823   1.720   2.235   7.750
96309SOL    HW190824   1.672   2.307   7.790
96309SOL    HW290825   1.766   2.193   7.823
96310SOL     OW90826  13.650   9.781  14.371
96310SOL    HW190827  13.675   9.718  14.438
96310SOL    HW290828  13.726   9.786  14.313
96311SOL     OW90829  12.526  11.464   2.238
96311SOL    HW190830  12.597  11.447   2.301
96311SOL    HW290831  12.480  11.381   2.230
96312SOL     OW90832  12.926   8.262   2.363
96312SOL    HW190833  12.847   8.244   2.414
96312SOL    HW290834  12.976   8.324   2.417
96313SOL     OW90835   8.926  14.798   0.747
96313SOL    HW190836   8.894  14.867   0.805
96313SOL    HW290837   8.848  14.752   0.718
96314SOL     OW90838  11.572  12.899   3.135
96314SOL    HW190839  11.651  12.851   3.113
96314SOL    HW290840  11.563  12.964   3.065
96315SOL     OW90841   3.149   3.383   7.013
96315SOL    HW190842   3.060   3.348   7.018
96315SOL    HW290843   3.194   3.344   7.088
96316SOL     OW90844  13.400   9.374  13.613
96316SOL    HW190845  13.363   9.459  13.634
96316SOL    HW290846  13.484   9.394  13.571
96317SOL     OW90847   9.951   8.787   0.962
96317SOL    HW190848   9.910   8.866   0.928
96317SOL    HW290849   9.908   8.716   0.916
96318SOL     OW90850  12.314   7.202  13.446
96318SOL    HW190851  12.396   7.210  13.494
96318SOL    HW290852  12.271   7.287  13.458
96319SOL     OW90853   4.164  11.744   4.179
96319SOL    HW190854   4.241  11.689   4.186
96319SOL    HW290855   4.131  11.730   4.090
96320SOL     OW90856  10.401  13.063   0.617
96320SOL    HW190857  10.397  13.157   0.634
96320SOL    HW290858  10.311  13.040   0.594
96321SOL     OW90859   2.778   9.897  13.641
96321SOL    HW190860   2.813   9.816  13.678
96321SOL    HW290861   2.686   9.878  13.624
96322SOL     OW90862  13.375  13.337   7.195
96322SOL    HW190863  13.304  13.391   7.230
96322SOL    HW290864  13.397  13.277   7.267
96323SOL     OW90865   8.753  13.088  12.148
96323SOL    HW190866   8.758  13.024  12.077
96323SOL    HW290867   8.822  13.151  12.129
96324SOL     OW90868  12.436   2.572  14.741
96324SOL    HW190869  12.425   2.667  14.740
96324SOL    HW290870  12.505   2.556  14.804
96325SOL     OW90871  13.132   0.260  12.065
96325SOL    HW190872  13.209   0.317  12.059
96325SOL    HW290873  13.168   0.172  12.064
96326SOL     OW90874   6.352   9.936  12.178
96326SOL    HW190875   6.320   9.942  12.088
96326SOL    HW290876   6.345  10.025  12.212
96327SOL     OW90877   2.445   3.267   3.892
96327SOL    HW190878   2.381   3.320   3.845
96327SOL    HW290879   2.486   3.213   3.824
96328SOL     OW90880  11.195  11.945  11.205
96328SOL    HW190881  11.265  11.882  11.186
96328SOL    HW290882  11.223  12.025  11.160
96329SOL     OW90883  11.831   2.375   4.955
96329SOL    HW190884  11.861   2.318   5.026
96329SOL    HW290885  11.885   2.350   4.880
96330SOL     OW90886   5.803   3.329   2.253
96330SOL    HW190887   5.869   3.283   2.307
96330SOL    HW290888   5.729   3.269   2.251
96331SOL     OW90889  11.986  12.922  11.744
96331SOL    HW190890  12.065  12.968  11.716
96331SOL    HW290891  11.915  12.964  11.695
96332SOL     OW90892  10.997   2.039  13.296
96332SOL    HW190893  11.065   2.054  13.230
96332SOL    HW290894  10.943   2.118  13.292
96333SOL     OW90895   0.543   6.604   6.995
96333SOL    HW190896   0.626   6.629   6.954
96333SOL    HW290897   0.482   6.674   6.971
96334SOL     OW90898   7.961   2.612  11.713
96334SOL    HW190899   7.993   2.695  11.679
96334SOL    HW290900   7.906   2.577  11.643
96335SOL     OW90901   2.285   4.193   3.606
96335SOL    HW190902   2.218   4.245   3.562
96335SOL    HW290903   2.359   4.194   3.546
96336SOL     OW90904   7.920   3.540  14.672
96336SOL    HW190905   7.979   3.478  14.714
96336SOL    HW290906   7.833   3.503  14.686
96337SOL     OW90907   5.166  12.686  12.291
96337SOL    HW190908   5.191  12.778  12.288
96337SOL    HW290909   5.236  12.644  12.340
96338SOL     OW90910  14.400   0.857  12.496
96338SOL    HW190911  14.450   0.802  12.556
96338SOL    HW290912  14.362   0.925  12.551
96339SOL     OW90913   5.220  10.506  14.342
96339SOL    HW190914   5.233  10.419  14.380
96339SOL    HW290915   5.174  10.491  14.260
96340SOL     OW90916   3.647   3.493   6.523
96340SOL    HW190917   3.738   3.482   6.552
96340SOL    HW290918   3.620   3.406   6.495
96341SOL     OW90919  11.289   0.023  11.760
96341SOL    HW190920  11.346   0.005  11.686
96341SOL    HW290921  11.291  14.812  11.812
96342SOL     OW90922   1.612   9.643  10.590
96342SOL    HW190923   1.705   9.665  10.601
96342SOL    HW290924   1.574   9.652  10.677
96343SOL     OW90925   9.570   2.388   1.587
96343SOL    HW190926   9.646   2.356   1.538
96343SOL    HW290927   9.537   2.310   1.633
96344SOL     OW90928   3.791  13.863  12.401
96344SOL    HW190929   3.811  13.870  12.495
96344SOL    HW290930   3.787  13.953  12.370
96345SOL     OW90931  14.688   5.840   5.010
96345SOL    HW190932  14.734   5.808   5.088
96345SOL    HW290933  14.753   5.837   4.940
96346SOL     OW90934   7.443   1.875   9.071
96346SOL    HW190935   7.445   1.781   9.051
96346SOL    HW290936   7.450   1.879   9.166
96347SOL     OW90937  10.682   9.368  14.755
96347SOL    HW190938  10.725   9.284  14.772
96347SOL    HW290939  10.646   9.394  14.840
96348SOL     OW90940   8.236  13.616   9.565
96348SOL    HW190941   8.279  13.534   9.587
96348SOL    HW290942   8.284  13.683   9.614
96349SOL     OW90943   4.325   7.625   4.621
96349SOL    HW190944   4.274   7.641   4.542
96349SOL    HW290945   4.408   7.590   4.590
96350SOL     OW90946   9.046  11.372  14.333
96350SOL    HW190947   9.086  11.388  14.418
96350SOL    HW290948   9.100  11.304  14.293
96351SOL     OW90949   1.085   5.567  13.749
96351SOL    HW190950   1.015   5.597  13.691
96351SOL    HW290951   1.121   5.647  13.787
96352SOL     OW90952   9.977   2.031   0.533
96352SOL    HW190953   9.982   2.001   0.624
96352SOL    HW290954   9.938   1.958   0.486
96353SOL     OW90955  10.317   7.272   5.469
96353SOL    HW190956  10.359   7.186   5.458
96353SOL    HW290957  10.316   7.309   5.381
96354SOL     OW90958  12.523   6.628   0.729
96354SOL    HW190959  12.498   6.719   0.715
96354SOL    HW290960  12.488   6.581   0.653
96355SOL     OW90961   6.386  14.565  14.519
96355SOL    HW190962   6.458  14.619  14.486
96355SOL    HW290963   6.312  14.585  14.461
96356SOL     OW90964   9.151   8.177   1.242
96356SOL    HW190965   9.147   8.083   1.221
96356SOL    HW290966   9.196   8.180   1.326
96357SOL     OW90967   8.446  11.358   9.942
96357SOL    HW190968   8.489  11.285   9.897
96357SOL    HW290969   8.427  11.421   9.872
96358SOL     OW90970   1.597   2.758  11.986
96358SOL    HW190971   1.582   2.726  11.898
96358SOL    HW290972   1.510   2.774  12.022
96359SOL     OW90973   2.622   6.935   6.947
96359SOL    HW190974   2.539   6.938   6.900
96359SOL    HW290975   2.597   6.924   7.039
96360SOL     OW90976   4.188  11.324  13.035
96360SOL    HW190977   4.180  11.361  12.947
96360SOL    HW290978   4.249  11.251  13.025
96361SOL     OW90979   6.470   4.690  14.212
96361SOL    HW190980   6.454   4.748  14.138
96361SOL    HW290981   6.445   4.741  14.289
96362SOL     OW90982  11.166  11.452   8.381
96362SOL    HW190983  11.097  11.403   8.337
96362SOL    HW290984  11.121  11.526   8.421
96363SOL     OW90985  10.048  11.277   7.933
96363SOL    HW190986  10.079  11.255   7.846
96363SOL    HW290987  10.082  11.365   7.950
96364SOL     OW90988   5.508   8.580   2.737
96364SOL    HW190989   5.529   8.487   2.727
96364SOL    HW290990   5.434   8.582   2.798
96365SOL     OW90991  12.610  11.498   7.372
96365SOL    HW190992  12.521  11.472   7.394
96365SOL    HW290993  12.638  11.551   7.446
96366SOL     OW90994  10.978   5.616   6.575
96366SOL    HW190995  10.932   5.633   6.658
96366SOL    HW290996  10.921   5.653   6.508
96367SOL     OW90997  13.226   2.874   5.376
96367SOL    HW190998  13.241   2.965   5.349
96367SOL    HW290999  13.200   2.829   5.296
96368SOL     OW91000   6.520   8.560   3.669
96368SOL    HW191001   6.609   8.573   3.703
96368SOL    HW291002   6.507   8.633   3.608
96369SOL     OW91003   0.249   1.638   8.360
96369SOL    HW191004   0.240   1.593   8.444
96369SOL    HW291005   0.328   1.600   8.321
96370SOL     OW91006   6.488   2.797   2.375
96370SOL    HW191007   6.426   2.732   2.344
96370SOL    HW291008   6.518   2.841   2.295
96371SOL     OW91009   8.419  10.803   4.150
96371SOL    HW191010   8.334  10.846   4.159
96371SOL    HW291011   8.456  10.805   4.239
96372SOL     OW91012   6.557   6.278   8.152
96372SOL    HW191013   6.494   6.319   8.093
96372SOL    HW291014   6.564   6.188   8.120
96373SOL     OW91015   1.936  13.112   3.877
96373SOL    HW191016   2.006  13.104   3.813
96373SOL    HW291017   1.858  13.134   3.826
96374SOL     OW91018   8.450   0.621   3.581
96374SOL    HW191019   8.534   0.608   3.626
96374SOL    HW291020   8.453   0.711   3.550
96375SOL     OW91021   3.545  13.157   9.362
96375SOL    HW191022   3.571  13.083   9.417
96375SOL    HW291023   3.628  13.189   9.325
96376SOL     OW91024   3.080   0.510   7.461
96376SOL    HW191025   3.082   0.522   7.556
96376SOL    HW291026   3.014   0.572   7.430
96377SOL     OW91027  13.428   1.028   3.348
96377SOL    HW191028  13.433   0.941   3.389
96377SOL    HW291029  13.369   1.015   3.273
96378SOL     OW91030   3.389  13.049  13.375
96378SOL    HW191031   3.300  13.036  13.410
96378SOL    HW291032   3.445  12.999  13.435
96379SOL     OW91033   6.492   1.687  10.981
96379SOL    HW191034   6.530   1.769  10.950
96379SOL    HW291035   6.416   1.673  10.925
96380SOL     OW91036   9.170   3.881  11.550
96380SOL    HW191037   9.153   3.937  11.625
96380SOL    HW291038   9.210   3.939  11.485
96381SOL     OW91039   8.660  14.841   7.417
96381SOL    HW191040   8.683   0.010   7.333
96381SOL    HW291041   8.567  14.816   7.408
96382SOL     OW91042   1.021   3.763   6.547
96382SOL    HW191043   1.053   3.703   6.480
96382SOL    HW291044   1.080   3.839   6.541
96383SOL     OW91045  11.360   0.636   6.512
96383SOL    HW191046  11.321   0.556   6.477
96383SOL    HW291047  11.419   0.606   6.581
96384SOL     OW91048   2.043  12.470  11.611
96384SOL    HW191049   2.065  12.524  11.535
96384SOL    HW291050   2.019  12.533  11.678
96385SOL     OW91051   7.666  14.439   8.055
96385SOL    HW191052   7.582  14.419   8.095
96385SOL    HW291053   7.645  14.496   7.980
96386SOL     OW91054   2.830   7.947   6.089
96386SOL    HW191055   2.759   7.897   6.048
96386SOL    HW291056   2.862   8.005   6.020
96387SOL     OW91057   7.785   2.911   2.815
96387SOL    HW191058   7.724   2.930   2.886
96387SOL    HW291059   7.859   2.969   2.830
96388SOL     OW91060   0.982  12.252  11.576
96388SOL    HW191061   0.887  12.257  11.589
96388SOL    HW291062   1.018  12.250  11.664
96389SOL     OW91063  14.046   2.207  11.927
96389SOL    HW191064  14.007   2.120  11.918
96389SOL    HW291065  14.113   2.196  11.994
96390SOL     OW91066   7.143   6.790   2.074
96390SOL    HW191067   7.058   6.821   2.106
96390SOL    HW291068   7.140   6.804   1.980
96391SOL     OW91069   1.378   6.557   2.724
96391SOL    HW191070   1.388   6.650   2.704
96391SOL    HW291071   1.314   6.554   2.795
96392SOL     OW91072   2.381  14.210   5.186
96392SOL    HW191073   2.383  14.130   5.133
96392SOL    HW291074   2.370  14.281   5.122
96393SOL     OW91075  14.866  13.333   4.068
96393SOL    HW191076   0.014  13.419   4.031
96393SOL    HW291077   0.033  13.336   4.156
96394SOL     OW91078  14.387   7.759  12.899
96394SOL    HW191079  14.309   7.812  12.916
96394SOL    HW291080  14.438   7.766  12.979
96395SOL     OW91081   3.299   3.309  14.140
96395SOL    HW191082   3.394   3.316  14.150
96395SOL    HW291083   3.274   3.387  14.091
96396SOL     OW91084   2.331  13.869   7.166
96396SOL    HW191085   2.323  13.848   7.072
96396SOL    HW291086   2.390  13.944   7.169
96397SOL     OW91087   1.663   1.311  11.850
96397SOL    HW191088   1.661   1.397  11.894
96397SOL    HW291089   1.681   1.332  11.758
96398SOL     OW91090   3.225   6.301   4.069
96398SOL    HW191091   3.259   6.282   3.981
96398SOL    HW291092   3.138   6.337   4.053
96399SOL     OW91093   3.349   7.679   4.488
96399SOL    HW191094   3.437   7.671   4.451
96399SOL    HW291095   3.324   7.590   4.511
96400SOL     OW91096   7.560   0.175   1.801
96400SOL    HW191097   7.607   0.132   1.873
96400SOL    HW291098   7.490   0.224   1.845
96401SOL     OW91099   9.330   4.771  12.305
96401SOL    HW191100   9.330   4.767  12.400
96401SOL    HW291101   9.411   4.727  12.279
96402SOL     OW91102   3.635   8.322   0.442
96402SOL    HW191103   3.664   8.385   0.376
96402SOL    HW291104   3.568   8.368   0.492
96403SOL     OW91105   4.305  14.194   1.881
96403SOL    HW191106   4.271  14.104   1.882
96403SOL    HW291107   4.365  14.197   1.956
96404SOL     OW91108  14.694   7.236  12.137
96404SOL    HW191109  14.665   7.186  12.213
96404SOL    HW291110  14.630   7.215  12.068
96405SOL     OW91111   9.074   2.065   1.616
96405SOL    HW191112   9.147   2.124   1.600
96405SOL    HW291113   9.096   2.021   1.698
96406SOL     OW91114   2.923   5.390  12.575
96406SOL    HW191115   2.873   5.327  12.525
96406SOL    HW291116   2.862   5.422  12.642
96407SOL     OW91117   7.884  12.802   1.594
96407SOL    HW191118   7.942  12.782   1.520
96407SOL    HW291119   7.834  12.878   1.565
96408SOL     OW91120   5.666  11.151  14.041
96408SOL    HW191121   5.712  11.231  14.016
96408SOL    HW291122   5.600  11.138  13.974
96409SOL     OW91123   7.381   8.348   9.293
96409SOL    HW191124   7.443   8.279   9.270
96409SOL    HW291125   7.295   8.309   9.276
96410SOL     OW91126   7.846  11.688   1.648
96410SOL    HW191127   7.866  11.628   1.720
96410SOL    HW291128   7.885  11.771   1.675
96411SOL     OW91129   5.869   2.374   9.313
96411SOL    HW191130   5.801   2.386   9.247
96411SOL    HW291131   5.831   2.315   9.377
96412SOL     OW91132  10.472   6.904  11.203
96412SOL    HW191133  10.567   6.902  11.196
96412SOL    HW291134  10.442   6.949  11.125
96413SOL     OW91135   8.023   4.481  12.653
96413SOL    HW191136   7.979   4.486  12.568
96413SOL    HW291137   7.965   4.427  12.707
96414SOL     OW91138   7.729   0.407   5.521
96414SOL    HW191139   7.780   0.360   5.587
96414SOL    HW291140   7.779   0.397   5.440
96415SOL     OW91141   5.641   8.697  13.784
96415SOL    HW191142   5.607   8.762  13.845
96415SOL    HW291143   5.625   8.613  13.826
96416SOL     OW91144   9.267  14.632  14.366
96416SOL    HW191145   9.309  14.547  14.357
96416SOL    HW291146   9.174  14.612  14.379
96417SOL     OW91147  11.743  14.307   9.254
96417SOL    HW191148  11.811  14.279   9.192
96417SOL    HW291149  11.671  14.245   9.241
96418SOL     OW91150   8.054   3.975   5.415
96418SOL    HW191151   8.024   3.900   5.363
96418SOL    HW291152   8.109   3.936   5.482
96419SOL     OW91153   7.854   3.220   2.003
96419SOL    HW191154   7.934   3.172   1.984
96419SOL    HW291155   7.810   3.169   2.070
96420SOL     OW91156   1.043   4.790   7.709
96420SOL    HW191157   1.116   4.852   7.708
96420SOL    HW291158   1.008   4.794   7.620
96421SOL     OW91159   2.713   7.594   8.930
96421SOL    HW191160   2.725   7.574   8.837
96421SOL    HW291161   2.678   7.683   8.931
96422SOL     OW91162   8.921   6.223  13.375
96422SOL    HW191163   8.917   6.128  13.374
96422SOL    HW291164   8.880   6.248  13.457
96423SOL     OW91165   6.400  11.605   6.969
96423SOL    HW191166   6.313  11.613   6.929
96423SOL    HW291167   6.390  11.647   7.055
96424SOL     OW91168   7.862   3.201  11.337
96424SOL    HW191169   7.851   3.111  11.307
96424SOL    HW291170   7.953   3.206  11.367
96425SOL     OW91171  14.426   9.072   8.682
96425SOL    HW191172  14.425   9.100   8.591
96425SOL    HW291173  14.353   9.119   8.723
96426SOL     OW91174  13.888   9.789   6.280
96426SOL    HW191175  13.881   9.767   6.373
96426SOL    HW291176  13.885   9.885   6.278
96427SOL     OW91177   5.715   1.826   0.749
96427SOL    HW191178   5.692   1.739   0.781
96427SOL    HW291179   5.810   1.826   0.746
96428SOL     OW91180   1.262   1.478   7.252
96428SOL    HW191181   1.300   1.566   7.242
96428SOL    HW291182   1.224   1.478   7.340
96429SOL     OW91183   6.251   8.342   9.727
96429SOL    HW191184   6.214   8.376   9.647
96429SOL    HW291185   6.247   8.247   9.717
96430SOL     OW91186  12.910   4.399   5.760
96430SOL    HW191187  12.976   4.367   5.822
96430SOL    HW291188  12.960   4.448   5.695
96431SOL     OW91189   6.759   7.680   7.356
96431SOL    HW191190   6.686   7.619   7.343
96431SOL    HW291191   6.741   7.753   7.297
96432SOL     OW91192   7.162  12.604   7.858
96432SOL    HW191193   7.135  12.623   7.769
96432SOL    HW291194   7.153  12.688   7.904
96433SOL     OW91195   6.118   8.993   5.519
96433SOL    HW191196   6.193   9.022   5.570
96433SOL    HW291197   6.152   8.922   5.464
96434SOL     OW91198   3.973  13.966   2.847
96434SOL    HW191199   3.890  14.012   2.854
96434SOL    HW291200   3.975  13.933   2.757
96435SOL     OW91201   5.716  11.428   2.572
96435SOL    HW191202   5.660  11.366   2.620
96435SOL    HW291203   5.805  11.403   2.596
96436SOL     OW91204   4.752   3.776   4.001
96436SOL    HW191205   4.665   3.786   4.037
96436SOL    HW291206   4.794   3.861   4.013
96437SOL     OW91207   5.540  13.553   9.969
96437SOL    HW191208   5.518  13.646   9.977
96437SOL    HW291209   5.629  13.552   9.935
96438SOL     OW91210   1.732  12.694  12.309
96438SOL    HW191211   1.810  12.642  12.291
96438SOL    HW291212   1.692  12.652  12.385
96439SOL     OW91213   9.697  11.154  13.505
96439SOL    HW191214   9.688  11.164  13.600
96439SOL    HW291215   9.645  11.225  13.469
96440SOL     OW91216   8.301   9.352   9.719
96440SOL    HW191217   8.311   9.361   9.624
96440SOL    HW291218   8.301   9.442   9.752
96441SOL     OW91219   4.549   2.493   1.054
96441SOL    HW191220   4.485   2.526   1.117
96441SOL    HW291221   4.631   2.487   1.102
96442SOL     OW91222   0.147   7.201   0.637
96442SOL    HW191223   0.127   7.110   0.614
96442SOL    HW291224   0.129   7.206   0.731
96443SOL     OW91225  10.027  13.897  12.735
96443SOL    HW191226   9.962  13.948  12.687
96443SOL    HW291227  10.111  13.934  12.707
96444SOL     OW91228   4.848   0.625   1.946
96444SOL    HW191229   4.766   0.602   1.902
96444SOL    HW291230   4.916   0.609   1.881
96445SOL     OW91231   7.926   1.441  11.346
96445SOL    HW191232   7.908   1.414  11.256
96445SOL    HW291233   7.994   1.380  11.375
96446SOL     OW91234   6.562   0.860   8.737
96446SOL    HW191235   6.549   0.925   8.668
96446SOL    HW291236   6.481   0.808   8.736
96447SOL     OW91237   1.862  10.414  14.315
96447SOL    HW191238   1.815  10.388  14.394
96447SOL    HW291239   1.908  10.335  14.287
96448SOL     OW91240   7.454   7.384   1.761
96448SOL    HW191241   7.531   7.326   1.764
96448SOL    HW291242   7.491   7.472   1.763
96449SOL     OW91243   9.426   8.241   8.764
96449SOL    HW191244   9.515   8.260   8.734
96449SOL    HW291245   9.414   8.148   8.746
96450SOL     OW91246   5.994   1.489  14.343
96450SOL    HW191247   6.069   1.546  14.330
96450SOL    HW291248   5.959   1.515  14.429
96451SOL     OW91249   4.161  12.879  11.040
96451SOL    HW191250   4.137  12.965  11.073
96451SOL    HW291251   4.107  12.867  10.962
96452SOL     OW91252  14.273   2.300  13.712
96452SOL    HW191253  14.241   2.258  13.632
96452SOL    HW291254  14.360   2.332  13.690
96453SOL     OW91255  11.007   0.309   4.585
96453SOL    HW191256  11.016   0.217   4.563
96453SOL    HW291257  10.973   0.309   4.675
96454SOL     OW91258   3.377  13.122  11.354
96454SOL    HW191259   3.425  13.143  11.274
96454SOL    HW291260   3.429  13.162  11.424
96455SOL     OW91261  13.271   9.025  10.017
96455SOL    HW191262  13.246   8.952  10.073
96455SOL    HW291263  13.188   9.064   9.990
96456SOL     OW91264   8.227  10.653   5.217
96456SOL    HW191265   8.294  10.644   5.149
96456SOL    HW291266   8.144  10.637   5.171
96457SOL     OW91267  13.946  10.564   8.235
96457SOL    HW191268  13.853  10.539   8.242
96457SOL    HW291269  13.988  10.522   8.310
96458SOL     OW91270  11.586  11.684   6.534
96458SOL    HW191271  11.561  11.593   6.516
96458SOL    HW291272  11.680  11.678   6.555
96459SOL     OW91273  14.340   9.914   6.280
96459SOL    HW191274  14.372   9.834   6.321
96459SOL    HW291275  14.280   9.885   6.212
96460SOL     OW91276   3.099   6.921   6.257
96460SOL    HW191277   3.042   6.986   6.299
96460SOL    HW291278   3.181   6.928   6.305
96461SOL     OW91279  13.790   6.427   8.616
96461SOL    HW191280  13.878   6.426   8.579
96461SOL    HW291281  13.734   6.396   8.544
96462SOL     OW91282   4.559   0.029  13.215
96462SOL    HW191283   4.480  14.854  13.183
96462SOL    HW291284   4.626  14.831  13.217
96463SOL     OW91285  14.216  10.495   5.112
96463SOL    HW191286  14.172  10.470   5.030
96463SOL    HW291287  14.147  10.493   5.178
96464SOL     OW91288   3.992  14.829   8.233
96464SOL    HW191289   3.932   0.018   8.280
96464SOL    HW291290   3.993  14.749   8.285
96465SOL     OW91291  12.883   9.410  10.066
96465SOL    HW191292  12.862   9.372   9.980
96465SOL    HW291293  12.978   9.413  10.068
96466SOL     OW91294  14.610   1.895  10.930
96466SOL    HW191295  14.655   1.840  10.866
96466SOL    HW291296  14.638   1.862  11.015
96467SOL     OW91297   9.369   0.455  10.567
96467SOL    HW191298   9.308   0.477  10.496
96467SOL    HW291299   9.316   0.406  10.630
96468SOL     OW91300   3.134   3.428   4.055
96468SOL    HW191301   3.132   3.339   4.090
96468SOL    HW291302   3.112   3.418   3.962
96469SOL     OW91303   2.731  14.217   9.409
96469SOL    HW191304   2.822  14.220   9.439
96469SOL    HW291305   2.732  14.158   9.334
96470SOL     OW91306   9.099   9.707   8.794
96470SOL    HW191307   9.082   9.793   8.756
96470SOL    HW291308   9.077   9.645   8.724
96471SOL     OW91309  11.859   5.857   2.954
96471SOL    HW191310  11.910   5.802   3.013
96471SOL    HW291311  11.770   5.823   2.961
96472SOL     OW91312  12.024   4.124  13.175
96472SOL    HW191313  11.933   4.094  13.173
96472SOL    HW291314  12.019   4.216  13.198
96473SOL     OW91315  13.438  11.511   3.948
96473SOL    HW191316  13.422  11.595   3.904
96473SOL    HW291317  13.454  11.534   4.040
96474SOL     OW91318   6.035  14.680   4.655
96474SOL    HW191319   6.044  14.611   4.720
96474SOL    HW291320   5.992  14.638   4.581
96475SOL     OW91321   8.947  11.307   4.489
96475SOL    HW191322   9.042  11.303   4.500
96475SOL    HW291323   8.928  11.399   4.473
96476SOL     OW91324  14.610  11.766   3.558
96476SOL    HW191325  14.700  11.798   3.567
96476SOL    HW291326  14.555  11.842   3.576
96477SOL     OW91327  12.666   6.760   5.306
96477SOL    HW191328  12.588   6.814   5.322
96477SOL    HW291329  12.739   6.813   5.339
96478SOL     OW91330  13.880   5.385  12.605
96478SOL    HW191331  13.887   5.302  12.651
96478SOL    HW291332  13.792   5.384  12.566
96479SOL     OW91333   2.712   6.461   3.069
96479SOL    HW191334   2.714   6.543   3.019
96479SOL    HW291335   2.620   6.448   3.089
96480SOL     OW91336   3.600   2.085  12.040
96480SOL    HW191337   3.634   2.136  11.966
96480SOL    HW291338   3.557   2.150  12.096
96481SOL     OW91339   5.525   6.034   9.637
96481SOL    HW191340   5.436   6.052   9.667
96481SOL    HW291341   5.579   6.043   9.715
96482SOL     OW91342   7.939  13.467  14.058
96482SOL    HW191343   7.924  13.547  14.007
96482SOL    HW291344   7.853  13.424  14.061
96483SOL     OW91345   4.398  13.894  14.276
96483SOL    HW191346   4.349  13.959  14.227
96483SOL    HW291347   4.416  13.824  14.213
96484SOL     OW91348   4.755  14.645  14.606
96484SOL    HW191349   4.717  14.630  14.692
96484SOL    HW291350   4.745  14.738  14.590
96485SOL     OW91351  10.304   4.387   8.447
96485SOL    HW191352  10.369   4.317   8.438
96485SOL    HW291353  10.262   4.370   8.531
96486SOL     OW91354   1.337   3.883   2.330
96486SOL    HW191355   1.309   3.919   2.246
96486SOL    HW291356   1.426   3.851   2.315
96487SOL     OW91357  12.992   7.227  11.605
96487SOL    HW191358  12.899   7.204  11.617
96487SOL    HW291359  13.010   7.290  11.674
96488SOL     OW91360   2.658   3.250   1.815
96488SOL    HW191361   2.698   3.222   1.733
96488SOL    HW291362   2.591   3.313   1.789
96489SOL     OW91363   1.305   7.064  10.589
96489SOL    HW191364   1.249   6.988  10.577
96489SOL    HW291365   1.266   7.132  10.533
96490SOL     OW91366   3.070   1.564   2.765
96490SOL    HW191367   3.137   1.528   2.706
96490SOL    HW291368   3.056   1.653   2.734
96491SOL     OW91369   2.284  11.142   8.793
96491SOL    HW191370   2.352  11.150   8.727
96491SOL    HW291371   2.324  11.091   8.863
96492SOL     OW91372  11.276  11.135   6.702
96492SOL    HW191373  11.316  11.152   6.787
96492SOL    HW291374  11.197  11.085   6.722
96493SOL     OW91375   6.559   6.515   1.227
96493SOL    HW191376   6.653   6.499   1.228
96493SOL    HW291377   6.537   6.524   1.134
96494SOL     OW91378  14.256  10.344  14.784
96494SOL    HW191379  14.282  10.371   0.003
96494SOL    HW291380  14.318  10.389  14.727
96495SOL     OW91381   4.693   9.106   9.718
96495SOL    HW191382   4.774   9.148   9.747
96495SOL    HW291383   4.624   9.151   9.766
96496SOL     OW91384   7.851   4.235   8.138
96496SOL    HW191385   7.929   4.239   8.195
96496SOL    HW291386   7.862   4.154   8.089
96497SOL     OW91387   2.182   4.393  12.392
96497SOL    HW191388   2.211   4.440  12.470
96497SOL    HW291389   2.215   4.303  12.404
96498SOL     OW91390  10.989  14.697   2.022
96498SOL    HW191391  10.975  14.604   2.038
96498SOL    HW291392  11.053  14.724   2.087
96499SOL     OW91393  12.798  11.059   9.071
96499SOL    HW191394  12.806  11.075   9.165
96499SOL    HW291395  12.717  11.102   9.046
96500SOL     OW91396   3.233  12.610  14.430
96500SOL    HW191397   3.186  12.638  14.508
96500SOL    HW291398   3.181  12.537  14.396
96501SOL     OW91399  10.723   3.776   5.589
96501SOL    HW191400  10.704   3.730   5.507
96501SOL    HW291401  10.779   3.715   5.638
96502SOL     OW91402  11.879   1.202  13.923
96502SOL    HW191403  11.846   1.277  13.974
96502SOL    HW291404  11.819   1.131  13.945
96503SOL     OW91405   3.546   7.657   0.511
96503SOL    HW191406   3.558   7.649   0.417
96503SOL    HW291407   3.452   7.650   0.525
96504SOL     OW91408  12.105   3.585   3.073
96504SOL    HW191409  12.184   3.620   3.114
96504SOL    HW291410  12.130   3.498   3.041
96505SOL     OW91411   2.804   1.836   4.285
96505SOL    HW191412   2.747   1.901   4.325
96505SOL    HW291413   2.873   1.822   4.350
96506SOL     OW91414   1.656   1.652   2.384
96506SOL    HW191415   1.748   1.645   2.409
96506SOL    HW291416   1.649   1.738   2.342
96507SOL     OW91417  11.444  10.295   1.948
96507SOL    HW191418  11.381  10.240   1.901
96507SOL    HW291419  11.493  10.234   2.003
96508SOL     OW91420   7.757   1.117  13.302
96508SOL    HW191421   7.819   1.190  13.296
96508SOL    HW291422   7.723   1.107  13.213
96509SOL     OW91423  10.316   7.881   5.038
96509SOL    HW191424  10.338   7.815   5.103
96509SOL    HW291425  10.279   7.953   5.088
96510SOL     OW91426  14.759   8.980   0.008
96510SOL    HW191427  14.785   8.919   0.077
96510SOL    HW291428  14.751   9.064   0.053
96511SOL     OW91429   7.262  12.423   9.048
96511SOL    HW191430   7.286  12.513   9.073
96511SOL    HW291431   7.189  12.433   8.988
96512SOL     OW91432  14.526   0.280   3.331
96512SOL    HW191433  14.589   0.339   3.290
96512SOL    HW291434  14.562   0.263   3.418
96513SOL     OW91435   9.582   2.670  11.246
96513SOL    HW191436   9.604   2.652  11.155
96513SOL    HW291437   9.486   2.665  11.249
96514SOL     OW91438  12.813   7.289   5.439
96514SOL    HW191439  12.874   7.317   5.370
96514SOL    HW291440  12.844   7.202   5.463
96515SOL     OW91441  10.456   8.725   3.525
96515SOL    HW191442  10.405   8.806   3.515
96515SOL    HW291443  10.392   8.655   3.516
96516SOL     OW91444  13.782   6.262  12.591
96516SOL    HW191445  13.776   6.167  12.601
96516SOL    HW291446  13.698   6.288  12.555
96517SOL     OW91447  11.830   6.142   1.754
96517SOL    HW191448  11.746   6.173   1.788
96517SOL    HW291449  11.841   6.054   1.789
96518SOL     OW91450   1.064   6.514   4.185
96518SOL    HW191451   1.130   6.582   4.198
96518SOL    HW291452   0.996   6.535   4.249
96519SOL     OW91453   5.307   3.028   0.705
96519SOL    HW191454   5.265   3.050   0.622
96519SOL    HW291455   5.251   2.960   0.744
96520SOL     OW91456   1.348   5.364   7.096
96520SOL    HW191457   1.308   5.392   7.179
96520SOL    HW291458   1.427   5.317   7.123
96521SOL     OW91459   0.164   7.379   4.766
96521SOL    HW191460   0.182   7.303   4.711
96521SOL    HW291461   0.120   7.441   4.708
96522SOL     OW91462  12.224  13.741   6.259
96522SOL    HW191463  12.263  13.705   6.339
96522SOL    HW291464  12.231  13.836   6.269
96523SOL     OW91465   1.843  11.473   1.605
96523SOL    HW191466   1.930  11.434   1.617
96523SOL    HW291467   1.784  11.398   1.604
96524SOL     OW91468   6.117  13.866   0.378
96524SOL    HW191469   6.104  13.930   0.448
96524SOL    HW291470   6.138  13.919   0.301
96525SOL     OW91471  13.795  10.654   0.917
96525SOL    HW191472  13.727  10.616   0.972
96525SOL    HW291473  13.872  10.598   0.931
96526SOL     OW91474  13.710   6.790  14.345
96526SOL    HW191475  13.660   6.748  14.415
96526SOL    HW291476  13.646   6.842  14.297
96527SOL     OW91477  12.310  10.241   9.686
96527SOL    HW191478  12.242  10.276   9.628
96527SOL    HW291479  12.392  10.274   9.650
96528SOL     OW91480   6.258   2.134   4.117
96528SOL    HW191481   6.328   2.199   4.118
96528SOL    HW291482   6.262   2.096   4.029
96529SOL     OW91483   8.104  14.449  13.342
96529SOL    HW191484   8.146  14.463  13.257
96529SOL    HW291485   8.177  14.445  13.404
96530SOL     OW91486  11.152   0.862   4.201
96530SOL    HW191487  11.153   0.930   4.133
96530SOL    HW291488  11.122   0.907   4.280
96531SOL     OW91489   9.425  12.417   5.793
96531SOL    HW191490   9.463  12.386   5.711
96531SOL    HW291491   9.498  12.456   5.841
96532SOL     OW91492   0.837   8.226   5.650
96532SOL    HW191493   0.777   8.296   5.623
96532SOL    HW291494   0.907   8.272   5.698
96533SOL     OW91495   3.317  14.272   2.328
96533SOL    HW191496   3.247  14.295   2.388
96533SOL    HW291497   3.276  14.274   2.241
96534SOL     OW91498  12.741   5.797   8.286
96534SOL    HW191499  12.761   5.760   8.201
96534SOL    HW291500  12.800   5.872   8.295
96535SOL     OW91501   2.152   4.485  14.297
96535SOL    HW191502   2.103   4.485  14.379
96535SOL    HW291503   2.132   4.401  14.256
96536SOL     OW91504   5.983   5.801   5.118
96536SOL    HW191505   5.966   5.863   5.047
96536SOL    HW291506   6.026   5.727   5.075
96537SOL     OW91507   6.510   1.673   5.525
96537SOL    HW191508   6.420   1.656   5.554
96537SOL    HW291509   6.509   1.654   5.431
96538SOL     OW91510  10.925   7.381   4.934
96538SOL    HW191511  11.014   7.408   4.957
96538SOL    HW291512  10.901   7.317   5.001
96539SOL     OW91513   3.013   9.029   0.834
96539SOL    HW191514   3.035   9.001   0.745
96539SOL    HW291515   3.097   9.029   0.880
96540SOL     OW91516   7.139  13.071   8.408
96540SOL    HW191517   7.140  12.975   8.403
96540SOL    HW291518   7.218  13.098   8.361
96541SOL     OW91519  12.949   1.866   6.472
96541SOL    HW191520  12.883   1.885   6.539
96541SOL    HW291521  12.924   1.780   6.437
96542SOL     OW91522   7.658   7.526  14.407
96542SOL    HW191523   7.579   7.556  14.363
96542SOL    HW291524   7.727   7.534  14.340
96543SOL     OW91525  12.475   3.806  12.883
96543SOL    HW191526  12.405   3.792  12.946
96543SOL    HW291527  12.535   3.732  12.897
96544SOL     OW91528  13.016  14.752  13.175
96544SOL    HW191529  12.925  14.733  13.154
96544SOL    HW291530  13.053  14.786  13.094
96545SOL     OW91531   7.478   8.405   8.448
96545SOL    HW191532   7.498   8.456   8.526
96545SOL    HW291533   7.389   8.372   8.463
96546SOL     OW91534  14.042   5.889   7.939
96546SOL    HW191535  14.021   5.892   8.032
96546SOL    HW291536  13.962   5.856   7.898
96547SOL     OW91537   7.114   5.840   4.614
96547SOL    HW191538   7.064   5.792   4.549
96547SOL    HW291539   7.159   5.772   4.664
96548SOL     OW91540   8.221   2.645  14.224
96548SOL    HW191541   8.312   2.626  14.205
96548SOL    HW291542   8.210   2.737  14.201
96549SOL     OW91543   9.845  12.844   0.853
96549SOL    HW191544   9.749  12.841   0.849
96549SOL    HW291545   9.869  12.769   0.907
96550SOL     OW91546   6.326  10.759   8.961
96550SOL    HW191547   6.282  10.721   9.037
96550SOL    HW291548   6.419  10.746   8.979
96551SOL     OW91549   2.564   3.420   5.517
96551SOL    HW191550   2.603   3.425   5.604
96551SOL    HW291551   2.516   3.337   5.518
96552SOL     OW91552  13.140   0.731   9.582
96552SOL    HW191553  13.192   0.686   9.648
96552SOL    HW291554  13.149   0.824   9.602
96553SOL     OW91555  12.148   4.931  11.800
96553SOL    HW191556  12.184   4.991  11.735
96553SOL    HW291557  12.193   4.952  11.881
96554SOL     OW91558   4.590  10.857   9.553
96554SOL    HW191559   4.608  10.882   9.463
96554SOL    HW291560   4.588  10.761   9.551
96555SOL     OW91561   3.085  10.034   7.668
96555SOL    HW191562   3.166  10.064   7.709
96555SOL    HW291563   3.091  10.065   7.578
96556SOL     OW91564   4.400   6.843  11.312
96556SOL    HW191565   4.386   6.877  11.400
96556SOL    HW291566   4.377   6.915  11.254
96557SOL     OW91567   6.458   3.727  13.204
96557SOL    HW191568   6.405   3.655  13.169
96557SOL    HW291569   6.492   3.771  13.126
96558SOL     OW91570   4.637   3.279   4.219
96558SOL    HW191571   4.720   3.323   4.238
96558SOL    HW291572   4.614   3.236   4.302
96559SOL     OW91573   5.821  13.584   3.657
96559SOL    HW191574   5.824  13.678   3.638
96559SOL    HW291575   5.775  13.546   3.583
96560SOL     OW91576   3.772   7.000   6.560
96560SOL    HW191577   3.772   6.919   6.611
96560SOL    HW291578   3.685   7.036   6.573
96561SOL     OW91579   0.348  13.646   5.328
96561SOL    HW191580   0.277  13.676   5.384
96561SOL    HW291581   0.339  13.551   5.325
96562SOL     OW91582  14.838   8.265   4.791
96562SOL    HW191583  14.854   8.186   4.739
96562SOL    HW291584   0.054   8.309   4.795
96563SOL     OW91585   0.287   2.920  11.977
96563SOL    HW191586   0.284   2.955  11.888
96563SOL    HW291587   0.280   2.826  11.967
96564SOL     OW91588  13.788  14.456   8.006
96564SOL    HW191589  13.819  14.407   8.082
96564SOL    HW291590  13.702  14.488   8.032
96565SOL     OW91591   8.728  14.666   3.434
96565SOL    HW191592   8.705  14.745   3.386
96565SOL    HW291593   8.654  14.651   3.493
96566SOL     OW91594  14.837   6.546   6.342
96566SOL    HW191595   0.005   6.458   6.333
96566SOL    HW291596   0.006   6.579   6.423
96567SOL     OW91597   8.056   3.894   1.927
96567SOL    HW191598   8.106   3.841   1.990
96567SOL    HW291599   8.006   3.955   1.982
96568SOL     OW91600   2.871  13.834  12.311
96568SOL    HW191601   2.833  13.876  12.234
96568SOL    HW291602   2.885  13.743  12.285
96569SOL     OW91603   4.812   0.847   1.770
96569SOL    HW191604   4.731   0.797   1.756
96569SOL    HW291605   4.801   0.887   1.856
96570SOL     OW91606   7.503   5.946   9.931
96570SOL    HW191607   7.494   6.006  10.004
96570SOL    HW291608   7.531   6.001   9.857
96571SOL     OW91609   0.290  13.982   2.654
96571SOL    HW191610   0.270  14.046   2.586
96571SOL    HW291611   0.235  13.906   2.632
96572SOL     OW91612   1.012  11.730   7.143
96572SOL    HW191613   0.936  11.711   7.088
96572SOL    HW291614   1.007  11.824   7.160
96573SOL     OW91615   4.390  10.273   5.270
96573SOL    HW191616   4.438  10.199   5.307
96573SOL    HW291617   4.298  10.245   5.273
96574SOL     OW91618   6.267   0.606   6.043
96574SOL    HW191619   6.220   0.552   5.980
96574SOL    HW291620   6.360   0.592   6.023
96575SOL     OW91621   4.983  14.262   5.868
96575SOL    HW191622   4.918  14.214   5.919
96575SOL    HW291623   5.000  14.206   5.793
96576SOL     OW91624   6.637   3.603  11.269
96576SOL    HW191625   6.605   3.593  11.359
96576SOL    HW291626   6.732   3.596  11.277
96577SOL     OW91627   2.866  11.510   5.312
96577SOL    HW191628   2.817  11.434   5.343
96577SOL    HW291629   2.799  11.570   5.279
96578SOL     OW91630   3.503   8.533   7.742
96578SOL    HW191631   3.510   8.459   7.802
96578SOL    HW291632   3.480   8.607   7.799
96579SOL     OW91633   4.395   4.199  12.471
96579SOL    HW191634   4.349   4.283  12.470
96579SOL    HW291635   4.368   4.158  12.553
96580SOL     OW91636   2.019   8.089   7.282
96580SOL    HW191637   2.106   8.048   7.291
96580SOL    HW291638   2.021   8.162   7.344
96581SOL     OW91639   4.734  11.824  10.147
96581SOL    HW191640   4.801  11.800  10.211
96581SOL    HW291641   4.657  11.845  10.200
96582SOL     OW91642   0.661  13.860   0.085
96582SOL    HW191643   0.591  13.923   0.067
96582SOL    HW291644   0.629  13.778   0.046
96583SOL     OW91645   1.917  11.908  10.275
96583SOL    HW191646   1.999  11.934  10.316
96583SOL    HW291647   1.875  11.851  10.339
96584SOL     OW91648  13.095   0.349   1.006
96584SOL    HW191649  13.099   0.436   0.968
96584SOL    HW291650  13.048   0.296   0.942
96585SOL     OW91651   4.341   6.795   7.247
96585SOL    HW191652   4.386   6.880   7.257
96585SOL    HW291653   4.316   6.792   7.155
96586SOL     OW91654  12.049  14.173   0.131
96586SOL    HW191655  12.063  14.182   0.225
96586SOL    HW291656  11.969  14.121   0.124
96587SOL     OW91657   0.384  14.446   9.231
96587SOL    HW191658   0.447  14.449   9.159
96587SOL    HW291659   0.404  14.524   9.283
96588SOL     OW91660  14.295  10.065   3.022
96588SOL    HW191661  14.363  10.118   2.981
96588SOL    HW291662  14.274   9.998   2.957
96589SOL     OW91663   7.895  11.278   2.538
96589SOL    HW191664   7.908  11.362   2.582
96589SOL    HW291665   7.879  11.216   2.609
96590SOL     OW91666  10.637   0.044  11.119
96590SOL    HW191667  10.697   0.061  11.046
96590SOL    HW291668  10.562   0.100  11.101
96591SOL     OW91669  13.173   5.776   8.093
96591SOL    HW191670  13.200   5.703   8.148
96591SOL    HW291671  13.082   5.793   8.118
96592SOL     OW91672  12.110   0.530   3.829
96592SOL    HW191673  12.133   0.605   3.885
96592SOL    HW291674  12.099   0.457   3.890
96593SOL     OW91675  14.045   5.279  10.820
96593SOL    HW191676  14.044   5.187  10.845
96593SOL    HW291677  13.955   5.309  10.834
96594SOL     OW91678  11.727   7.264   9.203
96594SOL    HW191679  11.752   7.172   9.211
96594SOL    HW291680  11.679   7.268   9.121
96595SOL     OW91681  11.938   2.673  11.015
96595SOL    HW191682  11.942   2.763  10.982
96595SOL    HW291683  11.907   2.621  10.941
96596SOL     OW91684   6.859  10.777   5.975
96596SOL    HW191685   6.932  10.764   5.914
96596SOL    HW291686   6.896  10.758   6.061
96597SOL     OW91687  14.718  10.355  10.235
96597SOL    HW191688  14.682  10.435  10.196
96597SOL    HW291689  14.664  10.339  10.312
96598SOL     OW91690   1.391  13.232  10.348
96598SOL    HW191691   1.343  13.172  10.405
96598SOL    HW291692   1.384  13.317  10.391
96599SOL     OW91693  13.029   5.522   7.303
96599SOL    HW191694  13.036   5.587   7.372
96599SOL    HW291695  12.973   5.563   7.237
96600SOL     OW91696  12.675   8.721   8.054
96600SOL    HW191697  12.722   8.666   8.116
96600SOL    HW291698  12.657   8.802   8.103
96601SOL     OW91699   3.966  10.162  12.466
96601SOL    HW191700   3.902  10.191  12.400
96601SOL    HW291701   3.979  10.069  12.447
96602SOL     OW91702  14.527  11.912   6.780
96602SOL    HW191703  14.613  11.928   6.818
96602SOL    HW291704  14.487  11.846   6.838
96603SOL     OW91705   7.372   0.002   2.927
96603SOL    HW191706   7.395  14.846   2.838
96603SOL    HW291707   7.410   0.089   2.939
96604SOL     OW91708  10.036   3.037  12.373
96604SOL    HW191709  10.081   3.118  12.350
96604SOL    HW291710  10.015   3.046  12.466
96605SOL     OW91711  13.722   7.565  14.299
96605SOL    HW191712  13.630   7.591  14.307
96605SOL    HW291713  13.770   7.634  14.344
96606SOL     OW91714   6.556   0.523   3.986
96606SOL    HW191715   6.529   0.611   3.960
96606SOL    HW291716   6.530   0.466   3.914
96607SOL     OW91717   2.838  11.568   3.873
96607SOL    HW191718   2.897  11.500   3.907
96607SOL    HW291719   2.897  11.635   3.838
96608SOL     OW91720   5.627  12.246  12.475
96608SOL    HW191721   5.721  12.225  12.478
96608SOL    HW291722   5.600  12.249  12.566
96609SOL     OW91723  11.252   6.833   9.386
96609SOL    HW191724  11.235   6.876   9.470
96609SOL    HW291725  11.201   6.752   9.391
96610SOL     OW91726  13.940   2.691   0.365
96610SOL    HW191727  13.873   2.748   0.404
96610SOL    HW291728  13.890   2.620   0.325
96611SOL     OW91729  11.497  13.997  10.537
96611SOL    HW191730  11.447  14.046  10.602
96611SOL    HW291731  11.563  13.951  10.588
96612SOL     OW91732  11.175  12.225  12.802
96612SOL    HW191733  11.136  12.312  12.789
96612SOL    HW291734  11.100  12.170  12.826
96613SOL     OW91735  12.740  13.612   9.105
96613SOL    HW191736  12.808  13.653   9.157
96613SOL    HW291737  12.767  13.520   9.098
96614SOL     OW91738   9.279   0.530  11.765
96614SOL    HW191739   9.256   0.556  11.854
96614SOL    HW291740   9.374   0.518  11.767
96615SOL     OW91741   8.813   2.003   0.183
96615SOL    HW191742   8.829   2.014   0.089
96615SOL    HW291743   8.880   1.942   0.212
96616SOL     OW91744  10.576   2.191  11.880
96616SOL    HW191745  10.604   2.271  11.836
96616SOL    HW291746  10.538   2.137  11.811
96617SOL     OW91747  13.104   1.197   8.555
96617SOL    HW191748  13.118   1.229   8.644
96617SOL    HW291749  13.172   1.240   8.503
96618SOL     OW91750  14.142   2.442   4.352
96618SOL    HW191751  14.081   2.462   4.281
96618SOL    HW291752  14.162   2.527   4.390
96619SOL     OW91753   6.085   7.693   9.552
96619SOL    HW191754   6.132   7.672   9.471
96619SOL    HW291755   6.132   7.645   9.620
96620SOL     OW91756   3.292   9.117   0.522
96620SOL    HW191757   3.283   9.062   0.443
96620SOL    HW291758   3.202   9.139   0.546
96621SOL     OW91759  13.828   3.287   8.444
96621SOL    HW191760  13.798   3.360   8.390
96621SOL    HW291761  13.749   3.257   8.489
96622SOL     OW91762   6.904   9.761   5.146
96622SOL    HW191763   6.996   9.784   5.153
96622SOL    HW291764   6.860   9.816   5.211
96623SOL     OW91765  13.882  14.000   8.999
96623SOL    HW191766  13.827  14.016   9.075
96623SOL    HW291767  13.886  14.085   8.954
96624SOL     OW91768  10.220   2.781  11.399
96624SOL    HW191769  10.256   2.825  11.476
96624SOL    HW291770  10.266   2.819  11.325
96625SOL     OW91771   9.378   2.164   4.781
96625SOL    HW191772   9.300   2.156   4.728
96625SOL    HW291773   9.373   2.251   4.820
96626SOL     OW91774   4.546  11.598  12.420
96626SOL    HW191775   4.601  11.672  12.395
96626SOL    HW291776   4.494  11.630  12.493
96627SOL     OW91777   1.496   9.319   1.441
96627SOL    HW191778   1.568   9.257   1.454
96627SOL    HW291779   1.419   9.275   1.477
96628SOL     OW91780  12.744  14.807   5.916
96628SOL    HW191781  12.837  14.786   5.902
96628SOL    HW291782  12.730  14.788   6.009
96629SOL     OW91783   0.657  10.516   4.983
96629SOL    HW191784   0.564  10.511   5.005
96629SOL    HW291785   0.666  10.462   4.904
96630SOL     OW91786   1.191   6.556  11.315
96630SOL    HW191787   1.246   6.634  11.301
96630SOL    HW291788   1.127   6.583  11.380
96631SOL     OW91789   9.788   7.889   4.265
96631SOL    HW191790   9.848   7.921   4.197
96631SOL    HW291791   9.816   7.935   4.344
96632SOL     OW91792  10.178   5.904   1.585
96632SOL    HW191793  10.190   5.848   1.662
96632SOL    HW291794  10.182   5.845   1.511
96633SOL     OW91795  14.633  12.241  12.310
96633SOL    HW191796  14.573  12.175  12.343
96633SOL    HW291797  14.684  12.196  12.243
96634SOL     OW91798  11.624  12.149  10.345
96634SOL    HW191799  11.620  12.100  10.263
96634SOL    HW291800  11.561  12.106  10.402
96635SOL     OW91801   5.790  12.037   1.815
96635SOL    HW191802   5.840  12.046   1.896
96635SOL    HW291803   5.749  12.123   1.804
96636SOL     OW91804  12.441   6.719   8.794
96636SOL    HW191805  12.469   6.724   8.702
96636SOL    HW291806  12.379   6.645   8.795
96637SOL     OW91807   9.180   0.735   5.377
96637SOL    HW191808   9.155   0.821   5.410
96637SOL    HW291809   9.235   0.698   5.446
96638SOL     OW91810  13.014   0.391   6.381
96638SOL    HW191811  12.964   0.472   6.380
96638SOL    HW291812  12.960   0.330   6.432
96639SOL     OW91813   7.887  12.042  11.614
96639SOL    HW191814   7.843  12.075  11.535
96639SOL    HW291815   7.950  12.110  11.636
96640SOL     OW91816   3.512   3.861   7.186
96640SOL    HW191817   3.572   3.795   7.152
96640SOL    HW291818   3.540   3.874   7.276
96641SOL     OW91819  11.076   7.991  12.858
96641SOL    HW191820  11.152   8.019  12.808
96641SOL    HW291821  11.099   8.009  12.949
96642SOL     OW91822   3.873   9.564   9.562
96642SOL    HW191823   3.883   9.566   9.467
96642SOL    HW291824   3.958   9.534   9.594
96643SOL     OW91825   2.441  13.727   7.827
96643SOL    HW191826   2.375  13.663   7.800
96643SOL    HW291827   2.405  13.765   7.908
96644SOL     OW91828   3.279   1.538  10.603
96644SOL    HW191829   3.187   1.512  10.598
96644SOL    HW291830   3.276   1.629  10.631
96645SOL     OW91831   8.211   2.519   8.393
96645SOL    HW191832   8.192   2.456   8.462
96645SOL    HW291833   8.234   2.600   8.439
96646SOL     OW91834   6.138  11.065   8.694
96646SOL    HW191835   6.090  11.148   8.708
96646SOL    HW291836   6.148  11.060   8.599
96647SOL     OW91837   1.411   8.919   9.019
96647SOL    HW191838   1.500   8.886   9.029
96647SOL    HW291839   1.417   9.011   9.045
96648SOL     OW91840  12.428  13.298   5.729
96648SOL    HW191841  12.427  13.203   5.737
96648SOL    HW291842  12.340  13.321   5.699
96649SOL     OW91843  13.172  13.674  12.837
96649SOL    HW191844  13.101  13.738  12.826
96649SOL    HW291845  13.159  13.611  12.766
96650SOL     OW91846   8.047   1.815  14.561
96650SOL    HW191847   8.003   1.772  14.635
96650SOL    HW291848   8.048   1.907  14.585
96651SOL     OW91849   8.342   3.855   4.752
96651SOL    HW191850   8.376   3.774   4.714
96651SOL    HW291851   8.342   3.918   4.680
96652SOL     OW91852  12.401  14.555  10.514
96652SOL    HW191853  12.337  14.571  10.584
96652SOL    HW291854  12.347  14.540  10.436
96653SOL     OW91855  14.626   2.831   4.746
96653SOL    HW191856  14.706   2.842   4.695
96653SOL    HW291857  14.640   2.750   4.796
96654SOL     OW91858   5.661   7.961   2.123
96654SOL    HW191859   5.712   7.952   2.204
96654SOL    HW291860   5.594   7.894   2.128
96655SOL     OW91861   3.650  11.707   0.768
96655SOL    HW191862   3.696  11.666   0.841
96655SOL    HW291863   3.635  11.635   0.706
96656SOL     OW91864   0.167  14.865   0.024
96656SOL    HW191865   0.235  14.802   0.005
96656SOL    HW291866   0.150   0.039  14.810
96657SOL     OW91867  12.886  11.359  14.732
96657SOL    HW191868  12.929  11.295  14.789
96657SOL    HW291869  12.934  11.440  14.747
96658SOL     OW91870  11.251  10.420  13.243
96658SOL    HW191871  11.265  10.393  13.334
96658SOL    HW291872  11.265  10.514  13.244
96659SOL     OW91873   9.749  10.553   3.505
96659SOL    HW191874   9.793  10.503   3.574
96659SOL    HW291875   9.795  10.529   3.425
96660SOL     OW91876  13.855   9.035   2.862
96660SOL    HW191877  13.863   8.954   2.914
96660SOL    HW291878  13.945   9.062   2.846
96661SOL     OW91879  10.588   4.927  10.455
96661SOL    HW191880  10.517   4.863  10.444
96661SOL    HW291881  10.656   4.898  10.394
96662SOL     OW91882   3.382   7.270   6.393
96662SOL    HW191883   3.429   7.306   6.468
96662SOL    HW291884   3.307   7.328   6.381
96663SOL     OW91885   8.458  13.383   2.385
96663SOL    HW191886   8.548  13.413   2.401
96663SOL    HW291887   8.432  13.427   2.304
96664SOL     OW91888   1.948   6.190  12.223
96664SOL    HW191889   1.949   6.166  12.315
96664SOL    HW291890   1.866   6.154  12.189
96665SOL     OW91891  10.764  13.792   5.178
96665SOL    HW191892  10.825  13.719   5.170
96665SOL    HW291893  10.703  13.764   5.247
96666SOL     OW91894   2.907  13.766   0.312
96666SOL    HW191895   2.923  13.690   0.256
96666SOL    HW291896   2.994  13.792   0.342
96667SOL     OW91897   4.979   0.980   9.622
96667SOL    HW191898   4.902   1.035   9.638
96667SOL    HW291899   5.013   0.961   9.709
96668SOL     OW91900   0.301  11.595   4.105
96668SOL    HW191901   0.306  11.689   4.117
96668SOL    HW291902   0.378  11.560   4.150
96669SOL     OW91903   2.986   6.713   9.244
96669SOL    HW191904   3.049   6.685   9.311
96669SOL    HW291905   2.951   6.796   9.278
96670SOL     OW91906   7.290  11.532   3.986
96670SOL    HW191907   7.369  11.504   3.940
96670SOL    HW291908   7.287  11.476   4.064
96671SOL     OW91909   5.553  13.017   4.967
96671SOL    HW191910   5.551  12.922   4.976
96671SOL    HW291911   5.527  13.033   4.876
96672SOL     OW91912  14.086   6.273   1.508
96672SOL    HW191913  14.172   6.310   1.489
96672SOL    HW291914  14.094   6.181   1.485
96673SOL     OW91915   7.015  12.498  13.581
96673SOL    HW191916   6.928  12.500  13.540
96673SOL    HW291917   7.021  12.411  13.620
96674SOL     OW91918  11.547   5.374   8.577
96674SOL    HW191919  11.496   5.323   8.514
96674SOL    HW291920  11.546   5.322   8.657
96675SOL     OW91921   7.489  13.304   4.409
96675SOL    HW191922   7.458  13.322   4.497
96675SOL    HW291923   7.584  13.307   4.415
96676SOL     OW91924   3.326   1.774   9.427
96676SOL    HW191925   3.307   1.837   9.497
96676SOL    HW291926   3.422   1.769   9.425
96677SOL     OW91927   4.469  11.530   0.641
96677SOL    HW191928   4.484  11.435   0.634
96677SOL    HW291929   4.549  11.569   0.608
96678SOL     OW91930   6.099   8.183   4.106
96678SOL    HW191931   6.092   8.267   4.062
96678SOL    HW291932   6.142   8.126   4.042
96679SOL     OW91933   0.618   0.198   8.503
96679SOL    HW191934   0.582   0.171   8.418
96679SOL    HW291935   0.693   0.139   8.517
96680SOL     OW91936  11.109   2.703   4.789
96680SOL    HW191937  11.189   2.689   4.739
96680SOL    HW291938  11.127   2.781   4.842
96681SOL     OW91939   4.504   8.139   4.779
96681SOL    HW191940   4.479   8.230   4.794
96681SOL    HW291941   4.421   8.092   4.777
96682SOL     OW91942  14.114   8.057   1.046
96682SOL    HW191943  14.020   8.055   1.029
96682SOL    HW291944  14.155   8.053   0.960
96683SOL     OW91945   3.831   9.986  13.881
96683SOL    HW191946   3.822  10.081  13.877
96683SOL    HW291947   3.741   9.953  13.891
96684SOL     OW91948  13.311   9.127   0.722
96684SOL    HW191949  13.384   9.160   0.669
96684SOL    HW291950  13.306   9.188   0.796
96685SOL     OW91951   6.496   5.041   2.862
96685SOL    HW191952   6.575   4.987   2.865
96685SOL    HW291953   6.526   5.125   2.826
96686SOL     OW91954  11.151   2.557   9.366
96686SOL    HW191955  11.064   2.516   9.369
96686SOL    HW291956  11.211   2.483   9.357
96687SOL     OW91957   9.316   2.118   7.740
96687SOL    HW191958   9.289   2.079   7.657
96687SOL    HW291959   9.409   2.094   7.749
96688SOL     OW91960  12.974   1.280  10.420
96688SOL    HW191961  13.063   1.297  10.389
96688SOL    HW291962  12.918   1.304  10.346
96689SOL     OW91963   4.536   3.768   7.327
96689SOL    HW191964   4.629   3.774   7.352
96689SOL    HW291965   4.535   3.789   7.234
96690SOL     OW91966   6.385   5.476   3.767
96690SOL    HW191967   6.478   5.454   3.775
96690SOL    HW291968   6.384   5.563   3.727
96691SOL     OW91969   2.725   7.104   5.608
96691SOL    HW191970   2.749   7.176   5.667
96691SOL    HW291971   2.694   7.035   5.666
96692SOL     OW91972  13.369   8.492   0.526
96692SOL    HW191973  13.412   8.566   0.483
96692SOL    HW291974  13.289   8.478   0.476
96693SOL     OW91975   4.676  13.981   7.288
96693SOL    HW191976   4.734  14.057   7.299
96693SOL    HW291977   4.677  13.939   7.374
96694SOL     OW91978   7.505   7.288   9.009
96694SOL    HW191979   7.591   7.311   9.043
96694SOL    HW291980   7.523   7.241   8.927
96695SOL     OW91981   4.460   5.505   1.434
96695SOL    HW191982   4.523   5.544   1.372
96695SOL    HW291983   4.464   5.562   1.510
96696SOL     OW91984  12.820   3.174  14.732
96696SOL    HW191985  12.766   3.254  14.735
96696SOL    HW291986  12.910   3.206  14.744
96697SOL     OW91987  12.954   6.256  13.650
96697SOL    HW191988  13.017   6.277  13.719
96697SOL    HW291989  12.881   6.316  13.665
96698SOL     OW91990   4.911  13.290   2.236
96698SOL    HW191991   4.842  13.224   2.236
96698SOL    HW291992   4.868  13.370   2.207
96699SOL     OW91993   8.696   2.105   9.305
96699SOL    HW191994   8.688   2.198   9.284
96699SOL    HW291995   8.761   2.072   9.244
96700SOL     OW91996  11.075   6.340   3.155
96700SOL    HW191997  11.028   6.286   3.092
96700SOL    HW291998  11.023   6.421   3.160
96701SOL     OW91999   6.573   8.132   7.708
96701SOL    HW192000   6.567   8.228   7.709
96701SOL    HW292001   6.593   8.109   7.798
96702SOL     OW92002   5.502   4.979   0.002
96702SOL    HW192003   5.562   4.954   0.073
96702SOL    HW292004   5.560   5.014  14.803
96703SOL     OW92005   4.342   8.065   5.579
96703SOL    HW192006   4.404   8.085   5.509
96703SOL    HW292007   4.298   8.148   5.597
96704SOL     OW92008   0.185   3.746   1.355
96704SOL    HW192009   0.241   3.669   1.361
96704SOL    HW292010   0.242   3.820   1.377
96705SOL     OW92011   8.028   5.959  13.382
96705SOL    HW192012   7.975   5.975  13.304
96705SOL    HW292013   8.033   5.863  13.388
96706SOL     OW92014   8.754   4.388   3.885
96706SOL    HW192015   8.678   4.349   3.841
96706SOL    HW292016   8.741   4.368   3.977
96707SOL     OW92017   8.982  13.535   0.729
96707SOL    HW192018   9.003  13.447   0.759
96707SOL    HW292019   9.059  13.562   0.679
96708SOL     OW92020  14.433  13.413  13.657
96708SOL    HW192021  14.351  13.426  13.609
96708SOL    HW292022  14.494  13.378  13.592
96709SOL     OW92023  14.641   2.876   2.722
96709SOL    HW192024  14.715   2.933   2.740
96709SOL    HW292025  14.671   2.819   2.651
96710SOL     OW92026   0.336   7.371   2.678
96710SOL    HW192027   0.414   7.324   2.648
96710SOL    HW292028   0.366   7.460   2.692
96711SOL     OW92029  10.339   6.121  10.028
96711SOL    HW192030  10.423   6.147   9.991
96711SOL    HW292031  10.341   6.025  10.027
96712SOL     OW92032   4.277  11.500   8.161
96712SOL    HW192033   4.307  11.422   8.208
96712SOL    HW292034   4.196  11.473   8.118
96713SOL     OW92035   3.018  10.767   6.177
96713SOL    HW192036   2.951  10.823   6.139
96713SOL    HW292037   3.081  10.754   6.106
96714SOL     OW92038  13.705  11.794   7.531
96714SOL    HW192039  13.714  11.700   7.547
96714SOL    HW292040  13.680  11.800   7.439
96715SOL     OW92041   4.981   8.455   0.103
96715SOL    HW192042   4.993   8.521   0.035
96715SOL    HW292043   4.922   8.497   0.166
96716SOL     OW92044  11.012   3.052   8.277
96716SOL    HW192045  11.052   3.014   8.355
96716SOL    HW292046  11.086   3.069   8.218
96717SOL     OW92047   9.135  12.761   0.825
96717SOL    HW192048   9.063  12.704   0.797
96717SOL    HW292049   9.188  12.706   0.882
96718SOL     OW92050   7.308   4.441  13.287
96718SOL    HW192051   7.384   4.416  13.235
96718SOL    HW292052   7.338   4.513  13.341
96719SOL     OW92053   4.560   8.912   6.416
96719SOL    HW192054   4.627   8.889   6.480
96719SOL    HW292055   4.571   9.006   6.402
96720SOL     OW92056   9.827   1.402  10.867
96720SOL    HW192057   9.733   1.388  10.872
96720SOL    HW292058   9.863   1.316  10.842
96721SOL     OW92059  13.345   3.135   7.250
96721SOL    HW192060  13.290   3.128   7.172
96721SOL    HW292061  13.334   3.225   7.280
96722SOL     OW92062  14.093   9.648   0.533
96722SOL    HW192063  14.087   9.659   0.438
96722SOL    HW292064  14.169   9.700   0.558
96723SOL     OW92065  14.577   6.691  12.568
96723SOL    HW192066  14.640   6.706  12.497
96723SOL    HW292067  14.593   6.600  12.594
96724SOL     OW92068   7.991  12.369   2.671
96724SOL    HW192069   8.006  12.461   2.696
96724SOL    HW292070   8.040  12.358   2.590
96725SOL     OW92071   4.102   1.650   8.934
96725SOL    HW192072   4.052   1.579   8.894
96725SOL    HW292073   4.169   1.605   8.986
96726SOL     OW92074  13.571  14.735   7.249
96726SOL    HW192075  13.501  14.791   7.217
96726SOL    HW292076  13.632  14.728   7.175
96727SOL     OW92077   4.306  11.943   4.479
96727SOL    HW192078   4.383  11.938   4.422
96727SOL    HW292079   4.256  11.864   4.460
96728SOL     OW92080   3.210   4.535  10.349
96728SOL    HW192081   3.192   4.465  10.287
96728SOL    HW292082   3.228   4.491  10.432
96729SOL     OW92083   1.271  13.411  10.540
96729SOL    HW192084   1.292  13.487  10.486
96729SOL    HW292085   1.175  13.408  10.541
96730SOL     OW92086   3.610   3.346  12.700
96730SOL    HW192087   3.599   3.293  12.620
96730SOL    HW292088   3.572   3.292  12.769
96731SOL     OW92089   2.659   9.182   6.354
96731SOL    HW192090   2.582   9.191   6.298
96731SOL    HW292091   2.629   9.131   6.429
96732SOL     OW92092   1.082  10.099  14.005
96732SOL    HW192093   1.081  10.015  14.050
96732SOL    HW292094   1.023  10.088  13.930
96733SOL     OW92095   9.661   3.612   1.679
96733SOL    HW192096   9.676   3.538   1.738
96733SOL    HW292097   9.664   3.689   1.736
96734SOL     OW92098  12.623   7.481  13.310
96734SOL    HW192099  12.571   7.471  13.390
96734SOL    HW292100  12.563   7.522  13.248
96735SOL     OW92101   6.975  10.836   2.258
96735SOL    HW192102   6.915  10.765   2.233
96735SOL    HW292103   6.994  10.881   2.176
96736SOL     OW92104   4.483   1.230   9.205
96736SOL    HW192105   4.549   1.235   9.136
96736SOL    HW292106   4.508   1.153   9.256
96737SOL     OW92107   6.328  11.022   9.955
96737SOL    HW192108   6.266  10.950   9.945
96737SOL    HW292109   6.347  11.025  10.049
96738SOL     OW92110   2.379  14.813   7.097
96738SOL    HW192111   2.317  14.746   7.127
96738SOL    HW292112   2.327   0.000   7.040
96739SOL     OW92113   3.466   3.371   4.309
96739SOL    HW192114   3.461   3.467   4.308
96739SOL    HW292115   3.393   3.344   4.365
96740SOL     OW92116   7.354   9.586   1.044
96740SOL    HW192117   7.285   9.622   0.989
96740SOL    HW292118   7.348   9.636   1.126
96741SOL     OW92119  11.772   3.647   5.883
96741SOL    HW192120  11.692   3.606   5.850
96741SOL    HW292121  11.776   3.620   5.975
96742SOL     OW92122   9.828  11.758  11.628
96742SOL    HW192123   9.769  11.717  11.691
96742SOL    HW292124   9.780  11.757  11.545
96743SOL     OW92125  10.034   3.542   3.922
96743SOL    HW192126   9.991   3.464   3.956
96743SOL    HW292127  10.016   3.541   3.828
96744SOL     OW92128  13.388   7.028   7.924
96744SOL    HW192129  13.433   6.943   7.917
96744SOL    HW292130  13.303   7.013   7.881
96745SOL     OW92131   6.395  10.884   0.478
96745SOL    HW192132   6.478  10.902   0.521
96745SOL    HW292133   6.409  10.802   0.432
96746SOL     OW92134  12.894  13.165   3.909
96746SOL    HW192135  12.988  13.146   3.907
96746SOL    HW292136  12.854  13.085   3.941
96747SOL     OW92137   2.999  13.006   3.431
96747SOL    HW192138   2.962  13.027   3.345
96747SOL    HW292139   2.923  12.984   3.485
96748SOL     OW92140  12.090   8.864   5.360
96748SOL    HW192141  12.082   8.935   5.296
96748SOL    HW292142  12.016   8.877   5.420
96749SOL     OW92143   4.445   4.480  14.551
96749SOL    HW192144   4.389   4.539  14.502
96749SOL    HW292145   4.533   4.517  14.541
96750SOL     OW92146   4.406  11.377   5.200
96750SOL    HW192147   4.443  11.291   5.217
96750SOL    HW292148   4.313  11.368   5.218
96751SOL     OW92149  12.985  13.583  11.342
96751SOL    HW192150  13.043  13.543  11.406
96751SOL    HW292151  12.974  13.673  11.372
96752SOL     OW92152   4.350   7.390   0.572
96752SOL    HW192153   4.433   7.361   0.534
96752SOL    HW292154   4.334   7.328   0.644
96753SOL     OW92155   9.737   0.989   4.970
96753SOL    HW192156   9.650   0.950   4.971
96753SOL    HW292157   9.727   1.074   5.012
96754SOL     OW92158   0.368   5.734  13.693
96754SOL    HW192159   0.426   5.808  13.674
96754SOL    HW292160   0.323   5.717  13.611
96755SOL     OW92161  11.626   3.085   3.473
96755SOL    HW192162  11.561   3.135   3.424
96755SOL    HW292163  11.709   3.130   3.455
96756SOL     OW92164   6.635   7.875   8.474
96756SOL    HW192165   6.687   7.900   8.397
96756SOL    HW292166   6.591   7.794   8.448
96757SOL     OW92167   8.221   0.488   8.892
96757SOL    HW192168   8.140   0.440   8.873
96757SOL    HW292169   8.256   0.512   8.806
96758SOL     OW92170   4.024   6.171   8.625
96758SOL    HW192171   3.937   6.201   8.649
96758SOL    HW292172   4.079   6.193   8.701
96759SOL     OW92173  11.877  12.904  11.249
96759SOL    HW192174  11.788  12.883  11.277
96759SOL    HW292175  11.902  12.980  11.301
96760SOL     OW92176   9.652  13.743   0.221
96760SOL    HW192177   9.662  13.667   0.278
96760SOL    HW292178   9.615  13.811   0.278
96761SOL     OW92179   3.933   9.315  13.762
96761SOL    HW192180   3.978   9.347  13.684
96761SOL    HW292181   3.999   9.266  13.810
96762SOL     OW92182  12.172   9.517   0.906
96762SOL    HW192183  12.209   9.585   0.962
96762SOL    HW292184  12.169   9.557   0.819
96763SOL     OW92185   7.826   7.025  10.301
96763SOL    HW192186   7.825   6.960  10.371
96763SOL    HW292187   7.880   6.985  10.232
96764SOL     OW92188   0.058   9.982  12.687
96764SOL    HW192189   0.101  10.060  12.654
96764SOL    HW292190   0.058   9.993  12.782
96765SOL     OW92191   1.837   1.887   9.685
96765SOL    HW192192   1.932   1.885   9.699
96765SOL    HW292193   1.815   1.980   9.685
96766SOL     OW92194   5.153  11.405  14.310
96766SOL    HW192195   5.060  11.402  14.333
96766SOL    HW292196   5.164  11.334  14.246
96767SOL     OW92197   3.922   4.769   9.902
96767SOL    HW192198   4.005   4.724   9.886
96767SOL    HW292199   3.884   4.724   9.977
96768SOL     OW92200  12.578   1.677  13.660
96768SOL    HW192201  12.623   1.705  13.580
96768SOL    HW292202  12.611   1.589  13.677
96769SOL     OW92203   5.484   7.119  11.652
96769SOL    HW192204   5.391   7.135  11.631
96769SOL    HW292205   5.493   7.146  11.743
96770SOL     OW92206   7.814  12.776  13.650
96770SOL    HW192207   7.747  12.741  13.592
96770SOL    HW292208   7.826  12.709  13.717
96771SOL     OW92209   6.097   7.284   5.218
96771SOL    HW192210   6.113   7.201   5.175
96771SOL    HW292211   6.178   7.333   5.208
96772SOL     OW92212   0.510   7.974  11.731
96772SOL    HW192213   0.474   7.994  11.818
96772SOL    HW292214   0.574   8.043  11.715
96773SOL     OW92215  11.692   2.487  12.015
96773SOL    HW192216  11.622   2.491  12.081
96773SOL    HW292217  11.657   2.430  11.946
96774SOL     OW92218   7.398   8.913  13.137
96774SOL    HW192219   7.406   8.865  13.219
96774SOL    HW292220   7.488   8.930  13.109
96775SOL     OW92221   7.215   2.394   5.354
96775SOL    HW192222   7.305   2.362   5.343
96775SOL    HW292223   7.224   2.483   5.387
96776SOL     OW92224   0.801   7.389   3.201
96776SOL    HW192225   0.730   7.373   3.139
96776SOL    HW292226   0.792   7.482   3.224
96777SOL     OW92227  12.798  14.561   4.073
96777SOL    HW192228  12.817  14.504   4.147
96777SOL    HW292229  12.869  14.544   4.011
96778SOL     OW92230  12.838   1.578   8.965
96778SOL    HW192231  12.766   1.516   8.974
96778SOL    HW292232  12.907   1.529   8.921
96779SOL     OW92233   4.210   2.979  10.713
96779SOL    HW192234   4.301   2.960  10.735
96779SOL    HW292235   4.197   2.938  10.627
96780SOL     OW92236   4.839   5.752   7.438
96780SOL    HW192237   4.753   5.771   7.399
96780SOL    HW292238   4.842   5.657   7.445
96781SOL     OW92239   6.381   5.416   8.540
96781SOL    HW192240   6.389   5.508   8.517
96781SOL    HW292241   6.289   5.405   8.564
96782SOL     OW92242  12.988   1.112   9.435
96782SOL    HW192243  13.051   1.053   9.477
96782SOL    HW292244  13.038   1.190   9.413
96783SOL     OW92245   0.400  12.978  11.429
96783SOL    HW192246   0.357  12.902  11.390
96783SOL    HW292247   0.405  12.958  11.522
96784SOL     OW92248  13.657   2.526   9.157
96784SOL    HW192249  13.620   2.512   9.069
96784SOL    HW292250  13.704   2.609   9.150
96785SOL     OW92251   2.542   8.190   3.703
96785SOL    HW192252   2.456   8.148   3.704
96785SOL    HW292253   2.604   8.119   3.723
96786SOL     OW92254   4.485  11.229   9.459
96786SOL    HW192255   4.470  11.174   9.382
96786SOL    HW292256   4.553  11.183   9.509
96787SOL     OW92257   4.048  14.033   0.299
96787SOL    HW192258   4.124  14.071   0.343
96787SOL    HW292259   4.071  14.036   0.206
96788SOL     OW92260  11.769   0.179   1.198
96788SOL    HW192261  11.817   0.119   1.141
96788SOL    HW292262  11.800   0.266   1.172
96789SOL     OW92263  12.114   3.335   0.137
96789SOL    HW192264  12.126   3.243   0.114
96789SOL    HW292265  12.020   3.351   0.125
96790SOL     OW92266   2.563  12.660   4.941
96790SOL    HW192267   2.507  12.666   5.018
96790SOL    HW292268   2.652  12.668   4.975
96791SOL     OW92269  13.276   7.288   4.825
96791SOL    HW192270  13.363   7.277   4.863
96791SOL    HW292271  13.293   7.305   4.732
96792SOL     OW92272   7.356   4.747   4.780
96792SOL    HW192273   7.376   4.701   4.861
96792SOL    HW292274   7.261   4.755   4.779
96793SOL     OW92275   7.594   2.099  13.321
96793SOL    HW192276   7.655   2.166  13.350
96793SOL    HW292277   7.533   2.146  13.263
96794SOL     OW92278  14.701  10.692  14.232
96794SOL    HW192279  14.717  10.761  14.168
96794SOL    HW292280  14.614  10.711  14.266
96795SOL     OW92281   3.353  10.507   1.976
96795SOL    HW192282   3.290  10.436   1.989
96795SOL    HW292283   3.304  10.572   1.925
96796SOL     OW92284   1.702   6.392   7.410
96796SOL    HW192285   1.710   6.486   7.395
96796SOL    HW292286   1.743   6.351   7.334
96797SOL     OW92287   8.006   4.649   4.558
96797SOL    HW192288   8.026   4.668   4.649
96797SOL    HW292289   7.936   4.711   4.536
96798SOL     OW92290   8.829   8.073   0.711
96798SOL    HW192291   8.831   8.104   0.802
96798SOL    HW292292   8.753   8.117   0.672
96799SOL     OW92293   4.978   9.503   9.948
96799SOL    HW192294   5.049   9.538  10.002
96799SOL    HW292295   4.913   9.471  10.010
96800SOL     OW92296  12.247   0.523  11.520
96800SOL    HW192297  12.159   0.560  11.508
96800SOL    HW292298  12.303   0.575  11.463
96801SOL     OW92299   1.849   0.998   5.859
96801SOL    HW192300   1.853   0.988   5.764
96801SOL    HW292301   1.829   1.090   5.872
96802SOL     OW92302   4.068   2.592   8.518
96802SOL    HW192303   4.014   2.535   8.463
96802SOL    HW292304   4.078   2.543   8.600
96803SOL     OW92305   2.448   3.770  14.228
96803SOL    HW192306   2.444   3.801  14.318
96803SOL    HW292307   2.490   3.684  14.234
96804SOL     OW92308   7.318   1.451   1.902
96804SOL    HW192309   7.397   1.398   1.887
96804SOL    HW292310   7.343   1.512   1.972
96805SOL     OW92311  12.457   0.142   1.759
96805SOL    HW192312  12.429   0.141   1.851
96805SOL    HW292313  12.512   0.220   1.752
96806SOL     OW92314   8.758  12.305   4.200
96806SOL    HW192315   8.836  12.253   4.178
96806SOL    HW292316   8.724  12.333   4.115
96807SOL     OW92317  11.183   2.522   2.529
96807SOL    HW192318  11.139   2.455   2.476
96807SOL    HW292319  11.165   2.497   2.619
96808SOL     OW92320   9.704  14.239   1.571
96808SOL    HW192321   9.737  14.257   1.659
96808SOL    HW292322   9.782  14.243   1.515
96809SOL     OW92323   2.756  14.180  10.483
96809SOL    HW192324   2.763  14.087  10.503
96809SOL    HW292325   2.666  14.203  10.506
96810SOL     OW92326   2.333   5.626  11.153
96810SOL    HW192327   2.361   5.602  11.065
96810SOL    HW292328   2.255   5.681  11.140
96811SOL     OW92329   5.019  10.040   4.888
96811SOL    HW192330   4.940  10.092   4.897
96811SOL    HW292331   5.086  10.102   4.859
96812SOL     OW92332   2.693   5.779  12.596
96812SOL    HW192333   2.711   5.694  12.636
96812SOL    HW292334   2.754   5.840  12.638
96813SOL     OW92335   5.178   6.201   0.158
96813SOL    HW192336   5.216   6.146   0.088
96813SOL    HW292337   5.084   6.197   0.142
96814SOL     OW92338   1.780   2.613  13.522
96814SOL    HW192339   1.852   2.599  13.460
96814SOL    HW292340   1.724   2.536  13.510
96815SOL     OW92341   7.689  10.811   7.151
96815SOL    HW192342   7.647  10.871   7.089
96815SOL    HW292343   7.771  10.853   7.173
96816SOL     OW92344   7.328   7.073  14.092
96816SOL    HW192345   7.278   7.009  14.143
96816SOL    HW292346   7.417   7.038  14.089
96817SOL     OW92347   4.180   5.096  14.153
96817SOL    HW192348   4.161   5.176  14.102
96817SOL    HW292349   4.262   5.064  14.117
96818SOL     OW92350  11.310   1.038   6.921
96818SOL    HW192351  11.257   0.967   6.885
96818SOL    HW292352  11.361   0.998   6.992
96819SOL     OW92353   1.277   7.346   3.660
96819SOL    HW192354   1.279   7.344   3.755
96819SOL    HW292355   1.205   7.406   3.639
96820SOL     OW92356   6.433   3.315   6.350
96820SOL    HW192357   6.439   3.221   6.330
96820SOL    HW292358   6.430   3.318   6.446
96821SOL     OW92359   5.433   8.274   2.452
96821SOL    HW192360   5.524   8.261   2.424
96821SOL    HW292361   5.382   8.218   2.393
96822SOL     OW92362  13.412   7.759   9.521
96822SOL    HW192363  13.367   7.800   9.594
96822SOL    HW292364  13.484   7.818   9.500
96823SOL     OW92365  11.141   8.717   3.306
96823SOL    HW192366  11.214   8.666   3.340
96823SOL    HW292367  11.119   8.778   3.376
96824SOL     OW92368   7.845   9.260  10.418
96824SOL    HW192369   7.884   9.339  10.381
96824SOL    HW292370   7.919   9.198  10.424
96825SOL     OW92371   1.836   6.069   8.455
96825SOL    HW192372   1.809   6.074   8.547
96825SOL    HW292373   1.920   6.116   8.452
96826SOL     OW92374   0.163   0.427  13.055
96826SOL    HW192375   0.244   0.459  13.095
96826SOL    HW292376   0.109   0.506  13.044
96827SOL     OW92377   9.082   3.495  13.415
96827SOL    HW192378   9.080   3.400  13.407
96827SOL    HW292379   9.102   3.526  13.327
96828SOL     OW92380   0.673  13.798   9.683
96828SOL    HW192381   0.766  13.790   9.702
96828SOL    HW292382   0.668  13.860   9.610
96829SOL     OW92383   7.727  10.218  13.145
96829SOL    HW192384   7.671  10.185  13.075
96829SOL    HW292385   7.668  10.268  13.201
96830SOL     OW92386   9.544  12.782  14.672
96830SOL    HW192387   9.465  12.804  14.721
96830SOL    HW292388   9.512  12.729  14.598
96831SOL     OW92389   0.785   9.859   1.723
96831SOL    HW192390   0.779   9.893   1.634
96831SOL    HW292391   0.791   9.764   1.712
96832SOL     OW92392   8.343  13.196  11.180
96832SOL    HW192393   8.280  13.154  11.121
96832SOL    HW292394   8.429  13.170  11.145
96833SOL     OW92395   4.746  12.202   6.895
96833SOL    HW192396   4.687  12.179   6.824
96833SOL    HW292397   4.747  12.298   6.895
96834SOL     OW92398   6.451  11.407  11.213
96834SOL    HW192399   6.535  11.434  11.248
96834SOL    HW292400   6.472  11.343  11.145
96835SOL     OW92401   0.162   0.803  13.977
96835SOL    HW192402   0.237   0.810  14.036
96835SOL    HW292403   0.198   0.768  13.896
96836SOL     OW92404   9.402   3.406  13.205
96836SOL    HW192405   9.318   3.421  13.162
96836SOL    HW292406   9.432   3.494  13.230
96837SOL     OW92407  10.903   8.826   2.444
96837SOL    HW192408  10.915   8.868   2.359
96837SOL    HW292409  10.963   8.751   2.443
96838SOL     OW92410   2.687   1.677  14.036
96838SOL    HW192411   2.724   1.756  14.076
96838SOL    HW292412   2.690   1.694  13.942
96839SOL     OW92413  13.819   4.597   1.547
96839SOL    HW192414  13.836   4.560   1.633
96839SOL    HW292415  13.894   4.655   1.530
96840SOL     OW92416  14.698   8.351   9.212
96840SOL    HW192417  14.620   8.297   9.203
96840SOL    HW292418  14.666   8.441   9.210
96841SOL     OW92419  10.771  12.202  11.679
96841SOL    HW192420  10.800  12.212  11.769
96841SOL    HW292421  10.703  12.268  11.668
96842SOL     OW92422  10.847   6.925  12.140
96842SOL    HW192423  10.811   6.887  12.221
96842SOL    HW292424  10.940   6.939  12.159
96843SOL     OW92425   5.716   7.694  13.411
96843SOL    HW192426   5.773   7.621  13.434
96843SOL    HW292427   5.660   7.706  13.488
96844SOL     OW92428   0.909   2.401   9.770
96844SOL    HW192429   0.966   2.324   9.765
96844SOL    HW292430   0.956   2.469   9.722
96845SOL     OW92431  14.730  10.418   7.172
96845SOL    HW192432  14.689  10.417   7.085
96845SOL    HW292433  14.656  10.422   7.233
96846SOL     OW92434  10.222  13.518  13.402
96846SOL    HW192435  10.131  13.538  13.378
96846SOL    HW292436  10.274  13.578  13.349
96847SOL     OW92437   8.224   5.386   2.569
96847SOL    HW192438   8.153   5.425   2.518
96847SOL    HW292439   8.240   5.449   2.639
96848SOL     OW92440  11.557  13.221  12.579
96848SOL    HW192441  11.614  13.152  12.544
96848SOL    HW292442  11.570  13.216  12.673
96849SOL     OW92443   4.463  13.425  12.098
96849SOL    HW192444   4.471  13.513  12.060
96849SOL    HW292445   4.450  13.441  12.191
96850SOL     OW92446   6.444   2.156   8.681
96850SOL    HW192447   6.461   2.244   8.648
96850SOL    HW292448   6.382   2.118   8.619
96851SOL     OW92449   6.994   7.030   8.096
96851SOL    HW192450   6.961   7.004   8.010
96851SOL    HW292451   7.013   6.947   8.140
96852SOL     OW92452   0.347   4.659   8.725
96852SOL    HW192453   0.303   4.665   8.810
96852SOL    HW292454   0.335   4.567   8.698
96853SOL     OW92455   0.990  11.168  10.027
96853SOL    HW192456   1.051  11.148  10.099
96853SOL    HW292457   0.999  11.094   9.967
96854SOL     OW92458   8.328   8.576  12.969
96854SOL    HW192459   8.256   8.598  12.909
96854SOL    HW292460   8.399   8.549  12.911
96855SOL     OW92461  14.858  12.979   7.343
96855SOL    HW192462  14.766  12.955   7.351
96855SOL    HW292463   0.017  12.997   7.433
96856SOL     OW92464   7.288   6.799  14.616
96856SOL    HW192465   7.334   6.838  14.542
96856SOL    HW292466   7.353   6.800  14.687
96857SOL     OW92467  12.956   5.191  13.098
96857SOL    HW192468  12.913   5.139  13.030
96857SOL    HW292469  12.901   5.179  13.176
96858SOL     OW92470  13.212  13.473   8.792
96858SOL    HW192471  13.136  13.530   8.806
96858SOL    HW292472  13.217  13.421   8.873
96859SOL     OW92473   4.253   6.074   6.077
96859SOL    HW192474   4.269   6.161   6.115
96859SOL    HW292475   4.273   6.085   5.984
96860SOL     OW92476  13.557   6.926  12.959
96860SOL    HW192477  13.568   6.841  12.918
96860SOL    HW292478  13.645   6.950  12.988
96861SOL     OW92479   7.169   7.233   9.200
96861SOL    HW192480   7.224   7.173   9.251
96861SOL    HW292481   7.204   7.320   9.221
96862SOL     OW92482   7.566  12.823   5.556
96862SOL    HW192483   7.634  12.788   5.498
96862SOL    HW292484   7.614  12.863   5.628
96863SOL     OW92485   2.348  12.568   5.652
96863SOL    HW192486   2.437  12.582   5.684
96863SOL    HW292487   2.330  12.476   5.671
96864SOL     OW92488  10.039   2.276   1.980
96864SOL    HW192489  10.124   2.319   1.979
96864SOL    HW292490   9.994   2.310   1.902
96865SOL     OW92491  12.007   1.263  10.725
96865SOL    HW192492  11.957   1.333  10.685
96865SOL    HW292493  12.059   1.226  10.654
96866SOL     OW92494   7.270   5.591  11.766
96866SOL    HW192495   7.180   5.578  11.796
96866SOL    HW292496   7.265   5.580  11.671
96867SOL     OW92497   5.651   1.361   1.685
96867SOL    HW192498   5.686   1.289   1.633
96867SOL    HW292499   5.558   1.365   1.662
96868SOL     OW92500   9.497   4.215  12.704
96868SOL    HW192501   9.476   4.288  12.645
96868SOL    HW292502   9.414   4.171  12.720
96869SOL     OW92503   3.768  13.476  14.170
96869SOL    HW192504   3.838  13.497  14.232
96869SOL    HW292505   3.689  13.513  14.210
96870SOL     OW92506   6.934   9.153   8.129
96870SOL    HW192507   6.973   9.073   8.092
96870SOL    HW292508   6.988   9.173   8.205
96871SOL     OW92509   2.728   1.233  10.199
96871SOL    HW192510   2.718   1.210  10.291
96871SOL    HW292511   2.822   1.240  10.185
96872SOL     OW92512  12.094   0.331   7.004
96872SOL    HW192513  12.027   0.398   7.013
96872SOL    HW292514  12.051   0.260   6.957
96873SOL     OW92515   4.055   1.062  13.174
96873SOL    HW192516   4.010   1.047  13.091
96873SOL    HW292517   4.027   0.989  13.230
96874SOL     OW92518   1.002   0.464  14.196
96874SOL    HW192519   1.077   0.463  14.255
96874SOL    HW292520   0.936   0.410  14.240
96875SOL     OW92521   6.828   8.490   9.819
96875SOL    HW192522   6.775   8.514   9.743
96875SOL    HW292523   6.809   8.558   9.884
96876SOL     OW92524   8.912   5.931   0.399
96876SOL    HW192525   8.888   5.845   0.364
96876SOL    HW292526   9.007   5.930   0.401
96877SOL     OW92527  11.512   5.047   6.545
96877SOL    HW192528  11.521   5.067   6.638
96877SOL    HW292529  11.592   5.081   6.504
96878SOL     OW92530  11.563   3.885  11.210
96878SOL    HW192531  11.499   3.946  11.247
96878SOL    HW292532  11.629   3.874  11.279
96879SOL     OW92533   1.902  12.552   4.325
96879SOL    HW192534   1.888  12.628   4.381
96879SOL    HW292535   1.876  12.581   4.238
96880SOL     OW92536   3.285   2.550   5.337
96880SOL    HW192537   3.371   2.515   5.360
96880SOL    HW292538   3.260   2.504   5.257
96881SOL     OW92539  13.989   3.721  10.918
96881SOL    HW192540  13.895   3.726  10.930
96881SOL    HW292541  14.001   3.728  10.823
96882SOL     OW92542   4.415  13.411   9.588
96882SOL    HW192543   4.352  13.346   9.619
96882SOL    HW292544   4.384  13.435   9.501
96883SOL     OW92545   9.238  12.760  14.652
96883SOL    HW192546   9.266  12.788  14.565
96883SOL    HW292547   9.144  12.745  14.643
96884SOL     OW92548   0.972   6.355   2.180
96884SOL    HW192549   0.880   6.374   2.194
96884SOL    HW292550   0.973   6.276   2.125
96885SOL     OW92551  11.412   0.073  10.120
96885SOL    HW192552  11.318   0.079  10.104
96885SOL    HW292553  11.419   0.024  10.202
96886SOL     OW92554   5.738   6.752   9.414
96886SOL    HW192555   5.744   6.837   9.372
96886SOL    HW292556   5.819   6.707   9.389
96887SOL     OW92557   1.928   7.752  14.039
96887SOL    HW192558   1.881   7.720  14.117
96887SOL    HW292559   1.894   7.840  14.025
96888SOL     OW92560  13.737   9.139   5.350
96888SOL    HW192561  13.702   9.073   5.290
96888SOL    HW292562  13.664   9.199   5.364
96889SOL     OW92563   5.632   6.008   7.405
96889SOL    HW192564   5.545   6.021   7.445
96889SOL    HW292565   5.679   5.954   7.468
96890SOL     OW92566  14.570   8.266   8.147
96890SOL    HW192567  14.597   8.203   8.080
96890SOL    HW292568  14.649   8.278   8.200
96891SOL     OW92569  10.327  12.411   3.770
96891SOL    HW192570  10.416  12.379   3.755
96891SOL    HW292571  10.296  12.360   3.845
96892SOL     OW92572   0.594  10.210  11.386
96892SOL    HW192573   0.592  10.168  11.472
96892SOL    HW292574   0.621  10.140  11.326
96893SOL     OW92575   4.473  11.989   2.534
96893SOL    HW192576   4.544  11.934   2.501
96893SOL    HW292577   4.420  12.010   2.457
96894SOL     OW92578   8.708  12.243   0.277
96894SOL    HW192579   8.799  12.266   0.294
96894SOL    HW292580   8.665  12.327   0.260
96895SOL     OW92581   0.228   6.638   4.260
96895SOL    HW192582   0.191   6.560   4.302
96895SOL    HW292583   0.158   6.670   4.204
96896SOL     OW92584  10.842  12.980   6.633
96896SOL    HW192585  10.815  12.920   6.563
96896SOL    HW292586  10.792  13.060   6.617
96897SOL     OW92587  13.422   5.018  14.216
96897SOL    HW192588  13.513   5.049  14.208
96897SOL    HW292589  13.372   5.073  14.157
96898SOL     OW92590   7.471   5.902   1.210
96898SOL    HW192591   7.518   5.819   1.200
96898SOL    HW292592   7.435   5.898   1.298
96899SOL     OW92593   2.684   7.126   4.832
96899SOL    HW192594   2.726   7.107   4.748
96899SOL    HW292595   2.757   7.138   4.893
96900SOL     OW92596   0.500   6.226   5.148
96900SOL    HW192597   0.534   6.140   5.124
96900SOL    HW292598   0.550   6.250   5.226
96901SOL     OW92599   9.090   3.062   2.237
96901SOL    HW192600   9.067   3.147   2.201
96901SOL    HW292601   9.147   3.022   2.171
96902SOL     OW92602   8.415  12.041   1.886
96902SOL    HW192603   8.466  11.965   1.857
96902SOL    HW292604   8.335  12.003   1.922
96903SOL     OW92605   5.501  11.928   1.982
96903SOL    HW192606   5.517  11.835   1.999
96903SOL    HW292607   5.487  11.933   1.888
96904SOL     OW92608  13.508  10.138  10.686
96904SOL    HW192609  13.490  10.111  10.596
96904SOL    HW292610  13.483  10.062  10.739
96905SOL     OW92611  11.942   1.737   4.338
96905SOL    HW192612  11.884   1.675   4.293
96905SOL    HW292613  11.907   1.823   4.316
96906SOL     OW92614   2.969   1.381   6.344
96906SOL    HW192615   2.987   1.444   6.414
96906SOL    HW292616   3.036   1.398   6.278
96907SOL     OW92617  14.207   0.333   0.276
96907SOL    HW192618  14.250   0.288   0.203
96907SOL    HW292619  14.277   0.346   0.340
96908SOL     OW92620   8.326  14.186  14.355
96908SOL    HW192621   8.330  14.277  14.324
96908SOL    HW292622   8.281  14.191  14.439
96909SOL     OW92623  13.679  14.274   8.569
96909SOL    HW192624  13.749  14.283   8.504
96909SOL    HW292625  13.716  14.314   8.648
96910SOL     OW92626   4.148   0.019   2.711
96910SOL    HW192627   4.147  14.802   2.669
96910SOL    HW292628   4.163   0.000   2.804
96911SOL     OW92629   0.624  14.361   0.188
96911SOL    HW192630   0.659  14.277   0.160
96911SOL    HW292631   0.702  14.417   0.199
96912SOL     OW92632   7.326   8.634   4.467
96912SOL    HW192633   7.319   8.725   4.496
96912SOL    HW292634   7.263   8.586   4.522
96913SOL     OW92635   6.436  14.781   5.288
96913SOL    HW192636   6.475  14.865   5.314
96913SOL    HW292637   6.498  14.715   5.319
96914SOL     OW92638  10.528   4.249   7.204
96914SOL    HW192639  10.532   4.334   7.160
96914SOL    HW292640  10.450   4.207   7.168
96915SOL     OW92641   5.161   0.030  11.905
96915SOL    HW192642   5.154   0.125  11.910
96915SOL    HW292643   5.130  14.869  11.991
96916SOL     OW92644   0.145   0.257   9.733
96916SOL    HW192645   0.063   0.248   9.780
96916SOL    HW292646   0.124   0.314   9.658
96917SOL     OW92647   0.998   4.249  14.557
96917SOL    HW192648   1.071   4.228  14.498
96917SOL    HW292649   0.950   4.318  14.511
96918SOL     OW92650   3.599   2.076   8.405
96918SOL    HW192651   3.613   2.023   8.483
96918SOL    HW292652   3.657   2.152   8.417
96919SOL     OW92653   8.713   9.198   8.235
96919SOL    HW192654   8.718   9.264   8.165
96919SOL    HW292655   8.755   9.121   8.198
96920SOL     OW92656  10.815   8.809   5.505
96920SOL    HW192657  10.728   8.843   5.525
96920SOL    HW292658  10.843   8.764   5.586
96921SOL     OW92659   0.648   0.930  11.326
96921SOL    HW192660   0.601   0.876  11.263
96921SOL    HW292661   0.723   0.965  11.277
96922SOL     OW92662   1.217   9.638  10.964
96922SOL    HW192663   1.123   9.637  10.978
96922SOL    HW292664   1.255   9.661  11.049
96923SOL     OW92665  10.832  10.536   2.482
96923SOL    HW192666  10.743  10.525   2.515
96923SOL    HW292667  10.833  10.492   2.398
96924SOL     OW92668  12.628  13.722   8.821
96924SOL    HW192669  12.683  13.733   8.899
96924SOL    HW292670  12.597  13.631   8.827
96925SOL     OW92671   5.432  13.292  11.058
96925SOL    HW192672   5.339  13.312  11.047
96925SOL    HW292673   5.466  13.368  11.106
96926SOL     OW92674   1.029   5.671  12.507
96926SOL    HW192675   1.072   5.662  12.422
96926SOL    HW292676   1.022   5.581  12.540
96927SOL     OW92677   6.015   8.187  13.126
96927SOL    HW192678   5.983   8.195  13.037
96927SOL    HW292679   6.041   8.276  13.151
96928SOL     OW92680   4.829  13.430   8.821
96928SOL    HW192681   4.860  13.521   8.817
96928SOL    HW292682   4.887  13.387   8.884
96929SOL     OW92683   7.975   3.267   8.152
96929SOL    HW192684   8.059   3.291   8.113
96929SOL    HW292685   7.917   3.339   8.129
96930SOL     OW92686   7.581   0.577   6.591
96930SOL    HW192687   7.500   0.526   6.592
96930SOL    HW292688   7.558   0.657   6.544
96931SOL     OW92689  12.384   3.737   8.156
96931SOL    HW192690  12.339   3.722   8.073
96931SOL    HW292691  12.343   3.817   8.191
96932SOL     OW92692   3.026   3.490  12.717
96932SOL    HW192693   3.006   3.399  12.739
96932SOL    HW292694   2.978   3.541  12.781
96933SOL     OW92695   4.132  13.545   4.018
96933SOL    HW192696   4.180  13.481   3.966
96933SOL    HW292697   4.051  13.500   4.044
96934SOL     OW92698   1.042   9.893   3.150
96934SOL    HW192699   1.006   9.809   3.176
96934SOL    HW292700   1.129   9.873   3.114
96935SOL     OW92701   3.805  10.368  14.667
96935SOL    HW192702   3.756  10.371  14.749
96935SOL    HW292703   3.799  10.457  14.632
96936SOL     OW92704  11.634  10.449   8.843
96936SOL    HW192705  11.728  10.433   8.851
96936SOL    HW292706  11.594  10.377   8.892
96937SOL     OW92707   8.781   5.258   6.395
96937SOL    HW192708   8.840   5.270   6.321
96937SOL    HW292709   8.693   5.262   6.358
96938SOL     OW92710   6.965   7.285   6.323
96938SOL    HW192711   6.876   7.307   6.299
96938SOL    HW292712   7.018   7.311   6.248
96939SOL     OW92713   3.850   1.993   4.730
96939SOL    HW192714   3.885   1.919   4.681
96939SOL    HW292715   3.894   2.069   4.693
96940SOL     OW92716   2.335   3.298   3.584
96940SOL    HW192717   2.315   3.229   3.522
96940SOL    HW292718   2.371   3.369   3.531
96941SOL     OW92719   1.050  12.376   1.802
96941SOL    HW192720   1.123  12.383   1.863
96941SOL    HW292721   1.022  12.284   1.810
96942SOL     OW92722   3.035   4.149  12.593
96942SOL    HW192723   2.969   4.165  12.661
96942SOL    HW292724   3.106   4.104  12.639
96943SOL     OW92725  12.365  12.233   8.080
96943SOL    HW192726  12.411  12.157   8.116
96943SOL    HW292727  12.325  12.201   7.999
96944SOL     OW92728  11.181   8.437   7.794
96944SOL    HW192729  11.224   8.382   7.859
96944SOL    HW292730  11.088   8.412   7.798
96945SOL     OW92731  10.184  13.592  12.545
96945SOL    HW192732  10.248  13.645  12.498
96945SOL    HW292733  10.109  13.587  12.486
96946SOL     OW92734   9.836  12.762  10.410
96946SOL    HW192735   9.876  12.714  10.483
96946SOL    HW292736   9.757  12.800  10.447
96947SOL     OW92737  12.595   7.817   1.268
96947SOL    HW192738  12.523   7.879   1.254
96947SOL    HW292739  12.654   7.862   1.329
96948SOL     OW92740   1.690  10.977  13.753
96948SOL    HW192741   1.627  10.979  13.682
96948SOL    HW292742   1.647  11.023  13.825
96949SOL     OW92743  10.314   6.992   6.391
96949SOL    HW192744  10.312   6.936   6.313
96949SOL    HW292745  10.249   6.954   6.450
96950SOL     OW92746   5.268   0.783  10.035
96950SOL    HW192747   5.269   0.688  10.021
96950SOL    HW292748   5.307   0.820   9.956
96951SOL     OW92749  12.973   8.034   3.506
96951SOL    HW192750  13.038   8.094   3.468
96951SOL    HW292751  12.938   8.081   3.582
96952SOL     OW92752  12.999   4.801   5.800
96952SOL    HW192753  12.988   4.733   5.866
96952SOL    HW292754  13.088   4.833   5.812
96953SOL     OW92755  12.864  13.455  10.858
96953SOL    HW192756  12.872  13.406  10.940
96953SOL    HW292757  12.954  13.462  10.825
96954SOL     OW92758  12.994   3.197  14.498
96954SOL    HW192759  13.009   3.290  14.514
96954SOL    HW292760  12.899   3.190  14.488
96955SOL     OW92761   2.141  10.109  10.557
96955SOL    HW192762   2.212  10.088  10.617
96955SOL    HW292763   2.144  10.039  10.491
96956SOL     OW92764   7.467   2.533   6.689
96956SOL    HW192765   7.550   2.502   6.725
96956SOL    HW292766   7.479   2.530   6.594
96957SOL     OW92767   1.221   4.020  12.423
96957SOL    HW192768   1.213   3.980  12.510
96957SOL    HW292769   1.209   4.114  12.439
96958SOL     OW92770  10.602   1.593   9.767
96958SOL    HW192771  10.571   1.503   9.761
96958SOL    HW292772  10.570   1.635   9.687
96959SOL     OW92773   2.380   5.466  14.425
96959SOL    HW192774   2.337   5.388  14.391
96959SOL    HW292775   2.452   5.433  14.478
96960SOL     OW92776   6.594   7.286   2.037
96960SOL    HW192777   6.660   7.297   2.105
96960SOL    HW292778   6.643   7.258   1.960
96961SOL     OW92779  11.712  10.823  12.950
96961SOL    HW192780  11.776  10.869  13.004
96961SOL    HW292781  11.643  10.887  12.933
96962SOL     OW92782   2.133  10.468   1.135
96962SOL    HW192783   2.122  10.547   1.082
96962SOL    HW292784   2.226  10.448   1.129
96963SOL     OW92785   5.463   2.657  13.214
96963SOL    HW192786   5.437   2.745  13.242
96963SOL    HW292787   5.558   2.657  13.222
96964SOL     OW92788   4.304  12.189   7.180
96964SOL    HW192789   4.316  12.246   7.104
96964SOL    HW292790   4.339  12.105   7.153
96965SOL     OW92791   8.536   9.340  13.861
96965SOL    HW192792   8.452   9.366  13.824
96965SOL    HW292793   8.523   9.250  13.889
96966SOL     OW92794   8.852   3.542  11.723
96966SOL    HW192795   8.827   3.452  11.704
96966SOL    HW292796   8.770   3.590  11.731
96967SOL     OW92797   5.572   7.506   3.753
96967SOL    HW192798   5.657   7.463   3.763
96967SOL    HW292799   5.515   7.459   3.814
96968SOL     OW92800  14.828   6.974   6.627
96968SOL    HW192801  14.865   7.047   6.677
96968SOL    HW292802  14.754   6.944   6.680
96969SOL     OW92803   6.237  11.891   3.432
96969SOL    HW192804   6.191  11.937   3.501
96969SOL    HW292805   6.258  11.805   3.469
96970SOL     OW92806  10.638   8.974  12.348
96970SOL    HW192807  10.554   8.937  12.322
96970SOL    HW292808  10.628   8.996  12.441
96971SOL     OW92809   3.792  13.632   1.536
96971SOL    HW192810   3.813  13.675   1.619
96971SOL    HW292811   3.848  13.676   1.471
96972SOL     OW92812   4.529  10.781   8.516
96972SOL    HW192813   4.609  10.833   8.523
96972SOL    HW292814   4.482  10.818   8.441
96973SOL     OW92815   5.579   8.866   2.798
96973SOL    HW192816   5.487   8.890   2.805
96973SOL    HW292817   5.584   8.809   2.721
96974SOL     OW92818   8.726   7.298   7.610
96974SOL    HW192819   8.817   7.275   7.589
96974SOL    HW292820   8.721   7.291   7.705
96975SOL     OW92821   7.365   3.097   8.880
96975SOL    HW192822   7.396   3.063   8.964
96975SOL    HW292823   7.389   3.030   8.816
96976SOL     OW92824  13.952   5.848   4.812
96976SOL    HW192825  13.881   5.909   4.791
96976SOL    HW292826  13.939   5.827   4.905
96977SOL     OW92827  12.988  12.387   3.182
96977SOL    HW192828  12.989  12.427   3.095
96977SOL    HW292829  12.957  12.298   3.166
96978SOL     OW92830   4.177   8.467  10.601
96978SOL    HW192831   4.232   8.392  10.578
96978SOL    HW292832   4.185   8.475  10.696
96979SOL     OW92833   6.133  12.857   8.781
96979SOL    HW192834   6.062  12.795   8.763
96979SOL    HW292835   6.091  12.943   8.778
96980SOL     OW92836  12.781   8.654   0.536
96980SOL    HW192837  12.701   8.706   0.538
96980SOL    HW292838  12.851   8.718   0.518
96981SOL     OW92839   9.381   2.533   0.597
96981SOL    HW192840   9.447   2.464   0.601
96981SOL    HW292841   9.372   2.553   0.504
96982SOL     OW92842   3.714   2.826  10.357
96982SOL    HW192843   3.805   2.841  10.384
96982SOL    HW292844   3.719   2.811  10.263
96983SOL     OW92845  11.477   8.235   8.501
96983SOL    HW192846  11.403   8.199   8.550
96983SOL    HW292847  11.504   8.164   8.443
96984SOL     OW92848   6.010  10.530   1.760
96984SOL    HW192849   5.936  10.589   1.748
96984SOL    HW292850   6.010  10.509   1.854
96985SOL     OW92851   7.407   7.233  12.140
96985SOL    HW192852   7.433   7.283  12.218
96985SOL    HW292853   7.392   7.300  12.073
96986SOL     OW92854   4.584   0.534   2.140
96986SOL    HW192855   4.513   0.476   2.168
96986SOL    HW292856   4.656   0.474   2.118
96987SOL     OW92857   2.276   4.910   7.629
96987SOL    HW192858   2.216   4.846   7.590
96987SOL    HW292859   2.341   4.857   7.675
96988SOL     OW92860   4.195   7.348   4.759
96988SOL    HW192861   4.206   7.442   4.747
96988SOL    HW292862   4.134   7.339   4.832
96989SOL     OW92863   9.030  12.743   4.386
96989SOL    HW192864   9.063  12.668   4.337
96989SOL    HW292865   9.107  12.777   4.432
96990SOL     OW92866  13.260   2.222   8.753
96990SOL    HW192867  13.296   2.212   8.841
96990SOL    HW292868  13.209   2.303   8.758
96991SOL     OW92869  11.319   3.812   8.584
96991SOL    HW192870  11.295   3.725   8.552
96991SOL    HW292871  11.236   3.860   8.588
96992SOL     OW92872   7.915   6.405   5.622
96992SOL    HW192873   7.823   6.402   5.597
96992SOL    HW292874   7.923   6.340   5.692
96993SOL     OW92875   8.337  11.598  12.283
96993SOL    HW192876   8.343  11.537  12.209
96993SOL    HW292877   8.417  11.650  12.278
96994SOL     OW92878  12.329   8.603  12.146
96994SOL    HW192879  12.299   8.693  12.133
96994SOL    HW292880  12.276   8.571  12.219
96995SOL     OW92881   4.031   5.932   5.173
96995SOL    HW192882   3.969   5.975   5.232
96995SOL    HW292883   4.082   5.875   5.231
96996SOL     OW92884  14.867   8.610   9.365
96996SOL    HW192885   0.073   8.664   9.344
96996SOL    HW292886  14.808   8.618   9.290
96997SOL     OW92887   0.542   4.008  11.870
96997SOL    HW192888   0.493   3.946  11.924
96997SOL    HW292889   0.525   4.093  11.910
96998SOL     OW92890  11.921   0.807   3.316
96998SOL    HW192891  11.839   0.855   3.317
96998SOL    HW292892  11.895   0.715   3.318
96999SOL     OW92893  12.704  11.914  10.078
96999SOL    HW192894  12.637  11.903  10.011
96999SOL    HW292895  12.770  11.848  10.058
97000SOL     OW92896  10.799   8.674   8.444
97000SOL    HW192897  10.807   8.625   8.526
97000SOL    HW292898  10.755   8.613   8.384
97001SOL     OW92899   9.972   8.085  11.932
97001SOL    HW192900  10.011   7.999  11.920
97001SOL    HW292901  10.015   8.119  12.011
97002SOL     OW92902   7.862   9.579  10.568
97002SOL    HW192903   7.893   9.584  10.477
97002SOL    HW292904   7.825   9.491  10.576
97003SOL     OW92905  13.986   4.601   7.895
97003SOL    HW192906  14.031   4.573   7.974
97003SOL    HW292907  13.895   4.575   7.909
97004SOL     OW92908   8.012   4.670   7.910
97004SOL    HW192909   8.020   4.754   7.865
97004SOL    HW292910   8.101   4.651   7.942
97005SOL     OW92911   3.677   1.182  13.324
97005SOL    HW192912   3.662   1.100  13.276
97005SOL    HW292913   3.630   1.171  13.406
97006SOL     OW92914   3.675   8.516   6.635
97006SOL    HW192915   3.707   8.486   6.721
97006SOL    HW292916   3.590   8.555   6.654
97007SOL     OW92917  12.843   8.397   4.577
97007SOL    HW192918  12.926   8.380   4.531
97007SOL    HW292919  12.857   8.360   4.664
97008SOL     OW92920   0.401   9.397   8.865
97008SOL    HW192921   0.439   9.334   8.927
97008SOL    HW292922   0.461   9.472   8.868
97009SOL     OW92923   7.320  10.640   1.288
97009SOL    HW192924   7.306  10.690   1.369
97009SOL    HW292925   7.332  10.707   1.221
97010SOL     OW92926   9.738   3.663   6.825
97010SOL    HW192927   9.777   3.577   6.839
97010SOL    HW292928   9.666   3.647   6.764
97011SOL     OW92929   0.536  12.960  12.200
97011SOL    HW192930   0.609  12.902  12.178
97011SOL    HW292931   0.550  12.984  12.292
97012SOL     OW92932   6.059   2.235   1.244
97012SOL    HW192933   6.104   2.150   1.244
97012SOL    HW292934   5.966   2.213   1.248
97013SOL     OW92935   0.627  11.348   7.405
97013SOL    HW192936   0.545  11.332   7.358
97013SOL    HW292937   0.667  11.421   7.358
97014SOL     OW92938   9.270   7.079  14.758
97014SOL    HW192939   9.242   7.095  14.668
97014SOL    HW292940   9.225   6.998  14.783
97015SOL     OW92941   0.452  12.683   9.231
97015SOL    HW192942   0.462  12.597   9.189
97015SOL    HW292943   0.366  12.679   9.272
97016SOL     OW92944   2.773  14.657  12.302
97016SOL    HW192945   2.816  14.643  12.386
97016SOL    HW292946   2.701  14.716  12.321
97017SOL     OW92947  13.327  12.160   5.836
97017SOL    HW192948  13.244  12.190   5.801
97017SOL    HW292949  13.387  12.163   5.762
97018SOL     OW92950   9.885   9.388  10.126
97018SOL    HW192951   9.944   9.428  10.190
97018SOL    HW292952   9.923   9.302  10.109
97019SOL     OW92953  12.380   3.724   1.964
97019SOL    HW192954  12.447   3.786   1.994
97019SOL    HW292955  12.357   3.673   2.042
97020SOL     OW92956   5.856   1.093   1.971
97020SOL    HW192957   5.859   1.186   1.996
97020SOL    HW292958   5.876   1.092   1.878
97021SOL     OW92959   7.349  13.471   3.768
97021SOL    HW192960   7.329  13.417   3.691
97021SOL    HW292961   7.290  13.546   3.760
97022SOL     OW92962   5.559  10.353  12.489
97022SOL    HW192963   5.576  10.320  12.401
97022SOL    HW292964   5.548  10.275  12.542
97023SOL     OW92965   1.662   4.230   1.596
97023SOL    HW192966   1.571   4.246   1.573
97023SOL    HW292967   1.710   4.250   1.516
97024SOL     OW92968   8.819   8.912   6.571
97024SOL    HW192969   8.854   8.998   6.548
97024SOL    HW292970   8.726   8.927   6.587
97025SOL     OW92971   1.721  10.595  12.117
97025SOL    HW192972   1.805  10.577  12.158
97025SOL    HW292973   1.666  10.521  12.141
97026SOL     OW92974   8.012   3.315   3.789
97026SOL    HW192975   7.957   3.300   3.866
97026SOL    HW292976   7.973   3.391   3.746
97027SOL     OW92977   1.616   2.793  11.556
97027SOL    HW192978   1.537   2.846  11.571
97027SOL    HW292979   1.670   2.847  11.498
97028SOL     OW92980  11.221   8.263   9.958
97028SOL    HW192981  11.285   8.225   9.898
97028SOL    HW292982  11.175   8.329   9.905
97029SOL     OW92983   8.892  12.539   3.370
97029SOL    HW192984   8.849  12.614   3.330
97029SOL    HW292985   8.827  12.503   3.430
97030SOL     OW92986   2.793   7.233  12.972
97030SOL    HW192987   2.821   7.155  13.019
97030SOL    HW292988   2.830   7.306  13.022
97031SOL     OW92989  10.007  14.220   4.210
97031SOL    HW192990  10.058  14.216   4.129
97031SOL    HW292991  10.070  14.249   4.276
97032SOL     OW92992   4.026   9.592   9.020
97032SOL    HW192993   4.036   9.595   9.115
97032SOL    HW292994   4.115   9.585   8.986
97033SOL     OW92995   5.910  14.573   5.084
97033SOL    HW192996   5.960  14.570   5.002
97033SOL    HW292997   5.977  14.569   5.153
97034SOL     OW92998   6.704   4.630  12.651
97034SOL    HW192999   6.715   4.596  12.739
97034SOL    HW293000   6.734   4.721  12.656
97035SOL     OW93001   9.994  11.009  10.732
97035SOL    HW193002   9.953  10.976  10.812
97035SOL    HW293003   9.962  10.950  10.663
97036SOL     OW93004   9.461   0.607   2.193
97036SOL    HW193005   9.378   0.626   2.236
97036SOL    HW293006   9.450   0.519   2.157
97037SOL     OW93007   5.631  11.388  14.253
97037SOL    HW193008   5.709  11.421  14.206
97037SOL    HW293009   5.663  11.313  14.302
97038SOL     OW93010   6.231   5.961   0.595
97038SOL    HW193011   6.298   6.018   0.636
97038SOL    HW293012   6.275   5.925   0.518
97039SOL     OW93013  13.896   3.949   3.090
97039SOL    HW193014  13.821   4.008   3.077
97039SOL    HW293015  13.857   3.862   3.095
97040SOL     OW93016   2.998   3.941   9.595
97040SOL    HW193017   2.928   3.923   9.658
97040SOL    HW293018   3.076   3.902   9.635
97041SOL     OW93019   4.729  14.444   4.316
97041SOL    HW193020   4.664  14.465   4.249
97041SOL    HW293021   4.690  14.370   4.364
97042SOL     OW93022   2.739   1.407   9.366
97042SOL    HW193023   2.667   1.465   9.341
97042SOL    HW293024   2.816   1.446   9.324
97043SOL     OW93025   7.131   3.763  12.071
97043SOL    HW193026   7.146   3.712  12.150
97043SOL    HW293027   7.130   3.854  12.102
97044SOL     OW93028   3.622   2.325   3.206
97044SOL    HW193029   3.626   2.333   3.111
97044SOL    HW293030   3.568   2.247   3.221
97045SOL     OW93031  13.485   9.868   6.158
97045SOL    HW193032  13.491   9.944   6.101
97045SOL    HW293033  13.556   9.811   6.130
97046SOL     OW93034   7.962   9.395   2.158
97046SOL    HW193035   8.044   9.427   2.194
97046SOL    HW293036   7.908   9.474   2.148
97047SOL     OW93037   3.001   1.637   6.479
97047SOL    HW193038   2.962   1.613   6.563
97047SOL    HW293039   3.068   1.701   6.501
97048SOL     OW93040  14.838  11.525  11.893
97048SOL    HW193041  14.766  11.478  11.935
97048SOL    HW293042   0.046  11.501  11.944
97049SOL     OW93043  14.069   4.642  12.184
97049SOL    HW193044  13.997   4.579  12.195
97049SOL    HW293045  14.091   4.635  12.091
97050SOL     OW93046   0.228   7.445   7.759
97050SOL    HW193047   0.298   7.410   7.704
97050SOL    HW293048   0.265   7.525   7.797
97051SOL     OW93049  14.024   7.565   1.178
97051SOL    HW193050  14.022   7.579   1.273
97051SOL    HW293051  13.968   7.634   1.143
97052SOL     OW93052   4.406  13.521   1.160
97052SOL    HW193053   4.368  13.608   1.154
97052SOL    HW293054   4.461  13.514   1.081
97053SOL     OW93055   3.217   7.116   9.307
97053SOL    HW193056   3.231   7.022   9.297
97053SOL    HW293057   3.245   7.153   9.223
97054SOL     OW93058   3.179  12.587   1.901
97054SOL    HW193059   3.270  12.606   1.876
97054SOL    HW293060   3.165  12.637   1.981
97055SOL     OW93061   5.948   4.416   5.890
97055SOL    HW193062   5.894   4.420   5.969
97055SOL    HW293063   5.932   4.329   5.854
97056SOL     OW93064  11.242  13.968  11.933
97056SOL    HW193065  11.267  14.058  11.915
97056SOL    HW293066  11.175  13.975  12.001
97057SOL     OW93067   0.718   3.461  14.339
97057SOL    HW193068   0.682   3.425  14.420
97057SOL    HW293069   0.813   3.462  14.353
97058SOL     OW93070  12.024  13.756   4.378
97058SOL    HW193071  12.017  13.826   4.443
97058SOL    HW293072  12.095  13.700   4.411
97059SOL     OW93073   6.936   5.866   6.687
97059SOL    HW193074   6.999   5.795   6.699
97059SOL    HW293075   6.882   5.864   6.766
97060SOL     OW93076  11.523  14.666  12.279
97060SOL    HW193077  11.526  14.731  12.349
97060SOL    HW293078  11.602  14.613  12.292
97061SOL     OW93079   5.712   4.737   4.043
97061SOL    HW193080   5.733   4.658   3.993
97061SOL    HW293081   5.637   4.711   4.098
97062SOL     OW93082  14.189  12.971   6.181
97062SOL    HW193083  14.273  12.943   6.146
97062SOL    HW293084  14.178  13.061   6.149
97063SOL     OW93085   7.668   3.873  10.953
97063SOL    HW193086   7.610   3.826  11.012
97063SOL    HW293087   7.610   3.930  10.902
97064SOL     OW93088   2.416  12.660   8.221
97064SOL    HW193089   2.437  12.753   8.215
97064SOL    HW293090   2.326  12.653   8.191
97065SOL     OW93091  10.876   2.723   0.373
97065SOL    HW193092  10.935   2.755   0.306
97065SOL    HW293093  10.797   2.777   0.363
97066SOL     OW93094  12.525  12.852  10.460
97066SOL    HW193095  12.602  12.908  10.463
97066SOL    HW293096  12.458  12.905  10.416
97067SOL     OW93097   5.717   5.778   4.486
97067SOL    HW193098   5.642   5.768   4.427
97067SOL    HW293099   5.775   5.839   4.441
97068SOL     OW93100   0.909   5.250  10.357
97068SOL    HW193101   0.946   5.293  10.280
97068SOL    HW293102   0.839   5.195  10.323
97069SOL     OW93103  10.165  12.725   3.080
97069SOL    HW193104  10.075  12.704   3.053
97069SOL    HW293105  10.154  12.774   3.161
97070SOL     OW93106  13.231   6.878   9.152
97070SOL    HW193107  13.159   6.818   9.173
97070SOL    HW293108  13.252   6.860   9.061
97071SOL     OW93109   5.409  12.789  11.375
97071SOL    HW193110   5.343  12.737  11.328
97071SOL    HW293111   5.425  12.740  11.456
97072SOL     OW93112   9.663  11.549  10.922
97072SOL    HW193113   9.709  11.582  10.845
97072SOL    HW293114   9.731  11.538  10.988
97073SOL     OW93115  11.285   2.825   6.738
97073SOL    HW193116  11.200   2.855   6.772
97073SOL    HW293117  11.263   2.759   6.673
97074SOL     OW93118   2.456  14.852  14.114
97074SOL    HW193119   2.472  14.758  14.113
97074SOL    HW293120   2.510   0.017  14.043
97075SOL     OW93121   5.946   7.537   6.936
97075SOL    HW193122   5.895   7.456   6.944
97075SOL    HW293123   6.034   7.512   6.963
97076SOL     OW93124  14.842   3.812   7.380
97076SOL    HW193125  14.849   3.844   7.470
97076SOL    HW293126  14.856   3.717   7.387
97077SOL     OW93127   8.551  12.090   7.795
97077SOL    HW193128   8.520  12.023   7.856
97077SOL    HW293129   8.613  12.045   7.738
97078SOL     OW93130   4.233   3.398   9.171
97078SOL    HW193131   4.174   3.460   9.214
97078SOL    HW293132   4.177   3.323   9.150
97079SOL     OW93133  13.224   7.278   0.533
97079SOL    HW193134  13.217   7.183   0.538
97079SOL    HW293135  13.195   7.310   0.619
97080SOL     OW93136  11.410  14.477  12.120
97080SOL    HW193137  11.436  14.393  12.159
97080SOL    HW293138  11.462  14.542  12.167
97081SOL     OW93139  10.991   6.864   9.154
97081SOL    HW193140  11.022   6.804   9.223
97081SOL    HW293141  10.912   6.823   9.120
97082SOL     OW93142  14.385   5.336   9.017
97082SOL    HW193143  14.297   5.358   9.049
97082SOL    HW293144  14.406   5.253   9.060
97083SOL     OW93145   0.306   9.782   4.128
97083SOL    HW193146   0.261   9.865   4.144
97083SOL    HW293147   0.252   9.717   4.174
97084SOL     OW93148  13.564   2.749  13.972
97084SOL    HW193149  13.501   2.708  14.032
97084SOL    HW293150  13.644   2.757  14.023
97085SOL     OW93151  10.310   2.373  11.815
97085SOL    HW193152  10.258   2.331  11.883
97085SOL    HW293153  10.299   2.467  11.830
97086SOL     OW93154  10.724  13.374   1.960
97086SOL    HW193155  10.637  13.336   1.976
97086SOL    HW293156  10.706  13.461   1.925
97087SOL     OW93157   4.424   4.913   0.442
97087SOL    HW193158   4.394   4.990   0.394
97087SOL    HW293159   4.377   4.840   0.403
97088SOL     OW93160   4.508   0.991   8.247
97088SOL    HW193161   4.418   1.009   8.220
97088SOL    HW293162   4.557   1.069   8.223
97089SOL     OW93163   8.953  12.300   1.995
97089SOL    HW193164   8.914  12.369   1.943
97089SOL    HW293165   8.998  12.345   2.067
97090SOL     OW93166   4.774  11.248   7.277
97090SOL    HW193167   4.732  11.203   7.350
97090SOL    HW293168   4.865  11.261   7.306
97091SOL     OW93169  14.091   8.706  11.424
97091SOL    HW193170  14.119   8.650  11.497
97091SOL    HW293171  14.164   8.767  11.412
97092SOL     OW93172   2.734   6.726  13.155
97092SOL    HW193173   2.645   6.750  13.178
97092SOL    HW293174   2.771   6.688  13.235
97093SOL     OW93175  13.932   7.983   2.680
97093SOL    HW193176  13.900   7.991   2.590
97093SOL    HW293177  13.855   7.954   2.729
97094SOL     OW93178   9.158   9.228  12.133
97094SOL    HW193179   9.228   9.277  12.089
97094SOL    HW293180   9.092   9.294  12.154
97095SOL     OW93181   7.588   2.643   9.128
97095SOL    HW193182   7.570   2.596   9.047
97095SOL    HW293183   7.628   2.726   9.099
97096SOL     OW93184   9.732  12.530  11.235
97096SOL    HW193185   9.659  12.579  11.273
97096SOL    HW293186   9.780  12.595  11.183
97097SOL     OW93187  11.331  11.910   3.765
97097SOL    HW193188  11.314  11.903   3.859
97097SOL    HW293189  11.426  11.925   3.759
97098SOL     OW93190  12.123  11.938   2.775
97098SOL    HW193191  12.172  11.869   2.818
97098SOL    HW293192  12.032  11.923   2.800
97099SOL     OW93193  12.909  11.069   4.262
97099SOL    HW193194  12.991  11.024   4.244
97099SOL    HW293195  12.934  11.146   4.313
97100SOL     OW93196  13.169   5.274   7.311
97100SOL    HW193197  13.122   5.357   7.316
97100SOL    HW293198  13.245   5.286   7.368
97101SOL     OW93199  13.366  14.421  12.757
97101SOL    HW193200  13.312  14.345  12.730
97101SOL    HW293201  13.454  14.400  12.726
97102SOL     OW93202  12.718   1.899   3.080
97102SOL    HW193203  12.637   1.950   3.089
97102SOL    HW293204  12.758   1.902   3.167
97103SOL     OW93205  11.939  10.038   3.689
97103SOL    HW193206  11.982   9.962   3.729
97103SOL    HW293207  11.935  10.017   3.596
97104SOL     OW93208   0.027  13.931  10.346
97104SOL    HW193209   0.048  13.840  10.327
97104SOL    HW293210   0.110  13.970  10.372
97105SOL     OW93211  11.360   4.788  10.254
97105SOL    HW193212  11.266   4.773  10.267
97105SOL    HW293213  11.393   4.811  10.341
97106SOL     OW93214   4.103  13.006  14.317
97106SOL    HW193215   4.117  13.078  14.378
97106SOL    HW293216   4.092  13.048  14.231
97107SOL     OW93217   3.197   6.173   3.237
97107SOL    HW193218   3.256   6.154   3.164
97107SOL    HW293219   3.117   6.125   3.216
97108SOL     OW93220   0.084   9.600   8.493
97108SOL    HW193221   0.009   9.581   8.437
97108SOL    HW293222   0.149   9.639   8.434
97109SOL     OW93223  10.193   2.803  11.719
97109SOL    HW193224  10.211   2.837  11.807
97109SOL    HW293225  10.117   2.852  11.690
97110SOL     OW93226   9.611   4.797  13.736
97110SOL    HW193227   9.701   4.801  13.770
97110SOL    HW293228   9.556   4.820  13.810
97111SOL     OW93229   3.709  14.529   2.659
97111SOL    HW193230   3.692  14.594   2.727
97111SOL    HW293231   3.644  14.460   2.676
97112SOL     OW93232  12.875   9.571   0.914
97112SOL    HW193233  12.966   9.576   0.885
97112SOL    HW293234  12.832   9.514   0.850
97113SOL     OW93235   6.141  10.192   2.355
97113SOL    HW193236   6.069  10.168   2.413
97113SOL    HW293237   6.125  10.142   2.275
97114SOL     OW93238   0.850  13.827   9.016
97114SOL    HW193239   0.867  13.760   8.950
97114SOL    HW293240   0.933  13.873   9.026
97115SOL     OW93241  12.660  13.888  12.731
97115SOL    HW193242  12.724  13.958  12.746
97115SOL    HW293243  12.613  13.880  12.814
97116SOL     OW93244  14.199   7.644   4.408
97116SOL    HW193245  14.233   7.711   4.467
97116SOL    HW293246  14.168   7.693   4.332
97117SOL     OW93247   0.747   9.413   1.143
97117SOL    HW193248   0.755   9.474   1.216
97117SOL    HW293249   0.836   9.381   1.129
97118SOL     OW93250  13.124  10.256   3.182
97118SOL    HW193251  13.161  10.260   3.094
97118SOL    HW293252  13.095  10.346   3.200
97119SOL     OW93253  12.225   5.545  10.186
97119SOL    HW193254  12.207   5.455  10.213
97119SOL    HW293255  12.312   5.563  10.222
97120SOL     OW93256   7.026  12.171   3.710
97120SOL    HW193257   6.978  12.137   3.786
97120SOL    HW293258   7.115  12.139   3.723
97121SOL     OW93259  10.272   6.116   4.829
97121SOL    HW193260  10.362   6.116   4.861
97121SOL    HW293261  10.264   6.198   4.781
97122SOL     OW93262   7.683   5.463  14.020
97122SOL    HW193263   7.667   5.525  14.091
97122SOL    HW293264   7.728   5.514  13.953
97123SOL     OW93265   3.928  12.212  14.360
97123SOL    HW193266   3.991  12.228  14.290
97123SOL    HW293267   3.860  12.158  14.320
97124SOL     OW93268  13.436   5.486   0.366
97124SOL    HW193269  13.500   5.555   0.352
97124SOL    HW293270  13.351   5.528   0.351
97125SOL     OW93271   9.679   3.997   6.804
97125SOL    HW193272   9.632   3.959   6.879
97125SOL    HW293273   9.706   4.084   6.835
97126SOL     OW93274  12.498   9.342   5.897
97126SOL    HW193275  12.582   9.314   5.862
97126SOL    HW293276  12.436   9.276   5.867
97127SOL     OW93277   7.188   3.734  13.366
97127SOL    HW193278   7.156   3.824  13.370
97127SOL    HW293279   7.275   3.742  13.325
97128SOL     OW93280   7.423   1.307   8.218
97128SOL    HW193281   7.362   1.291   8.290
97128SOL    HW293282   7.374   1.285   8.139
97129SOL     OW93283   9.773  13.765   5.014
97129SOL    HW193284   9.868  13.774   5.009
97129SOL    HW293285   9.758  13.712   5.092
97130SOL     OW93286  11.145   9.925   0.298
97130SOL    HW193287  11.174  10.010   0.331
97130SOL    HW293288  11.165   9.926   0.205
97131SOL     OW93289   3.872  12.912   2.025
97131SOL    HW193290   3.966  12.909   2.045
97131SOL    HW293291   3.848  13.003   2.039
97132SOL     OW93292   1.139  12.845  14.400
97132SOL    HW193293   1.072  12.889  14.453
97132SOL    HW293294   1.148  12.759  14.440
97133SOL     OW93295  14.732   8.046   3.592
97133SOL    HW193296  14.647   8.083   3.571
97133SOL    HW293297  14.761   8.095   3.669
97134SOL     OW93298   0.617   5.063   1.521
97134SOL    HW193299   0.665   5.001   1.575
97134SOL    HW293300   0.542   5.014   1.488
97135SOL     OW93301   5.885  13.341   0.861
97135SOL    HW193302   5.889  13.435   0.882
97135SOL    HW293303   5.955  13.328   0.797
97136SOL     OW93304   2.825  12.284  12.248
97136SOL    HW193305   2.816  12.211  12.309
97136SOL    HW293306   2.901  12.261  12.194
97137SOL     OW93307  12.650   6.551   7.442
97137SOL    HW193308  12.741   6.560   7.415
97137SOL    HW293309  12.655   6.525   7.534
97138SOL     OW93310  11.804  10.230   1.833
97138SOL    HW193311  11.815  10.138   1.857
97138SOL    HW293312  11.844  10.278   1.904
97139SOL     OW93313   8.586  12.712   0.039
97139SOL    HW193314   8.550  12.708  14.820
97139SOL    HW293315   8.536  12.782   0.081
97140SOL     OW93316   0.267   2.278   3.459
97140SOL    HW193317   0.188   2.312   3.501
97140SOL    HW293318   0.330   2.350   3.463
97141SOL     OW93319  11.662  13.198  11.059
97141SOL    HW193320  11.683  13.218  11.150
97141SOL    HW293321  11.569  13.174  11.061
97142SOL     OW93322  10.864   1.356   6.827
97142SOL    HW193323  10.901   1.415   6.762
97142SOL    HW293324  10.770   1.354   6.807
97143SOL     OW93325   1.389   1.011   5.142
97143SOL    HW193326   1.415   0.926   5.107
97143SOL    HW293327   1.376   1.066   5.064
97144SOL     OW93328   8.749   7.645  14.742
97144SOL    HW193329   8.686   7.581  14.708
97144SOL    HW293330   8.741   7.638  14.837
97145SOL     OW93331   3.748   4.491   9.145
97145SOL    HW193332   3.735   4.477   9.239
97145SOL    HW293333   3.739   4.586   9.134
97146SOL     OW93334   4.634   8.462   0.976
97146SOL    HW193335   4.633   8.375   0.936
97146SOL    HW293336   4.641   8.445   1.070
97147SOL     OW93337   9.009   9.518  10.716
97147SOL    HW193338   9.085   9.462  10.699
97147SOL    HW293339   9.032   9.602  10.677
97148SOL     OW93340   9.532   0.941  10.918
97148SOL    HW193341   9.480   1.021  10.925
97148SOL    HW293342   9.481   0.875  10.966
97149SOL     OW93343   2.203   3.674   9.169
97149SOL    HW193344   2.200   3.593   9.221
97149SOL    HW293345   2.234   3.646   9.083
97150SOL     OW93346   2.976   1.477   0.736
97150SOL    HW193347   2.903   1.458   0.677
97150SOL    HW293348   2.998   1.568   0.718
97151SOL     OW93349  12.673   2.164   2.728
97151SOL    HW193350  12.734   2.116   2.785
97151SOL    HW293351  12.600   2.187   2.785
97152SOL     OW93352   4.065  14.495  13.769
97152SOL    HW193353   4.076  14.403  13.793
97152SOL    HW293354   4.012  14.532  13.840
97153SOL     OW93355   7.757   3.357  13.558
97153SOL    HW193356   7.783   3.287  13.497
97153SOL    HW293357   7.702   3.314  13.623
97154SOL     OW93358  11.311   9.747  12.982
97154SOL    HW193359  11.310   9.843  12.983
97154SOL    HW293360  11.346   9.723  13.068
97155SOL     OW93361   4.994   4.163   9.903
97155SOL    HW193362   4.987   4.186   9.810
97155SOL    HW293363   5.085   4.183   9.925
97156SOL     OW93364   9.801  14.822   4.728
97156SOL    HW193365   9.790  14.728   4.737
97156SOL    HW293366   9.834  14.851   4.813
97157SOL     OW93367  12.773  10.839   4.001
97157SOL    HW193368  12.797  10.871   4.087
97157SOL    HW293369  12.791  10.912   3.942
97158SOL     OW93370   8.192   4.216  12.065
97158SOL    HW193371   8.209   4.190  11.975
97158SOL    HW293372   8.097   4.215  12.073
97159SOL     OW93373   4.672  12.335   3.535
97159SOL    HW193374   4.611  12.266   3.560
97159SOL    HW293375   4.756  12.307   3.571
97160SOL     OW93376   5.084   7.012   2.813
97160SOL    HW193377   5.006   7.055   2.778
97160SOL    HW293378   5.157   7.065   2.781
97161SOL     OW93379   8.869   6.714   1.430
97161SOL    HW193380   8.872   6.659   1.508
97161SOL    HW293381   8.883   6.803   1.462
97162SOL     OW93382  10.178   6.188   5.936
97162SOL    HW193383  10.271   6.183   5.957
97162SOL    HW293384  10.134   6.139   6.005
97163SOL     OW93385   9.590   6.364  12.550
97163SOL    HW193386   9.528   6.420  12.503
97163SOL    HW293387   9.568   6.275  12.522
97164SOL     OW93388   4.608  13.174   4.429
97164SOL    HW193389   4.529  13.152   4.477
97164SOL    HW293390   4.675  13.184   4.496
97165SOL     OW93391   5.392  11.781  11.395
97165SOL    HW193392   5.342  11.700  11.402
97165SOL    HW293393   5.465  11.760  11.336
97166SOL     OW93394   6.178   5.713  11.379
97166SOL    HW193395   6.260   5.694  11.424
97166SOL    HW293396   6.158   5.804  11.403
97167SOL     OW93397  13.611  11.167  14.349
97167SOL    HW193398  13.525  11.140  14.381
97167SOL    HW293399  13.632  11.105  14.279
97168SOL     OW93400   2.485   1.607  14.383
97168SOL    HW193401   2.560   1.563  14.343
97168SOL    HW293402   2.497   1.700  14.362
97169SOL     OW93403   4.807  12.158   0.291
97169SOL    HW193404   4.839  12.166   0.201
97169SOL    HW293405   4.758  12.238   0.307
97170SOL     OW93406   8.424   7.334   4.821
97170SOL    HW193407   8.397   7.326   4.730
97170SOL    HW293408   8.515   7.362   4.817
97171SOL     OW93409   4.721  12.329   3.908
97171SOL    HW193410   4.628  12.339   3.887
97171SOL    HW293411   4.737  12.392   3.978
97172SOL     OW93412   4.124   5.653  12.885
97172SOL    HW193413   4.040   5.644  12.931
97172SOL    HW293414   4.177   5.707  12.943
97173SOL     OW93415  10.583  10.137  12.763
97173SOL    HW193416  10.513  10.095  12.813
97173SOL    HW293417  10.574  10.230  12.782
97174SOL     OW93418   5.560   6.120  11.274
97174SOL    HW193419   5.626   6.065  11.231
97174SOL    HW293420   5.494   6.134  11.206
97175SOL     OW93421   4.307   6.193  11.344
97175SOL    HW193422   4.373   6.251  11.382
97175SOL    HW293423   4.284   6.133  11.415
97176SOL     OW93424   4.340  12.102  13.854
97176SOL    HW193425   4.321  12.104  13.948
97176SOL    HW293426   4.432  12.075  13.849
97177SOL     OW93427   9.695  11.295   7.371
97177SOL    HW193428   9.719  11.323   7.283
97177SOL    HW293429   9.745  11.215   7.386
97178SOL     OW93430   4.821  14.429   7.697
97178SOL    HW193431   4.826  14.390   7.785
97178SOL    HW293432   4.835  14.355   7.638
97179SOL     OW93433  13.527  13.096   4.088
97179SOL    HW193434  13.582  13.037   4.037
97179SOL    HW293435  13.515  13.172   4.032
97180SOL     OW93436   8.612   3.298   0.769
97180SOL    HW193437   8.647   3.332   0.687
97180SOL    HW293438   8.606   3.203   0.756
97181SOL     OW93439   0.530   4.295   6.167
97181SOL    HW193440   0.476   4.216   6.164
97181SOL    HW293441   0.593   4.283   6.096
97182SOL     OW93442   4.521   5.522  12.423
97182SOL    HW193443   4.542   5.466  12.349
97182SOL    HW293444   4.512   5.462  12.497
97183SOL     OW93445  12.290   2.738   8.356
97183SOL    HW193446  12.287   2.799   8.430
97183SOL    HW293447  12.274   2.793   8.279
97184SOL     OW93448   8.729   3.851   4.110
97184SOL    HW193449   8.770   3.924   4.157
97184SOL    HW293450   8.656   3.891   4.064
97185SOL     OW93451   6.402   3.737   5.996
97185SOL    HW193452   6.452   3.792   6.057
97185SOL    HW293453   6.456   3.658   5.986
97186SOL     OW93454  12.586  11.364   6.481
97186SOL    HW193455  12.644  11.422   6.531
97186SOL    HW293456  12.513  11.347   6.540
97187SOL     OW93457   1.046   5.294  10.583
97187SOL    HW193458   1.047   5.206  10.621
97187SOL    HW293459   0.991   5.285  10.505
97188SOL     OW93460   2.976  11.906   2.134
97188SOL    HW193461   3.002  11.900   2.042
97188SOL    HW293462   3.052  11.872   2.182
97189SOL     OW93463   6.097  11.008   1.732
97189SOL    HW193464   6.164  11.076   1.735
97189SOL    HW293465   6.128  10.946   1.667
97190SOL     OW93466   1.442  12.372   4.220
97190SOL    HW193467   1.510  12.377   4.152
97190SOL    HW293468   1.416  12.280   4.220
97191SOL     OW93469  12.270  13.455  11.325
97191SOL    HW193470  12.293  13.449  11.232
97191SOL    HW293471  12.313  13.380  11.366
97192SOL     OW93472  14.552   9.629   2.801
97192SOL    HW193473  14.559   9.723   2.781
97192SOL    HW293474  14.640   9.595   2.787
97193SOL     OW93475   0.155   5.683   7.967
97193SOL    HW193476   0.230   5.627   7.987
97193SOL    HW293477   0.190   5.751   7.910
97194SOL     OW93478   4.384  10.537  12.923
97194SOL    HW193479   4.424  10.619  12.895
97194SOL    HW293480   4.360  10.551  13.014
97195SOL     OW93481   6.433   9.442   1.944
97195SOL    HW193482   6.485   9.480   2.015
97195SOL    HW293483   6.495   9.428   1.873
97196SOL     OW93484   7.884   2.239  14.649
97196SOL    HW193485   7.937   2.160  14.664
97196SOL    HW293486   7.799   2.218  14.687
97197SOL     OW93487  12.222   9.269   7.630
97197SOL    HW193488  12.129   9.247   7.636
97197SOL    HW293489  12.227   9.330   7.556
97198SOL     OW93490   6.731   2.073   2.937
97198SOL    HW193491   6.638   2.059   2.919
97198SOL    HW293492   6.747   2.164   2.915
97199SOL     OW93493   7.302  11.257   5.446
97199SOL    HW193494   7.215  11.220   5.460
97199SOL    HW293495   7.352  11.187   5.404
97200SOL     OW93496   2.434   2.842   1.127
97200SOL    HW193497   2.505   2.799   1.173
97200SOL    HW293498   2.476   2.915   1.080
97201SOL     OW93499   4.649  13.339  11.898
97201SOL    HW193500   4.723  13.363  11.954
97201SOL    HW293501   4.571  13.356  11.951
97202SOL     OW93502   9.099  11.976   1.770
97202SOL    HW193503   9.022  11.986   1.826
97202SOL    HW293504   9.072  11.916   1.701
97203SOL     OW93505  13.589   4.358  11.815
97203SOL    HW193506  13.616   4.424  11.879
97203SOL    HW293507  13.669   4.337  11.767
97204SOL     OW93508   8.230  13.653   3.427
97204SOL    HW193509   8.262  13.566   3.404
97204SOL    HW293510   8.212  13.648   3.521
97205SOL     OW93511   1.167   2.515   4.848
97205SOL    HW193512   1.217   2.557   4.778
97205SOL    HW293513   1.082   2.558   4.846
97206SOL     OW93514   4.289   1.420   9.278
97206SOL    HW193515   4.245   1.425   9.193
97206SOL    HW293516   4.354   1.350   9.267
97207SOL     OW93517   6.106  12.013   4.199
97207SOL    HW193518   6.015  12.030   4.224
97207SOL    HW293519   6.154  12.012   4.282
97208SOL     OW93520   8.555  13.184  14.130
97208SOL    HW193521   8.483  13.231  14.173
97208SOL    HW293522   8.610  13.154  14.203
97209SOL     OW93523   1.220   5.063  14.185
97209SOL    HW193524   1.143   5.102  14.144
97209SOL    HW293525   1.228   5.109  14.269
97210SOL     OW93526  12.124   5.980   5.942
97210SOL    HW193527  12.171   5.898   5.958
97210SOL    HW293528  12.186   6.049   5.969
97211SOL     OW93529  10.634   3.070  12.591
97211SOL    HW193530  10.554   3.092  12.543
97211SOL    HW293531  10.656   3.150  12.638
97212SOL     OW93532   4.938   0.302  12.949
97212SOL    HW193533   4.974   0.222  12.986
97212SOL    HW293534   4.947   0.367  13.019
97213SOL     OW93535   2.432   0.724   9.464
97213SOL    HW193536   2.523   0.720   9.435
97213SOL    HW293537   2.398   0.805   9.426
97214SOL     OW93538   3.806  10.156  10.660
97214SOL    HW193539   3.803  10.096  10.585
97214SOL    HW293540   3.885  10.129  10.708
97215SOL     OW93541   4.939   2.012   1.876
97215SOL    HW193542   4.858   2.007   1.926
97215SOL    HW293543   5.008   1.997   1.941
97216SOL     OW93544  10.946   3.346  10.118
97216SOL    HW193545  10.983   3.302  10.194
97216SOL    HW293546  10.866   3.388  10.150
97217SOL     OW93547  10.575   2.497   7.419
97217SOL    HW193548  10.496   2.536   7.384
97217SOL    HW293549  10.635   2.493   7.345
97218SOL     OW93550   7.638  11.521   2.668
97218SOL    HW193551   7.553  11.513   2.625
97218SOL    HW293552   7.658  11.433   2.699
97219SOL     OW93553   4.343   6.695  12.041
97219SOL    HW193554   4.329   6.754  11.967
97219SOL    HW293555   4.259   6.650  12.052
97220SOL     OW93556  10.611  14.796  13.856
97220SOL    HW193557  10.678  14.736  13.891
97220SOL    HW293558  10.594  14.857  13.928
97221SOL     OW93559   4.129   6.277  12.048
97221SOL    HW193560   4.217   6.301  12.021
97221SOL    HW293561   4.105   6.204  11.991
97222SOL     OW93562   0.705  10.016  11.220
97222SOL    HW193563   0.686   9.933  11.177
97222SOL    HW293564   0.775   9.995  11.282
97223SOL     OW93565   0.666   8.983  13.073
97223SOL    HW193566   0.633   8.994  12.984
97223SOL    HW293567   0.635   8.896  13.100
97224SOL     OW93568   2.793   9.225   3.634
97224SOL    HW193569   2.749   9.141   3.648
97224SOL    HW293570   2.723   9.283   3.603
97225SOL     OW93571   1.391  14.199   7.918
97225SOL    HW193572   1.441  14.250   7.854
97225SOL    HW293573   1.332  14.263   7.959
97226SOL     OW93574   7.748  12.523   0.048
97226SOL    HW193575   7.739  12.605  14.868
97226SOL    HW293576   7.841  12.502   0.044
97227SOL     OW93577  10.281   7.416   0.490
97227SOL    HW193578  10.254   7.335   0.447
97227SOL    HW293579  10.230   7.485   0.447
97228SOL     OW93580  14.495   4.371   2.326
97228SOL    HW193581  14.466   4.412   2.244
97228SOL    HW293582  14.517   4.281   2.300
97229SOL     OW93583   2.669   6.671   6.622
97229SOL    HW193584   2.678   6.688   6.716
97229SOL    HW293585   2.681   6.577   6.613
97230SOL     OW93586   3.857  14.424   4.257
97230SOL    HW193587   3.952  14.431   4.260
97230SOL    HW293588   3.826  14.514   4.267
97231SOL     OW93589   4.821   8.250   4.384
97231SOL    HW193590   4.863   8.247   4.469
97231SOL    HW293591   4.769   8.330   4.385
97232SOL     OW93592   4.539   0.423   1.130
97232SOL    HW193593   4.573   0.506   1.095
97232SOL    HW293594   4.534   0.365   1.054
97233SOL     OW93595   5.471   7.726  11.756
97233SOL    HW193596   5.504   7.670  11.686
97233SOL    HW293597   5.397   7.773  11.717
97234SOL     OW93598  13.216   3.557   4.140
97234SOL    HW193599  13.169   3.511   4.071
97234SOL    HW293600  13.282   3.609   4.093
97235SOL     OW93601   8.280   4.319   0.129
97235SOL    HW193602   8.275   4.402   0.082
97235SOL    HW293603   8.196   4.277   0.113
97236SOL     OW93604   4.834  14.278   5.029
97236SOL    HW193605   4.750  14.254   4.989
97236SOL    HW293606   4.855  14.206   5.087
97237SOL     OW93607   3.771   7.658  11.939
97237SOL    HW193608   3.796   7.722  11.872
97237SOL    HW293609   3.853   7.636  11.982
97238SOL     OW93610   5.199   8.187   5.935
97238SOL    HW193611   5.257   8.111   5.939
97238SOL    HW293612   5.257   8.262   5.949
97239SOL     OW93613   9.959  13.047   4.495
97239SOL    HW193614   9.895  13.116   4.514
97239SOL    HW293615   9.934  12.974   4.552
97240SOL     OW93616   0.432  11.499   8.964
97240SOL    HW193617   0.340  11.528   8.967
97240SOL    HW293618   0.427  11.404   8.973
97241SOL     OW93619  14.010  13.427   0.005
97241SOL    HW193620  14.036  13.511   0.041
97241SOL    HW293621  14.035  13.363   0.072
97242SOL     OW93622   6.603   9.090   4.636
97242SOL    HW193623   6.532   9.060   4.693
97242SOL    HW293624   6.627   9.176   4.672
97243SOL     OW93625   9.384  14.288  12.702
97243SOL    HW193626   9.452  14.324  12.644
97243SOL    HW293627   9.316  14.256  12.642
97244SOL     OW93628   9.756   2.803   2.102
97244SOL    HW193629   9.709   2.821   2.020
97244SOL    HW293630   9.691   2.817   2.171
97245SOL     OW93631   7.118   4.558   4.463
97245SOL    HW193632   7.192   4.499   4.451
97245SOL    HW293633   7.067   4.520   4.535
97246SOL     OW93634   3.737   0.584  14.597
97246SOL    HW193635   3.832   0.574  14.586
97246SOL    HW293636   3.724   0.679  14.605
97247SOL     OW93637   8.219   3.918   0.676
97247SOL    HW193638   8.216   4.005   0.715
97247SOL    HW293639   8.278   3.868   0.733
97248SOL     OW93640  14.575   6.108  10.630
97248SOL    HW193641  14.664   6.082  10.651
97248SOL    HW293642  14.550   6.053  10.556
97249SOL     OW93643   2.609  14.008   8.905
97249SOL    HW193644   2.524  14.012   8.861
97249SOL    HW293645   2.590  14.029   8.997
97250SOL     OW93646  10.428  12.230   9.390
97250SOL    HW193647  10.423  12.192   9.303
97250SOL    HW293648  10.348  12.201   9.434
97251SOL     OW93649  11.759   5.332   6.198
97251SOL    HW193650  11.701   5.396   6.239
97251SOL    HW293651  11.720   5.316   6.112
97252SOL     OW93652   1.681   4.017   8.578
97252SOL    HW193653   1.631   4.098   8.593
97252SOL    HW293654   1.662   3.993   8.488
97253SOL     OW93655  10.188   5.821   2.601
97253SOL    HW193656  10.193   5.899   2.656
97253SOL    HW293657  10.100   5.787   2.616
97254SOL     OW93658   9.708   7.635  14.343
97254SOL    HW193659   9.640   7.573  14.315
97254SOL    HW293660   9.790   7.592  14.321
97255SOL     OW93661   7.721  14.672   6.877
97255SOL    HW193662   7.687  14.641   6.793
97255SOL    HW293663   7.795  14.727   6.854
97256SOL     OW93664   5.903   6.582   0.227
97256SOL    HW193665   5.919   6.542   0.141
97256SOL    HW293666   5.815   6.551   0.251
97257SOL     OW93667   4.068   7.027   3.735
97257SOL    HW193668   4.109   6.967   3.797
97257SOL    HW293669   3.993   6.979   3.700
97258SOL     OW93670   6.459   9.405   7.007
97258SOL    HW193671   6.475   9.346   6.933
97258SOL    HW293672   6.544   9.416   7.048
97259SOL     OW93673   6.250  12.816   2.866
97259SOL    HW193674   6.245  12.759   2.789
97259SOL    HW293675   6.328  12.870   2.851
97260SOL     OW93676  14.128  14.138  12.277
97260SOL    HW193677  14.118  14.111  12.368
97260SOL    HW293678  14.222  14.131  12.260
97261SOL     OW93679   1.843  12.157   7.663
97261SOL    HW193680   1.761  12.110   7.647
97261SOL    HW293681   1.900  12.091   7.702
97262SOL     OW93682   7.947   1.257   7.657
97262SOL    HW193683   7.909   1.175   7.628
97262SOL    HW293684   8.038   1.235   7.679
97263SOL     OW93685   4.524  11.240   9.068
97263SOL    HW193686   4.591  11.227   9.002
97263SOL    HW293687   4.560  11.201   9.148
97264SOL     OW93688  10.552  11.289   4.962
97264SOL    HW193689  10.529  11.332   4.879
97264SOL    HW293690  10.610  11.351   5.006
97265SOL     OW93691   2.043   6.666  10.885
97265SOL    HW193692   2.123   6.624  10.853
97265SOL    HW293693   1.979   6.594  10.890
97266SOL     OW93694   1.134   2.985   4.374
97266SOL    HW193695   1.109   2.893   4.382
97266SOL    HW293696   1.059   3.033   4.409
97267SOL     OW93697   3.191  12.109   0.303
97267SOL    HW193698   3.154  12.192   0.332
97267SOL    HW293699   3.146  12.043   0.356
97268SOL     OW93700  12.003  12.780   5.392
97268SOL    HW193701  12.005  12.709   5.457
97268SOL    HW293702  11.910  12.794   5.375
97269SOL     OW93703   6.005   5.252  10.448
97269SOL    HW193704   5.942   5.275  10.380
97269SOL    HW293705   6.090   5.277  10.411
97270SOL     OW93706   8.631  13.997   1.313
97270SOL    HW193707   8.632  13.965   1.403
97270SOL    HW293708   8.628  14.093   1.322
97271SOL     OW93709   6.129  11.908  12.807
97271SOL    HW193710   6.110  12.001  12.815
97271SOL    HW293711   6.094  11.869  12.888
97272SOL     OW93712   6.238   5.722   6.811
97272SOL    HW193713   6.319   5.757   6.775
97272SOL    HW293714   6.169   5.776   6.773
97273SOL     OW93715  13.892   2.184   2.217
97273SOL    HW193716  13.828   2.116   2.237
97273SOL    HW293717  13.867   2.217   2.131
97274SOL     OW93718   4.198  14.603   9.066
97274SOL    HW193719   4.221  14.643   9.150
97274SOL    HW293720   4.224  14.669   9.001
97275SOL     OW93721   0.614  11.069   6.904
97275SOL    HW193722   0.667  10.989   6.901
97275SOL    HW293723   0.525  11.038   6.884
97276SOL     OW93724   8.371   3.253  11.301
97276SOL    HW193725   8.324   3.312  11.360
97276SOL    HW293726   8.461   3.254  11.333
97277SOL     OW93727  12.588   3.795   3.335
97277SOL    HW193728  12.614   3.833   3.419
97277SOL    HW293729  12.497   3.821   3.324
97278SOL     OW93730  14.397   2.838  13.042
97278SOL    HW193731  14.307   2.847  13.010
97278SOL    HW293732  14.449   2.821  12.963
97279SOL     OW93733   2.710   3.190   4.270
97279SOL    HW193734   2.623   3.164   4.299
97279SOL    HW293735   2.733   3.127   4.202
97280SOL     OW93736   5.835  14.058   7.583
97280SOL    HW193737   5.750  14.090   7.614
97280SOL    HW293738   5.835  13.965   7.607
97281SOL     OW93739   3.108   1.640   5.573
97281SOL    HW193740   3.032   1.590   5.541
97281SOL    HW293741   3.131   1.598   5.656
97282SOL     OW93742   8.508  11.919  13.451
97282SOL    HW193743   8.474  11.938  13.538
97282SOL    HW293744   8.496  12.001  13.402
97283SOL     OW93745  14.048   8.126   7.805
97283SOL    HW193746  13.956   8.151   7.801
97283SOL    HW293747  14.085   8.153   7.721
97284SOL     OW93748   8.605   4.442  10.147
97284SOL    HW193749   8.585   4.530  10.180
97284SOL    HW293750   8.556   4.435  10.065
97285SOL     OW93751   8.997   9.962   8.721
97285SOL    HW193752   8.939   9.958   8.797
97285SOL    HW293753   9.059  10.032   8.741
97286SOL     OW93754   2.361   5.884   2.967
97286SOL    HW193755   2.322   5.969   2.948
97286SOL    HW293756   2.359   5.838   2.883
97287SOL     OW93757   1.196   7.940   4.782
97287SOL    HW193758   1.147   8.019   4.760
97287SOL    HW293759   1.285   7.971   4.800
97288SOL     OW93760  13.099  14.805   4.618
97288SOL    HW193761  13.120  14.789   4.526
97288SOL    HW293762  13.038   0.010   4.615
97289SOL     OW93763   9.556  12.295  10.276
97289SOL    HW193764   9.591  12.252  10.354
97289SOL    HW293765   9.544  12.386  10.303
97290SOL     OW93766   3.925   2.180   0.988
97290SOL    HW193767   3.998   2.174   0.927
97290SOL    HW293768   3.957   2.138   1.068
97291SOL     OW93769   0.043  13.003   3.463
97291SOL    HW193770   0.062  12.984   3.371
97291SOL    HW293771   0.010  13.093   3.462
97292SOL     OW93772   7.074  12.925  11.353
97292SOL    HW193773   7.015  12.858  11.321
97292SOL    HW293774   7.161  12.885  11.349
97293SOL     OW93775  11.562  10.669   9.524
97293SOL    HW193776  11.528  10.667   9.614
97293SOL    HW293777  11.505  10.731   9.479
97294SOL     OW93778  13.060  14.582  13.944
97294SOL    HW193779  13.118  14.519  13.902
97294SOL    HW293780  13.092  14.668  13.916
97295SOL     OW93781   2.528   1.455   6.761
97295SOL    HW193782   2.576   1.531   6.793
97295SOL    HW293783   2.437   1.484   6.755
97296SOL     OW93784   3.643   0.865  12.835
97296SOL    HW193785   3.642   0.850  12.741
97296SOL    HW293786   3.628   0.959  12.846
97297SOL     OW93787   9.052  10.069  12.410
97297SOL    HW193788   9.125  10.067  12.348
97297SOL    HW293789   8.994   9.998  12.382
97298SOL     OW93790   7.844   4.086  10.973
97298SOL    HW193791   7.823   4.114  10.884
97298SOL    HW293792   7.787   4.011  10.988
97299SOL     OW93793   9.553   1.061   0.221
97299SOL    HW193794   9.522   0.971   0.233
97299SOL    HW293795   9.490   1.100   0.161
97300SOL     OW93796   4.465  10.063   5.614
97300SOL    HW193797   4.451  10.072   5.520
97300SOL    HW293798   4.489   9.971   5.626
97301SOL     OW93799   9.346   8.901   1.632
97301SOL    HW193800   9.388   8.867   1.553
97301SOL    HW293801   9.374   8.993   1.636
97302SOL     OW93802   7.407  12.449   8.412
97302SOL    HW193803   7.491  12.403   8.421
97302SOL    HW293804   7.431  12.542   8.414
97303SOL     OW93805   3.515   8.358   9.751
97303SOL    HW193806   3.482   8.429   9.806
97303SOL    HW293807   3.561   8.403   9.679
97304SOL     OW93808   1.025  13.189  10.679
97304SOL    HW193809   1.031  13.099  10.711
97304SOL    HW293810   0.965  13.232  10.740
97305SOL     OW93811  11.362  14.104   1.091
97305SOL    HW193812  11.335  14.026   1.139
97305SOL    HW293813  11.415  14.154   1.152
97306SOL     OW93814   7.734   9.593  13.625
97306SOL    HW193815   7.762   9.642  13.547
97306SOL    HW293816   7.640   9.611  13.632
97307SOL     OW93817   2.668   4.059  13.561
97307SOL    HW193818   2.635   4.146  13.541
97307SOL    HW293819   2.716   4.070  13.643
97308SOL     OW93820   0.962   1.359   2.153
97308SOL    HW193821   1.015   1.297   2.103
97308SOL    HW293822   1.007   1.366   2.237
97309SOL     OW93823   4.777   6.054   4.587
97309SOL    HW193824   4.809   6.042   4.677
97309SOL    HW293825   4.704   6.114   4.596
97310SOL     OW93826  10.294  11.200   3.134
97310SOL    HW193827  10.264  11.290   3.120
97310SOL    HW293828  10.325  11.200   3.224
97311SOL     OW93829   9.001   0.354   1.774
97311SOL    HW193830   8.947   0.340   1.696
97311SOL    HW293831   9.076   0.404   1.743
97312SOL     OW93832   3.561   8.732  13.107
97312SOL    HW193833   3.580   8.700  13.196
97312SOL    HW293834   3.519   8.658  13.063
97313SOL     OW93835   8.319   7.538   6.561
97313SOL    HW193836   8.292   7.477   6.492
97313SOL    HW293837   8.240   7.551   6.614
97314SOL     OW93838  11.378   6.567   3.213
97314SOL    HW193839  11.333   6.511   3.276
97314SOL    HW293840  11.350   6.534   3.128
97315SOL     OW93841  10.591   0.392   6.394
97315SOL    HW193842  10.634   0.477   6.389
97315SOL    HW293843  10.613   0.360   6.482
97316SOL     OW93844   1.038  14.089  13.059
97316SOL    HW193845   1.056  14.059  12.969
97316SOL    HW293846   1.074  14.020  13.115
97317SOL     OW93847  13.151   6.510   2.562
97317SOL    HW193848  13.246   6.498   2.556
97317SOL    HW293849  13.116   6.421   2.558
97318SOL     OW93850   0.318   5.987   5.302
97318SOL    HW193851   0.265   5.936   5.363
97318SOL    HW293852   0.389   5.928   5.277
97319SOL     OW93853   1.695   8.278   5.976
97319SOL    HW193854   1.622   8.226   5.943
97319SOL    HW293855   1.658   8.332   6.046
97320SOL     OW93856   0.422   2.282   5.687
97320SOL    HW193857   0.394   2.192   5.704
97320SOL    HW293858   0.384   2.303   5.601
97321SOL     OW93859   4.408  11.965   5.626
97321SOL    HW193860   4.454  11.887   5.595
97321SOL    HW293861   4.317  11.936   5.636
97322SOL     OW93862   3.137   3.389   2.578
97322SOL    HW193863   3.147   3.314   2.518
97322SOL    HW293864   3.050   3.378   2.616
97323SOL     OW93865   0.741   3.604  12.433
97323SOL    HW193866   0.677   3.540  12.463
97323SOL    HW293867   0.748   3.588  12.339
97324SOL     OW93868   8.597   5.273  13.783
97324SOL    HW193869   8.624   5.184  13.764
97324SOL    HW293870   8.566   5.307  13.699
97325SOL     OW93871   4.377  10.112  10.266
97325SOL    HW193872   4.327  10.179  10.220
97325SOL    HW293873   4.450  10.093  10.208
97326SOL     OW93874  11.272   0.888   1.404
97326SOL    HW193875  11.325   0.966   1.417
97326SOL    HW293876  11.220   0.907   1.327
97327SOL     OW93877   4.315  12.015  11.176
97327SOL    HW193878   4.286  11.925  11.186
97327SOL    HW293879   4.262  12.064  11.238
97328SOL     OW93880   1.104   0.166   9.971
97328SOL    HW193881   1.080   0.183   9.880
97328SOL    HW293882   1.048   0.225  10.022
97329SOL     OW93883  12.857  14.848   7.788
97329SOL    HW193884  12.827  14.759   7.810
97329SOL    HW293885  12.777   0.024   7.761
97330SOL     OW93886   2.875  14.745  12.750
97330SOL    HW193887   2.968  14.759  12.767
97330SOL    HW293888   2.839  14.833  12.740
97331SOL     OW93889  11.082  10.229   7.710
97331SOL    HW193890  11.150  10.195   7.652
97331SOL    HW293891  11.125  10.300   7.758
97332SOL     OW93892   2.501  10.381   0.235
97332SOL    HW193893   2.514  10.427   0.152
97332SOL    HW293894   2.571  10.315   0.237
97333SOL     OW93895   0.644   6.867   3.915
97333SOL    HW193896   0.677   6.850   3.827
97333SOL    HW293897   0.557   6.905   3.901
97334SOL     OW93898   8.101   0.257  12.135
97334SOL    HW193899   8.102   0.303  12.219
97334SOL    HW293900   8.187   0.216  12.128
97335SOL     OW93901   6.039   4.839   4.709
97335SOL    HW193902   6.032   4.781   4.785
97335SOL    HW293903   6.074   4.783   4.639
97336SOL     OW93904   6.316  11.651  14.614
97336SOL    HW193905   6.300  11.701  14.694
97336SOL    HW293906   6.377  11.582  14.641
97337SOL     OW93907   3.393   5.482   2.673
97337SOL    HW193908   3.407   5.491   2.579
97337SOL    HW293909   3.298   5.482   2.683
97338SOL     OW93910   9.732   2.065  11.993
97338SOL    HW193911   9.736   2.161  12.000
97338SOL    HW293912   9.648   2.042  12.033
97339SOL     OW93913   5.201   1.099   9.835
97339SOL    HW193914   5.108   1.105   9.854
97339SOL    HW293915   5.239   1.176   9.878
97340SOL     OW93916   5.701   4.640   2.852
97340SOL    HW193917   5.702   4.624   2.947
97340SOL    HW293918   5.746   4.565   2.814
97341SOL     OW93919  11.357  14.443   4.887
97341SOL    HW193920  11.277  14.398   4.860
97341SOL    HW293921  11.426  14.377   4.879
97342SOL     OW93922   5.204   9.916   3.350
97342SOL    HW193923   5.199   9.947   3.259
97342SOL    HW293924   5.223   9.822   3.342
97343SOL     OW93925  12.340  10.498   7.691
97343SOL    HW193926  12.250  10.476   7.666
97343SOL    HW293927  12.331  10.568   7.755
97344SOL     OW93928   1.507   7.225   6.544
97344SOL    HW193929   1.415   7.242   6.524
97344SOL    HW293930   1.515   7.245   6.637
97345SOL     OW93931  11.623   4.578   4.498
97345SOL    HW193932  11.685   4.532   4.556
97345SOL    HW293933  11.540   4.578   4.547
97346SOL     OW93934   0.921   2.037   8.444
97346SOL    HW193935   0.937   1.965   8.504
97346SOL    HW293936   0.890   1.996   8.364
97347SOL     OW93937  10.141  10.744  12.364
97347SOL    HW193938  10.053  10.708  12.374
97347SOL    HW293939  10.182  10.689  12.296
97348SOL     OW93940   7.601   5.780   7.882
97348SOL    HW193941   7.591   5.821   7.968
97348SOL    HW293942   7.537   5.826   7.827
97349SOL     OW93943  10.602  11.775   1.281
97349SOL    HW193944  10.543  11.766   1.356
97349SOL    HW293945  10.553  11.829   1.219
97350SOL     OW93946   5.248   4.841   3.457
97350SOL    HW193947   5.287   4.913   3.507
97350SOL    HW293948   5.185   4.884   3.399
97351SOL     OW93949   0.326   4.225   0.680
97351SOL    HW193950   0.248   4.210   0.733
97351SOL    HW293951   0.376   4.144   0.686
97352SOL     OW93952  12.787   6.901   7.420
97352SOL    HW193953  12.761   6.884   7.510
97352SOL    HW293954  12.705   6.899   7.370
97353SOL     OW93955   2.357  12.829   8.773
97353SOL    HW193956   2.279  12.869   8.811
97353SOL    HW293957   2.357  12.739   8.807
97354SOL     OW93958   8.708   8.194  10.019
97354SOL    HW193959   8.784   8.137  10.011
97354SOL    HW293960   8.634   8.139   9.992
97355SOL     OW93961   6.511   1.971  13.338
97355SOL    HW193962   6.435   1.987  13.281
97355SOL    HW293963   6.570   1.919  13.283
97356SOL     OW93964   6.996   3.849   4.771
97356SOL    HW193965   7.084   3.878   4.747
97356SOL    HW293966   6.992   3.758   4.743
97357SOL     OW93967   5.799  13.708   6.989
97357SOL    HW193968   5.852  13.666   6.921
97357SOL    HW293969   5.715  13.663   6.986
97358SOL     OW93970   7.803   7.899   8.634
97358SOL    HW193971   7.778   7.968   8.573
97358SOL    HW293972   7.742   7.909   8.708
97359SOL     OW93973  11.832   6.230   0.446
97359SOL    HW193974  11.759   6.188   0.493
97359SOL    HW293975  11.797   6.250   0.360
97360SOL     OW93976   3.358  10.481  14.376
97360SOL    HW193977   3.296  10.494  14.304
97360SOL    HW293978   3.443  10.471  14.333
97361SOL     OW93979   0.153   8.928  11.668
97361SOL    HW193980   0.200   8.930  11.752
97361SOL    HW293981   0.113   9.015  11.661
97362SOL     OW93982   0.663   7.160  10.955
97362SOL    HW193983   0.716   7.240  10.950
97362SOL    HW293984   0.724   7.090  10.931
97363SOL     OW93985  10.986   0.251  10.152
97363SOL    HW193986  10.928   0.323  10.127
97363SOL    HW293987  11.017   0.275  10.239
97364SOL     OW93988   6.177  11.380   9.489
97364SOL    HW193989   6.217  11.423   9.565
97364SOL    HW293990   6.083  11.385   9.505
97365SOL     OW93991   7.166   4.418  13.051
97365SOL    HW193992   7.235   4.431  13.116
97365SOL    HW293993   7.212   4.414  12.968
97366SOL     OW93994   9.134  12.172   1.573
97366SOL    HW193995   9.172  12.105   1.631
97366SOL    HW293996   9.045  12.142   1.557
97367SOL     OW93997  12.600   9.059  13.169
97367SOL    HW193998  12.615   9.100  13.254
97367SOL    HW293999  12.542   8.985  13.188
97368SOL     OW94000   0.266   6.835   8.556
97368SOL    HW194001   0.359   6.831   8.577
97368SOL    HW294002   0.241   6.744   8.541
97369SOL     OW94003   4.542  13.164   9.513
97369SOL    HW194004   4.522  13.080   9.556
97369SOL    HW294005   4.508  13.230   9.573
97370SOL     OW94006   8.250   9.857   7.045
97370SOL    HW194007   8.204   9.808   6.978
97370SOL    HW294008   8.280   9.936   6.999
97371SOL     OW94009   4.084   4.672   7.156
97371SOL    HW194010   4.078   4.667   7.251
97371SOL    HW294011   4.057   4.585   7.126
97372SOL     OW94012   9.394   4.061   0.608
97372SOL    HW194013   9.467   4.122   0.616
97372SOL    HW294014   9.372   4.063   0.514
97373SOL     OW94015   6.493  11.874  10.253
97373SOL    HW194016   6.543  11.946  10.214
97373SOL    HW294017   6.473  11.816  10.179
97374SOL     OW94018   0.036   4.939  10.674
97374SOL    HW194019   0.045   4.956  10.768
97374SOL    HW294020  14.861   4.855  10.669
97375SOL     OW94021  10.162   6.240   6.488
97375SOL    HW194022  10.090   6.188   6.523
97375SOL    HW294023  10.158   6.322   6.537
97376SOL     OW94024  10.559   9.303   2.865
97376SOL    HW194025  10.627   9.306   2.933
97376SOL    HW294026  10.484   9.347   2.905
97377SOL     OW94027   2.356  11.615  14.532
97377SOL    HW194028   2.414  11.594  14.605
97377SOL    HW294029   2.271  11.581  14.559
97378SOL     OW94030   5.264   8.965   8.555
97378SOL    HW194031   5.278   8.884   8.606
97378SOL    HW294032   5.351   9.006   8.553
97379SOL     OW94033   4.774   3.675  14.351
97379SOL    HW194034   4.800   3.603  14.409
97379SOL    HW294035   4.849   3.734  14.351
97380SOL     OW94036   8.240  12.642   1.109
97380SOL    HW194037   8.290  12.604   1.037
97380SOL    HW294038   8.162  12.588   1.115
97381SOL     OW94039   4.183   3.933   3.569
97381SOL    HW194040   4.121   4.000   3.539
97381SOL    HW294041   4.139   3.850   3.553
97382SOL     OW94042   5.026   4.995   5.564
97382SOL    HW194043   4.974   5.072   5.539
97382SOL    HW294044   4.966   4.921   5.555
97383SOL     OW94045   1.821  14.316   8.149
97383SOL    HW194046   1.798  14.348   8.062
97383SOL    HW294047   1.889  14.375   8.179
97384SOL     OW94048   5.451   7.938   9.623
97384SOL    HW194049   5.467   7.923   9.716
97384SOL    HW294050   5.429   8.031   9.617
97385SOL     OW94051  11.101  10.261  11.725
97385SOL    HW194052  11.026  10.280  11.782
97385SOL    HW294053  11.064  10.259  11.637
97386SOL     OW94054   0.769   9.328   2.265
97386SOL    HW194055   0.860   9.301   2.250
97386SOL    HW294056   0.776   9.412   2.311
97387SOL     OW94057  14.827  10.892  12.274
97387SOL    HW194058  14.754  10.889  12.335
97387SOL    HW294059  14.859  10.802  12.269
97388SOL     OW94060   0.148   0.204   3.066
97388SOL    HW194061   0.197   0.238   3.141
97388SOL    HW294062   0.214   0.163   3.011
97389SOL     OW94063   6.405   0.112  12.576
97389SOL    HW194064   6.456   0.034  12.597
97389SOL    HW294065   6.449   0.150  12.500
97390SOL     OW94066  13.249   3.775   2.004
97390SOL    HW194067  13.340   3.760   1.980
97390SOL    HW294068  13.219   3.844   1.945
97391SOL     OW94069   9.465   2.753   3.198
97391SOL    HW194070   9.498   2.726   3.283
97391SOL    HW294071   9.384   2.801   3.217
97392SOL     OW94072  12.325   1.116   3.928
97392SOL    HW194073  12.251   1.115   3.867
97392SOL    HW294074  12.387   1.054   3.892
97393SOL     OW94075   6.397   8.627  12.246
97393SOL    HW194076   6.381   8.603  12.154
97393SOL    HW294077   6.311   8.651  12.280
97394SOL     OW94078   4.656   7.936   9.255
97394SOL    HW194079   4.674   7.950   9.348
97394SOL    HW294080   4.592   7.865   9.254
97395SOL     OW94081   6.459   7.011   4.606
97395SOL    HW194082   6.430   6.921   4.599
97395SOL    HW294083   6.486   7.021   4.697
97396SOL     OW94084   1.194   7.914   6.819
97396SOL    HW194085   1.206   8.004   6.849
97396SOL    HW294086   1.099   7.902   6.813
97397SOL     OW94087  12.729   6.570   2.504
97397SOL    HW194088  12.654   6.624   2.531
97397SOL    HW294089  12.765   6.537   2.586
97398SOL     OW94090  14.601  14.242   7.599
97398SOL    HW194091  14.530  14.300   7.574
97398SOL    HW294092  14.600  14.241   7.695
97399SOL     OW94093   4.331   6.784   3.240
97399SOL    HW194094   4.329   6.837   3.160
97399SOL    HW294095   4.325   6.848   3.311
97400SOL     OW94096   3.892   7.070  10.949
97400SOL    HW194097   3.942   6.988  10.958
97400SOL    HW294098   3.959   7.136  10.930
97401SOL     OW94099   3.961   0.856   9.630
97401SOL    HW194100   3.957   0.947   9.660
97401SOL    HW294101   3.910   0.855   9.549
97402SOL     OW94102   0.025   4.181   2.975
97402SOL    HW194103  14.869   4.091   2.992
97402SOL    HW294104   0.084   4.204   3.047
97403SOL     OW94105   4.861   3.614   8.284
97403SOL    HW194106   4.787   3.647   8.335
97403SOL    HW294107   4.821   3.575   8.207
97404SOL     OW94108   9.482   4.390   5.939
97404SOL    HW194109   9.503   4.392   6.033
97404SOL    HW294110   9.563   4.362   5.897
97405SOL     OW94111   4.020   0.494   0.422
97405SOL    HW194112   4.012   0.399   0.417
97405SOL    HW294113   3.933   0.527   0.400
97406SOL     OW94114   6.561   1.363   9.391
97406SOL    HW194115   6.646   1.319   9.393
97406SOL    HW294116   6.573   1.441   9.444
97407SOL     OW94117   5.518  10.347  11.468
97407SOL    HW194118   5.607  10.364  11.438
97407SOL    HW294119   5.526  10.337  11.563
97408SOL     OW94120   6.910   9.688   7.445
97408SOL    HW194121   6.872   9.639   7.372
97408SOL    HW294122   6.906   9.779   7.418
97409SOL     OW94123   1.323   0.625  14.669
97409SOL    HW194124   1.331   0.531  14.652
97409SOL    HW294125   1.364   0.666  14.593
97410SOL     OW94126   5.968  10.125   5.334
97410SOL    HW194127   5.901  10.170   5.387
97410SOL    HW294128   6.036  10.191   5.320
97411SOL     OW94129   8.979  11.142   4.853
97411SOL    HW194130   9.024  11.080   4.910
97411SOL    HW294131   8.925  11.087   4.796
97412SOL     OW94132  11.427   9.042   0.444
97412SOL    HW194133  11.437   8.992   0.363
97412SOL    HW294134  11.515   9.076   0.462
97413SOL     OW94135  12.895   0.678   7.219
97413SOL    HW194136  12.863   0.765   7.243
97413SOL    HW294137  12.981   0.672   7.260
97414SOL     OW94138   9.511   0.808   9.496
97414SOL    HW194139   9.496   0.896   9.462
97414SOL    HW294140   9.561   0.822   9.576
97415SOL     OW94141   0.057  10.472   2.469
97415SOL    HW194142   0.068  10.544   2.532
97415SOL    HW294143  14.852  10.499   2.416
97416SOL     OW94144   8.234   7.274   4.230
97416SOL    HW194145   8.298   7.335   4.266
97416SOL    HW294146   8.256   7.267   4.137
97417SOL     OW94147   6.763   5.081  14.566
97417SOL    HW194148   6.855   5.103  14.582
97417SOL    HW294149   6.731   5.051  14.651
97418SOL     OW94150   0.964   5.723   2.619
97418SOL    HW194151   0.875   5.726   2.585
97418SOL    HW294152   0.955   5.740   2.713
97419SOL     OW94153   0.921   6.005   0.851
97419SOL    HW194154   0.971   6.020   0.932
97419SOL    HW294155   0.832   6.032   0.873
97420SOL     OW94156   9.219   2.060  11.161
97420SOL    HW194157   9.216   2.052  11.256
97420SOL    HW294158   9.307   2.094  11.143
97421SOL     OW94159   7.761  13.161  13.954
97421SOL    HW194160   7.746  13.213  14.033
97421SOL    HW294161   7.730  13.074  13.976
97422SOL     OW94162   4.052   1.364   3.702
97422SOL    HW194163   4.060   1.285   3.756
97422SOL    HW294164   4.081   1.435   3.759
97423SOL     OW94165   0.367  12.001   6.016
97423SOL    HW194166   0.286  11.957   5.992
97423SOL    HW294167   0.430  11.973   5.950
97424SOL     OW94168   5.240  11.277  10.367
97424SOL    HW194169   5.183  11.261  10.443
97424SOL    HW294170   5.179  11.284  10.293
97425SOL     OW94171  10.263   5.572  11.984
97425SOL    HW194172  10.298   5.487  12.009
97425SOL    HW294173  10.168   5.560  11.989
97426SOL     OW94174   7.815   8.592  11.161
97426SOL    HW194175   7.789   8.671  11.114
97426SOL    HW294176   7.807   8.522  11.096
97427SOL     OW94177   6.300   3.968   7.325
97427SOL    HW194178   6.239   3.997   7.257
97427SOL    HW294179   6.353   3.901   7.282
97428SOL     OW94180   0.826   5.331   0.900
97428SOL    HW194181   0.854   5.342   0.809
97428SOL    HW294182   0.907   5.334   0.951
97429SOL     OW94183  11.237   6.770   2.887
97429SOL    HW194184  11.149   6.786   2.920
97429SOL    HW294185  11.239   6.813   2.802
97430SOL     OW94186  13.458   6.891   9.494
97430SOL    HW194187  13.398   6.822   9.521
97430SOL    HW294188  13.408   6.944   9.432
97431SOL     OW94189  11.085  13.367  11.266
97431SOL    HW194190  10.993  13.351  11.286
97431SOL    HW294191  11.133  13.316  11.330
97432SOL     OW94192   8.621  14.495  11.681
97432SOL    HW194193   8.596  14.532  11.765
97432SOL    HW294194   8.713  14.471  11.692
97433SOL     OW94195   2.887   6.166  14.020
97433SOL    HW194196   2.840   6.097  13.974
97433SOL    HW294197   2.888   6.138  14.111
97434SOL     OW94198  11.003  12.791   1.702
97434SOL    HW194199  11.055  12.717   1.736
97434SOL    HW294200  10.912  12.768   1.723
97435SOL     OW94201   4.484   9.075   4.526
97435SOL    HW194202   4.454   9.148   4.581
97435SOL    HW294203   4.489   9.112   4.438
97436SOL     OW94204   3.562  12.081  13.349
97436SOL    HW194205   3.640  12.105  13.300
97436SOL    HW294206   3.541  12.158  13.401
97437SOL     OW94207   6.200  11.613   1.785
97437SOL    HW194208   6.110  11.640   1.803
97437SOL    HW294209   6.230  11.572   1.867
97438SOL     OW94210   9.017  12.261  10.341
97438SOL    HW194211   8.987  12.256  10.432
97438SOL    HW294212   9.085  12.194  10.335
97439SOL     OW94213  13.915   4.060   0.026
97439SOL    HW194214  13.975   3.986   0.022
97439SOL    HW294215  13.863   4.045   0.105
97440SOL     OW94216  11.317   5.412   9.848
97440SOL    HW194217  11.302   5.394   9.755
97440SOL    HW294218  11.240   5.463   9.875
97441SOL     OW94219   7.775   8.838   5.192
97441SOL    HW194220   7.683   8.815   5.206
97441SOL    HW294221   7.781   8.930   5.219
97442SOL     OW94222   0.302   1.539   8.046
97442SOL    HW194223   0.326   1.448   8.059
97442SOL    HW294224   0.366   1.572   7.983
97443SOL     OW94225   8.370   0.109   8.119
97443SOL    HW194226   8.342   0.141   8.033
97443SOL    HW294227   8.463   0.089   8.108
97444SOL     OW94228   4.884   0.463   7.426
97444SOL    HW194229   4.822   0.448   7.354
97444SOL    HW294230   4.879   0.557   7.442
97445SOL     OW94231   2.184  12.978   1.605
97445SOL    HW194232   2.255  12.991   1.668
97445SOL    HW294233   2.210  12.900   1.556
97446SOL     OW94234   9.534   2.517  13.517
97446SOL    HW194235   9.468   2.539  13.452
97446SOL    HW294236   9.497   2.441  13.563
97447SOL     OW94237   2.988  12.729   4.302
97447SOL    HW194238   2.933  12.685   4.237
97447SOL    HW294239   2.927  12.781   4.354
97448SOL     OW94240   4.232  13.714   6.004
97448SOL    HW194241   4.255  13.639   5.950
97448SOL    HW294242   4.138  13.724   5.992
97449SOL     OW94243   5.999   7.256  12.035
97449SOL    HW194244   5.932   7.297  12.090
97449SOL    HW294245   6.063   7.325  12.020
97450SOL     OW94246  13.663   5.940  12.224
97450SOL    HW194247  13.680   5.958  12.131
97450SOL    HW294248  13.741   5.972  12.269
97451SOL     OW94249  14.730   4.245   4.053
97451SOL    HW194250  14.656   4.260   3.995
97451SOL    HW294251  14.706   4.290   4.134
97452SOL     OW94252   2.906  10.349   2.018
97452SOL    HW194253   2.863  10.431   1.998
97452SOL    HW294254   2.853  10.310   2.087
97453SOL     OW94255   0.630   4.173  14.034
97453SOL    HW194256   0.625   4.250  14.091
97453SOL    HW294257   0.626   4.209  13.946
97454SOL     OW94258   5.018   1.295  10.219
97454SOL    HW194259   4.923   1.302  10.207
97454SOL    HW294260   5.054   1.356  10.154
97455SOL     OW94261  12.846  13.140   4.899
97455SOL    HW194262  12.940  13.159   4.908
97455SOL    HW294263  12.802  13.215   4.939
97456SOL     OW94264   5.833  13.548  11.322
97456SOL    HW194265   5.907  13.608  11.328
97456SOL    HW294266   5.771  13.591  11.262
97457SOL     OW94267   9.355   3.280  13.979
97457SOL    HW194268   9.446   3.276  14.009
97457SOL    HW294269   9.360   3.256  13.886
97458SOL     OW94270   1.668   9.746  10.988
97458SOL    HW194271   1.603   9.732  10.920
97458SOL    HW294272   1.617   9.759  11.068
97459SOL     OW94273   8.397   4.846   1.359
97459SOL    HW194274   8.429   4.822   1.273
97459SOL    HW294275   8.427   4.777   1.417
97460SOL     OW94276   8.091  11.674   0.116
97460SOL    HW194277   8.119  11.661   0.025
97460SOL    HW294278   8.168  11.713   0.158
97461SOL     OW94279   7.181   9.807   3.358
97461SOL    HW194280   7.093   9.785   3.325
97461SOL    HW294281   7.167   9.834   3.448
97462SOL     OW94282   9.194   2.445  13.093
97462SOL    HW194283   9.160   2.532  13.072
97462SOL    HW294284   9.116   2.392  13.108
97463SOL     OW94285   5.998   9.765   5.703
97463SOL    HW194286   5.976   9.672   5.700
97463SOL    HW294287   5.990   9.795   5.612
97464SOL     OW94288   1.402  11.537  13.742
97464SOL    HW194289   1.396  11.629  13.715
97464SOL    HW294290   1.463  11.538  13.816
97465SOL     OW94291  10.026   1.733   3.563
97465SOL    HW194292  10.033   1.743   3.468
97465SOL    HW294293  10.097   1.787   3.598
97466SOL     OW94294  14.187   7.674  14.313
97466SOL    HW194295  14.251   7.639  14.251
97466SOL    HW294296  14.240   7.707  14.386
97467SOL     OW94297  11.120   5.324   0.243
97467SOL    HW194298  11.027   5.303   0.244
97467SOL    HW294299  11.138   5.348   0.152
97468SOL     OW94300  14.038  10.030   2.640
97468SOL    HW194301  13.977   9.991   2.703
97468SOL    HW294302  14.122   9.990   2.661
97469SOL     OW94303  12.552   2.644  13.655
97469SOL    HW194304  12.636   2.604  13.635
97469SOL    HW294305  12.548   2.647  13.750
97470SOL     OW94306   4.084   1.570   0.891
97470SOL    HW194307   4.078   1.475   0.884
97470SOL    HW294308   4.000   1.596   0.930
97471SOL     OW94309   1.380  14.588   6.270
97471SOL    HW194310   1.372  14.498   6.304
97471SOL    HW294311   1.413  14.577   6.181
97472SOL     OW94312  14.049   6.480   5.030
97472SOL    HW194313  14.091   6.526   5.103
97472SOL    HW294314  14.117   6.422   4.996
97473SOL     OW94315   6.588  12.522   5.028
97473SOL    HW194316   6.649  12.568   4.969
97473SOL    HW294317   6.524  12.589   5.053
97474SOL     OW94318   7.661   6.491   7.966
97474SOL    HW194319   7.733   6.503   7.904
97474SOL    HW294320   7.705   6.466   8.048
97475SOL     OW94321  12.813   6.293   2.879
97475SOL    HW194322  12.836   6.336   2.961
97475SOL    HW294323  12.897   6.275   2.836
97476SOL     OW94324   8.720   8.102   1.208
97476SOL    HW194325   8.645   8.048   1.233
97476SOL    HW294326   8.763   8.124   1.291
97477SOL     OW94327  13.023  12.625   6.347
97477SOL    HW194328  13.079  12.604   6.421
97477SOL    HW294329  13.007  12.542   6.304
97478SOL     OW94330   7.911   8.492  12.330
97478SOL    HW194331   7.869   8.575  12.306
97478SOL    HW294332   7.933   8.452  12.246
97479SOL     OW94333   5.781  14.535   8.869
97479SOL    HW194334   5.685  14.528   8.868
97479SOL    HW294335   5.798  14.630   8.864
97480SOL     OW94336  10.150   5.268  11.851
97480SOL    HW194337  10.185   5.265  11.762
97480SOL    HW294338  10.227   5.288  11.905
97481SOL     OW94339   0.433  13.080   6.624
97481SOL    HW194340   0.358  13.085   6.682
97481SOL    HW294341   0.484  13.159   6.643
97482SOL     OW94342   5.395  12.428  14.791
97482SOL    HW194343   5.370  12.371  14.719
97482SOL    HW294344   5.400  12.371  14.867
97483SOL     OW94345  14.575   2.318   5.292
97483SOL    HW194346  14.553   2.327   5.384
97483SOL    HW294347  14.543   2.231   5.268
97484SOL     OW94348  14.136   2.972   9.325
97484SOL    HW194349  14.139   3.046   9.263
97484SOL    HW294350  14.219   2.978   9.373
97485SOL     OW94351   1.765   5.832  10.639
97485SOL    HW194352   1.736   5.772  10.708
97485SOL    HW294353   1.793   5.775  10.567
97486SOL     OW94354  13.605   1.579   5.596
97486SOL    HW194355  13.529   1.561   5.541
97486SOL    HW294356  13.678   1.536   5.551
97487SOL     OW94357   4.592   5.045  12.148
97487SOL    HW194358   4.548   4.960  12.144
97487SOL    HW294359   4.624   5.060  12.059
97488SOL     OW94360  11.853   2.046   3.056
97488SOL    HW194361  11.938   2.064   3.097
97488SOL    HW294362  11.873   2.035   2.963
97489SOL     OW94363   7.093  13.597   8.281
97489SOL    HW194364   7.024  13.635   8.337
97489SOL    HW294365   7.055  13.515   8.249
97490SOL     OW94366   8.704   8.358  13.130
97490SOL    HW194367   8.755   8.438  13.145
97490SOL    HW294368   8.754   8.289  13.174
97491SOL     OW94369   8.648   4.002   3.179
97491SOL    HW194370   8.593   3.929   3.207
97491SOL    HW294371   8.669   4.049   3.260
97492SOL     OW94372   2.666   8.567   7.538
97492SOL    HW194373   2.746   8.605   7.503
97492SOL    HW294374   2.694   8.489   7.585
97493SOL     OW94375  12.958   9.200  13.163
97493SOL    HW194376  12.865   9.192  13.181
97493SOL    HW294377  12.972   9.294  13.151
97494SOL     OW94378   3.946   8.314   8.808
97494SOL    HW194379   3.919   8.366   8.883
97494SOL    HW294380   4.022   8.265   8.839
97495SOL     OW94381   5.846  10.874   3.230
97495SOL    HW194382   5.816  10.874   3.321
97495SOL    HW294383   5.770  10.903   3.179
97496SOL     OW94384  14.603   9.370   5.416
97496SOL    HW194385  14.533   9.308   5.431
97496SOL    HW294386  14.559   9.450   5.386
97497SOL     OW94387  10.621   0.862   1.200
97497SOL    HW194388  10.591   0.945   1.162
97497SOL    HW294389  10.589   0.795   1.139
97498SOL     OW94390  12.929  10.541   4.851
97498SOL    HW194391  12.843  10.577   4.831
97498SOL    HW294392  12.980  10.557   4.771
97499SOL     OW94393   3.680   4.649  12.116
97499SOL    HW194394   3.630   4.598  12.179
97499SOL    HW294395   3.658   4.740  12.135
97500SOL     OW94396  14.388  11.791  12.564
97500SOL    HW194397  14.460  11.729  12.578
97500SOL    HW294398  14.353  11.768  12.478
97501SOL     OW94399   3.798   5.835  13.926
97501SOL    HW194400   3.890   5.840  13.953
97501SOL    HW294401   3.757   5.781  13.993
97502SOL     OW94402   3.118  13.176  11.355
97502SOL    HW194403   3.108  13.209  11.266
97502SOL    HW294404   3.211  13.154  11.362
97503SOL     OW94405   0.928  13.592   1.203
97503SOL    HW194406   0.928  13.507   1.159
97503SOL    HW294407   0.997  13.642   1.158
97504SOL     OW94408   3.392   5.893  12.274
97504SOL    HW194409   3.476   5.940  12.282
97504SOL    HW294410   3.327   5.958  12.300
97505SOL     OW94411   5.743   3.938   3.036
97505SOL    HW194412   5.818   3.992   3.012
97505SOL    HW294413   5.668   3.982   2.994
97506SOL     OW94414   4.077  11.325   7.062
97506SOL    HW194415   4.029  11.291   7.138
97506SOL    HW294416   4.016  11.387   7.022
97507SOL     OW94417   7.599  12.312   9.845
97507SOL    HW194418   7.503  12.307   9.852
97507SOL    HW294419   7.622  12.394   9.888
97508SOL     OW94420  13.198   2.473  11.597
97508SOL    HW194421  13.261   2.539  11.626
97508SOL    HW294422  13.141   2.521  11.537
97509SOL     OW94423  13.704  14.729   7.009
97509SOL    HW194424  13.742  14.817   7.004
97509SOL    HW294425  13.768  14.673   6.964
97510SOL     OW94426   3.816  12.658  12.017
97510SOL    HW194427   3.889  12.719  12.005
97510SOL    HW294428   3.857  12.578  12.049
97511SOL     OW94429   4.165   8.874   9.956
97511SOL    HW194430   4.170   8.792  10.004
97511SOL    HW294431   4.248   8.918   9.973
97512SOL     OW94432  10.410  12.234  12.599
97512SOL    HW194433  10.417  12.192  12.513
97512SOL    HW294434  10.392  12.161  12.659
97513SOL     OW94435   7.665  10.597   3.081
97513SOL    HW194436   7.594  10.534   3.069
97513SOL    HW294437   7.643  10.643   3.162
97514SOL     OW94438   8.810  11.395   6.066
97514SOL    HW194439   8.800  11.447   6.145
97514SOL    HW294440   8.766  11.312   6.087
97515SOL     OW94441  10.600   0.227   3.171
97515SOL    HW194442  10.639   0.259   3.089
97515SOL    HW294443  10.667   0.242   3.237
97516SOL     OW94444   5.077   3.007   9.213
97516SOL    HW194445   5.036   3.092   9.196
97516SOL    HW294446   5.159   3.029   9.258
97517SOL     OW94447  13.226   7.104   2.961
97517SOL    HW194448  13.141   7.135   2.931
97517SOL    HW294449  13.258   7.174   3.018
97518SOL     OW94450  14.226   7.589  11.549
97518SOL    HW194451  14.154   7.618  11.606
97518SOL    HW294452  14.245   7.666  11.495
97519SOL     OW94453   4.170   6.983   6.714
97519SOL    HW194454   4.192   6.890   6.717
97519SOL    HW294455   4.239   7.022   6.660
97520SOL     OW94456  13.442   9.931   3.201
97520SOL    HW194457  13.377   9.991   3.238
97520SOL    HW294458  13.511   9.926   3.267
97521SOL     OW94459   8.921   1.471  12.445
97521SOL    HW194460   8.875   1.544  12.404
97521SOL    HW294461   8.872   1.393  12.419
97522SOL     OW94462   2.506   5.113  14.483
97522SOL    HW194463   2.552   5.184  14.438
97522SOL    HW294464   2.430   5.096  14.428
97523SOL     OW94465  12.984   6.160   1.575
97523SOL    HW194466  12.935   6.229   1.529
97523SOL    HW294467  12.926   6.133   1.645
97524SOL     OW94468   5.479   2.761  14.603
97524SOL    HW194469   5.500   2.814  14.527
97524SOL    HW294470   5.512   2.673  14.581
97525SOL     OW94471   2.862  10.087   8.860
97525SOL    HW194472   2.786  10.042   8.897
97525SOL    HW294473   2.833  10.117   8.774
97526SOL     OW94474   5.927   9.655   6.408
97526SOL    HW194475   5.938   9.620   6.496
97526SOL    HW294476   5.988   9.605   6.354
97527SOL     OW94477  14.134   0.194   1.661
97527SOL    HW194478  14.126   0.151   1.746
97527SOL    HW294479  14.150   0.122   1.599
97528SOL     OW94480  12.652  13.907   0.908
97528SOL    HW194481  12.700  13.959   0.972
97528SOL    HW294482  12.577  13.873   0.957
97529SOL     OW94483   1.476  12.060   5.880
97529SOL    HW194484   1.418  12.026   5.948
97529SOL    HW294485   1.548  12.100   5.929
97530SOL     OW94486  13.797   0.267   5.232
97530SOL    HW194487  13.758   0.186   5.200
97530SOL    HW294488  13.863   0.290   5.166
97531SOL     OW94489   2.357   2.121   8.872
97531SOL    HW194490   2.356   2.216   8.883
97531SOL    HW294491   2.450   2.097   8.878
97532SOL     OW94492   4.558   7.525   4.056
97532SOL    HW194493   4.578   7.536   3.963
97532SOL    HW294494   4.557   7.615   4.091
97533SOL     OW94495   6.844  12.612   5.435
97533SOL    HW194496   6.917  12.610   5.497
97533SOL    HW294497   6.847  12.701   5.399
97534SOL     OW94498  13.902  11.632   1.630
97534SOL    HW194499  13.954  11.553   1.646
97534SOL    HW294500  13.963  11.704   1.638
97535SOL     OW94501   6.671   0.481   5.006
97535SOL    HW194502   6.710   0.499   4.920
97535SOL    HW294503   6.597   0.423   4.987
97536SOL     OW94504   3.097   7.051   3.441
97536SOL    HW194505   3.067   7.134   3.406
97536SOL    HW294506   3.064   7.049   3.531
97537SOL     OW94507   1.056   1.156  12.875
97537SOL    HW194508   0.985   1.124  12.930
97537SOL    HW294509   1.095   1.228  12.925
97538SOL     OW94510   5.375  13.199   3.198
97538SOL    HW194511   5.350  13.184   3.107
97538SOL    HW294512   5.448  13.139   3.214
97539SOL     OW94513   7.185   6.308   9.066
97539SOL    HW194514   7.104   6.329   9.020
97539SOL    HW294515   7.158   6.300   9.158
97540SOL     OW94516  14.477   5.107   3.222
97540SOL    HW194517  14.417   5.170   3.262
97540SOL    HW294518  14.564   5.142   3.242
97541SOL     OW94519   5.918  13.007   6.069
97541SOL    HW194520   5.862  13.058   6.011
97541SOL    HW294521   5.876  13.012   6.154
97542SOL     OW94522   1.138  11.979  10.044
97542SOL    HW194523   1.129  12.031  10.124
97542SOL    HW294524   1.119  12.041   9.973
97543SOL     OW94525  10.477   1.599   8.022
97543SOL    HW194526  10.442   1.513   7.998
97543SOL    HW294527  10.539   1.580   8.093
97544SOL     OW94528   9.878   1.610   5.308
97544SOL    HW194529   9.901   1.517   5.311
97544SOL    HW294530   9.855   1.632   5.398
97545SOL     OW94531   7.153  13.477   2.801
97545SOL    HW194532   7.119  13.527   2.727
97545SOL    HW294533   7.175  13.543   2.867
97546SOL     OW94534   9.065   9.948   5.464
97546SOL    HW194535   8.982   9.985   5.434
97546SOL    HW294536   9.042   9.897   5.541
97547SOL     OW94537   8.354  10.285   2.604
97547SOL    HW194538   8.347  10.340   2.526
97547SOL    HW294539   8.321  10.339   2.675
97548SOL     OW94540  12.078   5.232   7.645
97548SOL    HW194541  12.089   5.253   7.738
97548SOL    HW294542  12.077   5.318   7.601
97549SOL     OW94543   5.577  10.964   0.249
97549SOL    HW194544   5.541  10.919   0.326
97549SOL    HW294545   5.670  10.940   0.250
97550SOL     OW94546   0.076   2.929   6.294
97550SOL    HW194547   0.148   2.867   6.279
97550SOL    HW294548   0.091   2.963   6.382
97551SOL     OW94549  11.388  10.382   1.236
97551SOL    HW194550  11.304  10.372   1.192
97551SOL    HW294551  11.402  10.477   1.239
97552SOL     OW94552   5.248   0.943  13.288
97552SOL    HW194553   5.300   1.018  13.258
97552SOL    HW294554   5.313   0.881  13.320
97553SOL     OW94555   0.156  12.304  11.369
97553SOL    HW194556   0.090  12.356  11.324
97553SOL    HW294557   0.223  12.367  11.395
97554SOL     OW94558   6.242  14.771   9.225
97554SOL    HW194559   6.287  14.849   9.193
97554SOL    HW294560   6.179  14.749   9.156
97555SOL     OW94561   9.739   9.451  11.886
97555SOL    HW194562   9.817   9.504  11.902
97555SOL    HW294563   9.749   9.376  11.945
97556SOL     OW94564   0.953   5.710  14.365
97556SOL    HW194565   1.034   5.759  14.352
97556SOL    HW294566   0.979   5.618  14.357
97557SOL     OW94567   0.674   0.790  11.619
97557SOL    HW194568   0.659   0.842  11.540
97557SOL    HW294569   0.725   0.715  11.588
97558SOL     OW94570   1.820   5.288   2.267
97558SOL    HW194571   1.846   5.364   2.319
97558SOL    HW294572   1.750   5.248   2.318
97559SOL     OW94573  11.446   6.195   3.988
97559SOL    HW194574  11.458   6.116   3.935
97559SOL    HW294575  11.351   6.206   3.992
97560SOL     OW94576   3.219   1.031   0.479
97560SOL    HW194577   3.267   0.949   0.482
97560SOL    HW294578   3.276   1.091   0.431
97561SOL     OW94579  11.802   4.149   7.144
97561SOL    HW194580  11.837   4.132   7.057
97561SOL    HW294581  11.767   4.064   7.172
97562SOL     OW94582   1.830   8.723  13.906
97562SOL    HW194583   1.789   8.809  13.893
97562SOL    HW294584   1.794   8.668  13.837
97563SOL     OW94585   2.750   5.944   7.113
97563SOL    HW194586   2.722   5.893   7.189
97563SOL    HW294587   2.671   5.990   7.085
97564SOL     OW94588   6.581   6.257  14.124
97564SOL    HW194589   6.531   6.236  14.203
97564SOL    HW294590   6.519   6.299  14.066
97565SOL     OW94591   2.558   3.423   0.807
97565SOL    HW194592   2.537   3.350   0.749
97565SOL    HW294593   2.624   3.388   0.867
97566SOL     OW94594  10.357  10.315   8.838
97566SOL    HW194595  10.401  10.387   8.794
97566SOL    HW294596  10.350  10.246   8.772
97567SOL     OW94597   4.119   4.340   5.209
97567SOL    HW194598   4.168   4.409   5.165
97567SOL    HW294599   4.084   4.381   5.288
97568SOL     OW94600  11.940   4.398   6.867
97568SOL    HW194601  11.856   4.414   6.909
97568SOL    HW294602  11.978   4.325   6.915
97569SOL     OW94603  14.651   6.621  10.282
97569SOL    HW194604  14.580   6.654  10.227
97569SOL    HW294605  14.632   6.656  10.369
97570SOL     OW94606   1.678   9.447  11.457
97570SOL    HW194607   1.697   9.399  11.538
97570SOL    HW294608   1.675   9.539  11.484
97571SOL     OW94609   5.003   2.794  10.472
97571SOL    HW194610   5.015   2.887  10.492
97571SOL    HW294611   5.056   2.748  10.537
97572SOL     OW94612   2.047   8.021   2.258
97572SOL    HW194613   2.037   8.095   2.198
97572SOL    HW294614   1.958   7.988   2.270
97573SOL     OW94615   0.167  14.167   5.512
97573SOL    HW194616   0.093  14.128   5.465
97573SOL    HW294617   0.150  14.148   5.604
97574SOL     OW94618   7.985   0.585   8.701
97574SOL    HW194619   7.927   0.580   8.776
97574SOL    HW294620   8.046   0.656   8.723
97575SOL     OW94621   1.141  12.611   6.749
97575SOL    HW194622   1.095  12.603   6.666
97575SOL    HW294623   1.229  12.641   6.725
97576SOL     OW94624   5.814   2.343   2.935
97576SOL    HW194625   5.814   2.302   3.022
97576SOL    HW294626   5.756   2.418   2.945
97577SOL     OW94627   9.936  11.933  14.145
97577SOL    HW194628  10.031  11.942  14.146
97577SOL    HW294629   9.903  12.023  14.137
97578SOL     OW94630   7.519   7.028  10.532
97578SOL    HW194631   7.466   7.057  10.606
97578SOL    HW294632   7.602   7.000  10.572
97579SOL     OW94633   7.022  11.948   5.081
97579SOL    HW194634   7.009  12.023   5.023
97579SOL    HW294635   6.999  11.872   5.028
97580SOL     OW94636  13.844  12.765  10.544
97580SOL    HW194637  13.785  12.763  10.620
97580SOL    HW294638  13.924  12.806  10.577
97581SOL     OW94639   4.964   6.875  14.866
97581SOL    HW194640   4.879   6.866   0.041
97581SOL    HW294641   5.027   6.837   0.058
97582SOL     OW94642  13.439  11.769  14.188
97582SOL    HW194643  13.351  11.731  14.189
97582SOL    HW294644  13.497  11.697  14.213
97583SOL     OW94645   5.704  10.462  10.672
97583SOL    HW194646   5.770  10.509  10.621
97583SOL    HW294647   5.715  10.492  10.762
97584SOL     OW94648   1.388   5.160   3.781
97584SOL    HW194649   1.414   5.222   3.712
97584SOL    HW294650   1.400   5.074   3.741
97585SOL     OW94651  13.388  13.945  14.751
97585SOL    HW194652  13.419  13.989  14.672
97585SOL    HW294653  13.399  14.010  14.821
97586SOL     OW94654   4.983   0.806   7.733
97586SOL    HW194655   4.990   0.901   7.742
97586SOL    HW294656   5.073   0.775   7.741
97587SOL     OW94657   5.243   6.419  10.982
97587SOL    HW194658   5.256   6.513  10.986
97587SOL    HW294659   5.152   6.408  10.956
97588SOL     OW94660   9.898  14.652   5.667
97588SOL    HW194661   9.817  14.694   5.637
97588SOL    HW294662   9.931  14.711   5.735
97589SOL     OW94663   8.677  13.346   5.917
97589SOL    HW194664   8.639  13.410   5.858
97589SOL    HW294665   8.622  13.349   5.995
97590SOL     OW94666   3.446  14.757  11.093
97590SOL    HW194667   3.490  14.828  11.046
97590SOL    HW294668   3.373  14.732  11.037
97591SOL     OW94669  10.001   9.521  10.777
97591SOL    HW194670  10.001   9.470  10.696
97591SOL    HW294671  10.002   9.612  10.748
97592SOL     OW94672   2.860   6.873  14.260
97592SOL    HW194673   2.785   6.917  14.218
97592SOL    HW294674   2.934   6.932  14.242
97593SOL     OW94675   9.962   7.313   0.635
97593SOL    HW194676   9.965   7.365   0.715
97593SOL    HW294677   9.915   7.234   0.659
97594SOL     OW94678   0.576   4.361  12.219
97594SOL    HW194679   0.617   4.433  12.169
97594SOL    HW294680   0.639   4.341  12.288
97595SOL     OW94681   6.593   7.277   7.187
97595SOL    HW194682   6.644   7.249   7.263
97595SOL    HW294683   6.580   7.371   7.201
97596SOL     OW94684   0.783  12.455  13.653
97596SOL    HW194685   0.846  12.452  13.581
97596SOL    HW294686   0.831  12.497  13.725
97597SOL     OW94687   6.463   3.576  11.469
97597SOL    HW194688   6.507   3.615  11.545
97597SOL    HW294689   6.422   3.650  11.424
97598SOL     OW94690   7.234  10.064   3.051
97598SOL    HW194691   7.288  10.072   2.972
97598SOL    HW294692   7.144  10.068   3.020
97599SOL     OW94693   4.832   6.234  13.122
97599SOL    HW194694   4.743   6.223  13.155
97599SOL    HW294695   4.888   6.217  13.199
97600SOL     OW94696  13.120   7.632  12.426
97600SOL    HW194697  13.213   7.653  12.435
97600SOL    HW294698  13.088   7.694  12.361
97601SOL     OW94699  11.966  10.070  12.648
97601SOL    HW194700  12.001  10.156  12.626
97601SOL    HW294701  11.878  10.070  12.610
97602SOL     OW94702  14.759  13.282  13.727
97602SOL    HW194703  14.822  13.278  13.655
97602SOL    HW294704  14.690  13.220  13.703
97603SOL     OW94705   9.956  12.493  11.601
97603SOL    HW194706   9.873  12.514  11.644
97603SOL    HW294707   9.954  12.398  11.590
97604SOL     OW94708   0.560  14.054   5.829
97604SOL    HW194709   0.565  14.053   5.924
97604SOL    HW294710   0.474  14.017   5.808
97605SOL     OW94711   1.805   6.758   1.995
97605SOL    HW194712   1.749   6.832   1.974
97605SOL    HW294713   1.858   6.787   2.069
97606SOL     OW94714   3.400   9.716   5.840
97606SOL    HW194715   3.324   9.747   5.889
97606SOL    HW294716   3.448   9.797   5.817
97607SOL     OW94717   1.903  14.755  10.017
97607SOL    HW194718   1.914  14.805  10.098
97607SOL    HW294719   1.955  14.802   9.952
97608SOL     OW94720   3.113   3.055   3.467
97608SOL    HW194721   3.191   3.047   3.522
97608SOL    HW294722   3.127   3.136   3.417
97609SOL     OW94723   1.628   5.803   8.377
97609SOL    HW194724   1.672   5.878   8.337
97609SOL    HW294725   1.535   5.818   8.360
97610SOL     OW94726   1.424   0.389   9.890
97610SOL    HW194727   1.330   0.407   9.879
97610SOL    HW294728   1.432   0.295   9.879
97611SOL     OW94729   7.576   0.453  13.170
97611SOL    HW194730   7.660   0.453  13.217
97611SOL    HW294731   7.564   0.362  13.143
97612SOL     OW94732   0.091  13.823   9.219
97612SOL    HW194733   0.174  13.825   9.268
97612SOL    HW294734   0.052  13.739   9.240
97613SOL     OW94735   2.343  12.372   1.942
97613SOL    HW194736   2.272  12.387   2.004
97613SOL    HW294737   2.304  12.320   1.872
97614SOL     OW94738   7.560   5.046   6.944
97614SOL    HW194739   7.476   5.064   6.900
97614SOL    HW294740   7.599   5.133   6.955
97615SOL     OW94741  12.399   9.451  10.875
97615SOL    HW194742  12.488   9.436  10.907
97615SOL    HW294743  12.353   9.490  10.949
97616SOL     OW94744   4.137   8.885   2.781
97616SOL    HW194745   4.044   8.900   2.792
97616SOL    HW294746   4.167   8.957   2.726
97617SOL     OW94747   5.189   9.065   2.213
97617SOL    HW194748   5.241   9.075   2.133
97617SOL    HW294749   5.144   8.982   2.202
97618SOL     OW94750   9.432  10.679  11.773
97618SOL    HW194751   9.462  10.593  11.745
97618SOL    HW294752   9.394  10.664  11.859
97619SOL     OW94753   1.536   3.580   7.717
97619SOL    HW194754   1.616   3.542   7.680
97619SOL    HW294755   1.541   3.673   7.695
97620SOL     OW94756  14.721  12.068  12.086
97620SOL    HW194757  14.800  12.080  12.033
97620SOL    HW294758  14.692  11.979  12.066
97621SOL     OW94759  14.784  13.066   3.997
97621SOL    HW194760  14.693  13.039   4.008
97621SOL    HW294761  14.785  13.158   4.025
97622SOL     OW94762   8.681   3.884   1.974
97622SOL    HW194763   8.767   3.849   1.998
97622SOL    HW294764   8.688   3.978   1.991
97623SOL     OW94765   0.004   7.280  13.397
97623SOL    HW194766  14.821   7.201  13.393
97623SOL    HW294767   0.062   7.274  13.321
97624SOL     OW94768   3.612   5.039   0.976
97624SOL    HW194769   3.592   5.111   0.915
97624SOL    HW294770   3.566   4.964   0.940
97625SOL     OW94771   6.398  10.260   7.041
97625SOL    HW194772   6.425  10.352   7.036
97625SOL    HW294773   6.460  10.219   7.101
97626SOL     OW94774  10.375   9.001   6.079
97626SOL    HW194775  10.444   8.958   6.028
97626SOL    HW294776  10.323   9.048   6.014
97627SOL     OW94777   0.609   6.857  14.335
97627SOL    HW194778   0.650   6.777  14.302
97627SOL    HW294779   0.681   6.920  14.342
97628SOL     OW94780  14.747   6.580   3.243
97628SOL    HW194781  14.801   6.555   3.318
97628SOL    HW294782  14.773   6.519   3.174
97629SOL     OW94783   0.133   1.587  13.467
97629SOL    HW194784   0.165   1.614  13.381
97629SOL    HW294785   0.038   1.603  13.463
97630SOL     OW94786   9.656  10.583   0.981
97630SOL    HW194787   9.624  10.642   0.913
97630SOL    HW294788   9.743  10.615   1.002
97631SOL     OW94789   4.710   0.741   2.848
97631SOL    HW194790   4.680   0.696   2.927
97631SOL    HW294791   4.635   0.736   2.788
97632SOL     OW94792   9.538  14.412  10.359
97632SOL    HW194793   9.571  14.439  10.445
97632SOL    HW294794   9.595  14.456  10.296
97633SOL     OW94795   9.313   4.331   2.596
97633SOL    HW194796   9.400   4.339   2.636
97633SOL    HW294797   9.325   4.269   2.524
97634SOL     OW94798  13.694   2.882   2.620
97634SOL    HW194799  13.624   2.884   2.555
97634SOL    HW294800  13.668   2.812   2.680
97635SOL     OW94801   6.237   0.655   4.999
97635SOL    HW194802   6.207   0.684   5.085
97635SOL    HW294803   6.190   0.573   4.983
97636SOL     OW94804  10.027   9.410   5.697
97636SOL    HW194805  10.023   9.472   5.770
97636SOL    HW294806  10.055   9.328   5.736
97637SOL     OW94807  12.105   9.126   3.373
97637SOL    HW194808  12.017   9.164   3.366
97637SOL    HW294809  12.097   9.039   3.335
97638SOL     OW94810   2.063   8.706   9.840
97638SOL    HW194811   2.144   8.684   9.793
97638SOL    HW294812   2.049   8.632   9.899
97639SOL     OW94813  10.764   4.803   9.286
97639SOL    HW194814  10.858   4.822   9.292
97639SOL    HW294815  10.723   4.868   9.343
97640SOL     OW94816   0.040   1.298   6.545
97640SOL    HW194817   0.104   1.302   6.474
97640SOL    HW294818   0.059   1.216   6.590
97641SOL     OW94819  10.199   8.991   9.482
97641SOL    HW194820  10.177   8.907   9.441
97641SOL    HW294821  10.142   8.996   9.558
97642SOL     OW94822   0.436   3.906  14.106
97642SOL    HW194823   0.492   3.964  14.158
97642SOL    HW294824   0.425   3.951  14.023
97643SOL     OW94825   4.041  14.529   2.327
97643SOL    HW194826   4.032  14.578   2.409
97643SOL    HW294827   3.970  14.561   2.272
97644SOL     OW94828   6.360   8.513  13.267
97644SOL    HW194829   6.309   8.594  13.259
97644SOL    HW294830   6.420   8.529  13.340
97645SOL     OW94831   2.763   8.897  13.225
97645SOL    HW194832   2.825   8.878  13.296
97645SOL    HW294833   2.677   8.887  13.265
97646SOL     OW94834  12.284  13.369   6.355
97646SOL    HW194835  12.250  13.441   6.408
97646SOL    HW294836  12.359  13.336   6.404
97647SOL     OW94837  14.158  11.254  10.816
97647SOL    HW194838  14.209  11.305  10.753
97647SOL    HW294839  14.110  11.190  10.762
97648SOL     OW94840  13.859   1.414   5.239
97648SOL    HW194841  13.919   1.472   5.191
97648SOL    HW294842  13.909   1.387   5.316
97649SOL     OW94843   9.019   8.561   9.879
97649SOL    HW194844   8.983   8.609   9.954
97649SOL    HW294845   9.038   8.474   9.914
97650SOL     OW94846   6.531   7.416   5.306
97650SOL    HW194847   6.584   7.449   5.378
97650SOL    HW294848   6.586   7.349   5.265
97651SOL     OW94849   6.462   3.750   7.275
97651SOL    HW194850   6.468   3.658   7.300
97651SOL    HW294851   6.542   3.767   7.225
97652SOL     OW94852  12.073   7.931   7.879
97652SOL    HW194853  11.978   7.920   7.882
97652SOL    HW294854  12.105   7.883   7.955
97653SOL     OW94855   3.415  13.339  11.002
97653SOL    HW194856   3.441  13.431  10.992
97653SOL    HW294857   3.463  13.309  11.080
97654SOL     OW94858   8.009   7.221  12.007
97654SOL    HW194859   7.924   7.181  12.026
97654SOL    HW294860   8.037   7.180  11.925
97655SOL     OW94861  10.595   3.956   0.336
97655SOL    HW194862  10.670   3.924   0.286
97655SOL    HW294863  10.529   3.887   0.325
97656SOL     OW94864   6.893  11.949   1.762
97656SOL    HW194865   6.820  11.897   1.727
97656SOL    HW294866   6.858  12.037   1.771
97657SOL     OW94867   8.807   2.554   5.101
97657SOL    HW194868   8.836   2.639   5.067
97657SOL    HW294869   8.770   2.574   5.187
97658SOL     OW94870   3.348   4.242   6.606
97658SOL    HW194871   3.355   4.306   6.536
97658SOL    HW294872   3.327   4.160   6.562
97659SOL     OW94873   0.766   8.489   5.566
97659SOL    HW194874   0.792   8.484   5.657
97659SOL    HW294875   0.766   8.583   5.546
97660SOL     OW94876  14.106  11.844   4.660
97660SOL    HW194877  14.036  11.908   4.646
97660SOL    HW294878  14.177  11.895   4.699
97661SOL     OW94879   1.928  10.051   8.282
97661SOL    HW194880   1.948  10.013   8.196
97661SOL    HW294881   1.962   9.988   8.345
97662SOL     OW94882   4.163   7.978  14.863
97662SOL    HW194883   4.202   7.983  14.775
97662SOL    HW294884   4.222   8.029   0.048
97663SOL     OW94885   4.234   6.901   5.577
97663SOL    HW194886   4.296   6.939   5.515
97663SOL    HW294887   4.170   6.971   5.592
97664SOL     OW94888   2.735   9.696   4.086
97664SOL    HW194889   2.773   9.780   4.060
97664SOL    HW294890   2.641   9.712   4.089
97665SOL     OW94891   4.545   8.811   5.840
97665SOL    HW194892   4.585   8.808   5.754
97665SOL    HW294893   4.611   8.775   5.899
97666SOL     OW94894  12.071   3.867  10.780
97666SOL    HW194895  12.066   3.951  10.736
97666SOL    HW294896  11.981   3.848  10.805
97667SOL     OW94897  14.405  10.583  13.715
97667SOL    HW194898  14.371  10.559  13.800
97667SOL    HW294899  14.488  10.627  13.734
97668SOL     OW94900  13.159   3.250  14.066
97668SOL    HW194901  13.085   3.296  14.105
97668SOL    HW294902  13.190   3.191  14.134
97669SOL     OW94903  10.058   9.707   9.420
97669SOL    HW194904  10.060   9.789   9.370
97669SOL    HW294905  10.147   9.674   9.416
97670SOL     OW94906   3.780   8.202   0.178
97670SOL    HW194907   3.718   8.129   0.181
97670SOL    HW294908   3.753   8.260   0.249
97671SOL     OW94909   4.599   8.041   0.019
97671SOL    HW194910   4.639   7.979  14.828
97671SOL    HW294911   4.672   8.095   0.049
97672SOL     OW94912   1.895  14.148   8.633
97672SOL    HW194913   1.888  14.144   8.538
97672SOL    HW294914   1.958  14.218   8.651
97673SOL     OW94915   8.288   9.766   8.725
97673SOL    HW194916   8.336   9.773   8.643
97673SOL    HW294917   8.314   9.844   8.774
97674SOL     OW94918   2.570  11.840   0.058
97674SOL    HW194919   2.611  11.891   0.128
97674SOL    HW294920   2.525  11.905   0.005
97675SOL     OW94921   8.471   2.513   8.664
97675SOL    HW194922   8.398   2.571   8.643
97675SOL    HW294923   8.435   2.450   8.726
97676SOL     OW94924   4.243  11.427   5.790
97676SOL    HW194925   4.234  11.521   5.774
97676SOL    HW294926   4.337  11.412   5.796
97677SOL     OW94927   3.805  12.002  11.506
97677SOL    HW194928   3.755  12.079  11.530
97677SOL    HW294929   3.822  12.012  11.412
97678SOL     OW94930  12.075  13.485   0.598
97678SOL    HW194931  12.051  13.439   0.517
97678SOL    HW294932  12.151  13.538   0.574
97679SOL     OW94933   4.741   3.018   3.490
97679SOL    HW194934   4.831   3.034   3.520
97679SOL    HW294935   4.724   3.086   3.426
97680SOL     OW94936   7.882   3.345  11.673
97680SOL    HW194937   7.962   3.323  11.721
97680SOL    HW294938   7.912   3.372  11.586
97681SOL     OW94939   2.940   1.189  12.144
97681SOL    HW194940   3.003   1.162  12.211
97681SOL    HW294941   2.955   1.283  12.134
97682SOL     OW94942  14.600   7.411  14.096
97682SOL    HW194943  14.577   7.458  14.176
97682SOL    HW294944  14.573   7.321  14.113
97683SOL     OW94945  10.065   4.939   4.143
97683SOL    HW194946  10.009   4.956   4.218
97683SOL    HW294947  10.006   4.908   4.074
97684SOL     OW94948  12.889   5.425   0.820
97684SOL    HW194949  12.927   5.381   0.744
97684SOL    HW294950  12.825   5.486   0.783
97685SOL     OW94951   5.838  12.219  14.430
97685SOL    HW194952   5.748  12.186  14.423
97685SOL    HW294953   5.860  12.248  14.342
97686SOL     OW94954  11.401   6.286  12.410
97686SOL    HW194955  11.313   6.322  12.418
97686SOL    HW294956  11.388   6.192  12.399
97687SOL     OW94957   1.688  10.061   8.666
97687SOL    HW194958   1.609  10.013   8.689
97687SOL    HW294959   1.671  10.151   8.694
97688SOL     OW94960   1.154   5.380  13.906
97688SOL    HW194961   1.114   5.302  13.866
97688SOL    HW294962   1.133   5.451  13.845
97689SOL     OW94963  12.291   4.903  14.581
97689SOL    HW194964  12.247   4.859  14.508
97689SOL    HW294965  12.384   4.891  14.563
97690SOL     OW94966   5.323   7.265  11.062
97690SOL    HW194967   5.249   7.219  11.102
97690SOL    HW294968   5.397   7.248  11.122
97691SOL     OW94969   4.770   1.939   3.038
97691SOL    HW194970   4.706   2.005   3.063
97691SOL    HW294971   4.722   1.878   2.982
97692SOL     OW94972   9.354   3.684   2.940
97692SOL    HW194973   9.427   3.735   2.976
97692SOL    HW294974   9.395   3.607   2.901
97693SOL     OW94975   9.592   0.155   8.575
97693SOL    HW194976   9.664   0.200   8.530
97693SOL    HW294977   9.576   0.077   8.521
97694SOL     OW94978   0.008   5.735   6.057
97694SOL    HW194979   0.015   5.754   5.964
97694SOL    HW294980   0.080   5.783   6.098
97695SOL     OW94981  13.195   1.289   3.159
97695SOL    HW194982  13.123   1.349   3.142
97695SOL    HW294983  13.206   1.240   3.077
97696SOL     OW94984   8.321   4.648  10.862
97696SOL    HW194985   8.411   4.678  10.849
97696SOL    HW294986   8.284   4.644  10.774
97697SOL     OW94987   1.177   8.939   8.867
97697SOL    HW194988   1.138   8.864   8.823
97697SOL    HW294989   1.267   8.913   8.885
97698SOL     OW94990   4.610   1.992   6.580
97698SOL    HW194991   4.667   2.017   6.653
97698SOL    HW294992   4.653   2.029   6.503
97699SOL     OW94993   0.215   2.003  14.354
97699SOL    HW194994   0.247   2.064  14.422
97699SOL    HW294995   0.290   1.946  14.337
97700SOL     OW94996   3.940  10.131   5.839
97700SOL    HW194997   3.873  10.120   5.907
97700SOL    HW294998   3.943  10.226   5.824
97701SOL     OW94999   2.648  14.003   3.177
97701SOL    HW195000   2.593  13.959   3.242
97701SOL    HW295001   2.587  14.058   3.128
97702SOL     OW95002   4.464   2.794   4.165
97702SOL    HW195003   4.470   2.889   4.158
97702SOL    HW295004   4.406   2.768   4.093
97703SOL     OW95005   8.468  10.860   0.016
97703SOL    HW195006   8.556  10.837   0.045
97703SOL    HW295007   8.410  10.806   0.070
97704SOL     OW95008   3.849   8.579   6.203
97704SOL    HW195009   3.828   8.511   6.139
97704SOL    HW295010   3.945   8.584   6.202
97705SOL     OW95011  11.812  12.994  13.781
97705SOL    HW195012  11.792  13.084  13.807
97705SOL    HW295013  11.744  12.941  13.822
97706SOL     OW95014   3.374  12.694   2.362
97706SOL    HW195015   3.360  12.789   2.351
97706SOL    HW295016   3.293  12.655   2.328
97707SOL     OW95017  14.194   8.425  12.673
97707SOL    HW195018  14.263   8.385  12.619
97707SOL    HW295019  14.170   8.504  12.625
97708SOL     OW95020   3.283  11.411   7.527
97708SOL    HW195021   3.262  11.340   7.466
97708SOL    HW295022   3.210  11.472   7.519
97709SOL     OW95023  14.448  11.956   3.314
97709SOL    HW195024  14.368  12.008   3.325
97709SOL    HW295025  14.417  11.870   3.287
97710SOL     OW95026  14.743   4.624   9.633
97710SOL    HW195027  14.766   4.577   9.553
97710SOL    HW295028  14.691   4.562   9.684
97711SOL     OW95029   3.113   8.773  14.109
97711SOL    HW195030   3.065   8.758  14.190
97711SOL    HW295031   3.053   8.746  14.040
97712SOL     OW95032   1.610   6.274  11.772
97712SOL    HW195033   1.669   6.228  11.831
97712SOL    HW295034   1.561   6.204  11.728
97713SOL     OW95035   7.439  10.244   5.460
97713SOL    HW195036   7.518  10.297   5.473
97713SOL    HW295037   7.369  10.309   5.452
97714SOL     OW95038  14.179   5.662  10.704
97714SOL    HW195039  14.108   5.662  10.769
97714SOL    HW295040  14.145   5.612  10.631
97715SOL     OW95041  11.550   2.851   7.860
97715SOL    HW195042  11.583   2.770   7.900
97715SOL    HW295043  11.562   2.837   7.766
97716SOL     OW95044  11.830   9.552   1.379
97716SOL    HW195045  11.769   9.542   1.452
97716SOL    HW295046  11.916   9.536   1.417
97717SOL     OW95047   4.600   1.712  10.924
97717SOL    HW195048   4.620   1.672  10.839
97717SOL    HW295049   4.505   1.721  10.925
97718SOL     OW95050  13.816  12.589   8.178
97718SOL    HW195051  13.781  12.641   8.250
97718SOL    HW295052  13.745  12.587   8.114
97719SOL     OW95053   7.422  14.751   6.880
97719SOL    HW195054   7.428  14.805   6.958
97719SOL    HW295055   7.502  14.769   6.831
97720SOL     OW95056   9.720  13.443   5.295
97720SOL    HW195057   9.674  13.522   5.322
97720SOL    HW295058   9.728  13.451   5.200
97721SOL     OW95059   2.774   1.522   4.907
97721SOL    HW195060   2.745   1.437   4.875
97721SOL    HW295061   2.835   1.553   4.839
97722SOL     OW95062   9.075  14.625   7.103
97722SOL    HW195063   9.095  14.704   7.051
97722SOL    HW295064   9.121  14.555   7.057
97723SOL     OW95065   5.288   8.935   5.336
97723SOL    HW195066   5.310   8.842   5.328
97723SOL    HW295067   5.254   8.959   5.250
97724SOL     OW95068   6.676   4.069   7.345
97724SOL    HW195069   6.592   4.087   7.386
97724SOL    HW295070   6.732   4.142   7.372
97725SOL     OW95071  12.734   0.102   1.033
97725SOL    HW195072  12.792   0.125   1.107
97725SOL    HW295073  12.655   0.154   1.048
97726SOL     OW95074   4.523   2.461   0.784
97726SOL    HW195075   4.436   2.438   0.751
97726SOL    HW295076   4.510   2.478   0.877
97727SOL     OW95077   8.312   9.411  11.607
97727SOL    HW195078   8.389   9.429  11.552
97727SOL    HW295079   8.347   9.368  11.685
97728SOL     OW95080  13.170   0.293   8.450
97728SOL    HW195081  13.260   0.315   8.475
97728SOL    HW295082  13.116   0.363   8.487
97729SOL     OW95083  12.299  12.105   2.411
97729SOL    HW195084  12.369  12.062   2.460
97729SOL    HW295085  12.224  12.102   2.470
97730SOL     OW95086  11.134   8.790   2.817
97730SOL    HW195087  11.094   8.862   2.768
97730SOL    HW295088  11.145   8.824   2.905
97731SOL     OW95089   3.641   3.692   1.858
97731SOL    HW195090   3.565   3.690   1.917
97731SOL    HW295091   3.659   3.599   1.841
97732SOL     OW95092  12.556   1.090   1.913
97732SOL    HW195093  12.600   1.149   1.853
97732SOL    HW295094  12.599   1.006   1.900
97733SOL     OW95095   3.327  12.597   9.159
97733SOL    HW195096   3.235  12.624   9.166
97733SOL    HW295097   3.351  12.614   9.068
97734SOL     OW95098   2.848  11.340   1.021
97734SOL    HW195099   2.776  11.301   1.069
97734SOL    HW295100   2.810  11.417   0.979
97735SOL     OW95101  10.636   5.848   6.839
97735SOL    HW195102  10.602   5.896   6.915
97735SOL    HW295103  10.613   5.757   6.856
97736SOL     OW95104   7.448   9.256   4.877
97736SOL    HW195105   7.361   9.291   4.857
97736SOL    HW295106   7.503   9.333   4.890
97737SOL     OW95107   5.344   3.053   6.134
97737SOL    HW195108   5.289   2.981   6.102
97737SOL    HW295109   5.344   3.116   6.062
97738SOL     OW95110   9.196   5.279   5.991
97738SOL    HW195111   9.230   5.368   5.985
97738SOL    HW295112   9.147   5.266   5.910
97739SOL     OW95113  10.511   5.530  11.702
97739SOL    HW195114  10.497   5.437  11.722
97739SOL    HW295115  10.581   5.530  11.637
97740SOL     OW95116   6.294   9.239   2.819
97740SOL    HW195117   6.235   9.301   2.862
97740SOL    HW295118   6.379   9.255   2.861
97741SOL     OW95119   2.750  11.704   4.092
97741SOL    HW195120   2.743  11.654   4.011
97741SOL    HW295121   2.668  11.686   4.139
97742SOL     OW95122   9.080   9.156   9.161
97742SOL    HW195123   9.011   9.137   9.097
97742SOL    HW295124   9.039   9.137   9.245
97743SOL     OW95125   4.657   9.721  11.984
97743SOL    HW195126   4.699   9.636  11.971
97743SOL    HW295127   4.718   9.785  11.947
97744SOL     OW95128   0.347   2.647  12.060
97744SOL    HW195129   0.350   2.614  11.970
97744SOL    HW295130   0.361   2.569  12.114
97745SOL     OW95131   9.751  12.471  10.706
97745SOL    HW195132   9.762  12.519  10.788
97745SOL    HW295133   9.789  12.528  10.639
97746SOL     OW95134   6.757   0.146   8.762
97746SOL    HW195135   6.788   0.056   8.777
97746SOL    HW295136   6.681   0.155   8.818
97747SOL     OW95137   1.418  11.599   7.412
97747SOL    HW195138   1.354  11.528   7.411
97747SOL    HW295139   1.501  11.556   7.429
97748SOL     OW95140   1.680  11.771   4.974
97748SOL    HW195141   1.719  11.825   4.905
97748SOL    HW295142   1.742  11.777   5.047
97749SOL     OW95143  14.703  14.417   4.965
97749SOL    HW195144  14.784  14.453   4.999
97749SOL    HW295145  14.643  14.418   5.039
97750SOL     OW95146   5.446   2.404   4.798
97750SOL    HW195147   5.367   2.442   4.837
97750SOL    HW295148   5.413   2.345   4.730
97751SOL     OW95149   7.565  12.872   5.056
97751SOL    HW195150   7.593  12.819   4.981
97751SOL    HW295151   7.472  12.852   5.065
97752SOL     OW95152   7.978   4.353   2.996
97752SOL    HW195153   7.892   4.350   2.953
97752SOL    HW295154   8.040   4.329   2.928
97753SOL     OW95155   3.646  12.169   8.129
97753SOL    HW195156   3.599  12.217   8.062
97753SOL    HW295157   3.717  12.227   8.157
97754SOL     OW95158  12.698   6.665  13.904
97754SOL    HW195159  12.691   6.755  13.934
97754SOL    HW295160  12.752   6.622  13.970
97755SOL     OW95161  10.268  10.694   1.019
97755SOL    HW195162  10.325  10.770   1.007
97755SOL    HW295163  10.308  10.626   0.965
97756SOL     OW95164  13.051   9.713   1.629
97756SOL    HW195165  12.981   9.778   1.626
97756SOL    HW295166  13.041   9.664   1.547
97757SOL     OW95167   3.247   0.070   2.979
97757SOL    HW195168   3.237  14.857   3.026
97757SOL    HW295169   3.263   0.134   3.048
97758SOL     OW95170   8.648   8.318   4.317
97758SOL    HW195171   8.588   8.258   4.362
97758SOL    HW295172   8.713   8.261   4.276
97759SOL     OW95173   9.603   9.737   6.595
97759SOL    HW195174   9.619   9.762   6.686
97759SOL    HW295175   9.675   9.776   6.546
97760SOL     OW95176   6.063   8.132   2.301
97760SOL    HW195177   6.017   8.205   2.343
97760SOL    HW295178   6.152   8.165   2.287
97761SOL     OW95179  13.491   7.389  14.569
97761SOL    HW195180  13.479   7.369  14.476
97761SOL    HW295181  13.541   7.315  14.603
97762SOL     OW95182  11.706   9.337   7.771
97762SOL    HW195183  11.784   9.288   7.746
97762SOL    HW295184  11.702   9.329   7.866
97763SOL     OW95185   8.479   0.579   6.089
97763SOL    HW195186   8.452   0.557   6.000
97763SOL    HW295187   8.571   0.553   6.093
97764SOL     OW95188   0.877   6.627   7.137
97764SOL    HW195189   0.961   6.643   7.179
97764SOL    HW295190   0.871   6.532   7.130
97765SOL     OW95191  10.548   7.016  13.707
97765SOL    HW195192  10.572   6.953  13.776
97765SOL    HW295193  10.476   6.973  13.660
97766SOL     OW95194   1.579   0.511   3.837
97766SOL    HW195195   1.575   0.563   3.917
97766SOL    HW295196   1.512   0.444   3.849
97767SOL     OW95197  14.052  11.259   0.643
97767SOL    HW195198  14.088  11.170   0.649
97767SOL    HW295199  13.994  11.257   0.567
97768SOL     OW95200   8.412  14.530   4.008
97768SOL    HW195201   8.380  14.486   3.929
97768SOL    HW295202   8.488  14.478   4.035
97769SOL     OW95203  10.374   2.213   5.320
97769SOL    HW195204  10.297   2.226   5.377
97769SOL    HW295205  10.356   2.267   5.243
97770SOL     OW95206   3.878   6.768  13.642
97770SOL    HW195207   3.932   6.697  13.676
97770SOL    HW295208   3.807   6.723  13.595
97771SOL     OW95209   9.040   3.468  11.960
97771SOL    HW195210   8.989   3.414  12.021
97771SOL    HW295211   8.984   3.477  11.883
97772SOL     OW95212  14.576   7.238  12.535
97772SOL    HW195213  14.529   7.221  12.454
97772SOL    HW295214  14.537   7.317  12.571
97773SOL     OW95215   9.444  10.729   0.843
97773SOL    HW195216   9.383  10.793   0.807
97773SOL    HW295217   9.439  10.655   0.783
97774SOL     OW95218  11.068   2.208  11.854
97774SOL    HW195219  11.051   2.127  11.806
97774SOL    HW295220  10.985   2.228  11.898
97775SOL     OW95221  11.961   4.601   8.243
97775SOL    HW195222  11.877   4.625   8.281
97775SOL    HW295223  11.957   4.506   8.232
97776SOL     OW95224   8.115  11.653   9.772
97776SOL    HW195225   8.135  11.566   9.739
97776SOL    HW295226   8.199  11.698   9.776
97777SOL     OW95227   1.912  14.525  14.832
97777SOL    HW195228   1.927  14.532   0.057
97777SOL    HW295229   1.818  14.506  14.825
97778SOL     OW95230   6.977   7.135  12.550
97778SOL    HW195231   7.029   7.149  12.470
97778SOL    HW295232   6.954   7.042  12.548
97779SOL     OW95233   0.943  11.479   4.247
97779SOL    HW195234   0.889  11.522   4.180
97779SOL    HW295235   0.881  11.426   4.297
97780SOL     OW95236   4.876   7.434  14.090
97780SOL    HW195237   4.839   7.423  14.002
97780SOL    HW295238   4.841   7.360  14.140
97781SOL     OW95239   2.786   2.022  10.195
97781SOL    HW195240   2.736   1.957  10.146
97781SOL    HW295241   2.747   2.020  10.283
97782SOL     OW95242  14.437   8.188  14.795
97782SOL    HW195243  14.398   8.208   0.011
97782SOL    HW295244  14.390   8.243  14.733
97783SOL     OW95245   7.945  13.389  14.733
97783SOL    HW195246   7.967  13.447  14.805
97783SOL    HW295247   7.914  13.447  14.664
97784SOL     OW95248   6.853   6.234  14.137
97784SOL    HW195249   6.888   6.322  14.138
97784SOL    HW295250   6.758   6.246  14.131
97785SOL     OW95251   6.425  13.859   5.771
97785SOL    HW195252   6.485  13.800   5.817
97785SOL    HW295253   6.385  13.804   5.703
97786SOL     OW95254  11.234   6.403   3.400
97786SOL    HW195255  11.181   6.464   3.452
97786SOL    HW295256  11.170   6.356   3.345
97787SOL     OW95257   8.504  12.008  10.175
97787SOL    HW195258   8.416  12.040  10.198
97787SOL    HW295259   8.560  12.086  10.182
97788SOL     OW95260   7.946  10.991   0.428
97788SOL    HW195261   7.931  11.085   0.418
97788SOL    HW295262   8.041  10.983   0.442
97789SOL     OW95263   2.000   7.579  11.360
97789SOL    HW195264   2.034   7.525  11.431
97789SOL    HW295265   2.042   7.545  11.281
97790SOL     OW95266   9.176   7.752   2.999
97790SOL    HW195267   9.238   7.690   3.037
97790SOL    HW295268   9.154   7.812   3.071
97791SOL     OW95269   3.526  14.115   3.187
97791SOL    HW195270   3.546  14.166   3.110
97791SOL    HW295271   3.548  14.172   3.261
97792SOL     OW95272   7.790  10.003  11.978
97792SOL    HW195273   7.827   9.929  12.028
97792SOL    HW295274   7.855  10.019  11.910
97793SOL     OW95275   1.522  12.867  11.122
97793SOL    HW195276   1.568  12.819  11.053
97793SOL    HW295277   1.555  12.957  11.114
97794SOL     OW95278  14.308  14.531   6.359
97794SOL    HW195279  14.321  14.478   6.438
97794SOL    HW295280  14.216  14.555   6.361
97795SOL     OW95281   3.232   7.622   0.690
97795SOL    HW195282   3.168   7.612   0.620
97795SOL    HW295283   3.269   7.709   0.677
97796SOL     OW95284   7.789  12.996   4.495
97796SOL    HW195285   7.766  13.056   4.424
97796SOL    HW295286   7.823  12.919   4.450
97797SOL     OW95287   1.257  10.275   9.236
97797SOL    HW195288   1.221  10.192   9.265
97797SOL    HW295289   1.181  10.333   9.228
97798SOL     OW95290   2.174  14.134   3.170
97798SOL    HW195291   2.164  14.133   3.265
97798SOL    HW295292   2.110  14.199   3.140
97799SOL     OW95293  10.417   4.053  14.462
97799SOL    HW195294  10.495   4.004  14.435
97799SOL    HW295295  10.391   4.013  14.545
97800SOL     OW95296   9.669   3.088   9.605
97800SOL    HW195297   9.585   3.104   9.561
97800SOL    HW295298   9.656   3.118   9.695
97801SOL     OW95299   4.656  11.389   2.466
97801SOL    HW195300   4.646  11.378   2.372
97801SOL    HW295301   4.576  11.352   2.504
97802SOL     OW95302   5.482  14.574   1.511
97802SOL    HW195303   5.441  14.636   1.572
97802SOL    HW295304   5.573  14.569   1.539
97803SOL     OW95305  14.295  14.003   8.172
97803SOL    HW195306  14.210  14.020   8.131
97803SOL    HW295307  14.281  13.923   8.223
97804SOL     OW95308  14.211   8.233  10.719
97804SOL    HW195309  14.243   8.207  10.805
97804SOL    HW295310  14.179   8.323  10.732
97805SOL     OW95311  11.263   0.053   8.735
97805SOL    HW195312  11.280  14.845   8.681
97805SOL    HW295313  11.330   0.115   8.709
97806SOL     OW95314  12.642  10.582   6.970
97806SOL    HW195315  12.689  10.505   6.939
97806SOL    HW295316  12.624  10.564   7.062
97807SOL     OW95317   2.382   8.225   2.045
97807SOL    HW195318   2.296   8.252   2.013
97807SOL    HW295319   2.418   8.302   2.089
97808SOL     OW95320  14.679   2.069   1.087
97808SOL    HW195321  14.707   2.150   1.045
97808SOL    HW295322  14.675   2.091   1.181
97809SOL     OW95323   7.100   3.119   1.907
97809SOL    HW195324   7.135   3.035   1.877
97809SOL    HW295325   7.141   3.133   1.993
97810SOL     OW95326  14.376   6.247   3.139
97810SOL    HW195327  14.349   6.183   3.074
97810SOL    HW295328  14.416   6.318   3.089
97811SOL     OW95329   1.271   2.940   2.248
97811SOL    HW195330   1.286   3.025   2.206
97811SOL    HW295331   1.218   2.960   2.325
97812SOL     OW95332   2.311   0.455   2.776
97812SOL    HW195333   2.286   0.405   2.853
97812SOL    HW295334   2.399   0.423   2.754
97813SOL     OW95335  14.850  10.854   3.556
97813SOL    HW195336   0.024  10.905   3.489
97813SOL    HW295337  14.839  10.915   3.629
97814SOL     OW95338   1.677  10.231   7.223
97814SOL    HW195339   1.653  10.307   7.276
97814SOL    HW295340   1.664  10.259   7.133
97815SOL     OW95341   5.542   0.319   7.584
97815SOL    HW195342   5.515   0.274   7.504
97815SOL    HW295343   5.540   0.412   7.561
97816SOL     OW95344  12.261   0.985  12.181
97816SOL    HW195345  12.307   0.922  12.235
97816SOL    HW295346  12.253   0.942  12.096
97817SOL     OW95347  13.114   8.870   5.343
97817SOL    HW195348  13.054   8.940   5.370
97817SOL    HW295349  13.098   8.800   5.407
97818SOL     OW95350   4.328  14.265   6.946
97818SOL    HW195351   4.379  14.210   7.005
97818SOL    HW295352   4.352  14.355   6.969
97819SOL     OW95353   0.593   6.849   1.730
97819SOL    HW195354   0.528   6.819   1.666
97819SOL    HW295355   0.671   6.798   1.710
97820SOL     OW95356  10.605   5.989   4.046
97820SOL    HW195357  10.542   5.961   3.979
97820SOL    HW295358  10.592   6.084   4.052
97821SOL     OW95359   9.221   1.259  11.805
97821SOL    HW195360   9.159   1.219  11.866
97821SOL    HW295361   9.221   1.202  11.729
97822SOL     OW95362  14.611   7.070   7.052
97822SOL    HW195363  14.634   7.093   6.962
97822SOL    HW295364  14.678   7.007   7.079
97823SOL     OW95365  12.390  13.339  12.724
97823SOL    HW195366  12.437  13.262  12.753
97823SOL    HW295367  12.442  13.373  12.651
97824SOL     OW95368   9.294   7.020  10.195
97824SOL    HW195369   9.346   6.967  10.256
97824SOL    HW295370   9.330   7.000  10.108
97825SOL     OW95371   2.450  13.710   4.926
97825SOL    HW195372   2.417  13.630   4.887
97825SOL    HW295373   2.532  13.728   4.880
97826SOL     OW95374   7.430   3.498   1.053
97826SOL    HW195375   7.524   3.486   1.067
97826SOL    HW295376   7.393   3.495   1.141
97827SOL     OW95377  13.476   8.977   7.417
97827SOL    HW195378  13.509   8.889   7.401
97827SOL    HW295379  13.402   8.987   7.357
97828SOL     OW95380   8.161  14.730  13.010
97828SOL    HW195381   8.231  14.750  13.072
97828SOL    HW295382   8.091  14.693  13.063
97829SOL     OW95383  13.128   7.952   3.145
97829SOL    HW195384  13.041   7.986   3.126
97829SOL    HW295385  13.168   8.018   3.202
97830SOL     OW95386  13.717  10.193   0.159
97830SOL    HW195387  13.647  10.154   0.107
97830SOL    HW295388  13.715  10.286   0.136
97831SOL     OW95389   1.052  11.941  11.160
97831SOL    HW195390   1.070  11.941  11.254
97831SOL    HW295391   1.131  11.977  11.120
97832SOL     OW95392  12.530   1.805   2.857
97832SOL    HW195393  12.525   1.712   2.834
97832SOL    HW295394  12.586   1.807   2.934
97833SOL     OW95395   1.898   6.339   5.531
97833SOL    HW195396   1.923   6.369   5.619
97833SOL    HW295397   1.848   6.259   5.547
97834SOL     OW95398   2.077   8.439   3.356
97834SOL    HW195399   2.155   8.495   3.354
97834SOL    HW295400   2.022   8.473   3.285
97835SOL     OW95401   8.030   6.188   4.703
97835SOL    HW195402   8.006   6.202   4.611
97835SOL    HW295403   8.098   6.253   4.721
97836SOL     OW95404  14.814   8.891  13.501
97836SOL    HW195405  14.859   8.975  13.488
97836SOL    HW295406  14.760   8.881  13.423
97837SOL     OW95407   0.069   1.743  10.524
97837SOL    HW195408   0.011   1.733  10.448
97837SOL    HW295409   0.143   1.685  10.505
97838SOL     OW95410   8.586  13.834   7.285
97838SOL    HW195411   8.557  13.767   7.223
97838SOL    HW295412   8.673  13.805   7.312
97839SOL     OW95413  11.139   6.605  13.038
97839SOL    HW195414  11.234   6.604  13.028
97839SOL    HW295415  11.115   6.697  13.031
97840SOL     OW95416   6.841   7.514   9.573
97840SOL    HW195417   6.813   7.500   9.482
97840SOL    HW295418   6.767   7.486   9.626
97841SOL     OW95419   7.672   6.482   6.172
97841SOL    HW195420   7.737   6.527   6.225
97841SOL    HW295421   7.588   6.507   6.212
97842SOL     OW95422  13.600   8.975   5.205
97842SOL    HW195423  13.509   9.005   5.208
97842SOL    HW295424  13.595   8.886   5.170
97843SOL     OW95425   3.481   4.182   8.756
97843SOL    HW195426   3.529   4.216   8.832
97843SOL    HW295427   3.542   4.188   8.683
97844SOL     OW95428  14.075   5.933   7.601
97844SOL    HW195429  14.072   5.839   7.583
97844SOL    HW295430  14.116   5.971   7.523
97845SOL     OW95431   9.436   6.790   4.049
97845SOL    HW195432   9.362   6.817   4.103
97845SOL    HW295433   9.451   6.698   4.073
97846SOL     OW95434   5.717  13.700   4.980
97846SOL    HW195435   5.628  13.668   4.997
97846SOL    HW295436   5.741  13.659   4.897
97847SOL     OW95437   3.598  11.060  12.787
97847SOL    HW195438   3.681  11.101  12.811
97847SOL    HW295439   3.618  10.966  12.785
97848SOL     OW95440   8.153  10.773  11.681
97848SOL    HW195441   8.107  10.772  11.596
97848SOL    HW295442   8.174  10.682  11.699
97849SOL     OW95443  12.449  13.641   9.031
97849SOL    HW195444  12.402  13.558   9.023
97849SOL    HW295445  12.529  13.619   9.078
97850SOL     OW95446   7.709   4.765   6.978
97850SOL    HW195447   7.671   4.713   6.907
97850SOL    HW295448   7.668   4.851   6.970
97851SOL     OW95449   4.327   1.448   1.487
97851SOL    HW195450   4.371   1.475   1.407
97851SOL    HW295451   4.397   1.410   1.541
97852SOL     OW95452   1.250  13.183   4.884
97852SOL    HW195453   1.327  13.129   4.866
97852SOL    HW295454   1.254  13.198   4.978
97853SOL     OW95455  11.215  10.284  13.477
97853SOL    HW195456  11.187  10.295  13.568
97853SOL    HW295457  11.297  10.235  13.483
97854SOL     OW95458   4.795   9.173   6.250
97854SOL    HW195459   4.733   9.115   6.295
97854SOL    HW295460   4.826   9.122   6.176
97855SOL     OW95461   2.520   8.865  12.939
97855SOL    HW195462   2.612   8.886  12.955
97855SOL    HW295463   2.502   8.899  12.852
97856SOL     OW95464  11.576   1.429   6.966
97856SOL    HW195465  11.484   1.404   6.954
97856SOL    HW295466  11.621   1.392   6.891
97857SOL     OW95467  12.780   8.851   7.096
97857SOL    HW195468  12.851   8.854   7.161
97857SOL    HW295469  12.799   8.924   7.037
97858SOL     OW95470   1.832   3.560   9.306
97858SOL    HW195471   1.850   3.466   9.300
97858SOL    HW295472   1.865   3.585   9.393
97859SOL     OW95473   3.530   7.426   5.505
97859SOL    HW195474   3.555   7.511   5.467
97859SOL    HW295475   3.610   7.374   5.504
97860SOL     OW95476   0.460   5.299   8.339
97860SOL    HW195477   0.394   5.367   8.353
97860SOL    HW295478   0.541   5.335   8.376
97861SOL     OW95479   0.594  12.818   5.234
97861SOL    HW195480   0.560  12.846   5.320
97861SOL    HW295481   0.674  12.770   5.255
97862SOL     OW95482   7.641   1.618   1.786
97862SOL    HW195483   7.730   1.639   1.756
97862SOL    HW295484   7.653   1.588   1.877
97863SOL     OW95485   4.111   4.986   7.853
97863SOL    HW195486   4.023   5.000   7.819
97863SOL    HW295487   4.138   5.072   7.886
97864SOL     OW95488  10.957   2.556   4.562
97864SOL    HW195489  10.934   2.629   4.505
97864SOL    HW295490  11.023   2.506   4.514
97865SOL     OW95491   7.711   6.315   7.644
97865SOL    HW195492   7.748   6.275   7.723
97865SOL    HW295493   7.786   6.326   7.586
97866SOL     OW95494  10.756   7.630   7.180
97866SOL    HW195495  10.678   7.655   7.131
97866SOL    HW295496  10.721   7.589   7.260
97867SOL     OW95497   1.716  10.353   4.441
97867SOL    HW195498   1.752  10.371   4.528
97867SOL    HW295499   1.639  10.298   4.459
97868SOL     OW95500   8.530   2.834   4.382
97868SOL    HW195501   8.555   2.861   4.294
97868SOL    HW295502   8.471   2.760   4.369
97869SOL     OW95503   2.340   4.028   5.217
97869SOL    HW195504   2.429   4.032   5.251
97869SOL    HW295505   2.290   4.087   5.274
97870SOL     OW95506  13.311   7.257   8.483
97870SOL    HW195507  13.265   7.322   8.429
97870SOL    HW295508  13.273   7.173   8.456
97871SOL     OW95509   6.401   5.264   8.839
97871SOL    HW195510   6.306   5.255   8.839
97871SOL    HW295511   6.434   5.174   8.838
97872SOL     OW95512  10.102   4.762  14.590
97872SOL    HW195513  10.060   4.799  14.512
97872SOL    HW295514  10.100   4.667  14.576
97873SOL     OW95515   0.232  14.548  13.703
97873SOL    HW195516   0.289  14.609  13.655
97873SOL    HW295517   0.207  14.482  13.638
97874SOL     OW95518  10.147  10.540  10.322
97874SOL    HW195519  10.086  10.487  10.272
97874SOL    HW295520  10.136  10.629  10.289
97875SOL     OW95521  11.936   8.646   3.153
97875SOL    HW195522  11.852   8.644   3.107
97875SOL    HW295523  11.946   8.557   3.188
97876SOL     OW95524   0.258   2.895   4.748
97876SOL    HW195525   0.313   2.828   4.706
97876SOL    HW295526   0.230   2.855   4.830
97877SOL     OW95527  14.306   8.455   7.216
97877SOL    HW195528  14.288   8.530   7.160
97877SOL    HW295529  14.257   8.383   7.175
97878SOL     OW95530   2.630   6.403   5.578
97878SOL    HW195531   2.615   6.328   5.635
97878SOL    HW295532   2.722   6.426   5.591
97879SOL     OW95533  13.429   0.800   1.472
97879SOL    HW195534  13.397   0.726   1.523
97879SOL    HW295535  13.477   0.854   1.535
97880SOL     OW95536   7.855   2.211   8.727
97880SOL    HW195537   7.896   2.290   8.691
97880SOL    HW295538   7.804   2.176   8.654
97881SOL     OW95539  12.133  12.506  14.211
97881SOL    HW195540  12.130  12.421  14.167
97881SOL    HW295541  12.154  12.569  14.142
97882SOL     OW95542   6.511   4.325   5.908
97882SOL    HW195543   6.450   4.260   5.873
97882SOL    HW295544   6.489   4.406   5.862
97883SOL     OW95545   9.672  10.450   9.843
97883SOL    HW195546   9.633  10.362   9.837
97883SOL    HW295547   9.646  10.482   9.929
97884SOL     OW95548   9.157   2.823   8.656
97884SOL    HW195549   9.242   2.865   8.646
97884SOL    HW295550   9.106   2.853   8.581
97885SOL     OW95551   4.645  13.962  14.373
97885SOL    HW195552   4.550  13.961  14.377
97885SOL    HW295553   4.673  13.923  14.456
97886SOL     OW95554   1.237  10.655   3.222
97886SOL    HW195555   1.198  10.722   3.279
97886SOL    HW295556   1.170  10.638   3.155
97887SOL     OW95557  13.070   6.665  11.360
97887SOL    HW195558  13.104   6.706  11.440
97887SOL    HW295559  12.975   6.666  11.372
97888SOL     OW95560   3.610  14.170   0.238
97888SOL    HW195561   3.684  14.231   0.240
97888SOL    HW295562   3.542  14.217   0.190
97889SOL     OW95563  10.168   2.472   4.149
97889SOL    HW195564  10.238   2.444   4.208
97889SOL    HW295565  10.177   2.567   4.145
97890SOL     OW95566   3.779   4.527   2.259
97890SOL    HW195567   3.692   4.495   2.280
97890SOL    HW295568   3.837   4.452   2.273
97891SOL     OW95569   9.283   8.622  12.894
97891SOL    HW195570   9.239   8.562  12.954
97891SOL    HW295571   9.212   8.675  12.857
97892SOL     OW95572   6.359   4.454   7.116
97892SOL    HW195573   6.378   4.515   7.045
97892SOL    HW295574   6.313   4.506   7.182
97893SOL     OW95575  11.963   4.473   0.106
97893SOL    HW195576  11.977   4.513   0.021
97893SOL    HW295577  12.028   4.403   0.111
97894SOL     OW95578  11.980   5.836  11.310
97894SOL    HW195579  12.016   5.749  11.291
97894SOL    HW295580  11.925   5.823  11.387
97895SOL     OW95581  10.417   2.317   2.848
97895SOL    HW195582  10.470   2.392   2.876
97895SOL    HW295583  10.362   2.297   2.923
97896SOL     OW95584   6.332  12.697   8.666
97896SOL    HW195585   6.280  12.775   8.686
97896SOL    HW295586   6.269  12.633   8.634
97897SOL     OW95587   0.779   6.705   6.884
97897SOL    HW195588   0.827   6.666   6.958
97897SOL    HW295589   0.778   6.799   6.902
97898SOL     OW95590  10.841  12.142   7.343
97898SOL    HW195591  10.798  12.064   7.309
97898SOL    HW295592  10.868  12.118   7.432
97899SOL     OW95593   7.870   3.835   3.495
97899SOL    HW195594   7.890   3.749   3.533
97899SOL    HW295595   7.795   3.818   3.438
97900SOL     OW95596  13.547   2.740  14.449
97900SOL    HW195597  13.502   2.717  14.530
97900SOL    HW295598  13.568   2.655  14.409
97901SOL     OW95599  14.750   0.737   9.373
97901SOL    HW195600  14.825   0.679   9.363
97901SOL    HW295601  14.674   0.683   9.350
97902SOL     OW95602   1.860   5.368   7.321
97902SOL    HW195603   1.870   5.284   7.368
97902SOL    HW295604   1.932   5.421   7.353
97903SOL     OW95605   1.374   4.740   3.503
97903SOL    HW195606   1.333   4.686   3.570
97903SOL    HW295607   1.456   4.695   3.482
97904SOL     OW95608  11.801  12.317   0.294
97904SOL    HW195609  11.786  12.363   0.211
97904SOL    HW295610  11.872  12.255   0.274
97905SOL     OW95611  10.106  10.854   4.954
97905SOL    HW195612  10.046  10.797   5.002
97905SOL    HW295613  10.049  10.911   4.902
97906SOL     OW95614  13.627  13.725   4.596
97906SOL    HW195615  13.712  13.767   4.613
97906SOL    HW295616  13.651  13.638   4.564
97907SOL     OW95617   8.028   3.110   0.299
97907SOL    HW195618   8.000   3.065   0.219
97907SOL    HW295619   8.078   3.186   0.269
97908SOL     OW95620   2.619  12.450   9.383
97908SOL    HW195621   2.681  12.432   9.454
97908SOL    HW295622   2.628  12.544   9.366
97909SOL     OW95623   3.494   6.687  11.694
97909SOL    HW195624   3.569   6.730  11.653
97909SOL    HW295625   3.453   6.756  11.747
97910SOL     OW95626   4.623   4.681  11.058
97910SOL    HW195627   4.653   4.699  10.969
97910SOL    HW295628   4.642   4.761  11.107
97911SOL     OW95629   5.234  12.577   4.437
97911SOL    HW195630   5.303  12.600   4.499
97911SOL    HW295631   5.198  12.661   4.408
97912SOL     OW95632   5.491   9.536   4.870
97912SOL    HW195633   5.547   9.479   4.923
97912SOL    HW295634   5.412   9.484   4.856
97913SOL     OW95635  13.562   9.914  10.183
97913SOL    HW195636  13.581   9.986  10.123
97913SOL    HW295637  13.621   9.844  10.156
97914SOL     OW95638   3.869   6.655   2.815
97914SOL    HW195639   3.888   6.571   2.773
97914SOL    HW295640   3.925   6.657   2.892
97915SOL     OW95641  11.247  13.335   6.184
97915SOL    HW195642  11.327  13.368   6.142
97915SOL    HW295643  11.191  13.412   6.192
97916SOL     OW95644   0.868   1.995  12.441
97916SOL    HW195645   0.848   1.969  12.530
97916SOL    HW295646   0.833   1.925  12.386
97917SOL     OW95647   1.019  11.489  10.898
97917SOL    HW195648   1.112  11.465  10.893
97917SOL    HW295649   0.977  11.416  10.944
97918SOL     OW95650   2.472   8.803   8.875
97918SOL    HW195651   2.383   8.814   8.842
97918SOL    HW295652   2.462   8.791   8.969
97919SOL     OW95653  12.618   1.297  10.481
97919SOL    HW195654  12.709   1.323  10.470
97919SOL    HW295655  12.568   1.374  10.456
97920SOL     OW95656   6.600  11.440  12.384
97920SOL    HW195657   6.525  11.398  12.427
97920SOL    HW295658   6.645  11.486  12.455
97921SOL     OW95659   0.741   5.013  10.051
97921SOL    HW195660   0.744   5.094   9.999
97921SOL    HW295661   0.833   4.989  10.062
97922SOL     OW95662  12.361   5.182   8.196
97922SOL    HW195663  12.316   5.266   8.204
97922SOL    HW295664  12.451   5.201   8.222
97923SOL     OW95665   3.573  14.098   8.721
97923SOL    HW195666   3.666  14.105   8.701
97923SOL    HW295667   3.562  14.010   8.756
97924SOL     OW95668   9.485   9.608   2.185
97924SOL    HW195669   9.401   9.654   2.181
97924SOL    HW295670   9.461   9.517   2.202
97925SOL     OW95671  14.583   0.641  11.074
97925SOL    HW195672  14.490   0.640  11.094
97925SOL    HW295673  14.592   0.702  11.002
97926SOL     OW95674  11.176  13.700   4.078
97926SOL    HW195675  11.094  13.651   4.078
97926SOL    HW295676  11.236  13.648   4.025
97927SOL     OW95677  11.620   1.305   8.061
97927SOL    HW195678  11.578   1.220   8.050
97927SOL    HW295679  11.622   1.342   7.973
97928SOL     OW95680   9.647   3.390   5.355
97928SOL    HW195681   9.648   3.445   5.276
97928SOL    HW295682   9.603   3.444   5.421
97929SOL     OW95683   3.827  14.654   3.557
97929SOL    HW195684   3.819  14.657   3.652
97929SOL    HW295685   3.742  14.681   3.524
97930SOL     OW95686   2.573  11.366  13.187
97930SOL    HW195687   2.495  11.411  13.219
97930SOL    HW295688   2.539  11.290  13.139
97931SOL     OW95689   4.596  13.547   4.026
97931SOL    HW195690   4.512  13.589   4.043
97931SOL    HW295691   4.605  13.482   4.095
97932SOL     OW95692   0.779   3.608   7.147
97932SOL    HW195693   0.715   3.671   7.178
97932SOL    HW295694   0.842   3.600   7.219
97933SOL     OW95695   6.331   9.147   9.791
97933SOL    HW195696   6.359   9.117   9.878
97933SOL    HW295697   6.383   9.095   9.730
97934SOL     OW95698  11.638   4.910   5.137
97934SOL    HW195699  11.585   4.955   5.204
97934SOL    HW295700  11.696   4.853   5.187
97935SOL     OW95701  10.650   8.320  14.176
97935SOL    HW195702  10.687   8.235  14.196
97935SOL    HW295703  10.719   8.383  14.200
97936SOL     OW95704   0.148   8.642   9.096
97936SOL    HW195705   0.233   8.650   9.053
97936SOL    HW295706   0.118   8.554   9.074
97937SOL     OW95707   1.450  14.152   6.960
97937SOL    HW195708   1.386  14.089   6.929
97937SOL    HW295709   1.414  14.237   6.936
97938SOL     OW95710  11.116   8.327   7.286
97938SOL    HW195711  11.131   8.351   7.195
97938SOL    HW295712  11.191   8.272   7.310
97939SOL     OW95713   4.364   5.806  11.406
97939SOL    HW195714   4.451   5.845  11.406
97939SOL    HW295715   4.319   5.850  11.479
97940SOL     OW95716   5.062   5.628  10.270
97940SOL    HW195717   4.990   5.645  10.331
97940SOL    HW295718   5.028   5.654  10.184
97941SOL     OW95719   5.039   9.215  10.434
97941SOL    HW195720   4.972   9.158  10.395
97941SOL    HW295721   5.007   9.304  10.420
97942SOL     OW95722  12.406   9.437  12.311
97942SOL    HW195723  12.325   9.487  12.296
97942SOL    HW295724  12.438   9.469  12.395
97943SOL     OW95725  13.178   3.454   6.359
97943SOL    HW195726  13.234   3.484   6.432
97943SOL    HW295727  13.100   3.509   6.364
97944SOL     OW95728   2.709  12.476   6.843
97944SOL    HW195729   2.640  12.425   6.800
97944SOL    HW295730   2.696  12.565   6.811
97945SOL     OW95731   2.427   0.989   4.878
97945SOL    HW195732   2.359   1.053   4.899
97945SOL    HW295733   2.422   0.980   4.783
97946SOL     OW95734  10.207   8.741  11.688
97946SOL    HW195735  10.130   8.798  11.691
97946SOL    HW295736  10.281   8.800  11.694
97947SOL     OW95737  11.192   4.392   8.857
97947SOL    HW195738  11.124   4.430   8.802
97947SOL    HW295739  11.195   4.448   8.934
97948SOL     OW95740   4.391  10.774  12.169
97948SOL    HW195741   4.320  10.717  12.199
97948SOL    HW295742   4.384  10.852  12.224
97949SOL     OW95743   9.833   5.382   0.086
97949SOL    HW195744   9.888   5.367   0.162
97949SOL    HW295745   9.747   5.347   0.111
97950SOL     OW95746  12.016  10.816   2.132
97950SOL    HW195747  12.075  10.879   2.175
97950SOL    HW295748  12.075  10.755   2.088
97951SOL     OW95749   5.487   3.213   4.151
97951SOL    HW195750   5.414   3.152   4.140
97951SOL    HW295751   5.473   3.254   4.236
97952SOL     OW95752   3.919  11.809  12.859
97952SOL    HW195753   3.922  11.816  12.764
97952SOL    HW295754   3.865  11.731  12.876
97953SOL     OW95755   7.336  12.678  12.134
97953SOL    HW195756   7.330  12.652  12.042
97953SOL    HW295757   7.430  12.690  12.149
97954SOL     OW95758  13.959   1.049   4.101
97954SOL    HW195759  13.972   0.972   4.156
97954SOL    HW295760  14.020   1.038   4.029
97955SOL     OW95761   5.306   2.247  14.296
97955SOL    HW195762   5.307   2.201  14.379
97955SOL    HW295763   5.277   2.336  14.318
97956SOL     OW95764   7.711  11.949   2.817
97956SOL    HW195765   7.721  12.039   2.785
97956SOL    HW295766   7.641  11.912   2.764
97957SOL     OW95767   2.484   8.808  12.325
97957SOL    HW195768   2.528   8.724  12.309
97957SOL    HW295769   2.555   8.867  12.351
97958SOL     OW95770   6.872   4.763   5.571
97958SOL    HW195771   6.959   4.731   5.546
97958SOL    HW295772   6.837   4.694   5.628
97959SOL     OW95773  11.330   0.166   4.311
97959SOL    HW195774  11.418   0.180   4.274
97959SOL    HW295775  11.346   0.111   4.388
97960SOL     OW95776  12.184   1.271  11.307
97960SOL    HW195777  12.143   1.357  11.315
97960SOL    HW295778  12.171   1.247  11.215
97961SOL     OW95779   6.786  11.323   7.472
97961SOL    HW195780   6.747  11.317   7.559
97961SOL    HW295781   6.808  11.233   7.448
97962SOL     OW95782   1.323   2.611   2.796
97962SOL    HW195783   1.258   2.588   2.862
97962SOL    HW295784   1.309   2.704   2.780
97963SOL     OW95785  12.127   8.631   8.664
97963SOL    HW195786  12.214   8.656   8.694
97963SOL    HW295787  12.130   8.535   8.662
97964SOL     OW95788   9.969  10.162   1.349
97964SOL    HW195789   9.889  10.136   1.396
97964SOL    HW295790   9.989  10.087   1.293
97965SOL     OW95791  10.947   6.444   3.812
97965SOL    HW195792  10.994   6.367   3.780
97965SOL    HW295793  10.880   6.461   3.746
97966SOL     OW95794   3.414  13.126   3.673
97966SOL    HW195795   3.489  13.181   3.652
97966SOL    HW295796   3.452  13.041   3.694
97967SOL     OW95797   9.850  11.051   7.450
97967SOL    HW195798   9.945  11.058   7.446
97967SOL    HW295799   9.826  10.998   7.374
97968SOL     OW95800   1.065   0.793   9.363
97968SOL    HW195801   1.029   0.853   9.298
97968SOL    HW295802   1.109   0.725   9.311
97969SOL     OW95803   1.473   2.720  10.076
97969SOL    HW195804   1.424   2.734   9.995
97969SOL    HW295805   1.554   2.678  10.048
97970SOL     OW95806   0.674  12.051   1.379
97970SOL    HW195807   0.634  12.077   1.296
97970SOL    HW295808   0.626  12.101   1.445
97971SOL     OW95809   2.478   0.088   1.067
97971SOL    HW195810   2.554   0.130   1.109
97971SOL    HW295811   2.514   0.045   0.990
97972SOL     OW95812  10.882   5.943   2.063
97972SOL    HW195813  10.833   6.012   2.108
97972SOL    HW295814  10.829   5.921   1.987
97973SOL     OW95815   0.806  13.244   4.262
97973SOL    HW195816   0.802  13.338   4.279
97973SOL    HW295817   0.861  13.210   4.333
97974SOL     OW95818   9.274  12.414   0.535
97974SOL    HW195819   9.206  12.347   0.536
97974SOL    HW295820   9.344  12.377   0.589
97975SOL     OW95821  11.084   3.547   4.034
97975SOL    HW195822  11.149   3.591   4.089
97975SOL    HW295823  11.026   3.502   4.096
97976SOL     OW95824   4.033   6.950   3.315
97976SOL    HW195825   3.969   6.969   3.383
97976SOL    HW295826   4.092   7.025   3.316
97977SOL     OW95827  13.659  10.161   6.506
97977SOL    HW195828  13.599  10.087   6.502
97977SOL    HW295829  13.639  10.213   6.428
97978SOL     OW95830   4.182   4.457  10.219
97978SOL    HW195831   4.145   4.483  10.303
97978SOL    HW295832   4.266   4.503  10.214
97979SOL     OW95833   2.300   5.560   4.481
97979SOL    HW195834   2.271   5.474   4.511
97979SOL    HW295835   2.231   5.588   4.421
97980SOL     OW95836   4.751   7.544   6.568
97980SOL    HW195837   4.827   7.594   6.541
97980SOL    HW295838   4.690   7.609   6.603
97981SOL     OW95839  14.494  13.260  13.154
97981SOL    HW195840  14.472  13.295  13.067
97981SOL    HW295841  14.420  13.203  13.177
97982SOL     OW95842   3.017   6.781  10.839
97982SOL    HW195843   2.932   6.824  10.844
97982SOL    HW295844   2.998   6.688  10.850
97983SOL     OW95845   6.497  11.477   1.146
97983SOL    HW195846   6.417  11.488   1.095
97983SOL    HW295847   6.530  11.566   1.160
97984SOL     OW95848   8.797   2.170   7.130
97984SOL    HW195849   8.728   2.143   7.190
97984SOL    HW295850   8.769   2.255   7.096
97985SOL     OW95851   6.789   1.889   5.333
97985SOL    HW195852   6.804   1.905   5.426
97985SOL    HW295853   6.726   1.816   5.331
97986SOL     OW95854   3.445   3.865   0.009
97986SOL    HW195855   3.531   3.849   0.047
97986SOL    HW295856   3.461   3.868  14.784
97987SOL     OW95857  12.710  11.005   7.542
97987SOL    HW195858  12.695  10.973   7.453
97987SOL    HW295859  12.806  11.006   7.550
97988SOL     OW95860   4.764   9.480  11.862
97988SOL    HW195861   4.779   9.415  11.931
97988SOL    HW295862   4.683   9.452  11.820
97989SOL     OW95863  10.956  12.380   1.234
97989SOL    HW195864  10.866  12.399   1.259
97989SOL    HW295865  11.008  12.412   1.307
97990SOL     OW95866  14.314   1.938   2.704
97990SOL    HW195867  14.353   1.998   2.641
97990SOL    HW295868  14.225   1.970   2.717
97991SOL     OW95869  11.293   4.056  13.997
97991SOL    HW195870  11.247   3.990  13.944
97991SOL    HW295871  11.345   4.006  14.059
97992SOL     OW95872   4.079  14.164   1.474
97992SOL    HW195873   4.082  14.224   1.549
97992SOL    HW295874   4.013  14.099   1.499
97993SOL     OW95875  12.003  13.892  10.733
97993SOL    HW195876  11.938  13.950  10.694
97993SOL    HW295877  12.028  13.935  10.815
97994SOL     OW95878   9.934   3.140   1.689
97994SOL    HW195879   9.982   3.149   1.606
97994SOL    HW295880   9.867   3.075   1.669
97995SOL     OW95881   1.836   1.033   6.134
97995SOL    HW195882   1.836   1.028   6.038
97995SOL    HW295883   1.915   1.082   6.156
97996SOL     OW95884   5.916   2.992   9.789
97996SOL    HW195885   5.879   3.073   9.754
97996SOL    HW295886   5.864   2.923   9.749
97997SOL     OW95887  10.227   9.715   9.652
97997SOL    HW195888  10.312   9.743   9.687
97997SOL    HW295889  10.247   9.681   9.565
97998SOL     OW95890  12.231   1.103  11.703
97998SOL    HW195891  12.194   1.172  11.758
97998SOL    HW295892  12.163   1.084  11.639
97999SOL     OW95893  13.889   8.248   4.100
97999SOL    HW195894  13.954   8.207   4.158
97999SOL    HW295895  13.814   8.267   4.156
98000SOL     OW95896   5.568   6.526  14.039
98000SOL    HW195897   5.494   6.480  13.999
98000SOL    HW295898   5.558   6.512  14.133
98001SOL     OW95899   7.616   3.247   0.687
98001SOL    HW195900   7.704   3.248   0.724
98001SOL    HW295901   7.595   3.340   0.674
98002SOL     OW95902   6.433   3.285   5.100
98002SOL    HW195903   6.408   3.369   5.061
98002SOL    HW295904   6.351   3.251   5.137
98003SOL     OW95905   8.642   8.600   7.894
98003SOL    HW195906   8.550   8.602   7.922
98003SOL    HW295907   8.638   8.585   7.800
98004SOL     OW95908   5.927   6.729   6.794
98004SOL    HW195909   5.909   6.821   6.776
98004SOL    HW295910   5.843   6.692   6.820
98005SOL     OW95911  14.741   3.307   1.759
98005SOL    HW195912  14.678   3.309   1.687
98005SOL    HW295913  14.822   3.343   1.722
98006SOL     OW95914   5.652   2.621  11.729
98006SOL    HW195915   5.609   2.558  11.671
98006SOL    HW295916   5.681   2.570  11.804
98007SOL     OW95917   5.196  10.585   7.558
98007SOL    HW195918   5.273  10.532   7.536
98007SOL    HW295919   5.125  10.521   7.568
98008SOL     OW95920   5.031   7.315  12.920
98008SOL    HW195921   4.975   7.281  12.850
98008SOL    HW295922   4.980   7.300  13.000
98009SOL     OW95923   9.814   8.982   2.664
98009SOL    HW195924   9.840   8.904   2.714
98009SOL    HW295925   9.753   8.949   2.598
98010SOL     OW95926  13.962   0.093   4.993
98010SOL    HW195927  13.931   0.182   4.976
98010SOL    HW295928  14.044   0.086   4.943
98011SOL     OW95929   2.491   1.651  11.280
98011SOL    HW195930   2.498   1.566  11.236
98011SOL    HW295931   2.559   1.649  11.347
98012SOL     OW95932   6.840   5.049   9.226
98012SOL    HW195933   6.863   4.964   9.262
98012SOL    HW295934   6.768   5.030   9.165
98013SOL     OW95935   2.975  14.059   3.428
98013SOL    HW195936   2.959  14.034   3.519
98013SOL    HW295937   3.016  13.981   3.390
98014SOL     OW95938   6.346   2.463   6.333
98014SOL    HW195939   6.366   2.412   6.412
98014SOL    HW295940   6.298   2.402   6.277
98015SOL     OW95941   6.737   6.533   4.907
98015SOL    HW195942   6.728   6.467   4.976
98015SOL    HW295943   6.786   6.604   4.949
98016SOL     OW95944   1.574   0.861  12.977
98016SOL    HW195945   1.520   0.938  12.993
98016SOL    HW295946   1.632   0.856  13.053
98017SOL     OW95947   8.378   7.319  14.664
98017SOL    HW195948   8.380   7.223  14.672
98017SOL    HW295949   8.318   7.348  14.733
98018SOL     OW95950  10.389  11.232   4.584
98018SOL    HW195951  10.365  11.162   4.644
98018SOL    HW295952  10.372  11.313   4.633
98019SOL     OW95953   3.821   2.917  14.827
98019SOL    HW195954   3.752   2.876  14.775
98019SOL    HW295955   3.835   3.002  14.786
98020SOL     OW95956   4.081   5.793   6.965
98020SOL    HW195957   4.010   5.816   7.025
98020SOL    HW295958   4.109   5.706   6.993
98021SOL     OW95959  13.093   0.824  13.574
98021SOL    HW195960  13.098   0.845  13.480
98021SOL    HW295961  13.120   0.732  13.579
98022SOL     OW95962  12.733  12.564   6.583
98022SOL    HW195963  12.730  12.506   6.507
98022SOL    HW295964  12.730  12.652   6.546
98023SOL     OW95965   5.762   2.757   2.197
98023SOL    HW195966   5.695   2.708   2.149
98023SOL    HW295967   5.820   2.690   2.232
98024SOL     OW95968   8.765   2.126   0.491
98024SOL    HW195969   8.790   2.057   0.429
98024SOL    HW295970   8.769   2.206   0.440
98025SOL     OW95971  14.031   4.174   1.047
98025SOL    HW195972  14.067   4.161   1.135
98025SOL    HW295973  14.074   4.107   0.994
98026SOL     OW95974   9.128   1.962  14.451
98026SOL    HW195975   9.139   2.034  14.389
98026SOL    HW295976   9.207   1.965  14.505
98027SOL     OW95977   9.537  13.133   4.918
98027SOL    HW195978   9.497  13.121   4.833
98027SOL    HW295979   9.501  13.215   4.951
98028SOL     OW95980  13.416   3.159  12.007
98028SOL    HW195981  13.359   3.087  12.034
98028SOL    HW295982  13.504   3.132  12.034
98029SOL     OW95983  14.224   5.587   9.783
98029SOL    HW195984  14.196   5.520   9.847
98029SOL    HW295985  14.297   5.632   9.826
98030SOL     OW95986   5.187   9.124  11.055
98030SOL    HW195987   5.241   9.133  10.977
98030SOL    HW295988   5.098   9.115  11.022
98031SOL     OW95989   6.407   3.533   2.852
98031SOL    HW195990   6.321   3.492   2.845
98031SOL    HW295991   6.391   3.625   2.833
98032SOL     OW95992   9.624  13.470  13.328
98032SOL    HW195993   9.561  13.411  13.287
98032SOL    HW295994   9.641  13.537  13.262
98033SOL     OW95995   8.540  13.091   1.546
98033SOL    HW195996   8.521  13.176   1.584
98033SOL    HW295997   8.581  13.041   1.617
98034SOL     OW95998   2.154  11.843  10.744
98034SOL    HW195999   2.143  11.884  10.830
98034SOL    HW296000   2.156  11.749  10.763
98035SOL     OW96001  10.347   4.619  14.244
98035SOL    HW196002  10.385   4.695  14.288
98035SOL    HW296003  10.254   4.622  14.267
98036SOL     OW96004   2.903   9.713   7.383
98036SOL    HW196005   2.984   9.711   7.433
98036SOL    HW296006   2.853   9.638   7.414
98037SOL     OW96007   3.087  14.276  14.381
98037SOL    HW196008   3.142  14.308  14.309
98037SOL    HW296009   3.127  14.193  14.406
98038SOL     OW96010   4.516   9.148   4.251
98038SOL    HW196011   4.423   9.167   4.257
98038SOL    HW296012   4.557   9.233   4.236
98039SOL     OW96013   4.896   4.008  11.082
98039SOL    HW196014   4.919   4.096  11.051
98039SOL    HW296015   4.802   4.000  11.064
98040SOL     OW96016   9.922   2.950   5.511
98040SOL    HW196017   9.885   3.019   5.566
98040SOL    HW296018   9.895   2.973   5.422
98041SOL     OW96019  12.498   8.231   9.396
98041SOL    HW196020  12.448   8.266   9.469
98041SOL    HW296021  12.433   8.215   9.327
98042SOL     OW96022  10.701   5.154  12.971
98042SOL    HW196023  10.792   5.126  12.980
98042SOL    HW296024  10.706   5.244  12.937
98043SOL     OW96025   6.398   6.853   0.404
98043SOL    HW196026   6.388   6.790   0.476
98043SOL    HW296027   6.338   6.924   0.427
98044SOL     OW96028   2.568   7.229   0.122
98044SOL    HW196029   2.597   7.192   0.039
98044SOL    HW296030   2.473   7.228   0.118
98045SOL     OW96031  10.826  13.384   5.900
98045SOL    HW196032  10.822  13.290   5.922
98045SOL    HW296033  10.770  13.425   5.966
98046SOL     OW96034  13.575  12.279   6.954
98046SOL    HW196035  13.611  12.312   7.036
98046SOL    HW296036  13.652  12.254   6.903
98047SOL     OW96037   4.560  12.128  11.241
98047SOL    HW196038   4.640  12.079  11.262
98047SOL    HW296039   4.497  12.061  11.217
98048SOL     OW96040   2.804   0.866   6.516
98048SOL    HW196041   2.885   0.818   6.498
98048SOL    HW296042   2.800   0.932   6.446
98049SOL     OW96043   4.130  13.276   5.970
98049SOL    HW196044   4.148  13.182   5.971
98049SOL    HW296045   4.143  13.304   6.061
98050SOL     OW96046   2.440   3.016  13.734
98050SOL    HW196047   2.468   2.979  13.817
98050SOL    HW296048   2.504   2.982  13.670
98051SOL     OW96049   2.703  11.560   9.750
98051SOL    HW196050   2.630  11.507   9.784
98051SOL    HW296051   2.695  11.643   9.797
98052SOL     OW96052   3.046  10.961   0.975
98052SOL    HW196053   3.074  10.873   0.999
98052SOL    HW296054   3.098  10.982   0.898
98053SOL     OW96055  12.874   7.816  13.542
98053SOL    HW196056  12.965   7.828  13.569
98053SOL    HW296057  12.862   7.721  13.538
98054SOL     OW96058   5.216   8.121   5.269
98054SOL    HW196059   5.302   8.160   5.250
98054SOL    HW296060   5.168   8.191   5.313
98055SOL     OW96061  10.658   4.936   0.447
98055SOL    HW196062  10.623   4.867   0.390
98055SOL    HW296063  10.752   4.937   0.429
98056SOL     OW96064  11.673   9.056  14.365
98056SOL    HW196065  11.736   9.080  14.433
98056SOL    HW296066  11.622   9.136  14.351
98057SOL     OW96067  11.593   5.872   2.003
98057SOL    HW196068  11.581   5.817   2.080
98057SOL    HW296069  11.682   5.851   1.972
98058SOL     OW96070   3.968  10.890   5.796
98058SOL    HW196071   3.904  10.889   5.724
98058SOL    HW296072   4.050  10.861   5.756
98059SOL     OW96073  11.561  13.770  13.693
98059SOL    HW196074  11.595  13.823  13.765
98059SOL    HW296075  11.613  13.796  13.617
98060SOL     OW96076   9.773  13.645   6.850
98060SOL    HW196077   9.703  13.590   6.816
98060SOL    HW296078   9.803  13.600   6.929
98061SOL     OW96079  10.722  13.006  14.303
98061SOL    HW196080  10.784  12.935  14.288
98061SOL    HW296081  10.774  13.076  14.343
98062SOL     OW96082   0.857   7.139   2.670
98062SOL    HW196083   0.937   7.189   2.657
98062SOL    HW296084   0.860   7.070   2.603
98063SOL     OW96085  11.165   1.896   4.035
98063SOL    HW196086  11.179   1.920   3.944
98063SOL    HW296087  11.127   1.808   4.031
98064SOL     OW96088   9.753   1.625  14.057
98064SOL    HW196089   9.678   1.574  14.026
98064SOL    HW296090   9.725   1.716  14.050
98065SOL     OW96091   7.849  11.635   3.258
98065SOL    HW196092   7.790  11.680   3.197
98065SOL    HW296093   7.935  11.673   3.240
98066SOL     OW96094   7.578  11.308   9.006
98066SOL    HW196095   7.499  11.267   9.042
98066SOL    HW296096   7.634  11.322   9.082
98067SOL     OW96097   4.066   9.861   5.050
98067SOL    HW196098   4.126   9.893   5.117
98067SOL    HW296099   4.006   9.802   5.097
98068SOL     OW96100   1.074   5.079   0.239
98068SOL    HW196101   0.981   5.058   0.229
98068SOL    HW296102   1.119   4.997   0.219
98069SOL     OW96103   4.260  14.526   5.010
98069SOL    HW196104   4.262  14.578   5.090
98069SOL    HW296105   4.197  14.572   4.953
98070SOL     OW96106   0.537   6.346   7.060
98070SOL    HW196107   0.553   6.438   7.037
98070SOL    HW296108   0.455   6.347   7.109
98071SOL     OW96109   0.953   8.247   3.176
98071SOL    HW196110   0.876   8.192   3.191
98071SOL    HW296111   0.919   8.326   3.134
98072SOL     OW96112   3.708  10.473   3.310
98072SOL    HW196113   3.663  10.400   3.352
98072SOL    HW296114   3.662  10.485   3.227
98073SOL     OW96115  10.145   3.701  11.370
98073SOL    HW196116  10.108   3.700  11.282
98073SOL    HW296117  10.174   3.791  11.383
98074SOL     OW96118   8.861   6.152  13.635
98074SOL    HW196119   8.848   6.164  13.729
98074SOL    HW296120   8.956   6.138  13.626
98075SOL     OW96121   9.456  12.314  14.162
98075SOL    HW196122   9.516  12.377  14.123
98075SOL    HW296123   9.398  12.368  14.216
98076SOL     OW96124   3.940  12.188   0.414
98076SOL    HW196125   3.879  12.242   0.364
98076SOL    HW296126   3.983  12.132   0.349
98077SOL     OW96127  12.913   0.898   3.561
98077SOL    HW196128  12.936   0.854   3.479
98077SOL    HW296129  12.966   0.977   3.561
98078SOL     OW96130   9.613   3.741   5.967
98078SOL    HW196131   9.568   3.670   5.922
98078SOL    HW296132   9.693   3.755   5.916
98079SOL     OW96133  10.592   1.277  11.574
98079SOL    HW196134  10.508   1.289  11.619
98079SOL    HW296135  10.654   1.257  11.644
98080SOL     OW96136   1.796   6.403  14.384
98080SOL    HW196137   1.728   6.380  14.321
98080SOL    HW296138   1.878   6.380  14.342
98081SOL     OW96139  12.122  12.485   9.309
98081SOL    HW196140  12.108  12.408   9.365
98081SOL    HW296141  12.163  12.449   9.231
98082SOL     OW96142   6.043   3.024   3.744
98082SOL    HW196143   6.066   3.070   3.664
98082SOL    HW296144   6.066   2.932   3.727
98083SOL     OW96145  12.844   8.400  12.084
98083SOL    HW196146  12.885   8.479  12.050
98083SOL    HW296147  12.757   8.400  12.044
98084SOL     OW96148   8.175   7.056  10.000
98084SOL    HW196149   8.136   7.036   9.915
98084SOL    HW296150   8.232   7.131   9.983
98085SOL     OW96151  13.479  14.531   3.633
98085SOL    HW196152  13.450  14.577   3.712
98085SOL    HW296153  13.494  14.601   3.569
98086SOL     OW96154   5.774   3.204   9.658
98086SOL    HW196155   5.828   3.173   9.585
98086SOL    HW296156   5.766   3.299   9.643
98087SOL     OW96157   1.297   6.145   6.495
98087SOL    HW196158   1.352   6.136   6.573
98087SOL    HW296159   1.314   6.233   6.464
98088SOL     OW96160   2.713  13.515   5.353
98088SOL    HW196161   2.662  13.549   5.279
98088SOL    HW296162   2.650  13.512   5.425
98089SOL     OW96163   4.104   7.253  10.967
98089SOL    HW196164   4.121   7.253  11.062
98089SOL    HW296165   4.191   7.245  10.927
98090SOL     OW96166   5.850   9.945   7.543
98090SOL    HW196167   5.797   9.888   7.599
98090SOL    HW296168   5.923   9.890   7.514
98091SOL     OW96169  10.175  13.040   1.653
98091SOL    HW196170  10.174  12.995   1.568
98091SOL    HW296171  10.243  13.107   1.644
98092SOL     OW96172   8.285  14.167  12.721
98092SOL    HW196173   8.357  14.172  12.783
98092SOL    HW296174   8.326  14.153  12.636
98093SOL     OW96175   2.282  14.082   4.408
98093SOL    HW196176   2.296  13.990   4.384
98093SOL    HW296177   2.219  14.114   4.345
98094SOL     OW96178   0.741   5.375  13.868
98094SOL    HW196179   0.805   5.307  13.846
98094SOL    HW296180   0.766   5.450  13.816
98095SOL     OW96181   7.927  11.917  10.161
98095SOL    HW196182   7.860  11.984  10.173
98095SOL    HW296183   7.886  11.853  10.102
98096SOL     OW96184   6.156   8.249   3.415
98096SOL    HW196185   6.094   8.183   3.444
98096SOL    HW296186   6.224   8.251   3.482
98097SOL     OW96187   1.614   0.360   4.256
98097SOL    HW196188   1.678   0.341   4.187
98097SOL    HW296189   1.665   0.401   4.325
98098SOL     OW96190  14.304  12.591  10.497
98098SOL    HW196191  14.328  12.671  10.449
98098SOL    HW296192  14.226  12.615  10.547
98099SOL     OW96193   3.879   6.092  11.470
98099SOL    HW196194   3.860   6.046  11.552
98099SOL    HW296195   3.910   6.178  11.498
98100SOL     OW96196  10.720   7.753   6.349
98100SOL    HW196197  10.672   7.824   6.306
98100SOL    HW296198  10.673   7.674   6.324
98101SOL     OW96199   4.311  14.764  13.187
98101SOL    HW196200   4.295  14.856  13.165
98101SOL    HW296201   4.255  14.748  13.263
98102SOL     OW96202   0.582  12.292   3.702
98102SOL    HW196203   0.670  12.316   3.733
98102SOL    HW296204   0.530  12.286   3.782
98103SOL     OW96205   4.978   6.968   6.358
98103SOL    HW196206   5.070   6.961   6.383
98103SOL    HW296207   4.936   6.892   6.398
98104SOL     OW96208   7.354  11.884   3.971
98104SOL    HW196209   7.419  11.865   4.039
98104SOL    HW296210   7.382  11.831   3.896
98105SOL     OW96211   0.022   8.273  11.150
98105SOL    HW196212  14.806   8.295  11.113
98105SOL    HW296213   0.041   8.346  11.210
98106SOL     OW96214  11.463   7.573   5.302
98106SOL    HW196215  11.545   7.531   5.278
98106SOL    HW296216  11.395   7.515   5.268
98107SOL     OW96217   8.379  13.190  11.971
98107SOL    HW196218   8.432  13.264  12.001
98107SOL    HW296219   8.290  13.213  11.999
98108SOL     OW96220   8.131   3.693   0.561
98108SOL    HW196221   8.124   3.724   0.470
98108SOL    HW296222   8.161   3.770   0.610
98109SOL     OW96223   0.788  10.090   7.061
98109SOL    HW196224   0.834  10.170   7.086
98109SOL    HW296225   0.848  10.046   7.001
98110SOL     OW96226   9.604   8.401   1.319
98110SOL    HW196227   9.525   8.388   1.266
98110SOL    HW296228   9.674   8.411   1.254
98111SOL     OW96229  12.043  10.307   6.256
98111SOL    HW196230  12.139  10.304   6.253
98111SOL    HW296231  12.016  10.275   6.170
98112SOL     OW96232   5.857   5.319   9.528
98112SOL    HW196233   5.792   5.274   9.473
98112SOL    HW296234   5.815   5.325   9.614
98113SOL     OW96235   2.476  11.533   9.501
98113SOL    HW196236   2.406  11.551   9.438
98113SOL    HW296237   2.552  11.511   9.446
98114SOL     OW96238  13.946   0.197   1.430
98114SOL    HW196239  13.916   0.272   1.379
98114SOL    HW296240  14.035   0.221   1.458
98115SOL     OW96241   4.287   4.619  12.185
98115SOL    HW196242   4.250   4.617  12.097
98115SOL    HW296243   4.251   4.699  12.225
98116SOL     OW96244   5.595  13.954   4.534
98116SOL    HW196245   5.504  13.942   4.561
98116SOL    HW296246   5.629  14.021   4.594
98117SOL     OW96247  11.479  11.246  12.738
98117SOL    HW196248  11.408  11.299  12.773
98117SOL    HW296249  11.492  11.278  12.649
98118SOL     OW96250   7.845  10.155   9.145
98118SOL    HW196251   7.882  10.207   9.074
98118SOL    HW296252   7.826  10.070   9.106
98119SOL     OW96253   8.474   4.812   0.317
98119SOL    HW196254   8.391   4.770   0.336
98119SOL    HW296255   8.451   4.890   0.267
98120SOL     OW96256   9.528   1.630  13.256
98120SOL    HW196257   9.563   1.545  13.281
98120SOL    HW296258   9.598   1.692  13.277
98121SOL     OW96259   1.055   8.229   0.462
98121SOL    HW196260   1.076   8.155   0.519
98121SOL    HW296261   1.054   8.191   0.374
98122SOL     OW96262   2.946  11.163   0.364
98122SOL    HW196263   2.997  11.198   0.436
98122SOL    HW296264   2.891  11.095   0.404
98123SOL     OW96265   3.529   0.568   4.309
98123SOL    HW196266   3.591   0.506   4.272
98123SOL    HW296267   3.477   0.599   4.235
98124SOL     OW96268   8.022   8.977   5.023
98124SOL    HW196269   8.074   8.960   4.944
98124SOL    HW296270   8.017   8.891   5.066
98125SOL     OW96271   1.269   6.539   5.930
98125SOL    HW196272   1.212   6.616   5.928
98125SOL    HW296273   1.355   6.574   5.956
98126SOL     OW96274   5.889   2.743   3.215
98126SOL    HW196275   5.796   2.759   3.201
98126SOL    HW296276   5.899   2.649   3.199
98127SOL     OW96277  12.131   2.670  13.781
98127SOL    HW196278  12.042   2.637  13.794
98127SOL    HW296279  12.123   2.731  13.708
98128SOL     OW96280  11.214   3.901  13.632
98128SOL    HW196281  11.300   3.878  13.666
98128SOL    HW296282  11.153   3.866  13.697
98129SOL     OW96283  12.224   2.436   0.024
98129SOL    HW196284  12.287   2.458  14.825
98129SOL    HW296285  12.201   2.520   0.063
98130SOL     OW96286   0.764  12.638  10.400
98130SOL    HW196287   0.763  12.543  10.407
98130SOL    HW296288   0.853  12.660  10.372
98131SOL     OW96289  10.733  12.130   2.119
98131SOL    HW196290  10.703  12.146   2.208
98131SOL    HW296291  10.807  12.070   2.130
98132SOL     OW96292   1.401  10.176   8.273
98132SOL    HW196293   1.476  10.128   8.238
98132SOL    HW296294   1.415  10.178   8.368
98133SOL     OW96295   2.020   7.220   2.387
98133SOL    HW196296   2.041   7.127   2.389
98133SOL    HW296297   2.074   7.254   2.315
98134SOL     OW96298  11.683   3.693   4.825
98134SOL    HW196299  11.600   3.741   4.814
98134SOL    HW296300  11.657   3.601   4.833
98135SOL     OW96301  10.705   6.002   1.562
98135SOL    HW196302  10.727   6.093   1.541
98135SOL    HW296303  10.609   6.000   1.561
98136SOL     OW96304   8.921   5.147   3.750
98136SOL    HW196305   8.944   5.127   3.659
98136SOL    HW296306   8.984   5.215   3.776
98137SOL     OW96307   5.395   2.103   4.344
98137SOL    HW196308   5.474   2.062   4.380
98137SOL    HW296309   5.402   2.089   4.249
98138SOL     OW96310   8.764  11.389   3.884
98138SOL    HW196311   8.795  11.407   3.795
98138SOL    HW296312   8.742  11.296   3.882
98139SOL     OW96313  10.922   6.796   2.927
98139SOL    HW196314  10.959   6.826   3.010
98139SOL    HW296315  10.837   6.759   2.950
98140SOL     OW96316   1.357   7.733  13.362
98140SOL    HW196317   1.301   7.810  13.370
98140SOL    HW296318   1.424   7.760  13.299
98141SOL     OW96319  14.374   7.756  14.491
98141SOL    HW196320  14.393   7.692  14.559
98141SOL    HW296321  14.451   7.813  14.489
98142SOL     OW96322   5.909   6.237   0.107
98142SOL    HW196323   5.828   6.249   0.057
98142SOL    HW296324   5.926   6.143   0.102
98143SOL     OW96325  10.012   8.171   5.385
98143SOL    HW196326  10.077   8.153   5.317
98143SOL    HW296327  10.063   8.210   5.457
98144SOL     OW96328   1.871  11.213  11.687
98144SOL    HW196329   1.860  11.176  11.599
98144SOL    HW296330   1.794  11.181  11.735
98145SOL     OW96331  11.497  11.707  13.351
98145SOL    HW196332  11.446  11.757  13.287
98145SOL    HW296333  11.508  11.621  13.310
98146SOL     OW96334   9.935   1.969  10.979
98146SOL    HW196335   9.855   2.007  10.942
98146SOL    HW296336   9.917   1.876  10.986
98147SOL     OW96337  11.768   7.299   3.666
98147SOL    HW196338  11.790   7.226   3.609
98147SOL    HW296339  11.673   7.294   3.675
98148SOL     OW96340  13.436   2.008   7.825
98148SOL    HW196341  13.496   2.068   7.779
98148SOL    HW296342  13.460   2.016   7.917
98149SOL     OW96343   4.828   5.786  13.020
98149SOL    HW196344   4.785   5.791  13.105
98149SOL    HW296345   4.807   5.870  12.978
98150SOL     OW96346   2.445   9.531  11.003
98150SOL    HW196347   2.358   9.519  11.041
98150SOL    HW296348   2.429   9.570  10.918
98151SOL     OW96349   3.486   0.178  14.404
98151SOL    HW196350   3.515   0.092  14.373
98151SOL    HW296351   3.391   0.177  14.388
98152SOL     OW96352   9.115   3.725  10.237
98152SOL    HW196353   9.101   3.717  10.142
98152SOL    HW296354   9.210   3.722  10.247
98153SOL     OW96355   6.039   5.645  10.616
98153SOL    HW196356   5.982   5.709  10.574
98153SOL    HW296357   6.077   5.693  10.690
98154SOL     OW96358   1.075   4.243   3.372
98154SOL    HW196359   0.988   4.211   3.398
98154SOL    HW296360   1.059   4.293   3.293
98155SOL     OW96361   3.190   7.248  14.636
98155SOL    HW196362   3.224   7.298  14.562
98155SOL    HW296363   3.268   7.219  14.683
98156SOL     OW96364   9.346  13.327  13.272
98156SOL    HW196365   9.350  13.233  13.288
98156SOL    HW296366   9.263  13.355  13.313
98157SOL     OW96367   6.250   4.254   1.222
98157SOL    HW196368   6.227   4.191   1.290
98157SOL    HW296369   6.320   4.307   1.260
98158SOL     OW96370   6.047   9.376  10.862
98158SOL    HW196371   5.981   9.412  10.803
98158SOL    HW296372   6.125   9.430  10.847
98159SOL     OW96373   2.350   0.980  14.518
98159SOL    HW196374   2.362   1.063  14.474
98159SOL    HW296375   2.352   0.914  14.449
98160SOL     OW96376   4.473  14.065   0.076
98160SOL    HW196377   4.491  14.083  14.853
98160SOL    HW296378   4.418  14.138   0.104
98161SOL     OW96379   1.028  12.165  13.422
98161SOL    HW196380   1.036  12.120  13.338
98161SOL    HW296381   0.974  12.106  13.475
98162SOL     OW96382   1.995   7.514   3.432
98162SOL    HW196383   1.999   7.503   3.337
98162SOL    HW296384   1.925   7.578   3.446
98163SOL     OW96385   5.857   3.121   1.370
98163SOL    HW196386   5.926   3.170   1.323
98163SOL    HW296387   5.775   3.158   1.338
98164SOL     OW96388   9.291   5.748  13.324
98164SOL    HW196389   9.306   5.654  13.325
98164SOL    HW296390   9.367   5.785  13.370
98165SOL     OW96391  10.313   6.651  13.389
98165SOL    HW196392  10.314   6.625  13.297
98165SOL    HW296393  10.226   6.689  13.401
98166SOL     OW96394   6.171  10.859  12.315
98166SOL    HW196395   6.136  10.913  12.244
98166SOL    HW296396   6.151  10.769  12.290
98167SOL     OW96397  10.313  11.951   7.617
98167SOL    HW196398  10.329  12.045   7.628
98167SOL    HW296399  10.296  11.941   7.523
98168SOL     OW96400  13.941   1.778   8.827
98168SOL    HW196401  13.877   1.783   8.898
98168SOL    HW296402  13.918   1.698   8.780
98169SOL     OW96403   7.744   3.224  10.543
98169SOL    HW196404   7.727   3.171  10.621
98169SOL    HW296405   7.690   3.302  10.556
98170SOL     OW96406  14.597   3.692   4.548
98170SOL    HW196407  14.541   3.765   4.522
98170SOL    HW296408  14.572   3.673   4.638
98171SOL     OW96409   4.333   0.877  14.712
98171SOL    HW196410   4.309   0.944  14.648
98171SOL    HW296411   4.426   0.894  14.730
98172SOL     OW96412  10.141  12.127   1.162
98172SOL    HW196413  10.139  12.033   1.182
98172SOL    HW296414  10.117  12.132   1.069
98173SOL     OW96415  14.402   0.573   1.523
98173SOL    HW196416  14.375   0.544   1.610
98173SOL    HW296417  14.331   0.630   1.494
98174SOL     OW96418   9.729   8.301   7.406
98174SOL    HW196419   9.672   8.259   7.471
98174SOL    HW296420   9.696   8.390   7.400
98175SOL     OW96421  10.758   5.344  13.658
98175SOL    HW196422  10.679   5.297  13.629
98175SOL    HW296423  10.827   5.312  13.599
98176SOL     OW96424  12.220  12.130  10.857
98176SOL    HW196425  12.173  12.047  10.846
98176SOL    HW296426  12.312  12.104  10.867
98177SOL     OW96427   1.574  10.740   7.863
98177SOL    HW196428   1.586  10.740   7.958
98177SOL    HW296429   1.620  10.819   7.833
98178SOL     OW96430   1.206   0.836  12.761
98178SOL    HW196431   1.245   0.748  12.761
98178SOL    HW296432   1.122   0.826  12.717
98179SOL     OW96433   5.423   2.002   5.140
98179SOL    HW196434   5.511   1.976   5.168
98179SOL    HW296435   5.432   2.025   5.048
98180SOL     OW96436  11.663   0.154  12.473
98180SOL    HW196437  11.687   0.114  12.390
98180SOL    HW296438  11.713   0.236  12.476
98181SOL     OW96439  13.257   2.343  11.839
98181SOL    HW196440  13.181   2.286  11.847
98181SOL    HW296441  13.240   2.396  11.761
98182SOL     OW96442   7.751   3.914  12.623
98182SOL    HW196443   7.687   3.901  12.552
98182SOL    HW296444   7.827   3.954  12.581
98183SOL     OW96445   7.579  11.256  10.291
98183SOL    HW196446   7.569  11.275  10.198
98183SOL    HW296447   7.510  11.192  10.310
98184SOL     OW96448  13.322   6.109   9.727
98184SOL    HW196449  13.271   6.154   9.661
98184SOL    HW296450  13.306   6.158   9.808
98185SOL     OW96451   1.873   9.469  12.276
98185SOL    HW196452   1.862   9.474  12.181
98185SOL    HW296453   1.834   9.550  12.310
98186SOL     OW96454   4.567   8.363  13.154
98186SOL    HW196455   4.515   8.297  13.109
98186SOL    HW296456   4.644   8.315  13.186
98187SOL     OW96457   7.358  11.430   0.726
98187SOL    HW196458   7.423  11.411   0.659
98187SOL    HW296459   7.372  11.364   0.794
98188SOL     OW96460   2.721   3.483  10.753
98188SOL    HW196461   2.673   3.501  10.834
98188SOL    HW296462   2.654   3.479  10.685
98189SOL     OW96463  14.865   2.579  12.823
98189SOL    HW196464  14.795   2.563  12.887
98189SOL    HW296465  14.825   2.558  12.739
98190SOL     OW96466   0.283  12.099  14.081
98190SOL    HW196467   0.267  12.124  14.172
98190SOL    HW296468   0.373  12.067  14.081
98191SOL     OW96469  12.696  10.605   2.718
98191SOL    HW196470  12.660  10.690   2.745
98191SOL    HW296471  12.693  10.552   2.797
98192SOL     OW96472   6.590   7.942   6.058
98192SOL    HW196473   6.507   7.948   6.107
98192SOL    HW296474   6.657   7.970   6.121
98193SOL     OW96475   9.474  10.986   3.193
98193SOL    HW196476   9.386  10.956   3.170
98193SOL    HW296477   9.507  10.918   3.252
98194SOL     OW96478   5.388   3.585   5.365
98194SOL    HW196479   5.412   3.653   5.302
98194SOL    HW296480   5.397   3.503   5.316
98195SOL     OW96481   8.411   8.491   3.417
98195SOL    HW196482   8.442   8.580   3.427
98195SOL    HW296483   8.332   8.487   3.472
98196SOL     OW96484   6.901   7.197   6.025
98196SOL    HW196485   6.988   7.194   6.063
98196SOL    HW296486   6.871   7.106   6.025
98197SOL     OW96487   7.667   2.808   0.126
98197SOL    HW196488   7.633   2.741   0.185
98197SOL    HW296489   7.746   2.769   0.088
98198SOL     OW96490  10.060  14.527  13.008
98198SOL    HW196491  10.134  14.544  12.949
98198SOL    HW296492  10.096  14.539  13.096
98199SOL     OW96493   5.273  10.077   9.181
98199SOL    HW196494   5.319  10.159   9.166
98199SOL    HW296495   5.343  10.012   9.192
98200SOL     OW96496   7.635  12.233   3.766
98200SOL    HW196497   7.704  12.286   3.726
98200SOL    HW296498   7.600  12.181   3.694
98201SOL     OW96499   6.323   8.637  11.959
98201SOL    HW196500   6.366   8.591  11.887
98201SOL    HW296501   6.232   8.645  11.932
98202SOL     OW96502  14.116   5.793   2.226
98202SOL    HW196503  14.133   5.731   2.155
98202SOL    HW296504  14.089   5.737   2.299
98203SOL     OW96505  13.180   6.144   4.245
98203SOL    HW196506  13.149   6.130   4.334
98203SOL    HW296507  13.129   6.218   4.213
98204SOL     OW96508  10.894   5.307   1.242
98204SOL    HW196509  10.915   5.400   1.238
98204SOL    HW296510  10.933   5.277   1.324
98205SOL     OW96511   3.873  10.511   8.360
98205SOL    HW196512   3.938  10.581   8.347
98205SOL    HW296513   3.906  10.462   8.435
98206SOL     OW96514   3.848  10.434   8.991
98206SOL    HW196515   3.912  10.363   9.001
98206SOL    HW296516   3.859  10.463   8.901
98207SOL     OW96517   2.203   7.351   4.749
98207SOL    HW196518   2.271   7.285   4.732
98207SOL    HW296519   2.238   7.431   4.710
98208SOL     OW96520   2.018   2.002   9.407
98208SOL    HW196521   2.077   1.944   9.455
98208SOL    HW296522   2.074   2.042   9.340
98209SOL     OW96523   2.405   3.181   7.296
98209SOL    HW196524   2.445   3.120   7.234
98209SOL    HW296525   2.337   3.226   7.246
98210SOL     OW96526   7.853  14.516  14.299
98210SOL    HW196527   7.790  14.574  14.342
98210SOL    HW296528   7.923  14.505  14.363
98211SOL     OW96529   6.802   9.561  14.507
98211SOL    HW196530   6.733   9.549  14.442
98211SOL    HW296531   6.883   9.566  14.455
98212SOL     OW96532   7.548   4.417  12.649
98212SOL    HW196533   7.588   4.354  12.589
98212SOL    HW296534   7.614   4.487  12.658
98213SOL     OW96535   8.119  12.226   0.960
98213SOL    HW196536   8.047  12.238   0.898
98213SOL    HW296537   8.130  12.311   1.001
98214SOL     OW96538   1.274   2.890  13.254
98214SOL    HW196539   1.227   2.857  13.331
98214SOL    HW296540   1.218   2.961  13.221
98215SOL     OW96541  13.607   6.628  10.441
98215SOL    HW196542  13.513   6.642  10.440
98215SOL    HW296543  13.618   6.542  10.483
98216SOL     OW96544  12.741   7.820  14.176
98216SOL    HW196545  12.774   7.894  14.226
98216SOL    HW296546  12.663   7.791  14.224
98217SOL     OW96547   6.249   5.317  10.284
98217SOL    HW196548   6.319   5.252  10.283
98217SOL    HW296549   6.240   5.343  10.192
98218SOL     OW96550   0.026   5.959  14.566
98218SOL    HW196551   0.033   5.930  14.475
98218SOL    HW296552  14.812   6.006  14.570
98219SOL     OW96553   4.929  10.814   6.361
98219SOL    HW196554   4.916  10.896   6.314
98219SOL    HW296555   4.888  10.828   6.446
98220SOL     OW96556  10.002   8.179  14.603
98220SOL    HW196557   9.970   8.091  14.624
98220SOL    HW296558  10.093   8.179  14.632
98221SOL     OW96559   1.436   0.766  12.610
98221SOL    HW196560   1.355   0.818  12.613
98221SOL    HW296561   1.491   0.803  12.679
98222SOL     OW96562  11.649  14.458   6.805
98222SOL    HW196563  11.618  14.515   6.876
98222SOL    HW296564  11.735  14.493   6.782
98223SOL     OW96565   5.005   0.021  14.320
98223SOL    HW196566   4.927  14.836  14.309
98223SOL    HW296567   4.971   0.110  14.328
98224SOL     OW96568  11.943   0.621   4.417
98224SOL    HW196569  11.942   0.651   4.508
98224SOL    HW296570  11.989   0.690   4.369
98225SOL     OW96571  10.530   8.816   4.600
98225SOL    HW196572  10.487   8.741   4.558
98225SOL    HW296573  10.475   8.891   4.576
98226SOL     OW96574   6.678   8.861  13.671
98226SOL    HW196575   6.707   8.781  13.627
98226SOL    HW296576   6.582   8.856  13.668
98227SOL     OW96577   7.103   2.406  10.957
98227SOL    HW196578   7.149   2.399  10.873
98227SOL    HW296579   7.108   2.318  10.995
98228SOL     OW96580   3.336   1.101   3.134
98228SOL    HW196581   3.291   1.149   3.204
98228SOL    HW296582   3.310   1.147   3.054
98229SOL     OW96583   2.931   9.528   2.308
98229SOL    HW196584   2.955   9.468   2.379
98229SOL    HW296585   3.014   9.558   2.273
98230SOL     OW96586  12.018  13.491  11.899
98230SOL    HW196587  12.052  13.521  11.815
98230SOL    HW296588  11.924  13.479  11.885
98231SOL     OW96589   9.449  11.616   3.635
98231SOL    HW196590   9.357  11.641   3.638
98231SOL    HW296591   9.471  11.616   3.542
98232SOL     OW96592   2.181  12.768   7.567
98232SOL    HW196593   2.271  12.785   7.592
98232SOL    HW296594   2.159  12.838   7.506
98233SOL     OW96595  14.412  12.648   8.518
98233SOL    HW196596  14.473  12.580   8.488
98233SOL    HW296597  14.468  12.713   8.561
98234SOL     OW96598   2.460   5.397   5.730
98234SOL    HW196599   2.420   5.313   5.754
98234SOL    HW296600   2.400   5.433   5.664
98235SOL     OW96601   7.388  13.822  13.351
98235SOL    HW196602   7.465  13.777  13.386
98235SOL    HW296603   7.418  13.911  13.332
98236SOL     OW96604   6.522  12.280   4.868
98236SOL    HW196605   6.562  12.342   4.930
98236SOL    HW296606   6.452  12.331   4.826
98237SOL     OW96607   7.310   1.434   0.735
98237SOL    HW196608   7.349   1.469   0.815
98237SOL    HW296609   7.332   1.341   0.736
98238SOL     OW96610   5.900   4.115   4.793
98238SOL    HW196611   5.942   4.126   4.708
98238SOL    HW296612   5.960   4.157   4.855
98239SOL     OW96613   3.601   2.336  10.373
98239SOL    HW196614   3.686   2.350  10.414
98239SOL    HW296615   3.567   2.425  10.359
98240SOL     OW96616  12.295  13.604   0.793
98240SOL    HW196617  12.312  13.678   0.734
98240SOL    HW296618  12.218  13.631   0.843
98241SOL     OW96619  11.417   5.346   0.054
98241SOL    HW196620  11.388   5.434   0.078
98241SOL    HW296621  11.473   5.358  14.847
98242SOL     OW96622   3.669  11.652   2.210
98242SOL    HW196623   3.599  11.643   2.146
98242SOL    HW296624   3.688  11.562   2.236
98243SOL     OW96625  10.788   7.599   4.377
98243SOL    HW196626  10.878   7.569   4.366
98243SOL    HW296627  10.735   7.533   4.331
98244SOL     OW96628   0.787  11.938   1.001
98244SOL    HW196629   0.703  11.969   1.035
98244SOL    HW296630   0.851  12.002   1.033
98245SOL     OW96631  11.183  10.260   5.519
98245SOL    HW196632  11.158  10.222   5.435
98245SOL    HW296633  11.100  10.270   5.566
98246SOL     OW96634   3.996  10.791  12.848
98246SOL    HW196635   4.047  10.821  12.773
98246SOL    HW296636   4.004  10.696  12.846
98247SOL     OW96637   4.640  13.399  12.553
98247SOL    HW196638   4.669  13.371  12.639
98247SOL    HW296639   4.693  13.347  12.492
98248SOL     OW96640   1.510  13.559  11.620
98248SOL    HW196641   1.422  13.592  11.637
98248SOL    HW296642   1.517  13.480  11.674
98249SOL     OW96643  10.947   6.342  11.453
98249SOL    HW196644  10.992   6.376  11.530
98249SOL    HW296645  10.897   6.267  11.486
98250SOL     OW96646   2.796   3.023   4.965
98250SOL    HW196647   2.799   3.117   4.981
98250SOL    HW296648   2.708   2.997   4.993
98251SOL     OW96649   3.900  14.136  12.905
98251SOL    HW196650   3.973  14.079  12.880
98251SOL    HW296651   3.864  14.094  12.984
98252SOL     OW96652   9.112   3.407   8.450
98252SOL    HW196653   9.200   3.368   8.452
98252SOL    HW296654   9.123   3.486   8.396
98253SOL     OW96655   4.766  11.690   6.634
98253SOL    HW196656   4.721  11.743   6.701
98253SOL    HW296657   4.706  11.689   6.560
98254SOL     OW96658   4.021  12.610   1.497
98254SOL    HW196659   3.938  12.642   1.534
98254SOL    HW296660   4.012  12.623   1.403
98255SOL     OW96661  12.416   4.704   9.211
98255SOL    HW196662  12.417   4.798   9.228
98255SOL    HW296663  12.431   4.664   9.297
98256SOL     OW96664  10.216   0.864   3.294
98256SOL    HW196665  10.308   0.837   3.285
98256SOL    HW296666  10.210   0.903   3.381
98257SOL     OW96667   9.095  13.301  13.376
98257SOL    HW196668   9.021  13.354  13.345
98257SOL    HW296669   9.055  13.220  13.408
98258SOL     OW96670   8.787  12.107   9.501
98258SOL    HW196671   8.702  12.149   9.486
98258SOL    HW296672   8.778  12.020   9.462
98259SOL     OW96673   8.945   2.250  14.536
98259SOL    HW196674   9.001   2.327  14.530
98259SOL    HW296675   8.858   2.285  14.556
98260SOL     OW96676   1.893   4.146   7.373
98260SOL    HW196677   1.906   4.138   7.279
98260SOL    HW296678   1.980   4.165   7.409
98261SOL     OW96679   6.652   2.289  10.173
98261SOL    HW196680   6.574   2.235  10.157
98261SOL    HW296681   6.725   2.233  10.146
98262SOL     OW96682   8.344   2.113  11.246
98262SOL    HW196683   8.376   2.129  11.157
98262SOL    HW296684   8.320   2.199  11.279
98263SOL     OW96685   5.536   1.484   3.358
98263SOL    HW196686   5.484   1.495   3.278
98263SOL    HW296687   5.478   1.515   3.428
98264SOL     OW96688   2.202  12.994  11.027
98264SOL    HW196689   2.187  13.087  11.044
98264SOL    HW296690   2.115  12.960  11.004
98265SOL     OW96691   0.435   5.058   9.767
98265SOL    HW196692   0.498   5.084   9.700
98265SOL    HW296693   0.403   5.140   9.805
98266SOL     OW96694  13.051  11.882  13.546
98266SOL    HW196695  12.969  11.883  13.496
98266SOL    HW296696  13.035  11.819  13.617
98267SOL     OW96697  11.803  14.779   6.011
98267SOL    HW196698  11.813  14.698   5.960
98267SOL    HW296699  11.856  14.765   6.089
98268SOL     OW96700  10.536   7.900  10.882
98268SOL    HW196701  10.527   7.804  10.878
98268SOL    HW296702  10.502   7.930  10.798
98269SOL     OW96703   4.958   4.399   5.798
98269SOL    HW196704   5.017   4.324   5.788
98269SOL    HW296705   5.005   4.471   5.757
98270SOL     OW96706  14.050   1.858   3.294
98270SOL    HW196707  13.971   1.859   3.241
98270SOL    HW296708  14.118   1.822   3.237
98271SOL     OW96709   7.542   6.279   0.859
98271SOL    HW196710   7.623   6.236   0.888
98271SOL    HW296711   7.557   6.300   0.767
98272SOL     OW96712   8.573   9.639   4.909
98272SOL    HW196713   8.503   9.704   4.908
98272SOL    HW296714   8.572   9.600   4.821
98273SOL     OW96715  12.177   1.693   6.834
98273SOL    HW196716  12.109   1.645   6.880
98273SOL    HW296717  12.132   1.766   6.792
98274SOL     OW96718   9.631   4.303   1.026
98274SOL    HW196719   9.592   4.344   0.949
98274SOL    HW296720   9.557   4.289   1.086
98275SOL     OW96721   0.435  13.204   2.461
98275SOL    HW196722   0.384  13.220   2.540
98275SOL    HW296723   0.512  13.155   2.492
98276SOL     OW96724  11.988   0.548  10.368
98276SOL    HW196725  12.011   0.640  10.381
98276SOL    HW296726  11.933   0.527  10.443
98277SOL     OW96727   0.152   8.284   5.584
98277SOL    HW196728   0.098   8.248   5.654
98277SOL    HW296729   0.188   8.365   5.619
98278SOL     OW96730  11.309   7.304   6.503
98278SOL    HW196731  11.361   7.383   6.518
98278SOL    HW296732  11.259   7.324   6.424
98279SOL     OW96733  13.363  10.704   9.689
98279SOL    HW196734  13.455  10.700   9.715
98279SOL    HW296735  13.351  10.793   9.658
98280SOL     OW96736  14.127  13.886  14.542
98280SOL    HW196737  14.050  13.877  14.486
98280SOL    HW296738  14.134  13.980  14.558
98281SOL     OW96739   8.739   0.859   1.301
98281SOL    HW196740   8.680   0.784   1.307
98281SOL    HW296741   8.805   0.843   1.369
98282SOL     OW96742  13.354   2.269   3.295
98282SOL    HW196743  13.379   2.204   3.361
98282SOL    HW296744  13.425   2.265   3.230
98283SOL     OW96745   7.348   7.587   5.421
98283SOL    HW196746   7.389   7.567   5.337
98283SOL    HW296747   7.422   7.606   5.479
98284SOL     OW96748   5.685   0.380   6.031
98284SOL    HW196749   5.633   0.448   5.989
98284SOL    HW296750   5.711   0.418   6.115
98285SOL     OW96751  12.753   8.238  14.080
98285SOL    HW196752  12.660   8.224  14.098
98285SOL    HW296753  12.792   8.251  14.166
98286SOL     OW96754  11.094  11.144   4.001
98286SOL    HW196755  11.151  11.179   3.933
98286SOL    HW296756  11.101  11.206   4.073
98287SOL     OW96757   6.613  12.886   6.053
98287SOL    HW196758   6.601  12.967   6.004
98287SOL    HW296759   6.634  12.914   6.142
98288SOL     OW96760   9.813   7.065  12.188
98288SOL    HW196761   9.723   7.097  12.181
98288SOL    HW296762   9.862   7.140  12.224
98289SOL     OW96763   1.790   8.746  10.433
98289SOL    HW196764   1.882   8.721  10.426
98289SOL    HW296765   1.792   8.840  10.450
98290SOL     OW96766   6.256  12.527   9.768
98290SOL    HW196767   6.180  12.470   9.766
98290SOL    HW296768   6.331  12.467   9.758
98291SOL     OW96769   7.112   4.974   2.428
98291SOL    HW196770   7.178   4.962   2.359
98291SOL    HW296771   7.032   4.937   2.391
98292SOL     OW96772   7.709   5.280   7.022
98292SOL    HW196773   7.753   5.206   7.064
98292SOL    HW296774   7.778   5.346   7.012
98293SOL     OW96775  13.117  11.341   9.221
98293SOL    HW196776  13.166  11.290   9.157
98293SOL    HW296777  13.184  11.380   9.278
98294SOL     OW96778   7.319   7.542   2.863
98294SOL    HW196779   7.329   7.503   2.950
98294SOL    HW296780   7.324   7.637   2.879
98295SOL     OW96781   7.048  14.083   7.596
98295SOL    HW196782   6.979  14.017   7.590
98295SOL    HW296783   7.127  14.033   7.613
98296SOL     OW96784   4.072  12.691  13.374
98296SOL    HW196785   4.125  12.637  13.315
98296SOL    HW296786   4.100  12.665  13.462
98297SOL     OW96787   7.115  11.277  12.646
98297SOL    HW196788   7.211  11.273  12.651
98297SOL    HW296789   7.095  11.370  12.654
98298SOL     OW96790   6.086   2.708   2.279
98298SOL    HW196791   6.138   2.693   2.200
98298SOL    HW296792   6.107   2.798   2.304
98299SOL     OW96793   8.918   1.517   1.463
98299SOL    HW196794   8.991   1.505   1.402
98299SOL    HW296795   8.903   1.611   1.465
98300SOL     OW96796  11.825   4.997  11.649
98300SOL    HW196797  11.828   4.905  11.674
98300SOL    HW296798  11.889   5.005  11.579
98301SOL     OW96799   7.724   0.489   6.374
98301SOL    HW196800   7.661   0.514   6.443
98301SOL    HW296801   7.687   0.525   6.294
98302SOL     OW96802  14.428  14.443   5.750
98302SOL    HW196803  14.477  14.367   5.781
98302SOL    HW296804  14.479  14.518   5.779
98303SOL     OW96805   4.224   6.950   4.614
98303SOL    HW196806   4.131   6.970   4.630
98303SOL    HW296807   4.237   6.974   4.522
98304SOL     OW96808   4.912  10.679   5.595
98304SOL    HW196809   4.921  10.760   5.645
98304SOL    HW296810   4.839  10.696   5.535
98305SOL     OW96811   8.482  13.693   1.855
98305SOL    HW196812   8.463  13.609   1.896
98305SOL    HW296813   8.569  13.681   1.816
98306SOL     OW96814   1.383   2.177   0.297
98306SOL    HW196815   1.312   2.131   0.253
98306SOL    HW296816   1.371   2.158   0.390
98307SOL     OW96817   9.999  11.624  14.668
98307SOL    HW196818  10.086  11.633  14.707
98307SOL    HW296819   9.944  11.683  14.719
98308SOL     OW96820  12.190   8.821   9.284
98308SOL    HW196821  12.118   8.866   9.240
98308SOL    HW296822  12.227   8.763   9.218
98309SOL     OW96823  13.936   0.757   2.097
98309SOL    HW196824  13.904   0.836   2.053
98309SOL    HW296825  13.890   0.756   2.181
98310SOL     OW96826   1.631   0.114   6.316
98310SOL    HW196827   1.647   0.091   6.408
98310SOL    HW296828   1.657   0.037   6.267
98311SOL     OW96829   0.605  11.106   0.350
98311SOL    HW196830   0.517  11.084   0.321
98311SOL    HW296831   0.616  11.059   0.433
98312SOL     OW96832  10.950   4.261  11.664
98312SOL    HW196833  10.957   4.351  11.631
98312SOL    HW296834  10.931   4.209  11.585
98313SOL     OW96835   7.069   5.458   1.057
98313SOL    HW196836   7.033   5.546   1.063
98313SOL    HW296837   7.156   5.465   1.096
98314SOL     OW96838  13.356   7.671   0.373
98314SOL    HW196839  13.323   7.751   0.415
98314SOL    HW296840  13.278   7.630   0.335
98315SOL     OW96841   8.395   7.124   6.252
98315SOL    HW196842   8.365   7.036   6.233
98315SOL    HW296843   8.462   7.112   6.319
98316SOL     OW96844   6.558   7.015   5.322
98316SOL    HW196845   6.606   6.966   5.389
98316SOL    HW296846   6.605   7.098   5.314
98317SOL     OW96847   8.855  11.116   7.902
98317SOL    HW196848   8.856  11.031   7.859
98317SOL    HW296849   8.764  11.130   7.927
98318SOL     OW96850   5.850  11.094   8.400
98318SOL    HW196851   5.866  11.188   8.404
98318SOL    HW296852   5.836  11.067   8.491
98319SOL     OW96853   2.315   7.621  12.561
98319SOL    HW196854   2.283   7.687  12.622
98319SOL    HW296855   2.396   7.588  12.601
98320SOL     OW96856   5.156  14.355  10.252
98320SOL    HW196857   5.101  14.382  10.326
98320SOL    HW296858   5.176  14.264  10.270
98321SOL     OW96859  13.489  13.948   6.953
98321SOL    HW196860  13.431  13.985   7.019
98321SOL    HW296861  13.484  14.009   6.880
98322SOL     OW96862   1.462   0.711  11.768
98322SOL    HW196863   1.380   0.677  11.804
98322SOL    HW296864   1.462   0.804  11.792
98323SOL     OW96865   6.239   8.797   5.827
98323SOL    HW196866   6.289   8.715   5.827
98323SOL    HW296867   6.282   8.851   5.762
98324SOL     OW96868  11.802   3.209  13.289
98324SOL    HW196869  11.751   3.257  13.224
98324SOL    HW296870  11.812   3.121  13.252
98325SOL     OW96871  12.815   9.339   1.844
98325SOL    HW196872  12.773   9.387   1.916
98325SOL    HW296873  12.804   9.247   1.867
98326SOL     OW96874  12.598  11.833  11.838
98326SOL    HW196875  12.661  11.780  11.887
98326SOL    HW296876  12.648  11.912  11.814
98327SOL     OW96877   4.169   5.920   0.862
98327SOL    HW196878   4.224   5.990   0.827
98327SOL    HW296879   4.229   5.846   0.873
98328SOL     OW96880  14.851   6.897  10.486
98328SOL    HW196881   0.068   6.873  10.520
98328SOL    HW296882  14.835   6.984  10.521
98329SOL     OW96883  13.791   0.624   1.703
98329SOL    HW196884  13.711   0.603   1.657
98329SOL    HW296885  13.766   0.626   1.796
98330SOL     OW96886  14.802   4.553  14.743
98330SOL    HW196887  14.732   4.533  14.805
98330SOL    HW296888  14.847   4.628  14.782
98331SOL     OW96889   1.279   5.754   6.586
98331SOL    HW196890   1.345   5.690   6.557
98331SOL    HW296891   1.196   5.716   6.558
98332SOL     OW96892  12.405   9.948  11.590
98332SOL    HW196893  12.314   9.956  11.562
98332SOL    HW296894  12.407   9.984  11.678
98333SOL     OW96895   1.190   3.871   5.778
98333SOL    HW196896   1.140   3.809   5.725
98333SOL    HW296897   1.267   3.892   5.725
98334SOL     OW96898   1.463  12.139   9.495
98334SOL    HW196899   1.485  12.107   9.583
98334SOL    HW296900   1.377  12.179   9.505
98335SOL     OW96901   7.495   0.955   0.270
98335SOL    HW196902   7.500   0.897   0.346
98335SOL    HW296903   7.586   0.980   0.253
98336SOL     OW96904   4.759   5.809   3.544
98336SOL    HW196905   4.710   5.787   3.623
98336SOL    HW296906   4.694   5.848   3.486
98337SOL     OW96907   8.262  12.149  14.414
98337SOL    HW196908   8.232  12.204  14.487
98337SOL    HW296909   8.261  12.207  14.338
98338SOL     OW96910   7.453   6.872   2.729
98338SOL    HW196911   7.414   6.878   2.816
98338SOL    HW296912   7.443   6.960   2.692
98339SOL     OW96913  11.526  10.561   1.870
98339SOL    HW196914  11.494  10.476   1.902
98339SOL    HW296915  11.612  10.542   1.834
98340SOL     OW96916   1.456   5.439  11.901
98340SOL    HW196917   1.453   5.451  11.996
98340SOL    HW296918   1.422   5.521  11.866
98341SOL     OW96919  10.804   0.727   7.200
98341SOL    HW196920  10.851   0.713   7.118
98341SOL    HW296921  10.771   0.817   7.193
98342SOL     OW96922   8.442   1.331   3.920
98342SOL    HW196923   8.440   1.235   3.922
98342SOL    HW296924   8.350   1.357   3.915
98343SOL     OW96925   1.187   3.355   8.344
98343SOL    HW196926   1.140   3.296   8.285
98343SOL    HW296927   1.226   3.297   8.410
98344SOL     OW96928   0.083   5.648   1.658
98344SOL    HW196929   0.061   5.582   1.592
98344SOL    HW296930   0.178   5.651   1.658
98345SOL     OW96931   0.166   7.862   8.394
98345SOL    HW196932   0.197   7.782   8.353
98345SOL    HW296933   0.241   7.896   8.443
98346SOL     OW96934   7.569   2.380   2.667
98346SOL    HW196935   7.541   2.304   2.718
98346SOL    HW296936   7.555   2.455   2.725
98347SOL     OW96937   3.871   9.035  14.419
98347SOL    HW196938   3.953   9.022  14.372
98347SOL    HW296939   3.805   9.045  14.350
98348SOL     OW96940   1.153   5.619   2.154
98348SOL    HW196941   1.210   5.654   2.086
98348SOL    HW296942   1.116   5.697   2.197
98349SOL     OW96943   5.767   3.424  12.167
98349SOL    HW196944   5.804   3.357  12.224
98349SOL    HW296945   5.676   3.396  12.154
98350SOL     OW96946   3.330   8.937  10.309
98350SOL    HW196947   3.347   8.845  10.331
98350SOL    HW296948   3.417   8.979  10.313
98351SOL     OW96949   9.525   9.518   9.206
98351SOL    HW196950   9.509   9.424   9.217
98351SOL    HW296951   9.610   9.522   9.161
98352SOL     OW96952   1.172  14.500   5.422
98352SOL    HW196953   1.232  14.552   5.368
98352SOL    HW296954   1.135  14.563   5.484
98353SOL     OW96955   4.759   7.227  14.194
98353SOL    HW196956   4.674   7.217  14.151
98353SOL    HW296957   4.775   7.141  14.234
98354SOL     OW96958   4.302  10.296   9.495
98354SOL    HW196959   4.306  10.239   9.418
98354SOL    HW296960   4.317  10.384   9.459
98355SOL     OW96961  12.967  14.328   0.276
98355SOL    HW196962  12.893  14.274   0.303
98355SOL    HW296963  12.929  14.415   0.263
98356SOL     OW96964  13.326   7.400  10.042
98356SOL    HW196965  13.413   7.395  10.001
98356SOL    HW296966  13.282   7.471   9.996
98357SOL     OW96967   0.714  13.767   6.295
98357SOL    HW196968   0.712  13.861   6.314
98357SOL    HW296969   0.794  13.735   6.337
98358SOL     OW96970  14.631   4.203  14.542
98358SOL    HW196971  14.647   4.147  14.617
98358SOL    HW296972  14.626   4.143  14.467
98359SOL     OW96973   9.442   9.354   4.792
98359SOL    HW196974   9.399   9.282   4.745
98359SOL    HW296975   9.458   9.419   4.724
98360SOL     OW96976  12.428   0.303  11.895
98360SOL    HW196977  12.366   0.376  11.901
98360SOL    HW296978  12.396   0.239  11.958
98361SOL     OW96979   0.398   6.083   8.249
98361SOL    HW196980   0.399   6.061   8.156
98361SOL    HW296981   0.369   6.175   8.251
98362SOL     OW96982   1.608   2.334   3.856
98362SOL    HW196983   1.656   2.316   3.775
98362SOL    HW296984   1.661   2.399   3.901
98363SOL     OW96985   0.090  12.412   5.128
98363SOL    HW196986   0.004  12.414   5.169
98363SOL    HW296987   0.151  12.406   5.201
98364SOL     OW96988   8.567  14.165  10.786
98364SOL    HW196989   8.643  14.193  10.734
98364SOL    HW296990   8.602  14.149  10.873
98365SOL     OW96991   0.409  11.060   0.660
98365SOL    HW196992   0.358  10.980   0.676
98365SOL    HW296993   0.494  11.028   0.630
98366SOL     OW96994  13.285   1.469   5.919
98366SOL    HW196995  13.320   1.556   5.904
98366SOL    HW296996  13.359   1.419   5.953
98367SOL     OW96997  14.096   1.784   9.476
98367SOL    HW196998  14.112   1.876   9.494
98367SOL    HW296999  14.090   1.743   9.562
98368SOL     OW97000   9.111   6.223  12.841
98368SOL    HW197001   9.171   6.291  12.811
98368SOL    HW297002   9.110   6.232  12.936
98369SOL     OW97003  13.799   4.168   3.699
98369SOL    HW197004  13.719   4.203   3.658
98369SOL    HW297005  13.814   4.224   3.774
98370SOL     OW97006  11.184   0.253  14.425
98370SOL    HW197007  11.146   0.202  14.353
98370SOL    HW297008  11.273   0.274  14.397
98371SOL     OW97009   7.597   1.929   3.084
98371SOL    HW197010   7.596   1.864   3.155
98371SOL    HW297011   7.549   1.888   3.013
98372SOL     OW97012  10.276  12.725   2.448
98372SOL    HW197013  10.344  12.776   2.404
98372SOL    HW297014  10.200  12.783   2.448
98373SOL     OW97015   0.622   7.653   5.527
98373SOL    HW197016   0.629   7.636   5.433
98373SOL    HW297017   0.545   7.709   5.536
98374SOL     OW97018   7.847   3.947  13.608
98374SOL    HW197019   7.937   3.965  13.634
98374SOL    HW297020   7.847   3.855  13.582
98375SOL     OW97021  12.047   4.561   3.649
98375SOL    HW197022  12.002   4.482   3.679
98375SOL    HW297023  12.138   4.534   3.635
98376SOL     OW97024   2.662   2.620   5.992
98376SOL    HW197025   2.709   2.671   6.058
98376SOL    HW297026   2.664   2.530   6.025
98377SOL     OW97027   8.322   0.979   6.459
98377SOL    HW197028   8.362   0.929   6.387
98377SOL    HW297029   8.285   0.912   6.517
98378SOL     OW97030  14.083  14.433   6.927
98378SOL    HW197031  14.174  14.453   6.948
98378SOL    HW297032  14.086  14.348   6.882
98379SOL     OW97033   3.501   7.951   3.557
98379SOL    HW197034   3.486   8.039   3.521
98379SOL    HW297035   3.574   7.917   3.506
98380SOL     OW97036  14.574  11.989   9.507
98380SOL    HW197037  14.547  11.999   9.599
98380SOL    HW297038  14.536  12.065   9.463
98381SOL     OW97039  13.156   1.708   8.678
98381SOL    HW197040  13.230   1.685   8.621
98381SOL    HW297041  13.120   1.788   8.639
98382SOL     OW97042   0.124   3.687   3.043
98382SOL    HW197043   0.072   3.683   2.963
98382SOL    HW297044   0.061   3.673   3.114
98383SOL     OW97045   1.408   1.084  14.755
98383SOL    HW197046   1.342   1.072  14.824
98383SOL    HW297047   1.483   1.034  14.785
98384SOL     OW97048  10.945   9.599   4.044
98384SOL    HW197049  11.028   9.552   4.057
98384SOL    HW297050  10.971   9.691   4.040
98385SOL     OW97051  10.476   6.725   4.724
98385SOL    HW197052  10.394   6.720   4.773
98385SOL    HW297053  10.501   6.817   4.729
98386SOL     OW97054  10.684   7.186  14.482
98386SOL    HW197055  10.681   7.202  14.577
98386SOL    HW297056  10.687   7.091  14.474
98387SOL     OW97057   7.793  12.206   4.495
98387SOL    HW197058   7.813  12.154   4.573
98387SOL    HW297059   7.877  12.245   4.470
98388SOL     OW97060   3.416  11.105  14.734
98388SOL    HW197061   3.367  11.186  14.721
98388SOL    HW297062   3.352  11.036  14.717
98389SOL     OW97063   9.184   8.884   5.578
98389SOL    HW197064   9.110   8.938   5.550
98389SOL    HW297065   9.176   8.880   5.673
98390SOL     OW97066  12.563   8.935   7.711
98390SOL    HW197067  12.514   8.890   7.779
98390SOL    HW297068  12.503   9.000   7.676
98391SOL     OW97069   4.293   9.053   9.382
98391SOL    HW197070   4.378   9.021   9.413
98391SOL    HW297071   4.306   9.065   9.287
98392SOL     OW97072   3.817  12.764  13.339
98392SOL    HW197073   3.788  12.697  13.277
98392SOL    HW297074   3.904  12.734  13.367
98393SOL     OW97075   2.875   3.232   3.927
98393SOL    HW197076   2.901   3.251   3.837
98393SOL    HW297077   2.814   3.302   3.950
98394SOL     OW97078   4.000  11.605   8.986
98394SOL    HW197079   4.037  11.559   9.061
98394SOL    HW297080   3.907  11.583   8.988
98395SOL     OW97081   4.212   5.117   8.485
98395SOL    HW197082   4.209   5.128   8.390
98395SOL    HW297083   4.227   5.206   8.518
98396SOL     OW97084   0.731   5.981   9.467
98396SOL    HW197085   0.710   5.915   9.401
98396SOL    HW297086   0.736   5.931   9.549
98397SOL     OW97087   9.105   6.012   0.872
98397SOL    HW197088   9.077   6.036   0.960
98397SOL    HW297089   9.131   5.920   0.880
98398SOL     OW97090  13.607   5.565   6.629
98398SOL    HW197091  13.641   5.494   6.575
98398SOL    HW297092  13.617   5.643   6.574
98399SOL     OW97093   4.052  11.812  12.590
98399SOL    HW197094   4.110  11.881  12.624
98399SOL    HW297095   4.111  11.745  12.557
98400SOL     OW97096   7.247   2.991   7.614
98400SOL    HW197097   7.287   3.076   7.636
98400SOL    HW297098   7.302   2.955   7.545
98401SOL     OW97099  13.791  12.489   7.467
98401SOL    HW197100  13.730  12.558   7.494
98401SOL    HW297101  13.874  12.534   7.454
98402SOL     OW97102   9.741   8.104   1.256
98402SOL    HW197103   9.656   8.114   1.213
98402SOL    HW297104   9.754   8.010   1.263
98403SOL     OW97105   5.218   9.135   6.367
98403SOL    HW197106   5.310   9.118   6.347
98403SOL    HW297107   5.170   9.091   6.297
98404SOL     OW97108   6.527   0.703   9.799
98404SOL    HW197109   6.467   0.643   9.755
98404SOL    HW297110   6.582   0.738   9.728
98405SOL     OW97111  11.833   9.684   9.308
98405SOL    HW197112  11.834   9.716   9.398
98405SOL    HW297113  11.913   9.719   9.269
98406SOL     OW97114  14.119  11.313   3.019
98406SOL    HW197115  14.042  11.273   2.977
98406SOL    HW297116  14.094  11.322   3.111
98407SOL     OW97117   0.349   4.774  13.470
98407SOL    HW197118   0.384   4.723  13.543
98407SOL    HW297119   0.425   4.796  13.417
98408SOL     OW97120   1.915   2.913   7.021
98408SOL    HW197121   1.833   2.927   6.974
98408SOL    HW297122   1.930   2.819   7.016
98409SOL     OW97123  14.699  14.034   4.662
98409SOL    HW197124  14.698  14.116   4.613
98409SOL    HW297125  14.756  14.052   4.737
98410SOL     OW97126  13.120   0.789  14.359
98410SOL    HW197127  13.191   0.730  14.385
98410SOL    HW297128  13.048   0.766  14.417
98411SOL     OW97129   7.316   6.546  13.305
98411SOL    HW197130   7.362   6.482  13.360
98411SOL    HW297131   7.386   6.599  13.266
98412SOL     OW97132   6.913   8.724   6.296
98412SOL    HW197133   6.871   8.680   6.222
98412SOL    HW297134   7.006   8.726   6.272
98413SOL     OW97135  12.171  14.429   7.045
98413SOL    HW197136  12.246  14.489   7.044
98413SOL    HW297137  12.201  14.355   7.097
98414SOL     OW97138   0.476   6.935  13.415
98414SOL    HW197139   0.453   7.028  13.421
98414SOL    HW297140   0.527   6.928  13.334
98415SOL     OW97141  12.918  11.870   7.347
98415SOL    HW197142  12.825  11.887   7.363
98415SOL    HW297143  12.922  11.842   7.256
98416SOL     OW97144   3.274  12.019   6.257
98416SOL    HW197145   3.270  11.932   6.296
98416SOL    HW297146   3.252  12.078   6.329
98417SOL     OW97147  10.382   4.776  10.419
98417SOL    HW197148  10.305   4.725  10.447
98417SOL    HW297149  10.386   4.763  10.325
98418SOL     OW97150   8.624  13.916  11.335
98418SOL    HW197151   8.600  13.908  11.242
98418SOL    HW297152   8.591  13.836  11.375
98419SOL     OW97153   8.826   8.843  12.884
98419SOL    HW197154   8.767   8.857  12.811
98419SOL    HW297155   8.769   8.838  12.961
98420SOL     OW97156   0.115  12.541   6.166
98420SOL    HW197157   0.062  12.493   6.229
98420SOL    HW297158   0.053  12.593   6.116
98421SOL     OW97159  14.449   0.571   4.774
98421SOL    HW197160  14.464   0.666   4.765
98421SOL    HW297161  14.435   0.559   4.868
98422SOL     OW97162   1.650  11.533   9.850
98422SOL    HW197163   1.646  11.605   9.913
98422SOL    HW297164   1.562  11.527   9.815
98423SOL     OW97165   8.251  14.755  10.045
98423SOL    HW197166   8.162  14.789  10.043
98423SOL    HW297167   8.303  14.825  10.085
98424SOL     OW97168  12.294   9.871   4.698
98424SOL    HW197169  12.340   9.821   4.630
98424SOL    HW297170  12.310   9.962   4.676
98425SOL     OW97171  14.005  13.629  12.022
98425SOL    HW197172  13.948  13.598  11.951
98425SOL    HW297173  14.034  13.715  11.993
98426SOL     OW97174  13.272  11.142   4.061
98426SOL    HW197175  13.286  11.169   4.152
98426SOL    HW297176  13.345  11.182   4.013
98427SOL     OW97177   1.940   0.493  14.286
98427SOL    HW197178   1.963   0.401  14.273
98427SOL    HW297179   1.913   0.524  14.200
98428SOL     OW97180  14.782   7.593   8.775
98428SOL    HW197181  14.740   7.529   8.832
98428SOL    HW297182  14.829   7.540   8.710
98429SOL     OW97183   1.928  10.571   5.375
98429SOL    HW197184   1.840  10.598   5.403
98429SOL    HW297185   1.976  10.653   5.365
98430SOL     OW97186   8.752   3.953   2.683
98430SOL    HW197187   8.752   3.962   2.779
98430SOL    HW297188   8.832   3.996   2.655
98431SOL     OW97189  13.107  14.068   6.698
98431SOL    HW197190  13.073  14.096   6.783
98431SOL    HW297191  13.167  14.138   6.672
98432SOL     OW97192   8.326   0.123  10.981
98432SOL    HW197193   8.289   0.171  10.907
98432SOL    HW297194   8.258   0.061  11.007
98433SOL     OW97195  13.737   3.251   6.509
98433SOL    HW197196  13.674   3.187   6.544
98433SOL    HW297197  13.816   3.237   6.562
98434SOL     OW97198   7.683  12.225  12.563
98434SOL    HW197199   7.769  12.247  12.528
98434SOL    HW297200   7.622  12.281  12.516
98435SOL     OW97201   2.509  13.241   3.114
98435SOL    HW197202   2.524  13.334   3.131
98435SOL    HW297203   2.536  13.198   3.195
98436SOL     OW97204   1.413   8.503   8.879
98436SOL    HW197205   1.424   8.422   8.927
98436SOL    HW297206   1.488   8.557   8.905
98437SOL     OW97207   2.616  12.217   1.593
98437SOL    HW197208   2.579  12.300   1.620
98437SOL    HW297209   2.689  12.202   1.653
98438SOL     OW97210  11.309   3.453   7.267
98438SOL    HW197211  11.244   3.431   7.201
98438SOL    HW297212  11.355   3.529   7.231
98439SOL     OW97213   1.529   4.838   2.806
98439SOL    HW197214   1.590   4.764   2.814
98439SOL    HW297215   1.461   4.820   2.871
98440SOL     OW97216   2.134   1.878   1.172
98440SOL    HW197217   2.181   1.865   1.090
98440SOL    HW297218   2.073   1.949   1.154
98441SOL     OW97219   3.644  10.675  11.591
98441SOL    HW197220   3.690  10.599  11.627
98441SOL    HW297221   3.711  10.743  11.586
98442SOL     OW97222   8.053   3.589  11.751
98442SOL    HW197223   8.017   3.605  11.838
98442SOL    HW297224   7.978   3.563  11.698
98443SOL     OW97225   7.180   6.516   0.780
98443SOL    HW197226   7.148   6.540   0.867
98443SOL    HW297227   7.246   6.582   0.760
98444SOL     OW97228   0.303   9.846  11.722
98444SOL    HW197229   0.300   9.885  11.635
98444SOL    HW297230   0.348   9.763  11.710
98445SOL     OW97231  11.930  11.137   6.702
98445SOL    HW197232  11.972  11.051   6.708
98445SOL    HW297233  12.000  11.196   6.672
98446SOL     OW97234   7.431  13.030  11.103
98446SOL    HW197235   7.383  12.990  11.030
98446SOL    HW297236   7.411  12.974  11.178
98447SOL     OW97237   0.091   1.596  13.177
98447SOL    HW197238   0.148   1.521  13.158
98447SOL    HW297239   0.002   1.563  13.161
98448SOL     OW97240   5.324   6.604  12.021
98448SOL    HW197241   5.244   6.648  12.050
98448SOL    HW297242   5.341   6.639  11.934
98449SOL     OW97243   2.253  14.796   5.036
98449SOL    HW197244   2.317  14.770   5.102
98449SOL    HW297245   2.238   0.019   5.052
98450SOL     OW97246   2.097  10.217   6.173
98450SOL    HW197247   2.034  10.266   6.227
98450SOL    HW297248   2.069  10.126   6.180
98451SOL     OW97249  12.667   2.609   1.983
98451SOL    HW197250  12.755   2.573   1.979
98451SOL    HW297251  12.610   2.533   1.990
98452SOL     OW97252  13.434   2.704   4.101
98452SOL    HW197253  13.369   2.774   4.092
98452SOL    HW297254  13.502   2.741   4.158
98453SOL     OW97255   1.838   8.415   0.669
98453SOL    HW197256   1.843   8.426   0.763
98453SOL    HW297257   1.928   8.400   0.641
98454SOL     OW97258  13.742   5.512   2.817
98454SOL    HW197259  13.764   5.604   2.833
98454SOL    HW297260  13.652   5.503   2.849
98455SOL     OW97261  10.816   2.206  11.622
98455SOL    HW197262  10.889   2.229  11.679
98455SOL    HW297263  10.751   2.274  11.637
98456SOL     OW97264   2.542   7.059   8.900
98456SOL    HW197265   2.509   7.040   8.988
98456SOL    HW297266   2.611   7.123   8.914
98457SOL     OW97267   7.647   1.277   3.568
98457SOL    HW197268   7.691   1.194   3.549
98457SOL    HW297269   7.713   1.344   3.553
98458SOL     OW97270  14.239   5.982   5.237
98458SOL    HW197271  14.280   6.068   5.231
98458SOL    HW297272  14.279   5.931   5.166
98459SOL     OW97273   9.236  12.538  14.107
98459SOL    HW197274   9.231  12.476  14.179
98459SOL    HW297275   9.269  12.618  14.146
98460SOL     OW97276  10.351   8.647  12.056
98460SOL    HW197277  10.390   8.612  11.976
98460SOL    HW297278  10.257   8.637  12.043
98461SOL     OW97279  10.609  10.114  10.144
98461SOL    HW197280  10.598  10.195  10.194
98461SOL    HW297281  10.702  10.092  10.154
98462SOL     OW97282   4.072   9.754   8.545
98462SOL    HW197283   3.984   9.722   8.529
98462SOL    HW297284   4.128   9.697   8.492
98463SOL     OW97285   7.045   4.039  13.201
98463SOL    HW197286   7.059   4.023  13.294
98463SOL    HW297287   7.133   4.044  13.164
98464SOL     OW97288   1.311   8.441   4.837
98464SOL    HW197289   1.400   8.406   4.846
98464SOL    HW297290   1.317   8.504   4.766
98465SOL     OW97291   2.593   5.169   8.574
98465SOL    HW197292   2.634   5.109   8.636
98465SOL    HW297293   2.647   5.248   8.579
98466SOL     OW97294   0.693  13.998   3.041
98466SOL    HW197295   0.698  13.993   2.946
98466SOL    HW297296   0.738  13.920   3.072
98467SOL     OW97297   7.062  10.798   3.618
98467SOL    HW197298   7.136  10.823   3.673
98467SOL    HW297299   7.099  10.789   3.530
98468SOL     OW97300  14.477   5.094  14.664
98468SOL    HW197301  14.570   5.110  14.679
98468SOL    HW297302  14.436   5.180  14.669
98469SOL     OW97303  11.239  13.857   1.224
98469SOL    HW197304  11.270  13.775   1.263
98469SOL    HW297305  11.170  13.886   1.283
98470SOL     OW97306  12.202   3.440   9.646
98470SOL    HW197307  12.260   3.366   9.629
98470SOL    HW297308  12.222   3.466   9.736
98471SOL     OW97309   4.792  14.834   7.728
98471SOL    HW197310   4.777   0.023   7.802
98471SOL    HW297311   4.823   0.022   7.658
98472SOL     OW97312  14.253   7.344  10.018
98472SOL    HW197313  14.194   7.415   9.995
98472SOL    HW297314  14.244   7.281   9.946
98473SOL     OW97315  11.821   4.594  10.847
98473SOL    HW197316  11.773   4.562  10.924
98473SOL    HW297317  11.892   4.531  10.836
98474SOL     OW97318  13.637   3.255   9.025
98474SOL    HW197319  13.557   3.287   8.983
98474SOL    HW297320  13.611   3.173   9.068
98475SOL     OW97321  10.786   8.344  14.501
98475SOL    HW197322  10.784   8.248  14.506
98475SOL    HW297323  10.718   8.372  14.562
98476SOL     OW97324   5.500   4.460   1.613
98476SOL    HW197325   5.414   4.489   1.582
98476SOL    HW297326   5.520   4.384   1.558
98477SOL     OW97327  12.347   4.158   3.230
98477SOL    HW197328  12.397   4.239   3.219
98477SOL    HW297329  12.281   4.160   3.161
98478SOL     OW97330   5.018  11.671   4.240
98478SOL    HW197331   5.066  11.641   4.163
98478SOL    HW297332   5.056  11.757   4.260
98479SOL     OW97333   3.013  14.366   5.945
98479SOL    HW197334   2.938  14.397   5.894
98479SOL    HW297335   2.986  14.377   6.036
98480SOL     OW97336   3.389   3.978  13.288
98480SOL    HW197337   3.378   4.069  13.317
98480SOL    HW297338   3.377   3.982  13.193
98481SOL     OW97339   4.701   7.622  10.537
98481SOL    HW197340   4.788   7.582  10.540
98481SOL    HW297341   4.657   7.588  10.615
98482SOL     OW97342   2.744   4.231   9.300
98482SOL    HW197343   2.725   4.143   9.270
98482SOL    HW297344   2.822   4.221   9.355
98483SOL     OW97345   3.110   3.226   8.622
98483SOL    HW197346   3.080   3.135   8.619
98483SOL    HW297347   3.182   3.229   8.559
98484SOL     OW97348   9.895   8.607   0.568
98484SOL    HW197349   9.876   8.520   0.532
98484SOL    HW297350   9.872   8.600   0.660
98485SOL     OW97351   6.979   7.970  12.762
98485SOL    HW197352   6.981   7.890  12.815
98485SOL    HW297353   7.071   7.997  12.755
98486SOL     OW97354  12.509   2.843   9.046
98486SOL    HW197355  12.458   2.761   9.052
98486SOL    HW297356  12.580   2.822   8.986
98487SOL     OW97357   0.430  11.939   8.388
98487SOL    HW197358   0.374  11.996   8.335
98487SOL    HW297359   0.486  11.895   8.324
98488SOL     OW97360  11.147   8.643   9.608
98488SOL    HW197361  11.235   8.611   9.626
98488SOL    HW297362  11.089   8.576   9.644
98489SOL     OW97363  14.675  14.177   7.073
98489SOL    HW197364  14.616  14.152   7.002
98489SOL    HW297365  14.621  14.229   7.133
98490SOL     OW97366  12.406  12.698  14.415
98490SOL    HW197367  12.464  12.663  14.483
98490SOL    HW297368  12.318  12.689  14.453
98491SOL     OW97369  10.887  11.457   8.820
98491SOL    HW197370  10.973  11.495   8.801
98491SOL    HW297371  10.839  11.527   8.864
98492SOL     OW97372   2.028   2.425   6.045
98492SOL    HW197373   2.021   2.500   6.104
98492SOL    HW297374   2.094   2.369   6.085
98493SOL     OW97375   1.776   6.425   3.771
98493SOL    HW197376   1.851   6.371   3.799
98493SOL    HW297377   1.713   6.417   3.843
98494SOL     OW97378  11.367   0.379  12.257
98494SOL    HW197379  11.416   0.461  12.263
98494SOL    HW297380  11.342   0.360  12.348
98495SOL     OW97381   7.320   8.909   4.487
98495SOL    HW197382   7.238   8.958   4.480
98495SOL    HW297383   7.373   8.939   4.413
98496SOL     OW97384   9.404   7.749   3.223
98496SOL    HW197385   9.325   7.802   3.225
98496SOL    HW297386   9.373   7.658   3.221
98497SOL     OW97387  11.395   9.832   3.390
98497SOL    HW197388  11.349   9.840   3.474
98497SOL    HW297389  11.401   9.922   3.357
98498SOL     OW97390   8.656  11.241   9.691
98498SOL    HW197391   8.615  11.196   9.618
98498SOL    HW297392   8.637  11.187   9.767
98499SOL     OW97393  14.159   0.465   6.437
98499SOL    HW197394  14.197   0.500   6.357
98499SOL    HW297395  14.228   0.472   6.502
98500SOL     OW97396   9.215  10.193  12.739
98500SOL    HW197397   9.226  10.102  12.766
98500SOL    HW297398   9.129  10.196  12.699
98501SOL     OW97399   4.428  13.083   7.979
98501SOL    HW197400   4.431  13.031   7.899
98501SOL    HW297401   4.354  13.048   8.029
98502SOL     OW97402   4.903  11.278   1.083
98502SOL    HW197403   4.869  11.344   1.023
98502SOL    HW297404   4.989  11.254   1.047
98503SOL     OW97405   0.613  13.095  11.307
98503SOL    HW197406   0.536  13.058  11.350
98503SOL    HW297407   0.600  13.190  11.313
98504SOL     OW97408  14.149  13.405   4.741
98504SOL    HW197409  14.063  13.376   4.710
98504SOL    HW297410  14.211  13.365   4.680
98505SOL     OW97411   2.219  10.810  14.128
98505SOL    HW197412   2.246  10.901  14.119
98505SOL    HW297413   2.216  10.776  14.039
98506SOL     OW97414  10.084   7.093  14.117
98506SOL    HW197415  10.065   7.153  14.189
98506SOL    HW297416  10.140   7.142  14.058
98507SOL     OW97417   4.359   5.595  10.952
98507SOL    HW197418   4.448   5.621  10.976
98507SOL    HW297419   4.321   5.673  10.913
98508SOL     OW97420  13.365   8.073  11.601
98508SOL    HW197421  13.441   8.092  11.656
98508SOL    HW297422  13.402   8.043  11.518
98509SOL     OW97423   8.239  12.122  10.332
98509SOL    HW197424   8.270  12.033  10.349
98509SOL    HW297425   8.255  12.169  10.414
98510SOL     OW97426   7.393   3.933   4.154
98510SOL    HW197427   7.483   3.929   4.187
98510SOL    HW297428   7.393   4.007   4.093
98511SOL     OW97429   9.640   7.239   2.075
98511SOL    HW197430   9.587   7.312   2.104
98511SOL    HW297431   9.654   7.255   1.981
98512SOL     OW97432   6.033   2.348   8.241
98512SOL    HW197433   6.119   2.317   8.269
98512SOL    HW297434   6.042   2.363   8.147
98513SOL     OW97435   4.713   7.317   6.732
98513SOL    HW197436   4.733   7.397   6.683
98513SOL    HW297437   4.770   7.321   6.809
98514SOL     OW97438  10.894   8.545  12.519
98514SOL    HW197439  10.847   8.566  12.600
98514SOL    HW297440  10.837   8.577  12.449
98515SOL     OW97441  11.776   1.850   2.768
98515SOL    HW197442  11.704   1.791   2.789
98515SOL    HW297443  11.734   1.925   2.725
98516SOL     OW97444   8.218   1.444  13.329
98516SOL    HW197445   8.236   1.530  13.367
98516SOL    HW297446   8.303   1.415  13.295
98517SOL     OW97447  14.160   6.164   6.986
98517SOL    HW197448  14.119   6.081   7.010
98517SOL    HW297449  14.154   6.167   6.890
98518SOL     OW97450  10.509   0.998  10.342
98518SOL    HW197451  10.482   1.086  10.318
98518SOL    HW297452  10.461   0.979  10.423
98519SOL     OW97453  12.494  12.104  10.926
98519SOL    HW197454  12.580  12.070  10.948
98519SOL    HW297455  12.502  12.199  10.935
98520SOL     OW97456  14.034   5.990   1.479
98520SOL    HW197457  14.071   5.957   1.397
98520SOL    HW297458  14.083   5.946   1.547
98521SOL     OW97459   6.112   6.327  13.598
98521SOL    HW197460   6.033   6.273  13.597
98521SOL    HW297461   6.100   6.386  13.672
98522SOL     OW97462  13.500  14.583   7.762
98522SOL    HW197463  13.449  14.589   7.682
98522SOL    HW297464  13.476  14.497   7.799
98523SOL     OW97465   2.087   6.777  13.133
98523SOL    HW197466   2.136   6.857  13.151
98523SOL    HW297467   2.068   6.741  13.220
98524SOL     OW97468   9.323  10.902  11.648
98524SOL    HW197469   9.394  10.955  11.614
98524SOL    HW297470   9.366  10.834  11.699
98525SOL     OW97471  11.414  11.504   6.102
98525SOL    HW197472  11.480  11.530   6.037
98525SOL    HW297473  11.393  11.414   6.080
98526SOL     OW97474   8.422  12.129   0.293
98526SOL    HW197475   8.428  12.181   0.373
98526SOL    HW297476   8.511  12.131   0.257
98527SOL     OW97477   6.673  14.606   1.543
98527SOL    HW197478   6.610  14.658   1.594
98527SOL    HW297479   6.644  14.516   1.554
98528SOL     OW97480  14.724   6.027   9.082
98528SOL    HW197481  14.744   6.029   9.175
98528SOL    HW297482  14.633   5.996   9.078
98529SOL     OW97483   3.336   1.790  10.617
98529SOL    HW197484   3.416   1.820  10.659
98529SOL    HW297485   3.338   1.830  10.530
98530SOL     OW97486   1.875  13.757  13.074
98530SOL    HW197487   1.913  13.817  13.010
98530SOL    HW297488   1.883  13.804  13.157
98531SOL     OW97489  11.842   1.272   9.961
98531SOL    HW197490  11.859   1.359   9.997
98531SOL    HW297491  11.756   1.279   9.919
98532SOL     OW97492  13.789  12.088   2.280
98532SOL    HW197493  13.753  12.161   2.230
98532SOL    HW297494  13.763  12.010   2.232
98533SOL     OW97495   7.461  10.218   8.778
98533SOL    HW197496   7.481  10.294   8.834
98533SOL    HW297497   7.425  10.257   8.698
98534SOL     OW97498   1.746   4.237   6.872
98534SOL    HW197499   1.669   4.292   6.862
98534SOL    HW297500   1.732   4.164   6.811
98535SOL     OW97501   8.067   4.049  13.371
98535SOL    HW197502   7.975   4.074  13.385
98535SOL    HW297503   8.117   4.122  13.407
98536SOL     OW97504   3.989   0.882   5.692
98536SOL    HW197505   3.926   0.943   5.654
98536SOL    HW297506   3.937   0.806   5.719
98537SOL     OW97507  13.327   3.539  10.006
98537SOL    HW197508  13.323   3.447   9.980
98537SOL    HW297509  13.420   3.560  10.006
98538SOL     OW97510   3.890   4.543   8.561
98538SOL    HW197511   3.902   4.481   8.489
98538SOL    HW297512   3.945   4.618   8.537
98539SOL     OW97513   7.123  10.888  11.273
98539SOL    HW197514   7.184  10.939  11.327
98539SOL    HW297515   7.046  10.944  11.265
98540SOL     OW97516  14.332   6.480   0.151
98540SOL    HW197517  14.248   6.436   0.137
98540SOL    HW297518  14.326   6.515   0.239
98541SOL     OW97519  12.905  14.308   2.910
98541SOL    HW197520  12.885  14.316   3.004
98541SOL    HW297521  12.887  14.394   2.874
98542SOL     OW97522  13.007   2.079   1.319
98542SOL    HW197523  12.959   2.132   1.383
98542SOL    HW297524  13.091   2.123   1.309
98543SOL     OW97525   9.585  10.944  13.275
98543SOL    HW197526   9.604  11.037  13.267
98543SOL    HW297527   9.516  10.928  13.211
98544SOL     OW97528   8.527  14.252   0.516
98544SOL    HW197529   8.465  14.325   0.513
98544SOL    HW297530   8.576  14.265   0.597
98545SOL     OW97531   6.094  14.211   5.190
98545SOL    HW197532   6.016  14.261   5.214
98545SOL    HW297533   6.140  14.197   5.272
98546SOL     OW97534   9.936   1.209   5.133
98546SOL    HW197535   9.843   1.235   5.132
98546SOL    HW297536   9.937   1.122   5.093
98547SOL     OW97537  14.374   2.249   1.031
98547SOL    HW197538  14.298   2.297   1.064
98547SOL    HW297539  14.349   2.157   1.038
98548SOL     OW97540   1.094   3.983   9.443
98548SOL    HW197541   1.019   4.035   9.471
98548SOL    HW297542   1.159   4.047   9.414
98549SOL     OW97543  10.767  12.139  14.501
98549SOL    HW197544  10.799  12.067  14.447
98549SOL    HW297545  10.846  12.186  14.528
98550SOL     OW97546   0.968   5.013   6.601
98550SOL    HW197547   0.901   5.035   6.536
98550SOL    HW297548   0.921   5.011   6.684
98551SOL     OW97549  13.350  12.462   4.365
98551SOL    HW197550  13.343  12.389   4.428
98551SOL    HW297551  13.264  12.504   4.368
98552SOL     OW97552  11.670   4.501   0.115
98552SOL    HW197553  11.758   4.502   0.077
98552SOL    HW297554  11.638   4.590   0.104
98553SOL     OW97555   4.319   0.104   1.348
98553SOL    HW197556   4.313   0.195   1.319
98553SOL    HW297557   4.322   0.109   1.443
98554SOL     OW97558   0.010  14.861  10.193
98554SOL    HW197559   0.033  14.793  10.130
98554SOL    HW297560   0.026   0.073  10.146
98555SOL     OW97561   3.427   9.178  11.087
98555SOL    HW197562   3.399   9.129  11.165
98555SOL    HW297563   3.512   9.216  11.112
98556SOL     OW97564   0.549   0.648  14.863
98556SOL    HW197565   0.546   0.625  14.770
98556SOL    HW297566   0.632   0.695   0.004
98557SOL     OW97567   1.418  11.652   8.525
98557SOL    HW197568   1.436  11.698   8.443
98557SOL    HW297569   1.383  11.719   8.583
98558SOL     OW97570   6.412   4.917   5.871
98558SOL    HW197571   6.421   4.907   5.776
98558SOL    HW297572   6.454   4.839   5.908
98559SOL     OW97573   7.886   3.313   4.016
98559SOL    HW197574   7.913   3.398   4.051
98559SOL    HW297575   7.833   3.275   4.086
98560SOL     OW97576   3.634  10.592  13.555
98560SOL    HW197577   3.547  10.632  13.561
98560SOL    HW297578   3.653  10.564  13.645
98561SOL     OW97579   8.362  12.966   2.866
98561SOL    HW197580   8.302  13.035   2.836
98561SOL    HW297581   8.348  12.894   2.804
98562SOL     OW97582   6.838   8.321  10.502
98562SOL    HW197583   6.823   8.277  10.586
98562SOL    HW297584   6.926   8.357  10.509
98563SOL     OW97585   1.949   1.976  13.735
98563SOL    HW197586   1.979   1.934  13.815
98563SOL    HW297587   1.953   1.907  13.668
98564SOL     OW97588  13.298  14.393   3.301
98564SOL    HW197589  13.256  14.309   3.319
98564SOL    HW297590  13.389  14.380   3.325
98565SOL     OW97591   0.179  12.518   1.674
98565SOL    HW197592   0.187  12.526   1.579
98565SOL    HW297593   0.096  12.472   1.687
98566SOL     OW97594   2.847  14.410   2.325
98566SOL    HW197595   2.890  14.494   2.313
98566SOL    HW297596   2.841  14.373   2.236
98567SOL     OW97597  13.594   2.436  12.805
98567SOL    HW197598  13.642   2.370  12.855
98567SOL    HW297599  13.662   2.493  12.769
98568SOL     OW97600   8.475   0.943   4.345
98568SOL    HW197601   8.502   1.008   4.409
98568SOL    HW297602   8.381   0.955   4.336
98569SOL     OW97603  10.886  14.487   0.551
98569SOL    HW197604  10.969  14.480   0.503
98569SOL    HW297605  10.911  14.481   0.643
98570SOL     OW97606  13.174   9.444   2.352
98570SOL    HW197607  13.237   9.499   2.399
98570SOL    HW297608  13.199   9.452   2.260
98571SOL     OW97609  11.682   0.871  12.849
98571SOL    HW197610  11.731   0.820  12.913
98571SOL    HW297611  11.640   0.940  12.901
98572SOL     OW97612  12.421   1.960   1.732
98572SOL    HW197613  12.496   1.903   1.749
98572SOL    HW297614  12.434   1.991   1.643
98573SOL     OW97615  13.200  13.176  11.433
98573SOL    HW197616  13.242  13.089  11.433
98573SOL    HW297617  13.183  13.195  11.525
98574SOL     OW97618   8.827  14.402   6.322
98574SOL    HW197619   8.903  14.458   6.306
98574SOL    HW297620   8.753  14.462   6.325
98575SOL     OW97621   4.313   4.898  14.344
98575SOL    HW197622   4.305   4.943  14.260
98575SOL    HW297623   4.276   4.811  14.329
98576SOL     OW97624  10.948  12.429   2.538
98576SOL    HW197625  10.981  12.480   2.463
98576SOL    HW297626  11.024  12.420   2.596
98577SOL     OW97627   1.757   3.453   8.078
98577SOL    HW197628   1.835   3.426   8.126
98577SOL    HW297629   1.721   3.525   8.129
98578SOL     OW97630   0.457  13.453   1.453
98578SOL    HW197631   0.515  13.378   1.441
98578SOL    HW297632   0.410  13.434   1.535
98579SOL     OW97633   0.728  10.367   4.754
98579SOL    HW197634   0.819  10.368   4.722
98579SOL    HW297635   0.719  10.282   4.796
98580SOL     OW97636   1.872  10.299   6.312
98580SOL    HW197637   1.888  10.382   6.356
98580SOL    HW297638   1.883  10.233   6.381
98581SOL     OW97639   3.836  12.984   8.043
98581SOL    HW197640   3.884  12.933   8.108
98581SOL    HW297641   3.759  13.017   8.089
98582SOL     OW97642  14.154   1.877   6.265
98582SOL    HW197643  14.194   1.848   6.347
98582SOL    HW297644  14.095   1.948   6.291
98583SOL     OW97645   6.813  10.235  13.356
98583SOL    HW197646   6.749  10.224  13.285
98583SOL    HW297647   6.831  10.145  13.384
98584SOL     OW97648  14.770  14.642   6.565
98584SOL    HW197649  14.703  14.598   6.512
98584SOL    HW297650  14.727  14.722   6.595
98585SOL     OW97651   9.382   2.858   1.478
98585SOL    HW197652   9.456   2.912   1.451
98585SOL    HW297653   9.408   2.768   1.456
98586SOL     OW97654   8.836   0.109   6.955
98586SOL    HW197655   8.928   0.081   6.957
98586SOL    HW297656   8.840   0.203   6.938
98587SOL     OW97657  11.215   3.253   2.897
98587SOL    HW197658  11.136   3.204   2.872
98587SOL    HW297659  11.279   3.231   2.829
98588SOL     OW97660  13.249  14.767   7.774
98588SOL    HW197661  13.204  14.815   7.704
98588SOL    HW297662  13.265  14.680   7.737
98589SOL     OW97663  13.886  13.806   9.528
98589SOL    HW197664  13.954  13.768   9.472
98589SOL    HW297665  13.892  13.900   9.513
98590SOL     OW97666   0.094   7.360   1.771
98590SOL    HW197667   0.188   7.367   1.752
98590SOL    HW297668   0.068   7.275   1.736
98591SOL     OW97669   0.810   3.804  12.023
98591SOL    HW197670   0.853   3.854  11.954
98591SOL    HW297671   0.758   3.869  12.071
98592SOL     OW97672  14.212   1.007  13.074
98592SOL    HW197673  14.135   0.962  13.109
98592SOL    HW297674  14.185   1.097  13.062
98593SOL     OW97675   6.451   3.135   3.897
98593SOL    HW197676   6.357   3.140   3.911
98593SOL    HW297677   6.461   3.099   3.809
98594SOL     OW97678   8.000   2.062   9.110
98594SOL    HW197679   8.049   2.043   9.030
98594SOL    HW297680   7.916   2.097   9.080
98595SOL     OW97681  12.244   4.620  11.056
98595SOL    HW197682  12.183   4.693  11.048
98595SOL    HW297683  12.328   4.662  11.078
98596SOL     OW97684   9.420   6.916  13.557
98596SOL    HW197685   9.410   6.864  13.637
98596SOL    HW297686   9.358   6.988  13.567
98597SOL     OW97687   9.812   8.892  10.187
98597SOL    HW197688   9.727   8.930  10.209
98597SOL    HW297689   9.835   8.839  10.263
98598SOL     OW97690  12.835  12.579  10.917
98598SOL    HW197691  12.754  12.617  10.951
98598SOL    HW297692  12.814  12.554  10.827
98599SOL     OW97693   6.623   3.737   6.366
98599SOL    HW197694   6.693   3.683   6.330
98599SOL    HW297695   6.578   3.681   6.429
98600SOL     OW97696   6.153  14.717   4.239
98600SOL    HW197697   6.195  14.672   4.312
98600SOL    HW297698   6.095  14.781   4.279
98601SOL     OW97699   8.237   3.448  12.611
98601SOL    HW197700   8.272   3.363  12.586
98601SOL    HW297701   8.172   3.468  12.544
98602SOL     OW97702   2.455   9.462   6.342
98602SOL    HW197703   2.523   9.446   6.277
98602SOL    HW297704   2.503   9.481   6.423
98603SOL     OW97705   2.693  10.417   7.570
98603SOL    HW197706   2.674  10.507   7.598
98603SOL    HW297707   2.664  10.363   7.644
98604SOL     OW97708   0.586   5.291   2.834
98604SOL    HW197709   0.651   5.360   2.845
98604SOL    HW297710   0.537   5.317   2.756
98605SOL     OW97711   2.002   8.553  13.695
98605SOL    HW197712   1.907   8.536  13.696
98605SOL    HW297713   2.037   8.486  13.636
98606SOL     OW97714   9.056  14.740  13.238
98606SOL    HW197715   8.991  14.733  13.167
98606SOL    HW297716   9.133  14.779  13.196
98607SOL     OW97717  12.495   7.411  13.559
98607SOL    HW197718  12.415   7.428  13.608
98607SOL    HW297719  12.539   7.342  13.608
98608SOL     OW97720   8.914  11.055   3.316
98608SOL    HW197721   8.995  11.006   3.331
98608SOL    HW297722   8.937  11.119   3.249
98609SOL     OW97723  12.283  11.347   4.090
98609SOL    HW197724  12.314  11.326   4.178
98609SOL    HW297725  12.357  11.391   4.049
98610SOL     OW97726   5.864   4.247  11.334
98610SOL    HW197727   5.928   4.304  11.292
98610SOL    HW297728   5.815   4.208  11.261
98611SOL     OW97729   0.565   0.313  11.473
98611SOL    HW197730   0.589   0.400  11.502
98611SOL    HW297731   0.476   0.322  11.439
98612SOL     OW97732  12.169  10.559  11.913
98612SOL    HW197733  12.197  10.629  11.855
98612SOL    HW297734  12.152  10.484  11.855
98613SOL     OW97735  14.589   1.090  14.101
98613SOL    HW197736  14.557   1.026  14.165
98613SOL    HW297737  14.685   1.083  14.106
98614SOL     OW97738   8.882   5.833   9.090
98614SOL    HW197739   8.796   5.873   9.075
98614SOL    HW297740   8.863   5.746   9.125
98615SOL     OW97741   5.482   6.267   2.451
98615SOL    HW197742   5.565   6.247   2.494
98615SOL    HW297743   5.458   6.354   2.484
98616SOL     OW97744   3.623   1.969  13.746
98616SOL    HW197745   3.690   1.942  13.683
98616SOL    HW297746   3.672   2.018  13.812
98617SOL     OW97747   2.249   0.489   8.433
98617SOL    HW197748   2.314   0.558   8.447
98617SOL    HW297749   2.220   0.466   8.521
98618SOL     OW97750   4.633   7.816   6.343
98618SOL    HW197751   4.680   7.899   6.338
98618SOL    HW297752   4.658   7.779   6.427
98619SOL     OW97753  14.705   0.631   7.182
98619SOL    HW197754  14.676   0.698   7.119
98619SOL    HW297755  14.676   0.548   7.143
98620SOL     OW97756  10.138  11.311   5.669
98620SOL    HW197757  10.161  11.222   5.698
98620SOL    HW297758  10.217  11.342   5.625
98621SOL     OW97759   8.648   0.844   5.172
98621SOL    HW197760   8.599   0.821   5.252
98621SOL    HW297761   8.740   0.841   5.199
98622SOL     OW97762  14.304   1.266   4.963
98622SOL    HW197763  14.213   1.281   4.989
98622SOL    HW297764  14.352   1.258   5.046
98623SOL     OW97765  10.272   1.801   0.862
98623SOL    HW197766  10.208   1.744   0.905
98623SOL    HW297767  10.220   1.872   0.825
98624SOL     OW97768   4.899   3.631   7.650
98624SOL    HW197769   4.957   3.562   7.683
98624SOL    HW297770   4.869   3.676   7.729
98625SOL     OW97771   8.754   8.516  14.082
98625SOL    HW197772   8.659   8.527  14.090
98625SOL    HW297773   8.778   8.568  14.005
98626SOL     OW97774  10.080   9.209   4.661
98626SOL    HW197775   9.993   9.230   4.694
98626SOL    HW297776  10.122   9.295   4.650
98627SOL     OW97777   2.856  14.359  14.029
98627SOL    HW197778   2.866  14.316  13.944
98627SOL    HW297779   2.894  14.446  14.016
98628SOL     OW97780   3.526  13.353   5.478
98628SOL    HW197781   3.562  13.378   5.394
98628SOL    HW297782   3.586  13.390   5.543
98629SOL     OW97783  14.473  13.473  10.749
98629SOL    HW197784  14.494  13.554  10.703
98629SOL    HW297785  14.481  13.405  10.682
98630SOL     OW97786   5.701   3.465   5.043
98630SOL    HW197787   5.632   3.484   5.107
98630SOL    HW297788   5.736   3.380   5.069
98631SOL     OW97789   6.625  12.289   6.185
98631SOL    HW197790   6.562  12.359   6.173
98631SOL    HW297791   6.708  12.324   6.152
98632SOL     OW97792   8.574   9.019  11.855
98632SOL    HW197793   8.500   9.001  11.798
98632SOL    HW297794   8.649   9.029  11.796
98633SOL     OW97795   4.196  10.372   4.354
98633SOL    HW197796   4.216  10.443   4.414
98633SOL    HW297797   4.240  10.296   4.391
98634SOL     OW97798  12.891   3.913   6.824
98634SOL    HW197799  12.892   3.829   6.870
98634SOL    HW297800  12.803   3.947   6.837
98635SOL     OW97801   3.667  14.072  13.659
98635SOL    HW197802   3.596  14.036  13.606
98635SOL    HW297803   3.680  14.160  13.624
98636SOL     OW97804  11.142   1.423   1.560
98636SOL    HW197805  11.076   1.358   1.538
98636SOL    HW297806  11.196   1.431   1.481
98637SOL     OW97807  14.328   1.957  13.660
98637SOL    HW197808  14.395   1.890  13.647
98637SOL    HW297809  14.341   2.019  13.588
98638SOL     OW97810   4.744  13.069  13.785
98638SOL    HW197811   4.826  13.072  13.736
98638SOL    HW297812   4.677  13.093  13.722
98639SOL     OW97813   0.558  13.468   7.690
98639SOL    HW197814   0.543  13.489   7.782
98639SOL    HW297815   0.654  13.465   7.682
98640SOL     OW97816   6.393   6.329  13.909
98640SOL    HW197817   6.373   6.422  13.923
98640SOL    HW297818   6.455   6.329  13.836
98641SOL     OW97819   5.131  13.255   4.043
98641SOL    HW197820   5.204  13.215   4.089
98641SOL    HW297821   5.169  13.330   3.997
98642SOL     OW97822   1.641   8.838   5.642
98642SOL    HW197823   1.611   8.758   5.685
98642SOL    HW297824   1.726   8.856   5.683
98643SOL     OW97825   6.652   4.205   2.957
98643SOL    HW197826   6.671   4.288   2.914
98643SOL    HW297827   6.719   4.197   3.024
98644SOL     OW97828  10.456  12.316   4.920
98644SOL    HW197829  10.472  12.272   5.003
98644SOL    HW297830  10.529  12.290   4.864
98645SOL     OW97831   1.486   7.309   0.486
98645SOL    HW197832   1.435   7.376   0.439
98645SOL    HW297833   1.521   7.253   0.417
98646SOL     OW97834  10.730  10.255  13.995
98646SOL    HW197835  10.688  10.170  14.007
98646SOL    HW297836  10.800  10.238  13.931
98647SOL     OW97837  14.055  11.523   2.223
98647SOL    HW197838  14.084  11.582   2.153
98647SOL    HW297839  14.049  11.580   2.300
98648SOL     OW97840   2.824   4.089   1.112
98648SOL    HW197841   2.846   4.052   1.198
98648SOL    HW297842   2.908   4.092   1.066
98649SOL     OW97843  10.194   7.529   5.075
98649SOL    HW197844  10.288   7.515   5.067
98649SOL    HW297845  10.162   7.452   5.121
98650SOL     OW97846   1.457   6.003   2.972
98650SOL    HW197847   1.485   6.094   2.983
98650SOL    HW297848   1.386   5.992   3.036
98651SOL     OW97849   4.641  10.570   5.040
98651SOL    HW197850   4.645  10.618   4.958
98651SOL    HW297851   4.589  10.492   5.020
98652SOL     OW97852   2.744  10.167  10.004
98652SOL    HW197853   2.756  10.232  10.073
98652SOL    HW297854   2.732  10.084  10.051
98653SOL     OW97855  11.180  10.558  10.758
98653SOL    HW197856  11.087  10.581  10.759
98653SOL    HW297857  11.189  10.500  10.682
98654SOL     OW97858   1.214   9.524  14.560
98654SOL    HW197859   1.274   9.459  14.594
98654SOL    HW297860   1.148   9.474  14.512
98655SOL     OW97861   2.942  12.518   3.504
98655SOL    HW197862   3.034  12.542   3.520
98655SOL    HW297863   2.897  12.543   3.584
98656SOL     OW97864   0.345  11.108   6.747
98656SOL    HW197865   0.436  11.120   6.720
98656SOL    HW297866   0.345  11.025   6.795
98657SOL     OW97867  10.976   4.163  10.972
98657SOL    HW197868  11.015   4.144  10.887
98657SOL    HW297869  11.051   4.190  11.027
98658SOL     OW97870  10.998   8.132  10.782
98658SOL    HW197871  10.995   8.227  10.773
98658SOL    HW297872  11.062   8.116  10.851
98659SOL     OW97873  13.000   4.431   7.598
98659SOL    HW197874  12.916   4.430   7.643
98659SOL    HW297875  12.977   4.412   7.506
98660SOL     OW97876  10.567  12.779  13.597
98660SOL    HW197877  10.522  12.720  13.537
98660SOL    HW297878  10.554  12.866  13.560
98661SOL     OW97879   4.073   8.993  10.976
98661SOL    HW197880   4.146   8.935  10.998
98661SOL    HW297881   3.995   8.938  10.983
98662SOL     OW97882   2.877   6.012   0.008
98662SOL    HW197883   2.859   6.105  14.867
98662SOL    HW297884   2.964   6.000  14.839
98663SOL     OW97885  13.196  12.589   2.643
98663SOL    HW197886  13.159  12.658   2.697
98663SOL    HW297887  13.133  12.518   2.648
98664SOL     OW97888   4.816  14.376   0.362
98664SOL    HW197889   4.797  14.373   0.456
98664SOL    HW297890   4.831  14.468   0.343
98665SOL     OW97891  13.499   2.219  11.843
98665SOL    HW197892  13.465   2.165  11.914
98665SOL    HW297893  13.424   2.270  11.814
98666SOL     OW97894   4.531   6.979  10.146
98666SOL    HW197895   4.476   6.998  10.221
98666SOL    HW297896   4.486   6.907  10.101
98667SOL     OW97897   2.142   3.280  13.136
98667SOL    HW197898   2.158   3.334  13.213
98667SOL    HW297899   2.148   3.190  13.168
98668SOL     OW97900   0.403   6.320  10.723
98668SOL    HW197901   0.471   6.364  10.673
98668SOL    HW297902   0.368   6.254  10.664
98669SOL     OW97903   3.393  13.250   8.581
98669SOL    HW197904   3.476  13.238   8.627
98669SOL    HW297905   3.418  13.273   8.491
98670SOL     OW97906   9.911  12.762   9.465
98670SOL    HW197907   9.820  12.771   9.437
98670SOL    HW297908   9.907  12.765   9.560
98671SOL     OW97909   7.701  12.452  10.820
98671SOL    HW197910   7.623  12.434  10.872
98671SOL    HW297911   7.697  12.389  10.748
98672SOL     OW97912   6.489   6.676  10.003
98672SOL    HW197913   6.410   6.623   9.992
98672SOL    HW297914   6.561   6.614   9.996
98673SOL     OW97915   2.997   7.462   7.541
98673SOL    HW197916   2.978   7.416   7.623
98673SOL    HW297917   3.014   7.552   7.568
98674SOL     OW97918  11.850   9.999   3.998
98674SOL    HW197919  11.879  10.076   3.950
98674SOL    HW297920  11.756  10.014   4.011
98675SOL     OW97921  11.477   0.411   3.440
98675SOL    HW197922  11.439   0.327   3.415
98675SOL    HW297923  11.545   0.389   3.503
98676SOL     OW97924  14.711  11.028   4.474
98676SOL    HW197925  14.724  10.956   4.535
98676SOL    HW297926  14.754  11.103   4.516
98677SOL     OW97927  12.655   5.533   9.074
98677SOL    HW197928  12.602   5.590   9.017
98677SOL    HW297929  12.611   5.535   9.158
98678SOL     OW97930   8.953  11.177  11.303
98678SOL    HW197931   8.918  11.229  11.230
98678SOL    HW297932   9.030  11.134  11.267
98679SOL     OW97933   9.361   9.363  11.440
98679SOL    HW197934   9.292   9.317  11.489
98679SOL    HW297935   9.319   9.444  11.410
98680SOL     OW97936   7.622   6.034  13.297
98680SOL    HW197937   7.685   6.098  13.330
98680SOL    HW297938   7.593   5.986  13.375
98681SOL     OW97939   4.946  11.798   2.300
98681SOL    HW197940   4.974  11.838   2.382
98681SOL    HW297941   5.025  11.794   2.247
98682SOL     OW97942  14.158   6.744  12.126
98682SOL    HW197943  14.066   6.734  12.149
98682SOL    HW297944  14.183   6.660  12.088
98683SOL     OW97945  12.096   0.292   9.451
98683SOL    HW197946  12.186   0.321   9.435
98683SOL    HW297947  12.086   0.214   9.395
98684SOL     OW97948   2.391   2.790   2.582
98684SOL    HW197949   2.434   2.774   2.666
98684SOL    HW297950   2.304   2.751   2.593
98685SOL     OW97951   6.770   6.342   5.436
98685SOL    HW197952   6.844   6.282   5.438
98685SOL    HW297953   6.703   6.295   5.386
98686SOL     OW97954   3.692   8.238   8.668
98686SOL    HW197955   3.654   8.158   8.632
98686SOL    HW297956   3.785   8.231   8.647
98687SOL     OW97957   8.705   7.859  14.198
98687SOL    HW197958   8.694   7.905  14.282
98687SOL    HW297959   8.795   7.877  14.172
98688SOL     OW97960   0.988  12.708   0.599
98688SOL    HW197961   0.894  12.705   0.615
98688SOL    HW297962   1.025  12.650   0.666
98689SOL     OW97963   9.717   8.718  12.007
98689SOL    HW197964   9.653   8.788  11.997
98689SOL    HW297965   9.743   8.697  11.917
98690SOL     OW97966   9.253   6.086  12.482
98690SOL    HW197967   9.222   6.140  12.410
98690SOL    HW297968   9.174   6.064  12.531
98691SOL     OW97969  10.001  14.652   9.716
98691SOL    HW197970   9.950  14.583   9.673
98691SOL    HW297971  10.021  14.616   9.803
98692SOL     OW97972  10.866   4.648   1.733
98692SOL    HW197973  10.796   4.619   1.792
98692SOL    HW297974  10.946   4.638   1.784
98693SOL     OW97975  13.030   6.684   5.072
98693SOL    HW197976  12.978   6.754   5.110
98693SOL    HW297977  13.118   6.722   5.062
98694SOL     OW97978   7.177   9.447   4.825
98694SOL    HW197979   7.193   9.427   4.733
98694SOL    HW297980   7.104   9.509   4.823
98695SOL     OW97981   7.180   0.441  13.335
98695SOL    HW197982   7.184   0.418  13.428
98695SOL    HW297983   7.112   0.509  13.330
98696SOL     OW97984   3.209  12.672  13.543
98696SOL    HW197985   3.189  12.764  13.526
98696SOL    HW297986   3.292  12.675  13.591
98697SOL     OW97987  10.017  11.979  14.474
98697SOL    HW197988  10.033  12.047  14.409
98697SOL    HW297989  10.096  11.980  14.529
98698SOL     OW97990   5.243   9.829   4.363
98698SOL    HW197991   5.254   9.774   4.441
98698SOL    HW297992   5.244   9.919   4.397
98699SOL     OW97993  13.470   6.868   0.729
98699SOL    HW197994  13.422   6.787   0.749
98699SOL    HW297995  13.475   6.913   0.813
98700SOL     OW97996   6.959  11.659  13.751
98700SOL    HW197997   6.878  11.628  13.792
98700SOL    HW297998   6.934  11.683  13.662
98701SOL     OW97999  14.489  10.861  11.692
98701SOL    HW198000  14.455  10.875  11.780
98701SOL    HW298001  14.566  10.918  11.686
98702SOL     OW98002   7.182   9.748  11.769
98702SOL    HW198003   7.108   9.690  11.751
98702SOL    HW298004   7.242   9.694  11.822
98703SOL     OW98005  10.259   5.078  10.444
98703SOL    HW198006  10.328   5.014  10.424
98703SOL    HW298007  10.180   5.038  10.408
98704SOL     OW98008   8.036   9.521   6.640
98704SOL    HW198009   7.944   9.505   6.661
98704SOL    HW298010   8.066   9.583   6.706
98705SOL     OW98011   6.387   1.924  12.421
98705SOL    HW198012   6.445   1.886  12.488
98705SOL    HW298013   6.412   1.879  12.340
98706SOL     OW98014  12.617  14.479  13.533
98706SOL    HW198015  12.608  14.399  13.585
98706SOL    HW298016  12.706  14.509  13.553
98707SOL     OW98017  11.157  13.184  14.126
98707SOL    HW198018  11.202  13.224  14.201
98707SOL    HW298019  11.118  13.105  14.162
98708SOL     OW98020  14.276  13.110  14.628
98708SOL    HW198021  14.290  13.204  14.640
98708SOL    HW298022  14.190  13.094  14.666
98709SOL     OW98023   2.284   9.025   6.865
98709SOL    HW198024   2.325   8.975   6.795
98709SOL    HW298025   2.240   9.097   6.820
98710SOL     OW98026   1.650   4.127   4.572
98710SOL    HW198027   1.709   4.150   4.500
98710SOL    HW298028   1.653   4.031   4.574
98711SOL     OW98029   4.303   7.988   0.488
98711SOL    HW198030   4.308   8.014   0.396
98711SOL    HW298031   4.227   7.930   0.492
98712SOL     OW98032  12.918   5.520   8.670
98712SOL    HW198033  12.896   5.435   8.632
98712SOL    HW298034  12.858   5.582   8.630
98713SOL     OW98035  13.766   2.437   7.620
98713SOL    HW198036  13.695   2.427   7.683
98713SOL    HW298037  13.813   2.514   7.648
98714SOL     OW98038  14.469   2.581   9.083
98714SOL    HW198039  14.476   2.629   9.001
98714SOL    HW298040  14.400   2.516   9.067
98715SOL     OW98041   6.383  14.582   4.727
98715SOL    HW198042   6.466  14.540   4.704
98715SOL    HW298043   6.318  14.512   4.722
98716SOL     OW98044   8.814   9.447   6.922
98716SOL    HW198045   8.846   9.368   6.966
98716SOL    HW298046   8.742   9.417   6.868
98717SOL     OW98047  11.518   7.198   9.068
98717SOL    HW198048  11.510   7.112   9.026
98717SOL    HW298049  11.477   7.187   9.153
98718SOL     OW98050   3.250   0.575  12.943
98718SOL    HW198051   3.292   0.660  12.957
98718SOL    HW298052   3.230   0.543  13.031
98719SOL     OW98053  14.692   1.614   7.008
98719SOL    HW198054  14.743   1.545   6.966
98719SOL    HW298055  14.751   1.651   7.074
98720SOL     OW98056   2.572   0.656  14.494
98720SOL    HW198057   2.525   0.597  14.553
98720SOL    HW298058   2.661   0.621  14.490
98721SOL     OW98059   6.261  12.459   1.563
98721SOL    HW198060   6.205  12.460   1.486
98721SOL    HW298061   6.208  12.497   1.632
98722SOL     OW98062   4.913   8.431  11.551
98722SOL    HW198063   4.911   8.523  11.577
98722SOL    HW298064   4.824   8.413  11.520
98723SOL     OW98065  12.248   9.767  14.130
98723SOL    HW198066  12.337   9.751  14.099
98723SOL    HW298067  12.206   9.816  14.060
98724SOL     OW98068   5.641  12.489   4.220
98724SOL    HW198069   5.660  12.583   4.221
98724SOL    HW298070   5.589  12.475   4.299
98725SOL     OW98071   4.717   0.918   2.026
98725SOL    HW198072   4.642   0.873   1.987
98725SOL    HW298073   4.715   0.891   2.118
98726SOL     OW98074   6.937  11.248  10.738
98726SOL    HW198075   6.876  11.313  10.773
98726SOL    HW298076   7.021  11.272  10.777
98727SOL     OW98077   9.450   0.305  13.019
98727SOL    HW198078   9.463   0.370  12.949
98727SOL    HW298079   9.444   0.221  12.973
98728SOL     OW98080  14.608   0.145   7.206
98728SOL    HW198081  14.574   0.174   7.291
98728SOL    HW298082  14.559   0.065   7.187
98729SOL     OW98083   0.329  11.482   8.324
98729SOL    HW198084   0.243  11.447   8.299
98729SOL    HW298085   0.358  11.530   8.247
98730SOL     OW98086   4.794   0.136   1.817
98730SOL    HW198087   4.861   0.156   1.883
98730SOL    HW298088   4.829   0.061   1.770
98731SOL     OW98089   1.683  14.283  10.940
98731SOL    HW198090   1.617  14.263  10.873
98731SOL    HW298091   1.719  14.198  10.965
98732SOL     OW98092  13.621   7.632   2.708
98732SOL    HW198093  13.692   7.622   2.770
98732SOL    HW298094  13.646   7.575   2.634
98733SOL     OW98095   6.593  10.422   8.620
98733SOL    HW198096   6.530  10.489   8.594
98733SOL    HW298097   6.546  10.367   8.683
98734SOL     OW98098   0.774  11.725   9.491
98734SOL    HW198099   0.782  11.708   9.585
98734SOL    HW298100   0.698  11.782   9.484
98735SOL     OW98101  14.188   9.400   8.174
98735SOL    HW198102  14.178   9.307   8.156
98735SOL    HW298103  14.275   9.408   8.213
98736SOL     OW98104   7.129   1.504   5.315
98736SOL    HW198105   7.107   1.482   5.225
98736SOL    HW298106   7.197   1.571   5.308
98737SOL     OW98107   5.659   0.440  13.668
98737SOL    HW198108   5.717   0.457  13.593
98737SOL    HW298109   5.611   0.361  13.644
98738SOL     OW98110   1.968   8.654   9.220
98738SOL    HW198111   1.986   8.582   9.280
98738SOL    HW298112   1.879   8.681   9.241
98739SOL     OW98113   1.909   6.378  13.668
98739SOL    HW198114   1.825   6.345  13.701
98739SOL    HW298115   1.892   6.471  13.651
98740SOL     OW98116   5.598   5.255   8.349
98740SOL    HW198117   5.592   5.349   8.364
98740SOL    HW298118   5.668   5.245   8.284
98741SOL     OW98119   4.865   8.734  10.097
98741SOL    HW198120   4.838   8.755  10.008
98741SOL    HW298121   4.953   8.771  10.105
98742SOL     OW98122  11.460   9.066   7.940
98742SOL    HW198123  11.444   9.115   8.020
98742SOL    HW298124  11.539   9.015   7.958
98743SOL     OW98125   2.020   4.898  10.135
98743SOL    HW198126   1.982   4.911  10.048
98743SOL    HW298127   2.090   4.835  10.121
98744SOL     OW98128   8.735  10.166   0.801
98744SOL    HW198129   8.649  10.132   0.824
98744SOL    HW298130   8.785  10.089   0.773
98745SOL     OW98131   8.251   3.679   9.820
98745SOL    HW198132   8.279   3.640   9.903
98745SOL    HW298133   8.170   3.726   9.842
98746SOL     OW98134   6.649   7.377   7.909
98746SOL    HW198135   6.684   7.315   7.973
98746SOL    HW298136   6.618   7.322   7.837
98747SOL     OW98137   9.629   8.462   7.710
98747SOL    HW198138   9.662   8.484   7.623
98747SOL    HW298139   9.534   8.463   7.701
98748SOL     OW98140   3.157   6.774   6.039
98748SOL    HW198141   3.074   6.765   5.994
98748SOL    HW298142   3.141   6.842   6.105
98749SOL     OW98143  13.950   4.060  10.033
98749SOL    HW198144  13.988   4.142  10.065
98749SOL    HW298145  13.856   4.075  10.033
98750SOL     OW98146   2.805  10.321   1.497
98750SOL    HW198147   2.790  10.340   1.589
98750SOL    HW298148   2.838  10.231   1.496
98751SOL     OW98149   3.857   6.272   5.080
98751SOL    HW198150   3.797   6.219   5.132
98751SOL    HW298151   3.931   6.289   5.138
98752SOL     OW98152   7.675  11.289  14.645
98752SOL    HW198153   7.676  11.193  14.647
98752SOL    HW298154   7.762  11.315  14.673
98753SOL     OW98155   5.970   6.280   2.613
98753SOL    HW198156   5.969   6.359   2.666
98753SOL    HW298157   5.877   6.258   2.601
98754SOL     OW98158   1.117   9.007  13.059
98754SOL    HW198159   1.148   8.971  12.975
98754SOL    HW298160   1.115   8.932  13.118
98755SOL     OW98161   2.623   4.975   5.017
98755SOL    HW198162   2.542   4.964   4.967
98755SOL    HW298163   2.669   4.891   5.006
98756SOL     OW98164   6.251  11.959  13.850
98756SOL    HW198165   6.198  12.003  13.784
98756SOL    HW298166   6.188  11.918  13.909
98757SOL     OW98167   6.370   3.159   2.437
98757SOL    HW198168   6.369   3.101   2.513
98757SOL    HW298169   6.420   3.235   2.466
98758SOL     OW98170   5.602  13.060   7.152
98758SOL    HW198171   5.581  13.104   7.235
98758SOL    HW298172   5.622  12.970   7.178
98759SOL     OW98173   9.368  12.021   3.578
98759SOL    HW198174   9.391  12.095   3.634
98759SOL    HW298175   9.449  12.000   3.532
98760SOL     OW98176   0.185   6.080   7.100
98760SOL    HW198177   0.227   6.163   7.078
98760SOL    HW298178   0.256   6.024   7.131
98761SOL     OW98179   9.908   4.002  10.244
98761SOL    HW198180   9.920   4.024  10.336
98761SOL    HW298181   9.886   4.085  10.202
98762SOL     OW98182   1.708  14.341   1.154
98762SOL    HW198183   1.720  14.361   1.247
98762SOL    HW298184   1.700  14.246   1.151
98763SOL     OW98185   9.877   8.446   1.210
98763SOL    HW198186   9.853   8.417   1.121
98763SOL    HW298187   9.926   8.526   1.196
98764SOL     OW98188  14.292  11.522  12.508
98764SOL    HW198189  14.360  11.510  12.574
98764SOL    HW298190  14.340  11.528  12.425
98765SOL     OW98191  13.501   0.315  11.564
98765SOL    HW198192  13.504   0.376  11.491
98765SOL    HW298193  13.470   0.233  11.525
98766SOL     OW98194  11.045   5.475   1.786
98766SOL    HW198195  11.070   5.567   1.789
98766SOL    HW298196  11.068   5.441   1.872
98767SOL     OW98197   9.943   6.676  12.484
98767SOL    HW198198  10.030   6.639  12.468
98767SOL    HW298199   9.926   6.730  12.407
98768SOL     OW98200  10.645   7.484   0.390
98768SOL    HW198201  10.551   7.471   0.374
98768SOL    HW298202  10.657   7.463   0.482
98769SOL     OW98203  12.820   9.573   8.018
98769SOL    HW198204  12.833   9.631   7.943
98769SOL    HW298205  12.725   9.563   8.024
98770SOL     OW98206  12.421  14.596   1.260
98770SOL    HW198207  12.510  14.602   1.294
98770SOL    HW298208  12.417  14.511   1.217
98771SOL     OW98209   8.762  10.402  12.650
98771SOL    HW198210   8.848  10.363  12.667
98771SOL    HW298211   8.771  10.493  12.679
98772SOL     OW98212   1.815   8.076   0.923
98772SOL    HW198213   1.789   7.984   0.920
98772SOL    HW298214   1.841   8.091   1.014
98773SOL     OW98215  12.892  14.491   5.557
98773SOL    HW198216  12.815  14.477   5.501
98773SOL    HW298217  12.932  14.571   5.523
98774SOL     OW98218  10.924  11.466  13.387
98774SOL    HW198219  10.999  11.500  13.339
98774SOL    HW298220  10.959  11.394  13.440
98775SOL     OW98221  12.174   5.363   4.353
98775SOL    HW198222  12.210   5.296   4.411
98775SOL    HW298223  12.211   5.445   4.385
98776SOL     OW98224   3.588  10.077   9.524
98776SOL    HW198225   3.542  10.143   9.576
98776SOL    HW298226   3.672  10.065   9.568
98777SOL     OW98227  12.051  14.263   6.066
98777SOL    HW198228  11.987  14.236   6.132
98777SOL    HW298229  12.046  14.196   5.998
98778SOL     OW98230   0.045  11.699  11.491
98778SOL    HW198231   0.140  11.688  11.492
98778SOL    HW298232   0.030  11.771  11.429
98779SOL     OW98233   4.691   6.048  14.562
98779SOL    HW198234   4.757   5.982  14.582
98779SOL    HW298235   4.646   6.063  14.645
98780SOL     OW98236  13.879   0.438   7.511
98780SOL    HW198237  13.909   0.424   7.421
98780SOL    HW298238  13.812   0.371   7.525
98781SOL     OW98239   1.375   1.270  13.781
98781SOL    HW198240   1.420   1.354  13.787
98781SOL    HW298241   1.312   1.282  13.710
98782SOL     OW98242   4.356   5.381   8.434
98782SOL    HW198243   4.403   5.392   8.517
98782SOL    HW298244   4.424   5.357   8.371
98783SOL     OW98245   4.154  14.225  11.008
98783SOL    HW198246   4.190  14.151  11.056
98783SOL    HW298247   4.168  14.300  11.065
98784SOL     OW98248  10.999   3.539   2.717
98784SOL    HW198249  11.062   3.536   2.789
98784SOL    HW298250  11.045   3.498   2.643
98785SOL     OW98251   5.455   8.729   0.682
98785SOL    HW198252   5.539   8.714   0.637
98785SOL    HW298253   5.390   8.717   0.613
98786SOL     OW98254   4.582   3.937   2.354
98786SOL    HW198255   4.574   3.985   2.437
98786SOL    HW298256   4.496   3.949   2.312
98787SOL     OW98257  10.799   5.559  10.677
98787SOL    HW198258  10.773   5.543  10.768
98787SOL    HW298259  10.818   5.472  10.641
98788SOL     OW98260   2.970   6.713  14.052
98788SOL    HW198261   2.921   6.634  14.032
98788SOL    HW298262   2.926   6.749  14.130
98789SOL     OW98263   6.777   2.921  10.443
98789SOL    HW198264   6.692   2.878  10.437
98789SOL    HW298265   6.810   2.923  10.353
98790SOL     OW98266  13.949  14.328  13.198
98790SOL    HW198267  14.034  14.340  13.157
98790SOL    HW298268  13.968  14.314  13.291
98791SOL     OW98269  14.199   3.002   4.775
98791SOL    HW198270  14.218   2.976   4.865
98791SOL    HW298271  14.249   2.941   4.721
98792SOL     OW98272   4.782   4.167  12.148
98792SOL    HW198273   4.788   4.261  12.160
98792SOL    HW298274   4.761   4.156  12.055
98793SOL     OW98275   5.555   7.511   1.792
98793SOL    HW198276   5.518   7.436   1.838
98793SOL    HW298277   5.517   7.507   1.704
98794SOL     OW98278   5.281   7.791   0.178
98794SOL    HW198279   5.337   7.829   0.246
98794SOL    HW298280   5.342   7.765   0.109
98795SOL     OW98281   7.442  10.644  11.257
98795SOL    HW198282   7.393  10.665  11.178
98795SOL    HW298283   7.519  10.597  11.226
98796SOL     OW98284   3.537   6.770   0.684
98796SOL    HW198285   3.550   6.675   0.685
98796SOL    HW298286   3.456   6.784   0.733
98797SOL     OW98287   8.017  11.405   9.200
98797SOL    HW198288   7.932  11.449   9.211
98797SOL    HW298289   8.081  11.476   9.206
98798SOL     OW98290   2.582  13.923   1.962
98798SOL    HW198291   2.675  13.916   1.984
98798SOL    HW298292   2.582  13.949   1.870
98799SOL     OW98293   0.640  14.184  10.881
98799SOL    HW198294   0.585  14.114  10.847
98799SOL    HW298295   0.659  14.239  10.805
98800SOL     OW98296  12.139  13.862  12.870
98800SOL    HW198297  12.196  13.837  12.944
98800SOL    HW298298  12.056  13.887  12.911
98801SOL     OW98299   0.450   5.778   3.535
98801SOL    HW198300   0.367   5.811   3.570
98801SOL    HW298301   0.425   5.722   3.461
98802SOL     OW98302   4.935   9.535   0.535
98802SOL    HW198303   4.948   9.482   0.614
98802SOL    HW298304   4.933   9.471   0.464
98803SOL     OW98305   9.323  11.021   3.650
98803SOL    HW198306   9.259  11.060   3.709
98803SOL    HW298307   9.359  11.094   3.600
98804SOL     OW98308   6.694   6.392   2.237
98804SOL    HW198309   6.700   6.484   2.260
98804SOL    HW298310   6.767   6.377   2.176
98805SOL     OW98311   6.231   9.849  10.075
98805SOL    HW198312   6.217   9.792  10.151
98805SOL    HW298313   6.211   9.793   9.999
98806SOL     OW98314   6.359   6.313  12.776
98806SOL    HW198315   6.403   6.347  12.698
98806SOL    HW298316   6.280   6.366  12.784
98807SOL     OW98317  12.586  10.364  11.580
98807SOL    HW198318  12.616  10.454  11.567
98807SOL    HW298319  12.542  10.365  11.664
98808SOL     OW98320  12.383   0.001  12.910
98808SOL    HW198321  12.423  14.855  12.995
98808SOL    HW298322  12.425   0.081  12.878
98809SOL     OW98323   6.485   9.515   8.450
98809SOL    HW198324   6.546   9.561   8.392
98809SOL    HW298325   6.437   9.456   8.392
98810SOL     OW98326  10.233   6.394  12.064
98810SOL    HW198327  10.212   6.452  11.991
98810SOL    HW298328  10.234   6.306  12.025
98811SOL     OW98329  11.287   7.456  13.674
98811SOL    HW198330  11.348   7.464  13.747
98811SOL    HW298331  11.300   7.367  13.642
98812SOL     OW98332   7.549   0.255   4.343
98812SOL    HW198333   7.633   0.295   4.364
98812SOL    HW298334   7.570   0.184   4.283
98813SOL     OW98335  12.916   7.018   9.410
98813SOL    HW198336  12.981   7.077   9.447
98813SOL    HW298337  12.923   6.938   9.463
98814SOL     OW98338   6.847   7.100  13.215
98814SOL    HW198339   6.807   7.014  13.230
98814SOL    HW298340   6.907   7.111  13.288
98815SOL     OW98341   7.000   0.776   1.547
98815SOL    HW198342   7.083   0.743   1.580
98815SOL    HW298343   6.953   0.698   1.518
98816SOL     OW98344  14.775  10.386   5.901
98816SOL    HW198345  14.754  10.467   5.855
98816SOL    HW298346  14.719  10.387   5.979
98817SOL     OW98347   3.324   9.269  13.049
98817SOL    HW198348   3.276   9.336  13.000
98817SOL    HW298349   3.352   9.206  12.982
98818SOL     OW98350   0.209   2.856   7.492
98818SOL    HW198351   0.257   2.922   7.443
98818SOL    HW298352   0.236   2.773   7.454
98819SOL     OW98353   0.087   7.212   4.069
98819SOL    HW198354   0.089   7.190   3.976
98819SOL    HW298355   0.104   7.130   4.114
98820SOL     OW98356   7.275  10.908   3.764
98820SOL    HW198357   7.280  10.877   3.854
98820SOL    HW298358   7.250  11.000   3.772
98821SOL     OW98359  14.283   4.651   3.372
98821SOL    HW198360  14.377   4.634   3.371
98821SOL    HW298361  14.273   4.727   3.430
98822SOL     OW98362   8.591   8.788   4.200
98822SOL    HW198363   8.535   8.720   4.236
98822SOL    HW298364   8.639   8.745   4.129
98823SOL     OW98365   4.459   9.233   6.294
98823SOL    HW198366   4.389   9.279   6.340
98823SOL    HW298367   4.534   9.239   6.353
98824SOL     OW98368   3.386  12.593   1.718
98824SOL    HW198369   3.311  12.621   1.664
98824SOL    HW298370   3.450  12.663   1.709
98825SOL     OW98371   7.331  13.833   0.015
98825SOL    HW198372   7.390  13.837  14.809
98825SOL    HW298373   7.244  13.818  14.847
98826SOL     OW98374   0.116   0.161   6.559
98826SOL    HW198375   0.033   0.207   6.574
98826SOL    HW298376   0.113   0.134   6.468
98827SOL     OW98377  12.397  10.830  11.239
98827SOL    HW198378  12.308  10.846  11.270
98827SOL    HW298379  12.399  10.868  11.151
98828SOL     OW98380  11.283   9.186   1.469
98828SOL    HW198381  11.262   9.278   1.451
98828SOL    HW298382  11.375   9.187   1.494
98829SOL     OW98383  12.363   7.081  14.231
98829SOL    HW198384  12.438   7.128  14.195
98829SOL    HW298385  12.370   6.992  14.196
98830SOL     OW98386  13.006   8.471   5.787
98830SOL    HW198387  12.967   8.421   5.715
98830SOL    HW298388  13.100   8.451   5.782
98831SOL     OW98389  13.421   9.418  12.463
98831SOL    HW198390  13.392   9.503  12.430
98831SOL    HW298391  13.412   9.359  12.388
98832SOL     OW98392   6.060   4.626  11.206
98832SOL    HW198393   6.030   4.600  11.119
98832SOL    HW298394   5.995   4.590  11.266
98833SOL     OW98395  11.573  10.761   3.358
98833SOL    HW198396  11.571  10.845   3.312
98833SOL    HW298397  11.655  10.764   3.408
98834SOL     OW98398   7.229  10.082   4.745
98834SOL    HW198399   7.228  10.095   4.650
98834SOL    HW298400   7.153  10.027   4.763
98835SOL     OW98401   9.362  10.557  13.912
98835SOL    HW198402   9.360  10.646  13.877
98835SOL    HW298403   9.394  10.567  14.002
98836SOL     OW98404  13.698   2.669  10.818
98836SOL    HW198405  13.761   2.667  10.890
98836SOL    HW298406  13.749   2.693  10.742
98837SOL     OW98407  11.662   6.931  14.793
98837SOL    HW198408  11.670   6.922  14.698
98837SOL    HW298409  11.581   6.885  14.815
98838SOL     OW98410   1.104   5.294   9.004
98838SOL    HW198411   1.059   5.281   8.920
98838SOL    HW298412   1.104   5.389   9.016
98839SOL     OW98413   0.539   1.573  13.287
98839SOL    HW198414   0.494   1.492  13.312
98839SOL    HW298415   0.577   1.554  13.201
98840SOL     OW98416   6.105   9.529   8.038
98840SOL    HW198417   6.060   9.453   8.002
98840SOL    HW298418   6.099   9.597   7.971
98841SOL     OW98419  14.233   4.775   2.326
98841SOL    HW198420  14.238   4.821   2.409
98841SOL    HW298421  14.177   4.830   2.271
98842SOL     OW98422   7.539   7.752   4.789
98842SOL    HW198423   7.547   7.727   4.881
98842SOL    HW298424   7.596   7.692   4.742
98843SOL     OW98425   0.443   3.709  14.345
98843SOL    HW198426   0.453   3.688  14.437
98843SOL    HW298427   0.507   3.779  14.329
98844SOL     OW98428   7.193  12.313   7.819
98844SOL    HW198429   7.184  12.261   7.899
98844SOL    HW298430   7.136  12.388   7.833
98845SOL     OW98431  12.452   3.973   2.432
98845SOL    HW198432  12.454   3.898   2.492
98845SOL    HW298433  12.387   3.949   2.366
98846SOL     OW98434  10.746   7.917  10.092
98846SOL    HW198435  10.657   7.889  10.114
98846SOL    HW298436  10.803   7.851  10.134
98847SOL     OW98437   9.442  10.426  14.434
98847SOL    HW198438   9.461  10.377  14.354
98847SOL    HW298439   9.477  10.513  14.419
98848SOL     OW98440  11.240  13.207   9.150
98848SOL    HW198441  11.246  13.297   9.182
98848SOL    HW298442  11.216  13.216   9.058
98849SOL     OW98443  11.537   6.530   2.955
98849SOL    HW198444  11.620   6.522   3.001
98849SOL    HW298445  11.499   6.442   2.958
98850SOL     OW98446   6.392   3.245   8.016
98850SOL    HW198447   6.469   3.262   8.069
98850SOL    HW298448   6.328   3.209   8.077
98851SOL     OW98449   1.476   3.782   3.270
98851SOL    HW198450   1.399   3.782   3.213
98851SOL    HW298451   1.443   3.809   3.356
98852SOL     OW98452   5.704   5.575   3.624
98852SOL    HW198453   5.624   5.552   3.672
98852SOL    HW298454   5.774   5.561   3.687
98853SOL     OW98455  12.056  11.579   8.082
98853SOL    HW198456  12.108  11.500   8.065
98853SOL    HW298457  12.073  11.599   8.174
98854SOL     OW98458  12.273  13.527   9.453
98854SOL    HW198459  12.261  13.439   9.488
98854SOL    HW298460  12.186  13.567   9.456
98855SOL     OW98461  11.906  11.878   2.020
98855SOL    HW198462  11.953  11.886   1.937
98855SOL    HW298463  11.827  11.828   1.998
98856SOL     OW98464   2.714  12.950  11.981
98856SOL    HW198465   2.733  12.937  12.074
98856SOL    HW298466   2.790  12.999  11.948
98857SOL     OW98467   2.462   9.862   5.381
98857SOL    HW198468   2.463   9.955   5.407
98857SOL    HW298469   2.516   9.818   5.446
98858SOL     OW98470   7.264   6.310  11.870
98858SOL    HW198471   7.266   6.309  11.966
98858SOL    HW298472   7.349   6.275  11.844
98859SOL     OW98473   3.326   6.575  13.037
98859SOL    HW198474   3.312   6.657  12.989
98859SOL    HW298475   3.306   6.597  13.128
98860SOL     OW98476   3.577  10.970   3.676
98860SOL    HW198477   3.604  11.007   3.591
98860SOL    HW298478   3.481  10.976   3.675
98861SOL     OW98479   3.563  11.468   6.023
98861SOL    HW198480   3.641  11.517   5.996
98861SOL    HW298481   3.584  11.377   6.003
98862SOL     OW98482   1.313  11.333   0.969
98862SOL    HW198483   1.365  11.385   0.908
98862SOL    HW298484   1.226  11.371   0.965
98863SOL     OW98485   6.232   6.016   5.140
98863SOL    HW198486   6.195   5.930   5.120
98863SOL    HW298487   6.205   6.033   5.231
98864SOL     OW98488   8.891   9.888  12.810
98864SOL    HW198489   8.842   9.967  12.784
98864SOL    HW298490   8.972   9.922  12.848
98865SOL     OW98491  10.668   3.555   1.495
98865SOL    HW198492  10.723   3.546   1.418
98865SOL    HW298493  10.648   3.649   1.499
98866SOL     OW98494  12.940   5.799   3.664
98866SOL    HW198495  12.848   5.811   3.641
98866SOL    HW298496  12.981   5.884   3.645
98867SOL     OW98497   3.339   2.700  11.585
98867SOL    HW198498   3.408   2.686  11.650
98867SOL    HW298499   3.269   2.640  11.610
98868SOL     OW98500   2.848   4.555  10.735
98868SOL    HW198501   2.886   4.642  10.744
98868SOL    HW298502   2.820   4.531  10.823
98869SOL     OW98503   9.951   4.402   4.068
98869SOL    HW198504  10.020   4.447   4.115
98869SOL    HW298505   9.910   4.470   4.014
98870SOL     OW98506   7.445  14.645   4.801
98870SOL    HW198507   7.485  14.684   4.879
98870SOL    HW298508   7.515  14.594   4.761
98871SOL     OW98509   1.797   0.128  12.767
98871SOL    HW198510   1.741   0.205  12.776
98871SOL    HW298511   1.865   0.153  12.705
98872SOL     OW98512   2.521  14.323   9.802
98872SOL    HW198513   2.584  14.359   9.865
98872SOL    HW298514   2.517  14.230   9.823
98873SOL     OW98515  10.967   9.043   6.585
98873SOL    HW198516  11.018   9.122   6.602
98873SOL    HW298517  10.912   9.065   6.510
98874SOL     OW98518   0.863   8.010   4.378
98874SOL    HW198519   0.864   8.038   4.287
98874SOL    HW298520   0.888   8.088   4.427
98875SOL     OW98521   9.602   7.407   7.630
98875SOL    HW198522   9.631   7.400   7.721
98875SOL    HW298523   9.682   7.430   7.582
98876SOL     OW98524   5.364  13.852   4.927
98876SOL    HW198525   5.403  13.781   4.979
98876SOL    HW298526   5.328  13.912   4.993
98877SOL     OW98527   5.414   6.579   4.218
98877SOL    HW198528   5.507   6.598   4.232
98877SOL    HW298529   5.400   6.495   4.262
98878SOL     OW98530   9.384   4.370   5.300
98878SOL    HW198531   9.407   4.449   5.251
98878SOL    HW298532   9.414   4.298   5.244
98879SOL     OW98533   5.750  10.386  11.353
98879SOL    HW198534   5.786  10.304  11.317
98879SOL    HW298535   5.823  10.425  11.401
98880SOL     OW98536   3.374   1.998   1.054
98880SOL    HW198537   3.351   1.914   1.094
98880SOL    HW298538   3.426   1.974   0.977
98881SOL     OW98539  11.886   2.521   6.402
98881SOL    HW198540  11.878   2.580   6.477
98881SOL    HW298541  11.805   2.470   6.403
98882SOL     OW98542  13.266  13.719   3.521
98882SOL    HW198543  13.207  13.723   3.597
98882SOL    HW298544  13.336  13.661   3.549
98883SOL     OW98545   5.742   8.339   6.066
98883SOL    HW198546   5.822   8.392   6.064
98883SOL    HW298547   5.770   8.252   6.036
98884SOL     OW98548   5.182   1.636   8.061
98884SOL    HW198549   5.211   1.719   8.100
98884SOL    HW298550   5.252   1.574   8.082
98885SOL     OW98551   6.719   3.593   9.572
98885SOL    HW198552   6.671   3.578   9.491
98885SOL    HW298553   6.773   3.515   9.583
98886SOL     OW98554   6.512  12.713   5.760
98886SOL    HW198555   6.425  12.708   5.799
98886SOL    HW298556   6.500  12.680   5.670
98887SOL     OW98557   1.723   8.122   2.884
98887SOL    HW198558   1.737   8.030   2.859
98887SOL    HW298559   1.677   8.160   2.809
98888SOL     OW98560  10.408  12.649   5.562
98888SOL    HW198561  10.331  12.636   5.617
98888SOL    HW298562  10.379  12.710   5.495
98889SOL     OW98563   9.365  14.723   8.351
98889SOL    HW198564   9.282  14.753   8.387
98889SOL    HW298565   9.347  14.708   8.258
98890SOL     OW98566  14.104  11.985   3.045
98890SOL    HW198567  14.072  12.056   3.101
98890SOL    HW298568  14.178  12.023   2.998
98891SOL     OW98569   6.780  14.169   9.296
98891SOL    HW198570   6.723  14.142   9.369
98891SOL    HW298571   6.869  14.151   9.327
98892SOL     OW98572   4.946   1.231   1.133
98892SOL    HW198573   5.035   1.197   1.137
98892SOL    HW298574   4.912   1.220   1.221
98893SOL     OW98575   0.530   6.258  13.567
98893SOL    HW198576   0.447   6.262  13.614
98893SOL    HW298577   0.506   6.237  13.477
98894SOL     OW98578   4.783  10.607   6.227
98894SOL    HW198579   4.852  10.667   6.256
98894SOL    HW298580   4.783  10.537   6.292
98895SOL     OW98581   6.192   2.460  10.392
98895SOL    HW198582   6.214   2.546  10.358
98895SOL    HW298583   6.253   2.446  10.465
98896SOL     OW98584  10.945  11.402  13.896
98896SOL    HW198585  10.964  11.319  13.851
98896SOL    HW298586  10.880  11.378  13.962
98897SOL     OW98587  13.839   2.248   4.468
98897SOL    HW198588  13.762   2.264   4.414
98897SOL    HW298589  13.835   2.316   4.536
98898SOL     OW98590   8.119  14.687   1.442
98898SOL    HW198591   8.062  14.715   1.370
98898SOL    HW298592   8.073  14.613   1.481
98899SOL     OW98593   0.482  13.907   4.222
98899SOL    HW198594   0.514  13.986   4.266
98899SOL    HW298595   0.560  13.867   4.184
98900SOL     OW98596   7.087  11.876   9.914
98900SOL    HW198597   7.128  11.854   9.998
98900SOL    HW298598   7.054  11.793   9.880
98901SOL     OW98599   5.561  12.235  14.493
98901SOL    HW198600   5.472  12.271  14.487
98901SOL    HW298601   5.561  12.183  14.573
98902SOL     OW98602   5.764  12.785  14.204
98902SOL    HW198603   5.751  12.878  14.182
98902SOL    HW298604   5.846  12.784  14.252
98903SOL     OW98605  13.675   8.256   4.300
98903SOL    HW198606  13.637   8.343   4.290
98903SOL    HW298607  13.678   8.242   4.395
98904SOL     OW98608   1.962  12.884   6.570
98904SOL    HW198609   1.914  12.952   6.522
98904SOL    HW298610   2.052  12.893   6.541
98905SOL     OW98611   9.136   5.338   3.797
98905SOL    HW198612   9.195   5.385   3.857
98905SOL    HW298613   9.165   5.363   3.710
98906SOL     OW98614   0.188   9.874   2.298
98906SOL    HW198615   0.159   9.898   2.210
98906SOL    HW298616   0.208   9.958   2.340
98907SOL     OW98617  12.116  13.122   3.765
98907SOL    HW198618  12.078  13.198   3.809
98907SOL    HW298619  12.207  13.120   3.794
98908SOL     OW98620   1.037   5.305  12.155
98908SOL    HW198621   1.081   5.260  12.083
98908SOL    HW298622   0.952   5.260  12.162
98909SOL     OW98623  12.304  14.383   6.067
98909SOL    HW198624  12.297  14.412   5.976
98909SOL    HW298625  12.222  14.336   6.083
98910SOL     OW98626   4.885   6.285  10.602
98910SOL    HW198627   4.972   6.285  10.562
98910SOL    HW298628   4.824   6.289  10.528
98911SOL     OW98629  11.216  12.711   2.570
98911SOL    HW198630  11.142  12.699   2.510
98911SOL    HW298631  11.201  12.648   2.640
98912SOL     OW98632  13.820   3.053   0.281
98912SOL    HW198633  13.876   3.127   0.305
98912SOL    HW298634  13.868   3.008   0.211
98913SOL     OW98635  14.706  11.057  11.671
98913SOL    HW198636  14.707  11.129  11.608
98913SOL    HW298637  14.798  11.035  11.684
98914SOL     OW98638   8.785  12.928   5.672
98914SOL    HW198639   8.838  12.896   5.600
98914SOL    HW298640   8.848  12.971   5.731
98915SOL     OW98641   9.669   9.665  12.075
98915SOL    HW198642   9.638   9.574  12.080
98915SOL    HW298643   9.596   9.713  12.036
98916SOL     OW98644  13.038   1.382  12.076
98916SOL    HW198645  12.960   1.398  12.129
98916SOL    HW298646  13.046   1.458  12.020
98917SOL     OW98647   1.368   0.204  10.173
98917SOL    HW198648   1.287   0.217  10.124
98917SOL    HW298649   1.435   0.192  10.105
98918SOL     OW98650   1.248   5.961   6.306
98918SOL    HW198651   1.283   5.997   6.387
98918SOL    HW298652   1.177   5.903   6.334
98919SOL     OW98653  10.132   6.622   5.711
98919SOL    HW198654  10.095   6.607   5.798
98919SOL    HW298655  10.189   6.547   5.696
98920SOL     OW98656   7.826   5.620   9.936
98920SOL    HW198657   7.842   5.601  10.028
98920SOL    HW298658   7.864   5.546   9.889
98921SOL     OW98659  13.933   4.280   4.611
98921SOL    HW198660  13.855   4.251   4.562
98921SOL    HW298661  13.901   4.296   4.699
98922SOL     OW98662   9.918   4.787   6.573
98922SOL    HW198663   9.932   4.813   6.664
98922SOL    HW298664   9.863   4.857   6.537
98923SOL     OW98665   8.890  10.377   6.739
98923SOL    HW198666   8.947  10.345   6.669
98923SOL    HW298667   8.804  10.387   6.697
98924SOL     OW98668   5.565   0.832   8.874
98924SOL    HW198669   5.625   0.901   8.844
98924SOL    HW298670   5.504   0.876   8.933
98925SOL     OW98671  10.656   2.799   9.869
98925SOL    HW198672  10.565   2.777   9.891
98925SOL    HW298673  10.701   2.715   9.870
98926SOL     OW98674   2.860   4.847   1.039
98926SOL    HW198675   2.775   4.860   1.079
98926SOL    HW298676   2.904   4.783   1.094
98927SOL     OW98677   0.502   1.060   9.614
98927SOL    HW198678   0.532   1.144   9.648
98927SOL    HW298679   0.532   0.995   9.677
98928SOL     OW98680   4.243  12.350   5.016
98928SOL    HW198681   4.191  12.414   5.065
98928SOL    HW298682   4.333  12.363   5.047
98929SOL     OW98683   6.168   4.323   1.691
98929SOL    HW198684   6.138   4.233   1.693
98929SOL    HW298685   6.092   4.373   1.660
98930SOL     OW98686   1.769   9.809  11.728
98930SOL    HW198687   1.839   9.848  11.782
98930SOL    HW298688   1.765   9.866  11.651
98931SOL     OW98689   3.377   0.407   2.196
98931SOL    HW198690   3.375   0.417   2.291
98931SOL    HW298691   3.464   0.373   2.178
98932SOL     OW98692   6.829   5.205   0.888
98932SOL    HW198693   6.819   5.122   0.934
98932SOL    HW298694   6.922   5.224   0.891
98933SOL     OW98695  10.524  10.584  10.926
98933SOL    HW198696  10.446  10.636  10.944
98933SOL    HW298697  10.587  10.611  10.993
98934SOL     OW98698   4.903  13.561  13.199
98934SOL    HW198699   4.919  13.633  13.260
98934SOL    HW298700   4.808  13.549  13.201
98935SOL     OW98701   7.533   3.189   6.268
98935SOL    HW198702   7.499   3.154   6.185
98935SOL    HW298703   7.601   3.127   6.294
98936SOL     OW98704   2.026  13.300  12.060
98936SOL    HW198705   2.015  13.210  12.031
98936SOL    HW298706   1.948  13.318  12.113
98937SOL     OW98707  14.025   0.598   5.173
98937SOL    HW198708  14.038   0.675   5.119
98937SOL    HW298709  13.958   0.624   5.237
98938SOL     OW98710   0.134  10.103  14.470
98938SOL    HW198711   0.230  10.094  14.467
98938SOL    HW298712   0.106  10.038  14.534
98939SOL     OW98713   2.802   9.471  11.966
98939SOL    HW198714   2.719   9.516  11.984
98939SOL    HW298715   2.831   9.439  12.051
98940SOL     OW98716   6.407   7.665   7.444
98940SOL    HW198717   6.475   7.693   7.506
98940SOL    HW298718   6.345   7.738   7.443
98941SOL     OW98719   5.133  13.509   0.598
98941SOL    HW198720   5.076  13.441   0.634
98941SOL    HW298721   5.169  13.470   0.518
98942SOL     OW98722  14.278   3.700   4.492
98942SOL    HW198723  14.267   3.608   4.516
98942SOL    HW298724  14.229   3.709   4.410
98943SOL     OW98725  14.055   8.141   8.895
98943SOL    HW198726  14.044   8.153   8.989
98943SOL    HW298727  13.984   8.083   8.869
98944SOL     OW98728  11.456   5.395   9.204
98944SOL    HW198729  11.515   5.470   9.202
98944SOL    HW298730  11.446   5.374   9.296
98945SOL     OW98731  11.591  10.084   8.339
98945SOL    HW198732  11.596  10.037   8.422
98945SOL    HW298733  11.661  10.149   8.344
98946SOL     OW98734  13.273   0.249   3.253
98946SOL    HW198735  13.216   0.196   3.196
98946SOL    HW298736  13.347   0.272   3.198
98947SOL     OW98737  14.252  12.292   1.787
98947SOL    HW198738  14.264  12.384   1.765
98947SOL    HW298739  14.172  12.266   1.740
98948SOL     OW98740  12.505  11.400   8.586
98948SOL    HW198741  12.443  11.328   8.595
98948SOL    HW298742  12.563  11.392   8.661
98949SOL     OW98743  13.665   5.019   9.013
98949SOL    HW198744  13.634   5.039   9.102
98949SOL    HW298745  13.719   5.094   8.989
98950SOL     OW98746  14.073   4.108  11.821
98950SOL    HW198747  14.105   4.079  11.736
98950SOL    HW298748  14.063   4.028  11.872
98951SOL     OW98749   6.745  13.137   9.474
98951SOL    HW198750   6.819  13.099   9.521
98951SOL    HW298751   6.678  13.148   9.542
98952SOL     OW98752   6.021  11.663  10.273
98952SOL    HW198753   6.117  11.660  10.274
98952SOL    HW298754   6.000  11.752  10.246
98953SOL     OW98755   0.158   0.526   3.665
98953SOL    HW198756   0.235   0.505   3.613
98953SOL    HW298757   0.133   0.614   3.637
98954SOL     OW98758   9.609  12.204   7.017
98954SOL    HW198759   9.536  12.152   7.054
98954SOL    HW298760   9.625  12.272   7.082
98955SOL     OW98761  11.103  12.567   2.794
98955SOL    HW198762  11.028  12.593   2.847
98955SOL    HW298763  11.150  12.504   2.848
98956SOL     OW98764   8.201   9.445   0.736
98956SOL    HW198765   8.109   9.469   0.737
98956SOL    HW298766   8.222   9.433   0.643
98957SOL     OW98767   1.342  10.312   5.538
98957SOL    HW198768   1.334  10.390   5.482
98957SOL    HW298769   1.266  10.317   5.597
98958SOL     OW98770  11.011   7.259   4.369
98958SOL    HW198771  10.959   7.210   4.305
98958SOL    HW298772  11.021   7.198   4.442
98959SOL     OW98773   5.124  11.146   0.974
98959SOL    HW198774   5.170  11.167   0.893
98959SOL    HW298775   5.137  11.052   0.985
98960SOL     OW98776   1.399   2.117   4.595
98960SOL    HW198777   1.437   2.115   4.683
98960SOL    HW298778   1.417   2.205   4.563
98961SOL     OW98779   4.584   8.995   1.949
98961SOL    HW198780   4.534   8.978   2.028
98961SOL    HW298781   4.669   8.954   1.964
98962SOL     OW98782   1.411   7.095   4.050
98962SOL    HW198783   1.461   7.109   4.130
98962SOL    HW298784   1.379   7.182   4.026
98963SOL     OW98785  10.562   2.368   9.816
98963SOL    HW198786  10.636   2.429   9.821
98963SOL    HW298787  10.550   2.338   9.906
98964SOL     OW98788  11.716  14.762   4.198
98964SOL    HW198789  11.676  14.727   4.118
98964SOL    HW298790  11.656  14.737   4.268
98965SOL     OW98791  12.742   1.713   6.218
98965SOL    HW198792  12.690   1.738   6.294
98965SOL    HW298793  12.796   1.790   6.200
98966SOL     OW98794  12.459  11.461   0.874
98966SOL    HW198795  12.435  11.378   0.917
98966SOL    HW298796  12.474  11.438   0.783
98967SOL     OW98797   4.822   4.804   6.812
98967SOL    HW198798   4.818   4.710   6.795
98967SOL    HW298799   4.864   4.811   6.898
98968SOL     OW98800   7.776   1.267  14.869
98968SOL    HW198801   7.693   1.314   0.000
98968SOL    HW298802   7.840   1.333   0.026
98969SOL     OW98803   7.590  12.516  13.783
98969SOL    HW198804   7.652  12.444  13.772
98969SOL    HW298805   7.584  12.557  13.697
98970SOL     OW98806  14.370  14.771   8.170
98970SOL    HW198807  14.278  14.747   8.168
98970SOL    HW298808  14.415  14.700   8.123
98971SOL     OW98809  10.480   3.378  12.535
98971SOL    HW198810  10.459   3.449  12.474
98971SOL    HW298811  10.469   3.298  12.483
98972SOL     OW98812   5.652  10.151   9.993
98972SOL    HW198813   5.654  10.081   9.928
98972SOL    HW298814   5.591  10.121  10.060
98973SOL     OW98815  12.951  14.675   8.982
98973SOL    HW198816  12.941  14.691   8.888
98973SOL    HW298817  12.870  14.630   9.008
98974SOL     OW98818  11.841  12.479   6.327
98974SOL    HW198819  11.755  12.497   6.289
98974SOL    HW298820  11.869  12.398   6.284
98975SOL     OW98821   0.708  10.441   0.317
98975SOL    HW198822   0.711  10.508   0.386
98975SOL    HW298823   0.779  10.464   0.258
98976SOL     OW98824   2.743   5.575   3.755
98976SOL    HW198825   2.731   5.625   3.836
98976SOL    HW298826   2.835   5.588   3.733
98977SOL     OW98827   8.803  11.808  13.415
98977SOL    HW198828   8.805  11.777  13.506
98977SOL    HW298829   8.710  11.826  13.397
98978SOL     OW98830  10.114  14.221  11.568
98978SOL    HW198831  10.140  14.250  11.480
98978SOL    HW298832  10.169  14.272  11.627
98979SOL     OW98833   4.435  10.959  11.978
98979SOL    HW198834   4.529  10.960  11.959
98979SOL    HW298835   4.424  10.892  12.045
98980SOL     OW98836   9.702   5.567  14.744
98980SOL    HW198837   9.785   5.613  14.733
98980SOL    HW298838   9.726   5.479  14.770
98981SOL     OW98839   0.752   1.783  13.934
98981SOL    HW198840   0.800   1.864  13.954
98981SOL    HW298841   0.721   1.795  13.844
98982SOL     OW98842   9.171   3.585   7.871
98982SOL    HW198843   9.266   3.588   7.867
98982SOL    HW298844   9.142   3.613   7.784
98983SOL     OW98845   3.082  12.778  10.553
98983SOL    HW198846   3.061  12.835  10.479
98983SOL    HW298847   3.062  12.830  10.630
98984SOL     OW98848   2.650   2.956   8.631
98984SOL    HW198849   2.645   2.909   8.547
98984SOL    HW298850   2.736   2.934   8.666
98985SOL     OW98851   0.055  13.509   2.793
98985SOL    HW198852  14.836  13.536   2.771
98985SOL    HW298853   0.077  13.558   2.872
98986SOL     OW98854   0.544   0.247   1.639
98986SOL    HW198855   0.488   0.175   1.667
98986SOL    HW298856   0.511   0.323   1.686
98987SOL     OW98857  10.736   2.970   2.063
98987SOL    HW198858  10.754   2.878   2.077
98987SOL    HW298859  10.694   2.974   1.976
98988SOL     OW98860   8.668   7.471   8.051
98988SOL    HW198861   8.584   7.511   8.072
98988SOL    HW298862   8.729   7.544   8.047
98989SOL     OW98863   0.574  14.143   4.338
98989SOL    HW198864   0.606  14.224   4.299
98989SOL    HW298865   0.563  14.163   4.431
98990SOL     OW98866   4.394   1.540   0.625
98990SOL    HW198867   4.432   1.590   0.552
98990SOL    HW298868   4.300   1.543   0.610
98991SOL     OW98869  13.986  10.008   5.047
98991SOL    HW198870  13.918  10.042   5.104
98991SOL    HW298871  13.996  10.075   4.979
98992SOL     OW98872   3.394   8.051  12.608
98992SOL    HW198873   3.359   8.139  12.620
98992SOL    HW298874   3.345   8.016  12.533
98993SOL     OW98875  13.720   4.299   2.147
98993SOL    HW198876  13.759   4.223   2.104
98993SOL    HW298877  13.656   4.332   2.084
98994SOL     OW98878   8.098  11.216   6.998
98994SOL    HW198879   8.023  11.167   7.031
98994SOL    HW298880   8.172  11.158   7.011
98995SOL     OW98881   9.715   0.834  11.163
98995SOL    HW198882   9.694   0.872  11.078
98995SOL    HW298883   9.652   0.874  11.224
98996SOL     OW98884   0.373   7.536  11.350
98996SOL    HW198885   0.345   7.617  11.393
98996SOL    HW298886   0.358   7.468  11.415
98997SOL     OW98887  10.442   6.594   7.511
98997SOL    HW198888  10.382   6.530   7.550
98997SOL    HW298889  10.524   6.581   7.558
98998SOL     OW98890  11.480   4.249  10.105
98998SOL    HW198891  11.487   4.324  10.045
98998SOL    HW298892  11.386   4.233  10.111
98999SOL     OW98893   5.696   3.002  12.348
98999SOL    HW198894   5.732   2.961  12.426
98999SOL    HW298895   5.769   3.051  12.310
99000SOL     OW98896   7.432   5.345  10.187
99000SOL    HW198897   7.370   5.380  10.123
99000SOL    HW298898   7.399   5.257  10.206
99001SOL     OW98899  12.498   8.654   5.530
99001SOL    HW198900  12.447   8.723   5.487
99001SOL    HW298901  12.573   8.700   5.568
99002SOL     OW98902   1.586  10.208   0.893
99002SOL    HW198903   1.547  10.244   0.814
99002SOL    HW298904   1.541  10.124   0.907
99003SOL     OW98905  11.703  12.715   7.902
99003SOL    HW198906  11.622  12.682   7.941
99003SOL    HW298907  11.748  12.759   7.975
99004SOL     OW98908   8.152   0.607  12.012
99004SOL    HW198909   8.116   0.653  12.088
99004SOL    HW298910   8.242   0.640  12.005
99005SOL     OW98911   8.364  12.608  13.065
99005SOL    HW198912   8.410  12.606  12.981
99005SOL    HW298913   8.282  12.653  13.046
99006SOL     OW98914   2.933   2.408  11.418
99006SOL    HW198915   2.907   2.316  11.421
99006SOL    HW298916   2.961   2.423  11.328
99007SOL     OW98917   0.108   3.344   3.720
99007SOL    HW198918   0.158   3.264   3.704
99007SOL    HW298919   0.128   3.368   3.810
99008SOL     OW98920   9.493   5.466   0.589
99008SOL    HW198921   9.578   5.503   0.615
99008SOL    HW298922   9.436   5.483   0.664
99009SOL     OW98923   2.534   9.904   3.056
99009SOL    HW198924   2.528   9.902   3.151
99009SOL    HW298925   2.543   9.997   3.034
99010SOL     OW98926   3.453   8.995  11.620
99010SOL    HW198927   3.441   8.995  11.525
99010SOL    HW298928   3.386   9.054  11.653
99011SOL     OW98929   9.067   9.664   2.922
99011SOL    HW198930   9.143   9.605   2.922
99011SOL    HW298931   9.065   9.700   3.010
99012SOL     OW98932  13.931   9.891   7.608
99012SOL    HW198933  13.901   9.942   7.684
99012SOL    HW298934  14.026   9.900   7.609
99013SOL     OW98935  10.694   8.334  13.182
99013SOL    HW198936  10.755   8.292  13.121
99013SOL    HW298937  10.609   8.296  13.160
99014SOL     OW98938  10.014   9.255   6.553
99014SOL    HW198939  10.108   9.242   6.562
99014SOL    HW298940   9.977   9.223   6.635
99015SOL     OW98941   7.595  13.201   7.606
99015SOL    HW198942   7.633  13.254   7.537
99015SOL    HW298943   7.503  13.191   7.580
99016SOL     OW98944   0.171  14.014   1.892
99016SOL    HW198945   0.101  13.964   1.935
99016SOL    HW298946   0.147  14.013   1.799
99017SOL     OW98947   9.873  13.991  14.544
99017SOL    HW198948   9.851  14.083  14.526
99017SOL    HW298949   9.938  13.969  14.478
99018SOL     OW98950  11.317  11.186  13.875
99018SOL    HW198951  11.287  11.227  13.955
99018SOL    HW298952  11.404  11.222  13.860
99019SOL     OW98953  12.412   0.872   2.755
99019SOL    HW198954  12.390   0.963   2.732
99019SOL    HW298955  12.424   0.874   2.850
99020SOL     OW98956  14.165   5.048  12.031
99020SOL    HW198957  14.212   4.975  12.070
99020SOL    HW298958  14.073   5.031  12.052
99021SOL     OW98959   4.723  12.254   5.993
99021SOL    HW198960   4.811  12.219   6.001
99021SOL    HW298961   4.723  12.301   5.909
99022SOL     OW98962   1.079   3.193  14.018
99022SOL    HW198963   1.173   3.174  14.016
99022SOL    HW298964   1.047   3.160  13.934
99023SOL     OW98965   3.416   0.740   5.504
99023SOL    HW198966   3.373   0.684   5.569
99023SOL    HW298967   3.438   0.820   5.552
99024SOL     OW98968   3.859   3.212   1.268
99024SOL    HW198969   3.886   3.187   1.357
99024SOL    HW298970   3.791   3.149   1.245
99025SOL     OW98971   0.189   5.877  12.902
99025SOL    HW198972   0.140   5.955  12.877
99025SOL    HW298973   0.172   5.815  12.830
99026SOL     OW98974  14.328   1.154   7.437
99026SOL    HW198975  14.322   1.203   7.355
99026SOL    HW298976  14.377   1.211   7.496
99027SOL     OW98977   8.161   4.823   5.098
99027SOL    HW198978   8.194   4.869   5.021
99027SOL    HW298979   8.217   4.745   5.105
99028SOL     OW98980  14.324   5.184   9.525
99028SOL    HW198981  14.378   5.185   9.446
99028SOL    HW298982  14.312   5.276   9.548
99029SOL     OW98983  12.604   6.388   8.042
99029SOL    HW198984  12.575   6.475   8.069
99029SOL    HW298985  12.524   6.337   8.034
99030SOL     OW98986  10.799   2.245   7.368
99030SOL    HW198987  10.836   2.270   7.452
99030SOL    HW298988  10.756   2.324   7.335
99031SOL     OW98989  13.618  10.180   4.042
99031SOL    HW198990  13.573  10.141   4.117
99031SOL    HW298991  13.676  10.111   4.010
99032SOL     OW98992   5.132   5.487   8.202
99032SOL    HW198993   5.127   5.569   8.251
99032SOL    HW298994   5.097   5.421   8.263
99033SOL     OW98995  12.993   5.034   1.670
99033SOL    HW198996  12.948   4.950   1.668
99033SOL    HW298997  12.983   5.065   1.761
99034SOL     OW98998   1.629   9.018  12.217
99034SOL    HW198999   1.700   9.082  12.208
99034SOL    HW299000   1.660   8.940  12.170
99035SOL     OW99001  14.137   2.748   9.532
99035SOL    HW199002  14.182   2.671   9.498
99035SOL    HW299003  14.203   2.818   9.526
99036SOL     OW99004   2.318  12.907  13.612
99036SOL    HW199005   2.272  12.989  13.593
99036SOL    HW299006   2.404  12.935  13.645
99037SOL     OW99007   4.445   0.119   9.060
99037SOL    HW199008   4.424   0.129   8.968
99037SOL    HW299009   4.439   0.025   9.076
99038SOL     OW99010   7.242   6.903   4.945
99038SOL    HW199011   7.250   6.963   5.019
99038SOL    HW299012   7.259   6.816   4.982
99039SOL     OW99013  11.147   1.892   7.315
99039SOL    HW199014  11.065   1.931   7.287
99039SOL    HW299015  11.213   1.930   7.256
99040SOL     OW99016  14.582  12.922  11.234
99040SOL    HW199017  14.494  12.918  11.198
99040SOL    HW299018  14.582  12.999  11.290
99041SOL     OW99019  10.248   0.039   2.503
99041SOL    HW199020  10.230  14.848   2.574
99041SOL    HW299021  10.210   0.122   2.532
99042SOL     OW99022  11.896  10.712   4.136
99042SOL    HW199023  11.934  10.681   4.218
99042SOL    HW299024  11.801  10.705   4.149
99043SOL     OW99025  11.613   5.789   5.332
99043SOL    HW199026  11.630   5.878   5.301
99043SOL    HW299027  11.690   5.739   5.303
99044SOL     OW99028   6.282   0.733  12.287
99044SOL    HW199029   6.346   0.719  12.217
99044SOL    HW299030   6.335   0.748  12.366
99045SOL     OW99031   7.234   8.063   5.678
99045SOL    HW199032   7.241   7.975   5.640
99045SOL    HW299033   7.319   8.103   5.663
99046SOL     OW99034   2.115   1.812   3.492
99046SOL    HW199035   2.092   1.869   3.565
99046SOL    HW299036   2.067   1.849   3.417
99047SOL     OW99037   1.118   1.002  14.777
99047SOL    HW199038   1.025   1.013  14.757
99047SOL    HW299039   1.121   0.922  14.830
99048SOL     OW99040  12.847   6.259   7.756
99048SOL    HW199041  12.788   6.226   7.688
99048SOL    HW299042  12.904   6.185   7.777
99049SOL     OW99043  14.077  13.506  11.233
99049SOL    HW199044  14.056  13.582  11.180
99049SOL    HW299045  14.045  13.527  11.320
99050SOL     OW99046   5.282  14.544   5.947
99050SOL    HW199047   5.253  14.561   6.036
99050SOL    HW299048   5.247  14.617   5.896
99051SOL     OW99049   0.248   3.062   2.661
99051SOL    HW199050   0.311   3.113   2.712
99051SOL    HW299051   0.300   2.989   2.625
99052SOL     OW99052   7.924   2.974   7.274
99052SOL    HW199053   7.972   2.892   7.267
99052SOL    HW299054   7.916   3.005   7.184
99053SOL     OW99055   2.713  13.494   9.880
99053SOL    HW199056   2.734  13.402   9.897
99053SOL    HW299057   2.620  13.494   9.859
99054SOL     OW99058   5.093   0.951   3.154
99054SOL    HW199059   5.159   0.883   3.169
99054SOL    HW299060   5.097   0.968   3.059
99055SOL     OW99061   2.676  13.941   0.965
99055SOL    HW199062   2.650  14.023   1.006
99055SOL    HW299063   2.768  13.929   0.989
99056SOL     OW99064  14.252   8.471   8.740
99056SOL    HW199065  14.258   8.475   8.645
99056SOL    HW299066  14.158   8.468   8.759
99057SOL     OW99067   2.232   9.856   0.671
99057SOL    HW199068   2.239   9.948   0.696
99057SOL    HW299069   2.214   9.811   0.753
99058SOL     OW99070  10.283   9.343   5.845
99058SOL    HW199071  10.303   9.260   5.803
99058SOL    HW299072  10.214   9.323   5.908
99059SOL     OW99073   8.284  11.361   1.016
99059SOL    HW199074   8.305  11.326   1.103
99059SOL    HW299075   8.322  11.448   1.016
99060SOL     OW99076   0.286   5.813   4.690
99060SOL    HW199077   0.332   5.893   4.714
99060SOL    HW299078   0.328   5.744   4.743
99061SOL     OW99079   8.579  11.037   0.627
99061SOL    HW199080   8.573  10.941   0.628
99061SOL    HW299081   8.600  11.059   0.536
99062SOL     OW99082   4.186  11.313  13.617
99062SOL    HW199083   4.139  11.396  13.609
99062SOL    HW299084   4.138  11.252  13.561
99063SOL     OW99085   3.901   3.790   0.605
99063SOL    HW199086   3.926   3.709   0.649
99063SOL    HW299087   3.964   3.855   0.638
99064SOL     OW99088   8.323  11.705  10.033
99064SOL    HW199089   8.241  11.665  10.004
99064SOL    HW299090   8.301  11.795  10.054
99065SOL     OW99091   5.929   3.331  14.636
99065SOL    HW199092   5.977   3.289  14.565
99065SOL    HW299093   5.997   3.356  14.699
99066SOL     OW99094   7.188  10.281   6.849
99066SOL    HW199095   7.237  10.256   6.771
99066SOL    HW299096   7.103  10.311   6.816
99067SOL     OW99097   8.355   5.279   2.335
99067SOL    HW199098   8.318   5.285   2.423
99067SOL    HW299099   8.308   5.344   2.284
99068SOL     OW99100  12.055   1.611   7.654
99068SOL    HW199101  12.074   1.698   7.689
99068SOL    HW299102  12.102   1.551   7.712
99069SOL     OW99103  10.975   5.879   7.787
99069SOL    HW199104  10.996   5.800   7.837
99069SOL    HW299105  10.942   5.846   7.703
99070SOL     OW99106   6.465  10.151  10.806
99070SOL    HW199107   6.408  10.227  10.813
99070SOL    HW299108   6.548  10.186  10.774
99071SOL     OW99109   5.144   6.367  11.998
99071SOL    HW199110   5.185   6.331  11.920
99071SOL    HW299111   5.206   6.433  12.030
99072SOL     OW99112   3.655   0.545   8.375
99072SOL    HW199113   3.655   0.525   8.468
99072SOL    HW299114   3.591   0.485   8.337
99073SOL     OW99115   0.581   6.452   7.464
99073SOL    HW199116   0.506   6.463   7.522
99073SOL    HW299117   0.565   6.513   7.391
99074SOL     OW99118   7.968   4.736   3.096
99074SOL    HW199119   7.952   4.692   3.179
99074SOL    HW299120   8.043   4.793   3.112
99075SOL     OW99121  12.337  13.256   2.541
99075SOL    HW199122  12.335  13.310   2.461
99075SOL    HW299123  12.411  13.197   2.528
99076SOL     OW99124   9.597   0.490  11.165
99076SOL    HW199125   9.648   0.566  11.189
99076SOL    HW299126   9.661   0.420  11.151
99077SOL     OW99127   5.282   5.062   2.419
99077SOL    HW199128   5.241   5.028   2.499
99077SOL    HW299129   5.246   5.007   2.349
99078SOL     OW99130   7.481   8.543   5.765
99078SOL    HW199131   7.463   8.473   5.702
99078SOL    HW299132   7.488   8.497   5.849
99079SOL     OW99133   6.932  13.792   3.741
99079SOL    HW199134   6.864  13.832   3.796
99079SOL    HW299135   7.013  13.807   3.790
99080SOL     OW99136   1.262   3.923  12.680
99080SOL    HW199137   1.289   3.837  12.647
99080SOL    HW299138   1.223   3.905  12.765
99081SOL     OW99139   5.005   9.709  11.356
99081SOL    HW199140   4.964   9.783  11.312
99081SOL    HW299141   5.034   9.744  11.441
99082SOL     OW99142   4.112   4.058  11.604
99082SOL    HW199143   4.032   4.104  11.579
99082SOL    HW299144   4.091   4.015  11.687
99083SOL     OW99145   6.360  10.680   2.259
99083SOL    HW199146   6.295  10.685   2.189
99083SOL    HW299147   6.322  10.621   2.324
99084SOL     OW99148  10.571   3.905   6.560
99084SOL    HW199149  10.530   3.987   6.589
99084SOL    HW299150  10.651   3.933   6.515
99085SOL     OW99151  14.373  12.969   1.002
99085SOL    HW199152  14.331  13.029   0.940
99085SOL    HW299153  14.320  12.976   1.081
99086SOL     OW99154   4.031  11.453  12.030
99086SOL    HW199155   3.984  11.521  11.983
99086SOL    HW299156   3.965  11.387  12.049
99087SOL     OW99157   4.865   7.831  14.653
99087SOL    HW199158   4.914   7.824  14.571
99087SOL    HW299159   4.775   7.809  14.630
99088SOL     OW99160   6.858   9.973  13.389
99088SOL    HW199161   6.865   9.946  13.297
99088SOL    HW299162   6.768   9.951  13.414
99089SOL     OW99163   0.622   6.868   3.634
99089SOL    HW199164   0.574   6.790   3.664
99089SOL    HW299165   0.649   6.846   3.545
99090SOL     OW99166  11.779  10.985   3.252
99090SOL    HW199167  11.848  10.921   3.238
99090SOL    HW299168  11.766  10.986   3.347
99091SOL     OW99169   4.538   2.121   5.431
99091SOL    HW199170   4.619   2.144   5.385
99091SOL    HW299171   4.568   2.091   5.517
99092SOL     OW99172   0.137  12.957   2.466
99092SOL    HW199173   0.075  12.908   2.412
99092SOL    HW299174   0.082  13.020   2.513
99093SOL     OW99175   1.138  12.071   5.294
99093SOL    HW199176   1.178  11.985   5.284
99093SOL    HW299177   1.059  12.055   5.346
99094SOL     OW99178   8.415   6.949  10.579
99094SOL    HW199179   8.482   6.923  10.642
99094SOL    HW299180   8.361   7.012  10.626
99095SOL     OW99181   0.266   3.059  11.709
99095SOL    HW199182   0.235   3.023  11.626
99095SOL    HW299183   0.190   3.103  11.746
99096SOL     OW99184   6.111  12.117   6.528
99096SOL    HW199185   6.075  12.192   6.577
99096SOL    HW299186   6.205  12.132   6.527
99097SOL     OW99187   0.583   7.417  13.405
99097SOL    HW199188   0.501   7.458  13.375
99097SOL    HW299189   0.626   7.388  13.324
99098SOL     OW99190  11.223   1.673   0.690
99098SOL    HW199191  11.307   1.711   0.667
99098SOL    HW299192  11.204   1.709   0.777
99099SOL     OW99193   3.183   1.831  12.485
99099SOL    HW199194   3.252   1.882  12.443
99099SOL    HW299195   3.120   1.897  12.514
99100SOL     OW99196  10.212   0.838   9.960
99100SOL    HW199197  10.213   0.755  10.007
99100SOL    HW299198  10.125   0.842   9.920
99101SOL     OW99199   5.578   1.173   4.886
99101SOL    HW199200   5.518   1.173   4.961
99101SOL    HW299201   5.521   1.193   4.811
99102SOL     OW99202   4.502   9.421   1.146
99102SOL    HW199203   4.444   9.347   1.162
99102SOL    HW299204   4.555   9.395   1.071
99103SOL     OW99205   7.335  14.074   7.950
99103SOL    HW199206   7.391  14.109   8.019
99103SOL    HW299207   7.246  14.091   7.982
99104SOL     OW99208   1.670   9.860   1.345
99104SOL    HW199209   1.689   9.948   1.377
99104SOL    HW299210   1.751   9.811   1.359
99105SOL     OW99211  12.068   2.057  11.046
99105SOL    HW199212  12.110   1.972  11.032
99105SOL    HW299213  12.036   2.055  11.136
99106SOL     OW99214   0.659   2.013  13.410
99106SOL    HW199215   0.627   2.047  13.494
99106SOL    HW299216   0.587   1.960  13.377
99107SOL     OW99217  11.077  11.999   8.466
99107SOL    HW199218  11.171  11.988   8.485
99107SOL    HW299219  11.040  12.036   8.546
99108SOL     OW99220  13.233  13.504  11.073
99108SOL    HW199221  13.257  13.414  11.094
99108SOL    HW299222  13.166  13.496  11.005
99109SOL     OW99223   0.273   7.660   8.288
99109SOL    HW199224   0.238   7.574   8.310
99109SOL    HW299225   0.368   7.651   8.297
99110SOL     OW99226  11.094   2.374   0.357
99110SOL    HW199227  11.151   2.407   0.288
99110SOL    HW299228  11.007   2.404   0.333
99111SOL     OW99229   9.052   5.017   4.965
99111SOL    HW199230   9.120   5.060   5.018
99111SOL    HW299231   9.011   5.089   4.917
99112SOL     OW99232   3.051   8.578   8.906
99112SOL    HW199233   3.118   8.599   8.971
99112SOL    HW299234   3.090   8.507   8.855
99113SOL     OW99235  12.916   1.180  13.311
99113SOL    HW199236  13.005   1.144  13.315
99113SOL    HW299237  12.916   1.249  13.378
99114SOL     OW99238  11.265   6.727   0.217
99114SOL    HW199239  11.250   6.808   0.267
99114SOL    HW299240  11.309   6.669   0.279
99115SOL     OW99241   0.002   1.540   1.404
99115SOL    HW199242  14.829   1.455   1.406
99115SOL    HW299243   0.037   1.548   1.315
99116SOL     OW99244  11.966  13.045   3.005
99116SOL    HW199245  12.023  13.023   3.079
99116SOL    HW299246  11.948  12.961   2.963
99117SOL     OW99247   6.264   9.525   7.771
99117SOL    HW199248   6.234   9.609   7.736
99117SOL    HW299249   6.330   9.548   7.837
99118SOL     OW99250   9.238   0.762   7.421
99118SOL    HW199251   9.265   0.852   7.401
99118SOL    HW299252   9.152   0.772   7.462
99119SOL     OW99253  13.475   7.403  13.456
99119SOL    HW199254  13.465   7.447  13.371
99119SOL    HW299255  13.563   7.427  13.486
99120SOL     OW99256  13.527   2.173   1.187
99120SOL    HW199257  13.518   2.084   1.221
99120SOL    HW299258  13.618   2.196   1.206
99121SOL     OW99259   0.600   9.670   0.364
99121SOL    HW199260   0.668   9.614   0.400
99121SOL    HW299261   0.646   9.746   0.329
99122SOL     OW99262   7.221   7.500   7.698
99122SOL    HW199263   7.284   7.559   7.739
99122SOL    HW299264   7.173   7.462   7.772
99123SOL     OW99265   4.169   5.563   9.443
99123SOL    HW199266   4.123   5.514   9.511
99123SOL    HW299267   4.246   5.510   9.423
99124SOL     OW99268  14.468   7.433   3.762
99124SOL    HW199269  14.402   7.368   3.736
99124SOL    HW299270  14.422   7.489   3.825
99125SOL     OW99271   4.212   3.134   2.138
99125SOL    HW199272   4.127   3.096   2.160
99125SOL    HW299273   4.198   3.228   2.144
99126SOL     OW99274   7.517  13.079   1.134
99126SOL    HW199275   7.531  13.034   1.051
99126SOL    HW299276   7.522  13.010   1.200
99127SOL     OW99277  10.413   9.936   6.899
99127SOL    HW199278  10.476   9.878   6.942
99127SOL    HW299279  10.341   9.943   6.961
99128SOL     OW99280  14.005   8.306   6.858
99128SOL    HW199281  13.984   8.382   6.913
99128SOL    HW299282  14.012   8.233   6.920
99129SOL     OW99283   1.198   1.667   9.450
99129SOL    HW199284   1.256   1.743   9.441
99129SOL    HW299285   1.228   1.606   9.382
99130SOL     OW99286   6.949   4.291   4.386
99130SOL    HW199287   7.009   4.314   4.316
99130SOL    HW299288   6.980   4.206   4.417
99131SOL     OW99289   6.354   3.205  11.954
99131SOL    HW199290   6.425   3.155  11.995
99131SOL    HW299291   6.343   3.282  12.010
99132SOL     OW99292  14.690   6.776  11.286
99132SOL    HW199293  14.772   6.819  11.263
99132SOL    HW299294  14.627   6.848  11.297
99133SOL     OW99295   5.830   0.534   0.698
99133SOL    HW199296   5.838   0.464   0.633
99133SOL    HW299297   5.875   0.608   0.658
99134SOL     OW99298   4.715   9.912  12.291
99134SOL    HW199299   4.736   9.990  12.239
99134SOL    HW299300   4.708   9.944  12.381
99135SOL     OW99301   4.325   8.645  13.350
99135SOL    HW199302   4.410   8.637  13.391
99135SOL    HW299303   4.343   8.684  13.264
99136SOL     OW99304  12.209  10.880   8.972
99136SOL    HW199305  12.245  10.959   9.012
99136SOL    HW299306  12.183  10.825   9.047
99137SOL     OW99307   5.276  10.195  12.334
99137SOL    HW199308   5.181  10.209  12.329
99137SOL    HW299309   5.314  10.281  12.317
99138SOL     OW99310   3.547   0.132  10.989
99138SOL    HW199311   3.632   0.141  11.032
99138SOL    HW299312   3.518   0.222  10.973
99139SOL     OW99313   7.632   1.026   7.064
99139SOL    HW199314   7.647   1.120   7.073
99139SOL    HW299315   7.689   0.999   6.992
99140SOL     OW99316  14.004   7.312  11.831
99140SOL    HW199317  13.982   7.256  11.757
99140SOL    HW299318  14.083   7.273  11.869
99141SOL     OW99319   6.048   1.271   9.912
99141SOL    HW199320   6.018   1.204   9.974
99141SOL    HW299321   6.131   1.236   9.878
99142SOL     OW99322   5.479   5.257   1.970
99142SOL    HW199323   5.495   5.335   2.023
99142SOL    HW299324   5.563   5.210   1.970
99143SOL     OW99325   3.473   3.808  10.319
99143SOL    HW199326   3.439   3.726  10.354
99143SOL    HW299327   3.402   3.871  10.332
99144SOL     OW99328  14.364   9.218   2.792
99144SOL    HW199329  14.422   9.244   2.721
99144SOL    HW299330  14.337   9.300   2.833
99145SOL     OW99331   4.717   9.144   6.521
99145SOL    HW199332   4.709   9.236   6.548
99145SOL    HW299333   4.799   9.115   6.560
99146SOL     OW99334  11.694  14.059  10.257
99146SOL    HW199335  11.638  14.118  10.305
99146SOL    HW299336  11.766  14.114  10.225
99147SOL     OW99337   5.193   6.191   8.588
99147SOL    HW199338   5.279   6.208   8.550
99147SOL    HW299339   5.151   6.130   8.527
99148SOL     OW99340   0.407   0.738   1.034
99148SOL    HW199341   0.479   0.797   1.057
99148SOL    HW299342   0.442   0.650   1.048
99149SOL     OW99343   3.863   2.325  10.523
99149SOL    HW199344   3.943   2.376  10.530
99149SOL    HW299345   3.863   2.268  10.599
99150SOL     OW99346   9.336   3.779   9.552
99150SOL    HW199347   9.326   3.861   9.600
99150SOL    HW299348   9.287   3.791   9.471
99151SOL     OW99349   0.624   3.002  14.295
99151SOL    HW199350   0.680   2.969  14.365
99151SOL    HW299351   0.545   3.032  14.340
99152SOL     OW99352   7.704  11.800   5.210
99152SOL    HW199353   7.622  11.849   5.197
99152SOL    HW299354   7.758  11.826   5.135
99153SOL     OW99355  14.314   9.832   5.638
99153SOL    HW199356  14.391   9.856   5.586
99153SOL    HW299357  14.348   9.774   5.706
99154SOL     OW99358   8.057  12.359   3.211
99154SOL    HW199359   8.098  12.347   3.125
99154SOL    HW299360   8.024  12.449   3.209
99155SOL     OW99361   2.785   0.632   8.676
99155SOL    HW199362   2.695   0.663   8.672
99155SOL    HW299363   2.819   0.668   8.758
99156SOL     OW99364  13.138  12.899   1.542
99156SOL    HW199365  13.189  12.974   1.574
99156SOL    HW299366  13.128  12.843   1.619
99157SOL     OW99367   1.605   8.774   0.713
99157SOL    HW199368   1.605   8.700   0.652
99157SOL    HW299369   1.695   8.779   0.745
99158SOL     OW99370   6.654  13.706   9.790
99158SOL    HW199371   6.743  13.729   9.816
99158SOL    HW299372   6.652  13.721   9.695
99159SOL     OW99373   2.949   3.988   5.008
99159SOL    HW199374   2.923   4.046   5.080
99159SOL    HW299375   3.023   3.938   5.043
99160SOL     OW99376   2.978   4.326   9.883
99160SOL    HW199377   3.024   4.357   9.805
99160SOL    HW299378   2.890   4.363   9.874
99161SOL     OW99379   7.564  14.036  13.297
99161SOL    HW199380   7.592  14.096  13.365
99161SOL    HW299381   7.553  14.091  13.219
99162SOL     OW99382   8.900   9.978  12.016
99162SOL    HW199383   8.845   9.910  11.977
99162SOL    HW299384   8.847  10.058  12.009
99163SOL     OW99385   3.837   2.836   3.880
99163SOL    HW199386   3.920   2.808   3.918
99163SOL    HW299387   3.799   2.894   3.947
99164SOL     OW99388  11.207  14.756   3.696
99164SOL    HW199389  11.156  14.742   3.616
99164SOL    HW299390  11.293  14.784   3.664
99165SOL     OW99391   0.654   8.996  10.348
99165SOL    HW199392   0.596   9.073  10.348
99165SOL    HW299393   0.595   8.922  10.362
99166SOL     OW99394   1.657  13.850   0.720
99166SOL    HW199395   1.725  13.783   0.714
99166SOL    HW299396   1.691  13.912   0.785
99167SOL     OW99397  12.428   6.244   9.352
99167SOL    HW199398  12.367   6.214   9.418
99167SOL    HW299399  12.467   6.323   9.389
99168SOL     OW99400   5.402   7.616   8.034
99168SOL    HW199401   5.497   7.617   8.023
99168SOL    HW299402   5.386   7.554   8.106
99169SOL     OW99403   7.011  14.780   3.360
99169SOL    HW199404   6.990   0.002   3.340
99169SOL    HW299405   6.927  14.742   3.387
99170SOL     OW99406  11.201   7.981   7.707
99170SOL    HW199407  11.140   8.017   7.643
99170SOL    HW299408  11.287   7.988   7.665
99171SOL     OW99409  10.934   3.951  10.512
99171SOL    HW199410  11.015   3.902  10.529
99171SOL    HW299411  10.912   3.931  10.421
99172SOL     OW99412  13.233   2.264  10.243
99172SOL    HW199413  13.235   2.291  10.152
99172SOL    HW299414  13.196   2.175  10.241
99173SOL     OW99415   4.991   1.012   3.406
99173SOL    HW199416   5.046   1.076   3.450
99173SOL    HW299417   5.026   1.007   3.317
99174SOL     OW99418  14.640   3.874   3.688
99174SOL    HW199419  14.685   3.818   3.751
99174SOL    HW299420  14.566   3.821   3.659
99175SOL     OW99421   7.059   3.951   5.286
99175SOL    HW199422   7.056   3.939   5.191
99175SOL    HW299423   7.137   4.005   5.300
99176SOL     OW99424  11.395   0.181   6.440
99176SOL    HW199425  11.312   0.147   6.473
99176SOL    HW299426  11.371   0.259   6.389
99177SOL     OW99427  11.477  12.988   3.366
99177SOL    HW199428  11.501  12.944   3.284
99177SOL    HW299429  11.386  13.017   3.352
99178SOL     OW99430  12.741   7.354   7.062
99178SOL    HW199431  12.667   7.299   7.085
99178SOL    HW299432  12.809   7.293   7.032
99179SOL     OW99433  11.619  10.626   3.910
99179SOL    HW199434  11.697  10.598   3.861
99179SOL    HW299435  11.557  10.652   3.842
99180SOL     OW99436   0.750  12.729  12.670
99180SOL    HW199437   0.677  12.703  12.614
99180SOL    HW299438   0.825  12.734  12.610
99181SOL     OW99439   8.912   0.368  13.155
99181SOL    HW199440   8.986   0.308  13.143
99181SOL    HW299441   8.893   0.365  13.248
99182SOL     OW99442   1.887  10.566   9.678
99182SOL    HW199443   1.887  10.554   9.583
99182SOL    HW299444   1.926  10.653   9.691
99183SOL     OW99445   0.490   7.870   6.672
99183SOL    HW199446   0.420   7.816   6.635
99183SOL    HW299447   0.450   7.956   6.685
99184SOL     OW99448  13.055  14.515   3.843
99184SOL    HW199449  13.020  14.539   3.757
99184SOL    HW299450  13.072  14.598   3.887
99185SOL     OW99451   9.424   3.106  14.777
99185SOL    HW199452   9.374   3.041  14.825
99185SOL    HW299453   9.454   3.168  14.843
99186SOL     OW99454   3.091   2.723   1.147
99186SOL    HW199455   3.066   2.631   1.159
99186SOL    HW299456   3.112   2.754   1.235
99187SOL     OW99457   7.083   1.913   3.282
99187SOL    HW199458   7.140   1.899   3.206
99187SOL    HW299459   6.995   1.905   3.247
99188SOL     OW99460   8.897   2.004  14.756
99188SOL    HW199461   8.878   1.972  14.668
99188SOL    HW299462   8.969   2.067  14.742
99189SOL     OW99463   2.825   5.399   8.472
99189SOL    HW199464   2.835   5.486   8.512
99189SOL    HW299465   2.841   5.414   8.379
99190SOL     OW99466   6.958  12.252  13.736
99190SOL    HW199467   6.940  12.180  13.677
99190SOL    HW299468   7.032  12.222  13.789
99191SOL     OW99469  11.951   8.213   5.298
99191SOL    HW199470  11.949   8.263   5.216
99191SOL    HW299471  11.931   8.276   5.366
99192SOL     OW99472   9.740  14.147   4.277
99192SOL    HW199473   9.775  14.103   4.354
99192SOL    HW299474   9.818  14.178   4.231
99193SOL     OW99475   4.211   8.697  11.534
99193SOL    HW199476   4.164   8.689  11.616
99193SOL    HW299477   4.303   8.700  11.559
99194SOL     OW99478  10.588  13.556   7.613
99194SOL    HW199479  10.625  13.583   7.529
99194SOL    HW299480  10.621  13.621   7.676
99195SOL     OW99481   7.434   0.515   5.704
99195SOL    HW199482   7.493   0.446   5.733
99195SOL    HW299483   7.367   0.520   5.772
99196SOL     OW99484   9.016   5.294  10.877
99196SOL    HW199485   8.980   5.208  10.897
99196SOL    HW299486   9.107   5.289  10.906
99197SOL     OW99487   9.287   7.630   5.846
99197SOL    HW199488   9.358   7.647   5.784
99197SOL    HW299489   9.252   7.545   5.818
99198SOL     OW99490   3.307   1.322   6.457
99198SOL    HW199491   3.369   1.263   6.413
99198SOL    HW299492   3.221   1.298   6.421
99199SOL     OW99493  14.538   8.838   8.837
99199SOL    HW199494  14.529   8.926   8.799
99199SOL    HW299495  14.605   8.796   8.783
99200SOL     OW99496   3.345  12.756   4.729
99200SOL    HW199497   3.277  12.763   4.661
99200SOL    HW299498   3.424  12.790   4.687
99201SOL     OW99499   1.961   3.242  12.095
99201SOL    HW199500   1.869   3.236  12.070
99201SOL    HW299501   1.998   3.158  12.071
99202SOL     OW99502   3.325   9.393   3.102
99202SOL    HW199503   3.362   9.330   3.040
99202SOL    HW299504   3.255   9.345   3.146
99203SOL     OW99505   7.168  12.487  12.845
99203SOL    HW199506   7.218  12.499  12.764
99203SOL    HW299507   7.140  12.576  12.869
99204SOL     OW99508  14.382  14.426   6.930
99204SOL    HW199509  14.397  14.381   7.013
99204SOL    HW299510  14.412  14.365   6.863
99205SOL     OW99511   4.339   7.353   4.016
99205SOL    HW199512   4.412   7.403   4.053
99205SOL    HW299513   4.263   7.379   4.068
99206SOL     OW99514  10.035  11.135   8.176
99206SOL    HW199515  10.019  11.048   8.142
99206SOL    HW299516  10.025  11.193   8.101
99207SOL     OW99517  12.512   6.712   3.650
99207SOL    HW199518  12.460   6.636   3.624
99207SOL    HW299519  12.558   6.737   3.569
99208SOL     OW99520   2.824   8.953   9.438
99208SOL    HW199521   2.795   9.033   9.483
99208SOL    HW299522   2.891   8.983   9.378
99209SOL     OW99523  13.164   2.495   7.918
99209SOL    HW199524  13.122   2.422   7.963
99209SOL    HW299525  13.142   2.482   7.825
99210SOL     OW99526   3.293  13.221   0.533
99210SOL    HW199527   3.273  13.253   0.621
99210SOL    HW299528   3.382  13.185   0.541
99211SOL     OW99529   8.984   7.932   8.061
99211SOL    HW199530   8.916   7.967   8.119
99211SOL    HW299531   8.967   7.973   7.976
99212SOL     OW99532   6.712   5.947   6.163
99212SOL    HW199533   6.798   5.914   6.137
99212SOL    HW299534   6.673   5.875   6.213
99213SOL     OW99535   6.219   2.366   2.177
99213SOL    HW199536   6.298   2.416   2.195
99213SOL    HW299537   6.188   2.337   2.263
99214SOL     OW99538   3.448   2.811   1.813
99214SOL    HW199539   3.532   2.855   1.802
99214SOL    HW299540   3.431   2.770   1.728
99215SOL     OW99541   9.315   0.303   9.173
99215SOL    HW199542   9.408   0.318   9.193
99215SOL    HW299543   9.315   0.253   9.092
99216SOL     OW99544   2.416  12.339   2.473
99216SOL    HW199545   2.330  12.311   2.504
99216SOL    HW299546   2.458  12.259   2.441
99217SOL     OW99547   8.951  12.912   5.185
99217SOL    HW199548   8.889  12.971   5.141
99217SOL    HW299549   8.999  12.870   5.113
99218SOL     OW99550   3.217   0.496  10.504
99218SOL    HW199551   3.218   0.499  10.408
99218SOL    HW299552   3.143   0.441  10.525
99219SOL     OW99553  11.704   2.949   2.041
99219SOL    HW199554  11.631   2.897   2.072
99219SOL    HW299555  11.771   2.885   2.016
99220SOL     OW99556   1.934  13.339   6.133
99220SOL    HW199557   1.911  13.369   6.221
99220SOL    HW299558   1.851  13.312   6.094
99221SOL     OW99559   0.577   7.273   3.429
99221SOL    HW199560   0.564   7.272   3.334
99221SOL    HW299561   0.489   7.281   3.465
99222SOL     OW99562   1.634  12.691   4.797
99222SOL    HW199563   1.690  12.614   4.786
99222SOL    HW299564   1.636  12.734   4.711
99223SOL     OW99565  13.907  12.971  13.555
99223SOL    HW199566  13.821  13.014  13.553
99223SOL    HW299567  13.945  12.997  13.640
99224SOL     OW99568   5.208   4.068  10.502
99224SOL    HW199569   5.139   4.005  10.481
99224SOL    HW299570   5.165   4.134  10.556
99225SOL     OW99571   0.712  12.808  14.300
99225SOL    HW199572   0.701  12.876  14.366
99225SOL    HW299573   0.651  12.831  14.230
99226SOL     OW99574  11.329   8.421   4.219
99226SOL    HW199575  11.246   8.462   4.243
99226SOL    HW299576  11.320   8.331   4.250
99227SOL     OW99577  12.992   4.416   7.293
99227SOL    HW199578  12.901   4.443   7.286
99227SOL    HW299579  13.040   4.477   7.235
99228SOL     OW99580   5.510  10.526   2.459
99228SOL    HW199581   5.433  10.475   2.484
99228SOL    HW299582   5.584  10.479   2.497
99229SOL     OW99583  11.857  10.686   4.688
99229SOL    HW199584  11.917  10.708   4.759
99229SOL    HW299585  11.855  10.590   4.687
99230SOL     OW99586   4.398   7.172   3.763
99230SOL    HW199587   4.349   7.183   3.845
99230SOL    HW299588   4.332   7.182   3.695
99231SOL     OW99589   6.142   8.139  11.913
99231SOL    HW199590   6.106   8.204  11.973
99231SOL    HW299591   6.077   8.069  11.911
99232SOL     OW99592  13.829  10.907  10.410
99232SOL    HW199593  13.883  10.838  10.450
99232SOL    HW299594  13.743  10.866  10.399
99233SOL     OW99595   5.474  10.198   1.565
99233SOL    HW199596   5.555  10.242   1.593
99233SOL    HW299597   5.468  10.217   1.471
99234SOL     OW99598   8.215   3.988  10.436
99234SOL    HW199599   8.310   3.981  10.452
99234SOL    HW299600   8.200   4.081  10.423
99235SOL     OW99601   7.940  12.932   7.911
99235SOL    HW199602   8.005  12.969   7.852
99235SOL    HW299603   7.955  12.977   7.994
99236SOL     OW99604  11.798   3.601   6.625
99236SOL    HW199605  11.884   3.573   6.659
99236SOL    HW299606  11.737   3.582   6.696
99237SOL     OW99607  10.760   9.184  10.049
99237SOL    HW199608  10.712   9.190  10.132
99237SOL    HW299609  10.692   9.185   9.982
99238SOL     OW99610  14.082  12.206   6.571
99238SOL    HW199611  14.098  12.150   6.495
99238SOL    HW299612  14.142  12.174   6.638
99239SOL     OW99613   1.249   6.072   4.882
99239SOL    HW199614   1.186   6.055   4.813
99239SOL    HW299615   1.252   6.167   4.890
99240SOL     OW99616  14.377   0.752   5.341
99240SOL    HW199617  14.339   0.664   5.342
99240SOL    HW299618  14.366   0.784   5.431
99241SOL     OW99619   9.235   0.407  12.594
99241SOL    HW199620   9.208   0.341  12.658
99241SOL    HW299621   9.154   0.437  12.554
99242SOL     OW99622   6.570   6.518   5.546
99242SOL    HW199623   6.633   6.446   5.539
99242SOL    HW299624   6.599   6.568   5.622
99243SOL     OW99625   0.686   4.760   1.809
99243SOL    HW199626   0.596   4.754   1.778
99243SOL    HW299627   0.679   4.752   1.904
99244SOL     OW99628  13.907   8.419   7.389
99244SOL    HW199629  13.899   8.341   7.334
99244SOL    HW299630  13.901   8.492   7.328
99245SOL     OW99631   7.951   5.565   5.466
99245SOL    HW199632   7.923   5.613   5.544
99245SOL    HW299633   7.887   5.494   5.457
99246SOL     OW99634   6.096   7.082  12.221
99246SOL    HW199635   6.046   7.130  12.155
99246SOL    HW299636   6.075   6.990  12.206
99247SOL     OW99637  11.066   8.550   4.180
99247SOL    HW199638  11.071   8.503   4.096
99247SOL    HW299639  11.046   8.483   4.244
99248SOL     OW99640  11.369   1.477   7.937
99248SOL    HW199641  11.389   1.534   7.863
99248SOL    HW299642  11.303   1.417   7.903
99249SOL     OW99643   0.496  12.928   9.870
99249SOL    HW199644   0.474  12.981   9.947
99249SOL    HW299645   0.507  12.840   9.904
99250SOL     OW99646  14.054  14.145   7.513
99250SOL    HW199647  14.040  14.137   7.419
99250SOL    HW299648  14.017  14.066   7.551
99251SOL     OW99649   3.527   3.457  11.442
99251SOL    HW199650   3.505   3.511  11.517
99251SOL    HW299651   3.537   3.519  11.369
99252SOL     OW99652   5.600   4.642   0.388
99252SOL    HW199653   5.628   4.551   0.381
99252SOL    HW299654   5.622   4.680   0.303
99253SOL     OW99655   3.772  11.614   0.987
99253SOL    HW199656   3.736  11.525   0.981
99253SOL    HW299657   3.751  11.642   1.076
99254SOL     OW99658   4.131   5.480  14.674
99254SOL    HW199659   4.117   5.397  14.719
99254SOL    HW299660   4.202   5.522  14.722
99255SOL     OW99661  11.388   7.062   5.734
99255SOL    HW199662  11.293   7.072   5.744
99255SOL    HW299663  11.403   7.074   5.640
99256SOL     OW99664   4.371   7.805   4.266
99256SOL    HW199665   4.325   7.723   4.285
99256SOL    HW299666   4.350   7.823   4.174
99257SOL     OW99667   8.495   2.846   3.113
99257SOL    HW199668   8.567   2.821   3.056
99257SOL    HW299669   8.529   2.919   3.165
99258SOL     OW99670  13.510  14.826   7.875
99258SOL    HW199671  13.446   0.022   7.849
99258SOL    HW299672  13.473  14.743   7.846
99259SOL     OW99673   5.462   4.788   1.579
99259SOL    HW199674   5.401   4.717   1.555
99259SOL    HW299675   5.521   4.794   1.504
99260SOL     OW99676   0.706   6.531  13.249
99260SOL    HW199677   0.624   6.498  13.287
99260SOL    HW299678   0.760   6.553  13.324
99261SOL     OW99679   3.463   1.501  13.981
99261SOL    HW199680   3.490   1.476  13.893
99261SOL    HW299681   3.508   1.583  13.998
99262SOL     OW99682   6.182  12.445   0.450
99262SOL    HW199683   6.213  12.359   0.477
99262SOL    HW299684   6.244  12.473   0.383
99263SOL     OW99685   5.738   3.787  13.724
99263SOL    HW199686   5.780   3.838  13.655
99263SOL    HW299687   5.664   3.840  13.752
99264SOL     OW99688  14.532  11.349   1.607
99264SOL    HW199689  14.610  11.302   1.637
99264SOL    HW299690  14.530  11.429   1.660
99265SOL     OW99691   5.571   4.611  13.767
99265SOL    HW199692   5.479   4.635  13.760
99265SOL    HW299693   5.592   4.571  13.682
99266SOL     OW99694  12.809   9.048   3.146
99266SOL    HW199695  12.866   8.986   3.100
99266SOL    HW299696  12.848   9.134   3.129
99267SOL     OW99697   2.740   7.768   5.441
99267SOL    HW199698   2.831   7.786   5.417
99267SOL    HW299699   2.702   7.732   5.361
99268SOL     OW99700  14.410   7.128   7.670
99268SOL    HW199701  14.464   7.051   7.651
99268SOL    HW299702  14.327   7.111   7.627
99269SOL     OW99703   5.359  13.022   1.039
99269SOL    HW199704   5.410  13.096   1.072
99269SOL    HW299705   5.390  12.947   1.089
99270SOL     OW99706   8.648   0.277   9.099
99270SOL    HW199707   8.555   0.275   9.121
99270SOL    HW299708   8.686   0.340   9.161
99271SOL     OW99709   5.884  10.785  11.528
99271SOL    HW199710   5.794  10.754  11.539
99271SOL    HW299711   5.932  10.708  11.498
99272SOL     OW99712  11.603   4.382  13.068
99272SOL    HW199713  11.523   4.382  13.016
99272SOL    HW299714  11.583   4.435  13.145
99273SOL     OW99715  14.770   1.008   5.762
99273SOL    HW199716  14.707   0.964   5.706
99273SOL    HW299717  14.733   1.002   5.850
99274SOL     OW99718  11.278  11.807   3.514
99274SOL    HW199719  11.290  11.824   3.608
99274SOL    HW299720  11.185  11.819   3.499
99275SOL     OW99721  10.181   3.653   9.256
99275SOL    HW199722  10.140   3.675   9.339
99275SOL    HW299723  10.127   3.696   9.190
99276SOL     OW99724   0.643   2.386  10.884
99276SOL    HW199725   0.586   2.374  10.808
99276SOL    HW299726   0.731   2.374  10.850
99277SOL     OW99727  10.801  10.555   6.140
99277SOL    HW199728  10.869  10.622   6.142
99277SOL    HW299729  10.720  10.603   6.123
99278SOL     OW99730  10.855   4.217  13.388
99278SOL    HW199731  10.903   4.155  13.333
99278SOL    HW299732  10.909   4.297  13.386
99279SOL     OW99733  14.499   2.526   2.784
99279SOL    HW199734  14.506   2.440   2.744
99279SOL    HW299735  14.445   2.577   2.724
99280SOL     OW99736  13.836   0.885   8.585
99280SOL    HW199737  13.843   0.827   8.661
99280SOL    HW299738  13.747   0.871   8.553
99281SOL     OW99739   9.540   9.080   5.633
99281SOL    HW199740   9.636   9.078   5.636
99281SOL    HW299741   9.515   9.126   5.713
99282SOL     OW99742   0.876   7.107   6.323
99282SOL    HW199743   0.960   7.137   6.285
99282SOL    HW299744   0.827   7.073   6.248
99283SOL     OW99745   4.981   6.670   0.779
99283SOL    HW199746   4.890   6.684   0.805
99283SOL    HW299747   5.006   6.588   0.822
99284SOL     OW99748   2.285   5.437   0.507
99284SOL    HW199749   2.252   5.420   0.595
99284SOL    HW299750   2.261   5.359   0.457
99285SOL     OW99751   3.534  12.979   8.645
99285SOL    HW199752   3.463  12.956   8.705
99285SOL    HW299753   3.493  12.985   8.559
99286SOL     OW99754   2.840  12.044  11.782
99286SOL    HW199755   2.822  11.983  11.854
99286SOL    HW299756   2.759  12.092  11.770
99287SOL     OW99757   9.268  12.090  11.488
99287SOL    HW199758   9.256  12.144  11.566
99287SOL    HW299759   9.300  12.006  11.522
99288SOL     OW99760   2.110  12.177   9.150
99288SOL    HW199761   2.135  12.107   9.211
99288SOL    HW299762   2.104  12.134   9.065
99289SOL     OW99763   1.702  12.813   7.688
99289SOL    HW199764   1.687  12.892   7.741
99289SOL    HW299765   1.642  12.748   7.725
99290SOL     OW99766   8.345  12.100  11.773
99290SOL    HW199767   8.347  12.073  11.681
99290SOL    HW299768   8.257  12.135  11.786
99291SOL     OW99769   4.720   0.472   8.109
99291SOL    HW199770   4.635   0.496   8.073
99291SOL    HW299771   4.781   0.535   8.072
99292SOL     OW99772   5.885   4.659   0.044
99292SOL    HW199773   5.937   4.613   0.111
99292SOL    HW299774   5.878   4.597  14.841
99293SOL     OW99775   7.360  10.204   3.290
99293SOL    HW199776   7.406  10.177   3.211
99293SOL    HW299777   7.268  10.184   3.273
99294SOL     OW99778   1.342  11.107   6.134
99294SOL    HW199779   1.259  11.122   6.088
99294SOL    HW299780   1.394  11.185   6.115
99295SOL     OW99781   9.316   5.460  13.300
99295SOL    HW199782   9.260   5.480  13.375
99295SOL    HW299783   9.271   5.388  13.255
99296SOL     OW99784  14.255  11.810  12.299
99296SOL    HW199785  14.334  11.859  12.275
99296SOL    HW299786  14.238  11.755  12.223
99297SOL     OW99787   9.636   2.419   2.446
99297SOL    HW199788   9.616   2.503   2.489
99297SOL    HW299789   9.566   2.408   2.382
99298SOL     OW99790   2.710   4.257   9.031
99298SOL    HW199791   2.740   4.286   9.116
99298SOL    HW299792   2.775   4.192   9.003
99299SOL     OW99793   4.218  12.168   7.920
99299SOL    HW199794   4.300  12.214   7.900
99299SOL    HW299795   4.170  12.228   7.977
99300SOL     OW99796   9.949  10.187  14.858
99300SOL    HW199797   9.920  10.113  14.805
99300SOL    HW299798  10.042  10.196  14.838
99301SOL     OW99799  10.465   5.014  13.140
99301SOL    HW199800  10.495   5.070  13.069
99301SOL    HW299801  10.543   4.966  13.168
99302SOL     OW99802   5.373   9.915   5.154
99302SOL    HW199803   5.467   9.895   5.150
99302SOL    HW299804   5.369  10.010   5.149
99303SOL     OW99805   1.924   7.663  13.137
99303SOL    HW199806   1.989   7.655  13.067
99303SOL    HW299807   1.860   7.594  13.119
99304SOL     OW99808   0.591   7.356  11.257
99304SOL    HW199809   0.500   7.329  11.242
99304SOL    HW299810   0.606   7.426  11.193
99305SOL     OW99811  10.510  10.034   3.834
99305SOL    HW199812  10.494  10.122   3.800
99305SOL    HW299813  10.606  10.025   3.831
99306SOL     OW99814   7.747   4.042   0.072
99306SOL    HW199815   7.684   3.970   0.077
99306SOL    HW299816   7.696   4.121   0.089
99307SOL     OW99817  13.553   1.653  11.503
99307SOL    HW199818  13.564   1.710  11.427
99307SOL    HW299819  13.590   1.703  11.576
99308SOL     OW99820   8.098   6.779   1.006
99308SOL    HW199821   8.162   6.722   1.049
99308SOL    HW299822   8.150   6.850   0.968
99309SOL     OW99823   0.118  13.793   4.905
99309SOL    HW199824   0.137  13.848   4.829
99309SOL    HW299825   0.185  13.816   4.969
99310SOL     OW99826  14.141   9.038   3.091
99310SOL    HW199827  14.152   8.963   3.149
99310SOL    HW299828  14.212   9.031   3.028
99311SOL     OW99829   7.303   2.664  13.663
99311SOL    HW199830   7.322   2.583  13.711
99311SOL    HW299831   7.236   2.708  13.716
99312SOL     OW99832  14.341   5.977   6.030
99312SOL    HW199833  14.364   5.900   6.081
99312SOL    HW299834  14.419   6.033   6.036
99313SOL     OW99835   4.517  13.671  11.251
99313SOL    HW199836   4.477  13.590  11.220
99313SOL    HW299837   4.444  13.722  11.287
99314SOL     OW99838   6.293   9.729   7.356
99314SOL    HW199839   6.266   9.710   7.266
99314SOL    HW299840   6.378   9.685   7.366
99315SOL     OW99841   4.332  11.917   3.129
99315SOL    HW199842   4.258  11.929   3.070
99315SOL    HW299843   4.292  11.892   3.212
99316SOL     OW99844   5.897   9.413   5.240
99316SOL    HW199845   5.940   9.406   5.325
99316SOL    HW299846   5.953   9.362   5.181
99317SOL     OW99847  11.171  13.781   2.243
99317SOL    HW199848  11.178  13.742   2.331
99317SOL    HW299849  11.168  13.875   2.259
99318SOL     OW99850   9.694  11.555   9.458
99318SOL    HW199851   9.755  11.613   9.412
99318SOL    HW299852   9.658  11.609   9.528
99319SOL     OW99853   5.837   2.526   5.983
99319SOL    HW199854   5.752   2.486   6.002
99319SOL    HW299855   5.825   2.567   5.897
99320SOL     OW99856   1.549   5.199   6.481
99320SOL    HW199857   1.537   5.259   6.556
99320SOL    HW299858   1.468   5.148   6.479
99321SOL     OW99859   7.406   7.300   4.285
99321SOL    HW199860   7.498   7.307   4.259
99321SOL    HW299861   7.380   7.389   4.306
99322SOL     OW99862  13.491   6.493   9.024
99322SOL    HW199863  13.485   6.503   9.119
99322SOL    HW299864  13.575   6.533   9.001
99323SOL     OW99865   2.996  12.434   2.629
99323SOL    HW199866   2.927  12.368   2.620
99323SOL    HW299867   3.062  12.409   2.564
99324SOL     OW99868  11.657   0.022   7.017
99324SOL    HW199869  11.751   0.009   7.016
99324SOL    HW299870  11.646   0.116   7.027
99325SOL     OW99871   9.425  14.107   9.300
99325SOL    HW199872   9.496  14.153   9.346
99325SOL    HW299873   9.452  14.015   9.300
99326SOL     OW99874   6.345   2.891  13.255
99326SOL    HW199875   6.339   2.800  13.226
99326SOL    HW299876   6.433   2.898  13.291
99327SOL     OW99877   2.445   6.430   3.160
99327SOL    HW199878   2.434   6.362   3.227
99327SOL    HW299879   2.418   6.511   3.202
99328SOL     OW99880   3.727   5.659  14.190
99328SOL    HW199881   3.754   5.722  14.258
99328SOL    HW299882   3.638   5.633  14.215
99329SOL     OW99883   2.566   3.767  12.411
99329SOL    HW199884   2.639   3.713  12.441
99329SOL    HW299885   2.570   3.762  12.315
99330SOL     OW99886   5.876  12.503  12.202
99330SOL    HW199887   5.954  12.532  12.154
99330SOL    HW299888   5.847  12.580  12.250
99331SOL     OW99889   6.321  10.290   8.381
99331SOL    HW199890   6.328  10.224   8.451
99331SOL    HW299891   6.288  10.368   8.425
99332SOL     OW99892  11.863   7.236   5.582
99332SOL    HW199893  11.941   7.281   5.612
99332SOL    HW299894  11.809   7.304   5.542
99333SOL     OW99895   7.513  14.633   6.516
99333SOL    HW199896   7.481  14.685   6.442
99333SOL    HW299897   7.450  14.561   6.524
99334SOL     OW99898   3.831   9.930   7.492
99334SOL    HW199899   3.852   9.937   7.399
99334SOL    HW299900   3.857   9.841   7.516
99335SOL     OW99901   7.271   9.483  14.040
99335SOL    HW199902   7.317   9.403  14.068
99335SOL    HW299903   7.340   9.543  14.015
99336SOL     OW99904  14.802  14.574   8.986
99336SOL    HW199905  14.780  14.481   8.980
99336SOL    HW299906   0.001  14.578   9.054
99337SOL     OW99907   7.557   4.696   7.505
99337SOL    HW199908   7.588   4.780   7.473
99337SOL    HW299909   7.481   4.718   7.559
99338SOL     OW99910  12.112   1.904   1.025
99338SOL    HW199911  12.203   1.926   1.043
99338SOL    HW299912  12.073   1.987   0.996
99339SOL     OW99913  13.803   5.960   3.210
99339SOL    HW199914  13.818   5.970   3.304
99339SOL    HW299915  13.890   5.947   3.173
99340SOL     OW99916   9.673   5.864   1.386
99340SOL    HW199917   9.730   5.799   1.347
99340SOL    HW299918   9.707   5.876   1.475
99341SOL     OW99919   9.058   7.818   1.489
99341SOL    HW199920   9.010   7.788   1.412
99341SOL    HW299921   9.121   7.748   1.507
99342SOL     OW99922   4.631  11.595   8.405
99342SOL    HW199923   4.717  11.557   8.390
99342SOL    HW299924   4.628  11.670   8.346
99343SOL     OW99925   3.572   1.998   4.703
99343SOL    HW199926   3.666   2.016   4.703
99343SOL    HW299927   3.563   1.919   4.756
99344SOL     OW99928   8.719   9.263   2.813
99344SOL    HW199929   8.689   9.348   2.844
99344SOL    HW299930   8.668   9.246   2.734
99345SOL     OW99931   2.818   7.472   0.999
99345SOL    HW199932   2.863   7.391   0.975
99345SOL    HW299933   2.886   7.539   0.999
99346SOL     OW99934  10.990   5.517   7.683
99346SOL    HW199935  10.945   5.433   7.678
99346SOL    HW299936  10.964   5.563   7.603
99347SOL     OW99937   9.015  10.834   0.041
99347SOL    HW199938   9.095  10.865  14.869
99347SOL    HW299939   9.032  10.742   0.062
99348SOL     OW99940   5.214   6.815   5.739
99348SOL    HW199941   5.141   6.849   5.687
99348SOL    HW299942   5.277   6.783   5.674
99349SOL     OW99943  14.747   6.741   8.993
99349SOL    HW199944  14.715   6.683   9.063
99349SOL    HW299945  14.763   6.824   9.037
99350SOL     OW99946   5.277   8.020   7.687
99350SOL    HW199947   5.183   8.018   7.700
99350SOL    HW299948   5.312   8.057   7.768
99351SOL     OW99949   5.685   4.799   4.950
99351SOL    HW199950   5.734   4.849   4.885
99351SOL    HW299951   5.620   4.751   4.900
99352SOL     OW99952  12.428  12.949  11.622
99352SOL    HW199953  12.495  12.970  11.687
99352SOL    HW299954  12.345  12.968  11.665
99353SOL     OW99955  10.308   5.913   8.701
99353SOL    HW199956  10.269   5.895   8.616
99353SOL    HW299957  10.286   6.005   8.718
99354SOL     OW99958  14.815   1.597   8.383
99354SOL    HW199959  14.790   1.504   8.388
99354SOL    HW299960   0.040   1.597   8.391
99355SOL     OW99961  13.718   9.594  13.808
99355SOL    HW199962  13.712   9.499  13.799
99355SOL    HW299963  13.639   9.619  13.856
99356SOL     OW99964   6.121  12.669   1.729
99356SOL    HW199965   6.132  12.695   1.820
99356SOL    HW299966   6.085  12.747   1.686
99357SOL     OW99967   8.635  12.320  11.839
99357SOL    HW199968   8.659  12.228  11.834
99357SOL    HW299969   8.715  12.364  11.868
99358SOL     OW99970   8.064  10.332   9.073
99358SOL    HW199971   8.105  10.310   8.990
99358SOL    HW299972   8.121  10.291   9.139
99359SOL     OW99973   0.547  12.774  13.765
99359SOL    HW199974   0.605  12.729  13.827
99359SOL    HW299975   0.514  12.849  13.814
99360SOL     OW99976   6.934  12.339   3.276
99360SOL    HW199977   7.016  12.289   3.270
99360SOL    HW299978   6.927  12.384   3.192
99361SOL     OW99979  10.685  11.820   2.197
99361SOL    HW199980  10.611  11.804   2.138
99361SOL    HW299981  10.717  11.733   2.221
99362SOL     OW99982   2.705   6.094   8.395
99362SOL    HW199983   2.760   6.164   8.358
99362SOL    HW299984   2.687   6.123   8.485
99363SOL     OW99985  11.033   6.159  11.138
99363SOL    HW199986  10.954   6.198  11.174
99363SOL    HW299987  11.048   6.082  11.192
99364SOL     OW99988   7.041  12.101   7.019
99364SOL    HW199989   6.968  12.045   7.047
99364SOL    HW299990   7.056  12.159   7.093
99365SOL     OW99991   9.736   3.477   6.470
99365SOL    HW199992   9.700   3.542   6.408
99365SOL    HW299993   9.828   3.501   6.479
99366SOL     OW99994   6.024  13.065  13.424
99366SOL    HW199995   5.966  13.012  13.479
99366SOL    HW299996   6.097  13.087  13.482
99367SOL     OW99997  12.840   9.855  12.529
99367SOL    HW199998  12.808   9.892  12.611
99367SOL    HW299999  12.788   9.899  12.461
99368SOL     OW    0  13.484   6.787  14.009
99368SOL    HW1    1  13.457   6.701  14.041
99368SOL    HW2    2  13.419   6.808  13.942
99369SOL     OW    3   1.353  11.775   3.114
99369SOL    HW1    4   1.346  11.836   3.187
99369SOL    HW2    5   1.327  11.690   3.150
99370SOL     OW    6  14.412  13.164   7.230
99370SOL    HW1    7  14.477  13.232   7.246
99370SOL    HW2    8  14.416  13.149   7.135
99371SOL     OW    9   4.489   3.006   8.740
99371SOL    HW1   10   4.570   3.056   8.740
99371SOL    HW2   11   4.496   2.950   8.662
99372SOL     OW   12   9.897   4.072  11.752
99372SOL    HW1   13   9.818   4.017  11.754
99372SOL    HW2   14   9.904   4.101  11.661
99373SOL     OW   15   9.911   4.958   9.646
99373SOL    HW1   16   9.932   5.018   9.717
99373SOL    HW2   17   9.826   4.922   9.670
99374SOL     OW   18   3.362   0.738   4.150
99374SOL    HW1   19   3.350   0.737   4.056
99374SOL    HW2   20   3.313   0.814   4.181
99375SOL     OW   21  11.452   9.415   6.996
99375SOL    HW1   22  11.424   9.343   6.940
99375SOL    HW2   23  11.492   9.373   7.072
99376SOL     OW   24   2.243  13.383   9.296
99376SOL    HW1   25   2.312  13.332   9.337
99376SOL    HW2   26   2.163  13.333   9.311
99377SOL     OW   27  11.445   9.682   2.517
99377SOL    HW1   28  11.430   9.643   2.432
99377SOL    HW2   29  11.533   9.652   2.543
99378SOL     OW   30   2.861  12.197   1.803
99378SOL    HW1   31   2.826  12.171   1.889
99378SOL    HW2   32   2.910  12.277   1.821
99379SOL     OW   33   6.762  11.775   7.275
99379SOL    HW1   34   6.733  11.719   7.203
99379SOL    HW2   35   6.698  11.759   7.345
99380SOL     OW   36  14.488  12.619   8.141
99380SOL    HW1   37  14.472  12.641   8.049
99380SOL    HW2   38  14.405  12.581   8.171
99381SOL     OW   39  11.376  13.292   0.972
99381SOL    HW1   40  11.295  13.333   0.941
99381SOL    HW2   41  11.445  13.352   0.947
99382SOL     OW   42   7.990   7.301   2.472
99382SOL    HW1   43   7.945   7.382   2.446
99382SOL    HW2   44   7.998   7.307   2.567
99383SOL     OW   45  10.382   9.198  10.697
99383SOL    HW1   46  10.441   9.209  10.622
99383SOL    HW2   47  10.354   9.287  10.719
99384SOL     OW   48   5.568   6.454   3.373
99384SOL    HW1   49   5.577   6.519   3.443
99384SOL    HW2   50   5.480   6.419   3.384
99385SOL     OW   51   4.878   8.068   2.903
99385SOL    HW1   52   4.906   8.159   2.901
99385SOL    HW2   53   4.921   8.031   2.980
99386SOL     OW   54  10.705  12.525   9.938
99386SOL    HW1   55  10.667  12.473   9.868
99386SOL    HW2   56  10.646  12.512  10.012
99387SOL     OW   57   7.621   7.191   0.057
99387SOL    HW1   58   7.564   7.159  14.857
99387SOL    HW2   59   7.601   7.284   0.063
99388SOL     OW   60   4.884   5.717  10.514
99388SOL    HW1   61   4.896   5.802  10.557
99388SOL    HW2   62   4.789   5.705  10.511
99389SOL     OW   63   0.732   4.003   6.820
99389SOL    HW1   64   0.756   3.911   6.828
99389SOL    HW2   65   0.812   4.047   6.791
99390SOL     OW   66  13.159  10.626   0.085
99390SOL    HW1   67  13.184  10.575   0.162
99390SOL    HW2   68  13.064  10.637   0.094
99391SOL     OW   69  10.242  11.288   8.296
99391SOL    HW1   70  10.259  11.372   8.253
99391SOL    HW2   71  10.178  11.244   8.239
99392SOL     OW   72   1.828   3.192  12.340
99392SOL    HW1   73   1.905   3.216  12.289
99392SOL    HW2   74   1.832   3.096  12.344
99393SOL     OW   75   8.229  12.543   6.631
99393SOL    HW1   76   8.162  12.485   6.669
99393SOL    HW2   77   8.282  12.486   6.575
99394SOL     OW   78   3.562   3.042   1.478
99394SOL    HW1   79   3.554   3.107   1.408
99394SOL    HW2   80   3.478   2.996   1.477
99395SOL     OW   81   4.747   4.861   3.582
99395SOL    HW1   82   4.738   4.951   3.612
99395SOL    HW2   83   4.699   4.858   3.500
99396SOL     OW   84   3.639   2.916   9.787
99396SOL    HW1   85   3.614   3.009   9.781
99396SOL    HW2   86   3.562   2.869   9.755
99397SOL     OW   87   1.027   7.759   5.330
99397SOL    HW1   88   1.029   7.678   5.280
99397SOL    HW2   89   1.027   7.828   5.264
99398SOL     OW   90  13.693   2.316   4.851
99398SOL    HW1   91  13.598   2.303   4.859
99398SOL    HW2   92  13.714   2.377   4.923
99399SOL     OW   93  11.875  11.580  13.561
99399SOL    HW1   94  11.952  11.623  13.523
99399SOL    HW2   95  11.852  11.512  13.498
99400SOL     OW   96  12.095   3.994   1.305
99400SOL    HW1   97  12.138   4.075   1.279
99400SOL    HW2   98  12.039   4.019   1.378
99401SOL     OW   99  13.369  11.510   0.364
99401SOL    HW1  100  13.351  11.499   0.458
99401SOL    HW2  101  13.329  11.594   0.342
99402SOL     OW  102  11.884   8.365   5.095
99402SOL    HW1  103  11.871   8.448   5.140
99402SOL    HW2  104  11.872   8.387   5.002
99403SOL     OW  105   0.291   0.435  12.416
99403SOL    HW1  106   0.285   0.527  12.441
99403SOL    HW2  107   0.381   0.410  12.434
99404SOL     OW  108   4.177   0.638   9.427
99404SOL    HW1  109   4.128   0.689   9.491
99404SOL    HW2  110   4.119   0.565   9.405
99405SOL     OW  111  14.836  13.930   3.287
99405SOL    HW1  112   0.062  13.945   3.287
99405SOL    HW2  113  14.824  13.854   3.231
99406SOL     OW  114  14.746   5.113  13.117
99406SOL    HW1  115  14.739   5.136  13.024
99406SOL    HW2  116  14.828   5.064  13.123
99407SOL     OW  117   0.463   9.591   9.224
99407SOL    HW1  118   0.385   9.646   9.232
99407SOL    HW2  119   0.433   9.504   9.251
99408SOL     OW  120   9.613  12.216   1.331
99408SOL    HW1  121   9.692  12.169   1.357
99408SOL    HW2  122   9.593  12.183   1.244
99409SOL     OW  123  10.064   4.055   6.957
99409SOL    HW1  124  10.034   3.986   6.897
99409SOL    HW2  125   9.984   4.094   6.992
99410SOL     OW  126  14.183  10.733   6.571
99410SOL    HW1  127  14.272  10.721   6.606
99410SOL    HW2  128  14.144  10.799   6.627
99411SOL     OW  129  14.172   8.929   0.903
99411SOL    HW1  130  14.200   8.981   0.979
99411SOL    HW2  131  14.144   8.994   0.838
99412SOL     OW  132  10.795   6.118   8.874
99412SOL    HW1  133  10.776   6.025   8.884
99412SOL    HW2  134  10.710   6.159   8.858
99413SOL     OW  135   5.518   0.022   1.112
99413SOL    HW1  136   5.534  14.797   1.114
99413SOL    HW2  137   5.448   0.036   1.177
99414SOL     OW  138   3.523   6.418  10.377
99414SOL    HW1  139   3.500   6.461  10.459
99414SOL    HW2  140   3.484   6.473  10.309
99415SOL     OW  141   4.729   2.988   1.123
99415SOL    HW1  142   4.745   2.916   1.062
99415SOL    HW2  143   4.754   3.067   1.075
99416SOL     OW  144   3.345   2.193   9.349
99416SOL    HW1  145   3.309   2.282   9.341
99416SOL    HW2  146   3.272   2.141   9.383
99417SOL     OW  147   8.941  12.758  14.098
99417SOL    HW1  148   8.989  12.834  14.066
99417SOL    HW2  149   8.965  12.750  14.190
99418SOL     OW  150   1.643   3.566  10.152
99418SOL    HW1  151   1.565   3.561  10.096
99418SOL    HW2  152   1.608   3.576  10.241
99419SOL     OW  153   0.194  10.533   4.784
99419SOL    HW1  154   0.125  10.518   4.849
99419SOL    HW2  155   0.203  10.448   4.740
99420SOL     OW  156   6.090   2.732   0.966
99420SOL    HW1  157   6.032   2.678   1.019
99420SOL    HW2  158   6.054   2.726   0.877
99421SOL     OW  159   8.567   4.130   9.470
99421SOL    HW1  160   8.537   4.130   9.379
99421SOL    HW2  161   8.636   4.197   9.473
99422SOL     OW  162   7.051  10.487   4.596
99422SOL    HW1  163   7.140  10.451   4.590
99422SOL    HW2  164   7.050  10.559   4.533
99423SOL     OW  165  12.816  14.307   8.923
99423SOL    HW1  166  12.904  14.317   8.887
99423SOL    HW2  167  12.804  14.213   8.932
99424SOL     OW  168   7.304   1.005   4.096
99424SOL    HW1  169   7.259   1.008   4.181
99424SOL    HW2  170   7.233   1.003   4.032
99425SOL     OW  171  12.498  14.137   0.671
99425SOL    HW1  172  12.589  14.133   0.698
99425SOL    HW2  173  12.448  14.118   0.750
99426SOL     OW  174   1.922   8.176   4.675
99426SOL    HW1  175   1.976   8.157   4.599
99426SOL    HW2  176   1.944   8.266   4.699
99427SOL     OW  177   8.379  11.566  12.801
99427SOL    HW1  178   8.324  11.615  12.862
99427SOL    HW2  179   8.380  11.477  12.837
99428SOL     OW  180  11.570   0.086  10.498
99428SOL    HW1  181  11.541   0.164  10.545
99428SOL    HW2  182  11.506   0.075  10.427
99429SOL     OW  183   8.873   4.085   3.678
99429SOL    HW1  184   8.933   4.131   3.618
99429SOL    HW2  185   8.837   4.014   3.626
99430SOL     OW  186   0.886   1.928   5.823
99430SOL    HW1  187   0.936   1.902   5.746
99430SOL    HW2  188   0.803   1.960   5.789
99431SOL     OW  189  13.792  12.709   4.878
99431SOL    HW1  190  13.851  12.721   4.805
99431SOL    HW2  191  13.840  12.741   4.954
99432SOL     OW  192  11.611  11.104  13.803
99432SOL    HW1  193  11.604  11.054  13.884
99432SOL    HW2  194  11.601  11.039  13.733
99433SOL     OW  195   1.696  12.815  13.330
99433SOL    HW1  196   1.704  12.902  13.290
99433SOL    HW2  197   1.738  12.756  13.267
99434SOL     OW  198   3.144  13.696   8.064
99434SOL    HW1  199   3.064  13.659   8.027
99434SOL    HW2  200   3.172  13.761   7.999
99435SOL     OW  201   2.757   1.741   1.434
99435SOL    HW1  202   2.669   1.710   1.415
99435SOL    HW2  203   2.759   1.831   1.402
99436SOL     OW  204   5.627  10.984   3.106
99436SOL    HW1  205   5.545  10.938   3.089
99436SOL    HW2  206   5.600  11.064   3.152
99437SOL     OW  207  11.832  13.207  12.270
99437SOL    HW1  208  11.907  13.186  12.214
99437SOL    HW2  209  11.756  13.191  12.215
99438SOL     OW  210   3.707   9.774   3.677
99438SOL    HW1  211   3.770   9.710   3.643
99438SOL    HW2  212   3.671   9.732   3.755
99439SOL     OW  213  11.792   3.284   4.869
99439SOL    HW1  214  11.757   3.204   4.829
99439SOL    HW2  215  11.746   3.290   4.952
99440SOL     OW  216   0.659   0.330   4.613
99440SOL    HW1  217   0.736   0.339   4.670
99440SOL    HW2  218   0.598   0.397   4.643
99441SOL     OW  219  12.605   4.194   2.470
99441SOL    HW1  220  12.547   4.118   2.471
99441SOL    HW2  221  12.690   4.160   2.442
99442SOL     OW  222   4.384   6.465  13.752
99442SOL    HW1  223   4.402   6.559  13.753
99442SOL    HW2  224   4.399   6.437  13.843
99443SOL     OW  225   7.495   0.330  10.692
99443SOL    HW1  226   7.575   0.354  10.738
99443SOL    HW2  227   7.448   0.413  10.681
99444SOL     OW  228   0.869  14.838   0.672
99444SOL    HW1  229   0.870   0.042   0.734
99444SOL    HW2  230   0.944  14.854   0.615
99445SOL     OW  231  10.295   4.199   8.961
99445SOL    HW1  232  10.220   4.158   8.917
99445SOL    HW2  233  10.370   4.147   8.933
99446SOL     OW  234   6.369   8.815   1.127
99446SOL    HW1  235   6.306   8.747   1.152
99446SOL    HW2  236   6.325   8.897   1.146
99447SOL     OW  237   6.161  14.577  10.040
99447SOL    HW1  238   6.135  14.516   9.970
99447SOL    HW2  239   6.214  14.643   9.995
99448SOL     OW  240   9.242   8.087  10.648
99448SOL    HW1  241   9.244   8.131  10.733
99448SOL    HW2  242   9.311   8.022  10.653
99449SOL     OW  243   2.776  14.091   2.781
99449SOL    HW1  244   2.765  14.180   2.815
99449SOL    HW2  245   2.686  14.060   2.766
99450SOL     OW  246   4.016   4.630   3.983
99450SOL    HW1  247   4.024   4.561   4.047
99450SOL    HW2  248   4.107   4.656   3.964
99451SOL     OW  249   3.712   0.524   6.061
99451SOL    HW1  250   3.669   0.599   6.103
99451SOL    HW2  251   3.707   0.454   6.125
99452SOL     OW  252  10.517   5.851  14.076
99452SOL    HW1  253  10.433   5.893  14.096
99452SOL    HW2  254  10.522   5.851  13.980
99453SOL     OW  255   2.920   7.534  14.328
99453SOL    HW1  256   2.951   7.461  14.275
99453SOL    HW2  257   2.871   7.589  14.267
99454SOL     OW  258   6.752   7.714  11.254
99454SOL    HW1  259   6.804   7.777  11.205
99454SOL    HW2  260   6.740   7.754  11.340
99455SOL     OW  261  13.389   8.544   8.239
99455SOL    HW1  262  13.363   8.565   8.149
99455SOL    HW2  263  13.472   8.496   8.229
99456SOL     OW  264  12.803  13.577   4.267
99456SOL    HW1  265  12.732  13.631   4.300
99456SOL    HW2  266  12.828  13.523   4.342
99457SOL     OW  267   2.250   1.919   0.495
99457SOL    HW1  268   2.314   1.849   0.485
99457SOL    HW2  269   2.221   1.938   0.406
99458SOL     OW  270   1.770  10.108  13.863
99458SOL    HW1  271   1.768  10.201  13.839
99458SOL    HW2  272   1.807  10.107  13.951
99459SOL     OW  273   7.331  13.400  13.579
99459SOL    HW1  274   7.278  13.396  13.500
99459SOL    HW2  275   7.291  13.336  13.638
99460SOL     OW  276   5.946   7.091   6.473
99460SOL    HW1  277   6.029   7.093   6.519
99460SOL    HW2  278   5.884   7.134   6.532
99461SOL     OW  279   7.873   5.288   6.197
99461SOL    HW1  280   7.860   5.327   6.284
99461SOL    HW2  281   7.969   5.283   6.188
99462SOL     OW  282   2.963  13.097   7.663
99462SOL    HW1  283   2.992  13.165   7.724
99462SOL    HW2  284   3.035  13.035   7.659
99463SOL     OW  285  13.967   8.860   7.070
99463SOL    HW1  286  13.987   8.822   6.984
99463SOL    HW2  287  13.992   8.952   7.063
99464SOL     OW  288   6.631   2.739   4.665
99464SOL    HW1  289   6.652   2.683   4.740
99464SOL    HW2  290   6.702   2.803   4.662
99465SOL     OW  291  12.855   3.757   8.269
99465SOL    HW1  292  12.773   3.741   8.221
99465SOL    HW2  293  12.845   3.845   8.305
99466SOL     OW  294  12.501  10.637   7.472
99466SOL    HW1  295  12.441  10.699   7.514
99466SOL    HW2  296  12.487  10.555   7.518
99467SOL     OW  297   0.269  11.582  11.225
99467SOL    HW1  298   0.264  11.565  11.319
99467SOL    HW2  299   0.288  11.676  11.219
99468SOL     OW  300  14.477   4.314  12.042
99468SOL    HW1  301  14.462   4.377  12.112
99468SOL    HW2  302  14.469   4.366  11.961
99469SOL     OW  303   3.428   8.904   5.618
99469SOL    HW1  304   3.383   8.969   5.564
99469SOL    HW2  305   3.373   8.893   5.694
99470SOL     OW  306  11.117   9.963   3.380
99470SOL    HW1  307  11.060  10.000   3.448
99470SOL    HW2  308  11.098   9.870   3.381
99471SOL     OW  309   7.550   5.691   3.681
99471SOL    HW1  310   7.498   5.771   3.671
99471SOL    HW2  311   7.570   5.663   3.592
99472SOL     OW  312   8.089  10.775   0.037
99472SOL    HW1  313   8.163  10.749   0.092
99472SOL    HW2  314   8.061  10.694  14.863
99473SOL     OW  315  10.994   6.983   6.156
99473SOL    HW1  316  10.981   7.055   6.218
99473SOL    HW2  317  10.914   6.931   6.163
99474SOL     OW  318   5.139   2.915   9.559
99474SOL    HW1  319   5.125   2.825   9.590
99474SOL    HW2  320   5.057   2.938   9.517
99475SOL     OW  321   7.373  12.387   2.582
99475SOL    HW1  322   7.329  12.424   2.506
99475SOL    HW2  323   7.309  12.326   2.620
99476SOL     OW  324  11.830   6.249   8.156
99476SOL    HW1  325  11.755   6.294   8.195
99476SOL    HW2  326  11.792   6.176   8.106
99477SOL     OW  327  10.817   5.421   6.315
99477SOL    HW1  328  10.847   5.512   6.308
99477SOL    HW2  329  10.744   5.424   6.376
99478SOL     OW  330  10.505   6.224   0.839
99478SOL    HW1  331  10.485   6.314   0.814
99478SOL    HW2  332  10.577   6.198   0.782
99479SOL     OW  333  10.253   5.487   0.890
99479SOL    HW1  334  10.173   5.526   0.854
99479SOL    HW2  335  10.280   5.423   0.825
99480SOL     OW  336  11.170  14.818  10.830
99480SOL    HW1  337  11.176   0.008  10.755
99480SOL    HW2  338  11.083  14.780  10.823
99481SOL     OW  339   9.977  14.244   5.885
99481SOL    HW1  340  10.036  14.310   5.850
99481SOL    HW2  341   9.995  14.243   5.979
99482SOL     OW  342   7.288  10.454  12.673
99482SOL    HW1  343   7.228  10.396  12.720
99482SOL    HW2  344   7.284  10.537  12.721
99483SOL     OW  345   5.722   9.955   4.075
99483SOL    HW1  346   5.702  10.038   4.119
99483SOL    HW2  347   5.787   9.979   4.008
99484SOL     OW  348   7.858  13.256   9.112
99484SOL    HW1  349   7.826  13.246   9.022
99484SOL    HW2  350   7.953  13.263   9.102
99485SOL     OW  351  11.528  12.318   3.390
99485SOL    HW1  352  11.583  12.390   3.420
99485SOL    HW2  353  11.506  12.340   3.300
99486SOL     OW  354  13.727  10.071   8.601
99486SOL    HW1  355  13.773  10.073   8.517
99486SOL    HW2  356  13.735   9.981   8.631
99487SOL     OW  357   7.927   0.468   2.883
99487SOL    HW1  358   7.831   0.463   2.885
99487SOL    HW2  359   7.949   0.451   2.791
99488SOL     OW  360  10.765   6.934   5.915
99488SOL    HW1  361  10.754   6.889   5.999
99488SOL    HW2  362  10.689   6.991   5.909
99489SOL     OW  363  12.165   0.727   4.008
99489SOL    HW1  364  12.135   0.781   4.081
99489SOL    HW2  365  12.243   0.683   4.042
99490SOL     OW  366   9.811  13.926   6.869
99490SOL    HW1  367   9.785  13.922   6.960
99490SOL    HW2  368   9.805  13.836   6.837
99491SOL     OW  369   1.719   6.780  11.876
99491SOL    HW1  370   1.810   6.755  11.891
99491SOL    HW2  371   1.669   6.702  11.898
99492SOL     OW  372   3.866   5.681   0.173
99492SOL    HW1  373   3.892   5.598   0.212
99492SOL    HW2  374   3.877   5.668   0.079
99493SOL     OW  375   4.994   3.897   1.924
99493SOL    HW1  376   4.905   3.865   1.911
99493SOL    HW2  377   5.049   3.821   1.905
99494SOL     OW  378   2.564   5.891   9.488
99494SOL    HW1  379   2.633   5.913   9.551
99494SOL    HW2  380   2.594   5.930   9.405
99495SOL     OW  381  14.046   4.325   6.156
99495SOL    HW1  382  14.030   4.377   6.077
99495SOL    HW2  383  13.960   4.316   6.197
99496SOL     OW  384   1.490   4.926  13.271
99496SOL    HW1  385   1.577   4.965  13.258
99496SOL    HW2  386   1.467   4.947  13.361
99497SOL     OW  387  10.630   3.023   1.805
99497SOL    HW1  388  10.699   3.081   1.774
99497SOL    HW2  389  10.602   2.975   1.726
99498SOL     OW  390   2.383  12.720  14.206
99498SOL    HW1  391   2.459  12.778  14.215
99498SOL    HW2  392   2.323  12.749  14.275
99499SOL     OW  393   8.440   8.986  14.229
99499SOL    HW1  394   8.393   8.962  14.309
99499SOL    HW2  395   8.520   8.935  14.231
99500SOL     OW  396  14.560   2.099   6.774
99500SOL    HW1  397  14.602   2.110   6.859
99500SOL    HW2  398  14.621   2.043   6.725
99501SOL     OW  399   1.686   6.602   3.541
99501SOL    HW1  400   1.719   6.541   3.606
99501SOL    HW2  401   1.751   6.598   3.470
99502SOL     OW  402  10.808  13.289   3.054
99502SOL    HW1  403  10.871  13.343   3.006
99502SOL    HW2  404  10.791  13.215   2.996
99503SOL     OW  405   5.823   5.886   4.125
99503SOL    HW1  406   5.822   5.792   4.144
99503SOL    HW2  407   5.731   5.910   4.119
99504SOL     OW  408  13.187   0.616  10.174
99504SOL    HW1  409  13.094   0.635  10.167
99504SOL    HW2  410  13.215   0.660  10.255
99505SOL     OW  411   5.240  12.553   5.949
99505SOL    HW1  412   5.270  12.615   5.883
99505SOL    HW2  413   5.281  12.582   6.030
99506SOL     OW  414   8.343  14.259  10.523
99506SOL    HW1  415   8.421  14.211  10.549
99506SOL    HW2  416   8.374  14.346  10.498
99507SOL     OW  417   6.291   5.602   1.039
99507SOL    HW1  418   6.382   5.623   1.061
99507SOL    HW2  419   6.239   5.672   1.079
99508SOL     OW  420   3.074   2.131  13.249
99508SOL    HW1  421   3.105   2.044  13.276
99508SOL    HW2  422   3.155   2.181  13.236
99509SOL     OW  423   2.035   5.171  11.029
99509SOL    HW1  424   2.093   5.096  11.020
99509SOL    HW2  425   1.975   5.163  10.955
99510SOL     OW  426   3.231  14.465  14.060
99510SOL    HW1  427   3.182  14.482  13.979
99510SOL    HW2  428   3.232  14.369  14.067
99511SOL     OW  429   3.249   4.429  10.649
99511SOL    HW1  430   3.232   4.520  10.675
99511SOL    HW2  431   3.344   4.422  10.650
99512SOL     OW  432   7.471   7.388   7.119
99512SOL    HW1  433   7.566   7.394   7.131
99512SOL    HW2  434   7.457   7.411   7.027
99513SOL     OW  435   3.729   6.838   1.982
99513SOL    HW1  436   3.710   6.912   2.040
99513SOL    HW2  437   3.748   6.766   2.041
99514SOL     OW  438   0.971  10.666   4.713
99514SOL    HW1  439   1.035  10.732   4.683
99514SOL    HW2  440   1.000  10.585   4.672
99515SOL     OW  441   1.755   7.158   0.835
99515SOL    HW1  442   1.687   7.131   0.897
99515SOL    HW2  443   1.724   7.128   0.750
99516SOL     OW  444   6.161   7.725  14.762
99516SOL    HW1  445   6.169   7.812  14.722
99516SOL    HW2  446   6.131   7.743  14.851
99517SOL     OW  447   1.123   5.281   4.474
99517SOL    HW1  448   1.187   5.332   4.525
99517SOL    HW2  449   1.058   5.346   4.445
99518SOL     OW  450  11.464   6.050  10.427
99518SOL    HW1  451  11.505   5.981  10.479
99518SOL    HW2  452  11.426   6.005  10.352
99519SOL     OW  453   8.692   3.459   7.487
99519SOL    HW1  454   8.765   3.398   7.476
99519SOL    HW2  455   8.674   3.458   7.581
99520SOL     OW  456   5.769  13.730   4.479
99520SOL    HW1  457   5.696  13.786   4.506
99520SOL    HW2  458   5.804  13.772   4.400
99521SOL     OW  459   5.974  10.633  13.300
99521SOL    HW1  460   5.925  10.600  13.224
99521SOL    HW2  461   5.956  10.728  13.300
99522SOL     OW  462   3.635   3.202   8.175
99522SOL    HW1  463   3.631   3.228   8.267
99522SOL    HW2  464   3.648   3.107   8.177
99523SOL     OW  465   7.292   2.870   5.879
99523SOL    HW1  466   7.228   2.837   5.815
99523SOL    HW2  467   7.248   2.860   5.964
99524SOL     OW  468  14.400   0.967   2.119
99524SOL    HW1  469  14.400   0.872   2.112
99524SOL    HW2  470  14.493   0.991   2.120
99525SOL     OW  471   3.142   4.551   1.870
99525SOL    HW1  472   3.117   4.487   1.937
99525SOL    HW2  473   3.059   4.583   1.836
99526SOL     OW  474   1.089  10.381  14.794
99526SOL    HW1  475   1.168  10.424  14.827
99526SOL    HW2  476   1.103  10.288  14.811
99527SOL     OW  477  12.509  13.516  14.433
99527SOL    HW1  478  12.602  13.539  14.432
99527SOL    HW2  479  12.508  13.421  14.444
99528SOL     OW  480   5.486   5.295   6.878
99528SOL    HW1  481   5.522   5.249   6.954
99528SOL    HW2  482   5.398   5.319   6.904
99529SOL     OW  483  10.615   6.121   9.984
99529SOL    HW1  484  10.666   6.195  10.017
99529SOL    HW2  485  10.622   6.055  10.052
99530SOL     OW  486  11.089  12.124   1.913
99530SOL    HW1  487  11.020  12.179   1.878
99530SOL    HW2  488  11.113  12.066   1.840
99531SOL     OW  489   3.408   5.274  10.106
99531SOL    HW1  490   3.462   5.348  10.133
99531SOL    HW2  491   3.457   5.197  10.137
99532SOL     OW  492   9.018   5.161   1.350
99532SOL    HW1  493   9.046   5.225   1.415
99532SOL    HW2  494   8.992   5.085   1.403
99533SOL     OW  495   6.915   8.381  13.929
99533SOL    HW1  496   6.910   8.348  14.018
99533SOL    HW2  497   6.961   8.311  13.881
99534SOL     OW  498   3.756  12.317   0.707
99534SOL    HW1  499   3.796  12.401   0.682
99534SOL    HW2  500   3.818  12.251   0.676
99535SOL     OW  501   5.457   1.759  11.571
99535SOL    HW1  502   5.424   1.691  11.631
99535SOL    HW2  503   5.386   1.822  11.565
99536SOL     OW  504  11.830   8.346   0.951
99536SOL    HW1  505  11.852   8.263   0.909
99536SOL    HW2  506  11.901   8.405   0.927
99537SOL     OW  507   1.303   9.971   7.796
99537SOL    HW1  508   1.319  10.002   7.885
99537SOL    HW2  509   1.207   9.965   7.790
99538SOL     OW  510  10.249   6.736  13.857
99538SOL    HW1  511  10.301   6.733  13.938
99538SOL    HW2  512  10.310   6.768  13.791
99539SOL     OW  513   3.171   4.223   4.757
99539SOL    HW1  514   3.232   4.167   4.708
99539SOL    HW2  515   3.086   4.181   4.746
99540SOL     OW  516   6.412   6.925  13.190
99540SOL    HW1  517   6.316   6.934  13.192
99540SOL    HW2  518   6.436   6.909  13.281
99541SOL     OW  519  10.661   1.999  12.700
99541SOL    HW1  520  10.728   1.957  12.753
99541SOL    HW2  521  10.709   2.043  12.630
99542SOL     OW  522   7.789   4.831   3.666
99542SOL    HW1  523   7.739   4.850   3.586
99542SOL    HW2  524   7.830   4.914   3.689
99543SOL     OW  525  14.364   0.497  11.453
99543SOL    HW1  526  14.319   0.457  11.528
99543SOL    HW2  527  14.296   0.506  11.386
99544SOL     OW  528   8.064  10.283   1.880
99544SOL    HW1  529   8.032  10.198   1.850
99544SOL    HW2  530   8.111  10.320   1.805
99545SOL     OW  531   3.693   4.131   0.527
99545SOL    HW1  532   3.634   4.094   0.593
99545SOL    HW2  533   3.640   4.136   0.447
99546SOL     OW  534   3.770  14.358  12.824
99546SOL    HW1  535   3.822  14.392  12.751
99546SOL    HW2  536   3.812  14.276  12.847
99547SOL     OW  537   1.593  14.327  14.170
99547SOL    HW1  538   1.612  14.248  14.119
99547SOL    HW2  539   1.679  14.359  14.197
99548SOL     OW  540   3.447  10.249   6.445
99548SOL    HW1  541   3.472  10.323   6.500
99548SOL    HW2  542   3.380  10.284   6.386
99549SOL     OW  543   3.640   5.735  13.683
99549SOL    HW1  544   3.675   5.822  13.698
99549SOL    HW2  545   3.659   5.687  13.764
99550SOL     OW  546   5.800   8.544   7.153
99550SOL    HW1  547   5.713   8.533   7.192
99550SOL    HW2  548   5.820   8.459   7.114
99551SOL     OW  549   7.575  10.625   7.305
99551SOL    HW1  550   7.503  10.614   7.244
99551SOL    HW2  551   7.636  10.684   7.260
99552SOL     OW  552   6.122  11.437   6.773
99552SOL    HW1  553   6.078  11.459   6.691
99552SOL    HW2  554   6.098  11.345   6.789
99553SOL     OW  555  13.751   0.995   6.106
99553SOL    HW1  556  13.768   0.957   6.192
99553SOL    HW2  557  13.744   1.089   6.123
99554SOL     OW  558   1.392   3.872  13.070
99554SOL    HW1  559   1.384   3.912  13.156
99554SOL    HW2  560   1.395   3.945  13.009
99555SOL     OW  561   8.042   7.600  11.603
99555SOL    HW1  562   8.046   7.513  11.561
99555SOL    HW2  563   8.009   7.658  11.534
99556SOL     OW  564   5.268  11.644  14.680
99556SOL    HW1  565   5.339  11.598  14.635
99556SOL    HW2  566   5.194  11.584  14.675
99557SOL     OW  567   8.589   9.033   6.208
99557SOL    HW1  568   8.552   9.060   6.292
99557SOL    HW2  569   8.683   9.024   6.226
99558SOL     OW  570   9.499   5.858   0.804
99558SOL    HW1  571   9.467   5.844   0.893
99558SOL    HW2  572   9.478   5.949   0.784
99559SOL     OW  573  12.284   0.876  10.657
99559SOL    HW1  574  12.328   0.933  10.593
99559SOL    HW2  575  12.191   0.897  10.649
99560SOL     OW  576  12.173   4.995   9.499
99560SOL    HW1  577  12.152   4.951   9.581
99560SOL    HW2  578  12.265   4.976   9.483
99561SOL     OW  579   0.425   5.714   5.873
99561SOL    HW1  580   0.383   5.627   5.869
99561SOL    HW2  581   0.352   5.775   5.872
99562SOL     OW  582  10.937   0.025   1.402
99562SOL    HW1  583  10.993  14.845   1.344
99562SOL    HW2  584  10.947  14.852   1.487
99563SOL     OW  585   6.948  12.890   8.800
99563SOL    HW1  586   6.984  12.969   8.761
99563SOL    HW2  587   7.024  12.847   8.841
99564SOL     OW  588  13.062   2.251   5.969
99564SOL    HW1  589  13.155   2.270   5.971
99564SOL    HW2  590  13.051   2.175   6.027
99565SOL     OW  591  13.018  13.024  14.857
99565SOL    HW1  592  13.064  13.070  14.787
99565SOL    HW2  593  13.066  12.941  14.868
99566SOL     OW  594  13.550   5.368   1.800
99566SOL    HW1  595  13.613   5.440   1.790
99566SOL    HW2  596  13.480   5.389   1.739
99567SOL     OW  597  12.967  10.892   3.450
99567SOL    HW1  598  12.875  10.885   3.426
99567SOL    HW2  599  13.002  10.804   3.438
99568SOL     OW  600  12.279   5.554   5.822
99568SOL    HW1  601  12.197   5.601   5.814
99568SOL    HW2  602  12.284   5.500   5.743
99569SOL     OW  603   5.937   1.875  12.870
99569SOL    HW1  604   5.961   1.966  12.855
99569SOL    HW2  605   5.847   1.868  12.837
99570SOL     OW  606  10.369   3.189  13.354
99570SOL    HW1  607  10.344   3.141  13.433
99570SOL    HW2  608  10.287   3.222  13.318
99571SOL     OW  609  13.121   8.205   9.339
99571SOL    HW1  610  13.159   8.258   9.268
99571SOL    HW2  611  13.054   8.152   9.296
99572SOL     OW  612  10.730   8.779   7.422
99572SOL    HW1  613  10.640   8.813   7.419
99572SOL    HW2  614  10.750   8.775   7.516
99573SOL     OW  615   1.539   5.752   0.628
99573SOL    HW1  616   1.625   5.794   0.623
99573SOL    HW2  617   1.477   5.824   0.612
99574SOL     OW  618  12.664  14.181   8.225
99574SOL    HW1  619  12.578  14.184   8.267
99574SOL    HW2  620  12.645  14.178   8.131
99575SOL     OW  621   1.405   9.626  11.652
99575SOL    HW1  622   1.452   9.646  11.570
99575SOL    HW2  623   1.313   9.628  11.627
99576SOL     OW  624   6.166  11.814   2.359
99576SOL    HW1  625   6.159  11.808   2.454
99576SOL    HW2  626   6.093  11.761   2.327
99577SOL     OW  627  14.435   0.663   3.375
99577SOL    HW1  628  14.511   0.718   3.397
99577SOL    HW2  629  14.364   0.725   3.362
99578SOL     OW  630  11.666   4.499   5.290
99578SOL    HW1  631  11.635   4.481   5.379
99578SOL    HW2  632  11.696   4.415   5.257
99579SOL     OW  633   2.497  12.208  11.855
99579SOL    HW1  634   2.462  12.123  11.827
99579SOL    HW2  635   2.489  12.207  11.951
99580SOL     OW  636   1.626   0.433   1.461
99580SOL    HW1  637   1.620   0.507   1.400
99580SOL    HW2  638   1.692   0.376   1.422
99581SOL     OW  639   1.085  14.272   6.976
99581SOL    HW1  640   1.106  14.287   7.068
99581SOL    HW2  641   1.152  14.322   6.928
99582SOL     OW  642   1.081  11.990   9.606
99582SOL    HW1  643   1.090  11.895   9.616
99582SOL    HW2  644   1.043  12.020   9.688
99583SOL     OW  645   5.367  10.388   1.056
99583SOL    HW1  646   5.401  10.470   1.019
99583SOL    HW2  647   5.302  10.359   0.992
99584SOL     OW  648  14.616   7.171   6.061
99584SOL    HW1  649  14.592   7.128   6.144
99584SOL    HW2  650  14.711   7.157   6.053
99585SOL     OW  651  14.474   9.729  11.125
99585SOL    HW1  652  14.393   9.779  11.137
99585SOL    HW2  653  14.458   9.675  11.048
99586SOL     OW  654   7.867   7.563  12.879
99586SOL    HW1  655   7.928   7.588  12.949
99586SOL    HW2  656   7.841   7.474  12.900
99587SOL     OW  657   5.558   8.525   4.104
99587SOL    HW1  658   5.539   8.588   4.173
99587SOL    HW2  659   5.642   8.553   4.068
99588SOL     OW  660   1.170  10.815  11.825
99588SOL    HW1  661   1.108  10.745  11.843
99588SOL    HW2  662   1.238  10.804  11.891
99589SOL     OW  663   9.813   8.636   7.149
99589SOL    HW1  664   9.909   8.636   7.149
99589SOL    HW2  665   9.788   8.547   7.125
99590SOL     OW  666  14.647  10.286  11.216
99590SOL    HW1  667  14.617  10.353  11.155
99590SOL    HW2  668  14.576  10.222  11.218
99591SOL     OW  669   6.820   2.304   8.207
99591SOL    HW1  670   6.821   2.400   8.205
99591SOL    HW2  671   6.864   2.282   8.289
99592SOL     OW  672   4.757   5.246   6.294
99592SOL    HW1  673   4.691   5.177   6.283
99592SOL    HW2  674   4.803   5.223   6.374
99593SOL     OW  675   6.516   1.850  11.846
99593SOL    HW1  676   6.421   1.843  11.831
99593SOL    HW2  677   6.538   1.772  11.897
99594SOL     OW  678  10.893   1.920   0.842
99594SOL    HW1  679  10.831   1.977   0.796
99594SOL    HW2  680  10.848   1.899   0.924
99595SOL     OW  681   1.843  13.390   4.007
99595SOL    HW1  682   1.869  13.298   4.002
99595SOL    HW2  683   1.773  13.391   4.073
99596SOL     OW  684   5.066   0.536   0.017
99596SOL    HW1  685   5.119   0.538  14.807
99596SOL    HW2  686   4.976   0.539  14.856
99597SOL     OW  687  14.132  13.539   5.039
99597SOL    HW1  688  14.180  13.565   4.960
99597SOL    HW2  689  14.187  13.472   5.080
99598SOL     OW  690   3.332  10.732   9.455
99598SOL    HW1  691   3.310  10.640   9.470
99598SOL    HW2  692   3.303  10.777   9.534
99599SOL     OW  693   7.062   2.360   4.297
99599SOL    HW1  694   7.078   2.277   4.343
99599SOL    HW2  695   7.126   2.420   4.333
99600SOL     OW  696   6.500   1.821   0.380
99600SOL    HW1  697   6.571   1.842   0.441
99600SOL    HW2  698   6.421   1.822   0.434
99601SOL     OW  699   3.180   2.468   8.384
99601SOL    HW1  700   3.256   2.433   8.430
99601SOL    HW2  701   3.134   2.521   8.450
99602SOL     OW  702   3.483   5.702  12.095
99602SOL    HW1  703   3.455   5.767  12.159
99602SOL    HW2  704   3.456   5.737  12.011
99603SOL     OW  705   2.365   3.569   9.605
99603SOL    HW1  706   2.291   3.596   9.658
99603SOL    HW2  707   2.352   3.615   9.522
99604SOL     OW  708   9.860  11.113   8.419
99604SOL    HW1  709   9.909  11.111   8.336
99604SOL    HW2  710   9.895  11.189   8.465
99605SOL     OW  711   4.208   7.106   6.968
99605SOL    HW1  712   4.292   7.128   6.929
99605SOL    HW2  713   4.175   7.033   6.916
99606SOL     OW  714  12.593   1.114   8.177
99606SOL    HW1  715  12.615   1.027   8.144
99606SOL    HW2  716  12.566   1.099   8.268
99607SOL     OW  717   8.965   7.084   0.127
99607SOL    HW1  718   8.889   7.030   0.103
99607SOL    HW2  719   8.944   7.171   0.093
99608SOL     OW  720  14.341  11.491   2.948
99608SOL    HW1  721  14.291  11.570   2.969
99608SOL    HW2  722  14.284  11.419   2.974
99609SOL     OW  723   2.528  13.877   5.269
99609SOL    HW1  724   2.486  13.926   5.198
99609SOL    HW2  725   2.459  13.868   5.335
99610SOL     OW  726   4.056   8.780   9.707
99610SOL    HW1  727   3.990   8.741   9.764
99610SOL    HW2  728   4.100   8.845   9.762
99611SOL     OW  729   5.519   1.753  14.404
99611SOL    HW1  730   5.560   1.695  14.340
99611SOL    HW2  731   5.580   1.826  14.413
99612SOL     OW  732   0.564   8.150   4.310
99612SOL    HW1  733   0.582   8.185   4.223
99612SOL    HW2  734   0.470   8.163   4.323
99613SOL     OW  735   7.997   4.584  10.902
99613SOL    HW1  736   8.067   4.614  10.843
99613SOL    HW2  737   7.946   4.663  10.920
99614SOL     OW  738   8.546   2.253   4.458
99614SOL    HW1  739   8.524   2.282   4.547
99614SOL    HW2  740   8.641   2.238   4.461
99615SOL     OW  741   5.817  10.296   1.577
99615SOL    HW1  742   5.771  10.317   1.658
99615SOL    HW2  743   5.848  10.206   1.589
99616SOL     OW  744   5.063  10.397   7.719
99616SOL    HW1  745   5.118  10.339   7.771
99616SOL    HW2  746   5.026  10.458   7.783
99617SOL     OW  747   2.673  11.620  12.765
99617SOL    HW1  748   2.620  11.634  12.844
99617SOL    HW2  749   2.609  11.597  12.698
99618SOL     OW  750   7.124   6.981   2.833
99618SOL    HW1  751   7.083   7.035   2.765
99618SOL    HW2  752   7.107   6.891   2.806
99619SOL     OW  753   8.087   7.007   5.712
99619SOL    HW1  754   8.155   7.074   5.704
99619SOL    HW2  755   8.008   7.050   5.680
99620SOL     OW  756   4.323   7.444   3.177
99620SOL    HW1  757   4.369   7.506   3.121
99620SOL    HW2  758   4.380   7.434   3.254
99621SOL     OW  759  13.196   7.252   2.534
99621SOL    HW1  760  13.240   7.335   2.558
99621SOL    HW2  761  13.104   7.276   2.522
99622SOL     OW  762   6.292   9.081   0.272
99622SOL    HW1  763   6.215   9.065   0.328
99622SOL    HW2  764   6.331   8.994   0.260
99623SOL     OW  765   6.883   8.158   8.140
99623SOL    HW1  766   6.952   8.100   8.107
99623SOL    HW2  767   6.891   8.237   8.086
99624SOL     OW  768   2.165  13.263   1.521
99624SOL    HW1  769   2.239  13.264   1.461
99624SOL    HW2  770   2.160  13.173   1.552
99625SOL     OW  771   8.565  10.957   6.897
99625SOL    HW1  772   8.607  10.980   6.980
99625SOL    HW2  773   8.514  11.034   6.873
99626SOL     OW  774  11.450   7.942  13.753
99626SOL    HW1  775  11.490   7.858  13.731
99626SOL    HW2  776  11.418   7.931  13.843
99627SOL     OW  777   6.968   9.572  10.627
99627SOL    HW1  778   7.049   9.566  10.677
99627SOL    HW2  779   6.970   9.659  10.587
99628SOL     OW  780   8.286   5.524  11.421
99628SOL    HW1  781   8.370   5.558  11.452
99628SOL    HW2  782   8.286   5.541  11.327
99629SOL     OW  783   4.557  10.792  12.979
99629SOL    HW1  784   4.509  10.777  12.898
99629SOL    HW2  785   4.642  10.750  12.966
99630SOL     OW  786  12.432  10.362   0.439
99630SOL    HW1  787  12.351  10.409   0.461
99630SOL    HW2  788  12.429  10.282   0.491
99631SOL     OW  789   4.207  12.606   0.462
99631SOL    HW1  790   4.191  12.531   0.519
99631SOL    HW2  791   4.224  12.568   0.376
99632SOL     OW  792   8.044   6.428   0.357
99632SOL    HW1  793   8.137   6.448   0.373
99632SOL    HW2  794   8.045   6.360   0.290
99633SOL     OW  795  10.219   2.767   8.834
99633SOL    HW1  796  10.289   2.757   8.898
99633SOL    HW2  797  10.160   2.833   8.871
99634SOL     OW  798   0.362  12.451  10.077
99634SOL    HW1  799   0.443  12.493  10.048
99634SOL    HW2  800   0.307  12.523  10.109
99635SOL     OW  801   3.611   3.901   2.854
99635SOL    HW1  802   3.612   3.978   2.796
99635SOL    HW2  803   3.564   3.931   2.932
99636SOL     OW  804   6.726   3.320  13.732
99636SOL    HW1  805   6.748   3.227  13.723
99636SOL    HW2  806   6.781   3.351  13.803
99637SOL     OW  807   8.181   6.637   8.925
99637SOL    HW1  808   8.113   6.571   8.936
99637SOL    HW2  809   8.182   6.685   9.008
99638SOL     OW  810   6.966  11.318  11.819
99638SOL    HW1  811   6.920  11.401  11.829
99638SOL    HW2  812   6.962  11.277  11.906
99639SOL     OW  813   4.147   0.090   8.058
99639SOL    HW1  814   4.091   0.042   8.119
99639SOL    HW2  815   4.221   0.031   8.042
99640SOL     OW  816   1.465  10.645  11.976
99640SOL    HW1  817   1.551  10.645  12.017
99640SOL    HW2  818   1.422  10.723  12.011
99641SOL     OW  819  14.294   3.597   2.128
99641SOL    HW1  820  14.330   3.592   2.217
99641SOL    HW2  821  14.218   3.539   2.130
99642SOL     OW  822  13.910   3.651   7.119
99642SOL    HW1  823  13.847   3.621   7.054
99642SOL    HW2  824  13.983   3.588   7.113
99643SOL     OW  825  11.962   1.063   7.744
99643SOL    HW1  826  12.040   1.097   7.788
99643SOL    HW2  827  11.911   1.022   7.814
99644SOL     OW  828   3.992  14.493  10.878
99644SOL    HW1  829   4.008  14.489  10.972
99644SOL    HW2  830   3.906  14.454  10.866
99645SOL     OW  831   7.658   6.421   1.487
99645SOL    HW1  832   7.666   6.488   1.419
99645SOL    HW2  833   7.685   6.340   1.443
99646SOL     OW  834   9.244  14.741   7.772
99646SOL    HW1  835   9.270  14.815   7.827
99646SOL    HW2  836   9.309  14.673   7.791
99647SOL     OW  837  12.001   5.643  10.357
99647SOL    HW1  838  11.953   5.683  10.284
99647SOL    HW2  839  12.073   5.596  10.314
99648SOL     OW  840   6.758   5.372   0.356
99648SOL    HW1  841   6.742   5.321   0.276
99648SOL    HW2  842   6.678   5.421   0.370
99649SOL     OW  843   2.098   9.653   5.119
99649SOL    HW1  844   2.103   9.557   5.124
99649SOL    HW2  845   2.160   9.683   5.186
99650SOL     OW  846   9.485   7.400   1.394
99650SOL    HW1  847   9.509   7.460   1.323
99650SOL    HW2  848   9.390   7.410   1.401
99651SOL     OW  849  12.968   8.010   2.794
99651SOL    HW1  850  13.044   8.009   2.736
99651SOL    HW2  851  12.966   7.923   2.834
99652SOL     OW  852   6.880   1.187   8.949
99652SOL    HW1  853   6.837   1.107   8.917
99652SOL    HW2  854   6.876   1.180   9.044
99653SOL     OW  855   8.176   1.901   3.229
99653SOL    HW1  856   8.265   1.920   3.257
99653SOL    HW2  857   8.182   1.891   3.134
99654SOL     OW  858   2.328   2.505   4.365
99654SOL    HW1  859   2.249   2.549   4.396
99654SOL    HW2  860   2.385   2.576   4.334
99655SOL     OW  861  14.014  10.637   7.860
99655SOL    HW1  862  13.961  10.716   7.871
99655SOL    HW2  863  13.957  10.565   7.887
99656SOL     OW  864   2.394   1.808  12.202
99656SOL    HW1  865   2.354   1.866  12.267
99656SOL    HW2  866   2.395   1.722  12.244
99657SOL     OW  867   9.374   8.033   4.812
99657SOL    HW1  868   9.353   7.984   4.891
99657SOL    HW2  869   9.442   7.981   4.768
99658SOL     OW  870  14.656  12.316   6.752
99658SOL    HW1  871  14.649  12.308   6.657
99658SOL    HW2  872  14.726  12.256   6.776
99659SOL     OW  873   3.441   7.243  14.758
99659SOL    HW1  874   3.512   7.288  14.804
99659SOL    HW2  875   3.472   7.235  14.668
99660SOL     OW  876  12.897   7.895  10.290
99660SOL    HW1  877  12.914   7.863  10.202
99660SOL    HW2  878  12.954   7.842  10.346
99661SOL     OW  879   8.898  10.348   0.537
99661SOL    HW1  880   8.868  10.379   0.623
99661SOL    HW2  881   8.820  10.308   0.498
99662SOL     OW  882   9.845  10.378   5.517
99662SOL    HW1  883   9.850  10.296   5.468
99662SOL    HW2  884   9.769  10.423   5.480
99663SOL     OW  885   7.844  10.492  12.513
99663SOL    HW1  886   7.917  10.537  12.556
99663SOL    HW2  887   7.774  10.558  12.509
99664SOL     OW  888  12.197   1.260  12.166
99664SOL    HW1  889  12.169   1.305  12.245
99664SOL    HW2  890  12.236   1.178  12.197
99665SOL     OW  891   6.076   7.293   3.638
99665SOL    HW1  892   6.146   7.229   3.649
99665SOL    HW2  893   6.073   7.309   3.543
99666SOL     OW  894   0.217   8.100  14.732
99666SOL    HW1  895   0.245   8.015  14.766
99666SOL    HW2  896   0.149   8.078  14.668
99667SOL     OW  897  11.892   9.715   3.916
99667SOL    HW1  898  11.822   9.662   3.955
99667SOL    HW2  899  11.898   9.792   3.973
99668SOL     OW  900   9.289   6.495  10.561
99668SOL    HW1  901   9.304   6.436  10.487
99668SOL    HW2  902   9.290   6.438  10.638
99669SOL     OW  903   7.760  13.795   6.071
99669SOL    HW1  904   7.679  13.843   6.055
99669SOL    HW2  905   7.735  13.703   6.070
99670SOL     OW  906   6.649  10.530   3.898
99670SOL    HW1  907   6.676  10.574   3.817
99670SOL    HW2  908   6.623  10.442   3.870
99671SOL     OW  909   8.386   1.782   1.131
99671SOL    HW1  910   8.429   1.775   1.216
99671SOL    HW2  911   8.304   1.733   1.141
99672SOL     OW  912  14.568   2.524   3.783
99672SOL    HW1  913  14.575   2.460   3.712
99672SOL    HW2  914  14.551   2.608   3.739
99673SOL     OW  915   4.359   6.279   9.783
99673SOL    HW1  916   4.370   6.297   9.876
99673SOL    HW2  917   4.301   6.203   9.780
99674SOL     OW  918   9.342   3.619   6.132
99674SOL    HW1  919   9.375   3.550   6.074
99674SOL    HW2  920   9.386   3.698   6.102
99675SOL     OW  921   5.900  11.791   7.615
99675SOL    HW1  922   5.908  11.872   7.664
99675SOL    HW2  923   5.964  11.732   7.656
99676SOL     OW  924  12.025   3.955   8.560
99676SOL    HW1  925  11.933   3.930   8.573
99676SOL    HW2  926  12.055   3.897   8.490
99677SOL     OW  927   0.057  14.587  10.626
99677SOL    HW1  928   0.145  14.556  10.606
99677SOL    HW2  929   0.041  14.657  10.562
99678SOL     OW  930   5.438  12.285   1.939
99678SOL    HW1  931   5.419  12.230   1.862
99678SOL    HW2  932   5.353  12.324   1.961
99679SOL     OW  933   7.867   6.655   9.264
99679SOL    HW1  934   7.860   6.690   9.175
99679SOL    HW2  935   7.853   6.731   9.320
99680SOL     OW  936   1.753   9.034  10.433
99680SOL    HW1  937   1.757   9.087  10.354
99680SOL    HW2  938   1.689   9.079  10.489
99681SOL     OW  939   5.622  14.829   4.057
99681SOL    HW1  940   5.696  14.848   3.999
99681SOL    HW2  941   5.567   0.038   4.052
99682SOL     OW  942   0.729   4.721  11.809
99682SOL    HW1  943   0.671   4.759  11.743
99682SOL    HW2  944   0.681   4.645  11.841
99683SOL     OW  945  11.553   8.243  14.632
99683SOL    HW1  946  11.459   8.256  14.648
99683SOL    HW2  947  11.593   8.252  14.719
99684SOL     OW  948   3.103   3.482  10.945
99684SOL    HW1  949   3.161   3.553  10.971
99684SOL    HW2  950   3.021   3.500  10.990
99685SOL     OW  951   1.321  10.867   0.813
99685SOL    HW1  952   1.229  10.847   0.829
99685SOL    HW2  953   1.334  10.954   0.851
99686SOL     OW  954   4.854   6.390   5.780
99686SOL    HW1  955   4.941   6.426   5.799
99686SOL    HW2  956   4.796   6.466   5.781
99687SOL     OW  957   9.089  12.333  14.550
99687SOL    HW1  958   9.010  12.316  14.602
99687SOL    HW2  959   9.161  12.306  14.607
99688SOL     OW  960   4.490   3.249   9.129
99688SOL    HW1  961   4.420   3.259   9.194
99688SOL    HW2  962   4.486   3.156   9.105
99689SOL     OW  963  10.038   3.111   7.034
99689SOL    HW1  964  10.026   3.162   7.114
99689SOL    HW2  965  10.032   3.020   7.062
99690SOL     OW  966  13.412   6.334   2.295
99690SOL    HW1  967  13.480   6.326   2.362
99690SOL    HW2  968  13.449   6.290   2.219
99691SOL     OW  969   8.804   7.658   8.488
99691SOL    HW1  970   8.853   7.735   8.461
99691SOL    HW2  971   8.792   7.608   8.407
99692SOL     OW  972   4.626  10.671   0.927
99692SOL    HW1  973   4.553  10.618   0.897
99692SOL    HW2  974   4.692  10.663   0.858
99693SOL     OW  975   1.273   3.629   3.630
99693SOL    HW1  976   1.332   3.554   3.634
99693SOL    HW2  977   1.234   3.634   3.717
99694SOL     OW  978  14.508  13.811   7.145
99694SOL    HW1  979  14.450  13.798   7.220
99694SOL    HW2  980  14.459  13.777   7.070
99695SOL     OW  981   2.528  14.637  12.062
99695SOL    HW1  982   2.552  14.688  12.139
99695SOL    HW2  983   2.610  14.594  12.036
99696SOL     OW  984   2.715   4.393   3.977
99696SOL    HW1  985   2.744   4.336   3.906
99696SOL    HW2  986   2.785   4.458   3.986
99697SOL     OW  987   1.509  13.085   0.544
99697SOL    HW1  988   1.442  13.114   0.483
99697SOL    HW2  989   1.576  13.154   0.541
99698SOL     OW  990   3.534  13.608  13.655
99698SOL    HW1  991   3.506  13.521  13.686
99698SOL    HW2  992   3.563  13.653  13.734
99699SOL     OW  993   7.295   8.285   0.025
99699SOL    HW1  994   7.240   8.341   0.079
99699SOL    HW2  995   7.294   8.327  14.808
99700SOL     OW  996   6.654   5.333   3.815
99700SOL    HW1  997   6.716   5.351   3.744
99700SOL    HW2  998   6.597   5.265   3.781
99701SOL     OW  999  13.487   3.852  10.501
99701SOL    HW1 1000  13.442   3.891  10.426
99701SOL    HW2 1001  13.533   3.925  10.543
99702SOL     OW 1002   4.034   1.090   4.877
99702SOL    HW1 1003   3.987   1.050   4.949
99702SOL    HW2 1004   3.967   1.107   4.811
99703SOL     OW 1005  10.152   9.270  12.731
99703SOL    HW1 1006  10.177   9.362  12.725
99703SOL    HW2 1007  10.203   9.237  12.805
99704SOL     OW 1008   9.379   8.508  13.990
99704SOL    HW1 1009   9.419   8.588  14.023
99704SOL    HW2 1010   9.427   8.488  13.910
99705SOL     OW 1011  11.332  12.238   3.575
99705SOL    HW1 1012  11.400  12.288   3.530
99705SOL    HW2 1013  11.315  12.289   3.655
99706SOL     OW 1014   5.362   5.412  14.005
99706SOL    HW1 1015   5.425   5.484  14.014
99706SOL    HW2 1016   5.298   5.444  13.941
99707SOL     OW 1017   0.158   1.055   5.679
99707SOL    HW1 1018   0.078   1.019   5.717
99707SOL    HW2 1019   0.153   1.033   5.586
99708SOL     OW 1020   5.692   6.033   2.270
99708SOL    HW1 1021   5.681   6.012   2.363
99708SOL    HW2 1022   5.781   6.006   2.250
99709SOL     OW 1023   3.776   5.317  14.035
99709SOL    HW1 1024   3.735   5.281  14.114
99709SOL    HW2 1025   3.809   5.241  13.988
99710SOL     OW 1026  14.455   4.040   6.223
99710SOL    HW1 1027  14.404   4.108   6.178
99710SOL    HW2 1028  14.430   3.958   6.180
99711SOL     OW 1029   7.910   2.638   4.531
99711SOL    HW1 1030   7.824   2.647   4.572
99711SOL    HW2 1031   7.955   2.720   4.550
99712SOL     OW 1032   1.798   2.538   6.430
99712SOL    HW1 1033   1.809   2.559   6.523
99712SOL    HW2 1034   1.704   2.548   6.414
99713SOL     OW 1035   9.718   2.772  11.476
99713SOL    HW1 1036   9.673   2.853  11.499
99713SOL    HW2 1037   9.665   2.734  11.406
99714SOL     OW 1038  13.810  11.976   7.933
99714SOL    HW1 1039  13.761  11.904   7.892
99714SOL    HW2 1040  13.743  12.041   7.955
99715SOL     OW 1041   6.875   5.430   6.517
99715SOL    HW1 1042   6.961   5.389   6.527
99715SOL    HW2 1043   6.877   5.505   6.577
99716SOL     OW 1044   8.251  14.627   8.927
99716SOL    HW1 1045   8.241  14.706   8.874
99716SOL    HW2 1046   8.345  14.620   8.943
99717SOL     OW 1047   5.444   4.799   1.187
99717SOL    HW1 1048   5.515   4.777   1.248
99717SOL    HW2 1049   5.485   4.793   1.100
99718SOL     OW 1050   2.456   4.283   1.275
99718SOL    HW1 1051   2.454   4.361   1.220
99718SOL    HW2 1052   2.413   4.309   1.356
99719SOL     OW 1053   6.511   2.151   6.430
99719SOL    HW1 1054   6.457   2.072   6.426
99719SOL    HW2 1055   6.587   2.131   6.375
99720SOL     OW 1056   5.746   4.329   8.399
99720SOL    HW1 1057   5.689   4.279   8.457
99720SOL    HW2 1058   5.741   4.419   8.431
99721SOL     OW 1059  12.631   7.552  14.271
99721SOL    HW1 1060  12.681   7.602  14.335
99721SOL    HW2 1061  12.549   7.601  14.262
99722SOL     OW 1062   4.052   4.390  14.336
99722SOL    HW1 1063   4.017   4.377  14.424
99722SOL    HW2 1064   3.977   4.418  14.284
99723SOL     OW 1065  12.888   5.183  13.963
99723SOL    HW1 1066  12.882   5.188  14.058
99723SOL    HW2 1067  12.975   5.217  13.942
99724SOL     OW 1068  12.811   1.273   6.012
99724SOL    HW1 1069  12.779   1.270   6.102
99724SOL    HW2 1070  12.879   1.340   6.012
99725SOL     OW 1071   8.468   4.440  11.356
99725SOL    HW1 1072   8.539   4.420  11.416
99725SOL    HW2 1073   8.511   4.455  11.272
99726SOL     OW 1074   5.660   9.828   3.779
99726SOL    HW1 1075   5.671   9.915   3.742
99726SOL    HW2 1076   5.588   9.789   3.729
99727SOL     OW 1077   7.322  14.165  11.055
99727SOL    HW1 1078   7.262  14.093  11.033
99727SOL    HW2 1079   7.380  14.128  11.121
99728SOL     OW 1080  10.718   0.482   5.263
99728SOL    HW1 1081  10.688   0.565   5.227
99728SOL    HW2 1082  10.813   0.490   5.268
99729SOL     OW 1083  12.402   9.046  11.211
99729SOL    HW1 1084  12.348   9.057  11.133
99729SOL    HW2 1085  12.343   9.063  11.284
99730SOL     OW 1086   2.532   1.447  11.807
99730SOL    HW1 1087   2.534   1.479  11.898
99730SOL    HW2 1088   2.612   1.484  11.768
99731SOL     OW 1089   4.827  14.635   5.516
99731SOL    HW1 1090   4.765  14.612   5.585
99731SOL    HW2 1091   4.904  14.581   5.533
99732SOL     OW 1092  14.205  14.812   3.698
99732SOL    HW1 1093  14.204  14.726   3.655
99732SOL    HW2 1094  14.219   0.005   3.626
99733SOL     OW 1095   4.309  11.229  10.784
99733SOL    HW1 1096   4.336  11.228  10.692
99733SOL    HW2 1097   4.306  11.322  10.807
99734SOL     OW 1098   3.152   2.042   0.850
99734SOL    HW1 1099   3.150   2.136   0.868
99734SOL    HW2 1100   3.182   2.003   0.932
99735SOL     OW 1101   6.584   4.242   4.834
99735SOL    HW1 1102   6.574   4.196   4.918
99735SOL    HW2 1103   6.573   4.334   4.856
99736SOL     OW 1104  12.809   5.600   5.482
99736SOL    HW1 1105  12.866   5.605   5.405
99736SOL    HW2 1106  12.751   5.676   5.473
99737SOL     OW 1107   6.633  10.882   0.581
99737SOL    HW1 1108   6.631  10.948   0.650
99737SOL    HW2 1109   6.709  10.827   0.602
99738SOL     OW 1110  11.860  11.444   6.338
99738SOL    HW1 1111  11.881  11.366   6.287
99738SOL    HW2 1112  11.782  11.419   6.388
99739SOL     OW 1113   2.161   6.750   5.098
99739SOL    HW1 1114   2.172   6.656   5.111
99739SOL    HW2 1115   2.237   6.789   5.141
99740SOL     OW 1116   9.897   0.145   7.998
99740SOL    HW1 1117   9.899   0.229   8.043
99740SOL    HW2 1118   9.937   0.084   8.060
99741SOL     OW 1119   1.487  13.713   6.447
99741SOL    HW1 1120   1.444  13.798   6.449
99741SOL    HW2 1121   1.470  13.680   6.359
99742SOL     OW 1122  13.386  14.144  13.022
99742SOL    HW1 1123  13.405  14.156  13.115
99742SOL    HW2 1124  13.471  14.152  12.979
99743SOL     OW 1125  12.077   9.003  11.679
99743SOL    HW1 1126  12.155   8.993  11.734
99743SOL    HW2 1127  12.013   8.943  11.718
99744SOL     OW 1128   1.030  13.299   8.767
99744SOL    HW1 1129   1.071  13.226   8.721
99744SOL    HW2 1130   0.980  13.257   8.838
99745SOL     OW 1131  11.314  12.919   8.190
99745SOL    HW1 1132  11.345  12.975   8.261
99745SOL    HW2 1133  11.225  12.949   8.173
99746SOL     OW 1134  14.731   6.168   1.039
99746SOL    HW1 1135  14.656   6.124   0.998
99746SOL    HW2 1136  14.764   6.227   0.971
99747SOL     OW 1137   3.002   8.709  12.960
99747SOL    HW1 1138   2.992   8.736  12.869
99747SOL    HW2 1139   3.034   8.787  13.005
99748SOL     OW 1140   0.506   8.444   8.141
99748SOL    HW1 1141   0.579   8.504   8.155
99748SOL    HW2 1142   0.435   8.480   8.193
99749SOL     OW 1143  13.404   4.798  13.053
99749SOL    HW1 1144  13.461   4.795  13.129
99749SOL    HW2 1145  13.461   4.781  12.978
99750SOL     OW 1146   0.809   4.177   3.420
99750SOL    HW1 1147   0.764   4.116   3.477
99750SOL    HW2 1148   0.753   4.255   3.419
99751SOL     OW 1149   8.481  10.690  13.628
99751SOL    HW1 1150   8.558  10.745  13.639
99751SOL    HW2 1151   8.510  10.619  13.571
99752SOL     OW 1152  10.324   0.201   3.251
99752SOL    HW1 1153  10.414   0.226   3.229
99752SOL    HW2 1154  10.270   0.249   3.189
99753SOL     OW 1155   4.996   0.425   6.771
99753SOL    HW1 1156   5.061   0.491   6.793
99753SOL    HW2 1157   5.038   0.342   6.795
99754SOL     OW 1158   1.813  13.103  12.271
99754SOL    HW1 1159   1.889  13.135  12.319
99754SOL    HW2 1160   1.740  13.110  12.332
99755SOL     OW 1161  13.623   3.245  10.834
99755SOL    HW1 1162  13.649   3.176  10.773
99755SOL    HW2 1163  13.688   3.242  10.903
99756SOL     OW 1164   7.731  12.810   6.870
99756SOL    HW1 1165   7.642  12.807   6.906
99756SOL    HW2 1166   7.739  12.899   6.836
99757SOL     OW 1167   9.449   4.058   2.504
99757SOL    HW1 1168   9.538   4.049   2.470
99757SOL    HW2 1169   9.394   4.067   2.426
99758SOL     OW 1170   7.258  14.275   3.857
99758SOL    HW1 1171   7.248  14.368   3.835
99758SOL    HW2 1172   7.205  14.264   3.936
99759SOL     OW 1173  14.171   0.453   8.743
99759SOL    HW1 1174  14.108   0.385   8.718
99759SOL    HW2 1175  14.186   0.502   8.663
99760SOL     OW 1176   3.835   5.290  10.379
99760SOL    HW1 1177   3.852   5.298  10.473
99760SOL    HW2 1178   3.775   5.216  10.371
99761SOL     OW 1179   0.893  12.034  13.617
99761SOL    HW1 1180   0.919  12.097  13.685
99761SOL    HW2 1181   0.801  12.016  13.636
99762SOL     OW 1182   5.138   6.598   9.773
99762SOL    HW1 1183   5.233   6.597   9.788
99762SOL    HW2 1184   5.109   6.682   9.807
99763SOL     OW 1185  12.367   5.027   0.959
99763SOL    HW1 1186  12.452   4.987   0.976
99763SOL    HW2 1187  12.356   5.090   1.030
99764SOL     OW 1188  11.827   3.867  13.330
99764SOL    HW1 1189  11.830   3.889  13.237
99764SOL    HW2 1190  11.918   3.853  13.354
99765SOL     OW 1191  11.348   1.065   0.934
99765SOL    HW1 1192  11.299   0.997   0.980
99765SOL    HW2 1193  11.391   1.115   1.004
99766SOL     OW 1194  14.344  13.508   8.911
99766SOL    HW1 1195  14.370  13.457   8.834
99766SOL    HW2 1196  14.293  13.446   8.964
99767SOL     OW 1197   3.246   2.727  14.809
99767SOL    HW1 1198   3.173   2.737  14.748
99767SOL    HW2 1199   3.306   2.798  14.788
99768SOL     OW 1200   6.064   3.310   5.406
99768SOL    HW1 1201   6.157   3.296   5.423
99768SOL    HW2 1202   6.020   3.281   5.485
99769SOL     OW 1203   9.311   7.143   1.755
99769SOL    HW1 1204   9.297   7.119   1.847
99769SOL    HW2 1205   9.278   7.232   1.748
99770SOL     OW 1206  11.177  13.956   0.184
99770SOL    HW1 1207  11.136  13.980   0.267
99770SOL    HW2 1208  11.104  13.946   0.123
99771SOL     OW 1209  14.450   7.767  13.775
99771SOL    HW1 1210  14.541   7.736  13.777
99771SOL    HW2 1211  14.403   7.698  13.728
99772SOL     OW 1212   5.161   9.742  13.284
99772SOL    HW1 1213   5.121   9.768  13.201
99772SOL    HW2 1214   5.121   9.658  13.305
99773SOL     OW 1215  14.250   1.396   0.122
99773SOL    HW1 1216  14.314   1.382   0.053
99773SOL    HW2 1217  14.284   1.470   0.172
99774SOL     OW 1218  13.117   7.556   4.713
99774SOL    HW1 1219  13.197   7.569   4.661
99774SOL    HW2 1220  13.107   7.460   4.717
99775SOL     OW 1221   2.726   8.885   4.171
99775SOL    HW1 1222   2.754   8.926   4.253
99775SOL    HW2 1223   2.730   8.791   4.189
99776SOL     OW 1224   0.819   0.780   7.403
99776SOL    HW1 1225   0.798   0.802   7.312
99776SOL    HW2 1226   0.741   0.734   7.436
99777SOL     OW 1227   9.321   1.705   3.436
99777SOL    HW1 1228   9.295   1.753   3.357
99777SOL    HW2 1229   9.258   1.733   3.502
99778SOL     OW 1230   1.286  13.229  11.648
99778SOL    HW1 1231   1.205  13.192  11.614
99778SOL    HW2 1232   1.344  13.235  11.572
99779SOL     OW 1233  12.329  13.382   8.557
99779SOL    HW1 1234  12.352  13.468   8.522
99779SOL    HW2 1235  12.237  13.389   8.581
99780SOL     OW 1236   2.978   2.451  10.347
99780SOL    HW1 1237   3.012   2.535  10.315
99780SOL    HW2 1238   2.932   2.472  10.428
99781SOL     OW 1239  12.078  13.733   3.795
99781SOL    HW1 1240  12.107  13.646   3.768
99781SOL    HW2 1241  11.994  13.718   3.839
99782SOL     OW 1242  11.787  14.278   0.698
99782SOL    HW1 1243  11.832  14.211   0.748
99782SOL    HW2 1244  11.810  14.360   0.742
99783SOL     OW 1245  14.485  13.672  11.516
99783SOL    HW1 1246  14.407  13.704  11.471
99783SOL    HW2 1247  14.453  13.605  11.576
99784SOL     OW 1248   4.452   4.927   8.060
99784SOL    HW1 1249   4.401   5.004   8.086
99784SOL    HW2 1250   4.394   4.853   8.078
99785SOL     OW 1251   8.319  11.819  14.216
99785SOL    HW1 1252   8.318  11.892  14.154
99785SOL    HW2 1253   8.229  11.811  14.246
99786SOL     OW 1254   5.337   9.760   2.511
99786SOL    HW1 1255   5.253   9.797   2.485
99786SOL    HW2 1256   5.332   9.751   2.606
99787SOL     OW 1257   8.727   6.003   2.181
99787SOL    HW1 1258   8.636   5.988   2.155
99787SOL    HW2 1259   8.761   6.064   2.116
99788SOL     OW 1260   6.288   9.497   0.147
99788SOL    HW1 1261   6.248   9.544   0.219
99788SOL    HW2 1262   6.365   9.454   0.185
99789SOL     OW 1263  10.622   2.877   6.550
99789SOL    HW1 1264  10.687   2.831   6.496
99789SOL    HW2 1265  10.539   2.838   6.525
99790SOL     OW 1266   3.338   1.769   1.204
99790SOL    HW1 1267   3.280   1.734   1.137
99790SOL    HW2 1268   3.286   1.765   1.285
99791SOL     OW 1269   1.813   1.380   4.585
99791SOL    HW1 1270   1.825   1.473   4.604
99791SOL    HW2 1271   1.820   1.374   4.490
99792SOL     OW 1272  14.657   6.108  14.542
99792SOL    HW1 1273  14.605   6.117  14.621
99792SOL    HW2 1274  14.598   6.067  14.479
99793SOL     OW 1275   2.004   4.779  13.568
99793SOL    HW1 1276   1.939   4.756  13.502
99793SOL    HW2 1277   2.043   4.861  13.536
99794SOL     OW 1278  11.566   9.579   0.694
99794SOL    HW1 1279  11.661   9.575   0.694
99794SOL    HW2 1280  11.539   9.517   0.626
99795SOL     OW 1281  14.657   3.405   0.946
99795SOL    HW1 1282  14.653   3.378   0.855
99795SOL    HW2 1283  14.666   3.500   0.943
99796SOL     OW 1284   3.518  10.030  11.354
99796SOL    HW1 1285   3.598   9.989  11.388
99796SOL    HW2 1286   3.515  10.005  11.262
99797SOL     OW 1287   3.402   5.485  14.634
99797SOL    HW1 1288   3.314   5.517  14.612
99797SOL    HW2 1289   3.387   5.395  14.664
99798SOL     OW 1290   5.496   8.698  10.731
99798SOL    HW1 1291   5.442   8.773  10.706
99798SOL    HW2 1292   5.586   8.726  10.713
99799SOL     OW 1293   7.926   4.741  12.803
99799SOL    HW1 1294   7.933   4.682  12.878
99799SOL    HW2 1295   7.903   4.826  12.842
99800SOL     OW 1296   9.021   1.813   0.395
99800SOL    HW1 1297   9.030   1.753   0.470
99800SOL    HW2 1298   9.011   1.755   0.319
99801SOL     OW 1299   6.805   5.592   0.169
99801SOL    HW1 1300   6.733   5.539   0.134
99801SOL    HW2 1301   6.827   5.550   0.253
99802SOL     OW 1302   0.235   9.406   2.064
99802SOL    HW1 1303   0.207   9.434   1.976
99802SOL    HW2 1304   0.330   9.399   2.057
99803SOL     OW 1305  14.519   9.888   5.467
99803SOL    HW1 1306  14.570   9.840   5.532
99803SOL    HW2 1307  14.479   9.819   5.413
99804SOL     OW 1308  11.481   8.206  12.242
99804SOL    HW1 1309  11.468   8.244  12.155
99804SOL    HW2 1310  11.515   8.278  12.295
99805SOL     OW 1311   9.310  12.833  14.059
99805SOL    HW1 1312   9.234  12.885  14.033
99805SOL    HW2 1313   9.340  12.874  14.141
99806SOL     OW 1314   1.715  13.757  13.822
99806SOL    HW1 1315   1.685  13.756  13.731
99806SOL    HW2 1316   1.810  13.769  13.815
99807SOL     OW 1317  12.413   7.063   7.888
99807SOL    HW1 1318  12.400   7.126   7.816
99807SOL    HW2 1319  12.432   7.118   7.964
99808SOL     OW 1320  14.544   3.668   8.815
99808SOL    HW1 1321  14.622   3.721   8.795
99808SOL    HW2 1322  14.577   3.578   8.821
99809SOL     OW 1323   9.294  10.536   7.153
99809SOL    HW1 1324   9.238  10.524   7.077
99809SOL    HW2 1325   9.315  10.629   7.154
99810SOL     OW 1326   0.296   6.222  13.056
99810SOL    HW1 1327   0.204   6.206  13.079
99810SOL    HW2 1328   0.299   6.314  13.032
99811SOL     OW 1329  12.536   7.984  12.162
99811SOL    HW1 1330  12.548   8.057  12.223
99811SOL    HW2 1331  12.470   7.928  12.203
99812SOL     OW 1332  10.958   1.786   1.340
99812SOL    HW1 1333  11.028   1.733   1.300
99812SOL    HW2 1334  10.973   1.874   1.307
99813SOL     OW 1335  11.924   0.383   1.126
99813SOL    HW1 1336  11.962   0.447   1.185
99813SOL    HW2 1337  11.903   0.432   1.046
99814SOL     OW 1338   4.560   2.057   0.399
99814SOL    HW1 1339   4.511   2.103   0.467
99814SOL    HW2 1340   4.616   1.996   0.447
99815SOL     OW 1341   8.361   1.551   0.537
99815SOL    HW1 1342   8.321   1.530   0.622
99815SOL    HW2 1343   8.289   1.543   0.474
99816SOL     OW 1344   2.748   2.056  14.865
99816SOL    HW1 1345   2.739   1.983  14.804
99816SOL    HW2 1346   2.748   2.134  14.810
99817SOL     OW 1347  13.873   0.831   5.288
99817SOL    HW1 1348  13.822   0.831   5.207
99817SOL    HW2 1349  13.926   0.911   5.283
99818SOL     OW 1350   9.451  13.296   2.759
99818SOL    HW1 1351   9.424  13.336   2.842
99818SOL    HW2 1352   9.539  13.332   2.744
99819SOL     OW 1353   0.533   1.985   5.344
99819SOL    HW1 1354   0.482   2.017   5.270
99819SOL    HW2 1355   0.573   1.904   5.312
99820SOL     OW 1356   4.732   8.971   2.280
99820SOL    HW1 1357   4.766   8.994   2.194
99820SOL    HW2 1358   4.808   8.939   2.329
99821SOL     OW 1359   9.144   7.146   6.627
99821SOL    HW1 1360   9.088   7.164   6.702
99821SOL    HW2 1361   9.157   7.051   6.630
99822SOL     OW 1362   7.443   0.017   8.860
99822SOL    HW1 1363   7.502  14.827   8.908
99822SOL    HW2 1364   7.468   0.104   8.890
99823SOL     OW 1365   7.384  10.497   1.739
99823SOL    HW1 1366   7.473  10.528   1.723
99823SOL    HW2 1367   7.388  10.453   1.824
99824SOL     OW 1368   1.354   5.844  12.050
99824SOL    HW1 1369   1.369   5.757  12.089
99824SOL    HW2 1370   1.349   5.903  12.125
99825SOL     OW 1371  13.520   9.143   2.266
99825SOL    HW1 1372  13.484   9.054   2.271
99825SOL    HW2 1373  13.613   9.130   2.247
99826SOL     OW 1374   3.184   2.977   1.066
99826SOL    HW1 1375   3.125   3.038   1.110
99826SOL    HW2 1376   3.163   2.892   1.105
99827SOL     OW 1377   5.760   8.700  10.670
99827SOL    HW1 1378   5.837   8.748  10.700
99827SOL    HW2 1379   5.779   8.609  10.692
99828SOL     OW 1380   9.639   7.398   5.245
99828SOL    HW1 1381   9.654   7.335   5.176
99828SOL    HW2 1382   9.707   7.380   5.310
99829SOL     OW 1383   9.692   7.450   4.065
99829SOL    HW1 1384   9.749   7.450   4.142
99829SOL    HW2 1385   9.681   7.358   4.043
99830SOL     OW 1386   0.153  13.451   3.180
99830SOL    HW1 1387   0.167  13.385   3.247
99830SOL    HW2 1388   0.084  13.507   3.216
99831SOL     OW 1389   9.091   2.325   9.853
99831SOL    HW1 1390   9.117   2.324   9.761
99831SOL    HW2 1391   9.027   2.254   9.861
99832SOL     OW 1392   4.511  12.647   9.631
99832SOL    HW1 1393   4.566  12.648   9.553
99832SOL    HW2 1394   4.518  12.735   9.667
99833SOL     OW 1395   8.422  13.761   5.128
99833SOL    HW1 1396   8.415  13.804   5.214
99833SOL    HW2 1397   8.337  13.776   5.087
99834SOL     OW 1398  10.979  13.509   4.130
99834SOL    HW1 1399  10.960  13.439   4.068
99834SOL    HW2 1400  11.059  13.480   4.174
99835SOL     OW 1401   7.509  14.455  11.457
99835SOL    HW1 1402   7.417  14.443  11.434
99835SOL    HW2 1403   7.521  14.550  11.461
99836SOL     OW 1404  14.802   1.605   9.079
99836SOL    HW1 1405  14.809   1.512   9.055
99836SOL    HW2 1406   0.000   1.648   9.027
99837SOL     OW 1407   2.122  14.624  13.051
99837SOL    HW1 1408   2.037  14.669  13.055
99837SOL    HW2 1409   2.133  14.602  12.958
99838SOL     OW 1410  11.608   9.726   0.146
99838SOL    HW1 1411  11.585   9.765   0.230
99838SOL    HW2 1412  11.687   9.772   0.119
99839SOL     OW 1413   8.402  14.639   2.986
99839SOL    HW1 1414   8.346  14.677   2.918
99839SOL    HW2 1415   8.382  14.545   2.983
99840SOL     OW 1416  12.348   6.012  13.254
99840SOL    HW1 1417  12.285   6.022  13.183
99840SOL    HW2 1418  12.398   6.093  13.253
99841SOL     OW 1419   0.773   8.975   7.317
99841SOL    HW1 1420   0.736   8.955   7.403
99841SOL    HW2 1421   0.702   9.018   7.269
99842SOL     OW 1422   9.248  14.591   2.059
99842SOL    HW1 1423   9.199  14.557   1.984
99842SOL    HW2 1424   9.246  14.520   2.123
99843SOL     OW 1425   9.371  11.249   3.527
99843SOL    HW1 1426   9.337  11.239   3.438
99843SOL    HW2 1427   9.324  11.324   3.563
99844SOL     OW 1428   5.259   8.869  11.680
99844SOL    HW1 1429   5.298   8.900  11.762
99844SOL    HW2 1430   5.291   8.780  11.671
99845SOL     OW 1431  11.199   8.785  11.783
99845SOL    HW1 1432  11.256   8.861  11.785
99845SOL    HW2 1433  11.114   8.819  11.812
99846SOL     OW 1434   3.699   3.413   1.824
99846SOL    HW1 1435   3.625   3.358   1.796
99846SOL    HW2 1436   3.711   3.391   1.916
99847SOL     OW 1437  11.539   1.251   5.238
99847SOL    HW1 1438  11.617   1.288   5.278
99847SOL    HW2 1439  11.471   1.317   5.253
99848SOL     OW 1440   4.184  11.311   8.399
99848SOL    HW1 1441   4.197  11.403   8.425
99848SOL    HW2 1442   4.178  11.264   8.482
99849SOL     OW 1443  10.246   6.472   5.293
99849SOL    HW1 1444  10.273   6.489   5.203
99849SOL    HW2 1445  10.183   6.400   5.285
99850SOL     OW 1446   8.622  10.837   9.828
99850SOL    HW1 1447   8.596  10.929   9.832
99850SOL    HW2 1448   8.641  10.814   9.919
99851SOL     OW 1449  12.973   7.187   8.632
99851SOL    HW1 1450  12.929   7.224   8.708
99851SOL    HW2 1451  13.004   7.263   8.583
99852SOL     OW 1452   2.612   3.201   8.732
99852SOL    HW1 1453   2.621   3.112   8.698
99852SOL    HW2 1454   2.528   3.201   8.779
99853SOL     OW 1455  14.551  14.456   3.692
99853SOL    HW1 1456  14.509  14.376   3.661
99853SOL    HW2 1457  14.517  14.467   3.781
99854SOL     OW 1458  12.819   8.031   0.819
99854SOL    HW1 1459  12.907   8.051   0.849
99854SOL    HW2 1460  12.801   7.943   0.853
99855SOL     OW 1461  10.992   3.211  10.340
99855SOL    HW1 1462  11.034   3.142  10.289
99855SOL    HW2 1463  10.908   3.173  10.366
99856SOL     OW 1464   9.883   2.583  12.543
99856SOL    HW1 1465   9.941   2.659  12.546
99856SOL    HW2 1466   9.878   2.560  12.451
99857SOL     OW 1467   5.294  10.472   6.491
99857SOL    HW1 1468   5.387  10.496   6.488
99857SOL    HW2 1469   5.254  10.521   6.419
99858SOL     OW 1470   7.759   6.120   4.929
99858SOL    HW1 1471   7.847   6.156   4.934
99858SOL    HW2 1472   7.767   6.031   4.964
99859SOL     OW 1473   4.202   8.179   8.857
99859SOL    HW1 1474   4.227   8.118   8.789
99859SOL    HW2 1475   4.225   8.135   8.939
99860SOL     OW 1476  12.126  12.546   5.595
99860SOL    HW1 1477  12.037  12.582   5.590
99860SOL    HW2 1478  12.134  12.492   5.517
99861SOL     OW 1479  12.456   1.909  11.836
99861SOL    HW1 1480  12.383   1.848  11.823
99861SOL    HW2 1481  12.488   1.891  11.924
99862SOL     OW 1482   7.123   2.492  11.825
99862SOL    HW1 1483   7.159   2.408  11.853
99862SOL    HW2 1484   7.175   2.557  11.871
99863SOL     OW 1485  12.029   9.272   6.743
99863SOL    HW1 1486  12.098   9.279   6.810
99863SOL    HW2 1487  12.043   9.186   6.704
99864SOL     OW 1488  10.561   6.480   5.198
99864SOL    HW1 1489  10.606   6.552   5.242
99864SOL    HW2 1490  10.520   6.430   5.269
99865SOL     OW 1491   4.934  12.563   8.190
99865SOL    HW1 1492   4.932  12.659   8.193
99865SOL    HW2 1493   4.974  12.537   8.273
99866SOL     OW 1494   6.595  11.911  14.555
99866SOL    HW1 1495   6.576  11.821  14.528
99866SOL    HW2 1496   6.690  11.915  14.564
99867SOL     OW 1497   5.375   6.335   5.279
99867SOL    HW1 1498   5.346   6.414   5.233
99867SOL    HW2 1499   5.428   6.368   5.352
99868SOL     OW 1500  13.122   2.363  13.019
99868SOL    HW1 1501  13.193   2.301  13.035
99868SOL    HW2 1502  13.042   2.314  13.039
99869SOL     OW 1503  12.166   2.047  10.396
99869SOL    HW1 1504  12.145   2.077  10.307
99869SOL    HW2 1505  12.238   2.103  10.424
99870SOL     OW 1506  11.027   1.634   1.827
99870SOL    HW1 1507  11.064   1.545   1.825
99870SOL    HW2 1508  11.003   1.653   1.737
99871SOL     OW 1509  10.505   7.860  10.175
99871SOL    HW1 1510  10.466   7.790  10.227
99871SOL    HW2 1511  10.431   7.900  10.129
99872SOL     OW 1512   9.879  11.810  11.164
99872SOL    HW1 1513   9.867  11.725  11.121
99872SOL    HW2 1514   9.848  11.873  11.099
99873SOL     OW 1515  13.578   3.851  10.164
99873SOL    HW1 1516  13.660   3.821  10.203
99873SOL    HW2 1517  13.545   3.776  10.115
99874SOL     OW 1518  10.647   7.754   2.467
99874SOL    HW1 1519  10.740   7.758   2.447
99874SOL    HW2 1520  10.619   7.846   2.469
99875SOL     OW 1521   7.047   7.630   5.845
99875SOL    HW1 1522   7.066   7.710   5.893
99875SOL    HW2 1523   6.952   7.632   5.832
99876SOL     OW 1524   3.525   1.191   2.358
99876SOL    HW1 1525   3.583   1.180   2.282
99876SOL    HW2 1526   3.572   1.250   2.416
99877SOL     OW 1527  14.843   1.493   1.937
99877SOL    HW1 1528  14.763   1.440   1.938
99877SOL    HW2 1529   0.027   1.455   1.867
99878SOL     OW 1530   2.054   6.460  12.645
99878SOL    HW1 1531   2.126   6.500  12.596
99878SOL    HW2 1532   2.082   6.370  12.659
99879SOL     OW 1533   0.473   0.628  11.498
99879SOL    HW1 1534   0.399   0.684  11.522
99879SOL    HW2 1535   0.548   0.666  11.546
99880SOL     OW 1536   5.117   2.423   9.894
99880SOL    HW1 1537   5.160   2.506   9.874
99880SOL    HW2 1538   5.177   2.357   9.860
99881SOL     OW 1539   0.472  11.008   8.839
99881SOL    HW1 1540   0.560  10.972   8.852
99881SOL    HW2 1541   0.483  11.075   8.772
99882SOL     OW 1542  12.723   2.839  11.338
99882SOL    HW1 1543  12.731   2.798  11.252
99882SOL    HW2 1544  12.691   2.770  11.395
99883SOL     OW 1545  10.617   3.766  11.495
99883SOL    HW1 1546  10.587   3.744  11.583
99883SOL    HW2 1547  10.558   3.835  11.465
99884SOL     OW 1548   1.106   8.071   9.352
99884SOL    HW1 1549   1.074   8.149   9.397
99884SOL    HW2 1550   1.175   8.037   9.409
99885SOL     OW 1551  10.335  11.112   2.668
99885SOL    HW1 1552  10.377  11.168   2.602
99885SOL    HW2 1553  10.395  11.114   2.743
99886SOL     OW 1554  11.787   0.854  12.047
99886SOL    HW1 1555  11.807   0.937  12.089
99886SOL    HW2 1556  11.752   0.879  11.961
99887SOL     OW 1557   6.603  11.381   5.286
99887SOL    HW1 1558   6.509  11.380   5.306
99887SOL    HW2 1559   6.636  11.460   5.328
99888SOL     OW 1560   4.068  10.372   9.392
99888SOL    HW1 1561   4.057  10.467   9.398
99888SOL    HW2 1562   4.153  10.356   9.434
99889SOL     OW 1563   7.073   2.222   7.683
99889SOL    HW1 1564   6.991   2.218   7.732
99889SOL    HW2 1565   7.133   2.268   7.742
99890SOL     OW 1566   8.138  12.063   7.755
99890SOL    HW1 1567   8.169  11.980   7.791
99890SOL    HW2 1568   8.184  12.071   7.672
99891SOL     OW 1569   4.579  14.768   9.277
99891SOL    HW1 1570   4.586  14.679   9.241
99891SOL    HW2 1571   4.664  14.783   9.320
99892SOL     OW 1572   4.028  12.022   5.132
99892SOL    HW1 1573   4.110  12.042   5.087
99892SOL    HW2 1574   4.000  12.105   5.169
99893SOL     OW 1575   0.331  10.987   5.397
99893SOL    HW1 1576   0.307  11.077   5.376
99893SOL    HW2 1577   0.423  10.980   5.370
99894SOL     OW 1578   7.622   8.117   9.256
99894SOL    HW1 1579   7.577   8.058   9.316
99894SOL    HW2 1580   7.638   8.196   9.308
99895SOL     OW 1581   4.491  12.395   5.086
99895SOL    HW1 1582   4.520  12.418   4.997
99895SOL    HW2 1583   4.540  12.315   5.107
99896SOL     OW 1584   3.145   5.190  11.045
99896SOL    HW1 1585   3.117   5.145  10.965
99896SOL    HW2 1586   3.226   5.234  11.021
99897SOL     OW 1587   3.232   8.866   4.238
99897SOL    HW1 1588   3.246   8.818   4.319
99897SOL    HW2 1589   3.217   8.956   4.266
99898SOL     OW 1590   7.555   1.031   9.588
99898SOL    HW1 1591   7.600   1.040   9.672
99898SOL    HW2 1592   7.604   1.087   9.528
99899SOL     OW 1593   2.240   3.405   6.673
99899SOL    HW1 1594   2.313   3.375   6.619
99899SOL    HW2 1595   2.185   3.328   6.685
99900SOL     OW 1596   9.134  13.567   8.922
99900SOL    HW1 1597   9.095  13.569   8.834
99900SOL    HW2 1598   9.133  13.659   8.950
99901SOL     OW 1599  14.666   3.972   5.551
99901SOL    HW1 1600  14.637   3.965   5.460
99901SOL    HW2 1601  14.757   4.001   5.546
99902SOL     OW 1602   3.129   4.709   5.240
99902SOL    HW1 1603   3.135   4.798   5.205
99902SOL    HW2 1604   3.156   4.717   5.331
99903SOL     OW 1605   3.627   9.584   7.964
99903SOL    HW1 1606   3.633   9.611   7.873
99903SOL    HW2 1607   3.671   9.654   8.013
99904SOL     OW 1608  13.091   0.955   0.232
99904SOL    HW1 1609  13.173   0.908   0.247
99904SOL    HW2 1610  13.101   0.992   0.144
99905SOL     OW 1611  11.040   6.514   8.303
99905SOL    HW1 1612  11.090   6.515   8.384
99905SOL    HW2 1613  11.007   6.604   8.294
99906SOL     OW 1614   7.361   4.703   1.015
99906SOL    HW1 1615   7.270   4.673   1.014
99906SOL    HW2 1616   7.371   4.747   1.100
99907SOL     OW 1617  12.729   4.293   5.133
99907SOL    HW1 1618  12.801   4.333   5.084
99907SOL    HW2 1619  12.677   4.249   5.066
99908SOL     OW 1620   0.462  10.717  14.752
99908SOL    HW1 1621   0.378  10.671  14.751
99908SOL    HW2 1622   0.527  10.649  14.738
99909SOL     OW 1623   4.681   3.472  12.856
99909SOL    HW1 1624   4.639   3.396  12.896
99909SOL    HW2 1625   4.761   3.438  12.815
99910SOL     OW 1626  12.415   8.648   3.688
99910SOL    HW1 1627  12.436   8.570   3.637
99910SOL    HW2 1628  12.499   8.680   3.721
99911SOL     OW 1629   8.643   9.847   4.522
99911SOL    HW1 1630   8.736   9.868   4.532
99911SOL    HW2 1631   8.639   9.752   4.534
99912SOL     OW 1632   4.935  10.776  13.710
99912SOL    HW1 1633   5.025  10.745  13.714
99912SOL    HW2 1634   4.886  10.715  13.765
99913SOL     OW 1635   3.715   7.494  11.210
99913SOL    HW1 1636   3.807   7.479  11.190
99913SOL    HW2 1637   3.713   7.514  11.303
99914SOL     OW 1638   5.051   7.093   0.256
99914SOL    HW1 1639   5.088   7.163   0.202
99914SOL    HW2 1640   5.034   7.022   0.193
99915SOL     OW 1641   2.950  12.584   8.023
99915SOL    HW1 1642   2.935  12.668   7.980
99915SOL    HW2 1643   2.893  12.522   7.976
99916SOL     OW 1644   7.091   2.433   6.931
99916SOL    HW1 1645   7.155   2.377   6.975
99916SOL    HW2 1646   7.136   2.517   6.919
99917SOL     OW 1647   4.239  10.218   5.708
99917SOL    HW1 1648   4.325  10.180   5.728
99917SOL    HW2 1649   4.177  10.147   5.728
99918SOL     OW 1650   9.200  14.462  12.282
99918SOL    HW1 1651   9.134  14.433  12.219
99918SOL    HW2 1652   9.283  14.451  12.235
99919SOL     OW 1653   4.656  13.841  13.934
99919SOL    HW1 1654   4.715  13.909  13.967
99919SOL    HW2 1655   4.714  13.773  13.900
99920SOL     OW 1656   0.683   2.041   7.341
99920SOL    HW1 1657   0.597   2.000   7.334
99920SOL    HW2 1658   0.702   2.073   7.253
99921SOL     OW 1659   7.739   9.155  13.763
99921SOL    HW1 1660   7.828   9.130  13.739
99921SOL    HW2 1661   7.729   9.245  13.731
99922SOL     OW 1662   0.952   4.147   6.747
99922SOL    HW1 1663   0.924   4.238   6.757
99922SOL    HW2 1664   0.972   4.138   6.654
99923SOL     OW 1665  12.445  14.475   0.750
99923SOL    HW1 1666  12.426  14.384   0.774
99923SOL    HW2 1667  12.541  14.482   0.758
99924SOL     OW 1668   6.273   4.090   9.471
99924SOL    HW1 1669   6.182   4.119   9.466
99924SOL    HW2 1670   6.311   4.116   9.387
99925SOL     OW 1671   4.148  11.353   0.379
99925SOL    HW1 1672   4.097  11.348   0.460
99925SOL    HW2 1673   4.139  11.443   0.350
99926SOL     OW 1674   7.236   7.498   5.095
99926SOL    HW1 1675   7.171   7.435   5.127
99926SOL    HW2 1676   7.320   7.455   5.109
99927SOL     OW 1677   2.860   8.135   5.797
99927SOL    HW1 1678   2.786   8.079   5.772
99927SOL    HW2 1679   2.933   8.103   5.745
99928SOL     OW 1680   4.556   9.034   9.489
99928SOL    HW1 1681   4.570   8.941   9.473
99928SOL    HW2 1682   4.619   9.056   9.559
99929SOL     OW 1683   7.663   3.832   0.273
99929SOL    HW1 1684   7.707   3.748   0.284
99929SOL    HW2 1685   7.572   3.809   0.252
99930SOL     OW 1686   3.366  13.415   3.356
99930SOL    HW1 1687   3.429  13.487   3.350
99930SOL    HW2 1688   3.414  13.339   3.324
99931SOL     OW 1689   5.052   3.973   7.468
99931SOL    HW1 1690   5.110   3.902   7.497
99931SOL    HW2 1691   5.058   4.039   7.537
99932SOL     OW 1692   5.437   7.749   6.455
99932SOL    HW1 1693   5.384   7.671   6.469
99932SOL    HW2 1694   5.374   7.820   6.446
99933SOL     OW 1695  10.029  13.793   7.898
99933SOL    HW1 1696   9.945  13.774   7.856
99933SOL    HW2 1697  10.041  13.721   7.961
99934SOL     OW 1698   5.185  11.865   5.983
99934SOL    HW1 1699   5.096  11.839   5.959
99934SOL    HW2 1700   5.206  11.812   6.059
99935SOL     OW 1701   6.206   1.573   8.892
99935SOL    HW1 1702   6.120   1.561   8.932
99935SOL    HW2 1703   6.190   1.632   8.818
99936SOL     OW 1704   0.319   7.217   2.219
99936SOL    HW1 1705   0.334   7.282   2.150
99936SOL    HW2 1706   0.226   7.195   2.213
99937SOL     OW 1707  12.648  13.869  12.009
99937SOL    HW1 1708  12.607  13.782  12.007
99937SOL    HW2 1709  12.681  13.882  11.920
99938SOL     OW 1710   0.122   2.848   0.967
99938SOL    HW1 1711   0.176   2.913   1.012
99938SOL    HW2 1712   0.085   2.895   0.892
99939SOL     OW 1713  13.707   9.976   2.626
99939SOL    HW1 1714  13.753  10.056   2.599
99939SOL    HW2 1715  13.773   9.926   2.674
99940SOL     OW 1716  14.602  14.543  14.681
99940SOL    HW1 1717  14.593  14.634  14.655
99940SOL    HW2 1718  14.533  14.529  14.746
99941SOL     OW 1719  11.874   8.884   6.538
99941SOL    HW1 1720  11.876   8.948   6.467
99941SOL    HW2 1721  11.781   8.864   6.550
99942SOL     OW 1722   1.728   1.084  14.839
99942SOL    HW1 1723   1.710   0.991  14.824
99942SOL    HW2 1724   1.762   1.115  14.755
99943SOL     OW 1725   9.614  11.780  14.697
99943SOL    HW1 1726   9.670  11.846  14.656
99943SOL    HW2 1727   9.609  11.709  14.633
99944SOL     OW 1728   2.037   0.654   7.392
99944SOL    HW1 1729   2.091   0.690   7.462
99944SOL    HW2 1730   1.952   0.698   7.403
99945SOL     OW 1731  14.816   9.733   2.087
99945SOL    HW1 1732  14.772   9.806   2.132
99945SOL    HW2 1733   0.029   9.771   2.056
99946SOL     OW 1734   9.232  14.225   6.434
99946SOL    HW1 1735   9.200  14.147   6.479
99946SOL    HW2 1736   9.232  14.202   6.342
99947SOL     OW 1737   9.736  12.976  14.585
99947SOL    HW1 1738   9.670  12.906  14.591
99947SOL    HW2 1739   9.817  12.931  14.560
99948SOL     OW 1740  13.983  13.540   5.385
99948SOL    HW1 1741  13.924  13.510   5.316
99948SOL    HW2 1742  13.993  13.634   5.369
99949SOL     OW 1743  10.755  10.287  13.419
99949SOL    HW1 1744  10.837  10.337  13.415
99949SOL    HW2 1745  10.763  10.223  13.348
99950SOL     OW 1746   0.436  10.793   7.810
99950SOL    HW1 1747   0.485  10.717   7.778
99950SOL    HW2 1748   0.503  10.849   7.849
99951SOL     OW 1749  14.701   3.490   6.498
99951SOL    HW1 1750  14.738   3.451   6.419
99951SOL    HW2 1751  14.651   3.566   6.467
99952SOL     OW 1752   2.698   7.467   6.266
99952SOL    HW1 1753   2.788   7.434   6.264
99952SOL    HW2 1754   2.658   7.432   6.186
99953SOL     OW 1755   0.420   6.566  12.177
99953SOL    HW1 1756   0.367   6.508  12.123
99953SOL    HW2 1757   0.372   6.573  12.259
99954SOL     OW 1758   0.005   6.118   4.176
99954SOL    HW1 1759  14.829   6.040   4.207
99954SOL    HW2 1760   0.044   6.156   4.254
99955SOL     OW 1761   3.780  13.315   8.295
99955SOL    HW1 1762   3.799  13.264   8.373
99955SOL    HW2 1763   3.859  13.368   8.280
99956SOL     OW 1764  12.860   0.762  14.448
99956SOL    HW1 1765  12.793   0.731  14.509
99956SOL    HW2 1766  12.850   0.708  14.370
99957SOL     OW 1767   3.987   4.843   3.546
99957SOL    HW1 1768   3.980   4.866   3.639
99957SOL    HW2 1769   3.908   4.881   3.506
99958SOL     OW 1770   3.539  12.044   6.481
99958SOL    HW1 1771   3.618  12.022   6.431
99958SOL    HW2 1772   3.469  12.042   6.417
99959SOL     OW 1773   8.867   3.640   0.134
99959SOL    HW1 1774   8.794   3.700   0.123
99959SOL    HW2 1775   8.926   3.659   0.062
99960SOL     OW 1776  10.706   1.016  11.218
99960SOL    HW1 1777  10.704   1.104  11.181
99960SOL    HW2 1778  10.638   1.017  11.285
99961SOL     OW 1779   2.629  10.985   7.218
99961SOL    HW1 1780   2.685  11.048   7.263
99961SOL    HW2 1781   2.647  10.901   7.261
99962SOL     OW 1782  13.820   5.957   3.496
99962SOL    HW1 1783  13.787   5.938   3.584
99962SOL    HW2 1784  13.902   6.005   3.510
99963SOL     OW 1785   6.354  11.374   2.735
99963SOL    HW1 1786   6.434  11.330   2.761
99963SOL    HW2 1787   6.367  11.397   2.643
99964SOL     OW 1788  12.511   1.355   3.398
99964SOL    HW1 1789  12.539   1.388   3.483
99964SOL    HW2 1790  12.427   1.312   3.415
99965SOL     OW 1791   1.123   2.278   5.693
99965SOL    HW1 1792   1.070   2.358   5.689
99965SOL    HW2 1793   1.139   2.265   5.787
99966SOL     OW 1794   2.573   8.885   2.712
99966SOL    HW1 1795   2.501   8.945   2.731
99966SOL    HW2 1796   2.614   8.869   2.797
99967SOL     OW 1797   2.708   9.430   9.822
99967SOL    HW1 1798   2.733   9.522   9.812
99967SOL    HW2 1799   2.789   9.381   9.808
99968SOL     OW 1800   9.073  14.660  10.998
99968SOL    HW1 1801   8.997  14.705  10.960
99968SOL    HW2 1802   9.072  14.686  11.091
99969SOL     OW 1803   4.523   9.085   1.228
99969SOL    HW1 1804   4.555   9.055   1.144
99969SOL    HW2 1805   4.432   9.054   1.231
99970SOL     OW 1806  11.650   7.445  12.684
99970SOL    HW1 1807  11.632   7.511  12.617
99970SOL    HW2 1808  11.572   7.390  12.685
99971SOL     OW 1809  10.885   4.309   7.272
99971SOL    HW1 1810  10.959   4.277   7.324
99971SOL    HW2 1811  10.923   4.374   7.213
99972SOL     OW 1812   6.526   0.287   2.389
99972SOL    HW1 1813   6.538   0.318   2.479
99972SOL    HW2 1814   6.569   0.354   2.335
99973SOL     OW 1815   8.783   0.111   5.318
99973SOL    HW1 1816   8.817   0.044   5.377
99973SOL    HW2 1817   8.701   0.075   5.284
99974SOL     OW 1818   0.240  11.022  14.194
99974SOL    HW1 1819   0.334  11.001  14.189
99974SOL    HW2 1820   0.202  10.948  14.241
99975SOL     OW 1821   1.909  11.709   8.440
99975SOL    HW1 1822   1.834  11.669   8.395
99975SOL    HW2 1823   1.898  11.685   8.532
99976SOL     OW 1824   4.640  11.817  12.710
99976SOL    HW1 1825   4.668  11.875  12.639
99976SOL    HW2 1826   4.552  11.789  12.685
99977SOL     OW 1827   4.489   9.709   5.435
99977SOL    HW1 1828   4.431   9.636   5.455
99977SOL    HW2 1829   4.512   9.746   5.520
99978SOL     OW 1830   6.425   0.602  13.665
99978SOL    HW1 1831   6.479   0.600  13.745
99978SOL    HW2 1832   6.465   0.669  13.611
99979SOL     OW 1833  14.433   3.212   2.663
99979SOL    HW1 1834  14.398   3.126   2.641
99979SOL    HW2 1835  14.466   3.202   2.753
99980SOL     OW 1836  14.475   1.553  14.346
99980SOL    HW1 1837  14.477   1.486  14.278
99980SOL    HW2 1838  14.457   1.634  14.299
99981SOL     OW 1839   3.727  12.568  13.169
99981SOL    HW1 1840   3.677  12.487  13.170
99981SOL    HW2 1841   3.711  12.606  13.083
99982SOL     OW 1842  10.152   2.706  13.122
99982SOL    HW1 1843  10.107   2.727  13.204
99982SOL    HW2 1844  10.091   2.650  13.074
99983SOL     OW 1845  10.204   6.196   4.408
99983SOL    HW1 1846  10.176   6.232   4.492
99983SOL    HW2 1847  10.248   6.113   4.431
99984SOL     OW 1848   4.168  10.654   2.308
99984SOL    HW1 1849   4.213  10.739   2.304
99984SOL    HW2 1850   4.238  10.590   2.311
99985SOL     OW 1851  12.734   2.147   6.711
99985SOL    HW1 1852  12.725   2.231   6.665
99985SOL    HW2 1853  12.820   2.115   6.686
99986SOL     OW 1854   0.965   4.026   0.358
99986SOL    HW1 1855   1.031   4.096   0.357
99986SOL    HW2 1856   0.945   4.010   0.266
99987SOL     OW 1857  13.383   7.510   5.653
99987SOL    HW1 1858  13.302   7.475   5.689
99987SOL    HW2 1859  13.394   7.595   5.697
99988SOL     OW 1860   3.086   3.791  11.718
99988SOL    HW1 1861   3.097   3.778  11.812
99988SOL    HW2 1862   3.144   3.864  11.696
99989SOL     OW 1863   4.192  13.398  12.572
99989SOL    HW1 1864   4.124  13.417  12.506
99989SOL    HW2 1865   4.152  13.333  12.629
99990SOL     OW 1866   5.665   7.532  11.653
99990SOL    HW1 1867   5.671   7.600  11.586
99990SOL    HW2 1868   5.754   7.524  11.688
99991SOL     OW 1869   6.189   5.829   1.172
99991SOL    HW1 1870   6.195   5.859   1.262
99991SOL    HW2 1871   6.184   5.910   1.120
99992SOL     OW 1872  10.515   2.733  10.310
99992SOL    HW1 1873  10.420   2.730  10.295
99992SOL    HW2 1874  10.525   2.716  10.404
99993SOL     OW 1875   8.286   3.411   7.752
99993SOL    HW1 1876   8.250   3.422   7.665
99993SOL    HW2 1877   8.256   3.489   7.801
99994SOL     OW 1878   7.699   6.940  14.719
99994SOL    HW1 1879   7.753   6.926  14.798
99994SOL    HW2 1880   7.612   6.960  14.753
99995SOL     OW 1881   9.565   1.964   0.833
99995SOL    HW1 1882   9.607   1.882   0.804
99995SOL    HW2 1883   9.472   1.951   0.815
99996SOL     OW 1884  12.297  12.963   7.416
99996SOL    HW1 1885  12.252  12.967   7.333
99996SOL    HW2 1886  12.299  13.053   7.447
99997SOL     OW 1887   4.581  14.859  12.332
99997SOL    HW1 1888   4.624   0.052  12.275
99997SOL    HW2 1889   4.488   0.015  12.329
99998SOL     OW 1890   5.733   5.027   5.658
99998SOL    HW1 1891   5.730   5.103   5.716
99998SOL    HW2 1892   5.724   4.951   5.717
99999SOL     OW 1893   4.061   3.964   5.444
99999SOL    HW1 1894   4.037   3.902   5.514
99999SOL    HW2 1895   4.127   3.917   5.392
    0SOL     OW 1896   3.202   5.511  13.325
    0SOL    HW1 1897   3.197   5.417  13.311
    0SOL    HW2 1898   3.293   5.526  13.352
    1SOL     OW 1899   5.844   2.930  12.582
    1SOL    HW1 1900   5.936   2.957  12.586
    1SOL    HW2 1901   5.833   2.871  12.657
    2SOL     OW 1902   6.914  11.069   0.371
    2SOL    HW1 1903   6.843  11.100   0.429
    2SOL    HW2 1904   6.882  11.087   0.283
    3SOL     OW 1905   3.048  11.481   9.897
    3SOL    HW1 1906   3.033  11.557   9.841
    3SOL    HW2 1907   2.961  11.457   9.929
    4SOL     OW 1908   4.565   1.881   2.551
    4SOL    HW1 1909   4.513   1.961   2.562
    4SOL    HW2 1910   4.512   1.813   2.592
    5SOL     OW 1911  11.937  11.416   2.950
    5SOL    HW1 1912  11.916  11.467   3.028
    5SOL    HW2 1913  11.893  11.332   2.963
    6SOL     OW 1914  11.010  12.561   0.658
    6SOL    HW1 1915  11.090  12.533   0.702
    6SOL    HW2 1916  10.970  12.480   0.626
    7SOL     OW 1917   0.560   6.573  14.259
    7SOL    HW1 1918   0.489   6.521  14.295
    7SOL    HW2 1919   0.627   6.508  14.234
    8SOL     OW 1920   3.968   4.842   4.365
    8SOL    HW1 1921   3.931   4.841   4.276
    8SOL    HW2 1922   4.060   4.819   4.353
    9SOL     OW 1923   0.349   1.698   2.835
    9SOL    HW1 1924   0.344   1.648   2.917
    9SOL    HW2 1925   0.399   1.642   2.775
   10SOL     OW 1926   6.698  12.252  12.967
   10SOL    HW1 1927   6.644  12.331  12.969
   10SOL    HW2 1928   6.764  12.270  12.900
   11SOL     OW 1929   8.755  10.072  12.312
   11SOL    HW1 1930   8.671  10.094  12.271
   11SOL    HW2 1931   8.755   9.976  12.318
   12SOL     OW 1932  11.880  14.840  10.443
   12SOL    HW1 1933  11.825   0.012  10.377
   12SOL    HW2 1934  11.842  14.752  10.454
   13SOL     OW 1935   1.639   9.939   2.254
   13SOL    HW1 1936   1.733   9.955   2.242
   13SOL    HW2 1937   1.597   9.988   2.183
   14SOL     OW 1938   6.700   3.704   9.954
   14SOL    HW1 1939   6.693   3.610   9.972
   14SOL    HW2 1940   6.651   3.717   9.873
   15SOL     OW 1941   5.067  11.649   5.147
   15SOL    HW1 1942   5.106  11.718   5.200
   15SOL    HW2 1943   5.137  11.585   5.136
   16SOL     OW 1944   9.866   7.303  11.987
   16SOL    HW1 1945   9.896   7.359  11.916
   16SOL    HW2 1946   9.931   7.315  12.056
   17SOL     OW 1947   4.409  14.137   5.790
   17SOL    HW1 1948   4.500  14.164   5.777
   17SOL    HW2 1949   4.410  14.089   5.873
   18SOL     OW 1950   9.351  11.403   0.464
   18SOL    HW1 1951   9.427  11.377   0.412
   18SOL    HW2 1952   9.378  11.389   0.554
   19SOL     OW 1953  11.859   4.999   5.438
   19SOL    HW1 1954  11.833   4.927   5.382
   19SOL    HW2 1955  11.798   4.994   5.513
   20SOL     OW 1956   4.030  12.907   0.947
   20SOL    HW1 1957   4.095  12.913   1.017
   20SOL    HW2 1958   4.028  12.995   0.909
   21SOL     OW 1959  13.595   6.512  11.689
   21SOL    HW1 1960  13.675   6.557  11.661
   21SOL    HW2 1961  13.578   6.546  11.777
   22SOL     OW 1962   9.193   4.745   2.138
   22SOL    HW1 1963   9.185   4.833   2.102
   22SOL    HW2 1964   9.103   4.721   2.163
   23SOL     OW 1965  14.599   6.035   4.454
   23SOL    HW1 1966  14.650   6.032   4.536
   23SOL    HW2 1967  14.649   5.981   4.393
   24SOL     OW 1968   3.718   2.604  11.784
   24SOL    HW1 1969   3.738   2.685  11.737
   24SOL    HW2 1970   3.739   2.534  11.722
   25SOL     OW 1971   3.851   7.531   6.625
   25SOL    HW1 1972   3.801   7.514   6.545
   25SOL    HW2 1973   3.846   7.448   6.673
   26SOL     OW 1974   7.045   0.797   9.984
   26SOL    HW1 1975   6.949   0.799   9.974
   26SOL    HW2 1976   7.074   0.885   9.962
   27SOL     OW 1977   9.662   2.977   6.445
   27SOL    HW1 1978   9.599   2.929   6.392
   27SOL    HW2 1979   9.629   2.969   6.534
   28SOL     OW 1980  10.714   4.174  13.651
   28SOL    HW1 1981  10.625   4.205  13.636
   28SOL    HW2 1982  10.753   4.170  13.564
   29SOL     OW 1983  12.421  14.192   1.656
   29SOL    HW1 1984  12.348  14.223   1.603
   29SOL    HW2 1985  12.497  14.196   1.597
   30SOL     OW 1986  11.643   2.228   1.409
   30SOL    HW1 1987  11.654   2.137   1.436
   30SOL    HW2 1988  11.643   2.277   1.491
   31SOL     OW 1989   4.502   4.807   3.927
   31SOL    HW1 1990   4.524   4.776   4.015
   31SOL    HW2 1991   4.502   4.902   3.934
   32SOL     OW 1992  14.574   8.847   4.744
   32SOL    HW1 1993  14.596   8.754   4.753
   32SOL    HW2 1994  14.481   8.852   4.765
   33SOL     OW 1995   0.987   3.213   1.288
   33SOL    HW1 1996   0.924   3.210   1.360
   33SOL    HW2 1997   0.978   3.301   1.251
   34SOL     OW 1998   7.479   9.790  10.672
   34SOL    HW1 1999   7.438   9.777  10.587
   34SOL    HW2 2000   7.413   9.839  10.722
   35SOL     OW 2001   5.402  11.664   5.322
   35SOL    HW1 2002   5.414  11.743   5.269
   35SOL    HW2 2003   5.428  11.691   5.411
   36SOL     OW 2004   3.056   4.550   9.041
   36SOL    HW1 2005   3.101   4.529   8.959
   36SOL    HW2 2006   3.100   4.629   9.072
   37SOL     OW 2007   4.227  11.714   6.454
   37SOL    HW1 2008   4.266  11.632   6.423
   37SOL    HW2 2009   4.134  11.695   6.465
   38SOL     OW 2010   2.883   6.203   6.503
   38SOL    HW1 2011   2.867   6.111   6.482
   38SOL    HW2 2012   2.904   6.203   6.596
   39SOL     OW 2013   9.113   0.464   3.368
   39SOL    HW1 2014   9.202   0.430   3.365
   39SOL    HW2 2015   9.088   0.458   3.460
   40SOL     OW 2016   0.869  12.809   8.625
   40SOL    HW1 2017   0.960  12.811   8.595
   40SOL    HW2 2018   0.856  12.720   8.656
   41SOL     OW 2019   9.902  10.671   7.900
   41SOL    HW1 2020   9.890  10.588   7.947
   41SOL    HW2 2021   9.970  10.651   7.835
   42SOL     OW 2022  10.570   8.591   7.033
   42SOL    HW1 2023  10.649   8.645   7.039
   42SOL    HW2 2024  10.529   8.597   7.119
   43SOL     OW 2025  10.705  11.072   4.878
   43SOL    HW1 2026  10.661  11.148   4.915
   43SOL    HW2 2027  10.636  11.007   4.866
   44SOL     OW 2028  12.576   6.807   9.228
   44SOL    HW1 2029  12.627   6.831   9.151
   44SOL    HW2 2030  12.486   6.800   9.195
   45SOL     OW 2031   1.258  14.546   1.114
   45SOL    HW1 2032   1.227  14.546   1.024
   45SOL    HW2 2033   1.353  14.550   1.107
   46SOL     OW 2034   9.758  11.591   1.361
   46SOL    HW1 2035   9.722  11.512   1.401
   46SOL    HW2 2036   9.718  11.663   1.411
   47SOL     OW 2037  13.650   8.044   4.152
   47SOL    HW1 2038  13.715   7.988   4.196
   47SOL    HW2 2039  13.641   8.120   4.209
   48SOL     OW 2040  10.779   0.040  10.666
   48SOL    HW1 2041  10.686   0.020  10.682
   48SOL    HW2 2042  10.782   0.065  10.573
   49SOL     OW 2043   3.251   3.226   3.154
   49SOL    HW1 2044   3.325   3.168   3.173
   49SOL    HW2 2045   3.252   3.290   3.225
   50SOL     OW 2046   4.507   8.561  12.981
   50SOL    HW1 2047   4.555   8.500  13.036
   50SOL    HW2 2048   4.574   8.621  12.948
   51SOL     OW 2049  13.054  12.255   5.837
   51SOL    HW1 2050  13.026  12.228   5.749
   51SOL    HW2 2051  12.983  12.312   5.867
   52SOL     OW 2052   3.769   5.522  10.040
   52SOL    HW1 2053   3.852   5.481  10.063
   52SOL    HW2 2054   3.793   5.609  10.009
   53SOL     OW 2055   4.455  14.349  10.291
   53SOL    HW1 2056   4.499  14.393  10.364
   53SOL    HW2 2057   4.460  14.412  10.219
   54SOL     OW 2058   8.096   7.845  11.829
   54SOL    HW1 2059   8.099   7.843  11.924
   54SOL    HW2 2060   8.003   7.860  11.808
   55SOL     OW 2061  14.272  11.067  14.764
   55SOL    HW1 2062  14.341  11.056  14.830
   55SOL    HW2 2063  14.239  11.156  14.777
   56SOL     OW 2064   8.571   6.201   7.788
   56SOL    HW1 2065   8.477   6.192   7.770
   56SOL    HW2 2066   8.576   6.229   7.879
   57SOL     OW 2067   8.078   0.592   3.526
   57SOL    HW1 2068   8.153   0.547   3.485
   57SOL    HW2 2069   8.107   0.608   3.616
   58SOL     OW 2070   4.117   0.593   2.301
   58SOL    HW1 2071   4.132   0.669   2.246
   58SOL    HW2 2072   4.126   0.626   2.391
   59SOL     OW 2073   9.398  14.702  12.069
   59SOL    HW1 2074   9.411  14.727  11.978
   59SOL    HW2 2075   9.325  14.756  12.098
   60SOL     OW 2076   6.496  11.211   7.394
   60SOL    HW1 2077   6.532  11.174   7.314
   60SOL    HW2 2078   6.572  11.243   7.443
   61SOL     OW 2079   2.436   8.915   0.048
   61SOL    HW1 2080   2.471   8.982  14.859
   61SOL    HW2 2081   2.349   8.896   0.012
   62SOL     OW 2082   2.832  12.283   3.821
   62SOL    HW1 2083   2.840  12.188   3.826
   62SOL    HW2 2084   2.919  12.313   3.796
   63SOL     OW 2085   0.554  10.094   6.614
   63SOL    HW1 2086   0.615  10.122   6.682
   63SOL    HW2 2087   0.497  10.171   6.599
   64SOL     OW 2088   2.622   2.622   0.897
   64SOL    HW1 2089   2.588   2.703   0.861
   64SOL    HW2 2090   2.708   2.645   0.932
   65SOL     OW 2091   6.356   4.478   3.686
   65SOL    HW1 2092   6.369   4.479   3.781
   65SOL    HW2 2093   6.401   4.556   3.654
   66SOL     OW 2094   1.954   1.520   2.383
   66SOL    HW1 2095   1.901   1.514   2.463
   66SOL    HW2 2096   2.003   1.438   2.381
   67SOL     OW 2097   0.335  13.144   7.925
   67SOL    HW1 2098   0.404  13.140   7.991
   67SOL    HW2 2099   0.256  13.167   7.975
   68SOL     OW 2100   7.323   4.294   9.813
   68SOL    HW1 2101   7.323   4.359   9.883
   68SOL    HW2 2102   7.392   4.322   9.753
   69SOL     OW 2103  11.444  13.598   0.983
   69SOL    HW1 2104  11.518  13.549   0.945
   69SOL    HW2 2105  11.442  13.680   0.934
   70SOL     OW 2106  12.237   8.598  13.981
   70SOL    HW1 2107  12.150   8.561  13.995
   70SOL    HW2 2108  12.297   8.526  14.001
   71SOL     OW 2109   9.718  14.067   8.653
   71SOL    HW1 2110   9.640  14.038   8.699
   71SOL    HW2 2111   9.764  14.122   8.716
   72SOL     OW 2112   9.612  13.042   0.677
   72SOL    HW1 2113   9.530  12.999   0.702
   72SOL    HW2 2114   9.617  13.032   0.582
   73SOL     OW 2115   7.254   5.090   0.307
   73SOL    HW1 2116   7.218   5.127   0.388
   73SOL    HW2 2117   7.339   5.132   0.298
   74SOL     OW 2118   3.093   5.677  13.553
   74SOL    HW1 2119   3.072   5.754  13.501
   74SOL    HW2 2120   3.124   5.612  13.489
   75SOL     OW 2121   6.486  12.539   6.183
   75SOL    HW1 2122   6.470  12.601   6.112
   75SOL    HW2 2123   6.492  12.593   6.262
   76SOL     OW 2124   8.553   3.357  10.487
   76SOL    HW1 2125   8.509   3.439  10.467
   76SOL    HW2 2126   8.605   3.375  10.566
   77SOL     OW 2127  12.233  11.374   8.067
   77SOL    HW1 2128  12.282  11.379   8.149
   77SOL    HW2 2129  12.270  11.299   8.021
   78SOL     OW 2130  12.689   1.612   4.862
   78SOL    HW1 2131  12.753   1.671   4.902
   78SOL    HW2 2132  12.726   1.524   4.873
   79SOL     OW 2133   2.055  10.175   9.192
   79SOL    HW1 2134   1.959  10.169   9.189
   79SOL    HW2 2135   2.079  10.129   9.273
   80SOL     OW 2136   8.801  14.523   8.722
   80SOL    HW1 2137   8.767  14.597   8.773
   80SOL    HW2 2138   8.776  14.445   8.771
   81SOL     OW 2139   1.615   7.800   9.603
   81SOL    HW1 2140   1.529   7.841   9.599
   81SOL    HW2 2141   1.677   7.872   9.587
   82SOL     OW 2142   3.309   4.846  12.155
   82SOL    HW1 2143   3.399   4.866  12.180
   82SOL    HW2 2144   3.316   4.765  12.104
   83SOL     OW 2145  10.211   3.268  12.227
   83SOL    HW1 2146  10.200   3.363  12.221
   83SOL    HW2 2147  10.184   3.235  12.141
   84SOL     OW 2148   0.607  10.359  12.317
   84SOL    HW1 2149   0.512  10.367  12.324
   84SOL    HW2 2150   0.622  10.277  12.271
   85SOL     OW 2151  10.899   2.811   2.519
   85SOL    HW1 2152  10.861   2.730   2.483
   85SOL    HW2 2153  10.869   2.880   2.459
   86SOL     OW 2154  14.097   1.806  14.302
   86SOL    HW1 2155  14.095   1.901  14.314
   86SOL    HW2 2156  14.075   1.794  14.210
   87SOL     OW 2157  11.147   4.640   1.806
   87SOL    HW1 2158  11.125   4.574   1.872
   87SOL    HW2 2159  11.194   4.592   1.738
   88SOL     OW 2160   3.091  13.368   1.805
   88SOL    HW1 2161   3.089  13.295   1.742
   88SOL    HW2 2162   3.052  13.332   1.884
   89SOL     OW 2163  14.806   4.926  13.763
   89SOL    HW1 2164   0.011   4.973  13.726
   89SOL    HW2 2165  14.816   4.836  13.731
   90SOL     OW 2166   4.169   2.069   5.827
   90SOL    HW1 2167   4.085   2.029   5.848
   90SOL    HW2 2168   4.149   2.132   5.758
   91SOL     OW 2169  10.984   9.586   6.059
   91SOL    HW1 2170  10.927   9.623   5.992
   91SOL    HW2 2171  10.959   9.494   6.063
   92SOL     OW 2172   4.754  13.831   0.617
   92SOL    HW1 2173   4.848  13.826   0.601
   92SOL    HW2 2174   4.720  13.879   0.542
   93SOL     OW 2175  12.310  13.648   6.532
   93SOL    HW1 2176  12.235  13.608   6.577
   93SOL    HW2 2177  12.316  13.736   6.569
   94SOL     OW 2178  14.836   5.002   6.376
   94SOL    HW1 2179  14.794   4.936   6.321
   94SOL    HW2 2180   0.059   4.975   6.380
   95SOL     OW 2181  13.819   3.726  12.829
   95SOL    HW1 2182  13.870   3.729  12.910
   95SOL    HW2 2183  13.735   3.689  12.855
   96SOL     OW 2184   4.383  13.792  13.933
   96SOL    HW1 2185   4.452  13.859  13.925
   96SOL    HW2 2186   4.422  13.713  13.895
   97SOL     OW 2187   3.579  10.624   7.615
   97SOL    HW1 2188   3.630  10.547   7.636
   97SOL    HW2 2189   3.600  10.687   7.684
   98SOL     OW 2190   8.898   6.670  13.032
   98SOL    HW1 2191   8.804   6.655  13.020
   98SOL    HW2 2192   8.902   6.748  13.088
   99SOL     OW 2193  11.531   2.820  12.400
   99SOL    HW1 2194  11.553   2.835  12.308
   99SOL    HW2 2195  11.520   2.907  12.437
  100SOL     OW 2196  13.531   1.723   9.653
  100SOL    HW1 2197  13.441   1.696   9.635
  100SOL    HW2 2198  13.550   1.684   9.738
  101SOL     OW 2199  10.140   4.494   0.484
  101SOL    HW1 2200  10.076   4.480   0.414
  101SOL    HW2 2201  10.089   4.481   0.565
  102SOL     OW 2202   1.988   6.681   7.802
  102SOL    HW1 2203   1.973   6.725   7.718
  102SOL    HW2 2204   2.082   6.684   7.814
  103SOL     OW 2205   1.942   5.126   1.390
  103SOL    HW1 2206   1.848   5.137   1.402
  103SOL    HW2 2207   1.971   5.209   1.354
  104SOL     OW 2208   5.176  13.784  10.869
  104SOL    HW1 2209   5.235  13.845  10.914
  104SOL    HW2 2210   5.092  13.796  10.912
  105SOL     OW 2211   9.162   4.486   9.979
  105SOL    HW1 2212   9.143   4.554   9.915
  105SOL    HW2 2213   9.086   4.484  10.036
  106SOL     OW 2214  12.977  14.007   3.157
  106SOL    HW1 2215  12.907  14.003   3.093
  106SOL    HW2 2216  13.057  13.995   3.106
  107SOL     OW 2217   6.039  11.222  11.991
  107SOL    HW1 2218   5.965  11.279  11.968
  107SOL    HW2 2219   6.068  11.185  11.908
  108SOL     OW 2220   5.162   7.864   5.399
  108SOL    HW1 2221   5.079   7.872   5.447
  108SOL    HW2 2222   5.157   7.932   5.332
  109SOL     OW 2223   3.780   8.456   4.070
  109SOL    HW1 2224   3.817   8.544   4.071
  109SOL    HW2 2225   3.830   8.410   4.003
  110SOL     OW 2226  10.771  12.593  12.015
  110SOL    HW1 2227  10.772  12.553  12.101
  110SOL    HW2 2228  10.842  12.550  11.967
  111SOL     OW 2229   9.817   5.079  11.571
  111SOL    HW1 2230   9.845   5.007  11.628
  111SOL    HW2 2231   9.785   5.146  11.632
  112SOL     OW 2232   2.147  10.003  11.753
  112SOL    HW1 2233   2.120   9.919  11.717
  112SOL    HW2 2234   2.243  10.002  11.746
  113SOL     OW 2235  14.845   9.591  11.632
  113SOL    HW1 2236   0.059   9.597  11.586
  113SOL    HW2 2237  14.803   9.513  11.594
  114SOL     OW 2238   2.318   8.527  13.252
  114SOL    HW1 2239   2.390   8.566  13.203
  114SOL    HW2 2240   2.342   8.540  13.344
  115SOL     OW 2241  11.169   4.826   8.830
  115SOL    HW1 2242  11.255   4.861   8.852
  115SOL    HW2 2243  11.138   4.786   8.911
  116SOL     OW 2244  11.337   4.625  12.847
  116SOL    HW1 2245  11.379   4.553  12.799
  116SOL    HW2 2246  11.336   4.698  12.785
  117SOL     OW 2247   8.360  11.992   1.500
  117SOL    HW1 2248   8.305  12.026   1.429
  117SOL    HW2 2249   8.396  12.070   1.542
  118SOL     OW 2250   5.050   2.478   6.826
  118SOL    HW1 2251   5.141   2.497   6.805
  118SOL    HW2 2252   5.001   2.505   6.748
  119SOL     OW 2253   6.806  10.238   3.043
  119SOL    HW1 2254   6.790  10.195   3.127
  119SOL    HW2 2255   6.869  10.181   2.999
  120SOL     OW 2256   4.964  10.800   0.725
  120SOL    HW1 2257   4.987  10.831   0.812
  120SOL    HW2 2258   5.045  10.805   0.675
  121SOL     OW 2259   9.057  12.753   6.386
  121SOL    HW1 2260   8.964  12.733   6.400
  121SOL    HW2 2261   9.073  12.732   6.294
  122SOL     OW 2262   6.118   7.389   7.599
  122SOL    HW1 2263   6.197   7.438   7.621
  122SOL    HW2 2264   6.078   7.367   7.684
  123SOL     OW 2265   3.358   5.380   4.243
  123SOL    HW1 2266   3.385   5.429   4.321
  123SOL    HW2 2267   3.293   5.318   4.274
  124SOL     OW 2268   4.986   6.909   5.597
  124SOL    HW1 2269   4.891   6.913   5.591
  124SOL    HW2 2270   5.018   6.964   5.526
  125SOL     OW 2271   4.648   2.114   6.332
  125SOL    HW1 2272   4.588   2.172   6.380
  125SOL    HW2 2273   4.723   2.169   6.310
  126SOL     OW 2274  13.561  12.647   4.999
  126SOL    HW1 2275  13.633  12.658   4.937
  126SOL    HW2 2276  13.482  12.650   4.945
  127SOL     OW 2277   8.934   2.284  13.239
  127SOL    HW1 2278   8.911   2.217  13.304
  127SOL    HW2 2279   8.852   2.301  13.192
  128SOL     OW 2280   8.852  11.737   5.807
  128SOL    HW1 2281   8.874  11.644   5.805
  128SOL    HW2 2282   8.910  11.774   5.874
  129SOL     OW 2283  10.521   4.494   2.217
  129SOL    HW1 2284  10.438   4.522   2.256
  129SOL    HW2 2285  10.530   4.402   2.243
  130SOL     OW 2286   8.251   7.751   0.381
  130SOL    HW1 2287   8.221   7.828   0.332
  130SOL    HW2 2288   8.229   7.770   0.472
  131SOL     OW 2289   3.195  14.561  12.344
  131SOL    HW1 2290   3.159  14.648  12.325
  131SOL    HW2 2291   3.241  14.571  12.427
  132SOL     OW 2292   9.078   0.206  13.713
  132SOL    HW1 2293   8.987   0.225  13.736
  132SOL    HW2 2294   9.095   0.261  13.636
  133SOL     OW 2295   5.150   3.230   3.773
  133SOL    HW1 2296   5.184   3.319   3.779
  133SOL    HW2 2297   5.227   3.174   3.778
  134SOL     OW 2298  14.615  14.599  12.117
  134SOL    HW1 2299  14.707  14.588  12.092
  134SOL    HW2 2300  14.573  14.517  12.088
  135SOL     OW 2301  10.769   6.040   3.460
  135SOL    HW1 2302  10.689   5.987   3.461
  135SOL    HW2 2303  10.840   5.975   3.457
  136SOL     OW 2304   4.077   9.075  13.077
  136SOL    HW1 2305   4.011   9.032  13.130
  136SOL    HW2 2306   4.054   9.168  13.079
  137SOL     OW 2307   7.322  10.459   4.574
  137SOL    HW1 2308   7.358  10.548   4.580
  137SOL    HW2 2309   7.352  10.416   4.653
  138SOL     OW 2310   7.271   5.748   8.075
  138SOL    HW1 2311   7.198   5.699   8.037
  138SOL    HW2 2312   7.258   5.838   8.042
  139SOL     OW 2313   9.966  12.247   4.267
  139SOL    HW1 2314   9.901  12.236   4.197
  139SOL    HW2 2315   9.921  12.220   4.347
  140SOL     OW 2316   2.161   6.022   0.943
  140SOL    HW1 2317   2.232   6.050   0.886
  140SOL    HW2 2318   2.082   6.029   0.889
  141SOL     OW 2319   4.112   2.689   1.742
  141SOL    HW1 2320   4.126   2.620   1.678
  141SOL    HW2 2321   4.079   2.763   1.691
  142SOL     OW 2322   7.067   1.018  14.133
  142SOL    HW1 2323   7.009   0.946  14.160
  142SOL    HW2 2324   7.130   0.977  14.075
  143SOL     OW 2325   5.230   1.964   0.463
  143SOL    HW1 2326   5.318   1.960   0.425
  143SOL    HW2 2327   5.229   2.045   0.513
  144SOL     OW 2328  13.413   2.773  12.252
  144SOL    HW1 2329  13.397   2.840  12.319
  144SOL    HW2 2330  13.396   2.690  12.297
  145SOL     OW 2331   4.703   5.006  11.413
  145SOL    HW1 2332   4.794   4.994  11.438
  145SOL    HW2 2333   4.653   4.952  11.474
  146SOL     OW 2334  13.416   1.319   9.736
  146SOL    HW1 2335  13.440   1.271   9.816
  146SOL    HW2 2336  13.494   1.311   9.681
  147SOL     OW 2337   3.215  14.009  14.449
  147SOL    HW1 2338   3.290  13.989  14.505
  147SOL    HW2 2339   3.147  13.948  14.477
  148SOL     OW 2340   4.075   9.360   0.230
  148SOL    HW1 2341   4.057   9.419   0.303
  148SOL    HW2 2342   4.171   9.364   0.220
  149SOL     OW 2343   6.148   8.537  14.669
  149SOL    HW1 2344   6.068   8.524  14.720
  149SOL    HW2 2345   6.128   8.500  14.583
  150SOL     OW 2346   0.454   6.283   0.712
  150SOL    HW1 2347   0.522   6.348   0.693
  150SOL    HW2 2348   0.383   6.306   0.653
  151SOL     OW 2349   2.262   3.130  10.611
  151SOL    HW1 2350   2.237   3.092  10.527
  151SOL    HW2 2351   2.333   3.072  10.642
  152SOL     OW 2352   1.446  12.325  11.117
  152SOL    HW1 2353   1.424  12.235  11.142
  152SOL    HW2 2354   1.540  12.323  11.100
  153SOL     OW 2355   9.001   8.873   3.138
  153SOL    HW1 2356   9.089   8.903   3.161
  153SOL    HW2 2357   8.969   8.939   3.076
  154SOL     OW 2358  11.119   5.303   5.877
  154SOL    HW1 2359  11.067   5.380   5.857
  154SOL    HW2 2360  11.055   5.235   5.899
  155SOL     OW 2361  14.304   3.937   4.674
  155SOL    HW1 2362  14.255   4.012   4.640
  155SOL    HW2 2363  14.285   3.866   4.613
  156SOL     OW 2364   1.814   8.426   8.796
  156SOL    HW1 2365   1.886   8.425   8.859
  156SOL    HW2 2366   1.853   8.396   8.714
  157SOL     OW 2367   9.761  10.751   4.600
  157SOL    HW1 2368   9.812  10.803   4.538
  157SOL    HW2 2369   9.713  10.815   4.652
  158SOL     OW 2370   7.288   2.474  14.216
  158SOL    HW1 2371   7.321   2.425  14.291
  158SOL    HW2 2372   7.307   2.418  14.141
  159SOL     OW 2373   2.131   2.009  14.075
  159SOL    HW1 2374   2.194   1.937  14.081
  159SOL    HW2 2375   2.045   1.966  14.084
  160SOL     OW 2376  14.542   1.504   7.967
  160SOL    HW1 2377  14.572   1.433   7.909
  160SOL    HW2 2378  14.622   1.543   8.000
  161SOL     OW 2379   5.155   2.805   1.488
  161SOL    HW1 2380   5.212   2.735   1.519
  161SOL    HW2 2381   5.207   2.885   1.498
  162SOL     OW 2382   9.057   8.589   2.097
  162SOL    HW1 2383   9.011   8.619   2.018
  162SOL    HW2 2384   9.138   8.640   2.098
  163SOL     OW 2385   1.356   3.079  13.955
  163SOL    HW1 2386   1.409   3.035  13.889
  163SOL    HW2 2387   1.401   3.162  13.971
  164SOL     OW 2388  12.123   8.488   9.964
  164SOL    HW1 2389  12.109   8.393   9.955
  164SOL    HW2 2390  12.182   8.509   9.892
  165SOL     OW 2391  11.096   7.888   5.188
  165SOL    HW1 2392  11.031   7.819   5.176
  165SOL    HW2 2393  11.179   7.847   5.165
  166SOL     OW 2394  11.791   7.315  10.869
  166SOL    HW1 2395  11.783   7.410  10.871
  166SOL    HW2 2396  11.760   7.287  10.956
  167SOL     OW 2397  11.515   6.142  13.092
  167SOL    HW1 2398  11.610   6.129  13.087
  167SOL    HW2 2399  11.499   6.222  13.042
  168SOL     OW 2400   9.645   5.229  13.021
  168SOL    HW1 2401   9.562   5.249  12.977
  168SOL    HW2 2402   9.703   5.302  12.996
  169SOL     OW 2403   9.499   1.052   2.036
  169SOL    HW1 2404   9.528   1.114   2.102
  169SOL    HW2 2405   9.413   1.023   2.066
  170SOL     OW 2406   7.244   8.814   7.934
  170SOL    HW1 2407   7.305   8.884   7.911
  170SOL    HW2 2408   7.223   8.772   7.851
  171SOL     OW 2409  12.247  12.497   0.558
  171SOL    HW1 2410  12.158  12.461   0.553
  171SOL    HW2 2411  12.254  12.533   0.646
  172SOL     OW 2412   2.018   9.842   9.297
  172SOL    HW1 2413   2.074   9.918   9.307
  172SOL    HW2 2414   2.076   9.774   9.262
  173SOL     OW 2415  11.557   3.608   8.301
  173SOL    HW1 2416  11.520   3.696   8.309
  173SOL    HW2 2417  11.498   3.561   8.242
  174SOL     OW 2418  10.551   2.971   8.737
  174SOL    HW1 2419  10.517   2.888   8.704
  174SOL    HW2 2420  10.531   2.970   8.831
  175SOL     OW 2421   2.166  14.053   8.936
  175SOL    HW1 2422   2.151  14.010   9.019
  175SOL    HW2 2423   2.143  14.145   8.952
  176SOL     OW 2424   6.478  13.743  13.319
  176SOL    HW1 2425   6.427  13.763  13.397
  176SOL    HW2 2426   6.503  13.828  13.284
  177SOL     OW 2427  10.933  10.641  10.747
  177SOL    HW1 2428  10.899  10.648  10.657
  177SOL    HW2 2429  10.855  10.628  10.801
  178SOL     OW 2430  11.681  12.628  14.616
  178SOL    HW1 2431  11.603  12.586  14.579
  178SOL    HW2 2432  11.647  12.700  14.669
  179SOL     OW 2433   9.852   2.902  10.002
  179SOL    HW1 2434   9.790   2.920   9.932
  179SOL    HW2 2435   9.879   2.811   9.988
  180SOL     OW 2436   0.494   0.767   3.308
  180SOL    HW1 2437   0.417   0.714   3.290
  180SOL    HW2 2438   0.483   0.797   3.398
  181SOL     OW 2439   2.135   5.614   9.320
  181SOL    HW1 2440   2.119   5.695   9.369
  181SOL    HW2 2441   2.066   5.554   9.350
  182SOL     OW 2442   8.900   8.691  12.093
  182SOL    HW1 2443   8.879   8.615  12.038
  182SOL    HW2 2444   8.971   8.660  12.149
  183SOL     OW 2445  10.670  10.294   6.069
  183SOL    HW1 2446  10.668  10.381   6.108
  183SOL    HW2 2447  10.681  10.235   6.144
  184SOL     OW 2448  11.953   5.983  13.197
  184SOL    HW1 2449  12.034   5.955  13.153
  184SOL    HW2 2450  11.974   6.068  13.235
  185SOL     OW 2451   7.641   8.917   9.563
  185SOL    HW1 2452   7.697   8.947   9.492
  185SOL    HW2 2453   7.555   8.903   9.522
  186SOL     OW 2454   3.715  12.474   4.407
  186SOL    HW1 2455   3.749  12.385   4.414
  186SOL    HW2 2456   3.769  12.515   4.339
  187SOL     OW 2457  10.648   4.717  14.846
  187SOL    HW1 2458  10.723   4.658  14.856
  187SOL    HW2 2459  10.686   4.799  14.814
  188SOL     OW 2460   5.786  11.898   3.045
  188SOL    HW1 2461   5.819  11.808   3.039
  188SOL    HW2 2462   5.853  11.946   3.094
  189SOL     OW 2463   5.497   6.678  12.810
  189SOL    HW1 2464   5.528   6.589  12.824
  189SOL    HW2 2465   5.556   6.714  12.743
  190SOL     OW 2466   2.674  14.783   1.421
  190SOL    HW1 2467   2.610  14.750   1.358
  190SOL    HW2 2468   2.750  14.807   1.369
  191SOL     OW 2469   2.221  13.914  14.361
  191SOL    HW1 2470   2.256  13.991  14.406
  191SOL    HW2 2471   2.237  13.930  14.268
  192SOL     OW 2472  13.235   8.168   1.731
  192SOL    HW1 2473  13.227   8.249   1.682
  192SOL    HW2 2474  13.146   8.132   1.734
  193SOL     OW 2475   9.996   0.150  10.031
  193SOL    HW1 2476   9.942   0.117   9.960
  193SOL    HW2 2477  10.086   0.129  10.006
  194SOL     OW 2478  11.238   5.870   3.653
  194SOL    HW1 2479  11.281   5.912   3.728
  194SOL    HW2 2480  11.309   5.829   3.604
  195SOL     OW 2481   7.949   5.562   0.530
  195SOL    HW1 2482   7.890   5.554   0.604
  195SOL    HW2 2483   7.926   5.646   0.489
  196SOL     OW 2484  10.115   3.171  10.719
  196SOL    HW1 2485  10.184   3.188  10.783
  196SOL    HW2 2486  10.078   3.258  10.700
  197SOL     OW 2487   8.988  10.475  14.199
  197SOL    HW1 2488   9.043  10.406  14.162
  197SOL    HW2 2489   8.903  10.434  14.213
  198SOL     OW 2490   4.513   8.277   9.707
  198SOL    HW1 2491   4.481   8.334   9.638
  198SOL    HW2 2492   4.608   8.277   9.696
  199SOL     OW 2493  14.763   7.762  14.044
  199SOL    HW1 2494  14.719   7.826  13.988
  199SOL    HW2 2495  14.698   7.742  14.112
  200SOL     OW 2496   0.562  13.207   1.463
  200SOL    HW1 2497   0.619  13.161   1.401
  200SOL    HW2 2498   0.504  13.138   1.497
  201SOL     OW 2499   6.461   7.868  11.379
  201SOL    HW1 2500   6.479   7.853  11.287
  201SOL    HW2 2501   6.370   7.898  11.381
  202SOL     OW 2502   3.858  13.674   0.896
  202SOL    HW1 2503   3.864  13.591   0.944
  202SOL    HW2 2504   3.895  13.654   0.810
  203SOL     OW 2505   1.055   9.220   5.978
  203SOL    HW1 2506   1.127   9.175   5.933
  203SOL    HW2 2507   1.049   9.176   6.063
  204SOL     OW 2508   6.820   4.494  11.458
  204SOL    HW1 2509   6.915   4.502  11.451
  204SOL    HW2 2510   6.789   4.584  11.471
  205SOL     OW 2511  14.554   2.597  12.012
  205SOL    HW1 2512  14.582   2.665  11.951
  205SOL    HW2 2513  14.633   2.546  12.030
  206SOL     OW 2514   0.042   7.811   6.396
  206SOL    HW1 2515  14.856   7.734   6.388
  206SOL    HW2 2516   0.069   7.812   6.488
  207SOL     OW 2517   2.135   6.085   0.360
  207SOL    HW1 2518   2.199   6.020   0.389
  207SOL    HW2 2519   2.108   6.129   0.440
  208SOL     OW 2520   3.262   9.739   3.203
  208SOL    HW1 2521   3.306   9.748   3.119
  208SOL    HW2 2522   3.308   9.800   3.261
  209SOL     OW 2523  13.587  13.486   7.107
  209SOL    HW1 2524  13.555  13.547   7.041
  209SOL    HW2 2525  13.509  13.440   7.137
  210SOL     OW 2526   8.717  10.085  11.209
  210SOL    HW1 2527   8.625  10.069  11.188
  210SOL    HW2 2528   8.723  10.180  11.219
  211SOL     OW 2529   6.200   5.180  11.324
  211SOL    HW1 2530   6.177   5.091  11.297
  211SOL    HW2 2531   6.274   5.204  11.270
  212SOL     OW 2532   5.963   7.272  12.962
  212SOL    HW1 2533   5.914   7.214  12.903
  212SOL    HW2 2534   5.899   7.338  12.988
  213SOL     OW 2535  11.604   2.276   0.981
  213SOL    HW1 2536  11.673   2.230   0.934
  213SOL    HW2 2537  11.539   2.297   0.915
  214SOL     OW 2538   4.180   5.811  11.718
  214SOL    HW1 2539   4.099   5.821  11.668
  214SOL    HW2 2540   4.153   5.820  11.809
  215SOL     OW 2541  14.020  13.656   9.345
  215SOL    HW1 2542  13.956  13.673   9.276
  215SOL    HW2 2543  14.102  13.694   9.312
  216SOL     OW 2544  13.554   6.276   0.246
  216SOL    HW1 2545  13.623   6.212   0.229
  216SOL    HW2 2546  13.601   6.357   0.268
  217SOL     OW 2547   4.304   7.165  14.845
  217SOL    HW1 2548   4.212   7.169   0.001
  217SOL    HW2 2549   4.350   7.212   0.044
  218SOL     OW 2550   5.659   8.991   0.659
  218SOL    HW1 2551   5.599   8.989   0.584
  218SOL    HW2 2552   5.672   8.899   0.682
  219SOL     OW 2553  11.517  10.864  11.456
  219SOL    HW1 2554  11.546  10.941  11.505
  219SOL    HW2 2555  11.488  10.803  11.524
  220SOL     OW 2556   2.425  13.073  10.625
  220SOL    HW1 2557   2.347  13.047  10.675
  220SOL    HW2 2558   2.493  13.012  10.654
  221SOL     OW 2559  10.296   0.044  12.302
  221SOL    HW1 2560  10.269   0.012  12.388
  221SOL    HW2 2561  10.255   0.130  12.295
  222SOL     OW 2562  12.120  11.396   7.581
  222SOL    HW1 2563  12.059  11.440   7.521
  222SOL    HW2 2564  12.069  11.324   7.619
  223SOL     OW 2565   0.609   0.438  13.375
  223SOL    HW1 2566   0.611   0.496  13.452
  223SOL    HW2 2567   0.700   0.436  13.345
  224SOL     OW 2568   3.912   3.361  14.238
  224SOL    HW1 2569   3.907   3.273  14.201
  224SOL    HW2 2570   3.997   3.364  14.281
  225SOL     OW 2571  11.829  10.872  11.723
  225SOL    HW1 2572  11.790  10.877  11.810
  225SOL    HW2 2573  11.794  10.790  11.686
  226SOL     OW 2574   2.895  10.971   2.454
  226SOL    HW1 2575   2.915  11.025   2.378
  226SOL    HW2 2576   2.977  10.926   2.473
  227SOL     OW 2577   5.428  13.460   4.121
  227SOL    HW1 2578   5.388  13.455   4.034
  227SOL    HW2 2579   5.395  13.542   4.158
  228SOL     OW 2580  11.415   0.432   0.545
  228SOL    HW1 2581  11.496   0.405   0.503
  228SOL    HW2 2582  11.347   0.384   0.498
  229SOL     OW 2583   8.285  12.180   6.738
  229SOL    HW1 2584   8.374  12.172   6.705
  229SOL    HW2 2585   8.231  12.134   6.674
  230SOL     OW 2586   4.423   8.697  14.149
  230SOL    HW1 2587   4.503   8.646  14.164
  230SOL    HW2 2588   4.449   8.766  14.089
  231SOL     OW 2589   6.939  11.944   5.361
  231SOL    HW1 2590   7.005  11.874   5.364
  231SOL    HW2 2591   6.943  11.977   5.271
  232SOL     OW 2592  13.565   0.958   2.199
  232SOL    HW1 2593  13.553   1.052   2.213
  232SOL    HW2 2594  13.575   0.922   2.287
  233SOL     OW 2595   2.003   6.893   4.447
  233SOL    HW1 2596   1.912   6.866   4.433
  233SOL    HW2 2597   2.001   6.988   4.446
  234SOL     OW 2598   5.214   1.686   7.639
  234SOL    HW1 2599   5.160   1.716   7.713
  234SOL    HW2 2600   5.293   1.740   7.644
  235SOL     OW 2601   1.546   6.514  12.460
  235SOL    HW1 2602   1.624   6.565  12.482
  235SOL    HW2 2603   1.534   6.526  12.366
  236SOL     OW 2604  13.132   3.850   8.867
  236SOL    HW1 2605  13.071   3.922   8.855
  236SOL    HW2 2606  13.197   3.883   8.929
  237SOL     OW 2607   6.951   1.773   7.845
  237SOL    HW1 2608   6.943   1.829   7.767
  237SOL    HW2 2609   6.959   1.835   7.918
  238SOL     OW 2610   6.251  11.573  11.290
  238SOL    HW1 2611   6.313  11.500  11.283
  238SOL    HW2 2612   6.306  11.649  11.309
  239SOL     OW 2613  12.563  13.102   2.425
  239SOL    HW1 2614  12.622  13.154   2.370
  239SOL    HW2 2615  12.622  13.055   2.484
  240SOL     OW 2616   2.237   2.669  12.189
  240SOL    HW1 2617   2.185   2.705  12.118
  240SOL    HW2 2618   2.278   2.591  12.152
  241SOL     OW 2619  13.736   8.738   5.566
  241SOL    HW1 2620  13.701   8.649   5.570
  241SOL    HW2 2621  13.808   8.733   5.503
  242SOL     OW 2622   7.292  12.293   9.881
  242SOL    HW1 2623   7.293  12.342   9.963
  242SOL    HW2 2624   7.217  12.328   9.833
  243SOL     OW 2625   7.713   6.720   9.696
  243SOL    HW1 2626   7.735   6.809   9.668
  243SOL    HW2 2627   7.654   6.687   9.629
  244SOL     OW 2628   9.329   2.335   3.118
  244SOL    HW1 2629   9.361   2.248   3.094
  244SOL    HW2 2630   9.241   2.340   3.081
  245SOL     OW 2631   5.857   3.950  13.939
  245SOL    HW1 2632   5.861   4.005  14.017
  245SOL    HW2 2633   5.890   4.006  13.869
  246SOL     OW 2634   1.302  13.648  13.631
  246SOL    HW1 2635   1.293  13.610  13.543
  246SOL    HW2 2636   1.217  13.688  13.649
  247SOL     OW 2637   5.112   9.428   9.019
  247SOL    HW1 2638   5.143   9.343   8.990
  247SOL    HW2 2639   5.186   9.487   9.005
  248SOL     OW 2640   3.391   8.124  11.884
  248SOL    HW1 2641   3.372   8.217  11.877
  248SOL    HW2 2642   3.319   8.089  11.937
  249SOL     OW 2643   5.885  10.245   8.193
  249SOL    HW1 2644   5.965  10.238   8.142
  249SOL    HW2 2645   5.842  10.324   8.160
  250SOL     OW 2646   5.630   3.332  10.284
  250SOL    HW1 2647   5.711   3.341  10.334
  250SOL    HW2 2648   5.632   3.404  10.222
  251SOL     OW 2649  13.931   1.070   0.556
  251SOL    HW1 2650  13.951   1.078   0.649
  251SOL    HW2 2651  13.940   1.159   0.521
  252SOL     OW 2652  13.410   0.829   8.861
  252SOL    HW1 2653  13.461   0.751   8.839
  252SOL    HW2 2654  13.455   0.867   8.936
  253SOL     OW 2655   1.278  13.821   5.948
  253SOL    HW1 2656   1.251  13.835   5.857
  253SOL    HW2 2657   1.209  13.863   6.000
  254SOL     OW 2658  12.466   8.236   2.869
  254SOL    HW1 2659  12.558   8.259   2.856
  254SOL    HW2 2660  12.418   8.315   2.844
  255SOL     OW 2661   7.088   0.992   1.905
  255SOL    HW1 2662   7.114   0.978   1.814
  255SOL    HW2 2663   7.145   1.062   1.936
  256SOL     OW 2664   9.145   2.131   2.179
  256SOL    HW1 2665   9.068   2.118   2.234
  256SOL    HW2 2666   9.110   2.156   2.093
  257SOL     OW 2667  10.931   2.256   1.447
  257SOL    HW1 2668  10.999   2.255   1.379
  257SOL    HW2 2669  10.971   2.303   1.519
  258SOL     OW 2670   0.993  13.246   0.644
  258SOL    HW1 2671   1.014  13.153   0.646
  258SOL    HW2 2672   0.915  13.252   0.589
  259SOL     OW 2673  12.369   9.685  13.400
  259SOL    HW1 2674  12.324   9.768  13.416
  259SOL    HW2 2675  12.344   9.661  13.310
  260SOL     OW 2676   9.030   2.125   8.909
  260SOL    HW1 2677   9.076   2.165   8.835
  260SOL    HW2 2678   9.017   2.198   8.970
  261SOL     OW 2679   5.187   7.582   4.905
  261SOL    HW1 2680   5.152   7.635   4.977
  261SOL    HW2 2681   5.259   7.533   4.945
  262SOL     OW 2682  10.710  10.833  13.980
  262SOL    HW1 2683  10.685  10.923  14.003
  262SOL    HW2 2684  10.642  10.805  13.918
  263SOL     OW 2685  13.824   6.344   9.188
  263SOL    HW1 2686  13.790   6.424   9.228
  263SOL    HW2 2687  13.820   6.361   9.094
  264SOL     OW 2688   3.429   2.078   0.444
  264SOL    HW1 2689   3.473   2.001   0.407
  264SOL    HW2 2690   3.382   2.045   0.520
  265SOL     OW 2691   9.276  12.763   4.564
  265SOL    HW1 2692   9.361  12.798   4.590
  265SOL    HW2 2693   9.285  12.669   4.573
  266SOL     OW 2694  12.415   0.160   0.823
  266SOL    HW1 2695  12.320   0.147   0.825
  266SOL    HW2 2696  12.441   0.164   0.915
  267SOL     OW 2697   0.269  10.546   0.500
  267SOL    HW1 2698   0.245  10.546   0.408
  267SOL    HW2 2699   0.187  10.565   0.546
  268SOL     OW 2700   3.301   0.053   3.965
  268SOL    HW1 2701   3.335  14.861   4.030
  268SOL    HW2 2702   3.238   0.001   3.915
  269SOL     OW 2703   1.183   0.092  12.955
  269SOL    HW1 2704   1.218   0.120  13.039
  269SOL    HW2 2705   1.102   0.046  12.976
  270SOL     OW 2706  13.848   3.142  13.316
  270SOL    HW1 2707  13.822   3.146  13.408
  270SOL    HW2 2708  13.892   3.058  13.307
  271SOL     OW 2709  11.679   7.790   9.652
  271SOL    HW1 2710  11.747   7.802   9.586
  271SOL    HW2 2711  11.602   7.763   9.603
  272SOL     OW 2712  14.703  14.473   9.737
  272SOL    HW1 2713  14.792  14.474   9.774
  272SOL    HW2 2714  14.646  14.477   9.813
  273SOL     OW 2715   0.163   2.847  10.605
  273SOL    HW1 2716   0.196   2.804  10.684
  273SOL    HW2 2717   0.122   2.776  10.554
  274SOL     OW 2718   0.939   0.433   0.340
  274SOL    HW1 2719   1.026   0.406   0.309
  274SOL    HW2 2720   0.933   0.396   0.428
  275SOL     OW 2721   0.891   6.068   3.263
  275SOL    HW1 2722   0.959   6.068   3.195
  275SOL    HW2 2723   0.877   6.161   3.282
  276SOL     OW 2724   6.311   2.044   2.571
  276SOL    HW1 2725   6.359   2.006   2.497
  276SOL    HW2 2726   6.364   2.119   2.598
  277SOL     OW 2727   3.611   5.318   3.071
  277SOL    HW1 2728   3.665   5.387   3.109
  277SOL    HW2 2729   3.529   5.362   3.046
  278SOL     OW 2730   0.914   2.327   2.886
  278SOL    HW1 2731   0.996   2.300   2.927
  278SOL    HW2 2732   0.860   2.248   2.886
  279SOL     OW 2733   4.525  10.143   6.787
  279SOL    HW1 2734   4.607  10.161   6.832
  279SOL    HW2 2735   4.542  10.166   6.695
  280SOL     OW 2736   1.757  13.768   3.629
  280SOL    HW1 2737   1.807  13.732   3.703
  280SOL    HW2 2738   1.822  13.780   3.560
  281SOL     OW 2739   1.833   3.868   1.792
  281SOL    HW1 2740   1.818   3.856   1.698
  281SOL    HW2 2741   1.913   3.919   1.797
  282SOL     OW 2742   3.596  11.961   4.041
  282SOL    HW1 2743   3.680  12.004   4.053
  282SOL    HW2 2744   3.533  12.033   4.035
  283SOL     OW 2745   8.957   1.040  12.573
  283SOL    HW1 2746   8.967   1.135  12.582
  283SOL    HW2 2747   8.990   1.005  12.656
  284SOL     OW 2748   6.376  13.615  12.811
  284SOL    HW1 2749   6.372  13.612  12.907
  284SOL    HW2 2750   6.460  13.659  12.793
  285SOL     OW 2751  13.991   3.758   1.308
  285SOL    HW1 2752  13.995   3.671   1.348
  285SOL    HW2 2753  14.037   3.815   1.370
  286SOL     OW 2754   2.035  11.630   8.997
  286SOL    HW1 2755   1.992  11.590   9.073
  286SOL    HW2 2756   2.113  11.673   9.033
  287SOL     OW 2757   7.140  10.395   7.286
  287SOL    HW1 2758   7.117  10.474   7.336
  287SOL    HW2 2759   7.204  10.426   7.222
  288SOL     OW 2760   4.939  10.285   3.600
  288SOL    HW1 2761   4.876  10.248   3.662
  288SOL    HW2 2762   4.994  10.342   3.654
  289SOL     OW 2763   2.841  10.810   3.387
  289SOL    HW1 2764   2.893  10.887   3.409
  289SOL    HW2 2765   2.817  10.823   3.295
  290SOL     OW 2766   6.777   9.682  14.039
  290SOL    HW1 2767   6.763   9.694  13.945
  290SOL    HW2 2768   6.873   9.683  14.049
  291SOL     OW 2769   2.173  11.937   8.140
  291SOL    HW1 2770   2.202  12.022   8.174
  291SOL    HW2 2771   2.223  11.926   8.059
  292SOL     OW 2772   8.206   1.551   1.836
  292SOL    HW1 2773   8.287   1.534   1.789
  292SOL    HW2 2774   8.230   1.611   1.906
  293SOL     OW 2775   5.260   4.310  12.197
  293SOL    HW1 2776   5.302   4.323  12.112
  293SOL    HW2 2777   5.280   4.389  12.247
  294SOL     OW 2778   8.280   2.944  13.888
  294SOL    HW1 2779   8.343   2.933  13.817
  294SOL    HW2 2780   8.264   3.039  13.891
  295SOL     OW 2781  11.642   8.311   7.176
  295SOL    HW1 2782  11.562   8.296   7.125
  295SOL    HW2 2783  11.713   8.305   7.113
  296SOL     OW 2784  13.890   5.462   1.470
  296SOL    HW1 2785  13.870   5.377   1.509
  296SOL    HW2 2786  13.806   5.496   1.440
  297SOL     OW 2787  10.738  13.793   8.627
  297SOL    HW1 2788  10.780  13.748   8.554
  297SOL    HW2 2789  10.810  13.820   8.684
  298SOL     OW 2790  11.869  12.130   2.303
  298SOL    HW1 2791  11.831  12.131   2.215
  298SOL    HW2 2792  11.938  12.196   2.300
  299SOL     OW 2793  13.452   7.724  12.006
  299SOL    HW1 2794  13.402   7.645  12.025
  299SOL    HW2 2795  13.444   7.777  12.086
  300SOL     OW 2796   0.677  12.411   2.665
  300SOL    HW1 2797   0.608  12.366   2.713
  300SOL    HW2 2798   0.747  12.346   2.658
  301SOL     OW 2799   4.076   1.237  12.187
  301SOL    HW1 2800   4.055   1.150  12.221
  301SOL    HW2 2801   4.002   1.292  12.214
  302SOL     OW 2802   3.226   5.397   9.346
  302SOL    HW1 2803   3.292   5.454   9.385
  302SOL    HW2 2804   3.273   5.317   9.324
  303SOL     OW 2805   4.649   3.950   1.130
  303SOL    HW1 2806   4.634   3.883   1.197
  303SOL    HW2 2807   4.728   3.995   1.159
  304SOL     OW 2808  13.621  12.361   4.685
  304SOL    HW1 2809  13.582  12.347   4.771
  304SOL    HW2 2810  13.558  12.417   4.639
  305SOL     OW 2811   1.486   0.846   2.842
  305SOL    HW1 2812   1.522   0.920   2.793
  305SOL    HW2 2813   1.433   0.797   2.779
  306SOL     OW 2814  13.566  10.319   6.264
  306SOL    HW1 2815  13.618  10.386   6.220
  306SOL    HW2 2816  13.475  10.339   6.240
  307SOL     OW 2817  13.679   5.302   7.074
  307SOL    HW1 2818  13.723   5.362   7.014
  307SOL    HW2 2819  13.712   5.326   7.160
  308SOL     OW 2820   8.872   9.932   0.570
  308SOL    HW1 2821   8.945   9.871   0.567
  308SOL    HW2 2822   8.823   9.907   0.649
  309SOL     OW 2823   5.413   0.229   2.240
  309SOL    HW1 2824   5.380   0.153   2.287
  309SOL    HW2 2825   5.339   0.258   2.186
  310SOL     OW 2826   4.142  12.863   2.057
  310SOL    HW1 2827   4.179  12.840   2.143
  310SOL    HW2 2828   4.181  12.799   1.997
  311SOL     OW 2829   9.775  10.079   8.993
  311SOL    HW1 2830   9.714  10.133   8.942
  311SOL    HW2 2831   9.785   9.999   8.942
  312SOL     OW 2832   6.117  12.742   3.364
  312SOL    HW1 2833   6.192  12.685   3.382
  312SOL    HW2 2834   6.135  12.778   3.277
  313SOL     OW 2835   6.577  10.550   6.266
  313SOL    HW1 2836   6.580  10.635   6.310
  313SOL    HW2 2837   6.517  10.498   6.319
  314SOL     OW 2838   7.944   2.254   4.366
  314SOL    HW1 2839   8.033   2.288   4.352
  314SOL    HW2 2840   7.930   2.263   4.460
  315SOL     OW 2841   8.674   3.320   3.657
  315SOL    HW1 2842   8.611   3.364   3.600
  315SOL    HW2 2843   8.631   3.318   3.742
  316SOL     OW 2844   0.858   8.683  14.850
  316SOL    HW1 2845   0.934   8.626  14.864
  316SOL    HW2 2846   0.854   8.736   0.060
  317SOL     OW 2847   8.356  14.203   5.992
  317SOL    HW1 2848   8.379  14.112   6.011
  317SOL    HW2 2849   8.433  14.238   5.947
  318SOL     OW 2850   6.716  13.466  14.699
  318SOL    HW1 2851   6.760  13.461  14.614
  318SOL    HW2 2852   6.738  13.554  14.732
  319SOL     OW 2853   9.052   6.671  14.292
  319SOL    HW1 2854   9.110   6.622  14.351
  319SOL    HW2 2855   9.112   6.716  14.232
  320SOL     OW 2856  11.174   9.524   0.328
  320SOL    HW1 2857  11.185   9.608   0.283
  320SOL    HW2 2858  11.230   9.463   0.279
  321SOL     OW 2859   0.378  11.215   7.516
  321SOL    HW1 2860   0.431  11.268   7.577
  321SOL    HW2 2861   0.356  11.137   7.567
  322SOL     OW 2862   3.595   7.190   5.868
  322SOL    HW1 2863   3.538   7.115   5.883
  322SOL    HW2 2864   3.545   7.248   5.810
  323SOL     OW 2865   0.731   0.154  13.517
  323SOL    HW1 2866   0.722   0.246  13.544
  323SOL    HW2 2867   0.815   0.151  13.472
  324SOL     OW 2868  13.971   3.806   4.914
  324SOL    HW1 2869  13.981   3.871   4.845
  324SOL    HW2 2870  14.008   3.848   4.992
  325SOL     OW 2871   7.693  14.711  10.391
  325SOL    HW1 2872   7.607  14.670  10.404
  325SOL    HW2 2873   7.673  14.797  10.355
  326SOL     OW 2874   4.507   5.691  12.710
  326SOL    HW1 2875   4.516   5.743  12.630
  326SOL    HW2 2876   4.469   5.608  12.681
  327SOL     OW 2877  13.207   7.513   6.525
  327SOL    HW1 2878  13.230   7.442   6.464
  327SOL    HW2 2879  13.144   7.473   6.585
  328SOL     OW 2880   0.011  12.831  14.071
  328SOL    HW1 2881   0.026  12.742  14.039
  328SOL    HW2 2882   0.080  12.845  14.136
  329SOL     OW 2883  10.699  14.209   1.374
  329SOL    HW1 2884  10.667  14.276   1.314
  329SOL    HW2 2885  10.763  14.160   1.323
  330SOL     OW 2886   9.683   6.338   1.756
  330SOL    HW1 2887   9.760   6.384   1.788
  330SOL    HW2 2888   9.684   6.352   1.661
  331SOL     OW 2889   2.292   1.510   0.650
  331SOL    HW1 2890   2.210   1.477   0.613
  331SOL    HW2 2891   2.305   1.595   0.608
  332SOL     OW 2892  11.348   4.430   3.790
  332SOL    HW1 2893  11.336   4.372   3.715
  332SOL    HW2 2894  11.266   4.479   3.797
  333SOL     OW 2895   7.650  10.816   4.766
  333SOL    HW1 2896   7.721  10.833   4.705
  333SOL    HW2 2897   7.606  10.900   4.776
  334SOL     OW 2898   5.461  14.685  14.535
  334SOL    HW1 2899   5.395  14.616  14.542
  334SOL    HW2 2900   5.514  14.659  14.459
  335SOL     OW 2901   0.175   8.089   7.911
  335SOL    HW1 2902   0.232   8.158   7.877
  335SOL    HW2 2903   0.171   8.105   8.005
  336SOL     OW 2904  12.958  11.323   8.957
  336SOL    HW1 2905  13.040  11.320   9.007
  336SOL    HW2 2906  12.921  11.235   8.967
  337SOL     OW 2907  14.201   6.611  10.579
  337SOL    HW1 2908  14.156   6.544  10.630
  337SOL    HW2 2909  14.219   6.570  10.494
  338SOL     OW 2910   6.009   7.064   8.907
  338SOL    HW1 2911   6.098   7.091   8.883
  338SOL    HW2 2912   6.022   6.994   8.971
  339SOL     OW 2913   3.143  12.376   5.303
  339SOL    HW1 2914   3.112  12.466   5.294
  339SOL    HW2 2915   3.103  12.329   5.230
  340SOL     OW 2916  12.576  13.516   2.497
  340SOL    HW1 2917  12.498  13.571   2.495
  340SOL    HW2 2918  12.585  13.491   2.589
  341SOL     OW 2919   3.570   9.803   1.422
  341SOL    HW1 2920   3.522   9.885   1.409
  341SOL    HW2 2921   3.640   9.826   1.482
  342SOL     OW 2922   9.964  11.219   4.061
  342SOL    HW1 2923   9.971  11.124   4.057
  342SOL    HW2 2924   9.981  11.241   4.152
  343SOL     OW 2925   5.052   0.416   5.872
  343SOL    HW1 2926   5.012   0.491   5.828
  343SOL    HW2 2927   5.037   0.432   5.965
  344SOL     OW 2928  12.063   6.568  13.118
  344SOL    HW1 2929  12.041   6.646  13.067
  344SOL    HW2 2930  12.155   6.551  13.097
  345SOL     OW 2931   4.191   0.969   7.272
  345SOL    HW1 2932   4.111   1.016   7.249
  345SOL    HW2 2933   4.168   0.877   7.261
  346SOL     OW 2934   7.612  13.270   1.649
  346SOL    HW1 2935   7.656  13.312   1.723
  346SOL    HW2 2936   7.549  13.210   1.689
  347SOL     OW 2937   8.496   3.896   2.220
  347SOL    HW1 2938   8.560   3.870   2.154
  347SOL    HW2 2939   8.532   3.863   2.302
  348SOL     OW 2940   6.063  10.351  14.678
  348SOL    HW1 2941   6.092  10.262  14.698
  348SOL    HW2 2942   5.974  10.340  14.643
  349SOL     OW 2943   5.239   7.363  10.584
  349SOL    HW1 2944   5.332   7.358  10.561
  349SOL    HW2 2945   5.234   7.434  10.648
  350SOL     OW 2946  12.604  11.597   4.515
  350SOL    HW1 2947  12.535  11.583   4.579
  350SOL    HW2 2948  12.584  11.683   4.477
  351SOL     OW 2949   1.378  10.203  14.759
  351SOL    HW1 2950   1.329  10.269  14.709
  351SOL    HW2 2951   1.374  10.234  14.850
  352SOL     OW 2952   4.620  10.511   4.717
  352SOL    HW1 2953   4.634  10.596   4.676
  352SOL    HW2 2954   4.558  10.466   4.658
  353SOL     OW 2955   4.451   8.822   8.218
  353SOL    HW1 2956   4.527   8.839   8.274
  353SOL    HW2 2957   4.387   8.780   8.276
  354SOL     OW 2958   9.314   9.098   4.729
  354SOL    HW1 2959   9.326   9.076   4.821
  354SOL    HW2 2960   9.244   9.040   4.700
  355SOL     OW 2961  12.247  12.896  11.357
  355SOL    HW1 2962  12.324  12.896  11.301
  355SOL    HW2 2963  12.273  12.843  11.433
  356SOL     OW 2964   0.819   6.074   8.366
  356SOL    HW1 2965   0.832   6.163   8.399
  356SOL    HW2 2966   0.733   6.049   8.398
  357SOL     OW 2967  12.275  12.191   1.836
  357SOL    HW1 2968  12.273  12.204   1.741
  357SOL    HW2 2969  12.220  12.114   1.851
  358SOL     OW 2970   8.104  12.746   9.122
  358SOL    HW1 2971   8.035  12.786   9.176
  358SOL    HW2 2972   8.087  12.779   9.034
  359SOL     OW 2973   5.466  10.532   3.180
  359SOL    HW1 2974   5.462  10.437   3.170
  359SOL    HW2 2975   5.443  10.565   3.093
  360SOL     OW 2976   7.774  12.956   5.728
  360SOL    HW1 2977   7.859  12.923   5.758
  360SOL    HW2 2978   7.740  13.004   5.804
  361SOL     OW 2979  13.835   3.486  11.207
  361SOL    HW1 2980  13.924   3.513  11.185
  361SOL    HW2 2981  13.821   3.520  11.296
  362SOL     OW 2982   6.139   4.321   6.470
  362SOL    HW1 2983   6.130   4.236   6.513
  362SOL    HW2 2984   6.215   4.361   6.511
  363SOL     OW 2985  14.511  13.599   1.184
  363SOL    HW1 2986  14.489  13.678   1.136
  363SOL    HW2 2987  14.543  13.630   1.269
  364SOL     OW 2988   5.397  11.100  14.228
  364SOL    HW1 2989   5.354  11.132  14.307
  364SOL    HW2 2990   5.486  11.077  14.257
  365SOL     OW 2991   9.978  14.802  11.451
  365SOL    HW1 2992  10.029  14.785  11.372
  365SOL    HW2 2993  10.031  14.862  11.502
  366SOL     OW 2994   1.100  13.809   4.327
  366SOL    HW1 2995   1.020  13.856   4.351
  366SOL    HW2 2996   1.115  13.748   4.400
  367SOL     OW 2997  11.881  10.031  14.344
  367SOL    HW1 2998  11.869  10.118  14.381
  367SOL    HW2 2999  11.907   9.977  14.419
  368SOL     OW 3000   2.741   1.055   9.340
  368SOL    HW1 3001   2.778   1.129   9.388
  368SOL    HW2 3002   2.807   1.033   9.274
  369SOL     OW 3003   4.205  11.053  11.856
  369SOL    HW1 3004   4.155  11.061  11.937
  369SOL    HW2 3005   4.295  11.036  11.885
  370SOL     OW 3006   1.376  12.172   9.909
  370SOL    HW1 3007   1.447  12.178   9.844
  370SOL    HW2 3008   1.370  12.078   9.929
  371SOL     OW 3009   7.093  12.386  13.994
  371SOL    HW1 3010   7.033  12.433  13.935
  371SOL    HW2 3011   7.046  12.306  14.016
  372SOL     OW 3012   3.283   7.943   9.741
  372SOL    HW1 3013   3.240   7.877   9.687
  372SOL    HW2 3014   3.376   7.932   9.722
  373SOL     OW 3015   6.574   5.098   6.644
  373SOL    HW1 3016   6.601   5.067   6.558
  373SOL    HW2 3017   6.615   5.038   6.706
  374SOL     OW 3018   4.759   5.734   6.196
  374SOL    HW1 3019   4.779   5.826   6.183
  374SOL    HW2 3020   4.665   5.731   6.214
  375SOL     OW 3021  13.527   4.144   9.759
  375SOL    HW1 3022  13.450   4.191   9.728
  375SOL    HW2 3023  13.495   4.057   9.782
  376SOL     OW 3024  13.495   1.421   8.294
  376SOL    HW1 3025  13.446   1.462   8.223
  376SOL    HW2 3026  13.566   1.482   8.314
  377SOL     OW 3027   2.321   3.400   5.861
  377SOL    HW1 3028   2.382   3.326   5.859
  377SOL    HW2 3029   2.235   3.360   5.842
  378SOL     OW 3030  13.939   9.888   1.793
  378SOL    HW1 3031  13.867   9.905   1.733
  378SOL    HW2 3032  13.979   9.974   1.807
  379SOL     OW 3033  14.255   6.166   8.430
  379SOL    HW1 3034  14.253   6.177   8.335
  379SOL    HW2 3035  14.319   6.230   8.461
  380SOL     OW 3036   7.322   6.297  12.545
  380SOL    HW1 3037   7.376   6.232  12.500
  380SOL    HW2 3038   7.373   6.378  12.541
  381SOL     OW 3039  10.842   0.103   7.210
  381SOL    HW1 3040  10.826   0.013   7.181
  381SOL    HW2 3041  10.781   0.115   7.283
  382SOL     OW 3042   4.593   4.000   3.691
  382SOL    HW1 3043   4.548   4.074   3.650
  382SOL    HW2 3044   4.522   3.948   3.729
  383SOL     OW 3045   6.497  10.423  14.026
  383SOL    HW1 3046   6.536  10.489  13.968
  383SOL    HW2 3047   6.551  10.426  14.105
  384SOL     OW 3048   6.436   4.225   2.453
  384SOL    HW1 3049   6.363   4.284   2.435
  384SOL    HW2 3050   6.507   4.282   2.480
  385SOL     OW 3051   1.430   9.597  14.016
  385SOL    HW1 3052   1.447   9.609  13.923
  385SOL    HW2 3053   1.495   9.533  14.045
  386SOL     OW 3054  12.502   3.655   4.226
  386SOL    HW1 3055  12.431   3.685   4.282
  386SOL    HW2 3056  12.544   3.736   4.196
  387SOL     OW 3057   6.242   8.659   1.913
  387SOL    HW1 3058   6.252   8.722   1.842
  387SOL    HW2 3059   6.260   8.574   1.872
  388SOL     OW 3060   4.954  14.533   1.381
  388SOL    HW1 3061   5.007  14.582   1.444
  388SOL    HW2 3062   5.018  14.489   1.325
  389SOL     OW 3063   4.681   5.227   9.314
  389SOL    HW1 3064   4.586   5.221   9.327
  389SOL    HW2 3065   4.718   5.179   9.388
  390SOL     OW 3066   9.378  14.023  13.453
  390SOL    HW1 3067   9.456  14.076  13.437
  390SOL    HW2 3068   9.412  13.937  13.477
  391SOL     OW 3069   7.862  14.464  10.102
  391SOL    HW1 3070   7.912  14.536  10.141
  391SOL    HW2 3071   7.929  14.405  10.068
  392SOL     OW 3072   0.267   8.144   0.330
  392SOL    HW1 3073   0.217   8.075   0.287
  392SOL    HW2 3074   0.299   8.105   0.411
  393SOL     OW 3075   4.867   7.061  13.433
  393SOL    HW1 3076   4.776   7.041  13.452
  393SOL    HW2 3077   4.877   7.043  13.339
  394SOL     OW 3078  11.153  14.484   6.602
  394SOL    HW1 3079  11.121  14.460   6.689
  394SOL    HW2 3080  11.237  14.527   6.619
  395SOL     OW 3081  11.076   4.934  14.627
  395SOL    HW1 3082  11.109   4.912  14.714
  395SOL    HW2 3083  10.995   4.982  14.645
  396SOL     OW 3084   2.363  10.317   8.081
  396SOL    HW1 3085   2.312  10.327   8.161
  396SOL    HW2 3086   2.335  10.389   8.025
  397SOL     OW 3087   4.773  13.960  10.558
  397SOL    HW1 3088   4.849  13.970  10.615
  397SOL    HW2 3089   4.697  13.973  10.615
  398SOL     OW 3090   3.729   5.867   8.139
  398SOL    HW1 3091   3.784   5.877   8.061
  398SOL    HW2 3092   3.696   5.777   8.134
  399SOL     OW 3093  13.227  14.452  13.727
  399SOL    HW1 3094  13.207  14.363  13.757
  399SOL    HW2 3095  13.322  14.458  13.736
  400SOL     OW 3096  13.976   5.641   2.965
  400SOL    HW1 3097  13.895   5.689   2.980
  400SOL    HW2 3098  13.984   5.638   2.870
  401SOL     OW 3099   2.970   2.470   7.559
  401SOL    HW1 3100   2.970   2.556   7.602
  401SOL    HW2 3101   3.059   2.438   7.568
  402SOL     OW 3102   8.738   6.630  12.469
  402SOL    HW1 3103   8.722   6.625  12.375
  402SOL    HW2 3104   8.828   6.662  12.476
  403SOL     OW 3105   6.383  10.332   7.373
  403SOL    HW1 3106   6.314  10.359   7.313
  403SOL    HW2 3107   6.442  10.279   7.319
  404SOL     OW 3108  11.728   7.470   9.687
  404SOL    HW1 3109  11.749   7.536   9.621
  404SOL    HW2 3110  11.788   7.397   9.669
  405SOL     OW 3111   6.002   3.563  13.262
  405SOL    HW1 3112   6.051   3.512  13.197
  405SOL    HW2 3113   6.070   3.607  13.313
  406SOL     OW 3114  11.713  14.582   3.943
  406SOL    HW1 3115  11.629  14.586   3.898
  406SOL    HW2 3116  11.775  14.621   3.881
  407SOL     OW 3117  11.234   8.353   1.315
  407SOL    HW1 3118  11.196   8.274   1.354
  407SOL    HW2 3119  11.292   8.320   1.246
  408SOL     OW 3120   1.326   4.201  10.987
  408SOL    HW1 3121   1.305   4.122  10.936
  408SOL    HW2 3122   1.300   4.179  11.076
  409SOL     OW 3123   1.591   4.608   4.854
  409SOL    HW1 3124   1.679   4.645   4.852
  409SOL    HW2 3125   1.588   4.560   4.937
  410SOL     OW 3126  11.857   3.972   0.182
  410SOL    HW1 3127  11.917   4.044   0.202
  410SOL    HW2 3128  11.898   3.895   0.221
  411SOL     OW 3129   8.465  14.103   7.043
  411SOL    HW1 3130   8.512  14.091   6.960
  411SOL    HW2 3131   8.490  14.027   7.096
  412SOL     OW 3132  12.031   4.949  11.479
  412SOL    HW1 3133  12.091   4.880  11.453
  412SOL    HW2 3134  12.087   5.013  11.524
  413SOL     OW 3135   1.328  14.203  13.216
  413SOL    HW1 3136   1.264  14.138  13.189
  413SOL    HW2 3137   1.289  14.245  13.292
  414SOL     OW 3138   0.662   7.975   3.462
  414SOL    HW1 3139   0.743   7.942   3.501
  414SOL    HW2 3140   0.689   8.014   3.379
  415SOL     OW 3141   3.621   8.844  12.618
  415SOL    HW1 3142   3.670   8.765  12.638
  415SOL    HW2 3143   3.636   8.901  12.693
  416SOL     OW 3144   0.323   0.865   3.807
  416SOL    HW1 3145   0.239   0.873   3.762
  416SOL    HW2 3146   0.352   0.955   3.820
  417SOL     OW 3147  12.490   8.143   3.665
  417SOL    HW1 3148  12.504   8.114   3.755
  417SOL    HW2 3149  12.439   8.073   3.625
  418SOL     OW 3150   0.509  14.140   0.825
  418SOL    HW1 3151   0.474  14.213   0.877
  418SOL    HW2 3152   0.512  14.066   0.886
  419SOL     OW 3153   7.990   7.508  12.037
  419SOL    HW1 3154   7.988   7.416  12.010
  419SOL    HW2 3155   8.082   7.525  12.055
  420SOL     OW 3156  12.752   2.702   9.834
  420SOL    HW1 3157  12.671   2.752   9.840
  420SOL    HW2 3158  12.726   2.611   9.849
  421SOL     OW 3159  13.942   9.367   9.507
  421SOL    HW1 3160  13.953   9.294   9.446
  421SOL    HW2 3161  13.928   9.443   9.451
  422SOL     OW 3162  11.965   6.402   2.714
  422SOL    HW1 3163  11.967   6.355   2.631
  422SOL    HW2 3164  11.921   6.343   2.775
  423SOL     OW 3165  12.461  13.579   5.953
  423SOL    HW1 3166  12.389  13.530   5.992
  423SOL    HW2 3167  12.537  13.521   5.960
  424SOL     OW 3168   7.299   2.585  11.340
  424SOL    HW1 3169   7.364   2.514  11.338
  424SOL    HW2 3170   7.307   2.623  11.427
  425SOL     OW 3171  10.210  13.905   0.274
  425SOL    HW1 3172  10.215  13.998   0.254
  425SOL    HW2 3173  10.206  13.862   0.189
  426SOL     OW 3174   3.514   8.376  11.173
  426SOL    HW1 3175   3.453   8.319  11.128
  426SOL    HW2 3176   3.488   8.371  11.265
  427SOL     OW 3177   2.700  13.283   6.149
  427SOL    HW1 3178   2.783  13.245   6.177
  427SOL    HW2 3179   2.654  13.304   6.230
  428SOL     OW 3180   2.742  11.372   2.553
  428SOL    HW1 3181   2.806  11.307   2.582
  428SOL    HW2 3182   2.774  11.402   2.468
  429SOL     OW 3183   4.630  13.946   8.707
  429SOL    HW1 3184   4.547  13.932   8.661
  429SOL    HW2 3185   4.614  14.023   8.761
  430SOL     OW 3186   0.502   7.608  10.310
  430SOL    HW1 3187   0.513   7.528  10.361
  430SOL    HW2 3188   0.498   7.579  10.219
  431SOL     OW 3189   9.160  14.675   6.676
  431SOL    HW1 3190   9.238  14.647   6.724
  431SOL    HW2 3191   9.119  14.593   6.649
  432SOL     OW 3192   6.317   4.342   5.357
  432SOL    HW1 3193   6.308   4.356   5.451
  432SOL    HW2 3194   6.351   4.425   5.324
  433SOL     OW 3195   8.426   9.212  11.442
  433SOL    HW1 3196   8.395   9.214  11.533
  433SOL    HW2 3197   8.388   9.132  11.405
  434SOL     OW 3198   0.769   6.512   7.684
  434SOL    HW1 3199   0.708   6.481   7.751
  434SOL    HW2 3200   0.739   6.471   7.603
  435SOL     OW 3201   2.603   8.722   3.521
  435SOL    HW1 3202   2.613   8.631   3.495
  435SOL    HW2 3203   2.562   8.717   3.608
  436SOL     OW 3204   9.605  12.180   0.408
  436SOL    HW1 3205   9.595  12.089   0.438
  436SOL    HW2 3206   9.537  12.228   0.456
  437SOL     OW 3207   8.319   8.441   0.832
  437SOL    HW1 3208   8.238   8.490   0.848
  437SOL    HW2 3209   8.298   8.351   0.855
  438SOL     OW 3210   8.969  13.290   9.950
  438SOL    HW1 3211   8.999  13.380   9.958
  438SOL    HW2 3212   8.905  13.292   9.878
  439SOL     OW 3213   5.820   3.147   3.833
  439SOL    HW1 3214   5.901   3.100   3.813
  439SOL    HW2 3215   5.794   3.185   3.749
  440SOL     OW 3216  10.778  13.075  12.545
  440SOL    HW1 3217  10.759  12.991  12.586
  440SOL    HW2 3218  10.748  13.065  12.455
  441SOL     OW 3219   3.305   8.525  11.937
  441SOL    HW1 3220   3.312   8.448  11.995
  441SOL    HW2 3221   3.396   8.550  11.920
  442SOL     OW 3222   4.758   9.007  13.578
  442SOL    HW1 3223   4.824   8.941  13.602
  442SOL    HW2 3224   4.694   8.958  13.526
  443SOL     OW 3225   5.890  13.788  13.825
  443SOL    HW1 3226   5.896  13.874  13.866
  443SOL    HW2 3227   5.938  13.797  13.743
  444SOL     OW 3228   2.754   2.286  10.185
  444SOL    HW1 3229   2.764   2.196  10.216
  444SOL    HW2 3230   2.781   2.340  10.259
  445SOL     OW 3231   7.379   3.324  12.436
  445SOL    HW1 3232   7.301   3.353  12.484
  445SOL    HW2 3233   7.422   3.262  12.495
  446SOL     OW 3234  12.085   9.334   4.891
  446SOL    HW1 3235  12.128   9.290   4.965
  446SOL    HW2 3236  12.154   9.343   4.825
  447SOL     OW 3237  10.161   3.966   2.932
  447SOL    HW1 3238  10.161   3.971   3.027
  447SOL    HW2 3239  10.210   3.886   2.912
  448SOL     OW 3240  13.245   0.512  11.295
  448SOL    HW1 3241  13.328   0.539  11.254
  448SOL    HW2 3242  13.186   0.585  11.280
  449SOL     OW 3243   5.463   8.837   7.538
  449SOL    HW1 3244   5.529   8.880   7.485
  449SOL    HW2 3245   5.504   8.754   7.564
  450SOL     OW 3246   5.967  14.400   6.702
  450SOL    HW1 3247   5.995  14.395   6.793
  450SOL    HW2 3248   6.048  14.391   6.651
  451SOL     OW 3249   0.056   7.108   2.208
  451SOL    HW1 3250  14.854   7.169   2.193
  451SOL    HW2 3251   0.052   7.047   2.134
  452SOL     OW 3252   7.822   3.037  13.618
  452SOL    HW1 3253   7.768   3.058  13.694
  452SOL    HW2 3254   7.761   3.037  13.544
  453SOL     OW 3255  10.618   3.586   8.948
  453SOL    HW1 3256  10.529   3.584   8.983
  453SOL    HW2 3257  10.669   3.531   9.008
  454SOL     OW 3258   3.380  13.586  10.119
  454SOL    HW1 3259   3.458  13.617  10.166
  454SOL    HW2 3260   3.364  13.498  10.154
  455SOL     OW 3261   8.231   0.090   3.664
  455SOL    HW1 3262   8.218   0.141   3.584
  455SOL    HW2 3263   8.189   0.006   3.645
  456SOL     OW 3264   3.407   3.140   9.806
  456SOL    HW1 3265   3.315   3.133   9.833
  456SOL    HW2 3266   3.444   3.206   9.865
  457SOL     OW 3267   0.465   4.650  13.683
  457SOL    HW1 3268   0.559   4.660  13.699
  457SOL    HW2 3269   0.437   4.589  13.751
  458SOL     OW 3270   2.388   5.677   5.820
  458SOL    HW1 3271   2.483   5.669   5.813
  458SOL    HW2 3272   2.356   5.664   5.730
  459SOL     OW 3273   7.830   8.896   3.762
  459SOL    HW1 3274   7.793   8.954   3.696
  459SOL    HW2 3275   7.924   8.895   3.745
  460SOL     OW 3276   3.653   6.378   5.369
  460SOL    HW1 3277   3.652   6.285   5.346
  460SOL    HW2 3278   3.561   6.403   5.374
  461SOL     OW 3279   2.116  13.676  11.261
  461SOL    HW1 3280   2.023  13.697  11.259
  461SOL    HW2 3281   2.135  13.660  11.353
  462SOL     OW 3282  13.530   5.910   3.187
  462SOL    HW1 3283  13.495   5.870   3.267
  462SOL    HW2 3284  13.622   5.928   3.208
  463SOL     OW 3285   7.905   3.625   3.688
  463SOL    HW1 3286   7.831   3.565   3.675
  463SOL    HW2 3287   7.885   3.669   3.771
  464SOL     OW 3288  14.139   9.497  13.182
  464SOL    HW1 3289  14.093   9.544  13.113
  464SOL    HW2 3290  14.163   9.565  13.245
  465SOL     OW 3291  13.942   5.757  10.341
  465SOL    HW1 3292  13.943   5.696  10.267
  465SOL    HW2 3293  13.939   5.701  10.418
  466SOL     OW 3294   5.259   8.114  10.726
  466SOL    HW1 3295   5.209   8.144  10.650
  466SOL    HW2 3296   5.320   8.186  10.744
  467SOL     OW 3297   8.309   0.111  11.511
  467SOL    HW1 3298   8.287   0.194  11.554
  467SOL    HW2 3299   8.266   0.044  11.563
  468SOL     OW 3300   4.423   0.115   2.926
  468SOL    HW1 3301   4.363   0.083   2.994
  468SOL    HW2 3302   4.404   0.060   2.850
  469SOL     OW 3303   0.425   1.925   7.341
  469SOL    HW1 3304   0.409   1.929   7.247
  469SOL    HW2 3305   0.341   1.898   7.379
  470SOL     OW 3306   3.299   1.783  11.234
  470SOL    HW1 3307   3.204   1.792  11.234
  470SOL    HW2 3308   3.330   1.865  11.197
  471SOL     OW 3309   9.471   1.096   7.616
  471SOL    HW1 3310   9.547   1.051   7.578
  471SOL    HW2 3311   9.508   1.172   7.660
  472SOL     OW 3312  14.274  14.825   0.874
  472SOL    HW1 3313  14.343  14.800   0.936
  472SOL    HW2 3314  14.264   0.050   0.887
  473SOL     OW 3315   7.599   3.829  11.839
  473SOL    HW1 3316   7.621   3.736  11.832
  473SOL    HW2 3317   7.624   3.866  11.755
  474SOL     OW 3318   0.440   0.774  14.478
  474SOL    HW1 3319   0.531   0.804  14.469
  474SOL    HW2 3320   0.403   0.831  14.545
  475SOL     OW 3321   0.135  14.835   9.724
  475SOL    HW1 3322   0.154   0.059   9.711
  475SOL    HW2 3323   0.112  14.828   9.816
  476SOL     OW 3324   3.710   3.120  10.319
  476SOL    HW1 3325   3.705   3.025  10.320
  476SOL    HW2 3326   3.643   3.149  10.381
  477SOL     OW 3327   3.937   0.525   8.900
  477SOL    HW1 3328   4.027   0.555   8.914
  477SOL    HW2 3329   3.915   0.557   8.813
  478SOL     OW 3330  11.287  14.323   5.272
  478SOL    HW1 3331  11.311  14.269   5.197
  478SOL    HW2 3332  11.367  14.328   5.324
  479SOL     OW 3333  11.676  10.604   5.191
  479SOL    HW1 3334  11.713  10.518   5.211
  479SOL    HW2 3335  11.750  10.655   5.159
  480SOL     OW 3336   5.081   0.014  11.186
  480SOL    HW1 3337   5.102   0.033  11.277
  480SOL    HW2 3338   5.029   0.089  11.157
  481SOL     OW 3339  13.276   6.331  10.152
  481SOL    HW1 3340  13.250   6.325  10.244
  481SOL    HW2 3341  13.318   6.417  10.144
  482SOL     OW 3342   4.704  10.805   0.282
  482SOL    HW1 3343   4.771  10.840   0.341
  482SOL    HW2 3344   4.707  10.862   0.205
  483SOL     OW 3345   3.165  12.155   8.731
  483SOL    HW1 3346   3.161  12.245   8.762
  483SOL    HW2 3347   3.104  12.107   8.787
  484SOL     OW 3348   5.973   8.035  11.653
  484SOL    HW1 3349   5.913   8.098  11.692
  484SOL    HW2 3350   5.927   7.951  11.656
  485SOL     OW 3351   8.874   9.847   7.524
  485SOL    HW1 3352   8.872   9.751   7.527
  485SOL    HW2 3353   8.810   9.870   7.457
  486SOL     OW 3354   7.022   1.506  11.956
  486SOL    HW1 3355   7.100   1.460  11.926
  486SOL    HW2 3356   7.049   1.597  11.961
  487SOL     OW 3357   2.191  12.197  14.074
  487SOL    HW1 3358   2.111  12.247  14.058
  487SOL    HW2 3359   2.258  12.242  14.023
  488SOL     OW 3360   6.604  10.547   5.747
  488SOL    HW1 3361   6.624  10.638   5.768
  488SOL    HW2 3362   6.577  10.509   5.831
  489SOL     OW 3363   6.319   6.040   9.846
  489SOL    HW1 3364   6.327   6.026   9.751
  489SOL    HW2 3365   6.225   6.038   9.862
  490SOL     OW 3366   9.024  14.515   7.697
  490SOL    HW1 3367   9.031  14.577   7.625
  490SOL    HW2 3368   9.114  14.507   7.731
  491SOL     OW 3369  13.305   1.079  10.605
  491SOL    HW1 3370  13.382   1.104  10.657
  491SOL    HW2 3371  13.242   1.149  10.620
  492SOL     OW 3372  12.533  12.453   8.413
  492SOL    HW1 3373  12.557  12.542   8.438
  492SOL    HW2 3374  12.495  12.461   8.326
  493SOL     OW 3375   5.722   2.579  12.140
  493SOL    HW1 3376   5.782   2.530  12.084
  493SOL    HW2 3377   5.779   2.632  12.195
  494SOL     OW 3378   1.063   5.481   3.948
  494SOL    HW1 3379   0.968   5.493   3.939
  494SOL    HW2 3380   1.097   5.569   3.963
  495SOL     OW 3381   8.186   8.108  10.494
  495SOL    HW1 3382   8.220   8.175  10.553
  495SOL    HW2 3383   8.103   8.144  10.463
  496SOL     OW 3384   1.222   5.717   5.606
  496SOL    HW1 3385   1.129   5.692   5.608
  496SOL    HW2 3386   1.223   5.798   5.555
  497SOL     OW 3387   4.354   5.679   3.716
  497SOL    HW1 3388   4.431   5.692   3.660
  497SOL    HW2 3389   4.297   5.622   3.664
  498SOL     OW 3390  10.365  14.106   8.273
  498SOL    HW1 3391  10.272  14.086   8.281
  498SOL    HW2 3392  10.367  14.195   8.239
  499SOL     OW 3393   7.825  13.977   5.154
  499SOL    HW1 3394   7.830  14.020   5.068
  499SOL    HW2 3395   7.887  13.904   5.148
  500SOL     OW 3396  11.477   9.147   5.213
  500SOL    HW1 3397  11.465   9.203   5.289
  500SOL    HW2 3398  11.528   9.073   5.245
  501SOL     OW 3399   2.281  14.623   8.056
  501SOL    HW1 3400   2.216  14.674   8.104
  501SOL    HW2 3401   2.339  14.689   8.018
  502SOL     OW 3402   1.340  10.617  13.232
  502SOL    HW1 3403   1.428  10.635  13.264
  502SOL    HW2 3404   1.314  10.697  13.187
  503SOL     OW 3405   1.406  10.188   0.202
  503SOL    HW1 3406   1.374  10.205   0.290
  503SOL    HW2 3407   1.423  10.094   0.200
  504SOL     OW 3408  14.747   4.735  14.522
  504SOL    HW1 3409  14.761   4.645  14.552
  504SOL    HW2 3410  14.653   4.741  14.509
  505SOL     OW 3411  14.170  11.746   0.916
  505SOL    HW1 3412  14.101  11.769   0.979
  505SOL    HW2 3413  14.124  11.705   0.843
  506SOL     OW 3414   4.294  10.999  13.429
  506SOL    HW1 3415   4.209  11.034  13.403
  506SOL    HW2 3416   4.273  10.936  13.498
  507SOL     OW 3417  11.002   8.418   3.441
  507SOL    HW1 3418  10.926   8.473   3.424
  507SOL    HW2 3419  11.021   8.377   3.357
  508SOL     OW 3420   8.641  11.551   4.435
  508SOL    HW1 3421   8.651  11.509   4.520
  508SOL    HW2 3422   8.570  11.503   4.393
  509SOL     OW 3423   8.357  11.696  10.705
  509SOL    HW1 3424   8.350  11.742  10.789
  509SOL    HW2 3425   8.449  11.704  10.681
  510SOL     OW 3426   3.467   3.947  12.000
  510SOL    HW1 3427   3.516   3.996  12.066
  510SOL    HW2 3428   3.462   4.007  11.925
  511SOL     OW 3429   4.689  13.305  14.197
  511SOL    HW1 3430   4.646  13.336  14.277
  511SOL    HW2 3431   4.644  13.224  14.176
  512SOL     OW 3432   9.746  13.294   7.797
  512SOL    HW1 3433   9.768  13.209   7.835
  512SOL    HW2 3434   9.824  13.348   7.812
  513SOL     OW 3435   8.755  14.569   7.286
  513SOL    HW1 3436   8.811  14.525   7.350
  513SOL    HW2 3437   8.699  14.627   7.339
  514SOL     OW 3438   6.395  13.825  10.729
  514SOL    HW1 3439   6.400  13.811  10.824
  514SOL    HW2 3440   6.368  13.740  10.694
  515SOL     OW 3441   6.291  14.352  14.672
  515SOL    HW1 3442   6.346  14.431  14.671
  515SOL    HW2 3443   6.253  14.348  14.585
  516SOL     OW 3444   4.851   1.346   2.003
  516SOL    HW1 3445   4.793   1.406   2.050
  516SOL    HW2 3446   4.927   1.336   2.060
  517SOL     OW 3447   4.841   2.467   8.292
  517SOL    HW1 3448   4.928   2.425   8.292
  517SOL    HW2 3449   4.780   2.395   8.275
  518SOL     OW 3450  11.165  13.739  14.064
  518SOL    HW1 3451  11.145  13.831  14.050
  518SOL    HW2 3452  11.260  13.732  14.052
  519SOL     OW 3453  13.478   4.584   8.569
  519SOL    HW1 3454  13.515   4.578   8.657
  519SOL    HW2 3455  13.518   4.662   8.531
  520SOL     OW 3456   7.960   6.082   7.712
  520SOL    HW1 3457   7.991   6.036   7.790
  520SOL    HW2 3458   8.038   6.123   7.675
  521SOL     OW 3459   2.748   6.430  11.921
  521SOL    HW1 3460   2.824   6.394  11.967
  521SOL    HW2 3461   2.784   6.489  11.856
  522SOL     OW 3462   9.108   8.900   0.312
  522SOL    HW1 3463   9.191   8.853   0.324
  522SOL    HW2 3464   9.049   8.860   0.377
  523SOL     OW 3465   3.069   1.813   2.666
  523SOL    HW1 3466   3.116   1.884   2.709
  523SOL    HW2 3467   2.987   1.852   2.637
  524SOL     OW 3468   3.215   2.713   3.791
  524SOL    HW1 3469   3.139   2.771   3.779
  524SOL    HW2 3470   3.195   2.636   3.738
  525SOL     OW 3471   3.845   2.716   8.092
  525SOL    HW1 3472   3.883   2.676   8.014
  525SOL    HW2 3473   3.819   2.641   8.147
  526SOL     OW 3474   8.052   0.789   4.028
  526SOL    HW1 3475   8.064   0.877   3.992
  526SOL    HW2 3476   7.964   0.764   4.002
  527SOL     OW 3477   7.461   2.063   6.587
  527SOL    HW1 3478   7.411   1.984   6.571
  527SOL    HW2 3479   7.397   2.126   6.619
  528SOL     OW 3480   6.947   4.334   9.792
  528SOL    HW1 3481   6.972   4.320   9.883
  528SOL    HW2 3482   6.903   4.253   9.766
  529SOL     OW 3483   4.742   5.119   5.709
  529SOL    HW1 3484   4.772   5.150   5.794
  529SOL    HW2 3485   4.651   5.095   5.723
  530SOL     OW 3486   7.037   8.046   0.119
  530SOL    HW1 3487   7.019   8.031   0.026
  530SOL    HW2 3488   7.103   8.115   0.120
  531SOL     OW 3489  11.692  10.133   8.049
  531SOL    HW1 3490  11.616  10.111   8.103
  531SOL    HW2 3491  11.745  10.191   8.104
  532SOL     OW 3492   2.962   1.440   7.986
  532SOL    HW1 3493   2.937   1.390   8.064
  532SOL    HW2 3494   3.017   1.380   7.936
  533SOL     OW 3495   2.210  14.283   4.567
  533SOL    HW1 3496   2.281  14.282   4.631
  533SOL    HW2 3497   2.205  14.193   4.535
  534SOL     OW 3498   2.357   4.587   1.409
  534SOL    HW1 3499   2.327   4.672   1.379
  534SOL    HW2 3500   2.411   4.554   1.337
  535SOL     OW 3501   6.074   9.324   6.727
  535SOL    HW1 3502   6.022   9.400   6.703
  535SOL    HW2 3503   6.122   9.351   6.805
  536SOL     OW 3504   8.251   4.702  11.893
  536SOL    HW1 3505   8.314   4.764  11.855
  536SOL    HW2 3506   8.254   4.626  11.834
  537SOL     OW 3507  13.167   3.532   8.961
  537SOL    HW1 3508  13.131   3.591   9.028
  537SOL    HW2 3509  13.115   3.549   8.883
  538SOL     OW 3510  10.746   2.455   1.646
  538SOL    HW1 3511  10.793   2.445   1.728
  538SOL    HW2 3512  10.813   2.475   1.582
  539SOL     OW 3513   9.993  11.659   9.670
  539SOL    HW1 3514  10.080  11.686   9.641
  539SOL    HW2 3515   9.970  11.586   9.613
  540SOL     OW 3516  12.021  10.299  12.503
  540SOL    HW1 3517  11.991  10.371  12.558
  540SOL    HW2 3518  12.095  10.335  12.454
  541SOL     OW 3519   0.986  11.613   4.997
  541SOL    HW1 3520   1.055  11.671   4.963
  541SOL    HW2 3521   0.977  11.545   4.930
  542SOL     OW 3522  11.623   1.261   5.877
  542SOL    HW1 3523  11.586   1.238   5.962
  542SOL    HW2 3524  11.588   1.194   5.818
  543SOL     OW 3525  14.582   2.976   5.003
  543SOL    HW1 3526  14.570   2.922   4.925
  543SOL    HW2 3527  14.518   3.046   4.993
  544SOL     OW 3528   3.649   2.666   3.807
  544SOL    HW1 3529   3.717   2.722   3.845
  544SOL    HW2 3530   3.582   2.662   3.875
  545SOL     OW 3531  13.047   8.841  10.325
  545SOL    HW1 3532  13.062   8.751  10.297
  545SOL    HW2 3533  13.134   8.874  10.348
  546SOL     OW 3534   9.718  13.607   1.489
  546SOL    HW1 3535   9.800  13.630   1.445
  546SOL    HW2 3536   9.722  13.655   1.572
  547SOL     OW 3537   7.609  13.571   9.560
  547SOL    HW1 3538   7.686  13.612   9.521
  547SOL    HW2 3539   7.535  13.620   9.524
  548SOL     OW 3540   3.616   1.593   1.361
  548SOL    HW1 3541   3.639   1.570   1.270
  548SOL    HW2 3542   3.696   1.632   1.396
  549SOL     OW 3543  12.601   3.675   9.936
  549SOL    HW1 3544  12.637   3.625   9.862
  549SOL    HW2 3545  12.649   3.757   9.934
  550SOL     OW 3546   8.487   6.548   9.280
  550SOL    HW1 3547   8.556   6.591   9.229
  550SOL    HW2 3548   8.456   6.617   9.338
  551SOL     OW 3549   7.211  11.187  12.345
  551SOL    HW1 3550   7.174  11.191  12.257
  551SOL    HW2 3551   7.249  11.273  12.360
  552SOL     OW 3552   1.241  14.725   1.645
  552SOL    HW1 3553   1.253  14.805   1.594
  552SOL    HW2 3554   1.292  14.740   1.724
  553SOL     OW 3555   1.103   2.104   4.243
  553SOL    HW1 3556   1.055   2.021   4.248
  553SOL    HW2 3557   1.114   2.131   4.334
  554SOL     OW 3558   4.600   1.971   9.965
  554SOL    HW1 3559   4.672   2.016   9.921
  554SOL    HW2 3560   4.639   1.938  10.046
  555SOL     OW 3561   9.123   1.993   0.208
  555SOL    HW1 3562   9.133   1.914   0.262
  555SOL    HW2 3563   9.158   2.064   0.263
  556SOL     OW 3564  12.254  13.158   7.136
  556SOL    HW1 3565  12.177  13.156   7.193
  556SOL    HW2 3566  12.270  13.067   7.114
  557SOL     OW 3567  13.549   2.553   3.466
  557SOL    HW1 3568  13.469   2.533   3.417
  557SOL    HW2 3569  13.519   2.609   3.538
  558SOL     OW 3570   5.429   9.998  12.478
  558SOL    HW1 3571   5.447   9.922  12.422
  558SOL    HW2 3572   5.392  10.064  12.419
  559SOL     OW 3573   0.696   6.923  12.893
  559SOL    HW1 3574   0.721   6.845  12.943
  559SOL    HW2 3575   0.732   6.908  12.806
  560SOL     OW 3576   2.456   3.126   2.623
  560SOL    HW1 3577   2.404   3.133   2.543
  560SOL    HW2 3578   2.527   3.065   2.600
  561SOL     OW 3579  10.285   5.293   6.179
  561SOL    HW1 3580  10.251   5.364   6.232
  561SOL    HW2 3581  10.248   5.307   6.092
  562SOL     OW 3582  10.387   1.754  13.437
  562SOL    HW1 3583  10.363   1.815  13.368
  562SOL    HW2 3584  10.440   1.806  13.498
  563SOL     OW 3585  12.907  12.272   4.478
  563SOL    HW1 3586  12.949  12.252   4.562
  563SOL    HW2 3587  12.819  12.302   4.502
  564SOL     OW 3588   5.694   6.621  14.359
  564SOL    HW1 3589   5.732   6.533  14.364
  564SOL    HW2 3590   5.715   6.661  14.443
  565SOL     OW 3591   7.117  14.171   1.711
  565SOL    HW1 3592   7.125  14.131   1.625
  565SOL    HW2 3593   7.177  14.120   1.766
  566SOL     OW 3594   5.068  13.601  12.114
  566SOL    HW1 3595   5.060  13.619  12.208
  566SOL    HW2 3596   5.149  13.645  12.088
  567SOL     OW 3597  12.002  13.532   8.344
  567SOL    HW1 3598  12.023  13.591   8.272
  567SOL    HW2 3599  11.918  13.494   8.321
  568SOL     OW 3600  13.961  11.040   8.023
  568SOL    HW1 3601  13.895  10.976   8.050
  568SOL    HW2 3602  14.022  10.990   7.969
  569SOL     OW 3603  13.022   6.026  14.569
  569SOL    HW1 3604  13.094   6.000  14.626
  569SOL    HW2 3605  13.043   5.989  14.483
  570SOL     OW 3606   8.437   1.221   2.483
  570SOL    HW1 3607   8.505   1.160   2.454
  570SOL    HW2 3608   8.467   1.252   2.568
  571SOL     OW 3609  12.585   8.309   6.407
  571SOL    HW1 3610  12.550   8.316   6.496
  571SOL    HW2 3611  12.676   8.282   6.419
  572SOL     OW 3612   2.475   9.681  11.649
  572SOL    HW1 3613   2.423   9.616  11.697
  572SOL    HW2 3614   2.552   9.632  11.618
  573SOL     OW 3615   8.828   9.862   9.820
  573SOL    HW1 3616   8.847   9.799   9.751
  573SOL    HW2 3617   8.857   9.947   9.785
  574SOL     OW 3618  11.426   8.218   1.154
  574SOL    HW1 3619  11.507   8.211   1.205
  574SOL    HW2 3620  11.425   8.139   1.100
  575SOL     OW 3621  11.931  11.580   0.017
  575SOL    HW1 3622  11.856  11.630   0.051
  575SOL    HW2 3623  11.906  11.488   0.031
  576SOL     OW 3624  11.070  12.942   6.240
  576SOL    HW1 3625  11.087  12.898   6.156
  576SOL    HW2 3626  11.067  12.871   6.304
  577SOL     OW 3627   4.113  11.669   9.415
  577SOL    HW1 3628   4.133  11.642   9.326
  577SOL    HW2 3629   4.031  11.718   9.408
  578SOL     OW 3630   5.204   8.754   8.115
  578SOL    HW1 3631   5.132   8.743   8.178
  578SOL    HW2 3632   5.236   8.666   8.099
  579SOL     OW 3633   9.178   0.045   1.609
  579SOL    HW1 3634   9.127   0.037   1.690
  579SOL    HW2 3635   9.144  14.846   1.552
  580SOL     OW 3636   9.540  13.654  11.753
  580SOL    HW1 3637   9.540  13.602  11.834
  580SOL    HW2 3638   9.545  13.589  11.683
  581SOL     OW 3639   2.757  12.304  10.210
  581SOL    HW1 3640   2.699  12.295  10.286
  581SOL    HW2 3641   2.810  12.224  10.211
  582SOL     OW 3642   5.733   3.340   4.382
  582SOL    HW1 3643   5.759   3.301   4.299
  582SOL    HW2 3644   5.645   3.306   4.398
  583SOL     OW 3645  10.779   6.967   6.593
  583SOL    HW1 3646  10.868   6.965   6.559
  583SOL    HW2 3647  10.789   6.953   6.687
  584SOL     OW 3648  10.038   0.542  11.548
  584SOL    HW1 3649  10.018   0.485  11.622
  584SOL    HW2 3650  10.036   0.630  11.584
  585SOL     OW 3651  12.495   6.283  13.356
  585SOL    HW1 3652  12.402   6.278  13.332
  585SOL    HW2 3653  12.523   6.370  13.325
  586SOL     OW 3654   6.495   6.895   7.407
  586SOL    HW1 3655   6.478   6.837   7.481
  586SOL    HW2 3656   6.441   6.972   7.423
  587SOL     OW 3657   2.633   9.197   0.966
  587SOL    HW1 3658   2.565   9.132   0.950
  587SOL    HW2 3659   2.630   9.255   0.890
  588SOL     OW 3660  14.811   3.978   4.089
  588SOL    HW1 3661   0.035   3.979   4.112
  588SOL    HW2 3662  14.794   4.065   4.053
  589SOL     OW 3663   6.083   6.358   6.926
  589SOL    HW1 3664   6.125   6.440   6.952
  589SOL    HW2 3665   5.994   6.365   6.961
  590SOL     OW 3666  10.329   1.408   1.625
  590SOL    HW1 3667  10.250   1.428   1.574
  590SOL    HW2 3668  10.296   1.395   1.714
  591SOL     OW 3669  10.669   4.175   3.205
  591SOL    HW1 3670  10.674   4.111   3.276
  591SOL    HW2 3671  10.761   4.190   3.181
  592SOL     OW 3672   4.149  10.752   6.604
  592SOL    HW1 3673   4.208  10.811   6.557
  592SOL    HW2 3674   4.148  10.786   6.693
  593SOL     OW 3675   8.402   6.375   3.752
  593SOL    HW1 3676   8.429   6.313   3.820
  593SOL    HW2 3677   8.345   6.323   3.695
  594SOL     OW 3678   8.692   9.461  14.717
  594SOL    HW1 3679   8.666   9.468  14.626
  594SOL    HW2 3680   8.712   9.550  14.744
  595SOL     OW 3681  12.807  10.331  12.918
  595SOL    HW1 3682  12.856  10.254  12.886
  595SOL    HW2 3683  12.739  10.295  12.974
  596SOL     OW 3684   6.125   9.185   3.101
  596SOL    HW1 3685   6.188   9.127   3.143
  596SOL    HW2 3686   6.174   9.266   3.086
  597SOL     OW 3687   8.283   9.547  12.939
  597SOL    HW1 3688   8.335   9.595  12.875
  597SOL    HW2 3689   8.226   9.614  12.978
  598SOL     OW 3690  12.732   9.961   5.413
  598SOL    HW1 3691  12.744  10.032   5.350
  598SOL    HW2 3692  12.639   9.961   5.432
  599SOL     OW 3693   0.241  11.313  13.916
  599SOL    HW1 3694   0.239  11.229  13.870
  599SOL    HW2 3695   0.313  11.361  13.875
  600SOL     OW 3696   8.880   5.158   9.084
  600SOL    HW1 3697   8.897   5.197   8.998
  600SOL    HW2 3698   8.806   5.207   9.119
  601SOL     OW 3699   8.950   1.188  12.274
  601SOL    HW1 3700   8.864   1.228  12.268
  601SOL    HW2 3701   8.945   1.129  12.350
  602SOL     OW 3702   8.603   8.391   4.798
  602SOL    HW1 3703   8.685   8.399   4.847
  602SOL    HW2 3704   8.629   8.368   4.709
  603SOL     OW 3705   7.390   7.433   8.380
  603SOL    HW1 3706   7.478   7.451   8.413
  603SOL    HW2 3707   7.338   7.508   8.408
  604SOL     OW 3708   0.042  12.422  13.377
  604SOL    HW1 3709   0.035  12.357  13.447
  604SOL    HW2 3710  14.834  12.477  13.388
  605SOL     OW 3711   0.833   3.848  10.127
  605SOL    HW1 3712   0.899   3.917  10.126
  605SOL    HW2 3713   0.753   3.891  10.158
  606SOL     OW 3714   7.598  12.661  13.529
  606SOL    HW1 3715   7.546  12.733  13.493
  606SOL    HW2 3716   7.552  12.581  13.500
  607SOL     OW 3717   7.045  10.928  10.238
  607SOL    HW1 3718   7.102  11.004  10.246
  607SOL    HW2 3719   6.979  10.954  10.173
  608SOL     OW 3720   0.785  11.859   2.065
  608SOL    HW1 3721   0.761  11.943   2.104
  608SOL    HW2 3722   0.703  11.811   2.059
  609SOL     OW 3723  12.628   3.185  10.216
  609SOL    HW1 3724  12.663   3.224  10.296
  609SOL    HW2 3725  12.700   3.193  10.153
  610SOL     OW 3726   0.440  14.534   5.677
  610SOL    HW1 3727   0.492  14.542   5.597
  610SOL    HW2 3728   0.480  14.595   5.738
  611SOL     OW 3729   1.575   6.957   0.219
  611SOL    HW1 3730   1.501   6.934   0.275
  611SOL    HW2 3731   1.641   6.993   0.279
  612SOL     OW 3732   2.711   6.336  12.460
  612SOL    HW1 3733   2.616   6.327  12.470
  612SOL    HW2 3734   2.721   6.395  12.386
  613SOL     OW 3735  12.516   9.314  11.260
  613SOL    HW1 3736  12.447   9.260  11.300
  613SOL    HW2 3737  12.498   9.402  11.292
  614SOL     OW 3738  10.018  10.059  11.170
  614SOL    HW1 3739  10.073   9.983  11.153
  614SOL    HW2 3740  10.017  10.107  11.087
  615SOL     OW 3741   7.645   8.491  10.408
  615SOL    HW1 3742   7.578   8.557  10.424
  615SOL    HW2 3743   7.610   8.411  10.449
  616SOL     OW 3744   3.968   2.697   5.555
  616SOL    HW1 3745   3.985   2.769   5.615
  616SOL    HW2 3746   4.053   2.654   5.545
  617SOL     OW 3747   5.413   3.575   7.376
  617SOL    HW1 3748   5.384   3.490   7.344
  617SOL    HW2 3749   5.493   3.594   7.328
  618SOL     OW 3750   0.350  10.318   1.495
  618SOL    HW1 3751   0.415  10.336   1.427
  618SOL    HW2 3752   0.378  10.372   1.569
  619SOL     OW 3753   5.881   8.400   4.509
  619SOL    HW1 3754   5.863   8.408   4.416
  619SOL    HW2 3755   5.976   8.411   4.516
  620SOL     OW 3756   2.191   6.061  12.240
  620SOL    HW1 3757   2.223   6.052  12.329
  620SOL    HW2 3758   2.111   6.112  12.247
  621SOL     OW 3759   7.638   4.934   1.999
  621SOL    HW1 3760   7.647   4.936   2.095
  621SOL    HW2 3761   7.728   4.938   1.967
  622SOL     OW 3762  14.839  11.222   4.889
  622SOL    HW1 3763  14.773  11.154   4.902
  622SOL    HW2 3764  14.848  11.229   4.794
  623SOL     OW 3765  12.138   7.418  11.693
  623SOL    HW1 3766  12.044   7.415  11.676
  623SOL    HW2 3767  12.161   7.510  11.683
  624SOL     OW 3768   6.809   7.222   0.786
  624SOL    HW1 3769   6.732   7.274   0.811
  624SOL    HW2 3770   6.867   7.227   0.862
  625SOL     OW 3771   0.700   6.392  12.934
  625SOL    HW1 3772   0.706   6.412  13.027
  625SOL    HW2 3773   0.624   6.442  12.903
  626SOL     OW 3774   7.981   2.520   9.699
  626SOL    HW1 3775   7.970   2.462   9.624
  626SOL    HW2 3776   8.054   2.482   9.748
  627SOL     OW 3777   2.448   0.345   1.609
  627SOL    HW1 3778   2.393   0.419   1.638
  627SOL    HW2 3779   2.440   0.345   1.514
  628SOL     OW 3780   5.458  12.856  10.836
  628SOL    HW1 3781   5.466  12.843  10.931
  628SOL    HW2 3782   5.472  12.950  10.823
  629SOL     OW 3783   1.376  13.398  13.296
  629SOL    HW1 3784   1.430  13.358  13.364
  629SOL    HW2 3785   1.378  13.335  13.224
  630SOL     OW 3786   0.480   2.617   2.247
  630SOL    HW1 3787   0.552   2.678   2.231
  630SOL    HW2 3788   0.433   2.612   2.163
  631SOL     OW 3789  10.487  14.224  13.394
  631SOL    HW1 3790  10.484  14.189  13.483
  631SOL    HW2 3791  10.412  14.283  13.388
  632SOL     OW 3792   3.683   8.043  10.552
  632SOL    HW1 3793   3.766   8.086  10.532
  632SOL    HW2 3794   3.707   7.971  10.610
  633SOL     OW 3795  12.286   9.594   9.809
  633SOL    HW1 3796  12.373   9.624   9.783
  633SOL    HW2 3797  12.302   9.518   9.864
  634SOL     OW 3798   8.652   4.683   5.625
  634SOL    HW1 3799   8.580   4.742   5.648
  634SOL    HW2 3800   8.628   4.599   5.662
  635SOL     OW 3801  10.894   4.134  12.957
  635SOL    HW1 3802  10.930   4.215  12.994
  635SOL    HW2 3803  10.966   4.071  12.961
  636SOL     OW 3804   9.781  10.038  10.564
  636SOL    HW1 3805   9.764  10.121  10.609
  636SOL    HW2 3806   9.722  10.040  10.488
  637SOL     OW 3807   2.262   3.290   8.296
  637SOL    HW1 3808   2.327   3.350   8.332
  637SOL    HW2 3809   2.260   3.310   8.202
  638SOL     OW 3810  11.127   1.481   9.789
  638SOL    HW1 3811  11.042   1.478   9.832
  638SOL    HW2 3812  11.175   1.550   9.835
  639SOL     OW 3813  14.556   8.882  11.939
  639SOL    HW1 3814  14.464   8.905  11.930
  639SOL    HW2 3815  14.599   8.929  11.867
  640SOL     OW 3816   0.025   1.036   0.495
  640SOL    HW1 3817  14.820   1.065   0.442
  640SOL    HW2 3818  14.863   0.958   0.540
  641SOL     OW 3819   2.064  11.841   3.301
  641SOL    HW1 3820   2.022  11.776   3.356
  641SOL    HW2 3821   1.997  11.864   3.236
  642SOL     OW 3822  14.560   3.116   0.612
  642SOL    HW1 3823  14.503   3.089   0.540
  642SOL    HW2 3824  14.527   3.067   0.688
  643SOL     OW 3825  13.353  10.452   4.282
  643SOL    HW1 3826  13.315  10.518   4.339
  643SOL    HW2 3827  13.326  10.477   4.194
  644SOL     OW 3828  12.583  12.523  10.123
  644SOL    HW1 3829  12.677  12.525  10.105
  644SOL    HW2 3830  12.543  12.505  10.038
  645SOL     OW 3831  11.613   0.833   6.244
  645SOL    HW1 3832  11.667   0.818   6.321
  645SOL    HW2 3833  11.524   0.812   6.272
  646SOL     OW 3834  11.970  11.732  10.127
  646SOL    HW1 3835  11.942  11.647  10.095
  646SOL    HW2 3836  12.006  11.714  10.214
  647SOL     OW 3837   3.701   0.147   1.907
  647SOL    HW1 3838   3.771   0.205   1.877
  647SOL    HW2 3839   3.694   0.081   1.838
  648SOL     OW 3840   4.023  13.446   8.294
  648SOL    HW1 3841   4.088  13.398   8.345
  648SOL    HW2 3842   4.063  13.454   8.207
  649SOL     OW 3843   2.414  12.592  13.480
  649SOL    HW1 3844   2.504  12.565  13.497
  649SOL    HW2 3845   2.407  12.595  13.384
  650SOL     OW 3846   8.004  12.949   1.998
  650SOL    HW1 3847   8.037  13.002   1.925
  650SOL    HW2 3848   8.079  12.897   2.026
  651SOL     OW 3849   2.100   6.977   0.223
  651SOL    HW1 3850   2.137   6.910   0.166
  651SOL    HW2 3851   2.076   6.930   0.303
  652SOL     OW 3852  14.007  10.836   9.855
  652SOL    HW1 3853  14.011  10.931   9.844
  652SOL    HW2 3854  13.992  10.802   9.766
  653SOL     OW 3855  14.225   2.592   4.911
  653SOL    HW1 3856  14.300   2.539   4.934
  653SOL    HW2 3857  14.190   2.551   4.831
  654SOL     OW 3858  11.481   6.432  11.928
  654SOL    HW1 3859  11.473   6.357  11.868
  654SOL    HW2 3860  11.575   6.441  11.943
  655SOL     OW 3861   1.342  11.525   4.881
  655SOL    HW1 3862   1.313  11.517   4.790
  655SOL    HW2 3863   1.387  11.609   4.884
  656SOL     OW 3864  11.718   5.021   8.478
  656SOL    HW1 3865  11.777   4.987   8.410
  656SOL    HW2 3866  11.633   4.984   8.455
  657SOL     OW 3867   5.714   4.301   1.043
  657SOL    HW1 3868   5.784   4.239   1.062
  657SOL    HW2 3869   5.682   4.276   0.956
  658SOL     OW 3870   3.394   8.104   6.889
  658SOL    HW1 3871   3.340   8.079   6.964
  658SOL    HW2 3872   3.375   8.038   6.822
  659SOL     OW 3873   0.753  12.055   1.781
  659SOL    HW1 3874   0.736  11.961   1.776
  659SOL    HW2 3875   0.816  12.064   1.851
  660SOL     OW 3876   2.263   1.591   7.748
  660SOL    HW1 3877   2.260   1.628   7.660
  660SOL    HW2 3878   2.201   1.644   7.799
  661SOL     OW 3879   2.489   5.816  14.035
  661SOL    HW1 3880   2.553   5.752  14.069
  661SOL    HW2 3881   2.455   5.776  13.956
  662SOL     OW 3882  14.050   4.513   0.308
  662SOL    HW1 3883  14.073   4.500   0.216
  662SOL    HW2 3884  14.066   4.606   0.324
  663SOL     OW 3885   3.514  13.716   7.259
  663SOL    HW1 3886   3.472  13.785   7.311
  663SOL    HW2 3887   3.442  13.677   7.209
  664SOL     OW 3888  14.018   7.114   8.858
  664SOL    HW1 3889  13.979   7.164   8.930
  664SOL    HW2 3890  13.948   7.056   8.829
  665SOL     OW 3891   3.757   8.124  12.627
  665SOL    HW1 3892   3.692   8.152  12.561
  665SOL    HW2 3893   3.835   8.103  12.576
  666SOL     OW 3894   4.821   5.752   1.758
  666SOL    HW1 3895   4.768   5.732   1.680
  666SOL    HW2 3896   4.890   5.809   1.725
  667SOL     OW 3897   8.727   2.632   2.264
  667SOL    HW1 3898   8.782   2.711   2.269
  667SOL    HW2 3899   8.720   2.613   2.171
  668SOL     OW 3900  14.380   2.705  12.246
  668SOL    HW1 3901  14.386   2.797  12.269
  668SOL    HW2 3902  14.444   2.693  12.176
  669SOL     OW 3903   7.757   5.690   2.491
  669SOL    HW1 3904   7.681   5.698   2.434
  669SOL    HW2 3905   7.793   5.779   2.497
  670SOL     OW 3906  12.533   5.135   0.620
  670SOL    HW1 3907  12.589   5.066   0.656
  670SOL    HW2 3908  12.578   5.163   0.541
  671SOL     OW 3909   1.199   6.543   0.495
  671SOL    HW1 3910   1.266   6.527   0.561
  671SOL    HW2 3911   1.132   6.477   0.512
  672SOL     OW 3912   0.857   4.044   3.150
  672SOL    HW1 3913   0.790   4.063   3.085
  672SOL    HW2 3914   0.836   4.100   3.224
  673SOL     OW 3915   1.760   3.858   4.969
  673SOL    HW1 3916   1.703   3.781   4.973
  673SOL    HW2 3917   1.714   3.925   5.020
  674SOL     OW 3918   6.312   3.719   2.315
  674SOL    HW1 3919   6.260   3.796   2.338
  674SOL    HW2 3920   6.249   3.657   2.279
  675SOL     OW 3921   1.308  10.066   3.586
  675SOL    HW1 3922   1.226  10.068   3.538
  675SOL    HW2 3923   1.375  10.049   3.519
  676SOL     OW 3924   9.732   8.571   0.039
  676SOL    HW1 3925   9.659   8.620  14.869
  676SOL    HW2 3926   9.696   8.484   0.057
  677SOL     OW 3927  13.584   8.318   4.928
  677SOL    HW1 3928  13.599   8.400   4.976
  677SOL    HW2 3929  13.661   8.311   4.870
  678SOL     OW 3930   9.271  10.073   6.078
  678SOL    HW1 3931   9.213  10.003   6.106
  678SOL    HW2 3932   9.235  10.152   6.118
  679SOL     OW 3933  13.245  11.180   9.055
  679SOL    HW1 3934  13.334  11.174   9.091
  679SOL    HW2 3935  13.227  11.093   9.022
  680SOL     OW 3936  11.792   3.280  11.108
  680SOL    HW1 3937  11.790   3.340  11.182
  680SOL    HW2 3938  11.700   3.266  11.085
  681SOL     OW 3939   0.887   3.228   6.108
  681SOL    HW1 3940   0.930   3.302   6.065
  681SOL    HW2 3941   0.851   3.264   6.189
  682SOL     OW 3942   3.058  12.803   7.657
  682SOL    HW1 3943   3.131  12.780   7.715
  682SOL    HW2 3944   3.085  12.773   7.571
  683SOL     OW 3945  14.582  10.927   5.471
  683SOL    HW1 3946  14.523  10.909   5.544
  683SOL    HW2 3947  14.650  10.984   5.508
  684SOL     OW 3948  14.269   8.530   8.176
  684SOL    HW1 3949  14.234   8.452   8.135
  684SOL    HW2 3950  14.205   8.599   8.157
  685SOL     OW 3951  13.217  13.411  10.295
  685SOL    HW1 3952  13.200  13.426  10.202
  685SOL    HW2 3953  13.220  13.316  10.303
  686SOL     OW 3954   0.465   3.932  13.708
  686SOL    HW1 3955   0.392   3.875  13.730
  686SOL    HW2 3956   0.464   3.936  13.612
  687SOL     OW 3957   3.850  10.312  13.231
  687SOL    HW1 3958   3.913  10.333  13.300
  687SOL    HW2 3959   3.861  10.383  13.167
  688SOL     OW 3960   5.654  11.615   5.722
  688SOL    HW1 3961   5.630  11.531   5.759
  688SOL    HW2 3962   5.749  11.610   5.711
  689SOL     OW 3963   1.029   3.316   1.712
  689SOL    HW1 3964   0.970   3.284   1.781
  689SOL    HW2 3965   0.985   3.292   1.630
  690SOL     OW 3966  13.265  14.549  10.280
  690SOL    HW1 3967  13.299  14.599  10.206
  690SOL    HW2 3968  13.289  14.601  10.357
  691SOL     OW 3969  13.525   5.177   5.758
  691SOL    HW1 3970  13.617   5.152   5.766
  691SOL    HW2 3971  13.526   5.272   5.748
  692SOL     OW 3972  13.646   1.383  11.527
  692SOL    HW1 3973  13.614   1.362  11.614
  692SOL    HW2 3974  13.608   1.468  11.507
  693SOL     OW 3975  12.827   0.984   7.095
  693SOL    HW1 3976  12.869   1.069   7.106
  693SOL    HW2 3977  12.843   0.960   7.004
  694SOL     OW 3978   1.174  13.800   3.929
  694SOL    HW1 3979   1.186  13.714   3.971
  694SOL    HW2 3980   1.217  13.792   3.844
  695SOL     OW 3981  13.880  13.831   5.823
  695SOL    HW1 3982  13.851  13.740   5.812
  695SOL    HW2 3983  13.799  13.882   5.826
  696SOL     OW 3984   4.659  10.956   8.997
  696SOL    HW1 3985   4.737  10.930   9.045
  696SOL    HW2 3986   4.686  11.033   8.947
  697SOL     OW 3987  11.986   2.104   0.908
  697SOL    HW1 3988  11.988   2.168   0.836
  697SOL    HW2 3989  11.894   2.101   0.934
  698SOL     OW 3990   1.650  10.736  11.298
  698SOL    HW1 3991   1.742  10.749  11.276
  698SOL    HW2 3992   1.637  10.787  11.378
  699SOL     OW 3993  10.953  12.771   3.900
  699SOL    HW1 3994  10.971  12.864   3.911
  699SOL    HW2 3995  10.894  12.767   3.825
  700SOL     OW 3996   1.865   5.699  11.724
  700SOL    HW1 3997   1.780   5.711  11.767
  700SOL    HW2 3998   1.898   5.788  11.710
  701SOL     OW 3999   9.861   9.409  13.683
  701SOL    HW1 4000   9.784   9.364  13.719
  701SOL    HW2 4001   9.912   9.339  13.641
  702SOL     OW 4002   6.809   3.692  10.806
  702SOL    HW1 4003   6.788   3.759  10.871
  702SOL    HW2 4004   6.727   3.680  10.758
  703SOL     OW 4005   6.654   0.784  13.617
  703SOL    HW1 4006   6.711   0.707  13.616
  703SOL    HW2 4007   6.713   0.858  13.598
  704SOL     OW 4008   5.383  11.849   7.228
  704SOL    HW1 4009   5.314  11.916   7.225
  704SOL    HW2 4010   5.344  11.774   7.183
  705SOL     OW 4011   4.979   9.353   3.067
  705SOL    HW1 4012   5.073   9.368   3.079
  705SOL    HW2 4013   4.963   9.374   2.975
  706SOL     OW 4014  14.241   6.221   4.641
  706SOL    HW1 4015  14.255   6.285   4.710
  706SOL    HW2 4016  14.177   6.263   4.583
  707SOL     OW 4017  11.907   5.511   1.047
  707SOL    HW1 4018  11.838   5.575   1.065
  707SOL    HW2 4019  11.877   5.431   1.090
  708SOL     OW 4020   8.031   5.419   6.777
  708SOL    HW1 4021   8.053   5.345   6.834
  708SOL    HW2 4022   8.063   5.393   6.691
  709SOL     OW 4023   6.510   4.272  11.237
  709SOL    HW1 4024   6.458   4.352  11.228
  709SOL    HW2 4025   6.547   4.278  11.326
  710SOL     OW 4026  11.354   3.979   2.263
  710SOL    HW1 4027  11.304   3.961   2.343
  710SOL    HW2 4028  11.311   3.926   2.195
  711SOL     OW 4029   2.518   3.189   5.773
  711SOL    HW1 4030   2.609   3.187   5.743
  711SOL    HW2 4031   2.467   3.189   5.692
  712SOL     OW 4032   1.906   3.141   1.345
  712SOL    HW1 4033   1.952   3.070   1.300
  712SOL    HW2 4034   1.845   3.176   1.279
  713SOL     OW 4035   1.780  10.037  10.046
  713SOL    HW1 4036   1.776   9.963  10.106
  713SOL    HW2 4037   1.690  10.066  10.036
  714SOL     OW 4038  13.874   2.347   3.824
  714SOL    HW1 4039  13.881   2.438   3.851
  714SOL    HW2 4040  13.846   2.352   3.732
  715SOL     OW 4041  11.246   9.769   7.654
  715SOL    HW1 4042  11.327   9.725   7.627
  715SOL    HW2 4043  11.265   9.804   7.741
  716SOL     OW 4044   3.674   1.170  10.417
  716SOL    HW1 4045   3.766   1.183  10.397
  716SOL    HW2 4046   3.659   1.225  10.495
  717SOL     OW 4047   8.891   5.343  12.953
  717SOL    HW1 4048   8.943   5.334  13.033
  717SOL    HW2 4049   8.829   5.270  12.956
  718SOL     OW 4050   3.694  14.017  10.357
  718SOL    HW1 4051   3.688  14.108  10.327
  718SOL    HW2 4052   3.758  14.020  10.428
  719SOL     OW 4053   6.052  10.739   4.664
  719SOL    HW1 4054   6.100  10.760   4.584
  719SOL    HW2 4055   5.992  10.813   4.677
  720SOL     OW 4056   6.237  11.915   7.903
  720SOL    HW1 4057   6.284  11.959   7.974
  720SOL    HW2 4058   6.281  11.831   7.892
  721SOL     OW 4059  12.247   4.217   2.411
  721SOL    HW1 4060  12.158   4.199   2.440
  721SOL    HW2 4061  12.300   4.209   2.491
  722SOL     OW 4062   2.254   7.698  14.571
  722SOL    HW1 4063   2.341   7.663  14.590
  722SOL    HW2 4064   2.204   7.623  14.539
  723SOL     OW 4065  13.580  11.200   3.422
  723SOL    HW1 4066  13.660  11.157   3.392
  723SOL    HW2 4067  13.513  11.176   3.358
  724SOL     OW 4068   0.857  11.421   1.380
  724SOL    HW1 4069   0.790  11.355   1.363
  724SOL    HW2 4070   0.808  11.498   1.411
  725SOL     OW 4071   0.662   2.805   0.090
  725SOL    HW1 4072   0.678   2.745   0.163
  725SOL    HW2 4073   0.659   2.749   0.013
  726SOL     OW 4074  14.464  14.553   7.357
  726SOL    HW1 4075  14.521  14.554   7.434
  726SOL    HW2 4076  14.375  14.554   7.392
  727SOL     OW 4077   1.490   4.976   8.826
  727SOL    HW1 4078   1.459   4.888   8.804
  727SOL    HW2 4079   1.583   4.974   8.806
  728SOL     OW 4080   5.784   8.707   2.866
  728SOL    HW1 4081   5.742   8.621   2.863
  728SOL    HW2 4082   5.712   8.769   2.856
  729SOL     OW 4083  12.468   0.148   8.315
  729SOL    HW1 4084  12.410   0.077   8.340
  729SOL    HW2 4085  12.522   0.112   8.245
  730SOL     OW 4086   0.118   0.165  14.676
  730SOL    HW1 4087   0.046   0.117  14.635
  730SOL    HW2 4088   0.185   0.172  14.608
  731SOL     OW 4089  12.788   8.928  12.953
  731SOL    HW1 4090  12.726   8.885  12.894
  731SOL    HW2 4091  12.764   8.896  13.040
  732SOL     OW 4092  12.141   3.716  13.676
  732SOL    HW1 4093  12.179   3.645  13.623
  732SOL    HW2 4094  12.049   3.692  13.685
  733SOL     OW 4095   2.265   9.960   4.146
  733SOL    HW1 4096   2.229  10.010   4.073
  733SOL    HW2 4097   2.190   9.915   4.184
  734SOL     OW 4098   8.529   0.041   5.276
  734SOL    HW1 4099   8.569  14.843   5.221
  734SOL    HW2 4100   8.456  14.866   5.319
  735SOL     OW 4101  10.427  11.348   4.153
  735SOL    HW1 4102  10.354  11.397   4.117
  735SOL    HW2 4103  10.493  11.347   4.084
  736SOL     OW 4104   6.082   3.155   3.362
  736SOL    HW1 4105   6.061   3.201   3.280
  736SOL    HW2 4106   6.123   3.222   3.417
  737SOL     OW 4107   4.897   0.605   5.627
  737SOL    HW1 4108   4.991   0.606   5.608
  737SOL    HW2 4109   4.861   0.537   5.571
  738SOL     OW 4110   4.453   6.463  14.767
  738SOL    HW1 4111   4.417   6.441  14.853
  738SOL    HW2 4112   4.544   6.485  14.784
  739SOL     OW 4113   6.000  11.706  12.957
  739SOL    HW1 4114   6.033  11.620  12.930
  739SOL    HW2 4115   6.001  11.703  13.053
  740SOL     OW 4116   0.643  14.837   5.762
  740SOL    HW1 4117   0.655   0.054   5.801
  740SOL    HW2 4118   0.593  14.788   5.827
  741SOL     OW 4119   9.937   7.418   9.629
  741SOL    HW1 4120  10.016   7.413   9.575
  741SOL    HW2 4121   9.865   7.413   9.568
  742SOL     OW 4122   6.927   3.388   3.547
  742SOL    HW1 4123   6.899   3.419   3.461
  742SOL    HW2 4124   6.847   3.391   3.600
  743SOL     OW 4125   3.122  11.553  11.180
  743SOL    HW1 4126   3.139  11.569  11.087
  743SOL    HW2 4127   3.070  11.628  11.208
  744SOL     OW 4128  11.590   1.189   6.156
  744SOL    HW1 4129  11.519   1.211   6.217
  744SOL    HW2 4130  11.665   1.170   6.212
  745SOL     OW 4131   2.702   5.112   3.267
  745SOL    HW1 4132   2.774   5.127   3.328
  745SOL    HW2 4133   2.633   5.073   3.321
  746SOL     OW 4134   4.897  10.321   6.743
  746SOL    HW1 4135   4.876  10.401   6.790
  746SOL    HW2 4136   4.942  10.351   6.664
  747SOL     OW 4137   3.709  12.337  11.303
  747SOL    HW1 4138   3.665  12.255  11.323
  747SOL    HW2 4139   3.799  12.325  11.336
  748SOL     OW 4140   6.215  10.475  11.902
  748SOL    HW1 4141   6.296  10.428  11.920
  748SOL    HW2 4142   6.225  10.558  11.947
  749SOL     OW 4143  12.770   9.635  11.672
  749SOL    HW1 4144  12.722   9.685  11.605
  749SOL    HW2 4145  12.705   9.620  11.741
  750SOL     OW 4146   1.912   2.507   4.931
  750SOL    HW1 4147   2.005   2.498   4.950
  750SOL    HW2 4148   1.903   2.475   4.841
  751SOL     OW 4149   2.504   5.684   1.251
  751SOL    HW1 4150   2.413   5.664   1.227
  751SOL    HW2 4151   2.554   5.663   1.172
  752SOL     OW 4152   0.822  12.432   1.530
  752SOL    HW1 4153   0.753  12.455   1.593
  752SOL    HW2 4154   0.834  12.338   1.542
  753SOL     OW 4155   3.669   7.356   8.133
  753SOL    HW1 4156   3.765   7.358   8.142
  753SOL    HW2 4157   3.650   7.265   8.110
  754SOL     OW 4158   7.983  10.317  13.136
  754SOL    HW1 4159   7.893  10.286  13.139
  754SOL    HW2 4160   7.998  10.342  13.045
  755SOL     OW 4161   8.136   0.998  11.870
  755SOL    HW1 4162   8.221   0.967  11.903
  755SOL    HW2 4163   8.145   1.094  11.867
  756SOL     OW 4164   7.878   2.916  12.466
  756SOL    HW1 4165   7.961   2.933  12.510
  756SOL    HW2 4166   7.817   2.979  12.505
  757SOL     OW 4167   1.766   3.083  14.842
  757SOL    HW1 4168   1.786   3.121  14.756
  757SOL    HW2 4169   1.712   3.149   0.017
  758SOL     OW 4170   3.322   9.517   5.609
  758SOL    HW1 4171   3.369   9.435   5.624
  758SOL    HW2 4172   3.342   9.570   5.687
  759SOL     OW 4173   6.336  13.007  14.279
  759SOL    HW1 4174   6.313  12.922  14.317
  759SOL    HW2 4175   6.363  12.988  14.190
  760SOL     OW 4176   3.963   3.845   6.681
  760SOL    HW1 4177   3.970   3.937   6.706
  760SOL    HW2 4178   4.036   3.831   6.621
  761SOL     OW 4179   6.436   9.082  10.034
  761SOL    HW1 4180   6.528   9.108  10.036
  761SOL    HW2 4181   6.426   9.021  10.108
  762SOL     OW 4182   1.256   5.778  11.463
  762SOL    HW1 4183   1.166   5.755  11.487
  762SOL    HW2 4184   1.254   5.871  11.445
  763SOL     OW 4185   5.144   0.567   6.947
  763SOL    HW1 4186   5.069   0.607   6.991
  763SOL    HW2 4187   5.220   0.617   6.977
  764SOL     OW 4188   7.476   6.659  12.010
  764SOL    HW1 4189   7.508   6.712  12.083
  764SOL    HW2 4190   7.537   6.586  12.005
  765SOL     OW 4191   5.051  14.805  11.684
  765SOL    HW1 4192   4.983  14.741  11.706
  765SOL    HW2 4193   5.091  14.827  11.768
  766SOL     OW 4194  11.188   8.334  11.716
  766SOL    HW1 4195  11.235   8.414  11.741
  766SOL    HW2 4196  11.100   8.363  11.694
  767SOL     OW 4197   6.689  13.211  10.080
  767SOL    HW1 4198   6.602  13.172  10.074
  767SOL    HW2 4199   6.724  13.180  10.164
  768SOL     OW 4200   7.392   5.005   4.882
  768SOL    HW1 4201   7.408   4.952   4.804
  768SOL    HW2 4202   7.381   4.941   4.953
  769SOL     OW 4203   0.347  13.429   0.163
  769SOL    HW1 4204   0.254  13.433   0.182
  769SOL    HW2 4205   0.387  13.487   0.228
  770SOL     OW 4206   4.875   5.779   9.559
  770SOL    HW1 4207   4.904   5.851   9.616
  770SOL    HW2 4208   4.799   5.814   9.513
  771SOL     OW 4209   5.557   0.657  12.190
  771SOL    HW1 4210   5.469   0.676  12.156
  771SOL    HW2 4211   5.615   0.680  12.118
  772SOL     OW 4212   5.570   6.956   1.483
  772SOL    HW1 4213   5.662   6.955   1.456
  772SOL    HW2 4214   5.571   6.927   1.574
  773SOL     OW 4215  11.753   6.554  13.859
  773SOL    HW1 4216  11.699   6.585  13.932
  773SOL    HW2 4217  11.691   6.528  13.792
  774SOL     OW 4218  13.222   6.358   7.255
  774SOL    HW1 4219  13.169   6.398   7.324
  774SOL    HW2 4220  13.271   6.431   7.217
  775SOL     OW 4221  13.687   2.383   7.311
  775SOL    HW1 4222  13.684   2.383   7.407
  775SOL    HW2 4223  13.641   2.463   7.285
  776SOL     OW 4224   5.512   5.047   9.850
  776SOL    HW1 4225   5.542   4.960   9.822
  776SOL    HW2 4226   5.503   5.040   9.945
  777SOL     OW 4227   5.640  14.726  11.693
  777SOL    HW1 4228   5.675  14.781  11.623
  777SOL    HW2 4229   5.583  14.785  11.743
  778SOL     OW 4230   4.251   7.502   9.012
  778SOL    HW1 4231   4.324   7.462   8.964
  778SOL    HW2 4232   4.175   7.484   8.957
  779SOL     OW 4233  10.526   2.731   0.466
  779SOL    HW1 4234  10.553   2.678   0.391
  779SOL    HW2 4235  10.533   2.822   0.435
  780SOL     OW 4236  12.505  14.802   1.598
  780SOL    HW1 4237  12.457   0.006   1.639
  780SOL    HW2 4238  12.445  14.728   1.606
  781SOL     OW 4239   2.617   6.488   0.269
  781SOL    HW1 4240   2.556   6.414   0.271
  781SOL    HW2 4241   2.574   6.556   0.321
  782SOL     OW 4242   2.217  13.593   7.791
  782SOL    HW1 4243   2.166  13.613   7.713
  782SOL    HW2 4244   2.154  13.554   7.851
  783SOL     OW 4245   4.434   2.678   0.261
  783SOL    HW1 4246   4.366   2.745   0.257
  783SOL    HW2 4247   4.496   2.703   0.193
  784SOL     OW 4248  13.767   4.840   6.387
  784SOL    HW1 4249  13.815   4.877   6.461
  784SOL    HW2 4250  13.675   4.842   6.415
  785SOL     OW 4251   4.982   5.896   4.486
  785SOL    HW1 4252   4.888   5.883   4.481
  785SOL    HW2 4253   4.994   5.975   4.538
  786SOL     OW 4254   8.002  14.027   1.143
  786SOL    HW1 4255   8.065  13.983   1.086
  786SOL    HW2 4256   8.042  14.112   1.162
  787SOL     OW 4257  13.307   2.562   3.272
  787SOL    HW1 4258  13.218   2.591   3.248
  787SOL    HW2 4259  13.306   2.468   3.258
  788SOL     OW 4260   5.595   0.593   9.953
  788SOL    HW1 4261   5.502   0.605   9.937
  788SOL    HW2 4262   5.606   0.498   9.959
  789SOL     OW 4263   5.093   2.417  14.385
  789SOL    HW1 4264   5.082   2.502  14.342
  789SOL    HW2 4265   5.080   2.435  14.478
  790SOL     OW 4266   6.632   3.088   4.203
  790SOL    HW1 4267   6.691   3.096   4.278
  790SOL    HW2 4268   6.618   3.178   4.174
  791SOL     OW 4269   5.500   6.662   5.233
  791SOL    HW1 4270   5.522   6.603   5.306
  791SOL    HW2 4271   5.409   6.640   5.211
  792SOL     OW 4272   3.439   9.986   7.009
  792SOL    HW1 4273   3.450   9.911   7.066
  792SOL    HW2 4274   3.439   9.949   6.920
  793SOL     OW 4275   4.893   1.313   7.449
  793SOL    HW1 4276   4.905   1.407   7.431
  793SOL    HW2 4277   4.813   1.290   7.402
  794SOL     OW 4278  13.711   9.292  11.136
  794SOL    HW1 4279  13.693   9.376  11.093
  794SOL    HW2 4280  13.651   9.230  11.094
  795SOL     OW 4281   9.494   1.649   5.901
  795SOL    HW1 4282   9.410   1.642   5.855
  795SOL    HW2 4283   9.479   1.714   5.970
  796SOL     OW 4284   6.613  11.137   7.147
  796SOL    HW1 4285   6.533  11.096   7.112
  796SOL    HW2 4286   6.681  11.116   7.083
  797SOL     OW 4287   3.731   5.339   0.067
  797SOL    HW1 4288   3.648   5.317   0.110
  797SOL    HW2 4289   3.706   5.391  14.860
  798SOL     OW 4290  13.500   3.428   4.832
  798SOL    HW1 4291  13.519   3.514   4.796
  798SOL    HW2 4292  13.417   3.402   4.793
  799SOL     OW 4293   9.120   4.062   5.732
  799SOL    HW1 4294   9.049   4.112   5.771
  799SOL    HW2 4295   9.141   3.995   5.796
  800SOL     OW 4296  12.043   4.501   2.648
  800SOL    HW1 4297  12.092   4.578   2.617
  800SOL    HW2 4298  12.111   4.439   2.676
  801SOL     OW 4299   4.967   3.428   8.761
  801SOL    HW1 4300   4.907   3.372   8.809
  801SOL    HW2 4301   4.941   3.419   8.669
  802SOL     OW 4302   9.711  13.287   2.445
  802SOL    HW1 4303   9.619  13.312   2.453
  802SOL    HW2 4304   9.742  13.333   2.366
  803SOL     OW 4305   8.883  14.760  12.069
  803SOL    HW1 4306   8.856  14.844  12.108
  803SOL    HW2 4307   8.975  14.772  12.048
  804SOL     OW 4308   0.346   0.177   0.147
  804SOL    HW1 4309   0.277   0.123   0.109
  804SOL    HW2 4310   0.306   0.218   0.223
  805SOL     OW 4311   5.542   4.474   3.346
  805SOL    HW1 4312   5.593   4.499   3.268
  805SOL    HW2 4313   5.541   4.553   3.400
  806SOL     OW 4314   6.694  12.938   9.099
  806SOL    HW1 4315   6.714  13.023   9.136
  806SOL    HW2 4316   6.610  12.913   9.139
  807SOL     OW 4317   5.888   0.898   3.642
  807SOL    HW1 4318   5.831   0.906   3.719
  807SOL    HW2 4319   5.836   0.935   3.570
  808SOL     OW 4320  11.726   6.771  13.429
  808SOL    HW1 4321  11.761   6.814  13.351
  808SOL    HW2 4322  11.789   6.790  13.498
  809SOL     OW 4323   5.235   6.578   1.596
  809SOL    HW1 4324   5.321   6.603   1.631
  809SOL    HW2 4325   5.175   6.642   1.633
  810SOL     OW 4326   5.065   8.212   3.946
  810SOL    HW1 4327   4.986   8.265   3.935
  810SOL    HW2 4328   5.053   8.170   4.031
  811SOL     OW 4329   9.670   5.947   2.138
  811SOL    HW1 4330   9.662   5.998   2.058
  811SOL    HW2 4331   9.657   6.010   2.208
  812SOL     OW 4332   8.766   9.278   1.190
  812SOL    HW1 4333   8.787   9.208   1.252
  812SOL    HW2 4334   8.740   9.233   1.110
  813SOL     OW 4335   4.180   2.103   8.153
  813SOL    HW1 4336   4.232   2.023   8.157
  813SOL    HW2 4337   4.245   2.173   8.139
  814SOL     OW 4338  10.744  11.153   3.546
  814SOL    HW1 4339  10.669  11.103   3.576
  814SOL    HW2 4340  10.814  11.134   3.608
  815SOL     OW 4341   1.236  11.014  11.322
  815SOL    HW1 4342   1.195  11.016  11.409
  815SOL    HW2 4343   1.323  11.053  11.336
  816SOL     OW 4344  11.943   5.872   4.342
  816SOL    HW1 4345  11.906   5.937   4.283
  816SOL    HW2 4346  11.982   5.923   4.413
  817SOL     OW 4347   1.025   3.501  10.961
  817SOL    HW1 4348   0.942   3.474  10.999
  817SOL    HW2 4349   1.022   3.597  10.961
  818SOL     OW 4350   3.242  12.271  13.791
  818SOL    HW1 4351   3.330  12.241  13.768
  818SOL    HW2 4352   3.235  12.357  13.750
  819SOL     OW 4353   0.682  12.379  11.044
  819SOL    HW1 4354   0.735  12.311  11.002
  819SOL    HW2 4355   0.700  12.458  10.994
  820SOL     OW 4356  14.348  12.212   2.351
  820SOL    HW1 4357  14.275  12.274   2.354
  820SOL    HW2 4358  14.314  12.132   2.390
  821SOL     OW 4359  10.147   3.887  13.492
  821SOL    HW1 4360  10.118   3.874  13.582
  821SOL    HW2 4361  10.232   3.843  13.487
  822SOL     OW 4362   8.767   3.345  12.683
  822SOL    HW1 4363   8.767   3.292  12.604
  822SOL    HW2 4364   8.682   3.388  12.683
  823SOL     OW 4365   7.992  11.748   9.327
  823SOL    HW1 4366   7.926  11.773   9.264
  823SOL    HW2 4367   8.074  11.743   9.277
  824SOL     OW 4368  13.219   5.037   8.080
  824SOL    HW1 4369  13.279   5.015   8.152
  824SOL    HW2 4370  13.243   4.976   8.010
  825SOL     OW 4371   0.012   8.745   4.002
  825SOL    HW1 4372  14.861   8.810   4.070
  825SOL    HW2 4373   0.103   8.721   4.019
  826SOL     OW 4374  10.259   9.483  14.210
  826SOL    HW1 4375  10.218   9.401  14.238
  826SOL    HW2 4376  10.353   9.465  14.211
  827SOL     OW 4377  10.510   6.447   0.695
  827SOL    HW1 4378  10.448   6.519   0.682
  827SOL    HW2 4379  10.592   6.491   0.719
  828SOL     OW 4380  13.076   8.492  14.729
  828SOL    HW1 4381  13.153   8.468  14.780
  828SOL    HW2 4382  13.108   8.501  14.639
  829SOL     OW 4383  11.015  14.065   2.672
  829SOL    HW1 4384  10.934  14.091   2.630
  829SOL    HW2 4385  11.060  14.147   2.692
  830SOL     OW 4386   5.344   9.433   2.190
  830SOL    HW1 4387   5.275   9.444   2.124
  830SOL    HW2 4388   5.420   9.478   2.153
  831SOL     OW 4389   9.964   1.751  13.763
  831SOL    HW1 4390  10.007   1.709  13.838
  831SOL    HW2 4391  10.029   1.749  13.693
  832SOL     OW 4392   4.414   2.298   1.841
  832SOL    HW1 4393   4.445   2.375   1.889
  832SOL    HW2 4394   4.361   2.334   1.769
  833SOL     OW 4395  13.856   3.835  10.302
  833SOL    HW1 4396  13.918   3.907  10.307
  833SOL    HW2 4397  13.876   3.779  10.377
  834SOL     OW 4398   9.250   6.434  12.825
  834SOL    HW1 4399   9.207   6.477  12.898
  834SOL    HW2 4400   9.337   6.473  12.820
  835SOL     OW 4401  14.729   2.768   7.323
  835SOL    HW1 4402  14.699   2.766   7.414
  835SOL    HW2 4403  14.792   2.696   7.318
  836SOL     OW 4404   9.879   2.497   2.360
  836SOL    HW1 4405   9.790   2.487   2.393
  836SOL    HW2 4406   9.933   2.511   2.438
  837SOL     OW 4407   2.010  13.002   5.281
  837SOL    HW1 4408   1.982  13.094   5.285
  837SOL    HW2 4409   2.023  12.986   5.187
  838SOL     OW 4410   4.699   6.957   5.651
  838SOL    HW1 4411   4.648   6.906   5.715
  838SOL    HW2 4412   4.668   7.047   5.662
  839SOL     OW 4413  10.854   8.806   6.325
  839SOL    HW1 4414  10.942   8.769   6.334
  839SOL    HW2 4415  10.799   8.733   6.296
  840SOL     OW 4416   0.800   3.910   5.518
  840SOL    HW1 4417   0.879   3.957   5.543
  840SOL    HW2 4418   0.791   3.927   5.424
  841SOL     OW 4419  13.452   8.401   9.393
  841SOL    HW1 4420  13.491   8.481   9.429
  841SOL    HW2 4421  13.523   8.359   9.344
  842SOL     OW 4422  10.188   7.065   6.050
  842SOL    HW1 4423  10.098   7.098   6.044
  842SOL    HW2 4424  10.238   7.135   6.091
  843SOL     OW 4425  12.636   7.258   5.652
  843SOL    HW1 4426  12.591   7.175   5.640
  843SOL    HW2 4427  12.689   7.268   5.573
  844SOL     OW 4428  13.251   4.119  12.533
  844SOL    HW1 4429  13.304   4.143  12.609
  844SOL    HW2 4430  13.314   4.116  12.460
  845SOL     OW 4431   1.927   2.116   0.548
  845SOL    HW1 4432   1.970   2.086   0.468
  845SOL    HW2 4433   1.976   2.075   0.619
  846SOL     OW 4434   3.747  14.822   5.231
  846SOL    HW1 4435   3.677   0.011   5.258
  846SOL    HW2 4436   3.722  14.737   5.270
  847SOL     OW 4437  13.905   8.524   7.921
  847SOL    HW1 4438  13.879   8.432   7.922
  847SOL    HW2 4439  14.000   8.521   7.909
  848SOL     OW 4440   6.342  13.632  10.112
  848SOL    HW1 4441   6.430  13.599  10.131
  848SOL    HW2 4442   6.352  13.678  10.028
  849SOL     OW 4443   7.418   2.410   9.022
  849SOL    HW1 4444   7.424   2.357   8.943
  849SOL    HW2 4445   7.326   2.438   9.025
  850SOL     OW 4446  11.823  13.806  10.385
  850SOL    HW1 4447  11.770  13.885  10.398
  850SOL    HW2 4448  11.762  13.733  10.395
  851SOL     OW 4449   6.438   4.810  11.840
  851SOL    HW1 4450   6.429   4.834  11.932
  851SOL    HW2 4451   6.351   4.782  11.814
  852SOL     OW 4452   1.038   7.481  14.642
  852SOL    HW1 4453   1.081   7.425  14.577
  852SOL    HW2 4454   1.014   7.422  14.713
  853SOL     OW 4455   0.373   9.949  11.181
  853SOL    HW1 4456   0.452   9.900  11.156
  853SOL    HW2 4457   0.313   9.937  11.107
  854SOL     OW 4458  13.142  13.298  11.697
  854SOL    HW1 4459  13.053  13.296  11.731
  854SOL    HW2 4460  13.160  13.390  11.681
  855SOL     OW 4461   4.990  10.258  10.454
  855SOL    HW1 4462   4.918  10.256  10.517
  855SOL    HW2 4463   4.953  10.300  10.377
  856SOL     OW 4464   6.284   1.196  13.718
  856SOL    HW1 4465   6.323   1.112  13.694
  856SOL    HW2 4466   6.213   1.173  13.778
  857SOL     OW 4467   7.413  14.760  13.673
  857SOL    HW1 4468   7.448  14.843  13.704
  857SOL    HW2 4469   7.444  14.695  13.737
  858SOL     OW 4470  12.803   5.771   3.965
  858SOL    HW1 4471  12.825   5.863   3.950
  858SOL    HW2 4472  12.799   5.762   4.060
  859SOL     OW 4473   5.693   0.126   0.907
  859SOL    HW1 4474   5.643   0.073   0.969
  859SOL    HW2 4475   5.741   0.063   0.854
  860SOL     OW 4476   5.457   7.249   7.522
  860SOL    HW1 4477   5.368   7.278   7.544
  860SOL    HW2 4478   5.487   7.313   7.457
  861SOL     OW 4479  14.576  13.242   2.601
  861SOL    HW1 4480  14.512  13.210   2.664
  861SOL    HW2 4481  14.604  13.327   2.635
  862SOL     OW 4482  12.651   6.057  12.836
  862SOL    HW1 4483  12.599   6.004  12.776
  862SOL    HW2 4484  12.740   6.021  12.829
  863SOL     OW 4485   0.231   5.231  12.285
  863SOL    HW1 4486   0.186   5.306  12.324
  863SOL    HW2 4487   0.166   5.162  12.282
  864SOL     OW 4488   6.914   1.903  14.309
  864SOL    HW1 4489   6.823   1.873  14.307
  864SOL    HW2 4490   6.961   1.842  14.252
  865SOL     OW 4491   9.304  12.491   1.885
  865SOL    HW1 4492   9.294  12.583   1.908
  865SOL    HW2 4493   9.226  12.470   1.834
  866SOL     OW 4494  10.657   6.299   6.312
  866SOL    HW1 4495  10.669   6.232   6.245
  866SOL    HW2 4496  10.618   6.253   6.386
  867SOL     OW 4497   1.647   7.254  14.446
  867SOL    HW1 4498   1.626   7.226  14.535
  867SOL    HW2 4499   1.724   7.311  14.456
  868SOL     OW 4500  10.330   9.583   2.489
  868SOL    HW1 4501  10.371   9.502   2.519
  868SOL    HW2 4502  10.271   9.556   2.418
  869SOL     OW 4503  11.780   6.492   4.132
  869SOL    HW1 4504  11.784   6.514   4.225
  869SOL    HW2 4505  11.842   6.552   4.090
  870SOL     OW 4506  11.810   1.024   4.324
  870SOL    HW1 4507  11.884   1.063   4.370
  870SOL    HW2 4508  11.756   0.987   4.393
  871SOL     OW 4509  13.612   1.289   3.481
  871SOL    HW1 4510  13.651   1.372   3.508
  871SOL    HW2 4511  13.597   1.299   3.387
  872SOL     OW 4512   6.356   9.956   2.156
  872SOL    HW1 4513   6.375   9.927   2.245
  872SOL    HW2 4514   6.262   9.976   2.157
  873SOL     OW 4515  12.011  10.285   3.759
  873SOL    HW1 4516  12.009  10.198   3.720
  873SOL    HW2 4517  12.100  10.317   3.741
  874SOL     OW 4518   8.128   7.163   4.675
  874SOL    HW1 4519   8.202   7.217   4.646
  874SOL    HW2 4520   8.104   7.113   4.597
  875SOL     OW 4521   1.814  10.403   3.876
  875SOL    HW1 4522   1.761  10.323   3.872
  875SOL    HW2 4523   1.759  10.465   3.924
  876SOL     OW 4524  14.294   1.620   7.266
  876SOL    HW1 4525  14.312   1.656   7.354
  876SOL    HW2 4526  14.199   1.611   7.263
  877SOL     OW 4527  12.918   9.887  10.733
  877SOL    HW1 4528  12.952   9.976  10.738
  877SOL    HW2 4529  12.844   9.893  10.672
  878SOL     OW 4530  11.657  11.474   7.670
  878SOL    HW1 4531  11.667  11.551   7.727
  878SOL    HW2 4532  11.564  11.452   7.677
  879SOL     OW 4533   1.344  12.638   4.063
  879SOL    HW1 4534   1.361  12.586   3.984
  879SOL    HW2 4535   1.257  12.675   4.049
  880SOL     OW 4536   0.546   7.728   0.703
  880SOL    HW1 4537   0.601   7.767   0.635
  880SOL    HW2 4538   0.461   7.770   0.693
  881SOL     OW 4539  10.821   6.285  10.076
  881SOL    HW1 4540  10.907   6.280  10.033
  881SOL    HW2 4541  10.808   6.378  10.093
  882SOL     OW 4542  14.646   9.911  13.590
  882SOL    HW1 4543  14.699   9.897  13.512
  882SOL    HW2 4544  14.646   9.826  13.634
  883SOL     OW 4545   7.719   0.209   8.847
  883SOL    HW1 4546   7.750   0.121   8.824
  883SOL    HW2 4547   7.771   0.268   8.791
  884SOL     OW 4548   1.917   4.139   7.068
  884SOL    HW1 4549   1.853   4.165   7.002
  884SOL    HW2 4550   2.002   4.152   7.026
  885SOL     OW 4551   8.815   2.120   7.682
  885SOL    HW1 4552   8.751   2.175   7.728
  885SOL    HW2 4553   8.853   2.066   7.752
  886SOL     OW 4554   4.236  10.341   8.460
  886SOL    HW1 4555   4.306  10.400   8.485
  886SOL    HW2 4556   4.255  10.317   8.369
  887SOL     OW 4557   3.070   2.953   0.146
  887SOL    HW1 4558   2.982   2.964   0.110
  887SOL    HW2 4559   3.104   3.042   0.152
  888SOL     OW 4560   9.860  14.237   3.458
  888SOL    HW1 4561   9.789  14.179   3.432
  888SOL    HW2 4562   9.843  14.318   3.409
  889SOL     OW 4563   5.134   9.803   5.367
  889SOL    HW1 4564   5.045   9.838   5.363
  889SOL    HW2 4565   5.172   9.823   5.281
  890SOL     OW 4566  11.644  11.558   3.923
  890SOL    HW1 4567  11.619  11.486   3.981
  890SOL    HW2 4568  11.732  11.582   3.952
  891SOL     OW 4569   0.323   7.378   8.763
  891SOL    HW1 4570   0.377   7.443   8.719
  891SOL    HW2 4571   0.371   7.296   8.754
  892SOL     OW 4572  11.760   7.020  10.480
  892SOL    HW1 4573  11.728   7.039  10.569
  892SOL    HW2 4574  11.681   6.999  10.431
  893SOL     OW 4575  10.619   1.472   8.461
  893SOL    HW1 4576  10.641   1.501   8.372
  893SOL    HW2 4577  10.612   1.377   8.454
  894SOL     OW 4578   8.866   9.974   9.436
  894SOL    HW1 4579   8.793   9.914   9.453
  894SOL    HW2 4580   8.878  10.020   9.519
  895SOL     OW 4581   5.771   8.551   1.490
  895SOL    HW1 4582   5.717   8.614   1.538
  895SOL    HW2 4583   5.820   8.505   1.558
  896SOL     OW 4584  10.190   5.254   5.050
  896SOL    HW1 4585  10.100   5.226   5.036
  896SOL    HW2 4586  10.243   5.183   5.014
  897SOL     OW 4587   8.620   4.573  13.119
  897SOL    HW1 4588   8.565   4.518  13.063
  897SOL    HW2 4589   8.625   4.657  13.073
  898SOL     OW 4590   0.820   4.696  12.972
  898SOL    HW1 4591   0.875   4.769  12.942
  898SOL    HW2 4592   0.882   4.627  12.995
  899SOL     OW 4593  13.478  10.721   0.485
  899SOL    HW1 4594  13.448  10.630   0.487
  899SOL    HW2 4595  13.512  10.732   0.396
  900SOL     OW 4596  13.113   6.389   9.098
  900SOL    HW1 4597  13.104   6.445   9.021
  900SOL    HW2 4598  13.166   6.315   9.069
  901SOL     OW 4599  11.422   4.340   1.095
  901SOL    HW1 4600  11.509   4.309   1.119
  901SOL    HW2 4601  11.431   4.434   1.084
  902SOL     OW 4602  12.527   1.601  12.664
  902SOL    HW1 4603  12.439   1.616  12.698
  902SOL    HW2 4604  12.568   1.687  12.664
  903SOL     OW 4605  11.398   5.633   5.093
  903SOL    HW1 4606  11.479   5.588   5.114
  903SOL    HW2 4607  11.331   5.565   5.094
  904SOL     OW 4608  12.223   1.344   8.296
  904SOL    HW1 4609  12.209   1.380   8.209
  904SOL    HW2 4610  12.135   1.331   8.332
  905SOL     OW 4611   4.806   2.504  10.903
  905SOL    HW1 4612   4.715   2.500  10.872
  905SOL    HW2 4613   4.816   2.427  10.959
  906SOL     OW 4614  11.441   8.364   5.141
  906SOL    HW1 4615  11.452   8.360   5.046
  906SOL    HW2 4616  11.436   8.457   5.162
  907SOL     OW 4617   3.367   9.456  13.674
  907SOL    HW1 4618   3.383   9.372  13.715
  907SOL    HW2 4619   3.317   9.506  13.739
  908SOL     OW 4620   8.524   6.718   9.717
  908SOL    HW1 4621   8.576   6.750   9.643
  908SOL    HW2 4622   8.482   6.796   9.753
  909SOL     OW 4623   3.674   0.378  10.477
  909SOL    HW1 4624   3.625   0.440  10.532
  909SOL    HW2 4625   3.669   0.415  10.389
  910SOL     OW 4626   6.537   5.440  13.081
  910SOL    HW1 4627   6.495   5.481  13.157
  910SOL    HW2 4628   6.583   5.512  13.037
  911SOL     OW 4629   4.026   5.324   2.041
  911SOL    HW1 4630   3.991   5.235   2.029
  911SOL    HW2 4631   4.092   5.314   2.110
  912SOL     OW 4632   8.045   0.348   3.830
  912SOL    HW1 4633   8.062   0.378   3.740
  912SOL    HW2 4634   8.128   0.311   3.859
  913SOL     OW 4635   8.926  14.595  12.448
  913SOL    HW1 4636   8.977  14.674  12.429
  913SOL    HW2 4637   8.985  14.523  12.428
  914SOL     OW 4638   4.757  13.639   1.663
  914SOL    HW1 4639   4.849  13.663   1.651
  914SOL    HW2 4640   4.712  13.679   1.588
  915SOL     OW 4641  12.708   7.828   8.096
  915SOL    HW1 4642  12.790   7.807   8.141
  915SOL    HW2 4643  12.694   7.921   8.113
  916SOL     OW 4644   0.208  10.591   0.228
  916SOL    HW1 4645   0.214  10.532   0.153
  916SOL    HW2 4646   0.157  10.665   0.196
  917SOL     OW 4647   2.831   0.216   8.079
  917SOL    HW1 4648   2.811   0.151   8.146
  917SOL    HW2 4649   2.853   0.164   8.002
  918SOL     OW 4650  14.484   0.310   9.772
  918SOL    HW1 4651  14.466   0.276   9.685
  918SOL    HW2 4652  14.405   0.360   9.795
  919SOL     OW 4653  14.652  10.418   6.564
  919SOL    HW1 4654  14.646  10.514   6.565
  919SOL    HW2 4655  14.574  10.389   6.516
  920SOL     OW 4656   2.725  11.782   9.913
  920SOL    HW1 4657   2.807  11.758   9.955
  920SOL    HW2 4658   2.716  11.876   9.929
  921SOL     OW 4659   5.715  13.035   5.870
  921SOL    HW1 4660   5.687  13.083   5.792
  921SOL    HW2 4661   5.792  12.986   5.841
  922SOL     OW 4662  14.639   3.608  14.069
  922SOL    HW1 4663  14.610   3.589  13.980
  922SOL    HW2 4664  14.685   3.692  14.063
  923SOL     OW 4665   3.339   7.864   6.770
  923SOL    HW1 4666   3.371   7.831   6.685
  923SOL    HW2 4667   3.280   7.795   6.801
  924SOL     OW 4668  13.903  13.493  13.920
  924SOL    HW1 4669  13.839  13.436  13.962
  924SOL    HW2 4670  13.988  13.451  13.936
  925SOL     OW 4671   2.914   1.537   1.924
  925SOL    HW1 4672   2.898   1.611   1.983
  925SOL    HW2 4673   2.883   1.566   1.839
  926SOL     OW 4674  14.289   0.045   7.412
  926SOL    HW1 4675  14.266  14.823   7.429
  926SOL    HW2 4676  14.227   0.096   7.465
  927SOL     OW 4677   9.719   4.767   0.017
  927SOL    HW1 4678   9.712   4.810  14.801
  927SOL    HW2 4679   9.780   4.696   0.003
  928SOL     OW 4680   9.864   8.418   6.365
  928SOL    HW1 4681   9.781   8.465   6.375
  928SOL    HW2 4682   9.918   8.451   6.437
  929SOL     OW 4683  12.779   2.454  13.624
  929SOL    HW1 4684  12.840   2.446  13.551
  929SOL    HW2 4685  12.831   2.431  13.701
  930SOL     OW 4686   1.723   5.261   8.735
  930SOL    HW1 4687   1.714   5.237   8.643
  930SOL    HW2 4688   1.711   5.356   8.736
  931SOL     OW 4689   6.749   0.558  10.571
  931SOL    HW1 4690   6.814   0.511  10.622
  931SOL    HW2 4691   6.668   0.551  10.623
  932SOL     OW 4692  12.781  13.596  12.171
  932SOL    HW1 4693  12.876  13.598  12.185
  932SOL    HW2 4694  12.753  13.687  12.180
  933SOL     OW 4695   8.920  12.343   9.229
  933SOL    HW1 4696   9.009  12.352   9.262
  933SOL    HW2 4697   8.927  12.280   9.157
  934SOL     OW 4698  12.598  12.627  11.566
  934SOL    HW1 4699  12.520  12.681  11.576
  934SOL    HW2 4700  12.565  12.538  11.554
  935SOL     OW 4701  14.730  11.849   1.149
  935SOL    HW1 4702  14.759  11.940   1.150
  935SOL    HW2 4703  14.636  11.854   1.132
  936SOL     OW 4704  13.946  12.284   7.834
  936SOL    HW1 4705  13.989  12.248   7.912
  936SOL    HW2 4706  14.014  12.336   7.791
  937SOL     OW 4707   9.938   2.567   7.363
  937SOL    HW1 4708   9.982   2.573   7.278
  937SOL    HW2 4709   9.846   2.553   7.341
  938SOL     OW 4710  14.805   2.247   0.840
  938SOL    HW1 4711  14.774   2.309   0.906
  938SOL    HW2 4712   0.027   2.232   0.862
  939SOL     OW 4713   0.542   4.845  13.304
  939SOL    HW1 4714   0.561   4.778  13.239
  939SOL    HW2 4715   0.483   4.906  13.259
  940SOL     OW 4716   0.669  14.552   2.062
  940SOL    HW1 4717   0.625  14.469   2.078
  940SOL    HW2 4718   0.629  14.613   2.124
  941SOL     OW 4719   3.225   9.289   2.698
  941SOL    HW1 4720   3.303   9.344   2.686
  941SOL    HW2 4721   3.237   9.251   2.785
  942SOL     OW 4722   8.652  10.657  11.079
  942SOL    HW1 4723   8.656  10.674  11.174
  942SOL    HW2 4724   8.669  10.743  11.039
  943SOL     OW 4725   9.832  12.165   4.056
  943SOL    HW1 4726   9.766  12.140   3.991
  943SOL    HW2 4727   9.883  12.235   4.014
  944SOL     OW 4728   9.723  11.085   8.080
  944SOL    HW1 4729   9.656  11.033   8.037
  944SOL    HW2 4730   9.675  11.140   8.141
  945SOL     OW 4731   7.119  14.001   8.737
  945SOL    HW1 4732   7.056  14.052   8.686
  945SOL    HW2 4733   7.079  13.993   8.823
  946SOL     OW 4734   0.806   7.986  12.197
  946SOL    HW1 4735   0.817   8.017  12.108
  946SOL    HW2 4736   0.856   7.904  12.200
  947SOL     OW 4737  13.744   7.229   0.937
  947SOL    HW1 4738  13.767   7.321   0.950
  947SOL    HW2 4739  13.651   7.232   0.913
  948SOL     OW 4740   5.336   4.999   2.000
  948SOL    HW1 4741   5.395   5.073   1.988
  948SOL    HW2 4742   5.387   4.934   2.049
  949SOL     OW 4743   3.876  10.679  14.415
  949SOL    HW1 4744   3.905  10.590  14.437
  949SOL    HW2 4745   3.822  10.667  14.336
  950SOL     OW 4746   3.251   5.997  14.473
  950SOL    HW1 4747   3.318   6.063  14.494
  950SOL    HW2 4748   3.296   5.935  14.416
  951SOL     OW 4749  13.661   6.950   1.663
  951SOL    HW1 4750  13.706   6.938   1.579
  951SOL    HW2 4751  13.568   6.945   1.642
  952SOL     OW 4752   5.764   3.890   4.827
  952SOL    HW1 4753   5.669   3.883   4.828
  952SOL    HW2 4754   5.781   3.984   4.842
  953SOL     OW 4755   2.574  10.552   4.020
  953SOL    HW1 4756   2.600  10.462   4.041
  953SOL    HW2 4757   2.552  10.590   4.105
  954SOL     OW 4758   6.588   4.763   9.246
  954SOL    HW1 4759   6.514   4.716   9.286
  954SOL    HW2 4760   6.658   4.697   9.242
  955SOL     OW 4761   6.676   0.119   3.411
  955SOL    HW1 4762   6.654   0.210   3.430
  955SOL    HW2 4763   6.708   0.084   3.494
  956SOL     OW 4764   8.630  12.496   6.518
  956SOL    HW1 4765   8.619  12.543   6.600
  956SOL    HW2 4766   8.542  12.495   6.480
  957SOL     OW 4767   4.675   8.386   0.507
  957SOL    HW1 4768   4.682   8.323   0.579
  957SOL    HW2 4769   4.581   8.404   0.500
  958SOL     OW 4770   6.872   8.546   3.021
  958SOL    HW1 4771   6.918   8.479   2.971
  958SOL    HW2 4772   6.912   8.543   3.108
  959SOL     OW 4773   0.253   3.843   4.128
  959SOL    HW1 4774   0.265   3.937   4.142
  959SOL    HW2 4775   0.320   3.802   4.183
  960SOL     OW 4776   8.082   5.942  12.719
  960SOL    HW1 4777   8.078   5.862  12.771
  960SOL    HW2 4778   8.058   5.913  12.631
  961SOL     OW 4779   0.192   0.574   0.372
  961SOL    HW1 4780   0.215   0.645   0.432
  961SOL    HW2 4781   0.257   0.580   0.302
  962SOL     OW 4782   5.043   1.910   1.011
  962SOL    HW1 4783   4.966   1.863   0.980
  962SOL    HW2 4784   5.022   1.934   1.101
  963SOL     OW 4785  13.859  14.422  12.002
  963SOL    HW1 4786  13.890  14.448  11.915
  963SOL    HW2 4787  13.893  14.333  12.014
  964SOL     OW 4788   1.916   0.381   6.856
  964SOL    HW1 4789   1.836   0.433   6.867
  964SOL    HW2 4790   1.944   0.361   6.945
  965SOL     OW 4791   9.278   5.669   0.096
  965SOL    HW1 4792   9.271   5.597   0.034
  965SOL    HW2 4793   9.367   5.702   0.086
  966SOL     OW 4794   3.785   6.492  10.369
  966SOL    HW1 4795   3.787   6.586  10.391
  966SOL    HW2 4796   3.692   6.473  10.353
  967SOL     OW 4797   9.309  10.064   4.326
  967SOL    HW1 4798   9.325  10.016   4.245
  967SOL    HW2 4799   9.234  10.120   4.306
  968SOL     OW 4800   0.290  14.628   1.854
  968SOL    HW1 4801   0.290  14.536   1.877
  968SOL    HW2 4802   0.232  14.670   1.918
  969SOL     OW 4803  11.071  10.302   4.134
  969SOL    HW1 4804  11.152  10.327   4.179
  969SOL    HW2 4805  11.071  10.206   4.137
  970SOL     OW 4806   1.596   0.475   3.569
  970SOL    HW1 4807   1.680   0.495   3.526
  970SOL    HW2 4808   1.610   0.496   3.661
  971SOL     OW 4809   4.123  10.460   7.798
  971SOL    HW1 4810   4.154  10.550   7.807
  971SOL    HW2 4811   4.060  10.464   7.726
  972SOL     OW 4812   5.287   3.418   0.727
  972SOL    HW1 4813   5.319   3.494   0.677
  972SOL    HW2 4814   5.290   3.346   0.664
  973SOL     OW 4815   1.862   3.076   0.738
  973SOL    HW1 4816   1.917   3.105   0.665
  973SOL    HW2 4817   1.777   3.058   0.697
  974SOL     OW 4818   4.188   7.644  12.559
  974SOL    HW1 4819   4.237   7.726  12.568
  974SOL    HW2 4820   4.204   7.598  12.641
  975SOL     OW 4821   7.821  14.358   8.706
  975SOL    HW1 4822   7.775  14.369   8.623
  975SOL    HW2 4823   7.893  14.297   8.686
  976SOL     OW 4824  14.337  11.360  10.280
  976SOL    HW1 4825  14.398  11.431  10.300
  976SOL    HW2 4826  14.251  11.403  10.279
  977SOL     OW 4827   1.592   1.466   7.310
  977SOL    HW1 4828   1.592   1.377   7.275
  977SOL    HW2 4829   1.573   1.522   7.234
  978SOL     OW 4830   7.041   5.921   9.046
  978SOL    HW1 4831   6.957   5.964   9.028
  978SOL    HW2 4832   7.031   5.833   9.010
  979SOL     OW 4833   9.400   8.456   6.577
  979SOL    HW1 4834   9.461   8.393   6.539
  979SOL    HW2 4835   9.377   8.514   6.504
  980SOL     OW 4836   0.849   8.862   2.064
  980SOL    HW1 4837   0.757   8.851   2.040
  980SOL    HW2 4838   0.881   8.930   2.006
  981SOL     OW 4839  12.319  12.853   4.090
  981SOL    HW1 4840  12.344  12.903   4.012
  981SOL    HW2 4841  12.225  12.838   4.079
  982SOL     OW 4842   7.090   1.598  11.569
  982SOL    HW1 4843   7.174   1.556  11.585
  982SOL    HW2 4844   7.099   1.685  11.608
  983SOL     OW 4845  13.469  13.830   0.926
  983SOL    HW1 4846  13.489  13.766   0.858
  983SOL    HW2 4847  13.449  13.910   0.878
  984SOL     OW 4848   2.487  13.059  13.243
  984SOL    HW1 4849   2.467  13.139  13.292
  984SOL    HW2 4850   2.418  12.998  13.268
  985SOL     OW 4851   4.292   2.993   4.497
  985SOL    HW1 4852   4.358   3.047   4.454
  985SOL    HW2 4853   4.308   2.905   4.464
  986SOL     OW 4854   9.481   0.469  10.895
  986SOL    HW1 4855   9.493   0.376  10.910
  986SOL    HW2 4856   9.492   0.509  10.982
  987SOL     OW 4857   4.564  11.806   5.072
  987SOL    HW1 4858   4.505  11.765   5.009
  987SOL    HW2 4859   4.548  11.759   5.154
  988SOL     OW 4860  14.803  10.740  10.020
  988SOL    HW1 4861  14.831  10.671   9.959
  988SOL    HW2 4862  14.722  10.706  10.058
  989SOL     OW 4863  11.155  10.381   2.837
  989SOL    HW1 4864  11.124  10.308   2.783
  989SOL    HW2 4865  11.192  10.339   2.915
  990SOL     OW 4866   3.787   9.841   4.573
  990SOL    HW1 4867   3.828   9.841   4.660
  990SOL    HW2 4868   3.698   9.809   4.588
  991SOL     OW 4869   5.707   6.035  12.989
  991SOL    HW1 4870   5.748   5.960  12.945
  991SOL    HW2 4871   5.615   6.029  12.966
  992SOL     OW 4872  14.308   2.473   9.640
  992SOL    HW1 4873  14.234   2.430   9.682
  992SOL    HW2 4874  14.281   2.483   9.548
  993SOL     OW 4875  11.166   7.443  11.668
  993SOL    HW1 4876  11.130   7.355  11.682
  993SOL    HW2 4877  11.222   7.459  11.744
  994SOL     OW 4878   1.966   7.869   4.791
  994SOL    HW1 4879   1.898   7.889   4.726
  994SOL    HW2 4880   1.971   7.774   4.791
  995SOL     OW 4881   6.068  10.030   4.417
  995SOL    HW1 4882   5.977  10.000   4.408
  995SOL    HW2 4883   6.060  10.121   4.446
  996SOL     OW 4884  13.893  12.555  12.666
  996SOL    HW1 4885  13.851  12.564  12.752
  996SOL    HW2 4886  13.888  12.462  12.646
  997SOL     OW 4887  13.366   6.510   2.977
  997SOL    HW1 4888  13.340   6.587   2.927
  997SOL    HW2 4889  13.461   6.506   2.967
  998SOL     OW 4890   7.804   2.329  13.662
  998SOL    HW1 4891   7.793   2.298  13.572
  998SOL    HW2 4892   7.779   2.421  13.659
  999SOL     OW 4893  14.054  11.995   0.558
  999SOL    HW1 4894  14.026  12.086   0.544
  999SOL    HW2 4895  14.028  11.975   0.648
 1000SOL     OW 4896  12.899   9.970  14.087
 1000SOL    HW1 4897  12.958  10.026  14.035
 1000SOL    HW2 4898  12.815  10.015  14.084
 1001SOL     OW 4899  12.534  10.174  12.786
 1001SOL    HW1 4900  12.439  10.162  12.788
 1001SOL    HW2 4901  12.553  10.225  12.865
 1002SOL     OW 4902  10.373   3.936   1.473
 1002SOL    HW1 4903  10.306   3.869   1.487
 1002SOL    HW2 4904  10.344   4.011   1.525
 1003SOL     OW 4905  10.792  13.621   9.791
 1003SOL    HW1 4906  10.795  13.554   9.860
 1003SOL    HW2 4907  10.739  13.691   9.827
 1004SOL     OW 4908   9.221  11.069   8.561
 1004SOL    HW1 4909   9.138  11.115   8.560
 1004SOL    HW2 4910   9.198  10.978   8.543
 1005SOL     OW 4911   2.849  14.533   5.791
 1005SOL    HW1 4912   2.843  14.495   5.703
 1005SOL    HW2 4913   2.903  14.611   5.779
 1006SOL     OW 4914   8.297   7.168   6.615
 1006SOL    HW1 4915   8.236   7.151   6.543
 1006SOL    HW2 4916   8.264   7.248   6.656
 1007SOL     OW 4917   4.232   7.512   7.908
 1007SOL    HW1 4918   4.324   7.496   7.925
 1007SOL    HW2 4919   4.230   7.556   7.823
 1008SOL     OW 4920   7.975  13.146   3.022
 1008SOL    HW1 4921   8.006  13.192   2.944
 1008SOL    HW2 4922   7.908  13.203   3.059
 1009SOL     OW 4923  10.555   9.925  11.141
 1009SOL    HW1 4924  10.541   9.932  11.047
 1009SOL    HW2 4925  10.644   9.957  11.155
 1010SOL     OW 4926   1.864  13.825   0.909
 1010SOL    HW1 4927   1.845  13.919   0.913
 1010SOL    HW2 4928   1.958  13.820   0.895
 1011SOL     OW 4929   3.557   7.516   2.371
 1011SOL    HW1 4930   3.629   7.576   2.388
 1011SOL    HW2 4931   3.548   7.517   2.275
 1012SOL     OW 4932   2.285  13.539   0.956
 1012SOL    HW1 4933   2.266  13.451   0.924
 1012SOL    HW2 4934   2.376  13.555   0.932
 1013SOL     OW 4935   3.196  10.443   8.858
 1013SOL    HW1 4936   3.145  10.438   8.778
 1013SOL    HW2 4937   3.230  10.354   8.870
 1014SOL     OW 4938   4.638   4.004  12.982
 1014SOL    HW1 4939   4.601   3.937  13.040
 1014SOL    HW2 4940   4.563   4.042  12.938
 1015SOL     OW 4941   0.341   3.885   7.207
 1015SOL    HW1 4942   0.403   3.958   7.215
 1015SOL    HW2 4943   0.347   3.840   7.291
 1016SOL     OW 4944  11.858   9.231   3.424
 1016SOL    HW1 4945  11.807   9.167   3.473
 1016SOL    HW2 4946  11.794   9.272   3.365
 1017SOL     OW 4947  13.109  12.779  12.358
 1017SOL    HW1 4948  13.193  12.751  12.320
 1017SOL    HW2 4949  13.044  12.751  12.295
 1018SOL     OW 4950   9.568   8.212   2.292
 1018SOL    HW1 4951   9.646   8.162   2.318
 1018SOL    HW2 4952   9.495   8.154   2.309
 1019SOL     OW 4953   5.796  12.427  11.783
 1019SOL    HW1 4954   5.803  12.373  11.705
 1019SOL    HW2 4955   5.707  12.411  11.816
 1020SOL     OW 4956   8.360   8.533   7.985
 1020SOL    HW1 4957   8.342   8.620   8.019
 1020SOL    HW2 4958   8.294   8.477   8.026
 1021SOL     OW 4959  12.104   1.355   2.045
 1021SOL    HW1 4960  12.108   1.405   1.963
 1021SOL    HW2 4961  12.015   1.320   2.047
 1022SOL     OW 4962  13.601   5.349   8.984
 1022SOL    HW1 4963  13.613   5.368   9.077
 1022SOL    HW2 4964  13.667   5.402   8.940
 1023SOL     OW 4965   9.261   2.284   1.682
 1023SOL    HW1 4966   9.322   2.238   1.624
 1023SOL    HW2 4967   9.285   2.255   1.770
 1024SOL     OW 4968   0.885  13.254   6.895
 1024SOL    HW1 4969   0.858  13.165   6.919
 1024SOL    HW2 4970   0.966  13.242   6.846
 1025SOL     OW 4971   5.274  13.887  11.986
 1025SOL    HW1 4972   5.304  13.796  11.995
 1025SOL    HW2 4973   5.339  13.928  11.928
 1026SOL     OW 4974   7.713   0.306  11.458
 1026SOL    HW1 4975   7.637   0.360  11.477
 1026SOL    HW2 4976   7.754   0.290  11.543
 1027SOL     OW 4977   0.040   9.127   6.485
 1027SOL    HW1 4978   0.110   9.073   6.450
 1027SOL    HW2 4979  14.831   9.096   6.439
 1028SOL     OW 4980   3.354   3.731   0.883
 1028SOL    HW1 4981   3.424   3.684   0.838
 1028SOL    HW2 4982   3.275   3.683   0.861
 1029SOL     OW 4983  11.657   3.928   3.478
 1029SOL    HW1 4984  11.592   3.867   3.514
 1029SOL    HW2 4985  11.639   3.928   3.384
 1030SOL     OW 4986   4.043  12.145   6.770
 1030SOL    HW1 4987   4.019  12.088   6.842
 1030SOL    HW2 4988   4.088  12.219   6.811
 1031SOL     OW 4989   1.681   7.185   9.011
 1031SOL    HW1 4990   1.676   7.089   9.010
 1031SOL    HW2 4991   1.617   7.211   9.077
 1032SOL     OW 4992   1.688   1.679   5.563
 1032SOL    HW1 4993   1.637   1.754   5.594
 1032SOL    HW2 4994   1.732   1.646   5.641
 1033SOL     OW 4995   6.406  14.402   7.594
 1033SOL    HW1 4996   6.469  14.376   7.527
 1033SOL    HW2 4997   6.425  14.343   7.667
 1034SOL     OW 4998   2.525  10.516   3.511
 1034SOL    HW1 4999   2.555  10.436   3.467
 1034SOL    HW2 5000   2.595  10.579   3.496
 1035SOL     OW 5001  12.557  12.850  14.172
 1035SOL    HW1 5002  12.518  12.843  14.259
 1035SOL    HW2 5003  12.486  12.884  14.117
 1036SOL     OW 5004   2.554  12.347  14.674
 1036SOL    HW1 5005   2.612  12.412  14.713
 1036SOL    HW2 5006   2.579  12.345  14.581
 1037SOL     OW 5007   3.477   1.904  10.849
 1037SOL    HW1 5008   3.463   1.918  10.942
 1037SOL    HW2 5009   3.520   1.983  10.818
 1038SOL     OW 5010   6.096   2.029  11.684
 1038SOL    HW1 5011   6.013   1.986  11.706
 1038SOL    HW2 5012   6.121   1.991  11.600
 1039SOL     OW 5013   6.847   7.940   8.310
 1039SOL    HW1 5014   6.875   8.020   8.265
 1039SOL    HW2 5015   6.862   7.871   8.246
 1040SOL     OW 5016   9.067   1.242   5.099
 1040SOL    HW1 5017   9.128   1.302   5.054
 1040SOL    HW2 5018   9.109   1.225   5.183
 1041SOL     OW 5019  12.134   5.133  12.310
 1041SOL    HW1 5020  12.057   5.133  12.366
 1041SOL    HW2 5021  12.202   5.091  12.363
 1042SOL     OW 5022   0.534   3.470  13.441
 1042SOL    HW1 5023   0.527   3.396  13.501
 1042SOL    HW2 5024   0.611   3.450  13.388
 1043SOL     OW 5025   8.137  12.963   6.851
 1043SOL    HW1 5026   8.157  12.944   6.760
 1043SOL    HW2 5027   8.176  13.049   6.868
 1044SOL     OW 5028  11.921   1.018   5.970
 1044SOL    HW1 5029  11.914   1.113   5.976
 1044SOL    HW2 5030  11.925   1.000   5.877
 1045SOL     OW 5031   5.566   4.912   0.646
 1045SOL    HW1 5032   5.661   4.917   0.633
 1045SOL    HW2 5033   5.550   4.965   0.724
 1046SOL     OW 5034  13.186  12.911  10.134
 1046SOL    HW1 5035  13.132  12.984  10.161
 1046SOL    HW2 5036  13.274  12.948  10.125
 1047SOL     OW 5037   5.453   4.003   8.677
 1047SOL    HW1 5038   5.500   3.924   8.703
 1047SOL    HW2 5039   5.422   4.040   8.760
 1048SOL     OW 5040   4.204   5.261   8.777
 1048SOL    HW1 5041   4.191   5.355   8.791
 1048SOL    HW2 5042   4.116   5.227   8.756
 1049SOL     OW 5043   0.251  11.981   1.513
 1049SOL    HW1 5044   0.160  11.983   1.543
 1049SOL    HW2 5045   0.280  11.892   1.530
 1050SOL     OW 5046   2.443   8.415   4.842
 1050SOL    HW1 5047   2.472   8.328   4.869
 1050SOL    HW2 5048   2.524   8.464   4.826
 1051SOL     OW 5049   4.175   8.098  11.916
 1051SOL    HW1 5050   4.157   8.116  12.008
 1051SOL    HW2 5051   4.269   8.110  11.907
 1052SOL     OW 5052  10.447   3.408  11.880
 1052SOL    HW1 5053  10.380   3.471  11.909
 1052SOL    HW2 5054  10.519   3.419  11.943
 1053SOL     OW 5055  10.866   6.690   8.498
 1053SOL    HW1 5056  10.849   6.723   8.586
 1053SOL    HW2 5057  10.806   6.615   8.488
 1054SOL     OW 5058   6.780   1.641   1.141
 1054SOL    HW1 5059   6.705   1.582   1.144
 1054SOL    HW2 5060   6.822   1.631   1.226
 1055SOL     OW 5061   6.525  12.247   6.851
 1055SOL    HW1 5062   6.461  12.197   6.902
 1055SOL    HW2 5063   6.579  12.180   6.809
 1056SOL     OW 5064   6.916   4.663   3.307
 1056SOL    HW1 5065   6.993   4.608   3.321
 1056SOL    HW2 5066   6.945   4.751   3.330
 1057SOL     OW 5067   6.745  10.562   0.836
 1057SOL    HW1 5068   6.798  10.633   0.801
 1057SOL    HW2 5069   6.730  10.585   0.927
 1058SOL     OW 5070   8.259  13.065  12.212
 1058SOL    HW1 5071   8.333  13.045  12.154
 1058SOL    HW2 5072   8.277  13.152  12.246
 1059SOL     OW 5073   7.533   5.988  11.991
 1059SOL    HW1 5074   7.556   6.011  12.081
 1059SOL    HW2 5075   7.497   5.900  11.997
 1060SOL     OW 5076   8.825   6.812  10.239
 1060SOL    HW1 5077   8.849   6.754  10.311
 1060SOL    HW2 5078   8.908   6.847  10.207
 1061SOL     OW 5079   4.766  13.484   0.681
 1061SOL    HW1 5080   4.709  13.413   0.649
 1061SOL    HW2 5081   4.833  13.439   0.733
 1062SOL     OW 5082   3.307   1.594   5.989
 1062SOL    HW1 5083   3.290   1.601   6.083
 1062SOL    HW2 5084   3.319   1.685   5.960
 1063SOL     OW 5085   7.364   8.366  13.883
 1063SOL    HW1 5086   7.375   8.272  13.900
 1063SOL    HW2 5087   7.407   8.409  13.957
 1064SOL     OW 5088  12.244   4.075   7.376
 1064SOL    HW1 5089  12.179   4.124   7.328
 1064SOL    HW2 5090  12.204   4.060   7.462
 1065SOL     OW 5091  14.648   7.395   5.330
 1065SOL    HW1 5092  14.736   7.381   5.366
 1065SOL    HW2 5093  14.589   7.377   5.403
 1066SOL     OW 5094  11.756  11.991   1.183
 1066SOL    HW1 5095  11.669  11.993   1.223
 1066SOL    HW2 5096  11.764  12.075   1.138
 1067SOL     OW 5097   5.939  12.578   3.469
 1067SOL    HW1 5098   5.880  12.551   3.399
 1067SOL    HW2 5099   6.021  12.601   3.425
 1068SOL     OW 5100  11.370   3.005   7.101
 1068SOL    HW1 5101  11.275   3.021   7.105
 1068SOL    HW2 5102  11.408   3.071   7.159
 1069SOL     OW 5103   2.308   8.073  12.648
 1069SOL    HW1 5104   2.326   8.132  12.720
 1069SOL    HW2 5105   2.266   8.128  12.581
 1070SOL     OW 5106  10.776   2.173  14.611
 1070SOL    HW1 5107  10.792   2.200  14.701
 1070SOL    HW2 5108  10.827   2.093  14.600
 1071SOL     OW 5109   5.561  14.824  10.363
 1071SOL    HW1 5110   5.534   0.046  10.375
 1071SOL    HW2 5111   5.627  14.810  10.432
 1072SOL     OW 5112   2.091   2.297  10.895
 1072SOL    HW1 5113   2.139   2.215  10.883
 1072SOL    HW2 5114   2.000   2.274  10.875
 1073SOL     OW 5115   6.199   4.191  14.683
 1073SOL    HW1 5116   6.256   4.205  14.607
 1073SOL    HW2 5117   6.163   4.277  14.703
 1074SOL     OW 5118   7.679   3.230  12.429
 1074SOL    HW1 5119   7.637   3.242  12.514
 1074SOL    HW2 5120   7.607   3.221  12.367
 1075SOL     OW 5121   4.164   4.189   9.084
 1075SOL    HW1 5122   4.100   4.186   9.154
 1075SOL    HW2 5123   4.241   4.144   9.119
 1076SOL     OW 5124  13.709  14.438   4.445
 1076SOL    HW1 5125  13.799  14.459   4.469
 1076SOL    HW2 5126  13.679  14.379   4.515
 1077SOL     OW 5127   4.633   9.411   4.538
 1077SOL    HW1 5128   4.619   9.505   4.547
 1077SOL    HW2 5129   4.550   9.371   4.564
 1078SOL     OW 5130   3.931   4.663   3.147
 1078SOL    HW1 5131   3.951   4.754   3.126
 1078SOL    HW2 5132   3.885   4.630   3.070
 1079SOL     OW 5133   6.087   7.034   3.095
 1079SOL    HW1 5134   6.140   7.072   3.166
 1079SOL    HW2 5135   6.136   7.055   3.015
 1080SOL     OW 5136   9.325  11.314  10.305
 1080SOL    HW1 5137   9.252  11.357  10.350
 1080SOL    HW2 5138   9.332  11.360  10.222
 1081SOL     OW 5139   4.261  13.308   3.360
 1081SOL    HW1 5140   4.267  13.214   3.345
 1081SOL    HW2 5141   4.230  13.343   3.276
 1082SOL     OW 5142  13.127   0.972  13.055
 1082SOL    HW1 5143  13.093   0.954  13.143
 1082SOL    HW2 5144  13.195   0.906  13.042
 1083SOL     OW 5145  14.834   0.925  10.368
 1083SOL    HW1 5146  14.746   0.922  10.332
 1083SOL    HW2 5147   0.020   0.888  10.300
 1084SOL     OW 5148   8.092   7.114   0.626
 1084SOL    HW1 5149   8.169   7.117   0.683
 1084SOL    HW2 5150   8.124   7.149   0.543
 1085SOL     OW 5151   4.896   2.955   2.411
 1085SOL    HW1 5152   4.860   3.011   2.343
 1085SOL    HW2 5153   4.920   3.015   2.482
 1086SOL     OW 5154   9.656   3.614   2.804
 1086SOL    HW1 5155   9.666   3.525   2.839
 1086SOL    HW2 5156   9.654   3.670   2.881
 1087SOL     OW 5157  14.080  13.277   4.223
 1087SOL    HW1 5158  14.120  13.202   4.180
 1087SOL    HW2 5159  14.131  13.289   4.303
 1088SOL     OW 5160   3.355   6.438   5.404
 1088SOL    HW1 5161   3.306   6.375   5.351
 1088SOL    HW2 5162   3.362   6.396   5.490
 1089SOL     OW 5163   9.451   3.676   3.855
 1089SOL    HW1 5164   9.361   3.698   3.882
 1089SOL    HW2 5165   9.488   3.631   3.931
 1090SOL     OW 5166   0.007   8.698  10.361
 1090SOL    HW1 5167  14.835   8.776  10.324
 1090SOL    HW2 5168   0.036   8.725  10.448
 1091SOL     OW 5169   1.393   6.395  13.153
 1091SOL    HW1 5170   1.320   6.457  13.147
 1091SOL    HW2 5171   1.381   6.337  13.077
 1092SOL     OW 5172  12.243  11.179  12.131
 1092SOL    HW1 5173  12.335  11.189  12.107
 1092SOL    HW2 5174  12.216  11.267  12.159
 1093SOL     OW 5175  10.008  14.605   6.519
 1093SOL    HW1 5176  10.086  14.606   6.575
 1093SOL    HW2 5177   9.938  14.574   6.576
 1094SOL     OW 5178  10.082   1.735   9.238
 1094SOL    HW1 5179  10.030   1.781   9.304
 1094SOL    HW2 5180  10.169   1.728   9.277
 1095SOL     OW 5181  12.499   8.455  11.294
 1095SOL    HW1 5182  12.441   8.528  11.312
 1095SOL    HW2 5183  12.440   8.380  11.281
 1096SOL     OW 5184  10.979   4.089   1.610
 1096SOL    HW1 5185  10.960   3.997   1.631
 1096SOL    HW2 5186  11.061   4.107   1.656
 1097SOL     OW 5187   3.038   9.092   8.659
 1097SOL    HW1 5188   3.013   9.184   8.665
 1097SOL    HW2 5189   3.133   9.092   8.669
 1098SOL     OW 5190   0.247   3.317  10.523
 1098SOL    HW1 5191   0.320   3.303  10.583
 1098SOL    HW2 5192   0.175   3.345  10.580
 1099SOL     OW 5193  13.421  13.221   0.721
 1099SOL    HW1 5194  13.359  13.172   0.666
 1099SOL    HW2 5195  13.452  13.292   0.666
 1100SOL     OW 5196   9.412  10.362  11.251
 1100SOL    HW1 5197   9.362  10.284  11.276
 1100SOL    HW2 5198   9.464  10.334  11.175
 1101SOL     OW 5199   8.719   2.860   2.440
 1101SOL    HW1 5200   8.647   2.832   2.385
 1101SOL    HW2 5201   8.794   2.866   2.381
 1102SOL     OW 5202   6.519  11.866   7.617
 1102SOL    HW1 5203   6.533  11.811   7.539
 1102SOL    HW2 5204   6.559  11.817   7.689
 1103SOL     OW 5205  13.876  11.750  11.651
 1103SOL    HW1 5206  13.887  11.694  11.729
 1103SOL    HW2 5207  13.851  11.835  11.686
 1104SOL     OW 5208   8.316  11.026   8.919
 1104SOL    HW1 5209   8.243  11.069   8.964
 1104SOL    HW2 5210   8.327  11.076   8.838
 1105SOL     OW 5211   5.895  10.325   2.909
 1105SOL    HW1 5212   5.802  10.346   2.924
 1105SOL    HW2 5213   5.931  10.405   2.872
 1106SOL     OW 5214   6.173   4.765  12.093
 1106SOL    HW1 5215   6.130   4.693  12.139
 1106SOL    HW2 5216   6.248   4.788  12.148
 1107SOL     OW 5217   9.935   4.864  13.025
 1107SOL    HW1 5218   9.981   4.883  12.944
 1107SOL    HW2 5219  10.000   4.818  13.079
 1108SOL     OW 5220   5.579   5.387   3.798
 1108SOL    HW1 5221   5.615   5.360   3.883
 1108SOL    HW2 5222   5.485   5.392   3.813
 1109SOL     OW 5223   6.494   1.044   8.555
 1109SOL    HW1 5224   6.501   0.993   8.474
 1109SOL    HW2 5225   6.413   1.014   8.596
 1110SOL     OW 5226   1.006   6.153   9.161
 1110SOL    HW1 5227   1.036   6.190   9.244
 1110SOL    HW2 5228   0.910   6.159   9.165
 1111SOL     OW 5229   2.203  12.534   8.130
 1111SOL    HW1 5230   2.258  12.475   8.078
 1111SOL    HW2 5231   2.129  12.555   8.072
 1112SOL     OW 5232   9.223  13.785  10.455
 1112SOL    HW1 5233   9.293  13.796  10.391
 1112SOL    HW2 5234   9.206  13.874  10.487
 1113SOL     OW 5235   7.173   0.893   7.490
 1113SOL    HW1 5236   7.218   0.961   7.440
 1113SOL    HW2 5237   7.187   0.812   7.440
 1114SOL     OW 5238  10.738  13.364  10.907
 1114SOL    HW1 5239  10.686  13.425  10.959
 1114SOL    HW2 5240  10.733  13.397  10.818
 1115SOL     OW 5241  10.016  12.712   1.787
 1115SOL    HW1 5242   9.929  12.688   1.755
 1115SOL    HW2 5243  10.014  12.808   1.793
 1116SOL     OW 5244   7.722   0.196  12.266
 1116SOL    HW1 5245   7.657   0.193  12.196
 1116SOL    HW2 5246   7.730   0.289  12.288
 1117SOL     OW 5247   4.853   6.559   2.956
 1117SOL    HW1 5248   4.768   6.516   2.947
 1117SOL    HW2 5249   4.902   6.502   3.015
 1118SOL     OW 5250   2.613   7.102   1.107
 1118SOL    HW1 5251   2.688   7.042   1.114
 1118SOL    HW2 5252   2.643   7.183   1.148
 1119SOL     OW 5253   0.637  12.883   4.921
 1119SOL    HW1 5254   0.565  12.842   4.969
 1119SOL    HW2 5255   0.593  12.943   4.860
 1120SOL     OW 5256  13.988  12.039   1.315
 1120SOL    HW1 5257  13.960  12.047   1.406
 1120SOL    HW2 5258  14.014  11.947   1.307
 1121SOL     OW 5259   8.854   2.447   0.550
 1121SOL    HW1 5260   8.765   2.421   0.574
 1121SOL    HW2 5261   8.863   2.536   0.584
 1122SOL     OW 5262  12.357   6.925   2.738
 1122SOL    HW1 5263  12.328   6.949   2.650
 1122SOL    HW2 5264  12.277   6.900   2.784
 1123SOL     OW 5265  11.848  10.447   4.492
 1123SOL    HW1 5266  11.895  10.505   4.432
 1123SOL    HW2 5267  11.836  10.366   4.441
 1124SOL     OW 5268   3.284  13.367  10.346
 1124SOL    HW1 5269   3.259  13.346  10.256
 1124SOL    HW2 5270   3.263  13.288  10.396
 1125SOL     OW 5271   8.038   1.276   2.804
 1125SOL    HW1 5272   8.102   1.268   2.875
 1125SOL    HW2 5273   8.084   1.247   2.726
 1126SOL     OW 5274   1.381   0.255  13.888
 1126SOL    HW1 5275   1.473   0.260  13.913
 1126SOL    HW2 5276   1.354   0.168  13.915
 1127SOL     OW 5277  12.876   4.977   3.376
 1127SOL    HW1 5278  12.911   4.921   3.307
 1127SOL    HW2 5279  12.950   5.032   3.402
 1128SOL     OW 5280  10.662   0.666   6.058
 1128SOL    HW1 5281  10.589   0.726   6.041
 1128SOL    HW2 5282  10.620   0.588   6.094
 1129SOL     OW 5283   1.622   1.024  10.648
 1129SOL    HW1 5284   1.576   0.995  10.569
 1129SOL    HW2 5285   1.639   0.944  10.698
 1130SOL     OW 5286   9.294   5.238   6.469
 1130SOL    HW1 5287   9.254   5.166   6.421
 1130SOL    HW2 5288   9.234   5.312   6.456
 1131SOL     OW 5289   7.902   5.358   4.572
 1131SOL    HW1 5290   7.910   5.282   4.629
 1131SOL    HW2 5291   7.988   5.401   4.579
 1132SOL     OW 5292   2.417   9.134   2.513
 1132SOL    HW1 5293   2.363   9.061   2.544
 1132SOL    HW2 5294   2.497   9.093   2.481
 1133SOL     OW 5295  12.271   1.863   8.890
 1133SOL    HW1 5296  12.364   1.862   8.911
 1133SOL    HW2 5297  12.266   1.906   8.805
 1134SOL     OW 5298   3.665   6.197   3.701
 1134SOL    HW1 5299   3.624   6.283   3.695
 1134SOL    HW2 5300   3.608   6.140   3.649
 1135SOL     OW 5301   2.345   6.268   5.037
 1135SOL    HW1 5302   2.310   6.217   4.964
 1135SOL    HW2 5303   2.401   6.334   4.995
 1136SOL     OW 5304   5.371  10.891   0.643
 1136SOL    HW1 5305   5.384  10.856   0.555
 1136SOL    HW2 5306   5.325  10.821   0.690
 1137SOL     OW 5307   5.924   4.141   2.919
 1137SOL    HW1 5308   6.009   4.116   2.883
 1137SOL    HW2 5309   5.945   4.209   2.984
 1138SOL     OW 5310  10.756   7.553  10.626
 1138SOL    HW1 5311  10.718   7.518  10.545
 1138SOL    HW2 5312  10.815   7.622  10.597
 1139SOL     OW 5313   3.868   0.502   5.278
 1139SOL    HW1 5314   3.902   0.591   5.288
 1139SOL    HW2 5315   3.907   0.470   5.196
 1140SOL     OW 5316   7.120   1.943   9.244
 1140SOL    HW1 5317   7.050   2.004   9.217
 1140SOL    HW2 5318   7.114   1.871   9.181
 1141SOL     OW 5319  11.188   3.913   0.549
 1141SOL    HW1 5320  11.249   3.868   0.608
 1141SOL    HW2 5321  11.214   3.886   0.461
 1142SOL     OW 5322   0.125  11.330   3.576
 1142SOL    HW1 5323   0.213  11.359   3.554
 1142SOL    HW2 5324   0.085  11.404   3.621
 1143SOL     OW 5325   1.952   0.841   2.920
 1143SOL    HW1 5326   1.901   0.898   2.863
 1143SOL    HW2 5327   2.009   0.793   2.861
 1144SOL     OW 5328  14.213   5.432   9.250
 1144SOL    HW1 5329  14.180   5.443   9.339
 1144SOL    HW2 5330  14.185   5.345   9.224
 1145SOL     OW 5331  10.551   5.033   7.360
 1145SOL    HW1 5332  10.544   5.045   7.265
 1145SOL    HW2 5333  10.642   5.055   7.380
 1146SOL     OW 5334  10.755   2.909   2.840
 1146SOL    HW1 5335  10.840   2.946   2.864
 1146SOL    HW2 5336  10.713   2.979   2.790
 1147SOL     OW 5337  10.635   4.925   3.738
 1147SOL    HW1 5338  10.704   4.865   3.764
 1147SOL    HW2 5339  10.559   4.869   3.720
 1148SOL     OW 5340  11.277  13.858  13.644
 1148SOL    HW1 5341  11.335  13.830  13.715
 1148SOL    HW2 5342  11.262  13.779  13.593
 1149SOL     OW 5343  13.784  12.891  12.101
 1149SOL    HW1 5344  13.736  12.857  12.177
 1149SOL    HW2 5345  13.768  12.827  12.032
 1150SOL     OW 5346   1.907   7.032   6.722
 1150SOL    HW1 5347   1.936   6.972   6.791
 1150SOL    HW2 5348   1.818   7.002   6.702
 1151SOL     OW 5349   2.642  12.929   8.573
 1151SOL    HW1 5350   2.554  12.955   8.545
 1151SOL    HW2 5351   2.651  12.967   8.660
 1152SOL     OW 5352  12.956   6.789   1.025
 1152SOL    HW1 5353  12.952   6.737   1.105
 1152SOL    HW2 5354  12.977   6.877   1.055
 1153SOL     OW 5355   4.188   2.076   4.674
 1153SOL    HW1 5356   4.191   1.982   4.654
 1153SOL    HW2 5357   4.255   2.115   4.618
 1154SOL     OW 5358  11.463   0.222   2.816
 1154SOL    HW1 5359  11.406   0.241   2.890
 1154SOL    HW2 5360  11.547   0.260   2.840
 1155SOL     OW 5361   5.938   9.876   8.352
 1155SOL    HW1 5362   5.958   9.786   8.327
 1155SOL    HW2 5363   5.844   9.877   8.367
 1156SOL     OW 5364   6.909   9.198  11.240
 1156SOL    HW1 5365   6.994   9.195  11.286
 1156SOL    HW2 5366   6.857   9.260  11.290
 1157SOL     OW 5367   1.481  12.236  11.469
 1157SOL    HW1 5368   1.445  12.249  11.556
 1157SOL    HW2 5369   1.450  12.311  11.418
 1158SOL     OW 5370   7.166   6.501   3.525
 1158SOL    HW1 5371   7.143   6.428   3.467
 1158SOL    HW2 5372   7.198   6.569   3.465
 1159SOL     OW 5373   7.963  11.425  12.516
 1159SOL    HW1 5374   8.043  11.473  12.492
 1159SOL    HW2 5375   7.992  11.361  12.580
 1160SOL     OW 5376   6.079   4.627   7.610
 1160SOL    HW1 5377   6.118   4.594   7.691
 1160SOL    HW2 5378   6.062   4.548   7.558
 1161SOL     OW 5379   4.942   1.132   2.395
 1161SOL    HW1 5380   5.012   1.096   2.342
 1161SOL    HW2 5381   4.889   1.057   2.421
 1162SOL     OW 5382  11.196   7.995   4.154
 1162SOL    HW1 5383  11.153   7.931   4.211
 1162SOL    HW2 5384  11.128   8.061   4.136
 1163SOL     OW 5385  14.627   5.900  13.344
 1163SOL    HW1 5386  14.707   5.885  13.292
 1163SOL    HW2 5387  14.625   5.827  13.406
 1164SOL     OW 5388   1.313  13.289   2.959
 1164SOL    HW1 5389   1.224  13.258   2.943
 1164SOL    HW2 5390   1.320  13.294   3.054
 1165SOL     OW 5391   6.178   0.250   6.542
 1165SOL    HW1 5392   6.263   0.205   6.535
 1165SOL    HW2 5393   6.172   0.274   6.635
 1166SOL     OW 5394   7.065  13.578   5.680
 1166SOL    HW1 5395   6.983  13.584   5.631
 1166SOL    HW2 5396   7.106  13.498   5.646
 1167SOL     OW 5397  10.484   2.625   1.337
 1167SOL    HW1 5398  10.440   2.671   1.266
 1167SOL    HW2 5399  10.420   2.626   1.409
 1168SOL     OW 5400   0.961  11.074  13.329
 1168SOL    HW1 5401   0.936  11.151  13.279
 1168SOL    HW2 5402   0.902  11.073  13.404
 1169SOL     OW 5403  10.012  12.601   3.839
 1169SOL    HW1 5404   9.952  12.666   3.803
 1169SOL    HW2 5405  10.096  12.647   3.844
 1170SOL     OW 5406   6.248  12.168   0.448
 1170SOL    HW1 5407   6.231  12.172   0.354
 1170SOL    HW2 5408   6.294  12.085   0.461
 1171SOL     OW 5409   0.065   9.287   3.995
 1171SOL    HW1 5410   0.116   9.363   4.023
 1171SOL    HW2 5411  14.848   9.323   3.974
 1172SOL     OW 5412  14.774  13.845   0.116
 1172SOL    HW1 5413  14.759  13.843   0.210
 1172SOL    HW2 5414  14.746  13.932   0.089
 1173SOL     OW 5415  10.620   1.889   7.646
 1173SOL    HW1 5416  10.642   1.908   7.555
 1173SOL    HW2 5417  10.622   1.794   7.652
 1174SOL     OW 5418   6.047  11.930   9.955
 1174SOL    HW1 5419   5.965  11.888   9.981
 1174SOL    HW2 5420   6.058  11.906   9.863
 1175SOL     OW 5421   6.464  12.081  13.591
 1175SOL    HW1 5422   6.531  12.141  13.559
 1175SOL    HW2 5423   6.463  12.094  13.686
 1176SOL     OW 5424   2.912   8.821  13.438
 1176SOL    HW1 5425   2.957   8.766  13.374
 1176SOL    HW2 5426   2.837   8.770  13.467
 1177SOL     OW 5427   8.006   6.548   5.421
 1177SOL    HW1 5428   7.953   6.628   5.431
 1177SOL    HW2 5429   7.990   6.499   5.501
 1178SOL     OW 5430   1.950  13.244   4.768
 1178SOL    HW1 5431   1.914  13.158   4.749
 1178SOL    HW2 5432   1.878  13.292   4.808
 1179SOL     OW 5433   2.834  13.202   6.741
 1179SOL    HW1 5434   2.780  13.273   6.777
 1179SOL    HW2 5435   2.922  13.240   6.734
 1180SOL     OW 5436   8.537   5.345  11.987
 1180SOL    HW1 5437   8.545   5.250  11.991
 1180SOL    HW2 5438   8.627   5.377  11.986
 1181SOL     OW 5439   6.807   0.572   1.556
 1181SOL    HW1 5440   6.802   0.542   1.647
 1181SOL    HW2 5441   6.722   0.613   1.540
 1182SOL     OW 5442   4.279  13.537   4.676
 1182SOL    HW1 5443   4.294  13.455   4.629
 1182SOL    HW2 5444   4.350  13.539   4.741
 1183SOL     OW 5445  11.648   7.085  14.047
 1183SOL    HW1 5446  11.699   7.148  14.097
 1183SOL    HW2 5447  11.626   7.017  14.110
 1184SOL     OW 5448   2.759   8.837   1.280
 1184SOL    HW1 5449   2.678   8.789   1.262
 1184SOL    HW2 5450   2.773   8.890   1.202
 1185SOL     OW 5451   1.630   4.581  14.571
 1185SOL    HW1 5452   1.700   4.587  14.636
 1185SOL    HW2 5453   1.675   4.590  14.487
 1186SOL     OW 5454   7.766   5.633   5.868
 1186SOL    HW1 5455   7.683   5.658   5.825
 1186SOL    HW2 5456   7.763   5.678   5.953
 1187SOL     OW 5457   4.447   9.251  10.425
 1187SOL    HW1 5458   4.431   9.317  10.492
 1187SOL    HW2 5459   4.506   9.188  10.467
 1188SOL     OW 5460   3.673  11.488  14.274
 1188SOL    HW1 5461   3.680  11.576  14.311
 1188SOL    HW2 5462   3.763  11.458  14.266
 1189SOL     OW 5463   4.610   6.720   8.238
 1189SOL    HW1 5464   4.527   6.764   8.222
 1189SOL    HW2 5465   4.598   6.676   8.322
 1190SOL     OW 5466  14.783   7.310   1.191
 1190SOL    HW1 5467  14.735   7.236   1.227
 1190SOL    HW2 5468  14.716   7.377   1.176
 1191SOL     OW 5469   1.925  12.833  13.492
 1191SOL    HW1 5470   1.933  12.910  13.549
 1191SOL    HW2 5471   1.831  12.815  13.490
 1192SOL     OW 5472   9.481   6.976   6.473
 1192SOL    HW1 5473   9.572   6.949   6.483
 1192SOL    HW2 5474   9.455   7.005   6.560
 1193SOL     OW 5475  12.272   2.906  12.081
 1193SOL    HW1 5476  12.330   2.979  12.102
 1193SOL    HW2 5477  12.281   2.847  12.156
 1194SOL     OW 5478   0.594   5.446   4.726
 1194SOL    HW1 5479   0.594   5.457   4.631
 1194SOL    HW2 5480   0.668   5.388   4.743
 1195SOL     OW 5481   1.212   1.638   2.233
 1195SOL    HW1 5482   1.140   1.635   2.296
 1195SOL    HW2 5483   1.284   1.591   2.276
 1196SOL     OW 5484   8.091   7.632  10.441
 1196SOL    HW1 5485   8.040   7.661  10.365
 1196SOL    HW2 5486   8.143   7.709  10.465
 1197SOL     OW 5487   0.488   0.976   4.810
 1197SOL    HW1 5488   0.402   1.005   4.778
 1197SOL    HW2 5489   0.545   0.980   4.733
 1198SOL     OW 5490   2.381   7.823   4.461
 1198SOL    HW1 5491   2.420   7.875   4.532
 1198SOL    HW2 5492   2.451   7.815   4.396
 1199SOL     OW 5493   1.293   9.813   8.416
 1199SOL    HW1 5494   1.380   9.776   8.425
 1199SOL    HW2 5495   1.239   9.763   8.478
 1200SOL     OW 5496   3.567  13.503   6.761
 1200SOL    HW1 5497   3.583  13.432   6.823
 1200SOL    HW2 5498   3.555  13.581   6.816
 1201SOL     OW 5499  12.062   0.739  12.353
 1201SOL    HW1 5500  12.157   0.748  12.362
 1201SOL    HW2 5501  12.027   0.802  12.415
 1202SOL     OW 5502  14.368   6.440   6.450
 1202SOL    HW1 5503  14.311   6.378   6.405
 1202SOL    HW2 5504  14.447   6.444   6.396
 1203SOL     OW 5505  12.658   8.898   5.950
 1203SOL    HW1 5506  12.685   8.811   5.978
 1203SOL    HW2 5507  12.728   8.956   5.982
 1204SOL     OW 5508  10.902   2.440   9.319
 1204SOL    HW1 5509  10.861   2.355   9.337
 1204SOL    HW2 5510  10.830   2.494   9.285
 1205SOL     OW 5511   0.142  13.625  13.158
 1205SOL    HW1 5512   0.107  13.673  13.233
 1205SOL    HW2 5513   0.085  13.648  13.086
 1206SOL     OW 5514   5.212   3.555  14.064
 1206SOL    HW1 5515   5.271   3.554  13.988
 1206SOL    HW2 5516   5.180   3.465  14.071
 1207SOL     OW 5517   2.619   6.734   5.303
 1207SOL    HW1 5518   2.645   6.824   5.320
 1207SOL    HW2 5519   2.694   6.682   5.333
 1208SOL     OW 5520  14.148   2.083  14.324
 1208SOL    HW1 5521  14.225   2.119  14.369
 1208SOL    HW2 5522  14.077   2.141  14.349
 1209SOL     OW 5523  12.289  14.836   7.497
 1209SOL    HW1 5524  12.333   0.045   7.465
 1209SOL    HW2 5525  12.287  14.846   7.592
 1210SOL     OW 5526   3.393   1.558   2.291
 1210SOL    HW1 5527   3.474   1.527   2.330
 1210SOL    HW2 5528   3.343   1.479   2.272
 1211SOL     OW 5529   1.268   7.542   1.612
 1211SOL    HW1 5530   1.187   7.495   1.632
 1211SOL    HW2 5531   1.327   7.519   1.684
 1212SOL     OW 5532  10.573   1.263  10.688
 1212SOL    HW1 5533  10.658   1.290  10.722
 1212SOL    HW2 5534  10.562   1.173  10.719
 1213SOL     OW 5535   6.111   0.605   1.832
 1213SOL    HW1 5536   6.169   0.593   1.908
 1213SOL    HW2 5537   6.041   0.540   1.846
 1214SOL     OW 5538   2.307   9.004  10.712
 1214SOL    HW1 5539   2.294   8.937  10.645
 1214SOL    HW2 5540   2.220   9.017  10.750
 1215SOL     OW 5541   1.645  11.049   1.223
 1215SOL    HW1 5542   1.628  11.140   1.200
 1215SOL    HW2 5543   1.697  11.015   1.150
 1216SOL     OW 5544   5.536   1.015   8.249
 1216SOL    HW1 5545   5.453   1.005   8.296
 1216SOL    HW2 5546   5.532   0.949   8.180
 1217SOL     OW 5547   2.750   7.815  11.786
 1217SOL    HW1 5548   2.699   7.737  11.764
 1217SOL    HW2 5549   2.709   7.849  11.866
 1218SOL     OW 5550   9.828   4.019   1.577
 1218SOL    HW1 5551   9.864   4.017   1.488
 1218SOL    HW2 5552   9.904   4.002   1.633
 1219SOL     OW 5553   1.362   2.420  11.503
 1219SOL    HW1 5554   1.354   2.358  11.431
 1219SOL    HW2 5555   1.456   2.431  11.515
 1220SOL     OW 5556   3.859   2.434  11.622
 1220SOL    HW1 5557   3.860   2.375  11.547
 1220SOL    HW2 5558   3.935   2.408  11.675
 1221SOL     OW 5559   5.309   3.157  10.833
 1221SOL    HW1 5560   5.349   3.158  10.920
 1221SOL    HW2 5561   5.328   3.243  10.796
 1222SOL     OW 5562  14.006  10.350  13.696
 1222SOL    HW1 5563  13.938  10.293  13.660
 1222SOL    HW2 5564  14.084  10.329  13.645
 1223SOL     OW 5565   2.350  12.706  12.079
 1223SOL    HW1 5566   2.421  12.704  12.015
 1223SOL    HW2 5567   2.301  12.785  12.059
 1224SOL     OW 5568  13.974  11.570  13.639
 1224SOL    HW1 5569  13.882  11.582  13.661
 1224SOL    HW2 5570  13.996  11.644  13.582
 1225SOL     OW 5571   9.255  14.046  14.810
 1225SOL    HW1 5572   9.281  14.090   0.022
 1225SOL    HW2 5573   9.225  14.116  14.753
 1226SOL     OW 5574  11.140  10.360  10.532
 1226SOL    HW1 5575  11.177  10.373  10.444
 1226SOL    HW2 5576  11.046  10.353  10.518
 1227SOL     OW 5577   3.376   2.011  11.134
 1227SOL    HW1 5578   3.383   2.071  11.059
 1227SOL    HW2 5579   3.315   2.055  11.193
 1228SOL     OW 5580   7.879   1.339   6.362
 1228SOL    HW1 5581   7.856   1.343   6.455
 1228SOL    HW2 5582   7.974   1.331   6.361
 1229SOL     OW 5583  11.747  12.107   8.821
 1229SOL    HW1 5584  11.779  12.073   8.905
 1229SOL    HW2 5585  11.768  12.038   8.758
 1230SOL     OW 5586   1.548  11.291   4.595
 1230SOL    HW1 5587   1.616  11.351   4.566
 1230SOL    HW2 5588   1.475  11.307   4.536
 1231SOL     OW 5589  13.656   8.716  12.719
 1231SOL    HW1 5590  13.749   8.728  12.704
 1231SOL    HW2 5591  13.644   8.728  12.813
 1232SOL     OW 5592  11.932   0.405   3.249
 1232SOL    HW1 5593  11.907   0.338   3.312
 1232SOL    HW2 5594  11.873   0.478   3.267
 1233SOL     OW 5595  12.215   0.239  11.171
 1233SOL    HW1 5596  12.284   0.213  11.110
 1233SOL    HW2 5597  12.228   0.183  11.248
 1234SOL     OW 5598  10.672  12.049  14.065
 1234SOL    HW1 5599  10.720  12.021  13.988
 1234SOL    HW2 5600  10.737  12.097  14.118
 1235SOL     OW 5601   2.231  12.251   0.919
 1235SOL    HW1 5602   2.201  12.339   0.942
 1235SOL    HW2 5603   2.267  12.260   0.831
 1236SOL     OW 5604  12.686  14.451   5.369
 1236SOL    HW1 5605  12.677  14.488   5.281
 1236SOL    HW2 5606  12.668  14.358   5.358
 1237SOL     OW 5607   3.559   4.418  10.771
 1237SOL    HW1 5608   3.604   4.476  10.709
 1237SOL    HW2 5609   3.588   4.448  10.857
 1238SOL     OW 5610   6.655  10.883   1.040
 1238SOL    HW1 5611   6.612  10.948   0.985
 1238SOL    HW2 5612   6.721  10.843   0.983
 1239SOL     OW 5613   0.710   8.540  13.901
 1239SOL    HW1 5614   0.640   8.566  13.961
 1239SOL    HW2 5615   0.725   8.447  13.922
 1240SOL     OW 5616   1.685   7.569   6.651
 1240SOL    HW1 5617   1.725   7.490   6.616
 1240SOL    HW2 5618   1.703   7.566   6.745
 1241SOL     OW 5619   3.803   3.792  12.003
 1241SOL    HW1 5620   3.791   3.763  11.913
 1241SOL    HW2 5621   3.801   3.711  12.055
 1242SOL     OW 5622  10.480   7.624  10.990
 1242SOL    HW1 5623  10.433   7.543  10.970
 1242SOL    HW2 5624  10.494   7.620  11.085
 1243SOL     OW 5625  12.989   5.531   5.900
 1243SOL    HW1 5626  13.021   5.621   5.905
 1243SOL    HW2 5627  12.918   5.527   5.964
 1244SOL     OW 5628   6.588   1.757   6.807
 1244SOL    HW1 5629   6.515   1.746   6.745
 1244SOL    HW2 5630   6.597   1.671   6.848
 1245SOL     OW 5631   7.846   0.241   6.446
 1245SOL    HW1 5632   7.937   0.238   6.476
 1245SOL    HW2 5633   7.827   0.335   6.437
 1246SOL     OW 5634  12.400  10.145   9.937
 1246SOL    HW1 5635  12.480  10.099   9.911
 1246SOL    HW2 5636  12.350  10.154   9.856
 1247SOL     OW 5637   4.106  12.572  10.839
 1247SOL    HW1 5638   4.105  12.507  10.769
 1247SOL    HW2 5639   4.199  12.596  10.848
 1248SOL     OW 5640   3.666  14.355   7.089
 1248SOL    HW1 5641   3.727  14.429   7.088
 1248SOL    HW2 5642   3.604  14.376   7.158
 1249SOL     OW 5643   1.983   8.178   8.905
 1249SOL    HW1 5644   2.070   8.154   8.938
 1249SOL    HW2 5645   1.978   8.273   8.918
 1250SOL     OW 5646   8.675   5.487   0.237
 1250SOL    HW1 5647   8.681   5.396   0.207
 1250SOL    HW2 5648   8.583   5.509   0.228
 1251SOL     OW 5649   4.376  13.237  13.343
 1251SOL    HW1 5650   4.291  13.204  13.370
 1251SOL    HW2 5651   4.358  13.286  13.262
 1252SOL     OW 5652  12.787   8.545   7.121
 1252SOL    HW1 5653  12.701   8.517   7.089
 1252SOL    HW2 5654  12.812   8.617   7.062
 1253SOL     OW 5655   3.158   4.155  13.318
 1253SOL    HW1 5656   3.160   4.108  13.401
 1253SOL    HW2 5657   3.137   4.245  13.341
 1254SOL     OW 5658   2.446   4.561   1.128
 1254SOL    HW1 5659   2.474   4.652   1.121
 1254SOL    HW2 5660   2.389   4.548   1.053
 1255SOL     OW 5661   4.585  13.216   5.505
 1255SOL    HW1 5662   4.562  13.258   5.422
 1255SOL    HW2 5663   4.518  13.150   5.518
 1256SOL     OW 5664   3.928  13.470   2.065
 1256SOL    HW1 5665   3.979  13.551   2.058
 1256SOL    HW2 5666   3.983  13.411   2.116
 1257SOL     OW 5667   0.892  13.255   2.398
 1257SOL    HW1 5668   0.972  13.245   2.450
 1257SOL    HW2 5669   0.921  13.243   2.308
 1258SOL     OW 5670  12.631  11.163   6.295
 1258SOL    HW1 5671  12.639  11.215   6.215
 1258SOL    HW2 5672  12.616  11.227   6.364
 1259SOL     OW 5673   3.116   9.389  13.293
 1259SOL    HW1 5674   3.103   9.304  13.251
 1259SOL    HW2 5675   3.080   9.378  13.381
 1260SOL     OW 5676  11.950   1.193  12.989
 1260SOL    HW1 5677  11.986   1.282  12.994
 1260SOL    HW2 5678  11.980   1.151  13.070
 1261SOL     OW 5679   0.120  11.410   8.169
 1261SOL    HW1 5680   0.138  11.325   8.130
 1261SOL    HW2 5681   0.027  11.410   8.187
 1262SOL     OW 5682   3.617   1.684   2.421
 1262SOL    HW1 5683   3.629   1.778   2.436
 1262SOL    HW2 5684   3.705   1.647   2.429
 1263SOL     OW 5685   2.386  11.124   6.280
 1263SOL    HW1 5686   2.413  11.065   6.209
 1263SOL    HW2 5687   2.422  11.209   6.255
 1264SOL     OW 5688  10.743   2.631   2.759
 1264SOL    HW1 5689  10.669   2.632   2.697
 1264SOL    HW2 5690  10.757   2.723   2.780
 1265SOL     OW 5691   0.171   6.607   6.862
 1265SOL    HW1 5692   0.086   6.650   6.850
 1265SOL    HW2 5693   0.152   6.532   6.919
 1266SOL     OW 5694   7.944   7.884   5.441
 1266SOL    HW1 5695   7.851   7.875   5.464
 1266SOL    HW2 5696   7.991   7.862   5.522
 1267SOL     OW 5697   7.492   6.397  14.541
 1267SOL    HW1 5698   7.523   6.457  14.474
 1267SOL    HW2 5699   7.557   6.327  14.542
 1268SOL     OW 5700   4.725   3.994  10.170
 1268SOL    HW1 5701   4.726   4.087  10.190
 1268SOL    HW2 5702   4.743   3.990  10.076
 1269SOL     OW 5703  14.378   7.595  10.853
 1269SOL    HW1 5704  14.400   7.512  10.894
 1269SOL    HW2 5705  14.457   7.648  10.862
 1270SOL     OW 5706   4.687  10.993   9.312
 1270SOL    HW1 5707   4.624  10.989   9.241
 1270SOL    HW2 5708   4.771  10.972   9.271
 1271SOL     OW 5709  12.471  12.606   8.942
 1271SOL    HW1 5710  12.497  12.660   8.867
 1271SOL    HW2 5711  12.430  12.668   9.002
 1272SOL     OW 5712   0.683   9.861   8.947
 1272SOL    HW1 5713   0.751   9.922   8.918
 1272SOL    HW2 5714   0.707   9.840   9.038
 1273SOL     OW 5715  14.292   8.435   6.398
 1273SOL    HW1 5716  14.366   8.374   6.398
 1273SOL    HW2 5717  14.266   8.440   6.306
 1274SOL     OW 5718  14.635   1.100  14.419
 1274SOL    HW1 5719  14.674   1.071  14.501
 1274SOL    HW2 5720  14.558   1.150  14.446
 1275SOL     OW 5721   6.553   5.960   0.278
 1275SOL    HW1 5722   6.648   5.966   0.278
 1275SOL    HW2 5723   6.524   6.028   0.339
 1276SOL     OW 5724  11.182   9.579   5.070
 1276SOL    HW1 5725  11.182   9.493   5.112
 1276SOL    HW2 5726  11.273   9.609   5.078
 1277SOL     OW 5727   4.396  12.314   1.817
 1277SOL    HW1 5728   4.444  12.396   1.818
 1277SOL    HW2 5729   4.463  12.246   1.819
 1278SOL     OW 5730   5.276   2.314  10.321
 1278SOL    HW1 5731   5.262   2.407  10.335
 1278SOL    HW2 5732   5.190   2.274  10.334
 1279SOL     OW 5733  13.835  13.777  10.371
 1279SOL    HW1 5734  13.893  13.817  10.436
 1279SOL    HW2 5735  13.882  13.787  10.288
 1280SOL     OW 5736  12.135  13.248   9.371
 1280SOL    HW1 5737  12.186  13.227   9.293
 1280SOL    HW2 5738  12.059  13.190   9.367
 1281SOL     OW 5739   4.850   5.086  14.421
 1281SOL    HW1 5740   4.903   5.155  14.461
 1281SOL    HW2 5741   4.759   5.111  14.441
 1282SOL     OW 5742   0.606   9.634   6.487
 1282SOL    HW1 5743   0.638   9.719   6.457
 1282SOL    HW2 5744   0.543   9.655   6.557
 1283SOL     OW 5745   7.354   6.371  11.572
 1283SOL    HW1 5746   7.323   6.356  11.661
 1283SOL    HW2 5747   7.345   6.286  11.529
 1284SOL     OW 5748   5.716   7.877  10.186
 1284SOL    HW1 5749   5.627   7.853  10.160
 1284SOL    HW2 5750   5.717   7.973  10.180
 1285SOL     OW 5751   5.006   3.033  14.556
 1285SOL    HW1 5752   5.074   2.966  14.566
 1285SOL    HW2 5753   4.928   2.993  14.594
 1286SOL     OW 5754   8.218  12.990   8.254
 1286SOL    HW1 5755   8.246  13.064   8.201
 1286SOL    HW2 5756   8.262  12.915   8.215
 1287SOL     OW 5757   8.730   8.541   8.180
 1287SOL    HW1 5758   8.697   8.537   8.090
 1287SOL    HW2 5759   8.687   8.617   8.218
 1288SOL     OW 5760   5.560  12.233   6.953
 1288SOL    HW1 5761   5.619  12.172   6.997
 1288SOL    HW2 5762   5.565  12.209   6.860
 1289SOL     OW 5763  13.119  11.989   1.329
 1289SOL    HW1 5764  13.081  12.042   1.400
 1289SOL    HW2 5765  13.046  11.975   1.269
 1290SOL     OW 5766  13.590   3.255   8.535
 1290SOL    HW1 5767  13.509   3.282   8.491
 1290SOL    HW2 5768  13.591   3.159   8.527
 1291SOL     OW 5769   9.017   4.152  10.030
 1291SOL    HW1 5770   8.973   4.232  10.001
 1291SOL    HW2 5771   9.036   4.167  10.122
 1292SOL     OW 5772   4.190  11.772  11.306
 1292SOL    HW1 5773   4.123  11.783  11.374
 1292SOL    HW2 5774   4.188  11.679  11.284
 1293SOL     OW 5775   7.077   1.805  11.375
 1293SOL    HW1 5776   7.163   1.844  11.362
 1293SOL    HW2 5777   7.095   1.718  11.410
 1294SOL     OW 5778  12.796  12.387  13.357
 1294SOL    HW1 5779  12.724  12.389  13.294
 1294SOL    HW2 5780  12.850  12.463  13.334
 1295SOL     OW 5781   1.899   3.511  13.979
 1295SOL    HW1 5782   1.982   3.520  13.933
 1295SOL    HW2 5783   1.916   3.445  14.047
 1296SOL     OW 5784   2.423   0.726   6.298
 1296SOL    HW1 5785   2.390   0.794   6.240
 1296SOL    HW2 5786   2.368   0.731   6.376
 1297SOL     OW 5787   7.659   9.395   8.401
 1297SOL    HW1 5788   7.605   9.472   8.383
 1297SOL    HW2 5789   7.607   9.322   8.367
 1298SOL     OW 5790   3.395  13.820   4.993
 1298SOL    HW1 5791   3.427  13.886   4.932
 1298SOL    HW2 5792   3.458  13.822   5.065
 1299SOL     OW 5793   9.376  10.302   1.823
 1299SOL    HW1 5794   9.363  10.340   1.909
 1299SOL    HW2 5795   9.295  10.322   1.776
 1300SOL     OW 5796   3.491   9.666  13.532
 1300SOL    HW1 5797   3.430   9.692  13.463
 1300SOL    HW2 5798   3.458   9.582  13.563
 1301SOL     OW 5799   8.519  10.376  14.640
 1301SOL    HW1 5800   8.483  10.332  14.563
 1301SOL    HW2 5801   8.611  10.391  14.618
 1302SOL     OW 5802  11.935   9.479   0.410
 1302SOL    HW1 5803  11.958   9.560   0.364
 1302SOL    HW2 5804  11.975   9.490   0.497
 1303SOL     OW 5805  14.450   8.661   4.371
 1303SOL    HW1 5806  14.406   8.683   4.288
 1303SOL    HW2 5807  14.379   8.647   4.433
 1304SOL     OW 5808   0.921   6.730   8.485
 1304SOL    HW1 5809   0.902   6.750   8.393
 1304SOL    HW2 5810   1.016   6.738   8.492
 1305SOL     OW 5811  10.828  10.542   1.870
 1305SOL    HW1 5812  10.793  10.454   1.884
 1305SOL    HW2 5813  10.853  10.572   1.958
 1306SOL     OW 5814   7.365   7.052   4.146
 1306SOL    HW1 5815   7.437   7.094   4.194
 1306SOL    HW2 5816   7.309   7.124   4.119
 1307SOL     OW 5817   5.465   3.122  11.598
 1307SOL    HW1 5818   5.514   3.195  11.560
 1307SOL    HW2 5819   5.522   3.046  11.586
 1308SOL     OW 5820   3.252   7.670  14.305
 1308SOL    HW1 5821   3.207   7.747  14.339
 1308SOL    HW2 5822   3.184   7.622  14.257
 1309SOL     OW 5823  13.722   1.218  12.557
 1309SOL    HW1 5824  13.662   1.291  12.543
 1309SOL    HW2 5825  13.666   1.148  12.593
 1310SOL     OW 5826  10.133   4.689  12.969
 1310SOL    HW1 5827  10.105   4.608  13.011
 1310SOL    HW2 5828  10.162   4.663  12.882
 1311SOL     OW 5829   2.810   0.449   0.936
 1311SOL    HW1 5830   2.741   0.432   0.872
 1311SOL    HW2 5831   2.762   0.472   1.016
 1312SOL     OW 5832   6.298   3.316   2.145
 1312SOL    HW1 5833   6.272   3.391   2.199
 1312SOL    HW2 5834   6.244   3.244   2.178
 1313SOL     OW 5835   0.333   4.091   7.753
 1313SOL    HW1 5836   0.416   4.099   7.801
 1313SOL    HW2 5837   0.303   4.181   7.742
 1314SOL     OW 5838   0.257  14.344   1.461
 1314SOL    HW1 5839   0.260  14.364   1.554
 1314SOL    HW2 5840   0.170  14.372   1.433
 1315SOL     OW 5841   3.131   3.554   0.814
 1315SOL    HW1 5842   3.126   3.598   0.729
 1315SOL    HW2 5843   3.141   3.461   0.792
 1316SOL     OW 5844  14.396  14.344  14.350
 1316SOL    HW1 5845  14.380  14.436  14.330
 1316SOL    HW2 5846  14.315  14.300  14.326
 1317SOL     OW 5847  10.904   0.545  10.877
 1317SOL    HW1 5848  10.947   0.618  10.832
 1317SOL    HW2 5849  10.844   0.508  10.812
 1318SOL     OW 5850   6.667   8.403   0.148
 1318SOL    HW1 5851   6.600   8.353   0.101
 1318SOL    HW2 5852   6.618   8.453   0.213
 1319SOL     OW 5853   1.240  11.256  11.194
 1319SOL    HW1 5854   1.230  11.299  11.279
 1319SOL    HW2 5855   1.253  11.163  11.215
 1320SOL     OW 5856  10.029  11.702   5.973
 1320SOL    HW1 5857  10.050  11.643   6.046
 1320SOL    HW2 5858  10.008  11.643   5.901
 1321SOL     OW 5859   7.674   6.688   3.604
 1321SOL    HW1 5860   7.724   6.767   3.620
 1321SOL    HW2 5861   7.685   6.670   3.511
 1322SOL     OW 5862   5.501  10.813  12.316
 1322SOL    HW1 5863   5.530  10.855  12.235
 1322SOL    HW2 5864   5.576  10.761  12.344
 1323SOL     OW 5865   9.606   1.738   2.973
 1323SOL    HW1 5866   9.579   1.686   2.897
 1323SOL    HW2 5867   9.696   1.711   2.990
 1324SOL     OW 5868  12.537   3.978   5.390
 1324SOL    HW1 5869  12.445   3.970   5.364
 1324SOL    HW2 5870  12.560   4.069   5.371
 1325SOL     OW 5871   9.554   8.366  14.508
 1325SOL    HW1 5872   9.605   8.296  14.466
 1325SOL    HW2 5873   9.578   8.360  14.600
 1326SOL     OW 5874   1.050   7.543  11.520
 1326SOL    HW1 5875   1.064   7.546  11.425
 1326SOL    HW2 5876   1.010   7.627  11.541
 1327SOL     OW 5877   5.454   3.955  10.503
 1327SOL    HW1 5878   5.523   3.997  10.451
 1327SOL    HW2 5879   5.375   3.967  10.451
 1328SOL     OW 5880   7.942   1.957  13.571
 1328SOL    HW1 5881   7.932   1.922  13.482
 1328SOL    HW2 5882   7.852   1.968  13.603
 1329SOL     OW 5883   8.673   9.890   8.457
 1329SOL    HW1 5884   8.678   9.968   8.511
 1329SOL    HW2 5885   8.602   9.838   8.495
 1330SOL     OW 5886  10.634   3.092  13.336
 1330SOL    HW1 5887  10.546   3.129  13.339
 1330SOL    HW2 5888  10.643   3.043  13.418
 1331SOL     OW 5889   6.497  13.411  14.454
 1331SOL    HW1 5890   6.515  13.453  14.538
 1331SOL    HW2 5891   6.499  13.317  14.473
 1332SOL     OW 5892  12.793   7.815   0.107
 1332SOL    HW1 5893  12.814   7.894   0.158
 1332SOL    HW2 5894  12.734   7.765   0.163
 1333SOL     OW 5895  13.368   4.276   3.135
 1333SOL    HW1 5896  13.416   4.288   3.053
 1333SOL    HW2 5897  13.298   4.341   3.132
 1334SOL     OW 5898   9.171  13.511   2.958
 1334SOL    HW1 5899   9.171  13.423   2.997
 1334SOL    HW2 5900   9.089  13.516   2.910
 1335SOL     OW 5901  13.252   2.898   1.992
 1335SOL    HW1 5902  13.226   2.862   2.076
 1335SOL    HW2 5903  13.186   2.964   1.972
 1336SOL     OW 5904   6.411   4.279  13.431
 1336SOL    HW1 5905   6.504   4.294  13.415
 1336SOL    HW2 5906   6.368   4.307  13.351
 1337SOL     OW 5907   5.566   3.328   6.154
 1337SOL    HW1 5908   5.546   3.339   6.247
 1337SOL    HW2 5909   5.652   3.285   6.154
 1338SOL     OW 5910  11.490   3.389   8.473
 1338SOL    HW1 5911  11.562   3.398   8.411
 1338SOL    HW2 5912  11.531   3.403   8.559
 1339SOL     OW 5913   8.581   2.048  11.449
 1339SOL    HW1 5914   8.496   2.073  11.487
 1339SOL    HW2 5915   8.562   2.035  11.356
 1340SOL     OW 5916   1.319   0.231   1.730
 1340SOL    HW1 5917   1.328   0.200   1.640
 1340SOL    HW2 5918   1.339   0.155   1.784
 1341SOL     OW 5919   4.089   1.351  13.581
 1341SOL    HW1 5920   4.092   1.255  13.578
 1341SOL    HW2 5921   4.180   1.378  13.577
 1342SOL     OW 5922  10.881   2.545   7.977
 1342SOL    HW1 5923  10.845   2.633   7.969
 1342SOL    HW2 5924  10.974   2.558   7.994
 1343SOL     OW 5925   4.585   5.777   7.292
 1343SOL    HW1 5926   4.612   5.743   7.207
 1343SOL    HW2 5927   4.493   5.802   7.280
 1344SOL     OW 5928   0.830   0.347  12.711
 1344SOL    HW1 5929   0.878   0.304  12.641
 1344SOL    HW2 5930   0.896   0.365  12.778
 1345SOL     OW 5931  10.734   9.579  12.100
 1345SOL    HW1 5932  10.702   9.583  12.190
 1345SOL    HW2 5933  10.661   9.539  12.050
 1346SOL     OW 5934   1.532   8.891   6.964
 1346SOL    HW1 5935   1.598   8.887   7.033
 1346SOL    HW2 5936   1.471   8.959   6.993
 1347SOL     OW 5937  14.698   7.799   6.957
 1347SOL    HW1 5938  14.629   7.777   6.895
 1347SOL    HW2 5939  14.753   7.863   6.911
 1348SOL     OW 5940  12.622   1.770   7.940
 1348SOL    HW1 5941  12.535   1.741   7.911
 1348SOL    HW2 5942  12.681   1.737   7.873
 1349SOL     OW 5943  11.304   6.730   2.140
 1349SOL    HW1 5944  11.388   6.756   2.103
 1349SOL    HW2 5945  11.275   6.657   2.085
 1350SOL     OW 5946   5.728   4.849   4.321
 1350SOL    HW1 5947   5.803   4.882   4.272
 1350SOL    HW2 5948   5.760   4.770   4.365
 1351SOL     OW 5949   6.234   4.712  12.509
 1351SOL    HW1 5950   6.280   4.630  12.527
 1351SOL    HW2 5951   6.276   4.776  12.566
 1352SOL     OW 5952   1.037   1.256   1.625
 1352SOL    HW1 5953   0.986   1.248   1.544
 1352SOL    HW2 5954   1.007   1.337   1.665
 1353SOL     OW 5955  13.138   4.047   5.261
 1353SOL    HW1 5956  13.047   4.053   5.288
 1353SOL    HW2 5957  13.188   4.080   5.335
 1354SOL     OW 5958  12.142   8.119   6.109
 1354SOL    HW1 5959  12.133   8.098   6.016
 1354SOL    HW2 5960  12.234   8.145   6.119
 1355SOL     OW 5961   3.419   1.581  12.321
 1355SOL    HW1 5962   3.415   1.677  12.320
 1355SOL    HW2 5963   3.495   1.560  12.375
 1356SOL     OW 5964   8.136   3.747   3.693
 1356SOL    HW1 5965   8.048   3.710   3.705
 1356SOL    HW2 5966   8.157   3.731   3.601
 1357SOL     OW 5967  11.284   9.065   4.676
 1357SOL    HW1 5968  11.256   8.977   4.702
 1357SOL    HW2 5969  11.249   9.123   4.744
 1358SOL     OW 5970   1.273  14.605   2.867
 1358SOL    HW1 5971   1.327  14.553   2.808
 1358SOL    HW2 5972   1.321  14.688   2.876
 1359SOL     OW 5973   7.022  14.586   4.050
 1359SOL    HW1 5974   6.952  14.637   4.010
 1359SOL    HW2 5975   6.978  14.522   4.104
 1360SOL     OW 5976   4.739   8.873   7.691
 1360SOL    HW1 5977   4.789   8.905   7.616
 1360SOL    HW2 5978   4.652   8.853   7.655
 1361SOL     OW 5979   2.201   9.117   6.450
 1361SOL    HW1 5980   2.157   9.189   6.495
 1361SOL    HW2 5981   2.130   9.067   6.410
 1362SOL     OW 5982   6.268   0.188   9.449
 1362SOL    HW1 5983   6.355   0.214   9.479
 1362SOL    HW2 5984   6.283   0.154   9.360
 1363SOL     OW 5985   0.373  12.373   7.871
 1363SOL    HW1 5986   0.397  12.440   7.935
 1363SOL    HW2 5987   0.448  12.371   7.810
 1364SOL     OW 5988   6.471  12.066  11.068
 1364SOL    HW1 5989   6.407  12.051  10.999
 1364SOL    HW2 5990   6.548  12.101  11.023
 1365SOL     OW 5991  12.463   6.090   2.188
 1365SOL    HW1 5992  12.543   6.070   2.139
 1365SOL    HW2 5993  12.409   6.011   2.179
 1366SOL     OW 5994  11.904  13.804  13.760
 1366SOL    HW1 5995  11.910  13.812  13.665
 1366SOL    HW2 5996  11.849  13.727  13.774
 1367SOL     OW 5997   6.644   5.808   2.544
 1367SOL    HW1 5998   6.611   5.830   2.631
 1367SOL    HW2 5999   6.579   5.844   2.484
 1368SOL     OW 6000   6.127   1.022   7.336
 1368SOL    HW1 6001   6.084   0.949   7.380
 1368SOL    HW2 6002   6.218   0.993   7.324
 1369SOL     OW 6003   5.953   7.687   7.557
 1369SOL    HW1 6004   5.914   7.630   7.490
 1369SOL    HW2 6005   6.025   7.636   7.592
 1370SOL     OW 6006  10.997  13.125   7.082
 1370SOL    HW1 6007  10.953  13.071   7.016
 1370SOL    HW2 6008  10.982  13.079   7.164
 1371SOL     OW 6009  14.246   2.048   0.154
 1371SOL    HW1 6010  14.199   2.132   0.155
 1371SOL    HW2 6011  14.332   2.068   0.192
 1372SOL     OW 6012  13.591   5.078  12.740
 1372SOL    HW1 6013  13.588   5.059  12.646
 1372SOL    HW2 6014  13.684   5.082  12.760
 1373SOL     OW 6015   3.140   0.235   9.928
 1373SOL    HW1 6016   3.105   0.194  10.007
 1373SOL    HW2 6017   3.188   0.165   9.883
 1374SOL     OW 6018   4.267   3.619  13.763
 1374SOL    HW1 6019   4.272   3.524  13.761
 1374SOL    HW2 6020   4.357   3.648  13.747
 1375SOL     OW 6021   8.027   2.316  10.455
 1375SOL    HW1 6022   8.096   2.383  10.456
 1375SOL    HW2 6023   7.952   2.358  10.498
 1376SOL     OW 6024   3.653   0.862   7.454
 1376SOL    HW1 6025   3.676   0.810   7.531
 1376SOL    HW2 6026   3.558   0.851   7.445
 1377SOL     OW 6027  13.402  10.297  10.892
 1377SOL    HW1 6028  13.414  10.374  10.947
 1377SOL    HW2 6029  13.490  10.260  10.881
 1378SOL     OW 6030   7.563   5.402   3.168
 1378SOL    HW1 6031   7.641   5.456   3.151
 1378SOL    HW2 6032   7.515   5.404   3.085
 1379SOL     OW 6033   7.571   4.709  11.787
 1379SOL    HW1 6034   7.630   4.761  11.733
 1379SOL    HW2 6035   7.624   4.679  11.859
 1380SOL     OW 6036   0.391   9.693  12.517
 1380SOL    HW1 6037   0.396   9.785  12.543
 1380SOL    HW2 6038   0.357   9.648  12.594
 1381SOL     OW 6039  11.103   6.291   1.287
 1381SOL    HW1 6040  11.053   6.299   1.368
 1381SOL    HW2 6041  11.192   6.271   1.315
 1382SOL     OW 6042  12.636   3.525   2.453
 1382SOL    HW1 6043  12.647   3.619   2.463
 1382SOL    HW2 6044  12.561   3.503   2.508
 1383SOL     OW 6045   0.475   9.872  10.085
 1383SOL    HW1 6046   0.391   9.892  10.127
 1383SOL    HW2 6047   0.483   9.937  10.015
 1384SOL     OW 6048   3.944  11.371   4.358
 1384SOL    HW1 6049   4.026  11.418   4.371
 1384SOL    HW2 6050   3.956  11.288   4.403
 1385SOL     OW 6051   6.720   8.617   9.082
 1385SOL    HW1 6052   6.803   8.665   9.080
 1385SOL    HW2 6053   6.680   8.642   9.165
 1386SOL     OW 6054  14.259  11.883  14.070
 1386SOL    HW1 6055  14.311  11.927  14.002
 1386SOL    HW2 6056  14.248  11.950  14.137
 1387SOL     OW 6057   0.927   1.778  13.387
 1387SOL    HW1 6058   0.911   1.835  13.312
 1387SOL    HW2 6059   1.014   1.803  13.418
 1388SOL     OW 6060   2.224   8.146   9.005
 1388SOL    HW1 6061   2.249   8.087   9.076
 1388SOL    HW2 6062   2.276   8.225   9.020
 1389SOL     OW 6063   0.084  11.655  10.491
 1389SOL    HW1 6064   0.033  11.587  10.535
 1389SOL    HW2 6065   0.175  11.636  10.513
 1390SOL     OW 6066   4.540  14.641   3.871
 1390SOL    HW1 6067   4.575  14.598   3.793
 1390SOL    HW2 6068   4.597  14.717   3.883
 1391SOL     OW 6069  13.716  11.519   0.355
 1391SOL    HW1 6070  13.681  11.466   0.282
 1391SOL    HW2 6071  13.650  11.511   0.424
 1392SOL     OW 6072  13.085   7.610   5.802
 1392SOL    HW1 6073  13.051   7.662   5.729
 1392SOL    HW2 6074  13.081   7.519   5.771
 1393SOL     OW 6075  13.700   9.139   6.383
 1393SOL    HW1 6076  13.727   9.104   6.298
 1393SOL    HW2 6077  13.626   9.084   6.409
 1394SOL     OW 6078  11.586   7.794   4.332
 1394SOL    HW1 6079  11.630   7.777   4.249
 1394SOL    HW2 6080  11.658   7.797   4.396
 1395SOL     OW 6081   9.864  13.091   7.223
 1395SOL    HW1 6082   9.838  13.056   7.138
 1395SOL    HW2 6083   9.934  13.031   7.252
 1396SOL     OW 6084   7.953   9.803  13.463
 1396SOL    HW1 6085   7.911   9.889  13.461
 1396SOL    HW2 6086   7.977   9.790  13.554
 1397SOL     OW 6087  10.096   6.981   5.135
 1397SOL    HW1 6088  10.028   6.917   5.157
 1397SOL    HW2 6089  10.052   7.044   5.077
 1398SOL     OW 6090  13.373   4.423   9.259
 1398SOL    HW1 6091  13.323   4.421   9.177
 1398SOL    HW2 6092  13.306   4.430   9.327
 1399SOL     OW 6093   3.288   7.535   8.584
 1399SOL    HW1 6094   3.287   7.593   8.508
 1399SOL    HW2 6095   3.251   7.588   8.655
 1400SOL     OW 6096   4.736  14.659   4.978
 1400SOL    HW1 6097   4.813  14.702   4.941
 1400SOL    HW2 6098   4.771  14.604   5.048
 1401SOL     OW 6099  10.379   1.733   6.830
 1401SOL    HW1 6100  10.295   1.744   6.785
 1401SOL    HW2 6101  10.428   1.673   6.774
 1402SOL     OW 6102  11.289   0.160   7.541
 1402SOL    HW1 6103  11.286   0.126   7.452
 1402SOL    HW2 6104  11.206   0.206   7.552
 1403SOL     OW 6105  11.220   9.358  11.062
 1403SOL    HW1 6106  11.231   9.293  10.993
 1403SOL    HW2 6107  11.269   9.322  11.137
 1404SOL     OW 6108  12.730   5.548   8.411
 1404SOL    HW1 6109  12.757   5.492   8.338
 1404SOL    HW2 6110  12.740   5.637   8.378
 1405SOL     OW 6111  14.502  14.823   2.079
 1405SOL    HW1 6112  14.590  14.799   2.048
 1405SOL    HW2 6113  14.460  14.740   2.098
 1406SOL     OW 6114   1.396   1.061  12.802
 1406SOL    HW1 6115   1.329   0.993  12.794
 1406SOL    HW2 6116   1.399   1.080  12.896
 1407SOL     OW 6117   7.373   0.704   5.033
 1407SOL    HW1 6118   7.338   0.657   5.109
 1407SOL    HW2 6119   7.405   0.787   5.068
 1408SOL     OW 6120   2.022   3.401  12.923
 1408SOL    HW1 6121   2.087   3.461  12.888
 1408SOL    HW2 6122   2.064   3.363  13.001
 1409SOL     OW 6123   8.594  12.699   6.149
 1409SOL    HW1 6124   8.566  12.784   6.184
 1409SOL    HW2 6125   8.690  12.703   6.149
 1410SOL     OW 6126   2.487   1.769   3.976
 1410SOL    HW1 6127   2.491   1.780   3.881
 1410SOL    HW2 6128   2.396   1.748   3.994
 1411SOL     OW 6129   5.310  11.389   3.086
 1411SOL    HW1 6130   5.396  11.415   3.052
 1411SOL    HW2 6131   5.250  11.454   3.050
 1412SOL     OW 6132  13.138  13.567  11.597
 1412SOL    HW1 6133  13.195  13.643  11.601
 1412SOL    HW2 6134  13.054  13.598  11.631
 1413SOL     OW 6135   5.144   8.875  13.391
 1413SOL    HW1 6136   5.170   8.939  13.456
 1413SOL    HW2 6137   5.223   8.823  13.375
 1414SOL     OW 6138  12.109   7.799  14.580
 1414SOL    HW1 6139  12.051   7.861  14.536
 1414SOL    HW2 6140  12.165   7.764  14.510
 1415SOL     OW 6141   2.462   0.173   7.226
 1415SOL    HW1 6142   2.504   0.213   7.150
 1415SOL    HW2 6143   2.451   0.081   7.201
 1416SOL     OW 6144  13.100  14.298   4.625
 1416SOL    HW1 6145  13.096  14.370   4.688
 1416SOL    HW2 6146  13.008  14.282   4.602
 1417SOL     OW 6147   7.746   5.298   5.152
 1417SOL    HW1 6148   7.768   5.365   5.087
 1417SOL    HW2 6149   7.685   5.241   5.106
 1418SOL     OW 6150  12.311   8.949   2.290
 1418SOL    HW1 6151  12.265   8.867   2.274
 1418SOL    HW2 6152  12.349   8.972   2.205
 1419SOL     OW 6153   0.449   5.181   8.075
 1419SOL    HW1 6154   0.505   5.248   8.036
 1419SOL    HW2 6155   0.444   5.205   8.168
 1420SOL     OW 6156   9.199   7.637   1.860
 1420SOL    HW1 6157   9.253   7.639   1.781
 1420SOL    HW2 6158   9.163   7.725   1.867
 1421SOL     OW 6159   2.523   0.999   5.386
 1421SOL    HW1 6160   2.590   0.933   5.366
 1421SOL    HW2 6161   2.460   0.991   5.315
 1422SOL     OW 6162   0.387   1.014   7.318
 1422SOL    HW1 6163   0.467   1.061   7.294
 1422SOL    HW2 6164   0.355   0.978   7.235
 1423SOL     OW 6165   8.694  10.760   0.863
 1423SOL    HW1 6166   8.667  10.724   0.947
 1423SOL    HW2 6167   8.773  10.712   0.840
 1424SOL     OW 6168  11.740   9.590  11.881
 1424SOL    HW1 6169  11.680   9.537  11.933
 1424SOL    HW2 6170  11.791   9.527  11.831
 1425SOL     OW 6171  11.427   5.718   3.508
 1425SOL    HW1 6172  11.473   5.801   3.499
 1425SOL    HW2 6173  11.384   5.704   3.424
 1426SOL     OW 6174  11.834   4.081  13.653
 1426SOL    HW1 6175  11.796   4.154  13.701
 1426SOL    HW2 6176  11.900   4.045  13.712
 1427SOL     OW 6177   5.406   5.124   5.813
 1427SOL    HW1 6178   5.388   5.071   5.891
 1427SOL    HW2 6179   5.375   5.211   5.837
 1428SOL     OW 6180   6.939   6.020   8.372
 1428SOL    HW1 6181   6.972   6.046   8.287
 1428SOL    HW2 6182   7.014   6.030   8.431
 1429SOL     OW 6183  13.866   1.023  13.698
 1429SOL    HW1 6184  13.883   1.107  13.740
 1429SOL    HW2 6185  13.786   1.036  13.648
 1430SOL     OW 6186   6.457   1.156  12.492
 1430SOL    HW1 6187   6.534   1.203  12.526
 1430SOL    HW2 6188   6.385   1.218  12.502
 1431SOL     OW 6189  14.277   3.784   8.633
 1431SOL    HW1 6190  14.198   3.830   8.661
 1431SOL    HW2 6191  14.269   3.697   8.672
 1432SOL     OW 6192  12.798  12.875  12.559
 1432SOL    HW1 6193  12.716  12.869  12.509
 1432SOL    HW2 6194  12.770  12.880  12.651
 1433SOL     OW 6195   3.700  12.240  11.583
 1433SOL    HW1 6196   3.621  12.284  11.551
 1433SOL    HW2 6197   3.693  12.243  11.678
 1434SOL     OW 6198   4.771   7.895   7.009
 1434SOL    HW1 6199   4.794   7.987   6.992
 1434SOL    HW2 6200   4.780   7.885   7.103
 1435SOL     OW 6201   3.134   3.421  13.406
 1435SOL    HW1 6202   3.074   3.387  13.472
 1435SOL    HW2 6203   3.213   3.445  13.454
 1436SOL     OW 6204   7.829   3.221   6.003
 1436SOL    HW1 6205   7.802   3.313   5.998
 1436SOL    HW2 6206   7.864   3.212   6.092
 1437SOL     OW 6207   7.733   6.130   6.746
 1437SOL    HW1 6208   7.811   6.163   6.701
 1437SOL    HW2 6209   7.660   6.157   6.690
 1438SOL     OW 6210   5.960   5.200   5.913
 1438SOL    HW1 6211   5.908   5.187   5.993
 1438SOL    HW2 6212   6.026   5.130   5.915
 1439SOL     OW 6213   8.203   0.151   9.444
 1439SOL    HW1 6214   8.146   0.139   9.368
 1439SOL    HW2 6215   8.181   0.077   9.501
 1440SOL     OW 6216   1.550   7.675   9.167
 1440SOL    HW1 6217   1.491   7.714   9.232
 1440SOL    HW2 6218   1.598   7.608   9.216
 1441SOL     OW 6219   1.969   6.644  11.616
 1441SOL    HW1 6220   1.880   6.626  11.584
 1441SOL    HW2 6221   2.025   6.589  11.562
 1442SOL     OW 6222   5.163   6.888   2.274
 1442SOL    HW1 6223   5.216   6.821   2.231
 1442SOL    HW2 6224   5.179   6.968   2.225
 1443SOL     OW 6225   6.922  14.718  10.253
 1443SOL    HW1 6226   6.945  14.629  10.226
 1443SOL    HW2 6227   6.856  14.746  10.190
 1444SOL     OW 6228   3.356   2.133   2.625
 1444SOL    HW1 6229   3.289   2.088   2.677
 1444SOL    HW2 6230   3.318   2.218   2.606
 1445SOL     OW 6231   9.305   6.783   8.368
 1445SOL    HW1 6232   9.234   6.846   8.359
 1445SOL    HW2 6233   9.366   6.805   8.298
 1446SOL     OW 6234   9.015   7.902  11.204
 1446SOL    HW1 6235   9.051   7.878  11.290
 1446SOL    HW2 6236   8.923   7.877  11.209
 1447SOL     OW 6237   6.526   5.531  10.214
 1447SOL    HW1 6238   6.469   5.559  10.286
 1447SOL    HW2 6239   6.513   5.598  10.147
 1448SOL     OW 6240  11.981  12.279   6.897
 1448SOL    HW1 6241  11.932  12.361   6.901
 1448SOL    HW2 6242  12.065  12.300   6.938
 1449SOL     OW 6243   3.257   7.364  14.203
 1449SOL    HW1 6244   3.334   7.421  14.209
 1449SOL    HW2 6245   3.211   7.395  14.125
 1450SOL     OW 6246  11.508   5.100  11.283
 1450SOL    HW1 6247  11.541   5.171  11.337
 1450SOL    HW2 6248  11.558   5.107  11.201
 1451SOL     OW 6249   9.513   7.870   9.182
 1451SOL    HW1 6250   9.420   7.850   9.190
 1451SOL    HW2 6251   9.517   7.943   9.120
 1452SOL     OW 6252  10.899  10.702  12.749
 1452SOL    HW1 6253  10.959  10.659  12.811
 1452SOL    HW2 6254  10.840  10.752  12.805
 1453SOL     OW 6255   8.924   5.764   9.457
 1453SOL    HW1 6256   8.868   5.758   9.534
 1453SOL    HW2 6257   8.963   5.851   9.462
 1454SOL     OW 6258  12.118  12.393   2.507
 1454SOL    HW1 6259  12.069  12.423   2.584
 1454SOL    HW2 6260  12.134  12.300   2.523
 1455SOL     OW 6261   0.067   6.620   0.332
 1455SOL    HW1 6262   0.113   6.638   0.415
 1455SOL    HW2 6263   0.003   6.690   0.324
 1456SOL     OW 6264  12.295   7.857   8.499
 1456SOL    HW1 6265  12.343   7.802   8.560
 1456SOL    HW2 6266  12.222   7.803   8.470
 1457SOL     OW 6267   7.275   5.983  12.594
 1457SOL    HW1 6268   7.277   6.078  12.583
 1457SOL    HW2 6269   7.352   5.952  12.546
 1458SOL     OW 6270   7.126  14.725  11.907
 1458SOL    HW1 6271   7.098  14.809  11.873
 1458SOL    HW2 6272   7.153  14.675  11.830
 1459SOL     OW 6273   7.910   5.943   5.846
 1459SOL    HW1 6274   7.820   5.963   5.873
 1459SOL    HW2 6275   7.951   5.905   5.923
 1460SOL     OW 6276   0.162  11.459   8.832
 1460SOL    HW1 6277   0.094  11.490   8.772
 1460SOL    HW2 6278   0.142  11.366   8.845
 1461SOL     OW 6279   0.463  10.819  13.830
 1461SOL    HW1 6280   0.418  10.747  13.874
 1461SOL    HW2 6281   0.516  10.777  13.763
 1462SOL     OW 6282   5.706   9.728  11.988
 1462SOL    HW1 6283   5.652   9.660  12.027
 1462SOL    HW2 6284   5.765   9.682  11.929
 1463SOL     OW 6285   4.958  11.529   7.514
 1463SOL    HW1 6286   5.016  11.604   7.500
 1463SOL    HW2 6287   4.962  11.480   7.432
 1464SOL     OW 6288   9.892  14.065   6.194
 1464SOL    HW1 6289   9.890  13.994   6.129
 1464SOL    HW2 6290   9.973  14.113   6.174
 1465SOL     OW 6291  10.758  14.576   8.877
 1465SOL    HW1 6292  10.828  14.597   8.815
 1465SOL    HW2 6293  10.724  14.492   8.848
 1466SOL     OW 6294   2.482  13.957  12.957
 1466SOL    HW1 6295   2.523  13.936  13.040
 1466SOL    HW2 6296   2.554  13.958  12.894
 1467SOL     OW 6297  11.159   4.179  12.202
 1467SOL    HW1 6298  11.175   4.088  12.177
 1467SOL    HW2 6299  11.246   4.212  12.226
 1468SOL     OW 6300   7.021  13.655   2.065
 1468SOL    HW1 6301   6.962  13.689   1.998
 1468SOL    HW2 6302   7.101  13.706   2.055
 1469SOL     OW 6303   7.274   3.822   2.456
 1469SOL    HW1 6304   7.292   3.772   2.377
 1469SOL    HW2 6305   7.240   3.758   2.518
 1470SOL     OW 6306  11.568   9.584  14.103
 1470SOL    HW1 6307  11.596   9.541  14.183
 1470SOL    HW2 6308  11.648   9.597  14.053
 1471SOL     OW 6309  12.161   4.382   3.397
 1471SOL    HW1 6310  12.106   4.348   3.467
 1471SOL    HW2 6311  12.171   4.308   3.337
 1472SOL     OW 6312  12.228   8.171   0.995
 1472SOL    HW1 6313  12.292   8.168   0.924
 1472SOL    HW2 6314  12.158   8.113   0.966
 1473SOL     OW 6315   7.933   5.742   5.669
 1473SOL    HW1 6316   7.889   5.707   5.747
 1473SOL    HW2 6317   7.959   5.831   5.694
 1474SOL     OW 6318   2.674   4.282  10.944
 1474SOL    HW1 6319   2.726   4.228  11.004
 1474SOL    HW2 6320   2.635   4.349  11.000
 1475SOL     OW 6321   4.946   6.899   4.298
 1475SOL    HW1 6322   4.864   6.948   4.294
 1475SOL    HW2 6323   4.931   6.822   4.244
 1476SOL     OW 6324   2.246  10.995   7.224
 1476SOL    HW1 6325   2.278  10.905   7.215
 1476SOL    HW2 6326   2.168  10.988   7.279
 1477SOL     OW 6327  10.336   3.540  12.727
 1477SOL    HW1 6328  10.351   3.613  12.666
 1477SOL    HW2 6329  10.363   3.462  12.679
 1478SOL     OW 6330   5.781   7.790  12.118
 1478SOL    HW1 6331   5.791   7.742  12.200
 1478SOL    HW2 6332   5.816   7.731  12.051
 1479SOL     OW 6333  12.549  10.694   3.989
 1479SOL    HW1 6334  12.525  10.742   4.068
 1479SOL    HW2 6335  12.627  10.738   3.956
 1480SOL     OW 6336   7.740  13.578  11.380
 1480SOL    HW1 6337   7.662  13.593  11.433
 1480SOL    HW2 6338   7.796  13.523  11.436
 1481SOL     OW 6339   9.834  14.036   4.532
 1481SOL    HW1 6340   9.808  14.091   4.606
 1481SOL    HW2 6341   9.808  13.947   4.557
 1482SOL     OW 6342   3.505  14.867   4.501
 1482SOL    HW1 6343   3.471  14.795   4.449
 1482SOL    HW2 6344   3.429   0.054   4.516
 1483SOL     OW 6345   8.439   7.319   7.625
 1483SOL    HW1 6346   8.459   7.344   7.715
 1483SOL    HW2 6347   8.523   7.288   7.590
 1484SOL     OW 6348   2.785   2.773   6.967
 1484SOL    HW1 6349   2.809   2.681   6.973
 1484SOL    HW2 6350   2.692   2.775   6.990
 1485SOL     OW 6351   2.957   2.232   3.353
 1485SOL    HW1 6352   3.007   2.151   3.347
 1485SOL    HW2 6353   2.865   2.204   3.350
 1486SOL     OW 6354  11.432   5.864   7.715
 1486SOL    HW1 6355  11.359   5.804   7.702
 1486SOL    HW2 6356  11.465   5.881   7.626
 1487SOL     OW 6357   9.681   0.384  12.561
 1487SOL    HW1 6358   9.658   0.292  12.551
 1487SOL    HW2 6359   9.759   0.383  12.616
 1488SOL     OW 6360  10.325   6.409  10.366
 1488SOL    HW1 6361  10.319   6.345  10.436
 1488SOL    HW2 6362  10.246   6.396  10.314
 1489SOL     OW 6363   2.173  14.069  13.135
 1489SOL    HW1 6364   2.244  14.125  13.103
 1489SOL    HW2 6365   2.101  14.129  13.154
 1490SOL     OW 6366   1.500   4.590  12.643
 1490SOL    HW1 6367   1.573   4.640  12.678
 1490SOL    HW2 6368   1.499   4.612  12.549
 1491SOL     OW 6369   1.239  13.173   1.832
 1491SOL    HW1 6370   1.298  13.124   1.890
 1491SOL    HW2 6371   1.241  13.262   1.866
 1492SOL     OW 6372   7.421   0.255   6.773
 1492SOL    HW1 6373   7.410   0.306   6.853
 1492SOL    HW2 6374   7.496   0.199   6.791
 1493SOL     OW 6375   1.694   5.654   3.260
 1493SOL    HW1 6376   1.748   5.589   3.304
 1493SOL    HW2 6377   1.745   5.735   3.266
 1494SOL     OW 6378  14.443   1.611   9.356
 1494SOL    HW1 6379  14.435   1.671   9.430
 1494SOL    HW2 6380  14.537   1.613   9.334
 1495SOL     OW 6381   4.407   7.352  13.023
 1495SOL    HW1 6382   4.329   7.408  13.022
 1495SOL    HW2 6383   4.409   7.317  13.112
 1496SOL     OW 6384   4.189   5.836  13.084
 1496SOL    HW1 6385   4.283   5.854  13.077
 1496SOL    HW2 6386   4.148   5.922  13.089
 1497SOL     OW 6387   1.565   6.659   0.650
 1497SOL    HW1 6388   1.496   6.709   0.605
 1497SOL    HW2 6389   1.526   6.572   0.664
 1498SOL     OW 6390   5.627  11.095  10.062
 1498SOL    HW1 6391   5.679  11.104  10.142
 1498SOL    HW2 6392   5.691  11.069   9.996
 1499SOL     OW 6393   1.606   0.593   7.511
 1499SOL    HW1 6394   1.678   0.617   7.570
 1499SOL    HW2 6395   1.592   0.671   7.457
 1500SOL     OW 6396   3.900  13.325   8.004
 1500SOL    HW1 6397   3.861  13.331   8.091
 1500SOL    HW2 6398   3.951  13.406   7.995
 1501SOL     OW 6399   7.513  13.234   5.488
 1501SOL    HW1 6400   7.581  13.231   5.421
 1501SOL    HW2 6401   7.482  13.144   5.495
 1502SOL     OW 6402  13.754   4.919  13.811
 1502SOL    HW1 6403  13.773   4.950  13.900
 1502SOL    HW2 6404  13.742   4.999  13.760
 1503SOL     OW 6405   8.008  13.737   2.769
 1503SOL    HW1 6406   8.050  13.815   2.732
 1503SOL    HW2 6407   7.931  13.770   2.814
 1504SOL     OW 6408   8.690   3.241   5.482
 1504SOL    HW1 6409   8.630   3.253   5.408
 1504SOL    HW2 6410   8.775   3.269   5.449
 1505SOL     OW 6411   2.726  13.906  12.751
 1505SOL    HW1 6412   2.796  13.878  12.692
 1505SOL    HW2 6413   2.759  13.986  12.792
 1506SOL     OW 6414   7.939  14.056   6.427
 1506SOL    HW1 6415   7.941  14.032   6.520
 1506SOL    HW2 6416   7.847  14.077   6.410
 1507SOL     OW 6417   8.480   1.496  11.217
 1507SOL    HW1 6418   8.496   1.470  11.307
 1507SOL    HW2 6419   8.484   1.592  11.219
 1508SOL     OW 6420   5.384  14.600   3.071
 1508SOL    HW1 6421   5.373  14.508   3.049
 1508SOL    HW2 6422   5.455  14.630   3.014
 1509SOL     OW 6423  11.518   6.475  11.469
 1509SOL    HW1 6424  11.487   6.533  11.538
 1509SOL    HW2 6425  11.442   6.464  11.411
 1510SOL     OW 6426   9.963   8.717   8.026
 1510SOL    HW1 6427   9.920   8.778   8.086
 1510SOL    HW2 6428   9.892   8.676   7.978
 1511SOL     OW 6429   2.903  14.841  13.296
 1511SOL    HW1 6430   2.831  14.795  13.339
 1511SOL    HW2 6431   2.865   0.004  13.215
 1512SOL     OW 6432   1.571   0.972  12.438
 1512SOL    HW1 6433   1.604   0.913  12.505
 1512SOL    HW2 6434   1.477   0.954  12.434
 1513SOL     OW 6435  13.168  10.041   1.360
 1513SOL    HW1 6436  13.133  10.027   1.272
 1513SOL    HW2 6437  13.106  10.102   1.401
 1514SOL     OW 6438   4.192   7.584   0.148
 1514SOL    HW1 6439   4.124   7.530   0.108
 1514SOL    HW2 6440   4.187   7.564   0.242
 1515SOL     OW 6441   5.046   8.964  10.102
 1515SOL    HW1 6442   5.128   8.975  10.054
 1515SOL    HW2 6443   4.981   9.012  10.050
 1516SOL     OW 6444  13.127   8.183  12.409
 1516SOL    HW1 6445  13.034   8.161  12.400
 1516SOL    HW2 6446  13.141   8.255  12.347
 1517SOL     OW 6447   9.156  11.735   4.995
 1517SOL    HW1 6448   9.075  11.685   5.004
 1517SOL    HW2 6449   9.208  11.710   5.071
 1518SOL     OW 6450  10.729   1.162   7.725
 1518SOL    HW1 6451  10.762   1.242   7.683
 1518SOL    HW2 6452  10.654   1.136   7.670
 1519SOL     OW 6453   3.570   4.065  11.111
 1519SOL    HW1 6454   3.577   4.117  11.031
 1519SOL    HW2 6455   3.571   3.974  11.081
 1520SOL     OW 6456   4.366   6.902  11.833
 1520SOL    HW1 6457   4.273   6.893  11.852
 1520SOL    HW2 6458   4.389   6.988  11.867
 1521SOL     OW 6459  10.579   2.599   6.109
 1521SOL    HW1 6460  10.486   2.575   6.111
 1521SOL    HW2 6461  10.580   2.685   6.066
 1522SOL     OW 6462   1.310   3.440   8.075
 1522SOL    HW1 6463   1.280   3.405   8.159
 1522SOL    HW2 6464   1.324   3.362   8.021
 1523SOL     OW 6465   6.473  12.435  12.438
 1523SOL    HW1 6466   6.520  12.388  12.368
 1523SOL    HW2 6467   6.539  12.450  12.506
 1524SOL     OW 6468   8.838   4.361  11.152
 1524SOL    HW1 6469   8.833   4.425  11.224
 1524SOL    HW2 6470   8.905   4.299  11.180
 1525SOL     OW 6471   0.894   0.405   5.138
 1525SOL    HW1 6472   0.880   0.457   5.217
 1525SOL    HW2 6473   0.987   0.383   5.140
 1526SOL     OW 6474   5.944   3.057   7.249
 1526SOL    HW1 6475   5.960   3.026   7.160
 1526SOL    HW2 6476   5.954   2.980   7.304
 1527SOL     OW 6477   8.756   8.064   8.210
 1527SOL    HW1 6478   8.775   8.148   8.250
 1527SOL    HW2 6479   8.687   8.026   8.264
 1528SOL     OW 6480  11.000  12.142  13.706
 1528SOL    HW1 6481  10.928  12.177  13.758
 1528SOL    HW2 6482  10.961  12.122  13.621
 1529SOL     OW 6483   6.097  12.342  14.295
 1529SOL    HW1 6484   6.186  12.366  14.268
 1529SOL    HW2 6485   6.080  12.259  14.251
 1530SOL     OW 6486   0.874   3.814  13.456
 1530SOL    HW1 6487   0.817   3.813  13.533
 1530SOL    HW2 6488   0.816   3.795  13.382
 1531SOL     OW 6489  10.072   8.299   7.952
 1531SOL    HW1 6490  10.036   8.232   8.010
 1531SOL    HW2 6491  10.068   8.380   8.003
 1532SOL     OW 6492   8.660   0.431  14.796
 1532SOL    HW1 6493   8.697   0.476   0.003
 1532SOL    HW2 6494   8.684   0.339  14.809
 1533SOL     OW 6495   1.660   2.855   5.724
 1533SOL    HW1 6496   1.734   2.838   5.666
 1533SOL    HW2 6497   1.591   2.888   5.666
 1534SOL     OW 6498  14.245  12.765   2.710
 1534SOL    HW1 6499  14.271  12.794   2.622
 1534SOL    HW2 6500  14.164  12.716   2.696
 1535SOL     OW 6501   8.302   6.285  13.888
 1535SOL    HW1 6502   8.386   6.241  13.880
 1535SOL    HW2 6503   8.243   6.219  13.925
 1536SOL     OW 6504   6.177   1.833   6.691
 1536SOL    HW1 6505   6.126   1.856   6.613
 1536SOL    HW2 6506   6.247   1.898   6.694
 1537SOL     OW 6507   4.512  11.378  10.327
 1537SOL    HW1 6508   4.459  11.348  10.401
 1537SOL    HW2 6509   4.553  11.299  10.293
 1538SOL     OW 6510   7.742   3.108  10.792
 1538SOL    HW1 6511   7.788   3.191  10.804
 1538SOL    HW2 6512   7.765   3.056  10.869
 1539SOL     OW 6513   3.695   8.224  13.741
 1539SOL    HW1 6514   3.732   8.293  13.796
 1539SOL    HW2 6515   3.685   8.265  13.655
 1540SOL     OW 6516  12.762  14.455  14.602
 1540SOL    HW1 6517  12.684  14.508  14.620
 1540SOL    HW2 6518  12.754  14.380  14.660
 1541SOL     OW 6519   7.264  10.057   0.526
 1541SOL    HW1 6520   7.336  10.092   0.473
 1541SOL    HW2 6521   7.229   9.985   0.474
 1542SOL     OW 6522   6.809   3.912   1.183
 1542SOL    HW1 6523   6.831   3.998   1.147
 1542SOL    HW2 6524   6.888   3.884   1.230
 1543SOL     OW 6525  12.191   2.891  14.260
 1543SOL    HW1 6526  12.221   2.803  14.237
 1543SOL    HW2 6527  12.270   2.937  14.289
 1544SOL     OW 6528  11.020  13.121   0.407
 1544SOL    HW1 6529  11.096  13.064   0.394
 1544SOL    HW2 6530  11.002  13.115   0.500
 1545SOL     OW 6531   5.598   7.420   6.821
 1545SOL    HW1 6532   5.591   7.385   6.732
 1545SOL    HW2 6533   5.533   7.370   6.872
 1546SOL     OW 6534  13.790   9.165  10.262
 1546SOL    HW1 6535  13.881   9.173  10.289
 1546SOL    HW2 6536  13.792   9.104  10.188
 1547SOL     OW 6537   2.798   1.908  13.174
 1547SOL    HW1 6538   2.851   1.984  13.148
 1547SOL    HW2 6539   2.770   1.869  13.092
 1548SOL     OW 6540  10.630  11.527   0.395
 1548SOL    HW1 6541  10.708  11.540   0.449
 1548SOL    HW2 6542  10.611  11.434   0.401
 1549SOL     OW 6543  13.271  13.472   9.782
 1549SOL    HW1 6544  13.268  13.551   9.727
 1549SOL    HW2 6545  13.291  13.401   9.721
 1550SOL     OW 6546  11.958  13.483   2.883
 1550SOL    HW1 6547  11.936  13.393   2.858
 1550SOL    HW2 6548  11.890  13.508   2.945
 1551SOL     OW 6549  13.662  14.529   0.014
 1551SOL    HW1 6550  13.569  14.507   0.025
 1551SOL    HW2 6551  13.708  14.451   0.044
 1552SOL     OW 6552  10.081  12.829  13.403
 1552SOL    HW1 6553  10.009  12.819  13.341
 1552SOL    HW2 6554  10.049  12.788  13.484
 1553SOL     OW 6555   0.532  10.578   8.113
 1553SOL    HW1 6556   0.448  10.624   8.120
 1553SOL    HW2 6557   0.507  10.487   8.095
 1554SOL     OW 6558   1.219   9.343   8.338
 1554SOL    HW1 6559   1.138   9.352   8.387
 1554SOL    HW2 6560   1.228   9.249   8.323
 1555SOL     OW 6561   7.719   3.548   5.067
 1555SOL    HW1 6562   7.737   3.461   5.030
 1555SOL    HW2 6563   7.644   3.580   5.016
 1556SOL     OW 6564   4.599   9.400   8.838
 1556SOL    HW1 6565   4.610   9.421   8.931
 1556SOL    HW2 6566   4.522   9.344   8.835
 1557SOL     OW 6567  11.998  10.414   1.328
 1557SOL    HW1 6568  11.963  10.439   1.413
 1557SOL    HW2 6569  12.074  10.360   1.348
 1558SOL     OW 6570  12.676   6.554   2.897
 1558SOL    HW1 6571  12.683   6.463   2.869
 1558SOL    HW2 6572  12.757   6.595   2.868
 1559SOL     OW 6573   6.557   2.179   3.917
 1559SOL    HW1 6574   6.529   2.219   4.000
 1559SOL    HW2 6575   6.610   2.104   3.944
 1560SOL     OW 6576  13.454   2.954  10.145
 1560SOL    HW1 6577  13.378   2.999  10.183
 1560SOL    HW2 6578  13.474   3.004  10.066
 1561SOL     OW 6579   6.752  14.738   3.698
 1561SOL    HW1 6580   6.745  14.824   3.741
 1561SOL    HW2 6581   6.751  14.675   3.770
 1562SOL     OW 6582  12.151   2.435   8.798
 1562SOL    HW1 6583  12.098   2.513   8.810
 1562SOL    HW2 6584  12.216   2.460   8.731
 1563SOL     OW 6585   2.787  14.314   2.062
 1563SOL    HW1 6586   2.822  14.227   2.079
 1563SOL    HW2 6587   2.839  14.347   1.988
 1564SOL     OW 6588   0.528   1.754   2.440
 1564SOL    HW1 6589   0.468   1.782   2.509
 1564SOL    HW2 6590   0.475   1.753   2.360
 1565SOL     OW 6591  13.742   0.828  11.788
 1565SOL    HW1 6592  13.763   0.763  11.721
 1565SOL    HW2 6593  13.710   0.777  11.862
 1566SOL     OW 6594   6.903   5.226  14.812
 1566SOL    HW1 6595   6.851   5.304  14.795
 1566SOL    HW2 6596   6.929   5.233   0.034
 1567SOL     OW 6597   0.067  12.582  11.990
 1567SOL    HW1 6598   0.061  12.516  11.922
 1567SOL    HW2 6599   0.026  12.541  12.067
 1568SOL     OW 6600   9.040  13.507   9.478
 1568SOL    HW1 6601   9.058  13.442   9.410
 1568SOL    HW2 6602   9.070  13.466   9.559
 1569SOL     OW 6603  14.093   9.644  10.057
 1569SOL    HW1 6604  14.155   9.714  10.035
 1569SOL    HW2 6605  14.070   9.605   9.973
 1570SOL     OW 6606  13.500   8.201   1.566
 1570SOL    HW1 6607  13.522   8.174   1.655
 1570SOL    HW2 6608  13.495   8.120   1.517
 1571SOL     OW 6609   5.176   0.814   6.379
 1571SOL    HW1 6610   5.188   0.896   6.427
 1571SOL    HW2 6611   5.149   0.751   6.446
 1572SOL     OW 6612   2.287   1.983  11.785
 1572SOL    HW1 6613   2.287   1.888  11.776
 1572SOL    HW2 6614   2.372   2.011  11.751
 1573SOL     OW 6615  10.891   8.393  12.185
 1573SOL    HW1 6616  10.877   8.327  12.117
 1573SOL    HW2 6617  10.876   8.346  12.267
 1574SOL     OW 6618   6.746   0.503   6.150
 1574SOL    HW1 6619   6.807   0.431   6.166
 1574SOL    HW2 6620   6.801   0.574   6.118
 1575SOL     OW 6621   6.122   4.622   6.834
 1575SOL    HW1 6622   6.063   4.653   6.765
 1575SOL    HW2 6623   6.161   4.701   6.871
 1576SOL     OW 6624  14.724   4.956   4.576
 1576SOL    HW1 6625  14.630   4.953   4.593
 1576SOL    HW2 6626  14.752   4.864   4.582
 1577SOL     OW 6627   1.369  11.501   9.837
 1577SOL    HW1 6628   1.358  11.505   9.932
 1577SOL    HW2 6629   1.300  11.443   9.807
 1578SOL     OW 6630  12.028   5.947   4.581
 1578SOL    HW1 6631  11.966   5.960   4.653
 1578SOL    HW2 6632  12.110   5.923   4.625
 1579SOL     OW 6633  10.538   8.797   7.891
 1579SOL    HW1 6634  10.585   8.845   7.960
 1579SOL    HW2 6635  10.460   8.849   7.874
 1580SOL     OW 6636   7.981   4.710   7.057
 1580SOL    HW1 6637   7.985   4.722   7.152
 1580SOL    HW2 6638   7.887   4.710   7.037
 1581SOL     OW 6639  10.800   7.517  11.864
 1581SOL    HW1 6640  10.760   7.438  11.827
 1581SOL    HW2 6641  10.726   7.576  11.879
 1582SOL     OW 6642  11.697   1.478   6.483
 1582SOL    HW1 6643  11.777   1.438   6.449
 1582SOL    HW2 6644  11.724   1.565   6.513
 1583SOL     OW 6645   0.100   8.796   7.064
 1583SOL    HW1 6646   0.105   8.875   7.010
 1583SOL    HW2 6647   0.059   8.825   7.145
 1584SOL     OW 6648  12.190   5.293   0.007
 1584SOL    HW1 6649  12.258   5.359   0.021
 1584SOL    HW2 6650  12.238   5.212  14.859
 1585SOL     OW 6651   1.238   7.026  12.243
 1585SOL    HW1 6652   1.314   6.986  12.200
 1585SOL    HW2 6653   1.269   7.112  12.272
 1586SOL     OW 6654   6.350  12.820  11.757
 1586SOL    HW1 6655   6.349  12.909  11.721
 1586SOL    HW2 6656   6.272  12.779  11.721
 1587SOL     OW 6657   5.814  10.230   0.932
 1587SOL    HW1 6658   5.891  10.205   0.882
 1587SOL    HW2 6659   5.847  10.291   0.998
 1588SOL     OW 6660   3.099  11.657  14.120
 1588SOL    HW1 6661   3.068  11.665  14.030
 1588SOL    HW2 6662   3.133  11.567  14.126
 1589SOL     OW 6663  13.727   4.249   7.184
 1589SOL    HW1 6664  13.788   4.323   7.192
 1589SOL    HW2 6665  13.652   4.286   7.138
 1590SOL     OW 6666   4.685   3.581  12.461
 1590SOL    HW1 6667   4.640   3.500  12.439
 1590SOL    HW2 6668   4.614   3.641  12.486
 1591SOL     OW 6669  13.629   6.154   7.826
 1591SOL    HW1 6670  13.721   6.179   7.824
 1591SOL    HW2 6671  13.585   6.223   7.875
 1592SOL     OW 6672   9.625  10.228  12.520
 1592SOL    HW1 6673   9.530  10.219  12.519
 1592SOL    HW2 6674   9.653  10.195  12.434
 1593SOL     OW 6675   2.565   7.335  12.471
 1593SOL    HW1 6676   2.543   7.362  12.382
 1593SOL    HW2 6677   2.642   7.279  12.461
 1594SOL     OW 6678  12.162  10.847   5.953
 1594SOL    HW1 6679  12.068  10.865   5.955
 1594SOL    HW2 6680  12.201  10.921   5.999
 1595SOL     OW 6681   6.800  12.269  13.223
 1595SOL    HW1 6682   6.762  12.257  13.136
 1595SOL    HW2 6683   6.894  12.260  13.210
 1596SOL     OW 6684  12.844   7.620   3.766
 1596SOL    HW1 6685  12.925   7.581   3.733
 1596SOL    HW2 6686  12.871   7.706   3.800
 1597SOL     OW 6687  10.351  12.506   6.714
 1597SOL    HW1 6688  10.313  12.461   6.789
 1597SOL    HW2 6689  10.276  12.545   6.669
 1598SOL     OW 6690   4.631   5.369  11.214
 1598SOL    HW1 6691   4.555   5.320  11.184
 1598SOL    HW2 6692   4.641   5.345  11.306
 1599SOL     OW 6693   5.879  10.267  12.244
 1599SOL    HW1 6694   5.873  10.360  12.221
 1599SOL    HW2 6695   5.962  10.239  12.206
 1600SOL     OW 6696   8.843  10.858   8.558
 1600SOL    HW1 6697   8.823  10.766   8.540
 1600SOL    HW2 6698   8.871  10.859   8.649
 1601SOL     OW 6699   1.348   3.620  12.618
 1601SOL    HW1 6700   1.344   3.640  12.525
 1601SOL    HW2 6701   1.425   3.565  12.628
 1602SOL     OW 6702   5.250   9.986   3.029
 1602SOL    HW1 6703   5.326   9.928   3.034
 1602SOL    HW2 6704   5.207   9.961   2.947
 1603SOL     OW 6705  10.973  13.699   8.485
 1603SOL    HW1 6706  11.017  13.713   8.569
 1603SOL    HW2 6707  11.006  13.769   8.428
 1604SOL     OW 6708  11.749   0.585   3.308
 1604SOL    HW1 6709  11.677   0.627   3.261
 1604SOL    HW2 6710  11.725   0.591   3.400
 1605SOL     OW 6711  10.379   2.707   8.585
 1605SOL    HW1 6712  10.305   2.702   8.647
 1605SOL    HW2 6713  10.346   2.759   8.512
 1606SOL     OW 6714   5.134   0.979  12.363
 1606SOL    HW1 6715   5.199   1.045  12.385
 1606SOL    HW2 6716   5.104   1.004  12.275
 1607SOL     OW 6717   2.412   9.293   0.596
 1607SOL    HW1 6718   2.411   9.345   0.515
 1607SOL    HW2 6719   2.444   9.354   0.663
 1608SOL     OW 6720   1.852   9.052   6.082
 1608SOL    HW1 6721   1.941   9.016   6.071
 1608SOL    HW2 6722   1.795   8.986   6.044
 1609SOL     OW 6723   2.904   2.605  12.823
 1609SOL    HW1 6724   2.830   2.636  12.771
 1609SOL    HW2 6725   2.953   2.548  12.763
 1610SOL     OW 6726  14.844  13.097  10.101
 1610SOL    HW1 6727  14.808  13.174  10.144
 1610SOL    HW2 6728   0.001  13.127  10.014
 1611SOL     OW 6729  12.974   5.229   6.766
 1611SOL    HW1 6730  12.932   5.207   6.849
 1611SOL    HW2 6731  13.001   5.320   6.776
 1612SOL     OW 6732   2.014   6.929   9.538
 1612SOL    HW1 6733   1.925   6.903   9.563
 1612SOL    HW2 6734   2.038   6.995   9.602
 1613SOL     OW 6735   6.272  10.912   6.856
 1613SOL    HW1 6736   6.236  10.842   6.910
 1613SOL    HW2 6737   6.260  10.882   6.766
 1614SOL     OW 6738   2.350  14.268   3.572
 1614SOL    HW1 6739   2.366  14.343   3.515
 1614SOL    HW2 6740   2.420  14.206   3.552
 1615SOL     OW 6741   0.631   8.575   6.540
 1615SOL    HW1 6742   0.547   8.610   6.508
 1615SOL    HW2 6743   0.643   8.494   6.491
 1616SOL     OW 6744   6.547  14.812   4.719
 1616SOL    HW1 6745   6.606  14.815   4.795
 1616SOL    HW2 6746   6.491  14.736   4.736
 1617SOL     OW 6747   2.289   2.942  13.489
 1617SOL    HW1 6748   2.280   2.986  13.573
 1617SOL    HW2 6749   2.254   3.005  13.425
 1618SOL     OW 6750  14.026   7.284   6.692
 1618SOL    HW1 6751  14.048   7.289   6.599
 1618SOL    HW2 6752  13.952   7.345   6.702
 1619SOL     OW 6753   9.031   9.620  12.858
 1619SOL    HW1 6754   9.088   9.659  12.925
 1619SOL    HW2 6755   8.983   9.694  12.822
 1620SOL     OW 6756  10.173   6.807  11.455
 1620SOL    HW1 6757  10.103   6.843  11.399
 1620SOL    HW2 6758  10.157   6.847  11.540
 1621SOL     OW 6759   1.923  12.285  14.038
 1621SOL    HW1 6760   1.888  12.362  14.082
 1621SOL    HW2 6761   1.864  12.214  14.064
 1622SOL     OW 6762   3.277  11.190  14.366
 1622SOL    HW1 6763   3.235  11.162  14.285
 1622SOL    HW2 6764   3.366  11.157  14.360
 1623SOL     OW 6765   6.296   2.131   0.366
 1623SOL    HW1 6766   6.373   2.163   0.412
 1623SOL    HW2 6767   6.244   2.088   0.433
 1624SOL     OW 6768   5.196  13.457   8.114
 1624SOL    HW1 6769   5.217  13.365   8.103
 1624SOL    HW2 6770   5.101  13.460   8.122
 1625SOL     OW 6771   4.552   9.307  11.157
 1625SOL    HW1 6772   4.485   9.254  11.114
 1625SOL    HW2 6773   4.526   9.308  11.249
 1626SOL     OW 6774  14.469   7.958   5.673
 1626SOL    HW1 6775  14.377   7.935   5.688
 1626SOL    HW2 6776  14.492   8.015   5.746
 1627SOL     OW 6777   7.242  10.089   0.021
 1627SOL    HW1 6778   7.252  10.172   0.067
 1627SOL    HW2 6779   7.198  10.113  14.809
 1628SOL     OW 6780   7.607  10.706  11.739
 1628SOL    HW1 6781   7.597  10.612  11.751
 1628SOL    HW2 6782   7.687  10.728  11.786
 1629SOL     OW 6783  10.455   5.381   1.152
 1629SOL    HW1 6784  10.472   5.469   1.185
 1629SOL    HW2 6785  10.395   5.393   1.079
 1630SOL     OW 6786  10.489   1.987   1.458
 1630SOL    HW1 6787  10.501   1.894   1.440
 1630SOL    HW2 6788  10.411   1.991   1.513
 1631SOL     OW 6789   9.958   1.043   7.482
 1631SOL    HW1 6790   9.998   1.130   7.481
 1631SOL    HW2 6791  10.005   0.995   7.413
 1632SOL     OW 6792   9.130   3.489  13.129
 1632SOL    HW1 6793   9.065   3.420  13.136
 1632SOL    HW2 6794   9.079   3.568  13.110
 1633SOL     OW 6795   2.118   0.261  12.962
 1633SOL    HW1 6796   2.076   0.208  12.894
 1633SOL    HW2 6797   2.139   0.344  12.919
 1634SOL     OW 6798  10.845  14.241   9.108
 1634SOL    HW1 6799  10.803  14.327   9.117
 1634SOL    HW2 6800  10.913  14.241   9.176
 1635SOL     OW 6801  11.523  13.774   1.566
 1635SOL    HW1 6802  11.505  13.681   1.580
 1635SOL    HW2 6803  11.540  13.809   1.653
 1636SOL     OW 6804   8.408   0.450  13.731
 1636SOL    HW1 6805   8.328   0.410  13.698
 1636SOL    HW2 6806   8.469   0.377  13.742
 1637SOL     OW 6807   1.336  13.380   8.082
 1637SOL    HW1 6808   1.361  13.304   8.029
 1637SOL    HW2 6809   1.419  13.425   8.099
 1638SOL     OW 6810  11.638   1.129  12.997
 1638SOL    HW1 6811  11.651   1.220  12.971
 1638SOL    HW2 6812  11.684   1.120  13.080
 1639SOL     OW 6813  12.977  12.614  13.808
 1639SOL    HW1 6814  12.998  12.561  13.731
 1639SOL    HW2 6815  12.984  12.705  13.778
 1640SOL     OW 6816  14.577  14.406   4.294
 1640SOL    HW1 6817  14.625  14.387   4.213
 1640SOL    HW2 6818  14.564  14.501   4.292
 1641SOL     OW 6819   9.797  11.515   6.886
 1641SOL    HW1 6820   9.717  11.532   6.836
 1641SOL    HW2 6821   9.848  11.457   6.829
 1642SOL     OW 6822   6.996   3.484   7.837
 1642SOL    HW1 6823   6.949   3.471   7.919
 1642SOL    HW2 6824   7.015   3.395   7.805
 1643SOL     OW 6825   3.227  12.003   4.201
 1643SOL    HW1 6826   3.225  12.030   4.109
 1643SOL    HW2 6827   3.315  12.027   4.231
 1644SOL     OW 6828   3.949   6.863   9.716
 1644SOL    HW1 6829   3.939   6.933   9.652
 1644SOL    HW2 6830   3.870   6.867   9.769
 1645SOL     OW 6831  12.528   2.063  14.544
 1645SOL    HW1 6832  12.577   1.986  14.516
 1645SOL    HW2 6833  12.571   2.136  14.502
 1646SOL     OW 6834   5.166   0.871   6.115
 1646SOL    HW1 6835   5.162   0.967   6.119
 1646SOL    HW2 6836   5.149   0.842   6.204
 1647SOL     OW 6837  10.152   1.207   7.791
 1647SOL    HW1 6838  10.199   1.290   7.792
 1647SOL    HW2 6839  10.059   1.231   7.792
 1648SOL     OW 6840   4.822   5.488   7.475
 1648SOL    HW1 6841   4.781   5.446   7.400
 1648SOL    HW2 6842   4.750   5.504   7.536
 1649SOL     OW 6843   8.579   9.883   3.025
 1649SOL    HW1 6844   8.659   9.831   3.035
 1649SOL    HW2 6845   8.519   9.826   2.977
 1650SOL     OW 6846   1.494   7.958   1.966
 1650SOL    HW1 6847   1.400   7.968   1.949
 1650SOL    HW2 6848   1.533   8.038   1.932
 1651SOL     OW 6849   0.355   1.229   5.473
 1651SOL    HW1 6850   0.316   1.313   5.499
 1651SOL    HW2 6851   0.412   1.206   5.546
 1652SOL     OW 6852   0.374   8.902   7.477
 1652SOL    HW1 6853   0.318   8.831   7.508
 1652SOL    HW2 6854   0.370   8.897   7.382
 1653SOL     OW 6855   4.568  14.693   6.992
 1653SOL    HW1 6856   4.624  14.724   6.922
 1653SOL    HW2 6857   4.537  14.772   7.036
 1654SOL     OW 6858   8.846  10.998   3.567
 1654SOL    HW1 6859   8.832  10.904   3.558
 1654SOL    HW2 6860   8.876  11.026   3.481
 1655SOL     OW 6861   9.863   9.246   3.239
 1655SOL    HW1 6862   9.890   9.241   3.331
 1655SOL    HW2 6863   9.802   9.321   3.236
 1656SOL     OW 6864   6.692  10.493  13.557
 1656SOL    HW1 6865   6.669  10.446  13.636
 1656SOL    HW2 6866   6.710  10.425  13.492
 1657SOL     OW 6867   1.348   1.094   9.886
 1657SOL    HW1 6868   1.303   1.175   9.909
 1657SOL    HW2 6869   1.360   1.099   9.791
 1658SOL     OW 6870   2.748   9.823  12.799
 1658SOL    HW1 6871   2.755   9.918  12.798
 1658SOL    HW2 6872   2.692   9.801  12.725
 1659SOL     OW 6873   6.760  10.188  12.431
 1659SOL    HW1 6874   6.701  10.133  12.380
 1659SOL    HW2 6875   6.825  10.128  12.467
 1660SOL     OW 6876   0.412   1.599   7.789
 1660SOL    HW1 6877   0.328   1.639   7.767
 1660SOL    HW2 6878   0.465   1.671   7.823
 1661SOL     OW 6879  12.742   5.393   6.915
 1661SOL    HW1 6880  12.813   5.411   6.977
 1661SOL    HW2 6881  12.686   5.470   6.920
 1662SOL     OW 6882   9.849   5.479   1.709
 1662SOL    HW1 6883   9.862   5.519   1.795
 1662SOL    HW2 6884   9.806   5.395   1.728
 1663SOL     OW 6885  12.377   3.988   0.717
 1663SOL    HW1 6886  12.446   4.040   0.676
 1663SOL    HW2 6887  12.312   3.974   0.648
 1664SOL     OW 6888   6.995   8.169   7.768
 1664SOL    HW1 6889   7.018   8.122   7.848
 1664SOL    HW2 6890   7.012   8.261   7.788
 1665SOL     OW 6891  14.215  10.525   9.228
 1665SOL    HW1 6892  14.301  10.483   9.222
 1665SOL    HW2 6893  14.232  10.610   9.269
 1666SOL     OW 6894   7.716  10.213  10.051
 1666SOL    HW1 6895   7.730  10.123  10.022
 1666SOL    HW2 6896   7.662  10.252   9.983
 1667SOL     OW 6897  13.972   5.843   7.220
 1667SOL    HW1 6898  14.023   5.918   7.252
 1667SOL    HW2 6899  14.004   5.828   7.131
 1668SOL     OW 6900   4.249   8.858   1.737
 1668SOL    HW1 6901   4.222   8.836   1.648
 1668SOL    HW2 6902   4.319   8.922   1.726
 1669SOL     OW 6903   0.357   8.905   7.849
 1669SOL    HW1 6904   0.443   8.869   7.829
 1669SOL    HW2 6905   0.301   8.829   7.862
 1670SOL     OW 6906  10.179  10.470   9.279
 1670SOL    HW1 6907  10.117  10.423   9.334
 1670SOL    HW2 6908  10.172  10.428   9.193
 1671SOL     OW 6909  11.991  11.144   3.985
 1671SOL    HW1 6910  11.964  11.183   4.068
 1671SOL    HW2 6911  11.913  11.149   3.930
 1672SOL     OW 6912   9.565   1.183   4.457
 1672SOL    HW1 6913   9.470   1.181   4.469
 1672SOL    HW2 6914   9.595   1.101   4.498
 1673SOL     OW 6915   0.686   1.043   5.196
 1673SOL    HW1 6916   0.758   1.082   5.246
 1673SOL    HW2 6917   0.623   1.115   5.186
 1674SOL     OW 6918   7.963  13.827  14.219
 1674SOL    HW1 6919   8.039  13.794  14.171
 1674SOL    HW2 6920   7.996  13.905  14.265
 1675SOL     OW 6921   1.108  14.262   3.645
 1675SOL    HW1 6922   1.048  14.323   3.604
 1675SOL    HW2 6923   1.129  14.302   3.729
 1676SOL     OW 6924  13.570  11.394   1.594
 1676SOL    HW1 6925  13.537  11.483   1.605
 1676SOL    HW2 6926  13.643  11.388   1.656
 1677SOL     OW 6927  11.700   9.727  12.950
 1677SOL    HW1 6928  11.749   9.754  12.872
 1677SOL    HW2 6929  11.663   9.641  12.926
 1678SOL     OW 6930   4.765   2.130   2.283
 1678SOL    HW1 6931   4.752   2.214   2.238
 1678SOL    HW2 6932   4.749   2.150   2.375
 1679SOL     OW 6933  11.400  13.759   2.712
 1679SOL    HW1 6934  11.349  13.681   2.689
 1679SOL    HW2 6935  11.353  13.831   2.670
 1680SOL     OW 6936   9.917   8.783   4.613
 1680SOL    HW1 6937  10.003   8.820   4.594
 1680SOL    HW2 6938   9.918   8.767   4.707
 1681SOL     OW 6939   1.943  12.846  11.059
 1681SOL    HW1 6940   1.874  12.808  11.004
 1681SOL    HW2 6941   1.896  12.899  11.123
 1682SOL     OW 6942  14.184   6.519  13.531
 1682SOL    HW1 6943  14.133   6.542  13.608
 1682SOL    HW2 6944  14.130   6.547  13.457
 1683SOL     OW 6945   9.946   3.403   5.734
 1683SOL    HW1 6946   9.963   3.490   5.698
 1683SOL    HW2 6947   9.950   3.415   5.829
 1684SOL     OW 6948   4.248  10.537   6.308
 1684SOL    HW1 6949   4.291  10.523   6.393
 1684SOL    HW2 6950   4.217  10.450   6.282
 1685SOL     OW 6951   8.101   5.227  13.239
 1685SOL    HW1 6952   8.154   5.187  13.308
 1685SOL    HW2 6953   8.041   5.157  13.213
 1686SOL     OW 6954   0.133   2.549  13.996
 1686SOL    HW1 6955   0.070   2.478  14.010
 1686SOL    HW2 6956   0.154   2.544  13.902
 1687SOL     OW 6957   9.068   9.569   1.552
 1687SOL    HW1 6958   9.132   9.611   1.495
 1687SOL    HW2 6959   9.097   9.479   1.560
 1688SOL     OW 6960  11.008   8.897   5.766
 1688SOL    HW1 6961  10.986   8.916   5.857
 1688SOL    HW2 6962  11.083   8.837   5.771
 1689SOL     OW 6963   5.837  14.005   0.144
 1689SOL    HW1 6964   5.843  13.995   0.049
 1689SOL    HW2 6965   5.812  13.918   0.175
 1690SOL     OW 6966  13.046   8.781   9.986
 1690SOL    HW1 6967  12.985   8.711  10.010
 1690SOL    HW2 6968  13.006   8.861  10.021
 1691SOL     OW 6969   1.226  13.570  11.688
 1691SOL    HW1 6970   1.167  13.578  11.614
 1691SOL    HW2 6971   1.179  13.514  11.750
 1692SOL     OW 6972  13.627   7.282  12.079
 1692SOL    HW1 6973  13.547   7.230  12.088
 1692SOL    HW2 6974  13.695   7.229  12.122
 1693SOL     OW 6975  10.833   8.665   5.725
 1693SOL    HW1 6976  10.738   8.671   5.741
 1693SOL    HW2 6977  10.873   8.707   5.801
 1694SOL     OW 6978  10.040   8.138   8.204
 1694SOL    HW1 6979  10.119   8.144   8.258
 1694SOL    HW2 6980   9.973   8.182   8.255
 1695SOL     OW 6981  13.770   2.843   9.928
 1695SOL    HW1 6982  13.684   2.816   9.894
 1695SOL    HW2 6983  13.825   2.766   9.917
 1696SOL     OW 6984   4.119  10.204   1.069
 1696SOL    HW1 6985   4.206  10.164   1.071
 1696SOL    HW2 6986   4.108  10.234   0.978
 1697SOL     OW 6987   4.085  13.618   2.970
 1697SOL    HW1 6988   4.132  13.578   3.044
 1697SOL    HW2 6989   4.038  13.692   3.010
 1698SOL     OW 6990   5.367  13.780   2.878
 1698SOL    HW1 6991   5.327  13.823   2.803
 1698SOL    HW2 6992   5.293  13.749   2.931
 1699SOL     OW 6993   5.013   6.574   7.182
 1699SOL    HW1 6994   4.987   6.603   7.269
 1699SOL    HW2 6995   4.968   6.491   7.169
 1700SOL     OW 6996   6.152   7.534   8.279
 1700SOL    HW1 6997   6.188   7.599   8.219
 1700SOL    HW2 6998   6.226   7.479   8.304
 1701SOL     OW 6999  13.686  12.307   2.154
 1701SOL    HW1 7000  13.767  12.346   2.121
 1701SOL    HW2 7001  13.627  12.381   2.166
 1702SOL     OW 7002   5.794   8.758   0.254
 1702SOL    HW1 7003   5.758   8.677   0.220
 1702SOL    HW2 7004   5.888   8.742   0.260
 1703SOL     OW 7005   2.051   5.528   9.771
 1703SOL    HW1 7006   1.982   5.589   9.744
 1703SOL    HW2 7007   2.023   5.443   9.737
 1704SOL     OW 7008   9.063   7.913   2.087
 1704SOL    HW1 7009   9.038   7.972   2.016
 1704SOL    HW2 7010   9.029   7.954   2.166
 1705SOL     OW 7011   5.486   2.091  12.251
 1705SOL    HW1 7012   5.435   2.128  12.323
 1705SOL    HW2 7013   5.571   2.069  12.289
 1706SOL     OW 7014  11.628   3.921   0.376
 1706SOL    HW1 7015  11.683   3.928   0.297
 1706SOL    HW2 7016  11.651   3.997   0.428
 1707SOL     OW 7017  10.320   7.962  11.988
 1707SOL    HW1 7018  10.230   7.930  11.993
 1707SOL    HW2 7019  10.350   7.935  11.901
 1708SOL     OW 7020   5.476   3.739  13.528
 1708SOL    HW1 7021   5.501   3.646  13.521
 1708SOL    HW2 7022   5.404   3.748  13.465
 1709SOL     OW 7023   7.913   1.445   5.721
 1709SOL    HW1 7024   7.860   1.392   5.661
 1709SOL    HW2 7025   7.907   1.534   5.687
 1710SOL     OW 7026   8.414   0.172   2.519
 1710SOL    HW1 7027   8.401   0.250   2.466
 1710SOL    HW2 7028   8.357   0.184   2.595
 1711SOL     OW 7029  14.718  12.810   9.654
 1711SOL    HW1 7030  14.748  12.760   9.730
 1711SOL    HW2 7031  14.777  12.784   9.583
 1712SOL     OW 7032   3.834   3.144   0.201
 1712SOL    HW1 7033   3.824   3.069   0.142
 1712SOL    HW2 7034   3.926   3.168   0.194
 1713SOL     OW 7035   0.706  11.904   5.514
 1713SOL    HW1 7036   0.796  11.934   5.507
 1713SOL    HW2 7037   0.654  11.980   5.486
 1714SOL     OW 7038  12.226   2.383   7.885
 1714SOL    HW1 7039  12.191   2.423   7.965
 1714SOL    HW2 7040  12.319   2.371   7.902
 1715SOL     OW 7041   2.923   8.130  13.681
 1715SOL    HW1 7042   2.843   8.167  13.642
 1715SOL    HW2 7043   2.994   8.167  13.629
 1716SOL     OW 7044   1.374   7.948   9.935
 1716SOL    HW1 7045   1.349   7.964  10.025
 1716SOL    HW2 7046   1.387   7.853   9.930
 1717SOL     OW 7047   4.426   5.445   9.672
 1717SOL    HW1 7048   4.461   5.360   9.701
 1717SOL    HW2 7049   4.429   5.441   9.577
 1718SOL     OW 7050   3.548   7.599   7.591
 1718SOL    HW1 7051   3.474   7.569   7.645
 1718SOL    HW2 7052   3.517   7.680   7.550
 1719SOL     OW 7053   7.328   6.984   6.553
 1719SOL    HW1 7054   7.263   7.026   6.497
 1719SOL    HW2 7055   7.383   6.934   6.493
 1720SOL     OW 7056   7.236  12.763  13.729
 1720SOL    HW1 7057   7.230  12.833  13.795
 1720SOL    HW2 7058   7.241  12.809  13.646
 1721SOL     OW 7059   5.034   4.967   1.323
 1721SOL    HW1 7060   5.043   4.873   1.338
 1721SOL    HW2 7061   5.059   5.006   1.407
 1722SOL     OW 7062   1.137  13.882  14.552
 1722SOL    HW1 7063   1.081  13.927  14.489
 1722SOL    HW2 7064   1.184  13.953  14.596
 1723SOL     OW 7065   4.388  13.450  11.151
 1723SOL    HW1 7066   4.299  13.484  11.140
 1723SOL    HW2 7067   4.378  13.377  11.213
 1724SOL     OW 7068  12.568  12.205  12.024
 1724SOL    HW1 7069  12.543  12.205  12.116
 1724SOL    HW2 7070  12.487  12.190  11.977
 1725SOL     OW 7071   5.298  12.535   7.332
 1725SOL    HW1 7072   5.336  12.604   7.387
 1725SOL    HW2 7073   5.373  12.479   7.309
 1726SOL     OW 7074   8.273   5.521   3.297
 1726SOL    HW1 7075   8.289   5.566   3.380
 1726SOL    HW2 7076   8.232   5.438   3.322
 1727SOL     OW 7077  13.554  11.693   6.241
 1727SOL    HW1 7078  13.605  11.613   6.254
 1727SOL    HW2 7079  13.620  11.761   6.228
 1728SOL     OW 7080   7.959  14.413   8.465
 1728SOL    HW1 7081   8.014  14.334   8.463
 1728SOL    HW2 7082   8.007  14.473   8.523
 1729SOL     OW 7083  12.976   6.910   3.028
 1729SOL    HW1 7084  13.007   6.999   3.046
 1729SOL    HW2 7085  12.892   6.904   3.075
 1730SOL     OW 7086  10.257  12.857   0.336
 1730SOL    HW1 7087  10.276  12.764   0.350
 1730SOL    HW2 7088  10.251  12.866   0.241
 1731SOL     OW 7089   1.409  13.319   7.360
 1731SOL    HW1 7090   1.366  13.247   7.406
 1731SOL    HW2 7091   1.460  13.277   7.291
 1732SOL     OW 7092   1.580  14.782  14.651
 1732SOL    HW1 7093   1.537  14.742  14.576
 1732SOL    HW2 7094   1.591   0.005  14.627
 1733SOL     OW 7095   4.665  10.883  12.655
 1733SOL    HW1 7096   4.731  10.919  12.715
 1733SOL    HW2 7097   4.670  10.789  12.667
 1734SOL     OW 7098  12.685   0.503   7.262
 1734SOL    HW1 7099  12.770   0.547   7.271
 1734SOL    HW2 7100  12.705   0.410   7.271
 1735SOL     OW 7101   7.428   7.118   2.639
 1735SOL    HW1 7102   7.499   7.182   2.643
 1735SOL    HW2 7103   7.348   7.170   2.644
 1736SOL     OW 7104  10.648  11.214   5.997
 1736SOL    HW1 7105  10.678  11.198   5.908
 1736SOL    HW2 7106  10.722  11.254   6.042
 1737SOL     OW 7107   4.015   2.497  14.211
 1737SOL    HW1 7108   4.004   2.551  14.289
 1737SOL    HW2 7109   4.109   2.488  14.200
 1738SOL     OW 7110  14.160  10.748   5.245
 1738SOL    HW1 7111  14.201  10.662   5.235
 1738SOL    HW2 7112  14.229  10.811   5.225
 1739SOL     OW 7113   6.352   3.651  10.522
 1739SOL    HW1 7114   6.421   3.642  10.587
 1739SOL    HW2 7115   6.398   3.647  10.438
 1740SOL     OW 7116   3.105   4.694  13.090
 1740SOL    HW1 7117   3.184   4.657  13.051
 1740SOL    HW2 7118   3.136   4.742  13.167
 1741SOL     OW 7119  10.455  14.854  11.484
 1741SOL    HW1 7120  10.483  14.792  11.416
 1741SOL    HW2 7121  10.534   0.035  11.503
 1742SOL     OW 7122   3.988   5.633  14.504
 1742SOL    HW1 7123   4.026   5.568  14.562
 1742SOL    HW2 7124   3.923   5.584  14.452
 1743SOL     OW 7125  12.188   0.813   0.904
 1743SOL    HW1 7126  12.226   0.889   0.861
 1743SOL    HW2 7127  12.137   0.770   0.836
 1744SOL     OW 7128   1.231  14.588   9.165
 1744SOL    HW1 7129   1.158  14.632   9.122
 1744SOL    HW2 7130   1.205  14.496   9.169
 1745SOL     OW 7131   9.576   6.450   5.572
 1745SOL    HW1 7132   9.559   6.511   5.500
 1745SOL    HW2 7133   9.495   6.452   5.624
 1746SOL     OW 7134   5.707   8.158   2.420
 1746SOL    HW1 7135   5.766   8.193   2.353
 1746SOL    HW2 7136   5.732   8.066   2.429
 1747SOL     OW 7137   5.589   2.868   6.754
 1747SOL    HW1 7138   5.504   2.860   6.711
 1747SOL    HW2 7139   5.575   2.832   6.841
 1748SOL     OW 7140   6.852   9.228   7.867
 1748SOL    HW1 7141   6.917   9.252   7.800
 1748SOL    HW2 7142   6.901   9.229   7.949
 1749SOL     OW 7143  12.433  10.128  14.022
 1749SOL    HW1 7144  12.430  10.146  14.116
 1749SOL    HW2 7145  12.524  10.147  13.997
 1750SOL     OW 7146  12.868   6.382   5.290
 1750SOL    HW1 7147  12.905   6.429   5.365
 1750SOL    HW2 7148  12.934   6.390   5.222
 1751SOL     OW 7149   8.733   4.429   1.648
 1751SOL    HW1 7150   8.764   4.519   1.634
 1751SOL    HW2 7151   8.771   4.379   1.575
 1752SOL     OW 7152   9.132  13.554  12.108
 1752SOL    HW1 7153   9.149  13.608  12.185
 1752SOL    HW2 7154   9.219  13.529  12.076
 1753SOL     OW 7155   2.910   5.693   8.509
 1753SOL    HW1 7156   2.953   5.700   8.424
 1753SOL    HW2 7157   2.830   5.744   8.501
 1754SOL     OW 7158  12.291   7.863   7.710
 1754SOL    HW1 7159  12.296   7.931   7.642
 1754SOL    HW2 7160  12.211   7.883   7.758
 1755SOL     OW 7161   2.109   4.196   8.789
 1755SOL    HW1 7162   2.150   4.267   8.839
 1755SOL    HW2 7163   2.168   4.122   8.800
 1756SOL     OW 7164   4.156   3.778   6.495
 1756SOL    HW1 7165   4.171   3.763   6.401
 1756SOL    HW2 7166   4.240   3.757   6.536
 1757SOL     OW 7167   9.157   2.945  10.252
 1757SOL    HW1 7168   9.210   2.922  10.329
 1757SOL    HW2 7169   9.186   3.034  10.229
 1758SOL     OW 7170   7.636  13.304   1.924
 1758SOL    HW1 7171   7.616  13.223   1.970
 1758SOL    HW2 7172   7.559  13.359   1.938
 1759SOL     OW 7173   3.976   2.353   5.841
 1759SOL    HW1 7174   3.884   2.355   5.817
 1759SOL    HW2 7175   3.981   2.403   5.923
 1760SOL     OW 7176  11.250   2.549   8.555
 1760SOL    HW1 7177  11.335   2.526   8.594
 1760SOL    HW2 7178  11.231   2.636   8.590
 1761SOL     OW 7179   1.900  12.861   8.530
 1761SOL    HW1 7180   1.992  12.846   8.507
 1761SOL    HW2 7181   1.854  12.785   8.495
 1762SOL     OW 7182   8.796  12.238   3.740
 1762SOL    HW1 7183   8.873  12.199   3.699
 1762SOL    HW2 7184   8.724  12.178   3.718
 1763SOL     OW 7185  13.845   9.322  13.201
 1763SOL    HW1 7186  13.936   9.332  13.228
 1763SOL    HW2 7187  13.844   9.351  13.110
 1764SOL     OW 7188   0.091   4.882   0.267
 1764SOL    HW1 7189   0.014   4.836   0.299
 1764SOL    HW2 7190   0.056   4.954   0.215
 1765SOL     OW 7191  10.573   2.040  10.047
 1765SOL    HW1 7192  10.478   2.029  10.044
 1765SOL    HW2 7193  10.607   1.973   9.988
 1766SOL     OW 7194   8.452   2.800   1.893
 1766SOL    HW1 7195   8.534   2.761   1.923
 1766SOL    HW2 7196   8.479   2.878   1.844
 1767SOL     OW 7197   4.592   3.296   1.575
 1767SOL    HW1 7198   4.680   3.265   1.595
 1767SOL    HW2 7199   4.535   3.225   1.603
 1768SOL     OW 7200   8.529  14.098   0.829
 1768SOL    HW1 7201   8.533  14.143   0.914
 1768SOL    HW2 7202   8.439  14.110   0.800
 1769SOL     OW 7203  12.183   5.901  13.037
 1769SOL    HW1 7204  12.141   5.818  13.014
 1769SOL    HW2 7205  12.276   5.880  13.043
 1770SOL     OW 7206   1.333   9.750   3.498
 1770SOL    HW1 7207   1.279   9.829   3.502
 1770SOL    HW2 7208   1.418   9.781   3.469
 1771SOL     OW 7209   7.136   2.648  10.546
 1771SOL    HW1 7210   7.052   2.690  10.565
 1771SOL    HW2 7211   7.200   2.699  10.595
 1772SOL     OW 7212   7.691  11.578   9.958
 1772SOL    HW1 7213   7.718  11.669   9.971
 1772SOL    HW2 7214   7.686  11.568   9.863
 1773SOL     OW 7215   3.882  11.988   2.258
 1773SOL    HW1 7216   3.933  11.998   2.338
 1773SOL    HW2 7217   3.798  11.953   2.287
 1774SOL     OW 7218   6.715   5.118   3.226
 1774SOL    HW1 7219   6.636   5.078   3.189
 1774SOL    HW2 7220   6.686   5.204   3.258
 1775SOL     OW 7221   8.840   6.651  13.615
 1775SOL    HW1 7222   8.928   6.681  13.594
 1775SOL    HW2 7223   8.793   6.730  13.640
 1776SOL     OW 7224   9.723   4.247   1.694
 1776SOL    HW1 7225   9.747   4.159   1.665
 1776SOL    HW2 7226   9.638   4.263   1.653
 1777SOL     OW 7227  12.490   0.176   1.093
 1777SOL    HW1 7228  12.455   0.247   1.147
 1777SOL    HW2 7229  12.490   0.099   1.151
 1778SOL     OW 7230   4.564   7.370  10.358
 1778SOL    HW1 7231   4.468   7.369  10.359
 1778SOL    HW2 7232   4.588   7.462  10.351
 1779SOL     OW 7233   9.837  11.518   9.159
 1779SOL    HW1 7234   9.919  11.520   9.110
 1779SOL    HW2 7235   9.852  11.574   9.235
 1780SOL     OW 7236   4.802   3.578   7.110
 1780SOL    HW1 7237   4.879   3.577   7.167
 1780SOL    HW2 7238   4.832   3.621   7.029
 1781SOL     OW 7239  12.005  13.990   3.701
 1781SOL    HW1 7240  12.017  13.896   3.714
 1781SOL    HW2 7241  11.934  13.997   3.638
 1782SOL     OW 7242   2.066  11.148   6.321
 1782SOL    HW1 7243   2.062  11.156   6.417
 1782SOL    HW2 7244   2.159  11.150   6.301
 1783SOL     OW 7245   7.197   4.749  10.348
 1783SOL    HW1 7246   7.286   4.741  10.382
 1783SOL    HW2 7247   7.160   4.661  10.355
 1784SOL     OW 7248  13.758   0.143   4.248
 1784SOL    HW1 7249  13.768   0.056   4.210
 1784SOL    HW2 7250  13.682   0.181   4.204
 1785SOL     OW 7251  13.270  12.136   4.989
 1785SOL    HW1 7252  13.250  12.184   5.070
 1785SOL    HW2 7253  13.294  12.048   5.019
 1786SOL     OW 7254   1.497   1.020  10.405
 1786SOL    HW1 7255   1.417   1.044  10.450
 1786SOL    HW2 7256   1.475   0.941  10.355
 1787SOL     OW 7257  10.134  14.614   1.061
 1787SOL    HW1 7258  10.184  14.601   0.981
 1787SOL    HW2 7259  10.183  14.566   1.128
 1788SOL     OW 7260  11.205  13.490  13.722
 1788SOL    HW1 7261  11.275  13.464  13.783
 1788SOL    HW2 7262  11.128  13.502  13.777
 1789SOL     OW 7263   6.322   1.550   9.131
 1789SOL    HW1 7264   6.351   1.459   9.141
 1789SOL    HW2 7265   6.294   1.556   9.040
 1790SOL     OW 7266   0.567   3.729  10.451
 1790SOL    HW1 7267   0.474   3.707  10.450
 1790SOL    HW2 7268   0.593   3.716  10.542
 1791SOL     OW 7269   5.945   4.803   9.021
 1791SOL    HW1 7270   5.935   4.898   9.025
 1791SOL    HW2 7271   5.867   4.773   8.974
 1792SOL     OW 7272   9.415  13.035  12.339
 1792SOL    HW1 7273   9.409  13.126  12.309
 1792SOL    HW2 7274   9.327  13.014  12.370
 1793SOL     OW 7275   4.814   9.909   2.281
 1793SOL    HW1 7276   4.887   9.921   2.220
 1793SOL    HW2 7277   4.792   9.816   2.275
 1794SOL     OW 7278  10.098   0.572   8.934
 1794SOL    HW1 7279  10.181   0.554   8.977
 1794SOL    HW2 7280  10.032   0.543   8.996
 1795SOL     OW 7281   9.455   4.787  13.029
 1795SOL    HW1 7282   9.464   4.819  12.940
 1795SOL    HW2 7283   9.501   4.852  13.083
 1796SOL     OW 7284   0.279   4.214  13.644
 1796SOL    HW1 7285   0.276   4.175  13.556
 1796SOL    HW2 7286   0.196   4.187  13.684
 1797SOL     OW 7287  10.469   5.863   7.287
 1797SOL    HW1 7288  10.385   5.848   7.329
 1797SOL    HW2 7289  10.533   5.823   7.345
 1798SOL     OW 7290   6.873  10.006  10.906
 1798SOL    HW1 7291   6.817  10.083  10.911
 1798SOL    HW2 7292   6.940  10.029  10.842
 1799SOL     OW 7293   9.762   8.642   4.444
 1799SOL    HW1 7294   9.830   8.697   4.483
 1799SOL    HW2 7295   9.798   8.616   4.359
 1800SOL     OW 7296   4.545   7.382   1.597
 1800SOL    HW1 7297   4.510   7.293   1.591
 1800SOL    HW2 7298   4.504   7.418   1.676
 1801SOL     OW 7299   9.385   7.490   6.389
 1801SOL    HW1 7300   9.310   7.437   6.414
 1801SOL    HW2 7301   9.460   7.431   6.399
 1802SOL     OW 7302   2.680   4.953   6.300
 1802SOL    HW1 7303   2.762   4.915   6.333
 1802SOL    HW2 7304   2.611   4.906   6.349
 1803SOL     OW 7305  10.955   4.954   4.649
 1803SOL    HW1 7306  10.880   4.894   4.659
 1803SOL    HW2 7307  10.919   5.041   4.668
 1804SOL     OW 7308   4.037   0.394   9.603
 1804SOL    HW1 7309   4.011   0.370   9.514
 1804SOL    HW2 7310   4.118   0.346   9.619
 1805SOL     OW 7311   4.900   3.327  12.214
 1805SOL    HW1 7312   4.970   3.378  12.255
 1805SOL    HW2 7313   4.899   3.356  12.123
 1806SOL     OW 7314   9.168  12.574  12.661
 1806SOL    HW1 7315   9.119  12.522  12.597
 1806SOL    HW2 7316   9.207  12.509  12.720
 1807SOL     OW 7317  12.277   6.820   2.142
 1807SOL    HW1 7318  12.239   6.774   2.067
 1807SOL    HW2 7319  12.204   6.867   2.182
 1808SOL     OW 7320  14.010   6.195   3.409
 1808SOL    HW1 7321  14.071   6.122   3.393
 1808SOL    HW2 7322  14.063   6.259   3.457
 1809SOL     OW 7323   2.814   0.526  13.581
 1809SOL    HW1 7324   2.761   0.599  13.552
 1809SOL    HW2 7325   2.895   0.566  13.613
 1810SOL     OW 7326   8.675   2.501  11.942
 1810SOL    HW1 7327   8.678   2.495  12.037
 1810SOL    HW2 7328   8.673   2.410  11.912
 1811SOL     OW 7329   7.614   2.897   5.733
 1811SOL    HW1 7330   7.692   2.909   5.786
 1811SOL    HW2 7331   7.600   2.802   5.731
 1812SOL     OW 7332  11.586   4.231  14.523
 1812SOL    HW1 7333  11.562   4.286  14.598
 1812SOL    HW2 7334  11.502   4.211  14.481
 1813SOL     OW 7335   2.030   0.256   1.395
 1813SOL    HW1 7336   2.020   0.351   1.391
 1813SOL    HW2 7337   1.950   0.225   1.438
 1814SOL     OW 7338  10.945   5.177  13.475
 1814SOL    HW1 7339  10.949   5.081  13.475
 1814SOL    HW2 7340  10.931   5.201  13.384
 1815SOL     OW 7341   0.867  10.188  13.298
 1815SOL    HW1 7342   0.897  10.269  13.257
 1815SOL    HW2 7343   0.840  10.133  13.224
 1816SOL     OW 7344   2.938  10.505   0.881
 1816SOL    HW1 7345   2.962  10.462   0.963
 1816SOL    HW2 7346   3.001  10.472   0.817
 1817SOL     OW 7347   9.238   0.315   9.570
 1817SOL    HW1 7348   9.171   0.294   9.635
 1817SOL    HW2 7349   9.253   0.233   9.523
 1818SOL     OW 7350  11.594   4.913   9.272
 1818SOL    HW1 7351  11.634   4.863   9.343
 1818SOL    HW2 7352  11.656   4.983   9.254
 1819SOL     OW 7353  13.074   3.682   1.182
 1819SOL    HW1 7354  13.030   3.600   1.202
 1819SOL    HW2 7355  13.009   3.733   1.135
 1820SOL     OW 7356   0.643  14.101  12.172
 1820SOL    HW1 7357   0.692  14.183  12.165
 1820SOL    HW2 7358   0.710  14.032  12.170
 1821SOL     OW 7359  12.089   0.187   6.696
 1821SOL    HW1 7360  12.086   0.278   6.726
 1821SOL    HW2 7361  12.011   0.176   6.642
 1822SOL     OW 7362   6.411  11.141  11.924
 1822SOL    HW1 7363   6.390  11.053  11.894
 1822SOL    HW2 7364   6.489  11.130  11.979
 1823SOL     OW 7365   9.601   3.951   3.278
 1823SOL    HW1 7366   9.659   3.973   3.351
 1823SOL    HW2 7367   9.601   4.029   3.222
 1824SOL     OW 7368   9.657  14.256   9.409
 1824SOL    HW1 7369   9.742  14.292   9.385
 1824SOL    HW2 7370   9.614  14.326   9.458
 1825SOL     OW 7371  12.927   0.179  12.335
 1825SOL    HW1 7372  12.911   0.106  12.396
 1825SOL    HW2 7373  13.022   0.186  12.330
 1826SOL     OW 7374  11.154  12.766  12.180
 1826SOL    HW1 7375  11.154  12.855  12.144
 1826SOL    HW2 7376  11.062  12.748  12.200
 1827SOL     OW 7377   4.308   3.304   2.451
 1827SOL    HW1 7378   4.231   3.249   2.436
 1827SOL    HW2 7379   4.374   3.244   2.484
 1828SOL     OW 7380   7.482   2.419  13.002
 1828SOL    HW1 7381   7.433   2.431  12.921
 1828SOL    HW2 7382   7.518   2.506  13.021
 1829SOL     OW 7383   7.260   0.307   5.845
 1829SOL    HW1 7384   7.278   0.227   5.795
 1829SOL    HW2 7385   7.172   0.334   5.817
 1830SOL     OW 7386   1.453  11.136  11.608
 1830SOL    HW1 7387   1.495  11.100  11.529
 1830SOL    HW2 7388   1.363  11.106  11.603
 1831SOL     OW 7389   0.976   0.299   9.782
 1831SOL    HW1 7390   0.945   0.332   9.698
 1831SOL    HW2 7391   0.954   0.367   9.845
 1832SOL     OW 7392   4.656   9.780  10.566
 1832SOL    HW1 7393   4.650   9.834  10.645
 1832SOL    HW2 7394   4.673   9.843  10.496
 1833SOL     OW 7395   5.327   1.587   9.893
 1833SOL    HW1 7396   5.409   1.600   9.941
 1833SOL    HW2 7397   5.339   1.505   9.846
 1834SOL     OW 7398  12.643  11.004  13.151
 1834SOL    HW1 7399  12.699  11.003  13.074
 1834SOL    HW2 7400  12.559  10.970  13.119
 1835SOL     OW 7401   8.826   1.743   2.983
 1835SOL    HW1 7402   8.888   1.696   2.927
 1835SOL    HW2 7403   8.870   1.826   3.003
 1836SOL     OW 7404   6.556   4.724   5.996
 1836SOL    HW1 7405   6.605   4.796   6.037
 1836SOL    HW2 7406   6.530   4.668   6.069
 1837SOL     OW 7407  12.774  14.818  13.324
 1837SOL    HW1 7408  12.748  14.836  13.414
 1837SOL    HW2 7409  12.819   0.028  13.296
 1838SOL     OW 7410   4.192   5.484   7.076
 1838SOL    HW1 7411   4.212   5.528   7.159
 1838SOL    HW2 7412   4.268   5.430   7.057
 1839SOL     OW 7413   8.800   8.115   7.823
 1839SOL    HW1 7414   8.840   8.133   7.738
 1839SOL    HW2 7415   8.812   8.195   7.873
 1840SOL     OW 7416   8.262  14.327  13.132
 1840SOL    HW1 7417   8.251  14.243  13.176
 1840SOL    HW2 7418   8.172  14.354  13.111
 1841SOL     OW 7419  10.235   2.542  10.278
 1841SOL    HW1 7420  10.236   2.634  10.306
 1841SOL    HW2 7421  10.166   2.502  10.330
 1842SOL     OW 7422  12.549   9.708   1.535
 1842SOL    HW1 7423  12.574   9.722   1.444
 1842SOL    HW2 7424  12.600   9.632   1.563
 1843SOL     OW 7425  13.185   5.886   1.205
 1843SOL    HW1 7426  13.138   5.821   1.154
 1843SOL    HW2 7427  13.273   5.849   1.216
 1844SOL     OW 7428   3.795   4.045   4.147
 1844SOL    HW1 7429   3.715   3.995   4.130
 1844SOL    HW2 7430   3.866   3.989   4.114
 1845SOL     OW 7431   4.787   7.600  14.465
 1845SOL    HW1 7432   4.837   7.520  14.483
 1845SOL    HW2 7433   4.835   7.642  14.393
 1846SOL     OW 7434  13.866   4.011   6.295
 1846SOL    HW1 7435  13.829   4.090   6.256
 1846SOL    HW2 7436  13.792   3.951   6.303
 1847SOL     OW 7437  13.557   2.842  13.546
 1847SOL    HW1 7438  13.506   2.880  13.617
 1847SOL    HW2 7439  13.608   2.773  13.587
 1848SOL     OW 7440  11.327   8.103   8.710
 1848SOL    HW1 7441  11.273   8.048   8.767
 1848SOL    HW2 7442  11.343   8.182   8.761
 1849SOL     OW 7443  11.592   0.114  14.753
 1849SOL    HW1 7444  11.583   0.073  14.667
 1849SOL    HW2 7445  11.683   0.097  14.778
 1850SOL     OW 7446  13.634   1.140   8.935
 1850SOL    HW1 7447  13.554   1.140   8.883
 1850SOL    HW2 7448  13.698   1.185   8.881
 1851SOL     OW 7449   1.389   3.588   4.467
 1851SOL    HW1 7450   1.355   3.545   4.389
 1851SOL    HW2 7451   1.443   3.521   4.509
 1852SOL     OW 7452   2.165   4.152   7.487
 1852SOL    HW1 7453   2.218   4.219   7.443
 1852SOL    HW2 7454   2.201   4.148   7.575
 1853SOL     OW 7455   7.230   3.865   6.391
 1853SOL    HW1 7456   7.258   3.872   6.482
 1853SOL    HW2 7457   7.194   3.777   6.383
 1854SOL     OW 7458   5.922  12.950   1.879
 1854SOL    HW1 7459   5.984  12.948   1.952
 1854SOL    HW2 7460   5.861  13.021   1.902
 1855SOL     OW 7461   2.727   9.163  14.521
 1855SOL    HW1 7462   2.686   9.200  14.599
 1855SOL    HW2 7463   2.744   9.238  14.464
 1856SOL     OW 7464   3.224   8.071   2.186
 1856SOL    HW1 7465   3.178   8.135   2.240
 1856SOL    HW2 7466   3.300   8.118   2.152
 1857SOL     OW 7467   2.315   8.472  12.333
 1857SOL    HW1 7468   2.282   8.527  12.262
 1857SOL    HW2 7469   2.346   8.392  12.290
 1858SOL     OW 7470  10.673  11.272  11.224
 1858SOL    HW1 7471  10.685  11.287  11.318
 1858SOL    HW2 7472  10.650  11.179  11.218
 1859SOL     OW 7473   9.391   2.893   9.145
 1859SOL    HW1 7474   9.374   2.961   9.079
 1859SOL    HW2 7475   9.377   2.811   9.099
 1860SOL     OW 7476  11.613  11.123  10.361
 1860SOL    HW1 7477  11.571  11.132  10.447
 1860SOL    HW2 7478  11.694  11.075  10.380
 1861SOL     OW 7479  11.550  11.275  11.542
 1861SOL    HW1 7480  11.460  11.284  11.511
 1861SOL    HW2 7481  11.573  11.361  11.576
 1862SOL     OW 7482   1.126   8.516   8.459
 1862SOL    HW1 7483   1.174   8.438   8.432
 1862SOL    HW2 7484   1.195   8.580   8.479
 1863SOL     OW 7485  10.734  14.624   6.059
 1863SOL    HW1 7486  10.745  14.631   6.153
 1863SOL    HW2 7487  10.756  14.533   6.039
 1864SOL     OW 7488   8.683   2.859   8.522
 1864SOL    HW1 7489   8.719   2.869   8.611
 1864SOL    HW2 7490   8.591   2.839   8.536
 1865SOL     OW 7491   4.486  11.828   3.750
 1865SOL    HW1 7492   4.458  11.739   3.769
 1865SOL    HW2 7493   4.540  11.854   3.825
 1866SOL     OW 7494  14.845   2.270  12.428
 1866SOL    HW1 7495   0.020   2.342  12.383
 1866SOL    HW2 7496   0.022   2.262  12.511
 1867SOL     OW 7497   2.358   0.366   0.087
 1867SOL    HW1 7498   2.303   0.396   0.014
 1867SOL    HW2 7499   2.414   0.441   0.107
 1868SOL     OW 7500   7.403   7.215   2.361
 1868SOL    HW1 7501   7.488   7.213   2.404
 1868SOL    HW2 7502   7.421   7.248   2.273
 1869SOL     OW 7503  13.551   4.624  14.140
 1869SOL    HW1 7504  13.599   4.676  14.204
 1869SOL    HW2 7505  13.472   4.597  14.185
 1870SOL     OW 7506   0.427   4.352   4.606
 1870SOL    HW1 7507   0.376   4.271   4.613
 1870SOL    HW2 7508   0.451   4.357   4.514
 1871SOL     OW 7509  12.734  13.833   4.362
 1871SOL    HW1 7510  12.672  13.897   4.395
 1871SOL    HW2 7511  12.802  13.885   4.320
 1872SOL     OW 7512   3.411   8.680   7.971
 1872SOL    HW1 7513   3.445   8.642   8.052
 1872SOL    HW2 7514   3.417   8.775   7.984
 1873SOL     OW 7515   1.813   7.222  13.907
 1873SOL    HW1 7516   1.724   7.258  13.910
 1873SOL    HW2 7517   1.868   7.297  13.885
 1874SOL     OW 7518   4.117   6.151   9.723
 1874SOL    HW1 7519   4.043   6.107   9.764
 1874SOL    HW2 7520   4.077   6.213   9.662
 1875SOL     OW 7521   6.152  12.525   5.849
 1875SOL    HW1 7522   6.170  12.605   5.800
 1875SOL    HW2 7523   6.167  12.549   5.941
 1876SOL     OW 7524  10.594   6.493  14.233
 1876SOL    HW1 7525  10.638   6.408  14.232
 1876SOL    HW2 7526  10.658   6.553  14.271
 1877SOL     OW 7527  11.350   2.519   3.957
 1877SOL    HW1 7528  11.281   2.454   3.970
 1877SOL    HW2 7529  11.326   2.564   3.876
 1878SOL     OW 7530   2.063  12.138   2.669
 1878SOL    HW1 7531   2.026  12.054   2.696
 1878SOL    HW2 7532   2.054  12.194   2.746
 1879SOL     OW 7533   0.480   2.800   3.690
 1879SOL    HW1 7534   0.523   2.868   3.742
 1879SOL    HW2 7535   0.390   2.831   3.681
 1880SOL     OW 7536   3.012  13.009   1.285
 1880SOL    HW1 7537   2.917  13.013   1.293
 1880SOL    HW2 7538   3.035  12.921   1.313
 1881SOL     OW 7539   8.435   0.471  14.169
 1881SOL    HW1 7540   8.358   0.417  14.149
 1881SOL    HW2 7541   8.442   0.529  14.093
 1882SOL     OW 7542   5.288   8.731   0.456
 1882SOL    HW1 7543   5.250   8.777   0.381
 1882SOL    HW2 7544   5.220   8.669   0.483
 1883SOL     OW 7545   7.253   1.405  14.069
 1883SOL    HW1 7546   7.348   1.417  14.066
 1883SOL    HW2 7547   7.237   1.356  14.149
 1884SOL     OW 7548  13.654   7.938   5.374
 1884SOL    HW1 7549  13.692   8.025   5.371
 1884SOL    HW2 7550  13.562   7.952   5.399
 1885SOL     OW 7551   5.543   7.225   6.379
 1885SOL    HW1 7552   5.602   7.276   6.434
 1885SOL    HW2 7553   5.600   7.180   6.317
 1886SOL     OW 7554   5.820  11.023   9.288
 1886SOL    HW1 7555   5.838  10.989   9.376
 1886SOL    HW2 7556   5.876  10.972   9.230
 1887SOL     OW 7557   2.141   3.218  13.856
 1887SOL    HW1 7558   2.205   3.151  13.878
 1887SOL    HW2 7559   2.173   3.297  13.900
 1888SOL     OW 7560   7.683   1.185   1.445
 1888SOL    HW1 7561   7.630   1.176   1.524
 1888SOL    HW2 7562   7.740   1.260   1.463
 1889SOL     OW 7563   3.226   5.749   6.745
 1889SOL    HW1 7564   3.202   5.715   6.831
 1889SOL    HW2 7565   3.153   5.805   6.720
 1890SOL     OW 7566   7.234   3.441   9.244
 1890SOL    HW1 7567   7.173   3.498   9.291
 1890SOL    HW2 7568   7.282   3.394   9.313
 1891SOL     OW 7569   7.696  12.048   9.451
 1891SOL    HW1 7570   7.692  11.975   9.513
 1891SOL    HW2 7571   7.787  12.077   9.455
 1892SOL     OW 7572   0.689   5.787   0.105
 1892SOL    HW1 7573   0.664   5.798   0.197
 1892SOL    HW2 7574   0.757   5.720   0.106
 1893SOL     OW 7575  11.505   8.840   8.134
 1893SOL    HW1 7576  11.488   8.862   8.226
 1893SOL    HW2 7577  11.431   8.785   8.109
 1894SOL     OW 7578  14.724  12.652  14.557
 1894SOL    HW1 7579  14.797  12.664  14.618
 1894SOL    HW2 7580  14.727  12.729  14.501
 1895SOL     OW 7581  12.539   3.702  12.302
 1895SOL    HW1 7582  12.487   3.777  12.329
 1895SOL    HW2 7583  12.519   3.634  12.365
 1896SOL     OW 7584  10.133  11.082   2.163
 1896SOL    HW1 7585  10.125  11.144   2.236
 1896SOL    HW2 7586  10.052  11.092   2.114
 1897SOL     OW 7587   3.434   8.960   8.618
 1897SOL    HW1 7588   3.470   8.958   8.707
 1897SOL    HW2 7589   3.443   9.052   8.590
 1898SOL     OW 7590  12.318   9.930   2.499
 1898SOL    HW1 7591  12.320   9.841   2.462
 1898SOL    HW2 7592  12.382   9.927   2.570
 1899SOL     OW 7593   8.403   3.838   0.943
 1899SOL    HW1 7594   8.487   3.883   0.957
 1899SOL    HW2 7595   8.378   3.807   1.029
 1900SOL     OW 7596   2.104   2.149  11.178
 1900SOL    HW1 7597   2.080   2.163  11.086
 1900SOL    HW2 7598   2.074   2.228  11.223
 1901SOL     OW 7599   3.825  11.957   8.752
 1901SOL    HW1 7600   3.867  11.872   8.743
 1901SOL    HW2 7601   3.894  12.021   8.732
 1902SOL     OW 7602   4.316  14.254   0.167
 1902SOL    HW1 7603   4.327  14.339   0.208
 1902SOL    HW2 7604   4.254  14.269   0.095
 1903SOL     OW 7605   5.672   0.868   1.774
 1903SOL    HW1 7606   5.766   0.872   1.754
 1903SOL    HW2 7607   5.631   0.923   1.707
 1904SOL     OW 7608  13.479   9.329   3.760
 1904SOL    HW1 7609  13.571   9.353   3.772
 1904SOL    HW2 7610  13.440   9.339   3.847
 1905SOL     OW 7611   5.782   4.404   2.142
 1905SOL    HW1 7612   5.837   4.466   2.095
 1905SOL    HW2 7613   5.818   4.318   2.121
 1906SOL     OW 7614   5.497   9.318  11.596
 1906SOL    HW1 7615   5.520   9.397  11.645
 1906SOL    HW2 7616   5.519   9.246  11.655
 1907SOL     OW 7617  13.758   0.699  12.044
 1907SOL    HW1 7618  13.851   0.680  12.049
 1907SOL    HW2 7619  13.718   0.616  12.017
 1908SOL     OW 7620   7.562   9.975   3.295
 1908SOL    HW1 7621   7.506  10.028   3.352
 1908SOL    HW2 7622   7.526   9.887   3.300
 1909SOL     OW 7623  10.613   2.732   3.254
 1909SOL    HW1 7624  10.574   2.734   3.166
 1909SOL    HW2 7625  10.630   2.824   3.274
 1910SOL     OW 7626   6.849  10.149   8.304
 1910SOL    HW1 7627   6.762  10.187   8.318
 1910SOL    HW2 7628   6.908  10.224   8.299
 1911SOL     OW 7629  10.092  12.732   9.275
 1911SOL    HW1 7630  10.030  12.752   9.346
 1911SOL    HW2 7631  10.120  12.817   9.243
 1912SOL     OW 7632  14.725  11.792   8.982
 1912SOL    HW1 7633  14.802  11.839   8.949
 1912SOL    HW2 7634  14.660  11.861   8.996
 1913SOL     OW 7635  11.386   7.950   8.001
 1913SOL    HW1 7636  11.415   7.990   7.919
 1913SOL    HW2 7637  11.293   7.973   8.008
 1914SOL     OW 7638   8.272   6.565  10.067
 1914SOL    HW1 7639   8.288   6.635  10.003
 1914SOL    HW2 7640   8.309   6.600  10.149
 1915SOL     OW 7641   5.525   0.522   8.515
 1915SOL    HW1 7642   5.520   0.617   8.522
 1915SOL    HW2 7643   5.578   0.495   8.589
 1916SOL     OW 7644  12.696   1.109  14.391
 1916SOL    HW1 7645  12.786   1.081  14.378
 1916SOL    HW2 7646  12.703   1.201  14.418
 1917SOL     OW 7647   7.154   9.996  14.029
 1917SOL    HW1 7648   7.112   9.934  14.088
 1917SOL    HW2 7649   7.245  10.002  14.059
 1918SOL     OW 7650  14.428   9.129  14.694
 1918SOL    HW1 7651  14.489   9.064  14.660
 1918SOL    HW2 7652  14.352   9.079  14.723
 1919SOL     OW 7653   1.813   5.185   9.336
 1919SOL    HW1 7654   1.890   5.211   9.386
 1919SOL    HW2 7655   1.757   5.263   9.337
 1920SOL     OW 7656   5.396  10.212   6.765
 1920SOL    HW1 7657   5.404  10.269   6.841
 1920SOL    HW2 7658   5.339  10.260   6.705
 1921SOL     OW 7659   1.629   4.241  12.775
 1921SOL    HW1 7660   1.697   4.292  12.730
 1921SOL    HW2 7661   1.626   4.278  12.863
 1922SOL     OW 7662   2.450   6.288  12.781
 1922SOL    HW1 7663   2.430   6.321  12.868
 1922SOL    HW2 7664   2.542   6.311  12.767
 1923SOL     OW 7665   3.095  11.403   0.082
 1923SOL    HW1 7666   3.064  11.313   0.085
 1923SOL    HW2 7667   3.177  11.402   0.131
 1924SOL     OW 7668  13.779  11.126  10.580
 1924SOL    HW1 7669  13.863  11.080  10.584
 1924SOL    HW2 7670  13.739  11.095  10.499
 1925SOL     OW 7671   9.117   6.164   9.101
 1925SOL    HW1 7672   9.031   6.163   9.058
 1925SOL    HW2 7673   9.147   6.254   9.091
 1926SOL     OW 7674   1.033   9.085   3.966
 1926SOL    HW1 7675   0.942   9.087   3.996
 1926SOL    HW2 7676   1.084   9.080   4.046
 1927SOL     OW 7677  14.109   2.659  14.071
 1927SOL    HW1 7678  14.153   2.624  14.149
 1927SOL    HW2 7679  14.137   2.602  14.000
 1928SOL     OW 7680   5.839  14.635  10.696
 1928SOL    HW1 7681   5.811  14.545  10.714
 1928SOL    HW2 7682   5.935  14.632  10.701
 1929SOL     OW 7683  10.103   0.674  10.364
 1929SOL    HW1 7684  10.038   0.675  10.434
 1929SOL    HW2 7685  10.075   0.742  10.303
 1930SOL     OW 7686  14.004   7.890   1.752
 1930SOL    HW1 7687  14.025   7.961   1.812
 1930SOL    HW2 7688  13.956   7.827   1.806
 1931SOL     OW 7689   6.042  13.869  14.103
 1931SOL    HW1 7690   6.055  13.963  14.090
 1931SOL    HW2 7691   6.128  13.830  14.084
 1932SOL     OW 7692   6.939   5.860   3.387
 1932SOL    HW1 7693   6.969   5.786   3.439
 1932SOL    HW2 7694   6.850   5.837   3.361
 1933SOL     OW 7695   7.872   6.732   6.041
 1933SOL    HW1 7696   7.888   6.783   5.961
 1933SOL    HW2 7697   7.806   6.668   6.016
 1934SOL     OW 7698   5.257  13.790   9.832
 1934SOL    HW1 7699   5.262  13.708   9.882
 1934SOL    HW2 7700   5.270  13.763   9.741
 1935SOL     OW 7701   5.283  14.779  11.516
 1935SOL    HW1 7702   5.357  14.834  11.544
 1935SOL    HW2 7703   5.215  14.797  11.581
 1936SOL     OW 7704  12.396  10.893   0.833
 1936SOL    HW1 7705  12.433  10.977   0.806
 1936SOL    HW2 7706  12.465  10.851   0.883
 1937SOL     OW 7707  14.225   1.110   8.821
 1937SOL    HW1 7708  14.224   1.198   8.783
 1937SOL    HW2 7709  14.224   1.125   8.916
 1938SOL     OW 7710   8.724   7.238  10.178
 1938SOL    HW1 7711   8.630   7.257  10.175
 1938SOL    HW2 7712   8.734   7.179  10.252
 1939SOL     OW 7713   6.302   4.090   8.326
 1939SOL    HW1 7714   6.278   4.128   8.410
 1939SOL    HW2 7715   6.228   4.034   8.303
 1940SOL     OW 7716   1.144  11.308   5.456
 1940SOL    HW1 7717   1.091  11.380   5.490
 1940SOL    HW2 7718   1.093  11.272   5.383
 1941SOL     OW 7719   9.772   1.743   8.662
 1941SOL    HW1 7720   9.821   1.821   8.687
 1941SOL    HW2 7721   9.727   1.717   8.743
 1942SOL     OW 7722   7.904  14.201   3.434
 1942SOL    HW1 7723   7.946  14.125   3.474
 1942SOL    HW2 7724   7.835  14.225   3.496
 1943SOL     OW 7725  11.124   7.067   5.809
 1943SOL    HW1 7726  11.103   6.975   5.825
 1943SOL    HW2 7727  11.110   7.110   5.893
 1944SOL     OW 7728  11.878   9.717   1.155
 1944SOL    HW1 7729  11.863   9.648   1.090
 1944SOL    HW2 7730  11.860   9.676   1.239
 1945SOL     OW 7731   5.701   0.263   5.176
 1945SOL    HW1 7732   5.688   0.180   5.223
 1945SOL    HW2 7733   5.768   0.309   5.227
 1946SOL     OW 7734  11.887  12.584   9.172
 1946SOL    HW1 7735  11.955  12.575   9.238
 1946SOL    HW2 7736  11.899  12.508   9.115
 1947SOL     OW 7737   1.529  12.244   3.078
 1947SOL    HW1 7738   1.536  12.221   3.171
 1947SOL    HW2 7739   1.572  12.172   3.033
 1948SOL     OW 7740  13.689  14.727  14.018
 1948SOL    HW1 7741  13.718  14.690  14.101
 1948SOL    HW2 7742  13.600  14.694  14.007
 1949SOL     OW 7743   0.420   8.860  10.383
 1949SOL    HW1 7744   0.440   8.776  10.423
 1949SOL    HW2 7745   0.402   8.918  10.457
 1950SOL     OW 7746   4.465   3.343   8.681
 1950SOL    HW1 7747   4.519   3.312   8.753
 1950SOL    HW2 7748   4.518   3.410   8.638
 1951SOL     OW 7749   2.724   2.329   7.839
 1951SOL    HW1 7750   2.714   2.423   7.827
 1951SOL    HW2 7751   2.760   2.319   7.927
 1952SOL     OW 7752   6.072  13.935   3.885
 1952SOL    HW1 7753   5.978  13.927   3.902
 1952SOL    HW2 7754   6.112  13.921   3.971
 1953SOL     OW 7755   2.607   4.812   1.186
 1953SOL    HW1 7756   2.593   4.897   1.227
 1953SOL    HW2 7757   2.674   4.770   1.239
 1954SOL     OW 7758   4.694  14.569   9.624
 1954SOL    HW1 7759   4.608  14.610   9.631
 1954SOL    HW2 7760   4.706  14.525   9.707
 1955SOL     OW 7761  11.339   1.959   5.799
 1955SOL    HW1 7762  11.381   2.004   5.725
 1955SOL    HW2 7763  11.245   1.971   5.784
 1956SOL     OW 7764   8.949   9.086   2.940
 1956SOL    HW1 7765   8.857   9.067   2.920
 1956SOL    HW2 7766   8.969   9.164   2.889
 1957SOL     OW 7767   8.060  11.525  10.330
 1957SOL    HW1 7768   8.091  11.442  10.365
 1957SOL    HW2 7769   7.969  11.509  10.306
 1958SOL     OW 7770   5.332  12.581   8.126
 1958SOL    HW1 7771   5.249  12.622   8.103
 1958SOL    HW2 7772   5.312  12.487   8.133
 1959SOL     OW 7773   2.523   5.952  12.068
 1959SOL    HW1 7774   2.474   5.982  11.991
 1959SOL    HW2 7775   2.505   6.018  12.135
 1960SOL     OW 7776  11.052  11.501   7.204
 1960SOL    HW1 7777  11.077  11.566   7.139
 1960SOL    HW2 7778  10.997  11.439   7.157
 1961SOL     OW 7779   5.316   0.994   1.067
 1961SOL    HW1 7780   5.321   1.082   1.103
 1961SOL    HW2 7781   5.227   0.965   1.086
 1962SOL     OW 7782  13.086   7.492   6.057
 1962SOL    HW1 7783  12.993   7.478   6.075
 1962SOL    HW2 7784  13.088   7.532   5.970
 1963SOL     OW 7785   3.593   4.346   1.313
 1963SOL    HW1 7786   3.655   4.392   1.370
 1963SOL    HW2 7787   3.509   4.354   1.358
 1964SOL     OW 7788   6.251   3.564   4.221
 1964SOL    HW1 7789   6.233   3.494   4.284
 1964SOL    HW2 7790   6.293   3.520   4.147
 1965SOL     OW 7791   3.553   2.578   7.690
 1965SOL    HW1 7792   3.606   2.620   7.622
 1965SOL    HW2 7793   3.592   2.492   7.702
 1966SOL     OW 7794   8.675  10.380  10.095
 1966SOL    HW1 7795   8.682  10.442  10.168
 1966SOL    HW2 7796   8.659  10.296  10.138
 1967SOL     OW 7797   5.632   2.289   9.631
 1967SOL    HW1 7798   5.606   2.198   9.624
 1967SOL    HW2 7799   5.684   2.293   9.712
 1968SOL     OW 7800  14.703  13.031  14.028
 1968SOL    HW1 7801  14.685  12.989  13.944
 1968SOL    HW2 7802  14.754  12.966  14.076
 1969SOL     OW 7803  10.441  14.844   0.574
 1969SOL    HW1 7804  10.465  14.788   0.648
 1969SOL    HW2 7805  10.346  14.856   0.582
 1970SOL     OW 7806  12.767   4.604   7.934
 1970SOL    HW1 7807  12.821   4.556   7.998
 1970SOL    HW2 7808  12.684   4.617   7.978
 1971SOL     OW 7809   3.972   4.203   7.214
 1971SOL    HW1 7810   4.021   4.145   7.272
 1971SOL    HW2 7811   3.927   4.144   7.153
 1972SOL     OW 7812   4.248   5.672   2.403
 1972SOL    HW1 7813   4.241   5.577   2.391
 1972SOL    HW2 7814   4.336   5.694   2.374
 1973SOL     OW 7815  14.609   6.529   0.092
 1973SOL    HW1 7816  14.530   6.475   0.096
 1973SOL    HW2 7817  14.678   6.474   0.127
 1974SOL     OW 7818   3.415   1.735   6.656
 1974SOL    HW1 7819   3.424   1.800   6.725
 1974SOL    HW2 7820   3.394   1.653   6.703
 1975SOL     OW 7821  13.624   3.580  10.096
 1975SOL    HW1 7822  13.569   3.524  10.151
 1975SOL    HW2 7823  13.708   3.533  10.092
 1976SOL     OW 7824   2.023  13.552   5.333
 1976SOL    HW1 7825   1.971  13.620   5.291
 1976SOL    HW2 7826   2.062  13.595   5.409
 1977SOL     OW 7827   8.401   9.765  11.006
 1977SOL    HW1 7828   8.316   9.797  11.035
 1977SOL    HW2 7829   8.401   9.778  10.911
 1978SOL     OW 7830   0.534   0.168   3.016
 1978SOL    HW1 7831   0.490   0.133   2.938
 1978SOL    HW2 7832   0.554   0.090   3.068
 1979SOL     OW 7833   8.122   2.401  13.466
 1979SOL    HW1 7834   8.084   2.487  13.452
 1979SOL    HW2 7835   8.119   2.389  13.561
 1980SOL     OW 7836  12.930   0.267  13.971
 1980SOL    HW1 7837  12.964   0.283  14.059
 1980SOL    HW2 7838  12.993   0.309  13.913
 1981SOL     OW 7839   0.884   2.620   4.834
 1981SOL    HW1 7840   0.893   2.688   4.768
 1981SOL    HW2 7841   0.814   2.563   4.802
 1982SOL     OW 7842   4.683   2.827  13.831
 1982SOL    HW1 7843   4.644   2.881  13.762
 1982SOL    HW2 7844   4.767   2.798  13.795
 1983SOL     OW 7845  12.359   7.137  12.833
 1983SOL    HW1 7846  12.273   7.172  12.853
 1983SOL    HW2 7847  12.408   7.212  12.800
 1984SOL     OW 7848   7.299   5.877   9.143
 1984SOL    HW1 7849   7.289   5.809   9.209
 1984SOL    HW2 7850   7.209   5.897   9.116
 1985SOL     OW 7851   8.846   1.923   9.847
 1985SOL    HW1 7852   8.885   1.908   9.760
 1985SOL    HW2 7853   8.812   2.013   9.842
 1986SOL     OW 7854   4.846   6.379  14.492
 1986SOL    HW1 7855   4.926   6.433  14.487
 1986SOL    HW2 7856   4.865   6.304  14.436
 1987SOL     OW 7857  13.872   4.806  11.464
 1987SOL    HW1 7858  13.871   4.850  11.379
 1987SOL    HW2 7859  13.846   4.873  11.526
 1988SOL     OW 7860   2.687   8.493   9.391
 1988SOL    HW1 7861   2.775   8.522   9.367
 1988SOL    HW2 7862   2.678   8.407   9.349
 1989SOL     OW 7863   4.304   7.971  14.299
 1989SOL    HW1 7864   4.284   7.952  14.207
 1989SOL    HW2 7865   4.330   7.886  14.336
 1990SOL     OW 7866   2.106   7.216   9.387
 1990SOL    HW1 7867   2.063   7.301   9.386
 1990SOL    HW2 7868   2.096   7.185   9.477
 1991SOL     OW 7869   5.790   2.235   1.307
 1991SOL    HW1 7870   5.820   2.326   1.311
 1991SOL    HW2 7871   5.705   2.240   1.263
 1992SOL     OW 7872   3.495   2.611   8.891
 1992SOL    HW1 7873   3.590   2.623   8.878
 1992SOL    HW2 7874   3.480   2.519   8.870
 1993SOL     OW 7875   6.115   4.037   5.900
 1993SOL    HW1 7876   6.193   4.090   5.885
 1993SOL    HW2 7877   6.121   4.011   5.992
 1994SOL     OW 7878  10.222   2.317   2.686
 1994SOL    HW1 7879  10.299   2.310   2.742
 1994SOL    HW2 7880  10.255   2.349   2.603
 1995SOL     OW 7881   1.686   1.443   0.733
 1995SOL    HW1 7882   1.743   1.406   0.667
 1995SOL    HW2 7883   1.735   1.435   0.815
 1996SOL     OW 7884   7.635   6.684   2.064
 1996SOL    HW1 7885   7.666   6.594   2.073
 1996SOL    HW2 7886   7.550   6.686   2.109
 1997SOL     OW 7887   1.564   8.154   1.752
 1997SOL    HW1 7888   1.518   8.237   1.765
 1997SOL    HW2 7889   1.512   8.107   1.687
 1998SOL     OW 7890   8.693   2.955   5.777
 1998SOL    HW1 7891   8.611   2.932   5.822
 1998SOL    HW2 7892   8.692   3.050   5.772
 1999SOL     OW 7893   2.424  12.556   1.129
 1999SOL    HW1 7894   2.441  12.492   1.061
 1999SOL    HW2 7895   2.422  12.505   1.210
 2000SOL     OW 7896   8.559   0.610   4.432
 2000SOL    HW1 7897   8.575   0.523   4.395
 2000SOL    HW2 7898   8.633   0.625   4.491
 2001SOL     OW 7899   7.442   1.659  10.189
 2001SOL    HW1 7900   7.421   1.566  10.191
 2001SOL    HW2 7901   7.426   1.685  10.098
 2002SOL     OW 7902   3.965  12.018   1.669
 2002SOL    HW1 7903   4.053  12.047   1.643
 2002SOL    HW2 7904   3.953  11.936   1.622
 2003SOL     OW 7905  13.178   2.338  14.338
 2003SOL    HW1 7906  13.201   2.390  14.415
 2003SOL    HW2 7907  13.121   2.396  14.286
 2004SOL     OW 7908   9.253   1.690   0.745
 2004SOL    HW1 7909   9.165   1.709   0.713
 2004SOL    HW2 7910   9.286   1.774   0.777
 2005SOL     OW 7911   5.246   1.081   9.536
 2005SOL    HW1 7912   5.201   1.165   9.532
 2005SOL    HW2 7913   5.242   1.055   9.628
 2006SOL     OW 7914   2.130   5.505   6.864
 2006SOL    HW1 7915   2.216   5.535   6.835
 2006SOL    HW2 7916   2.125   5.531   6.956
 2007SOL     OW 7917  10.382  13.157   3.966
 2007SOL    HW1 7918  10.317  13.225   3.949
 2007SOL    HW2 7919  10.331  13.079   3.986
 2008SOL     OW 7920   6.330   2.069   6.809
 2008SOL    HW1 7921   6.411   2.116   6.787
 2008SOL    HW2 7922   6.261   2.123   6.772
 2009SOL     OW 7923   0.438  13.359  12.860
 2009SOL    HW1 7924   0.360  13.409  12.883
 2009SOL    HW2 7925   0.414  13.268  12.876
 2010SOL     OW 7926   0.055   2.958  10.173
 2010SOL    HW1 7927   0.124   2.901  10.206
 2010SOL    HW2 7928   0.002   2.903  10.115
 2011SOL     OW 7929   1.704   7.238   1.801
 2011SOL    HW1 7930   1.764   7.174   1.763
 2011SOL    HW2 7931   1.636   7.249   1.734
 2012SOL     OW 7932   9.979  14.841   5.840
 2012SOL    HW1 7933   9.937   0.034   5.899
 2012SOL    HW2 7934   9.991   0.020   5.758
 2013SOL     OW 7935   2.204   6.091   1.316
 2013SOL    HW1 7936   2.131   6.116   1.372
 2013SOL    HW2 7937   2.190   5.998   1.298
 2014SOL     OW 7938   5.885   2.102  10.840
 2014SOL    HW1 7939   5.816   2.053  10.884
 2014SOL    HW2 7940   5.856   2.193  10.845
 2015SOL     OW 7941  12.678  12.669  13.597
 2015SOL    HW1 7942  12.772  12.681  13.585
 2015SOL    HW2 7943  12.637  12.727  13.533
 2016SOL     OW 7944   0.869   1.218   0.125
 2016SOL    HW1 7945   0.918   1.254   0.199
 2016SOL    HW2 7946   0.810   1.154   0.164
 2017SOL     OW 7947   9.146  14.258  14.646
 2017SOL    HW1 7948   9.231  14.265  14.603
 2017SOL    HW2 7949   9.118  14.348  14.660
 2018SOL     OW 7950   2.720   7.908   3.237
 2018SOL    HW1 7951   2.691   7.872   3.153
 2018SOL    HW2 7952   2.757   7.833   3.284
 2019SOL     OW 7953   6.458   4.159   7.502
 2019SOL    HW1 7954   6.421   4.239   7.465
 2019SOL    HW2 7955   6.403   4.089   7.466
 2020SOL     OW 7956  13.355  11.184   4.886
 2020SOL    HW1 7957  13.302  11.254   4.847
 2020SOL    HW2 7958  13.317  11.103   4.853
 2021SOL     OW 7959  11.778  12.836   4.538
 2021SOL    HW1 7960  11.719  12.888   4.483
 2021SOL    HW2 7961  11.799  12.759   4.486
 2022SOL     OW 7962  14.263  13.135   9.422
 2022SOL    HW1 7963  14.219  13.201   9.368
 2022SOL    HW2 7964  14.206  13.125   9.498
 2023SOL     OW 7965  10.425  12.289   5.765
 2023SOL    HW1 7966  10.339  12.270   5.804
 2023SOL    HW2 7967  10.409  12.365   5.709
 2024SOL     OW 7968   3.475   7.797  14.401
 2024SOL    HW1 7969   3.546   7.754  14.353
 2024SOL    HW2 7970   3.406   7.731  14.405
 2025SOL     OW 7971   2.023   5.572  12.720
 2025SOL    HW1 7972   2.075   5.492  12.714
 2025SOL    HW2 7973   2.051   5.613  12.802
 2026SOL     OW 7974   7.382   2.047   7.913
 2026SOL    HW1 7975   7.346   2.035   8.001
 2026SOL    HW2 7976   7.423   2.134   7.916
 2027SOL     OW 7977   8.556   2.431   0.027
 2027SOL    HW1 7978   8.582   2.385  14.817
 2027SOL    HW2 7979   8.474   2.389   0.053
 2028SOL     OW 7980   7.145   3.353   1.774
 2028SOL    HW1 7981   7.111   3.282   1.829
 2028SOL    HW2 7982   7.076   3.370   1.711
 2029SOL     OW 7983  10.206   1.456  12.884
 2029SOL    HW1 7984  10.163   1.537  12.858
 2029SOL    HW2 7985  10.292   1.484  12.917
 2030SOL     OW 7986  13.112   6.409   8.157
 2030SOL    HW1 7987  13.042   6.378   8.215
 2030SOL    HW2 7988  13.071   6.414   8.070
 2031SOL     OW 7989   1.579   1.001   8.457
 2031SOL    HW1 7990   1.650   1.057   8.424
 2031SOL    HW2 7991   1.500   1.053   8.445
 2032SOL     OW 7992   7.269   8.479  10.298
 2032SOL    HW1 7993   7.283   8.419  10.225
 2032SOL    HW2 7994   7.295   8.565  10.265
 2033SOL     OW 7995   0.387  10.696   6.511
 2033SOL    HW1 7996   0.299  10.709   6.547
 2033SOL    HW2 7997   0.426  10.784   6.512
 2034SOL     OW 7998  12.529   4.922  11.645
 2034SOL    HW1 7999  12.472   4.949  11.573
 2034SOL    HW2 8000  12.603   4.982  11.641
 2035SOL     OW 8001  11.949   2.603   2.797
 2035SOL    HW1 8002  11.889   2.529   2.804
 2035SOL    HW2 8003  11.991   2.608   2.883
 2036SOL     OW 8004   3.204   3.811  13.423
 2036SOL    HW1 8005   3.271   3.865  13.379
 2036SOL    HW2 8006   3.176   3.864  13.497
 2037SOL     OW 8007  11.914  14.361   3.350
 2037SOL    HW1 8008  11.868  14.278   3.337
 2037SOL    HW2 8009  11.976  14.344   3.420
 2038SOL     OW 8010  12.599   5.218   9.432
 2038SOL    HW1 8011  12.615   5.138   9.481
 2038SOL    HW2 8012  12.533   5.265   9.483
 2039SOL     OW 8013  12.254   9.444   4.247
 2039SOL    HW1 8014  12.160   9.437   4.263
 2039SOL    HW2 8015  12.274   9.371   4.188
 2040SOL     OW 8016  12.745   4.586   1.791
 2040SOL    HW1 8017  12.735   4.623   1.878
 2040SOL    HW2 8018  12.785   4.501   1.805
 2041SOL     OW 8019   8.795   8.431   8.525
 2041SOL    HW1 8020   8.808   8.395   8.613
 2041SOL    HW2 8021   8.711   8.395   8.498
 2042SOL     OW 8022   2.728   5.503   1.943
 2042SOL    HW1 8023   2.702   5.487   2.034
 2042SOL    HW2 8024   2.810   5.551   1.950
 2043SOL     OW 8025   1.918   6.069   2.481
 2043SOL    HW1 8026   1.881   6.143   2.528
 2043SOL    HW2 8027   1.842   6.015   2.458
 2044SOL     OW 8028  12.087  11.580   1.456
 2044SOL    HW1 8029  12.169  11.533   1.470
 2044SOL    HW2 8030  12.033  11.557   1.533
 2045SOL     OW 8031  11.587   8.123  12.831
 2045SOL    HW1 8032  11.643   8.081  12.766
 2045SOL    HW2 8033  11.563   8.207  12.790
 2046SOL     OW 8034   3.670   5.515   2.300
 2046SOL    HW1 8035   3.619   5.455   2.246
 2046SOL    HW2 8036   3.749   5.467   2.322
 2047SOL     OW 8037  10.888  14.570  11.245
 2047SOL    HW1 8038  10.899  14.646  11.301
 2047SOL    HW2 8039  10.950  14.505  11.279
 2048SOL     OW 8040  13.523   2.626   7.413
 2048SOL    HW1 8041  13.521   2.653   7.504
 2048SOL    HW2 8042  13.584   2.687   7.371
 2049SOL     OW 8043   8.706   1.532   0.226
 2049SOL    HW1 8044   8.713   1.523   0.321
 2049SOL    HW2 8045   8.796   1.541   0.195
 2050SOL     OW 8046   3.420  11.462   3.985
 2050SOL    HW1 8047   3.411  11.557   3.998
 2050SOL    HW2 8048   3.512  11.450   3.966
 2051SOL     OW 8049   5.028   8.686   5.708
 2051SOL    HW1 8050   5.075   8.766   5.684
 2051SOL    HW2 8051   5.034   8.630   5.630
 2052SOL     OW 8052  11.718  14.067   0.009
 2052SOL    HW1 8053  11.656  14.003  14.844
 2052SOL    HW2 8054  11.717  14.138  14.814
 2053SOL     OW 8055   5.082   9.930   2.482
 2053SOL    HW1 8056   4.995   9.897   2.460
 2053SOL    HW2 8057   5.117   9.964   2.400
 2054SOL     OW 8058  11.527   0.152  13.430
 2054SOL    HW1 8059  11.521   0.198  13.346
 2054SOL    HW2 8060  11.580   0.075  13.411
 2055SOL     OW 8061  10.650  13.660   1.923
 2055SOL    HW1 8062  10.612  13.700   1.845
 2055SOL    HW2 8063  10.576  13.649   1.983
 2056SOL     OW 8064   0.626   6.661  10.204
 2056SOL    HW1 8065   0.701   6.717  10.224
 2056SOL    HW2 8066   0.663   6.575  10.185
 2057SOL     OW 8067   9.349  13.757   4.517
 2057SOL    HW1 8068   9.371  13.725   4.605
 2057SOL    HW2 8069   9.309  13.682   4.474
 2058SOL     OW 8070   8.045   2.622   7.793
 2058SOL    HW1 8071   8.077   2.620   7.883
 2058SOL    HW2 8072   8.109   2.677   7.747
 2059SOL     OW 8073  13.840  13.949   6.663
 2059SOL    HW1 8074  13.807  14.013   6.726
 2059SOL    HW2 8075  13.896  14.000   6.604
 2060SOL     OW 8076   8.891   0.382   6.883
 2060SOL    HW1 8077   8.888   0.470   6.845
 2060SOL    HW2 8078   8.961   0.338   6.834
 2061SOL     OW 8079   5.644  12.690  10.945
 2061SOL    HW1 8080   5.638  12.746  10.867
 2061SOL    HW2 8081   5.595  12.738  11.012
 2062SOL     OW 8082   0.335   4.075  10.265
 2062SOL    HW1 8083   0.277   4.001  10.277
 2062SOL    HW2 8084   0.308   4.113  10.181
 2063SOL     OW 8085   9.578   5.549  14.435
 2063SOL    HW1 8086   9.636   5.491  14.484
 2063SOL    HW2 8087   9.530   5.598  14.503
 2064SOL     OW 8088   7.223   3.642   2.654
 2064SOL    HW1 8089   7.155   3.671   2.715
 2064SOL    HW2 8090   7.254   3.559   2.689
 2065SOL     OW 8091   8.020   4.771   7.331
 2065SOL    HW1 8092   8.024   4.858   7.370
 2065SOL    HW2 8093   7.965   4.720   7.390
 2066SOL     OW 8094   8.439  12.830  12.566
 2066SOL    HW1 8095   8.518  12.778  12.583
 2066SOL    HW2 8096   8.438  12.895  12.636
 2067SOL     OW 8097   8.639  13.005   3.331
 2067SOL    HW1 8098   8.560  12.997   3.277
 2067SOL    HW2 8099   8.711  12.983   3.272
 2068SOL     OW 8100   6.033   6.668  10.875
 2068SOL    HW1 8101   6.116   6.674  10.829
 2068SOL    HW2 8102   5.981   6.740  10.840
 2069SOL     OW 8103  11.276   2.781   2.476
 2069SOL    HW1 8104  11.246   2.693   2.499
 2069SOL    HW2 8105  11.244   2.837   2.547
 2070SOL     OW 8106   1.521   1.105  14.494
 2070SOL    HW1 8107   1.485   1.095  14.582
 2070SOL    HW2 8108   1.616   1.110  14.508
 2071SOL     OW 8109   9.463  12.504   7.886
 2071SOL    HW1 8110   9.475  12.597   7.908
 2071SOL    HW2 8111   9.465  12.458   7.970
 2072SOL     OW 8112   0.648  10.858  10.288
 2072SOL    HW1 8113   0.667  10.909  10.210
 2072SOL    HW2 8114   0.664  10.767  10.261
 2073SOL     OW 8115   3.624   7.689  13.944
 2073SOL    HW1 8116   3.639   7.750  13.871
 2073SOL    HW2 8117   3.560   7.626  13.910
 2074SOL     OW 8118   3.201  11.364   8.071
 2074SOL    HW1 8119   3.198  11.336   7.980
 2074SOL    HW2 8120   3.294  11.358   8.095
 2075SOL     OW 8121  14.859  13.670   9.921
 2075SOL    HW1 8122   0.045  13.602   9.958
 2075SOL    HW2 8123   0.025  13.685   9.834
 2076SOL     OW 8124   6.310  14.040  14.442
 2076SOL    HW1 8125   6.232  14.094  14.454
 2076SOL    HW2 8126   6.311  14.020  14.348
 2077SOL     OW 8127   2.330   2.504  13.396
 2077SOL    HW1 8128   2.344   2.428  13.453
 2077SOL    HW2 8129   2.410   2.510  13.344
 2078SOL     OW 8130   1.842  12.498  11.314
 2078SOL    HW1 8131   1.776  12.484  11.382
 2078SOL    HW2 8132   1.905  12.559  11.353
 2079SOL     OW 8133   8.472   3.718   3.471
 2079SOL    HW1 8134   8.499   3.810   3.479
 2079SOL    HW2 8135   8.417   3.715   3.393
 2080SOL     OW 8136  12.170  10.106   3.269
 2080SOL    HW1 8137  12.214  10.181   3.310
 2080SOL    HW2 8138  12.228  10.032   3.284
 2081SOL     OW 8139  12.493   5.989   1.673
 2081SOL    HW1 8140  12.475   5.953   1.586
 2081SOL    HW2 8141  12.438   6.068   1.677
 2082SOL     OW 8142   7.676   0.427  13.520
 2082SOL    HW1 8143   7.702   0.405  13.610
 2082SOL    HW2 8144   7.756   0.461  13.480
 2083SOL     OW 8145   2.945  13.843  10.432
 2083SOL    HW1 8146   2.995  13.920  10.457
 2083SOL    HW2 8147   2.936  13.792  10.512
 2084SOL     OW 8148  14.678   0.376   8.068
 2084SOL    HW1 8149  14.671   0.409   7.978
 2084SOL    HW2 8150  14.616   0.303   8.072
 2085SOL     OW 8151   9.593   5.949   1.707
 2085SOL    HW1 8152   9.563   5.998   1.784
 2085SOL    HW2 8153   9.685   5.931   1.725
 2086SOL     OW 8154  13.367   7.817   4.881
 2086SOL    HW1 8155  13.277   7.803   4.913
 2086SOL    HW2 8156  13.405   7.878   4.944
 2087SOL     OW 8157   1.007  14.835   0.368
 2087SOL    HW1 8158   1.023  14.743   0.389
 2087SOL    HW2 8159   0.966  14.834   0.281
 2088SOL     OW 8160   8.619  14.712   0.495
 2088SOL    HW1 8161   8.529  14.683   0.478
 2088SOL    HW2 8162   8.628  14.706   0.590
 2089SOL     OW 8163   3.806   8.729   0.363
 2089SOL    HW1 8164   3.862   8.794   0.405
 2089SOL    HW2 8165   3.729   8.778   0.334
 2090SOL     OW 8166   9.884   9.101   1.844
 2090SOL    HW1 8167   9.966   9.053   1.830
 2090SOL    HW2 8168   9.819   9.054   1.793
 2091SOL     OW 8169   5.500  10.352   5.290
 2091SOL    HW1 8170   5.523  10.395   5.208
 2091SOL    HW2 8171   5.582  10.344   5.338
 2092SOL     OW 8172  14.665   1.228   4.760
 2092SOL    HW1 8173  14.596   1.166   4.735
 2092SOL    HW2 8174  14.746   1.177   4.753
 2093SOL     OW 8175   8.231   1.179   4.950
 2093SOL    HW1 8176   8.312   1.172   5.001
 2093SOL    HW2 8177   8.260   1.191   4.860
 2094SOL     OW 8178   9.829   4.412   2.074
 2094SOL    HW1 8179   9.741   4.426   2.107
 2094SOL    HW2 8180   9.823   4.431   1.981
 2095SOL     OW 8181   5.890   9.558   4.898
 2095SOL    HW1 8182   5.825   9.492   4.921
 2095SOL    HW2 8183   5.944   9.567   4.977
 2096SOL     OW 8184   5.163   2.567   2.417
 2096SOL    HW1 8185   5.120   2.647   2.447
 2096SOL    HW2 8186   5.100   2.497   2.436
 2097SOL     OW 8187   8.044   4.818   8.800
 2097SOL    HW1 8188   8.067   4.747   8.740
 2097SOL    HW2 8189   7.960   4.850   8.768
 2098SOL     OW 8190   6.038  12.427   4.822
 2098SOL    HW1 8191   5.998  12.435   4.736
 2098SOL    HW2 8192   5.971  12.385   4.876
 2099SOL     OW 8193  11.475  13.297  13.191
 2099SOL    HW1 8194  11.430  13.369  13.147
 2099SOL    HW2 8195  11.412  13.265  13.256
 2100SOL     OW 8196   9.162   2.663   2.320
 2100SOL    HW1 8197   9.241   2.656   2.372
 2100SOL    HW2 8198   9.103   2.597   2.356
 2101SOL     OW 8199   5.858   5.505   2.302
 2101SOL    HW1 8200   5.858   5.478   2.394
 2101SOL    HW2 8201   5.943   5.548   2.290
 2102SOL     OW 8202   5.693   4.182   6.837
 2102SOL    HW1 8203   5.727   4.101   6.797
 2102SOL    HW2 8204   5.681   4.242   6.763
 2103SOL     OW 8205   7.557  10.411  12.109
 2103SOL    HW1 8206   7.569  10.503  12.088
 2103SOL    HW2 8207   7.550  10.367  12.024
 2104SOL     OW 8208   9.874  13.994  13.657
 2104SOL    HW1 8209   9.904  13.911  13.694
 2104SOL    HW2 8210   9.847  14.046  13.733
 2105SOL     OW 8211   4.590   8.770   8.868
 2105SOL    HW1 8212   4.532   8.721   8.810
 2105SOL    HW2 8213   4.532   8.817   8.928
 2106SOL     OW 8214  12.962   2.964   8.088
 2106SOL    HW1 8215  13.035   2.904   8.098
 2106SOL    HW2 8216  12.936   2.985   8.178
 2107SOL     OW 8217   6.520   9.240   5.643
 2107SOL    HW1 8218   6.595   9.271   5.592
 2107SOL    HW2 8219   6.445   9.250   5.585
 2108SOL     OW 8220  11.538   2.627  12.940
 2108SOL    HW1 8221  11.515   2.705  12.991
 2108SOL    HW2 8222  11.584   2.661  12.863
 2109SOL     OW 8223  10.744   0.860  11.992
 2109SOL    HW1 8224  10.816   0.901  11.945
 2109SOL    HW2 8225  10.706   0.931  12.044
 2110SOL     OW 8226   0.647  11.093  11.680
 2110SOL    HW1 8227   0.644  11.188  11.676
 2110SOL    HW2 8228   0.741  11.072  11.682
 2111SOL     OW 8229   7.259  12.832  10.333
 2111SOL    HW1 8230   7.248  12.741  10.363
 2111SOL    HW2 8231   7.353  12.848  10.342
 2112SOL     OW 8232  12.448   1.963  12.805
 2112SOL    HW1 8233  12.524   1.954  12.746
 2112SOL    HW2 8234  12.419   2.053  12.793
 2113SOL     OW 8235  13.894   8.488   0.161
 2113SOL    HW1 8236  13.955   8.555   0.194
 2113SOL    HW2 8237  13.951   8.424   0.117
 2114SOL     OW 8238   2.108  14.178   8.430
 2114SOL    HW1 8239   2.080  14.238   8.360
 2114SOL    HW2 8240   2.166  14.231   8.484
 2115SOL     OW 8241  14.324   0.900   0.271
 2115SOL    HW1 8242  14.336   0.995   0.265
 2115SOL    HW2 8243  14.262   0.888   0.342
 2116SOL     OW 8244   1.569   4.187   4.162
 2116SOL    HW1 8245   1.638   4.182   4.228
 2116SOL    HW2 8246   1.528   4.272   4.177
 2117SOL     OW 8247  14.320  14.348   9.676
 2117SOL    HW1 8248  14.361  14.398   9.746
 2117SOL    HW2 8249  14.392  14.324   9.618
 2118SOL     OW 8250  10.448  11.117  11.528
 2118SOL    HW1 8251  10.526  11.110  11.583
 2118SOL    HW2 8252  10.378  11.138  11.589
 2119SOL     OW 8253   7.275   6.913   0.741
 2119SOL    HW1 8254   7.303   6.832   0.783
 2119SOL    HW2 8255   7.191   6.933   0.782
 2120SOL     OW 8256  10.739   3.336   3.216
 2120SOL    HW1 8257  10.809   3.271   3.223
 2120SOL    HW2 8258  10.713   3.334   3.125
 2121SOL     OW 8259   7.637  13.138   0.001
 2121SOL    HW1 8260   7.716  13.175   0.040
 2121SOL    HW2 8261   7.609  13.072   0.064
 2122SOL     OW 8262   9.123  11.922  14.070
 2122SOL    HW1 8263   9.151  11.977  14.143
 2122SOL    HW2 8264   9.100  11.985  14.001
 2123SOL     OW 8265   7.897  14.108  12.695
 2123SOL    HW1 8266   7.911  14.144  12.608
 2123SOL    HW2 8267   7.942  14.024  12.694
 2124SOL     OW 8268   9.135  14.022   4.556
 2124SOL    HW1 8269   9.176  13.960   4.495
 2124SOL    HW2 8270   9.190  14.017   4.635
 2125SOL     OW 8271   0.764  10.699   0.940
 2125SOL    HW1 8272   0.819  10.768   0.905
 2125SOL    HW2 8273   0.716  10.665   0.865
 2126SOL     OW 8274   9.678   9.483   1.952
 2126SOL    HW1 8275   9.667   9.468   2.046
 2126SOL    HW2 8276   9.757   9.537   1.946
 2127SOL     OW 8277   2.736   1.381   4.276
 2127SOL    HW1 8278   2.815   1.370   4.328
 2127SOL    HW2 8279   2.763   1.367   4.186
 2128SOL     OW 8280  10.868   1.065   6.908
 2128SOL    HW1 8281  10.858   1.152   6.870
 2128SOL    HW2 8282  10.846   1.005   6.836
 2129SOL     OW 8283   6.136   9.694   0.844
 2129SOL    HW1 8284   6.062   9.678   0.786
 2129SOL    HW2 8285   6.173   9.608   0.860
 2130SOL     OW 8286   4.293   3.451   7.073
 2130SOL    HW1 8287   4.385   3.454   7.100
 2130SOL    HW2 8288   4.247   3.504   7.138
 2131SOL     OW 8289  11.105  11.516   0.592
 2131SOL    HW1 8290  11.143  11.437   0.553
 2131SOL    HW2 8291  11.166  11.539   0.662
 2132SOL     OW 8292  11.544   6.242   5.102
 2132SOL    HW1 8293  11.480   6.313   5.110
 2132SOL    HW2 8294  11.618   6.281   5.057
 2133SOL     OW 8295  10.388  12.793   9.260
 2133SOL    HW1 8296  10.330  12.866   9.239
 2133SOL    HW2 8297  10.378  12.733   9.186
 2134SOL     OW 8298   1.174   3.911  11.385
 2134SOL    HW1 8299   1.157   3.942  11.474
 2134SOL    HW2 8300   1.238   3.840  11.396
 2135SOL     OW 8301   6.624   6.257   3.324
 2135SOL    HW1 8302   6.716   6.244   3.348
 2135SOL    HW2 8303   6.599   6.339   3.367
 2136SOL     OW 8304  13.630   4.876   3.101
 2136SOL    HW1 8305  13.667   4.793   3.132
 2136SOL    HW2 8306  13.703   4.922   3.061
 2137SOL     OW 8307  14.661   1.715   2.201
 2137SOL    HW1 8308  14.621   1.674   2.124
 2137SOL    HW2 8309  14.608   1.793   2.216
 2138SOL     OW 8310   7.781  13.871  13.385
 2138SOL    HW1 8311   7.699  13.919  13.369
 2138SOL    HW2 8312   7.850  13.934  13.361
 2139SOL     OW 8313   4.960  14.332   5.501
 2139SOL    HW1 8314   5.035  14.390   5.514
 2139SOL    HW2 8315   4.975  14.258   5.560
 2140SOL     OW 8316   5.348   9.293   9.972
 2140SOL    HW1 8317   5.354   9.328  10.060
 2140SOL    HW2 8318   5.425   9.326   9.926
 2141SOL     OW 8319   8.217  13.768  11.362
 2141SOL    HW1 8320   8.188  13.853  11.330
 2141SOL    HW2 8321   8.153  13.706  11.327
 2142SOL     OW 8322   5.131   9.403  12.611
 2142SOL    HW1 8323   5.141   9.496  12.635
 2142SOL    HW2 8324   5.215   9.380  12.570
 2143SOL     OW 8325   4.051   2.005   1.155
 2143SOL    HW1 8326   4.110   1.964   1.092
 2143SOL    HW2 8327   4.049   1.944   1.229
 2144SOL     OW 8328   4.466  10.469  14.329
 2144SOL    HW1 8329   4.435  10.405  14.393
 2144SOL    HW2 8330   4.455  10.553  14.372
 2145SOL     OW 8331   9.266   6.866   8.756
 2145SOL    HW1 8332   9.258   6.866   8.851
 2145SOL    HW2 8333   9.189   6.914   8.726
 2146SOL     OW 8334   6.981   4.427  11.206
 2146SOL    HW1 8335   6.909   4.490  11.203
 2146SOL    HW2 8336   7.049   4.466  11.152
 2147SOL     OW 8337   6.071   7.167  11.339
 2147SOL    HW1 8338   6.125   7.135  11.267
 2147SOL    HW2 8339   6.120   7.145  11.418
 2148SOL     OW 8340  11.404  12.620   3.562
 2148SOL    HW1 8341  11.391  12.584   3.474
 2148SOL    HW2 8342  11.473  12.685   3.552
 2149SOL     OW 8343   1.140  13.666   3.234
 2149SOL    HW1 8344   1.078  13.731   3.268
 2149SOL    HW2 8345   1.094  13.582   3.244
 2150SOL     OW 8346   8.229  10.786   9.601
 2150SOL    HW1 8347   8.225  10.878   9.630
 2150SOL    HW2 8348   8.319  10.760   9.618
 2151SOL     OW 8349   0.500  11.349  11.656
 2151SOL    HW1 8350   0.410  11.319  11.660
 2151SOL    HW2 8351   0.512  11.380  11.566
 2152SOL     OW 8352  14.650   1.753   5.041
 2152SOL    HW1 8353  14.599   1.811   4.984
 2152SOL    HW2 8354  14.639   1.791   5.129
 2153SOL     OW 8355   6.887   4.852   8.897
 2153SOL    HW1 8356   6.889   4.848   8.801
 2153SOL    HW2 8357   6.882   4.945   8.918
 2154SOL     OW 8358   3.234   0.204   3.230
 2154SOL    HW1 8359   3.141   0.206   3.209
 2154SOL    HW2 8360   3.243   0.262   3.306
 2155SOL     OW 8361  11.374  12.599   0.687
 2155SOL    HW1 8362  11.332  12.644   0.760
 2155SOL    HW2 8363  11.327  12.517   0.679
 2156SOL     OW 8364  14.605   9.066   3.087
 2156SOL    HW1 8365  14.536   9.049   3.024
 2156SOL    HW2 8366  14.658   9.135   3.047
 2157SOL     OW 8367   7.774   1.715   2.789
 2157SOL    HW1 8368   7.860   1.673   2.785
 2157SOL    HW2 8369   7.715   1.647   2.822
 2158SOL     OW 8370   1.986   9.332   2.715
 2158SOL    HW1 8371   1.914   9.366   2.767
 2158SOL    HW2 8372   2.018   9.256   2.764
 2159SOL     OW 8373   1.382   0.633   1.545
 2159SOL    HW1 8374   1.297   0.612   1.584
 2159SOL    HW2 8375   1.446   0.614   1.614
 2160SOL     OW 8376  14.208   8.231   7.606
 2160SOL    HW1 8377  14.182   8.311   7.560
 2160SOL    HW2 8378  14.258   8.181   7.542
 2161SOL     OW 8379   6.668  11.334   4.561
 2161SOL    HW1 8380   6.575  11.331   4.584
 2161SOL    HW2 8381   6.703  11.407   4.611
 2162SOL     OW 8382   4.644   8.989  12.388
 2162SOL    HW1 8383   4.688   9.018  12.467
 2162SOL    HW2 8384   4.622   9.070  12.341
 2163SOL     OW 8385   8.465  10.028  13.379
 2163SOL    HW1 8386   8.488  10.079  13.302
 2163SOL    HW2 8387   8.378   9.993  13.359
 2164SOL     OW 8388  11.616  11.876   9.139
 2164SOL    HW1 8389  11.654  11.827   9.212
 2164SOL    HW2 8390  11.605  11.965   9.173
 2165SOL     OW 8391  14.387  12.971   8.693
 2165SOL    HW1 8392  14.459  13.014   8.645
 2165SOL    HW2 8393  14.429  12.898   8.738
 2166SOL     OW 8394   4.755   7.556   3.096
 2166SOL    HW1 8395   4.818   7.619   3.062
 2166SOL    HW2 8396   4.804   7.508   3.164
 2167SOL     OW 8397   8.812   3.707  13.980
 2167SOL    HW1 8398   8.822   3.618  14.012
 2167SOL    HW2 8399   8.890   3.722  13.926
 2168SOL     OW 8400  11.803   7.548  12.342
 2168SOL    HW1 8401  11.879   7.599  12.313
 2168SOL    HW2 8402  11.839   7.461  12.361
 2169SOL     OW 8403   0.855  11.010   5.094
 2169SOL    HW1 8404   0.834  11.016   5.000
 2169SOL    HW2 8405   0.945  10.976   5.096
 2170SOL     OW 8406   6.622   0.952   1.384
 2170SOL    HW1 8407   6.637   0.857   1.388
 2170SOL    HW2 8408   6.536   0.961   1.343
 2171SOL     OW 8409  13.510  13.344   8.285
 2171SOL    HW1 8410  13.497  13.370   8.194
 2171SOL    HW2 8411  13.481  13.420   8.336
 2172SOL     OW 8412   9.781  13.510  10.376
 2172SOL    HW1 8413   9.699  13.502  10.328
 2172SOL    HW2 8414   9.811  13.420  10.389
 2173SOL     OW 8415  10.187   5.092  14.605
 2173SOL    HW1 8416  10.199   5.038  14.526
 2173SOL    HW2 8417  10.275   5.120  14.628
 2174SOL     OW 8418   3.021   9.900   9.177
 2174SOL    HW1 8419   3.014   9.917   9.083
 2174SOL    HW2 8420   3.116   9.904   9.194
 2175SOL     OW 8421   0.655   9.139  10.665
 2175SOL    HW1 8422   0.747   9.113  10.667
 2175SOL    HW2 8423   0.621   9.102  10.584
 2176SOL     OW 8424   3.265  11.084   3.450
 2176SOL    HW1 8425   3.291  10.999   3.414
 2176SOL    HW2 8426   3.262  11.142   3.374
 2177SOL     OW 8427   8.812  11.608  12.553
 2177SOL    HW1 8428   8.771  11.522  12.539
 2177SOL    HW2 8429   8.752  11.654  12.611
 2178SOL     OW 8430   8.508  12.693  12.832
 2178SOL    HW1 8431   8.462  12.773  12.858
 2178SOL    HW2 8432   8.591  12.696  12.879
 2179SOL     OW 8433   9.832   8.671  11.086
 2179SOL    HW1 8434   9.780   8.610  11.033
 2179SOL    HW2 8435   9.906   8.695  11.031
 2180SOL     OW 8436   8.836   8.371   7.258
 2180SOL    HW1 8437   8.929   8.389   7.243
 2180SOL    HW2 8438   8.821   8.286   7.215
 2181SOL     OW 8439   1.441   5.907   7.830
 2181SOL    HW1 8440   1.468   5.818   7.811
 2181SOL    HW2 8441   1.346   5.902   7.840
 2182SOL     OW 8442   6.214   9.446   4.768
 2182SOL    HW1 8443   6.292   9.464   4.820
 2182SOL    HW2 8444   6.239   9.466   4.678
 2183SOL     OW 8445   0.905   5.972  13.889
 2183SOL    HW1 8446   0.854   5.998  13.812
 2183SOL    HW2 8447   0.992   6.008  13.875
 2184SOL     OW 8448   6.573   1.422   4.266
 2184SOL    HW1 8449   6.562   1.419   4.171
 2184SOL    HW2 8450   6.664   1.396   4.280
 2185SOL     OW 8451   9.746   5.673   7.285
 2185SOL    HW1 8452   9.736   5.606   7.353
 2185SOL    HW2 8453   9.692   5.641   7.213
 2186SOL     OW 8454  10.707   8.815   0.001
 2186SOL    HW1 8455  10.798   8.832  14.844
 2186SOL    HW2 8456  10.655   8.836  14.793
 2187SOL     OW 8457   2.651  11.421   4.314
 2187SOL    HW1 8458   2.688  11.481   4.379
 2187SOL    HW2 8459   2.696  11.338   4.329
 2188SOL     OW 8460   7.351   9.715   9.253
 2188SOL    HW1 8461   7.275   9.773   9.252
 2188SOL    HW2 8462   7.336   9.658   9.329
 2189SOL     OW 8463   5.400  14.139   1.528
 2189SOL    HW1 8464   5.330  14.080   1.501
 2189SOL    HW2 8465   5.359  14.225   1.531
 2190SOL     OW 8466   5.480   2.368   5.165
 2190SOL    HW1 8467   5.416   2.297   5.178
 2190SOL    HW2 8468   5.539   2.335   5.097
 2191SOL     OW 8469  10.008  12.313  13.623
 2191SOL    HW1 8470  10.057  12.320  13.541
 2191SOL    HW2 8471  10.049  12.376  13.682
 2192SOL     OW 8472   1.667   3.578  12.079
 2192SOL    HW1 8473   1.728   3.568  12.152
 2192SOL    HW2 8474   1.618   3.495  12.077
 2193SOL     OW 8475  13.634   8.566   3.419
 2193SOL    HW1 8476  13.693   8.538   3.489
 2193SOL    HW2 8477  13.642   8.661   3.417
 2194SOL     OW 8478   5.096  13.971   3.270
 2194SOL    HW1 8479   5.181  13.932   3.251
 2194SOL    HW2 8480   5.054  13.908   3.329
 2195SOL     OW 8481  10.420  13.323  13.448
 2195SOL    HW1 8482  10.482  13.350  13.380
 2195SOL    HW2 8483  10.346  13.383  13.438
 2196SOL     OW 8484   4.677   3.208  11.788
 2196SOL    HW1 8485   4.631   3.281  11.745
 2196SOL    HW2 8486   4.696   3.148  11.717
 2197SOL     OW 8487   7.977   8.903  11.867
 2197SOL    HW1 8488   7.961   8.823  11.818
 2197SOL    HW2 8489   7.890   8.938  11.886
 2198SOL     OW 8490   9.467   9.290   0.013
 2198SOL    HW1 8491   9.399   9.349   0.047
 2198SOL    HW2 8492   9.434   9.262  14.797
 2199SOL     OW 8493   5.287   3.820   1.863
 2199SOL    HW1 8494   5.230   3.743   1.857
 2199SOL    HW2 8495   5.309   3.841   1.772
 2200SOL     OW 8496  11.211   0.378  11.742
 2200SOL    HW1 8497  11.251   0.309  11.690
 2200SOL    HW2 8498  11.275   0.395  11.811
 2201SOL     OW 8499   5.485   1.684  14.036
 2201SOL    HW1 8500   5.514   1.775  14.043
 2201SOL    HW2 8501   5.538   1.637  14.099
 2202SOL     OW 8502   6.779  11.989  12.810
 2202SOL    HW1 8503   6.691  12.021  12.834
 2202SOL    HW2 8504   6.792  12.019  12.720
 2203SOL     OW 8505   0.486  13.893   7.002
 2203SOL    HW1 8506   0.494  13.944   7.083
 2203SOL    HW2 8507   0.504  13.956   6.932
 2204SOL     OW 8508   5.854  11.007  12.717
 2204SOL    HW1 8509   5.867  10.914  12.735
 2204SOL    HW2 8510   5.937  11.048  12.744
 2205SOL     OW 8511   3.641  11.441   2.660
 2205SOL    HW1 8512   3.557  11.426   2.617
 2205SOL    HW2 8513   3.648  11.536   2.668
 2206SOL     OW 8514   2.619   5.114   0.868
 2206SOL    HW1 8515   2.699   5.136   0.915
 2206SOL    HW2 8516   2.638   5.031   0.825
 2207SOL     OW 8517   7.362   3.593   4.485
 2207SOL    HW1 8518   7.413   3.638   4.552
 2207SOL    HW2 8519   7.271   3.601   4.513
 2208SOL     OW 8520   4.809  11.531  12.709
 2208SOL    HW1 8521   4.738  11.594  12.699
 2208SOL    HW2 8522   4.794  11.491  12.794
 2209SOL     OW 8523   6.131  14.083   0.211
 2209SOL    HW1 8524   6.049  14.115   0.173
 2209SOL    HW2 8525   6.198  14.109   0.148
 2210SOL     OW 8526  11.688  10.506  12.470
 2210SOL    HW1 8527  11.775  10.489  12.435
 2210SOL    HW2 8528  11.628  10.485  12.399
 2211SOL     OW 8529   5.889   5.431   2.576
 2211SOL    HW1 8530   5.892   5.342   2.542
 2211SOL    HW2 8531   5.917   5.424   2.667
 2212SOL     OW 8532   0.027  12.251  13.156
 2212SOL    HW1 8533   0.050  12.329  13.208
 2212SOL    HW2 8534   0.093  12.187  13.180
 2213SOL     OW 8535  13.671   3.600   4.127
 2213SOL    HW1 8536  13.734   3.610   4.056
 2213SOL    HW2 8537  13.633   3.687   4.138
 2214SOL     OW 8538  14.835  10.717   1.796
 2214SOL    HW1 8539  14.839  10.765   1.713
 2214SOL    HW2 8540  14.761  10.657   1.785
 2215SOL     OW 8541   7.579  14.357   5.466
 2215SOL    HW1 8542   7.525  14.280   5.483
 2215SOL    HW2 8543   7.656  14.323   5.422
 2216SOL     OW 8544   1.690  13.785   1.199
 2216SOL    HW1 8545   1.625  13.756   1.263
 2216SOL    HW2 8546   1.669  13.738   1.119
 2217SOL     OW 8547   0.433   3.130   4.707
 2217SOL    HW1 8548   0.388   3.052   4.738
 2217SOL    HW2 8549   0.366   3.198   4.709
 2218SOL     OW 8550   1.452  10.375  10.955
 2218SOL    HW1 8551   1.397  10.311  10.910
 2218SOL    HW2 8552   1.459  10.448  10.894
 2219SOL     OW 8553   1.872  12.288   8.949
 2219SOL    HW1 8554   1.948  12.347   8.950
 2219SOL    HW2 8555   1.862  12.260   9.040
 2220SOL     OW 8556   7.802   2.205  10.128
 2220SOL    HW1 8557   7.796   2.217  10.034
 2220SOL    HW2 8558   7.715   2.175  10.154
 2221SOL     OW 8559  13.666   6.252   1.672
 2221SOL    HW1 8560  13.648   6.295   1.756
 2221SOL    HW2 8561  13.707   6.169   1.695
 2222SOL     OW 8562   3.141   6.591  12.640
 2222SOL    HW1 8563   3.049   6.575  12.661
 2222SOL    HW2 8564   3.184   6.506  12.652
 2223SOL     OW 8565  14.755   3.652   3.172
 2223SOL    HW1 8566  14.763   3.557   3.184
 2223SOL    HW2 8567  14.739   3.686   3.260
 2224SOL     OW 8568   5.023  10.779   3.901
 2224SOL    HW1 8569   5.040  10.862   3.945
 2224SOL    HW2 8570   5.088  10.775   3.831
 2225SOL     OW 8571   7.780   5.897   7.628
 2225SOL    HW1 8572   7.853   5.949   7.663
 2225SOL    HW2 8573   7.727   5.960   7.580
 2226SOL     OW 8574   5.307  12.964  11.734
 2226SOL    HW1 8575   5.308  12.901  11.662
 2226SOL    HW2 8576   5.359  12.923  11.803
 2227SOL     OW 8577   6.239   7.058   6.177
 2227SOL    HW1 8578   6.265   6.969   6.200
 2227SOL    HW2 8579   6.236   7.058   6.082
 2228SOL     OW 8580  13.282   8.779  10.500
 2228SOL    HW1 8581  13.372   8.746  10.494
 2228SOL    HW2 8582  13.229   8.702  10.521
 2229SOL     OW 8583  13.512  14.586   2.311
 2229SOL    HW1 8584  13.452  14.658   2.292
 2229SOL    HW2 8585  13.540  14.600   2.401
 2230SOL     OW 8586   9.136   2.678   8.323
 2230SOL    HW1 8587   9.043   2.688   8.344
 2230SOL    HW2 8588   9.159   2.759   8.278
 2231SOL     OW 8589   6.075   6.893   0.747
 2231SOL    HW1 8590   6.040   6.950   0.678
 2231SOL    HW2 8591   6.009   6.824   0.756
 2232SOL     OW 8592   9.521  11.414   9.777
 2232SOL    HW1 8593   9.520  11.507   9.757
 2232SOL    HW2 8594   9.453  11.376   9.721
 2233SOL     OW 8595   2.078  13.253  10.818
 2233SOL    HW1 8596   2.031  13.253  10.902
 2233SOL    HW2 8597   2.168  13.276  10.842
 2234SOL     OW 8598   1.537  12.484  14.589
 2234SOL    HW1 8599   1.602  12.428  14.547
 2234SOL    HW2 8600   1.574  12.505  14.674
 2235SOL     OW 8601   1.071   0.182   0.523
 2235SOL    HW1 8602   1.163   0.167   0.542
 2235SOL    HW2 8603   1.049   0.117   0.456
 2236SOL     OW 8604   0.493   0.808  11.807
 2236SOL    HW1 8605   0.467   0.724  11.845
 2236SOL    HW2 8606   0.564   0.786  11.747
 2237SOL     OW 8607   2.443  10.882  13.865
 2237SOL    HW1 8608   2.536  10.881  13.843
 2237SOL    HW2 8609   2.421  10.974  13.875
 2238SOL     OW 8610   6.689   4.308  13.389
 2238SOL    HW1 8611   6.737   4.389  13.409
 2238SOL    HW2 8612   6.725   4.280  13.305
 2239SOL     OW 8613   3.877   2.733   7.639
 2239SOL    HW1 8614   3.837   2.786   7.708
 2239SOL    HW2 8615   3.852   2.776   7.557
 2240SOL     OW 8616   9.433   2.209   9.542
 2240SOL    HW1 8617   9.430   2.113   9.546
 2240SOL    HW2 8618   9.478   2.228   9.459
 2241SOL     OW 8619   5.027   9.087  12.207
 2241SOL    HW1 8620   4.964   9.057  12.141
 2241SOL    HW2 8621   5.077   9.008  12.229
 2242SOL     OW 8622   3.415   1.181   9.627
 2242SOL    HW1 8623   3.402   1.276   9.621
 2242SOL    HW2 8624   3.458   1.169   9.712
 2243SOL     OW 8625   1.488   0.326   4.852
 2243SOL    HW1 8626   1.516   0.235   4.843
 2243SOL    HW2 8627   1.560   0.369   4.898
 2244SOL     OW 8628  11.376   9.288  11.265
 2244SOL    HW1 8629  11.379   9.291  11.360
 2244SOL    HW2 8630  11.467   9.292  11.238
 2245SOL     OW 8631  13.782  10.357   2.629
 2245SOL    HW1 8632  13.798  10.337   2.537
 2245SOL    HW2 8633  13.809  10.449   2.639
 2246SOL     OW 8634  13.837   4.389  11.003
 2246SOL    HW1 8635  13.839   4.305  10.957
 2246SOL    HW2 8636  13.854   4.455  10.936
 2247SOL     OW 8637   9.734   5.401   0.436
 2247SOL    HW1 8638   9.752   5.307   0.425
 2247SOL    HW2 8639   9.813   5.445   0.405
 2248SOL     OW 8640   2.361  11.736   0.580
 2248SOL    HW1 8641   2.378  11.666   0.517
 2248SOL    HW2 8642   2.423  11.806   0.556
 2249SOL     OW 8643  12.271   2.493   8.567
 2249SOL    HW1 8644  12.354   2.450   8.546
 2249SOL    HW2 8645  12.206   2.448   8.513
 2250SOL     OW 8646   7.825  13.739   1.063
 2250SOL    HW1 8647   7.819  13.747   0.968
 2250SOL    HW2 8648   7.851  13.648   1.079
 2251SOL     OW 8649   0.452   2.679   2.834
 2251SOL    HW1 8650   0.545   2.670   2.857
 2251SOL    HW2 8651   0.441   2.626   2.755
 2252SOL     OW 8652   8.742   2.873   6.352
 2252SOL    HW1 8653   8.782   2.844   6.270
 2252SOL    HW2 8654   8.816   2.902   6.406
 2253SOL     OW 8655  11.653   0.575  12.420
 2253SOL    HW1 8656  11.711   0.506  12.451
 2253SOL    HW2 8657  11.661   0.645  12.485
 2254SOL     OW 8658   9.649   7.947   0.754
 2254SOL    HW1 8659   9.565   7.967   0.713
 2254SOL    HW2 8660   9.636   7.968   0.847
 2255SOL     OW 8661   9.843   1.685  14.385
 2255SOL    HW1 8662   9.920   1.657  14.434
 2255SOL    HW2 8663   9.806   1.604  14.351
 2256SOL     OW 8664   2.793  11.880   9.276
 2256SOL    HW1 8665   2.780  11.853   9.367
 2256SOL    HW2 8666   2.884  11.859   9.257
 2257SOL     OW 8667   8.402   5.896   8.920
 2257SOL    HW1 8668   8.466   5.848   8.973
 2257SOL    HW2 8669   8.330   5.913   8.980
 2258SOL     OW 8670   8.488   0.970   4.778
 2258SOL    HW1 8671   8.567   1.020   4.800
 2258SOL    HW2 8672   8.430   1.033   4.736
 2259SOL     OW 8673   8.702   2.719   6.089
 2259SOL    HW1 8674   8.620   2.681   6.120
 2259SOL    HW2 8675   8.736   2.656   6.026
 2260SOL     OW 8676   8.544   3.220   2.302
 2260SOL    HW1 8677   8.537   3.131   2.266
 2260SOL    HW2 8678   8.505   3.213   2.389
 2261SOL     OW 8679   1.376   9.498   7.578
 2261SOL    HW1 8680   1.444   9.445   7.618
 2261SOL    HW2 8681   1.297   9.476   7.626
 2262SOL     OW 8682   6.792   7.269  11.148
 2262SOL    HW1 8683   6.873   7.256  11.198
 2262SOL    HW2 8684   6.818   7.259  11.057
 2263SOL     OW 8685  12.044   6.154   2.554
 2263SOL    HW1 8686  12.081   6.197   2.477
 2263SOL    HW2 8687  11.949   6.159   2.541
 2264SOL     OW 8688   2.013   2.101   6.147
 2264SOL    HW1 8689   1.929   2.099   6.194
 2264SOL    HW2 8690   2.079   2.094   6.216
 2265SOL     OW 8691  12.974   2.387  12.499
 2265SOL    HW1 8692  13.060   2.358  12.529
 2265SOL    HW2 8693  12.915   2.369  12.573
 2266SOL     OW 8694   7.820   6.354  11.848
 2266SOL    HW1 8695   7.729   6.385  11.855
 2266SOL    HW2 8696   7.871   6.419  11.897
 2267SOL     OW 8697   5.831   6.196  12.024
 2267SOL    HW1 8698   5.843   6.194  11.929
 2267SOL    HW2 8699   5.919   6.210  12.058
 2268SOL     OW 8700   5.075  12.064   1.565
 2268SOL    HW1 8701   5.018  12.129   1.525
 2268SOL    HW2 8702   5.020  12.017   1.626
 2269SOL     OW 8703  11.831   0.333  14.564
 2269SOL    HW1 8704  11.830   0.243  14.532
 2269SOL    HW2 8705  11.918   0.344  14.601
 2270SOL     OW 8706   7.988  13.753   7.253
 2270SOL    HW1 8707   8.008  13.826   7.194
 2270SOL    HW2 8708   8.011  13.675   7.204
 2271SOL     OW 8709  10.183   6.886   0.663
 2271SOL    HW1 8710  10.159   6.958   0.605
 2271SOL    HW2 8711  10.112   6.880   0.726
 2272SOL     OW 8712  14.450  10.947  13.514
 2272SOL    HW1 8713  14.445  10.937  13.609
 2272SOL    HW2 8714  14.516  11.015  13.501
 2273SOL     OW 8715   0.813  12.636   4.915
 2273SOL    HW1 8716   0.875  12.673   4.978
 2273SOL    HW2 8717   0.781  12.556   4.956
 2274SOL     OW 8718   7.377   4.496   7.789
 2274SOL    HW1 8719   7.345   4.563   7.729
 2274SOL    HW2 8720   7.297   4.455   7.823
 2275SOL     OW 8721  12.964   8.207   4.807
 2275SOL    HW1 8722  13.020   8.231   4.881
 2275SOL    HW2 8723  12.875   8.208   4.843
 2276SOL     OW 8724  11.277   9.246  14.496
 2276SOL    HW1 8725  11.262   9.156  14.467
 2276SOL    HW2 8726  11.332   9.284  14.427
 2277SOL     OW 8727   9.988   2.110   7.876
 2277SOL    HW1 8728  10.070   2.152   7.854
 2277SOL    HW2 8729   9.932   2.180   7.909
 2278SOL     OW 8730   5.924  12.831  13.896
 2278SOL    HW1 8731   5.990  12.891  13.932
 2278SOL    HW2 8732   5.950  12.745  13.928
 2279SOL     OW 8733  13.341  14.285  10.986
 2279SOL    HW1 8734  13.254  14.306  10.953
 2279SOL    HW2 8735  13.393  14.266  10.907
 2280SOL     OW 8736   0.534  11.148   9.296
 2280SOL    HW1 8737   0.568  11.209   9.362
 2280SOL    HW2 8738   0.503  11.205   9.225
 2281SOL     OW 8739   4.966   7.113   9.674
 2281SOL    HW1 8740   4.913   7.112   9.594
 2281SOL    HW2 8741   4.903   7.112   9.745
 2282SOL     OW 8742   3.216   3.285   7.270
 2282SOL    HW1 8743   3.121   3.272   7.263
 2282SOL    HW2 8744   3.236   3.261   7.361
 2283SOL     OW 8745   2.748   0.205   7.474
 2283SOL    HW1 8746   2.844   0.211   7.469
 2283SOL    HW2 8747   2.730   0.187   7.566
 2284SOL     OW 8748   4.975   4.258  11.002
 2284SOL    HW1 8749   5.042   4.235  10.937
 2284SOL    HW2 8750   5.024   4.296  11.075
 2285SOL     OW 8751   0.880  11.964   8.718
 2285SOL    HW1 8752   0.802  12.008   8.685
 2285SOL    HW2 8753   0.892  11.889   8.660
 2286SOL     OW 8754   0.683  10.904   9.291
 2286SOL    HW1 8755   0.620  10.974   9.271
 2286SOL    HW2 8756   0.744  10.906   9.217
 2287SOL     OW 8757   4.089   6.262   2.402
 2287SOL    HW1 8758   4.002   6.247   2.366
 2287SOL    HW2 8759   4.120   6.342   2.358
 2288SOL     OW 8760  13.317  12.392   8.870
 2288SOL    HW1 8761  13.364  12.325   8.821
 2288SOL    HW2 8762  13.386  12.442   8.915
 2289SOL     OW 8763   5.556   6.873  14.796
 2289SOL    HW1 8764   5.530   6.897   0.016
 2289SOL    HW2 8765   5.645   6.840  14.805
 2290SOL     OW 8766  11.661   6.952   1.008
 2290SOL    HW1 8767  11.582   6.975   0.959
 2290SOL    HW2 8768  11.649   6.994   1.093
 2291SOL     OW 8769   7.214   9.209   4.281
 2291SOL    HW1 8770   7.163   9.284   4.313
 2291SOL    HW2 8771   7.151   9.137   4.278
 2292SOL     OW 8772  10.508   9.052  12.601
 2292SOL    HW1 8773  10.415   9.038  12.614
 2292SOL    HW2 8774  10.547   9.031  12.686
 2293SOL     OW 8775   9.913   4.902   1.859
 2293SOL    HW1 8776   9.832   4.940   1.823
 2293SOL    HW2 8777   9.958   4.865   1.783
 2294SOL     OW 8778  14.691   2.559   9.275
 2294SOL    HW1 8779  14.622   2.590   9.217
 2294SOL    HW2 8780  14.755   2.518   9.217
 2295SOL     OW 8781   4.257  10.164   3.481
 2295SOL    HW1 8782   4.253  10.180   3.575
 2295SOL    HW2 8783   4.291  10.246   3.444
 2296SOL     OW 8784  13.664  11.336   7.332
 2296SOL    HW1 8785  13.635  11.245   7.320
 2296SOL    HW2 8786  13.739  11.345   7.274
 2297SOL     OW 8787   5.035  13.354   3.612
 2297SOL    HW1 8788   5.025  13.274   3.664
 2297SOL    HW2 8789   5.068  13.323   3.528
 2298SOL     OW 8790   6.545   7.394   2.391
 2298SOL    HW1 8791   6.489   7.463   2.428
 2298SOL    HW2 8792   6.601   7.367   2.463
 2299SOL     OW 8793  10.504  13.931  13.501
 2299SOL    HW1 8794  10.409  13.926  13.512
 2299SOL    HW2 8795  10.537  13.960  13.586
 2300SOL     OW 8796   0.822  10.635   4.135
 2300SOL    HW1 8797   0.851  10.653   4.224
 2300SOL    HW2 8798   0.727  10.620   4.144
 2301SOL     OW 8799   2.499   3.485   7.552
 2301SOL    HW1 8800   2.530   3.470   7.463
 2301SOL    HW2 8801   2.556   3.554   7.586
 2302SOL     OW 8802  11.159  11.263   1.776
 2302SOL    HW1 8803  11.241  11.311   1.788
 2302SOL    HW2 8804  11.179  11.199   1.707
 2303SOL     OW 8805  10.391   6.054   7.743
 2303SOL    HW1 8806  10.327   6.056   7.814
 2303SOL    HW2 8807  10.388   5.964   7.711
 2304SOL     OW 8808  11.090   3.371   3.368
 2304SOL    HW1 8809  11.134   3.330   3.294
 2304SOL    HW2 8810  11.026   3.305   3.397
 2305SOL     OW 8811   3.754  11.945   9.706
 2305SOL    HW1 8812   3.792  11.982   9.626
 2305SOL    HW2 8813   3.660  11.962   9.697
 2306SOL     OW 8814  14.006   5.484   0.851
 2306SOL    HW1 8815  13.995   5.476   0.756
 2306SOL    HW2 8816  14.098   5.460   0.866
 2307SOL     OW 8817  10.925   7.845  11.508
 2307SOL    HW1 8818  10.997   7.859  11.447
 2307SOL    HW2 8819  10.965   7.796  11.581
 2308SOL     OW 8820   8.405   4.150  13.600
 2308SOL    HW1 8821   8.367   4.078  13.650
 2308SOL    HW2 8822   8.330   4.200  13.568
 2309SOL     OW 8823   2.712   3.330   9.733
 2309SOL    HW1 8824   2.793   3.284   9.754
 2309SOL    HW2 8825   2.738   3.422   9.729
 2310SOL     OW 8826   4.403  14.319  12.903
 2310SOL    HW1 8827   4.417  14.409  12.934
 2310SOL    HW2 8828   4.484  14.296  12.858
 2311SOL     OW 8829   5.216  12.575  14.408
 2311SOL    HW1 8830   5.248  12.665  14.400
 2311SOL    HW2 8831   5.171  12.558  14.326
 2312SOL     OW 8832  13.993   7.982   9.704
 2312SOL    HW1 8833  14.013   7.896   9.666
 2312SOL    HW2 8834  13.945   8.028   9.635
 2313SOL     OW 8835   7.852   3.624   9.112
 2313SOL    HW1 8836   7.757   3.633   9.106
 2313SOL    HW2 8837   7.882   3.621   9.021
 2314SOL     OW 8838   2.911   7.940  11.105
 2314SOL    HW1 8839   2.919   7.914  11.197
 2314SOL    HW2 8840   2.818   7.933  11.087
 2315SOL     OW 8841   4.551  14.339   5.216
 2315SOL    HW1 8842   4.577  14.346   5.124
 2315SOL    HW2 8843   4.626  14.298   5.259
 2316SOL     OW 8844   8.155   9.382  13.577
 2316SOL    HW1 8845   8.219   9.397  13.508
 2316SOL    HW2 8846   8.208   9.374  13.657
 2317SOL     OW 8847   6.405   9.103   8.869
 2317SOL    HW1 8848   6.382   9.034   8.931
 2317SOL    HW2 8849   6.501   9.107   8.872
 2318SOL     OW 8850  12.897   7.296   6.344
 2318SOL    HW1 8851  12.856   7.339   6.270
 2318SOL    HW2 8852  12.893   7.202   6.324
 2319SOL     OW 8853  10.368  11.843   3.480
 2319SOL    HW1 8854  10.425  11.852   3.557
 2319SOL    HW2 8855  10.425  11.863   3.406
 2320SOL     OW 8856   4.210  14.134  12.615
 2320SOL    HW1 8857   4.213  14.068  12.546
 2320SOL    HW2 8858   4.249  14.091  12.691
 2321SOL     OW 8859   4.367   3.254   5.518
 2321SOL    HW1 8860   4.442   3.223   5.569
 2321SOL    HW2 8861   4.351   3.184   5.455
 2322SOL     OW 8862   7.951   7.291   2.006
 2322SOL    HW1 8863   7.932   7.352   2.077
 2322SOL    HW2 8864   7.936   7.341   1.926
 2323SOL     OW 8865   0.007   0.414   4.640
 2323SOL    HW1 8866  14.853   0.505   4.659
 2323SOL    HW2 8867   0.094   0.420   4.600
 2324SOL     OW 8868   3.050   7.561  12.754
 2324SOL    HW1 8869   3.027   7.640  12.705
 2324SOL    HW2 8870   2.969   7.536  12.799
 2325SOL     OW 8871   9.632   4.809   6.839
 2325SOL    HW1 8872   9.724   4.835   6.834
 2325SOL    HW2 8873   9.586   4.874   6.785
 2326SOL     OW 8874  11.381   6.719   6.137
 2326SOL    HW1 8875  11.332   6.637   6.128
 2326SOL    HW2 8876  11.391   6.751   6.048
 2327SOL     OW 8877   1.845   6.189   7.225
 2327SOL    HW1 8878   1.939   6.192   7.210
 2327SOL    HW2 8879   1.835   6.146   7.310
 2328SOL     OW 8880   1.058   5.518  11.073
 2328SOL    HW1 8881   1.025   5.476  10.994
 2328SOL    HW2 8882   1.084   5.445  11.130
 2329SOL     OW 8883  11.590   8.674   3.978
 2329SOL    HW1 8884  11.629   8.760   3.992
 2329SOL    HW2 8885  11.537   8.685   3.899
 2330SOL     OW 8886   6.971   1.858  13.584
 2330SOL    HW1 8887   7.066   1.860  13.569
 2330SOL    HW2 8888   6.958   1.919  13.657
 2331SOL     OW 8889   0.387   4.634  12.561
 2331SOL    HW1 8890   0.335   4.573  12.509
 2331SOL    HW2 8891   0.376   4.719  12.518
 2332SOL     OW 8892   7.160   7.545   0.689
 2332SOL    HW1 8893   7.133   7.500   0.609
 2332SOL    HW2 8894   7.250   7.514   0.704
 2333SOL     OW 8895  13.548  13.619   8.157
 2333SOL    HW1 8896  13.575  13.683   8.091
 2333SOL    HW2 8897  13.517  13.544   8.106
 2334SOL     OW 8898  13.486   5.325   4.522
 2334SOL    HW1 8899  13.409   5.289   4.566
 2334SOL    HW2 8900  13.531   5.375   4.590
 2335SOL     OW 8901   2.879  12.058  14.237
 2335SOL    HW1 8902   2.838  12.130  14.287
 2335SOL    HW2 8903   2.805  12.007  14.205
 2336SOL     OW 8904  10.763  11.201  10.184
 2336SOL    HW1 8905  10.697  11.132  10.195
 2336SOL    HW2 8906  10.753  11.256  10.261
 2337SOL     OW 8907   8.523   9.006   2.992
 2337SOL    HW1 8908   8.566   9.073   3.044
 2337SOL    HW2 8909   8.466   8.960   3.054
 2338SOL     OW 8910   2.574   2.090  13.336
 2338SOL    HW1 8911   2.660   2.127  13.315
 2338SOL    HW2 8912   2.588   1.996  13.337
 2339SOL     OW 8913   8.320   2.587   6.503
 2339SOL    HW1 8914   8.326   2.494   6.523
 2339SOL    HW2 8915   8.405   2.609   6.464
 2340SOL     OW 8916  10.124   2.030   9.296
 2340SOL    HW1 8917  10.045   1.988   9.331
 2340SOL    HW2 8918  10.175   1.959   9.260
 2341SOL     OW 8919   1.230  10.762  10.325
 2341SOL    HW1 8920   1.187  10.719  10.250
 2341SOL    HW2 8921   1.172  10.743  10.399
 2342SOL     OW 8922   7.877   5.417   3.720
 2342SOL    HW1 8923   7.875   5.450   3.810
 2342SOL    HW2 8924   7.787   5.393   3.701
 2343SOL     OW 8925   8.087   7.949   8.516
 2343SOL    HW1 8926   8.039   8.017   8.563
 2343SOL    HW2 8927   8.140   7.907   8.584
 2344SOL     OW 8928   2.431   5.311   2.127
 2344SOL    HW1 8929   2.361   5.250   2.148
 2344SOL    HW2 8930   2.393   5.371   2.063
 2345SOL     OW 8931  10.323   8.973   9.951
 2345SOL    HW1 8932  10.270   9.034   9.900
 2345SOL    HW2 8933  10.263   8.939  10.018
 2346SOL     OW 8934   0.608   8.929   0.136
 2346SOL    HW1 8935   0.592   8.910   0.043
 2346SOL    HW2 8936   0.703   8.929   0.143
 2347SOL     OW 8937  11.373   9.979   8.760
 2347SOL    HW1 8938  11.323  10.045   8.808
 2347SOL    HW2 8939  11.373   9.902   8.818
 2348SOL     OW 8940   8.942   1.042   4.557
 2348SOL    HW1 8941   8.885   1.087   4.494
 2348SOL    HW2 8942   9.021   1.096   4.560
 2349SOL     OW 8943   7.539   0.012   7.902
 2349SOL    HW1 8944   7.563  14.794   7.874
 2349SOL    HW2 8945   7.588   0.026   7.983
 2350SOL     OW 8946   7.190   6.244   3.349
 2350SOL    HW1 8947   7.237   6.169   3.386
 2350SOL    HW2 8948   7.259   6.299   3.312
 2351SOL     OW 8949   2.910  13.346  13.665
 2351SOL    HW1 8950   2.840  13.303  13.615
 2351SOL    HW2 8951   2.932  13.423  13.613
 2352SOL     OW 8952   8.589   3.104  12.911
 2352SOL    HW1 8953   8.634   3.067  12.987
 2352SOL    HW2 8954   8.609   3.043  12.840
 2353SOL     OW 8955   5.863   2.123   8.284
 2353SOL    HW1 8956   5.818   2.143   8.366
 2353SOL    HW2 8957   5.922   2.197   8.270
 2354SOL     OW 8958   0.054   6.278   8.396
 2354SOL    HW1 8959  14.843   6.314   8.359
 2354SOL    HW2 8960   0.053   6.185   8.371
 2355SOL     OW 8961   1.445   7.130   5.913
 2355SOL    HW1 8962   1.402   7.110   5.829
 2355SOL    HW2 8963   1.524   7.075   5.912
 2356SOL     OW 8964   1.577  10.268   8.815
 2356SOL    HW1 8965   1.493  10.245   8.857
 2356SOL    HW2 8966   1.552  10.328   8.745
 2357SOL     OW 8967  13.419  10.768   2.381
 2357SOL    HW1 8968  13.408  10.701   2.314
 2357SOL    HW2 8969  13.338  10.818   2.378
 2358SOL     OW 8970  13.822   4.624  11.826
 2358SOL    HW1 8971  13.869   4.707  11.828
 2358SOL    HW2 8972  13.788   4.618  11.736
 2359SOL     OW 8973  12.804   2.454  14.423
 2359SOL    HW1 8974  12.713   2.460  14.452
 2359SOL    HW2 8975  12.820   2.360  14.412
 2360SOL     OW 8976   5.994   4.921  11.914
 2360SOL    HW1 8977   6.066   4.875  11.957
 2360SOL    HW2 8978   5.982   5.001  11.966
 2361SOL     OW 8979   9.800   4.756   4.150
 2361SOL    HW1 8980   9.846   4.692   4.205
 2361SOL    HW2 8981   9.783   4.830   4.209
 2362SOL     OW 8982   5.409   7.562   7.457
 2362SOL    HW1 8983   5.497   7.595   7.439
 2362SOL    HW2 8984   5.397   7.574   7.551
 2363SOL     OW 8985  11.394   0.551  10.212
 2363SOL    HW1 8986  11.378   0.478  10.151
 2363SOL    HW2 8987  11.318   0.608  10.202
 2364SOL     OW 8988   5.767  13.222   7.004
 2364SOL    HW1 8989   5.720  13.146   7.037
 2364SOL    HW2 8990   5.736  13.233   6.914
 2365SOL     OW 8991  14.584  12.296   8.180
 2365SOL    HW1 8992  14.638  12.246   8.119
 2365SOL    HW2 8993  14.502  12.311   8.133
 2366SOL     OW 8994   4.938   7.391  11.421
 2366SOL    HW1 8995   4.945   7.297  11.407
 2366SOL    HW2 8996   4.862   7.417  11.368
 2367SOL     OW 8997  13.351   9.804  11.465
 2367SOL    HW1 8998  13.272   9.766  11.427
 2367SOL    HW2 8999  13.360   9.889  11.422
 2368SOL     OW 9000  10.762  14.151   2.611
 2368SOL    HW1 9001  10.674  14.143   2.648
 2368SOL    HW2 9002  10.781  14.244   2.617
 2369SOL     OW 9003   9.834  10.971   0.218
 2369SOL    HW1 9004   9.836  10.976   0.314
 2369SOL    HW2 9005   9.833  10.877   0.200
 2370SOL     OW 9006   6.004   4.644   3.063
 2370SOL    HW1 9007   6.062   4.697   3.118
 2370SOL    HW2 9008   6.034   4.661   2.974
 2371SOL     OW 9009   7.187  13.379   6.521
 2371SOL    HW1 9010   7.151  13.452   6.470
 2371SOL    HW2 9011   7.170  13.302   6.467
 2372SOL     OW 9012   0.109  12.254   0.646
 2372SOL    HW1 9013   0.025  12.213   0.667
 2372SOL    HW2 9014   0.089  12.348   0.644
 2373SOL     OW 9015  10.110   9.447   3.917
 2373SOL    HW1 9016  10.191   9.499   3.920
 2373SOL    HW2 9017  10.128   9.370   3.970
 2374SOL     OW 9018   1.890  12.430   6.205
 2374SOL    HW1 9019   1.801  12.401   6.186
 2374SOL    HW2 9020   1.878  12.509   6.259
 2375SOL     OW 9021   0.282   2.502  14.458
 2375SOL    HW1 9022   0.299   2.516  14.365
 2375SOL    HW2 9023   0.187   2.502  14.466
 2376SOL     OW 9024   4.336   2.824   5.395
 2376SOL    HW1 9025   4.343   2.874   5.314
 2376SOL    HW2 9026   4.285   2.881   5.453
 2377SOL     OW 9027   5.924   4.787   1.071
 2377SOL    HW1 9028   5.892   4.709   1.027
 2377SOL    HW2 9029   5.865   4.798   1.146
 2378SOL     OW 9030   6.627  10.515  11.689
 2378SOL    HW1 9031   6.661  10.431  11.658
 2378SOL    HW2 9032   6.670  10.529  11.773
 2379SOL     OW 9033   5.551   5.886   1.068
 2379SOL    HW1 9034   5.503   5.968   1.072
 2379SOL    HW2 9035   5.575   5.868   1.158
 2380SOL     OW 9036   1.450   5.792   2.452
 2380SOL    HW1 9037   1.366   5.777   2.496
 2380SOL    HW2 9038   1.458   5.718   2.391
 2381SOL     OW 9039   0.848   3.593   3.459
 2381SOL    HW1 9040   0.840   3.500   3.479
 2381SOL    HW2 9041   0.836   3.637   3.542
 2382SOL     OW 9042   1.840   5.809   0.776
 2382SOL    HW1 9043   1.862   5.889   0.824
 2382SOL    HW2 9044   1.837   5.835   0.685
 2383SOL     OW 9045   0.709   9.372   7.193
 2383SOL    HW1 9046   0.761   9.322   7.130
 2383SOL    HW2 9047   0.774   9.419   7.245
 2384SOL     OW 9048  14.839   6.380   0.864
 2384SOL    HW1 9049  14.810   6.466   0.893
 2384SOL    HW2 9050   0.051   6.397   0.817
 2385SOL     OW 9051   6.861   1.017   2.410
 2385SOL    HW1 9052   6.797   0.966   2.360
 2385SOL    HW2 9053   6.841   1.108   2.389
 2386SOL     OW 9054   2.427   7.555   3.589
 2386SOL    HW1 9055   2.461   7.623   3.530
 2386SOL    HW2 9056   2.505   7.523   3.635
 2387SOL     OW 9057  11.215   2.269   9.366
 2387SOL    HW1 9058  11.238   2.197   9.307
 2387SOL    HW2 9059  11.267   2.252   9.445
 2388SOL     OW 9060   0.536  13.845   0.466
 2388SOL    HW1 9061   0.565  13.935   0.449
 2388SOL    HW2 9062   0.603  13.810   0.526
 2389SOL     OW 9063   2.901   6.517   3.785
 2389SOL    HW1 9064   2.894   6.599   3.736
 2389SOL    HW2 9065   2.858   6.536   3.869
 2390SOL     OW 9066  14.399   1.355   5.432
 2390SOL    HW1 9067  14.408   1.288   5.365
 2390SOL    HW2 9068  14.423   1.436   5.388
 2391SOL     OW 9069   7.688   3.495  10.853
 2391SOL    HW1 9070   7.753   3.433  10.885
 2391SOL    HW2 9071   7.622   3.499  10.922
 2392SOL     OW 9072   4.710  12.211  10.760
 2392SOL    HW1 9073   4.725  12.271  10.687
 2392SOL    HW2 9074   4.617  12.188  10.753
 2393SOL     OW 9075   4.645  14.532   6.644
 2393SOL    HW1 9076   4.621  14.565   6.558
 2393SOL    HW2 9077   4.658  14.611   6.697
 2394SOL     OW 9078   0.738   0.842   9.625
 2394SOL    HW1 9079   0.831   0.857   9.638
 2394SOL    HW2 9080   0.698   0.868   9.708
 2395SOL     OW 9081   0.664   4.113   4.514
 2395SOL    HW1 9082   0.720   4.056   4.462
 2395SOL    HW2 9083   0.683   4.202   4.482
 2396SOL     OW 9084   8.732   7.583   0.753
 2396SOL    HW1 9085   8.719   7.591   0.659
 2396SOL    HW2 9086   8.689   7.660   0.790
 2397SOL     OW 9087   8.638  14.142   2.796
 2397SOL    HW1 9088   8.699  14.171   2.728
 2397SOL    HW2 9089   8.675  14.176   2.877
 2398SOL     OW 9090   8.453   3.329   7.386
 2398SOL    HW1 9091   8.476   3.262   7.451
 2398SOL    HW2 9092   8.526   3.390   7.388
 2399SOL     OW 9093  11.601   8.833  12.272
 2399SOL    HW1 9094  11.528   8.788  12.314
 2399SOL    HW2 9095  11.618   8.909  12.327
 2400SOL     OW 9096  10.765   5.625  14.042
 2400SOL    HW1 9097  10.676   5.597  14.023
 2400SOL    HW2 9098  10.758   5.673  14.124
 2401SOL     OW 9099   0.058   2.795   2.874
 2401SOL    HW1 9100   0.152   2.788   2.859
 2401SOL    HW2 9101   0.035   2.882   2.842
 2402SOL     OW 9102   6.120   6.915  13.162
 2402SOL    HW1 9103   6.127   6.923  13.067
 2402SOL    HW2 9104   6.045   6.857  13.176
 2403SOL     OW 9105   9.085  14.715   4.421
 2403SOL    HW1 9106   9.007  14.701   4.367
 2403SOL    HW2 9107   9.054  14.766   4.496
 2404SOL     OW 9108   7.144   4.521  12.292
 2404SOL    HW1 9109   7.084   4.518  12.367
 2404SOL    HW2 9110   7.231   4.528  12.331
 2405SOL     OW 9111  14.805  14.195  10.649
 2405SOL    HW1 9112  14.724  14.147  10.669
 2405SOL    HW2 9113  14.787  14.239  10.566
 2406SOL     OW 9114  12.821   8.815  13.251
 2406SOL    HW1 9115  12.895   8.757  13.228
 2406SOL    HW2 9116  12.745   8.757  13.250
 2407SOL     OW 9117   4.136  14.817   0.964
 2407SOL    HW1 9118   4.118  14.724   0.954
 2407SOL    HW2 9119   4.050  14.859   0.957
 2408SOL     OW 9120   3.262   6.812  12.586
 2408SOL    HW1 9121   3.230   6.722  12.596
 2408SOL    HW2 9122   3.203   6.864  12.640
 2409SOL     OW 9123   0.662  13.997   1.568
 2409SOL    HW1 9124   0.636  14.026   1.655
 2409SOL    HW2 9125   0.687  13.905   1.580
 2410SOL     OW 9126   7.208   8.638  12.144
 2410SOL    HW1 9127   7.243   8.705  12.085
 2410SOL    HW2 9128   7.198   8.683  12.228
 2411SOL     OW 9129  11.877   3.223   3.481
 2411SOL    HW1 9130  11.845   3.303   3.439
 2411SOL    HW2 9131  11.972   3.233   3.483
 2412SOL     OW 9132   1.986   2.480   0.024
 2412SOL    HW1 9133   1.999   2.544   0.094
 2412SOL    HW2 9134   1.894   2.454   0.032
 2413SOL     OW 9135   0.650  12.334   4.217
 2413SOL    HW1 9136   0.617  12.244   4.224
 2413SOL    HW2 9137   0.700  12.335   4.135
 2414SOL     OW 9138   8.311  11.676   6.438
 2414SOL    HW1 9139   8.313  11.726   6.357
 2414SOL    HW2 9140   8.276  11.737   6.503
 2415SOL     OW 9141   8.406   7.301  11.026
 2415SOL    HW1 9142   8.428   7.316  10.934
 2415SOL    HW2 9143   8.477   7.247  11.060
 2416SOL     OW 9144   4.504  10.171   9.630
 2416SOL    HW1 9145   4.435  10.174   9.563
 2416SOL    HW2 9146   4.456  10.166   9.713
 2417SOL     OW 9147  14.598   9.152   9.245
 2417SOL    HW1 9148  14.587   9.134   9.338
 2417SOL    HW2 9149  14.522   9.109   9.204
 2418SOL     OW 9150  13.107   0.370   5.427
 2418SOL    HW1 9151  13.168   0.444   5.420
 2418SOL    HW2 9152  13.025   0.403   5.390
 2419SOL     OW 9153   6.094  14.054   4.901
 2419SOL    HW1 9154   6.006  14.030   4.930
 2419SOL    HW2 9155   6.127  14.111   4.969
 2420SOL     OW 9156   1.011  12.434   9.707
 2420SOL    HW1 9157   1.020  12.455   9.614
 2420SOL    HW2 9158   0.932  12.480   9.735
 2421SOL     OW 9159   5.298  11.470   5.547
 2421SOL    HW1 9160   5.373  11.434   5.498
 2421SOL    HW2 9161   5.311  11.565   5.542
 2422SOL     OW 9162   5.759   2.204  10.552
 2422SOL    HW1 9163   5.779   2.129  10.608
 2422SOL    HW2 9164   5.688   2.249  10.598
 2423SOL     OW 9165   1.478  14.186   7.481
 2423SOL    HW1 9166   1.413  14.234   7.532
 2423SOL    HW2 9167   1.448  14.095   7.483
 2424SOL     OW 9168  14.171   2.596   7.697
 2424SOL    HW1 9169  14.203   2.541   7.769
 2424SOL    HW2 9170  14.189   2.685   7.726
 2425SOL     OW 9171   4.513  12.233  11.930
 2425SOL    HW1 9172   4.447  12.295  11.962
 2425SOL    HW2 9173   4.510  12.162  11.994
 2426SOL     OW 9174  12.036  14.588   0.003
 2426SOL    HW1 9175  12.050  14.680  14.850
 2426SOL    HW2 9176  11.944  14.571  14.850
 2427SOL     OW 9177   9.797   3.418  14.387
 2427SOL    HW1 9178   9.726   3.464  14.342
 2427SOL    HW2 9179   9.777   3.325  14.374
 2428SOL     OW 9180  11.855  10.713  14.152
 2428SOL    HW1 9181  11.922  10.645  14.156
 2428SOL    HW2 9182  11.772  10.665  14.155
 2429SOL     OW 9183   8.204   9.811   7.501
 2429SOL    HW1 9184   8.236   9.861   7.426
 2429SOL    HW2 9185   8.167   9.876   7.560
 2430SOL     OW 9186  11.855  10.388  14.024
 2430SOL    HW1 9187  11.902  10.362  14.102
 2430SOL    HW2 9188  11.771  10.341  14.029
 2431SOL     OW 9189  10.822   3.531   1.302
 2431SOL    HW1 9190  10.797   3.506   1.213
 2431SOL    HW2 9191  10.859   3.451   1.340
 2432SOL     OW 9192   7.144   6.973  13.627
 2432SOL    HW1 9193   7.079   6.984  13.696
 2432SOL    HW2 9194   7.223   7.012  13.662
 2433SOL     OW 9195   5.180   9.475  13.885
 2433SOL    HW1 9196   5.109   9.448  13.944
 2433SOL    HW2 9197   5.143   9.549  13.837
 2434SOL     OW 9198   7.945   1.582  12.012
 2434SOL    HW1 9199   7.916   1.603  12.101
 2434SOL    HW2 9200   7.952   1.487  12.011
 2435SOL     OW 9201   7.304  10.912   4.405
 2435SOL    HW1 9202   7.238  10.961   4.356
 2435SOL    HW2 9203   7.317  10.963   4.485
 2436SOL     OW 9204   1.334   2.350   8.066
 2436SOL    HW1 9205   1.346   2.334   7.972
 2436SOL    HW2 9206   1.270   2.421   8.070
 2437SOL     OW 9207   1.724   3.219   4.390
 2437SOL    HW1 9208   1.690   3.172   4.315
 2437SOL    HW2 9209   1.819   3.216   4.380
 2438SOL     OW 9210   4.559   6.481   8.423
 2438SOL    HW1 9211   4.504   6.448   8.494
 2438SOL    HW2 9212   4.519   6.447   8.344
 2439SOL     OW 9213   3.157   9.422   0.266
 2439SOL    HW1 9214   3.201   9.343   0.237
 2439SOL    HW2 9215   3.229   9.481   0.292
 2440SOL     OW 9216   5.298  10.379   3.693
 2440SOL    HW1 9217   5.346  10.462   3.695
 2440SOL    HW2 9218   5.324  10.338   3.611
 2441SOL     OW 9219   7.776  14.612   0.934
 2441SOL    HW1 9220   7.800  14.705   0.932
 2441SOL    HW2 9221   7.682  14.611   0.914
 2442SOL     OW 9222  11.401   0.645   0.762
 2442SOL    HW1 9223  11.375   0.574   0.702
 2442SOL    HW2 9224  11.490   0.668   0.735
 2443SOL     OW 9225   8.641   2.535  12.216
 2443SOL    HW1 9226   8.566   2.494  12.171
 2443SOL    HW2 9227   8.637   2.627  12.191
 2444SOL     OW 9228   3.880   6.481  10.057
 2444SOL    HW1 9229   3.950   6.482   9.991
 2444SOL    HW2 9230   3.869   6.573  10.082
 2445SOL     OW 9231  10.421   0.423  12.416
 2445SOL    HW1 9232  10.394   0.335  12.444
 2445SOL    HW2 9233  10.446   0.468  12.496
 2446SOL     OW 9234   4.896  13.978  13.977
 2446SOL    HW1 9235   4.969  13.920  13.957
 2446SOL    HW2 9236   4.921  14.021  14.059
 2447SOL     OW 9237  14.381   9.341  11.311
 2447SOL    HW1 9238  14.373   9.285  11.234
 2447SOL    HW2 9239  14.469   9.379  11.305
 2448SOL     OW 9240   2.712   5.459   5.807
 2448SOL    HW1 9241   2.629   5.432   5.769
 2448SOL    HW2 9242   2.714   5.554   5.799
 2449SOL     OW 9243   4.058   4.934   7.558
 2449SOL    HW1 9244   4.002   4.986   7.500
 2449SOL    HW2 9245   4.086   4.996   7.625
 2450SOL     OW 9246   1.868   9.892   6.778
 2450SOL    HW1 9247   1.874   9.818   6.838
 2450SOL    HW2 9248   1.903   9.858   6.695
 2451SOL     OW 9249  11.669  11.361  10.277
 2451SOL    HW1 9250  11.642  11.273  10.302
 2451SOL    HW2 9251  11.590  11.402  10.242
 2452SOL     OW 9252   0.654   2.306   4.807
 2452SOL    HW1 9253   0.690   2.281   4.893
 2452SOL    HW2 9254   0.568   2.265   4.804
 2453SOL     OW 9255  10.460   4.247   1.621
 2453SOL    HW1 9256  10.367   4.235   1.603
 2453SOL    HW2 9257  10.468   4.340   1.643
 2454SOL     OW 9258  13.605   0.282   9.919
 2454SOL    HW1 9259  13.622   0.328   9.837
 2454SOL    HW2 9260  13.572   0.349   9.978
 2455SOL     OW 9261  10.921  14.734  10.799
 2455SOL    HW1 9262  10.935  14.682  10.721
 2455SOL    HW2 9263  10.863  14.805  10.770
 2456SOL     OW 9264   1.537  14.420   4.431
 2456SOL    HW1 9265   1.455  14.374   4.417
 2456SOL    HW2 9266   1.594  14.391   4.360
 2457SOL     OW 9267   7.074   9.661   5.485
 2457SOL    HW1 9268   7.033   9.742   5.513
 2457SOL    HW2 9269   7.165   9.685   5.468
 2458SOL     OW 9270  12.664   0.523  13.909
 2458SOL    HW1 9271  12.753   0.556  13.922
 2458SOL    HW2 9272  12.657   0.447  13.967
 2459SOL     OW 9273   4.138   2.225   0.834
 2459SOL    HW1 9274   4.143   2.260   0.745
 2459SOL    HW2 9275   4.118   2.133   0.822
 2460SOL     OW 9276  10.187  12.568   5.239
 2460SOL    HW1 9277  10.125  12.500   5.211
 2460SOL    HW2 9278  10.270  12.521   5.250
 2461SOL     OW 9279  12.114  12.051   5.892
 2461SOL    HW1 9280  12.164  11.973   5.918
 2461SOL    HW2 9281  12.169  12.124   5.921
 2462SOL     OW 9282  13.027   8.910   9.494
 2462SOL    HW1 9283  13.043   8.890   9.402
 2462SOL    HW2 9284  13.024   8.825   9.537
 2463SOL     OW 9285   4.572  10.071  14.351
 2463SOL    HW1 9286   4.622  10.099  14.274
 2463SOL    HW2 9287   4.613   9.988  14.377
 2464SOL     OW 9288   2.977  11.346   8.429
 2464SOL    HW1 9289   3.043  11.368   8.495
 2464SOL    HW2 9290   2.902  11.401   8.452
 2465SOL     OW 9291   4.009  11.173   5.971
 2465SOL    HW1 9292   4.047  11.133   6.049
 2465SOL    HW2 9293   3.937  11.115   5.946
 2466SOL     OW 9294   1.892   9.469   0.392
 2466SOL    HW1 9295   1.921   9.524   0.320
 2466SOL    HW2 9296   1.854   9.529   0.455
 2467SOL     OW 9297  12.065   2.277   4.813
 2467SOL    HW1 9298  12.079   2.287   4.718
 2467SOL    HW2 9299  12.037   2.186   4.824
 2468SOL     OW 9300   5.179   8.259  13.280
 2468SOL    HW1 9301   5.168   8.176  13.234
 2468SOL    HW2 9302   5.274   8.273  13.281
 2469SOL     OW 9303   7.880   6.047  14.754
 2469SOL    HW1 9304   7.945   6.019  14.819
 2469SOL    HW2 9305   7.933   6.082  14.682
 2470SOL     OW 9306   7.306   3.077   8.453
 2470SOL    HW1 9307   7.349   3.102   8.371
 2470SOL    HW2 9308   7.235   3.141   8.463
 2471SOL     OW 9309   6.548   9.532   4.647
 2471SOL    HW1 9310   6.479   9.505   4.587
 2471SOL    HW2 9311   6.557   9.626   4.632
 2472SOL     OW 9312  13.209   9.289  10.903
 2472SOL    HW1 9313  13.174   9.213  10.857
 2472SOL    HW2 9314  13.144   9.308  10.971
 2473SOL     OW 9315  14.548   5.981   3.984
 2473SOL    HW1 9316  14.473   6.033   3.953
 2473SOL    HW2 9317  14.621   6.013   3.931
 2474SOL     OW 9318   8.752  12.353   5.473
 2474SOL    HW1 9319   8.782  12.441   5.495
 2474SOL    HW2 9320   8.747  12.352   5.378
 2475SOL     OW 9321  10.997  12.936   1.473
 2475SOL    HW1 9322  10.953  12.994   1.535
 2475SOL    HW2 9323  11.040  12.870   1.527
 2476SOL     OW 9324  11.321   4.049   3.421
 2476SOL    HW1 9325  11.366   4.021   3.341
 2476SOL    HW2 9326  11.369   4.127   3.449
 2477SOL     OW 9327   9.046   0.322   0.188
 2477SOL    HW1 9328   9.035   0.378   0.111
 2477SOL    HW2 9329   9.076   0.238   0.153
 2478SOL     OW 9330   5.019  14.639   7.247
 2478SOL    HW1 9331   5.074  14.571   7.209
 2478SOL    HW2 9332   5.081  14.702   7.285
 2479SOL     OW 9333  10.327  13.378  12.619
 2479SOL    HW1 9334  10.395  13.403  12.682
 2479SOL    HW2 9335  10.267  13.452  12.618
 2480SOL     OW 9336  13.290   4.163   0.622
 2480SOL    HW1 9337  13.280   4.095   0.556
 2480SOL    HW2 9338  13.380   4.154   0.652
 2481SOL     OW 9339  11.019   1.690   7.454
 2481SOL    HW1 9340  11.067   1.736   7.385
 2481SOL    HW2 9341  11.069   1.610   7.470
 2482SOL     OW 9342  12.526   3.492   1.153
 2482SOL    HW1 9343  12.545   3.453   1.067
 2482SOL    HW2 9344  12.608   3.532   1.180
 2483SOL     OW 9345   5.282   9.432  10.597
 2483SOL    HW1 9346   5.297   9.474  10.682
 2483SOL    HW2 9347   5.220   9.490  10.553
 2484SOL     OW 9348   2.961   7.112  11.986
 2484SOL    HW1 9349   2.892   7.065  11.939
 2484SOL    HW2 9350   3.035   7.050  11.987
 2485SOL     OW 9351  11.541  11.274  14.673
 2485SOL    HW1 9352  11.523  11.365  14.651
 2485SOL    HW2 9353  11.607  11.279  14.743
 2486SOL     OW 9354   9.606   8.759   4.783
 2486SOL    HW1 9355   9.571   8.794   4.700
 2486SOL    HW2 9356   9.617   8.666   4.767
 2487SOL     OW 9357   2.950  12.624  12.455
 2487SOL    HW1 9358   3.021  12.568  12.489
 2487SOL    HW2 9359   2.982  12.655  12.371
 2488SOL     OW 9360  13.310   2.377   3.550
 2488SOL    HW1 9361  13.388   2.401   3.599
 2488SOL    HW2 9362  13.344   2.332   3.472
 2489SOL     OW 9363   4.320   9.731  12.916
 2489SOL    HW1 9364   4.341   9.824  12.911
 2489SOL    HW2 9365   4.225   9.727  12.904
 2490SOL     OW 9366   9.128   6.983   8.338
 2490SOL    HW1 9367   9.040   6.969   8.372
 2490SOL    HW2 9368   9.115   7.028   8.254
 2491SOL     OW 9369   1.538  11.583  11.489
 2491SOL    HW1 9370   1.615  11.554  11.440
 2491SOL    HW2 9371   1.557  11.560  11.580
 2492SOL     OW 9372   4.993   0.321  12.451
 2492SOL    HW1 9373   4.982   0.262  12.525
 2492SOL    HW2 9374   4.904   0.341  12.422
 2493SOL     OW 9375   6.437   8.237   2.992
 2493SOL    HW1 9376   6.356   8.286   3.004
 2493SOL    HW2 9377   6.506   8.302   3.000
 2494SOL     OW 9378  11.222  11.606   4.770
 2494SOL    HW1 9379  11.220  11.511   4.760
 2494SOL    HW2 9380  11.306  11.624   4.812
 2495SOL     OW 9381  12.742  11.227   2.573
 2495SOL    HW1 9382  12.707  11.194   2.655
 2495SOL    HW2 9383  12.837  11.231   2.588
 2496SOL     OW 9384  14.062   8.696   6.859
 2496SOL    HW1 9385  14.109   8.750   6.796
 2496SOL    HW2 9386  13.982   8.670   6.812
 2497SOL     OW 9387   8.517  11.575   7.558
 2497SOL    HW1 9388   8.564  11.506   7.510
 2497SOL    HW2 9389   8.517  11.650   7.499
 2498SOL     OW 9390  11.734   4.680   9.340
 2498SOL    HW1 9391  11.816   4.704   9.383
 2498SOL    HW2 9392  11.742   4.716   9.252
 2499SOL     OW 9393   0.159   7.312   2.456
 2499SOL    HW1 9394   0.185   7.366   2.530
 2499SOL    HW2 9395   0.209   7.347   2.382
 2500SOL     OW 9396   9.382   2.700   2.482
 2500SOL    HW1 9397   9.347   2.729   2.566
 2500SOL    HW2 9398   9.476   2.692   2.497
 2501SOL     OW 9399   5.916   7.764  10.911
 2501SOL    HW1 9400   5.997   7.798  10.949
 2501SOL    HW2 9401   5.941   7.735  10.823
 2502SOL     OW 9402  14.308  10.161   6.894
 2502SOL    HW1 9403  14.340  10.250   6.905
 2502SOL    HW2 9404  14.385  10.111   6.866
 2503SOL     OW 9405   8.468   4.464   4.757
 2503SOL    HW1 9406   8.438   4.441   4.669
 2503SOL    HW2 9407   8.388   4.484   4.806
 2504SOL     OW 9408   8.396   7.014  11.773
 2504SOL    HW1 9409   8.467   6.974  11.823
 2504SOL    HW2 9410   8.363   6.942  11.717
 2505SOL     OW 9411  14.538  12.629   9.005
 2505SOL    HW1 9412  14.480  12.568   8.959
 2505SOL    HW2 9413  14.489  12.711   9.009
 2506SOL     OW 9414   4.147   3.574   5.852
 2506SOL    HW1 9415   4.206   3.623   5.794
 2506SOL    HW2 9416   4.091   3.641   5.892
 2507SOL     OW 9417   1.847  12.038  11.826
 2507SOL    HW1 9418   1.753  12.054  11.813
 2507SOL    HW2 9419   1.889  12.083  11.752
 2508SOL     OW 9420   3.072   1.096   2.935
 2508SOL    HW1 9421   3.061   1.002   2.948
 2508SOL    HW2 9422   3.027   1.115   2.852
 2509SOL     OW 9423   3.431   5.783  13.132
 2509SOL    HW1 9424   3.472   5.771  13.218
 2509SOL    HW2 9425   3.337   5.787  13.150
 2510SOL     OW 9426   4.011  11.423  11.723
 2510SOL    HW1 9427   4.045  11.418  11.812
 2510SOL    HW2 9428   4.083  11.460  11.672
 2511SOL     OW 9429  11.839  12.069   9.809
 2511SOL    HW1 9430  11.931  12.090   9.793
 2511SOL    HW2 9431  11.805  12.043   9.723
 2512SOL     OW 9432   5.974   6.725   8.143
 2512SOL    HW1 9433   5.964   6.631   8.125
 2512SOL    HW2 9434   5.958   6.733   8.237
 2513SOL     OW 9435   7.984  12.354  10.707
 2513SOL    HW1 9436   7.931  12.277  10.683
 2513SOL    HW2 9437   7.923  12.427  10.700
 2514SOL     OW 9438  10.731   0.752  11.314
 2514SOL    HW1 9439  10.804   0.699  11.344
 2514SOL    HW2 9440  10.772   0.824  11.266
 2515SOL     OW 9441  13.098  10.314  10.330
 2515SOL    HW1 9442  13.160  10.311  10.258
 2515SOL    HW2 9443  13.033  10.247  10.309
 2516SOL     OW 9444   0.212   5.312  13.173
 2516SOL    HW1 9445   0.268   5.369  13.225
 2516SOL    HW2 9446   0.200   5.358  13.090
 2517SOL     OW 9447  14.692  10.619   0.830
 2517SOL    HW1 9448  14.698  10.613   0.926
 2517SOL    HW2 9449  14.660  10.708   0.814
 2518SOL     OW 9450  11.759   1.573  14.196
 2518SOL    HW1 9451  11.702   1.601  14.268
 2518SOL    HW2 9452  11.844   1.610  14.217
 2519SOL     OW 9453   5.876  10.117  12.508
 2519SOL    HW1 9454   5.794  10.111  12.557
 2519SOL    HW2 9455   5.850  10.144  12.420
 2520SOL     OW 9456  11.888   8.038   6.401
 2520SOL    HW1 9457  11.830   8.065   6.331
 2520SOL    HW2 9458  11.920   7.951   6.375
 2521SOL     OW 9459  12.622  14.119   9.622
 2521SOL    HW1 9460  12.691  14.052   9.615
 2521SOL    HW2 9461  12.555  14.078   9.676
 2522SOL     OW 9462   9.321  14.638   9.565
 2522SOL    HW1 9463   9.245  14.678   9.608
 2522SOL    HW2 9464   9.393  14.655   9.625
 2523SOL     OW 9465   2.626   6.523   9.182
 2523SOL    HW1 9466   2.557   6.474   9.226
 2523SOL    HW2 9467   2.707   6.495   9.225
 2524SOL     OW 9468  12.558  13.011  11.839
 2524SOL    HW1 9469  12.594  13.095  11.866
 2524SOL    HW2 9470  12.485  12.995  11.898
 2525SOL     OW 9471   7.959   4.600   3.351
 2525SOL    HW1 9472   7.999   4.642   3.427
 2525SOL    HW2 9473   7.914   4.524   3.386
 2526SOL     OW 9474   2.536   2.853  13.431
 2526SOL    HW1 9475   2.575   2.880  13.348
 2526SOL    HW2 9476   2.443   2.870  13.421
 2527SOL     OW 9477   4.783   9.443   2.337
 2527SOL    HW1 9478   4.857   9.385   2.353
 2527SOL    HW2 9479   4.754   9.422   2.249
 2528SOL     OW 9480   0.691   1.548   0.362
 2528SOL    HW1 9481   0.723   1.543   0.272
 2528SOL    HW2 9482   0.770   1.561   0.414
 2529SOL     OW 9483   8.989  13.263   3.902
 2529SOL    HW1 9484   9.028  13.347   3.926
 2529SOL    HW2 9485   9.009  13.252   3.809
 2530SOL     OW 9486   8.606  11.123   7.971
 2530SOL    HW1 9487   8.570  11.046   8.015
 2530SOL    HW2 9488   8.536  11.188   7.975
 2531SOL     OW 9489  10.811   8.451   1.103
 2531SOL    HW1 9490  10.797   8.386   1.171
 2531SOL    HW2 9491  10.875   8.512   1.141
 2532SOL     OW 9492  13.133   3.419   0.168
 2532SOL    HW1 9493  13.210   3.382   0.125
 2532SOL    HW2 9494  13.161   3.435   0.258
 2533SOL     OW 9495  13.239  14.142  14.530
 2533SOL    HW1 9496  13.221  14.049  14.515
 2533SOL    HW2 9497  13.204  14.159  14.617
 2534SOL     OW 9498   0.719   9.277   0.174
 2534SOL    HW1 9499   0.769   9.277   0.256
 2534SOL    HW2 9500   0.628   9.278   0.201
 2535SOL     OW 9501  12.269   8.674   7.642
 2535SOL    HW1 9502  12.292   8.766   7.629
 2535SOL    HW2 9503  12.209   8.674   7.717
 2536SOL     OW 9504  10.198   7.758  10.874
 2536SOL    HW1 9505  10.158   7.805  10.948
 2536SOL    HW2 9506  10.255   7.693  10.915
 2537SOL     OW 9507   2.285   0.988  12.042
 2537SOL    HW1 9508   2.220   1.016  12.107
 2537SOL    HW2 9509   2.327   1.069  12.013
 2538SOL     OW 9510   4.788  11.827   3.201
 2538SOL    HW1 9511   4.804  11.870   3.117
 2538SOL    HW2 9512   4.705  11.862   3.231
 2539SOL     OW 9513  10.520  11.024   5.429
 2539SOL    HW1 9514  10.442  10.982   5.465
 2539SOL    HW2 9515  10.509  11.017   5.334
 2540SOL     OW 9516   2.381   2.142  12.416
 2540SOL    HW1 9517   2.326   2.220  12.402
 2540SOL    HW2 9518   2.320   2.075  12.446
 2541SOL     OW 9519   0.666  10.670   9.806
 2541SOL    HW1 9520   0.707  10.756   9.791
 2541SOL    HW2 9521   0.588  10.671   9.750
 2542SOL     OW 9522   4.411   1.665  13.583
 2542SOL    HW1 9523   4.379   1.575  13.591
 2542SOL    HW2 9524   4.506   1.655  13.571
 2543SOL     OW 9525   2.265  14.718  10.027
 2543SOL    HW1 9526   2.315  14.718  10.108
 2543SOL    HW2 9527   2.275  14.806   9.992
 2544SOL     OW 9528   8.757  13.867   3.166
 2544SOL    HW1 9529   8.815  13.800   3.131
 2544SOL    HW2 9530   8.721  13.828   3.246
 2545SOL     OW 9531  11.602   3.299  10.710
 2545SOL    HW1 9532  11.597   3.385  10.667
 2545SOL    HW2 9533  11.628   3.239  10.639
 2546SOL     OW 9534   5.349   0.396  13.859
 2546SOL    HW1 9535   5.254   0.400  13.853
 2546SOL    HW2 9536   5.378   0.485  13.842
 2547SOL     OW 9537   2.229   0.365  14.612
 2547SOL    HW1 9538   2.151   0.420  14.606
 2547SOL    HW2 9539   2.299   0.426  14.637
 2548SOL     OW 9540  10.050   9.680  13.122
 2548SOL    HW1 9541  10.087   9.698  13.036
 2548SOL    HW2 9542   9.974   9.738  13.127
 2549SOL     OW 9543   7.501   9.350  13.578
 2549SOL    HW1 9544   7.503   9.442  13.554
 2549SOL    HW2 9545   7.577   9.312  13.535
 2550SOL     OW 9546  14.441   2.142  13.962
 2550SOL    HW1 9547  14.401   2.217  14.007
 2550SOL    HW2 9548  14.448   2.074  14.029
 2551SOL     OW 9549   1.367   6.407   8.570
 2551SOL    HW1 9550   1.434   6.366   8.516
 2551SOL    HW2 9551   1.309   6.451   8.507
 2552SOL     OW 9552  12.216  10.494   0.490
 2552SOL    HW1 9553  12.207  10.582   0.526
 2552SOL    HW2 9554  12.128  10.457   0.494
 2553SOL     OW 9555   4.043   1.116   3.827
 2553SOL    HW1 9556   3.948   1.101   3.833
 2553SOL    HW2 9557   4.076   1.093   3.914
 2554SOL     OW 9558   2.298   1.004   6.298
 2554SOL    HW1 9559   2.282   0.984   6.390
 2554SOL    HW2 9560   2.225   1.061   6.273
 2555SOL     OW 9561  10.945  12.661   0.071
 2555SOL    HW1 9562  11.003  12.737   0.075
 2555SOL    HW2 9563  10.910  12.654   0.160
 2556SOL     OW 9564   6.030   5.720  13.776
 2556SOL    HW1 9565   6.045   5.815  13.783
 2556SOL    HW2 9566   6.112   5.681  13.808
 2557SOL     OW 9567   3.414   5.630   0.412
 2557SOL    HW1 9568   3.459   5.546   0.412
 2557SOL    HW2 9569   3.483   5.695   0.398
 2558SOL     OW 9570  13.612   0.516   5.897
 2558SOL    HW1 9571  13.605   0.583   5.829
 2558SOL    HW2 9572  13.660   0.558   5.968
 2559SOL     OW 9573   6.710   4.612  13.698
 2559SOL    HW1 9574   6.790   4.614  13.646
 2559SOL    HW2 9575   6.690   4.518  13.706
 2560SOL     OW 9576   5.137   2.401   8.294
 2560SOL    HW1 9577   5.230   2.391   8.312
 2560SOL    HW2 9578   5.111   2.476   8.347
 2561SOL     OW 9579   2.811  13.274   6.439
 2561SOL    HW1 9580   2.740  13.210   6.432
 2561SOL    HW2 9581   2.781  13.337   6.504
 2562SOL     OW 9582   2.031   5.261   0.073
 2562SOL    HW1 9583   2.046   5.171   0.043
 2562SOL    HW2 9584   2.049   5.258   0.167
 2563SOL     OW 9585  13.538  10.575  10.017
 2563SOL    HW1 9586  13.543  10.523   9.936
 2563SOL    HW2 9587  13.447  10.567  10.045
 2564SOL     OW 9588   7.165  13.029   3.460
 2564SOL    HW1 9589   7.238  13.030   3.521
 2564SOL    HW2 9590   7.132  13.119   3.459
 2565SOL     OW 9591  11.018   5.211   2.002
 2565SOL    HW1 9592  11.095   5.154   2.003
 2565SOL    HW2 9593  11.048   5.292   2.042
 2566SOL     OW 9594  14.584  13.612  10.276
 2566SOL    HW1 9595  14.670  13.614  10.234
 2566SOL    HW2 9596  14.596  13.556  10.353
 2567SOL     OW 9597  12.814   9.735   8.808
 2567SOL    HW1 9598  12.783   9.824   8.795
 2567SOL    HW2 9599  12.898   9.745   8.853
 2568SOL     OW 9600   4.081   6.133  12.491
 2568SOL    HW1 9601   4.127   6.192  12.551
 2568SOL    HW2 9602   4.020   6.085  12.548
 2569SOL     OW 9603  12.830   2.966   7.518
 2569SOL    HW1 9604  12.828   2.871   7.506
 2569SOL    HW2 9605  12.741   2.988   7.546
 2570SOL     OW 9606   9.147  10.609   6.669
 2570SOL    HW1 9607   9.228  10.632   6.715
 2570SOL    HW2 9608   9.126  10.687   6.617
 2571SOL     OW 9609  11.714  11.667   1.997
 2571SOL    HW1 9610  11.640  11.724   1.973
 2571SOL    HW2 9611  11.674  11.597   2.048
 2572SOL     OW 9612  14.397  13.457  11.289
 2572SOL    HW1 9613  14.413  13.544  11.327
 2572SOL    HW2 9614  14.359  13.476  11.203
 2573SOL     OW 9615   6.722   4.972   4.153
 2573SOL    HW1 9616   6.748   4.903   4.214
 2573SOL    HW2 9617   6.646   4.936   4.107
 2574SOL     OW 9618   8.164   2.530  14.625
 2574SOL    HW1 9619   8.244   2.483  14.648
 2574SOL    HW2 9620   8.191   2.622  14.620
 2575SOL     OW 9621  14.785   8.022   6.296
 2575SOL    HW1 9622  14.747   8.020   6.208
 2575SOL    HW2 9623  14.836   7.941   6.302
 2576SOL     OW 9624   8.337   6.539   2.455
 2576SOL    HW1 9625   8.273   6.550   2.525
 2576SOL    HW2 9626   8.327   6.618   2.402
 2577SOL     OW 9627  12.068   7.793  11.240
 2577SOL    HW1 9628  12.014   7.769  11.165
 2577SOL    HW2 9629  12.046   7.885  11.257
 2578SOL     OW 9630   3.162   4.319   1.004
 2578SOL    HW1 9631   3.180   4.397   0.951
 2578SOL    HW2 9632   3.068   4.321   1.020
 2579SOL     OW 9633   7.824   0.326   9.098
 2579SOL    HW1 9634   7.807   0.359   9.186
 2579SOL    HW2 9635   7.770   0.247   9.091
 2580SOL     OW 9636  12.057   4.198   1.738
 2580SOL    HW1 9637  11.998   4.122   1.731
 2580SOL    HW2 9638  12.144   4.159   1.752
 2581SOL     OW 9639   6.017   2.921  12.234
 2581SOL    HW1 9640   5.986   2.929  12.325
 2581SOL    HW2 9641   6.044   3.010  12.211
 2582SOL     OW 9642   4.824   5.831   8.031
 2582SOL    HW1 9643   4.870   5.754   8.065
 2582SOL    HW2 9644   4.890   5.900   8.030
 2583SOL     OW 9645   2.878   1.988   5.251
 2583SOL    HW1 9646   2.972   1.972   5.255
 2583SOL    HW2 9647   2.869   2.062   5.191
 2584SOL     OW 9648  14.287   5.930  14.264
 2584SOL    HW1 9649  14.224   5.998  14.288
 2584SOL    HW2 9650  14.346   5.925  14.339
 2585SOL     OW 9651   3.193  10.512   7.859
 2585SOL    HW1 9652   3.269  10.474   7.902
 2585SOL    HW2 9653   3.164  10.444   7.798
 2586SOL     OW 9654   0.678   3.203   5.375
 2586SOL    HW1 9655   0.627   3.177   5.452
 2586SOL    HW2 9656   0.746   3.136   5.366
 2587SOL     OW 9657  12.772   4.410   7.751
 2587SOL    HW1 9658  12.790   4.476   7.818
 2587SOL    HW2 9659  12.682   4.427   7.725
 2588SOL     OW 9660   5.919   2.989   1.075
 2588SOL    HW1 9661   5.922   2.982   0.980
 2588SOL    HW2 9662   5.828   2.973   1.098
 2589SOL     OW 9663   6.099   0.118   8.707
 2589SOL    HW1 9664   6.109   0.211   8.688
 2589SOL    HW2 9665   6.086   0.077   8.622
 2590SOL     OW 9666  12.800  12.809   7.642
 2590SOL    HW1 9667  12.872  12.817   7.704
 2590SOL    HW2 9668  12.786  12.899   7.610
 2591SOL     OW 9669  12.913  12.169   5.278
 2591SOL    HW1 9670  12.968  12.106   5.325
 2591SOL    HW2 9671  12.835  12.178   5.333
 2592SOL     OW 9672   8.484   3.661  11.311
 2592SOL    HW1 9673   8.405   3.678  11.260
 2592SOL    HW2 9674   8.531   3.744  11.310
 2593SOL     OW 9675  11.257  11.313   8.866
 2593SOL    HW1 9676  11.249  11.409   8.869
 2593SOL    HW2 9677  11.288  11.294   8.778
 2594SOL     OW 9678   1.792   2.132   5.565
 2594SOL    HW1 9679   1.800   2.071   5.638
 2594SOL    HW2 9680   1.868   2.113   5.510
 2595SOL     OW 9681  12.489  14.577   7.387
 2595SOL    HW1 9682  12.516  14.539   7.471
 2595SOL    HW2 9683  12.537  14.660   7.382
 2596SOL     OW 9684   8.891   6.738   1.840
 2596SOL    HW1 9685   8.941   6.820   1.848
 2596SOL    HW2 9686   8.889   6.703   1.929
 2597SOL     OW 9687   4.839  13.939  10.151
 2597SOL    HW1 9688   4.846  13.891  10.069
 2597SOL    HW2 9689   4.868  14.027  10.130
 2598SOL     OW 9690  10.553  14.607   2.203
 2598SOL    HW1 9691  10.458  14.594   2.195
 2598SOL    HW2 9692  10.562  14.697   2.234
 2599SOL     OW 9693  12.645   6.515   5.405
 2599SOL    HW1 9694  12.706   6.454   5.363
 2599SOL    HW2 9695  12.670   6.601   5.371
 2600SOL     OW 9696   3.192  13.571   3.882
 2600SOL    HW1 9697   3.219  13.522   3.803
 2600SOL    HW2 9698   3.271  13.614   3.912
 2601SOL     OW 9699  12.422   4.366   0.598
 2601SOL    HW1 9700  12.451   4.436   0.540
 2601SOL    HW2 9701  12.349   4.325   0.553
 2602SOL     OW 9702   7.610   5.959   5.796
 2602SOL    HW1 9703   7.588   6.005   5.715
 2602SOL    HW2 9704   7.565   6.007   5.864
 2603SOL     OW 9705  13.473   7.269   2.798
 2603SOL    HW1 9706  13.434   7.350   2.765
 2603SOL    HW2 9707  13.437   7.200   2.743
 2604SOL     OW 9708   4.018   4.343   8.737
 2604SOL    HW1 9709   4.101   4.362   8.694
 2604SOL    HW2 9710   3.989   4.427   8.772
 2605SOL     OW 9711  10.115   7.802   1.885
 2605SOL    HW1 9712  10.064   7.723   1.867
 2605SOL    HW2 9713  10.145   7.791   1.975
 2606SOL     OW 9714  11.562  14.654  10.209
 2606SOL    HW1 9715  11.509  14.648  10.129
 2606SOL    HW2 9716  11.643  14.695  10.181
 2607SOL     OW 9717   6.811   8.808  12.681
 2607SOL    HW1 9718   6.760   8.727  12.681
 2607SOL    HW2 9719   6.877   8.794  12.613
 2608SOL     OW 9720  10.905   4.186   9.081
 2608SOL    HW1 9721  10.826   4.237   9.099
 2608SOL    HW2 9722  10.882   4.131   9.006
 2609SOL     OW 9723   6.581  14.803   2.035
 2609SOL    HW1 9724   6.541  14.841   1.956
 2609SOL    HW2 9725   6.571   0.002   2.102
 2610SOL     OW 9726   3.069  13.190  14.256
 2610SOL    HW1 9727   3.115  13.125  14.309
 2610SOL    HW2 9728   3.109  13.274  14.282
 2611SOL     OW 9729   7.061   6.417  14.640
 2611SOL    HW1 9730   7.134   6.395  14.583
 2611SOL    HW2 9731   7.050   6.341  14.697
 2612SOL     OW 9732   3.939   9.590   4.762
 2612SOL    HW1 9733   3.929   9.587   4.667
 2612SOL    HW2 9734   3.932   9.499   4.790
 2613SOL     OW 9735   3.662   9.947  10.813
 2613SOL    HW1 9736   3.729   9.895  10.770
 2613SOL    HW2 9737   3.699  10.036  10.816
 2614SOL     OW 9738   5.084   6.788   1.075
 2614SOL    HW1 9739   5.078   6.701   1.035
 2614SOL    HW2 9740   5.148   6.777   1.146
 2615SOL     OW 9741   4.552  12.386  13.599
 2615SOL    HW1 9742   4.641  12.356  13.619
 2615SOL    HW2 9743   4.565  12.465  13.547
 2616SOL     OW 9744  13.445   4.018   7.530
 2616SOL    HW1 9745  13.488   3.989   7.450
 2616SOL    HW2 9746  13.504   3.991   7.600
 2617SOL     OW 9747   1.605   1.992   9.066
 2617SOL    HW1 9748   1.693   1.956   9.068
 2617SOL    HW2 9749   1.611   2.073   9.118
 2618SOL     OW 9750  13.681  13.720   1.094
 2618SOL    HW1 9751  13.594  13.731   1.056
 2618SOL    HW2 9752  13.712  13.809   1.111
 2619SOL     OW 9753   6.795  11.561   6.825
 2619SOL    HW1 9754   6.699  11.556   6.828
 2619SOL    HW2 9755   6.813  11.627   6.758
 2620SOL     OW 9756   1.278  13.423   8.688
 2620SOL    HW1 9757   1.187  13.419   8.718
 2620SOL    HW2 9758   1.329  13.427   8.768
 2621SOL     OW 9759  14.623   0.296   1.023
 2621SOL    HW1 9760  14.699   0.317   1.076
 2621SOL    HW2 9761  14.622   0.201   1.018
 2622SOL     OW 9762  14.410   4.973   7.769
 2622SOL    HW1 9763  14.326   5.019   7.776
 2622SOL    HW2 9764  14.385   4.880   7.764
 2623SOL     OW 9765   1.099   8.048   3.047
 2623SOL    HW1 9766   1.050   8.048   2.964
 2623SOL    HW2 9767   1.066   8.124   3.094
 2624SOL     OW 9768   1.962  10.641   0.091
 2624SOL    HW1 9769   2.027  10.710   0.099
 2624SOL    HW2 9770   1.880  10.682   0.118
 2625SOL     OW 9771  11.172   5.115   0.422
 2625SOL    HW1 9772  11.224   5.161   0.487
 2625SOL    HW2 9773  11.165   5.176   0.348
 2626SOL     OW 9774   2.670   8.036  10.953
 2626SOL    HW1 9775   2.630   7.950  10.940
 2626SOL    HW2 9776   2.711   8.056  10.869
 2627SOL     OW 9777   6.254   1.357   4.994
 2627SOL    HW1 9778   6.232   1.266   5.015
 2627SOL    HW2 9779   6.294   1.391   5.073
 2628SOL     OW 9780   6.325  13.924   2.253
 2628SOL    HW1 9781   6.235  13.909   2.224
 2628SOL    HW2 9782   6.349  14.008   2.216
 2629SOL     OW 9783   6.364   2.923   2.580
 2629SOL    HW1 9784   6.423   2.887   2.513
 2629SOL    HW2 9785   6.411   2.908   2.663
 2630SOL     OW 9786   9.858   7.511   7.568
 2630SOL    HW1 9787   9.881   7.603   7.551
 2630SOL    HW2 9788   9.895   7.463   7.494
 2631SOL     OW 9789   8.761   6.217  10.113
 2631SOL    HW1 9790   8.678   6.257  10.089
 2631SOL    HW2 9791   8.821   6.291  10.123
 2632SOL     OW 9792   5.654   4.296   7.547
 2632SOL    HW1 9793   5.715   4.303   7.620
 2632SOL    HW2 9794   5.664   4.378   7.499
 2633SOL     OW 9795  10.314  11.534   0.970
 2633SOL    HW1 9796  10.290  11.562   1.058
 2633SOL    HW2 9797  10.408  11.517   0.975
 2634SOL     OW 9798   7.288   9.902  12.915
 2634SOL    HW1 9799   7.305   9.811  12.892
 2634SOL    HW2 9800   7.228   9.933  12.848
 2635SOL     OW 9801  10.155   6.181   3.349
 2635SOL    HW1 9802  10.219   6.252   3.343
 2635SOL    HW2 9803  10.116   6.191   3.436
 2636SOL     OW 9804   7.099   8.062   7.532
 2636SOL    HW1 9805   7.047   8.099   7.603
 2636SOL    HW2 9806   7.133   7.980   7.567
 2637SOL     OW 9807   8.125   7.527   2.136
 2637SOL    HW1 9808   8.157   7.604   2.183
 2637SOL    HW2 9809   8.164   7.453   2.182
 2638SOL     OW 9810  11.009   7.205  10.351
 2638SOL    HW1 9811  11.050   7.130  10.394
 2638SOL    HW2 9812  10.933   7.226  10.405
 2639SOL     OW 9813  12.380  10.266  11.030
 2639SOL    HW1 9814  12.382  10.202  10.958
 2639SOL    HW2 9815  12.287  10.286  11.041
 2640SOL     OW 9816   1.542   1.702  13.925
 2640SOL    HW1 9817   1.632   1.710  13.895
 2640SOL    HW2 9818   1.529   1.775  13.984
 2641SOL     OW 9819   2.384   3.824  13.985
 2641SOL    HW1 9820   2.413   3.813  14.075
 2641SOL    HW2 9821   2.375   3.919  13.974
 2642SOL     OW 9822   5.977  10.030  10.743
 2642SOL    HW1 9823   6.002  10.028  10.836
 2642SOL    HW2 9824   6.040  10.089  10.702
 2643SOL     OW 9825   2.651   7.756   1.014
 2643SOL    HW1 9826   2.656   7.661   1.003
 2643SOL    HW2 9827   2.579   7.770   1.075
 2644SOL     OW 9828  11.507  11.843   7.669
 2644SOL    HW1 9829  11.418  11.874   7.688
 2644SOL    HW2 9830  11.549  11.917   7.625
 2645SOL     OW 9831   9.962  14.380   4.596
 2645SOL    HW1 9832   9.974  14.439   4.521
 2645SOL    HW2 9833  10.026  14.311   4.582
 2646SOL     OW 9834  13.602   7.229  12.974
 2646SOL    HW1 9835  13.639   7.222  12.886
 2646SOL    HW2 9836  13.549   7.149  12.984
 2647SOL     OW 9837   2.683   4.825  10.450
 2647SOL    HW1 9838   2.672   4.730  10.446
 2647SOL    HW2 9839   2.603   4.857  10.491
 2648SOL     OW 9840  13.328   0.747   1.205
 2648SOL    HW1 9841  13.364   0.757   1.293
 2648SOL    HW2 9842  13.374   0.672   1.168
 2649SOL     OW 9843  13.898   0.182   2.933
 2649SOL    HW1 9844  13.833   0.176   2.862
 2649SOL    HW2 9845  13.981   0.194   2.887
 2650SOL     OW 9846  13.289   2.820   2.800
 2650SOL    HW1 9847  13.273   2.749   2.738
 2650SOL    HW2 9848  13.208   2.871   2.800
 2651SOL     OW 9849  13.426   2.375  14.731
 2651SOL    HW1 9850  13.507   2.396  14.685
 2651SOL    HW2 9851  13.437   2.285  14.762
 2652SOL     OW 9852   3.645   5.302  13.320
 2652SOL    HW1 9853   3.642   5.363  13.246
 2652SOL    HW2 9854   3.672   5.219  13.281
 2653SOL     OW 9855   9.347   2.843   2.740
 2653SOL    HW1 9856   9.292   2.903   2.791
 2653SOL    HW2 9857   9.429   2.839   2.789
 2654SOL     OW 9858   4.535  11.564   8.088
 2654SOL    HW1 9859   4.550  11.555   8.182
 2654SOL    HW2 9860   4.440  11.575   8.080
 2655SOL     OW 9861   0.620   3.625   4.153
 2655SOL    HW1 9862   0.667   3.590   4.229
 2655SOL    HW2 9863   0.531   3.592   4.163
 2656SOL     OW 9864   5.969  10.364   0.163
 2656SOL    HW1 9865   5.950  10.281   0.120
 2656SOL    HW2 9866   6.052  10.349   0.208
 2657SOL     OW 9867   4.708  12.822   6.804
 2657SOL    HW1 9868   4.668  12.749   6.850
 2657SOL    HW2 9869   4.708  12.795   6.712
 2658SOL     OW 9870   5.173   8.797  12.179
 2658SOL    HW1 9871   5.196   8.865  12.243
 2658SOL    HW2 9872   5.108   8.743  12.224
 2659SOL     OW 9873   5.338   5.940   6.036
 2659SOL    HW1 9874   5.424   5.958   5.999
 2659SOL    HW2 9875   5.276   5.982   5.976
 2660SOL     OW 9876   9.556   0.529   6.715
 2660SOL    HW1 9877   9.477   0.501   6.762
 2660SOL    HW2 9878   9.622   0.464   6.739
 2661SOL     OW 9879  14.821   8.235   3.780
 2661SOL    HW1 9880  14.813   8.222   3.874
 2661SOL    HW2 9881   0.034   8.283   3.770
 2662SOL     OW 9882   0.777  14.525  10.988
 2662SOL    HW1 9883   0.826  14.452  10.951
 2662SOL    HW2 9884   0.763  14.584  10.914
 2663SOL     OW 9885  10.288   1.251   3.148
 2663SOL    HW1 9886  10.324   1.339   3.156
 2663SOL    HW2 9887  10.304   1.211   3.234
 2664SOL     OW 9888  13.594   6.017   0.887
 2664SOL    HW1 9889  13.578   6.040   0.795
 2664SOL    HW2 9890  13.632   5.930   0.884
 2665SOL     OW 9891  10.233  11.919   2.664
 2665SOL    HW1 9892  10.296  11.967   2.612
 2665SOL    HW2 9893  10.281  11.844   2.698
 2666SOL     OW 9894   2.251  11.361   4.275
 2666SOL    HW1 9895   2.300  11.358   4.357
 2666SOL    HW2 9896   2.196  11.282   4.278
 2667SOL     OW 9897   0.193   6.320   7.986
 2667SOL    HW1 9898   0.216   6.403   7.945
 2667SOL    HW2 9899   0.139   6.276   7.920
 2668SOL     OW 9900   1.991   7.591   0.928
 2668SOL    HW1 9901   2.077   7.632   0.928
 2668SOL    HW2 9902   2.000   7.514   0.872
 2669SOL     OW 9903  10.184   9.157   8.741
 2669SOL    HW1 9904  10.212   9.186   8.828
 2669SOL    HW2 9905  10.109   9.100   8.758
 2670SOL     OW 9906   0.696   5.022   6.747
 2670SOL    HW1 9907   0.653   5.094   6.701
 2670SOL    HW2 9908   0.751   5.064   6.813
 2671SOL     OW 9909   9.744   1.894  13.995
 2671SOL    HW1 9910   9.829   1.891  13.951
 2671SOL    HW2 9911   9.760   1.944  14.076
 2672SOL     OW 9912   9.594  11.281  10.274
 2672SOL    HW1 9913   9.501  11.300  10.287
 2672SOL    HW2 9914   9.597  11.188  10.255
 2673SOL     OW 9915   7.138  12.555   6.815
 2673SOL    HW1 9916   7.111  12.464   6.825
 2673SOL    HW2 9917   7.092  12.602   6.885
 2674SOL     OW 9918  14.284   7.142   6.723
 2674SOL    HW1 9919  14.313   7.132   6.814
 2674SOL    HW2 9920  14.196   7.179   6.730
 2675SOL     OW 9921   3.172   3.568   1.091
 2675SOL    HW1 9922   3.121   3.639   1.129
 2675SOL    HW2 9923   3.139   3.560   1.001
 2676SOL     OW 9924   1.371   5.166  10.720
 2676SOL    HW1 9925   1.322   5.220  10.782
 2676SOL    HW2 9926   1.456   5.209  10.714
 2677SOL     OW 9927   6.356   6.854   4.005
 2677SOL    HW1 9928   6.346   6.845   4.100
 2677SOL    HW2 9929   6.317   6.774   3.969
 2678SOL     OW 9930   7.778  10.914   1.567
 2678SOL    HW1 9931   7.768  10.899   1.473
 2678SOL    HW2 9932   7.805  10.829   1.602
 2679SOL     OW 9933   9.738   8.607   7.918
 2679SOL    HW1 9934   9.710   8.547   7.848
 2679SOL    HW2 9935   9.663   8.611   7.977
 2680SOL     OW 9936   3.314  12.280   0.869
 2680SOL    HW1 9937   3.271  12.225   0.935
 2680SOL    HW2 9938   3.352  12.218   0.807
 2681SOL     OW 9939   5.355   4.522  12.333
 2681SOL    HW1 9940   5.281   4.537  12.392
 2681SOL    HW2 9941   5.431   4.518  12.392
 2682SOL     OW 9942   5.771   2.072   8.766
 2682SOL    HW1 9943   5.809   2.128   8.834
 2682SOL    HW2 9944   5.831   1.998   8.758
 2683SOL     OW 9945  12.843   4.135   0.239
 2683SOL    HW1 9946  12.933   4.146   0.209
 2683SOL    HW2 9947  12.789   4.164   0.165
 2684SOL     OW 9948   4.868  12.892   7.620
 2684SOL    HW1 9949   4.792  12.948   7.635
 2684SOL    HW2 9950   4.928  12.945   7.568
 2685SOL     OW 9951   6.538   7.758   4.021
 2685SOL    HW1 9952   6.485   7.683   3.992
 2685SOL    HW2 9953   6.582   7.788   3.941
 2686SOL     OW 9954   2.498   6.035   4.481
 2686SOL    HW1 9955   2.517   5.981   4.557
 2686SOL    HW2 9956   2.577   6.031   4.427
 2687SOL     OW 9957   2.814   6.176  12.262
 2687SOL    HW1 9958   2.764   6.116  12.317
 2687SOL    HW2 9959   2.832   6.251  12.318
 2688SOL     OW 9960   3.198   8.777  12.142
 2688SOL    HW1 9961   3.136   8.704  12.149
 2688SOL    HW2 9962   3.236   8.785  12.230
 2689SOL     OW 9963   5.586   2.212   5.493
 2689SOL    HW1 9964   5.531   2.139   5.464
 2689SOL    HW2 9965   5.530   2.262   5.552
 2690SOL     OW 9966  11.327   4.697   5.447
 2690SOL    HW1 9967  11.330   4.725   5.355
 2690SOL    HW2 9968  11.417   4.703   5.477
 2691SOL     OW 9969   0.692  11.879   7.363
 2691SOL    HW1 9970   0.692  11.838   7.277
 2691SOL    HW2 9971   0.784  11.883   7.388
 2692SOL     OW 9972   4.076   2.503  10.510
 2692SOL    HW1 9973   4.125   2.585  10.519
 2692SOL    HW2 9974   4.126   2.454  10.444
 2693SOL     OW 9975   7.477   6.731   0.023
 2693SOL    HW1 9976   7.566   6.742   0.058
 2693SOL    HW2 9977   7.439   6.819   0.027
 2694SOL     OW 9978   2.331   8.419   9.031
 2694SOL    HW1 9979   2.418   8.424   9.071
 2694SOL    HW2 9980   2.331   8.490   8.966
 2695SOL     OW 9981   2.227   1.399  10.891
 2695SOL    HW1 9982   2.201   1.407  10.799
 2695SOL    HW2 9983   2.222   1.305  10.910
 2696SOL     OW 9984   6.849   5.569   7.803
 2696SOL    HW1 9985   6.790   5.642   7.823
 2696SOL    HW2 9986   6.826   5.543   7.714
 2697SOL     OW 9987   6.389   8.810   9.714
 2697SOL    HW1 9988   6.446   8.871   9.668
 2697SOL    HW2 9989   6.388   8.732   9.658
 2698SOL     OW 9990   6.417   2.412   0.704
 2698SOL    HW1 9991   6.445   2.406   0.796
 2698SOL    HW2 9992   6.362   2.490   0.700
 2699SOL     OW 9993  10.169  10.663  13.752
 2699SOL    HW1 9994  10.146  10.686  13.842
 2699SOL    HW2 9995  10.087  10.630  13.714
 2700SOL     OW 9996   7.880   6.314  14.363
 2700SOL    HW1 9997   7.970   6.342  14.378
 2700SOL    HW2 9998   7.863   6.336  14.271
 2701SOL     OW 9999   6.822   5.023   2.494
 2701SOL    HW110000   6.829   4.929   2.510
 2701SOL    HW210001   6.795   5.029   2.402
 2702SOL     OW10002   8.492   7.821   3.941
 2702SOL    HW110003   8.585   7.840   3.930
 2702SOL    HW210004   8.465   7.783   3.857
 2703SOL     OW10005  11.107  13.255  13.565
 2703SOL    HW110006  11.099  13.194  13.638
 2703SOL    HW210007  11.153  13.331  13.603
 2704SOL     OW10008   8.666  14.318   7.195
 2704SOL    HW110009   8.572  14.305   7.199
 2704SOL    HW210010   8.678  14.410   7.220
 2705SOL     OW10011   7.956   6.239   6.618
 2705SOL    HW110012   7.965   6.216   6.526
 2705SOL    HW210013   7.921   6.328   6.617
 2706SOL     OW10014   5.322   5.314   3.855
 2706SOL    HW110015   5.245   5.295   3.801
 2706SOL    HW210016   5.324   5.243   3.919
 2707SOL     OW10017   2.454   3.629   5.211
 2707SOL    HW110018   2.433   3.547   5.257
 2707SOL    HW210019   2.484   3.688   5.280
 2708SOL     OW10020  13.780  14.831  11.968
 2708SOL    HW110021  13.811  14.741  11.954
 2708SOL    HW210022  13.766  14.865  11.880
 2709SOL     OW10023   6.997   6.533   2.474
 2709SOL    HW110024   7.021   6.621   2.447
 2709SOL    HW210025   6.966   6.491   2.393
 2710SOL     OW10026  10.309   2.754  13.387
 2710SOL    HW110027  10.221   2.717  13.400
 2710SOL    HW210028  10.331   2.733  13.297
 2711SOL     OW10029  13.824  10.024   7.380
 2711SOL    HW110030  13.831   9.971   7.459
 2711SOL    HW210031  13.811   9.961   7.309
 2712SOL     OW10032   7.494   9.549   4.615
 2712SOL    HW110033   7.494   9.526   4.708
 2712SOL    HW210034   7.424   9.614   4.606
 2713SOL     OW10035   7.100   9.280   9.605
 2713SOL    HW110036   7.146   9.348   9.557
 2713SOL    HW210037   7.169   9.229   9.647
 2714SOL     OW10038   1.121  11.412  10.287
 2714SOL    HW110039   1.029  11.395  10.267
 2714SOL    HW210040   1.126  11.404  10.382
 2715SOL     OW10041   0.273   0.975   4.116
 2715SOL    HW110042   0.318   1.005   4.036
 2715SOL    HW210043   0.254   1.056   4.164
 2716SOL     OW10044  14.599   3.105   3.860
 2716SOL    HW110045  14.512   3.118   3.824
 2716SOL    HW210046  14.608   3.010   3.867
 2717SOL     OW10047  11.490   3.096  12.438
 2717SOL    HW110048  11.413   3.136  12.479
 2717SOL    HW210049  11.464   3.085  12.346
 2718SOL     OW10050   1.467   2.581   3.819
 2718SOL    HW110051   1.529   2.652   3.833
 2718SOL    HW210052   1.519   2.501   3.828
 2719SOL     OW10053  14.438  14.184  12.921
 2719SOL    HW110054  14.480  14.236  12.853
 2719SOL    HW210055  14.376  14.244  12.963
 2720SOL     OW10056   3.708   7.770   9.968
 2720SOL    HW110057   3.686   7.749  10.059
 2720SOL    HW210058   3.767   7.700   9.941
 2721SOL     OW10059   9.357   2.369   6.365
 2721SOL    HW110060   9.438   2.375   6.415
 2721SOL    HW210061   9.317   2.456   6.373
 2722SOL     OW10062   7.546   0.732  11.527
 2722SOL    HW110063   7.639   0.724  11.503
 2722SOL    HW210064   7.529   0.826  11.524
 2723SOL     OW10065  14.193   0.880   8.580
 2723SOL    HW110066  14.262   0.921   8.633
 2723SOL    HW210067  14.118   0.874   8.639
 2724SOL     OW10068  12.759   1.395  14.309
 2724SOL    HW110069  12.763   1.341  14.231
 2724SOL    HW210070  12.845   1.436  14.314
 2725SOL     OW10071   3.835   4.355  12.003
 2725SOL    HW110072   3.840   4.279  11.946
 2725SOL    HW210073   3.761   4.406  11.970
 2726SOL     OW10074   2.509   7.918   9.877
 2726SOL    HW110075   2.431   7.935   9.930
 2726SOL    HW210076   2.572   7.985   9.905
 2727SOL     OW10077   9.857   3.472   9.630
 2727SOL    HW110078   9.780   3.435   9.673
 2727SOL    HW210079   9.862   3.426   9.546
 2728SOL     OW10080   7.003   3.742   2.782
 2728SOL    HW110081   6.929   3.692   2.816
 2728SOL    HW210082   6.963   3.813   2.731
 2729SOL     OW10083   4.930   9.158  11.906
 2729SOL    HW110084   4.929   9.235  11.963
 2729SOL    HW210085   4.992   9.181  11.837
 2730SOL     OW10086  12.896  10.854   4.828
 2730SOL    HW110087  12.892  10.760   4.847
 2730SOL    HW210088  12.957  10.862   4.755
 2731SOL     OW10089  14.471   3.535  11.832
 2731SOL    HW110090  14.394   3.550  11.887
 2731SOL    HW210091  14.492   3.443  11.844
 2732SOL     OW10092   3.438   9.494  11.555
 2732SOL    HW110093   3.500   9.434  11.514
 2732SOL    HW210094   3.483   9.579  11.556
 2733SOL     OW10095   2.949  14.137  14.164
 2733SOL    HW110096   2.921  14.202  14.099
 2733SOL    HW210097   2.959  14.187  14.245
 2734SOL     OW10098  12.501   7.210   0.766
 2734SOL    HW110099  12.449   7.220   0.686
 2734SOL    HW210100  12.517   7.300   0.795
 2735SOL     OW10101   6.604   6.181   4.424
 2735SOL    HW110102   6.602   6.254   4.362
 2735SOL    HW210103   6.671   6.122   4.390
 2736SOL     OW10104   3.457   0.464   6.378
 2736SOL    HW110105   3.460   0.471   6.474
 2736SOL    HW210106   3.433   0.373   6.362
 2737SOL     OW10107  13.456   3.332   2.983
 2737SOL    HW110108  13.542   3.295   3.002
 2737SOL    HW210109  13.410   3.330   3.067
 2738SOL     OW10110  13.911   2.248  13.578
 2738SOL    HW110111  13.967   2.189  13.529
 2738SOL    HW210112  13.867   2.193  13.643
 2739SOL     OW10113   2.119   8.330  12.001
 2739SOL    HW110114   2.073   8.319  12.084
 2739SOL    HW210115   2.210   8.309  12.020
 2740SOL     OW10116   8.499  13.480   9.731
 2740SOL    HW110117   8.443  13.526   9.794
 2740SOL    HW210118   8.451  13.400   9.711
 2741SOL     OW10119  10.238  12.293   4.644
 2741SOL    HW110120  10.175  12.361   4.665
 2741SOL    HW210121  10.292  12.285   4.723
 2742SOL     OW10122   2.478  12.483   9.937
 2742SOL    HW110123   2.406  12.523   9.985
 2742SOL    HW210124   2.436  12.434   9.867
 2743SOL     OW10125   7.833  14.001   7.658
 2743SOL    HW110126   7.885  13.936   7.610
 2743SOL    HW210127   7.823  13.963   7.746
 2744SOL     OW10128   7.435  14.203   7.199
 2744SOL    HW110129   7.400  14.278   7.151
 2744SOL    HW210130   7.399  14.212   7.287
 2745SOL     OW10131  11.583   3.193   9.391
 2745SOL    HW110132  11.519   3.211   9.460
 2745SOL    HW210133  11.530   3.174   9.314
 2746SOL     OW10134  10.233   2.247   9.431
 2746SOL    HW110135  10.196   2.200   9.357
 2746SOL    HW210136  10.223   2.187   9.505
 2747SOL     OW10137   9.630   7.641   6.973
 2747SOL    HW110138   9.606   7.590   6.896
 2747SOL    HW210139   9.593   7.728   6.956
 2748SOL     OW10140   4.393   0.835  11.640
 2748SOL    HW110141   4.333   0.866  11.572
 2748SOL    HW210142   4.337   0.815  11.715
 2749SOL     OW10143   0.176   4.216   3.211
 2749SOL    HW110144   0.120   4.139   3.221
 2749SOL    HW210145   0.249   4.186   3.158
 2750SOL     OW10146   2.892   0.042   7.848
 2750SOL    HW110147   2.981   0.013   7.830
 2750SOL    HW210148   2.838  14.865   7.785
 2751SOL     OW10149  10.476   9.987  10.388
 2751SOL    HW110150  10.384   9.979  10.363
 2751SOL    HW210151  10.519  10.025  10.311
 2752SOL     OW10152   9.268   7.936  11.059
 2752SOL    HW110153   9.296   7.846  11.040
 2752SOL    HW210154   9.183   7.926  11.102
 2753SOL     OW10155   0.513   6.609   8.728
 2753SOL    HW110156   0.484   6.548   8.660
 2753SOL    HW210157   0.578   6.560   8.778
 2754SOL     OW10158   5.027  11.318  10.177
 2754SOL    HW110159   4.977  11.278  10.248
 2754SOL    HW210160   4.966  11.377  10.134
 2755SOL     OW10161   8.407  10.841   4.831
 2755SOL    HW110162   8.470  10.883   4.889
 2755SOL    HW210163   8.448  10.758   4.806
 2756SOL     OW10164   7.293   7.253  11.579
 2756SOL    HW110165   7.340   7.319  11.528
 2756SOL    HW210166   7.257   7.193  11.514
 2757SOL     OW10167  13.467   4.210   5.235
 2757SOL    HW110168  13.384   4.258   5.237
 2757SOL    HW210169  13.442   4.120   5.212
 2758SOL     OW10170  10.856   1.404   4.995
 2758SOL    HW110171  10.767   1.377   4.970
 2758SOL    HW210172  10.861   1.387   5.089
 2759SOL     OW10173   3.921  11.799   4.958
 2759SOL    HW110174   3.854  11.738   4.988
 2759SOL    HW210175   3.909  11.877   5.013
 2760SOL     OW10176  11.461   0.310   0.278
 2760SOL    HW110177  11.466   0.233   0.222
 2760SOL    HW210178  11.491   0.382   0.222
 2761SOL     OW10179   3.798  12.954   8.648
 2761SOL    HW110180   3.704  12.960   8.630
 2761SOL    HW210181   3.803  12.932   8.741
 2762SOL     OW10182   1.933  10.365   2.074
 2762SOL    HW110183   1.915  10.278   2.111
 2762SOL    HW210184   2.027  10.379   2.091
 2763SOL     OW10185   2.023   4.011  14.667
 2763SOL    HW110186   1.980   4.089  14.632
 2763SOL    HW210187   2.005   3.943  14.603
 2764SOL     OW10188  11.002   0.046   4.482
 2764SOL    HW110189  11.043  14.864   4.414
 2764SOL    HW210190  10.914   0.009   4.491
 2765SOL     OW10191   3.722  14.010  11.531
 2765SOL    HW110192   3.774  13.993  11.452
 2765SOL    HW210193   3.688  14.099  11.519
 2766SOL     OW10194   0.942   5.106   5.349
 2766SOL    HW110195   1.024   5.061   5.368
 2766SOL    HW210196   0.947   5.128   5.256
 2767SOL     OW10197  12.725  10.362  13.262
 2767SOL    HW110198  12.786  10.301  13.304
 2767SOL    HW210199  12.724  10.438  13.320
 2768SOL     OW10200   6.209   7.914   0.894
 2768SOL    HW110201   6.134   7.862   0.924
 2768SOL    HW210202   6.170   7.991   0.853
 2769SOL     OW10203  10.176  10.310   5.764
 2769SOL    HW110204  10.216  10.256   5.832
 2769SOL    HW210205  10.226  10.291   5.685
 2770SOL     OW10206   7.878   7.001  13.894
 2770SOL    HW110207   7.811   7.061  13.860
 2770SOL    HW210208   7.942   6.994  13.823
 2771SOL     OW10209  14.291  11.082   0.793
 2771SOL    HW110210  14.360  11.024   0.824
 2771SOL    HW210211  14.238  11.028   0.734
 2772SOL     OW10212   2.171  12.204   4.549
 2772SOL    HW110213   2.159  12.258   4.470
 2772SOL    HW210214   2.266  12.197   4.558
 2773SOL     OW10215  11.407  14.329   2.684
 2773SOL    HW110216  11.385  14.333   2.591
 2773SOL    HW210217  11.475  14.395   2.696
 2774SOL     OW10218  12.989   1.476   7.204
 2774SOL    HW110219  13.077   1.513   7.210
 2774SOL    HW210220  12.951   1.518   7.127
 2775SOL     OW10221   6.769   1.076   1.632
 2775SOL    HW110222   6.700   1.049   1.572
 2775SOL    HW210223   6.724   1.130   1.698
 2776SOL     OW10224   0.635   9.660   4.463
 2776SOL    HW110225   0.717   9.612   4.473
 2776SOL    HW210226   0.567   9.593   4.467
 2777SOL     OW10227   5.996   2.687   0.701
 2777SOL    HW110228   5.929   2.745   0.665
 2777SOL    HW210229   5.969   2.600   0.672
 2778SOL     OW10230   4.705   0.832   8.026
 2778SOL    HW110231   4.771   0.771   7.995
 2778SOL    HW210232   4.730   0.851   8.117
 2779SOL     OW10233   1.722   2.280   3.629
 2779SOL    HW110234   1.722   2.184   3.634
 2779SOL    HW210235   1.800   2.301   3.578
 2780SOL     OW10236   8.969   6.901   9.883
 2780SOL    HW110237   9.031   6.851   9.936
 2780SOL    HW210238   8.948   6.978   9.936
 2781SOL     OW10239   2.541   2.509   0.384
 2781SOL    HW110240   2.562   2.541   0.472
 2781SOL    HW210241   2.590   2.427   0.376
 2782SOL     OW10242   0.301  12.401   3.689
 2782SOL    HW110243   0.211  12.399   3.655
 2782SOL    HW210244   0.295  12.449   3.771
 2783SOL     OW10245   7.719   6.204   0.049
 2783SOL    HW110246   7.780   6.155  14.863
 2783SOL    HW210247   7.633   6.189   0.010
 2784SOL     OW10248   9.849   6.907  14.218
 2784SOL    HW110249   9.807   6.847  14.280
 2784SOL    HW210250   9.791   6.905  14.142
 2785SOL     OW10251   9.588   8.163   4.594
 2785SOL    HW110252   9.528   8.090   4.614
 2785SOL    HW210253   9.675   8.123   4.598
 2786SOL     OW10254   3.970   0.297  12.262
 2786SOL    HW110255   4.050   0.274  12.309
 2786SOL    HW210256   3.971   0.244  12.183
 2787SOL     OW10257   6.371   6.577   0.525
 2787SOL    HW110258   6.284   6.557   0.562
 2787SOL    HW210259   6.430   6.568   0.600
 2788SOL     OW10260   3.912   8.315   9.131
 2788SOL    HW110261   3.886   8.227   9.102
 2788SOL    HW210262   3.861   8.330   9.210
 2789SOL     OW10263   2.517   2.625  14.367
 2789SOL    HW110264   2.464   2.550  14.340
 2789SOL    HW210265   2.455   2.686  14.406
 2790SOL     OW10266  13.486  10.475  14.352
 2790SOL    HW110267  13.439  10.391  14.350
 2790SOL    HW210268  13.438  10.527  14.416
 2791SOL     OW10269   1.640  12.799  11.367
 2791SOL    HW110270   1.690  12.721  11.344
 2791SOL    HW210271   1.595  12.823  11.286
 2792SOL     OW10272   7.518  10.493   8.690
 2792SOL    HW110273   7.552  10.517   8.776
 2792SOL    HW210274   7.584  10.433   8.654
 2793SOL     OW10275   3.053  14.784  12.256
 2793SOL    HW110276   3.011  14.834  12.326
 2793SOL    HW210277   2.980  14.734  12.217
 2794SOL     OW10278   4.315   4.148   7.103
 2794SOL    HW110279   4.342   4.239   7.098
 2794SOL    HW210280   4.268   4.133   7.021
 2795SOL     OW10281   8.233   3.211   4.692
 2795SOL    HW110282   8.316   3.251   4.719
 2795SOL    HW210283   8.190   3.280   4.641
 2796SOL     OW10284   2.528   8.916   7.387
 2796SOL    HW110285   2.505   9.004   7.354
 2796SOL    HW210286   2.455   8.861   7.358
 2797SOL     OW10287   1.321  11.465   1.399
 2797SOL    HW110288   1.240  11.477   1.350
 2797SOL    HW210289   1.358  11.383   1.366
 2798SOL     OW10290   1.402   8.375   7.869
 2798SOL    HW110291   1.360   8.296   7.837
 2798SOL    HW210292   1.335   8.443   7.864
 2799SOL     OW10293  11.706   6.313   0.812
 2799SOL    HW110294  11.630   6.361   0.778
 2799SOL    HW210295  11.782   6.361   0.779
 2800SOL     OW10296   3.153   9.983   3.745
 2800SOL    HW110297   3.176  10.076   3.739
 2800SOL    HW210298   3.237   9.937   3.743
 2801SOL     OW10299   3.605   7.104   9.227
 2801SOL    HW110300   3.684   7.060   9.259
 2801SOL    HW210301   3.588   7.064   9.142
 2802SOL     OW10302   0.949   7.775  12.478
 2802SOL    HW110303   1.039   7.756  12.501
 2802SOL    HW210304   0.947   7.771  12.382
 2803SOL     OW10305  10.817   0.275   0.588
 2803SOL    HW110306  10.773   0.190   0.585
 2803SOL    HW210307  10.778   0.325   0.516
 2804SOL     OW10308   1.112  10.939   6.552
 2804SOL    HW110309   1.058  10.898   6.620
 2804SOL    HW210310   1.199  10.903   6.566
 2805SOL     OW10311  11.337  10.017  13.302
 2805SOL    HW110312  11.385  10.077  13.359
 2805SOL    HW210313  11.269  10.070  13.262
 2806SOL     OW10314   5.765   4.737   8.826
 2806SOL    HW110315   5.691   4.752   8.767
 2806SOL    HW210316   5.836   4.710   8.768
 2807SOL     OW10317  10.898   9.364   1.647
 2807SOL    HW110318  10.808   9.350   1.618
 2807SOL    HW210319  10.947   9.289   1.611
 2808SOL     OW10320  13.552   7.008   2.891
 2808SOL    HW110321  13.640   7.030   2.922
 2808SOL    HW210322  13.513   7.093   2.868
 2809SOL     OW10323   3.130   8.461   0.678
 2809SOL    HW110324   3.174   8.544   0.659
 2809SOL    HW210325   3.052   8.462   0.622
 2810SOL     OW10326   2.319  13.152   5.279
 2810SOL    HW110327   2.287  13.102   5.204
 2810SOL    HW210328   2.240  13.194   5.315
 2811SOL     OW10329   1.507   1.025   1.860
 2811SOL    HW110330   1.479   1.078   1.785
 2811SOL    HW210331   1.448   1.051   1.931
 2812SOL     OW10332   3.674   6.545   9.882
 2812SOL    HW110333   3.623   6.466   9.864
 2812SOL    HW210334   3.734   6.520   9.952
 2813SOL     OW10335  13.691   7.992   9.900
 2813SOL    HW110336  13.710   8.049   9.825
 2813SOL    HW210337  13.718   8.043   9.976
 2814SOL     OW10338   6.568   5.076   4.408
 2814SOL    HW110339   6.624   5.023   4.464
 2814SOL    HW210340   6.599   5.058   4.319
 2815SOL     OW10341   5.370  13.456   6.062
 2815SOL    HW110342   5.318  13.494   5.992
 2815SOL    HW210343   5.400  13.372   6.027
 2816SOL     OW10344   5.839   7.041   6.851
 2816SOL    HW110345   5.779   7.031   6.777
 2816SOL    HW210346   5.826   7.130   6.882
 2817SOL     OW10347  10.898   8.709   4.335
 2817SOL    HW110348  10.856   8.762   4.267
 2817SOL    HW210349  10.944   8.640   4.287
 2818SOL     OW10350   5.093   4.966   8.825
 2818SOL    HW110351   5.183   4.959   8.795
 2818SOL    HW210352   5.048   5.013   8.755
 2819SOL     OW10353   1.763   6.462  13.066
 2819SOL    HW110354   1.683   6.513  13.076
 2819SOL    HW210355   1.801   6.458  13.154
 2820SOL     OW10356   0.927   6.480   0.746
 2820SOL    HW110357   0.995   6.439   0.799
 2820SOL    HW210358   0.947   6.453   0.656
 2821SOL     OW10359   7.402   1.587   7.914
 2821SOL    HW110360   7.357   1.601   7.997
 2821SOL    HW210361   7.493   1.611   7.931
 2822SOL     OW10362   3.629   9.548   1.773
 2822SOL    HW110363   3.674   9.533   1.690
 2822SOL    HW210364   3.574   9.625   1.757
 2823SOL     OW10365   8.224  11.253  12.328
 2823SOL    HW110366   8.318  11.262  12.342
 2823SOL    HW210367   8.200  11.330  12.276
 2824SOL     OW10368  11.865   0.207   6.545
 2824SOL    HW110369  11.896   0.262   6.473
 2824SOL    HW210370  11.799   0.150   6.504
 2825SOL     OW10371  12.562   7.639   7.223
 2825SOL    HW110372  12.467   7.645   7.225
 2825SOL    HW210373  12.590   7.719   7.178
 2826SOL     OW10374   9.906   1.634   8.187
 2826SOL    HW110375   9.909   1.714   8.134
 2826SOL    HW210376   9.853   1.657   8.263
 2827SOL     OW10377  14.601  12.246  14.599
 2827SOL    HW110378  14.582  12.336  14.570
 2827SOL    HW210379  14.519  12.217  14.639
 2828SOL     OW10380   7.293   3.182  12.224
 2828SOL    HW110381   7.244   3.161  12.303
 2828SOL    HW210382   7.344   3.260  12.247
 2829SOL     OW10383   6.548   3.480  14.364
 2829SOL    HW110384   6.524   3.566  14.330
 2829SOL    HW210385   6.531   3.419  14.293
 2830SOL     OW10386   7.579   1.340  12.613
 2830SOL    HW110387   7.664   1.307  12.582
 2830SOL    HW210388   7.601   1.422  12.658
 2831SOL     OW10389   6.090   2.667  10.881
 2831SOL    HW110390   6.036   2.699  10.809
 2831SOL    HW210391   6.149   2.740  10.901
 2832SOL     OW10392  10.749   9.796   1.563
 2832SOL    HW110393  10.660   9.779   1.534
 2832SOL    HW210394  10.797   9.717   1.542
 2833SOL     OW10395   3.504  10.280   3.371
 2833SOL    HW110396   3.494  10.292   3.276
 2833SOL    HW210397   3.417  10.253   3.401
 2834SOL     OW10398   3.404   7.658   3.602
 2834SOL    HW110399   3.445   7.576   3.629
 2834SOL    HW210400   3.474   7.723   3.610
 2835SOL     OW10401   4.162   2.463   6.325
 2835SOL    HW110402   4.098   2.492   6.390
 2835SOL    HW210403   4.234   2.525   6.333
 2836SOL     OW10404   0.310   3.311   8.820
 2836SOL    HW110405   0.335   3.369   8.892
 2836SOL    HW210406   0.303   3.225   8.861
 2837SOL     OW10407   4.770   3.124  12.698
 2837SOL    HW110408   4.774   3.214  12.667
 2837SOL    HW210409   4.678   3.098  12.685
 2838SOL     OW10410   5.207   6.174   6.888
 2838SOL    HW110411   5.121   6.198   6.855
 2838SOL    HW210412   5.191   6.100   6.947
 2839SOL     OW10413   4.563  10.143  14.784
 2839SOL    HW110414   4.614  10.188  14.716
 2839SOL    HW210415   4.473  10.150  14.755
 2840SOL     OW10416   4.073   4.180   6.734
 2840SOL    HW110417   4.097   4.128   6.811
 2840SOL    HW210418   4.143   4.164   6.671
 2841SOL     OW10419   0.210   0.090   4.211
 2841SOL    HW110420   0.156   0.012   4.225
 2841SOL    HW210421   0.182   0.124   4.126
 2842SOL     OW10422   3.828   9.552   9.283
 2842SOL    HW110423   3.910   9.520   9.244
 2842SOL    HW210424   3.762   9.537   9.216
 2843SOL     OW10425   5.228   0.534  14.231
 2843SOL    HW110426   5.317   0.564  14.214
 2843SOL    HW210427   5.181   0.612  14.260
 2844SOL     OW10428   6.764   2.958   8.861
 2844SOL    HW110429   6.742   2.988   8.773
 2844SOL    HW210430   6.852   2.920   8.853
 2845SOL     OW10431  12.685   4.260   4.713
 2845SOL    HW110432  12.754   4.228   4.770
 2845SOL    HW210433  12.686   4.202   4.638
 2846SOL     OW10434  14.004   7.306  10.563
 2846SOL    HW110435  14.074   7.242  10.546
 2846SOL    HW210436  14.018   7.333  10.654
 2847SOL     OW10437   3.723   5.932   0.560
 2847SOL    HW110438   3.715   5.854   0.504
 2847SOL    HW210439   3.721   5.897   0.649
 2848SOL     OW10440  11.413  12.901   7.503
 2848SOL    HW110441  11.375  12.818   7.475
 2848SOL    HW210442  11.380  12.914   7.592
 2849SOL     OW10443   9.709   4.408   9.338
 2849SOL    HW110444   9.629   4.356   9.326
 2849SOL    HW210445   9.755   4.399   9.255
 2850SOL     OW10446  12.616   1.101   9.727
 2850SOL    HW110447  12.658   1.032   9.778
 2850SOL    HW210448  12.584   1.163   9.792
 2851SOL     OW10449   7.360   9.125   7.645
 2851SOL    HW110450   7.415   9.123   7.567
 2851SOL    HW210451   7.410   9.077   7.712
 2852SOL     OW10452   1.977  12.409  14.758
 2852SOL    HW110453   2.022  12.433  14.677
 2852SOL    HW210454   1.986  12.487  14.814
 2853SOL     OW10455   6.098  13.177   9.276
 2853SOL    HW110456   6.106  13.082   9.290
 2853SOL    HW210457   6.179  13.200   9.230
 2854SOL     OW10458  13.563  13.549   7.744
 2854SOL    HW110459  13.473  13.576   7.761
 2854SOL    HW210460  13.616  13.623   7.773
 2855SOL     OW10461  14.396   6.290  10.601
 2855SOL    HW110462  14.316   6.244  10.630
 2855SOL    HW210463  14.465   6.225  10.613
 2856SOL     OW10464  14.580   6.676   2.348
 2856SOL    HW110465  14.535   6.746   2.301
 2856SOL    HW210466  14.650   6.720   2.397
 2857SOL     OW10467  11.937   9.224   0.305
 2857SOL    HW110468  11.941   9.313   0.339
 2857SOL    HW210469  11.974   9.231   0.217
 2858SOL     OW10470  14.603   5.978   6.367
 2858SOL    HW110471  14.568   5.912   6.427
 2858SOL    HW210472  14.644   5.927   6.297
 2859SOL     OW10473   1.368   5.063   0.877
 2859SOL    HW110474   1.403   5.139   0.923
 2859SOL    HW210475   1.279   5.053   0.911
 2860SOL     OW10476   5.025  10.359   9.161
 2860SOL    HW110477   5.035  10.331   9.252
 2860SOL    HW210478   5.036  10.280   9.109
 2861SOL     OW10479   1.637   9.467   0.047
 2861SOL    HW110480   1.658   9.486   0.138
 2861SOL    HW210481   1.561   9.522   0.028
 2862SOL     OW10482  14.117   5.221   0.395
 2862SOL    HW110483  14.076   5.218   0.309
 2862SOL    HW210484  14.130   5.129   0.419
 2863SOL     OW10485  11.776   9.152  11.332
 2863SOL    HW110486  11.748   9.114  11.416
 2863SOL    HW210487  11.843   9.092  11.300
 2864SOL     OW10488   6.895  11.315   3.509
 2864SOL    HW110489   6.960  11.320   3.579
 2864SOL    HW210490   6.881  11.405   3.482
 2865SOL     OW10491   5.735  12.939   1.266
 2865SOL    HW110492   5.701  12.996   1.197
 2865SOL    HW210493   5.666  12.938   1.332
 2866SOL     OW10494   8.036   8.893   8.078
 2866SOL    HW110495   7.988   8.853   8.006
 2866SOL    HW210496   7.972   8.949   8.122
 2867SOL     OW10497   1.767   2.683  12.840
 2867SOL    HW110498   1.826   2.755  12.861
 2867SOL    HW210499   1.792   2.657  12.751
 2868SOL     OW10500   8.844   7.701  13.575
 2868SOL    HW110501   8.910   7.663  13.634
 2868SOL    HW210502   8.885   7.698  13.489
 2869SOL     OW10503   0.162   2.488   9.591
 2869SOL    HW110504   0.237   2.543   9.614
 2869SOL    HW210505   0.158   2.423   9.661
 2870SOL     OW10506   9.668   0.104   3.013
 2870SOL    HW110507   9.634   0.018   3.037
 2870SOL    HW210508   9.687   0.147   3.097
 2871SOL     OW10509   1.788   3.196  14.335
 2871SOL    HW110510   1.799   3.162  14.424
 2871SOL    HW210511   1.696   3.223  14.332
 2872SOL     OW10512   7.450   4.987   8.892
 2872SOL    HW110513   7.507   5.050   8.849
 2872SOL    HW210514   7.507   4.913   8.914
 2873SOL     OW10515  13.644   3.606  11.717
 2873SOL    HW110516  13.702   3.576  11.788
 2873SOL    HW210517  13.568   3.549  11.722
 2874SOL     OW10518  10.719  12.181  13.492
 2874SOL    HW110519  10.695  12.202  13.582
 2874SOL    HW210520  10.673  12.100  13.472
 2875SOL     OW10521  14.805   6.599   7.657
 2875SOL    HW110522  14.760   6.589   7.574
 2875SOL    HW210523  14.865   6.673   7.643
 2876SOL     OW10524   3.660   0.835   2.326
 2876SOL    HW110525   3.681   0.749   2.362
 2876SOL    HW210526   3.669   0.895   2.400
 2877SOL     OW10527  12.486   5.927   1.951
 2877SOL    HW110528  12.506   5.842   1.914
 2877SOL    HW210529  12.484   5.986   1.876
 2878SOL     OW10530   1.843   3.455  13.123
 2878SOL    HW110531   1.768   3.492  13.076
 2878SOL    HW210532   1.913   3.453  13.058
 2879SOL     OW10533   0.240   0.872   0.398
 2879SOL    HW110534   0.205   0.865   0.309
 2879SOL    HW210535   0.194   0.947   0.436
 2880SOL     OW10536   7.352   7.538  11.022
 2880SOL    HW110537   7.260   7.539  11.051
 2880SOL    HW210538   7.382   7.450  11.043
 2881SOL     OW10539   8.721   8.768  11.146
 2881SOL    HW110540   8.716   8.728  11.233
 2881SOL    HW210541   8.671   8.709  11.090
 2882SOL     OW10542   1.474   5.027  11.026
 2882SOL    HW110543   1.514   4.993  10.946
 2882SOL    HW210544   1.529   4.994  11.096
 2883SOL     OW10545   9.113   4.646  12.630
 2883SOL    HW110546   9.110   4.577  12.696
 2883SOL    HW210547   9.195   4.692  12.647
 2884SOL     OW10548   9.793  13.045   2.494
 2884SOL    HW110549   9.753  13.131   2.495
 2884SOL    HW210550   9.804  13.022   2.587
 2885SOL     OW10551   7.186  11.429   9.103
 2885SOL    HW110552   7.248  11.357   9.095
 2885SOL    HW210553   7.239  11.508   9.095
 2886SOL     OW10554   8.482   9.693   7.087
 2886SOL    HW110555   8.452   9.603   7.103
 2886SOL    HW210556   8.402   9.742   7.071
 2887SOL     OW10557   5.700   6.540  10.262
 2887SOL    HW110558   5.734   6.558  10.350
 2887SOL    HW210559   5.712   6.623  10.214
 2888SOL     OW10560  14.815   9.004   8.017
 2888SOL    HW110561  14.748   8.937   8.030
 2888SOL    HW210562  14.851   9.019   8.105
 2889SOL     OW10563   0.914   8.053   8.544
 2889SOL    HW110564   0.906   8.080   8.453
 2889SOL    HW210565   0.824   8.044   8.575
 2890SOL     OW10566  10.423  14.384  11.506
 2890SOL    HW110567  10.373  14.454  11.464
 2890SOL    HW210568  10.468  14.340  11.434
 2891SOL     OW10569  13.784  14.364  10.226
 2891SOL    HW110570  13.722  14.427  10.263
 2891SOL    HW210571  13.853  14.418  10.188
 2892SOL     OW10572  12.176   8.083   8.953
 2892SOL    HW110573  12.143   8.168   8.926
 2892SOL    HW210574  12.137   8.021   8.891
 2893SOL     OW10575  11.942  10.764   3.198
 2893SOL    HW110576  11.953  10.699   3.267
 2893SOL    HW210577  11.988  10.727   3.123
 2894SOL     OW10578   7.850  11.375  11.089
 2894SOL    HW110579   7.907  11.299  11.102
 2894SOL    HW210580   7.873  11.434  11.161
 2895SOL     OW10581  11.640  12.951   0.567
 2895SOL    HW110582  11.707  12.903   0.518
 2895SOL    HW210583  11.675  13.040   0.576
 2896SOL     OW10584   4.658   5.278  11.473
 2896SOL    HW110585   4.684   5.192  11.440
 2896SOL    HW210586   4.736   5.313  11.516
 2897SOL     OW10587   5.089   5.120  13.828
 2897SOL    HW110588   5.181   5.128  13.853
 2897SOL    HW210589   5.066   5.207  13.795
 2898SOL     OW10590  11.575   9.115   2.332
 2898SOL    HW110591  11.536   9.106   2.419
 2898SOL    HW210592  11.589   9.026   2.303
 2899SOL     OW10593   1.258   7.745   7.801
 2899SOL    HW110594   1.253   7.657   7.763
 2899SOL    HW210595   1.301   7.733   7.886
 2900SOL     OW10596   3.306  13.483  13.923
 2900SOL    HW110597   3.364  13.407  13.929
 2900SOL    HW210598   3.336  13.540  13.994
 2901SOL     OW10599   1.388   7.651  12.092
 2901SOL    HW110600   1.423   7.562  12.081
 2901SOL    HW210601   1.303   7.638  12.134
 2902SOL     OW10602  12.350   9.954   3.524
 2902SOL    HW110603  12.273   9.904   3.551
 2902SOL    HW210604  12.398   9.969   3.606
 2903SOL     OW10605   4.284   8.643   7.321
 2903SOL    HW110606   4.274   8.559   7.366
 2903SOL    HW210607   4.324   8.621   7.237
 2904SOL     OW10608  10.655  13.633   0.145
 2904SOL    HW110609  10.585  13.568   0.140
 2904SOL    HW210610  10.722  13.600   0.085
 2905SOL     OW10611   8.424   9.685  14.122
 2905SOL    HW110612   8.489   9.703  14.054
 2905SOL    HW210613   8.364   9.760  14.119
 2906SOL     OW10614  10.497   6.238  11.878
 2906SOL    HW110615  10.433   6.167  11.872
 2906SOL    HW210616  10.444   6.316  11.895
 2907SOL     OW10617   2.148  10.658  10.895
 2907SOL    HW110618   2.168  10.592  10.828
 2907SOL    HW210619   2.234  10.685  10.927
 2908SOL     OW10620  13.833   1.254  14.407
 2908SOL    HW110621  13.869   1.282  14.492
 2908SOL    HW210622  13.900   1.279  14.343
 2909SOL     OW10623  13.686   8.183  12.018
 2909SOL    HW110624  13.745   8.110  12.001
 2909SOL    HW210625  13.723   8.226  12.095
 2910SOL     OW10626  14.345  11.822   5.354
 2910SOL    HW110627  14.291  11.749   5.383
 2910SOL    HW210628  14.417  11.825   5.418
 2911SOL     OW10629  10.553   2.442  11.033
 2911SOL    HW110630  10.546   2.504  11.106
 2911SOL    HW210631  10.643   2.410  11.038
 2912SOL     OW10632   1.563   6.663   1.747
 2912SOL    HW110633   1.649   6.667   1.705
 2912SOL    HW210634   1.557   6.745   1.796
 2913SOL     OW10635  12.074   3.877   2.572
 2913SOL    HW110636  12.017   3.914   2.505
 2913SOL    HW210637  12.096   3.951   2.629
 2914SOL     OW10638   7.202  10.931  13.199
 2914SOL    HW110639   7.220  10.938  13.106
 2914SOL    HW210640   7.153  11.011  13.221
 2915SOL     OW10641   6.037   8.931   6.347
 2915SOL    HW110642   6.015   9.014   6.390
 2915SOL    HW210643   6.043   8.868   6.419
 2916SOL     OW10644  12.703  14.013   4.013
 2916SOL    HW110645  12.789  14.039   3.981
 2916SOL    HW210646  12.654  14.096   4.020
 2917SOL     OW10647   6.775  11.199   1.967
 2917SOL    HW110648   6.754  11.118   1.922
 2917SOL    HW210649   6.747  11.185   2.058
 2918SOL     OW10650   7.667   7.886   5.500
 2918SOL    HW110651   7.585   7.911   5.457
 2918SOL    HW210652   7.657   7.792   5.518
 2919SOL     OW10653   2.534   6.435   9.592
 2919SOL    HW110654   2.519   6.410   9.501
 2919SOL    HW210655   2.492   6.366   9.643
 2920SOL     OW10656   9.695   3.702   7.343
 2920SOL    HW110657   9.671   3.627   7.397
 2920SOL    HW210658   9.655   3.777   7.388
 2921SOL     OW10659  12.349   1.352   5.720
 2921SOL    HW110660  12.283   1.304   5.671
 2921SOL    HW210661  12.392   1.285   5.775
 2922SOL     OW10662   3.257  14.282   6.756
 2922SOL    HW110663   3.303  14.306   6.676
 2922SOL    HW210664   3.318  14.226   6.804
 2923SOL     OW10665   7.162  11.416   2.139
 2923SOL    HW110666   7.157  11.328   2.102
 2923SOL    HW210667   7.203  11.469   2.071
 2924SOL     OW10668   0.850  14.623  11.230
 2924SOL    HW110669   0.940  14.642  11.204
 2924SOL    HW210670   0.803  14.610  11.148
 2925SOL     OW10671   3.935   5.639  10.509
 2925SOL    HW110672   4.002   5.655  10.576
 2925SOL    HW210673   3.972   5.570  10.454
 2926SOL     OW10674  11.126   2.061  10.960
 2926SOL    HW110675  11.209   2.013  10.961
 2926SOL    HW210676  11.061   1.998  10.993
 2927SOL     OW10677  14.268  13.371   8.625
 2927SOL    HW110678  14.260  13.461   8.594
 2927SOL    HW210679  14.262  13.318   8.545
 2928SOL     OW10680   9.802   6.882  10.818
 2928SOL    HW110681   9.835   6.800  10.855
 2928SOL    HW210682   9.707   6.875  10.827
 2929SOL     OW10683  10.625   3.115   3.545
 2929SOL    HW110684  10.625   3.034   3.597
 2929SOL    HW210685  10.536   3.149   3.553
 2930SOL     OW10686   8.097   4.788  10.717
 2930SOL    HW110687   8.036   4.771  10.645
 2930SOL    HW210688   8.158   4.852  10.681
 2931SOL     OW10689   1.489   1.788   1.622
 2931SOL    HW110690   1.498   1.697   1.649
 2931SOL    HW210691   1.557   1.800   1.556
 2932SOL     OW10692   1.395   5.987  11.085
 2932SOL    HW110693   1.317   5.942  11.116
 2932SOL    HW210694   1.461   5.970  11.151
 2933SOL     OW10695   1.183   0.509   9.909
 2933SOL    HW110696   1.125   0.501   9.985
 2933SOL    HW210697   1.208   0.601   9.906
 2934SOL     OW10698  11.119   7.194   3.678
 2934SOL    HW110699  11.139   7.287   3.669
 2934SOL    HW210700  11.152   7.155   3.597
 2935SOL     OW10701   6.445   4.130   1.831
 2935SOL    HW110702   6.519   4.141   1.890
 2935SOL    HW210703   6.377   4.189   1.865
 2936SOL     OW10704  13.651   4.925  12.513
 2936SOL    HW110705  13.588   4.974  12.460
 2936SOL    HW210706  13.719   4.899  12.451
 2937SOL     OW10707  13.812  10.703   3.981
 2937SOL    HW110708  13.816  10.612   3.951
 2937SOL    HW210709  13.831  10.755   3.903
 2938SOL     OW10710  10.939   9.738   3.414
 2938SOL    HW110711  10.923   9.663   3.357
 2938SOL    HW210712  10.862   9.795   3.402
 2939SOL     OW10713   6.555   7.734   7.713
 2939SOL    HW110714   6.615   7.756   7.784
 2939SOL    HW210715   6.568   7.803   7.648
 2940SOL     OW10716   5.023   0.166   5.453
 2940SOL    HW110717   4.971   0.171   5.373
 2940SOL    HW210718   4.965   0.126   5.518
 2941SOL     OW10719   0.298   3.810   6.805
 2941SOL    HW110720   0.220   3.853   6.841
 2941SOL    HW210721   0.264   3.754   6.735
 2942SOL     OW10722  10.395  14.478  14.836
 2942SOL    HW110723  10.343  14.532   0.026
 2942SOL    HW210724  10.482  14.517  14.838
 2943SOL     OW10725   1.184  10.228   9.931
 2943SOL    HW110726   1.139  10.307   9.960
 2943SOL    HW210727   1.204  10.180  10.011
 2944SOL     OW10728   0.654   4.780   7.524
 2944SOL    HW110729   0.617   4.774   7.436
 2944SOL    HW210730   0.631   4.869   7.553
 2945SOL     OW10731   9.336   1.843   7.484
 2945SOL    HW110732   9.299   1.931   7.482
 2945SOL    HW210733   9.407   1.848   7.549
 2946SOL     OW10734  14.718   9.577   7.680
 2946SOL    HW110735  14.696   9.566   7.587
 2946SOL    HW210736  14.647   9.631   7.715
 2947SOL     OW10737   0.025   7.382   0.266
 2947SOL    HW110738   0.042   7.293   0.297
 2947SOL    HW210739   0.001   7.431   0.344
 2948SOL     OW10740   9.788   9.337   4.224
 2948SOL    HW110741   9.796   9.426   4.258
 2948SOL    HW210742   9.710   9.301   4.266
 2949SOL     OW10743   9.534  14.001   6.089
 2949SOL    HW110744   9.569  13.966   6.007
 2949SOL    HW210745   9.591  13.964   6.157
 2950SOL     OW10746   4.373   1.468  12.982
 2950SOL    HW110747   4.343   1.531  12.916
 2950SOL    HW210748   4.368   1.383  12.938
 2951SOL     OW10749   2.026   3.035  14.828
 2951SOL    HW110750   1.938   3.015  14.861
 2951SOL    HW210751   2.057   2.953  14.791
 2952SOL     OW10752  14.176  12.571   5.314
 2952SOL    HW110753  14.249  12.530   5.359
 2952SOL    HW210754  14.137  12.629   5.379
 2953SOL     OW10755   5.764   1.224  12.317
 2953SOL    HW110756   5.757   1.150  12.257
 2953SOL    HW210757   5.822   1.193  12.387
 2954SOL     OW10758  13.488   8.141   4.737
 2954SOL    HW110759  13.400   8.164   4.706
 2954SOL    HW210760  13.516   8.218   4.786
 2955SOL     OW10761  14.095   5.633   6.739
 2955SOL    HW110762  14.073   5.631   6.646
 2955SOL    HW210763  14.077   5.544   6.770
 2956SOL     OW10764   6.023  13.734   2.546
 2956SOL    HW110765   6.016  13.826   2.522
 2956SOL    HW210766   6.069  13.735   2.631
 2957SOL     OW10767  12.338   9.936  13.087
 2957SOL    HW110768  12.355   9.844  13.066
 2957SOL    HW210769  12.272   9.964  13.024
 2958SOL     OW10770   6.406  14.314   0.253
 2958SOL    HW110771   6.372  14.276   0.172
 2958SOL    HW210772   6.335  14.303   0.316
 2959SOL     OW10773   9.785   6.632   5.764
 2959SOL    HW110774   9.731   6.628   5.843
 2959SOL    HW210775   9.816   6.722   5.761
 2960SOL     OW10776   9.928   9.310   9.816
 2960SOL    HW110777   9.972   9.319   9.901
 2960SOL    HW210778   9.838   9.336   9.832
 2961SOL     OW10779   9.526   9.507   1.480
 2961SOL    HW110780   9.593   9.535   1.541
 2961SOL    HW210781   9.494   9.587   1.440
 2962SOL     OW10782   5.986   3.655   0.895
 2962SOL    HW110783   6.072   3.617   0.876
 2962SOL    HW210784   5.989   3.743   0.857
 2963SOL     OW10785   9.825   1.996   5.639
 2963SOL    HW110786   9.754   1.941   5.672
 2963SOL    HW210787   9.900   1.973   5.694
 2964SOL     OW10788   1.045  13.117  13.653
 2964SOL    HW110789   1.058  13.169  13.574
 2964SOL    HW210790   0.957  13.140  13.683
 2965SOL     OW10791   1.080  10.627   2.522
 2965SOL    HW110792   1.052  10.704   2.572
 2965SOL    HW210793   1.023  10.557   2.553
 2966SOL     OW10794  14.297  10.073   7.186
 2966SOL    HW110795  14.359  10.145   7.199
 2966SOL    HW210796  14.276  10.077   7.092
 2967SOL     OW10797   2.839  11.876  10.964
 2967SOL    HW110798   2.791  11.955  10.990
 2967SOL    HW210799   2.778  11.828  10.907
 2968SOL     OW10800  10.081   0.208   1.888
 2968SOL    HW110801  10.093   0.136   1.950
 2968SOL    HW210802  10.152   0.197   1.824
 2969SOL     OW10803   2.363  14.104   0.523
 2969SOL    HW110804   2.380  14.133   0.433
 2969SOL    HW210805   2.394  14.013   0.524
 2970SOL     OW10806  10.764  13.688  14.639
 2970SOL    HW110807  10.819  13.641  14.701
 2970SOL    HW210808  10.717  13.619  14.591
 2971SOL     OW10809   0.865  10.486   0.584
 2971SOL    HW110810   0.903  10.574   0.586
 2971SOL    HW210811   0.822  10.476   0.669
 2972SOL     OW10812  13.722  10.204   4.845
 2972SOL    HW110813  13.683  10.132   4.895
 2972SOL    HW210814  13.768  10.257   4.911
 2973SOL     OW10815   6.713   4.930   6.130
 2973SOL    HW110816   6.723   4.934   6.225
 2973SOL    HW210817   6.651   5.000   6.109
 2974SOL     OW10818   5.092   8.889   2.818
 2974SOL    HW110819   5.115   8.858   2.730
 2974SOL    HW210820   5.175   8.890   2.865
 2975SOL     OW10821  10.028   2.481   1.788
 2975SOL    HW110822  10.081   2.460   1.711
 2975SOL    HW210823  10.090   2.518   1.851
 2976SOL     OW10824   2.742   2.841  10.917
 2976SOL    HW110825   2.700   2.780  10.857
 2976SOL    HW210826   2.812   2.881  10.865
 2977SOL     OW10827   0.145   4.188  10.074
 2977SOL    HW110828   0.144   4.271  10.025
 2977SOL    HW210829   0.119   4.122  10.009
 2978SOL     OW10830  13.282   7.784   5.246
 2978SOL    HW110831  13.258   7.719   5.312
 2978SOL    HW210832  13.238   7.753   5.166
 2979SOL     OW10833  11.465   4.524  12.337
 2979SOL    HW110834  11.416   4.551  12.260
 2979SOL    HW210835  11.550   4.566  12.328
 2980SOL     OW10836   2.683  10.428   2.333
 2980SOL    HW110837   2.694  10.350   2.278
 2980SOL    HW210838   2.768  10.440   2.375
 2981SOL     OW10839  10.035   0.572   6.897
 2981SOL    HW110840  10.072   0.493   6.857
 2981SOL    HW210841  10.104   0.605   6.955
 2982SOL     OW10842   7.786   0.714   5.829
 2982SOL    HW110843   7.854   0.769   5.790
 2982SOL    HW210844   7.726   0.697   5.756
 2983SOL     OW10845   0.115  11.037   5.896
 2983SOL    HW110846   0.039  10.980   5.906
 2983SOL    HW210847   0.152  11.013   5.811
 2984SOL     OW10848  14.438   6.302   5.572
 2984SOL    HW110849  14.442   6.206   5.577
 2984SOL    HW210850  14.429   6.320   5.478
 2985SOL     OW10851  13.361   7.123   9.779
 2985SOL    HW110852  13.392   7.048   9.829
 2985SOL    HW210853  13.440   7.171   9.755
 2986SOL     OW10854  11.036   4.086   7.446
 2986SOL    HW110855  11.009   4.004   7.405
 2986SOL    HW210856  11.128   4.094   7.423
 2987SOL     OW10857  14.294  11.981   9.289
 2987SOL    HW110858  14.362  12.046   9.273
 2987SOL    HW210859  14.237  12.022   9.354
 2988SOL     OW10860  12.017  11.166   7.688
 2988SOL    HW110861  11.995  11.081   7.649
 2988SOL    HW210862  11.978  11.163   7.775
 2989SOL     OW10863   6.648   7.224  11.526
 2989SOL    HW110864   6.704   7.147  11.517
 2989SOL    HW210865   6.577   7.196  11.584
 2990SOL     OW10866   5.746  14.216   7.875
 2990SOL    HW110867   5.833  14.255   7.866
 2990SOL    HW210868   5.732  14.169   7.794
 2991SOL     OW10869  14.177   9.163   2.524
 2991SOL    HW110870  14.264   9.126   2.541
 2991SOL    HW210871  14.134   9.098   2.468
 2992SOL     OW10872   8.692  13.160   5.507
 2992SOL    HW110873   8.724  13.083   5.459
 2992SOL    HW210874   8.600  13.167   5.482
 2993SOL     OW10875   3.742   2.730  11.556
 2993SOL    HW110876   3.717   2.656  11.501
 2993SOL    HW210877   3.671   2.793  11.545
 2994SOL     OW10878   0.785  11.157   7.183
 2994SOL    HW110879   0.704  11.208   7.178
 2994SOL    HW210880   0.853  11.220   7.159
 2995SOL     OW10881  14.051   0.115   3.850
 2995SOL    HW110882  14.099   0.059   3.789
 2995SOL    HW210883  14.082   0.090   3.936
 2996SOL     OW10884   7.842  11.258   1.477
 2996SOL    HW110885   7.760  11.219   1.505
 2996SOL    HW210886   7.819  11.348   1.454
 2997SOL     OW10887   1.162   3.829   7.165
 2997SOL    HW110888   1.253   3.857   7.168
 2997SOL    HW210889   1.143   3.819   7.071
 2998SOL     OW10890   0.183   7.394   8.317
 2998SOL    HW110891   0.125   7.409   8.392
 2998SOL    HW210892   0.234   7.317   8.342
 2999SOL     OW10893   1.303   8.383   0.160
 2999SOL    HW110894   1.313   8.452   0.226
 2999SOL    HW210895   1.388   8.380   0.116
 3000SOL     OW10896   8.275   0.344  11.670
 3000SOL    HW110897   8.197   0.330  11.724
 3000SOL    HW210898   8.289   0.438  11.672
 3001SOL     OW10899  11.739   7.265  13.808
 3001SOL    HW110900  11.726   7.211  13.886
 3001SOL    HW210901  11.670   7.237  13.748
 3002SOL     OW10902  13.839  12.160  14.668
 3002SOL    HW110903  13.815  12.141  14.577
 3002SOL    HW210904  13.906  12.227  14.661
 3003SOL     OW10905   5.032  10.242  13.601
 3003SOL    HW110906   5.032  10.304  13.529
 3003SOL    HW210907   4.973  10.172  13.573
 3004SOL     OW10908  13.294   6.611   3.238
 3004SOL    HW110909  13.256   6.527   3.262
 3004SOL    HW210910  13.336   6.596   3.153
 3005SOL     OW10911   1.145  14.586   0.771
 3005SOL    HW110912   1.207  14.520   0.737
 3005SOL    HW210913   1.063  14.538   0.782
 3006SOL     OW10914   1.790  13.761   4.333
 3006SOL    HW110915   1.759  13.747   4.244
 3006SOL    HW210916   1.768  13.852   4.352
 3007SOL     OW10917   8.729  13.830  10.634
 3007SOL    HW110918   8.749  13.783  10.715
 3007SOL    HW210919   8.745  13.766  10.564
 3008SOL     OW10920  14.273   6.528   0.420
 3008SOL    HW110921  14.240   6.599   0.476
 3008SOL    HW210922  14.247   6.448   0.466
 3009SOL     OW10923   5.289   9.357  10.244
 3009SOL    HW110924   5.227   9.292  10.276
 3009SOL    HW210925   5.374   9.328  10.277
 3010SOL     OW10926  11.438  14.164   2.266
 3010SOL    HW110927  11.523  14.207   2.256
 3010SOL    HW210928  11.455  14.072   2.245
 3011SOL     OW10929  14.393   9.734   6.466
 3011SOL    HW110930  14.380   9.711   6.559
 3011SOL    HW210931  14.324   9.686   6.420
 3012SOL     OW10932   9.837  12.388   9.245
 3012SOL    HW110933   9.925  12.375   9.278
 3012SOL    HW210934   9.798  12.300   9.247
 3013SOL     OW10935   9.003   6.252   9.693
 3013SOL    HW110936   8.980   6.168   9.732
 3013SOL    HW210937   8.996   6.237   9.599
 3014SOL     OW10938   7.159   2.443   4.043
 3014SOL    HW110939   7.137   2.449   4.136
 3014SOL    HW210940   7.217   2.367   4.037
 3015SOL     OW10941  14.378   6.830   9.718
 3015SOL    HW110942  14.302   6.865   9.765
 3015SOL    HW210943  14.368   6.735   9.726
 3016SOL     OW10944   9.044   8.941  13.005
 3016SOL    HW110945   8.968   8.932  12.948
 3016SOL    HW210946   9.091   9.017  12.971
 3017SOL     OW10947  13.852   9.316   2.902
 3017SOL    HW110948  13.836   9.237   2.955
 3017SOL    HW210949  13.923   9.291   2.843
 3018SOL     OW10950   6.024   9.987   6.149
 3018SOL    HW110951   5.973   9.990   6.230
 3018SOL    HW210952   5.992   9.909   6.103
 3019SOL     OW10953  11.174  10.091   2.053
 3019SOL    HW110954  11.153  10.046   1.971
 3019SOL    HW210955  11.200  10.021   2.113
 3020SOL     OW10956  10.265   0.072  13.905
 3020SOL    HW110957  10.279   0.028  13.821
 3020SOL    HW210958  10.225   0.156  13.882
 3021SOL     OW10959   4.343  13.594  14.599
 3021SOL    HW110960   4.362  13.686  14.618
 3021SOL    HW210961   4.414  13.546  14.641
 3022SOL     OW10962  11.633   6.444   3.510
 3022SOL    HW110963  11.608   6.533   3.484
 3022SOL    HW210964  11.562   6.414   3.566
 3023SOL     OW10965   7.586   9.793  14.787
 3023SOL    HW110966   7.553   9.879  14.812
 3023SOL    HW210967   7.606   9.749   0.000
 3024SOL     OW10968   6.223   5.469   5.595
 3024SOL    HW110969   6.170   5.400   5.555
 3024SOL    HW210970   6.159   5.529   5.633
 3025SOL     OW10971   1.898  11.651   7.135
 3025SOL    HW110972   1.963  11.654   7.065
 3025SOL    HW210973   1.825  11.704   7.103
 3026SOL     OW10974  11.411   7.109  12.520
 3026SOL    HW110975  11.388   7.034  12.466
 3026SOL    HW210976  11.507   7.108  12.523
 3027SOL     OW10977   7.588   5.434   3.774
 3027SOL    HW110978   7.581   5.520   3.731
 3027SOL    HW210979   7.630   5.453   3.858
 3028SOL     OW10980   2.419   7.824   7.339
 3028SOL    HW110981   2.429   7.757   7.407
 3028SOL    HW210982   2.331   7.859   7.354
 3029SOL     OW10983  12.602   5.587   9.738
 3029SOL    HW110984  12.661   5.658   9.711
 3029SOL    HW210985  12.514   5.621   9.722
 3030SOL     OW10986   2.903   4.033   5.650
 3030SOL    HW110987   2.946   4.083   5.719
 3030SOL    HW210988   2.835   4.092   5.617
 3031SOL     OW10989  13.221   0.622   3.537
 3031SOL    HW110990  13.157   0.648   3.471
 3031SOL    HW210991  13.252   0.705   3.574
 3032SOL     OW10992  12.408   6.647   6.814
 3032SOL    HW110993  12.377   6.610   6.897
 3032SOL    HW210994  12.350   6.721   6.797
 3033SOL     OW10995  10.020   7.504   1.259
 3033SOL    HW110996  10.049   7.577   1.313
 3033SOL    HW210997  10.100   7.472   1.216
 3034SOL     OW10998   7.912   5.579  12.332
 3034SOL    HW110999   7.860   5.533  12.398
 3034SOL    HW211000   7.878   5.547  12.248
 3035SOL     OW11001   6.355   1.540  11.633
 3035SOL    HW111002   6.294   1.575  11.699
 3035SOL    HW211003   6.331   1.586  11.552
 3036SOL     OW11004   1.681   8.646  11.761
 3036SOL    HW111005   1.675   8.577  11.695
 3036SOL    HW211006   1.649   8.604  11.841
 3037SOL     OW11007   4.284   8.230   2.145
 3037SOL    HW111008   4.317   8.215   2.057
 3037SOL    HW211009   4.261   8.143   2.177
 3038SOL     OW11010  13.032   4.083  12.812
 3038SOL    HW111011  13.087   4.093  12.734
 3038SOL    HW211012  13.013   4.172  12.840
 3039SOL     OW11013   0.099  12.889   6.082
 3039SOL    HW111014   0.021  12.921   6.037
 3039SOL    HW211015   0.080  12.900   6.175
 3040SOL     OW11016   6.621   9.096   1.148
 3040SOL    HW111017   6.637   9.074   1.240
 3040SOL    HW211018   6.708   9.103   1.109
 3041SOL     OW11019   2.253   5.788   5.169
 3041SOL    HW111020   2.209   5.863   5.129
 3041SOL    HW211021   2.326   5.769   5.110
 3042SOL     OW11022   0.841  12.388  12.228
 3042SOL    HW111023   0.824  12.479  12.206
 3042SOL    HW211024   0.756  12.354  12.256
 3043SOL     OW11025   7.154   2.261   5.812
 3043SOL    HW111026   7.185   2.251   5.903
 3043SOL    HW211027   7.183   2.349   5.787
 3044SOL     OW11028  13.107   6.112   4.513
 3044SOL    HW111029  13.184   6.125   4.569
 3044SOL    HW211030  13.111   6.020   4.487
 3045SOL     OW11031   7.606   3.673   4.657
 3045SOL    HW111032   7.580   3.602   4.716
 3045SOL    HW211033   7.662   3.730   4.710
 3046SOL     OW11034  10.569   0.117   4.624
 3046SOL    HW111035  10.614   0.032   4.620
 3046SOL    HW211036  10.478   0.095   4.645
 3047SOL     OW11037   0.333  13.466   2.796
 3047SOL    HW111038   0.240  13.488   2.798
 3047SOL    HW211039   0.354  13.441   2.886
 3048SOL     OW11040   3.025   3.030  12.194
 3048SOL    HW111041   3.089   2.969  12.157
 3048SOL    HW211042   2.983   2.981  12.265
 3049SOL     OW11043  10.074   7.595  13.397
 3049SOL    HW111044  10.141   7.527  13.402
 3049SOL    HW211045  10.001   7.560  13.448
 3050SOL     OW11046   3.594  10.997   3.950
 3050SOL    HW111047   3.689  10.983   3.955
 3050SOL    HW211048   3.576  10.999   3.856
 3051SOL     OW11049   1.656   7.715   3.485
 3051SOL    HW111050   1.588   7.691   3.548
 3051SOL    HW211051   1.736   7.721   3.538
 3052SOL     OW11052  10.176  13.323   3.390
 3052SOL    HW111053  10.205  13.413   3.373
 3052SOL    HW211054  10.136  13.327   3.477
 3053SOL     OW11055   3.769   7.069  13.136
 3053SOL    HW111056   3.822   7.044  13.212
 3053SOL    HW211057   3.765   6.990  13.083
 3054SOL     OW11058  14.044   0.639   4.013
 3054SOL    HW111059  14.044   0.691   3.933
 3054SOL    HW211060  14.131   0.651   4.050
 3055SOL     OW11061  10.328   7.437   4.699
 3055SOL    HW111062  10.335   7.345   4.725
 3055SOL    HW211063  10.419   7.465   4.686
 3056SOL     OW11064  10.607   9.821   7.142
 3056SOL    HW111065  10.517   9.848   7.155
 3056SOL    HW211066  10.655   9.858   7.217
 3057SOL     OW11067   6.258   3.908   1.850
 3057SOL    HW111068   6.317   3.973   1.813
 3057SOL    HW211069   6.308   3.826   1.847
 3058SOL     OW11070  14.312   8.072  12.569
 3058SOL    HW111071  14.374   8.019  12.519
 3058SOL    HW211072  14.226   8.035  12.548
 3059SOL     OW11073  11.556   8.622   1.659
 3059SOL    HW111074  11.573   8.715   1.643
 3059SOL    HW211075  11.475   8.604   1.611
 3060SOL     OW11076   2.031  11.212   6.595
 3060SOL    HW111077   2.060  11.234   6.684
 3060SOL    HW211078   1.944  11.176   6.608
 3061SOL     OW11079   6.653  11.104  11.613
 3061SOL    HW111080   6.597  11.079  11.687
 3061SOL    HW211081   6.639  11.199  11.603
 3062SOL     OW11082   2.336  14.237   2.825
 3062SOL    HW111083   2.254  14.196   2.851
 3062SOL    HW211084   2.322  14.330   2.841
 3063SOL     OW11085   3.538   6.338   3.418
 3063SOL    HW111086   3.607   6.276   3.394
 3063SOL    HW211087   3.510   6.375   3.334
 3064SOL     OW11088   3.842   5.928   6.784
 3064SOL    HW111089   3.936   5.918   6.767
 3064SOL    HW211090   3.837   5.943   6.879
 3065SOL     OW11091   7.318   6.173   4.568
 3065SOL    HW111092   7.402   6.171   4.614
 3065SOL    HW211093   7.297   6.266   4.561
 3066SOL     OW11094   8.166   1.523   8.791
 3066SOL    HW111095   8.090   1.528   8.733
 3066SOL    HW211096   8.164   1.605   8.840
 3067SOL     OW11097   7.383   0.165  11.307
 3067SOL    HW111098   7.392   0.259  11.291
 3067SOL    HW211099   7.393   0.156  11.402
 3068SOL     OW11100   0.562   2.121   9.058
 3068SOL    HW111101   0.613   2.154   8.984
 3068SOL    HW211102   0.624   2.066   9.107
 3069SOL     OW11103   3.108  11.620   5.374
 3069SOL    HW111104   3.024  11.574   5.367
 3069SOL    HW211105   3.122  11.631   5.468
 3070SOL     OW11106  10.204  13.786   4.831
 3070SOL    HW111107  10.151  13.762   4.907
 3070SOL    HW211108  10.140  13.805   4.762
 3071SOL     OW11109   2.171   0.754   0.620
 3071SOL    HW111110   2.221   0.827   0.657
 3071SOL    HW211111   2.230   0.713   0.558
 3072SOL     OW11112   6.715   7.053   1.574
 3072SOL    HW111113   6.808   7.033   1.576
 3072SOL    HW211114   6.675   6.979   1.527
 3073SOL     OW11115  12.749   3.730  12.907
 3073SOL    HW111116  12.803   3.783  12.848
 3073SOL    HW211117  12.777   3.756  12.995
 3074SOL     OW11118   9.265  13.125   9.551
 3074SOL    HW111119   9.298  13.069   9.481
 3074SOL    HW211120   9.221  13.196   9.505
 3075SOL     OW11121   3.038   1.061   3.729
 3075SOL    HW111122   2.953   1.099   3.748
 3075SOL    HW211123   3.095   1.136   3.715
 3076SOL     OW11124  12.103  14.336   0.838
 3076SOL    HW111125  12.115  14.373   0.751
 3076SOL    HW211126  12.117  14.410   0.897
 3077SOL     OW11127  11.860  14.652  11.581
 3077SOL    HW111128  11.809  14.665  11.661
 3077SOL    HW211129  11.812  14.699  11.513
 3078SOL     OW11130   0.789  13.884  12.070
 3078SOL    HW111131   0.833  13.921  11.994
 3078SOL    HW211132   0.700  13.866  12.039
 3079SOL     OW11133  11.148  11.661   7.003
 3079SOL    HW111134  11.235  11.629   6.979
 3079SOL    HW211135  11.129  11.729   6.939
 3080SOL     OW11136   9.546   3.030  11.413
 3080SOL    HW111137   9.460   3.046  11.373
 3080SOL    HW211138   9.573   3.116  11.445
 3081SOL     OW11139   1.170   9.673  10.613
 3081SOL    HW111140   1.106   9.701  10.548
 3081SOL    HW211141   1.254   9.684  10.570
 3082SOL     OW11142  10.640  10.524   6.937
 3082SOL    HW111143  10.614  10.514   6.845
 3082SOL    HW211144  10.617  10.614   6.959
 3083SOL     OW11145   3.092   0.398   6.868
 3083SOL    HW111146   3.085   0.306   6.895
 3083SOL    HW211147   3.146   0.439   6.936
 3084SOL     OW11148   7.032   7.896   9.008
 3084SOL    HW111149   6.976   7.942   9.071
 3084SOL    HW211150   7.118   7.895   9.049
 3085SOL     OW11151   4.865   0.373   4.268
 3085SOL    HW111152   4.862   0.278   4.257
 3085SOL    HW211153   4.956   0.393   4.287
 3086SOL     OW11154   3.318   3.334  11.615
 3086SOL    HW111155   3.322   3.389  11.693
 3086SOL    HW211156   3.249   3.372  11.561
 3087SOL     OW11157   3.416   2.435   7.412
 3087SOL    HW111158   3.340   2.478   7.372
 3087SOL    HW211159   3.478   2.506   7.427
 3088SOL     OW11160  10.195  12.001   4.630
 3088SOL    HW111161  10.290  11.996   4.623
 3088SOL    HW211162  10.176  12.094   4.632
 3089SOL     OW11163  10.685   5.977   8.231
 3089SOL    HW111164  10.731   6.007   8.309
 3089SOL    HW211165  10.596   5.960   8.261
 3090SOL     OW11166  13.527   4.460   7.633
 3090SOL    HW111167  13.433   4.454   7.616
 3090SOL    HW211168  13.559   4.518   7.565
 3091SOL     OW11169   4.409   2.220  12.690
 3091SOL    HW111170   4.468   2.149  12.664
 3091SOL    HW211171   4.403   2.277  12.614
 3092SOL     OW11172  14.188   4.706   5.667
 3092SOL    HW111173  14.273   4.671   5.640
 3092SOL    HW211174  14.203   4.799   5.680
 3093SOL     OW11175  11.066   5.047  14.088
 3093SOL    HW111176  11.062   5.045  14.184
 3093SOL    HW211177  11.050   5.139  14.065
 3094SOL     OW11178   9.748   0.330   7.252
 3094SOL    HW111179   9.715   0.377   7.175
 3094SOL    HW211180   9.669   0.301   7.297
 3095SOL     OW11181   4.448   7.143  13.256
 3095SOL    HW111182   4.534   7.105  13.242
 3095SOL    HW211183   4.426   7.119  13.346
 3096SOL     OW11184   8.969   3.814   9.424
 3096SOL    HW111185   8.976   3.883   9.490
 3096SOL    HW211186   9.042   3.830   9.364
 3097SOL     OW11187   1.011   0.508   1.146
 3097SOL    HW111188   0.974   0.461   1.221
 3097SOL    HW211189   1.093   0.545   1.178
 3098SOL     OW11190   5.131   5.644  14.193
 3098SOL    HW111191   5.123   5.685  14.279
 3098SOL    HW211192   5.225   5.635  14.179
 3099SOL     OW11193  13.173   8.882  14.681
 3099SOL    HW111194  13.110   8.845  14.742
 3099SOL    HW211195  13.206   8.808  14.631
 3100SOL     OW11196   4.387   7.068   2.415
 3100SOL    HW111197   4.306   7.030   2.449
 3100SOL    HW211198   4.422   7.120   2.487
 3101SOL     OW11199   0.968  14.626   6.141
 3101SOL    HW111200   0.994  14.584   6.058
 3101SOL    HW211201   0.886  14.671   6.120
 3102SOL     OW11202   7.005   8.584  10.857
 3102SOL    HW111203   6.935   8.645  10.833
 3102SOL    HW211204   6.959   8.504  10.881
 3103SOL     OW11205  10.302   0.097   4.706
 3103SOL    HW111206  10.228   0.139   4.750
 3103SOL    HW211207  10.332   0.031   4.768
 3104SOL     OW11208   4.383   5.216   6.808
 3104SOL    HW111209   4.420   5.269   6.878
 3104SOL    HW211210   4.460   5.183   6.760
 3105SOL     OW11211   0.424   1.266   7.081
 3105SOL    HW111212   0.497   1.320   7.052
 3105SOL    HW211213   0.356   1.282   7.016
 3106SOL     OW11214   9.661   4.961  13.119
 3106SOL    HW111215   9.723   4.934  13.050
 3106SOL    HW211216   9.644   5.053  13.100
 3107SOL     OW11217   9.653   3.398  14.052
 3107SOL    HW111218   9.711   3.349  13.994
 3107SOL    HW211219   9.603   3.456  13.994
 3108SOL     OW11220   0.376   9.682   3.517
 3108SOL    HW111221   0.464   9.689   3.554
 3108SOL    HW211222   0.381   9.608   3.457
 3109SOL     OW11223   0.626   6.960   9.488
 3109SOL    HW111224   0.559   6.966   9.420
 3109SOL    HW211225   0.694   6.905   9.449
 3110SOL     OW11226  13.620  13.289   7.699
 3110SOL    HW111227  13.670  13.278   7.618
 3110SOL    HW211228  13.602  13.383   7.703
 3111SOL     OW11229  14.611   5.997  11.646
 3111SOL    HW111230  14.519   5.977  11.629
 3111SOL    HW211231  14.660   5.935  11.593
 3112SOL     OW11232  11.865   1.589   4.709
 3112SOL    HW111233  11.855   1.599   4.803
 3112SOL    HW211234  11.816   1.509   4.688
 3113SOL     OW11235   0.835   7.533   6.134
 3113SOL    HW111236   0.812   7.487   6.215
 3113SOL    HW211237   0.928   7.513   6.121
 3114SOL     OW11238  11.843   7.293   2.905
 3114SOL    HW111239  11.806   7.285   2.992
 3114SOL    HW211240  11.788   7.238   2.850
 3115SOL     OW11241  12.080  11.423  11.753
 3115SOL    HW111242  12.119  11.391  11.672
 3115SOL    HW211243  12.151  11.419  11.817
 3116SOL     OW11244   2.520   0.295   5.366
 3116SOL    HW111245   2.471   0.275   5.445
 3116SOL    HW211246   2.609   0.314   5.397
 3117SOL     OW11247  14.013  11.524   1.227
 3117SOL    HW111248  14.005  11.485   1.140
 3117SOL    HW211249  13.948  11.478   1.280
 3118SOL     OW11250  11.797   2.663  10.001
 3118SOL    HW111251  11.806   2.731   9.934
 3118SOL    HW211252  11.708   2.672  10.033
 3119SOL     OW11253   7.812   1.733   8.867
 3119SOL    HW111254   7.774   1.689   8.943
 3119SOL    HW211255   7.759   1.812   8.856
 3120SOL     OW11256   7.774   7.734   2.192
 3120SOL    HW111257   7.819   7.714   2.273
 3120SOL    HW211258   7.691   7.686   2.198
 3121SOL     OW11259   2.550   4.261   2.937
 3121SOL    HW111260   2.610   4.187   2.931
 3121SOL    HW211261   2.605   4.336   2.960
 3122SOL     OW11262  10.786  10.901  12.561
 3122SOL    HW111263  10.866  10.941  12.526
 3122SOL    HW211264  10.765  10.953  12.638
 3123SOL     OW11265   4.556   2.264   9.573
 3123SOL    HW111266   4.635   2.318   9.564
 3123SOL    HW211267   4.496   2.317   9.626
 3124SOL     OW11268   9.128   7.784   3.449
 3124SOL    HW111269   9.223   7.786   3.464
 3124SOL    HW211270   9.094   7.732   3.522
 3125SOL     OW11271  13.355  13.540  10.617
 3125SOL    HW111272  13.385  13.452  10.596
 3125SOL    HW211273  13.435  13.593  10.616
 3126SOL     OW11274  12.890  13.528   3.652
 3126SOL    HW111275  12.844  13.478   3.720
 3126SOL    HW211276  12.822  13.580   3.610
 3127SOL     OW11277   6.067  14.803  14.016
 3127SOL    HW111278   5.977  14.815  13.985
 3127SOL    HW211279   6.093   0.020  14.047
 3128SOL     OW11280   7.182   8.454   1.072
 3128SOL    HW111281   7.185   8.376   1.017
 3128SOL    HW211282   7.156   8.421   1.159
 3129SOL     OW11283   1.964   5.985   7.706
 3129SOL    HW111284   1.922   5.963   7.789
 3129SOL    HW211285   2.044   5.932   7.705
 3130SOL     OW11286   3.265   8.695  13.283
 3130SOL    HW111287   3.341   8.643  13.308
 3130SOL    HW211288   3.263   8.766  13.347
 3131SOL     OW11289   3.312  14.000   3.374
 3131SOL    HW111290   3.260  13.953   3.308
 3131SOL    HW211291   3.374  14.052   3.323
 3132SOL     OW11292  14.806  11.420   1.846
 3132SOL    HW111293   0.029  11.444   1.839
 3132SOL    HW211294  14.761  11.482   1.788
 3133SOL     OW11295   4.029   3.283  13.799
 3133SOL    HW111296   4.056   3.287  13.707
 3133SOL    HW211297   3.965   3.354  13.809
 3134SOL     OW11298  13.227  14.103   3.840
 3134SOL    HW111299  13.204  14.030   3.897
 3134SOL    HW211300  13.305  14.073   3.793
 3135SOL     OW11301   1.242   6.744  13.511
 3135SOL    HW111302   1.183   6.682  13.555
 3135SOL    HW211303   1.186   6.819  13.491
 3136SOL     OW11304   4.780   7.606   0.399
 3136SOL    HW111305   4.688   7.614   0.423
 3136SOL    HW211306   4.811   7.696   0.391
 3137SOL     OW11307   2.103   1.404   6.009
 3137SOL    HW111308   2.179   1.449   5.972
 3137SOL    HW211309   2.045   1.388   5.935
 3138SOL     OW11310   8.316   8.162   7.086
 3138SOL    HW111311   8.282   8.109   7.158
 3138SOL    HW211312   8.375   8.104   7.038
 3139SOL     OW11313   4.382   4.364   1.006
 3139SOL    HW111314   4.416   4.286   1.048
 3139SOL    HW211315   4.315   4.397   1.066
 3140SOL     OW11316  13.896   5.742   2.692
 3140SOL    HW111317  13.855   5.826   2.671
 3140SOL    HW211318  13.836   5.676   2.655
 3141SOL     OW11319   3.468   7.376   6.117
 3141SOL    HW111320   3.454   7.341   6.204
 3141SOL    HW211321   3.562   7.368   6.102
 3142SOL     OW11322   3.816  13.699   4.307
 3142SOL    HW111323   3.772  13.747   4.236
 3142SOL    HW211324   3.758  13.625   4.325
 3143SOL     OW11325  13.115   2.708  12.158
 3143SOL    HW111326  13.074   2.690  12.242
 3143SOL    HW211327  13.045   2.694  12.094
 3144SOL     OW11328   8.949  10.662   3.690
 3144SOL    HW111329   8.965  10.694   3.778
 3144SOL    HW211330   9.030  10.681   3.642
 3145SOL     OW11331   4.637   6.407   8.989
 3145SOL    HW111332   4.654   6.313   8.993
 3145SOL    HW211333   4.618   6.432   9.079
 3146SOL     OW11334   6.404   4.461   9.625
 3146SOL    HW111335   6.346   4.422   9.560
 3146SOL    HW211336   6.347   4.518   9.676
 3147SOL     OW11337  11.570   6.427   8.304
 3147SOL    HW111338  11.569   6.493   8.234
 3147SOL    HW211339  11.487   6.381   8.294
 3148SOL     OW11340   6.882  11.963   7.994
 3148SOL    HW111341   6.794  11.926   8.000
 3148SOL    HW211342   6.880  12.040   8.051
 3149SOL     OW11343  14.004   5.699   6.116
 3149SOL    HW111344  13.909   5.695   6.104
 3149SOL    HW211345  14.033   5.771   6.059
 3150SOL     OW11346   8.779  14.129   7.551
 3150SOL    HW111347   8.766  14.107   7.459
 3150SOL    HW211348   8.860  14.084   7.575
 3151SOL     OW11349  13.153  13.509  10.018
 3151SOL    HW111350  13.199  13.467   9.945
 3151SOL    HW211351  13.085  13.561   9.977
 3152SOL     OW11352   7.369   6.017   4.883
 3152SOL    HW111353   7.419   5.985   4.808
 3152SOL    HW211354   7.279   5.993   4.864
 3153SOL     OW11355   6.613   9.892  10.295
 3153SOL    HW111356   6.678   9.952  10.259
 3153SOL    HW211357   6.530   9.937  10.285
 3154SOL     OW11358   7.311  10.663  10.310
 3154SOL    HW111359   7.269  10.728  10.366
 3154SOL    HW211360   7.259  10.663  10.230
 3155SOL     OW11361   3.873   5.270  13.496
 3155SOL    HW111362   3.851   5.355  13.536
 3155SOL    HW211363   3.838   5.276  13.407
 3156SOL     OW11364   8.003   0.510  14.301
 3156SOL    HW111365   7.929   0.450  14.316
 3156SOL    HW211366   8.076   0.471  14.349
 3157SOL     OW11367   4.693   5.740   7.789
 3157SOL    HW111368   4.599   5.758   7.796
 3157SOL    HW211369   4.731   5.783   7.865
 3158SOL     OW11370   1.012   2.546   7.090
 3158SOL    HW111371   0.979   2.628   7.127
 3158SOL    HW211372   1.056   2.503   7.163
 3159SOL     OW11373  10.466   2.683   7.048
 3159SOL    HW111374  10.462   2.588   7.050
 3159SOL    HW211375  10.453   2.711   7.139
 3160SOL     OW11376   7.790   8.165   9.560
 3160SOL    HW111377   7.755   8.190   9.646
 3160SOL    HW211378   7.751   8.229   9.500
 3161SOL     OW11379  12.861   5.518   1.368
 3161SOL    HW111380  12.867   5.538   1.274
 3161SOL    HW211381  12.847   5.604   1.409
 3162SOL     OW11382  11.747   0.470   9.732
 3162SOL    HW111383  11.687   0.455   9.660
 3162SOL    HW211384  11.698   0.442   9.810
 3163SOL     OW11385   0.311   2.045  14.864
 3163SOL    HW111386   0.299   1.964  14.814
 3163SOL    HW211387   0.237   2.046   0.056
 3164SOL     OW11388  10.156  12.093  12.340
 3164SOL    HW111389  10.079  12.098  12.396
 3164SOL    HW211390  10.133  12.027  12.274
 3165SOL     OW11391   9.530   0.700   8.141
 3165SOL    HW111392   9.580   0.745   8.208
 3165SOL    HW211393   9.594   0.675   8.075
 3166SOL     OW11394   5.778  11.059   8.669
 3166SOL    HW111395   5.685  11.060   8.645
 3166SOL    HW211396   5.781  11.097   8.757
 3167SOL     OW11397   9.560   2.306   5.800
 3167SOL    HW111398   9.471   2.328   5.773
 3167SOL    HW211399   9.555   2.213   5.825
 3168SOL     OW11400   3.009  10.651   0.525
 3168SOL    HW111401   3.039  10.575   0.576
 3168SOL    HW211402   3.088  10.701   0.507
 3169SOL     OW11403   8.430   8.027   3.558
 3169SOL    HW111404   8.481   7.955   3.522
 3169SOL    HW211405   8.339   8.000   3.547
 3170SOL     OW11406   1.703   5.884  14.577
 3170SOL    HW111407   1.712   5.789  14.589
 3170SOL    HW211408   1.612   5.903  14.598
 3171SOL     OW11409   0.316  10.782   0.691
 3171SOL    HW111410   0.356  10.695   0.697
 3171SOL    HW211411   0.222  10.764   0.693
 3172SOL     OW11412   4.627  14.292   5.936
 3172SOL    HW111413   4.658  14.300   5.846
 3172SOL    HW211414   4.678  14.220   5.973
 3173SOL     OW11415   3.329   1.933  14.575
 3173SOL    HW111416   3.405   1.942  14.633
 3173SOL    HW211417   3.253   1.939  14.633
 3174SOL     OW11418  11.162  12.387   1.081
 3174SOL    HW111419  11.224  12.337   1.135
 3174SOL    HW211420  11.078  12.377   1.125
 3175SOL     OW11421   0.622  10.631  13.017
 3175SOL    HW111422   0.642  10.706  13.073
 3175SOL    HW211423   0.591  10.669  12.935
 3176SOL     OW11424   5.185  12.031   7.215
 3176SOL    HW111425   5.220  12.098   7.157
 3176SOL    HW211426   5.179  12.073   7.300
 3177SOL     OW11427   9.047   8.987  13.745
 3177SOL    HW111428   9.116   8.947  13.798
 3177SOL    HW211429   9.052   8.942  13.661
 3178SOL     OW11430   3.816   9.841   5.742
 3178SOL    HW111431   3.898   9.889   5.754
 3178SOL    HW211432   3.843   9.754   5.716
 3179SOL     OW11433  12.145  12.629   7.322
 3179SOL    HW111434  12.075  12.584   7.369
 3179SOL    HW211435  12.222  12.621   7.379
 3180SOL     OW11436  14.429   2.315   4.482
 3180SOL    HW111437  14.358   2.302   4.419
 3180SOL    HW211438  14.507   2.324   4.427
 3181SOL     OW11439   6.209   3.942  13.477
 3181SOL    HW111440   6.161   4.010  13.524
 3181SOL    HW211441   6.300   3.953  13.504
 3182SOL     OW11442   7.858   7.124   6.135
 3182SOL    HW111443   7.882   7.202   6.085
 3182SOL    HW211444   7.941   7.081   6.154
 3183SOL     OW11445   8.567  12.091   3.698
 3183SOL    HW111446   8.471  12.089   3.699
 3183SOL    HW211447   8.594  12.002   3.716
 3184SOL     OW11448   9.367   2.016   6.800
 3184SOL    HW111449   9.342   2.093   6.749
 3184SOL    HW211450   9.447   2.043   6.846
 3185SOL     OW11451  14.610   4.264   2.900
 3185SOL    HW111452  14.695   4.230   2.928
 3185SOL    HW211453  14.620   4.277   2.806
 3186SOL     OW11454  11.332   7.803   3.311
 3186SOL    HW111455  11.418   7.784   3.347
 3186SOL    HW211456  11.281   7.835   3.386
 3187SOL     OW11457   8.186   5.578   0.776
 3187SOL    HW111458   8.102   5.612   0.745
 3187SOL    HW211459   8.242   5.578   0.699
 3188SOL     OW11460   1.834  12.152   4.457
 3188SOL    HW111461   1.759  12.162   4.516
 3188SOL    HW211462   1.817  12.215   4.386
 3189SOL     OW11463   1.806   3.558   6.452
 3189SOL    HW111464   1.816   3.651   6.470
 3189SOL    HW211465   1.769   3.522   6.532
 3190SOL     OW11466  12.790   0.192  11.181
 3190SOL    HW111467  12.725   0.165  11.116
 3190SOL    HW211468  12.803   0.115  11.235
 3191SOL     OW11469   7.451   0.521   1.910
 3191SOL    HW111470   7.534   0.483   1.879
 3191SOL    HW211471   7.416   0.455   1.971
 3192SOL     OW11472  13.336   3.012  14.567
 3192SOL    HW111473  13.245   2.983  14.573
 3192SOL    HW211474  13.381   2.968  14.639
 3193SOL     OW11475   2.584   1.681   4.232
 3193SOL    HW111476   2.598   1.691   4.138
 3193SOL    HW211477   2.661   1.722   4.272
 3194SOL     OW11478   0.625   8.604  12.487
 3194SOL    HW111479   0.669   8.529  12.527
 3194SOL    HW211480   0.591   8.570  12.404
 3195SOL     OW11481   4.192   0.740  13.934
 3195SOL    HW111482   4.222   0.768  14.021
 3195SOL    HW211483   4.119   0.799  13.914
 3196SOL     OW11484  12.047   8.221  14.663
 3196SOL    HW111485  11.996   8.144  14.689
 3196SOL    HW211486  12.016   8.291  14.720
 3197SOL     OW11487  14.182  13.507   6.809
 3197SOL    HW111488  14.246  13.476   6.745
 3197SOL    HW211489  14.104  13.452   6.794
 3198SOL     OW11490  12.547   4.257   2.733
 3198SOL    HW111491  12.524   4.164   2.736
 3198SOL    HW211492  12.584   4.270   2.646
 3199SOL     OW11493   0.439   9.461   4.523
 3199SOL    HW111494   0.347   9.485   4.519
 3199SOL    HW211495   0.455   9.414   4.441
 3200SOL     OW11496   7.807  12.107   4.774
 3200SOL    HW111497   7.832  12.194   4.806
 3200SOL    HW211498   7.788  12.057   4.854
 3201SOL     OW11499   8.094   0.193  14.619
 3201SOL    HW111500   8.002   0.172  14.606
 3201SOL    HW211501   8.101   0.220  14.710
 3202SOL     OW11502  12.725   3.433   9.631
 3202SOL    HW111503  12.806   3.438   9.682
 3202SOL    HW211504  12.744   3.369   9.563
 3203SOL     OW11505   4.766  10.289   4.804
 3203SOL    HW111506   4.748  10.371   4.758
 3203SOL    HW211507   4.809  10.316   4.885
 3204SOL     OW11508   2.678   4.287   2.455
 3204SOL    HW111509   2.650   4.367   2.499
 3204SOL    HW211510   2.626   4.218   2.495
 3205SOL     OW11511  14.469  11.795   3.987
 3205SOL    HW111512  14.489  11.808   3.895
 3205SOL    HW211513  14.375  11.811   3.994
 3206SOL     OW11514  13.502   2.276   6.277
 3206SOL    HW111515  13.441   2.302   6.346
 3206SOL    HW211516  13.543   2.196   6.311
 3207SOL     OW11517   5.266  14.600  12.128
 3207SOL    HW111518   5.214  14.614  12.050
 3207SOL    HW211519   5.356  14.591  12.096
 3208SOL     OW11520   4.187   8.069   3.115
 3208SOL    HW111521   4.142   7.987   3.091
 3208SOL    HW211522   4.276   8.041   3.140
 3209SOL     OW11523   1.931   9.790  11.240
 3209SOL    HW111524   1.864   9.726  11.264
 3209SOL    HW211525   1.921   9.861  11.304
 3210SOL     OW11526   5.233   5.167   4.465
 3210SOL    HW111527   5.183   5.240   4.431
 3210SOL    HW211528   5.191   5.145   4.548
 3211SOL     OW11529   6.650  11.567  12.115
 3211SOL    HW111530   6.610  11.533  12.195
 3211SOL    HW211531   6.595  11.532  12.045
 3212SOL     OW11532   6.480   8.675  14.146
 3212SOL    HW111533   6.430   8.677  14.227
 3212SOL    HW211534   6.475   8.584  14.116
 3213SOL     OW11535  11.389   7.194  13.185
 3213SOL    HW111536  11.294   7.184  13.174
 3213SOL    HW211537  11.409   7.278  13.143
 3214SOL     OW11538   5.925   5.196  13.272
 3214SOL    HW111539   5.851   5.140  13.249
 3214SOL    HW211540   6.001   5.139  13.268
 3215SOL     OW11541   7.256   2.805   0.898
 3215SOL    HW111542   7.255   2.826   0.805
 3215SOL    HW211543   7.345   2.774   0.915
 3216SOL     OW11544   8.925  13.885   0.319
 3216SOL    HW111545   8.900  13.968   0.280
 3216SOL    HW211546   8.989  13.909   0.387
 3217SOL     OW11547  13.188   1.885  11.513
 3217SOL    HW111548  13.144   1.884  11.598
 3217SOL    HW211549  13.271   1.928  11.529
 3218SOL     OW11550   5.358  11.993   6.629
 3218SOL    HW111551   5.304  12.006   6.707
 3218SOL    HW211552   5.321  11.916   6.586
 3219SOL     OW11553   3.422  13.879   9.281
 3219SOL    HW111554   3.375  13.813   9.332
 3219SOL    HW211555   3.458  13.829   9.207
 3220SOL     OW11556   7.836  13.171   0.868
 3220SOL    HW111557   7.784  13.130   0.937
 3220SOL    HW211558   7.786  13.155   0.788
 3221SOL     OW11559  14.742   3.094  13.003
 3221SOL    HW111560  14.731   3.013  12.952
 3221SOL    HW211561  14.816   3.075  13.062
 3222SOL     OW11562  11.856  13.450  11.206
 3222SOL    HW111563  11.925  13.399  11.164
 3222SOL    HW211564  11.850  13.530  11.153
 3223SOL     OW11565   2.047  13.052   7.653
 3223SOL    HW111566   1.965  13.089   7.619
 3223SOL    HW211567   2.102  13.040   7.575
 3224SOL     OW11568  13.916   6.347  14.115
 3224SOL    HW111569  13.949   6.391  14.036
 3224SOL    HW211570  13.848   6.406  14.148
 3225SOL     OW11571  12.828  12.490  10.022
 3225SOL    HW111572  12.877  12.572  10.026
 3225SOL    HW211573  12.895  12.423  10.008
 3226SOL     OW11574   4.055   1.868  11.530
 3226SOL    HW111575   3.960   1.881  11.530
 3226SOL    HW211576   4.070   1.804  11.600
 3227SOL     OW11577  14.548   9.207  14.163
 3227SOL    HW111578  14.631   9.222  14.119
 3227SOL    HW211579  14.567   9.143  14.231
 3228SOL     OW11580   3.969   3.313   4.921
 3228SOL    HW111581   4.036   3.281   4.981
 3228SOL    HW211582   3.900   3.346   4.979
 3229SOL     OW11583  10.665   0.377  14.347
 3229SOL    HW111584  10.583   0.336  14.317
 3229SOL    HW211585  10.686   0.442  14.280
 3230SOL     OW11586  12.459  11.834  11.340
 3230SOL    HW111587  12.495  11.919  11.315
 3230SOL    HW211588  12.364  11.847  11.339
 3231SOL     OW11589   7.512   7.650   1.806
 3231SOL    HW111590   7.515   7.742   1.781
 3231SOL    HW211591   7.595   7.614   1.774
 3232SOL     OW11592   3.949   8.737   8.725
 3232SOL    HW111593   3.938   8.666   8.661
 3232SOL    HW211594   3.886   8.716   8.794
 3233SOL     OW11595   5.630   2.233   2.787
 3233SOL    HW111596   5.704   2.268   2.837
 3233SOL    HW211597   5.619   2.294   2.714
 3234SOL     OW11598   1.402   8.444  14.371
 3234SOL    HW111599   1.401   8.407  14.283
 3234SOL    HW211600   1.343   8.519  14.367
 3235SOL     OW11601   1.137  11.807   2.938
 3235SOL    HW111602   1.115  11.720   2.905
 3235SOL    HW211603   1.214  11.794   2.993
 3236SOL     OW11604   6.088  12.543   8.524
 3236SOL    HW111605   6.033  12.475   8.563
 3236SOL    HW211606   6.027  12.612   8.498
 3237SOL     OW11607   0.093  10.231   2.686
 3237SOL    HW111608   0.052  10.317   2.669
 3237SOL    HW211609   0.029  10.185   2.740
 3238SOL     OW11610   1.084  13.780   6.204
 3238SOL    HW111611   1.026  13.762   6.278
 3238SOL    HW211612   1.025  13.797   6.131
 3239SOL     OW11613   5.869   3.818   9.441
 3239SOL    HW111614   5.878   3.831   9.536
 3239SOL    HW211615   5.957   3.794   9.412
 3240SOL     OW11616  12.484  10.098   1.185
 3240SOL    HW111617  12.526  10.181   1.207
 3240SOL    HW211618  12.517  10.076   1.098
 3241SOL     OW11619   9.968   5.804  12.862
 3241SOL    HW111620  10.045   5.855  12.837
 3241SOL    HW211621   9.966   5.732  12.800
 3242SOL     OW11622  12.003  11.690   0.443
 3242SOL    HW111623  12.050  11.637   0.378
 3242SOL    HW211624  12.052  11.677   0.524
 3243SOL     OW11625  13.950   8.533   4.094
 3243SOL    HW111626  13.921   8.457   4.144
 3243SOL    HW211627  13.926   8.513   4.004
 3244SOL     OW11628   9.165   1.409  13.461
 3244SOL    HW111629   9.102   1.429  13.393
 3244SOL    HW211630   9.207   1.492  13.481
 3245SOL     OW11631   5.982  12.811   9.804
 3245SOL    HW111632   5.901  12.819   9.854
 3245SOL    HW211633   5.989  12.718   9.783
 3246SOL     OW11634  13.286   4.637  14.224
 3246SOL    HW111635  13.298   4.710  14.284
 3246SOL    HW211636  13.191   4.624  14.220
 3247SOL     OW11637   3.777   1.774   9.457
 3247SOL    HW111638   3.847   1.831   9.490
 3247SOL    HW211639   3.743   1.730   9.535
 3248SOL     OW11640  11.076   8.527  13.315
 3248SOL    HW111641  11.008   8.461  13.332
 3248SOL    HW211642  11.027   8.607  13.298
 3249SOL     OW11643   8.285   5.417   1.872
 3249SOL    HW111644   8.376   5.446   1.878
 3249SOL    HW211645   8.245   5.477   1.809
 3250SOL     OW11646   7.168   1.752  11.989
 3250SOL    HW111647   7.247   1.708  11.959
 3250SOL    HW211648   7.151   1.820  11.924
 3251SOL     OW11649   0.348   1.449  12.364
 3251SOL    HW111650   0.378   1.475  12.452
 3251SOL    HW211651   0.318   1.359  12.374
 3252SOL     OW11652   3.473  14.771   9.293
 3252SOL    HW111653   3.425  14.706   9.242
 3252SOL    HW211654   3.565  14.751   9.278
 3253SOL     OW11655  10.288  10.876   2.290
 3253SOL    HW111656  10.299  10.862   2.384
 3253SOL    HW211657  10.211  10.933   2.283
 3254SOL     OW11658   2.524   1.357   0.665
 3254SOL    HW111659   2.569   1.437   0.639
 3254SOL    HW211660   2.433   1.372   0.643
 3255SOL     OW11661  14.559   7.133  11.098
 3255SOL    HW111662  14.562   7.085  11.181
 3255SOL    HW211663  14.479   7.102  11.056
 3256SOL     OW11664   4.552   4.002   9.035
 3256SOL    HW111665   4.522   3.936   9.098
 3256SOL    HW211666   4.511   4.083   9.064
 3257SOL     OW11667  14.319  10.264  10.524
 3257SOL    HW111668  14.300  10.289  10.614
 3257SOL    HW211669  14.233  10.256  10.483
 3258SOL     OW11670   2.286   2.717   3.393
 3258SOL    HW111671   2.247   2.800   3.421
 3258SOL    HW211672   2.376   2.739   3.371
 3259SOL     OW11673   1.492   7.481   2.603
 3259SOL    HW111674   1.418   7.423   2.622
 3259SOL    HW211675   1.459   7.539   2.535
 3260SOL     OW11676   9.000   3.104   3.839
 3260SOL    HW111677   9.000   3.138   3.928
 3260SOL    HW211678   8.939   3.030   3.842
 3261SOL     OW11679   6.422   7.761  13.961
 3261SOL    HW111680   6.481   7.777  13.888
 3261SOL    HW211681   6.367   7.840  13.964
 3262SOL     OW11682  14.392   2.703   2.473
 3262SOL    HW111683  14.360   2.702   2.383
 3262SOL    HW211684  14.469   2.647   2.471
 3263SOL     OW11685  14.712  13.764   1.802
 3263SOL    HW111686  14.719  13.825   1.728
 3263SOL    HW211687  14.717  13.819   1.879
 3264SOL     OW11688   1.548   5.525  10.329
 3264SOL    HW111689   1.558   5.447  10.274
 3264SOL    HW211690   1.455   5.545  10.325
 3265SOL     OW11691   6.542   3.912  11.801
 3265SOL    HW111692   6.623   3.963  11.801
 3265SOL    HW211693   6.516   3.908  11.893
 3266SOL     OW11694   8.918   7.934   0.304
 3266SOL    HW111695   8.945   7.867   0.367
 3266SOL    HW211696   8.999   7.961   0.261
 3267SOL     OW11697   4.335   3.034   6.476
 3267SOL    HW111698   4.321   3.075   6.391
 3267SOL    HW211699   4.425   3.054   6.498
 3268SOL     OW11700   1.405   0.311   3.912
 3268SOL    HW111701   1.459   0.243   3.953
 3268SOL    HW211702   1.355   0.265   3.845
 3269SOL     OW11703  13.155   1.377   9.622
 3269SOL    HW111704  13.225   1.357   9.684
 3269SOL    HW211705  13.191   1.352   9.537
 3270SOL     OW11706   2.910   0.782  14.220
 3270SOL    HW111707   2.837   0.829  14.262
 3270SOL    HW211708   2.984   0.794  14.279
 3271SOL     OW11709  12.031   1.464   9.446
 3271SOL    HW111710  12.103   1.468   9.509
 3271SOL    HW211711  11.958   1.426   9.495
 3272SOL     OW11712   9.915   9.878   1.361
 3272SOL    HW111713   9.977   9.899   1.431
 3272SOL    HW211714   9.944   9.793   1.327
 3273SOL     OW11715   9.722   4.985  14.184
 3273SOL    HW111716   9.635   4.946  14.193
 3273SOL    HW211717   9.712   5.073  14.221
 3274SOL     OW11718   4.473   0.190   3.890
 3274SOL    HW111719   4.539   0.121   3.883
 3274SOL    HW211720   4.509   0.251   3.954
 3275SOL     OW11721   0.556  13.635   2.226
 3275SOL    HW111722   0.593  13.661   2.141
 3275SOL    HW211723   0.590  13.547   2.241
 3276SOL     OW11724  11.153   2.560  11.349
 3276SOL    HW111725  11.151   2.653  11.325
 3276SOL    HW211726  11.095   2.518  11.285
 3277SOL     OW11727   9.999   7.325   3.546
 3277SOL    HW111728   9.912   7.351   3.578
 3277SOL    HW211729  10.014   7.383   3.471
 3278SOL     OW11730   9.420   1.144  11.958
 3278SOL    HW111731   9.380   1.222  11.920
 3278SOL    HW211732   9.376   1.071  11.913
 3279SOL     OW11733  13.800  14.550   0.805
 3279SOL    HW111734  13.726  14.604   0.779
 3279SOL    HW211735  13.869  14.613   0.827
 3280SOL     OW11736   9.205   5.944   0.439
 3280SOL    HW111737   9.259   6.012   0.479
 3280SOL    HW211738   9.255   5.863   0.452
 3281SOL     OW11739   4.879   4.712  10.572
 3281SOL    HW111740   4.904   4.635  10.521
 3281SOL    HW211741   4.941   4.780  10.546
 3282SOL     OW11742   4.799   7.963  14.368
 3282SOL    HW111743   4.799   8.024  14.442
 3282SOL    HW211744   4.725   7.991  14.314
 3283SOL     OW11745  10.708   0.037   0.569
 3283SOL    HW111746  10.742  14.834   0.621
 3283SOL    HW211747  10.619   0.010   0.546
 3284SOL     OW11748  10.969   0.612   8.475
 3284SOL    HW111749  10.886   0.566   8.480
 3284SOL    HW211750  10.968   0.672   8.550
 3285SOL     OW11751   2.268  12.045  14.282
 3285SOL    HW111752   2.249  11.955  14.307
 3285SOL    HW211753   2.227  12.055  14.196
 3286SOL     OW11754   8.757  14.192   6.971
 3286SOL    HW111755   8.732  14.210   7.061
 3286SOL    HW211756   8.852  14.185   6.973
 3287SOL     OW11757   1.875  12.598   9.200
 3287SOL    HW111758   1.849  12.586   9.292
 3287SOL    HW211759   1.875  12.693   9.187
 3288SOL     OW11760  10.990   5.650   8.392
 3288SOL    HW111761  11.024   5.563   8.414
 3288SOL    HW211762  10.896   5.637   8.380
 3289SOL     OW11763   8.815   6.320  14.317
 3289SOL    HW111764   8.847   6.266  14.244
 3289SOL    HW211765   8.809   6.259  14.391
 3290SOL     OW11766   9.504   7.088   8.742
 3290SOL    HW111767   9.420   7.124   8.773
 3290SOL    HW211768   9.480   7.033   8.667
 3291SOL     OW11769   5.046   1.630   5.465
 3291SOL    HW111770   4.954   1.638   5.488
 3291SOL    HW211771   5.079   1.720   5.464
 3292SOL     OW11772  11.123  10.312   1.085
 3292SOL    HW111773  11.048  10.350   1.131
 3292SOL    HW211774  11.084  10.249   1.025
 3293SOL     OW11775   6.543   6.268  13.003
 3293SOL    HW111776   6.618   6.326  12.992
 3293SOL    HW211777   6.479   6.299  12.939
 3294SOL     OW11778  13.376  12.193   3.422
 3294SOL    HW111779  13.317  12.264   3.396
 3294SOL    HW211780  13.343  12.116   3.376
 3295SOL     OW11781   2.809   8.417   5.896
 3295SOL    HW111782   2.840   8.415   5.986
 3295SOL    HW211783   2.832   8.331   5.861
 3296SOL     OW11784   7.429   5.774   6.357
 3296SOL    HW111785   7.446   5.688   6.396
 3296SOL    HW211786   7.493   5.832   6.399
 3297SOL     OW11787  13.337   4.188  11.871
 3297SOL    HW111788  13.357   4.202  11.964
 3297SOL    HW211789  13.411   4.227  11.824
 3298SOL     OW11790   4.569   2.292   9.075
 3298SOL    HW111791   4.569   2.196   9.080
 3298SOL    HW211792   4.552   2.311   8.983
 3299SOL     OW11793  13.407   4.575  12.342
 3299SOL    HW111794  13.459   4.634  12.288
 3299SOL    HW211795  13.416   4.490  12.300
 3300SOL     OW11796  11.751  12.704   1.937
 3300SOL    HW111797  11.762  12.737   2.026
 3300SOL    HW211798  11.729  12.781   1.885
 3301SOL     OW11799  10.168   6.013  12.784
 3301SOL    HW111800  10.107   5.986  12.715
 3301SOL    HW211801  10.231   6.070  12.740
 3302SOL     OW11802   3.408  11.111   9.996
 3302SOL    HW111803   3.365  11.196   9.982
 3302SOL    HW211804   3.349  11.064  10.054
 3303SOL     OW11805   1.717   4.541   1.973
 3303SOL    HW111806   1.625   4.515   1.962
 3303SOL    HW211807   1.761   4.511   1.894
 3304SOL     OW11808   5.108   1.931   8.289
 3304SOL    HW111809   5.153   1.944   8.205
 3304SOL    HW211810   5.109   2.018   8.330
 3305SOL     OW11811  14.006   9.726   3.482
 3305SOL    HW111812  13.982   9.783   3.409
 3305SOL    HW211813  14.094   9.695   3.460
 3306SOL     OW11814   5.879   5.606  11.064
 3306SOL    HW111815   5.940   5.680  11.071
 3306SOL    HW211816   5.923   5.534  11.109
 3307SOL     OW11817  12.509  10.071   6.436
 3307SOL    HW111818  12.531  10.152   6.390
 3307SOL    HW211819  12.579  10.010   6.412
 3308SOL     OW11820  12.483   5.938  10.227
 3308SOL    HW111821  12.467   5.845  10.244
 3308SOL    HW211822  12.494   5.943  10.132
 3309SOL     OW11823   4.666  10.037   1.899
 3309SOL    HW111824   4.630  10.019   1.986
 3309SOL    HW211825   4.604   9.998   1.838
 3310SOL     OW11826  10.638   7.058   8.182
 3310SOL    HW111827  10.727   7.093   8.192
 3310SOL    HW211828  10.639   6.976   8.231
 3311SOL     OW11829  12.228   9.992   9.626
 3311SOL    HW111830  12.233   9.945   9.709
 3311SOL    HW211831  12.257  10.081   9.647
 3312SOL     OW11832   4.271   3.428   6.070
 3312SOL    HW111833   4.242   3.490   6.003
 3312SOL    HW211834   4.358   3.459   6.096
 3313SOL     OW11835  12.294   8.558   4.829
 3313SOL    HW111836  12.221   8.528   4.775
 3313SOL    HW211837  12.255   8.573   4.915
 3314SOL     OW11838   9.264   2.912   0.055
 3314SOL    HW111839   9.171   2.917   0.077
 3314SOL    HW211840   9.283   2.819   0.048
 3315SOL     OW11841   4.878   2.767   8.478
 3315SOL    HW111842   4.888   2.862   8.465
 3315SOL    HW211843   4.966   2.732   8.466
 3316SOL     OW11844  14.739   2.409   5.912
 3316SOL    HW111845  14.654   2.437   5.948
 3316SOL    HW211846  14.786   2.491   5.897
 3317SOL     OW11847   7.278   7.439  10.576
 3317SOL    HW111848   7.374   7.446  10.574
 3317SOL    HW211849   7.262   7.345  10.584
 3318SOL     OW11850  13.410   6.064   0.415
 3318SOL    HW111851  13.417   6.126   0.342
 3318SOL    HW211852  13.342   6.102   0.471
 3319SOL     OW11853   2.813   7.408   9.922
 3319SOL    HW111854   2.908   7.401   9.931
 3319SOL    HW211855   2.779   7.331   9.968
 3320SOL     OW11856   4.073  14.655   4.803
 3320SOL    HW111857   4.130  14.629   4.730
 3320SOL    HW211858   4.065  14.750   4.795
 3321SOL     OW11859   7.327   2.206   1.357
 3321SOL    HW111860   7.289   2.234   1.273
 3321SOL    HW211861   7.332   2.286   1.409
 3322SOL     OW11862   8.783   3.740  13.361
 3322SOL    HW111863   8.714   3.673  13.363
 3322SOL    HW211864   8.754   3.805  13.425
 3323SOL     OW11865   4.603  14.616   6.390
 3323SOL    HW111866   4.604  14.683   6.321
 3323SOL    HW211867   4.587  14.534   6.344
 3324SOL     OW11868   4.929  12.478   1.622
 3324SOL    HW111869   4.938  12.400   1.568
 3324SOL    HW211870   4.969  12.548   1.570
 3325SOL     OW11871  11.755   7.049  13.205
 3325SOL    HW111872  11.775   7.103  13.128
 3325SOL    HW211873  11.727   6.965  13.168
 3326SOL     OW11874  10.945   1.129  10.720
 3326SOL    HW111875  10.925   1.069  10.648
 3326SOL    HW211876  10.984   1.073  10.788
 3327SOL     OW11877   4.137   4.525   2.209
 3327SOL    HW111878   4.152   4.517   2.115
 3327SOL    HW211879   4.099   4.441   2.234
 3328SOL     OW11880   4.452   6.914   3.659
 3328SOL    HW111881   4.444   7.007   3.680
 3328SOL    HW211882   4.531   6.885   3.705
 3329SOL     OW11883  10.465   4.475   8.954
 3329SOL    HW111884  10.448   4.551   9.009
 3329SOL    HW211885  10.379   4.435   8.942
 3330SOL     OW11886   7.847   1.657  14.696
 3330SOL    HW111887   7.769   1.707  14.672
 3330SOL    HW211888   7.818   1.565  14.690
 3331SOL     OW11889   3.222   3.110  14.326
 3331SOL    HW111890   3.134   3.142  14.348
 3331SOL    HW211891   3.252   3.169  14.257
 3332SOL     OW11892   9.782   7.973   1.927
 3332SOL    HW111893   9.851   7.966   1.993
 3332SOL    HW211894   9.791   7.893   1.874
 3333SOL     OW11895   9.527  14.798   6.770
 3333SOL    HW111896   9.471  14.857   6.719
 3333SOL    HW211897   9.613  14.840   6.770
 3334SOL     OW11898   3.654   9.512   9.089
 3334SOL    HW111899   3.655   9.564   9.009
 3334SOL    HW211900   3.572   9.463   9.085
 3335SOL     OW11901   8.432  13.088   9.185
 3335SOL    HW111902   8.521  13.054   9.172
 3335SOL    HW211903   8.443  13.160   9.247
 3336SOL     OW11904  11.914   4.740   9.121
 3336SOL    HW111905  11.982   4.785   9.172
 3336SOL    HW211906  11.956   4.659   9.092
 3337SOL     OW11907  14.685   9.804  12.411
 3337SOL    HW111908  14.660   9.722  12.368
 3337SOL    HW211909  14.775   9.789  12.440
 3338SOL     OW11910  14.346   4.140  13.872
 3338SOL    HW111911  14.290   4.193  13.816
 3338SOL    HW211912  14.305   4.053  13.872
 3339SOL     OW11913  12.179  13.051  11.112
 3339SOL    HW111914  12.257  13.102  11.089
 3339SOL    HW211915  12.200  13.011  11.196
 3340SOL     OW11916   9.981   6.577  12.768
 3340SOL    HW111917  10.038   6.608  12.697
 3340SOL    HW211918  10.002   6.484  12.776
 3341SOL     OW11919   9.980  12.513  12.356
 3341SOL    HW111920   9.991  12.469  12.440
 3341SOL    HW211921   9.923  12.588  12.376
 3342SOL     OW11922   3.866   6.898   2.270
 3342SOL    HW111923   3.787   6.937   2.233
 3342SOL    HW211924   3.841   6.807   2.289
 3343SOL     OW11925   2.901   0.115  12.417
 3343SOL    HW111926   2.813   0.111  12.454
 3343SOL    HW211927   2.960   0.111  12.493
 3344SOL     OW11928   0.204   8.362   4.166
 3344SOL    HW111929   0.194   8.418   4.243
 3344SOL    HW211930   0.297   8.338   4.166
 3345SOL     OW11931  13.213   1.002   1.621
 3345SOL    HW111932  13.252   1.089   1.620
 3345SOL    HW211933  13.279   0.945   1.583
 3346SOL     OW11934  13.952   4.189   4.257
 3346SOL    HW111935  13.888   4.218   4.323
 3346SOL    HW211936  13.907   4.118   4.211
 3347SOL     OW11937   9.539  14.864   0.081
 3347SOL    HW111938   9.608   0.025   0.022
 3347SOL    HW211939   9.539   0.059   0.153
 3348SOL     OW11940   8.050   3.877  10.632
 3348SOL    HW111941   8.081   3.941  10.696
 3348SOL    HW211942   8.084   3.908  10.549
 3349SOL     OW11943   1.066  12.621   8.100
 3349SOL    HW111944   1.101  12.644   8.186
 3349SOL    HW211945   0.985  12.671   8.092
 3350SOL     OW11946   7.919   7.412   0.331
 3350SOL    HW111947   7.888   7.470   0.261
 3350SOL    HW211948   8.013   7.430   0.337
 3351SOL     OW11949   4.118   9.710  10.338
 3351SOL    HW111950   4.157   9.685  10.422
 3351SOL    HW211951   4.075   9.631  10.307
 3352SOL     OW11952   3.596  13.541  12.055
 3352SOL    HW111953   3.652  13.612  12.086
 3352SOL    HW211954   3.531  13.530  12.124
 3353SOL     OW11955   2.840   0.671  13.969
 3353SOL    HW111956   2.781   0.733  13.926
 3353SOL    HW211957   2.843   0.700  14.060
 3354SOL     OW11958  12.967   1.454   2.669
 3354SOL    HW111959  12.878   1.456   2.634
 3354SOL    HW211960  13.006   1.536   2.638
 3355SOL     OW11961   5.328   5.294  10.617
 3355SOL    HW111962   5.324   5.242  10.697
 3355SOL    HW211963   5.421   5.314  10.605
 3356SOL     OW11964   9.942   4.216   0.379
 3356SOL    HW111965   9.869   4.274   0.402
 3356SOL    HW211966  10.002   4.222   0.453
 3357SOL     OW11967   3.623  11.733   2.641
 3357SOL    HW111968   3.556  11.777   2.693
 3357SOL    HW211969   3.610  11.765   2.552
 3358SOL     OW11970   6.281  11.796  11.627
 3358SOL    HW111971   6.266  11.809  11.534
 3358SOL    HW211972   6.241  11.873  11.669
 3359SOL     OW11973  10.795   5.401   5.039
 3359SOL    HW111974  10.848   5.322   5.043
 3359SOL    HW211975  10.841   5.457   4.975
 3360SOL     OW11976  13.947   2.949   4.845
 3360SOL    HW111977  14.039   2.974   4.837
 3360SOL    HW211978  13.949   2.855   4.863
 3361SOL     OW11979   2.184   9.352   1.468
 3361SOL    HW111980   2.255   9.290   1.455
 3361SOL    HW211981   2.127   9.310   1.532
 3362SOL     OW11982   9.002   7.471   0.785
 3362SOL    HW111983   9.038   7.552   0.822
 3362SOL    HW211984   8.908   7.475   0.803
 3363SOL     OW11985  11.512  10.973   6.525
 3363SOL    HW111986  11.487  11.054   6.571
 3363SOL    HW211987  11.436  10.950   6.472
 3364SOL     OW11988   9.879   0.004   8.490
 3364SOL    HW111989   9.904  14.784   8.510
 3364SOL    HW211990   9.790  14.867   8.455
 3365SOL     OW11991   4.640   0.491  13.318
 3365SOL    HW111992   4.609   0.405  13.346
 3365SOL    HW211993   4.705   0.472  13.250
 3366SOL     OW11994  14.749  14.675  12.954
 3366SOL    HW111995  14.753  14.771  12.945
 3366SOL    HW211996  14.819  14.642  12.898
 3367SOL     OW11997   2.404   0.767  14.302
 3367SOL    HW111998   2.341   0.702  14.273
 3367SOL    HW211999   2.461   0.720  14.363
 3368SOL     OW12000   1.117  13.106  10.355
 3368SOL    HW112001   1.118  13.120  10.450
 3368SOL    HW212002   1.051  13.167  10.322
 3369SOL     OW12003   5.925   4.460  13.561
 3369SOL    HW112004   6.017   4.453  13.535
 3369SOL    HW212005   5.926   4.448  13.656
 3370SOL     OW12006   0.886   6.720   0.152
 3370SOL    HW112007   0.967   6.744   0.198
 3370SOL    HW212008   0.916   6.685   0.068
 3371SOL     OW12009  10.364   5.017   6.244
 3371SOL    HW112010  10.349   5.090   6.184
 3371SOL    HW212011  10.365   4.939   6.188
 3372SOL     OW12012   6.262   5.781   7.957
 3372SOL    HW112013   6.267   5.737   8.042
 3372SOL    HW212014   6.254   5.874   7.979
 3373SOL     OW12015   2.640   9.120   7.194
 3373SOL    HW112016   2.646   9.037   7.147
 3373SOL    HW212017   2.565   9.164   7.156
 3374SOL     OW12018   0.012  13.586   8.693
 3374SOL    HW112019   0.001  13.676   8.725
 3374SOL    HW212020  14.799  13.566   8.649
 3375SOL     OW12021   3.647  11.343  12.306
 3375SOL    HW112022   3.557  11.311  12.303
 3375SOL    HW212023   3.671  11.341  12.399
 3376SOL     OW12024   2.408   3.572   2.271
 3376SOL    HW112025   2.431   3.536   2.356
 3376SOL    HW212026   2.342   3.512   2.236
 3377SOL     OW12027   2.905  13.106  11.884
 3377SOL    HW112028   2.936  13.114  11.794
 3377SOL    HW212029   2.894  13.197  11.913
 3378SOL     OW12030   1.731  10.349   9.349
 3378SOL    HW112031   1.644  10.387   9.338
 3378SOL    HW212032   1.726  10.304   9.434
 3379SOL     OW12033   8.888  11.012   0.246
 3379SOL    HW112034   8.977  11.045   0.257
 3379SOL    HW212035   8.898  10.926   0.205
 3380SOL     OW12036   0.117   5.354  10.017
 3380SOL    HW112037   0.071   5.406   9.952
 3380SOL    HW212038   0.067   5.366  10.098
 3381SOL     OW12039  10.729   6.171  13.969
 3381SOL    HW112040  10.670   6.168  14.044
 3381SOL    HW212041  10.744   6.265  13.955
 3382SOL     OW12042  11.327   7.798   3.016
 3382SOL    HW112043  11.332   7.883   2.973
 3382SOL    HW212044  11.292   7.817   3.103
 3383SOL     OW12045   3.459   4.246  10.429
 3383SOL    HW112046   3.484   4.170  10.480
 3383SOL    HW212047   3.363   4.243  10.426
 3384SOL     OW12048   9.515  11.046  10.104
 3384SOL    HW112049   9.594  11.082  10.065
 3384SOL    HW212050   9.443  11.090  10.059
 3385SOL     OW12051   2.233   4.355   0.379
 3385SOL    HW112052   2.236   4.345   0.474
 3385SOL    HW212053   2.238   4.265   0.345
 3386SOL     OW12054  13.933  14.179  14.127
 3386SOL    HW112055  13.934  14.274  14.131
 3386SOL    HW212056  14.011  14.156  14.076
 3387SOL     OW12057   6.099   2.221   3.740
 3387SOL    HW112058   6.089   2.136   3.697
 3387SOL    HW212059   6.051   2.282   3.684
 3388SOL     OW12060   5.112   0.463  11.633
 3388SOL    HW112061   5.145   0.551  11.649
 3388SOL    HW212062   5.029   0.477  11.588
 3389SOL     OW12063  14.518  12.524  10.271
 3389SOL    HW112064  14.459  12.530  10.197
 3389SOL    HW212065  14.480  12.584  10.336
 3390SOL     OW12066   5.998   0.674   2.940
 3390SOL    HW112067   5.934   0.630   2.885
 3390SOL    HW212068   6.043   0.734   2.881
 3391SOL     OW12069  11.405   4.437   9.539
 3391SOL    HW112070  11.385   4.421   9.447
 3391SOL    HW212071  11.444   4.355   9.570
 3392SOL     OW12072  13.442  12.250  14.736
 3392SOL    HW112073  13.468  12.337  14.707
 3392SOL    HW212074  13.464  12.193  14.662
 3393SOL     OW12075   0.109  12.048   0.007
 3393SOL    HW112076   0.036  12.032  14.816
 3393SOL    HW212077   0.114  12.143   0.012
 3394SOL     OW12078   7.485   0.555   8.334
 3394SOL    HW112079   7.521   0.466   8.338
 3394SOL    HW212080   7.469   0.570   8.241
 3395SOL     OW12081   7.745   9.828  10.622
 3395SOL    HW112082   7.653   9.804  10.635
 3395SOL    HW212083   7.789   9.746  10.601
 3396SOL     OW12084  12.457   2.087   9.882
 3396SOL    HW112085  12.401   2.013   9.903
 3396SOL    HW212086  12.536   2.073   9.934
 3397SOL     OW12087   4.497  12.170   7.625
 3397SOL    HW112088   4.517  12.184   7.532
 3397SOL    HW212089   4.466  12.080   7.629
 3398SOL     OW12090  14.638   3.966  14.415
 3398SOL    HW112091  14.598   3.948  14.329
 3398SOL    HW212092  14.680   3.884  14.439
 3399SOL     OW12093  13.237   5.146   8.840
 3399SOL    HW112094  13.145   5.125   8.851
 3399SOL    HW212095  13.263   5.100   8.760
 3400SOL     OW12096   7.069  10.877   0.933
 3400SOL    HW112097   7.030  10.948   0.984
 3400SOL    HW212098   7.163  10.897   0.933
 3401SOL     OW12099  13.027   6.707  10.086
 3401SOL    HW112100  12.933   6.722  10.075
 3401SOL    HW212101  13.054   6.769  10.154
 3402SOL     OW12102  14.844  14.514   7.206
 3402SOL    HW112103  14.788  14.452   7.254
 3402SOL    HW212104   0.055  14.464   7.189
 3403SOL     OW12105   9.296   5.547   0.769
 3403SOL    HW112106   9.257   5.460   0.767
 3403SOL    HW212107   9.229   5.605   0.735
 3404SOL     OW12108  14.212   0.302  10.582
 3404SOL    HW112109  14.186   0.387  10.546
 3404SOL    HW212110  14.201   0.311  10.677
 3405SOL     OW12111   2.135  12.939   4.172
 3405SOL    HW112112   2.138  12.990   4.253
 3405SOL    HW212113   2.142  12.848   4.201
 3406SOL     OW12114   0.677   0.374  13.671
 3406SOL    HW112115   0.689   0.463  13.639
 3406SOL    HW212116   0.585   0.354  13.651
 3407SOL     OW12117   8.642   9.058   1.805
 3407SOL    HW112118   8.550   9.042   1.826
 3407SOL    HW212119   8.676   8.972   1.779
 3408SOL     OW12120   2.796  10.569   6.068
 3408SOL    HW112121   2.760  10.509   6.002
 3408SOL    HW212122   2.885  10.537   6.083
 3409SOL     OW12123   2.106   6.000   5.111
 3409SOL    HW112124   2.143   6.089   5.109
 3409SOL    HW212125   2.029   6.005   5.054
 3410SOL     OW12126   3.407   7.434   4.757
 3410SOL    HW112127   3.421   7.386   4.838
 3410SOL    HW212128   3.459   7.514   4.767
 3411SOL     OW12129  12.276   1.563   6.445
 3411SOL    HW112130  12.262   1.597   6.357
 3411SOL    HW212131  12.359   1.516   6.440
 3412SOL     OW12132  11.634   8.297   1.846
 3412SOL    HW112133  11.565   8.231   1.855
 3412SOL    HW212134  11.602   8.355   1.777
 3413SOL     OW12135   3.579   7.029  13.475
 3413SOL    HW112136   3.661   7.046  13.429
 3413SOL    HW212137   3.606   6.994  13.560
 3414SOL     OW12138  13.083   5.817   5.852
 3414SOL    HW112139  13.166   5.862   5.838
 3414SOL    HW212140  13.026   5.850   5.783
 3415SOL     OW12141   1.947   7.549   2.211
 3415SOL    HW112142   1.869   7.493   2.210
 3415SOL    HW212143   2.020   7.488   2.196
 3416SOL     OW12144   7.903   6.751  12.949
 3416SOL    HW112145   7.956   6.831  12.948
 3416SOL    HW212146   7.961   6.683  12.914
 3417SOL     OW12147   3.828   0.362   5.775
 3417SOL    HW112148   3.903   0.329   5.725
 3417SOL    HW212149   3.840   0.457   5.775
 3418SOL     OW12150  11.681   1.451   5.604
 3418SOL    HW112151  11.674   1.407   5.519
 3418SOL    HW212152  11.764   1.420   5.641
 3419SOL     OW12153   0.309   4.063   4.675
 3419SOL    HW112154   0.378   4.039   4.737
 3419SOL    HW212155   0.228   4.036   4.719
 3420SOL     OW12156   8.932   4.789   2.968
 3420SOL    HW112157   8.877   4.859   2.932
 3420SOL    HW212158   9.021   4.814   2.946
 3421SOL     OW12159   1.970   1.057   1.472
 3421SOL    HW112160   1.926   1.008   1.402
 3421SOL    HW212161   2.045   1.098   1.427
 3422SOL     OW12162   2.574  12.799   1.759
 3422SOL    HW112163   2.519  12.876   1.766
 3422SOL    HW212164   2.514  12.725   1.770
 3423SOL     OW12165   7.488  11.901  11.532
 3423SOL    HW112166   7.568  11.856  11.559
 3423SOL    HW212167   7.432  11.831  11.497
 3424SOL     OW12168   7.600   7.468   3.593
 3424SOL    HW112169   7.667   7.457   3.661
 3424SOL    HW212170   7.526   7.415   3.622
 3425SOL     OW12171  10.830  10.751   8.398
 3425SOL    HW112172  10.742  10.790   8.396
 3425SOL    HW212173  10.883  10.813   8.448
 3426SOL     OW12174  14.589   6.735  10.501
 3426SOL    HW112175  14.660   6.797  10.516
 3426SOL    HW212176  14.511   6.790  10.494
 3427SOL     OW12177   2.439   4.504  14.492
 3427SOL    HW112178   2.409   4.542  14.409
 3427SOL    HW212179   2.384   4.545  14.558
 3428SOL     OW12180  10.027  14.500  11.092
 3428SOL    HW112181   9.972  14.568  11.130
 3428SOL    HW212182   9.965  14.434  11.060
 3429SOL     OW12183   3.690   3.539   6.032
 3429SOL    HW112184   3.728   3.455   6.056
 3429SOL    HW212185   3.642   3.567   6.109
 3430SOL     OW12186   2.325   7.366   9.268
 3430SOL    HW112187   2.297   7.454   9.293
 3430SOL    HW212188   2.246   7.312   9.275
 3431SOL     OW12189   5.616  11.798   2.320
 3431SOL    HW112190   5.585  11.741   2.391
 3431SOL    HW212191   5.616  11.742   2.243
 3432SOL     OW12192   7.874   7.588   9.946
 3432SOL    HW112193   7.864   7.654   9.878
 3432SOL    HW212194   7.968   7.567   9.946
 3433SOL     OW12195   5.214   8.661   4.178
 3433SOL    HW112196   5.291   8.671   4.235
 3433SOL    HW212197   5.224   8.574   4.139
 3434SOL     OW12198   5.832   9.693   8.639
 3434SOL    HW112199   5.749   9.686   8.687
 3434SOL    HW212200   5.847   9.787   8.631
 3435SOL     OW12201   5.080  11.869   3.982
 3435SOL    HW112202   5.137  11.794   3.965
 3435SOL    HW212203   5.076  11.915   3.898
 3436SOL     OW12204   0.439  13.636   8.448
 3436SOL    HW112205   0.349  13.623   8.479
 3436SOL    HW212206   0.485  13.670   8.524
 3437SOL     OW12207  14.844   7.685   3.308
 3437SOL    HW112208  14.781   7.722   3.248
 3437SOL    HW212209  14.813   7.709   3.395
 3438SOL     OW12210   7.401  10.383   1.968
 3438SOL    HW112211   7.460  10.350   2.036
 3438SOL    HW212212   7.319  10.336   1.983
 3439SOL     OW12213   6.555   2.831   2.118
 3439SOL    HW112214   6.543   2.914   2.073
 3439SOL    HW212215   6.532   2.765   2.053
 3440SOL     OW12216   0.996   0.893   9.730
 3440SOL    HW112217   1.022   0.864   9.817
 3440SOL    HW212218   1.075   0.931   9.692
 3441SOL     OW12219   7.136   2.138  11.066
 3441SOL    HW112220   7.083   2.060  11.083
 3441SOL    HW212221   7.164   2.168  11.153
 3442SOL     OW12222  11.883  12.296   8.121
 3442SOL    HW112223  11.893  12.208   8.085
 3442SOL    HW212224  11.839  12.345   8.053
 3443SOL     OW12225  13.041   3.425   9.267
 3443SOL    HW112226  12.968   3.375   9.230
 3443SOL    HW212227  13.112   3.361   9.274
 3444SOL     OW12228  12.903   6.300   2.046
 3444SOL    HW112229  12.904   6.318   2.140
 3444SOL    HW212230  12.995   6.289   2.022
 3445SOL     OW12231   0.319   8.296  11.428
 3445SOL    HW112232   0.342   8.295  11.334
 3445SOL    HW212233   0.311   8.389  11.449
 3446SOL     OW12234   7.368  10.348  11.097
 3446SOL    HW112235   7.287  10.344  11.148
 3446SOL    HW212236   7.344  10.398  11.019
 3447SOL     OW12237   3.270   2.519   1.336
 3447SOL    HW112238   3.204   2.573   1.381
 3447SOL    HW212239   3.306   2.464   1.405
 3448SOL     OW12240   7.768   3.506   2.334
 3448SOL    HW112241   7.753   3.547   2.420
 3448SOL    HW212242   7.856   3.468   2.341
 3449SOL     OW12243   0.924   3.478   1.002
 3449SOL    HW112244   0.870   3.509   1.075
 3449SOL    HW212245   0.979   3.554   0.980
 3450SOL     OW12246   0.707  12.887   2.874
 3450SOL    HW112247   0.727  12.893   2.968
 3450SOL    HW212248   0.725  12.974   2.840
 3451SOL     OW12249   8.661  11.227  14.315
 3451SOL    HW112250   8.590  11.176  14.277
 3451SOL    HW212251   8.619  11.282  14.381
 3452SOL     OW12252  10.064   8.105   9.737
 3452SOL    HW112253   9.978   8.116   9.697
 3452SOL    HW212254  10.084   8.012   9.727
 3453SOL     OW12255   1.752   0.140   4.767
 3453SOL    HW112256   1.784   0.154   4.856
 3453SOL    HW212257   1.674   0.086   4.778
 3454SOL     OW12258   6.426   6.628  14.851
 3454SOL    HW112259   6.404   6.606   0.072
 3454SOL    HW212260   6.472   6.551  14.818
 3455SOL     OW12261   8.271   7.226   9.635
 3455SOL    HW112262   8.194   7.283   9.638
 3455SOL    HW212263   8.300   7.221   9.726
 3456SOL     OW12264   7.641   2.243   6.451
 3456SOL    HW112265   7.591   2.163   6.466
 3456SOL    HW212266   7.687   2.227   6.368
 3457SOL     OW12267   6.158   6.690   5.044
 3457SOL    HW112268   6.067   6.665   5.030
 3457SOL    HW212269   6.166   6.701   5.139
 3458SOL     OW12270   3.707   1.399  10.225
 3458SOL    HW112271   3.692   1.341  10.300
 3458SOL    HW212272   3.802   1.405  10.219
 3459SOL     OW12273   1.903   3.476  10.590
 3459SOL    HW112274   1.947   3.442  10.513
 3459SOL    HW212275   1.952   3.439  10.664
 3460SOL     OW12276  10.623   5.120   1.478
 3460SOL    HW112277  10.616   5.057   1.550
 3460SOL    HW212278  10.714   5.151   1.482
 3461SOL     OW12279   2.194   7.989   6.639
 3461SOL    HW112280   2.145   7.918   6.680
 3461SOL    HW212281   2.128   8.039   6.592
 3462SOL     OW12282   3.371  10.070   7.552
 3462SOL    HW112283   3.358  10.053   7.645
 3462SOL    HW212284   3.400  10.161   7.547
 3463SOL     OW12285   1.305  11.286   7.860
 3463SOL    HW112286   1.357  11.228   7.806
 3463SOL    HW212287   1.304  11.369   7.813
 3464SOL     OW12288   0.730  12.475   5.892
 3464SOL    HW112289   0.760  12.530   5.820
 3464SOL    HW212290   0.764  12.388   5.871
 3465SOL     OW12291   2.049   3.315   0.951
 3465SOL    HW112292   2.093   3.273   0.876
 3465SOL    HW212293   2.110   3.383   0.979
 3466SOL     OW12294   5.376   8.770   2.582
 3466SOL    HW112295   5.288   8.735   2.590
 3466SOL    HW212296   5.432   8.692   2.573
 3467SOL     OW12297  10.570  12.199   7.174
 3467SOL    HW112298  10.615  12.247   7.105
 3467SOL    HW212299  10.633  12.197   7.246
 3468SOL     OW12300   1.442   5.284  11.139
 3468SOL    HW112301   1.455   5.206  11.085
 3468SOL    HW212302   1.482   5.262  11.223
 3469SOL     OW12303  12.124  10.052  11.548
 3469SOL    HW112304  12.042  10.101  11.562
 3469SOL    HW212305  12.101   9.987  11.481
 3470SOL     OW12306   1.742   6.892   8.675
 3470SOL    HW112307   1.742   6.920   8.767
 3470SOL    HW212308   1.728   6.973   8.625
 3471SOL     OW12309   4.921  12.524  14.484
 3471SOL    HW112310   5.001  12.570  14.508
 3471SOL    HW212311   4.938  12.492  14.395
 3472SOL     OW12312   2.917  11.109   6.168
 3472SOL    HW112313   2.843  11.088   6.224
 3472SOL    HW212314   2.879  11.147   6.089
 3473SOL     OW12315  12.865  11.182   3.045
 3473SOL    HW112316  12.823  11.214   3.125
 3473SOL    HW212317  12.831  11.239   2.976
 3474SOL     OW12318   1.729   8.143  12.946
 3474SOL    HW112319   1.690   8.200  13.012
 3474SOL    HW212320   1.689   8.057  12.960
 3475SOL     OW12321   4.134   1.667   1.564
 3475SOL    HW112322   4.210   1.610   1.575
 3475SOL    HW212323   4.075   1.643   1.635
 3476SOL     OW12324   7.314   0.949   7.741
 3476SOL    HW112325   7.408   0.957   7.723
 3476SOL    HW212326   7.276   0.926   7.657
 3477SOL     OW12327  14.153   7.922   0.405
 3477SOL    HW112328  14.074   7.882   0.371
 3477SOL    HW212329  14.224   7.886   0.352
 3478SOL     OW12330  10.699  11.246   2.681
 3478SOL    HW112331  10.779  11.236   2.629
 3478SOL    HW212332  10.687  11.161   2.722
 3479SOL     OW12333  14.488   3.396   5.602
 3479SOL    HW112334  14.528   3.474   5.564
 3479SOL    HW212335  14.397   3.398   5.572
 3480SOL     OW12336   5.727   5.183   9.241
 3480SOL    HW112337   5.641   5.160   9.277
 3480SOL    HW212338   5.723   5.278   9.228
 3481SOL     OW12339   6.176  14.868  10.573
 3481SOL    HW112340   6.251   0.018  10.629
 3481SOL    HW212341   6.151  14.778  10.597
 3482SOL     OW12342   4.531   9.158  12.969
 3482SOL    HW112343   4.579   9.098  12.913
 3482SOL    HW212344   4.440   9.127  12.967
 3483SOL     OW12345   3.207   7.829   9.385
 3483SOL    HW112346   3.205   7.739   9.353
 3483SOL    HW212347   3.264   7.826   9.462
 3484SOL     OW12348   1.629   8.187   8.740
 3484SOL    HW112349   1.712   8.146   8.715
 3484SOL    HW212350   1.654   8.256   8.802
 3485SOL     OW12351   0.467   2.777  11.727
 3485SOL    HW112352   0.471   2.775  11.631
 3485SOL    HW212353   0.384   2.736  11.748
 3486SOL     OW12354  10.192   3.592   8.416
 3486SOL    HW112355  10.163   3.586   8.325
 3486SOL    HW212356  10.245   3.671   8.419
 3487SOL     OW12357   4.134   0.885   5.176
 3487SOL    HW112358   4.213   0.855   5.132
 3487SOL    HW212359   4.092   0.943   5.113
 3488SOL     OW12360   8.403   5.519  12.505
 3488SOL    HW112361   8.415   5.578  12.580
 3488SOL    HW212362   8.472   5.453  12.515
 3489SOL     OW12363   5.950  12.402  12.578
 3489SOL    HW112364   6.024  12.430  12.523
 3489SOL    HW212365   5.939  12.310  12.557
 3490SOL     OW12366   3.316  10.074   7.852
 3490SOL    HW112367   3.314  10.164   7.884
 3490SOL    HW212368   3.274  10.023   7.921
 3491SOL     OW12369  14.126   2.776   6.102
 3491SOL    HW112370  14.214   2.795   6.071
 3491SOL    HW212371  14.102   2.853   6.154
 3492SOL     OW12372  11.738  14.243   9.592
 3492SOL    HW112373  11.796  14.193   9.535
 3492SOL    HW212374  11.794  14.269   9.665
 3493SOL     OW12375   4.542  13.992   8.369
 3493SOL    HW112376   4.514  14.081   8.350
 3493SOL    HW212377   4.610  14.002   8.436
 3494SOL     OW12378  12.589  12.841  13.414
 3494SOL    HW112379  12.628  12.916  13.460
 3494SOL    HW212380  12.617  12.851  13.323
 3495SOL     OW12381   4.978  13.600  12.366
 3495SOL    HW112382   4.969  13.654  12.444
 3495SOL    HW212383   4.964  13.510  12.397
 3496SOL     OW12384   7.247   3.210   1.422
 3496SOL    HW112385   7.270   3.300   1.443
 3496SOL    HW212386   7.330   3.169   1.397
 3497SOL     OW12387   1.057  14.667  12.396
 3497SOL    HW112388   1.040  14.672  12.490
 3497SOL    HW212389   1.001  14.734  12.358
 3498SOL     OW12390   4.062  12.968  13.412
 3498SOL    HW112391   4.042  12.875  13.399
 3498SOL    HW212392   3.981  13.013  13.389
 3499SOL     OW12393   2.044   9.687   7.172
 3499SOL    HW112394   2.023   9.726   7.257
 3499SOL    HW212395   2.140   9.695   7.166
 3500SOL     OW12396   8.477   2.073   6.285
 3500SOL    HW112397   8.390   2.042   6.310
 3500SOL    HW212398   8.534   2.042   6.355
 3501SOL     OW12399   4.005  11.731   2.219
 3501SOL    HW112400   4.006  11.827   2.211
 3501SOL    HW212401   3.925  11.704   2.174
 3502SOL     OW12402  10.716   9.757   1.997
 3502SOL    HW112403  10.704   9.669   2.032
 3502SOL    HW212404  10.633   9.802   2.016
 3503SOL     OW12405   3.935   8.132   6.962
 3503SOL    HW112406   3.891   8.188   7.025
 3503SOL    HW212407   3.866   8.104   6.902
 3504SOL     OW12408   9.025  11.099   9.599
 3504SOL    HW112409   8.990  11.011   9.590
 3504SOL    HW212410   9.030  11.132   9.510
 3505SOL     OW12411  13.933  11.220   2.582
 3505SOL    HW112412  13.988  11.192   2.655
 3505SOL    HW212413  13.995  11.252   2.516
 3506SOL     OW12414   3.204   3.073  13.685
 3506SOL    HW112415   3.300   3.074  13.694
 3506SOL    HW212416   3.177   3.161  13.711
 3507SOL     OW12417  14.784   3.239   4.482
 3507SOL    HW112418  14.703   3.273   4.520
 3507SOL    HW212419  14.813   3.308   4.422
 3508SOL     OW12420   5.830   7.585   9.549
 3508SOL    HW112421   5.860   7.561   9.461
 3508SOL    HW212422   5.905   7.632   9.587
 3509SOL     OW12423  10.350  13.722   9.911
 3509SOL    HW112424  10.426  13.695   9.962
 3509SOL    HW212425  10.358  13.817   9.904
 3510SOL     OW12426  13.207   9.924  10.031
 3510SOL    HW112427  13.256   9.964  10.102
 3510SOL    HW212428  13.153   9.857  10.073
 3511SOL     OW12429   6.618   4.985  12.888
 3511SOL    HW112430   6.554   4.918  12.911
 3511SOL    HW212431   6.647   5.020  12.973
 3512SOL     OW12432   4.020   1.297  11.716
 3512SOL    HW112433   4.048   1.275  11.627
 3512SOL    HW212434   3.947   1.238  11.734
 3513SOL     OW12435   6.151   6.766   6.974
 3513SOL    HW112436   6.141   6.858   6.998
 3513SOL    HW212437   6.064   6.739   6.944
 3514SOL     OW12438   1.697   6.979  12.787
 3514SOL    HW112439   1.603   6.975  12.775
 3514SOL    HW212440   1.727   7.043  12.722
 3515SOL     OW12441   7.033  12.301  10.209
 3515SOL    HW112442   6.991  12.360  10.147
 3515SOL    HW212443   7.116  12.343  10.231
 3516SOL     OW12444  13.040  10.405   6.561
 3516SOL    HW112445  13.003  10.318   6.547
 3516SOL    HW212446  13.032  10.449   6.476
 3517SOL     OW12447   1.389   6.298   9.428
 3517SOL    HW112448   1.448   6.370   9.405
 3517SOL    HW212449   1.448   6.223   9.441
 3518SOL     OW12450   5.720   1.908  10.599
 3518SOL    HW112451   5.686   1.836  10.545
 3518SOL    HW212452   5.815   1.899  10.593
 3519SOL     OW12453   2.809  11.586   9.495
 3519SOL    HW112454   2.763  11.601   9.577
 3519SOL    HW212455   2.882  11.528   9.518
 3520SOL     OW12456   9.227   9.959  14.619
 3520SOL    HW112457   9.276  10.036  14.589
 3520SOL    HW212458   9.272   9.885  14.578
 3521SOL     OW12459   6.504  10.962  12.352
 3521SOL    HW112460   6.409  10.949  12.358
 3521SOL    HW212461   6.539  10.914  12.427
 3522SOL     OW12462   8.091  11.742   7.170
 3522SOL    HW112463   8.084  11.648   7.151
 3522SOL    HW212464   8.000  11.771   7.179
 3523SOL     OW12465   8.778  14.617   8.167
 3523SOL    HW112466   8.737  14.636   8.251
 3523SOL    HW212467   8.706  14.588   8.111
 3524SOL     OW12468   7.995   3.779   4.304
 3524SOL    HW112469   8.040   3.861   4.283
 3524SOL    HW212470   7.910   3.806   4.337
 3525SOL     OW12471   3.120   4.035   6.268
 3525SOL    HW112472   3.088   4.018   6.179
 3525SOL    HW212473   3.045   4.070   6.315
 3526SOL     OW12474   2.398  11.161  11.157
 3526SOL    HW112475   2.485  11.123  11.146
 3526SOL    HW212476   2.414  11.250  11.188
 3527SOL     OW12477   3.978  10.838  14.791
 3527SOL    HW112478   3.998  10.861  14.700
 3527SOL    HW212479   4.001  10.745  14.798
 3528SOL     OW12480   5.481   1.402   7.857
 3528SOL    HW112481   5.530   1.475   7.819
 3528SOL    HW212482   5.403   1.394   7.801
 3529SOL     OW12483   1.566   5.963   9.279
 3529SOL    HW112484   1.526   5.894   9.226
 3529SOL    HW212485   1.555   6.042   9.227
 3530SOL     OW12486  12.663   5.054  11.415
 3530SOL    HW112487  12.690   5.145  11.429
 3530SOL    HW212488  12.642   5.048  11.322
 3531SOL     OW12489   9.953   0.637  12.943
 3531SOL    HW112490   9.938   0.577  13.016
 3531SOL    HW212491   9.870   0.641  12.897
 3532SOL     OW12492  11.388  10.653   1.291
 3532SOL    HW112493  11.306  10.701   1.297
 3532SOL    HW212494  11.446  10.695   1.355
 3533SOL     OW12495   4.854   5.267   6.032
 3533SOL    HW112496   4.803   5.285   6.112
 3533SOL    HW212497   4.835   5.176   6.012
 3534SOL     OW12498  11.136   1.599  12.864
 3534SOL    HW112499  11.171   1.512  12.842
 3534SOL    HW212500  11.091   1.628  12.785
 3535SOL     OW12501   8.309   2.489  11.818
 3535SOL    HW112502   8.267   2.442  11.745
 3535SOL    HW212503   8.296   2.581  11.798
 3536SOL     OW12504  12.359   7.055   6.942
 3536SOL    HW112505  12.298   7.100   7.000
 3536SOL    HW212506  12.327   7.073   6.854
 3537SOL     OW12507   2.737   9.579   3.291
 3537SOL    HW112508   2.745   9.496   3.244
 3537SOL    HW212509   2.818   9.625   3.272
 3538SOL     OW12510   8.245   8.193   5.599
 3538SOL    HW112511   8.303   8.118   5.584
 3538SOL    HW212512   8.267   8.254   5.528
 3539SOL     OW12513   9.483  13.625   1.317
 3539SOL    HW112514   9.554  13.645   1.378
 3539SOL    HW212515   9.525  13.619   1.232
 3540SOL     OW12516  14.173  10.378   5.371
 3540SOL    HW112517  14.159  10.293   5.328
 3540SOL    HW212518  14.107  10.381   5.440
 3541SOL     OW12519   1.126   2.165  11.127
 3541SOL    HW112520   1.131   2.235  11.062
 3541SOL    HW212521   1.036   2.169  11.160
 3542SOL     OW12522   0.180   7.679  13.533
 3542SOL    HW112523   0.097   7.658  13.578
 3542SOL    HW212524   0.194   7.772  13.553
 3543SOL     OW12525   0.659  12.318   8.952
 3543SOL    HW112526   0.617  12.387   8.900
 3543SOL    HW212527   0.614  12.238   8.926
 3544SOL     OW12528  13.123   0.133   4.896
 3544SOL    HW112529  13.077   0.109   4.815
 3544SOL    HW212530  13.073   0.208   4.929
 3545SOL     OW12531  14.496   4.004   6.488
 3545SOL    HW112532  14.488   4.014   6.393
 3545SOL    HW212533  14.583   4.038   6.509
 3546SOL     OW12534   0.849   2.220   7.461
 3546SOL    HW112535   0.803   2.155   7.408
 3546SOL    HW212536   0.915   2.257   7.402
 3547SOL     OW12537   5.245   1.403  10.366
 3547SOL    HW112538   5.163   1.376  10.325
 3547SOL    HW212539   5.259   1.340  10.437
 3548SOL     OW12540  14.053   1.241  13.248
 3548SOL    HW112541  13.992   1.228  13.175
 3548SOL    HW212542  14.047   1.335  13.268
 3549SOL     OW12543   7.001   6.906  12.018
 3549SOL    HW112544   7.006   6.810  12.023
 3549SOL    HW212545   7.091   6.934  12.001
 3550SOL     OW12546  11.614   9.029  12.478
 3550SOL    HW112547  11.594   8.977  12.556
 3550SOL    HW212548  11.695   9.075  12.500
 3551SOL     OW12549   0.161   8.037  11.182
 3551SOL    HW112550   0.130   8.128  11.174
 3551SOL    HW212551   0.256   8.044  11.172
 3552SOL     OW12552   6.028  14.619   4.021
 3552SOL    HW112553   5.959  14.575   4.071
 3552SOL    HW212554   6.086  14.655   4.088
 3553SOL     OW12555   3.778   5.004  12.520
 3553SOL    HW112556   3.802   5.000  12.613
 3553SOL    HW212557   3.852   5.049  12.478
 3554SOL     OW12558  10.481   6.138   9.048
 3554SOL    HW112559  10.486   6.163   8.956
 3554SOL    HW212560  10.524   6.052   9.052
 3555SOL     OW12561   3.334   2.547  10.147
 3555SOL    HW112562   3.409   2.553  10.206
 3555SOL    HW212563   3.320   2.453  10.135
 3556SOL     OW12564   7.539   4.409   5.914
 3556SOL    HW112565   7.566   4.462   5.839
 3556SOL    HW212566   7.614   4.355   5.935
 3557SOL     OW12567   3.859   1.778   3.642
 3557SOL    HW112568   3.939   1.727   3.654
 3557SOL    HW212569   3.865   1.810   3.552
 3558SOL     OW12570   7.600   1.318  13.477
 3558SOL    HW112571   7.679   1.310  13.531
 3558SOL    HW212572   7.620   1.271  13.397
 3559SOL     OW12573   6.879  13.350   6.350
 3559SOL    HW112574   6.890  13.411   6.422
 3559SOL    HW212575   6.802  13.382   6.303
 3560SOL     OW12576   9.468   9.214  11.234
 3560SOL    HW112577   9.417   9.257  11.303
 3560SOL    HW212578   9.559   9.234  11.256
 3561SOL     OW12579  10.083   5.797  13.108
 3561SOL    HW112580  10.031   5.817  13.030
 3561SOL    HW212581  10.127   5.715  13.087
 3562SOL     OW12582  13.124   3.331   0.952
 3562SOL    HW112583  13.214   3.359   0.969
 3562SOL    HW212584  13.077   3.412   0.932
 3563SOL     OW12585   7.513   7.839   6.586
 3563SOL    HW112586   7.510   7.754   6.541
 3563SOL    HW212587   7.422   7.856   6.610
 3564SOL     OW12588   3.689  11.678   1.297
 3564SOL    HW112589   3.767  11.633   1.331
 3564SOL    HW212590   3.616  11.624   1.326
 3565SOL     OW12591   0.304  11.391   4.445
 3565SOL    HW112592   0.276  11.449   4.516
 3565SOL    HW212593   0.388  11.426   4.417
 3566SOL     OW12594  10.198  10.440   6.735
 3566SOL    HW112595  10.248  10.396   6.804
 3566SOL    HW212596  10.195  10.376   6.664
 3567SOL     OW12597   3.150  10.012  11.823
 3567SOL    HW112598   3.193  10.044  11.743
 3567SOL    HW212599   3.063  10.052  11.820
 3568SOL     OW12600  10.855   4.587   4.803
 3568SOL    HW112601  10.919   4.632   4.858
 3568SOL    HW212602  10.803   4.658   4.764
 3569SOL     OW12603   9.211   0.342   0.409
 3569SOL    HW112604   9.151   0.327   0.336
 3569SOL    HW212605   9.191   0.430   0.440
 3570SOL     OW12606   4.645   0.432   4.982
 3570SOL    HW112607   4.731   0.434   4.941
 3570SOL    HW212608   4.657   0.475   5.067
 3571SOL     OW12609  10.795  10.443   2.205
 3571SOL    HW112610  10.723  10.416   2.148
 3571SOL    HW212611  10.856  10.369   2.204
 3572SOL     OW12612   1.606  10.695  13.516
 3572SOL    HW112613   1.525  10.700  13.566
 3572SOL    HW212614   1.666  10.646  13.571
 3573SOL     OW12615  11.013  10.071   9.282
 3573SOL    HW112616  10.945  10.056   9.348
 3573SOL    HW212617  11.083  10.115   9.330
 3574SOL     OW12618  13.589  12.268  10.749
 3574SOL    HW112619  13.599  12.238  10.658
 3574SOL    HW212620  13.523  12.209  10.786
 3575SOL     OW12621   7.006   0.505   7.509
 3575SOL    HW112622   7.076   0.472   7.564
 3575SOL    HW212623   6.976   0.585   7.553
 3576SOL     OW12624   7.159  12.451   2.341
 3576SOL    HW112625   7.100  12.392   2.390
 3576SOL    HW212626   7.170  12.407   2.257
 3577SOL     OW12627  11.987   1.584   5.018
 3577SOL    HW112628  11.954   1.568   5.107
 3577SOL    HW212629  12.003   1.496   4.982
 3578SOL     OW12630   2.202   4.585  13.637
 3578SOL    HW112631   2.132   4.640  13.603
 3578SOL    HW212632   2.251   4.557  13.560
 3579SOL     OW12633   4.348   8.361   9.165
 3579SOL    HW112634   4.371   8.272   9.141
 3579SOL    HW212635   4.259   8.356   9.198
 3580SOL     OW12636   4.835   9.344   0.345
 3580SOL    HW112637   4.799   9.256   0.357
 3580SOL    HW212638   4.901   9.333   0.276
 3581SOL     OW12639  13.993  11.072  14.424
 3581SOL    HW112640  14.076  11.104  14.460
 3581SOL    HW212641  13.930  11.142  14.442
 3582SOL     OW12642   0.661   2.484   1.791
 3582SOL    HW112643   0.692   2.452   1.706
 3582SOL    HW212644   0.741   2.507   1.839
 3583SOL     OW12645   9.192  14.386   8.494
 3583SOL    HW112646   9.209  14.428   8.409
 3583SOL    HW212647   9.098  14.370   8.494
 3584SOL     OW12648  13.398   5.557  10.574
 3584SOL    HW112649  13.472   5.499  10.591
 3584SOL    HW212650  13.425   5.642  10.609
 3585SOL     OW12651   4.966   4.717   3.678
 3585SOL    HW112652   5.017   4.695   3.600
 3585SOL    HW212653   4.885   4.753   3.643
 3586SOL     OW12654   2.038   3.073  13.290
 3586SOL    HW112655   2.039   3.101  13.381
 3586SOL    HW212656   1.946   3.055  13.272
 3587SOL     OW12657  14.681   9.756   6.390
 3587SOL    HW112658  14.586   9.755   6.395
 3587SOL    HW212659  14.705   9.848   6.382
 3588SOL     OW12660   2.539   5.535   7.039
 3588SOL    HW112661   2.603   5.591   6.994
 3588SOL    HW212662   2.475   5.596   7.075
 3589SOL     OW12663  11.269  10.240   6.610
 3589SOL    HW112664  11.210  10.192   6.552
 3589SOL    HW212665  11.263  10.331   6.581
 3590SOL     OW12666  14.437  14.043   7.888
 3590SOL    HW112667  14.386  14.074   7.962
 3590SOL    HW212668  14.505  14.109   7.876
 3591SOL     OW12669   4.585   1.870  10.252
 3591SOL    HW112670   4.517   1.807  10.274
 3591SOL    HW212671   4.540   1.955  10.247
 3592SOL     OW12672  14.172   3.035  12.626
 3592SOL    HW112673  14.116   3.078  12.561
 3592SOL    HW212674  14.238   3.101  12.647
 3593SOL     OW12675  11.327   7.473   0.467
 3593SOL    HW112676  11.243   7.461   0.511
 3593SOL    HW212677  11.304   7.497   0.377
 3594SOL     OW12678   4.965   7.506   4.537
 3594SOL    HW112679   4.878   7.482   4.568
 3594SOL    HW212680   5.019   7.428   4.553
 3595SOL     OW12681   2.059   4.080   4.495
 3595SOL    HW112682   1.973   4.087   4.455
 3595SOL    HW212683   2.098   4.002   4.454
 3596SOL     OW12684   1.950   2.867   2.051
 3596SOL    HW112685   1.873   2.813   2.034
 3596SOL    HW212686   1.934   2.948   2.004
 3597SOL     OW12687   4.660  12.086  13.846
 3597SOL    HW112688   4.675  12.169  13.802
 3597SOL    HW212689   4.744  12.041  13.843
 3598SOL     OW12690   4.017   7.906   5.090
 3598SOL    HW112691   4.070   7.894   5.011
 3598SOL    HW212692   4.037   7.830   5.144
 3599SOL     OW12693   8.691   7.712   4.342
 3599SOL    HW112694   8.769   7.659   4.363
 3599SOL    HW212695   8.695   7.723   4.247
 3600SOL     OW12696  12.634   8.943   5.264
 3600SOL    HW112697  12.674   9.011   5.317
 3600SOL    HW212698  12.641   8.975   5.174
 3601SOL     OW12699  11.546   0.973   3.084
 3601SOL    HW112700  11.451   0.962   3.090
 3601SOL    HW212701  11.560   1.014   2.999
 3602SOL     OW12702   1.137   0.550  10.175
 3602SOL    HW112703   1.146   0.638  10.210
 3602SOL    HW212704   1.163   0.492  10.247
 3603SOL     OW12705  11.530  11.258   0.435
 3603SOL    HW112706  11.528  11.353   0.425
 3603SOL    HW212707  11.540  11.225   0.345
 3604SOL     OW12708   9.133   5.612   0.331
 3604SOL    HW112709   9.175   5.627   0.246
 3604SOL    HW212710   9.041   5.637   0.317
 3605SOL     OW12711   2.290  12.562  13.783
 3605SOL    HW112712   2.243  12.623  13.727
 3605SOL    HW212713   2.226  12.494  13.803
 3606SOL     OW12714  10.542   0.824   0.271
 3606SOL    HW112715  10.574   0.804   0.183
 3606SOL    HW212716  10.622   0.840   0.321
 3607SOL     OW12717   3.433  12.699  11.744
 3607SOL    HW112718   3.432  12.656  11.658
 3607SOL    HW212719   3.346  12.682  11.780
 3608SOL     OW12720  14.036   0.496   5.999
 3608SOL    HW112721  14.024   0.509   6.093
 3608SOL    HW212722  13.985   0.566   5.958
 3609SOL     OW12723   0.603  14.258  13.416
 3609SOL    HW112724   0.511  14.236  13.433
 3609SOL    HW212725   0.612  14.250  13.321
 3610SOL     OW12726  13.997  11.685  11.923
 3610SOL    HW112727  13.918  11.684  11.978
 3610SOL    HW212728  14.068  11.661  11.982
 3611SOL     OW12729   4.829   7.991  12.555
 3611SOL    HW112730   4.783   8.017  12.635
 3611SOL    HW212731   4.771   8.019  12.484
 3612SOL     OW12732  10.964  14.152  10.258
 3612SOL    HW112733  10.973  14.057  10.251
 3612SOL    HW212734  11.053  14.184  10.274
 3613SOL     OW12735   6.985   8.979  12.079
 3613SOL    HW112736   6.987   8.992  12.174
 3613SOL    HW212737   6.955   8.889  12.068
 3614SOL     OW12738   7.494   1.676   3.639
 3614SOL    HW112739   7.475   1.766   3.613
 3614SOL    HW212740   7.590   1.673   3.649
 3615SOL     OW12741   9.268   1.651   7.810
 3615SOL    HW112742   9.307   1.643   7.897
 3615SOL    HW212743   9.240   1.742   7.806
 3616SOL     OW12744  10.997   0.915  14.360
 3616SOL    HW112745  10.912   0.880  14.337
 3616SOL    HW212746  11.040   0.845  14.409
 3617SOL     OW12747  11.445   1.008  10.171
 3617SOL    HW112748  11.364   1.033  10.128
 3617SOL    HW212749  11.513   1.024  10.106
 3618SOL     OW12750   9.791   0.042   6.813
 3618SOL    HW112751   9.819  14.855   6.741
 3618SOL    HW212752   9.855   0.026   6.882
 3619SOL     OW12753   0.380   0.023   6.334
 3619SOL    HW112754   0.333  14.853   6.407
 3619SOL    HW212755   0.333   0.104   6.316
 3620SOL     OW12756   3.014   5.847   3.371
 3620SOL    HW112757   3.091   5.791   3.374
 3620SOL    HW212758   3.046   5.934   3.398
 3621SOL     OW12759   7.527   8.533  11.909
 3621SOL    HW112760   7.563   8.452  11.945
 3621SOL    HW212761   7.433   8.528  11.927
 3622SOL     OW12762   4.133  10.842   9.714
 3622SOL    HW112763   4.152  10.875   9.626
 3622SOL    HW212764   4.077  10.909   9.753
 3623SOL     OW12765   2.900  11.950   9.673
 3623SOL    HW112766   2.862  12.006   9.740
 3623SOL    HW212767   2.830  11.938   9.609
 3624SOL     OW12768  12.686   8.060   2.989
 3624SOL    HW112769  12.591   8.062   3.001
 3624SOL    HW212770  12.698   8.027   2.900
 3625SOL     OW12771  12.081  14.779  12.943
 3625SOL    HW112772  12.106  14.793  12.852
 3625SOL    HW212773  12.121  14.852  12.990
 3626SOL     OW12774   3.033   1.241   7.782
 3626SOL    HW112775   2.962   1.230   7.718
 3626SOL    HW212776   3.105   1.279   7.732
 3627SOL     OW12777   1.682  12.260  14.494
 3627SOL    HW112778   1.637  12.178  14.475
 3627SOL    HW212779   1.762  12.257  14.442
 3628SOL     OW12780   3.212  11.475  11.464
 3628SOL    HW112781   3.232  11.480  11.370
 3628SOL    HW212782   3.185  11.564  11.487
 3629SOL     OW12783   8.862   1.945   5.032
 3629SOL    HW112784   8.806   2.004   5.084
 3629SOL    HW212785   8.935   2.000   5.005
 3630SOL     OW12786  13.002  11.906  12.467
 3630SOL    HW112787  12.920  11.900  12.418
 3630SOL    HW212788  12.993  11.987  12.517
 3631SOL     OW12789  14.193  10.110   5.609
 3631SOL    HW112790  14.202  10.052   5.534
 3631SOL    HW212791  14.181  10.052   5.684
 3632SOL     OW12792  12.730   5.322  14.850
 3632SOL    HW112793  12.806   5.339   0.037
 3632SOL    HW212794  12.656   5.316   0.041
 3633SOL     OW12795   2.283  14.529   4.444
 3633SOL    HW112796   2.282  14.434   4.455
 3633SOL    HW212797   2.361  14.546   4.391
 3634SOL     OW12798  10.111   6.834  14.198
 3634SOL    HW112799  10.153   6.914  14.166
 3634SOL    HW212800  10.019   6.857  14.208
 3635SOL     OW12801  14.559   4.820   3.336
 3635SOL    HW112802  14.543   4.738   3.383
 3635SOL    HW212803  14.494   4.881   3.372
 3636SOL     OW12804   2.988   9.618  12.807
 3636SOL    HW112805   2.894   9.605  12.821
 3636SOL    HW212806   2.996   9.627  12.712
 3637SOL     OW12807  10.026   2.498  10.501
 3637SOL    HW112808   9.950   2.496  10.559
 3637SOL    HW212809  10.096   2.534  10.556
 3638SOL     OW12810  13.007  12.895   5.387
 3638SOL    HW112811  12.945  12.864   5.453
 3638SOL    HW212812  13.021  12.820   5.330
 3639SOL     OW12813  12.368   0.124   6.882
 3639SOL    HW112814  12.340   0.204   6.928
 3639SOL    HW212815  12.313   0.055   6.919
 3640SOL     OW12816   1.759   4.942   0.284
 3640SOL    HW112817   1.848   4.946   0.318
 3640SOL    HW212818   1.733   5.033   0.273
 3641SOL     OW12819   5.381   9.524   5.483
 3641SOL    HW112820   5.372   9.503   5.389
 3641SOL    HW212821   5.295   9.557   5.508
 3642SOL     OW12822   3.658  11.859   2.364
 3642SOL    HW112823   3.579  11.907   2.339
 3642SOL    HW212824   3.655  11.780   2.311
 3643SOL     OW12825   2.674   4.394  12.729
 3643SOL    HW112826   2.734   4.406  12.802
 3643SOL    HW212827   2.719   4.433  12.654
 3644SOL     OW12828   7.616   1.349   3.253
 3644SOL    HW112829   7.707   1.328   3.272
 3644SOL    HW212830   7.595   1.422   3.311
 3645SOL     OW12831   7.205  13.932   9.152
 3645SOL    HW112832   7.217  14.024   9.128
 3645SOL    HW212833   7.240  13.926   9.241
 3646SOL     OW12834  13.102  11.778  10.249
 3646SOL    HW112835  13.119  11.695  10.204
 3646SOL    HW212836  13.029  11.758  10.308
 3647SOL     OW12837   8.462   1.694   6.935
 3647SOL    HW112838   8.493   1.609   6.903
 3647SOL    HW212839   8.526   1.718   7.003
 3648SOL     OW12840  12.730  14.531   6.544
 3648SOL    HW112841  12.812  14.531   6.494
 3648SOL    HW212842  12.665  14.496   6.483
 3649SOL     OW12843   0.750   0.150  10.732
 3649SOL    HW112844   0.714   0.117  10.815
 3649SOL    HW212845   0.679   0.202  10.695
 3650SOL     OW12846  14.009  13.174  13.142
 3650SOL    HW112847  13.983  13.082  13.134
 3650SOL    HW212848  13.959  13.207  13.216
 3651SOL     OW12849   3.483  11.942   9.625
 3651SOL    HW112850   3.447  12.030   9.618
 3651SOL    HW212851   3.425  11.897   9.687
 3652SOL     OW12852   8.473   4.620   1.516
 3652SOL    HW112853   8.487   4.526   1.531
 3652SOL    HW212854   8.519   4.663   1.588
 3653SOL     OW12855   7.108   9.128  14.486
 3653SOL    HW112856   7.155   9.201  14.525
 3653SOL    HW212857   7.084   9.072  14.560
 3654SOL     OW12858   3.561   6.112   0.439
 3654SOL    HW112859   3.614   6.061   0.500
 3654SOL    HW212860   3.607   6.105   0.355
 3655SOL     OW12861  12.597  13.532  10.481
 3655SOL    HW112862  12.669  13.509  10.422
 3655SOL    HW212863  12.542  13.453  10.483
 3656SOL     OW12864  10.680   7.500   7.489
 3656SOL    HW112865  10.696   7.574   7.548
 3656SOL    HW212866  10.599   7.461   7.521
 3657SOL     OW12867  14.695  12.308  13.923
 3657SOL    HW112868  14.785  12.300  13.954
 3657SOL    HW212869  14.698  12.376  13.856
 3658SOL     OW12870  14.746   5.552   7.001
 3658SOL    HW112871  14.774   5.634   7.042
 3658SOL    HW212872  14.771   5.484   7.064
 3659SOL     OW12873  11.194  10.722   4.862
 3659SOL    HW112874  11.218  10.650   4.804
 3659SOL    HW212875  11.160  10.679   4.940
 3660SOL     OW12876   9.769   2.849   6.998
 3660SOL    HW112877   9.754   2.932   6.952
 3660SOL    HW212878   9.681   2.818   7.020
 3661SOL     OW12879  11.739  10.313  13.151
 3661SOL    HW112880  11.760  10.315  13.244
 3661SOL    HW212881  11.709  10.402  13.131
 3662SOL     OW12882   7.177   4.037  12.105
 3662SOL    HW112883   7.255   4.046  12.052
 3662SOL    HW212884   7.159   4.126  12.137
 3663SOL     OW12885   8.289  14.064  12.065
 3663SOL    HW112886   8.260  14.150  12.094
 3663SOL    HW212887   8.211  14.025  12.024
 3664SOL     OW12888  10.556   2.862   5.975
 3664SOL    HW112889  10.506   2.823   5.903
 3664SOL    HW212890  10.522   2.951   5.984
 3665SOL     OW12891   7.151   7.742   6.823
 3665SOL    HW112892   7.154   7.656   6.864
 3665SOL    HW212893   7.156   7.804   6.896
 3666SOL     OW12894   8.110   8.495   1.661
 3666SOL    HW112895   8.149   8.444   1.732
 3666SOL    HW212896   8.114   8.586   1.693
 3667SOL     OW12897  11.956   3.176   0.574
 3667SOL    HW112898  11.930   3.091   0.609
 3667SOL    HW212899  11.876   3.213   0.538
 3668SOL     OW12900   6.238   1.739   3.891
 3668SOL    HW112901   6.313   1.783   3.930
 3668SOL    HW212902   6.172   1.809   3.881
 3669SOL     OW12903  13.335   3.645   1.100
 3669SOL    HW112904  13.249   3.650   1.141
 3669SOL    HW212905  13.350   3.733   1.064
 3670SOL     OW12906   1.474   8.743  10.436
 3670SOL    HW112907   1.448   8.651  10.442
 3670SOL    HW212908   1.567   8.743  10.460
 3671SOL     OW12909   9.268   0.001   2.079
 3671SOL    HW112910   9.246  14.778   2.077
 3671SOL    HW212911   9.199   0.043   2.026
 3672SOL     OW12912   7.600   8.594   6.150
 3672SOL    HW112913   7.572   8.563   6.236
 3672SOL    HW212914   7.525   8.578   6.093
 3673SOL     OW12915   7.542  12.837  14.244
 3673SOL    HW112916   7.624  12.793  14.267
 3673SOL    HW212917   7.487  12.766  14.210
 3674SOL     OW12918   5.518   4.718   0.946
 3674SOL    HW112919   5.588   4.656   0.964
 3674SOL    HW212920   5.471   4.680   0.872
 3675SOL     OW12921  14.111  12.624   3.774
 3675SOL    HW112922  14.039  12.562   3.783
 3675SOL    HW212923  14.110  12.674   3.856
 3676SOL     OW12924  10.497   0.153   7.746
 3676SOL    HW112925  10.543   0.069   7.748
 3676SOL    HW212926  10.406   0.131   7.729
 3677SOL     OW12927  11.364   9.253  13.613
 3677SOL    HW112928  11.450   9.273  13.576
 3677SOL    HW212929  11.340   9.169  13.573
 3678SOL     OW12930   0.266   1.504   5.996
 3678SOL    HW112931   0.203   1.465   6.057
 3678SOL    HW212932   0.266   1.444   5.921
 3679SOL     OW12933  12.794  12.032  11.748
 3679SOL    HW112934  12.813  12.122  11.774
 3679SOL    HW212935  12.770  12.039  11.656
 3680SOL     OW12936   8.851   2.013   9.113
 3680SOL    HW112937   8.859   2.089   9.055
 3680SOL    HW212938   8.806   1.947   9.060
 3681SOL     OW12939   8.652  10.144  10.876
 3681SOL    HW112940   8.686  10.231  10.894
 3681SOL    HW212941   8.568  10.159  10.832
 3682SOL     OW12942   5.260   0.694  12.139
 3682SOL    HW112943   5.168   0.720  12.130
 3682SOL    HW212944   5.262   0.644  12.221
 3683SOL     OW12945   9.249  10.229  10.659
 3683SOL    HW112946   9.203  10.206  10.740
 3683SOL    HW212947   9.229  10.321  10.645
 3684SOL     OW12948  14.766  11.018  14.593
 3684SOL    HW112949  14.816  11.085  14.548
 3684SOL    HW212950  14.728  11.063  14.669
 3685SOL     OW12951   6.526  14.818  14.402
 3685SOL    HW112952   6.461  14.866  14.351
 3685SOL    HW212953   6.608  14.827  14.353
 3686SOL     OW12954  12.398   3.762  12.046
 3686SOL    HW112955  12.335   3.786  12.113
 3686SOL    HW212956  12.467   3.714  12.093
 3687SOL     OW12957   2.574   3.685  12.912
 3687SOL    HW112958   2.658   3.640  12.901
 3687SOL    HW212959   2.509   3.624  12.877
 3688SOL     OW12960   6.818   9.281   1.707
 3688SOL    HW112961   6.813   9.248   1.617
 3688SOL    HW212962   6.908   9.309   1.717
 3689SOL     OW12963   2.025   4.962   2.656
 3689SOL    HW112964   2.061   4.886   2.611
 3689SOL    HW212965   1.930   4.950   2.652
 3690SOL     OW12966  11.957   8.844  14.636
 3690SOL    HW112967  12.044   8.870  14.668
 3690SOL    HW212968  11.939   8.761  14.679
 3691SOL     OW12969   7.602  13.972  11.939
 3691SOL    HW112970   7.600  13.911  12.012
 3691SOL    HW212971   7.511  13.995  11.925
 3692SOL     OW12972   8.074   5.087  10.472
 3692SOL    HW112973   8.167   5.073  10.456
 3692SOL    HW212974   8.072   5.133  10.556
 3693SOL     OW12975   9.883  10.784  11.464
 3693SOL    HW112976   9.796  10.764  11.499
 3693SOL    HW212977   9.924  10.698  11.453
 3694SOL     OW12978   9.568   0.966   7.391
 3694SOL    HW112979   9.479   0.945   7.361
 3694SOL    HW212980   9.579   1.059   7.369
 3695SOL     OW12981   6.359  11.443  12.983
 3695SOL    HW112982   6.451  11.461  12.965
 3695SOL    HW212983   6.349  11.350  12.967
 3696SOL     OW12984   7.886   5.797  12.153
 3696SOL    HW112985   7.844   5.768  12.072
 3696SOL    HW212986   7.905   5.716  12.201
 3697SOL     OW12987  10.337   3.331   6.556
 3697SOL    HW112988  10.391   3.405   6.526
 3697SOL    HW212989  10.269   3.323   6.490
 3698SOL     OW12990   7.982   4.038  12.558
 3698SOL    HW112991   8.033   4.078  12.487
 3698SOL    HW212992   8.022   4.073  12.638
 3699SOL     OW12993   1.462   7.551   3.335
 3699SOL    HW112994   1.514   7.575   3.258
 3699SOL    HW212995   1.522   7.500   3.389
 3700SOL     OW12996  11.117  13.063   1.077
 3700SOL    HW112997  11.086  12.990   1.131
 3700SOL    HW212998  11.072  13.140   1.113
 3701SOL     OW12999   6.454  13.516   9.478
 3701SOL    HW113000   6.418  13.471   9.555
 3701SOL    HW213001   6.525  13.569   9.513
 3702SOL     OW13002   8.435   3.882   9.885
 3702SOL    HW113003   8.380   3.959   9.900
 3702SOL    HW213004   8.372   3.810   9.874
 3703SOL     OW13005  10.633  10.127   3.254
 3703SOL    HW113006  10.635  10.082   3.169
 3703SOL    HW213007  10.708  10.186   3.252
 3704SOL     OW13008   1.922   0.978  13.039
 3704SOL    HW113009   1.854   0.926  13.082
 3704SOL    HW213010   1.889   1.068  13.041
 3705SOL     OW13011   8.134   8.525   1.085
 3705SOL    HW113012   8.216   8.572   1.098
 3705SOL    HW213013   8.134   8.457   1.152
 3706SOL     OW13014  12.228   6.809   8.586
 3706SOL    HW113015  12.286   6.865   8.639
 3706SOL    HW213016  12.245   6.836   8.496
 3707SOL     OW13017  10.525   4.208   0.437
 3707SOL    HW113018  10.542   4.121   0.401
 3707SOL    HW213019  10.463   4.248   0.375
 3708SOL     OW13020   6.818  10.845   0.824
 3708SOL    HW113021   6.815  10.938   0.805
 3708SOL    HW213022   6.905  10.831   0.861
 3709SOL     OW13023  13.874   1.659  13.057
 3709SOL    HW113024  13.840   1.676  12.969
 3709SOL    HW213025  13.968   1.677  13.050
 3710SOL     OW13026   3.558   9.052   1.032
 3710SOL    HW113027   3.495   9.102   0.979
 3710SOL    HW213028   3.587   8.982   0.974
 3711SOL     OW13029   7.592   6.795   0.633
 3711SOL    HW113030   7.572   6.882   0.599
 3711SOL    HW213031   7.641   6.752   0.563
 3712SOL     OW13032   2.197  13.511  13.393
 3712SOL    HW113033   2.118  13.483  13.440
 3712SOL    HW213034   2.201  13.453  13.317
 3713SOL     OW13035   4.569  11.824   7.971
 3713SOL    HW113036   4.571  11.767   8.047
 3713SOL    HW213037   4.653  11.811   7.928
 3714SOL     OW13038   0.136   6.620   1.781
 3714SOL    HW113039   0.166   6.580   1.699
 3714SOL    HW213040   0.214   6.665   1.815
 3715SOL     OW13041   0.036  11.242  14.467
 3715SOL    HW113042   0.099  11.232  14.395
 3715SOL    HW213043   0.088  11.270  14.542
 3716SOL     OW13044   0.301  10.186  13.634
 3716SOL    HW113045   0.235  10.146  13.578
 3716SOL    HW213046   0.365  10.117  13.650
 3717SOL     OW13047   7.893   2.686   2.925
 3717SOL    HW113048   7.830   2.755   2.905
 3717SOL    HW213049   7.962   2.730   2.974
 3718SOL     OW13050   8.609   6.124  13.556
 3718SOL    HW113051   8.594   6.078  13.474
 3718SOL    HW213052   8.703   6.143  13.557
 3719SOL     OW13053   0.321   6.009   0.592
 3719SOL    HW113054   0.400   6.062   0.598
 3719SOL    HW213055   0.327   5.965   0.507
 3720SOL     OW13056   7.242  14.541  11.337
 3720SOL    HW113057   7.293  14.606  11.288
 3720SOL    HW213058   7.180  14.593  11.388
 3721SOL     OW13059   6.273  13.654   7.682
 3721SOL    HW113060   6.324  13.735   7.688
 3721SOL    HW213061   6.299  13.615   7.599
 3722SOL     OW13062   5.681   7.610   2.043
 3722SOL    HW113063   5.670   7.536   1.983
 3722SOL    HW213064   5.776   7.624   2.045
 3723SOL     OW13065   5.664   4.326  14.340
 3723SOL    HW113066   5.579   4.309  14.299
 3723SOL    HW213067   5.699   4.239  14.359
 3724SOL     OW13068   5.188  13.862   2.066
 3724SOL    HW113069   5.179  13.943   2.015
 3724SOL    HW213070   5.277  13.832   2.048
 3725SOL     OW13071  14.252   1.226   7.885
 3725SOL    HW113072  14.186   1.179   7.936
 3725SOL    HW213073  14.334   1.210   7.931
 3726SOL     OW13074   6.247  14.420  12.623
 3726SOL    HW113075   6.251  14.325  12.635
 3726SOL    HW213076   6.153  14.438  12.611
 3727SOL     OW13077   1.466   1.899  12.518
 3727SOL    HW113078   1.399   1.944  12.568
 3727SOL    HW213079   1.422   1.873  12.437
 3728SOL     OW13080   5.762   5.643   5.941
 3728SOL    HW113081   5.761   5.678   5.852
 3728SOL    HW213082   5.841   5.681   5.981
 3729SOL     OW13083   4.463   0.886   7.909
 3729SOL    HW113084   4.535   0.867   7.969
 3729SOL    HW213085   4.435   0.975   7.933
 3730SOL     OW13086  14.155   1.546  11.659
 3730SOL    HW113087  14.142   1.485  11.732
 3730SOL    HW213088  14.248   1.569  11.664
 3731SOL     OW13089   9.545  10.420   6.905
 3731SOL    HW113090   9.568  10.380   6.989
 3731SOL    HW213091   9.624  10.413   6.852
 3732SOL     OW13092   3.745  10.621  10.047
 3732SOL    HW113093   3.795  10.683   9.993
 3732SOL    HW213094   3.745  10.659  10.134
 3733SOL     OW13095  13.036  11.064   1.232
 3733SOL    HW113096  13.093  10.991   1.211
 3733SOL    HW213097  12.994  11.040   1.314
 3734SOL     OW13098   7.031  13.557  13.512
 3734SOL    HW113099   6.977  13.532  13.587
 3734SOL    HW213100   7.078  13.635  13.542
 3735SOL     OW13101   4.021   0.414  10.570
 3735SOL    HW113102   3.926   0.421  10.566
 3735SOL    HW213103   4.051   0.502  10.594
 3736SOL     OW13104  10.503   4.099  10.903
 3736SOL    HW113105  10.463   4.078  10.818
 3736SOL    HW213106  10.482   4.024  10.958
 3737SOL     OW13107   0.488  12.728   8.371
 3737SOL    HW113108   0.441  12.774   8.302
 3737SOL    HW213109   0.572  12.775   8.378
 3738SOL     OW13110   2.161   4.578   6.440
 3738SOL    HW113111   2.108   4.638   6.389
 3738SOL    HW213112   2.131   4.491   6.413
 3739SOL     OW13113   9.243   3.466   2.760
 3739SOL    HW113114   9.281   3.421   2.684
 3739SOL    HW213115   9.197   3.541   2.722
 3740SOL     OW13116  14.849   6.901   7.098
 3740SOL    HW113117   0.009   6.857   7.178
 3740SOL    HW213118   0.025   6.985   7.099
 3741SOL     OW13119   9.094   4.031   6.244
 3741SOL    HW113120   9.000   4.017   6.247
 3741SOL    HW213121   9.104   4.126   6.249
 3742SOL     OW13122  11.826  12.235  14.470
 3742SOL    HW113123  11.908  12.237  14.519
 3742SOL    HW213124  11.758  12.229  14.537
 3743SOL     OW13125  10.655   1.122  10.018
 3743SOL    HW113126  10.601   1.050   9.986
 3743SOL    HW213127  10.610   1.154  10.096
 3744SOL     OW13128  11.468  13.579  14.115
 3744SOL    HW113129  11.558  13.588  14.147
 3744SOL    HW213130  11.417  13.554  14.192
 3745SOL     OW13131  12.833   5.273  11.514
 3745SOL    HW113132  12.861   5.357  11.477
 3745SOL    HW213133  12.910   5.216  11.504
 3746SOL     OW13134  13.143  14.645  12.521
 3746SOL    HW113135  13.089  14.567  12.532
 3746SOL    HW213136  13.200  14.624  12.447
 3747SOL     OW13137  10.362   1.098   3.815
 3747SOL    HW113138  10.331   1.073   3.728
 3747SOL    HW213139  10.445   1.144   3.799
 3748SOL     OW13140   2.031   8.523  10.523
 3748SOL    HW113141   2.097   8.532  10.592
 3748SOL    HW213142   2.082   8.513  10.443
 3749SOL     OW13143   9.523   7.494   3.822
 3749SOL    HW113144   9.564   7.438   3.756
 3749SOL    HW213145   9.588   7.502   3.892
 3750SOL     OW13146  14.229   2.446   2.213
 3750SOL    HW113147  14.267   2.533   2.215
 3750SOL    HW213148  14.262   2.407   2.132
 3751SOL     OW13149   9.242   0.420  10.801
 3751SOL    HW113150   9.216   0.363  10.874
 3751SOL    HW213151   9.313   0.473  10.837
 3752SOL     OW13152  10.273   3.249   4.067
 3752SOL    HW113153  10.332   3.315   4.032
 3752SOL    HW213154  10.249   3.281   4.154
 3753SOL     OW13155  11.892   7.136  11.668
 3753SOL    HW113156  11.847   7.167  11.747
 3753SOL    HW213157  11.908   7.215  11.617
 3754SOL     OW13158  10.281   5.023  14.306
 3754SOL    HW113159  10.345   4.963  14.270
 3754SOL    HW213160  10.326   5.107  14.312
 3755SOL     OW13161  12.900   2.225  10.874
 3755SOL    HW113162  12.852   2.142  10.868
 3755SOL    HW213163  12.991   2.199  10.892
 3756SOL     OW13164   8.002   8.248   7.380
 3756SOL    HW113165   8.070   8.198   7.426
 3756SOL    HW213166   8.018   8.230   7.288
 3757SOL     OW13167   6.939  10.770  12.177
 3757SOL    HW113168   6.968  10.682  12.203
 3757SOL    HW213169   6.921  10.815  12.260
 3758SOL     OW13170   8.606   8.220   1.582
 3758SOL    HW113171   8.672   8.170   1.630
 3758SOL    HW213172   8.575   8.161   1.514
 3759SOL     OW13173   2.834  11.478  12.371
 3759SOL    HW113174   2.833  11.399  12.425
 3759SOL    HW213175   2.874  11.545  12.426
 3760SOL     OW13176   7.950   1.016  12.610
 3760SOL    HW113177   8.001   0.990  12.687
 3760SOL    HW213178   7.892   0.942  12.594
 3761SOL     OW13179   2.349   1.669  10.291
 3761SOL    HW113180   2.390   1.688  10.207
 3761SOL    HW213181   2.276   1.730  10.297
 3762SOL     OW13182   5.640  11.406   7.743
 3762SOL    HW113183   5.635  11.493   7.704
 3762SOL    HW213184   5.612  11.347   7.673
 3763SOL     OW13185  10.207  12.152   5.848
 3763SOL    HW113186  10.210  12.062   5.818
 3763SOL    HW213187  10.207  12.146   5.944
 3764SOL     OW13188   3.194  12.718  11.880
 3764SOL    HW113189   3.233  12.798  11.916
 3764SOL    HW213190   3.157  12.746  11.797
 3765SOL     OW13191   2.872   1.445   2.595
 3765SOL    HW113192   2.834   1.529   2.621
 3765SOL    HW213193   2.905   1.460   2.507
 3766SOL     OW13194   9.920  12.782  11.397
 3766SOL    HW113195   9.930  12.776  11.302
 3766SOL    HW213196   9.843  12.837  11.409
 3767SOL     OW13197  11.480   3.302  14.728
 3767SOL    HW113198  11.562   3.294  14.681
 3767SOL    HW213199  11.475   3.224  14.783
 3768SOL     OW13200   7.977   2.715  10.229
 3768SOL    HW113201   8.008   2.795  10.186
 3768SOL    HW213202   7.899   2.690  10.179
 3769SOL     OW13203   5.141   2.576   0.261
 3769SOL    HW113204   5.142   2.483   0.237
 3769SOL    HW213205   5.174   2.577   0.351
 3770SOL     OW13206  10.879  11.935  14.381
 3770SOL    HW113207  10.824  11.869  14.339
 3770SOL    HW213208  10.916  11.890  14.458
 3771SOL     OW13209   3.719  13.139  10.388
 3771SOL    HW113210   3.769  13.108  10.463
 3771SOL    HW213211   3.777  13.202  10.346
 3772SOL     OW13212  10.758  13.028   4.609
 3772SOL    HW113213  10.829  12.992   4.556
 3772SOL    HW213214  10.689  13.047   4.546
 3773SOL     OW13215  14.696   9.236   8.137
 3773SOL    HW113216  14.676   9.312   8.083
 3773SOL    HW213217  14.783   9.208   8.108
 3774SOL     OW13218   1.663   6.312  10.672
 3774SOL    HW113219   1.635   6.231  10.713
 3774SOL    HW213220   1.745   6.290  10.628
 3775SOL     OW13221   2.796  10.567   9.116
 3775SOL    HW113222   2.706  10.539   9.128
 3775SOL    HW213223   2.847  10.486   9.120
 3776SOL     OW13224   7.656  14.580   2.582
 3776SOL    HW113225   7.746  14.607   2.604
 3776SOL    HW213226   7.646  14.494   2.622
 3777SOL     OW13227   6.440   1.739   9.291
 3777SOL    HW113228   6.535   1.729   9.287
 3777SOL    HW213229   6.406   1.674   9.229
 3778SOL     OW13230  14.830   8.769  14.384
 3778SOL    HW113231  14.765   8.821  14.431
 3778SOL    HW213232   0.040   8.821  14.387
 3779SOL     OW13233   9.815   4.191   6.982
 3779SOL    HW113234   9.801   4.243   6.903
 3779SOL    HW213235   9.745   4.219   7.042
 3780SOL     OW13236   9.198   9.611  10.989
 3780SOL    HW113237   9.213   9.615  11.084
 3780SOL    HW213238   9.107   9.581  10.982
 3781SOL     OW13239   6.122  11.069   8.033
 3781SOL    HW113240   6.055  11.129   7.999
 3781SOL    HW213241   6.201  11.090   7.982
 3782SOL     OW13242   9.625  12.274  14.596
 3782SOL    HW113243   9.657  12.290  14.684
 3782SOL    HW213244   9.530  12.283  14.603
 3783SOL     OW13245   9.871   3.365   7.488
 3783SOL    HW113246   9.777   3.356   7.501
 3783SOL    HW213247   9.909   3.352   7.575
 3784SOL     OW13248   4.422  11.497   4.911
 3784SOL    HW113249   4.437  11.463   4.999
 3784SOL    HW213250   4.328  11.516   4.908
 3785SOL     OW13251   9.944   3.754  11.593
 3785SOL    HW113252   9.904   3.732  11.509
 3785SOL    HW213253   9.888   3.713  11.658
 3786SOL     OW13254   0.480   8.331   4.087
 3786SOL    HW113255   0.539   8.383   4.142
 3786SOL    HW213256   0.503   8.356   3.997
 3787SOL     OW13257   0.443  11.790   9.656
 3787SOL    HW113258   0.498  11.828   9.588
 3787SOL    HW213259   0.439  11.856   9.725
 3788SOL     OW13260   4.012   4.090   8.881
 3788SOL    HW113261   3.988   4.166   8.828
 3788SOL    HW213262   4.078   4.122   8.942
 3789SOL     OW13263  14.319   3.024  10.235
 3789SOL    HW113264  14.393   3.046  10.179
 3789SOL    HW213265  14.358   3.006  10.321
 3790SOL     OW13266  14.436  12.094  10.040
 3790SOL    HW113267  14.468  12.016  10.086
 3790SOL    HW213268  14.438  12.163  10.107
 3791SOL     OW13269   2.729  11.777   6.718
 3791SOL    HW113270   2.642  11.757   6.754
 3791SOL    HW213271   2.789  11.726   6.772
 3792SOL     OW13272   6.581   9.789   9.803
 3792SOL    HW113273   6.649   9.778   9.736
 3792SOL    HW213274   6.629   9.786   9.886
 3793SOL     OW13275   3.912  12.632   7.374
 3793SOL    HW113276   3.981  12.588   7.324
 3793SOL    HW213277   3.844  12.566   7.384
 3794SOL     OW13278  11.289  14.720   2.997
 3794SOL    HW113279  11.321  14.640   3.040
 3794SOL    HW213280  11.226  14.756   3.059
 3795SOL     OW13281   0.724   5.801   3.282
 3795SOL    HW113282   0.755   5.863   3.217
 3795SOL    HW213283   0.677   5.735   3.231
 3796SOL     OW13284   6.910   8.690   6.896
 3796SOL    HW113285   6.872   8.646   6.820
 3796SOL    HW213286   6.973   8.752   6.859
 3797SOL     OW13287   0.953   1.433   3.856
 3797SOL    HW113288   1.000   1.507   3.817
 3797SOL    HW213289   0.925   1.465   3.942
 3798SOL     OW13290  14.708   7.333   6.906
 3798SOL    HW113291  14.697   7.251   6.857
 3798SOL    HW213292  14.718   7.400   6.838
 3799SOL     OW13293  12.334  10.460  13.479
 3799SOL    HW113294  12.379  10.446  13.396
 3799SOL    HW213295  12.348  10.552  13.500
 3800SOL     OW13296   6.201  11.431  14.233
 3800SOL    HW113297   6.276  11.435  14.293
 3800SOL    HW213298   6.149  11.357  14.265
 3801SOL     OW13299   3.934  10.276   1.246
 3801SOL    HW113300   3.954  10.369   1.238
 3801SOL    HW213301   4.003  10.232   1.196
 3802SOL     OW13302  10.775   9.301   3.812
 3802SOL    HW113303  10.867   9.276   3.826
 3802SOL    HW213304  10.726   9.221   3.830
 3803SOL     OW13305   0.253   5.338   1.847
 3803SOL    HW113306   0.318   5.408   1.848
 3803SOL    HW213307   0.300   5.262   1.812
 3804SOL     OW13308   5.323   5.552   7.371
 3804SOL    HW113309   5.249   5.613   7.373
 3804SOL    HW213310   5.282   5.466   7.369
 3805SOL     OW13311   0.333  13.162   0.874
 3805SOL    HW113312   0.390  13.103   0.823
 3805SOL    HW213313   0.270  13.104   0.916
 3806SOL     OW13314   4.290   5.972   2.008
 3806SOL    HW113315   4.275   5.997   1.917
 3806SOL    HW213316   4.350   5.897   2.003
 3807SOL     OW13317   1.300   4.303  13.715
 3807SOL    HW113318   1.231   4.279  13.778
 3807SOL    HW213319   1.285   4.396  13.698
 3808SOL     OW13320  12.035   7.137   4.497
 3808SOL    HW113321  11.996   7.171   4.417
 3808SOL    HW213322  12.016   7.043   4.496
 3809SOL     OW13323  13.981  13.897   6.976
 3809SOL    HW113324  13.963  13.960   6.906
 3809SOL    HW213325  13.894  13.865   7.001
 3810SOL     OW13326  11.951   4.868   2.816
 3810SOL    HW113327  11.875   4.814   2.835
 3810SOL    HW213328  11.993   4.881   2.901
 3811SOL     OW13329  12.300  12.265  13.156
 3811SOL    HW113330  12.256  12.221  13.082
 3811SOL    HW213331  12.229  12.302  13.207
 3812SOL     OW13332   9.938   8.301   6.921
 3812SOL    HW113333   9.997   8.374   6.942
 3812SOL    HW213334   9.983   8.252   6.853
 3813SOL     OW13335   3.041   5.620   0.297
 3813SOL    HW113336   2.974   5.551   0.303
 3813SOL    HW213337   3.091   5.612   0.378
 3814SOL     OW13338  11.944  11.073  11.589
 3814SOL    HW113339  11.923  11.008  11.657
 3814SOL    HW213340  12.027  11.111  11.617
 3815SOL     OW13341   9.379   1.073  10.373
 3815SOL    HW113342   9.288   1.097  10.389
 3815SOL    HW213343   9.404   1.022  10.450
 3816SOL     OW13344   1.851   0.942  14.348
 3816SOL    HW113345   1.765   0.904  14.327
 3816SOL    HW213346   1.899   0.870  14.388
 3817SOL     OW13347   6.139   8.312   4.605
 3817SOL    HW113348   6.137   8.245   4.537
 3817SOL    HW213349   6.231   8.317   4.632
 3818SOL     OW13350   4.920   3.731   3.461
 3818SOL    HW113351   4.882   3.780   3.534
 3818SOL    HW213352   4.971   3.796   3.412
 3819SOL     OW13353   9.384   3.417  11.421
 3819SOL    HW113354   9.347   3.502  11.446
 3819SOL    HW213355   9.309   3.362  11.403
 3820SOL     OW13356   3.677   0.518  11.435
 3820SOL    HW113357   3.725   0.571  11.371
 3820SOL    HW213358   3.590   0.558  11.439
 3821SOL     OW13359   8.812   9.830  12.475
 3821SOL    HW113360   8.800   9.855  12.567
 3821SOL    HW213361   8.901   9.795  12.472
 3822SOL     OW13362   0.261  14.620   9.561
 3822SOL    HW113363   0.237  14.678   9.633
 3822SOL    HW213364   0.318  14.673   9.505
 3823SOL     OW13365  13.990   5.356   6.479
 3823SOL    HW113366  14.078   5.317   6.484
 3823SOL    HW213367  14.005   5.450   6.490
 3824SOL     OW13368   3.866   9.203  13.447
 3824SOL    HW113369   3.872   9.149  13.368
 3824SOL    HW213370   3.785   9.176  13.489
 3825SOL     OW13371   1.061   5.758   6.101
 3825SOL    HW113372   1.107   5.674   6.092
 3825SOL    HW213373   1.038   5.763   6.193
 3826SOL     OW13374   2.108  14.081   5.333
 3826SOL    HW113375   2.144  14.166   5.358
 3826SOL    HW213376   2.014  14.096   5.325
 3827SOL     OW13377   4.334   6.971   3.434
 3827SOL    HW113378   4.384   6.924   3.501
 3827SOL    HW213379   4.341   7.063   3.460
 3828SOL     OW13380   7.104   7.975  14.405
 3828SOL    HW113381   7.169   7.991  14.474
 3828SOL    HW213382   7.061   8.060  14.393
 3829SOL     OW13383   3.274  12.489  12.094
 3829SOL    HW113384   3.284  12.584  12.094
 3829SOL    HW213385   3.185  12.474  12.124
 3830SOL     OW13386   7.508  12.787   9.886
 3830SOL    HW113387   7.445  12.768   9.817
 3830SOL    HW213388   7.491  12.878   9.910
 3831SOL     OW13389  12.893  10.738   7.918
 3831SOL    HW113390  12.955  10.811   7.917
 3831SOL    HW213391  12.855  10.740   8.006
 3832SOL     OW13392  12.361   9.087   0.143
 3832SOL    HW113393  12.399   9.147   0.079
 3832SOL    HW213394  12.400   9.113   0.226
 3833SOL     OW13395  10.377  10.211   6.797
 3833SOL    HW113396  10.447  10.179   6.853
 3833SOL    HW213397  10.419  10.271   6.736
 3834SOL     OW13398  12.973   7.134   1.358
 3834SOL    HW113399  13.003   7.216   1.397
 3834SOL    HW213400  12.898   7.107   1.412
 3835SOL     OW13401  11.057  11.976   3.884
 3835SOL    HW113402  11.056  11.977   3.788
 3835SOL    HW213403  11.002  11.902   3.908
 3836SOL     OW13404   7.479   2.767   5.070
 3836SOL    HW113405   7.555   2.710   5.079
 3836SOL    HW213406   7.404   2.709   5.086
 3837SOL     OW13407   2.804   0.019  13.683
 3837SOL    HW113408   2.714   0.008  13.650
 3837SOL    HW213409   2.793   0.035  13.777
 3838SOL     OW13410   6.408  11.905   0.551
 3838SOL    HW113411   6.392  11.919   0.645
 3838SOL    HW213412   6.500  11.930   0.539
 3839SOL     OW13413   3.274  11.093  10.472
 3839SOL    HW113414   3.272  10.997  10.469
 3839SOL    HW213415   3.348  11.114  10.528
 3840SOL     OW13416  13.911  14.363  13.757
 3840SOL    HW113417  13.941  14.340  13.845
 3840SOL    HW213418  13.989  14.353  13.702
 3841SOL     OW13419  13.880   7.558  13.356
 3841SOL    HW113420  13.843   7.553  13.268
 3841SOL    HW213421  13.892   7.651  13.372
 3842SOL     OW13422   3.020   5.916  13.383
 3842SOL    HW113423   3.045   5.888  13.294
 3842SOL    HW213424   2.927   5.936  13.376
 3843SOL     OW13425   6.818   9.759  14.826
 3843SOL    HW113426   6.892   9.764  14.767
 3843SOL    HW213427   6.822   9.671  14.864
 3844SOL     OW13428   0.065  12.299   4.885
 3844SOL    HW113429   0.112  12.338   4.960
 3844SOL    HW213430   0.034  12.215   4.918
 3845SOL     OW13431  13.797   9.296  12.661
 3845SOL    HW113432  13.709   9.333  12.652
 3845SOL    HW213433  13.852   9.349  12.604
 3846SOL     OW13434   5.207   7.491   6.026
 3846SOL    HW113435   5.166   7.573   6.053
 3846SOL    HW213436   5.259   7.515   5.949
 3847SOL     OW13437  12.484   8.141  12.699
 3847SOL    HW113438  12.488   8.208  12.767
 3847SOL    HW213439  12.547   8.169  12.633
 3848SOL     OW13440  10.641   5.067   5.589
 3848SOL    HW113441  10.579   5.087   5.519
 3848SOL    HW213442  10.691   4.992   5.556
 3849SOL     OW13443  10.084   3.019   5.851
 3849SOL    HW113444  10.102   2.993   5.941
 3849SOL    HW213445   9.989   3.015   5.843
 3850SOL     OW13446  11.789   7.714   3.794
 3850SOL    HW113447  11.707   7.749   3.830
 3850SOL    HW213448  11.812   7.643   3.854
 3851SOL     OW13449   4.427   9.390  10.660
 3851SOL    HW113450   4.393   9.461  10.714
 3851SOL    HW213451   4.421   9.312  10.716
 3852SOL     OW13452   5.100   4.577  11.818
 3852SOL    HW113453   5.164   4.551  11.885
 3852SOL    HW213454   5.113   4.671  11.808
 3853SOL     OW13455   7.403   6.342   4.296
 3853SOL    HW113456   7.489   6.369   4.264
 3853SOL    HW213457   7.416   6.252   4.326
 3854SOL     OW13458  11.110   7.503   2.206
 3854SOL    HW113459  11.103   7.425   2.151
 3854SOL    HW213460  11.025   7.546   2.199
 3855SOL     OW13461   0.522  10.034  13.061
 3855SOL    HW113462   0.505   9.971  13.131
 3855SOL    HW213463   0.618  10.038  13.055
 3856SOL     OW13464  10.478   8.828  14.686
 3856SOL    HW113465  10.393   8.861  14.657
 3856SOL    HW213466  10.459   8.745  14.730
 3857SOL     OW13467   1.611   1.628  14.509
 3857SOL    HW113468   1.604   1.707  14.563
 3857SOL    HW213469   1.527   1.583  14.523
 3858SOL     OW13470  11.886   5.646  12.100
 3858SOL    HW113471  11.893   5.587  12.025
 3858SOL    HW213472  11.813   5.704  12.078
 3859SOL     OW13473   5.155  13.950  11.653
 3859SOL    HW113474   5.246  13.938  11.624
 3859SOL    HW213475   5.113  13.867  11.633
 3860SOL     OW13476  14.088   0.554   0.087
 3860SOL    HW113477  14.131   0.472   0.061
 3860SOL    HW213478  14.155   0.602   0.135
 3861SOL     OW13479   3.184   7.795   3.639
 3861SOL    HW113480   3.147   7.714   3.674
 3861SOL    HW213481   3.278   7.778   3.635
 3862SOL     OW13482   1.203   0.925   6.049
 3862SOL    HW113483   1.190   0.831   6.040
 3862SOL    HW213484   1.202   0.958   5.960
 3863SOL     OW13485  12.115  10.305   9.445
 3863SOL    HW113486  12.143  10.259   9.366
 3863SOL    HW213487  12.039  10.257   9.476
 3864SOL     OW13488  12.152   2.323   3.315
 3864SOL    HW113489  12.203   2.362   3.243
 3864SOL    HW213490  12.202   2.346   3.393
 3865SOL     OW13491   0.780  10.233  14.359
 3865SOL    HW113492   0.869  10.253  14.386
 3865SOL    HW213493   0.785  10.223  14.264
 3866SOL     OW13494  13.207   7.176   3.598
 3866SOL    HW113495  13.147   7.173   3.672
 3866SOL    HW213496  13.266   7.102   3.612
 3867SOL     OW13497  14.740   9.984   4.610
 3867SOL    HW113498  14.818   9.933   4.629
 3867SOL    HW213499  14.683   9.924   4.562
 3868SOL     OW13500   5.237   6.078   7.705
 3868SOL    HW113501   5.329   6.062   7.727
 3868SOL    HW213502   5.228   6.173   7.706
 3869SOL     OW13503   2.755  12.798  13.221
 3869SOL    HW113504   2.720  12.830  13.137
 3869SOL    HW213505   2.738  12.703  13.219
 3870SOL     OW13506  10.164  13.615   6.499
 3870SOL    HW113507  10.238  13.667   6.528
 3870SOL    HW213508  10.088  13.651   6.545
 3871SOL     OW13509   1.748   9.448  13.739
 3871SOL    HW113510   1.716   9.396  13.813
 3871SOL    HW213511   1.722   9.399  13.662
 3872SOL     OW13512   6.653   3.970   4.503
 3872SOL    HW113513   6.641   4.064   4.519
 3872SOL    HW213514   6.635   3.929   4.587
 3873SOL     OW13515  11.202   5.215  11.846
 3873SOL    HW113516  11.177   5.277  11.777
 3873SOL    HW213517  11.290   5.186  11.821
 3874SOL     OW13518  13.157   9.646  11.379
 3874SOL    HW113519  13.077   9.697  11.364
 3874SOL    HW213520  13.145   9.568  11.326
 3875SOL     OW13521  10.493   0.438   6.123
 3875SOL    HW113522  10.510   0.436   6.217
 3875SOL    HW213523  10.509   0.348   6.094
 3876SOL     OW13524   5.821   0.499  13.903
 3876SOL    HW113525   5.789   0.437  13.969
 3876SOL    HW213526   5.771   0.478  13.824
 3877SOL     OW13527   6.792  11.517  14.400
 3877SOL    HW113528   6.853  11.539  14.471
 3877SOL    HW213529   6.705  11.529  14.439
 3878SOL     OW13530   3.731  12.977   7.515
 3878SOL    HW113531   3.745  13.058   7.465
 3878SOL    HW213532   3.777  12.993   7.598
 3879SOL     OW13533   4.270   8.551   8.554
 3879SOL    HW113534   4.282   8.475   8.497
 3879SOL    HW213535   4.241   8.514   8.637
 3880SOL     OW13536  14.163   5.060   8.578
 3880SOL    HW113537  14.180   5.116   8.502
 3880SOL    HW213538  14.166   4.971   8.544
 3881SOL     OW13539  11.565   7.161   5.910
 3881SOL    HW113540  11.495   7.135   5.850
 3881SOL    HW213541  11.522   7.221   5.971
 3882SOL     OW13542   7.323   7.903   8.079
 3882SOL    HW113543   7.403   7.855   8.097
 3882SOL    HW213544   7.349   7.995   8.083
 3883SOL     OW13545   8.177   4.378   3.202
 3883SOL    HW113546   8.124   4.381   3.281
 3883SOL    HW213547   8.114   4.378   3.130
 3884SOL     OW13548  13.140  12.101   0.571
 3884SOL    HW113549  13.061  12.137   0.531
 3884SOL    HW213550  13.136  12.007   0.551
 3885SOL     OW13551   7.950   9.094   9.882
 3885SOL    HW113552   7.982   9.152   9.951
 3885SOL    HW213553   7.988   9.130   9.801
 3886SOL     OW13554  13.485   9.635  12.114
 3886SOL    HW113555  13.491   9.706  12.050
 3886SOL    HW213556  13.562   9.581  12.095
 3887SOL     OW13557   6.062   4.930   3.831
 3887SOL    HW113558   6.009   4.859   3.796
 3887SOL    HW213559   6.069   4.993   3.760
 3888SOL     OW13560  12.836  10.068   9.017
 3888SOL    HW113561  12.809  10.148   8.972
 3888SOL    HW213562  12.905  10.032   8.961
 3889SOL     OW13563  14.031   0.697  14.636
 3889SOL    HW113564  13.964   0.680  14.703
 3889SOL    HW213565  14.111   0.658  14.672
 3890SOL     OW13566   1.075   2.106  13.068
 3890SOL    HW113567   1.127   2.133  13.144
 3890SOL    HW213568   1.074   2.182  13.011
 3891SOL     OW13569   3.765   0.671   1.420
 3891SOL    HW113570   3.761   0.654   1.514
 3891SOL    HW213571   3.699   0.612   1.382
 3892SOL     OW13572   5.311   1.078   8.371
 3892SOL    HW113573   5.318   1.113   8.460
 3892SOL    HW213574   5.223   1.103   8.342
 3893SOL     OW13575   7.032  10.278   5.009
 3893SOL    HW113576   7.120  10.298   4.977
 3893SOL    HW213577   6.983  10.251   4.931
 3894SOL     OW13578   0.016  13.856   3.776
 3894SOL    HW113579  14.825  13.857   3.703
 3894SOL    HW213580   0.102  13.838   3.737
 3895SOL     OW13581   3.298   8.189   4.001
 3895SOL    HW113582   3.281   8.134   3.924
 3895SOL    HW213583   3.391   8.176   4.021
 3896SOL     OW13584  12.162   2.268   6.046
 3896SOL    HW113585  12.132   2.279   6.136
 3896SOL    HW213586  12.087   2.293   5.992
 3897SOL     OW13587   9.743   7.559  10.030
 3897SOL    HW113588   9.698   7.541   9.948
 3897SOL    HW213589   9.805   7.486  10.040
 3898SOL     OW13590  13.380   0.289   0.353
 3898SOL    HW113591  13.298   0.287   0.403
 3898SOL    HW213592  13.355   0.259   0.266
 3899SOL     OW13593  12.963  12.929   9.066
 3899SOL    HW113594  12.888  12.871   9.056
 3899SOL    HW213595  12.989  12.951   8.977
 3900SOL     OW13596   7.070  11.024   6.000
 3900SOL    HW113597   7.053  10.968   6.076
 3900SOL    HW213598   7.111  10.965   5.936
 3901SOL     OW13599  11.344   9.602   2.793
 3901SOL    HW113600  11.342   9.642   2.707
 3901SOL    HW213601  11.254   9.607   2.825
 3902SOL     OW13602   7.632   5.922   6.918
 3902SOL    HW113603   7.569   5.885   6.857
 3902SOL    HW213604   7.660   6.004   6.877
 3903SOL     OW13605  10.465   0.987   2.184
 3903SOL    HW113606  10.464   0.893   2.164
 3903SOL    HW213607  10.373   1.010   2.191
 3904SOL     OW13608   1.080   7.527   3.571
 3904SOL    HW113609   1.109   7.618   3.571
 3904SOL    HW213610   1.005   7.525   3.631
 3905SOL     OW13611  13.350   7.136  13.703
 3905SOL    HW113612  13.379   7.205  13.643
 3905SOL    HW213613  13.258   7.124  13.684
 3906SOL     OW13614   1.276   7.057  14.605
 3906SOL    HW113615   1.331   7.077  14.530
 3906SOL    HW213616   1.285   7.133  14.662
 3907SOL     OW13617   0.250   1.428   0.935
 3907SOL    HW113618   0.190   1.365   0.976
 3907SOL    HW213619   0.329   1.377   0.916
 3908SOL     OW13620  11.674   0.452   2.935
 3908SOL    HW113621  11.618   0.454   3.012
 3908SOL    HW213622  11.762   0.434   2.969
 3909SOL     OW13623   3.774   0.422   9.350
 3909SOL    HW113624   3.710   0.454   9.287
 3909SOL    HW213625   3.746   0.332   9.369
 3910SOL     OW13626  11.619   6.076   5.996
 3910SOL    HW113627  11.696   6.022   5.980
 3910SOL    HW213628  11.551   6.039   5.939
 3911SOL     OW13629   6.924   8.289   8.978
 3911SOL    HW113630   6.918   8.367   8.923
 3911SOL    HW213631   6.923   8.216   8.916
 3912SOL     OW13632   1.096  11.841   1.654
 3912SOL    HW113633   1.059  11.850   1.742
 3912SOL    HW213634   1.174  11.896   1.655
 3913SOL     OW13635   6.604   1.647   5.252
 3913SOL    HW113636   6.648   1.567   5.282
 3913SOL    HW213637   6.656   1.677   5.178
 3914SOL     OW13638   0.962   8.274  10.150
 3914SOL    HW113639   0.927   8.243  10.066
 3914SOL    HW213640   1.057   8.270  10.139
 3915SOL     OW13641   7.843   4.938   8.643
 3915SOL    HW113642   7.873   4.984   8.565
 3915SOL    HW213643   7.839   5.005   8.711
 3916SOL     OW13644  13.476   0.724   8.157
 3916SOL    HW113645  13.524   0.642   8.155
 3916SOL    HW213646  13.543   0.791   8.141
 3917SOL     OW13647   3.368   0.648  10.281
 3917SOL    HW113648   3.393   0.688  10.364
 3917SOL    HW213649   3.441   0.591  10.259
 3918SOL     OW13650   8.929  14.097   7.967
 3918SOL    HW113651   8.916  14.024   7.907
 3918SOL    HW213652   9.024  14.107   7.972
 3919SOL     OW13653   3.345   4.390   0.090
 3919SOL    HW113654   3.428   4.427   0.121
 3919SOL    HW213655   3.330   4.315   0.148
 3920SOL     OW13656  13.073   2.195   5.042
 3920SOL    HW113657  12.982   2.214   5.019
 3920SOL    HW213658  13.069   2.116   5.096
 3921SOL     OW13659  11.604   1.670  14.757
 3921SOL    HW113660  11.620   1.590  14.807
 3921SOL    HW213661  11.643   1.653  14.672
 3922SOL     OW13662  13.313   3.766   6.460
 3922SOL    HW113663  13.269   3.722   6.534
 3922SOL    HW213664  13.364   3.696   6.419
 3923SOL     OW13665  11.430  12.687   8.014
 3923SOL    HW113666  11.373  12.761   8.038
 3923SOL    HW213667  11.479  12.668   8.095
 3924SOL     OW13668  12.819   9.918   9.715
 3924SOL    HW113669  12.870   9.959   9.645
 3924SOL    HW213670  12.868   9.838   9.737
 3925SOL     OW13671   1.960  14.663  13.721
 3925SOL    HW113672   1.907  14.738  13.692
 3925SOL    HW213673   1.904  14.618  13.785
 3926SOL     OW13674   7.452  11.915   2.440
 3926SOL    HW113675   7.467  11.851   2.370
 3926SOL    HW213676   7.493  11.995   2.408
 3927SOL     OW13677  11.114   4.986   6.791
 3927SOL    HW113678  11.070   4.947   6.867
 3927SOL    HW213679  11.200   5.012   6.824
 3928SOL     OW13680   4.972  13.228   8.301
 3928SOL    HW113681   5.041  13.244   8.365
 3928SOL    HW213682   4.973  13.133   8.289
 3929SOL     OW13683  10.614   4.973   9.829
 3929SOL    HW113684  10.598   4.887   9.790
 3929SOL    HW213685  10.548   5.030   9.789
 3930SOL     OW13686   1.818   3.553   1.013
 3930SOL    HW113687   1.782   3.466   0.995
 3930SOL    HW213688   1.826   3.555   1.109
 3931SOL     OW13689  14.839  11.668   2.329
 3931SOL    HW113690  14.805  11.665   2.419
 3931SOL    HW213691  14.829  11.579   2.297
 3932SOL     OW13692  14.715  13.995  11.749
 3932SOL    HW113693  14.742  13.909  11.717
 3932SOL    HW213694  14.736  14.055  11.677
 3933SOL     OW13695  12.993  12.623   1.028
 3933SOL    HW113696  12.996  12.542   1.079
 3933SOL    HW213697  12.946  12.684   1.084
 3934SOL     OW13698   4.104   2.859  14.825
 3934SOL    HW113699   4.014   2.884  14.846
 3934SOL    HW213700   4.111   2.871  14.731
 3935SOL     OW13701   4.426   4.095   8.506
 3935SOL    HW113702   4.359   4.163   8.504
 3935SOL    HW213703   4.412   4.051   8.590
 3936SOL     OW13704   2.637   3.938   0.100
 3936SOL    HW113705   2.694   3.900   0.033
 3936SOL    HW213706   2.669   3.903   0.183
 3937SOL     OW13707   6.798   4.128   6.087
 3937SOL    HW113708   6.888   4.158   6.075
 3937SOL    HW213709   6.774   4.157   6.175
 3938SOL     OW13710   7.125   5.389   5.524
 3938SOL    HW113711   7.100   5.299   5.546
 3938SOL    HW213712   7.216   5.396   5.551
 3939SOL     OW13713  14.685   0.897  10.621
 3939SOL    HW113714  14.730   0.968  10.576
 3939SOL    HW213715  14.730   0.818  10.593
 3940SOL     OW13716   0.001  12.831   6.916
 3940SOL    HW113717  14.843  12.910   6.869
 3940SOL    HW213718  14.802  12.767   6.897
 3941SOL     OW13719  12.771   3.317   5.119
 3941SOL    HW113720  12.820   3.327   5.200
 3941SOL    HW213721  12.837   3.297   5.053
 3942SOL     OW13722   6.377   9.401   9.895
 3942SOL    HW113723   6.459   9.377   9.939
 3942SOL    HW213724   6.348   9.320   9.853
 3943SOL     OW13725   5.413  12.028  12.604
 3943SOL    HW113726   5.406  11.932  12.602
 3943SOL    HW213727   5.364  12.054  12.682
 3944SOL     OW13728   0.699   7.525   3.496
 3944SOL    HW113729   0.649   7.445   3.477
 3944SOL    HW213730   0.714   7.564   3.410
 3945SOL     OW13731   4.381   1.127   7.164
 3945SOL    HW113732   4.346   1.150   7.078
 3945SOL    HW213733   4.312   1.075   7.205
 3946SOL     OW13734  12.296  13.413   4.185
 3946SOL    HW113735  12.257  13.369   4.261
 3946SOL    HW213736  12.229  13.475   4.156
 3947SOL     OW13737  12.071   3.831  13.924
 3947SOL    HW113738  12.085   3.924  13.905
 3947SOL    HW213739  12.064   3.789  13.839
 3948SOL     OW13740  14.658   0.020   6.632
 3948SOL    HW113741  14.677   0.090   6.570
 3948SOL    HW213742  14.563   0.013   6.632
 3949SOL     OW13743   6.813  13.939   6.828
 3949SOL    HW113744   6.863  14.014   6.795
 3949SOL    HW213745   6.880  13.875   6.853
 3950SOL     OW13746   7.273   7.174   7.657
 3950SOL    HW113747   7.288   7.137   7.744
 3950SOL    HW213748   7.323   7.255   7.656
 3951SOL     OW13749   5.379   5.672  14.301
 3951SOL    HW113750   5.442   5.738  14.270
 3951SOL    HW213751   5.378   5.683  14.396
 3952SOL     OW13752   5.690   6.235   9.450
 3952SOL    HW113753   5.687   6.267   9.540
 3952SOL    HW213754   5.635   6.157   9.450
 3953SOL     OW13755  14.480   9.066   9.539
 3953SOL    HW113756  14.532   8.989   9.564
 3953SOL    HW213757  14.392   9.031   9.525
 3954SOL     OW13758   4.527   4.900  10.144
 3954SOL    HW113759   4.580   4.837  10.192
 3954SOL    HW213760   4.473   4.943  10.211
 3955SOL     OW13761   3.640   9.966  12.959
 3955SOL    HW113762   3.659   9.873  12.948
 3955SOL    HW213763   3.718  10.002  13.001
 3956SOL     OW13764   2.156   0.942   2.582
 3956SOL    HW113765   2.223   0.949   2.514
 3956SOL    HW213766   2.183   0.866   2.634
 3957SOL     OW13767   7.599  10.371  14.642
 3957SOL    HW113768   7.595  10.451  14.589
 3957SOL    HW213769   7.637  10.305  14.584
 3958SOL     OW13770  14.550  14.713   0.690
 3958SOL    HW113771  14.491  14.687   0.761
 3958SOL    HW213772  14.623  14.651   0.697
 3959SOL     OW13773   8.747  14.454   4.731
 3959SOL    HW113774   8.702  14.480   4.651
 3959SOL    HW213775   8.742  14.359   4.733
 3960SOL     OW13776   0.561   5.406   0.104
 3960SOL    HW113777   0.489   5.344   0.092
 3960SOL    HW213778   0.640   5.353   0.096
 3961SOL     OW13779   2.942  11.264  10.887
 3961SOL    HW113780   3.032  11.296  10.877
 3961SOL    HW213781   2.917  11.289  10.976
 3962SOL     OW13782   2.532   4.309   3.607
 3962SOL    HW113783   2.513   4.341   3.695
 3962SOL    HW213784   2.580   4.381   3.566
 3963SOL     OW13785   1.161   9.950   7.292
 3963SOL    HW113786   1.186  10.042   7.297
 3963SOL    HW213787   1.192   9.922   7.206
 3964SOL     OW13788   0.192   7.985   6.687
 3964SOL    HW113789   0.211   8.002   6.595
 3964SOL    HW213790   0.251   8.043   6.735
 3965SOL     OW13791  12.408   9.474   3.335
 3965SOL    HW113792  12.372   9.393   3.370
 3965SOL    HW213793  12.496   9.451   3.305
 3966SOL     OW13794   4.931  12.039  11.138
 3966SOL    HW113795   4.875  11.999  11.205
 3966SOL    HW213796   4.997  12.087  11.187
 3967SOL     OW13797  13.931  13.202   6.875
 3967SOL    HW113798  13.968  13.115   6.890
 3967SOL    HW213799  13.847  13.202   6.922
 3968SOL     OW13800   1.667   0.097   2.023
 3968SOL    HW113801   1.754   0.057   2.016
 3968SOL    HW213802   1.684   0.182   2.064
 3969SOL     OW13803   0.618   3.494   9.228
 3969SOL    HW113804   0.564   3.573   9.237
 3969SOL    HW213805   0.690   3.507   9.290
 3970SOL     OW13806  12.550   9.878   3.762
 3970SOL    HW113807  12.544   9.836   3.848
 3970SOL    HW213808  12.564   9.806   3.701
 3971SOL     OW13809   4.611   5.777  12.442
 3971SOL    HW113810   4.575   5.691  12.420
 3971SOL    HW213811   4.705   5.767  12.433
 3972SOL     OW13812  13.248   5.573   8.230
 3972SOL    HW113813  13.208   5.532   8.307
 3972SOL    HW213814  13.245   5.505   8.162
 3973SOL     OW13815  13.685   5.533  13.832
 3973SOL    HW113816  13.744   5.592  13.786
 3973SOL    HW213817  13.699   5.550  13.925
 3974SOL     OW13818   7.176   8.308   1.805
 3974SOL    HW113819   7.244   8.242   1.820
 3974SOL    HW213820   7.107   8.287   1.868
 3975SOL     OW13821   1.934   2.440   8.708
 3975SOL    HW113822   1.986   2.362   8.728
 3975SOL    HW213823   1.863   2.439   8.772
 3976SOL     OW13824  13.916  11.643   5.951
 3976SOL    HW113825  13.890  11.619   6.040
 3976SOL    HW213826  13.867  11.723   5.933
 3977SOL     OW13827   9.352   2.990  14.383
 3977SOL    HW113828   9.330   2.917  14.325
 3977SOL    HW213829   9.268   3.016  14.422
 3978SOL     OW13830  12.521   3.587  13.979
 3978SOL    HW113831  12.592   3.646  13.953
 3978SOL    HW213832  12.563   3.522  14.035
 3979SOL     OW13833   1.827   9.293   8.247
 3979SOL    HW113834   1.883   9.240   8.303
 3979SOL    HW213835   1.738   9.276   8.278
 3980SOL     OW13836   8.125   3.207   9.335
 3980SOL    HW113837   8.038   3.247   9.324
 3980SOL    HW213838   8.157   3.194   9.246
 3981SOL     OW13839   6.658  10.832   2.405
 3981SOL    HW113840   6.680  10.764   2.341
 3981SOL    HW213841   6.581  10.875   2.368
 3982SOL     OW13842   2.772   6.744  12.545
 3982SOL    HW113843   2.813   6.715  12.627
 3982SOL    HW213844   2.847   6.764  12.488
 3983SOL     OW13845   0.581   6.190   7.356
 3983SOL    HW113846   0.616   6.203   7.268
 3983SOL    HW213847   0.559   6.278   7.386
 3984SOL     OW13848   2.086   0.550   5.653
 3984SOL    HW113849   2.023   0.481   5.672
 3984SOL    HW213850   2.045   0.602   5.585
 3985SOL     OW13851   6.358  10.659   1.558
 3985SOL    HW113852   6.378  10.664   1.465
 3985SOL    HW213853   6.414  10.588   1.590
 3986SOL     OW13854  12.800   9.387  11.915
 3986SOL    HW113855  12.733   9.451  11.940
 3986SOL    HW213856  12.821   9.408  11.825
 3987SOL     OW13857   4.278   4.067   7.347
 3987SOL    HW113858   4.281   4.086   7.253
 3987SOL    HW213859   4.260   4.152   7.388
 3988SOL     OW13860   7.746   0.401  14.026
 3988SOL    HW113861   7.732   0.344  14.101
 3988SOL    HW213862   7.681   0.471  14.035
 3989SOL     OW13863  10.470   8.398   4.591
 3989SOL    HW113864  10.448   8.481   4.549
 3989SOL    HW213865  10.502   8.423   4.678
 3990SOL     OW13866   6.212  11.892  12.312
 3990SOL    HW113867   6.254  11.972  12.280
 3990SOL    HW213868   6.120  11.900  12.287
 3991SOL     OW13869   4.834   9.407   8.639
 3991SOL    HW113870   4.859   9.444   8.724
 3991SOL    HW213871   4.758   9.352   8.658
 3992SOL     OW13872   0.999  11.606   3.057
 3992SOL    HW113873   0.945  11.681   3.030
 3992SOL    HW213874   0.946  11.529   3.038
 3993SOL     OW13875   0.411  12.554  14.135
 3993SOL    HW113876   0.398  12.645  14.162
 3993SOL    HW213877   0.324  12.521  14.114
 3994SOL     OW13878  13.544   4.954  11.749
 3994SOL    HW113879  13.494   4.874  11.736
 3994SOL    HW213880  13.477   5.023  11.757
 3995SOL     OW13881   5.148   1.553   2.781
 3995SOL    HW113882   5.175   1.474   2.829
 3995SOL    HW213883   5.217   1.566   2.716
 3996SOL     OW13884   4.022   1.273  10.822
 3996SOL    HW113885   4.035   1.213  10.895
 3996SOL    HW213886   4.070   1.352  10.848
 3997SOL     OW13887   9.673  14.161   3.096
 3997SOL    HW113888   9.682  14.139   3.003
 3997SOL    HW213889   9.692  14.078   3.141
 3998SOL     OW13890  12.784   9.924   2.539
 3998SOL    HW113891  12.848   9.901   2.607
 3998SOL    HW213892  12.803  10.016   2.519
 3999SOL     OW13893   2.486   4.131   2.584
 3999SOL    HW113894   2.438   4.181   2.650
 3999SOL    HW213895   2.536   4.066   2.634
 4000SOL     OW13896  13.675   1.880   7.412
 4000SOL    HW113897  13.614   1.885   7.486
 4000SOL    HW213898  13.760   1.902   7.449
 4001SOL     OW13899  12.126   9.893   4.026
 4001SOL    HW113900  12.071   9.852   3.959
 4001SOL    HW213901  12.132   9.828   4.095
 4002SOL     OW13902   1.782  10.057   1.019
 4002SOL    HW113903   1.753  10.108   0.943
 4002SOL    HW213904   1.705  10.004   1.042
 4003SOL     OW13905  13.638   5.114  13.427
 4003SOL    HW113906  13.556   5.115  13.477
 4003SOL    HW213907  13.696   5.174  13.475
 4004SOL     OW13908   6.952   2.292   3.899
 4004SOL    HW113909   6.904   2.329   3.973
 4004SOL    HW213910   7.039   2.273   3.935
 4005SOL     OW13911   7.377   5.455   3.468
 4005SOL    HW113912   7.391   5.541   3.428
 4005SOL    HW213913   7.323   5.474   3.545
 4006SOL     OW13914   7.268   0.739   5.562
 4006SOL    HW113915   7.174   0.740   5.546
 4006SOL    HW213916   7.287   0.650   5.591
 4007SOL     OW13917  12.619  11.144   4.480
 4007SOL    HW113918  12.676  11.081   4.523
 4007SOL    HW213919  12.638  11.134   4.387
 4008SOL     OW13920   6.229   4.183  12.862
 4008SOL    HW113921   6.265   4.138  12.938
 4008SOL    HW213922   6.273   4.268  12.861
 4009SOL     OW13923   7.512   3.416   4.755
 4009SOL    HW113924   7.527   3.332   4.799
 4009SOL    HW213925   7.419   3.433   4.768
 4010SOL     OW13926   4.672  14.633  11.156
 4010SOL    HW113927   4.654  14.558  11.099
 4010SOL    HW213928   4.768  14.632  11.167
 4011SOL     OW13929  12.686  14.555   1.417
 4011SOL    HW113930  12.640  14.538   1.499
 4011SOL    HW213931  12.755  14.489   1.413
 4012SOL     OW13932   6.785   6.091   5.814
 4012SOL    HW113933   6.705   6.110   5.765
 4012SOL    HW213934   6.838   6.038   5.753
 4013SOL     OW13935  11.627   0.331   0.929
 4013SOL    HW113936  11.665   0.361   0.846
 4013SOL    HW213937  11.656   0.241   0.938
 4014SOL     OW13938   1.455   3.882  12.306
 4014SOL    HW113939   1.378   3.906  12.356
 4014SOL    HW213940   1.494   3.810  12.354
 4015SOL     OW13941   5.481   5.794  13.611
 4015SOL    HW113942   5.429   5.813  13.689
 4015SOL    HW213943   5.475   5.874  13.558
 4016SOL     OW13944  13.902   6.172   0.510
 4016SOL    HW113945  13.869   6.183   0.421
 4016SOL    HW213946  13.981   6.226   0.513
 4017SOL     OW13947   2.915   4.859  12.926
 4017SOL    HW113948   2.939   4.870  12.834
 4017SOL    HW213949   2.996   4.829  12.968
 4018SOL     OW13950  11.228  11.290   3.784
 4018SOL    HW113951  11.273  11.288   3.700
 4018SOL    HW213952  11.189  11.377   3.788
 4019SOL     OW13953   9.733   1.470   6.686
 4019SOL    HW113954   9.705   1.560   6.703
 4019SOL    HW213955   9.829   1.473   6.687
 4020SOL     OW13956   3.714  12.476  12.258
 4020SOL    HW113957   3.771  12.406  12.289
 4020SOL    HW213958   3.722  12.473  12.162
 4021SOL     OW13959   2.290  10.890  12.462
 4021SOL    HW113960   2.287  10.985  12.451
 4021SOL    HW213961   2.219  10.870  12.524
 4022SOL     OW13962   9.527  14.852   8.922
 4022SOL    HW113963   9.469   0.059   8.932
 4022SOL    HW213964   9.558  14.834   9.010
 4023SOL     OW13965  10.360  12.119   7.919
 4023SOL    HW113966  10.319  12.129   8.005
 4023SOL    HW213967  10.454  12.116   7.938
 4024SOL     OW13968   5.372  11.676   1.991
 4024SOL    HW113969   5.367  11.639   1.903
 4024SOL    HW213970   5.292  11.646   2.035
 4025SOL     OW13971   4.102   4.060   8.380
 4025SOL    HW113972   4.017   4.055   8.424
 4025SOL    HW213973   4.162   4.013   8.438
 4026SOL     OW13974   8.872   3.021   7.134
 4026SOL    HW113975   8.916   3.068   7.204
 4026SOL    HW213976   8.786   3.062   7.127
 4027SOL     OW13977  13.681  10.775   9.953
 4027SOL    HW113978  13.759  10.755  10.005
 4027SOL    HW213979  13.621  10.704   9.972
 4028SOL     OW13980  10.569  14.861   1.977
 4028SOL    HW113981  10.590  14.861   2.070
 4028SOL    HW213982  10.536   0.080   1.959
 4029SOL     OW13983   3.922   1.454   9.869
 4029SOL    HW113984   3.941   1.512   9.943
 4029SOL    HW213985   3.904   1.369   9.909
 4030SOL     OW13986  11.924  10.518   5.532
 4030SOL    HW113987  11.847  10.479   5.490
 4030SOL    HW213988  11.976  10.443   5.560
 4031SOL     OW13989  12.580   1.603  10.930
 4031SOL    HW113990  12.659   1.643  10.966
 4031SOL    HW213991  12.572   1.518  10.974
 4032SOL     OW13992   3.975   8.571   0.113
 4032SOL    HW113993   4.057   8.555   0.067
 4032SOL    HW213994   4.001   8.578   0.205
 4033SOL     OW13995   9.707  14.861   9.130
 4033SOL    HW113996   9.751   0.076   9.115
 4033SOL    HW213997   9.652   0.007   9.207
 4034SOL     OW13998   0.210  11.664  13.397
 4034SOL    HW113999   0.232  11.700  13.483
 4034SOL    HW214000   0.275  11.702  13.337
 4035SOL     OW14001  14.538   7.069   3.598
 4035SOL    HW114002  14.576   7.145   3.553
 4035SOL    HW214003  14.596   6.996   3.574
 4036SOL     OW14004   8.975   7.855   6.674
 4036SOL    HW114005   8.901   7.795   6.681
 4036SOL    HW214006   8.943   7.927   6.619
 4037SOL     OW14007   7.313   0.078   1.427
 4037SOL    HW114008   7.264   0.147   1.473
 4037SOL    HW214009   7.307   0.101   1.335
 4038SOL     OW14010   4.540  12.486   4.781
 4038SOL    HW114011   4.528  12.391   4.769
 4038SOL    HW214012   4.635  12.496   4.791
 4039SOL     OW14013   0.043   4.518   2.884
 4039SOL    HW114014  14.828   4.540   2.845
 4039SOL    HW214015   0.028   4.436   2.931
 4040SOL     OW14016   3.969   3.760  10.077
 4040SOL    HW114017   3.948   3.820  10.148
 4040SOL    HW214018   3.885   3.726  10.048
 4041SOL     OW14019  12.797   3.305   1.959
 4041SOL    HW114020  12.792   3.349   1.874
 4041SOL    HW214021  12.798   3.212   1.938
 4042SOL     OW14022  13.406   1.337   2.707
 4042SOL    HW114023  13.318   1.298   2.708
 4042SOL    HW214024  13.449   1.298   2.630
 4043SOL     OW14025  10.227   0.407   7.326
 4043SOL    HW114026  10.252   0.469   7.395
 4043SOL    HW214027  10.138   0.380   7.349
 4044SOL     OW14028   3.783   2.780  10.071
 4044SOL    HW114029   3.859   2.722  10.075
 4044SOL    HW214030   3.769   2.796   9.978
 4045SOL     OW14031   1.921  11.453   7.492
 4045SOL    HW114032   1.861  11.406   7.435
 4045SOL    HW214033   1.999  11.468   7.438
 4046SOL     OW14034   9.152   0.269   8.361
 4046SOL    HW114035   9.139   0.174   8.360
 4046SOL    HW214036   9.186   0.290   8.275
 4047SOL     OW14037   2.518  14.844  11.791
 4047SOL    HW114038   2.603  14.831  11.834
 4047SOL    HW214039   2.462   0.011  11.860
 4048SOL     OW14040  14.259   0.182   5.540
 4048SOL    HW114041  14.190   0.149   5.482
 4048SOL    HW214042  14.339   0.174   5.489
 4049SOL     OW14043  13.976   5.401   2.701
 4049SOL    HW114044  13.939   5.338   2.640
 4049SOL    HW214045  13.901   5.434   2.750
 4050SOL     OW14046   4.808   8.207   8.245
 4050SOL    HW114047   4.834   8.299   8.247
 4050SOL    HW214048   4.772   8.190   8.332
 4051SOL     OW14049   7.870  11.902   4.397
 4051SOL    HW114050   7.888  11.996   4.396
 4051SOL    HW214051   7.884  11.874   4.306
 4052SOL     OW14052   5.704   9.804   7.701
 4052SOL    HW114053   5.619   9.761   7.692
 4052SOL    HW214054   5.689   9.873   7.766
 4053SOL     OW14055   4.153   6.919   2.213
 4053SOL    HW114056   4.214   6.876   2.274
 4053SOL    HW214057   4.067   6.890   2.244
 4054SOL     OW14058  13.828   8.839   5.806
 4054SOL    HW114059  13.919   8.850   5.778
 4054SOL    HW214060  13.778   8.827   5.725
 4055SOL     OW14061   2.792  10.968   0.801
 4055SOL    HW114062   2.844  10.983   0.880
 4055SOL    HW214063   2.814  10.878   0.775
 4056SOL     OW14064   9.343   6.525   8.438
 4056SOL    HW114065   9.353   6.543   8.531
 4056SOL    HW214066   9.378   6.603   8.395
 4057SOL     OW14067  12.857   6.307   0.032
 4057SOL    HW114068  12.803   6.335   0.106
 4057SOL    HW214069  12.930   6.369   0.031
 4058SOL     OW14070   1.207   3.849   5.375
 4058SOL    HW114071   1.140   3.915   5.359
 4058SOL    HW214072   1.165   3.786   5.434
 4059SOL     OW14073   0.424  11.969  11.749
 4059SOL    HW114074   0.457  11.880  11.743
 4059SOL    HW214075   0.329  11.960  11.742
 4060SOL     OW14076   9.136   0.337   2.145
 4060SOL    HW114077   9.229   0.344   2.124
 4060SOL    HW214078   9.131   0.269   2.212
 4061SOL     OW14079  12.836   3.688   1.484
 4061SOL    HW114080  12.819   3.774   1.521
 4061SOL    HW214081  12.861   3.634   1.559
 4062SOL     OW14082  10.227  14.367   8.655
 4062SOL    HW114083  10.288  14.306   8.698
 4062SOL    HW214084  10.283  14.426   8.605
 4063SOL     OW14085   8.506   9.298   1.607
 4063SOL    HW114086   8.568   9.369   1.588
 4063SOL    HW214087   8.555   9.238   1.664
 4064SOL     OW14088   8.590   8.496   5.886
 4064SOL    HW114089   8.561   8.533   5.803
 4064SOL    HW214090   8.587   8.401   5.873
 4065SOL     OW14091  12.366   0.469   9.426
 4065SOL    HW114092  12.416   0.524   9.366
 4065SOL    HW214093  12.399   0.380   9.412
 4066SOL     OW14094   3.333  14.511   6.194
 4066SOL    HW114095   3.408  14.457   6.169
 4066SOL    HW214096   3.260  14.450   6.203
 4067SOL     OW14097   1.061   3.311   5.112
 4067SOL    HW114098   1.133   3.252   5.134
 4067SOL    HW214099   1.065   3.378   5.180
 4068SOL     OW14100   7.057  12.746  13.103
 4068SOL    HW114101   7.061  12.656  13.136
 4068SOL    HW214102   7.128  12.791  13.149
 4069SOL     OW14103  10.253  12.669   3.767
 4069SOL    HW114104  10.269  12.682   3.860
 4069SOL    HW214105  10.291  12.583   3.748
 4070SOL     OW14106   2.413   6.481   1.733
 4070SOL    HW114107   2.432   6.502   1.825
 4070SOL    HW214108   2.473   6.410   1.712
 4071SOL     OW14109  14.550  11.877   6.474
 4071SOL    HW114110  14.556  11.868   6.569
 4071SOL    HW214111  14.617  11.942   6.451
 4072SOL     OW14112   5.731   2.616  13.298
 4072SOL    HW114113   5.765   2.528  13.314
 4072SOL    HW214114   5.796   2.674  13.338
 4073SOL     OW14115   8.227   6.961   5.300
 4073SOL    HW114116   8.280   6.939   5.223
 4073SOL    HW214117   8.198   6.877   5.335
 4074SOL     OW14118   6.982   0.269  12.825
 4074SOL    HW114119   7.034   0.188  12.829
 4074SOL    HW214120   6.926   0.266  12.902
 4075SOL     OW14121   2.618   7.401  14.126
 4075SOL    HW114122   2.566   7.373  14.050
 4075SOL    HW214123   2.567   7.471  14.166
 4076SOL     OW14124   4.748   9.097   6.979
 4076SOL    HW114125   4.694   9.027   7.017
 4076SOL    HW214126   4.691   9.138   6.914
 4077SOL     OW14127   3.808  14.670   3.881
 4077SOL    HW114128   3.855  14.588   3.896
 4077SOL    HW214129   3.876  14.738   3.884
 4078SOL     OW14130   2.945   5.808   2.929
 4078SOL    HW114131   2.914   5.859   3.004
 4078SOL    HW214132   2.911   5.720   2.944
 4079SOL     OW14133   0.680   7.335  12.799
 4079SOL    HW114134   0.698   7.418  12.755
 4079SOL    HW214135   0.752   7.325  12.862
 4080SOL     OW14136  11.399  10.657  13.887
 4080SOL    HW114137  11.316  10.616  13.910
 4080SOL    HW214138  11.442  10.593  13.829
 4081SOL     OW14139   2.232  13.297   7.126
 4081SOL    HW114140   2.152  13.333   7.164
 4081SOL    HW214141   2.212  13.289   7.032
 4082SOL     OW14142   4.971   1.995  11.172
 4082SOL    HW114143   4.987   2.074  11.121
 4082SOL    HW214144   4.928   2.026  11.252
 4083SOL     OW14145   8.657   9.419   0.120
 4083SOL    HW114146   8.732   9.381   0.166
 4083SOL    HW214147   8.673   9.401   0.028
 4084SOL     OW14148   3.373   5.755  13.598
 4084SOL    HW114149   3.297   5.696  13.594
 4084SOL    HW214150   3.410   5.741  13.685
 4085SOL     OW14151   3.939  13.205  14.661
 4085SOL    HW114152   3.852  13.231  14.630
 4085SOL    HW214153   3.936  13.109  14.664
 4086SOL     OW14154   1.728   5.323  11.051
 4086SOL    HW114155   1.637   5.314  11.024
 4086SOL    HW214156   1.776   5.260  10.997
 4087SOL     OW14157  13.764   5.898   5.638
 4087SOL    HW114158  13.834   5.846   5.677
 4087SOL    HW214159  13.693   5.836   5.623
 4088SOL     OW14160  10.451  11.808   4.077
 4088SOL    HW114161  10.481  11.759   4.154
 4088SOL    HW214162  10.434  11.741   4.011
 4089SOL     OW14163  12.912   4.320  12.022
 4089SOL    HW114164  12.918   4.292  11.931
 4089SOL    HW214165  13.002   4.320  12.053
 4090SOL     OW14166   7.227   0.405   2.266
 4090SOL    HW114167   7.140   0.425   2.301
 4090SOL    HW214168   7.220   0.314   2.236
 4091SOL     OW14169   5.949   7.340  13.927
 4091SOL    HW114170   5.919   7.414  13.874
 4091SOL    HW214171   5.972   7.272  13.864
 4092SOL     OW14172   8.511   8.737   3.392
 4092SOL    HW114173   8.549   8.815   3.432
 4092SOL    HW214174   8.523   8.749   3.298
 4093SOL     OW14175  11.996   6.803  13.004
 4093SOL    HW114176  12.079   6.844  12.983
 4093SOL    HW214177  11.931   6.856  12.958
 4094SOL     OW14178  14.285  13.490  13.300
 4094SOL    HW114179  14.243  13.513  13.383
 4094SOL    HW214180  14.296  13.395  13.305
 4095SOL     OW14181   3.517  11.469  13.423
 4095SOL    HW114182   3.434  11.514  13.439
 4095SOL    HW214183   3.495  11.400  13.360
 4096SOL     OW14184  10.389   5.629   2.540
 4096SOL    HW114185  10.322   5.695   2.555
 4096SOL    HW214186  10.378   5.567   2.612
 4097SOL     OW14187  11.018  13.112  10.788
 4097SOL    HW114188  11.086  13.172  10.817
 4097SOL    HW214189  11.021  13.116  10.693
 4098SOL     OW14190   0.389  14.354  10.778
 4098SOL    HW114191   0.394  14.282  10.842
 4098SOL    HW214192   0.475  14.395  10.781
 4099SOL     OW14193  13.516   5.395   8.073
 4099SOL    HW114194  13.448   5.331   8.052
 4099SOL    HW214195  13.547   5.370   8.160
 4100SOL     OW14196  10.392   5.285  11.089
 4100SOL    HW114197  10.322   5.274  11.024
 4100SOL    HW214198  10.395   5.380  11.105
 4101SOL     OW14199  11.995  10.381   0.544
 4101SOL    HW114200  11.999  10.417   0.633
 4101SOL    HW214201  11.925  10.315   0.548
 4102SOL     OW14202   0.877   2.012  12.072
 4102SOL    HW114203   0.952   2.056  12.033
 4102SOL    HW214204   0.821   1.989  11.998
 4103SOL     OW14205  12.401   4.610   1.389
 4103SOL    HW114206  12.425   4.636   1.478
 4103SOL    HW214207  12.326   4.552   1.400
 4104SOL     OW14208  13.264   6.906  12.467
 4104SOL    HW114209  13.245   6.999  12.478
 4104SOL    HW214210  13.181   6.867  12.439
 4105SOL     OW14211   9.097  11.703  13.127
 4105SOL    HW114212   9.022  11.646  13.139
 4105SOL    HW214213   9.107  11.711  13.032
 4106SOL     OW14214  14.428  12.202  10.581
 4106SOL    HW114215  14.483  12.181  10.505
 4106SOL    HW214216  14.393  12.118  10.610
 4107SOL     OW14217   6.117   8.807   9.764
 4107SOL    HW114218   6.113   8.742   9.834
 4107SOL    HW214219   6.209   8.834   9.761
 4108SOL     OW14220   2.362  11.067  14.145
 4108SOL    HW114221   2.373  11.117  14.226
 4108SOL    HW214222   2.438  11.010  14.141
 4109SOL     OW14223   3.570   9.197   5.172
 4109SOL    HW114224   3.478   9.222   5.178
 4109SOL    HW214225   3.598   9.230   5.087
 4110SOL     OW14226  11.029   9.938   3.935
 4110SOL    HW114227  11.065   9.889   3.862
 4110SOL    HW214228  10.934   9.932   3.924
 4111SOL     OW14229   6.037   3.063   0.396
 4111SOL    HW114230   6.042   3.159   0.396
 4111SOL    HW214231   5.989   3.042   0.316
 4112SOL     OW14232   6.391   7.901   5.622
 4112SOL    HW114233   6.428   7.935   5.704
 4112SOL    HW214234   6.416   7.808   5.622
 4113SOL     OW14235  10.576  12.273   7.740
 4113SOL    HW114236  10.578  12.255   7.834
 4113SOL    HW214237  10.514  12.209   7.705
 4114SOL     OW14238   5.808   7.543  12.291
 4114SOL    HW114239   5.766   7.536  12.377
 4114SOL    HW214240   5.901   7.554  12.310
 4115SOL     OW14241  12.686   0.025   9.013
 4115SOL    HW114242  12.633  14.855   9.082
 4115SOL    HW214243  12.656  14.854   8.932
 4116SOL     OW14244  13.301  13.970   4.232
 4116SOL    HW114245  13.386  14.005   4.207
 4116SOL    HW214246  13.318  13.915   4.308
 4117SOL     OW14247  13.501  13.562   5.820
 4117SOL    HW114248  13.504  13.658   5.820
 4117SOL    HW214249  13.453  13.540   5.900
 4118SOL     OW14250   9.326  10.305  10.186
 4118SOL    HW114251   9.294  10.320  10.097
 4118SOL    HW214252   9.334  10.393  10.223
 4119SOL     OW14253   3.301   1.575   3.963
 4119SOL    HW114254   3.371   1.530   3.916
 4119SOL    HW214255   3.222   1.556   3.912
 4120SOL     OW14256  10.207   8.091   5.194
 4120SOL    HW114257  10.298   8.094   5.224
 4120SOL    HW214258  10.195   8.171   5.143
 4121SOL     OW14259   1.089   1.923  10.440
 4121SOL    HW114260   1.129   1.842  10.408
 4121SOL    HW214261   1.158   1.989  10.433
 4122SOL     OW14262   2.097   4.673   3.807
 4122SOL    HW114263   2.034   4.741   3.831
 4122SOL    HW214264   2.181   4.719   3.805
 4123SOL     OW14265   3.296   0.420  12.250
 4123SOL    HW114266   3.319   0.510  12.273
 4123SOL    HW214267   3.224   0.429  12.188
 4124SOL     OW14268  13.995   9.134   0.060
 4124SOL    HW114269  14.055   9.086   0.003
 4124SOL    HW214270  14.052   9.189   0.114
 4125SOL     OW14271   0.972   8.064   1.960
 4125SOL    HW114272   0.940   8.078   2.049
 4125SOL    HW214273   0.948   8.145   1.913
 4126SOL     OW14274   6.789   1.244  11.163
 4126SOL    HW114275   6.752   1.180  11.101
 4126SOL    HW214276   6.713   1.291  11.197
 4127SOL     OW14277  10.920   6.995   0.454
 4127SOL    HW114278  10.952   7.065   0.511
 4127SOL    HW214279  10.942   6.914   0.500
 4128SOL     OW14280   1.515  12.484   6.877
 4128SOL    HW114281   1.549  12.396   6.892
 4128SOL    HW214282   1.548  12.535   6.951
 4129SOL     OW14283   8.402  14.521  12.743
 4129SOL    HW114284   8.408  14.497  12.836
 4129SOL    HW214285   8.313  14.496  12.717
 4130SOL     OW14286  12.470   5.279  10.976
 4130SOL    HW114287  12.505   5.219  10.910
 4130SOL    HW214288  12.495   5.366  10.945
 4131SOL     OW14289   1.067   6.327  14.696
 4131SOL    HW114290   1.029   6.318  14.608
 4131SOL    HW214291   1.138   6.390  14.685
 4132SOL     OW14292  13.784   4.668   3.163
 4132SOL    HW114293  13.814   4.579   3.144
 4132SOL    HW214294  13.791   4.676   3.258
 4133SOL     OW14295   9.118  11.590   3.346
 4133SOL    HW114296   9.188  11.650   3.320
 4133SOL    HW214297   9.088  11.551   3.264
 4134SOL     OW14298   4.358   2.862   5.813
 4134SOL    HW114299   4.301   2.795   5.850
 4134SOL    HW214300   4.300   2.918   5.761
 4135SOL     OW14301  12.326   9.428   8.127
 4135SOL    HW114302  12.344   9.381   8.208
 4135SOL    HW214303  12.284   9.510   8.156
 4136SOL     OW14304   7.699   6.526  11.231
 4136SOL    HW114305   7.674   6.473  11.306
 4136SOL    HW214306   7.646   6.492  11.159
 4137SOL     OW14307  10.598  10.280   0.545
 4137SOL    HW114308  10.588  10.288   0.451
 4137SOL    HW214309  10.692  10.274   0.559
 4138SOL     OW14310  10.257   9.931  14.738
 4138SOL    HW114311  10.167   9.959  14.721
 4138SOL    HW214312  10.252   9.884  14.821
 4139SOL     OW14313   9.563  14.842  13.801
 4139SOL    HW114314   9.489   0.022  13.768
 4139SOL    HW214315   9.636  14.865  13.743
 4140SOL     OW14316  14.083  10.640   2.382
 4140SOL    HW114317  14.158  10.648   2.322
 4140SOL    HW214318  14.010  10.618   2.325
 4141SOL     OW14319   8.109   7.959   9.433
 4141SOL    HW114320   8.063   8.030   9.388
 4141SOL    HW214321   8.040   7.911   9.479
 4142SOL     OW14322  13.782   1.721  11.834
 4142SOL    HW114323  13.722   1.653  11.804
 4142SOL    HW214324  13.801   1.697  11.925
 4143SOL     OW14325   2.061  14.594  10.539
 4143SOL    HW114326   2.094  14.669  10.588
 4143SOL    HW214327   2.015  14.541  10.603
 4144SOL     OW14328  14.381   9.028  12.211
 4144SOL    HW114329  14.441   8.956  12.229
 4144SOL    HW214330  14.307   8.987  12.167
 4145SOL     OW14331  12.665   2.311   1.550
 4145SOL    HW114332  12.572   2.290   1.558
 4145SOL    HW214333  12.672   2.404   1.572
 4146SOL     OW14334   3.477   1.203   3.737
 4146SOL    HW114335   3.455   1.221   3.646
 4146SOL    HW214336   3.544   1.134   3.732
 4147SOL     OW14337   3.095   7.538  14.796
 4147SOL    HW114338   3.005   7.524  14.769
 4147SOL    HW214339   3.126   7.452  14.824
 4148SOL     OW14340   6.459   7.954   2.094
 4148SOL    HW114341   6.434   7.898   2.167
 4148SOL    HW214342   6.550   7.978   2.113
 4149SOL     OW14343   9.953  14.347   9.376
 4149SOL    HW114344  10.037  14.302   9.379
 4149SOL    HW214345   9.975  14.438   9.355
 4150SOL     OW14346   8.757   1.278   0.806
 4150SOL    HW114347   8.734   1.192   0.771
 4150SOL    HW214348   8.674   1.318   0.828
 4151SOL     OW14349  13.268  10.476   4.019
 4151SOL    HW114350  13.300  10.450   3.933
 4151SOL    HW214351  13.191  10.529   4.001
 4152SOL     OW14352   4.154   5.868   1.397
 4152SOL    HW114353   4.078   5.845   1.451
 4152SOL    HW214354   4.116   5.912   1.321
 4153SOL     OW14355  10.096   7.597  11.333
 4153SOL    HW114356  10.178   7.616  11.379
 4153SOL    HW214357  10.107   7.508  11.300
 4154SOL     OW14358   8.824   9.998  10.262
 4154SOL    HW114359   8.896  10.060  10.272
 4154SOL    HW214360   8.856   9.934  10.199
 4155SOL     OW14361   4.295   0.307   5.594
 4155SOL    HW114362   4.368   0.367   5.605
 4155SOL    HW214363   4.234   0.352   5.536
 4156SOL     OW14364  11.018   9.390   0.691
 4156SOL    HW114365  11.101   9.404   0.647
 4156SOL    HW214366  11.040   9.345   0.772
 4157SOL     OW14367   1.228  13.698   1.149
 4157SOL    HW114368   1.236  13.679   1.242
 4157SOL    HW214369   1.223  13.611   1.107
 4158SOL     OW14370  14.570  13.134  11.414
 4158SOL    HW114371  14.517  13.209  11.386
 4158SOL    HW214372  14.655  13.172  11.437
 4159SOL     OW14373  11.689   9.461   7.515
 4159SOL    HW114374  11.638   9.397   7.464
 4159SOL    HW214375  11.708   9.416   7.597
 4160SOL     OW14376   9.074   8.339   1.804
 4160SOL    HW114377   9.090   8.433   1.793
 4160SOL    HW214378   9.159   8.304   1.831
 4161SOL     OW14379   6.436   1.636   3.109
 4161SOL    HW114380   6.371   1.590   3.163
 4161SOL    HW214381   6.513   1.644   3.165
 4162SOL     OW14382   8.178   6.333  10.011
 4162SOL    HW114383   8.141   6.372   9.932
 4162SOL    HW214384   8.229   6.404  10.051
 4163SOL     OW14385   2.502   9.045  11.804
 4163SOL    HW114386   2.469   8.971  11.753
 4163SOL    HW214387   2.539   9.104  11.739
 4164SOL     OW14388   9.417  12.184   2.546
 4164SOL    HW114389   9.493  12.147   2.502
 4164SOL    HW214390   9.451  12.216   2.630
 4165SOL     OW14391   2.056  10.305  14.743
 4165SOL    HW114392   2.146  10.275  14.732
 4165SOL    HW214393   2.003  10.226  14.733
 4166SOL     OW14394   6.250   9.423   3.026
 4166SOL    HW114395   6.168   9.473   3.029
 4166SOL    HW214396   6.313   9.481   2.984
 4167SOL     OW14397   9.066  10.972   6.027
 4167SOL    HW114398   9.077  10.965   5.932
 4167SOL    HW214399   8.986  10.922   6.045
 4168SOL     OW14400   4.552  13.155  14.716
 4168SOL    HW114401   4.640  13.126  14.742
 4168SOL    HW214402   4.494  13.087  14.752
 4169SOL     OW14403   8.301  10.048  14.019
 4169SOL    HW114404   8.368  10.034  14.087
 4169SOL    HW214405   8.218  10.030  14.063
 4170SOL     OW14406   7.004  10.515  13.751
 4170SOL    HW114407   7.046  10.601  13.747
 4170SOL    HW214408   6.997  10.486  13.660
 4171SOL     OW14409  13.228  10.544  14.708
 4171SOL    HW114410  13.224  10.581  14.796
 4171SOL    HW214411  13.287  10.601  14.660
 4172SOL     OW14412   9.557   1.888  10.164
 4172SOL    HW114413   9.528   1.859  10.251
 4172SOL    HW214414   9.559   1.808  10.112
 4173SOL     OW14415  10.746  14.007   4.677
 4173SOL    HW114416  10.665  14.022   4.726
 4173SOL    HW214417  10.738  13.917   4.645
 4174SOL     OW14418  14.466   7.205   5.215
 4174SOL    HW114419  14.418   7.157   5.282
 4174SOL    HW214420  14.537   7.248   5.263
 4175SOL     OW14421   4.666  14.500   3.375
 4175SOL    HW114422   4.658  14.538   3.287
 4175SOL    HW214423   4.734  14.433   3.365
 4176SOL     OW14424   8.552   5.739   0.478
 4176SOL    HW114425   8.619   5.738   0.547
 4176SOL    HW214426   8.492   5.809   0.503
 4177SOL     OW14427  12.661   5.245   8.799
 4177SOL    HW114428  12.612   5.327   8.802
 4177SOL    HW214429  12.656   5.217   8.707
 4178SOL     OW14430   7.700  13.083  11.447
 4178SOL    HW114431   7.649  13.019  11.497
 4178SOL    HW214432   7.640  13.157  11.436
 4179SOL     OW14433   4.127   2.428   8.722
 4179SOL    HW114434   4.053   2.422   8.782
 4179SOL    HW214435   4.195   2.472   8.772
 4180SOL     OW14436  14.009   7.751   9.513
 4180SOL    HW114437  14.087   7.711   9.474
 4180SOL    HW214438  13.954   7.677   9.539
 4181SOL     OW14439  14.531   9.366   9.477
 4181SOL    HW114440  14.562   9.359   9.387
 4181SOL    HW214441  14.476   9.289   9.489
 4182SOL     OW14442   2.096   7.739   7.754
 4182SOL    HW114443   2.040   7.803   7.712
 4182SOL    HW214444   2.069   7.739   7.846
 4183SOL     OW14445   6.232   9.578  10.550
 4183SOL    HW114446   6.321   9.562  10.519
 4183SOL    HW214447   6.211   9.666  10.519
 4184SOL     OW14448   9.035  13.450   4.642
 4184SOL    HW114449   8.952  13.420   4.680
 4184SOL    HW214450   9.102  13.396   4.684
 4185SOL     OW14451  13.637   7.952   4.684
 4185SOL    HW114452  13.710   7.961   4.745
 4185SOL    HW214453  13.571   8.013   4.717
 4186SOL     OW14454   8.860  10.238   5.093
 4186SOL    HW114455   8.931  10.220   5.031
 4186SOL    HW214456   8.815  10.154   5.101
 4187SOL     OW14457   8.817  14.816   0.346
 4187SOL    HW114458   8.741  14.791   0.398
 4187SOL    HW214459   8.851   0.025   0.390
 4188SOL     OW14460   4.658  10.010   1.198
 4188SOL    HW114461   4.600  10.075   1.160
 4188SOL    HW214462   4.657   9.937   1.135
 4189SOL     OW14463   5.199   1.141   4.068
 4189SOL    HW114464   5.119   1.195   4.073
 4189SOL    HW214465   5.240   1.166   3.986
 4190SOL     OW14466  14.292   0.858   3.028
 4190SOL    HW114467  14.373   0.861   3.080
 4190SOL    HW214468  14.321   0.839   2.939
 4191SOL     OW14469   9.186  13.623  12.842
 4191SOL    HW114470   9.164  13.623  12.749
 4191SOL    HW214471   9.218  13.712  12.859
 4192SOL     OW14472   4.103   8.642   7.672
 4192SOL    HW114473   4.115   8.550   7.695
 4192SOL    HW214474   4.171   8.688   7.721
 4193SOL     OW14475  14.697   6.004   3.655
 4193SOL    HW114476  14.716   5.915   3.625
 4193SOL    HW214477  14.747   6.013   3.736
 4194SOL     OW14478  13.705   9.678   9.951
 4194SOL    HW114479  13.706   9.666   9.856
 4194SOL    HW214480  13.774   9.742   9.968
 4195SOL     OW14481   9.240  14.523   6.006
 4195SOL    HW114482   9.314  14.467   6.030
 4195SOL    HW214483   9.162  14.470   6.024
 4196SOL     OW14484  11.580  13.666  10.395
 4196SOL    HW114485  11.514  13.723  10.435
 4196SOL    HW214486  11.529  13.601  10.346
 4197SOL     OW14487   5.587  10.780  14.740
 4197SOL    HW114488   5.652  10.827  14.791
 4197SOL    HW214489   5.553  10.845  14.679
 4198SOL     OW14490   0.851   0.002   8.259
 4198SOL    HW114491   0.782  14.806   8.261
 4198SOL    HW214492   0.847   0.044   8.345
 4199SOL     OW14493  12.365   7.455  13.156
 4199SOL    HW114494  12.346   7.403  13.078
 4199SOL    HW214495  12.306   7.420  13.223
 4200SOL     OW14496  12.311  11.472   9.850
 4200SOL    HW114497  12.404  11.459   9.831
 4200SOL    HW214498  12.278  11.525   9.778
 4201SOL     OW14499   4.461  11.383  13.503
 4201SOL    HW114500   4.407  11.377  13.582
 4201SOL    HW214501   4.497  11.295  13.493
 4202SOL     OW14502  11.507   0.110   1.148
 4202SOL    HW114503  11.483   0.113   1.241
 4202SOL    HW214504  11.595   0.147   1.145
 4203SOL     OW14505  12.757   3.448   7.152
 4203SOL    HW114506  12.662   3.433   7.147
 4203SOL    HW214507  12.796   3.366   7.122
 4204SOL     OW14508   4.801  11.824   7.024
 4204SOL    HW114509   4.868  11.877   6.980
 4204SOL    HW214510   4.841  11.799   7.107
 4205SOL     OW14511  10.949   2.479   5.300
 4205SOL    HW114512  10.977   2.466   5.390
 4205SOL    HW214513  10.885   2.550   5.305
 4206SOL     OW14514   7.702  10.216   4.801
 4206SOL    HW114515   7.736  10.236   4.714
 4206SOL    HW214516   7.668  10.127   4.793
 4207SOL     OW14517  11.580  12.819   3.550
 4207SOL    HW114518  11.672  12.820   3.524
 4207SOL    HW214519  11.538  12.883   3.493
 4208SOL     OW14520  12.959   8.864   0.494
 4208SOL    HW114521  12.904   8.922   0.547
 4208SOL    HW214522  13.048   8.881   0.523
 4209SOL     OW14523   6.371   1.413   4.449
 4209SOL    HW114524   6.446   1.441   4.396
 4209SOL    HW214525   6.315   1.490   4.454
 4210SOL     OW14526  12.912  11.517  10.579
 4210SOL    HW114527  12.874  11.433  10.606
 4210SOL    HW214528  12.885  11.578  10.648
 4211SOL     OW14529  10.827   0.844   4.070
 4211SOL    HW114530  10.882   0.780   4.114
 4211SOL    HW214531  10.817   0.915   4.134
 4212SOL     OW14532   7.625   5.249   2.430
 4212SOL    HW114533   7.656   5.159   2.421
 4212SOL    HW214534   7.700   5.297   2.466
 4213SOL     OW14535  10.995  10.870  13.923
 4213SOL    HW114536  10.985  10.809  13.996
 4213SOL    HW214537  10.929  10.841  13.859
 4214SOL     OW14538   9.163   0.886   9.921
 4214SOL    HW114539   9.189   0.882  10.013
 4214SOL    HW214540   9.118   0.969   9.912
 4215SOL     OW14541   8.556  12.743   4.860
 4215SOL    HW114542   8.601  12.805   4.802
 4215SOL    HW214543   8.625  12.706   4.915
 4216SOL     OW14544  11.729   3.358   8.786
 4216SOL    HW114545  11.810   3.362   8.836
 4216SOL    HW214546  11.732   3.273   8.742
 4217SOL     OW14547   6.695   5.121   7.539
 4217SOL    HW114548   6.741   5.204   7.527
 4217SOL    HW214549   6.714   5.096   7.629
 4218SOL     OW14550   5.679   4.540   1.840
 4218SOL    HW114551   5.637   4.549   1.755
 4218SOL    HW214552   5.675   4.446   1.859
 4219SOL     OW14553   0.460   9.423  12.237
 4219SOL    HW114554   0.508   9.498  12.202
 4219SOL    HW214555   0.516   9.348  12.218
 4220SOL     OW14556   8.967   0.582  11.872
 4220SOL    HW114557   8.954   0.605  11.780
 4220SOL    HW214558   8.911   0.506  11.886
 4221SOL     OW14559   7.286  10.540   0.558
 4221SOL    HW114560   7.199  10.524   0.593
 4221SOL    HW214561   7.323  10.608   0.615
 4222SOL     OW14562  13.312   6.592   7.136
 4222SOL    HW114563  13.380   6.651   7.102
 4222SOL    HW214564  13.249   6.651   7.177
 4223SOL     OW14565   1.946   2.135   0.063
 4223SOL    HW114566   1.862   2.181   0.055
 4223SOL    HW214567   1.925   2.043   0.049
 4224SOL     OW14568   3.080   9.384   4.489
 4224SOL    HW114569   3.153   9.347   4.539
 4224SOL    HW214570   3.078   9.333   4.408
 4225SOL     OW14571   1.801  13.972   2.219
 4225SOL    HW114572   1.749  13.951   2.141
 4225SOL    HW214573   1.815  13.887   2.262
 4226SOL     OW14574  10.291  12.264  11.552
 4226SOL    HW114575  10.268  12.270  11.460
 4226SOL    HW214576  10.210  12.236  11.595
 4227SOL     OW14577   1.510   6.336   1.409
 4227SOL    HW114578   1.502   6.330   1.504
 4227SOL    HW214579   1.501   6.246   1.378
 4228SOL     OW14580  13.081  12.319   8.408
 4228SOL    HW114581  13.082  12.229   8.375
 4228SOL    HW214582  13.166  12.355   8.382
 4229SOL     OW14583  14.103   2.992   8.911
 4229SOL    HW114584  14.143   2.998   8.824
 4229SOL    HW214585  14.169   2.947   8.964
 4230SOL     OW14586   9.756   7.553   4.868
 4230SOL    HW114587   9.718   7.626   4.818
 4230SOL    HW214588   9.683   7.492   4.881
 4231SOL     OW14589   3.625   4.175  10.857
 4231SOL    HW114590   3.623   4.267  10.834
 4231SOL    HW214591   3.554   4.135  10.808
 4232SOL     OW14592  12.491   4.723   3.279
 4232SOL    HW114593  12.520   4.796   3.334
 4232SOL    HW214594  12.412   4.691   3.321
 4233SOL     OW14595   9.017   4.007   8.409
 4233SOL    HW114596   8.971   4.028   8.327
 4233SOL    HW214597   9.056   4.089   8.436
 4234SOL     OW14598   0.779   7.043   1.909
 4234SOL    HW114599   0.792   6.993   1.989
 4234SOL    HW214600   0.715   6.993   1.859
 4235SOL     OW14601   0.041   4.252  10.346
 4235SOL    HW114602   0.087   4.214  10.271
 4235SOL    HW214603  14.845   4.310  10.306
 4236SOL     OW14604   5.265  14.332  11.485
 4236SOL    HW114605   5.325  14.257  11.490
 4236SOL    HW214606   5.319  14.407  11.508
 4237SOL     OW14607   2.585   1.949   6.758
 4237SOL    HW114608   2.596   2.019   6.822
 4237SOL    HW214609   2.494   1.921   6.767
 4238SOL     OW14610   2.664   2.204  11.582
 4238SOL    HW114611   2.746   2.172  11.543
 4238SOL    HW214612   2.625   2.127  11.623
 4239SOL     OW14613   4.870   5.739   2.905
 4239SOL    HW114614   4.804   5.809   2.902
 4239SOL    HW214615   4.886   5.718   2.813
 4240SOL     OW14616   3.063   5.281   0.116
 4240SOL    HW114617   3.104   5.195   0.102
 4240SOL    HW214618   2.977   5.272   0.075
 4241SOL     OW14619  10.043  13.090   8.993
 4241SOL    HW114620   9.971  13.076   9.056
 4241SOL    HW214621  10.031  13.181   8.964
 4242SOL     OW14622  11.394  14.454  13.591
 4242SOL    HW114623  11.393  14.421  13.501
 4242SOL    HW214624  11.325  14.520  13.593
 4243SOL     OW14625   2.255  14.654   6.097
 4243SOL    HW114626   2.307  14.590   6.146
 4243SOL    HW214627   2.291  14.739   6.122
 4244SOL     OW14628   6.745   0.383   2.236
 4244SOL    HW114629   6.780   0.329   2.307
 4244SOL    HW214630   6.801   0.460   2.236
 4245SOL     OW14631   4.491   5.993   0.224
 4245SOL    HW114632   4.563   5.932   0.239
 4245SOL    HW214633   4.415   5.951   0.265
 4246SOL     OW14634   0.478  13.983  13.481
 4246SOL    HW114635   0.532  14.014  13.553
 4246SOL    HW214636   0.533  13.921  13.434
 4247SOL     OW14637   5.931   4.526  10.348
 4247SOL    HW114638   5.888   4.602  10.389
 4247SOL    HW214639   6.023   4.536  10.370
 4248SOL     OW14640   8.575  13.949   3.925
 4248SOL    HW114641   8.663  13.926   3.896
 4248SOL    HW214642   8.565  13.906   4.010
 4249SOL     OW14643   7.669  11.305   3.435
 4249SOL    HW114644   7.741  11.351   3.393
 4249SOL    HW214645   7.703  11.216   3.450
 4250SOL     OW14646  14.187  14.430  12.294
 4250SOL    HW114647  14.108  14.480  12.274
 4250SOL    HW214648  14.160  14.338  12.284
 4251SOL     OW14649  10.763   2.614  13.945
 4251SOL    HW114650  10.841   2.665  13.927
 4251SOL    HW214651  10.787   2.524  13.926
 4252SOL     OW14652   6.103   3.531  14.821
 4252SOL    HW114653   6.010   3.542  14.840
 4252SOL    HW214654   6.138   3.489   0.030
 4253SOL     OW14655   3.764  11.126   5.528
 4253SOL    HW114656   3.762  11.033   5.551
 4253SOL    HW214657   3.728  11.170   5.606
 4254SOL     OW14658  14.144   5.937   1.230
 4254SOL    HW114659  14.129   5.959   1.138
 4254SOL    HW214660  14.189   5.852   1.227
 4255SOL     OW14661   2.337   8.076   5.702
 4255SOL    HW114662   2.314   8.031   5.783
 4255SOL    HW214663   2.256   8.117   5.673
 4256SOL     OW14664   7.211  13.349  11.765
 4256SOL    HW114665   7.191  13.435  11.728
 4256SOL    HW214666   7.133  13.326  11.816
 4257SOL     OW14667  12.915  10.416   3.576
 4257SOL    HW114668  12.965  10.474   3.519
 4257SOL    HW214669  12.831  10.406   3.532
 4258SOL     OW14670   5.605  12.426   1.573
 4258SOL    HW114671   5.688  12.472   1.585
 4258SOL    HW214672   5.602  12.406   1.479
 4259SOL     OW14673  11.167   9.899   4.605
 4259SOL    HW114674  11.131   9.834   4.545
 4259SOL    HW214675  11.149   9.864   4.692
 4260SOL     OW14676   4.197   7.148  14.176
 4260SOL    HW114677   4.227   7.182  14.092
 4260SOL    HW214678   4.220   7.217  14.239
 4261SOL     OW14679   8.152   9.293  12.870
 4261SOL    HW114680   8.096   9.292  12.949
 4261SOL    HW214681   8.207   9.371  12.882
 4262SOL     OW14682   3.445   9.912   4.669
 4262SOL    HW114683   3.513   9.979   4.662
 4262SOL    HW214684   3.362   9.960   4.666
 4263SOL     OW14685   6.047   7.389   5.799
 4263SOL    HW114686   5.968   7.350   5.836
 4263SOL    HW214687   6.021   7.479   5.778
 4264SOL     OW14688   8.607   3.253   5.789
 4264SOL    HW114689   8.560   3.297   5.859
 4264SOL    HW214690   8.539   3.228   5.726
 4265SOL     OW14691  12.321   6.835   5.955
 4265SOL    HW114692  12.230   6.859   5.936
 4265SOL    HW214693  12.335   6.754   5.905
 4266SOL     OW14694   8.034   4.052   3.443
 4266SOL    HW114695   8.045   4.094   3.529
 4266SOL    HW214696   7.979   3.976   3.460
 4267SOL     OW14697   0.499   0.063   4.628
 4267SOL    HW114698   0.545  14.850   4.614
 4267SOL    HW214699   0.483   0.097   4.540
 4268SOL     OW14700   7.114   4.251   6.455
 4268SOL    HW114701   7.054   4.313   6.414
 4268SOL    HW214702   7.199   4.270   6.415
 4269SOL     OW14703   5.820   5.215  12.365
 4269SOL    HW114704   5.829   5.121  12.378
 4269SOL    HW214705   5.746   5.225  12.306
 4270SOL     OW14706  14.765  13.985   5.651
 4270SOL    HW114707  14.763  13.907   5.708
 4270SOL    HW214708  14.836  14.038   5.686
 4271SOL     OW14709   7.255   7.835  10.757
 4271SOL    HW114710   7.239   7.741  10.756
 4271SOL    HW214711   7.225   7.866  10.671
 4272SOL     OW14712   7.574  11.961   1.569
 4272SOL    HW114713   7.486  11.983   1.539
 4272SOL    HW214714   7.594  11.879   1.524
 4273SOL     OW14715   9.536  14.110   4.825
 4273SOL    HW114716   9.601  14.173   4.793
 4273SOL    HW214717   9.581  14.065   4.896
 4274SOL     OW14718  12.938  12.238   3.936
 4274SOL    HW114719  13.006  12.240   4.004
 4274SOL    HW214720  12.898  12.325   3.939
 4275SOL     OW14721  12.376   7.471  11.331
 4275SOL    HW114722  12.408   7.471  11.241
 4275SOL    HW214723  12.286   7.504  11.324
 4276SOL     OW14724   5.050   4.224   8.726
 4276SOL    HW114725   5.009   4.155   8.674
 4276SOL    HW214726   5.020   4.207   8.815
 4277SOL     OW14727  10.937   3.168  12.315
 4277SOL    HW114728  10.904   3.116  12.388
 4277SOL    HW214729  10.884   3.247  12.315
 4278SOL     OW14730   6.904  11.594  14.144
 4278SOL    HW114731   6.997  11.571  14.145
 4278SOL    HW214732   6.867  11.548  14.220
 4279SOL     OW14733   3.923  12.239   7.346
 4279SOL    HW114734   3.829  12.227   7.337
 4279SOL    HW214735   3.953  12.256   7.256
 4280SOL     OW14736   9.563   7.815   2.770
 4280SOL    HW114737   9.633   7.879   2.757
 4280SOL    HW214738   9.572   7.790   2.862
 4281SOL     OW14739   9.256   0.781   1.877
 4281SOL    HW114740   9.327   0.731   1.836
 4281SOL    HW214741   9.210   0.717   1.932
 4282SOL     OW14742   0.679   2.002   2.457
 4282SOL    HW114743   0.634   1.919   2.465
 4282SOL    HW214744   0.682   2.019   2.362
 4283SOL     OW14745   5.758   3.160   8.751
 4283SOL    HW114746   5.843   3.137   8.713
 4283SOL    HW214747   5.695   3.111   8.700
 4284SOL     OW14748  13.239   6.312   8.401
 4284SOL    HW114749  13.211   6.241   8.343
 4284SOL    HW214750  13.162   6.369   8.408
 4285SOL     OW14751   5.131  12.828   9.206
 4285SOL    HW114752   5.159  12.740   9.231
 4285SOL    HW214753   5.188  12.887   9.254
 4286SOL     OW14754   1.416  13.559  11.962
 4286SOL    HW114755   1.358  13.529  12.032
 4286SOL    HW214756   1.411  13.654  11.966
 4287SOL     OW14757   9.139   3.371   6.481
 4287SOL    HW114758   9.127   3.430   6.406
 4287SOL    HW214759   9.112   3.423   6.557
 4288SOL     OW14760   0.023   9.971  12.944
 4288SOL    HW114761   0.074   9.902  12.986
 4288SOL    HW214762   0.062  10.053  12.976
 4289SOL     OW14763  14.565   0.268   5.998
 4289SOL    HW114764  14.598   0.350   6.034
 4289SOL    HW214765  14.475   0.287   5.972
 4290SOL     OW14766  11.382   5.303   6.401
 4290SOL    HW114767  11.293   5.339   6.400
 4290SOL    HW214768  11.376   5.225   6.455
 4291SOL     OW14769   3.084   8.644   6.210
 4291SOL    HW114770   3.065   8.568   6.155
 4291SOL    HW214771   3.107   8.607   6.295
 4292SOL     OW14772  12.267  12.821   0.169
 4292SOL    HW114773  12.312  12.900   0.140
 4292SOL    HW214774  12.272  12.824   0.264
 4293SOL     OW14775   1.688   3.575   8.801
 4293SOL    HW114776   1.703   3.668   8.783
 4293SOL    HW214777   1.695   3.568   8.896
 4294SOL     OW14778   3.862   3.488   7.824
 4294SOL    HW114779   3.951   3.466   7.795
 4294SOL    HW214780   3.852   3.441   7.907
 4295SOL     OW14781   6.140   4.025   3.104
 4295SOL    HW114782   6.094   4.076   3.170
 4295SOL    HW214783   6.229   4.016   3.138
 4296SOL     OW14784  10.722   4.584  12.417
 4296SOL    HW114785  10.691   4.550  12.333
 4296SOL    HW214786  10.783   4.517  12.449
 4297SOL     OW14787   3.385   9.081   1.285
 4297SOL    HW114788   3.394   9.023   1.360
 4297SOL    HW214789   3.460   9.059   1.229
 4298SOL     OW14790  10.998   1.078   5.330
 4298SOL    HW114791  10.907   1.068   5.356
 4298SOL    HW214792  11.044   1.009   5.377
 4299SOL     OW14793   3.018   8.994   7.026
 4299SOL    HW114794   3.113   9.001   7.024
 4299SOL    HW214795   2.988   9.084   7.041
 4300SOL     OW14796   7.370   4.005   5.440
 4300SOL    HW114797   7.356   3.914   5.414
 4300SOL    HW214798   7.457   4.006   5.479
 4301SOL     OW14799  13.182   9.985   5.823
 4301SOL    HW114800  13.150   9.999   5.734
 4301SOL    HW214801  13.102   9.977   5.876
 4302SOL     OW14802  11.802   7.474  13.963
 4302SOL    HW114803  11.765   7.407  13.906
 4302SOL    HW214804  11.867   7.428  14.017
 4303SOL     OW14805  12.780   5.743   3.336
 4303SOL    HW114806  12.800   5.827   3.294
 4303SOL    HW214807  12.735   5.766   3.417
 4304SOL     OW14808   6.770   9.388  14.738
 4304SOL    HW114809   6.749   9.459  14.677
 4304SOL    HW214810   6.820   9.431  14.808
 4305SOL     OW14811   8.859  10.417   3.639
 4305SOL    HW114812   8.881  10.357   3.710
 4305SOL    HW214813   8.902  10.499   3.663
 4306SOL     OW14814   0.437   2.805  13.623
 4306SOL    HW114815   0.470   2.716  13.628
 4306SOL    HW214816   0.455   2.842  13.710
 4307SOL     OW14817   2.058   2.131   7.683
 4307SOL    HW114818   2.087   2.128   7.592
 4307SOL    HW214819   1.967   2.104   7.680
 4308SOL     OW14820   8.163  10.966   4.623
 4308SOL    HW114821   8.078  10.990   4.660
 4308SOL    HW214822   8.197  10.898   4.681
 4309SOL     OW14823   4.921  11.938   6.795
 4309SOL    HW114824   4.934  11.992   6.717
 4309SOL    HW214825   4.955  11.991   6.867
 4310SOL     OW14826   6.303   4.494   4.418
 4310SOL    HW114827   6.391   4.524   4.438
 4310SOL    HW214828   6.316   4.416   4.364
 4311SOL     OW14829  11.492  11.955   3.156
 4311SOL    HW114830  11.580  11.925   3.134
 4311SOL    HW214831  11.438  11.876   3.151
 4312SOL     OW14832   8.016   6.063   7.390
 4312SOL    HW114833   8.069   6.136   7.423
 4312SOL    HW214834   7.960   6.038   7.464
 4313SOL     OW14835  14.662   2.734  11.322
 4313SOL    HW114836  14.595   2.700  11.381
 4313SOL    HW214837  14.621   2.732  11.235
 4314SOL     OW14838   2.509   9.852   9.309
 4314SOL    HW114839   2.441   9.787   9.327
 4314SOL    HW214840   2.535   9.884   9.395
 4315SOL     OW14841  12.734  11.438   2.010
 4315SOL    HW114842  12.693  11.435   2.097
 4315SOL    HW214843  12.695  11.364   1.963
 4316SOL     OW14844  10.828   3.104   6.096
 4316SOL    HW114845  10.754   3.146   6.140
 4316SOL    HW214846  10.810   3.117   6.003
 4317SOL     OW14847  13.324  10.073   2.669
 4317SOL    HW114848  13.329   9.986   2.709
 4317SOL    HW214849  13.401  10.119   2.704
 4318SOL     OW14850  10.025  10.231   2.801
 4318SOL    HW114851  10.057  10.289   2.870
 4318SOL    HW214852  10.094  10.165   2.791
 4319SOL     OW14853  10.864   7.115  10.961
 4319SOL    HW114854  10.947   7.152  10.993
 4319SOL    HW214855  10.886   7.025  10.936
 4320SOL     OW14856  14.021  12.356   6.942
 4320SOL    HW114857  13.944  12.348   6.886
 4320SOL    HW214858  14.079  12.285   6.915
 4321SOL     OW14859   8.157  10.486   6.474
 4321SOL    HW114860   8.078  10.471   6.421
 4321SOL    HW214861   8.216  10.416   6.450
 4322SOL     OW14862   7.558   3.810   0.543
 4322SOL    HW114863   7.626   3.818   0.610
 4322SOL    HW214864   7.606   3.795   0.461
 4323SOL     OW14865  10.130   3.724  10.040
 4323SOL    HW114866  10.066   3.762   9.980
 4323SOL    HW214867  10.132   3.631  10.016
 4324SOL     OW14868   0.666  10.735   1.990
 4324SOL    HW114869   0.663  10.701   1.901
 4324SOL    HW214870   0.614  10.674   2.042
 4325SOL     OW14871  12.860  14.714   5.379
 4325SOL    HW114872  12.905  14.700   5.296
 4325SOL    HW214873  12.769  14.731   5.356
 4326SOL     OW14874   6.327   1.457   7.276
 4326SOL    HW114875   6.279   1.387   7.320
 4326SOL    HW214876   6.408   1.465   7.326
 4327SOL     OW14877  12.590  14.853   8.118
 4327SOL    HW114878  12.676  14.817   8.138
 4327SOL    HW214879  12.595   0.009   8.026
 4328SOL     OW14880  13.916  10.266   5.527
 4328SOL    HW114881  13.894  10.197   5.589
 4328SOL    HW214882  13.979  10.321   5.573
 4329SOL     OW14883  11.241  12.125  10.747
 4329SOL    HW114884  11.183  12.189  10.707
 4329SOL    HW214885  11.309  12.178  10.790
 4330SOL     OW14886   3.013   6.958   6.986
 4330SOL    HW114887   2.973   7.027   7.040
 4330SOL    HW214888   3.105   6.982   6.980
 4331SOL     OW14889   5.472   7.721   0.006
 4331SOL    HW114890   5.454   7.646  14.818
 4331SOL    HW214891   5.567   7.721   0.015
 4332SOL     OW14892   8.759   6.594   9.888
 4332SOL    HW114893   8.747   6.689   9.892
 4332SOL    HW214894   8.683   6.563   9.840
 4333SOL     OW14895   8.177   4.337   9.079
 4333SOL    HW114896   8.211   4.353   9.167
 4333SOL    HW214897   8.231   4.392   9.022
 4334SOL     OW14898   3.241  14.836   4.849
 4334SOL    HW114899   3.273  14.746   4.847
 4334SOL    HW214900   3.273   0.006   4.768
 4335SOL     OW14901  12.435   6.678   7.778
 4335SOL    HW114902  12.470   6.591   7.795
 4335SOL    HW214903  12.390   6.702   7.859
 4336SOL     OW14904   0.050  10.819   0.716
 4336SOL    HW114905   0.035  10.727   0.694
 4336SOL    HW214906   0.059  10.863   0.632
 4337SOL     OW14907   6.208  10.321  10.409
 4337SOL    HW114908   6.133  10.351  10.358
 4337SOL    HW214909   6.272  10.391  10.400
 4338SOL     OW14910   0.046   8.261   6.408
 4338SOL    HW114911   0.108   8.189   6.420
 4338SOL    HW214912  14.856   8.230   6.339
 4339SOL     OW14913  12.716   4.995   7.424
 4339SOL    HW114914  12.793   4.983   7.479
 4339SOL    HW214915  12.654   5.045   7.478
 4340SOL     OW14916  12.553   8.863  12.807
 4340SOL    HW114917  12.498   8.796  12.766
 4340SOL    HW214918  12.503   8.944  12.798
 4341SOL     OW14919   5.402  14.653  11.317
 4341SOL    HW114920   5.359  14.688  11.396
 4341SOL    HW214921   5.345  14.681  11.245
 4342SOL     OW14922   7.978   4.711  14.034
 4342SOL    HW114923   7.997   4.736  14.124
 4342SOL    HW214924   8.058   4.731  13.986
 4343SOL     OW14925  12.203  13.025   8.376
 4343SOL    HW114926  12.256  13.050   8.451
 4343SOL    HW214927  12.261  13.036   8.300
 4344SOL     OW14928   5.057   0.424   0.758
 4344SOL    HW114929   5.097   0.375   0.830
 4344SOL    HW214930   4.963   0.409   0.768
 4345SOL     OW14931   8.465   8.489   6.460
 4345SOL    HW114932   8.376   8.466   6.433
 4345SOL    HW214933   8.522   8.436   6.404
 4346SOL     OW14934  12.103   2.874   2.345
 4346SOL    HW114935  12.154   2.885   2.264
 4346SOL    HW214936  12.162   2.828   2.404
 4347SOL     OW14937   0.722   4.334   3.105
 4347SOL    HW114938   0.671   4.289   3.172
 4347SOL    HW214939   0.678   4.418   3.093
 4348SOL     OW14940  12.227   8.474  10.904
 4348SOL    HW114941  12.202   8.516  10.821
 4348SOL    HW214942  12.265   8.545  10.956
 4349SOL     OW14943   8.599   0.427  13.242
 4349SOL    HW114944   8.676   0.448  13.295
 4349SOL    HW214945   8.632   0.370  13.173
 4350SOL     OW14946   6.801   5.901   0.234
 4350SOL    HW114947   6.882   5.905   0.286
 4350SOL    HW214948   6.793   5.809   0.209
 4351SOL     OW14949  12.654   6.090   5.065
 4351SOL    HW114950  12.626   6.083   4.973
 4351SOL    HW214951  12.674   6.183   5.076
 4352SOL     OW14952   8.482   5.641   1.023
 4352SOL    HW114953   8.411   5.697   0.993
 4352SOL    HW214954   8.461   5.623   1.115
 4353SOL     OW14955   3.284   1.218   8.806
 4353SOL    HW114956   3.261   1.234   8.714
 4353SOL    HW214957   3.275   1.304   8.848
 4354SOL     OW14958  12.003   4.363   7.535
 4354SOL    HW114959  11.923   4.406   7.567
 4354SOL    HW214960  12.072   4.429   7.547
 4355SOL     OW14961   7.970   5.657  13.488
 4355SOL    HW114962   7.991   5.566  13.465
 4355SOL    HW214963   7.875   5.663  13.478
 4356SOL     OW14964  10.415  10.598   8.381
 4356SOL    HW114965  10.343  10.640   8.334
 4356SOL    HW214966  10.375  10.564   8.461
 4357SOL     OW14967   0.728   9.746   8.634
 4357SOL    HW114968   0.776   9.798   8.569
 4357SOL    HW214969   0.765   9.773   8.718
 4358SOL     OW14970  13.090   7.464   9.355
 4358SOL    HW114971  13.116   7.556   9.363
 4358SOL    HW214972  13.160   7.425   9.301
 4359SOL     OW14973  10.408   8.230   2.252
 4359SOL    HW114974  10.408   8.271   2.165
 4359SOL    HW214975  10.497   8.243   2.284
 4360SOL     OW14976   2.110   5.019   4.812
 4360SOL    HW114977   2.061   5.001   4.731
 4360SOL    HW214978   2.127   5.113   4.809
 4361SOL     OW14979  11.763  14.467  13.309
 4361SOL    HW114980  11.820  14.394  13.285
 4361SOL    HW214981  11.733  14.446  13.398
 4362SOL     OW14982   4.753  11.679  13.710
 4362SOL    HW114983   4.695  11.648  13.640
 4362SOL    HW214984   4.823  11.614  13.714
 4363SOL     OW14985  14.461   5.389   0.572
 4363SOL    HW114986  14.542   5.431   0.600
 4363SOL    HW214987  14.452   5.414   0.480
 4364SOL     OW14988   6.719   3.987   0.481
 4364SOL    HW114989   6.709   3.894   0.499
 4364SOL    HW214990   6.690   3.998   0.390
 4365SOL     OW14991   9.701   6.959   7.805
 4365SOL    HW114992   9.793   6.968   7.781
 4365SOL    HW214993   9.700   6.963   7.900
 4366SOL     OW14994   4.702   2.773   3.760
 4366SOL    HW114995   4.790   2.751   3.791
 4366SOL    HW214996   4.680   2.853   3.809
 4367SOL     OW14997  13.498   2.691  11.271
 4367SOL    HW114998  13.422   2.740  11.301
 4367SOL    HW214999  13.539   2.748  11.206
 4368SOL     OW15000  14.047   8.980   4.632
 4368SOL    HW115001  14.133   9.016   4.612
 4368SOL    HW215002  14.021   9.024   4.713
 4369SOL     OW15003   6.472   4.254  13.995
 4369SOL    HW115004   6.441   4.332  14.041
 4369SOL    HW215005   6.429   4.181  14.039
 4370SOL     OW15006   4.770  14.557   4.576
 4370SOL    HW115007   4.741  14.563   4.485
 4370SOL    HW215008   4.855  14.602   4.577
 4371SOL     OW15009  10.740   6.463  13.943
 4371SOL    HW115010  10.731   6.547  13.898
 4371SOL    HW215011  10.834   6.447  13.946
 4372SOL     OW15012  11.227  11.862  12.703
 4372SOL    HW115013  11.176  11.931  12.661
 4372SOL    HW215014  11.318  11.885  12.683
 4373SOL     OW15015  11.815  12.112   7.921
 4373SOL    HW115016  11.862  12.142   7.843
 4373SOL    HW215017  11.724  12.135   7.905
 4374SOL     OW15018   7.534   1.746   7.221
 4374SOL    HW115019   7.478   1.768   7.147
 4374SOL    HW215020   7.520   1.652   7.235
 4375SOL     OW15021   7.365  14.746   6.093
 4375SOL    HW115022   7.381  14.758   6.187
 4375SOL    HW215023   7.442  14.785   6.051
 4376SOL     OW15024   4.209   5.591  11.454
 4376SOL    HW115025   4.249   5.669  11.416
 4376SOL    HW215026   4.275   5.558  11.515
 4377SOL     OW15027   2.173   4.975   9.390
 4377SOL    HW115028   2.264   4.960   9.362
 4377SOL    HW215029   2.129   4.892   9.370
 4378SOL     OW15030   1.092   2.637   0.730
 4378SOL    HW115031   1.147   2.711   0.706
 4378SOL    HW215032   1.007   2.656   0.689
 4379SOL     OW15033   3.289   0.799   9.103
 4379SOL    HW115034   3.360   0.740   9.077
 4379SOL    HW215035   3.306   0.880   9.055
 4380SOL     OW15036   1.180   2.120  13.884
 4380SOL    HW115037   1.164   2.027  13.903
 4380SOL    HW215038   1.242   2.147  13.952
 4381SOL     OW15039   0.373   7.775   7.170
 4381SOL    HW115040   0.409   7.812   7.090
 4381SOL    HW215041   0.320   7.846   7.208
 4382SOL     OW15042  12.880   3.921   6.356
 4382SOL    HW115043  12.862   3.936   6.449
 4382SOL    HW215044  12.793   3.916   6.315
 4383SOL     OW15045   8.538   8.094  13.684
 4383SOL    HW115046   8.603   8.026  13.703
 4383SOL    HW215047   8.478   8.091  13.758
 4384SOL     OW15048   6.026  10.985  11.060
 4384SOL    HW115049   6.015  10.983  11.155
 4384SOL    HW215050   5.958  10.926  11.026
 4385SOL     OW15051  13.818  13.429   1.513
 4385SOL    HW115052  13.734  13.461   1.546
 4385SOL    HW215053  13.882  13.456   1.579
 4386SOL     OW15054   5.038   2.187   0.704
 4386SOL    HW115055   4.950   2.169   0.738
 4386SOL    HW215056   5.095   2.182   0.780
 4387SOL     OW15057   6.305   4.142  13.809
 4387SOL    HW115058   6.321   4.053  13.777
 4387SOL    HW215059   6.386   4.167  13.853
 4388SOL     OW15060   8.743   0.494   6.096
 4388SOL    HW115061   8.742   0.399   6.100
 4388SOL    HW215062   8.803   0.521   6.166
 4389SOL     OW15063   3.743   9.804   8.093
 4389SOL    HW115064   3.838   9.806   8.090
 4389SOL    HW215065   3.722   9.767   8.179
 4390SOL     OW15066   0.227  11.434   1.082
 4390SOL    HW115067   0.193  11.521   1.106
 4390SOL    HW215068   0.319  11.437   1.106
 4391SOL     OW15069   9.188   5.559   3.306
 4391SOL    HW115070   9.253   5.617   3.346
 4391SOL    HW215071   9.104   5.603   3.320
 4392SOL     OW15072   4.137   4.674   5.114
 4392SOL    HW115073   4.132   4.691   5.019
 4392SOL    HW215074   4.049   4.646   5.137
 4393SOL     OW15075   5.159  10.252   1.184
 4393SOL    HW115076   5.208  10.308   1.124
 4393SOL    HW215077   5.071  10.290   1.186
 4394SOL     OW15078   4.116   5.210   5.366
 4394SOL    HW115079   4.169   5.170   5.297
 4394SOL    HW215080   4.049   5.145   5.386
 4395SOL     OW15081   0.828   3.873   4.549
 4395SOL    HW115082   0.875   3.888   4.631
 4395SOL    HW215083   0.896   3.850   4.486
 4396SOL     OW15084   8.255   7.044   1.011
 4396SOL    HW115085   8.341   7.038   1.053
 4396SOL    HW215086   8.203   7.098   1.070
 4397SOL     OW15087   5.547   8.597   5.142
 4397SOL    HW115088   5.536   8.513   5.098
 4397SOL    HW215089   5.642   8.608   5.148
 4398SOL     OW15090  13.999   8.322   2.428
 4398SOL    HW115091  13.941   8.252   2.459
 4398SOL    HW215092  14.080   8.277   2.402
 4399SOL     OW15093   7.013   2.747   4.594
 4399SOL    HW115094   7.019   2.683   4.523
 4399SOL    HW215095   7.104   2.761   4.621
 4400SOL     OW15096   3.820   6.692   4.836
 4400SOL    HW115097   3.792   6.633   4.906
 4400SOL    HW215098   3.879   6.754   4.878
 4401SOL     OW15099  12.457   2.790   6.699
 4401SOL    HW115100  12.451   2.882   6.674
 4401SOL    HW215101  12.529   2.786   6.762
 4402SOL     OW15102  10.058  13.572   8.055
 4402SOL    HW115103  10.093  13.489   8.086
 4402SOL    HW215104  10.120  13.638   8.086
 4403SOL     OW15105  13.756  14.003   5.393
 4403SOL    HW115106  13.840  14.009   5.439
 4403SOL    HW215107  13.709  14.082   5.418
 4404SOL     OW15108  14.708   8.234   5.431
 4404SOL    HW115109  14.704   8.141   5.407
 4404SOL    HW215110  14.772   8.237   5.502
 4405SOL     OW15111  11.607   7.016   8.232
 4405SOL    HW115112  11.523   7.033   8.273
 4405SOL    HW215113  11.589   6.947   8.168
 4406SOL     OW15114  14.525   1.455  11.862
 4406SOL    HW115115  14.620   1.444  11.868
 4406SOL    HW215116  14.492   1.420  11.945
 4407SOL     OW15117  14.819   1.735   2.496
 4407SOL    HW115118  14.769   1.700   2.422
 4407SOL    HW215119   0.040   1.710   2.477
 4408SOL     OW15120  12.178  11.408   9.325
 4408SOL    HW115121  12.238  11.381   9.395
 4408SOL    HW215122  12.181  11.337   9.261
 4409SOL     OW15123  12.784   5.107   3.605
 4409SOL    HW115124  12.773   5.182   3.547
 4409SOL    HW215125  12.773   5.031   3.548
 4410SOL     OW15126  14.685  11.314   5.450
 4410SOL    HW115127  14.649  11.398   5.426
 4410SOL    HW215128  14.621  11.276   5.511
 4411SOL     OW15129   4.269   2.758   8.695
 4411SOL    HW115130   4.226   2.759   8.609
 4411SOL    HW215131   4.230   2.832   8.742
 4412SOL     OW15132  11.664  12.477   0.664
 4412SOL    HW115133  11.711  12.525   0.597
 4412SOL    HW215134  11.627  12.544   0.721
 4413SOL     OW15135  13.613   9.808   2.117
 4413SOL    HW115136  13.605   9.829   2.210
 4413SOL    HW215137  13.675   9.873   2.083
 4414SOL     OW15138  12.004  12.421   8.472
 4414SOL    HW115139  12.077  12.471   8.508
 4414SOL    HW215140  12.046  12.352   8.420
 4415SOL     OW15141   6.630   7.655   1.210
 4415SOL    HW115142   6.714   7.658   1.164
 4415SOL    HW215143   6.626   7.738   1.258
 4416SOL     OW15144   5.728  12.600   9.265
 4416SOL    HW115145   5.658  12.590   9.329
 4416SOL    HW215146   5.729  12.517   9.217
 4417SOL     OW15147  14.075   7.907  13.568
 4417SOL    HW115148  14.102   7.837  13.628
 4417SOL    HW215149  14.088   7.871  13.481
 4418SOL     OW15150  12.440   6.243   1.496
 4418SOL    HW115151  12.502   6.307   1.532
 4418SOL    HW215152  12.475   6.222   1.409
 4419SOL     OW15153  12.425  12.291  11.210
 4419SOL    HW115154  12.333  12.317  11.208
 4419SOL    HW215155  12.473  12.372  11.231
 4420SOL     OW15156  14.252  11.783   6.618
 4420SOL    HW115157  14.320  11.757   6.679
 4420SOL    HW215158  14.290  11.767   6.531
 4421SOL     OW15159   7.233   4.730   5.768
 4421SOL    HW115160   7.176   4.705   5.696
 4421SOL    HW215161   7.221   4.661   5.833
 4422SOL     OW15162   5.642   0.981   4.562
 4422SOL    HW115163   5.692   1.062   4.554
 4422SOL    HW215164   5.580   0.997   4.633
 4423SOL     OW15165  11.958   4.397   2.988
 4423SOL    HW115166  11.966   4.471   3.048
 4423SOL    HW215167  11.918   4.434   2.910
 4424SOL     OW15168   6.256   1.701   4.556
 4424SOL    HW115169   6.299   1.787   4.552
 4424SOL    HW215170   6.295   1.658   4.632
 4425SOL     OW15171   6.793   9.246   2.990
 4425SOL    HW115172   6.826   9.174   3.044
 4425SOL    HW215173   6.870   9.300   2.973
 4426SOL     OW15174   9.729   1.319   2.843
 4426SOL    HW115175   9.782   1.373   2.901
 4426SOL    HW215176   9.744   1.355   2.755
 4427SOL     OW15177   7.718   5.955   0.977
 4427SOL    HW115178   7.768   5.987   0.902
 4427SOL    HW215179   7.756   6.002   1.052
 4428SOL     OW15180   5.316  11.454  10.886
 4428SOL    HW115181   5.287  11.468  10.976
 4428SOL    HW215182   5.383  11.521  10.872
 4429SOL     OW15183  14.078   0.993   7.446
 4429SOL    HW115184  14.095   0.924   7.509
 4429SOL    HW215185  14.158   1.046   7.446
 4430SOL     OW15186  10.421   4.379  10.743
 4430SOL    HW115187  10.415   4.442  10.815
 4430SOL    HW215188  10.465   4.303  10.782
 4431SOL     OW15189   6.224   1.515   3.263
 4431SOL    HW115190   6.201   1.431   3.305
 4431SOL    HW215191   6.140   1.558   3.248
 4432SOL     OW15192  14.694   9.277   8.658
 4432SOL    HW115193  14.725   9.205   8.713
 4432SOL    HW215194  14.736   9.355   8.695
 4433SOL     OW15195   8.056  11.098   3.314
 4433SOL    HW115196   8.024  11.188   3.305
 4433SOL    HW215197   7.977  11.045   3.324
 4434SOL     OW15198   9.886   1.236   8.864
 4434SOL    HW115199   9.901   1.211   8.773
 4434SOL    HW215200   9.905   1.156   8.914
 4435SOL     OW15201   5.760   6.408   4.435
 4435SOL    HW115202   5.825   6.373   4.496
 4435SOL    HW215203   5.679   6.409   4.485
 4436SOL     OW15204   1.164   9.165   6.824
 4436SOL    HW115205   1.184   9.076   6.853
 4436SOL    HW215206   1.069   9.172   6.830
 4437SOL     OW15207   3.441   4.343   6.831
 4437SOL    HW115208   3.391   4.306   6.759
 4437SOL    HW215209   3.530   4.311   6.818
 4438SOL     OW15210  14.277   7.370   1.975
 4438SOL    HW115211  14.221   7.315   1.920
 4438SOL    HW215212  14.352   7.315   1.995
 4439SOL     OW15213   0.360   2.403   7.850
 4439SOL    HW115214   0.367   2.398   7.754
 4439SOL    HW215215   0.435   2.455   7.876
 4440SOL     OW15216   8.855  13.487   1.513
 4440SOL    HW115217   8.864  13.409   1.458
 4440SOL    HW215218   8.866  13.560   1.452
 4441SOL     OW15219  11.003   7.210   0.633
 4441SOL    HW115220  11.029   7.290   0.588
 4441SOL    HW215221  10.927   7.235   0.685
 4442SOL     OW15222  11.585   5.113   4.074
 4442SOL    HW115223  11.499   5.155   4.069
 4442SOL    HW215224  11.565   5.020   4.084
 4443SOL     OW15225   3.291   3.419  10.767
 4443SOL    HW115226   3.213   3.410  10.822
 4443SOL    HW215227   3.363   3.433  10.829
 4444SOL     OW15228   4.176   5.834   9.615
 4444SOL    HW115229   4.220   5.866   9.694
 4444SOL    HW215230   4.246   5.794   9.563
 4445SOL     OW15231   8.123   3.773  14.206
 4445SOL    HW115232   8.153   3.726  14.127
 4445SOL    HW215233   8.046   3.724  14.234
 4446SOL     OW15234   5.170   1.754   6.750
 4446SOL    HW115235   5.084   1.740   6.709
 4446SOL    HW215236   5.169   1.847   6.775
 4447SOL     OW15237  11.061   6.572  11.184
 4447SOL    HW115238  10.986   6.630  11.167
 4447SOL    HW215239  11.066   6.516  11.107
 4448SOL     OW15240   6.305   9.128  12.957
 4448SOL    HW115241   6.352   9.044  12.960
 4448SOL    HW215242   6.309   9.161  13.046
 4449SOL     OW15243  11.556   7.260  11.509
 4449SOL    HW115244  11.508   7.343  11.503
 4449SOL    HW215245  11.591   7.260  11.598
 4450SOL     OW15246   5.654  11.913  11.398
 4450SOL    HW115247   5.623  11.964  11.323
 4450SOL    HW215248   5.735  11.872  11.369
 4451SOL     OW15249  11.442  14.548  14.154
 4451SOL    HW115250  11.536  14.533  14.164
 4451SOL    HW215251  11.435  14.597  14.072
 4452SOL     OW15252   2.630   9.208   3.309
 4452SOL    HW115253   2.715   9.215   3.266
 4452SOL    HW215254   2.567   9.200   3.237
 4453SOL     OW15255   3.458   5.561  14.283
 4453SOL    HW115256   3.428   5.628  14.344
 4453SOL    HW215257   3.416   5.480  14.313
 4454SOL     OW15258   4.561   7.749  12.717
 4454SOL    HW115259   4.583   7.725  12.807
 4454SOL    HW215260   4.633   7.714  12.665
 4455SOL     OW15261   3.397  12.303   9.237
 4455SOL    HW115262   3.413  12.381   9.183
 4455SOL    HW215263   3.399  12.230   9.175
 4456SOL     OW15264   2.810   2.109   0.474
 4456SOL    HW115265   2.868   2.067   0.410
 4456SOL    HW215266   2.738   2.047   0.485
 4457SOL     OW15267   2.156   3.506   2.494
 4457SOL    HW115268   2.061   3.503   2.481
 4457SOL    HW215269   2.175   3.597   2.516
 4458SOL     OW15270  11.585   0.569   7.861
 4458SOL    HW115271  11.640   0.644   7.882
 4458SOL    HW215272  11.496   0.597   7.885
 4459SOL     OW15273  12.501   0.650   8.598
 4459SOL    HW115274  12.474   0.569   8.555
 4459SOL    HW215275  12.449   0.718   8.555
 4460SOL     OW15276   4.899  13.057   0.760
 4460SOL    HW115277   4.882  13.031   0.851
 4460SOL    HW215278   4.931  12.978   0.717
 4461SOL     OW15279   4.510   0.763   1.897
 4461SOL    HW115280   4.547   0.760   1.809
 4461SOL    HW215281   4.535   0.680   1.936
 4462SOL     OW15282  13.864   8.076   4.510
 4462SOL    HW115283  13.781   8.031   4.493
 4462SOL    HW215284  13.924   8.007   4.537
 4463SOL     OW15285   1.372   4.376   5.475
 4463SOL    HW115286   1.315   4.321   5.529
 4463SOL    HW215287   1.380   4.457   5.525
 4464SOL     OW15288  10.622  13.261  12.191
 4464SOL    HW115289  10.595  13.317  12.263
 4464SOL    HW215290  10.581  13.300  12.114
 4465SOL     OW15291   5.775   2.130   9.404
 4465SOL    HW115292   5.831   2.057   9.377
 4465SOL    HW215293   5.798   2.146   9.495
 4466SOL     OW15294   6.028  14.251   1.424
 4466SOL    HW115295   6.100  14.302   1.385
 4466SOL    HW215296   5.971  14.318   1.462
 4467SOL     OW15297  13.547   0.222   6.696
 4467SOL    HW115298  13.633   0.202   6.659
 4467SOL    HW215299  13.498   0.260   6.623
 4468SOL     OW15300   8.039  12.776   5.230
 4468SOL    HW115301   7.962  12.789   5.175
 4468SOL    HW215302   8.005  12.741   5.312
 4469SOL     OW15303   4.334   4.231  11.723
 4469SOL    HW115304   4.262   4.175  11.695
 4469SOL    HW215305   4.312   4.255  11.813
 4470SOL     OW15306   2.705  14.272   0.066
 4470SOL    HW115307   2.617  14.306   0.083
 4470SOL    HW215308   2.690  14.188   0.023
 4471SOL     OW15309   6.421   6.173  13.218
 4471SOL    HW115310   6.467   6.208  13.142
 4471SOL    HW215311   6.373   6.248  13.253
 4472SOL     OW15312  13.909   7.405   4.773
 4472SOL    HW115313  13.989   7.361   4.800
 4472SOL    HW215314  13.845   7.382   4.840
 4473SOL     OW15315   3.879  11.179   1.282
 4473SOL    HW115316   3.792  11.216   1.272
 4473SOL    HW215317   3.926  11.206   1.203
 4474SOL     OW15318   9.125  13.740   9.337
 4474SOL    HW115319   9.105  13.665   9.394
 4474SOL    HW215320   9.089  13.815   9.384
 4475SOL     OW15321   7.252  14.255   8.153
 4475SOL    HW115322   7.180  14.298   8.106
 4475SOL    HW215323   7.320  14.322   8.159
 4476SOL     OW15324  10.172  12.763   1.074
 4476SOL    HW115325  10.108  12.692   1.065
 4476SOL    HW215326  10.251  12.730   1.030
 4477SOL     OW15327   3.393   3.597  10.582
 4477SOL    HW115328   3.360   3.524  10.635
 4477SOL    HW215329   3.373   3.572  10.492
 4478SOL     OW15330   7.152   1.162   3.186
 4478SOL    HW115331   7.226   1.183   3.243
 4478SOL    HW215332   7.083   1.224   3.213
 4479SOL     OW15333   7.920   1.337   8.672
 4479SOL    HW115334   7.895   1.428   8.691
 4479SOL    HW215335   7.999   1.344   8.618
 4480SOL     OW15336  11.844   2.426   0.581
 4480SOL    HW115337  11.899   2.468   0.515
 4480SOL    HW215338  11.846   2.487   0.655
 4481SOL     OW15339  11.398   3.559   6.237
 4481SOL    HW115340  11.413   3.539   6.145
 4481SOL    HW215341  11.482   3.540   6.279
 4482SOL     OW15342  12.118   4.316  13.780
 4482SOL    HW115343  12.199   4.266  13.769
 4482SOL    HW215344  12.064   4.261  13.837
 4483SOL     OW15345  14.713   0.322   2.690
 4483SOL    HW115346  14.762   0.358   2.764
 4483SOL    HW215347  14.687   0.398   2.639
 4484SOL     OW15348   4.429   2.348   5.530
 4484SOL    HW115349   4.479   2.267   5.519
 4484SOL    HW215350   4.343   2.319   5.560
 4485SOL     OW15351  13.092   4.873   0.872
 4485SOL    HW115352  13.166   4.821   0.903
 4485SOL    HW215353  13.133   4.950   0.832
 4486SOL     OW15354  12.260   9.268   0.851
 4486SOL    HW115355  12.201   9.211   0.899
 4486SOL    HW215356  12.236   9.356   0.880
 4487SOL     OW15357   2.074  14.864   6.586
 4487SOL    HW115358   2.055  14.840   6.677
 4487SOL    HW215359   2.068  14.782   6.538
 4488SOL     OW15360  13.267   7.644   2.344
 4488SOL    HW115361  13.280   7.603   2.258
 4488SOL    HW215362  13.176   7.624   2.366
 4489SOL     OW15363   9.551   0.591   9.061
 4489SOL    HW115364   9.506   0.588   8.976
 4489SOL    HW215365   9.588   0.504   9.071
 4490SOL     OW15366   6.417   6.587  14.014
 4490SOL    HW115367   6.366   6.643  13.955
 4490SOL    HW215368   6.507   6.619  14.005
 4491SOL     OW15369   0.249   8.444   6.257
 4491SOL    HW115370   0.183   8.465   6.190
 4491SOL    HW215371   0.199   8.430   6.337
 4492SOL     OW15372  14.237   4.884   8.151
 4492SOL    HW115373  14.316   4.836   8.129
 4492SOL    HW215374  14.251   4.971   8.113
 4493SOL     OW15375  11.582   2.629   8.037
 4493SOL    HW115376  11.582   2.673   8.122
 4493SOL    HW215377  11.500   2.580   8.035
 4494SOL     OW15378  13.861   2.343  11.395
 4494SOL    HW115379  13.841   2.312  11.307
 4494SOL    HW215380  13.889   2.434  11.383
 4495SOL     OW15381   1.314  13.118  12.114
 4495SOL    HW115382   1.305  13.173  12.037
 4495SOL    HW215383   1.224  13.094  12.138
 4496SOL     OW15384   2.665   4.512   4.484
 4496SOL    HW115385   2.681   4.508   4.579
 4496SOL    HW215386   2.575   4.542   4.476
 4497SOL     OW15387   0.466  10.221   3.985
 4497SOL    HW115388   0.380  10.247   4.016
 4497SOL    HW215389   0.518  10.210   4.065
 4498SOL     OW15390  12.652  12.756  11.003
 4498SOL    HW115391  12.567  12.774  10.963
 4498SOL    HW215392  12.693  12.842  11.011
 4499SOL     OW15393   1.751   3.792   3.789
 4499SOL    HW115394   1.843   3.783   3.763
 4499SOL    HW215395   1.747   3.875   3.837
 4500SOL     OW15396   2.483  10.179  13.706
 4500SOL    HW115397   2.443  10.117  13.767
 4500SOL    HW215398   2.425  10.254  13.706
 4501SOL     OW15399  10.429  10.168   9.150
 4501SOL    HW115400  10.389  10.229   9.088
 4501SOL    HW215401  10.453  10.223   9.225
 4502SOL     OW15402   7.139  13.776   2.730
 4502SOL    HW115403   7.051  13.783   2.694
 4502SOL    HW215404   7.152  13.859   2.777
 4503SOL     OW15405   2.526   8.661   3.804
 4503SOL    HW115406   2.532   8.583   3.858
 4503SOL    HW215407   2.440   8.699   3.825
 4504SOL     OW15408   2.645   1.565  12.279
 4504SOL    HW115409   2.714   1.626  12.303
 4504SOL    HW215410   2.586   1.563  12.354
 4505SOL     OW15411  13.215  11.032   0.894
 4505SOL    HW115412  13.173  11.118   0.901
 4505SOL    HW215413  13.307  11.051   0.875
 4506SOL     OW15414   1.754   8.028   2.321
 4506SOL    HW115415   1.776   8.119   2.300
 4506SOL    HW215416   1.659   8.023   2.311
 4507SOL     OW15417   7.111  10.273   8.429
 4507SOL    HW115418   7.089  10.201   8.488
 4507SOL    HW215419   7.201  10.296   8.452
 4508SOL     OW15420  10.769   3.640   4.007
 4508SOL    HW115421  10.741   3.681   4.089
 4508SOL    HW215422  10.845   3.691   3.980
 4509SOL     OW15423   9.020   0.539  12.503
 4509SOL    HW115424   8.925   0.547  12.497
 4509SOL    HW215425   9.052   0.629  12.495
 4510SOL     OW15426   9.741  10.562   4.261
 4510SOL    HW115427   9.818  10.528   4.307
 4510SOL    HW215428   9.677  10.578   4.330
 4511SOL     OW15429  12.489   1.179   2.970
 4511SOL    HW115430  12.541   1.245   3.015
 4511SOL    HW215431  12.553   1.132   2.916
 4512SOL     OW15432   6.054   6.850   2.512
 4512SOL    HW115433   5.982   6.806   2.557
 4512SOL    HW215434   6.121   6.860   2.580
 4513SOL     OW15435   3.063  11.703  13.863
 4513SOL    HW115436   3.011  11.783  13.854
 4513SOL    HW215437   3.095  11.685  13.775
 4514SOL     OW15438   9.653   4.089   3.693
 4514SOL    HW115439   9.710   4.130   3.758
 4514SOL    HW215440   9.649   3.997   3.719
 4515SOL     OW15441  13.544  11.845  14.630
 4515SOL    HW115442  13.596  11.900  14.688
 4515SOL    HW215443  13.537  11.761  14.676
 4516SOL     OW15444   9.617   7.679   8.545
 4516SOL    HW115445   9.625   7.585   8.525
 4516SOL    HW215446   9.706   7.706   8.566
 4517SOL     OW15447   2.198  14.516   7.797
 4517SOL    HW115448   2.147  14.585   7.754
 4517SOL    HW215449   2.222  14.554   7.881
 4518SOL     OW15450   4.748   6.188   1.227
 4518SOL    HW115451   4.771   6.173   1.318
 4518SOL    HW215452   4.682   6.258   1.230
 4519SOL     OW15453   0.255  11.759   9.091
 4519SOL    HW115454   0.268  11.719   9.178
 4519SOL    HW215455   0.301  11.843   9.097
 4520SOL     OW15456   9.836   4.243   5.181
 4520SOL    HW115457   9.832   4.150   5.156
 4520SOL    HW215458   9.910   4.277   5.131
 4521SOL     OW15459   1.130  11.753   6.852
 4521SOL    HW115460   1.148  11.660   6.841
 4521SOL    HW215461   1.186  11.796   6.787
 4522SOL     OW15462   3.104  14.016   1.791
 4522SOL    HW115463   3.142  14.086   1.739
 4522SOL    HW215464   3.170  13.998   1.859
 4523SOL     OW15465  12.488   7.693   8.631
 4523SOL    HW115466  12.550   7.726   8.566
 4523SOL    HW215467  12.517   7.731   8.714
 4524SOL     OW15468   6.961   6.253   7.085
 4524SOL    HW115469   6.875   6.261   7.125
 4524SOL    HW215470   6.973   6.159   7.072
 4525SOL     OW15471  14.413  11.073   3.844
 4525SOL    HW115472  14.432  11.092   3.936
 4525SOL    HW215473  14.319  11.056   3.842
 4526SOL     OW15474   5.412   7.766  11.433
 4526SOL    HW115475   5.353   7.701  11.472
 4526SOL    HW215476   5.499   7.736  11.458
 4527SOL     OW15477  13.915   8.508  10.270
 4527SOL    HW115478  13.860   8.538  10.198
 4527SOL    HW215479  13.931   8.415  10.251
 4528SOL     OW15480   5.476   4.006   4.340
 4528SOL    HW115481   5.568   3.991   4.364
 4528SOL    HW215482   5.477   4.090   4.294
 4529SOL     OW15483   4.348   1.797  10.856
 4529SOL    HW115484   4.253   1.789  10.847
 4529SOL    HW215485   4.381   1.793  10.766
 4530SOL     OW15486   9.828   5.902  14.720
 4530SOL    HW115487   9.861   5.813  14.707
 4530SOL    HW215488   9.841   5.920  14.813
 4531SOL     OW15489   9.329   2.253   9.958
 4531SOL    HW115490   9.394   2.283   9.896
 4531SOL    HW215491   9.247   2.251   9.909
 4532SOL     OW15492   8.145   3.104  12.338
 4532SOL    HW115493   8.148   3.032  12.276
 4532SOL    HW215494   8.056   3.137  12.333
 4533SOL     OW15495  13.958   3.018   4.285
 4533SOL    HW115496  13.985   3.054   4.200
 4533SOL    HW215497  13.906   3.087   4.325
 4534SOL     OW15498  13.371   2.412   0.340
 4534SOL    HW115499  13.440   2.466   0.301
 4534SOL    HW215500  13.310   2.395   0.268
 4535SOL     OW15501  10.602  10.483  14.064
 4535SOL    HW115502  10.638  10.399  14.034
 4535SOL    HW215503  10.670  10.520  14.120
 4536SOL     OW15504   7.017  14.435   9.227
 4536SOL    HW115505   7.022  14.462   9.319
 4536SOL    HW215506   7.089  14.373   9.216
 4537SOL     OW15507   0.165   5.361  10.467
 4537SOL    HW115508   0.240   5.321  10.510
 4537SOL    HW215509   0.113   5.398  10.539
 4538SOL     OW15510   9.639   2.350  13.157
 4538SOL    HW115511   9.612   2.439  13.133
 4538SOL    HW215512   9.558   2.305  13.179
 4539SOL     OW15513  13.120  12.243  12.223
 4539SOL    HW115514  13.142  12.149  12.223
 4539SOL    HW215515  13.047  12.250  12.162
 4540SOL     OW15516   3.503  12.224  10.507
 4540SOL    HW115517   3.452  12.172  10.445
 4540SOL    HW215518   3.577  12.257  10.456
 4541SOL     OW15519   9.267   9.972  13.835
 4541SOL    HW115520   9.276   9.886  13.877
 4541SOL    HW215521   9.173   9.985  13.827
 4542SOL     OW15522  14.164   7.529   3.212
 4542SOL    HW115523  14.255   7.501   3.217
 4542SOL    HW215524  14.116   7.452   3.180
 4543SOL     OW15525   2.963  11.056   2.919
 4543SOL    HW115526   3.027  11.019   2.980
 4543SOL    HW215527   2.908  11.113   2.974
 4544SOL     OW15528   0.298  14.331   7.506
 4544SOL    HW115529   0.220  14.304   7.458
 4544SOL    HW215530   0.356  14.366   7.439
 4545SOL     OW15531   8.056  14.690   7.566
 4545SOL    HW115532   8.004  14.770   7.558
 4545SOL    HW215533   8.122  14.712   7.632
 4546SOL     OW15534   2.674  13.039   9.638
 4546SOL    HW115535   2.686  13.048   9.544
 4546SOL    HW215536   2.637  12.951   9.649
 4547SOL     OW15537   2.658   6.912  11.557
 4547SOL    HW115538   2.748   6.880  11.560
 4547SOL    HW215539   2.614   6.869  11.630
 4548SOL     OW15540   8.464   4.362   6.716
 4548SOL    HW115541   8.520   4.438   6.705
 4548SOL    HW215542   8.463   4.319   6.631
 4549SOL     OW15543   5.384   2.919   8.390
 4549SOL    HW115544   5.319   2.902   8.459
 4549SOL    HW215545   5.453   2.856   8.407
 4550SOL     OW15546  12.786  13.510   0.655
 4550SOL    HW115547  12.701  13.483   0.622
 4550SOL    HW215548  12.849  13.470   0.595
 4551SOL     OW15549   5.150  13.940  14.078
 4551SOL    HW115550   5.226  13.885  14.092
 4551SOL    HW215551   5.185  14.022  14.044
 4552SOL     OW15552  11.598   7.663  12.506
 4552SOL    HW115553  11.566   7.712  12.582
 4552SOL    HW215554  11.686   7.697  12.491
 4553SOL     OW15555   1.128   7.843  13.749
 4553SOL    HW115556   1.196   7.806  13.693
 4553SOL    HW215557   1.048   7.798  13.722
 4554SOL     OW15558   6.510   7.493  10.617
 4554SOL    HW115559   6.419   7.505  10.645
 4554SOL    HW215560   6.525   7.561  10.552
 4555SOL     OW15561   4.111   4.686   1.507
 4555SOL    HW115562   4.131   4.759   1.450
 4555SOL    HW215563   4.024   4.705   1.543
 4556SOL     OW15564  13.888  14.350   9.416
 4556SOL    HW115565  13.889  14.444   9.399
 4556SOL    HW215566  13.979  14.327   9.432
 4557SOL     OW15567  10.864  14.860   5.938
 4557SOL    HW115568  10.838  14.785   5.992
 4557SOL    HW215569  10.783   0.020   5.897
 4558SOL     OW15570   2.267  11.554   8.109
 4558SOL    HW115571   2.316  11.481   8.146
 4558SOL    HW215572   2.217  11.589   8.183
 4559SOL     OW15573   8.068  11.763   2.582
 4559SOL    HW115574   8.031  11.687   2.626
 4559SOL    HW215575   8.126  11.727   2.515
 4560SOL     OW15576   8.058   3.884  12.248
 4560SOL    HW115577   8.152   3.876  12.228
 4560SOL    HW215578   8.055   3.919  12.337
 4561SOL     OW15579   5.607   7.874   5.281
 4561SOL    HW115580   5.636   7.787   5.306
 4561SOL    HW215581   5.546   7.900   5.350
 4562SOL     OW15582   3.997   5.375  10.015
 4562SOL    HW115583   3.988   5.281   9.998
 4562SOL    HW215584   4.076   5.401   9.967
 4563SOL     OW15585   8.254   2.669   1.684
 4563SOL    HW115586   8.326   2.669   1.747
 4563SOL    HW215587   8.290   2.713   1.607
 4564SOL     OW15588  11.453   0.553   5.950
 4564SOL    HW115589  11.529   0.606   5.975
 4564SOL    HW215590  11.431   0.583   5.862
 4565SOL     OW15591   5.842  12.335   6.844
 4565SOL    HW115592   5.921  12.352   6.792
 4565SOL    HW215593   5.859  12.378   6.928
 4566SOL     OW15594  14.644   5.826  14.187
 4566SOL    HW115595  14.714   5.836  14.122
 4566SOL    HW215596  14.585   5.762  14.148
 4567SOL     OW15597  13.281   3.285  10.206
 4567SOL    HW115598  13.287   3.303  10.112
 4567SOL    HW215599  13.245   3.197  10.211
 4568SOL     OW15600  13.193  10.494  11.484
 4568SOL    HW115601  13.193  10.400  11.501
 4568SOL    HW215602  13.236  10.504  11.399
 4569SOL     OW15603   7.418   1.890  13.183
 4569SOL    HW115604   7.326   1.885  13.156
 4569SOL    HW215605   7.456   1.957  13.126
 4570SOL     OW15606   3.918  13.748   9.519
 4570SOL    HW115607   3.880  13.791   9.443
 4570SOL    HW215608   3.881  13.660   9.518
 4571SOL     OW15609   6.622   0.792   3.895
 4571SOL    HW115610   6.540   0.788   3.943
 4571SOL    HW215611   6.648   0.884   3.900
 4572SOL     OW15612   2.990  12.051   6.370
 4572SOL    HW115613   2.998  11.999   6.290
 4572SOL    HW215614   3.014  11.991   6.440
 4573SOL     OW15615   2.898   4.069   8.967
 4573SOL    HW115616   2.844   3.990   8.954
 4573SOL    HW215617   2.978   4.036   9.007
 4574SOL     OW15618   7.634   1.366  11.938
 4574SOL    HW115619   7.648   1.440  11.996
 4574SOL    HW215620   7.550   1.329  11.965
 4575SOL     OW15621   2.327   2.582   1.237
 4575SOL    HW115622   2.329   2.672   1.204
 4575SOL    HW215623   2.246   2.545   1.202
 4576SOL     OW15624   6.095   2.447   6.658
 4576SOL    HW115625   6.050   2.443   6.574
 4576SOL    HW215626   6.166   2.510   6.644
 4577SOL     OW15627  10.900   3.158   9.867
 4577SOL    HW115628  10.902   3.217   9.942
 4577SOL    HW215629  10.815   3.114   9.872
 4578SOL     OW15630  13.314   8.172   0.333
 4578SOL    HW115631  13.400   8.130   0.340
 4578SOL    HW215632  13.261   8.107   0.286
 4579SOL     OW15633   1.224   2.604  11.225
 4579SOL    HW115634   1.192   2.628  11.313
 4579SOL    HW215635   1.283   2.675  11.201
 4580SOL     OW15636   5.739   7.367   1.005
 4580SOL    HW115637   5.789   7.435   1.051
 4580SOL    HW215638   5.771   7.285   1.043
 4581SOL     OW15639   0.337   8.183  13.527
 4581SOL    HW115640   0.300   8.247  13.467
 4581SOL    HW215641   0.432   8.193  13.519
 4582SOL     OW15642   2.344  12.865   3.266
 4582SOL    HW115643   2.328  12.954   3.235
 4582SOL    HW215644   2.403  12.827   3.200
 4583SOL     OW15645  12.182   3.560  10.281
 4583SOL    HW115646  12.183   3.610  10.363
 4583SOL    HW215647  12.239   3.610  10.222
 4584SOL     OW15648   3.853   0.691  13.517
 4584SOL    HW115649   3.935   0.654  13.551
 4584SOL    HW215650   3.791   0.677  13.588
 4585SOL     OW15651   7.100   4.515  10.072
 4585SOL    HW115652   7.029   4.577  10.055
 4585SOL    HW215653   7.066   4.431  10.044
 4586SOL     OW15654   2.614  13.650  10.469
 4586SOL    HW115655   2.582  13.625  10.556
 4586SOL    HW215656   2.705  13.676  10.484
 4587SOL     OW15657   1.358   5.349  12.919
 4587SOL    HW115658   1.362   5.438  12.883
 4587SOL    HW215659   1.380   5.360  13.011
 4588SOL     OW15660   8.407   8.133  12.801
 4588SOL    HW115661   8.432   8.057  12.855
 4588SOL    HW215662   8.450   8.207  12.844
 4589SOL     OW15663   4.146  10.264   2.430
 4589SOL    HW115664   4.073  10.316   2.396
 4589SOL    HW215665   4.187  10.226   2.353
 4590SOL     OW15666   2.542  11.905   0.474
 4590SOL    HW115667   2.634  11.879   0.477
 4590SOL    HW215668   2.540  11.991   0.514
 4591SOL     OW15669   2.803  12.419   7.888
 4591SOL    HW115670   2.724  12.395   7.936
 4591SOL    HW215671   2.845  12.336   7.867
 4592SOL     OW15672   5.566   4.759   6.718
 4592SOL    HW115673   5.503   4.767   6.789
 4592SOL    HW215674   5.516   4.720   6.646
 4593SOL     OW15675   6.402   7.096  12.886
 4593SOL    HW115676   6.349   7.022  12.857
 4593SOL    HW215677   6.343   7.148  12.940
 4594SOL     OW15678  13.610   5.351  13.111
 4594SOL    HW115679  13.700   5.322  13.124
 4594SOL    HW215680  13.565   5.275  13.073
 4595SOL     OW15681   2.481   8.467   2.154
 4595SOL    HW115682   2.482   8.563   2.157
 4595SOL    HW215683   2.572   8.442   2.140
 4596SOL     OW15684   1.126   1.293   2.653
 4596SOL    HW115685   1.045   1.303   2.603
 4596SOL    HW215686   1.097   1.274   2.742
 4597SOL     OW15687   0.611   4.131   4.957
 4597SOL    HW115688   0.603   4.066   4.888
 4597SOL    HW215689   0.522   4.146   4.987
 4598SOL     OW15690  10.734  10.226   8.880
 4598SOL    HW115691  10.709  10.142   8.920
 4598SOL    HW215692  10.681  10.231   8.800
 4599SOL     OW15693  10.004  11.742   8.802
 4599SOL    HW115694  10.089  11.719   8.766
 4599SOL    HW215695  10.021  11.820   8.855
 4600SOL     OW15696  13.421   9.629   1.544
 4600SOL    HW115697  13.340   9.598   1.504
 4600SOL    HW215698  13.403   9.720   1.565
 4601SOL     OW15699   4.320   9.485   8.184
 4601SOL    HW115700   4.388   9.420   8.164
 4601SOL    HW215701   4.252   9.470   8.118
 4602SOL     OW15702  11.442  13.603   2.937
 4602SOL    HW115703  11.476  13.514   2.943
 4602SOL    HW215704  11.433  13.618   2.843
 4603SOL     OW15705   1.644  13.488   4.561
 4603SOL    HW115706   1.550  13.507   4.560
 4603SOL    HW215707   1.681  13.552   4.621
 4604SOL     OW15708  14.828   9.406  13.777
 4604SOL    HW115709  14.767   9.354  13.725
 4604SOL    HW215710   0.039   9.408  13.724
 4605SOL     OW15711   0.885   8.146  13.048
 4605SOL    HW115712   0.862   8.113  13.135
 4605SOL    HW215713   0.936   8.076  13.008
 4606SOL     OW15714   1.742   0.814   3.918
 4606SOL    HW115715   1.701   0.894   3.886
 4606SOL    HW215716   1.674   0.769   3.968
 4607SOL     OW15717   8.027   9.111   1.233
 4607SOL    HW115718   8.097   9.056   1.270
 4607SOL    HW215719   8.008   9.070   1.149
 4608SOL     OW15720   5.679   7.074   6.642
 4608SOL    HW115721   5.613   7.138   6.614
 4608SOL    HW215722   5.648   6.991   6.605
 4609SOL     OW15723   9.573  13.629  12.822
 4609SOL    HW115724   9.651  13.671  12.860
 4609SOL    HW215725   9.601  13.540  12.803
 4610SOL     OW15726   7.006   3.755  14.803
 4610SOL    HW115727   6.935   3.818  14.819
 4610SOL    HW215728   6.977   3.705  14.727
 4611SOL     OW15729   9.397  14.412   3.464
 4611SOL    HW115730   9.355  14.498   3.453
 4611SOL    HW215731   9.325  14.351   3.472
 4612SOL     OW15732   4.803   8.309   7.259
 4612SOL    HW115733   4.788   8.239   7.323
 4612SOL    HW215734   4.818   8.387   7.313
 4613SOL     OW15735   8.498   9.373  11.860
 4613SOL    HW115736   8.486   9.279  11.849
 4613SOL    HW215737   8.592   9.387  11.847
 4614SOL     OW15738   9.333   9.301   5.094
 4614SOL    HW115739   9.349   9.210   5.068
 4614SOL    HW215740   9.383   9.353   5.031
 4615SOL     OW15741   4.444   2.875   5.134
 4615SOL    HW115742   4.516   2.912   5.082
 4615SOL    HW215743   4.373   2.863   5.071
 4616SOL     OW15744   5.993   7.222   7.177
 4616SOL    HW115745   5.980   7.127   7.181
 4616SOL    HW215746   5.945   7.249   7.099
 4617SOL     OW15747   0.772  14.395   3.148
 4617SOL    HW115748   0.825  14.467   3.182
 4617SOL    HW215749   0.827  14.356   3.080
 4618SOL     OW15750  12.734   8.102  13.842
 4618SOL    HW115751  12.742   8.127  13.934
 4618SOL    HW215752  12.643   8.073  13.834
 4619SOL     OW15753  14.630   5.129  10.799
 4619SOL    HW115754  14.554   5.170  10.839
 4619SOL    HW215755  14.699   5.138  10.864
 4620SOL     OW15756  12.426   6.323   5.093
 4620SOL    HW115757  12.521   6.313   5.087
 4620SOL    HW215758  12.407   6.404   5.045
 4621SOL     OW15759   1.635  14.498   4.920
 4621SOL    HW115760   1.614  14.445   4.843
 4621SOL    HW215761   1.572  14.469   4.986
 4622SOL     OW15762  12.737   2.882   7.913
 4622SOL    HW115763  12.760   2.845   7.828
 4622SOL    HW215764  12.820   2.916   7.948
 4623SOL     OW15765   9.798   9.945  13.450
 4623SOL    HW115766   9.864   9.979  13.511
 4623SOL    HW215767   9.834   9.862  13.420
 4624SOL     OW15768   2.676   5.572   2.769
 4624SOL    HW115769   2.591   5.562   2.811
 4624SOL    HW215770   2.658   5.622   2.690
 4625SOL     OW15771   8.859   6.888   6.715
 4625SOL    HW115772   8.796   6.822   6.745
 4625SOL    HW215773   8.910   6.844   6.648
 4626SOL     OW15774  14.715   0.018   8.936
 4626SOL    HW115775  14.636   0.062   8.968
 4626SOL    HW215776  14.698  14.794   8.949
 4627SOL     OW15777   8.002   3.641   6.167
 4627SOL    HW115778   8.056   3.667   6.242
 4627SOL    HW215779   7.986   3.723   6.120
 4628SOL     OW15780   8.169   9.094   5.696
 4628SOL    HW115781   8.194   9.001   5.692
 4628SOL    HW215782   8.073   9.093   5.697
 4629SOL     OW15783   5.492  13.959  11.859
 4629SOL    HW115784   5.537  14.004  11.788
 4629SOL    HW215785   5.562  13.934  11.919
 4630SOL     OW15786   7.086   8.011   9.382
 4630SOL    HW115787   7.001   7.997   9.422
 4630SOL    HW215788   7.084   8.101   9.350
 4631SOL     OW15789   5.986   5.793  13.185
 4631SOL    HW115790   6.062   5.851  13.185
 4631SOL    HW215791   5.990   5.747  13.268
 4632SOL     OW15792   2.804  13.380   0.198
 4632SOL    HW115793   2.781  13.403   0.108
 4632SOL    HW215794   2.723  13.343   0.235
 4633SOL     OW15795  11.160   9.157   7.250
 4633SOL    HW115796  11.213   9.131   7.326
 4633SOL    HW215797  11.163   9.081   7.192
 4634SOL     OW15798   3.631   4.985   1.612
 4634SOL    HW115799   3.557   5.025   1.565
 4634SOL    HW215800   3.604   4.985   1.704
 4635SOL     OW15801   4.295   2.472  14.225
 4635SOL    HW115802   4.295   2.420  14.305
 4635SOL    HW215803   4.345   2.420  14.162
 4636SOL     OW15804   1.258   0.239   7.599
 4636SOL    HW115805   1.286   0.219   7.510
 4636SOL    HW215806   1.287   0.163   7.651
 4637SOL     OW15807   0.411   8.281  11.166
 4637SOL    HW115808   0.355   8.310  11.094
 4637SOL    HW215809   0.479   8.228  11.125
 4638SOL     OW15810  10.517  14.409   2.781
 4638SOL    HW115811  10.475  14.466   2.846
 4638SOL    HW215812  10.445  14.355   2.748
 4639SOL     OW15813  10.987   0.036   0.217
 4639SOL    HW115814  10.986   0.082   0.133
 4639SOL    HW215815  11.012  14.816   0.196
 4640SOL     OW15816   6.169   6.382   8.640
 4640SOL    HW115817   6.143   6.355   8.729
 4640SOL    HW215818   6.127   6.318   8.583
 4641SOL     OW15819  11.783   8.475   8.796
 4641SOL    HW115820  11.787   8.490   8.702
 4641SOL    HW215821  11.834   8.395   8.810
 4642SOL     OW15822   9.357  11.187   7.402
 4642SOL    HW115823   9.379  11.239   7.324
 4642SOL    HW215824   9.412  11.109   7.395
 4643SOL     OW15825  13.051   8.742  13.153
 4643SOL    HW115826  13.074   8.832  13.131
 4643SOL    HW215827  13.134   8.702  13.180
 4644SOL     OW15828   1.826   3.812  10.322
 4644SOL    HW115829   1.793   3.726  10.296
 4644SOL    HW215830   1.913   3.794  10.359
 4645SOL     OW15831  10.118   6.158  13.125
 4645SOL    HW115832  10.115   6.070  13.086
 4645SOL    HW215833  10.027   6.179  13.144
 4646SOL     OW15834   1.128   7.105   2.440
 4646SOL    HW115835   1.042   7.110   2.398
 4646SOL    HW215836   1.144   7.012   2.451
 4647SOL     OW15837   3.266   8.408   0.354
 4647SOL    HW115838   3.188   8.391   0.407
 4647SOL    HW215839   3.332   8.434   0.418
 4648SOL     OW15840   1.515   8.028   3.308
 4648SOL    HW115841   1.590   7.969   3.305
 4648SOL    HW215842   1.441   7.972   3.333
 4649SOL     OW15843  11.467  12.359   0.926
 4649SOL    HW115844  11.402  12.428   0.910
 4649SOL    HW215845  11.420  12.294   0.977
 4650SOL     OW15846   2.445   4.690   1.932
 4650SOL    HW115847   2.510   4.747   1.971
 4650SOL    HW215848   2.361   4.728   1.958
 4651SOL     OW15849   4.770   9.345  11.009
 4651SOL    HW115850   4.693   9.330  11.064
 4651SOL    HW215851   4.817   9.416  11.053
 4652SOL     OW15852   9.448   3.488   0.920
 4652SOL    HW115853   9.504   3.431   0.973
 4652SOL    HW215854   9.362   3.445   0.921
 4653SOL     OW15855   1.815   0.585   1.110
 4653SOL    HW115856   1.789   0.628   1.029
 4653SOL    HW215857   1.885   0.525   1.084
 4654SOL     OW15858  13.603   9.538   2.057
 4654SOL    HW115859  13.585   9.532   1.963
 4654SOL    HW215860  13.625   9.630   2.071
 4655SOL     OW15861   9.957   5.533   9.331
 4655SOL    HW115862   9.987   5.578   9.410
 4655SOL    HW215863   9.928   5.447   9.363
 4656SOL     OW15864   5.146  13.345  12.754
 4656SOL    HW115865   5.213  13.348  12.823
 4656SOL    HW215866   5.189  13.383  12.678
 4657SOL     OW15867   0.279  12.109   4.678
 4657SOL    HW115868   0.258  12.016   4.676
 4657SOL    HW215869   0.206  12.152   4.633
 4658SOL     OW15870  11.486  11.732   6.781
 4658SOL    HW115871  11.462  11.646   6.815
 4658SOL    HW215872  11.499  11.718   6.687
 4659SOL     OW15873  12.478  12.068   5.616
 4659SOL    HW115874  12.382  12.065   5.613
 4659SOL    HW215875  12.506  11.989   5.569
 4660SOL     OW15876   3.023  11.120   0.107
 4660SOL    HW115877   2.948  11.093   0.056
 4660SOL    HW215878   2.987  11.145   0.192
 4661SOL     OW15879   5.148  13.960  13.530
 4661SOL    HW115880   5.184  14.025  13.470
 4661SOL    HW215881   5.067  13.930  13.488
 4662SOL     OW15882   7.629  10.914  12.423
 4662SOL    HW115883   7.540  10.902  12.388
 4662SOL    HW215884   7.651  10.829  12.461
 4663SOL     OW15885   5.463   2.877  12.424
 4663SOL    HW115886   5.537   2.918  12.379
 4663SOL    HW215887   5.490   2.785  12.436
 4664SOL     OW15888   8.713  11.124   3.780
 4664SOL    HW115889   8.738  11.100   3.691
 4664SOL    HW215890   8.773  11.075   3.836
 4665SOL     OW15891   8.634   7.562   7.527
 4665SOL    HW115892   8.549   7.549   7.484
 4665SOL    HW215893   8.666   7.473   7.544
 4666SOL     OW15894   5.505   9.678   5.663
 4666SOL    HW115895   5.477   9.602   5.612
 4666SOL    HW215896   5.426   9.706   5.710
 4667SOL     OW15897   9.283  10.145   2.728
 4667SOL    HW115898   9.224  10.122   2.657
 4667SOL    HW215899   9.368  10.157   2.686
 4668SOL     OW15900  10.182   5.765  12.321
 4668SOL    HW115901  10.106   5.816  12.293
 4668SOL    HW215902  10.151   5.674  12.320
 4669SOL     OW15903   6.432   9.033   8.008
 4669SOL    HW115904   6.492   8.987   7.948
 4669SOL    HW215905   6.455   9.125   7.998
 4670SOL     OW15906  11.611  11.371  11.209
 4670SOL    HW115907  11.533  11.392  11.260
 4670SOL    HW215908  11.679  11.353  11.274
 4671SOL     OW15909  11.159   0.060  10.079
 4671SOL    HW115910  11.130   0.004  10.007
 4671SOL    HW215911  11.088   0.124  10.090
 4672SOL     OW15912  10.386   9.817   5.762
 4672SOL    HW115913  10.369   9.735   5.715
 4672SOL    HW215914  10.470   9.804   5.805
 4673SOL     OW15915   1.740   1.812   4.213
 4673SOL    HW115916   1.745   1.730   4.264
 4673SOL    HW215917   1.718   1.783   4.124
 4674SOL     OW15918  10.731   4.565   2.581
 4674SOL    HW115919  10.759   4.650   2.546
 4674SOL    HW215920  10.747   4.572   2.675
 4675SOL     OW15921   1.395  12.537  14.085
 4675SOL    HW115922   1.366  12.565  14.172
 4675SOL    HW215923   1.489  12.520  14.096
 4676SOL     OW15924  10.891  13.374  12.925
 4676SOL    HW115925  10.958  13.434  12.893
 4676SOL    HW215926  10.853  13.335  12.847
 4677SOL     OW15927  13.208   4.357  11.623
 4677SOL    HW115928  13.145   4.286  11.633
 4677SOL    HW215929  13.282   4.331  11.679
 4678SOL     OW15930   8.285   5.397  11.867
 4678SOL    HW115931   8.221   5.366  11.931
 4678SOL    HW215932   8.370   5.380  11.908
 4679SOL     OW15933   1.509   6.206   7.494
 4679SOL    HW115934   1.549   6.153   7.563
 4679SOL    HW215935   1.574   6.273   7.475
 4680SOL     OW15936   5.356  12.060   1.230
 4680SOL    HW115937   5.440  12.098   1.253
 4680SOL    HW215938   5.337  11.998   1.300
 4681SOL     OW15939   5.659   5.539   0.069
 4681SOL    HW115940   5.739   5.551   0.019
 4681SOL    HW215941   5.655   5.616   0.126
 4682SOL     OW15942   7.117   6.770   2.432
 4682SOL    HW115943   7.055   6.812   2.372
 4682SOL    HW215944   7.190   6.832   2.439
 4683SOL     OW15945   2.030   4.757   6.291
 4683SOL    HW115946   1.936   4.751   6.304
 4683SOL    HW215947   2.056   4.838   6.334
 4684SOL     OW15948   8.838  11.603  10.330
 4684SOL    HW115949   8.761  11.630  10.279
 4684SOL    HW215950   8.886  11.685  10.345
 4685SOL     OW15951  13.946  10.250   0.708
 4685SOL    HW115952  14.038  10.229   0.721
 4685SOL    HW215953  13.912  10.180   0.653
 4686SOL     OW15954   3.479  14.017   7.392
 4686SOL    HW115955   3.573  14.010   7.373
 4686SOL    HW215956   3.456  14.105   7.362
 4687SOL     OW15957   6.130  13.321   4.670
 4687SOL    HW115958   6.107  13.239   4.625
 4687SOL    HW215959   6.145  13.296   4.761
 4688SOL     OW15960  14.185   3.706   7.820
 4688SOL    HW115961  14.251   3.772   7.840
 4688SOL    HW215962  14.168   3.715   7.727
 4689SOL     OW15963  10.186   1.635  14.551
 4689SOL    HW115964  10.226   1.720  14.568
 4689SOL    HW215965  10.259   1.578  14.529
 4690SOL     OW15966   0.238   2.770  10.281
 4690SOL    HW115967   0.232   2.724  10.197
 4690SOL    HW215968   0.207   2.707  10.346
 4691SOL     OW15969  11.688   2.253   3.985
 4691SOL    HW115970  11.609   2.274   4.034
 4691SOL    HW215971  11.656   2.212   3.904
 4692SOL     OW15972  10.159   1.975   0.315
 4692SOL    HW115973  10.098   1.903   0.334
 4692SOL    HW215974  10.118   2.052   0.355
 4693SOL     OW15975   6.650   0.372   2.670
 4693SOL    HW115976   6.594   0.428   2.724
 4693SOL    HW215977   6.697   0.317   2.732
 4694SOL     OW15978  13.092   1.609  11.931
 4694SOL    HW115979  13.185   1.595  11.912
 4694SOL    HW215980  13.049   1.602  11.846
 4695SOL     OW15981   8.674   2.145   6.630
 4695SOL    HW115982   8.661   2.090   6.707
 4695SOL    HW215983   8.702   2.085   6.561
 4696SOL     OW15984  11.777  11.779  12.042
 4696SOL    HW115985  11.689  11.808  12.066
 4696SOL    HW215986  11.767  11.687  12.019
 4697SOL     OW15987   0.177   3.714   7.092
 4697SOL    HW115988   0.252   3.760   7.129
 4697SOL    HW215989   0.149   3.769   7.019
 4698SOL     OW15990  14.417  12.365   4.331
 4698SOL    HW115991  14.371  12.320   4.260
 4698SOL    HW215992  14.496  12.401   4.291
 4699SOL     OW15993  11.774  10.779   9.725
 4699SOL    HW115994  11.761  10.797   9.632
 4699SOL    HW215995  11.870  10.778   9.736
 4700SOL     OW15996   7.921   3.704  12.695
 4700SOL    HW115997   8.010   3.740  12.693
 4700SOL    HW215998   7.867   3.775  12.661
 4701SOL     OW15999  13.656   5.627   3.647
 4701SOL    HW116000  13.578   5.571   3.651
 4701SOL    HW216001  13.693   5.610   3.560
 4702SOL     OW16002   8.989  10.249  11.624
 4702SOL    HW116003   9.064  10.259  11.683
 4702SOL    HW216004   9.022  10.195  11.552
 4703SOL     OW16005  10.383   6.048   3.673
 4703SOL    HW116006  10.311   6.084   3.725
 4703SOL    HW216007  10.406   5.967   3.718
 4704SOL     OW16008  13.435   1.989  13.677
 4704SOL    HW116009  13.466   2.078  13.692
 4704SOL    HW216010  13.491   1.934  13.732
 4705SOL     OW16011   1.463   6.718   4.076
 4705SOL    HW116012   1.509   6.784   4.025
 4705SOL    HW216013   1.392   6.689   4.019
 4706SOL     OW16014  11.948   8.218   4.256
 4706SOL    HW116015  12.007   8.293   4.247
 4706SOL    HW216016  11.879   8.233   4.192
 4707SOL     OW16017   1.080  14.221   6.147
 4707SOL    HW116018   1.114  14.271   6.072
 4707SOL    HW216019   0.990  14.252   6.158
 4708SOL     OW16020   9.056   0.988   0.030
 4708SOL    HW116021   9.023   0.957   0.114
 4708SOL    HW216022   9.091   1.076   0.049
 4709SOL     OW16023  10.724   2.896   8.112
 4709SOL    HW116024  10.724   2.817   8.167
 4709SOL    HW216025  10.699   2.966   8.172
 4710SOL     OW16026  13.421  14.135  12.015
 4710SOL    HW116027  13.325  14.137  12.020
 4710SOL    HW216028  13.440  14.131  11.922
 4711SOL     OW16029   4.398   5.577   3.294
 4711SOL    HW116030   4.485   5.557   3.259
 4711SOL    HW216031   4.388   5.518   3.369
 4712SOL     OW16032   0.565  11.821   4.673
 4712SOL    HW116033   0.656  11.841   4.649
 4712SOL    HW216034   0.513  11.876   4.616
 4713SOL     OW16035   0.062   7.133   3.796
 4713SOL    HW116036  14.861   7.193   3.772
 4713SOL    HW216037   0.021   7.046   3.798
 4714SOL     OW16038   1.584  13.270   1.933
 4714SOL    HW116039   1.515  13.205   1.923
 4714SOL    HW216040   1.655  13.223   1.977
 4715SOL     OW16041   7.946   5.859  12.489
 4715SOL    HW116042   7.996   5.794  12.440
 4715SOL    HW216043   7.925   5.927  12.425
 4716SOL     OW16044  13.034   2.944   2.841
 4716SOL    HW116045  12.962   2.881   2.847
 4716SOL    HW216046  13.047   2.958   2.748
 4717SOL     OW16047  11.520   4.860  10.834
 4717SOL    HW116048  11.609   4.874  10.865
 4717SOL    HW216049  11.479   4.946  10.840
 4718SOL     OW16050   4.491   9.850   0.998
 4718SOL    HW116051   4.446   9.805   0.927
 4718SOL    HW216052   4.503   9.783   1.066
 4719SOL     OW16053   5.904   9.746   2.147
 4719SOL    HW116054   5.824   9.782   2.110
 4719SOL    HW216055   5.944   9.697   2.074
 4720SOL     OW16056   1.684   8.064   4.629
 4720SOL    HW116057   1.724   8.015   4.558
 4720SOL    HW216058   1.757   8.093   4.683
 4721SOL     OW16059   6.841  12.912  13.174
 4721SOL    HW116060   6.764  12.870  13.137
 4721SOL    HW216061   6.910  12.846  13.167
 4722SOL     OW16062   0.709   0.579   7.738
 4722SOL    HW116063   0.680   0.619   7.820
 4722SOL    HW216064   0.650   0.615   7.671
 4723SOL     OW16065   2.992   1.271  12.967
 4723SOL    HW116066   2.980   1.213  12.892
 4723SOL    HW216067   2.974   1.359  12.933
 4724SOL     OW16068   3.065   8.611   9.914
 4724SOL    HW116069   3.071   8.559   9.834
 4724SOL    HW216070   3.046   8.700   9.883
 4725SOL     OW16071  10.897   2.069   4.998
 4725SOL    HW116072  10.963   2.120   4.950
 4725SOL    HW216073  10.906   1.980   4.965
 4726SOL     OW16074  14.322   1.018   5.347
 4726SOL    HW116075  14.332   0.926   5.322
 4726SOL    HW216076  14.278   1.015   5.432
 4727SOL     OW16077   1.432   6.315  12.635
 4727SOL    HW116078   1.477   6.239  12.598
 4727SOL    HW216079   1.469   6.390  12.589
 4728SOL     OW16080  10.546  13.369   9.167
 4728SOL    HW116081  10.494  13.333   9.095
 4728SOL    HW216082  10.502  13.338   9.246
 4729SOL     OW16083   1.204   1.527  10.943
 4729SOL    HW116084   1.153   1.560  11.017
 4729SOL    HW216085   1.227   1.604  10.893
 4730SOL     OW16086   4.575   5.287   7.803
 4730SOL    HW116087   4.497   5.325   7.842
 4730SOL    HW216088   4.546   5.202   7.770
 4731SOL     OW16089   9.895   5.639   6.303
 4731SOL    HW116090   9.954   5.578   6.259
 4731SOL    HW216091   9.932   5.725   6.284
 4732SOL     OW16092  11.685   8.680   3.370
 4732SOL    HW116093  11.737   8.602   3.350
 4732SOL    HW216094  11.728   8.719   3.445
 4733SOL     OW16095   2.616   0.255   3.047
 4733SOL    HW116096   2.614   0.160   3.034
 4733SOL    HW216097   2.566   0.269   3.128
 4734SOL     OW16098   4.759   7.493   9.194
 4734SOL    HW116099   4.665   7.499   9.209
 4734SOL    HW216100   4.767   7.457   9.106
 4735SOL     OW16101  11.876   8.911   8.281
 4735SOL    HW116102  11.971   8.903   8.285
 4735SOL    HW216103  11.843   8.843   8.340
 4736SOL     OW16104  13.552   0.919   3.655
 4736SOL    HW116105  13.466   0.886   3.684
 4736SOL    HW216106  13.547   0.917   3.559
 4737SOL     OW16107  10.850   5.063   0.807
 4737SOL    HW116108  10.787   5.072   0.735
 4737SOL    HW216109  10.820   5.127   0.872
 4738SOL     OW16110   4.794   7.766   5.994
 4738SOL    HW116111   4.819   7.858   5.984
 4738SOL    HW216112   4.741   7.747   5.917
 4739SOL     OW16113  11.171   9.010  14.269
 4739SOL    HW116114  11.165   8.988  14.176
 4739SOL    HW216115  11.082   9.038  14.292
 4740SOL     OW16116   4.032   5.075   0.522
 4740SOL    HW116117   3.969   5.010   0.492
 4740SOL    HW216118   3.984   5.128   0.585
 4741SOL     OW16119   5.890   0.550   8.744
 4741SOL    HW116120   5.960   0.498   8.704
 4741SOL    HW216121   5.936   0.612   8.801
 4742SOL     OW16122  12.412   7.623   1.383
 4742SOL    HW116123  12.467   7.695   1.350
 4742SOL    HW216124  12.333   7.667   1.416
 4743SOL     OW16125   6.029   0.229   6.330
 4743SOL    HW116126   6.093   0.253   6.397
 4743SOL    HW216127   5.988   0.149   6.363
 4744SOL     OW16128   6.055  11.646   8.761
 4744SOL    HW116129   6.118  11.704   8.718
 4744SOL    HW216130   6.095  11.626   8.846
 4745SOL     OW16131  11.193   8.144   0.166
 4745SOL    HW116132  11.160   8.212   0.225
 4745SOL    HW216133  11.286   8.135   0.188
 4746SOL     OW16134   1.950   6.489  13.291
 4746SOL    HW116135   1.937   6.399  13.322
 4746SOL    HW216136   2.031   6.517  13.333
 4747SOL     OW16137   1.667   0.434   0.201
 4747SOL    HW116138   1.700   0.503   0.143
 4747SOL    HW216139   1.739   0.370   0.204
 4748SOL     OW16140  13.746   2.852   0.441
 4748SOL    HW116141  13.653   2.866   0.461
 4748SOL    HW216142  13.772   2.932   0.394
 4749SOL     OW16143   2.427   5.830  12.607
 4749SOL    HW116144   2.517   5.798  12.621
 4749SOL    HW216145   2.372   5.754  12.626
 4750SOL     OW16146   1.836   1.101  14.590
 4750SOL    HW116147   1.840   1.066  14.501
 4750SOL    HW216148   1.916   1.069  14.632
 4751SOL     OW16149   2.765  12.520   5.356
 4751SOL    HW116150   2.840  12.496   5.301
 4751SOL    HW216151   2.740  12.438   5.399
 4752SOL     OW16152   5.873   3.454  10.469
 4752SOL    HW116153   5.843   3.410  10.548
 4752SOL    HW216154   5.874   3.547  10.491
 4753SOL     OW16155  14.505   0.771  12.965
 4753SOL    HW116156  14.416   0.751  12.936
 4753SOL    HW216157  14.494   0.807  13.053
 4754SOL     OW16158   4.094   7.493   4.104
 4754SOL    HW116159   4.053   7.555   4.045
 4754SOL    HW216160   4.032   7.419   4.108
 4755SOL     OW16161   7.035  13.268  11.947
 4755SOL    HW116162   6.942  13.249  11.955
 4755SOL    HW216163   7.053  13.333  12.015
 4756SOL     OW16164   9.421   2.508   3.936
 4756SOL    HW116165   9.487   2.511   4.005
 4756SOL    HW216166   9.360   2.440   3.964
 4757SOL     OW16167   6.630   2.666   5.449
 4757SOL    HW116168   6.671   2.651   5.364
 4757SOL    HW216169   6.539   2.638   5.437
 4758SOL     OW16170   8.709   9.116  14.127
 4758SOL    HW116171   8.667   9.081  14.048
 4758SOL    HW216172   8.778   9.053  14.147
 4759SOL     OW16173  13.143   6.505  12.875
 4759SOL    HW116174  13.112   6.493  12.965
 4759SOL    HW216175  13.130   6.598  12.857
 4760SOL     OW16176  10.602  10.015  11.993
 4760SOL    HW116177  10.592   9.946  12.058
 4760SOL    HW216178  10.534  10.079  12.014
 4761SOL     OW16179   9.283   4.863   0.215
 4761SOL    HW116180   9.351   4.841   0.279
 4761SOL    HW216181   9.304   4.809   0.139
 4762SOL     OW16182   4.147   1.624   7.961
 4762SOL    HW116183   4.097   1.589   7.887
 4762SOL    HW216184   4.175   1.547   8.010
 4763SOL     OW16185   4.565   5.935   8.651
 4763SOL    HW116186   4.544   5.889   8.569
 4763SOL    HW216187   4.557   6.028   8.629
 4764SOL     OW16188   8.596   9.128  13.133
 4764SOL    HW116189   8.599   9.221  13.156
 4764SOL    HW216190   8.504   9.104  13.142
 4765SOL     OW16191  11.524   9.498   1.669
 4765SOL    HW116192  11.481   9.581   1.647
 4765SOL    HW216193  11.496   9.479   1.759
 4766SOL     OW16194   2.832   9.823   6.604
 4766SOL    HW116195   2.823   9.759   6.674
 4766SOL    HW216196   2.922   9.855   6.612
 4767SOL     OW16197   8.908   9.624  11.290
 4767SOL    HW116198   8.813   9.635  11.286
 4767SOL    HW216199   8.923   9.530  11.285
 4768SOL     OW16200  13.295   3.823  12.486
 4768SOL    HW116201  13.245   3.752  12.446
 4768SOL    HW216202  13.231   3.894  12.499
 4769SOL     OW16203   3.327   9.747   3.743
 4769SOL    HW116204   3.396   9.681   3.750
 4769SOL    HW216205   3.253   9.709   3.791
 4770SOL     OW16206   8.317   4.861   0.576
 4770SOL    HW116207   8.348   4.948   0.600
 4770SOL    HW216208   8.284   4.870   0.486
 4771SOL     OW16209  11.964  14.253   7.733
 4771SOL    HW116210  11.894  14.190   7.718
 4771SOL    HW216211  12.045  14.202   7.725
 4772SOL     OW16212   6.369   7.836   6.810
 4772SOL    HW116213   6.298   7.894   6.784
 4772SOL    HW216214   6.417   7.821   6.729
 4773SOL     OW16215   9.198   7.253  10.719
 4773SOL    HW116216   9.204   7.318  10.649
 4773SOL    HW216217   9.274   7.196  10.706
 4774SOL     OW16218   8.265   0.217   7.283
 4774SOL    HW116219   8.202   0.160   7.327
 4774SOL    HW216220   8.260   0.300   7.331
 4775SOL     OW16221   0.265  12.878   7.746
 4775SOL    HW116222   0.274  12.954   7.803
 4775SOL    HW216223   0.199  12.824   7.789
 4776SOL     OW16224  14.653   3.987  10.144
 4776SOL    HW116225  14.721   3.921  10.155
 4776SOL    HW216226  14.602   3.982  10.224
 4777SOL     OW16227  13.462   0.506   8.387
 4777SOL    HW116228  13.381   0.558   8.386
 4777SOL    HW216229  13.438   0.427   8.436
 4778SOL     OW16230   0.833  10.063   5.173
 4778SOL    HW116231   0.878   9.996   5.124
 4778SOL    HW216232   0.840  10.035   5.265
 4779SOL     OW16233  12.838   2.364  12.757
 4779SOL    HW116234  12.752   2.374  12.718
 4779SOL    HW216235  12.823   2.315  12.838
 4780SOL     OW16236  10.890  10.585   3.856
 4780SOL    HW116237  10.824  10.573   3.788
 4780SOL    HW216238  10.916  10.677   3.849
 4781SOL     OW16239   7.873  10.097   5.304
 4781SOL    HW116240   7.912  10.011   5.287
 4781SOL    HW216241   7.802  10.079   5.366
 4782SOL     OW16242   0.055  13.017   7.598
 4782SOL    HW116243   0.089  12.931   7.622
 4782SOL    HW216244   0.120  13.079   7.631
 4783SOL     OW16245   9.615   3.627   2.221
 4783SOL    HW116246   9.681   3.621   2.152
 4783SOL    HW216247   9.662   3.605   2.301
 4784SOL     OW16248   9.576  12.625   7.010
 4784SOL    HW116249   9.665  12.621   6.976
 4784SOL    HW216250   9.520  12.608   6.934
 4785SOL     OW16251  12.444   1.792   3.544
 4785SOL    HW116252  12.536   1.817   3.551
 4785SOL    HW216253  12.418   1.822   3.457
 4786SOL     OW16254   7.125   2.897  10.004
 4786SOL    HW116255   7.169   2.821  10.040
 4786SOL    HW216256   7.137   2.890   9.909
 4787SOL     OW16257  12.760   3.859   7.697
 4787SOL    HW116258  12.803   3.883   7.615
 4787SOL    HW216259  12.824   3.806   7.743
 4788SOL     OW16260   5.828   0.428   5.363
 4788SOL    HW116261   5.803   0.520   5.371
 4788SOL    HW216262   5.788   0.386   5.439
 4789SOL     OW16263   4.813  12.270   2.323
 4789SOL    HW116264   4.898  12.227   2.310
 4789SOL    HW216265   4.781  12.234   2.406
 4790SOL     OW16266  12.532   2.368  11.158
 4790SOL    HW116267  12.609   2.424  11.146
 4790SOL    HW216268  12.540   2.302  11.089
 4791SOL     OW16269  10.991   4.728   2.828
 4791SOL    HW116270  11.008   4.799   2.766
 4791SOL    HW216271  10.899   4.737   2.850
 4792SOL     OW16272  10.844   6.607  14.359
 4792SOL    HW116273  10.893   6.553  14.297
 4792SOL    HW216274  10.849   6.558  14.441
 4793SOL     OW16275   9.485   8.826   7.764
 4793SOL    HW116276   9.477   8.757   7.830
 4793SOL    HW216277   9.394   8.851   7.745
 4794SOL     OW16278  12.227  12.779   1.302
 4794SOL    HW116279  12.279  12.722   1.359
 4794SOL    HW216280  12.264  12.866   1.314
 4795SOL     OW16281  12.470   4.772  11.863
 4795SOL    HW116282  12.404   4.818  11.916
 4795SOL    HW216283  12.502   4.839  11.803
 4796SOL     OW16284   6.916  10.268  11.602
 4796SOL    HW116285   6.835  10.273  11.654
 4796SOL    HW216286   6.952  10.356  11.607
 4797SOL     OW16287  13.535   2.010  14.302
 4797SOL    HW116288  13.623   1.973  14.308
 4797SOL    HW216289  13.477   1.941  14.334
 4798SOL     OW16290   0.392  12.892   8.179
 4798SOL    HW116291   0.322  12.897   8.114
 4798SOL    HW216292   0.418  12.983   8.194
 4799SOL     OW16293   6.138   2.071   2.987
 4799SOL    HW116294   6.187   1.989   2.993
 4799SOL    HW216295   6.074   2.066   3.058
 4800SOL     OW16296   9.982  12.215   0.826
 4800SOL    HW116297   9.947  12.146   0.882
 4800SOL    HW216298   9.996  12.173   0.741
 4801SOL     OW16299   8.139   1.793   2.976
 4801SOL    HW116300   8.062   1.806   2.922
 4801SOL    HW216301   8.212   1.795   2.914
 4802SOL     OW16302   2.472   9.598   2.754
 4802SOL    HW116303   2.420   9.524   2.723
 4802SOL    HW216304   2.550   9.558   2.792
 4803SOL     OW16305  10.369   7.206  11.687
 4803SOL    HW116306  10.324   7.142  11.742
 4803SOL    HW216307  10.298   7.259  11.649
 4804SOL     OW16308  11.982  14.064   5.898
 4804SOL    HW116309  12.011  13.988   5.949
 4804SOL    HW216310  11.914  14.029   5.841
 4805SOL     OW16311   7.816  10.594   4.314
 4805SOL    HW116312   7.869  10.609   4.236
 4805SOL    HW216313   7.820  10.677   4.362
 4806SOL     OW16314  12.079   9.551   5.203
 4806SOL    HW116315  12.106   9.478   5.259
 4806SOL    HW216316  12.026   9.509   5.134
 4807SOL     OW16317   0.665   8.880   4.702
 4807SOL    HW116318   0.717   8.959   4.686
 4807SOL    HW216319   0.658   8.875   4.797
 4808SOL     OW16320   7.714   7.570  11.719
 4808SOL    HW116321   7.684   7.514  11.647
 4808SOL    HW216322   7.722   7.657  11.680
 4809SOL     OW16323   7.738   2.346   3.192
 4809SOL    HW116324   7.743   2.259   3.231
 4809SOL    HW216325   7.744   2.331   3.098
 4810SOL     OW16326   2.186  12.270   5.980
 4810SOL    HW116327   2.217  12.300   6.065
 4810SOL    HW216328   2.205  12.177   5.979
 4811SOL     OW16329   5.841   4.157  13.410
 4811SOL    HW116330   5.920   4.162  13.357
 4811SOL    HW216331   5.770   4.173  13.348
 4812SOL     OW16332   1.957   7.200   1.136
 4812SOL    HW116333   1.982   7.164   1.222
 4812SOL    HW216334   1.878   7.153   1.113
 4813SOL     OW16335  10.263   1.998   0.052
 4813SOL    HW116336  10.237   2.023   0.140
 4813SOL    HW216337  10.299   1.910   0.061
 4814SOL     OW16338  13.064   7.436   5.322
 4814SOL    HW116339  13.103   7.435   5.409
 4814SOL    HW216340  13.120   7.379   5.269
 4815SOL     OW16341   6.095  12.398   0.127
 4815SOL    HW116342   6.169  12.416   0.070
 4815SOL    HW216343   6.092  12.302   0.133
 4816SOL     OW16344  13.444  12.382  12.639
 4816SOL    HW116345  13.386  12.451  12.670
 4816SOL    HW216346  13.424  12.374  12.545
 4817SOL     OW16347   6.619   5.797   4.665
 4817SOL    HW116348   6.567   5.862   4.617
 4817SOL    HW216349   6.696   5.846   4.695
 4818SOL     OW16350   1.772  10.192   4.193
 4818SOL    HW116351   1.820  10.114   4.222
 4818SOL    HW216352   1.766  10.247   4.271
 4819SOL     OW16353   5.479   6.016   2.086
 4819SOL    HW116354   5.468   6.092   2.028
 4819SOL    HW216355   5.544   6.044   2.150
 4820SOL     OW16356   9.104  10.460   7.440
 4820SOL    HW116357   9.124  10.373   7.405
 4820SOL    HW216358   9.036  10.494   7.381
 4821SOL     OW16359   4.377   0.531   8.457
 4821SOL    HW116360   4.356   0.596   8.390
 4821SOL    HW216361   4.426   0.463   8.410
 4822SOL     OW16362   8.330   3.026   3.473
 4822SOL    HW116363   8.403   2.999   3.530
 4822SOL    HW216364   8.252   3.016   3.527
 4823SOL     OW16365  13.014   9.037   8.067
 4823SOL    HW116366  13.026   9.130   8.045
 4823SOL    HW216367  12.941   9.009   8.012
 4824SOL     OW16368   6.779   4.520  14.514
 4824SOL    HW116369   6.812   4.579  14.446
 4824SOL    HW216370   6.852   4.461  14.533
 4825SOL     OW16371  14.302  14.097   5.830
 4825SOL    HW116372  14.387  14.122   5.793
 4825SOL    HW216373  14.291  14.153   5.906
 4826SOL     OW16374  12.464  13.500   7.540
 4826SOL    HW116375  12.471  13.567   7.608
 4826SOL    HW216376  12.553  13.487   7.509
 4827SOL     OW16377   4.059   1.884   0.144
 4827SOL    HW116378   4.149   1.893   0.175
 4827SOL    HW216379   4.057   1.933   0.062
 4828SOL     OW16380   4.494   3.014   5.987
 4828SOL    HW116381   4.511   2.949   5.919
 4828SOL    HW216382   4.413   3.056   5.959
 4829SOL     OW16383   1.791   7.407  14.673
 4829SOL    HW116384   1.848   7.339  14.638
 4829SOL    HW216385   1.711   7.362  14.699
 4830SOL     OW16386   3.968   3.807   1.318
 4830SOL    HW116387   3.991   3.832   1.229
 4830SOL    HW216388   3.961   3.889   1.366
 4831SOL     OW16389  10.608   8.646   9.040
 4831SOL    HW116390  10.544   8.691   9.094
 4831SOL    HW216391  10.567   8.563   9.018
 4832SOL     OW16392   6.850   6.258  10.592
 4832SOL    HW116393   6.853   6.277  10.498
 4832SOL    HW216394   6.925   6.201  10.607
 4833SOL     OW16395   7.090   2.373  14.560
 4833SOL    HW116396   7.034   2.334  14.493
 4833SOL    HW216397   7.178   2.371  14.523
 4834SOL     OW16398  10.847   4.516  14.829
 4834SOL    HW116399  10.790   4.439  14.831
 4834SOL    HW216400  10.904   4.503  14.753
 4835SOL     OW16401  10.628   2.926   3.755
 4835SOL    HW116402  10.543   2.882   3.760
 4835SOL    HW216403  10.640   2.965   3.842
 4836SOL     OW16404   9.855  13.600   6.016
 4836SOL    HW116405   9.898  13.519   6.043
 4836SOL    HW216406   9.762  13.582   6.026
 4837SOL     OW16407   7.767   9.805   0.159
 4837SOL    HW116408   7.784   9.884   0.210
 4837SOL    HW216409   7.797   9.827   0.071
 4838SOL     OW16410   5.161   5.333   6.184
 4838SOL    HW116411   5.073   5.297   6.169
 4838SOL    HW216412   5.150   5.391   6.259
 4839SOL     OW16413   2.110   5.629   4.315
 4839SOL    HW116414   2.097   5.632   4.220
 4839SOL    HW216415   2.021   5.630   4.351
 4840SOL     OW16416  14.295   6.917  11.952
 4840SOL    HW116417  14.246   6.868  12.018
 4840SOL    HW216418  14.387   6.905  11.977
 4841SOL     OW16419   5.109   0.349   0.202
 4841SOL    HW116420   5.097   0.259   0.173
 4841SOL    HW216421   5.105   0.402   0.122
 4842SOL     OW16422  12.436  14.555   5.404
 4842SOL    HW116423  12.382  14.483   5.373
 4842SOL    HW216424  12.526  14.521   5.400
 4843SOL     OW16425  13.120  14.850   5.136
 4843SOL    HW116426  13.122   0.039   5.060
 4843SOL    HW216427  13.127   0.040   5.211
 4844SOL     OW16428  11.640   2.984   0.839
 4844SOL    HW116429  11.637   2.920   0.768
 4844SOL    HW216430  11.628   3.069   0.797
 4845SOL     OW16431  12.215   4.235  12.161
 4845SOL    HW116432  12.221   4.230  12.065
 4845SOL    HW216433  12.301   4.265  12.189
 4846SOL     OW16434   6.693   8.888   7.001
 4846SOL    HW116435   6.693   8.803   7.046
 4846SOL    HW216436   6.608   8.892   6.958
 4847SOL     OW16437  12.864   7.618  12.670
 4847SOL    HW116438  12.937   7.678  12.679
 4847SOL    HW216439  12.868   7.563  12.748
 4848SOL     OW16440  13.274  11.203   7.228
 4848SOL    HW116441  13.233  11.289   7.219
 4848SOL    HW216442  13.340  11.200   7.160
 4849SOL     OW16443   8.589   1.693  10.107
 4849SOL    HW116444   8.525   1.696  10.178
 4849SOL    HW216445   8.673   1.713  10.149
 4850SOL     OW16446   3.142  14.378   0.068
 4850SOL    HW116447   3.095  14.408  14.860
 4850SOL    HW216448   3.086  14.312   0.107
 4851SOL     OW16449   0.359   6.826  13.048
 4851SOL    HW116450   0.297   6.883  13.001
 4851SOL    HW216451   0.432   6.883  13.071
 4852SOL     OW16452   9.188  13.665   8.625
 4852SOL    HW116453   9.147  13.695   8.544
 4852SOL    HW216454   9.188  13.742   8.681
 4853SOL     OW16455   3.289  12.458   0.480
 4853SOL    HW116456   3.323  12.533   0.529
 4853SOL    HW216457   3.367  12.410   0.453
 4854SOL     OW16458  12.061   0.597   8.763
 4854SOL    HW116459  12.147   0.570   8.796
 4854SOL    HW216460  12.081   0.647   8.684
 4855SOL     OW16461   8.496  14.457   7.422
 4855SOL    HW116462   8.455  14.398   7.360
 4855SOL    HW216463   8.477  14.420   7.508
 4856SOL     OW16464  13.716   4.317   9.862
 4856SOL    HW116465  13.693   4.291   9.951
 4856SOL    HW216466  13.663   4.260   9.806
 4857SOL     OW16467  12.702  13.928  12.298
 4857SOL    HW116468  12.652  13.988  12.354
 4857SOL    HW216469  12.658  13.933  12.213
 4858SOL     OW16470   8.457   4.421   6.106
 4858SOL    HW116471   8.390   4.425   6.037
 4858SOL    HW216472   8.518   4.491   6.083
 4859SOL     OW16473  12.681   3.337   5.467
 4859SOL    HW116474  12.701   3.418   5.514
 4859SOL    HW216475  12.673   3.270   5.535
 4860SOL     OW16476  10.639   4.150   9.311
 4860SOL    HW116477  10.684   4.067   9.291
 4860SOL    HW216478  10.709   4.214   9.316
 4861SOL     OW16479  14.332   8.499   3.930
 4861SOL    HW116480  14.310   8.532   4.018
 4861SOL    HW216481  14.260   8.440   3.909
 4862SOL     OW16482   0.681  12.392  10.626
 4862SOL    HW116483   0.737  12.315  10.629
 4862SOL    HW216484   0.691  12.432  10.713
 4863SOL     OW16485   5.552  13.229   2.501
 4863SOL    HW116486   5.471  13.181   2.518
 4863SOL    HW216487   5.588  13.186   2.423
 4864SOL     OW16488   8.102   0.813   8.803
 4864SOL    HW116489   8.073   0.903   8.791
 4864SOL    HW216490   8.187   0.820   8.846
 4865SOL     OW16491   0.561  13.075  12.470
 4865SOL    HW116492   0.470  13.103  12.472
 4865SOL    HW216493   0.596  13.102  12.555
 4866SOL     OW16494   4.445   6.958   0.862
 4866SOL    HW116495   4.463   6.912   0.780
 4866SOL    HW216496   4.468   6.895   0.931
 4867SOL     OW16497  14.195  14.374   2.013
 4867SOL    HW116498  14.158  14.356   2.099
 4867SOL    HW216499  14.139  14.327   1.951
 4868SOL     OW16500  13.123   6.573   3.822
 4868SOL    HW116501  13.167   6.640   3.875
 4868SOL    HW216502  13.149   6.594   3.732
 4869SOL     OW16503   9.301   6.212  14.145
 4869SOL    HW116504   9.334   6.215  14.055
 4869SOL    HW216505   9.228   6.274  14.145
 4870SOL     OW16506  12.221   7.649   9.795
 4870SOL    HW116507  12.233   7.687   9.883
 4870SOL    HW216508  12.309   7.644   9.759
 4871SOL     OW16509   4.252   2.876  10.452
 4871SOL    HW116510   4.257   2.790  10.493
 4871SOL    HW216511   4.337   2.889  10.412
 4872SOL     OW16512   9.965  13.430   7.819
 4872SOL    HW116513  10.019  13.478   7.757
 4872SOL    HW216514   9.999  13.454   7.905
 4873SOL     OW16515   7.696   5.984  12.236
 4873SOL    HW116516   7.751   6.009  12.311
 4873SOL    HW216517   7.751   5.923  12.186
 4874SOL     OW16518   7.804  10.325   1.576
 4874SOL    HW116519   7.737  10.272   1.619
 4874SOL    HW216520   7.869  10.262   1.546
 4875SOL     OW16521  14.599   1.883   6.973
 4875SOL    HW116522  14.630   1.813   6.916
 4875SOL    HW216523  14.519   1.915   6.932
 4876SOL     OW16524   9.993  14.026  10.798
 4876SOL    HW116525   9.940  13.998  10.724
 4876SOL    HW216526  10.082  14.002  10.773
 4877SOL     OW16527  14.060  14.724  13.368
 4877SOL    HW116528  14.047  14.728  13.462
 4877SOL    HW216529  14.153  14.740  13.355
 4878SOL     OW16530   9.642   8.106  14.400
 4878SOL    HW116531   9.670   8.064  14.481
 4878SOL    HW216532   9.634   8.034  14.337
 4879SOL     OW16533  14.543   7.337  14.526
 4879SOL    HW116534  14.614   7.332  14.463
 4879SOL    HW216535  14.540   7.250  14.566
 4880SOL     OW16536   7.611   4.736   5.422
 4880SOL    HW116537   7.574   4.817   5.386
 4880SOL    HW216538   7.586   4.737   5.514
 4881SOL     OW16539   6.871   8.363   4.629
 4881SOL    HW116540   6.785   8.346   4.592
 4881SOL    HW216541   6.921   8.283   4.612
 4882SOL     OW16542   3.667  11.402   2.949
 4882SOL    HW116543   3.668  11.394   2.854
 4882SOL    HW216544   3.638  11.316   2.980
 4883SOL     OW16545  11.020   1.919   8.388
 4883SOL    HW116546  11.028   2.009   8.357
 4883SOL    HW216547  11.088   1.911   8.455
 4884SOL     OW16548  12.422  14.176   8.350
 4884SOL    HW116549  12.384  14.092   8.377
 4884SOL    HW216550  12.408  14.234   8.424
 4885SOL     OW16551   5.627   0.388   2.317
 4885SOL    HW116552   5.586   0.455   2.371
 4885SOL    HW216553   5.555   0.335   2.284
 4886SOL     OW16554  13.904   3.714   5.679
 4886SOL    HW116555  13.904   3.788   5.617
 4886SOL    HW216556  13.826   3.726   5.732
 4887SOL     OW16557   2.933  10.450  14.341
 4887SOL    HW116558   2.946  10.435  14.247
 4887SOL    HW216559   2.939  10.545  14.351
 4888SOL     OW16560  13.227  11.505   1.787
 4888SOL    HW116561  13.148  11.462   1.818
 4888SOL    HW216562  13.298  11.459   1.832
 4889SOL     OW16563   7.835   6.155  12.426
 4889SOL    HW116564   7.764   6.202  12.471
 4889SOL    HW216565   7.907   6.217  12.424
 4890SOL     OW16566   7.614   5.998   6.440
 4890SOL    HW116567   7.648   6.080   6.404
 4890SOL    HW216568   7.689   5.959   6.485
 4891SOL     OW16569   9.265   0.948   5.127
 4891SOL    HW116570   9.187   0.894   5.112
 4891SOL    HW216571   9.257   0.977   5.217
 4892SOL     OW16572  13.509  14.754   1.284
 4892SOL    HW116573  13.577  14.821   1.280
 4892SOL    HW216574  13.530  14.703   1.361
 4893SOL     OW16575   0.720   5.056   4.840
 4893SOL    HW116576   0.657   5.127   4.852
 4893SOL    HW216577   0.795   5.081   4.894
 4894SOL     OW16578  14.068   4.310   7.040
 4894SOL    HW116579  14.027   4.357   7.114
 4894SOL    HW216580  14.105   4.231   7.080
 4895SOL     OW16581   2.737  12.461   1.983
 4895SOL    HW116582   2.810  12.458   1.921
 4895SOL    HW216583   2.758  12.532   2.043
 4896SOL     OW16584   2.014   4.706  14.172
 4896SOL    HW116585   1.960   4.666  14.104
 4896SOL    HW216586   2.068   4.635  14.205
 4897SOL     OW16587   6.016   0.482   7.510
 4897SOL    HW116588   6.097   0.520   7.476
 4897SOL    HW216589   6.028   0.483   7.605
 4898SOL     OW16590   5.668   8.520   0.830
 4898SOL    HW116591   5.750   8.479   0.857
 4898SOL    HW216592   5.693   8.576   0.756
 4899SOL     OW16593   6.963   3.796   9.755
 4899SOL    HW116594   6.977   3.705   9.729
 4899SOL    HW216595   7.005   3.803   9.842
 4900SOL     OW16596   6.457   7.180   4.172
 4900SOL    HW116597   6.452   7.104   4.114
 4900SOL    HW216598   6.536   7.226   4.144
 4901SOL     OW16599   0.927  14.358  14.825
 4901SOL    HW116600   0.974  14.329  14.747
 4901SOL    HW216601   0.975  14.434  14.856
 4902SOL     OW16602  10.256   8.391   8.953
 4902SOL    HW116603  10.332   8.394   8.895
 4902SOL    HW216604  10.277   8.324   9.017
 4903SOL     OW16605  13.082   1.394   2.916
 4903SOL    HW116606  13.170   1.430   2.926
 4903SOL    HW216607  13.060   1.410   2.824
 4904SOL     OW16608   3.612   9.643   7.663
 4904SOL    HW116609   3.575   9.592   7.591
 4904SOL    HW216610   3.622   9.731   7.628
 4905SOL     OW16611   7.935   5.462  11.138
 4905SOL    HW116612   7.929   5.556  11.122
 4905SOL    HW216613   7.900   5.451  11.227
 4906SOL     OW16614  11.941   0.436   8.229
 4906SOL    HW116615  11.991   0.430   8.310
 4906SOL    HW216616  11.851   0.415   8.255
 4907SOL     OW16617  12.004   8.301  11.383
 4907SOL    HW116618  12.049   8.356  11.318
 4907SOL    HW216619  11.911   8.315  11.365
 4908SOL     OW16620  10.740  11.973   4.967
 4908SOL    HW116621  10.817  11.977   4.909
 4908SOL    HW216622  10.737  11.882   4.996
 4909SOL     OW16623   5.066   7.201   9.918
 4909SOL    HW116624   5.162   7.201   9.915
 4909SOL    HW216625   5.039   7.176   9.829
 4910SOL     OW16626  10.022  14.761   6.235
 4910SOL    HW116627  10.086  14.823   6.268
 4910SOL    HW216628   9.941  14.811   6.230
 4911SOL     OW16629   2.817   9.393   2.605
 4911SOL    HW116630   2.790   9.418   2.516
 4911SOL    HW216631   2.794   9.469   2.659
 4912SOL     OW16632   6.158   6.707   5.308
 4912SOL    HW116633   6.172   6.793   5.349
 4912SOL    HW216634   6.185   6.644   5.374
 4913SOL     OW16635   8.820   1.043  10.560
 4913SOL    HW116636   8.825   0.962  10.509
 4913SOL    HW216637   8.755   1.097  10.515
 4914SOL     OW16638   6.280   4.092   9.204
 4914SOL    HW116639   6.252   4.000   9.207
 4914SOL    HW216640   6.246   4.125   9.121
 4915SOL     OW16641   7.200   4.926   7.418
 4915SOL    HW116642   7.250   5.004   7.442
 4915SOL    HW216643   7.109   4.950   7.437
 4916SOL     OW16644   8.984   2.271   4.225
 4916SOL    HW116645   8.954   2.362   4.218
 4916SOL    HW216646   8.933   2.234   4.297
 4917SOL     OW16647   1.492  14.702   2.144
 4917SOL    HW116648   1.434  14.775   2.122
 4917SOL    HW216649   1.433  14.628   2.159
 4918SOL     OW16650   0.975  11.689   0.730
 4918SOL    HW116651   0.891  11.660   0.767
 4918SOL    HW216652   1.038  11.624   0.760
 4919SOL     OW16653  12.305   2.162   6.387
 4919SOL    HW116654  12.218   2.186   6.356
 4919SOL    HW216655  12.298   2.069   6.410
 4920SOL     OW16656   5.201  14.523  11.847
 4920SOL    HW116657   5.269  14.525  11.779
 4920SOL    HW216658   5.136  14.461  11.813
 4921SOL     OW16659  12.902   3.569   6.437
 4921SOL    HW116660  12.942   3.654   6.455
 4921SOL    HW216661  12.818   3.573   6.482
 4922SOL     OW16662   9.777   3.021   6.795
 4922SOL    HW116663   9.720   3.046   6.723
 4922SOL    HW216664   9.856   3.075   6.783
 4923SOL     OW16665   7.479   4.320  11.738
 4923SOL    HW116666   7.557   4.265  11.731
 4923SOL    HW216667   7.512   4.409  11.736
 4924SOL     OW16668   8.879   3.792   3.835
 4924SOL    HW116669   8.855   3.812   3.744
 4924SOL    HW216670   8.799   3.812   3.885
 4925SOL     OW16671   9.611  10.823   6.292
 4925SOL    HW116672   9.582  10.739   6.327
 4925SOL    HW216673   9.598  10.885   6.365
 4926SOL     OW16674  12.195   6.781   5.284
 4926SOL    HW116675  12.252   6.792   5.360
 4926SOL    HW216676  12.171   6.871   5.259
 4927SOL     OW16677   5.263   3.546   9.027
 4927SOL    HW116678   5.305   3.546   8.942
 4927SOL    HW216679   5.335   3.535   9.090
 4928SOL     OW16680   0.691   8.702   3.299
 4928SOL    HW116681   0.637   8.742   3.367
 4928SOL    HW216682   0.679   8.758   3.222
 4929SOL     OW16683   9.626   3.926   0.418
 4929SOL    HW116684   9.633   3.894   0.507
 4929SOL    HW216685   9.548   3.982   0.418
 4930SOL     OW16686  12.627   0.689   4.314
 4930SOL    HW116687  12.694   0.720   4.376
 4930SOL    HW216688  12.552   0.747   4.327
 4931SOL     OW16689   7.075   7.381   9.425
 4931SOL    HW116690   7.027   7.315   9.376
 4931SOL    HW216691   7.009   7.448   9.446
 4932SOL     OW16692   4.850  12.376   7.686
 4932SOL    HW116693   4.860  12.444   7.619
 4932SOL    HW216694   4.782  12.410   7.745
 4933SOL     OW16695  11.658   0.618   1.076
 4933SOL    HW116696  11.729   0.612   1.012
 4933SOL    HW216697  11.589   0.562   1.040
 4934SOL     OW16698   9.115   8.714  11.342
 4934SOL    HW116699   9.208   8.717  11.318
 4934SOL    HW216700   9.086   8.626  11.316
 4935SOL     OW16701   3.458  13.016   7.186
 4935SOL    HW116702   3.440  12.980   7.100
 4935SOL    HW216703   3.550  12.993   7.203
 4936SOL     OW16704  13.844   7.402   0.431
 4936SOL    HW116705  13.807   7.363   0.510
 4936SOL    HW216706  13.768   7.420   0.376
 4937SOL     OW16707  10.544   2.025   5.394
 4937SOL    HW116708  10.516   1.952   5.338
 4937SOL    HW216709  10.492   2.099   5.364
 4938SOL     OW16710   6.297   7.190  13.704
 4938SOL    HW116711   6.214   7.150  13.731
 4938SOL    HW216712   6.335   7.127  13.643
 4939SOL     OW16713  12.154  10.924  12.335
 4939SOL    HW116714  12.162  10.837  12.295
 4939SOL    HW216715  12.171  10.910  12.428
 4940SOL     OW16716   0.211  12.643   8.788
 4940SOL    HW116717   0.298  12.660   8.826
 4940SOL    HW216718   0.188  12.724   8.743
 4941SOL     OW16719   7.815   5.876   1.277
 4941SOL    HW116720   7.751   5.808   1.295
 4941SOL    HW216721   7.847   5.903   1.364
 4942SOL     OW16722   3.073   4.249   2.192
 4942SOL    HW116723   3.020   4.173   2.216
 4942SOL    HW216724   3.018   4.297   2.130
 4943SOL     OW16725   9.241   4.635   4.935
 4943SOL    HW116726   9.269   4.644   4.844
 4943SOL    HW216727   9.204   4.547   4.941
 4944SOL     OW16728  13.633   7.587   6.830
 4944SOL    HW116729  13.567   7.568   6.896
 4944SOL    HW216730  13.583   7.612   6.752
 4945SOL     OW16731   8.479  11.065   3.358
 4945SOL    HW116732   8.523  10.994   3.311
 4945SOL    HW216733   8.550  11.124   3.383
 4946SOL     OW16734  11.178   4.085  10.779
 4946SOL    HW116735  11.269   4.057  10.773
 4946SOL    HW216736  11.133   4.033  10.713
 4947SOL     OW16737   1.322   4.783   8.422
 4947SOL    HW116738   1.226   4.781   8.419
 4947SOL    HW216739   1.349   4.737   8.343
 4948SOL     OW16740   7.508  11.169   2.219
 4948SOL    HW116741   7.554  11.250   2.242
 4948SOL    HW216742   7.554  11.101   2.268
 4949SOL     OW16743   4.563   9.740  12.579
 4949SOL    HW116744   4.614   9.684  12.521
 4949SOL    HW216745   4.617   9.750  12.657
 4950SOL     OW16746  10.605   6.194  10.298
 4950SOL    HW116747  10.699   6.180  10.310
 4950SOL    HW216748  10.575   6.118  10.248
 4951SOL     OW16749   3.872   1.069  13.786
 4951SOL    HW116750   3.954   1.115  13.803
 4951SOL    HW216751   3.882   0.985  13.833
 4952SOL     OW16752   1.264   6.687   4.278
 4952SOL    HW116753   1.338   6.710   4.222
 4952SOL    HW216754   1.226   6.771   4.303
 4953SOL     OW16755   3.142  11.758   6.050
 4953SOL    HW116756   3.153  11.828   6.115
 4953SOL    HW216757   3.166  11.678   6.098
 4954SOL     OW16758  11.771  13.863   3.326
 4954SOL    HW116759  11.726  13.791   3.282
 4954SOL    HW216760  11.864  13.848   3.307
 4955SOL     OW16761  12.928   3.474   4.054
 4955SOL    HW116762  12.907   3.553   4.004
 4955SOL    HW216763  12.848   3.454   4.103
 4956SOL     OW16764  14.532   4.184  13.021
 4956SOL    HW116765  14.562   4.157  13.108
 4956SOL    HW216766  14.541   4.106  12.967
 4957SOL     OW16767   9.892   8.036  11.294
 4957SOL    HW116768   9.874   8.118  11.339
 4957SOL    HW216769   9.974   8.051  11.248
 4958SOL     OW16770  10.934  13.808  12.339
 4958SOL    HW116771  10.920  13.713  12.343
 4958SOL    HW216772  10.892  13.842  12.418
 4959SOL     OW16773  10.134  10.630   4.075
 4959SOL    HW116774  10.184  10.576   4.137
 4959SOL    HW216775  10.200  10.687   4.035
 4960SOL     OW16776  12.970  10.655   9.669
 4960SOL    HW116777  13.002  10.565   9.679
 4960SOL    HW216778  13.047  10.706   9.644
 4961SOL     OW16779   7.683  11.973  12.946
 4961SOL    HW116780   7.753  12.023  12.989
 4961SOL    HW216781   7.721  11.947  12.862
 4962SOL     OW16782   9.694   1.489   5.813
 4962SOL    HW116783   9.766   1.512   5.871
 4962SOL    HW216784   9.618   1.535   5.848
 4963SOL     OW16785   6.882   6.645   0.480
 4963SOL    HW116786   6.925   6.722   0.444
 4963SOL    HW216787   6.948   6.575   0.473
 4964SOL     OW16788  13.069  10.104   6.490
 4964SOL    HW116789  13.006  10.081   6.558
 4964SOL    HW216790  13.096  10.021   6.452
 4965SOL     OW16791   8.655   6.279  12.197
 4965SOL    HW116792   8.648   6.374  12.191
 4965SOL    HW216793   8.649   6.261  12.291
 4966SOL     OW16794   6.671  13.212   7.174
 4966SOL    HW116795   6.633  13.253   7.097
 4966SOL    HW216796   6.639  13.264   7.248
 4967SOL     OW16797   7.429  12.000   9.499
 4967SOL    HW116798   7.498  12.067   9.498
 4967SOL    HW216799   7.385  12.012   9.582
 4968SOL     OW16800   1.933   7.327   7.141
 4968SOL    HW116801   1.961   7.320   7.232
 4968SOL    HW216802   1.933   7.421   7.124
 4969SOL     OW16803   7.303   8.033  13.828
 4969SOL    HW116804   7.264   7.945  13.835
 4969SOL    HW216805   7.234   8.086  13.788
 4970SOL     OW16806  11.664  12.065   0.090
 4970SOL    HW116807  11.635  12.112   0.168
 4970SOL    HW216808  11.693  11.980   0.122
 4971SOL     OW16809  13.361   6.256  10.820
 4971SOL    HW116810  13.275   6.228  10.789
 4971SOL    HW216811  13.358   6.243  10.915
 4972SOL     OW16812  13.874   6.255   8.212
 4972SOL    HW116813  13.882   6.213   8.297
 4972SOL    HW216814  13.951   6.312   8.206
 4973SOL     OW16815  11.795   9.050   3.774
 4973SOL    HW116816  11.888   9.026   3.772
 4973SOL    HW216817  11.794   9.136   3.816
 4974SOL     OW16818   2.267   5.153   4.117
 4974SOL    HW116819   2.185   5.106   4.102
 4974SOL    HW216820   2.334   5.085   4.120
 4975SOL     OW16821  10.667  14.298  13.207
 4975SOL    HW116822  10.620  14.305  13.124
 4975SOL    HW216823  10.601  14.275  13.271
 4976SOL     OW16824  10.095   4.742   9.677
 4976SOL    HW116825  10.032   4.798   9.631
 4976SOL    HW216826  10.156   4.804   9.718
 4977SOL     OW16827   8.141   4.898   6.605
 4977SOL    HW116828   8.206   4.889   6.675
 4977SOL    HW216829   8.100   4.983   6.621
 4978SOL     OW16830   0.815   2.478  10.262
 4978SOL    HW116831   0.808   2.383  10.269
 4978SOL    HW216832   0.738   2.512  10.308
 4979SOL     OW16833  11.744  13.727   9.673
 4979SOL    HW116834  11.740  13.643   9.718
 4979SOL    HW216835  11.759  13.791   9.742
 4980SOL     OW16836   6.027   4.391   1.124
 4980SOL    HW116837   6.085   4.332   1.173
 4980SOL    HW216838   6.028   4.357   1.035
 4981SOL     OW16839  11.761   7.957  13.502
 4981SOL    HW116840  11.841   7.987  13.460
 4981SOL    HW216841  11.702   8.033  13.500
 4982SOL     OW16842   9.540   7.805  11.373
 4982SOL    HW116843   9.629   7.768  11.370
 4982SOL    HW216844   9.529   7.847  11.288
 4983SOL     OW16845   5.109  12.208  13.986
 4983SOL    HW116846   5.017  12.195  14.009
 4983SOL    HW216847   5.117  12.302  13.971
 4984SOL     OW16848   4.268   7.090   4.361
 4984SOL    HW116849   4.271   7.073   4.267
 4984SOL    HW216850   4.179   7.123   4.376
 4985SOL     OW16851   4.313  14.796   2.417
 4985SOL    HW116852   4.302  14.708   2.454
 4985SOL    HW216853   4.225  14.833   2.417
 4986SOL     OW16854   1.192   3.948   3.785
 4986SOL    HW116855   1.281   3.913   3.787
 4986SOL    HW216856   1.200   4.038   3.816
 4987SOL     OW16857   6.787   6.623   2.947
 4987SOL    HW116858   6.759   6.577   3.026
 4987SOL    HW216859   6.772   6.561   2.876
 4988SOL     OW16860  10.909   0.908   2.391
 4988SOL    HW116861  10.997   0.943   2.377
 4988SOL    HW216862  10.899   0.840   2.324
 4989SOL     OW16863  11.585  11.529   8.959
 4989SOL    HW116864  11.640  11.605   8.941
 4989SOL    HW216865  11.553  11.502   8.873
 4990SOL     OW16866  12.439   0.959   9.200
 4990SOL    HW116867  12.483   1.006   9.129
 4990SOL    HW216868  12.482   0.991   9.280
 4991SOL     OW16869   6.946   2.065  13.795
 4991SOL    HW116870   6.863   2.073  13.841
 4991SOL    HW216871   6.989   2.150  13.809
 4992SOL     OW16872  14.573   2.093   1.695
 4992SOL    HW116873  14.507   2.143   1.647
 4992SOL    HW216874  14.620   2.044   1.627
 4993SOL     OW16875   6.833  13.069  12.258
 4993SOL    HW116876   6.771  13.040  12.324
 4993SOL    HW216877   6.800  13.154  12.229
 4994SOL     OW16878   4.348  12.692   1.433
 4994SOL    HW116879   4.310  12.748   1.501
 4994SOL    HW216880   4.324  12.603   1.460
 4995SOL     OW16881   2.142  11.392  14.506
 4995SOL    HW116882   2.102  11.325  14.562
 4995SOL    HW216883   2.194  11.343  14.443
 4996SOL     OW16884   5.785   9.650   5.372
 4996SOL    HW116885   5.838   9.609   5.305
 4996SOL    HW216886   5.746   9.577   5.421
 4997SOL     OW16887  12.858   3.078  13.996
 4997SOL    HW116888  12.952   3.094  13.989
 4997SOL    HW216889  12.839   3.014  13.928
 4998SOL     OW16890  11.094   9.831  12.641
 4998SOL    HW116891  11.082   9.904  12.580
 4998SOL    HW216892  11.189   9.818  12.644
 4999SOL     OW16893   3.727   1.466  14.341
 4999SOL    HW116894   3.669   1.542  14.349
 4999SOL    HW216895   3.812   1.498  14.369
 5000SOL     OW16896   1.386   6.916  13.907
 5000SOL    HW116897   1.364   6.930  13.815
 5000SOL    HW216898   1.403   6.822  13.914
 5001SOL     OW16899   1.327   2.447   9.136
 5001SOL    HW116900   1.242   2.437   9.179
 5001SOL    HW216901   1.330   2.376   9.073
 5002SOL     OW16902   3.699   1.759  11.968
 5002SOL    HW116903   3.640   1.699  11.922
 5002SOL    HW216904   3.781   1.711  11.975
 5003SOL     OW16905  12.899   0.015  14.590
 5003SOL    HW116906  12.906  14.843  14.676
 5003SOL    HW216907  12.976  14.856  14.543
 5004SOL     OW16908   2.440  11.435   4.724
 5004SOL    HW116909   2.384  11.455   4.799
 5004SOL    HW216910   2.515  11.493   4.735
 5005SOL     OW16911   2.285   2.450   6.452
 5005SOL    HW116912   2.272   2.398   6.531
 5005SOL    HW216913   2.316   2.535   6.483
 5006SOL     OW16914  10.943   6.578  14.800
 5006SOL    HW116915  10.891   6.512  14.845
 5006SOL    HW216916  10.877   6.637  14.761
 5007SOL     OW16917   3.867   6.500  11.673
 5007SOL    HW116918   3.892   6.545  11.592
 5007SOL    HW216919   3.892   6.560  11.743
 5008SOL     OW16920  10.669  12.607   5.103
 5008SOL    HW116921  10.588  12.615   5.052
 5008SOL    HW216922  10.687  12.513   5.104
 5009SOL     OW16923  11.680   0.733   6.001
 5009SOL    HW116924  11.674   0.795   5.929
 5009SOL    HW216925  11.648   0.781   6.077
 5010SOL     OW16926   5.444  11.375  11.777
 5010SOL    HW116927   5.417  11.301  11.723
 5010SOL    HW216928   5.388  11.370  11.855
 5011SOL     OW16929   8.712   5.246  10.683
 5011SOL    HW116930   8.747   5.322  10.729
 5011SOL    HW216931   8.787   5.212  10.634
 5012SOL     OW16932   9.826   2.600   2.796
 5012SOL    HW116933   9.741   2.558   2.811
 5012SOL    HW216934   9.890   2.530   2.809
 5013SOL     OW16935  10.194   7.868   6.276
 5013SOL    HW116936  10.103   7.871   6.246
 5013SOL    HW216937  10.208   7.953   6.317
 5014SOL     OW16938  13.924   0.697  14.207
 5014SOL    HW116939  14.010   0.730  14.180
 5014SOL    HW216940  13.922   0.607  14.176
 5015SOL     OW16941  14.768   2.115   7.651
 5015SOL    HW116942  14.767   2.110   7.746
 5015SOL    HW216943  14.687   2.160   7.628
 5016SOL     OW16944   8.454  11.626  13.846
 5016SOL    HW116945   8.408  11.695  13.797
 5016SOL    HW216946   8.534  11.669  13.877
 5017SOL     OW16947  11.465   7.652   9.552
 5017SOL    HW116948  11.497   7.562   9.552
 5017SOL    HW216949  11.411   7.658   9.473
 5018SOL     OW16950  12.598   1.343   4.170
 5018SOL    HW116951  12.610   1.326   4.263
 5018SOL    HW216952  12.518   1.296   4.147
 5019SOL     OW16953   9.817  11.844   9.804
 5019SOL    HW116954   9.869  11.837   9.884
 5019SOL    HW216955   9.853  11.778   9.745
 5020SOL     OW16956   4.022   3.664   4.455
 5020SOL    HW116957   3.970   3.694   4.382
 5020SOL    HW216958   3.995   3.573   4.469
 5021SOL     OW16959   8.652   7.271  10.489
 5021SOL    HW116960   8.571   7.227  10.465
 5021SOL    HW216961   8.629   7.328  10.562
 5022SOL     OW16962  10.721   9.238   0.137
 5022SOL    HW116963  10.814   9.223   0.117
 5022SOL    HW216964  10.694   9.158   0.183
 5023SOL     OW16965   9.985   1.437  12.585
 5023SOL    HW116966   9.954   1.347  12.595
 5023SOL    HW216967   9.905   1.490  12.581
 5024SOL     OW16968   2.017   2.381   4.197
 5024SOL    HW116969   2.055   2.430   4.270
 5024SOL    HW216970   1.968   2.310   4.238
 5025SOL     OW16971  11.380   8.355   8.014
 5025SOL    HW116972  11.470   8.332   8.037
 5025SOL    HW216973  11.325   8.299   8.069
 5026SOL     OW16974   1.840   4.470  13.132
 5026SOL    HW116975   1.787   4.531  13.183
 5026SOL    HW216976   1.886   4.418  13.198
 5027SOL     OW16977   3.390   7.652  12.452
 5027SOL    HW116978   3.452   7.589  12.414
 5027SOL    HW216979   3.429   7.676  12.536
 5028SOL     OW16980  12.600  11.195   2.341
 5028SOL    HW116981  12.507  11.210   2.356
 5028SOL    HW216982  12.641  11.206   2.426
 5029SOL     OW16983   1.536   8.645   5.790
 5029SOL    HW116984   1.520   8.591   5.868
 5029SOL    HW216985   1.459   8.632   5.736
 5030SOL     OW16986  10.652   4.613  10.836
 5030SOL    HW116987  10.603   4.649  10.762
 5030SOL    HW216988  10.605   4.644  10.913
 5031SOL     OW16989  13.966   4.742  13.967
 5031SOL    HW116990  13.898   4.765  13.903
 5031SOL    HW216991  13.944   4.653  13.994
 5032SOL     OW16992  11.243   0.826   1.077
 5032SOL    HW116993  11.171   0.876   1.114
 5032SOL    HW216994  11.227   0.736   1.105
 5033SOL     OW16995   4.069  10.966   3.408
 5033SOL    HW116996   4.079  10.923   3.323
 5033SOL    HW216997   3.985  10.932   3.442
 5034SOL     OW16998   5.642   3.430   5.600
 5034SOL    HW116999   5.726   3.450   5.642
 5034SOL    HW217000   5.665   3.413   5.508
 5035SOL     OW17001   8.527   4.511   5.369
 5035SOL    HW117002   8.471   4.434   5.355
 5035SOL    HW217003   8.575   4.492   5.449
 5036SOL     OW17004   1.769   4.615  14.016
 5036SOL    HW117005   1.832   4.619  13.943
 5036SOL    HW217006   1.686   4.593  13.974
 5037SOL     OW17007   3.433   8.108  13.597
 5037SOL    HW117008   3.437   8.157  13.515
 5037SOL    HW217009   3.481   8.163  13.659
 5038SOL     OW17010   0.682  10.308   2.225
 5038SOL    HW117011   0.738  10.233   2.203
 5038SOL    HW217012   0.675  10.358   2.144
 5039SOL     OW17013   5.919  10.969   0.498
 5039SOL    HW117014   6.005  10.998   0.529
 5039SOL    HW217015   5.884  11.044   0.450
 5040SOL     OW17016   4.737   7.086   1.304
 5040SOL    HW117017   4.691   7.166   1.279
 5040SOL    HW217018   4.773   7.105   1.391
 5041SOL     OW17019  12.235   8.729  12.997
 5041SOL    HW117020  12.190   8.650  13.025
 5041SOL    HW217021  12.187   8.757  12.919
 5042SOL     OW17022   2.609  11.401   3.820
 5042SOL    HW117023   2.563  11.388   3.903
 5042SOL    HW217024   2.683  11.458   3.842
 5043SOL     OW17025   2.573   5.711   2.519
 5043SOL    HW117026   2.637   5.677   2.456
 5043SOL    HW217027   2.494   5.658   2.504
 5044SOL     OW17028  11.700   4.882   8.954
 5044SOL    HW117029  11.746   4.965   8.944
 5044SOL    HW217030  11.770   4.817   8.966
 5045SOL     OW17031   7.612   7.971   2.784
 5045SOL    HW117032   7.579   8.060   2.774
 5045SOL    HW217033   7.701   7.974   2.749
 5046SOL     OW17034  11.838   1.042  14.350
 5046SOL    HW117035  11.809   1.103  14.419
 5046SOL    HW217036  11.933   1.044  14.355
 5047SOL     OW17037   1.099   2.822   8.022
 5047SOL    HW117038   1.069   2.758   7.958
 5047SOL    HW217039   1.018   2.860   8.058
 5048SOL     OW17040   3.948   2.200   4.557
 5048SOL    HW117041   3.911   2.186   4.470
 5048SOL    HW217042   4.024   2.141   4.561
 5049SOL     OW17043   4.888  11.268   1.458
 5049SOL    HW117044   4.861  11.182   1.492
 5049SOL    HW217045   4.822  11.289   1.392
 5050SOL     OW17046   3.975   7.146   6.042
 5050SOL    HW117047   4.015   7.070   6.001
 5050SOL    HW217048   3.932   7.112   6.121
 5051SOL     OW17049  12.476   8.727   2.943
 5051SOL    HW117050  12.530   8.668   2.997
 5051SOL    HW217051  12.538   8.767   2.882
 5052SOL     OW17052  12.622   0.816   6.930
 5052SOL    HW117053  12.541   0.777   6.895
 5052SOL    HW217054  12.618   0.798   7.024
 5053SOL     OW17055   3.921   0.450   2.615
 5053SOL    HW117056   3.921   0.426   2.708
 5053SOL    HW217057   3.913   0.366   2.569
 5054SOL     OW17058   0.873   0.471  13.340
 5054SOL    HW117059   0.916   0.398  13.296
 5054SOL    HW217060   0.925   0.548  13.316
 5055SOL     OW17061   5.148   9.724  11.648
 5055SOL    HW117062   5.203   9.650  11.620
 5055SOL    HW217063   5.083   9.686  11.706
 5056SOL     OW17064   8.942  12.877   2.058
 5056SOL    HW117065   8.949  12.874   1.962
 5056SOL    HW217066   8.901  12.961   2.077
 5057SOL     OW17067  14.024   5.531  10.036
 5057SOL    HW117068  14.067   5.483  10.107
 5057SOL    HW217069  13.964   5.467   9.998
 5058SOL     OW17070   8.814  10.034  14.822
 5058SOL    HW117071   8.803  10.011  14.730
 5058SOL    HW217072   8.908  10.051  14.832
 5059SOL     OW17073   0.759  11.807   5.005
 5059SOL    HW117074   0.760  11.887   5.057
 5059SOL    HW217075   0.850  11.778   5.004
 5060SOL     OW17076  11.732   5.266  12.955
 5060SOL    HW117077  11.682   5.306  13.026
 5060SOL    HW217078  11.715   5.172  12.963
 5061SOL     OW17079   0.114   7.993   7.448
 5061SOL    HW117080   0.069   8.047   7.383
 5061SOL    HW217081   0.131   8.052   7.521
 5062SOL     OW17082  11.557   0.534   5.429
 5062SOL    HW117083  11.522   0.601   5.487
 5062SOL    HW217084  11.625   0.490   5.482
 5063SOL     OW17085   3.548   3.812  10.992
 5063SOL    HW117086   3.600   3.732  10.989
 5063SOL    HW217087   3.465   3.788  10.951
 5064SOL     OW17088   0.666  13.247   7.946
 5064SOL    HW117089   0.740  13.197   7.910
 5064SOL    HW217090   0.708  13.320   7.992
 5065SOL     OW17091   6.231   9.442   1.017
 5065SOL    HW117092   6.322   9.433   0.988
 5065SOL    HW217093   6.215   9.364   1.070
 5066SOL     OW17094  14.370  12.364  11.413
 5066SOL    HW117095  14.380  12.382  11.320
 5066SOL    HW217096  14.361  12.450  11.454
 5067SOL     OW17097  13.819   4.006   5.319
 5067SOL    HW117098  13.750   4.060   5.358
 5067SOL    HW217099  13.867   4.066   5.261
 5068SOL     OW17100   3.991  14.462  11.927
 5068SOL    HW117101   4.051  14.417  11.868
 5068SOL    HW217102   4.012  14.428  12.014
 5069SOL     OW17103   1.019   3.411   2.489
 5069SOL    HW117104   1.051   3.501   2.501
 5069SOL    HW217105   1.057   3.362   2.561
 5070SOL     OW17106   7.917   0.684  12.394
 5070SOL    HW117107   7.930   0.684  12.489
 5070SOL    HW217108   7.902   0.776  12.372
 5071SOL     OW17109  12.132  12.898   9.051
 5071SOL    HW117110  12.121  12.833   8.981
 5071SOL    HW217111  12.050  12.893   9.101
 5072SOL     OW17112  10.646   1.577   0.094
 5072SOL    HW117113  10.613   1.529   0.169
 5072SOL    HW217114  10.609   1.531   0.018
 5073SOL     OW17115  14.111   4.194  10.648
 5073SOL    HW117116  14.030   4.236  10.621
 5073SOL    HW217117  14.171   4.208  10.574
 5074SOL     OW17118   0.893  14.284  12.492
 5074SOL    HW117119   0.886  14.221  12.564
 5074SOL    HW217120   0.811  14.272  12.443
 5075SOL     OW17121   2.372   9.330   2.706
 5075SOL    HW117122   2.284   9.357   2.683
 5075SOL    HW217123   2.395   9.263   2.642
 5076SOL     OW17124   1.478  13.623   9.988
 5076SOL    HW117125   1.544  13.582   9.931
 5076SOL    HW217126   1.512  13.611  10.076
 5077SOL     OW17127   4.001   6.623  12.800
 5077SOL    HW117128   4.037   6.699  12.754
 5077SOL    HW217129   3.908   6.644  12.811
 5078SOL     OW17130   6.595   9.250  12.549
 5078SOL    HW117131   6.580   9.185  12.618
 5078SOL    HW217132   6.653   9.314  12.589
 5079SOL     OW17133  10.510  10.196   3.500
 5079SOL    HW117134  10.510  10.175   3.406
 5079SOL    HW217135  10.425  10.165   3.531
 5080SOL     OW17136  12.236   7.942   3.500
 5080SOL    HW117137  12.183   7.982   3.569
 5080SOL    HW217138  12.199   7.855   3.488
 5081SOL     OW17139  13.593  12.128   4.298
 5081SOL    HW117140  13.638  12.212   4.308
 5081SOL    HW217141  13.661  12.068   4.268
 5082SOL     OW17142   2.013  11.881  11.225
 5082SOL    HW117143   1.954  11.831  11.281
 5082SOL    HW217144   1.955  11.926  11.163
 5083SOL     OW17145   0.918  10.779   0.480
 5083SOL    HW117146   0.905  10.807   0.390
 5083SOL    HW217147   0.905  10.857   0.532
 5084SOL     OW17148   5.089  14.007   4.056
 5084SOL    HW117149   5.170  14.042   4.091
 5084SOL    HW217150   5.096  14.022   3.961
 5085SOL     OW17151   1.158   3.458   0.791
 5085SOL    HW117152   1.198   3.448   0.705
 5085SOL    HW217153   1.229   3.490   0.847
 5086SOL     OW17154  12.155   4.514   5.049
 5086SOL    HW117155  12.105   4.595   5.040
 5086SOL    HW217156  12.207   4.527   5.128
 5087SOL     OW17157  13.022  11.162  12.742
 5087SOL    HW117158  13.025  11.167  12.838
 5087SOL    HW217159  13.089  11.099  12.719
 5088SOL     OW17160  13.552   4.682   1.189
 5088SOL    HW117161  13.476   4.725   1.228
 5088SOL    HW217162  13.593   4.634   1.262
 5089SOL     OW17163  10.952   2.453  11.716
 5089SOL    HW117164  10.914   2.529  11.671
 5089SOL    HW217165  10.924   2.463  11.807
 5090SOL     OW17166   7.357  12.330  14.111
 5090SOL    HW117167   7.379  12.244  14.075
 5090SOL    HW217168   7.265  12.343  14.088
 5091SOL     OW17169   8.023   4.127   2.550
 5091SOL    HW117170   7.986   4.054   2.500
 5091SOL    HW217171   7.993   4.113   2.640
 5092SOL     OW17172  11.097   3.334  10.779
 5092SOL    HW117173  11.117   3.415  10.825
 5092SOL    HW217174  11.182   3.291  10.767
 5093SOL     OW17175  11.399   6.645   6.601
 5093SOL    HW117176  11.408   6.723   6.656
 5093SOL    HW217177  11.306   6.641   6.579
 5094SOL     OW17178   5.322   2.538   6.787
 5094SOL    HW117179   5.389   2.588   6.835
 5094SOL    HW217180   5.346   2.549   6.695
 5095SOL     OW17181  12.057   4.874   3.107
 5095SOL    HW117182  12.062   4.924   3.189
 5095SOL    HW217183  12.144   4.834   3.098
 5096SOL     OW17184   2.812   3.457   7.060
 5096SOL    HW117185   2.874   3.528   7.044
 5096SOL    HW217186   2.749   3.464   6.988
 5097SOL     OW17187   4.087  12.082  13.669
 5097SOL    HW117188   4.174  12.045  13.677
 5097SOL    HW217189   4.099  12.176  13.684
 5098SOL     OW17190  12.784   4.199   5.646
 5098SOL    HW117191  12.815   4.274   5.697
 5098SOL    HW217192  12.761   4.236   5.560
 5099SOL     OW17193  10.096   9.192   2.832
 5099SOL    HW117194  10.022   9.193   2.893
 5099SOL    HW217195  10.109   9.283   2.808
 5100SOL     OW17196   9.144   4.502   7.744
 5100SOL    HW117197   9.049   4.494   7.734
 5100SOL    HW217198   9.158   4.588   7.782
 5101SOL     OW17199   5.727   2.658  14.835
 5101SOL    HW117200   5.752   2.608  14.758
 5101SOL    HW217201   5.772   2.742  14.825
 5102SOL     OW17202   7.719   0.737  12.006
 5102SOL    HW117203   7.703   0.715  11.914
 5102SOL    HW217204   7.795   0.795  12.003
 5103SOL     OW17205  11.555   9.748   4.354
 5103SOL    HW117206  11.641   9.774   4.320
 5103SOL    HW217207  11.495   9.816   4.323
 5104SOL     OW17208   1.533   3.446   6.431
 5104SOL    HW117209   1.472   3.503   6.478
 5104SOL    HW217210   1.549   3.373   6.491
 5105SOL     OW17211   6.046   0.275   9.555
 5105SOL    HW117212   6.040   0.367   9.533
 5105SOL    HW217213   6.130   0.247   9.520
 5106SOL     OW17214   8.105  12.736  13.052
 5106SOL    HW117215   8.030  12.676  13.050
 5106SOL    HW217216   8.070  12.819  13.021
 5107SOL     OW17217   9.172   7.463  12.903
 5107SOL    HW117218   9.213   7.473  12.818
 5107SOL    HW217219   9.158   7.553  12.934
 5108SOL     OW17220   2.930  10.487   2.441
 5108SOL    HW117221   2.893  10.575   2.451
 5108SOL    HW217222   3.004  10.485   2.502
 5109SOL     OW17223  12.766   5.392   2.447
 5109SOL    HW117224  12.852   5.359   2.419
 5109SOL    HW217225  12.737   5.449   2.376
 5110SOL     OW17226   8.775  11.299  12.476
 5110SOL    HW117227   8.855  11.292  12.425
 5110SOL    HW217228   8.802  11.286  12.566
 5111SOL     OW17229   1.997   9.151   7.658
 5111SOL    HW117230   2.036   9.085   7.602
 5111SOL    HW217231   1.930   9.193   7.603
 5112SOL     OW17232   1.446  14.710   6.586
 5112SOL    HW117233   1.366  14.657   6.582
 5112SOL    HW217234   1.497  14.682   6.511
 5113SOL     OW17235   3.992  10.176   4.636
 5113SOL    HW117236   3.968  10.213   4.722
 5113SOL    HW217237   3.962  10.241   4.573
 5114SOL     OW17238  13.036  14.676   8.673
 5114SOL    HW117239  12.957  14.624   8.687
 5114SOL    HW217240  13.017  14.727   8.595
 5115SOL     OW17241   8.258  10.079   1.892
 5115SOL    HW117242   8.170  10.097   1.858
 5115SOL    HW217243   8.256  10.111   1.982
 5116SOL     OW17244   2.984  10.866   4.713
 5116SOL    HW117245   2.909  10.918   4.744
 5116SOL    HW217246   2.977  10.783   4.760
 5117SOL     OW17247  12.609  12.854   9.465
 5117SOL    HW117248  12.565  12.917   9.521
 5117SOL    HW217249  12.539  12.819   9.409
 5118SOL     OW17250  12.449   6.425  12.203
 5118SOL    HW117251  12.510   6.460  12.139
 5118SOL    HW217252  12.413   6.346  12.162
 5119SOL     OW17253  11.455   2.084   6.020
 5119SOL    HW117254  11.507   2.015   6.061
 5119SOL    HW217255  11.435   2.052   5.932
 5120SOL     OW17256  12.629   4.814   7.237
 5120SOL    HW117257  12.612   4.740   7.295
 5120SOL    HW217258  12.646   4.888   7.296
 5121SOL     OW17259   7.532   7.418   3.910
 5121SOL    HW117260   7.587   7.388   3.983
 5121SOL    HW217261   7.445   7.428   3.949
 5122SOL     OW17262   5.556   3.229   5.755
 5122SOL    HW117263   5.635   3.211   5.806
 5122SOL    HW217264   5.587   3.281   5.681
 5123SOL     OW17265   9.293  14.092   6.187
 5123SOL    HW117266   9.270  14.156   6.120
 5123SOL    HW217267   9.388  14.079   6.175
 5124SOL     OW17268  12.903  12.262  10.798
 5124SOL    HW117269  12.882  12.353  10.777
 5124SOL    HW217270  12.818  12.217  10.796
 5125SOL     OW17271   8.959   7.841   0.572
 5125SOL    HW117272   8.988   7.797   0.652
 5125SOL    HW217273   8.926   7.926   0.602
 5126SOL     OW17274   1.338   0.495   6.433
 5126SOL    HW117275   1.373   0.408   6.413
 5126SOL    HW217276   1.377   0.552   6.366
 5127SOL     OW17277   4.691  10.439  11.365
 5127SOL    HW117278   4.707  10.346  11.354
 5127SOL    HW217279   4.774  10.480  11.339
 5128SOL     OW17280  13.413  10.013   1.257
 5128SOL    HW117281  13.459  10.067   1.322
 5128SOL    HW217282  13.325  10.002   1.294
 5129SOL     OW17283  14.233  11.592   1.498
 5129SOL    HW117284  14.162  11.535   1.468
 5129SOL    HW217285  14.311  11.560   1.452
 5130SOL     OW17286   3.581   2.501   9.886
 5130SOL    HW117287   3.576   2.406   9.899
 5130SOL    HW217288   3.668   2.516   9.851
 5131SOL     OW17289  10.876   2.543   3.373
 5131SOL    HW117290  10.790   2.519   3.339
 5131SOL    HW217291  10.900   2.470   3.430
 5132SOL     OW17292   9.192   7.878   5.301
 5132SOL    HW117293   9.233   7.965   5.306
 5132SOL    HW217294   9.153   7.864   5.387
 5133SOL     OW17295  11.916  12.873  14.401
 5133SOL    HW117296  11.893  12.932  14.472
 5133SOL    HW217297  11.838  12.872  14.344
 5134SOL     OW17298   8.237  13.192   2.409
 5134SOL    HW117299   8.171  13.218   2.345
 5134SOL    HW217300   8.297  13.266   2.413
 5135SOL     OW17301   2.042   0.101   7.536
 5135SOL    HW117302   1.986   0.141   7.602
 5135SOL    HW217303   2.081   0.175   7.490
 5136SOL     OW17304  10.263  12.458  11.008
 5136SOL    HW117305  10.184  12.407  11.022
 5136SOL    HW217306  10.232  12.544  10.981
 5137SOL     OW17307   5.322  13.292   1.603
 5137SOL    HW117308   5.230  13.317   1.605
 5137SOL    HW217309   5.323  13.209   1.555
 5138SOL     OW17310  11.821  10.979  12.313
 5138SOL    HW117311  11.813  11.019  12.226
 5138SOL    HW217312  11.775  10.896  12.305
 5139SOL     OW17313   2.563   0.469   3.650
 5139SOL    HW117314   2.606   0.495   3.569
 5139SOL    HW217315   2.566   0.373   3.649
 5140SOL     OW17316   6.887   2.883  11.866
 5140SOL    HW117317   6.917   2.950  11.927
 5140SOL    HW217318   6.817   2.925  11.816
 5141SOL     OW17319  14.128   3.060   8.160
 5141SOL    HW117320  14.145   3.076   8.252
 5141SOL    HW217321  14.215   3.048   8.121
 5142SOL     OW17322   2.161   5.719  13.714
 5142SOL    HW117323   2.130   5.656  13.649
 5142SOL    HW217324   2.096   5.714  13.784
 5143SOL     OW17325   9.705   1.079  13.314
 5143SOL    HW117326   9.694   1.013  13.382
 5143SOL    HW217327   9.708   1.162  13.361
 5144SOL     OW17328   5.463   6.075   8.508
 5144SOL    HW117329   5.512   6.039   8.434
 5144SOL    HW217330   5.481   6.014   8.580
 5145SOL     OW17331  11.704   0.944   4.557
 5145SOL    HW117332  11.663   0.993   4.628
 5145SOL    HW217333  11.637   0.882   4.528
 5146SOL     OW17334   3.377  12.628  13.187
 5146SOL    HW117335   3.298  12.680  13.174
 5146SOL    HW217336   3.417  12.623  13.100
 5147SOL     OW17337   3.724   6.567   7.940
 5147SOL    HW117338   3.689   6.535   8.023
 5147SOL    HW217339   3.802   6.514   7.925
 5148SOL     OW17340  12.525   4.430   7.000
 5148SOL    HW117341  12.496   4.505   6.948
 5148SOL    HW217342  12.616   4.418   6.976
 5149SOL     OW17343   2.034  13.839   1.856
 5149SOL    HW117344   2.075  13.877   1.934
 5149SOL    HW217345   1.998  13.915   1.809
 5150SOL     OW17346   6.341   6.245  10.234
 5150SOL    HW117347   6.345   6.262  10.140
 5150SOL    HW217348   6.324   6.151  10.241
 5151SOL     OW17349   6.816   5.186  11.980
 5151SOL    HW117350   6.909   5.174  11.999
 5151SOL    HW217351   6.813   5.269  11.932
 5152SOL     OW17352   1.150   4.113   8.959
 5152SOL    HW117353   1.226   4.136   9.012
 5152SOL    HW217354   1.137   4.189   8.902
 5153SOL     OW17355   4.811   3.022   5.656
 5153SOL    HW117356   4.734   2.967   5.638
 5153SOL    HW217357   4.884   2.960   5.660
 5154SOL     OW17358  13.250   3.628   6.091
 5154SOL    HW117359  13.164   3.653   6.123
 5154SOL    HW217360  13.282   3.564   6.154
 5155SOL     OW17361   7.400  14.103   4.683
 5155SOL    HW117362   7.405  14.182   4.737
 5155SOL    HW217363   7.450  14.125   4.604
 5156SOL     OW17364   8.644   2.839  14.617
 5156SOL    HW117365   8.607   2.806  14.699
 5156SOL    HW217366   8.738   2.823  14.625
 5157SOL     OW17367   7.149  13.346  14.052
 5157SOL    HW117368   7.079  13.322  14.113
 5157SOL    HW217369   7.230  13.329  14.101
 5158SOL     OW17370   0.976   8.611   4.711
 5158SOL    HW117371   0.925   8.668   4.654
 5158SOL    HW217372   1.050   8.664   4.739
 5159SOL     OW17373  11.631   1.421  11.898
 5159SOL    HW117374  11.587   1.424  11.983
 5159SOL    HW217375  11.560   1.429  11.835
 5160SOL     OW17376  13.850   6.809   6.191
 5160SOL    HW117377  13.827   6.895   6.228
 5160SOL    HW217378  13.946   6.804   6.200
 5161SOL     OW17379   6.546   2.714   3.097
 5161SOL    HW117380   6.513   2.645   3.154
 5161SOL    HW217381   6.577   2.782   3.157
 5162SOL     OW17382   5.957   6.534   1.192
 5162SOL    HW117383   5.993   6.588   1.263
 5162SOL    HW217384   5.923   6.456   1.236
 5163SOL     OW17385   9.639   7.123   9.455
 5163SOL    HW117386   9.591   7.206   9.458
 5163SOL    HW217387   9.673   7.117   9.366
 5164SOL     OW17388  10.859   0.387   1.719
 5164SOL    HW117389  10.895   0.472   1.744
 5164SOL    HW217390  10.907   0.362   1.640
 5165SOL     OW17391   5.763   1.775   1.563
 5165SOL    HW117392   5.789   1.816   1.480
 5165SOL    HW217393   5.719   1.845   1.611
 5166SOL     OW17394   9.133   4.956   4.291
 5166SOL    HW117395   9.080   4.956   4.211
 5166SOL    HW217396   9.180   5.039   4.289
 5167SOL     OW17397   1.645  12.672   7.319
 5167SOL    HW117398   1.700  12.612   7.369
 5167SOL    HW217399   1.636  12.749   7.375
 5168SOL     OW17400  13.869   7.504   6.981
 5168SOL    HW117401  13.798   7.561   6.952
 5168SOL    HW217402  13.944   7.530   6.927
 5169SOL     OW17403   7.618  10.089  12.145
 5169SOL    HW117404   7.557  10.139  12.091
 5169SOL    HW217405   7.675  10.044  12.082
 5170SOL     OW17406  14.252   7.321  11.514
 5170SOL    HW117407  14.273   7.412  11.495
 5170SOL    HW217408  14.159   7.322  11.537
 5171SOL     OW17409   1.129   2.271  12.258
 5171SOL    HW117410   1.107   2.181  12.279
 5171SOL    HW217411   1.133   2.315  12.343
 5172SOL     OW17412   3.547  14.026  12.400
 5172SOL    HW117413   3.479  14.087  12.373
 5172SOL    HW217414   3.629  14.072  12.383
 5173SOL     OW17415   3.203  11.162   7.382
 5173SOL    HW117416   3.226  11.071   7.402
 5173SOL    HW217417   3.229  11.173   7.291
 5174SOL     OW17418  10.885   8.395  11.155
 5174SOL    HW117419  10.792   8.417  11.155
 5174SOL    HW217420  10.908   8.388  11.062
 5175SOL     OW17421  14.481   7.819   7.595
 5175SOL    HW117422  14.396   7.776   7.581
 5175SOL    HW217423  14.527   7.807   7.512
 5176SOL     OW17424   6.491   3.873   8.429
 5176SOL    HW117425   6.578   3.913   8.430
 5176SOL    HW217426   6.433   3.939   8.466
 5177SOL     OW17427  12.347   6.341  14.226
 5177SOL    HW117428  12.436   6.368  14.203
 5177SOL    HW217429  12.354   6.310  14.316
 5178SOL     OW17430   5.840  10.599  13.804
 5178SOL    HW117431   5.750  10.623  13.825
 5178SOL    HW217432   5.847  10.613  13.709
 5179SOL     OW17433   1.791   8.455   4.420
 5179SOL    HW117434   1.858   8.482   4.482
 5179SOL    HW217435   1.746   8.537   4.396
 5180SOL     OW17436  12.589   8.532  12.151
 5180SOL    HW117437  12.618   8.488  12.231
 5180SOL    HW217438  12.495   8.546  12.163
 5181SOL     OW17439  12.607   8.405   8.750
 5181SOL    HW117440  12.693   8.443   8.732
 5181SOL    HW217441  12.555   8.426   8.672
 5182SOL     OW17442   2.097   7.978  11.834
 5182SOL    HW117443   2.176   7.980  11.888
 5182SOL    HW217444   2.096   7.890  11.797
 5183SOL     OW17445  13.319   1.078   9.246
 5183SOL    HW117446  13.250   1.101   9.184
 5183SOL    HW217447  13.302   0.987   9.269
 5184SOL     OW17448   6.204  13.672   5.589
 5184SOL    HW117449   6.152  13.651   5.667
 5184SOL    HW217450   6.178  13.761   5.567
 5185SOL     OW17451   3.778   9.415   7.392
 5185SOL    HW117452   3.724   9.390   7.317
 5185SOL    HW217453   3.784   9.336   7.445
 5186SOL     OW17454   4.468   9.230   8.493
 5186SOL    HW117455   4.466   9.136   8.513
 5186SOL    HW217456   4.407   9.269   8.555
 5187SOL     OW17457  11.780   4.219   8.144
 5187SOL    HW117458  11.830   4.250   8.220
 5187SOL    HW217459  11.689   4.234   8.169
 5188SOL     OW17460   6.296   4.010   0.302
 5188SOL    HW117461   6.317   4.102   0.317
 5188SOL    HW217462   6.202   4.010   0.282
 5189SOL     OW17463   4.779   0.580  11.837
 5189SOL    HW117464   4.760   0.529  11.758
 5189SOL    HW217465   4.724   0.658  11.829
 5190SOL     OW17466   6.696   6.546  13.300
 5190SOL    HW117467   6.711   6.482  13.230
 5190SOL    HW217468   6.774   6.540  13.355
 5191SOL     OW17469   3.498   1.495   5.551
 5191SOL    HW117470   3.560   1.447   5.498
 5191SOL    HW217471   3.430   1.431   5.573
 5192SOL     OW17472   4.751  11.169   7.978
 5192SOL    HW117473   4.717  11.255   7.953
 5192SOL    HW217474   4.704  11.147   8.058
 5193SOL     OW17475   5.028   8.102   4.202
 5193SOL    HW117476   5.003   8.143   4.285
 5193SOL    HW217477   4.973   8.025   4.196
 5194SOL     OW17478   1.558   7.712   2.015
 5194SOL    HW117479   1.509   7.795   2.019
 5194SOL    HW217480   1.642   7.736   1.976
 5195SOL     OW17481   8.903   0.280   8.458
 5195SOL    HW117482   8.988   0.299   8.418
 5195SOL    HW217483   8.910   0.189   8.486
 5196SOL     OW17484   7.888  10.319  12.050
 5196SOL    HW117485   7.817  10.299  12.111
 5196SOL    HW217486   7.895  10.414  12.053
 5197SOL     OW17487   3.703  11.492   4.689
 5197SOL    HW117488   3.668  11.580   4.694
 5197SOL    HW217489   3.642  11.446   4.631
 5198SOL     OW17490  12.176   0.119   2.427
 5198SOL    HW117491  12.177   0.100   2.521
 5198SOL    HW217492  12.084   0.133   2.406
 5199SOL     OW17493   4.035   5.495  10.301
 5199SOL    HW117494   4.040   5.563  10.234
 5199SOL    HW217495   3.991   5.422  10.257
 5200SOL     OW17496   6.101   3.729   6.040
 5200SOL    HW117497   6.090   3.810   6.089
 5200SOL    HW217498   6.196   3.716   6.037
 5201SOL     OW17499   8.166   0.797   4.801
 5201SOL    HW117500   8.108   0.855   4.752
 5201SOL    HW217501   8.127   0.792   4.889
 5202SOL     OW17502   9.749  11.588   2.832
 5202SOL    HW117503   9.657  11.559   2.831
 5202SOL    HW217504   9.799  11.509   2.813
 5203SOL     OW17505   5.733  10.910   3.470
 5203SOL    HW117506   5.653  10.900   3.522
 5203SOL    HW217507   5.801  10.867   3.523
 5204SOL     OW17508   5.484  11.086  13.573
 5204SOL    HW117509   5.505  11.103  13.482
 5204SOL    HW217510   5.564  11.048  13.610
 5205SOL     OW17511  12.119  11.992  14.294
 5205SOL    HW117512  12.064  12.057  14.251
 5205SOL    HW217513  12.066  11.961  14.367
 5206SOL     OW17514   0.686   2.256   0.461
 5206SOL    HW117515   0.746   2.307   0.516
 5206SOL    HW217516   0.677   2.172   0.505
 5207SOL     OW17517  12.778  13.626  10.119
 5207SOL    HW117518  12.768  13.573  10.198
 5207SOL    HW217519  12.773  13.563  10.047
 5208SOL     OW17520   4.528  13.878   9.768
 5208SOL    HW117521   4.600  13.828   9.806
 5208SOL    HW217522   4.568  13.959   9.738
 5209SOL     OW17523   0.716   6.420   2.840
 5209SOL    HW117524   0.687   6.377   2.921
 5209SOL    HW217525   0.664   6.500   2.836
 5210SOL     OW17526  13.110   2.646   0.342
 5210SOL    HW117527  13.026   2.673   0.306
 5210SOL    HW217528  13.120   2.555   0.312
 5211SOL     OW17529   1.210  14.151   3.075
 5211SOL    HW117530   1.159  14.152   3.156
 5211SOL    HW217531   1.240  14.242   3.065
 5212SOL     OW17532  10.327   5.759   4.256
 5212SOL    HW117533  10.411   5.755   4.210
 5212SOL    HW217534  10.263   5.778   4.187
 5213SOL     OW17535  14.609   6.489  12.977
 5213SOL    HW117536  14.552   6.542  13.033
 5213SOL    HW217537  14.697   6.522  12.993
 5214SOL     OW17538   2.790   7.736   3.845
 5214SOL    HW117539   2.821   7.695   3.926
 5214SOL    HW217540   2.719   7.794   3.872
 5215SOL     OW17541  14.095  13.945   4.217
 5215SOL    HW117542  14.093  13.953   4.313
 5215SOL    HW217543  14.009  13.975   4.189
 5216SOL     OW17544   1.350   2.978  11.483
 5216SOL    HW117545   1.328   2.885  11.481
 5216SOL    HW217546   1.301   3.016  11.410
 5217SOL     OW17547   1.607  13.432   2.597
 5217SOL    HW117548   1.544  13.435   2.669
 5217SOL    HW217549   1.664  13.508   2.612
 5218SOL     OW17550   6.068   2.147   0.608
 5218SOL    HW117551   6.017   2.185   0.680
 5218SOL    HW217552   6.151   2.122   0.648
 5219SOL     OW17553   1.720  10.607   4.327
 5219SOL    HW117554   1.708  10.514   4.347
 5219SOL    HW217555   1.668  10.653   4.393
 5220SOL     OW17556   4.445  12.279   3.895
 5220SOL    HW117557   4.401  12.337   3.958
 5220SOL    HW217558   4.404  12.194   3.907
 5221SOL     OW17559   6.327  10.059   8.173
 5221SOL    HW117560   6.420  10.080   8.180
 5221SOL    HW217561   6.282  10.140   8.199
 5222SOL     OW17562   2.325  11.602   2.752
 5222SOL    HW117563   2.372  11.521   2.729
 5222SOL    HW217564   2.294  11.636   2.669
 5223SOL     OW17565   0.678   4.025  10.787
 5223SOL    HW117566   0.742   4.088  10.755
 5223SOL    HW217567   0.719   3.940  10.772
 5224SOL     OW17568   8.719  12.735   3.305
 5224SOL    HW117569   8.715  12.828   3.326
 5224SOL    HW217570   8.631  12.702   3.320
 5225SOL     OW17571   3.181  12.603   6.409
 5225SOL    HW117572   3.087  12.615   6.424
 5225SOL    HW217573   3.190  12.509   6.393
 5226SOL     OW17574  10.442   3.356   1.130
 5226SOL    HW117575  10.446   3.288   1.063
 5226SOL    HW217576  10.510   3.418   1.105
 5227SOL     OW17577   7.242   9.490  13.630
 5227SOL    HW117578   7.205   9.524  13.549
 5227SOL    HW217579   7.336   9.487  13.614
 5228SOL     OW17580   7.768   5.814   5.047
 5228SOL    HW117581   7.821   5.738   5.071
 5228SOL    HW217582   7.793   5.882   5.110
 5229SOL     OW17583   3.049   9.584   3.340
 5229SOL    HW117584   3.108   9.659   3.343
 5229SOL    HW217585   3.017   9.574   3.429
 5230SOL     OW17586   4.677   9.393   2.075
 5230SOL    HW117587   4.661   9.376   1.982
 5230SOL    HW217588   4.590   9.386   2.115
 5231SOL     OW17589  11.601  13.661   6.794
 5231SOL    HW117590  11.695  13.664   6.815
 5231SOL    HW217591  11.599  13.669   6.698
 5232SOL     OW17592   3.281   2.075   6.509
 5232SOL    HW117593   3.213   2.090   6.444
 5232SOL    HW217594   3.258   2.132   6.582
 5233SOL     OW17595  13.197  11.056   3.444
 5233SOL    HW117596  13.264  11.000   3.482
 5233SOL    HW217597  13.115  11.010   3.463
 5234SOL     OW17598   3.859  11.806   4.583
 5234SOL    HW117599   3.914  11.870   4.629
 5234SOL    HW217600   3.794  11.779   4.648
 5235SOL     OW17601   6.327   4.441  12.548
 5235SOL    HW117602   6.329   4.349  12.523
 5235SOL    HW217603   6.411   4.476  12.519
 5236SOL     OW17604  11.518   6.513   4.392
 5236SOL    HW117605  11.581   6.442   4.384
 5236SOL    HW217606  11.561   6.589   4.352
 5237SOL     OW17607   3.315  13.094  11.703
 5237SOL    HW117608   3.401  13.116  11.666
 5237SOL    HW217609   3.335  13.033  11.774
 5238SOL     OW17610   9.526   8.233   9.611
 5238SOL    HW117611   9.479   8.316   9.606
 5238SOL    HW217612   9.587   8.236   9.537
 5239SOL     OW17613   3.790   7.985   4.881
 5239SOL    HW117614   3.730   7.942   4.821
 5239SOL    HW217615   3.757   8.075   4.888
 5240SOL     OW17616   9.236  11.165   5.624
 5240SOL    HW117617   9.293  11.154   5.548
 5240SOL    HW217618   9.266  11.246   5.665
 5241SOL     OW17619   8.129  14.809  11.020
 5241SOL    HW117620   8.182  14.730  11.033
 5241SOL    HW217621   8.059  14.782  10.960
 5242SOL     OW17622   2.372  12.094   2.647
 5242SOL    HW117623   2.291  12.063   2.688
 5242SOL    HW217624   2.368  12.061   2.557
 5243SOL     OW17625  11.370   2.007   0.210
 5243SOL    HW117626  11.447   2.062   0.207
 5243SOL    HW217627  11.375   1.954   0.130
 5244SOL     OW17628   2.002  12.482   5.715
 5244SOL    HW117629   2.096  12.475   5.700
 5244SOL    HW217630   1.983  12.575   5.705
 5245SOL     OW17631   3.005   0.300   3.148
 5245SOL    HW117632   2.958   0.322   3.068
 5245SOL    HW217633   2.968   0.358   3.215
 5246SOL     OW17634   7.430   0.042   8.342
 5246SOL    HW117635   7.347   0.087   8.362
 5246SOL    HW217636   7.463   0.014   8.427
 5247SOL     OW17637   7.255  14.249   1.110
 5247SOL    HW117638   7.171  14.253   1.064
 5247SOL    HW217639   7.295  14.168   1.078
 5248SOL     OW17640   0.268   9.220   5.886
 5248SOL    HW117641   0.260   9.290   5.822
 5248SOL    HW217642   0.230   9.255   5.966
 5249SOL     OW17643  12.859  11.767   6.703
 5249SOL    HW117644  12.944  11.755   6.660
 5249SOL    HW217645  12.880  11.796   6.791
 5250SOL     OW17646   9.809   1.431   0.714
 5250SOL    HW117647   9.714   1.435   0.702
 5250SOL    HW217648   9.822   1.360   0.778
 5251SOL     OW17649  10.186   8.300  13.798
 5251SOL    HW117650  10.185   8.293  13.703
 5251SOL    HW217651  10.208   8.391  13.815
 5252SOL     OW17652  14.244   5.812  12.967
 5252SOL    HW117653  14.322   5.757  12.963
 5252SOL    HW217654  14.211   5.799  13.056
 5253SOL     OW17655   7.066  11.710  13.431
 5253SOL    HW117656   6.991  11.759  13.464
 5253SOL    HW217657   7.140  11.770  13.437
 5254SOL     OW17658   9.798  14.562   4.738
 5254SOL    HW117659   9.814  14.523   4.823
 5254SOL    HW217660   9.855  14.514   4.678
 5255SOL     OW17661   9.281   6.807   1.825
 5255SOL    HW117662   9.365   6.845   1.801
 5255SOL    HW217663   9.297   6.763   1.908
 5256SOL     OW17664   9.550  12.264  11.995
 5256SOL    HW117665   9.502  12.293  11.917
 5256SOL    HW217666   9.636  12.304  11.987
 5257SOL     OW17667   1.867   7.333   7.594
 5257SOL    HW117668   1.778   7.368   7.590
 5257SOL    HW217669   1.906   7.376   7.671
 5258SOL     OW17670  10.117  13.361   5.796
 5258SOL    HW117671  10.093  13.281   5.843
 5258SOL    HW217672  10.033  13.400   5.771
 5259SOL     OW17673   5.235   4.805   2.246
 5259SOL    HW117674   5.142   4.785   2.260
 5259SOL    HW217675   5.259   4.753   2.169
 5260SOL     OW17676  13.521   2.539  13.485
 5260SOL    HW117677  13.582   2.588  13.540
 5260SOL    HW217678  13.504   2.596  13.411
 5261SOL     OW17679  14.549   6.827  13.946
 5261SOL    HW117680  14.467   6.788  13.975
 5261SOL    HW217681  14.601   6.835  14.026
 5262SOL     OW17682  13.156  13.694   9.221
 5262SOL    HW117683  13.081  13.675   9.278
 5262SOL    HW217684  13.230  13.649   9.262
 5263SOL     OW17685   1.698   0.547   1.925
 5263SOL    HW117686   1.659   0.620   1.877
 5263SOL    HW217687   1.684   0.471   1.869
 5264SOL     OW17688   4.783  14.040  11.752
 5264SOL    HW117689   4.700  14.055  11.799
 5264SOL    HW217690   4.845  14.016  11.821
 5265SOL     OW17691  10.323   4.463  12.172
 5265SOL    HW117692  10.255   4.511  12.125
 5265SOL    HW217693  10.277   4.425  12.247
 5266SOL     OW17694  12.887   0.166  13.188
 5266SOL    HW117695  12.932   0.148  13.106
 5266SOL    HW217696  12.957   0.166  13.254
 5267SOL     OW17697   2.647   8.954  14.716
 5267SOL    HW117698   2.734   8.925  14.743
 5267SOL    HW217699   2.659   8.989  14.628
 5268SOL     OW17700   9.832   7.075  10.045
 5268SOL    HW117701   9.771   7.082   9.972
 5268SOL    HW217702   9.777   7.048  10.119
 5269SOL     OW17703   7.453   2.432   5.594
 5269SOL    HW117704   7.465   2.338   5.583
 5269SOL    HW217705   7.477   2.469   5.509
 5270SOL     OW17706   5.961  11.827   4.521
 5270SOL    HW117707   5.975  11.917   4.550
 5270SOL    HW217708   6.044  11.802   4.479
 5271SOL     OW17709   2.702   9.420   6.183
 5271SOL    HW117710   2.739   9.351   6.237
 5271SOL    HW217711   2.771   9.486   6.178
 5272SOL     OW17712   1.797   7.245   6.906
 5272SOL    HW117713   1.844   7.177   6.856
 5272SOL    HW217714   1.842   7.247   6.990
 5273SOL     OW17715   3.711   8.569   8.816
 5273SOL    HW117716   3.751   8.520   8.744
 5273SOL    HW217717   3.708   8.507   8.889
 5274SOL     OW17718   2.817   8.739   1.528
 5274SOL    HW117719   2.739   8.685   1.543
 5274SOL    HW217720   2.796   8.789   1.448
 5275SOL     OW17721  13.082  13.231   8.671
 5275SOL    HW117722  13.066  13.301   8.735
 5275SOL    HW217723  13.167  13.252   8.633
 5276SOL     OW17724   7.712   9.714   3.957
 5276SOL    HW117725   7.687   9.622   3.948
 5276SOL    HW217726   7.720   9.745   3.867
 5277SOL     OW17727   5.655   3.661  14.622
 5277SOL    HW117728   5.604   3.716  14.562
 5277SOL    HW217729   5.675   3.583  14.571
 5278SOL     OW17730  12.263  14.008   7.500
 5278SOL    HW117731  12.231  13.918   7.490
 5278SOL    HW217732  12.184  14.062   7.503
 5279SOL     OW17733   9.076   0.077   1.154
 5279SOL    HW117734   9.093   0.161   1.112
 5279SOL    HW217735   8.999   0.093   1.209
 5280SOL     OW17736   7.092   5.770   2.776
 5280SOL    HW117737   7.036   5.845   2.758
 5280SOL    HW217738   7.129   5.746   2.691
 5281SOL     OW17739  13.193   9.368   4.299
 5281SOL    HW117740  13.249   9.444   4.286
 5281SOL    HW217741  13.252   9.293   4.290
 5282SOL     OW17742  10.975  12.028  11.577
 5282SOL    HW117743  11.051  12.085  11.563
 5282SOL    HW217744  10.903  12.087  11.596
 5283SOL     OW17745   1.298   3.543  13.580
 5283SOL    HW117746   1.249   3.617  13.544
 5283SOL    HW217747   1.254   3.466  13.545
 5284SOL     OW17748  11.700  10.504   9.788
 5284SOL    HW117749  11.692  10.595   9.760
 5284SOL    HW217750  11.679  10.505   9.881
 5285SOL     OW17751  14.563  13.564   3.856
 5285SOL    HW117752  14.549  13.493   3.794
 5285SOL    HW217753  14.478  13.579   3.896
 5286SOL     OW17754   0.302   3.266  14.857
 5286SOL    HW117755   0.312   3.177  14.824
 5286SOL    HW217756   0.379   3.281   0.041
 5287SOL     OW17757   8.720   0.556   0.160
 5287SOL    HW117758   8.755   0.499   0.229
 5287SOL    HW217759   8.626   0.562   0.180
 5288SOL     OW17760   0.928  13.319   9.912
 5288SOL    HW117761   0.936  13.343  10.004
 5288SOL    HW217762   0.862  13.250   9.911
 5289SOL     OW17763  12.888   1.053   3.890
 5289SOL    HW117764  12.933   1.061   3.805
 5289SOL    HW217765  12.922   1.126   3.942
 5290SOL     OW17766   0.900   1.340   5.055
 5290SOL    HW117767   0.895   1.271   5.121
 5290SOL    HW217768   0.970   1.310   4.996
 5291SOL     OW17769   2.921  12.525   6.202
 5291SOL    HW117770   2.878  12.483   6.127
 5291SOL    HW217771   2.943  12.453   6.261
 5292SOL     OW17772   8.982   0.656   0.118
 5292SOL    HW117773   9.023   0.595   0.057
 5292SOL    HW217774   8.890   0.629   0.121
 5293SOL     OW17775  13.607   1.584   9.111
 5293SOL    HW117776  13.547   1.552   9.178
 5293SOL    HW217777  13.635   1.506   9.065
 5294SOL     OW17778   6.963   5.723   7.378
 5294SOL    HW117779   7.002   5.805   7.348
 5294SOL    HW217780   6.980   5.661   7.306
 5295SOL     OW17781  14.119  12.135  13.101
 5295SOL    HW117782  14.178  12.113  13.029
 5295SOL    HW217783  14.062  12.203  13.066
 5296SOL     OW17784   6.862   5.614   4.682
 5296SOL    HW117785   6.937   5.590   4.738
 5296SOL    HW217786   6.852   5.708   4.696
 5297SOL     OW17787   4.757   7.177   0.978
 5297SOL    HW117788   4.675   7.157   1.023
 5297SOL    HW217789   4.810   7.220   1.045
 5298SOL     OW17790   4.917   8.481   4.834
 5298SOL    HW117791   4.945   8.390   4.845
 5298SOL    HW217792   4.822   8.475   4.818
 5299SOL     OW17793   4.820   7.585   7.742
 5299SOL    HW117794   4.826   7.494   7.771
 5299SOL    HW217795   4.834   7.581   7.648
 5300SOL     OW17796  11.605  10.437  14.568
 5300SOL    HW117797  11.640  10.515  14.612
 5300SOL    HW217798  11.681  10.397  14.526
 5301SOL     OW17799   8.415  13.116  10.662
 5301SOL    HW117800   8.441  13.128  10.754
 5301SOL    HW217801   8.414  13.204  10.625
 5302SOL     OW17802   9.075   8.755  13.196
 5302SOL    HW117803   9.114   8.797  13.273
 5302SOL    HW217804   9.051   8.827  13.138
 5303SOL     OW17805   1.942   7.810   1.717
 5303SOL    HW117806   1.886   7.762   1.657
 5303SOL    HW217807   1.884   7.874   1.759
 5304SOL     OW17808   3.809   2.539   0.776
 5304SOL    HW117809   3.739   2.547   0.840
 5304SOL    HW217810   3.889   2.529   0.829
 5305SOL     OW17811   5.874   5.290  11.275
 5305SOL    HW117812   5.889   5.310  11.183
 5305SOL    HW217813   5.899   5.371  11.321
 5306SOL     OW17814  12.186   0.619   2.705
 5306SOL    HW117815  12.138   0.670   2.639
 5306SOL    HW217816  12.199   0.680   2.777
 5307SOL     OW17817  14.849   6.857  13.965
 5307SOL    HW117818  14.829   6.938  14.011
 5307SOL    HW217819  14.794   6.859  13.887
 5308SOL     OW17820   5.536   4.789  10.299
 5308SOL    HW117821   5.501   4.810  10.386
 5308SOL    HW217822   5.458   4.776  10.244
 5309SOL     OW17823   8.635  13.085   9.403
 5309SOL    HW117824   8.680  13.019   9.351
 5309SOL    HW217825   8.706  13.134   9.446
 5310SOL     OW17826   2.145  12.974  13.919
 5310SOL    HW117827   2.085  12.903  13.944
 5310SOL    HW217828   2.228  12.930  13.903
 5311SOL     OW17829   2.582   9.681   5.574
 5311SOL    HW117830   2.673   9.661   5.595
 5311SOL    HW217831   2.542   9.596   5.557
 5312SOL     OW17832   5.299   0.501   0.332
 5312SOL    HW117833   5.239   0.428   0.316
 5312SOL    HW217834   5.267   0.540   0.414
 5313SOL     OW17835   1.338   8.767  11.081
 5313SOL    HW117836   1.385   8.713  11.017
 5313SOL    HW217837   1.293   8.704  11.137
 5314SOL     OW17838  12.819   8.373   6.711
 5314SOL    HW117839  12.901   8.412   6.740
 5314SOL    HW217840  12.784   8.435   6.648
 5315SOL     OW17841  10.698   6.766   7.223
 5315SOL    HW117842  10.623   6.795   7.275
 5315SOL    HW217843  10.661   6.743   7.137
 5316SOL     OW17844   6.113  14.500   2.814
 5316SOL    HW117845   6.097  14.407   2.826
 5316SOL    HW217846   6.096  14.516   2.721
 5317SOL     OW17847   7.865   4.717   2.287
 5317SOL    HW117848   7.938   4.694   2.345
 5317SOL    HW217849   7.906   4.770   2.218
 5318SOL     OW17850  11.646  13.059   0.905
 5318SOL    HW117851  11.594  13.120   0.958
 5318SOL    HW217852  11.582  12.998   0.868
 5319SOL     OW17853  12.903   2.089  10.455
 5319SOL    HW117854  12.937   2.123  10.537
 5319SOL    HW217855  12.882   1.997  10.473
 5320SOL     OW17856  14.168  12.471  11.033
 5320SOL    HW117857  14.114  12.490  10.956
 5320SOL    HW217858  14.153  12.544  11.092
 5321SOL     OW17859  13.113   1.588   1.161
 5321SOL    HW117860  13.066   1.664   1.197
 5321SOL    HW217861  13.070   1.512   1.200
 5322SOL     OW17862   2.338   6.197   8.347
 5322SOL    HW117863   2.276   6.261   8.311
 5322SOL    HW217864   2.408   6.250   8.385
 5323SOL     OW17865   0.484  11.653   3.548
 5323SOL    HW117866   0.568  11.609   3.553
 5323SOL    HW217867   0.443  11.635   3.633
 5324SOL     OW17868  14.123   1.227   8.430
 5324SOL    HW117869  14.186   1.164   8.395
 5324SOL    HW217870  14.097   1.280   8.354
 5325SOL     OW17871   7.577   0.230  10.457
 5325SOL    HW117872   7.500   0.258  10.407
 5325SOL    HW217873   7.553   0.248  10.548
 5326SOL     OW17874  11.001   1.640  11.280
 5326SOL    HW117875  10.907   1.651  11.266
 5326SOL    HW217876  11.008   1.623  11.374
 5327SOL     OW17877  14.309  11.989  10.699
 5327SOL    HW117878  14.227  12.003  10.745
 5327SOL    HW217879  14.357  11.926  10.754
 5328SOL     OW17880   9.303   3.610   8.606
 5328SOL    HW117881   9.232   3.635   8.547
 5328SOL    HW217882   9.333   3.525   8.573
 5329SOL     OW17883   0.106   9.835   4.628
 5329SOL    HW117884   0.157   9.837   4.708
 5329SOL    HW217885   0.168   9.860   4.559
 5330SOL     OW17886   1.098   6.074  14.714
 5330SOL    HW117887   1.073   6.157  14.673
 5330SOL    HW217888   1.193   6.076  14.717
 5331SOL     OW17889   2.271  11.633  10.041
 5331SOL    HW117890   2.300  11.722  10.021
 5331SOL    HW217891   2.288  11.623  10.135
 5332SOL     OW17892  14.128   8.124  12.344
 5332SOL    HW117893  14.186   8.182  12.394
 5332SOL    HW217894  14.090   8.066  12.410
 5333SOL     OW17895   6.099  13.095   4.521
 5333SOL    HW117896   6.146  13.137   4.448
 5333SOL    HW217897   6.153  13.019   4.544
 5334SOL     OW17898   8.331   1.310   3.610
 5334SOL    HW117899   8.313   1.326   3.517
 5334SOL    HW217900   8.390   1.381   3.635
 5335SOL     OW17901   8.553   9.510   0.521
 5335SOL    HW117902   8.532   9.596   0.484
 5335SOL    HW217903   8.611   9.529   0.595
 5336SOL     OW17904   8.781   1.386  13.725
 5336SOL    HW117905   8.804   1.466  13.773
 5336SOL    HW217906   8.759   1.323  13.794
 5337SOL     OW17907   7.644   3.963   5.225
 5337SOL    HW117908   7.718   3.925   5.177
 5337SOL    HW217909   7.678   4.046   5.260
 5338SOL     OW17910  12.303   0.102  12.048
 5338SOL    HW117911  12.251   0.074  11.973
 5338SOL    HW217912  12.266   0.055  12.122
 5339SOL     OW17913  14.431  12.686   2.024
 5339SOL    HW117914  14.478  12.680   2.107
 5339SOL    HW217915  14.484  12.746   1.971
 5340SOL     OW17916  10.416   5.357  13.206
 5340SOL    HW117917  10.511   5.362  13.221
 5340SOL    HW217918  10.408   5.338  13.113
 5341SOL     OW17919   8.506  13.140   8.187
 5341SOL    HW117920   8.495  13.131   8.282
 5341SOL    HW217921   8.417  13.148   8.153
 5342SOL     OW17922   5.131  12.533   5.610
 5342SOL    HW117923   5.187  12.475   5.661
 5342SOL    HW217924   5.069  12.475   5.567
 5343SOL     OW17925   7.346   0.618   9.650
 5343SOL    HW117926   7.256   0.640   9.629
 5343SOL    HW217927   7.353   0.631   9.745
 5344SOL     OW17928   4.793  14.240   7.275
 5344SOL    HW117929   4.792  14.245   7.180
 5344SOL    HW217930   4.813  14.329   7.304
 5345SOL     OW17931   9.617   9.078  10.131
 5345SOL    HW117932   9.527   9.095  10.103
 5345SOL    HW217933   9.634   9.144  10.198
 5346SOL     OW17934  10.066   2.702   7.563
 5346SOL    HW117935  10.113   2.772   7.518
 5346SOL    HW217936  10.025   2.651   7.494
 5347SOL     OW17937   4.101   2.360   5.358
 5347SOL    HW117938   4.142   2.357   5.271
 5347SOL    HW217939   4.061   2.447   5.363
 5348SOL     OW17940   7.943   1.444   1.399
 5348SOL    HW117941   8.032   1.468   1.423
 5348SOL    HW217942   7.946   1.431   1.305
 5349SOL     OW17943   5.189   4.459  14.720
 5349SOL    HW117944   5.189   4.555  14.719
 5349SOL    HW217945   5.097   4.435  14.706
 5350SOL     OW17946  10.238   8.381   4.798
 5350SOL    HW117947  10.203   8.443   4.734
 5350SOL    HW217948  10.333   8.396   4.796
 5351SOL     OW17949   9.850   2.174   9.282
 5351SOL    HW117950   9.888   2.135   9.203
 5351SOL    HW217951   9.911   2.244   9.305
 5352SOL     OW17952  13.235   2.657   5.725
 5352SOL    HW117953  13.191   2.579   5.692
 5352SOL    HW217954  13.180   2.730   5.697
 5353SOL     OW17955   2.826   3.666   3.142
 5353SOL    HW117956   2.920   3.676   3.128
 5353SOL    HW217957   2.819   3.607   3.217
 5354SOL     OW17958  11.512  13.380   3.885
 5354SOL    HW117959  11.598  13.422   3.882
 5354SOL    HW217960  11.514  13.316   3.814
 5355SOL     OW17961   6.733   4.698   7.528
 5355SOL    HW117962   6.670   4.688   7.457
 5355SOL    HW217963   6.707   4.632   7.593
 5356SOL     OW17964   1.005  11.235   6.522
 5356SOL    HW117965   1.038  11.145   6.525
 5356SOL    HW217966   0.944  11.241   6.595
 5357SOL     OW17967   3.303   5.041   2.084
 5357SOL    HW117968   3.225   5.076   2.043
 5357SOL    HW217969   3.291   4.946   2.082
 5358SOL     OW17970   7.443  11.844   9.907
 5358SOL    HW117971   7.455  11.784   9.833
 5358SOL    HW217972   7.442  11.931   9.867
 5359SOL     OW17973  14.606  13.846  14.218
 5359SOL    HW117974  14.599  13.764  14.169
 5359SOL    HW217975  14.694  13.878  14.199
 5360SOL     OW17976  12.334   8.253  12.298
 5360SOL    HW117977  12.325   8.341  12.336
 5360SOL    HW217978  12.245   8.228  12.273
 5361SOL     OW17979   4.166   4.283   3.935
 5361SOL    HW117980   4.197   4.192   3.934
 5361SOL    HW217981   4.151   4.302   4.028
 5362SOL     OW17982   1.907  10.720  11.169
 5362SOL    HW117983   1.993  10.762  11.171
 5362SOL    HW217984   1.922  10.639  11.120
 5363SOL     OW17985   7.801   0.694   4.006
 5363SOL    HW117986   7.811   0.745   4.086
 5363SOL    HW217987   7.744   0.622   4.030
 5364SOL     OW17988   5.400   1.992   5.422
 5364SOL    HW117989   5.415   1.964   5.331
 5364SOL    HW217990   5.368   1.913   5.466
 5365SOL     OW17991   1.052  12.426  12.869
 5365SOL    HW117992   1.064  12.521  12.865
 5365SOL    HW217993   1.013  12.410  12.955
 5366SOL     OW17994   9.089  14.607   7.363
 5366SOL    HW117995   9.147  14.531   7.369
 5366SOL    HW217996   9.059  14.607   7.272
 5367SOL     OW17997   5.424   0.978   0.711
 5367SOL    HW117998   5.469   0.946   0.790
 5367SOL    HW217999   5.332   0.956   0.726
 5368SOL     OW18000   7.512   8.142   4.397
 5368SOL    HW118001   7.559   8.188   4.467
 5368SOL    HW218002   7.432   8.111   4.439
 5369SOL     OW18003   7.004   0.226   1.919
 5369SOL    HW118004   6.932   0.281   1.887
 5369SOL    HW218005   6.961   0.150   1.958
 5370SOL     OW18006  10.073   2.101  13.117
 5370SOL    HW118007  10.046   2.105  13.025
 5370SOL    HW218008   9.992   2.083  13.165
 5371SOL     OW18009  10.506   4.196   0.719
 5371SOL    HW118010  10.438   4.130   0.734
 5371SOL    HW218011  10.504   4.211   0.625
 5372SOL     OW18012  11.964  10.494   2.720
 5372SOL    HW118013  11.884  10.466   2.676
 5372SOL    HW218014  12.020  10.526   2.650
 5373SOL     OW18015  11.103  12.708   7.955
 5373SOL    HW118016  11.053  12.743   8.029
 5373SOL    HW218017  11.038  12.667   7.898
 5374SOL     OW18018  12.785   4.679   3.233
 5374SOL    HW118019  12.696   4.706   3.255
 5374SOL    HW218020  12.810   4.736   3.160
 5375SOL     OW18021   0.765  13.486   0.759
 5375SOL    HW118022   0.781  13.481   0.665
 5375SOL    HW218023   0.839  13.537   0.793
 5376SOL     OW18024  11.946   0.057  12.601
 5376SOL    HW118025  12.017   0.090  12.547
 5376SOL    HW218026  11.902   0.136  12.634
 5377SOL     OW18027   1.949  11.279   3.967
 5377SOL    HW118028   1.862  11.311   3.945
 5377SOL    HW218029   1.934  11.211   4.033
 5378SOL     OW18030   4.282   8.459  10.867
 5378SOL    HW118031   4.370   8.490  10.845
 5378SOL    HW218032   4.268   8.491  10.956
 5379SOL     OW18033   4.227   0.276   1.967
 5379SOL    HW118034   4.283   0.198   1.966
 5379SOL    HW218035   4.224   0.304   1.875
 5380SOL     OW18036   6.406   9.070   0.943
 5380SOL    HW118037   6.330   9.014   0.956
 5380SOL    HW218038   6.455   9.063   1.025
 5381SOL     OW18039  11.583   4.867   2.503
 5381SOL    HW118040  11.659   4.818   2.471
 5381SOL    HW218041  11.544   4.811   2.570
 5382SOL     OW18042  10.330   2.186  13.796
 5382SOL    HW118043  10.237   2.170  13.815
 5382SOL    HW218044  10.376   2.139  13.866
 5383SOL     OW18045   9.068  13.931   5.548
 5383SOL    HW118046   9.021  13.848   5.547
 5383SOL    HW218047   9.026  13.984   5.481
 5384SOL     OW18048  11.712   2.496   2.191
 5384SOL    HW118049  11.664   2.542   2.260
 5384SOL    HW218050  11.713   2.558   2.118
 5385SOL     OW18051  11.178   5.260   0.934
 5385SOL    HW118052  11.116   5.191   0.955
 5385SOL    HW218053  11.221   5.280   1.017
 5386SOL     OW18054   5.403   8.587   8.457
 5386SOL    HW118055   5.470   8.652   8.434
 5386SOL    HW218056   5.439   8.504   8.424
 5387SOL     OW18057  11.260   9.835   3.630
 5387SOL    HW118058  11.227   9.748   3.651
 5387SOL    HW218059  11.185   9.893   3.643
 5388SOL     OW18060   2.146  12.792  14.361
 5388SOL    HW118061   2.086  12.759  14.428
 5388SOL    HW218062   2.178  12.875  14.397
 5389SOL     OW18063   1.531   8.847   3.930
 5389SOL    HW118064   1.521   8.858   3.835
 5389SOL    HW218065   1.524   8.752   3.944
 5390SOL     OW18066   8.687  13.512   0.555
 5390SOL    HW118067   8.721  13.512   0.645
 5390SOL    HW218068   8.705  13.601   0.523
 5391SOL     OW18069   3.472   9.674   4.444
 5391SOL    HW118070   3.393   9.693   4.494
 5391SOL    HW218071   3.443   9.672   4.352
 5392SOL     OW18072   6.390  10.916   4.460
 5392SOL    HW118073   6.453  10.848   4.438
 5392SOL    HW218074   6.358  10.948   4.376
 5393SOL     OW18075   4.734   7.335   4.448
 5393SOL    HW118076   4.661   7.273   4.444
 5393SOL    HW218077   4.810   7.285   4.419
 5394SOL     OW18078   0.078  13.082  11.293
 5394SOL    HW118079   0.151  13.141  11.312
 5394SOL    HW218080   0.010  13.106  11.356
 5395SOL     OW18081   7.251   1.193   2.934
 5395SOL    HW118082   7.217   1.169   3.021
 5395SOL    HW218083   7.172   1.201   2.880
 5396SOL     OW18084  14.361   6.924  14.636
 5396SOL    HW118085  14.427   6.967  14.582
 5396SOL    HW218086  14.379   6.953  14.725
 5397SOL     OW18087  13.953   2.367  12.829
 5397SOL    HW118088  13.901   2.327  12.899
 5397SOL    HW218089  13.902   2.444  12.803
 5398SOL     OW18090  10.652   2.041   3.636
 5398SOL    HW118091  10.637   2.135   3.624
 5398SOL    HW218092  10.729   2.037   3.693
 5399SOL     OW18093  11.077   8.048  12.010
 5399SOL    HW118094  11.008   8.108  11.983
 5399SOL    HW218095  11.041   8.003  12.086
 5400SOL     OW18096  10.550   0.721   3.960
 5400SOL    HW118097  10.598   0.639   3.947
 5400SOL    HW218098  10.617   0.784   3.988
 5401SOL     OW18099   3.968  11.048  14.297
 5401SOL    HW118100   3.945  10.991  14.224
 5401SOL    HW218101   4.006  11.126  14.255
 5402SOL     OW18102  14.829  13.772   5.215
 5402SOL    HW118103  14.811  13.776   5.121
 5402SOL    HW218104  14.858  13.682   5.230
 5403SOL     OW18105  13.698   3.755   6.255
 5403SOL    HW118106  13.631   3.701   6.299
 5403SOL    HW218107  13.655   3.784   6.175
 5404SOL     OW18108   7.934  14.589   2.502
 5404SOL    HW118109   7.948  14.670   2.453
 5404SOL    HW218110   7.906  14.526   2.435
 5405SOL     OW18111   0.108   4.444  10.556
 5405SOL    HW118112   0.159   4.414  10.480
 5405SOL    HW218113   0.028   4.480  10.518
 5406SOL     OW18114   1.036   7.553   5.171
 5406SOL    HW118115   0.974   7.482   5.154
 5406SOL    HW218116   1.057   7.588   5.084
 5407SOL     OW18117   4.962  14.755   7.000
 5407SOL    HW118118   5.046  14.800   6.996
 5407SOL    HW218119   4.970  14.695   7.074
 5408SOL     OW18120   3.993   0.977   1.937
 5408SOL    HW118121   4.067   0.953   1.992
 5408SOL    HW218122   3.923   0.916   1.962
 5409SOL     OW18123  12.840   1.729   8.628
 5409SOL    HW118124  12.884   1.814   8.636
 5409SOL    HW218125  12.911   1.665   8.636
 5410SOL     OW18126   7.728  14.774  12.168
 5410SOL    HW118127   7.667  14.770  12.095
 5410SOL    HW218128   7.726  14.866  12.196
 5411SOL     OW18129  12.810  12.930   0.147
 5411SOL    HW118130  12.845  12.895   0.229
 5411SOL    HW218131  12.887  12.950   0.094
 5412SOL     OW18132  10.588   5.512   0.677
 5412SOL    HW118133  10.647   5.476   0.744
 5412SOL    HW218134  10.500   5.496   0.712
 5413SOL     OW18135   4.001   5.578  12.242
 5413SOL    HW118136   4.002   5.564  12.337
 5413SOL    HW218137   4.072   5.523  12.209
 5414SOL     OW18138   3.038   4.118   0.626
 5414SOL    HW118139   3.080   4.051   0.680
 5414SOL    HW218140   3.026   4.192   0.685
 5415SOL     OW18141  10.185   7.685   9.489
 5415SOL    HW118142  10.160   7.718   9.403
 5415SOL    HW218143  10.264   7.634   9.473
 5416SOL     OW18144   7.505  14.842   8.597
 5416SOL    HW118145   7.560  14.770   8.628
 5416SOL    HW218146   7.443  14.857   8.669
 5417SOL     OW18147   2.250  13.574   0.602
 5417SOL    HW118148   2.207  13.496   0.638
 5417SOL    HW218149   2.334  13.542   0.569
 5418SOL     OW18150   5.557  10.600   1.784
 5418SOL    HW118151   5.572  10.540   1.857
 5418SOL    HW218152   5.630  10.662   1.790
 5419SOL     OW18153   6.898   5.912   2.615
 5419SOL    HW118154   6.812   5.878   2.589
 5419SOL    HW218155   6.949   5.912   2.535
 5420SOL     OW18156   4.009   5.207   3.872
 5420SOL    HW118157   3.943   5.247   3.928
 5420SOL    HW218158   3.973   5.214   3.783
 5421SOL     OW18159  12.122   9.495  11.499
 5421SOL    HW118160  12.062   9.569  11.502
 5421SOL    HW218161  12.083   9.434  11.436
 5422SOL     OW18162  13.738  14.841  11.012
 5422SOL    HW118163  13.804  14.773  11.004
 5422SOL    HW218164  13.771   0.044  10.959
 5423SOL     OW18165   9.103  14.228   4.312
 5423SOL    HW118166   9.043  14.245   4.384
 5423SOL    HW218167   9.179  14.185   4.353
 5424SOL     OW18168   8.492   5.311  14.458
 5424SOL    HW118169   8.464   5.338  14.546
 5424SOL    HW218170   8.493   5.215  14.461
 5425SOL     OW18171  14.573  14.736   6.340
 5425SOL    HW118172  14.539  14.763   6.425
 5425SOL    HW218173  14.521  14.659   6.317
 5426SOL     OW18174  14.006   2.232   1.802
 5426SOL    HW118175  13.922   2.238   1.847
 5426SOL    HW218176  14.024   2.138   1.797
 5427SOL     OW18177   7.137   2.655   2.885
 5427SOL    HW118178   7.162   2.668   2.977
 5427SOL    HW218179   7.047   2.688   2.879
 5428SOL     OW18180  14.729   9.922   5.942
 5428SOL    HW118181  14.666   9.952   6.008
 5428SOL    HW218182  14.726   9.826   5.948
 5429SOL     OW18183   4.831   5.210   2.539
 5429SOL    HW118184   4.745   5.237   2.508
 5429SOL    HW218185   4.882   5.292   2.540
 5430SOL     OW18186   3.066   9.192   5.859
 5430SOL    HW118187   3.075   9.147   5.943
 5430SOL    HW218188   3.067   9.285   5.883
 5431SOL     OW18189   5.395   2.155   3.351
 5431SOL    HW118190   5.478   2.179   3.310
 5431SOL    HW218191   5.345   2.113   3.281
 5432SOL     OW18192   9.640  12.107  12.405
 5432SOL    HW118193   9.645  12.055  12.324
 5432SOL    HW218194   9.618  12.196  12.375
 5433SOL     OW18195   7.080  10.423   0.055
 5433SOL    HW118196   7.102  10.470   0.136
 5433SOL    HW218197   7.035  10.344   0.084
 5434SOL     OW18198  14.528   0.316   1.516
 5434SOL    HW118199  14.582   0.300   1.439
 5434SOL    HW218200  14.473   0.391   1.492
 5435SOL     OW18201  10.518   6.756   6.972
 5435SOL    HW118202  10.479   6.843   6.962
 5435SOL    HW218203  10.450   6.696   6.944
 5436SOL     OW18204  13.996  13.095   7.999
 5436SOL    HW118205  13.995  13.187   7.974
 5436SOL    HW218206  13.965  13.095   8.090
 5437SOL     OW18207   3.843   6.647   7.236
 5437SOL    HW118208   3.896   6.713   7.192
 5437SOL    HW218209   3.889   6.565   7.219
 5438SOL     OW18210  11.825   3.697   8.315
 5438SOL    HW118211  11.800   3.789   8.309
 5438SOL    HW218212  11.744   3.648   8.298
 5439SOL     OW18213  11.773   2.610  14.732
 5439SOL    HW118214  11.810   2.565  14.808
 5439SOL    HW218215  11.765   2.541  14.665
 5440SOL     OW18216   6.318  12.775   3.978
 5440SOL    HW118217   6.408  12.755   4.006
 5440SOL    HW218218   6.312  12.739   3.890
 5441SOL     OW18219  12.126   8.777   6.089
 5441SOL    HW118220  12.132   8.780   5.993
 5441SOL    HW218221  12.210   8.742   6.117
 5442SOL     OW18222  10.564   6.670   8.231
 5442SOL    HW118223  10.638   6.610   8.225
 5442SOL    HW218224  10.527   6.654   8.318
 5443SOL     OW18225  11.727   0.008   8.716
 5443SOL    HW118226  11.661  14.863   8.784
 5443SOL    HW218227  11.676   0.030   8.638
 5444SOL     OW18228   0.548   3.286   9.731
 5444SOL    HW118229   0.504   3.313   9.650
 5444SOL    HW218230   0.596   3.365   9.758
 5445SOL     OW18231  14.588  13.814   9.669
 5445SOL    HW118232  14.601  13.798   9.763
 5445SOL    HW218233  14.639  13.893   9.651
 5446SOL     OW18234   7.397  11.949  10.949
 5446SOL    HW118235   7.473  11.993  10.912
 5446SOL    HW218236   7.412  11.951  11.044
 5447SOL     OW18237   5.538   9.690   8.725
 5447SOL    HW118238   5.492   9.623   8.675
 5447SOL    HW218239   5.492   9.771   8.706
 5448SOL     OW18240   6.719  12.740   2.995
 5448SOL    HW118241   6.686  12.718   2.908
 5448SOL    HW218242   6.776  12.815   2.981
 5449SOL     OW18243  14.407   1.441  12.881
 5449SOL    HW118244  14.402   1.537  12.877
 5449SOL    HW218245  14.355   1.417  12.957
 5450SOL     OW18246   6.343   1.286  12.192
 5450SOL    HW118247   6.273   1.351  12.195
 5450SOL    HW218248   6.306   1.209  12.237
 5451SOL     OW18249  14.452   3.529   7.338
 5451SOL    HW118250  14.428   3.584   7.263
 5451SOL    HW218251  14.492   3.590   7.400
 5452SOL     OW18252   2.778   8.421   8.548
 5452SOL    HW118253   2.728   8.409   8.629
 5452SOL    HW218254   2.864   8.452   8.577
 5453SOL     OW18255   4.008   7.873   8.909
 5453SOL    HW118256   4.007   7.910   8.821
 5453SOL    HW218257   4.096   7.837   8.918
 5454SOL     OW18258   8.286   3.872  12.441
 5454SOL    HW118259   8.334   3.952  12.417
 5454SOL    HW218260   8.328   3.803  12.389
 5455SOL     OW18261  13.913  13.017   7.665
 5455SOL    HW118262  13.988  13.065   7.701
 5455SOL    HW218263  13.952  12.941   7.622
 5456SOL     OW18264   5.487  14.595   5.038
 5456SOL    HW118265   5.489  14.627   5.128
 5456SOL    HW218266   5.567  14.630   4.998
 5457SOL     OW18267   1.589   5.184  14.392
 5457SOL    HW118268   1.653   5.230  14.447
 5457SOL    HW218269   1.508   5.236  14.401
 5458SOL     OW18270   2.098   6.037   5.819
 5458SOL    HW118271   2.031   6.010   5.755
 5458SOL    HW218272   2.116   6.128   5.798
 5459SOL     OW18273  12.265   4.623   8.211
 5459SOL    HW118274  12.211   4.630   8.289
 5459SOL    HW218275  12.203   4.596   8.142
 5460SOL     OW18276   0.238  13.389   3.535
 5460SOL    HW118277   0.244  13.334   3.614
 5460SOL    HW218278   0.153  13.431   3.542
 5461SOL     OW18279  13.030   6.721  12.266
 5461SOL    HW118280  13.068   6.680  12.343
 5461SOL    HW218281  12.936   6.702  12.272
 5462SOL     OW18282  13.346   1.986  11.073
 5462SOL    HW118283  13.383   1.957  11.157
 5462SOL    HW218284  13.349   2.081  11.077
 5463SOL     OW18285  12.402  14.469   2.705
 5463SOL    HW118286  12.369  14.482   2.616
 5463SOL    HW218287  12.399  14.374   2.718
 5464SOL     OW18288   4.017   0.086   7.769
 5464SOL    HW118289   4.077   0.074   7.842
 5464SOL    HW218290   3.979   0.173   7.783
 5465SOL     OW18291   1.681  12.374  12.805
 5465SOL    HW118292   1.659  12.349  12.894
 5465SOL    HW218293   1.598  12.402  12.767
 5466SOL     OW18294  12.613  10.259   7.336
 5466SOL    HW118295  12.553  10.319   7.380
 5466SOL    HW218296  12.685  10.315   7.306
 5467SOL     OW18297   1.275   5.703   4.293
 5467SOL    HW118298   1.364   5.736   4.302
 5467SOL    HW218299   1.280   5.641   4.220
 5468SOL     OW18300  13.577   5.427   5.771
 5468SOL    HW118301  13.549   5.510   5.809
 5468SOL    HW218302  13.651   5.449   5.715
 5469SOL     OW18303  11.979   5.094  10.802
 5469SOL    HW118304  11.931   5.153  10.744
 5469SOL    HW218305  12.044   5.151  10.844
 5470SOL     OW18306   1.574   0.355   2.369
 5470SOL    HW118307   1.542   0.314   2.288
 5470SOL    HW218308   1.668   0.362   2.355
 5471SOL     OW18309   6.790  12.332   4.626
 5471SOL    HW118310   6.862  12.287   4.583
 5471SOL    HW218311   6.833  12.395   4.684
 5472SOL     OW18312   0.437   3.321   7.229
 5472SOL    HW118313   0.432   3.382   7.302
 5472SOL    HW218314   0.411   3.372   7.152
 5473SOL     OW18315   2.962   4.163   8.710
 5473SOL    HW118316   3.057   4.147   8.709
 5473SOL    HW218317   2.932   4.118   8.789
 5474SOL     OW18318   1.547  12.949   4.052
 5474SOL    HW118319   1.572  12.965   4.143
 5474SOL    HW218320   1.601  12.874   4.025
 5475SOL     OW18321   9.008   2.934  11.749
 5475SOL    HW118322   8.962   2.864  11.796
 5475SOL    HW218323   9.017   3.004  11.814
 5476SOL     OW18324   8.836  10.960   1.004
 5476SOL    HW118325   8.753  10.920   0.977
 5476SOL    HW218326   8.880  10.891   1.053
 5477SOL     OW18327   0.082   4.872   8.660
 5477SOL    HW118328   0.107   4.823   8.581
 5477SOL    HW218329   0.144   4.843   8.727
 5478SOL     OW18330   1.437   9.638   0.001
 5478SOL    HW118331   1.448   9.722  14.827
 5478SOL    HW218332   1.349   9.610  14.848
 5479SOL     OW18333   0.330  10.690   2.543
 5479SOL    HW118334   0.259  10.695   2.606
 5479SOL    HW218335   0.408  10.673   2.596
 5480SOL     OW18336   4.993   2.520  13.231
 5480SOL    HW118337   4.936   2.531  13.155
 5480SOL    HW218338   4.950   2.451  13.283
 5481SOL     OW18339   9.495   7.956   8.790
 5481SOL    HW118340   9.453   7.914   8.716
 5481SOL    HW218341   9.532   7.884   8.841
 5482SOL     OW18342  11.354   8.701   1.471
 5482SOL    HW118343  11.390   8.648   1.399
 5482SOL    HW218344  11.318   8.778   1.427
 5483SOL     OW18345  11.338   6.082   5.596
 5483SOL    HW118346  11.405   6.064   5.529
 5483SOL    HW218347  11.294   6.161   5.566
 5484SOL     OW18348   2.222   1.398   7.500
 5484SOL    HW118349   2.272   1.455   7.442
 5484SOL    HW218350   2.169   1.457   7.553
 5485SOL     OW18351  10.357  14.531   5.143
 5485SOL    HW118352  10.287  14.535   5.078
 5485SOL    HW218353  10.403  14.449   5.125
 5486SOL     OW18354   6.744  10.646   8.210
 5486SOL    HW118355   6.767  10.558   8.180
 5486SOL    HW218356   6.798  10.704   8.157
 5487SOL     OW18357  11.674  14.735  11.272
 5487SOL    HW118358  11.749  14.794  11.263
 5487SOL    HW218359  11.614  14.762  11.201
 5488SOL     OW18360  11.386  10.074   9.620
 5488SOL    HW118361  11.374  10.168   9.604
 5488SOL    HW218362  11.478  10.058   9.598
 5489SOL     OW18363   0.527  12.519   5.269
 5489SOL    HW118364   0.547  12.574   5.345
 5489SOL    HW218365   0.611  12.504   5.227
 5490SOL     OW18366   3.331   1.038   1.327
 5490SOL    HW118367   3.296   1.099   1.262
 5490SOL    HW218368   3.356   0.961   1.277
 5491SOL     OW18369  12.674  14.107   9.328
 5491SOL    HW118370  12.639  14.119   9.416
 5491SOL    HW218371  12.758  14.062   9.342
 5492SOL     OW18372   5.891  12.935   5.613
 5492SOL    HW118373   5.911  12.880   5.537
 5492SOL    HW218374   5.956  13.006   5.609
 5493SOL     OW18375   2.366   0.763   7.368
 5493SOL    HW118376   2.393   0.705   7.297
 5493SOL    HW218377   2.349   0.703   7.441
 5494SOL     OW18378  11.445  10.405   6.793
 5494SOL    HW118379  11.447  10.372   6.703
 5494SOL    HW218380  11.524  10.458   6.801
 5495SOL     OW18381   3.374   9.594   6.922
 5495SOL    HW118382   3.436   9.593   6.849
 5495SOL    HW218383   3.427   9.614   6.999
 5496SOL     OW18384   9.167   2.309   9.581
 5496SOL    HW118385   9.166   2.403   9.564
 5496SOL    HW218386   9.260   2.287   9.585
 5497SOL     OW18387   5.328  10.070  12.721
 5497SOL    HW118388   5.351  10.049  12.630
 5497SOL    HW218389   5.311   9.985  12.762
 5498SOL     OW18390   4.645  11.780   2.414
 5498SOL    HW118391   4.721  11.821   2.373
 5498SOL    HW218392   4.661  11.787   2.508
 5499SOL     OW18393  13.420   3.054   9.078
 5499SOL    HW118394  13.414   2.972   9.127
 5499SOL    HW218395  13.344   3.105   9.107
 5500SOL     OW18396   9.878   3.229   2.378
 5500SOL    HW118397   9.943   3.280   2.329
 5500SOL    HW218398   9.900   3.138   2.360
 5501SOL     OW18399  13.492   6.719  12.114
 5501SOL    HW118400  13.468   6.629  12.091
 5501SOL    HW218401  13.490   6.720  12.210
 5502SOL     OW18402   8.653  11.601   6.295
 5502SOL    HW118403   8.636  11.638   6.208
 5502SOL    HW218404   8.708  11.665   6.339
 5503SOL     OW18405   2.626   9.590   4.587
 5503SOL    HW118406   2.619   9.523   4.518
 5503SOL    HW218407   2.686   9.552   4.652
 5504SOL     OW18408   0.224   9.467   6.449
 5504SOL    HW118409   0.151   9.458   6.510
 5504SOL    HW218410   0.302   9.470   6.505
 5505SOL     OW18411   1.497   2.815   2.343
 5505SOL    HW118412   1.520   2.740   2.288
 5505SOL    HW218413   1.470   2.883   2.281
 5506SOL     OW18414  11.143   4.478   4.073
 5506SOL    HW118415  11.166   4.533   4.148
 5506SOL    HW218416  11.113   4.540   4.006
 5507SOL     OW18417   8.452   0.254   9.336
 5507SOL    HW118418   8.530   0.217   9.377
 5507SOL    HW218419   8.379   0.208   9.377
 5508SOL     OW18420  13.248  12.673   5.632
 5508SOL    HW118421  13.286  12.741   5.577
 5508SOL    HW218422  13.305  12.669   5.709
 5509SOL     OW18423   6.481  14.307  12.929
 5509SOL    HW118424   6.569  14.287  12.962
 5509SOL    HW218425   6.493  14.386  12.877
 5510SOL     OW18426   1.058   8.863  13.671
 5510SOL    HW118427   1.146   8.829  13.681
 5510SOL    HW218428   1.011   8.831  13.748
 5511SOL     OW18429   1.719  12.401  14.806
 5511SOL    HW118430   1.809  12.416  14.778
 5511SOL    HW218431   1.719  12.312  14.842
 5512SOL     OW18432   2.526   3.295   7.050
 5512SOL    HW118433   2.479   3.233   6.995
 5512SOL    HW218434   2.603   3.246   7.080
 5513SOL     OW18435   6.177   0.669   0.315
 5513SOL    HW118436   6.176   0.743   0.256
 5513SOL    HW218437   6.230   0.698   0.390
 5514SOL     OW18438   5.816   2.719  14.196
 5514SOL    HW118439   5.798   2.668  14.276
 5514SOL    HW218440   5.767   2.673  14.128
 5515SOL     OW18441  11.968   7.525  10.628
 5515SOL    HW118442  12.038   7.513  10.564
 5515SOL    HW218443  11.986   7.611  10.667
 5516SOL     OW18444  11.914   8.579  13.672
 5516SOL    HW118445  11.997   8.531  13.672
 5516SOL    HW218446  11.937   8.668  13.649
 5517SOL     OW18447   5.516  13.317  10.482
 5517SOL    HW118448   5.599  13.271  10.494
 5517SOL    HW218449   5.533  13.381  10.413
 5518SOL     OW18450   2.452   3.974   7.379
 5518SOL    HW118451   2.441   3.894   7.329
 5518SOL    HW218452   2.416   3.955   7.466
 5519SOL     OW18453  14.534  13.884   0.821
 5519SOL    HW118454  14.574  13.803   0.789
 5519SOL    HW218455  14.524  13.869   0.915
 5520SOL     OW18456  10.026  11.630   5.343
 5520SOL    HW118457  10.082  11.560   5.310
 5520SOL    HW218458  10.060  11.710   5.301
 5521SOL     OW18459  14.217   8.793   3.550
 5521SOL    HW118460  14.227   8.884   3.577
 5521SOL    HW218461  14.238   8.742   3.629
 5522SOL     OW18462   1.152  10.171   8.733
 5522SOL    HW118463   1.195  10.164   8.819
 5522SOL    HW218464   1.225  10.173   8.671
 5523SOL     OW18465   2.833   5.482   6.879
 5523SOL    HW118466   2.835   5.577   6.877
 5523SOL    HW218467   2.865   5.459   6.966
 5524SOL     OW18468  12.205   4.042  14.066
 5524SOL    HW118469  12.212   4.070  14.157
 5524SOL    HW218470  12.231   3.950  14.067
 5525SOL     OW18471  13.499  11.355   8.373
 5525SOL    HW118472  13.443  11.347   8.296
 5525SOL    HW218473  13.438  11.354   8.447
 5526SOL     OW18474   0.452  14.298  14.463
 5526SOL    HW118475   0.474  14.236  14.532
 5526SOL    HW218476   0.362  14.325  14.483
 5527SOL     OW18477   8.256  10.219   7.186
 5527SOL    HW118478   8.162  10.234   7.170
 5527SOL    HW218479   8.296  10.226   7.099
 5528SOL     OW18480  12.060   6.623  10.323
 5528SOL    HW118481  12.061   6.575  10.240
 5528SOL    HW218482  12.011   6.703  10.304
 5529SOL     OW18483   9.460   1.818  11.914
 5529SOL    HW118484   9.415   1.742  11.951
 5529SOL    HW218485   9.410   1.840  11.835
 5530SOL     OW18486   6.221   6.985   9.261
 5530SOL    HW118487   6.240   6.991   9.167
 5530SOL    HW218488   6.151   6.920   9.267
 5531SOL     OW18489   6.253   9.679   4.189
 5531SOL    HW118490   6.197   9.668   4.266
 5531SOL    HW218491   6.312   9.751   4.213
 5532SOL     OW18492   7.222  13.133   5.324
 5532SOL    HW118493   7.274  13.067   5.371
 5532SOL    HW218494   7.287  13.198   5.295
 5533SOL     OW18495   8.324   3.919   8.733
 5533SOL    HW118496   8.232   3.943   8.721
 5533SOL    HW218497   8.331   3.832   8.695
 5534SOL     OW18498   2.821   8.478   6.430
 5534SOL    HW118499   2.914   8.458   6.447
 5534SOL    HW218500   2.775   8.397   6.453
 5535SOL     OW18501  14.764   8.856   9.822
 5535SOL    HW118502  14.837   8.917   9.820
 5535SOL    HW218503  14.686   8.912   9.828
 5536SOL     OW18504   0.135  11.683  14.098
 5536SOL    HW118505   0.166  11.762  14.141
 5536SOL    HW218506   0.045  11.673  14.127
 5537SOL     OW18507  14.264   9.722  10.523
 5537SOL    HW118508  14.268   9.627  10.526
 5537SOL    HW218509  14.252   9.749  10.614
 5538SOL     OW18510  14.794  12.536  11.690
 5538SOL    HW118511   0.013  12.527  11.727
 5538SOL    HW218512  14.798  12.617  11.639
 5539SOL     OW18513   0.747   4.784   6.582
 5539SOL    HW118514   0.744   4.856   6.646
 5539SOL    HW218515   0.790   4.822   6.505
 5540SOL     OW18516  13.236  13.805  13.050
 5540SOL    HW118517  13.226  13.772  12.961
 5540SOL    HW218518  13.233  13.901  13.040
 5541SOL     OW18519  14.038   2.651  11.538
 5541SOL    HW118520  14.085   2.601  11.471
 5541SOL    HW218521  13.945   2.636  11.519
 5542SOL     OW18522   2.961   2.909   6.827
 5542SOL    HW118523   2.910   2.916   6.746
 5542SOL    HW218524   2.903   2.862   6.887
 5543SOL     OW18525   0.462   9.875   1.315
 5543SOL    HW118526   0.465   9.869   1.220
 5543SOL    HW218527   0.390   9.935   1.333
 5544SOL     OW18528   3.035   7.098   5.613
 5544SOL    HW118529   2.951   7.058   5.633
 5544SOL    HW218530   3.020   7.147   5.532
 5545SOL     OW18531   6.190   6.156  14.419
 5545SOL    HW118532   6.094   6.154  14.425
 5545SOL    HW218533   6.221   6.123  14.503
 5546SOL     OW18534   5.623   9.429  13.528
 5546SOL    HW118535   5.578   9.345  13.533
 5546SOL    HW218536   5.587   9.480  13.602
 5547SOL     OW18537   1.323   9.434   6.884
 5547SOL    HW118538   1.306   9.522   6.853
 5547SOL    HW218539   1.288   9.433   6.974
 5548SOL     OW18540   6.570   1.206   6.555
 5548SOL    HW118541   6.559   1.114   6.534
 5548SOL    HW218542   6.663   1.216   6.575
 5549SOL     OW18543   3.101   6.807  11.973
 5549SOL    HW118544   3.006   6.811  11.983
 5549SOL    HW218545   3.116   6.813  11.879
 5550SOL     OW18546   0.291  10.325  11.528
 5550SOL    HW118547   0.266  10.274  11.451
 5550SOL    HW218548   0.219  10.313  11.590
 5551SOL     OW18549   1.065   3.908   1.508
 5551SOL    HW118550   1.021   3.923   1.424
 5551SOL    HW218551   1.139   3.968   1.508
 5552SOL     OW18552   0.992   4.705   7.447
 5552SOL    HW118553   0.965   4.731   7.359
 5552SOL    HW218554   0.972   4.612   7.453
 5553SOL     OW18555   0.276   2.232  14.539
 5553SOL    HW118556   0.359   2.202  14.500
 5553SOL    HW218557   0.278   2.327  14.527
 5554SOL     OW18558   8.093   4.795   6.357
 5554SOL    HW118559   8.001   4.776   6.341
 5554SOL    HW218560   8.097   4.818   6.450
 5555SOL     OW18561   9.485   8.491  10.705
 5555SOL    HW118562   9.439   8.413  10.738
 5555SOL    HW218563   9.433   8.564  10.737
 5556SOL     OW18564   0.716   3.767   0.013
 5556SOL    HW118565   0.645   3.704   0.025
 5556SOL    HW218566   0.728   3.771  14.787
 5557SOL     OW18567   0.237   4.434   8.068
 5557SOL    HW118568   0.247   4.384   7.987
 5557SOL    HW218569   0.186   4.511   8.043
 5558SOL     OW18570   0.576  11.656  11.998
 5558SOL    HW118571   0.489  11.690  12.016
 5558SOL    HW218572   0.634  11.731  12.009
 5559SOL     OW18573  11.505  10.602   5.455
 5559SOL    HW118574  11.467  10.552   5.528
 5559SOL    HW218575  11.539  10.536   5.396
 5560SOL     OW18576   7.314   7.350  14.126
 5560SOL    HW118577   7.225   7.368  14.097
 5560SOL    HW218578   7.326   7.256  14.109
 5561SOL     OW18579  13.664   7.266  10.155
 5561SOL    HW118580  13.754   7.253  10.186
 5561SOL    HW218581  13.657   7.361  10.143
 5562SOL     OW18582   6.401   2.317  11.882
 5562SOL    HW118583   6.467   2.378  11.848
 5562SOL    HW218584   6.341   2.373  11.931
 5563SOL     OW18585   2.528   3.056   6.273
 5563SOL    HW118586   2.620   3.059   6.248
 5563SOL    HW218587   2.483   3.107   6.204
 5564SOL     OW18588   5.142   7.849  10.115
 5564SOL    HW118589   5.135   7.755  10.132
 5564SOL    HW218590   5.173   7.887  10.198
 5565SOL     OW18591   4.401   7.049  10.400
 5565SOL    HW118592   4.360   7.116  10.346
 5565SOL    HW218593   4.356   7.056  10.485
 5566SOL     OW18594  14.071  10.147  10.163
 5566SOL    HW118595  14.013  10.163  10.089
 5566SOL    HW218596  14.084  10.233  10.202
 5567SOL     OW18597   7.602   0.005   4.220
 5567SOL    HW118598   7.680  14.819   4.212
 5567SOL    HW218599   7.534  14.817   4.252
 5568SOL     OW18600   8.310   8.871   2.217
 5568SOL    HW118601   8.243   8.939   2.226
 5568SOL    HW218602   8.261   8.790   2.209
 5569SOL     OW18603   2.788   8.836   4.965
 5569SOL    HW118604   2.809   8.756   5.013
 5569SOL    HW218605   2.860   8.846   4.903
 5570SOL     OW18606  11.600   5.400   9.494
 5570SOL    HW118607  11.589   5.475   9.552
 5570SOL    HW218608  11.527   5.341   9.516
 5571SOL     OW18609  14.045   6.165   7.841
 5571SOL    HW118610  14.046   6.074   7.869
 5571SOL    HW218611  14.103   6.168   7.765
 5572SOL     OW18612   0.069   5.538  14.618
 5572SOL    HW118613   0.159   5.520  14.591
 5572SOL    HW218614   0.015   5.504  14.546
 5573SOL     OW18615   2.800   9.900   7.039
 5573SOL    HW118616   2.818   9.847   6.961
 5573SOL    HW218617   2.762   9.838   7.101
 5574SOL     OW18618   1.377   1.774   3.431
 5574SOL    HW118619   1.382   1.859   3.475
 5574SOL    HW218620   1.320   1.790   3.356
 5575SOL     OW18621  14.616   5.290   2.802
 5575SOL    HW118622  14.599   5.204   2.762
 5575SOL    HW218623  14.674   5.334   2.741
 5576SOL     OW18624   1.949   0.862   4.101
 5576SOL    HW118625   1.938   0.794   4.167
 5576SOL    HW218626   1.890   0.838   4.030
 5577SOL     OW18627  14.794   2.371  13.905
 5577SOL    HW118628  14.772   2.292  13.857
 5577SOL    HW218629  14.757   2.358  13.992
 5578SOL     OW18630   0.244  12.302   1.038
 5578SOL    HW118631   0.223  12.291   1.131
 5578SOL    HW218632   0.231  12.216   1.000
 5579SOL     OW18633   8.259   4.068   0.406
 5579SOL    HW118634   8.259   3.974   0.388
 5579SOL    HW218635   8.167   4.092   0.406
 5580SOL     OW18636   6.044   8.096  14.550
 5580SOL    HW118637   6.012   8.061  14.467
 5580SOL    HW218638   5.965   8.124  14.597
 5581SOL     OW18639  13.637   4.458   5.207
 5581SOL    HW118640  13.561   4.400   5.202
 5581SOL    HW218641  13.613   4.534   5.155
 5582SOL     OW18642   3.481  12.648   0.193
 5582SOL    HW118643   3.389  12.620   0.198
 5582SOL    HW218644   3.477  12.739   0.164
 5583SOL     OW18645   3.099   5.720   9.385
 5583SOL    HW118646   3.011   5.720   9.349
 5583SOL    HW218647   3.093   5.669   9.466
 5584SOL     OW18648   4.968   4.262   4.609
 5584SOL    HW118649   5.037   4.215   4.562
 5584SOL    HW218650   5.015   4.316   4.673
 5585SOL     OW18651   4.008   6.926   8.049
 5585SOL    HW118652   3.978   6.854   7.993
 5585SOL    HW218653   4.097   6.902   8.073
 5586SOL     OW18654   2.575   1.655   5.351
 5586SOL    HW118655   2.639   1.620   5.289
 5586SOL    HW218656   2.613   1.738   5.381
 5587SOL     OW18657   1.600  12.876  12.850
 5587SOL    HW118658   1.583  12.795  12.898
 5587SOL    HW218659   1.692  12.871  12.826
 5588SOL     OW18660   8.194  10.945  12.782
 5588SOL    HW118661   8.210  11.039  12.772
 5588SOL    HW218662   8.167  10.916  12.695
 5589SOL     OW18663   9.833   8.388  11.235
 5589SOL    HW118664   9.861   8.367  11.147
 5589SOL    HW218665   9.739   8.403  11.228
 5590SOL     OW18666   7.122   7.384  11.985
 5590SOL    HW118667   7.151   7.474  11.967
 5590SOL    HW218668   7.176   7.330  11.927
 5591SOL     OW18669   4.320  10.492  14.833
 5591SOL    HW118670   4.407  10.524  14.852
 5591SOL    HW218671   4.324  10.461  14.743
 5592SOL     OW18672  10.043  14.836   5.042
 5592SOL    HW118673   9.998  14.756   5.067
 5592SOL    HW218674  10.135  14.811   5.037
 5593SOL     OW18675  14.085   6.649   3.515
 5593SOL    HW118676  14.059   6.714   3.580
 5593SOL    HW218677  14.002   6.608   3.489
 5594SOL     OW18678   2.329   3.544   1.963
 5594SOL    HW118679   2.387   3.545   2.039
 5594SOL    HW218680   2.277   3.465   1.973
 5595SOL     OW18681   2.013   5.627   0.918
 5595SOL    HW118682   1.939   5.643   0.859
 5595SOL    HW218683   2.085   5.677   0.881
 5596SOL     OW18684   8.022  12.472   1.013
 5596SOL    HW118685   7.931  12.449   1.032
 5596SOL    HW218686   8.016  12.532   0.938
 5597SOL     OW18687   6.222   5.962   3.688
 5597SOL    HW118688   6.316   5.958   3.707
 5597SOL    HW218689   6.217   5.950   3.593
 5598SOL     OW18690   2.997   3.202   0.417
 5598SOL    HW118691   3.023   3.276   0.363
 5598SOL    HW218692   3.056   3.131   0.393
 5599SOL     OW18693   7.225  12.657   1.298
 5599SOL    HW118694   7.196  12.748   1.294
 5599SOL    HW218695   7.304  12.654   1.244
 5600SOL     OW18696  13.008   0.794   8.162
 5600SOL    HW118697  13.046   0.707   8.163
 5600SOL    HW218698  12.994   0.815   8.255
 5601SOL     OW18699  14.489   7.497  12.573
 5601SOL    HW118700  14.447   7.497  12.659
 5601SOL    HW218701  14.419   7.518  12.511
 5602SOL     OW18702  10.902  14.483   9.357
 5602SOL    HW118703  10.868  14.395   9.342
 5602SOL    HW218704  10.839  14.541   9.312
 5603SOL     OW18705  10.397   7.237  12.965
 5603SOL    HW118706  10.395   7.145  12.989
 5603SOL    HW218707  10.356   7.241  12.879
 5604SOL     OW18708  13.246  13.060   0.573
 5604SOL    HW118709  13.154  13.062   0.548
 5604SOL    HW218710  13.262  12.969   0.597
 5605SOL     OW18711   6.915   6.726   5.005
 5605SOL    HW118712   6.910   6.815   5.042
 5605SOL    HW218713   6.935   6.670   5.081
 5606SOL     OW18714   1.399  10.930   6.727
 5606SOL    HW118715   1.309  10.950   6.753
 5606SOL    HW218716   1.441  10.901   6.808
 5607SOL     OW18717   7.525   4.318  10.848
 5607SOL    HW118718   7.584   4.247  10.822
 5607SOL    HW218719   7.571   4.398  10.824
 5608SOL     OW18720   2.290   9.758   6.141
 5608SOL    HW118721   2.329   9.844   6.156
 5608SOL    HW218722   2.304   9.711   6.223
 5609SOL     OW18723  12.073   7.040   2.196
 5609SOL    HW118724  12.099   7.080   2.113
 5609SOL    HW218725  12.092   7.106   2.262
 5610SOL     OW18726   8.595  14.276   1.337
 5610SOL    HW118727   8.631  14.275   1.425
 5610SOL    HW218728   8.541  14.355   1.334
 5611SOL     OW18729  10.277   1.047   1.160
 5611SOL    HW118730  10.356   1.099   1.175
 5611SOL    HW218731  10.271   1.038   1.065
 5612SOL     OW18732  14.058   9.842   4.499
 5612SOL    HW118733  14.038   9.927   4.538
 5612SOL    HW218734  13.980   9.789   4.517
 5613SOL     OW18735   5.849  10.603  12.154
 5613SOL    HW118736   5.943  10.605  12.171
 5613SOL    HW218737   5.809  10.619  12.240
 5614SOL     OW18738  14.121  11.320  12.000
 5614SOL    HW118739  14.117  11.352  11.910
 5614SOL    HW218740  14.066  11.242  12.001
 5615SOL     OW18741  12.488   2.506  12.962
 5615SOL    HW118742  12.410   2.550  12.927
 5615SOL    HW218743  12.498   2.428  12.907
 5616SOL     OW18744   9.793   1.725   6.925
 5616SOL    HW118745   9.840   1.807   6.909
 5616SOL    HW218746   9.730   1.747   6.994
 5617SOL     OW18747   3.026  11.824   6.534
 5617SOL    HW118748   3.012  11.742   6.582
 5617SOL    HW218749   3.093  11.802   6.469
 5618SOL     OW18750   5.723   9.122  12.255
 5618SOL    HW118751   5.798   9.063  12.252
 5618SOL    HW218752   5.743   9.183  12.325
 5619SOL     OW18753   4.443  12.286   8.726
 5619SOL    HW118754   4.389  12.254   8.799
 5619SOL    HW218755   4.406  12.242   8.649
 5620SOL     OW18756  12.109   1.089   2.394
 5620SOL    HW118757  12.164   1.028   2.444
 5620SOL    HW218758  12.166   1.121   2.324
 5621SOL     OW18759   8.152   4.574   5.574
 5621SOL    HW118760   8.178   4.612   5.659
 5621SOL    HW218761   8.222   4.514   5.552
 5622SOL     OW18762   6.370  12.939   0.088
 5622SOL    HW118763   6.349  13.004   0.021
 5622SOL    HW218764   6.314  12.963   0.162
 5623SOL     OW18765   9.572   1.469  12.685
 5623SOL    HW118766   9.637   1.540  12.680
 5623SOL    HW218767   9.587   1.418  12.606
 5624SOL     OW18768   5.261   5.036   1.011
 5624SOL    HW118769   5.291   5.059   0.923
 5624SOL    HW218770   5.333   5.064   1.069
 5625SOL     OW18771   6.590  13.606  11.322
 5625SOL    HW118772   6.566  13.514  11.324
 5625SOL    HW218773   6.684  13.607  11.344
 5626SOL     OW18774  10.992  11.411   7.458
 5626SOL    HW118775  10.976  11.468   7.383
 5626SOL    HW218776  11.030  11.332   7.421
 5627SOL     OW18777   1.786   8.606   6.145
 5627SOL    HW118778   1.844   8.583   6.072
 5627SOL    HW218779   1.794   8.533   6.206
 5628SOL     OW18780  10.020  10.488   8.266
 5628SOL    HW118781   9.989  10.541   8.340
 5628SOL    HW218782  10.094  10.439   8.301
 5629SOL     OW18783  13.850   6.829   7.797
 5629SOL    HW118784  13.905   6.889   7.746
 5629SOL    HW218785  13.762   6.841   7.761
 5630SOL     OW18786  11.898   2.661   9.173
 5630SOL    HW118787  11.877   2.648   9.266
 5630SOL    HW218788  11.864   2.749   9.153
 5631SOL     OW18789   3.813   0.765   7.220
 5631SOL    HW118790   3.798   0.796   7.310
 5631SOL    HW218791   3.783   0.674   7.221
 5632SOL     OW18792   7.696   7.485  13.394
 5632SOL    HW118793   7.677   7.394  13.373
 5632SOL    HW218794   7.611   7.527  13.403
 5633SOL     OW18795  13.486   7.276   7.813
 5633SOL    HW118796  13.458   7.186   7.830
 5633SOL    HW218797  13.418   7.331   7.852
 5634SOL     OW18798  14.060   6.843   1.924
 5634SOL    HW118799  13.974   6.842   1.881
 5634SOL    HW218800  14.041   6.815   2.014
 5635SOL     OW18801   5.551   8.291  11.362
 5635SOL    HW118802   5.558   8.220  11.425
 5635SOL    HW218803   5.564   8.250  11.277
 5636SOL     OW18804  12.312   0.711   1.150
 5636SOL    HW118805  12.244   0.747   1.095
 5636SOL    HW218806  12.365   0.786   1.176
 5637SOL     OW18807  12.137  13.427  10.584
 5637SOL    HW118808  12.115  13.337  10.609
 5637SOL    HW218809  12.060  13.478  10.606
 5638SOL     OW18810   7.182   3.376  13.919
 5638SOL    HW118811   7.201   3.372  13.825
 5638SOL    HW218812   7.137   3.294  13.939
 5639SOL     OW18813  10.810   5.815  14.467
 5639SOL    HW118814  10.806   5.820  14.372
 5639SOL    HW218815  10.867   5.888  14.493
 5640SOL     OW18816  14.645   0.825   0.236
 5640SOL    HW118817  14.662   0.731   0.245
 5640SOL    HW218818  14.618   0.852   0.324
 5641SOL     OW18819  12.838   3.761   9.766
 5641SOL    HW118820  12.882   3.708   9.700
 5641SOL    HW218821  12.888   3.745   9.847
 5642SOL     OW18822  12.597   5.347   1.319
 5642SOL    HW118823  12.637   5.434   1.309
 5642SOL    HW218824  12.669   5.286   1.301
 5643SOL     OW18825  11.544  11.134   5.563
 5643SOL    HW118826  11.627  11.180   5.579
 5643SOL    HW218827  11.565  11.042   5.576
 5644SOL     OW18828  13.793  14.726   5.079
 5644SOL    HW118829  13.847  14.799   5.049
 5644SOL    HW218830  13.749  14.759   5.157
 5645SOL     OW18831   0.138  11.070  10.732
 5645SOL    HW118832   0.064  11.101  10.784
 5645SOL    HW218833   0.152  10.980  10.761
 5646SOL     OW18834   9.856   5.735   4.525
 5646SOL    HW118835   9.850   5.806   4.461
 5646SOL    HW218836   9.845   5.779   4.609
 5647SOL     OW18837   0.833  12.898   0.825
 5647SOL    HW118838   0.892  12.852   0.884
 5647SOL    HW218839   0.768  12.833   0.800
 5648SOL     OW18840  13.686   4.533  12.029
 5648SOL    HW118841  13.753   4.507  12.093
 5648SOL    HW218842  13.736   4.574  11.958
 5649SOL     OW18843  10.885   5.467   5.753
 5649SOL    HW118844  10.925   5.527   5.691
 5649SOL    HW218845  10.823   5.416   5.701
 5650SOL     OW18846   8.429  13.180  11.470
 5650SOL    HW118847   8.395  13.210  11.385
 5650SOL    HW218848   8.351  13.150  11.517
 5651SOL     OW18849   6.703  12.774  10.016
 5651SOL    HW118850   6.647  12.771  10.094
 5651SOL    HW218851   6.641  12.776   9.943
 5652SOL     OW18852   1.661   8.737   4.819
 5652SOL    HW118853   1.656   8.812   4.878
 5652SOL    HW218854   1.740   8.753   4.767
 5653SOL     OW18855  12.282  10.904  10.996
 5653SOL    HW118856  12.192  10.932  10.980
 5653SOL    HW218857  12.335  10.953  10.934
 5654SOL     OW18858   5.580   7.053   7.671
 5654SOL    HW118859   5.575   7.085   7.761
 5654SOL    HW218860   5.541   7.122   7.618
 5655SOL     OW18861  14.405   5.092   8.340
 5655SOL    HW118862  14.317   5.071   8.309
 5655SOL    HW218863  14.396   5.179   8.380
 5656SOL     OW18864   1.581  11.170   2.944
 5656SOL    HW118865   1.492  11.148   2.971
 5656SOL    HW218866   1.599  11.254   2.987
 5657SOL     OW18867   1.770  12.859   3.114
 5657SOL    HW118868   1.845  12.904   3.152
 5657SOL    HW218869   1.716  12.835   3.188
 5658SOL     OW18870  13.212   6.715  11.885
 5658SOL    HW118871  13.203   6.628  11.923
 5658SOL    HW218872  13.195   6.775  11.958
 5659SOL     OW18873  12.748   6.984   3.426
 5659SOL    HW118874  12.728   6.989   3.519
 5659SOL    HW218875  12.840   7.011   3.420
 5660SOL     OW18876  14.774   5.652   5.670
 5660SOL    HW118877  14.736   5.585   5.727
 5660SOL    HW218878  14.794   5.606   5.588
 5661SOL     OW18879  11.322   9.393   4.301
 5661SOL    HW118880  11.275   9.364   4.379
 5661SOL    HW218881  11.255   9.398   4.233
 5662SOL     OW18882   1.172   5.517   9.347
 5662SOL    HW118883   1.127   5.436   9.371
 5662SOL    HW218884   1.147   5.532   9.256
 5663SOL     OW18885  12.380  14.032   9.774
 5663SOL    HW118886  12.314  14.045   9.706
 5663SOL    HW218887  12.387  14.116   9.818
 5664SOL     OW18888   8.392   3.075   9.418
 5664SOL    HW118889   8.470   3.110   9.375
 5664SOL    HW218890   8.320   3.093   9.357
 5665SOL     OW18891   4.793   6.926   0.814
 5665SOL    HW118892   4.737   6.905   0.888
 5665SOL    HW218893   4.824   7.015   0.832
 5666SOL     OW18894  14.234   3.572  12.833
 5666SOL    HW118895  14.205   3.573  12.742
 5666SOL    HW218896  14.162   3.530  12.881
 5667SOL     OW18897   5.082   5.161   5.811
 5667SOL    HW118898   5.070   5.079   5.763
 5667SOL    HW218899   4.999   5.207   5.803
 5668SOL     OW18900  11.829   0.184  11.977
 5668SOL    HW118901  11.858   0.272  12.000
 5668SOL    HW218902  11.876   0.126  12.038
 5669SOL     OW18903  13.116  12.688  12.056
 5669SOL    HW118904  13.132  12.782  12.066
 5669SOL    HW218905  13.124  12.672  11.962
 5670SOL     OW18906  10.367   7.492   1.675
 5670SOL    HW118907  10.335   7.494   1.765
 5670SOL    HW218908  10.435   7.560   1.673
 5671SOL     OW18909  11.240   2.256   6.779
 5671SOL    HW118910  11.179   2.251   6.853
 5671SOL    HW218911  11.277   2.344   6.783
 5672SOL     OW18912   8.378   3.232   5.606
 5672SOL    HW118913   8.408   3.179   5.532
 5672SOL    HW218914   8.360   3.318   5.567
 5673SOL     OW18915  10.447   8.601  13.116
 5673SOL    HW118916  10.468   8.655  13.192
 5673SOL    HW218917  10.409   8.661  13.052
 5674SOL     OW18918   2.418   8.652   0.682
 5674SOL    HW118919   2.395   8.625   0.593
 5674SOL    HW218920   2.414   8.747   0.680
 5675SOL     OW18921   1.883   9.445  12.876
 5675SOL    HW118922   1.815   9.471  12.814
 5675SOL    HW218923   1.935   9.380  12.828
 5676SOL     OW18924  11.154  10.110   7.201
 5676SOL    HW118925  11.223  10.060   7.157
 5676SOL    HW218926  11.191  10.134   7.285
 5677SOL     OW18927  13.054   4.451  12.347
 5677SOL    HW118928  13.107   4.468  12.425
 5677SOL    HW218929  13.010   4.535  12.329
 5678SOL     OW18930  14.073  11.623   4.109
 5678SOL    HW118931  14.105  11.542   4.069
 5678SOL    HW218932  14.103  11.618   4.200
 5679SOL     OW18933   8.805   1.502   5.586
 5679SOL    HW118934   8.840   1.413   5.593
 5679SOL    HW218935   8.747   1.499   5.510
 5680SOL     OW18936   2.458   7.596   8.725
 5680SOL    HW118937   2.417   7.545   8.795
 5680SOL    HW218938   2.500   7.670   8.769
 5681SOL     OW18939  13.361   4.168   0.307
 5681SOL    HW118940  13.312   4.113   0.369
 5681SOL    HW218941  13.399   4.106   0.245
 5682SOL     OW18942  12.981  10.357   4.048
 5682SOL    HW118943  13.016  10.446   4.047
 5682SOL    HW218944  13.008  10.322   4.133
 5683SOL     OW18945   1.180  13.254   9.813
 5683SOL    HW118946   1.237  13.212   9.876
 5683SOL    HW218947   1.103  13.280   9.864
 5684SOL     OW18948   1.145   6.108   2.624
 5684SOL    HW118949   1.091   6.185   2.642
 5684SOL    HW218950   1.115   6.077   2.538
 5685SOL     OW18951   4.097   6.877  10.987
 5685SOL    HW118952   4.135   6.892  10.900
 5685SOL    HW218953   4.156   6.814  11.029
 5686SOL     OW18954  12.982   4.805   0.609
 5686SOL    HW118955  13.050   4.823   0.674
 5686SOL    HW218956  12.963   4.712   0.620
 5687SOL     OW18957  14.234   2.045   1.861
 5687SOL    HW118958  14.285   2.014   1.786
 5687SOL    HW218959  14.260   2.137   1.871
 5688SOL     OW18960   9.374   5.745   3.389
 5688SOL    HW118961   9.453   5.734   3.336
 5688SOL    HW218962   9.404   5.731   3.479
 5689SOL     OW18963  11.725  13.014   4.007
 5689SOL    HW118964  11.668  12.955   3.957
 5689SOL    HW218965  11.794  13.038   3.946
 5690SOL     OW18966  10.707   2.195   8.021
 5690SOL    HW118967  10.636   2.177   8.083
 5690SOL    HW218968  10.672   2.170   7.936
 5691SOL     OW18969  13.213  12.417   9.529
 5691SOL    HW118970  13.187  12.447   9.442
 5691SOL    HW218971  13.139  12.440   9.585
 5692SOL     OW18972   3.552   6.737   9.532
 5692SOL    HW118973   3.492   6.724   9.605
 5692SOL    HW218974   3.556   6.833   9.522
 5693SOL     OW18975  12.996   4.672   3.395
 5693SOL    HW118976  12.913   4.678   3.347
 5693SOL    HW218977  13.052   4.738   3.354
 5694SOL     OW18978   0.929  13.457   1.461
 5694SOL    HW118979   0.905  13.364   1.455
 5694SOL    HW218980   0.906  13.493   1.375
 5695SOL     OW18981  10.919  13.310   7.454
 5695SOL    HW118982  11.005  13.269   7.449
 5695SOL    HW218983  10.858  13.241   7.431
 5696SOL     OW18984   7.028   4.669  13.061
 5696SOL    HW118985   7.062   4.580  13.067
 5696SOL    HW218986   7.083   4.712  12.996
 5697SOL     OW18987   6.629  14.563  12.388
 5697SOL    HW118988   6.616  14.504  12.313
 5697SOL    HW218989   6.700  14.621  12.362
 5698SOL     OW18990   1.851   5.129   5.377
 5698SOL    HW118991   1.920   5.097   5.434
 5698SOL    HW218992   1.884   5.115   5.288
 5699SOL     OW18993   7.469  13.236  11.417
 5699SOL    HW118994   7.390  13.234  11.362
 5699SOL    HW218995   7.528  13.296  11.372
 5700SOL     OW18996   2.104  10.883   0.832
 5700SOL    HW118997   2.097  10.944   0.905
 5700SOL    HW218998   2.014  10.874   0.799
 5701SOL     OW18999  13.038   2.412  14.759
 5701SOL    HW119000  12.951   2.445  14.778
 5701SOL    HW219001  13.031   2.317  14.765
 5702SOL     OW19002   2.686   9.762  13.321
 5702SOL    HW119003   2.666   9.728  13.408
 5702SOL    HW219004   2.617   9.728  13.265
 5703SOL     OW19005  10.531   5.140   0.881
 5703SOL    HW119006  10.547   5.086   0.804
 5703SOL    HW219007  10.526   5.079   0.954
 5704SOL     OW19008   1.249  10.624   7.648
 5704SOL    HW119009   1.279  10.633   7.557
 5704SOL    HW219010   1.154  10.625   7.642
 5705SOL     OW19011  10.126  13.687   0.622
 5705SOL    HW119012  10.165  13.637   0.550
 5705SOL    HW219013  10.131  13.629   0.697
 5706SOL     OW19014   5.535   2.552   0.869
 5706SOL    HW119015   5.457   2.506   0.837
 5706SOL    HW219016   5.550   2.621   0.805
 5707SOL     OW19017   3.536   2.109  10.173
 5707SOL    HW119018   3.625   2.077  10.161
 5707SOL    HW219019   3.537   2.150  10.260
 5708SOL     OW19020   7.237   5.456   2.547
 5708SOL    HW119021   7.156   5.501   2.525
 5708SOL    HW219022   7.212   5.365   2.563
 5709SOL     OW19023  11.123  13.545  14.268
 5709SOL    HW119024  11.185  13.607  14.229
 5709SOL    HW219025  11.039  13.567  14.228
 5710SOL     OW19026   2.275  11.870   7.904
 5710SOL    HW119027   2.184  11.845   7.922
 5710SOL    HW219028   2.282  11.868   7.809
 5711SOL     OW19029   4.672   6.215  11.962
 5711SOL    HW119030   4.635   6.127  11.968
 5711SOL    HW219031   4.748   6.213  12.021
 5712SOL     OW19032  10.597  14.774   6.970
 5712SOL    HW119033  10.560  14.702   6.918
 5712SOL    HW219034  10.560  14.762   7.057
 5713SOL     OW19035   4.662   8.693   2.530
 5713SOL    HW119036   4.644   8.638   2.606
 5713SOL    HW219037   4.576   8.722   2.500
 5714SOL     OW19038   5.330  10.333   2.609
 5714SOL    HW119039   5.363  10.249   2.579
 5714SOL    HW219040   5.394  10.362   2.675
 5715SOL     OW19041  13.388  14.776   0.494
 5715SOL    HW119042  13.434  14.777   0.410
 5715SOL    HW219043  13.333  14.854   0.493
 5716SOL     OW19044  10.747   2.590   6.764
 5716SOL    HW119045  10.736   2.566   6.672
 5716SOL    HW219046  10.773   2.508   6.806
 5717SOL     OW19047   4.434   4.155  13.599
 5717SOL    HW119048   4.394   4.106  13.527
 5717SOL    HW219049   4.404   4.112  13.678
 5718SOL     OW19050   7.354   9.277   1.231
 5718SOL    HW119051   7.377   9.353   1.284
 5718SOL    HW219052   7.406   9.288   1.151
 5719SOL     OW19053   3.263   5.111   8.736
 5719SOL    HW119054   3.174   5.120   8.770
 5719SOL    HW219055   3.305   5.195   8.755
 5720SOL     OW19056  10.410   1.235   3.414
 5720SOL    HW119057  10.395   1.296   3.486
 5720SOL    HW219058  10.496   1.257   3.380
 5721SOL     OW19059  13.930   7.601   1.450
 5721SOL    HW119060  13.843   7.567   1.427
 5721SOL    HW219061  13.921   7.696   1.444
 5722SOL     OW19062   4.095   5.194   5.675
 5722SOL    HW119063   4.017   5.220   5.625
 5722SOL    HW219064   4.162   5.258   5.649
 5723SOL     OW19065   3.643   3.946  11.719
 5723SOL    HW119066   3.734   3.920  11.705
 5723SOL    HW219067   3.601   3.932  11.635
 5724SOL     OW19068   8.818   1.742   6.592
 5724SOL    HW119069   8.800   1.755   6.685
 5724SOL    HW219070   8.913   1.732   6.588
 5725SOL     OW19071   2.523   8.321   3.242
 5725SOL    HW119072   2.501   8.281   3.326
 5725SOL    HW219073   2.557   8.408   3.264
 5726SOL     OW19074   5.145   1.302   2.106
 5726SOL    HW119075   5.143   1.398   2.110
 5726SOL    HW219076   5.232   1.281   2.074
 5727SOL     OW19077  11.295   8.720  12.726
 5727SOL    HW119078  11.285   8.815  12.736
 5727SOL    HW219079  11.352   8.694  12.798
 5728SOL     OW19080   9.503  11.224   6.183
 5728SOL    HW119081   9.503  11.284   6.258
 5728SOL    HW219082   9.422  11.174   6.194
 5729SOL     OW19083   5.404  12.188   4.942
 5729SOL    HW119084   5.405  12.257   4.875
 5729SOL    HW219085   5.461  12.223   5.011
 5730SOL     OW19086   1.902   8.014  11.564
 5730SOL    HW119087   1.962   8.009  11.638
 5730SOL    HW219088   1.827   7.960  11.589
 5731SOL     OW19089  12.309   9.280   0.602
 5731SOL    HW119090  12.293   9.191   0.569
 5731SOL    HW219091  12.284   9.276   0.694
 5732SOL     OW19092   2.797   0.246  14.598
 5732SOL    HW119093   2.875   0.245  14.542
 5732SOL    HW219094   2.724   0.232  14.539
 5733SOL     OW19095   7.737  13.820   2.580
 5733SOL    HW119096   7.687  13.896   2.609
 5733SOL    HW219097   7.826  13.836   2.612
 5734SOL     OW19098  10.789   8.054  10.928
 5734SOL    HW119099  10.705   8.053  10.882
 5734SOL    HW219100  10.851   8.089  10.864
 5735SOL     OW19101   0.718   5.335   4.049
 5735SOL    HW119102   0.640   5.282   4.030
 5735SOL    HW219103   0.774   5.277   4.100
 5736SOL     OW19104   9.058  13.614   5.369
 5736SOL    HW119105   9.015  13.530   5.356
 5736SOL    HW219106   9.018  13.651   5.447
 5737SOL     OW19107  10.554   2.067  11.602
 5737SOL    HW119108  10.638   2.110  11.620
 5737SOL    HW219109  10.566   2.024  11.518
 5738SOL     OW19110   9.126   1.150   3.535
 5738SOL    HW119111   9.158   1.135   3.445
 5738SOL    HW219112   9.077   1.233   3.529
 5739SOL     OW19113   5.225   7.623   4.644
 5739SOL    HW119114   5.139   7.590   4.617
 5739SOL    HW219115   5.216   7.638   4.738
 5740SOL     OW19116   4.987   6.553   6.743
 5740SOL    HW119117   5.045   6.521   6.674
 5740SOL    HW219118   5.044   6.602   6.801
 5741SOL     OW19119   1.047   9.024   9.596
 5741SOL    HW119120   0.972   9.005   9.653
 5741SOL    HW219121   1.075   8.938   9.565
 5742SOL     OW19122   5.538   5.351   3.139
 5742SOL    HW119123   5.516   5.259   3.126
 5742SOL    HW219124   5.562   5.357   3.231
 5743SOL     OW19125   6.028   1.850   2.176
 5743SOL    HW119126   5.936   1.822   2.182
 5743SOL    HW219127   6.065   1.827   2.261
 5744SOL     OW19128   2.263   7.181   7.905
 5744SOL    HW119129   2.173   7.147   7.899
 5744SOL    HW219130   2.302   7.131   7.977
 5745SOL     OW19131  11.759   6.159   2.504
 5745SOL    HW119132  11.749   6.185   2.595
 5745SOL    HW219133  11.674   6.120   2.480
 5746SOL     OW19134  13.968   8.422   8.594
 5746SOL    HW119135  13.963   8.329   8.570
 5746SOL    HW219136  14.008   8.465   8.518
 5747SOL     OW19137  11.090   8.731  14.321
 5747SOL    HW119138  11.112   8.640  14.341
 5747SOL    HW219139  11.161   8.782  14.359
 5748SOL     OW19140   9.471   1.799   0.094
 5748SOL    HW119141   9.406   1.764   0.032
 5748SOL    HW219142   9.445   1.890   0.108
 5749SOL     OW19143   8.679   7.800   1.838
 5749SOL    HW119144   8.694   7.866   1.906
 5749SOL    HW219145   8.588   7.774   1.850
 5750SOL     OW19146  14.178   5.827   9.639
 5750SOL    HW119147  14.085   5.845   9.630
 5750SOL    HW219148  14.183   5.754   9.700
 5751SOL     OW19149  13.571   1.153   5.906
 5751SOL    HW119150  13.613   1.200   5.978
 5751SOL    HW219151  13.513   1.089   5.950
 5752SOL     OW19152   9.821   9.026   6.163
 5752SOL    HW119153   9.800   9.120   6.164
 5752SOL    HW219154   9.735   8.983   6.169
 5753SOL     OW19155   2.796   3.484  13.048
 5753SOL    HW119156   2.785   3.474  13.142
 5753SOL    HW219157   2.852   3.561  13.038
 5754SOL     OW19158   9.156  14.319   3.514
 5754SOL    HW119159   9.152  14.333   3.609
 5754SOL    HW219160   9.064  14.316   3.487
 5755SOL     OW19161   8.483   2.970   7.592
 5755SOL    HW119162   8.475   2.989   7.499
 5755SOL    HW219163   8.492   3.056   7.633
 5756SOL     OW19164   8.026   6.827  10.794
 5756SOL    HW119165   8.085   6.889  10.837
 5756SOL    HW219166   7.981   6.782  10.865
 5757SOL     OW19167   9.130   0.575   5.176
 5757SOL    HW119168   9.067   0.506   5.195
 5757SOL    HW219169   9.136   0.625   5.257
 5758SOL     OW19170   5.824   1.896  14.038
 5758SOL    HW119171   5.795   1.956  13.969
 5758SOL    HW219172   5.811   1.945  14.119
 5759SOL     OW19173   2.231  13.155   0.732
 5759SOL    HW119174   2.257  13.155   0.824
 5759SOL    HW219175   2.172  13.231   0.723
 5760SOL     OW19176   3.885   5.981   4.943
 5760SOL    HW119177   3.935   5.985   5.024
 5760SOL    HW219178   3.944   6.015   4.876
 5761SOL     OW19179   4.418  14.477   7.499
 5761SOL    HW119180   4.482  14.533   7.544
 5761SOL    HW219181   4.460  14.391   7.496
 5762SOL     OW19182   9.086   0.150  10.223
 5762SOL    HW119183   9.142   0.153  10.300
 5762SOL    HW219184   9.013   0.094  10.249
 5763SOL     OW19185   7.193   7.578   7.418
 5763SOL    HW119186   7.196   7.557   7.512
 5763SOL    HW219187   7.197   7.493   7.374
 5764SOL     OW19188   5.882   1.893   8.439
 5764SOL    HW119189   5.852   1.960   8.378
 5764SOL    HW219190   5.936   1.835   8.385
 5765SOL     OW19191   4.180   2.008  11.353
 5765SOL    HW119192   4.185   1.948  11.278
 5765SOL    HW219193   4.138   1.956  11.422
 5766SOL     OW19194   2.381   5.143   0.053
 5766SOL    HW119195   2.395   5.233   0.025
 5766SOL    HW219196   2.455   5.124   0.111
 5767SOL     OW19197   7.958  11.571   6.321
 5767SOL    HW119198   7.881  11.571   6.264
 5767SOL    HW219199   8.027  11.532   6.267
 5768SOL     OW19200   3.972   9.290   1.672
 5768SOL    HW119201   4.066   9.289   1.692
 5768SOL    HW219202   3.952   9.199   1.650
 5769SOL     OW19203  12.758   2.280   2.240
 5769SOL    HW119204  12.680   2.286   2.295
 5769SOL    HW219205  12.739   2.210   2.178
 5770SOL     OW19206  11.292   2.275  11.723
 5770SOL    HW119207  11.216   2.270  11.781
 5770SOL    HW219208  11.257   2.312  11.642
 5771SOL     OW19209  10.160   6.375  13.751
 5771SOL    HW119210  10.223   6.423  13.805
 5771SOL    HW219211  10.103   6.443  13.715
 5772SOL     OW19212   7.900   9.463   5.009
 5772SOL    HW119213   7.872   9.375   5.034
 5772SOL    HW219214   7.839   9.521   5.054
 5773SOL     OW19215  10.663   2.058   8.820
 5773SOL    HW119216  10.735   2.010   8.780
 5773SOL    HW219217  10.695   2.080   8.908
 5774SOL     OW19218  12.727   8.542   2.970
 5774SOL    HW119219  12.786   8.609   2.935
 5774SOL    HW219220  12.739   8.547   3.065
 5775SOL     OW19221   5.839  11.298   3.693
 5775SOL    HW119222   5.919  11.347   3.675
 5775SOL    HW219223   5.820  11.253   3.611
 5776SOL     OW19224   2.428   2.671  14.657
 5776SOL    HW119225   2.499   2.611  14.636
 5776SOL    HW219226   2.357   2.614  14.687
 5777SOL     OW19227  12.295   6.491   8.203
 5777SOL    HW119228  12.253   6.421   8.153
 5777SOL    HW219229  12.223   6.537   8.245
 5778SOL     OW19230   9.728  13.047  12.494
 5778SOL    HW119231   9.785  13.115  12.459
 5778SOL    HW219232   9.721  12.983  12.424
 5779SOL     OW19233  13.725   5.536  12.182
 5779SOL    HW119234  13.816   5.514  12.161
 5779SOL    HW219235  13.700   5.476  12.252
 5780SOL     OW19236  14.380   6.930   3.031
 5780SOL    HW119237  14.391   6.995   2.962
 5780SOL    HW219238  14.345   6.853   2.987
 5781SOL     OW19239  11.958  12.688   1.276
 5781SOL    HW119240  12.043  12.729   1.263
 5781SOL    HW219241  11.915  12.741   1.343
 5782SOL     OW19242  12.374   7.989   4.278
 5782SOL    HW119243  12.386   8.066   4.222
 5782SOL    HW219244  12.298   8.010   4.332
 5783SOL     OW19245  10.005   9.864   2.603
 5783SOL    HW119246   9.961   9.914   2.671
 5783SOL    HW219247  10.096   9.859   2.632
 5784SOL     OW19248  13.026   9.453   4.495
 5784SOL    HW119249  13.076   9.405   4.429
 5784SOL    HW219250  12.997   9.386   4.556
 5785SOL     OW19251  14.016  13.410   8.008
 5785SOL    HW119252  14.048  13.489   7.965
 5785SOL    HW219253  14.077  13.396   8.081
 5786SOL     OW19254   6.093   1.319   5.424
 5786SOL    HW119255   6.068   1.374   5.349
 5786SOL    HW219256   6.014   1.268   5.443
 5787SOL     OW19257  13.686  12.673   8.404
 5787SOL    HW119258  13.636  12.600   8.441
 5787SOL    HW219259  13.692  12.736   8.476
 5788SOL     OW19260  10.106   8.505   6.921
 5788SOL    HW119261  10.164   8.449   6.973
 5788SOL    HW219262  10.165   8.550   6.859
 5789SOL     OW19263  12.002   8.142  10.823
 5789SOL    HW119264  12.003   8.231  10.790
 5789SOL    HW219265  11.942   8.095  10.764
 5790SOL     OW19266   7.774  10.621   8.815
 5790SOL    HW119267   7.818  10.690   8.864
 5790SOL    HW219268   7.746  10.663   8.734
 5791SOL     OW19269   5.586   7.461   8.490
 5791SOL    HW119270   5.670   7.423   8.518
 5791SOL    HW219271   5.526   7.440   8.562
 5792SOL     OW19272   1.278   0.883  13.268
 5792SOL    HW119273   1.226   0.877  13.348
 5792SOL    HW219274   1.214   0.873  13.197
 5793SOL     OW19275   8.825  11.760   2.440
 5793SOL    HW119276   8.779  11.837   2.406
 5793SOL    HW219277   8.871  11.792   2.518
 5794SOL     OW19278   9.844  12.936   7.019
 5794SOL    HW119279   9.862  12.842   7.009
 5794SOL    HW219280   9.806  12.962   6.935
 5795SOL     OW19281  11.590   0.996   5.437
 5795SOL    HW119282  11.522   1.063   5.430
 5795SOL    HW219283  11.559   0.924   5.384
 5796SOL     OW19284  12.956  14.017   7.157
 5796SOL    HW119285  12.875  13.972   7.182
 5796SOL    HW219286  12.935  14.060   7.074
 5797SOL     OW19287   2.565   2.118   3.835
 5797SOL    HW119288   2.480   2.077   3.821
 5797SOL    HW219289   2.548   2.189   3.897
 5798SOL     OW19290   3.828   2.230   8.451
 5798SOL    HW119291   3.884   2.153   8.456
 5798SOL    HW219292   3.863   2.280   8.378
 5799SOL     OW19293  13.193   9.252  11.279
 5799SOL    HW119294  13.146   9.229  11.199
 5799SOL    HW219295  13.125   9.290  11.336
 5800SOL     OW19296   2.130   9.073   4.738
 5800SOL    HW119297   2.041   9.102   4.758
 5800SOL    HW219298   2.140   8.990   4.783
 5801SOL     OW19299   9.653   6.305   5.280
 5801SOL    HW119300   9.563   6.335   5.289
 5801SOL    HW219301   9.669   6.307   5.186
 5802SOL     OW19302  11.830   1.905  13.325
 5802SOL    HW119303  11.804   1.996  13.341
 5802SOL    HW219304  11.802   1.887  13.235
 5803SOL     OW19305   3.760   3.742   9.376
 5803SOL    HW119306   3.721   3.691   9.447
 5803SOL    HW219307   3.797   3.819   9.420
 5804SOL     OW19308   5.808   5.222   1.399
 5804SOL    HW119309   5.722   5.262   1.408
 5804SOL    HW219310   5.852   5.242   1.481
 5805SOL     OW19311   7.287  12.019   6.535
 5805SOL    HW119312   7.207  12.059   6.572
 5805SOL    HW219313   7.276  11.925   6.553
 5806SOL     OW19314  12.617   2.198  14.270
 5806SOL    HW119315  12.701   2.203  14.316
 5806SOL    HW219316  12.639   2.158  14.185
 5807SOL     OW19317  10.751  14.252  12.435
 5807SOL    HW119318  10.661  14.225  12.450
 5807SOL    HW219319  10.744  14.343  12.407
 5808SOL     OW19320   6.847   3.323   1.302
 5808SOL    HW119321   6.896   3.241   1.311
 5808SOL    HW219322   6.829   3.329   1.208
 5809SOL     OW19323   3.846   0.969   7.045
 5809SOL    HW119324   3.843   0.905   7.117
 5809SOL    HW219325   3.909   1.035   7.075
 5810SOL     OW19326   9.096   6.458   9.059
 5810SOL    HW119327   9.091   6.436   8.966
 5810SOL    HW219328   9.126   6.548   9.062
 5811SOL     OW19329   1.796   8.946  14.814
 5811SOL    HW119330   1.740   8.981  14.745
 5811SOL    HW219331   1.885   8.957  14.781
 5812SOL     OW19332   7.307  11.765   5.918
 5812SOL    HW119333   7.400  11.785   5.912
 5812SOL    HW219334   7.263  11.832   5.866
 5813SOL     OW19335  10.514   9.366   3.932
 5813SOL    HW119336  10.499   9.288   3.985
 5813SOL    HW219337  10.580   9.415   3.981
 5814SOL     OW19338  10.268   2.068  11.606
 5814SOL    HW119339  10.249   2.161  11.593
 5814SOL    HW219340  10.363   2.061  11.596
 5815SOL     OW19341  10.608  11.977   2.752
 5815SOL    HW119342  10.694  11.942   2.725
 5815SOL    HW219343  10.614  11.983   2.847
 5816SOL     OW19344  11.604   7.424   3.440
 5816SOL    HW119345  11.684   7.433   3.491
 5816SOL    HW219346  11.539   7.390   3.502
 5817SOL     OW19347  14.622   4.031   7.064
 5817SOL    HW119348  14.714   4.056   7.067
 5817SOL    HW219349  14.594   4.025   7.155
 5818SOL     OW19350  10.563  10.354   2.431
 5818SOL    HW119351  10.476  10.363   2.471
 5818SOL    HW219352  10.551  10.384   2.341
 5819SOL     OW19353   5.740   9.035   2.634
 5819SOL    HW119354   5.753   9.060   2.725
 5819SOL    HW219355   5.649   9.057   2.615
 5820SOL     OW19356   7.920   9.362   8.397
 5820SOL    HW119357   7.971   9.424   8.345
 5820SOL    HW219358   7.829   9.385   8.379
 5821SOL     OW19359   9.780   8.387   5.349
 5821SOL    HW119360   9.705   8.432   5.388
 5821SOL    HW219361   9.775   8.298   5.383
 5822SOL     OW19362  14.336   6.573   9.756
 5822SOL    HW119363  14.243   6.579   9.735
 5822SOL    HW219364  14.372   6.519   9.685
 5823SOL     OW19365  13.022   9.132   9.149
 5823SOL    HW119366  12.992   9.044   9.172
 5823SOL    HW219367  13.049   9.125   9.057
 5824SOL     OW19368  13.541  11.720  10.984
 5824SOL    HW119369  13.543  11.632  10.945
 5824SOL    HW219370  13.633  11.744  10.995
 5825SOL     OW19371   5.376  13.438   3.491
 5825SOL    HW119372   5.423  13.416   3.572
 5825SOL    HW219373   5.442  13.431   3.423
 5826SOL     OW19374   3.861   1.155   5.224
 5826SOL    HW119375   3.848   1.061   5.222
 5826SOL    HW219376   3.915   1.170   5.302
 5827SOL     OW19377  11.457   4.150   4.304
 5827SOL    HW119378  11.493   4.099   4.377
 5827SOL    HW219379  11.531   4.201   4.271
 5828SOL     OW19380   3.533   3.998   1.458
 5828SOL    HW119381   3.594   3.947   1.512
 5828SOL    HW219382   3.556   4.089   1.478
 5829SOL     OW19383   2.188  11.987   0.923
 5829SOL    HW119384   2.224  12.075   0.921
 5829SOL    HW219385   2.133  11.984   1.001
 5830SOL     OW19386   0.868   6.688   4.310
 5830SOL    HW119387   0.892   6.727   4.227
 5830SOL    HW219388   0.773   6.679   4.307
 5831SOL     OW19389   7.465   2.238   8.808
 5831SOL    HW119390   7.404   2.169   8.833
 5831SOL    HW219391   7.525   2.197   8.746
 5832SOL     OW19392   4.471   2.166   2.056
 5832SOL    HW119393   4.561   2.198   2.059
 5832SOL    HW219394   4.439   2.195   1.970
 5833SOL     OW19395  14.418   0.564  14.357
 5833SOL    HW119396  14.389   0.573  14.266
 5833SOL    HW219397  14.376   0.637  14.402
 5834SOL     OW19398   6.865   4.087   1.658
 5834SOL    HW119399   6.808   4.162   1.640
 5834SOL    HW219400   6.820   4.012   1.618
 5835SOL     OW19401  11.204  14.724  12.427
 5835SOL    HW119402  11.255  14.793  12.384
 5835SOL    HW219403  11.164  14.676  12.354
 5836SOL     OW19404   6.826  14.587   5.104
 5836SOL    HW119405   6.888  14.658   5.086
 5836SOL    HW219406   6.847  14.520   5.038
 5837SOL     OW19407   9.406  10.078   8.817
 5837SOL    HW119408   9.465  10.151   8.835
 5837SOL    HW219409   9.406  10.027   8.898
 5838SOL     OW19410  12.675  14.584  10.538
 5838SOL    HW119411  12.703  14.494  10.553
 5838SOL    HW219412  12.582  14.579  10.519
 5839SOL     OW19413   4.893   3.990  11.596
 5839SOL    HW119414   4.922   3.953  11.513
 5839SOL    HW219415   4.803   4.019  11.578
 5840SOL     OW19416   0.922   5.424  13.308
 5840SOL    HW119417   0.842   5.468  13.280
 5840SOL    HW219418   0.944   5.365  13.236
 5841SOL     OW19419   7.517   9.489   6.097
 5841SOL    HW119420   7.543   9.404   6.062
 5841SOL    HW219421   7.506   9.544   6.020
 5842SOL     OW19422   6.792   5.554   3.164
 5842SOL    HW119423   6.765   5.626   3.221
 5842SOL    HW219424   6.846   5.596   3.097
 5843SOL     OW19425   0.537   7.780   2.353
 5843SOL    HW119426   0.602   7.846   2.378
 5843SOL    HW219427   0.572   7.742   2.273
 5844SOL     OW19428   7.660   2.744   4.259
 5844SOL    HW119429   7.722   2.816   4.274
 5844SOL    HW219430   7.704   2.689   4.193
 5845SOL     OW19431   2.026   0.043   9.804
 5845SOL    HW119432   2.093   0.097   9.761
 5845SOL    HW219433   2.021  14.833   9.751
 5846SOL     OW19434  11.866   7.796   2.669
 5846SOL    HW119435  11.883   7.733   2.739
 5846SOL    HW219436  11.807   7.860   2.709
 5847SOL     OW19437   1.994   8.377   9.372
 5847SOL    HW119438   1.970   8.295   9.329
 5847SOL    HW219439   1.931   8.386   9.443
 5848SOL     OW19440  12.687   0.384   5.338
 5848SOL    HW119441  12.730   0.400   5.422
 5848SOL    HW219442  12.632   0.461   5.323
 5849SOL     OW19443  11.196   8.414   1.937
 5849SOL    HW119444  11.202   8.507   1.914
 5849SOL    HW219445  11.250   8.405   2.016
 5850SOL     OW19446   7.749  12.716  11.404
 5850SOL    HW119447   7.748  12.748  11.314
 5850SOL    HW219448   7.838  12.732  11.435
 5851SOL     OW19449   3.502   8.872  11.079
 5851SOL    HW119450   3.538   8.961  11.076
 5851SOL    HW219451   3.579   8.815  11.085
 5852SOL     OW19452   2.291   1.285   3.328
 5852SOL    HW119453   2.350   1.212   3.349
 5852SOL    HW219454   2.306   1.349   3.398
 5853SOL     OW19455  11.227   0.145  10.582
 5853SOL    HW119456  11.310   0.192  10.592
 5853SOL    HW219457  11.160   0.211  10.601
 5854SOL     OW19458   8.205   9.143   4.725
 5854SOL    HW119459   8.247   9.154   4.640
 5854SOL    HW219460   8.208   9.230   4.765
 5855SOL     OW19461   0.421   1.790   6.381
 5855SOL    HW119462   0.463   1.709   6.409
 5855SOL    HW219463   0.418   1.784   6.285
 5856SOL     OW19464   4.990   5.122  11.544
 5856SOL    HW119465   4.939   5.181  11.599
 5856SOL    HW219466   5.010   5.174  11.466
 5857SOL     OW19467  14.284  12.705   0.520
 5857SOL    HW119468  14.321  12.654   0.592
 5857SOL    HW219469  14.268  12.791   0.558
 5858SOL     OW19470  10.028   0.386   6.214
 5858SOL    HW119471  10.099   0.440   6.179
 5858SOL    HW219472   9.949   0.438   6.201
 5859SOL     OW19473   8.079  13.072   0.540
 5859SOL    HW119474   8.016  13.124   0.589
 5859SOL    HW219475   8.164  13.113   0.559
 5860SOL     OW19476   2.131   0.507   9.758
 5860SOL    HW119477   2.191   0.502   9.683
 5860SOL    HW219478   2.125   0.601   9.777
 5861SOL     OW19479   8.567   6.876  10.784
 5861SOL    HW119480   8.591   6.966  10.808
 5861SOL    HW219481   8.583   6.825  10.863
 5862SOL     OW19482   0.615   4.698   4.969
 5862SOL    HW119483   0.584   4.638   4.901
 5862SOL    HW219484   0.622   4.643   5.048
 5863SOL     OW19485   1.902   0.354   5.587
 5863SOL    HW119486   1.853   0.420   5.538
 5863SOL    HW219487   1.863   0.355   5.674
 5864SOL     OW19488   1.238   2.055   7.468
 5864SOL    HW119489   1.293   2.064   7.546
 5864SOL    HW219490   1.288   2.098   7.398
 5865SOL     OW19491  11.222   9.604   3.320
 5865SOL    HW119492  11.299   9.654   3.348
 5865SOL    HW219493  11.246   9.569   3.234
 5866SOL     OW19494  13.215   5.673  10.060
 5866SOL    HW119495  13.243   5.665  10.151
 5866SOL    HW219496  13.245   5.592  10.019
 5867SOL     OW19497   6.033   0.883   8.023
 5867SOL    HW119498   5.984   0.925   7.953
 5867SOL    HW219499   5.979   0.809   8.050
 5868SOL     OW19500   7.404   2.125  14.632
 5868SOL    HW119501   7.361   2.173  14.562
 5868SOL    HW219502   7.463   2.064  14.587
 5869SOL     OW19503   1.022   0.436   4.401
 5869SOL    HW119504   0.981   0.517   4.433
 5869SOL    HW219505   1.116   0.451   4.413
 5870SOL     OW19506   9.702  13.125  14.303
 5870SOL    HW119507   9.785  13.097  14.340
 5870SOL    HW219508   9.676  13.201  14.355
 5871SOL     OW19509  14.246   0.659   0.625
 5871SOL    HW119510  14.278   0.602   0.555
 5871SOL    HW219511  14.154   0.634   0.636
 5872SOL     OW19512   4.189   5.125   0.790
 5872SOL    HW119513   4.127   5.195   0.812
 5872SOL    HW219514   4.140   5.044   0.808
 5873SOL     OW19515   9.615   6.833  14.774
 5873SOL    HW119516   9.602   6.928  14.785
 5873SOL    HW219517   9.589   6.816  14.684
 5874SOL     OW19518   9.461  10.749  10.719
 5874SOL    HW119519   9.453  10.756  10.624
 5874SOL    HW219520   9.370  10.747  10.750
 5875SOL     OW19521   9.847   5.906   3.851
 5875SOL    HW119522   9.766   5.951   3.827
 5875SOL    HW219523   9.891   5.964   3.913
 5876SOL     OW19524   1.643  12.611   3.907
 5876SOL    HW119525   1.711  12.556   3.868
 5876SOL    HW219526   1.562  12.578   3.869
 5877SOL     OW19527  12.210   9.731  12.156
 5877SOL    HW119528  12.175   9.651  12.118
 5877SOL    HW219529  12.136   9.772  12.200
 5878SOL     OW19530   9.122  10.862   6.577
 5878SOL    HW119531   9.155  10.877   6.489
 5878SOL    HW219532   9.054  10.929   6.589
 5879SOL     OW19533   0.753  13.009   1.419
 5879SOL    HW119534   0.750  12.940   1.352
 5879SOL    HW219535   0.778  12.963   1.499
 5880SOL     OW19536   0.328   4.431   5.594
 5880SOL    HW119537   0.356   4.341   5.612
 5880SOL    HW219538   0.402   4.485   5.622
 5881SOL     OW19539   9.476   1.126   9.823
 5881SOL    HW119540   9.447   1.060   9.885
 5881SOL    HW219541   9.417   1.200   9.837
 5882SOL     OW19542   1.936   5.953  11.235
 5882SOL    HW119543   1.870   6.013  11.269
 5882SOL    HW219544   2.019   5.997  11.251
 5883SOL     OW19545   9.517   8.312  11.498
 5883SOL    HW119546   9.536   8.337  11.589
 5883SOL    HW219547   9.524   8.216  11.498
 5884SOL     OW19548  14.409   5.301   6.320
 5884SOL    HW119549  14.354   5.272   6.247
 5884SOL    HW219550  14.468   5.227   6.337
 5885SOL     OW19551   0.445  13.189  10.740
 5885SOL    HW119552   0.394  13.190  10.659
 5885SOL    HW219553   0.379  13.189  10.810
 5886SOL     OW19554  11.442   2.479   0.472
 5886SOL    HW119555  11.442   2.485   0.376
 5886SOL    HW219556  11.490   2.558   0.500
 5887SOL     OW19557   1.014  10.162   4.320
 5887SOL    HW119558   0.947  10.210   4.270
 5887SOL    HW219559   1.045  10.095   4.259
 5888SOL     OW19560   3.856   1.422  13.294
 5888SOL    HW119561   3.941   1.379  13.290
 5888SOL    HW219562   3.792   1.350  13.298
 5889SOL     OW19563   4.160  11.723  13.497
 5889SOL    HW119564   4.099  11.677  13.554
 5889SOL    HW219565   4.109  11.743  13.419
 5890SOL     OW19566   6.562  14.137  10.693
 5890SOL    HW119567   6.526  14.210  10.744
 5890SOL    HW219568   6.485  14.095  10.654
 5891SOL     OW19569   6.966   0.683   5.422
 5891SOL    HW119570   7.008   0.597   5.416
 5891SOL    HW219571   6.914   0.690   5.342
 5892SOL     OW19572   0.476   3.513   1.910
 5892SOL    HW119573   0.420   3.534   1.985
 5892SOL    HW219574   0.451   3.423   1.887
 5893SOL     OW19575  10.222   8.715   1.768
 5893SOL    HW119576  10.262   8.736   1.684
 5893SOL    HW219577  10.128   8.731   1.755
 5894SOL     OW19578   5.841  13.985   2.277
 5894SOL    HW119579   5.911  13.987   2.342
 5894SOL    HW219580   5.883  13.953   2.197
 5895SOL     OW19581  14.841   7.238   9.026
 5895SOL    HW119582  14.829   7.201   9.114
 5895SOL    HW219583   0.052   7.197   8.993
 5896SOL     OW19584   4.738   7.028   6.589
 5896SOL    HW119585   4.797   6.978   6.533
 5896SOL    HW219586   4.796   7.075   6.649
 5897SOL     OW19587   8.710   8.437   0.754
 5897SOL    HW119588   8.792   8.477   0.723
 5897SOL    HW219589   8.705   8.461   0.846
 5898SOL     OW19590   9.405   9.374   6.807
 5898SOL    HW119591   9.497   9.400   6.805
 5898SOL    HW219592   9.390   9.331   6.723
 5899SOL     OW19593   4.856  11.105  12.361
 5899SOL    HW119594   4.948  11.127  12.343
 5899SOL    HW219595   4.840  11.141  12.449
 5900SOL     OW19596  12.714   7.705   4.490
 5900SOL    HW119597  12.646   7.772   4.495
 5900SOL    HW219598  12.745   7.695   4.580
 5901SOL     OW19599   8.112  13.077  10.184
 5901SOL    HW119600   8.083  13.165  10.161
 5901SOL    HW219601   8.171  13.051  10.113
 5902SOL     OW19602  11.865  14.163   6.216
 5902SOL    HW119603  11.825  14.077   6.218
 5902SOL    HW219604  11.794  14.224   6.233
 5903SOL     OW19605  10.673  12.467  13.163
 5903SOL    HW119606  10.692  12.529  13.092
 5903SOL    HW219607  10.604  12.510  13.214
 5904SOL     OW19608   2.900   6.310  13.772
 5904SOL    HW119609   2.920   6.261  13.852
 5904SOL    HW219610   2.975   6.293  13.715
 5905SOL     OW19611   7.467  11.584   9.359
 5905SOL    HW119612   7.488  11.507   9.412
 5905SOL    HW219613   7.549  11.632   9.352
 5906SOL     OW19614  10.624  10.767   6.151
 5906SOL    HW119615  10.678  10.819   6.091
 5906SOL    HW219616  10.600  10.829   6.220
 5907SOL     OW19617   0.757  14.770   1.954
 5907SOL    HW119618   0.755  14.738   1.864
 5907SOL    HW219619   0.745  14.691   2.008
 5908SOL     OW19620   1.805   7.455   9.917
 5908SOL    HW119621   1.797   7.425   9.827
 5908SOL    HW219622   1.895   7.487   9.924
 5909SOL     OW19623   9.487  11.613  13.942
 5909SOL    HW119624   9.487  11.697  13.987
 5909SOL    HW219625   9.403  11.609  13.897
 5910SOL     OW19626  13.405   4.033   1.272
 5910SOL    HW119627  13.371   3.947   1.295
 5910SOL    HW219628  13.463   4.057   1.344
 5911SOL     OW19629   7.140   6.606   8.428
 5911SOL    HW119630   7.121   6.521   8.469
 5911SOL    HW219631   7.223   6.634   8.467
 5912SOL     OW19632  12.350   7.684  14.009
 5912SOL    HW119633  12.390   7.717  13.929
 5912SOL    HW219634  12.350   7.589  13.999
 5913SOL     OW19635   6.800   9.727  10.077
 5913SOL    HW119636   6.745   9.703  10.152
 5913SOL    HW219637   6.853   9.649  10.060
 5914SOL     OW19638   5.655   9.047  12.989
 5914SOL    HW119639   5.668   9.137  13.019
 5914SOL    HW219640   5.623   9.055  12.900
 5915SOL     OW19641   6.638   1.572   5.764
 5915SOL    HW119642   6.721   1.615   5.783
 5915SOL    HW219643   6.606   1.615   5.685
 5916SOL     OW19644   1.676   4.427   4.272
 5916SOL    HW119645   1.615   4.456   4.341
 5916SOL    HW219646   1.665   4.490   4.202
 5917SOL     OW19647   7.410   6.597   4.617
 5917SOL    HW119648   7.369   6.550   4.690
 5917SOL    HW219649   7.494   6.626   4.652
 5918SOL     OW19650  11.663  14.414   2.741
 5918SOL    HW119651  11.710  14.420   2.658
 5918SOL    HW219652  11.721  14.366   2.799
 5919SOL     OW19653   7.414  12.355   5.546
 5919SOL    HW119654   7.358  12.429   5.567
 5919SOL    HW219655   7.499  12.376   5.585
 5920SOL     OW19656   1.225   6.612   5.627
 5920SOL    HW119657   1.210   6.647   5.715
 5920SOL    HW219658   1.204   6.519   5.635
 5921SOL     OW19659   9.157   7.216   4.896
 5921SOL    HW119660   9.099   7.166   4.953
 5921SOL    HW219661   9.218   7.259   4.956
 5922SOL     OW19662  11.938   3.736   4.687
 5922SOL    HW119663  11.948   3.641   4.677
 5922SOL    HW219664  11.865   3.746   4.749
 5923SOL     OW19665   6.255   4.667   9.739
 5923SOL    HW119666   6.327   4.729   9.726
 5923SOL    HW219667   6.195   4.713   9.798
 5924SOL     OW19668   6.626  12.532  10.756
 5924SOL    HW119669   6.594  12.466  10.817
 5924SOL    HW219670   6.654  12.605  10.812
 5925SOL     OW19671   3.171   6.298   4.711
 5925SOL    HW119672   3.198   6.305   4.620
 5925SOL    HW219673   3.248   6.260   4.755
 5926SOL     OW19674   1.343  12.074  11.145
 5926SOL    HW119675   1.371  11.986  11.119
 5926SOL    HW219676   1.319  12.065  11.237
 5927SOL     OW19677  13.275   9.505   8.925
 5927SOL    HW119678  13.342   9.546   8.979
 5927SOL    HW219679  13.267   9.416   8.959
 5928SOL     OW19680  14.280   8.636  13.255
 5928SOL    HW119681  14.241   8.605  13.336
 5928SOL    HW219682  14.242   8.581  13.186
 5929SOL     OW19683   3.649   9.046   5.805
 5929SOL    HW119684   3.607   8.981   5.748
 5929SOL    HW219685   3.708   9.095   5.748
 5930SOL     OW19686   4.899  14.831   2.843
 5930SOL    HW119687   4.942   0.038   2.806
 5930SOL    HW219688   4.852  14.864   2.920
 5931SOL     OW19689   4.301   1.585   1.807
 5931SOL    HW119690   4.388   1.556   1.832
 5931SOL    HW219691   4.242   1.520   1.843
 5932SOL     OW19692   1.186   8.372   5.526
 5932SOL    HW119693   1.141   8.355   5.609
 5932SOL    HW219694   1.116   8.384   5.462
 5933SOL     OW19695   6.696   5.511  14.302
 5933SOL    HW119696   6.679   5.440  14.365
 5933SOL    HW219697   6.609   5.542  14.277
 5934SOL     OW19698   9.391  13.598  14.257
 5934SOL    HW119699   9.420  13.686  14.282
 5934SOL    HW219700   9.437  13.580  14.175
 5935SOL     OW19701   6.209   2.724  14.664
 5935SOL    HW119702   6.279   2.782  14.696
 5935SOL    HW219703   6.156   2.707  14.741
 5936SOL     OW19704  12.157  13.864   0.111
 5936SOL    HW119705  12.129  13.778   0.079
 5936SOL    HW219706  12.086  13.892   0.169
 5937SOL     OW19707  12.896   8.057   8.210
 5937SOL    HW119708  12.968   8.118   8.199
 5937SOL    HW219709  12.919   8.006   8.288
 5938SOL     OW19710  13.063  10.134  13.925
 5938SOL    HW119711  13.126  10.131  13.853
 5938SOL    HW219712  13.090  10.210  13.977
 5939SOL     OW19713   7.721   7.541   2.894
 5939SOL    HW119714   7.680   7.608   2.950
 5939SOL    HW219715   7.776   7.491   2.953
 5940SOL     OW19716   6.333  10.116  11.098
 5940SOL    HW119717   6.393  10.051  11.062
 5940SOL    HW219718   6.384  10.196  11.104
 5941SOL     OW19719   7.468  13.891   2.177
 5941SOL    HW119720   7.492  13.956   2.243
 5941SOL    HW219721   7.502  13.928   2.095
 5942SOL     OW19722   6.645   2.949   8.354
 5942SOL    HW119723   6.736   2.938   8.381
 5942SOL    HW219724   6.636   2.892   8.278
 5943SOL     OW19725   5.092   0.812   8.224
 5943SOL    HW119726   5.047   0.895   8.217
 5943SOL    HW219727   5.163   0.828   8.287
 5944SOL     OW19728  11.537   9.995   7.689
 5944SOL    HW119729  11.626   9.990   7.724
 5944SOL    HW219730  11.496   9.912   7.717
 5945SOL     OW19731   9.967   0.254   4.205
 5945SOL    HW119732  10.007   0.169   4.226
 5945SOL    HW219733  10.040   0.314   4.198
 5946SOL     OW19734   5.971  13.658   0.696
 5946SOL    HW119735   6.065  13.641   0.698
 5946SOL    HW219736   5.946  13.670   0.788
 5947SOL     OW19737   1.586   1.402   4.171
 5947SOL    HW119738   1.533   1.464   4.221
 5947SOL    HW219739   1.619   1.340   4.235
 5948SOL     OW19740   2.116  12.264  10.863
 5948SOL    HW119741   2.053  12.334  10.843
 5948SOL    HW219742   2.199  12.296  10.828
 5949SOL     OW19743  13.318  13.540   9.373
 5949SOL    HW119744  13.412  13.524   9.363
 5949SOL    HW219745  13.308  13.570   9.464
 5950SOL     OW19746   4.721  12.716   0.926
 5950SOL    HW119747   4.640  12.680   0.961
 5950SOL    HW219748   4.779  12.640   0.919
 5951SOL     OW19749   9.981   9.747   3.162
 5951SOL    HW119750   9.956   9.725   3.072
 5951SOL    HW219751   9.926   9.691   3.216
 5952SOL     OW19752   6.809   8.735   7.717
 5952SOL    HW119753   6.754   8.813   7.714
 5952SOL    HW219754   6.842   8.733   7.807
 5953SOL     OW19755  11.662   2.083   8.508
 5953SOL    HW119756  11.602   2.153   8.483
 5953SOL    HW219757  11.619   2.041   8.583
 5954SOL     OW19758   7.078  13.712  10.347
 5954SOL    HW119759   7.158  13.732  10.396
 5954SOL    HW219760   7.062  13.791  10.295
 5955SOL     OW19761   3.942  13.761   5.654
 5955SOL    HW119762   3.918  13.831   5.593
 5955SOL    HW219763   3.858  13.724   5.682
 5956SOL     OW19764   8.429  12.133  14.704
 5956SOL    HW119765   8.344  12.150  14.746
 5956SOL    HW219766   8.493  12.145  14.775
 5957SOL     OW19767   9.994   5.330  14.713
 5957SOL    HW119768   9.942   5.329  14.793
 5957SOL    HW219769  10.081   5.358  14.740
 5958SOL     OW19770  13.290  10.056   7.417
 5958SOL    HW119771  13.221   9.989   7.421
 5958SOL    HW219772  13.314  10.071   7.508
 5959SOL     OW19773   0.856  12.367  12.663
 5959SOL    HW119774   0.892  12.334  12.745
 5959SOL    HW219775   0.917  12.435  12.635
 5960SOL     OW19776  13.688   8.723   2.482
 5960SOL    HW119777  13.601   8.745   2.451
 5960SOL    HW219778  13.739   8.704   2.403
 5961SOL     OW19779   8.311  10.299  12.242
 5961SOL    HW119780   8.266  10.280  12.160
 5961SOL    HW219781   8.248  10.350  12.292
 5962SOL     OW19782   2.086   1.981  13.287
 5962SOL    HW119783   2.121   1.928  13.216
 5962SOL    HW219784   2.163   2.015  13.332
 5963SOL     OW19785   6.142  14.650   0.232
 5963SOL    HW119786   6.082  14.672   0.303
 5963SOL    HW219787   6.087  14.644   0.154
 5964SOL     OW19788  12.969   8.118   1.729
 5964SOL    HW119789  12.913   8.188   1.698
 5964SOL    HW219790  12.914   8.066   1.787
 5965SOL     OW19791  12.663  11.573   4.880
 5965SOL    HW119792  12.605  11.539   4.811
 5965SOL    HW219793  12.613  11.643   4.921
 5966SOL     OW19794   4.762   1.421   8.400
 5966SOL    HW119795   4.841   1.409   8.348
 5966SOL    HW219796   4.746   1.516   8.399
 5967SOL     OW19797   4.440  11.619  12.976
 5967SOL    HW119798   4.443  11.714  12.984
 5967SOL    HW219799   4.419  11.588  13.064
 5968SOL     OW19800   7.447   1.138   8.494
 5968SOL    HW119801   7.446   1.082   8.416
 5968SOL    HW219802   7.534   1.124   8.532
 5969SOL     OW19803  12.835   6.984   5.864
 5969SOL    HW119804  12.775   6.925   5.818
 5969SOL    HW219805  12.921   6.966   5.826
 5970SOL     OW19806   3.932   3.308   1.015
 5970SOL    HW119807   3.887   3.280   1.095
 5970SOL    HW219808   3.948   3.402   1.028
 5971SOL     OW19809  13.363  10.803   8.739
 5971SOL    HW119810  13.298  10.778   8.673
 5971SOL    HW219811  13.363  10.899   8.738
 5972SOL     OW19812  12.159  11.652  11.490
 5972SOL    HW119813  12.071  11.615  11.481
 5972SOL    HW219814  12.177  11.647  11.584
 5973SOL     OW19815  10.526   9.339  12.817
 5973SOL    HW119816  10.556   9.248  12.826
 5973SOL    HW219817  10.475   9.355  12.896
 5974SOL     OW19818   8.851   6.478  11.171
 5974SOL    HW119819   8.876   6.559  11.215
 5974SOL    HW219820   8.875   6.409  11.232
 5975SOL     OW19821  10.611   1.514   5.459
 5975SOL    HW119822  10.643   1.591   5.413
 5975SOL    HW219823  10.524   1.498   5.422
 5976SOL     OW19824   7.302  11.288   4.589
 5976SOL    HW119825   7.301  11.203   4.633
 5976SOL    HW219826   7.209  11.311   4.579
 5977SOL     OW19827   7.514   0.395   9.496
 5977SOL    HW119828   7.502   0.467   9.558
 5977SOL    HW219829   7.428   0.384   9.455
 5978SOL     OW19830   9.635   4.002   7.710
 5978SOL    HW119831   9.563   3.946   7.683
 5978SOL    HW219832   9.631   4.002   7.805
 5979SOL     OW19833   6.882   1.276   2.341
 5979SOL    HW119834   6.866   1.370   2.339
 5979SOL    HW219835   6.943   1.260   2.270
 5980SOL     OW19836  14.228   1.027  13.827
 5980SOL    HW119837  14.156   1.087  13.845
 5980SOL    HW219838  14.192   0.940  13.847
 5981SOL     OW19839   8.209   1.460   5.668
 5981SOL    HW119840   8.213   1.555   5.681
 5981SOL    HW219841   8.117   1.438   5.682
 5982SOL     OW19842   6.931   5.095   4.468
 5982SOL    HW119843   6.926   5.185   4.435
 5982SOL    HW219844   6.849   5.083   4.517
 5983SOL     OW19845   5.310   8.760   6.569
 5983SOL    HW119846   5.406   8.764   6.563
 5983SOL    HW219847   5.292   8.759   6.663
 5984SOL     OW19848   3.362  10.353   0.794
 5984SOL    HW119849   3.398  10.266   0.775
 5984SOL    HW219850   3.413  10.413   0.739
 5985SOL     OW19851  11.771   4.800  14.307
 5985SOL    HW119852  11.833   4.872  14.305
 5985SOL    HW219853  11.752   4.781  14.215
 5986SOL     OW19854   4.005   0.421   5.052
 5986SOL    HW119855   4.043   0.341   5.089
 5986SOL    HW219856   4.056   0.438   4.973
 5987SOL     OW19857   9.300   9.949   3.107
 5987SOL    HW119858   9.375   9.893   3.088
 5987SOL    HW219859   9.242   9.893   3.159
 5988SOL     OW19860   7.296   2.662  11.985
 5988SOL    HW119861   7.377   2.680  12.031
 5988SOL    HW219862   7.284   2.737  11.926
 5989SOL     OW19863   9.329   1.335  14.435
 5989SOL    HW119864   9.235   1.341  14.418
 5989SOL    HW219865   9.343   1.389  14.513
 5990SOL     OW19866   8.645   4.405   7.563
 5990SOL    HW119867   8.574   4.436   7.619
 5990SOL    HW219868   8.672   4.322   7.602
 5991SOL     OW19869   1.047  11.757  10.411
 5991SOL    HW119870   1.051  11.703  10.490
 5991SOL    HW219871   1.138  11.766  10.383
 5992SOL     OW19872   5.486   7.346  13.622
 5992SOL    HW119873   5.514   7.362  13.532
 5992SOL    HW219874   5.538   7.271  13.650
 5993SOL     OW19875  13.363   6.157  11.520
 5993SOL    HW119876  13.366   6.105  11.601
 5993SOL    HW219877  13.324   6.098  11.455
 5994SOL     OW19878   2.126   1.889   6.674
 5994SOL    HW119879   2.156   1.907   6.585
 5994SOL    HW219880   2.032   1.877   6.666
 5995SOL     OW19881  11.204   5.232   1.602
 5995SOL    HW119882  11.244   5.223   1.688
 5995SOL    HW219883  11.277   5.220   1.540
 5996SOL     OW19884  10.935  11.737  12.771
 5996SOL    HW119885  10.931  11.684  12.691
 5996SOL    HW219886  11.029  11.745  12.789
 5997SOL     OW19887   7.250   0.039   5.736
 5997SOL    HW119888   7.220  14.818   5.725
 5997SOL    HW219889   7.300   0.058   5.657
 5998SOL     OW19890   7.117   3.664   7.182
 5998SOL    HW119891   7.124   3.758   7.199
 5998SOL    HW219892   7.028   3.641   7.211
 5999SOL     OW19893   5.635   0.360   9.382
 5999SOL    HW119894   5.729   0.369   9.367
 5999SOL    HW219895   5.602   0.316   9.304
 6000SOL     OW19896   6.379   6.410   9.719
 6000SOL    HW119897   6.325   6.385   9.644
 6000SOL    HW219898   6.465   6.429   9.682
 6001SOL     OW19899   3.546  12.847   3.675
 6001SOL    HW119900   3.636  12.861   3.705
 6001SOL    HW219901   3.555  12.799   3.593
 6002SOL     OW19902   0.835   9.557   8.099
 6002SOL    HW119903   0.787   9.609   8.035
 6002SOL    HW219904   0.860   9.619   8.168
 6003SOL     OW19905   1.212  12.612   6.418
 6003SOL    HW119906   1.274  12.554   6.462
 6003SOL    HW219907   1.133  12.558   6.407
 6004SOL     OW19908  10.938  10.543   4.126
 6004SOL    HW119909  10.988  10.461   4.128
 6004SOL    HW219910  10.931  10.565   4.033
 6005SOL     OW19911   9.767   3.120  13.484
 6005SOL    HW119912   9.789   3.191  13.423
 6005SOL    HW219913   9.827   3.133  13.558
 6006SOL     OW19914   2.889   5.382   4.815
 6006SOL    HW119915   2.883   5.286   4.820
 6006SOL    HW219916   2.829   5.406   4.745
 6007SOL     OW19917  12.370   8.262   6.605
 6007SOL    HW119918  12.390   8.229   6.692
 6007SOL    HW219919  12.292   8.214   6.578
 6008SOL     OW19920   3.932  14.006  11.950
 6008SOL    HW119921   3.880  14.086  11.952
 6008SOL    HW219922   3.868  13.935  11.947
 6009SOL     OW19923   5.465   1.848   7.715
 6009SOL    HW119924   5.556   1.867   7.695
 6009SOL    HW219925   5.438   1.919   7.773
 6010SOL     OW19926  14.127   1.497   7.839
 6010SOL    HW119927  14.197   1.515   7.776
 6010SOL    HW219928  14.154   1.417   7.883
 6011SOL     OW19929   2.642   7.001   2.993
 6011SOL    HW119930   2.707   6.931   2.992
 6011SOL    HW219931   2.581   6.977   3.062
 6012SOL     OW19932   1.922   9.713   9.971
 6012SOL    HW119933   1.851   9.692  10.032
 6012SOL    HW219934   1.975   9.778  10.017
 6013SOL     OW19935   6.996  13.359   2.409
 6013SOL    HW119936   7.075  13.322   2.447
 6013SOL    HW219937   7.017  13.451   2.393
 6014SOL     OW19938   1.037   5.112   6.122
 6014SOL    HW119939   0.997   5.025   6.127
 6014SOL    HW219940   1.131   5.095   6.125
 6015SOL     OW19941   9.643   6.652  10.291
 6015SOL    HW119942   9.592   6.613  10.220
 6015SOL    HW219943   9.705   6.584  10.316
 6016SOL     OW19944   8.431   2.251  10.638
 6016SOL    HW119945   8.505   2.190  10.631
 6016SOL    HW219946   8.463   2.332  10.600
 6017SOL     OW19947  10.950   0.363  13.168
 6017SOL    HW119948  10.870   0.345  13.216
 6017SOL    HW219949  11.021   0.342  13.229
 6018SOL     OW19950  11.453  12.282   4.617
 6018SOL    HW119951  11.462  12.353   4.680
 6018SOL    HW219952  11.359  12.268   4.608
 6019SOL     OW19953   4.707   1.770   1.265
 6019SOL    HW119954   4.757   1.852   1.259
 6019SOL    HW219955   4.701   1.739   1.174
 6020SOL     OW19956   5.309   0.317   6.731
 6020SOL    HW119957   5.227   0.287   6.770
 6020SOL    HW219958   5.295   0.307   6.637
 6021SOL     OW19959  14.235   7.777   1.414
 6021SOL    HW119960  14.269   7.844   1.355
 6021SOL    HW219961  14.314   7.734   1.449
 6022SOL     OW19962   3.941   3.355   9.507
 6022SOL    HW119963   3.869   3.292   9.513
 6022SOL    HW219964   3.968   3.369   9.597
 6023SOL     OW19965   0.328  11.223   6.299
 6023SOL    HW119966   0.387  11.288   6.260
 6023SOL    HW219967   0.316  11.157   6.231
 6024SOL     OW19968   5.790   6.836  14.551
 6024SOL    HW119969   5.769   6.923  14.516
 6024SOL    HW219970   5.827   6.853  14.638
 6025SOL     OW19971  12.342   1.144   2.735
 6025SOL    HW119972  12.383   1.186   2.810
 6025SOL    HW219973  12.260   1.108   2.769
 6026SOL     OW19974   9.516  12.347   5.559
 6026SOL    HW119975   9.606  12.314   5.561
 6026SOL    HW219976   9.513  12.401   5.480
 6027SOL     OW19977  12.723  10.583   8.657
 6027SOL    HW119978  12.684  10.633   8.728
 6027SOL    HW219979  12.657  10.518   8.634
 6028SOL     OW19980   3.786   9.990   0.602
 6028SOL    HW119981   3.712   9.958   0.654
 6028SOL    HW219982   3.789  10.084   0.619
 6029SOL     OW19983   0.264   6.558   6.281
 6029SOL    HW119984   0.205   6.618   6.235
 6029SOL    HW219985   0.340   6.612   6.303
 6030SOL     OW19986   9.652   1.219   5.089
 6030SOL    HW119987   9.571   1.201   5.040
 6030SOL    HW219988   9.657   1.314   5.093
 6031SOL     OW19989   4.319  14.021   1.398
 6031SOL    HW119990   4.365  13.996   1.478
 6031SOL    HW219991   4.229  14.038   1.427
 6032SOL     OW19992   3.632   0.191   8.089
 6032SOL    HW119993   3.695   0.125   8.061
 6032SOL    HW219994   3.661   0.272   8.047
 6033SOL     OW19995  11.802   8.479  11.271
 6033SOL    HW119996  11.837   8.567  11.284
 6033SOL    HW219997  11.724   8.475  11.327
 6034SOL     OW19998   6.063  11.110   5.185
 6034SOL    HW119999   6.087  11.124   5.277
 6034SOL    HW220000   6.123  11.043   5.154
 6035SOL     OW20001   9.120  11.381   9.554
 6035SOL    HW120002   9.057  11.345   9.615
 6035SOL    HW220003   9.081  11.367   9.468
 6036SOL     OW20004  14.685  11.686   6.320
 6036SOL    HW120005  14.614  11.745   6.345
 6036SOL    HW220006  14.649  11.634   6.248
 6037SOL     OW20007   5.373  11.176  12.950
 6037SOL    HW120008   5.461  11.175  12.911
 6037SOL    HW220009   5.388  11.196  13.042
 6038SOL     OW20010   0.987   6.749   2.710
 6038SOL    HW120011   0.914   6.697   2.678
 6038SOL    HW220012   0.982   6.742   2.805
 6039SOL     OW20013   3.319  10.941  12.292
 6039SOL    HW120014   3.389  10.940  12.358
 6039SOL    HW220015   3.363  10.961  12.210
 6040SOL     OW20016  14.480  11.132  14.553
 6040SOL    HW120017  14.425  11.074  14.605
 6040SOL    HW220018  14.440  11.130  14.466
 6041SOL     OW20019   4.033   8.833   4.880
 6041SOL    HW120020   4.120   8.856   4.846
 6041SOL    HW220021   4.014   8.749   4.840
 6042SOL     OW20022  13.981   8.529   3.052
 6042SOL    HW120023  14.076   8.542   3.047
 6042SOL    HW220024  13.966   8.494   3.140
 6043SOL     OW20025   9.783   2.938   2.527
 6043SOL    HW120026   9.840   2.932   2.451
 6043SOL    HW220027   9.830   2.995   2.588
 6044SOL     OW20028   5.788   0.158   5.823
 6044SOL    HW120029   5.844   0.091   5.863
 6044SOL    HW220030   5.766   0.217   5.894
 6045SOL     OW20031   1.212  11.297   9.700
 6045SOL    HW120032   1.228  11.341   9.616
 6045SOL    HW220033   1.136  11.242   9.683
 6046SOL     OW20034   2.449  13.971  12.149
 6046SOL    HW120035   2.450  13.926  12.064
 6046SOL    HW220036   2.372  13.935  12.194
 6047SOL     OW20037  12.969  12.644   8.916
 6047SOL    HW120038  13.002  12.554   8.925
 6047SOL    HW220039  12.990  12.668   8.825
 6048SOL     OW20040  14.396   9.412   8.625
 6048SOL    HW120041  14.328   9.344   8.623
 6048SOL    HW220042  14.478   9.363   8.633
 6049SOL     OW20043   0.757  12.962  13.960
 6049SOL    HW120044   0.772  12.911  13.881
 6049SOL    HW220045   0.844  12.986  13.991
 6050SOL     OW20046   4.868   8.555   4.229
 6050SOL    HW120047   4.834   8.481   4.280
 6050SOL    HW220048   4.842   8.632   4.279
 6051SOL     OW20049   9.327   9.629   8.931
 6051SOL    HW120050   9.257   9.659   8.873
 6051SOL    HW220051   9.288   9.557   8.980
 6052SOL     OW20052  10.798   0.438  14.047
 6052SOL    HW120053  10.877   0.467  14.001
 6052SOL    HW220054  10.730   0.499  14.020
 6053SOL     OW20055  11.449   4.910   2.272
 6053SOL    HW120056  11.376   4.911   2.333
 6053SOL    HW220057  11.526   4.894   2.326
 6054SOL     OW20058  10.712   0.135   5.762
 6054SOL    HW120059  10.801   0.149   5.729
 6054SOL    HW220060  10.656   0.149   5.685
 6055SOL     OW20061   7.639   5.695  12.110
 6055SOL    HW120062   7.617   5.735  12.194
 6055SOL    HW220063   7.555   5.686  12.065
 6056SOL     OW20064   5.937   7.728   2.027
 6056SOL    HW120065   6.029   7.753   2.027
 6056SOL    HW220066   5.891   7.803   1.989
 6057SOL     OW20067  12.380  12.819   2.134
 6057SOL    HW120068  12.406  12.742   2.184
 6057SOL    HW220069  12.363  12.787   2.046
 6058SOL     OW20070  13.509  12.323   4.086
 6058SOL    HW120071  13.453  12.347   4.012
 6058SOL    HW220072  13.469  12.243   4.121
 6059SOL     OW20073   0.180   9.398  11.498
 6059SOL    HW120074   0.259   9.370  11.452
 6059SOL    HW220075   0.181   9.493  11.494
 6060SOL     OW20076   6.965  14.849   8.267
 6060SOL    HW120077   6.956   0.030   8.186
 6060SOL    HW220078   6.894  14.785   8.263
 6061SOL     OW20079  14.560   5.017  14.199
 6061SOL    HW120080  14.526   4.927  14.192
 6061SOL    HW220081  14.582   5.041  14.109
 6062SOL     OW20082  14.557   8.398  13.588
 6062SOL    HW120083  14.566   8.476  13.533
 6062SOL    HW220084  14.470   8.364  13.568
 6063SOL     OW20085   1.555  12.656   9.513
 6063SOL    HW120086   1.602  12.643   9.595
 6063SOL    HW220087   1.487  12.589   9.513
 6064SOL     OW20088   7.913   1.310  10.399
 6064SOL    HW120089   7.987   1.261  10.435
 6064SOL    HW220090   7.864   1.340  10.476
 6065SOL     OW20091  10.842  14.424   6.980
 6065SOL    HW120092  10.890  14.363   6.923
 6065SOL    HW220093  10.756  14.383   6.990
 6066SOL     OW20094   7.715   9.183   1.701
 6066SOL    HW120095   7.788   9.129   1.672
 6066SOL    HW220096   7.703   9.246   1.630
 6067SOL     OW20097   5.420  13.028   9.526
 6067SOL    HW120098   5.515  13.020   9.535
 6067SOL    HW220099   5.385  12.944   9.557
 6068SOL     OW20100  12.082   6.181   0.720
 6068SOL    HW120101  12.133   6.199   0.799
 6068SOL    HW220102  12.081   6.086   0.712
 6069SOL     OW20103   0.407   9.177   7.541
 6069SOL    HW120104   0.380   9.090   7.512
 6069SOL    HW220105   0.425   9.167   7.634
 6070SOL     OW20106   0.645   5.729   5.668
 6070SOL    HW120107   0.635   5.822   5.687
 6070SOL    HW220108   0.583   5.686   5.728
 6071SOL     OW20109   9.947   0.680  10.642
 6071SOL    HW120110   9.929   0.593  10.679
 6071SOL    HW220111   9.861   0.718  10.626
 6072SOL     OW20112   8.802   4.184   8.707
 6072SOL    HW120113   8.706   4.184   8.707
 6072SOL    HW220114   8.826   4.092   8.704
 6073SOL     OW20115   6.189   4.077   6.588
 6073SOL    HW120116   6.122   4.076   6.657
 6073SOL    HW220117   6.164   4.006   6.529
 6074SOL     OW20118   3.897   3.331   9.055
 6074SOL    HW120119   3.858   3.359   8.972
 6074SOL    HW220120   3.840   3.260   9.086
 6075SOL     OW20121   8.327   0.877   1.268
 6075SOL    HW120122   8.394   0.939   1.295
 6075SOL    HW220123   8.256   0.888   1.331
 6076SOL     OW20124   0.766   3.706  11.492
 6076SOL    HW120125   0.690   3.727  11.438
 6076SOL    HW220126   0.729   3.689  11.579
 6077SOL     OW20127   6.963  10.879   8.292
 6077SOL    HW120128   7.010  10.866   8.210
 6077SOL    HW220129   6.938  10.972   8.291
 6078SOL     OW20130   4.647   3.265   3.645
 6078SOL    HW120131   4.729   3.300   3.680
 6078SOL    HW220132   4.665   3.172   3.630
 6079SOL     OW20133  12.739   7.302   9.113
 6079SOL    HW120134  12.650   7.266   9.106
 6079SOL    HW220135  12.754   7.310   9.207
 6080SOL     OW20136  13.593  10.891   6.920
 6080SOL    HW120137  13.572  10.855   6.834
 6080SOL    HW220138  13.608  10.813   6.975
 6081SOL     OW20139   8.838   6.002  12.969
 6081SOL    HW120140   8.808   6.079  13.018
 6081SOL    HW220141   8.933   6.000  12.982
 6082SOL     OW20142  14.657  12.190   9.772
 6082SOL    HW120143  14.578  12.219   9.725
 6082SOL    HW220144  14.641  12.214   9.863
 6083SOL     OW20145   8.695   5.158  12.949
 6083SOL    HW120146   8.703   5.065  12.971
 6083SOL    HW220147   8.601   5.173  12.941
 6084SOL     OW20148   6.239   3.015  13.639
 6084SOL    HW120149   6.300   2.961  13.690
 6084SOL    HW220150   6.267   3.105  13.656
 6085SOL     OW20151   0.323   7.315  12.656
 6085SOL    HW120152   0.388   7.250  12.631
 6085SOL    HW220153   0.241   7.266  12.663
 6086SOL     OW20154  12.843  12.729   5.038
 6086SOL    HW120155  12.834  12.818   5.071
 6086SOL    HW220156  12.802  12.674   5.105
 6087SOL     OW20157   8.007   7.626   2.635
 6087SOL    HW120158   7.915   7.608   2.655
 6087SOL    HW220159   8.052   7.613   2.719
 6088SOL     OW20160  14.560   7.099   0.550
 6088SOL    HW120161  14.598   7.059   0.628
 6088SOL    HW220162  14.467   7.107   0.570
 6089SOL     OW20163   9.857  13.578  11.871
 6089SOL    HW120164   9.948  13.597  11.892
 6089SOL    HW220165   9.860  13.548  11.779
 6090SOL     OW20166  11.795   9.063  10.920
 6090SOL    HW120167  11.887   9.069  10.947
 6090SOL    HW220168  11.784   8.972  10.894
 6091SOL     OW20169   6.410   8.548   5.994
 6091SOL    HW120170   6.439   8.638   6.013
 6091SOL    HW220171   6.411   8.542   5.899
 6092SOL     OW20172   3.897   7.427  10.903
 6092SOL    HW120173   3.953   7.499  10.874
 6092SOL    HW220174   3.954   7.350  10.906
 6093SOL     OW20175   8.715   1.950   6.454
 6093SOL    HW120176   8.752   1.879   6.506
 6093SOL    HW220177   8.730   1.924   6.363
 6094SOL     OW20178   6.378  12.428   3.894
 6094SOL    HW120179   6.302  12.389   3.851
 6094SOL    HW220180   6.453  12.384   3.854
 6095SOL     OW20181   3.759   7.830   3.731
 6095SOL    HW120182   3.724   7.774   3.661
 6095SOL    HW220183   3.681   7.871   3.769
 6096SOL     OW20184   6.990   9.178   8.729
 6096SOL    HW120185   7.032   9.142   8.651
 6096SOL    HW220186   7.057   9.231   8.770
 6097SOL     OW20187   0.444  14.587   4.199
 6097SOL    HW120188   0.388  14.664   4.188
 6097SOL    HW220189   0.492  14.580   4.116
 6098SOL     OW20190  12.510   5.543   6.365
 6098SOL    HW120191  12.598   5.545   6.327
 6098SOL    HW220192  12.478   5.454   6.346
 6099SOL     OW20193  12.595   5.774   0.395
 6099SOL    HW120194  12.598   5.792   0.489
 6099SOL    HW220195  12.502   5.764   0.376
 6100SOL     OW20196  12.538   2.934   0.452
 6100SOL    HW120197  12.597   2.965   0.521
 6100SOL    HW220198  12.584   2.860   0.413
 6101SOL     OW20199  10.297   6.017   2.903
 6101SOL    HW120200  10.333   5.950   2.961
 6101SOL    HW220201  10.360   6.088   2.907
 6102SOL     OW20202   2.155   0.030  12.610
 6102SOL    HW120203   2.221   0.071  12.554
 6102SOL    HW220204   2.097  14.854  12.549
 6103SOL     OW20205  10.686  11.081   9.654
 6103SOL    HW120206  10.600  11.123   9.654
 6103SOL    HW220207  10.705  11.065   9.561
 6104SOL     OW20208   2.597  13.468  12.638
 6104SOL    HW120209   2.553  13.535  12.690
 6104SOL    HW220210   2.641  13.517  12.568
 6105SOL     OW20211   0.974  14.860   9.242
 6105SOL    HW120212   0.998  14.785   9.297
 6105SOL    HW220213   0.903   0.034   9.290
 6106SOL     OW20214  10.722   1.633   3.321
 6106SOL    HW120215  10.723   1.708   3.379
 6106SOL    HW220216  10.815   1.611   3.309
 6107SOL     OW20217  14.519  13.202  11.698
 6107SOL    HW120218  14.455  13.134  11.719
 6107SOL    HW220219  14.578  13.161  11.636
 6108SOL     OW20220   4.089   7.025   9.140
 6108SOL    HW120221   4.002   7.027   9.101
 6108SOL    HW220222   4.083   6.960   9.210
 6109SOL     OW20223  11.788   3.475   1.983
 6109SOL    HW120224  11.826   3.389   1.965
 6109SOL    HW220225  11.695   3.458   1.998
 6110SOL     OW20226  11.648   0.858  10.282
 6110SOL    HW120227  11.561   0.895  10.267
 6110SOL    HW220228  11.687   0.915  10.348
 6111SOL     OW20229   8.162  10.928   7.768
 6111SOL    HW120230   8.210  10.959   7.844
 6111SOL    HW220231   8.171  10.832   7.771
 6112SOL     OW20232   3.608  13.804   5.956
 6112SOL    HW120233   3.549  13.731   5.975
 6112SOL    HW220234   3.689  13.782   6.002
 6113SOL     OW20235   0.610   8.954   4.292
 6113SOL    HW120236   0.537   8.978   4.350
 6113SOL    HW220237   0.612   8.858   4.295
 6114SOL     OW20238   1.286  12.019   2.737
 6114SOL    HW120239   1.275  12.066   2.820
 6114SOL    HW220240   1.356  11.956   2.755
 6115SOL     OW20241  14.570   2.818  11.835
 6115SOL    HW120242  14.645   2.876  11.823
 6115SOL    HW220243  14.566   2.768  11.754
 6116SOL     OW20244   7.647   1.920   3.661
 6116SOL    HW120245   7.618   1.919   3.752
 6116SOL    HW220246   7.734   1.959   3.664
 6117SOL     OW20247  10.837   5.027  12.426
 6117SOL    HW120248  10.853   4.945  12.380
 6117SOL    HW220249  10.862   5.095  12.363
 6118SOL     OW20250   1.258   2.076  10.697
 6118SOL    HW120251   1.299   2.081  10.611
 6118SOL    HW220252   1.210   1.993  10.697
 6119SOL     OW20253   4.437   8.017   3.191
 6119SOL    HW120254   4.459   7.925   3.179
 6119SOL    HW220255   4.521   8.062   3.190
 6120SOL     OW20256   3.023   2.198   3.826
 6120SOL    HW120257   2.954   2.198   3.760
 6120SOL    HW220258   3.028   2.107   3.856
 6121SOL     OW20259   2.601   1.960  13.783
 6121SOL    HW120260   2.628   1.868  13.780
 6121SOL    HW220261   2.514   1.960  13.743
 6122SOL     OW20262   5.924   0.630   8.111
 6122SOL    HW120263   6.009   0.592   8.091
 6122SOL    HW220264   5.868   0.602   8.038
 6123SOL     OW20265   4.794   6.733   7.241
 6123SOL    HW120266   4.859   6.787   7.284
 6123SOL    HW220267   4.797   6.760   7.149
 6124SOL     OW20268   2.896   3.392  14.010
 6124SOL    HW120269   2.883   3.372  13.917
 6124SOL    HW220270   2.945   3.474  14.010
 6125SOL     OW20271  10.317   6.742   9.090
 6125SOL    HW120272  10.259   6.687   9.037
 6125SOL    HW220273  10.258   6.803   9.135
 6126SOL     OW20274  10.620  11.973   1.919
 6126SOL    HW120275  10.664  12.012   1.995
 6126SOL    HW220276  10.603  12.047   1.861
 6127SOL     OW20277  12.980  11.251   5.978
 6127SOL    HW120278  13.056  11.272   6.032
 6127SOL    HW220279  12.998  11.164   5.943
 6128SOL     OW20280  14.742   7.643  10.038
 6128SOL    HW120281  14.800   7.684  10.103
 6128SOL    HW220282  14.699   7.572  10.085
 6129SOL     OW20283  11.091   4.689  13.575
 6129SOL    HW120284  11.003   4.654  13.589
 6129SOL    HW220285  11.128   4.696  13.663
 6130SOL     OW20286   0.951   5.156  13.187
 6130SOL    HW120287   1.012   5.127  13.119
 6130SOL    HW220288   0.984   5.115  13.267
 6131SOL     OW20289  10.269   4.946   5.569
 6131SOL    HW120290  10.330   4.913   5.636
 6131SOL    HW220291  10.212   4.872   5.550
 6132SOL     OW20292   4.971   0.664  10.446
 6132SOL    HW120293   4.993   0.648  10.354
 6132SOL    HW220294   4.933   0.582  10.476
 6133SOL     OW20295   4.509   7.123   2.960
 6133SOL    HW120296   4.422   7.162   2.972
 6133SOL    HW220297   4.491   7.037   2.921
 6134SOL     OW20298   3.839   7.916   7.688
 6134SOL    HW120299   3.774   7.942   7.753
 6134SOL    HW220300   3.800   7.940   7.604
 6135SOL     OW20301   4.575  13.053  12.460
 6135SOL    HW120302   4.619  13.135  12.436
 6135SOL    HW220303   4.581  13.049  12.556
 6136SOL     OW20304   3.036   3.920   7.100
 6136SOL    HW120305   3.056   3.966   7.018
 6136SOL    HW220306   3.021   3.990   7.164
 6137SOL     OW20307   9.791  13.850  11.736
 6137SOL    HW120308   9.705  13.890  11.725
 6137SOL    HW220309   9.772  13.760  11.762
 6138SOL     OW20310   6.213   9.578  12.049
 6138SOL    HW120311   6.143   9.523  12.013
 6138SOL    HW220312   6.166   9.642  12.104
 6139SOL     OW20313   1.578   6.524  12.189
 6139SOL    HW120314   1.588   6.613  12.222
 6139SOL    HW220315   1.629   6.522  12.108
 6140SOL     OW20316   9.652   5.359   2.362
 6140SOL    HW120317   9.692   5.423   2.304
 6140SOL    HW220318   9.723   5.297   2.381
 6141SOL     OW20319   4.913   2.655  13.693
 6141SOL    HW120320   4.931   2.595  13.765
 6141SOL    HW220321   4.999   2.678  13.658
 6142SOL     OW20322  10.213   8.930   0.878
 6142SOL    HW120323  10.133   8.877   0.880
 6142SOL    HW220324  10.272   8.886   0.940
 6143SOL     OW20325   5.066  13.315  13.986
 6143SOL    HW120326   4.996  13.274  14.036
 6143SOL    HW220327   5.073  13.403  14.023
 6144SOL     OW20328  12.397  10.063  13.760
 6144SOL    HW120329  12.321  10.120  13.769
 6144SOL    HW220330  12.425  10.046  13.850
 6145SOL     OW20331   1.066   6.128   8.871
 6145SOL    HW120332   1.100   6.167   8.952
 6145SOL    HW220333   1.126   6.158   8.803
 6146SOL     OW20334  14.154   0.022   6.405
 6146SOL    HW120335  14.222   0.043   6.341
 6146SOL    HW220336  14.090  14.841   6.356
 6147SOL     OW20337   5.254   6.008   9.714
 6147SOL    HW120338   5.214   5.932   9.673
 6147SOL    HW220339   5.206   6.083   9.679
 6148SOL     OW20340   6.863   0.639  13.060
 6148SOL    HW120341   6.944   0.638  13.009
 6148SOL    HW220342   6.794   0.653  12.995
 6149SOL     OW20343  14.864   4.739   1.590
 6149SOL    HW120344  14.834   4.726   1.500
 6149SOL    HW220345   0.088   4.757   1.582
 6150SOL     OW20346  13.991   1.352  10.878
 6150SOL    HW120347  13.911   1.373  10.927
 6150SOL    HW220348  14.049   1.427  10.893
 6151SOL     OW20349   4.553   6.454   9.686
 6151SOL    HW120350   4.606   6.467   9.764
 6151SOL    HW220351   4.477   6.403   9.716
 6152SOL     OW20352   7.772   3.937   8.639
 6152SOL    HW120353   7.801   3.871   8.576
 6152SOL    HW220354   7.795   4.021   8.598
 6153SOL     OW20355   3.647  10.474  10.726
 6153SOL    HW120356   3.584  10.418  10.682
 6153SOL    HW220357   3.694  10.415  10.785
 6154SOL     OW20358   5.835   3.785  13.207
 6154SOL    HW120359   5.852   3.701  13.251
 6154SOL    HW220360   5.908   3.841  13.232
 6155SOL     OW20361   1.769  11.866   3.679
 6155SOL    HW120362   1.724  11.835   3.758
 6155SOL    HW220363   1.714  11.939   3.647
 6156SOL     OW20364   6.795  14.385   6.968
 6156SOL    HW120365   6.754  14.310   7.010
 6156SOL    HW220366   6.766  14.460   7.020
 6157SOL     OW20367  10.217   7.710   7.529
 6157SOL    HW120368  10.171   7.689   7.611
 6157SOL    HW220369  10.307   7.681   7.544
 6158SOL     OW20370   3.716   0.802   0.809
 6158SOL    HW120371   3.700   0.738   0.878
 6158SOL    HW220372   3.793   0.851   0.839
 6159SOL     OW20373   3.210  12.308   1.252
 6159SOL    HW120374   3.170  12.253   1.320
 6159SOL    HW220375   3.250  12.246   1.191
 6160SOL     OW20376  10.208   3.913   1.209
 6160SOL    HW120377  10.258   3.985   1.248
 6160SOL    HW220378  10.228   3.837   1.263
 6161SOL     OW20379   7.090  10.681   4.836
 6161SOL    HW120380   7.088  10.769   4.797
 6161SOL    HW220381   7.039  10.627   4.775
 6162SOL     OW20382  11.656  13.769   5.445
 6162SOL    HW120383  11.570  13.749   5.408
 6162SOL    HW220384  11.698  13.825   5.379
 6163SOL     OW20385   9.187  12.315   8.906
 6163SOL    HW120386   9.225  12.272   8.983
 6163SOL    HW220387   9.227  12.269   8.832
 6164SOL     OW20388   0.168   4.148   0.870
 6164SOL    HW120389   0.185   4.054   0.877
 6164SOL    HW220390   0.075   4.157   0.891
 6165SOL     OW20391  11.862   7.929   8.592
 6165SOL    HW120392  11.841   7.894   8.505
 6165SOL    HW220393  11.782   7.975   8.618
 6166SOL     OW20394   4.533  11.011   7.431
 6166SOL    HW120395   4.554  11.096   7.468
 6166SOL    HW220396   4.617  10.966   7.423
 6167SOL     OW20397   5.851   4.917  11.529
 6167SOL    HW120398   5.766   4.873  11.541
 6167SOL    HW220399   5.915   4.857  11.567
 6168SOL     OW20400   3.229  12.134  12.212
 6168SOL    HW120401   3.174  12.156  12.287
 6168SOL    HW220402   3.167  12.121  12.140
 6169SOL     OW20403  14.038  14.190  10.817
 6169SOL    HW120404  14.110  14.174  10.878
 6169SOL    HW220405  14.041  14.115  10.757
 6170SOL     OW20406  13.566   6.227   5.915
 6170SOL    HW120407  13.484   6.274   5.903
 6170SOL    HW220408  13.611   6.235   5.831
 6171SOL     OW20409  13.297  10.847   7.278
 6171SOL    HW120410  13.281  10.926   7.329
 6171SOL    HW220411  13.249  10.862   7.196
 6172SOL     OW20412   7.704   0.505   1.381
 6172SOL    HW120413   7.733   0.449   1.453
 6172SOL    HW220414   7.682   0.444   1.311
 6173SOL     OW20415   6.858   9.229   0.380
 6173SOL    HW120416   6.925   9.170   0.413
 6173SOL    HW220417   6.792   9.232   0.449
 6174SOL     OW20418   8.148   2.332   8.570
 6174SOL    HW120419   8.193   2.336   8.654
 6174SOL    HW220420   8.059   2.364   8.589
 6175SOL     OW20421  12.541   3.636   9.528
 6175SOL    HW120422  12.561   3.630   9.434
 6175SOL    HW220423  12.588   3.562   9.567
 6176SOL     OW20424   4.764   3.643   8.994
 6176SOL    HW120425   4.860   3.639   8.995
 6176SOL    HW220426   4.743   3.691   8.914
 6177SOL     OW20427   3.463  12.881   0.415
 6177SOL    HW120428   3.502  12.937   0.482
 6177SOL    HW220429   3.385  12.929   0.386
 6178SOL     OW20430  12.312  11.073   5.043
 6178SOL    HW120431  12.293  10.988   5.082
 6178SOL    HW220432  12.407  11.083   5.054
 6179SOL     OW20433  12.029   4.912   7.852
 6179SOL    HW120434  11.974   4.841   7.884
 6179SOL    HW220435  11.969   4.986   7.841
 6180SOL     OW20436  14.016   4.801   6.783
 6180SOL    HW120437  14.035   4.831   6.694
 6180SOL    HW220438  13.954   4.866   6.817
 6181SOL     OW20439   3.033   5.710  12.403
 6181SOL    HW120440   2.958   5.738  12.352
 6181SOL    HW220441   3.058   5.626  12.366
 6182SOL     OW20442  12.066   3.982  10.291
 6182SOL    HW120443  12.157   3.966  10.316
 6182SOL    HW220444  12.053   4.076  10.303
 6183SOL     OW20445  11.437   4.169  11.278
 6183SOL    HW120446  11.431   4.149  11.371
 6183SOL    HW220447  11.408   4.259  11.270
 6184SOL     OW20448   7.099   2.382  12.174
 6184SOL    HW120449   7.023   2.429  12.138
 6184SOL    HW220450   7.149   2.356  12.096
 6185SOL     OW20451  12.836  12.795  10.295
 6185SOL    HW120452  12.879  12.755  10.220
 6185SOL    HW220453  12.803  12.721  10.346
 6186SOL     OW20454   2.809  13.076  12.839
 6186SOL    HW120455   2.755  13.042  12.911
 6186SOL    HW220456   2.813  13.004  12.776
 6187SOL     OW20457   1.866   3.731  14.655
 6187SOL    HW120458   1.884   3.742  14.562
 6187SOL    HW220459   1.825   3.645  14.661
 6188SOL     OW20460   6.654   0.119   0.971
 6188SOL    HW120461   6.602   0.055   1.020
 6188SOL    HW220462   6.741   0.081   0.968
 6189SOL     OW20463   9.746   5.985  13.627
 6189SOL    HW120464   9.685   5.929  13.676
 6189SOL    HW220465   9.832   5.965  13.664
 6190SOL     OW20466   6.258  12.375   7.920
 6190SOL    HW120467   6.264  12.461   7.879
 6190SOL    HW220468   6.212  12.320   7.857
 6191SOL     OW20469   4.052   7.292   2.595
 6191SOL    HW120470   4.137   7.330   2.574
 6191SOL    HW220471   4.069   7.198   2.605
 6192SOL     OW20472   1.599   8.094   5.018
 6192SOL    HW120473   1.559   8.095   5.104
 6192SOL    HW220474   1.693   8.087   5.035
 6193SOL     OW20475  14.157   2.838   6.690
 6193SOL    HW120476  14.190   2.926   6.706
 6193SOL    HW220477  14.214   2.803   6.622
 6194SOL     OW20478   2.352  13.460  14.162
 6194SOL    HW120479   2.258  13.470  14.175
 6194SOL    HW220480   2.362  13.445  14.068
 6195SOL     OW20481   8.324  12.542   2.611
 6195SOL    HW120482   8.407  12.506   2.579
 6195SOL    HW220483   8.292  12.477   2.673
 6196SOL     OW20484   9.188   1.573   3.027
 6196SOL    HW120485   9.116   1.592   3.087
 6196SOL    HW220486   9.227   1.659   3.008
 6197SOL     OW20487   8.646   8.073   9.146
 6197SOL    HW120488   8.735   8.042   9.166
 6197SOL    HW220489   8.607   8.091   9.231
 6198SOL     OW20490  11.399   3.943  10.815
 6198SOL    HW120491  11.396   3.864  10.760
 6198SOL    HW220492  11.467   3.997  10.775
 6199SOL     OW20493   9.668  14.611   7.563
 6199SOL    HW120494   9.662  14.544   7.495
 6199SOL    HW220495   9.760  14.636   7.563
 6200SOL     OW20496   4.224   1.418   2.488
 6200SOL    HW120497   4.147   1.407   2.433
 6200SOL    HW220498   4.285   1.469   2.434
 6201SOL     OW20499   5.111   9.175   2.784
 6201SOL    HW120500   5.047   9.245   2.778
 6201SOL    HW220501   5.062   9.099   2.814
 6202SOL     OW20502   8.569  11.071   7.127
 6202SOL    HW120503   8.518  11.144   7.163
 6202SOL    HW220504   8.642  11.060   7.188
 6203SOL     OW20505  11.590   4.139   2.585
 6203SOL    HW120506  11.527   4.179   2.644
 6203SOL    HW220507  11.647   4.212   2.558
 6204SOL     OW20508  13.260   1.215   3.506
 6204SOL    HW120509  13.306   1.178   3.431
 6204SOL    HW220510  13.313   1.291   3.531
 6205SOL     OW20511   4.890   9.590   1.945
 6205SOL    HW120512   4.835   9.512   1.947
 6205SOL    HW220513   4.830   9.662   1.924
 6206SOL     OW20514   9.779  12.128   9.271
 6206SOL    HW120515   9.835  12.079   9.330
 6206SOL    HW220516   9.690  12.101   9.294
 6207SOL     OW20517   4.817   0.203   6.308
 6207SOL    HW120518   4.792   0.125   6.260
 6207SOL    HW220519   4.782   0.276   6.257
 6208SOL     OW20520   4.790  12.534  13.886
 6208SOL    HW120521   4.712  12.587  13.902
 6208SOL    HW220522   4.862  12.597  13.886
 6209SOL     OW20523   4.937  12.328   2.059
 6209SOL    HW120524   4.931  12.420   2.031
 6209SOL    HW220525   4.912  12.330   2.151
 6210SOL     OW20526  11.421   9.856  11.849
 6210SOL    HW120527  11.410   9.790  11.780
 6210SOL    HW220528  11.387   9.936  11.810
 6211SOL     OW20529   5.833   7.925   7.436
 6211SOL    HW120530   5.880   7.991   7.386
 6211SOL    HW220531   5.899   7.858   7.455
 6212SOL     OW20532   2.758   9.759  12.266
 6212SOL    HW120533   2.806   9.841  12.274
 6212SOL    HW220534   2.693   9.775  12.197
 6213SOL     OW20535   0.634   1.053  13.834
 6213SOL    HW120536   0.600   1.044  13.745
 6213SOL    HW220537   0.619   0.968  13.874
 6214SOL     OW20538   9.827   5.793   9.790
 6214SOL    HW120539   9.806   5.711   9.834
 6214SOL    HW220540   9.743   5.840   9.787
 6215SOL     OW20541  11.351   9.221   1.068
 6215SOL    HW120542  11.381   9.260   0.986
 6215SOL    HW220543  11.429   9.223   1.125
 6216SOL     OW20544   2.318   7.026   2.527
 6216SOL    HW120545   2.334   7.087   2.599
 6216SOL    HW220546   2.239   7.060   2.485
 6217SOL     OW20547   7.962   5.944  14.296
 6217SOL    HW120548   7.926   5.856  14.286
 6217SOL    HW220549   7.893   6.002  14.262
 6218SOL     OW20550   0.726   1.641   8.779
 6218SOL    HW120551   0.736   1.566   8.719
 6218SOL    HW220552   0.750   1.606   8.865
 6219SOL     OW20553   9.313  13.385  11.974
 6219SOL    HW120554   9.317  13.293  12.002
 6219SOL    HW220555   9.251  13.385  11.902
 6220SOL     OW20556   3.625   4.814   1.186
 6220SOL    HW120557   3.664   4.868   1.117
 6220SOL    HW220558   3.553   4.768   1.144
 6221SOL     OW20559   7.360   0.025   7.568
 6221SOL    HW120560   7.411   0.022   7.487
 6221SOL    HW220561   7.352  14.802   7.594
 6222SOL     OW20562   9.130   2.954   6.796
 6222SOL    HW120563   9.059   2.981   6.737
 6222SOL    HW220564   9.169   2.879   6.753
 6223SOL     OW20565   9.339   9.064   6.867
 6223SOL    HW120566   9.372   9.012   6.940
 6223SOL    HW220567   9.394   9.142   6.866
 6224SOL     OW20568   9.296  13.123  12.046
 6224SOL    HW120569   9.223  13.069  12.073
 6224SOL    HW220570   9.353  13.064  11.996
 6225SOL     OW20571  14.559   2.414   1.868
 6225SOL    HW120572  14.570   2.483   1.933
 6225SOL    HW220573  14.580   2.456   1.785
 6226SOL     OW20574   0.124   0.490   1.815
 6226SOL    HW120575   0.175   0.435   1.756
 6226SOL    HW220576   0.146   0.579   1.790
 6227SOL     OW20577   7.482   4.898   4.567
 6227SOL    HW120578   7.401   4.881   4.518
 6227SOL    HW220579   7.473   4.846   4.646
 6228SOL     OW20580  10.528   0.220   5.944
 6228SOL    HW120581  10.444   0.191   5.910
 6228SOL    HW220582  10.592   0.186   5.882
 6229SOL     OW20583   9.119   5.764   8.993
 6229SOL    HW120584   9.092   5.676   8.967
 6229SOL    HW220585   9.042   5.802   9.034
 6230SOL     OW20586   3.937  12.336   3.166
 6230SOL    HW120587   4.020  12.338   3.119
 6230SOL    HW220588   3.946  12.262   3.226
 6231SOL     OW20589  12.762   7.155  10.127
 6231SOL    HW120590  12.758   7.094  10.201
 6231SOL    HW220591  12.711   7.231  10.154
 6232SOL     OW20592   9.467   9.854   8.655
 6232SOL    HW120593   9.432   9.911   8.724
 6232SOL    HW220594   9.482   9.913   8.581
 6233SOL     OW20595  12.822   3.909  13.678
 6233SOL    HW120596  12.904   3.918  13.631
 6233SOL    HW220597  12.811   3.993  13.723
 6234SOL     OW20598   0.627   3.236   8.843
 6234SOL    HW120599   0.628   3.309   8.781
 6234SOL    HW220600   0.719   3.222   8.866
 6235SOL     OW20601  10.253   5.611   5.905
 6235SOL    HW120602  10.234   5.633   5.814
 6235SOL    HW220603  10.183   5.551   5.930
 6236SOL     OW20604   2.279   8.760   5.173
 6236SOL    HW120605   2.198   8.744   5.125
 6236SOL    HW220606   2.323   8.676   5.175
 6237SOL     OW20607   2.627  13.306  11.837
 6237SOL    HW120608   2.698  13.278  11.779
 6237SOL    HW220609   2.559  13.239  11.825
 6238SOL     OW20610   3.059  11.716  14.599
 6238SOL    HW120611   3.001  11.756  14.534
 6238SOL    HW220612   3.138  11.692  14.550
 6239SOL     OW20613   3.468  14.071  11.869
 6239SOL    HW120614   3.437  14.046  11.782
 6239SOL    HW220615   3.394  14.054  11.926
 6240SOL     OW20616   7.082   0.063   0.433
 6240SOL    HW120617   7.001   0.014   0.418
 6240SOL    HW220618   7.075   0.093   0.524
 6241SOL     OW20619   2.253  14.527   2.802
 6241SOL    HW120620   2.226  14.618   2.792
 6241SOL    HW220621   2.210  14.482   2.729
 6242SOL     OW20622   1.663   4.417   9.037
 6242SOL    HW120623   1.729   4.485   9.049
 6242SOL    HW220624   1.653   4.378   9.124
 6243SOL     OW20625   5.508   9.223  11.314
 6243SOL    HW120626   5.414   9.221  11.298
 6243SOL    HW220627   5.517   9.263  11.400
 6244SOL     OW20628   2.792   3.747   8.199
 6244SOL    HW120629   2.839   3.828   8.178
 6244SOL    HW220630   2.810   3.731   8.291
 6245SOL     OW20631   6.720  11.827   4.321
 6245SOL    HW120632   6.742  11.915   4.288
 6245SOL    HW220633   6.783  11.769   4.277
 6246SOL     OW20634   1.321   5.945   3.195
 6246SOL    HW120635   1.283   6.030   3.214
 6246SOL    HW220636   1.329   5.902   3.280
 6247SOL     OW20637  14.202   3.849  11.278
 6247SOL    HW120638  14.144   3.895  11.217
 6247SOL    HW220639  14.148   3.837  11.357
 6248SOL     OW20640  11.772   0.228   5.523
 6248SOL    HW120641  11.733   0.184   5.598
 6248SOL    HW220642  11.742   0.179   5.447
 6249SOL     OW20643   1.750   2.390   4.586
 6249SOL    HW120644   1.829   2.337   4.573
 6249SOL    HW220645   1.679   2.335   4.553
 6250SOL     OW20646   3.095   9.814  11.327
 6250SOL    HW120647   3.096   9.883  11.392
 6250SOL    HW220648   3.053   9.853  11.250
 6251SOL     OW20649  10.542   2.117   6.947
 6251SOL    HW120650  10.477   2.096   6.880
 6251SOL    HW220651  10.599   2.040   6.949
 6252SOL     OW20652  12.154   6.055   8.969
 6252SOL    HW120653  12.063   6.039   8.996
 6252SOL    HW220654  12.194   5.968   8.965
 6253SOL     OW20655  13.188   1.006   9.597
 6253SOL    HW120656  13.273   0.971   9.569
 6253SOL    HW220657  13.194   1.010   9.692
 6254SOL     OW20658   8.482  14.810   1.183
 6254SOL    HW120659   8.442  14.743   1.128
 6254SOL    HW220660   8.410  14.869   1.206
 6255SOL     OW20661  11.484   0.192   3.111
 6255SOL    HW120662  11.474   0.212   3.204
 6255SOL    HW220663  11.395   0.196   3.076
 6256SOL     OW20664   6.712   5.692   6.277
 6256SOL    HW120665   6.664   5.633   6.219
 6256SOL    HW220666   6.796   5.649   6.292
 6257SOL     OW20667   5.193   9.537   7.854
 6257SOL    HW120668   5.287   9.527   7.866
 6257SOL    HW220669   5.174   9.626   7.882
 6258SOL     OW20670   4.133   9.061   1.447
 6258SOL    HW120671   4.190   9.138   1.454
 6258SOL    HW220672   4.067   9.073   1.516
 6259SOL     OW20673  13.552  13.759   3.441
 6259SOL    HW120674  13.546  13.805   3.524
 6259SOL    HW220675  13.509  13.817   3.378
 6260SOL     OW20676   6.269   4.675   8.698
 6260SOL    HW120677   6.325   4.605   8.666
 6260SOL    HW220678   6.310   4.755   8.667
 6261SOL     OW20679   0.478   8.458   8.534
 6261SOL    HW120680   0.475   8.533   8.475
 6261SOL    HW220681   0.571   8.442   8.549
 6262SOL     OW20682   9.547  14.531  13.628
 6262SOL    HW120683   9.472  14.477  13.655
 6262SOL    HW220684   9.605  14.533  13.704
 6263SOL     OW20685   2.417   8.563   9.342
 6263SOL    HW120686   2.499   8.545   9.387
 6263SOL    HW220687   2.385   8.645   9.381
 6264SOL     OW20688   5.572   4.234   0.004
 6264SOL    HW120689   5.646   4.200   0.054
 6264SOL    HW220690   5.608   4.247  14.785
 6265SOL     OW20691   0.902   0.974   0.965
 6265SOL    HW120692   0.957   0.990   1.042
 6265SOL    HW220693   0.954   0.915   0.911
 6266SOL     OW20694  12.714   7.275   2.300
 6266SOL    HW120695  12.676   7.237   2.221
 6266SOL    HW220696  12.684   7.218   2.371
 6267SOL     OW20697  10.658   3.054  11.331
 6267SOL    HW120698  10.717   3.040  11.257
 6267SOL    HW220699  10.709   3.109  11.392
 6268SOL     OW20700   3.892  10.788  11.934
 6268SOL    HW120701   3.834  10.860  11.909
 6268SOL    HW220702   3.949  10.776  11.858
 6269SOL     OW20703  13.677  11.809  11.278
 6269SOL    HW120704  13.745  11.875  11.294
 6269SOL    HW220705  13.601  11.841  11.327
 6270SOL     OW20706   0.688   3.174   2.039
 6270SOL    HW120707   0.623   3.193   2.107
 6270SOL    HW220708   0.745   3.251   2.040
 6271SOL     OW20709   4.820  12.227  11.563
 6271SOL    HW120710   4.819  12.286  11.638
 6271SOL    HW220711   4.858  12.278  11.492
 6272SOL     OW20712   0.987  10.104   8.500
 6272SOL    HW120713   1.015  10.150   8.579
 6272SOL    HW220714   1.018  10.158   8.428
 6273SOL     OW20715   2.371   9.691   4.591
 6273SOL    HW120716   2.310   9.677   4.519
 6273SOL    HW220717   2.457   9.668   4.556
 6274SOL     OW20718   2.063  13.459  10.365
 6274SOL    HW120719   2.055  13.538  10.312
 6274SOL    HW220720   1.983  13.456  10.416
 6275SOL     OW20721   3.174  12.202  11.671
 6275SOL    HW120722   3.109  12.270  11.689
 6275SOL    HW220723   3.176  12.149  11.751
 6276SOL     OW20724  14.820  13.207  11.070
 6276SOL    HW120725  14.836  13.157  11.150
 6276SOL    HW220726  14.781  13.289  11.101
 6277SOL     OW20727   7.697   8.732   0.929
 6277SOL    HW120728   7.632   8.731   1.000
 6277SOL    HW220729   7.777   8.699   0.970
 6278SOL     OW20730   1.376   6.240  12.888
 6278SOL    HW120731   1.469   6.224  12.901
 6278SOL    HW220732   1.369   6.273  12.798
 6279SOL     OW20733   2.628   4.842   2.079
 6279SOL    HW120734   2.607   4.935   2.067
 6279SOL    HW220735   2.724   4.840   2.081
 6280SOL     OW20736   5.896  14.290   6.996
 6280SOL    HW120737   5.816  14.243   7.019
 6280SOL    HW220738   5.892  14.371   7.047
 6281SOL     OW20739  11.903   9.815   4.597
 6281SOL    HW120740  11.846   9.872   4.649
 6281SOL    HW220741  11.948   9.875   4.537
 6282SOL     OW20742   3.155   8.951   0.021
 6282SOL    HW120743   3.181   8.975   0.110
 6282SOL    HW220744   3.231   8.972  14.837
 6283SOL     OW20745  13.842   8.910   6.619
 6283SOL    HW120746  13.888   8.827   6.606
 6283SOL    HW220747  13.758   8.899   6.575
 6284SOL     OW20748   8.058   1.087   5.942
 6284SOL    HW120749   8.035   1.076   6.034
 6284SOL    HW220750   8.125   1.155   5.943
 6285SOL     OW20751   8.863   5.324  12.137
 6285SOL    HW120752   8.923   5.289  12.070
 6285SOL    HW220753   8.835   5.408  12.101
 6286SOL     OW20754  10.681   1.964  14.362
 6286SOL    HW120755  10.645   1.883  14.325
 6286SOL    HW220756  10.775   1.948  14.367
 6287SOL     OW20757   5.198   6.366  13.515
 6287SOL    HW120758   5.265   6.427  13.547
 6287SOL    HW220759   5.151   6.415  13.448
 6288SOL     OW20760   7.452   4.761  10.124
 6288SOL    HW120761   7.393   4.837  10.129
 6288SOL    HW220762   7.465   4.735  10.215
 6289SOL     OW20763  12.206  14.376   8.206
 6289SOL    HW120764  12.193  14.336   8.120
 6289SOL    HW220765  12.196  14.470   8.190
 6290SOL     OW20766   0.184  11.099   1.584
 6290SOL    HW120767   0.089  11.093   1.579
 6290SOL    HW220768   0.207  11.165   1.518
 6291SOL     OW20769  11.100   1.591   9.137
 6291SOL    HW120770  11.106   1.629   9.050
 6291SOL    HW220771  11.028   1.527   9.131
 6292SOL     OW20772  12.260  11.211   5.688
 6292SOL    HW120773  12.296  11.243   5.770
 6292SOL    HW220774  12.190  11.151   5.714
 6293SOL     OW20775   5.292   3.552  10.071
 6293SOL    HW120776   5.255   3.624  10.020
 6293SOL    HW220777   5.223   3.524  10.130
 6294SOL     OW20778   7.826  12.900   5.104
 6294SOL    HW120779   7.730  12.900   5.096
 6294SOL    HW220780   7.854  12.979   5.057
 6295SOL     OW20781   9.545  12.282   8.809
 6295SOL    HW120782   9.466  12.297   8.861
 6295SOL    HW220783   9.513  12.235   8.732
 6296SOL     OW20784   4.645  12.374   1.428
 6296SOL    HW120785   4.663  12.464   1.455
 6296SOL    HW220786   4.550  12.367   1.430
 6297SOL     OW20787   4.414   6.617  13.402
 6297SOL    HW120788   4.501   6.656  13.396
 6297SOL    HW220789   4.355   6.692  13.415
 6298SOL     OW20790   4.586   8.478  13.704
 6298SOL    HW120791   4.610   8.559  13.749
 6298SOL    HW220792   4.667   8.426  13.704
 6299SOL     OW20793   3.913  13.162   5.522
 6299SOL    HW120794   3.848  13.095   5.499
 6299SOL    HW220795   3.907  13.169   5.617
 6300SOL     OW20796   7.863   7.812   1.257
 6300SOL    HW120797   7.889   7.726   1.223
 6300SOL    HW220798   7.866   7.869   1.181
 6301SOL     OW20799   2.163   0.312   5.346
 6301SOL    HW120800   2.164   0.233   5.399
 6301SOL    HW220801   2.071   0.323   5.321
 6302SOL     OW20802   6.120   3.822   1.620
 6302SOL    HW120803   6.134   3.871   1.701
 6302SOL    HW220804   6.208   3.808   1.586
 6303SOL     OW20805   9.263  10.590   9.061
 6303SOL    HW120806   9.193  10.650   9.084
 6303SOL    HW220807   9.253  10.517   9.122
 6304SOL     OW20808   4.895   9.055   4.258
 6304SOL    HW120809   4.872   9.141   4.223
 6304SOL    HW220810   4.904   8.999   4.181
 6305SOL     OW20811  14.357   9.174   4.796
 6305SOL    HW120812  14.298   9.245   4.822
 6305SOL    HW220813  14.387   9.198   4.709
 6306SOL     OW20814   0.520  10.933   3.271
 6306SOL    HW120815   0.534  10.973   3.357
 6306SOL    HW220816   0.426  10.940   3.256
 6307SOL     OW20817  10.640   9.725   5.931
 6307SOL    HW120818  10.692   9.661   5.883
 6307SOL    HW220819  10.562   9.676   5.959
 6308SOL     OW20820  10.768   9.732   3.635
 6308SOL    HW120821  10.756   9.638   3.621
 6308SOL    HW220822  10.727   9.773   3.560
 6309SOL     OW20823  12.527   8.777   1.237
 6309SOL    HW120824  12.491   8.861   1.267
 6309SOL    HW220825  12.620   8.783   1.258
 6310SOL     OW20826   0.103   9.068   2.935
 6310SOL    HW120827   0.052   9.148   2.923
 6310SOL    HW220828   0.070   9.008   2.868
 6311SOL     OW20829   6.200   3.529   0.806
 6311SOL    HW120830   6.221   3.436   0.809
 6311SOL    HW220831   6.175   3.545   0.715
 6312SOL     OW20832  12.723   3.183  12.216
 6312SOL    HW120833  12.804   3.174  12.165
 6312SOL    HW220834  12.748   3.235  12.292
 6313SOL     OW20835   7.569   1.125   3.820
 6313SOL    HW120836   7.537   1.205   3.779
 6313SOL    HW220837   7.490   1.073   3.835
 6314SOL     OW20838  11.485  14.573   0.062
 6314SOL    HW120839  11.416  14.629   0.026
 6314SOL    HW220840  11.480  14.493   0.009
 6315SOL     OW20841  12.664   1.710  13.092
 6315SOL    HW120842  12.573   1.735  13.078
 6315SOL    HW220843  12.682   1.734  13.183
 6316SOL     OW20844   4.116  13.672   2.280
 6316SOL    HW120845   4.023  13.666   2.301
 6316SOL    HW220846   4.122  13.744   2.218
 6317SOL     OW20847   5.081   8.423   9.276
 6317SOL    HW120848   5.100   8.358   9.344
 6317SOL    HW220849   5.164   8.470   9.265
 6318SOL     OW20850   9.953  10.545   1.621
 6318SOL    HW120851   9.904  10.566   1.701
 6318SOL    HW220852   9.937  10.619   1.563
 6319SOL     OW20853   5.449  14.227   9.632
 6319SOL    HW120854   5.432  14.140   9.668
 6319SOL    HW220855   5.490  14.211   9.547
 6320SOL     OW20856   9.895   0.599   6.061
 6320SOL    HW120857   9.849   0.526   6.019
 6320SOL    HW220858   9.987   0.587   6.037
 6321SOL     OW20859   2.541  13.843   6.164
 6321SOL    HW120860   2.571  13.753   6.151
 6321SOL    HW220861   2.452  13.844   6.126
 6322SOL     OW20862  10.226  14.784   6.693
 6322SOL    HW120863  10.169  14.844   6.647
 6322SOL    HW220864  10.166  14.719   6.732
 6323SOL     OW20865   5.414   0.084   4.597
 6323SOL    HW120866   5.434   0.172   4.629
 6323SOL    HW220867   5.412   0.029   4.675
 6324SOL     OW20868  10.355   3.859   9.388
 6324SOL    HW120869  10.434   3.853   9.333
 6324SOL    HW220870  10.283   3.842   9.327
 6325SOL     OW20871   8.347  14.050  14.757
 6325SOL    HW120872   8.264  14.013  14.788
 6325SOL    HW220873   8.322  14.122  14.700
 6326SOL     OW20874  11.262   4.145  11.740
 6326SOL    HW120875  11.257   4.212  11.808
 6326SOL    HW220876  11.179   4.152  11.693
 6327SOL     OW20877   0.211   1.172  14.758
 6327SOL    HW120878   0.171   1.085  14.760
 6327SOL    HW220879   0.160   1.223  14.821
 6328SOL     OW20880  13.526   6.686   4.663
 6328SOL    HW120881  13.473   6.688   4.743
 6328SOL    HW220882  13.463   6.693   4.592
 6329SOL     OW20883   8.102   7.651   3.883
 6329SOL    HW120884   8.035   7.622   3.945
 6329SOL    HW220885   8.153   7.573   3.864
 6330SOL     OW20886   5.127   8.828  14.245
 6330SOL    HW120887   5.134   8.742  14.205
 6330SOL    HW220888   5.190   8.882  14.197
 6331SOL     OW20889   4.304  11.661   1.513
 6331SOL    HW120890   4.300  11.708   1.596
 6331SOL    HW220891   4.289  11.729   1.447
 6332SOL     OW20892   4.510  11.052  12.516
 6332SOL    HW120893   4.567  10.983  12.550
 6332SOL    HW220894   4.478  11.098  12.594
 6333SOL     OW20895   7.920  12.397   5.448
 6333SOL    HW120896   7.936  12.475   5.501
 6333SOL    HW220897   7.971  12.411   5.368
 6334SOL     OW20898   4.392   3.823  14.267
 6334SOL    HW120899   4.328   3.767  14.223
 6334SOL    HW220900   4.354   3.839  14.353
 6335SOL     OW20901   3.419   8.097  12.276
 6335SOL    HW120902   3.478   8.040  12.227
 6335SOL    HW220903   3.475   8.141  12.341
 6336SOL     OW20904   0.191   4.249   8.486
 6336SOL    HW120905   0.261   4.293   8.534
 6336SOL    HW220906   0.232   4.221   8.405
 6337SOL     OW20907  10.490   1.151   2.435
 6337SOL    HW120908  10.585   1.163   2.424
 6337SOL    HW220909  10.464   1.096   2.361
 6338SOL     OW20910  12.898   2.357  11.135
 6338SOL    HW120911  12.880   2.329  11.045
 6338SOL    HW220912  12.880   2.280  11.189
 6339SOL     OW20913   2.604   7.175   9.563
 6339SOL    HW120914   2.650   7.240   9.511
 6339SOL    HW220915   2.527   7.221   9.597
 6340SOL     OW20916   0.678  13.590   7.959
 6340SOL    HW120917   0.640  13.663   8.008
 6340SOL    HW220918   0.711  13.530   8.026
 6341SOL     OW20919   4.326   0.917   0.412
 6341SOL    HW120920   4.341   0.982   0.343
 6341SOL    HW220921   4.310   0.969   0.491
 6342SOL     OW20922   3.463   8.176   5.825
 6342SOL    HW120923   3.370   8.179   5.847
 6342SOL    HW220924   3.470   8.232   5.748
 6343SOL     OW20925   2.293   7.931   8.312
 6343SOL    HW120926   2.335   7.898   8.233
 6343SOL    HW220927   2.201   7.908   8.303
 6344SOL     OW20928   7.767   3.312   0.065
 6344SOL    HW120929   7.863   3.316   0.066
 6344SOL    HW220930   7.743   3.302   0.157
 6345SOL     OW20931   9.415   9.209  10.597
 6345SOL    HW120932   9.373   9.281  10.644
 6345SOL    HW220933   9.381   9.130  10.640
 6346SOL     OW20934  11.126   4.911   1.862
 6346SOL    HW120935  11.160   4.823   1.875
 6346SOL    HW220936  11.030   4.900   1.863
 6347SOL     OW20937   1.164   6.929   2.829
 6347SOL    HW120938   1.130   6.998   2.885
 6347SOL    HW220939   1.087   6.890   2.788
 6348SOL     OW20940  11.663   0.174  12.921
 6348SOL    HW120941  11.607   0.106  12.959
 6348SOL    HW220942  11.742   0.173  12.974
 6349SOL     OW20943   4.222   4.361   6.332
 6349SOL    HW120944   4.290   4.396   6.274
 6349SOL    HW220945   4.190   4.283   6.287
 6350SOL     OW20946   4.348   1.309   4.470
 6350SOL    HW120947   4.438   1.282   4.487
 6350SOL    HW220948   4.298   1.275   4.544
 6351SOL     OW20949  13.453  14.325  10.560
 6351SOL    HW120950  13.472  14.278  10.479
 6351SOL    HW220951  13.358  14.334  10.561
 6352SOL     OW20952  14.213  12.001   2.019
 6352SOL    HW120953  14.306  12.020   2.033
 6352SOL    HW220954  14.168  12.043   2.093
 6353SOL     OW20955  10.214   2.584  10.665
 6353SOL    HW120956  10.270   2.650  10.623
 6353SOL    HW220957  10.182   2.627  10.744
 6354SOL     OW20958   3.952  13.652   9.070
 6354SOL    HW120959   4.025  13.705   9.104
 6354SOL    HW220960   3.876  13.682   9.119
 6355SOL     OW20961   4.047   4.801   8.446
 6355SOL    HW120962   3.957   4.835   8.456
 6355SOL    HW220963   4.059   4.790   8.352
 6356SOL     OW20964  13.420   5.865  11.317
 6356SOL    HW120965  13.489   5.907  11.368
 6356SOL    HW220966  13.419   5.774  11.346
 6357SOL     OW20967   4.362  12.718   0.126
 6357SOL    HW120968   4.319  12.800   0.147
 6357SOL    HW220969   4.312  12.651   0.172
 6358SOL     OW20970  14.356   4.392  10.818
 6358SOL    HW120971  14.417   4.447  10.866
 6358SOL    HW220972  14.270   4.414  10.854
 6359SOL     OW20973   1.585   4.323   7.300
 6359SOL    HW120974   1.620   4.235   7.310
 6359SOL    HW220975   1.622   4.355   7.218
 6360SOL     OW20976  11.123   5.362   6.514
 6360SOL    HW120977  11.064   5.303   6.560
 6360SOL    HW220978  11.081   5.448   6.521
 6361SOL     OW20979   4.450  10.276  11.713
 6361SOL    HW120980   4.379  10.320  11.759
 6361SOL    HW220981   4.433  10.293  11.620
 6362SOL     OW20982   3.157   1.403   9.161
 6362SOL    HW120983   3.131   1.319   9.200
 6362SOL    HW220984   3.222   1.379   9.095
 6363SOL     OW20985  11.312   6.279  11.064
 6363SOL    HW120986  11.381   6.213  11.067
 6363SOL    HW220987  11.231   6.230  11.082
 6364SOL     OW20988   0.728   1.124   8.339
 6364SOL    HW120989   0.819   1.094   8.332
 6364SOL    HW220990   0.731   1.215   8.307
 6365SOL     OW20991  12.067   7.713   8.440
 6365SOL    HW120992  11.977   7.727   8.411
 6365SOL    HW220993  12.086   7.622   8.417
 6366SOL     OW20994   4.171  11.344   7.666
 6366SOL    HW120995   4.133  11.334   7.753
 6366SOL    HW220996   4.265  11.349   7.681
 6367SOL     OW20997   5.528   9.667  10.137
 6367SOL    HW120998   5.611   9.714  10.146
 6367SOL    HW220999   5.461   9.731  10.162
 6368SOL     OW21000   2.068  11.608  14.371
 6368SOL    HW121001   2.011  11.656  14.431
 6368SOL    HW221002   2.091  11.528  14.418
 6369SOL     OW21003   4.009   3.024   9.268
 6369SOL    HW121004   4.054   3.073   9.199
 6369SOL    HW221005   3.928   2.994   9.227
 6370SOL     OW21006   5.470   0.900   5.965
 6370SOL    HW121007   5.459   0.934   6.054
 6370SOL    HW221008   5.438   0.970   5.909
 6371SOL     OW21009  14.444  10.408   2.496
 6371SOL    HW121010  14.470  10.497   2.523
 6371SOL    HW221011  14.486  10.396   2.411
 6372SOL     OW21012   3.943   4.272   1.824
 6372SOL    HW121013   3.856   4.278   1.864
 6372SOL    HW221014   3.996   4.227   1.889
 6373SOL     OW21015   8.818   2.302  11.047
 6373SOL    HW121016   8.847   2.295  10.956
 6373SOL    HW221017   8.780   2.390  11.053
 6374SOL     OW21018  12.327   8.964   4.981
 6374SOL    HW121019  12.395   8.931   4.922
 6374SOL    HW221020  12.300   8.888   5.032
 6375SOL     OW21021   6.034   0.032   5.161
 6375SOL    HW121022   5.980  14.839   5.112
 6375SOL    HW221023   6.029   0.001   5.252
 6376SOL     OW21024   5.316   6.089  10.191
 6376SOL    HW121025   5.224   6.115  10.190
 6376SOL    HW221026   5.354   6.137  10.264
 6377SOL     OW21027   5.422   9.167   0.142
 6377SOL    HW121028   5.397   9.141   0.231
 6377SOL    HW221029   5.484   9.239   0.154
 6378SOL     OW21030   1.490   5.249   8.883
 6378SOL    HW121031   1.553   5.211   8.822
 6378SOL    HW221032   1.503   5.200   8.964
 6379SOL     OW21033   7.014  12.508   7.183
 6379SOL    HW121034   7.100  12.474   7.158
 6379SOL    HW221035   7.007  12.490   7.277
 6380SOL     OW21036   9.830   8.228   4.882
 6380SOL    HW121037   9.851   8.182   4.801
 6380SOL    HW221038   9.752   8.184   4.915
 6381SOL     OW21039   3.194  13.095   0.045
 6381SOL    HW121040   3.235  13.180   0.030
 6381SOL    HW221041   3.112  13.099  14.866
 6382SOL     OW21042   2.656  13.420  14.836
 6382SOL    HW121043   2.566  13.426  14.868
 6382SOL    HW221044   2.657  13.340  14.784
 6383SOL     OW21045   6.366  14.687   0.048
 6383SOL    HW121046   6.379  14.779   0.023
 6383SOL    HW221047   6.273  14.682   0.070
 6384SOL     OW21048   2.621  10.218   9.476
 6384SOL    HW121049   2.678  10.274   9.529
 6384SOL    HW221050   2.679  10.176   9.413
 6385SOL     OW21051   9.009  14.719   9.104
 6385SOL    HW121052   8.933  14.751   9.054
 6385SOL    HW221053   9.020  14.783   9.175
 6386SOL     OW21054  13.893   1.499   6.587
 6386SOL    HW121055  13.918   1.591   6.591
 6386SOL    HW221056  13.960   1.458   6.533
 6387SOL     OW21057   3.119   8.058   1.138
 6387SOL    HW121058   3.050   7.993   1.123
 6387SOL    HW221059   3.097   8.097   1.223
 6388SOL     OW21060   4.275   1.808  11.120
 6388SOL    HW121061   4.300   1.809  11.027
 6388SOL    HW221062   4.180   1.798  11.119
 6389SOL     OW21063   8.988   8.670   2.943
 6389SOL    HW121064   9.005   8.739   3.007
 6389SOL    HW221065   8.896   8.682   2.919
 6390SOL     OW21066   9.389   1.938   9.542
 6390SOL    HW121067   9.409   1.934   9.635
 6390SOL    HW221068   9.333   1.862   9.525
 6391SOL     OW21069   9.282  14.806  11.367
 6391SOL    HW121070   9.349   0.001  11.387
 6391SOL    HW221071   9.330  14.726  11.347
 6392SOL     OW21072   8.671   7.836   9.910
 6392SOL    HW121073   8.631   7.766   9.857
 6392SOL    HW221074   8.708   7.790   9.986
 6393SOL     OW21075   8.943  12.961  10.108
 6393SOL    HW121076   8.957  12.976  10.201
 6393SOL    HW221077   8.852  12.985  10.093
 6394SOL     OW21078   3.990  12.339   7.613
 6394SOL    HW121079   3.978  12.286   7.534
 6394SOL    HW221080   3.907  12.331   7.660
 6395SOL     OW21081  13.711  10.232  10.893
 6395SOL    HW121082  13.771  10.158  10.908
 6395SOL    HW221083  13.702  10.273  10.979
 6396SOL     OW21084  11.848  10.385   0.222
 6396SOL    HW121085  11.781  10.388   0.154
 6396SOL    HW221086  11.817  10.319   0.284
 6397SOL     OW21087   7.044   8.902   8.119
 6397SOL    HW121088   7.101   8.864   8.052
 6397SOL    HW221089   7.102   8.921   8.192
 6398SOL     OW21090   5.352  10.740   9.810
 6398SOL    HW121091   5.271  10.782   9.780
 6398SOL    HW221092   5.324  10.679   9.878
 6399SOL     OW21093   6.274   4.254  11.004
 6399SOL    HW121094   6.250   4.203  10.926
 6399SOL    HW221095   6.343   4.202  11.046
 6400SOL     OW21096   3.202  13.022   4.985
 6400SOL    HW121097   3.121  13.021   5.036
 6400SOL    HW221098   3.257  13.088   5.027
 6401SOL     OW21099   4.356   6.078  13.690
 6401SOL    HW121100   4.316   6.115  13.768
 6401SOL    HW221101   4.429   6.137  13.670
 6402SOL     OW21102  13.711   1.920   9.812
 6402SOL    HW121103  13.664   1.845   9.848
 6402SOL    HW221104  13.732   1.894   9.722
 6403SOL     OW21105   1.153  14.271   7.486
 6403SOL    HW121106   1.187  14.333   7.550
 6403SOL    HW221107   1.096  14.214   7.536
 6404SOL     OW21108   5.074   3.617   1.853
 6404SOL    HW121109   5.070   3.582   1.941
 6404SOL    HW221110   5.082   3.540   1.796
 6405SOL     OW21111   8.979   5.612  13.068
 6405SOL    HW121112   8.938   5.620  12.982
 6405SOL    HW221113   8.913   5.568  13.121
 6406SOL     OW21114  10.994  11.414   3.156
 6406SOL    HW121115  10.965  11.340   3.103
 6406SOL    HW221116  11.061  11.457   3.103
 6407SOL     OW21117   0.674   8.975   6.185
 6407SOL    HW121118   0.765   8.946   6.191
 6407SOL    HW221119   0.627   8.898   6.151
 6408SOL     OW21120  11.722  11.767  12.425
 6408SOL    HW121121  11.635  11.801  12.404
 6408SOL    HW221122  11.754  11.826  12.494
 6409SOL     OW21123  11.676   7.573  10.913
 6409SOL    HW121124  11.633   7.645  10.867
 6409SOL    HW221125  11.614   7.547  10.981
 6410SOL     OW21126   7.947   3.686  10.394
 6410SOL    HW121127   7.875   3.744  10.371
 6410SOL    HW221128   7.908   3.620  10.451
 6411SOL     OW21129   3.144   5.755  14.634
 6411SOL    HW121130   3.141   5.849  14.654
 6411SOL    HW221131   3.214   5.746  14.570
 6412SOL     OW21132   2.675  12.217   4.061
 6412SOL    HW121133   2.716  12.141   4.020
 6412SOL    HW221134   2.591  12.227   4.015
 6413SOL     OW21135   5.966   8.988   8.416
 6413SOL    HW121136   5.971   8.926   8.343
 6413SOL    HW221137   6.052   8.984   8.457
 6414SOL     OW21138   7.527   0.771   7.616
 6414SOL    HW121139   7.599   0.788   7.677
 6414SOL    HW221140   7.529   0.676   7.601
 6415SOL     OW21141   4.929   1.715   2.026
 6415SOL    HW121142   4.876   1.792   2.046
 6415SOL    HW221143   4.941   1.718   1.931
 6416SOL     OW21144   1.539   0.251   8.380
 6416SOL    HW121145   1.447   0.231   8.395
 6416SOL    HW221146   1.579   0.167   8.358
 6417SOL     OW21147   7.597  13.396  11.264
 6417SOL    HW121148   7.660  13.464  11.289
 6417SOL    HW221149   7.612  13.383  11.171
 6418SOL     OW21150  12.916   5.434  12.398
 6418SOL    HW121151  12.950   5.415  12.486
 6418SOL    HW221152  12.836   5.484  12.414
 6419SOL     OW21153  11.484  13.215   7.065
 6419SOL    HW121154  11.475  13.125   7.095
 6419SOL    HW221155  11.479  13.268   7.144
 6420SOL     OW21156  11.995  13.166  13.290
 6420SOL    HW121157  11.953  13.138  13.371
 6420SOL    HW221158  11.923  13.174  13.227
 6421SOL     OW21159   3.112   1.528  11.010
 6421SOL    HW121160   3.048   1.462  11.038
 6421SOL    HW221161   3.178   1.478  10.962
 6422SOL     OW21162   3.604   0.561   4.586
 6422SOL    HW121163   3.569   0.582   4.499
 6422SOL    HW221164   3.591   0.642   4.636
 6423SOL     OW21165  13.784  13.993   7.573
 6423SOL    HW121166  13.748  14.081   7.587
 6423SOL    HW221167  13.767  13.975   7.481
 6424SOL     OW21168   6.194  12.856   5.105
 6424SOL    HW121169   6.108  12.896   5.117
 6424SOL    HW221170   6.175  12.768   5.071
 6425SOL     OW21171   9.628  11.407  14.080
 6425SOL    HW121172   9.710  11.450  14.107
 6425SOL    HW221173   9.580  11.476  14.034
 6426SOL     OW21174  11.816   9.889   0.113
 6426SOL    HW121175  11.908   9.864   0.115
 6426SOL    HW221176  11.815   9.975   0.070
 6427SOL     OW21177   1.713   1.212  10.482
 6427SOL    HW121178   1.659   1.143  10.518
 6427SOL    HW221179   1.738   1.181  10.395
 6428SOL     OW21180  11.322   8.771   8.893
 6428SOL    HW121181  11.291   8.856   8.862
 6428SOL    HW221182  11.243   8.724   8.920
 6429SOL     OW21183   9.055   7.261  14.513
 6429SOL    HW121184   9.148   7.266  14.491
 6429SOL    HW221185   9.043   7.170  14.543
 6430SOL     OW21186   8.289   9.559   7.929
 6430SOL    HW121187   8.267   9.610   8.007
 6430SOL    HW221188   8.227   9.589   7.863
 6431SOL     OW21189   6.249  12.274   8.201
 6431SOL    HW121190   6.176  12.311   8.151
 6431SOL    HW221191   6.314  12.251   8.134
 6432SOL     OW21192   9.345   4.327   9.549
 6432SOL    HW121193   9.408   4.361   9.612
 6432SOL    HW221194   9.267   4.380   9.561
 6433SOL     OW21195   7.731   4.680   8.591
 6433SOL    HW121196   7.793   4.752   8.586
 6433SOL    HW221197   7.702   4.680   8.683
 6434SOL     OW21198   3.283  14.641   2.501
 6434SOL    HW121199   3.221  14.571   2.485
 6434SOL    HW221200   3.358  14.621   2.445
 6435SOL     OW21201  10.936   2.307   3.525
 6435SOL    HW121202  10.982   2.255   3.460
 6435SOL    HW221203  10.990   2.300   3.604
 6436SOL     OW21204   1.707   4.899   6.732
 6436SOL    HW121205   1.743   4.812   6.712
 6436SOL    HW221206   1.748   4.957   6.668
 6437SOL     OW21207   5.848   1.619   4.205
 6437SOL    HW121208   5.820   1.571   4.283
 6437SOL    HW221209   5.795   1.583   4.134
 6438SOL     OW21210   1.980   9.942  13.279
 6438SOL    HW121211   1.941   9.869  13.232
 6438SOL    HW221212   2.071   9.916  13.293
 6439SOL     OW21213   3.848  10.194  11.701
 6439SOL    HW121214   3.780  10.129  11.682
 6439SOL    HW221215   3.878  10.172  11.790
 6440SOL     OW21216   4.552   7.915   4.989
 6440SOL    HW121217   4.625   7.886   4.935
 6440SOL    HW221218   4.520   7.995   4.946
 6441SOL     OW21219  10.609   9.940  12.279
 6441SOL    HW121220  10.600  10.030  12.311
 6441SOL    HW221221  10.664   9.897  12.345
 6442SOL     OW21222  14.241  12.219   2.965
 6442SOL    HW121223  14.246  12.286   3.033
 6442SOL    HW221224  14.260  12.267   2.884
 6443SOL     OW21225   6.395   2.103   9.215
 6443SOL    HW121226   6.356   2.033   9.162
 6443SOL    HW221227   6.420   2.060   9.297
 6444SOL     OW21228  10.636   1.922   6.777
 6444SOL    HW121229  10.553   1.944   6.735
 6444SOL    HW221230  10.634   1.827   6.786
 6445SOL     OW21231   0.081   0.117   8.804
 6445SOL    HW121232   0.078   0.212   8.815
 6445SOL    HW221233   0.009   0.084   8.859
 6446SOL     OW21234   1.141   5.052   5.533
 6446SOL    HW121235   1.100   5.070   5.617
 6446SOL    HW221236   1.150   5.138   5.491
 6447SOL     OW21237   4.595  10.891   1.250
 6447SOL    HW121238   4.666  10.954   1.238
 6447SOL    HW221239   4.527  10.919   1.189
 6448SOL     OW21240   4.118  13.576  11.487
 6448SOL    HW121241   4.100  13.493  11.443
 6448SOL    HW221242   4.106  13.557  11.580
 6449SOL     OW21243   5.812  10.060   6.682
 6449SOL    HW121244   5.729  10.103   6.703
 6449SOL    HW221245   5.832  10.090   6.593
 6450SOL     OW21246   7.411  10.291   7.799
 6450SOL    HW121247   7.503  10.319   7.797
 6450SOL    HW221248   7.367  10.351   7.740
 6451SOL     OW21249  11.554   3.575  11.208
 6451SOL    HW121250  11.598   3.641  11.154
 6451SOL    HW221251  11.460   3.591  11.194
 6452SOL     OW21252   0.477   2.257   7.171
 6452SOL    HW121253   0.519   2.176   7.141
 6452SOL    HW221254   0.550   2.314   7.194
 6453SOL     OW21255  11.239  13.181   1.521
 6453SOL    HW121256  11.271  13.164   1.610
 6453SOL    HW221257  11.301  13.244   1.485
 6454SOL     OW21258   7.595   0.660  11.038
 6454SOL    HW121259   7.553   0.605  10.972
 6454SOL    HW221260   7.667   0.608  11.072
 6455SOL     OW21261   3.698  14.206   6.300
 6455SOL    HW121262   3.746  14.163   6.230
 6455SOL    HW221263   3.760  14.212   6.372
 6456SOL     OW21264   7.432   2.038  11.122
 6456SOL    HW121265   7.521   2.073  11.122
 6456SOL    HW221266   7.397   2.060  11.036
 6457SOL     OW21267   7.758   6.726   4.097
 6457SOL    HW121268   7.848   6.747   4.124
 6457SOL    HW221269   7.768   6.683   4.013
 6458SOL     OW21270  14.621   0.658   1.941
 6458SOL    HW121271  14.550   0.647   2.004
 6458SOL    HW221272  14.692   0.697   1.991
 6459SOL     OW21273   0.611   0.070  13.175
 6459SOL    HW121274   0.569   0.065  13.089
 6459SOL    HW221275   0.592   0.159  13.205
 6460SOL     OW21276   0.726   1.733   9.955
 6460SOL    HW121277   0.729   1.753   9.862
 6460SOL    HW221278   0.676   1.651   9.960
 6461SOL     OW21279   6.824  14.048  12.877
 6461SOL    HW121280   6.850  14.078  12.790
 6461SOL    HW221281   6.814  14.128  12.929
 6462SOL     OW21282   3.176   1.185   1.497
 6462SOL    HW121283   3.241   1.238   1.543
 6462SOL    HW221284   3.224   1.145   1.425
 6463SOL     OW21285   6.723  10.014   4.003
 6463SOL    HW121286   6.677   9.966   3.934
 6463SOL    HW221287   6.811   9.976   4.003
 6464SOL     OW21288   5.286   7.624   5.424
 6464SOL    HW121289   5.253   7.713   5.413
 6464SOL    HW221290   5.240   7.572   5.358
 6465SOL     OW21291   4.592  12.832   0.198
 6465SOL    HW121292   4.524  12.774   0.164
 6465SOL    HW221293   4.545  12.895   0.253
 6466SOL     OW21294   8.893  14.502  13.721
 6466SOL    HW121295   8.980  14.462  13.719
 6466SOL    HW221296   8.880  14.525  13.813
 6467SOL     OW21297   4.464   4.993   0.707
 6467SOL    HW121298   4.374   4.988   0.738
 6467SOL    HW221299   4.463   4.952   0.621
 6468SOL     OW21300   6.721   8.202  14.425
 6468SOL    HW121301   6.687   8.280  14.382
 6468SOL    HW221302   6.643   8.150  14.444
 6469SOL     OW21303  13.159   5.956   8.589
 6469SOL    HW121304  13.243   6.000   8.576
 6469SOL    HW221305  13.178   5.863   8.575
 6470SOL     OW21306  12.670   8.052  11.338
 6470SOL    HW121307  12.737   8.064  11.405
 6470SOL    HW221308  12.671   8.134  11.289
 6471SOL     OW21309   6.780  12.610   6.318
 6471SOL    HW121310   6.686  12.625   6.311
 6471SOL    HW221311   6.811  12.677   6.380
 6472SOL     OW21312   2.847  11.932   0.533
 6472SOL    HW121313   2.848  12.025   0.556
 6472SOL    HW221314   2.902  11.891   0.600
 6473SOL     OW21315   5.469   8.051   6.039
 6473SOL    HW121316   5.556   8.011   6.040
 6473SOL    HW221317   5.477   8.128   6.094
 6474SOL     OW21318   9.961   6.283  12.279
 6474SOL    HW121319   9.913   6.335  12.215
 6474SOL    HW221320   9.916   6.299  12.362
 6475SOL     OW21321   3.305   6.116   8.428
 6475SOL    HW121322   3.376   6.166   8.389
 6475SOL    HW221323   3.338   6.092   8.515
 6476SOL     OW21324   1.972   3.147  12.582
 6476SOL    HW121325   1.906   3.175  12.518
 6476SOL    HW221326   1.938   3.179  12.666
 6477SOL     OW21327   7.296   3.827   0.691
 6477SOL    HW121328   7.342   3.815   0.607
 6477SOL    HW221329   7.350   3.780   0.754
 6478SOL     OW21330   5.821   4.756   7.370
 6478SOL    HW121331   5.907   4.784   7.400
 6478SOL    HW221332   5.789   4.828   7.316
 6479SOL     OW21333   8.092   3.050   7.599
 6479SOL    HW121334   8.093   3.088   7.511
 6479SOL    HW221335   8.149   2.973   7.592
 6480SOL     OW21336   6.807   0.695   6.651
 6480SOL    HW121337   6.713   0.701   6.667
 6480SOL    HW221338   6.823   0.601   6.638
 6481SOL     OW21339  14.149   8.256   5.623
 6481SOL    HW121340  14.229   8.288   5.582
 6481SOL    HW221341  14.134   8.315   5.696
 6482SOL     OW21342   7.752   2.881   1.776
 6482SOL    HW121343   7.782   2.944   1.711
 6482SOL    HW221344   7.828   2.826   1.793
 6483SOL     OW21345   5.389  10.560   5.722
 6483SOL    HW121346   5.364  10.650   5.699
 6483SOL    HW221347   5.381  10.511   5.640
 6484SOL     OW21348  11.912   5.985   7.076
 6484SOL    HW121349  11.843   5.986   7.010
 6484SOL    HW221350  11.903   6.068   7.123
 6485SOL     OW21351   5.213   4.341   7.805
 6485SOL    HW121352   5.297   4.365   7.767
 6485SOL    HW221353   5.195   4.410   7.868
 6486SOL     OW21354   5.595  11.434  10.744
 6486SOL    HW121355   5.530  11.499  10.772
 6486SOL    HW221356   5.635  11.403  10.826
 6487SOL     OW21357   6.373   2.872   5.807
 6487SOL    HW121358   6.434   2.935   5.769
 6487SOL    HW221359   6.429   2.804   5.844
 6488SOL     OW21360   2.347  11.083   9.419
 6488SOL    HW121361   2.323  10.992   9.436
 6488SOL    HW221362   2.399  11.109   9.495
 6489SOL     OW21363  10.597  10.642  14.379
 6489SOL    HW121364  10.676  10.666  14.428
 6489SOL    HW221365  10.587  10.548  14.394
 6490SOL     OW21366   6.372  12.906   4.412
 6490SOL    HW121367   6.359  12.994   4.449
 6490SOL    HW221368   6.338  12.847   4.479
 6491SOL     OW21369   6.045  10.304  13.496
 6491SOL    HW121370   6.118  10.357  13.465
 6491SOL    HW221371   6.008  10.355  13.568
 6492SOL     OW21372   0.268   0.972   8.474
 6492SOL    HW121373   0.259   0.960   8.568
 6492SOL    HW221374   0.345   0.920   8.450
 6493SOL     OW21375   8.342  11.669   4.208
 6493SOL    HW121376   8.278  11.674   4.279
 6493SOL    HW221377   8.363  11.575   4.202
 6494SOL     OW21378   2.388   2.463   1.822
 6494SOL    HW121379   2.403   2.373   1.795
 6494SOL    HW221380   2.463   2.484   1.879
 6495SOL     OW21381  14.462   7.902  12.428
 6495SOL    HW121382  14.423   7.814  12.431
 6495SOL    HW221383  14.534   7.893  12.365
 6496SOL     OW21384  13.161   2.521   9.433
 6496SOL    HW121385  13.232   2.564   9.385
 6496SOL    HW221386  13.089   2.515   9.371
 6497SOL     OW21387   6.808  13.914   7.623
 6497SOL    HW121388   6.795  13.831   7.577
 6497SOL    HW221389   6.732  13.966   7.599
 6498SOL     OW21390  13.957   8.836  10.519
 6498SOL    HW121391  13.875   8.847  10.472
 6498SOL    HW221392  13.954   8.746  10.552
 6499SOL     OW21393  13.161   4.222   4.880
 6499SOL    HW121394  13.164   4.142   4.933
 6499SOL    HW221395  13.191   4.194   4.793
 6500SOL     OW21396   9.258   0.655   1.212
 6500SOL    HW121397   9.187   0.634   1.151
 6500SOL    HW221398   9.217   0.656   1.298
 6501SOL     OW21399  14.657  10.920   2.317
 6501SOL    HW121400  14.659  10.921   2.222
 6501SOL    HW221401  14.563  10.921   2.339
 6502SOL     OW21402   3.093   7.672   9.862
 6502SOL    HW121403   3.155   7.653   9.791
 6502SOL    HW221404   3.143   7.725   9.924
 6503SOL     OW21405   5.247   6.808  12.810
 6503SOL    HW121406   5.255   6.795  12.716
 6503SOL    HW221407   5.329   6.775  12.846
 6504SOL     OW21408   8.884   2.789   8.330
 6504SOL    HW121409   8.832   2.732   8.274
 6504SOL    HW221410   8.828   2.807   8.405
 6505SOL     OW21411   6.317   7.152   7.873
 6505SOL    HW121412   6.314   7.154   7.968
 6505SOL    HW221413   6.410   7.149   7.852
 6506SOL     OW21414   1.182   6.303   5.081
 6506SOL    HW121415   1.181   6.385   5.130
 6506SOL    HW221416   1.240   6.245   5.131
 6507SOL     OW21417   0.386   4.337  10.436
 6507SOL    HW121418   0.357   4.398  10.368
 6507SOL    HW221419   0.349   4.252  10.409
 6508SOL     OW21420   8.984  14.715   5.212
 6508SOL    HW121421   8.972  14.804   5.179
 6508SOL    HW221422   9.074  14.714   5.246
 6509SOL     OW21423   5.401   6.808   5.504
 6509SOL    HW121424   5.335   6.756   5.458
 6509SOL    HW221425   5.444   6.859   5.435
 6510SOL     OW21426   1.321   7.173  13.154
 6510SOL    HW121427   1.258   7.102  13.146
 6510SOL    HW221428   1.338   7.201  13.064
 6511SOL     OW21429  13.131   4.034   6.882
 6511SOL    HW121430  13.044   3.999   6.865
 6511SOL    HW221431  13.191   3.963   6.857
 6512SOL     OW21432   5.625   3.845  14.015
 6512SOL    HW121433   5.717   3.854  13.993
 6512SOL    HW221434   5.601   3.758  13.982
 6513SOL     OW21435   5.019   2.619  10.738
 6513SOL    HW121436   4.995   2.557  10.807
 6513SOL    HW221437   5.039   2.700  10.785
 6514SOL     OW21438   7.356   4.422   3.883
 6514SOL    HW121439   7.261   4.409   3.885
 6514SOL    HW221440   7.367   4.517   3.879
 6515SOL     OW21441  12.685  12.222   1.370
 6515SOL    HW121442  12.616  12.285   1.350
 6515SOL    HW221443  12.637  12.142   1.395
 6516SOL     OW21444   2.087   8.786  13.804
 6516SOL    HW121445   2.076   8.693  13.786
 6516SOL    HW221446   2.021   8.806  13.870
 6517SOL     OW21447   4.269   7.038   8.917
 6517SOL    HW121448   4.218   7.036   8.998
 6517SOL    HW221449   4.256   6.952   8.877
 6518SOL     OW21450  13.856   0.126  13.459
 6518SOL    HW121451  13.949   0.121  13.438
 6518SOL    HW221452  13.812   0.116  13.374
 6519SOL     OW21453  10.509  12.824   2.063
 6519SOL    HW121454  10.572  12.756   2.036
 6519SOL    HW221455  10.448  12.829   1.990
 6520SOL     OW21456   0.459  12.334   1.212
 6520SOL    HW121457   0.424  12.392   1.145
 6520SOL    HW221458   0.486  12.394   1.283
 6521SOL     OW21459   9.967   5.957  10.672
 6521SOL    HW121460   9.913   5.973  10.594
 6521SOL    HW221461  10.055   5.981  10.646
 6522SOL     OW21462  11.161   8.007   8.420
 6522SOL    HW121463  11.087   7.958   8.385
 6522SOL    HW221464  11.124   8.061   8.490
 6523SOL     OW21465   3.080   9.840  10.465
 6523SOL    HW121466   3.126   9.837  10.549
 6523SOL    HW221467   3.090   9.752  10.429
 6524SOL     OW21468   1.471   6.269   6.670
 6524SOL    HW121469   1.463   6.363   6.681
 6524SOL    HW221470   1.546   6.258   6.612
 6525SOL     OW21471   1.905   3.793   2.042
 6525SOL    HW121472   1.898   3.818   1.950
 6525SOL    HW221473   1.872   3.704   2.045
 6526SOL     OW21474  14.568   6.700   7.742
 6526SOL    HW121475  14.534   6.708   7.831
 6526SOL    HW221476  14.538   6.615   7.712
 6527SOL     OW21477  14.110  14.607   0.219
 6527SOL    HW121478  14.164  14.686   0.215
 6527SOL    HW221479  14.031  14.630   0.169
 6528SOL     OW21480  14.794  13.488  12.359
 6528SOL    HW121481   0.003  13.478  12.412
 6528SOL    HW221482  14.729  13.526  12.418
 6529SOL     OW21483   7.888  14.257   0.563
 6529SOL    HW121484   7.838  14.211   0.495
 6529SOL    HW221485   7.840  14.339   0.576
 6530SOL     OW21486  11.193   1.082   2.786
 6530SOL    HW121487  11.219   1.140   2.715
 6530SOL    HW221488  11.101   1.062   2.769
 6531SOL     OW21489   7.128  11.424   1.660
 6531SOL    HW121490   7.037  11.420   1.689
 6531SOL    HW221491   7.125  11.478   1.581
 6532SOL     OW21492   3.237   2.281   6.713
 6532SOL    HW121493   3.196   2.349   6.660
 6532SOL    HW221494   3.290   2.330   6.777
 6533SOL     OW21495   1.923   1.823   6.048
 6533SOL    HW121496   1.833   1.856   6.048
 6533SOL    HW221497   1.974   1.891   6.092
 6534SOL     OW21498  14.405  11.131   7.997
 6534SOL    HW121499  14.459  11.209   8.015
 6534SOL    HW221500  14.374  11.144   7.907
 6535SOL     OW21501   2.774   9.576  10.164
 6535SOL    HW121502   2.829   9.642  10.121
 6535SOL    HW221503   2.814   9.492  10.141
 6536SOL     OW21504   6.276  14.278  13.759
 6536SOL    HW121505   6.306  14.214  13.695
 6536SOL    HW221506   6.185  14.294  13.737
 6537SOL     OW21507   2.628  13.078   5.933
 6537SOL    HW121508   2.623  13.169   5.961
 6537SOL    HW221509   2.689  13.079   5.859
 6538SOL     OW21510   2.400   7.594   5.259
 6538SOL    HW121511   2.384   7.538   5.335
 6538SOL    HW221512   2.314   7.614   5.224
 6539SOL     OW21513   0.573   4.564   5.205
 6539SOL    HW121514   0.477   4.566   5.215
 6539SOL    HW221515   0.600   4.487   5.255
 6540SOL     OW21516  13.616   2.390   8.136
 6540SOL    HW121517  13.682   2.413   8.071
 6540SOL    HW221518  13.536   2.434   8.106
 6541SOL     OW21519  10.870   0.922   6.656
 6541SOL    HW121520  10.894   0.837   6.620
 6541SOL    HW221521  10.918   0.985   6.602
 6542SOL     OW21522  11.756   3.927   7.296
 6542SOL    HW121523  11.785   3.841   7.267
 6542SOL    HW221524  11.724   3.914   7.385
 6543SOL     OW21525   1.351   3.318   1.362
 6543SOL    HW121526   1.439   3.329   1.327
 6543SOL    HW221527   1.293   3.356   1.296
 6544SOL     OW21528   8.857  12.265   8.748
 6544SOL    HW121529   8.776  12.314   8.766
 6544SOL    HW221530   8.914  12.329   8.706
 6545SOL     OW21531   2.461  12.050   4.535
 6545SOL    HW121532   2.512  12.111   4.482
 6545SOL    HW221533   2.444  11.976   4.477
 6546SOL     OW21534   6.866  11.391   5.654
 6546SOL    HW121535   6.933  11.353   5.711
 6546SOL    HW221536   6.902  11.476   5.628
 6547SOL     OW21537   7.178   7.604   9.876
 6547SOL    HW121538   7.269   7.633   9.874
 6547SOL    HW221539   7.141   7.634   9.793
 6548SOL     OW21540  12.908   2.471   2.059
 6548SOL    HW121541  12.840   2.432   2.114
 6548SOL    HW221542  12.935   2.401   2.000
 6549SOL     OW21543  11.837   4.186  10.887
 6549SOL    HW121544  11.881   4.263  10.850
 6549SOL    HW221545  11.752   4.219  10.916
 6550SOL     OW21546  12.068   6.455   1.992
 6550SOL    HW121547  12.084   6.361   1.988
 6550SOL    HW221548  11.972   6.463   1.992
 6551SOL     OW21549  14.781   0.377   3.726
 6551SOL    HW121550  14.857   0.423   3.691
 6551SOL    HW221551  14.807   0.350   3.814
 6552SOL     OW21552  10.565  10.078   7.688
 6552SOL    HW121553  10.622  10.074   7.765
 6552SOL    HW221554  10.588  10.000   7.637
 6553SOL     OW21555   5.809   5.677  12.319
 6553SOL    HW121556   5.804   5.597  12.372
 6553SOL    HW221557   5.795   5.748  12.381
 6554SOL     OW21558  10.350   9.247   0.430
 6554SOL    HW121559  10.410   9.286   0.494
 6554SOL    HW221560  10.344   9.155   0.457
 6555SOL     OW21561   9.892   1.573   7.672
 6555SOL    HW121562   9.881   1.625   7.592
 6555SOL    HW221563   9.818   1.599   7.727
 6556SOL     OW21564  12.518   0.328   4.930
 6556SOL    HW121565  12.556   0.269   4.865
 6556SOL    HW221566  12.506   0.272   5.007
 6557SOL     OW21567   1.487  12.837   1.693
 6557SOL    HW121568   1.412  12.848   1.635
 6557SOL    HW221569   1.555  12.892   1.656
 6558SOL     OW21570   6.068  14.796  11.995
 6558SOL    HW121571   6.068  14.742  11.916
 6558SOL    HW221572   6.039   0.013  11.967
 6559SOL     OW21573  10.559   1.612   7.720
 6559SOL    HW121574  10.514   1.537   7.680
 6559SOL    HW221575  10.516   1.624   7.804
 6560SOL     OW21576   6.144   7.401   9.000
 6560SOL    HW121577   6.172   7.358   8.919
 6560SOL    HW221578   6.065   7.354   9.026
 6561SOL     OW21579  14.327  14.776  11.526
 6561SOL    HW121580  14.413  14.784  11.566
 6561SOL    HW221581  14.316  14.856  11.475
 6562SOL     OW21582  11.382   2.158   3.571
 6562SOL    HW121583  11.323   2.185   3.500
 6562SOL    HW221584  11.465   2.138   3.527
 6563SOL     OW21585   9.113   7.720  12.943
 6563SOL    HW121586   9.180   7.772  12.898
 6563SOL    HW221587   9.037   7.777  12.947
 6564SOL     OW21588   6.890   8.032   9.811
 6564SOL    HW121589   6.962   8.038   9.874
 6564SOL    HW221590   6.831   8.103   9.835
 6565SOL     OW21591   1.881   3.327   6.809
 6565SOL    HW121592   1.945   3.307   6.740
 6565SOL    HW221593   1.864   3.420   6.800
 6566SOL     OW21594  14.417  12.771  13.868
 6566SOL    HW121595  14.427  12.830  13.942
 6566SOL    HW221596  14.498  12.719  13.868
 6567SOL     OW21597   8.927   5.058  10.922
 6567SOL    HW121598   8.865   5.036  10.991
 6567SOL    HW221599   8.954   4.974  10.886
 6568SOL     OW21600   9.893  12.574   5.336
 6568SOL    HW121601   9.804  12.537   5.336
 6568SOL    HW221602   9.947  12.506   5.295
 6569SOL     OW21603   0.033  10.906  11.945
 6569SOL    HW121604  14.827  10.948  11.986
 6569SOL    HW221605   0.025  10.814  11.969
 6570SOL     OW21606   6.313   4.502   2.389
 6570SOL    HW121607   6.223   4.473   2.377
 6570SOL    HW221608   6.326   4.569   2.322
 6571SOL     OW21609  12.049  11.152  12.445
 6571SOL    HW121610  12.046  11.084  12.377
 6571SOL    HW221611  12.130  11.200  12.427
 6572SOL     OW21612   4.499   7.551   9.655
 6572SOL    HW121613   4.533   7.604   9.584
 6572SOL    HW221614   4.573   7.540   9.715
 6573SOL     OW21615  10.149   8.840   4.518
 6573SOL    HW121616  10.150   8.853   4.424
 6573SOL    HW221617  10.205   8.910   4.553
 6574SOL     OW21618   9.707   7.461   9.497
 6574SOL    HW121619   9.724   7.521   9.424
 6574SOL    HW221620   9.621   7.425   9.479
 6575SOL     OW21621  14.135   3.203   7.058
 6575SOL    HW121622  14.216   3.180   7.101
 6575SOL    HW221623  14.069   3.144   7.095
 6576SOL     OW21624   9.202   5.068  12.609
 6576SOL    HW121625   9.162   5.126  12.544
 6576SOL    HW221626   9.129   5.039  12.664
 6577SOL     OW21627   7.858   4.711   5.151
 6577SOL    HW121628   7.938   4.762   5.141
 6577SOL    HW221629   7.861   4.680   5.242
 6578SOL     OW21630   9.946   8.581  10.302
 6578SOL    HW121631  10.030   8.624  10.284
 6578SOL    HW221632   9.904   8.574  10.216
 6579SOL     OW21633  13.485   7.463   1.101
 6579SOL    HW121634  13.455   7.373   1.116
 6579SOL    HW221635  13.409   7.508   1.065
 6580SOL     OW21636  13.740   0.870  12.256
 6580SOL    HW121637  13.807   0.915  12.204
 6580SOL    HW221638  13.708   0.800  12.199
 6581SOL     OW21639   6.775  13.522   3.412
 6581SOL    HW121640   6.870  13.527   3.419
 6581SOL    HW221641   6.743  13.558   3.496
 6582SOL     OW21642   8.457  12.240   8.357
 6582SOL    HW121643   8.450  12.241   8.262
 6582SOL    HW221644   8.509  12.162   8.377
 6583SOL     OW21645   3.576   9.945   7.912
 6583SOL    HW121646   3.495   9.970   7.957
 6583SOL    HW221647   3.616   9.880   7.970
 6584SOL     OW21648  12.346   5.941  14.393
 6584SOL    HW121649  12.322   5.869  14.451
 6584SOL    HW221650  12.262   5.970  14.356
 6585SOL     OW21651   2.822   4.873   8.102
 6585SOL    HW121652   2.844   4.895   8.012
 6585SOL    HW221653   2.771   4.948   8.134
 6586SOL     OW21654   2.481  12.041   7.975
 6586SOL    HW121655   2.415  11.982   7.937
 6586SOL    HW221656   2.429  12.107   8.022
 6587SOL     OW21657  13.520   9.904  13.775
 6587SOL    HW121658  13.609   9.917  13.743
 6587SOL    HW221659  13.480   9.992  13.771
 6588SOL     OW21660   2.765   5.526   2.413
 6588SOL    HW121661   2.842   5.577   2.385
 6588SOL    HW221662   2.795   5.435   2.412
 6589SOL     OW21663  12.129   8.914   4.303
 6589SOL    HW121664  12.064   8.953   4.363
 6589SOL    HW221665  12.082   8.906   4.220
 6590SOL     OW21666   7.224   5.238  13.855
 6590SOL    HW121667   7.196   5.281  13.936
 6590SOL    HW221668   7.313   5.270  13.841
 6591SOL     OW21669   8.186   4.503  14.416
 6591SOL    HW121670   8.093   4.515  14.402
 6591SOL    HW221671   8.192   4.441  14.489
 6592SOL     OW21672   4.536   3.096  13.270
 6592SOL    HW121673   4.574   3.184  13.278
 6592SOL    HW221674   4.448   3.111  13.237
 6593SOL     OW21675   9.720  10.245  10.694
 6593SOL    HW121676   9.689  10.270  10.781
 6593SOL    HW221677   9.781  10.314  10.669
 6594SOL     OW21678  13.188   4.579  11.833
 6594SOL    HW121679  13.126   4.628  11.888
 6594SOL    HW221680  13.177   4.488  11.859
 6595SOL     OW21681   9.471   9.941   7.443
 6595SOL    HW121682   9.549   9.993   7.425
 6595SOL    HW221683   9.434   9.980   7.522
 6596SOL     OW21684   9.754  12.075   2.858
 6596SOL    HW121685   9.774  11.987   2.891
 6596SOL    HW221686   9.772  12.071   2.764
 6597SOL     OW21687   7.266   2.208  13.751
 6597SOL    HW121688   7.207   2.213  13.675
 6597SOL    HW221689   7.334   2.273  13.733
 6598SOL     OW21690   7.878   0.033   7.677
 6598SOL    HW121691   7.872   0.114   7.627
 6598SOL    HW221692   7.904   0.061   7.765
 6599SOL     OW21693  14.503   4.683   6.772
 6599SOL    HW121694  14.446   4.608   6.789
 6599SOL    HW221695  14.568   4.681   6.843
 6600SOL     OW21696   5.008  14.508  12.607
 6600SOL    HW121697   4.949  14.441  12.642
 6600SOL    HW221698   5.080  14.459  12.569
 6601SOL     OW21699  12.500   9.648   2.885
 6601SOL    HW121700  12.548   9.617   2.808
 6601SOL    HW221701  12.454   9.726   2.855
 6602SOL     OW21702   8.835   6.663  11.446
 6602SOL    HW121703   8.761   6.607  11.424
 6602SOL    HW221704   8.798   6.731  11.502
 6603SOL     OW21705   8.631   7.205   9.256
 6603SOL    HW121706   8.647   7.112   9.239
 6603SOL    HW221707   8.686   7.250   9.192
 6604SOL     OW21708   4.567   4.030   7.149
 6604SOL    HW121709   4.493   4.090   7.138
 6604SOL    HW221710   4.613   4.063   7.226
 6605SOL     OW21711  14.787   6.048   4.655
 6605SOL    HW121712  14.817   6.097   4.732
 6605SOL    HW221713  14.809   5.957   4.674
 6606SOL     OW21714   7.673   5.348   0.956
 6606SOL    HW121715   7.693   5.294   1.033
 6606SOL    HW221716   7.578   5.348   0.951
 6607SOL     OW21717   2.123   9.564   7.513
 6607SOL    HW121718   2.085   9.645   7.479
 6607SOL    HW221719   2.185   9.593   7.580
 6608SOL     OW21720  13.357   3.720   9.346
 6608SOL    HW121721  13.324   3.760   9.427
 6608SOL    HW221722  13.428   3.662   9.374
 6609SOL     OW21723  12.485   5.551   8.166
 6609SOL    HW121724  12.397   5.513   8.163
 6609SOL    HW221725  12.470   5.644   8.186
 6610SOL     OW21726   7.499   2.307   7.930
 6610SOL    HW121727   7.564   2.352   7.984
 6610SOL    HW221728   7.528   2.320   7.840
 6611SOL     OW21729   6.866  10.594  10.209
 6611SOL    HW121730   6.827  10.677  10.235
 6611SOL    HW221731   6.810  10.562  10.138
 6612SOL     OW21732   8.481   2.828  11.969
 6612SOL    HW121733   8.441   2.744  11.946
 6612SOL    HW221734   8.575   2.810  11.968
 6613SOL     OW21735   8.924   3.192   3.420
 6613SOL    HW121736   8.860   3.253   3.456
 6613SOL    HW221737   8.999   3.198   3.480
 6614SOL     OW21738  13.853   4.687  14.808
 6614SOL    HW121739  13.809   4.719   0.017
 6614SOL    HW221740  13.941   4.724  14.813
 6615SOL     OW21741  13.877   7.324   3.221
 6615SOL    HW121742  13.940   7.252   3.216
 6615SOL    HW221743  13.793   7.282   3.242
 6616SOL     OW21744  11.861   6.844  10.745
 6616SOL    HW121745  11.836   6.916  10.804
 6616SOL    HW221746  11.954   6.858  10.727
 6617SOL     OW21747  12.484   8.412  14.640
 6617SOL    HW121748  12.500   8.483  14.578
 6617SOL    HW221749  12.445   8.343  14.587
 6618SOL     OW21750  13.734   9.768   5.240
 6618SOL    HW121751  13.640   9.755   5.231
 6618SOL    HW221752  13.743   9.838   5.305
 6619SOL     OW21753  12.852   6.375   1.399
 6619SOL    HW121754  12.839   6.392   1.305
 6619SOL    HW221755  12.887   6.458   1.433
 6620SOL     OW21756  14.273   6.076   9.261
 6620SOL    HW121757  14.326   6.112   9.332
 6620SOL    HW221758  14.334   6.063   9.189
 6621SOL     OW21759   6.431   8.519   6.660
 6621SOL    HW121760   6.416   8.610   6.635
 6621SOL    HW221761   6.362   8.470   6.615
 6622SOL     OW21762   6.092   1.527  13.801
 6622SOL    HW121763   6.087   1.622  13.815
 6622SOL    HW221764   6.045   1.490  13.876
 6623SOL     OW21765   5.719  13.982  10.649
 6623SOL    HW121766   5.699  13.906  10.704
 6623SOL    HW221767   5.663  14.051  10.683
 6624SOL     OW21768   7.633   1.850   9.797
 6624SOL    HW121769   7.626   1.755   9.785
 6624SOL    HW221770   7.690   1.860   9.874
 6625SOL     OW21771  13.299   8.455   1.837
 6625SOL    HW121772  13.372   8.429   1.781
 6625SOL    HW221773  13.222   8.447   1.781
 6626SOL     OW21774   8.760   6.394  13.551
 6626SOL    HW121775   8.768   6.338  13.628
 6626SOL    HW221776   8.790   6.480  13.581
 6627SOL     OW21777   3.698  11.706   3.575
 6627SOL    HW121778   3.634  11.774   3.556
 6627SOL    HW221779   3.762  11.713   3.503
 6628SOL     OW21780   3.663  13.408   0.504
 6628SOL    HW121781   3.653  13.390   0.598
 6628SOL    HW221782   3.743  13.362   0.479
 6629SOL     OW21783   3.371   5.606  10.039
 6629SOL    HW121784   3.447   5.597  10.098
 6629SOL    HW221785   3.295   5.592  10.095
 6630SOL     OW21786   0.571   2.750   5.608
 6630SOL    HW121787   0.479   2.770   5.595
 6630SOL    HW221788   0.596   2.698   5.532
 6631SOL     OW21789  13.375   8.955   3.844
 6631SOL    HW121790  13.313   9.025   3.825
 6631SOL    HW221791  13.339   8.911   3.921
 6632SOL     OW21792   9.144  14.086  13.315
 6632SOL    HW121793   9.218  14.078  13.376
 6632SOL    HW221794   9.184  14.088  13.228
 6633SOL     OW21795  12.155   3.032   8.484
 6633SOL    HW121796  12.181   2.973   8.555
 6633SOL    HW221797  12.066   3.005   8.461
 6634SOL     OW21798   2.494   2.997   2.976
 6634SOL    HW121799   2.503   2.906   2.951
 6634SOL    HW221800   2.563   3.042   2.927
 6635SOL     OW21801   5.595   6.606  12.086
 6635SOL    HW121802   5.500   6.608  12.078
 6635SOL    HW221803   5.627   6.644  12.004
 6636SOL     OW21804   3.380  12.393   9.815
 6636SOL    HW121805   3.336  12.407   9.899
 6636SOL    HW221806   3.473  12.403   9.836
 6637SOL     OW21807   2.030  10.297  11.776
 6637SOL    HW121808   2.041  10.202  11.771
 6637SOL    HW221809   1.991  10.312  11.862
 6638SOL     OW21810   4.714  14.763   1.470
 6638SOL    HW121811   4.789  14.815   1.440
 6638SOL    HW221812   4.639  14.820   1.458
 6639SOL     OW21813   7.715   4.517   9.674
 6639SOL    HW121814   7.780   4.452   9.700
 6639SOL    HW221815   7.756   4.567   9.604
 6640SOL     OW21816   4.193   4.419  11.553
 6640SOL    HW121817   4.243   4.348  11.592
 6640SOL    HW221818   4.105   4.411  11.590
 6641SOL     OW21819  10.910  11.871   1.699
 6641SOL    HW121820  10.833  11.841   1.748
 6641SOL    HW221821  10.883  11.956   1.662
 6642SOL     OW21822   6.995   0.434  10.375
 6642SOL    HW121823   6.940   0.367  10.335
 6642SOL    HW221824   7.028   0.485  10.301
 6643SOL     OW21825   1.294   7.366   3.995
 6643SOL    HW121826   1.213   7.403   4.029
 6643SOL    HW221827   1.352   7.441   3.985
 6644SOL     OW21828   3.400  11.015   0.923
 6644SOL    HW121829   3.346  10.936   0.926
 6644SOL    HW221830   3.412  11.040   1.014
 6645SOL     OW21831   3.795  12.059   6.591
 6645SOL    HW121832   3.834  11.996   6.530
 6645SOL    HW221833   3.869  12.099   6.635
 6646SOL     OW21834   0.139   9.389   8.958
 6646SOL    HW121835   0.233   9.396   8.940
 6646SOL    HW221836   0.124   9.296   8.972
 6647SOL     OW21837   3.227   7.525   2.905
 6647SOL    HW121838   3.298   7.565   2.955
 6647SOL    HW221839   3.185   7.598   2.860
 6648SOL     OW21840   6.937   8.565   7.143
 6648SOL    HW121841   7.024   8.551   7.182
 6648SOL    HW221842   6.954   8.615   7.063
 6649SOL     OW21843   6.300  13.151   9.043
 6649SOL    HW121844   6.226  13.130   8.985
 6649SOL    HW221845   6.376  13.152   8.985
 6650SOL     OW21846   7.307   1.702   5.323
 6650SOL    HW121847   7.284   1.736   5.409
 6650SOL    HW221848   7.402   1.708   5.319
 6651SOL     OW21849   2.678   9.525   2.421
 6651SOL    HW121850   2.652   9.617   2.420
 6651SOL    HW221851   2.739   9.516   2.347
 6652SOL     OW21852   2.129  13.641   9.731
 6652SOL    HW121853   2.093  13.597   9.654
 6652SOL    HW221854   2.221  13.656   9.709
 6653SOL     OW21855   0.563   0.486   4.111
 6653SOL    HW121856   0.487   0.428   4.111
 6653SOL    HW221857   0.527   0.571   4.086
 6654SOL     OW21858   9.556  14.219   3.589
 6654SOL    HW121859   9.533  14.311   3.576
 6654SOL    HW221860   9.583  14.188   3.503
 6655SOL     OW21861   8.877   5.404   1.606
 6655SOL    HW121862   8.952   5.344   1.610
 6655SOL    HW221863   8.904   5.471   1.544
 6656SOL     OW21864  11.170   8.036   6.913
 6656SOL    HW121865  11.164   7.948   6.877
 6656SOL    HW221866  11.098   8.041   6.977
 6657SOL     OW21867  10.612   4.059   8.643
 6657SOL    HW121868  10.577   4.103   8.566
 6657SOL    HW221869  10.707   4.066   8.634
 6658SOL     OW21870   7.628   2.111   2.271
 6658SOL    HW121871   7.699   2.064   2.226
 6658SOL    HW221872   7.591   2.169   2.204
 6659SOL     OW21873   9.617   8.013   6.816
 6659SOL    HW121874   9.673   7.997   6.892
 6659SOL    HW221875   9.532   7.975   6.841
 6660SOL     OW21876   6.776  14.725   5.847
 6660SOL    HW121877   6.804  14.640   5.813
 6660SOL    HW221878   6.759  14.777   5.769
 6661SOL     OW21879  13.916   1.985   9.974
 6661SOL    HW121880  13.934   2.078   9.965
 6661SOL    HW221881  13.828   1.974   9.938
 6662SOL     OW21882  10.929   4.992  12.023
 6662SOL    HW121883  10.848   4.968  12.068
 6662SOL    HW221884  10.939   5.086  12.042
 6663SOL     OW21885  12.837   1.289  14.557
 6663SOL    HW121886  12.843   1.238  14.638
 6663SOL    HW221887  12.856   1.379  14.584
 6664SOL     OW21888   0.501   1.968   0.591
 6664SOL    HW121889   0.449   1.939   0.666
 6664SOL    HW221890   0.436   1.990   0.524
 6665SOL     OW21891  12.799   5.705  14.505
 6665SOL    HW121892  12.777   5.772  14.439
 6665SOL    HW221893  12.875   5.660  14.468
 6666SOL     OW21894   8.537   8.561  11.053
 6666SOL    HW121895   8.486   8.536  11.130
 6666SOL    HW221896   8.493   8.639  11.019
 6667SOL     OW21897   9.620  11.013   8.504
 6667SOL    HW121898   9.592  11.046   8.418
 6667SOL    HW221899   9.714  11.030   8.507
 6668SOL     OW21900  13.062  10.586  10.524
 6668SOL    HW121901  12.967  10.575  10.535
 6668SOL    HW221902  13.091  10.502  10.487
 6669SOL     OW21903   9.971   8.769   5.702
 6669SOL    HW121904   9.918   8.689   5.700
 6669SOL    HW221905   9.954   8.806   5.789
 6670SOL     OW21906   0.371   8.410  11.783
 6670SOL    HW121907   0.276   8.406  11.770
 6670SOL    HW221908   0.403   8.323  11.759
 6671SOL     OW21909   3.826  13.261   3.092
 6671SOL    HW121910   3.827  13.236   3.000
 6671SOL    HW221911   3.917  13.254   3.121
 6672SOL     OW21912  14.237   5.826   4.793
 6672SOL    HW121913  14.143   5.835   4.780
 6672SOL    HW221914  14.275   5.899   4.743
 6673SOL     OW21915   5.408   7.658   9.653
 6673SOL    HW121916   5.490   7.613   9.675
 6673SOL    HW221917   5.429   7.751   9.656
 6674SOL     OW21918  11.396   2.218   7.424
 6674SOL    HW121919  11.356   2.138   7.458
 6674SOL    HW221920  11.486   2.192   7.403
 6675SOL     OW21921   6.961   0.735   6.396
 6675SOL    HW121922   6.884   0.712   6.449
 6675SOL    HW221923   7.028   0.673   6.423
 6676SOL     OW21924   1.966  13.318   3.413
 6676SOL    HW121925   1.915  13.293   3.336
 6676SOL    HW221926   1.945  13.250   3.478
 6677SOL     OW21927  14.311   1.926   1.606
 6677SOL    HW121928  14.246   1.994   1.589
 6677SOL    HW221929  14.275   1.847   1.564
 6678SOL     OW21930   0.423   9.321   4.842
 6678SOL    HW121931   0.402   9.315   4.935
 6678SOL    HW221932   0.382   9.403   4.814
 6679SOL     OW21933  10.382   9.837   6.408
 6679SOL    HW121934  10.344   9.896   6.473
 6679SOL    HW221935  10.476   9.858   6.409
 6680SOL     OW21936   4.760   4.282  10.795
 6680SOL    HW121937   4.809   4.318  10.869
 6680SOL    HW221938   4.747   4.356  10.736
 6681SOL     OW21939   7.475  11.337   3.799
 6681SOL    HW121940   7.533  11.410   3.821
 6681SOL    HW221941   7.513  11.262   3.845
 6682SOL     OW21942   2.306   4.198   1.784
 6682SOL    HW121943   2.221   4.242   1.771
 6682SOL    HW221944   2.288   4.132   1.851
 6683SOL     OW21945  11.441   1.524   3.384
 6683SOL    HW121946  11.460   1.503   3.475
 6683SOL    HW221947  11.472   1.614   3.373
 6684SOL     OW21948  12.412  13.646   7.773
 6684SOL    HW121949  12.480  13.621   7.837
 6684SOL    HW221950  12.358  13.568   7.763
 6685SOL     OW21951   7.244  13.596  11.340
 6685SOL    HW121952   7.161  13.608  11.292
 6685SOL    HW221953   7.305  13.564  11.274
 6686SOL     OW21954   0.759   1.194   0.581
 6686SOL    HW121955   0.737   1.122   0.640
 6686SOL    HW221956   0.675   1.220   0.542
 6687SOL     OW21957  13.947   5.673   5.698
 6687SOL    HW121958  14.041   5.690   5.697
 6687SOL    HW221959  13.937   5.596   5.754
 6688SOL     OW21960  11.550   2.202   9.094
 6688SOL    HW121961  11.640   2.227   9.115
 6688SOL    HW221962  11.552   2.179   9.001
 6689SOL     OW21963   3.438   3.237  11.322
 6689SOL    HW121964   3.465   3.315  11.370
 6689SOL    HW221965   3.493   3.167  11.357
 6690SOL     OW21966  10.020   0.285   3.557
 6690SOL    HW121967   9.953   0.239   3.606
 6690SOL    HW221968  10.073   0.329   3.624
 6691SOL     OW21969   6.872  13.763   1.872
 6691SOL    HW121970   6.829  13.834   1.826
 6691SOL    HW221971   6.811  13.689   1.866
 6692SOL     OW21972   5.584   7.930   9.017
 6692SOL    HW121973   5.543   8.000   9.068
 6692SOL    HW221974   5.529   7.853   9.032
 6693SOL     OW21975  10.561   6.376   6.960
 6693SOL    HW121976  10.620   6.321   7.011
 6693SOL    HW221977  10.611   6.400   6.882
 6694SOL     OW21978   8.446   3.979  10.583
 6694SOL    HW121979   8.423   3.905  10.639
 6694SOL    HW221980   8.460   4.051  10.643
 6695SOL     OW21981   3.770   8.059   6.723
 6695SOL    HW121982   3.794   8.086   6.634
 6695SOL    HW221983   3.763   7.964   6.718
 6696SOL     OW21984   3.367   6.865   8.118
 6696SOL    HW121985   3.428   6.838   8.050
 6696SOL    HW221986   3.422   6.899   8.188
 6697SOL     OW21987  13.611   7.111  13.272
 6697SOL    HW121988  13.585   7.203  13.278
 6697SOL    HW221989  13.705   7.113  13.258
 6698SOL     OW21990   2.133  11.570   1.850
 6698SOL    HW121991   2.070  11.509   1.889
 6698SOL    HW221992   2.166  11.525   1.772
 6699SOL     OW21993   9.792   6.080  12.665
 6699SOL    HW121994   9.825   6.146  12.604
 6699SOL    HW221995   9.768   6.006  12.610
 6700SOL     OW21996   2.276  13.870   1.417
 6700SOL    HW121997   2.305  13.792   1.463
 6700SOL    HW221998   2.345  13.889   1.353
 6701SOL     OW21999  11.968   8.982  11.999
 6701SOL    HW122000  11.960   8.931  11.919
 6701SOL    HW222001  11.883   8.973  12.042
 6702SOL     OW22002  13.904  13.004   5.608
 6702SOL    HW122003  13.957  13.066   5.657
 6702SOL    HW222004  13.905  13.037   5.518
 6703SOL     OW22005  10.158   1.045  11.438
 6703SOL    HW122006  10.182   1.015  11.525
 6703SOL    HW222007  10.166   1.140  11.441
 6704SOL     OW22008   4.433  10.724  10.195
 6704SOL    HW122009   4.415  10.818  10.189
 6704SOL    HW222010   4.361  10.683  10.147
 6705SOL     OW22011   0.192   3.906  13.828
 6705SOL    HW122012   0.150   3.884  13.746
 6705SOL    HW222013   0.229   3.824  13.860
 6706SOL     OW22014   4.680   2.394  10.181
 6706SOL    HW122015   4.620   2.387  10.255
 6706SOL    HW222016   4.663   2.316  10.128
 6707SOL     OW22017   9.818   8.995   7.233
 6707SOL    HW122018   9.893   8.959   7.280
 6707SOL    HW222019   9.809   9.084   7.265
 6708SOL     OW22020  11.222   1.840   9.558
 6708SOL    HW122021  11.165   1.838   9.481
 6708SOL    HW222022  11.268   1.756   9.556
 6709SOL     OW22023   2.657   3.022  14.309
 6709SOL    HW122024   2.675   3.073  14.388
 6709SOL    HW222025   2.720   3.054  14.245
 6710SOL     OW22026  13.862  11.521  10.694
 6710SOL    HW122027  13.866  11.494  10.602
 6710SOL    HW222028  13.811  11.453  10.737
 6711SOL     OW22029   4.682   5.562  12.084
 6711SOL    HW122030   4.768   5.552  12.043
 6711SOL    HW222031   4.668   5.481  12.134
 6712SOL     OW22032   7.707   9.977   1.523
 6712SOL    HW122033   7.776  10.036   1.491
 6712SOL    HW222034   7.690  10.006   1.613
 6713SOL     OW22035  10.659   9.350  13.619
 6713SOL    HW122036  10.651   9.296  13.697
 6713SOL    HW222037  10.631   9.293  13.547
 6714SOL     OW22038   5.394   2.503   5.788
 6714SOL    HW122039   5.441   2.434   5.836
 6714SOL    HW222040   5.384   2.574   5.852
 6715SOL     OW22041  12.260  10.216  14.709
 6715SOL    HW122042  12.314  10.141  14.736
 6715SOL    HW222043  12.319  10.291  14.719
 6716SOL     OW22044   7.368   0.379   0.916
 6716SOL    HW122045   7.450   0.402   0.872
 6716SOL    HW222046   7.304   0.373   0.845
 6717SOL     OW22047  12.713   1.934   3.437
 6717SOL    HW122048  12.693   2.028   3.434
 6717SOL    HW222049  12.809   1.930   3.441
 6718SOL     OW22050   0.172   4.151   2.730
 6718SOL    HW122051   0.077   4.140   2.719
 6718SOL    HW222052   0.190   4.117   2.818
 6719SOL     OW22053   9.898   1.786   3.068
 6719SOL    HW122054   9.974   1.756   3.018
 6719SOL    HW222055   9.857   1.851   3.011
 6720SOL     OW22056   5.074   2.615   4.903
 6720SOL    HW122057   5.030   2.700   4.905
 6720SOL    HW222058   5.166   2.636   4.885
 6721SOL     OW22059   3.122   5.478   4.868
 6721SOL    HW122060   3.134   5.448   4.958
 6721SOL    HW222061   3.028   5.465   4.851
 6722SOL     OW22062   6.964   2.549   0.773
 6722SOL    HW122063   7.031   2.588   0.716
 6722SOL    HW222064   6.902   2.620   0.789
 6723SOL     OW22065  12.830   1.300   2.949
 6723SOL    HW122066  12.921   1.330   2.941
 6723SOL    HW222067  12.814   1.296   3.043
 6724SOL     OW22068   7.746  11.721   8.026
 6724SOL    HW122069   7.830  11.727   8.072
 6724SOL    HW222070   7.721  11.629   8.034
 6725SOL     OW22071  12.980  13.681   5.330
 6725SOL    HW122072  12.924  13.719   5.263
 6725SOL    HW222073  12.948  13.719   5.412
 6726SOL     OW22074   5.691  14.356  13.058
 6726SOL    HW122075   5.612  14.408  13.042
 6726SOL    HW222076   5.716  14.322  12.972
 6727SOL     OW22077  11.949  12.957   2.305
 6727SOL    HW122078  12.020  12.988   2.249
 6727SOL    HW222079  11.986  12.882   2.351
 6728SOL     OW22080   6.550   1.673  10.118
 6728SOL    HW122081   6.542   1.764  10.091
 6728SOL    HW222082   6.555   1.676  10.213
 6729SOL     OW22083   6.207  11.837  11.374
 6729SOL    HW122084   6.178  11.927  11.356
 6729SOL    HW222085   6.263  11.815  11.300
 6730SOL     OW22086  14.062   1.017   4.627
 6730SOL    HW122087  14.144   1.044   4.586
 6730SOL    HW222088  14.045   0.929   4.592
 6731SOL     OW22089   0.427  13.102   2.799
 6731SOL    HW122090   0.434  13.021   2.850
 6731SOL    HW222091   0.509  13.147   2.814
 6732SOL     OW22092  10.222   7.609   8.215
 6732SOL    HW122093  10.191   7.522   8.188
 6732SOL    HW222094  10.149   7.668   8.195
 6733SOL     OW22095   2.068  12.483  12.928
 6733SOL    HW122096   2.026  12.420  12.870
 6733SOL    HW222097   2.079  12.561  12.875
 6734SOL     OW22098  13.831   3.819   7.760
 6734SOL    HW122099  13.907   3.874   7.780
 6734SOL    HW222100  13.828   3.755   7.831
 6735SOL     OW22101   4.182   4.983   6.982
 6735SOL    HW122102   4.226   5.022   6.906
 6735SOL    HW222103   4.224   4.898   6.993
 6736SOL     OW22104   8.168  10.685   4.742
 6736SOL    HW122105   8.263  10.675   4.734
 6736SOL    HW222106   8.155  10.717   4.831
 6737SOL     OW22107   6.780  13.853   2.777
 6737SOL    HW122108   6.756  13.945   2.781
 6737SOL    HW222109   6.698  13.806   2.788
 6738SOL     OW22110   8.441   7.044  13.027
 6738SOL    HW122111   8.430   7.101  13.103
 6738SOL    HW222112   8.532   7.058  13.001
 6739SOL     OW22113  13.515   4.533   2.576
 6739SOL    HW122114  13.526   4.591   2.500
 6739SOL    HW222115  13.500   4.592   2.650
 6740SOL     OW22116  13.322   4.431   1.418
 6740SOL    HW122117  13.329   4.469   1.505
 6740SOL    HW222118  13.352   4.340   1.429
 6741SOL     OW22119   5.836  10.282   0.578
 6741SOL    HW122120   5.932  10.283   0.573
 6741SOL    HW222121   5.817  10.222   0.650
 6742SOL     OW22122   4.715  14.273   3.041
 6742SOL    HW122123   4.708  14.212   2.967
 6742SOL    HW222124   4.630  14.318   3.042
 6743SOL     OW22125   1.178   9.319   2.958
 6743SOL    HW122126   1.230   9.381   3.008
 6743SOL    HW222127   1.172   9.242   3.013
 6744SOL     OW22128   0.827  13.939   1.096
 6744SOL    HW122129   0.805  14.026   1.130
 6744SOL    HW222130   0.920  13.929   1.115
 6745SOL     OW22131  11.311  12.851   4.178
 6745SOL    HW122132  11.310  12.904   4.098
 6745SOL    HW222133  11.316  12.915   4.249
 6746SOL     OW22134   7.986   2.446  14.809
 6746SOL    HW122135   7.912   2.399  14.770
 6746SOL    HW222136   8.036   2.479  14.734
 6747SOL     OW22137   2.966  14.201   0.164
 6747SOL    HW122138   2.880  14.213   0.124
 6747SOL    HW222139   2.948  14.201   0.258
 6748SOL     OW22140  13.218   1.940  14.854
 6748SOL    HW122141  13.185   1.899   0.065
 6748SOL    HW222142  13.213   1.870  14.788
 6749SOL     OW22143  12.787   6.593   4.958
 6749SOL    HW122144  12.807   6.546   4.877
 6749SOL    HW222145  12.871   6.629   4.986
 6750SOL     OW22146  13.539  11.175   9.226
 6750SOL    HW122147  13.592  11.189   9.305
 6750SOL    HW222148  13.604  11.169   9.155
 6751SOL     OW22149   9.217   7.270   9.548
 6751SOL    HW122150   9.134   7.313   9.571
 6751SOL    HW222151   9.192   7.181   9.523
 6752SOL     OW22152  11.917  14.412   7.947
 6752SOL    HW122153  11.834  14.407   7.993
 6752SOL    HW222154  11.908  14.352   7.874
 6753SOL     OW22155   2.846  13.346  11.990
 6753SOL    HW122156   2.757  13.369  11.964
 6753SOL    HW222157   2.903  13.399  11.934
 6754SOL     OW22158   4.579   5.179   0.057
 6754SOL    HW122159   4.633   5.103   0.038
 6754SOL    HW222160   4.610   5.209   0.143
 6755SOL     OW22161  12.359   4.037  11.479
 6755SOL    HW122162  12.352   4.122  11.521
 6755SOL    HW222163  12.436   3.997  11.520
 6756SOL     OW22164  11.071   2.898   3.040
 6756SOL    HW122165  11.034   2.877   3.127
 6756SOL    HW222166  11.158   2.859   3.041
 6757SOL     OW22167  10.804   4.193   5.160
 6757SOL    HW122168  10.861   4.207   5.235
 6757SOL    HW222169  10.715   4.201   5.195
 6758SOL     OW22170   4.138   6.146   4.219
 6758SOL    HW122171   4.112   6.150   4.311
 6758SOL    HW222172   4.135   6.237   4.189
 6759SOL     OW22173   7.969  11.256  14.799
 6759SOL    HW122174   7.959  11.163  14.780
 6759SOL    HW222175   8.064  11.270  14.800
 6760SOL     OW22176  11.345   3.540  12.115
 6760SOL    HW122177  11.286   3.579  12.179
 6760SOL    HW222178  11.406   3.610  12.093
 6761SOL     OW22179   3.686   9.974   1.982
 6761SOL    HW122180   3.635   9.979   1.901
 6761SOL    HW222181   3.736   9.893   1.974
 6762SOL     OW22182   2.745  13.320   8.259
 6762SOL    HW122183   2.835  13.335   8.233
 6762SOL    HW222184   2.731  13.227   8.246
 6763SOL     OW22185   1.728  10.974   7.165
 6763SOL    HW122186   1.746  11.026   7.243
 6763SOL    HW222187   1.814  10.938   7.141
 6764SOL     OW22188   8.101   7.303   3.675
 6764SOL    HW122189   8.015   7.341   3.690
 6764SOL    HW222190   8.157   7.343   3.742
 6765SOL     OW22191  14.751   1.661  12.689
 6765SOL    HW122192  14.786   1.750  12.700
 6765SOL    HW222193  14.801   1.609  12.751
 6766SOL     OW22194   9.235   1.661   1.854
 6766SOL    HW122195   9.175   1.588   1.867
 6766SOL    HW222196   9.281   1.640   1.772
 6767SOL     OW22197   6.718  13.204  14.824
 6767SOL    HW122198   6.728  13.193   0.049
 6767SOL    HW222199   6.686  13.294  14.814
 6768SOL     OW22200   2.775  13.028  13.737
 6768SOL    HW122201   2.753  12.955  13.680
 6768SOL    HW222202   2.778  12.990  13.825
 6769SOL     OW22203   0.850  14.430   9.133
 6769SOL    HW122204   0.831  14.512   9.180
 6769SOL    HW222205   0.945  14.422   9.137
 6770SOL     OW22206   5.604   1.305  10.694
 6770SOL    HW122207   5.518   1.337  10.666
 6770SOL    HW222208   5.666   1.353  10.639
 6771SOL     OW22209  14.288  10.532   7.858
 6771SOL    HW122210  14.197  10.559   7.870
 6771SOL    HW222211  14.337  10.585   7.922
 6772SOL     OW22212  11.450   1.820  11.130
 6772SOL    HW122213  11.474   1.728  11.121
 6772SOL    HW222214  11.354   1.819  11.136
 6773SOL     OW22215  14.089  14.017  10.618
 6773SOL    HW122216  14.038  13.936  10.615
 6773SOL    HW222217  14.106  14.038  10.526
 6774SOL     OW22218  13.197  11.190  13.283
 6774SOL    HW122219  13.209  11.123  13.350
 6774SOL    HW222220  13.177  11.269  13.331
 6775SOL     OW22221   1.946   8.544   5.951
 6775SOL    HW122222   2.034   8.580   5.952
 6775SOL    HW222223   1.937   8.507   5.863
 6776SOL     OW22224   1.510  11.784   8.301
 6776SOL    HW122225   1.548  11.835   8.373
 6776SOL    HW222226   1.585  11.743   8.259
 6777SOL     OW22227  11.573   1.797   8.991
 6777SOL    HW122228  11.481   1.769   8.986
 6777SOL    HW222229  11.595   1.792   9.084
 6778SOL     OW22230  11.727  13.508  14.250
 6778SOL    HW122231  11.748  13.520  14.342
 6778SOL    HW222232  11.767  13.425  14.226
 6779SOL     OW22233   9.815   2.992   5.817
 6779SOL    HW122234   9.738   3.020   5.769
 6779SOL    HW222235   9.781   2.962   5.901
 6780SOL     OW22236   5.728   7.783   4.180
 6780SOL    HW122237   5.799   7.837   4.214
 6780SOL    HW222238   5.670   7.846   4.135
 6781SOL     OW22239  14.378   8.962  12.549
 6781SOL    HW122240  14.325   8.925  12.619
 6781SOL    HW222241  14.377   8.895  12.480
 6782SOL     OW22242  11.561   8.994   2.934
 6782SOL    HW122243  11.514   8.935   2.876
 6782SOL    HW222244  11.611   8.937   2.992
 6783SOL     OW22245   0.098  12.489   4.627
 6783SOL    HW122246   0.083  12.402   4.663
 6783SOL    HW222247   0.177  12.520   4.671
 6784SOL     OW22248   3.842   9.080  11.189
 6784SOL    HW122249   3.843   9.157  11.131
 6784SOL    HW222250   3.928   9.040  11.176
 6785SOL     OW22251   7.409  12.831   6.155
 6785SOL    HW122252   7.459  12.757   6.188
 6785SOL    HW222253   7.461  12.908   6.177
 6786SOL     OW22254   6.342   2.903   9.109
 6786SOL    HW122255   6.307   2.822   9.147
 6786SOL    HW222256   6.273   2.968   9.121
 6787SOL     OW22257   6.275   1.471   0.290
 6787SOL    HW122258   6.329   1.538   0.249
 6787SOL    HW222259   6.279   1.490   0.384
 6788SOL     OW22260   8.867   2.442   8.200
 6788SOL    HW122261   8.942   2.433   8.141
 6788SOL    HW222262   8.894   2.396   8.280
 6789SOL     OW22263  14.374   8.537   0.855
 6789SOL    HW122264  14.437   8.516   0.785
 6789SOL    HW222265  14.427   8.576   0.924
 6790SOL     OW22266   3.891   6.280  13.588
 6790SOL    HW122267   3.884   6.293  13.493
 6790SOL    HW222268   3.889   6.185  13.599
 6791SOL     OW22269  12.309   2.781   2.975
 6791SOL    HW122270  12.225   2.786   3.021
 6791SOL    HW222271  12.307   2.695   2.932
 6792SOL     OW22272   7.371  13.210   8.772
 6792SOL    HW122273   7.391  13.238   8.683
 6792SOL    HW222274   7.433  13.139   8.790
 6793SOL     OW22275  14.823  13.741  12.972
 6793SOL    HW122276  14.802  13.737  12.879
 6793SOL    HW222277  14.740  13.723  13.016
 6794SOL     OW22278   4.494   2.478   4.535
 6794SOL    HW122279   4.504   2.460   4.442
 6794SOL    HW222280   4.567   2.536   4.556
 6795SOL     OW22281  11.375  13.422   4.345
 6795SOL    HW122282  11.393  13.374   4.264
 6795SOL    HW222283  11.352  13.354   4.409
 6796SOL     OW22284  11.195  11.076   1.558
 6796SOL    HW122285  11.196  10.986   1.589
 6796SOL    HW222286  11.106  11.091   1.526
 6797SOL     OW22287   1.051   5.822   9.974
 6797SOL    HW122288   1.055   5.728   9.954
 6797SOL    HW222289   0.961   5.837  10.000
 6798SOL     OW22290   7.060   2.994   5.278
 6798SOL    HW122291   7.032   2.921   5.334
 6798SOL    HW222292   7.110   3.051   5.337
 6799SOL     OW22293   6.337  11.091   1.197
 6799SOL    HW122294   6.259  11.061   1.243
 6799SOL    HW222295   6.393  11.014   1.190
 6800SOL     OW22296   4.180  12.285  11.808
 6800SOL    HW122297   4.224  12.330  11.880
 6800SOL    HW222298   4.224  12.316  11.729
 6801SOL     OW22299   7.558   5.258  14.447
 6801SOL    HW122300   7.497   5.271  14.520
 6801SOL    HW222301   7.510   5.287  14.370
 6802SOL     OW22302  11.166   9.745   1.166
 6802SOL    HW122303  11.242   9.715   1.217
 6802SOL    HW222304  11.129   9.816   1.218
 6803SOL     OW22305  13.528   1.173   4.321
 6803SOL    HW122306  13.452   1.224   4.293
 6803SOL    HW222307  13.575   1.153   4.240
 6804SOL     OW22308   5.982   0.021   5.442
 6804SOL    HW122309   6.001  14.825   5.509
 6804SOL    HW222310   5.887   0.018   5.432
 6805SOL     OW22311  10.091   5.615   4.475
 6805SOL    HW122312  10.087   5.635   4.381
 6805SOL    HW222313  10.008   5.648   4.510
 6806SOL     OW22314   2.665   0.926   3.235
 6806SOL    HW122315   2.760   0.916   3.244
 6806SOL    HW222316   2.655   1.001   3.176
 6807SOL     OW22317   9.797   8.435  13.369
 6807SOL    HW122318   9.728   8.376  13.338
 6807SOL    HW222319   9.861   8.437  13.297
 6808SOL     OW22320   8.736   2.570  11.074
 6808SOL    HW122321   8.709   2.557  11.165
 6808SOL    HW222322   8.653   2.572  11.025
 6809SOL     OW22323  12.610   1.263   7.171
 6809SOL    HW122324  12.589   1.227   7.258
 6809SOL    HW222325  12.562   1.207   7.110
 6810SOL     OW22326   1.730  13.457  14.497
 6810SOL    HW122327   1.797  13.409  14.544
 6810SOL    HW222328   1.668  13.484  14.565
 6811SOL     OW22329  14.215   8.169   2.349
 6811SOL    HW122330  14.288   8.229   2.332
 6811SOL    HW222331  14.234   8.131   2.434
 6812SOL     OW22332   9.101  11.745   4.106
 6812SOL    HW122333   9.105  11.650   4.106
 6812SOL    HW222334   9.008  11.766   4.114
 6813SOL     OW22335  14.675   8.560   7.290
 6813SOL    HW122336  14.756   8.591   7.331
 6813SOL    HW222337  14.625   8.519   7.360
 6814SOL     OW22338  11.806   4.518  13.982
 6814SOL    HW122339  11.900   4.524  14.001
 6814SOL    HW222340  11.801   4.526  13.887
 6815SOL     OW22341   9.445   8.906  14.012
 6815SOL    HW122342   9.532   8.873  14.033
 6815SOL    HW222343   9.460   8.965  13.938
 6816SOL     OW22344   9.807  13.322   7.521
 6816SOL    HW122345   9.874  13.253   7.523
 6816SOL    HW222346   9.761  13.314   7.605
 6817SOL     OW22347   6.603   1.912   8.644
 6817SOL    HW122348   6.555   1.993   8.661
 6817SOL    HW222349   6.690   1.941   8.617
 6818SOL     OW22350   1.067   9.338   9.995
 6818SOL    HW122351   1.001   9.281   9.955
 6818SOL    HW222352   1.135   9.347   9.928
 6819SOL     OW22353   2.906  14.232   5.736
 6819SOL    HW122354   2.979  14.222   5.796
 6819SOL    HW222355   2.890  14.144   5.702
 6820SOL     OW22356  10.613   1.707   9.520
 6820SOL    HW122357  10.549   1.771   9.551
 6820SOL    HW222358  10.648   1.745   9.439
 6821SOL     OW22359  11.347   2.565   4.917
 6821SOL    HW122360  11.406   2.491   4.928
 6821SOL    HW222361  11.264   2.535   4.954
 6822SOL     OW22362  13.782   1.100   9.147
 6822SOL    HW122363  13.730   1.121   9.069
 6822SOL    HW222364  13.838   1.176   9.160
 6823SOL     OW22365   1.588   2.064   5.309
 6823SOL    HW122366   1.538   2.131   5.263
 6823SOL    HW222367   1.530   2.032   5.377
 6824SOL     OW22368   5.144   0.100  13.588
 6824SOL    HW122369   5.211   0.045  13.547
 6824SOL    HW222370   5.079   0.038  13.621
 6825SOL     OW22371   7.928   6.228  13.724
 6825SOL    HW122372   7.984   6.250  13.650
 6825SOL    HW222373   7.887   6.145  13.699
 6826SOL     OW22374   8.215  11.559  12.514
 6826SOL    HW122375   8.279  11.549  12.585
 6826SOL    HW222376   8.268  11.561  12.434
 6827SOL     OW22377   6.588   8.658   7.090
 6827SOL    HW122378   6.495   8.678   7.102
 6827SOL    HW222379   6.600   8.651   6.995
 6828SOL     OW22380  13.615  14.619  14.592
 6828SOL    HW122381  13.676  14.687  14.619
 6828SOL    HW222382  13.598  14.569  14.671
 6829SOL     OW22383   3.115   5.007  14.829
 6829SOL    HW122384   3.205   4.974  14.840
 6829SOL    HW222385   3.060   4.934  14.855
 6830SOL     OW22386   6.899  11.234   1.502
 6830SOL    HW122387   6.917  11.146   1.534
 6830SOL    HW222388   6.905  11.290   1.580
 6831SOL     OW22389   9.202   7.637  10.763
 6831SOL    HW122390   9.179   7.711  10.706
 6831SOL    HW222391   9.133   7.637  10.830
 6832SOL     OW22392  11.048   4.534  14.267
 6832SOL    HW122393  11.026   4.441  14.277
 6832SOL    HW222394  11.140   4.540  14.294
 6833SOL     OW22395  12.070   0.319  13.558
 6833SOL    HW122396  12.022   0.391  13.518
 6833SOL    HW222397  12.133   0.291  13.492
 6834SOL     OW22398  14.062  13.820   4.931
 6834SOL    HW122399  14.123  13.872   4.879
 6834SOL    HW222400  14.033  13.878   5.001
 6835SOL     OW22401   7.727   2.740  13.551
 6835SOL    HW122402   7.697   2.806  13.613
 6835SOL    HW222403   7.822   2.744  13.556
 6836SOL     OW22404  13.927   9.970   2.400
 6836SOL    HW122405  13.980   9.892   2.386
 6836SOL    HW222406  13.968  10.015   2.474
 6837SOL     OW22407   8.121   3.854   6.663
 6837SOL    HW122408   8.095   3.932   6.713
 6837SOL    HW222409   8.055   3.789   6.685
 6838SOL     OW22410  14.135   2.126   1.559
 6838SOL    HW122411  14.150   2.176   1.640
 6838SOL    HW222412  14.128   2.193   1.491
 6839SOL     OW22413   7.371   2.101   4.638
 6839SOL    HW122414   7.451   2.143   4.606
 6839SOL    HW222415   7.378   2.105   4.733
 6840SOL     OW22416   1.987  12.979   0.745
 6840SOL    HW122417   1.961  12.927   0.669
 6840SOL    HW222418   2.082  12.991   0.734
 6841SOL     OW22419   2.925   9.571   6.116
 6841SOL    HW122420   2.959   9.654   6.084
 6841SOL    HW222421   2.926   9.514   6.039
 6842SOL     OW22422   8.812   4.930  13.058
 6842SOL    HW122423   8.770   4.848  13.032
 6842SOL    HW222424   8.803   4.932  13.153
 6843SOL     OW22425   8.891   3.708   2.101
 6843SOL    HW122426   8.822   3.643   2.087
 6843SOL    HW222427   8.948   3.668   2.167
 6844SOL     OW22428  10.544   1.831  13.635
 6844SOL    HW122429  10.520   1.881  13.713
 6844SOL    HW222430  10.567   1.744  13.669
 6845SOL     OW22431   6.505   5.533   7.930
 6845SOL    HW122432   6.545   5.452   7.897
 6845SOL    HW222433   6.544   5.602   7.877
 6846SOL     OW22434  14.433   0.047  10.790
 6846SOL    HW122435  14.511   0.068  10.842
 6846SOL    HW222436  14.444   0.098  10.710
 6847SOL     OW22437   1.889  12.271   9.243
 6847SOL    HW122438   1.891  12.298   9.334
 6847SOL    HW222439   1.979  12.243   9.223
 6848SOL     OW22440   7.128   5.008   1.087
 6848SOL    HW122441   7.050   4.954   1.078
 6848SOL    HW222442   7.106   5.090   1.042
 6849SOL     OW22443   8.115   5.465   4.277
 6849SOL    HW122444   8.202   5.488   4.309
 6849SOL    HW222445   8.111   5.369   4.285
 6850SOL     OW22446   7.234   5.226   5.804
 6850SOL    HW122447   7.150   5.212   5.849
 6850SOL    HW222448   7.241   5.153   5.743
 6851SOL     OW22449   3.907  10.848  14.058
 6851SOL    HW122450   3.854  10.858  13.979
 6851SOL    HW222451   3.882  10.762  14.093
 6852SOL     OW22452  12.506  10.768   1.370
 6852SOL    HW122453  12.426  10.717   1.381
 6852SOL    HW222454  12.476  10.857   1.351
 6853SOL     OW22455   2.352  14.653  11.685
 6853SOL    HW122456   2.299  14.728  11.659
 6853SOL    HW222457   2.433  14.691  11.719
 6854SOL     OW22458   6.635  14.658  10.613
 6854SOL    HW122459   6.625  14.712  10.691
 6854SOL    HW222460   6.546  14.644  10.581
 6855SOL     OW22461   1.858  10.375  10.036
 6855SOL    HW122462   1.908  10.329   9.968
 6855SOL    HW222463   1.793  10.426   9.988
 6856SOL     OW22464  12.512   4.265  10.601
 6856SOL    HW122465  12.559   4.288  10.521
 6856SOL    HW222466  12.491   4.172  10.590
 6857SOL     OW22467   5.645   4.919  10.108
 6857SOL    HW122468   5.629   4.861  10.182
 6857SOL    HW222469   5.636   4.862  10.031
 6858SOL     OW22470  11.242   7.688  10.726
 6858SOL    HW122471  11.288   7.633  10.662
 6858SOL    HW222472  11.286   7.773  10.719
 6859SOL     OW22473   9.765  14.397   0.822
 6859SOL    HW122474   9.671  14.384   0.808
 6859SOL    HW222475   9.793  14.450   0.747
 6860SOL     OW22476   2.612   1.826   9.471
 6860SOL    HW122477   2.669   1.758   9.508
 6860SOL    HW222478   2.643   1.907   9.511
 6861SOL     OW22479   1.508  10.765   1.698
 6861SOL    HW122480   1.578  10.704   1.722
 6861SOL    HW222481   1.548  10.852   1.703
 6862SOL     OW22482   9.348  11.506   7.143
 6862SOL    HW122483   9.277  11.502   7.207
 6862SOL    HW222484   9.387  11.418   7.144
 6863SOL     OW22485   8.880  13.475   6.885
 6863SOL    HW122486   8.926  13.460   6.802
 6863SOL    HW222487   8.945  13.518   6.941
 6864SOL     OW22488  13.258   1.597   9.840
 6864SOL    HW122489  13.255   1.623   9.748
 6864SOL    HW222490  13.352   1.592   9.861
 6865SOL     OW22491   0.057   1.026  13.845
 6865SOL    HW122492  14.865   1.043  13.916
 6865SOL    HW222493   0.103   0.946  13.872
 6866SOL     OW22494   8.531   1.784   1.991
 6866SOL    HW122495   8.593   1.823   2.053
 6866SOL    HW222496   8.562   1.812   1.905
 6867SOL     OW22497  10.124   2.195   1.055
 6867SOL    HW122498  10.112   2.154   0.970
 6867SOL    HW222499  10.205   2.158   1.088
 6868SOL     OW22500   3.320   0.765   8.398
 6868SOL    HW122501   3.281   0.733   8.480
 6868SOL    HW222502   3.327   0.687   8.343
 6869SOL     OW22503  12.508   0.575   5.306
 6869SOL    HW122504  12.458   0.509   5.353
 6869SOL    HW222505  12.512   0.649   5.367
 6870SOL     OW22506  12.833   7.386   1.543
 6870SOL    HW122507  12.858   7.341   1.623
 6870SOL    HW222508  12.761   7.444   1.570
 6871SOL     OW22509   3.012   8.665   8.481
 6871SOL    HW122510   3.062   8.733   8.525
 6871SOL    HW222511   2.978   8.707   8.402
 6872SOL     OW22512   9.044  12.453   5.163
 6872SOL    HW122513   9.055  12.405   5.244
 6872SOL    HW222514   9.069  12.543   5.184
 6873SOL     OW22515   1.654   1.231   6.194
 6873SOL    HW122516   1.696   1.145   6.194
 6873SOL    HW222517   1.634   1.247   6.286
 6874SOL     OW22518  11.921   5.130   4.830
 6874SOL    HW122519  11.953   5.154   4.743
 6874SOL    HW222520  11.828   5.154   4.828
 6875SOL     OW22521   9.855   6.135  13.202
 6875SOL    HW122522   9.789   6.067  13.191
 6875SOL    HW222523   9.807   6.217  13.186
 6876SOL     OW22524   9.672   4.844   0.959
 6876SOL    HW122525   9.652   4.923   0.909
 6876SOL    HW222526   9.714   4.876   1.039
 6877SOL     OW22527  13.383   9.110   4.838
 6877SOL    HW122528  13.462   9.136   4.884
 6877SOL    HW222529  13.345   9.192   4.806
 6878SOL     OW22530  14.125  11.351  14.315
 6878SOL    HW122531  14.143  11.445  14.321
 6878SOL    HW222532  14.056  11.344  14.249
 6879SOL     OW22533  13.496   3.532   3.785
 6879SOL    HW122534  13.497   3.465   3.854
 6879SOL    HW222535  13.585   3.568   3.785
 6880SOL     OW22536   5.715  10.729   9.292
 6880SOL    HW122537   5.783  10.688   9.240
 6880SOL    HW222538   5.645  10.748   9.229
 6881SOL     OW22539   2.202  13.229   8.616
 6881SOL    HW122540   2.227  13.313   8.576
 6881SOL    HW222541   2.112  13.241   8.644
 6882SOL     OW22542  10.349  10.852  10.536
 6882SOL    HW122543  10.385  10.772  10.498
 6882SOL    HW222544  10.419  10.917  10.526
 6883SOL     OW22545   3.590  10.324  12.386
 6883SOL    HW122546   3.499  10.351  12.379
 6883SOL    HW222547   3.598  10.288  12.474
 6884SOL     OW22548   0.998  13.127   5.708
 6884SOL    HW122549   0.973  13.116   5.800
 6884SOL    HW222550   1.093  13.130   5.709
 6885SOL     OW22551  11.653   9.697   8.431
 6885SOL    HW122552  11.566   9.737   8.430
 6885SOL    HW222553  11.637   9.604   8.447
 6886SOL     OW22554   2.207   6.120   2.780
 6886SOL    HW122555   2.224   6.133   2.687
 6886SOL    HW222556   2.256   6.189   2.824
 6887SOL     OW22557   4.757   2.850   3.163
 6887SOL    HW122558   4.786   2.779   3.106
 6887SOL    HW222559   4.813   2.843   3.240
 6888SOL     OW22560   0.265   8.748   4.110
 6888SOL    HW122561   0.318   8.818   4.074
 6888SOL    HW222562   0.286   8.747   4.204
 6889SOL     OW22563  10.228  13.675   8.290
 6889SOL    HW122564  10.322  13.664   8.307
 6889SOL    HW222565  10.204  13.753   8.339
 6890SOL     OW22566   9.027   8.696   8.235
 6890SOL    HW122567   8.989   8.773   8.277
 6890SOL    HW222568   8.951   8.648   8.201
 6891SOL     OW22569   0.725   1.244   2.044
 6891SOL    HW122570   0.714   1.165   1.992
 6891SOL    HW222571   0.814   1.237   2.080
 6892SOL     OW22572   8.887   9.037   8.054
 6892SOL    HW122573   8.862   9.107   7.994
 6892SOL    HW222574   8.852   8.957   8.014
 6893SOL     OW22575   0.191  10.971  10.368
 6893SOL    HW122576   0.199  10.984  10.273
 6893SOL    HW222577   0.150  11.052  10.400
 6894SOL     OW22578   3.825   7.169  12.702
 6894SOL    HW122579   3.847   7.091  12.650
 6894SOL    HW222580   3.763   7.217  12.647
 6895SOL     OW22581   3.335   5.099   1.039
 6895SOL    HW122582   3.406   5.121   1.098
 6895SOL    HW222583   3.301   5.184   1.009
 6896SOL     OW22584   7.529   7.928   5.095
 6896SOL    HW122585   7.616   7.962   5.073
 6896SOL    HW222586   7.537   7.833   5.089
 6897SOL     OW22587   8.921   9.837  10.080
 6897SOL    HW122588   8.960   9.751  10.099
 6897SOL    HW222589   8.892   9.830   9.989
 6898SOL     OW22590  11.282   1.156  11.996
 6898SOL    HW122591  11.303   1.080  11.942
 6898SOL    HW222592  11.343   1.223  11.967
 6899SOL     OW22593   6.641   7.561   5.528
 6899SOL    HW122594   6.624   7.649   5.493
 6899SOL    HW222595   6.566   7.543   5.585
 6900SOL     OW22596   5.084   5.427   9.045
 6900SOL    HW122597   5.002   5.455   9.004
 6900SOL    HW222598   5.064   5.425   9.139
 6901SOL     OW22599  11.180   2.756  12.567
 6901SOL    HW122600  11.223   2.816  12.506
 6901SOL    HW222601  11.183   2.800  12.651
 6902SOL     OW22602   0.454   7.510  11.937
 6902SOL    HW122603   0.454   7.439  11.873
 6902SOL    HW222604   0.362   7.521  11.961
 6903SOL     OW22605  11.728   1.578   5.320
 6903SOL    HW122606  11.818   1.546   5.312
 6903SOL    HW222607  11.738   1.663   5.363
 6904SOL     OW22608   0.576   4.721   9.200
 6904SOL    HW122609   0.656   4.766   9.226
 6904SOL    HW222610   0.601   4.669   9.124
 6905SOL     OW22611  14.682  11.662   9.992
 6905SOL    HW122612  14.757  11.611   9.961
 6905SOL    HW222613  14.714  11.752   9.995
 6906SOL     OW22614  11.631   8.550   0.433
 6906SOL    HW122615  11.536   8.562   0.433
 6906SOL    HW222616  11.651   8.520   0.522
 6907SOL     OW22617   5.482   2.448  14.528
 6907SOL    HW122618   5.415   2.389  14.562
 6907SOL    HW222619   5.562   2.395  14.525
 6908SOL     OW22620   1.571   9.356   2.731
 6908SOL    HW122621   1.615   9.280   2.693
 6908SOL    HW222622   1.624   9.378   2.808
 6909SOL     OW22623   3.322  14.374   3.314
 6909SOL    HW122624   3.391  14.309   3.299
 6909SOL    HW222625   3.358  14.430   3.383
 6910SOL     OW22626   4.566   2.536   3.509
 6910SOL    HW122627   4.562   2.630   3.493
 6910SOL    HW222628   4.653   2.523   3.548
 6911SOL     OW22629   3.415   9.038  14.438
 6911SOL    HW122630   3.482   9.020  14.372
 6911SOL    HW222631   3.410   9.133  14.442
 6912SOL     OW22632   8.233   8.635  10.085
 6912SOL    HW122633   8.150   8.673  10.058
 6912SOL    HW222634   8.214   8.593  10.169
 6913SOL     OW22635  12.615   4.176   1.510
 6913SOL    HW122636  12.568   4.215   1.583
 6913SOL    HW222637  12.674   4.245   1.480
 6914SOL     OW22638   6.523   5.994  10.026
 6914SOL    HW122639   6.577   5.921   9.995
 6914SOL    HW222640   6.441   5.986   9.979
 6915SOL     OW22641  11.240  12.834  10.305
 6915SOL    HW122642  11.197  12.798  10.228
 6915SOL    HW222643  11.329  12.797  10.302
 6916SOL     OW22644  13.938   7.270   8.449
 6916SOL    HW122645  13.988   7.202   8.494
 6916SOL    HW222646  13.945   7.346   8.506
 6917SOL     OW22647   8.945   8.403  12.879
 6917SOL    HW122648   8.850   8.411  12.894
 6917SOL    HW222649   8.954   8.403  12.784
 6918SOL     OW22650   1.090   2.596  11.825
 6918SOL    HW122651   1.071   2.678  11.872
 6918SOL    HW222652   1.177   2.571  11.856
 6919SOL     OW22653   7.201   2.807   6.136
 6919SOL    HW122654   7.210   2.893   6.176
 6919SOL    HW222655   7.125   2.768   6.178
 6920SOL     OW22656  13.176   8.600  10.256
 6920SOL    HW122657  13.200   8.573  10.344
 6920SOL    HW222658  13.257   8.594  10.205
 6921SOL     OW22659   6.563   2.285   7.895
 6921SOL    HW122660   6.544   2.374   7.925
 6921SOL    HW222661   6.512   2.276   7.814
 6922SOL     OW22662   7.633  10.154  11.711
 6922SOL    HW122663   7.713  10.197  11.740
 6922SOL    HW222664   7.644  10.143  11.616
 6923SOL     OW22665  11.162   2.578   8.295
 6923SOL    HW122666  11.211   2.561   8.376
 6923SOL    HW222667  11.113   2.659   8.314
 6924SOL     OW22668   0.474   4.900  14.037
 6924SOL    HW122669   0.524   4.838  13.983
 6924SOL    HW222670   0.387   4.901  13.999
 6925SOL     OW22671   1.682   5.144   5.982
 6925SOL    HW122672   1.654   5.102   5.901
 6925SOL    HW222673   1.679   5.238   5.963
 6926SOL     OW22674  13.270   3.504  11.195
 6926SOL    HW122675  13.237   3.501  11.285
 6926SOL    HW222676  13.191   3.507  11.141
 6927SOL     OW22677  11.174   7.040  13.437
 6927SOL    HW122678  11.168   7.097  13.361
 6927SOL    HW222679  11.102   7.066  13.493
 6928SOL     OW22680   2.263   1.716   3.048
 6928SOL    HW122681   2.326   1.654   3.088
 6928SOL    HW222682   2.254   1.686   2.958
 6929SOL     OW22683   4.681   6.223   9.971
 6929SOL    HW122684   4.670   6.316   9.951
 6929SOL    HW222685   4.753   6.195   9.916
 6930SOL     OW22686   6.466   8.035   4.065
 6930SOL    HW122687   6.476   7.943   4.092
 6930SOL    HW222688   6.542   8.079   4.103
 6931SOL     OW22689   6.960  14.234   3.493
 6931SOL    HW122690   6.889  14.182   3.455
 6931SOL    HW222691   6.920  14.281   3.566
 6932SOL     OW22692  14.242  11.145  14.073
 6932SOL    HW122693  14.165  11.093  14.050
 6932SOL    HW222694  14.253  11.205  13.999
 6933SOL     OW22695  11.799   3.487  11.945
 6933SOL    HW122696  11.848   3.552  11.996
 6933SOL    HW222697  11.763   3.536  11.872
 6934SOL     OW22698   2.688  13.991   0.033
 6934SOL    HW122699   2.768  13.941   0.014
 6934SOL    HW222700   2.680  13.985   0.128
 6935SOL     OW22701  11.813   0.570   4.745
 6935SOL    HW122702  11.882   0.514   4.710
 6935SOL    HW222703  11.842   0.659   4.726
 6936SOL     OW22704  10.545   5.061   2.712
 6936SOL    HW122705  10.556   5.154   2.731
 6936SOL    HW222706  10.534   5.021   2.798
 6937SOL     OW22707  11.701   4.469   9.023
 6937SOL    HW122708  11.760   4.435   9.090
 6937SOL    HW222709  11.646   4.532   9.070
 6938SOL     OW22710  10.701  12.771   9.809
 6938SOL    HW122711  10.788  12.796   9.777
 6938SOL    HW222712  10.712  12.681   9.841
 6939SOL     OW22713  10.419  12.421  13.698
 6939SOL    HW122714  10.483  12.350  13.707
 6939SOL    HW222715  10.471  12.495  13.666
 6940SOL     OW22716   9.419   2.012   1.193
 6940SOL    HW122717   9.463   2.052   1.119
 6940SOL    HW222718   9.490   1.987   1.252
 6941SOL     OW22719  14.854   3.144   0.279
 6941SOL    HW122720  14.862   3.170   0.371
 6941SOL    HW222721  14.863   3.049   0.281
 6942SOL     OW22722  10.464   6.904  12.206
 6942SOL    HW122723  10.388   6.858  12.240
 6942SOL    HW222724  10.539   6.857  12.242
 6943SOL     OW22725  10.072  11.762   2.059
 6943SOL    HW122726  10.114  11.798   2.137
 6943SOL    HW222727   9.979  11.765   2.078
 6944SOL     OW22728   7.088   6.695  13.263
 6944SOL    HW122729   7.140   6.770  13.293
 6944SOL    HW222730   7.141   6.618  13.286
 6945SOL     OW22731  14.423  12.096   1.116
 6945SOL    HW122732  14.464  12.172   1.157
 6945SOL    HW222733  14.397  12.126   1.029
 6946SOL     OW22734  12.837   6.393   6.450
 6946SOL    HW122735  12.919   6.377   6.496
 6946SOL    HW222736  12.769   6.369   6.512
 6947SOL     OW22737   1.789   2.190   8.030
 6947SOL    HW122738   1.876   2.229   8.040
 6947SOL    HW222739   1.731   2.250   8.076
 6948SOL     OW22740   9.218   1.252   7.498
 6948SOL    HW122741   9.287   1.240   7.563
 6948SOL    HW222742   9.193   1.344   7.507
 6949SOL     OW22743   9.307   2.668   5.281
 6949SOL    HW122744   9.311   2.573   5.289
 6949SOL    HW222745   9.392   2.698   5.314
 6950SOL     OW22746  14.267  14.233  11.964
 6950SOL    HW122747  14.342  14.173  11.959
 6950SOL    HW222748  14.298  14.307  12.015
 6951SOL     OW22749   5.008   7.925  11.380
 6951SOL    HW122750   4.978   7.983  11.310
 6951SOL    HW222751   4.982   7.837  11.352
 6952SOL     OW22752   6.255   7.442  10.977
 6952SOL    HW122753   6.294   7.492  10.905
 6952SOL    HW222754   6.325   7.383  11.005
 6953SOL     OW22755   5.512  14.115  12.182
 6953SOL    HW122756   5.493  14.202  12.216
 6953SOL    HW222757   5.483  14.056  12.252
 6954SOL     OW22758  12.490  12.020  13.592
 6954SOL    HW122759  12.531  12.032  13.677
 6954SOL    HW222760  12.538  12.079  13.534
 6955SOL     OW22761   9.767  14.303   5.490
 6955SOL    HW122762   9.843  14.361   5.495
 6955SOL    HW222763   9.717  14.321   5.570
 6956SOL     OW22764  13.562   3.086   6.303
 6956SOL    HW122765  13.645   3.044   6.281
 6956SOL    HW222766  13.495   3.021   6.279
 6957SOL     OW22767   9.328  12.458   5.187
 6957SOL    HW122768   9.297  12.471   5.097
 6957SOL    HW222769   9.348  12.364   5.192
 6958SOL     OW22770   3.856   8.748   9.887
 6958SOL    HW122771   3.802   8.668   9.883
 6958SOL    HW222772   3.879   8.756   9.980
 6959SOL     OW22773  10.487  10.901   4.885
 6959SOL    HW122774  10.511  10.815   4.850
 6959SOL    HW222775  10.418  10.933   4.826
 6960SOL     OW22776  12.428  13.571   5.595
 6960SOL    HW122777  12.474  13.574   5.511
 6960SOL    HW222778  12.450  13.485   5.631
 6961SOL     OW22779  14.634   1.724   6.415
 6961SOL    HW122780  14.600   1.801   6.460
 6961SOL    HW222781  14.560   1.694   6.362
 6962SOL     OW22782  14.505  13.057   0.069
 6962SOL    HW122783  14.532  13.100   0.150
 6962SOL    HW222784  14.449  12.985   0.097
 6963SOL     OW22785   3.274  13.034   0.337
 6963SOL    HW122786   3.242  13.105   0.393
 6963SOL    HW222787   3.283  13.073   0.250
 6964SOL     OW22788  14.622   2.025  14.746
 6964SOL    HW122789  14.528   2.009  14.743
 6964SOL    HW222790  14.635   2.079  14.824
 6965SOL     OW22791  12.066  14.340   2.813
 6965SOL    HW122792  12.115  14.381   2.884
 6965SOL    HW222793  12.124  14.348   2.736
 6966SOL     OW22794   4.122  12.440   8.762
 6966SOL    HW122795   4.126  12.387   8.841
 6966SOL    HW222796   4.029  12.453   8.746
 6967SOL     OW22797  10.468  10.294   4.428
 6967SOL    HW122798  10.523  10.370   4.443
 6967SOL    HW222799  10.525  10.219   4.445
 6968SOL     OW22800   4.777   8.969   7.346
 6968SOL    HW122801   4.703   8.999   7.399
 6968SOL    HW222802   4.738   8.940   7.264
 6969SOL     OW22803   8.304   2.096  14.661
 6969SOL    HW122804   8.234   2.073  14.601
 6969SOL    HW222805   8.385   2.083  14.611
 6970SOL     OW22806   2.220  12.442  13.158
 6970SOL    HW122807   2.270  12.521  13.179
 6970SOL    HW222808   2.184  12.459  13.071
 6971SOL     OW22809   4.026   7.210   4.368
 6971SOL    HW122810   3.973   7.202   4.288
 6971SOL    HW222811   4.019   7.302   4.393
 6972SOL     OW22812  14.440  13.303   4.787
 6972SOL    HW122813  14.461  13.349   4.706
 6972SOL    HW222814  14.440  13.210   4.762
 6973SOL     OW22815   2.747   2.932   2.905
 6973SOL    HW122816   2.782   2.978   2.981
 6973SOL    HW222817   2.774   2.841   2.917
 6974SOL     OW22818  11.881   5.231  11.835
 6974SOL    HW122819  11.870   5.158  11.774
 6974SOL    HW222820  11.875   5.190  11.921
 6975SOL     OW22821   2.720   6.540   3.981
 6975SOL    HW122822   2.746   6.460   4.026
 6975SOL    HW222823   2.661   6.511   3.911
 6976SOL     OW22824   2.765   7.953  10.217
 6976SOL    HW122825   2.853   7.980  10.243
 6976SOL    HW222826   2.714   7.959  10.298
 6977SOL     OW22827  13.881   5.831   5.112
 6977SOL    HW122828  13.931   5.859   5.188
 6977SOL    HW222829  13.854   5.741   5.133
 6978SOL     OW22830  11.261   0.021  13.762
 6978SOL    HW122831  11.174   0.059  13.775
 6978SOL    HW222832  11.313   0.093  13.726
 6979SOL     OW22833   6.592  10.179   7.244
 6979SOL    HW122834   6.609  10.094   7.285
 6979SOL    HW222835   6.658  10.186   7.175
 6980SOL     OW22836  13.810   7.823   8.389
 6980SOL    HW122837  13.855   7.771   8.323
 6980SOL    HW222838  13.802   7.764   8.464
 6981SOL     OW22839   9.033  12.626  11.152
 6981SOL    HW122840   9.073  12.655  11.233
 6981SOL    HW222841   9.098  12.644  11.085
 6982SOL     OW22842   4.749   0.041  14.571
 6982SOL    HW122843   4.776   0.084  14.652
 6982SOL    HW222844   4.664   0.081  14.550
 6983SOL     OW22845  11.526  11.671   8.451
 6983SOL    HW122846  11.608  11.639   8.489
 6983SOL    HW222847  11.508  11.611   8.379
 6984SOL     OW22848   8.034   5.414  14.142
 6984SOL    HW122849   8.062   5.347  14.205
 6984SOL    HW222850   8.096   5.485  14.154
 6985SOL     OW22851   8.624   2.975   9.069
 6985SOL    HW122852   8.598   3.061   9.104
 6985SOL    HW222853   8.691   2.945   9.130
 6986SOL     OW22854  14.792   3.743   8.646
 6986SOL    HW122855  14.762   3.834   8.635
 6986SOL    HW222856  14.768   3.700   8.564
 6987SOL     OW22857  13.803  11.504  12.776
 6987SOL    HW122858  13.708  11.492  12.775
 6987SOL    HW222859  13.839  11.416  12.762
 6988SOL     OW22860   3.774   8.881   3.774
 6988SOL    HW122861   3.817   8.804   3.737
 6988SOL    HW222862   3.694   8.846   3.815
 6989SOL     OW22863   4.969   5.877  11.622
 6989SOL    HW122864   5.065   5.877  11.624
 6989SOL    HW222865   4.944   5.847  11.709
 6990SOL     OW22866  10.234   1.377  10.505
 6990SOL    HW122867  10.323   1.375  10.469
 6990SOL    HW222868  10.193   1.453  10.463
 6991SOL     OW22869  12.530   8.472   6.189
 6991SOL    HW122870  12.510   8.424   6.109
 6991SOL    HW222871  12.545   8.403   6.254
 6992SOL     OW22872  10.328   7.418   2.500
 6992SOL    HW122873  10.244   7.405   2.458
 6992SOL    HW222874  10.332   7.350   2.567
 6993SOL     OW22875   1.051   0.237  14.731
 6993SOL    HW122876   1.137   0.228  14.770
 6993SOL    HW222877   0.990   0.209  14.799
 6994SOL     OW22878  14.753  14.027   6.073
 6994SOL    HW122879  14.700  14.070   6.005
 6994SOL    HW222880  14.750  14.087   6.147
 6995SOL     OW22881   1.644   5.588   2.153
 6995SOL    HW122882   1.576   5.529   2.186
 6995SOL    HW222883   1.692   5.536   2.089
 6996SOL     OW22884   7.143  11.298   7.560
 6996SOL    HW122885   7.184  11.309   7.645
 6996SOL    HW222886   7.215  11.278   7.500
 6997SOL     OW22887  14.819  11.834  13.493
 6997SOL    HW122888  14.739  11.813  13.444
 6997SOL    HW222889   0.017  11.778  13.454
 6998SOL     OW22890  14.375   0.614   2.621
 6998SOL    HW122891  14.469   0.599   2.613
 6998SOL    HW222892  14.338   0.526   2.635
 6999SOL     OW22893   9.349   0.754  12.099
 6999SOL    HW122894   9.420   0.779  12.159
 6999SOL    HW222895   9.337   0.660  12.114
 7000SOL     OW22896   5.873  11.767  11.333
 7000SOL    HW122897   5.882  11.830  11.261
 7000SOL    HW222898   5.902  11.684  11.295
 7001SOL     OW22899   0.437  10.909  14.469
 7001SOL    HW122900   0.507  10.849  14.444
 7001SOL    HW222901   0.478  10.995  14.469
 7002SOL     OW22902   3.120  13.232  11.058
 7002SOL    HW122903   3.055  13.302  11.046
 7002SOL    HW222904   3.197  13.263  11.011
 7003SOL     OW22905  12.525   5.636   2.505
 7003SOL    HW122906  12.530   5.541   2.508
 7003SOL    HW222907  12.481   5.661   2.586
 7004SOL     OW22908  11.476   4.495   8.839
 7004SOL    HW122909  11.542   4.498   8.909
 7004SOL    HW222910  11.392   4.503   8.884
 7005SOL     OW22911  10.884  11.278   7.963
 7005SOL    HW122912  10.870  11.196   8.010
 7005SOL    HW222913  10.890  11.253   7.871
 7006SOL     OW22914   4.668   5.067   3.777
 7006SOL    HW122915   4.753   5.072   3.820
 7006SOL    HW222916   4.604   5.078   3.847
 7007SOL     OW22917  10.630   9.102   0.840
 7007SOL    HW122918  10.689   9.108   0.915
 7007SOL    HW222919  10.591   9.014   0.847
 7008SOL     OW22920   3.714   1.112  11.044
 7008SOL    HW122921   3.779   1.139  11.108
 7008SOL    HW222922   3.708   1.185  10.982
 7009SOL     OW22923   7.241   1.269  12.274
 7009SOL    HW122924   7.304   1.277  12.203
 7009SOL    HW222925   7.160   1.307  12.240
 7010SOL     OW22926   4.551   2.845  10.380
 7010SOL    HW122927   4.591   2.917  10.428
 7010SOL    HW222928   4.562   2.769  10.437
 7011SOL     OW22929  11.126   1.722   4.639
 7011SOL    HW122930  11.162   1.753   4.556
 7011SOL    HW222931  11.173   1.640   4.656
 7012SOL     OW22932   3.741  13.555   3.071
 7012SOL    HW122933   3.773  13.476   3.115
 7012SOL    HW222934   3.796  13.563   2.993
 7013SOL     OW22935   6.897  12.418  12.123
 7013SOL    HW122936   6.883  12.384  12.035
 7013SOL    HW222937   6.906  12.512  12.111
 7014SOL     OW22938   8.028   3.598   9.691
 7014SOL    HW122939   8.044   3.577   9.783
 7014SOL    HW222940   8.090   3.668   9.671
 7015SOL     OW22941   1.017   3.434  12.305
 7015SOL    HW122942   0.966   3.354  12.310
 7015SOL    HW222943   0.968   3.490  12.244
 7016SOL     OW22944  12.896   4.920  14.396
 7016SOL    HW122945  12.898   4.835  14.353
 7016SOL    HW222946  12.824   4.967  14.354
 7017SOL     OW22947   7.711  12.609   5.212
 7017SOL    HW122948   7.681  12.596   5.122
 7017SOL    HW222949   7.704  12.523   5.253
 7018SOL     OW22950  14.515  11.403  14.815
 7018SOL    HW122951  14.463  11.393  14.735
 7018SOL    HW222952  14.460  11.456   0.003
 7019SOL     OW22953   7.775   1.835   0.644
 7019SOL    HW122954   7.737   1.755   0.679
 7019SOL    HW222955   7.711   1.867   0.580
 7020SOL     OW22956  13.938  12.650  14.703
 7020SOL    HW122957  13.871  12.585  14.724
 7020SOL    HW222958  14.018  12.614  14.740
 7021SOL     OW22959  14.726   8.581   4.330
 7021SOL    HW122960  14.635   8.603   4.311
 7021SOL    HW222961  14.756   8.649   4.389
 7022SOL     OW22962   0.866  10.391   8.151
 7022SOL    HW122963   0.950  10.348   8.164
 7022SOL    HW222964   0.806  10.345   8.210
 7023SOL     OW22965  11.672  14.446   8.111
 7023SOL    HW122966  11.716  14.410   8.188
 7023SOL    HW222967  11.584  14.467   8.140
 7024SOL     OW22968   4.031   9.527   1.403
 7024SOL    HW122969   3.997   9.547   1.316
 7024SOL    HW222970   4.051   9.613   1.441
 7025SOL     OW22971   0.993  14.864  10.385
 7025SOL    HW122972   0.993   0.090  10.379
 7025SOL    HW222973   0.925  14.836  10.323
 7026SOL     OW22974  11.781  11.232   6.159
 7026SOL    HW122975  11.692  11.211   6.186
 7026SOL    HW222976  11.834  11.159   6.189
 7027SOL     OW22977  10.210   3.855  10.521
 7027SOL    HW122978  10.259   3.847  10.439
 7027SOL    HW222979  10.221   3.770  10.564
 7028SOL     OW22980   7.928  11.055   4.063
 7028SOL    HW122981   7.947  11.040   3.970
 7028SOL    HW222982   7.849  11.003   4.079
 7029SOL     OW22983   3.192   8.069   0.043
 7029SOL    HW122984   3.155   8.157   0.052
 7029SOL    HW222985   3.168   8.042  14.824
 7030SOL     OW22986   6.772  11.988  13.744
 7030SOL    HW122987   6.692  12.038  13.764
 7030SOL    HW222988   6.811  11.971  13.829
 7031SOL     OW22989   4.949   0.308   8.344
 7031SOL    HW122990   5.022   0.249   8.362
 7031SOL    HW222991   4.990   0.389   8.314
 7032SOL     OW22992   2.006   4.708   3.469
 7032SOL    HW122993   2.054   4.683   3.390
 7032SOL    HW222994   2.029   4.640   3.533
 7033SOL     OW22995  14.072   0.619   7.227
 7033SOL    HW122996  14.014   0.544   7.241
 7033SOL    HW222997  14.012   0.693   7.219
 7034SOL     OW22998   5.758  14.574   0.300
 7034SOL    HW122999   5.822  14.641   0.327
 7034SOL    HW223000   5.702  14.562   0.377
 7035SOL     OW23001  13.921   0.057  11.699
 7035SOL    HW123002  13.944   0.093  11.614
 7035SOL    HW223003  13.959  14.839  11.700
 7036SOL     OW23004   8.256   8.703   4.516
 7036SOL    HW123005   8.209   8.770   4.466
 7036SOL    HW223006   8.337   8.747   4.543
 7037SOL     OW23007  14.007  14.282   0.335
 7037SOL    HW123008  14.094  14.270   0.298
 7037SOL    HW223009  14.015  14.362   0.388
 7038SOL     OW23010   4.750   0.624   4.715
 7038SOL    HW123011   4.787   0.587   4.635
 7038SOL    HW223012   4.816   0.608   4.782
 7039SOL     OW23013   0.249   4.976  12.632
 7039SOL    HW123014   0.332   5.012  12.664
 7039SOL    HW223015   0.199   4.956  12.711
 7040SOL     OW23016   5.257   7.946  11.743
 7040SOL    HW123017   5.202   7.873  11.715
 7040SOL    HW223018   5.257   8.006  11.668
 7041SOL     OW23019  14.682   8.302   6.890
 7041SOL    HW123020  14.639   8.315   6.974
 7041SOL    HW223021  14.765   8.259   6.911
 7042SOL     OW23022  12.207   1.272  13.283
 7042SOL    HW123023  12.235   1.266  13.374
 7042SOL    HW223024  12.284   1.299  13.234
 7043SOL     OW23025  13.022   9.779  12.947
 7043SOL    HW123026  12.958   9.741  12.887
 7043SOL    HW223027  12.969   9.822  13.014
 7044SOL     OW23028  11.653  12.509   7.614
 7044SOL    HW123029  11.629  12.517   7.521
 7044SOL    HW223030  11.572  12.525   7.661
 7045SOL     OW23031   1.427   3.812   3.834
 7045SOL    HW123032   1.416   3.840   3.925
 7045SOL    HW223033   1.430   3.717   3.838
 7046SOL     OW23034  14.688  14.558  14.139
 7046SOL    HW123035  14.738  14.522  14.066
 7046SOL    HW223036  14.747  14.549  14.214
 7047SOL     OW23037   2.045   3.722   0.960
 7047SOL    HW123038   2.078   3.669   0.887
 7047SOL    HW223039   1.950   3.710   0.958
 7048SOL     OW23040   3.902   6.884  13.972
 7048SOL    HW123041   3.977   6.825  13.970
 7048SOL    HW223042   3.826   6.829  13.955
 7049SOL     OW23043  11.921   4.443  12.144
 7049SOL    HW123044  11.931   4.406  12.056
 7049SOL    HW223045  11.875   4.375  12.193
 7050SOL     OW23046   2.052   3.120  14.487
 7050SOL    HW123047   1.983   3.076  14.437
 7050SOL    HW223048   2.111   3.155  14.420
 7051SOL     OW23049  12.356  11.916   0.771
 7051SOL    HW123050  12.322  11.865   0.697
 7051SOL    HW223051  12.321  12.004   0.757
 7052SOL     OW23052   2.637   5.529   6.284
 7052SOL    HW123053   2.542   5.533   6.272
 7052SOL    HW223054   2.656   5.436   6.291
 7053SOL     OW23055   3.490   5.196  11.227
 7053SOL    HW123056   3.462   5.263  11.290
 7053SOL    HW223057   3.545   5.137  11.278
 7054SOL     OW23058  14.674  11.245  10.439
 7054SOL    HW123059  14.581  11.258  10.460
 7054SOL    HW223060  14.674  11.230  10.344
 7055SOL     OW23061   5.292   1.828   6.062
 7055SOL    HW123062   5.218   1.887   6.050
 7055SOL    HW223063   5.366   1.886   6.080
 7056SOL     OW23064   0.637   5.024   4.553
 7056SOL    HW123065   0.632   5.059   4.642
 7056SOL    HW223066   0.568   5.071   4.505
 7057SOL     OW23067   7.180   8.672  10.586
 7057SOL    HW123068   7.206   8.644  10.674
 7057SOL    HW223069   7.103   8.619  10.566
 7058SOL     OW23070  13.201  10.899   6.722
 7058SOL    HW123071  13.248  10.972   6.761
 7058SOL    HW223072  13.110  10.913   6.749
 7059SOL     OW23073   3.048  11.058   4.069
 7059SOL    HW123074   3.099  11.111   4.007
 7059SOL    HW223075   3.047  11.111   4.150
 7060SOL     OW23076   3.118  12.054  13.614
 7060SOL    HW123077   3.077  11.968  13.627
 7060SOL    HW223078   3.093  12.079  13.525
 7061SOL     OW23079   0.992   4.673  14.788
 7061SOL    HW123080   0.936   4.599  14.809
 7061SOL    HW223081   1.066   4.634  14.741
 7062SOL     OW23082   2.092  11.577   9.835
 7062SOL    HW123083   2.080  11.641   9.765
 7062SOL    HW223084   2.140  11.625   9.903
 7063SOL     OW23085  14.358   2.396   8.112
 7063SOL    HW123086  14.445   2.416   8.148
 7063SOL    HW223087  14.311   2.357   8.185
 7064SOL     OW23088   1.632  11.294  13.605
 7064SOL    HW123089   1.644  11.388  13.611
 7064SOL    HW223090   1.626  11.265  13.696
 7065SOL     OW23091   7.867  14.770   8.479
 7065SOL    HW123092   7.837  14.734   8.396
 7065SOL    HW223093   7.880  14.694   8.536
 7066SOL     OW23094  13.573   9.451   9.371
 7066SOL    HW123095  13.628   9.521   9.337
 7066SOL    HW223096  13.495   9.495   9.403
 7067SOL     OW23097   2.405   6.017  10.451
 7067SOL    HW123098   2.423   5.925  10.433
 7067SOL    HW223099   2.417   6.061  10.366
 7068SOL     OW23100   8.131  10.184  12.063
 7068SOL    HW123101   8.105  10.134  12.140
 7068SOL    HW223102   8.061  10.247  12.049
 7069SOL     OW23103   6.636   0.201  11.899
 7069SOL    HW123104   6.595   0.271  11.949
 7069SOL    HW223105   6.563   0.147  11.870
 7070SOL     OW23106   0.327  11.904  11.006
 7070SOL    HW123107   0.320  11.816  10.968
 7070SOL    HW223108   0.319  11.890  11.100
 7071SOL     OW23109   6.986   2.432   7.227
 7071SOL    HW123110   6.901   2.392   7.210
 7071SOL    HW223111   7.050   2.365   7.204
 7072SOL     OW23112  13.624  10.638  12.857
 7072SOL    HW123113  13.695  10.660  12.917
 7072SOL    HW223114  13.598  10.549  12.882
 7073SOL     OW23115   3.374   1.749   4.167
 7073SOL    HW123116   3.366   1.695   4.088
 7073SOL    HW223117   3.430   1.822   4.140
 7074SOL     OW23118   9.907  12.390   2.004
 7074SOL    HW123119   9.831  12.436   1.968
 7074SOL    HW223120   9.978  12.453   1.996
 7075SOL     OW23121  12.018   7.972   9.779
 7075SOL    HW123122  12.009   7.900   9.841
 7075SOL    HW223123  11.930   7.985   9.744
 7076SOL     OW23124  14.707  14.317  11.160
 7076SOL    HW123125  14.618  14.282  11.156
 7076SOL    HW223126  14.726  14.345  11.070
 7077SOL     OW23127  13.705   7.671  11.033
 7077SOL    HW123128  13.641   7.723  11.083
 7077SOL    HW223129  13.720   7.721  10.953
 7078SOL     OW23130   6.064   0.547   6.466
 7078SOL    HW123131   6.082   0.635   6.500
 7078SOL    HW223132   6.146   0.518   6.428
 7079SOL     OW23133   5.598   7.318  11.420
 7079SOL    HW123134   5.552   7.322  11.503
 7079SOL    HW223135   5.675   7.374  11.433
 7080SOL     OW23136   8.716   0.116   6.359
 7080SOL    HW123137   8.634   0.076   6.387
 7080SOL    HW223138   8.708   0.124   6.264
 7081SOL     OW23139   7.172  11.900   4.376
 7081SOL    HW123140   7.216  11.857   4.303
 7081SOL    HW223141   7.232  11.889   4.450
 7082SOL     OW23142  11.701   6.751   2.312
 7082SOL    HW123143  11.728   6.664   2.341
 7082SOL    HW223144  11.674   6.739   2.222
 7083SOL     OW23145  11.463   4.685   8.640
 7083SOL    HW123146  11.466   4.630   8.718
 7083SOL    HW223147  11.465   4.624   8.567
 7084SOL     OW23148   9.059   2.588   4.809
 7084SOL    HW123149   9.152   2.602   4.831
 7084SOL    HW223150   9.025   2.676   4.793
 7085SOL     OW23151   3.557   9.838   6.172
 7085SOL    HW123152   3.478   9.881   6.142
 7085SOL    HW223153   3.531   9.746   6.183
 7086SOL     OW23154  11.548   9.780   7.424
 7086SOL    HW123155  11.627   9.734   7.394
 7086SOL    HW223156  11.551   9.772   7.519
 7087SOL     OW23157  12.034   2.181   7.353
 7087SOL    HW123158  12.036   2.088   7.374
 7087SOL    HW223159  11.950   2.194   7.309
 7088SOL     OW23160   6.676   6.280   7.164
 7088SOL    HW123161   6.632   6.297   7.248
 7088SOL    HW223162   6.681   6.365   7.121
 7089SOL     OW23163  12.284  10.728   3.871
 7089SOL    HW123164  12.274  10.682   3.954
 7089SOL    HW223165  12.352  10.793   3.888
 7090SOL     OW23166   4.698   3.833   6.469
 7090SOL    HW123167   4.692   3.905   6.531
 7090SOL    HW223168   4.742   3.869   6.393
 7091SOL     OW23169   0.574   5.655  14.777
 7091SOL    HW123170   0.611   5.705  14.850
 7091SOL    HW223171   0.535   5.578  14.817
 7092SOL     OW23172  14.379   3.204   3.749
 7092SOL    HW123173  14.289   3.177   3.769
 7092SOL    HW223174  14.372   3.257   3.670
 7093SOL     OW23175  10.447   4.749  10.701
 7093SOL    HW123176  10.451   4.836  10.739
 7093SOL    HW223177  10.357   4.741  10.667
 7094SOL     OW23178   2.838   3.539   8.940
 7094SOL    HW123179   2.867   3.557   9.029
 7094SOL    HW223180   2.884   3.458   8.916
 7095SOL     OW23181   6.741  12.319  12.523
 7095SOL    HW123182   6.821  12.267  12.528
 7095SOL    HW223183   6.671  12.256  12.536
 7096SOL     OW23184   9.135   0.129   7.493
 7096SOL    HW123185   9.056   0.081   7.519
 7096SOL    HW223186   9.114   0.163   7.406
 7097SOL     OW23187   6.186   1.204   7.758
 7097SOL    HW123188   6.141   1.180   7.839
 7097SOL    HW223189   6.241   1.128   7.739
 7098SOL     OW23190  11.156   9.623   2.020
 7098SOL    HW123191  11.201   9.626   2.104
 7098SOL    HW223192  11.097   9.548   2.027
 7099SOL     OW23193  10.364  14.229   1.856
 7099SOL    HW123194  10.405  14.314   1.839
 7099SOL    HW223195  10.432  14.165   1.834
 7100SOL     OW23196  11.677   2.888  11.757
 7100SOL    HW123197  11.587   2.903  11.786
 7100SOL    HW223198  11.717   2.975  11.756
 7101SOL     OW23199   5.254   9.829  14.039
 7101SOL    HW123200   5.301   9.903  14.000
 7101SOL    HW223201   5.162   9.846  14.020
 7102SOL     OW23202   9.898  14.855   2.573
 7102SOL    HW123203   9.892  14.769   2.534
 7102SOL    HW223204   9.948   0.038   2.510
 7103SOL     OW23205   7.442  10.874   3.504
 7103SOL    HW123206   7.456  10.943   3.439
 7103SOL    HW223207   7.439  10.921   3.588
 7104SOL     OW23208  11.226   2.891   6.389
 7104SOL    HW123209  11.299   2.949   6.367
 7104SOL    HW223210  11.164   2.947   6.435
 7105SOL     OW23211  13.163  11.779   8.336
 7105SOL    HW123212  13.145  11.741   8.250
 7105SOL    HW223213  13.146  11.708   8.397
 7106SOL     OW23214   3.623  10.781   3.224
 7106SOL    HW123215   3.699  10.732   3.254
 7106SOL    HW223216   3.619  10.766   3.129
 7107SOL     OW23217  12.709  14.444   5.848
 7107SOL    HW123218  12.670  14.391   5.779
 7107SOL    HW223219  12.675  14.532   5.832
 7108SOL     OW23220   8.398   4.529   2.553
 7108SOL    HW123221   8.357   4.452   2.592
 7108SOL    HW223222   8.491   4.507   2.546
 7109SOL     OW23223   1.776   2.486  12.146
 7109SOL    HW123224   1.724   2.501  12.068
 7109SOL    HW223225   1.714   2.452  12.211
 7110SOL     OW23226  13.677  10.939  14.167
 7110SOL    HW123227  13.695  10.852  14.203
 7110SOL    HW223228  13.714  10.937  14.079
 7111SOL     OW23229   0.429   5.976  13.003
 7111SOL    HW123230   0.363   5.921  12.961
 7111SOL    HW223231   0.382   6.058  13.022
 7112SOL     OW23232   1.719   4.365   8.007
 7112SOL    HW123233   1.689   4.364   7.916
 7112SOL    HW223234   1.676   4.290   8.047
 7113SOL     OW23235   3.592   1.412   7.385
 7113SOL    HW123236   3.540   1.398   7.464
 7113SOL    HW223237   3.563   1.497   7.353
 7114SOL     OW23238  10.855   4.779   3.866
 7114SOL    HW123239  10.919   4.709   3.875
 7114SOL    HW223240  10.901   4.858   3.893
 7115SOL     OW23241  11.212   2.301   7.747
 7115SOL    HW123242  11.171   2.323   7.663
 7115SOL    HW223243  11.138   2.283   7.806
 7116SOL     OW23244   0.581  12.400   6.936
 7116SOL    HW123245   0.635  12.468   6.896
 7116SOL    HW223246   0.565  12.431   7.025
 7117SOL     OW23247  14.045  10.442   4.898
 7117SOL    HW123248  13.971  10.475   4.847
 7117SOL    HW223249  14.067  10.358   4.858
 7118SOL     OW23250  10.430   9.659   7.767
 7118SOL    HW123251  10.385   9.650   7.851
 7118SOL    HW223252  10.521   9.677   7.790
 7119SOL     OW23253  10.832  13.645   1.120
 7119SOL    HW123254  10.840  13.740   1.111
 7119SOL    HW223255  10.886  13.623   1.196
 7120SOL     OW23256  10.380   8.823   5.002
 7120SOL    HW123257  10.437   8.772   4.945
 7120SOL    HW223258  10.360   8.765   5.075
 7121SOL     OW23259   8.270   9.613  10.272
 7121SOL    HW123260   8.193   9.581  10.225
 7121SOL    HW223261   8.334   9.632  10.204
 7122SOL     OW23262   1.488   4.836  10.675
 7122SOL    HW123263   1.493   4.851  10.581
 7122SOL    HW223264   1.396   4.853  10.698
 7123SOL     OW23265  11.986  12.381   8.993
 7123SOL    HW123266  12.081  12.377   9.003
 7123SOL    HW223267  11.970  12.352   8.903
 7124SOL     OW23268   6.046   9.552   1.174
 7124SOL    HW123269   6.109   9.512   1.114
 7124SOL    HW223270   6.028   9.638   1.137
 7125SOL     OW23271  13.257   7.906   8.736
 7125SOL    HW123272  13.248   7.812   8.718
 7125SOL    HW223273  13.345   7.928   8.704
 7126SOL     OW23274   7.486  12.661  11.133
 7126SOL    HW123275   7.523  12.749  11.139
 7126SOL    HW223276   7.479  12.632  11.224
 7127SOL     OW23277   5.771  14.408  13.579
 7127SOL    HW123278   5.680  14.415  13.609
 7127SOL    HW223279   5.780  14.316  13.555
 7128SOL     OW23280  13.488   0.035   9.118
 7128SOL    HW123281  13.520  14.824   9.157
 7128SOL    HW223282  13.486   0.098   9.190
 7129SOL     OW23283   0.383  12.855   3.568
 7129SOL    HW123284   0.334  12.851   3.486
 7129SOL    HW223285   0.430  12.772   3.573
 7130SOL     OW23286  14.206   1.343  11.454
 7130SOL    HW123287  14.252   1.299  11.525
 7130SOL    HW223288  14.149   1.406  11.498
 7131SOL     OW23289  10.530   1.153   1.109
 7131SOL    HW123290  10.547   1.150   1.015
 7131SOL    HW223291  10.614   1.179   1.148
 7132SOL     OW23292   7.387  11.465  12.383
 7132SOL    HW123293   7.433  11.414  12.316
 7132SOL    HW223294   7.423  11.553  12.375
 7133SOL     OW23295   8.156   8.877   0.189
 7133SOL    HW123296   8.237   8.911   0.228
 7133SOL    HW223297   8.183   8.802   0.138
 7134SOL     OW23298   2.375  10.086  11.142
 7134SOL    HW123299   2.286  10.060  11.120
 7134SOL    HW223300   2.384  10.066  11.235
 7135SOL     OW23301   7.838   6.984   4.408
 7135SOL    HW123302   7.880   6.937   4.336
 7135SOL    HW223303   7.903   7.050   4.434
 7136SOL     OW23304   3.752   0.101   0.450
 7136SOL    HW123305   3.766   0.012   0.419
 7136SOL    HW223306   3.835   0.127   0.488
 7137SOL     OW23307  14.770  13.529  11.849
 7137SOL    HW123308  14.826  13.537  11.927
 7137SOL    HW223309  14.697  13.474  11.878
 7138SOL     OW23310  14.637   3.853  10.404
 7138SOL    HW123311  14.694   3.818  10.472
 7138SOL    HW223312  14.563   3.793  10.400
 7139SOL     OW23313   5.715   9.971   7.910
 7139SOL    HW123314   5.806   9.997   7.928
 7139SOL    HW223315   5.664  10.049   7.929
 7140SOL     OW23316   7.871   6.927   0.409
 7140SOL    HW123317   7.810   6.951   0.339
 7140SOL    HW223318   7.940   6.993   0.403
 7141SOL     OW23319   8.561   6.877   0.297
 7141SOL    HW123320   8.475   6.843   0.319
 7141SOL    HW223321   8.582   6.939   0.367
 7142SOL     OW23322   3.820  10.222   3.828
 7142SOL    HW123323   3.804  10.282   3.755
 7142SOL    HW223324   3.833  10.280   3.903
 7143SOL     OW23325   7.979  12.079   2.875
 7143SOL    HW123326   7.993  12.073   2.780
 7143SOL    HW223327   7.979  12.172   2.894
 7144SOL     OW23328  13.481  12.576   4.588
 7144SOL    HW123329  13.555  12.622   4.549
 7144SOL    HW223330  13.428  12.550   4.513
 7145SOL     OW23331  10.069   6.214   1.992
 7145SOL    HW123332  10.046   6.124   2.015
 7145SOL    HW223333  10.015   6.268   2.049
 7146SOL     OW23334   7.981  11.678   2.135
 7146SOL    HW123335   7.922  11.726   2.193
 7146SOL    HW223336   8.024  11.746   2.083
 7147SOL     OW23337   6.299   3.470  10.918
 7147SOL    HW123338   6.282   3.409  10.989
 7147SOL    HW223339   6.389   3.500  10.933
 7148SOL     OW23340  14.705   1.371   8.943
 7148SOL    HW123341  14.610   1.357   8.942
 7148SOL    HW223342  14.737   1.311   9.011
 7149SOL     OW23343   1.167   7.459   9.570
 7149SOL    HW123344   1.245   7.423   9.610
 7149SOL    HW223345   1.101   7.458   9.639
 7150SOL     OW23346   2.989   9.830   5.963
 7150SOL    HW123347   3.014   9.919   5.988
 7150SOL    HW223348   3.026   9.819   5.876
 7151SOL     OW23349  14.662  13.459   8.554
 7151SOL    HW123350  14.597  13.522   8.585
 7151SOL    HW223351  14.611  13.394   8.505
 7152SOL     OW23352  14.671  10.384  12.543
 7152SOL    HW123353  14.713  10.327  12.479
 7152SOL    HW223354  14.584  10.401  12.507
 7153SOL     OW23355  10.242  12.946   1.351
 7153SOL    HW123356  10.160  12.905   1.324
 7153SOL    HW223357  10.270  12.996   1.275
 7154SOL     OW23358   0.240   6.368   5.059
 7154SOL    HW123359   0.330   6.350   5.085
 7154SOL    HW223360   0.248   6.403   4.970
 7155SOL     OW23361   4.388   8.590   7.084
 7155SOL    HW123362   4.431   8.511   7.119
 7155SOL    HW223363   4.429   8.603   6.998
 7156SOL     OW23364   0.561   6.814   8.532
 7156SOL    HW123365   0.633   6.866   8.567
 7156SOL    HW223366   0.550   6.742   8.594
 7157SOL     OW23367  13.127  10.192   4.310
 7157SOL    HW123368  13.193  10.194   4.379
 7157SOL    HW223369  13.054  10.144   4.349
 7158SOL     OW23370   2.156   4.718   2.800
 7158SOL    HW123371   2.190   4.792   2.850
 7158SOL    HW223372   2.061   4.728   2.804
 7159SOL     OW23373  14.231   7.110   8.479
 7159SOL    HW123374  14.152   7.061   8.503
 7159SOL    HW223375  14.213   7.144   8.392
 7160SOL     OW23376   7.814   6.667   1.670
 7160SOL    HW123377   7.781   6.744   1.717
 7160SOL    HW223378   7.862   6.618   1.736
 7161SOL     OW23379   6.586  14.188  11.861
 7161SOL    HW123380   6.656  14.243  11.894
 7161SOL    HW223381   6.618  14.156  11.777
 7162SOL     OW23382  12.253   9.378   2.275
 7162SOL    HW123383  12.336   9.423   2.293
 7162SOL    HW223384  12.220   9.352   2.361
 7163SOL     OW23385   7.257   0.818   2.691
 7163SOL    HW123386   7.188   0.784   2.634
 7163SOL    HW223387   7.263   0.911   2.669
 7164SOL     OW23388   6.935  13.115   1.645
 7164SOL    HW123389   6.926  13.157   1.559
 7164SOL    HW223390   6.906  13.025   1.630
 7165SOL     OW23391  11.577   6.148  12.696
 7165SOL    HW123392  11.506   6.083  12.701
 7165SOL    HW223393  11.537   6.229  12.729
 7166SOL     OW23394   5.918   9.792  10.592
 7166SOL    HW123395   5.960   9.826  10.513
 7166SOL    HW223396   5.935   9.858  10.659
 7167SOL     OW23397   0.084   6.376  12.311
 7167SOL    HW123398   0.049   6.325  12.238
 7167SOL    HW223399   0.026   6.452  12.318
 7168SOL     OW23400   1.544  10.948   4.251
 7168SOL    HW123401   1.487  11.020   4.223
 7168SOL    HW223402   1.544  10.888   4.177
 7169SOL     OW23403   2.363   6.794   5.723
 7169SOL    HW123404   2.390   6.714   5.678
 7169SOL    HW223405   2.312   6.843   5.657
 7170SOL     OW23406   7.656  11.399   2.257
 7170SOL    HW123407   7.699  11.458   2.319
 7170SOL    HW223408   7.723  11.380   2.191
 7171SOL     OW23409  11.465   8.596   4.703
 7171SOL    HW123410  11.517   8.553   4.636
 7171SOL    HW223411  11.377   8.601   4.666
 7172SOL     OW23412   6.439   7.367  12.634
 7172SOL    HW123413   6.496   7.293  12.651
 7172SOL    HW223414   6.361   7.350  12.687
 7173SOL     OW23415  11.036  13.839   8.751
 7173SOL    HW123416  10.967  13.814   8.813
 7173SOL    HW223417  11.087  13.758   8.738
 7174SOL     OW23418   7.179   5.051   4.552
 7174SOL    HW123419   7.087   5.080   4.555
 7174SOL    HW223420   7.180   4.979   4.490
 7175SOL     OW23421   1.656  11.105  11.797
 7175SOL    HW123422   1.673  11.019  11.835
 7175SOL    HW223423   1.584  11.090  11.736
 7176SOL     OW23424  14.728   1.761  14.736
 7176SOL    HW123425  14.792   1.786  14.669
 7176SOL    HW223426  14.721   1.838  14.792
 7177SOL     OW23427   3.370   6.940  10.289
 7177SOL    HW123428   3.348   7.020  10.337
 7177SOL    HW223429   3.378   6.873  10.357
 7178SOL     OW23430  12.557  11.165   5.069
 7178SOL    HW123431  12.591  11.221   5.000
 7178SOL    HW223432  12.608  11.085   5.063
 7179SOL     OW23433   2.749   2.532   9.524
 7179SOL    HW123434   2.679   2.537   9.458
 7179SOL    HW223435   2.710   2.482   9.596
 7180SOL     OW23436  12.765   3.250   4.582
 7180SOL    HW123437  12.852   3.215   4.560
 7180SOL    HW223438  12.706   3.174   4.574
 7181SOL     OW23439   1.939  13.905  10.770
 7181SOL    HW123440   1.880  13.871  10.703
 7181SOL    HW223441   1.885  13.911  10.848
 7182SOL     OW23442   1.867   6.033   9.337
 7182SOL    HW123443   1.840   6.078   9.418
 7182SOL    HW223444   1.803   5.963   9.326
 7183SOL     OW23445  13.244   8.677  12.057
 7183SOL    HW123446  13.262   8.695  12.149
 7183SOL    HW223447  13.274   8.755  12.010
 7184SOL     OW23448   3.509  10.102   0.739
 7184SOL    HW123449   3.451  10.078   0.667
 7184SOL    HW223450   3.475  10.056   0.815
 7185SOL     OW23451   2.063  14.741  13.420
 7185SOL    HW123452   2.000  14.678  13.455
 7185SOL    HW223453   2.009  14.811  13.385
 7186SOL     OW23454   3.479   5.857   6.696
 7186SOL    HW123455   3.402   5.807   6.723
 7186SOL    HW223456   3.553   5.800   6.716
 7187SOL     OW23457   2.592  13.363   8.999
 7187SOL    HW123458   2.607  13.458   9.007
 7187SOL    HW223459   2.621  13.343   8.910
 7188SOL     OW23460  11.928  11.308   9.568
 7188SOL    HW123461  11.837  11.325   9.590
 7188SOL    HW223462  11.956  11.385   9.520
 7189SOL     OW23463   9.501  10.275   2.138
 7189SOL    HW123464   9.588  10.241   2.120
 7189SOL    HW223465   9.442  10.205   2.113
 7190SOL     OW23466   0.946   9.765  10.969
 7190SOL    HW123467   0.885   9.692  10.966
 7190SOL    HW223468   0.915   9.826  10.902
 7191SOL     OW23469   7.699  14.213   7.347
 7191SOL    HW123470   7.655  14.224   7.263
 7191SOL    HW223471   7.640  14.159   7.399
 7192SOL     OW23472   8.916   8.886   7.036
 7192SOL    HW123473   8.950   8.845   7.116
 7192SOL    HW223474   8.994   8.913   6.988
 7193SOL     OW23475   5.450   7.949   5.792
 7193SOL    HW123476   5.519   7.884   5.805
 7193SOL    HW223477   5.445   7.996   5.875
 7194SOL     OW23478   5.423   5.769  11.478
 7194SOL    HW123479   5.460   5.682  11.490
 7194SOL    HW223480   5.383   5.766  11.391
 7195SOL     OW23481  11.501   3.045  14.808
 7195SOL    HW123482  11.428   2.993  14.775
 7195SOL    HW223483  11.579   3.000  14.773
 7196SOL     OW23484   8.615   9.532   4.171
 7196SOL    HW123485   8.651   9.445   4.152
 7196SOL    HW223486   8.680   9.572   4.230
 7197SOL     OW23487   2.622   1.359  13.169
 7197SOL    HW123488   2.586   1.378  13.082
 7197SOL    HW223489   2.565   1.290  13.204
 7198SOL     OW23490   5.886  10.736  12.810
 7198SOL    HW123491   5.958  10.761  12.868
 7198SOL    HW223492   5.928  10.692  12.737
 7199SOL     OW23493   7.627   7.696   6.857
 7199SOL    HW123494   7.592   7.612   6.887
 7199SOL    HW223495   7.617   7.693   6.762
 7200SOL     OW23496   9.094   0.414   8.614
 7200SOL    HW123497   9.127   0.461   8.538
 7200SOL    HW223498   9.027   0.355   8.579
 7201SOL     OW23499  13.378  11.408   0.933
 7201SOL    HW123500  13.404  11.424   1.023
 7201SOL    HW223501  13.444  11.347   0.900
 7202SOL     OW23502   1.937  10.230   0.443
 7202SOL    HW123503   2.012  10.257   0.391
 7202SOL    HW223504   1.916  10.306   0.498
 7203SOL     OW23505  11.106   2.112   0.008
 7203SOL    HW123506  11.119   2.101   0.102
 7203SOL    HW223507  11.095   2.206  14.865
 7204SOL     OW23508  13.440   7.955   5.108
 7204SOL    HW123509  13.381   7.906   5.165
 7204SOL    HW223510  13.522   7.906   5.110
 7205SOL     OW23511   8.156   3.074  11.619
 7205SOL    HW123512   8.184   3.148  11.565
 7205SOL    HW223513   8.114   3.115  11.695
 7206SOL     OW23514   5.292   9.963   9.458
 7206SOL    HW123515   5.278   9.872   9.485
 7206SOL    HW223516   5.235   9.974   9.382
 7207SOL     OW23517  13.101   7.510   3.038
 7207SOL    HW123518  13.114   7.505   2.944
 7207SOL    HW223519  13.170   7.569   3.069
 7208SOL     OW23520  12.452  10.619   6.310
 7208SOL    HW123521  12.380  10.643   6.251
 7208SOL    HW223522  12.486  10.703   6.342
 7209SOL     OW23523   3.948   0.579   8.391
 7209SOL    HW123524   4.001   0.546   8.464
 7209SOL    HW223525   3.870   0.616   8.432
 7210SOL     OW23526   3.814   6.938   9.063
 7210SOL    HW123527   3.868   6.896   8.997
 7210SOL    HW223528   3.758   6.998   9.013
 7211SOL     OW23529  10.852  12.556  11.661
 7211SOL    HW123530  10.766  12.581  11.695
 7211SOL    HW223531  10.834  12.526  11.572
 7212SOL     OW23532   6.229   9.831   8.292
 7212SOL    HW123533   6.240   9.909   8.238
 7212SOL    HW223534   6.165   9.858   8.359
 7213SOL     OW23535  10.705   7.285   5.677
 7213SOL    HW123536  10.713   7.204   5.627
 7213SOL    HW223537  10.732   7.353   5.615
 7214SOL     OW23538  10.300   1.142   6.893
 7214SOL    HW123539  10.278   1.085   6.820
 7214SOL    HW223540  10.363   1.092   6.945
 7215SOL     OW23541   4.063  10.586   4.035
 7215SOL    HW123542   4.133  10.573   3.971
 7215SOL    HW223543   4.064  10.679   4.054
 7216SOL     OW23544  12.510   0.095   1.363
 7216SOL    HW123545  12.590   0.134   1.400
 7216SOL    HW223546  12.483   0.030   1.428
 7217SOL     OW23547  14.769   2.909   9.483
 7217SOL    HW123548  14.858   2.885   9.511
 7217SOL    HW223549  14.731   2.951   9.560
 7218SOL     OW23550   0.899  11.710   3.665
 7218SOL    HW123551   0.849  11.766   3.725
 7218SOL    HW223552   0.947  11.772   3.610
 7219SOL     OW23553   4.776   2.507   1.227
 7219SOL    HW123554   4.820   2.565   1.165
 7219SOL    HW223555   4.843   2.488   1.294
 7220SOL     OW23556   8.500   2.041  13.418
 7220SOL    HW123557   8.559   2.016  13.489
 7220SOL    HW223558   8.443   2.108  13.456
 7221SOL     OW23559   7.907  10.380   6.033
 7221SOL    HW123560   7.834  10.422   6.079
 7221SOL    HW223561   7.979  10.443   6.039
 7222SOL     OW23562  11.467   4.705  11.106
 7222SOL    HW123563  11.469   4.728  11.199
 7222SOL    HW223564  11.420   4.777  11.064
 7223SOL     OW23565  10.793   9.889  10.776
 7223SOL    HW123566  10.819   9.868  10.687
 7223SOL    HW223567  10.832   9.975  10.793
 7224SOL     OW23568   8.237   9.468  10.985
 7224SOL    HW123569   8.188   9.529  11.041
 7224SOL    HW223570   8.234   9.385  11.032
 7225SOL     OW23571   4.273  10.676   7.781
 7225SOL    HW123572   4.248  10.656   7.691
 7225SOL    HW223573   4.368  10.683   7.779
 7226SOL     OW23574   2.526  14.394   1.953
 7226SOL    HW123575   2.608  14.373   1.998
 7226SOL    HW223576   2.495  14.474   1.996
 7227SOL     OW23577   8.935  14.316   4.543
 7227SOL    HW123578   8.984  14.335   4.623
 7227SOL    HW223579   8.871  14.388   4.537
 7228SOL     OW23580  13.615  13.333   5.043
 7228SOL    HW123581  13.655  13.399   4.986
 7228SOL    HW223582  13.665  13.339   5.124
 7229SOL     OW23583   5.259   6.818   3.279
 7229SOL    HW123584   5.187   6.819   3.215
 7229SOL    HW223585   5.245   6.737   3.328
 7230SOL     OW23586   2.537  14.202  11.512
 7230SOL    HW123587   2.454  14.164  11.542
 7230SOL    HW223588   2.586  14.127  11.478
 7231SOL     OW23589  13.002   0.956   7.377
 7231SOL    HW123590  13.014   1.046   7.345
 7231SOL    HW223591  12.965   0.967   7.465
 7232SOL     OW23592   5.656  11.543  14.746
 7232SOL    HW123593   5.620  11.527  14.659
 7232SOL    HW223594   5.732  11.485  14.752
 7233SOL     OW23595   0.548   0.837   2.018
 7233SOL    HW123596   0.554   0.752   2.060
 7233SOL    HW223597   0.472   0.880   2.059
 7234SOL     OW23598  12.078   8.040   8.441
 7234SOL    HW123599  12.002   7.992   8.474
 7234SOL    HW223600  12.152   7.985   8.464
 7235SOL     OW23601   5.008   9.302   2.388
 7235SOL    HW123602   4.946   9.247   2.436
 7235SOL    HW223603   5.093   9.264   2.405
 7236SOL     OW23604  10.168   1.079   0.035
 7236SOL    HW123605  10.193   1.103  14.815
 7236SOL    HW223606  10.247   1.040   0.072
 7237SOL     OW23607   2.010  10.455   6.519
 7237SOL    HW123608   2.019  10.388   6.587
 7237SOL    HW223609   2.099  10.489   6.508
 7238SOL     OW23610  11.621  10.304   3.044
 7238SOL    HW123611  11.640  10.235   3.108
 7238SOL    HW223612  11.631  10.262   2.959
 7239SOL     OW23613   0.234  14.335  14.599
 7239SOL    HW123614   0.273  14.349  14.685
 7239SOL    HW223615   0.143  14.363  14.608
 7240SOL     OW23616  12.766   9.264  12.567
 7240SOL    HW123617  12.824   9.195  12.599
 7240SOL    HW223618  12.678   9.237  12.596
 7241SOL     OW23619   1.654   4.268  13.045
 7241SOL    HW123620   1.683   4.179  13.066
 7241SOL    HW223621   1.733   4.322  13.055
 7242SOL     OW23622  10.727   9.055   2.410
 7242SOL    HW123623  10.715   9.109   2.488
 7242SOL    HW223624  10.750   8.969   2.445
 7243SOL     OW23625  12.530   4.822   7.722
 7243SOL    HW123626  12.525   4.744   7.776
 7243SOL    HW223627  12.507   4.793   7.634
 7244SOL     OW23628   8.713   0.320   7.457
 7244SOL    HW123629   8.715   0.252   7.390
 7244SOL    HW223630   8.757   0.395   7.416
 7245SOL     OW23631   4.016   8.688   0.742
 7245SOL    HW123632   3.973   8.606   0.720
 7245SOL    HW223633   4.097   8.663   0.787
 7246SOL     OW23634   8.253  12.240   5.997
 7246SOL    HW123635   8.320  12.245   6.065
 7246SOL    HW223636   8.271  12.158   5.952
 7247SOL     OW23637  14.477   5.515  13.772
 7247SOL    HW123638  14.448   5.605  13.759
 7247SOL    HW223639  14.567   5.514  13.740
 7248SOL     OW23640  12.736   2.901  13.514
 7248SOL    HW123641  12.761   2.979  13.465
 7248SOL    HW223642  12.748   2.829  13.452
 7249SOL     OW23643  10.981   8.425   0.113
 7249SOL    HW123644  10.889   8.453   0.116
 7249SOL    HW223645  11.021   8.480   0.046
 7250SOL     OW23646   0.769   1.891  10.938
 7250SOL    HW123647   0.756   1.902  11.032
 7250SOL    HW223648   0.858   1.857  10.930
 7251SOL     OW23649   4.631   9.339   7.797
 7251SOL    HW123650   4.604   9.391   7.872
 7251SOL    HW223651   4.641   9.250   7.831
 7252SOL     OW23652   1.543   6.082   8.818
 7252SOL    HW123653   1.615   6.073   8.881
 7252SOL    HW223654   1.479   6.138   8.863
 7253SOL     OW23655  13.830   2.866   1.038
 7253SOL    HW123656  13.825   2.807   1.113
 7253SOL    HW223657  13.740   2.894   1.023
 7254SOL     OW23658  14.812   9.127   9.858
 7254SOL    HW123659  14.817   9.223   9.865
 7254SOL    HW223660  14.726   9.105   9.896
 7255SOL     OW23661   3.142  10.717  13.490
 7255SOL    HW123662   3.158  10.632  13.532
 7255SOL    HW223663   3.187  10.711  13.406
 7256SOL     OW23664  10.465   1.187  14.429
 7256SOL    HW123665  10.539   1.146  14.384
 7256SOL    HW223666  10.492   1.192  14.521
 7257SOL     OW23667  11.730   2.886   2.607
 7257SOL    HW123668  11.703   2.807   2.655
 7257SOL    HW223669  11.783   2.853   2.535
 7258SOL     OW23670   5.872  14.189   8.690
 7258SOL    HW123671   5.934  14.262   8.692
 7258SOL    HW223672   5.794  14.225   8.648
 7259SOL     OW23673   6.933  13.818   7.875
 7259SOL    HW123674   7.027  13.835   7.879
 7259SOL    HW223675   6.908  13.839   7.785
 7260SOL     OW23676  11.631   7.275   8.343
 7260SOL    HW123677  11.588   7.233   8.269
 7260SOL    HW223678  11.665   7.358   8.307
 7261SOL     OW23679   6.883  10.843  10.888
 7261SOL    HW123680   6.974  10.820  10.909
 7261SOL    HW223681   6.859  10.784  10.817
 7262SOL     OW23682   9.708   5.382   3.307
 7262SOL    HW123683   9.713   5.471   3.343
 7262SOL    HW223684   9.769   5.332   3.361
 7263SOL     OW23685   8.297   4.973  10.583
 7263SOL    HW123686   8.359   4.910  10.545
 7263SOL    HW223687   8.351   5.048  10.607
 7264SOL     OW23688   7.241   5.272   2.220
 7264SOL    HW123689   7.317   5.307   2.267
 7264SOL    HW223690   7.258   5.292   2.128
 7265SOL     OW23691  14.284  11.544  11.103
 7265SOL    HW123692  14.277  11.492  11.183
 7265SOL    HW223693  14.369  11.520  11.066
 7266SOL     OW23694   2.818   2.773   6.152
 7266SOL    HW123695   2.809   2.781   6.247
 7266SOL    HW223696   2.840   2.861   6.122
 7267SOL     OW23697   9.331   3.158   3.159
 7267SOL    HW123698   9.305   3.241   3.117
 7267SOL    HW223699   9.250   3.125   3.198
 7268SOL     OW23700   4.083  11.149   9.152
 7268SOL    HW123701   4.027  11.093   9.099
 7268SOL    HW223702   4.041  11.150   9.238
 7269SOL     OW23703  11.877   8.659   1.178
 7269SOL    HW123704  11.888   8.680   1.271
 7269SOL    HW223705  11.949   8.600   1.158
 7270SOL     OW23706   1.745   3.190  10.392
 7270SOL    HW123707   1.673   3.242  10.427
 7270SOL    HW223708   1.769   3.234  10.311
 7271SOL     OW23709   5.432   8.000   0.330
 7271SOL    HW123710   5.469   8.073   0.280
 7271SOL    HW223711   5.369   8.040   0.389
 7272SOL     OW23712  11.404   4.844  10.560
 7272SOL    HW123713  11.423   4.819  10.650
 7272SOL    HW223714  11.365   4.932  10.567
 7273SOL     OW23715   4.633  13.035   7.664
 7273SOL    HW123716   4.610  13.127   7.657
 7273SOL    HW223717   4.575  12.990   7.601
 7274SOL     OW23718   5.005   5.443  12.962
 7274SOL    HW123719   4.927   5.454  12.907
 7274SOL    HW223720   5.009   5.349  12.980
 7275SOL     OW23721  10.406   7.979   0.632
 7275SOL    HW123722  10.334   8.029   0.594
 7275SOL    HW223723  10.407   8.005   0.724
 7276SOL     OW23724  11.918   6.879   4.560
 7276SOL    HW123725  11.898   6.907   4.650
 7276SOL    HW223726  11.835   6.888   4.513
 7277SOL     OW23727  11.581  14.671  10.830
 7277SOL    HW123728  11.501  14.699  10.875
 7277SOL    HW223729  11.638  14.748  10.833
 7278SOL     OW23730  10.520   2.802  14.024
 7278SOL    HW123731  10.606   2.838  14.049
 7278SOL    HW223732  10.481   2.776  14.107
 7279SOL     OW23733  11.495   7.580  14.532
 7279SOL    HW123734  11.470   7.670  14.512
 7279SOL    HW223735  11.411   7.534  14.541
 7280SOL     OW23736   3.565   5.123   9.065
 7280SOL    HW123737   3.570   5.209   9.024
 7280SOL    HW223738   3.627   5.069   9.016
 7281SOL     OW23739   5.321   0.703   4.680
 7281SOL    HW123740   5.413   0.676   4.682
 7281SOL    HW223741   5.320   0.786   4.728
 7282SOL     OW23742   8.254  14.276  10.165
 7282SOL    HW123743   8.342  14.305  10.139
 7282SOL    HW223744   8.202  14.356  10.165
 7283SOL     OW23745   2.913   7.096   6.386
 7283SOL    HW123746   2.843   7.098   6.321
 7283SOL    HW223747   2.877   7.045   6.458
 7284SOL     OW23748   1.189   4.607   9.160
 7284SOL    HW123749   1.150   4.568   9.082
 7284SOL    HW223750   1.267   4.652   9.128
 7285SOL     OW23751   5.126   2.065   7.282
 7285SOL    HW123752   5.069   2.012   7.227
 7285SOL    HW223753   5.132   2.016   7.364
 7286SOL     OW23754   4.381  12.647   3.699
 7286SOL    HW123755   4.360  12.555   3.683
 7286SOL    HW223756   4.474  12.647   3.723
 7287SOL     OW23757   3.209   6.343  10.994
 7287SOL    HW123758   3.209   6.252  11.023
 7287SOL    HW223759   3.231   6.338  10.901
 7288SOL     OW23760   8.852   7.988   3.007
 7288SOL    HW123761   8.767   7.981   2.963
 7288SOL    HW223762   8.905   7.919   2.968
 7289SOL     OW23763   0.582  14.694   3.441
 7289SOL    HW123764   0.570  14.607   3.479
 7289SOL    HW223765   0.633  14.742   3.505
 7290SOL     OW23766   3.179   8.015  10.675
 7290SOL    HW123767   3.125   7.979  10.605
 7290SOL    HW223768   3.130   8.092  10.706
 7291SOL     OW23769   1.096  12.311   1.477
 7291SOL    HW123770   1.050  12.343   1.554
 7291SOL    HW223771   1.029  12.262   1.428
 7292SOL     OW23772   4.265   8.325   7.295
 7292SOL    HW123773   4.358   8.318   7.276
 7292SOL    HW223774   4.251   8.264   7.368
 7293SOL     OW23775  12.925   9.926   7.787
 7293SOL    HW123776  12.969   9.893   7.865
 7293SOL    HW223777  12.990   9.917   7.717
 7294SOL     OW23778  13.763  13.962   6.082
 7294SOL    HW123779  13.733  13.976   5.992
 7294SOL    HW223780  13.779  14.049   6.117
 7295SOL     OW23781   5.753   7.837  10.494
 7295SOL    HW123782   5.767   7.875  10.408
 7295SOL    HW223783   5.681   7.775  10.482
 7296SOL     OW23784   6.245  12.030  10.671
 7296SOL    HW123785   6.313  12.050  10.606
 7296SOL    HW223786   6.217  12.115  10.704
 7297SOL     OW23787  10.564  11.619   8.127
 7297SOL    HW123788  10.513  11.669   8.064
 7297SOL    HW223789  10.500  11.571   8.178
 7298SOL     OW23790   5.697  13.794   1.654
 7298SOL    HW123791   5.788  13.774   1.632
 7298SOL    HW223792   5.688  13.767   1.745
 7299SOL     OW23793   4.911   8.352  10.474
 7299SOL    HW123794   4.983   8.365  10.536
 7299SOL    HW223795   4.867   8.273  10.505
 7300SOL     OW23796  14.588   1.524   4.600
 7300SOL    HW123797  14.539   1.496   4.677
 7300SOL    HW223798  14.653   1.456   4.586
 7301SOL     OW23799   8.457   0.730   7.968
 7301SOL    HW123800   8.508   0.808   7.943
 7301SOL    HW223801   8.521   0.671   8.006
 7302SOL     OW23802   5.403   0.367   4.460
 7302SOL    HW123803   5.419   0.359   4.554
 7302SOL    HW223804   5.472   0.428   4.430
 7303SOL     OW23805  14.149   8.303  11.539
 7303SOL    HW123806  14.087   8.252  11.592
 7303SOL    HW223807  14.098   8.331  11.463
 7304SOL     OW23808  10.129   6.609   8.917
 7304SOL    HW123809  10.139   6.514   8.905
 7304SOL    HW223810  10.044   6.628   8.878
 7305SOL     OW23811   1.431  13.083   3.256
 7305SOL    HW123812   1.371  13.158   3.259
 7305SOL    HW223813   1.486  13.093   3.334
 7306SOL     OW23814   2.040  14.267  14.545
 7306SOL    HW123815   2.013  14.181  14.577
 7306SOL    HW223816   2.135  14.260  14.533
 7307SOL     OW23817  11.282   6.103   4.929
 7307SOL    HW123818  11.363   6.053   4.918
 7307SOL    HW223819  11.305   6.193   4.906
 7308SOL     OW23820   9.958   1.496  12.104
 7308SOL    HW123821   9.879   1.442  12.102
 7308SOL    HW223822   9.930   1.581  12.070
 7309SOL     OW23823   4.912   6.685   8.446
 7309SOL    HW123824   4.838   6.694   8.507
 7309SOL    HW223825   4.982   6.735   8.486
 7310SOL     OW23826   4.760   2.300   1.667
 7310SOL    HW123827   4.850   2.306   1.636
 7310SOL    HW223828   4.727   2.390   1.662
 7311SOL     OW23829  11.813   4.539   2.806
 7311SOL    HW123830  11.745   4.570   2.747
 7311SOL    HW223831  11.893   4.538   2.753
 7312SOL     OW23832   7.281  14.184  12.982
 7312SOL    HW123833   7.212  14.235  12.940
 7312SOL    HW223834   7.277  14.098  12.940
 7313SOL     OW23835   0.800   8.679  13.060
 7313SOL    HW123836   0.837   8.720  12.981
 7313SOL    HW223837   0.843   8.725  13.133
 7314SOL     OW23838  11.568   8.894  13.475
 7314SOL    HW123839  11.489   8.867  13.521
 7314SOL    HW223840  11.538   8.927  13.391
 7315SOL     OW23841   5.649   7.869   6.134
 7315SOL    HW123842   5.684   7.837   6.050
 7315SOL    HW223843   5.575   7.812   6.152
 7316SOL     OW23844   1.317   9.504   5.424
 7316SOL    HW123845   1.338   9.415   5.452
 7316SOL    HW223846   1.306   9.497   5.329
 7317SOL     OW23847  13.663   9.152   4.888
 7317SOL    HW123848  13.684   9.188   4.802
 7317SOL    HW223849  13.705   9.211   4.950
 7318SOL     OW23850  13.840   2.867  10.666
 7318SOL    HW123851  13.751   2.903  10.665
 7318SOL    HW223852  13.897   2.942  10.682
 7319SOL     OW23853   9.521  13.167   5.241
 7319SOL    HW123854   9.593  13.228   5.262
 7319SOL    HW223855   9.507  13.180   5.147
 7320SOL     OW23856   9.241  14.523   9.881
 7320SOL    HW123857   9.285  14.567   9.954
 7320SOL    HW223858   9.180  14.589   9.847
 7321SOL     OW23859  14.747   7.680   4.534
 7321SOL    HW123860  14.779   7.741   4.600
 7321SOL    HW223861  14.807   7.606   4.539
 7322SOL     OW23862  14.601  13.248  13.413
 7322SOL    HW123863  14.682  13.199  13.400
 7322SOL    HW223864  14.555  13.243  13.330
 7323SOL     OW23865   9.583  11.023   9.163
 7323SOL    HW123866   9.612  11.108   9.130
 7323SOL    HW223867   9.583  10.966   9.087
 7324SOL     OW23868  10.878   6.211   2.177
 7324SOL    HW123869  10.808   6.276   2.176
 7324SOL    HW223870  10.886   6.185   2.269
 7325SOL     OW23871   6.460   5.533   9.534
 7325SOL    HW123872   6.427   5.446   9.512
 7325SOL    HW223873   6.555   5.525   9.527
 7326SOL     OW23874  10.385   8.079   0.933
 7326SOL    HW123875  10.340   8.096   1.015
 7326SOL    HW223876  10.478   8.073   0.957
 7327SOL     OW23877   6.977  13.418   1.451
 7327SOL    HW123878   6.911  13.349   1.459
 7327SOL    HW223879   7.039  13.401   1.522
 7328SOL     OW23880   8.806   5.141  13.538
 7328SOL    HW123881   8.843   5.118  13.623
 7328SOL    HW223882   8.869   5.107  13.474
 7329SOL     OW23883   9.682   8.909   7.985
 7329SOL    HW123884   9.641   8.897   7.899
 7329SOL    HW223885   9.772   8.935   7.966
 7330SOL     OW23886   8.564   6.380  14.631
 7330SOL    HW123887   8.486   6.330  14.655
 7330SOL    HW223888   8.630   6.353  14.694
 7331SOL     OW23889  14.474  13.640   8.562
 7331SOL    HW123890  14.416  13.670   8.632
 7331SOL    HW223891  14.533  13.713   8.546
 7332SOL     OW23892   7.849   0.731   5.214
 7332SOL    HW123893   7.798   0.775   5.283
 7332SOL    HW223894   7.801   0.650   5.197
 7333SOL     OW23895  14.601   4.595   8.558
 7333SOL    HW123896  14.652   4.677   8.563
 7333SOL    HW223897  14.620   4.560   8.471
 7334SOL     OW23898  14.200   8.959   5.038
 7334SOL    HW123899  14.123   9.010   5.013
 7334SOL    HW223900  14.168   8.896   5.102
 7335SOL     OW23901  14.711  11.475  10.839
 7335SOL    HW123902  14.623  11.489  10.874
 7335SOL    HW223903  14.769  11.508  10.908
 7336SOL     OW23904  13.526   6.734  14.532
 7336SOL    HW123905  13.445   6.784  14.527
 7336SOL    HW223906  13.549   6.735  14.625
 7337SOL     OW23907   9.382   3.537   4.559
 7337SOL    HW123908   9.465   3.576   4.587
 7337SOL    HW223909   9.373   3.458   4.611
 7338SOL     OW23910   9.485  13.960   6.591
 7338SOL    HW123911   9.483  13.887   6.653
 7338SOL    HW223912   9.396  13.994   6.591
 7339SOL     OW23913   5.153   0.904  14.119
 7339SOL    HW123914   5.213   0.955  14.065
 7339SOL    HW223915   5.095   0.970  14.158
 7340SOL     OW23916   4.592   4.853   2.154
 7340SOL    HW123917   4.657   4.868   2.086
 7340SOL    HW223918   4.585   4.937   2.199
 7341SOL     OW23919  13.539   3.626   9.738
 7341SOL    HW123920  13.630   3.653   9.752
 7341SOL    HW223921  13.536   3.535   9.766
 7342SOL     OW23922   3.345  12.194   9.629
 7342SOL    HW123923   3.268  12.164   9.677
 7342SOL    HW223924   3.375  12.271   9.677
 7343SOL     OW23925  11.451   9.190   3.086
 7343SOL    HW123926  11.464   9.106   3.042
 7343SOL    HW223927  11.396   9.240   3.026
 7344SOL     OW23928   2.491   2.300   5.918
 7344SOL    HW123929   2.484   2.257   5.833
 7344SOL    HW223930   2.450   2.386   5.905
 7345SOL     OW23931   4.084   3.385   6.402
 7345SOL    HW123932   4.037   3.397   6.485
 7345SOL    HW223933   4.176   3.376   6.428
 7346SOL     OW23934   8.911  11.602   0.964
 7346SOL    HW123935   8.912  11.602   1.060
 7346SOL    HW223936   8.868  11.684   0.940
 7347SOL     OW23937  10.572   8.888  13.897
 7347SOL    HW123938  10.542   8.811  13.847
 7347SOL    HW223939  10.666   8.874  13.908
 7348SOL     OW23940  12.488   7.156   7.391
 7348SOL    HW123941  12.466   7.152   7.484
 7348SOL    HW223942  12.434   7.088   7.351
 7349SOL     OW23943   8.507   2.066   3.830
 7349SOL    HW123944   8.478   2.141   3.883
 7349SOL    HW223945   8.545   2.006   3.894
 7350SOL     OW23946   1.262   0.187  10.553
 7350SOL    HW123947   1.335   0.185  10.614
 7350SOL    HW223948   1.238   0.095  10.541
 7351SOL     OW23949   7.877   0.023   5.202
 7351SOL    HW123950   7.855   0.116   5.216
 7351SOL    HW223951   7.866  14.852   5.288
 7352SOL     OW23952   0.579   3.536   5.772
 7352SOL    HW123953   0.611   3.592   5.701
 7352SOL    HW223954   0.646   3.543   5.840
 7353SOL     OW23955   5.076   7.803   9.239
 7353SOL    HW123956   5.161   7.766   9.262
 7353SOL    HW223957   5.088   7.840   9.152
 7354SOL     OW23958   7.869   1.068  11.157
 7354SOL    HW123959   7.866   1.071  11.253
 7354SOL    HW223960   7.792   1.017  11.132
 7355SOL     OW23961   5.448   7.865   3.359
 7355SOL    HW123962   5.389   7.799   3.324
 7355SOL    HW223963   5.536   7.830   3.342
 7356SOL     OW23964   0.826  11.344  13.012
 7356SOL    HW123965   0.825  11.413  12.946
 7356SOL    HW223966   0.792  11.267  12.968
 7357SOL     OW23967   6.219   5.085   2.616
 7357SOL    HW123968   6.306   5.045   2.605
 7357SOL    HW223969   6.178   5.032   2.685
 7358SOL     OW23970  10.494   8.434   6.604
 7358SOL    HW123971  10.559   8.367   6.579
 7358SOL    HW223972  10.545   8.514   6.614
 7359SOL     OW23973   4.104   1.363   7.250
 7359SOL    HW123974   4.147   1.439   7.290
 7359SOL    HW223975   4.116   1.376   7.156
 7360SOL     OW23976   1.750   2.423  10.785
 7360SOL    HW123977   1.789   2.507  10.761
 7360SOL    HW223978   1.745   2.426  10.881
 7361SOL     OW23979  13.630   4.695  13.574
 7361SOL    HW123980  13.650   4.779  13.614
 7361SOL    HW223981  13.559   4.658  13.627
 7362SOL     OW23982  11.313   8.414  13.387
 7362SOL    HW123983  11.315   8.375  13.474
 7362SOL    HW223984  11.228   8.458  13.383
 7363SOL     OW23985  11.780  10.056   7.820
 7363SOL    HW123986  11.734  10.091   7.897
 7363SOL    HW223987  11.836  10.128   7.791
 7364SOL     OW23988   3.502   2.002   6.356
 7364SOL    HW123989   3.552   1.953   6.422
 7364SOL    HW223990   3.423   2.029   6.401
 7365SOL     OW23991  13.860  13.567  12.964
 7365SOL    HW123992  13.900  13.581  12.878
 7365SOL    HW223993  13.900  13.633  13.020
 7366SOL     OW23994   0.105  11.592   0.205
 7366SOL    HW123995   0.181  11.612   0.259
 7366SOL    HW223996   0.031  11.593   0.265
 7367SOL     OW23997   5.508   2.710   7.266
 7367SOL    HW123998   5.527   2.764   7.342
 7367SOL    HW223999   5.568   2.741   7.199
 7368SOL     OW24000   7.096   1.677  14.657
 7368SOL    HW124001   7.045   1.645  14.732
 7368SOL    HW224002   7.072   1.770  14.650
 7369SOL     OW24003  14.669   6.866  14.213
 7369SOL    HW124004  14.757   6.903  14.211
 7369SOL    HW224005  14.633   6.893  14.298
 7370SOL     OW24006  10.272  12.070   9.564
 7370SOL    HW124007  10.216  12.072   9.642
 7370SOL    HW224008  10.358  12.045   9.596
 7371SOL     OW24009  11.655   0.631  14.189
 7371SOL    HW124010  11.694   0.719  14.192
 7371SOL    HW224011  11.730   0.572  14.193
 7372SOL     OW24012   4.233  14.468  14.705
 7372SOL    HW124013   4.178  14.529  14.753
 7372SOL    HW224014   4.206  14.478  14.613
 7373SOL     OW24015  10.102   5.979   5.025
 7373SOL    HW124016  10.153   6.009   4.949
 7373SOL    HW224017  10.138   5.893   5.045
 7374SOL     OW24018  11.309  11.886   2.938
 7374SOL    HW124019  11.274  11.934   3.013
 7374SOL    HW224020  11.360  11.951   2.890
 7375SOL     OW24021  13.656  10.176   7.748
 7375SOL    HW124022  13.739  10.183   7.700
 7375SOL    HW224023  13.626  10.267   7.757
 7376SOL     OW24024  10.692   3.824  12.569
 7376SOL    HW124025  10.694   3.866  12.483
 7376SOL    HW224026  10.749   3.879  12.624
 7377SOL     OW24027  11.961  14.444  11.863
 7377SOL    HW124028  12.014  14.387  11.807
 7377SOL    HW224029  11.925  14.510  11.804
 7378SOL     OW24030   6.432   7.394  14.446
 7378SOL    HW124031   6.461   7.303  14.459
 7378SOL    HW224032   6.409   7.424  14.534
 7379SOL     OW24033   7.942   2.828   4.896
 7379SOL    HW124034   7.947   2.873   4.980
 7379SOL    HW224035   8.023   2.854   4.851
 7380SOL     OW24036  11.052   9.989  12.207
 7380SOL    HW124037  11.012   9.904  12.226
 7380SOL    HW224038  11.052  10.036  12.291
 7381SOL     OW24039   5.386   4.027   7.159
 7381SOL    HW124040   5.472   4.067   7.171
 7381SOL    HW224041   5.340   4.085   7.099
 7382SOL     OW24042   1.618   6.146  12.513
 7382SOL    HW124043   1.615   6.182  12.424
 7382SOL    HW224044   1.567   6.066  12.508
 7383SOL     OW24045  10.170  13.081   5.322
 7383SOL    HW124046  10.182  13.176   5.324
 7383SOL    HW224047  10.108  13.066   5.251
 7384SOL     OW24048   7.433  12.867   7.889
 7384SOL    HW124049   7.431  12.808   7.813
 7384SOL    HW224050   7.514  12.845   7.934
 7385SOL     OW24051   0.213  13.758  10.148
 7385SOL    HW124052   0.143  13.823  10.144
 7385SOL    HW224053   0.255  13.765  10.062
 7386SOL     OW24054  14.553   9.544  12.249
 7386SOL    HW124055  14.531   9.452  12.234
 7386SOL    HW224056  14.644   9.552  12.222
 7387SOL     OW24057   7.434  10.724  14.766
 7387SOL    HW124058   7.516  10.775  14.766
 7387SOL    HW224059   7.435  10.678  14.682
 7388SOL     OW24060  12.208   7.639  10.956
 7388SOL    HW124061  12.173   7.688  10.881
 7388SOL    HW224062  12.181   7.689  11.033
 7389SOL     OW24063   7.078   6.652   9.478
 7389SOL    HW124064   7.042   6.663   9.390
 7389SOL    HW224065   7.094   6.741   9.509
 7390SOL     OW24066   4.967   4.223   9.617
 7390SOL    HW124067   4.872   4.224   9.631
 7390SOL    HW224068   4.981   4.162   9.545
 7391SOL     OW24069   7.818  12.322   0.330
 7391SOL    HW124070   7.769  12.401   0.353
 7391SOL    HW224071   7.905  12.336   0.367
 7392SOL     OW24072   2.968   0.443   1.317
 7392SOL    HW124073   3.022   0.508   1.362
 7392SOL    HW224074   2.917   0.403   1.387
 7393SOL     OW24075   0.955   2.882   1.502
 7393SOL    HW124076   0.889   2.946   1.527
 7393SOL    HW224077   1.038   2.919   1.532
 7394SOL     OW24078  11.320   3.909   8.055
 7394SOL    HW124079  11.274   3.867   8.128
 7394SOL    HW224080  11.401   3.942   8.094
 7395SOL     OW24081   4.318   4.194   2.428
 7395SOL    HW124082   4.366   4.209   2.509
 7395SOL    HW224083   4.331   4.275   2.378
 7396SOL     OW24084   5.846  10.574  11.156
 7396SOL    HW124085   5.798  10.536  11.230
 7396SOL    HW224086   5.928  10.525  11.152
 7397SOL     OW24087   4.751   7.627  13.520
 7397SOL    HW124088   4.682   7.617  13.454
 7397SOL    HW224089   4.808   7.551  13.507
 7398SOL     OW24090  11.248   2.454  14.349
 7398SOL    HW124091  11.316   2.411  14.297
 7398SOL    HW224092  11.166   2.435  14.303
 7399SOL     OW24093   3.568   7.429  12.897
 7399SOL    HW124094   3.650   7.381  12.910
 7399SOL    HW224095   3.596   7.517  12.872
 7400SOL     OW24096  10.557  13.069   1.306
 7400SOL    HW124097  10.505  13.137   1.348
 7400SOL    HW224098  10.588  13.013   1.377
 7401SOL     OW24099   7.053   9.458   0.890
 7401SOL    HW124100   6.967   9.427   0.918
 7401SOL    HW224101   7.107   9.379   0.885
 7402SOL     OW24102   4.923  10.494   2.025
 7402SOL    HW124103   4.951  10.412   2.066
 7402SOL    HW224104   4.854  10.526   2.082
 7403SOL     OW24105   3.162   8.606   4.104
 7403SOL    HW124106   3.196   8.687   4.144
 7403SOL    HW224107   3.076   8.630   4.069
 7404SOL     OW24108   8.563   8.609  14.709
 7404SOL    HW124109   8.587   8.683  14.764
 7404SOL    HW224110   8.636   8.601  14.647
 7405SOL     OW24111  11.885   2.009  11.974
 7405SOL    HW124112  11.815   2.042  11.917
 7405SOL    HW224113  11.845   2.004  12.061
 7406SOL     OW24114   6.541   1.537   9.620
 7406SOL    HW124115   6.553   1.526   9.714
 7406SOL    HW224116   6.623   1.577   9.589
 7407SOL     OW24117   7.433   8.316  10.483
 7407SOL    HW124118   7.463   8.226  10.472
 7407SOL    HW224119   7.407   8.344  10.395
 7408SOL     OW24120   7.695  11.207   6.931
 7408SOL    HW124121   7.752  11.134   6.910
 7408SOL    HW224122   7.704  11.267   6.857
 7409SOL     OW24123  11.511   4.991   7.856
 7409SOL    HW124124  11.443   5.048   7.819
 7409SOL    HW224125  11.544   4.941   7.782
 7410SOL     OW24126   4.478  12.463   7.646
 7410SOL    HW124127   4.487  12.370   7.625
 7410SOL    HW224128   4.384  12.479   7.648
 7411SOL     OW24129   6.641   2.100   8.173
 7411SOL    HW124130   6.683   2.185   8.158
 7411SOL    HW224131   6.568   2.098   8.111
 7412SOL     OW24132  11.875   8.770  13.422
 7412SOL    HW124133  11.945   8.835  13.434
 7412SOL    HW224134  11.807   8.816  13.374
 7413SOL     OW24135   6.100   9.220   1.819
 7413SOL    HW124136   6.141   9.149   1.869
 7413SOL    HW224137   6.008   9.216   1.843
 7414SOL     OW24138   8.528   4.240  12.832
 7414SOL    HW124139   8.611   4.202  12.861
 7414SOL    HW224140   8.479   4.166  12.795
 7415SOL     OW24141  12.648   3.540   6.649
 7415SOL    HW124142  12.582   3.605   6.671
 7415SOL    HW224143  12.609   3.487   6.579
 7416SOL     OW24144   1.840  11.810   5.436
 7416SOL    HW124145   1.827  11.740   5.500
 7416SOL    HW224146   1.920  11.853   5.464
 7417SOL     OW24147  12.529   2.667   7.846
 7417SOL    HW124148  12.534   2.582   7.892
 7417SOL    HW224149  12.553   2.731   7.913
 7418SOL     OW24150   0.776   4.844   5.576
 7418SOL    HW124151   0.819   4.930   5.579
 7418SOL    HW224152   0.702   4.856   5.517
 7419SOL     OW24153   0.357   6.391  12.615
 7419SOL    HW124154   0.360   6.483  12.641
 7419SOL    HW224155   0.447   6.361  12.624
 7420SOL     OW24156  13.010   6.645   6.922
 7420SOL    HW124157  13.048   6.570   6.966
 7420SOL    HW224158  12.916   6.640   6.941
 7421SOL     OW24159  13.028  12.793   8.118
 7421SOL    HW124160  12.942  12.823   8.146
 7421SOL    HW224161  13.086  12.812   8.192
 7422SOL     OW24162  11.553   7.076   3.420
 7422SOL    HW124163  11.611   7.057   3.345
 7422SOL    HW224164  11.478   7.121   3.382
 7423SOL     OW24165   1.679   6.935  14.031
 7423SOL    HW124166   1.597   6.983  14.017
 7423SOL    HW224167   1.703   6.902  13.945
 7424SOL     OW24168   9.196  13.989   2.943
 7424SOL    HW124169   9.104  13.980   2.920
 7424SOL    HW224170   9.205  14.080   2.972
 7425SOL     OW24171   9.830   9.496  14.629
 7425SOL    HW124172   9.757   9.542  14.589
 7425SOL    HW224173   9.905   9.517  14.574
 7426SOL     OW24174  14.170  13.471  13.560
 7426SOL    HW124175  14.116  13.393  13.558
 7426SOL    HW224176  14.124  13.531  13.619
 7427SOL     OW24177  14.544   7.122  14.026
 7427SOL    HW124178  14.533   7.083  14.113
 7427SOL    HW224179  14.455   7.131  13.992
 7428SOL     OW24180   8.962   2.694   4.343
 7428SOL    HW124181   8.922   2.781   4.338
 7428SOL    HW224182   9.043   2.709   4.392
 7429SOL     OW24183  12.284   1.623  13.260
 7429SOL    HW124184  12.275   1.716  13.238
 7429SOL    HW224185  12.310   1.581  13.177
 7430SOL     OW24186   7.951   7.467   5.446
 7430SOL    HW124187   7.961   7.452   5.540
 7430SOL    HW224188   7.981   7.386   5.405
 7431SOL     OW24189   1.971   3.930   2.250
 7431SOL    HW124190   2.048   3.872   2.245
 7431SOL    HW224191   1.934   3.928   2.162
 7432SOL     OW24192   7.760   2.109  11.427
 7432SOL    HW124193   7.833   2.170  11.420
 7432SOL    HW224194   7.682   2.165  11.429
 7433SOL     OW24195  11.090  13.471  10.996
 7433SOL    HW124196  10.996  13.459  11.008
 7433SOL    HW224197  11.128  13.457  11.083
 7434SOL     OW24198  10.753   8.181   8.525
 7434SOL    HW124199  10.716   8.227   8.449
 7434SOL    HW224200  10.688   8.114   8.546
 7435SOL     OW24201   8.312   1.983  10.822
 7435SOL    HW124202   8.277   1.894  10.825
 7435SOL    HW224203   8.401   1.973  10.788
 7436SOL     OW24204  10.881  14.464   1.031
 7436SOL    HW124205  10.842  14.470   0.944
 7436SOL    HW224206  10.879  14.554   1.064
 7437SOL     OW24207  11.810   1.257   1.168
 7437SOL    HW124208  11.896   1.276   1.204
 7437SOL    HW224209  11.778   1.342   1.137
 7438SOL     OW24210   5.333   6.922   9.199
 7438SOL    HW124211   5.345   6.845   9.144
 7438SOL    HW224212   5.360   6.996   9.143
 7439SOL     OW24213   4.492  12.882   0.775
 7439SOL    HW124214   4.473  12.917   0.862
 7439SOL    HW224215   4.567  12.825   0.788
 7440SOL     OW24216   8.080  10.628   4.182
 7440SOL    HW124217   8.100  10.702   4.239
 7440SOL    HW224218   8.104  10.551   4.232
 7441SOL     OW24219   0.748  12.095   2.195
 7441SOL    HW124220   0.807  12.086   2.270
 7441SOL    HW224221   0.687  12.165   2.220
 7442SOL     OW24222   4.946   5.299   6.589
 7442SOL    HW124223   4.995   5.264   6.664
 7442SOL    HW224224   5.011   5.303   6.519
 7443SOL     OW24225   5.350  13.309   1.187
 7443SOL    HW124226   5.300  13.390   1.197
 7443SOL    HW224227   5.437  13.338   1.159
 7444SOL     OW24228   7.432   1.419   3.583
 7444SOL    HW124229   7.509   1.362   3.580
 7444SOL    HW224230   7.465   1.502   3.617
 7445SOL     OW24231   7.001   2.728   2.567
 7445SOL    HW124232   7.039   2.649   2.605
 7445SOL    HW224233   6.908   2.724   2.592
 7446SOL     OW24234   2.164   8.657  12.482
 7446SOL    HW124235   2.248   8.616  12.502
 7446SOL    HW224236   2.159   8.657  12.387
 7447SOL     OW24237  11.636   9.467   3.739
 7447SOL    HW124238  11.562   9.477   3.678
 7447SOL    HW224239  11.710   9.509   3.694
 7448SOL     OW24240   3.388   9.893  14.072
 7448SOL    HW124241   3.391   9.971  14.128
 7448SOL    HW224242   3.384   9.820  14.134
 7449SOL     OW24243   8.650   5.235   2.275
 7449SOL    HW124244   8.709   5.304   2.302
 7449SOL    HW224245   8.563   5.264   2.305
 7450SOL     OW24246   3.894   2.374   7.822
 7450SOL    HW124247   3.899   2.287   7.862
 7450SOL    HW224248   3.823   2.366   7.758
 7451SOL     OW24249   0.051  10.232   1.517
 7451SOL    HW124250   0.078  10.178   1.591
 7451SOL    HW224251   0.133  10.254   1.472
 7452SOL     OW24252   2.014   0.338  11.787
 7452SOL    HW124253   1.983   0.420  11.825
 7452SOL    HW224254   1.980   0.340  11.697
 7453SOL     OW24255  12.515  14.027  13.647
 7453SOL    HW124256  12.588  13.968  13.666
 7453SOL    HW224257  12.439  13.970  13.638
 7454SOL     OW24258  11.752   7.745  13.978
 7454SOL    HW124259  11.744   7.651  13.995
 7454SOL    HW224260  11.818   7.751  13.909
 7455SOL     OW24261   3.479   5.581   9.160
 7455SOL    HW124262   3.461   5.553   9.250
 7455SOL    HW224263   3.406   5.639   9.137
 7456SOL     OW24264   1.241   6.646  12.897
 7456SOL    HW124265   1.220   6.649  12.990
 7456SOL    HW224266   1.337   6.639  12.895
 7457SOL     OW24267   7.649   8.062  14.814
 7457SOL    HW124268   7.726   8.057   0.001
 7457SOL    HW224269   7.684   8.073  14.726
 7458SOL     OW24270   4.280   6.407  11.711
 7458SOL    HW124271   4.307   6.381  11.799
 7458SOL    HW224272   4.230   6.487  11.724
 7459SOL     OW24273   9.255   7.442  11.582
 7459SOL    HW124274   9.246   7.516  11.521
 7459SOL    HW224275   9.292   7.372  11.529
 7460SOL     OW24276   7.123   0.547   1.293
 7460SOL    HW124277   7.172   0.549   1.211
 7460SOL    HW224278   7.189   0.557   1.361
 7461SOL     OW24279  10.383  11.201   7.073
 7461SOL    HW124280  10.398  11.109   7.053
 7461SOL    HW224281  10.441  11.248   7.013
 7462SOL     OW24282  13.129   6.535  12.067
 7462SOL    HW124283  13.195   6.485  12.115
 7462SOL    HW224284  13.079   6.580  12.135
 7463SOL     OW24285   0.095   2.628  10.097
 7463SOL    HW124286   0.038   2.552  10.106
 7463SOL    HW224287   0.040   2.695  10.057
 7464SOL     OW24288   3.471   2.967   1.161
 7464SOL    HW124289   3.421   2.957   1.079
 7464SOL    HW224290   3.421   3.032   1.211
 7465SOL     OW24291   8.876   1.371   8.246
 7465SOL    HW124292   8.784   1.382   8.222
 7465SOL    HW224293   8.883   1.279   8.272
 7466SOL     OW24294   8.018  12.191   5.152
 7466SOL    HW124295   8.021  12.240   5.070
 7466SOL    HW224296   8.059  12.250   5.216
 7467SOL     OW24297  13.581   0.186  14.698
 7467SOL    HW124298  13.495   0.144  14.695
 7467SOL    HW224299  13.598   0.213  14.607
 7468SOL     OW24300   3.800   0.128   2.991
 7468SOL    HW124301   3.706   0.148   2.994
 7468SOL    HW224302   3.830   0.137   3.081
 7469SOL     OW24303  11.604  12.722   1.518
 7469SOL    HW124304  11.677  12.784   1.511
 7469SOL    HW224305  11.590  12.714   1.612
 7470SOL     OW24306   3.346   2.260   4.436
 7470SOL    HW124307   3.438   2.285   4.445
 7470SOL    HW224308   3.345   2.165   4.449
 7471SOL     OW24309   4.860  12.857   9.689
 7471SOL    HW124310   4.911  12.896   9.761
 7471SOL    HW224311   4.899  12.894   9.610
 7472SOL     OW24312  12.374   3.829  11.170
 7472SOL    HW124313  12.426   3.788  11.239
 7472SOL    HW224314  12.378   3.922  11.190
 7473SOL     OW24315   0.271   3.686   6.474
 7473SOL    HW124316   0.186   3.679   6.516
 7473SOL    HW224317   0.263   3.635   6.393
 7474SOL     OW24318  12.528  14.203  12.704
 7474SOL    HW124319  12.621  14.214  12.722
 7474SOL    HW224320  12.493  14.292  12.700
 7475SOL     OW24321   8.131   3.616   7.499
 7475SOL    HW124322   8.154   3.655   7.583
 7475SOL    HW224323   8.142   3.687   7.436
 7476SOL     OW24324   9.652  13.859   3.273
 7476SOL    HW124325   9.652  13.829   3.182
 7476SOL    HW224326   9.739  13.896   3.287
 7477SOL     OW24327  10.984   0.235  10.709
 7477SOL    HW124328  10.926   0.160  10.696
 7477SOL    HW224329  10.929   0.300  10.753
 7478SOL     OW24330   5.705   1.140   1.110
 7478SOL    HW124331   5.635   1.201   1.134
 7478SOL    HW224332   5.761   1.135   1.187
 7479SOL     OW24333  13.173  10.815  11.315
 7479SOL    HW124334  13.138  10.904  11.307
 7479SOL    HW224335  13.263  10.828  11.343
 7480SOL     OW24336   5.973   5.037   5.530
 7480SOL    HW124337   5.986   4.952   5.572
 7480SOL    HW224338   5.883   5.061   5.551
 7481SOL     OW24339  10.172   3.659   1.496
 7481SOL    HW124340  10.211   3.584   1.452
 7481SOL    HW224341  10.080   3.657   1.471
 7482SOL     OW24342   2.504   3.825   2.199
 7482SOL    HW124343   2.452   3.746   2.212
 7482SOL    HW224344   2.586   3.807   2.244
 7483SOL     OW24345   9.947   4.120   4.855
 7483SOL    HW124346   9.945   4.205   4.900
 7483SOL    HW224347   9.888   4.131   4.781
 7484SOL     OW24348   4.812   8.294  10.087
 7484SOL    HW124349   4.886   8.316  10.030
 7484SOL    HW224350   4.775   8.379  10.111
 7485SOL     OW24351  13.325   8.402  11.261
 7485SOL    HW124352  13.273   8.338  11.212
 7485SOL    HW224353  13.270   8.427  11.335
 7486SOL     OW24354   6.327   6.141  11.909
 7486SOL    HW124355   6.254   6.085  11.936
 7486SOL    HW224356   6.396   6.122  11.973
 7487SOL     OW24357   5.303  14.091   9.060
 7487SOL    HW124358   5.382  14.143   9.075
 7487SOL    HW224359   5.231  14.148   9.089
 7488SOL     OW24360   2.476   1.702  12.991
 7488SOL    HW124361   2.541   1.773  12.985
 7488SOL    HW224362   2.488   1.666  13.079
 7489SOL     OW24363  10.686   0.780  10.579
 7489SOL    HW124364  10.723   0.860  10.542
 7489SOL    HW224365  10.682   0.797  10.673
 7490SOL     OW24366   7.301   6.247   9.660
 7490SOL    HW124367   7.253   6.213   9.735
 7490SOL    HW224368   7.337   6.170   9.617
 7491SOL     OW24369  13.352  10.391  13.589
 7491SOL    HW124370  13.412  10.461  13.614
 7491SOL    HW224371  13.371  10.375  13.496
 7492SOL     OW24372  12.823   0.746   3.840
 7492SOL    HW124373  12.843   0.708   3.925
 7492SOL    HW224374  12.854   0.836   3.845
 7493SOL     OW24375   8.254   2.755   0.909
 7493SOL    HW124376   8.213   2.707   0.837
 7493SOL    HW224377   8.238   2.847   0.889
 7494SOL     OW24378  11.502   4.815  11.339
 7494SOL    HW124379  11.509   4.809  11.434
 7494SOL    HW224380  11.476   4.906  11.323
 7495SOL     OW24381   2.165   2.619   1.785
 7495SOL    HW124382   2.244   2.566   1.795
 7495SOL    HW224383   2.153   2.627   1.691
 7496SOL     OW24384   7.466   4.745   2.792
 7496SOL    HW124385   7.544   4.703   2.829
 7496SOL    HW224386   7.498   4.792   2.715
 7497SOL     OW24387  13.245   5.943  14.761
 7497SOL    HW124388  13.206   6.007  14.821
 7497SOL    HW224389  13.268   5.869  14.817
 7498SOL     OW24390   6.087  12.885   0.743
 7498SOL    HW124391   6.098  12.918   0.654
 7498SOL    HW224392   6.012  12.825   0.738
 7499SOL     OW24393   2.322   1.826   8.047
 7499SOL    HW124394   2.235   1.833   8.084
 7499SOL    HW224395   2.327   1.896   7.982
 7500SOL     OW24396  12.401  13.234   5.076
 7500SOL    HW124397  12.382  13.294   5.003
 7500SOL    HW224398  12.318  13.191   5.094
 7501SOL     OW24399  13.896   3.991   2.653
 7501SOL    HW124400  13.920   3.969   2.563
 7501SOL    HW224401  13.806   4.024   2.646
 7502SOL     OW24402  12.533   7.995   0.305
 7502SOL    HW124403  12.519   8.088   0.285
 7502SOL    HW224404  12.626   7.989   0.329
 7503SOL     OW24405   7.677  11.348  14.024
 7503SOL    HW124406   7.585  11.323  14.021
 7503SOL    HW224407   7.688  11.390  14.110
 7504SOL     OW24408   8.147  14.399  12.757
 7504SOL    HW124409   8.174  14.308  12.746
 7504SOL    HW224410   8.118  14.405  12.848
 7505SOL     OW24411   2.734   3.604   1.672
 7505SOL    HW124412   2.707   3.674   1.612
 7505SOL    HW224413   2.657   3.550   1.683
 7506SOL     OW24414   3.238   5.685   6.477
 7506SOL    HW124415   3.256   5.768   6.432
 7506SOL    HW224416   3.256   5.704   6.569
 7507SOL     OW24417   5.975   3.511   4.274
 7507SOL    HW124418   6.032   3.537   4.346
 7507SOL    HW224419   6.035   3.486   4.204
 7508SOL     OW24420  11.467   7.309   3.669
 7508SOL    HW124421  11.406   7.342   3.735
 7508SOL    HW224422  11.472   7.215   3.686
 7509SOL     OW24423   0.108   3.006   6.619
 7509SOL    HW124424   0.178   2.963   6.668
 7509SOL    HW224425   0.134   3.098   6.615
 7510SOL     OW24426   1.894  11.279   0.945
 7510SOL    HW124427   1.856  11.343   1.005
 7510SOL    HW224428   1.846  11.291   0.863
 7511SOL     OW24429   8.381   3.255   0.433
 7511SOL    HW124430   8.339   3.341   0.438
 7511SOL    HW224431   8.471   3.270   0.463
 7512SOL     OW24432  10.106  13.285   0.134
 7512SOL    HW124433  10.072  13.371   0.159
 7512SOL    HW224434  10.181  13.271   0.192
 7513SOL     OW24435  11.420  11.727  10.042
 7513SOL    HW124436  11.396  11.731   9.950
 7513SOL    HW224437  11.343  11.762  10.088
 7514SOL     OW24438   0.521   2.244  12.021
 7514SOL    HW124439   0.582   2.229  11.949
 7514SOL    HW224440   0.435   2.248  11.979
 7515SOL     OW24441  11.202   9.500   6.324
 7515SOL    HW124442  11.126   9.554   6.346
 7515SOL    HW224443  11.187   9.474   6.233
 7516SOL     OW24444   5.326   4.182   4.787
 7516SOL    HW124445   5.299   4.247   4.852
 7516SOL    HW224446   5.340   4.232   4.707
 7517SOL     OW24447   9.911   2.648   9.984
 7517SOL    HW124448   9.869   2.595   9.917
 7517SOL    HW224449   9.880   2.611  10.067
 7518SOL     OW24450   0.372   7.995   3.115
 7518SOL    HW124451   0.329   7.985   3.200
 7518SOL    HW224452   0.391   8.088   3.108
 7519SOL     OW24453   0.491   7.322   7.360
 7519SOL    HW124454   0.565   7.380   7.341
 7519SOL    HW224455   0.431   7.375   7.411
 7520SOL     OW24456  12.207  12.174  12.667
 7520SOL    HW124457  12.214  12.265  12.639
 7520SOL    HW224458  12.115  12.151  12.654
 7521SOL     OW24459  11.381   3.307   0.816
 7521SOL    HW124460  11.413   3.396   0.800
 7521SOL    HW224461  11.287   3.312   0.797
 7522SOL     OW24462  12.088   1.092   4.430
 7522SOL    HW124463  12.121   1.130   4.349
 7522SOL    HW224464  12.158   1.105   4.494
 7523SOL     OW24465  11.627  11.206   7.730
 7523SOL    HW124466  11.613  11.178   7.639
 7523SOL    HW224467  11.662  11.295   7.723
 7524SOL     OW24468   5.482   6.953   0.925
 7524SOL    HW124469   5.438   6.916   0.849
 7524SOL    HW224470   5.559   6.998   0.889
 7525SOL     OW24471   8.480  13.977   4.550
 7525SOL    HW124472   8.432  14.053   4.518
 7525SOL    HW224473   8.572  13.997   4.533
 7526SOL     OW24474   2.511   3.613   0.245
 7526SOL    HW124475   2.559   3.693   0.263
 7526SOL    HW224476   2.567   3.543   0.278
 7527SOL     OW24477   4.243   5.409  12.213
 7527SOL    HW124478   4.298   5.479  12.179
 7527SOL    HW224479   4.299   5.332  12.214
 7528SOL     OW24480   8.150   8.693   5.334
 7528SOL    HW124481   8.202   8.767   5.304
 7528SOL    HW224482   8.085   8.680   5.265
 7529SOL     OW24483  10.060  13.467  11.028
 7529SOL    HW124484  10.124  13.457  10.957
 7529SOL    HW224485  10.019  13.552  11.012
 7530SOL     OW24486  14.074   3.581   2.988
 7530SOL    HW124487  14.149   3.542   2.942
 7530SOL    HW224488  14.062   3.665   2.944
 7531SOL     OW24489  11.896   6.922   0.082
 7531SOL    HW124490  11.970   6.914   0.022
 7531SOL    HW224491  11.823   6.951   0.028
 7532SOL     OW24492  12.209   2.954   0.771
 7532SOL    HW124493  12.228   2.977   0.680
 7532SOL    HW224494  12.224   3.035   0.819
 7533SOL     OW24495   3.277  14.119   0.471
 7533SOL    HW124496   3.353  14.128   0.528
 7533SOL    HW224497   3.239  14.208   0.468
 7534SOL     OW24498   3.388  12.313   1.818
 7534SOL    HW124499   3.382  12.406   1.793
 7534SOL    HW224500   3.478  12.301   1.847
 7535SOL     OW24501   8.774   3.740  11.135
 7535SOL    HW124502   8.707   3.808  11.123
 7535SOL    HW224503   8.832   3.750  11.059
 7536SOL     OW24504  13.547  11.306   2.309
 7536SOL    HW124505  13.463  11.262   2.297
 7536SOL    HW224506  13.597  11.283   2.230
 7537SOL     OW24507   5.281   2.996  11.178
 7537SOL    HW124508   5.278   2.903  11.153
 7537SOL    HW224509   5.191   3.027  11.167
 7538SOL     OW24510  14.330   7.867   0.212
 7538SOL    HW124511  14.273   7.808   0.163
 7538SOL    HW224512  14.418   7.848   0.180
 7539SOL     OW24513  12.704   7.756   0.877
 7539SOL    HW124514  12.756   7.711   0.945
 7539SOL    HW224515  12.699   7.692   0.806
 7540SOL     OW24516  10.584   0.307   8.521
 7540SOL    HW124517  10.607   0.393   8.486
 7540SOL    HW224518  10.548   0.325   8.608
 7541SOL     OW24519   2.427   0.327  12.201
 7541SOL    HW124520   2.462   0.416  12.204
 7541SOL    HW224521   2.480   0.278  12.264
 7542SOL     OW24522   8.696   6.239  14.848
 7542SOL    HW124523   8.754   6.229   0.053
 7542SOL    HW224524   8.698   6.153  14.805
 7543SOL     OW24525   1.753   5.706   6.083
 7543SOL    HW124526   1.798   5.622   6.075
 7543SOL    HW224527   1.816   5.764   6.126
 7544SOL     OW24528   0.653   2.506  12.073
 7544SOL    HW124529   0.567   2.477  12.044
 7544SOL    HW224530   0.669   2.588  12.025
 7545SOL     OW24531  11.112   8.575   4.651
 7545SOL    HW124532  11.120   8.663   4.689
 7545SOL    HW224533  11.075   8.522   4.722
 7546SOL     OW24534   7.495   9.164   0.990
 7546SOL    HW124535   7.575   9.119   1.018
 7546SOL    HW224536   7.511   9.188   0.899
 7547SOL     OW24537   7.488  11.514   1.981
 7547SOL    HW124538   7.487  11.419   1.971
 7547SOL    HW224539   7.401  11.543   1.952
 7548SOL     OW24540   3.256  10.097   8.240
 7548SOL    HW124541   3.317  10.146   8.295
 7548SOL    HW224542   3.233  10.158   8.169
 7549SOL     OW24543   3.841  13.367   2.354
 7549SOL    HW124544   3.831  13.461   2.344
 7549SOL    HW224545   3.923  13.346   2.309
 7550SOL     OW24546   9.602   0.208   3.276
 7550SOL    HW124547   9.674   0.162   3.320
 7550SOL    HW224548   9.540   0.229   3.345
 7551SOL     OW24549   0.642  14.036   2.374
 7551SOL    HW124550   0.616  13.962   2.428
 7551SOL    HW224551   0.705  14.000   2.312
 7552SOL     OW24552   4.837   9.387  12.431
 7552SOL    HW124553   4.831   9.380  12.526
 7552SOL    HW224554   4.820   9.479  12.413
 7553SOL     OW24555   9.762  13.664   8.769
 7553SOL    HW124556   9.683  13.716   8.780
 7553SOL    HW224557   9.831  13.728   8.751
 7554SOL     OW24558   5.437  14.414   3.533
 7554SOL    HW124559   5.354  14.433   3.488
 7554SOL    HW224560   5.495  14.384   3.464
 7555SOL     OW24561  11.965  12.391  12.444
 7555SOL    HW124562  12.018  12.325  12.401
 7555SOL    HW224563  12.009  12.407  12.528
 7556SOL     OW24564   3.989   3.540   2.095
 7556SOL    HW124565   3.914   3.480   2.088
 7556SOL    HW224566   3.957   3.612   2.149
 7557SOL     OW24567  13.484  10.374   5.408
 7557SOL    HW124568  13.491  10.457   5.360
 7557SOL    HW224569  13.506  10.307   5.343
 7558SOL     OW24570   5.941  11.140   1.920
 7558SOL    HW124571   5.974  11.088   1.847
 7558SOL    HW224572   6.017  11.151   1.977
 7559SOL     OW24573   5.487   2.729   0.460
 7559SOL    HW124574   5.533   2.674   0.397
 7559SOL    HW224575   5.401   2.688   0.470
 7560SOL     OW24576   1.956   9.250   0.715
 7560SOL    HW124577   2.009   9.252   0.636
 7560SOL    HW224578   1.991   9.176   0.765
 7561SOL     OW24579   7.476   7.765  10.897
 7561SOL    HW124580   7.438   7.705  10.962
 7561SOL    HW224581   7.402   7.816  10.866
 7562SOL     OW24582  13.026   9.396  14.140
 7562SOL    HW124583  13.028   9.489  14.164
 7562SOL    HW224584  13.047   9.350  14.222
 7563SOL     OW24585   5.488   8.513   0.430
 7563SOL    HW124586   5.446   8.488   0.512
 7563SOL    HW224587   5.417   8.525   0.368
 7564SOL     OW24588  11.546   3.643  14.441
 7564SOL    HW124589  11.556   3.588  14.519
 7564SOL    HW224590  11.625   3.697  14.438
 7565SOL     OW24591   2.382   0.894  13.507
 7565SOL    HW124592   2.396   0.928  13.419
 7565SOL    HW224593   2.466   0.907  13.551
 7566SOL     OW24594   1.357  10.104   1.701
 7566SOL    HW124595   1.348  10.009   1.703
 7566SOL    HW224596   1.451  10.120   1.694
 7567SOL     OW24597   3.196   0.854   2.316
 7567SOL    HW124598   3.235   0.769   2.337
 7567SOL    HW224599   3.143   0.875   2.393
 7568SOL     OW24600  10.060   2.332   4.679
 7568SOL    HW124601  10.015   2.337   4.764
 7568SOL    HW224602  10.022   2.403   4.628
 7569SOL     OW24603   9.902   5.032  10.506
 7569SOL    HW124604   9.897   4.954  10.560
 7569SOL    HW224605   9.813   5.069  10.509
 7570SOL     OW24606   5.097   1.899   7.000
 7570SOL    HW124607   5.126   1.864   7.084
 7570SOL    HW224608   5.034   1.835   6.968
 7571SOL     OW24609  14.771  11.506   9.611
 7571SOL    HW124610  14.708  11.460   9.666
 7571SOL    HW224611  14.720  11.537   9.536
 7572SOL     OW24612   5.053  13.323  12.466
 7572SOL    HW124613   5.078  13.286  12.550
 7572SOL    HW224614   5.098  13.268  12.402
 7573SOL     OW24615   2.203   8.846   8.755
 7573SOL    HW124616   2.175   8.933   8.726
 7573SOL    HW224617   2.141   8.823   8.824
 7574SOL     OW24618   9.872  14.391  11.883
 7574SOL    HW124619   9.952  14.440  11.902
 7574SOL    HW224620   9.815  14.407  11.958
 7575SOL     OW24621   4.174   6.023   2.495
 7575SOL    HW124622   4.143   6.008   2.406
 7575SOL    HW224623   4.159   6.116   2.511
 7576SOL     OW24624   7.796  12.705   6.396
 7576SOL    HW124625   7.730  12.641   6.423
 7576SOL    HW224626   7.854  12.713   6.472
 7577SOL     OW24627  12.281   4.004   7.007
 7577SOL    HW124628  12.293   3.926   6.953
 7577SOL    HW224629  12.345   3.994   7.077
 7578SOL     OW24630   5.430  13.143   3.840
 7578SOL    HW124631   5.428  13.119   3.933
 7578SOL    HW224632   5.363  13.090   3.799
 7579SOL     OW24633   8.496   0.950  10.916
 7579SOL    HW124634   8.411   0.912  10.939
 7579SOL    HW224635   8.486   1.043  10.936
 7580SOL     OW24636  11.453   1.418   3.884
 7580SOL    HW124637  11.463   1.431   3.789
 7580SOL    HW224638  11.359   1.403   3.896
 7581SOL     OW24639   9.302   9.474   7.274
 7581SOL    HW124640   9.300   9.443   7.184
 7581SOL    HW224641   9.235   9.542   7.278
 7582SOL     OW24642   5.336   0.804   2.671
 7582SOL    HW124643   5.366   0.755   2.747
 7582SOL    HW224644   5.275   0.746   2.627
 7583SOL     OW24645   7.876   2.734   9.559
 7583SOL    HW124646   7.913   2.662   9.609
 7583SOL    HW224647   7.952   2.776   9.518
 7584SOL     OW24648   8.729  11.057   5.864
 7584SOL    HW124649   8.678  10.981   5.892
 7584SOL    HW224650   8.670  11.106   5.808
 7585SOL     OW24651  13.301  10.104  11.991
 7585SOL    HW124652  13.244  10.050  11.935
 7585SOL    HW224653  13.295  10.063  12.077
 7586SOL     OW24654   3.603  13.961  10.990
 7586SOL    HW124655   3.616  14.054  10.970
 7586SOL    HW224656   3.688  13.931  11.024
 7587SOL     OW24657   4.934   4.469   9.358
 7587SOL    HW124658   4.908   4.441   9.270
 7587SOL    HW224659   5.027   4.447   9.364
 7588SOL     OW24660  14.079   9.148  12.157
 7588SOL    HW124661  14.047   9.101  12.234
 7588SOL    HW224662  14.031   9.108  12.083
 7589SOL     OW24663   9.382   9.972   3.878
 7589SOL    HW124664   9.365  10.054   3.831
 7589SOL    HW224665   9.338   9.905   3.825
 7590SOL     OW24666   2.988   9.554   9.546
 7590SOL    HW124667   3.026   9.624   9.600
 7590SOL    HW224668   2.966   9.597   9.464
 7591SOL     OW24669   8.889   7.210   3.225
 7591SOL    HW124670   8.911   7.282   3.284
 7591SOL    HW224671   8.936   7.134   3.261
 7592SOL     OW24672   0.188   2.539   0.691
 7592SOL    HW124673   0.258   2.492   0.736
 7592SOL    HW224674   0.116   2.541   0.754
 7593SOL     OW24675   6.820   4.160  14.682
 7593SOL    HW124676   6.880   4.228  14.650
 7593SOL    HW224677   6.782   4.122  14.602
 7594SOL     OW24678   2.012   9.721   8.627
 7594SOL    HW124679   1.986   9.813   8.635
 7594SOL    HW224680   1.949   9.673   8.680
 7595SOL     OW24681   9.785   6.918   0.225
 7595SOL    HW124682   9.753   6.886   0.309
 7595SOL    HW224683   9.798   6.839   0.173
 7596SOL     OW24684  13.158  10.412  13.272
 7596SOL    HW124685  13.112  10.397  13.355
 7596SOL    HW224686  13.100  10.471  13.224
 7597SOL     OW24687   4.650  12.020   9.650
 7597SOL    HW124688   4.584  12.084   9.674
 7597SOL    HW224689   4.616  11.977   9.572
 7598SOL     OW24690   6.869   8.600   0.037
 7598SOL    HW124691   6.846   8.593  14.814
 7598SOL    HW224692   6.808   8.539   0.081
 7599SOL     OW24693   4.973   7.714   6.462
 7599SOL    HW124694   5.043   7.779   6.453
 7599SOL    HW224695   4.962   7.677   6.375
 7600SOL     OW24696   4.658   6.764  11.327
 7600SOL    HW124697   4.565   6.778  11.308
 7600SOL    HW224698   4.702   6.841  11.289
 7601SOL     OW24699  14.191   4.124  12.442
 7601SOL    HW124700  14.272   4.102  12.487
 7601SOL    HW224701  14.219   4.144  12.352
 7602SOL     OW24702  10.458   0.364  10.343
 7602SOL    HW124703  10.385   0.396  10.397
 7602SOL    HW224704  10.536   0.401  10.384
 7603SOL     OW24705  10.492  13.211   4.834
 7603SOL    HW124706  10.586  13.228   4.839
 7603SOL    HW224707  10.460  13.277   4.772
 7604SOL     OW24708   7.287   9.556   3.382
 7604SOL    HW124709   7.235   9.609   3.322
 7604SOL    HW224710   7.272   9.596   3.468
 7605SOL     OW24711   2.494  14.266   9.180
 7605SOL    HW124712   2.554  14.199   9.212
 7605SOL    HW224713   2.407  14.229   9.194
 7606SOL     OW24714  12.521   9.737   5.419
 7606SOL    HW124715  12.548   9.722   5.510
 7606SOL    HW224716  12.434   9.777   5.426
 7607SOL     OW24717  14.613   7.364   2.917
 7607SOL    HW124718  14.624   7.353   3.011
 7607SOL    HW224719  14.696   7.337   2.879
 7608SOL     OW24720   3.983   4.429   7.077
 7608SOL    HW124721   3.979   4.353   7.136
 7608SOL    HW224722   3.893   4.443   7.050
 7609SOL     OW24723   1.332   9.388   3.955
 7609SOL    HW124724   1.240   9.370   3.936
 7609SOL    HW224725   1.366   9.305   3.989
 7610SOL     OW24726   3.507   6.417   7.277
 7610SOL    HW124727   3.527   6.404   7.369
 7610SOL    HW224728   3.592   6.414   7.233
 7611SOL     OW24729   2.114   2.270  12.674
 7611SOL    HW124730   2.042   2.229  12.628
 7611SOL    HW224731   2.073   2.342  12.723
 7612SOL     OW24732   7.077  11.164  13.168
 7612SOL    HW124733   7.074  11.255  13.197
 7612SOL    HW224734   7.074  11.169  13.072
 7613SOL     OW24735  11.590   8.073  10.525
 7613SOL    HW124736  11.622   8.104  10.440
 7613SOL    HW224737  11.540   7.994  10.505
 7614SOL     OW24738   7.189   9.013  13.025
 7614SOL    HW124739   7.193   9.080  13.093
 7614SOL    HW224740   7.242   8.941  13.059
 7615SOL     OW24741   4.712   8.673   6.069
 7615SOL    HW124742   4.711   8.577   6.070
 7615SOL    HW224743   4.630   8.698   6.111
 7616SOL     OW24744   9.631   8.305   0.008
 7616SOL    HW124745   9.627   8.221  14.833
 7616SOL    HW224746   9.542   8.340   0.002
 7617SOL     OW24747   7.760   8.430   0.222
 7617SOL    HW124748   7.768   8.342   0.185
 7617SOL    HW224749   7.669   8.454   0.208
 7618SOL     OW24750   2.941   7.392  14.567
 7618SOL    HW124751   3.030   7.360  14.551
 7618SOL    HW224752   2.920   7.442  14.488
 7619SOL     OW24753  12.412   6.613   2.940
 7619SOL    HW124754  12.507   6.613   2.926
 7619SOL    HW224755  12.379   6.545   2.881
 7620SOL     OW24756   5.612   8.939   1.213
 7620SOL    HW124757   5.663   8.858   1.225
 7620SOL    HW224758   5.638   8.971   1.127
 7621SOL     OW24759   5.348   4.436  11.131
 7621SOL    HW124760   5.424   4.483  11.167
 7621SOL    HW224761   5.275   4.463  11.186
 7622SOL     OW24762  13.745  14.468  13.587
 7622SOL    HW124763  13.748  14.386  13.537
 7622SOL    HW224764  13.788  14.446  13.669
 7623SOL     OW24765   3.112   1.541  12.102
 7623SOL    HW124766   3.118   1.630  12.065
 7623SOL    HW224767   3.101   1.555  12.196
 7624SOL     OW24768  10.402   4.108   2.800
 7624SOL    HW124769  10.344   4.046   2.844
 7624SOL    HW224770  10.479   4.057   2.775
 7625SOL     OW24771   3.211   5.265   5.805
 7625SOL    HW124772   3.258   5.284   5.724
 7625SOL    HW224773   3.279   5.240   5.868
 7626SOL     OW24774  13.877   9.981  13.934
 7626SOL    HW124775  13.840   9.931  13.862
 7626SOL    HW224776  13.963  10.009  13.903
 7627SOL     OW24777   9.200  10.749   2.726
 7627SOL    HW124778   9.135  10.679   2.721
 7627SOL    HW224779   9.269  10.722   2.665
 7628SOL     OW24780   4.201  14.252   9.889
 7628SOL    HW124781   4.292  14.223   9.895
 7628SOL    HW224782   4.151  14.179   9.926
 7629SOL     OW24783  13.008   5.157   6.040
 7629SOL    HW124784  12.967   5.173   6.125
 7629SOL    HW224785  12.966   5.076   6.008
 7630SOL     OW24786  14.184  12.948   1.994
 7630SOL    HW124787  14.132  13.027   2.005
 7630SOL    HW224788  14.165  12.895   2.071
 7631SOL     OW24789  10.436   2.051   5.052
 7631SOL    HW124790  10.380   2.125   5.075
 7631SOL    HW224791  10.525   2.084   5.065
 7632SOL     OW24792  12.177  13.838  13.831
 7632SOL    HW124793  12.082  13.825  13.839
 7632SOL    HW224794  12.190  13.868  13.741
 7633SOL     OW24795   7.814   7.635  10.683
 7633SOL    HW124796   7.750   7.577  10.725
 7633SOL    HW224797   7.776   7.655  10.598
 7634SOL     OW24798  13.526   6.749   7.097
 7634SOL    HW124799  13.615   6.743   7.061
 7634SOL    HW224800  13.539   6.770   7.189
 7635SOL     OW24801  13.668   9.709  10.364
 7635SOL    HW124802  13.755   9.719  10.404
 7635SOL    HW224803  13.649   9.616  10.371
 7636SOL     OW24804   5.581   6.827  11.075
 7636SOL    HW124805   5.588   6.824  10.980
 7636SOL    HW224806   5.558   6.918  11.095
 7637SOL     OW24807  14.508   5.099   1.952
 7637SOL    HW124808  14.517   5.186   1.990
 7637SOL    HW224809  14.424   5.067   1.986
 7638SOL     OW24810   3.035   3.511  14.346
 7638SOL    HW124811   3.008   3.564  14.271
 7638SOL    HW224812   3.108   3.560  14.384
 7639SOL     OW24813   5.353  11.056   8.100
 7639SOL    HW124814   5.435  11.093   8.070
 7639SOL    HW224815   5.341  11.090   8.189
 7640SOL     OW24816   5.819   7.803   7.795
 7640SOL    HW124817   5.748   7.856   7.759
 7640SOL    HW224818   5.857   7.759   7.718
 7641SOL     OW24819   2.316   3.491   9.991
 7641SOL    HW124820   2.313   3.568   9.934
 7641SOL    HW224821   2.355   3.422   9.937
 7642SOL     OW24822  13.180  14.484   7.401
 7642SOL    HW124823  13.094  14.522   7.383
 7642SOL    HW224824  13.189  14.413   7.338
 7643SOL     OW24825  12.531   2.559   3.897
 7643SOL    HW124826  12.472   2.631   3.921
 7643SOL    HW224827  12.613   2.602   3.875
 7644SOL     OW24828   3.879   5.925  10.872
 7644SOL    HW124829   3.932   5.976  10.934
 7644SOL    HW224830   3.872   5.838  10.912
 7645SOL     OW24831   5.357   1.420   9.434
 7645SOL    HW124832   5.410   1.361   9.381
 7645SOL    HW224833   5.385   1.405   9.524
 7646SOL     OW24834  14.389   8.106   8.685
 7646SOL    HW124835  14.465   8.103   8.628
 7646SOL    HW224836  14.325   8.160   8.637
 7647SOL     OW24837  10.848   7.094   2.145
 7647SOL    HW124838  10.890   7.011   2.169
 7647SOL    HW224839  10.755   7.081   2.164
 7648SOL     OW24840   0.651  12.786   9.049
 7648SOL    HW124841   0.608  12.753   9.128
 7648SOL    HW224842   0.743  12.796   9.075
 7649SOL     OW24843   3.058   4.507  12.572
 7649SOL    HW124844   3.009   4.502  12.654
 7649SOL    HW224845   2.997   4.476  12.505
 7650SOL     OW24846   4.155   0.302   2.375
 7650SOL    HW124847   4.184   0.392   2.385
 7650SOL    HW224848   4.062   0.304   2.398
 7651SOL     OW24849   8.090   2.142  13.308
 7651SOL    HW124850   8.144   2.094  13.370
 7651SOL    HW224851   8.096   2.233  13.337
 7652SOL     OW24852   6.686   5.834   8.975
 7652SOL    HW124853   6.635   5.788   9.041
 7652SOL    HW224854   6.727   5.765   8.923
 7653SOL     OW24855   7.127   4.031   6.939
 7653SOL    HW124856   7.050   4.006   6.887
 7653SOL    HW224857   7.148   4.120   6.909
 7654SOL     OW24858   7.930  11.553   2.681
 7654SOL    HW124859   7.967  11.484   2.737
 7654SOL    HW224860   7.848  11.577   2.724
 7655SOL     OW24861  10.504  13.072   2.736
 7655SOL    HW124862  10.441  13.001   2.734
 7655SOL    HW224863  10.486  13.118   2.818
 7656SOL     OW24864   7.852   4.027   2.093
 7656SOL    HW124865   7.894   4.110   2.118
 7656SOL    HW224866   7.764   4.034   2.129
 7657SOL     OW24867   1.914   3.745   2.461
 7657SOL    HW124868   1.983   3.769   2.523
 7657SOL    HW224869   1.914   3.815   2.396
 7658SOL     OW24870   7.290  12.948  13.927
 7658SOL    HW124871   7.323  13.037  13.936
 7658SOL    HW224872   7.307  12.908  14.013
 7659SOL     OW24873   2.966  12.531   8.518
 7659SOL    HW124874   2.963  12.463   8.585
 7659SOL    HW224875   3.049  12.576   8.533
 7660SOL     OW24876  10.138   8.972   5.683
 7660SOL    HW124877  10.112   8.999   5.595
 7660SOL    HW224878  10.101   8.884   5.693
 7661SOL     OW24879   4.297   8.486   5.727
 7661SOL    HW124880   4.296   8.536   5.646
 7661SOL    HW224881   4.236   8.413   5.712
 7662SOL     OW24882   6.489  10.648  13.458
 7662SOL    HW124883   6.499  10.707  13.533
 7662SOL    HW224884   6.574  10.605  13.451
 7663SOL     OW24885   9.824  13.039   9.162
 7663SOL    HW124886   9.775  13.072   9.238
 7663SOL    HW224887   9.805  12.946   9.161
 7664SOL     OW24888   6.744   1.287  13.286
 7664SOL    HW124889   6.672   1.301  13.348
 7664SOL    HW224890   6.791   1.370  13.284
 7665SOL     OW24891   1.918  11.046  10.878
 7665SOL    HW124892   2.007  11.050  10.913
 7665SOL    HW224893   1.920  11.102  10.801
 7666SOL     OW24894   4.080   1.487  13.039
 7666SOL    HW124895   4.079   1.415  13.102
 7666SOL    HW224896   4.158   1.472  12.986
 7667SOL     OW24897   7.005   8.589  11.951
 7667SOL    HW124898   7.041   8.522  11.893
 7667SOL    HW224899   7.078   8.615  12.007
 7668SOL     OW24900  14.523  14.750   7.159
 7668SOL    HW124901  14.489  14.685   7.220
 7668SOL    HW224902  14.596  14.707   7.115
 7669SOL     OW24903   2.062  10.928   7.413
 7669SOL    HW124904   2.056  11.009   7.463
 7669SOL    HW224905   2.098  10.864   7.474
 7670SOL     OW24906   1.022   9.502   8.477
 7670SOL    HW124907   0.941   9.500   8.528
 7670SOL    HW224908   1.013   9.579   8.421
 7671SOL     OW24909  11.375   9.386   8.597
 7671SOL    HW124910  11.350   9.301   8.632
 7671SOL    HW224911  11.308   9.407   8.532
 7672SOL     OW24912   8.327   9.769  14.822
 7672SOL    HW124913   8.377   9.751  14.743
 7672SOL    HW224914   8.377   9.727   0.023
 7673SOL     OW24915   0.774   5.612   0.852
 7673SOL    HW124916   0.833   5.656   0.790
 7673SOL    HW224917   0.711   5.566   0.797
 7674SOL     OW24918   9.123   0.858  10.941
 7674SOL    HW124919   9.122   0.954  10.942
 7674SOL    HW224920   9.213   0.835  10.964
 7675SOL     OW24921   3.919  10.139   2.020
 7675SOL    HW124922   3.844  10.084   1.996
 7675SOL    HW224923   3.891  10.227   1.997
 7676SOL     OW24924   1.038   6.507   7.704
 7676SOL    HW124925   1.055   6.478   7.614
 7676SOL    HW224926   0.943   6.517   7.708
 7677SOL     OW24927  11.471   6.567  12.321
 7677SOL    HW124928  11.448   6.612  12.239
 7677SOL    HW224929  11.566   6.561  12.319
 7678SOL     OW24930   5.114  11.262  12.325
 7678SOL    HW124931   5.200  11.250  12.366
 7678SOL    HW224932   5.105  11.357  12.316
 7679SOL     OW24933   3.595   4.413   2.624
 7679SOL    HW124934   3.517   4.412   2.680
 7679SOL    HW224935   3.623   4.505   2.623
 7680SOL     OW24936   3.890   5.005  11.564
 7680SOL    HW124937   3.875   4.948  11.640
 7680SOL    HW224938   3.937   4.950  11.502
 7681SOL     OW24939   0.746   3.000  13.063
 7681SOL    HW124940   0.759   3.019  12.970
 7681SOL    HW224941   0.823   3.038  13.106
 7682SOL     OW24942  11.392   8.964   0.905
 7682SOL    HW124943  11.391   8.908   0.983
 7682SOL    HW224944  11.408   9.052   0.938
 7683SOL     OW24945   4.539   7.718   1.784
 7683SOL    HW124946   4.633   7.709   1.798
 7683SOL    HW224947   4.520   7.808   1.811
 7684SOL     OW24948   8.848  13.449  10.293
 7684SOL    HW124949   8.909  13.494  10.234
 7684SOL    HW224950   8.813  13.378  10.240
 7685SOL     OW24951  10.361   8.727   8.404
 7685SOL    HW124952  10.376   8.752   8.495
 7685SOL    HW224953  10.396   8.800   8.353
 7686SOL     OW24954   6.587   0.186   9.575
 7686SOL    HW124955   6.649   0.148   9.513
 7686SOL    HW224956   6.569   0.116   9.637
 7687SOL     OW24957  11.250   3.770  14.528
 7687SOL    HW124958  11.230   3.677  14.530
 7687SOL    HW224959  11.345   3.774  14.515
 7688SOL     OW24960   9.588   9.757   3.526
 7688SOL    HW124961   9.589   9.781   3.618
 7688SOL    HW224962   9.635   9.674   3.521
 7689SOL     OW24963  14.043   6.975   0.432
 7689SOL    HW124964  13.957   7.009   0.409
 7689SOL    HW224965  14.066   6.917   0.359
 7690SOL     OW24966   0.973   5.115   1.696
 7690SOL    HW124967   1.039   5.172   1.656
 7690SOL    HW224968   0.901   5.174   1.716
 7691SOL     OW24969   9.300   3.058  11.329
 7691SOL    HW124970   9.228   3.000  11.353
 7691SOL    HW224971   9.262   3.146  11.332
 7692SOL     OW24972  12.894   2.294   9.453
 7692SOL    HW124973  12.962   2.303   9.519
 7692SOL    HW224974  12.883   2.382   9.417
 7693SOL     OW24975   2.079  13.472   7.969
 7693SOL    HW124976   2.044  13.552   8.009
 7693SOL    HW224977   2.008  13.409   7.975
 7694SOL     OW24978   9.627  12.725  10.068
 7694SOL    HW124979   9.662  12.761   9.986
 7694SOL    HW224980   9.604  12.802  10.119
 7695SOL     OW24981  14.366   0.424  10.940
 7695SOL    HW124982  14.353   0.499  10.998
 7695SOL    HW224983  14.281   0.411  10.898
 7696SOL     OW24984   3.139   9.066   3.634
 7696SOL    HW124985   3.101   8.982   3.658
 7696SOL    HW224986   3.081   9.131   3.673
 7697SOL     OW24987   0.601  12.967   7.468
 7697SOL    HW124988   0.525  13.025   7.476
 7697SOL    HW224989   0.669  13.022   7.428
 7698SOL     OW24990   8.586  13.311  12.107
 7698SOL    HW124991   8.613  13.219  12.110
 7698SOL    HW224992   8.665  13.360  12.129
 7699SOL     OW24993   6.293   5.967  14.231
 7699SOL    HW124994   6.257   6.013  14.307
 7699SOL    HW224995   6.291   6.032  14.161
 7700SOL     OW24996   8.054   7.206  11.016
 7700SOL    HW124997   8.060   7.297  11.043
 7700SOL    HW224998   8.127   7.163  11.061
 7701SOL     OW24999   6.975  10.479  14.366
 7701SOL    HW125000   7.050  10.512  14.415
 7701SOL    HW225001   6.980  10.524  14.281
 7702SOL     OW25002   6.689  10.032  10.553
 7702SOL    HW125003   6.743   9.999  10.626
 7702SOL    HW225004   6.686   9.959  10.491
 7703SOL     OW25005   3.691   6.793   6.028
 7703SOL    HW125006   3.681   6.733   5.954
 7703SOL    HW225007   3.699   6.879   5.989
 7704SOL     OW25008   6.369   8.057   3.297
 7704SOL    HW125009   6.318   8.136   3.280
 7704SOL    HW225010   6.335   8.024   3.380
 7705SOL     OW25011   7.782   7.568  14.652
 7705SOL    HW125012   7.728   7.553  14.575
 7705SOL    HW225013   7.854   7.623  14.621
 7706SOL     OW25014   2.118   1.160  10.863
 7706SOL    HW125015   2.094   1.134  10.952
 7706SOL    HW225016   2.042   1.137  10.810
 7707SOL     OW25017   9.409   1.868   4.700
 7707SOL    HW125018   9.486   1.848   4.647
 7707SOL    HW225019   9.336   1.864   4.639
 7708SOL     OW25020   4.509  12.597   0.665
 7708SOL    HW125021   4.531  12.566   0.752
 7708SOL    HW225022   4.414  12.588   0.659
 7709SOL     OW25023   6.821   8.731   2.820
 7709SOL    HW125024   6.852   8.677   2.893
 7709SOL    HW225025   6.853   8.687   2.742
 7710SOL     OW25026   7.961   0.577  10.478
 7710SOL    HW125027   7.946   0.668  10.451
 7710SOL    HW225028   7.895   0.527  10.431
 7711SOL     OW25029   7.662  13.534   5.719
 7711SOL    HW125030   7.648  13.539   5.813
 7711SOL    HW225031   7.752  13.566   5.706
 7712SOL     OW25032   8.248  13.505  14.066
 7712SOL    HW125033   8.265  13.544  14.152
 7712SOL    HW225034   8.154  13.514  14.054
 7713SOL     OW25035  11.396  10.475  12.289
 7713SOL    HW125036  11.412  10.553  12.236
 7713SOL    HW225037  11.458  10.410  12.255
 7714SOL     OW25038   6.726   0.444   5.560
 7714SOL    HW125039   6.774   0.370   5.521
 7714SOL    HW225040   6.665   0.404   5.621
 7715SOL     OW25041   5.711  10.914  13.619
 7715SOL    HW125042   5.765  10.918  13.699
 7715SOL    HW225043   5.763  10.960  13.553
 7716SOL     OW25044  12.821   0.509   1.585
 7716SOL    HW125045  12.751   0.511   1.651
 7716SOL    HW225046  12.796   0.577   1.522
 7717SOL     OW25047  10.198   6.824  12.323
 7717SOL    HW125048  10.159   6.908  12.300
 7717SOL    HW225049  10.183   6.769  12.246
 7718SOL     OW25050   1.340   4.777   0.485
 7718SOL    HW125051   1.334   4.684   0.463
 7718SOL    HW225052   1.352   4.779   0.580
 7719SOL     OW25053  11.679   4.599   7.435
 7719SOL    HW125054  11.692   4.510   7.403
 7719SOL    HW225055  11.650   4.648   7.358
 7720SOL     OW25056   8.731  11.496   7.091
 7720SOL    HW125057   8.659  11.554   7.069
 7720SOL    HW225058   8.694  11.431   7.150
 7721SOL     OW25059   6.015   5.294   3.245
 7721SOL    HW125060   5.970   5.351   3.307
 7721SOL    HW225061   6.038   5.216   3.296
 7722SOL     OW25062   9.377   6.741  12.618
 7722SOL    HW125063   9.439   6.814  12.616
 7722SOL    HW225064   9.374   6.711  12.528
 7723SOL     OW25065   4.461   4.257   7.832
 7723SOL    HW125066   4.554   4.235   7.829
 7723SOL    HW225067   4.459   4.351   7.848
 7724SOL     OW25068   8.477  13.565   4.433
 7724SOL    HW125069   8.477  13.474   4.405
 7724SOL    HW225070   8.443  13.614   4.358
 7725SOL     OW25071   5.009   1.873   4.549
 7725SOL    HW125072   4.959   1.823   4.485
 7725SOL    HW225073   5.009   1.962   4.514
 7726SOL     OW25074  13.577   1.701   4.041
 7726SOL    HW125075  13.483   1.687   4.029
 7726SOL    HW225076  13.592   1.691   4.135
 7727SOL     OW25077  13.885   4.972   4.975
 7727SOL    HW125078  13.895   5.039   4.908
 7727SOL    HW225079  13.922   5.012   5.054
 7728SOL     OW25080  12.142   1.783   4.953
 7728SOL    HW125081  12.088   1.708   4.974
 7728SOL    HW225082  12.226   1.745   4.925
 7729SOL     OW25083   6.621   1.522   0.124
 7729SOL    HW125084   6.610   1.556   0.035
 7729SOL    HW225085   6.544   1.554   0.171
 7730SOL     OW25086   6.520   1.871   3.756
 7730SOL    HW125087   6.576   1.902   3.827
 7730SOL    HW225088   6.434   1.909   3.775
 7731SOL     OW25089   0.612   1.009   3.254
 7731SOL    HW125090   0.547   0.939   3.265
 7731SOL    HW225091   0.589   1.073   3.322
 7732SOL     OW25092   6.354   8.902  11.987
 7732SOL    HW125093   6.333   8.941  12.072
 7732SOL    HW225094   6.347   8.808  12.001
 7733SOL     OW25095   6.805   4.850  13.830
 7733SOL    HW125096   6.759   4.768  13.809
 7733SOL    HW225097   6.837   4.882  13.746
 7734SOL     OW25098   7.107   6.340   6.536
 7734SOL    HW125099   7.072   6.258   6.503
 7734SOL    HW225100   7.124   6.323   6.629
 7735SOL     OW25101   2.755  11.620  13.556
 7735SOL    HW125102   2.736  11.614  13.462
 7735SOL    HW225103   2.683  11.572  13.597
 7736SOL     OW25104   0.818   2.419  12.272
 7736SOL    HW125105   0.908   2.395  12.251
 7736SOL    HW225106   0.771   2.412  12.188
 7737SOL     OW25107  12.312   1.930   7.339
 7737SOL    HW125108  12.222   1.940   7.370
 7737SOL    HW225109  12.330   1.837   7.350
 7738SOL     OW25110   6.050   4.260   0.717
 7738SOL    HW125111   6.077   4.172   0.740
 7738SOL    HW225112   6.108   4.285   0.645
 7739SOL     OW25113   1.414  14.116  12.238
 7739SOL    HW125114   1.457  14.043  12.283
 7739SOL    HW225115   1.357  14.073  12.173
 7740SOL     OW25116  11.904  11.111  13.532
 7740SOL    HW125117  11.966  11.039  13.545
 7740SOL    HW225118  11.880  11.139  13.620
 7741SOL     OW25119  13.953   7.087   6.280
 7741SOL    HW125120  14.038   7.066   6.317
 7741SOL    HW225121  13.968   7.089   6.185
 7742SOL     OW25122  12.011   2.006   4.782
 7742SOL    HW125123  11.920   2.026   4.806
 7742SOL    HW225124  12.030   1.924   4.828
 7743SOL     OW25125   1.313   0.038  11.698
 7743SOL    HW125126   1.252   0.004  11.763
 7743SOL    HW225127   1.395  14.864  11.718
 7744SOL     OW25128   4.193   7.593   4.325
 7744SOL    HW125129   4.174   7.568   4.235
 7744SOL    HW225130   4.115   7.567   4.375
 7745SOL     OW25131   5.056   2.650   4.407
 7745SOL    HW125132   5.094   2.563   4.393
 7745SOL    HW225133   5.063   2.663   4.502
 7746SOL     OW25134  10.904   6.316  10.519
 7746SOL    HW125135  10.811   6.298  10.532
 7746SOL    HW225136  10.906   6.400  10.474
 7747SOL     OW25137  12.563   9.552  10.514
 7747SOL    HW125138  12.509   9.577  10.589
 7747SOL    HW225139  12.638   9.506  10.553
 7748SOL     OW25140   9.855   6.790  12.193
 7748SOL    HW125141   9.760   6.780  12.191
 7748SOL    HW225142   9.870   6.883  12.178
 7749SOL     OW25143   2.289  14.283   7.802
 7749SOL    HW125144   2.256  14.373   7.804
 7749SOL    HW225145   2.383  14.293   7.820
 7750SOL     OW25146   2.618   1.464   9.908
 7750SOL    HW125147   2.651   1.518   9.980
 7750SOL    HW225148   2.613   1.523   9.833
 7751SOL     OW25149   8.280  12.597   0.324
 7751SOL    HW125150   8.309  12.686   0.346
 7751SOL    HW225151   8.189  12.593   0.357
 7752SOL     OW25152  13.705  11.897   2.127
 7752SOL    HW125153  13.641  11.888   2.057
 7752SOL    HW225154  13.788  11.874   2.087
 7753SOL     OW25155   1.438  13.846  11.553
 7753SOL    HW125156   1.429  13.939  11.531
 7753SOL    HW225157   1.531  13.827  11.541
 7754SOL     OW25158   2.076   2.688  12.430
 7754SOL    HW125159   1.990   2.716  12.401
 7754SOL    HW225160   2.130   2.688  12.351
 7755SOL     OW25161   1.318   0.882   0.921
 7755SOL    HW125162   1.232   0.871   0.962
 7755SOL    HW225163   1.313   0.833   0.839
 7756SOL     OW25164   6.924   3.062  13.256
 7756SOL    HW125165   6.893   3.030  13.171
 7756SOL    HW225166   6.916   2.986  13.314
 7757SOL     OW25167   9.963  13.985  11.528
 7757SOL    HW125168   9.927  13.932  11.600
 7757SOL    HW225169  10.019  14.050  11.572
 7758SOL     OW25170  11.879   5.183  10.392
 7758SOL    HW125171  11.804   5.234  10.361
 7758SOL    HW225172  11.841   5.102  10.425
 7759SOL     OW25173   2.738  13.049   7.542
 7759SOL    HW125174   2.815  13.082   7.588
 7759SOL    HW225175   2.772  13.016   7.459
 7760SOL     OW25176   2.095   4.306   8.043
 7760SOL    HW125177   2.165   4.247   8.071
 7760SOL    HW225178   2.075   4.358   8.120
 7761SOL     OW25179   0.749  14.236   9.822
 7761SOL    HW125180   0.719  14.226   9.912
 7761SOL    HW225181   0.668  14.245   9.771
 7762SOL     OW25182   9.102  12.408  12.468
 7762SOL    HW125183   9.051  12.334  12.501
 7762SOL    HW225184   9.191  12.374  12.461
 7763SOL     OW25185   9.913   3.800   3.040
 7763SOL    HW125186   9.922   3.732   2.974
 7763SOL    HW225187   9.988   3.788   3.098
 7764SOL     OW25188   0.665  14.043   9.520
 7764SOL    HW125189   0.690  14.114   9.461
 7764SOL    HW225190   0.668  14.083   9.607
 7765SOL     OW25191   3.631  14.539   4.908
 7765SOL    HW125192   3.565  14.572   4.970
 7765SOL    HW225193   3.615  14.589   4.828
 7766SOL     OW25194  13.248   4.814   8.892
 7766SOL    HW125195  13.208   4.860   8.818
 7766SOL    HW225196  13.341   4.837   8.886
 7767SOL     OW25197   5.160   6.909  10.759
 7767SOL    HW125198   5.116   6.950  10.684
 7767SOL    HW225199   5.216   6.842  10.719
 7768SOL     OW25200   0.263  14.171   2.103
 7768SOL    HW125201   0.235  14.113   2.032
 7768SOL    HW225202   0.203  14.150   2.175
 7769SOL     OW25203   5.927  12.099   0.429
 7769SOL    HW125204   6.006  12.059   0.396
 7769SOL    HW225205   5.957  12.174   0.481
 7770SOL     OW25206  12.021  10.579   4.323
 7770SOL    HW125207  12.070  10.610   4.399
 7770SOL    HW225208  12.076  10.510   4.286
 7771SOL     OW25209   2.614   5.129   7.919
 7771SOL    HW125210   2.610   5.085   7.834
 7771SOL    HW225211   2.530   5.108   7.960
 7772SOL     OW25212   0.334   8.332   6.981
 7772SOL    HW125213   0.401   8.316   7.047
 7772SOL    HW225214   0.320   8.427   6.984
 7773SOL     OW25215  11.038   8.802  10.184
 7773SOL    HW125216  10.967   8.848  10.140
 7773SOL    HW225217  11.083   8.755  10.113
 7774SOL     OW25218  14.504   3.389   4.832
 7774SOL    HW125219  14.447   3.388   4.909
 7774SOL    HW225220  14.498   3.479   4.799
 7775SOL     OW25221   8.582  13.542   5.254
 7775SOL    HW125222   8.576  13.454   5.217
 7775SOL    HW225223   8.545  13.599   5.187
 7776SOL     OW25224   6.510   7.085   2.929
 7776SOL    HW125225   6.462   7.149   2.876
 7776SOL    HW225226   6.460   7.079   3.011
 7777SOL     OW25227   2.754   3.313   0.980
 7777SOL    HW125228   2.770   3.403   1.007
 7777SOL    HW225229   2.841   3.273   0.974
 7778SOL     OW25230   0.443   0.136   2.252
 7778SOL    HW125231   0.462   0.113   2.161
 7778SOL    HW225232   0.348   0.130   2.259
 7779SOL     OW25233   0.922  13.624   7.183
 7779SOL    HW125234   0.888  13.535   7.182
 7779SOL    HW225235   0.871  13.669   7.250
 7780SOL     OW25236  14.833   6.099   6.848
 7780SOL    HW125237   0.045   6.050   6.859
 7780SOL    HW225238  14.808   6.124   6.937
 7781SOL     OW25239   4.943  11.339   8.016
 7781SOL    HW125240   4.884  11.264   8.015
 7781SOL    HW225241   4.958  11.358   8.108
 7782SOL     OW25242  13.677   7.552  10.117
 7782SOL    HW125243  13.665   7.520  10.027
 7782SOL    HW225244  13.728   7.632  10.107
 7783SOL     OW25245  10.052  10.818   1.530
 7783SOL    HW125246  10.105  10.897   1.519
 7783SOL    HW225247  10.039  10.785   1.441
 7784SOL     OW25248   2.770   2.157   6.321
 7784SOL    HW125249   2.816   2.159   6.404
 7784SOL    HW225250   2.819   2.094   6.268
 7785SOL     OW25251   0.142  10.016   1.693
 7785SOL    HW125252   0.150   9.942   1.633
 7785SOL    HW225253   0.229  10.055   1.694
 7786SOL     OW25254  10.667   0.067   1.452
 7786SOL    HW125255  10.689   0.093   1.542
 7786SOL    HW225256  10.751   0.061   1.407
 7787SOL     OW25257  11.318  11.654  10.932
 7787SOL    HW125258  11.249  11.607  10.978
 7787SOL    HW225259  11.272  11.713  10.872
 7788SOL     OW25260   7.500   6.238   4.920
 7788SOL    HW125261   7.446   6.161   4.904
 7788SOL    HW225262   7.589   6.211   4.898
 7789SOL     OW25263   5.334  13.388  10.017
 7789SOL    HW125264   5.415  13.434   9.993
 7789SOL    HW225265   5.266  13.455  10.011
 7790SOL     OW25266  10.300   4.799   7.995
 7790SOL    HW125267  10.381   4.748   7.989
 7790SOL    HW225268  10.279   4.822   7.905
 7791SOL     OW25269   0.844   1.309   3.358
 7791SOL    HW125270   0.874   1.285   3.271
 7791SOL    HW225271   0.925   1.328   3.406
 7792SOL     OW25272   1.308   9.253   1.847
 7792SOL    HW125273   1.256   9.181   1.883
 7792SOL    HW225274   1.395   9.240   1.885
 7793SOL     OW25275   4.054   3.339  12.034
 7793SOL    HW125276   4.149   3.335  12.039
 7793SOL    HW225277   4.035   3.397  11.960
 7794SOL     OW25278   5.999   6.717  14.447
 7794SOL    HW125279   6.062   6.769  14.498
 7794SOL    HW225280   5.914   6.742  14.483
 7795SOL     OW25281   8.319  14.028   4.785
 7795SOL    HW125282   8.374  14.008   4.710
 7795SOL    HW225283   8.279  14.113   4.764
 7796SOL     OW25284  14.548  11.253   3.665
 7796SOL    HW125285  14.497  11.269   3.586
 7796SOL    HW225286  14.502  11.181   3.709
 7797SOL     OW25287   2.715   8.268  11.339
 7797SOL    HW125288   2.711   8.359  11.309
 7797SOL    HW225289   2.661   8.220  11.275
 7798SOL     OW25290   5.128  10.030   6.629
 7798SOL    HW125291   5.152  10.123   6.632
 7798SOL    HW225292   5.118  10.004   6.720
 7799SOL     OW25293  14.315  12.268   3.755
 7799SOL    HW125294  14.385  12.294   3.695
 7799SOL    HW225295  14.359  12.249   3.837
 7800SOL     OW25296   5.372   2.525   3.279
 7800SOL    HW125297   5.343   2.477   3.356
 7800SOL    HW225298   5.331   2.611   3.287
 7801SOL     OW25299  14.667   5.632   9.345
 7801SOL    HW125300  14.627   5.606   9.428
 7801SOL    HW225301  14.595   5.670   9.294
 7802SOL     OW25302  14.143   1.658   6.059
 7802SOL    HW125303  14.107   1.570   6.058
 7802SOL    HW225304  14.139   1.685   6.151
 7803SOL     OW25305  13.110   3.696  12.873
 7803SOL    HW125306  13.031   3.748  12.861
 7803SOL    HW225307  13.144   3.683  12.784
 7804SOL     OW25308   2.310  12.234   6.230
 7804SOL    HW125309   2.312  12.163   6.294
 7804SOL    HW225310   2.251  12.299   6.268
 7805SOL     OW25311   9.473   9.668   7.441
 7805SOL    HW125312   9.391   9.620   7.447
 7805SOL    HW225313   9.448   9.756   7.412
 7806SOL     OW25314   8.647  10.486   0.371
 7806SOL    HW125315   8.676  10.576   0.353
 7806SOL    HW225316   8.669  10.437   0.292
 7807SOL     OW25317  12.052  11.669   3.586
 7807SOL    HW125318  11.991  11.742   3.576
 7807SOL    HW225319  12.056  11.629   3.499
 7808SOL     OW25320   4.789   9.074   0.976
 7808SOL    HW125321   4.867   9.026   0.949
 7808SOL    HW225322   4.718   9.037   0.922
 7809SOL     OW25323  11.619   7.387   9.419
 7809SOL    HW125324  11.543   7.435   9.389
 7809SOL    HW225325  11.666   7.364   9.338
 7810SOL     OW25326   6.313   0.530   7.405
 7810SOL    HW125327   6.343   0.532   7.314
 7810SOL    HW225328   6.368   0.464   7.447
 7811SOL     OW25329   6.093  13.360   6.402
 7811SOL    HW125330   6.137  13.290   6.353
 7811SOL    HW225331   6.004  13.360   6.368
 7812SOL     OW25332   7.210  13.544   6.288
 7812SOL    HW125333   7.118  13.538   6.260
 7812SOL    HW225334   7.255  13.477   6.236
 7813SOL     OW25335  12.952   8.718  10.773
 7813SOL    HW125336  12.928   8.663  10.848
 7813SOL    HW225337  13.047   8.724  10.778
 7814SOL     OW25338   9.930   6.393   0.121
 7814SOL    HW125339   9.940   6.334   0.046
 7814SOL    HW225340   9.855   6.358   0.169
 7815SOL     OW25341  11.456   8.276   7.492
 7815SOL    HW125342  11.427   8.340   7.558
 7815SOL    HW225343  11.538   8.312   7.459
 7816SOL     OW25344  14.113   0.866   6.004
 7816SOL    HW125345  14.076   0.939   6.054
 7816SOL    HW225346  14.048   0.848   5.936
 7817SOL     OW25347   2.561  10.291   1.338
 7817SOL    HW125348   2.627  10.311   1.404
 7817SOL    HW225349   2.568  10.197   1.324
 7818SOL     OW25350  13.856   6.993  14.721
 7818SOL    HW125351  13.933   7.047  14.736
 7818SOL    HW225352  13.880   6.939  14.646
 7819SOL     OW25353   8.469  10.402   6.687
 7819SOL    HW125354   8.434  10.354   6.612
 7819SOL    HW225355   8.399  10.400   6.752
 7820SOL     OW25356   9.337  11.825  10.666
 7820SOL    HW125357   9.271  11.836  10.734
 7820SOL    HW225358   9.341  11.730  10.652
 7821SOL     OW25359  11.113  13.473  13.340
 7821SOL    HW125360  11.109  13.381  13.366
 7821SOL    HW225361  11.023  13.505  13.348
 7822SOL     OW25362   5.318   8.148   0.528
 7822SOL    HW125363   5.290   8.226   0.480
 7822SOL    HW225364   5.404   8.171   0.562
 7823SOL     OW25365   6.323  10.796   5.492
 7823SOL    HW125366   6.356  10.885   5.497
 7823SOL    HW225367   6.300  10.773   5.582
 7824SOL     OW25368   8.428   5.379  14.720
 7824SOL    HW125369   8.481   5.459  14.722
 7824SOL    HW225370   8.342   5.408  14.691
 7825SOL     OW25371   6.445   0.334   0.844
 7825SOL    HW125372   6.490   0.276   0.905
 7825SOL    HW225373   6.456   0.292   0.759
 7826SOL     OW25374   9.135   0.222  13.041
 7826SOL    HW125375   9.060   0.163  13.032
 7826SOL    HW225376   9.210   0.163  13.053
 7827SOL     OW25377   1.060   3.323  13.693
 7827SOL    HW125378   1.014   3.244  13.722
 7827SOL    HW225379   1.101   3.297  13.611
 7828SOL     OW25380  12.417   6.009   7.523
 7828SOL    HW125381  12.428   6.070   7.450
 7828SOL    HW225382  12.439   5.923   7.485
 7829SOL     OW25383  10.260   5.750   4.984
 7829SOL    HW125384  10.220   5.668   5.012
 7829SOL    HW225385  10.282   5.735   4.892
 7830SOL     OW25386   2.087   8.761   8.994
 7830SOL    HW125387   2.160   8.802   9.040
 7830SOL    HW225388   2.054   8.695   9.055
 7831SOL     OW25389   0.664   4.295   9.428
 7831SOL    HW125390   0.702   4.279   9.342
 7831SOL    HW225391   0.591   4.234   9.435
 7832SOL     OW25392   1.283   4.894   4.643
 7832SOL    HW125393   1.227   4.868   4.570
 7832SOL    HW225394   1.230   4.878   4.721
 7833SOL     OW25395   3.645  12.505   5.599
 7833SOL    HW125396   3.676  12.443   5.533
 7833SOL    HW225397   3.569  12.547   5.558
 7834SOL     OW25398   4.816  10.974   0.078
 7834SOL    HW125399   4.858  10.978  14.862
 7834SOL    HW225400   4.876  11.020   0.137
 7835SOL     OW25401  12.511  13.657   8.091
 7835SOL    HW125402  12.445  13.588   8.082
 7835SOL    HW225403  12.499  13.691   8.180
 7836SOL     OW25404   4.427   2.404   6.962
 7836SOL    HW125405   4.471   2.464   7.022
 7836SOL    HW225406   4.381   2.342   7.018
 7837SOL     OW25407   2.696   7.695  11.129
 7837SOL    HW125408   2.780   7.677  11.086
 7837SOL    HW225409   2.714   7.686  11.222
 7838SOL     OW25410  14.531   9.078  12.821
 7838SOL    HW125411  14.444   9.092  12.858
 7838SOL    HW225412  14.522   9.104  12.729
 7839SOL     OW25413  11.914   6.448   4.613
 7839SOL    HW125414  11.979   6.492   4.668
 7839SOL    HW225415  11.882   6.376   4.667
 7840SOL     OW25416   9.242  13.591   4.956
 7840SOL    HW125417   9.257  13.638   5.039
 7840SOL    HW225418   9.170  13.531   4.975
 7841SOL     OW25419  12.378   6.769   7.532
 7841SOL    HW125420  12.453   6.725   7.492
 7841SOL    HW225421  12.381   6.741   7.624
 7842SOL     OW25422   2.772   4.955   5.966
 7842SOL    HW125423   2.737   5.000   6.042
 7842SOL    HW225424   2.866   4.970   5.969
 7843SOL     OW25425  10.582  10.929   3.398
 7843SOL    HW125426  10.514  10.861   3.405
 7843SOL    HW225427  10.570  10.983   3.476
 7844SOL     OW25428   2.259   1.359   7.108
 7844SOL    HW125429   2.263   1.296   7.180
 7844SOL    HW225430   2.351   1.379   7.089
 7845SOL     OW25431  12.946   9.384   3.181
 7845SOL    HW125432  12.926   9.386   3.274
 7845SOL    HW225433  12.929   9.473   3.150
 7846SOL     OW25434   7.443   0.905   1.232
 7846SOL    HW125435   7.356   0.918   1.195
 7846SOL    HW225436   7.448   0.969   1.303
 7847SOL     OW25437  10.929  10.372   3.032
 7847SOL    HW125438  10.990  10.396   2.962
 7847SOL    HW225439  10.901  10.283   3.010
 7848SOL     OW25440  12.317   5.164   9.292
 7848SOL    HW125441  12.367   5.098   9.244
 7848SOL    HW225442  12.354   5.163   9.380
 7849SOL     OW25443   3.092   6.141   9.020
 7849SOL    HW125444   3.010   6.187   9.001
 7849SOL    HW225445   3.160   6.202   8.994
 7850SOL     OW25446   1.771   8.898   7.073
 7850SOL    HW125447   1.767   8.922   7.166
 7850SOL    HW225448   1.773   8.981   7.027
 7851SOL     OW25449   7.269  10.373  10.106
 7851SOL    HW125450   7.180  10.358  10.138
 7851SOL    HW225451   7.315  10.290  10.123
 7852SOL     OW25452   3.430   3.222   5.919
 7852SOL    HW125453   3.375   3.222   5.840
 7852SOL    HW225454   3.515   3.192   5.889
 7853SOL     OW25455  10.896   7.094   7.134
 7853SOL    HW125456  10.877   7.169   7.190
 7853SOL    HW225457  10.947   7.035   7.189
 7854SOL     OW25458  11.574   4.055   4.522
 7854SOL    HW125459  11.668   4.050   4.539
 7854SOL    HW225460  11.535   4.080   4.606
 7855SOL     OW25461   9.584  14.550  14.699
 7855SOL    HW125462   9.496  14.566  14.735
 7855SOL    HW225463   9.636  14.624  14.729
 7856SOL     OW25464   9.459  14.329   6.534
 7856SOL    HW125465   9.442  14.329   6.629
 7856SOL    HW225466   9.388  14.276   6.497
 7857SOL     OW25467  14.475   1.369   2.360
 7857SOL    HW125468  14.435   1.386   2.274
 7857SOL    HW225469  14.569   1.371   2.343
 7858SOL     OW25470   5.600   4.580   7.069
 7858SOL    HW125471   5.658   4.593   6.994
 7858SOL    HW225472   5.589   4.668   7.106
 7859SOL     OW25473  12.050   6.500  10.086
 7859SOL    HW125474  11.958   6.524  10.089
 7859SOL    HW225475  12.070   6.493   9.992
 7860SOL     OW25476   3.110   1.950  14.743
 7860SOL    HW125477   3.029   1.900  14.756
 7860SOL    HW225478   3.134   1.980  14.830
 7861SOL     OW25479  13.601   3.963  14.463
 7861SOL    HW125480  13.685   3.991  14.428
 7861SOL    HW225481  13.541   3.970  14.389
 7862SOL     OW25482  14.011  11.100   3.512
 7862SOL    HW125483  13.982  11.023   3.562
 7862SOL    HW225484  14.026  11.167   3.578
 7863SOL     OW25485   4.082   9.290  11.760
 7863SOL    HW125486   4.135   9.257  11.832
 7863SOL    HW225487   4.076   9.384  11.776
 7864SOL     OW25488   6.334   1.079  10.256
 7864SOL    HW125489   6.336   1.174  10.267
 7864SOL    HW225490   6.426   1.055  10.243
 7865SOL     OW25491   1.369   3.998   4.134
 7865SOL    HW125492   1.444   4.051   4.160
 7865SOL    HW225493   1.306   4.008   4.205
 7866SOL     OW25494  10.084  13.446   9.976
 7866SOL    HW125495  10.052  13.509   9.911
 7866SOL    HW225496  10.032  13.465  10.054
 7867SOL     OW25497   8.479  11.056  14.165
 7867SOL    HW125498   8.531  10.985  14.204
 7867SOL    HW225499   8.394  11.051  14.209
 7868SOL     OW25500   4.886  11.781   2.028
 7868SOL    HW125501   4.960  11.836   2.002
 7868SOL    HW225502   4.891  11.777   2.123
 7869SOL     OW25503   5.950   9.019   3.550
 7869SOL    HW125504   6.011   8.946   3.545
 7869SOL    HW225505   5.999   9.094   3.514
 7870SOL     OW25506   8.135   8.780  11.560
 7870SOL    HW125507   8.054   8.762  11.608
 7870SOL    HW225508   8.133   8.719  11.487
 7871SOL     OW25509   1.115   7.128   8.798
 7871SOL    HW125510   1.084   7.219   8.791
 7871SOL    HW225511   1.093   7.089   8.714
 7872SOL     OW25512  11.654   9.289  14.216
 7872SOL    HW125513  11.645   9.298  14.122
 7872SOL    HW225514  11.749   9.282  14.231
 7873SOL     OW25515  13.940   3.055   1.891
 7873SOL    HW125516  13.853   3.044   1.853
 7873SOL    HW225517  13.928   3.043   1.985
 7874SOL     OW25518  10.190   5.175  13.763
 7874SOL    HW125519  10.115   5.212  13.811
 7874SOL    HW225520  10.184   5.213  13.676
 7875SOL     OW25521  14.443   9.342   5.653
 7875SOL    HW125522  14.374   9.406   5.636
 7875SOL    HW225523  14.462   9.350   5.746
 7876SOL     OW25524   9.305   2.402   5.261
 7876SOL    HW125525   9.343   2.341   5.325
 7876SOL    HW225526   9.213   2.374   5.255
 7877SOL     OW25527   4.549   8.006   0.568
 7877SOL    HW125528   4.591   8.045   0.492
 7877SOL    HW225529   4.464   7.975   0.535
 7878SOL     OW25530  11.674   0.346  13.612
 7878SOL    HW125531  11.708   0.279  13.672
 7878SOL    HW225532  11.744   0.357  13.547
 7879SOL     OW25533  11.352  10.318  13.792
 7879SOL    HW125534  11.258  10.299  13.790
 7879SOL    HW225535  11.392  10.235  13.818
 7880SOL     OW25536   6.472  11.400   7.764
 7880SOL    HW125537   6.438  11.436   7.682
 7880SOL    HW225538   6.567  11.398   7.752
 7881SOL     OW25539  12.069  11.715  13.431
 7881SOL    HW125540  12.127  11.786  13.457
 7881SOL    HW225541  12.024  11.747  13.353
 7882SOL     OW25542   8.113   6.545   5.990
 7882SOL    HW125543   8.050   6.616   5.981
 7882SOL    HW225544   8.194   6.587   6.017
 7883SOL     OW25545   7.829  12.728   7.559
 7883SOL    HW125546   7.882  12.795   7.515
 7883SOL    HW225547   7.746  12.727   7.510
 7884SOL     OW25548  12.021  13.836   7.256
 7884SOL    HW125549  12.013  13.808   7.165
 7884SOL    HW225550  12.066  13.921   7.250
 7885SOL     OW25551   0.136   7.516   2.102
 7885SOL    HW125552   0.107   7.567   2.026
 7885SOL    HW225553   0.061   7.516   2.161
 7886SOL     OW25554   1.862   2.774  10.192
 7886SOL    HW125555   1.892   2.834  10.260
 7886SOL    HW225556   1.804   2.712  10.237
 7887SOL     OW25557  14.471   5.638  14.092
 7887SOL    HW125558  14.401   5.702  14.104
 7887SOL    HW225559  14.425   5.556  14.074
 7888SOL     OW25560  11.783  13.480   5.692
 7888SOL    HW125561  11.695  13.518   5.683
 7888SOL    HW225562  11.769  13.386   5.687
 7889SOL     OW25563   5.922   2.462   3.249
 7889SOL    HW125564   5.902   2.377   3.210
 7889SOL    HW225565   5.846   2.482   3.304
 7890SOL     OW25566   1.597   8.285   2.680
 7890SOL    HW125567   1.573   8.196   2.652
 7890SOL    HW225568   1.513   8.328   2.695
 7891SOL     OW25569   6.664   8.857   2.537
 7891SOL    HW125570   6.656   8.952   2.548
 7891SOL    HW225571   6.579   8.822   2.562
 7892SOL     OW25572   8.205   8.930   4.099
 7892SOL    HW125573   8.217   8.868   4.027
 7892SOL    HW225574   8.111   8.949   4.099
 7893SOL     OW25575  12.275  13.771  11.800
 7893SOL    HW125576  12.333  13.845  11.780
 7893SOL    HW225577  12.270  13.721  11.718
 7894SOL     OW25578   1.414  13.837   0.942
 7894SOL    HW125579   1.339  13.789   0.975
 7894SOL    HW225580   1.485  13.773   0.942
 7895SOL     OW25581   6.167   6.062   1.899
 7895SOL    HW125582   6.212   6.012   1.967
 7895SOL    HW225583   6.166   6.152   1.931
 7896SOL     OW25584   8.543  13.784  12.657
 7896SOL    HW125585   8.525  13.755  12.746
 7896SOL    HW225586   8.457  13.782  12.614
 7897SOL     OW25587   8.310   6.147   3.650
 7897SOL    HW125588   8.383   6.094   3.681
 7897SOL    HW225589   8.239   6.128   3.711
 7898SOL     OW25590   1.831   6.028   4.994
 7898SOL    HW125591   1.774   6.098   4.964
 7898SOL    HW225592   1.784   5.988   5.067
 7899SOL     OW25593   5.977   6.456   2.098
 7899SOL    HW125594   6.068   6.458   2.071
 7899SOL    HW225595   5.967   6.532   2.156
 7900SOL     OW25596  11.011   6.426   9.906
 7900SOL    HW125597  11.055   6.341   9.907
 7900SOL    HW225598  11.007   6.450   9.813
 7901SOL     OW25599  14.190   7.882  14.722
 7901SOL    HW125600  14.204   7.921  14.636
 7901SOL    HW225601  14.276   7.887  14.765
 7902SOL     OW25602   5.561   0.638   5.962
 7902SOL    HW125603   5.625   0.611   5.897
 7902SOL    HW225604   5.543   0.730   5.942
 7903SOL     OW25605  12.526   0.593   0.395
 7903SOL    HW125606  12.573   0.527   0.345
 7903SOL    HW225607  12.436   0.589   0.361
 7904SOL     OW25608   7.576   1.759  11.720
 7904SOL    HW125609   7.648   1.789  11.776
 7904SOL    HW225610   7.619   1.713  11.648
 7905SOL     OW25611   5.506   1.339   2.461
 7905SOL    HW125612   5.600   1.351   2.447
 7905SOL    HW225613   5.494   1.244   2.462
 7906SOL     OW25614  14.223   5.815  10.985
 7906SOL    HW125615  14.186   5.799  11.072
 7906SOL    HW225616  14.171   5.886  10.949
 7907SOL     OW25617  14.595   4.934   5.176
 7907SOL    HW125618  14.632   4.950   5.089
 7907SOL    HW225619  14.501   4.927   5.161
 7908SOL     OW25620  12.602   7.992  10.661
 7908SOL    HW125621  12.683   7.976  10.611
 7908SOL    HW225622  12.625   7.971  10.751
 7909SOL     OW25623   9.772  11.518   0.073
 7909SOL    HW125624   9.759  11.482  14.854
 7909SOL    HW225625   9.841  11.583   0.061
 7910SOL     OW25626   1.029  13.314  12.438
 7910SOL    HW125627   1.109  13.364  12.452
 7910SOL    HW225628   0.971  13.373  12.390
 7911SOL     OW25629   4.215   7.192  12.154
 7911SOL    HW125630   4.273   7.226  12.222
 7911SOL    HW225631   4.230   7.098  12.155
 7912SOL     OW25632   8.408  11.714  13.243
 7912SOL    HW125633   8.378  11.650  13.307
 7912SOL    HW225634   8.406  11.797  13.290
 7913SOL     OW25635   8.449  14.484  13.000
 7913SOL    HW125636   8.387  14.431  13.051
 7913SOL    HW225637   8.475  14.554  13.061
 7914SOL     OW25638   6.061   3.225  11.963
 7914SOL    HW125639   6.012   3.159  11.914
 7914SOL    HW225640   6.150   3.189  11.969
 7915SOL     OW25641   6.512   6.773   0.727
 7915SOL    HW125642   6.597   6.816   0.715
 7915SOL    HW225643   6.452   6.845   0.748
 7916SOL     OW25644   7.205  14.018   2.838
 7916SOL    HW125645   7.223  14.108   2.811
 7916SOL    HW225646   7.170  14.026   2.927
 7917SOL     OW25647   9.348   1.366   3.456
 7917SOL    HW125648   9.322   1.457   3.464
 7917SOL    HW225649   9.304   1.335   3.377
 7918SOL     OW25650   5.478   1.225   0.281
 7918SOL    HW125651   5.567   1.196   0.301
 7918SOL    HW225652   5.425   1.144   0.283
 7919SOL     OW25653   9.587   6.002  11.885
 7919SOL    HW125654   9.563   6.005  11.792
 7919SOL    HW225655   9.638   6.081  11.899
 7920SOL     OW25656  14.698   8.191  14.436
 7920SOL    HW125657  14.759   8.164  14.368
 7920SOL    HW225658  14.675   8.282  14.413
 7921SOL     OW25659   0.213   7.082   7.491
 7921SOL    HW125660   0.292   7.096   7.543
 7921SOL    HW225661   0.152   7.150   7.523
 7922SOL     OW25662  12.268  12.653  14.034
 7922SOL    HW125663  12.251  12.614  13.948
 7922SOL    HW225664  12.287  12.745  14.016
 7923SOL     OW25665  14.288   4.315  10.123
 7923SOL    HW125666  14.244   4.385  10.074
 7923SOL    HW225667  14.372   4.304  10.079
 7924NA      NA25668   9.229   4.020  12.484
 7925NA      NA25669  10.524  14.695  13.109
 7926NA      NA25670   1.798   8.216   1.654
 7927NA      NA25671   1.632   2.242   0.272
 7928NA      NA25672   8.241   5.527  12.350
 7929NA      NA25673  10.070   5.660   9.170
 7930NA      NA25674   8.806  11.423   0.856
 7931NA      NA25675   9.802   5.361   6.968
 7932NA      NA25676   9.696   4.334   7.358
 7933NA      NA25677  11.693   9.276   6.243
 7934NA      NA25678   8.785   7.598   1.888
 7935NA      NA25679  14.477   7.324   7.790
 7936NA      NA25680   9.918   4.585   8.185
 7937NA      NA25681   7.247  12.328   4.038
 7938NA      NA25682   4.625   9.294   5.823
 7939NA      NA25683   8.491   5.760   6.969
 7940NA      NA25684  14.757   4.979   8.743
 7941NA      NA25685  10.301   6.147   6.339
 7942NA      NA25686   7.291   1.932   1.857
 7943NA      NA25687   9.983   4.209  11.911
 7944NA      NA25688   0.610  14.262   2.334
 7945NA      NA25689   9.130   6.685   0.024
 7946NA      NA25690  11.092   4.862   6.336
 7947NA      NA25691   8.807   6.026   2.782
 7948NA      NA25692   8.700   3.967  10.251
 7949NA      NA25693   6.041  10.703   0.951
 7950NA      NA25694   7.404   6.774   4.434
 7951NA      NA25695  10.242   5.547   4.633
 7952NA      NA25696   8.963   6.485  10.929
 7953NA      NA25697   9.815  14.071   6.419
 7954NA      NA25698   8.433   5.961   5.198
 7955NA      NA25699  10.424   3.970   9.625
 7956NA      NA25700   9.771   6.417   5.674
 7957NA      NA25701   8.837   6.006  10.082
 7958NA      NA25702  10.223   5.212   7.571
 7959NA      NA25703  12.471   5.061   7.789
 7960NA      NA25704   9.359   6.290   8.516
 7961NA      NA25705   8.998   6.606   4.879
 7962NA      NA25706   6.837   3.154   2.158
 7963NA      NA25707  10.739   4.160  10.913
 7964NA      NA25708   7.892   6.375   9.239
 7965NA      NA25709   8.307   7.274   5.023
 7966NA      NA25710   7.103   0.553  12.554
 7967NA      NA25711   7.017  13.234   1.824
 7968NA      NA25712   4.570  12.375  11.265
 7969NA      NA25713   0.081   8.747   3.366
 7970NA      NA25714   9.423   5.030   2.399
 7971NA      NA25715  10.287   5.261  10.582
 7972NA      NA25716   7.907   5.862   4.348
 7973NA      NA25717   9.594   4.569   6.859
 7974NA      NA25718   8.783   4.537   7.420
 7975NA      NA25719   7.939   7.044   2.412
 7976NA      NA25720   8.999   3.728  11.651
 7977NA      NA25721   9.508   3.841  10.334
 7978NA      NA25722   9.904   7.500   6.579
 7979NA      NA25723   8.935   7.323   3.026
 7980NA      NA25724   4.947   6.938   2.985
 7981NA      NA25725  10.600  11.146   8.410
 7982NA      NA25726   9.269   5.489  12.392
 7983NA      NA25727   8.691   6.411   8.158
 7984NA      NA25728   8.449   5.604   5.672
 7985NA      NA25729   9.486   6.599   9.697
 7986NA      NA25730  10.075   5.752  13.337
 7987NA      NA25731  13.707  10.264  10.650
  14.86950  14.86950  14.86950
